/*--------------------------------*- C++ -*----------------------------------*\
| =========                 |                                                 |
| \\      /  F ield         | foam-extend: Open Source CFD                    |
|  \\    /   O peration     | Version:     4.1                                |
|   \\  /    A nd           | Web:         http://www.foam-extend.org         |
|    \\/     M anipulation  |                                                 |
\*---------------------------------------------------------------------------*/
FoamFile
{
    version     2.0;
    format      ascii;
    class       volScalarField;
    location    "2";
    object      sigmaEq;
}
// * * * * * * * * * * * * * * * * * * * * * * * * * * * * * * * * * * * * * //

dimensions      [1 -1 -2 0 0 0 0];

internalField   nonuniform List<scalar> 
100000
(
1.20648e+06
1.81119e+06
1.77822e+06
1.7348e+06
1.69705e+06
1.66014e+06
1.62529e+06
1.59225e+06
1.56089e+06
1.53071e+06
1.50193e+06
1.47448e+06
1.44917e+06
1.42427e+06
1.40119e+06
1.3789e+06
1.35766e+06
1.33763e+06
1.3183e+06
1.30006e+06
1.28251e+06
1.26591e+06
1.24987e+06
1.23452e+06
1.21979e+06
1.20584e+06
1.19252e+06
1.17978e+06
1.16762e+06
1.15592e+06
1.14461e+06
1.13363e+06
1.12332e+06
1.11326e+06
1.10332e+06
1.09393e+06
1.08491e+06
1.07627e+06
1.06801e+06
1.06007e+06
1.05237e+06
1.04497e+06
1.03787e+06
1.03104e+06
972402
792508
781311
778312
775305
772284
769251
766231
763213
760216
757234
754275
751315
748363
745431
742514
739607
736707
733841
730995
728177
725362
722561
719795
717031
714311
711617
708958
706366
703782
701236
698730
696236
693793
691375
688983
686655
684376
682150
679985
677861
675799
673809
671881
670042
668316
666730
665314
664089
663138
662487
662523
662978
664732
668645
678480
1.25544e+06
1.79744e+06
1.79119e+06
1.74746e+06
1.70847e+06
1.67121e+06
1.63578e+06
1.60237e+06
1.57025e+06
1.53928e+06
1.51037e+06
1.48288e+06
1.4568e+06
1.43142e+06
1.40802e+06
1.38535e+06
1.3638e+06
1.34328e+06
1.32365e+06
1.30522e+06
1.28742e+06
1.27039e+06
1.25395e+06
1.23835e+06
1.22345e+06
1.20924e+06
1.19567e+06
1.18272e+06
1.17027e+06
1.15832e+06
1.14681e+06
1.13585e+06
1.1252e+06
1.11466e+06
1.10457e+06
1.09509e+06
1.08591e+06
1.07717e+06
1.06877e+06
1.06064e+06
1.05275e+06
1.0452e+06
1.03797e+06
1.03103e+06
948833
788586
783874
780861
777848
774833
771795
768765
765743
762745
759747
756771
753818
750871
747932
745010
742124
739232
736361
733509
730678
727880
725077
722314
719579
716860
714188
711533
708923
706374
703846
701352
698905
696493
694131
691813
689527
687300
685142
683046
681026
679083
677221
675472
673837
672336
671018
669926
669124
668702
668698
669371
670525
672582
684821
699032
1.25958e+06
1.77777e+06
1.80346e+06
1.75897e+06
1.71942e+06
1.68194e+06
1.64566e+06
1.61186e+06
1.5794e+06
1.54796e+06
1.5183e+06
1.4903e+06
1.4637e+06
1.43833e+06
1.41439e+06
1.39162e+06
1.36954e+06
1.34876e+06
1.32897e+06
1.31006e+06
1.29181e+06
1.27457e+06
1.25801e+06
1.24214e+06
1.22688e+06
1.21235e+06
1.19853e+06
1.18533e+06
1.1727e+06
1.16061e+06
1.14893e+06
1.13771e+06
1.12658e+06
1.11584e+06
1.10582e+06
1.09611e+06
1.08678e+06
1.07786e+06
1.06923e+06
1.06091e+06
1.05296e+06
1.04537e+06
1.03801e+06
1.03088e+06
928478
788180
786303
783297
780274
777238
774186
771154
768125
765116
762119
759140
756180
753227
750297
747377
744487
741594
738715
735877
733037
730237
727459
724694
721979
719269
716591
713967
711367
708826
706323
703848
701438
699062
696724
694439
692197
690025
687933
685907
683966
682115
680366
678734
677241
675912
674784
673897
673276
672962
672955
673319
679976
690961
700698
711693
1.25396e+06
1.78101e+06
1.78588e+06
1.7704e+06
1.73061e+06
1.69238e+06
1.65542e+06
1.62074e+06
1.58787e+06
1.55607e+06
1.52611e+06
1.49773e+06
1.47093e+06
1.44493e+06
1.42064e+06
1.39748e+06
1.37509e+06
1.35409e+06
1.33379e+06
1.31457e+06
1.29625e+06
1.27867e+06
1.26162e+06
1.2454e+06
1.22999e+06
1.21534e+06
1.20129e+06
1.18782e+06
1.17494e+06
1.16258e+06
1.15063e+06
1.13903e+06
1.12776e+06
1.11708e+06
1.10683e+06
1.09696e+06
1.08745e+06
1.07829e+06
1.06945e+06
1.061e+06
1.05294e+06
1.04521e+06
1.03773e+06
1.03051e+06
891825
790645
788560
785548
782509
779466
776417
773383
770348
767332
764340
761354
758387
755428
752504
749582
746676
743801
740922
738086
735259
732444
729685
726923
724196
721509
718829
716219
713650
711108
708631
706191
703796
701452
699147
696890
694695
692560
690500
688519
686630
684848
683154
681563
680101
678795
677669
676733
675984
675424
675008
685808
702522
721523
727122
731942
1.06232e+06
1.69419e+06
1.77156e+06
1.78138e+06
1.74076e+06
1.70226e+06
1.66477e+06
1.62968e+06
1.59648e+06
1.56428e+06
1.53381e+06
1.50472e+06
1.47762e+06
1.45116e+06
1.42673e+06
1.40304e+06
1.38042e+06
1.35898e+06
1.33861e+06
1.31904e+06
1.30016e+06
1.28225e+06
1.26512e+06
1.24876e+06
1.23311e+06
1.2181e+06
1.20367e+06
1.1899e+06
1.1768e+06
1.16425e+06
1.15212e+06
1.14039e+06
1.12906e+06
1.11819e+06
1.10771e+06
1.0976e+06
1.08785e+06
1.07847e+06
1.06948e+06
1.06091e+06
1.05274e+06
1.0449e+06
1.03732e+06
1.01702e+06
843763
793671
790657
787635
784594
781552
778502
775461
772425
769401
766407
763411
760441
757482
754550
751639
748716
745839
742972
740119
737319
734514
731751
729022
726288
723601
720947
718321
715755
713234
710756
708335
705965
703626
701355
699131
696961
694861
692838
690869
688992
687236
685565
683986
682526
681179
679963
678870
677886
687961
705914
723881
736354
742402
747659
745820
919716
1.70225e+06
1.66429e+06
1.62106e+06
1.66728e+06
1.68148e+06
1.67416e+06
1.63812e+06
1.60428e+06
1.5718e+06
1.5408e+06
1.51162e+06
1.48392e+06
1.45739e+06
1.43238e+06
1.40844e+06
1.38556e+06
1.36382e+06
1.34294e+06
1.32303e+06
1.30405e+06
1.28593e+06
1.26842e+06
1.25167e+06
1.23572e+06
1.22052e+06
1.20598e+06
1.19204e+06
1.17866e+06
1.16579e+06
1.15342e+06
1.14152e+06
1.13007e+06
1.11905e+06
1.10841e+06
1.09813e+06
1.08818e+06
1.0786e+06
1.06944e+06
1.06069e+06
1.05234e+06
1.04432e+06
1.03655e+06
994828
819684
795647
792613
789574
786527
783481
780428
777383
774353
771318
768314
765312
762334
759385
756435
753531
750619
747719
744864
742001
739188
736412
733637
730912
728210
725519
722884
720280
717703
715196
712732
710311
707960
705627
703392
701132
698926
696889
694876
692976
691090
689198
687468
676242
656514
637173
621490
616831
627640
639184
652103
652511
646305
638281
630576
627101
873268
1.63971e+06
1.59399e+06
1.66539e+06
1.73673e+06
1.66192e+06
1.5545e+06
1.50133e+06
1.50152e+06
1.50579e+06
1.51339e+06
1.51817e+06
1.49005e+06
1.46316e+06
1.43787e+06
1.41366e+06
1.39033e+06
1.36822e+06
1.34724e+06
1.32704e+06
1.30758e+06
1.28905e+06
1.27135e+06
1.25446e+06
1.23833e+06
1.22292e+06
1.20809e+06
1.19384e+06
1.18017e+06
1.16707e+06
1.15451e+06
1.14242e+06
1.13079e+06
1.11959e+06
1.10876e+06
1.09826e+06
1.08814e+06
1.07844e+06
1.06919e+06
1.06034e+06
1.05186e+06
1.04367e+06
1.03571e+06
975144
814132
797451
794410
791359
788305
785254
782201
779147
776120
773081
770062
767063
764068
761125
758173
755245
752358
749449
746585
743752
740917
738144
735393
732640
725957
704948
684097
663444
642993
622780
602838
583185
563837
544832
526211
554050
490208
472890
456112
439881
474736
476283
397828
391759
391603
387255
382740
383782
391578
393618
388248
382868
377735
372501
367440
360856
874698
1.63661e+06
1.58891e+06
1.57842e+06
1.63283e+06
1.65124e+06
1.59652e+06
1.54789e+06
1.50727e+06
1.47255e+06
1.43752e+06
1.36046e+06
1.29929e+06
1.29124e+06
1.28546e+06
1.28096e+06
1.27755e+06
1.27461e+06
1.27194e+06
1.26938e+06
1.26658e+06
1.26343e+06
1.25971e+06
1.25535e+06
1.24058e+06
1.22486e+06
1.20978e+06
1.19532e+06
1.18147e+06
1.16819e+06
1.15544e+06
1.14315e+06
1.13136e+06
1.11999e+06
1.10896e+06
1.09827e+06
1.08799e+06
1.07814e+06
1.06875e+06
1.05974e+06
1.0511e+06
1.0428e+06
1.03467e+06
957312
799304
776417
761453
746015
730195
714019
697557
680815
663858
646702
629405
612011
594564
577108
559692
542325
525092
508028
491155
474592
458349
442486
427088
412951
403472
395345
383037
371533
360927
351285
342677
335183
328839
323726
319846
317265
315949
315878
317068
319464
322888
325788
326277
316894
305295
295917
289258
288536
288153
287649
287138
286619
286063
285611
284996
284559
875554
1.63118e+06
1.58204e+06
1.52369e+06
1.54978e+06
1.61364e+06
1.5912e+06
1.53763e+06
1.4871e+06
1.43848e+06
1.3931e+06
1.34937e+06
1.30698e+06
1.26891e+06
1.23505e+06
1.20459e+06
1.1762e+06
1.15031e+06
1.1267e+06
1.10475e+06
1.08391e+06
1.06429e+06
1.04561e+06
1.01546e+06
986046
971209
958563
945899
933240
920572
907883
895061
882082
868864
855391
841743
827957
814105
800218
786368
772535
758714
744485
598914
416840
407300
398451
389583
380787
372148
363763
355703
348081
340979
334507
328735
323774
319714
316635
314575
313596
313745
315034
317461
321017
325666
331368
338068
343932
343732
343497
343235
342948
342987
343156
343272
343338
343346
343303
343195
343017
342782
342513
337969
330213
318204
310051
305514
296647
290574
289168
289572
290158
290917
291837
292941
294108
295671
296963
297289
840442
1.59717e+06
1.55437e+06
1.50113e+06
1.45804e+06
1.56885e+06
1.67829e+06
1.62427e+06
1.57252e+06
1.51967e+06
1.46399e+06
1.41506e+06
1.37457e+06
1.33597e+06
1.29936e+06
1.26522e+06
1.23253e+06
1.20101e+06
1.17085e+06
1.14229e+06
1.115e+06
1.08913e+06
1.06438e+06
1.04064e+06
1.01236e+06
985182
959897
936272
914249
893879
875132
857879
841989
827269
813567
801063
789787
779812
771136
763638
757442
752254
748249
615638
549924
553237
554208
555084
555921
556685
557380
558050
558644
559198
559724
560104
560589
561025
561239
561481
561620
561718
561731
561668
561525
561296
560998
560624
560177
559660
559068
558416
557955
557553
556822
555902
554920
553860
552732
551534
545902
534322
519329
504431
492752
486243
478564
463281
450014
451862
456477
461086
465682
470266
474819
479396
483770
488621
492592
507382
945877
1.64502e+06
1.60725e+06
1.5588e+06
1.51608e+06
1.51268e+06
1.6624e+06
1.74294e+06
1.70362e+06
1.66641e+06
1.62906e+06
1.59013e+06
1.5536e+06
1.51817e+06
1.4849e+06
1.45401e+06
1.42464e+06
1.39656e+06
1.36983e+06
1.34456e+06
1.32047e+06
1.29773e+06
1.27621e+06
1.2557e+06
1.23609e+06
1.21742e+06
1.19975e+06
1.18307e+06
1.16721e+06
1.15216e+06
1.13792e+06
1.12451e+06
1.11182e+06
1.0997e+06
1.08789e+06
1.07644e+06
1.06548e+06
1.05499e+06
1.04517e+06
1.03577e+06
1.02705e+06
1.01861e+06
1.01048e+06
903523
884281
886507
885826
885058
884233
883379
882434
881481
880470
879433
878337
877206
882046
874801
873514
872204
870799
869356
867844
866250
864591
862860
861060
859203
857281
855293
853251
851155
848998
845933
842450
838969
835487
831996
817267
800945
783381
767066
752120
747597
744302
723435
702438
687006
684449
681914
679397
676886
674390
671902
669434
666957
664522
662144
659660
657334
936647
1.6271e+06
1.59035e+06
1.5432e+06
1.50148e+06
1.46062e+06
1.50137e+06
1.64715e+06
1.68829e+06
1.65247e+06
1.61849e+06
1.58624e+06
1.55638e+06
1.52809e+06
1.50039e+06
1.47474e+06
1.45081e+06
1.42784e+06
1.4056e+06
1.38428e+06
1.36374e+06
1.34424e+06
1.32573e+06
1.30801e+06
1.29088e+06
1.27424e+06
1.25813e+06
1.24269e+06
1.2279e+06
1.2137e+06
1.19999e+06
1.18686e+06
1.17428e+06
1.16217e+06
1.15034e+06
1.13864e+06
1.1272e+06
1.11587e+06
1.10506e+06
1.09452e+06
1.08447e+06
1.07485e+06
1.06532e+06
956439
941021
940819
937763
934674
931492
928308
925075
921800
918525
915216
911852
908550
905039
901531
898182
894737
891315
887864
884396
880921
877436
873951
870466
866984
863494
859999
856497
852990
849481
845970
842458
833121
817778
800129
782726
767495
757401
754123
750840
741923
720205
699591
690983
688368
685772
683202
680655
678128
675620
673115
670629
668138
665680
663287
660803
658455
927722
1.60905e+06
1.57303e+06
1.52688e+06
1.48658e+06
1.44651e+06
1.40981e+06
1.48229e+06
1.62299e+06
1.63797e+06
1.60508e+06
1.57395e+06
1.5448e+06
1.51731e+06
1.49106e+06
1.46603e+06
1.44248e+06
1.42021e+06
1.39897e+06
1.37867e+06
1.35896e+06
1.33994e+06
1.32178e+06
1.30455e+06
1.28805e+06
1.27207e+06
1.25651e+06
1.24152e+06
1.22713e+06
1.21335e+06
1.20002e+06
1.18715e+06
1.17481e+06
1.1629e+06
1.15142e+06
1.14011e+06
1.1292e+06
1.1183e+06
1.10773e+06
1.09752e+06
1.08755e+06
1.07813e+06
1.06882e+06
955922
941892
941319
938226
935123
931945
928721
925491
922201
918898
915562
912185
908788
905367
901911
898475
895008
891538
888059
884556
881046
877533
874024
870515
867004
863482
859957
856421
852880
848847
833366
816767
799172
782871
767716
763839
760545
757251
753955
738653
717226
697380
694698
692071
689465
686875
684300
681732
679178
676647
674127
671640
669148
666688
664288
661789
659403
918842
1.59089e+06
1.55537e+06
1.51006e+06
1.47095e+06
1.43233e+06
1.396e+06
1.36271e+06
1.4547e+06
1.59095e+06
1.59136e+06
1.56094e+06
1.5329e+06
1.50654e+06
1.48114e+06
1.45698e+06
1.43424e+06
1.41261e+06
1.39193e+06
1.37229e+06
1.35345e+06
1.33528e+06
1.31775e+06
1.30098e+06
1.28495e+06
1.2695e+06
1.25442e+06
1.23987e+06
1.22587e+06
1.2125e+06
1.19966e+06
1.18718e+06
1.17519e+06
1.16348e+06
1.15226e+06
1.14121e+06
1.13057e+06
1.12016e+06
1.10987e+06
1.10004e+06
1.09034e+06
1.08106e+06
1.07204e+06
956469
942789
941575
938479
935338
932169
928925
925673
922380
919049
915694
912297
908872
905443
901990
898518
895037
891541
888030
884504
880973
877438
873907
870375
866839
863297
859747
848876
833279
815506
798166
782879
773498
770189
766880
763572
760265
756965
735757
714595
700957
698249
695566
692911
690287
687692
685113
682545
679988
677441
674897
672390
669886
667433
665045
662565
660175
909397
1.5725e+06
1.53774e+06
1.49303e+06
1.45454e+06
1.41761e+06
1.38209e+06
1.34941e+06
1.3183e+06
1.41972e+06
1.55092e+06
1.5479e+06
1.52028e+06
1.49471e+06
1.47063e+06
1.44752e+06
1.42555e+06
1.40464e+06
1.38466e+06
1.36567e+06
1.3475e+06
1.33006e+06
1.31322e+06
1.29703e+06
1.28154e+06
1.26663e+06
1.25208e+06
1.23797e+06
1.2244e+06
1.21135e+06
1.1989e+06
1.18682e+06
1.17531e+06
1.16397e+06
1.153e+06
1.14228e+06
1.13176e+06
1.12168e+06
1.11163e+06
1.10203e+06
1.09274e+06
1.08364e+06
1.07481e+06
957861
943536
941598
938514
935345
932159
928915
925632
922329
918984
915603
912203
908762
905311
901847
898362
894859
891340
887802
884255
880701
877147
873593
870036
864153
848554
831613
814028
797870
783060
779743
776428
773114
769798
766486
763173
755254
733191
712227
704378
701650
698949
696271
693610
690961
688335
685732
683151
680591
678044
675505
672992
670470
667990
665582
663101
660707
899345
1.55323e+06
1.51977e+06
1.47603e+06
1.43802e+06
1.40211e+06
1.36791e+06
1.33588e+06
1.30563e+06
1.27718e+06
1.37737e+06
1.50298e+06
1.50791e+06
1.48304e+06
1.4596e+06
1.43737e+06
1.41636e+06
1.39635e+06
1.37714e+06
1.3588e+06
1.34124e+06
1.32447e+06
1.30833e+06
1.29281e+06
1.27788e+06
1.2635e+06
1.24951e+06
1.23586e+06
1.22269e+06
1.20994e+06
1.19782e+06
1.18602e+06
1.17484e+06
1.164e+06
1.15336e+06
1.1431e+06
1.13281e+06
1.12293e+06
1.11323e+06
1.10373e+06
1.09468e+06
1.08594e+06
1.07725e+06
959725
943987
941408
938317
935144
931925
928682
925388
922057
918705
915305
911888
908445
904980
901496
897997
894473
890933
887376
883811
880241
876672
863480
847452
829746
812699
797279
789238
785896
782562
779226
775894
772563
769237
765916
752795
730870
710454
707602
704845
702113
699403
696718
694053
691409
688780
686160
683556
680971
678415
675882
673382
670876
668404
665990
663497
661073
889216
1.53332e+06
1.50122e+06
1.45847e+06
1.42141e+06
1.38627e+06
1.35334e+06
1.32208e+06
1.29275e+06
1.26489e+06
1.23916e+06
1.32756e+06
1.44781e+06
1.47094e+06
1.44841e+06
1.42707e+06
1.40688e+06
1.38769e+06
1.3693e+06
1.35169e+06
1.3348e+06
1.31861e+06
1.30305e+06
1.28812e+06
1.27379e+06
1.25993e+06
1.24645e+06
1.23328e+06
1.22062e+06
1.20825e+06
1.19642e+06
1.18497e+06
1.17397e+06
1.16355e+06
1.1532e+06
1.14333e+06
1.13355e+06
1.12385e+06
1.11447e+06
1.10528e+06
1.09631e+06
1.08778e+06
1.07953e+06
963364
944051
941017
937892
934724
931489
928223
924931
921580
918208
914802
911371
907912
904436
900935
897420
893878
890320
886747
878053
862408
845096
827600
811733
798630
795280
791933
788582
785236
781897
778562
775235
771903
768571
750686
728840
713417
710615
707846
705098
702366
699647
696950
694275
691622
688991
686374
683772
681184
678614
676057
673542
656088
636127
616217
597164
581918
879155
1.51288e+06
1.4823e+06
1.44057e+06
1.40443e+06
1.3701e+06
1.33815e+06
1.30805e+06
1.27952e+06
1.25256e+06
1.22728e+06
1.20362e+06
1.27054e+06
1.38579e+06
1.43698e+06
1.41625e+06
1.39679e+06
1.37844e+06
1.36091e+06
1.34412e+06
1.32796e+06
1.31244e+06
1.29753e+06
1.28316e+06
1.26941e+06
1.2561e+06
1.24317e+06
1.23047e+06
1.21825e+06
1.20636e+06
1.19482e+06
1.18378e+06
1.17296e+06
1.16279e+06
1.15281e+06
1.14308e+06
1.13377e+06
1.12447e+06
1.11525e+06
1.10639e+06
1.09785e+06
1.08921e+06
1.08051e+06
965452
943480
940415
937264
934079
930853
927561
924246
920891
917502
914084
910644
907168
903680
900164
896631
892181
876522
860012
842460
825884
810401
804565
801203
797840
794477
791113
787747
784390
781040
777698
774362
771030
748806
727052
716322
702242
679780
657670
635936
614585
593638
573097
552976
533304
514107
495407
477227
459593
442531
426066
408044
392130
377791
363791
351054
338230
869389
1.49222e+06
1.46278e+06
1.42242e+06
1.38734e+06
1.35381e+06
1.32272e+06
1.29357e+06
1.26626e+06
1.23998e+06
1.21555e+06
1.19249e+06
1.17082e+06
1.2069e+06
1.31704e+06
1.40349e+06
1.38678e+06
1.36908e+06
1.35222e+06
1.33612e+06
1.32072e+06
1.3059e+06
1.29164e+06
1.27786e+06
1.2647e+06
1.25192e+06
1.23953e+06
1.22739e+06
1.21557e+06
1.20419e+06
1.19293e+06
1.18227e+06
1.17185e+06
1.16179e+06
1.15222e+06
1.14275e+06
1.13356e+06
1.12469e+06
1.11588e+06
1.10696e+06
1.09887e+06
1.09079e+06
1.08229e+06
967211
942654
939577
936434
933223
929982
926686
923349
919979
916582
913147
909694
906209
902706
890093
874345
856782
839601
824088
813733
805481
780825
756475
732435
708710
685313
662268
639595
617315
595442
574001
550041
510711
473816
452214
433031
415052
398914
383207
368381
354507
341658
329911
319340
310023
302025
295404
290206
286460
284172
283327
283883
283617
283030
282390
281812
281163
859576
1.47147e+06
1.44284e+06
1.40375e+06
1.36988e+06
1.33732e+06
1.30717e+06
1.27873e+06
1.25229e+06
1.22745e+06
1.20363e+06
1.18123e+06
1.16024e+06
1.1406e+06
1.13958e+06
1.24218e+06
1.34588e+06
1.35947e+06
1.34338e+06
1.32793e+06
1.31313e+06
1.29897e+06
1.28537e+06
1.27218e+06
1.25953e+06
1.24729e+06
1.23536e+06
1.22385e+06
1.21243e+06
1.20156e+06
1.19075e+06
1.18026e+06
1.17035e+06
1.16055e+06
1.15117e+06
1.14218e+06
1.13327e+06
1.12435e+06
1.1161e+06
1.10761e+06
1.09914e+06
1.09181e+06
1.0839e+06
971459
941245
938517
935370
925651
899963
874480
849206
824152
799354
774806
745258
709752
672903
636102
601711
569505
548085
527160
505635
481655
460172
441281
423117
405750
389263
373737
359259
345932
333850
319942
304362
295823
292852
291565
291938
292298
291750
291197
290639
290075
289507
288935
288360
287780
287197
286612
286024
285432
284839
284246
283648
283053
282465
281827
281247
280604
849642
1.45039e+06
1.42258e+06
1.38464e+06
1.35199e+06
1.32051e+06
1.29137e+06
1.26395e+06
1.23808e+06
1.21386e+06
1.19145e+06
1.16999e+06
1.14953e+06
1.13044e+06
1.11246e+06
1.0954e+06
1.16198e+06
1.26088e+06
1.32915e+06
1.31943e+06
1.30527e+06
1.29171e+06
1.27878e+06
1.26629e+06
1.25417e+06
1.24248e+06
1.2309e+06
1.21991e+06
1.209e+06
1.19844e+06
1.18823e+06
1.15627e+06
1.12436e+06
1.09289e+06
1.06165e+06
1.03082e+06
1.00081e+06
970633
940770
912068
883076
854805
827822
683319
635816
615092
591766
565935
542184
521064
500470
478700
449734
421477
394228
370018
349056
335436
324929
315981
308688
303137
299391
297682
297358
297019
296665
296296
295913
295516
295107
294687
293287
292783
294389
293869
293342
292807
292266
291721
291170
290614
290053
289486
288916
288342
287764
287183
286600
286014
285425
284834
284241
283648
283050
282456
281868
281232
280651
280012
839974
1.42928e+06
1.40203e+06
1.36521e+06
1.33387e+06
1.3032e+06
1.27523e+06
1.24884e+06
1.22398e+06
1.20052e+06
1.17863e+06
1.15817e+06
1.13864e+06
1.12024e+06
1.09349e+06
1.06007e+06
1.02743e+06
1.0184e+06
1.08642e+06
1.15786e+06
1.16667e+06
1.13349e+06
1.10097e+06
1.06917e+06
1.03781e+06
1.00712e+06
976611
946777
917685
888949
883737
880768
855846
831332
808024
785314
763806
743731
723886
705426
688774
672823
629096
411768
339575
329334
320651
315493
315524
312461
309165
304601
301426
300033
299432
299265
299078
298870
298641
298392
298125
297838
297532
297212
296877
296527
296162
295783
295391
294987
294569
292964
293007
294328
293809
293282
292749
292209
291663
291112
290556
289996
289432
288863
288291
287715
287136
286553
285968
285381
284791
284201
283608
283015
282418
281823
281236
280602
280021
279387
830083
1.40064e+06
1.362e+06
1.31294e+06
1.26982e+06
1.22675e+06
1.18584e+06
1.14702e+06
1.10946e+06
1.07325e+06
1.03899e+06
1.00655e+06
975364
960398
959039
944904
920693
898170
877339
870813
921309
961263
944705
920972
898516
877415
857457
838571
821351
805377
790676
775757
761521
747592
734443
722170
710009
698510
687632
676661
666408
657054
568672
354360
314969
315081
312821
309912
305445
301909
300332
299495
299375
299232
299068
298882
298674
298448
298203
297939
297655
297353
297035
296702
296354
295993
295618
295230
294829
294416
292704
293226
294237
293716
293189
292657
292119
291573
291022
290468
289908
289344
288776
288204
287631
287054
286473
285890
285304
284715
284125
283534
282941
282349
281752
281158
280571
279939
279357
278726
752046
1.3826e+06
1.36257e+06
1.31998e+06
1.28359e+06
1.24886e+06
1.21637e+06
1.18658e+06
1.15951e+06
1.13439e+06
1.11139e+06
1.09098e+06
1.07272e+06
1.05656e+06
1.03589e+06
1.01152e+06
988246
966103
944989
924839
900414
875748
899989
912835
889595
871117
853508
836346
819792
803997
788713
773624
759434
745972
732552
720102
708590
696951
685872
675476
665032
655411
522115
329717
310037
306088
302446
300527
299499
299373
299277
299158
299016
298851
298663
298457
298232
297988
297725
297445
297147
296831
296497
296151
295792
295420
295034
294636
294226
292477
293411
294120
293598
293070
292536
291997
291452
290901
290346
289788
289225
288658
288087
287513
286937
286357
285774
285190
284604
284015
283425
282834
282241
281649
281053
280460
279873
279242
278659
278032
905342
1.47649e+06
1.43878e+06
1.3928e+06
1.35236e+06
1.31315e+06
1.27595e+06
1.24041e+06
1.20656e+06
1.17438e+06
1.14364e+06
1.11453e+06
1.08669e+06
1.06006e+06
1.03443e+06
1.01002e+06
986749
964607
943448
923279
903935
885457
859885
835185
858162
872760
850359
833562
817313
801411
786319
771715
757247
743713
730855
718088
706552
695528
684136
673668
664040
656378
492434
312885
300633
299545
299290
299234
299154
299053
298931
298786
298619
298430
298222
297996
297751
297489
297210
296914
296599
296267
295919
295561
295190
294807
294411
294003
292260
293539
293975
293452
292923
292388
291847
291303
290752
290196
289636
289073
288507
287937
287365
286789
286210
285628
285044
284458
283870
283281
282691
282100
281507
280915
280319
279726
279140
278511
277928
277305
919081
1.47402e+06
1.43653e+06
1.39081e+06
1.35011e+06
1.3111e+06
1.274e+06
1.23827e+06
1.20472e+06
1.1727e+06
1.14197e+06
1.11275e+06
1.08487e+06
1.05829e+06
1.03274e+06
1.00835e+06
985090
962982
941827
921641
904625
893518
882590
871631
853395
818138
834185
853620
826921
806739
789362
772962
757415
742319
728718
716391
704549
693583
684454
689125
725491
744886
440095
299152
299135
299094
299027
298938
298828
298699
298548
298128
297944
298179
298716
299457
300316
301223
302121
302966
303719
304354
304846
305188
305377
305400
305260
307791
313099
312259
309604
306935
304288
301691
299174
296765
294490
292378
290459
288759
287755
287182
286606
286028
285448
284865
284280
283693
283104
282514
281924
281332
280740
280148
279553
278960
278374
278931
280801
283005
922217
1.47132e+06
1.43385e+06
1.3885e+06
1.34772e+06
1.3086e+06
1.27183e+06
1.2364e+06
1.20248e+06
1.17044e+06
1.13992e+06
1.11085e+06
1.08303e+06
1.06864e+06
1.05954e+06
1.05136e+06
1.04382e+06
1.03678e+06
1.02984e+06
1.02759e+06
1.03433e+06
1.03425e+06
1.02284e+06
1.01127e+06
999438
987269
973559
924858
895072
880164
850888
812076
788402
766056
755012
762705
766516
797942
826127
822263
813642
676431
355956
315246
322785
330871
339217
347595
355840
363819
370970
377850
384562
390724
396358
401452
405998
410001
413464
416398
418813
420718
422119
423060
423549
423606
432690
443246
440292
434730
428948
422969
416818
410514
404084
397550
390943
384285
377596
370844
364338
357874
357660
364016
370354
376651
382878
389015
395044
400954
406744
412408
417949
423364
428616
433812
439389
446566
452010
462479
925396
1.46849e+06
1.43076e+06
1.38574e+06
1.3453e+06
1.30604e+06
1.26922e+06
1.23389e+06
1.20527e+06
1.1976e+06
1.19216e+06
1.18831e+06
1.20919e+06
1.23611e+06
1.23671e+06
1.2292e+06
1.22192e+06
1.21484e+06
1.20751e+06
1.19994e+06
1.18755e+06
1.16582e+06
1.14497e+06
1.125e+06
1.10595e+06
1.08763e+06
1.07005e+06
1.0531e+06
1.03693e+06
1.00557e+06
964978
947509
950502
939055
951089
978217
990776
973910
944979
916112
887946
684510
453053
461453
476762
491199
504732
517330
528988
539709
549516
552038
549781
547564
545382
543237
541126
539050
537013
535010
533036
531090
529144
527235
525364
534620
545842
545244
562496
580471
598461
616452
634410
652324
670175
687948
705655
723277
740809
758238
771006
779680
788825
797609
805194
812484
819483
826200
832630
838780
844664
850287
855669
860820
865722
870489
874824
869305
858214
852350
928631
1.46549e+06
1.42745e+06
1.38278e+06
1.34242e+06
1.31994e+06
1.31602e+06
1.32511e+06
1.37056e+06
1.40311e+06
1.39886e+06
1.39571e+06
1.39309e+06
1.36945e+06
1.33951e+06
1.31097e+06
1.28362e+06
1.25762e+06
1.23274e+06
1.20894e+06
1.18609e+06
1.1642e+06
1.1433e+06
1.12324e+06
1.10409e+06
1.08566e+06
1.06798e+06
1.05105e+06
1.03472e+06
1.0313e+06
1.04252e+06
1.07015e+06
1.08131e+06
1.0773e+06
1.08733e+06
1.07503e+06
1.04165e+06
1.00943e+06
994389
983110
940183
676661
573728
570989
568315
565696
563134
560625
558163
555744
553369
551047
548768
546585
566503
586458
606424
626371
646281
666125
685904
705604
725210
744668
776240
810143
830594
850307
870846
889110
907142
925030
942770
960360
977811
995120
1.01228e+06
1.02929e+06
1.04614e+06
1.06285e+06
1.07942e+06
1.09585e+06
1.10173e+06
1.097e+06
1.0923e+06
1.08764e+06
1.08303e+06
1.07847e+06
1.07397e+06
1.06951e+06
1.06511e+06
1.06075e+06
1.05644e+06
1.05217e+06
1.04795e+06
1.04374e+06
1.03963e+06
1.03547e+06
1.03149e+06
1.02595e+06
931795
1.46219e+06
1.43246e+06
1.4277e+06
1.46276e+06
1.52298e+06
1.54838e+06
1.54809e+06
1.54071e+06
1.50294e+06
1.46697e+06
1.43267e+06
1.39991e+06
1.36862e+06
1.33854e+06
1.30987e+06
1.2825e+06
1.2564e+06
1.2314e+06
1.20745e+06
1.18455e+06
1.16256e+06
1.14152e+06
1.12132e+06
1.10208e+06
1.08369e+06
1.07085e+06
1.07936e+06
1.09997e+06
1.133e+06
1.15661e+06
1.16997e+06
1.16481e+06
1.15231e+06
1.13969e+06
1.10415e+06
1.06988e+06
1.05152e+06
1.03773e+06
1.01034e+06
895619
629427
630139
652883
675505
697968
720257
742354
764266
785986
807506
828825
849935
871522
893826
914115
934210
954102
973813
993317
1.01267e+06
1.03176e+06
1.05087e+06
1.08305e+06
1.11811e+06
1.13821e+06
1.15602e+06
1.17367e+06
1.16903e+06
1.16365e+06
1.15833e+06
1.15304e+06
1.14779e+06
1.1426e+06
1.13745e+06
1.13237e+06
1.12733e+06
1.12233e+06
1.11737e+06
1.11246e+06
1.1076e+06
1.10278e+06
1.09802e+06
1.09332e+06
1.08867e+06
1.08406e+06
1.07949e+06
1.07496e+06
1.07046e+06
1.06603e+06
1.06165e+06
1.05732e+06
1.05304e+06
1.04879e+06
1.04459e+06
1.04042e+06
1.03633e+06
1.03218e+06
1.02822e+06
1.02273e+06
969586
1.54658e+06
1.62944e+06
1.68489e+06
1.68803e+06
1.66539e+06
1.62165e+06
1.57993e+06
1.54017e+06
1.50224e+06
1.46615e+06
1.43178e+06
1.39886e+06
1.36744e+06
1.33735e+06
1.30861e+06
1.28113e+06
1.25487e+06
1.22984e+06
1.20586e+06
1.18283e+06
1.1607e+06
1.13957e+06
1.11942e+06
1.12128e+06
1.1331e+06
1.16397e+06
1.19171e+06
1.20317e+06
1.2231e+06
1.23652e+06
1.25027e+06
1.26423e+06
1.27836e+06
1.29281e+06
1.30757e+06
1.32231e+06
1.33714e+06
1.33269e+06
1.3274e+06
1.12607e+06
980736
996644
1.01334e+06
1.02987e+06
1.04894e+06
1.07081e+06
1.09235e+06
1.11361e+06
1.13458e+06
1.15526e+06
1.17565e+06
1.19579e+06
1.2156e+06
1.2099e+06
1.20425e+06
1.19864e+06
1.19307e+06
1.18755e+06
1.18208e+06
1.17664e+06
1.17126e+06
1.18318e+06
1.18986e+06
1.18691e+06
1.18135e+06
1.17583e+06
1.17037e+06
1.16495e+06
1.15958e+06
1.15426e+06
1.14899e+06
1.14376e+06
1.1386e+06
1.13347e+06
1.12838e+06
1.12336e+06
1.11839e+06
1.11347e+06
1.10858e+06
1.10375e+06
1.09896e+06
1.09421e+06
1.08951e+06
1.08486e+06
1.08027e+06
1.07573e+06
1.07124e+06
1.0668e+06
1.0624e+06
1.05804e+06
1.05373e+06
1.04946e+06
1.04525e+06
1.04108e+06
1.03695e+06
1.03289e+06
1.02876e+06
1.02483e+06
1.01938e+06
1.21163e+06
1.81228e+06
1.81158e+06
1.75903e+06
1.71095e+06
1.66496e+06
1.62091e+06
1.57895e+06
1.53911e+06
1.50119e+06
1.46502e+06
1.43053e+06
1.39761e+06
1.36615e+06
1.33597e+06
1.30707e+06
1.27956e+06
1.25326e+06
1.22809e+06
1.20394e+06
1.20926e+06
1.2297e+06
1.26859e+06
1.32706e+06
1.38987e+06
1.43714e+06
1.47683e+06
1.4933e+06
1.52297e+06
1.55676e+06
1.57664e+06
1.59178e+06
1.60708e+06
1.62241e+06
1.63759e+06
1.65271e+06
1.66782e+06
1.683e+06
1.69798e+06
1.64636e+06
1.36423e+06
1.32826e+06
1.31557e+06
1.3031e+06
1.29108e+06
1.27952e+06
1.26794e+06
1.2563e+06
1.24485e+06
1.23497e+06
1.2291e+06
1.22327e+06
1.21749e+06
1.21174e+06
1.20603e+06
1.20037e+06
1.19476e+06
1.1892e+06
1.18368e+06
1.17824e+06
1.17283e+06
1.17863e+06
1.19029e+06
1.18813e+06
1.18258e+06
1.17702e+06
1.17154e+06
1.1661e+06
1.16069e+06
1.15533e+06
1.15002e+06
1.14476e+06
1.13955e+06
1.1344e+06
1.12929e+06
1.12424e+06
1.11923e+06
1.11426e+06
1.10935e+06
1.10449e+06
1.09969e+06
1.09495e+06
1.09025e+06
1.08558e+06
1.08095e+06
1.07636e+06
1.07183e+06
1.06736e+06
1.06294e+06
1.05858e+06
1.05425e+06
1.04998e+06
1.04575e+06
1.04155e+06
1.0257e+06
986037
947135
908240
870935
837198
1.37191e+06
1.8589e+06
1.81094e+06
1.75847e+06
1.70998e+06
1.66378e+06
1.61985e+06
1.57797e+06
1.53803e+06
1.49997e+06
1.46381e+06
1.42929e+06
1.39625e+06
1.39247e+06
1.40331e+06
1.41567e+06
1.42927e+06
1.4439e+06
1.45948e+06
1.52165e+06
1.59966e+06
1.66745e+06
1.72569e+06
1.77337e+06
1.79607e+06