/*--------------------------------*- C++ -*----------------------------------*\
| =========                 |                                                 |
| \\      /  F ield         | foam-extend: Open Source CFD                    |
|  \\    /   O peration     | Version:     4.1                                |
|   \\  /    A nd           | Web:         http://www.foam-extend.org         |
|    \\/     M anipulation  |                                                 |
\*---------------------------------------------------------------------------*/
FoamFile
{
    version     2.0;
    format      ascii;
    class       volScalarField;
    location    "7";
    object      epsilonEq;
}
// * * * * * * * * * * * * * * * * * * * * * * * * * * * * * * * * * * * * * //

dimensions      [0 0 0 0 0 0 0];

internalField   nonuniform List<scalar> 
100000
(
1.62167e-05
1.54508e-05
1.53931e-05
1.65307e-05
1.64653e-05
1.41988e-05
1.2539e-05
1.10716e-05
8.99004e-06
7.41097e-06
6.44247e-06
6.05916e-06
6.75082e-06
7.51139e-06
1.48396e-05
1.82002e-05
1.96184e-05
1.36593e-05
3.22084e-05
5.87457e-05
4.31753e-05
2.4872e-05
1.78251e-05
2.8365e-05
5.10177e-05
7.23328e-05
8.63175e-05
8.65397e-05
8.35503e-05
8.21736e-05
7.98919e-05
7.58812e-05
6.78164e-05
6.08812e-05
5.4524e-05
4.82504e-05
4.23751e-05
3.74934e-05
3.3399e-05
2.97061e-05
2.66866e-05
2.28615e-05
2.0067e-05
1.79712e-05
1.68741e-05
1.58513e-05
1.5022e-05
1.46289e-05
1.44201e-05
1.42605e-05
1.43414e-05
1.46851e-05
1.51953e-05
1.57648e-05
1.64689e-05
1.73022e-05
1.82582e-05
1.93351e-05
2.0281e-05
2.12321e-05
2.21381e-05
2.31407e-05
2.42472e-05
2.61769e-05
2.80525e-05
3.03717e-05
3.23963e-05
3.41371e-05
3.59684e-05
3.80278e-05
4.02393e-05
4.25813e-05
4.56257e-05
4.86988e-05
5.18016e-05
5.53716e-05
5.99307e-05
6.48123e-05
6.96523e-05
7.37201e-05
7.69686e-05
7.9765e-05
8.20828e-05
8.42931e-05
8.28451e-05
7.31578e-05
6.77399e-05
6.04159e-05
5.24528e-05
4.43033e-05
3.63569e-05
2.92942e-05
1.9581e-05
1.31156e-05
1.00174e-05
9.37146e-06
1.20094e-05
1.4438e-05
1.67165e-05
1.83875e-05
1.92092e-05
2.05337e-05
1.91768e-05
1.75045e-05
1.65242e-05
1.59794e-05
1.53995e-05
1.28811e-05
1.00758e-05
8.11925e-06
6.58913e-06
6.3727e-06
6.76368e-06
4.50962e-06
5.2772e-06
1.52554e-05
1.78511e-05
1.8336e-05
1.71069e-05
1.79584e-05
2.75927e-05
2.36607e-05
2.95554e-05
3.36276e-05
4.04477e-05
4.57508e-05
5.00287e-05
4.82793e-05
4.35281e-05
3.5488e-05
3.03168e-05
2.61594e-05
2.53119e-05
2.2186e-05
2.34452e-05
2.3675e-05
2.19326e-05
1.94676e-05
1.743e-05
1.59818e-05
1.46269e-05
1.29766e-05
1.12038e-05
9.82131e-06
8.68672e-06
7.78038e-06
7.62668e-06
7.88614e-06
8.11736e-06
8.3192e-06
8.49182e-06
8.5961e-06
8.69994e-06
8.77779e-06
9.04517e-06
9.30681e-06
9.56201e-06
9.80052e-06
9.98747e-06
9.73802e-06
1.00991e-05
1.09573e-05
1.21492e-05
1.30694e-05
1.32504e-05
1.35502e-05
1.37547e-05
1.38031e-05
1.3801e-05
1.38068e-05
1.37859e-05
1.38882e-05
1.37386e-05
1.26571e-05
1.04092e-05
8.02997e-06
7.90382e-06
1.0505e-05
1.45606e-05
1.82714e-05
2.18943e-05
2.64244e-05
3.01185e-05
3.17925e-05
3.70656e-05
4.08308e-05
4.15625e-05
4.24817e-05
4.23039e-05
4.26395e-05
4.39123e-05
4.51663e-05
4.60434e-05
4.0664e-05
3.49022e-05
2.87146e-05
2.37732e-05
2.06047e-05
1.70506e-05
1.28189e-05
2.20985e-05
2.23633e-05
2.21622e-05
1.94937e-05
1.72023e-05
1.50412e-05
1.38693e-05
1.30692e-05
1.22826e-05
1.08318e-05
8.9325e-06
7.44942e-06
6.40558e-06
7.31745e-06
9.41519e-06
9.53695e-06
1.62657e-05
1.69911e-05
1.82208e-05
3.05581e-05
4.39564e-05
5.32394e-05
4.72738e-05
4.29293e-05
4.32224e-05
3.87724e-05
3.14385e-05
3.37423e-05
3.90885e-05
4.33407e-05
4.58305e-05
4.69044e-05
4.81441e-05
4.8626e-05
4.84952e-05
4.81035e-05
4.806e-05
4.76832e-05
4.69253e-05
4.62654e-05
4.57722e-05
4.46573e-05
4.25869e-05
4.08175e-05
3.93546e-05
3.83354e-05
3.77452e-05
3.74998e-05
3.74503e-05
3.76713e-05
3.80492e-05
3.85699e-05
3.92106e-05
3.99864e-05
4.08896e-05
4.19062e-05
4.30324e-05
4.42622e-05
4.55683e-05
4.62576e-05
4.70768e-05
4.79155e-05
4.84577e-05
4.88758e-05
4.95571e-05
5.05733e-05
5.16089e-05
5.24848e-05
5.33384e-05
5.40831e-05
5.47805e-05
5.53869e-05
5.53283e-05
5.51921e-05
5.50371e-05
5.44069e-05
5.32343e-05
5.19893e-05
4.98876e-05
4.60198e-05
4.24561e-05
3.91811e-05
3.64745e-05
3.37944e-05
3.32749e-05
4.23153e-05
4.65154e-05
4.87364e-05
5.14721e-05
5.43754e-05
5.72204e-05
6.03603e-05
6.29181e-05
6.34672e-05
6.26021e-05
6.17675e-05
5.90133e-05
5.38274e-05
4.82199e-05
4.32279e-05
2.10864e-05
2.07035e-05
2.01001e-05
1.91499e-05
1.71679e-05
1.49173e-05
1.28549e-05
1.08493e-05
1.09766e-05
1.05831e-05
1.02268e-05
1.02263e-05
9.54571e-06
1.07328e-05
9.27135e-06
1.11625e-05
8.28653e-06
1.77919e-05
4.47472e-05
6.74579e-05
7.78714e-05
7.75282e-05
8.07588e-05
8.05422e-05
7.44159e-05
6.72147e-05
6.12329e-05
6.5013e-05
6.98715e-05
7.44282e-05
7.50972e-05
7.30389e-05
6.67165e-05
5.97179e-05
5.3565e-05
4.82774e-05
4.4955e-05
4.32029e-05
4.17013e-05
4.03077e-05
3.88427e-05
3.71838e-05
3.5744e-05
3.42555e-05
3.30361e-05
3.21362e-05
3.039e-05
2.87338e-05
2.73793e-05
2.63118e-05
2.55058e-05
2.49997e-05
2.48133e-05
2.47224e-05
2.44707e-05
2.43969e-05
2.44898e-05
2.46933e-05
2.49724e-05
2.57674e-05
2.63615e-05
2.65717e-05
2.65728e-05
2.80984e-05
3.06546e-05
3.34054e-05
3.63696e-05
3.95922e-05
4.30866e-05
4.67497e-05
5.05249e-05
5.40649e-05
5.67441e-05
5.96911e-05
6.32537e-05
6.77414e-05
7.1463e-05
7.35933e-05
7.41148e-05
7.41814e-05
7.48787e-05
7.45431e-05
7.23214e-05
6.95957e-05
6.81849e-05
6.98931e-05
7.1682e-05
7.19322e-05
7.29734e-05
7.43559e-05
7.28994e-05
7.09946e-05
6.86603e-05
6.5602e-05
6.22926e-05
5.97611e-05
5.71391e-05
5.50783e-05
5.35477e-05
5.18506e-05
1.33551e-05
1.22471e-05
1.12841e-05
1.08619e-05
1.03207e-05
9.7772e-06
8.49667e-06
7.27411e-06
6.17955e-06
5.19983e-06
4.446e-06
3.90517e-06
4.65482e-06
8.53423e-06
1.31211e-05
1.56625e-05
2.18844e-05
4.10239e-05
6.84754e-05
7.50961e-05
8.02524e-05
8.46291e-05
8.55297e-05
8.47001e-05
8.27269e-05
7.80743e-05
7.78369e-05
6.14929e-05
5.10153e-05
3.93796e-05
3.14957e-05
2.70952e-05
2.48018e-05
2.11689e-05
1.75481e-05
1.37759e-05
1.24526e-05
1.42848e-05
1.7583e-05
2.11646e-05
2.48669e-05
2.72731e-05
2.79361e-05
2.84539e-05
2.88323e-05
2.93999e-05
2.99808e-05
3.04236e-05
3.07041e-05
3.09168e-05
3.09073e-05
2.99291e-05
3.03476e-05
3.01878e-05
2.96343e-05
2.89554e-05
2.8152e-05
2.72541e-05
2.62811e-05
2.45094e-05
2.2578e-05
2.05459e-05
1.89341e-05
1.80792e-05
1.67637e-05
1.55703e-05
1.47129e-05
1.45445e-05
1.53321e-05
1.69091e-05
1.87882e-05
2.00234e-05
2.24711e-05
2.59478e-05
2.97278e-05
3.46279e-05
4.0163e-05
4.54437e-05
5.01586e-05
5.73698e-05
6.25895e-05
6.65656e-05
7.00471e-05
7.22191e-05
7.36864e-05
7.41442e-05
7.1504e-05
6.9515e-05
6.64424e-05
6.44344e-05
6.24482e-05
6.00603e-05
5.86826e-05
5.82093e-05
5.66779e-05
5.38071e-05
5.00366e-05
4.59185e-05
4.12713e-05
3.74917e-05
6.29146e-06
5.63333e-06
5.13047e-06
4.94246e-06
4.95111e-06
4.96715e-06
4.98871e-06
4.99171e-06
4.17646e-06
3.90988e-06
3.844e-06
4.26577e-06
5.45489e-06
1.10775e-05
2.03652e-05
3.52973e-05
4.70173e-05
6.03165e-05
6.74518e-05
7.15463e-05
7.75265e-05
7.7432e-05
7.56896e-05
7.35321e-05
7.20945e-05
7.04905e-05
6.63053e-05
5.27482e-05
3.46359e-05
2.52296e-05
1.9172e-05
1.9013e-05
2.19813e-05
2.40604e-05
2.38395e-05
2.37582e-05
2.48902e-05
2.64283e-05
2.75073e-05
2.42324e-05
2.36977e-05
2.23706e-05
2.02941e-05
7.96933e-06
1.18774e-05
1.91847e-05
2.636e-05
3.25778e-05
3.77663e-05
4.19365e-05
4.53084e-05
4.8263e-05
5.01446e-05
5.12874e-05
5.16058e-05
5.10107e-05
4.95787e-05
4.6966e-05
4.30444e-05
4.44029e-05
4.57863e-05
4.69871e-05
4.66142e-05
4.4222e-05
4.1183e-05
3.8012e-05
3.4935e-05
3.19155e-05
2.88581e-05
2.58489e-05
2.30154e-05
2.12314e-05
2.12306e-05
2.12972e-05
2.22862e-05
2.34674e-05
2.36712e-05
2.5643e-05
2.9147e-05
3.2439e-05
3.36847e-05
3.41353e-05
3.37234e-05
3.44643e-05
3.50347e-05
3.23347e-05
2.80531e-05
2.78253e-05
2.68983e-05
2.33344e-05
2.19553e-05
2.34299e-05
2.57482e-05
2.89422e-05
3.12689e-05
3.14944e-05
3.10885e-05
3.02628e-05
2.81794e-05
2.74205e-05
4.89166e-06
4.99989e-06
4.9879e-06
4.8216e-06
4.6055e-06
4.41912e-06
4.30605e-06
4.31918e-06
4.13822e-06
5.76809e-06
1.07366e-05
1.56788e-05
2.06182e-05
2.73193e-05
3.53544e-05
4.30265e-05
5.14667e-05
6.15563e-05
6.96054e-05
7.51429e-05
6.65529e-05
4.74482e-05
3.07978e-05
1.77293e-05
1.17003e-05
5.13599e-06
1.77477e-05
3.15271e-05
3.00484e-05
2.68736e-05
2.46232e-05
2.42918e-05
2.54563e-05
2.54906e-05
2.34913e-05
2.52388e-05
2.8079e-05
3.33808e-05
3.80431e-05
4.41234e-05
5.05558e-05
5.86339e-05
6.64725e-05
7.72475e-05
8.1627e-05
8.46571e-05
8.68618e-05
8.8768e-05
8.91675e-05
8.84064e-05
8.75325e-05
8.56958e-05
8.52568e-05
8.4308e-05
8.30321e-05
8.16884e-05
8.02933e-05
7.88958e-05
7.71546e-05
7.60267e-05
7.43492e-05
7.2347e-05
7.02406e-05
6.75413e-05
6.46446e-05
6.26449e-05
6.0419e-05
5.70244e-05
5.4668e-05
5.22427e-05
4.98515e-05
4.76748e-05
4.40468e-05
4.00411e-05
3.62841e-05
3.38672e-05
3.38874e-05
3.45414e-05
3.27718e-05
2.85331e-05
2.39028e-05
1.78818e-05
9.12563e-06
4.55338e-06
6.27963e-06
1.19963e-05
1.67044e-05
1.82638e-05
2.03671e-05
2.38776e-05
2.27277e-05
2.12838e-05
2.1624e-05
2.43231e-05
2.76409e-05
2.96522e-05
2.86389e-05
2.73783e-05
2.53869e-05
2.29986e-05
4.74762e-06
4.59105e-06
4.4056e-06
4.40077e-06
4.46107e-06
4.39364e-06
1.08097e-05
1.77886e-05
2.53756e-05
3.27914e-05
3.77764e-05
4.07017e-05
4.34719e-05
4.59292e-05
4.22832e-05
3.66507e-05
3.2539e-05
4.14183e-05
5.21972e-05
4.17756e-05
3.00681e-05
3.38104e-05
3.60234e-05
3.83263e-05
3.75881e-05
3.35912e-05
2.48115e-05
2.21025e-05
3.01272e-05
3.31298e-05
3.40502e-05
4.2582e-05
5.112e-05
5.62203e-05
5.6804e-05
5.81785e-05
6.18105e-05
6.29594e-05
6.39564e-05
6.11298e-05
6.23053e-05
6.35941e-05
6.38233e-05
5.02481e-05
3.95976e-05
3.24603e-05
2.70788e-05
2.28987e-05
1.97944e-05
1.79802e-05
1.71297e-05
1.6679e-05
1.729e-05
1.89039e-05
2.14676e-05
2.4943e-05
2.92825e-05
3.48705e-05
4.1681e-05
4.27579e-05
4.37929e-05
4.50015e-05
4.72296e-05
5.00552e-05
5.33924e-05
5.5899e-05
5.47298e-05
5.38747e-05
5.33707e-05
5.27757e-05
5.22374e-05
5.06204e-05
4.76878e-05
4.51929e-05
4.32597e-05
4.15816e-05
3.92562e-05
3.32799e-05
2.79857e-05
2.17852e-05
1.59119e-05
1.44572e-05
1.93616e-05
1.88898e-05
1.85686e-05
1.73826e-05
1.52728e-05
1.38815e-05
1.37188e-05
1.34841e-05
1.37058e-05
1.48862e-05
1.87815e-05
2.08266e-05
1.9589e-05
1.78931e-05
1.70745e-05
1.50994e-05
1.28375e-05
8.43339e-06
4.39254e-06
4.66593e-06
4.20276e-06
1.14481e-05
1.9828e-05
2.6441e-05
2.44146e-05
2.07314e-05
1.71419e-05
1.303e-05
1.46991e-05
2.08514e-05
2.83961e-05
3.28607e-05
3.71778e-05
4.18461e-05
5.56862e-05
6.73699e-05
7.61817e-05
8.26071e-05
7.57094e-05
5.43521e-05
3.40067e-05
1.63806e-05
1.4697e-05
1.86945e-05
2.3208e-05
3.88344e-05
5.78705e-05
7.0215e-05
7.85225e-05
7.72265e-05
7.78837e-05
8.26531e-05
8.80424e-05
8.45028e-05
8.11403e-05
7.64247e-05
7.16014e-05
6.71448e-05
6.31521e-05
5.68125e-05
5.17563e-05
4.60387e-05
4.13408e-05
3.91428e-05
3.83332e-05
3.78169e-05
3.90065e-05
4.13812e-05
4.38149e-05
4.62999e-05
4.88282e-05
5.13965e-05
5.18295e-05
5.09157e-05
4.98577e-05
4.86668e-05
4.73508e-05
4.59189e-05
4.43848e-05
4.24775e-05
4.03647e-05
3.90003e-05
3.74003e-05
3.37469e-05
3.10659e-05
3.00776e-05
2.79519e-05
2.57822e-05
2.35762e-05
2.16609e-05
2.13378e-05
2.09192e-05
1.96299e-05
1.65593e-05
1.34848e-05
1.07902e-05
8.79926e-06
6.74369e-06
5.39358e-06
5.48927e-06
9.49325e-06
1.53729e-05
2.22747e-05
2.81843e-05
3.18632e-05
3.34921e-05
3.59992e-05
3.74855e-05
3.71776e-05
3.65427e-05
3.5833e-05
3.58693e-05
3.39985e-05
3.33639e-05
3.25925e-05
3.10105e-05
2.93591e-05
2.7935e-05
5.36292e-06
8.69572e-06
1.65278e-05
2.31065e-05
2.5016e-05
3.12183e-05
4.39072e-05
5.57733e-05
6.69586e-05
7.75647e-05
8.78744e-05
8.78287e-05
8.26395e-05
7.75392e-05
7.13838e-05
6.12819e-05
5.00266e-05
4.16255e-05
4.45647e-05
4.02005e-05
4.01774e-05
4.0149e-05
3.89912e-05
4.14443e-05
4.62243e-05
4.78397e-05
4.46645e-05
4.19343e-05
4.16045e-05
4.59324e-05
4.40295e-05
4.2919e-05
4.3343e-05
4.83453e-05
5.50086e-05
5.93528e-05
6.14717e-05
6.56081e-05
6.92869e-05
7.17024e-05
7.3421e-05
7.46824e-05
7.55072e-05
7.59191e-05
7.5939e-05
7.55872e-05
7.48858e-05
7.38672e-05
7.25507e-05
7.09261e-05
6.90203e-05
6.68585e-05
6.44569e-05
6.14526e-05
5.81199e-05
5.48305e-05
5.14224e-05
4.78282e-05
4.40528e-05
4.01172e-05
3.59076e-05
3.15232e-05
2.74598e-05
2.35434e-05
1.95462e-05
1.61779e-05
1.58575e-05
1.55174e-05
1.51296e-05
1.48506e-05
1.46703e-05
1.45331e-05
1.42283e-05
1.34023e-05
1.25863e-05
1.18677e-05
1.11056e-05
1.03539e-05
9.43457e-06
8.56399e-06
8.51834e-06
8.58626e-06
8.60417e-06
9.73008e-06
1.1504e-05
1.56526e-05
2.06398e-05
2.40795e-05
2.63765e-05
3.0436e-05
3.43196e-05
3.69377e-05
3.85561e-05
3.9086e-05
3.87004e-05
3.74962e-05
3.72602e-05
3.70354e-05
3.65568e-05
3.57491e-05
4.79603e-05
5.45034e-05
6.45863e-05
7.99445e-05
9.38233e-05
9.68196e-05
8.67286e-05
7.63227e-05
6.64321e-05
5.70596e-05
4.76269e-05
4.04228e-05
3.14026e-05
2.58936e-05
2.11729e-05
2.62118e-05
4.163e-05
5.57677e-05
5.8485e-05
5.74192e-05
5.3627e-05
5.34567e-05
5.78065e-05
5.6371e-05
4.38761e-05
2.63447e-05
1.2302e-05
5.18217e-06
6.10993e-06
4.56831e-06
5.52054e-06
7.41714e-06
1.02488e-05
1.20489e-05
1.44926e-05
1.90662e-05
2.31114e-05
2.6604e-05
2.94221e-05
3.16945e-05
3.3481e-05
3.48079e-05
3.5699e-05
3.61774e-05
3.62676e-05
3.59881e-05
3.53631e-05
3.435e-05
3.24508e-05
3.02137e-05
2.77135e-05
2.49719e-05
2.20113e-05
1.86533e-05
1.71627e-05
1.68314e-05
1.64389e-05
1.61582e-05
1.58176e-05
1.53501e-05
1.48378e-05
1.44616e-05
1.4136e-05
1.38131e-05
1.3397e-05
1.29241e-05
1.24899e-05
1.21978e-05
1.19554e-05
1.17274e-05
1.1453e-05
1.09477e-05
1.04064e-05
9.95942e-06
9.83874e-06
9.70766e-06
9.61571e-06
9.51341e-06
9.35148e-06
9.09576e-06
8.6451e-06
8.22846e-06
7.89302e-06
7.62813e-06
7.33583e-06
7.62907e-06
8.01481e-06
1.06975e-05
1.22852e-05
1.34177e-05
1.59503e-05
1.91062e-05
2.23814e-05
2.49619e-05
2.65583e-05
2.91273e-05
3.11811e-05
3.32833e-05
3.52965e-05
3.62498e-05
9.54607e-05
8.77585e-05
7.59748e-05
6.298e-05
4.99962e-05
3.87194e-05
2.89426e-05
1.93491e-05
1.19838e-05
1.06213e-05
1.61265e-05
1.97374e-05
2.57022e-05
3.45254e-05
4.51255e-05
5.43769e-05
5.86991e-05
6.16e-05
6.25037e-05
6.18774e-05
6.92015e-05
6.76203e-05
5.73198e-05
3.41504e-05
1.35998e-05
6.19532e-06
5.41586e-06
4.61765e-06
4.42441e-06
4.40304e-06
4.62495e-06
6.05988e-06
6.29882e-06
4.59834e-06
4.73239e-06
5.23744e-06
5.60209e-06
6.00565e-06
6.4374e-06
6.9012e-06
7.38973e-06
7.87667e-06
8.35452e-06
8.8497e-06
9.36114e-06
9.88623e-06
1.04106e-05
1.08747e-05
1.13687e-05
1.19255e-05
1.24915e-05
1.30646e-05
1.36099e-05
1.34238e-05
1.31067e-05
1.27951e-05
1.2477e-05
1.21562e-05
1.17534e-05
1.12738e-05
1.08785e-05
1.04669e-05
1.00611e-05
9.60292e-06
9.35644e-06
9.38752e-06
9.62168e-06
9.85859e-06
1.00701e-05
1.00814e-05
1.00735e-05
1.00245e-05
9.70139e-06
9.3169e-06
8.90891e-06
8.50343e-06
8.06644e-06
7.59979e-06
7.20093e-06
6.7265e-06
6.35532e-06
6.10359e-06
5.89918e-06
5.40167e-06
4.80693e-06
4.39979e-06
4.66268e-06
5.36839e-06
7.20569e-06
7.93945e-06
8.47445e-06
9.77309e-06
1.09155e-05
1.25695e-05
1.36196e-05
1.47068e-05
1.66193e-05
1.81472e-05
2.05053e-05
2.23714e-05
4.64008e-05
3.28653e-05
2.11797e-05
1.29375e-05
1.53638e-05
1.85025e-05
1.81991e-05
1.79129e-05
1.76407e-05
1.73833e-05
1.7254e-05
2.40849e-05
3.93384e-05
4.98199e-05
5.63912e-05
5.90524e-05
6.19846e-05
6.23957e-05
6.64452e-05
6.6095e-05
5.50373e-05
3.64092e-05
1.95782e-05
8.92148e-06
7.23734e-06
6.35925e-06
6.02314e-06
5.59554e-06
4.58111e-06
4.53339e-06
5.02179e-06
5.59129e-06
4.39579e-06
5.76139e-06
5.09983e-06
4.46024e-06
4.51619e-06
4.55344e-06
4.6337e-06
4.74058e-06
4.85773e-06
4.97859e-06
5.11793e-06
5.27826e-06
5.44693e-06
5.62233e-06
5.80222e-06
6.00811e-06
6.27075e-06
6.55109e-06
6.84847e-06
7.16105e-06
7.09654e-06
7.24112e-06
7.76583e-06
8.3366e-06
8.21409e-06
8.06035e-06
7.80482e-06
7.64996e-06
7.53728e-06
7.58609e-06
7.7112e-06
7.9264e-06
8.19112e-06
8.38949e-06
8.54668e-06
8.62666e-06
8.67817e-06
8.49308e-06
8.16e-06
7.29665e-06
6.77096e-06
6.39869e-06
6.03991e-06
5.72497e-06
5.47822e-06
5.30924e-06
5.18901e-06
5.06811e-06
4.99689e-06
4.82966e-06
4.60201e-06
4.80767e-06
5.38851e-06
5.87043e-06
5.91103e-06
5.95462e-06
5.49851e-06
6.52868e-06
7.75561e-06
7.83329e-06
7.37758e-06
7.17217e-06
8.29308e-06
9.26688e-06
9.77777e-06
1.02343e-05
1.03041e-05
1.17535e-05
1.409e-05
2.00176e-05
1.96449e-05
1.92749e-05
1.89276e-05
1.85996e-05
1.82899e-05
1.7997e-05
1.77188e-05
1.74558e-05
2.33003e-05
4.13531e-05
5.36458e-05
5.75462e-05
5.90374e-05
6.06182e-05
6.00873e-05
5.7366e-05
5.1137e-05
3.57714e-05
2.47313e-05
1.79453e-05
1.00456e-05
7.97612e-06
7.72988e-06
6.73055e-06
6.03593e-06
6.0046e-06
5.86851e-06
4.81617e-06
4.6955e-06
5.84463e-06
7.06143e-06
5.36896e-06
4.82016e-06
5.24148e-06
4.78179e-06
4.90318e-06
5.43312e-06
5.62283e-06
5.59467e-06
5.46748e-06
5.38866e-06
5.33598e-06
5.30752e-06
5.30183e-06
5.30815e-06
5.1886e-06
5.09524e-06
5.15465e-06
5.22972e-06
5.31754e-06
5.41579e-06
5.53249e-06
5.71326e-06
5.44596e-06
5.44487e-06
5.60922e-06
5.58934e-06
5.63352e-06
5.75938e-06
5.9574e-06
6.08055e-06
6.16622e-06
6.11343e-06
6.03564e-06
5.95664e-06
5.58374e-06
5.28933e-06
4.98218e-06
4.66442e-06
4.69978e-06
4.91475e-06
4.94991e-06
4.97244e-06
4.96922e-06
4.96714e-06
4.96785e-06
5.1634e-06
5.55089e-06
5.94605e-06
6.76609e-06
7.57576e-06
7.90497e-06
7.94712e-06
7.9928e-06
8.04419e-06
8.17299e-06
8.31127e-06
8.05749e-06
8.54992e-06
1.0097e-05
1.01484e-05
1.04663e-05
1.08917e-05
1.04668e-05
1.0075e-05
8.71687e-06
7.51422e-06
7.31402e-06
1.67553e-05
2.01423e-05
1.9762e-05
1.93836e-05
1.90294e-05
1.86939e-05
1.83778e-05
1.80779e-05
1.84867e-05
2.55634e-05
3.90088e-05
5.38186e-05
5.66714e-05
5.66247e-05
5.73827e-05
5.48735e-05
4.2886e-05
3.60287e-05
2.95783e-05
2.58149e-05
1.98394e-05
1.12921e-05
8.09739e-06
7.95159e-06
7.81423e-06
7.16476e-06
6.21959e-06
6.01643e-06
5.98649e-06
5.95814e-06
5.20404e-06
4.68114e-06
5.69296e-06
6.85712e-06
6.39659e-06
5.15171e-06
4.9756e-06
5.28667e-06
5.04585e-06
4.66844e-06
4.5622e-06
4.55382e-06
4.59576e-06
4.6819e-06
4.79382e-06
4.92623e-06
5.07307e-06
5.22481e-06
5.29688e-06
5.37378e-06
5.4537e-06
5.53684e-06
5.64033e-06
5.82491e-06
6.04047e-06
6.27605e-06
5.94413e-06
5.45765e-06
5.2094e-06
5.16295e-06
5.12988e-06
5.16283e-06
5.22595e-06
5.30407e-06
5.2606e-06
5.45363e-06
5.3622e-06
5.58393e-06
6.03963e-06
6.29979e-06
6.35962e-06
6.06869e-06
6.06325e-06
6.058e-06
6.05301e-06
6.33753e-06
6.9201e-06
7.496e-06
8.29739e-06
9.16615e-06
9.91e-06
9.87966e-06
9.8496e-06
9.81992e-06
9.86344e-06
9.91529e-06
9.9851e-06
1.00573e-05
1.01111e-05
1.01454e-05
1.01326e-05
1.02668e-05
1.05683e-05
1.015e-05
8.36217e-06
6.25364e-06
5.60605e-06
5.83723e-06
6.32738e-06
6.99751e-06
1.68691e-05
2.02637e-05
1.98757e-05
1.94891e-05
1.91279e-05
1.87854e-05
1.84625e-05
2.06339e-05
2.86736e-05
3.89347e-05
4.81105e-05
5.37364e-05
5.31984e-05
5.5375e-05
4.87178e-05
3.40371e-05
2.65598e-05
2.84959e-05
2.76871e-05
2.30948e-05
1.36596e-05
8.3793e-06
8.23595e-06
8.10911e-06
7.99844e-06
7.75147e-06
6.82937e-06
6.31342e-06
6.31892e-06
6.33365e-06
6.35805e-06
6.08199e-06
5.14232e-06
4.54131e-06
5.41838e-06
5.77586e-06
5.07404e-06
4.6792e-06
5.02361e-06
5.79557e-06
6.20678e-06
6.45441e-06
6.18821e-06
5.91265e-06
5.79506e-06
5.7407e-06
5.74045e-06
5.78527e-06
5.86921e-06
5.99038e-06
6.14558e-06
6.29669e-06
6.34177e-06
6.44022e-06
6.67801e-06
6.90341e-06
7.32253e-06
7.56781e-06
7.55257e-06
7.2482e-06
6.76576e-06
6.29242e-06
6.29729e-06
6.60108e-06
6.64558e-06
6.58142e-06
6.73163e-06
6.24692e-06
6.0785e-06
6.07268e-06
6.0669e-06
6.13907e-06
6.52594e-06
6.94621e-06
7.31732e-06
8.0096e-06
8.87156e-06
9.74598e-06
9.99308e-06
9.96208e-06
9.93136e-06
9.97154e-06
1.002e-05
1.00839e-05
1.01522e-05
1.02053e-05
1.02548e-05
1.02312e-05
9.33159e-06
8.45924e-06
7.66031e-06
6.59165e-06
6.52664e-06
6.08643e-06
5.66194e-06
5.77894e-06
5.79467e-06
5.81421e-06
5.82549e-06
5.9122e-06
1.69805e-05
2.03817e-05
1.99858e-05
1.95915e-05
1.92228e-05
1.88741e-05
2.29771e-05
3.14884e-05
3.79754e-05
4.02137e-05
4.77519e-05
5.15582e-05
5.26386e-05
4.29179e-05
2.81541e-05
2.42434e-05
2.55503e-05
2.58226e-05
2.37202e-05
1.71742e-05
1.23745e-05
1.03137e-05
9.8912e-06
9.78662e-06
9.70502e-06
9.64277e-06
9.13638e-06
8.27865e-06
8.20584e-06
8.23639e-06
8.28034e-06
8.33625e-06
8.40444e-06
7.73237e-06
6.08966e-06
5.03207e-06
4.8799e-06
4.82606e-06
4.69199e-06
4.60951e-06
4.77309e-06
5.09802e-06
5.65962e-06
5.88929e-06
6.05913e-06
6.21739e-06
6.36291e-06
6.49622e-06
6.61585e-06
6.72096e-06
6.81387e-06
6.89291e-06
6.91144e-06
6.73512e-06
6.52487e-06
6.22066e-06
5.95046e-06
5.65146e-06
5.55286e-06
5.97202e-06
6.30842e-06
6.00406e-06
5.68756e-06
5.74035e-06
6.09654e-06
6.08977e-06
6.08326e-06
6.08151e-06
6.4342e-06
6.81826e-06
7.19481e-06
7.51765e-06
7.95144e-06
8.67056e-06
9.50587e-06
9.97876e-06
1.00745e-05
1.00449e-05
1.00896e-05
1.0135e-05
1.01946e-05
1.02585e-05
1.03089e-05
1.02879e-05
9.2454e-06
8.34809e-06
7.52889e-06
6.56484e-06
5.98549e-06
5.3797e-06
4.89339e-06
4.40999e-06
5.2359e-06
6.72992e-06
6.01987e-06
5.76523e-06
5.78099e-06
5.80051e-06
5.80631e-06
5.79897e-06
1.70898e-05
2.04961e-05
2.00922e-05
1.9691e-05
1.93146e-05
2.49883e-05
3.39793e-05
3.45674e-05
3.51829e-05
3.95787e-05
5.07456e-05
4.79728e-05
3.74863e-05
2.67089e-05
2.56059e-05
2.5103e-05
2.15344e-05
1.95567e-05
2.04571e-05
1.5352e-05
1.26467e-05
1.25248e-05
1.21282e-05
1.176e-05
1.16361e-05
1.15613e-05
1.14215e-05
1.05844e-05
1.00969e-05
1.0061e-05
1.00255e-05
9.99009e-06
9.95444e-06
9.91969e-06
9.88432e-06
8.75467e-06
6.67679e-06
5.23059e-06
4.70295e-06
4.637e-06
4.66134e-06
4.6636e-06
4.56381e-06
4.54824e-06
4.61478e-06
4.72585e-06
4.85327e-06
4.97869e-06
5.09323e-06
5.19179e-06
5.27424e-06
5.34523e-06
5.41047e-06
5.47771e-06
5.4928e-06
5.39354e-06
5.37752e-06
5.52535e-06
5.25173e-06
5.10319e-06
5.44918e-06
5.9737e-06
6.10309e-06
6.18966e-06
6.51198e-06
6.86211e-06
7.23627e-06
7.52643e-06
7.90971e-06
8.35389e-06
8.81716e-06
9.32889e-06
9.60512e-06
9.91171e-06
1.0177e-05
1.02183e-05
1.0261e-05
1.03174e-05
1.03765e-05
1.01092e-05
9.16165e-06
8.18069e-06
7.28035e-06
6.39973e-06
5.9371e-06
5.30249e-06
4.85502e-06
4.60269e-06
4.59653e-06
4.59205e-06
4.58741e-06
4.58262e-06
4.35226e-06
6.1681e-06
6.38511e-06
5.76478e-06
5.76709e-06
5.78667e-06
5.79254e-06
5.78553e-06
1.71971e-05
2.06067e-05
2.01949e-05
1.97866e-05
2.66405e-05
3.61268e-05
3.1804e-05
3.14988e-05
3.62799e-05
4.55233e-05
4.38607e-05
3.30355e-05
2.82476e-05
2.7579e-05
2.67286e-05
2.32473e-05
1.83443e-05
1.62231e-05
1.28295e-05
1.22834e-05
1.25652e-05
1.24674e-05
1.23753e-05
1.20484e-05
1.17194e-05
1.152e-05
1.14535e-05
1.10859e-05
1.01974e-05
1.00565e-05
1.00216e-05
9.98756e-06
9.95302e-06
9.91868e-06
9.88498e-06
9.85012e-06
9.81547e-06
8.89238e-06
7.48722e-06
6.05097e-06
5.13884e-06
4.69131e-06
4.53627e-06
4.59557e-06
4.73557e-06
4.84677e-06
4.94744e-06
5.03203e-06
5.10056e-06
5.15778e-06
5.21144e-06
5.27137e-06
5.35041e-06
5.46166e-06
5.23382e-06
5.03762e-06
5.20311e-06
5.56738e-06
6.149e-06
6.5162e-06
6.80518e-06
7.11816e-06
7.42366e-06
7.71247e-06
8.07313e-06
8.4721e-06
8.8906e-06
9.32095e-06
9.28805e-06
9.32344e-06
9.58363e-06
9.9275e-06
1.02916e-05
1.04011e-05
1.04526e-05
9.75472e-06
8.84381e-06
7.96318e-06
6.98568e-06
6.12195e-06
5.74587e-06
5.22903e-06
4.79694e-06
4.58156e-06
4.59837e-06
4.60074e-06
4.59666e-06
4.5924e-06
4.588e-06
4.58346e-06
4.57878e-06
4.57394e-06
4.56857e-06
4.73879e-06
6.75616e-06
6.04242e-06
5.75303e-06
5.77259e-06
5.77848e-06
5.77183e-06
1.73029e-05
2.07135e-05
2.0294e-05
2.79153e-05
3.79103e-05
3.04248e-05
2.79235e-05
3.56719e-05
3.81334e-05
3.76375e-05
3.10653e-05
2.99419e-05
2.89772e-05
2.78329e-05
2.47275e-05
1.98251e-05
1.67988e-05
1.48797e-05
7.95433e-06
5.3727e-06
8.2819e-06
1.10775e-05
1.23059e-05
1.22252e-05
1.20118e-05
1.17174e-05
1.14682e-05
1.13538e-05
1.07054e-05
1.00546e-05
1.00157e-05
9.98222e-06
9.94939e-06
9.91559e-06
9.88248e-06
9.84955e-06
9.81527e-06
9.7809e-06
9.74712e-06
9.71163e-06
8.75959e-06
7.82561e-06
7.08655e-06
6.46828e-06
5.94704e-06
5.61697e-06
5.4501e-06
5.36333e-06
5.33922e-06
5.36904e-06
5.4521e-06
5.59173e-06
5.79547e-06
6.03352e-06
6.71773e-06
7.143e-06
7.38454e-06
7.61908e-06
7.86329e-06
8.15883e-06
8.48456e-06
8.8311e-06
9.19756e-06
9.45403e-06
9.42035e-06
9.38681e-06
9.35353e-06
9.38624e-06
9.69775e-06
1.00322e-05
9.91142e-06
9.19842e-06
8.34195e-06
7.51695e-06
6.60139e-06
5.98268e-06
5.44773e-06
5.02631e-06
4.80328e-06
4.65593e-06
4.5797e-06
4.59193e-06
4.60335e-06
4.59972e-06
4.59592e-06
4.59193e-06
4.58775e-06
4.5834e-06
4.57893e-06
4.57435e-06
4.56962e-06
4.56475e-06
4.55972e-06
4.33247e-06
5.56642e-06
6.39441e-06
5.76515e-06
5.75843e-06
5.7643e-06
5.75793e-06
1.74072e-05
2.08166e-05
2.8797e-05
3.87927e-05
2.98232e-05
2.46277e-05
3.49786e-05
3.37817e-05
2.89007e-05
2.96276e-05
3.12677e-05
3.00171e-05
2.88222e-05
2.63354e-05
2.14955e-05
1.76372e-05
1.62523e-05
1.1405e-05
5.21449e-06
4.65201e-06
4.63748e-06
5.59965e-06
8.03802e-06
1.03333e-05
1.17368e-05
1.19835e-05
1.17502e-05
1.15096e-05
1.12587e-05
1.04371e-05
1.00078e-05
9.97479e-06
9.94276e-06
9.91082e-06
9.87774e-06
9.84539e-06
9.8134e-06
9.77922e-06
9.74524e-06
9.71226e-06
9.67694e-06
9.64226e-06
9.60881e-06
9.57345e-06
9.4129e-06
9.11893e-06
8.86778e-06
8.65713e-06
8.48609e-06
8.35042e-06
8.24725e-06
8.17557e-06
8.12961e-06
8.33531e-06
8.70704e-06
8.94365e-06
9.20301e-06
9.48436e-06
9.62084e-06
9.58668e-06
9.5525e-06
9.51847e-06
9.50479e-06
9.51909e-06
9.53474e-06
8.97645e-06
8.42911e-06
7.91443e-06
7.44264e-06
6.81342e-06
6.17448e-06
5.67812e-06
5.17011e-06
4.84694e-06
4.75107e-06
4.75143e-06
4.69869e-06
4.61248e-06
4.58337e-06
4.60351e-06
4.60126e-06
4.59783e-06
4.59425e-06
4.59051e-06
4.58663e-06
4.58257e-06
4.57831e-06
4.5739e-06
4.56937e-06
4.56472e-06
4.55994e-06
4.55503e-06
4.54997e-06
4.5448e-06
4.45285e-06
6.28942e-06
6.0334e-06
5.74412e-06
5.75001e-06
5.74392e-06
1.75093e-05
2.92456e-05
3.92052e-05
2.97039e-05
2.2258e-05
3.4161e-05
3.15367e-05
2.08459e-05
2.53851e-05
3.23996e-05
3.10935e-05
2.98495e-05
2.80737e-05
2.32343e-05
1.85369e-05
1.65654e-05
1.48528e-05
7.47016e-06
4.66549e-06
4.69126e-06
4.71752e-06
4.74396e-06
4.72051e-06
5.18145e-06
6.77134e-06
8.7922e-06
1.00791e-05
1.10878e-05
1.15989e-05
1.11779e-05
1.0382e-05
1.00075e-05
9.93375e-06
9.90265e-06
9.87161e-06
9.83901e-06
9.80742e-06
9.77592e-06
9.74185e-06
9.70844e-06
9.67572e-06
9.64126e-06
9.6072e-06
9.57405e-06
9.53925e-06
9.50441e-06
9.47083e-06
9.43607e-06
9.4012e-06
9.36783e-06
9.33456e-06
9.30039e-06
9.34992e-06
9.79334e-06
9.7512e-06
9.71715e-06
9.68639e-06
9.6907e-06
9.69671e-06
9.43212e-06
8.66033e-06
7.89739e-06
7.15459e-06
6.48299e-06
6.09643e-06
5.87045e-06
5.52944e-06
5.20743e-06
4.87917e-06
4.748e-06
4.76198e-06
4.76072e-06
4.75457e-06
4.74418e-06
4.65376e-06
4.57931e-06
4.59058e-06
4.60145e-06
4.59842e-06
4.59523e-06
4.59189e-06
4.58837e-06
4.58467e-06
4.58081e-06
4.57681e-06
4.57265e-06
4.56833e-06
4.56387e-06
4.55929e-06
4.55459e-06
4.54976e-06
4.5448e-06
4.53971e-06
4.5345e-06
4.35788e-06
5.13613e-06
6.37276e-06
5.74667e-06
5.73547e-06
5.72968e-06
2.51149e-05
3.96525e-05
3.01723e-05
2.10726e-05
3.29935e-05
2.94076e-05
1.57592e-05
1.95328e-05
3.17871e-05
3.22127e-05
3.09154e-05
2.96102e-05
2.49369e-05
1.94959e-05
1.72607e-05
1.67442e-05
1.08129e-05
4.9328e-06
4.70765e-06
4.73065e-06
4.75433e-06
4.77823e-06
4.80226e-06
4.82649e-06
4.85081e-06
4.85286e-06
5.31907e-06
6.25995e-06
7.63607e-06
8.74076e-06
9.05016e-06
9.07504e-06
9.41693e-06
9.98506e-06
9.9861e-06
9.91868e-06
9.85484e-06
9.79685e-06
9.74409e-06
9.70318e-06
9.67027e-06
9.63817e-06
9.60438e-06
9.57078e-06
9.53791e-06
9.50358e-06
9.46916e-06
9.43725e-06
9.41987e-06
9.4049e-06
9.39353e-06
9.3449e-06
9.53067e-06
9.07697e-06
8.45098e-06
7.82038e-06
7.19325e-06
6.58229e-06
6.01211e-06
5.66547e-06
5.49996e-06
5.25802e-06
5.1152e-06
4.87483e-06
4.75502e-06
4.75521e-06
4.75544e-06
4.75532e-06
4.75479e-06
4.75391e-06
4.7442e-06
4.70709e-06
4.61845e-06
4.57629e-06
4.5982e-06
4.5978e-06
4.59493e-06
4.59186e-06
4.58867e-06
4.58537e-06
4.58194e-06
4.57832e-06
4.57453e-06
4.57058e-06
4.56649e-06
4.56224e-06
4.55783e-06
4.5533e-06
4.54868e-06
4.54395e-06
4.53909e-06
4.53409e-06
4.52894e-06
4.5237e-06
4.51834e-06
4.30859e-06
5.91329e-06
6.00424e-06
5.72075e-06
5.71523e-06
3.37147e-05
3.13475e-05
2.12477e-05
3.14287e-05
2.7119e-05
1.31609e-05
1.58445e-05
2.78541e-05
3.328e-05
3.20232e-05
3.0732e-05
2.67033e-05
2.09711e-05
1.8144e-05
1.701e-05
1.45687e-05
6.87473e-06
4.73148e-06
4.7501e-06
4.77023e-06
4.7912e-06
4.81257e-06
4.83412e-06
4.85603e-06
4.87813e-06
4.90021e-06
4.92203e-06
4.943e-06
4.90818e-06
4.98282e-06
5.27373e-06
5.45679e-06
5.50308e-06
5.84224e-06
6.45647e-06
6.78371e-06
7.04069e-06
7.25467e-06
7.41769e-06
7.53134e-06
7.59909e-06
7.62153e-06
7.59748e-06
7.52737e-06
7.4156e-06
7.26599e-06
7.08032e-06
6.85813e-06
6.6109e-06
6.34889e-06
6.07399e-06
5.84363e-06
5.7334e-06
5.5051e-06
5.22936e-06
5.03411e-06
4.94065e-06
4.97064e-06
5.14234e-06
5.25477e-06
5.12514e-06
4.91208e-06
4.77749e-06
4.74598e-06
4.74656e-06
4.74685e-06
4.74677e-06
4.74628e-06
4.7344e-06
4.67054e-06
4.59121e-06
4.57897e-06
4.59595e-06
4.59344e-06
4.59078e-06
4.58796e-06
4.58495e-06
4.58178e-06
4.57847e-06
4.57504e-06
4.57146e-06
4.56772e-06
4.56383e-06
4.55981e-06
4.55564e-06
4.55132e-06
4.54685e-06
4.54226e-06
4.53757e-06
4.53277e-06
4.52787e-06
4.52285e-06
4.51769e-06
4.51242e-06
4.50703e-06
4.42463e-06
4.82597e-06
6.33042e-06
5.706e-06
5.70068e-06
2.58441e-05
2.21714e-05
2.9358e-05
2.4916e-05
1.14177e-05
1.51576e-05
2.25157e-05
3.12308e-05
3.31705e-05
3.18266e-05
2.85931e-05
2.29318e-05
1.91197e-05
1.75764e-05
1.7023e-05
9.99521e-06
4.7636e-06
4.77709e-06
4.79263e-06
4.80982e-06
4.82798e-06
4.84682e-06
4.86595e-06
4.88541e-06
4.90542e-06
4.9253e-06
4.94494e-06
4.96433e-06
4.98287e-06
5.00068e-06
5.01811e-06
5.03448e-06
5.05068e-06
5.0405e-06
4.92236e-06
4.84637e-06
4.8107e-06
4.82091e-06
4.85703e-06
4.90297e-06
4.94946e-06
4.99127e-06
5.02749e-06
5.05676e-06
5.08496e-06
5.11686e-06
5.15373e-06
5.20313e-06
5.27427e-06
5.37561e-06
5.35934e-06
5.13611e-06