/*--------------------------------*- C++ -*----------------------------------*\
| =========                 |                                                 |
| \\      /  F ield         | foam-extend: Open Source CFD                    |
|  \\    /   O peration     | Version:     4.1                                |
|   \\  /    A nd           | Web:         http://www.foam-extend.org         |
|    \\/     M anipulation  |                                                 |
\*---------------------------------------------------------------------------*/
FoamFile
{
    version     2.0;
    format      ascii;
    class       volScalarField;
    location    "5";
    object      epsilonEq;
}
// * * * * * * * * * * * * * * * * * * * * * * * * * * * * * * * * * * * * * //

dimensions      [0 0 0 0 0 0 0];

internalField   nonuniform List<scalar> 
100000
(
5.57128e-05
6.84183e-05
6.91764e-05
7.03911e-05
5.97783e-05
4.05987e-05
1.68926e-05
5.80814e-06
1.75378e-05
2.40199e-05
1.93023e-05
1.57139e-05
1.31966e-05
1.28901e-05
1.28336e-05
1.32355e-05
1.31056e-05
1.32921e-05
1.40668e-05
1.48073e-05
1.53584e-05
1.54804e-05
1.56291e-05
1.59826e-05
1.58934e-05
1.58836e-05
1.58563e-05
1.5813e-05
1.57554e-05
1.56845e-05
1.56007e-05
1.55058e-05
1.54007e-05
1.52853e-05
1.51616e-05
1.503e-05
1.4892e-05
1.47477e-05
1.4598e-05
1.44434e-05
1.42844e-05
1.4122e-05
1.39566e-05
1.37927e-05
1.36343e-05
1.34739e-05
1.33118e-05
1.31663e-05
1.30801e-05
1.29945e-05
1.29103e-05
1.28262e-05
1.27436e-05
1.26613e-05
1.258e-05
1.25e-05
1.23413e-05
1.23522e-05
1.227e-05
1.21876e-05
1.20806e-05
1.18782e-05
1.16787e-05
1.14823e-05
1.12888e-05
1.10982e-05
1.09106e-05
1.07261e-05
1.05446e-05
1.03663e-05
1.01908e-05
1.01165e-05
1.01182e-05
1.01349e-05
1.01044e-05
9.94543e-06
9.77926e-06
9.63324e-06
9.49255e-06
9.33643e-06
9.07585e-06
8.64194e-06
8.21603e-06
7.945e-06
7.82597e-06
7.56953e-06
7.29022e-06
7.01935e-06
6.7572e-06
6.50455e-06
6.26287e-06
6.08046e-06
5.92119e-06
5.771e-06
5.63e-06
5.5007e-06
5.38529e-06
5.24386e-06
5.11083e-06
6.18188e-06
5.48976e-05
6.64573e-05
6.59127e-05
6.58518e-05
6.68852e-05
6.78321e-05
6.32892e-05
4.82555e-05
3.3766e-05
1.49325e-05
4.59313e-06
1.17415e-05
1.97179e-05
2.22379e-05
1.92031e-05
1.63159e-05
1.34098e-05
1.16639e-05
1.0257e-05
9.62249e-06
9.34886e-06
9.18625e-06
9.35106e-06
9.1418e-06
9.16812e-06
9.49567e-06
9.76241e-06
1.00296e-05
1.02761e-05
1.05002e-05
1.07013e-05
1.08799e-05
1.07207e-05
1.11674e-05
1.12784e-05
1.1369e-05
1.1322e-05
1.12381e-05
1.11544e-05
1.10709e-05
1.09881e-05
1.08499e-05
1.06295e-05
1.0414e-05
1.02001e-05
9.98655e-06
9.78121e-06
9.59634e-06
9.4104e-06
9.20971e-06
9.01279e-06
8.81875e-06
8.62818e-06
8.44059e-06
8.25643e-06
8.07595e-06
7.74151e-06
7.53745e-06
7.36833e-06
7.1416e-06
6.88573e-06
6.63335e-06
6.37128e-06
6.11207e-06
5.85672e-06
5.60603e-06
5.36093e-06
5.12276e-06
4.89256e-06
4.67171e-06
4.46164e-06
4.26382e-06
4.08017e-06
3.93299e-06
3.83587e-06
3.78729e-06
3.64202e-06
3.56061e-06
3.57639e-06
3.74633e-06
4.13591e-06
4.43082e-06
4.43426e-06
4.53047e-06
4.62827e-06
4.63757e-06
4.60349e-06
4.5866e-06
4.62751e-06
4.74687e-06
4.93833e-06
5.1938e-06
5.50407e-06
5.86122e-06
6.25691e-06
6.68858e-06
7.14871e-06
7.61912e-06
8.12745e-06
9.03218e-06
5.4376e-05
6.56738e-05
6.52031e-05
6.46417e-05
6.41634e-05
6.37162e-05
6.33065e-05
6.29393e-05
6.35379e-05
5.97471e-05
4.66879e-05
3.55772e-05
2.30824e-05
1.00739e-05
6.09877e-06
1.0845e-05
1.60698e-05
2.13e-05
2.28071e-05
2.09382e-05
1.90873e-05
1.72421e-05
1.52131e-05
1.35179e-05
1.24428e-05
1.14001e-05
1.04709e-05
9.42568e-06
8.52516e-06
7.77519e-06
7.17924e-06
6.85129e-06
6.50012e-06
6.17835e-06
5.90095e-06
5.65364e-06
5.47689e-06
5.40492e-06
5.35691e-06
5.30543e-06
5.21165e-06
5.06026e-06
4.94692e-06
4.88208e-06
4.80958e-06
4.73456e-06
4.65739e-06
4.56769e-06
4.44347e-06
4.32074e-06
4.31108e-06
4.32951e-06
4.35911e-06
4.40054e-06
4.45349e-06
4.51827e-06
4.33608e-06
4.33591e-06
4.46229e-06
4.59743e-06
4.74755e-06
4.96729e-06
5.19803e-06
5.5913e-06
6.02348e-06
6.47594e-06
6.94533e-06
7.42964e-06
7.92681e-06
8.43471e-06
8.95193e-06
9.47709e-06
9.83947e-06
1.02164e-05
1.05021e-05
1.08311e-05
1.12071e-05
1.15196e-05
1.17967e-05
1.20757e-05
1.24002e-05
1.2815e-05
1.33151e-05
1.38939e-05
1.45727e-05
1.53183e-05
1.60439e-05
1.67556e-05
1.74872e-05
1.82321e-05
1.89772e-05
1.9723e-05
2.04709e-05
2.12223e-05
2.19776e-05
2.27426e-05
2.35078e-05
2.42914e-05
2.50262e-05
2.44523e-05
5.4002e-05
6.4888e-05
6.44797e-05
6.39937e-05
6.35829e-05
6.31985e-05
6.2843e-05
6.25231e-05
6.22246e-05
6.19431e-05
6.16777e-05
6.14233e-05
6.11818e-05
5.56385e-05
4.56832e-05
3.65567e-05
2.86111e-05
1.96475e-05
9.08741e-06
5.9223e-06
9.28444e-06
1.32447e-05
1.72216e-05
1.97701e-05
2.16424e-05
2.33665e-05
2.49043e-05
2.32972e-05
2.18132e-05
2.04697e-05
1.93086e-05
1.82872e-05
1.73106e-05
1.64588e-05
1.57446e-05
1.51492e-05
1.47101e-05
1.43288e-05
1.40021e-05
1.37268e-05
1.35e-05
1.33763e-05
1.33829e-05
1.34283e-05
1.35109e-05
1.36278e-05
1.3778e-05
1.39584e-05
1.41686e-05
1.44413e-05
1.4751e-05
1.50482e-05
1.53595e-05
1.5692e-05
1.60424e-05
1.6402e-05
1.61373e-05
1.64142e-05
1.68163e-05
1.72944e-05
1.78327e-05
1.83863e-05
1.8956e-05
1.95428e-05
2.01366e-05
2.07405e-05
2.13545e-05
2.19776e-05
2.25985e-05
2.30356e-05
2.34767e-05
2.39158e-05
2.43603e-05
2.47904e-05
2.51715e-05
2.44146e-05
2.32876e-05
2.22674e-05
2.12509e-05
2.02382e-05
1.92305e-05
1.80489e-05
1.65093e-05
1.49833e-05
1.34725e-05
1.19787e-05
1.05091e-05
8.95018e-06
7.31363e-06
5.77697e-06
4.42834e-06
3.46895e-06
3.23395e-06
3.83252e-06
4.94798e-06
6.30175e-06
7.74065e-06
9.24961e-06
1.12378e-05
2.07243e-05
4.93189e-05
6.33845e-05
6.37576e-05
6.33346e-05
6.29921e-05
6.26721e-05
6.23718e-05
6.21007e-05
6.18523e-05
6.15597e-05
6.08917e-05
6.02504e-05
5.9734e-05
5.92718e-05
5.87178e-05
5.8146e-05
5.75873e-05
5.72149e-05
5.34078e-05
4.64632e-05
4.0434e-05
3.4895e-05
2.88261e-05
2.30233e-05
1.84106e-05
1.54949e-05
1.10512e-05
6.93146e-06
4.9236e-06
4.09379e-06
4.59515e-06
5.5915e-06
6.8137e-06
8.4398e-06
1.01406e-05
1.15743e-05
1.27853e-05
1.39211e-05
1.498e-05
1.59658e-05
1.6879e-05
1.77245e-05
1.85032e-05
1.92194e-05
1.9876e-05
2.04771e-05
2.10266e-05
2.15263e-05
2.19806e-05
2.23894e-05
2.25343e-05
2.25814e-05
2.25716e-05
2.25056e-05
2.23898e-05
2.19269e-05
1.98923e-05
1.87304e-05
1.75711e-05
1.64002e-05
1.522e-05
1.40338e-05
1.28439e-05
1.14689e-05
1.00791e-05
8.45303e-06
6.6192e-06
4.94224e-06
3.62501e-06
3.26098e-06
4.14021e-06
5.70379e-06
7.37586e-06
9.14746e-06
1.10186e-05
1.32204e-05
1.50599e-05
1.6635e-05
1.82294e-05
1.98351e-05
2.14501e-05
2.30682e-05
2.46879e-05
2.63054e-05
2.79178e-05
2.95326e-05
3.11415e-05
3.27404e-05
3.43308e-05
3.59103e-05
3.74777e-05
3.90314e-05
4.057e-05
4.2093e-05
4.35977e-05
4.50901e-05
4.65565e-05
4.80289e-05
4.94362e-05
4.91524e-05
2.87235e-05
5.266e-05
6.04598e-05
6.26757e-05
6.23941e-05
6.21409e-05
6.18995e-05
6.11652e-05
6.04937e-05
6.00121e-05
5.95184e-05
5.88758e-05
5.82651e-05
5.79352e-05
5.77293e-05
5.75248e-05
5.74228e-05
5.77655e-05
5.80544e-05
5.82297e-05
5.8435e-05
5.872e-05
5.89834e-05
5.79206e-05
5.62482e-05
5.47383e-05
5.36154e-05
5.04372e-05
4.74607e-05
4.47233e-05
4.22241e-05
3.99825e-05
3.8017e-05
3.6268e-05
3.46087e-05
3.308e-05
3.12358e-05
2.95604e-05
2.8046e-05
2.66807e-05
2.54573e-05
2.43655e-05
2.33994e-05
2.2551e-05
2.18137e-05
2.11811e-05
2.06451e-05
2.02009e-05
1.9842e-05
1.95651e-05
1.93643e-05
1.92375e-05
1.91781e-05
1.91846e-05
1.92182e-05
2.03253e-05
2.18982e-05
2.30511e-05
2.42285e-05
2.54276e-05
2.66466e-05
2.80125e-05
2.97793e-05
3.15718e-05
3.34203e-05
3.53346e-05
3.72355e-05
3.91084e-05
4.09855e-05
4.2684e-05
4.43912e-05
4.61059e-05
4.78308e-05
4.9585e-05
5.10973e-05
5.14663e-05
5.12557e-05
5.10447e-05
5.08385e-05
5.06274e-05
5.04176e-05
5.02161e-05
5.00114e-05
4.98124e-05
4.96049e-05
4.93922e-05
4.91902e-05
4.8989e-05
4.87859e-05
4.85827e-05
4.83775e-05
4.81708e-05
4.79623e-05
4.7752e-05
4.75412e-05
4.73286e-05
4.71206e-05
4.69076e-05
4.671e-05
4.6587e-05
1.73953e-05
4.74754e-05
4.91814e-05
5.33086e-05
5.98413e-05
6.07688e-05
6.02773e-05
5.97952e-05
5.90944e-05
5.84801e-05
5.82826e-05
5.8086e-05
5.79032e-05
5.77259e-05
5.80233e-05
5.84109e-05
5.86447e-05
5.89091e-05
5.92863e-05
5.95161e-05
5.93577e-05
5.91955e-05
5.90284e-05
5.88556e-05
5.8625e-05
5.72935e-05
5.59072e-05
5.46631e-05
5.36553e-05
5.31406e-05
5.29525e-05
5.27589e-05
5.25613e-05
5.27762e-05
5.31002e-05
5.34499e-05
5.377e-05
5.40046e-05
5.42164e-05
5.40181e-05
5.37793e-05
5.354e-05
5.3298e-05
5.30559e-05
5.28122e-05
5.2569e-05
5.23248e-05
5.20799e-05
5.18351e-05
5.15894e-05
5.13441e-05
5.10985e-05
5.08543e-05
5.06094e-05
5.03818e-05
5.18117e-05
5.16217e-05
5.16483e-05
5.18804e-05
5.21278e-05
5.23993e-05
5.27187e-05
5.30486e-05
5.3355e-05
5.3673e-05
5.3731e-05
5.35038e-05
5.32778e-05
5.30527e-05
5.28289e-05
5.26064e-05
5.2385e-05
5.21879e-05
5.20014e-05
5.17847e-05
5.1569e-05
5.13543e-05
5.11417e-05
5.09291e-05
5.06573e-05
5.05078e-05
5.02993e-05
5.00905e-05
4.98844e-05
4.9719e-05
4.94065e-05
4.92595e-05
4.9051e-05
4.88416e-05
4.86325e-05
4.84223e-05
4.82115e-05
4.79997e-05
4.77873e-05
4.75757e-05
4.73638e-05
4.71574e-05
4.69474e-05
4.67519e-05
4.66267e-05
3.37418e-05
4.98536e-05
5.59376e-05
4.98626e-05
4.87923e-05
4.93909e-05
5.51473e-05
5.83139e-05
5.8289e-05
5.81144e-05
5.79584e-05
5.78706e-05
5.83894e-05
5.87337e-05
5.90367e-05
5.94815e-05
5.98411e-05
5.97207e-05
5.95941e-05
5.94614e-05
5.9321e-05
5.91746e-05
5.9022e-05
5.88634e-05
5.86989e-05
5.85282e-05
5.82737e-05
5.71645e-05
5.60749e-05
5.50389e-05
5.41559e-05
5.33863e-05
5.26829e-05
5.24529e-05
5.22515e-05
5.20513e-05
5.23288e-05
5.25813e-05
5.2846e-05
5.30915e-05
5.32735e-05
5.34336e-05
5.34298e-05
5.31904e-05
5.29497e-05
5.27082e-05
5.24661e-05
5.22228e-05
5.19801e-05
5.17363e-05
5.14927e-05
5.12482e-05
5.13304e-05
5.14472e-05
5.24067e-05
5.34186e-05
5.36267e-05
5.38713e-05
5.41179e-05
5.43632e-05
5.46224e-05
5.47652e-05
5.45333e-05
5.43021e-05
5.40719e-05
5.38425e-05
5.36138e-05
5.33862e-05
5.31597e-05
5.29343e-05
5.27099e-05
5.24889e-05
5.23085e-05
5.20964e-05
5.18765e-05
5.1658e-05
5.14395e-05
5.12238e-05
5.10057e-05
5.0795e-05
5.05847e-05
5.03679e-05
5.01558e-05
4.99397e-05
4.97333e-05
4.95316e-05
4.93189e-05
4.91053e-05
4.88928e-05
4.86792e-05
4.84662e-05
4.82531e-05
4.80402e-05
4.78276e-05
4.76001e-05
4.70546e-05
4.65235e-05
4.59907e-05
4.549e-05
4.51589e-05
4.47908e-05
4.28785e-05
5.64931e-05
5.5288e-05
5.19558e-05
4.74458e-05
4.61495e-05
4.86375e-05
4.91719e-05
5.37964e-05
5.83855e-05
5.88348e-05
5.92273e-05
5.98094e-05
5.98812e-05
5.98032e-05
5.97157e-05
5.96178e-05
5.95114e-05
5.93975e-05
5.92748e-05
5.91444e-05
5.90065e-05
5.88611e-05
5.87087e-05
5.85496e-05
5.8384e-05
5.82115e-05
5.80338e-05
5.7439e-05
5.65889e-05
5.58091e-05
5.50446e-05
5.43546e-05
5.37782e-05
5.32613e-05
5.2797e-05
5.23831e-05
5.20159e-05
5.20842e-05
5.2214e-05
5.23785e-05
5.25811e-05
5.27911e-05
5.30014e-05
5.32298e-05
5.33749e-05
5.3345e-05
5.33433e-05
5.33669e-05
5.34162e-05
5.34713e-05
5.3553e-05
5.36567e-05
5.54169e-05
5.56588e-05
5.58506e-05
5.58048e-05
5.55697e-05
5.53353e-05
5.51011e-05
5.48675e-05
5.46346e-05
5.44025e-05
5.41708e-05
5.394e-05
5.37102e-05
5.34813e-05
5.30659e-05
5.2413e-05
5.17667e-05
5.11318e-05
5.05409e-05
4.99174e-05
4.92973e-05
4.86836e-05
4.8076e-05
4.74746e-05
4.68794e-05
4.59522e-05
4.46768e-05
4.34124e-05
4.2162e-05
4.09227e-05
3.96951e-05
3.84863e-05
3.7289e-05
3.61026e-05
3.49294e-05
3.37686e-05
3.26214e-05
3.14279e-05
2.96947e-05
2.79782e-05
2.6303e-05
2.59165e-05
2.54748e-05
2.49607e-05
2.4488e-05
2.42807e-05
4.70823e-05
4.10276e-05
3.59529e-05
4.18781e-05
4.21807e-05
4.51041e-05
4.28141e-05
4.3712e-05
4.44533e-05
4.58923e-05
4.93304e-05
5.20183e-05
5.11101e-05
5.45852e-05
5.7848e-05
5.96432e-05
5.95806e-05
5.95052e-05
5.94194e-05
5.93245e-05
5.92194e-05
5.91051e-05
5.89817e-05
5.8849e-05
5.87078e-05
5.85592e-05
5.84041e-05
5.82422e-05
5.8074e-05
5.79e-05
5.77209e-05
5.75366e-05
5.73465e-05
5.67401e-05
5.61597e-05
5.5636e-05
5.51653e-05
5.47461e-05
5.43739e-05
5.40479e-05
5.37646e-05
5.35225e-05
5.34638e-05
5.3498e-05
5.27252e-05
5.18281e-05
5.09537e-05
5.00849e-05
4.92175e-05
4.83625e-05
4.75214e-05
4.65519e-05
4.52083e-05
4.42793e-05
4.41203e-05
4.28176e-05
4.14841e-05
4.01546e-05
3.88341e-05
3.75174e-05
3.62088e-05
3.49076e-05
3.36147e-05
3.23313e-05
3.10579e-05
2.97955e-05
2.85447e-05
2.72596e-05
2.59255e-05
2.46455e-05
2.34329e-05
2.22597e-05
2.11113e-05
1.99461e-05
1.87974e-05
1.76324e-05
1.59437e-05
1.42961e-05
1.25201e-05
1.05891e-05
9.79806e-06
9.46736e-06
8.91215e-06
7.74259e-06
6.6711e-06
5.74562e-06
5.03972e-06
4.64418e-06
4.62684e-06
4.93252e-06
5.4294e-06
5.70445e-06
6.34966e-06
7.40002e-06
9.13329e-06
1.04061e-05
1.05684e-05
1.11625e-05
1.22263e-05
1.31965e-05
5.0946e-05
4.43972e-05
2.13774e-05
2.684e-05
2.56648e-05
2.33585e-05
2.10751e-05
2.00623e-05
2.05216e-05
2.04e-05
2.07513e-05
2.2984e-05
2.14856e-05
1.99425e-05
2.19795e-05
2.46888e-05
2.6472e-05
2.76292e-05
2.88078e-05
3.051e-05
3.2532e-05
3.35837e-05
3.41576e-05
3.45768e-05
3.48465e-05
3.43065e-05
3.35928e-05
3.28275e-05
3.20146e-05
3.11576e-05
3.02605e-05
2.93268e-05
2.83586e-05
2.7359e-05
2.63297e-05
2.5275e-05
2.41962e-05
2.30975e-05
2.19805e-05
2.08475e-05
1.97015e-05
1.85426e-05
1.74043e-05
1.64446e-05
1.55568e-05
1.44439e-05
1.33808e-05
1.24961e-05
1.16051e-05
1.07111e-05
9.88229e-06
9.10382e-06
8.04631e-06
7.89357e-06
7.17556e-06
6.20388e-06
5.94617e-06
4.10187e-06
3.58499e-06
3.80281e-06
4.66123e-06
6.11472e-06
7.985e-06
9.68667e-06
1.11001e-05
1.25979e-05
1.41407e-05
1.55598e-05
1.67977e-05
1.77997e-05
1.88055e-05
1.98193e-05
2.06269e-05
2.13835e-05
2.21337e-05
2.28039e-05
2.35076e-05
2.42602e-05
2.50108e-05
2.5533e-05
2.58659e-05
2.57513e-05
2.52325e-05
2.48244e-05
2.45416e-05
2.46512e-05
2.4925e-05
2.5203e-05
2.54991e-05
2.57946e-05
2.60733e-05
2.62919e-05
2.59464e-05
2.53099e-05
2.47633e-05
2.58593e-05
2.66255e-05
2.72416e-05
2.792e-05
2.87486e-05
4.59421e-05
3.91529e-05
3.42613e-05
3.4835e-05
3.33217e-05
3.12873e-05
3.02531e-05
3.01098e-05
3.0177e-05
3.04866e-05
3.0308e-05
2.96522e-05
2.77381e-05
3.00533e-05
3.17746e-05
3.21296e-05
3.06866e-05
2.93699e-05
2.81821e-05
2.70578e-05
2.65769e-05
2.64983e-05
2.62509e-05
2.59929e-05
2.60828e-05
2.62406e-05
2.61365e-05
2.60869e-05
2.61141e-05
2.60781e-05
2.61546e-05
2.6337e-05
2.66191e-05
2.69952e-05
2.74606e-05
2.80105e-05
2.86395e-05
2.9343e-05
3.01142e-05
3.09509e-05
3.18459e-05
3.27971e-05
3.37987e-05
3.46861e-05
3.47983e-05
3.48015e-05
3.47255e-05
3.46267e-05
3.45429e-05
3.44725e-05
3.43733e-05
3.41041e-05
3.28505e-05
3.12711e-05
3.12857e-05
3.12941e-05
3.13008e-05
3.1326e-05
3.13659e-05
3.14106e-05
3.14617e-05
3.1528e-05
3.15888e-05
3.16613e-05
3.17496e-05
3.18333e-05
3.16699e-05
3.14595e-05
3.12471e-05
3.10376e-05
3.08312e-05
3.0656e-05
3.09252e-05
3.09816e-05
3.08311e-05
3.06468e-05
2.98863e-05
2.90977e-05
2.8281e-05
2.74707e-05
2.77446e-05
2.83628e-05
2.86893e-05
2.82357e-05
2.7718e-05
2.71909e-05
2.6725e-05
2.62814e-05
2.58612e-05
2.55565e-05
2.52551e-05
2.49567e-05
2.47998e-05
2.49246e-05
2.493e-05
2.52011e-05
2.55714e-05
2.56154e-05
2.50838e-05
2.44497e-05
4.02892e-05
7.25365e-05
4.48083e-05
3.6857e-05
3.40805e-05
3.27208e-05
3.20935e-05
3.17097e-05
3.13864e-05
3.24305e-05
3.37363e-05
3.50263e-05
3.62789e-05
3.7219e-05
3.80379e-05
3.87373e-05
3.93992e-05
4.0539e-05
4.17177e-05
4.34815e-05
4.56036e-05
4.67508e-05
4.74588e-05
4.80662e-05
4.85667e-05
4.82851e-05
4.78959e-05
4.74518e-05
4.68906e-05
4.63673e-05
4.59045e-05
4.54648e-05
4.5047e-05
4.46501e-05
4.42731e-05
4.39162e-05
4.35771e-05
4.32565e-05
4.29515e-05
4.26629e-05
4.23892e-05
4.2129e-05
4.18495e-05
4.14768e-05
4.1105e-05
4.05318e-05
3.9941e-05
3.93598e-05
3.87826e-05
3.81968e-05
3.76024e-05
3.69248e-05
3.58977e-05
3.5165e-05
3.46928e-05
3.42226e-05
3.35215e-05
3.27284e-05
3.19893e-05
3.12448e-05
3.04965e-05
2.94613e-05
2.8216e-05
2.72868e-05
2.67113e-05
2.60848e-05
2.54381e-05
2.49055e-05
2.43684e-05
2.38329e-05
2.32903e-05
2.26939e-05
2.23809e-05
2.21839e-05
2.1972e-05
2.17306e-05
2.14953e-05
2.12675e-05
2.10352e-05
2.07974e-05
2.05604e-05
2.05134e-05
2.06226e-05
2.0731e-05
2.0839e-05
2.05624e-05
2.01273e-05
1.96944e-05
1.92634e-05
1.88337e-05
1.85432e-05
1.837e-05
1.81312e-05
1.82106e-05
1.8441e-05
1.83364e-05
1.82315e-05
1.81257e-05
1.80183e-05
1.79121e-05
8.92552e-05
0.000106564
7.74934e-05
4.77135e-05
3.49169e-05
3.2899e-05
3.21085e-05
3.13546e-05
3.08397e-05
3.05212e-05
2.99995e-05
2.93184e-05
2.86685e-05
2.80513e-05
2.78034e-05
2.77028e-05
2.77852e-05
2.78676e-05
2.79318e-05
2.79762e-05
2.80008e-05
2.80182e-05
2.81138e-05
2.81681e-05
2.81823e-05
2.82083e-05
2.82346e-05
2.8182e-05
2.8136e-05
2.8237e-05
2.82646e-05
2.82222e-05
2.81136e-05
2.79422e-05
2.77106e-05
2.75238e-05
2.72999e-05
2.70369e-05
2.67364e-05
2.64004e-05
2.60322e-05
2.56241e-05
2.51613e-05
2.46787e-05
2.41511e-05
2.36008e-05
2.3175e-05
2.27784e-05
2.23726e-05
2.19606e-05
2.15827e-05
2.11879e-05
2.14544e-05
2.11491e-05
2.07937e-05
2.04353e-05
2.0056e-05
1.96684e-05
1.92956e-05
1.89273e-05
1.85591e-05
1.81904e-05
1.7822e-05
1.74492e-05
1.7077e-05
1.67061e-05
1.65883e-05
1.65243e-05
1.64623e-05
1.64042e-05
1.63491e-05
1.62942e-05
1.58598e-05
1.56177e-05
1.55765e-05
1.55361e-05
1.54964e-05
1.5488e-05
1.55086e-05
1.55182e-05
1.55268e-05
1.55344e-05
1.55408e-05
1.55458e-05
1.5549e-05
1.55506e-05
1.55507e-05
1.55494e-05
1.57384e-05
1.59771e-05
1.61745e-05
1.64044e-05
1.65644e-05
1.64692e-05
1.63738e-05
1.62781e-05
1.61822e-05
1.60862e-05
1.59875e-05
1.58827e-05
8.8501e-05
9.66683e-05
0.000103362
8.44749e-05
5.70876e-05
3.70418e-05
3.2161e-05
3.08395e-05
3.0116e-05
2.91709e-05
2.80528e-05
2.70038e-05
2.60165e-05
2.50919e-05
2.42245e-05
2.36507e-05
2.31257e-05
2.26245e-05
2.21454e-05
2.1688e-05
2.126e-05
2.09136e-05
2.05634e-05
2.01565e-05
1.97689e-05
1.93987e-05
1.90458e-05
1.87646e-05
1.85741e-05
1.83759e-05
1.81702e-05
1.79572e-05
1.77366e-05
1.75091e-05
1.73195e-05
1.71293e-05
1.68905e-05
1.66416e-05
1.63864e-05
1.61243e-05
1.58566e-05
1.55839e-05
1.53368e-05
1.51833e-05
1.50375e-05
1.50731e-05
1.51272e-05
1.51942e-05
1.52699e-05
1.53561e-05
1.54529e-05
1.55431e-05
1.56954e-05
1.60254e-05
1.61746e-05
1.63275e-05
1.64836e-05
1.64644e-05
1.63901e-05
1.63168e-05
1.6245e-05
1.61746e-05
1.61057e-05
1.60381e-05
1.5972e-05
1.59074e-05
1.58439e-05
1.57816e-05
1.57204e-05
1.56607e-05
1.56108e-05
1.55678e-05
1.55256e-05
1.54842e-05
1.54436e-05
1.54039e-05
1.5365e-05
1.53275e-05
1.5293e-05
1.52585e-05
1.5222e-05
1.51863e-05
1.51514e-05
1.51172e-05
1.50836e-05
1.50503e-05
1.52554e-05
1.54556e-05
1.56278e-05
1.58409e-05
1.59318e-05
1.58744e-05
1.58174e-05
1.57608e-05
1.57046e-05
1.5649e-05
1.55932e-05
1.55389e-05
1.54835e-05
1.74497e-05
8.46226e-05
8.78471e-05
9.49852e-05
0.000101694
9.65657e-05
7.23723e-05
5.10895e-05
3.39572e-05
3.02924e-05
2.94896e-05
2.88278e-05
2.81989e-05
2.75995e-05
2.70298e-05
2.64861e-05
2.5968e-05
2.54745e-05
2.50036e-05
2.4554e-05
2.41248e-05
2.3715e-05
2.33112e-05
2.28328e-05
2.23907e-05
2.19842e-05
2.16108e-05
2.12692e-05
2.09575e-05
2.06752e-05
2.04211e-05
2.01929e-05
1.99903e-05
1.98108e-05
1.9655e-05
1.95201e-05
1.93092e-05
1.91019e-05
1.89018e-05
1.87096e-05
1.85248e-05
1.83467e-05
1.81751e-05
1.80105e-05
1.78509e-05
1.7697e-05
1.75495e-05
1.74049e-05
1.72658e-05
1.71317e-05
1.69997e-05
1.68728e-05
1.67502e-05
1.64117e-05
1.67502e-05
1.66818e-05
1.66027e-05
1.65251e-05
1.64488e-05
1.63742e-05
1.63011e-05
1.62295e-05
1.61593e-05
1.60904e-05
1.60227e-05
1.59564e-05
1.58915e-05
1.5828e-05
1.5766e-05
1.57052e-05
1.56454e-05
1.55867e-05
1.55292e-05
1.54727e-05
1.54173e-05
1.53628e-05
1.53094e-05
1.52571e-05
1.52059e-05
1.51587e-05
1.51222e-05
1.50862e-05
1.50506e-05
1.50153e-05
1.49806e-05
1.52255e-05
1.54229e-05
1.56117e-05
1.58522e-05
1.59048e-05
1.58578e-05
1.58099e-05
1.91015e-05
2.35023e-05
2.79435e-05
3.2375e-05
3.67956e-05
4.08854e-05
4.44185e-05
4.78517e-05
5.50887e-05
8.33174e-05
8.6761e-05
8.81736e-05
9.33741e-05
9.93665e-05
0.000104766
9.13532e-05
6.968e-05
5.26543e-05
3.73e-05
2.95125e-05
2.82464e-05
2.7641e-05
2.70655e-05
2.65178e-05
2.5996e-05
2.54979e-05
2.50225e-05
2.45685e-05
2.41349e-05
2.3721e-05
2.33255e-05
2.29478e-05
2.25866e-05
2.22416e-05
2.19111e-05
2.15945e-05
2.12912e-05
2.10008e-05
2.07229e-05
2.04557e-05
2.01999e-05
1.99542e-05
1.97181e-05
1.94914e-05
1.92726e-05
1.90631e-05
1.88615e-05
1.86672e-05
1.84803e-05
1.83012e-05
1.81277e-05
1.79607e-05
1.78008e-05
1.76445e-05
1.74948e-05
1.73506e-05
1.7209e-05
1.70728e-05
1.69408e-05
1.68116e-05
1.66874e-05
1.63317e-05
1.67217e-05
1.66643e-05
1.65848e-05
1.65072e-05
1.6431e-05
1.63562e-05
1.62829e-05
1.62111e-05
1.61407e-05
1.6072e-05
1.60043e-05
1.5938e-05
1.58729e-05
1.58093e-05
1.57469e-05
1.5686e-05
1.56263e-05
1.55677e-05
1.55102e-05
1.5454e-05
1.53989e-05
1.53447e-05
1.52914e-05
1.52388e-05
1.51871e-05
1.51363e-05
1.50863e-05
1.50374e-05
1.49922e-05
1.71838e-05
2.10987e-05
2.57727e-05
3.04921e-05
3.49588e-05
3.93592e-05
4.31119e-05
4.66385e-05
5.01824e-05
5.44748e-05
5.8241e-05
6.16735e-05
6.50846e-05
6.84048e-05
7.1594e-05
7.48723e-05
7.84552e-05
8.0533e-05
7.20032e-05
8.48758e-05
8.76957e-05
8.90178e-05
9.14063e-05
9.6561e-05
0.000101481
0.000105883
9.38579e-05
7.56933e-05
6.00811e-05
4.72826e-05
3.4629e-05
2.74735e-05
2.65462e-05
2.60186e-05
2.55156e-05
2.50362e-05
2.45786e-05
2.41414e-05
2.3724e-05
2.33252e-05
2.29442e-05
2.25797e-05
2.22314e-05
2.18978e-05
2.15784e-05
2.12724e-05
2.09791e-05
2.06982e-05
2.04286e-05
2.01699e-05
1.99224e-05
1.96837e-05
1.94548e-05
1.92345e-05
1.90224e-05
1.88187e-05
1.8623e-05
1.84339e-05
1.82527e-05
1.8079e-05
1.79095e-05
1.77474e-05
1.75911e-05
1.74386e-05
1.72926e-05
1.7151e-05
1.70124e-05
1.68793e-05
1.675e-05
1.66236e-05
1.63099e-05
1.66988e-05
1.66444e-05
1.65648e-05
1.64866e-05
1.64104e-05
1.63357e-05
1.62625e-05
1.61907e-05
1.61202e-05
1.60511e-05
1.59834e-05
1.59172e-05
1.58521e-05
1.57885e-05
1.5726e-05
1.56648e-05
1.56046e-05
1.55456e-05
1.54877e-05
1.54309e-05
1.8658e-05
2.20616e-05
2.60364e-05
3.01541e-05
3.42879e-05
3.84329e-05
4.21871e-05
4.59675e-05
4.96632e-05
5.38112e-05
5.80741e-05
6.16777e-05
6.50639e-05
6.84458e-05
7.16747e-05
7.48763e-05
7.82064e-05
8.15662e-05
8.25685e-05
8.25699e-05
8.2532e-05
8.24953e-05
8.2457e-05
8.27275e-05
8.35845e-05
8.46207e-05
8.60471e-05
6.56785e-05
7.43159e-05
8.4779e-05
8.86094e-05
8.98514e-05
9.09767e-05
9.35082e-05
9.77228e-05
0.000101722
0.000105386
0.00010083
8.90145e-05
7.50888e-05
6.30848e-05
5.30966e-05
4.28714e-05
3.35857e-05
2.54881e-05
2.45864e-05
2.41456e-05
2.37244e-05
2.33218e-05
2.29371e-05
2.25691e-05
2.22176e-05
2.18813e-05
2.15589e-05
2.12501e-05
2.09543e-05
2.06705e-05
2.03989e-05
2.01374e-05
1.98877e-05
1.96473e-05
1.94158e-05
1.91936e-05
1.89799e-05
1.87738e-05
1.85763e-05
1.83866e-05
1.82023e-05
1.80269e-05
1.78574e-05
1.76923e-05
1.75348e-05
1.73822e-05
1.72332e-05
1.70901e-05
1.69511e-05
1.6816e-05
1.66859e-05
1.6559e-05
1.6302e-05
1.66831e-05
1.66218e-05
1.65423e-05
1.64641e-05
1.63874e-05
1.63125e-05
1.62392e-05
1.61673e-05
1.60968e-05
1.81672e-05
2.11732e-05
2.42277e-05
2.78174e-05
3.15564e-05
3.53346e-05
3.91476e-05
4.2991e-05
4.61089e-05
4.91935e-05
5.22854e-05
5.57991e-05
5.90414e-05
6.22997e-05
6.54613e-05
6.86371e-05
7.21988e-05
7.57686e-05
7.93992e-05
8.30151e-05
8.43211e-05
8.47743e-05
8.47257e-05
8.46772e-05
8.4629e-05
8.45809e-05
8.51742e-05
8.59844e-05
8.69747e-05
8.80144e-05
8.73894e-05
8.58234e-05
8.42752e-05
8.27401e-05
8.12296e-05
7.97196e-05
7.80261e-05
7.58834e-05
7.13982e-05
7.03941e-05
7.78259e-05
8.42332e-05
8.94969e-05
9.06484e-05
9.16927e-05
9.26362e-05
9.38083e-05
9.7275e-05
0.000100454
0.000103402
0.0001061
0.00010368
9.44741e-05
8.55208e-05
7.65157e-05
6.78501e-05
6.09403e-05
5.37075e-05
4.70367e-05
4.10059e-05
3.55853e-05
3.07478e-05
2.64687e-05
2.31806e-05
2.1536e-05
2.12243e-05
2.09264e-05
2.06397e-05
2.0366e-05
2.01027e-05
1.98503e-05
1.96081e-05
1.93749e-05
1.91499e-05
1.89347e-05
1.87278e-05
1.85274e-05
1.83364e-05
1.81517e-05
1.7973e-05
1.78026e-05
1.76368e-05
1.74762e-05
1.73229e-05
1.71737e-05
1.78426e-05
1.95869e-05
2.14546e-05
2.3436e-05
2.55236e-05
2.79508e-05
3.11502e-05
3.41439e-05
3.7083e-05
4.01039e-05
4.32003e-05
4.63677e-05
4.90796e-05
5.16623e-05
5.42759e-05
5.7162e-05
5.9988e-05
6.28089e-05
6.56861e-05
6.85206e-05
7.13678e-05
7.42415e-05
7.703e-05
7.98495e-05
8.27834e-05
8.57407e-05
8.5351e-05
8.48892e-05
8.49787e-05
8.54368e-05
8.5942e-05
8.51797e-05
8.35169e-05
8.18389e-05
8.01772e-05
7.87008e-05
7.73273e-05
7.57844e-05
7.4206e-05
7.26441e-05
7.10986e-05
6.95699e-05
6.80581e-05
6.65628e-05
6.33491e-05
5.95096e-05
5.6051e-05
5.27767e-05
4.95282e-05
4.54274e-05
4.10055e-05
3.65053e-05
3.1356e-05
7.32758e-05
7.4722e-05
7.47403e-05
8.028e-05
8.77054e-05
9.00363e-05
9.14013e-05
9.23603e-05
9.32242e-05
9.39961e-05
9.46834e-05
9.53816e-05
9.79674e-05
0.000100319
0.000102453
0.000104373
0.000106098
0.000107642
0.000101388
9.51513e-05
8.94462e-05
8.42438e-05
7.95172e-05
7.52411e-05
7.14143e-05
6.7845e-05
6.46622e-05
6.17723e-05
5.90744e-05
5.67539e-05
5.47932e-05
5.3173e-05
5.18727e-05
5.08771e-05
5.01689e-05
4.97327e-05
4.95538e-05
4.96201e-05
4.99181e-05
5.04347e-05
5.11623e-05
5.20846e-05
5.31927e-05
5.44623e-05
5.55535e-05
5.67778e-05
5.82102e-05
5.99126e-05
6.16632e-05
6.33657e-05
6.51641e-05
6.70985e-05
6.91492e-05
7.12322e-05
7.31267e-05
7.52691e-05
7.74918e-05
7.97753e-05
8.20598e-05
8.38152e-05
8.49803e-05
8.62091e-05
8.53005e-05
8.34969e-05
8.1698e-05
7.94086e-05
7.72607e-05
7.51404e-05
7.30225e-05
7.09084e-05
6.95492e-05
6.82503e-05
6.6959e-05
6.56861e-05
6.47574e-05
6.39989e-05
6.30312e-05
6.15881e-05
5.94977e-05
5.77327e-05
5.61637e-05
5.46099e-05
5.30716e-05
5.05283e-05
4.71926e-05
4.38825e-05
4.05992e-05
3.73452e-05
3.41226e-05
3.00108e-05
2.55703e-05
2.1051e-05
1.80806e-05
1.61652e-05
1.4282e-05
1.20936e-05
9.97916e-06
8.11986e-06
6.35452e-06
5.21998e-06
7.31634e-05
7.47176e-05
7.58241e-05
7.87356e-05
8.18269e-05
8.84764e-05
9.42063e-05
9.55262e-05
9.63218e-05
9.4336e-05
9.44537e-05
9.50714e-05
9.56149e-05
9.60893e-05
9.64987e-05
9.68478e-05
9.78864e-05
9.94e-05
0.000100747
0.000101938
0.000102983
0.000103889
0.000104665
0.000105319
0.000105847
0.000105739
0.000104197
0.000101495
9.91226e-05
9.7061e-05
9.52916e-05
9.38016e-05
9.25748e-05
9.15962e-05
9.08518e-05
9.03315e-05
9.002e-05
8.99057e-05
8.99828e-05
9.02355e-05
9.06576e-05
9.12395e-05
9.19396e-05
9.05159e-05
8.92501e-05
8.81682e-05
8.723e-05
8.55781e-05
8.29571e-05
8.03593e-05
7.77849e-05
7.52335e-05
7.24278e-05
6.90203e-05
6.6562e-05
6.44204e-05
6.24764e-05
6.05569e-05
5.85614e-05
5.7016e-05
5.57194e-05
5.44768e-05
5.32374e-05
5.20025e-05
5.07721e-05
4.95702e-05
4.83814e-05
4.71738e-05
4.59695e-05
4.47715e-05
4.35796e-05
4.23944e-05
4.13404e-05
4.03406e-05
3.92826e-05
3.69695e-05
3.36892e-05
3.04366e-05
2.84524e-05
2.76947e-05
2.69394e-05
2.61468e-05
2.4178e-05
2.20349e-05
1.99297e-05
1.79958e-05
1.60841e-05
1.42016e-05
1.20178e-05
9.91999e-06
8.06454e-06
6.54678e-06
5.45072e-06
4.45429e-06
3.63414e-06
3.12424e-06
3.05557e-06
3.04952e-06
3.04281e-06
3.03631e-06
7.30514e-05
7.47358e-05
7.58262e-05
7.68263e-05
7.77196e-05
8.31048e-05
8.85657e-05
9.40815e-05
9.92979e-05
0.000100778
0.000101842
0.000102413
0.000100984
9.96717e-05
9.84684e-05
9.73702e-05
9.69426e-05
9.71867e-05
9.73817e-05
9.75314e-05
9.76393e-05
9.7707e-05
9.77386e-05
9.77345e-05
9.77009e-05
9.78921e-05
9.82193e-05
9.84551e-05
9.86011e-05
9.70671e-05
9.45068e-05
9.19127e-05
8.92896e-05
8.66399e-05
8.39661e-05
8.12715e-05
7.85595e-05
7.58309e-05
7.30895e-05
7.03379e-05
6.75764e-05
6.48042e-05
6.17307e-05
5.88627e-05
5.66239e-05
5.44143e-05
5.22325e-05
5.00789e-05
4.79524e-05
4.58526e-05
4.37796e-05
4.1734e-05
3.96878e-05
3.67493e-05
3.55417e-05
3.44352e-05
3.33399e-05
3.22269e-05
3.1113e-05
3.05673e-05
3.07081e-05
3.08504e-05
3.09937e-05
3.11379e-05
3.1283e-05
3.1429e-05
3.13016e-05
3.05781e-05
2.98522e-05
2.91246e-05
2.8497e-05
2.79469e-05
2.74022e-05
2.68253e-05
2.52663e-05
2.31949e-05
2.11661e-05
1.92571e-05
1.7362e-05
1.54857e-05
1.3621e-05
1.1413e-05
9.42281e-06
7.67937e-06
6.53244e-06
5.44492e-06
4.45744e-06
3.64798e-06
3.15126e-06
3.09175e-06
3.08559e-06
3.07942e-06
3.07324e-06
3.06705e-06
3.04277e-06
3.03861e-06
3.0888e-06
3.19015e-06
3.33489e-06
3.49403e-06
7.2946e-05
7.47783e-05
7.58499e-05
7.68352e-05
7.77127e-05
7.85079e-05
7.97447e-05
8.48207e-05
8.96503e-05
9.69061e-05
0.000101797
0.000105739
0.000106647
0.00010749
0.00010717
0.000104953
0.000101831
9.85637e-05
9.53346e-05
9.217e-05
8.90674e-05
8.6025e-05
8.30406e-05
8.01115e-05
7.72361e-05
7.44143e-05
7.16414e-05
6.89203e-05
6.60918e-05
6.32741e-05
6.06229e-05
5.80535e-05
5.55251e-05
5.30368e-05
5.05897e-05
4.81799e-05
4.58089e-05
4.34734e-05
4.11739e-05
3.89106e-05
3.66827e-05
3.44887e-05
3.23725e-05
3.25213e-05
3.2661e-05
3.27927e-05
3.29284e-05
3.30679e-05
3.3211e-05
3.33574e-05
3.35066e-05
3.36585e-05
3.29982e-05
3.23527e-05
3.24669e-05
3.2589e-05
3.23701e-05
3.17311e-05
3.10835e-05
3.04284e-05
2.97666e-05
2.90986e-05
2.84251e-05
2.77468e-05
2.70644e-05
2.63725e-05
2.44992e-05
2.2603e-05
2.08559e-05
1.92039e-05
1.75694e-05
1.59204e-05
1.41491e-05
1.21241e-05
1.0118e-05
8.45354e-06
7.30628e-06
6.199e-06
5.15744e-06
4.22952e-06
3.50527e-06
3.13243e-06
3.1265e-06
3.12052e-06
3.1145e-06
3.10846e-06
3.07643e-06
3.09504e-06
3.16874e-06
3.29273e-06
3.46059e-06
3.66532e-06
3.90019e-06
4.1764e-06
4.55295e-06
4.92308e-06
5.21927e-06
5.52573e-06
5.83662e-06
6.22071e-06
7.28451e-05
7.48476e-05
7.58945e-05
7.36813e-05
7.07696e-05
6.78494e-05
6.49509e-05
6.20565e-05
5.91748e-05
5.95887e-05
6.00574e-05
6.03017e-05
6.23348e-05
6.41718e-05
6.55386e-05
6.66341e-05
6.55359e-05
6.31714e-05
6.07935e-05
5.84057e-05
5.60094e-05
5.36069e-05
5.11985e-05
4.87871e-05
4.63696e-05
4.36108e-05
4.089e-05
3.82252e-05
3.5616e-05
3.4655e-05
3.46887e-05
3.47306e-05
3.47809e-05
3.48373e-05
3.49015e-05
3.4974e-05
3.505e-05
3.51305e-05
3.52199e-05
3.53126e-05
3.54111e-05
3.5513e-05
3.53276e-05
3.50048e-05
3.45718e-05
3.41158e-05
3.36383e-05
3.31413e-05
3.26255e-05
3.20925e-05
3.15436e-05
3.05208e-05
2.89136e-05
2.82615e-05
2.7681e-05