/*--------------------------------*- C++ -*----------------------------------*\
| =========                 |                                                 |
| \\      /  F ield         | foam-extend: Open Source CFD                    |
|  \\    /   O peration     | Version:     4.1                                |
|   \\  /    A nd           | Web:         http://www.foam-extend.org         |
|    \\/     M anipulation  |                                                 |
\*---------------------------------------------------------------------------*/
FoamFile
{
    version     2.0;
    format      ascii;
    class       volScalarField;
    location    "5";
    object      sigmaEq;
}
// * * * * * * * * * * * * * * * * * * * * * * * * * * * * * * * * * * * * * //

dimensions      [1 -1 -2 0 0 0 0];

internalField   nonuniform List<scalar> 
100000
(
1.28568e+07
1.57888e+07
1.59638e+07
1.62441e+07
1.3795e+07
9.36893e+06
3.8983e+06
1.34034e+06
4.04719e+06
5.54304e+06
4.45437e+06
3.62629e+06
3.04536e+06
2.97464e+06
2.9616e+06
3.05434e+06
3.02436e+06
3.0674e+06
3.24617e+06
3.41708e+06
3.54425e+06
3.5724e+06
3.60672e+06
3.68829e+06
3.66772e+06
3.66545e+06
3.65914e+06
3.64916e+06
3.63586e+06
3.61951e+06
3.60015e+06
3.57826e+06
3.554e+06
3.52739e+06
3.49883e+06
3.46847e+06
3.43661e+06
3.40331e+06
3.36877e+06
3.33308e+06
3.2964e+06
3.25892e+06
3.22074e+06
3.18294e+06
3.14638e+06
3.10936e+06
3.07194e+06
3.03837e+06
3.01849e+06
2.99874e+06
2.97929e+06
2.9599e+06
2.94082e+06
2.92183e+06
2.90308e+06
2.88461e+06
2.84798e+06
2.85052e+06
2.83153e+06
2.81252e+06
2.78783e+06
2.74112e+06
2.69509e+06
2.64976e+06
2.60512e+06
2.56112e+06
2.51783e+06
2.47526e+06
2.43337e+06
2.39222e+06
2.35172e+06
2.33457e+06
2.33497e+06
2.33882e+06
2.33179e+06
2.2951e+06
2.25675e+06
2.22306e+06
2.19059e+06
2.15456e+06
2.09443e+06
1.99429e+06
1.89601e+06
1.83346e+06
1.80599e+06
1.74681e+06
1.68236e+06
1.61985e+06
1.55935e+06
1.50105e+06
1.44528e+06
1.40318e+06
1.36643e+06
1.33177e+06
1.29923e+06
1.26939e+06
1.24276e+06
1.21012e+06
1.17942e+06
1.42659e+06
1.26687e+07
1.53363e+07
1.52106e+07
1.51966e+07
1.54351e+07
1.56536e+07
1.46052e+07
1.11359e+07
7.79216e+06
3.44596e+06
1.05995e+06
2.70957e+06
4.55027e+06
5.13181e+06
4.43149e+06
3.76522e+06
3.09457e+06
2.69168e+06
2.367e+06
2.22057e+06
2.15743e+06
2.1199e+06
2.15794e+06
2.10965e+06
2.11572e+06
2.19131e+06
2.25286e+06
2.31452e+06
2.3714e+06
2.42313e+06
2.46953e+06
2.51075e+06
2.474e+06
2.5771e+06
2.60271e+06
2.62362e+06
2.61278e+06
2.59342e+06
2.57409e+06
2.55483e+06
2.53571e+06
2.50383e+06
2.45295e+06
2.40323e+06
2.35386e+06
2.30459e+06
2.2572e+06
2.21454e+06
2.17163e+06
2.12532e+06
2.07987e+06
2.0351e+06
1.99112e+06
1.94783e+06
1.90533e+06
1.86368e+06
1.7865e+06
1.73941e+06
1.70038e+06
1.64806e+06
1.58901e+06
1.53077e+06
1.47029e+06
1.41048e+06
1.35155e+06
1.2937e+06
1.23714e+06
1.18217e+06
1.12905e+06
1.07809e+06
1.02961e+06
983959
941578
907614
885201
873991
840465
821680
825320
864538
954442
1.0225e+06
1.02329e+06
1.04549e+06
1.06806e+06
1.07021e+06
1.06234e+06
1.05845e+06
1.06789e+06
1.09543e+06
1.13962e+06
1.19857e+06
1.27017e+06
1.35259e+06
1.4439e+06
1.54352e+06
1.6497e+06
1.75826e+06
1.87557e+06
2.08435e+06
1.25483e+07
1.51555e+07
1.50469e+07
1.49173e+07
1.48069e+07
1.47037e+07
1.46092e+07
1.45244e+07
1.46626e+07
1.37878e+07
1.07741e+07
8.21013e+06
5.32672e+06
2.32475e+06
1.40741e+06
2.5027e+06
3.70843e+06
4.91538e+06
5.26317e+06
4.83189e+06
4.40477e+06
3.97894e+06
3.51073e+06
3.11951e+06
2.87141e+06
2.6308e+06
2.41637e+06
2.17516e+06
1.96735e+06
1.79427e+06
1.65675e+06
1.58107e+06
1.50003e+06
1.42577e+06
1.36176e+06
1.30469e+06
1.2639e+06
1.24729e+06
1.23621e+06
1.22433e+06
1.20269e+06
1.16775e+06
1.1416e+06
1.12663e+06
1.1099e+06
1.09259e+06
1.07478e+06
1.05408e+06
1.02542e+06
997093
994864
999118
1.00595e+06
1.01551e+06
1.02773e+06
1.04268e+06
1.00063e+06
1.0006e+06
1.02976e+06
1.06094e+06
1.09559e+06
1.1463e+06
1.19955e+06
1.2903e+06
1.39003e+06
1.49445e+06
1.60277e+06
1.71453e+06
1.82926e+06
1.94647e+06
2.06583e+06
2.18702e+06
2.27065e+06
2.35764e+06
2.42357e+06
2.49949e+06
2.58626e+06
2.65837e+06
2.72232e+06
2.7867e+06
2.86159e+06
2.95732e+06
3.07272e+06
3.20629e+06
3.36292e+06
3.535e+06
3.70244e+06
3.86667e+06
4.0355e+06
4.20741e+06
4.37935e+06
4.55147e+06
4.72405e+06
4.89746e+06
5.07175e+06
5.24829e+06
5.42489e+06
5.60571e+06
5.77529e+06
5.64284e+06
1.2462e+07
1.49741e+07
1.48799e+07
1.47678e+07
1.4673e+07
1.45843e+07
1.45022e+07
1.44284e+07
1.43595e+07
1.42946e+07
1.42333e+07
1.41746e+07
1.41189e+07
1.28397e+07
1.05423e+07
8.43616e+06
6.60256e+06
4.53403e+06
2.09709e+06
1.36669e+06
2.14256e+06
3.05647e+06
3.9742e+06
4.56234e+06
4.99439e+06
5.39227e+06
5.74715e+06
5.37628e+06
5.03381e+06
4.72377e+06
4.45582e+06
4.22012e+06
3.99475e+06
3.79818e+06
3.63337e+06
3.49597e+06
3.39464e+06
3.30665e+06
3.23125e+06
3.16772e+06
3.11538e+06
3.08684e+06
3.08837e+06
3.09883e+06
3.1179e+06
3.14487e+06
3.17954e+06
3.22117e+06
3.26967e+06
3.33261e+06
3.40409e+06
3.47267e+06
3.54449e+06
3.62124e+06
3.7021e+06
3.78507e+06
3.72398e+06
3.7879e+06
3.88069e+06
3.99101e+06
4.11525e+06
4.243e+06
4.37447e+06
4.50988e+06
4.6469e+06
4.78628e+06
4.92797e+06
5.07174e+06
5.21504e+06
5.3159e+06
5.4177e+06
5.51904e+06
5.62161e+06
5.72087e+06
5.8088e+06
5.63413e+06
5.37405e+06
5.13863e+06
4.90406e+06
4.67035e+06
4.43782e+06
4.16514e+06
3.80984e+06
3.45768e+06
3.10903e+06
2.76431e+06
2.42517e+06
2.06543e+06
1.68776e+06
1.33315e+06
1.02192e+06
800527
746296
884427
1.14184e+06
1.45425e+06
1.7863e+06
2.13453e+06
2.59334e+06
4.78253e+06
1.13813e+07
1.46272e+07
1.47133e+07
1.46157e+07
1.45366e+07
1.44628e+07
1.43935e+07
1.43309e+07
1.42736e+07
1.42061e+07
1.40519e+07
1.39039e+07
1.37848e+07
1.36781e+07
1.35503e+07
1.34183e+07
1.32894e+07
1.32034e+07
1.23249e+07
1.07223e+07
9.33093e+06
8.05269e+06
6.65219e+06
5.31306e+06
4.24859e+06
3.57574e+06
2.55027e+06
1.59957e+06
1.13622e+06
944720
1.06042e+06
1.29035e+06
1.57239e+06
1.94765e+06
2.34015e+06
2.671e+06
2.95045e+06
3.21256e+06
3.45693e+06
3.68441e+06
3.89515e+06
4.09026e+06
4.26996e+06
4.43526e+06
4.58678e+06
4.72548e+06
4.8523e+06
4.96762e+06
5.07244e+06
5.16678e+06
5.20021e+06
5.2111e+06
5.20883e+06
5.1936e+06
5.16688e+06
5.06006e+06
4.59052e+06
4.32241e+06
4.05487e+06
3.78467e+06
3.51232e+06
3.23858e+06
2.96398e+06
2.64666e+06
2.32595e+06
1.9507e+06
1.52751e+06
1.14052e+06
836541
752535
955434
1.31626e+06
1.70212e+06
2.11095e+06
2.54276e+06
3.05087e+06
3.47536e+06
3.83886e+06
4.20678e+06
4.57733e+06
4.95001e+06
5.32343e+06
5.69722e+06
6.07048e+06
6.44258e+06
6.81521e+06
7.18649e+06
7.55548e+06
7.9225e+06
8.28699e+06
8.64869e+06
9.00724e+06
9.36232e+06
9.71376e+06
1.0061e+07
1.04054e+07
1.07438e+07
1.10836e+07
1.14084e+07
1.13429e+07
6.62851e+06
1.21523e+07
1.39523e+07
1.44636e+07
1.43986e+07
1.43402e+07
1.42845e+07
1.4115e+07
1.39601e+07
1.3849e+07
1.3735e+07
1.35867e+07
1.34458e+07
1.33697e+07
1.33222e+07
1.32749e+07
1.32514e+07
1.33305e+07
1.33972e+07
1.34376e+07
1.3485e+07
1.35508e+07
1.36115e+07
1.33663e+07
1.29804e+07
1.26319e+07
1.23728e+07
1.16394e+07
1.09525e+07
1.03208e+07
9.74401e+06
9.22674e+06
8.77316e+06
8.36955e+06
7.98662e+06
7.63385e+06
7.20827e+06
6.82164e+06
6.47216e+06
6.15708e+06
5.87476e+06
5.62281e+06
5.39986e+06
5.20408e+06
5.03394e+06
4.88794e+06
4.76424e+06
4.66175e+06
4.57892e+06
4.51503e+06
4.46869e+06
4.43943e+06
4.42572e+06
4.42723e+06
4.43498e+06
4.69046e+06
5.05342e+06
5.31949e+06
5.59119e+06
5.86791e+06
6.14923e+06
6.46442e+06
6.87214e+06
7.28579e+06
7.71238e+06
8.15413e+06
8.59282e+06
9.02501e+06
9.45819e+06
9.85016e+06
1.02441e+07
1.06398e+07
1.10379e+07
1.14427e+07
1.17917e+07
1.18768e+07
1.18282e+07
1.17795e+07
1.1732e+07
1.16832e+07
1.16348e+07
1.15883e+07
1.15411e+07
1.14952e+07
1.14473e+07
1.13982e+07
1.13516e+07
1.13052e+07
1.12583e+07
1.12114e+07
1.1164e+07
1.11163e+07
1.10682e+07
1.10197e+07
1.09711e+07
1.0922e+07
1.0874e+07
1.08248e+07
1.07792e+07
1.07508e+07
4.01429e+06
1.09559e+07
1.13496e+07
1.2302e+07
1.38095e+07
1.40236e+07
1.39102e+07
1.37989e+07
1.36372e+07
1.34954e+07
1.34498e+07
1.34045e+07
1.33623e+07
1.33214e+07
1.339e+07
1.34794e+07
1.35334e+07
1.35944e+07
1.36815e+07
1.37345e+07
1.36979e+07
1.36605e+07
1.36219e+07
1.35821e+07
1.35289e+07
1.32216e+07
1.29017e+07
1.26146e+07
1.2382e+07
1.22632e+07
1.22198e+07
1.21751e+07
1.21295e+07
1.21791e+07
1.22539e+07
1.23346e+07
1.24085e+07
1.24626e+07
1.25115e+07
1.24657e+07
1.24106e+07
1.23554e+07
1.22995e+07
1.22437e+07
1.21874e+07
1.21313e+07
1.20749e+07
1.20184e+07
1.19619e+07
1.19052e+07
1.18486e+07
1.1792e+07
1.17356e+07
1.16791e+07
1.16266e+07
1.19566e+07
1.19127e+07
1.19188e+07
1.19724e+07
1.20295e+07
1.20921e+07
1.21658e+07
1.2242e+07
1.23127e+07
1.23861e+07
1.23995e+07
1.2347e+07
1.22949e+07
1.22429e+07
1.21913e+07
1.21399e+07
1.20889e+07
1.20434e+07
1.20003e+07
1.19503e+07
1.19005e+07
1.1851e+07
1.18019e+07
1.17529e+07
1.16901e+07
1.16556e+07
1.16075e+07
1.15593e+07
1.15118e+07
1.14736e+07
1.14015e+07
1.13676e+07
1.13195e+07
1.12711e+07
1.12229e+07
1.11744e+07
1.11257e+07
1.10769e+07
1.10278e+07
1.0979e+07
1.09301e+07
1.08825e+07
1.0834e+07
1.07889e+07
1.076e+07
7.78656e+06
1.15047e+07
1.29087e+07
1.15068e+07
1.12598e+07
1.13979e+07
1.27263e+07
1.34571e+07
1.34513e+07
1.3411e+07
1.3375e+07
1.33547e+07
1.34745e+07
1.35539e+07
1.36239e+07
1.37265e+07
1.38095e+07
1.37817e+07
1.37525e+07
1.37219e+07
1.36895e+07
1.36557e+07
1.36205e+07
1.35839e+07
1.35459e+07
1.35065e+07
1.34478e+07
1.31918e+07
1.29404e+07
1.27013e+07
1.24975e+07
1.23199e+07
1.21576e+07
1.21045e+07
1.2058e+07
1.20118e+07
1.20759e+07
1.21341e+07
1.21952e+07
1.22519e+07
1.22939e+07
1.23308e+07
1.23299e+07
1.22747e+07
1.22192e+07
1.21634e+07
1.21076e+07
1.20514e+07
1.19954e+07
1.19391e+07
1.18829e+07
1.18265e+07
1.18455e+07
1.18724e+07
1.20938e+07
1.23274e+07
1.23754e+07
1.24318e+07
1.24888e+07
1.25454e+07
1.26052e+07
1.26381e+07
1.25846e+07
1.25313e+07
1.24781e+07
1.24252e+07
1.23724e+07
1.23199e+07
1.22676e+07
1.22156e+07
1.21638e+07
1.21128e+07
1.20712e+07
1.20222e+07
1.19715e+07
1.19211e+07
1.18707e+07
1.18209e+07
1.17705e+07
1.17219e+07
1.16734e+07
1.16234e+07
1.15744e+07
1.15245e+07
1.14769e+07
1.14304e+07
1.13813e+07
1.1332e+07
1.12829e+07
1.12337e+07
1.11845e+07
1.11353e+07
1.10862e+07
1.10371e+07
1.09846e+07
1.08588e+07
1.07362e+07
1.06132e+07
1.04977e+07
1.04213e+07
1.03363e+07
9.89503e+06
1.30369e+07
1.27588e+07
1.19898e+07
1.0949e+07
1.06499e+07
1.1224e+07
1.13474e+07
1.24146e+07
1.34736e+07
1.35773e+07
1.36678e+07
1.38022e+07
1.38187e+07
1.38007e+07
1.37806e+07
1.3758e+07
1.37334e+07
1.37071e+07
1.36788e+07
1.36487e+07
1.36169e+07
1.35833e+07
1.35482e+07
1.35114e+07
1.34732e+07
1.34334e+07
1.33924e+07
1.32552e+07
1.3059e+07
1.2879e+07
1.27026e+07
1.25434e+07
1.24104e+07
1.22911e+07
1.21839e+07
1.20884e+07
1.20037e+07
1.20194e+07
1.20494e+07
1.20874e+07
1.21341e+07
1.21826e+07
1.22311e+07
1.22838e+07
1.23173e+07
1.23104e+07
1.231e+07
1.23154e+07
1.23268e+07
1.23395e+07
1.23584e+07
1.23823e+07
1.27885e+07
1.28443e+07
1.28886e+07
1.2878e+07
1.28238e+07
1.27697e+07
1.27156e+07
1.26617e+07
1.2608e+07
1.25544e+07
1.2501e+07
1.24477e+07
1.23947e+07
1.23418e+07
1.2246e+07
1.20953e+07
1.19462e+07
1.17996e+07
1.16633e+07
1.15194e+07
1.13763e+07
1.12347e+07
1.10945e+07
1.09557e+07
1.08183e+07
1.06044e+07
1.031e+07
1.00183e+07
9.72968e+06
9.44369e+06
9.16041e+06
8.88145e+06
8.60516e+06
8.33137e+06
8.06063e+06
7.79276e+06
7.52802e+06
7.2526e+06
6.85263e+06
6.45652e+06
6.06991e+06
5.98072e+06
5.87879e+06
5.76017e+06
5.65109e+06
5.60323e+06
1.08651e+07
9.4679e+06
8.29682e+06
9.66418e+06
9.734e+06
1.04086e+07
9.88017e+06
1.00874e+07
1.02585e+07
1.05905e+07
1.13839e+07
1.20042e+07
1.17946e+07
1.25966e+07
1.33495e+07
1.37638e+07
1.37494e+07
1.3732e+07
1.37122e+07
1.36903e+07
1.3666e+07
1.36396e+07
1.36112e+07
1.35805e+07
1.3548e+07
1.35137e+07
1.34779e+07
1.34405e+07
1.34017e+07
1.33615e+07
1.33202e+07
1.32777e+07
1.32338e+07
1.30939e+07
1.29599e+07
1.28391e+07
1.27304e+07
1.26337e+07
1.25478e+07
1.24726e+07
1.24072e+07
1.23513e+07
1.23378e+07
1.23457e+07
1.21674e+07
1.19603e+07
1.17585e+07
1.1558e+07
1.13579e+07
1.11606e+07
1.09665e+07
1.07428e+07
1.04327e+07
1.02183e+07
1.01816e+07
9.88099e+06
9.57325e+06
9.26645e+06
8.96172e+06
8.65786e+06
8.35588e+06
8.0556e+06
7.75723e+06
7.46106e+06
7.16722e+06
6.87588e+06
6.58724e+06
6.29068e+06
5.98281e+06
5.68742e+06
5.4076e+06
5.13684e+06
4.87185e+06
4.60295e+06
4.33787e+06
4.06901e+06
3.67931e+06
3.29911e+06
2.88926e+06
2.44364e+06
2.26109e+06
2.18478e+06
2.05665e+06
1.78675e+06
1.53949e+06
1.32591e+06
1.16301e+06
1.07173e+06
1.06773e+06
1.13827e+06
1.25294e+06
1.31641e+06
1.46531e+06
1.7077e+06
2.10768e+06
2.40141e+06
2.43887e+06
2.57596e+06
2.82146e+06
3.04536e+06
1.17568e+07
1.02455e+07
4.93325e+06
6.19385e+06
5.92265e+06
5.39043e+06
4.86347e+06
4.62976e+06
4.73575e+06
4.7077e+06
4.78877e+06
5.30401e+06
4.95821e+06
4.60211e+06
5.0722e+06
5.69743e+06
6.10893e+06
6.37597e+06
6.64796e+06
7.04077e+06
7.50738e+06
7.75008e+06
7.88251e+06
7.97926e+06
8.04149e+06
7.91689e+06
7.75219e+06
7.57559e+06
7.38799e+06
7.1902e+06
6.98319e+06
6.76771e+06
6.5443e+06
6.31362e+06
6.07608e+06
5.83269e+06
5.58374e+06
5.33019e+06
5.07243e+06
4.81096e+06
4.54649e+06
4.27905e+06
4.01638e+06
3.7949e+06
3.59003e+06
3.33321e+06
3.08788e+06
2.88372e+06
2.67811e+06
2.47179e+06
2.28053e+06
2.10088e+06
1.85684e+06
1.82159e+06
1.6559e+06
1.43167e+06
1.37219e+06
946586
827306
877571
1.07567e+06
1.41109e+06
1.84269e+06
2.23539e+06
2.56157e+06
2.9072e+06
3.26323e+06
3.59073e+06
3.87639e+06
4.10762e+06
4.33973e+06
4.57369e+06
4.76006e+06
4.93465e+06
5.10778e+06
5.26244e+06
5.42484e+06
5.5985e+06
5.77171e+06
5.89223e+06
5.96905e+06
5.94261e+06
5.82288e+06
5.7287e+06
5.66345e+06
5.68873e+06
5.75192e+06
5.81608e+06
5.8844e+06
5.9526e+06
6.01691e+06
6.06735e+06
5.98764e+06
5.84074e+06
5.71461e+06
5.96753e+06
6.14434e+06
6.28653e+06
6.44308e+06
6.63429e+06
1.0602e+07
9.03528e+06
7.90645e+06
8.03885e+06
7.68961e+06
7.22016e+06
6.98149e+06
6.94842e+06
6.96392e+06
7.03536e+06
6.99416e+06
6.84281e+06
6.4011e+06
6.93538e+06
7.33261e+06
7.41453e+06
7.08153e+06
6.77766e+06
6.50355e+06
6.2441e+06
6.13312e+06
6.11499e+06
6.05791e+06
5.99836e+06
6.0191e+06
6.05553e+06
6.0315e+06
6.02005e+06
6.02633e+06
6.01802e+06
6.03568e+06
6.07777e+06
6.14288e+06
6.22967e+06
6.33706e+06
6.46396e+06
6.60911e+06
6.77146e+06
6.94944e+06
7.14252e+06
7.34906e+06
7.56856e+06
7.7997e+06
8.0045e+06
8.03039e+06
8.03112e+06
8.01357e+06
7.99078e+06
7.97143e+06
7.9552e+06
7.9323e+06
7.87017e+06
7.58088e+06
7.21641e+06
7.21978e+06
7.22172e+06
7.22327e+06
7.22907e+06
7.23829e+06
7.24859e+06
7.2604e+06
7.27568e+06
7.28973e+06
7.30644e+06
7.32683e+06
7.34615e+06
7.30844e+06
7.25989e+06
7.21087e+06
7.16253e+06
7.1149e+06
7.07446e+06
7.13658e+06
7.1496e+06
7.11488e+06
7.07233e+06
6.89684e+06
6.71485e+06
6.52639e+06
6.33939e+06
6.4026e+06
6.54527e+06
6.62062e+06
6.51593e+06
6.39645e+06
6.27482e+06
6.16731e+06
6.06493e+06
5.96797e+06
5.89764e+06
5.82809e+06
5.75924e+06
5.72304e+06
5.75182e+06
5.75307e+06
5.81564e+06
5.9011e+06
5.91125e+06
5.78857e+06
5.64224e+06
9.29751e+06
1.67392e+07
1.03404e+07
8.50545e+06
7.86472e+06
7.55096e+06
7.40618e+06
7.31761e+06
7.24302e+06
7.48395e+06
7.78531e+06
8.083e+06
8.37206e+06
8.589e+06
8.77797e+06
8.93938e+06
9.09212e+06
9.35516e+06
9.62717e+06
1.00342e+07
1.05239e+07
1.07887e+07
1.0952e+07
1.10922e+07
1.12077e+07
1.11427e+07
1.10529e+07
1.09504e+07
1.08209e+07
1.07001e+07
1.05933e+07
1.04919e+07
1.03955e+07
1.03039e+07
1.02169e+07
1.01345e+07
1.00562e+07
9.98228e+06
9.91188e+06
9.84529e+06
9.78212e+06
9.72208e+06
9.65757e+06
9.57156e+06
9.48578e+06
9.35349e+06
9.21716e+06
9.08304e+06
8.94984e+06
8.81464e+06
8.67747e+06
8.52111e+06
8.28408e+06
8.115e+06
8.00602e+06
7.89752e+06
7.73573e+06
7.5527e+06
7.38215e+06
7.21035e+06
7.03765e+06
6.79876e+06
6.51139e+06
6.29695e+06
6.16415e+06
6.01957e+06
5.87033e+06
5.74742e+06
5.62348e+06
5.4999e+06
5.37468e+06
5.23706e+06
5.16482e+06
5.11937e+06
5.07047e+06
5.01474e+06
4.96044e+06
4.90788e+06
4.85428e+06
4.79939e+06
4.74472e+06
4.73387e+06
4.75905e+06
4.78409e+06
4.809e+06
4.74516e+06
4.64475e+06
4.54486e+06
4.44539e+06
4.34625e+06
4.2792e+06
4.23922e+06
4.18411e+06
4.20244e+06
4.25562e+06
4.23147e+06
4.20726e+06
4.18285e+06
4.15808e+06
4.13356e+06
2.05973e+07
2.45917e+07
1.78831e+07
1.10108e+07
8.05775e+06
7.59207e+06
7.40965e+06
7.23567e+06
7.11686e+06
7.04336e+06
6.92297e+06
6.76578e+06
6.61581e+06
6.47338e+06
6.41616e+06
6.39294e+06
6.41197e+06
6.43099e+06
6.44579e+06
6.45604e+06
6.46172e+06
6.46574e+06
6.48779e+06
6.50033e+06
6.50361e+06
6.50961e+06
6.51567e+06
6.50354e+06
6.49292e+06
6.51623e+06
6.52261e+06
6.51282e+06
6.48775e+06
6.4482e+06
6.39475e+06
6.35166e+06
6.29997e+06
6.23928e+06
6.16994e+06
6.09239e+06
6.00743e+06
5.91325e+06
5.80644e+06
5.69508e+06
5.57333e+06
5.44633e+06
5.34808e+06
5.25654e+06
5.1629e+06
5.06783e+06
4.98062e+06
4.88951e+06
4.95102e+06
4.88057e+06
4.79854e+06
4.71585e+06
4.6283e+06
4.53886e+06
4.45282e+06
4.36783e+06
4.28287e+06
4.19779e+06
4.11278e+06
4.02675e+06
3.94085e+06
3.85525e+06
3.82807e+06
3.81329e+06
3.79899e+06
3.78557e+06
3.77287e+06
3.7602e+06
3.65994e+06
3.60409e+06
3.59458e+06
3.58525e+06
3.5761e+06
3.57417e+06
3.57891e+06
3.58113e+06
3.58311e+06
3.58486e+06
3.58635e+06
3.58749e+06
3.58824e+06
3.58861e+06
3.58861e+06
3.58832e+06
3.63195e+06
3.68702e+06
3.73259e+06
3.78564e+06
3.82254e+06
3.80059e+06
3.77857e+06
3.75648e+06
3.73436e+06
3.71221e+06
3.68941e+06
3.66524e+06
2.04233e+07
2.23081e+07
2.38527e+07
1.94942e+07
1.31741e+07
8.5481e+06
7.42177e+06
7.11681e+06
6.94985e+06
6.73174e+06
6.47372e+06
6.23164e+06
6.0038e+06
5.79045e+06
5.59026e+06
5.45786e+06
5.33671e+06
5.22103e+06
5.11049e+06
5.00493e+06
4.90615e+06
4.82622e+06
4.7454e+06
4.6515e+06
4.56205e+06
4.47663e+06
4.39518e+06
4.33028e+06
4.28632e+06
4.24059e+06
4.19312e+06
4.14398e+06
4.09305e+06
4.04056e+06
3.9968e+06
3.95291e+06
3.8978e+06
3.84038e+06
3.78147e+06
3.72099e+06
3.65922e+06
3.59629e+06
3.53925e+06
3.50383e+06
3.47019e+06
3.47841e+06
3.4909e+06
3.50634e+06
3.52382e+06
3.54371e+06
3.56605e+06
3.58687e+06
3.62202e+06
3.69816e+06
3.73259e+06
3.76788e+06
3.8039e+06
3.79948e+06
3.78233e+06
3.76542e+06
3.74886e+06
3.73261e+06
3.71669e+06
3.70111e+06
3.68586e+06
3.67094e+06
3.65629e+06
3.6419e+06
3.62779e+06
3.614e+06
3.60248e+06
3.59257e+06
3.58282e+06
3.57327e+06
3.56392e+06
3.55474e+06
3.54577e+06
3.53711e+06
3.52916e+06
3.52118e+06
3.51277e+06
3.50453e+06
3.49647e+06
3.48859e+06
3.48084e+06
3.47315e+06
3.52047e+06
3.56669e+06
3.60642e+06
3.6556e+06
3.67658e+06
3.66332e+06
3.65017e+06
3.63712e+06
3.62414e+06
3.61131e+06
3.59844e+06
3.5859e+06
3.5731e+06
4.02685e+06
1.95283e+07
2.02724e+07
2.19197e+07
2.34679e+07
2.22844e+07
1.67013e+07
1.17899e+07
7.83628e+06
6.99055e+06
6.8053e+06
6.65257e+06
6.50743e+06
6.36911e+06
6.23766e+06
6.11217e+06
5.99262e+06
5.87872e+06
5.77005e+06
5.66632e+06
5.56726e+06
5.4727e+06
5.37951e+06
5.2691e+06
5.16709e+06
5.07328e+06
4.9871e+06
4.90827e+06
4.83636e+06
4.77121e+06
4.71256e+06
4.6599e+06
4.61314e+06
4.57173e+06
4.53576e+06
4.50464e+06
4.45597e+06
4.40812e+06
4.36195e+06
4.3176e+06
4.27495e+06
4.23386e+06
4.19426e+06
4.15628e+06
4.11944e+06
4.08392e+06
4.0499e+06
4.01652e+06
3.98441e+06
3.95347e+06
3.923e+06
3.89373e+06
3.86544e+06
3.78733e+06
3.86542e+06
3.84964e+06
3.8314e+06
3.81348e+06
3.79588e+06
3.77867e+06
3.76179e+06
3.74526e+06
3.72906e+06
3.71318e+06
3.69756e+06
3.68226e+06
3.66727e+06
3.65261e+06
3.6383e+06
3.62427e+06
3.61048e+06
3.59693e+06
3.58366e+06
3.57063e+06
3.55783e+06
3.54527e+06
3.53294e+06
3.52086e+06
3.50905e+06
3.49816e+06
3.48974e+06
3.48143e+06
3.47321e+06
3.46508e+06
3.45705e+06
3.51357e+06
3.55912e+06
3.6027e+06
3.65821e+06
3.67035e+06
3.65948e+06
3.64843e+06
4.40803e+06
5.42362e+06
6.4485e+06
7.47115e+06
8.4913e+06
9.4351e+06
1.02504e+07
1.10427e+07
1.27128e+07
1.92271e+07
2.00218e+07
2.03478e+07
2.15479e+07
2.29307e+07
2.41769e+07
2.10815e+07
1.608e+07
1.2151e+07
8.60768e+06
6.81058e+06
6.5184e+06
6.37868e+06
6.24589e+06
6.1195e+06
5.99907e+06
5.88413e+06
5.77441e+06
5.66965e+06
5.56959e+06
5.47409e+06
5.38281e+06
5.29565e+06
5.21229e+06
5.13268e+06
5.0564e+06
4.98334e+06
4.91335e+06
4.84633e+06
4.7822e+06
4.72056e+06
4.66151e+06
4.60481e+06
4.55032e+06
4.49801e+06
4.44753e+06
4.39918e+06
4.35266e+06
4.30781e+06
4.26468e+06
4.22334e+06
4.18331e+06
4.14478e+06
4.10787e+06
4.07181e+06
4.03727e+06
4.00398e+06
3.97131e+06
3.93989e+06
3.90942e+06
3.8796e+06
3.85095e+06
3.76885e+06
3.85886e+06
3.8456e+06
3.82727e+06
3.80935e+06
3.79177e+06
3.77452e+06
3.7576e+06
3.74102e+06
3.72479e+06
3.70892e+06
3.69331e+06
3.678e+06
3.66298e+06
3.64829e+06
3.63391e+06
3.61985e+06
3.60607e+06
3.59254e+06
3.57928e+06
3.5663e+06
3.55359e+06
3.54109e+06
3.52878e+06
3.51665e+06
3.50472e+06
3.49299e+06
3.48147e+06
3.47016e+06
3.45975e+06
3.96549e+06
4.86894e+06
5.94754e+06
7.03663e+06
8.06741e+06
9.0829e+06
9.94891e+06
1.07627e+07
1.15806e+07
1.25711e+07
1.34402e+07
1.42323e+07
1.50195e+07
1.57857e+07
1.65217e+07
1.72782e+07
1.8105e+07
1.85845e+07
1.66161e+07
1.95867e+07
2.02375e+07
2.05426e+07
2.10938e+07
2.22833e+07
2.34187e+07
2.44345e+07
2.16595e+07
1.74677e+07
1.38649e+07
1.09114e+07
7.99131e+06
6.34003e+06
6.12604e+06
6.0043e+06
5.88821e+06
5.77758e+06
5.67198e+06
5.57109e+06
5.47477e+06
5.38273e+06
5.29482e+06
5.2107e+06
5.13032e+06
5.05335e+06
4.97963e+06
4.90902e+06
4.84133e+06
4.77651e+06
4.7143e+06
4.65459e+06
4.59747e+06
4.54239e+06
4.48957e+06
4.43873e+06
4.38979e+06
4.34277e+06
4.29761e+06
4.25397e+06
4.21216e+06
4.17209e+06
4.13296e+06
4.09555e+06
4.05949e+06
4.02429e+06
3.99059e+06
3.95792e+06
3.92594e+06
3.89523e+06
3.86539e+06
3.83622e+06
3.76382e+06
3.85356e+06
3.84102e+06
3.82264e+06
3.80461e+06
3.78701e+06
3.76978e+06
3.75289e+06
3.73633e+06
3.72004e+06
3.70409e+06
3.68847e+06
3.6732e+06
3.65819e+06
3.6435e+06
3.62908e+06
3.61494e+06
3.60106e+06
3.58745e+06
3.57409e+06
3.56098e+06
4.3057e+06
5.09114e+06
6.0084e+06
6.95865e+06
7.9126e+06
8.86914e+06
9.73549e+06
1.06079e+07
1.14607e+07
1.2418e+07
1.34017e+07
1.42333e+07
1.50148e+07
1.57952e+07
1.65403e+07
1.72791e+07
1.80476e+07
1.8823e+07
1.90543e+07
1.90546e+07
1.90458e+07
1.90374e+07
1.90285e+07
1.9091e+07
1.92887e+07
1.95279e+07
1.9857e+07
1.51566e+07
1.71498e+07
1.95644e+07
2.04483e+07
2.07349e+07
2.09946e+07
2.15788e+07
2.25514e+07
2.34743e+07
2.43198e+07
2.32686e+07
2.05418e+07
1.73282e+07
1.4558e+07
1.22531e+07
9.8934e+06
7.75054e+06
5.88186e+06
5.67379e+06
5.57206e+06
5.47487e+06
5.38196e+06
5.29317e+06
5.20826e+06
5.12715e+06
5.04952e+06
4.97514e+06
4.90386e+06
4.83561e+06
4.77012e+06
4.70745e+06
4.6471e+06
4.58946e+06
4.53399e+06
4.48058e+06
4.42928e+06
4.37999e+06
4.33241e+06
4.28683e+06
4.24306e+06
4.20053e+06
4.16005e+06
4.12094e+06
4.08283e+06
4.04648e+06
4.01127e+06
3.97689e+06
3.94388e+06
3.91179e+06
3.88062e+06
3.85058e+06
3.82131e+06
3.76199e+06
3.84995e+06
3.8358e+06
3.81745e+06
3.79941e+06
3.78171e+06
3.76442e+06
3.7475e+06
3.73093e+06
3.71466e+06
4.19242e+06
4.88612e+06
5.591e+06
6.41939e+06
7.28224e+06
8.15414e+06
9.03407e+06
9.921e+06
1.06405e+07
1.13524e+07
1.20659e+07
1.28767e+07
1.36249e+07
1.43769e+07
1.51065e+07
1.58393e+07
1.66613e+07
1.74851e+07
1.83229e+07
1.91573e+07
1.94587e+07
1.95633e+07
1.95521e+07
1.95409e+07
1.95298e+07
1.95187e+07
1.96556e+07
1.98426e+07
2.00711e+07
2.0311e+07
2.01668e+07
1.98054e+07
1.94481e+07
1.90939e+07
1.87453e+07
1.83968e+07
1.8006e+07
1.75116e+07
1.64765e+07
1.62448e+07
1.79598e+07
1.94384e+07
2.06531e+07
2.09189e+07
2.11599e+07
2.13776e+07
2.16481e+07
2.24481e+07
2.31817e+07
2.3862e+07
2.44846e+07
2.3926e+07
2.18017e+07
1.97356e+07
1.76575e+07
1.56577e+07
1.40632e+07
1.2394e+07
1.08546e+07
9.4629e+06
8.21199e+06
7.09564e+06
6.10815e+06
5.34937e+06
4.96986e+06
4.89791e+06
4.82916e+06
4.76301e+06
4.69984e+06
4.63908e+06
4.58083e+06
4.52495e+06
4.47113e+06
4.41922e+06
4.36954e+06
4.32181e+06
4.27555e+06
4.23147e+06
4.18885e+06
4.14761e+06
4.10828e+06
4.07004e+06
4.03297e+06
3.9976e+06
3.96315e+06
4.11752e+06
4.52005e+06
4.95107e+06
5.40832e+06
5.89005e+06
6.45018e+06
7.18851e+06
7.87936e+06
8.55762e+06
9.25474e+06
9.96931e+06
1.07002e+07
1.13261e+07
1.19221e+07
1.25252e+07
1.31912e+07
1.38434e+07
1.44944e+07
1.51583e+07
1.58125e+07
1.64695e+07
1.71326e+07
1.77762e+07
1.84268e+07
1.91039e+07
1.97863e+07
1.96964e+07
1.95898e+07
1.96105e+07
1.97162e+07
1.98328e+07
1.96568e+07
1.92731e+07
1.88859e+07
1.85024e+07
1.81617e+07
1.78448e+07
1.74887e+07
1.71245e+07
1.6764e+07
1.64074e+07
1.60546e+07
1.57057e+07
1.53606e+07
1.4619e+07
1.3733e+07
1.29349e+07
1.21792e+07
1.14296e+07
1.04832e+07
9.4628e+06
8.42429e+06
7.23599e+06
1.69098e+07
1.72435e+07
1.72478e+07
1.85262e+07
2.02397e+07
2.07776e+07
2.10926e+07
2.13139e+07
2.15133e+07
2.16914e+07
2.185e+07
2.20111e+07
2.26079e+07
2.31506e+07
2.36429e+07
2.4086e+07
2.4484e+07
2.48405e+07
2.33971e+07
2.1958e+07
2.06414e+07
1.94409e+07
1.83501e+07
1.73633e+07
1.64802e+07
1.56565e+07
1.4922e+07
1.42551e+07
1.36326e+07
1.30971e+07
1.26446e+07
1.22707e+07
1.19706e+07
1.17409e+07
1.15774e+07
1.14768e+07
1.14355e+07
1.14508e+07
1.15196e+07
1.16388e+07
1.18067e+07
1.20195e+07
1.22752e+07
1.25682e+07
1.282e+07
1.31026e+07
1.34331e+07
1.3826e+07
1.423e+07
1.46228e+07
1.50379e+07
1.54843e+07
1.59575e+07
1.64382e+07
1.68754e+07
1.73698e+07
1.78827e+07
1.84097e+07
1.89369e+07
1.9342e+07
1.96108e+07
1.98944e+07
1.96847e+07
1.92685e+07
1.88534e+07
1.83251e+07
1.78294e+07
1.73401e+07
1.68514e+07
1.63635e+07
1.60498e+07
1.57501e+07
1.54521e+07
1.51583e+07
1.4944e+07
1.4769e+07
1.45457e+07
1.42126e+07
1.37302e+07
1.33229e+07
1.29609e+07
1.26023e+07
1.22473e+07
1.16604e+07
1.08906e+07
1.01267e+07
9.36906e+06
8.61812e+06
7.87444e+06
6.92557e+06
5.90084e+06
4.85791e+06
4.17245e+06
3.73043e+06
3.29585e+06
2.79083e+06
2.30288e+06
1.87381e+06
1.46643e+06
1.20461e+06
1.68839e+07
1.72425e+07
1.74979e+07
1.81698e+07
1.88831e+07
2.04176e+07
2.17399e+07
2.20445e+07
2.22281e+07
2.17699e+07
2.1797e+07
2.19396e+07
2.2065e+07
2.21745e+07
2.22689e+07
2.23495e+07
2.25892e+07
2.29385e+07
2.32493e+07
2.35242e+07
2.37653e+07
2.39744e+07
2.41535e+07
2.43043e+07
2.44262e+07
2.44012e+07
2.40454e+07
2.3422e+07
2.28744e+07
2.23987e+07
2.19904e+07
2.16465e+07
2.13634e+07
2.11376e+07
2.09658e+07
2.08457e+07
2.07738e+07
2.07475e+07
2.07653e+07
2.08236e+07
2.0921e+07
2.10553e+07
2.12168e+07
2.08883e+07
2.05962e+07
2.03465e+07
2.013e+07
1.97488e+07
1.9144e+07
1.85445e+07
1.79504e+07
1.73616e+07
1.67141e+07
1.59278e+07
1.53605e+07
1.48663e+07
1.44176e+07
1.39747e+07
1.35142e+07
1.31575e+07
1.28583e+07
1.25716e+07
1.22856e+07
1.20006e+07
1.17166e+07
1.14393e+07
1.11649e+07
1.08863e+07
1.06083e+07
1.03319e+07
1.00568e+07
9.78331e+06
9.54009e+06
9.30938e+06
9.06521e+06
8.53142e+06
7.77443e+06
7.02383e+06
6.56593e+06
6.39109e+06
6.21678e+06
6.03388e+06
5.57953e+06
5.08499e+06
4.59917e+06
4.15288e+06
3.71172e+06
3.2773e+06
2.77334e+06
2.28923e+06
1.86105e+06
1.5108e+06
1.25786e+06
1.02791e+06
838647
720978
705131
703736
702187
700686
1.6858e+07
1.72467e+07
1.74984e+07
1.77291e+07
1.79353e+07
1.9178e+07
2.04382e+07
2.17111e+07
2.29149e+07
2.32565e+07
2.3502e+07
2.36337e+07
2.33041e+07
2.30012e+07
2.27235e+07
2.247e+07
2.23714e+07
2.24277e+07
2.24727e+07
2.25072e+07
2.25321e+07
2.25478e+07
2.25551e+07
2.25541e+07
2.25464e+07
2.25905e+07
2.2666e+07
2.27204e+07
2.27541e+07
2.24001e+07
2.18093e+07
2.12106e+07
2.06053e+07
1.99938e+07
1.93768e+07
1.8755e+07
1.81291e+07
1.74994e+07
1.68668e+07
1.62318e+07
1.55945e+07
1.49548e+07
1.42455e+07
1.35837e+07
1.3067e+07
1.25572e+07
1.20537e+07
1.15567e+07
1.10659e+07
1.05814e+07
1.0103e+07
9.63092e+06
9.15873e+06
8.48061e+06
8.20192e+06
7.9466e+06
7.69382e+06
7.43699e+06
7.17993e+06
7.05399e+06
7.08649e+06
7.11932e+06
7.15238e+06
7.18568e+06
7.21914e+06
7.25284e+06
7.22344e+06
7.05648e+06
6.88898e+06
6.72106e+06
6.57624e+06
6.44928e+06
6.32359e+06
6.19045e+06
5.8307e+06
5.35268e+06
4.88448e+06
4.44395e+06
4.0066e+06
3.57363e+06
3.14332e+06
2.63377e+06
2.17449e+06
1.77216e+06
1.50749e+06
1.25652e+06
1.02864e+06
841841
727215
713480
712059
710635
709210
707781
702178
701217
712800
736189
769591
806315
1.68337e+07
1.72565e+07
1.75038e+07
1.77312e+07
1.79337e+07
1.81172e+07
1.84026e+07
1.9574e+07
2.06885e+07
2.23629e+07
2.34917e+07
2.44014e+07
2.46107e+07
2.48055e+07
2.47316e+07
2.42198e+07
2.34994e+07
2.27455e+07
2.20003e+07
2.127e+07
2.0554e+07
1.98519e+07
1.91632e+07
1.84873e+07
1.78237e+07
1.71725e+07
1.65326e+07
1.59047e+07
1.52519e+07
1.46017e+07
1.39899e+07
1.3397e+07
1.28135e+07
1.22393e+07
1.16745e+07
1.11184e+07
1.05713e+07
1.00323e+07
9.50168e+06
8.97937e+06
8.46524e+06
7.95893e+06
7.47058e+06
7.50491e+06
7.53715e+06
7.56754e+06
7.59887e+06
7.63106e+06
7.66408e+06
7.69786e+06
7.73229e+06
7.76734e+06
7.61497e+06
7.46602e+06
7.49237e+06
7.52053e+06
7.47003e+06
7.32256e+06
7.17312e+06
7.02194e+06
6.86921e+06
6.71507e+06
6.55965e+06
6.40311e+06
6.24564e+06
6.08595e+06
5.65367e+06
5.21608e+06
4.81291e+06
4.43167e+06
4.05447e+06
3.67395e+06
3.26518e+06
2.79786e+06
2.33492e+06
1.95082e+06
1.68607e+06
1.43054e+06
1.19018e+06
976043
808907
722869
721500
720120
718732
717337
709945
714240
731247
759860
798598
845843
900044
963785
1.05068e+06
1.13609e+06
1.20445e+06
1.27517e+06
1.34691e+06
1.43555e+06
1.68104e+07
1.72725e+07
1.75141e+07
1.70034e+07
1.63314e+07
1.56576e+07
1.49887e+07
1.43207e+07
1.36557e+07
1.37512e+07
1.38594e+07
1.39158e+07
1.43849e+07
1.48089e+07
1.51243e+07
1.53771e+07
1.51237e+07
1.4578e+07
1.40293e+07
1.34782e+07
1.29253e+07
1.23708e+07
1.1815e+07
1.12586e+07
1.07007e+07
1.0064e+07
9.43616e+06
8.8212e+06
8.21907e+06
7.99731e+06
8.00508e+06
8.01476e+06
8.02637e+06
8.03939e+06
8.05418e+06
8.07092e+06
8.08846e+06
8.10703e+06
8.12768e+06
8.14907e+06
8.17179e+06
8.1953e+06
8.15253e+06
8.07802e+06
7.9781e+06
7.87288e+06
7.76269e+06
7.64799e+06
7.52897e+06
7.40597e+06
7.27928e+06
7.04326e+06
6.67237e+06
6.52188e+06
6.38792e+06
6.24702e+06
5.97781e+06
5.60078e+06
5.22918e+06
4.85392e+06
4.47566e+06
4.09509e+06
3.71315e+06
3.33099e+06
2.95021e+06
2.51636e+06
2.12852e+06
1.90905e+06
1.69162e+06
1.47947e+06
1.25583e+06
1.0415e+06
863604
749115
730380
729079