# Time dispX dispY dispZ forceX forceY forceZ
0 0 0 0 0 0 0
1 1.0668e-06 -8.20713e-08 1.00757e-20 100000 -0.00225473 1.20605e-12
