# Time Dx Dy Dz magD
1 0 -3.41343e-07 -4.7925e-23 3.41343e-07
