/*--------------------------------*- C++ -*----------------------------------*\
| =========                 |                                                 |
| \\      /  F ield         | foam-extend: Open Source CFD                    |
|  \\    /   O peration     | Version:     4.1                                |
|   \\  /    A nd           | Web:         http://www.foam-extend.org         |
|    \\/     M anipulation  |                                                 |
\*---------------------------------------------------------------------------*/
FoamFile
{
    version     2.0;
    format      ascii;
    class       volVectorField;
    location    "1";
    object      D_predicted;
}
// * * * * * * * * * * * * * * * * * * * * * * * * * * * * * * * * * * * * * //

dimensions      [0 1 0 0 0 0 0];

internalField   nonuniform List<vector> 
100000
(
(5.73205e-07 -2.34035e-07 -0.000626307)
(5.69754e-07 -2.31558e-07 0.00328178)
(5.65579e-07 -2.28922e-07 0.00488693)
(5.60528e-07 -2.25909e-07 0.00646142)
(5.56194e-07 -2.22938e-07 0.00701806)
(5.52605e-07 -2.20332e-07 0.00585189)
(5.49195e-07 -2.18007e-07 0.00459)
(5.4578e-07 -2.16049e-07 0.00252465)
(5.42795e-07 -2.1414e-07 0.00152373)
(5.39469e-07 -2.12142e-07 -0.000178216)
(5.36341e-07 -2.10166e-07 -0.00135312)
(5.33341e-07 -2.08163e-07 -0.00169489)
(5.30489e-07 -2.06401e-07 -0.00130506)
(5.27765e-07 -2.04698e-07 -0.000917621)
(5.25205e-07 -2.03057e-07 -0.000495782)
(5.22773e-07 -2.01466e-07 -0.000205666)
(5.20465e-07 -1.9996e-07 1.81181e-05)
(5.18292e-07 -1.98545e-07 0.000124316)
(5.16241e-07 -1.9721e-07 0.000184285)
(5.14298e-07 -1.95953e-07 0.00024445)
(5.1246e-07 -1.94757e-07 0.000304206)
(5.1069e-07 -1.93599e-07 0.000464254)
(5.08989e-07 -1.92479e-07 0.000679067)
(5.07544e-07 -1.91418e-07 0.000328416)
(5.06168e-07 -1.90386e-07 -1.84068e-05)
(5.04827e-07 -1.89413e-07 -0.000347275)
(5.0354e-07 -1.88486e-07 -0.000743051)
(5.02303e-07 -1.87615e-07 -0.00119128)
(5.01194e-07 -1.86832e-07 -0.00150818)
(5.00107e-07 -1.86143e-07 -0.00173011)
(4.99078e-07 -1.85496e-07 -0.00193931)
(4.98111e-07 -1.84895e-07 -0.00213981)
(4.97197e-07 -1.84341e-07 -0.00233226)
(4.96366e-07 -1.83862e-07 -0.0026435)
(4.95584e-07 -1.83429e-07 -0.0029752)
(4.94855e-07 -1.83034e-07 -0.00329314)
(4.94165e-07 -1.82671e-07 -0.00353451)
(4.93523e-07 -1.82344e-07 -0.00375042)
(4.9293e-07 -1.82048e-07 -0.00395539)
(4.92382e-07 -1.81783e-07 -0.00415865)
(4.91867e-07 -1.81554e-07 -0.00432234)
(4.91393e-07 -1.81354e-07 -0.00446629)
(4.90968e-07 -1.8118e-07 -0.00460258)
(4.9059e-07 -1.81043e-07 -0.00470621)
(4.90255e-07 -1.80935e-07 -0.00479572)
(4.8996e-07 -1.80854e-07 -0.0048792)
(4.89705e-07 -1.80798e-07 -0.00495694)
(4.89478e-07 -1.80755e-07 -0.00498862)
(4.89281e-07 -1.80729e-07 -0.00498914)
(4.89118e-07 -1.80726e-07 -0.00498702)
(4.88998e-07 -1.80755e-07 -0.00499914)
(4.88914e-07 -1.80812e-07 -0.00501866)
(4.88859e-07 -1.8089e-07 -0.0050348)
(4.8883e-07 -1.8099e-07 -0.00504776)
(4.8885e-07 -1.81122e-07 -0.00504355)
(4.88909e-07 -1.8128e-07 -0.00502792)
(4.88994e-07 -1.81454e-07 -0.00501034)
(4.89103e-07 -1.81643e-07 -0.00499087)
(4.89237e-07 -1.81846e-07 -0.00496947)
(4.89395e-07 -1.82058e-07 -0.0049238)
(4.89576e-07 -1.8228e-07 -0.00486136)
(4.89779e-07 -1.82514e-07 -0.00479804)
(4.90003e-07 -1.8276e-07 -0.00473371)
(4.90248e-07 -1.83016e-07 -0.0046684)
(4.90514e-07 -1.83284e-07 -0.00460506)
(4.90799e-07 -1.83561e-07 -0.00454201)
(4.91102e-07 -1.83848e-07 -0.00447816)
(4.91433e-07 -1.84144e-07 -0.00443076)
(4.91783e-07 -1.84451e-07 -0.00438246)
(4.92147e-07 -1.84775e-07 -0.00432488)
(4.92528e-07 -1.85106e-07 -0.0042664)
(4.92926e-07 -1.85446e-07 -0.00420215)
(4.93339e-07 -1.85791e-07 -0.00412384)
(4.93771e-07 -1.86142e-07 -0.00404467)
(4.9422e-07 -1.86498e-07 -0.0039648)
(4.94686e-07 -1.86861e-07 -0.00388414)
(4.95166e-07 -1.87227e-07 -0.00380118)
(4.95663e-07 -1.87599e-07 -0.00371743)
(4.96176e-07 -1.87975e-07 -0.00363286)
(4.96705e-07 -1.88354e-07 -0.0035476)
(4.97247e-07 -1.88741e-07 -0.00346628)
(4.97805e-07 -1.89131e-07 -0.00338476)
(4.98376e-07 -1.89524e-07 -0.00330275)
(4.9896e-07 -1.8992e-07 -0.00322042)
(4.99557e-07 -1.90319e-07 -0.00313787)
(5.00166e-07 -1.9072e-07 -0.00305517)
(5.00787e-07 -1.91123e-07 -0.00297231)
(5.01417e-07 -1.91531e-07 -0.00288928)
(5.02078e-07 -1.91956e-07 -0.00278782)
(5.02745e-07 -1.92392e-07 -0.00267294)
(5.03421e-07 -1.9283e-07 -0.00255792)
(5.04138e-07 -1.93265e-07 -0.00252301)
(5.04861e-07 -1.937e-07 -0.00248679)
(5.05592e-07 -1.94133e-07 -0.00244946)
(5.0633e-07 -1.94565e-07 -0.00241025)
(5.07071e-07 -1.95e-07 -0.00236603)
(5.07832e-07 -1.95429e-07 -0.00231657)
(5.08581e-07 -1.9585e-07 -0.00226197)
(5.09354e-07 -1.96279e-07 -0.00223308)
(5.10205e-07 -1.96665e-07 -0.00230779)
(5.68041e-07 -2.36523e-07 -0.000252071)
(5.64322e-07 -2.34134e-07 0.00376913)
(5.60162e-07 -2.31611e-07 0.0067262)
(5.55279e-07 -2.28591e-07 0.00701209)
(5.51148e-07 -2.25603e-07 0.00606033)
(5.47487e-07 -2.23001e-07 0.00501899)
(5.43945e-07 -2.20735e-07 0.00397537)
(5.40625e-07 -2.18523e-07 0.00325685)
(5.376e-07 -2.16662e-07 0.0023115)
(5.34215e-07 -2.1468e-07 0.000753419)
(5.31052e-07 -2.12801e-07 -0.000801499)
(5.28023e-07 -2.10872e-07 -0.00146506)
(5.25141e-07 -2.09117e-07 -0.0011728)
(5.22396e-07 -2.07456e-07 -0.000788613)
(5.19761e-07 -2.0588e-07 -0.000415913)
(5.17249e-07 -2.04384e-07 -3.35266e-05)
(5.1486e-07 -2.02974e-07 0.000333362)
(5.12581e-07 -2.01649e-07 0.000669829)
(5.10498e-07 -2.00385e-07 0.000861485)
(5.08516e-07 -1.99153e-07 0.000926158)
(5.06633e-07 -1.97966e-07 0.000990375)
(5.0497e-07 -1.96825e-07 0.000687558)
(5.03439e-07 -1.95723e-07 0.000281526)
(5.01959e-07 -1.94665e-07 -7.59849e-05)
(5.00526e-07 -1.93659e-07 -0.000412225)
(4.99166e-07 -1.92706e-07 -0.000739431)
(4.97868e-07 -1.91807e-07 -0.00105531)
(4.96622e-07 -1.90954e-07 -0.00148972)
(4.95463e-07 -1.9018e-07 -0.00180263)
(4.94354e-07 -1.89476e-07 -0.00198801)
(4.93291e-07 -1.88852e-07 -0.00211705)
(4.92293e-07 -1.88272e-07 -0.0022404)
(4.91356e-07 -1.8774e-07 -0.00235895)
(4.90478e-07 -1.87257e-07 -0.00248861)
(4.89693e-07 -1.86852e-07 -0.00275056)
(4.88948e-07 -1.86489e-07 -0.00298469)
(4.8825e-07 -1.86163e-07 -0.0031897)
(4.87597e-07 -1.85872e-07 -0.00336155)
(4.86985e-07 -1.85616e-07 -0.00349561)
(4.86419e-07 -1.85389e-07 -0.00361188)
(4.85896e-07 -1.85193e-07 -0.00373845)
(4.85417e-07 -1.85025e-07 -0.00386415)
(4.84982e-07 -1.84886e-07 -0.00396802)
(4.84553e-07 -1.84752e-07 -0.00408425)
(4.84168e-07 -1.84644e-07 -0.00419343)
(4.83824e-07 -1.84562e-07 -0.00429582)
(4.83519e-07 -1.84505e-07 -0.0043917)
(4.83251e-07 -1.84473e-07 -0.0044812)
(4.83019e-07 -1.84462e-07 -0.00456472)
(4.82822e-07 -1.84472e-07 -0.00464254)
(4.82666e-07 -1.84511e-07 -0.00472561)
(4.82548e-07 -1.8458e-07 -0.00481252)
(4.82449e-07 -1.84657e-07 -0.00484939)
(4.82375e-07 -1.84753e-07 -0.00487518)
(4.82362e-07 -1.84889e-07 -0.00487623)
(4.82384e-07 -1.85046e-07 -0.00486994)
(4.82432e-07 -1.85217e-07 -0.0048611)
(4.82506e-07 -1.85403e-07 -0.00484987)
(4.82621e-07 -1.85608e-07 -0.00478976)
(4.82761e-07 -1.85824e-07 -0.00472697)
(4.82925e-07 -1.86051e-07 -0.00466317)
(4.83112e-07 -1.8629e-07 -0.00459846)
(4.83321e-07 -1.86541e-07 -0.00453274)
(4.83552e-07 -1.86803e-07 -0.00446598)
(4.83803e-07 -1.87074e-07 -0.00439996)
(4.84074e-07 -1.87355e-07 -0.00433535)
(4.84377e-07 -1.87645e-07 -0.00428988)
(4.84698e-07 -1.87943e-07 -0.00424592)
(4.85038e-07 -1.88245e-07 -0.00420071)
(4.85398e-07 -1.88564e-07 -0.00416581)
(4.85806e-07 -1.88889e-07 -0.00420796)
(4.86229e-07 -1.8922e-07 -0.00424723)
(4.8667e-07 -1.89555e-07 -0.00427858)
(4.8713e-07 -1.89896e-07 -0.00430847)
(4.87609e-07 -1.90242e-07 -0.00433711)
(4.88104e-07 -1.90591e-07 -0.00431742)
(4.88632e-07 -1.90942e-07 -0.00418239)
(4.89177e-07 -1.91295e-07 -0.00404718)
(4.89737e-07 -1.9165e-07 -0.00391179)
(4.90313e-07 -1.92007e-07 -0.00377625)
(4.90903e-07 -1.92369e-07 -0.00364068)
(4.91507e-07 -1.92734e-07 -0.00350518)
(4.92125e-07 -1.93103e-07 -0.00336948)
(4.92756e-07 -1.93475e-07 -0.00323359)
(4.93398e-07 -1.9385e-07 -0.00309765)
(4.94052e-07 -1.94228e-07 -0.00296148)
(4.94716e-07 -1.94609e-07 -0.00282503)
(4.95391e-07 -1.94993e-07 -0.00268815)
(4.96072e-07 -1.95384e-07 -0.002555)
(4.96785e-07 -1.95799e-07 -0.00253249)
(4.97495e-07 -1.9622e-07 -0.00249324)
(4.98214e-07 -1.96643e-07 -0.00245441)
(4.98939e-07 -1.97065e-07 -0.00241918)
(4.99668e-07 -1.97485e-07 -0.00238846)
(5.00403e-07 -1.97902e-07 -0.00236373)
(5.01141e-07 -1.9832e-07 -0.00233588)
(5.01881e-07 -1.98746e-07 -0.0023133)
(5.02581e-07 -1.99198e-07 -0.00232717)
(5.03331e-07 -1.99637e-07 -0.00238502)
(5.04094e-07 -2.00082e-07 -0.00254324)
(5.62384e-07 -2.38977e-07 -0.000447173)
(5.58788e-07 -2.36678e-07 0.00413701)
(5.54941e-07 -2.34167e-07 0.00627389)
(5.50287e-07 -2.312e-07 0.00582507)
(5.46058e-07 -2.28294e-07 0.00486045)
(5.42263e-07 -2.25708e-07 0.00382354)
(5.38766e-07 -2.23458e-07 0.00338312)
(5.35497e-07 -2.21156e-07 0.00360236)
(5.32395e-07 -2.19183e-07 0.00314436)
(5.28958e-07 -2.17213e-07 0.0016897)
(5.25739e-07 -2.15363e-07 0.000146947)
(5.22684e-07 -2.13584e-07 -0.00118323)
(5.19747e-07 -2.11826e-07 -0.0010382)
(5.16969e-07 -2.10203e-07 -0.000655656)
(5.14312e-07 -2.08661e-07 -0.000286675)
(5.11777e-07 -2.07199e-07 9.24237e-05)
(5.09368e-07 -2.05823e-07 0.000458038)
(5.07071e-07 -2.04527e-07 0.000811216)
(5.0487e-07 -2.033e-07 0.00112393)
(5.02899e-07 -2.0214e-07 0.00102987)
(5.01119e-07 -2.01032e-07 0.000619113)
(4.9943e-07 -1.99956e-07 0.000239041)
(4.97774e-07 -1.9892e-07 -4.16261e-05)
(4.96216e-07 -1.97908e-07 -0.000404817)
(4.94759e-07 -1.96938e-07 -0.000707635)
(4.93382e-07 -1.96003e-07 -0.000975374)
(4.92085e-07 -1.95119e-07 -0.00122265)
(4.90816e-07 -1.94303e-07 -0.00139757)
(4.89621e-07 -1.93545e-07 -0.00164748)
(4.88516e-07 -1.9286e-07 -0.00184769)
(4.87461e-07 -1.92241e-07 -0.00203042)
(4.86465e-07 -1.91691e-07 -0.00219162)
(4.85529e-07 -1.91188e-07 -0.00234238)
(4.84635e-07 -1.90732e-07 -0.00245756)
(4.83765e-07 -1.9031e-07 -0.00263663)
(4.82952e-07 -1.89952e-07 -0.00286431)
(4.8218e-07 -1.89633e-07 -0.00304412)
(4.81461e-07 -1.89346e-07 -0.00321505)
(4.8079e-07 -1.89089e-07 -0.00337311)
(4.80167e-07 -1.88861e-07 -0.00351398)
(4.79592e-07 -1.88661e-07 -0.00364748)
(4.7906e-07 -1.88495e-07 -0.00377377)
(4.78582e-07 -1.88359e-07 -0.00390805)
(4.78155e-07 -1.88248e-07 -0.0040492)
(4.77774e-07 -1.8816e-07 -0.00418637)
(4.77434e-07 -1.88094e-07 -0.00431946)
(4.77134e-07 -1.8805e-07 -0.00444862)
(4.76871e-07 -1.88026e-07 -0.00457386)
(4.76644e-07 -1.88022e-07 -0.00469558)
(4.76452e-07 -1.88038e-07 -0.0048138)
(4.76302e-07 -1.8808e-07 -0.00493939)
(4.76193e-07 -1.88151e-07 -0.00507644)
(4.76128e-07 -1.88237e-07 -0.00510248)
(4.76101e-07 -1.88336e-07 -0.0050272)
(4.76143e-07 -1.88473e-07 -0.00494901)
(4.76209e-07 -1.88625e-07 -0.00486895)
(4.76307e-07 -1.88791e-07 -0.00478514)
(4.76446e-07 -1.88974e-07 -0.00469256)
(4.76611e-07 -1.89168e-07 -0.00459894)
(4.76801e-07 -1.89371e-07 -0.00450464)
(4.77011e-07 -1.89579e-07 -0.00437584)
(4.77242e-07 -1.89796e-07 -0.004239)
(4.77495e-07 -1.90025e-07 -0.00410263)
(4.77769e-07 -1.90264e-07 -0.00396675)
(4.78063e-07 -1.90514e-07 -0.00383169)
(4.78389e-07 -1.90773e-07 -0.00372227)
(4.78735e-07 -1.91042e-07 -0.0036151)
(4.79101e-07 -1.91319e-07 -0.00350784)
(4.79485e-07 -1.91603e-07 -0.00340032)
(4.79888e-07 -1.91897e-07 -0.00329318)
(4.80318e-07 -1.92204e-07 -0.00319551)
(4.80762e-07 -1.92517e-07 -0.00310643)
(4.81225e-07 -1.92831e-07 -0.00303291)
(4.81704e-07 -1.93151e-07 -0.00295958)
(4.82197e-07 -1.93476e-07 -0.00287863)
(4.82703e-07 -1.93807e-07 -0.00279427)
(4.83223e-07 -1.94147e-07 -0.0027074)
(4.83741e-07 -1.94509e-07 -0.00261017)
(4.84276e-07 -1.94874e-07 -0.00251269)
(4.84825e-07 -1.95245e-07 -0.00241501)
(4.85387e-07 -1.95622e-07 -0.00231713)
(4.85963e-07 -1.96003e-07 -0.00221888)
(4.86551e-07 -1.96388e-07 -0.00212007)
(4.87151e-07 -1.96777e-07 -0.0020206)
(4.87761e-07 -1.9717e-07 -0.00192048)
(4.88383e-07 -1.97567e-07 -0.00182941)
(4.89014e-07 -1.97969e-07 -0.00174)
(4.89654e-07 -1.98374e-07 -0.00164982)
(4.90302e-07 -1.98784e-07 -0.00155883)
(4.90961e-07 -1.99203e-07 -0.00149835)
(4.91643e-07 -1.99642e-07 -0.0015259)
(4.92333e-07 -2.00083e-07 -0.0015535)
(4.93021e-07 -2.00529e-07 -0.00154935)
(4.93715e-07 -2.00975e-07 -0.00154852)
(4.94412e-07 -2.01418e-07 -0.00155114)
(4.9511e-07 -2.01863e-07 -0.00155771)
(4.95811e-07 -2.02295e-07 -0.00157878)
(4.96495e-07 -2.02735e-07 -0.00160139)
(4.9723e-07 -2.0315e-07 -0.00165303)
(4.97943e-07 -2.0355e-07 -0.00171897)
(5.56862e-07 -2.41054e-07 -0.0034758)
(5.53746e-07 -2.38976e-07 0.0020043)
(5.49794e-07 -2.36579e-07 0.00385642)
(5.45168e-07 -2.33705e-07 0.00404714)
(5.40845e-07 -2.30896e-07 0.00348103)
(5.36953e-07 -2.28344e-07 0.00280228)
(5.33585e-07 -2.26122e-07 0.003071)
(5.30259e-07 -2.23911e-07 0.00343411)
(5.27075e-07 -2.21718e-07 0.00355298)
(5.23603e-07 -2.19708e-07 0.0023872)
(5.20344e-07 -2.17879e-07 0.000876056)
(5.17266e-07 -2.16137e-07 -0.000511449)
(5.14345e-07 -2.14497e-07 -0.00117551)
(5.11547e-07 -2.12887e-07 -0.000774092)
(5.08882e-07 -2.1137e-07 -0.000439268)
(5.06341e-07 -2.09939e-07 -0.000127822)
(5.03913e-07 -2.08577e-07 0.000202152)
(5.01597e-07 -2.07272e-07 0.000542696)
(4.99602e-07 -2.06045e-07 0.000203554)
(4.97702e-07 -2.04874e-07 -0.000148745)
(4.95899e-07 -2.03759e-07 -0.000549306)
(4.94171e-07 -2.02703e-07 -0.000952161)
(4.92526e-07 -2.01706e-07 -0.00128647)
(4.90968e-07 -2.00766e-07 -0.00160316)
(4.89484e-07 -1.99882e-07 -0.00191153)
(4.88061e-07 -1.9904e-07 -0.00219845)
(4.86651e-07 -1.98193e-07 -0.00242829)
(4.85281e-07 -1.97415e-07 -0.00251913)
(4.83985e-07 -1.96687e-07 -0.00271657)
(4.82819e-07 -1.96017e-07 -0.00295583)
(4.817e-07 -1.95403e-07 -0.00318918)
(4.80655e-07 -1.94842e-07 -0.0034498)
(4.79678e-07 -1.94338e-07 -0.00372375)
(4.78768e-07 -1.93879e-07 -0.0039669)
(4.77909e-07 -1.93463e-07 -0.00417245)
(4.77131e-07 -1.93104e-07 -0.00419484)
(4.76408e-07 -1.92791e-07 -0.00417284)
(4.75737e-07 -1.92509e-07 -0.0041458)
(4.75116e-07 -1.92256e-07 -0.00410713)
(4.74543e-07 -1.92029e-07 -0.00405362)
(4.74018e-07 -1.9183e-07 -0.00400306)
(4.73539e-07 -1.9166e-07 -0.00395907)
(4.73105e-07 -1.91515e-07 -0.00391711)
(4.72716e-07 -1.91391e-07 -0.00388208)
(4.72371e-07 -1.91288e-07 -0.00384624)
(4.72067e-07 -1.91202e-07 -0.0038095)
(4.718e-07 -1.91136e-07 -0.00377216)
(4.7157e-07 -1.91091e-07 -0.00373409)
(4.71376e-07 -1.91066e-07 -0.00369549)
(4.71217e-07 -1.9106e-07 -0.00365627)
(4.71096e-07 -1.91078e-07 -0.00361944)
(4.7102e-07 -1.91128e-07 -0.00358871)
(4.70973e-07 -1.91194e-07 -0.00355718)
(4.70954e-07 -1.91282e-07 -0.00352528)
(4.70996e-07 -1.91404e-07 -0.00349587)
(4.71069e-07 -1.91543e-07 -0.00346328)
(4.71176e-07 -1.91697e-07 -0.00342737)
(4.71308e-07 -1.91863e-07 -0.0033911)
(4.71457e-07 -1.92051e-07 -0.00334641)
(4.71615e-07 -1.92267e-07 -0.00328742)
(4.71796e-07 -1.92495e-07 -0.00322788)
(4.71999e-07 -1.92735e-07 -0.00316806)
(4.72223e-07 -1.92986e-07 -0.00310795)
(4.72466e-07 -1.93249e-07 -0.00304748)
(4.72742e-07 -1.93521e-07 -0.00299877)
(4.73038e-07 -1.93804e-07 -0.00295388)
(4.73355e-07 -1.94096e-07 -0.00291238)
(4.73691e-07 -1.94396e-07 -0.0028702)
(4.74046e-07 -1.94705e-07 -0.00282736)
(4.7442e-07 -1.95022e-07 -0.00278388)
(4.74815e-07 -1.95357e-07 -0.00272944)
(4.75227e-07 -1.95702e-07 -0.00267067)
(4.75654e-07 -1.96053e-07 -0.00259805)
(4.76093e-07 -1.96408e-07 -0.00252314)
(4.76545e-07 -1.96768e-07 -0.00244632)
(4.77013e-07 -1.97132e-07 -0.00236922)
(4.77498e-07 -1.97499e-07 -0.00229175)
(4.78002e-07 -1.97869e-07 -0.00221388)
(4.78523e-07 -1.98243e-07 -0.00212458)
(4.79059e-07 -1.9862e-07 -0.00202325)
(4.79611e-07 -1.99003e-07 -0.00193285)
(4.80177e-07 -1.99391e-07 -0.00184235)
(4.80756e-07 -1.99783e-07 -0.00175126)
(4.81346e-07 -2.00179e-07 -0.00165964)
(4.81947e-07 -2.00578e-07 -0.00156752)
(4.82558e-07 -2.00982e-07 -0.00147486)
(4.83177e-07 -2.01389e-07 -0.00138152)
(4.83805e-07 -2.018e-07 -0.00128734)
(4.84441e-07 -2.02214e-07 -0.00119224)
(4.85084e-07 -2.02631e-07 -0.00109633)
(4.8574e-07 -2.0306e-07 -0.00104898)
(4.86415e-07 -2.03503e-07 -0.00107307)
(4.87095e-07 -2.03945e-07 -0.00109861)
(4.87782e-07 -2.04385e-07 -0.00112594)
(4.88463e-07 -2.04825e-07 -0.00112639)
(4.89139e-07 -2.05267e-07 -0.00114158)
(4.89822e-07 -2.05696e-07 -0.00117153)
(4.90491e-07 -2.06137e-07 -0.00118864)
(4.91207e-07 -2.06559e-07 -0.00122807)
(4.91885e-07 -2.0695e-07 -0.00125894)
(5.52127e-07 -2.42821e-07 -0.00841199)
(5.48999e-07 -2.40891e-07 -0.00226043)
(5.4498e-07 -2.3869e-07 9.29405e-05)
(5.40278e-07 -2.35928e-07 0.00020395)
(5.36138e-07 -2.33181e-07 0.00128763)
(5.32333e-07 -2.30636e-07 0.00152021)
(5.2883e-07 -2.28495e-07 0.00136037)
(5.25451e-07 -2.26371e-07 0.00169906)
(5.22199e-07 -2.24224e-07 0.00179907)
(5.18656e-07 -2.21902e-07 0.00163366)
(5.15377e-07 -2.2009e-07 0.000157331)
(5.12261e-07 -2.18405e-07 -0.00114119)
(5.09302e-07 -2.16869e-07 -0.00194806)
(5.0648e-07 -2.15363e-07 -0.00216154)
(5.03756e-07 -2.13852e-07 -0.00171806)
(5.01154e-07 -2.12409e-07 -0.00130163)
(4.98815e-07 -2.11044e-07 -0.00113733)
(4.96725e-07 -2.09756e-07 -0.00135682)
(4.94749e-07 -2.08533e-07 -0.00156698)
(4.92847e-07 -2.07382e-07 -0.00175765)
(4.9105e-07 -2.063e-07 -0.00197095)
(4.89307e-07 -2.05247e-07 -0.0021795)
(4.87616e-07 -2.04231e-07 -0.00237461)
(4.86011e-07 -2.03267e-07 -0.00255936)
(4.84487e-07 -2.02355e-07 -0.00273545)
(4.83035e-07 -2.01496e-07 -0.00290298)
(4.81647e-07 -2.00691e-07 -0.00297565)
(4.80299e-07 -1.99928e-07 -0.00285977)
(4.79015e-07 -1.99223e-07 -0.00278237)
(4.77885e-07 -1.98569e-07 -0.00287765)
(4.76795e-07 -1.97972e-07 -0.00299473)
(4.75769e-07 -1.97418e-07 -0.00310451)
(4.74814e-07 -1.96918e-07 -0.00321498)
(4.73924e-07 -1.96463e-07 -0.00328856)
(4.73087e-07 -1.96039e-07 -0.00334959)
(4.72305e-07 -1.9565e-07 -0.0034053)
(4.71578e-07 -1.95328e-07 -0.00343096)
(4.70903e-07 -1.95044e-07 -0.00344745)
(4.70277e-07 -1.94787e-07 -0.00345221)
(4.69696e-07 -1.94558e-07 -0.00344011)
(4.69157e-07 -1.94363e-07 -0.00341892)
(4.68665e-07 -1.94194e-07 -0.00339598)
(4.68216e-07 -1.94054e-07 -0.0033706)
(4.67806e-07 -1.93939e-07 -0.00333493)
(4.67418e-07 -1.93867e-07 -0.00328075)
(4.67062e-07 -1.93824e-07 -0.00321739)
(4.66745e-07 -1.93803e-07 -0.00315349)
(4.66464e-07 -1.93803e-07 -0.00308905)
(4.66221e-07 -1.93823e-07 -0.00302426)
(4.66013e-07 -1.93862e-07 -0.00295898)
(4.65842e-07 -1.93921e-07 -0.00289485)
(4.65719e-07 -1.94013e-07 -0.00283842)
(4.65626e-07 -1.94121e-07 -0.00278143)
(4.65569e-07 -1.94252e-07 -0.00272459)
(4.65583e-07 -1.94417e-07 -0.00266667)
(4.65626e-07 -1.94596e-07 -0.00260627)
(4.65694e-07 -1.94788e-07 -0.00254529)
(4.65787e-07 -1.9499e-07 -0.00248419)
(4.65904e-07 -1.95202e-07 -0.00242241)
(4.66049e-07 -1.95424e-07 -0.00236025)
(4.6622e-07 -1.95658e-07 -0.00229764)
(4.66413e-07 -1.95904e-07 -0.00223455)
(4.66628e-07 -1.96161e-07 -0.00217112)
(4.66874e-07 -1.96429e-07 -0.00211822)
(4.67143e-07 -1.96707e-07 -0.00206771)
(4.67432e-07 -1.96994e-07 -0.00201704)
(4.67741e-07 -1.97291e-07 -0.00196966)
(4.68071e-07 -1.97597e-07 -0.00192378)
(4.6842e-07 -1.97911e-07 -0.00187719)
(4.68788e-07 -1.98233e-07 -0.00182986)
(4.69173e-07 -1.98565e-07 -0.00177933)
(4.6958e-07 -1.98914e-07 -0.00171612)
(4.70001e-07 -1.99267e-07 -0.00164044)
(4.70432e-07 -1.99624e-07 -0.00155927)
(4.70879e-07 -1.99987e-07 -0.00147768)
(4.71342e-07 -2.00356e-07 -0.00140392)
(4.71821e-07 -2.0073e-07 -0.00133141)
(4.72313e-07 -2.0111e-07 -0.00126552)
(4.7282e-07 -2.01496e-07 -0.00120204)
(4.73342e-07 -2.01886e-07 -0.00113819)
(4.73878e-07 -2.02282e-07 -0.00107414)
(4.74428e-07 -2.02681e-07 -0.00100985)
(4.74991e-07 -2.03085e-07 -0.000945254)
(4.75564e-07 -2.03493e-07 -0.000880494)
(4.76148e-07 -2.03905e-07 -0.000815783)
(4.7674e-07 -2.04321e-07 -0.000751096)
(4.77339e-07 -2.04742e-07 -0.000686249)
(4.77944e-07 -2.05167e-07 -0.000621224)
(4.78557e-07 -2.05595e-07 -0.000556126)
(4.79176e-07 -2.06026e-07 -0.000491062)
(4.79799e-07 -2.0646e-07 -0.000425992)
(4.80436e-07 -2.06905e-07 -0.00041815)
(4.81087e-07 -2.07363e-07 -0.000474009)
(4.81737e-07 -2.07818e-07 -0.000531457)
(4.8239e-07 -2.08269e-07 -0.000589776)
(4.83039e-07 -2.08718e-07 -0.000658842)
(4.83706e-07 -2.09149e-07 -0.000724889)
(4.84349e-07 -2.09586e-07 -0.000759723)
(4.85037e-07 -2.10004e-07 -0.000809142)
(4.85677e-07 -2.10406e-07 -0.000847969)
(5.47348e-07 -2.44482e-07 -0.0125323)
(5.44263e-07 -2.42582e-07 -0.00611335)
(5.40461e-07 -2.405e-07 -0.00145647)
(5.35904e-07 -2.37796e-07 -7.05016e-05)
(5.31838e-07 -2.35124e-07 0.00133877)
(5.28064e-07 -2.32576e-07 0.00268265)
(5.2446e-07 -2.30468e-07 0.00270586)
(5.20976e-07 -2.28428e-07 0.00274496)
(5.17591e-07 -2.26355e-07 0.00240162)
(5.1398e-07 -2.24137e-07 0.00187716)
(5.10673e-07 -2.22026e-07 0.00133142)
(5.07554e-07 -2.20226e-07 0.000594131)
(5.04615e-07 -2.18746e-07 -5.49359e-05)
(5.01804e-07 -2.1731e-07 -0.000576869)
(4.99126e-07 -2.15878e-07 -0.000710923)
(4.96775e-07 -2.14469e-07 -0.000951134)
(4.9454e-07 -2.13147e-07 -0.00117876)
(4.92392e-07 -2.11884e-07 -0.00141503)
(4.90265e-07 -2.10658e-07 -0.00167165)
(4.88257e-07 -2.09508e-07 -0.00191271)
(4.86346e-07 -2.08425e-07 -0.00214474)
(4.84555e-07 -2.07401e-07 -0.00241239)
(4.82869e-07 -2.06432e-07 -0.00263132)
(4.81241e-07 -2.05526e-07 -0.0026649)
(4.79681e-07 -2.0467e-07 -0.00262921)
(4.78192e-07 -2.03859e-07 -0.00259167)
(4.76772e-07 -2.03089e-07 -0.00255242)
(4.75434e-07 -2.02352e-07 -0.00255618)
(4.7415e-07 -2.0166e-07 -0.00248227)
(4.72989e-07 -2.01032e-07 -0.0024284)
(4.71902e-07 -2.00444e-07 -0.00253156)
(4.70868e-07 -1.99904e-07 -0.00262859)
(4.69889e-07 -1.99409e-07 -0.00268846)
(4.68945e-07 -1.98993e-07 -0.00270725)
(4.68064e-07 -1.98623e-07 -0.00272866)
(4.67235e-07 -1.98288e-07 -0.00274601)
(4.66459e-07 -1.97987e-07 -0.00275977)
(4.65739e-07 -1.97757e-07 -0.00274124)
(4.65069e-07 -1.97551e-07 -0.00271099)
(4.64445e-07 -1.97378e-07 -0.00266932)
(4.63869e-07 -1.97229e-07 -0.0026268)
(4.63339e-07 -1.97105e-07 -0.00258304)
(4.62852e-07 -1.97006e-07 -0.00253833)
(4.62407e-07 -1.96928e-07 -0.00249084)
(4.62003e-07 -1.96871e-07 -0.00243485)
(4.61643e-07 -1.96835e-07 -0.00237823)
(4.61323e-07 -1.9682e-07 -0.00232131)
(4.6104e-07 -1.96827e-07 -0.00226397)
(4.60794e-07 -1.96852e-07 -0.00220643)
(4.60582e-07 -1.96899e-07 -0.0021464)
(4.60401e-07 -1.96964e-07 -0.00208155)
(4.60272e-07 -1.97065e-07 -0.00202652)
(4.6017e-07 -1.97181e-07 -0.00197123)
(4.60122e-07 -1.97322e-07 -0.00191308)
(4.60134e-07 -1.97496e-07 -0.0018556)
(4.60169e-07 -1.97683e-07 -0.00179817)
(4.6023e-07 -1.97882e-07 -0.00174052)
(4.60315e-07 -1.98093e-07 -0.0016829)
(4.60425e-07 -1.98315e-07 -0.00162515)
(4.60558e-07 -1.98549e-07 -0.00156712)
(4.60716e-07 -1.98793e-07 -0.00150896)
(4.60896e-07 -1.9905e-07 -0.00145071)
(4.61107e-07 -1.99317e-07 -0.00140143)
(4.61342e-07 -1.99596e-07 -0.00135654)
(4.61598e-07 -1.99885e-07 -0.00131149)
(4.61873e-07 -2.00183e-07 -0.0012664)
(4.62168e-07 -2.0049e-07 -0.00122136)
(4.62483e-07 -2.00806e-07 -0.0011791)
(4.62818e-07 -2.01129e-07 -0.00113834)
(4.63171e-07 -2.01461e-07 -0.00109694)
(4.63542e-07 -2.018e-07 -0.00105836)
(4.63934e-07 -2.02155e-07 -0.00101724)
(4.64337e-07 -2.02517e-07 -0.000957784)
(4.64754e-07 -2.02884e-07 -0.000893)
(4.65187e-07 -2.03257e-07 -0.000827868)
(4.65634e-07 -2.03636e-07 -0.000762495)
(4.66098e-07 -2.0402e-07 -0.00069687)
(4.66577e-07 -2.04408e-07 -0.000630822)
(4.67072e-07 -2.04802e-07 -0.000564246)
(4.67584e-07 -2.052e-07 -0.000497246)
(4.68108e-07 -2.05602e-07 -0.000430014)
(4.68646e-07 -2.06009e-07 -0.000362348)
(4.69197e-07 -2.0642e-07 -0.000294344)
(4.6976e-07 -2.06835e-07 -0.000226104)
(4.70332e-07 -2.07253e-07 -0.000157657)
(4.70914e-07 -2.07676e-07 -8.93992e-05)
(4.71502e-07 -2.08103e-07 -2.08829e-05)
(4.72097e-07 -2.08533e-07 4.80203e-05)
(4.72697e-07 -2.08967e-07 0.000117176)
(4.73303e-07 -2.09404e-07 0.000186543)
(4.73917e-07 -2.09841e-07 0.000256166)
(4.74534e-07 -2.10278e-07 0.000325995)
(4.75163e-07 -2.10724e-07 0.000339687)
(4.75804e-07 -2.1118e-07 0.000291786)
(4.76442e-07 -2.1163e-07 0.000242403)
(4.77071e-07 -2.12078e-07 0.000183346)
(4.7771e-07 -2.12509e-07 0.000124231)
(4.78332e-07 -2.12945e-07 6.97181e-05)
(4.78993e-07 -2.13355e-07 -5.97259e-06)
(4.79586e-07 -2.13753e-07 -6.90046e-05)
(5.42939e-07 -2.46036e-07 -0.0139199)
(5.39851e-07 -2.44169e-07 -0.00760203)
(5.35998e-07 -2.42144e-07 -0.00242537)
(5.31624e-07 -2.39644e-07 -2.52819e-05)
(5.27434e-07 -2.37061e-07 0.00141915)
(5.23527e-07 -2.34515e-07 0.00281953)
(5.19943e-07 -2.32414e-07 0.0036891)
(5.16443e-07 -2.30415e-07 0.0040951)
(5.12961e-07 -2.28395e-07 0.00391085)
(5.09341e-07 -2.2625e-07 0.00340999)
(5.06029e-07 -2.24228e-07 0.00288414)
(5.02911e-07 -2.22316e-07 0.00248728)
(4.99947e-07 -2.20569e-07 0.00267595)
(4.97265e-07 -2.19115e-07 0.0017887)
(4.94817e-07 -2.1783e-07 0.000262242)
(4.9229e-07 -2.16496e-07 -0.00109012)
(4.89926e-07 -2.15157e-07 -0.00138689)
(4.87665e-07 -2.13916e-07 -0.00165025)
(4.85536e-07 -2.12752e-07 -0.00190227)
(4.83531e-07 -2.11647e-07 -0.00214153)
(4.81585e-07 -2.10633e-07 -0.00219169)
(4.79731e-07 -2.09669e-07 -0.00223984)
(4.77977e-07 -2.08752e-07 -0.00229899)
(4.76277e-07 -2.07901e-07 -0.00228687)
(4.7466e-07 -2.07114e-07 -0.00221344)
(4.73119e-07 -2.06371e-07 -0.00213858)
(4.71652e-07 -2.05671e-07 -0.0020814)
(4.70263e-07 -2.0501e-07 -0.00207933)
(4.68936e-07 -2.04395e-07 -0.00204861)
(4.67703e-07 -2.03834e-07 -0.00198164)
(4.66558e-07 -2.03325e-07 -0.00194061)
(4.65475e-07 -2.02842e-07 -0.00198986)
(4.6445e-07 -2.02395e-07 -0.00200119)
(4.63487e-07 -2.01981e-07 -0.00200879)
(4.62591e-07 -2.01616e-07 -0.00202026)
(4.61754e-07 -2.01296e-07 -0.00203422)
(4.6097e-07 -2.01008e-07 -0.00204476)
(4.60238e-07 -2.00751e-07 -0.00204948)
(4.59561e-07 -2.00564e-07 -0.00201656)
(4.58931e-07 -2.004e-07 -0.00197219)
(4.58348e-07 -2.00262e-07 -0.00192705)
(4.57811e-07 -2.00148e-07 -0.00188071)
(4.57318e-07 -2.00059e-07 -0.00183347)
(4.56868e-07 -1.99991e-07 -0.0017851)
(4.56461e-07 -1.99944e-07 -0.00173415)
(4.56092e-07 -1.99921e-07 -0.00167518)
(4.55763e-07 -1.99918e-07 -0.00161597)
(4.55472e-07 -1.99936e-07 -0.00155626)
(4.55217e-07 -1.99972e-07 -0.00149637)
(4.54998e-07 -2.00027e-07 -0.00143599)
(4.54813e-07 -2.00099e-07 -0.00137535)
(4.54677e-07 -2.00203e-07 -0.00132253)
(4.54588e-07 -2.00328e-07 -0.00126664)
(4.54544e-07 -2.00476e-07 -0.00121036)
(4.54552e-07 -2.00656e-07 -0.00115595)
(4.54584e-07 -2.00849e-07 -0.00110126)
(4.54642e-07 -2.01054e-07 -0.00104629)
(4.54724e-07 -2.01271e-07 -0.000990889)
(4.54831e-07 -2.01499e-07 -0.000935278)
(4.54961e-07 -2.01739e-07 -0.000879297)
(4.55113e-07 -2.01991e-07 -0.00082281)
(4.55293e-07 -2.02254e-07 -0.000773055)
(4.55502e-07 -2.02529e-07 -0.000729808)
(4.55731e-07 -2.02815e-07 -0.000686213)
(4.55982e-07 -2.0311e-07 -0.000642369)
(4.56252e-07 -2.03415e-07 -0.00059835)
(4.56542e-07 -2.03729e-07 -0.000559004)
(4.56852e-07 -2.04054e-07 -0.000525286)
(4.57182e-07 -2.04386e-07 -0.000492117)
(4.57529e-07 -2.04726e-07 -0.000461643)
(4.57894e-07 -2.05073e-07 -0.000430451)
(4.5827e-07 -2.05425e-07 -0.000394845)
(4.58665e-07 -2.05795e-07 -0.000335344)
(4.59073e-07 -2.06169e-07 -0.000267965)
(4.59496e-07 -2.06549e-07 -0.000200321)
(4.59933e-07 -2.06935e-07 -0.000132331)
(4.60385e-07 -2.07326e-07 -6.39539e-05)
(4.60853e-07 -2.07723e-07 4.88473e-06)
(4.61335e-07 -2.08124e-07 7.42201e-05)
(4.61836e-07 -2.08528e-07 0.000144232)
(4.62352e-07 -2.08936e-07 0.00021458)
(4.62876e-07 -2.09351e-07 0.00028516)
(4.63415e-07 -2.09767e-07 0.000356273)
(4.63965e-07 -2.10187e-07 0.000427768)
(4.64524e-07 -2.10611e-07 0.000499091)
(4.65095e-07 -2.11038e-07 0.000570903)
(4.65674e-07 -2.11467e-07 0.000643248)
(4.66256e-07 -2.11901e-07 0.000715627)
(4.66844e-07 -2.12338e-07 0.00078854)
(4.67439e-07 -2.12778e-07 0.00086171)
(4.68041e-07 -2.1322e-07 0.000935229)
(4.6865e-07 -2.1366e-07 0.00100914)
(4.69262e-07 -2.14098e-07 0.00108363)
(4.69881e-07 -2.14539e-07 0.00111734)
(4.70513e-07 -2.14988e-07 0.0010695)
(4.71132e-07 -2.15432e-07 0.00101291)
(4.7176e-07 -2.15859e-07 0.000955873)
(4.72375e-07 -2.16292e-07 0.000908139)
(4.73027e-07 -2.16694e-07 0.000843944)
(4.7361e-07 -2.17065e-07 0.000792507)
(5.38525e-07 -2.47637e-07 -0.0152704)
(5.35433e-07 -2.45791e-07 -0.00906171)
(5.31519e-07 -2.43717e-07 -0.00408352)
(5.27237e-07 -2.41364e-07 -0.00109031)
(5.2307e-07 -2.38969e-07 0.00124732)
(5.19112e-07 -2.36509e-07 0.00290294)
(5.15358e-07 -2.34374e-07 0.00388618)
(5.11854e-07 -2.32409e-07 0.00477664)
(5.0836e-07 -2.30439e-07 0.0054204)
(5.04665e-07 -2.28349e-07 0.004943)
(5.01308e-07 -2.26378e-07 0.00444413)
(4.98194e-07 -2.24486e-07 0.00398052)
(4.95478e-07 -2.22835e-07 0.00320908)
(4.928e-07 -2.21199e-07 0.0023259)
(4.90128e-07 -2.19602e-07 0.00144117)
(4.87589e-07 -2.18373e-07 -2.9716e-05)
(4.85126e-07 -2.17276e-07 -0.00139107)
(4.82776e-07 -2.16189e-07 -0.0015117)
(4.80535e-07 -2.15147e-07 -0.00152931)
(4.78406e-07 -2.14153e-07 -0.00154185)
(4.76391e-07 -2.13216e-07 -0.00154924)
(4.7448e-07 -2.12327e-07 -0.00155202)
(4.72662e-07 -2.11478e-07 -0.00155561)
(4.7094e-07 -2.10667e-07 -0.00155439)
(4.693e-07 -2.09897e-07 -0.0015321)
(4.67751e-07 -2.09178e-07 -0.00146709)
(4.66282e-07 -2.08502e-07 -0.00143355)
(4.64888e-07 -2.07865e-07 -0.00142723)
(4.63563e-07 -2.07271e-07 -0.00141749)
(4.62312e-07 -2.06731e-07 -0.00139167)
(4.61163e-07 -2.06244e-07 -0.00133615)
(4.60068e-07 -2.05795e-07 -0.00129243)
(4.59042e-07 -2.05367e-07 -0.00131114)
(4.58073e-07 -2.04975e-07 -0.00131515)
(4.57164e-07 -2.04617e-07 -0.00131594)
(4.56315e-07 -2.04303e-07 -0.00131968)
(4.55524e-07 -2.04031e-07 -0.00132695)
(4.54783e-07 -2.0379e-07 -0.00133095)
(4.54093e-07 -2.03583e-07 -0.00132023)
(4.53456e-07 -2.03434e-07 -0.00127313)
(4.52866e-07 -2.03309e-07 -0.00122527)
(4.52321e-07 -2.03208e-07 -0.00117625)
(4.51821e-07 -2.0313e-07 -0.00112644)
(4.51364e-07 -2.03074e-07 -0.00107558)
(4.50949e-07 -2.0304e-07 -0.00102411)
(4.50574e-07 -2.03027e-07 -0.000969959)
(4.50237e-07 -2.03035e-07 -0.000908414)
(4.49938e-07 -2.03064e-07 -0.000846366)
(4.49675e-07 -2.03111e-07 -0.000784109)
(4.49448e-07 -2.03178e-07 -0.000721497)
(4.49255e-07 -2.03261e-07 -0.000658001)
(4.49118e-07 -2.03376e-07 -0.000585624)