/*--------------------------------*- C++ -*----------------------------------*\
| =========                 |                                                 |
| \\      /  F ield         | foam-extend: Open Source CFD                    |
|  \\    /   O peration     | Version:     4.1                                |
|   \\  /    A nd           | Web:         http://www.foam-extend.org         |
|    \\/     M anipulation  |                                                 |
\*---------------------------------------------------------------------------*/
FoamFile
{
    version     2.0;
    format      ascii;
    class       volScalarField;
    location    "1";
    object      sigmaHyd;
}
// * * * * * * * * * * * * * * * * * * * * * * * * * * * * * * * * * * * * * //

dimensions      [1 -1 -2 0 0 0 0];

internalField   nonuniform List<scalar> 
100000
(
-47062.2
-46941.9
-46965
-46914.9
-46904.1
-46874.1
-46855.3
-46831.8
-46811.8
-46791
-46771.6
-46752.4
-46734
-46716.1
-46698.7
-46681.8
-46665.5
-46649.6
-46634.1
-46619.1
-46604.5
-46590.3
-46576.5
-46563
-46549.9
-46537.1
-46524.8
-46512.4
-46500.9
-46488.4
-46477.8
-46462.6
-46452.7
-46447.5
-46435.7
-46425.4
-46415.6
-46405.6
-46396.2
-46386.7
-46377.6
-46368.7
-46360
-46351.4
-46343
-46334.7
-46326.7
-46318.7
-46311
-46303.3
-46295.8
-46288.4
-46281.2
-46274
-46267
-46260.1
-46253.3
-46246.7
-46240.1
-46233.6
-46227.2
-46220.8
-46214.6
-46208.4
-46202.3
-46196.3
-46190.3
-46184.5
-46178.7
-46172.9
-46167.2
-46161.6
-46156.1
-46150.6
-46145.2
-46139.8
-46134.6
-46129.3
-46124.1
-46118.9
-46113.8
-46108.6
-46103.6
-46098.5
-46093.7
-46088.5
-46083.5
-46078.5
-46073.5
-46068.6
-46063.8
-46059.1
-46054.6
-46050.2
-46046.4
-46042.1
-46040.7
-46035.6
-46043.4
-46015.6
-48766.8
-48604.8
-48599.1
-48514.8
-48474.1
-48413.3
-48365.4
-48313.2
-48265.4
-48217.5
-48171.8
-48126.9
-48083.5
-48041.1
-48000
-47960
-47921
-47883.1
-47846.1
-47810.1
-47775
-47740.8
-47707.5
-47675
-47643.4
-47612.5
-47582.7
-47553.1
-47526.5
-47496.6
-47481.2
-47439.8
-47432.7
-47387.5
-47377.1
-47340.2
-47318
-47292
-47269
-47245.9
-47223.7
-47201.8
-47180.5
-47159.5
-47139
-47118.9
-47099.2
-47079.9
-47060.9
-47042.2
-47023.9
-47006
-46988.3
-46971
-46953.9
-46937.2
-46920.7
-46904.6
-46888.7
-46873
-46857.6
-46842.5
-46827.5
-46812.8
-46798.3
-46784.1
-46770
-46756.2
-46742.5
-46729
-46715.8
-46702.7
-46689.8
-46677.1
-46664.5
-46652.1
-46640
-46627.9
-46616.1
-46604.2
-46592.4
-46580.9
-46569.6
-46558.2
-46547.3
-46536.1
-46525
-46514.2
-46503.4
-46492.8
-46482.4
-46472.1
-46462.2
-46452.1
-46443
-46432.9
-46426.3
-46414.5
-46416.9
-46377.4
-50470.7
-50267
-50232.4
-50114
-50043.3
-49951.7
-49874.7
-49793.7
-49718.2
-49643.2
-49571.1
-49500.5
-49432.1
-49365.4
-49300.5
-49237.3
-49175.8
-49115.9
-49057.5
-49000.5
-48945
-48890.9
-48838.1
-48786.5
-48736.3
-48687.2
-48639.3
-48592.5
-48547
-48502.2
-48458.7
-48417.6
-48370.2
-48328.1
-48292.4
-48252.4
-48215.1
-48177.2
-48140.6
-48104.5
-48069.2
-48034.6
-48000.7
-47967.4
-47934.8
-47902.8
-47871.5
-47840.7
-47810.6
-47780.9
-47751.9
-47723.3
-47695.3
-47667.7
-47640.7
-47614.1
-47588
-47562.4
-47537.2
-47512.4
-47488
-47464
-47440.4
-47417.1
-47394.2
-47371.7
-47349.5
-47327.6
-47306.1
-47284.8
-47263.9
-47243.3
-47223.1
-47203
-47183.4
-47163.9
-47144.9
-47126
-47107.7
-47089.4
-47071.1
-47053
-47035.8
-47018.2
-47002.3
-46984.3
-46967.1
-46949.9
-46933.3
-46916.8
-46900.9
-46885
-46869.8
-46854.3
-46840.3
-46824.4
-46813.4
-46793.6
-46792.6
-46736.8
-52173.2
-51927.9
-51864.4
-51712.1
-51611.4
-51489.1
-51383
-51273.3
-51170.1
-51067.9
-50969.6
-50873.3
-50779.9
-50688.8
-50600.3
-50513.9
-50429.9
-50347.9
-50268
-50190.1
-50114.2
-50040.1
-49967.8
-49897.2
-49828.4
-49761.1
-49695.6
-49631.3
-49569
-49507.1
-49447.4
-49387.1
-49321.1
-49273.1
-49220.2
-49166.1
-49114.3
-49062.4
-49012.1
-48962.6
-48914.2
-48866.8
-48820.3
-48774.7
-48730
-48686.2
-48643.3
-48601.1
-48559.7
-48519.1
-48479.3
-48440.1
-48401.7
-48364
-48326.9
-48290.5
-48254.8
-48219.7
-48185.2
-48151.3
-48117.9
-48085.1
-48052.8
-48021
-47989.7
-47958.9
-47928.6
-47898.8
-47869.4
-47840.4
-47812
-47783.9
-47756.3
-47729.1
-47702.4
-47675.9
-47650.3
-47624.4
-47599.9
-47574.2
-47548.5
-47524.4
-47500.8
-47476.8
-47455.2
-47431.5
-47407.1
-47384.9
-47362.2
-47340.4
-47318.7
-47297.4
-47276.7
-47255.6
-47236.2
-47214.5
-47198.2
-47172.4
-47166
-47103.2
-53873.9
-53587
-53494.9
-53308.4
-53177.9
-53024.8
-52889.7
-52751.3
-52620.4
-52491.2
-52366.5
-52244.6
-52126.3
-52010.9
-51898.6
-51789.2
-51682.6
-51578.7
-51477.4
-51378.6
-51282.2
-51188.2
-51096.5
-51006.9
-50919.5
-50834.1
-50750.7
-50669.1
-50589.5
-50511.5
-50435.1
-50360.7
-50286.2
-50215.4
-50146.5
-50078.3
-50011.9
-49946.5
-49882.6
-49819.8
-49758.4
-49698.2
-49639.2
-49581.3
-49524.5
-49468.9
-49414.3
-49360.8
-49308.3
-49256.7
-49206.1
-49156.4
-49107.6
-49059.6
-49012.6
-48966.3
-48921
-48876.5
-48832.7
-48789.7
-48747.4
-48705.7
-48664.7
-48624.4
-48584.7
-48545.7
-48507.2
-48469.4
-48432.1
-48395.4
-48359.3
-48323.6
-48288.6
-48253.9
-48220.1
-48186.1
-48153.9
-48120.6
-48090.5
-48060.9
-48026.8
-47994.6
-47966.7
-47935.7
-47918.2
-47882.1
-47849.9
-47819.1
-47791.1
-47762.9
-47736
-47709
-47683
-47656.5
-47631.8
-47604.6
-47583.1
-47551.4
-47540.2
-47470.7
-55572.7
-55244.3
-55123.4
-54903
-54742.5
-54558.8
-54394.7
-54227.6
-54069.1
-53912.9
-53761.9
-53614.4
-53471.2
-53331.5
-53195.6
-53063
-52933.9
-52808
-52685.3
-52565.6
-52448.9
-52334.9
-52223.8
-52115.2
-52009.2
-51905.7
-51804.6
-51705.7
-51609.1
-51514.5
-51421.9
-51331.4
-51241.5
-51156.5
-51072.2
-50989.8
-50909.1
-50829.8
-50752.3
-50676.2
-50601.7
-50528.7
-50457.1
-50386.9
-50318.2
-50250.7
-50184.5
-50119.6
-50055.9
-49993.4
-49932
-49871.7
-49812.6
-49754.4
-49697.4
-49641.2
-49586.3
-49532.6
-49479.5
-49427.4
-49376.1
-49325.6
-49276
-49227.1
-49179.1
-49131.8
-49085.3
-49039.4
-48994.4
-48950
-48906.3
-48863.2
-48820.9
-48779.1
-48738.5
-48697.8
-48659.8
-48619.3
-48588.7
-48543.7
-48496
-48464.5
-48429
-48389.8
-48366.9
-48329.2
-48280.2
-48253.4
-48217.7
-48185.8
-48152.9
-48120.7
-48089.1
-48057.1
-48027
-47994.3
-47967.6
-47930.4
-47914.3
-47839.1
-57268.8
-56899
-56749.4
-56495.1
-56304.8
-56090.4
-55897.4
-55701.7
-55515.6
-55332.3
-55155.2
-54982.1
-54814
-54650
-54490.5
-54334.9
-54183.4
-54035.6
-53891.5
-53750.9
-53613.8
-53480
-53349.5
-53222
-53097.5
-52975.8
-52857
-52740.9
-52627.4
-52516.4
-52407.8
-52301.7
-52197.5
-52096.2
-51997
-51899.9
-51804.9
-51711.8
-51620.6
-51531.3
-51443.8
-51358
-51273.9
-51191.5
-51110.6
-51031.4
-50953.6
-50877.4
-50802.6
-50729.1
-50657.1
-50586.2
-50516.8
-50448.4
-50381.5
-50315.3
-50250.5
-50187.5
-50125.5
-50064.2
-50004.1
-49944.7
-49886.5
-49829.1
-49772.6
-49717.1
-49662.4
-49608.6
-49555.7
-49503.5
-49452.2
-49401.5
-49351.7
-49302
-49254
-49203.8
-49159.2
-49101.8
-49071.4
-48995.1
-48979.7
-48918.9
-48879.7
-48833.6
-48841.3
-48742.1
-48718.6
-48672.8
-48643.3
-48604.1
-48568.3
-48530.5
-48494
-48456.7
-48421.5
-48383.5
-48351.7
-48309.1
-48288.3
-48207.5
-58962.1
-58551
-58372.7
-58084.6
-57864.5
-57619.5
-57397.6
-57173.4
-56959.7
-56749.5
-56546.2
-56347.6
-56154.6
-55966.5
-55783.3
-55604.7
-55430.7
-55261.1
-55095.6
-54934.3
-54776.8
-54623.2
-54473.3
-54326.9
-54183.9
-54044.2
-53907.8
-53774.4
-53644
-53516.6
-53391.8
-53270
-53150.5
-53034.1
-52920.1
-52808.6
-52699.4
-52592.4
-52487.7
-52385
-52284.5
-52185.9
-52089.4
-51994.7
-51901.9
-51810.8
-51721.5
-51633.9
-51548
-51463.6
-51380.8
-51299.3
-51219.6
-51140.6
-51063.9
-50987.2
-50913.6
-50842.4
-50770.3
-50700.3
-50631
-50562.9
-50495.9
-50430
-50365.3
-50301.5
-50238.8
-50177.1
-50116.3
-50056.5
-49997.6
-49939.6
-49882.5
-49826.1
-49770.6
-49715.9
-49661
-49609
-49550.1
-49509.3
-49464.9
-49407.4
-49357.2
-49311.6
-49253.6
-49211.9
-49175.1
-49120.7
-49077
-49030.4
-48986.6
-48942.5
-48899.9
-48856.8
-48816
-48772.5
-48735.5
-48687.6
-48661.9
-48575.6
-60652.2
-60199.7
-59992.7
-59670.8
-59421
-59145.5
-58894.8
-58642
-58400.9
-58163.8
-57934.4
-57710.3
-57492.6
-57280.3
-57073.5
-56872
-56675.7
-56484.2
-56297.5
-56115.3
-55937.6
-55764.2
-55594.9
-55429.6
-55268.2
-55110.5
-54956.4
-54805.9
-54658.7
-54514.8
-54374.1
-54236.5
-54101.9
-53970.3
-53841.5
-53715.5
-53592.1
-53471.3
-53353
-53237.1
-53123.6
-53012.3
-52903.2
-52796.3
-52691.5
-52588.8
-52488
-52389.1
-52292.1
-52196.9
-52103.6
-52011.6
-51922.1
-51832.7
-51747
-51659
-51573
-51494
-51415.1
-51334.8
-51257.3
-51179.9
-51104.5
-51029.9
-50956.8
-50884.8
-50814
-50744.3
-50675.8
-50608.3
-50541.8
-50476.4
-50411.9
-50348.4
-50286
-50224.1
-50163.9
-50103.8
-50046.4
-49991.4
-49932.4
-49874.3
-49821.1
-49765.5
-49722.6
-49662.6
-49607.9
-49552.9
-49502.1
-49450.8
-49401.4
-49351.9
-49303.9
-49255.5
-49209.3
-49160.6
-49118.5
-49065.3
-49034.9
-48943.1
-62338.3
-61844.7
-61609.3
-61253.7
-60974.3
-60668.3
-60388.8
-60107.6
-59839
-59575.1
-59319.6
-59070.2
-58827.7
-58591.2
-58361
-58136.6
-57917.9
-57704.6
-57496.7
-57293.8
-57095.8
-56902.7
-56714.1
-56530
-56350.2
-56174.5
-56002.9
-55835.2
-55671.3
-55511
-55354.3
-55201
-55051
-54904.4
-54760.9
-54620.5
-54483
-54348.4
-54216.6
-54087.4
-53960.9
-53837
-53715.5
-53596.3
-53479.6
-53365
-53252.7
-53142.5
-53034.5
-52928.3
-52824.2
-52721.6
-52621.5
-52521
-52425.2
-52321.6
-52233.8
-52153.2
-52057
-51969.2
-51881.3
-51795.6
-51711.3
-51628.4
-51547
-51466.8
-51388
-51310.5
-51234.2
-51159.1
-51085.1
-51012.3
-50940.6
-50870
-50800.5
-50732.1
-50664.5
-50598.4
-50532.6
-50469.6
-50406.7
-50343.5
-50281.8
-50221.1
-50160.7
-50101.6
-50044
-49985.2
-49928.5
-49871.7
-49816.4
-49761.4
-49707.7
-49653.8
-49602.2
-49548.2
-49500.8
-49442.5
-49407.2
-49310.1
-64020.3
-63485.7
-63221.7
-62832.5
-62523.5
-62187.2
-61879
-61569.5
-61273.5
-60982.8
-60701.4
-60426.6
-60159.4
-59898.9
-59645.3
-59398
-59157.1
-58922.1
-58692.9
-58469.4
-58251.2
-58038.4
-57830.6
-57627.7
-57429.5
-57235.9
-57046.8
-56862
-56681.3
-56504.7
-56332
-56163.1
-55997.8
-55836.2
-55678
-55523.2
-55371.7
-55223.3
-55078
-54935.7
-54796.2
-54659.6
-54525.6
-54394.4
-54265.7
-54139.5
-54015.7
-53894.3
-53775.4
-53658.5
-53544.4
-53431.4
-53323.4
-53212.3
-53118.1
-52995.8
-52936.1
-52791.7
-52710.1
-52600.1
-52506.8
-52409.9
-52317.5
-52225.7
-52136
-52047.6
-51960.7
-51875.3
-51791.2
-51708.4
-51627
-51546.8
-51467.9
-51390.1
-51313.6
-51238.3
-51164.1
-51091.1
-51019.3
-50948.8
-50878.9
-50809.8
-50742.4
-50675.2
-50610.4
-50544.3
-50479.8
-50415.6
-50352.9
-50290.7
-50229.7
-50169.2
-50110.1
-50050.8
-49994
-49934.7
-49882.3
-49818.7
-49778.6
-49676.2
-65697.9
-65122.3
-64830
-64407.3
-64068.8
-63702.1
-63365.3
-63027.5
-62704.2
-62386.9
-62079.5
-61779.4
-61487.6
-61203.2
-60926.2
-60656.1
-60392.9
-60136.3
-59886
-59641.8
-59403.6
-59171.1
-58944.1
-58722.5
-58506
-58294.6
-58088
-57886.1
-57688.7
-57495.8
-57307.1
-57122.6
-56942.1
-56765.5
-56592.7
-56423.6
-56258.1
-56095.9
-55937.2
-55781.7
-55629.3
-55480
-55333.7
-55190.3
-55049.7
-54911.8
-54776.6
-54644
-54513.9
-54386.2
-54261
-54138.1
-54017.5
-53899.7
-53782.4
-53674.4
-53550.7
-53434.5
-53334.8
-53227.2
-53124.5
-53021.2
-52920.4
-52820.8
-52722.9
-52626.6
-52531.8
-52438.5
-52346.8
-52256.4
-52167.5
-52080
-51993.8
-51909
-51825.5
-51743.2
-51662.2
-51582.5
-51503.9
-51426.6
-51350.4
-51275.1
-51201
-51127.8
-51055.7
-50984.4
-50914.2
-50844.7
-50776.3
-50708.7
-50642.1
-50576.2
-50511.6
-50447
-50384.9
-50320.3
-50262.8
-50194
-50149.1
-50041.4
-67370.4
-66754
-66433.3
-65977.2
-65609.3
-65212.5
-64847.1
-64481.1
-64130.6
-63786.7
-63453.5
-63128.2
-62811.9
-62503.6
-62203.3
-61910.5
-61625.2
-61346.9
-61075.6
-60810.8
-60552.5
-60300.4
-60054.3
-59814
-59579.3
-59350
-59126
-58907.1
-58693.1
-58483.9
-58279.4
-58079.3
-57883.6
-57692.1
-57504.7
-57321.3
-57141.8
-56966
-56793.8
-56625.2
-56460
-56298.1
-56139.4
-55983.9
-55831.4
-55681.9
-55535.3
-55391.5
-55250.5
-55112
-54976.3
-54842.8
-54712.4
-54583.2
-54457.7
-54331.7
-54206.6
-54088.9
-53974
-53857.3
-53744.7
-53632.5
-53522.9
-53414.7
-53308.6
-53204.1
-53101.3
-53000.2
-52900.7
-52802.8
-52706.4
-52611.6
-52518.2
-52426.2
-52335.7
-52246.6
-52158.8
-52072.3
-51987.2
-51903.3
-51820.6
-51739
-51658.7
-51579.3
-51501.3
-51424
-51347.9
-51272.6
-51198.5
-51125.3
-51053.2
-50981.8
-50911.9
-50841.9
-50774.6
-50704.8
-50642.2
-50568.3
-50518.6
-50405.7
-69037.6
-68380.5
-68031.7
-67542.2
-67145
-66718.1
-66324.3
-65930.2
-65552.6
-65182.1
-64823.1
-64472.7
-64132
-63799.8
-63476.3
-63160.9
-62853.5
-62553.7
-62261.3
-61976.1
-61697.8
-61426.2
-61161
-60902.1
-60649.2
-60402.2
-60160.9
-59925
-59694.4
-59469
-59248.6
-59033
-58822.1
-58615.8
-58413.8
-58216.2
-58022.7
-57833.3
-57647.8
-57466.1
-57288
-57113.6
-56942.6
-56775
-56610.7
-56449.6
-56291.6
-56136.6
-55984.5
-55835.3
-55688.9
-55545.2
-55404.1
-55265.6
-55129.2
-54996
-54863
-54733.3
-54607.7
-54482.9
-54361.2
-54240.8
-54122.8
-54006.5
-53892.2
-53779.7
-53669
-53560.1
-53452.9
-53347.5
-53243.7
-53141.5
-53040.9
-52941.9
-52844.4
-52748.4
-52653.8
-52560.6
-52468.8
-52378.4
-52289.3
-52201.4
-52114.8
-52029.4
-51945.2
-51862.1
-51780.1
-51699.2
-51619.4
-51540.7
-51463.1
-51386.2
-51310.9
-51235.6
-51163.1
-51088.1
-51020.4
-50941.4
-50886.9
-50768.8
-70699
-70001.3
-69624.4
-69101.8
-68675.3
-68218.4
-67796.2
-67374.2
-66969.5
-66572.7
-66188
-65812.6
-65447.5
-65091.6
-64744.9
-64407
-64077.6
-63756.3
-63443
-63137.4
-62839.2
-62548.1
-62263.9
-61986.4
-61715.5
-61450.7
-61192.1
-60939.3
-60692.2
-60450.6
-60214.4
-59983.4
-59757.3
-59536.2
-59319.8
-59108
-58900.6
-58697.6
-58498.8
-58304
-58113.2
-57926.3
-57743
-57563.4
-57387.3
-57214.7
-57045.3
-56879.2
-56716.3
-56556.4
-56399.5
-56245.4
-56094.2
-55945.5
-55799.6
-55656
-55514.8
-55376.7
-55241.3
-55107.7
-54976.9
-54847.9
-54721.2
-54596.5
-54474
-54353.4
-54234.8
-54118.1
-54003.3
-53890.3
-53779.1
-53669.6
-53561.8
-53455.7
-53351.3
-53248.4
-53147
-53047.2
-52948.9
-52851.9
-52756.5
-52662.3
-52569.5
-52478
-52387.8
-52298.8
-52211
-52124.4
-52038.9
-51954.6
-51871.5
-51789.2
-51708.6
-51628
-51550.2
-51470.1
-51397.4
-51313.3
-51254
-51130.8
-72354.3
-71616.3
-71211.2
-70655.6
-70200
-69713.2
-69262.8
-68812.8
-68381.3
-67958.1
-67547.8
-67147.5
-66758.1
-66378.5
-66008.8
-65648.4
-65297.1
-64954.5
-64620.4
-64294.4
-63976.3
-63665.8
-63362.8
-63066.8
-62777.8
-62495.4
-62219.5
-61949.9
-61686.4
-61428.7
-61176.7
-60930.2
-60689.2
-60453.3
-60222.4
-59996.5
-59775.3
-59558.7
-59346.6
-59138.9
-58935.4
-58736
-58540.5
-58348.9
-58161.1
-57976.9
-57796.2
-57619
-57445.2
-57274.6
-57107.2
-56942.8
-56781.5
-56623
-56467.3
-56314.5
-56164.2
-56016.6
-55871.9
-55729.5
-55589.8
-55452.3
-55317.2
-55184.2
-55053.6
-54925
-54798.5
-54674.1
-54551.6
-54431.1
-54312.6
-54195.8
-54080.9
-53967.7
-53856.3
-53746.6
-53638.5
-53532.1
-53427.2
-53323.8
-53222
-53121.6
-53022.6
-52925
-52828.8
-52733.9
-52640.3
-52548
-52456.9
-52367
-52278.5
-52190.8
-52104.8
-52019
-51936
-51850.7
-51773
-51683.8
-51619.7
-51491.5
-74002.9
-73224.6
-72791.7
-72203.1
-71718.6
-71202.1
-70723.5
-70245.8
-69787.4
-69338
-68902.3
-68477.1
-68063.6
-67660.4
-67267.8
-66884.9
-66511.8
-66147.9
-65793
-65446.8
-65108.9
-64779.2
-64457.2
-64142.9
-63835.9
-63536
-63242.9
-62956.5
-62676.6
-62402.9
-62135.2
-61873.4
-61617.3
-61366.7
-61121.5
-60881.5
-60646.5
-60416.5
-60191.2
-59970.5
-59754.3
-59542.5
-59334.9
-59131.4
-58931.8
-58736.2
-58544.3
-58356
-58171.4
-57990.1
-57812.3
-57637.7
-57466.3
-57298
-57132.7
-56970.3
-56810.8
-56654.2
-56500.4
-56349.2
-56200.6
-56054.6
-55911
-55769.8
-55630.9
-55494.4
-55360
-55227.9
-55097.8
-54969.8
-54843.9
-54719.9
-54597.8
-54477.7
-54359.3
-54242.8
-54128
-54015
-53903.6
-53793.8
-53685.6
-53579
-53473.9
-53370.3
-53268.1
-53167.3
-53068
-52969.9
-52873.3
-52777.8
-52683.8
-52590.8
-52499.4
-52408.4
-52320.2
-52229.9
-52147.1
-52052.9
-51984.1
-51850.9
-75644.6
-74826.3
-74365.6
-73744.2
-73230.8
-72684.7
-72178.1
-71672.7
-71187.6
-70712.1
-70251
-69801.1
-69363.5
-68936.9
-68521.3
-68116.3
-67721.4
-67336.3
-66960.7
-66594.3
-66236.8
-65887.8
-65547.1
-65214.5
-64889.5
-64572.1
-64262
-63958.9
-63662.6
-63372.9
-63089.6
-62812.5
-62541.5
-62276.3
-62016.7
-61762.7
-61514
-61270.6
-61032.1
-60798.6
-60569.8
-60345.6
-60125.9
-59910.5
-59699.3
-59492.2
-59289.1
-59089.9
-58894.4
-58702.6
-58514.4
-58329.6
-58148.2
-57970.1
-57795.2
-57623.4
-57454.6
-57288.8
-57126
-56966
-56808.8
-56654.2
-56502.2
-56352.8
-56205.9
-56061.4
-55919.2
-55779.4
-55641.7
-55506.3
-55373
-55241.8
-55112.7
-54985.5
-54860.3
-54737
-54615.5
-54495.9
-54378
-54261.8
-54147.4
-54034.5
-53923.3
-53813.7
-53705.6
-53599
-53493.9
-53390.2
-53287.9
-53187
-53087.5
-52989.1
-52892.5
-52796.2
-52702.9
-52607.4
-52519.7
-52420.4
-52346.8
-52208.7
-77278.9
-76420.7
-75932.4
-75278.3
-74736.2
-74160.5
-73626.1
-73093.2
-72581.5
-72080
-71593.7
-71119.2
-70657.6
-70207.7
-69769.3
-69342.1
-68925.6
-68519.4
-68123.2
-67736.7
-67359.6
-66991.5
-66632.1
-66281.2
-65938.5
-65603.7
-65276.5
-64956.8
-64644.3
-64338.7
-64039.9
-63747.6
-63461.6
-63181.8
-62908
-62640.1
-62377.7
-62120.9
-61869.3
-61623
-61381.7
-61145.2
-60913.4
-60686.2
-60463.4
-60244.9
-60030.7
-59820.5
-59614.3
-59412
-59213.5
-59018.5
-58827.2
-58639.3
-58454.8
-58273.6
-58095.6
-57920.8
-57749
-57580.2
-57414.3
-57251.2
-57090.9
-56933.3
-56778.3
-56625.8
-56475.9
-56328.4
-56183.2
-56040.4
-55899.8
-55761.4
-55625.2
-55491.1
-55359
-55228.9
-55100.8
-54974.6
-54850.3
-54727.8
-54607.1
-54488.1
-54370.8
-54255.2
-54141.2
-54028.7
-53917.9
-53808.5
-53700.7
-53594.3
-53489.4
-53385.6
-53283.7
-53182.2
-53083.8
-52983.3
-52890.6
-52786.3
-52708
-52565
-78905.5
-78007.6
-77491.7
-76805.2
-76234.4
-75629.5
-75067.3
-74506.9
-73968.8
-73441.4
-72930
-72431
-71945.5
-71472.3
-71011.4
-70562
-70124
-69696.8
-69280.2
-68873.7
-68477.1
-68089.9
-67712
-67342.9
-66982.5
-66630.3
-66286.2
-65950
-65621.2
-65299.8
-64985.5
-64678.1
-64377.3
-64083
-63794.9
-63513.1
-63237
-62967.1
-62702.5
-62443.5
-62189.6
-61940.9
-61697.1
-61458.2
-61223.9
-60994.1
-60768.7
-60547.7
-60330.8
-60118
-59909.1
-59704.1
-59502.9
-59305.3
-59111.2
-58920.7
-58733.5
-58549.6
-58368.9
-58191.4
-58016.9
-57845.4
-57676.8
-57511
-57348
-57187.7
-57030
-56874.8
-56722.2
-56571.9
-56424.1
-56278.6
-56135.3
-55994.3
-55855.4
-55718.6
-55583.9
-55451.1
-55320.4
-55191.6
-55064.6
-54939.5
-54816.1
-54694.6
-54574.7
-54456.5
-54339.9
-54224.9
-54111.6
-53999.7
-53889.4
-53780.3
-53673.2
-53566.5
-53463
-53357.3
-53259.8
-53150.5
-53067.4
-52919.7
-80523.9
-79586.4
-79043.2
-78324.3
-77725.2
-77091
-76501.2
-75913.6
-75349.1
-74796
-74259.6
-73736.2
-73227
-72730.7
-72247.2
-71775.9
-71316.5
-70868.4
-70431.4
-70005
-69589
-69182.9
-68786.5
-68399.3
-68021.2
-67651.9
-67290.9
-66938.2
-66593.4
-66256.2
-65926.5
-65604
-65288.5
-64979.8
-64677.5
-64381.9
-64092.3
-63809.2
-63531.6
-63260
-62993.7
-62732.8
-62477.1
-62226.4
-61980.6
-61739.5
-61503.1
-61271.3
-61043.8
-60820.5
-60601.4
-60386.4
-60175.3
-59968
-59764.5
-59564.6
-59368.2
-59175.3
-58985.8
-58799.5
-58616.5
-58436.6
-58259.7
-58085.8
-57914.8
-57746.6
-57581.2
-57418.5
-57258.4
-57100.8
-56945.8
-56793.1
-56642.9
-56494.9
-56349.2
-56205.8
-56064.5
-55925.3
-55788.1
-55653
-55519.9
-55388.6
-55259.3
-55131.8
-55006
-54882.1
-54759.8
-54639.3
-54520.4
-54403
-54287.4
-54173
-54060.6
-53948.8
-53840.2
-53729.6
-53627
-53512.9
-53425
-53272.6
-82133.7
-81157
-80586.5
-79835.5
-79208
-78544.8
-77927.5
-77312.8
-76722.1
-76143.5
-75582.1
-75034.6
-74501.8
-73982.4
-73476.5
-72983.4
-72502.6
-72033.8
-71576.5
-71130.4
-70695
-70270.1
-69855.2
-69450.2
-69054.5
-68668
-68290.3
-67921.2
-67560.4
-67207.6
-66862.5
-66525
-66194.7
-65871.7
-65555.1
-65245.8
-64942
-64646.5
-64355.9
-64072
-63793.3
-63520.4
-63252.8
-62990.5
-62733.3
-62481
-62233.7
-61991
-61752.9
-61519.3
-61290
-61065
-60844.1
-60627.2
-60414.2
-60205
-59999.6
-59797.7
-59599.4
-59404.5
-59212.9
-59024.7
-58839.6
-58657.6
-58478.7
-58302.7
-58129.6
-57959.4
-57791.8
-57627
-57464.7
-57305
-57147.8
-56993
-56840.6
-56690.4
-56542.6
-56396.9
-56253.4
-56112.1
-55972.7
-55835.4
-55700.1
-55566.7
-55435.1
-55305.4
-55177.6
-55051.4
-54927
-54804.3
-54683.3
-54563.6
-54446.1
-54329.1
-54215.5
-54099.8
-53992.4
-53873.3
-53780.8
-53623.6
-83734.6
-82718.8
-82121.2
-81338.2
-80682.6
-79990.5
-79345.9
-78704.2
-78087.5
-77483.4
-76897.4
-76325.7
-75769.4
-75227.2
-74699
-74184.1
-73682.2
-73192.7
-72715.2
-72249.4
-71794.9
-71351.2
-70918.1
-70495.1
-70082.1
-69678.5
-69284.2
-68898.8
-68522.1
-68153.7
-67793.5
-67441.1
-67096.3
-66758.9
-66428.5
-66105.5
-65788.5
-65479.9
-65176.5
-64879.9
-64588.9
-64303.9
-64024.5
-63750.5
-63481.9
-63218.5
-62960.2
-62706.8
-62458.2
-62214.3
-61974.9
-61739.9
-61509.3
-61282.8
-61060.4
-60842
-60627.5
-60416.7
-60209.6
-60006.1
-59806
-59609.4
-59416.1
-59226.2
-59039.3
-58855.6
-58674.9
-58497.2
-58322.3
-58150.2
-57980.8
-57814
-57649.9
-57488.3
-57329.1
-57172.4
-57018
-56865.9
-56716.1
-56568.5
-56423.1
-56279.7
-56138.5
-55999.2
-55861.9
-55726.5
-55593
-55461.3
-55331.4
-55203.3
-55077
-54952.1
-54829.4
-54707.3
-54588.7
-54468
-54355.7
-54231.8
-54134.5
-53972.8
-85326.1
-84271.5
-83647
-82832.3
-82148.6
-81427.8
-80756.1
-80087.5
-79445
-78815.5
-78204.9
-77609.3
-77029.7
-76464.7
-75914.4
-75377.9
-74854.9
-74344.8
-73847.4
-73362
-72888.4
-72426.1
-71974.8
-71534.1
-71103.6
-70683.1
-70272.3
-69870.7
-69478.2
-69094.3
-68719
-68351.8
-67992.3
-67640.6
-67295.2
-66959
-66624.5
-66307.2
-65990.6
-65682.7
-65379.5
-65082.7
-64791.5
-64506.1
-64226.2
-63951.7
-63682.5
-63418.4
-63159.4
-62905.2
-62655.7
-62410.9
-62170.5
-61934.6
-61702.8
-61475.2
-61251.7
-61032.1
-60816.2
-60604.2
-60395.7
-60190.9
-59989.4
-59791.5
-59596.8
-59405.4
-59217.1
-59031.9
-58849.7
-58670.3
-58493.8
-58320.1
-58149.1
-57980.7
-57814.8
-57651.5
-57490.7
-57332.3
-57176.2
-57022.4
-56870.8
-56721.5
-56574.3
-56429.2
-56286.1
-56145
-56005.9
-55868.7
-55733.5
-55600
-55468.4
-55338.3
-55210.4
-55083.3
-54959.7
-54834.1
-54716.9
-54588.2
-54486.2
-54319.9
-86908
-85814.7
-85163.5
-84317.1
-83605.7
-82856.3
-82157.6
-81462.4
-80794.1
-80139.5
-79504.5
-78885
-78282.2
-77694.7
-77122.3
-76564.3
-76020.4
-75489.9
-74972.5
-74467.8
-73975.2
-73494.4
-73025
-72566.6
-72119
-71681.6
-71254.3
-70836.7
-70428.5
-70029.3
-69639
-69257.1
-68883.5
-68517.7
-68159.6
-67809
-67464.8
-67132.4
-66803
-66481.8
-66166.2
-65857.1
-65554.1
-65257.1
-64965.9
-64680.4
-64400.4
-64125.7
-63856.3
-63591.9
-63332.4
-63077.8
-62827.8
-62582.4
-62341.4
-62104.7
-61872.1
-61643.7
-61419.2
-61198.6
-60981.6
-60768.6
-60558.8
-60353.2
-60150.7
-59951.7
-59756
-59563.4
-59373.9
-59187.4
-59003.8
-58823.1
-58645.2
-58470.1
-58297.6
-58127.8
-57960.5
-57795.7
-57633.4
-57473.4
-57315.8
-57160.5
-57007.4
-56856.5
-56707.7
-56561
-56416.4
-56273.7
-56133
-55994.2
-55857.4
-55722.1
-55589.1
-55457
-55328.3
-55197.9
-55075.8
-54942.3
-54835.6
-54664.9
-88479.7
-87348.1
-86670.3
-85792.5
-85053.4
-84275.7
-83550.2
-82828.5
-82134.6
-81455.1
-80795.7
-80152.6
-79526.8
-78916.8
-78322.5
-77743.2
-77178.5
-76627.7
-76090.6
-75566.5
-75055
-74555.8
-74068.5
-73592.6
-73127.8
-72673.7
-72230.1
-71796.5
-71372.7
-70958.3
-70553.2
-70156.7
-69768.9
-69389.1
-69014.9
-68651.8
-68266.6
-67948.5
-67606.1
-67274.8
-66947.4
-66626.5
-66311.9
-66003.4
-65701
-65404.5
-65113.7
-64828.5
-64548.7
-64274.2
-64004.8
-63740.4
-63480.9
-63226.1
-62975.8
-62730.1
-62488.7
-62251.5
-62018.4
-61789.4
-61564.1
-61342.9
-61125.1
-60911.5
-60701.3
-60494.7
-60291.4
-60091.5
-59894.7
-59701.1
-59510.5
-59322.9
-59138.2
-58956.4
-58777.3
-58601
-58427.3
-58256.2
-58087.7
-57921.6
-57758
-57596.7
-57437.8
-57281.1
-57126.7
-56974.4
-56824.2
-56676.1
-56530
-56385.9
-56243.9
-56103.5
-55965.4
-55828.2
-55694.7
-55559.3
-55432.5
-55294.2
-55182.8
-55007.7
-90040.9
-88871.2
-88167
-87258
-86491.5
-85685.5
-84933.5
-84185.4
-83466.2
-82761.8
-82078.4
-81411.7
-80763
-80130.7
-79514.7
-78914.2
-78328.8
-77757.9
-77201.1
-76657.8
-76127.7
-75610.2
-75105
-74611.7
-74129.9
-73659.2
-73199.3
-72749.9
-72310.6
-71881.1
-71461.2
-71050.2
-70648.9
-70254.6
-69871.6
-69488.4
-69127
-68770
-68412
-68064.5
-67724.2
-67390.8
-67064.5
-66744.6
-66431.1
-66123.6
-65822.2
-65526.6
-65236.5
-64952
-64672.7
-64398.7
-64129.6
-63865.5
-63606.1
-63351.3
-63101.1
-62855.2
-62613.5
-62376
-62141.9
-61912.7
-61685.1
-61465.4
-61247.5
-61033.9
-60823.3
-60616.1
-60412.2
-60211.4
-60013.9
-59819.4
-59627.9
-59439.4
-59253.8
-59071
-58891
-58713.6
-58538.9
-58366.8
-58197.2
-58030
-57865.3
-57702.9
-57542.8
-57384.9
-57229.3
-57075.8
-56924.4
-56775
-56627.8
-56482.3
-56339.2
-56197
-56058.5
-55918.3
-55786.7
-55643.7
-55527.7
-55348.2
-91591.3
-90383.8
-89653.3
-88713.4
-87919.6
-87085.7
-86307.1
-85533
-84788.5
-84059.4
-83352.1
-82662
-81990.6
-81336.2
-80698.6
-80077.1
-79471.1
-78880.3
-78303.9
-77741.6
-77192.9
-76657.3
-76134.4
-75623.7
-75125
-74637.8
-74161.8
-73696.6
-73242
-72797.5
-72363.5
-71938.4
-71525.6
-71117.8
-70736.4
-70333.8
-69871.3
-69577.7
-69224.4
-68848.5
-68497.9
-68150.1
-67812.3
-67480.7
-67156.1
-66837.8
-66525.8
-66219.8
-65919.6
-65625
-65336
-65052.3
-64773.8
-64500.4
-64232
-63968.3
-63709.4
-63454.9
-63204.9
-62959.3
-62717.3
-62480.3
-62245.2
-62016.1
-61791.2
-61569.5
-61351.7
-61137.1
-60926.1
-60718.2
-60513.8
-60312.4
-60114.3
-59919.1
-59727
-59537.8
-59351.4
-59167.9
-58987.1
-58808.9
-58633.3
-58460.3
-58289.8
-58121.7
-57956
-57792.6
-57631.5
-57472.7
-57316
-57161.4
-57009
-56858.4
-56710.3
-56563.2
-56419.8
-56274.8
-56138.4
-55990.8
-55870.1
-55686.3
-93130.4
-91885.3
-91128.8
-90158.1
-89337.3
-88475.6
-87670.8
-86870.7
-86101.2
-85347.7
-84616.5
-83903.3
-83209.3
-82532.9
-81873.9
-81231.5
-80605.2
-79994.4
-79398.7
-78817.5
-78250.4
-77696.7
-77156.2
-76628.4
-76112.9
-75609.3
-75117.3
-74636.4
-74166.4
-73706.9
-73257.7
-72818.4
-72388.9
-71968.9
-71558
-71159.6
-70760
-70365.3
-69993.7
-69620.8
-69258.6
-68901.9
-68553.1
-68210.9
-67875.5
-67546.7
-67224.2
-66907.9
-66597.6
-66293.1
-65994.4
-65701.2
-65413.4
-65130.8
-64853.4
-64580.9
-64313.3
-64050.3
-63792
-63537.6
-63286.6
-63040.8
-62784.4
-62561.9
-62329.6
-62101.5
-61876.6
-61654.6
-61436.5
-61221.5
-61010.1
-60802
-60597.1
-60395.4
-60196.8
-60001.2
-59808.5
-59618.8
-59431.9
-59247.7
-59066.3
-58887.5
-58711.2
-58537.5
-58366.2
-58197.4
-58030.9
-57866.6
-57704.7
-57544.9
-57387.4
-57231.8
-57078.7
-56926.7
-56778.5
-56628.7
-56487.6
-56335.3
-56209.9
-56022
-94657.9
-93375.6
-92593.2
-91592
-90744.3
-89855
-89024.2
-88198.3
-87404
-86626.2
-85871.4
-85135.2
-84418.8
-83720.6
-83040.3
-82377.1
-81730.7
-81100.2
-80485.3
-79885.3
-79299.9
-78728.3
-78170.4
-77625.5
-77093.3
-76573.4
-76065.5
-75569.1
-75083.9
-74609.4
-74145.6
-73691.8
-73247.8
-72813.2
-72385
-71969.9
-71532.1
-71162.3
-70771.2
-70391.1
-70016.6
-69649.1
-69289
-68935.8
-68589.7
-68250.2
-67917.3
-67590.8
-67270.5
-66956.2
-66647.8
-66345.1
-66048
-65756.3
-65470
-65188.7
-64912.5
-64641.2
-64374.8
-64113.3
-63855.7
-63606.1
-63350.8
-63101.7
-62866.8
-62628.9
-62397.3
-62167.8
-61942.7
-61720.8
-61502.5
-61287.6
-61076.2
-60867.9
-60662.9
-60461
-60262.2
-60066.3
-59873.4
-59683.3
-59496
-59311.4
-59129.4
-58950.1
-58773.3
-58599
-58427.1
-58257.6
-58090.5
-57925.5
-57763
-57602.3
-57444.3
-57287.4
-57134.4
-56979.9
-56834
-56677.2
-56547.2
-56355.1
-96173.5
-94854.1
-94046
-93014.6
-92140.3
-91223.6
-90366.9
-89515.5
-88696.5
-87894.6
-87116.5
-86357.4
-85618.8
-84898.9
-84197.5
-83513.8
-82847.3
-82197.2
-81563.3
-80944.7
-80341.1
-79751.8
-79176.5
-78614.7
-78066
-77530
-77006.2
-76494.4
-75994
-75504.8
-75026.5
-74558.6
-74100.8
-73653
-73213.8
-72785.5
-72362
-71951.7
-71549.5
-71155.2
-70769
-70390.1
-70018.9
-69654.9
-69298.1
-68948.1
-68604.9
-68268.3
-67938.1
-67614
-67296.1
-66984
-66677.7
-66377
-66081.9
-65791.9
-65507.8
-65228
-64956.3
-64684.3
-64434.3
-64156.8
-63873.5
-63647.6
-63416
-63156.2
-62918.1
-62678.5
-62446.1
-62216.6
-61991.5
-61769.7
-61551.6
-61336.8
-61125.4
-60917.2
-60712.2
-60510.3
-60311.3
-60115.4
-59922.2
-59731.9
-59544.3
-59359.4
-59177.2
-58997.5
-58820.3
-58645.5
-58473.2
-58303.1
-58135.5
-57969.9
-57807
-57645.2
-57487.4
-57328.2
-57177.7
-57016.3
-56881.7
-56685.5
-97676.7
-96320.6
-95487.1
-94425.6
-93524.9
-92581.1
-91698.7
-90822
-89978.6
-89152.7
-88351.3
-87569.7
-86809
-86067.6
-85345.3
-84641.2
-83954.8
-83285.3
-82632.6
-81995.5
-81374.2
-80767
-80174.6
-79595.9
-79030.7
-78478.7
-77939.2
-77412.1
-76896.7
-76392.9
-75900.1
-75418.1
-74946.2
-74484.8
-74031.6
-73590.2
-73152.3
-72733.4
-72318.1
-71913.1
-71515.1
-71125.3
-70743
-70368.2
-70000.8
-69640.4
-69287
-68940.3
-68600.2
-68266.5
-67939
-67617.6
-67302.1
-66992.3
-66688.2
-66389.5
-66096.2
-65807.7
-65524.8
-65245.3
-64972.9
-64698.6
-64438.2
-64184.2
-63925.4
-63673.9
-63426.2
-63182.6
-62943.2
-62707.5
-62475.7
-62247.5
-62022.9
-61801.8
-61584.1
-61369.7
-61158.6
-60950.6
-60745.7
-60543.9
-60345
-60149
-59955.8
-59765.4
-59577.7
-59392.6
-59210.2
-59030.2
-58852.7
-58677.6
-58505
-58334.4
-58166.6
-58000.1
-57837.6
-57673.7
-57518.6
-57352.6
-57213.5
-57013.3
-99167.1
-97774.6
-96915.9
-95824.6
-94897.7
-93927
-93019.2
-92117.4
-91249.7
-90400.2
-89575.8
-88771.6
-87989.1
-87226.4
-86483.3
-85759
-85052.8
-84364.1
-83692.6
-83037.1
-82398
-81773.5
-81163.9
-80568.6
-79987.3
-79419.3
-78864.4
-78322
-77791.8
-77273.5
-76766.6
-76270.7
-75785.5
-75310.9
-74845.8
-74391.3
-73945.1
-73509.9
-73083
-72665.2
-72255.7
-71854.4
-71461.1
-71075.5
-70697.5
-70326.8
-69963.2
-69606.6
-69256.7
-68913.4
-68576.5
-68245.9
-67921.3
-67602.6
-67289.7
-66982.4
-66680.7
-66383.9
-66092.7
-65805.6
-65523
-65245.4
-64958.8
-64706.8
-64444.3
-64187.2
-63933.3
-63683
-63436.9
-63194.5
-62956
-62721.3
-62490.2
-62262.8
-62038.8
-61818.3
-61601.1
-61387.2
-61176.4
-60968.8
-60764.2
-60562.5
-60363.8
-60167.9
-59974.8
-59784.4
-59596.7
-59411.6
-59229
-59048.9
-58871.3
-58695.9
-58523.2
-58351.9
-58184.7
-58016.2
-57856.5
-57686
-57542.3
-57338.2
-100645
-99216
-98332.2
-97211.4
-96258.5
-95261.1
-94328.1
-93401.4
-92509.7
-91636.6
-90789.4
-89963
-89158.8
-88375
-87611.4
-86866.9