# Time dispX dispY dispZ forceX forceY forceZ
0 0 0 0 0 0 0
1 1.06775e-06 -8.15503e-08 1.075e-23 100000 -0.000297729 3.37454e-19
