# Time Dx Dy Dz magD
1 0 -3.413755159936929e-07 0.004622392236820515 0.004622392249426243
