/*--------------------------------*- C++ -*----------------------------------*\
| =========                 |                                                 |
| \\      /  F ield         | foam-extend: Open Source CFD                    |
|  \\    /   O peration     | Version:     4.1                                |
|   \\  /    A nd           | Web:         http://www.foam-extend.org         |
|    \\/     M anipulation  |                                                 |
\*---------------------------------------------------------------------------*/
FoamFile
{
    version     2.0;
    format      ascii;
    class       volScalarField;
    location    "8";
    object      epsilonEq;
}
// * * * * * * * * * * * * * * * * * * * * * * * * * * * * * * * * * * * * * //

dimensions      [0 0 0 0 0 0 0];

internalField   nonuniform List<scalar> 
100000
(
1.16746e-05
1.76216e-05
1.7143e-05
1.63072e-05
1.90715e-05
2.10486e-05
2.11439e-05
2.12275e-05
2.12999e-05
2.07287e-05
1.91782e-05
1.76621e-05
1.63403e-05
1.51162e-05
1.32557e-05
1.1723e-05
1.03324e-05
9.10725e-06
8.19444e-06
7.4864e-06
6.68047e-06
6.02804e-06
5.53179e-06
5.18974e-06
4.99198e-06
4.93932e-06
4.93465e-06
4.93259e-06
4.93281e-06
4.93486e-06
4.93874e-06
4.94359e-06
4.95036e-06
4.95592e-06
4.96005e-06
4.96669e-06
4.97466e-06
4.98389e-06
4.99398e-06
5.00639e-06
5.02089e-06
5.0368e-06
5.05353e-06
5.07058e-06
5.08754e-06
5.10406e-06
5.11987e-06
5.13475e-06
5.14851e-06
5.16103e-06
5.17221e-06
5.18217e-06
5.1909e-06
5.19961e-06
5.20679e-06
5.2122e-06
5.21592e-06
5.218e-06
5.21853e-06
5.21772e-06
5.2166e-06
5.21001e-06
5.20131e-06
5.1961e-06
5.18918e-06
5.17662e-06
5.16529e-06
5.15573e-06
5.14892e-06
5.14373e-06
5.14302e-06
5.15854e-06
5.18917e-06
5.23496e-06
5.29582e-06
5.37142e-06
5.46136e-06
5.56502e-06
5.68176e-06
5.81088e-06
5.95152e-06
6.1029e-06
6.26425e-06
6.43693e-06
6.62005e-06
6.81109e-06
7.00929e-06
7.17798e-06
7.35461e-06
7.5654e-06
7.78661e-06
8.01242e-06
8.2425e-06
8.47656e-06
8.7145e-06
8.95612e-06
9.20042e-06
9.44841e-06
9.69365e-06
1.00027e-05
1.15786e-05
1.74168e-05
1.62359e-05
1.86382e-05
2.09428e-05
2.10561e-05
2.11565e-05
2.12451e-05
2.13216e-05
2.13874e-05
2.14427e-05
2.13791e-05
2.00526e-05
1.88011e-05
1.76188e-05
1.65731e-05
1.5593e-05
1.46873e-05
1.39715e-05
1.28451e-05
1.18185e-05
1.0887e-05
1.00463e-05
9.29235e-06
8.64879e-06
8.14988e-06
7.68848e-06
7.22684e-06
6.82972e-06
6.75665e-06
6.71095e-06
6.67789e-06
7.07393e-06
6.64381e-06
6.64034e-06
6.6456e-06
6.65813e-06
6.68732e-06
6.73255e-06
6.77006e-06
6.79988e-06
6.83549e-06
6.87638e-06
6.92211e-06
6.97236e-06
7.02675e-06
7.08491e-06
7.14658e-06
7.21146e-06
7.27923e-06
7.34958e-06
7.42232e-06
7.50096e-06
7.58263e-06
7.66427e-06
7.74584e-06
7.82709e-06
7.90792e-06
7.98817e-06
8.06776e-06
8.14609e-06
8.25022e-06
8.33238e-06
8.41818e-06
8.50406e-06
8.58986e-06
8.67546e-06
8.7608e-06
8.84574e-06
8.9139e-06
8.9622e-06
9.03549e-06
9.11385e-06
9.19141e-06
9.26813e-06
9.34395e-06
9.41885e-06
9.49279e-06
9.56575e-06
9.63767e-06
9.70852e-06
9.90098e-06
1.0132e-05
1.03652e-05
1.06005e-05
1.08377e-05
1.10765e-05
1.13167e-05
1.13842e-05
1.13475e-05
1.13114e-05
1.12761e-05
1.13704e-05
1.15236e-05
1.16774e-05
1.18348e-05
1.19978e-05
1.21613e-05
1.23214e-05
1.24255e-05
1.14801e-05
1.6249e-05
1.80085e-05
2.08139e-05
2.0946e-05
2.10647e-05
2.11699e-05
2.12626e-05
2.13433e-05
2.14124e-05
2.14708e-05
2.1519e-05
2.1557e-05
2.15866e-05
2.13376e-05
2.02718e-05
1.92806e-05
1.83425e-05
1.74871e-05
1.67093e-05
1.59795e-05
1.53053e-05
1.46833e-05
1.4264e-05
1.45269e-05
1.46842e-05
1.45293e-05
1.43939e-05
1.42964e-05
1.42256e-05
1.41365e-05
1.40601e-05
1.39965e-05
1.3945e-05
1.39053e-05
1.38758e-05
1.38559e-05
1.38448e-05
1.37661e-05
1.36227e-05
1.34429e-05
1.32739e-05
1.31308e-05
1.30121e-05
1.29164e-05
1.28423e-05
1.27884e-05
1.27538e-05
1.27371e-05
1.27374e-05
1.27536e-05
1.2785e-05
1.28307e-05
1.28898e-05
1.29616e-05
1.30455e-05
1.31407e-05
1.32467e-05
1.33628e-05
1.34886e-05
1.3623e-05
1.37968e-05
1.39494e-05
1.41097e-05
1.42774e-05
1.44519e-05
1.46328e-05
1.48199e-05
1.50127e-05
1.52108e-05
1.52995e-05
1.51359e-05
1.49712e-05
1.48054e-05
1.46387e-05
1.44712e-05
1.42572e-05
1.40873e-05
1.4053e-05
1.40176e-05
1.39746e-05
1.39324e-05
1.38928e-05
1.38527e-05
1.38118e-05
1.37704e-05
1.37282e-05
1.36853e-05
1.36419e-05
1.35979e-05
1.37214e-05
1.38672e-05
1.40192e-05
1.41683e-05
1.43138e-05
1.44584e-05
1.46018e-05
1.47434e-05
1.4883e-05
1.50838e-05
1.25959e-05
1.78797e-05
2.11443e-05
2.10584e-05
2.09762e-05
2.10743e-05
2.1184e-05
2.12804e-05
2.13645e-05
2.14368e-05
2.14979e-05
2.15487e-05
2.15891e-05
2.16205e-05
2.1643e-05
2.16571e-05
2.16638e-05
2.16631e-05
2.11934e-05
2.03939e-05
1.97062e-05
1.97182e-05
1.97276e-05
1.97471e-05
1.98092e-05
1.98393e-05
1.98463e-05
1.98532e-05
1.98597e-05
1.94817e-05
1.89916e-05
1.84956e-05
1.80384e-05
1.77004e-05
1.75061e-05
1.73204e-05
1.71436e-05
1.69749e-05
1.68141e-05
1.66578e-05
1.65089e-05
1.63698e-05
1.62381e-05
1.61126e-05
1.59932e-05
1.58795e-05
1.57714e-05
1.56687e-05
1.55709e-05
1.54782e-05
1.53901e-05
1.53067e-05
1.52275e-05
1.51525e-05
1.50816e-05
1.50145e-05
1.49511e-05
1.48914e-05
1.48351e-05
1.48618e-05
1.49413e-05
1.50405e-05
1.5136e-05
1.52384e-05
1.53473e-05
1.54625e-05
1.55835e-05
1.57102e-05
1.5842e-05
1.59788e-05
1.61203e-05
1.62662e-05
1.64162e-05
1.65701e-05
1.67277e-05
1.689e-05
1.70545e-05
1.71513e-05
1.72317e-05
1.73166e-05
1.74058e-05
1.73622e-05
1.728e-05
1.71995e-05
1.7121e-05
1.70442e-05
1.69689e-05
1.6895e-05
1.68226e-05
1.67534e-05
1.67489e-05
1.67391e-05
1.65917e-05
1.63205e-05
1.6039e-05
1.58828e-05
1.58258e-05
1.57674e-05
1.57094e-05
1.56757e-05
1.52289e-05
2.22331e-05
2.19984e-05
2.20096e-05
2.19998e-05
2.19853e-05
2.20208e-05
2.20909e-05
2.21448e-05
2.21831e-05
2.22073e-05
2.22182e-05
2.2217e-05
2.2204e-05
2.21808e-05
2.21477e-05
2.21056e-05
2.20554e-05
2.28323e-05
2.35592e-05
2.42213e-05
2.48412e-05
2.53861e-05
2.57173e-05
2.51045e-05
2.42023e-05
2.3355e-05
2.25596e-05
2.18137e-05
2.11162e-05
2.04742e-05
1.98744e-05
1.93143e-05
1.87936e-05
1.83031e-05
1.78377e-05
1.74023e-05
1.69954e-05
1.66155e-05
1.62804e-05
1.60607e-05
1.58765e-05
1.57095e-05
1.55588e-05
1.54236e-05
1.53029e-05
1.51961e-05
1.51024e-05
1.50211e-05
1.49516e-05
1.48932e-05
1.47849e-05
1.4673e-05
1.4577e-05
1.44964e-05
1.44304e-05
1.43783e-05
1.43395e-05
1.43137e-05
1.43016e-05
1.43014e-05
1.43025e-05
1.43081e-05
1.43236e-05
1.43491e-05
1.43841e-05
1.44281e-05
1.44808e-05
1.45419e-05
1.46109e-05
1.46876e-05
1.47716e-05
1.48625e-05
1.49601e-05
1.50642e-05
1.51744e-05
1.53352e-05
1.54571e-05
1.54476e-05
1.54436e-05
1.54449e-05
1.5451e-05
1.54619e-05
1.54773e-05
1.54967e-05
1.55205e-05
1.5548e-05
1.55791e-05
1.56135e-05
1.56511e-05
1.55211e-05
1.53701e-05
1.51764e-05
1.51555e-05
1.51672e-05
1.51849e-05
1.52016e-05
1.5212e-05
1.52242e-05
1.52909e-05
1.88896e-05
2.12627e-05
2.15548e-05
2.18147e-05
2.20482e-05
2.20768e-05
2.20708e-05
2.20617e-05
2.20489e-05
2.20298e-05
2.2005e-05
2.19742e-05
2.19391e-05
2.18986e-05
2.1854e-05
2.18051e-05
2.17525e-05
2.16904e-05
2.20698e-05
2.26802e-05
2.29137e-05
2.24628e-05
2.20291e-05
2.14001e-05
2.06032e-05
1.98494e-05
1.91317e-05
1.84478e-05
1.77965e-05
1.71768e-05
1.67099e-05
1.63062e-05
1.59183e-05
1.54655e-05
1.4921e-05
1.44157e-05
1.39478e-05
1.35152e-05
1.31167e-05
1.27509e-05
1.24149e-05
1.21066e-05
1.18254e-05
1.15697e-05
1.1338e-05
1.11292e-05
1.09419e-05
1.07749e-05
1.06271e-05
1.04974e-05
1.0383e-05
1.02852e-05
1.02042e-05
1.01379e-05
1.00854e-05
1.00461e-05
1.00192e-05
1.00042e-05
1.00005e-05
9.93499e-06
9.84172e-06
9.74415e-06
9.64316e-06
9.54801e-06
9.45859e-06
9.37467e-06
9.29608e-06
9.22259e-06
9.15405e-06
9.09034e-06
9.0312e-06
8.97648e-06
8.92608e-06
8.87979e-06
8.83752e-06
8.79908e-06
8.7644e-06
8.78997e-06
8.83877e-06
8.88884e-06
8.94067e-06
8.99504e-06
9.0506e-06
9.10791e-06
9.16678e-06
9.22659e-06
9.28783e-06
9.35072e-06
9.41461e-06
9.4793e-06
9.5655e-06
9.84162e-06
1.01311e-05
1.04936e-05
1.08536e-05
1.10949e-05
1.12445e-05
1.13938e-05
1.15476e-05
1.18555e-05
2.12363e-05
2.06222e-05
2.08078e-05
2.09754e-05
2.11265e-05
2.12622e-05
2.13415e-05
2.13672e-05
2.13897e-05
2.14092e-05
2.14254e-05
2.14386e-05
2.14484e-05
2.14553e-05
2.06858e-05
1.97155e-05
1.84453e-05
1.71993e-05
1.52378e-05
1.41867e-05
1.33556e-05
1.25885e-05
1.18666e-05
1.11975e-05
1.07922e-05
1.04614e-05
1.01514e-05
9.86129e-06
9.5899e-06
9.33106e-06
9.07963e-06
8.84841e-06
8.612e-06
8.3421e-06
8.09566e-06
7.87131e-06
7.66755e-06
7.48302e-06
7.31632e-06
7.15213e-06
6.98111e-06
6.82456e-06
6.68147e-06
6.55105e-06
6.43238e-06
6.32467e-06
6.2271e-06
5.85386e-06
5.45159e-06
5.22417e-06
5.15577e-06
5.20941e-06
5.34111e-06
5.53298e-06
5.77808e-06
6.04365e-06
6.31398e-06
6.57839e-06
6.8288e-06
7.05998e-06
7.1744e-06
7.2311e-06
7.26254e-06
7.26832e-06
7.24951e-06
7.20729e-06
7.14305e-06
7.05828e-06
6.95473e-06
6.83427e-06
6.69899e-06
6.55122e-06
6.3934e-06
6.22837e-06
6.05923e-06
5.88949e-06
5.72286e-06
5.56378e-06
5.41716e-06
5.09859e-06
5.18145e-06
5.10335e-06
5.05921e-06
5.05235e-06
5.25333e-06
5.28947e-06
5.27753e-06
5.42698e-06
5.61459e-06
5.76318e-06
5.97568e-06
6.20607e-06
6.4159e-06
6.52553e-06
6.61693e-06
6.71108e-06
6.80872e-06
6.90759e-06
7.01236e-06
7.10362e-06
2.21703e-05
2.06889e-05
2.08098e-05
2.09812e-05
2.11356e-05
2.12741e-05
2.13973e-05
2.15061e-05
2.16008e-05
2.03946e-05
1.91603e-05
1.79955e-05
1.68964e-05
1.54822e-05
1.41603e-05
1.29254e-05
1.17716e-05
1.06414e-05
9.06307e-06
7.4646e-06
7.09483e-06
6.77001e-06
6.38547e-06
6.15894e-06
6.084e-06
6.01607e-06
5.95459e-06
5.89903e-06
5.84882e-06
5.80346e-06
5.76254e-06
5.77027e-06
4.98936e-06
5.26017e-06
6.4036e-06
7.94359e-06
9.60845e-06
1.12797e-05
1.29059e-05
1.44639e-05
1.59431e-05
1.73395e-05
1.86518e-05
1.97513e-05
2.03761e-05
2.09469e-05
2.14739e-05
2.19912e-05
2.24324e-05
2.27965e-05
2.31182e-05
2.33991e-05
2.36424e-05
2.38506e-05
2.4021e-05
2.4154e-05
2.42546e-05
2.43241e-05
2.43635e-05
2.4253e-05
2.41079e-05
2.39754e-05
2.38203e-05
2.36434e-05
2.34457e-05
2.32282e-05
2.2992e-05
2.27377e-05
2.24665e-05
2.21793e-05
2.18769e-05
2.15601e-05
2.12298e-05
2.08868e-05
2.05318e-05
2.01655e-05
1.97887e-05
1.94019e-05
1.90062e-05
1.86016e-05
1.81892e-05
1.77702e-05
1.73446e-05
1.69134e-05
1.64742e-05
1.6026e-05
1.55762e-05
1.50569e-05
1.44585e-05
1.38601e-05
1.33636e-05
1.30683e-05
1.27704e-05
1.24702e-05
1.21679e-05
1.18637e-05
1.15572e-05
1.12507e-05
1.09377e-05
1.0637e-05
2.21713e-05
2.07591e-05
2.08155e-05
2.09901e-05
2.11468e-05
1.97555e-05
1.82166e-05
1.67674e-05
1.54901e-05
1.43975e-05
1.29814e-05
1.13475e-05
9.95452e-06
8.7602e-06
8.19834e-06
7.70947e-06
7.43171e-06
7.21264e-06
7.00377e-06
6.03257e-06
5.54881e-06
5.5747e-06
5.64748e-06
4.77399e-06
5.75711e-06
8.44295e-06
1.15139e-05
1.45915e-05
1.73065e-05
1.90861e-05
2.07618e-05
2.24767e-05
2.43116e-05
2.55791e-05
2.66452e-05
2.75373e-05
2.83652e-05
2.89355e-05
2.70275e-05
2.52029e-05
2.34599e-05
2.17961e-05
2.01861e-05
1.85867e-05
1.70975e-05
1.57389e-05
1.44544e-05
1.27379e-05
1.08682e-05
9.19208e-06
7.74186e-06
6.5662e-06
5.73211e-06
5.29935e-06
5.2971e-06
5.66259e-06
6.26963e-06
7.01621e-06
8.07107e-06
9.16913e-06
1.01439e-05
1.10076e-05
1.18187e-05
1.25722e-05
1.32662e-05
1.38993e-05
1.44719e-05
1.49846e-05
1.54387e-05
1.58354e-05
1.61764e-05
1.64635e-05
1.6698e-05
1.68818e-05
1.70165e-05
1.71036e-05
1.68829e-05
1.65781e-05
1.62669e-05
1.59504e-05
1.56285e-05
1.53032e-05
1.49727e-05
1.46394e-05
1.43015e-05
1.39458e-05
1.35613e-05
1.31896e-05
1.28078e-05
1.25661e-05
1.2321e-05
1.2083e-05
1.18521e-05
1.16285e-05
1.14121e-05
1.12035e-05
1.10024e-05
1.08077e-05
1.06272e-05
9.61705e-06
2.21654e-05
2.08294e-05
1.86921e-05
1.68548e-05
1.52438e-05
1.39081e-05
1.24611e-05
1.10748e-05
9.42913e-06
8.90397e-06
8.42615e-06
7.80451e-06
7.14341e-06
6.83349e-06
6.7392e-06
6.86097e-06
6.62287e-06
5.54534e-06
8.0748e-06
1.10625e-05
1.38425e-05
1.36965e-05
1.08068e-05
1.00422e-05
9.59155e-06
8.96546e-06
9.34395e-06
1.03252e-05
1.14289e-05
1.31509e-05
1.53044e-05
1.73621e-05
2.15682e-05
2.58498e-05
2.99477e-05
3.38706e-05
3.75958e-05
3.87191e-05
3.89959e-05
3.9101e-05
3.91758e-05
3.92204e-05
3.92373e-05
3.90941e-05
3.85251e-05
3.79591e-05
3.7396e-05
3.68365e-05
3.62794e-05
3.57258e-05
3.51752e-05
3.46276e-05
3.40837e-05
3.35428e-05
3.30049e-05
3.2471e-05
3.20165e-05
3.18856e-05
3.17545e-05
3.14624e-05
3.11493e-05
3.08339e-05
3.05169e-05
3.01981e-05
2.98777e-05
2.9556e-05
2.92329e-05
2.89083e-05
2.85828e-05
2.82563e-05
2.79289e-05
2.76009e-05
2.72723e-05
2.69431e-05
2.66134e-05
2.6261e-05
2.59128e-05
2.55829e-05
2.52563e-05
2.49296e-05
2.46031e-05
2.4277e-05
2.39511e-05
2.36128e-05
2.31926e-05
2.27695e-05
2.23491e-05
2.1861e-05
2.13239e-05
2.07895e-05
2.02577e-05
1.97291e-05
1.92041e-05
1.8683e-05
1.81661e-05
1.76538e-05
1.71457e-05
1.6643e-05
1.6137e-05
1.5208e-05
1.83256e-05
1.53269e-05
1.31587e-05
1.14019e-05
9.80397e-06
9.62009e-06
9.05783e-06
8.22306e-06
7.62319e-06
7.28831e-06
7.57034e-06
7.12868e-06
6.20671e-06
6.10349e-06
1.0453e-05
1.63958e-05
2.35199e-05
3.04348e-05
3.52874e-05
3.98101e-05
4.35711e-05
4.70123e-05
5.04159e-05
5.22406e-05
5.29575e-05
5.36107e-05
5.42036e-05
5.4739e-05
5.49477e-05
5.42871e-05
5.36308e-05
5.29783e-05
5.23301e-05
5.16857e-05
5.09688e-05
5.01537e-05
4.91938e-05
4.82157e-05
4.48302e-05
4.15442e-05
3.84104e-05
3.54218e-05
3.2575e-05
2.9864e-05
2.72858e-05
2.48367e-05
2.25131e-05
2.03132e-05
1.8235e-05
1.62775e-05
1.44419e-05
1.27301e-05
1.11483e-05
9.7054e-06
8.41654e-06
7.37603e-06
5.60323e-06
6.02418e-06
5.48317e-06
5.21303e-06
5.20588e-06
5.42003e-06
5.79515e-06
6.27282e-06
6.80732e-06
7.36606e-06
7.92746e-06
8.47752e-06
9.00712e-06
9.51032e-06
9.98355e-06
1.04246e-05
1.08322e-05
1.12058e-05
1.15451e-05
1.18505e-05
1.18737e-05
1.18245e-05
1.17766e-05
1.17298e-05
1.1684e-05
1.16393e-05
1.1679e-05
1.17133e-05
1.17506e-05
1.17652e-05
1.17223e-05
1.16801e-05
1.16387e-05
1.15982e-05
1.15631e-05
1.15629e-05
1.15626e-05
1.15622e-05
1.15618e-05
1.15614e-05
1.1561e-05
1.15614e-05
1.15598e-05
1.14446e-05
1.3138e-05
1.13604e-05
9.53881e-06
9.26793e-06
8.61961e-06
9.1915e-06
9.6324e-06
1.51983e-05
2.1731e-05
3.01778e-05
3.87084e-05
4.77688e-05
5.48399e-05
6.23612e-05
6.80499e-05
6.46431e-05
6.20101e-05
6.40689e-05
6.59756e-05
6.69851e-05
6.6569e-05
6.3027e-05
5.59075e-05
4.93962e-05
4.34427e-05
3.75611e-05
3.19756e-05
2.66858e-05
2.17006e-05
1.70491e-05
1.28092e-05
9.19374e-06
6.78769e-06
6.58409e-06
8.45723e-06
1.12368e-05
1.42715e-05
1.51219e-05
1.50272e-05
1.4935e-05
1.48447e-05
1.47564e-05
1.46704e-05
1.45858e-05
1.45038e-05
1.44231e-05
1.43442e-05
1.42669e-05
1.41905e-05
1.41159e-05
1.40426e-05
1.39706e-05
1.38999e-05
1.38306e-05
1.36014e-05
1.31446e-05
1.27922e-05
1.27336e-05
1.26784e-05
1.2623e-05
1.25686e-05
1.25146e-05
1.24615e-05
1.2409e-05
1.2357e-05
1.23057e-05
1.22551e-05
1.2205e-05
1.21554e-05
1.21065e-05
1.2058e-05
1.20101e-05
1.19627e-05
1.19157e-05
1.18691e-05
1.1823e-05
1.17773e-05
1.17509e-05
1.17519e-05
1.17525e-05
1.18288e-05
1.19052e-05
1.19823e-05
1.20533e-05
1.20487e-05
1.20434e-05
1.20377e-05
1.20314e-05
1.20245e-05
1.20165e-05
1.2005e-05
1.19933e-05
1.19839e-05
1.19741e-05
1.19638e-05
1.19531e-05
1.19419e-05
1.19312e-05
1.19176e-05
1.19131e-05
1.14907e-05
1.17893e-05
1.15357e-05
2.49419e-05
3.866e-05
4.90545e-05
5.96123e-05
7.06364e-05
7.9284e-05
7.52326e-05
7.07393e-05
6.77638e-05
7.02123e-05
6.22256e-05
5.16307e-05
4.28439e-05
3.39833e-05
2.57006e-05
1.80765e-05
1.15249e-05
7.75533e-06
9.65636e-06
1.45445e-05
1.67872e-05
1.6641e-05
1.64998e-05
1.63635e-05
1.62316e-05
1.6104e-05
1.59805e-05
1.58608e-05
1.57446e-05
1.56317e-05
1.5522e-05
1.5415e-05
1.53111e-05
1.52097e-05
1.51113e-05
1.50152e-05
1.49215e-05
1.48303e-05
1.47407e-05
1.46538e-05
1.45684e-05
1.4485e-05
1.44037e-05
1.43235e-05
1.42452e-05
1.41681e-05
1.40926e-05
1.40184e-05
1.39456e-05
1.38743e-05
1.36182e-05
1.31497e-05
1.28326e-05
1.27739e-05
1.27165e-05
1.26602e-05
1.26041e-05
1.25491e-05
1.24949e-05
1.24412e-05
1.23883e-05
1.23361e-05
1.23075e-05
1.23108e-05
1.23138e-05
1.23162e-05
1.23181e-05
1.23196e-05
1.23206e-05
1.23211e-05
1.23214e-05
1.23212e-05
1.23205e-05
1.23182e-05
1.23134e-05
1.23837e-05
1.24601e-05
1.25368e-05
1.26168e-05
1.26107e-05
1.26034e-05
1.25956e-05
1.25872e-05
1.25782e-05
1.25688e-05
1.2559e-05
1.25486e-05
1.2533e-05
1.24824e-05
1.24321e-05
1.23822e-05
1.23329e-05
1.22842e-05
1.2236e-05
1.2189e-05
1.21415e-05
1.20827e-05
3.22353e-05
5.79837e-05
7.11283e-05
8.53419e-05
8.75901e-05
8.07449e-05
7.53231e-05
6.36149e-05
5.08175e-05
3.91515e-05
2.73606e-05
1.69299e-05
9.89661e-06
1.19805e-05
1.84963e-05
1.81535e-05
1.7984e-05
1.78207e-05
1.76633e-05
1.75112e-05
1.73645e-05
1.7249e-05
1.69746e-05
1.68046e-05
1.66556e-05
1.65118e-05
1.63728e-05
1.62383e-05
1.61084e-05
1.59825e-05
1.58606e-05
1.57422e-05
1.56274e-05
1.55161e-05
1.54075e-05
1.53021e-05
1.51992e-05
1.50989e-05
1.50016e-05
1.49061e-05
1.48138e-05
1.47231e-05
1.46349e-05
1.45488e-05
1.44642e-05
1.43818e-05
1.43008e-05
1.42215e-05
1.41435e-05
1.40672e-05
1.39925e-05
1.39185e-05
1.36488e-05
1.31678e-05
1.28823e-05
1.28881e-05
1.2893e-05
1.28973e-05
1.29015e-05
1.29051e-05
1.2908e-05
1.29105e-05
1.29126e-05
1.2914e-05
1.29149e-05
1.29153e-05
1.2915e-05
1.29141e-05
1.29129e-05
1.29111e-05
1.29089e-05
1.29063e-05
1.29033e-05
1.28999e-05
1.2896e-05
1.28918e-05
1.29654e-05
1.30203e-05
1.30478e-05
1.30783e-05
1.30317e-05
1.29778e-05
1.29241e-05
1.28708e-05
1.28179e-05
1.27651e-05
1.27127e-05
1.26605e-05
1.26087e-05
1.25574e-05
1.25065e-05
1.24562e-05
1.24063e-05
1.2357e-05
1.23081e-05
1.22598e-05
1.21852e-05
1.21003e-05
1.20192e-05
1.19259e-05
9.34845e-05
9.45154e-05
8.43678e-05
6.26724e-05
4.22428e-05
2.81787e-05
1.53493e-05
1.20803e-05
1.99387e-05
1.94244e-05
1.91961e-05
1.89786e-05
1.87709e-05
1.85725e-05
1.83828e-05
1.82008e-05
1.80262e-05
1.78582e-05
1.76967e-05
1.75412e-05
1.73912e-05
1.72463e-05
1.70839e-05
1.68114e-05
1.66681e-05
1.65212e-05
1.63795e-05
1.62425e-05
1.61102e-05
1.59821e-05
1.5858e-05
1.57377e-05
1.56208e-05
1.55076e-05
1.53973e-05
1.52903e-05
1.51863e-05
1.50844e-05
1.49859e-05
1.48891e-05
1.47952e-05
1.47038e-05
1.46141e-05
1.4527e-05
1.44415e-05
1.43992e-05
1.43954e-05
1.43915e-05
1.43874e-05
1.43824e-05
1.4378e-05
1.41758e-05
1.37481e-05
1.35275e-05
1.35345e-05
1.35395e-05
1.35404e-05
1.35407e-05
1.35405e-05
1.354e-05
1.3539e-05
1.35374e-05
1.35353e-05
1.35329e-05
1.353e-05
1.35031e-05
1.34441e-05
1.33857e-05
1.33278e-05
1.32705e-05
1.32139e-05
1.31579e-05
1.31025e-05
1.30555e-05
1.3081e-05
1.31051e-05
1.31306e-05
1.31587e-05
1.31124e-05
1.30576e-05
1.30032e-05
1.29492e-05
1.28955e-05
1.28422e-05
1.27892e-05
1.27366e-05
1.26844e-05
1.26326e-05
1.25812e-05
1.25301e-05
1.24795e-05
1.24294e-05
1.23798e-05
1.22932e-05
1.22047e-05
1.21204e-05
1.2039e-05
1.19571e-05
1.18763e-05
1.18042e-05
5.79808e-05
3.22168e-05
1.66697e-05
1.58017e-05
2.10739e-05
2.05737e-05
2.02846e-05
2.00106e-05
1.97504e-05
1.95034e-05
1.92684e-05
1.9045e-05
1.88319e-05
1.86281e-05
1.84326e-05
1.82454e-05
1.80662e-05
1.78941e-05
1.77285e-05
1.7569e-05
1.74153e-05
1.72668e-05
1.71234e-05
1.69163e-05
1.66699e-05
1.65279e-05
1.63836e-05
1.62441e-05
1.61094e-05
1.59793e-05
1.58532e-05
1.5731e-05
1.56122e-05
1.54969e-05
1.53852e-05
1.52762e-05
1.51709e-05
1.51227e-05
1.51164e-05
1.51101e-05
1.51035e-05
1.59023e-05
1.66662e-05
1.73512e-05
1.79659e-05
1.85112e-05
1.89759e-05
1.93639e-05
1.96861e-05
1.99438e-05
1.99628e-05
1.96612e-05
1.95198e-05
1.95579e-05
1.95355e-05
1.94063e-05
1.92328e-05
1.90179e-05
1.87635e-05
1.84715e-05
1.81444e-05
1.77841e-05
1.73925e-05
1.69718e-05
1.65239e-05
1.60503e-05
1.55531e-05
1.50339e-05
1.44946e-05
1.39372e-05
1.33636e-05
1.31543e-05
1.3176e-05
1.31977e-05
1.32211e-05
1.32462e-05
1.31939e-05
1.31383e-05
1.30829e-05
1.3028e-05
1.29735e-05
1.29195e-05
1.28659e-05
1.28126e-05
1.27597e-05
1.27072e-05
1.26551e-05
1.26034e-05
1.25523e-05
1.24999e-05
1.24066e-05
1.23148e-05
1.22275e-05
1.21427e-05
1.20563e-05
1.19714e-05
1.19144e-05
1.18707e-05
1.18264e-05
1.17809e-05
1.83295e-05
2.20824e-05
2.16819e-05
2.13266e-05
2.0994e-05
2.06797e-05
2.03822e-05
2.01006e-05
1.98332e-05
1.95798e-05
1.93382e-05
1.91086e-05
1.88891e-05
1.868e-05
1.84801e-05
1.82884e-05
1.81042e-05
1.79271e-05
1.77572e-05
1.75938e-05
1.74365e-05
1.72847e-05
1.71381e-05
1.70009e-05
1.67597e-05
1.65327e-05
1.63858e-05
1.62439e-05
1.61069e-05
1.59746e-05
1.58945e-05
1.58828e-05
1.5872e-05
1.58611e-05
1.64927e-05
1.79248e-05
1.92697e-05
2.05182e-05
2.1651e-05
2.26766e-05
2.37551e-05
2.47509e-05
2.5455e-05
2.60698e-05
2.66084e-05
2.69272e-05
2.67323e-05
2.6538e-05
2.6345e-05
2.60124e-05
2.53632e-05
2.49337e-05
2.47594e-05
2.45859e-05
2.44133e-05
2.4242e-05
2.40717e-05
2.39023e-05
2.37341e-05
2.35667e-05
2.34002e-05
2.32347e-05
2.30703e-05
2.29067e-05
2.27442e-05
2.25827e-05
2.23692e-05
2.1807e-05
2.1224e-05
2.06219e-05
1.99881e-05
1.94001e-05
1.88226e-05
1.82249e-05
1.75393e-05
1.68419e-05
1.61339e-05
1.54167e-05
1.46919e-05
1.3961e-05
1.32258e-05
1.28886e-05
1.2835e-05
1.27819e-05
1.27292e-05
1.26768e-05
1.26215e-05
1.25249e-05
1.243e-05
1.23395e-05
1.22511e-05
1.21612e-05
1.20729e-05
1.20236e-05
1.19782e-05
1.19333e-05
1.18888e-05
1.18453e-05
1.18013e-05
1.17561e-05
1.90077e-05
2.21796e-05
2.18109e-05
2.14468e-05
2.11048e-05
2.07828e-05
2.04768e-05
2.01876e-05
1.99134e-05
1.96531e-05
1.94054e-05
1.91694e-05
1.89444e-05
1.87298e-05
1.85245e-05
1.83277e-05
1.8139e-05
1.79581e-05
1.77843e-05
1.7617e-05
1.7456e-05
1.73006e-05
1.71507e-05
1.70057e-05
1.68893e-05
1.67752e-05
1.66777e-05
1.66601e-05
1.66438e-05
1.66443e-05
1.83929e-05
2.03379e-05
2.21463e-05
2.39748e-05
2.58898e-05
2.74905e-05
2.87138e-05
2.87513e-05
2.85356e-05
2.83228e-05
2.81124e-05
2.7064e-05
2.60615e-05
2.51478e-05
2.42995e-05
2.34625e-05
2.27472e-05
2.21743e-05
2.158e-05
2.06734e-05
2.00193e-05
1.97064e-05
1.94487e-05
1.92436e-05
1.90879e-05
1.89794e-05
1.8916e-05
1.88951e-05
1.89146e-05
1.89726e-05
1.90674e-05
1.91969e-05
1.93595e-05
1.95536e-05
1.97775e-05
2.00299e-05
2.03194e-05
2.06497e-05
2.09864e-05
2.1362e-05
2.18233e-05
2.19089e-05
2.17595e-05
2.16114e-05
2.14644e-05
2.13186e-05
2.11739e-05
2.10305e-05
2.08883e-05
2.02902e-05
1.9448e-05
1.85868e-05
1.77701e-05
1.69584e-05
1.60956e-05
1.52324e-05
1.43721e-05
1.35149e-05
1.26601e-05
1.21814e-05
1.21343e-05
1.20877e-05
1.20416e-05
1.19961e-05
1.19509e-05
1.19063e-05
1.18621e-05
1.18187e-05
1.17749e-05
1.173e-05
1.91239e-05
2.2315e-05
2.19364e-05
2.15633e-05
2.12124e-05
2.08823e-05
2.05683e-05
2.02723e-05
1.99902e-05
1.97234e-05
1.94694e-05
1.92278e-05
1.89965e-05
1.87763e-05
1.85659e-05
1.83647e-05
1.81718e-05
1.79866e-05
1.78086e-05
1.76511e-05
1.76461e-05
1.76422e-05
1.76392e-05
1.76466e-05
1.76915e-05
1.77052e-05
1.84095e-05
2.0822e-05
2.31972e-05
2.58856e-05
2.84855e-05
3.02568e-05
3.00825e-05
2.98476e-05
2.89512e-05
2.72495e-05
2.53879e-05
2.3675e-05
2.23303e-05
2.11334e-05
2.0039e-05
1.90421e-05
1.81385e-05
1.73214e-05
1.65872e-05
1.60303e-05
1.59325e-05
1.58115e-05
1.52367e-05
1.48197e-05
1.47409e-05
1.46636e-05
1.45876e-05
1.45128e-05
1.44396e-05
1.43675e-05
1.42965e-05
1.42267e-05
1.41581e-05
1.40903e-05
1.40235e-05
1.39578e-05
1.3893e-05
1.38289e-05
1.37658e-05
1.37036e-05
1.36927e-05
1.40173e-05
1.43792e-05
1.48334e-05
1.5288e-05
1.57017e-05
1.61354e-05
1.65879e-05
1.70583e-05
1.75457e-05
1.80491e-05
1.85677e-05
1.9121e-05
1.97365e-05
2.03271e-05
2.04231e-05
2.022e-05
2.0029e-05
1.98415e-05
1.96472e-05
1.94593e-05
1.93174e-05
1.86641e-05
1.76795e-05
1.67771e-05
1.59076e-05
1.50401e-05
1.41761e-05
1.33171e-05
1.24648e-05
1.18339e-05
1.17908e-05
1.17473e-05
1.17026e-05
1.92388e-05
2.24465e-05
2.20582e-05
2.16758e-05
2.13166e-05
2.09779e-05
2.06568e-05
2.03533e-05
2.00646e-05
1.97908e-05
1.95301e-05
1.92826e-05
1.90465e-05
1.88212e-05
1.86055e-05
1.84399e-05
1.84265e-05
1.84158e-05
1.84129e-05
1.8469e-05
1.85166e-05
1.85051e-05
1.84947e-05
1.91685e-05
2.214e-05
2.50766e-05
2.83481e-05
3.11079e-05
3.12907e-05
3.10333e-05
2.90198e-05
2.62661e-05
2.37842e-05
2.19192e-05
2.02101e-05
1.86377e-05
1.71953e-05
1.68673e-05
1.67478e-05
1.66315e-05
1.65187e-05
1.64078e-05
1.65739e-05
1.70153e-05
1.73783e-05
1.76679e-05
1.72716e-05
1.64117e-05
1.55209e-05
1.5084e-05
1.46944e-05
1.43497e-05
1.40478e-05
1.37859e-05
1.3562e-05
1.33743e-05
1.32207e-05
1.30992e-05
1.30086e-05
1.29471e-05
1.29131e-05
1.29152e-05
1.30691e-05
1.32562e-05
1.34748e-05
1.36664e-05
1.36047e-05
1.35561e-05
1.35763e-05
1.35818e-05
1.35219e-05
1.34627e-05
1.34041e-05
1.33461e-05
1.32887e-05
1.32318e-05
1.31755e-05
1.31198e-05
1.3018e-05
1.33358e-05
1.38366e-05
1.43531e-05
1.48806e-05
1.54221e-05
1.60232e-05
1.66352e-05
1.72572e-05
1.79262e-05
1.86818e-05
1.90101e-05
1.88728e-05
1.87371e-05
1.8603e-05
1.84703e-05
1.83391e-05
1.8146e-05
1.73371e-05
1.63623e-05
1.5458e-05
1.4511e-05
1.93523e-05
2.25743e-05
2.21765e-05
2.17847e-05
2.14174e-05
2.10705e-05
2.07416e-05
2.04309e-05
2.01356e-05
1.98553e-05
1.95886e-05
1.93352e-05
1.92481e-05
1.92254e-05
1.92249e-05
1.92897e-05
1.93339e-05
1.9315e-05
1.92982e-05
1.92693e-05
1.90935e-05
2.1524e-05
2.4976e-05
2.89821e-05
3.25522e-05
3.22626e-05
3.1139e-05
2.76834e-05
2.44263e-05
2.19374e-05
1.97312e-05
1.77007e-05
1.74942e-05
1.7355e-05
1.72198e-05
1.70885e-05
1.69608e-05
1.69122e-05
1.5764e-05
1.47099e-05
1.37472e-05
1.29571e-05
1.23659e-05
1.17405e-05
1.10416e-05
1.01763e-05
9.37372e-06
8.59642e-06
8.21903e-06
7.90383e-06
7.63316e-06
7.40273e-06
7.20892e-06
7.04836e-06
6.9177e-06
6.81395e-06
6.73479e-06
6.67809e-06
6.642e-06
6.62505e-06
6.62716e-06
6.6627e-06
6.72071e-06
6.77613e-06
6.83657e-06
6.87604e-06
6.96793e-06
7.14497e-06
7.40031e-06
7.70706e-06
8.04279e-06
8.40682e-06
8.79807e-06
9.2154e-06
9.65758e-06
1.00816e-05
1.04671e-05
1.0875e-05
1.13049e-05
1.17521e-05
1.22163e-05
1.25119e-05
1.24622e-05
1.2413e-05
1.23643e-05
1.23162e-05
1.22685e-05
1.22213e-05
1.25838e-05
1.32275e-05
1.3882e-05
1.45464e-05
1.52196e-05
1.59007e-05
1.65891e-05
1.73416e-05
1.79764e-05
1.79254e-05
1.77978e-05
1.76657e-05
1.94635e-05
2.2698e-05
2.22911e-05
2.18903e-05
2.15148e-05
2.11599e-05
2.08232e-05
2.05053e-05
2.02035e-05
2.00919e-05
2.00537e-05
2.00979e-05
2.01691e-05
2.01653e-05
2.01371e-05
2.0071e-05
1.98621e-05
1.96615e-05
1.94683e-05
2.31346e-05
2.76351e-05
3.22666e-05
3.33325e-05
3.23166e-05
2.79646e-05
2.4041e-05
2.12049e-05
1.86245e-05
1.80745e-05
1.79208e-05
1.77656e-05
1.76157e-05
1.58619e-05
1.40102e-05
1.26068e-05
1.13412e-05
1.02476e-05
8.80956e-06
7.62189e-06
6.90451e-06
6.29393e-06
5.82546e-06
5.45791e-06
5.35929e-06
5.58163e-06
5.93566e-06
5.88234e-06
5.82677e-06
5.76182e-06
5.72185e-06
5.69553e-06
5.68124e-06
5.6782e-06
5.68582e-06
5.7036e-06
5.73158e-06
5.7701e-06
5.81953e-06
5.8803e-06
5.95297e-06
5.9418e-06
5.91256e-06
5.94894e-06
5.98868e-06
6.03371e-06
6.05179e-06
5.88506e-06
5.74547e-06
5.66493e-06
5.5798e-06
5.49794e-06
5.42401e-06
5.36185e-06
5.31487e-06
5.25475e-06
5.20837e-06
5.22486e-06
5.31301e-06
5.46777e-06
5.69121e-06
5.90064e-06
6.16072e-06
6.57459e-06
7.0147e-06
7.49459e-06
8.00923e-06
8.55416e-06
9.12551e-06
9.71997e-06
1.03348e-05
1.09675e-05
1.1616e-05
1.19588e-05
1.19147e-05
1.18711e-05
1.1828e-05
1.22592e-05
1.29545e-05
1.36614e-05
1.43203e-05
1.95734e-05
2.28178e-05
2.24016e-05
2.19925e-05
2.16087e-05
2.1246e-05
2.09856e-05
2.09258e-05
2.09676e-05
2.10444e-05
2.10306e-05
2.09893e-05
2.07956e-05
2.05534e-05
2.0321e-05
2.00985e-05
1.98848e-05
2.40263e-05
2.94552e-05
3.44657e-05
3.41574e-05
3.02688e-05
2.54605e-05
2.17845e-05
1.86798e-05
1.84985e-05
1.83394e-05
1.79996e-05
1.53678e-05
1.30326e-05
1.09758e-05
8.7185e-06
6.93549e-06
6.00191e-06
5.49749e-06
5.30809e-06
5.54475e-06
6.12404e-06
6.20323e-06
6.11279e-06
5.88448e-06
5.71811e-06
5.60043e-06
5.51561e-06
5.48626e-06
5.52226e-06
5.40704e-06
5.2966e-06
5.2671e-06
5.24796e-06
5.23438e-06
5.22523e-06
5.21992e-06
5.21843e-06
5.2211e-06
5.22849e-06
5.24144e-06
5.26106e-06
5.28853e-06
5.32984e-06
5.39551e-06
5.46061e-06
5.53295e-06
5.61831e-06
5.71772e-06
5.81354e-06
5.92128e-06
5.99735e-06
5.99572e-06
6.03519e-06
6.1206e-06
6.25706e-06
6.39859e-06
6.57189e-06
6.76012e-06
6.89399e-06
6.98513e-06
7.06595e-06
7.04628e-06
7.03069e-06
7.01527e-06
6.82365e-06
6.39651e-06
6.01108e-06
5.68004e-06
5.4175e-06
5.23768e-06
5.15298e-06
5.1715e-06
5.29521e-06
5.51969e-06
5.71331e-06
6.01735e-06
6.53414e-06
7.06141e-06
7.63386e-06
8.24285e-06
8.88152e-06
9.54625e-06
1.02397e-05
1.96822e-05
2.29335e-05
2.25082e-05
2.20912e-05
2.18605e-05
2.18306e-05
2.19107e-05
2.19453e-05
2.18832e-05
2.16524e-05
2.13674e-05
2.10959e-05
2.08365e-05
2.0589e-05
2.03516e-05
2.412e-05
3.02694e-05
3.54085e-05
3.49269e-05
2.91673e-05
2.39116e-05
2.01942e-05
1.90046e-05
1.88262e-05
1.70693e-05
1.40411e-05
1.12979e-05
7.91081e-06
5.83512e-06
5.17242e-06
5.31599e-06
6.18115e-06
6.27707e-06
6.2132e-06
6.29464e-06
6.23807e-06
5.91689e-06
5.67463e-06
5.56544e-06
5.63492e-06
5.65768e-06
5.58861e-06
5.56142e-06
5.56299e-06
5.58267e-06
5.56533e-06
5.38184e-06
5.2881e-06
5.27651e-06
5.26572e-06
5.25559e-06
5.24603e-06
5.23703e-06
5.22852e-06
5.22042e-06
5.21269e-06
5.2053e-06
5.19821e-06
5.19135e-06
5.18471e-06
5.15484e-06
5.12883e-06
5.11644e-06
5.12115e-06
5.13587e-06
5.16193e-06
5.22274e-06
5.34453e-06
5.55875e-06
5.75766e-06
5.9527e-06
6.19364e-06
6.42181e-06
6.41259e-06
6.48602e-06
6.56465e-06
6.65301e-06
6.77381e-06
6.90073e-06
6.99598e-06
7.09549e-06
7.17295e-06
7.14436e-06
7.11571e-06
7.087e-06
7.05822e-06
7.02938e-06
7.00049e-06
6.9716e-06
6.94274e-06
6.91389e-06
6.88502e-06
6.62847e-06
6.13665e-06
5.71879e-06
5.39747e-06
5.18837e-06
5.10123e-06
5.14202e-06
5.04235e-06
1.9789e-05
2.30457e-05
2.27726e-05
2.27664e-05
2.28484e-05
2.28381e-05
2.26749e-05
2.23369e-05
2.20149e-05
2.17089e-05
2.1418e-05
2.11409e-05
2.08757e-05
2.33497e-05
2.99315e-05
3.6013e-05
3.56227e-05
2.9123e-05
2.34144e-05
1.95849e-05
1.93821e-05
1.77013e-05
1.41493e-05
1.02637e-05
6.58182e-06
5.16734e-06
5.56441e-06
6.65861e-06
6.53502e-06
6.46854e-06
6.31093e-06
6.41321e-06
6.38354e-06
5.95448e-06
5.68054e-06
5.66891e-06
5.78001e-06
5.72511e-06
5.75432e-06
5.77674e-06
5.73833e-06
5.70203e-06
6.0096e-06
6.43318e-06
6.88294e-06
7.2697e-06
7.44528e-06
7.71061e-06
7.7645e-06