/*--------------------------------*- C++ -*----------------------------------*\
| =========                 |                                                 |
| \\      /  F ield         | foam-extend: Open Source CFD                    |
|  \\    /   O peration     | Version:     4.1                                |
|   \\  /    A nd           | Web:         http://www.foam-extend.org         |
|    \\/     M anipulation  |                                                 |
\*---------------------------------------------------------------------------*/
FoamFile
{
    version     2.0;
    format      ascii;
    class       volScalarField;
    location    "8";
    object      sigmaEq;
}
// * * * * * * * * * * * * * * * * * * * * * * * * * * * * * * * * * * * * * //

dimensions      [1 -1 -2 0 0 0 0];

internalField   nonuniform List<scalar> 
100000
(
2.69415e+06
4.06653e+06
3.95607e+06
3.7632e+06
4.40111e+06
4.85737e+06
4.87937e+06
4.89865e+06
4.91537e+06
4.78355e+06
4.42574e+06
4.07587e+06
3.77083e+06
3.48836e+06
3.059e+06
2.7053e+06
2.3844e+06
2.10167e+06
1.89102e+06
1.72763e+06
1.54165e+06
1.39109e+06
1.27657e+06
1.19763e+06
1.152e+06
1.13984e+06
1.13877e+06
1.13829e+06
1.13834e+06
1.13881e+06
1.13971e+06
1.14083e+06
1.14239e+06
1.14367e+06
1.14463e+06
1.14616e+06
1.148e+06
1.15013e+06
1.15246e+06
1.15532e+06
1.15867e+06
1.16234e+06
1.1662e+06
1.17013e+06
1.17405e+06
1.17786e+06
1.18151e+06
1.18494e+06
1.18812e+06
1.19101e+06
1.19359e+06
1.19589e+06
1.1979e+06
1.19991e+06
1.20157e+06
1.20282e+06
1.20367e+06
1.20415e+06
1.20428e+06
1.20409e+06
1.20383e+06
1.20231e+06
1.2003e+06
1.1991e+06
1.1975e+06
1.19461e+06
1.19199e+06
1.18978e+06
1.18821e+06
1.18701e+06
1.18685e+06
1.19043e+06
1.1975e+06
1.20807e+06
1.22211e+06
1.23956e+06
1.26031e+06
1.28423e+06
1.31118e+06
1.34097e+06
1.37343e+06
1.40836e+06
1.4456e+06
1.48545e+06
1.5277e+06
1.57179e+06
1.61753e+06
1.65646e+06
1.69722e+06
1.74586e+06
1.79691e+06
1.84902e+06
1.90212e+06
1.95613e+06
2.01104e+06
2.0668e+06
2.12317e+06
2.1804e+06
2.237e+06
2.30831e+06
2.67198e+06
4.01925e+06
3.74675e+06
4.30112e+06
4.83295e+06
4.85911e+06
4.88227e+06
4.90272e+06
4.92038e+06
4.93556e+06
4.94831e+06
4.93365e+06
4.62752e+06
4.33872e+06
4.06587e+06
3.82457e+06
3.59838e+06
3.38937e+06
3.22419e+06
2.96426e+06
2.72734e+06
2.51238e+06
2.31837e+06
2.14439e+06
1.99587e+06
1.88074e+06
1.77427e+06
1.66773e+06
1.57609e+06
1.55923e+06
1.54868e+06
1.54105e+06
1.63244e+06
1.53319e+06
1.53239e+06
1.5336e+06
1.53649e+06
1.54323e+06
1.55367e+06
1.56232e+06
1.5692e+06
1.57742e+06
1.58686e+06
1.59741e+06
1.60901e+06
1.62156e+06
1.63498e+06
1.64921e+06
1.66418e+06
1.67982e+06
1.69606e+06
1.71284e+06
1.73099e+06
1.74984e+06
1.76868e+06
1.7875e+06
1.80625e+06
1.8249e+06
1.84342e+06
1.86179e+06
1.87987e+06
1.9039e+06
1.92286e+06
1.94266e+06
1.96247e+06
1.98228e+06
2.00203e+06
2.02172e+06
2.04132e+06
2.05705e+06
2.0682e+06
2.08511e+06
2.1032e+06
2.12109e+06
2.1388e+06
2.1563e+06
2.17358e+06
2.19064e+06
2.20748e+06
2.22408e+06
2.24043e+06
2.28484e+06
2.33815e+06
2.39197e+06
2.44627e+06
2.501e+06
2.5561e+06
2.61154e+06
2.62713e+06
2.61864e+06
2.61033e+06
2.60219e+06
2.62393e+06
2.65929e+06
2.69478e+06
2.73112e+06
2.76871e+06
2.80646e+06
2.8434e+06
2.86742e+06
2.64925e+06
3.74976e+06
4.15582e+06
4.8032e+06
4.83369e+06
4.86109e+06
4.88536e+06
4.90676e+06
4.92537e+06
4.94131e+06
4.95479e+06
4.96591e+06
4.97469e+06
4.98153e+06
4.92406e+06
4.67812e+06
4.44936e+06
4.23288e+06
4.03548e+06
3.85599e+06
3.68757e+06
3.53199e+06
3.38846e+06
3.29169e+06
3.35236e+06
3.38866e+06
3.35292e+06
3.32166e+06
3.29916e+06
3.28284e+06
3.26227e+06
3.24464e+06
3.22997e+06
3.21809e+06
3.20891e+06
3.20211e+06
3.19751e+06
3.19495e+06
3.17679e+06
3.14369e+06
3.10221e+06
3.0632e+06
3.03018e+06
3.00279e+06
2.98071e+06
2.9636e+06
2.95118e+06
2.94318e+06
2.93933e+06
2.93939e+06
2.94314e+06
2.95039e+06
2.96092e+06
2.97457e+06
2.99114e+06
3.0105e+06
3.03247e+06
3.05692e+06
3.08373e+06
3.11275e+06
3.14376e+06
3.18389e+06
3.21909e+06
3.25609e+06
3.29478e+06
3.33504e+06
3.3768e+06
3.41998e+06
3.46446e+06
3.51018e+06
3.53066e+06
3.4929e+06
3.45489e+06
3.41663e+06
3.37816e+06
3.33951e+06
3.29012e+06
3.25092e+06
3.243e+06
3.23483e+06
3.22492e+06
3.21516e+06
3.20604e+06
3.19677e+06
3.18734e+06
3.17779e+06
3.16804e+06
3.15814e+06
3.14812e+06
3.13798e+06
3.16647e+06
3.20013e+06
3.2352e+06
3.26961e+06
3.30318e+06
3.33656e+06
3.36965e+06
3.40231e+06
3.43454e+06
3.48087e+06
2.90675e+06
4.12609e+06
4.87946e+06
4.85963e+06
4.84066e+06
4.86331e+06
4.88862e+06
4.91085e+06
4.93028e+06
4.94695e+06
4.96105e+06
4.97279e+06
4.98209e+06
4.98935e+06
4.99454e+06
4.9978e+06
4.99935e+06
4.99918e+06
4.89078e+06
4.70628e+06
4.54758e+06
4.55035e+06
4.55253e+06
4.55703e+06
4.57136e+06
4.57829e+06
4.57992e+06
4.58151e+06
4.58302e+06
4.49577e+06
4.38267e+06
4.26821e+06
4.16271e+06
4.0847e+06
4.03987e+06
3.99703e+06
3.95623e+06
3.91729e+06
3.88018e+06
3.8441e+06
3.80974e+06
3.77766e+06
3.74725e+06
3.71829e+06
3.69073e+06
3.6645e+06
3.63955e+06
3.61585e+06
3.5933e+06
3.57189e+06
3.55157e+06
3.53231e+06
3.51404e+06
3.49674e+06
3.48038e+06
3.46489e+06
3.45026e+06
3.43647e+06
3.42348e+06
3.42964e+06
3.44799e+06
3.47089e+06
3.49292e+06
3.51655e+06
3.54169e+06
3.56826e+06
3.5962e+06
3.62543e+06
3.65586e+06
3.68741e+06
3.72006e+06
3.75373e+06
3.78835e+06
3.82387e+06
3.86024e+06
3.89769e+06
3.93565e+06
3.95799e+06
3.97654e+06
3.99615e+06
4.01671e+06
4.00665e+06
3.98769e+06
3.96913e+06
3.951e+06
3.93329e+06
3.91589e+06
3.89885e+06
3.88214e+06
3.86616e+06
3.86513e+06
3.86287e+06
3.82885e+06
3.76627e+06
3.7013e+06
3.66525e+06
3.6521e+06
3.63863e+06
3.62526e+06
3.61746e+06
3.51437e+06
5.13072e+06
5.07656e+06
5.07913e+06
5.07688e+06
5.07352e+06
5.08172e+06
5.09789e+06
5.11033e+06
5.11918e+06
5.12476e+06
5.12729e+06
5.12701e+06
5.12401e+06
5.11865e+06
5.11102e+06
5.1013e+06
5.0897e+06
5.26898e+06
5.43673e+06
5.58954e+06
5.73259e+06
5.85832e+06
5.93475e+06
5.79334e+06
5.58516e+06
5.38962e+06
5.20606e+06
5.03393e+06
4.87298e+06
4.72483e+06
4.5864e+06
4.45714e+06
4.337e+06
4.2238e+06
4.1164e+06
4.01592e+06
3.922e+06
3.83435e+06
3.75701e+06
3.70632e+06
3.66381e+06
3.62527e+06
3.5905e+06
3.55929e+06
3.53145e+06
3.5068e+06
3.48518e+06
3.46641e+06
3.45037e+06
3.43689e+06
3.41191e+06
3.38607e+06
3.36393e+06
3.34533e+06
3.33008e+06
3.31806e+06
3.30911e+06
3.30317e+06
3.30036e+06
3.30033e+06
3.30058e+06
3.30186e+06
3.30545e+06
3.31133e+06
3.3194e+06
3.32957e+06
3.34173e+06
3.35582e+06
3.37175e+06
3.38944e+06
3.40882e+06
3.42981e+06
3.45234e+06
3.47636e+06
3.50179e+06
3.53889e+06
3.56702e+06
3.56484e+06
3.56391e+06
3.5642e+06
3.56562e+06
3.56814e+06
3.57167e+06
3.57617e+06
3.58164e+06
3.58801e+06
3.59518e+06
3.60313e+06
3.6118e+06
3.58179e+06
3.54694e+06
3.50225e+06
3.49742e+06
3.50012e+06
3.50421e+06
3.50807e+06
3.51047e+06
3.51327e+06
3.52867e+06
4.35914e+06
4.90677e+06
4.97419e+06
5.03416e+06
5.08805e+06
5.09465e+06
5.09326e+06
5.09116e+06
5.08821e+06
5.08379e+06
5.07808e+06
5.07098e+06
5.06288e+06
5.05352e+06
5.04324e+06
5.03194e+06
5.01981e+06
5.00548e+06
5.09303e+06
5.23389e+06
5.28778e+06
5.18373e+06
5.08363e+06
4.93848e+06
4.7546e+06
4.58063e+06
4.41501e+06
4.25718e+06
4.10688e+06
3.96388e+06
3.85613e+06
3.76296e+06
3.67345e+06
3.56895e+06
3.4433e+06
3.3267e+06
3.21872e+06
3.1189e+06
3.02693e+06
2.94251e+06
2.86498e+06
2.79384e+06
2.72893e+06
2.66992e+06
2.61647e+06
2.56828e+06
2.52505e+06
2.48651e+06
2.45241e+06
2.42248e+06
2.39609e+06
2.3735e+06
2.35481e+06
2.33951e+06
2.32741e+06
2.31833e+06
2.31212e+06
2.30866e+06
2.30781e+06
2.29269e+06
2.27117e+06
2.24865e+06
2.22535e+06
2.20339e+06
2.18275e+06
2.16338e+06
2.14525e+06
2.12829e+06
2.11247e+06
2.09777e+06
2.08412e+06
2.0715e+06
2.05986e+06
2.04918e+06
2.03943e+06
2.03056e+06
2.02255e+06
2.02846e+06
2.03972e+06
2.05127e+06
2.06323e+06
2.07578e+06
2.0886e+06
2.10183e+06
2.11541e+06
2.12921e+06
2.14335e+06
2.15786e+06
2.1726e+06
2.18753e+06
2.20742e+06
2.27114e+06
2.33795e+06
2.42161e+06
2.50467e+06
2.56035e+06
2.5949e+06
2.62934e+06
2.66483e+06
2.73587e+06
4.90069e+06
4.75896e+06
4.80179e+06
4.84048e+06
4.87536e+06
4.90667e+06
4.92495e+06
4.93089e+06
4.93608e+06
4.94059e+06
4.94432e+06
4.94736e+06
4.94962e+06
4.95123e+06
4.77366e+06
4.54974e+06
4.25661e+06
3.96906e+06
3.51641e+06
3.27386e+06
3.08205e+06
2.90503e+06
2.73844e+06
2.58405e+06
2.49051e+06
2.41417e+06
2.34264e+06
2.27568e+06
2.21305e+06
2.15332e+06
2.0953e+06
2.04194e+06
1.98738e+06
1.9251e+06
1.86823e+06
1.81646e+06
1.76943e+06
1.72685e+06
1.68838e+06
1.65049e+06
1.61103e+06
1.5749e+06
1.54188e+06
1.51178e+06
1.48439e+06
1.45954e+06
1.43702e+06
1.35089e+06
1.25806e+06
1.20558e+06
1.18979e+06
1.20217e+06
1.23256e+06
1.27684e+06
1.3334e+06
1.39469e+06
1.45707e+06
1.51809e+06
1.57588e+06
1.62923e+06
1.65563e+06
1.66871e+06
1.67597e+06
1.6773e+06
1.67296e+06
1.66322e+06
1.6484e+06
1.62883e+06
1.60494e+06
1.57714e+06
1.54592e+06
1.51182e+06
1.4754e+06
1.43732e+06
1.39828e+06
1.35911e+06
1.32066e+06
1.28395e+06
1.25011e+06
1.1766e+06
1.19572e+06
1.1777e+06
1.16751e+06
1.16593e+06
1.21231e+06
1.22065e+06
1.21789e+06
1.25238e+06
1.29568e+06
1.32997e+06
1.379e+06
1.43217e+06
1.48059e+06
1.50589e+06
1.52698e+06
1.54871e+06
1.57124e+06
1.59406e+06
1.61824e+06
1.6393e+06
5.11621e+06
4.77437e+06
4.80226e+06
4.84181e+06
4.87744e+06
4.9094e+06
4.93784e+06
4.96294e+06
4.98481e+06
4.70645e+06
4.42161e+06
4.15282e+06
3.89918e+06
3.57281e+06
3.26776e+06
2.98278e+06
2.71652e+06
2.4557e+06
2.09148e+06
1.7226e+06
1.63727e+06
1.56231e+06
1.47357e+06
1.42129e+06
1.404e+06
1.38832e+06
1.37414e+06
1.36131e+06
1.34973e+06
1.33926e+06
1.32982e+06
1.3316e+06
1.15139e+06
1.21388e+06
1.47775e+06
1.83314e+06
2.21734e+06
2.60301e+06
2.97829e+06
3.33782e+06
3.67919e+06
4.00142e+06
4.30427e+06
4.558e+06
4.70218e+06
4.8339e+06
4.95552e+06
5.0749e+06
5.17671e+06
5.26072e+06
5.33497e+06
5.39979e+06
5.45593e+06
5.50399e+06
5.54332e+06
5.57401e+06
5.59721e+06
5.61325e+06
5.62234e+06
5.59685e+06
5.56336e+06
5.53278e+06
5.497e+06
5.45617e+06
5.41055e+06
5.36036e+06
5.30583e+06
5.24717e+06
5.18459e+06
5.1183e+06
5.04851e+06
4.97541e+06
4.89919e+06
4.82003e+06
4.73811e+06
4.65358e+06
4.56662e+06
4.47737e+06
4.38605e+06
4.29269e+06
4.19751e+06
4.10082e+06
4.0026e+06
3.9031e+06
3.80173e+06
3.6983e+06
3.5945e+06
3.47468e+06
3.33657e+06
3.19848e+06
3.08391e+06
3.01576e+06
2.94703e+06
2.87774e+06
2.80798e+06
2.73778e+06
2.66705e+06
2.59632e+06
2.5241e+06
2.45468e+06
5.11646e+06
4.79055e+06
4.80358e+06
4.84387e+06
4.88003e+06
4.55897e+06
4.20382e+06
3.86941e+06
3.57463e+06
3.32249e+06
2.99571e+06
2.61865e+06
2.2972e+06
2.02158e+06
1.89193e+06
1.77911e+06
1.71501e+06
1.66446e+06
1.61625e+06
1.39213e+06
1.28049e+06
1.28647e+06
1.30326e+06
1.10169e+06
1.32856e+06
1.94837e+06
2.65706e+06
3.36727e+06
3.99381e+06
4.40448e+06
4.79119e+06
5.18694e+06
5.61037e+06
5.90288e+06
6.14889e+06
6.35477e+06
6.54583e+06
6.67743e+06
6.23711e+06
5.81607e+06
5.41381e+06
5.02988e+06
4.65834e+06
4.28923e+06
3.94559e+06
3.63206e+06
3.33564e+06
2.93953e+06
2.50804e+06
2.12125e+06
1.78658e+06
1.51528e+06
1.3228e+06
1.22293e+06
1.22241e+06
1.30675e+06
1.44684e+06
1.61913e+06
1.86255e+06
2.11595e+06
2.3409e+06
2.54021e+06
2.72738e+06
2.90127e+06
3.06143e+06
3.20753e+06
3.33966e+06
3.45799e+06
3.56277e+06
3.65432e+06
3.73302e+06
3.79926e+06
3.85338e+06
3.8958e+06
3.92689e+06
3.94699e+06
3.89605e+06
3.82572e+06
3.75391e+06
3.68086e+06
3.60658e+06
3.53152e+06
3.45524e+06
3.37833e+06
3.30035e+06
3.21825e+06
3.12953e+06
3.04376e+06
2.95565e+06
2.89987e+06
2.84332e+06
2.78839e+06
2.73509e+06
2.68349e+06
2.63356e+06
2.58543e+06
2.53902e+06
2.49409e+06
2.45243e+06
2.21932e+06
5.1151e+06
4.80678e+06
4.31356e+06
3.88957e+06
3.51781e+06
3.20957e+06
2.87564e+06
2.55573e+06
2.17595e+06
2.05476e+06
1.9445e+06
1.80104e+06
1.64848e+06
1.57696e+06
1.5552e+06
1.5833e+06
1.52835e+06
1.27969e+06
1.86342e+06
2.55288e+06
3.19442e+06
3.16072e+06
2.49387e+06
2.31742e+06
2.21344e+06
2.06895e+06
2.1563e+06
2.38274e+06
2.63743e+06
3.03481e+06
3.53179e+06
4.00664e+06
4.97728e+06
5.96533e+06
6.91101e+06
7.81629e+06
8.67595e+06
8.93517e+06
8.99906e+06
9.0233e+06
9.04056e+06
9.05086e+06
9.05477e+06
9.02171e+06
8.8904e+06
8.7598e+06
8.62985e+06
8.50073e+06
8.37217e+06
8.24441e+06
8.11736e+06
7.991e+06
7.86547e+06
7.74065e+06
7.61652e+06
7.49332e+06
7.38843e+06
7.35822e+06
7.32797e+06
7.26056e+06
7.18829e+06
7.11553e+06
7.04236e+06
6.96879e+06
6.89486e+06
6.8206e+06
6.74604e+06
6.67116e+06
6.59602e+06
6.52068e+06
6.44514e+06
6.36944e+06
6.2936e+06
6.21764e+06
6.14156e+06
6.06022e+06
5.97987e+06
5.90374e+06
5.82838e+06
5.753e+06
5.67764e+06
5.60238e+06
5.52718e+06
5.44911e+06
5.35214e+06
5.25451e+06
5.15749e+06
5.04485e+06
4.92091e+06
4.79757e+06
4.67486e+06
4.55288e+06
4.43172e+06
4.31147e+06
4.19217e+06
4.07395e+06
3.95671e+06
3.8407e+06
3.72391e+06
3.50954e+06
4.22899e+06
3.53697e+06
3.03663e+06
2.6312e+06
2.26246e+06
2.22002e+06
2.09027e+06
1.89763e+06
1.7592e+06
1.68192e+06
1.747e+06
1.64508e+06
1.43232e+06
1.4085e+06
2.41223e+06
3.78365e+06
5.42767e+06
7.02341e+06
8.14324e+06
9.18694e+06
1.00549e+07
1.0849e+07
1.16344e+07
1.20555e+07
1.2221e+07
1.23717e+07
1.25085e+07
1.26321e+07
1.26802e+07
1.25278e+07
1.23763e+07
1.22258e+07
1.20762e+07
1.19275e+07
1.1762e+07
1.15739e+07
1.13524e+07
1.11267e+07
1.03454e+07
9.58712e+06
8.86394e+06
8.17425e+06
7.5173e+06
6.8917e+06
6.29673e+06
5.73154e+06
5.19532e+06
4.68767e+06
4.20807e+06
3.75634e+06
3.33275e+06
2.93773e+06
2.57269e+06
2.23971e+06
1.94228e+06
1.70216e+06
1.29305e+06
1.3902e+06
1.26535e+06
1.20301e+06
1.20136e+06
1.25078e+06
1.33734e+06
1.44757e+06
1.57092e+06
1.69986e+06
1.82941e+06
1.95635e+06
2.07857e+06
2.19469e+06
2.3039e+06
2.40568e+06
2.49973e+06
2.58594e+06
2.66426e+06
2.73473e+06
2.74008e+06
2.72874e+06
2.71768e+06
2.70688e+06
2.69631e+06
2.686e+06
2.69517e+06
2.70308e+06
2.71169e+06
2.71505e+06
2.70514e+06
2.69541e+06
2.68586e+06
2.6765e+06
2.6684e+06
2.66835e+06
2.66828e+06
2.6682e+06
2.66811e+06
2.66802e+06
2.66792e+06
2.66801e+06
2.66765e+06
2.64107e+06
3.03184e+06
2.62163e+06
2.20126e+06
2.13875e+06
1.98914e+06
2.12112e+06
2.22286e+06
3.5073e+06
5.01484e+06
6.9641e+06
8.9327e+06
1.10236e+07
1.26554e+07
1.4391e+07
1.57038e+07
1.49176e+07
1.431e+07
1.47851e+07
1.52251e+07
1.54581e+07
1.53621e+07
1.45447e+07
1.29017e+07
1.13991e+07
1.00252e+07
8.66795e+06
7.37899e+06
6.15825e+06
5.00784e+06
3.93441e+06
2.95596e+06
2.12163e+06
1.56639e+06
1.5194e+06
1.95167e+06
2.59311e+06
3.29342e+06
3.48967e+06
3.46782e+06
3.44654e+06
3.4257e+06
3.40532e+06
3.38548e+06
3.36596e+06
3.34704e+06
3.32841e+06
3.31019e+06
3.29235e+06
3.27473e+06
3.25752e+06
3.24059e+06
3.224e+06
3.20767e+06
3.19168e+06
3.13877e+06
3.03337e+06
2.95204e+06
2.93851e+06
2.92578e+06
2.913e+06
2.90045e+06
2.88799e+06
2.87572e+06
2.86361e+06
2.85162e+06
2.83978e+06
2.8281e+06
2.81653e+06
2.80509e+06
2.7938e+06
2.78261e+06
2.77156e+06
2.76061e+06
2.74977e+06
2.73902e+06
2.72838e+06
2.71783e+06
2.71174e+06
2.71197e+06
2.71211e+06
2.72973e+06
2.74736e+06
2.76515e+06
2.78152e+06
2.78046e+06
2.77926e+06
2.77794e+06
2.77648e+06
2.77488e+06
2.77304e+06
2.77037e+06
2.76769e+06
2.76552e+06
2.76324e+06
2.76087e+06
2.75841e+06
2.75581e+06
2.75336e+06
2.75021e+06
2.74917e+06
2.6517e+06
2.72062e+06
2.66208e+06
5.75583e+06
8.92154e+06
1.13203e+07
1.37567e+07
1.63007e+07
1.82963e+07
1.73614e+07
1.63245e+07
1.56378e+07
1.62028e+07
1.43597e+07
1.19148e+07
9.88705e+06
7.8423e+06
5.9309e+06
4.17151e+06
2.6596e+06
1.78969e+06
2.22839e+06
3.35642e+06
3.87397e+06
3.84022e+06
3.80765e+06
3.77619e+06
3.74575e+06
3.71631e+06
3.6878e+06
3.66018e+06
3.63337e+06
3.60732e+06
3.582e+06
3.5573e+06
3.53333e+06
3.50993e+06
3.48723e+06
3.46505e+06
3.44341e+06
3.42238e+06
3.4017e+06
3.38165e+06
3.36193e+06
3.3427e+06
3.32393e+06
3.30542e+06
3.28735e+06
3.26956e+06
3.25215e+06
3.23502e+06
3.21821e+06
3.20177e+06
3.14266e+06
3.03453e+06
2.96138e+06
2.94783e+06
2.93457e+06
2.92159e+06
2.90864e+06
2.89596e+06
2.88343e+06
2.87104e+06
2.85884e+06
2.8468e+06
2.8402e+06
2.84096e+06
2.84163e+06
2.84219e+06
2.84265e+06
2.84298e+06
2.84322e+06
2.84334e+06
2.84339e+06
2.84335e+06
2.8432e+06
2.84265e+06
2.84156e+06
2.85777e+06
2.87541e+06
2.89312e+06
2.91156e+06
2.91015e+06
2.90848e+06
2.90667e+06
2.90473e+06
2.90267e+06
2.9005e+06
2.89822e+06
2.89583e+06
2.89224e+06
2.88055e+06
2.86894e+06
2.85744e+06
2.84606e+06
2.83482e+06
2.82369e+06
2.81285e+06
2.80189e+06
2.78831e+06
7.43891e+06
1.33808e+07
1.64142e+07
1.96943e+07
2.02131e+07
1.86334e+07
1.73823e+07
1.46804e+07
1.17271e+07
9.03497e+06
6.31398e+06
3.9069e+06
2.28383e+06
2.76472e+06
4.26838e+06
4.18927e+06
4.15016e+06
4.11247e+06
4.07615e+06
4.04106e+06
4.00719e+06
3.98053e+06
3.91721e+06
3.87798e+06
3.84361e+06
3.81041e+06
3.77833e+06
3.7473e+06
3.71732e+06
3.68828e+06
3.66013e+06
3.63283e+06
3.60632e+06
3.58063e+06
3.55557e+06
3.53124e+06
3.5075e+06
3.48437e+06
3.46191e+06
3.43987e+06
3.41856e+06
3.39765e+06
3.37728e+06
3.35742e+06
3.33789e+06
3.31888e+06
3.30019e+06
3.28189e+06
3.26389e+06
3.24629e+06
3.22905e+06
3.21197e+06
3.14972e+06
3.03872e+06
2.97283e+06
2.97418e+06
2.97531e+06
2.97629e+06
2.97726e+06
2.97809e+06
2.97876e+06
2.97935e+06
2.97983e+06
2.98015e+06
2.98037e+06
2.98045e+06
2.98038e+06
2.98017e+06
2.97989e+06
2.97949e+06
2.97897e+06
2.97838e+06
2.97769e+06
2.9769e+06
2.97601e+06
2.97504e+06
2.99201e+06
3.00469e+06
3.01104e+06
3.01808e+06
3.00733e+06
2.99487e+06
2.98249e+06
2.97019e+06
2.95797e+06
2.9458e+06
2.93369e+06
2.92165e+06
2.90969e+06
2.89785e+06
2.88612e+06
2.8745e+06
2.863e+06
2.85161e+06
2.84034e+06
2.82919e+06
2.81196e+06
2.79238e+06
2.77366e+06
2.75212e+06
2.15733e+07
2.18113e+07
1.94695e+07
1.44629e+07
9.74834e+06
6.50278e+06
3.54215e+06
2.78775e+06
4.60123e+06
4.48254e+06
4.42988e+06
4.37967e+06
4.33175e+06
4.28596e+06
4.24219e+06
4.20019e+06
4.15989e+06
4.12113e+06
4.08386e+06
4.04797e+06
4.01336e+06
3.97992e+06
3.94244e+06
3.87956e+06
3.84648e+06
3.81259e+06
3.77989e+06
3.74827e+06
3.71773e+06
3.68817e+06
3.65953e+06
3.63178e+06
3.6048e+06
3.57867e+06
3.55323e+06
3.52852e+06
3.50453e+06
3.48102e+06
3.45828e+06
3.43595e+06
3.41427e+06
3.39318e+06
3.37248e+06
3.35238e+06
3.33265e+06
3.32289e+06
3.32202e+06
3.32112e+06
3.32017e+06
3.31902e+06
3.31801e+06
3.27135e+06
3.17264e+06
3.12173e+06
3.12334e+06
3.12451e+06
3.1247e+06
3.12478e+06
3.12473e+06
3.12461e+06
3.12439e+06
3.12401e+06
3.12354e+06
3.12298e+06
3.1223e+06
3.11611e+06
3.1025e+06
3.089e+06
3.07565e+06
3.06243e+06
3.04937e+06
3.03644e+06
3.02366e+06
3.01281e+06
3.01869e+06
3.02426e+06
3.03015e+06
3.03662e+06
3.02594e+06
3.0133e+06
3.00075e+06
2.98827e+06
2.97589e+06
2.96359e+06
2.95136e+06
2.93923e+06
2.92718e+06
2.91522e+06
2.90335e+06
2.89156e+06
2.87988e+06
2.86831e+06
2.85687e+06
2.83689e+06
2.81646e+06
2.79701e+06
2.77822e+06
2.75932e+06
2.74068e+06
2.72405e+06
1.33802e+07
7.43465e+06
3.84685e+06
3.64655e+06
4.86321e+06
4.74777e+06
4.68107e+06
4.61782e+06
4.55778e+06
4.50079e+06
4.44655e+06
4.39499e+06
4.34581e+06
4.2988e+06
4.25367e+06
4.21048e+06
4.16913e+06
4.1294e+06
4.09119e+06
4.05438e+06
4.01891e+06
3.98464e+06
3.95155e+06
3.90377e+06
3.84689e+06
3.81412e+06
3.78083e+06
3.74864e+06
3.71756e+06
3.68754e+06
3.65844e+06
3.63024e+06
3.60282e+06
3.57621e+06
3.55043e+06
3.52528e+06
3.50098e+06
3.48985e+06
3.48839e+06
3.48696e+06
3.48542e+06
3.66976e+06
3.84604e+06
4.00412e+06
4.14598e+06
4.27181e+06
4.37904e+06
4.46858e+06
4.54294e+06
4.60241e+06
4.60681e+06
4.5372e+06
4.50457e+06
4.51337e+06
4.5082e+06
4.47837e+06
4.43833e+06
4.38875e+06
4.33003e+06
4.26264e+06
4.18717e+06
4.10403e+06
4.01365e+06
3.91657e+06
3.81321e+06
3.70392e+06
3.58917e+06
3.46935e+06
3.34491e+06
3.21627e+06
3.0839e+06
3.0356e+06
3.04062e+06
3.04562e+06
3.05101e+06
3.05682e+06
3.04475e+06
3.03191e+06
3.01914e+06
3.00646e+06
2.99389e+06
2.98143e+06
2.96905e+06
2.95676e+06
2.94455e+06
2.93242e+06
2.92041e+06
2.90849e+06
2.89668e+06
2.8846e+06
2.86306e+06
2.84188e+06
2.82173e+06
2.80217e+06
2.78222e+06
2.76262e+06
2.74947e+06
2.73938e+06
2.72917e+06
2.71867e+06
4.22989e+06
5.09594e+06
5.00352e+06
4.92153e+06
4.84478e+06
4.77224e+06
4.70359e+06
4.6386e+06
4.5769e+06
4.5184e+06
4.46267e+06
4.40967e+06
4.35903e+06
4.31078e+06
4.26463e+06
4.22039e+06
4.17789e+06
4.13703e+06
4.09781e+06
4.0601e+06
4.02381e+06
3.98877e+06
3.95495e+06
3.92328e+06
3.86762e+06
3.81525e+06
3.78134e+06
3.74859e+06
3.71698e+06
3.68645e+06
3.66796e+06
3.66527e+06
3.66276e+06
3.66026e+06
3.80602e+06
4.1365e+06
4.44684e+06
4.73497e+06
4.99638e+06
5.23306e+06
5.48195e+06
5.71174e+06
5.87423e+06
6.01611e+06
6.14041e+06
6.21398e+06
6.16898e+06
6.12416e+06
6.07962e+06
6.00285e+06
5.85304e+06
5.75392e+06
5.71372e+06
5.67367e+06
5.63384e+06
5.59432e+06
5.55502e+06
5.51592e+06
5.4771e+06
5.43847e+06
5.40004e+06
5.36185e+06
5.32391e+06
5.28617e+06
5.24866e+06
5.21139e+06
5.16213e+06
5.03238e+06
4.89786e+06
4.7589e+06
4.61264e+06
4.47694e+06
4.34368e+06
4.20575e+06
4.04754e+06
3.88659e+06
3.7232e+06
3.5577e+06
3.39043e+06
3.22177e+06
3.0521e+06
2.9743e+06
2.96193e+06
2.94966e+06
2.9375e+06
2.92542e+06
2.91265e+06
2.89036e+06
2.86847e+06
2.84758e+06
2.82718e+06
2.80644e+06
2.78606e+06
2.77468e+06
2.7642e+06
2.75384e+06
2.74357e+06
2.73353e+06
2.72338e+06
2.71295e+06
4.38638e+06
5.11837e+06
5.03328e+06
4.94927e+06
4.87033e+06
4.79602e+06
4.72541e+06
4.65869e+06
4.59541e+06
4.53533e+06
4.47817e+06
4.42371e+06
4.37178e+06
4.32227e+06
4.27488e+06
4.22947e+06
4.18592e+06
4.14417e+06
4.10407e+06
4.06547e+06
4.0283e+06
3.99244e+06
3.95785e+06
3.9244e+06
3.89753e+06
3.87119e+06
3.84869e+06
3.84463e+06
3.84087e+06
3.84098e+06
4.24453e+06
4.69336e+06
5.11068e+06
5.53266e+06
5.97457e+06
6.34396e+06
6.62626e+06
6.63492e+06
6.58515e+06
6.53604e+06
6.48747e+06
6.24554e+06
6.01419e+06
5.80334e+06
5.60757e+06
5.41442e+06
5.24936e+06
5.11715e+06
4.97999e+06
4.77078e+06
4.61985e+06
4.54763e+06
4.48816e+06
4.44082e+06
4.40491e+06
4.37986e+06
4.36523e+06
4.36041e+06
4.3649e+06
4.3783e+06
4.40018e+06
4.43006e+06
4.46758e+06
4.51236e+06
4.56404e+06
4.62229e+06
4.68909e+06
4.76531e+06
4.84301e+06
4.92968e+06
5.03615e+06
5.0559e+06
5.02143e+06
4.98724e+06
4.95333e+06
4.91968e+06
4.88629e+06
4.8532e+06
4.82038e+06
4.68235e+06
4.48799e+06
4.28927e+06
4.10079e+06
3.91347e+06
3.71438e+06
3.51518e+06
3.31663e+06
3.11882e+06
2.92156e+06
2.8111e+06
2.80023e+06
2.78947e+06
2.77884e+06
2.76832e+06
2.75791e+06
2.74762e+06
2.7374e+06
2.7274e+06
2.71729e+06
2.70692e+06
4.41321e+06
5.14961e+06
5.06224e+06
4.97615e+06
4.89518e+06
4.81899e+06
4.74652e+06
4.67823e+06
4.61312e+06
4.55156e+06
4.49294e+06
4.43719e+06
4.38382e+06
4.33299e+06
4.28444e+06
4.23802e+06
4.1935e+06
4.15075e+06
4.10968e+06
4.07333e+06
4.07217e+06
4.07127e+06
4.07058e+06
4.07229e+06
4.08266e+06
4.08581e+06
4.24836e+06
4.80508e+06
5.3532e+06
5.9736e+06
6.57357e+06
6.98235e+06
6.94212e+06
6.8879e+06
6.68105e+06
6.28834e+06
5.85875e+06
5.46347e+06
5.15314e+06
4.87693e+06
4.62439e+06
4.39433e+06
4.18582e+06
3.99724e+06
3.82782e+06
3.69931e+06
3.67672e+06
3.6488e+06
3.51615e+06
3.41994e+06
3.40174e+06
3.38392e+06
3.36636e+06
3.34911e+06
3.33222e+06
3.31559e+06
3.29919e+06
3.28308e+06
3.26724e+06
3.2516e+06
3.2362e+06
3.22103e+06
3.20607e+06
3.19129e+06
3.17672e+06
3.16238e+06
3.15985e+06
3.23475e+06
3.31828e+06
3.4231e+06
3.528e+06
3.62348e+06
3.72355e+06
3.82797e+06
3.93654e+06
4.04901e+06
4.16519e+06
4.28485e+06
4.41253e+06
4.55457e+06
4.69087e+06
4.71302e+06
4.66616e+06
4.62207e+06
4.5788e+06
4.53397e+06
4.4906e+06
4.45787e+06
4.30711e+06
4.07989e+06
3.87163e+06
3.67098e+06
3.4708e+06
3.27141e+06
3.07317e+06
2.87648e+06
2.7309e+06
2.72096e+06
2.71091e+06
2.7006e+06
4.43972e+06
5.17997e+06
5.09035e+06
5.00211e+06
4.91921e+06
4.84105e+06
4.76695e+06
4.69691e+06
4.6303e+06
4.5671e+06
4.50694e+06
4.44984e+06
4.39536e+06
4.34336e+06
4.29357e+06
4.25537e+06
4.25227e+06
4.2498e+06
4.24914e+06
4.26207e+06
4.27305e+06
4.27041e+06
4.26801e+06
4.42349e+06
5.10923e+06
5.78691e+06
6.54187e+06
7.17875e+06
7.22094e+06
7.16152e+06
6.69689e+06
6.0614e+06
5.48866e+06
5.05828e+06
4.66386e+06
4.301e+06
3.96814e+06
3.89245e+06
3.86488e+06
3.83803e+06
3.81201e+06
3.78643e+06
3.82474e+06
3.9266e+06
4.01038e+06
4.07721e+06
3.98576e+06
3.78732e+06
3.58174e+06
3.48093e+06
3.39101e+06
3.31147e+06
3.2418e+06
3.18136e+06
3.12969e+06
3.08637e+06
3.05092e+06
3.0229e+06
3.00199e+06
2.98779e+06
2.97995e+06
2.98043e+06
3.01595e+06
3.05912e+06
3.10956e+06
3.15379e+06
3.13955e+06
3.12832e+06
3.133e+06
3.13426e+06
3.12044e+06
3.10677e+06
3.09325e+06
3.07987e+06
3.06661e+06
3.05349e+06
3.0405e+06
3.02764e+06
3.00416e+06
3.07749e+06
3.19307e+06
3.31227e+06
3.43399e+06
3.55894e+06
3.69766e+06
3.83889e+06
3.98244e+06
4.13682e+06
4.31119e+06
4.38694e+06
4.35527e+06
4.32396e+06
4.29299e+06
4.26238e+06
4.23211e+06
4.18754e+06
4.00086e+06
3.77593e+06
3.56722e+06
3.34869e+06
4.46591e+06
5.20945e+06
5.11765e+06
5.02725e+06
4.94247e+06
4.86243e+06
4.78652e+06
4.71481e+06
4.64668e+06
4.58199e+06
4.52044e+06
4.46196e+06
4.44188e+06
4.43663e+06
4.43651e+06
4.45147e+06
4.46167e+06
4.4573e+06
4.45344e+06
4.44677e+06
4.4062e+06
4.96707e+06
5.76369e+06
6.68818e+06
7.51205e+06
7.44522e+06
7.18593e+06
6.38849e+06
5.63684e+06
5.06249e+06
4.55336e+06
4.08479e+06
4.03712e+06
4.00501e+06
3.9738e+06
3.94351e+06
3.91404e+06
3.90281e+06
3.63784e+06
3.39459e+06
3.17242e+06
2.99009e+06
2.85366e+06
2.70935e+06
2.54805e+06
2.34838e+06
2.16317e+06
1.98379e+06
1.8967e+06
1.82396e+06
1.7615e+06
1.70832e+06
1.6636e+06
1.62655e+06
1.59639e+06
1.57245e+06
1.55418e+06
1.5411e+06
1.53277e+06
1.52886e+06
1.52934e+06
1.53755e+06
1.55093e+06
1.56372e+06
1.57767e+06
1.58678e+06
1.60798e+06
1.64884e+06
1.70776e+06
1.77855e+06
1.85603e+06
1.94004e+06
2.03032e+06
2.12663e+06
2.22867e+06
2.32652e+06
2.41548e+06
2.50962e+06
2.60882e+06
2.71202e+06
2.81915e+06
2.88736e+06
2.8759e+06
2.86455e+06
2.85331e+06
2.84219e+06
2.83119e+06
2.82029e+06
2.90395e+06
3.0525e+06
3.20354e+06
3.35686e+06
3.51221e+06
3.6694e+06
3.82825e+06
4.00191e+06
4.14841e+06
4.13664e+06
4.10719e+06
4.07671e+06
4.49158e+06
5.23801e+06
5.14409e+06
5.05161e+06
4.96495e+06
4.88306e+06
4.80535e+06
4.732e+06
4.66234e+06
4.63659e+06
4.62778e+06
4.63799e+06
4.65442e+06
4.65354e+06
4.64702e+06
4.63177e+06
4.58357e+06
4.53727e+06
4.49268e+06
5.33876e+06
6.37733e+06
7.44614e+06
7.69211e+06
7.45768e+06
6.45336e+06
5.54793e+06
4.89343e+06
4.29796e+06
4.17105e+06
4.13558e+06
4.09975e+06
4.06516e+06
3.66045e+06
3.23313e+06
2.90927e+06
2.61719e+06
2.36484e+06
2.03298e+06
1.7589e+06
1.59335e+06
1.45245e+06
1.34434e+06
1.25952e+06
1.23676e+06
1.28807e+06
1.36977e+06
1.35746e+06
1.34464e+06
1.32965e+06
1.32043e+06
1.31435e+06
1.31106e+06
1.31035e+06
1.31211e+06
1.31622e+06
1.32267e+06
1.33156e+06
1.34297e+06
1.35699e+06
1.37376e+06
1.37118e+06
1.36444e+06
1.37283e+06
1.382e+06
1.3924e+06
1.39657e+06
1.35809e+06
1.32588e+06
1.30729e+06
1.28765e+06
1.26875e+06
1.2517e+06
1.23735e+06
1.22651e+06
1.21264e+06
1.20193e+06
1.20574e+06
1.22608e+06
1.26179e+06
1.31336e+06
1.36169e+06
1.42171e+06
1.51721e+06
1.61878e+06
1.72952e+06
1.84828e+06
1.97404e+06
2.10589e+06
2.24307e+06
2.38494e+06
2.53095e+06
2.68061e+06
2.75973e+06
2.74955e+06
2.73948e+06
2.72953e+06
2.82905e+06
2.98951e+06
3.15264e+06
3.30469e+06
4.51694e+06
5.26564e+06
5.1696e+06
5.07519e+06
4.98662e+06
4.90293e+06
4.84283e+06
4.82904e+06
4.83869e+06
4.8564e+06
4.85323e+06
4.84367e+06
4.79897e+06
4.74308e+06
4.68946e+06
4.63811e+06
4.5888e+06
5.54452e+06
6.79736e+06
7.95362e+06
7.88249e+06
6.9851e+06
5.87549e+06
5.02719e+06
4.31072e+06
4.26888e+06
4.23217e+06
4.15376e+06
3.54641e+06
3.00752e+06
2.53287e+06
2.01196e+06
1.6005e+06
1.38506e+06
1.26865e+06
1.22494e+06
1.27956e+06
1.41324e+06
1.43151e+06
1.41064e+06
1.35796e+06
1.31956e+06
1.29241e+06
1.27283e+06
1.26606e+06
1.27437e+06
1.24778e+06
1.22229e+06
1.21548e+06
1.21107e+06
1.20793e+06
1.20582e+06
1.2046e+06
1.20425e+06
1.20487e+06
1.20657e+06
1.20956e+06
1.21409e+06
1.22043e+06
1.22996e+06
1.24512e+06
1.26014e+06
1.27683e+06
1.29653e+06
1.31947e+06
1.34159e+06
1.36645e+06
1.384e+06
1.38363e+06
1.39274e+06
1.41245e+06
1.44394e+06
1.4766e+06
1.51659e+06
1.56003e+06
1.59092e+06
1.61195e+06
1.6306e+06
1.62607e+06
1.62247e+06
1.61891e+06
1.57469e+06
1.47612e+06
1.38717e+06
1.31078e+06
1.25019e+06
1.2087e+06
1.18915e+06
1.19342e+06
1.22197e+06
1.27378e+06
1.31846e+06
1.38862e+06
1.50788e+06
1.62956e+06
1.76166e+06
1.9022e+06
2.04958e+06
2.20298e+06
2.363e+06
4.54204e+06
5.29235e+06
5.19421e+06
5.09797e+06
5.04474e+06
5.03784e+06
5.05631e+06
5.06429e+06
5.04997e+06
4.9967e+06
4.93093e+06
4.86829e+06
4.80843e+06
4.7513e+06
4.69652e+06
5.56616e+06
6.98524e+06
8.1712e+06
8.06006e+06
6.73091e+06
5.51806e+06
4.66021e+06
4.38567e+06
4.3445e+06
3.93906e+06
3.24025e+06
2.6072e+06
1.82557e+06
1.34657e+06
1.19364e+06
1.22677e+06
1.42642e+06
1.44855e+06
1.43381e+06
1.45261e+06
1.43956e+06
1.36544e+06
1.30953e+06
1.28433e+06
1.30037e+06
1.30562e+06
1.28968e+06
1.2834e+06
1.28377e+06
1.28831e+06
1.28431e+06
1.24196e+06
1.22033e+06
1.21766e+06
1.21517e+06
1.21283e+06
1.21062e+06
1.20855e+06
1.20658e+06
1.20471e+06
1.20293e+06
1.20122e+06
1.19959e+06
1.198e+06
1.19647e+06
1.18958e+06
1.18358e+06
1.18072e+06
1.1818e+06
1.1852e+06
1.19122e+06
1.20525e+06
1.23335e+06
1.28279e+06
1.32869e+06
1.3737e+06
1.4293e+06
1.48196e+06
1.47983e+06
1.49677e+06
1.51492e+06
1.53531e+06
1.56319e+06
1.59248e+06
1.61446e+06
1.63742e+06
1.6553e+06
1.6487e+06
1.64209e+06
1.63546e+06
1.62882e+06
1.62216e+06
1.6155e+06
1.60883e+06
1.60217e+06
1.59551e+06
1.58885e+06
1.52965e+06
1.41615e+06
1.31972e+06
1.24557e+06
1.19732e+06
1.17721e+06
1.18662e+06
1.16362e+06
4.5667e+06
5.31824e+06
5.25521e+06
5.25378e+06
5.2727e+06
5.27034e+06
5.23267e+06
5.15467e+06
5.08036e+06
5.00974e+06
4.94261e+06
4.87867e+06
4.81746e+06
5.38839e+06
6.90727e+06
8.31069e+06
8.22063e+06
6.72069e+06
5.40331e+06
4.51958e+06
4.47279e+06
4.08491e+06
3.26521e+06
2.36855e+06
1.51888e+06
1.19246e+06
1.28409e+06
1.5366e+06
1.50808e+06
1.49274e+06
1.45637e+06
1.47997e+06
1.47312e+06
1.37411e+06
1.31089e+06
1.30821e+06
1.33385e+06
1.32118e+06
1.32792e+06
1.33309e+06
1.32423e+06
1.31585e+06
1.38683e+06
1.48458e+06
1.58837e+06
1.67762e+06
1.71814e+06
1.77937e+06
1.79181e+06
1.79474e+06
1.7917e+06
1.78303e+06