/*--------------------------------*- C++ -*----------------------------------*\
| =========                 |                                                 |
| \\      /  F ield         | foam-extend: Open Source CFD                    |
|  \\    /   O peration     | Version:     4.1                                |
|   \\  /    A nd           | Web:         http://www.foam-extend.org         |
|    \\/     M anipulation  |                                                 |
\*---------------------------------------------------------------------------*/
FoamFile
{
    version     2.0;
    format      ascii;
    class       volVectorField;
    location    "4";
    object      D;
}
// * * * * * * * * * * * * * * * * * * * * * * * * * * * * * * * * * * * * * //

dimensions      [0 1 0 0 0 0 0];

internalField   nonuniform List<vector> 
100000
(
(2.29872e-06 -9.53686e-07 2.3955e-06)
(2.27998e-06 -9.40878e-07 2.51851e-06)
(2.26207e-06 -9.28661e-07 2.63803e-06)
(2.24495e-06 -9.17064e-07 2.73217e-06)
(2.22859e-06 -9.06034e-07 2.81545e-06)
(2.21296e-06 -8.95554e-07 2.89571e-06)
(2.19803e-06 -8.85594e-07 2.97311e-06)
(2.18377e-06 -8.76132e-07 3.04779e-06)
(2.17015e-06 -8.67144e-07 3.11984e-06)
(2.15714e-06 -8.58608e-07 3.18936e-06)
(2.14472e-06 -8.50504e-07 3.25647e-06)
(2.13286e-06 -8.42813e-07 3.32124e-06)
(2.12154e-06 -8.35516e-07 3.38382e-06)
(2.11074e-06 -8.28595e-07 3.44424e-06)
(2.10044e-06 -8.22034e-07 3.505e-06)
(2.09062e-06 -8.15817e-07 3.5643e-06)
(2.08126e-06 -8.09929e-07 3.62159e-06)
(2.07235e-06 -8.04357e-07 3.67697e-06)
(2.06386e-06 -7.99086e-07 3.73052e-06)
(2.05578e-06 -7.94103e-07 3.78233e-06)
(2.04809e-06 -7.89397e-07 3.83246e-06)
(2.04078e-06 -7.84956e-07 3.88096e-06)
(2.03384e-06 -7.80769e-07 3.92788e-06)
(2.02726e-06 -7.76826e-07 3.97332e-06)
(2.02101e-06 -7.73115e-07 4.01471e-06)
(2.01509e-06 -7.69629e-07 4.05421e-06)
(2.00948e-06 -7.66357e-07 4.09237e-06)
(2.00418e-06 -7.63291e-07 4.12926e-06)
(1.99917e-06 -7.60423e-07 4.16493e-06)
(1.99445e-06 -7.57745e-07 4.19943e-06)
(1.99e-06 -7.55249e-07 4.23281e-06)
(1.98582e-06 -7.52929e-07 4.2651e-06)
(1.98189e-06 -7.50778e-07 4.29631e-06)
(1.9782e-06 -7.48786e-07 4.32653e-06)
(1.97476e-06 -7.46949e-07 4.35575e-06)
(1.97154e-06 -7.45263e-07 4.38401e-06)
(1.96855e-06 -7.43721e-07 4.41137e-06)
(1.96578e-06 -7.42316e-07 4.43784e-06)
(1.96321e-06 -7.41044e-07 4.46347e-06)
(1.96085e-06 -7.399e-07 4.48828e-06)
(1.95868e-06 -7.38878e-07 4.51232e-06)
(1.9567e-06 -7.37975e-07 4.52931e-06)
(1.9549e-06 -7.37186e-07 4.52907e-06)
(1.95328e-06 -7.36506e-07 4.52857e-06)
(1.95184e-06 -7.35932e-07 4.5278e-06)
(1.95055e-06 -7.35459e-07 4.52677e-06)
(1.94943e-06 -7.35083e-07 4.5255e-06)
(1.94847e-06 -7.34802e-07 4.52399e-06)
(1.94766e-06 -7.34611e-07 4.52225e-06)
(1.94699e-06 -7.34508e-07 4.52029e-06)
(1.94647e-06 -7.34488e-07 4.51811e-06)
(1.94608e-06 -7.3455e-07 4.51573e-06)
(1.94583e-06 -7.34689e-07 4.51315e-06)
(1.94571e-06 -7.34904e-07 4.51038e-06)
(1.94572e-06 -7.35191e-07 4.50741e-06)
(1.94585e-06 -7.35547e-07 4.50427e-06)
(1.94609e-06 -7.35971e-07 4.50094e-06)
(1.94645e-06 -7.3646e-07 4.49745e-06)
(1.94693e-06 -7.3701e-07 4.49379e-06)
(1.94751e-06 -7.37621e-07 4.48997e-06)
(1.9482e-06 -7.3829e-07 4.48599e-06)
(1.94899e-06 -7.39014e-07 4.48187e-06)
(1.94988e-06 -7.39792e-07 4.4776e-06)
(1.95087e-06 -7.40622e-07 4.47318e-06)
(1.95195e-06 -7.41501e-07 4.46863e-06)
(1.95312e-06 -7.42429e-07 4.46394e-06)
(1.95438e-06 -7.43402e-07 4.45912e-06)
(1.95573e-06 -7.4442e-07 4.45417e-06)
(1.95716e-06 -7.45481e-07 4.4491e-06)
(1.95867e-06 -7.46584e-07 4.44391e-06)
(1.96026e-06 -7.47726e-07 4.4386e-06)
(1.96193e-06 -7.48906e-07 4.43318e-06)
(1.96368e-06 -7.50123e-07 4.42765e-06)
(1.9655e-06 -7.51375e-07 4.42201e-06)
(1.96738e-06 -7.52661e-07 4.41625e-06)
(1.96934e-06 -7.5398e-07 4.41039e-06)
(1.97136e-06 -7.55331e-07 4.40443e-06)
(1.97345e-06 -7.56711e-07 4.39837e-06)
(1.97561e-06 -7.58121e-07 4.39221e-06)
(1.97782e-06 -7.59559e-07 4.38596e-06)
(1.98009e-06 -7.61023e-07 4.37961e-06)
(1.98243e-06 -7.62514e-07 4.37316e-06)
(1.98481e-06 -7.64029e-07 4.36662e-06)
(1.98726e-06 -7.65567e-07 4.35998e-06)
(1.98976e-06 -7.67129e-07 4.35325e-06)
(1.99231e-06 -7.68712e-07 4.34642e-06)
(1.99491e-06 -7.70317e-07 4.3395e-06)
(1.99756e-06 -7.71941e-07 4.33249e-06)
(2.00026e-06 -7.73585e-07 4.32539e-06)
(2.003e-06 -7.75246e-07 4.3139e-06)
(2.00579e-06 -7.76926e-07 4.29903e-06)
(2.00863e-06 -7.78621e-07 4.28395e-06)
(2.01151e-06 -7.80333e-07 4.26862e-06)
(2.01443e-06 -7.8206e-07 4.25302e-06)
(2.01739e-06 -7.83802e-07 4.23711e-06)
(2.02039e-06 -7.85557e-07 4.22083e-06)
(2.02343e-06 -7.87325e-07 4.20715e-06)
(2.02651e-06 -7.89107e-07 4.19683e-06)
(2.02962e-06 -7.909e-07 4.18638e-06)
(2.03278e-06 -7.92707e-07 4.17582e-06)
(2.28007e-06 -9.61404e-07 2.20837e-06)
(2.26113e-06 -9.48855e-07 2.436e-06)
(2.24303e-06 -9.36882e-07 2.62191e-06)
(2.22574e-06 -9.25519e-07 2.73712e-06)
(2.20921e-06 -9.14711e-07 2.84821e-06)
(2.19342e-06 -9.04443e-07 2.92883e-06)
(2.17834e-06 -8.94686e-07 3.00646e-06)
(2.16393e-06 -8.85417e-07 3.08138e-06)
(2.15017e-06 -8.76613e-07 3.15367e-06)
(2.13703e-06 -8.68253e-07 3.22339e-06)
(2.12448e-06 -8.60318e-07 3.29071e-06)
(2.1125e-06 -8.52787e-07 3.35569e-06)
(2.10107e-06 -8.45643e-07 3.4185e-06)
(2.09016e-06 -8.38868e-07 3.4747e-06)
(2.07976e-06 -8.32447e-07 3.52872e-06)
(2.06984e-06 -8.26364e-07 3.58358e-06)
(2.06038e-06 -8.20605e-07 3.63766e-06)
(2.05137e-06 -8.15155e-07 3.68982e-06)
(2.0428e-06 -8.10001e-07 3.74016e-06)
(2.03463e-06 -8.05131e-07 3.78874e-06)
(2.02687e-06 -8.00532e-07 3.83565e-06)
(2.01948e-06 -7.96194e-07 3.88096e-06)
(2.01247e-06 -7.92106e-07 3.92468e-06)
(2.00581e-06 -7.88256e-07 3.96691e-06)
(1.9995e-06 -7.84636e-07 4.00771e-06)
(1.99351e-06 -7.81237e-07 4.04714e-06)
(1.98785e-06 -7.78048e-07 4.08524e-06)
(1.98249e-06 -7.75062e-07 4.12206e-06)
(1.97742e-06 -7.7227e-07 4.15767e-06)
(1.97264e-06 -7.69665e-07 4.19212e-06)
(1.96814e-06 -7.6724e-07 4.22545e-06)
(1.96391e-06 -7.64985e-07 4.25771e-06)
(1.95992e-06 -7.62901e-07 4.28891e-06)
(1.95619e-06 -7.60976e-07 4.31908e-06)
(1.9527e-06 -7.59198e-07 4.34827e-06)
(1.94944e-06 -7.5757e-07 4.37652e-06)
(1.94641e-06 -7.56082e-07 4.40386e-06)
(1.94359e-06 -7.54731e-07 4.43034e-06)
(1.94099e-06 -7.53511e-07 4.45597e-06)
(1.93858e-06 -7.52416e-07 4.48078e-06)
(1.93638e-06 -7.51442e-07 4.50482e-06)
(1.93436e-06 -7.50585e-07 4.52022e-06)
(1.93253e-06 -7.4984e-07 4.51992e-06)
(1.93087e-06 -7.49203e-07 4.51934e-06)
(1.92939e-06 -7.4867e-07 4.51851e-06)
(1.92808e-06 -7.48237e-07 4.51742e-06)
(1.92692e-06 -7.479e-07 4.51609e-06)
(1.92593e-06 -7.47656e-07 4.51451e-06)
(1.92509e-06 -7.47501e-07 4.51271e-06)
(1.92439e-06 -7.47433e-07 4.5107e-06)
(1.92384e-06 -7.47447e-07 4.50846e-06)
(1.92342e-06 -7.47541e-07 4.50603e-06)
(1.92314e-06 -7.47712e-07 4.50339e-06)
(1.92299e-06 -7.47957e-07 4.50057e-06)
(1.92297e-06 -7.48273e-07 4.49755e-06)
(1.92307e-06 -7.48658e-07 4.49436e-06)
(1.92329e-06 -7.4911e-07 4.49099e-06)
(1.92363e-06 -7.49625e-07 4.48744e-06)
(1.92407e-06 -7.50202e-07 4.48374e-06)
(1.92463e-06 -7.50838e-07 4.47987e-06)
(1.92529e-06 -7.51531e-07 4.47585e-06)
(1.92606e-06 -7.5228e-07 4.47168e-06)
(1.92692e-06 -7.53081e-07 4.46737e-06)
(1.92788e-06 -7.53934e-07 4.46291e-06)
(1.92894e-06 -7.54835e-07 4.45832e-06)
(1.93009e-06 -7.55785e-07 4.45358e-06)
(1.93132e-06 -7.56779e-07 4.44872e-06)
(1.93265e-06 -7.57818e-07 4.44373e-06)
(1.93406e-06 -7.58899e-07 4.43862e-06)
(1.93554e-06 -7.60021e-07 4.43339e-06)
(1.93711e-06 -7.61182e-07 4.42804e-06)
(1.93876e-06 -7.62381e-07 4.42258e-06)
(1.94048e-06 -7.63617e-07 4.41701e-06)
(1.94227e-06 -7.64887e-07 4.41132e-06)
(1.94414e-06 -7.66191e-07 4.40553e-06)
(1.94607e-06 -7.67528e-07 4.39963e-06)
(1.94807e-06 -7.68895e-07 4.39362e-06)
(1.95013e-06 -7.70293e-07 4.38752e-06)
(1.95226e-06 -7.71719e-07 4.38132e-06)
(1.95445e-06 -7.73173e-07 4.37502e-06)
(1.9567e-06 -7.74654e-07 4.36863e-06)
(1.95901e-06 -7.7616e-07 4.36214e-06)
(1.96138e-06 -7.7769e-07 4.35555e-06)
(1.9638e-06 -7.79244e-07 4.34886e-06)
(1.96627e-06 -7.80821e-07 4.34208e-06)
(1.9688e-06 -7.82419e-07 4.33206e-06)
(1.97137e-06 -7.84038e-07 4.31766e-06)
(1.974e-06 -7.85677e-07 4.30309e-06)
(1.97667e-06 -7.87335e-07 4.28834e-06)
(1.97939e-06 -7.89012e-07 4.2734e-06)
(1.98216e-06 -7.90705e-07 4.25825e-06)
(1.98497e-06 -7.92415e-07 4.24287e-06)
(1.98782e-06 -7.94141e-07 4.22724e-06)
(1.99072e-06 -7.95882e-07 4.21135e-06)
(1.99366e-06 -7.97637e-07 4.20104e-06)
(1.99663e-06 -7.99406e-07 4.19102e-06)
(1.99965e-06 -8.01189e-07 4.18085e-06)
(2.0027e-06 -8.02984e-07 4.17059e-06)
(2.00579e-06 -8.04792e-07 4.1603e-06)
(2.00891e-06 -8.06608e-07 4.14984e-06)
(2.26128e-06 -9.69068e-07 1.98715e-06)
(2.24216e-06 -9.56783e-07 2.23651e-06)
(2.22388e-06 -9.45061e-07 2.45672e-06)
(2.20641e-06 -9.33936e-07 2.6458e-06)
(2.18972e-06 -9.23356e-07 2.82989e-06)
(2.17378e-06 -9.13306e-07 2.93707e-06)
(2.15854e-06 -9.03756e-07 3.03419e-06)
(2.144e-06 -8.94685e-07 3.10529e-06)
(2.1301e-06 -8.86069e-07 3.17258e-06)
(2.11683e-06 -8.7789e-07 3.23734e-06)
(2.10416e-06 -8.70126e-07 3.29975e-06)
(2.09206e-06 -8.62759e-07 3.35983e-06)
(2.08052e-06 -8.55772e-07 3.4178e-06)
(2.06951e-06 -8.49147e-07 3.47365e-06)
(2.05901e-06 -8.4287e-07 3.52751e-06)
(2.04899e-06 -8.36924e-07 3.57948e-06)
(2.03944e-06 -8.31295e-07 3.63155e-06)
(2.03035e-06 -8.2597e-07 3.68355e-06)
(2.02169e-06 -8.20936e-07 3.73374e-06)
(2.01344e-06 -8.16181e-07 3.78219e-06)
(2.0056e-06 -8.11692e-07 3.82895e-06)
(1.99815e-06 -8.07459e-07 3.87414e-06)
(1.99106e-06 -8.03472e-07 3.91775e-06)
(1.98434e-06 -7.99719e-07 3.95988e-06)
(1.97796e-06 -7.96192e-07 4.00058e-06)
(1.97191e-06 -7.92881e-07 4.03992e-06)
(1.96618e-06 -7.89777e-07 4.07794e-06)
(1.96076e-06 -7.86873e-07 4.11469e-06)
(1.95564e-06 -7.8416e-07 4.15023e-06)
(1.95081e-06 -7.8163e-07 4.18461e-06)
(1.94626e-06 -7.79277e-07 4.21788e-06)
(1.94197e-06 -7.77093e-07 4.25008e-06)
(1.93794e-06 -7.7507e-07 4.28126e-06)
(1.93417e-06 -7.73208e-07 4.31139e-06)
(1.93063e-06 -7.71495e-07 4.34055e-06)
(1.92733e-06 -7.69926e-07 4.36878e-06)
(1.92426e-06 -7.68495e-07 4.39609e-06)
(1.9214e-06 -7.67199e-07 4.42255e-06)
(1.91875e-06 -7.66031e-07 4.44817e-06)
(1.91631e-06 -7.64987e-07 4.47298e-06)
(1.91407e-06 -7.64062e-07 4.49702e-06)
(1.91202e-06 -7.63252e-07 4.51107e-06)
(1.91015e-06 -7.62552e-07 4.5107e-06)
(1.90846e-06 -7.61959e-07 4.51005e-06)
(1.90694e-06 -7.61468e-07 4.50915e-06)
(1.9056e-06 -7.61075e-07 4.508e-06)
(1.90441e-06 -7.60777e-07 4.5066e-06)
(1.90339e-06 -7.60571e-07 4.50497e-06)
(1.90251e-06 -7.60453e-07 4.50311e-06)
(1.90179e-06 -7.6042e-07 4.50103e-06)
(1.9012e-06 -7.60468e-07 4.49874e-06)
(1.90076e-06 -7.60595e-07 4.49625e-06)
(1.90045e-06 -7.60798e-07 4.49356e-06)
(1.90028e-06 -7.61074e-07 4.49069e-06)
(1.90023e-06 -7.6142e-07 4.48762e-06)
(1.9003e-06 -7.61834e-07 4.48438e-06)
(1.90049e-06 -7.62314e-07 4.48096e-06)
(1.9008e-06 -7.62857e-07 4.47737e-06)
(1.90122e-06 -7.6346e-07 4.47361e-06)
(1.90175e-06 -7.64122e-07 4.4697e-06)
(1.90239e-06 -7.6484e-07 4.46564e-06)
(1.90313e-06 -7.65613e-07 4.46143e-06)
(1.90397e-06 -7.66438e-07 4.45707e-06)
(1.90491e-06 -7.67313e-07 4.45257e-06)
(1.90594e-06 -7.68237e-07 4.44793e-06)
(1.90706e-06 -7.69208e-07 4.44316e-06)
(1.90828e-06 -7.70225e-07 4.43825e-06)
(1.90957e-06 -7.71284e-07 4.43322e-06)
(1.91096e-06 -7.72386e-07 4.42807e-06)
(1.91242e-06 -7.73527e-07 4.4228e-06)
(1.91397e-06 -7.74708e-07 4.41742e-06)
(1.91559e-06 -7.75926e-07 4.41192e-06)
(1.91729e-06 -7.7718e-07 4.40631e-06)
(1.91905e-06 -7.78468e-07 4.40058e-06)
(1.92089e-06 -7.7979e-07 4.39475e-06)
(1.9228e-06 -7.81144e-07 4.38881e-06)
(1.92478e-06 -7.82529e-07 4.38277e-06)
(1.92682e-06 -7.83943e-07 4.37663e-06)
(1.92893e-06 -7.85386e-07 4.37039e-06)
(1.93109e-06 -7.86856e-07 4.36406e-06)
(1.93332e-06 -7.88353e-07 4.35763e-06)
(1.9356e-06 -7.89875e-07 4.34959e-06)
(1.93794e-06 -7.91421e-07 4.33565e-06)
(1.94034e-06 -7.9299e-07 4.32156e-06)
(1.94279e-06 -7.94582e-07 4.30731e-06)
(1.94529e-06 -7.96195e-07 4.29291e-06)
(1.94785e-06 -7.97829e-07 4.27835e-06)
(1.95045e-06 -7.99483e-07 4.26361e-06)
(1.9531e-06 -8.01156e-07 4.24871e-06)
(1.95579e-06 -8.02846e-07 4.23362e-06)
(1.95854e-06 -8.04554e-07 4.21833e-06)
(1.96132e-06 -8.06278e-07 4.20466e-06)
(1.96415e-06 -8.08017e-07 4.19502e-06)
(1.96702e-06 -8.09772e-07 4.18527e-06)
(1.96993e-06 -8.11541e-07 4.1754e-06)
(1.97288e-06 -8.13324e-07 4.16545e-06)
(1.97587e-06 -8.1512e-07 4.1554e-06)
(1.9789e-06 -8.16928e-07 4.14532e-06)
(1.98196e-06 -8.1875e-07 4.13526e-06)
(1.98505e-06 -8.20578e-07 4.12511e-06)
(2.24237e-06 -9.76678e-07 1.74873e-06)
(2.22306e-06 -9.64662e-07 1.99192e-06)
(2.2046e-06 -9.53196e-07 2.22788e-06)
(2.18697e-06 -9.42316e-07 2.42279e-06)
(2.17012e-06 -9.31969e-07 2.59421e-06)
(2.15403e-06 -9.22141e-07 2.75176e-06)
(2.13866e-06 -9.12802e-07 2.90249e-06)
(2.12397e-06 -9.03933e-07 3.05162e-06)
(2.10995e-06 -8.95511e-07 3.16166e-06)
(2.09655e-06 -8.87515e-07 3.23714e-06)
(2.08377e-06 -8.79927e-07 3.29932e-06)
(2.07156e-06 -8.72728e-07 3.3592e-06)
(2.05991e-06 -8.65901e-07 3.41696e-06)
(2.0488e-06 -8.5943e-07 3.47265e-06)
(2.0382e-06 -8.53299e-07 3.52633e-06)
(2.02809e-06 -8.47493e-07 3.57814e-06)
(2.01845e-06 -8.41998e-07 3.62812e-06)
(2.00928e-06 -8.36801e-07 3.67725e-06)
(2.00053e-06 -8.3189e-07 3.72727e-06)
(1.99221e-06 -8.27252e-07 3.77557e-06)
(1.9843e-06 -8.22875e-07 3.82217e-06)
(1.97677e-06 -8.1875e-07 3.86722e-06)
(1.96962e-06 -8.14865e-07 3.91072e-06)
(1.96283e-06 -8.11211e-07 3.95273e-06)
(1.95638e-06 -8.07778e-07 3.99332e-06)
(1.95028e-06 -8.04558e-07 4.03255e-06)
(1.94449e-06 -8.01541e-07 4.07048e-06)
(1.93902e-06 -7.9872e-07 4.10714e-06)
(1.93385e-06 -7.96087e-07 4.14261e-06)
(1.92896e-06 -7.93634e-07 4.17692e-06)
(1.92436e-06 -7.91355e-07 4.21012e-06)
(1.92002e-06 -7.89242e-07 4.24226e-06)
(1.91595e-06 -7.87288e-07 4.27336e-06)
(1.91213e-06 -7.85489e-07 4.30346e-06)
(1.90855e-06 -7.83838e-07 4.33259e-06)
(1.90521e-06 -7.82329e-07 4.36078e-06)
(1.90209e-06 -7.80957e-07 4.38807e-06)
(1.8992e-06 -7.79716e-07 4.4145e-06)
(1.89651e-06 -7.78602e-07 4.44009e-06)
(1.89404e-06 -7.7761e-07 4.46489e-06)
(1.89176e-06 -7.76734e-07 4.48892e-06)
(1.88967e-06 -7.75972e-07 4.50186e-06)
(1.88777e-06 -7.75318e-07 4.50141e-06)
(1.88604e-06 -7.74769e-07 4.5007e-06)
(1.8845e-06 -7.74321e-07 4.49973e-06)
(1.88312e-06 -7.7397e-07 4.49851e-06)
(1.8819e-06 -7.73712e-07 4.49705e-06)
(1.88085e-06 -7.73544e-07 4.49536e-06)
(1.87994e-06 -7.73463e-07 4.49344e-06)
(1.87919e-06 -7.73465e-07 4.4913e-06)
(1.87858e-06 -7.73548e-07 4.48895e-06)
(1.87811e-06 -7.73709e-07 4.48641e-06)
(1.87777e-06 -7.73944e-07 4.48367e-06)
(1.87757e-06 -7.74251e-07 4.48074e-06)
(1.87749e-06 -7.74628e-07 4.47762e-06)
(1.87754e-06 -7.75072e-07 4.47433e-06)
(1.8777e-06 -7.7558e-07 4.47086e-06)
(1.87799e-06 -7.7615e-07 4.46722e-06)
(1.87838e-06 -7.7678e-07 4.46342e-06)
(1.87889e-06 -7.77468e-07 4.45947e-06)
(1.8795e-06 -7.78212e-07 4.45536e-06)
(1.88021e-06 -7.79009e-07 4.45111e-06)
(1.88103e-06 -7.79858e-07 4.44671e-06)
(1.88194e-06 -7.80757e-07 4.44217e-06)
(1.88295e-06 -7.81703e-07 4.43749e-06)
(1.88405e-06 -7.82696e-07 4.43267e-06)
(1.88524e-06 -7.83734e-07 4.42773e-06)
(1.88651e-06 -7.84815e-07 4.42266e-06)
(1.88787e-06 -7.85936e-07 4.41747e-06)
(1.88931e-06 -7.87098e-07 4.41216e-06)
(1.89083e-06 -7.88298e-07 4.40674e-06)
(1.89243e-06 -7.89535e-07 4.40121e-06)
(1.8941e-06 -7.90808e-07 4.39556e-06)
(1.89585e-06 -7.92115e-07 4.3898e-06)
(1.89767e-06 -7.93455e-07 4.38393e-06)
(1.89955e-06 -7.94826e-07 4.37796e-06)
(1.9015e-06 -7.96228e-07 4.37189e-06)
(1.90352e-06 -7.97659e-07 4.36571e-06)
(1.9056e-06 -7.99119e-07 4.35265e-06)
(1.90775e-06 -8.00605e-07 4.339e-06)
(1.90995e-06 -8.02118e-07 4.32522e-06)
(1.91221e-06 -8.03656e-07 4.3113e-06)
(1.91453e-06 -8.05217e-07 4.29724e-06)
(1.9169e-06 -8.06801e-07 4.28303e-06)
(1.91932e-06 -8.08408e-07 4.26867e-06)
(1.9218e-06 -8.10037e-07 4.25415e-06)
(1.92433e-06 -8.11686e-07 4.23948e-06)
(1.92691e-06 -8.13354e-07 4.22466e-06)
(1.92953e-06 -8.15041e-07 4.20968e-06)
(1.93221e-06 -8.16746e-07 4.19817e-06)
(1.93492e-06 -8.18468e-07 4.18875e-06)
(1.93768e-06 -8.20206e-07 4.17923e-06)
(1.94049e-06 -8.2196e-07 4.16961e-06)
(1.94333e-06 -8.23728e-07 4.15989e-06)
(1.94622e-06 -8.25511e-07 4.15009e-06)
(1.94914e-06 -8.27307e-07 4.14023e-06)
(1.9521e-06 -8.29117e-07 4.13031e-06)
(1.9551e-06 -8.30938e-07 4.1204e-06)
(1.95814e-06 -8.32773e-07 4.11051e-06)
(1.96121e-06 -8.34613e-07 4.10055e-06)
(2.22332e-06 -9.84232e-07 1.51109e-06)
(2.20384e-06 -9.72492e-07 1.74558e-06)
(2.18521e-06 -9.61288e-07 1.96047e-06)
(2.16742e-06 -9.50657e-07 2.14694e-06)
(2.15042e-06 -9.40548e-07 2.32527e-06)
(2.13418e-06 -9.30947e-07 2.49562e-06)
(2.11867e-06 -9.21824e-07 2.65849e-06)
(2.10386e-06 -9.13161e-07 2.79915e-06)
(2.08971e-06 -9.04936e-07 2.93338e-06)
(2.0762e-06 -8.97128e-07 3.06174e-06)
(2.0633e-06 -8.89719e-07 3.18472e-06)
(2.05099e-06 -8.82692e-07 3.30355e-06)
(2.03924e-06 -8.76029e-07 3.4162e-06)
(2.02803e-06 -8.69714e-07 3.47168e-06)
(2.01733e-06 -8.63732e-07 3.52518e-06)
(2.00714e-06 -8.58069e-07 3.5768e-06)
(1.99742e-06 -8.52711e-07 3.62663e-06)
(1.98816e-06 -8.47645e-07 3.6747e-06)
(1.97934e-06 -8.42859e-07 3.7211e-06)
(1.97094e-06 -8.3834e-07 3.76889e-06)
(1.96295e-06 -8.34078e-07 3.81532e-06)
(1.95536e-06 -8.30063e-07 3.86021e-06)
(1.94814e-06 -8.26283e-07 3.90356e-06)
(1.94129e-06 -8.2273e-07 3.94545e-06)
(1.93479e-06 -8.19393e-07 3.98592e-06)
(1.92862e-06 -8.16265e-07 4.02504e-06)
(1.92278e-06 -8.13337e-07 4.06286e-06)
(1.91725e-06 -8.10601e-07 4.09943e-06)
(1.91203e-06 -8.0805e-07 4.1348e-06)
(1.9071e-06 -8.05675e-07 4.16902e-06)
(1.90245e-06 -8.0347e-07 4.20215e-06)
(1.89807e-06 -8.01429e-07 4.23421e-06)
(1.89395e-06 -7.99545e-07 4.26525e-06)
(1.89008e-06 -7.97812e-07 4.29529e-06)
(1.88646e-06 -7.96225e-07 4.32437e-06)
(1.88308e-06 -7.94777e-07 4.35253e-06)
(1.87993e-06 -7.93464e-07 4.37978e-06)
(1.87699e-06 -7.9228e-07 4.40617e-06)
(1.87427e-06 -7.9122e-07 4.43174e-06)
(1.87176e-06 -7.90281e-07 4.45652e-06)
(1.86944e-06 -7.89456e-07 4.48054e-06)
(1.86732e-06 -7.88742e-07 4.4926e-06)
(1.86539e-06 -7.88135e-07 4.49208e-06)
(1.86363e-06 -7.87631e-07 4.49129e-06)
(1.86205e-06 -7.87227e-07 4.49025e-06)
(1.86064e-06 -7.86917e-07 4.48897e-06)
(1.8594e-06 -7.867e-07 4.48744e-06)
(1.85831e-06 -7.86571e-07 4.48569e-06)
(1.85738e-06 -7.86528e-07 4.4837e-06)
(1.8566e-06 -7.86566e-07 4.48151e-06)
(1.85596e-06 -7.86685e-07 4.4791e-06)
(1.85546e-06 -7.86879e-07 4.4765e-06)
(1.8551e-06 -7.87147e-07 4.4737e-06)
(1.85486e-06 -7.87486e-07 4.47072e-06)
(1.85476e-06 -7.87894e-07 4.46756e-06)
(1.85478e-06 -7.88367e-07 4.46421e-06)
(1.85492e-06 -7.88904e-07 4.4607e-06)
(1.85518e-06 -7.89502e-07 4.45701e-06)
(1.85555e-06 -7.9016e-07 4.45317e-06)
(1.85603e-06 -7.90874e-07 4.44917e-06)
(1.85662e-06 -7.91643e-07 4.44502e-06)
(1.85731e-06 -7.92465e-07 4.44072e-06)
(1.8581e-06 -7.93338e-07 4.43628e-06)
(1.85899e-06 -7.9426e-07 4.4317e-06)
(1.85997e-06 -7.9523e-07 4.42698e-06)
(1.86105e-06 -7.96245e-07 4.42213e-06)
(1.86221e-06 -7.97304e-07 4.41715e-06)
(1.86347e-06 -7.98406e-07 4.41204e-06)
(1.8648e-06 -7.99548e-07 4.40681e-06)
(1.86622e-06 -8.0073e-07 4.40147e-06)
(1.86771e-06 -8.0195e-07 4.39601e-06)
(1.86929e-06 -8.03206e-07 4.39045e-06)
(1.87094e-06 -8.04498e-07 4.38477e-06)
(1.87266e-06 -8.05823e-07 4.37897e-06)
(1.87445e-06 -8.07181e-07 4.3687e-06)
(1.87632e-06 -8.0857e-07 4.35544e-06)
(1.87824e-06 -8.09989e-07 4.34206e-06)
(1.88024e-06 -8.11437e-07 4.32856e-06)
(1.8823e-06 -8.12913e-07 4.31493e-06)
(1.88441e-06 -8.14416e-07 4.30118e-06)
(1.88659e-06 -8.15946e-07 4.2873e-06)
(1.88883e-06 -8.17499e-07 4.27328e-06)
(1.89112e-06 -8.19075e-07 4.25913e-06)
(1.89347e-06 -8.20675e-07 4.24484e-06)
(1.89587e-06 -8.22296e-07 4.23041e-06)
(1.89833e-06 -8.2394e-07 4.21584e-06)
(1.90083e-06 -8.25605e-07 4.20112e-06)
(1.90338e-06 -8.27287e-07 4.19141e-06)
(1.90599e-06 -8.28988e-07 4.18219e-06)
(1.90863e-06 -8.30707e-07 4.17288e-06)
(1.91132e-06 -8.32443e-07 4.16347e-06)
(1.91406e-06 -8.34195e-07 4.15962e-06)
(1.91684e-06 -8.35963e-07 4.16071e-06)
(1.91966e-06 -8.37745e-07 4.16178e-06)
(1.92252e-06 -8.39542e-07 4.16282e-06)
(1.92542e-06 -8.41352e-07 4.1639e-06)
(1.92835e-06 -8.43175e-07 4.16489e-06)
(1.93133e-06 -8.45009e-07 4.16608e-06)
(1.93433e-06 -8.46857e-07 4.16701e-06)
(1.93738e-06 -8.4871e-07 4.16811e-06)
(2.20415e-06 -9.9173e-07 1.26801e-06)
(2.18449e-06 -9.80272e-07 1.48452e-06)
(2.16571e-06 -9.69334e-07 1.69081e-06)
(2.14776e-06 -9.58959e-07 1.87134e-06)
(2.13062e-06 -9.49092e-07 2.04401e-06)
(2.11424e-06 -9.39722e-07 2.20897e-06)
(2.0986e-06 -9.3082e-07 2.36676e-06)
(2.08366e-06 -9.22368e-07 2.51737e-06)
(2.06939e-06 -9.14343e-07 2.66141e-06)
(2.05577e-06 -9.06727e-07 2.79907e-06)
(2.04276e-06 -8.99501e-07 2.92616e-06)
(2.03035e-06 -8.92649e-07 3.04045e-06)
(2.0185e-06 -8.86152e-07 3.14992e-06)
(2.0072e-06 -8.79997e-07 3.25483e-06)
(1.99641e-06 -8.74168e-07 3.35535e-06)
(1.98613e-06 -8.68651e-07 3.45165e-06)
(1.97633e-06 -8.63432e-07 3.55846e-06)
(1.96699e-06 -8.58499e-07 3.68676e-06)
(1.9581e-06 -8.5384e-07 3.72339e-06)
(1.94963e-06 -8.49444e-07 3.76397e-06)
(1.94158e-06 -8.45299e-07 3.8084e-06)
(1.93392e-06 -8.41395e-07 3.85312e-06)
(1.92664e-06 -8.37723e-07 3.89632e-06)
(1.91972e-06 -8.34272e-07 3.93807e-06)
(1.91316e-06 -8.31034e-07 3.97841e-06)
(1.90694e-06 -8.28e-07 4.0174e-06)
(1.90105e-06 -8.25162e-07 4.05509e-06)
(1.89547e-06 -8.22513e-07 4.09154e-06)
(1.8902e-06 -8.20044e-07 4.12682e-06)
(1.88522e-06 -8.17749e-07 4.16095e-06)
(1.88052e-06 -8.15621e-07 4.19399e-06)
(1.8761e-06 -8.13653e-07 4.22596e-06)
(1.87194e-06 -8.1184e-07 4.25693e-06)
(1.86803e-06 -8.10174e-07 4.28691e-06)
(1.86437e-06 -8.08652e-07 4.31593e-06)
(1.86095e-06 -8.07267e-07 4.34403e-06)
(1.85776e-06 -8.06013e-07 4.37124e-06)
(1.85479e-06 -8.04887e-07 4.39759e-06)
(1.85203e-06 -8.03883e-07 4.42312e-06)
(1.84948e-06 -8.02996e-07 4.44786e-06)
(1.84713e-06 -8.02223e-07 4.47185e-06)
(1.84498e-06 -8.01559e-07 4.48329e-06)
(1.84301e-06 -8.01e-07 4.48269e-06)
(1.84123e-06 -8.00541e-07 4.48183e-06)
(1.83962e-06 -8.00181e-07 4.48072e-06)
(1.83818e-06 -7.99914e-07 4.47937e-06)
(1.8369e-06 -7.99738e-07 4.47778e-06)
(1.83579e-06 -7.99648e-07 4.47596e-06)
(1.83483e-06 -7.99643e-07 4.47391e-06)
(1.83402e-06 -7.99719e-07 4.47166e-06)
(1.83335e-06 -7.99873e-07 4.46919e-06)
(1.83282e-06 -8.00102e-07 4.46653e-06)
(1.83244e-06 -8.00403e-07 4.46382e-06)
(1.83218e-06 -8.00774e-07 4.46116e-06)
(1.83205e-06 -8.01213e-07 4.4583e-06)
(1.83204e-06 -8.01717e-07 4.45526e-06)
(1.83216e-06 -8.02283e-07 4.45205e-06)
(1.83239e-06 -8.02909e-07 4.44866e-06)
(1.83274e-06 -8.03594e-07 4.4451e-06)
(1.8332e-06 -8.04335e-07 4.44139e-06)
(1.83376e-06 -8.05129e-07 4.43751e-06)
(1.83442e-06 -8.05977e-07 4.43348e-06)
(1.83519e-06 -8.06874e-07 4.4293e-06)
(1.83606e-06 -8.0782e-07 4.42497e-06)
(1.83702e-06 -8.08812e-07 4.42051e-06)
(1.83807e-06 -8.0985e-07 4.4159e-06)
(1.83921e-06 -8.10931e-07 4.41115e-06)
(1.84044e-06 -8.12054e-07 4.40628e-06)
(1.84175e-06 -8.13217e-07 4.40639e-06)
(1.84314e-06 -8.14419e-07 4.40937e-06)
(1.84462e-06 -8.15659e-07 4.41231e-06)
(1.84617e-06 -8.16934e-07 4.40857e-06)
(1.84779e-06 -8.18245e-07 4.40483e-06)
(1.84949e-06 -8.19588e-07 4.40108e-06)
(1.85126e-06 -8.20964e-07 4.39731e-06)
(1.8531e-06 -8.22371e-07 4.39353e-06)
(1.855e-06 -8.23808e-07 4.38972e-06)
(1.85698e-06 -8.25273e-07 4.38587e-06)
(1.85901e-06 -8.26765e-07 4.382e-06)
(1.8611e-06 -8.28284e-07 4.37808e-06)
(1.86326e-06 -8.2983e-07 4.37412e-06)
(1.86547e-06 -8.314e-07 4.3701e-06)
(1.86774e-06 -8.32992e-07 4.36602e-06)
(1.87007e-06 -8.34606e-07 4.36186e-06)
(1.87244e-06 -8.36238e-07 4.35831e-06)
(1.87487e-06 -8.37899e-07 4.35943e-06)
(1.87735e-06 -8.3958e-07 4.36052e-06)
(1.87988e-06 -8.41277e-07 4.36155e-06)
(1.88246e-06 -8.42993e-07 4.36176e-06)
(1.88508e-06 -8.44726e-07 4.32477e-06)
(1.88775e-06 -8.46476e-07 4.28899e-06)
(1.89046e-06 -8.48243e-07 4.25367e-06)
(1.89321e-06 -8.50024e-07 4.22623e-06)
(1.896e-06 -8.5182e-07 4.20654e-06)
(1.89884e-06 -8.5363e-07 4.18686e-06)
(1.90171e-06 -8.55454e-07 4.16712e-06)
(1.90462e-06 -8.5729e-07 4.14756e-06)
(1.90757e-06 -8.59137e-07 4.12772e-06)
(1.91055e-06 -8.60998e-07 4.10847e-06)
(1.91357e-06 -8.62864e-07 4.08878e-06)
(2.18484e-06 -9.99171e-07 1.01431e-06)
(2.16502e-06 -9.88e-07 1.22399e-06)
(2.14609e-06 -9.77334e-07 1.42155e-06)
(2.12799e-06 -9.67218e-07 1.59608e-06)
(2.11071e-06 -9.57599e-07 1.76307e-06)
(2.09421e-06 -9.48465e-07 1.92246e-06)
(2.07844e-06 -9.39788e-07 2.07507e-06)
(2.06338e-06 -9.3155e-07 2.22074e-06)
(2.049e-06 -9.2373e-07 2.3601e-06)
(2.03527e-06 -9.1631e-07 2.49323e-06)
(2.02216e-06 -9.09271e-07 2.62058e-06)
(2.00965e-06 -9.02596e-07 2.74238e-06)
(1.9977e-06 -8.9627e-07 2.85874e-06)
(1.98631e-06 -8.90277e-07 2.97017e-06)
(1.97544e-06 -8.84604e-07 3.07671e-06)
(1.96508e-06 -8.79235e-07 3.17743e-06)
(1.9552e-06 -8.74158e-07 3.26705e-06)
(1.94579e-06 -8.69361e-07 3.35295e-06)
(1.93683e-06 -8.64833e-07 3.43528e-06)
(1.92829e-06 -8.60561e-07 3.51428e-06)
(1.92017e-06 -8.56535e-07 3.58996e-06)
(1.91245e-06 -8.52745e-07 3.66285e-06)
(1.90511e-06 -8.49181e-07 3.767e-06)
(1.89814e-06 -8.45835e-07 3.86773e-06)
(1.89152e-06 -8.42697e-07 3.96381e-06)
(1.88525e-06 -8.39759e-07 4.05544e-06)
(1.8793e-06 -8.37013e-07 4.14279e-06)
(1.87368e-06 -8.34452e-07 4.17266e-06)
(1.86836e-06 -8.32068e-07 4.20126e-06)
(1.86333e-06 -8.29854e-07 4.22954e-06)
(1.85859e-06 -8.27803e-07 4.25751e-06)
(1.85412e-06 -8.2591e-07 4.28518e-06)
(1.84992e-06 -8.24168e-07 4.3128e-06)
(1.84598e-06 -8.22572e-07 4.34057e-06)
(1.84228e-06 -8.21115e-07 4.36802e-06)
(1.83882e-06 -8.19794e-07 4.39515e-06)
(1.83559e-06 -8.18601e-07 4.42196e-06)
(1.83259e-06 -8.17534e-07 4.44845e-06)
(1.82979e-06 -8.16586e-07 4.47465e-06)
(1.82721e-06 -8.15753e-07 4.50055e-06)
(1.82483e-06 -8.15032e-07 4.52619e-06)
(1.82264e-06 -8.14418e-07 4.53614e-06)
(1.82065e-06 -8.13907e-07 4.53792e-06)
(1.81883e-06 -8.13496e-07 4.53982e-06)
(1.81719e-06 -8.1318e-07 4.54185e-06)
(1.81572e-06 -8.12956e-07 4.544e-06)
(1.81442e-06 -8.12822e-07 4.54625e-06)
(1.81328e-06 -8.12773e-07 4.54859e-06)
(1.81229e-06 -8.12806e-07 4.55103e-06)
(1.81145e-06 -8.12919e-07 4.55356e-06)
(1.81076e-06 -8.13109e-07 4.55616e-06)
(1.81021e-06 -8.13373e-07 4.55885e-06)
(1.80979e-06 -8.13708e-07 4.5616e-06)
(1.80951e-06 -8.14112e-07 4.56443e-06)
(1.80936e-06 -8.14582e-07 4.56732e-06)
(1.80933e-06 -8.15116e-07 4.57026e-06)
(1.80942e-06 -8.15712e-07 4.57325e-06)
(1.80962e-06 -8.16367e-07 4.57629e-06)
(1.80995e-06 -8.17079e-07 4.57937e-06)
(1.81038e-06 -8.17847e-07 4.58249e-06)
(1.81092e-06 -8.18668e-07 4.58564e-06)
(1.81156e-06 -8.1954e-07 4.58882e-06)
(1.8123e-06 -8.20462e-07 4.59202e-06)
(1.81314e-06 -8.21432e-07 4.59524e-06)
(1.81408e-06 -8.22448e-07 4.58765e-06)
(1.81511e-06 -8.23508e-07 4.55884e-06)
(1.81623e-06 -8.24611e-07 4.52948e-06)
(1.81743e-06 -8.25755e-07 4.49961e-06)
(1.81872e-06 -8.26939e-07 4.46925e-06)
(1.82009e-06 -8.28162e-07 4.43739e-06)
(1.82154e-06 -8.29421e-07 4.40481e-06)
(1.82307e-06 -8.30716e-07 4.37178e-06)
(1.82467e-06 -8.32045e-07 4.33833e-06)
(1.82634e-06 -8.33407e-07 4.30448e-06)
(1.82809e-06 -8.34802e-07 4.27024e-06)
(1.82991e-06 -8.36226e-07 4.23563e-06)
(1.83179e-06 -8.37681e-07 4.20789e-06)
(1.83373e-06 -8.39163e-07 4.18387e-06)
(1.83574e-06 -8.40674e-07 4.15963e-06)
(1.83782e-06 -8.42209e-07 4.13531e-06)
(1.83995e-06 -8.43769e-07 4.11082e-06)
(1.84214e-06 -8.45356e-07 4.08606e-06)
(1.84438e-06 -8.46964e-07 4.06214e-06)
(1.84668e-06 -8.48599e-07 4.03742e-06)
(1.84903e-06 -8.50246e-07 4.01272e-06)
(1.85144e-06 -8.51912e-07 3.98797e-06)
(1.8539e-06 -8.53607e-07 3.96288e-06)
(1.8564e-06 -8.5532e-07 3.93764e-06)
(1.85895e-06 -8.5705e-07 3.91232e-06)
(1.86155e-06 -8.58798e-07 3.88688e-06)
(1.86419e-06 -8.60563e-07 3.86136e-06)
(1.86688e-06 -8.62343e-07 3.83576e-06)
(1.8696e-06 -8.64139e-07 3.8101e-06)
(1.87237e-06 -8.65948e-07 3.7844e-06)
(1.87518e-06 -8.67772e-07 3.7607e-06)
(1.87803e-06 -8.69609e-07 3.73766e-06)
(1.88091e-06 -8.71459e-07 3.71482e-06)
(1.88383e-06 -8.73319e-07 3.69166e-06)
(1.88679e-06 -8.75193e-07 3.66914e-06)
(1.88978e-06 -8.77072e-07 3.64613e-06)
(2.16541e-06 -1.00656e-06 7.61388e-07)
(2.14543e-06 -9.95676e-07 9.64094e-07)
(2.12635e-06 -9.85287e-07 1.15269e-06)
(2.10812e-06 -9.75436e-07 1.32109e-06)
(2.09071e-06 -9.66068e-07 1.48236e-06)
(2.07408e-06 -9.57175e-07 1.63619e-06)
(2.05819e-06 -9.48727e-07 1.78351e-06)
(2.04302e-06 -9.40708e-07 1.92418e-06)
(2.02853e-06 -9.33096e-07 2.05876e-06)
(2.0147e-06 -9.25875e-07 2.18736e-06)
(2.00149e-06 -9.19026e-07 2.31031e-06)
(1.98888e-06 -9.12533e-07 2.42797e-06)
(1.97685e-06 -9.0638e-07 2.54043e-06)
(1.96537e-06 -9.00553e-07 2.64801e-06)
(1.95442e-06 -8.95037e-07 2.75098e-06)
(1.94398e-06 -8.8982e-07 2.84949e-06)
(1.93403e-06 -8.84888e-07 2.94376e-06)
(1.92455e-06 -8.80229e-07 3.03397e-06)
(1.91552e-06 -8.75832e-07 3.12024e-06)
(1.90692e-06 -8.71687e-07 3.20283e-06)
(1.89874e-06 -8.67782e-07 3.2818e-06)
(1.89095e-06 -8.64108e-07 3.35737e-06)
(1.88356e-06 -8.60656e-07 3.42964e-06)
(1.87653e-06 -8.57416e-07 3.49987e-06)
(1.86986e-06 -8.5438e-07 3.57891e-06)
(1.86354e-06 -8.51539e-07 3.6537e-06)
(1.85755e-06 -8.48887e-07 3.72289e-06)
(1.85187e-06 -8.46415e-07 3.79112e-06)
(1.84651e-06 -8.44117e-07 3.85832e-06)
(1.84144e-06 -8.41986e-07 3.92285e-06)
(1.83665e-06 -8.40014e-07 3.98486e-06)
(1.83215e-06 -8.38197e-07 4.04444e-06)
(1.82791e-06 -8.36528e-07 4.10167e-06)
(1.82392e-06 -8.35002e-07 4.15665e-06)
(1.82019e-06 -8.33612e-07 4.20944e-06)
(1.81669e-06 -8.32355e-07 4.26012e-06)
(1.81343e-06 -8.31224e-07 4.30907e-06)
(1.81039e-06 -8.30216e-07 4.35986e-06)
(1.80757e-06 -8.29326e-07 4.408e-06)
(1.80495e-06 -8.28548e-07 4.4536e-06)
(1.80254e-06 -8.2788e-07 4.4905e-06)
(1.80032e-06 -8.27317e-07 4.48262e-06)
(1.79829e-06 -8.26855e-07 4.47331e-06)
(1.79645e-06 -8.26491e-07 4.46269e-06)
(1.79478e-06 -8.26221e-07 4.45075e-06)
(1.79329e-06 -8.26041e-07 4.43759e-06)
(1.79195e-06 -8.25948e-07 4.42324e-06)
(1.79078e-06 -8.2594e-07 4.40775e-06)
(1.78977e-06 -8.26013e-07 4.39118e-06)
(1.7889e-06 -8.26164e-07 4.37353e-06)
(1.78819e-06 -8.2639e-07 4.35766e-06)
(1.78761e-06 -8.26689e-07 4.3424e-06)
(1.78717e-06 -8.27059e-07 4.32665e-06)
(1.78686e-06 -8.27495e-07 4.31043e-06)