/*--------------------------------*- C++ -*----------------------------------*\
| =========                 |                                                 |
| \\      /  F ield         | foam-extend: Open Source CFD                    |
|  \\    /   O peration     | Version:     4.1                                |
|   \\  /    A nd           | Web:         http://www.foam-extend.org         |
|    \\/     M anipulation  |                                                 |
\*---------------------------------------------------------------------------*/
FoamFile
{
    version     2.0;
    format      ascii;
    class       volScalarField;
    location    "4";
    object      epsilonEq;
}
// * * * * * * * * * * * * * * * * * * * * * * * * * * * * * * * * * * * * * //

dimensions      [0 0 0 0 0 0 0];

internalField   nonuniform List<scalar> 
100000
(
1.65014e-05
1.55857e-05
1.24651e-05
1.07109e-05
1.06287e-05
1.03311e-05
1.00484e-05
9.78039e-06
9.52545e-06
9.2826e-06
9.05181e-06
8.83338e-06
8.62789e-06
8.31256e-06
8.03605e-06
7.74238e-06
7.4643e-06
7.19907e-06
6.94628e-06
6.70559e-06
6.4759e-06
6.25734e-06
6.04991e-06
5.72204e-06
5.37969e-06
5.18088e-06
5.01877e-06
4.86845e-06
4.73035e-06
4.60415e-06
4.48842e-06
4.38208e-06
4.28741e-06
4.20305e-06
4.12774e-06
4.0633e-06
4.00881e-06
3.96399e-06
3.90236e-06
3.83894e-06
3.52514e-06
2.84341e-06
2.68126e-06
2.68841e-06
2.69522e-06
2.70172e-06
2.70792e-06
2.71382e-06
2.71942e-06
2.72469e-06
2.72968e-06
2.73433e-06
2.73869e-06
2.7427e-06
2.74646e-06
2.74993e-06
2.75313e-06
2.75608e-06
2.75873e-06
2.76115e-06
2.7633e-06
2.76524e-06
2.76696e-06
2.76851e-06
2.76984e-06
2.77098e-06
2.77191e-06
2.77265e-06
2.77322e-06
2.77357e-06
2.77382e-06
2.77392e-06
2.77391e-06
2.77383e-06
2.77359e-06
2.77326e-06
2.77279e-06
2.7722e-06
2.77157e-06
2.77089e-06
2.77018e-06
2.7695e-06
2.76883e-06
2.76816e-06
2.76751e-06
2.80916e-06
2.92639e-06
3.06709e-06
3.30015e-06
3.63671e-06
3.90613e-06
4.11036e-06
4.32894e-06
4.44e-06
4.31282e-06
4.10762e-06
3.82616e-06
3.61777e-06
3.47529e-06
3.40617e-06
3.26816e-05
3.14902e-05
2.18082e-05
1.45565e-05
1.12574e-05
9.73817e-06
9.91854e-06
9.53023e-06
9.12378e-06
8.73819e-06
8.37557e-06
8.03534e-06
7.47932e-06
6.93007e-06
6.75411e-06
6.68051e-06
6.50221e-06
6.29043e-06
6.09494e-06
5.91591e-06
5.75417e-06
5.60508e-06
5.47052e-06
5.35304e-06
5.22389e-06
5.0963e-06
4.97476e-06
4.86031e-06
4.752e-06
4.64967e-06
4.55239e-06
4.45869e-06
4.37792e-06
4.28198e-06
4.20039e-06
4.12331e-06
4.05018e-06
3.98023e-06
3.91361e-06
3.85039e-06
3.47665e-06
2.82094e-06
2.69035e-06
2.69743e-06
2.70417e-06
2.7106e-06
2.71673e-06
2.72255e-06
2.72803e-06
2.73318e-06
2.73809e-06
2.74264e-06
2.74688e-06
2.7508e-06
2.75447e-06
2.75786e-06
2.76095e-06
2.7638e-06
2.76636e-06
2.76865e-06
2.77068e-06
2.77253e-06
2.77419e-06
2.77565e-06
2.7769e-06
2.77794e-06
2.77878e-06
2.77941e-06
2.77984e-06
2.7801e-06
2.78023e-06
2.78025e-06
2.78018e-06
2.77998e-06
2.77966e-06
2.77921e-06
2.77859e-06
2.77788e-06
2.7771e-06
2.77628e-06
2.77546e-06
2.79476e-06
2.90718e-06
3.04316e-06
3.24873e-06
3.56714e-06
3.851e-06
4.04495e-06
4.2506e-06
4.34579e-06
4.35335e-06
4.31223e-06
4.16148e-06
3.87303e-06
3.58872e-06
3.42527e-06
3.33964e-06
3.32804e-06
3.31493e-06
3.30194e-06
3.66186e-05
4.21096e-05
3.68897e-05
3.10994e-05
2.46398e-05
1.7196e-05
1.22398e-05
8.45817e-06
7.86536e-06
7.63137e-06
7.34276e-06
7.08415e-06
6.85363e-06
6.63639e-06
6.43324e-06
6.35184e-06
6.38269e-06
6.31176e-06
6.13206e-06
5.95986e-06
5.79859e-06
5.64408e-06
5.49516e-06
5.35538e-06
5.22309e-06
5.09684e-06
4.97582e-06
4.8621e-06
4.75481e-06
4.65324e-06
4.55678e-06
4.46516e-06
4.37557e-06
4.28923e-06
4.20847e-06
4.13148e-06
4.05885e-06
3.98994e-06
3.92414e-06
3.86155e-06
3.43897e-06
2.80506e-06
2.69901e-06
2.70598e-06
2.71263e-06
2.71897e-06
2.72502e-06
2.73071e-06
2.73611e-06
2.7412e-06
2.74601e-06
2.75043e-06
2.75456e-06
2.75839e-06
2.76194e-06
2.76523e-06
2.76822e-06
2.77096e-06
2.7734e-06
2.77559e-06
2.77753e-06
2.77928e-06
2.78084e-06
2.78219e-06
2.78334e-06
2.78428e-06
2.78501e-06
2.78553e-06
2.78584e-06
2.78599e-06
2.78602e-06
2.78592e-06
2.78573e-06
2.78541e-06
2.78494e-06
2.78433e-06
2.78358e-06
2.78274e-06
2.88425e-06
3.01625e-06
3.19063e-06
3.49036e-06
3.80158e-06
3.99152e-06
4.1922e-06
4.31221e-06
4.31286e-06
4.31361e-06
4.3143e-06
4.21611e-06
4.01883e-06
3.7311e-06
3.49484e-06
3.34627e-06
3.32983e-06
3.32083e-06
3.30916e-06
3.29303e-06
3.27735e-06
3.26858e-06
3.75905e-05
4.50864e-05
4.3466e-05
4.13107e-05
4.03034e-05
3.55934e-05
3.12506e-05
2.58287e-05
1.95464e-05
1.43674e-05
1.05974e-05
7.99175e-06
6.8413e-06
6.62536e-06
6.42239e-06
6.23044e-06
6.09934e-06
6.12869e-06
6.11963e-06
5.95106e-06
5.79082e-06
5.63905e-06
5.49153e-06
5.35175e-06
5.21989e-06
5.09557e-06
4.97629e-06
4.86352e-06
4.75702e-06
4.65606e-06
4.55993e-06
4.46844e-06
4.38094e-06
4.2964e-06
4.21608e-06
4.13972e-06
4.06728e-06
3.99875e-06
3.93361e-06
3.87168e-06
3.41051e-06
2.79455e-06
2.70724e-06
2.71409e-06
2.72063e-06
2.72685e-06
2.73279e-06
2.73839e-06
2.74373e-06
2.74872e-06
2.7534e-06
2.75771e-06
2.76172e-06
2.76545e-06
2.76889e-06
2.77207e-06
2.77496e-06
2.77757e-06
2.7799e-06
2.78198e-06
2.78383e-06
2.78545e-06
2.7869e-06
2.78814e-06
2.78918e-06
2.79003e-06
2.79062e-06
2.79103e-06
2.79123e-06
2.79126e-06
2.79118e-06
2.79094e-06
2.79061e-06
2.79014e-06
2.85501e-06
2.98323e-06
3.13354e-06
3.4086e-06
3.74143e-06
3.94056e-06
4.13945e-06
4.30344e-06
4.30141e-06
4.2992e-06
4.29701e-06
4.29469e-06
4.29178e-06
4.14885e-06
3.90979e-06
3.63406e-06
3.44213e-06
3.2186e-06
3.01563e-06
2.85971e-06
2.75814e-06
2.71677e-06
2.73707e-06
2.81762e-06
2.95136e-06
3.38574e-06
3.7727e-05
4.50254e-05
4.49894e-05
4.45091e-05
4.36667e-05
4.24767e-05
4.09684e-05
3.98796e-05
3.71826e-05
3.28606e-05
2.8566e-05
2.50115e-05
2.01006e-05
1.5602e-05
1.27312e-05
1.01895e-05
7.47748e-06
5.8862e-06
5.85673e-06
5.90779e-06
5.7812e-06
5.63061e-06
5.48597e-06
5.34812e-06
5.21669e-06
5.09299e-06
4.97493e-06
4.86323e-06
4.75769e-06
4.65755e-06
4.56233e-06
4.4716e-06
4.38525e-06
4.30214e-06
4.22251e-06
4.1466e-06
4.07468e-06
4.007e-06
3.94275e-06
3.88165e-06
3.39124e-06
2.78829e-06
2.71498e-06
2.72173e-06
2.72818e-06
2.73428e-06
2.74012e-06
2.74563e-06
2.75085e-06
2.75572e-06
2.76025e-06
2.76447e-06
2.76611e-06
2.76366e-06
2.76129e-06
2.75897e-06
2.75664e-06
2.75431e-06
2.75202e-06
2.74973e-06
2.74747e-06
2.7452e-06
2.74298e-06
2.74079e-06
2.73857e-06
2.73635e-06
2.73405e-06
2.73175e-06
2.68053e-06
2.64053e-06
2.64963e-06
2.65814e-06
2.66928e-06
2.75806e-06
2.9455e-06
3.04923e-06
3.07555e-06
3.1048e-06
3.23055e-06
3.40153e-06
3.60688e-06
3.84074e-06
4.09814e-06
4.374e-06
4.68551e-06
5.16209e-06
5.57688e-06
6.02598e-06
6.52769e-06
5.61649e-06
4.66474e-06
3.78843e-06
3.28962e-06
3.04378e-06
2.83442e-06
2.66495e-06
2.54474e-06
2.47196e-06
2.45319e-06
4.02975e-06
3.84778e-05
4.50176e-05
4.46791e-05
4.41609e-05
4.41319e-05
4.4111e-05
4.4072e-05
4.31005e-05
4.2156e-05
4.11643e-05
4.00871e-05
3.92426e-05
3.8527e-05
3.46463e-05
3.10341e-05
2.80884e-05
2.65539e-05
2.24087e-05
1.84302e-05
1.6579e-05
1.48667e-05
1.31867e-05
9.83281e-06
7.02154e-06
5.29934e-06
5.30616e-06
6.72884e-06
6.36038e-06
6.00728e-06
5.70151e-06
5.43791e-06
5.21131e-06
5.02432e-06
4.87804e-06
4.75462e-06
4.65166e-06
4.5681e-06
4.50289e-06
4.45562e-06
4.42549e-06
4.02886e-06
3.45273e-06
3.47307e-06
3.56173e-06
3.66481e-06
3.78196e-06
3.91313e-06
4.05795e-06
4.21602e-06
4.38718e-06
4.57053e-06
4.7654e-06
4.97052e-06
5.18703e-06
5.41456e-06
5.65153e-06
5.89717e-06
6.15112e-06
6.41244e-06
6.68076e-06
6.95509e-06
7.23508e-06
7.52037e-06
7.80998e-06
7.64792e-06
6.61924e-06
5.61629e-06
4.6322e-06
3.74668e-06
3.01953e-06
2.59002e-06
2.71424e-06
3.2595e-06
4.08075e-06
4.88638e-06
5.64229e-06
6.15289e-06
6.52055e-06
6.89218e-06
7.26102e-06
7.63002e-06
8.00255e-06
8.33575e-06
8.69011e-06
9.03049e-06
9.37463e-06
9.72132e-06
1.02597e-05
1.10047e-05
1.20914e-05
1.25802e-05
1.31643e-05
1.38715e-05
1.47144e-05
1.55553e-05
1.63652e-05
1.71595e-05
1.79631e-05
1.87285e-05
2.04386e-05
3.90362e-05
4.44678e-05
4.42121e-05
4.38166e-05
4.38162e-05
4.383e-05
4.38305e-05
4.38186e-05
4.38013e-05
4.37789e-05
4.34686e-05
4.27072e-05
4.19945e-05
4.13235e-05
4.06627e-05
3.99308e-05
4.01494e-05
4.20351e-05
3.86232e-05
3.57292e-05
3.33326e-05
3.17788e-05
3.05059e-05
2.85725e-05
2.60998e-05
2.38381e-05
2.06321e-05
1.78282e-05
1.59094e-05
1.41285e-05
1.24699e-05
1.0935e-05
9.531e-06
8.24903e-06
7.08881e-06
6.07302e-06
5.21112e-06
4.45063e-06
4.02358e-06
3.93169e-06
3.41678e-06
2.63547e-06
2.60322e-06
2.74607e-06
2.98963e-06
3.33173e-06
3.76343e-06
4.27294e-06
4.84798e-06
5.4803e-06
6.03756e-06
6.56314e-06
7.10856e-06
7.67676e-06
8.25449e-06
8.84045e-06
9.43268e-06
1.0031e-05
1.06338e-05
1.12876e-05
1.20086e-05
1.27345e-05
1.34641e-05
1.41885e-05
1.50538e-05
1.59911e-05
1.67258e-05
1.74663e-05
1.84816e-05
1.96223e-05
2.07506e-05
2.1596e-05
2.24429e-05
2.32905e-05
2.4138e-05
2.4922e-05
2.56861e-05
2.65065e-05
2.73489e-05
2.68693e-05
2.89546e-05
2.96311e-05
3.0307e-05
3.09844e-05
3.03983e-05
3.23412e-05
3.34304e-05
3.42967e-05
3.51257e-05
3.45151e-05
3.3755e-05
3.30155e-05
3.25869e-05
3.24487e-05
3.23084e-05
3.20842e-05
3.1872e-05
3.16604e-05
3.14677e-05
3.13978e-05
3.88141e-05
4.39116e-05
4.37422e-05
4.34712e-05
4.35073e-05
4.35461e-05
4.3582e-05
4.3599e-05
4.36125e-05
4.36096e-05
4.36072e-05
4.35894e-05
4.35582e-05
4.35257e-05
4.34817e-05
4.33512e-05
4.2803e-05
4.22823e-05
4.17893e-05
4.13225e-05
4.08773e-05
4.04739e-05
4.21139e-05
4.38455e-05
4.54269e-05
4.66077e-05
4.69736e-05
4.42372e-05
4.16296e-05
3.91932e-05
3.69342e-05
3.4841e-05
3.29172e-05
3.11664e-05
2.9554e-05
2.80758e-05
2.67679e-05
2.55656e-05
2.44139e-05
2.32895e-05
2.31795e-05
2.40284e-05
2.45461e-05
2.51056e-05
2.57053e-05
2.63413e-05
2.70109e-05
2.77119e-05
2.84408e-05
2.91863e-05
2.99499e-05
3.07448e-05
3.15641e-05
3.2403e-05
3.32588e-05
3.41308e-05
3.50162e-05
3.59149e-05
3.68289e-05
3.77585e-05
3.84964e-05
3.90802e-05
3.9679e-05
4.02909e-05
4.04334e-05
3.96534e-05
3.88773e-05
3.81377e-05
3.74279e-05
3.66724e-05
3.59093e-05
3.51506e-05
3.43964e-05
3.36471e-05
3.29023e-05
3.21628e-05
3.17269e-05
3.14595e-05
3.1114e-05
3.07057e-05
3.02925e-05
2.98916e-05
2.9548e-05
2.91845e-05
2.88322e-05
2.84887e-05
2.8143e-05
2.78013e-05
2.74658e-05
2.71022e-05
2.67454e-05
2.64235e-05
2.61085e-05
2.57987e-05
2.55566e-05
2.53136e-05
2.50267e-05
2.47415e-05
2.44756e-05
2.38909e-05
3.85944e-05
4.33582e-05
4.32745e-05
4.31216e-05
4.31995e-05
4.32619e-05
4.33325e-05
4.33762e-05
4.3416e-05
4.344e-05
4.3455e-05
4.346e-05
4.34492e-05
4.34272e-05
4.34001e-05
4.33627e-05
4.33118e-05
4.32491e-05
4.31775e-05
4.30988e-05
4.30099e-05
4.29143e-05
4.28105e-05
4.27635e-05
4.34169e-05
4.3954e-05
4.4184e-05
4.43125e-05
4.39684e-05
4.36435e-05
4.33364e-05
4.30454e-05
4.27685e-05
4.25055e-05
4.22556e-05
4.20194e-05
4.18107e-05
4.18153e-05
4.17845e-05
4.14859e-05
4.23728e-05
4.17579e-05
4.11139e-05
4.04593e-05
3.97928e-05
3.91176e-05
3.84336e-05
3.7742e-05
3.70445e-05
3.63402e-05
3.57668e-05
3.52639e-05
3.4776e-05
3.43032e-05
3.38444e-05
3.33992e-05
3.29683e-05
3.25488e-05
3.21418e-05
3.16792e-05
3.115e-05
3.0648e-05
3.01669e-05
2.96946e-05
2.92308e-05
2.87753e-05
2.83304e-05
2.79392e-05
2.75104e-05
2.70864e-05
2.66697e-05
2.62602e-05
2.58576e-05
2.54617e-05
2.50725e-05
2.46897e-05
2.42225e-05
2.36945e-05
2.31656e-05
2.26553e-05
2.22321e-05
2.18959e-05
2.15657e-05
2.12396e-05
2.0918e-05
2.06049e-05
2.0296e-05
1.99906e-05
1.96905e-05
1.93953e-05
1.93091e-05
1.92337e-05
1.91592e-05
1.90855e-05
1.90103e-05
1.90191e-05
1.89734e-05
1.89033e-05
1.8833e-05
1.87567e-05
3.83767e-05
4.28093e-05
4.28115e-05
4.27737e-05
4.28942e-05
4.29838e-05
4.30813e-05
4.31553e-05
4.32177e-05
4.32655e-05
4.32995e-05
4.33262e-05
4.33335e-05
4.33304e-05
4.33121e-05
4.32894e-05
4.32534e-05
4.32032e-05
4.31426e-05
4.30742e-05
4.29948e-05
4.2908e-05
4.28128e-05
4.27093e-05
4.20378e-05
4.11215e-05
4.09608e-05
4.09205e-05
4.0851e-05
4.06603e-05
3.99554e-05
3.91208e-05
3.83013e-05
3.7497e-05
3.6707e-05
3.59342e-05
3.51755e-05
3.44345e-05
3.37226e-05
3.28849e-05
3.34245e-05
3.2757e-05
3.21057e-05
3.14681e-05
3.08426e-05
3.02295e-05
2.96288e-05
2.90391e-05
2.84617e-05
2.7895e-05
2.73395e-05
2.67953e-05
2.62614e-05
2.57376e-05
2.52254e-05
2.47204e-05
2.42305e-05
2.375e-05
2.32744e-05
2.28103e-05
2.25506e-05
2.24563e-05
2.2362e-05
2.22681e-05
2.21743e-05
2.20809e-05
2.20071e-05
2.19481e-05
2.18566e-05
2.17646e-05
2.16729e-05
2.15815e-05
2.14905e-05
2.13999e-05
2.12171e-05
2.09652e-05
2.07075e-05
2.04665e-05
2.03178e-05
2.0233e-05
2.01488e-05
2.00656e-05
1.99831e-05
1.99012e-05
1.982e-05
1.92674e-05
1.86507e-05
1.8042e-05
1.74412e-05
1.68483e-05
1.62634e-05
1.56868e-05
1.51189e-05
1.45592e-05
1.40097e-05
1.34809e-05
1.30222e-05
1.24853e-05
1.19756e-05
1.20725e-05
3.81577e-05
4.22676e-05
4.23546e-05
4.24279e-05
4.25837e-05
4.27091e-05
4.28306e-05
4.2933e-05
4.3021e-05
4.30889e-05
4.31443e-05
4.31845e-05
4.22578e-05
4.12936e-05
4.03419e-05
3.94119e-05
3.84989e-05
3.75993e-05
3.67137e-05
3.58448e-05
3.49905e-05
3.41526e-05
3.33302e-05
3.26502e-05
3.17987e-05
3.09863e-05
3.02103e-05
2.95035e-05
2.93515e-05
2.93186e-05
2.93129e-05
2.91536e-05
2.88223e-05
2.8047e-05
2.72855e-05
2.65415e-05
2.5812e-05
2.51008e-05
2.43896e-05
2.40234e-05
2.4416e-05
2.43329e-05
2.42479e-05
2.41615e-05
2.40743e-05
2.39854e-05
2.38963e-05
2.38057e-05
2.37145e-05
2.36229e-05
2.353e-05
2.31281e-05
2.24661e-05
2.18045e-05
2.11444e-05
2.04862e-05
1.94903e-05
1.91765e-05
1.85273e-05
1.78817e-05
1.72406e-05
1.66042e-05
1.59727e-05
1.53466e-05
1.47264e-05
1.41153e-05
1.35507e-05
1.2967e-05
1.23761e-05
1.17932e-05
1.12185e-05
1.06525e-05
9.98747e-06
9.22209e-06
8.45033e-06
7.72878e-06
7.13202e-06
6.60601e-06
6.10177e-06
5.6228e-06
5.17376e-06
4.76076e-06
4.39141e-06
4.07486e-06
3.42174e-06
2.85771e-06
2.681e-06
2.64694e-06
2.7226e-06
2.89567e-06
3.14674e-06
3.45577e-06
3.80574e-06
4.18396e-06
4.58026e-06
4.99097e-06
5.32199e-06
5.65991e-06
6.07065e-06
6.85797e-06
3.03118e-05
3.62831e-05
3.66912e-05
3.68981e-05
3.611e-05
3.52456e-05
3.43483e-05
3.34048e-05
3.2424e-05
3.14047e-05
3.0357e-05
2.96273e-05
2.89136e-05
2.78061e-05
2.66554e-05
2.54944e-05
2.43275e-05
2.31519e-05
2.1969e-05
2.07835e-05
1.95965e-05
1.84128e-05
1.72364e-05
1.60336e-05
1.52827e-05
1.47061e-05
1.41191e-05
1.35241e-05
1.29228e-05
1.23172e-05
1.21185e-05
1.20883e-05
1.22922e-05
1.23953e-05
1.2194e-05
1.18656e-05
1.13316e-05
1.07935e-05
9.82251e-06
9.422e-06
8.72736e-06
8.21604e-06
7.70411e-06
7.19343e-06
6.68649e-06
6.18621e-06
5.69608e-06
5.22059e-06
4.76554e-06
4.33801e-06
3.8438e-06
3.35587e-06
3.01233e-06
2.76529e-06
2.62425e-06
2.60676e-06
2.71426e-06
2.93323e-06
3.23747e-06
3.60611e-06
4.01862e-06
4.46282e-06
4.92833e-06
5.40856e-06
5.89862e-06
6.3989e-06
6.87403e-06
7.37872e-06
7.88064e-06
8.38204e-06
8.9751e-06
9.65825e-06
1.0334e-05
1.10176e-05
1.16093e-05
1.21402e-05
1.26664e-05
1.31877e-05
1.3704e-05
1.42152e-05
1.4721e-05
1.52213e-05
1.5716e-05
1.62049e-05
1.66883e-05
1.66919e-05
1.66235e-05
1.65554e-05
1.64877e-05
1.64203e-05
1.63531e-05
1.62862e-05
1.62195e-05
1.61531e-05
1.60869e-05
1.60211e-05
1.59534e-05
1.57878e-05
1.56717e-05
1.55924e-05
8.6016e-06
1.63858e-05
1.58841e-05
1.64196e-05
1.66898e-05
1.61351e-05
1.56577e-05
1.52714e-05
1.49763e-05
1.47838e-05
1.46998e-05
1.47263e-05
1.43834e-05
1.40626e-05
1.37829e-05
1.35436e-05
1.33486e-05
1.31918e-05
1.30774e-05
1.30039e-05
1.29713e-05
1.29792e-05
1.3273e-05
1.37805e-05
1.39399e-05
1.40748e-05
1.42455e-05
1.44506e-05
1.46891e-05
1.49591e-05
1.5258e-05
1.55828e-05
1.582e-05
1.56773e-05
1.56303e-05
1.57294e-05
1.57862e-05
1.57527e-05
1.51779e-05
1.35514e-05
1.38141e-05
1.42556e-05
1.47038e-05
1.51581e-05
1.56179e-05
1.60819e-05
1.65498e-05
1.70207e-05
1.74937e-05
1.79688e-05
1.84446e-05
1.86134e-05
1.85228e-05
1.84334e-05
1.83444e-05
1.82564e-05
1.81694e-05
1.80825e-05
1.79974e-05
1.79129e-05
1.78292e-05
1.77465e-05
1.76648e-05
1.7584e-05
1.75041e-05
1.74188e-05
1.73201e-05
1.72439e-05
1.72331e-05
1.73623e-05
1.74846e-05
1.76091e-05
1.7619e-05
1.7542e-05
1.74657e-05
1.73902e-05
1.73154e-05
1.72413e-05
1.7168e-05
1.70953e-05
1.70233e-05
1.69518e-05
1.68809e-05
1.68105e-05
1.67407e-05
1.66713e-05
1.66023e-05
1.65338e-05
1.64657e-05
1.63979e-05
1.63305e-05
1.62634e-05
1.61966e-05
1.61302e-05
1.60641e-05
1.59985e-05
1.59332e-05
1.58406e-05
1.56697e-05
1.5573e-05
2.353e-05
2.90569e-05
3.0325e-05
3.08817e-05
3.05641e-05
3.0258e-05
2.99664e-05
2.96833e-05
2.94107e-05
2.91484e-05
2.88936e-05
2.86483e-05
2.84093e-05
2.81777e-05
2.79522e-05
2.77325e-05
2.75198e-05
2.73114e-05
2.71078e-05
2.69071e-05
2.67107e-05
2.6595e-05
2.68239e-05
2.67754e-05
2.65744e-05
2.63775e-05
2.61843e-05
2.59952e-05
2.581e-05
2.5629e-05
2.54514e-05
2.52776e-05
2.51062e-05
2.49391e-05
2.47727e-05
2.44849e-05
2.39767e-05
2.35027e-05
2.18167e-05
1.9967e-05
1.97525e-05
1.95907e-05
1.94623e-05
1.93644e-05
1.9267e-05
1.91706e-05
1.90749e-05
1.89799e-05
1.88861e-05
1.87925e-05
1.87001e-05
1.86087e-05
1.85176e-05
1.84278e-05
1.83388e-05
1.82504e-05
1.8163e-05
1.80766e-05
1.79909e-05
1.79061e-05
1.78225e-05
1.77397e-05
1.76578e-05
1.75769e-05
1.74971e-05
1.73977e-05
1.7336e-05
1.74716e-05
1.75987e-05
1.7727e-05
1.77589e-05
1.76798e-05
1.76016e-05
1.75242e-05
1.74475e-05
1.73716e-05
1.72964e-05
1.72219e-05
1.71482e-05
1.70751e-05
1.70026e-05
1.69307e-05
1.68594e-05
1.67886e-05
1.67184e-05
1.66486e-05
1.65793e-05
1.65105e-05
1.64421e-05
1.63741e-05
1.63066e-05
1.62394e-05
1.61725e-05
1.61061e-05
1.60402e-05
1.59748e-05
1.59097e-05
1.58455e-05
1.57209e-05
1.55577e-05
2.66709e-05
3.15055e-05
3.14244e-05
3.107e-05
3.07399e-05
3.04188e-05
3.01156e-05
2.98197e-05
2.95377e-05
2.92632e-05
2.89998e-05
2.87456e-05
2.84976e-05
2.82581e-05
2.80251e-05
2.77979e-05
2.75774e-05
2.73616e-05
2.71517e-05
2.69462e-05
2.67568e-05
2.69223e-05
2.70073e-05
2.67967e-05
2.6591e-05
2.63898e-05
2.61927e-05
2.6e-05
2.58111e-05
2.56266e-05
2.54451e-05
2.52686e-05
2.50937e-05
2.49243e-05
2.47554e-05
2.45916e-05
2.44294e-05
2.40524e-05
2.11446e-05
2.01426e-05
1.99766e-05
1.98152e-05
1.96576e-05
1.95019e-05
1.93475e-05
1.91963e-05
1.90682e-05
1.89726e-05
1.88783e-05
1.87849e-05
1.86918e-05
1.86001e-05
1.85091e-05
1.84186e-05
1.83294e-05
1.82411e-05
1.81534e-05
1.80668e-05
1.79812e-05
1.78962e-05
1.78123e-05
1.77294e-05
1.76473e-05
1.75662e-05
1.74868e-05
1.75671e-05
1.77006e-05
1.78331e-05
1.79002e-05
1.78192e-05
1.7739e-05
1.76597e-05
1.75812e-05
1.75034e-05
1.74264e-05
1.73501e-05
1.72745e-05
1.71997e-05
1.71256e-05
1.70521e-05
1.69793e-05
1.6907e-05
1.67298e-05
1.65203e-05
1.63128e-05
1.61072e-05
1.59037e-05
1.57021e-05
1.55024e-05
1.53047e-05
1.51089e-05
1.49151e-05
1.47232e-05
1.45334e-05
1.43456e-05
1.41597e-05
1.39762e-05
1.37938e-05
1.36136e-05
1.32879e-05
2.94392e-05
3.18098e-05
3.16254e-05
3.12538e-05
3.09107e-05
3.05766e-05
3.02596e-05
2.99533e-05
2.96598e-05
2.93753e-05
2.91015e-05
2.88389e-05
2.85831e-05
2.83361e-05
2.80942e-05
2.78596e-05
2.76323e-05
2.74102e-05
2.71941e-05
2.69831e-05
2.7016e-05
2.72197e-05
2.70287e-05
2.68124e-05
2.66017e-05
2.63962e-05
2.61952e-05
2.59988e-05
2.58062e-05
2.56191e-05
2.54342e-05
2.52548e-05
2.50767e-05
2.49042e-05
2.47336e-05
2.45666e-05
2.44034e-05
2.24768e-05
2.033e-05
2.02135e-05
2.01112e-05
2.00098e-05
1.98781e-05
1.972e-05
1.9565e-05
1.9413e-05
1.92652e-05
1.91193e-05
1.89746e-05
1.88332e-05
1.86941e-05
1.85879e-05
1.84968e-05
1.84064e-05
1.83167e-05
1.82281e-05
1.81405e-05
1.80536e-05
1.79677e-05
1.78828e-05
1.77987e-05
1.77156e-05
1.76335e-05
1.766e-05
1.77127e-05
1.77008e-05
1.76775e-05
1.74464e-05
1.72176e-05
1.6991e-05
1.67666e-05
1.65442e-05
1.63241e-05
1.6106e-05
1.589e-05
1.56761e-05
1.54642e-05
1.52545e-05
1.50468e-05
1.4841e-05
1.46373e-05
1.44418e-05
1.42538e-05
1.40602e-05
1.38655e-05
1.36727e-05
1.34818e-05
1.32929e-05
1.34741e-05
1.38323e-05
1.43546e-05
1.49962e-05
1.56363e-05
1.62746e-05
1.69105e-05
1.75459e-05
1.8175e-05
1.88087e-05
1.88202e-05
1.8748e-05
4.56755e-05
4.40122e-05
4.05402e-05
3.69738e-05
3.41969e-05
3.16463e-05
3.03997e-05
3.00815e-05
2.97767e-05
2.94838e-05
2.91994e-05
2.89276e-05
2.8662e-05
2.84072e-05
2.81592e-05
2.79184e-05
2.76839e-05
2.74545e-05
2.72316e-05
2.71022e-05
2.73483e-05
2.72711e-05
2.70446e-05
2.6824e-05
2.66091e-05
2.63995e-05
2.61944e-05
2.59947e-05
2.57987e-05
2.56085e-05
2.54203e-05
2.52372e-05
2.50569e-05
2.48805e-05
2.47083e-05
2.45377e-05
2.39164e-05
2.07679e-05
2.03071e-05
2.02039e-05
2.01009e-05
1.99029e-05
1.96966e-05
1.94893e-05
1.92826e-05
1.90756e-05
1.88484e-05
1.85919e-05
1.83375e-05
1.80851e-05
1.7836e-05
1.7589e-05
1.73434e-05
1.71004e-05
1.68595e-05
1.66209e-05
1.6394e-05
1.6188e-05
1.59833e-05
1.57802e-05
1.55788e-05
1.54096e-05
1.5393e-05
1.53741e-05
1.53534e-05
1.51832e-05
1.4997e-05
1.4786e-05
1.45712e-05
1.43585e-05
1.41479e-05
1.39395e-05
1.40133e-05
1.43281e-05
1.4646e-05
1.49667e-05
1.529e-05
1.58575e-05
1.64745e-05
1.70927e-05
1.77117e-05
1.83312e-05
1.90563e-05
1.98142e-05
2.05705e-05
2.08577e-05
2.09011e-05
2.09243e-05
2.09644e-05
2.10137e-05
2.09731e-05
2.08999e-05
2.08175e-05
2.07373e-05
2.06593e-05
2.04181e-05
2.01149e-05
1.9772e-05
1.95849e-05
1.93096e-05
5.40651e-05
5.39943e-05
5.02429e-05
4.69457e-05
4.37732e-05
4.10677e-05
3.89475e-05
3.6648e-05
3.4617e-05
3.29191e-05
3.13349e-05
2.98614e-05
2.84879e-05
2.72202e-05
2.69568e-05
2.66943e-05
2.64334e-05
2.61739e-05
2.59289e-05
2.60659e-05
2.61128e-05
2.58307e-05
2.5551e-05
2.52731e-05
2.49973e-05
2.47236e-05
2.44513e-05
2.41818e-05
2.3913e-05
2.36471e-05
2.33817e-05
2.31177e-05
2.28564e-05
2.2595e-05
2.23371e-05
2.20388e-05
1.95731e-05
1.76869e-05
1.74932e-05
1.72992e-05
1.70991e-05
1.68993e-05
1.67052e-05
1.65109e-05
1.63165e-05
1.61232e-05
1.59297e-05
1.57365e-05
1.55445e-05
1.53528e-05
1.51618e-05
1.49413e-05
1.47095e-05
1.44799e-05
1.4253e-05
1.417e-05
1.44664e-05
1.4772e-05
1.50864e-05
1.54082e-05
1.58989e-05
1.64401e-05
1.70154e-05
1.77259e-05
1.84098e-05
1.91843e-05
1.99854e-05
2.08003e-05
2.15046e-05
2.22046e-05
2.29079e-05
2.36069e-05
2.36596e-05
2.36672e-05
2.36695e-05
2.36748e-05
2.35813e-05
2.3478e-05
2.33615e-05
2.32436e-05
2.31283e-05
2.30158e-05
2.29059e-05
2.27382e-05
2.23542e-05
2.19949e-05
2.1734e-05
2.15183e-05
2.09336e-05
2.01811e-05
1.92728e-05
1.8607e-05
1.79725e-05
1.73431e-05
1.67385e-05
1.61554e-05
1.55594e-05
1.49345e-05
1.49245e-05
1.49928e-05
3.80578e-05
4.30009e-05
4.5838e-05
4.78395e-05
4.90532e-05
4.99618e-05
4.82692e-05
4.58233e-05
4.36113e-05
4.1452e-05
3.93969e-05
3.74944e-05
3.57335e-05
3.4429e-05
3.32601e-05
3.18417e-05
3.05359e-05
2.93355e-05
2.85461e-05
2.81287e-05
2.73452e-05
2.65869e-05
2.58889e-05
2.52479e-05
2.46613e-05
2.41267e-05
2.364e-05
2.32005e-05
2.28051e-05
2.24517e-05
2.21395e-05
2.18631e-05
2.16254e-05
2.142e-05
2.12483e-05
2.03013e-05
1.72599e-05
1.71774e-05
1.72323e-05
1.7309e-05
1.74078e-05
1.76213e-05
1.7966e-05
1.83892e-05
1.8836e-05
1.93059e-05
1.97983e-05
2.03102e-05
2.0841e-05
2.13901e-05
2.19554e-05
2.25358e-05
2.31313e-05
2.37402e-05
2.43601e-05
2.49968e-05
2.56426e-05
2.58136e-05
2.58796e-05
2.61151e-05
2.63552e-05
2.64474e-05
2.63713e-05
2.63005e-05
2.61992e-05
2.60973e-05
2.59984e-05
2.59173e-05
2.58443e-05
2.57839e-05
2.56426e-05
2.54484e-05
2.47633e-05
2.3848e-05
2.30495e-05
2.22622e-05
2.14822e-05
2.04597e-05
1.93943e-05
1.83775e-05
1.77304e-05
1.70869e-05
1.64522e-05
1.58436e-05
1.52413e-05
1.50685e-05
1.51315e-05
1.52046e-05
1.52834e-05
1.53717e-05
1.55167e-05
1.57038e-05
1.5911e-05
1.61176e-05
1.63229e-05
1.66924e-05
1.71237e-05
1.75544e-05
1.7878e-05
1.81892e-05
2.5649e-05
3.24132e-05
3.45011e-05
3.64265e-05
3.82352e-05
3.95534e-05
4.06453e-05
4.19483e-05
4.26499e-05
4.33163e-05
4.39644e-05
4.44953e-05
4.48175e-05
4.50757e-05
4.42599e-05
4.34875e-05
4.25424e-05
4.14908e-05
4.09189e-05
4.00943e-05
3.91835e-05
3.83619e-05
3.76255e-05
3.69701e-05
3.63908e-05
3.58838e-05
3.54449e-05
3.50701e-05
3.47589e-05
3.45037e-05
3.43071e-05
3.41599e-05
3.40638e-05
3.40137e-05
3.39325e-05
3.18155e-05
3.03439e-05
3.01763e-05
3.00229e-05
2.98814e-05
2.97521e-05
2.96406e-05
2.9505e-05
2.93112e-05
2.91215e-05
2.8938e-05
2.87614e-05
2.85917e-05
2.84277e-05
2.82604e-05
2.80951e-05
2.79348e-05
2.77795e-05
2.76294e-05
2.7484e-05
2.71997e-05
2.65082e-05
2.60083e-05
2.55288e-05
2.48547e-05
2.40103e-05
2.32184e-05
2.23992e-05
2.13408e-05
2.02838e-05
1.92286e-05
1.81757e-05
1.71257e-05
1.63439e-05
1.57162e-05
1.50904e-05
1.4479e-05
1.4528e-05
1.45904e-05
1.46509e-05
1.47212e-05
1.49039e-05
1.51067e-05
1.52961e-05
1.54563e-05
1.56351e-05
1.58217e-05
1.60066e-05
1.62498e-05
1.66729e-05
1.70924e-05
1.74369e-05
1.7731e-05
1.80218e-05
1.83093e-05
1.85936e-05
1.85125e-05
1.84032e-05
1.8294e-05
1.8185e-05
1.80757e-05
1.79673e-05
1.78581e-05
1.77483e-05
1.76286e-05
2.14131e-05
2.76402e-05
2.78795e-05
2.80951e-05
2.83642e-05
2.86213e-05
2.97323e-05
3.08525e-05
3.20165e-05
3.30988e-05
3.39614e-05
3.46671e-05
3.53039e-05
3.59024e-05
3.64127e-05
3.67766e-05
3.70087e-05
3.758e-05
3.79691e-05
3.79509e-05
3.79154e-05
3.78306e-05
3.76996e-05
3.7525e-05
3.73105e-05
3.70564e-05
3.67676e-05
3.64412e-05
3.60858e-05
3.56974e-05
3.52825e-05
3.48405e-05
3.43733e-05
3.38826e-05
3.29898e-05
2.98825e-05
2.93314e-05
2.88544e-05
2.83633e-05
2.78588e-05
2.734e-05
2.67924e-05
2.59939e-05
2.5168e-05
2.43287e-05
2.34752e-05
2.26078e-05
2.17289e-05
2.08395e-05
1.99398e-05
1.90318e-05
1.81167e-05
1.71944e-05
1.62661e-05
1.53333e-05
1.44541e-05
1.38624e-05
1.38782e-05
1.3996e-05
1.39596e-05
1.39156e-05
1.39797e-05
1.40754e-05
1.41714e-05
1.42791e-05
1.43908e-05
1.45028e-05
1.46095e-05
1.47179e-05
1.48309e-05
1.50248e-05
1.52289e-05
1.56718e-05
1.61189e-05
1.64508e-05
1.67758e-05
1.70978e-05
1.74167e-05
1.77324e-05
1.80032e-05
1.79073e-05
1.78111e-05
1.77147e-05
1.7618e-05
1.7521e-05
1.74239e-05
1.73264e-05
1.72279e-05
1.71251e-05
1.70224e-05
1.69197e-05
1.68171e-05
1.67146e-05
1.66121e-05
1.65097e-05
1.6407e-05
1.6305e-05
1.62023e-05
1.60989e-05
1.59777e-05
1.90055e-05
2.57739e-05
2.54613e-05
2.5084e-05
2.47485e-05
2.42941e-05
2.40359e-05
2.39549e-05
2.39122e-05
2.36532e-05
2.3339e-05
2.3061e-05
2.28914e-05
2.27128e-05
2.25213e-05
2.23656e-05
2.279e-05
2.33868e-05
2.35288e-05
2.3588e-05
2.35542e-05
2.34478e-05
2.32871e-05
2.30725e-05
2.28101e-05
2.24976e-05
2.21421e-05
2.17395e-05
2.12969e-05
2.08145e-05
2.02945e-05
1.97397e-05
1.91522e-05
1.85355e-05
1.70433e-05
1.54475e-05
1.51457e-05
1.48664e-05
1.4583e-05
1.42976e-05
1.40088e-05
1.37112e-05
1.34547e-05
1.33277e-05
1.34193e-05
1.35126e-05
1.36072e-05
1.37024e-05
1.3799e-05
1.39057e-05
1.40171e-05
1.41293e-05
1.42427e-05
1.43567e-05
1.46228e-05
1.49596e-05
1.53055e-05
1.54586e-05
1.55968e-05
1.59249e-05
1.6247e-05
1.64646e-05
1.66819e-05
1.68988e-05
1.71153e-05
1.73315e-05
1.75471e-05
1.77622e-05
1.78235e-05
1.77407e-05
1.76587e-05
1.75775e-05
1.74971e-05
1.74176e-05
1.73388e-05
1.72607e-05
1.71834e-05
1.71069e-05
1.70366e-05
1.69676e-05
1.6899e-05
1.6831e-05
1.67636e-05
1.66967e-05
1.66303e-05
1.65646e-05
1.64993e-05
1.64347e-05
1.63706e-05
1.6307e-05
1.62438e-05
1.61812e-05
1.61192e-05
1.60577e-05
1.59968e-05
1.59363e-05
1.58764e-05
1.5817e-05
1.57579e-05
1.56851e-05
1.81846e-05
2.48229e-05
2.41697e-05
2.34708e-05
2.28273e-05
2.22074e-05
2.17608e-05
2.1374e-05
2.10042e-05
2.06464e-05
2.02984e-05
1.99634e-05
1.96336e-05
1.93115e-05
1.91598e-05
1.93803e-05
1.95461e-05
1.92977e-05
1.89987e-05
1.86523e-05
1.8289e-05
1.79353e-05
1.75927e-05
1.72576e-05
1.69349e-05
1.66188e-05
1.63128e-05
1.60138e-05
1.57222e-05
1.55699e-05
1.55282e-05
1.54983e-05
1.54776e-05
1.54699e-05
1.46096e-05
1.4655e-05
1.47012e-05
1.47848e-05
1.48708e-05
1.49583e-05
1.50485e-05
1.51564e-05
1.54004e-05
1.56139e-05
1.58285e-05
1.60312e-05
1.62353e-05
1.64403e-05
1.66462e-05
1.68527e-05
1.70601e-05
1.72677e-05
1.74827e-05
1.79353e-05
1.83866e-05
1.87671e-05
1.88424e-05
1.87492e-05
1.86569e-05
1.85656e-05
1.8475e-05
1.83854e-05
1.82966e-05
1.82086e-05
1.81215e-05
1.80354e-05
1.79501e-05
1.78657e-05
1.72815e-05
1.6693e-05
1.61205e-05
1.55635e-05
1.50217e-05
1.44943e-05
1.39811e-05
1.34814e-05
1.29951e-05
1.25217e-05
1.20608e-05
1.16122e-05
1.11754e-05
1.07503e-05
1.03366e-05
9.9339e-06
9.54203e-06
9.16075e-06
8.78986e-06
8.42996e-06
8.08401e-06
7.74782e-06
7.42121e-06
7.10408e-06
6.7962e-06
6.4975e-06
6.20817e-06
5.927e-06
5.65744e-06
5.39158e-06
5.14302e-06
4.86381e-06
1.82691e-05
2.48516e-05
2.41958e-05
2.34928e-05
2.28463e-05
2.22256e-05
2.16371e-05
2.10734e-05
2.05405e-05
2.00316e-05
1.95441e-05
1.90826e-05
1.87748e-05
1.88204e-05
1.91381e-05
1.93086e-05
1.90952e-05
1.89079e-05
1.87453e-05
1.86057e-05
1.84885e-05
1.83904e-05
1.8314e-05
1.82532e-05
1.82125e-05
1.81877e-05
1.81787e-05
1.81851e-05
1.8277e-05
1.84358e-05
1.85327e-05
1.85892e-05
1.86546e-05
1.87296e-05
1.81067e-05
1.80336e-05
1.81377e-05
1.83161e-05
1.84972e-05
1.86795e-05
1.8863e-05
1.90482e-05
1.92347e-05
1.93568e-05
1.92591e-05
1.88317e-05
1.80176e-05
1.72334e-05
1.64777e-05
1.57493e-05
1.50475e-05
1.43775e-05
1.37553e-05
1.31608e-05
1.24165e-05
1.16214e-05
1.08541e-05
1.01139e-05
9.40024e-06
8.71291e-06
8.05165e-06
7.41628e-06
6.80707e-06
6.22452e-06
5.66975e-06
5.14424e-06
4.65023e-06
4.17206e-06
3.86328e-06
3.51371e-06
3.21294e-06
2.97658e-06
2.81301e-06
2.72766e-06
2.72081e-06
2.78664e-06
2.91459e-06
3.09204e-06
3.30671e-06
3.54807e-06
3.80773e-06
4.07939e-06
4.35829e-06
4.64107e-06
4.92515e-06
5.20866e-06
5.49017e-06
5.76863e-06
6.04322e-06
6.31337e-06
6.57876e-06
6.83911e-06
7.09435e-06
7.34424e-06
7.58864e-06
7.82823e-06
8.06009e-06
8.29219e-06
8.50915e-06
8.79681e-06
1.97876e-05
2.6085e-05
2.55782e-05
2.50418e-05
2.45651e-05
2.41224e-05
2.37205e-05
2.33506e-05
2.30149e-05
2.27115e-05
2.24379e-05
2.23017e-05
2.2559e-05
2.2958e-05
2.3046e-05
2.28697e-05
2.27154e-05
2.25834e-05
2.24723e-05
2.23798e-05
2.23066e-05
2.22484e-05
2.22081e-05
2.21819e-05
2.217e-05
2.21724e-05
2.21866e-05
2.22127e-05
2.22488e-05
2.21543e-05
2.19549e-05
2.17606e-05
2.09385e-05
1.83501e-05
1.51095e-05
1.29831e-05
1.17439e-05
1.06872e-05
9.67935e-06
8.72158e-06
7.81295e-06
6.95453e-06
6.14849e-06
5.3979e-06
4.64197e-06
3.98827e-06
3.52911e-06
3.11785e-06
2.84055e-06
2.7169e-06
2.7444e-06