/*--------------------------------*- C++ -*----------------------------------*\
| =========                 |                                                 |
| \\      /  F ield         | foam-extend: Open Source CFD                    |
|  \\    /   O peration     | Version:     4.1                                |
|   \\  /    A nd           | Web:         http://www.foam-extend.org         |
|    \\/     M anipulation  |                                                 |
\*---------------------------------------------------------------------------*/
FoamFile
{
    version     2.0;
    format      ascii;
    class       volScalarField;
    location    "4";
    object      sigmaHyd;
}
// * * * * * * * * * * * * * * * * * * * * * * * * * * * * * * * * * * * * * //

dimensions      [1 -1 -2 0 0 0 0];

internalField   nonuniform List<scalar> 
100000
(
-188249
-187767
-187860
-187659
-187616
-187496
-187421
-187327
-187247
-187164
-187087
-187010
-186936
-186864
-186795
-186728
-186662
-186598
-186537
-186476
-186418
-186361
-186306
-186252
-186200
-186148
-186099
-186050
-186003
-185953
-185911
-185850
-185811
-185790
-185743
-185701
-185662
-185622
-185584
-185547
-185510
-185475
-185440
-185405
-185372
-185339
-185307
-185275
-185244
-185213
-185183
-185153
-185124
-185096
-185068
-185040
-185013
-184986
-184960
-184934
-184908
-184883
-184858
-184833
-184809
-184785
-184761
-184738
-184715
-184692
-184669
-184647
-184624
-184603
-184581
-184559
-184538
-184517
-184497
-184476
-184455
-184435
-184415
-184394
-184375
-184354
-184334
-184314
-184294
-184275
-184256
-184237
-184219
-184201
-184186
-184168
-184163
-184142
-184173
-184062
-195067
-194419
-194396
-194059
-193896
-193653
-193461
-193252
-193061
-192870
-192687
-192507
-192334
-192164
-192000
-191840
-191684
-191532
-191384
-191240
-191100
-190963
-190830
-190700
-190574
-190450
-190331
-190212
-190106
-189987
-189925
-189759
-189731
-189550
-189509
-189361
-189272
-189168
-189076
-188984
-188895
-188807
-188722
-188638
-188556
-188476
-188397
-188319
-188243
-188169
-188096
-188024
-187953
-187884
-187816
-187749
-187683
-187618
-187555
-187492
-187431
-187370
-187310
-187251
-187193
-187136
-187080
-187025
-186970
-186916
-186863
-186811
-186759
-186708
-186658
-186608
-186560
-186511
-186464
-186416
-186369
-186323
-186278
-186233
-186189
-186144
-186100
-186056
-186013
-185971
-185929
-185888
-185848
-185808
-185772
-185731
-185705
-185658
-185667
-185509
-201882
-201067
-200929
-200456
-200173
-199807
-199499
-199175
-198873
-198573
-198284
-198002
-197728
-197461
-197202
-196949
-196703
-196463
-196230
-196002
-195780
-195563
-195352
-195146
-194945
-194748
-194557
-194369
-194188
-194009
-193834
-193670
-193480
-193312
-193169
-193009
-192860
-192708
-192562
-192418
-192277
-192138
-192002
-191869
-191739
-191611
-191486
-191363
-191242
-191124
-191007
-190893
-190781
-190671
-190563
-190456
-190352
-190249
-190149
-190049
-189952
-189856
-189761
-189668
-189577
-189487
-189398
-189310
-189224
-189139
-189056
-188973
-188892
-188812
-188734
-188656
-188580
-188504
-188431
-188358
-188284
-188212
-188144
-188073
-188009
-187937
-187869
-187800
-187733
-187667
-187604
-187540
-187479
-187417
-187361
-187297
-187254
-187174
-187170
-186947
-208692
-207711
-207457
-206848
-206445
-205956
-205531
-205093
-204680
-204271
-203878
-203493
-203119
-202755
-202401
-202055
-201719
-201391
-201072
-200760
-200456
-200160
-199871
-199589
-199313
-199044
-198782
-198525
-198276
-198028
-197790
-197548
-197284
-197092
-196881
-196664
-196457
-196249
-196048
-195850
-195657
-195467
-195281
-195099
-194920
-194745
-194573
-194404
-194239
-194076
-193917
-193760
-193607
-193456
-193308
-193162
-193019
-192879
-192741
-192605
-192472
-192340
-192211
-192084
-191959
-191836
-191714
-191595
-191477
-191362
-191248
-191135
-191025
-190916
-190809
-190703
-190601
-190497
-190399
-190296
-190193
-190097
-190003
-189907
-189820
-189725
-189628
-189539
-189448
-189361
-189275
-189189
-189106
-189022
-188944
-188858
-188792
-188689
-188663
-188412
-215495
-214348
-213979
-213233
-212711
-212099
-211558
-211005
-210481
-209964
-209466
-208978
-208505
-208043
-207594
-207156
-206730
-206314
-205909
-205514
-205128
-204752
-204385
-204027
-203677
-203336
-203002
-202676
-202358
-202046
-201740
-201442
-201144
-200861
-200585
-200313
-200047
-199786
-199530
-199279
-199033
-198792
-198556
-198325
-198098
-197875
-197657
-197443
-197233
-197027
-196824
-196625
-196430
-196238
-196050
-195865
-195684
-195506
-195331
-195158
-194989
-194823
-194659
-194497
-194339
-194182
-194029
-193877
-193728
-193582
-193437
-193294
-193154
-193016
-192880
-192745
-192616
-192483
-192362
-192244
-192107
-191978
-191867
-191743
-191673
-191528
-191400
-191276
-191164
-191052
-190944
-190836
-190732
-190626
-190527
-190418
-190332
-190205
-190160
-189883
-222290
-220977
-220493
-219611
-218969
-218234
-217578
-216910
-216276
-215651
-215047
-214457
-213884
-213325
-212782
-212252
-211735
-211232
-210741
-210262
-209795
-209339
-208895
-208460
-208037
-207622
-207218
-206823
-206436
-206058
-205687
-205325
-204966
-204626
-204289
-203959
-203636
-203319
-203009
-202704
-202406
-202114
-201828
-201547
-201272
-201002
-200738
-200478
-200223
-199973
-199728
-199487
-199250
-199017
-198789
-198565
-198345
-198130
-197918
-197709
-197504
-197302
-197104
-196908
-196716
-196527
-196341
-196157
-195977
-195800
-195625
-195452
-195283
-195116
-194953
-194791
-194639
-194477
-194354
-194175
-193983
-193857
-193716
-193559
-193467
-193316
-193121
-193013
-192871
-192743
-192611
-192482
-192356
-192228
-192107
-191977
-191870
-191721
-191657
-191356
-229075
-227596
-226997
-225980
-225219
-224361
-223589
-222806
-222062
-221329
-220620
-219928
-219255
-218600
-217961
-217339
-216733
-216142
-215565
-215003
-214455
-213920
-213397
-212887
-212389
-211903
-211428
-210963
-210509
-210065
-209631
-209206
-208790
-208384
-207988
-207599
-207219
-206847
-206482
-206125
-205775
-205432
-205095
-204766
-204442
-204125
-203814
-203509
-203210
-202916
-202628
-202345
-202067
-201793
-201526
-201261
-201002
-200750
-200501
-200256
-200016
-199779
-199546
-199316
-199090
-198868
-198650
-198434
-198223
-198014
-197809
-197606
-197407
-197208
-197016
-196815
-196637
-196407
-196285
-195981
-195919
-195675
-195519
-195334
-195365
-194969
-194874
-194691
-194573
-194416
-194273
-194122
-193976
-193827
-193686
-193534
-193406
-193236
-193153
-192830
-235848
-234203
-233490
-232337
-231457
-230477
-229589
-228693
-227838
-226997
-226184
-225390
-224618
-223865
-223132
-222418
-221722
-221044
-220382
-219736
-219107
-218492
-217892
-217307
-216735
-216176
-215630
-215097
-214576
-214066
-213567
-213079
-212601
-212136
-211680
-211234
-210797
-210369
-209950
-209540
-209137
-208743
-208357
-207978
-207607
-207243
-206886
-206535
-206192
-205854
-205523
-205197
-204878
-204562
-204255
-203949
-203654
-203369
-203081
-202801
-202524
-202251
-201983
-201720
-201461
-201206
-200955
-200708
-200465
-200226
-199990
-199758
-199529
-199304
-199082
-198863
-198644
-198435
-198200
-198037
-197859
-197629
-197428
-197246
-197014
-196847
-196700
-196482
-196308
-196121
-195946
-195770
-195599
-195427
-195263
-195090
-194941
-194750
-194647
-194302
-242607
-240798
-239970
-238683
-237683
-236581
-235578
-234567
-233603
-232655
-231737
-230841
-229970
-229120
-228293
-227487
-226702
-225936
-225189
-224461
-223750
-223056
-222379
-221718
-221072
-220441
-219825
-219223
-218634
-218059
-217496
-216946
-216407
-215881
-215366
-214862
-214368
-213885
-213412
-212948
-212494
-212049
-211613
-211185
-210766
-210355
-209951
-209556
-209168
-208787
-208414
-208046
-207688
-207330
-206987
-206635
-206291
-205976
-205660
-205339
-205029
-204719
-204418
-204119
-203827
-203539
-203256
-202977
-202703
-202433
-202167
-201905
-201648
-201393
-201144
-200896
-200656
-200415
-200185
-199966
-199730
-199497
-199284
-199062
-198890
-198650
-198431
-198211
-198008
-197803
-197605
-197407
-197215
-197022
-196837
-196642
-196473
-196261
-196139
-195772
-249352
-247378
-246436
-245014
-243896
-242672
-241554
-240429
-239355
-238299
-237277
-236280
-235310
-234364
-233443
-232546
-231671
-230818
-229986
-229174
-228383
-227610
-226856
-226119
-225400
-224697
-224011
-223340
-222684
-222043
-221416
-220803
-220203
-219617
-219043
-218481
-217931
-217393
-216866
-216349
-215843
-215347
-214861
-214385
-213918
-213460
-213010
-212570
-212137
-211713
-211297
-210886
-210486
-210084
-209700
-209286
-208935
-208613
-208228
-207876
-207525
-207182
-206845
-206513
-206188
-205867
-205552
-205241
-204936
-204636
-204340
-204049
-203762
-203480
-203201
-202928
-202657
-202393
-202130
-201878
-201626
-201373
-201127
-200884
-200642
-200406
-200176
-199940
-199714
-199486
-199265
-199045
-198830
-198615
-198408
-198192
-198003
-197769
-197628
-197240
-256080
-253942
-252886
-251329
-250093
-248748
-247515
-246277
-245093
-243930
-242804
-241705
-240637
-239595
-238580
-237591
-236627
-235687
-234771
-233877
-233004
-232153
-231321
-230510
-229717
-228943
-228187
-227447
-226725
-226018
-225327
-224652
-223991
-223344
-222712
-222092
-221486
-220893
-220311
-219742
-219184
-218638
-218102
-217577
-217062
-216557
-216062
-215577
-215101
-214633
-214177
-213725
-213293
-212849
-212472
-211983
-211744
-211166
-210840
-210400
-210027
-209639
-209269
-208902
-208543
-208190
-207843
-207501
-207164
-206833
-206508
-206187
-205871
-205560
-205254
-204953
-204656
-204364
-204077
-203795
-203515
-203239
-202969
-202701
-202441
-202177
-201919
-201662
-201411
-201162
-200918
-200677
-200440
-200203
-199976
-199738
-199529
-199274
-199114
-198704
-262790
-260488
-259319
-257628
-256274
-254807
-253460
-252109
-250816
-249546
-248317
-247117
-245949
-244812
-243704
-242624
-241571
-240544
-239543
-238566
-237613
-236683
-235775
-234889
-234023
-233177
-232351
-231543
-230754
-229982
-229228
-228490
-227768
-227061
-226370
-225694
-225031
-224383
-223748
-223126
-222517
-221919
-221334
-220761
-220198
-219647
-219106
-218575
-218055
-217544
-217043
-216552
-216069
-215598
-215129
-214697
-214202
-213738
-213339
-212909
-212497
-212085
-211681
-211283
-210891
-210506
-210127
-209754
-209387
-209025
-208670
-208319
-207975
-207635
-207301
-206972
-206648
-206329
-206015
-205706
-205401
-205100
-204803
-204511
-204222
-203937
-203656
-203378
-203105
-202834
-202568
-202304
-202046
-201787
-201539
-201281
-201051
-200776
-200596
-200165
-269480
-267015
-265732
-263908
-262436
-260849
-259387
-257923
-256521
-255146
-253813
-252512
-251247
-250013
-248812
-247641
-246500
-245387
-244301
-243242
-242209
-241201
-240216
-239255
-238316
-237399
-236503
-235628
-234772
-233935
-233117
-232316
-231534
-230768
-230018
-229285
-228566
-227863
-227175
-226500
-225839
-225192
-224557
-223935
-223325
-222727
-222141
-221565
-221001
-220447
-219905
-219371
-218849
-218332
-217830
-217326
-216826
-216355
-215895
-215428
-214978
-214529
-214091
-213658
-213234
-212816
-212405
-212000
-211602
-211211
-210825
-210446
-210072
-209705
-209342
-208986
-208635
-208289
-207948
-207613
-207282
-206956
-206634
-206317
-206005
-205696
-205391
-205090
-204794
-204501
-204212
-203927
-203647
-203367
-203098
-202819
-202568
-202273
-202074
-201622
-276149
-273521
-272125
-270167
-268578
-266871
-265296
-263719
-262209
-260727
-259291
-257890
-256527
-255198
-253904
-252642
-251413
-250214
-249044
-247903
-246790
-245704
-244643
-243607
-242596
-241608
-240642
-239699
-238777
-237875
-236993
-236131
-235287
-234462
-233654
-232864
-232090
-231332
-230590
-229863
-229151
-228454
-227770
-227099
-226442
-225798
-225166
-224546
-223938
-223341
-222755
-222180
-221616
-221062
-220516
-219983
-219451
-218933
-218430
-217931
-217444
-216963
-216491
-216025
-215568
-215118
-214675
-214240
-213811
-213389
-212974
-212566
-212163
-211767
-211377
-210993
-210615
-210242
-209875
-209513
-209157
-208805
-208459
-208117
-207780
-207448
-207120
-206796
-206477
-206162
-205852
-205544
-205243
-204942
-204652
-204352
-204081
-203765
-203547
-203075
-282794
-280004
-278496
-276406
-274700
-272872
-271184
-269495
-267877
-266289
-264751
-263249
-261789
-260365
-258978
-257627
-256309
-255024
-253771
-252548
-251355
-250191
-249055
-247945
-246861
-245802
-244767
-243756
-242768
-241802
-240857
-239933
-239028
-238144
-237278
-236431
-235602
-234790
-233994
-233215
-232452
-231704
-230971
-230253
-229549
-228858
-228181
-227516
-226864
-226225
-225597
-224981
-224376
-223781
-223197
-222623
-222058
-221506
-220964
-220430
-219907
-219391
-218884
-218385
-217895
-217413
-216939
-216472
-216013
-215561
-215116
-214678
-214247
-213822
-213405
-212993
-212588
-212188
-211795
-211407
-211025
-210649
-210278
-209912
-209551
-209195
-208844
-208497
-208155
-207818
-207485
-207157
-206834
-206512
-206200
-205880
-205589
-205253
-205015
-204523
-289415
-286463
-284843
-282621
-280798
-278851
-277050
-275250
-273524
-271831
-270190
-268589
-267031
-265513
-264034
-262592
-261187
-259817
-258480
-257176
-255904
-254662
-253450
-252266
-251110
-249981
-248877
-247799
-246744
-245714
-244706
-243720
-242756
-241812
-240889
-239985
-239100
-238234
-237386
-236555
-235741
-234943
-234161
-233395
-232644
-231907
-231184
-230475
-229780
-229098
-228428
-227771
-227125
-226492
-225869
-225258
-224656
-224066
-223487
-222918
-222359
-221809
-221268
-220736
-220214
-219699
-219193
-218696
-218206
-217724
-217250
-216783
-216323
-215870
-215425
-214986
-214553
-214128
-213708
-213295
-212887
-212486
-212090
-211699
-211315
-210935
-210561
-210191
-209827
-209468
-209113
-208763
-208419
-208075
-207743
-207402
-207092
-206735
-206478
-205966
-296010
-292897
-291165
-288811
-286873
-284807
-282892
-280982
-279148
-277350
-275608
-273907
-272253
-270640
-269070
-267538
-266046
-264590
-263171
-261786
-260434
-259115
-257828
-256570
-255342
-254143
-252970
-251825
-250705
-249610
-248540
-247493
-246468
-245466
-244485
-243525
-242585
-241665
-240764
-239881
-239016
-238169
-237339
-236524
-235726
-234944
-234176
-233423
-232685
-231960
-231248
-230550
-229864
-229191
-228530
-227880
-227242
-226616
-226001
-225396
-224802
-224218
-223643
-223078
-222523
-221977
-221440
-220911
-220391
-219879
-219375
-218879
-218391
-217910
-217437
-216971
-216512
-216059
-215614
-215175
-214742
-214315
-213895
-213481
-213072
-212669
-212271
-211879
-211493
-211111
-210735
-210363
-209997
-209633
-209280
-208919
-208588
-208211
-207936
-207403
-302576
-299303
-297460
-294975
-292921
-290737
-288711
-286689
-284749
-282847
-281002
-279203
-277452
-275746
-274084
-272464
-270884
-269344
-267842
-266376
-264946
-263550
-262187
-260857
-259557
-258287
-257047
-255834
-254649
-253491
-252357
-251249
-250165
-249104
-248066
-247050
-246055
-245081
-244127
-243193
-242278
-241381
-240503
-239641
-238796
-237968
-237156
-236359
-235577
-234810
-234057
-233318
-232592
-231880
-231180
-230493
-229818
-229155
-228503
-227863
-227234
-226616
-226008
-225411
-224823
-224245
-223676
-223117
-222566
-222025
-221491
-220967
-220450
-219941
-219441
-218947
-218461
-217983
-217511
-217047
-216589
-216138
-215693
-215254
-214822
-214395
-213975
-213560
-213151
-212747
-212349
-211956
-211569
-211184
-210811
-210429
-210078
-209681
-209387
-208835
-309114
-305681
-303727
-301111
-298943
-296640
-294503
-292371
-290324
-288318
-286373
-284475
-282629
-280829
-279076
-277367
-275701
-274076
-272491
-270946
-269437
-267965
-266527
-265124
-263753
-262413
-261105
-259826
-258576
-257353
-256158
-254989
-253845
-252726
-251631
-250559
-249510
-248482
-247476
-246491
-245526
-244580
-243652
-242744
-241853
-240979
-240122
-239281
-238456
-237647
-236853
-236073
-235308
-234556
-233818
-233094
-232382
-231682
-230995
-230320
-229656
-229004
-228363
-227732
-227112
-226503
-225903
-225313
-224732
-224161
-223599
-223045
-222500
-221964
-221435
-220915
-220403
-219898
-219401
-218911
-218428
-217952
-217483
-217020
-216564
-216114
-215671
-215234
-214802
-214377
-213957
-213542
-213134
-212728
-212335
-211933
-211562
-211145
-210831
-210260
-315620
-312028
-309965
-307219
-304936
-302516
-300267
-298026
-295873
-293764
-291718
-289722
-287780
-285888
-284044
-282247
-280494
-278786
-277119
-275493
-273907
-272358
-270847
-269370
-267928
-266520
-265144
-263799
-262484
-261198
-259941
-258711
-257508
-256331
-255178
-254051
-252947
-251867
-250809
-249773
-248757
-247763
-246788
-245832
-244894
-243975
-243074
-242190
-241322
-240471
-239636
-238816
-238011
-237220
-236444
-235682
-234933
-234198
-233475
-232765
-232067
-231381
-230706
-230043
-229391
-228750
-228119
-227498
-226888
-226287
-225696
-225114
-224541
-223976
-223421
-222874
-222335
-221804
-221281
-220766
-220258
-219757
-219264
-218778
-218298
-217825
-217359
-216899
-216446
-215998
-215557
-215121
-214692
-214265
-213851
-213429
-213038
-212602
-212269
-211678
-322093
-318344
-316171
-313295
-310899
-308362
-306003
-303652
-301394
-299182
-297036
-294943
-292906
-290921
-288987
-287102
-285264
-283472
-281724
-280019
-278354
-276730
-275144
-273596
-272083
-270606
-269162
-267751
-266372
-265024
-263705
-262415
-261153
-259918
-258709
-257527
-256368
-255236
-254125
-253039
-251974
-250930
-249907
-248904
-247921
-246957
-246011
-245084
-244174
-243281
-242405
-241545
-240700
-239871
-239057
-238257
-237472
-236700
-235942
-235197
-234465
-233745
-233038
-232342
-231658
-230986
-230324
-229673
-229033
-228403
-227782
-227172
-226571
-225979
-225396
-224822
-224257
-223700
-223152
-222611
-222079
-221554
-221036
-220526
-220024
-219528
-219039
-218556
-218081
-217611
-217149
-216691
-216242
-215795
-215360
-214918
-214508
-214051
-213700
-213090
-328532
-324626
-322344
-319340
-316830
-314177
-311708
-309249
-306886
-304572
-302327
-300136
-298005
-295928
-293904
-291932
-290009
-288133
-286304
-284520
-282778
-281079
-279419
-277799
-276216
-274670
-273160
-271683
-270240
-268829
-267449
-266099
-264778
-263485
-262219
-260982
-259767
-258585
-257422
-256287
-255172
-254081
-253010
-251961
-250932
-249923
-248934
-247963
-247011
-246076
-245159
-244259
-243375
-242508
-241656
-240819
-239997
-239190
-238397
-237617
-236851
-236098
-235357
-234630
-233914
-233210
-232518
-231837
-231166
-230507
-229858
-229219
-228590
-227971
-227361
-226761
-226170
-225587
-225013
-224448
-223890
-223341
-222800
-222266
-221740
-221221
-220710
-220205
-219707
-219216
-218732
-218254
-217784
-217316
-216861
-216399
-215969
-215493
-215123
-214494
-334936
-330873
-328483
-325351
-322728
-319960
-317382
-314815
-312348
-309931
-307587
-305301
-303076
-300907
-298794
-296735
-294727
-292769
-290859
-288996
-287178
-285403
-283671
-281979
-280327
-278712
-277135
-275594
-274087
-272613
-271172
-269763
-268384
-267034
-265712
-264421
-263153
-261918
-260705
-259519
-258354
-257214
-256097
-255001
-253926
-252873
-251840
-250826
-249832
-248856
-247898
-246959
-246036
-245130
-244241
-243367
-242509
-241666
-240837
-240023
-239223
-238437
-237664
-236904
-236157
-235422
-234699
-233988
-233288
-232600
-231922
-231255
-230599
-229952
-229316
-228689
-228071
-227463
-226864
-226273
-225692
-225118
-224553
-223996
-223447
-222905
-222371
-221844
-221325
-220812
-220307
-219808
-219317
-218829
-218354
-217872
-217422
-216927
-216537
-215891
-341302
-337083
-334586
-331326
-328592
-325709
-323022
-320348
-317778
-315260
-312817
-310435
-308117
-305857
-303655
-301510
-299418
-297377
-295388
-293446
-291552
-289703
-287897
-286135
-284413
-282731
-281087
-279481
-277911
-276376
-274874
-273406
-271968
-270561
-269179
-267835
-266497
-265227
-263961
-262729
-261517
-260330
-259165
-258023
-256903
-255806
-254729
-253673
-252636
-251620
-250622
-249643
-248681
-247737
-246810
-245900
-245006
-244127
-243264
-242416
-241582
-240763
-239957
-239165
-238386
-237621
-236868
-236127
-235398
-234681
-233975
-233280
-232595
-231922
-231259
-230605
-229962
-229328
-228704
-228089
-227483
-226885
-226296
-225716
-225144
-224579
-224023
-223474
-222933
-222399
-221873
-221353
-220841
-220333
-219838
-219336
-218867
-218352
-217944
-217279
-347629
-343256
-340651
-337266
-334420
-331423
-328628
-325847
-323174
-320556
-318016
-315538
-313127
-310777
-308487
-306255
-304080
-301958
-299888
-297869
-295899
-293976
-292098
-290265
-288474
-286725
-285016
-283345
-281712
-280116
-278554
-277027
-275533
-274069
-272637
-271235
-269858
-268528
-267210
-265926
-264663
-263427
-262215
-261027
-259862
-258720
-257600
-256502
-255424
-254366
-253329
-252310
-251310
-250328
-249364
-248418
-247487
-246574
-245676
-244793
-243925
-243073
-242234
-241412
-240602
-239806
-239023
-238253
-237495
-236749
-236014
-235292
-234580
-233880
-233190
-232510
-231841
-231182
-230533
-229893
-229263
-228641
-228029
-227425
-226830
-226243
-225665
-225094
-224531
-223976
-223429
-222888
-222356
-221827
-221313
-220791
-220303
-219769
-219342
-218659
-353916
-349390
-346678
-343167
-340211
-337100
-334198
-331311
-328536
-325818
-323181
-320608
-318105
-315665
-313288
-310971
-308712
-306509
-304360
-302264
-300218
-298221
-296272
-294369
-292509
-290693
-288919
-287184
-285489
-283832
-282211
-280625
-279074
-277555
-276058
-274606
-273065
-271792
-270423
-269098
-267788
-266504
-265246
-264012
-262803
-261617
-260453
-259313
-258194
-257096
-256018
-254961
-253922
-252903
-251902
-250919
-249954
-249005
-248073
-247157
-246255
-245371
-244499
-243645
-242804
-241978
-241165
-240365
-239578
-238803
-238041
-237291
-236552
-235825
-235108
-234403
-233708
-233024
-232350
-231686
-231031
-230386
-229750
-229124
-228506
-227897
-227296
-226704
-226120
-225543
-224975
-224413
-223861
-223312
-222778
-222237
-221729
-221176
-220731
-220030
-360161
-355482
-352665
-349029
-345963
-342740
-339731
-336739
-333862
-331045
-328311
-325644
-323050
-320520
-318057
-315655
-313313
-311030
-308802
-306629
-304509
-302439
-300418
-298445
-296518
-294635
-292796
-290998
-289241
-287522
-285843
-284199
-282594
-281017
-279485
-277952
-276506
-275078
-273646
-272256
-270895
-269562
-268257
-266977
-265723
-264493
-263288
-262105
-260945
-259807
-258690
-257593
-256517
-255461
-254423
-253404
-252403
-251420
-250453
-249503
-248567
-247650
-246739
-245861
-244989
-244134
-243292
-242463
-241648
-240845
-240055
-239277
-238511
-237757
-237014
-236283
-235563
-234854
-234155
-233466
-232788
-232119
-231460
-230811
-230170
-229539
-228916
-228302
-227697
-227099
-226510
-225928
-225356
-224787
-224233
-223673
-223146
-222574
-222110
-221392
-366362
-361532
-358610
-354850
-351676
-348340
-345226
-342129
-339151
-336235
-333406
-330646
-327960
-325342
-322792
-320306
-317882
-315519
-313214
-310964
-308769
-306627
-304535
-302493
-300498
-298549
-296645
-294785
-292966
-291188
-289452
-287752
-286101
-284470
-282944
-281334
-279484
-278309
-276896
-275392
-273990
-272599
-271248
-269921
-268623
-267350
-266102
-264878
-263677
-262499
-261343
-260208
-259094
-258001
-256927
-255872
-254836
-253819
-252818
-251836
-250868
-249920
-248980
-248064
-247164
-246277
-245406
-244547
-243703
-242872
-242054
-241249
-240456
-239676
-238907
-238150
-237405
-236671
-235947
-235235
-234533
-233840
-233158
-232486
-231823
-231170
-230525
-229890
-229263
-228645
-228035
-227433
-226840
-226252
-225679
-225099
-224553
-223963
-223480
-222745
-372519
-367538
-364512
-360629
-357346
-353899
-350680
-347480
-344402
-341388
-338463
-335611
-332835
-330129
-327493
-324923
-322418
-319975
-317593
-315268
-312999
-310785
-308623
-306512
-304450
-302435
-300467
-298544
-296664
-294826
-293029
-291272
-289554
-287874
-286230
-284637
-283039
-281459
-279973
-278481
-277033
-275606
-274211
-272842
-271501
-270185
-268895
-267630
-266389
-265171
-263976
-262803
-261652
-260522
-259412
-258322
-257252
-256200
-255167
-254149
-253145
-252162
-251137
-250246
-249317
-248405
-247506
-246618
-245745
-244885
-244040
-243207
-242387
-241581
-240786
-240004
-239233
-238474
-237727
-236990
-236264
-235549
-234844
-234149
-233464
-232789
-232123
-231466
-230818
-230179
-229549
-228926
-228314
-227706
-227113
-226514
-225950
-225341
-224839
-224087
-378629
-373499
-370369
-366365
-362974
-359417
-356094
-352790
-349613
-346502
-343483
-340538
-337673
-334880
-332159
-329506
-326920
-324398
-321939
-319539
-317197
-314911
-312679
-310500
-308371
-306292
-304260
-302274
-300333
-298436
-296581
-294765
-292989
-291251
-289538
-287878
-286127
-284648
-283083
-281563
-280065
-278595
-277154
-275742
-274357
-272999
-271668
-270362
-269081
-267823
-266590
-265379
-264191
-263024
-261879
-260753
-259649
-258564
-257498
-256452
-255422
-254423
-253402
-252406
-251466
-250514
-249588
-248670
-247770
-246882
-246009
-245150
-244304
-243471
-242651
-241843
-241048
-240264
-239493
-238732
-237983
-237245
-236517
-235800
-235092
-234395
-233708
-233030
-232361
-231701
-231051
-230408
-229776
-229149
-228537
-227919
-227335
-226708
-226188
-225420
-384691
-379413
-376181
-372055
-368558
-364891
-361465
-358059
-354783
-351576
-348463
-345427
-342473
-339593
-336787
-334053
-331387
-328786
-326251
-323776
-321362
-319005
-316704
-314457
-312262
-310118
-308023
-305975
-303974
-302017
-300104
-298233
-296401
-294610
-292853
-291140
-289446
-287805
-286196
-284619
-283074
-281559
-280074
-278618
-277191
-275791
-274418
-273072
-271751
-270455
-269183
-267935
-266710
-265507
-264326
-263166
-262030
-260911
-259824
-258736
-257736
-256626
-255493
-254589
-253663
-252624
-251671
-250713
-249783
-248865
-247965
-247078
-246205
-245346
-244501
-243668
-242848
-242040
-241244
-240461
-239688
-238927
-238177
-237437
-236708
-235989
-235280
-234581
-233892
-233212
-232541
-231879
-231227
-230580
-229949
-229312
-228710
-228064
-227526
-226741
-390703
-385279
-381945
-377699
-374096
-370321
-366792
-363285
-359911
-356608
-353403
-350276
-347233
-344268
-341379
-338562
-335817
-333139
-330528
-327979
-325494
-323066
-320696
-318381
-316121
-313912
-311755
-309646
-307585
-305570
-303598
-301671
-299783
-297937
-296125
-294359
-292607
-290932
-289270
-287651
-286059
-284500
-282970
-281471
-280001
-278560
-277146
-275760
-274399
-273064
-271755
-270469
-269207
-267968
-266752
-265557
-264383
-263230
-262098
-260980
-259890
-258793
-257752
-256736
-255700
-254695
-253704
-252729
-251772
-250829
-249902
-248989
-248091
-247206
-246335
-245478
-244633
-243801
-242982
-242175
-241379
-240595
-239822
-239061
-238310
-237570
-236840
-236120
-235410
-234710
-234019
-233337
-232666
-232000
-231350
-230694
-230074
-229410
-228853
-228052
-396665
-391095
-387660
-383295
-379587
-375705
-372074
-368466
-364996
-361598
-358300
-355084
-351954
-348903
-345931
-343033
-340209
-337454
-334768
-332146
-329590
-327092
-324653
-322272
-319947
-317675
-315455
-313286
-311165
-309092
-307064
-305081
-303140
-301241
-299381
-297563
-295778
-294038
-292330
-290659
-289021
-287416
-285843
-284301
-282788
-281306
-279851
-278425
-277025
-275652
-274305
-272982
-271684
-270409
-269158
-267928
-266721
-265534
-264369
-263221
-262091
-260980
-259834
-258826
-257776
-256747
-255732
-254731
-253746
-252777
-251823
-250884
-249960
-249050
-248154
-247272
-246403
-245548
-244705
-243874
-243056
-242249
-241454
-240671
-239898
-239137
-238386
-237646
-236915
-236195
-235484
-234783
-234092
-233407
-232738
-232064
-231425
-230743
-230169
-229352
-402574
-396860
-393325
-388842
-385030
-381041
-377309
-373602
-370036
-366543
-363155
-359849
-356632
-353497
-350443
-347465
-344562
-341732
-338972
-336278
-333656
-331083
-328577
-326129
-323739
-321404
-319123
-316894
-314714
-312583
-310499
-308461
-306466
-304514
-302603
-300734
-298900
-297112
-295357
-293640
-291956
-290307
-288690
-287105
-285551
-284027
-282532
-281066
-279628
-278217
-276832
-275473
-274138
-272828
-271542
-270278
-269037
-267817
-266619
-265440
-264283
-263144
-262024
-260931
-259850
-258789
-257743
-256715
-255703
-254707
-253727
-252762
-251813
-250878
-249957
-249051
-248158
-247278
-246412
-245559
-244717
-243889
-243072
-242267
-241473
-240690
-239919
-239158
-238407
-237667
-236937
-236215
-235506
-234802
-234114
-233422
-232765
-232065
-231472
-230640
-408430
-402573
-398939
-394339
-390424
-386329
-382497
-378692
-375029
-371444
-367965
-364571
-361269
-358050
-354913
-351856
-348876
-345969
-343135
-340368
-337674
-335037
-332463
-329951
-327496
-325100
-322757
-320468
-318231
-316043
-313903
-311810
-309763
-307759
-305798
-303879
-301999
-300160
-298358
-296594
-294866
-293172
-291511
-289884
-288288
-286724
-285189
-283684
-282207
-280758
-279336
-277941
-276571
-275225
-273905
-272607
-271333
-270080
-268850
-267640
-266450
-265282
-264126
-263007
-261897
-260809
-259736
-258681
-257642
-256620
-255614
-254623
-253648
-252689
-251743
-250813
-249896
-248993
-248104
-247227
-246364
-245513
-244674
-243848
-243033
-242229
-241437
-240656
-239885
-239125
-238375
-237635
-236906
-236184
-235477
-234767
-234092
-233375
-232764
-231917
-414230
-408232
-404499
-399783
-395767
-391567
-387636
-383733
-379976
-376299
-372730
-369249
-365861
-362559
-359342
-356206
-353148
-350167
-347260
-344425
-341694
-338955
-336313
-333736
-331218
-328760
-326357
-324009
-321714
-319470
-317275
-315128
-313028
-310973
-308961
-306993
-305065
-303178
-301330
-299520
-297747
-296009
-294306
-292637
-291000
-289395
-287821
-286277
-284762
-283276
-281817
-280385
-278980
-277600
-276245
-274914
-273607
-272323
-271060
-269820
-268601
-267403
-266225
-265069
-263931
-262812
-261712
-260629
-259563
-258515
-257483
-256467
-255467
-254482
-253513
-252558
-251618
-250692
-249779
-248881
-247995
-247122
-246262
-245414
-244578
-243754
-242941
-242139
-241349
-240569
-239800
-239041
-238293
-237552
-236828
-236099
-235406
-234672
-234043
-233181
-419974
-413835
-410006
-405175
-401057
-396754
-392725
-388725
-384875
-381106
-377448
-373881
-370409
-367025
-363727
-360513
-357379
-354323
-351341
-348428
-345599
-342837
-340122
-337484
-334903
-332384
-329922
-327516
-325163
-322864
-320614
-318414
-316262
-314156
-312094
-310077
-308101
-306167
-304273
-302418
-300600
-298819