/*--------------------------------*- C++ -*----------------------------------*\
| =========                 |                                                 |
| \\      /  F ield         | foam-extend: Open Source CFD                    |
|  \\    /   O peration     | Version:     4.1                                |
|   \\  /    A nd           | Web:         http://www.foam-extend.org         |
|    \\/     M anipulation  |                                                 |
\*---------------------------------------------------------------------------*/
FoamFile
{
    version     2.0;
    format      ascii;
    class       volScalarField;
    location    "4";
    object      sigmaEq;
}
// * * * * * * * * * * * * * * * * * * * * * * * * * * * * * * * * * * * * * //

dimensions      [1 -1 -2 0 0 0 0];

internalField   nonuniform List<scalar> 
100000
(
3.80802e+06
3.5967e+06
2.87656e+06
2.47174e+06
2.45278e+06
2.3841e+06
2.31887e+06
2.25701e+06
2.19818e+06
2.14214e+06
2.08888e+06
2.03847e+06
1.99105e+06
1.91828e+06
1.85447e+06
1.7867e+06
1.72253e+06
1.66132e+06
1.60299e+06
1.54744e+06
1.49444e+06
1.444e+06
1.39613e+06
1.32047e+06
1.24147e+06
1.19559e+06
1.15818e+06
1.12349e+06
1.09162e+06
1.0625e+06
1.03579e+06
1.01125e+06
989403
969935
952556
937685
925110
914767
900546
885910
813494
656172
618752
620401
621975
623475
624904
626266
627557
628775
629926
630999
632006
632931
633798
634599
635338
636017
636630
637189
637685
638132
638530
638887
639194
639458
639672
639842
639973
640056
640112
640134
640134
640115
640060
639982
639874
639739
639593
639436
639273
639115
638961
638807
638655
648267
675321
707790
761572
839241
901415
948545
998985
1.02462e+06
995267
947913
882960
834870
801989
786038
7.5419e+06
7.26696e+06
5.03267e+06
3.3592e+06
2.59787e+06
2.24727e+06
2.28889e+06
2.19928e+06
2.10549e+06
2.0165e+06
1.93282e+06
1.85431e+06
1.726e+06
1.59925e+06
1.55864e+06
1.54166e+06
1.50051e+06
1.45164e+06
1.40652e+06
1.36521e+06
1.32789e+06
1.29348e+06
1.26243e+06
1.23532e+06
1.20551e+06
1.17607e+06
1.14802e+06
1.12161e+06
1.09662e+06
1.073e+06
1.05055e+06
1.02893e+06
1.01029e+06
988149
969321
951532
934656
918515
903140
888552
802304
650987
620850
622483
624039
625522
626939
628281
629546
630734
631867
632916
633896
634801
635648
636430
637143
637801
638390
638919
639388
639815
640197
640535
640824
641063
641257
641401
641501
641560
641591
641595
641579
641535
641460
641356
641214
641048
640870
640681
640492
644945
670887
702269
749706
823187
888693
933449
980907
1.00287e+06
1.00462e+06
995130
960341
893775
828166
790447
770686
768008
764984
761985
8.45044e+06
9.7176e+06
8.513e+06
7.17679e+06
5.68612e+06
3.96831e+06
2.82458e+06
1.95189e+06
1.81508e+06
1.76109e+06
1.69448e+06
1.6348e+06
1.58161e+06
1.53148e+06
1.48459e+06
1.46581e+06
1.47293e+06
1.45656e+06
1.41509e+06
1.37535e+06
1.33814e+06
1.30248e+06
1.26811e+06
1.23586e+06
1.20533e+06
1.17619e+06
1.14827e+06
1.12202e+06
1.09726e+06
1.07382e+06
1.05156e+06
1.03042e+06
1.00975e+06
989821
971186
953418
936658
920754
905572
891126
793609
647323
622849
624458
625991
627454
628850
630164
631411
632585
633695
634715
635667
636551
637371
638129
638820
639452
640014
640520
640969
641372
641731
642044
642310
642526
642694
642815
642887
642921
642928
642904
642861
642786
642677
642537
642364
642171
665595
696058
736299
805467
877287
921121
967431
995125
995275
995447
995608
972949
927423
861023
806502
772216
768422
766346
763652
759931
756312
754288
8.67473e+06
1.04045e+07
1.00306e+07
9.53323e+06
9.30079e+06
8.21385e+06
7.21168e+06
5.96048e+06
4.51072e+06
3.31555e+06
2.44556e+06
1.84425e+06
1.57876e+06
1.52893e+06
1.48209e+06
1.43779e+06
1.40754e+06
1.41431e+06
1.41222e+06
1.37332e+06
1.33634e+06
1.30132e+06
1.26728e+06
1.23502e+06
1.20459e+06
1.1759e+06
1.14837e+06
1.12235e+06
1.09777e+06
1.07448e+06
1.05229e+06
1.03118e+06
1.01099e+06
991478
972941
955319
938603
922788
907755
893464
787041
644896
624747
626328
627838
629274
630644
631936
633169
634321
635399
636396
637320
638181
638974
639709
640375
640977
641514
641995
642422
642797
643132
643418
643657
643853
643990
644084
644130
644138
644118
644062
643987
643878
658848
688438
723125
786601
863408
909360
955259
993101
992633
992122
991617
991081
990411
957427
902258
838629
794338
742754
695915
659934
636493
626946
631631
650220
681084
781325
8.70623e+06
1.03905e+07
1.03822e+07
1.02713e+07
1.00769e+07
9.80232e+06
9.45424e+06
9.20298e+06
8.58059e+06
7.58321e+06
6.59214e+06
5.77187e+06
4.63861e+06
3.60046e+06
2.93797e+06
2.35143e+06
1.72557e+06
1.35835e+06
1.35155e+06
1.36334e+06
1.33412e+06
1.29937e+06
1.26599e+06
1.23418e+06
1.20385e+06
1.1753e+06
1.14806e+06
1.12228e+06
1.09793e+06
1.07482e+06
1.05285e+06
1.03191e+06
1.01198e+06
992802
974426
956908
940311
924692
909865
895766
782593
643450
626534
628091
629579
630989
632336
633607
634812
635935
636981
637955
638332
637769
637221
636684
636147
635611
635081
634553
634030
633508
632995
632490
631979
631465
630936
630404
618585
609354
611453
613416
615987
636476
679730
703669
709743
716492
745511
784970
832357
886324
945725
1.00938e+06
1.08127e+06
1.19125e+06
1.28697e+06
1.39061e+06
1.50639e+06
1.29611e+06
1.07648e+06
874252
759144
702410
654097
614989
587249
570453
566121
929942
8.87949e+06
1.03887e+07
1.03106e+07
1.0191e+07
1.01843e+07
1.01795e+07
1.01705e+07
9.94626e+06
9.72831e+06
9.49944e+06
9.25086e+06
9.05598e+06
8.89085e+06
7.99531e+06
7.16172e+06
6.48194e+06
6.12782e+06
5.17124e+06
4.25313e+06
3.82593e+06
3.43077e+06
3.04308e+06
2.26911e+06
1.62035e+06
1.22292e+06
1.2245e+06
1.55281e+06
1.46778e+06
1.3863e+06
1.31573e+06
1.2549e+06
1.20261e+06
1.15946e+06
1.1257e+06
1.09722e+06
1.07346e+06
1.05418e+06
1.03913e+06
1.02822e+06
1.02127e+06
929737
796783
801477
821938
845725
872759
903029
936449
972928
1.01243e+06
1.05474e+06
1.09971e+06
1.14704e+06
1.19701e+06
1.24951e+06
1.3042e+06
1.36088e+06
1.41949e+06
1.47979e+06
1.54171e+06
1.60502e+06
1.66963e+06
1.73547e+06
1.8023e+06
1.76491e+06
1.52752e+06
1.29607e+06
1.06897e+06
864618
696815
597697
626364
752191
941711
1.12763e+06
1.30207e+06
1.4199e+06
1.50474e+06
1.5905e+06
1.67562e+06
1.76077e+06
1.84674e+06
1.92363e+06
2.00541e+06
2.08396e+06
2.16338e+06
2.24338e+06
2.36763e+06
2.53954e+06
2.79032e+06
2.90313e+06
3.03793e+06
3.20111e+06
3.39564e+06
3.58968e+06
3.7766e+06
3.95988e+06
4.14532e+06
4.32196e+06
4.71661e+06
9.00835e+06
1.02618e+07
1.02028e+07
1.01115e+07
1.01114e+07
1.01146e+07
1.01147e+07
1.0112e+07
1.0108e+07
1.01028e+07
1.00312e+07
9.85551e+06
9.69103e+06
9.53618e+06
9.38371e+06
9.2148e+06
9.26525e+06
9.7004e+06
8.91304e+06
8.24521e+06
7.69213e+06
7.33358e+06
7.03982e+06
6.59366e+06
6.02303e+06
5.50111e+06
4.76124e+06
4.1142e+06
3.67141e+06
3.26043e+06
2.87766e+06
2.52346e+06
2.19946e+06
1.90362e+06
1.63588e+06
1.40147e+06
1.20257e+06
1.02707e+06
928517
907313
788487
608185
600742
633709
689914
768860
868485
986064
1.11876e+06
1.26468e+06
1.39328e+06
1.51457e+06
1.64044e+06
1.77156e+06
1.90488e+06
2.0401e+06
2.17677e+06
2.31484e+06
2.45396e+06
2.60484e+06
2.77121e+06
2.93872e+06
3.10709e+06
3.27427e+06
3.47395e+06
3.69025e+06
3.85981e+06
4.03069e+06
4.26499e+06
4.52823e+06
4.7886e+06
4.98368e+06
5.17914e+06
5.37473e+06
5.57031e+06
5.75124e+06
5.92757e+06
6.11688e+06
6.31128e+06
6.2006e+06
6.68183e+06
6.83795e+06
6.99393e+06
7.15026e+06
7.015e+06
7.46335e+06
7.71472e+06
7.91461e+06
8.10593e+06
7.96502e+06
7.78961e+06
7.61896e+06
7.52005e+06
7.48816e+06
7.45579e+06
7.40405e+06
7.35507e+06
7.30624e+06
7.26177e+06
7.24565e+06
8.95711e+06
1.01334e+07
1.00944e+07
1.00318e+07
1.00401e+07
1.00491e+07
1.00574e+07
1.00613e+07
1.00644e+07
1.00637e+07
1.00632e+07
1.00591e+07
1.00519e+07
1.00444e+07
1.00342e+07
1.00041e+07
9.87761e+06
9.75745e+06
9.64369e+06
9.53596e+06
9.43323e+06
9.34014e+06
9.71859e+06
1.01182e+07
1.04831e+07
1.07556e+07
1.08401e+07
1.02086e+07
9.60684e+06
9.04459e+06
8.52328e+06
8.04022e+06
7.59629e+06
7.19225e+06
6.82016e+06
6.47904e+06
6.17721e+06
5.89975e+06
5.63398e+06
5.37449e+06
5.34912e+06
5.54501e+06
5.66448e+06
5.79359e+06
5.93199e+06
6.07877e+06
6.23328e+06
6.39504e+06
6.56326e+06
6.7353e+06
6.91152e+06
7.09496e+06
7.28403e+06
7.47761e+06
7.67511e+06
7.87635e+06
8.08067e+06
8.28805e+06
8.49898e+06
8.71351e+06
8.88379e+06
9.01852e+06
9.1567e+06
9.29791e+06
9.33079e+06
9.15078e+06
8.97169e+06
8.80101e+06
8.63722e+06
8.46285e+06
8.28675e+06
8.11168e+06
7.93764e+06
7.76471e+06
7.59284e+06
7.42219e+06
7.3216e+06
7.25988e+06
7.18015e+06
7.08594e+06
6.99057e+06
6.89806e+06
6.81878e+06
6.73489e+06
6.65358e+06
6.57431e+06
6.49454e+06
6.41569e+06
6.33826e+06
6.25435e+06
6.17203e+06
6.09773e+06
6.02504e+06
5.95354e+06
5.89769e+06
5.8416e+06
5.77539e+06
5.70959e+06
5.64821e+06
5.51328e+06
8.9064e+06
1.00057e+07
9.98643e+06
9.95113e+06
9.96912e+06
9.98353e+06
9.9998e+06
1.00099e+07
1.00191e+07
1.00246e+07
1.00281e+07
1.00292e+07
1.00267e+07
1.00217e+07
1.00154e+07
1.00068e+07
9.99502e+06
9.98056e+06
9.96405e+06
9.94588e+06
9.92536e+06
9.9033e+06
9.87936e+06
9.86849e+06
1.00193e+07
1.01432e+07
1.01963e+07
1.0226e+07
1.01466e+07
1.00716e+07
1.00007e+07
9.93355e+06
9.86965e+06
9.80895e+06
9.75128e+06
9.69678e+06
9.64861e+06
9.64969e+06
9.64258e+06
9.57368e+06
9.77833e+06
9.63644e+06
9.48782e+06
9.33676e+06
9.18296e+06
9.02715e+06
8.86928e+06
8.70969e+06
8.54873e+06
8.3862e+06
8.25389e+06
8.13781e+06
8.02524e+06
7.91612e+06
7.81025e+06
7.70752e+06
7.60807e+06
7.51126e+06
7.41735e+06
7.31059e+06
7.18847e+06
7.07261e+06
6.96159e+06
6.85261e+06
6.74557e+06
6.64045e+06
6.53779e+06
6.44751e+06
6.34855e+06
6.2507e+06
6.15454e+06
6.06004e+06
5.96713e+06
5.87579e+06
5.78596e+06
5.69762e+06
5.58981e+06
5.46796e+06
5.3459e+06
5.22814e+06
5.13048e+06
5.05289e+06
4.9767e+06
4.90144e+06
4.82724e+06
4.75498e+06
4.6837e+06
4.61322e+06
4.54397e+06
4.47583e+06
4.45595e+06
4.43855e+06
4.42136e+06
4.40435e+06
4.387e+06
4.38902e+06
4.37848e+06
4.36229e+06
4.34607e+06
4.32847e+06
8.85616e+06
9.87906e+06
9.87958e+06
9.87084e+06
9.89865e+06
9.91934e+06
9.94184e+06
9.95892e+06
9.97331e+06
9.98434e+06
9.99219e+06
9.99835e+06
1e+07
9.99932e+06
9.99509e+06
9.98987e+06
9.98156e+06
9.96997e+06
9.95599e+06
9.94019e+06
9.92188e+06
9.90184e+06
9.87987e+06
9.85599e+06
9.70102e+06
9.48957e+06
9.4525e+06
9.44319e+06
9.42716e+06
9.38315e+06
9.22048e+06
9.02788e+06
8.83876e+06
8.65316e+06
8.47084e+06
8.2925e+06
8.11742e+06
7.94643e+06
7.78215e+06
7.58882e+06
7.71336e+06
7.55931e+06
7.40901e+06
7.26188e+06
7.11753e+06
6.97604e+06
6.83741e+06
6.70132e+06
6.56809e+06
6.43731e+06
6.30912e+06
6.18354e+06
6.06031e+06
5.93945e+06
5.82124e+06
5.70471e+06
5.59165e+06
5.48078e+06
5.37101e+06
5.26392e+06
5.20398e+06
5.18221e+06
5.16046e+06
5.13878e+06
5.11715e+06
5.09559e+06
5.07857e+06
5.06495e+06
5.04384e+06
5.02261e+06
5.00144e+06
4.98035e+06
4.95936e+06
4.93844e+06
4.89625e+06
4.83812e+06
4.77866e+06
4.72304e+06
4.68873e+06
4.66915e+06
4.64973e+06
4.63052e+06
4.61148e+06
4.59259e+06
4.57385e+06
4.44632e+06
4.304e+06
4.16354e+06
4.02489e+06
3.88806e+06
3.7531e+06
3.62003e+06
3.48897e+06
3.35983e+06
3.233e+06
3.11098e+06
3.00512e+06
2.88121e+06
2.76359e+06
2.78596e+06
8.80563e+06
9.75407e+06
9.77414e+06
9.79106e+06
9.827e+06
9.85596e+06
9.88399e+06
9.90762e+06
9.92792e+06
9.9436e+06
9.95637e+06
9.96566e+06
9.7518e+06
9.52929e+06
9.30967e+06
9.09505e+06
8.88436e+06
8.67677e+06
8.47239e+06
8.27187e+06
8.07473e+06
7.88138e+06
7.69159e+06
7.53466e+06
7.33817e+06
7.15068e+06
6.97161e+06
6.80851e+06
6.77341e+06
6.76583e+06
6.76453e+06
6.72776e+06
6.6513e+06
6.47238e+06
6.29666e+06
6.12497e+06
5.95662e+06
5.79249e+06
5.62838e+06
5.54386e+06
5.63447e+06
5.61527e+06
5.59567e+06
5.57573e+06
5.5556e+06
5.53509e+06
5.51452e+06
5.49363e+06
5.47258e+06
5.45144e+06
5.43e+06
5.33725e+06
5.18448e+06
5.03181e+06
4.87948e+06
4.72757e+06
4.49776e+06
4.42535e+06
4.27552e+06
4.12654e+06
3.9786e+06
3.83173e+06
3.68601e+06
3.54152e+06
3.39839e+06
3.25738e+06
3.12708e+06
2.99238e+06
2.85602e+06
2.72151e+06
2.58888e+06
2.45827e+06
2.3048e+06
2.12817e+06
1.95008e+06
1.78356e+06
1.64585e+06
1.52446e+06
1.4081e+06
1.29757e+06
1.19394e+06
1.09864e+06
1.0134e+06
940353
789632
659472
618692
610831
628293
668232
726171
797485
878249
965529
1.05698e+06
1.15176e+06
1.22815e+06
1.30613e+06
1.40092e+06
1.58261e+06
6.99504e+06
8.37302e+06
8.4672e+06
8.51495e+06
8.33309e+06
8.1336e+06
7.92654e+06
7.70881e+06
7.48247e+06
7.24725e+06
7.00547e+06
6.83708e+06
6.67238e+06
6.41679e+06
6.15124e+06
5.88333e+06
5.61403e+06
5.34275e+06
5.06977e+06
4.7962e+06
4.52227e+06
4.24911e+06
3.97764e+06
3.70006e+06
3.52677e+06
3.39371e+06
3.25825e+06
3.12095e+06
2.98219e+06
2.84242e+06
2.79657e+06
2.78961e+06
2.83666e+06
2.86044e+06
2.814e+06
2.73821e+06
2.61499e+06
2.49082e+06
2.26673e+06
2.17431e+06
2.01401e+06
1.89601e+06
1.77787e+06
1.66002e+06
1.54304e+06
1.42759e+06
1.31448e+06
1.20475e+06
1.09974e+06
1.00108e+06
887032
774431
695153
638143
605596
601561
626367
676899
747108
832178
927375
1.02988e+06
1.13731e+06
1.24813e+06
1.36122e+06
1.47667e+06
1.58631e+06
1.70278e+06
1.81861e+06
1.93432e+06
2.07118e+06
2.22883e+06
2.38477e+06
2.54252e+06
2.67906e+06
2.80158e+06
2.92302e+06
3.04333e+06
3.16246e+06
3.28042e+06
3.39715e+06
3.51261e+06
3.62676e+06
3.7396e+06
3.85114e+06
3.85198e+06
3.83618e+06
3.82047e+06
3.80485e+06
3.78929e+06
3.77379e+06
3.75835e+06
3.74297e+06
3.72763e+06
3.71236e+06
3.69718e+06
3.68155e+06
3.64333e+06
3.61655e+06
3.59824e+06
1.98498e+06
3.78134e+06
3.66557e+06
3.78914e+06
3.85148e+06
3.72347e+06
3.61332e+06
3.52418e+06
3.45607e+06
3.41164e+06
3.39225e+06
3.39838e+06
3.31924e+06
3.24522e+06
3.18068e+06
3.12545e+06
3.08044e+06
3.04427e+06
3.01786e+06
3.0009e+06
2.99337e+06
2.9952e+06
3.06301e+06
3.18013e+06
3.2169e+06
3.24804e+06
3.28742e+06
3.33476e+06
3.38979e+06
3.45211e+06
3.52108e+06
3.59604e+06
3.65077e+06
3.61785e+06
3.60699e+06
3.62986e+06
3.64297e+06
3.63524e+06
3.5026e+06
3.12724e+06
3.18787e+06
3.28974e+06
3.39319e+06
3.49802e+06
3.60413e+06
3.71121e+06
3.81919e+06
3.92784e+06
4.037e+06
4.14664e+06
4.25645e+06
4.2954e+06
4.2745e+06
4.25386e+06
4.23333e+06
4.21302e+06
4.19293e+06
4.17289e+06
4.15326e+06
4.13375e+06
4.11444e+06
4.09534e+06
4.0765e+06
4.05785e+06
4.0394e+06
4.01972e+06
3.99695e+06
3.97937e+06
3.97686e+06
4.0067e+06
4.03491e+06
4.06365e+06
4.06593e+06
4.04815e+06
4.03055e+06
4.01312e+06
3.99586e+06
3.97877e+06
3.96184e+06
3.94508e+06
3.92845e+06
3.91196e+06
3.89559e+06
3.87935e+06
3.86323e+06
3.84721e+06
3.8313e+06
3.81549e+06
3.79978e+06
3.78414e+06
3.76858e+06
3.7531e+06
3.73769e+06
3.72235e+06
3.70711e+06
3.69197e+06
3.67689e+06
3.65552e+06
3.6161e+06
3.59377e+06
5.42999e+06
6.70543e+06
6.99807e+06
7.12656e+06
7.05326e+06
6.98261e+06
6.91532e+06
6.85e+06
6.78708e+06
6.72655e+06
6.66775e+06
6.61114e+06
6.556e+06
6.50255e+06
6.4505e+06
6.3998e+06
6.35073e+06
6.30263e+06
6.25564e+06
6.20933e+06
6.164e+06
6.13731e+06
6.19014e+06
6.17894e+06
6.13256e+06
6.08711e+06
6.04253e+06
5.9989e+06
5.95615e+06
5.91439e+06
5.87341e+06
5.8333e+06
5.79373e+06
5.75518e+06
5.71678e+06
5.65036e+06
5.53309e+06
5.42371e+06
5.03463e+06
4.60777e+06
4.55827e+06
4.52093e+06
4.4913e+06
4.46871e+06
4.44623e+06
4.424e+06
4.40189e+06
4.37997e+06
4.35832e+06
4.33673e+06
4.3154e+06
4.29431e+06
4.27329e+06
4.25256e+06
4.23202e+06
4.21163e+06
4.19147e+06
4.17152e+06
4.15174e+06
4.13218e+06
4.11289e+06
4.09377e+06
4.07487e+06
4.05621e+06
4.0378e+06
4.01486e+06
4.00061e+06
4.03191e+06
4.06125e+06
4.09085e+06
4.0982e+06
4.07996e+06
4.06191e+06
4.04405e+06
4.02636e+06
4.00883e+06
3.99147e+06
3.97429e+06
3.95728e+06
3.94041e+06
3.92368e+06
3.90709e+06
3.89063e+06
3.8743e+06
3.85809e+06
3.84199e+06
3.826e+06
3.81012e+06
3.79433e+06
3.77865e+06
3.76305e+06
3.74755e+06
3.73212e+06
3.7168e+06
3.70158e+06
3.68648e+06
3.67146e+06
3.65665e+06
3.62789e+06
3.59025e+06
6.15481e+06
7.27051e+06
7.25177e+06
7.17e+06
7.09382e+06
7.01972e+06
6.94976e+06
6.88146e+06
6.81639e+06
6.75304e+06
6.69226e+06
6.63361e+06
6.57636e+06
6.5211e+06
6.46732e+06
6.41489e+06
6.36401e+06
6.31423e+06
6.26578e+06
6.21834e+06
6.17464e+06
6.21285e+06
6.23246e+06
6.18385e+06
6.13638e+06
6.08995e+06
6.04446e+06
6.00001e+06
5.95641e+06
5.91383e+06
5.87195e+06
5.83121e+06
5.79085e+06
5.75176e+06
5.71278e+06
5.67497e+06
5.63755e+06
5.55056e+06
4.87953e+06
4.64829e+06
4.60998e+06
4.57274e+06
4.53637e+06
4.50045e+06
4.46481e+06
4.4299e+06
4.40036e+06
4.3783e+06
4.35654e+06
4.33497e+06
4.31349e+06
4.29232e+06
4.27133e+06
4.25045e+06
4.22986e+06
4.20948e+06
4.18924e+06
4.16927e+06
4.14951e+06
4.1299e+06
4.11053e+06
4.09139e+06
4.07245e+06
4.05373e+06
4.0354e+06
4.05394e+06
4.08476e+06
4.11532e+06
4.13082e+06
4.11212e+06
4.09362e+06
4.07532e+06
4.0572e+06
4.03925e+06
4.02147e+06
4.00386e+06
3.98643e+06
3.96917e+06
3.95207e+06
3.93511e+06
3.91829e+06
3.90162e+06
3.86073e+06
3.81238e+06
3.76449e+06
3.71706e+06
3.67008e+06
3.62355e+06
3.57748e+06
3.53185e+06
3.48667e+06
3.44194e+06
3.39767e+06
3.35386e+06
3.31052e+06
3.26762e+06
3.22528e+06
3.18319e+06
3.14161e+06
3.06644e+06
6.79365e+06
7.34073e+06
7.29817e+06
7.21241e+06
7.13325e+06
7.05613e+06
6.98299e+06
6.9123e+06
6.84457e+06
6.77891e+06
6.71572e+06
6.65512e+06
6.5961e+06
6.5391e+06
6.48328e+06
6.42914e+06
6.37669e+06
6.32542e+06
6.27557e+06
6.22686e+06
6.23446e+06
6.28146e+06
6.23738e+06
6.18748e+06
6.13885e+06
6.09144e+06
6.04504e+06
5.99972e+06
5.95528e+06
5.91209e+06
5.86943e+06
5.82803e+06
5.78694e+06
5.74712e+06
5.70776e+06
5.66921e+06
5.63155e+06
5.18696e+06
4.69154e+06
4.66465e+06
4.64104e+06
4.61764e+06
4.58725e+06
4.55076e+06
4.51499e+06
4.47992e+06
4.4458e+06
4.41213e+06
4.37875e+06
4.34613e+06
4.31401e+06
4.28952e+06
4.26849e+06
4.24764e+06
4.22692e+06
4.20649e+06
4.18626e+06
4.16621e+06
4.1464e+06
4.1268e+06
4.1074e+06
4.08822e+06
4.06927e+06
4.07539e+06
4.08754e+06
4.08479e+06
4.07941e+06
4.0261e+06
3.97329e+06
3.921e+06
3.8692e+06
3.8179e+06
3.76709e+06
3.71676e+06
3.66691e+06
3.61755e+06
3.56867e+06
3.52027e+06
3.47233e+06
3.42485e+06
3.37784e+06
3.33273e+06
3.28934e+06
3.24467e+06
3.19972e+06
3.15523e+06
3.11119e+06
3.0676e+06
3.10941e+06
3.19208e+06
3.31259e+06
3.46066e+06
3.60837e+06
3.75568e+06
3.90242e+06
4.04906e+06
4.19423e+06
4.34046e+06
4.34312e+06
4.32646e+06
1.05405e+07
1.01567e+07
9.35544e+06
8.53243e+06
7.89158e+06
7.30299e+06
7.01531e+06
6.94189e+06
6.87155e+06
6.80396e+06
6.73833e+06
6.6756e+06
6.61432e+06
6.5555e+06
6.49828e+06
6.44272e+06
6.38859e+06
6.33566e+06
6.2842e+06
6.25435e+06
6.31116e+06
6.29332e+06
6.24106e+06
6.19015e+06
6.14057e+06
6.0922e+06
6.04486e+06
5.99878e+06
5.95354e+06
5.90966e+06
5.86621e+06
5.82397e+06
5.78237e+06
5.74166e+06
5.70191e+06
5.66255e+06
5.51917e+06
4.79259e+06
4.68626e+06
4.66244e+06
4.63868e+06
4.59298e+06
4.54536e+06
4.49753e+06
4.44982e+06
4.40207e+06
4.34963e+06
4.29045e+06
4.23173e+06
4.17349e+06
4.116e+06
4.059e+06
4.00233e+06
3.94624e+06
3.89066e+06
3.83559e+06
3.78322e+06
3.73569e+06
3.68846e+06
3.64158e+06
3.5951e+06
3.55606e+06
3.55224e+06
3.54787e+06
3.5431e+06
3.5038e+06
3.46084e+06
3.41215e+06
3.36258e+06
3.3135e+06
3.26491e+06
3.21681e+06
3.23383e+06
3.30648e+06
3.37985e+06
3.45386e+06
3.52846e+06
3.65941e+06
3.8018e+06
3.94447e+06
4.08732e+06
4.23028e+06
4.39761e+06
4.57251e+06
4.74703e+06
4.81331e+06
4.82333e+06
4.82868e+06
4.83795e+06
4.84932e+06
4.83994e+06
4.82305e+06
4.80404e+06
4.78553e+06
4.76754e+06
4.71186e+06
4.6419e+06
4.56277e+06
4.51959e+06
4.45606e+06
1.24766e+07
1.24602e+07
1.15945e+07
1.08336e+07
1.01015e+07
9.47717e+06
8.98789e+06
8.45723e+06
7.98854e+06
7.59671e+06
7.23114e+06
6.8911e+06
6.57413e+06
6.28159e+06
6.2208e+06
6.16023e+06
6.10002e+06
6.04012e+06
5.98359e+06
6.01522e+06
6.02602e+06
5.96093e+06
5.89638e+06
5.83224e+06
5.7686e+06
5.70545e+06
5.6426e+06
5.58042e+06
5.51839e+06
5.45702e+06
5.39577e+06
5.33486e+06
5.27455e+06
5.21423e+06
5.15471e+06
5.08589e+06
4.51687e+06
4.08159e+06
4.03689e+06
3.99212e+06
3.94595e+06
3.89985e+06
3.85504e+06
3.81022e+06
3.76535e+06
3.72073e+06
3.67608e+06
3.63149e+06
3.5872e+06
3.54296e+06
3.49888e+06
3.448e+06
3.39449e+06
3.34152e+06
3.28916e+06
3.26999e+06
3.33841e+06
3.40892e+06
3.48148e+06
3.55573e+06
3.66897e+06
3.79387e+06
3.92662e+06
4.09059e+06
4.24841e+06
4.42715e+06
4.61202e+06
4.80006e+06
4.9626e+06
5.12414e+06
5.28644e+06
5.44774e+06
5.45991e+06
5.46167e+06
5.4622e+06
5.46341e+06
5.44184e+06
5.418e+06
5.39112e+06
5.3639e+06
5.33731e+06
5.31133e+06
5.28597e+06
5.24728e+06
5.15865e+06
5.07574e+06
5.01554e+06
4.96576e+06
4.83084e+06
4.65718e+06
4.44758e+06
4.29393e+06
4.1475e+06
4.00225e+06
3.86273e+06
3.72818e+06
3.59063e+06
3.44642e+06
3.44411e+06
3.45988e+06
8.78257e+06
9.92328e+06
1.0578e+07
1.10399e+07
1.132e+07
1.15297e+07
1.1139e+07
1.05746e+07
1.00642e+07
9.56584e+06
9.0916e+06
8.65255e+06
8.24619e+06
7.94515e+06
7.67541e+06
7.34809e+06
7.04676e+06
6.76973e+06
6.58757e+06
6.49123e+06
6.31044e+06
6.13544e+06
5.97436e+06
5.82645e+06
5.69108e+06
5.5677e+06
5.45538e+06
5.35395e+06
5.26272e+06
5.18116e+06
5.10912e+06
5.04533e+06
4.99048e+06
4.94308e+06
4.90346e+06
4.68492e+06
3.98305e+06
3.96402e+06
3.97668e+06
3.99438e+06
4.01719e+06
4.06645e+06
4.14599e+06
4.24367e+06
4.34677e+06
4.45521e+06
4.56883e+06
4.68696e+06
4.80945e+06
4.93619e+06
5.06663e+06
5.20058e+06
5.33799e+06
5.47852e+06
5.62155e+06
5.7685e+06
5.91752e+06
5.95698e+06
5.9722e+06
6.02657e+06
6.08196e+06
6.10324e+06
6.08568e+06
6.06934e+06
6.04596e+06
6.02245e+06
5.99964e+06
5.98091e+06
5.96406e+06
5.95012e+06
5.91751e+06
5.8727e+06
5.7146e+06
5.50339e+06
5.31912e+06
5.13743e+06
4.95742e+06
4.72147e+06
4.47561e+06
4.24095e+06
4.09162e+06
3.94312e+06
3.79667e+06
3.65621e+06
3.51722e+06
3.47735e+06
3.49188e+06
3.50876e+06
3.52695e+06
3.54732e+06
3.58078e+06
3.62396e+06
3.67177e+06
3.71945e+06
3.76683e+06
3.85209e+06
3.95163e+06
4.05102e+06
4.12568e+06
4.19751e+06
5.91899e+06
7.47998e+06
7.96179e+06
8.40612e+06
8.82351e+06
9.12772e+06
9.37969e+06
9.68037e+06
9.84227e+06
9.99606e+06
1.01456e+07
1.02681e+07
1.03425e+07
1.04021e+07
1.02138e+07
1.00356e+07
9.81748e+06
9.5748e+06
9.44282e+06
9.25252e+06
9.04234e+06
8.85274e+06
8.68281e+06
8.53157e+06
8.39789e+06
8.28089e+06
8.17959e+06
8.0931e+06
8.02127e+06
7.96239e+06
7.91702e+06
7.88306e+06
7.86088e+06
7.84931e+06
7.83057e+06
7.34205e+06
7.00243e+06
6.96377e+06
6.92835e+06
6.8957e+06
6.86586e+06
6.84013e+06
6.80886e+06
6.76412e+06
6.72034e+06
6.678e+06
6.63726e+06
6.59809e+06
6.56024e+06
6.52163e+06
6.48348e+06
6.4465e+06
6.41066e+06
6.37601e+06
6.34245e+06
6.27685e+06
6.11728e+06
6.00192e+06
5.89126e+06
5.73569e+06
5.54083e+06
5.35809e+06
5.16905e+06
4.92481e+06
4.68088e+06
4.43737e+06
4.19439e+06
3.95209e+06
3.77166e+06
3.62681e+06
3.48239e+06
3.3413e+06
3.35262e+06
3.36703e+06
3.38097e+06
3.39721e+06
3.43937e+06
3.48616e+06
3.52987e+06
3.56683e+06
3.6081e+06
3.65117e+06
3.69383e+06
3.74996e+06
3.84758e+06
3.94441e+06
4.02391e+06
4.09178e+06
4.15888e+06
4.22523e+06
4.29084e+06
4.27212e+06
4.2469e+06
4.2217e+06
4.19653e+06
4.17132e+06
4.14631e+06
4.12109e+06
4.09575e+06
4.06813e+06
4.94148e+06
6.3785e+06
6.43373e+06
6.48349e+06
6.54559e+06
6.60492e+06
6.86131e+06
7.11981e+06
7.38842e+06
7.63819e+06
7.83725e+06
8.00009e+06
8.14705e+06
8.28517e+06
8.40294e+06
8.48691e+06
8.54046e+06
8.67231e+06
8.76209e+06
8.7579e+06
8.74972e+06
8.73014e+06
8.69991e+06
8.65962e+06
8.61011e+06
8.55149e+06
8.48483e+06
8.40952e+06
8.3275e+06
8.23786e+06
8.14213e+06
8.04012e+06
7.9323e+06
7.81906e+06
7.61302e+06
6.89596e+06
6.76877e+06
6.6587e+06
6.54539e+06
6.42896e+06
6.30924e+06
6.18286e+06
5.9986e+06
5.80799e+06
5.61432e+06
5.41736e+06
5.21719e+06
5.01437e+06
4.80911e+06
4.60149e+06
4.39196e+06
4.18077e+06
3.96794e+06
3.75371e+06
3.53846e+06
3.33557e+06
3.19901e+06
3.20266e+06
3.22984e+06
3.22144e+06
3.21128e+06
3.2261e+06
3.24816e+06
3.27033e+06
3.29518e+06
3.32095e+06
3.34679e+06
3.37142e+06
3.39644e+06
3.42251e+06
3.46727e+06
3.51435e+06
3.61656e+06
3.71974e+06
3.79634e+06
3.87134e+06
3.94565e+06
4.01924e+06
4.09209e+06
4.15457e+06
4.13246e+06
4.11026e+06
4.088e+06
4.06568e+06
4.04331e+06
4.02089e+06
3.9984e+06
3.97567e+06
3.95195e+06
3.92824e+06
3.90454e+06
3.88086e+06
3.8572e+06
3.83355e+06
3.80992e+06
3.78623e+06
3.7627e+06
3.739e+06
3.71513e+06
3.68716e+06
4.38587e+06
5.94783e+06
5.87569e+06
5.78861e+06
5.71118e+06
5.60632e+06
5.54675e+06
5.52807e+06
5.5182e+06
5.45844e+06
5.38592e+06
5.32176e+06
5.28262e+06
5.24141e+06
5.19723e+06
5.16128e+06
5.25924e+06
5.39696e+06
5.42973e+06
5.44338e+06
5.43559e+06
5.41104e+06
5.37394e+06
5.32442e+06
5.26387e+06
5.19176e+06
5.10971e+06
5.0168e+06
4.91467e+06
4.80334e+06
4.68335e+06
4.55531e+06
4.41974e+06
4.27742e+06
3.93308e+06
3.5648e+06
3.49516e+06
3.43071e+06
3.36531e+06
3.29945e+06
3.2328e+06
3.16412e+06
3.10492e+06
3.07561e+06
3.09677e+06
3.1183e+06
3.14012e+06
3.1621e+06
3.18438e+06
3.20901e+06
3.23471e+06
3.26061e+06
3.28677e+06
3.31309e+06
3.37449e+06
3.45221e+06
3.53204e+06
3.56738e+06
3.59925e+06
3.67497e+06
3.74931e+06
3.79952e+06
3.84966e+06
3.89973e+06
3.94969e+06
3.99957e+06
4.04933e+06
4.09898e+06
4.11312e+06
4.09401e+06
4.07509e+06
4.05635e+06
4.0378e+06
4.01944e+06
4.00126e+06
3.98324e+06
3.9654e+06
3.94773e+06
3.93153e+06
3.91559e+06
3.89977e+06
3.88408e+06
3.86852e+06
3.85308e+06
3.83777e+06
3.82259e+06
3.80753e+06
3.79262e+06
3.77783e+06
3.76314e+06
3.74857e+06
3.73412e+06
3.71981e+06
3.70563e+06
3.69157e+06
3.67762e+06
3.66379e+06
3.65007e+06
3.63643e+06
3.61965e+06
4.19644e+06
5.72837e+06
5.57762e+06
5.41633e+06
5.26783e+06
5.12478e+06
5.02172e+06
4.93247e+06
4.84713e+06
4.76456e+06
4.68426e+06
4.60694e+06
4.53082e+06
4.45651e+06
4.4215e+06
4.47237e+06
4.51063e+06
4.45332e+06
4.38432e+06
4.30437e+06
4.22053e+06
4.13891e+06
4.05985e+06
3.98253e+06
3.90804e+06
3.8351e+06
3.7645e+06
3.69549e+06
3.6282e+06
3.59306e+06
3.58342e+06
3.57652e+06
3.57174e+06
3.56997e+06
3.37145e+06
3.38192e+06
3.39258e+06
3.41187e+06
3.43173e+06
3.45192e+06
3.47273e+06
3.49764e+06
3.55393e+06
3.60321e+06
3.65273e+06
3.69952e+06
3.7466e+06
3.79392e+06
3.84143e+06
3.8891e+06
3.93694e+06
3.98485e+06
4.03447e+06
4.13891e+06
4.24306e+06
4.33087e+06
4.34824e+06
4.32675e+06
4.30544e+06
4.28436e+06
4.26347e+06
4.24278e+06
4.22229e+06
4.20199e+06
4.18189e+06
4.162e+06
4.14233e+06
4.12284e+06
3.98803e+06
3.85223e+06
3.72012e+06
3.59159e+06
3.46654e+06
3.34484e+06
3.2264e+06
3.1111e+06
2.99887e+06
2.88963e+06
2.78327e+06
2.67973e+06
2.57895e+06
2.48084e+06
2.38536e+06
2.29244e+06
2.20201e+06
2.11402e+06
2.02843e+06
1.94538e+06
1.86554e+06
1.78796e+06
1.71259e+06
1.6394e+06
1.56835e+06
1.49942e+06
1.43266e+06
1.36777e+06
1.30556e+06
1.24421e+06
1.18685e+06
1.12242e+06
4.21594e+06
5.73499e+06
5.58365e+06
5.42142e+06
5.27223e+06
5.12898e+06
4.99318e+06
4.8631e+06
4.74012e+06
4.62268e+06
4.51017e+06
4.40368e+06
4.33264e+06
4.34317e+06
4.41647e+06
4.45582e+06
4.40657e+06
4.36337e+06
4.32585e+06
4.29362e+06
4.26657e+06
4.24394e+06
4.2263e+06
4.21229e+06
4.20289e+06
4.19717e+06
4.19509e+06
4.19656e+06
4.21778e+06
4.25442e+06
4.27677e+06
4.2898e+06
4.30491e+06
4.32222e+06
4.17846e+06
4.1616e+06
4.18561e+06
4.22679e+06
4.26859e+06
4.31065e+06
4.35299e+06
4.39575e+06
4.43878e+06
4.46696e+06
4.44441e+06
4.34577e+06
4.1579e+06
3.97695e+06
3.80255e+06
3.63445e+06
3.47251e+06
3.31789e+06
3.17431e+06
3.0371e+06
2.86535e+06
2.68187e+06
2.50479e+06
2.33397e+06
2.16929e+06
2.01067e+06
1.85807e+06
1.71145e+06
1.57086e+06
1.43643e+06
1.3084e+06
1.18713e+06
1.07313e+06
962783
891527
810855
741447
686904
649156
629461
627880
643071
672597
713547
763086
818786
878707
941398
1.00576e+06
1.07102e+06
1.13657e+06
1.202e+06
1.26696e+06
1.33122e+06
1.39459e+06
1.45693e+06
1.51818e+06
1.57826e+06
1.63716e+06
1.69482e+06
1.75122e+06
1.80652e+06
1.86002e+06
1.91358e+06
1.96365e+06
2.03003e+06
4.56636e+06
6.01961e+06
5.90265e+06
5.77888e+06
5.66886e+06
5.56671e+06
5.47397e+06
5.38861e+06
5.31112e+06
5.24112e+06
5.17798e+06
5.14656e+06
5.20591e+06
5.29799e+06
5.31832e+06
5.27762e+06
5.24201e+06
5.21156e+06
5.18591e+06
5.16457e+06
5.14767e+06
5.13425e+06
5.12495e+06
5.11891e+06
5.11616e+06
5.11671e+06
5.11998e+06
5.126e+06
5.13434e+06
5.11253e+06
5.06651e+06
5.02169e+06
4.83197e+06
4.23464e+06
3.48682e+06
2.99611e+06
2.71013e+06
2.46627e+06
2.2337e+06
2.01267e+06
1.80299e+06
1.60489e+06
1.41888e+06
1.24567e+06
1.07122e+06
920369
814410
719504
655511
626977
633324
668200
726434
835469
962342
1.09801e+06
1.2373e+06
1.37722e+06
1.516e+06
1.65259e+06
1.78639e+06
1.91708e+06
2.04444e+06
2.16833e+06
2.28876e+06
2.40573e+06
2.51933e+06
2.62958e+06
2.62301e+06
2.61179e+06
2.60062e+06
2.5895e+06
2.57843e+06
2.56741e+06
2.55645e+06
2.54557e+06
2.53476e+06
2.52403e+06
2.51338e+06
2.50279e+06
2.49228e+06
2.48182e+06
2.47144e+06
2.46112e+06
2.45089e+06
2.44076e+06
2.43072e+06
2.42076e+06
2.41088e+06
2.40107e+06
2.39134e+06
2.38169e+06
2.37213e+06
2.36267e+06
2.35331e+06
2.34397e+06
2.3348e+06
2.32564e+06
2.31655e+06
2.30594e+06
5.35129e+06
6.68516e+06
6.58887e+06
6.49003e+06
6.40197e+06
6.32135e+06
6.24918e+06
6.18327e+06
6.12452e+06
6.07206e+06
6.02535e+06
6.05795e+06
6.12073e+06
6.09227e+06
6.01205e+06
5.93514e+06
5.86103e+06
5.78987e+06
5.72151e+06
5.6555e+06
5.59186e+06
5.53027e+06
5.47039e+06
5.41294e+06
5.35728e+06
5.30355e+06
5.25114e+06
4.693e+06
4.00383e+06
3.3728e+06
2.81353e+06
2.22062e+06
1.34215e+06
776419
860354
1.05906e+06
1.27959e+06
1.48999e+06
1.69735e+06
1.89908e+06
2.09418e+06
2.28225e+06
2.46303e+06
2.63658e+06
2.8031e+06
2.8875e+06
2.87672e+06
2.86581e+06
2.85479e+06
2.83986e+06
2.82444e+06
2.81061e+06
2.79931e+06
2.78796e+06
2.77656e+06
2.76405e+06
2.71235e+06
2.66274e+06
2.61514e+06
2.5695e+06
2.52572e+06
2.48372e+06
2.44341e+06
2.40469e+06
2.36758e+06
2.33196e+06
2.2978e+06
2.26502e+06
2.23356e+06
2.20339e+06
2.17445e+06
2.1467e+06
2.12011e+06
2.09463e+06
2.07023e+06
2.04683e+06
2.0244e+06
2.0029e+06
1.98233e+06
1.96265e+06
1.94383e+06
1.92584e+06
1.90863e+06
1.89217e+06
1.87643e+06
1.86141e+06
1.84709e+06
1.83344e+06
1.82045e+06
1.80809e+06
1.79634e+06
1.78516e+06
1.77455e+06
1.76448e+06
1.75498e+06
1.7459e+06
1.73751e+06
1.72931e+06
1.72198e+06
1.68451e+06
5.7872e+06
7.0266e+06
6.90871e+06
6.78488e+06
6.66984e+06
6.55977e+06
6.45562e+06
6.35564e+06
6.26048e+06
6.16921e+06
6.14469e+06
6.20405e+06
6.183e+06
6.09835e+06
6.01674e+06