/*--------------------------------*- C++ -*----------------------------------*\
| =========                 |                                                 |
| \\      /  F ield         | foam-extend: Open Source CFD                    |
|  \\    /   O peration     | Version:     4.1                                |
|   \\  /    A nd           | Web:         http://www.foam-extend.org         |
|    \\/     M anipulation  |                                                 |
\*---------------------------------------------------------------------------*/
FoamFile
{
    version     2.0;
    format      ascii;
    class       volScalarField;
    location    "10";
    object      epsilonEq;
}
// * * * * * * * * * * * * * * * * * * * * * * * * * * * * * * * * * * * * * //

dimensions      [0 0 0 0 0 0 0];

internalField   nonuniform List<scalar> 
1000
(
4.60855e-06
5.25482e-06
5.77193e-06
6.16355e-06
6.34554e-06
6.41664e-06
6.40591e-06
6.346e-06
6.26543e-06
6.15248e-06
5.76876e-06
5.86217e-06
6.08815e-06
6.33154e-06
6.43382e-06
6.46132e-06
6.42405e-06
6.35195e-06
6.25197e-06
6.14967e-06
6.89937e-06
6.46517e-06
6.37025e-06
6.4358e-06
6.43904e-06
6.41085e-06
6.34053e-06
6.25024e-06
6.13622e-06
6.0302e-06
7.96564e-06
7.04243e-06
6.61766e-06
6.48569e-06
6.37466e-06
6.28132e-06
6.17298e-06
6.06286e-06
5.93672e-06
5.82969e-06
8.9377e-06
7.57442e-06
6.82935e-06
6.49133e-06
6.25582e-06
6.08975e-06
5.9397e-06
5.80798e-06
5.67247e-06
5.56419e-06
9.78959e-06
8.04441e-06
7.00532e-06
6.46565e-06
6.10245e-06
5.85946e-06
5.66498e-06
5.51009e-06
5.366e-06
5.25555e-06
1.0499e-05
8.438e-06
7.14551e-06
6.42212e-06
5.93692e-06
5.6177e-06
5.37842e-06
5.19949e-06
5.04736e-06
4.9332e-06
1.10475e-05
8.74374e-06
7.25054e-06
6.37478e-06
5.78374e-06
5.39579e-06
5.11505e-06
4.91309e-06
4.75344e-06
4.63448e-06
1.14211e-05
8.95253e-06
7.32022e-06
6.33523e-06
5.66542e-06
5.22455e-06
4.91101e-06
4.69023e-06
4.52441e-06
4.40079e-06
1.16083e-05
9.0561e-06
7.35174e-06
6.30913e-06
5.59677e-06
5.12665e-06
4.79465e-06
4.56309e-06
4.39368e-06
4.26732e-06
4.23353e-06
2.8046e-06
2.00842e-06
1.67762e-06
1.55843e-06
1.58133e-06
1.66671e-06
1.78999e-06
1.92298e-06
2.05801e-06
4.05579e-06
2.7943e-06
2.19122e-06
2.01673e-06
1.98415e-06
2.03291e-06
2.10871e-06
2.20526e-06
2.30218e-06
2.40973e-06
3.69879e-06
2.77987e-06
2.5031e-06
2.53769e-06
2.6045e-06
2.68412e-06
2.75306e-06
2.82298e-06
2.87958e-06
2.95532e-06
3.18488e-06
2.79023e-06
2.89591e-06
3.12678e-06
3.27867e-06
3.38596e-06
3.45138e-06
3.50058e-06
3.52345e-06
3.5714e-06
2.55002e-06
2.85841e-06
3.32919e-06
3.72017e-06
3.9385e-06
4.06749e-06
4.1301e-06
4.16233e-06
4.15775e-06
4.18156e-06
1.87588e-06
3.01543e-06
3.77521e-06
4.28277e-06
4.54811e-06
4.69138e-06
4.7501e-06
4.76707e-06
4.73991e-06
4.7417e-06
1.40231e-06
3.28102e-06
4.21715e-06
4.79492e-06
5.08713e-06
5.23632e-06
5.28897e-06
5.29153e-06
5.24583e-06
5.22692e-06
1.59387e-06
3.65609e-06
4.6436e-06
5.24381e-06
5.54165e-06
5.68714e-06
5.73087e-06
5.71887e-06
5.65939e-06
5.61971e-06
2.40384e-06
4.12625e-06
5.04788e-06
5.62323e-06
5.90492e-06
6.03702e-06
6.06811e-06
6.04259e-06
5.97297e-06
5.91704e-06
3.46341e-06
4.66781e-06
5.42478e-06
5.92904e-06
6.17148e-06
6.27772e-06
6.29001e-06
6.24598e-06
6.17258e-06
6.08502e-06
2.19628e-06
2.31142e-06
2.42021e-06
2.51918e-06
2.6063e-06
2.68282e-06
2.74782e-06
2.80181e-06
2.84458e-06
2.87621e-06
2.89643e-06
2.90505e-06
2.90136e-06
2.88509e-06
2.85446e-06
2.81003e-06
2.74713e-06
2.67063e-06
2.56611e-06
2.45768e-06
2.49785e-06
2.55661e-06
2.62373e-06
2.68778e-06
2.74678e-06
2.80035e-06
2.8466e-06
2.88517e-06
2.91523e-06
2.93629e-06
2.94772e-06
2.94899e-06
2.93913e-06
2.9177e-06
2.88281e-06
2.83487e-06
2.76921e-06
2.69062e-06
2.58493e-06
2.47607e-06
2.97836e-06
2.95962e-06
2.96539e-06
2.97629e-06
2.99067e-06
3.00683e-06
3.02179e-06
3.03416e-06
3.0423e-06
3.04494e-06
3.04092e-06
3.02917e-06
3.0084e-06
2.97783e-06
2.93538e-06
2.88127e-06
2.81086e-06
2.72876e-06
2.62133e-06
2.51202e-06
3.53485e-06
3.44223e-06
3.38476e-06
3.33899e-06
3.30342e-06
3.27619e-06
3.25374e-06
3.23388e-06
3.21447e-06
3.19352e-06
3.16937e-06
3.14046e-06
3.10515e-06
3.0623e-06
3.00966e-06
2.94723e-06
2.87046e-06
2.78375e-06
2.67424e-06
2.56473e-06
4.09598e-06
3.94327e-06
3.82938e-06
3.73188e-06
3.64859e-06
3.57831e-06
3.51769e-06
3.46396e-06
3.415e-06
3.36821e-06
3.32171e-06
3.2735e-06
3.22166e-06
3.16477e-06
3.10046e-06
3.02851e-06
2.94457e-06
2.85283e-06
2.7415e-06
2.6325e-06
4.61799e-06
4.42259e-06
4.26323e-06
4.12303e-06
3.99894e-06
3.89008e-06
3.79443e-06
3.70854e-06
3.63084e-06
3.55831e-06
3.4891e-06
3.42093e-06
3.35179e-06
3.28008e-06
3.20338e-06
3.12137e-06
3.03e-06
2.93328e-06
2.82078e-06
2.71349e-06
5.07562e-06
4.85516e-06
4.66311e-06
4.48916e-06
4.33264e-06
4.19074e-06
4.06459e-06
3.94983e-06
3.84584e-06
3.74943e-06
3.65886e-06
3.57177e-06
3.4861e-06
3.40016e-06
3.31162e-06
3.2201e-06
3.12198e-06
3.02113e-06
2.90871e-06
2.80459e-06
5.451e-06
5.2227e-06
5.01616e-06
4.81919e-06
4.64134e-06
4.47456e-06
4.32424e-06
4.18544e-06
4.05846e-06
3.94049e-06
3.83003e-06
3.72495e-06
3.62332e-06
3.52354e-06
3.42346e-06
3.32275e-06
3.21835e-06
3.11405e-06
3.00282e-06
2.90348e-06
5.74291e-06
5.51156e-06
5.30771e-06
5.0952e-06
4.90301e-06
4.71795e-06
4.5486e-06
4.39105e-06
4.24577e-06
4.11061e-06
3.98412e-06
3.86446e-06
3.74981e-06
3.63874e-06
3.52937e-06
3.42153e-06
3.31283e-06
3.20704e-06
3.09903e-06
3.00609e-06
5.94116e-06
5.72228e-06
5.54177e-06
5.33478e-06
5.13848e-06
4.94533e-06
4.76238e-06
4.58971e-06
4.42808e-06
4.27679e-06
4.13485e-06
4.00092e-06
3.87345e-06
3.75124e-06
3.63275e-06
3.51796e-06
3.40527e-06
3.29848e-06
3.19453e-06
3.10951e-06
6.018e-06
5.79544e-06
5.62361e-06
5.43345e-06
5.24438e-06
5.05774e-06
4.87723e-06
4.70426e-06
4.5399e-06
4.38417e-06
4.23672e-06
4.09682e-06
3.96354e-06
3.83618e-06
3.71378e-06
3.59674e-06
3.48432e-06
3.38035e-06
3.28362e-06
3.20813e-06
5.86502e-06
5.73266e-06
5.57828e-06
5.41439e-06
5.24411e-06
5.07304e-06
4.90432e-06
4.74007e-06
4.58173e-06
4.4299e-06
4.28477e-06
4.14617e-06
4.01373e-06
3.88729e-06
3.76647e-06
3.65214e-06
3.54434e-06
3.44706e-06
3.36058e-06
3.29742e-06
5.73924e-06
5.63017e-06
5.50658e-06
5.36596e-06
5.21644e-06
5.06212e-06
4.90703e-06
4.75349e-06
4.60343e-06
4.45785e-06
4.31742e-06
4.18246e-06
4.0531e-06
3.92964e-06
3.81227e-06
3.70223e-06
3.60029e-06
3.51048e-06
3.43435e-06
3.38249e-06
5.59639e-06
5.51279e-06
5.41231e-06
5.29204e-06
5.16173e-06
5.02382e-06
4.88302e-06
4.74144e-06
4.60138e-06
4.46407e-06
4.33056e-06
4.20154e-06
4.07757e-06
3.95932e-06
3.84748e-06
3.74361e-06
3.64906e-06
3.56781e-06
3.50237e-06
3.46151e-06
5.44196e-06
5.37905e-06
5.30003e-06
5.19944e-06
5.08801e-06
4.96674e-06
4.8408e-06
4.7121e-06
4.58321e-06
4.45556e-06
4.33049e-06
4.20898e-06
4.09193e-06
3.98036e-06
3.87534e-06
3.77867e-06
3.69219e-06
3.6197e-06
3.56445e-06
3.53356e-06
5.28318e-06
5.23806e-06
5.17708e-06
5.09385e-06
4.99953e-06
4.89405e-06
4.78273e-06
4.66722e-06
4.55021e-06
4.4332e-06
4.31776e-06
4.20505e-06
4.09627e-06
3.99265e-06
3.89557e-06
3.80701e-06
3.72914e-06
3.66553e-06
3.61993e-06
3.59793e-06
5.12374e-06
5.09334e-06
5.04778e-06
4.98023e-06
4.90157e-06
4.81107e-06
4.71392e-06
4.61156e-06
4.50672e-06
4.4009e-06
4.29578e-06
4.1927e-06
4.09301e-06
3.99814e-06
3.90967e-06
3.82965e-06
3.7605e-06
3.7055e-06
3.6687e-06
3.65432e-06
4.96697e-06
4.94856e-06
4.9159e-06
4.86208e-06
4.7974e-06
4.72076e-06
4.63707e-06
4.54756e-06
4.45488e-06
4.3605e-06
4.26616e-06
4.17325e-06
4.08323e-06
3.99764e-06
3.91819e-06
3.84695e-06
3.78643e-06
3.73963e-06
3.71069e-06
3.70265e-06
4.81489e-06
4.806e-06
4.78406e-06
4.74225e-06
4.69008e-06
4.62623e-06
4.55522e-06
4.47811e-06
4.39739e-06
4.31447e-06
4.23106e-06
4.14857e-06
4.06851e-06
3.99244e-06
3.92214e-06
3.85963e-06
3.80744e-06
3.76823e-06
3.74612e-06
3.74315e-06
4.66861e-06
4.66722e-06
4.65415e-06
4.62279e-06
4.58175e-06
4.52963e-06
4.4705e-06
4.40523e-06
4.33613e-06
4.26451e-06
4.192e-06
4.11997e-06
4.04994e-06
3.98343e-06
3.92221e-06
3.86822e-06
3.82391e-06
3.79162e-06
3.7753e-06
3.77618e-06
4.52861e-06
4.53317e-06
4.52746e-06
4.50523e-06
4.47417e-06
4.43283e-06
4.3848e-06
4.33081e-06
4.2729e-06
4.21229e-06
4.15049e-06
4.0888e-06
4.02867e-06
3.97156e-06
3.91919e-06
3.87335e-06
3.83636e-06
3.81024e-06
3.7987e-06
3.80234e-06
4.39492e-06
4.4043e-06
4.40484e-06
4.39073e-06
4.3687e-06
4.33731e-06
4.29967e-06
4.25636e-06
4.20918e-06
4.15919e-06
4.10779e-06
4.05616e-06
4.00566e-06
3.95766e-06
3.91376e-06
3.87559e-06
3.8453e-06
3.8246e-06
3.81689e-06
3.82229e-06
4.26726e-06
4.28097e-06
4.28689e-06
4.28011e-06
4.26642e-06
4.24431e-06
4.21644e-06
4.18325e-06
4.14629e-06
4.10648e-06
4.06505e-06
4.02309e-06
3.98182e-06
3.94249e-06
3.90657e-06
3.87552e-06
3.85126e-06
3.83525e-06
3.83049e-06
3.83679e-06
4.14541e-06
4.16291e-06
4.17404e-06
4.1743e-06
4.16844e-06
4.1551e-06
4.13644e-06
4.11281e-06
4.08551e-06
4.05534e-06
4.02337e-06
3.99055e-06
3.95798e-06
3.92679e-06
3.89827e-06
3.87371e-06
3.85481e-06
3.84276e-06
3.84016e-06
3.84665e-06
4.02891e-06
4.05113e-06
4.06686e-06
4.07381e-06
4.07567e-06
4.07073e-06
4.06083e-06
4.04625e-06
4.02803e-06
4.00689e-06
3.98373e-06
3.95942e-06
3.93491e-06
3.91119e-06
3.88942e-06
3.87069e-06
3.85645e-06
3.84769e-06
3.84656e-06
3.85264e-06
3.91848e-06
3.94366e-06
3.96572e-06
3.98061e-06
3.98975e-06
3.99293e-06
3.99126e-06
3.9851e-06
3.97528e-06
3.96241e-06
3.94728e-06
3.93066e-06
3.9134e-06
3.89638e-06
3.88058e-06
3.86695e-06
3.85669e-06
3.85059e-06
3.85035e-06
3.85558e-06
3.812e-06
3.85438e-06
3.87269e-06
3.89629e-06
3.91189e-06
3.9231e-06
3.92906e-06
3.93073e-06
3.92849e-06
3.923e-06
3.91493e-06
3.905e-06
3.894e-06
3.88272e-06
3.87205e-06
3.86276e-06
3.85583e-06
3.85185e-06
3.85207e-06
3.85614e-06
3.71466e-06
3.75409e-06
3.79095e-06
3.82023e-06
3.8445e-06
3.86317e-06
3.87666e-06
3.88531e-06
3.88968e-06
3.89036e-06
3.88806e-06
3.88352e-06
3.8775e-06
3.87079e-06
3.86419e-06
3.85837e-06
3.85413e-06
3.85184e-06
3.85233e-06
3.8552e-06
3.62495e-06
3.67473e-06
3.71884e-06
3.75691e-06
3.78954e-06
3.81571e-06
3.83598e-06
3.85062e-06
3.86027e-06
3.86559e-06
3.86739e-06
3.86652e-06
3.86385e-06
3.86022e-06
3.85647e-06
3.85323e-06
3.85115e-06
3.85039e-06
3.85132e-06
3.85325e-06
3.55089e-06
3.6113e-06
3.66584e-06
3.71303e-06
3.7532e-06
3.78588e-06
3.81149e-06
3.8304e-06
3.84336e-06
3.85118e-06
3.85487e-06
3.85546e-06
3.85403e-06
3.85159e-06
3.84911e-06
3.8473e-06
3.84678e-06
3.8475e-06
3.84953e-06
3.8515e-06
4.17658e-06
4.30083e-06
4.51859e-06
4.79867e-06
5.10328e-06
5.39786e-06
5.65471e-06
5.85429e-06
5.99008e-06
6.04219e-06
4.10075e-06
4.20983e-06
4.4029e-06
4.65555e-06
4.93696e-06
5.21777e-06
5.47315e-06
5.68008e-06
5.83112e-06
5.90269e-06
4.03931e-06
4.13476e-06
4.30434e-06
4.5283e-06
4.7811e-06
5.03799e-06
5.27988e-06
5.48703e-06
5.65844e-06
5.77018e-06
3.98848e-06
4.07159e-06
4.22012e-06
4.41834e-06
4.64523e-06
4.87921e-06
5.10383e-06
5.30042e-06
5.46855e-06
5.60326e-06
3.94307e-06
4.01524e-06
4.14479e-06
4.31921e-06
4.52135e-06
4.73317e-06
4.94098e-06
5.12913e-06
5.29173e-06
5.43428e-06
3.90193e-06
3.96455e-06
4.0774e-06
4.23047e-06
4.40953e-06
4.5994e-06
4.78786e-06
4.96354e-06
5.1164e-06
5.26118e-06
3.86238e-06
3.91672e-06
4.01498e-06
4.14922e-06
4.3076e-06
4.47767e-06
4.64805e-06
4.81099e-06
4.95227e-06
5.09159e-06
3.82329e-06
3.87046e-06
3.95598e-06
4.07354e-06
4.21309e-06
4.3646e-06
4.51731e-06
4.66681e-06
4.79664e-06
4.92777e-06
3.78322e-06
3.82422e-06
3.89877e-06
4.00182e-06
4.12481e-06
4.25968e-06
4.39622e-06
4.53226e-06
4.65061e-06
4.77149e-06
3.74112e-06
3.77683e-06
3.84189e-06
3.93227e-06
4.0406e-06
4.16043e-06
4.28225e-06
4.40533e-06
4.51296e-06
4.62317e-06
3.6959e-06
3.7271e-06
3.78405e-06
3.86354e-06
3.95916e-06
4.06568e-06
4.17438e-06
4.28527e-06
4.38291e-06
4.48266e-06
3.64659e-06
3.67394e-06
3.724e-06
3.79414e-06
3.8788e-06
3.97368e-06
4.07089e-06
4.17071e-06
4.25933e-06
4.34937e-06
3.59193e-06
3.61606e-06
3.66036e-06
3.72263e-06
3.79804e-06
3.88294e-06
3.97031e-06
4.06037e-06
4.1411e-06
4.22246e-06
3.53098e-06
3.55245e-06
3.59201e-06
3.64778e-06
3.71556e-06
3.79215e-06
3.87137e-06
3.95318e-06
4.02729e-06
4.10131e-06
3.46181e-06
3.48115e-06
3.51697e-06
3.56762e-06
3.62939e-06
3.69943e-06
3.77228e-06
3.84757e-06
3.91663e-06
3.98472e-06
3.38383e-06
3.40156e-06
3.43461e-06
3.48149e-06
3.53889e-06
3.60417e-06
3.67256e-06
3.74328e-06
3.80913e-06
3.87346e-06
3.29306e-06
3.30973e-06
3.34109e-06
3.38569e-06
3.44057e-06
3.50323e-06
3.56937e-06
3.63804e-06
3.70263e-06
3.7666e-06
3.19117e-06
3.20736e-06
3.2381e-06
3.28196e-06
3.33623e-06
3.39841e-06
3.46466e-06
3.53337e-06
3.59944e-06
3.66339e-06
3.06737e-06
3.08387e-06
3.11551e-06
3.16083e-06
3.21723e-06
3.2822e-06
3.35213e-06
3.42485e-06
3.49626e-06
3.56494e-06
2.93443e-06
2.95204e-06
2.98601e-06
3.03479e-06
3.09586e-06
3.16663e-06
3.24345e-06
3.32385e-06
3.40377e-06
3.4811e-06
)
;

boundaryField
{
    left
    {
        type            symmetryPlane;
        value           nonuniform List<scalar> 
30
(
4.17369e-06
4.09822e-06
4.03708e-06
3.98653e-06
3.94138e-06
3.90047e-06
3.86112e-06
3.82221e-06
3.78228e-06
3.74032e-06
3.69521e-06
3.646e-06
3.59144e-06
3.53057e-06
3.46148e-06
3.38358e-06
3.29289e-06
3.19106e-06
3.06732e-06
2.93443e-06
1.15833e-05
9.04792e-06
7.34988e-06
6.30905e-06
5.59654e-06
5.12567e-06
4.7929e-06
4.56074e-06
4.39099e-06
4.26431e-06
)
;
    }
    right
    {
        type            calculated;
        value           nonuniform List<scalar> 
30
(
2.45083e-06
2.46916e-06
2.50508e-06
2.55776e-06
2.62553e-06
2.70664e-06
2.79788e-06
2.89719e-06
2.99999e-06
3.10432e-06
3.2032e-06
3.29346e-06
3.37929e-06
3.45901e-06
3.53171e-06
3.59663e-06
3.6535e-06
3.70221e-06
3.743e-06
3.77626e-06
3.80257e-06
3.82261e-06
3.83716e-06
3.84702e-06
3.85298e-06
3.85587e-06
3.85636e-06
3.85537e-06
3.85336e-06
3.85174e-06
)
;
    }
    down
    {
        type            symmetryPlane;
        value           nonuniform List<scalar> 
30
(
4.2288e-06
2.80317e-06
1.99441e-06
1.64766e-06
1.51806e-06
1.53855e-06
1.6264e-06
1.75423e-06
1.89236e-06
2.03115e-06
2.17483e-06
2.29514e-06
2.40747e-06
2.50918e-06
2.59838e-06
2.67648e-06
2.74271e-06
2.79766e-06
2.84119e-06
2.87343e-06
2.89416e-06
2.9032e-06
2.89985e-06
2.88389e-06
2.85353e-06
2.80935e-06
2.74666e-06
2.67035e-06
2.56599e-06
2.45766e-06
)
;
    }
    up
    {
        type            calculated;
        value           nonuniform List<scalar> 
30
(
2.93024e-06
2.94783e-06
2.98181e-06
3.03063e-06
3.09175e-06
3.16265e-06
3.2396e-06
3.32026e-06
3.40033e-06
3.47815e-06
3.54821e-06
3.60909e-06
3.66397e-06
3.71147e-06
3.75194e-06
3.78487e-06
3.81069e-06
3.82976e-06
3.84283e-06
3.85074e-06
3.85449e-06
3.85513e-06
3.85374e-06
3.85135e-06
3.84891e-06
3.84714e-06
3.84667e-06
3.84743e-06
3.84949e-06
3.85131e-06
)
;
    }
    hole
    {
        type            calculated;
        value           nonuniform List<scalar> 
20
(
4.46734e-06
5.73298e-06
6.95097e-06
8.09181e-06
9.1277e-06
1.00332e-05
1.07861e-05
1.13676e-05
1.17633e-05
1.19622e-05
4.37523e-06
4.1748e-06
3.7732e-06
3.18304e-06
2.42013e-06
1.50391e-06
4.5791e-07
6.91562e-07
1.91581e-06
3.18474e-06
)
;
    }
    frontAndBack
    {
        type            empty;
    }
}


// ************************************************************************* //
