/*--------------------------------*- C++ -*----------------------------------*\
| =========                 |                                                 |
| \\      /  F ield         | foam-extend: Open Source CFD                    |
|  \\    /   O peration     | Version:     4.1                                |
|   \\  /    A nd           | Web:         http://www.foam-extend.org         |
|    \\/     M anipulation  |                                                 |
\*---------------------------------------------------------------------------*/
FoamFile
{
    version     2.0;
    format      ascii;
    class       volScalarField;
    location    "10";
    object      sigmaHyd;
}
// * * * * * * * * * * * * * * * * * * * * * * * * * * * * * * * * * * * * * //

dimensions      [1 -1 -2 0 0 0 0];

internalField   nonuniform List<scalar> 
1000
(
-546369
-523025
-516904
-505841
-500298
-493995
-489963
-485771
-483789
-477983
-702108
-648940
-624540
-596426
-578435
-561143
-548318
-536322
-527823
-515722
-851993
-770143
-728181
-683692
-653787
-625956
-604805
-585213
-570719
-552239
-992369
-883630
-825180
-765329
-724198
-686493
-657403
-630904
-610499
-587216
-1.11983e+06
-986665
-913240
-839449
-788132
-741476
-705182
-672443
-646644
-619239
-1.23124e+06
-1.07671e+06
-990181
-904200
-843962
-789493
-746867
-708739
-678124
-647398
-1.32386e+06
-1.15155e+06
-1.05411e+06
-957993
-890333
-829371
-781466
-738877
-704193
-670841
-1.39539e+06
-1.20937e+06
-1.10351e+06
-999566
-926172
-860202
-808204
-762186
-724308
-689016
-1.44402e+06
-1.24865e+06
-1.13704e+06
-1.02777e+06
-950465
-881082
-826292
-777942
-737865
-701286
-1.46869e+06
-1.26891e+06
-1.15463e+06
-1.04278e+06
-963560
-892474
-836272
-786731
-745520
-708273
542036
356053
233910
125612
44081.2
-26249.1
-83230.1
-132891
-174370
-212307
516731
335242
215719
110094
30538.7
-38014.9
-93518
-141924
-182204
-219435
467462
295554
181920
81744.1
6184.9
-58878.8
-111516
-157522
-195521
-231432
394898
237068
132074
39891.4
-29806.4
-89745.6
-138184
-180660
-215346
-249274
301070
161436
67626.4
-14216.6
-76338.4
-129653
-172694
-210596
-241087
-272342
188366
70535.4
-9876.14
-79311.9
-132346
-177701
-214278
-246660
-272199
-300068
59684.1
-33310.8
-98473.1
-153765
-196462
-232733
-262006
-288024
-308102
-331773
-81734.4
-147488
-195927
-235679
-267012
-293282
-314510
-333485
-347565
-366275
-232376
-269195
-299905
-323156
-342491
-358133
-371017
-382264
-390521
-402467
-388514
-395374
-407713
-413842
-420671
-425270
-429299
-432681
-434285
-439762
-243119
-272498
-298384
-322419
-344558
-365298
-384899
-403596
-421627
-439167
-456395
-473486
-490545
-507826
-525265
-543423
-561658
-581689
-600683
-624674
-248989
-276881
-301917
-325038
-346563
-366709
-385858
-404138
-421822
-439044
-455987
-472811
-489619
-506652
-523847
-541754
-559731
-579482
-598189
-621830
-258551
-283786
-307380
-328904
-349411
-368545
-386945
-404525
-421629
-438316
-454778
-471146
-487518
-504121
-520885
-538345
-555862
-575104
-593294
-616285
-272988
-294101
-315655
-334749
-353755
-371369
-388651
-405190
-421433
-437330
-453085
-468787
-484526
-500504
-516643
-533453
-550300
-568797
-586232
-608269
-292000
-307566
-326668
-342595
-359709
-375383
-391233
-406444
-421577
-436457
-451294
-466129
-481038
-496195
-511511
-527463
-543427
-560939
-577378
-598145
-315294
-323844
-340097
-352136
-366901
-380224
-394295
-407912
-421699
-435379
-449135
-462966
-476918
-491132
-505502
-520462
-535399
-551750
-567011
-586248
-342635
-343101
-356262
-364089
-376144
-386928
-398949
-410781
-423000
-435280
-447748
-460372
-473165
-486235
-499459
-513220
-526921
-541880
-555738
-573151
-372654
-364196
-373325
-376736
-385382
-393403
-403030
-412932
-423464
-434308
-445486
-456932
-468605
-480571
-492681
-505259
-517724
-531255
-543655
-559122
-405869
-389898
-393932
-393732
-398596
-403949
-410969
-418726
-427269
-436340
-445871
-455781
-465985
-476515
-487195
-498286
-509229
-521039
-531724
-544941
-433685
-415523
-410812
-406991
-407000
-409188
-413428
-419124
-426000
-433743
-442153
-451075
-460356
-469966
-479699
-489740
-499555
-509995
-519295
-530598
-460337
-446156
-434575
-427557
-424161
-423396
-424929
-428157
-432781
-438464
-444976
-452130
-459742
-467737
-475890
-484310
-492493
-501086
-508527
-517385
-471439
-457652
-446762
-439586
-435512
-433803
-434147
-436067
-439300
-443549
-448601
-454271
-460377
-466823
-473389
-480127
-486582
-493251
-498797
-505310
-482655
-468142
-457282
-449193
-444143
-441260
-440400
-441078
-443071
-446081
-449902
-454342
-459215
-464405
-469696
-475090
-480179
-485316
-489376
-493981
-488879
-474598
-464532
-456376
-451058
-447580
-445963
-445744
-446754
-448717
-451449
-454760
-458475
-462465
-466525
-470617
-474382
-478051
-480709
-483543
-491752
-478187
-469004
-460979
-455594
-451740
-449601
-448715
-448972
-450109
-451963
-454351
-457106
-460093
-463120
-466119
-468778
-471221
-472721
-474089
-491962
-479364
-471201
-463626
-458461
-454529
-452130
-450818
-450531
-451026
-452166
-453777
-455707
-457821
-459942
-461980
-463671
-465051
-465568
-465702
-489984
-478586
-471459
-464493
-459690
-455855
-453371
-451812
-451157
-451183
-451774
-452771
-454036
-455436
-456814
-458063
-458965
-459486
-459224
-458389
-486354
-476254
-470174
-463952
-459638
-456063
-453653
-452009
-451140
-450845
-451030
-451551
-452285
-453107
-453879
-454486
-454751
-454587
-453724
-452155
-481407
-472668
-467619
-462219
-458473
-455269
-453050
-451448
-450493
-450008
-449916
-450090
-450424
-450802
-451105
-451216
-450997
-450322
-449032
-446954
-475472
-468107
-464072
-459546
-456430
-453688
-451756
-450302
-449370
-448804
-448547
-448486
-448533
-448584
-448539
-448284
-447715
-446683
-445118
-442728
-468785
-462787
-459747
-456127
-453683
-451467
-449897
-448673
-447852
-447298
-446970
-446772
-446632
-446461
-446177
-445674
-444877
-443627
-441922
-439395
-461538
-456902
-454837
-452144
-450402
-448764
-447613
-446688
-446048
-445582
-445260
-445006
-444764
-444460
-444030
-443380
-442460
-441111
-439381
-436864
-453913
-450598
-449517
-447764
-446750
-445727
-445037
-444461
-444056
-443734
-443480
-443234
-442958
-442593
-442095
-441383
-440428
-439079
-437419
-435035
-445990
-444042
-443917
-443116
-442847
-442467
-442274
-442084
-441956
-441823
-441682
-441493
-441235
-440866
-440361
-439654
-438736
-437470
-435956
-433802
-437989
-437231
-438211
-438397
-438878
-439165
-439480
-439698
-439865
-439943
-439940
-439836
-439628
-439293
-438823
-438171
-437344
-436223
-434915
-433065
-429799
-430599
-432465
-433609
-434874
-435840
-436694
-437336
-437819
-438123
-438272
-438269
-438129
-437851
-437445
-436884
-436188
-435261
-434205
-432716
-421966
-424400
-426948
-429325
-431171
-432836
-434181
-435233
-436005
-436516
-436799
-436881
-436799
-436573
-436235
-435779
-435235
-434533
-433762
-432673
-413820
-417455
-421343
-424602
-427486
-429854
-431782
-433255
-434328
-435036
-435439
-435590
-435549
-435367
-435094
-434751
-434379
-433928
-433473
-432811
-406755
-411761
-416861
-421085
-424751
-427752
-430146
-431952
-433232
-434051
-434489
-434630
-434561
-434360
-434105
-433841
-433628
-433432
-433318
-433081
-398472
-405449
-411701
-417121
-421754
-425521
-428483
-430672
-432178
-433094
-433537
-433625
-433483
-433227
-432968
-432784
-432749
-432843
-433086
-433244
-676946
-671046
-660851
-645563
-625558
-601134
-572871
-541775
-508998
-477747
-648475
-644160
-636953
-626223
-612314
-595417
-575822
-553513
-528646
-495996
-622907
-619309
-613363
-604410
-592684
-578313
-561749
-543269
-524305
-501011
-599639
-596929
-592602
-586078
-577523
-566931
-554497
-540036
-524305
-504946
-578133
-575964
-572569
-567413
-560623
-552220
-542414
-531306
-519136
-505373
-558246
-556632
-554215
-550515
-545581
-539398
-531946
-523470
-513470
-503536
-539529
-538316
-536586
-533909
-530292
-525770
-520194
-514085
-506243
-499666
-521873
-521036
-519953
-518238
-515832
-512787
-508775
-504532
-498372
-494298
-504988
-504455
-503888
-502947
-501526
-499711
-497053
-494435
-489844
-487747
-488747
-488492
-488399
-488161
-487623
-486886
-485400
-484124
-480912
-480334
-472966
-472955
-473275
-473652
-473896
-474108
-473685
-473581
-471649
-472279
-457500
-457714
-458421
-459367
-460334
-461408
-461960
-462885
-462138
-463757
-442245
-442670
-443738
-445216
-446864
-448740
-450217
-452086
-452465
-454927
-426990
-427618
-429040
-431034
-433345
-435994
-438372
-441138
-442612
-445850
-411782
-412610
-414382
-416885
-419854
-423266
-426537
-430192
-432741
-436732
-396151
-397183
-399316
-402344
-405994
-410194
-414395
-418961
-422636
-427405
-380638
-381878
-384381
-387948
-392297
-397312
-402464
-408008
-412797
-418594
-363801
-365268
-368181
-372345
-377474
-383395
-389621
-396220
-402309
-408890
-348021
-349722
-353052
-357823
-363746
-370598
-377913
-385625
-392997
-400553
-328247
-330233
-334088
-339627
-346560
-354615
-363345
-372531
-381593
-390515
)
;

boundaryField
{
    left
    {
        type            symmetryPlane;
        value           nonuniform List<scalar> 
30
(
-676946
-648475
-622907
-599639
-578133
-558246
-539529
-521873
-504988
-488747
-472966
-457500
-442245
-426990
-411782
-396151
-380638
-363801
-348021
-328247
-1.46869e+06
-1.26891e+06
-1.15463e+06
-1.04278e+06
-963560
-892474
-836272
-786731
-745520
-708273
)
;
    }
    right
    {
        type            zeroGradient;
    }
    down
    {
        type            symmetryPlane;
        value           nonuniform List<scalar> 
30
(
542036
356053
233910
125612
44081.2
-26249.1
-83230.1
-132891
-174370
-212307
-243119
-272498
-298384
-322419
-344558
-365298
-384899
-403596
-421627
-439167
-456395
-473486
-490545
-507826
-525265
-543423
-561658
-581689
-600683
-624674
)
;
    }
    up
    {
        type            zeroGradient;
    }
    hole
    {
        type            zeroGradient;
    }
    frontAndBack
    {
        type            empty;
    }
}


// ************************************************************************* //
