/*--------------------------------*- C++ -*----------------------------------*\
| =========                 |                                                 |
| \\      /  F ield         | foam-extend: Open Source CFD                    |
|  \\    /   O peration     | Version:     4.1                                |
|   \\  /    A nd           | Web:         http://www.foam-extend.org         |
|    \\/     M anipulation  |                                                 |
\*---------------------------------------------------------------------------*/
FoamFile
{
    version     2.0;
    format      ascii;
    class       vectorField;
    location    "10";
    object      solidsCellD_iteration8;
}
// * * * * * * * * * * * * * * * * * * * * * * * * * * * * * * * * * * * * * //


1000
(
(5.20327e-06 -2.21693e-06 0)
(4.9084e-06 -2.06283e-06 0)
(4.71982e-06 -1.96496e-06 0)
(4.61136e-06 -1.91906e-06 0)
(4.55808e-06 -1.90284e-06 0)
(4.54509e-06 -1.90957e-06 0)
(4.56173e-06 -1.93126e-06 0)
(4.60067e-06 -1.9641e-06 0)
(4.65625e-06 -2.00446e-06 0)
(4.72453e-06 -2.05028e-06 0)
(4.7046e-06 -2.42148e-06 0)
(4.39055e-06 -2.31405e-06 0)
(4.18987e-06 -2.24571e-06 0)
(4.07253e-06 -2.2199e-06 0)
(4.01233e-06 -2.21702e-06 0)
(3.99307e-06 -2.2332e-06 0)
(4.0037e-06 -2.26165e-06 0)
(4.03636e-06 -2.29951e-06 0)
(4.08521e-06 -2.34403e-06 0)
(4.14563e-06 -2.39231e-06 0)
(4.1865e-06 -2.61534e-06 0)
(3.86563e-06 -2.5601e-06 0)
(3.66077e-06 -2.52478e-06 0)
(3.53956e-06 -2.52114e-06 0)
(3.4756e-06 -2.53276e-06 0)
(3.45202e-06 -2.55897e-06 0)
(3.45774e-06 -2.59441e-06 0)
(3.48485e-06 -2.63723e-06 0)
(3.52745e-06 -2.68569e-06 0)
(3.58103e-06 -2.73662e-06 0)
(3.65287e-06 -2.7951e-06 0)
(3.33863e-06 -2.79461e-06 0)
(3.13808e-06 -2.79394e-06 0)
(3.01835e-06 -2.81342e-06 0)
(2.95395e-06 -2.8401e-06 0)
(2.92812e-06 -2.8766e-06 0)
(2.9301e-06 -2.91907e-06 0)
(2.95224e-06 -2.96684e-06 0)
(2.989e-06 -3.01906e-06 0)
(3.03576e-06 -3.07282e-06 0)
(3.10733e-06 -2.95722e-06 0)
(2.81311e-06 -3.011e-06 0)
(2.6254e-06 -3.04469e-06 0)
(2.51267e-06 -3.08701e-06 0)
(2.45119e-06 -3.12848e-06 0)
(2.42509e-06 -3.17506e-06 0)
(2.42449e-06 -3.22433e-06 0)
(2.44219e-06 -3.27692e-06 0)
(2.47329e-06 -3.33271e-06 0)
(2.51319e-06 -3.38943e-06 0)
(2.5526e-06 -3.09838e-06 0)
(2.29139e-06 -3.20292e-06 0)
(2.12483e-06 -3.26879e-06 0)
(2.02429e-06 -3.33247e-06 0)
(1.96889e-06 -3.38775e-06 0)
(1.94442e-06 -3.4437e-06 0)
(1.94235e-06 -3.49923e-06 0)
(1.95615e-06 -3.55631e-06 0)
(1.98165e-06 -3.61536e-06 0)
(2.01449e-06 -3.67497e-06 0)
(1.99134e-06 -3.21541e-06 0)
(1.77473e-06 -3.36445e-06 0)
(1.63665e-06 -3.45853e-06 0)
(1.55299e-06 -3.54091e-06 0)
(1.50657e-06 -3.60825e-06 0)
(1.48557e-06 -3.67238e-06 0)
(1.48294e-06 -3.73338e-06 0)
(1.49322e-06 -3.79439e-06 0)
(1.51308e-06 -3.8563e-06 0)
(1.53872e-06 -3.91854e-06 0)
(1.42548e-06 -3.30569e-06 0)
(1.26321e-06 -3.49046e-06 0)
(1.15983e-06 -3.60719e-06 0)
(1.09708e-06 -3.70453e-06 0)
(1.0621e-06 -3.78158e-06 0)
(1.04599e-06 -3.85229e-06 0)
(1.04353e-06 -3.91769e-06 0)
(1.05059e-06 -3.98189e-06 0)
(1.06478e-06 -4.04607e-06 0)
(1.08314e-06 -4.1105e-06 0)
(8.56585e-07 -3.36706e-06 0)
(7.56133e-07 -3.57681e-06 0)
(6.92155e-07 -3.70937e-06 0)
(6.53209e-07 -3.81723e-06 0)
(6.31393e-07 -3.90107e-06 0)
(6.21238e-07 -3.97635e-06 0)
(6.19536e-07 -4.04484e-06 0)
(6.23678e-07 -4.11132e-06 0)
(6.32183e-07 -4.17712e-06 0)
(6.43196e-07 -4.24314e-06 0)
(2.86076e-07 -3.39797e-06 0)
(2.52036e-07 -3.62063e-06 0)
(2.30284e-07 -3.76136e-06 0)
(2.17044e-07 -3.87464e-06 0)
(2.09643e-07 -3.96198e-06 0)
(2.0614e-07 -4.03965e-06 0)
(2.05463e-07 -4.10971e-06 0)
(2.06799e-07 -4.17735e-06 0)
(2.09637e-07 -4.24399e-06 0)
(2.13296e-07 -4.31084e-06 0)
(8.12333e-06 -1.01224e-07 0)
(8.19716e-06 -7.29706e-08 0)
(8.2416e-06 -5.50446e-08 0)
(8.28945e-06 -4.4486e-08 0)
(8.34144e-06 -3.85987e-08 0)
(8.40525e-06 -3.58702e-08 0)
(8.48077e-06 -3.52612e-08 0)
(8.56888e-06 -3.60011e-08 0)
(8.66938e-06 -3.77861e-08 0)
(8.78092e-06 -3.99502e-08 0)
(8.06308e-06 -3.0366e-07 0)
(8.12465e-06 -2.20552e-07 0)
(8.16141e-06 -1.67904e-07 0)
(8.20411e-06 -1.37038e-07 0)
(8.2527e-06 -1.19945e-07 0)
(8.31407e-06 -1.12014e-07 0)
(8.38786e-06 -1.10361e-07 0)
(8.47457e-06 -1.12822e-07 0)
(8.57386e-06 -1.18218e-07 0)
(8.68412e-06 -1.24647e-07 0)
(7.94274e-06 -5.07797e-07 0)
(7.98093e-06 -3.74389e-07 0)
(8.00291e-06 -2.8995e-07 0)
(8.0358e-06 -2.40468e-07 0)
(8.07791e-06 -2.13225e-07 0)
(8.13473e-06 -2.00871e-07 0)
(8.20513e-06 -1.98556e-07 0)
(8.28912e-06 -2.02838e-07 0)
(8.38609e-06 -2.11811e-07 0)
(8.49387e-06 -2.22563e-07 0)
(7.76447e-06 -7.14513e-07 0)
(7.76943e-06 -5.38006e-07 0)
(7.77032e-06 -4.26382e-07 0)
(7.78927e-06 -3.61257e-07 0)
(7.82213e-06 -3.25573e-07 0)
(7.87241e-06 -3.09732e-07 0)
(7.93805e-06 -3.0722e-07 0)
(8.01818e-06 -3.13586e-07 0)
(8.11189e-06 -3.26172e-07 0)
(8.21621e-06 -3.41294e-07 0)
(7.53103e-06 -9.2435e-07 0)
(7.49493e-06 -7.14369e-07 0)
(7.46976e-06 -5.81581e-07 0)
(7.47142e-06 -5.04637e-07 0)
(7.49284e-06 -4.62836e-07 0)
(7.53502e-06 -4.44895e-07 0)
(7.5947e-06 -4.42942e-07 0)
(7.67001e-06 -4.51753e-07 0)
(7.75964e-06 -4.67959e-07 0)
(7.85977e-06 -4.87431e-07 0)
(7.24599e-06 -1.13741e-06 0)
(7.16339e-06 -9.05395e-07 0)
(7.10879e-06 -7.58608e-07 0)
(7.0909e-06 -6.74361e-07 0)
(7.09933e-06 -6.29226e-07 0)
(7.13226e-06 -6.1085e-07 0)
(7.18516e-06 -6.10323e-07 0)
(7.25495e-06 -6.21942e-07 0)
(7.33987e-06 -6.41774e-07 0)
(7.43528e-06 -6.65581e-07 0)
(6.91356e-06 -1.35329e-06 0)
(6.78183e-06 -1.11187e-06 0)
(6.69616e-06 -9.59045e-07 0)
(6.65761e-06 -8.72509e-07 0)
(6.65225e-06 -8.27072e-07 0)
(6.67534e-06 -8.10082e-07 0)
(6.72093e-06 -8.1196e-07 0)
(6.78478e-06 -8.26816e-07 0)
(6.86451e-06 -8.50365e-07 0)
(6.95495e-06 -8.78459e-07 0)
(6.53821e-06 -1.57096e-06 0)
(6.35778e-06 -1.33327e-06 0)
(6.24131e-06 -1.18269e-06 0)
(6.18218e-06 -1.09907e-06 0)
(6.16306e-06 -1.05649e-06 0)
(6.17617e-06 -1.04279e-06 0)
(6.21422e-06 -1.0481e-06 0)
(6.27192e-06 -1.06671e-06 0)
(6.34613e-06 -1.09408e-06 0)
(6.43147e-06 -1.12649e-06 0)
(6.1248e-06 -1.78893e-06 0)
(5.8991e-06 -1.56778e-06 0)
(5.75407e-06 -1.42759e-06 0)
(5.67568e-06 -1.35201e-06 0)
(5.64354e-06 -1.31544e-06 0)
(5.64703e-06 -1.30689e-06 0)
(5.67758e-06 -1.31671e-06 0)
(5.72907e-06 -1.33954e-06 0)
(5.79744e-06 -1.37105e-06 0)
(5.8777e-06 -1.40757e-06 0)
(5.67823e-06 -2.00512e-06 0)
(5.41356e-06 -1.81235e-06 0)
(5.24393e-06 -1.69008e-06 0)
(5.14874e-06 -1.62732e-06 0)
(5.10498e-06 -1.59968e-06 0)
(5.09965e-06 -1.59804e-06 0)
(5.1231e-06 -1.61337e-06 0)
(5.16844e-06 -1.64111e-06 0)
(5.23102e-06 -1.67696e-06 0)
(5.30586e-06 -1.71908e-06 0)
(8.90379e-06 -4.2082e-08 0)
(9.03775e-06 -4.25072e-08 0)
(9.18024e-06 -4.30271e-08 0)
(9.33076e-06 -4.33835e-08 0)
(9.48837e-06 -4.35331e-08 0)
(9.65247e-06 -4.34615e-08 0)
(9.82231e-06 -4.31099e-08 0)
(9.99724e-06 -4.25022e-08 0)
(1.01767e-05 -4.16314e-08 0)
(1.03601e-05 -4.04553e-08 0)
(1.0547e-05 -3.8931e-08 0)
(1.07367e-05 -3.70404e-08 0)
(1.09288e-05 -3.4763e-08 0)
(1.11225e-05 -3.20738e-08 0)
(1.13175e-05 -2.89264e-08 0)
(1.1513e-05 -2.52542e-08 0)
(1.17086e-05 -2.09724e-08 0)
(1.1903e-05 -1.59986e-08 0)
(1.20965e-05 -1.02145e-08 0)
(1.22858e-05 -3.58065e-09 0)
(8.8113e-06 -1.30582e-07 0)
(8.95301e-06 -1.31274e-07 0)
(9.10243e-06 -1.32293e-07 0)
(9.25898e-06 -1.32913e-07 0)
(9.42197e-06 -1.3295e-07 0)
(9.5908e-06 -1.32411e-07 0)
(9.76491e-06 -1.31156e-07 0)
(9.94371e-06 -1.29181e-07 0)
(1.01267e-05 -1.26378e-07 0)
(1.03134e-05 -1.22656e-07 0)
(1.05032e-05 -1.17949e-07 0)
(1.06956e-05 -1.12213e-07 0)
(1.08902e-05 -1.05356e-07 0)
(1.10864e-05 -9.72563e-08 0)
(1.12837e-05 -8.77597e-08 0)
(1.14814e-05 -7.66922e-08 0)
(1.16791e-05 -6.38251e-08 0)
(1.18755e-05 -4.89228e-08 0)
(1.20709e-05 -3.16201e-08 0)
(1.22622e-05 -1.17696e-08 0)
(8.62945e-06 -2.3101e-07 0)
(8.78638e-06 -2.30251e-07 0)
(8.94941e-06 -2.30188e-07 0)
(9.1177e-06 -2.29879e-07 0)
(9.29121e-06 -2.28845e-07 0)
(9.46938e-06 -2.27098e-07 0)
(9.65193e-06 -2.24306e-07 0)
(9.83829e-06 -2.20418e-07 0)
(1.00282e-05 -2.15236e-07 0)
(1.02211e-05 -2.08641e-07 0)
(1.04167e-05 -2.00525e-07 0)
(1.06145e-05 -1.90778e-07 0)
(1.08142e-05 -1.79202e-07 0)
(1.10151e-05 -1.65575e-07 0)
(1.12168e-05 -1.49646e-07 0)
(1.14188e-05 -1.31136e-07 0)
(1.16206e-05 -1.09666e-07 0)
(1.1821e-05 -8.4848e-08 0)
(1.20204e-05 -5.60701e-08 0)
(1.22156e-05 -2.30602e-08 0)
(8.36376e-06 -3.50156e-07 0)
(8.54248e-06 -3.4523e-07 0)
(8.72517e-06 -3.41614e-07 0)
(8.91056e-06 -3.38502e-07 0)
(9.09942e-06 -3.34838e-07 0)
(9.29119e-06 -3.30643e-07 0)
(9.48599e-06 -3.25292e-07 0)
(9.68343e-06 -3.18684e-07 0)
(9.88342e-06 -3.10492e-07 0)
(1.00856e-05 -3.00543e-07 0)
(1.02898e-05 -2.88635e-07 0)
(1.04955e-05 -2.74556e-07 0)
(1.07025e-05 -2.58008e-07 0)
(1.09104e-05 -2.38688e-07 0)
(1.11187e-05 -2.16249e-07 0)
(1.13269e-05 -1.90274e-07 0)
(1.15348e-05 -1.60221e-07 0)
(1.17411e-05 -1.25535e-07 0)
(1.19462e-05 -8.53384e-08 0)
(1.21471e-05 -3.92582e-08 0)
(8.0222e-06 -4.94026e-07 0)
(8.2283e-06 -4.81467e-07 0)
(8.43595e-06 -4.71151e-07 0)
(8.64301e-06 -4.62826e-07 0)
(8.85146e-06 -4.54486e-07 0)
(9.06064e-06 -4.46182e-07 0)
(9.27124e-06 -4.36924e-07 0)
(9.48295e-06 -4.26527e-07 0)
(9.69596e-06 -4.14473e-07 0)
(9.91009e-06 -4.00473e-07 0)
(1.01252e-05 -3.84217e-07 0)
(1.03412e-05 -3.6538e-07 0)
(1.05578e-05 -3.43555e-07 0)
(1.07746e-05 -3.1833e-07 0)
(1.09915e-05 -2.89242e-07 0)
(1.12078e-05 -2.55729e-07 0)
(1.14234e-05 -2.17085e-07 0)
(1.16373e-05 -1.72586e-07 0)
(1.18499e-05 -1.21075e-07 0)
(1.20582e-05 -6.20702e-08 0)
(7.61451e-06 -6.66921e-07 0)
(7.8521e-06 -6.42727e-07 0)
(8.08895e-06 -6.21981e-07 0)
(8.32153e-06 -6.0549e-07 0)
(8.55325e-06 -5.90038e-07 0)
(8.78321e-06 -5.75638e-07 0)
(9.01262e-06 -5.6087e-07 0)
(9.24142e-06 -5.45351e-07 0)
(9.47007e-06 -5.28387e-07 0)
(9.69854e-06 -5.09529e-07 0)
(9.92695e-06 -4.88312e-07 0)
(1.01552e-05 -4.64261e-07 0)
(1.03833e-05 -4.36832e-07 0)
(1.06109e-05 -4.05488e-07 0)
(1.0838e-05 -3.69618e-07 0)
(1.1064e-05 -3.28522e-07 0)
(1.1289e-05 -2.81322e-07 0)
(1.1512e-05 -2.27125e-07 0)
(1.17335e-05 -1.64492e-07 0)
(1.19508e-05 -9.27766e-08 0)
(7.15204e-06 -8.71567e-07 0)
(7.42387e-06 -8.31622e-07 0)
(7.69295e-06 -7.96712e-07 0)
(7.95395e-06 -7.68903e-07 0)
(8.21165e-06 -7.43785e-07 0)
(8.46503e-06 -7.21093e-07 0)
(8.71575e-06 -6.99084e-07 0)
(8.96397e-06 -6.77014e-07 0)
(9.21043e-06 -6.53994e-07 0)
(9.45531e-06 -6.29351e-07 0)
(9.6989e-06 -6.02429e-07 0)
(9.94127e-06 -5.7257e-07 0)
(1.01825e-05 -5.39083e-07 0)
(1.04225e-05 -5.013e-07 0)
(1.06612e-05 -4.58453e-07 0)
(1.08984e-05 -4.09698e-07 0)
(1.11342e-05 -3.53971e-07 0)
(1.13676e-05 -2.9019e-07 0)
(1.15993e-05 -2.16637e-07 0)
(1.18269e-05 -1.32489e-07 0)
(6.64628e-06 -1.1085e-06 0)
(6.95346e-06 -1.04835e-06 0)
(7.25635e-06 -9.95592e-07 0)
(7.54781e-06 -9.52952e-07 0)
(7.83353e-06 -9.15443e-07 0)
(8.11246e-06 -8.82092e-07 0)
(8.38658e-06 -8.50959e-07 0)
(8.65626e-06 -8.2083e-07 0)
(8.9224e-06 -7.90573e-07 0)
(9.18542e-06 -7.59226e-07 0)
(9.44579e-06 -7.25899e-07 0)
(9.70374e-06 -6.89726e-07 0)
(9.95949e-06 -6.49854e-07 0)
(1.02132e-05 -6.05452e-07 0)
(1.04649e-05 -5.55581e-07 0)
(1.07145e-05 -4.99229e-07 0)
(1.09621e-05 -4.35128e-07 0)
(1.1207e-05 -3.62e-07 0)
(1.145e-05 -2.77845e-07 0)
(1.16889e-05 -1.81661e-07 0)
(6.10958e-06 -1.3773e-06 0)
(6.45227e-06 -1.29312e-06 0)
(6.78905e-06 -1.22011e-06 0)
(7.11206e-06 -1.15962e-06 0)
(7.42671e-06 -1.10738e-06 0)
(7.73247e-06 -1.06124e-06 0)
(8.03121e-06 -1.01915e-06 0)
(8.32363e-06 -9.79374e-07 0)
(8.61073e-06 -9.40522e-07 0)
(8.89317e-06 -9.01321e-07 0)
(9.17153e-06 -8.60639e-07 0)
(9.44626e-06 -8.17406e-07 0)
(9.71773e-06 -7.70586e-07 0)
(9.98621e-06 -7.19167e-07 0)
(1.02519e-05 -6.62018e-07 0)
(1.05148e-05 -5.97946e-07 0)
(1.07753e-05 -5.25476e-07 0)
(1.10326e-05 -4.43131e-07 0)
(1.12877e-05 -3.48666e-07 0)
(1.15388e-05 -2.40919e-07 0)
(5.552e-06 -1.67323e-06 0)
(5.93028e-06 -1.55956e-06 0)
(6.29953e-06 -1.46388e-06 0)
(6.65489e-06 -1.38267e-06 0)
(6.99915e-06 -1.31321e-06 0)
(7.33288e-06 -1.25229e-06 0)
(7.65738e-06 -1.19761e-06 0)
(7.97367e-06 -1.147e-06 0)
(8.28279e-06 -1.09867e-06 0)
(8.5856e-06 -1.05101e-06 0)
(8.88285e-06 -1.00259e-06 0)
(9.17514e-06 -9.52103e-07 0)
(9.46305e-06 -8.98279e-07 0)
(9.74697e-06 -8.39899e-07 0)
(1.00272e-05 -7.75638e-07 0)
(1.0304e-05 -7.04115e-07 0)
(1.05777e-05 -6.23659e-07 0)
(1.08479e-05 -5.32588e-07 0)
(1.11157e-05 -4.28427e-07 0)
(1.13797e-05 -3.098e-07 0)
(5.13886e-06 -1.95617e-06 0)
(5.54072e-06 -1.8187e-06 0)
(5.92922e-06 -1.70617e-06 0)
(6.30424e-06 -1.60862e-06 0)
(6.66694e-06 -1.52413e-06 0)
(7.01827e-06 -1.44947e-06 0)
(7.35939e-06 -1.38223e-06 0)
(7.69132e-06 -1.32018e-06 0)
(8.01505e-06 -1.26141e-06 0)
(8.33145e-06 -1.20414e-06 0)
(8.6413e-06 -1.14681e-06 0)
(8.94528e-06 -1.08795e-06 0)
(9.24401e-06 -1.02618e-06 0)
(9.53799e-06 -9.60127e-07 0)
(9.82763e-06 -8.88346e-07 0)
(1.01132e-05 -8.09339e-07 0)
(1.03952e-05 -7.21361e-07 0)
(1.06736e-05 -6.22628e-07 0)
(1.09494e-05 -5.10622e-07 0)
(1.12216e-05 -3.83889e-07 0)
(4.90213e-06 -2.18563e-06 0)
(5.30659e-06 -2.04281e-06 0)
(5.6983e-06 -1.9208e-06 0)
(6.0783e-06 -1.81319e-06 0)
(6.44677e-06 -1.71819e-06 0)
(6.80432e-06 -1.63308e-06 0)
(7.15178e-06 -1.55562e-06 0)
(7.48996e-06 -1.48372e-06 0)
(7.81967e-06 -1.41551e-06 0)
(8.14167e-06 -1.34925e-06 0)
(8.4567e-06 -1.28338e-06 0)
(8.76542e-06 -1.21641e-06 0)
(9.06843e-06 -1.14693e-06 0)
(9.36626e-06 -1.07353e-06 0)
(9.65933e-06 -9.94748e-07 0)
(9.94806e-06 -9.0908e-07 0)
(1.02329e-05 -8.14822e-07 0)
(1.05141e-05 -7.10224e-07 0)
(1.07927e-05 -5.92888e-07 0)
(1.1068e-05 -4.61414e-07 0)
(4.69919e-06 -2.40612e-06 0)
(5.0997e-06 -2.25997e-06 0)
(5.49072e-06 -2.13179e-06 0)
(5.87153e-06 -2.01649e-06 0)
(6.24218e-06 -1.91278e-06 0)
(6.60273e-06 -1.81853e-06 0)
(6.95378e-06 -1.73176e-06 0)
(7.2958e-06 -1.65064e-06 0)
(7.62944e-06 -1.5734e-06 0)
(7.95533e-06 -1.49842e-06 0)
(8.27412e-06 -1.42418e-06 0)
(8.58638e-06 -1.34922e-06 0)
(8.8927e-06 -1.27212e-06 0)
(9.19358e-06 -1.19147e-06 0)
(9.48948e-06 -1.10586e-06 0)
(9.78088e-06 -1.01377e-06 0)
(1.00683e-05 -9.13588e-07 0)
(1.03521e-05 -8.03635e-07 0)
(1.06332e-05 -6.81665e-07 0)
(1.09114e-05 -5.46372e-07 0)
(4.51998e-06 -2.61856e-06 0)
(4.91471e-06 -2.47074e-06 0)
(5.30234e-06 -2.33792e-06 0)
(5.68125e-06 -2.21632e-06 0)
(6.05145e-06 -2.10516e-06 0)
(6.41259e-06 -2.00281e-06 0)
(6.76501e-06 -1.90762e-06 0)
(7.10893e-06 -1.81798e-06 0)
(7.44482e-06 -1.7323e-06 0)
(7.77314e-06 -1.64909e-06 0)
(8.09444e-06 -1.56689e-06 0)
(8.40921e-06 -1.4843e-06 0)
(8.71797e-06 -1.39992e-06 0)
(9.02122e-06 -1.3124e-06 0)
(9.31939e-06 -1.22035e-06 0)
(9.61303e-06 -1.12231e-06 0)
(9.90266e-06 -1.01676e-06 0)
(1.01887e-05 -9.02124e-07 0)
(1.04722e-05 -7.76329e-07 0)
(1.07532e-05 -6.38219e-07 0)
(4.36181e-06 -2.8221e-06 0)
(4.74917e-06 -2.67381e-06 0)
(5.13144e-06 -2.53793e-06 0)
(5.50642e-06 -2.41158e-06 0)
(5.87413e-06 -2.2944e-06 0)
(6.23389e-06 -2.18517e-06 0)
(6.58585e-06 -2.08258e-06 0)
(6.92999e-06 -1.98528e-06 0)
(7.26662e-06 -1.89187e-06 0)
(7.59607e-06 -1.80101e-06 0)
(7.91875e-06 -1.71134e-06 0)
(8.23505e-06 -1.62153e-06 0)
(8.54545e-06 -1.53027e-06 0)
(8.8504e-06 -1.43626e-06 0)
(9.15032e-06 -1.33816e-06 0)
(9.44577e-06 -1.23461e-06 0)
(9.73726e-06 -1.12419e-06 0)
(1.00253e-05 -1.00544e-06 0)
(1.03109e-05 -8.7651e-07 0)
(1.05944e-05 -7.36436e-07 0)
(4.22099e-06 -3.01683e-06 0)
(4.60015e-06 -2.869e-06 0)
(4.97587e-06 -2.73121e-06 0)
(5.34552e-06 -2.6013e-06 0)
(5.70924e-06 -2.47926e-06 0)
(6.06611e-06 -2.36424e-06 0)
(6.41611e-06 -2.25524e-06 0)
(6.75909e-06 -2.15115e-06 0)
(7.09521e-06 -2.05078e-06 0)
(7.42465e-06 -1.95293e-06 0)
(7.7477e-06 -1.85638e-06 0)
(8.06467e-06 -1.75991e-06 0)
(8.37598e-06 -1.66227e-06 0)
(8.682e-06 -1.56225e-06 0)
(8.98316e-06 -1.45859e-06 0)
(9.28e-06 -1.35005e-06 0)
(9.57302e-06 -1.2353e-06 0)
(9.86282e-06 -1.11303e-06 0)
(1.01503e-05 -9.8164e-07 0)
(1.0436e-05 -8.40352e-07 0)
(4.09469e-06 -3.20304e-06 0)
(4.46518e-06 -3.05632e-06 0)
(4.83353e-06 -2.91751e-06 0)
(5.19692e-06 -2.78506e-06 0)
(5.55558e-06 -2.65924e-06 0)
(5.90842e-06 -2.53945e-06 0)
(6.25535e-06 -2.42499e-06 0)
(6.59608e-06 -2.31499e-06 0)
(6.93064e-06 -2.20844e-06 0)
(7.25912e-06 -2.10432e-06 0)
(7.58169e-06 -2.00154e-06 0)
(7.89857e-06 -1.89897e-06 0)
(8.21013e-06 -1.79549e-06 0)
(8.51668e-06 -1.68998e-06 0)
(8.81862e-06 -1.58126e-06 0)
(9.11646e-06 -1.46822e-06 0)
(9.41068e-06 -1.34966e-06 0)
(9.70193e-06 -1.22444e-06 0)
(9.99101e-06 -1.09119e-06 0)
(1.02787e-05 -9.49267e-07 0)
(3.98026e-06 -3.38112e-06 0)
(4.34194e-06 -3.23596e-06 0)
(4.70246e-06 -3.09681e-06 0)
(5.05904e-06 -2.96264e-06 0)
(5.41189e-06 -2.8339e-06 0)
(5.75989e-06 -2.71024e-06 0)
(6.1029e-06 -2.5912e-06 0)
(6.44052e-06 -2.47611e-06 0)
(6.77271e-06 -2.36417e-06 0)
(7.09943e-06 -2.25449e-06 0)
(7.42081e-06 -2.14614e-06 0)
(7.73697e-06 -2.0381e-06 0)
(8.04822e-06 -1.92935e-06 0)
(8.35482e-06 -1.81889e-06 0)
(8.65713e-06 -1.70565e-06 0)
(8.95563e-06 -1.58863e-06 0)
(9.25076e-06 -1.46679e-06 0)
(9.5432e-06 -1.33914e-06 0)
(9.83366e-06 -1.20456e-06 0)
(1.0123e-05 -1.06245e-06 0)
(3.87536e-06 -3.55162e-06 0)
(4.22827e-06 -3.40828e-06 0)
(4.58077e-06 -3.26929e-06 0)
(4.93022e-06 -3.13404e-06 0)
(5.2768e-06 -3.00311e-06 0)
(5.61943e-06 -2.87636e-06 0)
(5.95792e-06 -2.75353e-06 0)
(6.29182e-06 -2.63414e-06 0)
(6.62099e-06 -2.51754e-06 0)
(6.94537e-06 -2.40301e-06 0)
(7.26499e-06 -2.28975e-06 0)
(7.57992e-06 -2.17687e-06 0)
(7.89041e-06 -2.06344e-06 0)
(8.19666e-06 -1.94859e-06 0)
(8.49899e-06 -1.83137e-06 0)
(8.79785e-06 -1.71089e-06 0)
(9.09364e-06 -1.58627e-06 0)
(9.38703e-06 -1.45666e-06 0)
(9.6786e-06 -1.32116e-06 0)
(9.96931e-06 -1.17928e-06 0)
(3.77791e-06 -3.71508e-06 0)
(4.1222e-06 -3.57369e-06 0)
(4.46669e-06 -3.4352e-06 0)
(4.80888e-06 -3.29937e-06 0)
(5.14896e-06 -3.16685e-06 0)
(5.48591e-06 -3.03767e-06 0)
(5.81949e-06 -2.91175e-06 0)
(6.14923e-06 -2.78877e-06 0)
(6.47497e-06 -2.66822e-06 0)
(6.79656e-06 -2.54953e-06 0)
(7.114e-06 -2.43202e-06 0)
(7.42731e-06 -2.31491e-06 0)
(7.73668e-06 -2.1974e-06 0)
(8.04225e-06 -2.07873e-06 0)
(8.34432e-06 -1.95804e-06 0)
(8.64328e-06 -1.83461e-06 0)
(8.93949e-06 -1.70768e-06 0)
(9.23359e-06 -1.57653e-06 0)
(9.52607e-06 -1.44043e-06 0)
(9.81791e-06 -1.29913e-06 0)
(3.68605e-06 -3.87208e-06 0)
(4.02199e-06 -3.73266e-06 0)
(4.35859e-06 -3.59491e-06 0)
(4.69354e-06 -3.45885e-06 0)
(5.02707e-06 -3.32523e-06 0)
(5.35818e-06 -3.19419e-06 0)
(5.68665e-06 -3.06581e-06 0)
(6.01198e-06 -2.93988e-06 0)
(6.33398e-06 -2.81604e-06 0)
(6.65251e-06 -2.69384e-06 0)
(6.96748e-06 -2.5727e-06 0)
(7.27888e-06 -2.45197e-06 0)
(7.58685e-06 -2.33095e-06 0)
(7.89151e-06 -2.20899e-06 0)
(8.19309e-06 -2.08536e-06 0)
(8.49195e-06 -1.95945e-06 0)
(8.78838e-06 -1.83062e-06 0)
(9.08296e-06 -1.69827e-06 0)
(9.37616e-06 -1.56189e-06 0)
(9.66888e-06 -1.42135e-06 0)
(3.59816e-06 -4.02315e-06 0)
(3.92605e-06 -3.88565e-06 0)
(4.25495e-06 -3.74876e-06 0)
(4.58283e-06 -3.61276e-06 0)
(4.90986e-06 -3.47844e-06 0)
(5.23513e-06 -3.34603e-06 0)
(5.55839e-06 -3.21572e-06 0)
(5.8792e-06 -3.08744e-06 0)
(6.19733e-06 -2.96091e-06 0)
(6.51261e-06 -2.83578e-06 0)
(6.82494e-06 -2.7116e-06 0)
(7.13425e-06 -2.58782e-06 0)
(7.44067e-06 -2.46384e-06 0)
(7.74424e-06 -2.33912e-06 0)
(8.04517e-06 -2.21305e-06 0)
(8.34376e-06 -2.08509e-06 0)
(8.64025e-06 -1.95473e-06 0)
(8.93515e-06 -1.82149e-06 0)
(9.22888e-06 -1.68509e-06 0)
(9.52227e-06 -1.54539e-06 0)
(3.51275e-06 -4.16879e-06 0)
(3.83292e-06 -4.03309e-06 0)
(4.15442e-06 -3.89716e-06 0)
(4.47543e-06 -3.76143e-06 0)
(4.7961e-06 -3.62673e-06 0)
(5.11561e-06 -3.49335e-06 0)
(5.43373e-06 -3.3616e-06 0)
(5.75003e-06 -3.23146e-06 0)
(6.06427e-06 -3.1028e-06 0)
(6.37627e-06 -2.97531e-06 0)
(6.68588e-06 -2.84866e-06 0)
(6.99303e-06 -2.72237e-06 0)
(7.29778e-06 -2.59597e-06 0)
(7.60017e-06 -2.46899e-06 0)
(7.90033e-06 -2.34091e-06 0)
(8.19853e-06 -2.21129e-06 0)
(8.49491e-06 -2.07971e-06 0)
(8.79001e-06 -1.94586e-06 0)
(9.0841e-06 -1.80959e-06 0)
(9.37797e-06 -1.67082e-06 0)
(3.42844e-06 -4.30942e-06 0)
(3.74123e-06 -4.17546e-06 0)
(4.05562e-06 -4.0405e-06 0)
(4.37003e-06 -3.90519e-06 0)
(4.68458e-06 -3.77036e-06 0)
(4.99853e-06 -3.63638e-06 0)
(5.31168e-06 -3.50361e-06 0)
(5.62359e-06 -3.3721e-06 0)
(5.93403e-06 -3.2418e-06 0)
(6.24278e-06 -3.11247e-06 0)
(6.5497e-06 -2.98385e-06 0)
(6.85468e-06 -2.85557e-06 0)
(7.15775e-06 -2.72721e-06 0)
(7.45892e-06 -2.59842e-06 0)
(7.75824e-06 -2.46873e-06 0)
(8.05595e-06 -2.33778e-06 0)
(8.35215e-06 -2.20529e-06 0)
(8.64732e-06 -2.07106e-06 0)
(8.94164e-06 -1.93498e-06 0)
(9.23583e-06 -1.79716e-06 0)
(3.34381e-06 -4.44553e-06 0)
(3.6496e-06 -4.31313e-06 0)
(3.95723e-06 -4.17917e-06 0)
(4.26536e-06 -4.04442e-06 0)
(4.5741e-06 -3.9097e-06 0)
(4.88281e-06 -3.77543e-06 0)
(5.19124e-06 -3.64201e-06 0)
(5.49899e-06 -3.50955e-06 0)
(5.8058e-06 -3.37803e-06 0)
(6.11146e-06 -3.24731e-06 0)
(6.41581e-06 -3.11721e-06 0)
(6.7187e-06 -2.98741e-06 0)
(7.02015e-06 -2.85756e-06 0)
(7.3201e-06 -2.72735e-06 0)
(7.61856e-06 -2.5964e-06 0)
(7.91574e-06 -2.46445e-06 0)
(8.21172e-06 -2.3313e-06 0)
(8.50686e-06 -2.19683e-06 0)
(8.80133e-06 -2.06101e-06 0)
(9.0957e-06 -1.92406e-06 0)
(3.25754e-06 -4.57742e-06 0)
(3.55666e-06 -4.44662e-06 0)
(3.85783e-06 -4.31354e-06 0)
(4.16014e-06 -4.17943e-06 0)
(4.4635e-06 -4.04505e-06 0)
(4.76736e-06 -3.91078e-06 0)
(5.07145e-06 -3.77704e-06 0)
(5.37535e-06 -3.64401e-06 0)
(5.67882e-06 -3.51169e-06 0)
(5.98163e-06 -3.38002e-06 0)
(6.28359e-06 -3.24886e-06 0)
(6.58456e-06 -3.11795e-06 0)
(6.88447e-06 -2.98699e-06 0)
(7.18324e-06 -2.85572e-06 0)
(7.48088e-06 -2.72384e-06 0)
(7.77754e-06 -2.59116e-06 0)
(8.07326e-06 -2.45756e-06 0)
(8.36831e-06 -2.32291e-06 0)
(8.66282e-06 -2.1874e-06 0)
(8.95728e-06 -2.05122e-06 0)
(3.16824e-06 -4.70561e-06 0)
(3.46083e-06 -4.57594e-06 0)
(3.75589e-06 -4.44405e-06 0)
(4.05309e-06 -4.31085e-06 0)
(4.35156e-06 -4.17695e-06 0)
(4.65111e-06 -4.0429e-06 0)
(4.9513e-06 -3.90912e-06 0)
(5.25179e-06 -3.77583e-06 0)
(5.55231e-06 -3.64307e-06 0)
(5.85262e-06 -3.51082e-06 0)
(6.15249e-06 -3.37897e-06 0)
(6.45172e-06 -3.2473e-06 0)
(6.75025e-06 -3.11556e-06 0)
(7.04795e-06 -2.98355e-06 0)
(7.34484e-06 -2.85103e-06 0)
(7.64103e-06 -2.71784e-06 0)
(7.93647e-06 -2.5839e-06 0)
(8.23138e-06 -2.44916e-06 0)
(8.52585e-06 -2.31395e-06 0)
(8.82037e-06 -2.17842e-06 0)
(3.07375e-06 -4.82996e-06 0)
(3.36081e-06 -4.70162e-06 0)
(3.65086e-06 -4.57115e-06 0)
(3.94313e-06 -4.43889e-06 0)
(4.23736e-06 -4.3057e-06 0)
(4.53309e-06 -4.17211e-06 0)
(4.82996e-06 -4.03856e-06 0)
(5.12758e-06 -3.90531e-06 0)
(5.42565e-06 -3.77244e-06 0)
(5.72388e-06 -3.63993e-06 0)
(6.02198e-06 -3.5077e-06 0)
(6.31974e-06 -3.37558e-06 0)
(6.61708e-06 -3.24337e-06 0)
(6.91392e-06 -3.11089e-06 0)
(7.21016e-06 -2.97793e-06 0)
(7.50584e-06 -2.84441e-06 0)
(7.80094e-06 -2.71024e-06 0)
(8.09576e-06 -2.5755e-06 0)
(8.39022e-06 -2.4405e-06 0)
(8.68461e-06 -2.30548e-06 0)
(2.97288e-06 -4.95185e-06 0)
(3.25486e-06 -4.82506e-06 0)
(3.54034e-06 -4.69569e-06 0)
(3.8286e-06 -4.56446e-06 0)
(4.11935e-06 -4.43211e-06 0)
(4.41209e-06 -4.29917e-06 0)
(4.70642e-06 -4.16608e-06 0)
(5.00192e-06 -4.03309e-06 0)
(5.29816e-06 -3.90032e-06 0)
(5.5948e-06 -3.76777e-06 0)
(5.89157e-06 -3.6354e-06 0)
(6.18827e-06 -3.50306e-06 0)
(6.48474e-06 -3.37057e-06 0)
(6.78078e-06 -3.23783e-06 0)
(7.07639e-06 -3.10461e-06 0)
(7.37167e-06 -2.97083e-06 0)
(7.66652e-06 -2.83653e-06 0)
(7.96112e-06 -2.70179e-06 0)
(8.25552e-06 -2.56689e-06 0)
(8.54985e-06 -2.43223e-06 0)
(2.86428e-06 -5.07021e-06 0)
(3.14182e-06 -4.94518e-06 0)
(3.4235e-06 -4.81741e-06 0)
(3.70864e-06 -4.68753e-06 0)
(3.99684e-06 -4.55631e-06 0)
(4.28755e-06 -4.42428e-06 0)
(4.58024e-06 -4.29189e-06 0)
(4.87435e-06 -4.15941e-06 0)
(5.16945e-06 -4.02695e-06 0)
(5.4652e-06 -3.89454e-06 0)
(5.7612e-06 -3.76222e-06 0)
(6.05714e-06 -3.62985e-06 0)
(6.35292e-06 -3.49723e-06 0)
(6.64841e-06 -3.36431e-06 0)
(6.94349e-06 -3.23097e-06 0)
(7.2383e-06 -3.09706e-06 0)
(7.53285e-06 -2.96271e-06 0)
(7.82721e-06 -2.82791e-06 0)
(8.12154e-06 -2.69305e-06 0)
(8.41578e-06 -2.55851e-06 0)
(2.1249e-07 -4.37929e-06 0)
(6.40416e-07 -4.31482e-06 0)
(1.07719e-06 -4.1884e-06 0)
(1.52779e-06 -4.00516e-06 0)
(1.99628e-06 -3.77206e-06 0)
(2.48518e-06 -3.49788e-06 0)
(2.99549e-06 -3.19258e-06 0)
(3.52631e-06 -2.86665e-06 0)
(4.07578e-06 -2.53065e-06 0)
(4.63951e-06 -2.19298e-06 0)
(2.06544e-07 -4.45045e-06 0)
(6.22132e-07 -4.39156e-06 0)
(1.04507e-06 -4.27599e-06 0)
(1.47956e-06 -4.10813e-06 0)
(1.92903e-06 -3.89384e-06 0)
(2.39565e-06 -3.64061e-06 0)
(2.88027e-06 -3.35691e-06 0)
(3.38204e-06 -3.0518e-06 0)
(3.89844e-06 -2.7349e-06 0)
(4.42622e-06 -2.41318e-06 0)
(2.0127e-07 -4.5234e-06 0)
(6.05885e-07 -4.46959e-06 0)
(1.01648e-06 -4.36382e-06 0)
(1.43644e-06 -4.20998e-06 0)
(1.86863e-06 -4.01312e-06 0)
(2.31486e-06 -3.77969e-06 0)
(2.77599e-06 -3.51696e-06 0)
(3.25183e-06 -3.23253e-06 0)
(3.74047e-06 -2.93483e-06 0)
(4.2399e-06 -2.62826e-06 0)
(1.96556e-07 -4.59822e-06 0)
(5.914e-07 -4.5487e-06 0)
(9.91248e-07 -4.45129e-06 0)
(1.39881e-06 -4.30941e-06 0)
(1.81649e-06 -4.1275e-06 0)
(2.24575e-06 -3.91117e-06 0)
(2.68721e-06 -3.66694e-06 0)
(3.1407e-06 -3.40141e-06 0)
(3.60456e-06 -3.12251e-06 0)
(4.0771e-06 -2.83356e-06 0)
(1.92223e-07 -4.67484e-06 0)
(5.78034e-07 -4.62917e-06 0)
(9.68033e-07 -4.53924e-06 0)
(1.36437e-06 -4.40811e-06 0)
(1.76907e-06 -4.23974e-06 0)
(2.18333e-06 -4.03909e-06 0)
(2.6077e-06 -3.81196e-06 0)
(3.04204e-06 -3.56396e-06 0)
(3.48515e-06 -3.30233e-06 0)
(3.93463e-06 -3.03002e-06 0)
(1.88177e-07 -4.75316e-06 0)
(5.65644e-07 -4.71082e-06 0)
(9.46625e-07 -4.6274e-06 0)
(1.33289e-06 -4.50566e-06 0)
(1.72611e-06 -4.34916e-06 0)
(2.12726e-06 -4.16237e-06 0)
(2.53674e-06 -3.95055e-06 0)
(2.95426e-06 -3.71869e-06 0)
(3.37923e-06 -3.4733e-06 0)
(3.80861e-06 -3.21741e-06 0)
(1.84288e-07 -4.83308e-06 0)
(5.53834e-07 -4.79369e-06 0)
(9.26325e-07 -4.7161e-06 0)
(1.30328e-06 -4.60274e-06 0)
(1.68606e-06 -4.4569e-06 0)
(2.07549e-06 -4.28261e-06 0)
(2.4719e-06 -4.08463e-06 0)
(2.8748e-06 -3.86745e-06 0)
(3.28408e-06 -3.63688e-06 0)
(3.69617e-06 -3.39625e-06 0)
(1.8056e-07 -4.9144e-06 0)
(5.42473e-07 -4.87763e-06 0)
(9.06898e-07 -4.80519e-06 0)
(1.27517e-06 -4.69925e-06 0)
(1.64838e-06 -4.5629e-06 0)
(2.02717e-06 -4.39977e-06 0)
(2.4119e-06 -4.21426e-06 0)
(2.80188e-06 -4.01048e-06 0)
(3.19738e-06 -3.79355e-06 0)
(3.59456e-06 -3.56708e-06 0)
(1.76916e-07 -4.99699e-06 0)
(5.31344e-07 -4.96255e-06 0)
(8.87981e-07 -4.89471e-06 0)
(1.24796e-06 -4.79545e-06 0)
(1.61223e-06 -4.66762e-06 0)
(1.98127e-06 -4.51455e-06 0)
(2.35544e-06 -4.34028e-06 0)
(2.73393e-06 -4.14864e-06 0)
(3.11723e-06 -3.94412e-06 0)
(3.50148e-06 -3.73061e-06 0)
(1.73269e-07 -5.08064e-06 0)
(5.20312e-07 -5.04829e-06 0)
(8.69335e-07 -4.98457e-06 0)
(1.22132e-06 -4.89129e-06 0)
(1.57707e-06 -4.77112e-06 0)
(1.93704e-06 -4.6271e-06 0)
(2.3015e-06 -4.46297e-06 0)
(2.6696e-06 -4.28235e-06 0)
(3.04197e-06 -4.08919e-06 0)
(3.41489e-06 -3.88747e-06 0)
(1.69575e-07 -5.16518e-06 0)
(5.09249e-07 -5.13469e-06 0)
(8.50701e-07 -5.0747e-06 0)
(1.19485e-06 -4.98683e-06 0)
(1.54239e-06 -4.87357e-06 0)
(1.89374e-06 -4.73773e-06 0)
(2.24914e-06 -4.58277e-06 0)
(2.60775e-06 -4.41213e-06 0)
(2.97019e-06 -4.22931e-06 0)
(3.33304e-06 -4.0383e-06 0)
(1.65832e-07 -5.25035e-06 0)
(4.98051e-07 -5.22157e-06 0)
(8.31866e-07 -5.16496e-06 0)
(1.16821e-06 -5.08198e-06 0)
(1.50771e-06 -4.97497e-06 0)
(1.85074e-06 -4.84656e-06 0)
(2.19756e-06 -4.69993e-06 0)
(2.54733e-06 -4.53835e-06 0)
(2.90065e-06 -4.36494e-06 0)
(3.25442e-06 -4.18363e-06 0)
(1.62007e-07 -5.33596e-06 0)
(4.86557e-07 -5.30874e-06 0)
(8.12585e-07 -5.25521e-06 0)
(1.14105e-06 -5.17669e-06 0)
(1.47256e-06 -5.07537e-06 0)
(1.80743e-06 -4.95372e-06 0)
(2.14596e-06 -4.81468e-06 0)
(2.48737e-06 -4.66133e-06 0)
(2.83217e-06 -4.49649e-06 0)
(3.17767e-06 -4.32398e-06 0)
(1.58032e-07 -5.42173e-06 0)
(4.74597e-07 -5.39595e-06 0)
(7.92604e-07 -5.34522e-06 0)
(1.11302e-06 -5.27079e-06 0)
(1.43645e-06 -5.17468e-06 0)
(1.7632e-06 -5.05922e-06 0)
(2.09359e-06 -4.92711e-06 0)
(2.42694e-06 -4.78127e-06 0)
(2.76368e-06 -4.62429e-06 0)
(3.10148e-06 -4.45979e-06 0)
(1.53836e-07 -5.50744e-06 0)
(4.62003e-07 -5.48298e-06 0)
(7.71656e-07 -5.43484e-06 0)
(1.08373e-06 -5.36419e-06 0)
(1.39887e-06 -5.27289e-06 0)
(1.7174e-06 -5.16313e-06 0)
(2.03966e-06 -5.0374e-06 0)
(2.36509e-06 -4.89843e-06 0)
(2.69404e-06 -4.74868e-06 0)
(3.02451e-06 -4.59147e-06 0)
(1.4937e-07 -5.59263e-06 0)
(4.48642e-07 -5.5694e-06 0)
(7.49485e-07 -5.52368e-06 0)
(1.05279e-06 -5.45655e-06 0)
(1.3593e-06 -5.36972e-06 0)
(1.66936e-06 -5.26523e-06 0)
(1.98335e-06 -5.14541e-06 0)
(2.30087e-06 -5.01283e-06 0)
(2.62213e-06 -4.86975e-06 0)
(2.94551e-06 -4.71923e-06 0)
(1.44588e-07 -5.67716e-06 0)
(4.3434e-07 -5.65511e-06 0)
(7.25754e-07 -5.61166e-06 0)
(1.01974e-06 -5.54783e-06 0)
(1.31711e-06 -5.46521e-06 0)
(1.61831e-06 -5.36568e-06 0)
(1.92376e-06 -5.2514e-06 0)
(2.23316e-06 -5.12482e-06 0)
(2.5467e-06 -4.98792e-06 0)
(2.86298e-06 -4.84363e-06 0)
(1.39427e-07 -5.76011e-06 0)
(4.18886e-07 -5.73917e-06 0)
(7.00108e-07 -5.69789e-06 0)
(9.84067e-07 -5.63722e-06 0)
(1.27167e-06 -5.55859e-06 0)
(1.56346e-06 -5.46379e-06 0)
(1.85989e-06 -5.35479e-06 0)
(2.1608e-06 -5.23387e-06 0)
(2.46633e-06 -5.10285e-06 0)
(2.77545e-06 -4.96444e-06 0)
(1.33775e-07 -5.84191e-06 0)
(4.01948e-07 -5.82206e-06 0)
(6.7201e-07 -5.78287e-06 0)
(9.4504e-07 -5.72525e-06 0)
(1.22203e-06 -5.6505e-06 0)
(1.50364e-06 -5.56027e-06 0)
(1.79039e-06 -5.45637e-06 0)
(2.08227e-06 -5.34087e-06 0)
(2.37941e-06 -5.21552e-06 0)
(2.68112e-06 -5.0827e-06 0)
(1.27574e-07 -5.92004e-06 0)
(3.83382e-07 -5.90124e-06 0)
(6.4122e-07 -5.86415e-06 0)
(9.02297e-07 -5.80956e-06 0)
(1.16772e-06 -5.73867e-06 0)
(1.43826e-06 -5.65299e-06 0)
(1.71452e-06 -5.55418e-06 0)
(1.99669e-06 -5.44412e-06 0)
(2.28494e-06 -5.32445e-06 0)
(2.5789e-06 -5.19729e-06 0)
)


// ************************************************************************* //
