/*--------------------------------*- C++ -*----------------------------------*\
| =========                 |                                                 |
| \\      /  F ield         | foam-extend: Open Source CFD                    |
|  \\    /   O peration     | Version:     4.1                                |
|   \\  /    A nd           | Web:         http://www.foam-extend.org         |
|    \\/     M anipulation  |                                                 |
\*---------------------------------------------------------------------------*/
FoamFile
{
    version     2.0;
    format      ascii;
    class       vectorField;
    location    "10";
    object      solidsCellD_iteration15;
}
// * * * * * * * * * * * * * * * * * * * * * * * * * * * * * * * * * * * * * //


1000
(
(5.25055e-06 -2.26694e-06 0)
(4.94902e-06 -2.10718e-06 0)
(4.75544e-06 -2.0048e-06 0)
(4.64335e-06 -1.95571e-06 0)
(4.58735e-06 -1.93696e-06 0)
(4.57224e-06 -1.94171e-06 0)
(4.58724e-06 -1.96172e-06 0)
(4.62488e-06 -1.99305e-06 0)
(4.67943e-06 -2.0321e-06 0)
(4.74768e-06 -2.07646e-06 0)
(4.74668e-06 -2.47606e-06 0)
(4.42563e-06 -2.36385e-06 0)
(4.21984e-06 -2.29147e-06 0)
(4.09881e-06 -2.26274e-06 0)
(4.03593e-06 -2.25747e-06 0)
(4.01471e-06 -2.27172e-06 0)
(4.0239e-06 -2.29852e-06 0)
(4.05554e-06 -2.33491e-06 0)
(4.1037e-06 -2.37819e-06 0)
(4.16405e-06 -2.42506e-06 0)
(4.22344e-06 -2.6743e-06 0)
(3.8955e-06 -2.61525e-06 0)
(3.68552e-06 -2.57649e-06 0)
(3.56068e-06 -2.57031e-06 0)
(3.49414e-06 -2.57979e-06 0)
(3.46875e-06 -2.60423e-06 0)
(3.4732e-06 -2.63813e-06 0)
(3.49941e-06 -2.67962e-06 0)
(3.54143e-06 -2.72696e-06 0)
(3.59493e-06 -2.77667e-06 0)
(3.68467e-06 -2.85813e-06 0)
(3.36356e-06 -2.85486e-06 0)
(3.15809e-06 -2.85144e-06 0)
(3.03492e-06 -2.86881e-06 0)
(2.96813e-06 -2.89363e-06 0)
(2.94062e-06 -2.92857e-06 0)
(2.94145e-06 -2.96963e-06 0)
(2.96278e-06 -3.01623e-06 0)
(2.99901e-06 -3.06744e-06 0)
(3.04563e-06 -3.12016e-06 0)
(3.13407e-06 -3.02393e-06 0)
(2.83342e-06 -3.07599e-06 0)
(2.64116e-06 -3.1076e-06 0)
(2.5253e-06 -3.14826e-06 0)
(2.46165e-06 -3.18818e-06 0)
(2.43404e-06 -3.2334e-06 0)
(2.43241e-06 -3.28144e-06 0)
(2.44942e-06 -3.333e-06 0)
(2.48006e-06 -3.3879e-06 0)
(2.51978e-06 -3.44372e-06 0)
(2.57432e-06 -3.16832e-06 0)
(2.30744e-06 -3.27216e-06 0)
(2.13688e-06 -3.3366e-06 0)
(2.0336e-06 -3.39903e-06 0)
(1.97631e-06 -3.45303e-06 0)
(1.95057e-06 -3.50783e-06 0)
(1.94761e-06 -3.56229e-06 0)
(1.96081e-06 -3.61845e-06 0)
(1.9859e-06 -3.67672e-06 0)
(2.01855e-06 -3.73557e-06 0)
(2.00814e-06 -3.28805e-06 0)
(1.78684e-06 -3.43726e-06 0)
(1.64546e-06 -3.53049e-06 0)
(1.55955e-06 -3.612e-06 0)
(1.51161e-06 -3.67832e-06 0)
(1.48956e-06 -3.74146e-06 0)
(1.48622e-06 -3.80152e-06 0)
(1.496e-06 -3.86172e-06 0)
(1.51552e-06 -3.92291e-06 0)
(1.541e-06 -3.9845e-06 0)
(1.43742e-06 -3.38043e-06 0)
(1.27166e-06 -3.56608e-06 0)
(1.16582e-06 -3.68242e-06 0)
(1.10138e-06 -3.77922e-06 0)
(1.06527e-06 -3.85543e-06 0)
(1.0484e-06 -3.92529e-06 0)
(1.0454e-06 -3.98987e-06 0)
(1.05209e-06 -4.05334e-06 0)
(1.06604e-06 -4.11687e-06 0)
(1.08426e-06 -4.18074e-06 0)
(8.63731e-07 -3.44324e-06 0)
(7.61106e-07 -3.65436e-06 0)
(6.9561e-07 -3.78685e-06 0)
(6.55641e-07 -3.89438e-06 0)
(6.33137e-07 -3.97751e-06 0)
(6.225e-07 -4.05205e-06 0)
(6.20462e-07 -4.1198e-06 0)
(6.24384e-07 -4.18559e-06 0)
(6.32741e-07 -4.25078e-06 0)
(6.43672e-07 -4.3163e-06 0)
(2.88462e-07 -3.47488e-06 0)
(2.53698e-07 -3.69918e-06 0)
(2.31425e-07 -3.84e-06 0)
(2.17824e-07 -3.95304e-06 0)
(2.10191e-07 -4.03976e-06 0)
(2.06535e-07 -4.11674e-06 0)
(2.05744e-07 -4.18609e-06 0)
(2.07001e-07 -4.25307e-06 0)
(2.09789e-07 -4.31913e-06 0)
(2.13422e-07 -4.38552e-06 0)
(8.20486e-06 -1.03504e-07 0)
(8.27997e-06 -7.45132e-08 0)
(8.32432e-06 -5.60759e-08 0)
(8.37171e-06 -4.5175e-08 0)
(8.42291e-06 -3.9045e-08 0)
(8.48588e-06 -3.61365e-08 0)
(8.56052e-06 -3.54227e-08 0)
(8.64784e-06 -3.60975e-08 0)
(8.74762e-06 -3.78013e-08 0)
(8.85849e-06 -3.99033e-08 0)
(8.14378e-06 -3.10512e-07 0)
(8.20639e-06 -2.25233e-07 0)
(8.24291e-06 -1.71055e-07 0)
(8.28504e-06 -1.39156e-07 0)
(8.33277e-06 -1.21377e-07 0)
(8.39325e-06 -1.12967e-07 0)
(8.46614e-06 -1.10953e-07 0)
(8.55202e-06 -1.13158e-07 0)
(8.65057e-06 -1.18362e-07 0)
(8.76012e-06 -1.24643e-07 0)
(8.02191e-06 -5.1926e-07 0)
(8.06063e-06 -3.82348e-07 0)
(8.08205e-06 -2.95446e-07 0)
(8.11416e-06 -2.44308e-07 0)
(8.15527e-06 -2.15912e-07 0)
(8.21109e-06 -2.0275e-07 0)
(8.28052e-06 -1.99858e-07 0)
(8.36364e-06 -2.03723e-07 0)
(8.45984e-06 -2.12401e-07 0)
(8.56684e-06 -2.22919e-07 0)
(7.84139e-06 -7.30643e-07 0)
(7.84614e-06 -5.49466e-07 0)
(7.84602e-06 -4.34536e-07 0)
(7.86388e-06 -3.67194e-07 0)
(7.89555e-06 -3.29969e-07 0)
(7.94473e-06 -3.13034e-07 0)
(8.00928e-06 -3.09763e-07 0)
(8.08846e-06 -3.15554e-07 0)
(8.18131e-06 -3.27694e-07 0)
(8.28474e-06 -3.42467e-07 0)
(7.60505e-06 -9.45216e-07 0)
(7.56783e-06 -7.29597e-07 0)
(7.54107e-06 -5.9281e-07 0)
(7.54128e-06 -5.13176e-07 0)
(7.56127e-06 -4.69519e-07 0)
(7.60218e-06 -4.50252e-07 0)
(7.66065e-06 -4.47349e-07 0)
(7.73491e-06 -4.55423e-07 0)
(7.82359e-06 -4.71043e-07 0)
(7.92268e-06 -4.90074e-07 0)
(7.31651e-06 -1.1631e-06 0)
(7.23177e-06 -9.24739e-07 0)
(7.17495e-06 -7.73428e-07 0)
(7.15518e-06 -6.86125e-07 0)
(7.16191e-06 -6.38858e-07 0)
(7.19337e-06 -6.18944e-07 0)
(7.24492e-06 -6.17299e-07 0)
(7.31353e-06 -6.2807e-07 0)
(7.39739e-06 -6.47218e-07 0)
(7.49157e-06 -6.70497e-07 0)
(6.98007e-06 -1.38385e-06 0)
(6.84513e-06 -1.13568e-06 0)
(6.75655e-06 -9.7798e-07 0)
(6.71567e-06 -8.8811e-07 0)
(6.70833e-06 -8.40331e-07 0)
(6.72973e-06 -8.21645e-07 0)
(6.77382e-06 -8.22286e-07 0)
(6.83636e-06 -8.36203e-07 0)
(6.91492e-06 -8.58966e-07 0)
(7.00391e-06 -8.86438e-07 0)
(6.60028e-06 -1.60643e-06 0)
(6.4156e-06 -1.36186e-06 0)
(6.2956e-06 -1.20623e-06 0)
(6.23369e-06 -1.11915e-06 0)
(6.2123e-06 -1.0741e-06 0)
(6.22354e-06 -1.0586e-06 0)
(6.25993e-06 -1.0626e-06 0)
(6.31615e-06 -1.08021e-06 0)
(6.38906e-06 -1.1067e-06 0)
(6.47268e-06 -1.13841e-06 0)
(6.18212e-06 -1.82931e-06 0)
(5.95122e-06 -1.60142e-06 0)
(5.80202e-06 -1.45621e-06 0)
(5.72046e-06 -1.37715e-06 0)
(5.6858e-06 -1.33804e-06 0)
(5.68722e-06 -1.32761e-06 0)
(5.71599e-06 -1.33607e-06 0)
(5.76588e-06 -1.35784e-06 0)
(5.83288e-06 -1.38844e-06 0)
(5.91129e-06 -1.42421e-06 0)
(5.73057e-06 -2.05037e-06 0)
(5.4599e-06 -1.85128e-06 0)
(5.28562e-06 -1.72416e-06 0)
(5.18696e-06 -1.65801e-06 0)
(5.14051e-06 -1.6278e-06 0)
(5.133e-06 -1.62422e-06 0)
(5.15462e-06 -1.63807e-06 0)
(5.19822e-06 -1.66462e-06 0)
(5.25926e-06 -1.69938e-06 0)
(5.3323e-06 -1.74069e-06 0)
(8.98087e-06 -4.20078e-08 0)
(9.11435e-06 -4.2372e-08 0)
(9.25642e-06 -4.28399e-08 0)
(9.40657e-06 -4.31517e-08 0)
(9.56385e-06 -4.32694e-08 0)
(9.72765e-06 -4.31735e-08 0)
(9.89722e-06 -4.27886e-08 0)
(1.00719e-05 -4.21292e-08 0)
(1.02511e-05 -4.11939e-08 0)
(1.04344e-05 -3.99543e-08 0)
(1.0621e-05 -3.83711e-08 0)
(1.08105e-05 -3.64177e-08 0)
(1.10022e-05 -3.40607e-08 0)
(1.11957e-05 -3.12677e-08 0)
(1.13904e-05 -2.79958e-08 0)
(1.15854e-05 -2.41866e-08 0)
(1.17805e-05 -1.97592e-08 0)
(1.19743e-05 -1.46268e-08 0)
(1.2167e-05 -8.66338e-09 0)
(1.23553e-05 -1.81849e-09 0)
(8.88689e-06 -1.30465e-07 0)
(9.02826e-06 -1.30938e-07 0)
(9.17738e-06 -1.31801e-07 0)
(9.33366e-06 -1.323e-07 0)
(9.49641e-06 -1.32231e-07 0)
(9.66501e-06 -1.31592e-07 0)
(9.8389e-06 -1.30215e-07 0)
(1.00175e-05 -1.28089e-07 0)
(1.02003e-05 -1.25121e-07 0)
(1.03868e-05 -1.21232e-07 0)
(1.05764e-05 -1.16344e-07 0)
(1.07686e-05 -1.10395e-07 0)
(1.0963e-05 -1.0328e-07 0)
(1.11589e-05 -9.48751e-08 0)
(1.13558e-05 -8.50278e-08 0)
(1.15531e-05 -7.35659e-08 0)
(1.17503e-05 -6.02584e-08 0)
(1.19461e-05 -4.48588e-08 0)
(1.21408e-05 -2.69797e-08 0)
(1.23311e-05 -6.46712e-09 0)
(8.70216e-06 -2.3113e-07 0)
(8.85903e-06 -2.2996e-07 0)
(9.02195e-06 -2.2962e-07 0)
(9.19016e-06 -2.29093e-07 0)
(9.36358e-06 -2.27858e-07 0)
(9.54164e-06 -2.25909e-07 0)
(9.72406e-06 -2.22883e-07 0)
(9.9103e-06 -2.18732e-07 0)
(1.01001e-05 -2.13275e-07 0)
(1.02928e-05 -2.06398e-07 0)
(1.04883e-05 -1.97961e-07 0)
(1.06859e-05 -1.87836e-07 0)
(1.08853e-05 -1.7582e-07 0)
(1.1086e-05 -1.61694e-07 0)
(1.12874e-05 -1.45203e-07 0)
(1.1489e-05 -1.2606e-07 0)
(1.16904e-05 -1.0387e-07 0)
(1.18902e-05 -7.82221e-08 0)
(1.20889e-05 -4.84585e-08 0)
(1.22832e-05 -1.4319e-08 0)
(8.43225e-06 -3.50945e-07 0)
(8.6113e-06 -3.45403e-07 0)
(8.79421e-06 -3.41358e-07 0)
(8.97978e-06 -3.37881e-07 0)
(9.16877e-06 -3.33856e-07 0)
(9.3606e-06 -3.29303e-07 0)
(9.55544e-06 -3.23573e-07 0)
(9.75287e-06 -3.16571e-07 0)
(9.95283e-06 -3.07987e-07 0)
(1.0155e-05 -2.9762e-07 0)
(1.0359e-05 -2.85231e-07 0)
(1.05646e-05 -2.70602e-07 0)
(1.07715e-05 -2.5344e-07 0)
(1.09791e-05 -2.33435e-07 0)
(1.11871e-05 -2.10226e-07 0)
(1.1395e-05 -1.8338e-07 0)
(1.16024e-05 -1.52338e-07 0)
(1.18082e-05 -1.16507e-07 0)
(1.20127e-05 -7.49421e-08 0)
(1.22128e-05 -2.729e-08 0)
(8.08534e-06 -4.96093e-07 0)
(8.29224e-06 -4.82645e-07 0)
(8.50049e-06 -4.71666e-07 0)
(8.70805e-06 -4.62753e-07 0)
(8.91691e-06 -4.53842e-07 0)
(9.12638e-06 -4.45002e-07 0)
(9.33718e-06 -4.35206e-07 0)
(9.54904e-06 -4.24259e-07 0)
(9.76213e-06 -4.11654e-07 0)
(9.97627e-06 -3.97072e-07 0)
(1.01914e-05 -3.80169e-07 0)
(1.04073e-05 -3.60615e-07 0)
(1.06237e-05 -3.38004e-07 0)
(1.08404e-05 -3.11911e-07 0)
(1.1057e-05 -2.81844e-07 0)
(1.12731e-05 -2.47225e-07 0)
(1.14883e-05 -2.07322e-07 0)
(1.17017e-05 -1.61361e-07 0)
(1.19137e-05 -1.0811e-07 0)
(1.21214e-05 -4.71041e-08 0)
(7.6713e-06 -6.70996e-07 0)
(7.91023e-06 -6.4555e-07 0)
(8.14811e-06 -6.23827e-07 0)
(8.38158e-06 -6.0646e-07 0)
(8.614e-06 -5.90172e-07 0)
(8.8445e-06 -5.75e-07 0)
(9.07433e-06 -5.59471e-07 0)
(9.30345e-06 -5.43212e-07 0)
(9.53232e-06 -5.25517e-07 0)
(9.76093e-06 -5.05891e-07 0)
(9.98942e-06 -4.83844e-07 0)
(1.02177e-05 -4.58898e-07 0)
(1.04457e-05 -4.30505e-07 0)
(1.06732e-05 -3.98105e-07 0)
(1.09001e-05 -3.61059e-07 0)
(1.11259e-05 -3.1864e-07 0)
(1.13506e-05 -2.69923e-07 0)
(1.15732e-05 -2.13961e-07 0)
(1.17942e-05 -1.4923e-07 0)
(1.20108e-05 -7.50998e-08 0)
(7.20174e-06 -8.78396e-07 0)
(7.47544e-06 -8.36799e-07 0)
(7.74598e-06 -8.00537e-07 0)
(8.00824e-06 -7.71487e-07 0)
(8.26696e-06 -7.45201e-07 0)
(8.52114e-06 -7.21448e-07 0)
(8.77252e-06 -6.98414e-07 0)
(9.02127e-06 -6.75369e-07 0)
(9.26811e-06 -6.51394e-07 0)
(9.51327e-06 -6.25768e-07 0)
(9.75705e-06 -5.97811e-07 0)
(9.99953e-06 -5.66866e-07 0)
(1.02408e-05 -5.32235e-07 0)
(1.04807e-05 -4.93213e-07 0)
(1.07194e-05 -4.48998e-07 0)
(1.09565e-05 -3.98706e-07 0)
(1.1192e-05 -3.41207e-07 0)
(1.1425e-05 -2.75367e-07 0)
(1.16563e-05 -1.99389e-07 0)
(1.18833e-05 -1.12461e-07 0)
(6.68836e-06 -1.11887e-06 0)
(6.99788e-06 -1.05655e-06 0)
(7.30266e-06 -1.00195e-06 0)
(7.59572e-06 -9.57628e-07 0)
(7.88278e-06 -9.18585e-07 0)
(8.16277e-06 -8.83835e-07 0)
(8.4378e-06 -8.51389e-07 0)
(8.7082e-06 -8.20021e-07 0)
(8.9749e-06 -7.88559e-07 0)
(9.23837e-06 -7.55999e-07 0)
(9.49906e-06 -7.21432e-07 0)
(9.75725e-06 -6.83989e-07 0)
(1.00132e-05 -6.4279e-07 0)
(1.02669e-05 -5.96961e-07 0)
(1.05186e-05 -5.45522e-07 0)
(1.07681e-05 -4.87408e-07 0)
(1.10155e-05 -4.21291e-07 0)
(1.12602e-05 -3.45834e-07 0)
(1.15028e-05 -2.58968e-07 0)
(1.17413e-05 -1.59697e-07 0)
(6.14394e-06 -1.39193e-06 0)
(6.4892e-06 -1.30514e-06 0)
(6.82814e-06 -1.22981e-06 0)
(7.15299e-06 -1.16716e-06 0)
(7.46922e-06 -1.11294e-06 0)
(7.77629e-06 -1.06498e-06 0)
(8.07615e-06 -1.02122e-06 0)
(8.36951e-06 -9.79881e-07 0)
(8.65739e-06 -9.39534e-07 0)
(8.94046e-06 -8.98868e-07 0)
(9.21934e-06 -8.56726e-07 0)
(9.49447e-06 -8.12019e-07 0)
(9.76626e-06 -7.63672e-07 0)
(1.00349e-05 -7.1062e-07 0)
(1.03008e-05 -6.51689e-07 0)
(1.05637e-05 -5.85625e-07 0)
(1.0824e-05 -5.10902e-07 0)
(1.10812e-05 -4.25982e-07 0)
(1.13361e-05 -3.28567e-07 0)
(1.15869e-05 -2.17484e-07 0)
(5.57865e-06 -1.6926e-06 0)
(5.95937e-06 -1.57581e-06 0)
(6.33079e-06 -1.47724e-06 0)
(6.68812e-06 -1.39333e-06 0)
(7.03412e-06 -1.32145e-06 0)
(7.36941e-06 -1.25834e-06 0)
(7.69525e-06 -1.20165e-06 0)
(8.01272e-06 -1.14917e-06 0)
(8.32286e-06 -1.09908e-06 0)
(8.62655e-06 -1.04971e-06 0)
(8.92454e-06 -9.99612e-07 0)
(9.21747e-06 -9.47435e-07 0)
(9.50588e-06 -8.91874e-07 0)
(9.79018e-06 -8.31654e-07 0)
(1.00707e-05 -7.65399e-07 0)
(1.03477e-05 -6.91662e-07 0)
(1.06214e-05 -6.08738e-07 0)
(1.08917e-05 -5.1487e-07 0)
(1.11594e-05 -4.07551e-07 0)
(1.14232e-05 -2.85385e-07 0)
(5.16212e-06 -1.97834e-06 0)
(5.56512e-06 -1.83801e-06 0)
(5.9551e-06 -1.72248e-06 0)
(6.33176e-06 -1.622e-06 0)
(6.6961e-06 -1.53484e-06 0)
(7.049e-06 -1.45772e-06 0)
(7.39156e-06 -1.3882e-06 0)
(7.72478e-06 -1.32404e-06 0)
(8.04967e-06 -1.26325e-06 0)
(8.36707e-06 -1.20405e-06 0)
(8.67779e-06 -1.14483e-06 0)
(8.98252e-06 -1.08409e-06 0)
(9.28188e-06 -1.02038e-06 0)
(9.57634e-06 -9.52294e-07 0)
(9.86637e-06 -8.78333e-07 0)
(1.01522e-05 -7.96931e-07 0)
(1.04344e-05 -7.0632e-07 0)
(1.07129e-05 -6.04636e-07 0)
(1.09888e-05 -4.89328e-07 0)
(1.12609e-05 -3.58934e-07 0)
(4.92249e-06 -2.20887e-06 0)
(5.32819e-06 -2.06333e-06 0)
(5.72129e-06 -1.93853e-06 0)
(6.10275e-06 -1.8281e-06 0)
(6.47267e-06 -1.73041e-06 0)
(6.83163e-06 -1.64275e-06 0)
(7.1804e-06 -1.56289e-06 0)
(7.51978e-06 -1.48872e-06 0)
(7.85057e-06 -1.41834e-06 0)
(8.17352e-06 -1.34999e-06 0)
(8.48938e-06 -1.28206e-06 0)
(8.7988e-06 -1.21304e-06 0)
(9.1024e-06 -1.14145e-06 0)
(9.40067e-06 -1.06587e-06 0)
(9.69412e-06 -9.84769e-07 0)
(9.98311e-06 -8.96579e-07 0)
(1.02682e-05 -7.99586e-07 0)
(1.05495e-05 -6.91952e-07 0)
(1.08281e-05 -5.71239e-07 0)
(1.11035e-05 -4.36077e-07 0)
(4.71609e-06 -2.43101e-06 0)
(5.11802e-06 -2.28186e-06 0)
(5.51046e-06 -2.15081e-06 0)
(5.89267e-06 -2.03267e-06 0)
(6.26468e-06 -1.92624e-06 0)
(6.62654e-06 -1.82937e-06 0)
(6.9788e-06 -1.74011e-06 0)
(7.32193e-06 -1.6566e-06 0)
(7.65659e-06 -1.57707e-06 0)
(7.98337e-06 -1.49986e-06 0)
(8.30293e-06 -1.42342e-06 0)
(8.61585e-06 -1.34626e-06 0)
(8.92272e-06 -1.26691e-06 0)
(9.22403e-06 -1.18396e-06 0)
(9.52028e-06 -1.09591e-06 0)
(9.81195e-06 -1.00121e-06 0)
(1.00996e-05 -8.9821e-07 0)
(1.03835e-05 -7.85164e-07 0)
(1.06647e-05 -6.59781e-07 0)
(1.0943e-05 -5.20824e-07 0)
(4.53343e-06 -2.64526e-06 0)
(4.9297e-06 -2.49422e-06 0)
(5.31877e-06 -2.3584e-06 0)
(5.69906e-06 -2.23387e-06 0)
(6.07055e-06 -2.11989e-06 0)
(6.43293e-06 -2.01483e-06 0)
(6.78648e-06 -1.91704e-06 0)
(7.13143e-06 -1.8249e-06 0)
(7.46825e-06 -1.73681e-06 0)
(7.79741e-06 -1.65123e-06 0)
(8.11943e-06 -1.56669e-06 0)
(8.43482e-06 -1.48177e-06 0)
(8.74409e-06 -1.39503e-06 0)
(9.04774e-06 -1.30508e-06 0)
(9.34627e-06 -1.21049e-06 0)
(9.64016e-06 -1.10976e-06 0)
(9.93e-06 -1.00133e-06 0)
(1.02162e-05 -8.83562e-07 0)
(1.04998e-05 -7.54355e-07 0)
(1.0781e-05 -6.12624e-07 0)
(4.3721e-06 -2.85049e-06 0)
(4.76098e-06 -2.69882e-06 0)
(5.14468e-06 -2.55981e-06 0)
(5.521e-06 -2.43043e-06 0)
(5.88994e-06 -2.31034e-06 0)
(6.25087e-06 -2.19831e-06 0)
(6.60388e-06 -2.09302e-06 0)
(6.94898e-06 -1.99311e-06 0)
(7.28648e-06 -1.89717e-06 0)
(7.6167e-06 -1.80381e-06 0)
(7.94004e-06 -1.71169e-06 0)
(8.25692e-06 -1.61943e-06 0)
(8.5678e-06 -1.52569e-06 0)
(8.87312e-06 -1.42915e-06 0)
(9.17338e-06 -1.32842e-06 0)
(9.46906e-06 -1.22212e-06 0)
(9.76077e-06 -1.10877e-06 0)
(1.0049e-05 -9.86877e-07 0)
(1.03348e-05 -8.54564e-07 0)
(1.06185e-05 -7.10905e-07 0)
(4.22841e-06 -3.04684e-06 0)
(4.60901e-06 -2.89552e-06 0)
(4.98609e-06 -2.75446e-06 0)
(5.35701e-06 -2.62141e-06 0)
(5.72191e-06 -2.49637e-06 0)
(6.07986e-06 -2.37845e-06 0)
(6.43084e-06 -2.26664e-06 0)
(6.77472e-06 -2.15983e-06 0)
(7.11164e-06 -2.05681e-06 0)
(7.44177e-06 -1.95636e-06 0)
(7.76543e-06 -1.85724e-06 0)
(8.08293e-06 -1.75821e-06 0)
(8.39466e-06 -1.65797e-06 0)
(8.70103e-06 -1.55534e-06 0)
(9.00249e-06 -1.44898e-06 0)
(9.29955e-06 -1.33763e-06 0)
(9.59278e-06 -1.21993e-06 0)
(9.88276e-06 -1.09453e-06 0)
(1.01704e-05 -9.59804e-07 0)
(1.04564e-05 -8.14964e-07 0)
(4.09952e-06 -3.2345e-06 0)
(4.47133e-06 -3.08422e-06 0)
(4.84093e-06 -2.94206e-06 0)
(5.20551e-06 -2.80638e-06 0)
(5.56526e-06 -2.67744e-06 0)
(5.9191e-06 -2.55466e-06 0)
(6.26692e-06 -2.43729e-06 0)
(6.60846e-06 -2.32447e-06 0)
(6.94376e-06 -2.21516e-06 0)
(7.27286e-06 -2.10833e-06 0)
(7.59597e-06 -2.00287e-06 0)
(7.91332e-06 -1.89763e-06 0)
(8.22525e-06 -1.79147e-06 0)
(8.5321e-06 -1.68326e-06 0)
(8.83431e-06 -1.57179e-06 0)
(9.13235e-06 -1.45592e-06 0)
(9.42677e-06 -1.3344e-06 0)
(9.71821e-06 -1.20607e-06 0)
(1.00075e-05 -1.06952e-06 0)
(1.02954e-05 -9.24112e-07 0)
(3.98275e-06 -3.41388e-06 0)
(4.34559e-06 -3.26512e-06 0)
(4.70723e-06 -3.12255e-06 0)
(5.06489e-06 -2.98506e-06 0)
(5.41872e-06 -2.85311e-06 0)
(5.76761e-06 -2.72635e-06 0)
(6.11143e-06 -2.60432e-06 0)
(6.44978e-06 -2.48632e-06 0)
(6.78261e-06 -2.37151e-06 0)
(7.10989e-06 -2.25902e-06 0)
(7.43174e-06 -2.14789e-06 0)
(7.74832e-06 -2.03709e-06 0)
(8.05988e-06 -1.92558e-06 0)
(8.36674e-06 -1.81238e-06 0)
(8.66929e-06 -1.69634e-06 0)
(8.96797e-06 -1.57647e-06 0)
(9.2633e-06 -1.45168e-06 0)
(9.55593e-06 -1.32095e-06 0)
(9.84661e-06 -1.18311e-06 0)
(1.01362e-05 -1.03764e-06 0)
(3.8757e-06 -3.5855e-06 0)
(4.2296e-06 -3.43855e-06 0)
(4.58307e-06 -3.29608e-06 0)
(4.93344e-06 -3.15744e-06 0)
(5.28089e-06 -3.02323e-06 0)
(5.62431e-06 -2.89329e-06 0)
(5.9635e-06 -2.76739e-06 0)
(6.29803e-06 -2.64499e-06 0)
(6.62779e-06 -2.52545e-06 0)
(6.95265e-06 -2.40802e-06 0)
(7.27268e-06 -2.2919e-06 0)
(7.58798e-06 -2.17618e-06 0)
(7.89873e-06 -2.05993e-06 0)
(8.20521e-06 -1.94229e-06 0)
(8.50775e-06 -1.82224e-06 0)
(8.80677e-06 -1.69891e-06 0)
(9.10275e-06 -1.57135e-06 0)
(9.39632e-06 -1.43869e-06 0)
(9.68812e-06 -1.29999e-06 0)
(9.97914e-06 -1.15487e-06 0)
(3.77628e-06 -3.74993e-06 0)
(4.12137e-06 -3.60492e-06 0)
(4.46666e-06 -3.46292e-06 0)
(4.80962e-06 -3.32363e-06 0)
(5.15044e-06 -3.18776e-06 0)
(5.48805e-06 -3.05534e-06 0)
(5.82224e-06 -2.92627e-06 0)
(6.15254e-06 -2.80021e-06 0)
(6.47876e-06 -2.67664e-06 0)
(6.80078e-06 -2.55497e-06 0)
(7.11857e-06 -2.43453e-06 0)
(7.43219e-06 -2.31451e-06 0)
(7.74179e-06 -2.19414e-06 0)
(8.04756e-06 -2.07263e-06 0)
(8.34981e-06 -1.94911e-06 0)
(8.64892e-06 -1.82281e-06 0)
(8.9453e-06 -1.69295e-06 0)
(9.23957e-06 -1.55879e-06 0)
(9.53227e-06 -1.4196e-06 0)
(9.82445e-06 -1.27515e-06 0)
(3.68257e-06 -3.90774e-06 0)
(4.01912e-06 -3.7647e-06 0)
(4.35634e-06 -3.6234e-06 0)
(4.69191e-06 -3.48385e-06 0)
(5.02604e-06 -3.34683e-06 0)
(5.35771e-06 -3.2125e-06 0)
(5.68667e-06 -3.08091e-06 0)
(6.01247e-06 -2.95183e-06 0)
(6.33488e-06 -2.8249e-06 0)
(6.65375e-06 -2.69965e-06 0)
(6.96902e-06 -2.57552e-06 0)
(7.28068e-06 -2.45184e-06 0)
(7.58885e-06 -2.32792e-06 0)
(7.89368e-06 -2.20311e-06 0)
(8.19542e-06 -2.07662e-06 0)
(8.4944e-06 -1.94785e-06 0)
(8.79098e-06 -1.81611e-06 0)
(9.08572e-06 -1.68081e-06 0)
(9.37917e-06 -1.54145e-06 0)
(9.67222e-06 -1.39787e-06 0)
(3.59289e-06 -4.05948e-06 0)
(3.92121e-06 -3.91836e-06 0)
(4.25057e-06 -3.77791e-06 0)
(4.57892e-06 -3.6384e-06 0)
(4.90641e-06 -3.50064e-06 0)
(5.2321e-06 -3.36488e-06 0)
(5.55575e-06 -3.23131e-06 0)
(5.87694e-06 -3.09982e-06 0)
(6.1954e-06 -2.97013e-06 0)
(6.51096e-06 -2.84191e-06 0)
(6.82353e-06 -2.71471e-06 0)
(7.13307e-06 -2.58795e-06 0)
(7.43965e-06 -2.46104e-06 0)
(7.74339e-06 -2.33345e-06 0)
(8.04445e-06 -2.2045e-06 0)
(8.34315e-06 -2.07368e-06 0)
(8.63978e-06 -1.94045e-06 0)
(8.93484e-06 -1.80434e-06 0)
(9.22883e-06 -1.66504e-06 0)
(9.52254e-06 -1.52245e-06 0)
(3.50571e-06 -4.20567e-06 0)
(3.82615e-06 -4.06637e-06 0)
(4.14794e-06 -3.92686e-06 0)
(4.46927e-06 -3.7876e-06 0)
(4.79026e-06 -3.64942e-06 0)
(5.11008e-06 -3.51266e-06 0)
(5.42848e-06 -3.3776e-06 0)
(5.74506e-06 -3.24422e-06 0)
(6.05957e-06 -3.11234e-06 0)
(6.37179e-06 -2.98173e-06 0)
(6.68162e-06 -2.85203e-06 0)
(6.98896e-06 -2.72273e-06 0)
(7.29386e-06 -2.59338e-06 0)
(7.59639e-06 -2.46351e-06 0)
(7.89667e-06 -2.33254e-06 0)
(8.19496e-06 -2.20007e-06 0)
(8.49149e-06 -2.06568e-06 0)
(8.78676e-06 -1.92903e-06 0)
(9.08108e-06 -1.78995e-06 0)
(9.3753e-06 -1.64842e-06 0)
(3.41962e-06 -4.34674e-06 0)
(3.73253e-06 -4.20918e-06 0)
(4.04705e-06 -4.07064e-06 0)
(4.36163e-06 -3.93178e-06 0)
(4.67637e-06 -3.79346e-06 0)
(4.99052e-06 -3.65606e-06 0)
(5.30387e-06 -3.51995e-06 0)
(5.61597e-06 -3.38516e-06 0)
(5.92661e-06 -3.25161e-06 0)
(6.23555e-06 -3.11913e-06 0)
(6.54264e-06 -2.98744e-06 0)
(6.84779e-06 -2.85613e-06 0)
(7.15099e-06 -2.72481e-06 0)
(7.45227e-06 -2.59311e-06 0)
(7.75171e-06 -2.46053e-06 0)
(8.04951e-06 -2.32677e-06 0)
(8.34586e-06 -2.19151e-06 0)
(8.6412e-06 -2.05453e-06 0)
(8.93574e-06 -1.91577e-06 0)
(9.23029e-06 -1.77534e-06 0)
(3.33315e-06 -4.48317e-06 0)
(3.63888e-06 -4.34718e-06 0)
(3.9465e-06 -4.20965e-06 0)
(4.25468e-06 -4.07134e-06 0)
(4.56352e-06 -3.93311e-06 0)
(4.87231e-06 -3.79541e-06 0)
(5.18086e-06 -3.65862e-06 0)
(5.48872e-06 -3.52285e-06 0)
(5.79569e-06 -3.38808e-06 0)
(6.10151e-06 -3.25419e-06 0)
(6.40601e-06 -3.121e-06 0)
(6.70906e-06 -2.98815e-06 0)
(7.01063e-06 -2.85531e-06 0)
(7.31069e-06 -2.72219e-06 0)
(7.60929e-06 -2.58837e-06 0)
(7.90658e-06 -2.45363e-06 0)
(8.20272e-06 -2.31775e-06 0)
(8.49801e-06 -2.1806e-06 0)
(8.79272e-06 -2.04224e-06 0)
(9.08743e-06 -1.90283e-06 0)
(3.24491e-06 -4.61527e-06 0)
(3.54384e-06 -4.48092e-06 0)
(3.84489e-06 -4.34428e-06 0)
(4.14714e-06 -4.20662e-06 0)
(4.45049e-06 -4.06872e-06 0)
(4.75435e-06 -3.93099e-06 0)
(5.05848e-06 -3.79387e-06 0)
(5.36246e-06 -3.65751e-06 0)
(5.66605e-06 -3.52194e-06 0)
(5.96898e-06 -3.38709e-06 0)
(6.27108e-06 -3.25282e-06 0)
(6.57219e-06 -3.11885e-06 0)
(6.87223e-06 -2.98489e-06 0)
(7.17115e-06 -2.85072e-06 0)
(7.46895e-06 -2.71597e-06 0)
(7.76575e-06 -2.58051e-06 0)
(8.06164e-06 -2.44422e-06 0)
(8.35684e-06 -2.307e-06 0)
(8.65161e-06 -2.16905e-06 0)
(8.94641e-06 -2.03058e-06 0)
(3.1535e-06 -4.7436e-06 0)
(3.44579e-06 -4.6104e-06 0)
(3.74061e-06 -4.47496e-06 0)
(4.03765e-06 -4.33823e-06 0)
(4.33602e-06 -4.20082e-06 0)
(4.63551e-06 -4.06331e-06 0)
(4.93568e-06 -3.92615e-06 0)
(5.23623e-06 -3.78952e-06 0)
(5.53685e-06 -3.6535e-06 0)
(5.83727e-06 -3.51806e-06 0)
(6.13727e-06 -3.3831e-06 0)
(6.43667e-06 -3.24837e-06 0)
(6.73536e-06 -3.11363e-06 0)
(7.03326e-06 -2.97871e-06 0)
(7.33035e-06 -2.84332e-06 0)
(7.6267e-06 -2.70737e-06 0)
(7.92233e-06 -2.57077e-06 0)
(8.21747e-06 -2.43356e-06 0)
(8.51219e-06 -2.29601e-06 0)
(8.80701e-06 -2.15836e-06 0)
(3.05673e-06 -4.86803e-06 0)
(3.34338e-06 -4.73616e-06 0)
(3.63308e-06 -4.60218e-06 0)
(3.92511e-06 -4.46641e-06 0)
(4.21917e-06 -4.32971e-06 0)
(4.51481e-06 -4.19267e-06 0)
(4.81165e-06 -4.05575e-06 0)
(5.1093e-06 -3.91918e-06 0)
(5.40745e-06 -3.78304e-06 0)
(5.70579e-06 -3.64734e-06 0)
(6.00406e-06 -3.51201e-06 0)
(6.30204e-06 -3.37683e-06 0)
(6.59961e-06 -3.24161e-06 0)
(6.89667e-06 -3.10621e-06 0)
(7.19316e-06 -2.9704e-06 0)
(7.4891e-06 -2.83413e-06 0)
(7.78449e-06 -2.69734e-06 0)
(8.07957e-06 -2.56016e-06 0)
(8.37428e-06 -2.42294e-06 0)
(8.66902e-06 -2.28598e-06 0)
(2.95334e-06 -4.9899e-06 0)
(3.2348e-06 -4.85963e-06 0)
(3.51986e-06 -4.72679e-06 0)
(3.80781e-06 -4.59208e-06 0)
(4.09837e-06 -4.45625e-06 0)
(4.391e-06 -4.31988e-06 0)
(4.68528e-06 -4.18342e-06 0)
(4.9808e-06 -4.04713e-06 0)
(5.27714e-06 -3.91111e-06 0)
(5.57395e-06 -3.77539e-06 0)
(5.87094e-06 -3.63992e-06 0)
(6.16789e-06 -3.50452e-06 0)
(6.46463e-06 -3.36904e-06 0)
(6.76101e-06 -3.23339e-06 0)
(7.05699e-06 -3.0973e-06 0)
(7.35261e-06 -2.96078e-06 0)
(7.64785e-06 -2.8239e-06 0)
(7.9428e-06 -2.68673e-06 0)
(8.23753e-06 -2.5497e-06 0)
(8.53222e-06 -2.41326e-06 0)
(2.84198e-06 -5.10823e-06 0)
(3.11892e-06 -4.97973e-06 0)
(3.40013e-06 -4.84853e-06 0)
(3.68495e-06 -4.71521e-06 0)
(3.97294e-06 -4.58055e-06 0)
(4.26352e-06 -4.44512e-06 0)
(4.55617e-06 -4.3094e-06 0)
(4.85036e-06 -4.17365e-06 0)
(5.14563e-06 -4.03795e-06 0)
(5.44157e-06 -3.9024e-06 0)
(5.73783e-06 -3.767e-06 0)
(6.03412e-06 -3.63158e-06 0)
(6.33028e-06 -3.49597e-06 0)
(6.62618e-06 -3.36016e-06 0)
(6.92174e-06 -3.22396e-06 0)
(7.21703e-06 -3.08732e-06 0)
(7.51213e-06 -2.95036e-06 0)
(7.80701e-06 -2.81316e-06 0)
(8.10182e-06 -2.67621e-06 0)
(8.39656e-06 -2.54005e-06 0)
(2.12491e-07 -4.45362e-06 0)
(6.4051e-07 -4.38767e-06 0)
(1.07767e-06 -4.25843e-06 0)
(1.52914e-06 -4.07106e-06 0)
(1.99911e-06 -3.83276e-06 0)
(2.49022e-06 -3.55243e-06 0)
(3.00352e-06 -3.24034e-06 0)
(3.53809e-06 -2.90719e-06 0)
(4.09187e-06 -2.5639e-06 0)
(4.66069e-06 -2.21922e-06 0)
(2.06348e-07 -4.5243e-06 0)
(6.21632e-07 -4.46404e-06 0)
(1.04454e-06 -4.34586e-06 0)
(1.47946e-06 -4.17413e-06 0)
(1.92995e-06 -3.955e-06 0)
(2.3983e-06 -3.69601e-06 0)
(2.88545e-06 -3.40588e-06 0)
(3.3905e-06 -3.09391e-06 0)
(3.91091e-06 -2.76998e-06 0)
(4.44356e-06 -2.44116e-06 0)
(2.00952e-07 -4.59667e-06 0)
(6.05011e-07 -4.54157e-06 0)
(1.01531e-06 -4.4334e-06 0)
(1.43539e-06 -4.27597e-06 0)
(1.86826e-06 -4.07459e-06 0)
(2.31581e-06 -3.83581e-06 0)
(2.77904e-06 -3.56708e-06 0)
(3.25767e-06 -3.27621e-06 0)
(3.74987e-06 -2.97176e-06 0)
(4.25364e-06 -2.65817e-06 0)
(1.96166e-07 -4.67089e-06 0)
(5.90275e-07 -4.62017e-06 0)
(9.89634e-07 -4.52056e-06 0)
(1.39707e-06 -4.37536e-06 0)
(1.81515e-06 -4.18925e-06 0)
(2.24538e-06 -3.96796e-06 0)
(2.68852e-06 -3.71809e-06 0)
(3.14431e-06 -3.44649e-06 0)
(3.61122e-06 -3.16111e-06 0)
(4.08751e-06 -2.86534e-06 0)
(1.91769e-07 -4.74692e-06 0)
(5.76728e-07 -4.70012e-06 0)
(9.66077e-07 -4.60816e-06 0)
(1.3621e-06 -4.47396e-06 0)
(1.76694e-06 -4.30169e-06 0)
(2.18185e-06 -4.09642e-06 0)
(2.60753e-06 -3.864e-06 0)
(3.04375e-06 -3.61025e-06 0)
(3.48944e-06 -3.3424e-06 0)
(3.94215e-06 -3.06349e-06 0)
(1.87663e-07 -4.82465e-06 0)
(5.64194e-07 -4.78125e-06 0)
(9.444e-07 -4.69594e-06 0)
(1.33019e-06 -4.57135e-06 0)
(1.72335e-06 -4.4112e-06 0)
(2.12489e-06 -4.22008e-06 0)
(2.53532e-06 -4.00329e-06 0)
(2.95433e-06 -3.76597e-06 0)
(3.38142e-06 -3.51465e-06 0)
(3.81356e-06 -3.25241e-06 0)
(1.83737e-07 -4.90399e-06 0)
(5.5226e-07 -4.86362e-06 0)
(9.23877e-07 -4.78423e-06 0)
(1.30023e-06 -4.66824e-06 0)
(1.68275e-06 -4.51898e-06 0)
(2.07233e-06 -4.34061e-06 0)
(2.46939e-06 -4.13794e-06 0)
(2.87343e-06 -3.91557e-06 0)
(3.28444e-06 -3.67932e-06 0)
(3.69884e-06 -3.4326e-06 0)
(1.79977e-07 -4.98474e-06 0)
(5.40785e-07 -4.94706e-06 0)
(9.04257e-07 -4.8729e-06 0)
(1.27179e-06 -4.76452e-06 0)
(1.64458e-06 -4.62493e-06 0)
(2.02331e-06 -4.45795e-06 0)
(2.40842e-06 -4.26799e-06 0)
(2.79923e-06 -4.05927e-06 0)
(3.19609e-06 -3.83691e-06 0)
(3.5952e-06 -3.60462e-06 0)
(1.76285e-07 -5.06679e-06 0)
(5.29542e-07 -5.0315e-06 0)
(8.85148e-07 -4.96203e-06 0)
(1.24428e-06 -4.86045e-06 0)
(1.60796e-06 -4.72955e-06 0)
(1.97676e-06 -4.57281e-06 0)
(2.35107e-06 -4.39431e-06 0)
(2.73011e-06 -4.19795e-06 0)
(3.11446e-06 -3.98825e-06 0)
(3.50027e-06 -3.76916e-06 0)
(1.72587e-07 -5.14991e-06 0)
(5.18396e-07 -5.11677e-06 0)
(8.663e-07 -5.05148e-06 0)
(1.21731e-06 -4.956e-06 0)
(1.57235e-06 -4.8329e-06 0)
(1.93189e-06 -4.68537e-06 0)
(2.29628e-06 -4.51719e-06 0)
(2.6647e-06 -4.33205e-06 0)
(3.03783e-06 -4.13393e-06 0)
(3.41198e-06 -3.92686e-06 0)
(1.68854e-07 -5.23392e-06 0)
(5.07212e-07 -5.20273e-06 0)
(8.47438e-07 -5.14122e-06 0)
(1.1905e-06 -5.05122e-06 0)
(1.53718e-06 -4.93515e-06 0)
(1.88795e-06 -4.79595e-06 0)
(2.24309e-06 -4.6371e-06 0)
(2.60179e-06 -4.46212e-06 0)
(2.96475e-06 -4.27453e-06 0)
(3.32853e-06 -4.07838e-06 0)
(1.65073e-07 -5.31859e-06 0)
(4.95865e-07 -5.28917e-06 0)
(8.28338e-07 -5.23107e-06 0)
(1.16349e-06 -5.14604e-06 0)
(1.502e-06 -5.03632e-06 0)
(1.84428e-06 -4.90467e-06 0)
(2.19066e-06 -4.75429e-06 0)
(2.54032e-06 -4.58852e-06 0)
(2.89392e-06 -4.41053e-06 0)
(3.24836e-06 -4.22429e-06 0)
(1.61196e-07 -5.40372e-06 0)
(4.8419e-07 -5.3759e-06 0)
(8.08749e-07 -5.32092e-06 0)
(1.13591e-06 -5.24039e-06 0)
(1.46628e-06 -5.13646e-06 0)
(1.80026e-06 -5.01167e-06 0)
(2.13817e-06 -4.86899e-06 0)
(2.47928e-06 -4.71159e-06 0)
(2.82415e-06 -4.54235e-06 0)
(3.17008e-06 -4.3651e-06 0)
(1.57153e-07 -5.48901e-06 0)
(4.7202e-07 -5.46263e-06 0)
(7.88417e-07 -5.4105e-06 0)
(1.10738e-06 -5.33411e-06 0)
(1.42953e-06 -5.23547e-06 0)
(1.75524e-06 -5.11695e-06 0)
(2.08485e-06 -4.98131e-06 0)
(2.41771e-06 -4.83156e-06 0)
(2.75433e-06 -4.67032e-06 0)
(3.09232e-06 -4.50124e-06 0)
(1.5288e-07 -5.57421e-06 0)
(4.59197e-07 -5.54916e-06 0)
(7.67074e-07 -5.49967e-06 0)
(1.07754e-06 -5.4271e-06 0)
(1.39123e-06 -5.33333e-06 0)
(1.70855e-06 -5.22058e-06 0)
(2.02986e-06 -5.09142e-06 0)
(2.35464e-06 -4.94868e-06 0)
(2.68326e-06 -4.79478e-06 0)
(3.0137e-06 -4.63315e-06 0)
(1.48331e-07 -5.65884e-06 0)
(4.45576e-07 -5.63502e-06 0)
(7.4445e-07 -5.588e-06 0)
(1.04597e-06 -5.51899e-06 0)
(1.35085e-06 -5.42975e-06 0)
(1.65953e-06 -5.32236e-06 0)
(1.97239e-06 -5.19922e-06 0)
(2.28906e-06 -5.06296e-06 0)
(2.60978e-06 -4.91584e-06 0)
(2.93292e-06 -4.76103e-06 0)
(1.4345e-07 -5.74277e-06 0)
(4.30966e-07 -5.72012e-06 0)
(7.20196e-07 -5.67542e-06 0)
(1.01218e-06 -5.60976e-06 0)
(1.30774e-06 -5.52478e-06 0)
(1.60735e-06 -5.42243e-06 0)
(1.91147e-06 -5.30492e-06 0)
(2.21981e-06 -5.17472e-06 0)
(2.53261e-06 -5.03392e-06 0)
(2.84846e-06 -4.88547e-06 0)
(1.38167e-07 -5.82505e-06 0)
(4.15143e-07 -5.80351e-06 0)
(6.93942e-07 -5.76103e-06 0)
(9.7566e-07 -5.69858e-06 0)
(1.26122e-06 -5.61767e-06 0)
(1.55119e-06 -5.52012e-06 0)
(1.84608e-06 -5.40797e-06 0)
(2.1457e-06 -5.28352e-06 0)
(2.45031e-06 -5.14869e-06 0)
(2.7588e-06 -5.00625e-06 0)
(1.32365e-07 -5.90611e-06 0)
(3.97764e-07 -5.88566e-06 0)
(6.65126e-07 -5.84532e-06 0)
(9.35639e-07 -5.78598e-06 0)
(1.21032e-06 -5.70902e-06 0)
(1.48986e-06 -5.61611e-06 0)
(1.77481e-06 -5.50912e-06 0)
(2.0652e-06 -5.39019e-06 0)
(2.3612e-06 -5.26113e-06 0)
(2.66209e-06 -5.12442e-06 0)
(1.25991e-07 -5.98337e-06 0)
(3.78689e-07 -5.96401e-06 0)
(6.33507e-07 -5.9258e-06 0)
(8.91738e-07 -5.86956e-06 0)
(1.15453e-06 -5.79654e-06 0)
(1.4227e-06 -5.70827e-06 0)
(1.69691e-06 -5.60646e-06 0)
(1.97739e-06 -5.49306e-06 0)
(2.2643e-06 -5.36978e-06 0)
(2.55723e-06 -5.23888e-06 0)
)


// ************************************************************************* //
