/*--------------------------------*- C++ -*----------------------------------*\
| =========                 |                                                 |
| \\      /  F ield         | foam-extend: Open Source CFD                    |
|  \\    /   O peration     | Version:     4.1                                |
|   \\  /    A nd           | Web:         http://www.foam-extend.org         |
|    \\/     M anipulation  |                                                 |
\*---------------------------------------------------------------------------*/
FoamFile
{
    version     2.0;
    format      ascii;
    class       vectorField;
    location    "10";
    object      solidsCellD_iteration19;
}
// * * * * * * * * * * * * * * * * * * * * * * * * * * * * * * * * * * * * * //


1000
(
(5.26733e-06 -2.28546e-06 0)
(4.96359e-06 -2.12368e-06 0)
(4.76828e-06 -2.0197e-06 0)
(4.65493e-06 -1.96946e-06 0)
(4.598e-06 -1.94981e-06 0)
(4.58214e-06 -1.95382e-06 0)
(4.59655e-06 -1.97321e-06 0)
(4.63373e-06 -2.00397e-06 0)
(4.68782e-06 -2.04253e-06 0)
(4.756e-06 -2.08643e-06 0)
(4.76167e-06 -2.49623e-06 0)
(4.43825e-06 -2.3823e-06 0)
(4.23067e-06 -2.30851e-06 0)
(4.10833e-06 -2.27874e-06 0)
(4.04456e-06 -2.2726e-06 0)
(4.02265e-06 -2.28615e-06 0)
(4.03132e-06 -2.31236e-06 0)
(4.06254e-06 -2.34819e-06 0)
(4.11036e-06 -2.39101e-06 0)
(4.17062e-06 -2.43738e-06 0)
(4.23663e-06 -2.69605e-06 0)
(3.90628e-06 -2.63563e-06 0)
(3.69454e-06 -2.59566e-06 0)
(3.56841e-06 -2.58858e-06 0)
(3.50098e-06 -2.59729e-06 0)
(3.47493e-06 -2.62109e-06 0)
(3.47887e-06 -2.65444e-06 0)
(3.50469e-06 -2.69542e-06 0)
(3.54638e-06 -2.74235e-06 0)
(3.59974e-06 -2.79161e-06 0)
(3.6961e-06 -2.88135e-06 0)
(3.37257e-06 -2.87709e-06 0)
(3.16541e-06 -2.87268e-06 0)
(3.04103e-06 -2.88932e-06 0)
(2.97337e-06 -2.91346e-06 0)
(2.94521e-06 -2.94783e-06 0)
(2.94558e-06 -2.98841e-06 0)
(2.96653e-06 -3.03454e-06 0)
(3.00247e-06 -3.08538e-06 0)
(3.0489e-06 -3.13771e-06 0)
(3.14366e-06 -3.04849e-06 0)
(2.84075e-06 -3.09993e-06 0)
(2.64696e-06 -3.13079e-06 0)
(2.52997e-06 -3.17088e-06 0)
(2.46551e-06 -3.21023e-06 0)
(2.43732e-06 -3.25498e-06 0)
(2.43529e-06 -3.30257e-06 0)
(2.45195e-06 -3.35372e-06 0)
(2.48229e-06 -3.40829e-06 0)
(2.5218e-06 -3.46376e-06 0)
(2.58219e-06 -3.19405e-06 0)
(2.31323e-06 -3.29763e-06 0)
(2.14129e-06 -3.36154e-06 0)
(2.03703e-06 -3.42355e-06 0)
(1.97906e-06 -3.47709e-06 0)
(1.95284e-06 -3.53147e-06 0)
(1.94951e-06 -3.58555e-06 0)
(1.96237e-06 -3.64136e-06 0)
(1.98719e-06 -3.69933e-06 0)
(2.01965e-06 -3.75787e-06 0)
(2.01423e-06 -3.31475e-06 0)
(1.79122e-06 -3.46402e-06 0)
(1.64869e-06 -3.55691e-06 0)
(1.562e-06 -3.63813e-06 0)
(1.51349e-06 -3.70408e-06 0)
(1.49105e-06 -3.76687e-06 0)
(1.48738e-06 -3.82661e-06 0)
(1.49688e-06 -3.8865e-06 0)
(1.51618e-06 -3.94741e-06 0)
(1.54149e-06 -4.00873e-06 0)
(1.44174e-06 -3.40788e-06 0)
(1.27474e-06 -3.59385e-06 0)
(1.16804e-06 -3.71001e-06 0)
(1.10301e-06 -3.80663e-06 0)
(1.06647e-06 -3.88254e-06 0)
(1.04929e-06 -3.95211e-06 0)
(1.04605e-06 -4.01639e-06 0)
(1.05254e-06 -4.07958e-06 0)
(1.06633e-06 -4.14286e-06 0)
(1.08444e-06 -4.20649e-06 0)
(8.6633e-07 -3.47119e-06 0)
(7.62934e-07 -3.68282e-06 0)
(6.96888e-07 -3.81526e-06 0)
(6.56555e-07 -3.92267e-06 0)
(6.33798e-07 -4.00555e-06 0)
(6.22982e-07 -4.07984e-06 0)
(6.20781e-07 -4.14731e-06 0)
(6.24565e-07 -4.21284e-06 0)
(6.3283e-07 -4.27779e-06 0)
(6.43694e-07 -4.34309e-06 0)
(2.89328e-07 -3.50309e-06 0)
(2.54294e-07 -3.72798e-06 0)
(2.31858e-07 -3.86881e-06 0)
(2.18136e-07 -3.98179e-06 0)
(2.10392e-07 -4.06828e-06 0)
(2.06677e-07 -4.14502e-06 0)
(2.05852e-07 -4.21413e-06 0)
(2.07063e-07 -4.28085e-06 0)
(2.09809e-07 -4.34667e-06 0)
(2.13418e-07 -4.41284e-06 0)
(8.23354e-06 -1.04372e-07 0)
(8.30912e-06 -7.51185e-08 0)
(8.35357e-06 -5.64968e-08 0)
(8.40084e-06 -4.54703e-08 0)
(8.45181e-06 -3.92498e-08 0)
(8.51454e-06 -3.62736e-08 0)
(8.58891e-06 -3.55088e-08 0)
(8.67601e-06 -3.61542e-08 0)
(8.77552e-06 -3.78215e-08 0)
(8.88616e-06 -3.98855e-08 0)
(8.17223e-06 -3.13101e-07 0)
(8.23518e-06 -2.27046e-07 0)
(8.27172e-06 -1.72337e-07 0)
(8.31372e-06 -1.40063e-07 0)
(8.3612e-06 -1.22011e-07 0)
(8.42146e-06 -1.13425e-07 0)
(8.49404e-06 -1.11262e-07 0)
(8.57968e-06 -1.13344e-07 0)
(8.67798e-06 -1.18439e-07 0)
(8.7873e-06 -1.24629e-07 0)
(8.04979e-06 -5.23597e-07 0)
(8.08871e-06 -3.85412e-07 0)
(8.11e-06 -2.97644e-07 0)
(8.14192e-06 -2.45938e-07 0)
(8.18273e-06 -2.17113e-07 0)
(8.23827e-06 -2.03639e-07 0)
(8.3074e-06 -2.00499e-07 0)
(8.39025e-06 -2.04171e-07 0)
(8.4862e-06 -2.12679e-07 0)
(8.59295e-06 -2.23036e-07 0)
(7.86844e-06 -7.36738e-07 0)
(7.87317e-06 -5.53875e-07 0)
(7.87276e-06 -4.3776e-07 0)
(7.89031e-06 -3.69641e-07 0)
(7.92164e-06 -3.31856e-07 0)
(7.97048e-06 -3.14513e-07 0)
(8.03469e-06 -3.10919e-07 0)
(8.11354e-06 -3.16448e-07 0)
(8.20613e-06 -3.28359e-07 0)
(8.30928e-06 -3.42914e-07 0)
(7.63107e-06 -9.53083e-07 0)
(7.5935e-06 -7.35456e-07 0)
(7.56627e-06 -5.97232e-07 0)
(7.56605e-06 -5.16638e-07 0)
(7.58561e-06 -4.72297e-07 0)
(7.62611e-06 -4.52532e-07 0)
(7.68422e-06 -4.49239e-07 0)
(7.75811e-06 -4.56994e-07 0)
(7.84651e-06 -4.72339e-07 0)
(7.94525e-06 -4.91108e-07 0)
(7.3413e-06 -1.17274e-06 0)
(7.25587e-06 -9.32144e-07 0)
(7.19834e-06 -7.79216e-07 0)
(7.17798e-06 -6.90822e-07 0)
(7.18419e-06 -6.42765e-07 0)
(7.21518e-06 -6.22279e-07 0)
(7.2663e-06 -6.20194e-07 0)
(7.3345e-06 -6.30607e-07 0)
(7.41804e-06 -6.49436e-07 0)
(7.51179e-06 -6.72413e-07 0)
(7.00345e-06 -1.39528e-06 0)
(6.86747e-06 -1.14473e-06 0)
(6.77796e-06 -9.85294e-07 0)
(6.73631e-06 -8.94249e-07 0)
(6.72834e-06 -8.45613e-07 0)
(6.74919e-06 -8.26303e-07 0)
(6.79278e-06 -8.26468e-07 0)
(6.85485e-06 -8.40005e-07 0)
(6.93305e-06 -8.6242e-07 0)
(7.02153e-06 -8.89564e-07 0)
(6.62215e-06 -1.61966e-06 0)
(6.43607e-06 -1.37265e-06 0)
(6.31489e-06 -1.21524e-06 0)
(6.25205e-06 -1.12694e-06 0)
(6.22991e-06 -1.08099e-06 0)
(6.2405e-06 -1.06484e-06 0)
(6.27633e-06 -1.06834e-06 0)
(6.33203e-06 -1.08555e-06 0)
(6.40452e-06 -1.11168e-06 0)
(6.48756e-06 -1.14307e-06 0)
(6.20237e-06 -1.84434e-06 0)
(5.96972e-06 -1.61405e-06 0)
(5.81914e-06 -1.46706e-06 0)
(5.7365e-06 -1.38677e-06 0)
(5.70097e-06 -1.34675e-06 0)
(5.70169e-06 -1.33565e-06 0)
(5.72986e-06 -1.34359e-06 0)
(5.77918e-06 -1.36496e-06 0)
(5.84571e-06 -1.39522e-06 0)
(5.92352e-06 -1.43073e-06 0)
(5.74913e-06 -2.06716e-06 0)
(5.4764e-06 -1.86583e-06 0)
(5.30053e-06 -1.73699e-06 0)
(5.20069e-06 -1.66962e-06 0)
(5.15332e-06 -1.6385e-06 0)
(5.14506e-06 -1.63422e-06 0)
(5.16602e-06 -1.64752e-06 0)
(5.20901e-06 -1.67364e-06 0)
(5.26948e-06 -1.70802e-06 0)
(5.34198e-06 -1.74906e-06 0)
(9.00836e-06 -4.19673e-08 0)
(9.14166e-06 -4.23027e-08 0)
(9.28356e-06 -4.27528e-08 0)
(9.43357e-06 -4.30516e-08 0)
(9.59074e-06 -4.31554e-08 0)
(9.75441e-06 -4.30438e-08 0)
(9.92386e-06 -4.26462e-08 0)
(1.00984e-05 -4.1971e-08 0)
(1.02776e-05 -4.10107e-08 0)
(1.04607e-05 -3.97423e-08 0)
(1.06472e-05 -3.81295e-08 0)
(1.08366e-05 -3.61447e-08 0)
(1.10283e-05 -3.37528e-08 0)
(1.12216e-05 -3.09189e-08 0)
(1.14161e-05 -2.75984e-08 0)
(1.1611e-05 -2.37337e-08 0)
(1.18058e-05 -1.92444e-08 0)
(1.19993e-05 -1.40407e-08 0)
(1.21917e-05 -7.99227e-09 0)
(1.23795e-05 -1.04988e-09 0)
(8.9139e-06 -1.30383e-07 0)
(9.05515e-06 -1.30766e-07 0)
(9.20415e-06 -1.31573e-07 0)
(9.36032e-06 -1.32027e-07 0)
(9.52296e-06 -1.31918e-07 0)
(9.69146e-06 -1.31233e-07 0)
(9.86525e-06 -1.29802e-07 0)
(1.00438e-05 -1.27615e-07 0)
(1.02265e-05 -1.24578e-07 0)
(1.04128e-05 -1.20616e-07 0)
(1.06024e-05 -1.15645e-07 0)
(1.07945e-05 -1.09597e-07 0)
(1.09887e-05 -1.02368e-07 0)
(1.11845e-05 -9.38353e-08 0)
(1.13813e-05 -8.38468e-08 0)
(1.15784e-05 -7.22259e-08 0)
(1.17753e-05 -5.87351e-08 0)
(1.19708e-05 -4.31197e-08 0)
(1.21652e-05 -2.49814e-08 0)
(1.23551e-05 -4.17276e-09 0)
(8.72816e-06 -2.31114e-07 0)
(8.88498e-06 -2.29782e-07 0)
(9.04787e-06 -2.29339e-07 0)
(9.21607e-06 -2.28722e-07 0)
(9.38945e-06 -2.274e-07 0)
(9.56745e-06 -2.2536e-07 0)
(9.74979e-06 -2.22238e-07 0)
(9.93597e-06 -2.17984e-07 0)
(1.01257e-05 -2.12418e-07 0)
(1.03184e-05 -2.0542e-07 0)
(1.05138e-05 -1.9684e-07 0)
(1.07113e-05 -1.86542e-07 0)
(1.09106e-05 -1.74332e-07 0)
(1.11112e-05 -1.59995e-07 0)
(1.13125e-05 -1.4327e-07 0)
(1.15139e-05 -1.23861e-07 0)
(1.1715e-05 -1.01363e-07 0)
(1.19145e-05 -7.53551e-08 0)
(1.21129e-05 -4.51612e-08 0)
(1.23067e-05 -1.0533e-08 0)
(8.45677e-06 -3.5118e-07 0)
(8.63593e-06 -3.45385e-07 0)
(8.81894e-06 -3.4117e-07 0)
(9.00458e-06 -3.37541e-07 0)
(9.19361e-06 -3.33369e-07 0)
(9.38544e-06 -3.28668e-07 0)
(9.58026e-06 -3.22791e-07 0)
(9.77768e-06 -3.15637e-07 0)
(9.97761e-06 -3.0689e-07 0)
(1.01797e-05 -2.9634e-07 0)
(1.03837e-05 -2.8374e-07 0)
(1.05892e-05 -2.6887e-07 0)
(1.0796e-05 -2.51443e-07 0)
(1.10035e-05 -2.31147e-07 0)
(1.12114e-05 -2.07608e-07 0)
(1.14191e-05 -1.80384e-07 0)
(1.16263e-05 -1.48903e-07 0)
(1.18318e-05 -1.12564e-07 0)
(1.20359e-05 -7.03999e-08 0)
(1.22357e-05 -2.20663e-08 0)
(8.10795e-06 -4.96826e-07 0)
(8.31511e-06 -4.83011e-07 0)
(8.5236e-06 -4.71759e-07 0)
(8.73137e-06 -4.62602e-07 0)
(8.94038e-06 -4.53463e-07 0)
(9.14995e-06 -4.44404e-07 0)
(9.36081e-06 -4.34396e-07 0)
(9.5727e-06 -4.23229e-07 0)
(9.78582e-06 -4.10394e-07 0)
(9.99996e-06 -3.95563e-07 0)
(1.02151e-05 -3.78381e-07 0)
(1.04309e-05 -3.58515e-07 0)
(1.06473e-05 -3.35565e-07 0)
(1.08638e-05 -3.09098e-07 0)
(1.10804e-05 -2.78608e-07 0)
(1.12962e-05 -2.43503e-07 0)
(1.15113e-05 -2.03035e-07 0)
(1.17244e-05 -1.5642e-07 0)
(1.19361e-05 -1.02402e-07 0)
(1.21433e-05 -4.05188e-08 0)
(7.69168e-06 -6.72503e-07 0)
(7.93108e-06 -6.46555e-07 0)
(8.16935e-06 -6.24428e-07 0)
(8.40314e-06 -6.06695e-07 0)
(8.6358e-06 -5.90071e-07 0)
(8.86647e-06 -5.74578e-07 0)
(9.09646e-06 -5.58753e-07 0)
(9.3257e-06 -5.42199e-07 0)
(9.55464e-06 -5.24199e-07 0)
(9.7833e-06 -5.0425e-07 0)
(1.00118e-05 -4.81848e-07 0)
(1.024e-05 -4.56513e-07 0)
(1.0468e-05 -4.27703e-07 0)
(1.06954e-05 -3.94849e-07 0)
(1.09222e-05 -3.57288e-07 0)
(1.11479e-05 -3.14278e-07 0)
(1.13724e-05 -2.64876e-07 0)
(1.15947e-05 -2.08116e-07 0)
(1.18154e-05 -1.42451e-07 0)
(1.20318e-05 -6.72527e-08 0)
(7.21959e-06 -8.80992e-07 0)
(7.49394e-06 -8.38736e-07 0)
(7.76503e-06 -8.0191e-07 0)
(8.02775e-06 -7.72348e-07 0)
(8.28685e-06 -7.45595e-07 0)
(8.54131e-06 -7.2141e-07 0)
(8.79296e-06 -6.97971e-07 0)
(9.04191e-06 -6.74534e-07 0)
(9.28889e-06 -6.50158e-07 0)
(9.53413e-06 -6.24115e-07 0)
(9.77794e-06 -5.95716e-07 0)
(1.00204e-05 -5.64303e-07 0)
(1.02617e-05 -5.29177e-07 0)
(1.05016e-05 -4.89617e-07 0)
(1.07402e-05 -4.44795e-07 0)
(1.09771e-05 -3.93804e-07 0)
(1.12124e-05 -3.35499e-07 0)
(1.14453e-05 -2.68722e-07 0)
(1.16763e-05 -1.91649e-07 0)
(1.1903e-05 -1.03471e-07 0)
(6.70355e-06 -1.12286e-06 0)
(7.0139e-06 -1.05971e-06 0)
(7.31942e-06 -1.00435e-06 0)
(7.61308e-06 -9.5933e-07 0)
(7.90064e-06 -9.19663e-07 0)
(8.18104e-06 -8.84346e-07 0)
(8.45639e-06 -8.51372e-07 0)
(8.72706e-06 -8.19496e-07 0)
(8.99395e-06 -7.87526e-07 0)
(9.25753e-06 -7.5445e-07 0)
(9.5183e-06 -7.1935e-07 0)
(9.77653e-06 -6.81355e-07 0)
(1.00325e-05 -6.39579e-07 0)
(1.02862e-05 -5.93123e-07 0)
(1.05379e-05 -5.4098e-07 0)
(1.07873e-05 -4.82061e-07 0)
(1.10345e-05 -4.1502e-07 0)
(1.1279e-05 -3.38494e-07 0)
(1.15214e-05 -2.50386e-07 0)
(1.17595e-05 -1.49701e-07 0)
(6.15644e-06 -1.39763e-06 0)
(6.50264e-06 -1.3098e-06 0)
(6.84242e-06 -1.23352e-06 0)
(7.16798e-06 -1.16998e-06 0)
(7.4848e-06 -1.11496e-06 0)
(7.7924e-06 -1.06628e-06 0)
(8.09268e-06 -1.02184e-06 0)
(8.38639e-06 -9.79857e-07 0)
(8.67452e-06 -9.38877e-07 0)
(8.95778e-06 -8.97581e-07 0)
(9.23679e-06 -8.54803e-07 0)
(9.51203e-06 -8.09447e-07 0)
(9.78388e-06 -7.60425e-07 0)
(1.00526e-05 -7.06646e-07 0)
(1.03183e-05 -6.46907e-07 0)
(1.05812e-05 -5.79929e-07 0)
(1.08413e-05 -5.0417e-07 0)
(1.10983e-05 -4.18061e-07 0)
(1.1353e-05 -3.19269e-07 0)
(1.16035e-05 -2.06629e-07 0)
(5.58847e-06 -1.70021e-06 0)
(5.9701e-06 -1.58225e-06 0)
(6.34236e-06 -1.48251e-06 0)
(6.70047e-06 -1.3975e-06 0)
(7.04717e-06 -1.32463e-06 0)
(7.38306e-06 -1.2606e-06 0)
(7.70944e-06 -1.20308e-06 0)
(8.02734e-06 -1.1498e-06 0)
(8.33782e-06 -1.09894e-06 0)
(8.64177e-06 -1.04882e-06 0)
(8.93996e-06 -9.97978e-07 0)
(9.23305e-06 -9.45047e-07 0)
(9.52158e-06 -8.88706e-07 0)
(9.80592e-06 -8.27652e-07 0)
(1.00865e-05 -7.60484e-07 0)
(1.03633e-05 -6.85727e-07 0)
(1.06369e-05 -6.01656e-07 0)
(1.0907e-05 -5.06488e-07 0)
(1.11745e-05 -3.97671e-07 0)
(1.1438e-05 -2.73829e-07 0)
(5.17075e-06 -1.9871e-06 0)
(5.57431e-06 -1.84571e-06 0)
(5.96492e-06 -1.72898e-06 0)
(6.34221e-06 -1.62732e-06 0)
(6.70719e-06 -1.53905e-06 0)
(7.06068e-06 -1.46089e-06 0)
(7.40377e-06 -1.39041e-06 0)
(7.73744e-06 -1.32532e-06 0)
(8.06269e-06 -1.26365e-06 0)
(8.38038e-06 -1.20358e-06 0)
(8.69135e-06 -1.1435e-06 0)
(8.99626e-06 -1.0819e-06 0)
(9.29574e-06 -1.01731e-06 0)
(9.59025e-06 -9.48282e-07 0)
(9.88028e-06 -8.73307e-07 0)
(1.01661e-05 -7.9079e-07 0)
(1.04482e-05 -6.98939e-07 0)
(1.07265e-05 -5.95869e-07 0)
(1.10022e-05 -4.7898e-07 0)
(1.12741e-05 -3.46843e-07 0)
(4.93008e-06 -2.2181e-06 0)
(5.3363e-06 -2.0715e-06 0)
(5.72999e-06 -1.94556e-06 0)
(6.11203e-06 -1.83398e-06 0)
(6.4825e-06 -1.73517e-06 0)
(6.84198e-06 -1.64642e-06 0)
(7.19123e-06 -1.56553e-06 0)
(7.531e-06 -1.49036e-06 0)
(7.86212e-06 -1.419e-06 0)
(8.18534e-06 -1.3497e-06 0)
(8.50142e-06 -1.28083e-06 0)
(8.811e-06 -1.21087e-06 0)
(9.11469e-06 -1.13831e-06 0)
(9.413e-06 -1.0617e-06 0)
(9.70643e-06 -9.79514e-07 0)
(9.99534e-06 -8.90142e-07 0)
(1.02803e-05 -7.91844e-07 0)
(1.05615e-05 -6.82773e-07 0)
(1.084e-05 -5.60441e-07 0)
(1.11151e-05 -4.2352e-07 0)
(4.72238e-06 -2.44097e-06 0)
(5.12486e-06 -2.29064e-06 0)
(5.51785e-06 -2.15839e-06 0)
(5.9006e-06 -2.03906e-06 0)
(6.2731e-06 -1.93147e-06 0)
(6.63545e-06 -1.83347e-06 0)
(6.98813e-06 -1.74312e-06 0)
(7.33162e-06 -1.65854e-06 0)
(7.66658e-06 -1.57797e-06 0)
(7.99362e-06 -1.49973e-06 0)
(8.31339e-06 -1.42228e-06 0)
(8.62646e-06 -1.34409e-06 0)
(8.9334e-06 -1.2637e-06 0)
(9.23473e-06 -1.17965e-06 0)
(9.53097e-06 -1.09044e-06 0)
(9.82256e-06 -9.94498e-07 0)
(1.01101e-05 -8.90145e-07 0)
(1.03939e-05 -7.75621e-07 0)
(1.0675e-05 -6.48593e-07 0)
(1.09532e-05 -5.07867e-07 0)
(4.53841e-06 -2.65589e-06 0)
(4.93525e-06 -2.50361e-06 0)
(5.32486e-06 -2.36654e-06 0)
(5.70566e-06 -2.24077e-06 0)
(6.07761e-06 -2.12559e-06 0)
(6.44042e-06 -2.01935e-06 0)
(6.79435e-06 -1.92041e-06 0)
(7.13964e-06 -1.82715e-06 0)
(7.47675e-06 -1.73795e-06 0)
(7.80614e-06 -1.65127e-06 0)
(8.12834e-06 -1.56565e-06 0)
(8.44385e-06 -1.47963e-06 0)
(8.75319e-06 -1.39176e-06 0)
(9.05685e-06 -1.30065e-06 0)
(9.35534e-06 -1.20484e-06 0)
(9.64916e-06 -1.10281e-06 0)
(9.93891e-06 -9.92984e-07 0)
(1.0225e-05 -8.73705e-07 0)
(1.05085e-05 -7.42835e-07 0)
(1.07895e-05 -5.99328e-07 0)
(4.37587e-06 -2.86177e-06 0)
(4.76529e-06 -2.70878e-06 0)
(5.14952e-06 -2.56846e-06 0)
(5.5263e-06 -2.4378e-06 0)
(5.89568e-06 -2.31646e-06 0)
(6.257e-06 -2.2032e-06 0)
(6.61035e-06 -2.09672e-06 0)
(6.95575e-06 -1.99563e-06 0)
(7.29351e-06 -1.89852e-06 0)
(7.62393e-06 -1.80401e-06 0)
(7.94742e-06 -1.71072e-06 0)
(8.26439e-06 -1.6173e-06 0)
(8.57531e-06 -1.52236e-06 0)
(8.88062e-06 -1.4246e-06 0)
(9.18083e-06 -1.3226e-06 0)
(9.47645e-06 -1.21495e-06 0)
(9.76806e-06 -1.10017e-06 0)
(1.00562e-05 -9.76745e-07 0)
(1.03418e-05 -8.42757e-07 0)
(1.06254e-05 -6.97325e-07 0)
(4.23108e-06 -3.05873e-06 0)
(4.61217e-06 -2.90603e-06 0)
(4.98973e-06 -2.76361e-06 0)
(5.36108e-06 -2.62923e-06 0)
(5.72636e-06 -2.50288e-06 0)
(6.08465e-06 -2.38369e-06 0)
(6.43595e-06 -2.27063e-06 0)
(6.78008e-06 -2.16259e-06 0)
(7.11721e-06 -2.05835e-06 0)
(7.44751e-06 -1.95668e-06 0)
(7.77128e-06 -1.85635e-06 0)
(8.08884e-06 -1.75607e-06 0)
(8.40059e-06 -1.6546e-06 0)
(8.70694e-06 -1.55068e-06 0)
(9.00835e-06 -1.44301e-06 0)
(9.30534e-06 -1.33028e-06 0)
(9.59848e-06 -1.21111e-06 0)
(9.88837e-06 -1.08416e-06 0)
(1.01759e-05 -9.47755e-07 0)
(1.04618e-05 -8.01152e-07 0)
(4.10118e-06 -3.24693e-06 0)
(4.47341e-06 -3.09523e-06 0)
(4.84342e-06 -2.95165e-06 0)
(5.20838e-06 -2.81459e-06 0)
(5.56845e-06 -2.68431e-06 0)
(5.92258e-06 -2.5602e-06 0)
(6.27068e-06 -2.44154e-06 0)
(6.61244e-06 -2.32744e-06 0)
(6.94791e-06 -2.21686e-06 0)
(7.27713e-06 -2.10875e-06 0)
(7.60031e-06 -2.00202e-06 0)
(7.9177e-06 -1.8955e-06 0)
(8.22963e-06 -1.78804e-06 0)
(8.53646e-06 -1.67851e-06 0)
(8.83861e-06 -1.56568e-06 0)
(9.13657e-06 -1.44839e-06 0)
(9.43092e-06 -1.32539e-06 0)
(9.72225e-06 -1.19549e-06 0)
(1.00115e-05 -1.05727e-06 0)
(1.02993e-05 -9.10122e-07 0)
(3.98345e-06 -3.42677e-06 0)
(4.34663e-06 -3.27655e-06 0)
(4.7086e-06 -3.13254e-06 0)
(5.06657e-06 -2.99362e-06 0)
(5.42068e-06 -2.86029e-06 0)
(5.76983e-06 -2.73217e-06 0)
(6.11387e-06 -2.60879e-06 0)
(6.4524e-06 -2.48946e-06 0)
(6.78536e-06 -2.37334e-06 0)
(7.11273e-06 -2.25952e-06 0)
(7.43462e-06 -2.14707e-06 0)
(7.75121e-06 -2.03495e-06 0)
(8.06276e-06 -1.9221e-06 0)
(8.36958e-06 -1.80753e-06 0)
(8.67206e-06 -1.69011e-06 0)
(8.97066e-06 -1.5688e-06 0)
(9.2659e-06 -1.44251e-06 0)
(9.55842e-06 -1.3102e-06 0)
(9.84902e-06 -1.1707e-06 0)
(1.01386e-05 -1.02352e-06 0)
(3.87551e-06 -3.59877e-06 0)
(4.22965e-06 -3.45034e-06 0)
(4.58337e-06 -3.3064e-06 0)
(4.93399e-06 -3.16631e-06 0)
(5.28167e-06 -3.03067e-06 0)
(5.62529e-06 -2.89934e-06 0)
(5.96466e-06 -2.77205e-06 0)
(6.29931e-06 -2.64828e-06 0)
(6.62915e-06 -2.52737e-06 0)
(6.95406e-06 -2.40858e-06 0)
(7.27411e-06 -2.2911e-06 0)
(7.58939e-06 -2.17401e-06 0)
(7.90012e-06 -2.05639e-06 0)
(8.20655e-06 -1.93736e-06 0)
(8.50901e-06 -1.81589e-06 0)
(8.80794e-06 -1.6911e-06 0)
(9.10381e-06 -1.56202e-06 0)
(9.39729e-06 -1.42779e-06 0)
(9.68902e-06 -1.28745e-06 0)
(9.97999e-06 -1.14065e-06 0)
(3.77522e-06 -3.76349e-06 0)
(4.12048e-06 -3.617e-06 0)
(4.46594e-06 -3.47351e-06 0)
(4.80908e-06 -3.33275e-06 0)
(5.15006e-06 -3.19542e-06 0)
(5.48782e-06 -3.06157e-06 0)
(5.82211e-06 -2.93108e-06 0)
(6.15247e-06 -2.80361e-06 0)
(6.47874e-06 -2.67863e-06 0)
(6.80077e-06 -2.55556e-06 0)
(7.11856e-06 -2.43372e-06 0)
(7.43215e-06 -2.31231e-06 0)
(7.7417e-06 -2.19053e-06 0)
(8.04741e-06 -2.06761e-06 0)
(8.34958e-06 -1.94264e-06 0)
(8.64858e-06 -1.81488e-06 0)
(8.94487e-06 -1.68349e-06 0)
(9.23904e-06 -1.54777e-06 0)
(9.53169e-06 -1.40696e-06 0)
(9.82382e-06 -1.26087e-06 0)
(3.6807e-06 -3.92153e-06 0)
(4.01733e-06 -3.777e-06 0)
(4.35464e-06 -3.6342e-06 0)
(4.69032e-06 -3.49316e-06 0)
(5.02453e-06 -3.35466e-06 0)
(5.35625e-06 -3.21887e-06 0)
(5.68526e-06 -3.08582e-06 0)
(6.01107e-06 -2.9553e-06 0)
(6.33349e-06 -2.82692e-06 0)
(6.65235e-06 -2.70024e-06 0)
(6.96759e-06 -2.5747e-06 0)
(7.27922e-06 -2.44959e-06 0)
(7.58733e-06 -2.32424e-06 0)
(7.89208e-06 -2.19799e-06 0)
(8.19372e-06 -2.07005e-06 0)
(8.4926e-06 -1.93979e-06 0)
(8.78909e-06 -1.80653e-06 0)
(9.08375e-06 -1.66968e-06 0)
(9.37711e-06 -1.52873e-06 0)
(9.67015e-06 -1.38355e-06 0)
(3.59023e-06 -4.07342e-06 0)
(3.91855e-06 -3.93081e-06 0)
(4.24792e-06 -3.78886e-06 0)
(4.57628e-06 -3.64783e-06 0)
(4.90376e-06 -3.50857e-06 0)
(5.22945e-06 -3.37134e-06 0)
(5.55309e-06 -3.23629e-06 0)
(5.87424e-06 -3.10331e-06 0)
(6.19267e-06 -2.97217e-06 0)
(6.5082e-06 -2.8425e-06 0)
(6.82072e-06 -2.71385e-06 0)
(7.1302e-06 -2.58564e-06 0)
(7.4367e-06 -2.45729e-06 0)
(7.74033e-06 -2.32824e-06 0)
(8.04129e-06 -2.19782e-06 0)
(8.33988e-06 -2.06551e-06 0)
(8.6364e-06 -1.93076e-06 0)
(8.93138e-06 -1.79313e-06 0)
(9.22529e-06 -1.65226e-06 0)
(9.51901e-06 -1.50813e-06 0)
(3.50226e-06 -4.21969e-06 0)
(3.8226e-06 -4.0789e-06 0)
(4.14432e-06 -3.93788e-06 0)
(4.46557e-06 -3.7971e-06 0)
(4.78649e-06 -3.65741e-06 0)
(5.10623e-06 -3.51915e-06 0)
(5.42458e-06 -3.38259e-06 0)
(5.74108e-06 -3.24771e-06 0)
(6.05551e-06 -3.11436e-06 0)
(6.36766e-06 -2.98227e-06 0)
(6.6774e-06 -2.8511e-06 0)
(6.98467e-06 -2.72035e-06 0)
(7.28947e-06 -2.58953e-06 0)
(7.59189e-06 -2.45819e-06 0)
(7.89206e-06 -2.32574e-06 0)
(8.19023e-06 -2.19179e-06 0)
(8.48666e-06 -2.05589e-06 0)
(8.78183e-06 -1.91774e-06 0)
(9.07611e-06 -1.77713e-06 0)
(9.37032e-06 -1.6341e-06 0)
(3.41531e-06 -4.36078e-06 0)
(3.72804e-06 -4.22173e-06 0)
(4.0424e-06 -4.08168e-06 0)
(4.35684e-06 -3.94129e-06 0)
(4.67144e-06 -3.80145e-06 0)
(4.98546e-06 -3.66254e-06 0)
(5.29869e-06 -3.52492e-06 0)
(5.61068e-06 -3.38862e-06 0)
(5.92121e-06 -3.25358e-06 0)
(6.23005e-06 -3.11961e-06 0)
(6.53704e-06 -2.98644e-06 0)
(6.84209e-06 -2.85365e-06 0)
(7.14518e-06 -2.72086e-06 0)
(7.44634e-06 -2.58768e-06 0)
(7.74567e-06 -2.45362e-06 0)
(8.04336e-06 -2.31838e-06 0)
(8.33961e-06 -2.18164e-06 0)
(8.63486e-06 -2.04319e-06 0)
(8.92936e-06 -1.90295e-06 0)
(9.22391e-06 -1.76105e-06 0)
(3.32791e-06 -4.49718e-06 0)
(3.6334e-06 -4.3597e-06 0)
(3.94079e-06 -4.22065e-06 0)
(4.24876e-06 -4.08082e-06 0)
(4.55739e-06 -3.94106e-06 0)
(4.86601e-06 -3.80184e-06 0)
(5.17439e-06 -3.66353e-06 0)
(5.48211e-06 -3.52625e-06 0)
(5.78894e-06 -3.38997e-06 0)
(6.09462e-06 -3.25459e-06 0)
(6.39899e-06 -3.11991e-06 0)
(6.70192e-06 -2.98557e-06 0)
(7.00336e-06 -2.85126e-06 0)
(7.30331e-06 -2.71666e-06 0)
(7.60179e-06 -2.58136e-06 0)
(7.89897e-06 -2.44515e-06 0)
(8.19501e-06 -2.30781e-06 0)
(8.49024e-06 -2.16921e-06 0)
(8.78488e-06 -2.02942e-06 0)
(9.07962e-06 -1.8886e-06 0)
(3.23869e-06 -4.6292e-06 0)
(3.5373e-06 -4.49337e-06 0)
(3.83805e-06 -4.35521e-06 0)
(4.14004e-06 -4.21602e-06 0)
(4.44313e-06 -4.0766e-06 0)
(4.74678e-06 -3.93734e-06 0)
(5.05068e-06 -3.7987e-06 0)
(5.35448e-06 -3.66082e-06 0)
(5.6579e-06 -3.52374e-06 0)
(5.96068e-06 -3.38739e-06 0)
(6.26265e-06 -3.25164e-06 0)
(6.56363e-06 -3.11618e-06 0)
(6.86354e-06 -2.98074e-06 0)
(7.16234e-06 -2.84508e-06 0)
(7.46003e-06 -2.70887e-06 0)
(7.75673e-06 -2.57195e-06 0)
(8.05253e-06 -2.43421e-06 0)
(8.34769e-06 -2.29559e-06 0)
(8.6424e-06 -2.15625e-06 0)
(8.93721e-06 -2.01643e-06 0)
(3.14621e-06 -4.75741e-06 0)
(3.4381e-06 -4.62273e-06 0)
(3.73257e-06 -4.48578e-06 0)
(4.02931e-06 -4.34752e-06 0)
(4.32738e-06 -4.20858e-06 0)
(4.6266e-06 -4.06956e-06 0)
(4.92653e-06 -3.93087e-06 0)
(5.22686e-06 -3.79273e-06 0)
(5.52729e-06 -3.6552e-06 0)
(5.82753e-06 -3.51826e-06 0)
(6.12739e-06 -3.38182e-06 0)
(6.42666e-06 -3.2456e-06 0)
(6.72523e-06 -3.10939e-06 0)
(7.02302e-06 -2.97299e-06 0)
(7.32001e-06 -2.83613e-06 0)
(7.61628e-06 -2.69873e-06 0)
(7.91185e-06 -2.56072e-06 0)
(8.20693e-06 -2.42213e-06 0)
(8.50164e-06 -2.28323e-06 0)
(8.79646e-06 -2.14429e-06 0)
(3.04823e-06 -4.88168e-06 0)
(3.33445e-06 -4.74833e-06 0)
(3.62376e-06 -4.61285e-06 0)
(3.91542e-06 -4.47557e-06 0)
(4.20915e-06 -4.33734e-06 0)
(4.50448e-06 -4.1988e-06 0)
(4.80106e-06 -4.06036e-06 0)
(5.09849e-06 -3.92227e-06 0)
(5.39644e-06 -3.78463e-06 0)
(5.6946e-06 -3.64744e-06 0)
(5.99272e-06 -3.51063e-06 0)
(6.29058e-06 -3.37398e-06 0)
(6.58804e-06 -3.23728e-06 0)
(6.885e-06 -3.10042e-06 0)
(7.18142e-06 -2.96315e-06 0)
(7.47732e-06 -2.82544e-06 0)
(7.77268e-06 -2.68724e-06 0)
(8.06771e-06 -2.5487e-06 0)
(8.36241e-06 -2.41017e-06 0)
(8.65715e-06 -2.272e-06 0)
(2.9435e-06 -5.00335e-06 0)
(3.22449e-06 -4.87161e-06 0)
(3.50912e-06 -4.7373e-06 0)
(3.79667e-06 -4.60109e-06 0)
(4.08686e-06 -4.46375e-06 0)
(4.37917e-06 -4.32587e-06 0)
(4.67319e-06 -4.18791e-06 0)
(4.96847e-06 -4.05012e-06 0)
(5.26461e-06 -3.91261e-06 0)
(5.56125e-06 -3.77542e-06 0)
(5.85811e-06 -3.63847e-06 0)
(6.15495e-06 -3.5016e-06 0)
(6.45159e-06 -3.36467e-06 0)
(6.74791e-06 -3.22755e-06 0)
(7.04387e-06 -3.09001e-06 0)
(7.33946e-06 -2.95206e-06 0)
(7.63469e-06 -2.81377e-06 0)
(7.92969e-06 -2.67525e-06 0)
(8.22442e-06 -2.53694e-06 0)
(8.51912e-06 -2.39935e-06 0)
(2.83067e-06 -5.12145e-06 0)
(3.10709e-06 -4.99151e-06 0)
(3.38783e-06 -4.85885e-06 0)
(3.67223e-06 -4.72405e-06 0)
(3.95985e-06 -4.5879e-06 0)
(4.25011e-06 -4.45098e-06 0)
(4.54249e-06 -4.31378e-06 0)
(4.83646e-06 -4.17654e-06 0)
(5.13155e-06 -4.03938e-06 0)
(5.42733e-06 -3.90236e-06 0)
(5.72347e-06 -3.76551e-06 0)
(6.01968e-06 -3.62863e-06 0)
(6.31578e-06 -3.49158e-06 0)
(6.61164e-06 -3.35432e-06 0)
(6.90722e-06 -3.21667e-06 0)
(7.20255e-06 -3.07861e-06 0)
(7.49767e-06 -2.94024e-06 0)
(7.79265e-06 -2.8017e-06 0)
(8.08754e-06 -2.66347e-06 0)
(8.38239e-06 -2.52623e-06 0)
(2.12441e-07 -4.48076e-06 0)
(6.40391e-07 -4.41431e-06 0)
(1.0776e-06 -4.28408e-06 0)
(1.52928e-06 -4.09525e-06 0)
(1.99974e-06 -3.8551e-06 0)
(2.49166e-06 -3.5726e-06 0)
(3.00609e-06 -3.25808e-06 0)
(3.54213e-06 -2.92236e-06 0)
(4.09759e-06 -2.57648e-06 0)
(4.66837e-06 -2.22933e-06 0)
(2.06247e-07 -4.55123e-06 0)
(6.21341e-07 -4.4905e-06 0)
(1.04419e-06 -4.37142e-06 0)
(1.47919e-06 -4.19836e-06 0)
(1.93001e-06 -3.97752e-06 0)
(2.39899e-06 -3.71653e-06 0)
(2.88709e-06 -3.42416e-06 0)
(3.39343e-06 -3.10977e-06 0)
(3.91539e-06 -2.78337e-06 0)
(4.44992e-06 -2.45203e-06 0)
(2.00829e-07 -4.62339e-06 0)
(6.04635e-07 -4.56785e-06 0)
(1.0148e-06 -4.45886e-06 0)
(1.43489e-06 -4.30022e-06 0)
(1.86796e-06 -4.09729e-06 0)
(2.31599e-06 -3.85666e-06 0)
(2.77999e-06 -3.58586e-06 0)
(3.25968e-06 -3.29274e-06 0)
(3.75323e-06 -2.98597e-06 0)
(4.25867e-06 -2.66987e-06 0)
(1.96025e-07 -4.6974e-06 0)
(5.89852e-07 -4.64628e-06 0)
(9.88997e-07 -4.54592e-06 0)
(1.39638e-06 -4.39961e-06 0)
(1.81456e-06 -4.21208e-06 0)
(2.24514e-06 -3.98909e-06 0)
(2.68889e-06 -3.7373e-06 0)
(3.14554e-06 -3.46359e-06 0)
(3.61358e-06 -3.17599e-06 0)
(4.09131e-06 -2.87779e-06 0)
(1.91601e-07 -4.77322e-06 0)
(5.76255e-07 -4.72606e-06 0)
(9.65336e-07 -4.63341e-06 0)
(1.36124e-06 -4.4982e-06 0)
(1.76611e-06 -4.32462e-06 0)
(2.18126e-06 -4.11777e-06 0)
(2.6074e-06 -3.88355e-06 0)
(3.0443e-06 -3.62783e-06 0)
(3.49092e-06 -3.35787e-06 0)
(3.94485e-06 -3.07662e-06 0)
(1.87482e-07 -4.85076e-06 0)
(5.63675e-07 -4.80703e-06 0)
(9.43577e-07 -4.72107e-06 0)
(1.3292e-06 -4.59554e-06 0)
(1.72231e-06 -4.43419e-06 0)
(2.12398e-06 -4.2416e-06 0)
(2.53475e-06 -4.02312e-06 0)
(2.95429e-06 -3.78395e-06 0)
(3.38214e-06 -3.53063e-06 0)
(3.81529e-06 -3.26615e-06 0)
(1.8355e-07 -4.92991e-06 0)
(5.517e-07 -4.88923e-06 0)
(9.22985e-07 -4.80925e-06 0)
(1.2991e-06 -4.69238e-06 0)
(1.68153e-06 -4.54199e-06 0)
(2.07114e-06 -4.36224e-06 0)
(2.46842e-06 -4.15799e-06 0)
(2.87287e-06 -3.93387e-06 0)
(3.28447e-06 -3.69572e-06 0)
(3.6997e-06 -3.44685e-06 0)
(1.79767e-07 -5.01049e-06 0)
(5.40183e-07 -4.97251e-06 0)
(9.03298e-07 -4.8978e-06 0)
(1.27054e-06 -4.78859e-06 0)
(1.64317e-06 -4.64794e-06 0)
(2.02187e-06 -4.47966e-06 0)
(2.4071e-06 -4.28821e-06 0)
(2.79818e-06 -4.07782e-06 0)
(3.1955e-06 -3.85364e-06 0)
(3.59524e-06 -3.6193e-06 0)
(1.76045e-07 -5.09236e-06 0)
(5.28895e-07 -5.0568e-06 0)
(8.84111e-07 -4.9868e-06 0)
(1.2429e-06 -4.88444e-06 0)
(1.60637e-06 -4.75253e-06 0)
(1.97506e-06 -4.59456e-06 0)
(2.34939e-06 -4.41463e-06 0)
(2.72859e-06 -4.21667e-06 0)
(3.11325e-06 -4.00523e-06 0)
(3.49954e-06 -3.78418e-06 0)
(1.72336e-07 -5.17532e-06 0)
(5.17703e-07 -5.14191e-06 0)
(8.65171e-07 -5.07613e-06 0)
(1.21579e-06 -4.97989e-06 0)
(1.57056e-06 -4.85582e-06 0)
(1.92991e-06 -4.70712e-06 0)
(2.29423e-06 -4.53757e-06 0)
(2.66271e-06 -4.35089e-06 0)
(3.03604e-06 -4.15109e-06 0)
(3.41053e-06 -3.94215e-06 0)
(1.68598e-07 -5.25916e-06 0)
(5.06455e-07 -5.22771e-06 0)
(8.462e-07 -5.16573e-06 0)
(1.18881e-06 -5.07501e-06 0)
(1.53518e-06 -4.958e-06 0)
(1.88567e-06 -4.81767e-06 0)
(2.24066e-06 -4.6575e-06 0)
(2.59933e-06 -4.48103e-06 0)
(2.96239e-06 -4.29181e-06 0)
(3.3264e-06 -4.09386e-06 0)
(1.64799e-07 -5.34367e-06 0)
(4.95014e-07 -5.31399e-06 0)
(8.26966e-07 -5.25543e-06 0)
(1.16161e-06 -5.1697e-06 0)
(1.49973e-06 -5.05908e-06 0)
(1.84167e-06 -4.92632e-06 0)
(2.18782e-06 -4.77466e-06 0)
(2.53738e-06 -4.60745e-06 0)
(2.891e-06 -4.42788e-06 0)
(3.24557e-06 -4.23988e-06 0)
(1.60885e-07 -5.42863e-06 0)
(4.83225e-07 -5.40055e-06 0)
(8.07218e-07 -5.34511e-06 0)
(1.1338e-06 -5.26392e-06 0)
(1.46371e-06 -5.1591e-06 0)
(1.79728e-06 -5.03323e-06 0)
(2.1349e-06 -4.8893e-06 0)
(2.47583e-06 -4.7305e-06 0)
(2.82063e-06 -4.55971e-06 0)
(3.16658e-06 -4.38075e-06 0)
(1.568e-07 -5.51373e-06 0)
(4.70943e-07 -5.4871e-06 0)
(7.8671e-07 -5.43453e-06 0)
(1.10504e-06 -5.35749e-06 0)
(1.42663e-06 -5.25798e-06 0)
(1.75186e-06 -5.1384e-06 0)
(2.0811e-06 -5.00155e-06 0)
(2.4137e-06 -4.85041e-06 0)
(2.75014e-06 -4.68765e-06 0)
(3.08806e-06 -4.5169e-06 0)
(1.52491e-07 -5.59872e-06 0)
(4.58012e-07 -5.57343e-06 0)
(7.65174e-07 -5.52351e-06 0)
(1.07492e-06 -5.4503e-06 0)
(1.38798e-06 -5.35568e-06 0)
(1.70475e-06 -5.2419e-06 0)
(2.0256e-06 -5.11154e-06 0)
(2.35e-06 -4.96744e-06 0)
(2.67835e-06 -4.81204e-06 0)
(3.00862e-06 -4.64876e-06 0)
(1.47905e-07 -5.68313e-06 0)
(4.44273e-07 -5.65908e-06 0)
(7.42326e-07 -5.61163e-06 0)
(1.04304e-06 -5.542e-06 0)
(1.3472e-06 -5.45192e-06 0)
(1.65523e-06 -5.34352e-06 0)
(1.96754e-06 -5.21919e-06 0)
(2.28373e-06 -5.08158e-06 0)
(2.60408e-06 -4.93298e-06 0)
(2.92693e-06 -4.77654e-06 0)
(1.42976e-07 -5.76681e-06 0)
(4.29513e-07 -5.74393e-06 0)
(7.17809e-07 -5.69882e-06 0)
(1.0089e-06 -5.63254e-06 0)
(1.30363e-06 -5.54674e-06 0)
(1.6025e-06 -5.44339e-06 0)
(1.90594e-06 -5.32471e-06 0)
(2.2137e-06 -5.19317e-06 0)
(2.52602e-06 -5.05089e-06 0)
(2.84149e-06 -4.90084e-06 0)
(1.3763e-07 -5.84879e-06 0)
(4.13506e-07 -5.82704e-06 0)
(6.91249e-07 -5.78415e-06 0)
(9.71964e-07 -5.72109e-06 0)
(1.25658e-06 -5.63938e-06 0)
(1.54569e-06 -5.54084e-06 0)
(1.83977e-06 -5.42753e-06 0)
(2.13871e-06 -5.30175e-06 0)
(2.44271e-06 -5.16546e-06 0)
(2.75074e-06 -5.02144e-06 0)
(1.3175e-07 -5.92952e-06 0)
(3.95913e-07 -5.90886e-06 0)
(6.62082e-07 -5.86812e-06 0)
(9.31452e-07 -5.80818e-06 0)
(1.20505e-06 -5.73042e-06 0)
(1.48358e-06 -5.63654e-06 0)
(1.76761e-06 -5.52841e-06 0)
(2.05717e-06 -5.40818e-06 0)
(2.35248e-06 -5.27766e-06 0)
(2.65279e-06 -5.1394e-06 0)
(1.2529e-07 -6.00635e-06 0)
(3.76595e-07 -5.98679e-06 0)
(6.3007e-07 -5.9482e-06 0)
(8.87006e-07 -5.89137e-06 0)
(1.14855e-06 -5.81758e-06 0)
(1.41555e-06 -5.72836e-06 0)
(1.68868e-06 -5.62543e-06 0)
(1.96816e-06 -5.51075e-06 0)
(2.25426e-06 -5.38604e-06 0)
(2.54649e-06 -5.25361e-06 0)
)


// ************************************************************************* //
