/*--------------------------------*- C++ -*----------------------------------*\
| =========                 |                                                 |
| \\      /  F ield         | foam-extend: Open Source CFD                    |
|  \\    /   O peration     | Version:     4.1                                |
|   \\  /    A nd           | Web:         http://www.foam-extend.org         |
|    \\/     M anipulation  |                                                 |
\*---------------------------------------------------------------------------*/
FoamFile
{
    version     2.0;
    format      ascii;
    class       vectorField;
    location    "10";
    object      solidsCellD_iteration17;
}
// * * * * * * * * * * * * * * * * * * * * * * * * * * * * * * * * * * * * * //


1000
(
(5.25956e-06 -2.27689e-06 0)
(4.95684e-06 -2.11603e-06 0)
(4.76231e-06 -2.01278e-06 0)
(4.64953e-06 -1.96306e-06 0)
(4.59302e-06 -1.94382e-06 0)
(4.57751e-06 -1.94816e-06 0)
(4.59218e-06 -1.96784e-06 0)
(4.62956e-06 -1.99886e-06 0)
(4.68385e-06 -2.03764e-06 0)
(4.75206e-06 -2.08175e-06 0)
(4.75472e-06 -2.48689e-06 0)
(4.43239e-06 -2.37375e-06 0)
(4.22563e-06 -2.3006e-06 0)
(4.10388e-06 -2.2713e-06 0)
(4.04052e-06 -2.26556e-06 0)
(4.01892e-06 -2.27943e-06 0)
(4.02783e-06 -2.3059e-06 0)
(4.05924e-06 -2.34199e-06 0)
(4.10721e-06 -2.38502e-06 0)
(4.16751e-06 -2.43161e-06 0)
(4.23051e-06 -2.68599e-06 0)
(3.90127e-06 -2.6262e-06 0)
(3.69034e-06 -2.58678e-06 0)
(3.56479e-06 -2.5801e-06 0)
(3.49777e-06 -2.58916e-06 0)
(3.47202e-06 -2.61325e-06 0)
(3.47619e-06 -2.64685e-06 0)
(3.50219e-06 -2.68806e-06 0)
(3.54403e-06 -2.73518e-06 0)
(3.59746e-06 -2.78464e-06 0)
(3.69079e-06 -2.87061e-06 0)
(3.36838e-06 -2.8668e-06 0)
(3.16199e-06 -2.86284e-06 0)
(3.03817e-06 -2.87981e-06 0)
(2.9709e-06 -2.90426e-06 0)
(2.94304e-06 -2.93889e-06 0)
(2.94362e-06 -2.97968e-06 0)
(2.96475e-06 -3.02603e-06 0)
(3.00082e-06 -3.07703e-06 0)
(3.04735e-06 -3.12955e-06 0)
(3.13921e-06 -3.03714e-06 0)
(2.83732e-06 -3.08885e-06 0)
(2.64425e-06 -3.12006e-06 0)
(2.52778e-06 -3.1604e-06 0)
(2.46369e-06 -3.20001e-06 0)
(2.43576e-06 -3.24497e-06 0)
(2.43391e-06 -3.29276e-06 0)
(2.45074e-06 -3.3441e-06 0)
(2.48122e-06 -3.39882e-06 0)
(2.52083e-06 -3.45445e-06 0)
(2.57854e-06 -3.18216e-06 0)
(2.31053e-06 -3.28586e-06 0)
(2.13923e-06 -3.35001e-06 0)
(2.03541e-06 -3.4122e-06 0)
(1.97775e-06 -3.46595e-06 0)
(1.95175e-06 -3.52051e-06 0)
(1.9486e-06 -3.57476e-06 0)
(1.96162e-06 -3.63073e-06 0)
(1.98656e-06 -3.68884e-06 0)
(2.01912e-06 -3.74752e-06 0)
(2.01142e-06 -3.30242e-06 0)
(1.78918e-06 -3.45165e-06 0)
(1.64718e-06 -3.5447e-06 0)
(1.56085e-06 -3.62604e-06 0)
(1.5126e-06 -3.69215e-06 0)
(1.49034e-06 -3.7551e-06 0)
(1.48682e-06 -3.81498e-06 0)
(1.49646e-06 -3.87501e-06 0)
(1.51586e-06 -3.93604e-06 0)
(1.54125e-06 -3.99748e-06 0)
(1.43974e-06 -3.3952e-06 0)
(1.27331e-06 -3.58101e-06 0)
(1.167e-06 -3.69725e-06 0)
(1.10225e-06 -3.79395e-06 0)
(1.0659e-06 -3.87e-06 0)
(1.04887e-06 -3.93969e-06 0)
(1.04574e-06 -4.0041e-06 0)
(1.05232e-06 -4.06741e-06 0)
(1.06618e-06 -4.13081e-06 0)
(1.08435e-06 -4.19454e-06 0)
(8.6513e-07 -3.45829e-06 0)
(7.62089e-07 -3.66966e-06 0)
(6.96296e-07 -3.80213e-06 0)
(6.5613e-07 -3.90959e-06 0)
(6.3349e-07 -3.99258e-06 0)
(6.22756e-07 -4.06697e-06 0)
(6.20629e-07 -4.13457e-06 0)
(6.24476e-07 -4.20022e-06 0)
(6.32785e-07 -4.26527e-06 0)
(6.43683e-07 -4.33066e-06 0)
(2.88928e-07 -3.49007e-06 0)
(2.54018e-07 -3.71468e-06 0)
(2.31659e-07 -3.8555e-06 0)
(2.17992e-07 -3.9685e-06 0)
(2.10298e-07 -4.05508e-06 0)
(2.06611e-07 -4.13193e-06 0)
(2.05803e-07 -4.20114e-06 0)
(2.07033e-07 -4.26797e-06 0)
(2.09799e-07 -4.3339e-06 0)
(2.1342e-07 -4.40017e-06 0)
(8.2203e-06 -1.03967e-07 0)
(8.29565e-06 -7.48331e-08 0)
(8.34005e-06 -5.62961e-08 0)
(8.38737e-06 -4.53313e-08 0)
(8.43844e-06 -3.91543e-08 0)
(8.50126e-06 -3.62034e-08 0)
(8.57575e-06 -3.5463e-08 0)
(8.66295e-06 -3.61308e-08 0)
(8.76258e-06 -3.78105e-08 0)
(8.87332e-06 -3.98879e-08 0)
(8.1591e-06 -3.11892e-07 0)
(8.22187e-06 -2.26195e-07 0)
(8.2584e-06 -1.71726e-07 0)
(8.30045e-06 -1.3962e-07 0)
(8.34805e-06 -1.21701e-07 0)
(8.4084e-06 -1.13205e-07 0)
(8.48111e-06 -1.11106e-07 0)
(8.56686e-06 -1.13246e-07 0)
(8.66527e-06 -1.18389e-07 0)
(8.77469e-06 -1.24625e-07 0)
(8.03692e-06 -5.21574e-07 0)
(8.07573e-06 -3.83978e-07 0)
(8.09707e-06 -2.96608e-07 0)
(8.12908e-06 -2.45158e-07 0)
(8.17002e-06 -2.16529e-07 0)
(8.22568e-06 -2.03202e-07 0)
(8.29494e-06 -2.00172e-07 0)
(8.37791e-06 -2.03934e-07 0)
(8.47396e-06 -2.12527e-07 0)
(8.58083e-06 -2.22968e-07 0)
(7.85595e-06 -7.33891e-07 0)
(7.86067e-06 -5.51811e-07 0)
(7.86039e-06 -4.36245e-07 0)
(7.87808e-06 -3.6848e-07 0)
(7.90956e-06 -3.30947e-07 0)
(7.95855e-06 -3.13794e-07 0)
(8.02291e-06 -3.10352e-07 0)
(8.1019e-06 -3.16001e-07 0)
(8.1946e-06 -3.28019e-07 0)
(8.29788e-06 -3.42682e-07 0)
(7.61905e-06 -9.49414e-07 0)
(7.58163e-06 -7.32707e-07 0)
(7.55461e-06 -5.95151e-07 0)
(7.55458e-06 -5.15e-07 0)
(7.57434e-06 -4.70973e-07 0)
(7.61502e-06 -4.51439e-07 0)
(7.67329e-06 -4.48328e-07 0)
(7.74734e-06 -4.56227e-07 0)
(7.83586e-06 -4.71698e-07 0)
(7.93475e-06 -4.90594e-07 0)
(7.32985e-06 -1.16826e-06 0)
(7.24472e-06 -9.28677e-07 0)
(7.18751e-06 -7.76496e-07 0)
(7.16742e-06 -6.88607e-07 0)
(7.17386e-06 -6.40914e-07 0)
(7.20506e-06 -6.2069e-07 0)
(7.25637e-06 -6.18807e-07 0)
(7.32475e-06 -6.29383e-07 0)
(7.40843e-06 -6.48362e-07 0)
(7.50237e-06 -6.71484e-07 0)
(6.99264e-06 -1.38998e-06 0)
(6.85713e-06 -1.14051e-06 0)
(6.76805e-06 -9.81867e-07 0)
(6.72674e-06 -8.91358e-07 0)
(6.71906e-06 -8.43117e-07 0)
(6.74016e-06 -8.24092e-07 0)
(6.78396e-06 -8.24473e-07 0)
(6.84624e-06 -8.38186e-07 0)
(6.9246e-06 -8.60765e-07 0)
(7.0133e-06 -8.88065e-07 0)
(6.61203e-06 -1.61352e-06 0)
(6.42659e-06 -1.36762e-06 0)
(6.30595e-06 -1.21103e-06 0)
(6.24353e-06 -1.12328e-06 0)
(6.22173e-06 -1.07775e-06 0)
(6.23261e-06 -1.06189e-06 0)
(6.26869e-06 -1.06562e-06 0)
(6.32462e-06 -1.08302e-06 0)
(6.39729e-06 -1.10931e-06 0)
(6.48059e-06 -1.14085e-06 0)
(6.193e-06 -1.83736e-06 0)
(5.96115e-06 -1.60818e-06 0)
(5.8112e-06 -1.462e-06 0)
(5.72905e-06 -1.38227e-06 0)
(5.69391e-06 -1.34266e-06 0)
(5.69495e-06 -1.33187e-06 0)
(5.72338e-06 -1.34004e-06 0)
(5.77296e-06 -1.3616e-06 0)
(5.8397e-06 -1.39201e-06 0)
(5.91777e-06 -1.42764e-06 0)
(5.74054e-06 -2.05938e-06 0)
(5.46875e-06 -1.85907e-06 0)
(5.2936e-06 -1.73102e-06 0)
(5.1943e-06 -1.66421e-06 0)
(5.14735e-06 -1.6335e-06 0)
(5.13943e-06 -1.62954e-06 0)
(5.16069e-06 -1.64308e-06 0)
(5.20394e-06 -1.6694e-06 0)
(5.26467e-06 -1.70395e-06 0)
(5.33741e-06 -1.74511e-06 0)
(8.99559e-06 -4.19829e-08 0)
(9.12897e-06 -4.23341e-08 0)
(9.27094e-06 -4.27911e-08 0)
(9.42102e-06 -4.30939e-08 0)
(9.57823e-06 -4.32039e-08 0)
(9.74195e-06 -4.31026e-08 0)
(9.91144e-06 -4.27139e-08 0)
(1.00861e-05 -4.20453e-08 0)
(1.02653e-05 -4.10939e-08 0)
(1.04484e-05 -3.9838e-08 0)
(1.0635e-05 -3.82407e-08 0)
(1.08244e-05 -3.62736e-08 0)
(1.10161e-05 -3.39002e-08 0)
(1.12095e-05 -3.10851e-08 0)
(1.14041e-05 -2.77847e-08 0)
(1.15991e-05 -2.39435e-08 0)
(1.1794e-05 -1.94829e-08 0)
(1.19876e-05 -1.43142e-08 0)
(1.21801e-05 -8.30816e-09 0)
(1.23682e-05 -1.41314e-09 0)
(8.90136e-06 -1.30416e-07 0)
(9.04266e-06 -1.3084e-07 0)
(9.19171e-06 -1.3167e-07 0)
(9.34793e-06 -1.32145e-07 0)
(9.51061e-06 -1.32058e-07 0)
(9.67914e-06 -1.31397e-07 0)
(9.85297e-06 -1.29992e-07 0)
(1.00315e-05 -1.27831e-07 0)
(1.02143e-05 -1.24825e-07 0)
(1.04007e-05 -1.20902e-07 0)
(1.05902e-05 -1.15974e-07 0)
(1.07824e-05 -1.09976e-07 0)
(1.09767e-05 -1.02801e-07 0)
(1.11725e-05 -9.43264e-08 0)
(1.13694e-05 -8.44009e-08 0)
(1.15666e-05 -7.28524e-08 0)
(1.17637e-05 -5.9448e-08 0)
(1.19593e-05 -4.39356e-08 0)
(1.21538e-05 -2.59211e-08 0)
(1.23439e-05 -5.25242e-09 0)
(8.71608e-06 -2.31112e-07 0)
(8.87292e-06 -2.29851e-07 0)
(9.03582e-06 -2.29453e-07 0)
(9.20402e-06 -2.2888e-07 0)
(9.37741e-06 -2.27603e-07 0)
(9.55543e-06 -2.25611e-07 0)
(9.73779e-06 -2.22536e-07 0)
(9.92399e-06 -2.18329e-07 0)
(1.01137e-05 -2.12815e-07 0)
(1.03065e-05 -2.05878e-07 0)
(1.05019e-05 -1.97368e-07 0)
(1.06995e-05 -1.87153e-07 0)
(1.08988e-05 -1.75033e-07 0)
(1.10994e-05 -1.60794e-07 0)
(1.13008e-05 -1.44177e-07 0)
(1.15023e-05 -1.24891e-07 0)
(1.17035e-05 -1.02538e-07 0)
(1.19032e-05 -7.67021e-08 0)
(1.21017e-05 -4.67098e-08 0)
(1.22958e-05 -1.23114e-08 0)
(8.44537e-06 -3.51051e-07 0)
(8.62447e-06 -3.45374e-07 0)
(8.80743e-06 -3.41239e-07 0)
(8.99304e-06 -3.37686e-07 0)
(9.18204e-06 -3.33584e-07 0)
(9.37386e-06 -3.28954e-07 0)
(9.56868e-06 -3.23144e-07 0)
(9.7661e-06 -3.16058e-07 0)
(9.96604e-06 -3.0739e-07 0)
(1.01681e-05 -2.96932e-07 0)
(1.03722e-05 -2.84435e-07 0)
(1.05777e-05 -2.69679e-07 0)
(1.07845e-05 -2.52377e-07 0)
(1.09921e-05 -2.32218e-07 0)
(1.12001e-05 -2.08833e-07 0)
(1.14078e-05 -1.81787e-07 0)
(1.16151e-05 -1.50515e-07 0)
(1.18207e-05 -1.14418e-07 0)
(1.2025e-05 -7.25346e-08 0)
(1.2225e-05 -2.4521e-08 0)
(8.09743e-06 -4.96457e-07 0)
(8.30446e-06 -4.82814e-07 0)
(8.51283e-06 -4.71692e-07 0)
(8.7205e-06 -4.62652e-07 0)
(8.92944e-06 -4.5362e-07 0)
(9.13895e-06 -4.44663e-07 0)
(9.34977e-06 -4.34756e-07 0)
(9.56164e-06 -4.23691e-07 0)
(9.77474e-06 -4.10969e-07 0)
(9.98888e-06 -3.96262e-07 0)
(1.0204e-05 -3.79215e-07 0)
(1.04199e-05 -3.59497e-07 0)
(1.06363e-05 -3.36706e-07 0)
(1.08529e-05 -3.10415e-07 0)
(1.10694e-05 -2.80123e-07 0)
(1.12854e-05 -2.45249e-07 0)
(1.15005e-05 -2.05049e-07 0)
(1.17138e-05 -1.58745e-07 0)
(1.19256e-05 -1.05088e-07 0)
(1.2133e-05 -4.3615e-08 0)
(7.68218e-06 -6.71768e-07 0)
(7.92136e-06 -6.46056e-07 0)
(8.15944e-06 -6.2412e-07 0)
(8.39308e-06 -6.06561e-07 0)
(8.62562e-06 -5.90095e-07 0)
(8.8562e-06 -5.74752e-07 0)
(9.0861e-06 -5.59067e-07 0)
(9.31528e-06 -5.42653e-07 0)
(9.54418e-06 -5.24803e-07 0)
(9.77281e-06 -5.05011e-07 0)
(1.00013e-05 -4.82777e-07 0)
(1.02296e-05 -4.57625e-07 0)
(1.04575e-05 -4.29011e-07 0)
(1.0685e-05 -3.96372e-07 0)
(1.09119e-05 -3.59055e-07 0)
(1.11376e-05 -3.16326e-07 0)
(1.13622e-05 -2.6725e-07 0)
(1.15846e-05 -2.10868e-07 0)
(1.18055e-05 -1.45643e-07 0)
(1.20219e-05 -7.09434e-08 0)
(7.21125e-06 -8.79745e-07 0)
(7.48529e-06 -8.37798e-07 0)
(7.75612e-06 -8.01238e-07 0)
(8.01862e-06 -7.71917e-07 0)
(8.27753e-06 -7.45383e-07 0)
(8.53185e-06 -7.21404e-07 0)
(8.78337e-06 -6.98154e-07 0)
(9.03223e-06 -6.74903e-07 0)
(9.27914e-06 -6.50721e-07 0)
(9.52433e-06 -6.24879e-07 0)
(9.76812e-06 -5.96688e-07 0)
(1.00106e-05 -5.65495e-07 0)
(1.02518e-05 -5.30603e-07 0)
(1.04918e-05 -4.91299e-07 0)
(1.07304e-05 -4.46767e-07 0)
(1.09674e-05 -3.96109e-07 0)
(1.12028e-05 -3.38188e-07 0)
(1.14357e-05 -2.71853e-07 0)
(1.16669e-05 -1.95295e-07 0)
(1.18937e-05 -1.07701e-07 0)
(6.69643e-06 -1.12095e-06 0)
(7.00639e-06 -1.05819e-06 0)
(7.31156e-06 -1.00319e-06 0)
(7.60493e-06 -9.58499e-07 0)
(7.89225e-06 -9.19123e-07 0)
(8.17246e-06 -8.84075e-07 0)
(8.44765e-06 -8.5135e-07 0)
(8.71818e-06 -8.19716e-07 0)
(8.98498e-06 -7.8799e-07 0)
(9.2485e-06 -7.55161e-07 0)
(9.50922e-06 -7.20313e-07 0)
(9.76743e-06 -6.82579e-07 0)
(1.00234e-05 -6.41078e-07 0)
(1.02771e-05 -5.94922e-07 0)
(1.05288e-05 -5.43115e-07 0)
(1.07782e-05 -4.8458e-07 0)
(1.10256e-05 -4.17977e-07 0)
(1.12701e-05 -3.41953e-07 0)
(1.15126e-05 -2.54431e-07 0)
(1.17509e-05 -1.5441e-07 0)
(6.15056e-06 -1.39492e-06 0)
(6.49631e-06 -1.30758e-06 0)
(6.83569e-06 -1.23175e-06 0)
(7.16091e-06 -1.16862e-06 0)
(7.47745e-06 -1.11398e-06 0)
(7.78479e-06 -1.06564e-06 0)
(8.08487e-06 -1.02151e-06 0)
(8.3784e-06 -9.79838e-07 0)
(8.66641e-06 -9.39161e-07 0)
(8.94957e-06 -8.98166e-07 0)
(9.22851e-06 -8.5569e-07 0)
(9.5037e-06 -8.10643e-07 0)
(9.77553e-06 -7.61944e-07 0)
(1.00442e-05 -7.08513e-07 0)
(1.031e-05 -6.49162e-07 0)
(1.05729e-05 -5.82616e-07 0)
(1.08331e-05 -5.07349e-07 0)
(1.10902e-05 -4.21797e-07 0)
(1.1345e-05 -3.23657e-07 0)
(1.15956e-05 -2.11754e-07 0)
(5.58382e-06 -1.6966e-06 0)
(5.96502e-06 -1.5792e-06 0)
(6.33688e-06 -1.48e-06 0)
(6.69461e-06 -1.3955e-06 0)
(7.04098e-06 -1.3231e-06 0)
(7.37657e-06 -1.2595e-06 0)
(7.70269e-06 -1.20237e-06 0)
(8.02038e-06 -1.14948e-06 0)
(8.3307e-06 -1.09898e-06 0)
(8.63451e-06 -1.04922e-06 0)
(8.9326e-06 -9.98732e-07 0)
(9.22562e-06 -9.46162e-07 0)
(9.5141e-06 -8.90195e-07 0)
(9.79843e-06 -8.29541e-07 0)
(1.0079e-05 -7.62809e-07 0)
(1.03559e-05 -6.88535e-07 0)
(1.06296e-05 -6.05008e-07 0)
(1.08997e-05 -5.1045e-07 0)
(1.11673e-05 -4.02345e-07 0)
(1.1431e-05 -2.793e-07 0)
(5.16665e-06 -1.98296e-06 0)
(5.56994e-06 -1.84206e-06 0)
(5.96024e-06 -1.72589e-06 0)
(6.33722e-06 -1.62478e-06 0)
(6.70189e-06 -1.53703e-06 0)
(7.0551e-06 -1.45936e-06 0)
(7.39794e-06 -1.38933e-06 0)
(7.73139e-06 -1.32469e-06 0)
(8.05645e-06 -1.26344e-06 0)
(8.374e-06 -1.20379e-06 0)
(8.68485e-06 -1.14412e-06 0)
(8.98968e-06 -1.08293e-06 0)
(9.2891e-06 -1.01876e-06 0)
(9.5836e-06 -9.50184e-07 0)
(9.87363e-06 -8.75694e-07 0)
(1.01595e-05 -7.93705e-07 0)
(1.04416e-05 -7.02445e-07 0)
(1.072e-05 -6.00027e-07 0)
(1.09958e-05 -4.83891e-07 0)
(1.12679e-05 -3.52586e-07 0)
(4.92647e-06 -2.21373e-06 0)
(5.33244e-06 -2.06762e-06 0)
(5.72583e-06 -1.94222e-06 0)
(6.10759e-06 -1.83118e-06 0)
(6.47779e-06 -1.73289e-06 0)
(6.83702e-06 -1.64466e-06 0)
(7.18604e-06 -1.56425e-06 0)
(7.52562e-06 -1.48956e-06 0)
(7.85657e-06 -1.41867e-06 0)
(8.17965e-06 -1.34982e-06 0)
(8.49563e-06 -1.28141e-06 0)
(8.80514e-06 -1.2119e-06 0)
(9.10879e-06 -1.13981e-06 0)
(9.40708e-06 -1.06369e-06 0)
(9.70052e-06 -9.8202e-07 0)
(9.98947e-06 -8.9321e-07 0)
(1.02745e-05 -7.95535e-07 0)
(1.05558e-05 -6.87144e-07 0)
(1.08343e-05 -5.65584e-07 0)
(1.11096e-05 -4.29503e-07 0)
(4.71937e-06 -2.43625e-06 0)
(5.12158e-06 -2.28646e-06 0)
(5.5143e-06 -2.15478e-06 0)
(5.89679e-06 -2.03601e-06 0)
(6.26905e-06 -1.92896e-06 0)
(6.63117e-06 -1.83149e-06 0)
(6.98364e-06 -1.74167e-06 0)
(7.32696e-06 -1.6576e-06 0)
(7.66176e-06 -1.57753e-06 0)
(7.98868e-06 -1.49978e-06 0)
(8.30834e-06 -1.42282e-06 0)
(8.62134e-06 -1.34513e-06 0)
(8.92825e-06 -1.26523e-06 0)
(9.22957e-06 -1.18172e-06 0)
(9.52582e-06 -1.09306e-06 0)
(9.81745e-06 -9.97707e-07 0)
(1.0105e-05 -8.94003e-07 0)
(1.03889e-05 -7.80184e-07 0)
(1.067e-05 -6.53941e-07 0)
(1.09483e-05 -5.14062e-07 0)
(4.536e-06 -2.65085e-06 0)
(4.93257e-06 -2.49914e-06 0)
(5.32192e-06 -2.36266e-06 0)
(5.70247e-06 -2.23747e-06 0)
(6.0742e-06 -2.12286e-06 0)
(6.4368e-06 -2.01718e-06 0)
(6.79055e-06 -1.91879e-06 0)
(7.13567e-06 -1.82606e-06 0)
(7.47264e-06 -1.73739e-06 0)
(7.80191e-06 -1.65125e-06 0)
(8.12403e-06 -1.56615e-06 0)
(8.43948e-06 -1.48065e-06 0)
(8.74879e-06 -1.39332e-06 0)
(9.05244e-06 -1.30278e-06 0)
(9.35095e-06 -1.20755e-06 0)
(9.64481e-06 -1.10615e-06 0)
(9.9346e-06 -9.96989e-07 0)
(1.02208e-05 -8.78435e-07 0)
(1.05043e-05 -7.48361e-07 0)
(1.07854e-05 -6.05706e-07 0)
(4.37402e-06 -2.85642e-06 0)
(4.76319e-06 -2.70404e-06 0)
(5.14716e-06 -2.56434e-06 0)
(5.52372e-06 -2.43428e-06 0)
(5.89289e-06 -2.31353e-06 0)
(6.25402e-06 -2.20085e-06 0)
(6.60721e-06 -2.09494e-06 0)
(6.95246e-06 -1.99442e-06 0)
(7.2901e-06 -1.89787e-06 0)
(7.62042e-06 -1.80391e-06 0)
(7.94383e-06 -1.71119e-06 0)
(8.26076e-06 -1.61832e-06 0)
(8.57165e-06 -1.52396e-06 0)
(8.87697e-06 -1.42679e-06 0)
(9.1772e-06 -1.3254e-06 0)
(9.47285e-06 -1.21841e-06 0)
(9.76452e-06 -1.10431e-06 0)
(1.00527e-05 -9.81623e-07 0)
(1.03384e-05 -8.48441e-07 0)
(1.06221e-05 -7.03862e-07 0)
(4.22975e-06 -3.05309e-06 0)
(4.6106e-06 -2.90103e-06 0)
(4.98793e-06 -2.75925e-06 0)
(5.35908e-06 -2.6255e-06 0)
(5.72418e-06 -2.49976e-06 0)
(6.08231e-06 -2.38118e-06 0)
(6.43345e-06 -2.26872e-06 0)
(6.77746e-06 -2.16127e-06 0)
(7.11449e-06 -2.05762e-06 0)
(7.44471e-06 -1.95653e-06 0)
(7.76842e-06 -1.85678e-06 0)
(8.08595e-06 -1.7571e-06 0)
(8.39768e-06 -1.65622e-06 0)
(8.70404e-06 -1.55293e-06 0)
(9.00548e-06 -1.44589e-06 0)
(9.3025e-06 -1.33383e-06 0)
(9.59569e-06 -1.21537e-06 0)
(9.88563e-06 -1.08917e-06 0)
(1.01732e-05 -9.53575e-07 0)
(1.04592e-05 -8.07821e-07 0)
(4.10032e-06 -3.24103e-06 0)
(4.47235e-06 -3.08999e-06 0)
(4.84216e-06 -2.94708e-06 0)
(5.20694e-06 -2.81067e-06 0)
(5.56686e-06 -2.68102e-06 0)
(5.92086e-06 -2.55755e-06 0)
(6.26883e-06 -2.43952e-06 0)
(6.61049e-06 -2.32602e-06 0)
(6.94587e-06 -2.21606e-06 0)
(7.27503e-06 -2.10856e-06 0)
(7.59817e-06 -2.00244e-06 0)
(7.91554e-06 -1.89653e-06 0)
(8.22747e-06 -1.78969e-06 0)
(8.53431e-06 -1.68081e-06 0)
(8.83649e-06 -1.56863e-06 0)
(9.13449e-06 -1.45204e-06 0)
(9.42887e-06 -1.32976e-06 0)
(9.72026e-06 -1.20062e-06 0)
(1.00095e-05 -1.06321e-06 0)
(1.02974e-05 -9.16894e-07 0)
(3.98304e-06 -3.42064e-06 0)
(4.34606e-06 -3.27111e-06 0)
(4.70787e-06 -3.12778e-06 0)
(5.06569e-06 -2.98954e-06 0)
(5.41967e-06 -2.85686e-06 0)
(5.76871e-06 -2.72939e-06 0)
(6.11265e-06 -2.60666e-06 0)
(6.45109e-06 -2.48797e-06 0)
(6.78399e-06 -2.37247e-06 0)
(7.11131e-06 -2.2593e-06 0)
(7.43318e-06 -2.14748e-06 0)
(7.74976e-06 -2.03599e-06 0)
(8.06132e-06 -1.92379e-06 0)
(8.36816e-06 -1.80988e-06 0)
(8.67067e-06 -1.69312e-06 0)
(8.96931e-06 -1.57253e-06 0)
(9.2646e-06 -1.44696e-06 0)
(9.55717e-06 -1.31542e-06 0)
(9.84782e-06 -1.17672e-06 0)
(1.01374e-05 -1.03037e-06 0)
(3.87552e-06 -3.59246e-06 0)
(4.22954e-06 -3.44473e-06 0)
(4.58315e-06 -3.30149e-06 0)
(4.93366e-06 -3.16208e-06 0)
(5.28123e-06 -3.02711e-06 0)
(5.62476e-06 -2.89645e-06 0)
(5.96405e-06 -2.76983e-06 0)
(6.29865e-06 -2.64672e-06 0)
(6.62844e-06 -2.52646e-06 0)
(6.95333e-06 -2.40833e-06 0)
(7.27337e-06 -2.2915e-06 0)
(7.58865e-06 -2.17506e-06 0)
(7.8994e-06 -2.05811e-06 0)
(8.20585e-06 -1.93976e-06 0)
(8.50835e-06 -1.81897e-06 0)
(8.80733e-06 -1.6949e-06 0)
(9.10325e-06 -1.56656e-06 0)
(9.39678e-06 -1.43309e-06 0)
(9.68855e-06 -1.29355e-06 0)
(9.97954e-06 -1.14756e-06 0)
(3.77564e-06 -3.75705e-06 0)
(4.12082e-06 -3.61125e-06 0)
(4.4662e-06 -3.46847e-06 0)
(4.80926e-06 -3.3284e-06 0)
(5.15017e-06 -3.19176e-06 0)
(5.48787e-06 -3.05859e-06 0)
(5.82212e-06 -2.92879e-06 0)
(6.15245e-06 -2.80199e-06 0)
(6.47869e-06 -2.67769e-06 0)
(6.80072e-06 -2.55529e-06 0)
(7.11851e-06 -2.43413e-06 0)
(7.43211e-06 -2.31339e-06 0)
(7.74169e-06 -2.19229e-06 0)
(8.04744e-06 -2.07006e-06 0)
(8.34964e-06 -1.94579e-06 0)
(8.6487e-06 -1.81875e-06 0)
(8.94503e-06 -1.68811e-06 0)
(9.23926e-06 -1.55314e-06 0)
(9.53193e-06 -1.41313e-06 0)
(9.82409e-06 -1.26783e-06 0)
(3.68151e-06 -3.91498e-06 0)
(4.0181e-06 -3.77115e-06 0)
(4.35538e-06 -3.62906e-06 0)
(4.69101e-06 -3.48872e-06 0)
(5.02519e-06 -3.35092e-06 0)
(5.35689e-06 -3.21583e-06 0)
(5.68587e-06 -3.08349e-06 0)
(6.01168e-06 -2.95365e-06 0)
(6.3341e-06 -2.82597e-06 0)
(6.65297e-06 -2.69998e-06 0)
(6.96822e-06 -2.57512e-06 0)
(7.27987e-06 -2.45069e-06 0)
(7.58801e-06 -2.32604e-06 0)
(7.89281e-06 -2.20049e-06 0)
(8.1945e-06 -2.07326e-06 0)
(8.49343e-06 -1.94373e-06 0)
(8.78997e-06 -1.81121e-06 0)
(9.08467e-06 -1.67512e-06 0)
(9.37807e-06 -1.53494e-06 0)
(9.67112e-06 -1.39055e-06 0)
(3.59143e-06 -4.0668e-06 0)
(3.91975e-06 -3.92489e-06 0)
(4.24912e-06 -3.78365e-06 0)
(4.57748e-06 -3.64333e-06 0)
(4.90497e-06 -3.50478e-06 0)
(5.23066e-06 -3.36826e-06 0)
(5.55431e-06 -3.23393e-06 0)
(5.87547e-06 -3.10166e-06 0)
(6.19392e-06 -2.97121e-06 0)
(6.50947e-06 -2.84224e-06 0)
(6.82202e-06 -2.7143e-06 0)
(7.13154e-06 -2.58678e-06 0)
(7.43808e-06 -2.45913e-06 0)
(7.74177e-06 -2.3308e-06 0)
(8.04278e-06 -2.20109e-06 0)
(8.34142e-06 -2.06952e-06 0)
(8.638e-06 -1.93551e-06 0)
(8.93302e-06 -1.79862e-06 0)
(9.22697e-06 -1.65852e-06 0)
(9.52069e-06 -1.51514e-06 0)
(3.50384e-06 -4.21304e-06 0)
(3.82424e-06 -4.07294e-06 0)
(4.14599e-06 -3.93264e-06 0)
(4.46728e-06 -3.79257e-06 0)
(4.78824e-06 -3.6536e-06 0)
(5.10802e-06 -3.51606e-06 0)
(5.42639e-06 -3.38022e-06 0)
(5.74293e-06 -3.24606e-06 0)
(6.05741e-06 -3.11342e-06 0)
(6.3696e-06 -2.98204e-06 0)
(6.67938e-06 -2.85158e-06 0)
(6.9867e-06 -2.72154e-06 0)
(7.29155e-06 -2.59143e-06 0)
(7.59403e-06 -2.46081e-06 0)
(7.89426e-06 -2.32908e-06 0)
(8.19249e-06 -2.19586e-06 0)
(8.48897e-06 -2.06069e-06 0)
(8.78418e-06 -1.92328e-06 0)
(9.07849e-06 -1.78342e-06 0)
(9.37271e-06 -1.64112e-06 0)
(3.41731e-06 -4.35413e-06 0)
(3.73013e-06 -4.21578e-06 0)
(4.04457e-06 -4.07643e-06 0)
(4.35908e-06 -3.93676e-06 0)
(4.67375e-06 -3.79764e-06 0)
(4.98783e-06 -3.65945e-06 0)
(5.30112e-06 -3.52256e-06 0)
(5.61317e-06 -3.38699e-06 0)
(5.92376e-06 -3.25266e-06 0)
(6.23265e-06 -3.11941e-06 0)
(6.5397e-06 -2.98696e-06 0)
(6.8448e-06 -2.85489e-06 0)
(7.14795e-06 -2.72282e-06 0)
(7.44918e-06 -2.59036e-06 0)
(7.74857e-06 -2.45703e-06 0)
(8.04631e-06 -2.32251e-06 0)
(8.34261e-06 -2.18649e-06 0)
(8.63791e-06 -2.04876e-06 0)
(8.93243e-06 -1.90925e-06 0)
(9.22699e-06 -1.76807e-06 0)
(3.33036e-06 -4.49055e-06 0)
(3.63597e-06 -4.35377e-06 0)
(3.94348e-06 -4.21543e-06 0)
(4.25155e-06 -4.07631e-06 0)
(4.56028e-06 -3.93728e-06 0)
(4.86899e-06 -3.79878e-06 0)
(5.17745e-06 -3.66121e-06 0)
(5.48525e-06 -3.52465e-06 0)
(5.79215e-06 -3.3891e-06 0)
(6.0979e-06 -3.25444e-06 0)
(6.40234e-06 -3.12049e-06 0)
(6.70534e-06 -2.98687e-06 0)
(7.00685e-06 -2.85328e-06 0)
(7.30686e-06 -2.7194e-06 0)
(7.6054e-06 -2.58482e-06 0)
(7.90264e-06 -2.44933e-06 0)
(8.19873e-06 -2.3127e-06 0)
(8.49399e-06 -2.17481e-06 0)
(8.78866e-06 -2.03572e-06 0)
(9.08339e-06 -1.8956e-06 0)
(3.24162e-06 -4.6226e-06 0)
(3.54038e-06 -4.48747e-06 0)
(3.84128e-06 -4.35003e-06 0)
(4.1434e-06 -4.21156e-06 0)
(4.44662e-06 -4.07285e-06 0)
(4.75037e-06 -3.93433e-06 0)
(5.05439e-06 -3.79642e-06 0)
(5.35828e-06 -3.65927e-06 0)
(5.66179e-06 -3.52291e-06 0)
(5.96465e-06 -3.3873e-06 0)
(6.26669e-06 -3.25227e-06 0)
(6.56774e-06 -3.11753e-06 0)
(6.86773e-06 -2.98282e-06 0)
(7.16659e-06 -2.84788e-06 0)
(7.46434e-06 -2.71237e-06 0)
(7.76108e-06 -2.57618e-06 0)
(8.05693e-06 -2.43914e-06 0)
(8.35212e-06 -2.3012e-06 0)
(8.64686e-06 -2.16255e-06 0)
(8.94167e-06 -2.0234e-06 0)
(3.14966e-06 -4.75088e-06 0)
(3.44174e-06 -4.61689e-06 0)
(3.73639e-06 -4.48066e-06 0)
(4.03328e-06 -4.34312e-06 0)
(4.33149e-06 -4.2049e-06 0)
(4.63085e-06 -4.0666e-06 0)
(4.9309e-06 -3.92865e-06 0)
(5.23134e-06 -3.79124e-06 0)
(5.53187e-06 -3.65442e-06 0)
(5.8322e-06 -3.51822e-06 0)
(6.13214e-06 -3.3825e-06 0)
(6.43148e-06 -3.247e-06 0)
(6.73012e-06 -3.11151e-06 0)
(7.02797e-06 -2.97583e-06 0)
(7.32501e-06 -2.83968e-06 0)
(7.62132e-06 -2.703e-06 0)
(7.91693e-06 -2.56567e-06 0)
(8.21204e-06 -2.42776e-06 0)
(8.50676e-06 -2.28952e-06 0)
(8.80159e-06 -2.15123e-06 0)
(3.05226e-06 -4.87522e-06 0)
(3.33869e-06 -4.74257e-06 0)
(3.62821e-06 -4.60781e-06 0)
(3.92005e-06 -4.47124e-06 0)
(4.21394e-06 -4.33373e-06 0)
(4.50942e-06 -4.19591e-06 0)
(4.80613e-06 -4.0582e-06 0)
(5.10368e-06 -3.92084e-06 0)
(5.40173e-06 -3.78392e-06 0)
(5.69999e-06 -3.64746e-06 0)
(5.99819e-06 -3.51137e-06 0)
(6.29612e-06 -3.37542e-06 0)
(6.59363e-06 -3.23945e-06 0)
(6.89065e-06 -3.1033e-06 0)
(7.18711e-06 -2.96675e-06 0)
(7.48303e-06 -2.82973e-06 0)
(7.77842e-06 -2.69222e-06 0)
(8.07348e-06 -2.55435e-06 0)
(8.36819e-06 -2.41647e-06 0)
(8.66293e-06 -2.2789e-06 0)
(2.94818e-06 -4.997e-06 0)
(3.22941e-06 -4.86595e-06 0)
(3.51425e-06 -4.73234e-06 0)
(3.802e-06 -4.59684e-06 0)
(4.09237e-06 -4.46021e-06 0)
(4.38484e-06 -4.32305e-06 0)
(4.679e-06 -4.18581e-06 0)
(4.9744e-06 -4.04875e-06 0)
(5.27065e-06 -3.91195e-06 0)
(5.56738e-06 -3.77547e-06 0)
(5.86431e-06 -3.63924e-06 0)
(6.16121e-06 -3.50309e-06 0)
(6.45791e-06 -3.36687e-06 0)
(6.75426e-06 -3.23046e-06 0)
(7.05024e-06 -3.09361e-06 0)
(7.34585e-06 -2.95637e-06 0)
(7.64109e-06 -2.81877e-06 0)
(7.93608e-06 -2.68091e-06 0)
(8.23082e-06 -2.54324e-06 0)
(8.52552e-06 -2.40622e-06 0)
(2.83606e-06 -5.11521e-06 0)
(3.11275e-06 -4.98596e-06 0)
(3.39372e-06 -4.85399e-06 0)
(3.67833e-06 -4.71988e-06 0)
(3.96613e-06 -4.58443e-06 0)
(4.25655e-06 -4.44823e-06 0)
(4.54907e-06 -4.31175e-06 0)
(4.84316e-06 -4.17522e-06 0)
(5.13834e-06 -4.03875e-06 0)
(5.43421e-06 -3.90245e-06 0)
(5.73042e-06 -3.76631e-06 0)
(6.02668e-06 -3.63013e-06 0)
(6.32282e-06 -3.49379e-06 0)
(6.61871e-06 -3.35724e-06 0)
(6.91429e-06 -3.22029e-06 0)
(7.20961e-06 -3.08292e-06 0)
(7.50473e-06 -2.94524e-06 0)
(7.79967e-06 -2.80736e-06 0)
(8.09453e-06 -2.66977e-06 0)
(8.38933e-06 -2.53306e-06 0)
(2.12464e-07 -4.46817e-06 0)
(6.40444e-07 -4.40195e-06 0)
(1.07762e-06 -4.27217e-06 0)
(1.52919e-06 -4.08401e-06 0)
(1.99942e-06 -3.84472e-06 0)
(2.49096e-06 -3.56322e-06 0)
(3.00485e-06 -3.24982e-06 0)
(3.54021e-06 -2.91528e-06 0)
(4.09487e-06 -2.57059e-06 0)
(4.66473e-06 -2.22458e-06 0)
(2.06292e-07 -4.53874e-06 0)
(6.21468e-07 -4.47822e-06 0)
(1.04434e-06 -4.35955e-06 0)
(1.47929e-06 -4.1871e-06 0)
(1.92995e-06 -3.96705e-06 0)
(2.39862e-06 -3.70697e-06 0)
(2.88628e-06 -3.41564e-06 0)
(3.39201e-06 -3.10236e-06 0)
(3.91325e-06 -2.77709e-06 0)
(4.44688e-06 -2.44691e-06 0)
(2.00884e-07 -4.61099e-06 0)
(6.04798e-07 -4.55565e-06 0)
(1.01501e-06 -4.44703e-06 0)
(1.43509e-06 -4.28894e-06 0)
(1.86805e-06 -4.08672e-06 0)
(2.31586e-06 -3.84694e-06 0)
(2.77949e-06 -3.57709e-06 0)
(3.25869e-06 -3.28501e-06 0)
(3.7516e-06 -2.9793e-06 0)
(4.25625e-06 -2.66436e-06 0)
(1.96088e-07 -4.68509e-06 0)
(5.90036e-07 -4.63415e-06 0)
(9.89267e-07 -4.53413e-06 0)
(1.39667e-06 -4.38832e-06 0)
(1.81478e-06 -4.20145e-06 0)
(2.2452e-06 -3.97924e-06 0)
(2.68866e-06 -3.72833e-06 0)
(3.1449e-06 -3.45558e-06 0)
(3.61241e-06 -3.169e-06 0)
(4.08946e-06 -2.87192e-06 0)
(1.91675e-07 -4.761e-06 0)
(5.76461e-07 -4.714e-06 0)
(9.65651e-07 -4.62167e-06 0)
(1.3616e-06 -4.48691e-06 0)
(1.76644e-06 -4.31393e-06 0)
(2.18148e-06 -4.10781e-06 0)
(2.6074e-06 -3.87441e-06 0)
(3.04398e-06 -3.61959e-06 0)
(3.49016e-06 -3.3506e-06 0)
(3.94351e-06 -3.07042e-06 0)
(1.87562e-07 -4.83863e-06 0)
(5.63901e-07 -4.79504e-06 0)
(9.43929e-07 -4.70938e-06 0)
(1.32962e-06 -4.58427e-06 0)
(1.72275e-06 -4.42347e-06 0)
(2.12434e-06 -4.23156e-06 0)
(2.53496e-06 -4.01385e-06 0)
(2.95424e-06 -3.77552e-06 0)
(3.38173e-06 -3.52311e-06 0)
(3.8144e-06 -3.25965e-06 0)
(1.83633e-07 -4.91786e-06 0)
(5.51945e-07 -4.87732e-06 0)
(9.2337e-07 -4.7976e-06 0)
(1.29959e-06 -4.68113e-06 0)
(1.68205e-06 -4.53125e-06 0)
(2.07164e-06 -4.35214e-06 0)
(2.46882e-06 -4.14861e-06 0)
(2.87307e-06 -3.92529e-06 0)
(3.28439e-06 -3.688e-06 0)
(3.69922e-06 -3.44011e-06 0)
(1.7986e-07 -4.99852e-06 0)
(5.40448e-07 -4.96067e-06 0)
(9.03718e-07 -4.88621e-06 0)
(1.27109e-06 -4.77737e-06 0)
(1.64378e-06 -4.6372e-06 0)
(2.02249e-06 -4.46952e-06 0)
(2.40766e-06 -4.27875e-06 0)
(2.79861e-06 -4.06911e-06 0)
(3.19571e-06 -3.84576e-06 0)
(3.59515e-06 -3.61235e-06 0)
(1.76151e-07 -5.08047e-06 0)
(5.29184e-07 -5.04503e-06 0)
(8.84572e-07 -4.97526e-06 0)
(1.24351e-06 -4.87326e-06 0)
(1.60708e-06 -4.74181e-06 0)
(1.97581e-06 -4.5844e-06 0)
(2.35013e-06 -4.40512e-06 0)
(2.72925e-06 -4.20788e-06 0)
(3.11375e-06 -3.99722e-06 0)
(3.49981e-06 -3.77706e-06 0)
(1.72448e-07 -5.1635e-06 0)
(5.18017e-07 -5.13021e-06 0)
(8.6568e-07 -5.06465e-06 0)
(1.21647e-06 -4.96876e-06 0)
(1.57137e-06 -4.84512e-06 0)
(1.9308e-06 -4.69696e-06 0)
(2.29514e-06 -4.52804e-06 0)
(2.66359e-06 -4.34205e-06 0)
(3.03681e-06 -4.143e-06 0)
(3.41114e-06 -3.9349e-06 0)
(1.68716e-07 -5.24742e-06 0)
(5.06803e-07 -5.21609e-06 0)
(8.46765e-07 -5.15431e-06 0)
(1.18958e-06 -5.06392e-06 0)
(1.53609e-06 -4.94733e-06 0)
(1.8867e-06 -4.80752e-06 0)
(2.24175e-06 -4.64795e-06 0)
(2.60044e-06 -4.47215e-06 0)
(2.96344e-06 -4.28367e-06 0)
(3.32734e-06 -4.08653e-06 0)
(1.64927e-07 -5.332e-06 0)
(4.95407e-07 -5.30245e-06 0)
(8.27597e-07 -5.24408e-06 0)
(1.16247e-06 -5.15867e-06 0)
(1.50077e-06 -5.04846e-06 0)
(1.84287e-06 -4.91621e-06 0)
(2.18911e-06 -4.76513e-06 0)
(2.53872e-06 -4.59856e-06 0)
(2.89232e-06 -4.4197e-06 0)
(3.24683e-06 -4.2325e-06 0)
(1.61029e-07 -5.41704e-06 0)
(4.8367e-07 -5.38909e-06 0)
(8.07926e-07 -5.33384e-06 0)
(1.13477e-06 -5.25295e-06 0)
(1.46489e-06 -5.14854e-06 0)
(1.79865e-06 -5.02316e-06 0)
(2.1364e-06 -4.8798e-06 0)
(2.47741e-06 -4.72163e-06 0)
(2.82225e-06 -4.55153e-06 0)
(3.16819e-06 -4.37335e-06 0)
(1.56963e-07 -5.50223e-06 0)
(4.7144e-07 -5.47573e-06 0)
(7.87503e-07 -5.42334e-06 0)
(1.10612e-06 -5.34659e-06 0)
(1.42797e-06 -5.24747e-06 0)
(1.75342e-06 -5.12838e-06 0)
(2.08284e-06 -4.99208e-06 0)
(2.41556e-06 -4.84156e-06 0)
(2.75208e-06 -4.67949e-06 0)
(3.09003e-06 -4.5095e-06 0)
(1.52672e-07 -5.58732e-06 0)
(4.58563e-07 -5.56214e-06 0)
(7.66061e-07 -5.5124e-06 0)
(1.07614e-06 -5.43948e-06 0)
(1.38949e-06 -5.34524e-06 0)
(1.70652e-06 -5.23194e-06 0)
(2.02759e-06 -5.10213e-06 0)
(2.35216e-06 -4.95864e-06 0)
(2.68064e-06 -4.80392e-06 0)
(3.01099e-06 -4.64138e-06 0)
(1.48105e-07 -5.67183e-06 0)
(4.44883e-07 -5.64788e-06 0)
(7.43322e-07 -5.60062e-06 0)
(1.04441e-06 -5.53126e-06 0)
(1.34891e-06 -5.44156e-06 0)
(1.65724e-06 -5.33363e-06 0)
(1.96981e-06 -5.20984e-06 0)
(2.28623e-06 -5.07285e-06 0)
(2.60675e-06 -4.92492e-06 0)
(2.92974e-06 -4.76921e-06 0)
(1.432e-07 -5.75563e-06 0)
(4.30197e-07 -5.73285e-06 0)
(7.18931e-07 -5.68792e-06 0)
(1.01044e-06 -5.62191e-06 0)
(1.30556e-06 -5.53648e-06 0)
(1.60478e-06 -5.43359e-06 0)
(1.90854e-06 -5.31545e-06 0)
(2.21657e-06 -5.18452e-06 0)
(2.52912e-06 -5.04291e-06 0)
(2.84478e-06 -4.89359e-06 0)
(1.37884e-07 -5.83775e-06 0)
(4.14277e-07 -5.81609e-06 0)
(6.92517e-07 -5.77337e-06 0)
(9.73705e-07 -5.71058e-06 0)
(1.25877e-06 -5.62923e-06 0)
(1.54828e-06 -5.53115e-06 0)
(1.84275e-06 -5.41838e-06 0)
(2.14201e-06 -5.2932e-06 0)
(2.4463e-06 -5.15757e-06 0)
(2.75455e-06 -5.01428e-06 0)
(1.3204e-07 -5.91864e-06 0)
(3.96785e-07 -5.89806e-06 0)
(6.63516e-07 -5.85749e-06 0)
(9.33429e-07 -5.79781e-06 0)
(1.20754e-06 -5.72042e-06 0)
(1.48654e-06 -5.62699e-06 0)
(1.77101e-06 -5.51939e-06 0)
(2.06096e-06 -5.39975e-06 0)
(2.35661e-06 -5.26989e-06 0)
(2.65721e-06 -5.13234e-06 0)
(1.2562e-07 -5.99567e-06 0)
(3.77581e-07 -5.97619e-06 0)
(6.31692e-07 -5.93776e-06 0)
(8.89243e-07 -5.88119e-06 0)
(1.15138e-06 -5.80775e-06 0)
(1.41893e-06 -5.71898e-06 0)
(1.69257e-06 -5.61656e-06 0)
(1.97253e-06 -5.50246e-06 0)
(2.25902e-06 -5.3784e-06 0)
(2.5516e-06 -5.24668e-06 0)
)


// ************************************************************************* //
