/*--------------------------------*- C++ -*----------------------------------*\
| =========                 |                                                 |
| \\      /  F ield         | foam-extend: Open Source CFD                    |
|  \\    /   O peration     | Version:     4.1                                |
|   \\  /    A nd           | Web:         http://www.foam-extend.org         |
|    \\/     M anipulation  |                                                 |
\*---------------------------------------------------------------------------*/
FoamFile
{
    version     2.0;
    format      ascii;
    class       vectorField;
    location    "10";
    object      solidsCellD_iteration10;
}
// * * * * * * * * * * * * * * * * * * * * * * * * * * * * * * * * * * * * * //


1000
(
(5.22033e-06 -2.23418e-06 0)
(4.92306e-06 -2.07813e-06 0)
(4.73271e-06 -1.97872e-06 0)
(4.62297e-06 -1.93174e-06 0)
(4.56872e-06 -1.91469e-06 0)
(4.555e-06 -1.92078e-06 0)
(4.57107e-06 -1.94193e-06 0)
(4.60955e-06 -1.9743e-06 0)
(4.66482e-06 -2.01423e-06 0)
(4.73313e-06 -2.05953e-06 0)
(4.71978e-06 -2.44034e-06 0)
(4.40321e-06 -2.33127e-06 0)
(4.20073e-06 -2.26155e-06 0)
(4.08208e-06 -2.23476e-06 0)
(4.02093e-06 -2.23109e-06 0)
(4.00099e-06 -2.24664e-06 0)
(4.01113e-06 -2.27455e-06 0)
(4.04346e-06 -2.31195e-06 0)
(4.09211e-06 -2.35606e-06 0)
(4.15254e-06 -2.40388e-06 0)
(4.19981e-06 -2.63572e-06 0)
(3.87642e-06 -2.57918e-06 0)
(3.66974e-06 -2.5427e-06 0)
(3.54725e-06 -2.53821e-06 0)
(3.48238e-06 -2.54913e-06 0)
(3.45818e-06 -2.57475e-06 0)
(3.46348e-06 -2.6097e-06 0)
(3.49031e-06 -2.65211e-06 0)
(3.53277e-06 -2.70021e-06 0)
(3.58637e-06 -2.75074e-06 0)
(3.66432e-06 -2.81689e-06 0)
(3.34764e-06 -2.81548e-06 0)
(3.14535e-06 -2.81389e-06 0)
(3.02441e-06 -2.83267e-06 0)
(2.95917e-06 -2.85874e-06 0)
(2.93277e-06 -2.89473e-06 0)
(2.93438e-06 -2.93675e-06 0)
(2.95628e-06 -2.98416e-06 0)
(2.99291e-06 -3.03606e-06 0)
(3.03968e-06 -3.0895e-06 0)
(3.11696e-06 -2.98029e-06 0)
(2.82045e-06 -3.03352e-06 0)
(2.63113e-06 -3.06653e-06 0)
(2.51731e-06 -3.1083e-06 0)
(2.45508e-06 -3.14927e-06 0)
(2.42846e-06 -3.19542e-06 0)
(2.42753e-06 -3.24429e-06 0)
(2.44503e-06 -3.29658e-06 0)
(2.47603e-06 -3.3521e-06 0)
(2.51593e-06 -3.40856e-06 0)
(2.56041e-06 -3.12258e-06 0)
(2.2972e-06 -3.22692e-06 0)
(2.12923e-06 -3.29234e-06 0)
(2.02772e-06 -3.35562e-06 0)
(1.97167e-06 -3.4105e-06 0)
(1.94677e-06 -3.46608e-06 0)
(1.94442e-06 -3.52128e-06 0)
(1.95806e-06 -3.57809e-06 0)
(1.98347e-06 -3.63692e-06 0)
(2.01631e-06 -3.69633e-06 0)
(1.99738e-06 -3.24055e-06 0)
(1.77911e-06 -3.3897e-06 0)
(1.63987e-06 -3.48354e-06 0)
(1.55542e-06 -3.56565e-06 0)
(1.50848e-06 -3.63267e-06 0)
(1.48712e-06 -3.6965e-06 0)
(1.48428e-06 -3.75721e-06 0)
(1.49443e-06 -3.818e-06 0)
(1.51421e-06 -3.87971e-06 0)
(1.53984e-06 -3.94179e-06 0)
(1.42977e-06 -3.33156e-06 0)
(1.26627e-06 -3.5167e-06 0)
(1.16202e-06 -3.63334e-06 0)
(1.09868e-06 -3.73052e-06 0)
(1.06331e-06 -3.80733e-06 0)
(1.04695e-06 -3.87778e-06 0)
(1.04433e-06 -3.94294e-06 0)
(1.05129e-06 -4.00694e-06 0)
(1.06543e-06 -4.07095e-06 0)
(1.08377e-06 -4.13526e-06 0)
(8.59154e-07 -3.39343e-06 0)
(7.57932e-07 -3.60372e-06 0)
(6.93424e-07 -3.73631e-06 0)
(6.54122e-07 -3.84409e-06 0)
(6.32069e-07 -3.92773e-06 0)
(6.21752e-07 -4.00278e-06 0)
(6.19947e-07 -4.07106e-06 0)
(6.24033e-07 -4.13736e-06 0)
(6.32508e-07 -4.20301e-06 0)
(6.43512e-07 -4.26892e-06 0)
(2.86933e-07 -3.42459e-06 0)
(2.52641e-07 -3.64789e-06 0)
(2.30702e-07 -3.7887e-06 0)
(2.17334e-07 -3.90193e-06 0)
(2.09858e-07 -3.9891e-06 0)
(2.06305e-07 -4.06657e-06 0)
(2.05589e-07 -4.13644e-06 0)
(2.06904e-07 -4.2039e-06 0)
(2.09733e-07 -4.2704e-06 0)
(2.1339e-07 -4.33716e-06 0)
(8.15274e-06 -1.02005e-07 0)
(8.22699e-06 -7.34945e-08 0)
(8.27137e-06 -5.53914e-08 0)
(8.31904e-06 -4.47108e-08 0)
(8.37075e-06 -3.87377e-08 0)
(8.43426e-06 -3.59547e-08 0)
(8.50947e-06 -3.53154e-08 0)
(8.59732e-06 -3.60252e-08 0)
(8.69758e-06 -3.77934e-08 0)
(8.80891e-06 -3.9952e-08 0)
(8.09219e-06 -3.06012e-07 0)
(8.1541e-06 -2.22145e-07 0)
(8.19075e-06 -1.68962e-07 0)
(8.23323e-06 -1.37745e-07 0)
(8.28151e-06 -1.20418e-07 0)
(8.34256e-06 -1.12313e-07 0)
(8.41604e-06 -1.10552e-07 0)
(8.50247e-06 -1.12943e-07 0)
(8.60151e-06 -1.183e-07 0)
(8.71154e-06 -1.24698e-07 0)
(7.9713e-06 -5.11725e-07 0)
(8.00965e-06 -3.77097e-07 0)
(8.03141e-06 -2.91796e-07 0)
(8.064e-06 -2.41731e-07 0)
(8.10576e-06 -2.14101e-07 0)
(8.16221e-06 -2.01478e-07 0)
(8.23228e-06 -1.98995e-07 0)
(8.31597e-06 -2.0316e-07 0)
(8.41268e-06 -2.12062e-07 0)
(8.52021e-06 -2.22764e-07 0)
(7.79222e-06 -7.20049e-07 0)
(7.79707e-06 -5.41908e-07 0)
(7.79759e-06 -4.29131e-07 0)
(7.81614e-06 -3.63232e-07 0)
(7.84857e-06 -3.27028e-07 0)
(7.89846e-06 -3.1082e-07 0)
(7.96372e-06 -3.08073e-07 0)
(8.04353e-06 -3.14277e-07 0)
(8.13694e-06 -3.26753e-07 0)
(8.24097e-06 -3.41803e-07 0)
(7.55775e-06 -9.31513e-07 0)
(7.52121e-06 -7.19562e-07 0)
(7.49546e-06 -5.8538e-07 0)
(7.49659e-06 -5.07498e-07 0)
(7.5175e-06 -4.65069e-07 0)
(7.55923e-06 -4.46684e-07 0)
(7.61849e-06 -4.44433e-07 0)
(7.69343e-06 -4.53035e-07 0)
(7.78273e-06 -4.69088e-07 0)
(7.88252e-06 -4.88467e-07 0)
(7.27144e-06 -1.14623e-06 0)
(7.18805e-06 -9.12001e-07 0)
(7.13265e-06 -7.63639e-07 0)
(7.11409e-06 -6.78328e-07 0)
(7.1219e-06 -6.32473e-07 0)
(7.15431e-06 -6.13587e-07 0)
(7.20674e-06 -6.12709e-07 0)
(7.27613e-06 -6.2408e-07 0)
(7.36067e-06 -6.43726e-07 0)
(7.45567e-06 -6.67415e-07 0)
(6.93757e-06 -1.36379e-06 0)
(6.80467e-06 -1.12002e-06 0)
(6.71795e-06 -9.65499e-07 0)
(6.67857e-06 -8.7781e-07 0)
(6.6725e-06 -8.31582e-07 0)
(6.69499e-06 -8.14032e-07 0)
(6.74006e-06 -8.1552e-07 0)
(6.80346e-06 -8.30088e-07 0)
(6.88277e-06 -8.5341e-07 0)
(6.97272e-06 -8.81352e-07 0)
(6.56062e-06 -1.58317e-06 0)
(6.37865e-06 -1.34308e-06 0)
(6.26092e-06 -1.19074e-06 0)
(6.2008e-06 -1.10593e-06 0)
(6.18087e-06 -1.06252e-06 0)
(6.19332e-06 -1.04823e-06 0)
(6.2308e-06 -1.05313e-06 0)
(6.28799e-06 -1.07142e-06 0)
(6.36173e-06 -1.09853e-06 0)
(6.44648e-06 -1.13075e-06 0)
(6.14549e-06 -1.80284e-06 0)
(5.91792e-06 -1.57934e-06 0)
(5.7714e-06 -1.43743e-06 0)
(5.69188e-06 -1.36065e-06 0)
(5.65885e-06 -1.32322e-06 0)
(5.66161e-06 -1.31405e-06 0)
(5.69154e-06 -1.32344e-06 0)
(5.74248e-06 -1.34593e-06 0)
(5.81037e-06 -1.37715e-06 0)
(5.88997e-06 -1.41344e-06 0)
(5.69712e-06 -2.02072e-06 0)
(5.4303e-06 -1.82576e-06 0)
(5.25901e-06 -1.70183e-06 0)
(5.16259e-06 -1.63792e-06 0)
(5.11788e-06 -1.60942e-06 0)
(5.11179e-06 -1.60714e-06 0)
(5.13462e-06 -1.62199e-06 0)
(5.17935e-06 -1.64934e-06 0)
(5.24141e-06 -1.68484e-06 0)
(5.31558e-06 -1.7267e-06 0)
(8.93163e-06 -4.20783e-08 0)
(9.06546e-06 -4.24825e-08 0)
(9.20783e-06 -4.29864e-08 0)
(9.35825e-06 -4.33292e-08 0)
(9.51577e-06 -4.34688e-08 0)
(9.67978e-06 -4.33877e-08 0)
(9.84956e-06 -4.30204e-08 0)
(1.00244e-05 -4.23939e-08 0)
(1.02038e-05 -4.15048e-08 0)
(1.03872e-05 -4.03096e-08 0)
(1.0574e-05 -3.8765e-08 0)
(1.07637e-05 -3.68518e-08 0)
(1.09556e-05 -3.45467e-08 0)
(1.11493e-05 -3.18248e-08 0)
(1.13443e-05 -2.86416e-08 0)
(1.15396e-05 -2.493e-08 0)
(1.17351e-05 -2.06037e-08 0)
(1.19293e-05 -1.55799e-08 0)
(1.21226e-05 -9.73974e-09 0)
(1.23116e-05 -3.04029e-09 0)
(8.83861e-06 -1.30602e-07 0)
(8.98023e-06 -1.31225e-07 0)
(9.12957e-06 -1.32196e-07 0)
(9.28606e-06 -1.32775e-07 0)
(9.449e-06 -1.3277e-07 0)
(9.61777e-06 -1.32194e-07 0)
(9.79182e-06 -1.30899e-07 0)
(9.97057e-06 -1.28878e-07 0)
(1.01535e-05 -1.26023e-07 0)
(1.03401e-05 -1.22241e-07 0)
(1.05299e-05 -1.17468e-07 0)
(1.07223e-05 -1.11663e-07 0)
(1.09168e-05 -1.04725e-07 0)
(1.1113e-05 -9.65333e-08 0)
(1.13102e-05 -8.69306e-08 0)
(1.15078e-05 -7.57417e-08 0)
(1.17053e-05 -6.27365e-08 0)
(1.19016e-05 -4.76787e-08 0)
(1.20968e-05 -3.01987e-08 0)
(1.22878e-05 -1.01453e-08 0)
(8.65573e-06 -2.31153e-07 0)
(8.81268e-06 -2.30266e-07 0)
(8.9757e-06 -2.30114e-07 0)
(9.14399e-06 -2.2973e-07 0)
(9.31748e-06 -2.28623e-07 0)
(9.49565e-06 -2.26806e-07 0)
(9.67818e-06 -2.23935e-07 0)
(9.86452e-06 -2.19959e-07 0)
(1.00544e-05 -2.14684e-07 0)
(1.02473e-05 -2.0799e-07 0)
(1.04428e-05 -1.99767e-07 0)
(1.06406e-05 -1.89903e-07 0)
(1.08402e-05 -1.78192e-07 0)
(1.10411e-05 -1.64412e-07 0)
(1.12428e-05 -1.48309e-07 0)
(1.14446e-05 -1.29602e-07 0)
(1.16463e-05 -1.07907e-07 0)
(1.18466e-05 -8.2831e-08 0)
(1.20458e-05 -5.37503e-08 0)
(1.22408e-05 -2.03913e-08 0)
(8.38854e-06 -3.5057e-07 0)
(8.56741e-06 -3.45447e-07 0)
(8.75021e-06 -3.41686e-07 0)
(8.93568e-06 -3.38449e-07 0)
(9.12462e-06 -3.34662e-07 0)
(9.31643e-06 -3.3035e-07 0)
(9.51128e-06 -3.24872e-07 0)
(9.70873e-06 -3.18134e-07 0)
(9.90874e-06 -3.09808e-07 0)
(1.0111e-05 -2.99715e-07 0)
(1.03151e-05 -2.87649e-07 0)
(1.05208e-05 -2.73398e-07 0)
(1.07278e-05 -2.56658e-07 0)
(1.09356e-05 -2.37124e-07 0)
(1.11438e-05 -2.14447e-07 0)
(1.1352e-05 -1.88202e-07 0)
(1.15597e-05 -1.57845e-07 0)
(1.17659e-05 -1.22804e-07 0)
(1.19709e-05 -8.21883e-08 0)
(1.21716e-05 -3.56238e-08 0)
(8.04507e-06 -4.94908e-07 0)
(8.2515e-06 -4.82061e-07 0)
(8.45939e-06 -4.71526e-07 0)
(8.66664e-06 -4.63006e-07 0)
(8.87526e-06 -4.54477e-07 0)
(9.08456e-06 -4.45998e-07 0)
(9.29526e-06 -4.36557e-07 0)
(9.50704e-06 -4.25976e-07 0)
(9.72011e-06 -4.13732e-07 0)
(9.93426e-06 -3.99532e-07 0)
(1.01494e-05 -3.83064e-07 0)
(1.03654e-05 -3.64003e-07 0)
(1.0582e-05 -3.41933e-07 0)
(1.07988e-05 -3.16437e-07 0)
(1.10156e-05 -2.87044e-07 0)
(1.12318e-05 -2.53189e-07 0)
(1.14474e-05 -2.14158e-07 0)
(1.16612e-05 -1.69212e-07 0)
(1.18736e-05 -1.1717e-07 0)
(1.20818e-05 -5.75558e-08 0)
(7.63511e-06 -6.68516e-07 0)
(7.87322e-06 -6.4391e-07 0)
(8.11045e-06 -6.22842e-07 0)
(8.34337e-06 -6.06065e-07 0)
(8.57537e-06 -5.90337e-07 0)
(8.80554e-06 -5.75684e-07 0)
(9.03512e-06 -5.60655e-07 0)
(9.26405e-06 -5.44883e-07 0)
(9.4928e-06 -5.27669e-07 0)
(9.72134e-06 -5.08555e-07 0)
(9.94981e-06 -4.87073e-07 0)
(1.01781e-05 -4.62743e-07 0)
(1.04062e-05 -4.35012e-07 0)
(1.06338e-05 -4.03335e-07 0)
(1.08609e-05 -3.67097e-07 0)
(1.10869e-05 -3.25592e-07 0)
(1.13118e-05 -2.77928e-07 0)
(1.15347e-05 -2.23198e-07 0)
(1.17561e-05 -1.59932e-07 0)
(1.19733e-05 -8.74894e-08 0)
(7.17011e-06 -8.74117e-07 0)
(7.44265e-06 -8.33622e-07 0)
(7.71226e-06 -7.98268e-07 0)
(7.97372e-06 -7.70054e-07 0)
(8.2318e-06 -7.44549e-07 0)
(8.48549e-06 -7.21501e-07 0)
(8.73646e-06 -6.99146e-07 0)
(8.98488e-06 -6.76748e-07 0)
(9.23149e-06 -6.5341e-07 0)
(9.47651e-06 -6.28447e-07 0)
(9.7202e-06 -6.01197e-07 0)
(9.96265e-06 -5.70998e-07 0)
(1.02039e-05 -5.37149e-07 0)
(1.04439e-05 -4.98973e-07 0)
(1.06827e-05 -4.55698e-07 0)
(1.09199e-05 -4.06472e-07 0)
(1.11557e-05 -3.5021e-07 0)
(1.1389e-05 -2.85815e-07 0)
(1.16207e-05 -2.11539e-07 0)
(1.18481e-05 -1.26563e-07 0)
(6.66163e-06 -1.11227e-06 0)
(6.96967e-06 -1.05139e-06 0)
(7.27324e-06 -9.98025e-07 0)
(7.56527e-06 -9.54832e-07 0)
(7.85148e-06 -9.16821e-07 0)
(8.1308e-06 -8.83003e-07 0)
(8.40525e-06 -8.51432e-07 0)
(8.67521e-06 -8.20892e-07 0)
(8.94157e-06 -7.9024e-07 0)
(9.20479e-06 -7.58501e-07 0)
(9.46531e-06 -7.2478e-07 0)
(9.72339e-06 -6.88205e-07 0)
(9.97926e-06 -6.47911e-07 0)
(1.0233e-05 -6.03058e-07 0)
(1.04848e-05 -5.527e-07 0)
(1.07344e-05 -4.95815e-07 0)
(1.0982e-05 -4.31112e-07 0)
(1.12269e-05 -3.57297e-07 0)
(1.14699e-05 -2.72342e-07 0)
(1.17087e-05 -1.75244e-07 0)
(6.12215e-06 -1.38252e-06 0)
(6.46577e-06 -1.29745e-06 0)
(6.80331e-06 -1.22369e-06 0)
(7.12697e-06 -1.16249e-06 0)
(7.44219e-06 -1.10959e-06 0)
(7.74842e-06 -1.06286e-06 0)
(8.04756e-06 -1.02021e-06 0)
(8.34034e-06 -9.79923e-07 0)
(8.62775e-06 -9.40586e-07 0)
(8.91045e-06 -9.00915e-07 0)
(9.18905e-06 -8.5977e-07 0)
(9.46398e-06 -8.16071e-07 0)
(9.73562e-06 -7.68769e-07 0)
(1.00042e-05 -7.16838e-07 0)
(1.02701e-05 -6.59142e-07 0)
(1.05331e-05 -5.94474e-07 0)
(1.07935e-05 -5.21335e-07 0)
(1.10509e-05 -4.38236e-07 0)
(1.13061e-05 -3.42905e-07 0)
(1.15572e-05 -2.34176e-07 0)
(5.56179e-06 -1.68004e-06 0)
(5.94095e-06 -1.56528e-06 0)
(6.31096e-06 -1.46864e-06 0)
(6.66701e-06 -1.38655e-06 0)
(7.01188e-06 -1.3163e-06 0)
(7.34617e-06 -1.25468e-06 0)
(7.67116e-06 -1.19935e-06 0)
(7.98789e-06 -1.14813e-06 0)
(8.29741e-06 -1.09924e-06 0)
(8.60058e-06 -1.05105e-06 0)
(8.89815e-06 -1.0021e-06 0)
(9.19074e-06 -9.51085e-07 0)
(9.4789e-06 -8.96719e-07 0)
(9.76303e-06 -8.3777e-07 0)
(1.00435e-05 -7.72904e-07 0)
(1.03204e-05 -7.00723e-07 0)
(1.05942e-05 -6.19537e-07 0)
(1.08646e-05 -5.2765e-07 0)
(1.11325e-05 -4.22566e-07 0)
(1.13965e-05 -3.02898e-07 0)
(5.14738e-06 -1.96391e-06 0)
(5.54962e-06 -1.82545e-06 0)
(5.93865e-06 -1.71192e-06 0)
(6.31427e-06 -1.61341e-06 0)
(6.67756e-06 -1.52806e-06 0)
(7.02948e-06 -1.45261e-06 0)
(7.37114e-06 -1.38464e-06 0)
(7.70356e-06 -1.32193e-06 0)
(8.02775e-06 -1.26252e-06 0)
(8.34456e-06 -1.20465e-06 0)
(8.65479e-06 -1.14673e-06 0)
(8.95911e-06 -1.08729e-06 0)
(9.25815e-06 -1.02493e-06 0)
(9.55239e-06 -9.5825e-07 0)
(9.84227e-06 -8.85814e-07 0)
(1.01281e-05 -8.06097e-07 0)
(1.04103e-05 -7.17344e-07 0)
(1.06888e-05 -6.17749e-07 0)
(1.09647e-05 -5.0478e-07 0)
(1.1237e-05 -3.76967e-07 0)
(4.90961e-06 -2.19377e-06 0)
(5.31452e-06 -2.05002e-06 0)
(5.70672e-06 -1.92709e-06 0)
(6.08726e-06 -1.81856e-06 0)
(6.45627e-06 -1.7227e-06 0)
(6.81435e-06 -1.63677e-06 0)
(7.16232e-06 -1.55855e-06 0)
(7.50097e-06 -1.48593e-06 0)
(7.83112e-06 -1.41704e-06 0)
(8.15352e-06 -1.35013e-06 0)
(8.46892e-06 -1.28363e-06 0)
(8.77797e-06 -1.21603e-06 0)
(9.08128e-06 -1.14591e-06 0)
(9.37935e-06 -1.07185e-06 0)
(9.67266e-06 -9.92374e-07 0)
(9.9616e-06 -9.05958e-07 0)
(1.02467e-05 -8.10896e-07 0)
(1.0528e-05 -7.05405e-07 0)
(1.08067e-05 -5.87081e-07 0)
(1.10821e-05 -4.54518e-07 0)
(4.70547e-06 -2.41484e-06 0)
(5.10651e-06 -2.26767e-06 0)
(5.49805e-06 -2.13855e-06 0)
(5.87938e-06 -2.02234e-06 0)
(6.25055e-06 -1.91776e-06 0)
(6.61161e-06 -1.82268e-06 0)
(6.96313e-06 -1.73513e-06 0)
(7.3056e-06 -1.65325e-06 0)
(7.63967e-06 -1.5753e-06 0)
(7.96594e-06 -1.49963e-06 0)
(8.28507e-06 -1.42472e-06 0)
(8.59765e-06 -1.34909e-06 0)
(8.90426e-06 -1.27131e-06 0)
(9.20539e-06 -1.18998e-06 0)
(9.50151e-06 -1.10364e-06 0)
(9.79311e-06 -1.01077e-06 0)
(1.00807e-05 -9.09762e-07 0)
(1.03646e-05 -7.98897e-07 0)
(1.06459e-05 -6.75927e-07 0)
(1.09243e-05 -5.39556e-07 0)
(4.52507e-06 -2.62795e-06 0)
(4.92038e-06 -2.47904e-06 0)
(5.30854e-06 -2.34524e-06 0)
(5.68799e-06 -2.22269e-06 0)
(6.05869e-06 -2.11064e-06 0)
(6.42032e-06 -2.00743e-06 0)
(6.77319e-06 -1.91142e-06 0)
(7.11754e-06 -1.82099e-06 0)
(7.45382e-06 -1.73457e-06 0)
(7.78252e-06 -1.65063e-06 0)
(8.10415e-06 -1.56772e-06 0)
(8.41922e-06 -1.48443e-06 0)
(8.72826e-06 -1.39934e-06 0)
(9.03175e-06 -1.3111e-06 0)
(9.33015e-06 -1.2183e-06 0)
(9.62398e-06 -1.11946e-06 0)
(9.91379e-06 -1.01306e-06 0)
(1.02e-05 -8.97499e-07 0)
(1.04836e-05 -7.70707e-07 0)
(1.07648e-05 -6.31536e-07 0)
(4.36581e-06 -2.83212e-06 0)
(4.75375e-06 -2.68269e-06 0)
(5.13657e-06 -2.54579e-06 0)
(5.51207e-06 -2.41847e-06 0)
(5.88027e-06 -2.30036e-06 0)
(6.24051e-06 -2.19024e-06 0)
(6.5929e-06 -2.0868e-06 0)
(6.93745e-06 -1.98868e-06 0)
(7.27446e-06 -1.89449e-06 0)
(7.60426e-06 -1.80287e-06 0)
(7.92726e-06 -1.71245e-06 0)
(8.24386e-06 -1.62192e-06 0)
(8.55452e-06 -1.52992e-06 0)
(8.8597e-06 -1.43516e-06 0)
(9.15984e-06 -1.33629e-06 0)
(9.45548e-06 -1.23192e-06 0)
(9.74715e-06 -1.12064e-06 0)
(1.00354e-05 -1.00096e-06 0)
(1.03211e-05 -8.71043e-07 0)
(1.06048e-05 -7.29921e-07 0)
(4.22401e-06 -3.02747e-06 0)
(4.60373e-06 -2.87847e-06 0)
(4.97998e-06 -2.73961e-06 0)
(5.35014e-06 -2.60869e-06 0)
(5.71434e-06 -2.48569e-06 0)
(6.07166e-06 -2.36975e-06 0)
(6.42209e-06 -2.25987e-06 0)
(6.76546e-06 -2.15492e-06 0)
(7.10194e-06 -2.05374e-06 0)
(7.43171e-06 -1.9551e-06 0)
(7.75507e-06 -1.85778e-06 0)
(8.07232e-06 -1.76055e-06 0)
(8.38387e-06 -1.66214e-06 0)
(8.69012e-06 -1.56134e-06 0)
(8.99149e-06 -1.45689e-06 0)
(9.28851e-06 -1.34751e-06 0)
(9.58171e-06 -1.2319e-06 0)
(9.87168e-06 -1.10871e-06 0)
(1.01593e-05 -9.76351e-07 0)
(1.04452e-05 -8.34026e-07 0)
(4.09684e-06 -3.21424e-06 0)
(4.46785e-06 -3.06633e-06 0)
(4.8367e-06 -2.92643e-06 0)
(5.20059e-06 -2.79294e-06 0)
(5.55971e-06 -2.66613e-06 0)
(5.91297e-06 -2.54538e-06 0)
(6.2603e-06 -2.43001e-06 0)
(6.6014e-06 -2.31912e-06 0)
(6.93631e-06 -2.21173e-06 0)
(7.2651e-06 -2.10679e-06 0)
(7.58795e-06 -2.00321e-06 0)
(7.9051e-06 -1.89985e-06 0)
(8.21688e-06 -1.79557e-06 0)
(8.52365e-06 -1.68926e-06 0)
(8.82578e-06 -1.57974e-06 0)
(9.1238e-06 -1.46586e-06 0)
(9.4182e-06 -1.34643e-06 0)
(9.70961e-06 -1.2203e-06 0)
(9.99888e-06 -1.0861e-06 0)
(1.02867e-05 -9.43156e-07 0)
(3.98163e-06 -3.39284e-06 0)
(4.3438e-06 -3.24649e-06 0)
(4.70478e-06 -3.10622e-06 0)
(5.06182e-06 -2.97099e-06 0)
(5.4151e-06 -2.84122e-06 0)
(5.7635e-06 -2.71657e-06 0)
(6.10687e-06 -2.59658e-06 0)
(6.44485e-06 -2.48059e-06 0)
(6.77736e-06 -2.36777e-06 0)
(7.10437e-06 -2.25724e-06 0)
(7.42602e-06 -2.14806e-06 0)
(7.74242e-06 -2.0392e-06 0)
(8.05389e-06 -1.92963e-06 0)
(8.36068e-06 -1.81836e-06 0)
(8.66318e-06 -1.7043e-06 0)
(8.96184e-06 -1.58644e-06 0)
(9.25715e-06 -1.46374e-06 0)
(9.54976e-06 -1.33519e-06 0)
(9.8404e-06 -1.19967e-06 0)
(1.01299e-05 -1.05659e-06 0)
(3.87603e-06 -3.56381e-06 0)
(4.22937e-06 -3.41927e-06 0)
(4.58229e-06 -3.27915e-06 0)
(4.93215e-06 -3.14282e-06 0)
(5.27913e-06 -3.01084e-06 0)
(5.62213e-06 -2.88307e-06 0)
(5.96096e-06 -2.75927e-06 0)
(6.29518e-06 -2.63895e-06 0)
(6.62466e-06 -2.52145e-06 0)
(6.94931e-06 -2.40604e-06 0)
(7.26918e-06 -2.29192e-06 0)
(7.58434e-06 -2.17819e-06 0)
(7.89503e-06 -2.06393e-06 0)
(8.20146e-06 -1.94825e-06 0)
(8.50397e-06 -1.8302e-06 0)
(8.80299e-06 -1.70888e-06 0)
(9.09895e-06 -1.58341e-06 0)
(9.3925e-06 -1.45292e-06 0)
(9.68426e-06 -1.31649e-06 0)
(9.97517e-06 -1.17369e-06 0)
(3.77794e-06 -3.72769e-06 0)
(4.1226e-06 -3.58511e-06 0)
(4.46747e-06 -3.44549e-06 0)
(4.81002e-06 -3.30854e-06 0)
(5.15046e-06 -3.17496e-06 0)
(5.48774e-06 -3.04474e-06 0)
(5.82164e-06 -2.91783e-06 0)
(6.15168e-06 -2.79389e-06 0)
(6.4777e-06 -2.67241e-06 0)
(6.79955e-06 -2.55282e-06 0)
(7.11722e-06 -2.43442e-06 0)
(7.43074e-06 -2.31644e-06 0)
(7.74029e-06 -2.19808e-06 0)
(8.04605e-06 -2.07856e-06 0)
(8.34828e-06 -1.95705e-06 0)
(8.6474e-06 -1.83278e-06 0)
(8.94378e-06 -1.70501e-06 0)
(9.23803e-06 -1.57299e-06 0)
(9.53068e-06 -1.43601e-06 0)
(9.82273e-06 -1.29381e-06 0)
(3.68549e-06 -3.88506e-06 0)
(4.02175e-06 -3.74446e-06 0)
(4.35866e-06 -3.60556e-06 0)
(4.69394e-06 -3.46838e-06 0)
(5.02779e-06 -3.33368e-06 0)
(5.35921e-06 -3.2016e-06 0)
(5.68795e-06 -3.0722e-06 0)
(6.01356e-06 -2.94529e-06 0)
(6.33582e-06 -2.8205e-06 0)
(6.65457e-06 -2.69736e-06 0)
(6.96976e-06 -2.57531e-06 0)
(7.28136e-06 -2.4537e-06 0)
(7.58951e-06 -2.33181e-06 0)
(7.89433e-06 -2.209e-06 0)
(8.19607e-06 -2.08454e-06 0)
(8.49508e-06 -1.9578e-06 0)
(8.79167e-06 -1.82813e-06 0)
(9.08641e-06 -1.69494e-06 0)
(9.37979e-06 -1.55772e-06 0)
(9.67271e-06 -1.41632e-06 0)
(3.59704e-06 -4.03645e-06 0)
(3.92519e-06 -3.89777e-06 0)
(4.25437e-06 -3.75974e-06 0)
(4.58253e-06 -3.62262e-06 0)
(4.90984e-06 -3.48721e-06 0)
(5.23537e-06 -3.35373e-06 0)
(5.55888e-06 -3.2224e-06 0)
(5.87994e-06 -3.09311e-06 0)
(6.1983e-06 -2.96561e-06 0)
(6.51379e-06 -2.83952e-06 0)
(6.82632e-06 -2.71442e-06 0)
(7.13583e-06 -2.58974e-06 0)
(7.44241e-06 -2.46488e-06 0)
(7.74615e-06 -2.33932e-06 0)
(8.04723e-06 -2.2124e-06 0)
(8.34597e-06 -2.08361e-06 0)
(8.6426e-06 -1.95243e-06 0)
(8.93766e-06 -1.81838e-06 0)
(9.23158e-06 -1.68116e-06 0)
(9.52516e-06 -1.54065e-06 0)
(3.5111e-06 -4.18238e-06 0)
(3.83148e-06 -4.04551e-06 0)
(4.1532e-06 -3.90844e-06 0)
(4.47445e-06 -3.77159e-06 0)
(4.79536e-06 -3.63579e-06 0)
(5.11509e-06 -3.50133e-06 0)
(5.43343e-06 -3.36853e-06 0)
(5.74995e-06 -3.23738e-06 0)
(6.0644e-06 -3.10772e-06 0)
(6.3766e-06 -2.97926e-06 0)
(6.6864e-06 -2.85168e-06 0)
(6.99373e-06 -2.72448e-06 0)
(7.29865e-06 -2.59719e-06 0)
(7.6012e-06 -2.46935e-06 0)
(7.90151e-06 -2.34043e-06 0)
(8.19985e-06 -2.20999e-06 0)
(8.49638e-06 -2.07762e-06 0)
(8.79164e-06 -1.94297e-06 0)
(9.0859e-06 -1.80592e-06 0)
(9.37998e-06 -1.66637e-06 0)
(3.42626e-06 -4.32327e-06 0)
(3.73923e-06 -4.18815e-06 0)
(4.05379e-06 -4.05204e-06 0)
(4.36839e-06 -3.91561e-06 0)
(4.68314e-06 -3.77968e-06 0)
(4.99729e-06 -3.64461e-06 0)
(5.31063e-06 -3.51078e-06 0)
(5.62273e-06 -3.37824e-06 0)
(5.93336e-06 -3.24693e-06 0)
(6.2423e-06 -3.11662e-06 0)
(6.54939e-06 -2.98705e-06 0)
(6.85455e-06 -2.85785e-06 0)
(7.15778e-06 -2.7286e-06 0)
(7.4591e-06 -2.59895e-06 0)
(7.75857e-06 -2.46842e-06 0)
(8.05642e-06 -2.33666e-06 0)
(8.35278e-06 -2.20339e-06 0)
(8.6481e-06 -2.06838e-06 0)
(8.94258e-06 -1.93155e-06 0)
(9.23698e-06 -1.79301e-06 0)
(3.34111e-06 -4.45959e-06 0)
(3.64702e-06 -4.32604e-06 0)
(3.95478e-06 -4.19095e-06 0)
(4.26306e-06 -4.05507e-06 0)
(4.57197e-06 -3.91924e-06 0)
(4.88084e-06 -3.78387e-06 0)
(5.18944e-06 -3.64939e-06 0)
(5.49735e-06 -3.51589e-06 0)
(5.80435e-06 -3.38336e-06 0)
(6.11019e-06 -3.25165e-06 0)
(6.41471e-06 -3.1206e-06 0)
(6.71778e-06 -2.98987e-06 0)
(7.01938e-06 -2.85911e-06 0)
(7.31948e-06 -2.72804e-06 0)
(7.6181e-06 -2.59626e-06 0)
(7.91542e-06 -2.4635e-06 0)
(8.21156e-06 -2.32958e-06 0)
(8.50684e-06 -2.19435e-06 0)
(8.80148e-06 -2.05784e-06 0)
(9.09605e-06 -1.9202e-06 0)
(3.25428e-06 -4.59166e-06 0)
(3.55348e-06 -4.45974e-06 0)
(3.85475e-06 -4.32553e-06 0)
(4.15718e-06 -4.1903e-06 0)
(4.46068e-06 -4.0548e-06 0)
(4.76467e-06 -3.91942e-06 0)
(5.06891e-06 -3.78461e-06 0)
(5.37297e-06 -3.65054e-06 0)
(5.67661e-06 -3.51721e-06 0)
(5.97958e-06 -3.38454e-06 0)
(6.28172e-06 -3.25242e-06 0)
(6.58285e-06 -3.12057e-06 0)
(6.88292e-06 -2.9887e-06 0)
(7.18186e-06 -2.85657e-06 0)
(7.47966e-06 -2.72385e-06 0)
(7.77647e-06 -2.59037e-06 0)
(8.07235e-06 -2.45601e-06 0)
(8.36754e-06 -2.32064e-06 0)
(8.66222e-06 -2.18446e-06 0)
(8.95688e-06 -2.04766e-06 0)
(3.16439e-06 -4.72002e-06 0)
(3.45703e-06 -4.58923e-06 0)
(3.75216e-06 -4.45621e-06 0)
(4.04945e-06 -4.32189e-06 0)
(4.34803e-06 -4.18688e-06 0)
(4.64769e-06 -4.05173e-06 0)
(4.94801e-06 -3.91688e-06 0)
(5.24866e-06 -3.78254e-06 0)
(5.54934e-06 -3.64876e-06 0)
(5.84981e-06 -3.51551e-06 0)
(6.14985e-06 -3.3827e-06 0)
(6.44926e-06 -3.25009e-06 0)
(6.74795e-06 -3.11743e-06 0)
(7.04584e-06 -2.98456e-06 0)
(7.3429e-06 -2.8512e-06 0)
(7.63925e-06 -2.71721e-06 0)
(7.93484e-06 -2.58252e-06 0)
(8.22992e-06 -2.44709e-06 0)
(8.52456e-06 -2.31124e-06 0)
(8.81926e-06 -2.17514e-06 0)
(3.06928e-06 -4.84452e-06 0)
(3.35636e-06 -4.71506e-06 0)
(3.64644e-06 -4.58346e-06 0)
(3.93877e-06 -4.4501e-06 0)
(4.23309e-06 -4.31579e-06 0)
(4.52893e-06 -4.18111e-06 0)
(4.82593e-06 -4.04649e-06 0)
(5.1237e-06 -3.9122e-06 0)
(5.42192e-06 -3.7783e-06 0)
(5.72031e-06 -3.64478e-06 0)
(6.01859e-06 -3.51159e-06 0)
(6.31654e-06 -3.37854e-06 0)
(6.61407e-06 -3.24541e-06 0)
(6.91109e-06 -3.11205e-06 0)
(7.20752e-06 -2.97826e-06 0)
(7.50339e-06 -2.84394e-06 0)
(7.79868e-06 -2.70904e-06 0)
(8.09368e-06 -2.57361e-06 0)
(8.38831e-06 -2.438e-06 0)
(8.68289e-06 -2.30248e-06 0)
(2.96772e-06 -4.96652e-06 0)
(3.24969e-06 -4.83862e-06 0)
(3.53518e-06 -4.70814e-06 0)
(3.82349e-06 -4.57581e-06 0)
(4.11432e-06 -4.44236e-06 0)
(4.40716e-06 -4.30833e-06 0)
(4.70162e-06 -4.17417e-06 0)
(4.99725e-06 -4.04014e-06 0)
(5.29365e-06 -3.90635e-06 0)
(5.59048e-06 -3.7728e-06 0)
(5.88744e-06 -3.63947e-06 0)
(6.18434e-06 -3.50619e-06 0)
(6.481e-06 -3.37278e-06 0)
(6.77727e-06 -3.23917e-06 0)
(7.0731e-06 -3.10511e-06 0)
(7.36859e-06 -2.97052e-06 0)
(7.66367e-06 -2.8355e-06 0)
(7.95847e-06 -2.70008e-06 0)
(8.25306e-06 -2.5646e-06 0)
(8.54759e-06 -2.42948e-06 0)
(2.85838e-06 -5.085e-06 0)
(3.13588e-06 -4.95886e-06 0)
(3.41756e-06 -4.82999e-06 0)
(3.70275e-06 -4.69903e-06 0)
(3.99102e-06 -4.56671e-06 0)
(4.28182e-06 -4.43359e-06 0)
(4.57463e-06 -4.30014e-06 0)
(4.8689e-06 -4.16663e-06 0)
(5.16419e-06 -4.03315e-06 0)
(5.46012e-06 -3.89975e-06 0)
(5.75632e-06 -3.76646e-06 0)
(6.0525e-06 -3.63316e-06 0)
(6.34851e-06 -3.49963e-06 0)
(6.64425e-06 -3.36583e-06 0)
(6.93959e-06 -3.23165e-06 0)
(7.23464e-06 -3.09695e-06 0)
(7.52946e-06 -2.96185e-06 0)
(7.82408e-06 -2.82638e-06 0)
(8.11864e-06 -2.69096e-06 0)
(8.41312e-06 -2.55601e-06 0)
(2.12541e-07 -4.40556e-06 0)
(6.40602e-07 -4.34056e-06 0)
(1.0776e-06 -4.21315e-06 0)
(1.52859e-06 -4.02845e-06 0)
(1.99767e-06 -3.79351e-06 0)
(2.4874e-06 -3.51715e-06 0)
(2.99878e-06 -3.20944e-06 0)
(3.53091e-06 -2.88096e-06 0)
(4.08188e-06 -2.54239e-06 0)
(4.64737e-06 -2.20222e-06 0)
(2.06518e-07 -4.47663e-06 0)
(6.22088e-07 -4.41724e-06 0)
(1.04509e-06 -4.30075e-06 0)
(1.47981e-06 -4.13151e-06 0)
(1.9297e-06 -3.91549e-06 0)
(2.39697e-06 -3.66021e-06 0)
(2.8825e-06 -3.37421e-06 0)
(3.38541e-06 -3.06666e-06 0)
(3.90322e-06 -2.74726e-06 0)
(4.43267e-06 -2.42302e-06 0)
(2.0119e-07 -4.54943e-06 0)
(6.05681e-07 -4.49514e-06 0)
(1.01624e-06 -4.38853e-06 0)
(1.4363e-06 -4.23339e-06 0)
(1.86879e-06 -4.03491e-06 0)
(2.31552e-06 -3.79955e-06 0)
(2.77742e-06 -3.53467e-06 0)
(3.25425e-06 -3.24794e-06 0)
(3.74416e-06 -2.94782e-06 0)
(4.24509e-06 -2.63877e-06 0)
(1.96445e-07 -4.62408e-06 0)
(5.91085e-07 -4.57411e-06 0)
(9.90819e-07 -4.47592e-06 0)
(1.39839e-06 -4.33284e-06 0)
(1.81626e-06 -4.14941e-06 0)
(2.2459e-06 -3.93129e-06 0)
(2.688e-06 -3.68502e-06 0)
(3.14232e-06 -3.41732e-06 0)
(3.60728e-06 -3.1361e-06 0)
(4.08112e-06 -2.84474e-06 0)
(1.92087e-07 -4.70052e-06 0)
(5.77641e-07 -4.65444e-06 0)
(9.67463e-07 -4.56378e-06 0)
(1.36373e-06 -4.43154e-06 0)
(1.76853e-06 -4.26175e-06 0)
(2.18306e-06 -4.05943e-06 0)
(2.60794e-06 -3.83039e-06 0)
(3.04298e-06 -3.58032e-06 0)
(3.48703e-06 -3.31645e-06 0)
(3.93765e-06 -3.04181e-06 0)
(1.88015e-07 -4.77867e-06 0)
(5.65192e-07 -4.73593e-06 0)
(9.45945e-07 -4.65183e-06 0)
(1.33209e-06 -4.52906e-06 0)
(1.72533e-06 -4.37123e-06 0)
(2.12667e-06 -4.18287e-06 0)
(2.53653e-06 -3.96926e-06 0)
(2.95461e-06 -3.73542e-06 0)
(3.38037e-06 -3.4879e-06 0)
(3.81075e-06 -3.22977e-06 0)
(1.8411e-07 -4.8584e-06 0)
(5.53332e-07 -4.81866e-06 0)
(9.25557e-07 -4.74041e-06 0)
(1.30235e-06 -4.6261e-06 0)
(1.68508e-06 -4.47902e-06 0)
(2.07461e-06 -4.30324e-06 0)
(2.4713e-06 -4.10357e-06 0)
(2.87464e-06 -3.88451e-06 0)
(3.28458e-06 -3.6519e-06 0)
(3.69753e-06 -3.40913e-06 0)
(1.80373e-07 -4.93954e-06 0)
(5.41929e-07 -4.90244e-06 0)
(9.06058e-07 -4.82938e-06 0)
(1.27412e-06 -4.72256e-06 0)
(1.64722e-06 -4.58503e-06 0)
(2.02604e-06 -4.4205e-06 0)
(2.41096e-06 -4.23339e-06 0)
(2.80129e-06 -4.02783e-06 0)
(3.19732e-06 -3.80895e-06 0)
(3.59524e-06 -3.58044e-06 0)
(1.76714e-07 -5.02195e-06 0)
(5.30761e-07 -4.98721e-06 0)
(8.87076e-07 -4.91878e-06 0)
(1.24681e-06 -4.81869e-06 0)
(1.61091e-06 -4.68975e-06 0)
(1.97993e-06 -4.53534e-06 0)
(2.3542e-06 -4.35955e-06 0)
(2.73294e-06 -4.16622e-06 0)
(3.11668e-06 -3.95986e-06 0)
(3.50155e-06 -3.74439e-06 0)
(1.73048e-07 -5.10543e-06 0)
(5.19692e-07 -5.0728e-06 0)
(8.68368e-07 -5.00851e-06 0)
(1.22006e-06 -4.91445e-06 0)
(1.57561e-06 -4.79322e-06 0)
(1.93549e-06 -4.64793e-06 0)
(2.29998e-06 -4.48235e-06 0)
(2.66826e-06 -4.30012e-06 0)
(3.04097e-06 -4.1052e-06 0)
(3.4144e-06 -3.90162e-06 0)
(1.69341e-07 -5.18979e-06 0)
(5.08597e-07 -5.15907e-06 0)
(8.49668e-07 -5.09853e-06 0)
(1.19349e-06 -5.0099e-06 0)
(1.54078e-06 -4.89563e-06 0)
(1.89199e-06 -4.75858e-06 0)
(2.24736e-06 -4.60223e-06 0)
(2.60608e-06 -4.43006e-06 0)
(2.96878e-06 -4.24556e-06 0)
(3.33203e-06 -4.05277e-06 0)
(1.65589e-07 -5.2748e-06 0)
(4.97361e-07 -5.24581e-06 0)
(8.30757e-07 -5.18866e-06 0)
(1.16675e-06 -5.10495e-06 0)
(1.50596e-06 -4.99698e-06 0)
(1.84879e-06 -4.8674e-06 0)
(2.19552e-06 -4.71944e-06 0)
(2.54533e-06 -4.5564e-06 0)
(2.89884e-06 -4.38139e-06 0)
(3.25294e-06 -4.19838e-06 0)
(1.61751e-07 -5.36026e-06 0)
(4.85819e-07 -5.33284e-06 0)
(8.11389e-07 -5.27879e-06 0)
(1.13947e-06 -5.19956e-06 0)
(1.47065e-06 -5.09731e-06 0)
(1.80528e-06 -4.97455e-06 0)
(2.14367e-06 -4.83423e-06 0)
(2.48505e-06 -4.67947e-06 0)
(2.82997e-06 -4.51311e-06 0)
(3.17572e-06 -4.33898e-06 0)
(1.57758e-07 -5.44588e-06 0)
(4.73799e-07 -5.4199e-06 0)
(7.91307e-07 -5.36868e-06 0)
(1.11129e-06 -5.29356e-06 0)
(1.43436e-06 -5.19655e-06 0)
(1.76082e-06 -5.08001e-06 0)
(2.09103e-06 -4.94667e-06 0)
(2.4243e-06 -4.79948e-06 0)
(2.7611e-06 -4.64105e-06 0)
(3.09907e-06 -4.47499e-06 0)
(1.53539e-07 -5.53143e-06 0)
(4.6114e-07 -5.50678e-06 0)
(7.70249e-07 -5.45817e-06 0)
(1.08185e-06 -5.38685e-06 0)
(1.39658e-06 -5.29469e-06 0)
(1.71477e-06 -5.18388e-06 0)
(2.0368e-06 -5.05696e-06 0)
(2.3621e-06 -4.9167e-06 0)
(2.69105e-06 -4.76554e-06 0)
(3.02163e-06 -4.60685e-06 0)
(1.49049e-07 -5.61646e-06 0)
(4.47706e-07 -5.59304e-06 0)
(7.47952e-07 -5.54687e-06 0)
(1.05074e-06 -5.47909e-06 0)
(1.35678e-06 -5.39142e-06 0)
(1.66646e-06 -5.28593e-06 0)
(1.98017e-06 -5.16496e-06 0)
(2.29751e-06 -5.03114e-06 0)
(2.61871e-06 -4.8867e-06 0)
(2.94213e-06 -4.73476e-06 0)
(1.4424e-07 -5.70083e-06 0)
(4.33319e-07 -5.67858e-06 0)
(7.24079e-07 -5.63471e-06 0)
(1.01748e-06 -5.57025e-06 0)
(1.31434e-06 -5.48682e-06 0)
(1.6151e-06 -5.38631e-06 0)
(1.92021e-06 -5.27093e-06 0)
(2.22937e-06 -5.14313e-06 0)
(2.54279e-06 -5.00493e-06 0)
(2.85906e-06 -4.85928e-06 0)
(1.39046e-07 -5.7836e-06 0)
(4.17764e-07 -5.76247e-06 0)
(6.98265e-07 -5.72078e-06 0)
(9.8157e-07 -5.6595e-06 0)
(1.26859e-06 -5.58009e-06 0)
(1.55988e-06 -5.48434e-06 0)
(1.85592e-06 -5.37427e-06 0)
(2.15653e-06 -5.25218e-06 0)
(2.46189e-06 -5.11991e-06 0)
(2.77095e-06 -4.98019e-06 0)
(1.33353e-07 -5.8652e-06 0)
(4.00701e-07 -5.84516e-06 0)
(6.69965e-07 -5.80559e-06 0)
(9.42264e-07 -5.74738e-06 0)
(1.2186e-06 -5.67188e-06 0)
(1.49964e-06 -5.58073e-06 0)
(1.78593e-06 -5.47579e-06 0)
(2.07746e-06 -5.35916e-06 0)
(2.37437e-06 -5.23261e-06 0)
(2.67597e-06 -5.09855e-06 0)
(1.27102e-07 -5.9431e-06 0)
(3.81988e-07 -5.92412e-06 0)
(6.38937e-07 -5.88667e-06 0)
(8.99191e-07 -5.83152e-06 0)
(1.16387e-06 -5.7599e-06 0)
(1.43376e-06 -5.67334e-06 0)
(1.70949e-06 -5.57353e-06 0)
(1.99127e-06 -5.46239e-06 0)
(2.27924e-06 -5.34156e-06 0)
(2.57303e-06 -5.21321e-06 0)
)


// ************************************************************************* //
