/*--------------------------------*- C++ -*----------------------------------*\
| =========                 |                                                 |
| \\      /  F ield         | foam-extend: Open Source CFD                    |
|  \\    /   O peration     | Version:     4.1                                |
|   \\  /    A nd           | Web:         http://www.foam-extend.org         |
|    \\/     M anipulation  |                                                 |
\*---------------------------------------------------------------------------*/
FoamFile
{
    version     2.0;
    format      ascii;
    class       vectorField;
    location    "10";
    object      solidsCellD_iteration12;
}
// * * * * * * * * * * * * * * * * * * * * * * * * * * * * * * * * * * * * * //


1000
(
(5.23407e-06 -2.24883e-06 0)
(4.93484e-06 -2.09111e-06 0)
(4.74302e-06 -1.99036e-06 0)
(4.63221e-06 -1.94244e-06 0)
(4.57716e-06 -1.92464e-06 0)
(4.56281e-06 -1.93013e-06 0)
(4.57839e-06 -1.95078e-06 0)
(4.61649e-06 -1.9827e-06 0)
(4.67145e-06 -2.02224e-06 0)
(4.73975e-06 -2.0671e-06 0)
(4.732e-06 -2.45633e-06 0)
(4.41338e-06 -2.34584e-06 0)
(4.2094e-06 -2.27492e-06 0)
(4.08966e-06 -2.24727e-06 0)
(4.02772e-06 -2.24289e-06 0)
(4.0072e-06 -2.25786e-06 0)
(4.01692e-06 -2.28528e-06 0)
(4.04894e-06 -2.32223e-06 0)
(4.09739e-06 -2.36598e-06 0)
(4.1578e-06 -2.41336e-06 0)
(4.21054e-06 -2.65299e-06 0)
(3.88507e-06 -2.59532e-06 0)
(3.67689e-06 -2.55782e-06 0)
(3.55333e-06 -2.55257e-06 0)
(3.4877e-06 -2.56285e-06 0)
(3.46297e-06 -2.58795e-06 0)
(3.46789e-06 -2.62243e-06 0)
(3.49446e-06 -2.66444e-06 0)
(3.53674e-06 -2.7122e-06 0)
(3.59032e-06 -2.76236e-06 0)
(3.67355e-06 -2.83535e-06 0)
(3.35486e-06 -2.83311e-06 0)
(3.15112e-06 -2.8307e-06 0)
(3.02916e-06 -2.84885e-06 0)
(2.96322e-06 -2.87436e-06 0)
(2.93633e-06 -2.90988e-06 0)
(2.93759e-06 -2.95148e-06 0)
(2.95926e-06 -2.99853e-06 0)
(2.99573e-06 -3.05012e-06 0)
(3.04247e-06 -3.10325e-06 0)
(3.12472e-06 -2.99983e-06 0)
(2.82632e-06 -3.05254e-06 0)
(2.63567e-06 -3.08493e-06 0)
(2.52093e-06 -3.12619e-06 0)
(2.45806e-06 -3.16669e-06 0)
(2.431e-06 -3.21243e-06 0)
(2.42976e-06 -3.26093e-06 0)
(2.44706e-06 -3.3129e-06 0)
(2.47792e-06 -3.36815e-06 0)
(2.51777e-06 -3.42434e-06 0)
(2.56671e-06 -3.14307e-06 0)
(2.30184e-06 -3.24719e-06 0)
(2.13269e-06 -3.31217e-06 0)
(2.03038e-06 -3.37507e-06 0)
(1.97378e-06 -3.42955e-06 0)
(1.9485e-06 -3.48479e-06 0)
(1.94589e-06 -3.53966e-06 0)
(1.95935e-06 -3.59619e-06 0)
(1.98464e-06 -3.65478e-06 0)
(2.01742e-06 -3.71395e-06 0)
(2.00226e-06 -3.26182e-06 0)
(1.78261e-06 -3.41101e-06 0)
(1.6424e-06 -3.50458e-06 0)
(1.55729e-06 -3.58642e-06 0)
(1.5099e-06 -3.65314e-06 0)
(1.48824e-06 -3.71666e-06 0)
(1.48518e-06 -3.77708e-06 0)
(1.49518e-06 -3.83761e-06 0)
(1.51487e-06 -3.89911e-06 0)
(1.54045e-06 -3.96099e-06 0)
(1.43324e-06 -3.35345e-06 0)
(1.26871e-06 -3.53884e-06 0)
(1.16374e-06 -3.65535e-06 0)
(1.0999e-06 -3.75235e-06 0)
(1.06421e-06 -3.82889e-06 0)
(1.04762e-06 -3.89909e-06 0)
(1.04483e-06 -3.964e-06 0)
(1.05169e-06 -4.02777e-06 0)
(1.06575e-06 -4.09158e-06 0)
(1.08406e-06 -4.15572e-06 0)
(8.61227e-07 -3.41574e-06 0)
(7.59368e-07 -3.62643e-06 0)
(6.94415e-07 -3.75897e-06 0)
(6.54812e-07 -3.86664e-06 0)
(6.32557e-07 -3.95005e-06 0)
(6.22097e-07 -4.02488e-06 0)
(6.20193e-07 -4.09293e-06 0)
(6.24214e-07 -4.15902e-06 0)
(6.32645e-07 -4.22448e-06 0)
(6.43625e-07 -4.29024e-06 0)
(2.87625e-07 -3.44712e-06 0)
(2.5312e-07 -3.67088e-06 0)
(2.31029e-07 -3.8117e-06 0)
(2.17555e-07 -3.92485e-06 0)
(2.1001e-07 -4.01182e-06 0)
(2.06413e-07 -4.08908e-06 0)
(2.05663e-07 -4.15873e-06 0)
(2.06954e-07 -4.22599e-06 0)
(2.09769e-07 -4.29231e-06 0)
(2.13418e-07 -4.35892e-06 0)
(8.17647e-06 -1.02672e-07 0)
(8.25109e-06 -7.39449e-08 0)
(8.29545e-06 -5.56908e-08 0)
(8.34298e-06 -4.49063e-08 0)
(8.39445e-06 -3.88606e-08 0)
(8.4577e-06 -3.60285e-08 0)
(8.53265e-06 -3.53573e-08 0)
(8.62025e-06 -3.60414e-08 0)
(8.72029e-06 -3.77902e-08 0)
(8.83142e-06 -3.99344e-08 0)
(8.11567e-06 -3.08019e-07 0)
(8.17789e-06 -2.23512e-07 0)
(8.21447e-06 -1.69878e-07 0)
(8.25677e-06 -1.38359e-07 0)
(8.3048e-06 -1.20825e-07 0)
(8.36558e-06 -1.12571e-07 0)
(8.43878e-06 -1.10706e-07 0)
(8.52496e-06 -1.13024e-07 0)
(8.62378e-06 -1.18327e-07 0)
(8.7336e-06 -1.24681e-07 0)
(7.99434e-06 -5.1508e-07 0)
(8.03284e-06 -3.79422e-07 0)
(8.05444e-06 -2.9339e-07 0)
(8.0868e-06 -2.42833e-07 0)
(8.12825e-06 -2.14864e-07 0)
(8.18441e-06 -2.02e-07 0)
(8.25418e-06 -1.99351e-07 0)
(8.33761e-06 -2.03393e-07 0)
(8.43408e-06 -2.12208e-07 0)
(8.54137e-06 -2.22839e-07 0)
(7.81461e-06 -7.24772e-07 0)
(7.81939e-06 -5.45254e-07 0)
(7.81961e-06 -4.31498e-07 0)
(7.83783e-06 -3.6494e-07 0)
(7.86991e-06 -3.28282e-07 0)
(7.91947e-06 -3.11748e-07 0)
(7.9844e-06 -3.08776e-07 0)
(8.06393e-06 -3.14815e-07 0)
(8.15708e-06 -3.27161e-07 0)
(8.26083e-06 -3.4211e-07 0)
(7.57929e-06 -9.37622e-07 0)
(7.54242e-06 -7.24012e-07 0)
(7.5162e-06 -5.88643e-07 0)
(7.5169e-06 -5.09961e-07 0)
(7.53738e-06 -4.66982e-07 0)
(7.57873e-06 -4.48202e-07 0)
(7.63763e-06 -4.45671e-07 0)
(7.71226e-06 -4.54061e-07 0)
(7.80127e-06 -4.69944e-07 0)
(7.90075e-06 -4.89193e-07 0)
(7.29196e-06 -1.15375e-06 0)
(7.20794e-06 -9.17654e-07 0)
(7.15189e-06 -7.6795e-07 0)
(7.13276e-06 -6.81729e-07 0)
(7.14007e-06 -6.35243e-07 0)
(7.17205e-06 -6.15902e-07 0)
(7.22407e-06 -6.14697e-07 0)
(7.2931e-06 -6.25821e-07 0)
(7.37733e-06 -6.45265e-07 0)
(7.47196e-06 -6.68798e-07 0)
(6.95692e-06 -1.37274e-06 0)
(6.82307e-06 -1.12697e-06 0)
(6.7355e-06 -9.71011e-07 0)
(6.69542e-06 -8.82335e-07 0)
(6.68877e-06 -8.35413e-07 0)
(6.71076e-06 -8.17363e-07 0)
(6.75539e-06 -8.18488e-07 0)
(6.8184e-06 -8.32778e-07 0)
(6.89736e-06 -8.55866e-07 0)
(6.98687e-06 -8.83623e-07 0)
(6.57867e-06 -1.59355e-06 0)
(6.39545e-06 -1.35143e-06 0)
(6.27668e-06 -1.19761e-06 0)
(6.21574e-06 -1.11177e-06 0)
(6.19514e-06 -1.06762e-06 0)
(6.20704e-06 -1.0528e-06 0)
(6.24402e-06 -1.05732e-06 0)
(6.30078e-06 -1.07532e-06 0)
(6.37413e-06 -1.10216e-06 0)
(6.45837e-06 -1.13417e-06 0)
(6.16215e-06 -1.81466e-06 0)
(5.93305e-06 -1.58918e-06 0)
(5.78531e-06 -1.44578e-06 0)
(5.70486e-06 -1.36798e-06 0)
(5.67108e-06 -1.32979e-06 0)
(5.67323e-06 -1.32007e-06 0)
(5.70263e-06 -1.32906e-06 0)
(5.75309e-06 -1.35122e-06 0)
(5.82057e-06 -1.38218e-06 0)
(5.89962e-06 -1.41825e-06 0)
(5.71233e-06 -2.03398e-06 0)
(5.44375e-06 -1.83715e-06 0)
(5.27109e-06 -1.71178e-06 0)
(5.17365e-06 -1.64687e-06 0)
(5.12815e-06 -1.61761e-06 0)
(5.12141e-06 -1.61475e-06 0)
(5.14369e-06 -1.62917e-06 0)
(5.18792e-06 -1.65616e-06 0)
(5.24952e-06 -1.69133e-06 0)
(5.32316e-06 -1.73295e-06 0)
(8.95399e-06 -4.20512e-08 0)
(9.08767e-06 -4.24367e-08 0)
(9.22991e-06 -4.2927e-08 0)
(9.38021e-06 -4.32582e-08 0)
(9.53762e-06 -4.3389e-08 0)
(9.70155e-06 -4.32993e-08 0)
(9.87123e-06 -4.29204e-08 0)
(1.0046e-05 -4.22799e-08 0)
(1.02253e-05 -4.13746e-08 0)
(1.04087e-05 -4.01618e-08 0)
(1.05954e-05 -3.85988e-08 0)
(1.0785e-05 -3.66648e-08 0)
(1.09769e-05 -3.43343e-08 0)
(1.11705e-05 -3.15818e-08 0)
(1.13653e-05 -2.83634e-08 0)
(1.15605e-05 -2.46125e-08 0)
(1.17558e-05 -2.02427e-08 0)
(1.19498e-05 -1.51702e-08 0)
(1.21429e-05 -9.27562e-09 0)
(1.23316e-05 -2.51341e-09 0)
(8.86053e-06 -1.30549e-07 0)
(9.00205e-06 -1.31111e-07 0)
(9.15129e-06 -1.32041e-07 0)
(9.30769e-06 -1.32585e-07 0)
(9.47055e-06 -1.32547e-07 0)
(9.63924e-06 -1.31941e-07 0)
(9.81323e-06 -1.30611e-07 0)
(9.99192e-06 -1.2855e-07 0)
(1.01748e-05 -1.25648e-07 0)
(1.03613e-05 -1.21813e-07 0)
(1.0551e-05 -1.16983e-07 0)
(1.07434e-05 -1.11113e-07 0)
(1.09378e-05 -1.04101e-07 0)
(1.11339e-05 -9.58205e-08 0)
(1.1331e-05 -8.61155e-08 0)
(1.15284e-05 -7.48091e-08 0)
(1.17259e-05 -6.16703e-08 0)
(1.19219e-05 -4.64615e-08 0)
(1.21169e-05 -2.8809e-08 0)
(1.23077e-05 -8.55957e-09 0)
(8.67681e-06 -2.3116e-07 0)
(8.83373e-06 -2.30157e-07 0)
(8.99671e-06 -2.29929e-07 0)
(9.16497e-06 -2.29481e-07 0)
(9.33843e-06 -2.28313e-07 0)
(9.51655e-06 -2.26438e-07 0)
(9.69904e-06 -2.23499e-07 0)
(9.88534e-06 -2.19448e-07 0)
(1.00751e-05 -2.14091e-07 0)
(1.0268e-05 -2.07309e-07 0)
(1.04635e-05 -1.98991e-07 0)
(1.06612e-05 -1.89017e-07 0)
(1.08608e-05 -1.77179e-07 0)
(1.10615e-05 -1.63253e-07 0)
(1.12631e-05 -1.46984e-07 0)
(1.14648e-05 -1.28086e-07 0)
(1.16664e-05 -1.06174e-07 0)
(1.18665e-05 -8.0847e-08 0)
(1.20655e-05 -5.14729e-08 0)
(1.22602e-05 -1.77782e-08 0)
(8.40839e-06 -3.50766e-07 0)
(8.58735e-06 -3.45465e-07 0)
(8.7702e-06 -3.4158e-07 0)
(8.95572e-06 -3.38235e-07 0)
(9.14468e-06 -3.34344e-07 0)
(9.33651e-06 -3.29932e-07 0)
(9.53135e-06 -3.24345e-07 0)
(9.7288e-06 -3.17493e-07 0)
(9.92879e-06 -3.09049e-07 0)
(1.0131e-05 -2.98829e-07 0)
(1.03351e-05 -2.86622e-07 0)
(1.05407e-05 -2.7221e-07 0)
(1.07477e-05 -2.55291e-07 0)
(1.09554e-05 -2.35554e-07 0)
(1.11636e-05 -2.12646e-07 0)
(1.13716e-05 -1.8614e-07 0)
(1.15792e-05 -1.55485e-07 0)
(1.17852e-05 -1.201e-07 0)
(1.199e-05 -7.90782e-08 0)
(1.21905e-05 -3.2048e-08 0)
(8.06336e-06 -4.95468e-07 0)
(8.27e-06 -4.82363e-07 0)
(8.47805e-06 -4.71637e-07 0)
(8.68545e-06 -4.62947e-07 0)
(8.89418e-06 -4.54254e-07 0)
(9.10356e-06 -4.45623e-07 0)
(9.31431e-06 -4.36023e-07 0)
(9.52613e-06 -4.25281e-07 0)
(9.73921e-06 -4.12872e-07 0)
(9.95336e-06 -3.98496e-07 0)
(1.01685e-05 -3.81838e-07 0)
(1.03845e-05 -3.62569e-07 0)
(1.0601e-05 -3.40268e-07 0)
(1.08177e-05 -3.14514e-07 0)
(1.10345e-05 -2.84829e-07 0)
(1.12506e-05 -2.50641e-07 0)
(1.14661e-05 -2.11232e-07 0)
(1.16797e-05 -1.65849e-07 0)
(1.18919e-05 -1.13291e-07 0)
(1.20999e-05 -5.30868e-08 0)
(7.65154e-06 -6.69654e-07 0)
(7.89003e-06 -6.44685e-07 0)
(8.12755e-06 -6.23333e-07 0)
(8.36072e-06 -6.06302e-07 0)
(8.59291e-06 -5.90334e-07 0)
(8.82324e-06 -5.75459e-07 0)
(9.05293e-06 -5.60205e-07 0)
(9.28195e-06 -5.44213e-07 0)
(9.51075e-06 -5.26782e-07 0)
(9.73933e-06 -5.0744e-07 0)
(9.96782e-06 -4.85717e-07 0)
(1.01961e-05 -4.61127e-07 0)
(1.04242e-05 -4.33112e-07 0)
(1.06518e-05 -4.0112e-07 0)
(1.08787e-05 -3.64528e-07 0)
(1.11047e-05 -3.22626e-07 0)
(1.13295e-05 -2.74509e-07 0)
(1.15523e-05 -2.19255e-07 0)
(1.17735e-05 -1.55369e-07 0)
(1.19905e-05 -8.22159e-08 0)
(7.18447e-06 -8.76053e-07 0)
(7.45754e-06 -8.35079e-07 0)
(7.72757e-06 -7.99332e-07 0)
(7.98939e-06 -7.70759e-07 0)
(8.24776e-06 -7.44915e-07 0)
(8.50167e-06 -7.21556e-07 0)
(8.75283e-06 -6.98901e-07 0)
(9.00139e-06 -6.76215e-07 0)
(9.24811e-06 -6.52594e-07 0)
(9.4932e-06 -6.27343e-07 0)
(9.73694e-06 -5.99792e-07 0)
(9.97941e-06 -5.69276e-07 0)
(1.02207e-05 -5.35086e-07 0)
(1.04607e-05 -4.96539e-07 0)
(1.06994e-05 -4.52852e-07 0)
(1.09366e-05 -4.03168e-07 0)
(1.11722e-05 -3.4638e-07 0)
(1.14055e-05 -2.81377e-07 0)
(1.1637e-05 -2.06388e-07 0)
(1.18643e-05 -1.20595e-07 0)
(6.67375e-06 -1.11524e-06 0)
(6.98247e-06 -1.05373e-06 0)
(7.28658e-06 -9.99828e-07 0)
(7.57907e-06 -9.56143e-07 0)
(7.86567e-06 -9.17687e-07 0)
(8.14528e-06 -8.83459e-07 0)
(8.42e-06 -8.51502e-07 0)
(8.69016e-06 -8.20597e-07 0)
(8.95667e-06 -7.8959e-07 0)
(9.22001e-06 -7.57496e-07 0)
(9.48062e-06 -7.23412e-07 0)
(9.73876e-06 -6.86462e-07 0)
(9.99466e-06 -6.45772e-07 0)
(1.02484e-05 -6.00491e-07 0)
(1.05002e-05 -5.49663e-07 0)
(1.07498e-05 -4.92256e-07 0)
(1.09973e-05 -4.26958e-07 0)
(1.12421e-05 -3.5246e-07 0)
(1.1485e-05 -2.66708e-07 0)
(1.17237e-05 -1.68704e-07 0)
(6.13202e-06 -1.38674e-06 0)
(6.47638e-06 -1.30091e-06 0)
(6.81454e-06 -1.22646e-06 0)
(7.13873e-06 -1.16464e-06 0)
(7.4544e-06 -1.11116e-06 0)
(7.761e-06 -1.0639e-06 0)
(8.06047e-06 -1.02076e-06 0)
(8.35351e-06 -9.80011e-07 0)
(8.64114e-06 -9.40234e-07 0)
(8.92402e-06 -9.00132e-07 0)
(9.20275e-06 -8.58557e-07 0)
(9.47779e-06 -8.1442e-07 0)
(9.74951e-06 -7.66661e-07 0)
(1.00182e-05 -7.14242e-07 0)
(1.0284e-05 -6.56016e-07 0)
(1.0547e-05 -5.90759e-07 0)
(1.08075e-05 -5.16958e-07 0)
(1.10648e-05 -4.33107e-07 0)
(1.13199e-05 -3.36909e-07 0)
(1.15709e-05 -2.272e-07 0)
(5.56941e-06 -1.68563e-06 0)
(5.94927e-06 -1.56997e-06 0)
(6.31991e-06 -1.47248e-06 0)
(6.67652e-06 -1.38961e-06 0)
(7.02189e-06 -1.31866e-06 0)
(7.35662e-06 -1.25639e-06 0)
(7.68199e-06 -1.20047e-06 0)
(7.99906e-06 -1.14871e-06 0)
(8.30887e-06 -1.0993e-06 0)
(8.61228e-06 -1.05059e-06 0)
(8.91006e-06 -1.00115e-06 0)
(9.20282e-06 -9.49634e-07 0)
(9.49112e-06 -8.9475e-07 0)
(9.77535e-06 -8.35252e-07 0)
(1.00559e-05 -7.69796e-07 0)
(1.03329e-05 -6.96964e-07 0)
(1.06067e-05 -6.15053e-07 0)
(1.0877e-05 -5.22349e-07 0)
(1.11449e-05 -4.16337e-07 0)
(1.14088e-05 -2.9563e-07 0)
(5.15403e-06 -1.97031e-06 0)
(5.55659e-06 -1.83103e-06 0)
(5.94603e-06 -1.71663e-06 0)
(6.32211e-06 -1.61726e-06 0)
(6.68588e-06 -1.53113e-06 0)
(7.03823e-06 -1.45496e-06 0)
(7.3803e-06 -1.38633e-06 0)
(7.71309e-06 -1.32299e-06 0)
(8.03761e-06 -1.26299e-06 0)
(8.3547e-06 -1.20454e-06 0)
(8.66517e-06 -1.14606e-06 0)
(8.9697e-06 -1.08607e-06 0)
(9.26891e-06 -1.02312e-06 0)
(9.56328e-06 -9.55845e-07 0)
(9.85326e-06 -8.82766e-07 0)
(1.01391e-05 -8.02346e-07 0)
(1.04214e-05 -7.12819e-07 0)
(1.06999e-05 -6.1236e-07 0)
(1.09759e-05 -4.98421e-07 0)
(1.12481e-05 -3.69533e-07 0)
(4.91542e-06 -2.20047e-06 0)
(5.32068e-06 -2.05594e-06 0)
(5.71326e-06 -1.9322e-06 0)
(6.09422e-06 -1.82285e-06 0)
(6.46363e-06 -1.7262e-06 0)
(6.82211e-06 -1.63953e-06 0)
(7.17045e-06 -1.5606e-06 0)
(7.50943e-06 -1.48732e-06 0)
(7.83989e-06 -1.41779e-06 0)
(8.16256e-06 -1.35026e-06 0)
(8.47818e-06 -1.28314e-06 0)
(8.78743e-06 -1.21494e-06 0)
(9.09089e-06 -1.1442e-06 0)
(9.38909e-06 -1.06948e-06 0)
(9.6825e-06 -9.8933e-07 0)
(9.9715e-06 -9.02172e-07 0)
(1.02566e-05 -8.06306e-07 0)
(1.0538e-05 -6.99925e-07 0)
(1.08167e-05 -5.80609e-07 0)
(1.10921e-05 -4.46963e-07 0)
(4.71027e-06 -2.42201e-06 0)
(5.1117e-06 -2.27397e-06 0)
(5.50364e-06 -2.14402e-06 0)
(5.88537e-06 -2.02698e-06 0)
(6.25692e-06 -1.92161e-06 0)
(6.61835e-06 -1.82576e-06 0)
(6.97021e-06 -1.73748e-06 0)
(7.31299e-06 -1.65491e-06 0)
(7.64734e-06 -1.57628e-06 0)
(7.97386e-06 -1.49995e-06 0)
(8.2932e-06 -1.42438e-06 0)
(8.60597e-06 -1.34811e-06 0)
(8.91272e-06 -1.26967e-06 0)
(9.21396e-06 -1.18765e-06 0)
(9.51018e-06 -1.1006e-06 0)
(9.80185e-06 -1.00696e-06 0)
(1.00895e-05 -9.05123e-07 0)
(1.03735e-05 -7.93348e-07 0)
(1.06547e-05 -6.69376e-07 0)
(1.09332e-05 -5.31931e-07 0)
(4.52886e-06 -2.63564e-06 0)
(4.9246e-06 -2.4858e-06 0)
(5.31317e-06 -2.35112e-06 0)
(5.69301e-06 -2.22772e-06 0)
(6.06407e-06 -2.11485e-06 0)
(6.42604e-06 -2.01084e-06 0)
(6.77923e-06 -1.91407e-06 0)
(7.12387e-06 -1.82291e-06 0)
(7.46041e-06 -1.73577e-06 0)
(7.78933e-06 -1.65113e-06 0)
(8.11116e-06 -1.56754e-06 0)
(8.4264e-06 -1.48356e-06 0)
(8.73558e-06 -1.39778e-06 0)
(9.03918e-06 -1.30882e-06 0)
(9.33767e-06 -1.21527e-06 0)
(9.63157e-06 -1.11564e-06 0)
(9.92143e-06 -1.0084e-06 0)
(1.02077e-05 -8.91914e-07 0)
(1.04913e-05 -7.6412e-07 0)
(1.07725e-05 -6.2389e-07 0)
(4.36868e-06 -2.8403e-06 0)
(4.75705e-06 -2.68988e-06 0)
(5.14027e-06 -2.55207e-06 0)
(5.51615e-06 -2.42386e-06 0)
(5.88469e-06 -2.3049e-06 0)
(6.24525e-06 -2.19397e-06 0)
(6.59793e-06 -2.08974e-06 0)
(6.94275e-06 -1.99085e-06 0)
(7.28001e-06 -1.89591e-06 0)
(7.61001e-06 -1.80355e-06 0)
(7.93319e-06 -1.71242e-06 0)
(8.24995e-06 -1.62117e-06 0)
(8.56074e-06 -1.52844e-06 0)
(8.86601e-06 -1.43294e-06 0)
(9.16624e-06 -1.33329e-06 0)
(9.46194e-06 -1.22811e-06 0)
(9.75366e-06 -1.11597e-06 0)
(1.0042e-05 -9.95366e-07 0)
(1.03277e-05 -8.64457e-07 0)
(1.06115e-05 -7.22289e-07 0)
(4.22603e-06 -3.03611e-06 0)
(4.60616e-06 -2.88609e-06 0)
(4.98279e-06 -2.74627e-06 0)
(5.35331e-06 -2.61443e-06 0)
(5.71784e-06 -2.49056e-06 0)
(6.07547e-06 -2.37377e-06 0)
(6.42616e-06 -2.26306e-06 0)
(6.76977e-06 -2.15732e-06 0)
(7.10648e-06 -2.05536e-06 0)
(7.43644e-06 -1.95595e-06 0)
(7.75996e-06 -1.85788e-06 0)
(8.07735e-06 -1.75991e-06 0)
(8.38902e-06 -1.66074e-06 0)
(8.69535e-06 -1.55917e-06 0)
(8.9968e-06 -1.45393e-06 0)
(9.29388e-06 -1.34372e-06 0)
(9.58712e-06 -1.22724e-06 0)
(9.87714e-06 -1.10313e-06 0)
(1.01648e-05 -9.69793e-07 0)
(1.04508e-05 -8.26432e-07 0)
(4.0981e-06 -3.22329e-06 0)
(4.46949e-06 -3.07435e-06 0)
(4.83869e-06 -2.93346e-06 0)
(5.20292e-06 -2.79903e-06 0)
(5.56234e-06 -2.67131e-06 0)
(5.91588e-06 -2.54968e-06 0)
(6.26345e-06 -2.43345e-06 0)
(6.60477e-06 -2.32173e-06 0)
(6.93988e-06 -2.21354e-06 0)
(7.26884e-06 -2.1078e-06 0)
(7.59184e-06 -2.00343e-06 0)
(7.90911e-06 -1.8993e-06 0)
(8.22099e-06 -1.79424e-06 0)
(8.52783e-06 -1.68714e-06 0)
(8.83004e-06 -1.57681e-06 0)
(9.1281e-06 -1.46209e-06 0)
(9.42254e-06 -1.3418e-06 0)
(9.71401e-06 -1.21475e-06 0)
(1.00033e-05 -1.07958e-06 0)
(1.02912e-05 -9.35627e-07 0)
(3.98221e-06 -3.40227e-06 0)
(4.3447e-06 -3.25486e-06 0)
(4.706e-06 -3.1136e-06 0)
(5.06334e-06 -2.97739e-06 0)
(5.41689e-06 -2.84668e-06 0)
(5.76554e-06 -2.72112e-06 0)
(6.10914e-06 -2.60025e-06 0)
(6.44731e-06 -2.4834e-06 0)
(6.77999e-06 -2.36975e-06 0)
(7.10716e-06 -2.25839e-06 0)
(7.42893e-06 -2.1484e-06 0)
(7.74545e-06 -2.03874e-06 0)
(8.05699e-06 -1.92837e-06 0)
(8.36385e-06 -1.81629e-06 0)
(8.6664e-06 -1.70141e-06 0)
(8.9651e-06 -1.58271e-06 0)
(9.26046e-06 -1.45915e-06 0)
(9.55311e-06 -1.32969e-06 0)
(9.84381e-06 -1.19322e-06 0)
(1.01334e-05 -1.04916e-06 0)
(3.87598e-06 -3.57356e-06 0)
(4.2296e-06 -3.42797e-06 0)
(4.58279e-06 -3.28683e-06 0)
(4.93291e-06 -3.1495e-06 0)
(5.28013e-06 -3.01656e-06 0)
(5.62334e-06 -2.88785e-06 0)
(5.96237e-06 -2.76314e-06 0)
(6.29676e-06 -2.64193e-06 0)
(6.62639e-06 -2.52357e-06 0)
(6.95117e-06 -2.40732e-06 0)
(7.27115e-06 -2.29236e-06 0)
(7.5864e-06 -2.17781e-06 0)
(7.89716e-06 -2.06272e-06 0)
(8.20364e-06 -1.94623e-06 0)
(8.5062e-06 -1.82734e-06 0)
(8.80526e-06 -1.70519e-06 0)
(9.10126e-06 -1.57886e-06 0)
(9.39486e-06 -1.44747e-06 0)
(9.68667e-06 -1.31012e-06 0)
(9.97766e-06 -1.16637e-06 0)
(3.77731e-06 -3.73772e-06 0)
(4.1222e-06 -3.59409e-06 0)
(4.46729e-06 -3.45343e-06 0)
(4.81005e-06 -3.31547e-06 0)
(5.1507e-06 -3.1809e-06 0)
(5.48816e-06 -3.04972e-06 0)
(5.82222e-06 -2.92188e-06 0)
(6.15241e-06 -2.79704e-06 0)
(6.47856e-06 -2.67468e-06 0)
(6.80052e-06 -2.55421e-06 0)
(7.11828e-06 -2.43495e-06 0)
(7.43188e-06 -2.31613e-06 0)
(7.74149e-06 -2.19692e-06 0)
(8.04728e-06 -2.07658e-06 0)
(8.34956e-06 -1.95424e-06 0)
(8.64871e-06 -1.82913e-06 0)
(8.94512e-06 -1.7005e-06 0)
(9.23942e-06 -1.56761e-06 0)
(9.53213e-06 -1.42973e-06 0)
(9.82427e-06 -1.28661e-06 0)
(3.68433e-06 -3.89533e-06 0)
(4.02075e-06 -3.75366e-06 0)
(4.35784e-06 -3.61372e-06 0)
(4.69328e-06 -3.47552e-06 0)
(5.0273e-06 -3.33982e-06 0)
(5.35886e-06 -3.20676e-06 0)
(5.68774e-06 -3.07641e-06 0)
(6.01347e-06 -2.94858e-06 0)
(6.33584e-06 -2.82288e-06 0)
(6.65468e-06 -2.69885e-06 0)
(6.96994e-06 -2.57593e-06 0)
(7.2816e-06 -2.45345e-06 0)
(7.58979e-06 -2.3307e-06 0)
(7.89466e-06 -2.20707e-06 0)
(8.19643e-06 -2.08177e-06 0)
(8.49546e-06 -1.95419e-06 0)
(8.79209e-06 -1.82368e-06 0)
(9.08686e-06 -1.68963e-06 0)
(9.38031e-06 -1.55155e-06 0)
(9.67331e-06 -1.40927e-06 0)
(3.59535e-06 -4.04691e-06 0)
(3.92362e-06 -3.90717e-06 0)
(4.25292e-06 -3.76809e-06 0)
(4.5812e-06 -3.62994e-06 0)
(4.90864e-06 -3.49352e-06 0)
(5.23428e-06 -3.35905e-06 0)
(5.5579e-06 -3.22675e-06 0)
(5.87905e-06 -3.09651e-06 0)
(6.19749e-06 -2.96808e-06 0)
(6.51306e-06 -2.84109e-06 0)
(6.82564e-06 -2.7151e-06 0)
(7.1352e-06 -2.58955e-06 0)
(7.44182e-06 -2.46383e-06 0)
(7.74559e-06 -2.33742e-06 0)
(8.04671e-06 -2.20967e-06 0)
(8.34546e-06 -2.08005e-06 0)
(8.64213e-06 -1.94804e-06 0)
(8.93722e-06 -1.81316e-06 0)
(9.23121e-06 -1.6751e-06 0)
(9.52488e-06 -1.53376e-06 0)
(3.50889e-06 -4.19299e-06 0)
(3.82935e-06 -4.05507e-06 0)
(4.15114e-06 -3.91694e-06 0)
(4.47247e-06 -3.77906e-06 0)
(4.79346e-06 -3.64223e-06 0)
(5.11328e-06 -3.50678e-06 0)
(5.43169e-06 -3.373e-06 0)
(5.74827e-06 -3.24089e-06 0)
(6.06279e-06 -3.11028e-06 0)
(6.37504e-06 -2.9809e-06 0)
(6.68489e-06 -2.85242e-06 0)
(6.99227e-06 -2.72434e-06 0)
(7.29722e-06 -2.59618e-06 0)
(7.5998e-06 -2.4675e-06 0)
(7.90013e-06 -2.33774e-06 0)
(8.19848e-06 -2.20647e-06 0)
(8.49505e-06 -2.07328e-06 0)
(8.79034e-06 -1.93783e-06 0)
(9.08467e-06 -1.79997e-06 0)
(9.37884e-06 -1.65963e-06 0)
(3.42354e-06 -4.334e-06 0)
(3.73653e-06 -4.19783e-06 0)
(4.05112e-06 -4.06067e-06 0)
(4.36576e-06 -3.9232e-06 0)
(4.68055e-06 -3.78624e-06 0)
(4.99475e-06 -3.65016e-06 0)
(5.30813e-06 -3.51533e-06 0)
(5.62028e-06 -3.38183e-06 0)
(5.93096e-06 -3.24956e-06 0)
(6.23994e-06 -3.11831e-06 0)
(6.54708e-06 -2.98785e-06 0)
(6.85227e-06 -2.85776e-06 0)
(7.15553e-06 -2.72763e-06 0)
(7.45686e-06 -2.59713e-06 0)
(7.75636e-06 -2.46576e-06 0)
(8.05422e-06 -2.33319e-06 0)
(8.35061e-06 -2.19912e-06 0)
(8.64598e-06 -2.06332e-06 0)
(8.94051e-06 -1.92573e-06 0)
(9.235e-06 -1.78643e-06 0)
(3.33785e-06 -4.47041e-06 0)
(3.64373e-06 -4.33582e-06 0)
(3.95148e-06 -4.19967e-06 0)
(4.25977e-06 -4.06275e-06 0)
(4.56869e-06 -3.92589e-06 0)
(4.87758e-06 -3.7895e-06 0)
(5.1862e-06 -3.65402e-06 0)
(5.49414e-06 -3.51954e-06 0)
(5.80117e-06 -3.38605e-06 0)
(6.10704e-06 -3.25341e-06 0)
(6.41159e-06 -3.12144e-06 0)
(6.7147e-06 -2.98981e-06 0)
(7.01633e-06 -2.85817e-06 0)
(7.31645e-06 -2.72625e-06 0)
(7.6151e-06 -2.59364e-06 0)
(7.91244e-06 -2.46007e-06 0)
(8.20861e-06 -2.32537e-06 0)
(8.50393e-06 -2.18938e-06 0)
(8.79863e-06 -2.05213e-06 0)
(9.09328e-06 -1.91379e-06 0)
(3.25045e-06 -4.60254e-06 0)
(3.54958e-06 -4.46957e-06 0)
(3.85081e-06 -4.33432e-06 0)
(4.15321e-06 -4.19804e-06 0)
(4.4567e-06 -4.06151e-06 0)
(4.76068e-06 -3.92511e-06 0)
(5.06491e-06 -3.7893e-06 0)
(5.36899e-06 -3.65424e-06 0)
(5.67265e-06 -3.51995e-06 0)
(5.97565e-06 -3.38634e-06 0)
(6.27782e-06 -3.2533e-06 0)
(6.57899e-06 -3.12055e-06 0)
(6.87908e-06 -2.9878e-06 0)
(7.17805e-06 -2.85482e-06 0)
(7.47589e-06 -2.72127e-06 0)
(7.77273e-06 -2.58699e-06 0)
(8.06864e-06 -2.45185e-06 0)
(8.36387e-06 -2.31575e-06 0)
(8.65862e-06 -2.17887e-06 0)
(8.95337e-06 -2.04142e-06 0)
(3.15995e-06 -4.73093e-06 0)
(3.45249e-06 -4.59911e-06 0)
(3.74753e-06 -4.46504e-06 0)
(4.04477e-06 -4.32969e-06 0)
(4.34331e-06 -4.19364e-06 0)
(4.64294e-06 -4.05747e-06 0)
(4.94325e-06 -3.92162e-06 0)
(5.2439e-06 -3.7863e-06 0)
(5.5446e-06 -3.65155e-06 0)
(5.84509e-06 -3.51735e-06 0)
(6.14516e-06 -3.38362e-06 0)
(6.44462e-06 -3.25011e-06 0)
(6.74335e-06 -3.11657e-06 0)
(7.04128e-06 -2.98285e-06 0)
(7.33839e-06 -2.84866e-06 0)
(7.63477e-06 -2.71387e-06 0)
(7.93042e-06 -2.57841e-06 0)
(8.22555e-06 -2.44228e-06 0)
(8.52025e-06 -2.30577e-06 0)
(8.81503e-06 -2.16905e-06 0)
(3.06417e-06 -4.85544e-06 0)
(3.35111e-06 -4.72495e-06 0)
(3.64108e-06 -4.59232e-06 0)
(3.93334e-06 -4.45792e-06 0)
(4.2276e-06 -4.32258e-06 0)
(4.5234e-06 -4.18688e-06 0)
(4.82038e-06 -4.05127e-06 0)
(5.11815e-06 -3.916e-06 0)
(5.41639e-06 -3.78114e-06 0)
(5.7148e-06 -3.64667e-06 0)
(6.01312e-06 -3.51255e-06 0)
(6.31113e-06 -3.3786e-06 0)
(6.60872e-06 -3.24459e-06 0)
(6.9058e-06 -3.11038e-06 0)
(7.20229e-06 -2.97576e-06 0)
(7.49823e-06 -2.84065e-06 0)
(7.79359e-06 -2.70499e-06 0)
(8.08866e-06 -2.56886e-06 0)
(8.38335e-06 -2.43262e-06 0)
(8.67803e-06 -2.29655e-06 0)
(2.96188e-06 -4.97743e-06 0)
(3.24368e-06 -4.84851e-06 0)
(3.52904e-06 -4.717e-06 0)
(3.81725e-06 -4.58365e-06 0)
(4.10802e-06 -4.44918e-06 0)
(4.40082e-06 -4.31414e-06 0)
(4.69525e-06 -4.17898e-06 0)
(4.99088e-06 -4.04398e-06 0)
(5.2873e-06 -3.90923e-06 0)
(5.58417e-06 -3.77474e-06 0)
(5.88119e-06 -3.64049e-06 0)
(6.17815e-06 -3.5063e-06 0)
(6.47489e-06 -3.37202e-06 0)
(6.77124e-06 -3.23756e-06 0)
(7.06718e-06 -3.10267e-06 0)
(7.36276e-06 -2.96729e-06 0)
(7.65794e-06 -2.83152e-06 0)
(7.95284e-06 -2.69541e-06 0)
(8.24752e-06 -2.55932e-06 0)
(8.54214e-06 -2.4237e-06 0)
(2.85174e-06 -5.09588e-06 0)
(3.12904e-06 -4.96873e-06 0)
(3.41058e-06 -4.83884e-06 0)
(3.69566e-06 -4.70687e-06 0)
(3.98387e-06 -4.57355e-06 0)
(4.27462e-06 -4.43942e-06 0)
(4.56741e-06 -4.30499e-06 0)
(4.8617e-06 -4.17052e-06 0)
(5.15702e-06 -4.03609e-06 0)
(5.453e-06 -3.90174e-06 0)
(5.74928e-06 -3.76754e-06 0)
(6.04555e-06 -3.63335e-06 0)
(6.34167e-06 -3.49894e-06 0)
(6.63752e-06 -3.3643e-06 0)
(6.93299e-06 -3.22929e-06 0)
(7.22819e-06 -3.09379e-06 0)
(7.52316e-06 -2.95794e-06 0)
(7.81792e-06 -2.82179e-06 0)
(8.11261e-06 -2.68577e-06 0)
(8.40723e-06 -2.55037e-06 0)
(2.12532e-07 -4.42721e-06 0)
(6.40601e-07 -4.36178e-06 0)
(1.07769e-06 -4.23354e-06 0)
(1.52892e-06 -4.04763e-06 0)
(1.99842e-06 -3.81116e-06 0)
(2.48878e-06 -3.533e-06 0)
(3.00102e-06 -3.2233e-06 0)
(3.53424e-06 -2.89271e-06 0)
(4.08645e-06 -2.55202e-06 0)
(4.65342e-06 -2.2098e-06 0)
(2.06451e-07 -4.49813e-06 0)
(6.21912e-07 -4.43834e-06 0)
(1.04489e-06 -4.32108e-06 0)
(1.47971e-06 -4.15071e-06 0)
(1.92989e-06 -3.93327e-06 0)
(2.39764e-06 -3.6763e-06 0)
(2.88391e-06 -3.38842e-06 0)
(3.38777e-06 -3.07886e-06 0)
(3.90674e-06 -2.75741e-06 0)
(4.4376e-06 -2.4311e-06 0)
(2.01088e-07 -4.57075e-06 0)
(6.05396e-07 -4.51608e-06 0)
(1.01585e-06 -4.40876e-06 0)
(1.43593e-06 -4.25258e-06 0)
(1.8686e-06 -4.05277e-06 0)
(2.3157e-06 -3.81584e-06 0)
(2.77821e-06 -3.5492e-06 0)
(3.25584e-06 -3.26059e-06 0)
(3.74678e-06 -2.9585e-06 0)
(4.24897e-06 -2.6474e-06 0)
(1.96321e-07 -4.64521e-06 0)
(5.90728e-07 -4.59489e-06 0)
(9.90301e-07 -4.49606e-06 0)
(1.39782e-06 -4.352e-06 0)
(1.81579e-06 -4.16735e-06 0)
(2.2457e-06 -3.94777e-06 0)
(2.68827e-06 -3.69986e-06 0)
(3.14326e-06 -3.43037e-06 0)
(3.6091e-06 -3.14726e-06 0)
(4.08403e-06 -2.85391e-06 0)
(1.91945e-07 -4.72147e-06 0)
(5.77232e-07 -4.67506e-06 0)
(9.66847e-07 -4.58381e-06 0)
(1.36301e-06 -4.45067e-06 0)
(1.76783e-06 -4.27974e-06 0)
(2.18254e-06 -4.07606e-06 0)
(2.60779e-06 -3.84547e-06 0)
(3.04336e-06 -3.59372e-06 0)
(3.48815e-06 -3.32804e-06 0)
(3.93972e-06 -3.05147e-06 0)
(1.87856e-07 -4.79943e-06 0)
(5.64742e-07 -4.75639e-06 0)
(9.45252e-07 -4.67174e-06 0)
(1.33124e-06 -4.54813e-06 0)
(1.72445e-06 -4.38924e-06 0)
(2.12589e-06 -4.19961e-06 0)
(2.53601e-06 -3.98454e-06 0)
(2.95452e-06 -3.74911e-06 0)
(3.38088e-06 -3.49986e-06 0)
(3.81206e-06 -3.23987e-06 0)
(1.8394e-07 -4.87899e-06 0)
(5.52848e-07 -4.83896e-06 0)
(9.24801e-07 -4.76019e-06 0)
(1.3014e-06 -4.64511e-06 0)
(1.68404e-06 -4.49703e-06 0)
(2.0736e-06 -4.32006e-06 0)
(2.47047e-06 -4.11902e-06 0)
(2.87413e-06 -3.89844e-06 0)
(3.28456e-06 -3.66417e-06 0)
(3.69817e-06 -3.41962e-06 0)
(1.80195e-07 -4.95996e-06 0)
(5.41412e-07 -4.92259e-06 0)
(9.05248e-07 -4.84903e-06 0)
(1.27308e-06 -4.74149e-06 0)
(1.64604e-06 -4.60302e-06 0)
(2.02483e-06 -4.43736e-06 0)
(2.40985e-06 -4.24895e-06 0)
(2.8004e-06 -4.04195e-06 0)
(3.19682e-06 -3.82149e-06 0)
(3.59529e-06 -3.59127e-06 0)
(1.76521e-07 -5.0422e-06 0)
(5.30212e-07 -5.00721e-06 0)
(8.86211e-07 -4.93831e-06 0)
(1.24568e-06 -4.83754e-06 0)
(1.6096e-06 -4.7077e-06 0)
(1.97853e-06 -4.55222e-06 0)
(2.35283e-06 -4.37519e-06 0)
(2.73172e-06 -4.18049e-06 0)
(3.11574e-06 -3.97262e-06 0)
(3.50106e-06 -3.75552e-06 0)
(1.72841e-07 -5.12552e-06 0)
(5.19111e-07 -5.09266e-06 0)
(8.67445e-07 -5.02792e-06 0)
(1.21884e-06 -4.93321e-06 0)
(1.57417e-06 -4.81112e-06 0)
(1.9339e-06 -4.6648e-06 0)
(2.29836e-06 -4.49804e-06 0)
(2.66672e-06 -4.3145e-06 0)
(3.03964e-06 -4.11814e-06 0)
(3.41341e-06 -3.91299e-06 0)
(1.69123e-07 -5.20971e-06 0)
(5.07981e-07 -5.17878e-06 0)
(8.48679e-07 -5.1178e-06 0)
(1.19217e-06 -5.02855e-06 0)
(1.5392e-06 -4.91346e-06 0)
(1.89022e-06 -4.77542e-06 0)
(2.2455e-06 -4.61795e-06 0)
(2.60423e-06 -4.44452e-06 0)
(2.96707e-06 -4.25863e-06 0)
(3.33058e-06 -4.06434e-06 0)
(1.6536e-07 -5.29457e-06 0)
(4.96702e-07 -5.26539e-06 0)
(8.29692e-07 -5.20781e-06 0)
(1.16532e-06 -5.1235e-06 0)
(1.50422e-06 -5.01473e-06 0)
(1.84683e-06 -4.8842e-06 0)
(2.19342e-06 -4.73515e-06 0)
(2.54318e-06 -4.57089e-06 0)
(2.89675e-06 -4.39455e-06 0)
(3.25103e-06 -4.21011e-06 0)
(1.61507e-07 -5.37987e-06 0)
(4.85107e-07 -5.35228e-06 0)
(8.10235e-07 -5.2978e-06 0)
(1.13792e-06 -5.21799e-06 0)
(1.46875e-06 -5.11498e-06 0)
(1.80311e-06 -4.99129e-06 0)
(2.1413e-06 -4.84991e-06 0)
(2.48258e-06 -4.69398e-06 0)
(2.82751e-06 -4.52634e-06 0)
(3.17337e-06 -4.35083e-06 0)
(1.57494e-07 -5.46534e-06 0)
(4.73027e-07 -5.43919e-06 0)
(7.90052e-07 -5.38756e-06 0)
(1.1096e-06 -5.31187e-06 0)
(1.43227e-06 -5.21412e-06 0)
(1.75842e-06 -5.09668e-06 0)
(2.08838e-06 -4.96232e-06 0)
(2.4215e-06 -4.81399e-06 0)
(2.75824e-06 -4.65432e-06 0)
(3.09626e-06 -4.48693e-06 0)
(1.53253e-07 -5.55074e-06 0)
(4.60301e-07 -5.52591e-06 0)
(7.68878e-07 -5.47691e-06 0)
(1.07999e-06 -5.40503e-06 0)
(1.39428e-06 -5.31214e-06 0)
(1.71211e-06 -5.20046e-06 0)
(2.03384e-06 -5.07254e-06 0)
(2.35895e-06 -4.93119e-06 0)
(2.68778e-06 -4.77883e-06 0)
(3.01834e-06 -4.61885e-06 0)
(1.48739e-07 -5.63559e-06 0)
(4.46792e-07 -5.61201e-06 0)
(7.46449e-07 -5.56546e-06 0)
(1.0487e-06 -5.49713e-06 0)
(1.35425e-06 -5.40876e-06 0)
(1.66351e-06 -5.30241e-06 0)
(1.97688e-06 -5.18047e-06 0)
(2.29396e-06 -5.04557e-06 0)
(2.61498e-06 -4.89997e-06 0)
(2.93832e-06 -4.74678e-06 0)
(1.43901e-07 -5.71978e-06 0)
(4.32315e-07 -5.69737e-06 0)
(7.22423e-07 -5.65313e-06 0)
(1.01522e-06 -5.58814e-06 0)
(1.31154e-06 -5.50401e-06 0)
(1.61183e-06 -5.40267e-06 0)
(1.91653e-06 -5.28634e-06 0)
(2.22537e-06 -5.15749e-06 0)
(2.53856e-06 -5.01817e-06 0)
(2.85469e-06 -4.87131e-06 0)
(1.38672e-07 -5.80235e-06 0)
(4.16651e-07 -5.78105e-06 0)
(6.96431e-07 -5.73902e-06 0)
(9.79067e-07 -5.67722e-06 0)
(1.26548e-06 -5.59714e-06 0)
(1.55623e-06 -5.50057e-06 0)
(1.8518e-06 -5.38958e-06 0)
(2.15202e-06 -5.26645e-06 0)
(2.4571e-06 -5.13309e-06 0)
(2.76595e-06 -4.99221e-06 0)
(1.32935e-07 -5.88373e-06 0)
(3.99459e-07 -5.86352e-06 0)
(6.6792e-07 -5.82361e-06 0)
(9.3947e-07 -5.7649e-06 0)
(1.21512e-06 -5.68875e-06 0)
(1.49554e-06 -5.59681e-06 0)
(1.78129e-06 -5.49096e-06 0)
(2.07237e-06 -5.37333e-06 0)
(2.36894e-06 -5.2457e-06 0)
(2.67028e-06 -5.11052e-06 0)
(1.26633e-07 -5.96137e-06 0)
(3.80597e-07 -5.94223e-06 0)
(6.36649e-07 -5.90445e-06 0)
(8.96057e-07 -5.84882e-06 0)
(1.15995e-06 -5.77657e-06 0)
(1.42914e-06 -5.68925e-06 0)
(1.70426e-06 -5.58855e-06 0)
(1.98553e-06 -5.47644e-06 0)
(2.2731e-06 -5.35457e-06 0)
(2.56658e-06 -5.22513e-06 0)
)


// ************************************************************************* //
