/*--------------------------------*- C++ -*----------------------------------*\
| =========                 |                                                 |
| \\      /  F ield         | foam-extend: Open Source CFD                    |
|  \\    /   O peration     | Version:     4.1                                |
|   \\  /    A nd           | Web:         http://www.foam-extend.org         |
|    \\/     M anipulation  |                                                 |
\*---------------------------------------------------------------------------*/
FoamFile
{
    version     2.0;
    format      ascii;
    class       volScalarField;
    location    "10";
    object      epsilonEq;
}
// * * * * * * * * * * * * * * * * * * * * * * * * * * * * * * * * * * * * * //

dimensions      [0 0 0 0 0 0 0];

internalField   nonuniform List<scalar> 
100000
(
2.10642e-05
2.13406e-05
2.14946e-05
2.16333e-05
2.17585e-05
2.18704e-05
2.19701e-05
2.20572e-05
2.21323e-05
2.21965e-05
2.22505e-05
2.22941e-05
2.23278e-05
2.23534e-05
2.23704e-05
2.23792e-05
2.23804e-05
2.23746e-05
2.23624e-05
2.23442e-05
2.23203e-05
2.22905e-05
2.22565e-05
2.22177e-05
2.21745e-05
2.21272e-05
2.20762e-05
2.2022e-05
2.19646e-05
2.1904e-05
2.18412e-05
2.17735e-05
2.17084e-05
2.16413e-05
2.15674e-05
2.14942e-05
2.14186e-05
2.13421e-05
2.12643e-05
2.11855e-05
2.11057e-05
2.10249e-05
2.09433e-05
2.08609e-05
2.0778e-05
2.06946e-05
2.06107e-05
2.04507e-05
1.9921e-05
1.94477e-05
1.90275e-05
1.86581e-05
1.83363e-05
1.80599e-05
1.78262e-05
1.76331e-05
1.74781e-05
1.73592e-05
1.7336e-05
1.74357e-05
1.74188e-05
1.74301e-05
1.74697e-05
1.7536e-05
1.76278e-05
1.77436e-05
1.78825e-05
1.80435e-05
1.82254e-05
1.84273e-05
1.86482e-05
1.87807e-05
1.87055e-05
1.8631e-05
1.85573e-05
1.84843e-05
1.84121e-05
1.83407e-05
1.827e-05
1.82003e-05
1.81314e-05
1.80633e-05
1.79962e-05
1.79301e-05
1.7865e-05
1.78012e-05
1.77385e-05
1.76772e-05
1.76173e-05
1.75589e-05
1.75023e-05
1.74477e-05
1.73954e-05
1.73457e-05
1.72991e-05
1.72556e-05
1.72148e-05
1.71789e-05
1.71285e-05
1.71e-05
2.11136e-05
2.13664e-05
2.15244e-05
2.16661e-05
2.17949e-05
2.1909e-05
2.20112e-05
2.21008e-05
2.21777e-05
2.22438e-05
2.22992e-05
2.23444e-05
2.23793e-05
2.24056e-05
2.24236e-05
2.24335e-05
2.24355e-05
2.24305e-05
2.24187e-05
2.24008e-05
2.23774e-05
2.2348e-05
2.23141e-05
2.22755e-05
2.22325e-05
2.21854e-05
2.21345e-05
2.20803e-05
2.2023e-05
2.19629e-05
2.19e-05
2.18344e-05
2.17856e-05
2.16965e-05
2.16247e-05
2.15511e-05
2.14759e-05
2.13993e-05
2.13214e-05
2.12424e-05
2.11624e-05
2.10814e-05
2.0446e-05
1.96199e-05
1.88675e-05
1.81848e-05
1.75685e-05
1.70275e-05
1.65534e-05
1.61064e-05
1.57122e-05
1.5368e-05
1.50709e-05
1.48184e-05
1.46078e-05
1.44366e-05
1.43027e-05
1.42034e-05
1.42921e-05
1.43089e-05
1.43103e-05
1.43401e-05
1.43969e-05
1.44793e-05
1.4586e-05
1.47158e-05
1.48676e-05
1.50406e-05
1.52337e-05
1.5446e-05
1.56646e-05
1.58828e-05
1.6133e-05
1.64103e-05
1.67028e-05
1.70099e-05
1.73307e-05
1.76647e-05
1.80111e-05
1.82364e-05
1.81669e-05
1.80981e-05
1.80302e-05
1.79632e-05
1.78972e-05
1.78321e-05
1.7768e-05
1.7705e-05
1.7643e-05
1.7582e-05
1.7522e-05
1.74629e-05
1.74045e-05
1.73463e-05
1.72878e-05
1.72276e-05
1.71653e-05
1.70984e-05
1.70282e-05
1.69743e-05
2.11619e-05
2.13959e-05
2.15571e-05
2.17021e-05
2.18331e-05
2.19494e-05
2.2053e-05
2.21446e-05
2.22235e-05
2.22907e-05
2.2347e-05
2.23933e-05
2.24298e-05
2.24564e-05
2.24754e-05
2.24852e-05
2.24882e-05
2.24835e-05
2.24721e-05
2.24544e-05
2.24312e-05
2.24023e-05
2.23683e-05
2.23297e-05
2.22868e-05
2.22399e-05
2.21892e-05
2.21351e-05
2.20778e-05
2.20179e-05
2.19548e-05
2.18915e-05
2.18208e-05
2.17479e-05
2.16779e-05
2.16038e-05
2.15289e-05
2.14522e-05
2.08574e-05
1.97367e-05
1.87079e-05
1.77787e-05
1.69785e-05
1.62176e-05
1.54996e-05
1.48519e-05
1.42703e-05
1.38215e-05
1.37723e-05
1.40903e-05
1.45248e-05
1.49193e-05
1.52748e-05
1.55925e-05
1.58737e-05
1.61197e-05
1.63319e-05
1.65132e-05
1.66605e-05
1.66064e-05
1.65242e-05
1.64181e-05
1.62898e-05
1.61404e-05
1.59711e-05
1.57832e-05
1.55778e-05
1.5356e-05
1.51188e-05
1.48673e-05
1.46026e-05
1.44267e-05
1.44512e-05
1.4478e-05
1.4507e-05
1.4538e-05
1.45709e-05
1.48488e-05
1.5176e-05
1.54846e-05
1.58351e-05
1.62142e-05
1.66029e-05
1.70007e-05
1.74068e-05
1.78213e-05
1.77905e-05
1.77253e-05
1.76608e-05
1.75967e-05
1.75331e-05
1.74696e-05
1.74059e-05
1.73414e-05
1.72759e-05
1.72085e-05
1.71393e-05
1.70668e-05
1.69957e-05
1.69296e-05
2.12119e-05
2.14294e-05
2.15921e-05
2.17398e-05
2.18726e-05
2.19912e-05
2.20956e-05
2.21886e-05
2.22687e-05
2.23372e-05
2.2394e-05
2.24408e-05
2.24781e-05
2.25055e-05
2.25246e-05
2.25351e-05
2.2538e-05
2.25338e-05
2.25228e-05
2.25051e-05
2.24819e-05
2.24533e-05
2.24193e-05
2.23807e-05
2.23377e-05
2.22907e-05
2.22399e-05
2.21857e-05
2.21282e-05
2.20679e-05
2.20047e-05
2.19393e-05
2.1871e-05
2.18002e-05
2.17281e-05
2.10285e-05
1.9651e-05
1.83911e-05
1.73081e-05
1.63145e-05
1.53292e-05
1.46545e-05
1.52399e-05
1.60238e-05
1.67549e-05
1.74336e-05
1.80606e-05
1.8637e-05
1.91438e-05
1.96226e-05
2.00649e-05
2.04587e-05
2.08089e-05
2.11177e-05
2.13867e-05
2.16182e-05
2.18136e-05
2.19981e-05
2.20219e-05
2.19328e-05
2.18181e-05
2.16789e-05
2.15165e-05
2.13323e-05
2.11274e-05
2.09031e-05
2.06604e-05
2.04003e-05
2.0124e-05
1.98324e-05
1.95264e-05
1.92069e-05
1.8875e-05
1.85314e-05
1.81772e-05
1.78131e-05
1.7459e-05
1.71153e-05
1.67402e-05
1.64802e-05
1.65116e-05
1.65439e-05
1.65775e-05
1.66118e-05
1.66475e-05
1.66181e-05
1.66143e-05
1.66471e-05
1.66818e-05
1.67171e-05
1.71608e-05
1.74723e-05
1.74048e-05
1.73365e-05
1.72671e-05
1.71965e-05
1.7125e-05
1.70519e-05
1.69809e-05
1.6916e-05
2.29823e-05
2.26095e-05
2.22322e-05
2.18928e-05
2.19138e-05
2.2034e-05
2.21392e-05
2.22325e-05
2.23134e-05
2.23825e-05
2.24399e-05
2.24871e-05
2.25246e-05
2.25528e-05
2.25716e-05
2.25827e-05
2.25855e-05
2.25813e-05
2.25705e-05
2.25529e-05
2.25295e-05
2.25009e-05
2.24669e-05
2.24281e-05
2.23849e-05
2.23378e-05
2.22869e-05
2.22326e-05
2.2175e-05
2.21144e-05
2.20509e-05
2.19848e-05
2.19166e-05
2.02984e-05
1.87529e-05
1.74354e-05
1.66832e-05
1.66993e-05
1.72218e-05
1.82723e-05
1.92297e-05
2.00921e-05
2.09614e-05
2.1771e-05
2.25174e-05
2.32033e-05
2.38311e-05
2.44032e-05
2.49222e-05
2.49897e-05
2.48849e-05
2.47801e-05
2.46752e-05
2.45702e-05
2.44655e-05
2.43608e-05
2.42571e-05
2.41932e-05
2.40909e-05
2.39878e-05
2.3885e-05
2.37827e-05
2.36809e-05
2.35796e-05
2.34789e-05
2.33787e-05
2.32791e-05
2.31801e-05
2.30819e-05
2.29842e-05
2.28873e-05
2.27911e-05
2.26956e-05
2.26009e-05
2.25071e-05
2.245e-05
2.23931e-05
2.2076e-05
2.16886e-05
2.12924e-05
2.08895e-05
2.04795e-05
2.0064e-05
1.96424e-05
1.92158e-05
1.87859e-05
1.88065e-05
1.88174e-05
1.8816e-05
1.88515e-05
1.88896e-05
1.88293e-05
1.88078e-05
1.88093e-05
1.88113e-05
1.88142e-05
1.88183e-05
1.88237e-05
1.87958e-05
1.87115e-05
2.74202e-05
2.71164e-05
2.67809e-05
2.64641e-05
2.61715e-05
2.59146e-05
2.56772e-05
2.54591e-05
2.52579e-05
2.50723e-05
2.49007e-05
2.47412e-05
2.4595e-05
2.4459e-05
2.43333e-05
2.42167e-05
2.41087e-05
2.40084e-05
2.39156e-05
2.38291e-05
2.37485e-05
2.36737e-05
2.36042e-05
2.35394e-05
2.34787e-05
2.34221e-05
2.33691e-05
2.33197e-05
2.32735e-05
2.32301e-05
2.29088e-05
2.10285e-05
1.93573e-05
1.95655e-05
1.95785e-05
2.01357e-05
2.13615e-05
2.26239e-05
2.37626e-05
2.47759e-05
2.57125e-05
2.63349e-05
2.61667e-05
2.59989e-05
2.58316e-05
2.56649e-05
2.5499e-05
2.53339e-05
2.51696e-05
2.50181e-05
2.49086e-05
2.47997e-05
2.46915e-05
2.45838e-05
2.4477e-05
2.43707e-05
2.42709e-05
2.42031e-05
2.41005e-05
2.39982e-05
2.38966e-05
2.37958e-05
2.36959e-05
2.35968e-05
2.34985e-05
2.34011e-05
2.33045e-05
2.32088e-05
2.31139e-05
2.302e-05
2.2927e-05
2.28348e-05
2.27436e-05
2.26533e-05
2.25658e-05
2.24792e-05
2.23919e-05
2.23048e-05
2.22204e-05
2.21333e-05
2.2047e-05
2.19655e-05
2.18826e-05
2.18022e-05
2.17199e-05
2.16349e-05
2.15515e-05
2.14699e-05
2.13903e-05
2.1312e-05
2.08145e-05
2.04547e-05
2.04817e-05
2.05091e-05
2.0537e-05
2.05657e-05
2.09354e-05
2.15391e-05
2.21565e-05
2.31057e-05
3.60207e-05
3.58777e-05
3.57093e-05
3.55838e-05
3.51362e-05
3.46446e-05
3.42076e-05
3.38261e-05
3.34936e-05
3.32069e-05
3.29632e-05
3.27562e-05
3.25855e-05
3.24475e-05
3.23381e-05
3.22564e-05
3.21989e-05
3.21641e-05
3.21502e-05
3.21551e-05
3.21768e-05
3.22142e-05
3.22656e-05
3.233e-05
3.24059e-05
3.24921e-05
3.22283e-05
2.97976e-05
2.75424e-05
2.54527e-05
2.3608e-05
2.20357e-05
2.14196e-05
2.28886e-05
2.43815e-05
2.57783e-05
2.66032e-05
2.64903e-05
2.63763e-05
2.6263e-05
2.61502e-05
2.60374e-05
2.59246e-05
2.5812e-05
2.56995e-05
2.55874e-05
2.54755e-05
2.5364e-05
2.52531e-05
2.51438e-05
2.5035e-05
2.49254e-05
2.48167e-05
2.47085e-05
2.4601e-05
2.44943e-05
2.44348e-05
2.43477e-05
2.42438e-05
2.41406e-05
2.40382e-05
2.39366e-05
2.38359e-05
2.37359e-05
2.36368e-05
2.35385e-05
2.34411e-05
2.33445e-05
2.32488e-05
2.3154e-05
2.30601e-05
2.2967e-05
2.28748e-05
2.27835e-05
2.26929e-05
2.25673e-05
2.2443e-05
2.23204e-05
2.21988e-05
2.19951e-05
2.19601e-05
2.18433e-05
2.17271e-05
2.16131e-05
2.14504e-05
2.12691e-05
2.12755e-05
2.12103e-05
2.11587e-05
2.11073e-05
2.10555e-05
2.10036e-05
2.12809e-05
2.17892e-05
2.23003e-05
2.28396e-05
2.34268e-05
2.39842e-05
2.45502e-05
2.51123e-05
4.61539e-05
4.61289e-05
4.60634e-05
4.60291e-05
4.59997e-05
4.59884e-05
4.59852e-05
4.59915e-05
4.60068e-05
4.60282e-05
4.60576e-05
4.6091e-05
4.61293e-05
4.61721e-05
4.62181e-05
4.62668e-05
4.63172e-05
4.63695e-05
4.64231e-05
4.64779e-05
4.65331e-05
4.65886e-05
4.6644e-05
4.47765e-05
4.17917e-05
3.89934e-05
3.64435e-05
3.42044e-05
3.19147e-05
2.97818e-05
2.8079e-05
2.79622e-05
2.7932e-05
2.64476e-05
2.63164e-05
2.61826e-05
2.60467e-05
2.59089e-05
2.58224e-05
2.57809e-05
2.57379e-05
2.56936e-05
2.56479e-05
2.56011e-05
2.55532e-05
2.55042e-05
2.54541e-05
2.54031e-05
2.53513e-05
2.52869e-05
2.51808e-05
2.50744e-05
2.49681e-05
2.48618e-05
2.47556e-05
2.4677e-05
2.4627e-05
2.45218e-05
2.44165e-05
2.43114e-05
2.42066e-05
2.41023e-05
2.39985e-05
2.38951e-05
2.37922e-05
2.36899e-05
2.35882e-05
2.34871e-05
2.33866e-05
2.32868e-05
2.31876e-05
2.3089e-05
2.29912e-05
2.2894e-05
2.27974e-05
2.27016e-05
2.2606e-05
2.2512e-05
2.24167e-05
2.23258e-05
2.22354e-05
2.21418e-05
2.2051e-05
2.19592e-05
2.18706e-05
2.17857e-05
2.16976e-05
2.16083e-05
2.19474e-05
2.24057e-05
2.28682e-05
2.33583e-05
2.38942e-05
2.44032e-05
2.48788e-05
2.53576e-05
2.54955e-05
2.53995e-05
2.53029e-05
2.51884e-05
5.03682e-05
5.09066e-05
5.13794e-05
5.18032e-05
5.21751e-05
5.25027e-05
5.27887e-05
5.30334e-05
5.32419e-05
5.3416e-05
5.35582e-05
5.36708e-05
5.37555e-05
5.38141e-05
5.385e-05
5.38638e-05
5.38567e-05
5.38305e-05
5.37865e-05
5.37266e-05
5.16243e-05
4.79146e-05
4.44155e-05
4.12935e-05
3.83171e-05
3.53848e-05
3.29846e-05
3.29081e-05
3.28273e-05
3.27426e-05
3.26544e-05
3.25628e-05
3.11751e-05
2.94738e-05
2.79712e-05
2.67355e-05
2.66429e-05
2.65484e-05
2.6452e-05
2.63541e-05
2.62547e-05
2.61541e-05
2.60524e-05
2.59497e-05
2.58461e-05
2.57418e-05
2.56369e-05
2.55314e-05
2.54256e-05
2.53194e-05
2.5213e-05
2.51065e-05
2.49999e-05
2.48933e-05
2.47926e-05
2.47478e-05
2.46571e-05
2.4551e-05
2.44453e-05
2.43398e-05
2.42346e-05
2.41299e-05
2.40257e-05
2.3922e-05
2.38187e-05
2.37161e-05
2.3614e-05
2.35125e-05
2.34116e-05
2.33114e-05
2.32118e-05
2.31128e-05
2.30146e-05
2.29169e-05
2.282e-05
2.27236e-05
2.2628e-05
2.2533e-05
2.2439e-05
2.23454e-05
2.2253e-05
2.21605e-05
2.20693e-05
2.21042e-05
2.25363e-05
2.29742e-05
2.34165e-05
2.38954e-05
2.44132e-05
2.48856e-05
2.53438e-05
2.58054e-05
2.59368e-05
2.58378e-05
2.57394e-05
2.56414e-05
2.55439e-05
2.54471e-05
2.535e-05
2.52354e-05
4.58286e-05
5.09456e-05
5.14207e-05
5.18466e-05
5.2221e-05
5.25498e-05
5.28368e-05
5.3083e-05
5.32922e-05
5.34673e-05
5.36098e-05
5.37237e-05
5.38086e-05
5.38683e-05
5.39035e-05
5.39178e-05
5.3911e-05
5.35282e-05
4.91775e-05
4.50646e-05
4.14035e-05
3.79644e-05
3.45323e-05
3.31891e-05
3.31321e-05
3.30698e-05
3.30026e-05
3.29305e-05
3.28539e-05
3.2773e-05
3.26882e-05
3.25998e-05
3.25077e-05
3.22822e-05
3.07664e-05
2.93067e-05
2.80117e-05
2.68087e-05
2.64812e-05
2.63831e-05
2.62836e-05
2.61828e-05
2.60808e-05
2.59779e-05
2.58742e-05
2.57696e-05
2.56645e-05
2.55588e-05
2.54527e-05
2.53463e-05
2.52396e-05
2.51328e-05
2.50258e-05
2.49185e-05
2.48566e-05
2.47837e-05
2.46801e-05
2.45768e-05
2.44684e-05
2.4363e-05
2.42571e-05
2.41521e-05
2.40474e-05
2.39434e-05
2.38398e-05
2.37368e-05
2.36344e-05
2.35326e-05
2.34313e-05
2.33307e-05
2.32307e-05
2.31314e-05
2.30327e-05
2.29347e-05
2.28373e-05
2.27406e-05
2.26446e-05
2.25493e-05
2.24873e-05
2.28826e-05
2.32849e-05
2.36941e-05
2.41175e-05
2.45867e-05
2.50661e-05
2.5498e-05
2.5935e-05
2.63761e-05
2.63897e-05
2.62871e-05
2.61851e-05
2.60839e-05
2.59833e-05
2.58834e-05
2.57841e-05
2.56853e-05
2.55871e-05
2.54897e-05
2.53921e-05
2.52774e-05
3.12799e-05
3.76345e-05
4.32881e-05
4.87627e-05
5.22701e-05
5.25995e-05
5.28859e-05
5.31326e-05
5.33419e-05
5.35167e-05
5.36591e-05
5.37722e-05
5.38579e-05
5.39172e-05
5.39522e-05
5.2296e-05
4.7465e-05
4.29935e-05
3.91371e-05
3.51095e-05
3.33005e-05
3.32689e-05
3.32306e-05
3.31857e-05
3.31344e-05
3.3077e-05
3.30142e-05
3.29463e-05
3.28735e-05
3.27962e-05
3.27146e-05
3.26292e-05
3.25399e-05
3.24472e-05
3.23509e-05
3.20997e-05
3.07918e-05
2.95395e-05
2.8411e-05
2.73752e-05
2.6411e-05
2.62058e-05
2.61037e-05
2.60005e-05
2.58966e-05
2.57918e-05
2.56864e-05
2.55347e-05
2.5213e-05
2.49097e-05
2.46238e-05
2.43547e-05
2.41016e-05
2.38784e-05
2.36964e-05
2.34717e-05
2.30508e-05
2.30606e-05
2.28748e-05
2.27017e-05
2.25401e-05
2.23901e-05
2.2251e-05
2.21223e-05
2.20971e-05
2.20952e-05
2.20956e-05
2.20982e-05
2.21028e-05
2.21095e-05
2.21181e-05
2.21284e-05
2.21404e-05
2.2364e-05
2.28215e-05
2.32898e-05
2.37685e-05
2.42586e-05
2.47956e-05
2.53567e-05
2.58712e-05
2.63928e-05
2.69211e-05
2.73275e-05
2.73384e-05
2.73506e-05
2.71318e-05
2.62322e-05
2.5341e-05
2.4411e-05
2.33662e-05
2.233e-05
2.13032e-05
2.02865e-05
1.92813e-05
1.82559e-05
1.72448e-05
1.62493e-05
1.52748e-05
1.36601e-05
2.16242e-05
2.48613e-05
2.98218e-05
3.42547e-05
3.82437e-05
4.24628e-05
4.65571e-05
5.03186e-05
5.33905e-05
5.35646e-05
5.37058e-05
5.3818e-05
5.39023e-05
5.1979e-05
4.65847e-05
4.17275e-05
3.74026e-05
3.32984e-05
3.32981e-05
3.32893e-05
3.32721e-05
3.32471e-05
3.32148e-05
3.31757e-05
3.31298e-05
3.30774e-05
3.30189e-05
3.29551e-05
3.28861e-05
3.28123e-05
3.26647e-05
3.19095e-05
3.11915e-05
3.05095e-05
2.98614e-05
2.92458e-05
2.86612e-05
2.81063e-05
2.67907e-05
2.56492e-05
2.47995e-05
2.40614e-05
2.34544e-05
2.29562e-05
2.25148e-05
2.21267e-05
2.17868e-05
2.16499e-05
2.16019e-05
2.15681e-05
2.17158e-05
2.19908e-05
2.22541e-05
2.24822e-05
2.26544e-05
2.22341e-05
2.17291e-05
2.14257e-05
2.1276e-05
2.11803e-05
2.16477e-05
2.25933e-05
2.34946e-05
2.43578e-05
2.518e-05
2.59543e-05
2.59646e-05
2.54712e-05
2.50073e-05
2.45716e-05
2.41631e-05
2.37806e-05
2.34418e-05
2.3162e-05
2.28909e-05
2.26087e-05
2.23477e-05
2.21068e-05
2.18531e-05
2.11672e-05
2.0496e-05
1.98395e-05
1.91974e-05
1.85699e-05
1.79567e-05
1.74288e-05
1.70321e-05
1.67534e-05
1.65316e-05
1.62866e-05
1.6023e-05
1.57664e-05
1.55183e-05
1.49992e-05
1.4366e-05
1.37365e-05
1.31105e-05
1.2491e-05
1.18725e-05
1.12175e-05
2.17672e-05
2.36883e-05
2.34062e-05
2.31488e-05
2.42879e-05
2.80377e-05
3.16165e-05
3.49015e-05
3.76056e-05
4.03685e-05
4.31224e-05
4.44871e-05
4.06727e-05
3.73095e-05
3.43808e-05
3.26877e-05
3.32225e-05
3.32407e-05
3.32492e-05
3.32484e-05
3.32384e-05
3.32198e-05
3.24268e-05
3.13406e-05
3.03091e-05
2.933e-05
2.84006e-05
2.77322e-05
2.77255e-05
2.78299e-05
2.81389e-05
2.84319e-05
2.92084e-05
3.02229e-05
3.11877e-05
3.21043e-05
3.47053e-05
3.79236e-05
3.75483e-05
3.60141e-05
3.45333e-05
3.23976e-05
3.02622e-05
2.82303e-05
2.62974e-05
2.44675e-05
2.28082e-05
2.12859e-05
2.00045e-05
1.87912e-05
1.76547e-05
1.67049e-05
1.60221e-05
1.5363e-05
1.46452e-05
1.3993e-05
1.34132e-05
1.28826e-05
1.23848e-05
1.19979e-05
1.18492e-05
1.16219e-05
1.11684e-05
1.07399e-05
1.02717e-05
9.52068e-06
8.80889e-06
8.40362e-06
8.07536e-06
7.78316e-06
7.52551e-06
7.30059e-06
7.10643e-06
6.85948e-06
6.6029e-06
6.44645e-06
6.39265e-06
6.43945e-06
6.58032e-06
6.8053e-06
7.1026e-06
7.46007e-06
7.86617e-06
8.31077e-06
8.80992e-06
9.39713e-06
9.8047e-06
9.61631e-06
9.41551e-06
9.16795e-06
8.84664e-06
8.54539e-06
8.14178e-06
7.73016e-06
7.42127e-06
7.1394e-06
6.88324e-06
6.56973e-06
6.30819e-06
6.71428e-06
2.19088e-05
2.38587e-05
2.35646e-05
2.32962e-05
2.30403e-05
2.28003e-05
2.25719e-05
2.2356e-05
2.24926e-05
2.50496e-05
2.17345e-05
1.7023e-05
1.4041e-05
1.25943e-05
1.42296e-05
1.59953e-05
1.77195e-05
1.762e-05
1.73251e-05
1.69936e-05
1.69849e-05
1.79901e-05
1.99923e-05
2.22369e-05
2.42624e-05
2.61617e-05
2.87247e-05
2.77204e-05
2.58214e-05
2.40669e-05
2.2595e-05
2.17293e-05
2.08862e-05
2.00691e-05
1.92475e-05
1.85985e-05
1.83952e-05
1.69343e-05
1.61654e-05
1.53367e-05
1.40801e-05
1.28777e-05
1.16843e-05
1.05356e-05
9.49321e-06
8.55486e-06
7.78061e-06
7.16118e-06
6.88507e-06
6.98271e-06
7.23584e-06
7.65648e-06
8.28115e-06
9.01126e-06
9.77593e-06
1.00949e-05
1.03247e-05
1.0694e-05
1.11673e-05
1.16714e-05
1.266e-05
1.40917e-05
1.54895e-05
1.68405e-05
1.81397e-05
1.93836e-05
1.98634e-05
1.9826e-05
1.97928e-05
1.97635e-05
1.97379e-05
1.97159e-05
1.96973e-05
1.9682e-05
1.96516e-05
1.95926e-05
1.95342e-05
1.94763e-05
1.94189e-05
1.9362e-05
1.93055e-05
1.92494e-05
1.91937e-05
1.91384e-05
1.90834e-05
1.91611e-05
1.94735e-05
1.97854e-05
2.00963e-05
2.03737e-05
2.06185e-05
2.08619e-05
2.11037e-05
2.10518e-05
2.08651e-05
2.06662e-05
2.04815e-05
2.0321e-05
2.0107e-05
2.00217e-05
2.20486e-05
2.40266e-05
2.37203e-05
2.3441e-05
2.31744e-05
2.29248e-05
2.26872e-05
2.24626e-05
1.95961e-05
1.14964e-05
7.17594e-06
7.46829e-06
7.39615e-06
8.17183e-06
9.26643e-06
9.77966e-06
8.40324e-06
8.55815e-06
9.24214e-06
1.13653e-05
1.34723e-05
1.14063e-05
1.0406e-05
9.87896e-06
9.34141e-06
8.92506e-06
8.36331e-06
9.42263e-06
9.24766e-06
8.57752e-06
8.26234e-06
8.44674e-06
9.25619e-06
1.0671e-05
1.23817e-05
1.42409e-05
1.76879e-05
2.18661e-05
2.26922e-05
2.23958e-05
2.21159e-05
2.18522e-05
2.16031e-05
2.13686e-05
2.11481e-05
2.09488e-05
2.08517e-05
2.07612e-05
2.0637e-05
2.00654e-05
1.95326e-05
1.92146e-05
1.91586e-05
1.91074e-05
1.90606e-05
1.90178e-05
1.89793e-05
1.89447e-05
1.89137e-05
1.88863e-05
1.88623e-05
1.88414e-05
1.87667e-05
1.86913e-05
1.86209e-05
1.85552e-05
1.84942e-05
1.84375e-05
1.8385e-05
1.83364e-05
1.82918e-05
1.82507e-05
1.82132e-05
1.81792e-05
1.81492e-05
1.81223e-05
1.80975e-05
1.80755e-05
1.80561e-05
1.80391e-05
1.80245e-05
1.80122e-05
1.8002e-05
1.79938e-05
1.79876e-05
1.79833e-05
1.79808e-05
1.79801e-05
1.7981e-05
1.79836e-05
1.79879e-05
1.79937e-05
1.80011e-05
1.801e-05
1.80205e-05
1.80275e-05
1.79579e-05
1.81227e-05
1.83754e-05
1.86069e-05
2.21871e-05
2.41914e-05
2.38733e-05
2.35833e-05
2.33059e-05
2.30466e-05
2.27997e-05
1.5752e-05
8.105e-06
7.52325e-06
8.43007e-06
7.80499e-06
8.12485e-06
9.77766e-06
1.27438e-05
1.31909e-05
9.99273e-06
8.60908e-06
7.65152e-06
6.95775e-06
6.85671e-06
1.00911e-05
1.11983e-05
1.36239e-05
1.65688e-05
1.96741e-05
2.35786e-05
2.41701e-05
2.38179e-05
2.35269e-05
2.32192e-05
2.2929e-05
2.2655e-05
2.23966e-05
2.21532e-05
2.19104e-05
2.16799e-05
2.14769e-05
2.12907e-05
2.11162e-05
2.0952e-05
2.07984e-05
2.06547e-05
2.05199e-05
2.03943e-05
2.02774e-05
2.01636e-05
1.99025e-05
1.92283e-05
1.86069e-05
1.84951e-05
1.8405e-05
1.83158e-05
1.82276e-05
1.81407e-05
1.80547e-05
1.79696e-05
1.78858e-05
1.78029e-05
1.77208e-05
1.76396e-05
1.75594e-05
1.74799e-05
1.74013e-05
1.73236e-05
1.72467e-05
1.71706e-05
1.70952e-05
1.70205e-05
1.69465e-05
1.68733e-05
1.68008e-05
1.67291e-05
1.66579e-05
1.66053e-05
1.65839e-05
1.65654e-05
1.65494e-05
1.65359e-05
1.65247e-05
1.65158e-05
1.65092e-05
1.65046e-05
1.6502e-05
1.65012e-05
1.65023e-05
1.65052e-05
1.65098e-05
1.6516e-05
1.65239e-05
1.65334e-05
1.65443e-05
1.65568e-05
1.65707e-05
1.65508e-05
1.65362e-05
1.65248e-05
1.65123e-05
1.65038e-05
1.65016e-05
2.23242e-05
2.43531e-05
2.40233e-05
2.37224e-05
2.34348e-05
2.19041e-05
1.25569e-05
8.07831e-06
7.85171e-06
1.16794e-05
1.76548e-05
1.8753e-05
1.45392e-05
1.33207e-05
1.13182e-05
9.40657e-06
1.13931e-05
1.27258e-05
1.5922e-05
2.06794e-05
2.51878e-05
2.49763e-05
2.47714e-05
2.47193e-05
2.46312e-05
2.42248e-05
2.38409e-05
2.34783e-05
2.31439e-05
2.27803e-05
2.24336e-05
2.21536e-05
2.18898e-05
2.16408e-05
2.14066e-05
2.11857e-05
2.10345e-05
2.09082e-05
2.07838e-05
2.06621e-05
2.05426e-05
2.04249e-05
2.03095e-05
2.0196e-05
2.00841e-05
1.99743e-05
1.97899e-05
1.91923e-05
1.86519e-05
1.85588e-05
1.84666e-05
1.83756e-05
1.82859e-05
1.81973e-05
1.81097e-05
1.80233e-05
1.7938e-05
1.78536e-05
1.77703e-05
1.76879e-05
1.76063e-05
1.75256e-05
1.74459e-05
1.7367e-05
1.72889e-05
1.72116e-05
1.71352e-05
1.70595e-05
1.69846e-05
1.69105e-05
1.68372e-05
1.67646e-05
1.66926e-05
1.66213e-05
1.65506e-05
1.64807e-05
1.64113e-05
1.63426e-05
1.62744e-05
1.62067e-05
1.61397e-05
1.60732e-05
1.60072e-05
1.59419e-05
1.58771e-05
1.58129e-05
1.57492e-05
1.56862e-05
1.56237e-05
1.55618e-05
1.54725e-05
1.53702e-05
1.52696e-05
1.51741e-05
1.50812e-05
1.49914e-05
1.4978e-05
1.4967e-05
1.49921e-05
1.5011e-05
2.24599e-05
2.45116e-05
2.41703e-05
2.48806e-05
2.45137e-05
1.85313e-05
1.77057e-05
2.59911e-05
2.33512e-05
2.00205e-05
1.56254e-05
1.15688e-05
1.29627e-05
1.44855e-05
2.14954e-05
2.64149e-05
2.61563e-05
2.59074e-05
2.57391e-05
2.58316e-05
2.57734e-05
2.52667e-05
2.48365e-05
2.44181e-05
2.38716e-05
2.33754e-05
2.30047e-05
2.26549e-05
2.23248e-05
2.19858e-05
2.18376e-05
2.16924e-05
2.15508e-05
2.14117e-05
2.12756e-05
2.11423e-05
2.1011e-05
2.0883e-05
2.07573e-05
2.06336e-05
2.05127e-05
2.03939e-05
2.0277e-05
2.01622e-05
2.00498e-05
1.98536e-05
1.92405e-05
1.87172e-05
1.86219e-05
1.85278e-05
1.84352e-05
1.83436e-05
1.82531e-05
1.81641e-05
1.80761e-05
1.79891e-05
1.79034e-05
1.78187e-05
1.77349e-05
1.76521e-05
1.75703e-05
1.74893e-05
1.74092e-05
1.73301e-05
1.72518e-05
1.71742e-05
1.70975e-05
1.70216e-05
1.69465e-05
1.68722e-05
1.67986e-05
1.67258e-05
1.66538e-05
1.65824e-05
1.65117e-05
1.64417e-05
1.63722e-05
1.63034e-05
1.62351e-05
1.61676e-05
1.61006e-05
1.60343e-05
1.59685e-05
1.59034e-05
1.58387e-05
1.57747e-05
1.56983e-05
1.55907e-05
1.54848e-05
1.53828e-05
1.52841e-05
1.5185e-05
1.50863e-05
1.49894e-05
1.49291e-05
1.48741e-05
1.48195e-05
1.4766e-05
1.4712e-05
1.46568e-05
2.25943e-05
2.91748e-05
3.58914e-05
3.74809e-05
3.71649e-05
3.0932e-05
2.59543e-05
1.63398e-05
1.45715e-05
1.51564e-05
2.24384e-05
2.76397e-05
2.73262e-05
2.70266e-05
2.67655e-05
2.68769e-05
2.69842e-05
2.67651e-05
2.62881e-05
2.5758e-05
2.50023e-05
2.43525e-05
2.38894e-05
2.33056e-05
2.27888e-05
2.26172e-05
2.245e-05
2.22874e-05
2.2129e-05
2.19743e-05
2.18237e-05
2.1676e-05
2.1532e-05
2.13911e-05
2.12525e-05
2.11173e-05
2.09847e-05
2.08546e-05
2.07273e-05
2.06025e-05
2.04798e-05
2.03596e-05
2.02419e-05
2.01256e-05
1.99327e-05
1.93031e-05
1.87821e-05
1.86848e-05
1.8589e-05
1.84942e-05
1.84007e-05
1.83087e-05
1.82177e-05
1.8128e-05
1.80396e-05
1.79523e-05
1.7866e-05
1.77809e-05
1.76968e-05
1.76136e-05
1.75314e-05
1.74502e-05
1.73699e-05
1.72904e-05
1.72118e-05
1.71341e-05
1.70572e-05
1.69812e-05
1.69059e-05
1.68315e-05
1.67578e-05
1.66849e-05
1.66128e-05
1.65414e-05
1.64707e-05
1.64006e-05
1.63311e-05
1.62623e-05
1.61941e-05
1.61265e-05
1.60596e-05
1.59934e-05
1.59278e-05
1.58256e-05
1.57144e-05
1.56057e-05
1.55009e-05
1.53976e-05
1.52936e-05
1.51914e-05
1.5119e-05
1.50618e-05
1.50051e-05
1.49491e-05
1.48937e-05
1.4839e-05
1.47846e-05
1.47314e-05
1.46777e-05
1.46228e-05
4.12845e-05
5.2004e-05
5.84308e-05
4.04704e-05
2.18362e-05
1.37895e-05
1.70677e-05
2.67161e-05
2.877e-05
2.8401e-05
2.80489e-05
2.78502e-05
2.79744e-05
2.81067e-05
2.81691e-05
2.76064e-05
2.67875e-05
2.58822e-05
2.5095e-05
2.42258e-05
2.35469e-05
2.33487e-05
2.31565e-05
2.29705e-05
2.279e-05
2.2615e-05
2.24446e-05
2.22787e-05
2.21174e-05
2.19599e-05
2.18066e-05
2.16569e-05
2.15102e-05
2.13672e-05
2.12269e-05
2.10893e-05
2.09551e-05
2.08235e-05
2.06943e-05
2.0568e-05
2.04443e-05
2.03224e-05
2.02033e-05
2.00282e-05
1.93799e-05
1.88472e-05
1.87479e-05
1.86498e-05
1.85531e-05
1.84578e-05
1.83637e-05
1.82709e-05
1.81796e-05
1.80894e-05
1.80003e-05
1.79126e-05
1.78261e-05
1.77404e-05
1.7656e-05
1.75726e-05
1.74902e-05
1.74086e-05
1.73279e-05
1.72482e-05
1.71694e-05
1.70915e-05
1.70144e-05
1.69382e-05
1.68628e-05
1.67882e-05
1.67145e-05
1.66415e-05
1.65694e-05
1.64979e-05
1.64272e-05
1.63571e-05
1.62877e-05
1.6219e-05
1.6151e-05
1.60762e-05
1.59592e-05
1.58441e-05
1.57325e-05
1.56238e-05
1.55151e-05
1.54076e-05
1.53148e-05
1.52554e-05
1.51965e-05
1.51383e-05
1.50807e-05
1.50237e-05
1.49674e-05
1.49116e-05
1.48565e-05
1.4802e-05
1.47479e-05
1.4695e-05
1.46415e-05
1.45869e-05
6.33995e-05
5.09161e-05
2.31622e-05
1.69249e-05
2.41674e-05
3.01225e-05
2.96817e-05
2.92643e-05
2.88984e-05
2.90309e-05
2.92245e-05
2.95478e-05
2.91708e-05
2.82799e-05
2.71611e-05
2.58397e-05
2.48268e-05
2.42123e-05
2.39876e-05
2.3771e-05
2.35614e-05
2.33588e-05
2.31623e-05
2.29723e-05
2.27881e-05
2.26095e-05
2.24361e-05
2.2267e-05
2.21028e-05
2.19428e-05
2.17865e-05
2.16346e-05
2.14858e-05
2.13402e-05
2.11981e-05
2.10588e-05
2.09223e-05
2.07892e-05
2.06588e-05
2.05304e-05
2.04054e-05
2.02829e-05
2.01402e-05
1.94732e-05
1.89128e-05
1.88109e-05
1.87107e-05
1.8612e-05
1.85145e-05
1.84185e-05
1.8324e-05
1.82307e-05
1.81387e-05
1.8048e-05
1.79586e-05
1.78703e-05
1.77832e-05
1.76974e-05
1.76126e-05
1.75288e-05
1.74461e-05
1.73643e-05
1.72834e-05
1.72036e-05
1.71246e-05
1.70466e-05
1.69693e-05
1.6893e-05
1.68175e-05
1.67429e-05
1.6669e-05
1.65961e-05
1.65239e-05
1.64524e-05
1.63816e-05
1.63116e-05
1.6221e-05
1.60998e-05
1.59808e-05
1.58653e-05
1.5752e-05
1.56389e-05
1.55276e-05
1.54551e-05
1.5394e-05
1.53335e-05
1.52737e-05
1.52144e-05
1.51559e-05
1.50979e-05
1.50406e-05
1.49839e-05
1.49278e-05
1.48723e-05
1.48174e-05
1.47631e-05
1.47093e-05
1.46566e-05
1.46034e-05
1.45491e-05
2.4311e-05
1.17867e-05
2.84028e-05
3.12238e-05
3.07211e-05
3.0246e-05
3.0053e-05
3.02065e-05
3.0588e-05
3.09346e-05
3.02018e-05
2.88901e-05
2.72132e-05
2.58957e-05
2.49837e-05
2.47254e-05
2.4477e-05
2.42385e-05
2.40085e-05
2.37869e-05
2.35727e-05
2.33658e-05
2.31654e-05
2.29712e-05
2.27834e-05
2.26011e-05
2.24245e-05
2.22526e-05
2.20851e-05
2.19227e-05
2.17638e-05
2.1609e-05
2.14583e-05
2.13106e-05
2.11661e-05
2.10252e-05
2.08871e-05
2.07518e-05
2.06201e-05
2.04908e-05
2.03638e-05
2.02373e-05
1.95831e-05
1.89787e-05
1.88745e-05
1.8772e-05
1.86709e-05
1.85713e-05
1.84734e-05
1.83767e-05
1.82815e-05
1.81877e-05
1.80953e-05
1.80041e-05
1.79142e-05
1.78256e-05
1.77381e-05
1.76519e-05
1.75668e-05
1.74827e-05
1.73997e-05
1.73176e-05
1.72365e-05
1.71564e-05
1.70772e-05
1.69991e-05
1.69218e-05
1.68454e-05
1.67699e-05
1.66952e-05
1.66214e-05
1.65484e-05
1.64762e-05
1.63752e-05
1.62493e-05
1.61258e-05
1.60052e-05
1.58867e-05
1.57694e-05
1.56614e-05
1.55979e-05
1.5535e-05
1.54729e-05
1.54114e-05
1.53505e-05
1.52902e-05
1.52306e-05
1.51716e-05
1.51133e-05
1.50556e-05
1.49985e-05
1.49421e-05
1.48862e-05
1.4831e-05
1.47764e-05
1.47224e-05
1.46688e-05
1.46164e-05
1.45635e-05
1.45095e-05
2.43615e-05
2.8942e-05
3.01872e-05
3.13656e-05
3.11927e-05
3.14661e-05
3.18906e-05
3.21635e-05
3.14076e-05
2.95018e-05
2.76157e-05
2.62105e-05
2.55869e-05
2.52995e-05
2.50238e-05
2.47593e-05
2.45051e-05
2.4261e-05
2.40259e-05
2.37994e-05
2.35808e-05
2.33696e-05
2.31653e-05
2.29674e-05
2.2776e-05
2.25903e-05
2.24099e-05
2.22353e-05
2.20649e-05
2.18993e-05
2.17384e-05
2.15809e-05
2.14276e-05
2.12782e-05
2.11319e-05
2.09886e-05
2.0849e-05
2.07124e-05
2.05785e-05
2.0448e-05
2.032e-05
1.97103e-05
1.90507e-05
1.89389e-05
1.88336e-05
1.87302e-05
1.86285e-05
1.85281e-05
1.84294e-05
1.83323e-05
1.82366e-05
1.81422e-05
1.80493e-05
1.79577e-05
1.78673e-05
1.77782e-05
1.76905e-05
1.76039e-05
1.75185e-05
1.74341e-05
1.73509e-05
1.72686e-05
1.71874e-05
1.71071e-05
1.70279e-05
1.69495e-05
1.68721e-05
1.67956e-05
1.67201e-05
1.66454e-05
1.65397e-05
1.64086e-05
1.62798e-05
1.61537e-05
1.60301e-05
1.59082e-05
1.58095e-05
1.5744e-05
1.56793e-05
1.56152e-05
1.55517e-05
1.5489e-05
1.5427e-05
1.53657e-05
1.5305e-05
1.5245e-05
1.51856e-05
1.51269e-05
1.50688e-05
1.50113e-05
1.49545e-05
1.48983e-05
1.48427e-05
1.47878e-05
1.47335e-05
1.46797e-05
1.46265e-05
1.45742e-05
1.45216e-05
1.4468e-05
2.70559e-05
2.9092e-05
3.06277e-05
3.26454e-05
3.3115e-05
3.33831e-05
3.26455e-05
3.05528e-05
2.84273e-05
2.6817e-05
2.62681e-05
2.59455e-05
2.56375e-05
2.53432e-05
2.50611e-05
2.47906e-05
2.45306e-05
2.42808e-05
2.40406e-05
2.38091e-05
2.35858e-05
2.337e-05
2.31618e-05
2.29603e-05
2.27652e-05
2.25765e-05
2.23927e-05
2.22146e-05
2.20418e-05
2.18732e-05
2.17095e-05
2.15502e-05
2.13946e-05
2.12426e-05
2.10946e-05
2.09495e-05
2.08072e-05
2.06699e-05
2.05349e-05
2.04022e-05
1.98568e-05
1.91624e-05
1.90041e-05
1.88962e-05
1.87902e-05
1.86858e-05
1.85832e-05
1.84823e-05
1.8383e-05
1.82853e-05
1.8189e-05
1.80942e-05
1.80008e-05
1.79088e-05
1.78181e-05
1.77287e-05
1.76405e-05
1.75536e-05
1.74679e-05
1.73832e-05
1.72997e-05
1.72173e-05
1.71359e-05
1.70555e-05
1.69761e-05
1.68978e-05
1.68204e-05
1.67168e-05
1.658e-05
1.64451e-05
1.63128e-05
1.61836e-05
1.60566e-05
1.59613e-05
1.58937e-05
1.58268e-05
1.57607e-05
1.56953e-05
1.56307e-05
1.55668e-05
1.55037e-05
1.54412e-05
1.53793e-05
1.53181e-05
1.52576e-05
1.51978e-05
1.51387e-05
1.50802e-05
1.50224e-05
1.49652e-05
1.49087e-05
1.48527e-05
1.47974e-05
1.47427e-05
1.46887e-05
1.46352e-05
1.45822e-05
1.45303e-05
1.44779e-05
1.44247e-05
2.71743e-05
3.02208e-05
3.25753e-05
3.45979e-05
3.42841e-05
3.21114e-05
2.9715e-05
2.77494e-05
2.70405e-05
2.66767e-05
2.63304e-05
2.60007e-05
2.56854e-05
2.53841e-05
2.50954e-05
2.48185e-05
2.45527e-05
2.42974e-05
2.40522e-05
2.38158e-05
2.3588e-05
2.33676e-05
2.3155e-05
2.295e-05
2.27511e-05
2.25589e-05
2.23726e-05
2.2191e-05
2.20152e-05
2.18443e-05
2.16779e-05
2.1516e-05
2.13586e-05
2.12046e-05
2.10542e-05
2.0908e-05
2.07643e-05
2.06244e-05
2.04885e-05
2.00228e-05
1.93046e-05
1.90708e-05
1.896e-05
1.8851e-05
1.8744e-05
1.86389e-05
1.85356e-05
1.8434e-05
1.83341e-05
1.82358e-05