/*--------------------------------*- C++ -*----------------------------------*\
| =========                 |                                                 |
| \\      /  F ield         | foam-extend: Open Source CFD                    |
|  \\    /   O peration     | Version:     4.1                                |
|   \\  /    A nd           | Web:         http://www.foam-extend.org         |
|    \\/     M anipulation  |                                                 |
\*---------------------------------------------------------------------------*/
FoamFile
{
    version     2.0;
    format      ascii;
    class       vectorField;
    location    "1";
    object      cellCentres;
}
// * * * * * * * * * * * * * * * * * * * * * * * * * * * * * * * * * * * * * //


1000
(
(0.356364 0.385513 0.25)
(0.390255 0.422175 0.25)
(0.424149 0.458842 0.25)
(0.458046 0.495512 0.25)
(0.491946 0.532184 0.25)
(0.525847 0.568858 0.25)
(0.55975 0.605534 0.25)
(0.593654 0.642212 0.25)
(0.62756 0.67889 0.25)
(0.661466 0.715569 0.25)
(0.325019 0.412285 0.25)
(0.355928 0.451493 0.25)
(0.386841 0.490706 0.25)
(0.417757 0.529922 0.25)
(0.448675 0.569141 0.25)
(0.479594 0.608362 0.25)
(0.510515 0.647585 0.25)
(0.541437 0.686809 0.25)
(0.57236 0.726035 0.25)
(0.603284 0.765262 0.25)
(0.29167 0.436514 0.25)
(0.319408 0.478027 0.25)
(0.347149 0.519545 0.25)
(0.374892 0.561066 0.25)
(0.402637 0.602589 0.25)
(0.430384 0.644115 0.25)
(0.458132 0.685643 0.25)
(0.485881 0.727173 0.25)
(0.513631 0.768704 0.25)
(0.541382 0.810236 0.25)
(0.256522 0.458053 0.25)
(0.280917 0.501614 0.25)
(0.305315 0.54518 0.25)
(0.329716 0.58875 0.25)
(0.354118 0.632322 0.25)
(0.378521 0.675897 0.25)
(0.402925 0.719474 0.25)
(0.42733 0.763053 0.25)
(0.451736 0.806633 0.25)
(0.476143 0.850214 0.25)
(0.219793 0.476767 0.25)
(0.240695 0.522108 0.25)
(0.2616 0.567454 0.25)
(0.282506 0.612804 0.25)
(0.303414 0.658157 0.25)
(0.324324 0.703512 0.25)
(0.345234 0.74887 0.25)
(0.366145 0.794229 0.25)
(0.387056 0.839589 0.25)
(0.407968 0.884951 0.25)
(0.181708 0.492542 0.25)
(0.198989 0.539384 0.25)
(0.216272 0.58623 0.25)
(0.233556 0.63308 0.25)
(0.250841 0.679934 0.25)
(0.268127 0.72679 0.25)
(0.285414 0.773648 0.25)
(0.302701 0.820508 0.25)
(0.319989 0.867369 0.25)
(0.337278 0.914232 0.25)
(0.142504 0.505281 0.25)
(0.156056 0.553333 0.25)
(0.16961 0.601391 0.25)
(0.183165 0.649453 0.25)
(0.196721 0.697518 0.25)
(0.210277 0.745586 0.25)
(0.223834 0.793656 0.25)
(0.237392 0.841728 0.25)
(0.25095 0.889802 0.25)
(0.264508 0.937876 0.25)
(0.102421 0.514904 0.25)
(0.112161 0.563872 0.25)
(0.121902 0.612845 0.25)
(0.131645 0.661822 0.25)
(0.141387 0.710803 0.25)
(0.151131 0.759786 0.25)
(0.160875 0.808772 0.25)
(0.170619 0.857759 0.25)
(0.180363 0.906748 0.25)
(0.190108 0.955738 0.25)
(0.0617061 0.521353 0.25)
(0.0675744 0.570934 0.25)
(0.0734434 0.62052 0.25)
(0.0793128 0.670111 0.25)
(0.0851827 0.719705 0.25)
(0.0910528 0.769301 0.25)
(0.0969233 0.8189 0.25)
(0.102794 0.868501 0.25)
(0.108665 0.918104 0.25)
(0.114536 0.967707 0.25)
(0.0206111 0.524587 0.25)
(0.0225712 0.574475 0.25)
(0.0245315 0.624369 0.25)
(0.026492 0.674268 0.25)
(0.0284527 0.724169 0.25)
(0.0304134 0.774074 0.25)
(0.0323743 0.823981 0.25)
(0.0343352 0.873889 0.25)
(0.0362962 0.923799 0.25)
(0.0382572 0.973711 0.25)
(0.524587 0.0206111 0.25)
(0.574475 0.0225712 0.25)
(0.624369 0.0245315 0.25)
(0.674268 0.026492 0.25)
(0.724169 0.0284527 0.25)
(0.774074 0.0304134 0.25)
(0.823981 0.0323743 0.25)
(0.873889 0.0343352 0.25)
(0.923799 0.0362962 0.25)
(0.973711 0.0382572 0.25)
(0.521353 0.0617061 0.25)
(0.570934 0.0675744 0.25)
(0.62052 0.0734434 0.25)
(0.670111 0.0793128 0.25)
(0.719705 0.0851827 0.25)
(0.769301 0.0910528 0.25)
(0.8189 0.0969233 0.25)
(0.868501 0.102794 0.25)
(0.918104 0.108665 0.25)
(0.967707 0.114536 0.25)
(0.514904 0.102421 0.25)
(0.563872 0.112161 0.25)
(0.612845 0.121902 0.25)
(0.661822 0.131645 0.25)
(0.710803 0.141387 0.25)
(0.759786 0.151131 0.25)
(0.808772 0.160875 0.25)
(0.857759 0.170619 0.25)
(0.906748 0.180363 0.25)
(0.955738 0.190108 0.25)
(0.505281 0.142504 0.25)
(0.553333 0.156056 0.25)
(0.601391 0.16961 0.25)
(0.649453 0.183165 0.25)
(0.697518 0.196721 0.25)
(0.745586 0.210277 0.25)
(0.793656 0.223834 0.25)
(0.841728 0.237392 0.25)
(0.889802 0.25095 0.25)
(0.937876 0.264508 0.25)
(0.492542 0.181708 0.25)
(0.539384 0.198989 0.25)
(0.58623 0.216272 0.25)
(0.63308 0.233556 0.25)
(0.679934 0.250841 0.25)
(0.72679 0.268127 0.25)
(0.773648 0.285414 0.25)
(0.820508 0.302701 0.25)
(0.867369 0.319989 0.25)
(0.914232 0.337278 0.25)
(0.476767 0.219793 0.25)
(0.522108 0.240695 0.25)
(0.567454 0.2616 0.25)
(0.612804 0.282506 0.25)
(0.658157 0.303414 0.25)
(0.703512 0.324324 0.25)
(0.74887 0.345234 0.25)
(0.794229 0.366145 0.25)
(0.839589 0.387056 0.25)
(0.884951 0.407968 0.25)
(0.458053 0.256522 0.25)
(0.501614 0.280917 0.25)
(0.54518 0.305315 0.25)
(0.58875 0.329716 0.25)
(0.632322 0.354118 0.25)
(0.675897 0.378521 0.25)
(0.719474 0.402925 0.25)
(0.763053 0.42733 0.25)
(0.806633 0.451736 0.25)
(0.850214 0.476143 0.25)
(0.436514 0.29167 0.25)
(0.478027 0.319408 0.25)
(0.519545 0.347149 0.25)
(0.561066 0.374892 0.25)
(0.602589 0.402637 0.25)
(0.644115 0.430384 0.25)
(0.685643 0.458132 0.25)
(0.727173 0.485881 0.25)
(0.768704 0.513631 0.25)
(0.810236 0.541382 0.25)
(0.412285 0.325019 0.25)
(0.451493 0.355928 0.25)
(0.490706 0.386841 0.25)
(0.529922 0.417757 0.25)
(0.569141 0.448675 0.25)
(0.608362 0.479594 0.25)
(0.647585 0.510515 0.25)
(0.686809 0.541437 0.25)
(0.726035 0.57236 0.25)
(0.765262 0.603284 0.25)
(0.385513 0.356364 0.25)
(0.422175 0.390255 0.25)
(0.458842 0.424149 0.25)
(0.495512 0.458046 0.25)
(0.532184 0.491946 0.25)
(0.568858 0.525847 0.25)
(0.605534 0.55975 0.25)
(0.642212 0.593654 0.25)
(0.67889 0.62756 0.25)
(0.715569 0.661466 0.25)
(1.02348 0.0391509 0.25)
(1.07355 0.0389572 0.25)
(1.12363 0.0387635 0.25)
(1.17371 0.0385698 0.25)
(1.22378 0.0383761 0.25)
(1.27386 0.0381824 0.25)
(1.32394 0.0379887 0.25)
(1.37401 0.037795 0.25)
(1.42409 0.0376012 0.25)
(1.47417 0.0374075 0.25)
(1.52425 0.0372138 0.25)
(1.57432 0.0370201 0.25)
(1.6244 0.0368264 0.25)
(1.67448 0.0366327 0.25)
(1.72455 0.036439 0.25)
(1.77463 0.0362453 0.25)
(1.82471 0.0360516 0.25)
(1.87478 0.0358578 0.25)
(1.92486 0.0356641 0.25)
(1.97494 0.0354704 0.25)
(1.01747 0.117217 0.25)
(1.06785 0.116648 0.25)
(1.11824 0.116078 0.25)
(1.16862 0.115509 0.25)
(1.21901 0.11494 0.25)
(1.2694 0.114371 0.25)
(1.31978 0.113802 0.25)
(1.37017 0.113233 0.25)
(1.42055 0.112664 0.25)
(1.47094 0.112095 0.25)
(1.52132 0.111526 0.25)
(1.57171 0.110957 0.25)
(1.62209 0.110388 0.25)
(1.67248 0.109819 0.25)
(1.72286 0.10925 0.25)
(1.77325 0.108681 0.25)
(1.82363 0.108112 0.25)
(1.87402 0.107543 0.25)
(1.9244 0.106974 0.25)
(1.97479 0.106405 0.25)
(1.00549 0.194575 0.25)
(1.05649 0.193667 0.25)
(1.10749 0.192759 0.25)
(1.15849 0.19185 0.25)
(1.20949 0.190942 0.25)
(1.26049 0.190034 0.25)
(1.31149 0.189126 0.25)
(1.36249 0.188218 0.25)
(1.41349 0.18731 0.25)
(1.46449 0.186401 0.25)
(1.51549 0.185493 0.25)
(1.56649 0.184585 0.25)
(1.61749 0.183677 0.25)
(1.66849 0.182769 0.25)
(1.71949 0.181861 0.25)
(1.77048 0.180952 0.25)
(1.82148 0.180044 0.25)
(1.87248 0.179136 0.25)
(1.92348 0.178228 0.25)
(1.97448 0.17732 0.25)
(0.987624 0.27076 0.25)
(1.03954 0.269572 0.25)
(1.09146 0.268385 0.25)
(1.14337 0.267198 0.25)
(1.19529 0.266011 0.25)
(1.2472 0.264824 0.25)
(1.29912 0.263636 0.25)
(1.35104 0.262449 0.25)
(1.40295 0.261262 0.25)
(1.45487 0.260075 0.25)
(1.50678 0.258887 0.25)
(1.5587 0.2577 0.25)
(1.61062 0.256513 0.25)
(1.66253 0.255326 0.25)
(1.71445 0.254138 0.25)
(1.76636 0.252951 0.25)
(1.81828 0.251764 0.25)
(1.8702 0.250577 0.25)
(1.92211 0.24939 0.25)
(1.97403 0.248202 0.25)
(0.96397 0.345311 0.25)
(1.0171 0.343929 0.25)
(1.07023 0.342546 0.25)
(1.12336 0.341163 0.25)
(1.17649 0.339781 0.25)
(1.22962 0.338398 0.25)
(1.28275 0.337015 0.25)
(1.33588 0.335633 0.25)
(1.389 0.33425 0.25)
(1.44213 0.332867 0.25)
(1.49526 0.331485 0.25)
(1.54839 0.330102 0.25)
(1.60152 0.328719 0.25)
(1.65465 0.327336 0.25)
(1.70778 0.325954 0.25)
(1.76091 0.324571 0.25)
(1.81404 0.323188 0.25)
(1.86717 0.321806 0.25)
(1.9203 0.320423 0.25)
(1.97343 0.31904 0.25)
(0.934677 0.417781 0.25)
(0.989309 0.416309 0.25)
(1.04394 0.414838 0.25)
(1.09857 0.413366 0.25)
(1.15321 0.411895 0.25)
(1.20784 0.410423 0.25)
(1.26247 0.408952 0.25)
(1.3171 0.40748 0.25)
(1.37173 0.406009 0.25)
(1.42637 0.404537 0.25)
(1.481 0.403066 0.25)
(1.53563 0.401594 0.25)
(1.59026 0.400123 0.25)
(1.64489 0.398651 0.25)
(1.69953 0.39718 0.25)
(1.75416 0.395708 0.25)
(1.80879 0.394236 0.25)
(1.86342 0.392765 0.25)
(1.91805 0.391293 0.25)
(1.97268 0.389822 0.25)
(0.899928 0.487732 0.25)
(0.956343 0.486301 0.25)
(1.01276 0.484869 0.25)
(1.06917 0.483438 0.25)
(1.12559 0.482006 0.25)
(1.182 0.480575 0.25)
(1.23842 0.479144 0.25)
(1.29483 0.477712 0.25)
(1.35125 0.476281 0.25)
(1.40766 0.474849 0.25)
(1.46407 0.473418 0.25)
(1.52049 0.471987 0.25)
(1.5769 0.470555 0.25)
(1.63332 0.469124 0.25)
(1.68973 0.467692 0.25)
(1.74615 0.466261 0.25)
(1.80256 0.46483 0.25)
(1.85897 0.463398 0.25)
(1.91539 0.461967 0.25)
(1.9718 0.460535 0.25)
(0.859937 0.554744 0.25)
(0.918404 0.553503 0.25)
(0.97687 0.552263 0.25)
(1.03534 0.551022 0.25)
(1.0938 0.549781 0.25)
(1.15227 0.54854 0.25)
(1.21074 0.5473 0.25)
(1.2692 0.546059 0.25)
(1.32767 0.544818 0.25)
(1.38613 0.543577 0.25)
(1.4446 0.542337 0.25)
(1.50307 0.541096 0.25)
(1.56153 0.539855 0.25)
(1.62 0.538614 0.25)
(1.67846 0.537374 0.25)
(1.73693 0.536133 0.25)
(1.79539 0.534892 0.25)
(1.85386 0.533651 0.25)
(1.91232 0.532411 0.25)
(1.97079 0.53117 0.25)
(0.814952 0.618415 0.25)
(0.875727 0.617536 0.25)
(0.936501 0.616657 0.25)
(0.997276 0.615778 0.25)
(1.05805 0.614899 0.25)
(1.11882 0.614021 0.25)
(1.1796 0.613142 0.25)
(1.24037 0.612263 0.25)
(1.30115 0.611384 0.25)
(1.36192 0.610505 0.25)
(1.42269 0.609626 0.25)
(1.48347 0.608747 0.25)
(1.54424 0.607868 0.25)
(1.60501 0.606989 0.25)
(1.66579 0.60611 0.25)
(1.72656 0.605231 0.25)
(1.78733 0.604352 0.25)
(1.8481 0.603473 0.25)
(1.90888 0.602595 0.25)
(1.96965 0.601716 0.25)
(0.76525 0.678363 0.25)
(0.828576 0.678037 0.25)
(0.891901 0.677711 0.25)
(0.955225 0.677384 0.25)
(1.01855 0.677058 0.25)
(1.08187 0.676732 0.25)
(1.1452 0.676405 0.25)
(1.20852 0.676079 0.25)
(1.27185 0.675752 0.25)
(1.33517 0.675426 0.25)
(1.39849 0.6751 0.25)
(1.46181 0.674773 0.25)
(1.52514 0.674447 0.25)
(1.58846 0.674121 0.25)
(1.65178 0.673794 0.25)
(1.7151 0.673468 0.25)
(1.77842 0.673142 0.25)
(1.84175 0.672815 0.25)
(1.90507 0.672489 0.25)
(1.96839 0.672163 0.25)
(0.739429 0.739429 0.25)
(0.804074 0.739429 0.25)
(0.868719 0.739429 0.25)
(0.933363 0.739429 0.25)
(0.998008 0.739429 0.25)
(1.06265 0.739429 0.25)
(1.1273 0.739429 0.25)
(1.19194 0.739429 0.25)
(1.25659 0.739429 0.25)
(1.32123 0.739429 0.25)
(1.38588 0.739429 0.25)
(1.45052 0.739429 0.25)
(1.51517 0.739429 0.25)
(1.57981 0.739429 0.25)
(1.64445 0.739429 0.25)
(1.7091 0.739429 0.25)
(1.77374 0.739429 0.25)
(1.83839 0.739429 0.25)
(1.90303 0.739429 0.25)
(1.96768 0.739429 0.25)
(0.739429 0.804074 0.25)
(0.804074 0.804074 0.25)
(0.868719 0.804074 0.25)
(0.933363 0.804074 0.25)
(0.998008 0.804074 0.25)
(1.06265 0.804074 0.25)
(1.1273 0.804074 0.25)
(1.19194 0.804074 0.25)
(1.25659 0.804074 0.25)
(1.32123 0.804074 0.25)
(1.38588 0.804074 0.25)
(1.45052 0.804074 0.25)
(1.51517 0.804074 0.25)
(1.57981 0.804074 0.25)
(1.64445 0.804074 0.25)
(1.7091 0.804074 0.25)
(1.77374 0.804074 0.25)
(1.83839 0.804074 0.25)
(1.90303 0.804074 0.25)
(1.96768 0.804074 0.25)
(0.739429 0.868719 0.25)
(0.804074 0.868719 0.25)
(0.868719 0.868719 0.25)
(0.933363 0.868719 0.25)
(0.998008 0.868719 0.25)
(1.06265 0.868719 0.25)
(1.1273 0.868719 0.25)
(1.19194 0.868719 0.25)
(1.25659 0.868719 0.25)
(1.32123 0.868719 0.25)
(1.38588 0.868719 0.25)
(1.45052 0.868719 0.25)
(1.51517 0.868719 0.25)
(1.57981 0.868719 0.25)
(1.64445 0.868719 0.25)
(1.7091 0.868719 0.25)
(1.77374 0.868719 0.25)
(1.83839 0.868719 0.25)
(1.90303 0.868719 0.25)
(1.96768 0.868719 0.25)
(0.739429 0.933363 0.25)
(0.804074 0.933363 0.25)
(0.868719 0.933363 0.25)
(0.933363 0.933363 0.25)
(0.998008 0.933363 0.25)
(1.06265 0.933363 0.25)
(1.1273 0.933363 0.25)
(1.19194 0.933363 0.25)
(1.25659 0.933363 0.25)
(1.32123 0.933363 0.25)
(1.38588 0.933363 0.25)
(1.45052 0.933363 0.25)
(1.51517 0.933363 0.25)
(1.57981 0.933363 0.25)
(1.64445 0.933363 0.25)
(1.7091 0.933363 0.25)
(1.77374 0.933363 0.25)
(1.83839 0.933363 0.25)
(1.90303 0.933363 0.25)
(1.96768 0.933363 0.25)
(0.739429 0.998008 0.25)
(0.804074 0.998008 0.25)
(0.868719 0.998008 0.25)
(0.933363 0.998008 0.25)
(0.998008 0.998008 0.25)
(1.06265 0.998008 0.25)
(1.1273 0.998008 0.25)
(1.19194 0.998008 0.25)
(1.25659 0.998008 0.25)
(1.32123 0.998008 0.25)
(1.38588 0.998008 0.25)
(1.45052 0.998008 0.25)
(1.51517 0.998008 0.25)
(1.57981 0.998008 0.25)
(1.64445 0.998008 0.25)
(1.7091 0.998008 0.25)
(1.77374 0.998008 0.25)
(1.83839 0.998008 0.25)
(1.90303 0.998008 0.25)
(1.96768 0.998008 0.25)
(0.739429 1.06265 0.25)
(0.804074 1.06265 0.25)
(0.868719 1.06265 0.25)
(0.933363 1.06265 0.25)
(0.998008 1.06265 0.25)
(1.06265 1.06265 0.25)
(1.1273 1.06265 0.25)
(1.19194 1.06265 0.25)
(1.25659 1.06265 0.25)
(1.32123 1.06265 0.25)
(1.38588 1.06265 0.25)
(1.45052 1.06265 0.25)
(1.51517 1.06265 0.25)
(1.57981 1.06265 0.25)
(1.64445 1.06265 0.25)
(1.7091 1.06265 0.25)
(1.77374 1.06265 0.25)
(1.83839 1.06265 0.25)
(1.90303 1.06265 0.25)
(1.96768 1.06265 0.25)
(0.739429 1.1273 0.25)
(0.804074 1.1273 0.25)
(0.868719 1.1273 0.25)
(0.933363 1.1273 0.25)
(0.998008 1.1273 0.25)
(1.06265 1.1273 0.25)
(1.1273 1.1273 0.25)
(1.19194 1.1273 0.25)
(1.25659 1.1273 0.25)
(1.32123 1.1273 0.25)
(1.38588 1.1273 0.25)
(1.45052 1.1273 0.25)
(1.51517 1.1273 0.25)
(1.57981 1.1273 0.25)
(1.64445 1.1273 0.25)
(1.7091 1.1273 0.25)
(1.77374 1.1273 0.25)
(1.83839 1.1273 0.25)
(1.90303 1.1273 0.25)
(1.96768 1.1273 0.25)
(0.739429 1.19194 0.25)
(0.804074 1.19194 0.25)
(0.868719 1.19194 0.25)
(0.933363 1.19194 0.25)
(0.998008 1.19194 0.25)
(1.06265 1.19194 0.25)
(1.1273 1.19194 0.25)
(1.19194 1.19194 0.25)
(1.25659 1.19194 0.25)
(1.32123 1.19194 0.25)
(1.38588 1.19194 0.25)
(1.45052 1.19194 0.25)
(1.51517 1.19194 0.25)
(1.57981 1.19194 0.25)
(1.64445 1.19194 0.25)
(1.7091 1.19194 0.25)
(1.77374 1.19194 0.25)
(1.83839 1.19194 0.25)
(1.90303 1.19194 0.25)
(1.96768 1.19194 0.25)
(0.739429 1.25659 0.25)
(0.804074 1.25659 0.25)
(0.868719 1.25659 0.25)
(0.933363 1.25659 0.25)
(0.998008 1.25659 0.25)
(1.06265 1.25659 0.25)
(1.1273 1.25659 0.25)
(1.19194 1.25659 0.25)
(1.25659 1.25659 0.25)
(1.32123 1.25659 0.25)
(1.38588 1.25659 0.25)
(1.45052 1.25659 0.25)
(1.51517 1.25659 0.25)
(1.57981 1.25659 0.25)
(1.64445 1.25659 0.25)
(1.7091 1.25659 0.25)
(1.77374 1.25659 0.25)
(1.83839 1.25659 0.25)
(1.90303 1.25659 0.25)
(1.96768 1.25659 0.25)
(0.739429 1.32123 0.25)
(0.804074 1.32123 0.25)
(0.868719 1.32123 0.25)
(0.933363 1.32123 0.25)
(0.998008 1.32123 0.25)
(1.06265 1.32123 0.25)
(1.1273 1.32123 0.25)
(1.19194 1.32123 0.25)
(1.25659 1.32123 0.25)
(1.32123 1.32123 0.25)
(1.38588 1.32123 0.25)
(1.45052 1.32123 0.25)
(1.51517 1.32123 0.25)
(1.57981 1.32123 0.25)
(1.64445 1.32123 0.25)
(1.7091 1.32123 0.25)
(1.77374 1.32123 0.25)
(1.83839 1.32123 0.25)
(1.90303 1.32123 0.25)
(1.96768 1.32123 0.25)
(0.739429 1.38588 0.25)
(0.804074 1.38588 0.25)
(0.868719 1.38588 0.25)
(0.933363 1.38588 0.25)
(0.998008 1.38588 0.25)
(1.06265 1.38588 0.25)
(1.1273 1.38588 0.25)
(1.19194 1.38588 0.25)
(1.25659 1.38588 0.25)
(1.32123 1.38588 0.25)
(1.38588 1.38588 0.25)
(1.45052 1.38588 0.25)
(1.51517 1.38588 0.25)
(1.57981 1.38588 0.25)
(1.64445 1.38588 0.25)
(1.7091 1.38588 0.25)
(1.77374 1.38588 0.25)
(1.83839 1.38588 0.25)
(1.90303 1.38588 0.25)
(1.96768 1.38588 0.25)
(0.739429 1.45052 0.25)
(0.804074 1.45052 0.25)
(0.868719 1.45052 0.25)
(0.933363 1.45052 0.25)
(0.998008 1.45052 0.25)
(1.06265 1.45052 0.25)
(1.1273 1.45052 0.25)
(1.19194 1.45052 0.25)
(1.25659 1.45052 0.25)
(1.32123 1.45052 0.25)
(1.38588 1.45052 0.25)
(1.45052 1.45052 0.25)
(1.51517 1.45052 0.25)
(1.57981 1.45052 0.25)
(1.64445 1.45052 0.25)
(1.7091 1.45052 0.25)
(1.77374 1.45052 0.25)
(1.83839 1.45052 0.25)
(1.90303 1.45052 0.25)
(1.96768 1.45052 0.25)
(0.739429 1.51517 0.25)
(0.804074 1.51517 0.25)
(0.868719 1.51517 0.25)
(0.933363 1.51517 0.25)
(0.998008 1.51517 0.25)
(1.06265 1.51517 0.25)
(1.1273 1.51517 0.25)
(1.19194 1.51517 0.25)
(1.25659 1.51517 0.25)
(1.32123 1.51517 0.25)
(1.38588 1.51517 0.25)
(1.45052 1.51517 0.25)
(1.51517 1.51517 0.25)
(1.57981 1.51517 0.25)
(1.64445 1.51517 0.25)
(1.7091 1.51517 0.25)
(1.77374 1.51517 0.25)
(1.83839 1.51517 0.25)
(1.90303 1.51517 0.25)
(1.96768 1.51517 0.25)
(0.739429 1.57981 0.25)
(0.804074 1.57981 0.25)
(0.868719 1.57981 0.25)
(0.933363 1.57981 0.25)
(0.998008 1.57981 0.25)
(1.06265 1.57981 0.25)
(1.1273 1.57981 0.25)
(1.19194 1.57981 0.25)
(1.25659 1.57981 0.25)
(1.32123 1.57981 0.25)
(1.38588 1.57981 0.25)
(1.45052 1.57981 0.25)
(1.51517 1.57981 0.25)
(1.57981 1.57981 0.25)
(1.64445 1.57981 0.25)
(1.7091 1.57981 0.25)
(1.77374 1.57981 0.25)
(1.83839 1.57981 0.25)
(1.90303 1.57981 0.25)
(1.96768 1.57981 0.25)
(0.739429 1.64445 0.25)
(0.804074 1.64445 0.25)
(0.868719 1.64445 0.25)
(0.933363 1.64445 0.25)
(0.998008 1.64445 0.25)
(1.06265 1.64445 0.25)
(1.1273 1.64445 0.25)
(1.19194 1.64445 0.25)
(1.25659 1.64445 0.25)
(1.32123 1.64445 0.25)
(1.38588 1.64445 0.25)
(1.45052 1.64445 0.25)
(1.51517 1.64445 0.25)
(1.57981 1.64445 0.25)
(1.64445 1.64445 0.25)
(1.7091 1.64445 0.25)
(1.77374 1.64445 0.25)
(1.83839 1.64445 0.25)
(1.90303 1.64445 0.25)
(1.96768 1.64445 0.25)
(0.739429 1.7091 0.25)
(0.804074 1.7091 0.25)
(0.868719 1.7091 0.25)
(0.933363 1.7091 0.25)
(0.998008 1.7091 0.25)
(1.06265 1.7091 0.25)
(1.1273 1.7091 0.25)
(1.19194 1.7091 0.25)
(1.25659 1.7091 0.25)
(1.32123 1.7091 0.25)
(1.38588 1.7091 0.25)
(1.45052 1.7091 0.25)
(1.51517 1.7091 0.25)
(1.57981 1.7091 0.25)
(1.64445 1.7091 0.25)
(1.7091 1.7091 0.25)
(1.77374 1.7091 0.25)
(1.83839 1.7091 0.25)
(1.90303 1.7091 0.25)
(1.96768 1.7091 0.25)
(0.739429 1.77374 0.25)
(0.804074 1.77374 0.25)
(0.868719 1.77374 0.25)
(0.933363 1.77374 0.25)
(0.998008 1.77374 0.25)
(1.06265 1.77374 0.25)
(1.1273 1.77374 0.25)
(1.19194 1.77374 0.25)
(1.25659 1.77374 0.25)
(1.32123 1.77374 0.25)
(1.38588 1.77374 0.25)
(1.45052 1.77374 0.25)
(1.51517 1.77374 0.25)
(1.57981 1.77374 0.25)
(1.64445 1.77374 0.25)
(1.7091 1.77374 0.25)
(1.77374 1.77374 0.25)
(1.83839 1.77374 0.25)
(1.90303 1.77374 0.25)
(1.96768 1.77374 0.25)
(0.739429 1.83839 0.25)
(0.804074 1.83839 0.25)
(0.868719 1.83839 0.25)
(0.933363 1.83839 0.25)
(0.998008 1.83839 0.25)
(1.06265 1.83839 0.25)
(1.1273 1.83839 0.25)
(1.19194 1.83839 0.25)
(1.25659 1.83839 0.25)
(1.32123 1.83839 0.25)
(1.38588 1.83839 0.25)
(1.45052 1.83839 0.25)
(1.51517 1.83839 0.25)
(1.57981 1.83839 0.25)
(1.64445 1.83839 0.25)
(1.7091 1.83839 0.25)
(1.77374 1.83839 0.25)
(1.83839 1.83839 0.25)
(1.90303 1.83839 0.25)
(1.96768 1.83839 0.25)
(0.739429 1.90303 0.25)
(0.804074 1.90303 0.25)
(0.868719 1.90303 0.25)
(0.933363 1.90303 0.25)
(0.998008 1.90303 0.25)
(1.06265 1.90303 0.25)
(1.1273 1.90303 0.25)
(1.19194 1.90303 0.25)
(1.25659 1.90303 0.25)
(1.32123 1.90303 0.25)
(1.38588 1.90303 0.25)
(1.45052 1.90303 0.25)
(1.51517 1.90303 0.25)
(1.57981 1.90303 0.25)
(1.64445 1.90303 0.25)
(1.7091 1.90303 0.25)
(1.77374 1.90303 0.25)
(1.83839 1.90303 0.25)
(1.90303 1.90303 0.25)
(1.96768 1.90303 0.25)
(0.739429 1.96768 0.25)
(0.804074 1.96768 0.25)
(0.868719 1.96768 0.25)
(0.933363 1.96768 0.25)
(0.998008 1.96768 0.25)
(1.06265 1.96768 0.25)
(1.1273 1.96768 0.25)
(1.19194 1.96768 0.25)
(1.25659 1.96768 0.25)
(1.32123 1.96768 0.25)
(1.38588 1.96768 0.25)
(1.45052 1.96768 0.25)
(1.51517 1.96768 0.25)
(1.57981 1.96768 0.25)
(1.64445 1.96768 0.25)
(1.7091 1.96768 0.25)
(1.77374 1.96768 0.25)
(1.83839 1.96768 0.25)
(1.90303 1.96768 0.25)
(1.96768 1.96768 0.25)
(0.0391509 1.02348 0.25)
(0.117217 1.01747 0.25)
(0.194575 1.00549 0.25)
(0.27076 0.987624 0.25)
(0.345311 0.96397 0.25)
(0.417781 0.934677 0.25)
(0.487732 0.899928 0.25)
(0.554744 0.859937 0.25)
(0.618415 0.814952 0.25)
(0.678363 0.76525 0.25)
(0.0389572 1.07355 0.25)
(0.116648 1.06785 0.25)
(0.193667 1.05649 0.25)
(0.269572 1.03954 0.25)
(0.343929 1.0171 0.25)
(0.416309 0.989309 0.25)
(0.486301 0.956343 0.25)
(0.553503 0.918404 0.25)
(0.617536 0.875727 0.25)
(0.678037 0.828576 0.25)
(0.0387635 1.12363 0.25)
(0.116078 1.11824 0.25)
(0.192759 1.10749 0.25)
(0.268385 1.09146 0.25)
(0.342546 1.07023 0.25)
(0.414838 1.04394 0.25)
(0.484869 1.01276 0.25)
(0.552263 0.97687 0.25)
(0.616657 0.936501 0.25)
(0.677711 0.891901 0.25)
(0.0385698 1.17371 0.25)
(0.115509 1.16862 0.25)
(0.19185 1.15849 0.25)
(0.267198 1.14337 0.25)
(0.341163 1.12336 0.25)
(0.413366 1.09857 0.25)
(0.483438 1.06917 0.25)
(0.551022 1.03534 0.25)
(0.615778 0.997276 0.25)
(0.677384 0.955225 0.25)
(0.0383761 1.22378 0.25)
(0.11494 1.21901 0.25)
(0.190942 1.20949 0.25)
(0.266011 1.19529 0.25)
(0.339781 1.17649 0.25)
(0.411895 1.15321 0.25)
(0.482006 1.12559 0.25)
(0.549781 1.0938 0.25)
(0.614899 1.05805 0.25)
(0.677058 1.01855 0.25)
(0.0381824 1.27386 0.25)
(0.114371 1.2694 0.25)
(0.190034 1.26049 0.25)
(0.264824 1.2472 0.25)
(0.338398 1.22962 0.25)
(0.410423 1.20784 0.25)
(0.480575 1.182 0.25)
(0.54854 1.15227 0.25)
(0.614021 1.11882 0.25)
(0.676732 1.08187 0.25)
(0.0379887 1.32394 0.25)
(0.113802 1.31978 0.25)
(0.189126 1.31149 0.25)
(0.263636 1.29912 0.25)
(0.337015 1.28275 0.25)
(0.408952 1.26247 0.25)
(0.479144 1.23842 0.25)
(0.5473 1.21074 0.25)
(0.613142 1.1796 0.25)
(0.676405 1.1452 0.25)
(0.037795 1.37401 0.25)
(0.113233 1.37017 0.25)
(0.188218 1.36249 0.25)
(0.262449 1.35104 0.25)
(0.335633 1.33588 0.25)
(0.40748 1.3171 0.25)
(0.477712 1.29483 0.25)
(0.546059 1.2692 0.25)
(0.612263 1.24037 0.25)
(0.676079 1.20852 0.25)
(0.0376012 1.42409 0.25)
(0.112664 1.42055 0.25)
(0.18731 1.41349 0.25)
(0.261262 1.40295 0.25)
(0.33425 1.389 0.25)
(0.406009 1.37173 0.25)
(0.476281 1.35125 0.25)
(0.544818 1.32767 0.25)
(0.611384 1.30115 0.25)
(0.675752 1.27185 0.25)
(0.0374075 1.47417 0.25)
(0.112095 1.47094 0.25)
(0.186401 1.46449 0.25)
(0.260075 1.45487 0.25)
(0.332867 1.44213 0.25)
(0.404537 1.42637 0.25)
(0.474849 1.40766 0.25)
(0.543577 1.38613 0.25)
(0.610505 1.36192 0.25)
(0.675426 1.33517 0.25)
(0.0372138 1.52425 0.25)
(0.111526 1.52132 0.25)
(0.185493 1.51549 0.25)
(0.258887 1.50678 0.25)
(0.331485 1.49526 0.25)
(0.403066 1.481 0.25)
(0.473418 1.46407 0.25)
(0.542337 1.4446 0.25)
(0.609626 1.42269 0.25)
(0.6751 1.39849 0.25)
(0.0370201 1.57432 0.25)
(0.110957 1.57171 0.25)
(0.184585 1.56649 0.25)
(0.2577 1.5587 0.25)
(0.330102 1.54839 0.25)
(0.401594 1.53563 0.25)
(0.471987 1.52049 0.25)
(0.541096 1.50307 0.25)
(0.608747 1.48347 0.25)
(0.674773 1.46181 0.25)
(0.0368264 1.6244 0.25)
(0.110388 1.62209 0.25)
(0.183677 1.61749 0.25)
(0.256513 1.61062 0.25)
(0.328719 1.60152 0.25)
(0.400123 1.59026 0.25)
(0.470555 1.5769 0.25)
(0.539855 1.56153 0.25)
(0.607868 1.54424 0.25)
(0.674447 1.52514 0.25)
(0.0366327 1.67448 0.25)
(0.109819 1.67248 0.25)
(0.182769 1.66849 0.25)
(0.255326 1.66253 0.25)
(0.327336 1.65465 0.25)
(0.398651 1.64489 0.25)
(0.469124 1.63332 0.25)
(0.538614 1.62 0.25)
(0.606989 1.60501 0.25)
(0.674121 1.58846 0.25)
(0.036439 1.72455 0.25)
(0.10925 1.72286 0.25)
(0.181861 1.71949 0.25)
(0.254138 1.71445 0.25)
(0.325954 1.70778 0.25)
(0.39718 1.69953 0.25)
(0.467692 1.68973 0.25)
(0.537374 1.67846 0.25)
(0.60611 1.66579 0.25)
(0.673794 1.65178 0.25)
(0.0362453 1.77463 0.25)
(0.108681 1.77325 0.25)
(0.180952 1.77048 0.25)
(0.252951 1.76636 0.25)
(0.324571 1.76091 0.25)
(0.395708 1.75416 0.25)
(0.466261 1.74615 0.25)
(0.536133 1.73693 0.25)
(0.605231 1.72656 0.25)
(0.673468 1.7151 0.25)
(0.0360516 1.82471 0.25)
(0.108112 1.82363 0.25)
(0.180044 1.82148 0.25)
(0.251764 1.81828 0.25)
(0.323188 1.81404 0.25)
(0.394236 1.80879 0.25)
(0.46483 1.80256 0.25)
(0.534892 1.79539 0.25)
(0.604352 1.78733 0.25)
(0.673142 1.77842 0.25)
(0.0358578 1.87478 0.25)
(0.107543 1.87402 0.25)
(0.179136 1.87248 0.25)
(0.250577 1.8702 0.25)
(0.321806 1.86717 0.25)
(0.392765 1.86342 0.25)
(0.463398 1.85897 0.25)
(0.533651 1.85386 0.25)
(0.603473 1.8481 0.25)
(0.672815 1.84175 0.25)
(0.0356641 1.92486 0.25)
(0.106974 1.9244 0.25)
(0.178228 1.92348 0.25)
(0.24939 1.92211 0.25)
(0.320423 1.9203 0.25)
(0.391293 1.91805 0.25)
(0.461967 1.91539 0.25)
(0.532411 1.91232 0.25)
(0.602595 1.90888 0.25)
(0.672489 1.90507 0.25)
(0.0354704 1.97494 0.25)
(0.106405 1.97479 0.25)
(0.17732 1.97448 0.25)
(0.248202 1.97403 0.25)
(0.31904 1.97343 0.25)
(0.389822 1.97268 0.25)
(0.460535 1.9718 0.25)
(0.53117 1.97079 0.25)
(0.601716 1.96965 0.25)
(0.672163 1.96839 0.25)
)


// ************************************************************************* //
