/*--------------------------------*- C++ -*----------------------------------*\
| =========                 |                                                 |
| \\      /  F ield         | foam-extend: Open Source CFD                    |
|  \\    /   O peration     | Version:     4.1                                |
|   \\  /    A nd           | Web:         http://www.foam-extend.org         |
|    \\/     M anipulation  |                                                 |
\*---------------------------------------------------------------------------*/
FoamFile
{
    version     2.0;
    format      ascii;
    class       volSymmTensorField;
    location    "1";
    object      epsilon;
}
// * * * * * * * * * * * * * * * * * * * * * * * * * * * * * * * * * * * * * //

dimensions      [0 0 0 0 0 0 0];

internalField   nonuniform List<symmTensor> 
1000
(
(3.26054e-07 -3.522e-07 -1.74636e-22 1.76766e-09 -3.31572e-22 -6.88072e-37)
(5.09217e-07 -2.73441e-07 9.87324e-22 -1.95402e-07 2.13601e-22 0)
(5.96367e-07 -2.17038e-07 -1.07325e-21 -2.86225e-07 -7.65584e-22 0)
(6.4756e-07 -1.77253e-07 -4.11474e-22 -3.44056e-07 -9.4666e-23 0)
(6.72471e-07 -1.4698e-07 -6.90665e-23 -3.72292e-07 1.84296e-23 0)
(6.83027e-07 -1.24247e-07 4.33245e-22 -3.8663e-07 2.76254e-22 0)
(6.84847e-07 -1.06184e-07 -7.75546e-22 -3.90869e-07 -4.35712e-22 0)
(6.80957e-07 -9.21478e-08 1.69958e-22 -3.89495e-07 1.01969e-22 0)
(6.7518e-07 -8.03053e-08 -3.10474e-22 -3.84907e-07 -1.82558e-22 0)
(6.65047e-07 -7.01562e-08 -3.83257e-22 -3.78258e-07 -2.41336e-22 0)
(4.46565e-07 -4.23246e-07 4.90242e-22 -2.52998e-08 -2.87097e-22 1.89466e-37)
(5.95123e-07 -2.91121e-07 -9.91419e-22 -2.05759e-07 -2.62423e-22 0)
(6.60666e-07 -2.05605e-07 -9.16663e-22 -2.85942e-07 -2.45733e-22 0)
(6.9636e-07 -1.49184e-07 -7.14339e-22 -3.38504e-07 -4.91931e-22 0)
(7.10529e-07 -1.09777e-07 -1.56255e-22 -3.63468e-07 -1.39283e-22 0)
(7.13193e-07 -8.25009e-08 6.21293e-22 -3.76508e-07 3.65281e-22 0)
(7.09088e-07 -6.25452e-08 -7.2681e-22 -3.80098e-07 -4.96631e-22 0)
(7.0092e-07 -4.84697e-08 2.94764e-22 -3.79127e-07 2.49421e-22 0)
(6.90696e-07 -3.74145e-08 -5.48999e-22 -3.74002e-07 -4.25747e-22 0)
(6.78918e-07 -2.95279e-08 -2.0301e-22 -3.69485e-07 -2.27014e-22 0)
(5.86624e-07 -4.75031e-07 6.05402e-22 -7.54282e-08 3.69541e-23 -1.16081e-37)
(6.85279e-07 -2.98939e-07 -7.74318e-22 -2.23193e-07 -3.37796e-22 0)
(7.20862e-07 -1.89815e-07 7.09927e-22 -2.83954e-07 3.19909e-22 0)
(7.36328e-07 -1.20118e-07 -6.40787e-22 -3.26113e-07 -3.07886e-22 0)
(7.37162e-07 -7.36702e-08 -1.56518e-22 -3.44889e-07 -1.1837e-22 0)
(7.30584e-07 -4.31108e-08 -5.97661e-22 -3.55011e-07 -3.49626e-22 0)
(7.20012e-07 -2.20492e-08 1.10088e-27 -3.57129e-07 -2.97709e-27 0)
(7.07212e-07 -8.19513e-09 -2.05717e-24 -3.56084e-07 2.72952e-24 0)
(6.9335e-07 1.81453e-09 -4.22972e-23 -3.50918e-07 -2.00663e-22 0)
(6.78987e-07 9.09688e-09 6.56559e-23 -3.47644e-07 -4.97789e-23 0)
(7.39222e-07 -5.01408e-07 2.09211e-21 -1.438e-07 -4.16756e-22 4.49699e-36)
(7.76366e-07 -2.95196e-07 4.44674e-22 -2.46188e-07 3.31517e-22 0)
(7.75744e-07 -1.70408e-07 3.33992e-22 -2.80636e-07 3.0948e-22 0)
(7.6757e-07 -9.2179e-08 1.93928e-22 -3.08372e-07 1.35042e-22 0)
(7.53276e-07 -4.15275e-08 1.40104e-21 -3.18757e-07 8.38628e-22 0)
(7.36691e-07 -9.25988e-09 -1.05412e-23 -3.24795e-07 -2.42203e-23 0)
(7.19411e-07 1.20266e-08 -5.01838e-24 -3.24969e-07 2.36264e-23 0)
(7.02206e-07 2.53786e-08 -1.32817e-23 -3.23663e-07 2.35447e-23 0)
(6.85129e-07 3.42032e-08 3.05104e-22 -3.1883e-07 1.51421e-22 0)
(6.69006e-07 4.06617e-08 -2.86869e-23 -3.16676e-07 -6.128e-23 0)
(8.95691e-07 -4.98183e-07 -1.57904e-21 -2.23795e-07 4.05038e-23 -4.76994e-44)
(8.64595e-07 -2.78894e-07 7.16703e-22 -2.72596e-07 2.91879e-22 0)
(8.24281e-07 -1.48121e-07 5.89213e-22 -2.76337e-07 2.8741e-22 0)
(7.9071e-07 -6.71025e-08 6.13151e-22 -2.87041e-07 3.17047e-22 0)
(7.60497e-07 -1.56343e-08 -3.68396e-22 -2.87617e-07 -1.95313e-22 0)
(7.33691e-07 1.64419e-08 5.26354e-22 -2.88805e-07 2.37568e-22 0)
(7.09871e-07 3.69239e-08 1.66378e-22 -2.86761e-07 1.00451e-22 0)
(6.88555e-07 4.93345e-08 -3.24601e-22 -2.85089e-07 -1.19662e-22 0)
(6.68916e-07 5.68394e-08 7.5012e-22 -2.80929e-07 2.9022e-22 0)
(6.51393e-07 6.24084e-08 6.99421e-23 -2.7985e-07 -8.5159e-24 0)
(1.04642e-06 -4.63572e-07 -2.29073e-23 -3.07675e-07 -1.7964e-25 1.03045e-39)
(9.46018e-07 -2.49862e-07 -1.86995e-22 -2.99989e-07 -5.6634e-23 0)
(8.65703e-07 -1.23631e-07 9.24914e-22 -2.71594e-07 3.99433e-22 0)
(8.0688e-07 -4.60345e-08 2.42429e-22 -2.64359e-07 7.23281e-23 0)
(7.61051e-07 2.62498e-09 -3.44262e-22 -2.54674e-07 -1.3567e-22 0)
(7.24439e-07 3.2497e-08 -8.74231e-22 -2.50743e-07 -4.26988e-22 0)
(6.94532e-07 5.11093e-08 7.20154e-24 -2.46412e-07 -1.19907e-22 0)
(6.69548e-07 6.21045e-08 -4.63529e-23 -2.44305e-07 1.50626e-22 0)
(6.47856e-07 6.82011e-08 2.38416e-22 -2.40982e-07 1.83075e-22 0)
(6.29285e-07 7.28082e-08 6.1193e-22 -2.40846e-07 2.50988e-22 0)
(1.18162e-06 -3.98436e-07 5.95899e-22 -3.87308e-07 -7.74462e-23 -1.84147e-37)
(1.01674e-06 -2.0884e-07 -3.24718e-22 -3.25803e-07 4.60573e-23 0)
(8.99401e-07 -9.75616e-08 2.72416e-22 -2.66935e-07 2.0184e-22 0)
(8.1742e-07 -2.95136e-08 8.42833e-23 -2.42624e-07 -5.93227e-23 0)
(7.57414e-07 1.27808e-08 4.89202e-22 -2.23215e-07 9.1753e-23 0)
(7.12031e-07 3.84769e-08 -1.87554e-23 -2.14409e-07 -7.92237e-23 0)
(6.76817e-07 5.42001e-08 1.45892e-22 -2.07937e-07 2.36515e-22 0)
(6.48714e-07 6.33241e-08 5.08112e-22 -2.05387e-07 4.02768e-22 0)
(6.25466e-07 6.80002e-08 -2.43068e-22 -2.0295e-07 -1.21529e-22 0)
(6.06088e-07 7.16281e-08 6.98983e-23 -2.03583e-07 -1.29369e-22 0)
(1.29221e-06 -3.0625e-07 0 -4.54969e-07 0 0)
(1.07326e-06 -1.57409e-07 1.56902e-21 -3.47641e-07 4.75296e-22 0)
(9.25011e-07 -7.04097e-08 -1.65502e-21 -2.62908e-07 -4.53422e-22 0)
(8.23805e-07 -1.73866e-08 -6.27656e-23 -2.24065e-07 -1.03666e-22 0)
(7.52106e-07 1.53748e-08 -1.57674e-22 -1.96403e-07 1.64469e-23 0)
(6.99565e-07 3.51425e-08 8.19192e-22 -1.83444e-07 3.06783e-22 0)
(6.60092e-07 4.70843e-08 2.88142e-22 -1.7517e-07 1.1093e-22 0)
(6.29532e-07 5.39315e-08 -3.9736e-22 -1.72221e-07 -7.3942e-23 0)
(6.05172e-07 5.722e-08 1.68221e-23 -1.70588e-07 -7.08595e-23 0)
(5.85207e-07 5.98437e-08 -1.89984e-22 -1.71798e-07 -1.55657e-22 0)
(1.37052e-06 -1.92877e-07 1.07252e-21 -5.04102e-07 1.09141e-22 4.95024e-37)
(1.11266e-06 -9.79702e-08 -8.81254e-23 -3.63469e-07 -1.76592e-22 0)
(9.42188e-07 -4.25966e-08 -5.50932e-22 -2.59964e-07 -1.10044e-22 0)
(8.27218e-07 -8.9049e-09 4.59563e-22 -2.10558e-07 1.46074e-22 0)
(7.47185e-07 1.18391e-08 -1.84707e-22 -1.76906e-07 -4.23156e-23 0)
(6.89577e-07 2.43058e-08 -4.71689e-22 -1.60927e-07 -6.77187e-23 0)
(6.47128e-07 3.17771e-08 3.04188e-25 -1.51353e-07 -1.11594e-22 0)
(6.14871e-07 3.60308e-08 -5.55944e-24 -1.48105e-07 6.6735e-23 0)
(5.89803e-07 3.79851e-08 -5.03356e-24 -1.47084e-07 3.64198e-23 0)
(5.69456e-07 3.95799e-08 -1.93402e-22 -1.48684e-07 -1.22328e-22 0)
(1.41096e-06 -6.59136e-08 -9.01926e-22 -5.2975e-07 1.60534e-22 2.94382e-37)
(1.13279e-06 -3.3332e-08 -7.32077e-22 -3.71445e-07 -2.46e-22 0)
(9.50675e-07 -1.43094e-08 5.60105e-22 -2.57895e-07 1.79567e-22 0)
(8.28497e-07 -2.73343e-09 -8.75105e-22 -2.02831e-07 -1.13268e-22 0)
(7.44102e-07 4.38692e-09 3.53181e-22 -1.65966e-07 -1.09862e-22 0)
(6.83854e-07 8.66133e-09 -1.54757e-22 -1.48369e-07 2.36165e-23 0)
(6.39866e-07 1.12151e-08 -3.04638e-26 -1.38103e-07 1.13473e-22 0)
(6.06741e-07 1.26659e-08 -1.24818e-22 -1.34702e-07 6.74393e-23 0)
(5.81332e-07 1.33197e-08 -4.37763e-22 -1.34019e-07 -1.83493e-22 0)
(5.60811e-07 1.38597e-08 2.16846e-22 -1.35847e-07 1.61093e-23 0)
(1.91376e-07 1.73127e-08 -1.24072e-22 -5.16598e-07 5.61643e-22 -7.06213e-37)
(1.27982e-07 -7.73981e-09 1.84486e-22 -3.41614e-07 2.6411e-22 0)
(9.77288e-08 -2.05092e-08 2.43524e-24 -2.38075e-07 -1.18978e-22 0)
(1.03339e-07 -2.73359e-08 -9.78025e-24 -1.78706e-07 8.43543e-23 0)
(1.18022e-07 -3.05198e-08 -1.11084e-22 -1.4447e-07 -7.66853e-23 0)
(1.41039e-07 -3.16385e-08 1.47056e-22 -1.2529e-07 6.06751e-23 0)
(1.65079e-07 -3.15555e-08 2.06079e-23 -1.15141e-07 2.46856e-23 0)
(1.90034e-07 -3.0831e-08 -2.72347e-23 -1.103e-07 4.51679e-23 0)
(2.13387e-07 -2.95994e-08 1.46468e-22 -1.08766e-07 3.95891e-23 0)
(2.35708e-07 -2.8702e-08 -1.36026e-23 -1.08324e-07 -1.95763e-23 0)
(1.81198e-07 4.81463e-08 6.8599e-24 -4.91237e-07 2.45477e-23 -4.08901e-39)
(1.33093e-07 -2.42844e-08 -3.24418e-22 -3.34238e-07 -4.6442e-22 0)
(1.1105e-07 -6.10011e-08 2.47303e-22 -2.40482e-07 2.43758e-22 0)
(1.2079e-07 -8.04995e-08 1.79542e-22 -1.86847e-07 1.29959e-22 0)
(1.37419e-07 -8.9513e-08 -4.57197e-23 -1.55743e-07 -5.95221e-23 0)
(1.61007e-07 -9.25798e-08 -4.89472e-22 -1.38198e-07 -1.80721e-22 0)
(1.84854e-07 -9.22061e-08 -8.0787e-24 -1.28743e-07 -6.83383e-26 0)
(2.09225e-07 -8.99888e-08 -8.26274e-23 -1.24071e-07 -5.02667e-23 0)
(2.31579e-07 -8.63387e-08 5.18343e-23 -1.22256e-07 -2.51874e-24 0)
(2.53202e-07 -8.3656e-08 1.28629e-22 -1.21541e-07 -1.05572e-23 0)
(1.61964e-07 6.87448e-08 -1.00502e-22 -4.42441e-07 -4.65222e-22 -2.82278e-37)
(1.42596e-07 -4.30675e-08 -2.47368e-22 -3.19929e-07 -2.17581e-22 0)
(1.35463e-07 -9.94172e-08 3.85084e-22 -2.44615e-07 1.00841e-22 0)
(1.52763e-07 -1.29105e-07 8.32177e-23 -2.0181e-07 9.36528e-23 0)
(1.72883e-07 -1.42621e-07 2.25487e-22 -1.76594e-07 1.05886e-22 0)
(1.97466e-07 -1.46972e-07 -2.1968e-22 -1.62139e-07 -1.09856e-22 0)
(2.20908e-07 -1.46059e-07 -3.56046e-22 -1.53998e-07 -1.02311e-22 0)
(2.44171e-07 -1.42302e-07 -1.21294e-22 -1.49657e-07 -2.74427e-23 0)
(2.64647e-07 -1.36421e-07 6.12482e-24 -1.47335e-07 -5.12478e-25 0)
(2.84998e-07 -1.32015e-07 1.74886e-22 -1.46139e-07 7.82022e-23 0)
(1.38309e-07 7.39082e-08 -3.61047e-22 -3.75248e-07 -5.12144e-24 1.66873e-36)
(1.58001e-07 -6.48653e-08 1.63534e-22 -3.00242e-07 -2.23996e-22 0)
(1.71006e-07 -1.34201e-07 -9.77048e-22 -2.5025e-07 -7.48807e-22 0)
(1.98414e-07 -1.70345e-07 -2.20746e-22 -2.22349e-07 1.44795e-23 0)
(2.23108e-07 -1.86357e-07 -1.34012e-23 -2.05224e-07 2.87882e-23 0)
(2.4887e-07 -1.91008e-07 2.89996e-22 -1.95022e-07 1.30492e-22 0)
(2.71615e-07 -1.89193e-07 -8.00479e-23 -1.88704e-07 -4.29665e-25 0)
(2.93213e-07 -1.83842e-07 2.42961e-22 -1.84817e-07 1.63493e-22 0)
(3.11041e-07 -1.76033e-07 -4.31315e-22 -1.81834e-07 -8.30299e-23 0)
(3.2952e-07 -1.70019e-07 3.88048e-22 -1.79956e-07 5.91526e-23 0)
(1.15752e-07 5.98671e-08 9.75653e-23 -2.96394e-07 -3.54641e-22 -7.31479e-38)
(1.80365e-07 -9.02732e-08 8.15077e-22 -2.77227e-07 7.51288e-22 0)
(2.16388e-07 -1.64236e-07 -7.7627e-22 -2.56964e-07 -5.2035e-22 0)
(2.55134e-07 -2.02129e-07 -3.6302e-22 -2.46604e-07 -1.96567e-22 0)
(2.84793e-07 -2.1812e-07 3.20181e-22 -2.38989e-07 1.35197e-22 0)
(3.1159e-07 -2.21849e-07 4.29476e-22 -2.33798e-07 1.76478e-22 0)
(3.33256e-07 -2.1869e-07 2.44198e-22 -2.29639e-07 1.58332e-22 0)
(3.52638e-07 -2.11707e-07 4.31232e-22 -2.26281e-07 1.31472e-22 0)
(3.67223e-07 -2.02346e-07 -9.55812e-23 -2.22571e-07 -1.055e-22 0)
(3.83245e-07 -1.94905e-07 -5.88601e-22 -2.19839e-07 -5.87484e-23 0)
(1.00643e-07 2.51067e-08 -9.53754e-24 -2.13663e-07 2.33746e-23 -1.55795e-40)
(2.10845e-07 -1.19249e-07 5.12378e-22 -2.53166e-07 2.56828e-22 0)
(2.6998e-07 -1.88655e-07 4.15851e-22 -2.64054e-07 3.74396e-22 0)
(3.19749e-07 -2.23132e-07 -2.0408e-22 -2.72161e-07 -1.36982e-22 0)
(3.53951e-07 -2.36354e-07 -3.74107e-22 -2.74543e-07 -1.65321e-22 0)
(3.81262e-07 -2.37842e-07 -2.36066e-22 -2.74641e-07 -9.42786e-23 0)
(4.01362e-07 -2.32866e-07 3.80833e-22 -2.72795e-07 1.94366e-22 0)
(4.17987e-07 -2.24239e-07 -4.56248e-22 -2.69991e-07 -2.44924e-22 0)
(4.28937e-07 -2.13721e-07 7.57858e-22 -2.65617e-07 2.30331e-22 0)
(4.41965e-07 -2.05089e-07 2.5862e-23 -2.61925e-07 -1.04761e-22 0)
(9.94533e-08 -2.94729e-08 4.46514e-22 -1.35264e-07 -8.18822e-22 -4.79385e-38)
(2.50549e-07 -1.51123e-07 -1.41348e-21 -2.30562e-07 -7.75084e-22 0)
(3.30003e-07 -2.06916e-07 4.82839e-22 -2.7092e-07 3.24389e-22 0)
(3.88885e-07 -2.32903e-07 -4.41632e-23 -2.96626e-07 1.25426e-22 0)
(4.26375e-07 -2.40675e-07 2.08285e-22 -3.08498e-07 9.97077e-23 0)
(4.53296e-07 -2.38671e-07 -8.67487e-23 -3.13656e-07 -3.22641e-23 0)
(4.71246e-07 -2.31452e-07 -5.31296e-22 -3.14042e-07 -2.2459e-22 0)
(4.84612e-07 -2.2124e-07 3.06515e-22 -3.11797e-07 1.35368e-22 0)
(4.91753e-07 -2.09964e-07 -2.78798e-22 -3.06891e-07 -1.22353e-22 0)
(5.01332e-07 -2.00397e-07 5.81243e-22 -3.02269e-07 1.45298e-22 0)
(1.17972e-07 -1.00596e-07 -1.66349e-22 -6.89311e-08 2.3922e-22 7.13723e-39)
(3.00248e-07 -1.84563e-07 -4.61071e-22 -2.11755e-07 -5.4014e-22 0)
(3.9451e-07 -2.18758e-07 -6.779e-22 -2.76954e-07 -6.48785e-22 0)
(4.59078e-07 -2.31797e-07 2.51775e-22 -3.17671e-07 1.23287e-22 0)
(4.97787e-07 -2.31787e-07 6.70989e-22 -3.3758e-07 3.27947e-22 0)
(5.2303e-07 -2.25238e-07 6.11196e-22 -3.47061e-07 2.98198e-22 0)
(5.38129e-07 -2.15445e-07 -9.52336e-23 -3.49423e-07 1.81502e-23 0)
(5.4774e-07 -2.03777e-07 3.50718e-22 -3.47649e-07 1.48753e-22 0)
(5.51136e-07 -1.92096e-07 -3.44921e-22 -3.42597e-07 -2.47611e-22 0)
(5.56841e-07 -1.81829e-07 1.22491e-22 -3.37076e-07 1.18537e-22 0)
(1.60648e-07 -1.82891e-07 4.7963e-22 -2.12223e-08 6.4586e-22 -1.72141e-36)
(3.60292e-07 -2.17673e-07 6.62749e-22 -1.98775e-07 8.47127e-22 0)
(4.61652e-07 -2.24195e-07 7.04851e-22 -2.81709e-07 1.97725e-22 0)
(5.27302e-07 -2.20945e-07 1.02257e-22 -3.33409e-07 -1.06241e-22 0)
(5.64569e-07 -2.11453e-07 2.13075e-23 -3.59074e-07 -3.14688e-23 0)
(5.86622e-07 -1.99696e-07 -1.54334e-23 -3.71742e-07 -4.42994e-24 0)
(5.98128e-07 -1.87185e-07 5.57649e-22 -3.75518e-07 2.94765e-22 0)
(6.03589e-07 -1.74442e-07 -7.44637e-22 -3.74231e-07 -4.82594e-22 0)
(6.03492e-07 -1.62714e-07 6.88156e-22 -3.69179e-07 2.8486e-22 0)
(6.05084e-07 -1.52107e-07 7.40656e-23 -3.63604e-07 3.92443e-23 0)
(2.29952e-07 -2.694e-07 7.18847e-22 3.15565e-09 -1.2011e-21 -1.96101e-36)
(4.3029e-07 -2.48154e-07 7.05253e-22 -1.93066e-07 3.47724e-22 0)
(5.29466e-07 -2.235e-07 9.43066e-22 -2.84838e-07 4.73816e-22 0)
(5.90708e-07 -2.02089e-07 4.53967e-22 -3.42403e-07 3.55658e-22 0)
(6.23329e-07 -1.82235e-07 -7.17055e-22 -3.70926e-07 -3.97924e-22 0)
(6.40353e-07 -1.64962e-07 -6.43443e-22 -3.85191e-07 -3.53046e-22 0)
(6.47221e-07 -1.49771e-07 1.6889e-23 -3.89642e-07 -1.00207e-23 0)
(6.47894e-07 -1.36231e-07 -3.38349e-22 -3.88285e-07 -1.93824e-22 0)
(6.44541e-07 -1.25056e-07 3.51802e-22 -3.8397e-07 3.23565e-22 0)
(6.40651e-07 -1.1448e-07 4.79112e-22 -3.76794e-07 1.09456e-22 0)
(2.56514e-07 -2.6517e-08 7.11418e-23 -1.10643e-07 -2.59587e-25 0)
(2.7483e-07 -2.37138e-08 1.32269e-22 -1.11331e-07 -3.9897e-23 0)
(2.91501e-07 -2.14813e-08 7.12644e-24 -1.1247e-07 -9.34801e-26 0)
(3.06729e-07 -1.94233e-08 -1.1297e-22 -1.13277e-07 -6.09842e-23 0)
(3.20336e-07 -1.759e-08 -4.5043e-22 -1.13601e-07 -2.08273e-23 0)
(3.32577e-07 -1.59664e-08 -6.85518e-23 -1.13398e-07 8.21826e-23 0)
(3.43447e-07 -1.45062e-08 3.98603e-22 -1.12508e-07 4.24722e-23 0)
(3.53059e-07 -1.32016e-08 -3.99895e-22 -1.10902e-07 -2.24031e-23 0)
(3.61456e-07 -1.20173e-08 3.54578e-23 -1.08479e-07 1.20071e-22 0)
(3.68686e-07 -1.09375e-08 2.1945e-22 -1.05186e-07 4.08071e-23 0)
(3.74768e-07 -9.9364e-09 3.7295e-23 -1.00931e-07 1.12991e-22 0)
(3.79719e-07 -8.99492e-09 4.34411e-22 -9.56274e-08 4.10887e-23 0)
(3.83489e-07 -8.0913e-09 3.98076e-22 -8.91614e-08 -7.79422e-23 0)
(3.86098e-07 -7.2039e-09 -4.32217e-22 -8.1403e-08 -3.79252e-23 0)
(3.87346e-07 -6.31155e-09 -6.41938e-22 -7.21874e-08 1.1115e-24 0)
(3.87379e-07 -5.38713e-09 3.3993e-22 -6.13252e-08 5.43204e-23 0)
(3.85563e-07 -4.4094e-09 -8.43313e-24 -4.85679e-08 -1.87257e-23 0)
(3.82665e-07 -3.33275e-09 2.36729e-22 -3.36517e-08 4.5689e-23 0)
(3.76566e-07 -2.16362e-09 1.98076e-22 -1.61559e-08 -1.93428e-24 0)
(3.7069e-07 -7.03988e-10 4.94221e-23 4.11454e-09 5.14105e-24 -5.45273e-38)
(2.72081e-07 -7.72905e-08 2.02233e-24 -1.22688e-07 2.22639e-24 0)
(2.87821e-07 -6.92564e-08 -1.90999e-22 -1.21693e-07 -2.12463e-23 0)
(3.02583e-07 -6.28302e-08 9.87392e-23 -1.21433e-07 2.20115e-23 0)
(3.16082e-07 -5.69091e-08 3.16658e-22 -1.21059e-07 1.08071e-22 0)
(3.28289e-07 -5.16113e-08 -1.85079e-22 -1.20351e-07 -6.97465e-25 0)
(3.39314e-07 -4.69161e-08 -2.71079e-22 -1.19289e-07 -8.81909e-23 0)
(3.49178e-07 -4.26787e-08 1.81798e-22 -1.17663e-07 8.71399e-23 0)
(3.57926e-07 -3.88869e-08 4.69356e-23 -1.15443e-07 4.2467e-23 0)
(3.65598e-07 -3.54355e-08 -4.20165e-22 -1.12505e-07 -1.31384e-22 0)
(3.7221e-07 -3.22825e-08 -2.50491e-22 -1.08783e-07 -4.60494e-23 0)
(3.77771e-07 -2.93529e-08 -5.56333e-24 -1.04178e-07 -1.56609e-25 0)
(3.82281e-07 -2.65921e-08 7.68284e-22 -9.85942e-08 6.43231e-23 0)
(3.85682e-07 -2.3937e-08 3.53823e-23 -9.19112e-08 3.51468e-23 0)
(3.87987e-07 -2.13245e-08 -1.79364e-22 -8.39957e-08 3.69787e-23 0)
(3.88989e-07 -1.86926e-08 -3.8981e-23 -7.46812e-08 -4.29691e-23 0)
(3.88831e-07 -1.59613e-08 -4.15677e-23 -6.37784e-08 -3.72473e-23 0)
(3.86881e-07 -1.30685e-08 -1.48495e-22 -5.1042e-08 3.33707e-23 0)
(3.83902e-07 -9.87856e-09 -1.07506e-22 -3.62126e-08 -9.79975e-24 0)
(3.77795e-07 -6.4127e-09 5.98408e-22 -1.88813e-08 8.18171e-23 0)
(3.71961e-07 -2.08644e-09 1.53917e-22 1.1372e-09 3.86943e-23 -5.08584e-37)
(3.0026e-07 -1.22194e-07 1.11352e-22 -1.45129e-07 -2.35935e-23 0)
(3.1133e-07 -1.10068e-07 2.41006e-22 -1.41059e-07 7.43646e-23 0)
(3.22607e-07 -1.00179e-07 -6.15896e-22 -1.38179e-07 -5.31182e-23 0)
(3.32971e-07 -9.1081e-08 6.65345e-23 -1.35628e-07 4.93177e-23 0)
(3.42642e-07 -8.28273e-08 3.38219e-22 -1.32995e-07 -1.91238e-23 0)
(3.51464e-07 -7.54979e-08 -5.20887e-22 -1.30337e-07 -3.20067e-23 0)
(3.59507e-07 -6.8829e-08 -2.77756e-22 -1.2734e-07 -5.10231e-23 0)
(3.66689e-07 -6.28401e-08 6.27119e-22 -1.23974e-07 4.05459e-23 0)
(3.73052e-07 -5.73608e-08 3.55323e-22 -1.20074e-07 -2.97298e-23 0)
(3.78547e-07 -5.23367e-08 -4.64503e-22 -1.15558e-07 -6.12003e-23 0)
(3.83169e-07 -4.7651e-08 -5.31843e-22 -1.10302e-07 -1.05307e-22 0)
(3.86887e-07 -4.32206e-08 2.11539e-22 -1.042e-07 1.28528e-23 0)
(3.89631e-07 -3.89467e-08 3.65547e-22 -9.71198e-08 5.96757e-23 0)
(3.91394e-07 -3.47288e-08 1.26806e-23 -8.89216e-08 -6.01511e-23 0)
(3.91968e-07 -3.04682e-08 2.37344e-23 -7.94366e-08 1.56574e-23 0)
(3.91483e-07 -2.60351e-08 -5.3034e-22 -6.8476e-08 -5.82302e-23 0)
(3.89318e-07 -2.13294e-08 -2.61705e-22 -5.58006e-08 -7.90053e-24 0)
(3.86221e-07 -1.61295e-08 -9.68393e-23 -4.11592e-08 -4.14431e-23 0)
(3.80141e-07 -1.04717e-08 2.05695e-22 -2.41647e-08 3.57377e-23 0)
(3.74414e-07 -3.41092e-09 1.8746e-22 -4.64314e-09 8.17642e-23 -8.1466e-37)
(3.3988e-07 -1.57868e-07 1.17639e-22 -1.76088e-07 3.8747e-23 0)
(3.44536e-07 -1.43457e-07 -1.0776e-22 -1.68075e-07 -1.52467e-24 0)
(3.51041e-07 -1.31236e-07 5.9698e-23 -1.61648e-07 -5.10589e-23 0)
(3.57026e-07 -1.20045e-07 -8.21086e-24 -1.56177e-07 -5.37887e-23 0)
(3.63169e-07 -1.09633e-07 4.21281e-23 -1.50916e-07 -2.42295e-23 0)
(3.68882e-07 -1.00358e-07 -1.49258e-22 -1.46061e-07 -2.97122e-23 0)
(3.74358e-07 -9.18049e-08 -1.87149e-22 -1.41167e-07 -5.57287e-23 0)
(3.79317e-07 -8.40793e-08 -8.78833e-23 -1.36203e-07 -5.0529e-23 0)
(3.83813e-07 -7.69543e-08 3.82574e-23 -1.30954e-07 2.44516e-23 0)
(3.87709e-07 -7.03826e-08 1.63865e-22 -1.25312e-07 9.51932e-23 0)
(3.90983e-07 -6.42178e-08 -2.85593e-22 -1.19132e-07 -6.07789e-23 0)
(3.9356e-07 -5.83582e-08 1.82487e-22 -1.12287e-07 5.27174e-23 0)
(3.95351e-07 -5.26782e-08 4.28394e-22 -1.04635e-07 4.15435e-23 0)
(3.9633e-07 -4.70468e-08 -1.73131e-22 -9.60277e-08 -5.00261e-23 0)
(3.9628e-07 -4.13349e-08 -3.96176e-22 -8.62937e-08 -3.80005e-23 0)
(3.95319e-07 -3.53677e-08 -2.47929e-22 -7.52473e-08 -4.7893e-23 0)
(3.92839e-07 -2.90119e-08 1.75826e-22 -6.26595e-08 -9.1342e-24 0)
(3.8957e-07 -2.19647e-08 2.1221e-22 -4.82921e-08 4.28171e-23 0)
(3.8353e-07 -1.42749e-08 5.76992e-23 -3.1791e-08 9.18915e-24 0)
(3.7796e-07 -4.66463e-09 -1.29224e-22 -1.29989e-08 -7.91218e-23 -4.12235e-37)
(3.87972e-07 -1.81788e-07 2.26346e-22 -2.12772e-07 -3.9453e-23 0)
(3.85155e-07 -1.67334e-07 1.07288e-22 -2.00615e-07 -1.41695e-22 0)
(3.86099e-07 -1.54204e-07 -2.43288e-22 -1.90098e-07 4.23284e-23 0)
(3.8683e-07 -1.42287e-07 -1.10349e-22 -1.81273e-07 -4.4429e-24 0)
(3.88745e-07 -1.3074e-07 3.83819e-22 -1.7292e-07 4.59593e-23 0)
(3.90665e-07 -1.20387e-07 -2.16381e-22 -1.65435e-07 6.90752e-23 0)
(3.92997e-07 -1.10652e-07 -2.3667e-22 -1.58257e-07 -6.40867e-23 0)
(3.95209e-07 -1.01768e-07 1.95539e-22 -1.51343e-07 -3.72215e-23 0)
(3.9739e-07 -9.34812e-08 -9.45856e-23 -1.44444e-07 4.0284e-23 0)
(3.99293e-07 -8.57678e-08 -5.55889e-24 -1.37419e-07 4.42177e-23 0)
(4.00879e-07 -7.84736e-08 -2.11878e-22 -1.30102e-07 -1.95442e-23 0)
(4.0202e-07 -7.14891e-08 -2.45069e-22 -1.22343e-07 -1.22374e-22 0)
(4.02611e-07 -6.46747e-08 7.4149e-22 -1.13988e-07 9.00063e-23 0)
(4.02595e-07 -5.78769e-08 8.81499e-23 -1.04879e-07 4.32415e-23 0)
(4.01751e-07 -5.09439e-08 -1.46586e-22 -9.48444e-08 -3.66451e-23 0)
(4.00182e-07 -4.36631e-08 1.11886e-22 -8.37036e-08 2.08457e-23 0)
(3.97299e-07 -3.58735e-08 -4.87344e-22 -7.12423e-08 -1.19075e-22 0)
(3.93804e-07 -2.71992e-08 2.02325e-22 -5.7241e-08 6.17068e-23 0)
(3.87816e-07 -1.76992e-08 -9.32323e-23 -4.13893e-08 -2.60853e-23 0)
(3.82442e-07 -5.80616e-09 4.35112e-23 -2.35552e-08 1.41589e-23 6.64327e-41)
(4.40921e-07 -1.92393e-07 -1.05425e-22 -2.51745e-07 -1.35767e-22 0)
(4.30381e-07 -1.80297e-07 -1.63879e-22 -2.36075e-07 1.04286e-22 0)
(4.25592e-07 -1.67782e-07 -1.64503e-22 -2.21534e-07 5.03303e-23 0)
(4.20662e-07 -1.56643e-07 -1.23907e-22 -2.0938e-07 -1.32442e-22 0)
(4.1802e-07 -1.45138e-07 2.71519e-22 -1.9788e-07 1.98498e-22 0)
(4.15753e-07 -1.347e-07 2.81978e-22 -1.87619e-07 5.08758e-23 0)
(4.14581e-07 -1.24618e-07 4.43554e-22 -1.78004e-07 3.2849e-23 0)
(4.13701e-07 -1.15265e-07 -5.60462e-22 -1.68954e-07 -9.89528e-23 0)
(4.13242e-07 -1.06405e-07 -3.70246e-22 -1.60222e-07 -7.82415e-24 0)
(4.12859e-07 -9.80438e-08 -4.05446e-23 -1.51632e-07 -9.79888e-23 0)
(4.12488e-07 -9.00452e-08 5.31154e-22 -1.43007e-07 5.94481e-23 0)
(4.11959e-07 -8.23021e-08 -1.01468e-22 -1.3418e-07 -9.30099e-23 0)
(4.1114e-07 -7.46764e-08 -3.14667e-22 -1.2499e-07 -4.52663e-23 0)
(4.09954e-07 -6.70025e-08 1.46284e-22 -1.15274e-07 7.11701e-23 0)
(4.08169e-07 -5.91163e-08 -2.07852e-22 -1.04867e-07 -3.911e-23 0)
(4.05873e-07 -5.07758e-08 -1.10953e-22 -9.35961e-08 -2.42095e-23 0)
(4.02508e-07 -4.18003e-08 -4.40165e-23 -8.12685e-08 -1.79224e-23 0)
(3.98742e-07 -3.175e-08 2.2739e-22 -6.76914e-08 6.00931e-23 0)
(3.9282e-07 -2.06932e-08 2.7677e-22 -5.26133e-08 9.12996e-23 0)
(3.87689e-07 -6.81971e-09 -2.17955e-22 -3.59402e-08 -1.47881e-22 -6.65815e-37)
(4.94968e-07 -1.89445e-07 -4.61646e-23 -2.89387e-07 4.30562e-23 0)
(4.7724e-07 -1.82085e-07 9.36539e-23 -2.71379e-07 5.2159e-23 0)
(4.67142e-07 -1.71718e-07 4.7994e-22 -2.53385e-07 6.06642e-23 0)
(4.56604e-07 -1.62778e-07 -7.63238e-22 -2.3815e-07 -1.53393e-22 0)
(4.49409e-07 -1.52535e-07 -5.29094e-23 -2.23723e-07 5.90426e-23 0)
(4.42864e-07 -1.42957e-07 5.12919e-23 -2.10708e-07 -5.60854e-23 0)
(4.38033e-07 -1.33364e-07 5.42493e-22 -1.98664e-07 1.72425e-22 0)
(4.3391e-07 -1.24206e-07 2.16954e-22 -1.87441e-07 2.2528e-23 0)
(4.30636e-07 -1.15349e-07 -2.98583e-22 -1.76836e-07 -1.38484e-22 0)
(4.27807e-07 -1.06824e-07 -1.31171e-22 -1.66639e-07 -6.54326e-23 0)
(4.25321e-07 -9.85466e-08 -2.12237e-22 -1.56672e-07 -2.78852e-23 0)
(4.22975e-07 -9.04214e-08 5.62008e-23 -1.46752e-07 2.91028e-23 0)
(4.20612e-07 -8.23249e-08 1.83196e-22 -1.36713e-07 8.62632e-23 0)
(4.18132e-07 -7.40888e-08 0 -1.26391e-07 0 0)
(4.15302e-07 -6.55451e-08 3.88325e-23 -1.15627e-07 -3.18972e-23 0)
(4.12193e-07 -5.64314e-08 2.12294e-22 -1.04261e-07 5.20906e-23 0)
(4.08284e-07 -4.65542e-08 -1.02956e-22 -9.21313e-08 -1.57817e-23 0)
(4.04205e-07 -3.54244e-08 -3.81723e-22 -7.90768e-08 -1.34817e-22 0)
(3.98356e-07 -2.31191e-08 3.23683e-22 -6.49136e-08 1.17014e-22 0)
(3.93484e-07 -7.65291e-09 -9.84309e-23 -4.95931e-08 -8.72466e-23 -1.93153e-37)
(5.4612e-07 -1.73343e-07 4.60277e-22 -3.22527e-07 5.73859e-23 0)
(5.22556e-07 -1.72572e-07 -3.66062e-22 -3.04038e-07 -7.98273e-23 0)
(5.08269e-07 -1.65837e-07 3.3104e-22 -2.84273e-07 1.58727e-22 0)
(4.92812e-07 -1.60266e-07 1.08638e-22 -2.6677e-07 4.92198e-23 0)
(4.81435e-07 -1.52593e-07 -8.46386e-22 -2.50206e-07 -3.13398e-22 0)
(4.70916e-07 -1.44861e-07 1.97703e-22 -2.34874e-07 8.88912e-23 0)
(4.62497e-07 -1.36703e-07 2.2277e-22 -2.20679e-07 2.83295e-23 0)
(4.55169e-07 -1.28514e-07 7.97414e-22 -2.0741e-07 2.18627e-22 0)
(4.49025e-07 -1.2033e-07 -2.08285e-22 -1.94946e-07 -2.77524e-23 0)
(4.43674e-07 -1.12202e-07 -5.81966e-23 -1.83089e-07 4.44358e-23 0)
(4.38972e-07 -1.04118e-07 5.6515e-23 -1.71681e-07 -3.9997e-23 0)
(4.34708e-07 -9.60125e-08 -5.58156e-23 -1.60549e-07 3.50158e-23 0)
(4.30699e-07 -8.77929e-08 6.47653e-23 -1.49536e-07 9.03824e-23 0)
(4.26833e-07 -7.9304e-08 7.4616e-22 -1.3849e-07 1.88181e-22 0)
(4.22876e-07 -7.03864e-08 -3.17713e-22 -1.27267e-07 -1.01975e-22 0)
(4.18885e-07 -6.07699e-08 -6.10685e-22 -1.1573e-07 -1.6392e-22 0)
(4.14385e-07 -5.02578e-08 5.00816e-22 -1.03751e-07 1.67432e-22 0)
(4.09964e-07 -3.83225e-08 9.75713e-23 -9.12113e-08 3.01462e-23 0)
(4.04203e-07 -2.50514e-08 -2.87765e-22 -7.80102e-08 -1.144e-22 0)
(3.99639e-07 -8.33003e-09 8.59663e-23 -6.41655e-08 5.18096e-23 -1.01729e-39)
(5.91634e-07 -1.47085e-07 -4.24409e-22 -3.48113e-07 -1.6751e-22 0)
(5.63743e-07 -1.53827e-07 -1.50217e-22 -3.29804e-07 3.08362e-23 0)
(5.46471e-07 -1.52314e-07 1.3511e-22 -3.10112e-07 -3.4003e-23 0)
(5.27266e-07 -1.50518e-07 4.8309e-22 -2.91027e-07 9.49384e-23 0)
(5.12175e-07 -1.46279e-07 -3.38841e-22 -2.73018e-07 -6.33769e-23 0)
(4.98268e-07 -1.40909e-07 -2.53284e-22 -2.55899e-07 2.48722e-23 0)
(4.86557e-07 -1.347e-07 0 -2.39976e-07 0 0)
(4.76304e-07 -1.27942e-07 3.99154e-22 -2.25069e-07 1.22838e-22 0)
(4.67465e-07 -1.20865e-07 5.8153e-22 -2.11104e-07 2.0559e-22 0)
(4.5972e-07 -1.13557e-07 2.11881e-22 -1.97916e-07 3.37241e-23 0)
(4.52877e-07 -1.06068e-07 -3.70624e-22 -1.85354e-07 -1.13497e-22 0)
(4.4673e-07 -9.83658e-08 -6.31244e-22 -1.73261e-07 -1.15951e-22 0)
(4.41083e-07 -9.03855e-08 -3.10415e-22 -1.61492e-07 -1.45188e-22 0)
(4.35817e-07 -8.19893e-08 5.96644e-22 -1.49909e-07 1.34156e-22 0)
(4.3071e-07 -7.30294e-08 6.6208e-22 -1.38393e-07 2.25762e-22 0)
(4.25807e-07 -6.32372e-08 -3.14955e-22 -1.26836e-07 -1.12349e-22 0)
(4.20694e-07 -5.24196e-08 -1.1523e-22 -1.15157e-07 -5.17459e-23 0)
(4.1591e-07 -4.00313e-08 4.11097e-22 -1.03287e-07 1.66556e-22 0)
(4.10242e-07 -2.61751e-08 -3.76504e-22 -9.12073e-08 -1.66319e-22 0)
(4.05948e-07 -8.72714e-09 7.73589e-25 -7.89829e-08 5.32489e-25 -6.65961e-44)
(6.26841e-07 -1.11094e-07 3.43356e-22 -3.66629e-07 9.22798e-23 0)
(5.99303e-07 -1.22943e-07 -2.59718e-22 -3.4999e-07 -5.21658e-23 0)
(5.80022e-07 -1.28934e-07 9.18282e-24 -3.33535e-07 -6.52608e-23 0)
(5.592e-07 -1.31991e-07 -1.30798e-22 -3.15005e-07 2.51845e-23 0)
(5.4096e-07 -1.3273e-07 -2.40611e-22 -2.9676e-07 1.80921e-24 0)
(5.24231e-07 -1.31215e-07 -2.1083e-22 -2.78719e-07 -1.24926e-22 0)
(5.09452e-07 -1.28152e-07 -1.75696e-22 -2.61396e-07 -1.93951e-22 0)
(4.96393e-07 -1.23835e-07 -1.24554e-23 -2.44919e-07 9.53388e-24 0)
(4.84934e-07 -1.18617e-07 1.33655e-23 -2.29334e-07 -7.37018e-24 0)
(4.74849e-07 -1.12704e-07 4.17649e-22 -2.14603e-07 7.33763e-23 0)
(4.65927e-07 -1.06238e-07 5.28195e-22 -2.00635e-07 2.18416e-22 0)
(4.57964e-07 -9.92655e-08 -3.33038e-22 -1.87318e-07 -1.64602e-22 0)
(4.5075e-07 -9.17793e-08 -5.25833e-22 -1.74537e-07 -1.97646e-22 0)
(4.44156e-07 -8.36852e-08 -3.44534e-22 -1.62176e-07 -1.2023e-22 0)
(4.37966e-07 -7.4863e-08 1.4069e-22 -1.50146e-07 6.85979e-23 0)
(4.32214e-07 -6.50627e-08 6.60374e-24 -1.3837e-07 7.30682e-25 0)
(4.26553e-07 -5.41017e-08 -1.87544e-22 -1.2682e-07 -6.52974e-23 0)
(4.21477e-07 -4.14311e-08 3.6191e-24 -1.1548e-07 8.99163e-25 0)
(4.16e-07 -2.71562e-08 1.82112e-22 -1.04423e-07 8.44418e-23 0)
(4.1214e-07 -9.09843e-09 -4.90013e-23 -9.37811e-08 -3.80045e-23 -5.84762e-40)
(6.46684e-07 -8.12913e-08 1.24736e-22 -3.70482e-07 7.24065e-23 0)
(6.21287e-07 -9.12875e-08 2.48372e-22 -3.53594e-07 1.70012e-22 0)
(6.00387e-07 -1.02994e-07 2.5778e-22 -3.39643e-07 7.55378e-23 0)
(5.79871e-07 -1.09487e-07 6.96047e-23 -3.23337e-07 1.13696e-23 0)
(5.60785e-07 -1.13686e-07 9.15653e-23 -3.06289e-07 1.22197e-22 0)
(5.43145e-07 -1.15397e-07 2.34915e-23 -2.89108e-07 -8.00668e-23 0)
(5.27126e-07 -1.15196e-07 -4.79855e-22 -2.72168e-07 -1.7804e-22 0)
(5.12655e-07 -1.13405e-07 -1.71478e-22 -2.55761e-07 -3.83034e-23 0)
(4.99681e-07 -1.10339e-07 1.70676e-22 -2.40012e-07 3.70593e-23 0)
(4.88056e-07 -1.06233e-07 -2.0955e-22 -2.24978e-07 -4.22711e-23 0)
(4.77632e-07 -1.01249e-07 5.34077e-22 -2.10646e-07 2.3413e-22 0)
(4.68251e-07 -9.54768e-08 3.27455e-22 -1.96973e-07 1.28993e-22 0)
(4.59746e-07 -8.89424e-08 -4.80363e-23 -1.83901e-07 3.67451e-23 0)
(4.52012e-07 -8.15917e-08 1.20677e-22 -1.7137e-07 7.35788e-23 0)
(4.44875e-07 -7.33365e-08 1.9101e-22 -1.5934e-07 5.52828e-23 0)
(4.38372e-07 -6.39668e-08 -1.34014e-23 -1.47786e-07 -3.63038e-24 0)
(4.32235e-07 -5.3328e-08 1.14022e-22 -1.3674e-07 5.87099e-23 0)
(4.26902e-07 -4.09149e-08 6.05588e-23 -1.2625e-07 1.86478e-23 0)
(4.21605e-07 -2.68602e-08 -1.82456e-22 -1.16489e-07 -8.77681e-23 0)
(4.18043e-07 -9.02317e-09 -8.97472e-23 -1.07613e-07 -9.95483e-23 -1.54125e-37)
(6.39448e-07 -5.74484e-08 -8.53647e-22 -3.56585e-07 -2.76606e-22 0)
(6.22578e-07 -6.85032e-08 -4.19485e-22 -3.47987e-07 -2.42763e-22 0)
(6.03934e-07 -8.11181e-08 3.67128e-22 -3.35877e-07 1.94297e-23 0)
(5.8577e-07 -8.9722e-08 -2.03377e-22 -3.22018e-07 1.30981e-22 0)
(5.68117e-07 -9.58681e-08 -3.91385e-22 -3.0681e-07 -1.96868e-22 0)
(5.51391e-07 -9.96023e-08 4.73486e-22 -2.91109e-07 1.18237e-22 0)
(5.35793e-07 -1.01334e-07 -4.37997e-36 -2.75304e-07 -1.76758e-36 0)
(5.21376e-07 -1.01358e-07 -5.00637e-22 -2.59736e-07 -2.74391e-22 0)
(5.08171e-07 -9.995e-08 -9.45014e-37 -2.44591e-07 -7.35115e-37 0)
(4.96116e-07 -9.7324e-08 -1.32167e-22 -2.29987e-07 -9.87462e-23 0)
(4.85136e-07 -9.3638e-08 -1.29277e-22 -2.15975e-07 -9.27301e-23 0)
(4.75134e-07 -8.89855e-08 2.04002e-22 -2.02571e-07 5.01778e-23 0)
(4.66001e-07 -8.34074e-08 -2.0008e-22 -1.89774e-07 -5.25001e-23 0)
(4.57671e-07 -7.68735e-08 -5.83342e-36 -1.77577e-07 -1.80136e-36 0)
(4.50025e-07 -6.93224e-08 1.93221e-22 -1.65991e-07 6.02708e-23 0)