/*--------------------------------*- C++ -*----------------------------------*\
| =========                 |                                                 |
| \\      /  F ield         | foam-extend: Open Source CFD                    |
|  \\    /   O peration     | Version:     4.1                                |
|   \\  /    A nd           | Web:         http://www.foam-extend.org         |
|    \\/     M anipulation  |                                                 |
\*---------------------------------------------------------------------------*/
FoamFile
{
    version     2.0;
    format      ascii;
    class       pointVectorField;
    location    "1";
    object      pointD;
}
// * * * * * * * * * * * * * * * * * * * * * * * * * * * * * * * * * * * * * //

dimensions      [0 1 0 0 0 0 0];

internalField   nonuniform List<vector> 
2142
(
(5.81385e-07 -2.41457e-07 -3.19126e-23)
(5.41872e-07 -2.14114e-07 0)
(5.17667e-07 -1.98681e-07 0)
(5.02714e-07 -1.89562e-07 0)
(4.94538e-07 -1.85093e-07 0)
(4.91156e-07 -1.83627e-07 0)
(4.91308e-07 -1.8429e-07 0)
(4.94099e-07 -1.86412e-07 0)
(4.98886e-07 -1.89559e-07 0)
(5.05209e-07 -1.93429e-07 0)
(5.1292e-07 -1.97961e-07 0)
(5.33463e-07 -2.60063e-07 -1.39538e-23)
(4.90583e-07 -2.38412e-07 0)
(4.64277e-07 -2.26597e-07 0)
(4.47947e-07 -2.19828e-07 0)
(4.38791e-07 -2.16939e-07 0)
(4.34659e-07 -2.16548e-07 0)
(4.34172e-07 -2.17979e-07 0)
(4.36379e-07 -2.20658e-07 0)
(4.40576e-07 -2.24247e-07 0)
(4.46308e-07 -2.28437e-07 0)
(4.53117e-07 -2.33197e-07 0)
(4.8237e-07 -2.77126e-07 2.18713e-23)
(4.37747e-07 -2.62125e-07 0)
(4.10344e-07 -2.54517e-07 0)
(3.93275e-07 -2.50471e-07 0)
(3.83535e-07 -2.49397e-07 0)
(3.78887e-07 -2.50228e-07 0)
(3.77886e-07 -2.52518e-07 0)
(3.79549e-07 -2.55812e-07 0)
(3.8315e-07 -2.59881e-07 0)
(3.8819e-07 -2.6442e-07 0)
(3.94229e-07 -2.69558e-07 0)
(4.28429e-07 -2.92522e-07 5.04256e-23)
(3.83851e-07 -2.84751e-07 0)
(3.56457e-07 -2.81699e-07 0)
(3.39351e-07 -2.80598e-07 0)
(3.29468e-07 -2.81472e-07 0)
(3.24569e-07 -2.83603e-07 0)
(3.23206e-07 -2.86789e-07 0)
(3.24402e-07 -2.90714e-07 0)
(3.27443e-07 -2.95256e-07 0)
(3.31824e-07 -3.00159e-07 0)
(3.37177e-07 -3.05606e-07 0)
(3.71971e-07 -3.06134e-07 1.71336e-24)
(3.29299e-07 -3.05761e-07 0)
(3.03065e-07 -3.07361e-07 0)
(2.86653e-07 -3.09263e-07 0)
(2.77084e-07 -3.12117e-07 0)
(2.72214e-07 -3.1556e-07 0)
(2.70654e-07 -3.19643e-07 0)
(2.7147e-07 -3.24194e-07 0)
(2.73995e-07 -3.29194e-07 0)
(2.77736e-07 -3.34456e-07 0)
(2.82404e-07 -3.40191e-07 0)
(3.13339e-07 -3.17854e-07 -3.10412e-23)
(2.74408e-07 -3.2463e-07 0)
(2.50466e-07 -3.30716e-07 0)
(2.35469e-07 -3.35512e-07 0)
(2.26666e-07 -3.40268e-07 0)
(2.22101e-07 -3.44969e-07 0)
(2.20505e-07 -3.49906e-07 0)
(2.2103e-07 -3.55049e-07 0)
(2.23075e-07 -3.6048e-07 0)
(2.26186e-07 -3.66087e-07 0)
(2.30145e-07 -3.72084e-07 0)
(2.52884e-07 -3.27584e-07 3.91987e-24)
(2.19404e-07 -3.40855e-07 0)
(1.98811e-07 -3.51014e-07 0)
(1.85898e-07 -3.58436e-07 0)
(1.78282e-07 -3.64914e-07 0)
(1.74279e-07 -3.70752e-07 0)
(1.72798e-07 -3.76457e-07 0)
(1.73111e-07 -3.82134e-07 0)
(1.74709e-07 -3.87951e-07 0)
(1.77194e-07 -3.93871e-07 0)
(1.80412e-07 -4.001e-07 0)
(1.90962e-07 -3.3524e-07 4.28536e-24)
(1.6443e-07 -3.53988e-07 0)
(1.48106e-07 -3.67576e-07 0)
(1.37863e-07 -3.77209e-07 0)
(1.318e-07 -3.85136e-07 0)
(1.28583e-07 -3.91929e-07 0)
(1.27348e-07 -3.9828e-07 0)
(1.27518e-07 -4.04406e-07 0)
(1.28693e-07 -4.10546e-07 0)
(1.30555e-07 -4.16733e-07 0)
(1.33e-07 -4.23155e-07 0)
(1.27936e-07 -3.40753e-07 1.15199e-23)
(1.0955e-07 -3.6365e-07 0)
(9.82335e-08 -3.79835e-07 0)
(9.11279e-08 -3.91142e-07 0)
(8.69112e-08 -4.00166e-07 0)
(8.46596e-08 -4.07682e-07 0)
(8.37737e-08 -4.14522e-07 0)
(8.38538e-08 -4.20987e-07 0)
(8.46258e-08 -4.27372e-07 0)
(8.58657e-08 -4.33765e-07 0)
(8.75114e-08 -4.40333e-07 0)
(6.41762e-08 -3.44072e-07 1.76643e-23)
(5.47709e-08 -3.69555e-07 0)
(4.89761e-08 -3.87362e-07 0)
(4.53346e-08 -3.99714e-07 0)
(4.31693e-08 -4.09423e-07 0)
(4.20078e-08 -4.17391e-07 0)
(4.15434e-08 -4.24535e-07 0)
(4.15716e-08 -4.31214e-07 0)
(4.19527e-08 -4.37752e-07 0)
(4.25711e-08 -4.44275e-07 0)
(4.33981e-08 -4.50935e-07 0)
(0 -3.45149e-07 1.23873e-23)
(0 -3.71532e-07 -5.02503e-26)
(0 -3.89913e-07 0)
(0 -4.02607e-07 0)
(0 -4.12557e-07 0)
(0 -4.20674e-07 0)
(0 -4.27924e-07 0)
(0 -4.34674e-07 0)
(0 -4.41265e-07 0)
(0 -4.47832e-07 0)
(0 -4.54522e-07 0)
(5.81385e-07 -2.41457e-07 -3.19126e-23)
(5.41872e-07 -2.14114e-07 0)
(5.17667e-07 -1.98681e-07 0)
(5.02714e-07 -1.89562e-07 0)
(4.94538e-07 -1.85093e-07 0)
(4.91156e-07 -1.83627e-07 0)
(4.91308e-07 -1.8429e-07 0)
(4.94099e-07 -1.86412e-07 0)
(4.98886e-07 -1.89559e-07 0)
(5.05209e-07 -1.93429e-07 0)
(5.1292e-07 -1.97961e-07 0)
(5.33463e-07 -2.60063e-07 -1.39538e-23)
(4.90583e-07 -2.38412e-07 0)
(4.64277e-07 -2.26597e-07 0)
(4.47947e-07 -2.19828e-07 0)
(4.38791e-07 -2.16939e-07 0)
(4.34659e-07 -2.16548e-07 0)
(4.34172e-07 -2.17979e-07 0)
(4.36379e-07 -2.20658e-07 0)
(4.40576e-07 -2.24247e-07 0)
(4.46308e-07 -2.28437e-07 0)
(4.53117e-07 -2.33197e-07 0)
(4.8237e-07 -2.77126e-07 2.18713e-23)
(4.37747e-07 -2.62125e-07 0)
(4.10344e-07 -2.54517e-07 0)
(3.93275e-07 -2.50471e-07 0)
(3.83535e-07 -2.49397e-07 0)
(3.78887e-07 -2.50228e-07 0)
(3.77886e-07 -2.52518e-07 0)
(3.79549e-07 -2.55812e-07 0)
(3.8315e-07 -2.59881e-07 0)
(3.8819e-07 -2.6442e-07 0)
(3.94229e-07 -2.69558e-07 0)
(4.28429e-07 -2.92522e-07 5.04256e-23)
(3.83851e-07 -2.84751e-07 0)
(3.56457e-07 -2.81699e-07 0)
(3.39351e-07 -2.80598e-07 0)
(3.29468e-07 -2.81472e-07 0)
(3.24569e-07 -2.83603e-07 0)
(3.23206e-07 -2.86789e-07 0)
(3.24402e-07 -2.90714e-07 0)
(3.27443e-07 -2.95256e-07 0)
(3.31824e-07 -3.00159e-07 0)
(3.37177e-07 -3.05606e-07 0)
(3.71971e-07 -3.06134e-07 1.71336e-24)
(3.29299e-07 -3.05761e-07 0)
(3.03065e-07 -3.07361e-07 0)
(2.86653e-07 -3.09263e-07 0)
(2.77084e-07 -3.12117e-07 0)
(2.72214e-07 -3.1556e-07 0)
(2.70654e-07 -3.19643e-07 0)
(2.7147e-07 -3.24194e-07 0)
(2.73995e-07 -3.29194e-07 0)
(2.77736e-07 -3.34456e-07 0)
(2.82404e-07 -3.40191e-07 0)
(3.13339e-07 -3.17854e-07 -3.10412e-23)
(2.74408e-07 -3.2463e-07 0)
(2.50466e-07 -3.30716e-07 0)
(2.35469e-07 -3.35512e-07 0)
(2.26666e-07 -3.40268e-07 0)
(2.22101e-07 -3.44969e-07 0)
(2.20505e-07 -3.49906e-07 0)
(2.2103e-07 -3.55049e-07 0)
(2.23075e-07 -3.6048e-07 0)
(2.26186e-07 -3.66087e-07 0)
(2.30145e-07 -3.72084e-07 0)
(2.52884e-07 -3.27584e-07 3.91987e-24)
(2.19404e-07 -3.40855e-07 0)
(1.98811e-07 -3.51014e-07 0)
(1.85898e-07 -3.58436e-07 0)
(1.78282e-07 -3.64914e-07 0)
(1.74279e-07 -3.70752e-07 0)
(1.72798e-07 -3.76457e-07 0)
(1.73111e-07 -3.82134e-07 0)
(1.74709e-07 -3.87951e-07 0)
(1.77194e-07 -3.93871e-07 0)
(1.80412e-07 -4.001e-07 0)
(1.90962e-07 -3.3524e-07 4.28536e-24)
(1.6443e-07 -3.53988e-07 0)
(1.48106e-07 -3.67576e-07 0)
(1.37863e-07 -3.77209e-07 0)
(1.318e-07 -3.85136e-07 0)
(1.28583e-07 -3.91929e-07 0)
(1.27348e-07 -3.9828e-07 0)
(1.27518e-07 -4.04406e-07 0)
(1.28693e-07 -4.10546e-07 0)
(1.30555e-07 -4.16733e-07 0)
(1.33e-07 -4.23155e-07 0)
(1.27936e-07 -3.40753e-07 1.15199e-23)
(1.0955e-07 -3.6365e-07 0)
(9.82335e-08 -3.79835e-07 0)
(9.11279e-08 -3.91142e-07 0)
(8.69112e-08 -4.00166e-07 0)
(8.46596e-08 -4.07682e-07 0)
(8.37737e-08 -4.14522e-07 0)
(8.38538e-08 -4.20987e-07 0)
(8.46258e-08 -4.27372e-07 0)
(8.58657e-08 -4.33765e-07 0)
(8.75114e-08 -4.40333e-07 0)
(6.41762e-08 -3.44072e-07 1.76643e-23)
(5.47709e-08 -3.69555e-07 0)
(4.89761e-08 -3.87362e-07 0)
(4.53346e-08 -3.99714e-07 0)
(4.31693e-08 -4.09423e-07 0)
(4.20078e-08 -4.17391e-07 0)
(4.15434e-08 -4.24535e-07 0)
(4.15716e-08 -4.31214e-07 0)
(4.19527e-08 -4.37752e-07 0)
(4.25711e-08 -4.44275e-07 0)
(4.33981e-08 -4.50935e-07 0)
(0 -3.45149e-07 1.23873e-23)
(0 -3.71532e-07 -5.02503e-26)
(0 -3.89913e-07 0)
(0 -4.02607e-07 0)
(0 -4.12557e-07 0)
(0 -4.20674e-07 0)
(0 -4.27924e-07 0)
(0 -4.34674e-07 0)
(0 -4.41265e-07 0)
(0 -4.47832e-07 0)
(0 -4.54522e-07 0)
(8.27705e-07 0 -1.01007e-23)
(8.37025e-07 0 4.09745e-26)
(8.4314e-07 0 0)
(8.47755e-07 0 0)
(8.52672e-07 0 0)
(8.58345e-07 0 0)
(8.6519e-07 0 0)
(8.73255e-07 0 0)
(8.82585e-07 0 0)
(8.93095e-07 0 0)
(9.04765e-07 0 0)
(8.25113e-07 -2.65598e-08 -4.53368e-24)
(8.33586e-07 -1.84506e-08 0)
(8.39164e-07 -1.36097e-08 0)
(8.4345e-07 -1.06142e-08 0)
(8.48141e-07 -8.87021e-09 0)
(8.53666e-07 -7.93681e-09 0)
(8.60402e-07 -7.54716e-09 0)
(8.68386e-07 -7.51899e-09 0)
(8.77648e-07 -7.73654e-09 0)
(8.88093e-07 -8.08985e-09 0)
(8.99711e-07 -8.59535e-09 0)
(8.17291e-07 -5.2965e-08 -8.8266e-24)
(8.23308e-07 -3.71561e-08 0)
(8.27359e-07 -2.77442e-08 0)
(8.30663e-07 -2.19287e-08 0)
(8.34704e-07 -1.85521e-08 0)
(8.39788e-07 -1.67545e-08 0)
(8.46209e-07 -1.60163e-08 0)
(8.53951e-07 -1.59827e-08 0)
(8.63015e-07 -1.64272e-08 0)
(8.73269e-07 -1.71376e-08 0)
(8.8473e-07 -1.81409e-08 0)
(8.04284e-07 -7.90842e-08 -2.64459e-23)
(8.06379e-07 -5.64042e-08 0)
(8.08003e-07 -4.29279e-08 0)
(8.09742e-07 -3.46119e-08 0)
(8.12748e-07 -2.98014e-08 0)
(8.17129e-07 -2.726e-08 0)
(8.23046e-07 -2.62424e-08 0)
(8.30402e-07 -2.62396e-08 0)
(8.39149e-07 -2.69244e-08 0)
(8.49099e-07 -2.79957e-08 0)
(8.60309e-07 -2.94792e-08 0)
(7.86204e-07 -1.04758e-07 -1.86687e-23)
(7.83148e-07 -7.64042e-08 0)
(7.81581e-07 -5.95887e-08 0)
(7.81264e-07 -4.92285e-08 0)
(7.82911e-07 -4.32673e-08 0)
(7.86366e-07 -4.01537e-08 0)
(7.9162e-07 -3.89558e-08 0)
(7.98467e-07 -3.9036e-08 0)
(8.06795e-07 -3.99804e-08 0)
(8.16346e-07 -4.14183e-08 0)
(8.27224e-07 -4.33594e-08 0)
(7.63194e-07 -1.29842e-07 -1.4707e-24)
(7.54069e-07 -9.73013e-08 0)
(7.48743e-07 -7.80515e-08 0)
(7.46002e-07 -6.62168e-08 0)
(7.46043e-07 -5.94589e-08 0)
(7.48403e-07 -5.59877e-08 0)
(7.52869e-07 -5.47337e-08 0)
(7.5911e-07 -5.49628e-08 0)
(7.66937e-07 -5.6192e-08 0)
(7.76014e-07 -5.80036e-08 0)
(7.86491e-07 -6.03734e-08 0)
(7.3543e-07 -1.54193e-07 -4.59921e-25)
(7.1969e-07 -1.19157e-07 0)
(7.10263e-07 -9.85056e-08 0)
(7.04876e-07 -8.58473e-08 0)
(7.03159e-07 -7.86975e-08 0)
(7.04317e-07 -7.51145e-08 0)
(7.07911e-07 -7.39478e-08 0)
(7.13479e-07 -7.44022e-08 0)
(7.20744e-07 -7.5948e-08 0)
(7.29295e-07 -7.81428e-08 0)
(7.39316e-07 -8.09135e-08 0)
(7.03121e-07 -1.77669e-07 -7.8101e-25)
(6.80625e-07 -1.41941e-07 0)
(6.67004e-07 -1.20992e-07 0)
(6.5891e-07 -1.08206e-07 0)
(6.55387e-07 -1.01098e-07 0)
(6.55301e-07 -9.76658e-08 0)
(6.57983e-07 -9.67399e-08 0)
(6.62839e-07 -9.75026e-08 0)
(6.69501e-07 -9.94018e-08 0)
(6.77493e-07 -1.01994e-07 0)
(6.87007e-07 -1.05138e-07 0)
(6.66501e-07 -2.00128e-07 3.78891e-23)
(6.37525e-07 -1.65526e-07 0)
(6.19879e-07 -1.45391e-07 0)
(6.09182e-07 -1.3318e-07 0)
(6.03913e-07 -1.26551e-07 0)
(6.02611e-07 -1.23535e-07 0)
(6.04387e-07 -1.23005e-07 0)
(6.08524e-07 -1.24159e-07 0)
(6.14559e-07 -1.26455e-07 0)
(6.21978e-07 -1.29468e-07 0)
(6.30953e-07 -1.32994e-07 0)
(6.25829e-07 -2.21436e-07 2.40309e-23)
(5.91057e-07 -1.89688e-07 0)
(5.69805e-07 -1.71429e-07 0)
(5.56772e-07 -1.60464e-07 0)
(5.49918e-07 -1.54729e-07 0)
(5.47495e-07 -1.52379e-07 0)
(5.4841e-07 -1.52387e-07 0)
(5.51842e-07 -1.54006e-07 0)
(5.57239e-07 -1.56732e-07 0)
(5.64083e-07 -1.60206e-07 0)
(5.72432e-07 -1.64117e-07 0)
(8.27705e-07 0 -1.01007e-23)
(8.37025e-07 0 4.09745e-26)
(8.4314e-07 0 0)
(8.47755e-07 0 0)
(8.52672e-07 0 0)
(8.58345e-07 0 0)
(8.6519e-07 0 0)
(8.73255e-07 0 0)
(8.82585e-07 0 0)
(8.93095e-07 0 0)
(9.04765e-07 0 0)
(8.25113e-07 -2.65598e-08 -4.53368e-24)
(8.33586e-07 -1.84506e-08 0)
(8.39164e-07 -1.36097e-08 0)
(8.4345e-07 -1.06142e-08 0)
(8.48141e-07 -8.87021e-09 0)
(8.53666e-07 -7.93681e-09 0)
(8.60402e-07 -7.54716e-09 0)
(8.68386e-07 -7.51899e-09 0)
(8.77648e-07 -7.73654e-09 0)
(8.88093e-07 -8.08985e-09 0)
(8.99711e-07 -8.59535e-09 0)
(8.17291e-07 -5.2965e-08 -8.8266e-24)
(8.23308e-07 -3.71561e-08 0)
(8.27359e-07 -2.77442e-08 0)
(8.30663e-07 -2.19287e-08 0)
(8.34704e-07 -1.85521e-08 0)
(8.39788e-07 -1.67545e-08 0)
(8.46209e-07 -1.60163e-08 0)
(8.53951e-07 -1.59827e-08 0)
(8.63015e-07 -1.64272e-08 0)
(8.73269e-07 -1.71376e-08 0)
(8.8473e-07 -1.81409e-08 0)
(8.04284e-07 -7.90842e-08 -2.64459e-23)
(8.06379e-07 -5.64042e-08 0)
(8.08003e-07 -4.29279e-08 0)
(8.09742e-07 -3.46119e-08 0)
(8.12748e-07 -2.98014e-08 0)
(8.17129e-07 -2.726e-08 0)
(8.23046e-07 -2.62424e-08 0)
(8.30402e-07 -2.62396e-08 0)
(8.39149e-07 -2.69244e-08 0)
(8.49099e-07 -2.79957e-08 0)
(8.60309e-07 -2.94792e-08 0)
(7.86204e-07 -1.04758e-07 -1.86687e-23)
(7.83148e-07 -7.64042e-08 0)
(7.81581e-07 -5.95887e-08 0)
(7.81264e-07 -4.92285e-08 0)
(7.82911e-07 -4.32673e-08 0)
(7.86366e-07 -4.01537e-08 0)
(7.9162e-07 -3.89558e-08 0)
(7.98467e-07 -3.9036e-08 0)
(8.06795e-07 -3.99804e-08 0)
(8.16346e-07 -4.14183e-08 0)
(8.27224e-07 -4.33594e-08 0)
(7.63194e-07 -1.29842e-07 -1.4707e-24)
(7.54069e-07 -9.73013e-08 0)
(7.48743e-07 -7.80515e-08 0)
(7.46002e-07 -6.62168e-08 0)
(7.46043e-07 -5.94589e-08 0)
(7.48403e-07 -5.59877e-08 0)
(7.52869e-07 -5.47337e-08 0)
(7.5911e-07 -5.49628e-08 0)
(7.66937e-07 -5.6192e-08 0)
(7.76014e-07 -5.80036e-08 0)
(7.86491e-07 -6.03734e-08 0)
(7.3543e-07 -1.54193e-07 -4.59921e-25)
(7.1969e-07 -1.19157e-07 0)
(7.10263e-07 -9.85056e-08 0)
(7.04876e-07 -8.58473e-08 0)
(7.03159e-07 -7.86975e-08 0)
(7.04317e-07 -7.51145e-08 0)
(7.07911e-07 -7.39478e-08 0)
(7.13479e-07 -7.44022e-08 0)
(7.20744e-07 -7.5948e-08 0)
(7.29295e-07 -7.81428e-08 0)
(7.39316e-07 -8.09135e-08 0)
(7.03121e-07 -1.77669e-07 -7.8101e-25)
(6.80625e-07 -1.41941e-07 0)
(6.67004e-07 -1.20992e-07 0)
(6.5891e-07 -1.08206e-07 0)
(6.55387e-07 -1.01098e-07 0)
(6.55301e-07 -9.76658e-08 0)
(6.57983e-07 -9.67399e-08 0)
(6.62839e-07 -9.75026e-08 0)
(6.69501e-07 -9.94018e-08 0)
(6.77493e-07 -1.01994e-07 0)
(6.87007e-07 -1.05138e-07 0)
(6.66501e-07 -2.00128e-07 3.78891e-23)
(6.37525e-07 -1.65526e-07 0)
(6.19879e-07 -1.45391e-07 0)
(6.09182e-07 -1.3318e-07 0)
(6.03913e-07 -1.26551e-07 0)
(6.02611e-07 -1.23535e-07 0)
(6.04387e-07 -1.23005e-07 0)
(6.08524e-07 -1.24159e-07 0)
(6.14559e-07 -1.26455e-07 0)
(6.21978e-07 -1.29468e-07 0)
(6.30953e-07 -1.32994e-07 0)
(6.25829e-07 -2.21436e-07 2.40309e-23)
(5.91057e-07 -1.89688e-07 0)
(5.69805e-07 -1.71429e-07 0)
(5.56772e-07 -1.60464e-07 0)
(5.49918e-07 -1.54729e-07 0)
(5.47495e-07 -1.52379e-07 0)
(5.4841e-07 -1.52387e-07 0)
(5.51842e-07 -1.54006e-07 0)
(5.57239e-07 -1.56732e-07 0)
(5.64083e-07 -1.60206e-07 0)
(5.72432e-07 -1.64117e-07 0)
(9.17552e-07 0 0)
(9.31286e-07 0 0)
(9.45855e-07 0 0)
(9.61186e-07 0 0)
(9.77199e-07 0 0)
(9.93824e-07 0 0)
(1.01099e-06 0 0)
(1.02864e-06 0 0)
(1.04671e-06 0 0)
(1.06514e-06 0 0)
(1.08388e-06 0 0)
(1.10286e-06 0 0)
(1.12204e-06 0 0)
(1.14134e-06 0 0)
(1.16071e-06 0 0)
(1.18007e-06 0 0)
(1.19935e-06 0 0)
(1.21849e-06 0 0)
(1.23732e-06 0 -3.02635e-27)
(1.25585e-06 0 -4.94827e-24)
(9.12952e-07 -8.66148e-09 0)
(9.27069e-07 -8.69151e-09 0)
(9.41975e-07 -8.7234e-09 0)
(9.57602e-07 -8.7237e-09 0)
(9.73877e-07 -8.68508e-09 0)
(9.90735e-07 -8.6001e-09 0)
(1.00811e-06 -8.46244e-09 0)
(1.02595e-06 -8.26793e-09 0)
(1.04419e-06 -8.0117e-09 0)
(1.06278e-06 -7.68926e-09 0)
(1.08166e-06 -7.29513e-09 0)
(1.10078e-06 -6.82303e-09 0)
(1.12008e-06 -6.26529e-09 0)
(1.1395e-06 -5.61256e-09 0)
(1.15898e-06 -4.85356e-09 0)
(1.17846e-06 -3.97427e-09 0)
(1.19784e-06 -2.9583e-09 0)
(1.21708e-06 -1.78348e-09 0)
(1.23601e-06 -4.30674e-10 0)
(1.25465e-06 1.15495e-09 -1.02465e-23)
(8.99303e-07 -1.81272e-08 0)
(9.14553e-07 -1.80706e-08 0)
(9.30455e-07 -1.80364e-08 0)
(9.46957e-07 -1.79579e-08 0)
(9.64007e-07 -1.78155e-08 0)
(9.81557e-07 -1.75929e-08 0)
(9.99556e-07 -1.72748e-08 0)
(1.01795e-06 -1.68513e-08 0)
(1.03671e-06 -1.63113e-08 0)
(1.05576e-06 -1.56446e-08 0)
(1.07508e-06 -1.48394e-08 0)
(1.09459e-06 -1.38823e-08 0)
(1.11427e-06 -1.27573e-08 0)
(1.13404e-06 -1.14453e-08 0)
(1.15386e-06 -9.92329e-09 0)
(1.17366e-06 -8.16272e-09 0)
(1.19335e-06 -6.13059e-09 0)
(1.2129e-06 -3.78229e-09 0)
(1.23213e-06 -1.07924e-09 0)
(1.25107e-06 2.08721e-09 -1.73328e-23)
(8.77023e-07 -2.91084e-08 0)
(8.94104e-07 -2.87433e-08 0)
(9.1162e-07 -2.84568e-08 0)
(9.29541e-07 -2.81504e-08 0)
(9.47854e-07 -2.77822e-08 0)
(9.66529e-07 -2.73238e-08 0)
(9.85541e-07 -2.67459e-08 0)
(1.00486e-06 -2.603e-08 0)
(1.02444e-06 -2.51558e-08 0)
(1.04426e-06 -2.41054e-08 0)
(1.06428e-06 -2.28587e-08 0)
(1.08445e-06 -2.13938e-08 0)
(1.10474e-06 -1.96854e-08 0)
(1.1251e-06 -1.77033e-08 0)
(1.14546e-06 -1.5412e-08 0)
(1.16579e-06 -1.27677e-08 0)
(1.18599e-06 -9.72014e-09 0)
(1.20603e-06 -6.20154e-09 0)
(1.22576e-06 -2.15296e-09 0)
(1.2452e-06 2.58734e-09 -2.78326e-24)
(8.46769e-07 -4.22458e-08 0)
(8.66291e-07 -4.1261e-08 0)
(8.85972e-07 -4.0459e-08 0)
(9.05805e-07 -3.97136e-08 0)
(9.25824e-07 -3.89463e-08 0)
(9.46023e-07 -3.81122e-08 0)
(9.66409e-07 -3.71612e-08 0)
(9.86967e-07 -3.60622e-08 0)
(1.00769e-06 -3.47814e-08 0)
(1.02855e-06 -3.32903e-08 0)
(1.04953e-06 -3.15582e-08 0)
(1.07059e-06 -2.95527e-08 0)
(1.09172e-06 -2.72372e-08 0)
(1.11286e-06 -2.45694e-08 0)
(1.13398e-06 -2.15e-08 0)
(1.15502e-06 -1.79691e-08 0)
(1.17592e-06 -1.39079e-08 0)
(1.19664e-06 -9.22491e-09 0)
(1.21704e-06 -3.83948e-09 0)
(1.23715e-06 2.46232e-09 4.34758e-24)
(8.09401e-07 -5.80563e-08 0)
(8.31863e-07 -5.6073e-08 0)
(8.5417e-07 -5.44304e-08 0)
(8.76335e-07 -5.29829e-08 0)
(8.98447e-07 -5.15993e-08 0)
(9.20523e-07 -5.02133e-08 0)
(9.42606e-07 -4.87467e-08 0)
(9.64705e-07 -4.71499e-08 0)
(9.86831e-07 -4.53717e-08 0)
(1.00898e-06 -4.33688e-08 0)
(1.03116e-06 -4.10966e-08 0)
(1.05333e-06 -3.85098e-08 0)
(1.07549e-06 -3.55586e-08 0)
(1.09761e-06 -3.21867e-08 0)
(1.11966e-06 -2.83297e-08 0)
(1.14159e-06 -2.39102e-08 0)
(1.16335e-06 -1.88403e-08 0)
(1.18491e-06 -1.30037e-08 0)
(1.20615e-06 -6.29662e-09 0)
(1.2271e-06 1.54537e-09 9.68908e-24)
(7.65945e-07 -7.68995e-08 0)
(7.91708e-07 -7.35083e-08 0)
(8.16999e-07 -7.06667e-08 0)
(8.41831e-07 -6.82227e-08 0)
(8.66352e-07 -6.59788e-08 0)
(8.90602e-07 -6.38402e-08 0)
(9.14657e-07 -6.16947e-08 0)
(9.38551e-07 -5.94676e-08 0)
(9.62321e-07 -5.70856e-08 0)
(9.85985e-07 -5.44865e-08 0)
(1.00955e-06 -5.16091e-08 0)
(1.03303e-06 -4.83919e-08 0)
(1.05641e-06 -4.477e-08 0)
(1.07967e-06 -4.06714e-08 0)
(1.1028e-06 -3.6015e-08 0)
(1.12578e-06 -3.07051e-08 0)
(1.14854e-06 -2.46333e-08 0)
(1.17109e-06 -1.76584e-08 0)
(1.1933e-06 -9.65262e-09 0)
(1.21523e-06 -3.04183e-10 1.74004e-23)
(7.17518e-07 -9.89359e-08 0)
(7.46792e-07 -9.37192e-08 0)
(7.75305e-07 -8.93067e-08 0)
(8.0305e-07 -8.5551e-08 0)
(8.30225e-07 -8.21861e-08 0)
(8.56885e-07 -7.90775e-08 0)
(8.83139e-07 -7.60771e-08 0)
(9.09043e-07 -7.3077e-08 0)
(9.34657e-07 -6.99783e-08 0)
(9.60019e-07 -6.66945e-08 0)
(9.8516e-07 -6.31442e-08 0)
(1.0101e-06 -5.92469e-08 0)
(1.03484e-06 -5.49202e-08 0)
(1.0594e-06 -5.00741e-08 0)
(1.08375e-06 -4.461e-08 0)
(1.10789e-06 -3.84125e-08 0)
(1.13178e-06 -3.13523e-08 0)
(1.15543e-06 -2.32629e-08 0)
(1.17873e-06 -1.39924e-08 0)
(1.20176e-06 -3.18495e-09 4.3497e-25)
(6.65319e-07 -1.24178e-07 0)
(6.98158e-07 -1.16766e-07 0)
(7.30003e-07 -1.10452e-07 0)
(7.60803e-07 -1.05081e-07 0)
(7.90786e-07 -1.00342e-07 0)
(8.20023e-07 -9.60458e-08 0)
(8.48641e-07 -9.20087e-08 0)
(8.76719e-07 -8.80847e-08 0)
(9.04335e-07 -8.41456e-08 0)
(9.31547e-07 -8.00779e-08 0)
(9.58404e-07 -7.57767e-08 0)
(9.8494e-07 -7.11405e-08 0)
(1.01118e-06 -6.60668e-08 0)
(1.03714e-06 -6.04466e-08 0)
(1.06282e-06 -5.41621e-08 0)
(1.08824e-06 -4.70776e-08 0)
(1.11336e-06 -3.9043e-08 0)
(1.1382e-06 -2.9867e-08 0)
(1.1627e-06 -1.93739e-08 0)
(1.18693e-06 -7.17352e-09 -5.01924e-24)
(6.10464e-07 -1.52319e-07 0)
(6.46775e-07 -1.42368e-07 0)
(6.81935e-07 -1.33871e-07 0)
(7.15865e-07 -1.26601e-07 0)
(7.48756e-07 -1.2025e-07 0)
(7.80694e-07 -1.14563e-07 0)
(8.11804e-07 -1.09324e-07 0)
(8.42183e-07 -1.04342e-07 0)
(8.71924e-07 -9.9457e-08 0)
(9.01104e-07 -9.45232e-08 0)
(9.29787e-07 -8.94092e-08 0)
(9.58023e-07 -8.39895e-08 0)
(9.85854e-07 -7.81399e-08 0)
(1.01331e-06 -7.17309e-08 0)
(1.04041e-06 -6.46249e-08 0)
(1.06717e-06 -5.6666e-08 0)
(1.0936e-06 -4.76833e-08 0)
(1.11971e-06 -3.74621e-08 0)
(1.14548e-06 -2.5804e-08 0)
(1.17098e-06 -1.22861e-08 3.08175e-24)
(5.54443e-07 -1.82984e-07 0)
(5.93973e-07 -1.70213e-07 0)
(6.32281e-07 -1.59399e-07 0)
(6.69239e-07 -1.50053e-07 0)
(7.04993e-07 -1.41913e-07 0)
(7.39626e-07 -1.34671e-07 0)
(7.73254e-07 -1.2808e-07 0)
(8.0598e-07 -1.21913e-07 0)
(8.37904e-07 -1.15974e-07 0)
(8.69116e-07 -1.10086e-07 0)
(8.99691e-07 -1.04089e-07 0)
(9.29696e-07 -9.78328e-08 0)
(9.59184e-07 -9.11692e-08 0)
(9.882e-07 -8.39478e-08 0)
(1.01678e-06 -7.60103e-08 0)
(1.04495e-06 -6.71818e-08 0)
(1.07274e-06 -5.72711e-08 0)
(1.10018e-06 -4.60445e-08 0)
(1.12727e-06 -3.32794e-08 0)
(1.15411e-06 -1.85333e-08 8.97658e-24)
(9.17552e-07 0 0)
(9.31286e-07 0 0)
(9.45855e-07 0 0)
(9.61186e-07 0 0)
(9.77199e-07 0 0)
(9.93824e-07 0 0)
(1.01099e-06 0 0)
(1.02864e-06 0 0)
(1.04671e-06 0 0)
(1.06514e-06 0 0)
(1.08388e-06 0 0)
(1.10286e-06 0 0)
(1.12204e-06 0 0)
(1.14134e-06 0 0)
(1.16071e-06 0 0)
(1.18007e-06 0 0)
(1.19935e-06 0 0)
(1.21849e-06 0 0)
(1.23732e-06 0 -3.02635e-27)
(1.25585e-06 0 -4.94827e-24)
(9.12952e-07 -8.66148e-09 0)
(9.27069e-07 -8.69151e-09 0)
(9.41975e-07 -8.7234e-09 0)
(9.57602e-07 -8.7237e-09 0)
(9.73877e-07 -8.68508e-09 0)
(9.90735e-07 -8.6001e-09 0)
(1.00811e-06 -8.46244e-09 0)
(1.02595e-06 -8.26793e-09 0)
(1.04419e-06 -8.0117e-09 0)
(1.06278e-06 -7.68926e-09 0)
(1.08166e-06 -7.29513e-09 0)
(1.10078e-06 -6.82303e-09 0)
(1.12008e-06 -6.26529e-09 0)
(1.1395e-06 -5.61256e-09 0)
(1.15898e-06 -4.85356e-09 0)
(1.17846e-06 -3.97427e-09 0)
(1.19784e-06 -2.9583e-09 0)
(1.21708e-06 -1.78348e-09 0)
(1.23601e-06 -4.30674e-10 0)
(1.25465e-06 1.15495e-09 -1.02465e-23)
(8.99303e-07 -1.81272e-08 0)
(9.14553e-07 -1.80706e-08 0)
(9.30455e-07 -1.80364e-08 0)
(9.46957e-07 -1.79579e-08 0)
(9.64007e-07 -1.78155e-08 0)
(9.81557e-07 -1.75929e-08 0)
(9.99556e-07 -1.72748e-08 0)
(1.01795e-06 -1.68513e-08 0)
(1.03671e-06 -1.63113e-08 0)
(1.05576e-06 -1.56446e-08 0)
(1.07508e-06 -1.48394e-08 0)
(1.09459e-06 -1.38823e-08 0)
(1.11427e-06 -1.27573e-08 0)
(1.13404e-06 -1.14453e-08 0)
(1.15386e-06 -9.92329e-09 0)
(1.17366e-06 -8.16272e-09 0)
(1.19335e-06 -6.13059e-09 0)
(1.2129e-06 -3.78229e-09 0)
(1.23213e-06 -1.07924e-09 0)
(1.25107e-06 2.08721e-09 -1.73328e-23)
(8.77023e-07 -2.91084e-08 0)
(8.94104e-07 -2.87433e-08 0)
(9.1162e-07 -2.84568e-08 0)
(9.29541e-07 -2.81504e-08 0)
(9.47854e-07 -2.77822e-08 0)
(9.66529e-07 -2.73238e-08 0)
(9.85541e-07 -2.67459e-08 0)
(1.00486e-06 -2.603e-08 0)
(1.02444e-06 -2.51558e-08 0)
(1.04426e-06 -2.41054e-08 0)
(1.06428e-06 -2.28587e-08 0)
(1.08445e-06 -2.13938e-08 0)
(1.10474e-06 -1.96854e-08 0)
(1.1251e-06 -1.77033e-08 0)
(1.14546e-06 -1.5412e-08 0)
(1.16579e-06 -1.27677e-08 0)
(1.18599e-06 -9.72014e-09 0)
(1.20603e-06 -6.20154e-09 0)
(1.22576e-06 -2.15296e-09 0)
(1.2452e-06 2.58734e-09 -2.78326e-24)
(8.46769e-07 -4.22458e-08 0)
(8.66291e-07 -4.1261e-08 0)
(8.85972e-07 -4.0459e-08 0)
(9.05805e-07 -3.97136e-08 0)
(9.25824e-07 -3.89463e-08 0)
(9.46023e-07 -3.81122e-08 0)
(9.66409e-07 -3.71612e-08 0)
(9.86967e-07 -3.60622e-08 0)
(1.00769e-06 -3.47814e-08 0)
(1.02855e-06 -3.32903e-08 0)
(1.04953e-06 -3.15582e-08 0)
(1.07059e-06 -2.95527e-08 0)
(1.09172e-06 -2.72372e-08 0)
(1.11286e-06 -2.45694e-08 0)
(1.13398e-06 -2.15e-08 0)
(1.15502e-06 -1.79691e-08 0)
(1.17592e-06 -1.39079e-08 0)
(1.19664e-06 -9.22491e-09 0)
(1.21704e-06 -3.83948e-09 0)
(1.23715e-06 2.46232e-09 4.34758e-24)
(8.09401e-07 -5.80563e-08 0)
(8.31863e-07 -5.6073e-08 0)
(8.5417e-07 -5.44304e-08 0)
(8.76335e-07 -5.29829e-08 0)
(8.98447e-07 -5.15993e-08 0)
(9.20523e-07 -5.02133e-08 0)
(9.42606e-07 -4.87467e-08 0)
(9.64705e-07 -4.71499e-08 0)
(9.86831e-07 -4.53717e-08 0)
(1.00898e-06 -4.33688e-08 0)
(1.03116e-06 -4.10966e-08 0)
(1.05333e-06 -3.85098e-08 0)
(1.07549e-06 -3.55586e-08 0)
(1.09761e-06 -3.21867e-08 0)
(1.11966e-06 -2.83297e-08 0)
(1.14159e-06 -2.39102e-08 0)
(1.16335e-06 -1.88403e-08 0)
(1.18491e-06 -1.30037e-08 0)
(1.20615e-06 -6.29662e-09 0)
(1.2271e-06 1.54537e-09 9.68908e-24)
(7.65945e-07 -7.68995e-08 0)
(7.91708e-07 -7.35083e-08 0)
(8.16999e-07 -7.06667e-08 0)
(8.41831e-07 -6.82227e-08 0)
(8.66352e-07 -6.59788e-08 0)
(8.90602e-07 -6.38402e-08 0)
(9.14657e-07 -6.16947e-08 0)
(9.38551e-07 -5.94676e-08 0)
(9.62321e-07 -5.70856e-08 0)
(9.85985e-07 -5.44865e-08 0)
(1.00955e-06 -5.16091e-08 0)
(1.03303e-06 -4.83919e-08 0)
(1.05641e-06 -4.477e-08 0)
(1.07967e-06 -4.06714e-08 0)
(1.1028e-06 -3.6015e-08 0)
(1.12578e-06 -3.07051e-08 0)
(1.14854e-06 -2.46333e-08 0)
(1.17109e-06 -1.76584e-08 0)
(1.1933e-06 -9.65262e-09 0)
(1.21523e-06 -3.04183e-10 1.74004e-23)
(7.17518e-07 -9.89359e-08 0)
(7.46792e-07 -9.37192e-08 0)
(7.75305e-07 -8.93067e-08 0)
(8.0305e-07 -8.5551e-08 0)
(8.30225e-07 -8.21861e-08 0)
(8.56885e-07 -7.90775e-08 0)
(8.83139e-07 -7.60771e-08 0)
(9.09043e-07 -7.3077e-08 0)
(9.34657e-07 -6.99783e-08 0)
(9.60019e-07 -6.66945e-08 0)
(9.8516e-07 -6.31442e-08 0)
(1.0101e-06 -5.92469e-08 0)
(1.03484e-06 -5.49202e-08 0)
(1.0594e-06 -5.00741e-08 0)
(1.08375e-06 -4.461e-08 0)
(1.10789e-06 -3.84125e-08 0)
(1.13178e-06 -3.13523e-08 0)
(1.15543e-06 -2.32629e-08 0)
(1.17873e-06 -1.39924e-08 0)
(1.20176e-06 -3.18495e-09 4.3497e-25)
(6.65319e-07 -1.24178e-07 0)
(6.98158e-07 -1.16766e-07 0)
(7.30003e-07 -1.10452e-07 0)
(7.60803e-07 -1.05081e-07 0)
(7.90786e-07 -1.00342e-07 0)
(8.20023e-07 -9.60458e-08 0)
(8.48641e-07 -9.20087e-08 0)
(8.76719e-07 -8.80847e-08 0)
(9.04335e-07 -8.41456e-08 0)
(9.31547e-07 -8.00779e-08 0)
(9.58404e-07 -7.57767e-08 0)
(9.8494e-07 -7.11405e-08 0)
(1.01118e-06 -6.60668e-08 0)
(1.03714e-06 -6.04466e-08 0)
(1.06282e-06 -5.41621e-08 0)
(1.08824e-06 -4.70776e-08 0)
(1.11336e-06 -3.9043e-08 0)
(1.1382e-06 -2.9867e-08 0)
(1.1627e-06 -1.93739e-08 0)
(1.18693e-06 -7.17352e-09 -5.01924e-24)
(6.10464e-07 -1.52319e-07 0)
(6.46775e-07 -1.42368e-07 0)
(6.81935e-07 -1.33871e-07 0)
(7.15865e-07 -1.26601e-07 0)
(7.48756e-07 -1.2025e-07 0)
(7.80694e-07 -1.14563e-07 0)
(8.11804e-07 -1.09324e-07 0)
(8.42183e-07 -1.04342e-07 0)
(8.71924e-07 -9.9457e-08 0)
(9.01104e-07 -9.45232e-08 0)
(9.29787e-07 -8.94092e-08 0)
(9.58023e-07 -8.39895e-08 0)
(9.85854e-07 -7.81399e-08 0)
(1.01331e-06 -7.17309e-08 0)
(1.04041e-06 -6.46249e-08 0)
(1.06717e-06 -5.6666e-08 0)
(1.0936e-06 -4.76833e-08 0)
(1.11971e-06 -3.74621e-08 0)
(1.14548e-06 -2.5804e-08 0)
(1.17098e-06 -1.22861e-08 3.08175e-24)
(5.54443e-07 -1.82984e-07 0)
(5.93973e-07 -1.70213e-07 0)
(6.32281e-07 -1.59399e-07 0)
(6.69239e-07 -1.50053e-07 0)
(7.04993e-07 -1.41913e-07 0)
(7.39626e-07 -1.34671e-07 0)
(7.73254e-07 -1.2808e-07 0)
(8.0598e-07 -1.21913e-07 0)
(8.37904e-07 -1.15974e-07 0)
(8.69116e-07 -1.10086e-07 0)
(8.99691e-07 -1.04089e-07 0)
(9.29696e-07 -9.78328e-08 0)
(9.59184e-07 -9.11692e-08 0)
(9.882e-07 -8.39478e-08 0)
(1.01678e-06 -7.60103e-08 0)
(1.04495e-06 -6.71818e-08 0)
(1.07274e-06 -5.72711e-08 0)
(1.10018e-06 -4.60445e-08 0)
(1.12727e-06 -3.32794e-08 0)
(1.15411e-06 -1.85333e-08 8.97658e-24)
(4.87045e-07 -2.22003e-07 0)
(5.2874e-07 -2.06518e-07 0)
(5.68853e-07 -1.92826e-07 0)
(6.07708e-07 -1.80986e-07 0)
(6.45331e-07 -1.70547e-07 0)
(6.8178e-07 -1.61277e-07 0)
(7.1713e-07 -1.52913e-07 0)
(7.51467e-07 -1.45227e-07 0)
(7.84877e-07 -1.38006e-07 0)
(8.17446e-07 -1.3106e-07 0)
(8.49254e-07 -1.24212e-07 0)
(8.80373e-07 -1.17302e-07 0)
(9.10867e-07 -1.10175e-07 0)
(9.40792e-07 -1.02678e-07 0)
(9.70199e-07 -9.46573e-08 0)
(9.99128e-07 -8.59531e-08 0)
(1.02762e-06 -7.63896e-08 0)
(1.05571e-06 -6.57793e-08 0)
(1.08346e-06 -5.38931e-08 0)
(1.11087e-06 -4.05227e-08 0)
(1.13806e-06 -2.52416e-08 9.36515e-24)
(4.64474e-07 -2.44973e-07 0)
(5.05861e-07 -2.29247e-07 0)
(5.45994e-07 -2.1493e-07 0)
(5.85026e-07 -2.02251e-07 0)
(6.22952e-07 -1.90872e-07 0)
(6.5979e-07 -1.80603e-07 0)
(6.95583e-07 -1.71221e-07 0)
(7.30391e-07 -1.62521e-07 0)
(7.64279e-07 -1.54307e-07 0)
(7.97316e-07 -1.46399e-07 0)
(8.29572e-07 -1.38627e-07 0)
(8.61111e-07 -1.30831e-07 0)
(8.91993e-07 -1.22856e-07 0)
(9.22274e-07 -1.14551e-07 0)
(9.52007e-07 -1.05762e-07 0)
(9.81236e-07 -9.63297e-08 0)
(1.01001e-06 -8.60819e-08 0)
(1.03838e-06 -7.48374e-08 0)
(1.0664e-06 -6.23791e-08 0)
(1.09411e-06 -4.85131e-08 0)
(1.12163e-06 -3.285e-08 1.90664e-23)
(4.44753e-07 -2.67212e-07 0)
(4.85587e-07 -2.51264e-07 0)
(5.25374e-07 -2.36504e-07 0)
(5.64258e-07 -2.23175e-07 0)
(6.02171e-07 -2.11014e-07 0)
(6.39111e-07 -1.99878e-07 0)
(6.75087e-07 -1.89583e-07 0)
(7.10134e-07 -1.79951e-07 0)
(7.44298e-07 -1.70809e-07 0)
(7.7763e-07 -1.61988e-07 0)
(8.10185e-07 -1.53329e-07 0)
(8.4202e-07 -1.44677e-07 0)
(8.73188e-07 -1.35883e-07 0)
(9.03742e-07 -1.26798e-07 0)
(9.33735e-07 -1.1727e-07 0)
(9.63214e-07 -1.07145e-07 0)
(9.92235e-07 -9.62585e-08 0)
(1.02085e-06 -8.44379e-08 0)
(1.04912e-06 -7.14814e-08 0)
(1.07711e-06 -5.72126e-08 0)
(1.10494e-06 -4.12813e-08 2.75157e-23)
(4.274e-07 -2.88509e-07 0)
(4.6749e-07 -2.72491e-07 0)
(5.06717e-07 -2.57441e-07 0)
(5.45217e-07 -2.43608e-07 0)
(5.82885e-07 -2.30802e-07 0)
(6.19703e-07 -2.1892e-07 0)
(6.55652e-07 -2.07817e-07 0)
(6.90749e-07 -1.97344e-07 0)
(7.25015e-07 -1.87347e-07 0)
(7.5849e-07 -1.77676e-07 0)
(7.91213e-07 -1.68183e-07 0)
(8.23231e-07 -1.58723e-07 0)
(8.5459e-07 -1.49151e-07 0)
(8.8534e-07 -1.39326e-07 0)
(9.15529e-07 -1.29102e-07 0)
(9.45207e-07 -1.18333e-07 0)
(9.74431e-07 -1.06861e-07 0)
(1.00326e-06 -9.45271e-08 0)
(1.03176e-06 -8.11475e-08 0)
(1.06e-06 -6.65644e-08 0)
(1.08812e-06 -5.04705e-08 2.41407e-23)
(4.12098e-07 -3.08862e-07 0)
(4.51299e-07 -2.92865e-07 0)
(4.89811e-07 -2.77649e-07 0)
(5.27753e-07 -2.63448e-07 0)
(5.64999e-07 -2.50127e-07 0)
(6.01517e-07 -2.37622e-07 0)
(6.37269e-07 -2.2582e-07 0)
(6.72253e-07 -2.146e-07 0)
(7.06476e-07 -2.03832e-07 0)
(7.3996e-07 -1.93383e-07 0)
(7.72733e-07 -1.83118e-07 0)
(8.04832e-07 -1.72904e-07 0)
(8.36296e-07 -1.62605e-07 0)
(8.67168e-07 -1.52088e-07 0)
(8.97494e-07 -1.41217e-07 0)
(9.27323e-07 -1.29852e-07 0)
(9.56711e-07 -1.17849e-07 0)
(9.85717e-07 -1.05063e-07 0)
(1.01442e-06 -9.13288e-08 0)
(1.04289e-06 -7.65092e-08 0)
(1.07126e-06 -6.03412e-08 2.43576e-23)
(3.98483e-07 -3.28263e-07 0)
(4.3672e-07 -3.12375e-07 0)
(4.74421e-07 -2.97091e-07 0)
(5.11688e-07 -2.82631e-07 0)
(5.48383e-07 -2.68908e-07 0)
(5.84467e-07 -2.55888e-07 0)
(6.19888e-07 -2.4349e-07 0)
(6.5463e-07 -2.31618e-07 0)
(6.88687e-07 -2.20164e-07 0)