/*--------------------------------*- C++ -*----------------------------------*\
| =========                 |                                                 |
| \\      /  F ield         | foam-extend: Open Source CFD                    |
|  \\    /   O peration     | Version:     4.1                                |
|   \\  /    A nd           | Web:         http://www.foam-extend.org         |
|    \\/     M anipulation  |                                                 |
\*---------------------------------------------------------------------------*/
FoamFile
{
    version     2.0;
    format      ascii;
    class       volSymmTensorField;
    location    "1";
    object      sigma;
}
// * * * * * * * * * * * * * * * * * * * * * * * * * * * * * * * * * * * * * //

dimensions      [1 -1 -2 0 0 0 0];

internalField   nonuniform List<symmTensor> 
1000
(
(87987.6 -54184.6 -2.68671e-11 38097.5 -5.10111e-11 37825.5)
(114551 -42067.8 1.51896e-10 6147.52 3.28617e-11 36209.4)
(127534 -33390.5 -1.65115e-10 -8249.03 -1.17782e-10 35785.6)
(134644 -27269.8 -6.33037e-11 -17911.9 -1.4564e-11 35019.8)
(138093 -22612.3 -1.06256e-11 -22639.6 2.83533e-12 34636)
(139281 -19114.9 6.66531e-11 -25281.8 4.25007e-11 34199.7)
(139282 -16336 -1.19315e-10 -26213.2 -6.70326e-11 33920.5)
(138393 -14176.6 2.61474e-11 -26292 1.56876e-11 33630.3)
(137367 -12354.7 -4.77653e-11 -25723.5 -2.80858e-11 33493.1)
(135406 -10793.3 -5.89626e-11 -25102.4 -3.71286e-11 33091.1)
(117310 -65114.7 7.54218e-11 44715.2 -4.41688e-11 48607.5)
(136484 -44787.8 -1.52526e-10 13271.4 -4.03728e-11 44926.6)
(144878 -31631.5 -1.41025e-10 -753.758 -3.78051e-11 43237.4)
(148423 -22951.4 -1.09898e-10 -10786.6 -7.56817e-11 41291)
(149358 -16888.8 -2.40393e-11 -15872.7 -2.14281e-11 40045.5)
(148570 -12692.4 9.55836e-11 -19075.9 5.61971e-11 38848.3)
(147051 -9622.34 -1.11817e-10 -20516.1 -7.64048e-11 37960.5)
(144964 -7456.88 4.53484e-11 -21197.3 3.83724e-11 37130)
(142803 -5756.07 -8.44613e-11 -20997.1 -6.54995e-11 36541.6)
(140153 -4542.76 -3.12323e-11 -21140.1 -3.49253e-11 35703.8)
(149234 -73081.7 9.31388e-11 47379.8 5.68524e-12 58984.2)
(158745 -45990.6 -1.19126e-10 18980.2 -5.19686e-11 53317.6)
(161314 -29202.3 1.0922e-10 6727.28 4.92168e-11 50412.5)
(160614 -18479.7 -9.85827e-11 -2838.67 -4.73671e-11 47332.5)
(158672 -11333.9 -2.40797e-11 -7797.67 -1.82107e-11 45262.2)
(155733 -6632.43 -9.19479e-11 -11281.6 -5.37886e-11 43335.4)
(152642 -3392.19 1.69366e-16 -13071.7 -4.58014e-16 41871.1)
(149317 -1260.79 -3.16487e-13 -14267.5 4.19927e-13 40514.7)
(146181 279.159 -6.50726e-12 -14476 -3.08712e-11 39511.3)
(142691 1399.52 1.01009e-11 -15251.8 -7.65829e-12 38231.9)
(182429 -77139.7 3.21863e-10 46579.4 -6.41162e-11 68702.5)
(180615 -45414.8 6.84114e-11 23299.2 5.10026e-11 61174.4)
(176473 -26216.7 5.13834e-11 13953.1 4.76124e-11 57127.8)
(171072 -14181.4 2.9835e-11 5542.51 2.07757e-11 52984.3)
(166025 -6388.84 2.15545e-10 1097.26 1.2902e-10 50136.8)
(160864 -1424.6 -1.62172e-12 -2442.02 -3.7262e-12 47526.5)
(156191 1850.25 -7.72059e-13 -4482.72 3.63483e-12 45512.5)
(151710 3904.39 -2.04334e-12 -6116.39 3.62226e-12 43678)
(147670 5262.03 4.69391e-11 -6785.36 2.32956e-11 42265.3)
(143577 6255.65 -4.41337e-12 -8065.96 -9.42769e-12 40653.4)
(215325 -76643.5 -2.42929e-10 43096.6 6.23135e-12 77526.5)
(201322 -42906.7 1.10262e-10 26369.7 4.49045e-11 68307.6)
(190037 -22787.8 9.06481e-11 20710.9 4.42169e-11 63224.3)
(179763 -10323.5 9.43309e-11 13955.6 4.87764e-11 58115.7)
(171562 -2405.27 -5.66763e-11 10314.1 -3.00481e-11 54563)
(164208 2529.52 8.09775e-11 6901.48 3.65489e-11 51333)
(158031 5680.6 2.55966e-11 4703.21 1.54541e-11 48820.3)
(152485 7589.93 -4.99385e-11 2693.9 -1.84096e-11 46553.8)
(147678 8744.53 1.15403e-10 1547.75 4.46492e-11 44767.7)
(143085 9601.29 1.07603e-11 -183.442 -1.31014e-12 42870.4)
(246228 -71318.7 -3.52419e-12 37905.1 -2.76369e-14 85239.8)
(220083 -38440.3 -2.87685e-11 28389.5 -8.71292e-12 74541.8)
(201736 -19020.1 1.42294e-10 26767.4 6.14512e-11 68551)
(186734 -7082.23 3.72967e-11 21927.8 1.11274e-11 62598.5)
(175513 403.843 -5.29634e-11 19247.5 -2.08723e-11 58428.1)
(166109 4999.54 -1.34497e-10 16081.4 -6.56904e-11 54657.2)
(158557 7862.97 1.10793e-12 13796.7 -1.84473e-11 51706.2)
(152074 9554.54 -7.13122e-12 11481.2 2.31733e-11 49066.6)
(146617 10492.5 3.66794e-11 9872.93 2.81654e-11 46947)
(141633 11201.3 9.41431e-11 7766.72 3.86135e-11 44819.9)
(273440 -61297.9 9.16768e-11 32066.1 -1.19148e-11 91651.9)
(236144 -32129.2 -4.99567e-11 29599.4 7.08574e-12 79723)
(211346 -15009.5 4.19102e-11 31910 3.10524e-11 72976.9)
(192080 -4540.55 1.29667e-11 28995.8 -9.12657e-12 66322.6)
(178164 1966.28 7.52619e-11 27297.7 1.41158e-11 61638.4)
(166961 5919.53 -2.88544e-12 24432.1 -1.21883e-11 57418)
(158227 8338.48 2.24449e-11 22111.1 3.63869e-11 54101.5)
(150955 9742.17 7.81711e-11 19555 6.19642e-11 51153)
(144977 10461.6 -3.73951e-11 17528.8 -1.86968e-11 48751.8)
(139687 11019.7 1.07536e-11 15122.4 -1.9903e-11 46442.9)
(295405 -47115.3 0 26609 0 96604.3)
(248843 -24216.8 2.41387e-10 30242.4 7.31224e-11 83725.6)
(218706 -10832.3 -2.54618e-10 35949.1 -6.97573e-11 76396.5)
(195940 -2674.85 -9.65624e-12 34729.2 -1.59486e-11 69200.7)
(179828 2365.36 -2.42575e-11 33903.8 2.53029e-12 64119.6)
(167178 5406.53 1.2603e-10 31330.3 4.71974e-11 59552.4)
(157505 7243.73 4.43296e-11 29003.4 1.70662e-11 55952.6)
(149618 8297.16 -6.11324e-11 26271.2 -1.13757e-11 52766.7)
(143248 8803.08 2.58802e-12 23900.1 -1.09015e-11 50144.4)
(137733 9206.73 -2.92283e-11 21270.7 -2.39473e-11 47701.1)
(310819 -29673.4 1.65003e-10 22416.7 1.67909e-11 99970.8)
(257623 -15072.3 -1.35578e-11 30526.4 -2.71681e-11 86444.7)
(223670 -6553.33 -8.47588e-11 38723.8 -1.69299e-11 78718.2)
(198418 -1369.98 7.0702e-11 38759.7 2.2473e-11 71153.2)
(180753 1821.4 -2.84164e-11 38585.1 -6.5101e-12 65801.4)
(167087 3739.35 -7.25675e-11 36240 -1.04183e-11 60998)
(156763 4888.79 4.67982e-14 33919.8 -1.71683e-11 57204.8)
(148453 5543.2 -8.55298e-13 31072.1 1.02669e-11 53857.5)
(141822 5843.86 -7.74393e-13 28454.6 5.60305e-12 51083)
(136159 6089.21 -2.97541e-11 25676.1 -1.88197e-11 48550.6)
(318749 -10140.6 -1.38758e-10 20178.3 2.46975e-11 101678)
(262123 -5128.01 -1.12627e-10 30702.2 -3.78461e-11 87847.7)
(226194 -2201.44 8.617e-11 40259.9 2.76257e-11 79936.1)
(199653 -420.527 -1.34632e-10 40987.4 -1.74259e-11 72192.2)
(181185 674.911 5.43356e-11 41174.7 -1.69018e-11 66708)
(166995 1332.51 -2.38087e-11 38960.6 3.6333e-12 61786.6)
(156337 1725.4 -4.68673e-15 36649.1 1.74574e-11 57895.7)
(147811 1948.6 -1.92027e-11 33742.6 1.03753e-11 54466)
(141049 2049.19 -6.73482e-11 30994.6 -2.82297e-11 51613)
(135313 2132.26 3.33608e-11 28134.6 2.47835e-12 49034.3)
(-8083.09 2663.49 -1.9088e-11 -117002 8.64066e-11 -37525.6)
(-4960.21 -1190.74 2.83824e-11 -77205.8 4.06323e-11 -24649.8)
(-1158.6 -3155.26 3.74652e-13 -52820.7 -1.83043e-11 -16193.8)
(7202.09 -4205.52 -1.50465e-12 -36189.5 1.29776e-11 -8696.23)
(15105.4 -4695.35 -1.70899e-11 -25278 -1.17977e-11 -3051.78)
(23515.6 -4867.46 2.2624e-11 -17458.1 9.33463e-12 1817.25)
(31158.9 -4854.7 3.17045e-12 -11952 3.79779e-12 5762.08)
(38436.2 -4743.23 -4.18996e-12 -7769.08 6.94891e-12 9200.13)
(44900.6 -4553.75 2.25336e-11 -4661.44 6.09063e-12 12071.7)
(50960.9 -4415.69 -2.09271e-12 -1967.03 -3.01174e-12 14698.2)
(-7897 7407.12 1.05537e-12 -111349 3.77657e-12 -35773.7)
(-2733.19 -3736.06 -4.99104e-11 -74630.2 -7.14493e-11 -23209)
(2150.27 -9384.78 3.80466e-11 -51931.6 3.75013e-11 -14934.4)
(10961.2 -12384.5 2.76219e-11 -36367.6 1.99936e-11 -7621.93)
(19027.2 -13771.2 -7.03381e-12 -26074.6 -9.15725e-12 -2114.22)
(27402.1 -14243 -7.53034e-11 -18629.5 -2.78033e-11 2631.8)
(34913.3 -14185.5 -1.24288e-12 -13332.3 -1.05136e-14 6474.32)
(42014.1 -13844.4 -1.27119e-11 -9262.29 -7.73334e-12 9825.54)
(48241.7 -13282.9 7.9745e-12 -6194.52 -3.87499e-13 12614.2)
(54145.8 -12870.1 1.9789e-11 -3506.86 -1.62418e-12 15191.7)
(-7445.21 10576.1 -1.54619e-11 -100431 -7.15727e-11 -32362.7)
(1476.43 -6625.76 -3.80567e-11 -69681.3 -3.3474e-11 -20461.5)
(8245.96 -15295 5.92437e-11 -50227.5 1.5514e-11 -12594.5)
(17842.9 -19862.3 1.28027e-11 -36706.9 1.44081e-11 -5659.21)
(26169.2 -21941.7 3.46903e-11 -27596.5 1.62902e-11 -428.185)
(34455.6 -22611.1 -3.37969e-11 -20868.2 -1.69009e-11 4076.22)
(41706.1 -22470.6 -5.47764e-11 -15971.7 -1.57401e-11 7720.34)
(48470.1 -21892.6 -1.86607e-11 -12118.8 -4.22195e-12 10905.4)
(54251 -20987.8 9.4228e-13 -9130.87 -7.88428e-14 13536)
(59868.1 -20310 2.69056e-11 -6460.71 1.20311e-11 16022.2)
(-6060.74 11370.5 -5.55456e-11 -85069.6 -7.87914e-13 -27339.1)
(7895.47 -9979.28 2.51591e-11 -62603.5 -3.4461e-11 -16412.4)
(17165 -20646.4 -1.50315e-10 -47643.5 -1.15201e-10 -9143.55)
(27763.6 -26207 -3.3961e-11 -36969.3 2.22761e-12 -2761.71)
(36387.8 -28670.3 -2.06172e-12 -29509.4 4.42895e-12 2063.52)
(44500.8 -29385.8 4.46148e-11 -23790.3 2.00758e-11 6213.15)
(51353.5 -29106.6 -1.23151e-11 -19464.8 -6.61023e-14 9566.61)
(57617 -28283.4 3.73786e-11 -15926.1 2.51528e-11 12507.3)
(62761.1 -27082 -6.63562e-11 -13065.9 -1.27738e-11 14908.6)
(67952.7 -26156.8 5.96997e-11 -10428.1 9.1004e-12 17257.4)
(-3035.28 9210.32 1.501e-11 -66442.3 -5.45601e-11 -20843.3)
(16572.1 -13888.2 1.25396e-10 -53826.6 1.15583e-10 -11176.3)
(28608.7 -25267.1 -1.19426e-10 -44214.8 -8.00539e-11 -4681.83)
(40235.7 -31096.7 -5.58492e-11 -36954.9 -3.0241e-11 984.225)
(49099.2 -33557 4.92586e-11 -31482.6 2.07996e-11 5284.97)
(56913 -34130.6 6.60732e-11 -26993 2.71505e-11 8976)
(63225.9 -33644.6 3.75689e-11 -23373.4 2.43588e-11 11955.7)
(68831.8 -32570.3 6.63434e-11 -20232.8 2.02265e-11 14579.7)
(73186.5 -31130.1 -1.47048e-11 -17551 -1.62308e-11 16690.7)
(77815.2 -29985.4 -9.0554e-11 -14967 -9.03821e-12 18854.5)
(2442.83 3862.57 -1.46731e-12 -45911.9 3.59609e-12 -13040.7)
(27554.4 -18346 7.88274e-11 -43831.8 3.95119e-11 -4883.22)
(42219.1 -29023.8 6.3977e-11 -39939.9 5.75994e-11 683.733)
(54682.9 -34328 -3.13969e-11 -36380.2 -2.10741e-11 5490.82)
(63616.4 -36362.2 -5.75549e-11 -33075.1 -2.5434e-11 9162.38)
(70958 -36591 -3.63179e-11 -29950.1 -1.45044e-11 12302.4)
(76582.6 -35825.5 5.85898e-11 -27133.8 2.99025e-11 14834.6)
(81382.2 -34498.3 -7.0192e-11 -24460.7 -3.76807e-11 17076.4)
(84834.8 -32880.1 1.16594e-10 -22019.7 3.54355e-11 18844.5)
(88768.6 -31552.2 3.97877e-12 -19522.2 -1.61171e-11 20773.9)
(11168.5 -4534.29 6.86944e-11 -24941.8 -1.25973e-10 -4131.98)
(40852.1 -23249.7 -2.17458e-10 -33165 -1.19244e-10 2306.13)
(57587.1 -31833.3 7.4283e-11 -34862.6 4.9906e-11 6817.37)
(70473.6 -35831.2 -6.79434e-12 -34989.5 1.92963e-11 10645.3)
(79197.3 -37026.9 3.20439e-11 -33860 1.53396e-11 13601.2)
(85850.1 -36718.6 -1.3346e-11 -32142.5 -4.96371e-12 16112.3)
(90638.3 -35608.1 -8.17379e-11 -30175.3 -3.45523e-11 18138.9)
(94495.8 -34036.9 4.71561e-11 -28028.6 2.08258e-11 19940.2)
(96984.4 -32302.1 -4.28919e-11 -25883.9 -1.88236e-11 21330.1)
(100097 -30830.3 8.9422e-11 -23534 2.23536e-11 22968.9)
(23808 -15476.4 -2.55921e-11 -4946.25 3.68031e-11 5658.53)
(56402.7 -28394.3 -7.0934e-11 -22366.9 -8.30984e-11 10210.7)
(74258.1 -33655.1 -1.04292e-10 -29044.1 -9.98131e-11 13564.2)
(86943.6 -35661.1 3.87346e-11 -32556.3 1.89672e-11 16316.2)
(95068 -35659.6 1.03229e-10 -33450 5.04534e-11 18485.4)
(100770 -34651.9 9.40302e-11 -33089.8 4.58766e-11 20304.2)
(104563 -33145.4 -1.46513e-11 -31983.7 2.79233e-12 21773.7)
(107355 -31350.3 5.39566e-11 -30397 2.2885e-11 23087.4)
(108852 -29553.3 -5.30648e-11 -28645.1 -3.8094e-11 24062.2)
(111025 -27973.7 1.88448e-11 -26500.3 1.82365e-11 25357.5)
(40802.7 -28137.1 7.37892e-11 12822.6 9.93632e-11 16087.6)
(74066.2 -33488.2 1.01961e-10 -11944.2 1.30327e-10 18636.6)
(91786 -34491.6 1.08439e-10 -22577.3 3.04192e-11 20762.6)
(103496 -33991.5 1.57319e-11 -28921.4 -1.63448e-11 22372.3)
(110568 -32531.2 3.27807e-12 -31531.3 -4.84135e-12 23710.9)
(115043 -30722.5 -2.37437e-12 -32397.2 -6.8153e-13 24793.9)
(117706 -28797.8 8.57922e-11 -32086.3 4.53485e-11 25685.8)
(119324 -26837.2 -1.1456e-10 -31109.6 -7.42453e-11 26464.4)
(119881 -25033 1.0587e-10 -29760.7 4.38246e-11 27036.1)
(120953 -23401 1.13947e-11 -28076 6.03759e-12 27863.1)
(62274.4 -41446.2 1.10592e-10 27382.6 -1.84785e-10 26897.1)
(93570.6 -38177.6 1.085e-10 -2330.44 5.34961e-11 27372)
(109683 -34384.6 1.45087e-10 -15594.9 7.28948e-11 28226.3)
(119529 -31090.6 6.9841e-11 -24026.7 5.47166e-11 28650.6)
(125020 -28036.1 -1.10316e-10 -27942.1 -6.12191e-11 29123.4)
(127958 -25378.7 -9.89912e-11 -29818.4 -5.43147e-11 29441.8)
(129293 -23041.7 2.59831e-12 -30224.1 -1.54165e-12 29720.7)
(129631 -20958.6 -5.20537e-11 -29781.4 -2.98191e-11 29954.9)
(129226 -19239.4 5.41234e-11 -29006.4 4.97793e-11 30065.9)
(129007 -17612.3 7.37095e-11 -27523.3 1.68395e-11 30445.1)
(56295 -4079.54 1.09449e-11 -190.636 -3.99364e-14 16831.3)
(61146.7 -3648.28 2.03491e-11 1737.45 -6.13801e-12 18865.3)
(65503.6 -3304.81 1.09638e-12 3354.2 -1.43815e-14 20657.3)
(69510.4 -2988.2 -1.738e-11 4894.14 -9.38218e-12 22321.3)
(73136.4 -2706.15 -6.92969e-11 6376.97 -3.20421e-12 23854)
(76455.5 -2456.37 -1.05464e-11 7844.01 1.26435e-11 25289.9)
(79484.9 -2231.72 6.13235e-11 9337.93 6.53419e-12 26646.9)
(82258.1 -2031.02 -6.15223e-11 10879.5 -3.44664e-12 27941.3)
(84798.1 -1848.81 5.45504e-12 12500.4 1.84725e-11 29189.5)
(87124.8 -1682.69 3.37615e-11 14221.5 6.27802e-12 30403.9)
(89253.1 -1528.68 5.7377e-12 16068.7 1.73832e-11 31596.5)
(91198.1 -1383.83 6.68325e-11 18067.9 6.32133e-12 32779.8)
(92959.1 -1244.82 6.12424e-11 20243.7 -1.19911e-11 33960.8)
(94556.9 -1108.29 -6.64949e-11 22633.6 -5.83464e-12 35157.2)
(95956.2 -971.007 -9.87596e-11 25258.7 1.70999e-13 36364.5)
(97218.4 -828.79 5.2297e-11 28187 8.35698e-12 37621.6)
(98201.3 -678.369 -1.29741e-12 31412 -2.88088e-12 38884)
(99142.4 -512.731 3.64199e-11 35093.6 7.02908e-12 40270.8)
(99518.9 -332.865 3.04733e-11 39100.2 -2.97582e-13 41585.8)
(100276 -108.306 7.6034e-12 43879.7 7.90931e-13 43246.6)
(59096.4 -11890.9 3.11127e-13 -1637.37 3.42522e-13 17237.7)
(63448.8 -10654.8 -2.93845e-11 446.716 -3.26866e-12 19168.7)
(67453.2 -9666.19 1.51906e-11 2219.95 3.38638e-12 20901.9)
(71130.7 -8755.25 4.87165e-11 3878.13 1.66263e-11 22502.6)
(74498.8 -7940.21 -2.84737e-11 5477.34 -1.07302e-13 23992.8)
(77589.8 -7217.86 -4.17044e-11 7035.4 -1.35678e-11 25387.5)
(80433 -6565.96 2.79689e-11 8611.19 1.34061e-11 26713.2)
(83044.3 -5982.59 7.22087e-12 10218.4 6.53339e-12 27978.8)
(85448.8 -5451.62 -6.46408e-11 11894.7 -2.02129e-11 29203.1)
(87658.5 -4966.54 -3.85371e-11 13659.5 -7.08453e-12 30395.4)
(89686.9 -4515.83 -8.55897e-13 15540.9 -2.40937e-14 31568.3)
(91545.6 -4091.1 1.18197e-10 17564.8 9.89586e-12 32733.1)
(93232.4 -3682.62 5.44343e-12 19756.5 5.40721e-12 33896.7)
(94766.2 -3280.69 -2.75945e-11 22153.5 5.68904e-12 35075.9)
(96110.8 -2875.78 -5.99707e-12 24776.9 -6.61062e-12 36266.3)
(97326.2 -2455.58 -6.39504e-12 27694 -5.73036e-12 37506)
(98270.7 -2010.53 -2.28455e-11 30898 5.13395e-12 38750.6)
(99179.9 -1519.78 -1.65394e-11 34546.8 -1.50765e-12 40118)
(99535.4 -986.569 9.20627e-11 38508.3 1.25872e-11 41413.1)
(100274 -320.99 2.36795e-11 43224.7 5.95297e-12 43049.8)
(64093.4 -18799.1 1.71311e-11 -4427.92 -3.62977e-12 17899.7)
(67543.7 -16933.5 3.70779e-11 -2054.69 1.14407e-11 19646.7)
(70912.1 -15412.2 -9.47533e-11 21.8309 -8.17203e-12 21280.2)
(73996.6 -14012.5 1.02361e-11 1904.43 7.58733e-12 22770.3)
(76904.1 -12742.7 5.20336e-11 3729.14 -2.94212e-12 24190)
(79586 -11615.1 -8.01365e-11 5462.87 -4.9241e-12 25514.7)
(82097.2 -10589.1 -4.27317e-11 7197.66 -7.84971e-12 26788.5)
(84419.4 -9667.71 9.64799e-11 8932.61 6.23782e-12 28005.6)
(86582.3 -8824.73 5.4665e-11 10716.7 -4.57382e-12 29189.7)
(88583 -8051.8 -7.1462e-11 12566.8 -9.41543e-12 30344.9)
(90433.7 -7330.92 -8.1822e-11 14515 -1.62011e-11 31484.6)
(92138.9 -6649.33 3.25444e-11 16587.1 1.97736e-12 32617.8)
(93694.5 -5991.8 5.6238e-11 18809.8 9.18088e-12 33751.3)
(95115.2 -5342.88 1.95086e-12 21220.4 -9.25401e-12 34900.7)
(96364 -4687.41 3.65145e-12 23840.3 2.40884e-12 36061.3)
(97498.2 -4005.39 -8.15907e-11 26735.3 -8.95849e-12 37270)
(98377.8 -3281.45 -4.02624e-11 29898 -1.21547e-12 38482.7)
(99233.6 -2481.46 -1.48983e-11 33482.7 -6.37586e-12 39814.9)
(99557.4 -1611.03 3.16454e-11 37356.5 5.49811e-12 41074.2)
(100268 -524.757 2.884e-11 41951.6 1.25791e-11 42665.9)
(71188.4 -24287.4 1.80984e-11 -8191.24 5.96108e-12 18899.2)
(73366.4 -22070.2 -1.65784e-11 -5496.91 -2.34565e-13 20360.8)
(75859.4 -20190.2 9.18431e-12 -3015.82 -7.85522e-12 21853.1)
(78101.9 -18468.4 -1.26321e-12 -852.289 -8.27519e-12 23174.9)
(80362.8 -16866.6 6.48124e-12 1272.9 -3.72761e-12 24490.7)
(82461.3 -15439.6 -2.29628e-11 3239.33 -4.57111e-12 25710.2)
(84500.1 -14123.8 -2.87922e-11 5188.53 -8.57364e-12 26906.6)
(86408 -12935.3 -1.35205e-11 7097.34 -7.77369e-12 28051.6)
(88224.3 -11839.1 5.88576e-12 9029.43 3.76178e-12 29176.1)
(89924.3 -10828.1 2.521e-11 10997.9 1.46451e-11 30276.7)
(91518.7 -9879.66 -4.39375e-11 13039.4 -9.3506e-12 31367.4)
(93002.2 -8978.19 2.80749e-11 15179.5 8.11037e-12 32454.5)
(94367.4 -8104.34 6.59068e-11 17446.4 6.39131e-12 33544.1)
(95624.2 -7237.98 -2.66356e-11 19876.8 -7.69632e-12 34650.3)
(96733.7 -6359.21 -6.09502e-11 22491.7 -5.84623e-12 35767.6)
(97749.7 -5441.18 -3.81429e-11 25354.9 -7.36815e-12 36931.4)
(98534.5 -4463.37 2.70502e-11 28457.8 -1.40526e-12 38097.7)
(99312.2 -3379.19 3.26476e-11 31948.7 6.58725e-12 39378.3)
(99590 -2196.13 8.8768e-12 35694.4 1.41372e-12 40585.3)
(100259 -717.636 -1.98806e-11 40111.1 -1.21726e-11 42110.9)
(79903.3 -27967.4 3.48224e-11 -12518.7 -6.06968e-12 20215.4)
(80547.6 -25743.7 1.65059e-11 -9570.86 -2.17992e-11 21293)
(82015.3 -23723.6 -3.74289e-11 -6630.37 6.51206e-12 22615.5)
(83230.4 -21890.3 -1.69767e-11 -4170.13 -6.83524e-13 23718.1)
(84709.9 -20113.8 5.90491e-11 -1700.16 7.07066e-12 24902.9)
(86090.3 -18521.1 -3.32893e-11 536.501 1.0627e-11 25988)
(87546.4 -17023.4 -3.64107e-11 2738.06 -9.8595e-12 27085.3)
(88939.9 -15656.6 3.00829e-11 4854.94 -5.72638e-12 28138.5)
(90323 -14381.7 -1.45516e-11 6963.94 6.19754e-12 29186.1)
(91646 -13195 -8.55214e-13 9074.84 6.80273e-12 30216.3)
(92917 -12072.9 -3.25966e-11 11227.7 -3.00679e-12 31243.4)
(94119.8 -10998.3 -3.7703e-11 13448.4 -1.88268e-11 32270.5)
(95242.7 -9949.95 1.14075e-10 15766 1.38471e-11 33302.6)
(96289.7 -8904.13 1.35615e-11 18216.8 6.65254e-12 34351.9)
(97220.2 -7837.53 -2.25516e-11 20820.9 -5.63771e-12 35412.3)
(98083.1 -6717.4 1.72133e-11 23639.2 3.20703e-12 36516.7)
(98744.7 -5519 -7.49761e-11 26661.5 -1.83193e-11 37621.9)
(99419.5 -4184.49 3.11269e-11 30027.9 9.49336e-12 38834.2)
(99636.3 -2722.96 -1.43434e-11 33604.7 -4.01312e-12 39972.3)
(100247 -893.256 6.69403e-12 37786.1 2.1783e-12 41410)
(89662 -29598.9 -1.62192e-11 -16901.9 -2.08873e-11 21828)
(88632.5 -27738.1 -2.52121e-11 -13899.3 1.6044e-11 22420)
(89020.8 -25812.6 -2.53081e-11 -10537 7.74312e-12 23545.1)
(89095.8 -24098.9 -1.90626e-11 -7833.71 -2.03756e-11 24378.6)
(89711.6 -22328.9 4.17721e-11 -5042.24 3.05381e-11 25400.8)
(90285.2 -20723 4.33812e-11 -2541.2 7.82704e-12 26323.2)
(91079 -19172 6.82391e-11 -87.8025 5.05369e-12 27297.4)
(91886.3 -17733.1 -8.6225e-11 2247.1 -1.52235e-11 28240)
(92770.3 -16370.1 -5.6961e-11 4544.98 -1.20372e-12 29194.6)
(93658.4 -15083.7 -6.23763e-12 6813.66 -1.50752e-11 30141.6)
(94553.7 -13853.1 8.1716e-11 9092.93 9.14586e-12 31094)
(95429.9 -12661.9 -1.56105e-11 11408.5 -1.43092e-11 32051.5)
(96269.7 -11488.7 -4.84103e-11 13788.2 -6.96404e-12 33017.4)
(97071.2 -10308.1 2.25053e-11 16266.9 1.09492e-11 34001.4)
(97791.5 -9094.81 -3.19772e-11 18862.9 -6.01692e-12 34996.3)
(98474 -7811.66 -1.70698e-11 21632.6 -3.72454e-12 36032)
(98990.3 -6430.81 -6.77176e-12 24563.2 -2.75729e-12 37066.1)
(99542.9 -4884.62 3.49831e-11 27784 9.24509e-12 38198.1)
(99688.4 -3183.57 4.25801e-11 31160.2 1.40461e-11 39254.6)
(100231 -1049.19 -3.35316e-11 35057.1 -2.27509e-11 40586.4)
(99869.8 -29145.3 -7.10225e-12 -20800.1 6.62402e-12 23720.9)
(97174.7 -28013.1 1.44083e-11 -17997.5 8.02446e-12 23753.1)
(96532.3 -26418.1 7.38368e-11 -14318 9.33295e-12 24664.3)
(95452.8 -25042.7 -1.17421e-10 -11432.3 -2.35989e-11 25206.2)
(95180.6 -23466.9 -8.13991e-12 -8378.19 9.08348e-12 26040.7)
(94920.3 -21993.4 7.89107e-12 -5629.28 -8.62852e-12 26787.3)
(95009.2 -20517.6 8.34604e-11 -2944.14 2.65269e-11 27619.5)
(95194 -19108.6 3.33776e-11 -398.437 3.46585e-12 28438.7)
(95536.3 -17746 -4.59358e-11 2079.13 -2.13052e-11 29284.6)
(95951.2 -16434.5 -2.01802e-11 4497.98 -1.00665e-11 30134.7)
(96431.8 -15161 -3.26519e-11 6894.51 -4.29003e-12 30997.9)
(96945 -13911 8.64628e-12 9294.66 4.47735e-12 31871.9)
(97467.1 -12665.4 2.8184e-11 11724.8 1.32713e-11 32757.5)
(97990.4 -11398.3 0 14217.7 0 33662.4)
(98470.6 -10083.9 5.97422e-12 16789.2 -4.90727e-12 34577.9)
(98944.9 -8681.75 3.26607e-11 19490.4 8.01394e-12 35530.6)
(99292.1 -7162.19 -1.58394e-11 22305.1 -2.42796e-12 36479.2)
(99700.2 -5449.91 -5.87266e-11 25349.1 -2.07411e-11 37514.8)
(99759.7 -3556.79 4.97974e-11 28487.5 1.80022e-11 38474.2)
(100216 -1177.37 -1.51432e-11 32050 -1.34225e-11 39679.7)
(109818 -26668.1 7.08118e-11 -23820.5 8.8286e-12 25799.1)
(105607 -26549.5 -5.63172e-11 -21561.5 -1.22811e-11 25213.6)
(104041 -25513.4 5.09292e-11 -17888.8 2.44196e-11 25845.6)
(101899 -24656.3 1.67136e-11 -14959.8 7.57227e-12 26081.7)
(100747 -23475.9 -1.30213e-10 -11812.9 -4.82151e-11 26680.3)
(99684.2 -22286.4 3.04158e-11 -8898.8 1.36756e-11 27235.6)
(99055.4 -21031.3 3.42722e-11 -6048.6 4.35838e-12 27902)
(98613.6 -19771.3 1.22679e-10 -3321.71 3.3635e-11 28587.6)
(98397.5 -18512.2 -3.20439e-11 -674.952 -4.26959e-12 29316.8)
(98325.1 -17261.8 -8.95332e-12 1899.93 6.83627e-12 30067.5)
(98375.5 -16018.2 8.69461e-12 4428.93 -6.15339e-12 30841.3)
(98511.9 -14771.2 -8.58702e-12 6934.01 5.38705e-12 31633.8)
(98703.3 -13506.6 9.9639e-12 9436.28 1.3905e-11 32441.9)
(98937 -12200.6 1.14794e-10 11964.2 2.89509e-11 33270.3)
(99166.6 -10828.7 -4.8879e-11 14529.1 -1.56885e-11 34108.7)
(99423.3 -9349.22 -9.39515e-11 17174.8 -2.52185e-11 34979.4)
(99593.9 -7731.97 7.70486e-11 19880.7 2.57588e-11 35842.4)
(99850.6 -5895.77 1.5011e-11 22746.7 4.63787e-12 36779.2)
(99822.7 -3854.06 -4.42716e-11 25636.1 -1.76e-11 37637.6)
(100191 -1281.54 1.32256e-11 28836.8 7.97071e-12 38708.5)
(119119 -22628.5 -6.52937e-11 -25457.2 -2.57707e-11 28098.6)
(113723 -23665.7 -2.31103e-11 -23746.2 4.74402e-12 26992.9)
(111345 -23432.9 2.07861e-11 -20437.3 -5.23123e-12 27272.2)
(108376 -23156.6 7.43216e-11 -17515 1.46059e-11 27258.4)
(106391 -22504.5 -5.21294e-11 -14407.6 -9.7503e-12 27595.1)
(104622 -21678.3 -3.89667e-11 -11403.4 3.82649e-12 27965.7)
(103307 -20723.1 0 -8467.7 0 28451.7)
(102266 -19683.4 6.14084e-11 -5637.22 1.88982e-11 28988.7)
(101498 -18594.7 8.94661e-11 -2897.37 3.16292e-11 29580.1)
(100934 -17470.3 3.25971e-11 -240.497 5.18832e-12 30208.1)
(100541 -16318.1 -5.7019e-11 2351.93 -1.74611e-11 30868)
(100282 -15133.2 -9.71145e-11 4898.47 -1.78387e-11 31554.1)
(100119 -13905.5 -4.77561e-11 7415.62 -2.23366e-11 32260.5)
(100038 -12613.7 9.17914e-11 9926.59 2.06394e-11 32989.5)
(99992 -11235.3 1.01859e-10 12437.7 3.47326e-11 33728.9)
(100006 -9728.8 -4.84545e-11 14983.5 -1.72845e-11 34496.7)
(99976.5 -8064.56 -1.77277e-11 17537.9 -7.96091e-12 35254.3)
(100058 -6158.67 6.32457e-11 20181.7 2.5624e-11 36071.9)
(99925.7 -4026.94 -5.79237e-11 22779.8 -2.55875e-11 36811.6)
(100180 -1342.64 1.19014e-13 25575.5 8.19214e-14 37726.7)
(126461 -17091.4 5.2824e-11 -26380.1 1.41969e-11 30024.4)
(120967 -18914.3 -3.99566e-11 -25077.6 -8.0255e-12 28767)
(117675 -19836 1.41274e-12 -22872.3 -1.00401e-11 28440.8)
(114207 -20306.3 -2.01227e-11 -20286 3.87455e-12 28176.3)
(111401 -20420 -3.70171e-11 -17478.4 2.78341e-13 28176.9)
(108979 -20186.9 -3.24354e-11 -14551.4 -1.92194e-11 28328.4)
(106999 -19715.7 -2.70302e-11 -11592.8 -2.98386e-11 28621.9)
(105384 -19051.5 -1.91622e-12 -8663.51 1.46675e-12 29016.3)
(104098 -18248.8 2.05623e-12 -5789.85 -1.13387e-12 29492.3)
(103082 -17339.2 6.42537e-11 -2987.49 1.12887e-11 30028.4)
(102292 -16344.2 8.12608e-11 -256.371 3.36024e-11 30610.6)
(101684 -15271.6 -5.12366e-11 2410.06 -2.53234e-11 31228.3)
(101217 -14119.9 -8.08974e-11 5019.01 -3.04071e-11 31870.8)
(100868 -12874.7 -5.30052e-11 7586.01 -1.84969e-11 32536.1)
(100589 -11517.4 2.16446e-11 10110.5 1.05535e-11 33209.9)
(100400 -10009.6 1.01596e-12 12617.3 1.12413e-13 33905.1)
(100208 -8323.34 -2.8853e-11 15073.8 -1.00458e-11 34584.6)
(100150 -6374.01 5.56785e-13 17541.2 1.38333e-13 35307.3)
(99951.2 -4177.87 2.80173e-11 19886 1.2991e-11 35951.2)
(100140 -1399.76 -7.53865e-12 22305.9 -5.84684e-12 36733.7)
(131359 -12506.4 1.91902e-11 -25127.8 1.11395e-11 31869.5)
(126470 -14044.2 3.82111e-11 -23511.3 2.61558e-11 30887.7)
(122453 -15845.3 3.96585e-11 -22166.7 1.16212e-11 30086)
(118811 -16844.2 1.07084e-11 -20144.1 1.74917e-12 29600.1)
(115640 -17490.2 1.4087e-11 -17756.3 1.87996e-11 29365)
(112873 -17753.4 3.61408e-12 -15166 -1.2318e-11 29312.1)
(110514 -17722.5 -7.38239e-11 -12453.9 -2.73907e-11 29418.2)
(108512 -17446.9 -2.63812e-11 -9706.16 -5.89283e-12 29641.6)
(106836 -16975.3 2.62578e-11 -6963.19 5.70144e-12 29961.8)
(105441 -16343.5 -3.22384e-11 -4256.78 -6.50325e-12 30355.2)
(104288 -15576.8 8.21656e-11 -1601.07 3.60201e-11 30806)
(103340 -14688.7 5.03777e-11 997.738 1.9845e-11 31301.3)
(102558 -13683.4 -7.39019e-12 3535.74 5.65309e-12 31828.3)
(101922 -12552.6 1.85657e-11 6017.15 1.13198e-11 32381.8)
(101388 -11282.5 2.93861e-11 8432.35 8.50504e-12 32946.3)
(100971 -9841.05 -2.06175e-12 10792.8 -5.58519e-13 33529.2)
(100593 -8204.31 1.75418e-11 13058.8 9.0323e-12 34095.6)
(100368 -6294.59 9.31674e-12 15267.5 2.86889e-12 34690.6)
(100068 -4132.34 -2.80702e-11 17284.3 -1.35028e-11 35205.7)
(100133 -1388.18 -1.38073e-11 19263.2 -1.53151e-11 35818.9)
(131015 -8838.22 -1.3133e-10 -22221.2 -4.25547e-11 32638.1)
(127465 -10539 -6.45362e-11 -21852.8 -3.73482e-11 31683.6)
(123843 -12479.7 5.64813e-11 -20743.6 2.98919e-12 30929.7)
(120551 -13803.4 -3.12887e-11 -19108.4 2.01509e-11 30432.9)
(117554 -14748.9 -6.0213e-11 -17050.7 -3.02873e-11 30150.9)
(114862 -15323.4 7.2844e-11 -14753.5 1.81903e-11 30032.5)
(112486 -15589.8 -6.73841e-25 -12298.2 -2.71935e-25 30056.3)
(110401 -15593.5 -7.70211e-11 -9770.07 -4.22141e-11 30189.3)
(108593 -15376.9 -1.45387e-25 -7216.25 -1.13095e-25 30413.1)
(107033 -14972.9 -2.03334e-11 -4675.34 -1.51917e-11 30707.2)
(105693 -14405.8 -1.98888e-11 -2169.91 -1.42662e-11 31057)
(104547 -13690.1 3.13849e-11 284.72 7.71966e-12 31449.5)
(103565 -12831.9 -3.07816e-11 2676.22 -8.07693e-12 31872.3)
(102729 -11826.7 -8.97449e-25 4998.93 -2.77133e-25 32318.5)
(102008 -10665 2.97263e-11 7235.97 9.27242e-12 32773.1)
(101412 -9320.63 -2.92702e-11 9386.6 -1.01306e-11 33239.5)
(100881 -7775.27 -1.78549e-11 11406.7 -9.56594e-12 33686.4)
(100514 -5961.5 2.84945e-11 13313.5 1.24548e-11 34148.2)
(100131 -3905.32 -3.49799e-25 14975.8 -1.72549e-25 34532.1)
(100103 -1308.32 -8.481e-12 16506.7 -7.93291e-12 34983)
(130895 -5112.53 -2.64086e-11 -19512.8 -1.78481e-11 33414.6)
(127648 -7058.33 6.08237e-11 -19615 7.45719e-12 32409.8)
(124530 -9149.24 -7.97505e-11 -19003.6 -2.66471e-11 31658)
(121494 -10717.6 2.12628e-11 -17834.6 2.10095e-11 31098)
(118687 -11925.5 1.1897e-11 -16192.4 -3.85329e-11 30748.4)
(116085 -12783 -4.52499e-25 -14255.7 -2.16632e-25 30548.8)
(113736 -13328.1 1.49104e-11 -12105.3 -8.9011e-12 30489.2)
(111622 -13600.7 -3.48147e-11 -9834.85 -8.88498e-12 30536.2)
(109746 -13633.8 -2.02691e-11 -7498.45 -1.63896e-11 30674.1)
(108086 -13457 -4.77158e-25 -5144.17 -1.91517e-25 30882.5)
(106627 -13092.4 -1.96568e-11 -2803.49 -1.45769e-11 31147.1)
(105349 -12554.7 -3.32181e-25 -501.094 -8.98053e-26 31454.4)
(104230 -11851.9 -6.92466e-11 1742.32 -3.46988e-11 31791.8)
(103258 -10982.6 -3.75998e-11 3911.85 -2.42494e-11 32151.1)
(102408 -9941.2 1.14672e-11 5983.54 -1.38838e-12 32517.4)
(101690 -8707.52 1.12501e-11 7945.75 1.01837e-13 32890.9)
(101061 -7269.09 -1.80434e-11 9750 -1.00869e-11 33243.2)
(100600 -5569.08 -8.93801e-27 11395.9 3.49483e-27 33598.8)
(100175 -3639.42 -1.75242e-11 12757.8 -9.06889e-12 33879.9)
(100082 -1214.95 -3.68946e-11 13913.5 -4.10519e-11 34198.7)
(129791 -2241.82 1.06203e-11 -16973.2 -1.54731e-11 33845.5)
(126995 -4153.88 -4.04186e-11 -17471.9 -1.52658e-11 32856.8)
(124363 -6265.02 -1.66999e-25 -17163.7 -8.18431e-26 32159.9)
(121654 -7947.77 1.90496e-11 -16336.6 -7.78693e-12 31595.3)
(119115 -9318.75 1.97956e-11 -15024.3 1.98583e-11 31227.1)
(116686 -10371 3.21124e-25 -13398.1 9.56613e-26 30986.3)
(114447 -11124.8 4.26837e-26 -11532 -1.16676e-25 30874.4)
(112382 -11608.8 -1.52347e-11 -9518.15 7.53718e-12 30859.2)
(110509 -11847.2 0 -7412.34 0 30929.1)
(108817 -11864.4 -8.05934e-25 -5266.7 -3.45821e-25 31065)
(107298 -11679.2 0 -3118.03 0 31254.1)
(105942 -11305.2 6.39386e-11 -997.362 1.87893e-11 31483.4)
(104734 -10750.9 1.24356e-11 1068.32 -3.49678e-12 31740.6)
(103666 -10017.1 -4.94669e-11 3056.72 -2.25363e-11 32016.8)
(102721 -9101.68 -1.85025e-11 4938.19 -1.1747e-11 32297.9)
(101912 -7989.76 -2.97675e-11 6692.08 -1.14362e-11 32581.2)
(101206 -6674.42 -1.12654e-11 8267.16 -1.80432e-12 32841.8)
(100671 -5109.69 2.90137e-11 9648.78 1.34729e-11 33095.9)
(100214 -3331.55 2.87385e-11 10719.1 1.47612e-11 33279.8)
(100062 -1109.43 -2.85893e-11 11524.4 -3.27729e-11 33476.1)
(128052 163.128 -7.98257e-12 -14571.1 2.54165e-11 34044.4)
(125681 -1704.95 -1.69565e-11 -15329.8 -2.07959e-11 33105.3)
(123513 -3773.85 -5.66835e-11 -15281.7 -3.48549e-11 32469.5)
(121145 -5492.69 -2.02167e-11 -14765.2 6.66343e-12 31913.9)
(118899 -6950.86 5.59648e-11 -13762.3 3.19395e-11 31541.1)
(116685 -8127.03 3.66714e-11 -12436.7 1.17286e-11 31274.3)
(114604 -9028.62 -4.41297e-25 -10850.3 -2.62248e-25 31126.2)
(112643 -9672.99 -3.50262e-11 -9093.77 -1.06303e-11 31064.9)
(110832 -10075.7 3.42407e-11 -7222.6 1.02986e-11 31082.7)
(109163 -10254.8 -1.89174e-11 -5291.95 -1.56515e-11 31161.4)
(107642 -10224.9 -1.88479e-11 -3342.38 -1.48695e-11 31289.8)
(106260 -9997.8 1.33668e-11 -1410 -3.94479e-12 31455.1)
(105013 -9581.55 1.86344e-11 473.305 1.33841e-11 31645.8)
(103896 -8978.47 0 2279.24 0 31852.6)
(102900 -8189.04 0 3973.72 0 32062.2)