/*--------------------------------*- C++ -*----------------------------------*\
| =========                 |                                                 |
| \\      /  F ield         | foam-extend: Open Source CFD                    |
|  \\    /   O peration     | Version:     4.1                                |
|   \\  /    A nd           | Web:         http://www.foam-extend.org         |
|    \\/     M anipulation  |                                                 |
\*---------------------------------------------------------------------------*/
FoamFile
{
    version     2.0;
    format      ascii;
    class       volScalarField;
    location    "7";
    object      sigmaEq;
}
// * * * * * * * * * * * * * * * * * * * * * * * * * * * * * * * * * * * * * //

dimensions      [1 -1 -2 0 0 0 0];

internalField   nonuniform List<scalar> 
1000
(
744458
848856
932389
995651
1.02505e+06
1.03653e+06
1.0348e+06
1.02512e+06
1.01211e+06
993861
931877
946967
983471
1.02279e+06
1.03931e+06
1.04375e+06
1.03773e+06
1.02608e+06
1.00993e+06
993408
1.11451e+06
1.04437e+06
1.02904e+06
1.03963e+06
1.04015e+06
1.0356e+06
1.02424e+06
1.00965e+06
991235
974109
1.28676e+06
1.13762e+06
1.06901e+06
1.04769e+06
1.02975e+06
1.01467e+06
997173
979386
959008
941720
1.44378e+06
1.22356e+06
1.1032e+06
1.0486e+06
1.01056e+06
983729
959491
938212
916322
898831
1.5814e+06
1.29948e+06
1.13163e+06
1.04445e+06
985781
946529
915112
890091
866816
848974
1.69599e+06
1.36306e+06
1.15428e+06
1.03742e+06
959041
907474
868822
839918
815343
796901
1.7846e+06
1.41245e+06
1.17124e+06
1.02977e+06
934297
871628
826278
793653
767863
748646
1.84494e+06
1.44618e+06
1.1825e+06
1.02338e+06
915184
843965
793318
757653
730866
710896
1.87519e+06
1.46291e+06
1.18759e+06
1.01917e+06
904094
828151
774521
737114
709749
689336
683877
453051
324437
271000
251746
255445
269238
289152
310635
332448
655165
451387
353966
325779
320517
328393
340638
356235
371890
389263
597497
449057
404347
409935
420726
433589
444724
456020
465163
477398
514481
450729
467802
505095
529631
546963
557530
565478
569173
576919
411926
461742
537793
600951
636219
657056
667170
672376
671637
675482
303026
487107
609841
691832
734695
757839
767324
770065
765678
765967
226527
530011
681231
774564
821767
845866
854372
854786
847404
844348
257472
590600
750120
847076
895189
918692
925755
923818
914209
907799
388312
666548
815427
908368
953871
975210
980234
976111
964865
955829
559473
754031
876311
957769
996932
1.01409e+06
1.01608e+06
1.00897e+06
997110
982965
354784
373383
390957
406944
421018
433379
443878
452600
459509
464618
467885
469278
468681
466052
461106
453929
443768
431409
414525
397010
403499
412990
423833
434180
443711
452364
459835
466066
470921
474324
476171
476375
474783
471322
465684
457940
447334
434638
417566
399981
481119
478092
479024
480786
483108
485718
488136
490133
491448
491876
491225
489328
485973
481034
474177
465436
454062
440800
423446
405789
571014
556053
546769
539376
533629
529231
525604
522396
519261
515876
511976
507306
501601
494679
486176
476091
463689
449682
431993
414303
661659
636990
618591
602843
589387
578035
568242
559562
551654
544095
536584
528795
520422
511233
500844
489221
475662
460842
442857
425250
745983
714418
688676
666027
645983
628397
612946
599072
586520
574804
563623
552612
541444
529858
517469
504221
489461
473837
455664
438332
819908
784295
753272
725172
699887
676966
656587
638049
621251
605678
591047
576978
563139
549257
534954
520169
504319
488029
469869
453049
880547
843667
810302
778484
749755
722813
698532
676109
655598
636541
618697
601723
585306
569188
553021
536752
519887
503039
485070
469024
927700
890329
857400
823070
792024
762130
734775
709324
685855
664021
643589
624258
605738
587796
570130
552708
535150
518060
500612
485599
959725
924369
895208
861773
830063
798862
769308
741414
715305
690867
667938
646302
625711
605970
586829
568286
550082
532832
516039
502305
972138
936186
908430
877711
847169
817020
787860
759919
733369
708212
684393
661794
640264
619690
599919
581012
562851
546057
530430
518236
947427
926045
901107
874632
847126
819491
792236
765704
740126
715600
692155
669766
648372
627946
608430
589962
572547
556833
542864
532660
927109
909489
889524
866809
842656
817727
792674
767872
743631
720114
697430
675629
654732
634788
615828
598052
581585
567078
554779
546403
904032
890528
874296
854868
833818
811540
788795
765926
743299
721118
699552
678711
658684
639583
621516
604736
589464
576338
565767
559168
879087
868924
856159
839909
821909
802319
781975
761186
740365
719744
699540
679912
661004
642982
626017
610401
596431
584720
575795
570806
853436
846148
836298
822853
807617
790577
772595
753935
735034
716133
697484
679278
661705
644966
629285
614979
602399
592124
584758
581204
827681
822770
815411
804499
791792
777172
761479
744945
728008
710914
693934
677283
661179
645853
631561
618636
607465
598581
592636
590314
802357
799383
794107
785413
774965
762584
749065
734606
719634
704389
689149
674140
659599
645772
632938
621431
611655
604094
599419
598121
777790
776353
772810
766056
757629
747314
735844
723388
710348
696953
683479
670153
657220
644932
633576
623479
615048
608714
605142
604662
754160
753936
751824
746758
740129
731709
722157
711615
700452
688882
677169
665534
654220
643476
633588
624867
617709
612492
609856
609999
731545
732282
731359
727768
722751
716073
708314
699592
690238
680447
670464
660499
650785
641560
633100
625695
619720
615501
613637
614224
709948
711464
711552
709271
705713
700643
694562
687565
679944
671870
663566
655226
647068
639314
632222
626056
621163
617821
616575
617447
689327
691541
692498
691403
689191
685619
681118
675756
669785
663354
656662
649883
643216
636863
631061
626045
622127
619540
618772
619789
669643
672470
674269
674309
673364
671208
668194
664377
659967
655094
649929
644627
639366
634327
629721
625753
622700
620754
620334
621381
650824
654413
656954
658076
658377
657580
655981
653624
650682
647267
643526
639598
635639
631808
628291
625265
622966
621549
621368
622349
632985
637052
640617
643022
644498
645012
644741
643747
642160
640081
637638
634953
632165
629414
626863
624661
623004
622018
621980
622824
615785
622631
625588
629400
631921
633731
634695
634964
634602
633715
632411
630807
629030
627209
625484
623984
622865
622222
622258
622915
600060
606429
612385
617114
621035
624051
626229
627626
628332
628443
628072
627337
626366
625282
624215
623276
622589
622220
622299
622763
585568
593611
600736
606885
612157
616384
619658
622023
623581
624441
624733
624591
624160
623575
622968
622445
622109
621986
622136
622449
573606
583364
592174
599797
606286
611565
615703
618758
620850
622114
622709
622804
622573
622180
621780
621487
621402
621520
621847
622165
674678
694750
729925
775170
824377
871962
913453
945694
967628
976046
662430
680050
711238
752050
797509
842871
884124
917551
941950
953511
652505
667923
695316
731494
772332
813829
852903
886367
914055
932106
644293
657718
681711
713732
750384
788180
824464
856221
883381
905142
636957
648616
669543
697718
730372
764590
798159
828552
854818
877846
630311
640428
658657
683384
712309
742981
773424
801803
826495
849883
623922
632701
648574
670259
695842
723317
750839
777160
799983
822488
617609
625228
639043
658033
680576
705050
729720
753870
774842
796025
611135
617759
629801
646448
666316
688101
710159
732134
751253
770779
604335
610104
620612
635213
652713
672069
691747
711630
729016
746820
597031
602070
611270
624110
639556
656764
674323
692237
708008
724122
589064
593483
601570
612900
626576
641901
657605
673731
688046
702591
580235
584133
591289
601348
613530
627244
641358
655906
668946
682090
570390
573857
580247
589257
600206
612578
625375
638591
650563
662519
559216
562340
568126
576308
586287
597600
609369
621531
632686
643685
546619
549482
554822
562394
571666
582212
593260
604684
615321
625713
531957
534649
539714
546919
555785
565906
576590
587683
598117
608451
515496
518111
523077
530163
538929
548974
559675
570775
581448
591778
495498
498163
503275
510595
519707
530202
541497
553244
564780
575875
474024
476868
482355
490235
500100
511532
523942
536930
549840
562332
)
;

boundaryField
{
    left
    {
        type            symmetryPlane;
        value           nonuniform List<scalar> 
30
(
674211
662020
652144
643978
636685
630076
623720
617434
610984
604205
596919
588969
580155
570324
559163
546579
531928
515479
495490
474023
1.87115e+06
1.46159e+06
1.18729e+06
1.01915e+06
904057
827994
774238
736735
709314
688851
)
;
    }
    right
    {
        type            calculated;
        value           nonuniform List<scalar> 
30
(
395904
398864
404666
413177
424125
437227
451966
468007
484614
501468
517439
532020
545885
558763
570507
580994
590181
598050
604639
610011
614261
617499
619849
621441
622404
622871
622951
622791
622465
622205
)
;
    }
    down
    {
        type            symmetryPlane;
        value           nonuniform List<scalar> 
30
(
683115
452820
322174
266160
245225
248535
262725
283376
305690
328108
351319
370754
388898
405329
419738
432355
443052
451929
458962
464170
467518
468978
468438
465859
460955
453817
443691
431364
414506
397007
)
;
    }
    up
    {
        type            calculated;
        value           nonuniform List<scalar> 
30
(
473346
476187
481677
489563
499436
510889
523319
536350
549284
561854
573172
583008
591871
599544
606083
611402
615573
618653
620765
622043
622649
622752
622528
622141
621747
621462
621385
621507
621840
622135
)
;
    }
    hole
    {
        type            calculated;
        value           nonuniform List<scalar> 
20
(
721647
926096
1.12285e+06
1.30714e+06
1.47447e+06
1.62075e+06
1.74237e+06
1.83631e+06
1.90022e+06
1.93235e+06
706769
674390
609518
514183
390944
242940
73970.1
111714
309477
514458
)
;
    }
    frontAndBack
    {
        type            empty;
    }
}


// ************************************************************************* //
