/*--------------------------------*- C++ -*----------------------------------*\
| =========                 |                                                 |
| \\      /  F ield         | foam-extend: Open Source CFD                    |
|  \\    /   O peration     | Version:     4.1                                |
|   \\  /    A nd           | Web:         http://www.foam-extend.org         |
|    \\/     M anipulation  |                                                 |
\*---------------------------------------------------------------------------*/
FoamFile
{
    version     2.0;
    format      ascii;
    class       vectorField;
    location    "7";
    object      solidsCellD_iteration1;
}
// * * * * * * * * * * * * * * * * * * * * * * * * * * * * * * * * * * * * * //


1000
(
(3.4435e-06 -1.42657e-06 0)
(3.25593e-06 -1.32771e-06 0)
(3.13695e-06 -1.26485e-06 0)
(3.06988e-06 -1.23532e-06 0)
(3.03856e-06 -1.22478e-06 0)
(3.03338e-06 -1.22898e-06 0)
(3.04742e-06 -1.24278e-06 0)
(3.07594e-06 -1.2638e-06 0)
(3.11479e-06 -1.28994e-06 0)
(3.16137e-06 -1.32021e-06 0)
(3.11442e-06 -1.5582e-06 0)
(2.91441e-06 -1.48922e-06 0)
(2.78747e-06 -1.44534e-06 0)
(2.7144e-06 -1.42873e-06 0)
(2.67828e-06 -1.42676e-06 0)
(2.66858e-06 -1.43709e-06 0)
(2.67811e-06 -1.45534e-06 0)
(2.70176e-06 -1.47964e-06 0)
(2.73539e-06 -1.50848e-06 0)
(2.77615e-06 -1.53974e-06 0)
(2.77223e-06 -1.68301e-06 0)
(2.56772e-06 -1.64743e-06 0)
(2.43787e-06 -1.62468e-06 0)
(2.362e-06 -1.62234e-06 0)
(2.32304e-06 -1.62971e-06 0)
(2.31007e-06 -1.64648e-06 0)
(2.31586e-06 -1.66921e-06 0)
(2.3353e-06 -1.69662e-06 0)
(2.36435e-06 -1.7278e-06 0)
(2.40034e-06 -1.76043e-06 0)
(2.41951e-06 -1.79874e-06 0)
(2.21907e-06 -1.79823e-06 0)
(2.09175e-06 -1.79765e-06 0)
(2.01651e-06 -1.81013e-06 0)
(1.97687e-06 -1.82716e-06 0)
(1.962e-06 -1.85053e-06 0)
(1.96497e-06 -1.8777e-06 0)
(1.98075e-06 -1.90821e-06 0)
(2.0057e-06 -1.94165e-06 0)
(2.03701e-06 -1.97589e-06 0)
(2.05857e-06 -1.90314e-06 0)
(1.87085e-06 -1.93738e-06 0)
(1.75154e-06 -1.9588e-06 0)
(1.68046e-06 -1.98592e-06 0)
(1.64234e-06 -2.01239e-06 0)
(1.62695e-06 -2.04217e-06 0)
(1.62791e-06 -2.07365e-06 0)
(1.64049e-06 -2.10717e-06 0)
(1.66152e-06 -2.14277e-06 0)
(1.68818e-06 -2.17877e-06 0)
(1.69139e-06 -1.99403e-06 0)
(1.52464e-06 -2.06078e-06 0)
(1.41865e-06 -2.10277e-06 0)
(1.35512e-06 -2.14354e-06 0)
(1.32064e-06 -2.17886e-06 0)
(1.30601e-06 -2.21461e-06 0)
(1.30569e-06 -2.25005e-06 0)
(1.31546e-06 -2.28637e-06 0)
(1.33266e-06 -2.32396e-06 0)
(1.35458e-06 -2.36172e-06 0)
(1.31966e-06 -2.06939e-06 0)
(1.18134e-06 -2.16462e-06 0)
(1.09343e-06 -2.22464e-06 0)
(1.04051e-06 -2.27736e-06 0)
(1.01152e-06 -2.32039e-06 0)
(9.98821e-07 -2.36137e-06 0)
(9.97863e-07 -2.40026e-06 0)
(1.00513e-06 -2.43907e-06 0)
(1.01852e-06 -2.4784e-06 0)
(1.03564e-06 -2.51779e-06 0)
(9.44756e-07 -2.12749e-06 0)
(8.41141e-07 -2.2456e-06 0)
(7.753e-07 -2.32013e-06 0)
(7.3556e-07 -2.38243e-06 0)
(7.13637e-07 -2.43164e-06 0)
(7.03823e-07 -2.4768e-06 0)
(7.02745e-07 -2.51848e-06 0)
(7.07757e-07 -2.5593e-06 0)
(7.1732e-07 -2.60001e-06 0)
(7.29578e-07 -2.64076e-06 0)
(5.67774e-07 -2.16698e-06 0)
(5.03615e-07 -2.30109e-06 0)
(4.62832e-07 -2.38577e-06 0)
(4.38152e-07 -2.45479e-06 0)
(4.24472e-07 -2.50833e-06 0)
(4.18271e-07 -2.5564e-06 0)
(4.17466e-07 -2.60003e-06 0)
(4.20394e-07 -2.64229e-06 0)
(4.26123e-07 -2.68401e-06 0)
(4.3348e-07 -2.72575e-06 0)
(1.8963e-07 -2.18687e-06 0)
(1.67866e-07 -2.32921e-06 0)
(1.54018e-07 -2.41914e-06 0)
(1.45631e-07 -2.49164e-06 0)
(1.40966e-07 -2.54741e-06 0)
(1.38819e-07 -2.59699e-06 0)
(1.38496e-07 -2.64162e-06 0)
(1.39445e-07 -2.68459e-06 0)
(1.41347e-07 -2.72681e-06 0)
(1.43792e-07 -2.76906e-06 0)
(5.36319e-06 -6.51307e-08 0)
(5.4119e-06 -4.70148e-08 0)
(5.44272e-06 -3.55132e-08 0)
(5.47652e-06 -2.87341e-08 0)
(5.51341e-06 -2.49441e-08 0)
(5.55834e-06 -2.31639e-08 0)
(5.61102e-06 -2.2731e-08 0)
(5.67201e-06 -2.31841e-08 0)
(5.74106e-06 -2.42685e-08 0)
(5.81727e-06 -2.55701e-08 0)
(5.32372e-06 -1.95362e-07 0)
(5.36457e-06 -1.42086e-07 0)
(5.39045e-06 -1.08332e-07 0)
(5.42098e-06 -8.84989e-08 0)
(5.45574e-06 -7.74633e-08 0)
(5.49913e-06 -7.23293e-08 0)
(5.55072e-06 -7.11551e-08 0)
(5.6108e-06 -7.25888e-08 0)
(5.67908e-06 -7.58666e-08 0)
(5.75445e-06 -7.97917e-08 0)
(5.24485e-06 -3.26724e-07 0)
(5.27078e-06 -2.41188e-07 0)
(5.28719e-06 -1.87037e-07 0)
(5.31146e-06 -1.55304e-07 0)
(5.3421e-06 -1.37732e-07 0)
(5.3826e-06 -1.29681e-07 0)
(5.43209e-06 -1.28e-07 0)
(5.49047e-06 -1.30527e-07 0)
(5.55737e-06 -1.36005e-07 0)
(5.63121e-06 -1.42575e-07 0)
(5.12798e-06 -4.59733e-07 0)
(5.13268e-06 -3.46594e-07 0)
(5.13561e-06 -2.74973e-07 0)
(5.15097e-06 -2.33185e-07 0)
(5.17572e-06 -2.10188e-07 0)
(5.21204e-06 -1.99887e-07 0)
(5.2585e-06 -1.98058e-07 0)
(5.31445e-06 -2.01862e-07 0)
(5.37936e-06 -2.09568e-07 0)
(5.45103e-06 -2.18821e-07 0)
(4.97487e-06 -5.94762e-07 0)
(4.95331e-06 -4.60191e-07 0)
(4.93958e-06 -3.7499e-07 0)
(4.94386e-06 -3.25604e-07 0)
(4.96132e-06 -2.9867e-07 0)
(4.99249e-06 -2.87008e-07 0)
(5.03521e-06 -2.85515e-07 0)
(5.08816e-06 -2.90841e-07 0)
(5.1506e-06 -3.00815e-07 0)
(5.21966e-06 -3.12794e-07 0)
(4.78784e-06 -7.31858e-07 0)
(4.73648e-06 -5.83184e-07 0)
(4.70391e-06 -4.89014e-07 0)
(4.69564e-06 -4.34939e-07 0)
(4.70479e-06 -4.05837e-07 0)
(4.73006e-06 -3.93881e-07 0)
(4.76848e-06 -3.93294e-07 0)
(4.81797e-06 -4.00429e-07 0)
(4.87756e-06 -4.12717e-07 0)
(4.94375e-06 -4.27458e-07 0)
(4.56952e-06 -8.70761e-07 0)
(4.48668e-06 -7.16066e-07 0)
(4.43419e-06 -6.18023e-07 0)
(4.41264e-06 -5.6248e-07 0)
(4.41293e-06 -5.33183e-07 0)
(4.43188e-06 -5.22115e-07 0)
(4.46565e-06 -5.23092e-07 0)
(4.51141e-06 -5.32369e-07 0)
(4.56788e-06 -5.47082e-07 0)
(4.63117e-06 -5.64628e-07 0)
(4.32281e-06 -1.01083e-06 0)
(4.20873e-06 -8.58508e-07 0)
(4.13644e-06 -7.61891e-07 0)
(4.10162e-06 -7.08218e-07 0)
(4.09297e-06 -6.80774e-07 0)
(4.10545e-06 -6.71828e-07 0)
(4.13436e-06 -6.75041e-07 0)
(4.17623e-06 -6.8681e-07 0)
(4.22939e-06 -7.04052e-07 0)
(4.28987e-06 -7.24516e-07 0)
(4.05081e-06 -1.15109e-06 0)
(3.90767e-06 -1.00936e-06 0)
(3.81695e-06 -9.19376e-07 0)
(3.76964e-06 -8.70856e-07 0)
(3.75249e-06 -8.47283e-07 0)
(3.75866e-06 -8.41678e-07 0)
(3.78266e-06 -8.47854e-07 0)
(3.82054e-06 -8.62451e-07 0)
(3.87008e-06 -8.82536e-07 0)
(3.92796e-06 -9.05976e-07 0)
(3.75669e-06 -1.2902e-06 0)
(3.5885e-06 -1.16665e-06 0)
(3.48185e-06 -1.08814e-06 0)
(3.42354e-06 -1.04782e-06 0)
(3.39866e-06 -1.02998e-06 0)
(3.39881e-06 -1.02884e-06 0)
(3.41781e-06 -1.0386e-06 0)
(3.45133e-06 -1.05643e-06 0)
(3.49671e-06 -1.07949e-06 0)
(3.55174e-06 -1.10691e-06 0)
(5.90072e-06 -2.68911e-08 0)
(5.99164e-06 -2.71524e-08 0)
(6.08835e-06 -2.74954e-08 0)
(6.19053e-06 -2.77482e-08 0)
(6.29753e-06 -2.78762e-08 0)
(6.40895e-06 -2.7861e-08 0)
(6.52435e-06 -2.7672e-08 0)
(6.64326e-06 -2.73175e-08 0)
(6.76528e-06 -2.67859e-08 0)
(6.89e-06 -2.60599e-08 0)
(7.01707e-06 -2.51094e-08 0)
(7.1461e-06 -2.3915e-08 0)
(7.27672e-06 -2.24611e-08 0)
(7.40853e-06 -2.07279e-08 0)
(7.54116e-06 -1.86834e-08 0)
(7.67409e-06 -1.62899e-08 0)
(7.80706e-06 -1.34988e-08 0)
(7.93916e-06 -1.02596e-08 0)
(8.07058e-06 -6.49303e-09 0)
(8.19916e-06 -2.17291e-09 0)
(5.84063e-06 -8.34787e-08 0)
(5.93647e-06 -8.3892e-08 0)
(6.03763e-06 -8.45791e-08 0)
(6.14369e-06 -8.50487e-08 0)
(6.2542e-06 -8.51802e-08 0)
(6.36876e-06 -8.49406e-08 0)
(6.48698e-06 -8.42251e-08 0)
(6.60846e-06 -8.30318e-08 0)
(6.73282e-06 -8.1305e-08 0)
(6.85969e-06 -7.9005e-08 0)
(6.98872e-06 -7.60619e-08 0)
(7.11956e-06 -7.24207e-08 0)
(7.2519e-06 -6.80214e-08 0)
(7.38533e-06 -6.27934e-08 0)
(7.51949e-06 -5.66391e-08 0)
(7.65387e-06 -4.9446e-08 0)
(7.78822e-06 -4.1068e-08 0)
(7.92164e-06 -3.13549e-08 0)
(8.05437e-06 -2.00681e-08 0)
(8.18429e-06 -7.12541e-09 0)
(5.72278e-06 -1.47772e-07 0)
(5.82835e-06 -1.47238e-07 0)
(5.93824e-06 -1.47274e-07 0)
(6.0519e-06 -1.47198e-07 0)
(6.1692e-06 -1.46691e-07 0)
(6.28979e-06 -1.45718e-07 0)
(6.41348e-06 -1.4406e-07 0)
(6.5399e-06 -1.41689e-07 0)
(6.66877e-06 -1.38486e-07 0)
(6.79977e-06 -1.3438e-07 0)
(6.93265e-06 -1.29261e-07 0)
(7.06709e-06 -1.23035e-07 0)
(7.20279e-06 -1.1559e-07 0)
(7.33937e-06 -1.06794e-07 0)
(7.47653e-06 -9.64792e-08 0)
(7.6138e-06 -8.44538e-08 0)
(7.75093e-06 -7.04716e-08 0)
(7.88705e-06 -5.42854e-08 0)
(8.02243e-06 -3.54977e-08 0)
(8.15498e-06 -1.39646e-08 0)
(5.55028e-06 -2.24195e-07 0)
(5.66981e-06 -2.20987e-07 0)
(5.79238e-06 -2.18785e-07 0)
(5.91711e-06 -2.16955e-07 0)
(6.04441e-06 -2.14794e-07 0)
(6.1739e-06 -2.12277e-07 0)
(6.30564e-06 -2.09009e-07 0)
(6.43931e-06 -2.04924e-07 0)
(6.57482e-06 -1.99818e-07 0)
(6.71192e-06 -1.93569e-07 0)
(6.85045e-06 -1.86009e-07 0)
(6.99015e-06 -1.76992e-07 0)
(7.13077e-06 -1.66342e-07 0)
(7.27197e-06 -1.53862e-07 0)
(7.41352e-06 -1.3931e-07 0)
(7.55499e-06 -1.22411e-07 0)
(7.69615e-06 -1.02817e-07 0)
(7.83623e-06 -8.01798e-08 0)
(7.9755e-06 -5.39356e-08 0)
(8.11188e-06 -2.38651e-08 0)
(5.32845e-06 -3.16664e-07 0)
(5.46553e-06 -3.08577e-07 0)
(5.6042e-06 -3.02092e-07 0)
(5.743e-06 -2.9693e-07 0)
(5.88307e-06 -2.91792e-07 0)
(6.02394e-06 -2.86666e-07 0)
(6.16604e-06 -2.80923e-07 0)
(6.3091e-06 -2.74419e-07 0)
(6.4532e-06 -2.66842e-07 0)
(6.59819e-06 -2.57993e-07 0)
(6.744e-06 -2.47625e-07 0)
(6.89046e-06 -2.35523e-07 0)
(7.0374e-06 -2.21441e-07 0)
(7.18459e-06 -2.05108e-07 0)
(7.33183e-06 -1.86204e-07 0)
(7.47872e-06 -1.6437e-07 0)
(7.62513e-06 -1.39153e-07 0)
(7.77028e-06 -1.10095e-07 0)
(7.91455e-06 -7.64604e-08 0)
(8.0559e-06 -3.79317e-08 0)
(5.06343e-06 -4.27942e-07 0)
(5.22083e-06 -4.12447e-07 0)
(5.37842e-06 -3.99311e-07 0)
(5.53385e-06 -3.88929e-07 0)
(5.68912e-06 -3.79242e-07 0)
(5.84362e-06 -3.70207e-07 0)
(5.99811e-06 -3.60937e-07 0)
(6.15244e-06 -3.51154e-07 0)
(6.30684e-06 -3.40413e-07 0)
(6.4613e-06 -3.28407e-07 0)
(6.61587e-06 -3.14797e-07 0)
(6.77048e-06 -2.99279e-07 0)
(6.92502e-06 -2.81521e-07 0)
(7.07936e-06 -2.6117e-07 0)
(7.23341e-06 -2.37818e-07 0)
(7.38676e-06 -2.11014e-07 0)
(7.53942e-06 -1.80193e-07 0)
(7.69064e-06 -1.44778e-07 0)
(7.84088e-06 -1.0385e-07 0)
(7.98823e-06 -5.69756e-08 0)
(4.76248e-06 -5.5987e-07 0)
(4.94207e-06 -5.34375e-07 0)
(5.12067e-06 -5.12209e-07 0)
(5.29474e-06 -4.94575e-07 0)
(5.46714e-06 -4.7868e-07 0)
(5.63709e-06 -4.64314e-07 0)
(5.80563e-06 -4.50361e-07 0)
(5.97276e-06 -4.36335e-07 0)
(6.13889e-06 -4.21644e-07 0)
(6.30416e-06 -4.05831e-07 0)
(6.46873e-06 -3.88456e-07 0)
(6.63262e-06 -3.6911e-07 0)
(6.79586e-06 -3.47367e-07 0)
(6.95839e-06 -3.2278e-07 0)
(7.12016e-06 -2.94842e-07 0)
(7.28089e-06 -2.63001e-07 0)
(7.44067e-06 -2.26573e-07 0)
(7.59883e-06 -1.84853e-07 0)
(7.75588e-06 -1.36733e-07 0)
(7.91008e-06 -8.16677e-08 0)
(4.43297e-06 -7.12784e-07 0)
(4.63579e-06 -6.74519e-07 0)
(4.83669e-06 -6.4097e-07 0)
(5.03093e-06 -6.13815e-07 0)
(5.22184e-06 -5.89917e-07 0)
(5.40871e-06 -5.68638e-07 0)
(5.59269e-06 -5.48725e-07 0)
(5.77394e-06 -5.29413e-07 0)
(5.95302e-06 -5.09951e-07 0)
(6.13022e-06 -4.89698e-07 0)
(6.30581e-06 -4.68083e-07 0)
(6.47993e-06 -4.44569e-07 0)
(6.65269e-06 -4.18612e-07 0)
(6.82419e-06 -3.89658e-07 0)
(6.99442e-06 -3.57085e-07 0)
(7.16326e-06 -3.20231e-07 0)
(7.33084e-06 -2.78277e-07 0)
(7.49661e-06 -2.30385e-07 0)
(7.66116e-06 -1.75261e-07 0)
(7.82295e-06 -1.12253e-07 0)
(4.08281e-06 -8.86605e-07 0)
(4.3095e-06 -8.33155e-07 0)
(4.53316e-06 -7.86631e-07 0)
(4.7485e-06 -7.47954e-07 0)
(4.95865e-06 -7.14473e-07 0)
(5.16328e-06 -6.84824e-07 0)
(5.36348e-06 -6.57704e-07 0)
(5.55967e-06 -6.32024e-07 0)
(5.75249e-06 -6.0686e-07 0)
(5.94238e-06 -5.81389e-07 0)
(6.12972e-06 -5.54891e-07 0)
(6.31476e-06 -5.26693e-07 0)
(6.49774e-06 -4.9613e-07 0)
(6.67883e-06 -4.62522e-07 0)
(6.85812e-06 -4.25128e-07 0)
(7.03561e-06 -3.83163e-07 0)
(7.21152e-06 -3.35672e-07 0)
(7.38544e-06 -2.81686e-07 0)
(7.55801e-06 -2.19747e-07 0)
(7.72796e-06 -1.4912e-07 0)
(3.71832e-06 -1.07868e-06 0)
(3.9697e-06 -1.00663e-06 0)
(4.21558e-06 -9.45322e-07 0)
(4.45267e-06 -8.93028e-07 0)
(4.68258e-06 -8.48164e-07 0)
(4.90569e-06 -8.08731e-07 0)
(5.1228e-06 -7.73275e-07 0)
(5.3346e-06 -7.40402e-07 0)
(5.54178e-06 -7.08935e-07 0)
(5.74492e-06 -6.77836e-07 0)
(5.94452e-06 -6.4619e-07 0)
(6.14093e-06 -6.13159e-07 0)
(6.33453e-06 -5.77932e-07 0)
(6.52557e-06 -5.39694e-07 0)
(6.71424e-06 -4.97572e-07 0)
(6.90069e-06 -4.50661e-07 0)
(7.08518e-06 -3.97872e-07 0)
(7.26749e-06 -3.38115e-07 0)
(7.44834e-06 -2.69781e-07 0)
(7.62677e-06 -1.92017e-07 0)
(3.44597e-06 -1.26217e-06 0)
(3.71603e-06 -1.17442e-06 0)
(3.97569e-06 -1.10206e-06 0)
(4.226e-06 -1.03917e-06 0)
(4.46812e-06 -9.84515e-07 0)
(4.70276e-06 -9.36102e-07 0)
(4.93074e-06 -8.9241e-07 0)
(5.15272e-06 -8.5201e-07 0)
(5.36941e-06 -8.1365e-07 0)
(5.58139e-06 -7.76208e-07 0)
(5.78916e-06 -7.38674e-07 0)
(5.99312e-06 -7.00115e-07 0)
(6.19372e-06 -6.59626e-07 0)
(6.39126e-06 -6.16308e-07 0)
(6.58598e-06 -5.69205e-07 0)
(6.77815e-06 -5.17344e-07 0)
(6.96808e-06 -4.59579e-07 0)
(7.15571e-06 -3.94781e-07 0)
(7.34178e-06 -3.2131e-07 0)
(7.52566e-06 -2.38268e-07 0)
(3.29081e-06 -1.40988e-06 0)
(3.56243e-06 -1.31847e-06 0)
(3.82473e-06 -1.23995e-06 0)
(4.07873e-06 -1.17055e-06 0)
(4.32492e-06 -1.1091e-06 0)
(4.56382e-06 -1.05392e-06 0)
(4.79608e-06 -1.00359e-06 0)
(5.02224e-06 -9.56765e-07 0)
(5.24291e-06 -9.12246e-07 0)
(5.45861e-06 -8.6893e-07 0)
(5.66981e-06 -8.25804e-07 0)
(5.8769e-06 -7.81922e-07 0)
(6.08032e-06 -7.36366e-07 0)
(6.28041e-06 -6.88218e-07 0)
(6.47744e-06 -6.36516e-07 0)
(6.67174e-06 -5.80287e-07 0)
(6.86362e-06 -5.18411e-07 0)
(7.05319e-06 -4.49798e-07 0)
(7.24114e-06 -3.72878e-07 0)
(7.42713e-06 -2.8677e-07 0)
(3.15867e-06 -1.5518e-06 0)
(3.42735e-06 -1.45816e-06 0)
(3.6892e-06 -1.37556e-06 0)
(3.94386e-06 -1.30111e-06 0)
(4.19163e-06 -1.23399e-06 0)
(4.43265e-06 -1.17288e-06 0)
(4.66737e-06 -1.11649e-06 0)
(4.89615e-06 -1.06366e-06 0)
(5.11948e-06 -1.01327e-06 0)
(5.33781e-06 -9.64263e-07 0)
(5.55153e-06 -9.15665e-07 0)
(5.76098e-06 -8.66541e-07 0)
(5.96662e-06 -8.15984e-07 0)
(6.16877e-06 -7.63083e-07 0)
(6.36772e-06 -7.0689e-07 0)
(6.56383e-06 -6.46459e-07 0)
(6.75745e-06 -5.80715e-07 0)
(6.94876e-06 -5.08622e-07 0)
(7.13844e-06 -4.28686e-07 0)
(7.32639e-06 -3.40075e-07 0)
(3.04234e-06 -1.68821e-06 0)
(3.30694e-06 -1.59343e-06 0)
(3.56651e-06 -1.50786e-06 0)
(3.81996e-06 -1.42934e-06 0)
(4.06753e-06 -1.3574e-06 0)
(4.30904e-06 -1.29103e-06 0)
(4.54476e-06 -1.22918e-06 0)
(4.77488e-06 -1.17081e-06 0)
(4.99975e-06 -1.11493e-06 0)
(5.21973e-06 -1.06055e-06 0)
(5.43514e-06 -1.00675e-06 0)
(5.64627e-06 -9.52627e-07 0)
(5.85356e-06 -8.97302e-07 0)
(6.0573e-06 -8.39888e-07 0)
(6.25779e-06 -7.79475e-07 0)
(6.45542e-06 -7.15153e-07 0)
(6.65051e-06 -6.45909e-07 0)
(6.84336e-06 -5.70759e-07 0)
(7.03461e-06 -4.88306e-07 0)
(7.22435e-06 -3.97834e-07 0)
(2.93975e-06 -1.8189e-06 0)
(3.19933e-06 -1.7237e-06 0)
(3.45533e-06 -1.63614e-06 0)
(3.70624e-06 -1.55454e-06 0)
(3.95223e-06 -1.4787e-06 0)
(4.19292e-06 -1.40788e-06 0)
(4.42843e-06 -1.34123e-06 0)
(4.65876e-06 -1.27789e-06 0)
(4.88418e-06 -1.21697e-06 0)
(5.10495e-06 -1.15761e-06 0)
(5.32129e-06 -1.09893e-06 0)
(5.53346e-06 -1.04008e-06 0)
(5.74186e-06 -9.80255e-07 0)
(5.94675e-06 -9.18595e-07 0)
(6.14842e-06 -8.54234e-07 0)
(6.34726e-06 -7.86315e-07 0)
(6.54359e-06 -7.1389e-07 0)
(6.73778e-06 -6.3604e-07 0)
(6.93042e-06 -5.51511e-07 0)
(7.12177e-06 -4.59758e-07 0)
(2.84841e-06 -1.94391e-06 0)
(3.10249e-06 -1.8489e-06 0)
(3.35416e-06 -1.76005e-06 0)
(3.60161e-06 -1.67613e-06 0)
(3.84505e-06 -1.59715e-06 0)
(4.08391e-06 -1.52257e-06 0)
(4.31822e-06 -1.45176e-06 0)
(4.54784e-06 -1.38402e-06 0)
(4.77296e-06 -1.31857e-06 0)
(4.99376e-06 -1.25466e-06 0)
(5.21038e-06 -1.19149e-06 0)
(5.42303e-06 -1.1283e-06 0)
(5.63205e-06 -1.0643e-06 0)
(5.83767e-06 -9.98724e-07 0)
(6.04018e-06 -9.30742e-07 0)
(6.23995e-06 -8.59555e-07 0)
(6.43731e-06 -7.8429e-07 0)
(6.63263e-06 -7.04119e-07 0)
(6.82648e-06 -6.1797e-07 0)
(7.01927e-06 -5.25434e-07 0)
(2.76644e-06 -2.0634e-06 0)
(3.01477e-06 -1.96901e-06 0)
(3.2616e-06 -1.87944e-06 0)
(3.50498e-06 -1.79386e-06 0)
(3.74514e-06 -1.71241e-06 0)
(3.98143e-06 -1.63475e-06 0)
(4.21378e-06 -1.56042e-06 0)
(4.44198e-06 -1.48884e-06 0)
(4.66612e-06 -1.41938e-06 0)
(4.88633e-06 -1.35139e-06 0)
(5.10267e-06 -1.28416e-06 0)
(5.31529e-06 -1.21699e-06 0)
(5.52451e-06 -1.14919e-06 0)
(5.7305e-06 -1.08003e-06 0)
(5.93355e-06 -1.00875e-06 0)
(6.134e-06 -9.3461e-07 0)
(6.33215e-06 -8.56833e-07 0)
(6.52841e-06 -7.74699e-07 0)
(6.72331e-06 -6.87337e-07 0)
(6.91734e-06 -5.94356e-07 0)
(2.69212e-06 -2.17763e-06 0)
(2.93462e-06 -2.08415e-06 0)
(3.17633e-06 -1.9943e-06 0)
(3.41526e-06 -1.90757e-06 0)
(3.65166e-06 -1.82423e-06 0)
(3.88484e-06 -1.74405e-06 0)
(4.11468e-06 -1.66675e-06 0)
(4.34088e-06 -1.59187e-06 0)
(4.56351e-06 -1.51891e-06 0)
(4.78262e-06 -1.44731e-06 0)
(4.99821e-06 -1.37647e-06 0)
(5.2104e-06 -1.30575e-06 0)
(5.41946e-06 -1.23452e-06 0)
(5.62551e-06 -1.16213e-06 0)
(5.82882e-06 -1.08788e-06 0)
(6.02971e-06 -1.01113e-06 0)
(6.22845e-06 -9.31181e-07 0)
(6.42548e-06 -8.47443e-07 0)
(6.62126e-06 -7.5919e-07 0)
(6.81635e-06 -6.66025e-07 0)
(2.62393e-06 -2.28691e-06 0)
(2.86066e-06 -2.19451e-06 0)
(3.09712e-06 -2.10472e-06 0)
(3.33139e-06 -2.01726e-06 0)
(3.56372e-06 -1.93248e-06 0)
(3.79342e-06 -1.85029e-06 0)
(4.02035e-06 -1.77052e-06 0)
(4.24415e-06 -1.69284e-06 0)
(4.46486e-06 -1.61686e-06 0)
(4.68248e-06 -1.54213e-06 0)
(4.89696e-06 -1.46811e-06 0)
(5.10839e-06 -1.39426e-06 0)
(5.31698e-06 -1.32001e-06 0)
(5.52283e-06 -1.24475e-06 0)
(5.72618e-06 -1.1679e-06 0)
(5.9273e-06 -1.08887e-06 0)
(6.12646e-06 -1.0071e-06 0)
(6.32408e-06 -9.22064e-07 0)
(6.52059e-06 -8.33153e-07 0)
(6.71657e-06 -7.40088e-07 0)
(2.56053e-06 -2.3916e-06 0)
(2.79163e-06 -2.3004e-06 0)
(3.02283e-06 -2.21087e-06 0)
(3.25235e-06 -2.12298e-06 0)
(3.48044e-06 -2.03714e-06 0)
(3.70645e-06 -1.95336e-06 0)
(3.9302e-06 -1.87157e-06 0)
(4.15132e-06 -1.79157e-06 0)
(4.36982e-06 -1.71304e-06 0)
(4.58566e-06 -1.63563e-06 0)
(4.79876e-06 -1.55888e-06 0)
(5.00917e-06 -1.48232e-06 0)
(5.21706e-06 -1.40543e-06 0)
(5.42249e-06 -1.32769e-06 0)
(5.62567e-06 -1.24857e-06 0)
(5.82685e-06 -1.16761e-06 0)
(6.02628e-06 -1.0843e-06 0)
(6.22436e-06 -9.98228e-07 0)
(6.42145e-06 -9.08861e-07 0)
(6.61815e-06 -8.1615e-07 0)
(2.50075e-06 -2.49209e-06 0)
(2.72637e-06 -2.4021e-06 0)
(2.95238e-06 -2.31298e-06 0)
(3.17717e-06 -2.2249e-06 0)
(3.40097e-06 -2.13832e-06 0)
(3.62317e-06 -2.05331e-06 0)
(3.84359e-06 -1.96993e-06 0)
(4.06186e-06 -1.88803e-06 0)
(4.27796e-06 -1.80738e-06 0)
(4.49183e-06 -1.72771e-06 0)
(4.70335e-06 -1.64863e-06 0)
(4.91255e-06 -1.56974e-06 0)
(5.11956e-06 -1.49058e-06 0)
(5.3244e-06 -1.4107e-06 0)
(5.52727e-06 -1.32967e-06 0)
(5.72838e-06 -1.24707e-06 0)
(5.92795e-06 -1.1625e-06 0)
(6.12635e-06 -1.07558e-06 0)
(6.3239e-06 -9.85983e-07 0)
(6.52117e-06 -8.93723e-07 0)
(2.44349e-06 -2.58873e-06 0)
(2.66383e-06 -2.4999e-06 0)
(2.88479e-06 -2.41129e-06 0)
(3.10492e-06 -2.3232e-06 0)
(3.32445e-06 -2.23613e-06 0)
(3.54283e-06 -2.15021e-06 0)
(3.75987e-06 -2.06558e-06 0)
(3.97521e-06 -1.98216e-06 0)
(4.18881e-06 -1.89979e-06 0)
(4.4006e-06 -1.81824e-06 0)
(4.61042e-06 -1.73721e-06 0)
(4.81828e-06 -1.65636e-06 0)
(5.02428e-06 -1.57529e-06 0)
(5.22842e-06 -1.49363e-06 0)
(5.43086e-06 -1.411e-06 0)
(5.6318e-06 -1.32706e-06 0)
(5.83141e-06 -1.24145e-06 0)
(6.03003e-06 -1.1539e-06 0)
(6.22791e-06 -1.06428e-06 0)
(6.42562e-06 -9.72484e-07 0)
(2.38775e-06 -2.68181e-06 0)
(2.60302e-06 -2.59406e-06 0)
(2.8191e-06 -2.50603e-06 0)
(3.03472e-06 -2.41808e-06 0)
(3.25008e-06 -2.33072e-06 0)
(3.4647e-06 -2.24416e-06 0)
(3.67838e-06 -2.15859e-06 0)
(3.8908e-06 -2.07397e-06 0)
(4.10188e-06 -1.99024e-06 0)
(4.31154e-06 -1.9072e-06 0)
(4.5196e-06 -1.82459e-06 0)
(4.72606e-06 -1.74214e-06 0)
(4.93098e-06 -1.65952e-06 0)
(5.13435e-06 -1.5764e-06 0)
(5.33629e-06 -1.49247e-06 0)
(5.53698e-06 -1.40743e-06 0)
(5.73655e-06 -1.32101e-06 0)
(5.93529e-06 -1.23304e-06 0)
(6.13342e-06 -1.14347e-06 0)
(6.33145e-06 -1.05221e-06 0)
(2.3326e-06 -2.7716e-06 0)
(2.54302e-06 -2.68493e-06 0)
(2.75442e-06 -2.59748e-06 0)
(2.96571e-06 -2.50976e-06 0)
(3.17705e-06 -2.4223e-06 0)
(3.38805e-06 -2.33533e-06 0)
(3.59848e-06 -2.2491e-06 0)
(3.80804e-06 -2.1636e-06 0)
(4.01664e-06 -2.07883e-06 0)
(4.22419e-06 -1.99463e-06 0)
(4.43049e-06 -1.91077e-06 0)
(4.63554e-06 -1.82704e-06 0)
(4.83936e-06 -1.74317e-06 0)
(5.04194e-06 -1.65888e-06 0)
(5.24335e-06 -1.57391e-06 0)
(5.44373e-06 -1.488e-06 0)
(5.64319e-06 -1.40097e-06 0)
(5.842e-06 -1.31276e-06 0)
(6.04032e-06 -1.22323e-06 0)
(6.23858e-06 -1.13254e-06 0)
(2.27711e-06 -2.85848e-06 0)
(2.48293e-06 -2.77276e-06 0)
(2.68989e-06 -2.68592e-06 0)
(2.89707e-06 -2.59852e-06 0)
(3.10461e-06 -2.51111e-06 0)
(3.31217e-06 -2.42395e-06 0)
(3.51952e-06 -2.3373e-06 0)
(3.72634e-06 -2.25119e-06 0)
(3.93257e-06 -2.16564e-06 0)
(4.13809e-06 -2.08054e-06 0)
(4.34271e-06 -1.99575e-06 0)
(4.54639e-06 -1.91106e-06 0)
(4.74915e-06 -1.82624e-06 0)
(4.95093e-06 -1.74106e-06 0)
(5.15179e-06 -1.65528e-06 0)
(5.35185e-06 -1.56872e-06 0)
(5.55118e-06 -1.48128e-06 0)
(5.75001e-06 -1.39289e-06 0)
(5.94845e-06 -1.30349e-06 0)
(6.14683e-06 -1.21326e-06 0)
(2.22046e-06 -2.94263e-06 0)
(2.42189e-06 -2.85787e-06 0)
(2.62463e-06 -2.77156e-06 0)
(2.82799e-06 -2.68456e-06 0)
(3.03201e-06 -2.59735e-06 0)
(3.23638e-06 -2.51019e-06 0)
(3.44087e-06 -2.42332e-06 0)
(3.64516e-06 -2.33686e-06 0)
(3.84918e-06 -2.2508e-06 0)
(4.05282e-06 -2.16509e-06 0)
(4.25588e-06 -2.07963e-06 0)
(4.45828e-06 -1.99424e-06 0)
(4.66003e-06 -1.90873e-06 0)
(4.86104e-06 -1.82288e-06 0)
(5.06137e-06 -1.73652e-06 0)
(5.26113e-06 -1.64952e-06 0)
(5.46033e-06 -1.5618e-06 0)
(5.65913e-06 -1.47325e-06 0)
(5.85761e-06 -1.38403e-06 0)
(6.05604e-06 -1.29422e-06 0)
(2.16177e-06 -3.02429e-06 0)
(2.35891e-06 -2.94023e-06 0)
(2.55764e-06 -2.85468e-06 0)
(2.75765e-06 -2.76826e-06 0)
(2.95845e-06 -2.68136e-06 0)
(3.15997e-06 -2.59434e-06 0)
(3.36188e-06 -2.50745e-06 0)
(3.56391e-06 -2.42081e-06 0)
(3.76598e-06 -2.33448e-06 0)
(3.96797e-06 -2.24841e-06 0)
(4.16964e-06 -2.16252e-06 0)
(4.37089e-06 -2.07667e-06 0)
(4.57171e-06 -1.99068e-06 0)
(4.77203e-06 -1.90438e-06 0)
(4.9719e-06 -1.81763e-06 0)
(5.17138e-06 -1.73033e-06 0)
(5.37039e-06 -1.6424e-06 0)
(5.56907e-06 -1.55378e-06 0)
(5.76756e-06 -1.46469e-06 0)
(5.96614e-06 -1.37523e-06 0)
(2.09962e-06 -3.10342e-06 0)
(2.29313e-06 -3.0202e-06 0)
(2.48856e-06 -2.93556e-06 0)
(2.68531e-06 -2.84975e-06 0)
(2.8833e-06 -2.76331e-06 0)
(3.0823e-06 -2.67659e-06 0)
(3.282e-06 -2.58985e-06 0)
(3.48214e-06 -2.50325e-06 0)
(3.6826e-06 -2.41685e-06 0)
(3.8832e-06 -2.33064e-06 0)
(4.08366e-06 -2.24454e-06 0)
(4.28391e-06 -2.15842e-06 0)
(4.48397e-06 -2.07215e-06 0)
(4.68376e-06 -1.98559e-06 0)
(4.8832e-06 -1.89861e-06 0)
(5.08226e-06 -1.81113e-06 0)
(5.28107e-06 -1.72303e-06 0)
(5.47977e-06 -1.63445e-06 0)
(5.67824e-06 -1.54543e-06 0)
(5.87664e-06 -1.45621e-06 0)
(2.03322e-06 -3.18095e-06 0)
(2.22339e-06 -3.09868e-06 0)
(2.41578e-06 -3.01475e-06 0)
(2.60987e-06 -2.92961e-06 0)
(2.80555e-06 -2.84372e-06 0)
(3.00257e-06 -2.75743e-06 0)
(3.20062e-06 -2.671e-06 0)
(3.39937e-06 -2.58459e-06 0)
(3.59858e-06 -2.49828e-06 0)
(3.79807e-06 -2.41207e-06 0)
(3.99764e-06 -2.32591e-06 0)
(4.19725e-06 -2.23968e-06 0)
(4.39672e-06 -2.15328e-06 0)
(4.59589e-06 -2.06658e-06 0)
(4.79488e-06 -1.97947e-06 0)
(4.99374e-06 -1.89187e-06 0)
(5.19234e-06 -1.80371e-06 0)
(5.39085e-06 -1.71509e-06 0)
(5.58927e-06 -1.62613e-06 0)
(5.78766e-06 -1.53707e-06 0)
(1.96165e-06 -3.25607e-06 0)
(2.14886e-06 -3.17495e-06 0)
(2.33871e-06 -3.09207e-06 0)
(2.53071e-06 -3.00782e-06 0)
(2.72474e-06 -2.92268e-06 0)
(2.92048e-06 -2.83701e-06 0)
(3.11744e-06 -2.75106e-06 0)
(3.31519e-06 -2.665e-06 0)
(3.51362e-06 -2.57893e-06 0)
(3.71257e-06 -2.49286e-06 0)
(3.91164e-06 -2.40676e-06 0)
(4.11065e-06 -2.32054e-06 0)
(4.30965e-06 -2.2341e-06 0)
(4.50846e-06 -2.14735e-06 0)
(4.70706e-06 -2.06018e-06 0)
(4.90556e-06 -1.97252e-06 0)
(5.10391e-06 -1.88441e-06 0)
(5.30222e-06 -1.79571e-06 0)
(5.50053e-06 -1.70677e-06 0)
(5.69877e-06 -1.61768e-06 0)
(1.43438e-07 -2.81233e-06 0)
(4.32171e-07 -2.77111e-06 0)
(7.26537e-07 -2.69013e-06 0)
(1.02968e-06 -2.57283e-06 0)
(1.3442e-06 -2.42355e-06 0)
(1.67172e-06 -2.24801e-06 0)
(2.01286e-06 -2.05252e-06 0)
(2.36712e-06 -1.84383e-06 0)
(2.73315e-06 -1.62876e-06 0)
(3.1088e-06 -1.41282e-06 0)
(1.39832e-07 -2.85737e-06 0)
(4.21052e-07 -2.81978e-06 0)
(7.0693e-07 -2.74578e-06 0)
(1.00007e-06 -2.63843e-06 0)
(1.30265e-06 -2.50133e-06 0)
(1.61603e-06 -2.33937e-06 0)
(1.9407e-06 -2.15796e-06 0)
(2.27615e-06 -1.96288e-06 0)
(2.62045e-06 -1.76048e-06 0)
(2.97215e-06 -1.5549e-06 0)
(1.36641e-07 -2.90376e-06 0)
(4.11186e-07 -2.86947e-06 0)
(6.89462e-07 -2.80182e-06 0)
(9.73541e-07 -2.70358e-06 0)
(1.26518e-06 -2.57782e-06 0)
(1.56551e-06 -2.42872e-06 0)
(1.87493e-06 -2.26097e-06 0)
(2.19335e-06 -2.07937e-06 0)
(2.51926e-06 -1.88947e-06 0)
(2.85192e-06 -1.69353e-06 0)
(1.3375e-07 -2.95156e-06 0)
(4.02293e-07 -2.92007e-06 0)
(6.7387e-07 -2.85785e-06 0)
(9.50141e-07 -2.76738e-06 0)
(1.23253e-06 -2.65134e-06 0)
(1.52189e-06 -2.51335e-06 0)
(1.8185e-06 -2.35758e-06 0)
(2.12222e-06 -2.1882e-06 0)
(2.43186e-06 -2.0104e-06 0)
(2.74671e-06 -1.82567e-06 0)
(1.31044e-07 -3.00068e-06 0)
(3.93967e-07 -2.9717e-06 0)
(6.59348e-07 -2.91432e-06 0)
(9.28497e-07 -2.83081e-06 0)
(1.20255e-06 -2.72356e-06 0)
(1.4822e-06 -2.59568e-06 0)
(1.76767e-06 -2.45094e-06 0)
(2.05883e-06 -2.29287e-06 0)
(2.35489e-06 -2.12611e-06 0)
(2.65456e-06 -1.95201e-06 0)
(1.28496e-07 -3.05104e-06 0)
(3.86144e-07 -3.02421e-06 0)
(6.45804e-07 -2.97105e-06 0)
(9.08508e-07 -2.89358e-06 0)
(1.17516e-06 -2.794e-06 0)
(1.44628e-06 -2.67505e-06 0)
(1.72204e-06 -2.54015e-06 0)
(2.00222e-06 -2.39244e-06 0)
(2.28646e-06 -2.23605e-06 0)
(2.57296e-06 -2.07245e-06 0)
(1.26018e-07 -3.10254e-06 0)
(3.78596e-07 -3.07762e-06 0)
(6.32816e-07 -3.02823e-06 0)
(8.89506e-07 -2.95613e-06 0)
(1.1494e-06 -2.8634e-06 0)
(1.41289e-06 -2.75249e-06 0)
(1.68014e-06 -2.62644e-06 0)
(1.9508e-06 -2.48812e-06 0)
(2.22484e-06 -2.34116e-06 0)
(2.50008e-06 -2.18731e-06 0)
(1.23596e-07 -3.15506e-06 0)
(3.71253e-07 -3.13178e-06 0)
(6.20258e-07 -3.08573e-06 0)
(8.71291e-07 -3.01836e-06 0)
(1.12497e-06 -2.93169e-06 0)
(1.38154e-06 -2.82794e-06 0)
(1.6412e-06 -2.70984e-06 0)
(1.90346e-06 -2.58003e-06 0)
(2.16856e-06 -2.44175e-06 0)
(2.43413e-06 -2.29695e-06 0)
(1.21208e-07 -3.20848e-06 0)
(3.63997e-07 -3.18665e-06 0)
(6.0791e-07 -3.14357e-06 0)
(8.53526e-07 -3.08044e-06 0)
(1.10137e-06 -2.99918e-06 0)
(1.3516e-06 -2.90184e-06 0)
(1.60441e-06 -2.79089e-06 0)
(1.85923e-06 -2.66876e-06 0)
(2.11645e-06 -2.53836e-06 0)
(2.37365e-06 -2.40182e-06 0)
(1.1882e-07 -3.26266e-06 0)
(3.56747e-07 -3.24211e-06 0)
(5.95639e-07 -3.20165e-06 0)
(8.36007e-07 -3.14233e-06 0)
(1.0783e-06 -3.06591e-06 0)
(1.32262e-06 -2.97431e-06 0)
(1.56914e-06 -2.86979e-06 0)
(1.81727e-06 -2.75462e-06 0)
(2.06745e-06 -2.6314e-06 0)
(2.31735e-06 -2.50237e-06 0)
(1.16392e-07 -3.31746e-06 0)
(3.49412e-07 -3.29805e-06 0)
(5.83297e-07 -3.25994e-06 0)
(8.18506e-07 -3.20405e-06 0)
(1.05543e-06 -3.132e-06 0)
(1.29415e-06 -3.04555e-06 0)
(1.53483e-06 -2.94681e-06 0)
(1.77684e-06 -2.83796e-06 0)
(2.02064e-06 -2.72125e-06 0)
(2.26409e-06 -2.59898e-06 0)
(1.13903e-07 -3.37269e-06 0)
(3.41936e-07 -3.35432e-06 0)
(5.70774e-07 -3.31833e-06 0)
(8.00838e-07 -3.26554e-06 0)
(1.03249e-06 -3.19742e-06 0)
(1.26581e-06 -3.11563e-06 0)
(1.50094e-06 -3.02212e-06 0)
(1.73726e-06 -2.91897e-06 0)
(1.97522e-06 -2.80814e-06 0)
(2.21287e-06 -2.69199e-06 0)
(1.11342e-07 -3.42819e-06 0)
(3.34258e-07 -3.41079e-06 0)
(5.57944e-07 -3.37673e-06 0)
(7.82803e-07 -3.32674e-06 0)
(1.0092e-06 -3.26218e-06 0)
(1.23721e-06 -3.18461e-06 0)
(1.46697e-06 -3.09586e-06 0)
(1.69791e-06 -2.99785e-06 0)
(1.9304e-06 -2.89237e-06 0)
(2.16274e-06 -2.78177e-06 0)
(1.08689e-07 -3.48377e-06 0)
(3.26297e-07 -3.46727e-06 0)
(5.44663e-07 -3.43495e-06 0)
(7.64195e-07 -3.38753e-06 0)
(9.85272e-07 -3.32622e-06 0)
(1.20798e-06 -3.25251e-06 0)
(1.43245e-06 -3.1681e-06 0)
(1.65817e-06 -3.07475e-06 0)
(1.88546e-06 -2.97418e-06 0)
(2.11285e-06 -2.86859e-06 0)
(1.05907e-07 -3.53927e-06 0)
(3.17948e-07 -3.52361e-06 0)
(5.30761e-07 -3.4929e-06 0)
(7.44774e-07 -3.44784e-06 0)
(9.60386e-07 -3.38954e-06 0)
(1.1777e-06 -3.31938e-06 0)
(1.39686e-06 -3.2389e-06 0)
(1.61744e-06 -3.14982e-06 0)
(1.83968e-06 -3.05376e-06 0)
(2.06235e-06 -2.95269e-06 0)
(1.02956e-07 -3.5944e-06 0)
(3.09102e-07 -3.57954e-06 0)
(5.16061e-07 -3.55032e-06 0)
(7.24289e-07 -3.50745e-06 0)
(9.34205e-07 -3.45191e-06 0)
(1.14596e-06 -3.38502e-06 0)
(1.3597e-06 -3.30818e-06 0)
(1.5751e-06 -3.22308e-06 0)
(1.79235e-06 -3.13115e-06 0)
(2.01044e-06 -3.03425e-06 0)
(9.97925e-08 -3.64907e-06 0)
(2.99636e-07 -3.63498e-06 0)
(5.00353e-07 -3.60714e-06 0)
(7.02434e-07 -3.56631e-06 0)
(9.06328e-07 -3.51338e-06 0)
(1.11224e-06 -3.44955e-06 0)
(1.32036e-06 -3.37614e-06 0)
(1.53044e-06 -3.29476e-06 0)
(1.74267e-06 -3.20661e-06 0)
(1.95618e-06 -3.1136e-06 0)
(9.63776e-08 -3.70265e-06 0)
(2.89426e-07 -3.68929e-06 0)
(4.83423e-07 -3.66279e-06 0)
(6.789e-07 -3.62388e-06 0)
(8.76351e-07 -3.57341e-06 0)
(1.07605e-06 -3.51249e-06 0)
(1.27823e-06 -3.44235e-06 0)
(1.48275e-06 -3.36446e-06 0)
(1.68975e-06 -3.27993e-06 0)
(1.89861e-06 -3.19053e-06 0)
(9.26484e-08 -3.75545e-06 0)
(2.78278e-07 -3.74277e-06 0)
(4.64938e-07 -3.71759e-06 0)
(6.53215e-07 -3.68055e-06 0)
(8.43662e-07 -3.63245e-06 0)
(1.03664e-06 -3.57436e-06 0)
(1.23244e-06 -3.50738e-06 0)
(1.43102e-06 -3.4328e-06 0)
(1.63252e-06 -3.35177e-06 0)
(1.83653e-06 -3.26581e-06 0)
(8.85756e-08 -3.80578e-06 0)
(2.66099e-07 -3.79374e-06 0)
(4.44733e-07 -3.76987e-06 0)
(6.25142e-07 -3.73469e-06 0)
(8.07963e-07 -3.68897e-06 0)
(9.93638e-07 -3.63369e-06 0)
(1.18251e-06 -3.56986e-06 0)
(1.37464e-06 -3.49863e-06 0)
(1.57026e-06 -3.42107e-06 0)
(1.76916e-06 -3.33859e-06 0)
)


// ************************************************************************* //
