/*--------------------------------*- C++ -*----------------------------------*\
| =========                 |                                                 |
| \\      /  F ield         | foam-extend: Open Source CFD                    |
|  \\    /   O peration     | Version:     4.1                                |
|   \\  /    A nd           | Web:         http://www.foam-extend.org         |
|    \\/     M anipulation  |                                                 |
\*---------------------------------------------------------------------------*/
FoamFile
{
    version     2.0;
    format      ascii;
    class       vectorField;
    location    "7";
    object      solidsCellD_iteration12;
}
// * * * * * * * * * * * * * * * * * * * * * * * * * * * * * * * * * * * * * //


1000
(
(3.63656e-06 -1.54412e-06 0)
(3.43052e-06 -1.43679e-06 0)
(3.29881e-06 -1.36864e-06 0)
(3.22306e-06 -1.33677e-06 0)
(3.1859e-06 -1.32565e-06 0)
(3.1769e-06 -1.33055e-06 0)
(3.18864e-06 -1.34589e-06 0)
(3.21592e-06 -1.36902e-06 0)
(3.25497e-06 -1.39739e-06 0)
(3.30292e-06 -1.42941e-06 0)
(3.28798e-06 -1.68669e-06 0)
(3.06861e-06 -1.61195e-06 0)
(2.9285e-06 -1.5644e-06 0)
(2.84656e-06 -1.54654e-06 0)
(2.80455e-06 -1.54472e-06 0)
(2.79119e-06 -1.55618e-06 0)
(2.79876e-06 -1.57619e-06 0)
(2.82172e-06 -1.60282e-06 0)
(2.85613e-06 -1.63404e-06 0)
(2.89858e-06 -1.6679e-06 0)
(2.92587e-06 -1.8218e-06 0)
(2.70178e-06 -1.78349e-06 0)
(2.55872e-06 -1.75902e-06 0)
(2.4741e-06 -1.75662e-06 0)
(2.4295e-06 -1.76492e-06 0)
(2.41316e-06 -1.78336e-06 0)
(2.41735e-06 -1.80825e-06 0)
(2.43649e-06 -1.83833e-06 0)
(2.46658e-06 -1.8723e-06 0)
(2.50434e-06 -1.90801e-06 0)
(2.55288e-06 -1.94708e-06 0)
(2.33349e-06 -1.94699e-06 0)
(2.19346e-06 -1.94672e-06 0)
(2.10988e-06 -1.96045e-06 0)
(2.065e-06 -1.97925e-06 0)
(2.04712e-06 -2.00486e-06 0)
(2.0487e-06 -2.03464e-06 0)
(2.06441e-06 -2.06818e-06 0)
(2.09043e-06 -2.10475e-06 0)
(2.12348e-06 -2.14246e-06 0)
(2.17164e-06 -2.06005e-06 0)
(1.96622e-06 -2.09783e-06 0)
(1.83516e-06 -2.12156e-06 0)
(1.7565e-06 -2.15122e-06 0)
(1.71368e-06 -2.18034e-06 0)
(1.6956e-06 -2.21299e-06 0)
(1.69537e-06 -2.24751e-06 0)
(1.70801e-06 -2.28441e-06 0)
(1.73008e-06 -2.32349e-06 0)
(1.75834e-06 -2.36328e-06 0)
(1.78392e-06 -2.15842e-06 0)
(1.60161e-06 -2.23164e-06 0)
(1.48534e-06 -2.27784e-06 0)
(1.41518e-06 -2.3224e-06 0)
(1.37659e-06 -2.36117e-06 0)
(1.35964e-06 -2.40035e-06 0)
(1.35839e-06 -2.43925e-06 0)
(1.3683e-06 -2.47927e-06 0)
(1.38643e-06 -2.52064e-06 0)
(1.40972e-06 -2.56246e-06 0)
(1.39169e-06 -2.23996e-06 0)
(1.24051e-06 -2.34423e-06 0)
(1.14412e-06 -2.41015e-06 0)
(1.08574e-06 -2.46778e-06 0)
(1.05342e-06 -2.51496e-06 0)
(1.03888e-06 -2.55985e-06 0)
(1.03722e-06 -2.60256e-06 0)
(1.04463e-06 -2.64532e-06 0)
(1.05877e-06 -2.6887e-06 0)
(1.07697e-06 -2.73236e-06 0)
(9.96234e-07 -2.30287e-06 0)
(8.82978e-07 -2.4321e-06 0)
(8.10807e-07 -2.51382e-06 0)
(7.6703e-07 -2.58189e-06 0)
(7.42684e-07 -2.63585e-06 0)
(7.31543e-07 -2.68534e-06 0)
(7.29954e-07 -2.73114e-06 0)
(7.3505e-07 -2.77612e-06 0)
(7.45159e-07 -2.8211e-06 0)
(7.58197e-07 -2.86629e-06 0)
(5.98645e-07 -2.34565e-06 0)
(5.28529e-07 -2.49229e-06 0)
(4.83887e-07 -2.58506e-06 0)
(4.56723e-07 -2.66049e-06 0)
(4.41531e-07 -2.71919e-06 0)
(4.34494e-07 -2.77186e-06 0)
(4.33392e-07 -2.81983e-06 0)
(4.36403e-07 -2.86641e-06 0)
(4.42466e-07 -2.91253e-06 0)
(4.50288e-07 -2.95883e-06 0)
(1.99931e-07 -2.36719e-06 0)
(1.76186e-07 -2.52285e-06 0)
(1.60988e-07 -2.62132e-06 0)
(1.51743e-07 -2.70052e-06 0)
(1.46608e-07 -2.76167e-06 0)
(1.44188e-07 -2.81602e-06 0)
(1.43729e-07 -2.86508e-06 0)
(1.44698e-07 -2.91246e-06 0)
(1.46729e-07 -2.95917e-06 0)
(1.4933e-07 -3.00607e-06 0)
(5.67726e-06 -7.04602e-08 0)
(5.72859e-06 -5.07589e-08 0)
(5.7595e-06 -3.82629e-08 0)
(5.79281e-06 -3.09017e-08 0)
(5.82911e-06 -2.67999e-08 0)
(5.87366e-06 -2.49187e-08 0)
(5.92645e-06 -2.45303e-08 0)
(5.98806e-06 -2.50592e-08 0)
(6.05838e-06 -2.63385e-08 0)
(6.13644e-06 -2.79055e-08 0)
(5.63513e-06 -2.11405e-07 0)
(5.67792e-06 -1.53448e-07 0)
(5.70349e-06 -1.16715e-07 0)
(5.7332e-06 -9.52173e-08 0)
(5.76711e-06 -8.33514e-08 0)
(5.80995e-06 -7.78435e-08 0)
(5.86153e-06 -7.67632e-08 0)
(5.92217e-06 -7.85764e-08 0)
(5.99163e-06 -8.24579e-08 0)
(6.0688e-06 -8.70686e-08 0)
(5.55106e-06 -3.53511e-07 0)
(5.57753e-06 -2.60497e-07 0)
(5.59279e-06 -2.01593e-07 0)
(5.61564e-06 -1.67079e-07 0)
(5.64504e-06 -1.48148e-07 0)
(5.6847e-06 -1.39613e-07 0)
(5.7339e-06 -1.38136e-07 0)
(5.79265e-06 -1.41267e-07 0)
(5.86048e-06 -1.477e-07 0)
(5.93591e-06 -1.5541e-07 0)
(5.42652e-06 -4.97446e-07 0)
(5.42977e-06 -3.74363e-07 0)
(5.43031e-06 -2.96518e-07 0)
(5.44344e-06 -2.51112e-07 0)
(5.46636e-06 -2.2631e-07 0)
(5.5015e-06 -2.15354e-07 0)
(5.54736e-06 -2.13763e-07 0)
(5.60343e-06 -2.18393e-07 0)
(5.66895e-06 -2.2739e-07 0)
(5.74196e-06 -2.3822e-07 0)
(5.26343e-06 -6.43558e-07 0)
(5.23802e-06 -4.9712e-07 0)
(5.22034e-06 -4.04521e-07 0)
(5.22141e-06 -3.50887e-07 0)
(5.23635e-06 -3.21841e-07 0)
(5.26583e-06 -3.09443e-07 0)
(5.30753e-06 -3.0826e-07 0)
(5.36023e-06 -3.14621e-07 0)
(5.42288e-06 -3.26169e-07 0)
(5.49299e-06 -3.40081e-07 0)
(5.06424e-06 -7.91947e-07 0)
(5.00638e-06 -6.30136e-07 0)
(4.96818e-06 -5.27778e-07 0)
(4.9556e-06 -4.6906e-07 0)
(4.96146e-06 -4.37709e-07 0)
(4.98449e-06 -4.25023e-07 0)
(5.02146e-06 -4.24847e-07 0)
(5.07032e-06 -4.33174e-07 0)
(5.12966e-06 -4.47272e-07 0)
(5.19647e-06 -4.6423e-07 0)
(4.83194e-06 -9.4233e-07 0)
(4.73977e-06 -7.73966e-07 0)
(4.67986e-06 -6.67402e-07 0)
(4.65288e-06 -6.07091e-07 0)
(4.64912e-06 -5.75533e-07 0)
(4.66529e-06 -5.63823e-07 0)
(4.69717e-06 -5.65327e-07 0)
(4.7419e-06 -5.75888e-07 0)
(4.79761e-06 -5.92565e-07 0)
(4.86093e-06 -6.1249e-07 0)
(4.5696e-06 -1.09398e-06 0)
(4.44345e-06 -9.28237e-07 0)
(4.36206e-06 -8.23247e-07 0)
(4.32072e-06 -7.64985e-07 0)
(4.30738e-06 -7.35423e-07 0)
(4.31661e-06 -7.26021e-07 0)
(4.34325e-06 -7.2993e-07 0)
(4.38367e-06 -7.43087e-07 0)
(4.43554e-06 -7.62403e-07 0)
(4.49525e-06 -7.85278e-07 0)
(4.28065e-06 -1.24585e-06 0)
(4.12291e-06 -1.09167e-06 0)
(4.02158e-06 -9.93967e-07 0)
(3.9668e-06 -9.41329e-07 0)
(3.94438e-06 -9.15961e-07 0)
(3.94687e-06 -9.10145e-07 0)
(3.96827e-06 -9.17196e-07 0)
(4.00435e-06 -9.33259e-07 0)
(4.0522e-06 -9.55425e-07 0)
(4.10833e-06 -9.81018e-07 0)
(3.96851e-06 -1.39652e-06 0)
(3.78361e-06 -1.26215e-06 0)
(3.66511e-06 -1.17697e-06 0)
(3.59862e-06 -1.13331e-06 0)
(3.5681e-06 -1.11419e-06 0)
(3.56446e-06 -1.11319e-06 0)
(3.58099e-06 -1.12408e-06 0)
(3.61276e-06 -1.14358e-06 0)
(3.65665e-06 -1.16873e-06 0)
(3.70891e-06 -1.1982e-06 0)
(6.22247e-06 -2.94319e-08 0)
(6.31625e-06 -2.97494e-08 0)
(6.416e-06 -3.01274e-08 0)
(6.52137e-06 -3.03925e-08 0)
(6.6317e-06 -3.05185e-08 0)
(6.74658e-06 -3.04901e-08 0)
(6.86548e-06 -3.02547e-08 0)
(6.98794e-06 -2.98418e-08 0)
(7.11359e-06 -2.92575e-08 0)
(7.24205e-06 -2.84636e-08 0)
(7.37292e-06 -2.74255e-08 0)
(7.50579e-06 -2.61301e-08 0)
(7.64032e-06 -2.45625e-08 0)
(7.77608e-06 -2.27091e-08 0)
(7.91274e-06 -2.05419e-08 0)
(8.04977e-06 -1.80123e-08 0)
(8.18691e-06 -1.50576e-08 0)
(8.32324e-06 -1.16196e-08 0)
(8.45895e-06 -7.62013e-09 0)
(8.59185e-06 -3.03022e-09 0)
(6.15783e-06 -9.13051e-08 0)
(6.25702e-06 -9.18516e-08 0)
(6.36161e-06 -9.26187e-08 0)
(6.4712e-06 -9.31039e-08 0)
(6.5853e-06 -9.31714e-08 0)
(6.70347e-06 -9.28466e-08 0)
(6.82535e-06 -9.20285e-08 0)
(6.95053e-06 -9.07153e-08 0)
(7.07865e-06 -8.88296e-08 0)
(7.20935e-06 -8.62942e-08 0)
(7.34226e-06 -8.30728e-08 0)
(7.47705e-06 -7.9145e-08 0)
(7.61338e-06 -7.44408e-08 0)
(7.75085e-06 -6.8872e-08 0)
(7.88913e-06 -6.23298e-08 0)
(8.02769e-06 -5.46922e-08 0)
(8.16631e-06 -4.58006e-08 0)
(8.30406e-06 -3.54934e-08 0)
(8.44118e-06 -2.35214e-08 0)
(8.57543e-06 -9.78115e-09 0)
(6.0308e-06 -1.61481e-07 0)
(6.14063e-06 -1.6106e-07 0)
(6.25471e-06 -1.61109e-07 0)
(6.37248e-06 -1.60986e-07 0)
(6.4939e-06 -1.6035e-07 0)
(6.61861e-06 -1.59225e-07 0)
(6.74639e-06 -1.57371e-07 0)
(6.87684e-06 -1.54752e-07 0)
(7.00976e-06 -1.51238e-07 0)
(7.14483e-06 -1.46741e-07 0)
(7.2818e-06 -1.41196e-07 0)
(7.42035e-06 -1.3453e-07 0)
(7.56018e-06 -1.26592e-07 0)
(7.70093e-06 -1.17223e-07 0)
(7.8423e-06 -1.06251e-07 0)
(7.98385e-06 -9.3482e-08 0)
(8.12534e-06 -7.86527e-08 0)
(8.26592e-06 -6.14924e-08 0)
(8.40581e-06 -4.15763e-08 0)
(8.54286e-06 -1.87163e-08 0)
(5.8452e-06 -2.44664e-07 0)
(5.97024e-06 -2.41389e-07 0)
(6.09803e-06 -2.39002e-07 0)
(6.22774e-06 -2.36962e-07 0)
(6.35989e-06 -2.34531e-07 0)
(6.49409e-06 -2.3174e-07 0)
(6.63042e-06 -2.28136e-07 0)
(6.7686e-06 -2.23661e-07 0)
(6.9086e-06 -2.18095e-07 0)
(7.05016e-06 -2.11306e-07 0)
(7.1931e-06 -2.03163e-07 0)
(7.33718e-06 -1.93521e-07 0)
(7.48215e-06 -1.82162e-07 0)
(7.62774e-06 -1.68875e-07 0)
(7.7737e-06 -1.53426e-07 0)
(7.91963e-06 -1.3552e-07 0)
(8.06533e-06 -1.14784e-07 0)
(8.21002e-06 -9.08197e-08 0)
(8.35391e-06 -6.30146e-08 0)
(8.49499e-06 -3.11234e-08 0)
(5.60661e-06 -3.45014e-07 0)
(5.75078e-06 -3.36471e-07 0)
(5.89598e-06 -3.29476e-07 0)
(6.0408e-06 -3.23851e-07 0)
(6.18663e-06 -3.18203e-07 0)
(6.33297e-06 -3.12591e-07 0)
(6.48033e-06 -3.06301e-07 0)
(6.62848e-06 -2.99227e-07 0)
(6.77756e-06 -2.91007e-07 0)
(6.92743e-06 -2.81432e-07 0)
(7.07806e-06 -2.70303e-07 0)
(7.22928e-06 -2.57397e-07 0)
(7.38094e-06 -2.42417e-07 0)
(7.53282e-06 -2.25074e-07 0)
(7.68475e-06 -2.05052e-07 0)
(7.83634e-06 -1.81958e-07 0)
(7.98752e-06 -1.55307e-07 0)
(8.13749e-06 -1.24583e-07 0)
(8.28661e-06 -8.89718e-08 0)
(8.43289e-06 -4.81721e-08 0)
(5.3218e-06 -4.65553e-07 0)
(5.48796e-06 -4.48937e-07 0)
(5.65354e-06 -4.34729e-07 0)
(5.81619e-06 -4.23468e-07 0)
(5.97827e-06 -4.12911e-07 0)
(6.13913e-06 -4.03098e-07 0)
(6.2996e-06 -3.92997e-07 0)
(6.45969e-06 -3.82387e-07 0)
(6.61968e-06 -3.70788e-07 0)
(6.77958e-06 -3.57878e-07 0)
(6.93947e-06 -3.43349e-07 0)
(7.0993e-06 -3.26867e-07 0)
(7.259e-06 -3.08038e-07 0)
(7.41842e-06 -2.86489e-07 0)
(7.57749e-06 -2.61804e-07 0)
(7.73589e-06 -2.335e-07 0)
(7.89362e-06 -2.00964e-07 0)
(8.04995e-06 -1.63575e-07 0)
(8.20534e-06 -1.20312e-07 0)
(8.35789e-06 -7.07636e-08 0)
(4.99875e-06 -6.08121e-07 0)
(5.18882e-06 -5.80583e-07 0)
(5.37689e-06 -5.56577e-07 0)
(5.55937e-06 -5.37481e-07 0)
(5.73956e-06 -5.20228e-07 0)
(5.91676e-06 -5.04666e-07 0)
(6.09211e-06 -4.89567e-07 0)
(6.26575e-06 -4.74439e-07 0)
(6.43818e-06 -4.58672e-07 0)
(6.60955e-06 -4.41789e-07 0)
(6.78006e-06 -4.23341e-07 0)
(6.94975e-06 -4.02866e-07 0)
(7.11865e-06 -3.79872e-07 0)
(7.28673e-06 -3.53899e-07 0)
(7.454e-06 -3.24425e-07 0)
(7.62022e-06 -2.90872e-07 0)
(7.78549e-06 -2.52486e-07 0)
(7.94914e-06 -2.08519e-07 0)
(8.11169e-06 -1.57763e-07 0)
(8.27142e-06 -9.96802e-08 0)
(4.64542e-06 -7.73152e-07 0)
(4.86014e-06 -7.31537e-07 0)
(5.07181e-06 -6.95136e-07 0)
(5.27555e-06 -6.6575e-07 0)
(5.47529e-06 -6.39932e-07 0)
(5.6703e-06 -6.16995e-07 0)
(5.862e-06 -5.95601e-07 0)
(6.05063e-06 -5.74921e-07 0)
(6.23681e-06 -5.54171e-07 0)
(6.42087e-06 -5.32677e-07 0)
(6.6031e-06 -5.09824e-07 0)
(6.78369e-06 -4.85009e-07 0)
(6.96278e-06 -4.57629e-07 0)
(7.14046e-06 -4.27117e-07 0)
(7.31681e-06 -3.9283e-07 0)
(7.49172e-06 -3.54074e-07 0)
(7.6653e-06 -3.09953e-07 0)
(7.83705e-06 -2.59583e-07 0)
(8.00752e-06 -2.01564e-07 0)
(8.17519e-06 -1.35235e-07 0)
(4.27045e-06 -9.60294e-07 0)
(4.50988e-06 -9.02011e-07 0)
(4.74519e-06 -8.51575e-07 0)
(4.9709e-06 -8.09805e-07 0)
(5.19082e-06 -7.73747e-07 0)
(5.40455e-06 -7.4194e-07 0)
(5.61343e-06 -7.12952e-07 0)
(5.81794e-06 -6.85602e-07 0)
(6.01879e-06 -6.58919e-07 0)
(6.21644e-06 -6.32018e-07 0)
(6.41128e-06 -6.04109e-07 0)
(6.60362e-06 -5.74447e-07 0)
(6.79373e-06 -5.42308e-07 0)
(6.9818e-06 -5.06993e-07 0)
(7.16799e-06 -4.6773e-07 0)
(7.35228e-06 -4.23692e-07 0)
(7.53486e-06 -3.73843e-07 0)
(7.71535e-06 -3.17167e-07 0)
(7.89437e-06 -2.52101e-07 0)
(8.07065e-06 -1.77871e-07 0)
(3.88093e-06 -1.16625e-06 0)
(4.14527e-06 -1.08729e-06 0)
(4.40327e-06 -1.02105e-06 0)
(4.65152e-06 -9.64921e-07 0)
(4.89204e-06 -9.16984e-07 0)
(5.12526e-06 -8.74997e-07 0)
(5.35208e-06 -8.37344e-07 0)
(5.57324e-06 -8.02534e-07 0)
(5.78947e-06 -7.69337e-07 0)
(6.00135e-06 -7.36629e-07 0)
(6.20941e-06 -7.03415e-07 0)
(6.41406e-06 -6.68782e-07 0)
(6.61571e-06 -6.31852e-07 0)
(6.81462e-06 -5.91784e-07 0)
(7.01106e-06 -5.47667e-07 0)
(7.2051e-06 -4.98539e-07 0)
(7.39703e-06 -4.43239e-07 0)
(7.58661e-06 -3.80599e-07 0)
(7.77455e-06 -3.08921e-07 0)
(7.95987e-06 -2.27265e-07 0)
(3.59223e-06 -1.36357e-06 0)
(3.87292e-06 -1.26789e-06 0)
(4.14435e-06 -1.18986e-06 0)
(4.40644e-06 -1.12228e-06 0)
(4.65993e-06 -1.0639e-06 0)
(4.90552e-06 -1.01238e-06 0)
(5.14402e-06 -9.66047e-07 0)
(5.37615e-06 -9.23356e-07 0)
(5.60263e-06 -8.82966e-07 0)
(5.82404e-06 -8.43649e-07 0)
(6.04093e-06 -8.04312e-07 0)
(6.25378e-06 -7.63946e-07 0)
(6.46302e-06 -7.21576e-07 0)
(6.669e-06 -6.7626e-07 0)
(6.87202e-06 -6.27006e-07 0)
(7.07225e-06 -5.72764e-07 0)
(7.27005e-06 -5.12336e-07 0)
(7.46537e-06 -4.44465e-07 0)
(7.65892e-06 -3.67438e-07 0)
(7.85003e-06 -2.80242e-07 0)
(3.427e-06 -1.5237e-06 0)
(3.70968e-06 -1.42438e-06 0)
(3.98336e-06 -1.33976e-06 0)
(4.24897e-06 -1.2652e-06 0)
(4.50653e-06 -1.1995e-06 0)
(4.75651e-06 -1.14072e-06 0)
(4.99948e-06 -1.08731e-06 0)
(5.23602e-06 -1.0378e-06 0)
(5.46669e-06 -9.90886e-07 0)
(5.69203e-06 -9.45362e-07 0)
(5.91256e-06 -9.00139e-07 0)
(6.12874e-06 -8.54192e-07 0)
(6.34098e-06 -8.06522e-07 0)
(6.54966e-06 -7.56161e-07 0)
(6.75507e-06 -7.0211e-07 0)
(6.95751e-06 -6.43296e-07 0)
(7.15731e-06 -5.78572e-07 0)
(7.35461e-06 -5.06686e-07 0)
(7.55008e-06 -4.26009e-07 0)
(7.74334e-06 -3.35566e-07 0)
(3.28554e-06 -1.67748e-06 0)
(3.56551e-06 -1.57586e-06 0)
(3.83881e-06 -1.48697e-06 0)
(4.10504e-06 -1.4071e-06 0)
(4.36418e-06 -1.33538e-06 0)
(4.61631e-06 -1.27027e-06 0)
(4.86183e-06 -1.21042e-06 0)
(5.10108e-06 -1.15453e-06 0)
(5.33452e-06 -1.10139e-06 0)
(5.56259e-06 -1.04985e-06 0)
(5.78575e-06 -9.98863e-07 0)
(6.0044e-06 -9.47418e-07 0)
(6.21896e-06 -8.94514e-07 0)
(6.42977e-06 -8.39188e-07 0)
(6.63716e-06 -7.80454e-07 0)
(6.84146e-06 -7.17244e-07 0)
(7.04302e-06 -6.48469e-07 0)
(7.2421e-06 -5.72926e-07 0)
(7.43934e-06 -4.89088e-07 0)
(7.63464e-06 -3.96058e-07 0)
(3.16066e-06 -1.82584e-06 0)
(3.43667e-06 -1.72307e-06 0)
(3.70764e-06 -1.63095e-06 0)
(3.97261e-06 -1.5467e-06 0)
(4.23148e-06 -1.4698e-06 0)
(4.48407e-06 -1.39908e-06 0)
(4.73059e-06 -1.33339e-06 0)
(4.9712e-06 -1.27161e-06 0)
(5.20624e-06 -1.21263e-06 0)
(5.43603e-06 -1.15541e-06 0)
(5.66096e-06 -1.09894e-06 0)
(5.88139e-06 -1.04225e-06 0)
(6.09766e-06 -9.84347e-07 0)
(6.31013e-06 -9.24304e-07 0)
(6.51912e-06 -8.61157e-07 0)
(6.72498e-06 -7.93875e-07 0)
(6.92808e-06 -7.21434e-07 0)
(7.12875e-06 -6.42698e-07 0)
(7.32762e-06 -5.56268e-07 0)
(7.52484e-06 -4.61351e-07 0)
(3.05054e-06 -1.96793e-06 0)
(3.32144e-06 -1.86488e-06 0)
(3.58873e-06 -1.77067e-06 0)
(3.85101e-06 -1.68314e-06 0)
(4.10819e-06 -1.60206e-06 0)
(4.35987e-06 -1.52658e-06 0)
(4.6061e-06 -1.45576e-06 0)
(4.84691e-06 -1.38868e-06 0)
(5.0825e-06 -1.32436e-06 0)
(5.31312e-06 -1.26185e-06 0)
(5.53904e-06 -1.20024e-06 0)
(5.76055e-06 -1.13859e-06 0)
(5.97799e-06 -1.07596e-06 0)
(6.19165e-06 -1.01146e-06 0)
(6.40186e-06 -9.44174e-07 0)
(6.60899e-06 -8.73123e-07 0)
(6.81339e-06 -7.9736e-07 0)
(7.01546e-06 -7.15831e-07 0)
(7.21579e-06 -6.27291e-07 0)
(7.41477e-06 -5.31073e-07 0)
(2.95256e-06 -2.10393e-06 0)
(3.21779e-06 -2.00125e-06 0)
(3.48057e-06 -1.90572e-06 0)
(3.73917e-06 -1.81574e-06 0)
(3.99364e-06 -1.7313e-06 0)
(4.24334e-06 -1.65181e-06 0)
(4.48826e-06 -1.57655e-06 0)
(4.7283e-06 -1.50477e-06 0)
(4.96358e-06 -1.43564e-06 0)
(5.19422e-06 -1.36832e-06 0)
(5.42043e-06 -1.30197e-06 0)
(5.64244e-06 -1.23573e-06 0)
(5.86052e-06 -1.16871e-06 0)
(6.07495e-06 -1.10009e-06 0)
(6.28602e-06 -1.029e-06 0)
(6.49412e-06 -9.54538e-07 0)
(6.69958e-06 -8.75831e-07 0)
(6.90285e-06 -7.91927e-07 0)
(7.1045e-06 -7.01751e-07 0)
(7.30502e-06 -6.04745e-07 0)
(2.86478e-06 -2.23401e-06 0)
(3.12401e-06 -2.13215e-06 0)
(3.38171e-06 -2.03595e-06 0)
(3.63601e-06 -1.94422e-06 0)
(3.887e-06 -1.85717e-06 0)
(4.13394e-06 -1.77438e-06 0)
(4.37676e-06 -1.69534e-06 0)
(4.61527e-06 -1.61948e-06 0)
(4.84951e-06 -1.54608e-06 0)
(5.07951e-06 -1.47443e-06 0)
(5.30542e-06 -1.40379e-06 0)
(5.52738e-06 -1.33335e-06 0)
(5.74564e-06 -1.26232e-06 0)
(5.96045e-06 -1.18993e-06 0)
(6.17207e-06 -1.11537e-06 0)
(6.38086e-06 -1.03785e-06 0)
(6.58716e-06 -9.56564e-07 0)
(6.79143e-06 -8.70673e-07 0)
(6.99423e-06 -7.79275e-07 0)
(7.19606e-06 -6.81885e-07 0)
(2.78534e-06 -2.35848e-06 0)
(3.0385e-06 -2.25775e-06 0)
(3.29079e-06 -2.16133e-06 0)
(3.5404e-06 -2.06843e-06 0)
(3.78738e-06 -1.97937e-06 0)
(4.03099e-06 -1.89389e-06 0)
(4.27112e-06 -1.81169e-06 0)
(4.50752e-06 -1.73232e-06 0)
(4.74013e-06 -1.6552e-06 0)
(4.96895e-06 -1.57971e-06 0)
(5.19404e-06 -1.50522e-06 0)
(5.41553e-06 -1.43101e-06 0)
(5.63359e-06 -1.35635e-06 0)
(5.84843e-06 -1.28058e-06 0)
(6.06031e-06 -1.20293e-06 0)
(6.26956e-06 -1.12271e-06 0)
(6.4765e-06 -1.03921e-06 0)
(6.68159e-06 -9.51703e-07 0)
(6.88534e-06 -8.5944e-07 0)
(7.08831e-06 -7.62e-07 0)
(2.7126e-06 -2.47771e-06 0)
(2.95971e-06 -2.37827e-06 0)
(3.20647e-06 -2.28199e-06 0)
(3.45115e-06 -2.18836e-06 0)
(3.69382e-06 -2.09779e-06 0)
(3.93373e-06 -2.01018e-06 0)
(4.17076e-06 -1.92536e-06 0)
(4.4046e-06 -1.84302e-06 0)
(4.63516e-06 -1.76269e-06 0)
(4.86237e-06 -1.68386e-06 0)
(5.08627e-06 -1.60598e-06 0)
(5.30692e-06 -1.52843e-06 0)
(5.52446e-06 -1.45055e-06 0)
(5.73907e-06 -1.37178e-06 0)
(5.95098e-06 -1.29141e-06 0)
(6.16048e-06 -1.20884e-06 0)
(6.36788e-06 -1.12348e-06 0)
(6.57363e-06 -1.03468e-06 0)
(6.77814e-06 -9.41844e-07 0)
(6.98209e-06 -8.44642e-07 0)
(2.64513e-06 -2.59208e-06 0)
(2.88628e-06 -2.49403e-06 0)
(3.12752e-06 -2.39812e-06 0)
(3.36718e-06 -2.30409e-06 0)
(3.60538e-06 -2.21243e-06 0)
(3.84139e-06 -2.12315e-06 0)
(4.07504e-06 -2.0362e-06 0)
(4.30604e-06 -1.95139e-06 0)
(4.53423e-06 -1.86832e-06 0)
(4.75954e-06 -1.78661e-06 0)
(4.98195e-06 -1.7058e-06 0)
(5.20149e-06 -1.62534e-06 0)
(5.41827e-06 -1.54465e-06 0)
(5.63243e-06 -1.46326e-06 0)
(5.84416e-06 -1.38054e-06 0)
(6.05374e-06 -1.29598e-06 0)
(6.26143e-06 -1.20907e-06 0)
(6.46766e-06 -1.11927e-06 0)
(6.67279e-06 -1.02611e-06 0)
(6.87753e-06 -9.29374e-07 0)
(2.58161e-06 -2.70198e-06 0)
(2.817e-06 -2.60533e-06 0)
(3.0528e-06 -2.50994e-06 0)
(3.28748e-06 -2.41577e-06 0)
(3.52117e-06 -2.32337e-06 0)
(3.75317e-06 -2.23281e-06 0)
(3.9833e-06 -2.14417e-06 0)
(4.21127e-06 -2.05731e-06 0)
(4.43691e-06 -1.97197e-06 0)
(4.66011e-06 -1.88783e-06 0)
(4.88083e-06 -1.80451e-06 0)
(5.09906e-06 -1.72155e-06 0)
(5.31489e-06 -1.63846e-06 0)
(5.52843e-06 -1.55482e-06 0)
(5.73983e-06 -1.4701e-06 0)
(5.94934e-06 -1.38388e-06 0)
(6.15718e-06 -1.29571e-06 0)
(6.36373e-06 -1.20515e-06 0)
(6.56937e-06 -1.11187e-06 0)
(6.77469e-06 -1.01575e-06 0)
(2.52091e-06 -2.8078e-06 0)
(2.75075e-06 -2.71249e-06 0)
(2.98126e-06 -2.61772e-06 0)
(3.21108e-06 -2.52362e-06 0)
(3.4403e-06 -2.43074e-06 0)
(3.66828e-06 -2.33924e-06 0)
(3.89484e-06 -2.24927e-06 0)
(4.1197e-06 -2.16078e-06 0)
(4.34268e-06 -2.07358e-06 0)
(4.56366e-06 -1.98741e-06 0)
(4.78257e-06 -1.902e-06 0)
(4.99938e-06 -1.81694e-06 0)
(5.21416e-06 -1.73181e-06 0)
(5.42697e-06 -1.64629e-06 0)
(5.63793e-06 -1.55991e-06 0)
(5.84726e-06 -1.47231e-06 0)
(6.05513e-06 -1.38314e-06 0)
(6.2619e-06 -1.29204e-06 0)
(6.46792e-06 -1.19883e-06 0)
(6.67368e-06 -1.10339e-06 0)
(2.46202e-06 -2.90987e-06 0)
(2.68655e-06 -2.81584e-06 0)
(2.91197e-06 -2.72175e-06 0)
(3.13706e-06 -2.62785e-06 0)
(3.36191e-06 -2.53472e-06 0)
(3.58593e-06 -2.44255e-06 0)
(3.80896e-06 -2.35158e-06 0)
(4.03073e-06 -2.26181e-06 0)
(4.25105e-06 -2.17313e-06 0)
(4.46979e-06 -2.08533e-06 0)
(4.68685e-06 -1.9982e-06 0)
(4.9022e-06 -1.91142e-06 0)
(5.11585e-06 -1.82463e-06 0)
(5.32785e-06 -1.73757e-06 0)
(5.53829e-06 -1.64983e-06 0)
(5.74735e-06 -1.56112e-06 0)
(5.95515e-06 -1.47117e-06 0)
(6.16207e-06 -1.37971e-06 0)
(6.36829e-06 -1.28667e-06 0)
(6.5744e-06 -1.19196e-06 0)
(2.40399e-06 -3.00851e-06 0)
(2.62345e-06 -2.91571e-06 0)
(2.84398e-06 -2.8223e-06 0)
(3.06454e-06 -2.7287e-06 0)
(3.28517e-06 -2.63549e-06 0)
(3.50538e-06 -2.5429e-06 0)
(3.72501e-06 -2.45123e-06 0)
(3.94377e-06 -2.36051e-06 0)
(4.16149e-06 -2.27069e-06 0)
(4.37802e-06 -2.18161e-06 0)
(4.59325e-06 -2.09313e-06 0)
(4.80712e-06 -2.00496e-06 0)
(5.01964e-06 -1.91683e-06 0)
(5.2308e-06 -1.82852e-06 0)
(5.44068e-06 -1.73969e-06 0)
(5.6494e-06 -1.65011e-06 0)
(5.85708e-06 -1.55958e-06 0)
(6.06404e-06 -1.46792e-06 0)
(6.27039e-06 -1.37509e-06 0)
(6.47672e-06 -1.28115e-06 0)
(2.34582e-06 -3.10404e-06 0)
(2.56047e-06 -3.01234e-06 0)
(2.77635e-06 -2.91964e-06 0)
(2.9926e-06 -2.82643e-06 0)
(3.20926e-06 -2.73329e-06 0)
(3.42587e-06 -2.64051e-06 0)
(3.64228e-06 -2.54838e-06 0)
(3.85818e-06 -2.457e-06 0)
(4.07344e-06 -2.36634e-06 0)
(4.28787e-06 -2.2763e-06 0)
(4.50136e-06 -2.18678e-06 0)
(4.71383e-06 -2.09757e-06 0)
(4.92525e-06 -2.0084e-06 0)
(5.13561e-06 -1.91913e-06 0)
(5.34491e-06 -1.82945e-06 0)
(5.55328e-06 -1.73919e-06 0)
(5.76081e-06 -1.64824e-06 0)
(5.96772e-06 -1.55648e-06 0)
(6.17419e-06 -1.46394e-06 0)
(6.38061e-06 -1.37072e-06 0)
(2.28658e-06 -3.19667e-06 0)
(2.49664e-06 -3.10611e-06 0)
(2.70811e-06 -3.01402e-06 0)
(2.92037e-06 -2.92127e-06 0)
(3.13335e-06 -2.82836e-06 0)
(3.34664e-06 -2.73557e-06 0)
(3.56008e-06 -2.64322e-06 0)
(3.77339e-06 -2.55144e-06 0)
(3.98637e-06 -2.46023e-06 0)
(4.19887e-06 -2.36952e-06 0)
(4.41075e-06 -2.27926e-06 0)
(4.62192e-06 -2.18927e-06 0)
(4.83232e-06 -2.09934e-06 0)
(5.04189e-06 -2.00933e-06 0)
(5.25065e-06 -1.91901e-06 0)
(5.45868e-06 -1.82827e-06 0)
(5.66604e-06 -1.73704e-06 0)
(5.87288e-06 -1.64523e-06 0)
(6.07938e-06 -1.55298e-06 0)
(6.28586e-06 -1.46044e-06 0)
(2.2253e-06 -3.28679e-06 0)
(2.43091e-06 -3.19702e-06 0)
(2.63819e-06 -3.10575e-06 0)
(2.84695e-06 -3.01363e-06 0)
(3.05659e-06 -2.92105e-06 0)
(3.26695e-06 -2.82842e-06 0)
(3.47773e-06 -2.73604e-06 0)
(3.68873e-06 -2.64408e-06 0)
(3.89972e-06 -2.55254e-06 0)
(4.11053e-06 -2.46142e-06 0)
(4.32102e-06 -2.37068e-06 0)
(4.53104e-06 -2.28016e-06 0)
(4.74052e-06 -2.18967e-06 0)
(4.94941e-06 -2.09914e-06 0)
(5.15768e-06 -2.00838e-06 0)
(5.36543e-06 -1.91729e-06 0)
(5.5726e-06 -1.82585e-06 0)
(5.77939e-06 -1.73404e-06 0)
(5.98583e-06 -1.6421e-06 0)
(6.19233e-06 -1.55013e-06 0)
(2.16053e-06 -3.37429e-06 0)
(2.36234e-06 -3.28544e-06 0)
(2.56619e-06 -3.19515e-06 0)
(2.7716e-06 -3.10368e-06 0)
(2.97835e-06 -3.01159e-06 0)
(3.18612e-06 -2.91928e-06 0)
(3.39466e-06 -2.82705e-06 0)
(3.60372e-06 -2.73511e-06 0)
(3.81306e-06 -2.64349e-06 0)
(4.02248e-06 -2.55217e-06 0)
(4.23181e-06 -2.46116e-06 0)
(4.44087e-06 -2.37031e-06 0)
(4.64959e-06 -2.27949e-06 0)
(4.85793e-06 -2.18861e-06 0)
(5.06582e-06 -2.09754e-06 0)
(5.27327e-06 -2.00623e-06 0)
(5.48026e-06 -1.91465e-06 0)
(5.68702e-06 -1.82285e-06 0)
(5.89347e-06 -1.73114e-06 0)
(6.09987e-06 -1.63969e-06 0)
(2.09141e-06 -3.4601e-06 0)
(2.28974e-06 -3.37232e-06 0)
(2.49049e-06 -3.2828e-06 0)
(2.69316e-06 -3.19204e-06 0)
(2.89756e-06 -3.10054e-06 0)
(3.1033e-06 -3.00867e-06 0)
(3.31014e-06 -2.91675e-06 0)
(3.51776e-06 -2.82497e-06 0)
(3.72589e-06 -2.73341e-06 0)
(3.93429e-06 -2.64206e-06 0)
(4.14275e-06 -2.55094e-06 0)
(4.35113e-06 -2.45991e-06 0)
(4.55932e-06 -2.36888e-06 0)
(4.76719e-06 -2.27783e-06 0)
(4.97473e-06 -2.18655e-06 0)
(5.18198e-06 -2.09503e-06 0)
(5.3889e-06 -2.00338e-06 0)
(5.59556e-06 -1.9116e-06 0)
(5.80203e-06 -1.82001e-06 0)
(6.0084e-06 -1.72895e-06 0)
(2.01706e-06 -3.54354e-06 0)
(2.21236e-06 -3.45696e-06 0)
(2.41053e-06 -3.36854e-06 0)
(2.6111e-06 -3.27872e-06 0)
(2.81376e-06 -3.18798e-06 0)
(3.01814e-06 -3.09671e-06 0)
(3.22388e-06 -3.00527e-06 0)
(3.43061e-06 -2.91386e-06 0)
(3.63801e-06 -2.8225e-06 0)
(3.84583e-06 -2.73122e-06 0)
(4.05382e-06 -2.64012e-06 0)
(4.26176e-06 -2.54908e-06 0)
(4.46957e-06 -2.45794e-06 0)
(4.67715e-06 -2.36673e-06 0)
(4.88442e-06 -2.27537e-06 0)
(5.09146e-06 -2.18375e-06 0)
(5.29831e-06 -2.09202e-06 0)
(5.50493e-06 -2.0002e-06 0)
(5.71147e-06 -1.90866e-06 0)
(5.91786e-06 -1.81778e-06 0)
(1.48779e-07 -3.05409e-06 0)
(4.48386e-07 -3.00909e-06 0)
(7.54111e-07 -2.92087e-06 0)
(1.06944e-06 -2.79299e-06 0)
(1.39714e-06 -2.63035e-06 0)
(1.73897e-06 -2.43904e-06 0)
(2.09558e-06 -2.22607e-06 0)
(2.46634e-06 -1.99874e-06 0)
(2.85001e-06 -1.76443e-06 0)
(3.24351e-06 -1.52895e-06 0)
(1.44595e-07 -3.10399e-06 0)
(4.35535e-07 -3.06286e-06 0)
(7.3155e-07 -2.98219e-06 0)
(1.0356e-06 -2.865e-06 0)
(1.35002e-06 -2.71543e-06 0)
(1.67629e-06 -2.53868e-06 0)
(2.01504e-06 -2.3407e-06 0)
(2.36555e-06 -2.12782e-06 0)
(2.72625e-06 -1.90673e-06 0)
(3.09461e-06 -1.68245e-06 0)
(1.40882e-07 -3.15507e-06 0)
(4.24108e-07 -3.11747e-06 0)
(7.11474e-07 -3.04362e-06 0)
(1.00534e-06 -2.93617e-06 0)
(1.3077e-06 -2.79872e-06 0)
(1.61976e-06 -2.63574e-06 0)
(1.94218e-06 -2.45234e-06 0)
(2.27467e-06 -2.25388e-06 0)
(2.6161e-06 -2.04611e-06 0)
(2.96476e-06 -1.83244e-06 0)
(1.37583e-07 -3.20743e-06 0)
(4.1395e-07 -3.17281e-06 0)
(6.93809e-07 -3.10479e-06 0)
(9.79004e-07 -3.00568e-06 0)
(1.27125e-06 -2.87863e-06 0)
(1.57148e-06 -2.72758e-06 0)
(1.8802e-06 -2.55706e-06 0)
(2.19715e-06 -2.37176e-06 0)
(2.52134e-06 -2.17707e-06 0)
(2.85132e-06 -1.97567e-06 0)
(1.34561e-07 -3.26103e-06 0)
(4.04608e-07 -3.2291e-06 0)
(6.77588e-07 -3.1663e-06 0)
(9.54946e-07 -3.07468e-06 0)
(1.23813e-06 -2.95707e-06 0)
(1.52792e-06 -2.81695e-06 0)
(1.82474e-06 -2.65836e-06 0)
(2.12838e-06 -2.48526e-06 0)
(2.43812e-06 -2.30258e-06 0)
(2.75213e-06 -2.11275e-06 0)
(1.3173e-07 -3.31581e-06 0)
(3.95969e-07 -3.28619e-06 0)
(6.62655e-07 -3.22793e-06 0)
(9.32999e-07 -3.14289e-06 0)
(1.20819e-06 -3.03356e-06 0)
(1.48886e-06 -2.90311e-06 0)
(1.77529e-06 -2.7552e-06 0)
(2.06725e-06 -2.59333e-06 0)
(2.36435e-06 -2.42198e-06 0)
(2.66443e-06 -2.24356e-06 0)
(1.29019e-07 -3.3717e-06 0)
(3.87748e-07 -3.34416e-06 0)
(6.48523e-07 -3.28995e-06 0)
(9.12401e-07 -3.21077e-06 0)
(1.18031e-06 -3.10889e-06 0)
(1.45283e-06 -2.98716e-06 0)
(1.73017e-06 -2.84891e-06 0)
(2.01196e-06 -2.69729e-06 0)
(2.29816e-06 -2.53627e-06 0)
(2.58625e-06 -2.36847e-06 0)
(1.26438e-07 -3.42857e-06 0)
(3.79854e-07 -3.40286e-06 0)
(6.35028e-07 -3.35225e-06 0)
(8.92875e-07 -3.27827e-06 0)
(1.15413e-06 -3.18301e-06 0)
(1.41925e-06 -3.06908e-06 0)
(1.68848e-06 -2.93955e-06 0)
(1.9613e-06 -2.79728e-06 0)
(2.23792e-06 -2.6458e-06 0)
(2.51568e-06 -2.48786e-06 0)
(1.23912e-07 -3.48633e-06 0)
(3.72134e-07 -3.46227e-06 0)
(6.21913e-07 -3.41487e-06 0)
(8.74009e-07 -3.34556e-06 0)
(1.12905e-06 -3.25627e-06 0)
(1.38742e-06 -3.14936e-06 0)
(1.6493e-06 -3.02768e-06 0)
(1.91415e-06 -2.89391e-06 0)
(2.18231e-06 -2.75112e-06 0)
(2.45112e-06 -2.60221e-06 0)
(1.21376e-07 -3.54484e-06 0)
(3.64495e-07 -3.52226e-06 0)
(6.09008e-07 -3.47773e-06 0)
(8.55562e-07 -3.41261e-06 0)
(1.10471e-06 -3.32868e-06 0)
(1.35678e-06 -3.2281e-06 0)
(1.61192e-06 -3.11352e-06 0)
(1.86959e-06 -2.98746e-06 0)
(2.13017e-06 -2.85263e-06 0)
(2.39113e-06 -2.71196e-06 0)
(1.18814e-07 -3.60399e-06 0)
(3.56856e-07 -3.58274e-06 0)
(5.96127e-07 -3.54081e-06 0)
(8.37263e-07 -3.47947e-06 0)
(1.08072e-06 -3.40038e-06 0)
(1.32682e-06 -3.30552e-06 0)
(1.5757e-06 -3.19737e-06 0)
(1.8268e-06 -3.0783e-06 0)
(2.08051e-06 -2.95072e-06 0)
(2.3345e-06 -2.81754e-06 0)
(1.16233e-07 -3.66361e-06 0)
(3.49138e-07 -3.64358e-06 0)
(5.83121e-07 -3.60401e-06 0)
(8.18875e-07 -3.54608e-06 0)
(1.05677e-06 -3.47137e-06 0)
(1.29713e-06 -3.38172e-06 0)
(1.54007e-06 -3.27939e-06 0)
(1.78506e-06 -3.16668e-06 0)
(2.03247e-06 -3.04572e-06 0)
(2.28019e-06 -2.91933e-06 0)
(1.13602e-07 -3.72358e-06 0)
(3.41217e-07 -3.70464e-06 0)
(5.69814e-07 -3.66723e-06 0)
(8.00141e-07 -3.61241e-06 0)
(1.03253e-06 -3.54169e-06 0)
(1.26725e-06 -3.45678e-06 0)
(1.50448e-06 -3.35977e-06 0)
(1.74369e-06 -3.25283e-06 0)
(1.98523e-06 -3.1379e-06 0)
(2.22726e-06 -3.01769e-06 0)
(1.10864e-07 -3.78369e-06 0)
(3.32966e-07 -3.76575e-06 0)
(5.56027e-07 -3.73031e-06 0)
(7.80802e-07 -3.67836e-06 0)
(1.00763e-06 -3.61129e-06 0)
(1.23675e-06 -3.53071e-06 0)
(1.46838e-06 -3.43857e-06 0)
(1.70205e-06 -3.3369e-06 0)
(1.93806e-06 -3.2275e-06 0)
(2.17481e-06 -3.11293e-06 0)
(1.07968e-07 -3.8438e-06 0)
(3.24276e-07 -3.82678e-06 0)
(5.41579e-07 -3.79317e-06 0)
(7.60601e-07 -3.74385e-06 0)
(9.81725e-07 -3.68015e-06 0)
(1.20519e-06 -3.60357e-06 0)
(1.43123e-06 -3.5159e-06 0)
(1.65948e-06 -3.41908e-06 0)
(1.89015e-06 -3.31477e-06 0)
(2.12187e-06 -3.20534e-06 0)
(1.04886e-07 -3.90359e-06 0)
(3.1506e-07 -3.88742e-06 0)
(5.26295e-07 -3.85551e-06 0)
(7.39276e-07 -3.80866e-06 0)
(9.54458e-07 -3.74809e-06 0)
(1.17211e-06 -3.67522e-06 0)
(1.39248e-06 -3.59171e-06 0)
(1.61531e-06 -3.49938e-06 0)
(1.84072e-06 -3.39978e-06 0)
(2.0676e-06 -3.29506e-06 0)
(1.0159e-07 -3.96296e-06 0)
(3.05201e-07 -3.94761e-06 0)
(5.09941e-07 -3.9173e-06 0)
(7.16495e-07 -3.87277e-06 0)
(9.25401e-07 -3.81515e-06 0)
(1.13697e-06 -3.74575e-06 0)
(1.35148e-06 -3.66614e-06 0)
(1.56875e-06 -3.57802e-06 0)
(1.78889e-06 -3.4828e-06 0)
(2.01093e-06 -3.3825e-06 0)
(9.80331e-08 -4.02129e-06 0)
(2.94544e-07 -4.00671e-06 0)
(4.92262e-07 -3.97793e-06 0)
(6.91904e-07 -3.93561e-06 0)
(8.9409e-07 -3.8808e-06 0)
(1.0992e-06 -3.81472e-06 0)
(1.30755e-06 -3.73882e-06 0)
(1.519e-06 -3.65469e-06 0)
(1.7337e-06 -3.56362e-06 0)
(1.95088e-06 -3.46748e-06 0)
(9.41344e-08 -4.07885e-06 0)
(2.82852e-07 -4.06502e-06 0)
(4.72876e-07 -4.03772e-06 0)
(6.64993e-07 -3.99754e-06 0)
(8.59881e-07 -3.94545e-06 0)
(1.05801e-06 -3.88259e-06 0)
(1.25973e-06 -3.81027e-06 0)
(1.46503e-06 -3.72997e-06 0)
(1.67401e-06 -3.64291e-06 0)
(1.88618e-06 -3.55074e-06 0)
(8.98531e-08 -4.13394e-06 0)
(2.70031e-07 -4.12085e-06 0)
(4.51624e-07 -4.09502e-06 0)
(6.35503e-07 -4.05698e-06 0)
(8.2244e-07 -4.0076e-06 0)
(1.01298e-06 -3.94794e-06 0)
(1.20753e-06 -3.8792e-06 0)
(1.40626e-06 -3.80274e-06 0)
(1.60922e-06 -3.71968e-06 0)
(1.81616e-06 -3.63152e-06 0)
)


// ************************************************************************* //
