/*--------------------------------*- C++ -*----------------------------------*\
| =========                 |                                                 |
| \\      /  F ield         | foam-extend: Open Source CFD                    |
|  \\    /   O peration     | Version:     4.1                                |
|   \\  /    A nd           | Web:         http://www.foam-extend.org         |
|    \\/     M anipulation  |                                                 |
\*---------------------------------------------------------------------------*/
FoamFile
{
    version     2.0;
    format      ascii;
    class       vectorField;
    location    "7";
    object      solidsCellD_iteration5;
}
// * * * * * * * * * * * * * * * * * * * * * * * * * * * * * * * * * * * * * //


1000
(
(3.56843e-06 -1.48044e-06 0)
(3.37152e-06 -1.37996e-06 0)
(3.2464e-06 -1.31715e-06 0)
(3.17544e-06 -1.28893e-06 0)
(3.14179e-06 -1.28055e-06 0)
(3.13544e-06 -1.28748e-06 0)
(3.14916e-06 -1.30444e-06 0)
(3.17796e-06 -1.32895e-06 0)
(3.21797e-06 -1.35856e-06 0)
(3.26571e-06 -1.39227e-06 0)
(3.22733e-06 -1.61705e-06 0)
(3.01747e-06 -1.548e-06 0)
(2.88407e-06 -1.50517e-06 0)
(2.80698e-06 -1.49058e-06 0)
(2.76849e-06 -1.49128e-06 0)
(2.7576e-06 -1.50469e-06 0)
(2.76686e-06 -1.52633e-06 0)
(2.79094e-06 -1.55428e-06 0)
(2.82586e-06 -1.58669e-06 0)
(2.8681e-06 -1.62193e-06 0)
(2.87257e-06 -1.74653e-06 0)
(2.65809e-06 -1.7126e-06 0)
(2.52181e-06 -1.69199e-06 0)
(2.4419e-06 -1.69237e-06 0)
(2.40064e-06 -1.70287e-06 0)
(2.38656e-06 -1.72307e-06 0)
(2.39219e-06 -1.74943e-06 0)
(2.41223e-06 -1.78066e-06 0)
(2.44264e-06 -1.81559e-06 0)
(2.48015e-06 -1.8524e-06 0)
(2.507e-06 -1.86657e-06 0)
(2.29687e-06 -1.86944e-06 0)
(2.16338e-06 -1.87211e-06 0)
(2.08428e-06 -1.88805e-06 0)
(2.04244e-06 -1.9087e-06 0)
(2.02659e-06 -1.93581e-06 0)
(2.02946e-06 -1.96685e-06 0)
(2.04591e-06 -2.00133e-06 0)
(2.07218e-06 -2.03871e-06 0)
(2.105e-06 -2.07723e-06 0)
(2.13302e-06 -1.97479e-06 0)
(1.93625e-06 -2.01413e-06 0)
(1.81122e-06 -2.0399e-06 0)
(1.73662e-06 -2.07119e-06 0)
(1.69654e-06 -2.10176e-06 0)
(1.68028e-06 -2.13561e-06 0)
(1.68119e-06 -2.17117e-06 0)
(1.6944e-06 -2.20882e-06 0)
(1.71666e-06 -2.24851e-06 0)
(1.74474e-06 -2.28885e-06 0)
(1.75258e-06 -2.069e-06 0)
(1.57781e-06 -2.14242e-06 0)
(1.4668e-06 -2.18979e-06 0)
(1.40021e-06 -2.23542e-06 0)
(1.36403e-06 -2.27526e-06 0)
(1.34862e-06 -2.31539e-06 0)
(1.3483e-06 -2.3551e-06 0)
(1.35867e-06 -2.39571e-06 0)
(1.37696e-06 -2.43753e-06 0)
(1.40013e-06 -2.47969e-06 0)
(1.36744e-06 -2.14708e-06 0)
(1.22249e-06 -2.25038e-06 0)
(1.13043e-06 -2.31668e-06 0)
(1.07499e-06 -2.37485e-06 0)
(1.0446e-06 -2.42278e-06 0)
(1.03129e-06 -2.46838e-06 0)
(1.03038e-06 -2.51173e-06 0)
(1.03816e-06 -2.55495e-06 0)
(1.05243e-06 -2.59864e-06 0)
(1.07056e-06 -2.64249e-06 0)
(9.78971e-07 -2.20729e-06 0)
(8.70392e-07 -2.33458e-06 0)
(8.01453e-07 -2.41609e-06 0)
(7.59863e-07 -2.48429e-06 0)
(7.36911e-07 -2.53873e-06 0)
(7.26656e-07 -2.58872e-06 0)
(7.25618e-07 -2.63501e-06 0)
(7.31014e-07 -2.68033e-06 0)
(7.41237e-07 -2.72551e-06 0)
(7.54232e-07 -2.77075e-06 0)
(5.88325e-07 -2.2482e-06 0)
(5.21121e-07 -2.39226e-06 0)
(4.78442e-07 -2.4844e-06 0)
(4.52597e-07 -2.55967e-06 0)
(4.38264e-07 -2.61866e-06 0)
(4.3181e-07 -2.67172e-06 0)
(4.31056e-07 -2.72006e-06 0)
(4.3422e-07 -2.7669e-06 0)
(4.40332e-07 -2.81316e-06 0)
(4.48135e-07 -2.85945e-06 0)
(1.96495e-07 -2.26882e-06 0)
(1.73693e-07 -2.42152e-06 0)
(1.59188e-07 -2.51917e-06 0)
(1.50425e-07 -2.59807e-06 0)
(1.45562e-07 -2.65939e-06 0)
(1.43315e-07 -2.71403e-06 0)
(1.42993e-07 -2.76343e-06 0)
(1.44028e-07 -2.81103e-06 0)
(1.46064e-07 -2.85783e-06 0)
(1.48652e-07 -2.90463e-06 0)
(5.56088e-06 -6.75852e-08 0)
(5.61069e-06 -4.88267e-08 0)
(5.64175e-06 -3.6972e-08 0)
(5.67566e-06 -3.00404e-08 0)
(5.71289e-06 -2.62432e-08 0)
(5.75845e-06 -2.45478e-08 0)
(5.81219e-06 -2.42429e-08 0)
(5.87464e-06 -2.48732e-08 0)
(5.94563e-06 -2.61943e-08 0)
(6.02424e-06 -2.77439e-08 0)
(5.51991e-06 -2.02736e-07 0)
(5.56148e-06 -1.47562e-07 0)
(5.58741e-06 -1.12786e-07 0)
(5.61786e-06 -9.25308e-08 0)
(5.65282e-06 -8.14567e-08 0)
(5.69672e-06 -7.65507e-08 0)
(5.74932e-06 -7.58092e-08 0)
(5.81083e-06 -7.78102e-08 0)
(5.88102e-06 -8.17559e-08 0)
(5.95879e-06 -8.63998e-08 0)
(5.43796e-06 -3.39046e-07 0)
(5.46389e-06 -2.50485e-07 0)
(5.47993e-06 -1.9471e-07 0)
(5.50384e-06 -1.62298e-07 0)
(5.53446e-06 -1.44703e-07 0)
(5.57533e-06 -1.3706e-07 0)
(5.62567e-06 -1.36086e-07 0)
(5.68533e-06 -1.39533e-07 0)
(5.75397e-06 -1.46112e-07 0)
(5.83009e-06 -1.53887e-07 0)
(5.31655e-06 -4.77055e-07 0)
(5.32027e-06 -3.59942e-07 0)
(5.32219e-06 -2.86247e-07 0)
(5.3368e-06 -2.43615e-07 0)
(5.36122e-06 -2.20619e-07 0)
(5.39768e-06 -2.10884e-07 0)
(5.44481e-06 -2.10021e-07 0)
(5.50191e-06 -2.15104e-07 0)
(5.56837e-06 -2.24346e-07 0)
(5.64223e-06 -2.35262e-07 0)
(5.15751e-06 -6.17165e-07 0)
(5.13378e-06 -4.77931e-07 0)
(5.11826e-06 -3.90339e-07 0)
(5.12129e-06 -3.40034e-07 0)
(5.13806e-06 -3.13167e-07 0)
(5.1691e-06 -3.02258e-07 0)
(5.21223e-06 -3.02013e-07 0)
(5.26612e-06 -3.08953e-07 0)
(5.32984e-06 -3.20849e-07 0)
(5.40094e-06 -3.34888e-07 0)
(4.96325e-06 -7.59426e-07 0)
(4.90842e-06 -6.05715e-07 0)
(4.87319e-06 -5.09004e-07 0)
(4.86312e-06 -4.54052e-07 0)
(4.87121e-06 -4.25173e-07 0)
(4.89607e-06 -4.14186e-07 0)
(4.93466e-06 -4.15108e-07 0)
(4.98486e-06 -4.24135e-07 0)
(5.04544e-06 -4.38676e-07 0)
(5.11351e-06 -4.55818e-07 0)
(4.73658e-06 -9.03565e-07 0)
(4.64889e-06 -7.43811e-07 0)
(4.59287e-06 -6.43305e-07 0)
(4.56896e-06 -5.87062e-07 0)
(4.56782e-06 -5.58207e-07 0)
(4.58608e-06 -5.48344e-07 0)
(4.61977e-06 -5.51062e-07 0)
(4.66599e-06 -5.62455e-07 0)
(4.72312e-06 -5.79703e-07 0)
(4.78803e-06 -5.99916e-07 0)
(4.4805e-06 -1.04893e-06 0)
(4.36022e-06 -8.919e-07 0)
(4.28356e-06 -7.93133e-07 0)
(4.24585e-06 -7.39058e-07 0)
(4.23544e-06 -7.12344e-07 0)
(4.24703e-06 -7.04871e-07 0)
(4.27567e-06 -7.1006e-07 0)
(4.3178e-06 -7.2415e-07 0)
(4.3713e-06 -7.44151e-07 0)
(4.43299e-06 -7.67432e-07 0)
(4.19827e-06 -1.19451e-06 0)
(4.04767e-06 -1.04878e-06 0)
(3.95189e-06 -9.57191e-07 0)
(3.90126e-06 -9.08709e-07 0)
(3.88208e-06 -8.8624e-07 0)
(3.88719e-06 -8.82424e-07 0)
(3.91078e-06 -8.90831e-07 0)
(3.94874e-06 -9.07916e-07 0)
(3.9983e-06 -9.30862e-07 0)
(4.05672e-06 -9.57044e-07 0)
(3.89318e-06 -1.3389e-06 0)
(3.71645e-06 -1.21238e-06 0)
(3.60415e-06 -1.13302e-06 0)
(3.54221e-06 -1.09334e-06 0)
(3.51517e-06 -1.07708e-06 0)
(3.51422e-06 -1.07813e-06 0)
(3.53293e-06 -1.09049e-06 0)
(3.56673e-06 -1.11114e-06 0)
(3.6124e-06 -1.13729e-06 0)
(3.6671e-06 -1.16749e-06 0)
(6.11053e-06 -2.92688e-08 0)
(6.20455e-06 -2.96558e-08 0)
(6.3045e-06 -3.00857e-08 0)
(6.41e-06 -3.03934e-08 0)
(6.5204e-06 -3.05516e-08 0)
(6.63531e-06 -3.05553e-08 0)
(6.75424e-06 -3.03831e-08 0)
(6.87673e-06 -3.0048e-08 0)
(7.00235e-06 -2.95284e-08 0)
(7.13075e-06 -2.87953e-08 0)
(7.26158e-06 -2.78247e-08 0)
(7.39441e-06 -2.66084e-08 0)
(7.5289e-06 -2.5138e-08 0)
(7.66467e-06 -2.33958e-08 0)
(7.80137e-06 -2.13455e-08 0)
(7.9385e-06 -1.8942e-08 0)
(8.07581e-06 -1.61326e-08 0)
(8.21241e-06 -1.28633e-08 0)
(8.34848e-06 -9.05712e-09 0)
(8.48191e-06 -4.6923e-09 0)
(6.04797e-06 -9.07032e-08 0)
(6.14721e-06 -9.1478e-08 0)
(6.25182e-06 -9.23987e-08 0)
(6.36138e-06 -9.30193e-08 0)
(6.47545e-06 -9.3238e-08 0)
(6.59359e-06 -9.30574e-08 0)
(6.71542e-06 -9.23925e-08 0)
(6.84052e-06 -9.12406e-08 0)
(6.96855e-06 -8.9524e-08 0)
(7.09915e-06 -8.71948e-08 0)
(7.23199e-06 -8.42087e-08 0)
(7.3667e-06 -8.05314e-08 0)
(7.50297e-06 -7.61039e-08 0)
(7.6404e-06 -7.08477e-08 0)
(7.77867e-06 -6.46561e-08 0)
(7.91727e-06 -5.74162e-08 0)
(8.056e-06 -4.898e-08 0)
(8.19397e-06 -3.91916e-08 0)
(8.33141e-06 -2.78136e-08 0)
(8.46621e-06 -1.47554e-08 0)
(5.9249e-06 -1.60083e-07 0)
(6.03437e-06 -1.60076e-07 0)
(6.14819e-06 -1.60427e-07 0)
(6.26572e-06 -1.60564e-07 0)
(6.3869e-06 -1.60194e-07 0)
(6.51137e-06 -1.59322e-07 0)
(6.63895e-06 -1.57746e-07 0)
(6.76925e-06 -1.55432e-07 0)
(6.90198e-06 -1.52238e-07 0)
(7.03689e-06 -1.48098e-07 0)
(7.17371e-06 -1.42939e-07 0)
(7.31214e-06 -1.3668e-07 0)
(7.45189e-06 -1.29196e-07 0)
(7.59258e-06 -1.20345e-07 0)
(7.73393e-06 -1.09954e-07 0)
(7.8755e-06 -9.784e-08 0)
(8.01708e-06 -8.37574e-08 0)
(8.15781e-06 -6.74579e-08 0)
(8.29795e-06 -4.85459e-08 0)
(8.43542e-06 -2.68466e-08 0)
(5.74509e-06 -2.41925e-07 0)
(5.86922e-06 -2.393e-07 0)
(5.99632e-06 -2.37422e-07 0)
(6.12541e-06 -2.35832e-07 0)
(6.25702e-06 -2.33842e-07 0)
(6.39075e-06 -2.31461e-07 0)
(6.52668e-06 -2.28297e-07 0)
(6.66452e-06 -2.24277e-07 0)
(6.80419e-06 -2.19178e-07 0)
(6.94547e-06 -2.12906e-07 0)
(7.08818e-06 -2.05321e-07 0)
(7.23205e-06 -1.96273e-07 0)
(7.37687e-06 -1.85565e-07 0)
(7.52232e-06 -1.73002e-07 0)
(7.6682e-06 -1.58354e-07 0)
(7.8141e-06 -1.41343e-07 0)
(7.95984e-06 -1.21618e-07 0)
(8.10464e-06 -9.88301e-08 0)
(8.24874e-06 -7.24144e-08 0)
(8.39014e-06 -4.21304e-08 0)
(5.5138e-06 -3.40226e-07 0)
(5.65639e-06 -3.32661e-07 0)
(5.8004e-06 -3.26441e-07 0)
(5.94421e-06 -3.21504e-07 0)
(6.08912e-06 -3.16524e-07 0)
(6.2347e-06 -3.1152e-07 0)
(6.38141e-06 -3.05875e-07 0)
(6.52901e-06 -2.99443e-07 0)
(6.67761e-06 -2.91887e-07 0)
(6.8271e-06 -2.8303e-07 0)
(6.97737e-06 -2.72647e-07 0)
(7.12827e-06 -2.60513e-07 0)
(7.27966e-06 -2.46367e-07 0)
(7.43131e-06 -2.29946e-07 0)
(7.58307e-06 -2.10942e-07 0)
(7.73455e-06 -1.88983e-07 0)
(7.88568e-06 -1.63611e-07 0)
(8.03566e-06 -1.34369e-07 0)
(8.18489e-06 -1.00518e-07 0)
(8.33137e-06 -6.17385e-08 0)
(5.23772e-06 -4.57837e-07 0)
(5.40156e-06 -4.42653e-07 0)
(5.56533e-06 -4.29592e-07 0)
(5.72645e-06 -4.19332e-07 0)
(5.88719e-06 -4.0974e-07 0)
(6.04693e-06 -4.00804e-07 0)
(6.20654e-06 -3.91626e-07 0)
(6.36585e-06 -3.81906e-07 0)
(6.52516e-06 -3.7119e-07 0)
(6.68447e-06 -3.59192e-07 0)
(6.84384e-06 -3.45589e-07 0)
(7.00322e-06 -3.30058e-07 0)
(7.16252e-06 -3.12254e-07 0)
(7.3216e-06 -2.91832e-07 0)
(7.48042e-06 -2.68382e-07 0)
(7.63859e-06 -2.41437e-07 0)
(7.79618e-06 -2.10437e-07 0)
(7.95241e-06 -1.74813e-07 0)
(8.1078e-06 -1.33645e-07 0)
(8.26041e-06 -8.65022e-08 0)
(4.92439e-06 -5.96616e-07 0)
(5.1114e-06 -5.71033e-07 0)
(5.29709e-06 -5.48621e-07 0)
(5.47755e-06 -5.30935e-07 0)
(5.65602e-06 -5.15033e-07 0)
(5.83178e-06 -5.00713e-07 0)
(6.00592e-06 -4.86828e-07 0)
(6.17851e-06 -4.72856e-07 0)
(6.35003e-06 -4.58207e-07 0)
(6.5206e-06 -4.42445e-07 0)
(6.69039e-06 -4.25124e-07 0)
(6.85944e-06 -4.05805e-07 0)
(7.02779e-06 -3.84042e-07 0)
(7.19539e-06 -3.59402e-07 0)
(7.36224e-06 -3.31367e-07 0)
(7.52811e-06 -2.99379e-07 0)
(7.6931e-06 -2.62767e-07 0)
(7.85653e-06 -2.2083e-07 0)
(8.01895e-06 -1.72461e-07 0)
(8.17858e-06 -1.17115e-07 0)
(4.58154e-06 -7.56906e-07 0)
(4.79262e-06 -7.17931e-07 0)
(5.00138e-06 -6.83701e-07 0)
(5.20266e-06 -6.56245e-07 0)
(5.40026e-06 -6.32192e-07 0)
(5.59352e-06 -6.10891e-07 0)
(5.78366e-06 -5.91029e-07 0)
(5.97093e-06 -5.7179e-07 0)
(6.15593e-06 -5.52419e-07 0)
(6.33894e-06 -5.32277e-07 0)
(6.52023e-06 -5.10771e-07 0)
(6.69997e-06 -4.87323e-07 0)
(6.87828e-06 -4.61379e-07 0)
(7.05528e-06 -4.32396e-07 0)
(7.23102e-06 -3.99743e-07 0)
(7.40538e-06 -3.62758e-07 0)
(7.57854e-06 -3.20632e-07 0)
(7.74989e-06 -2.72527e-07 0)
(7.92007e-06 -2.17145e-07 0)
(8.08747e-06 -1.5383e-07 0)
(4.21731e-06 -9.38498e-07 0)
(4.45285e-06 -8.83476e-07 0)
(4.68493e-06 -8.35777e-07 0)
(4.90789e-06 -7.96516e-07 0)
(5.12536e-06 -7.62753e-07 0)
(5.337e-06 -7.33035e-07 0)
(5.54401e-06 -7.05962e-07 0)
(5.74686e-06 -6.80391e-07 0)
(5.94621e-06 -6.55377e-07 0)
(6.14248e-06 -6.3008e-07 0)
(6.33608e-06 -6.03745e-07 0)
(6.52727e-06 -5.75661e-07 0)
(6.71632e-06 -5.45157e-07 0)
(6.90344e-06 -5.11566e-07 0)
(7.08875e-06 -4.7413e-07 0)
(7.27225e-06 -4.32071e-07 0)
(7.45418e-06 -3.84433e-07 0)
(7.63406e-06 -3.30239e-07 0)
(7.81257e-06 -2.6802e-07 0)
(7.98837e-06 -1.97025e-07 0)
(3.83857e-06 -1.13857e-06 0)
(4.09918e-06 -1.0637e-06 0)
(4.35391e-06 -1.00089e-06 0)
(4.59924e-06 -9.47849e-07 0)
(4.83711e-06 -9.02626e-07 0)
(5.06792e-06 -8.6308e-07 0)
(5.29253e-06 -8.27655e-07 0)
(5.51166e-06 -7.94905e-07 0)
(5.726e-06 -7.63622e-07 0)
(5.93614e-06 -7.32738e-07 0)
(6.14258e-06 -7.01303e-07 0)
(6.34572e-06 -6.68439e-07 0)
(6.54595e-06 -6.33329e-07 0)
(6.74358e-06 -5.95164e-07 0)
(6.9388e-06 -5.53056e-07 0)
(7.13175e-06 -5.06104e-07 0)
(7.32271e-06 -4.53207e-07 0)
(7.5114e-06 -3.93251e-07 0)
(7.69854e-06 -3.24601e-07 0)
(7.88312e-06 -2.46376e-07 0)
(3.55522e-06 -1.33213e-06 0)
(3.834e-06 -1.24022e-06 0)
(4.10294e-06 -1.16577e-06 0)
(4.3623e-06 -1.1016e-06 0)
(4.6131e-06 -1.04622e-06 0)
(4.85611e-06 -9.97431e-07 0)
(5.09218e-06 -9.5359e-07 0)
(5.32204e-06 -9.13194e-07 0)
(5.54638e-06 -8.74934e-07 0)
(5.7658e-06 -8.37644e-07 0)
(5.98086e-06 -8.00277e-07 0)
(6.19197e-06 -7.61861e-07 0)
(6.3996e-06 -7.21481e-07 0)
(6.6041e-06 -6.78235e-07 0)
(6.8057e-06 -6.31152e-07 0)
(7.00468e-06 -5.79254e-07 0)
(7.20132e-06 -5.21371e-07 0)
(7.39556e-06 -4.56337e-07 0)
(7.58812e-06 -3.82475e-07 0)
(7.77834e-06 -2.98856e-07 0)
(3.39406e-06 -1.4901e-06 0)
(3.67454e-06 -1.39435e-06 0)
(3.94589e-06 -1.31311e-06 0)
(4.209e-06 -1.24186e-06 0)
(4.46404e-06 -1.17921e-06 0)
(4.71156e-06 -1.12328e-06 0)
(4.95218e-06 -1.0725e-06 0)
(5.18649e-06 -1.02543e-06 0)
(5.41506e-06 -9.80817e-07 0)
(5.63845e-06 -9.37491e-07 0)
(5.85716e-06 -8.944e-07 0)
(6.07161e-06 -8.50555e-07 0)
(6.28226e-06 -8.05021e-07 0)
(6.48948e-06 -7.56871e-07 0)
(6.6935e-06 -7.05123e-07 0)
(6.89469e-06 -6.48788e-07 0)
(7.09333e-06 -5.86714e-07 0)
(7.28954e-06 -5.1777e-07 0)
(7.484e-06 -4.40356e-07 0)
(7.67636e-06 -3.5355e-07 0)
(3.25711e-06 -1.64126e-06 0)
(3.53464e-06 -1.5435e-06 0)
(3.80547e-06 -1.45803e-06 0)
(4.0692e-06 -1.38144e-06 0)
(4.32589e-06 -1.3128e-06 0)
(4.57563e-06 -1.2506e-06 0)
(4.81887e-06 -1.19348e-06 0)
(5.05596e-06 -1.14016e-06 0)
(5.28736e-06 -1.08946e-06 0)
(5.51353e-06 -1.04026e-06 0)
(5.73491e-06 -9.91536e-07 0)
(5.95187e-06 -9.4232e-07 0)
(6.16487e-06 -8.91677e-07 0)
(6.37424e-06 -8.38675e-07 0)
(6.58025e-06 -7.82347e-07 0)
(6.78332e-06 -7.21719e-07 0)
(6.98371e-06 -6.55681e-07 0)
(7.1817e-06 -5.83158e-07 0)
(7.37791e-06 -5.02641e-07 0)
(7.57226e-06 -4.13234e-07 0)
(3.13666e-06 -1.78664e-06 0)
(3.41004e-06 -1.68797e-06 0)
(3.67848e-06 -1.59944e-06 0)
(3.94093e-06 -1.5186e-06 0)
(4.19739e-06 -1.44489e-06 0)
(4.44764e-06 -1.37718e-06 0)
(4.69194e-06 -1.31434e-06 0)
(4.93045e-06 -1.25526e-06 0)
(5.1635e-06 -1.19886e-06 0)
(5.39144e-06 -1.14411e-06 0)
(5.61463e-06 -1.09003e-06 0)
(5.83339e-06 -1.03568e-06 0)
(6.04813e-06 -9.80148e-07 0)
(6.25919e-06 -9.22531e-07 0)
(6.46681e-06 -8.61883e-07 0)
(6.67145e-06 -7.97267e-07 0)
(6.87336e-06 -7.27635e-07 0)
(7.07294e-06 -6.51975e-07 0)
(7.27075e-06 -5.68871e-07 0)
(7.46695e-06 -4.77521e-07 0)
(3.03056e-06 -1.92589e-06 0)
(3.29883e-06 -1.82708e-06 0)
(3.56356e-06 -1.7366e-06 0)
(3.82334e-06 -1.65259e-06 0)
(4.07814e-06 -1.57482e-06 0)
(4.32753e-06 -1.50246e-06 0)
(4.57161e-06 -1.43462e-06 0)
(4.81036e-06 -1.37037e-06 0)
(5.04402e-06 -1.30875e-06 0)
(5.27282e-06 -1.24884e-06 0)
(5.49703e-06 -1.18972e-06 0)
(5.71691e-06 -1.13052e-06 0)
(5.93286e-06 -1.07037e-06 0)
(6.14513e-06 -1.00839e-06 0)
(6.354e-06 -9.43687e-07 0)
(6.55992e-06 -8.75375e-07 0)
(6.76314e-06 -8.02474e-07 0)
(6.9641e-06 -7.24045e-07 0)
(7.16334e-06 -6.38795e-07 0)
(7.36123e-06 -5.46094e-07 0)
(2.93619e-06 -2.05916e-06 0)
(3.19885e-06 -1.9608e-06 0)
(3.45912e-06 -1.86913e-06 0)
(3.71529e-06 -1.78279e-06 0)
(3.96741e-06 -1.70177e-06 0)
(4.21489e-06 -1.62552e-06 0)
(4.45772e-06 -1.55336e-06 0)
(4.69576e-06 -1.48454e-06 0)
(4.92913e-06 -1.41822e-06 0)
(5.15801e-06 -1.3536e-06 0)
(5.38256e-06 -1.28986e-06 0)
(5.60297e-06 -1.22617e-06 0)
(5.81961e-06 -1.16174e-06 0)
(6.03268e-06 -1.09573e-06 0)
(6.24246e-06 -1.0273e-06 0)
(6.44937e-06 -9.5563e-07 0)
(6.65365e-06 -8.79816e-07 0)
(6.8558e-06 -7.99e-07 0)
(7.05632e-06 -7.12061e-07 0)
(7.25571e-06 -6.18539e-07 0)
(2.85158e-06 -2.1867e-06 0)
(3.10837e-06 -2.08918e-06 0)
(3.36367e-06 -1.99691e-06 0)
(3.61561e-06 -1.90893e-06 0)
(3.86433e-06 -1.8254e-06 0)
(4.10913e-06 -1.74597e-06 0)
(4.34994e-06 -1.67016e-06 0)
(4.58651e-06 -1.59736e-06 0)
(4.8189e-06 -1.52689e-06 0)
(5.04719e-06 -1.45805e-06 0)
(5.27148e-06 -1.39012e-06 0)
(5.49192e-06 -1.32234e-06 0)
(5.7088e-06 -1.25399e-06 0)
(5.92229e-06 -1.18429e-06 0)
(6.13266e-06 -1.11247e-06 0)
(6.34028e-06 -1.03777e-06 0)
(6.54541e-06 -9.59379e-07 0)
(6.74856e-06 -8.76542e-07 0)
(6.95019e-06 -7.88339e-07 0)
(7.15089e-06 -6.94376e-07 0)
(2.77496e-06 -2.30878e-06 0)
(3.02582e-06 -2.21237e-06 0)
(3.27586e-06 -2.11995e-06 0)
(3.52321e-06 -2.03088e-06 0)
(3.76804e-06 -1.94545e-06 0)
(4.00962e-06 -1.86345e-06 0)
(4.24782e-06 -1.78458e-06 0)
(4.48234e-06 -1.70837e-06 0)
(4.71318e-06 -1.63427e-06 0)
(4.94035e-06 -1.56172e-06 0)
(5.1639e-06 -1.49004e-06 0)
(5.38391e-06 -1.41859e-06 0)
(5.60066e-06 -1.34671e-06 0)
(5.81423e-06 -1.27369e-06 0)
(6.0249e-06 -1.19883e-06 0)
(6.233e-06 -1.12143e-06 0)
(6.43877e-06 -1.04081e-06 0)
(6.64274e-06 -9.56318e-07 0)
(6.84532e-06 -8.6721e-07 0)
(7.04712e-06 -7.73077e-07 0)
(2.70475e-06 -2.42578e-06 0)
(2.94974e-06 -2.33065e-06 0)
(3.19441e-06 -2.23841e-06 0)
(3.43698e-06 -2.14867e-06 0)
(3.67762e-06 -2.06182e-06 0)
(3.91561e-06 -1.97778e-06 0)
(4.1508e-06 -1.89638e-06 0)
(4.38285e-06 -1.81729e-06 0)
(4.61171e-06 -1.74008e-06 0)
(4.83736e-06 -1.66428e-06 0)
(5.05977e-06 -1.58932e-06 0)
(5.279e-06 -1.51463e-06 0)
(5.49528e-06 -1.43962e-06 0)
(5.70866e-06 -1.36364e-06 0)
(5.91937e-06 -1.28608e-06 0)
(6.12774e-06 -1.20635e-06 0)
(6.33398e-06 -1.12384e-06 0)
(6.53861e-06 -1.03802e-06 0)
(6.74196e-06 -9.48264e-07 0)
(6.94469e-06 -8.5422e-07 0)
(2.63955e-06 -2.5381e-06 0)
(2.8788e-06 -2.44432e-06 0)
(3.11812e-06 -2.35247e-06 0)
(3.35585e-06 -2.26239e-06 0)
(3.59215e-06 -2.17451e-06 0)
(3.82634e-06 -2.08886e-06 0)
(4.05826e-06 -2.00541e-06 0)
(4.28755e-06 -1.92392e-06 0)
(4.51413e-06 -1.84407e-06 0)
(4.73794e-06 -1.7655e-06 0)
(4.95893e-06 -1.6877e-06 0)
(5.17711e-06 -1.61019e-06 0)
(5.39266e-06 -1.53244e-06 0)
(5.60561e-06 -1.45389e-06 0)
(5.81617e-06 -1.374e-06 0)
(6.02463e-06 -1.29226e-06 0)
(6.23118e-06 -1.20819e-06 0)
(6.43631e-06 -1.12133e-06 0)
(6.64026e-06 -1.03112e-06 0)
(6.84375e-06 -9.37427e-07 0)
(2.57815e-06 -2.64612e-06 0)
(2.81182e-06 -2.55371e-06 0)
(3.04589e-06 -2.46238e-06 0)
(3.27879e-06 -2.37218e-06 0)
(3.51071e-06 -2.28358e-06 0)
(3.74101e-06 -2.19672e-06 0)
(3.96952e-06 -2.11163e-06 0)
(4.19589e-06 -2.0282e-06 0)
(4.42e-06 -1.94617e-06 0)
(4.64178e-06 -1.86525e-06 0)
(4.86113e-06 -1.78504e-06 0)
(5.07805e-06 -1.70511e-06 0)
(5.29268e-06 -1.625e-06 0)
(5.50503e-06 -1.54424e-06 0)
(5.71528e-06 -1.46236e-06 0)
(5.9237e-06 -1.37895e-06 0)
(6.13042e-06 -1.29359e-06 0)
(6.33588e-06 -1.20589e-06 0)
(6.54032e-06 -1.11544e-06 0)
(6.74441e-06 -1.02225e-06 0)
(2.51944e-06 -2.75023e-06 0)
(2.74775e-06 -2.65912e-06 0)
(2.97668e-06 -2.56839e-06 0)
(3.20486e-06 -2.47824e-06 0)
(3.43245e-06 -2.3892e-06 0)
(3.65887e-06 -2.30145e-06 0)
(3.88393e-06 -2.2151e-06 0)
(4.10729e-06 -2.1301e-06 0)
(4.32883e-06 -2.0463e-06 0)
(4.54846e-06 -1.96343e-06 0)
(4.76605e-06 -1.88119e-06 0)
(4.98158e-06 -1.79921e-06 0)
(5.19517e-06 -1.71711e-06 0)
(5.4068e-06 -1.63449e-06 0)
(5.61663e-06 -1.55097e-06 0)
(5.82488e-06 -1.46618e-06 0)
(6.03165e-06 -1.37977e-06 0)
(6.23733e-06 -1.29142e-06 0)
(6.44214e-06 -1.20095e-06 0)
(6.64668e-06 -1.10828e-06 0)
(2.46243e-06 -2.85073e-06 0)
(2.68559e-06 -2.76083e-06 0)
(2.90958e-06 -2.67076e-06 0)
(3.13319e-06 -2.58081e-06 0)
(3.35656e-06 -2.49154e-06 0)
(3.57915e-06 -2.40316e-06 0)
(3.8008e-06 -2.31587e-06 0)
(4.02116e-06 -2.22965e-06 0)
(4.24012e-06 -2.14442e-06 0)
(4.45756e-06 -2.05999e-06 0)
(4.67334e-06 -1.97609e-06 0)
(4.88742e-06 -1.89244e-06 0)
(5.0999e-06 -1.80871e-06 0)
(5.31074e-06 -1.72457e-06 0)
(5.52007e-06 -1.6397e-06 0)
(5.72807e-06 -1.55379e-06 0)
(5.93477e-06 -1.46654e-06 0)
(6.14058e-06 -1.37775e-06 0)
(6.34564e-06 -1.28737e-06 0)
(6.55052e-06 -1.19527e-06 0)
(2.40619e-06 -2.9479e-06 0)
(2.62444e-06 -2.85917e-06 0)
(2.8437e-06 -2.76976e-06 0)
(3.06292e-06 -2.68012e-06 0)
(3.28222e-06 -2.59078e-06 0)
(3.50112e-06 -2.50201e-06 0)
(3.71947e-06 -2.41406e-06 0)
(3.93692e-06 -2.32693e-06 0)
(4.15334e-06 -2.24062e-06 0)
(4.36862e-06 -2.15496e-06 0)
(4.58259e-06 -2.06975e-06 0)
(4.79523e-06 -1.98476e-06 0)
(5.0066e-06 -1.89973e-06 0)
(5.21663e-06 -1.81437e-06 0)
(5.4254e-06 -1.72841e-06 0)
(5.63306e-06 -1.64159e-06 0)
(5.83964e-06 -1.5537e-06 0)
(6.04551e-06 -1.46466e-06 0)
(6.25074e-06 -1.37437e-06 0)
(6.45585e-06 -1.28289e-06 0)
(2.3498e-06 -3.04207e-06 0)
(2.56338e-06 -2.95441e-06 0)
(2.77815e-06 -2.86568e-06 0)
(2.9932e-06 -2.77642e-06 0)
(3.20864e-06 -2.68717e-06 0)
(3.42406e-06 -2.59823e-06 0)
(3.63927e-06 -2.50986e-06 0)
(3.85395e-06 -2.4221e-06 0)
(4.06796e-06 -2.33497e-06 0)
(4.28117e-06 -2.24838e-06 0)
(4.49342e-06 -2.16217e-06 0)
(4.70467e-06 -2.07617e-06 0)
(4.91496e-06 -1.99014e-06 0)
(5.12417e-06 -1.90383e-06 0)
(5.33236e-06 -1.81702e-06 0)
(5.53966e-06 -1.7295e-06 0)
(5.74609e-06 -1.64117e-06 0)
(5.95197e-06 -1.55198e-06 0)
(6.1573e-06 -1.46181e-06 0)
(6.36253e-06 -1.37087e-06 0)
(2.29239e-06 -3.13348e-06 0)
(2.50153e-06 -3.04689e-06 0)
(2.71202e-06 -2.95875e-06 0)
(2.9232e-06 -2.86993e-06 0)
(3.13506e-06 -2.78092e-06 0)
(3.34726e-06 -2.69199e-06 0)
(3.55957e-06 -2.6034e-06 0)
(3.77168e-06 -2.51526e-06 0)
(3.98345e-06 -2.4276e-06 0)
(4.19476e-06 -2.34037e-06 0)
(4.40544e-06 -2.25346e-06 0)
(4.61541e-06 -2.16671e-06 0)
(4.82467e-06 -2.07993e-06 0)
(5.03308e-06 -1.9929e-06 0)
(5.24069e-06 -1.90545e-06 0)
(5.44766e-06 -1.81745e-06 0)
(5.65394e-06 -1.72883e-06 0)
(5.85976e-06 -1.63948e-06 0)
(6.0651e-06 -1.54949e-06 0)
(6.27037e-06 -1.45903e-06 0)
(2.23304e-06 -3.22245e-06 0)
(2.43785e-06 -3.1366e-06 0)
(2.64427e-06 -3.04927e-06 0)
(2.85206e-06 -2.96107e-06 0)
(3.06068e-06 -2.87238e-06 0)
(3.27e-06 -2.7836e-06 0)
(3.4797e-06 -2.69498e-06 0)
(3.68953e-06 -2.60666e-06 0)
(3.89933e-06 -2.51871e-06 0)
(4.10898e-06 -2.43108e-06 0)
(4.31828e-06 -2.34372e-06 0)
(4.52708e-06 -2.25645e-06 0)
(4.73538e-06 -2.16913e-06 0)
(4.94307e-06 -2.0816e-06 0)
(5.1502e-06 -1.99373e-06 0)
(5.35687e-06 -1.9054e-06 0)
(5.56294e-06 -1.81653e-06 0)
(5.7686e-06 -1.72707e-06 0)
(5.97393e-06 -1.63728e-06 0)
(6.17932e-06 -1.54722e-06 0)
(2.17034e-06 -3.30886e-06 0)
(2.37147e-06 -3.22391e-06 0)
(2.57456e-06 -3.13754e-06 0)
(2.77907e-06 -3.04996e-06 0)
(2.98485e-06 -2.96175e-06 0)
(3.19162e-06 -2.87326e-06 0)
(3.39909e-06 -2.78479e-06 0)
(3.60701e-06 -2.6965e-06 0)
(3.81519e-06 -2.60847e-06 0)
(4.02347e-06 -2.52066e-06 0)
(4.23155e-06 -2.43302e-06 0)
(4.43933e-06 -2.34545e-06 0)
(4.64686e-06 -2.25782e-06 0)
(4.854e-06 -2.16997e-06 0)
(5.06069e-06 -2.0818e-06 0)
(5.26693e-06 -1.99323e-06 0)
(5.47274e-06 -1.90418e-06 0)
(5.67841e-06 -1.81473e-06 0)
(5.88372e-06 -1.72505e-06 0)
(6.08892e-06 -1.6353e-06 0)
(2.10346e-06 -3.39367e-06 0)
(2.30123e-06 -3.30976e-06 0)
(2.50128e-06 -3.22411e-06 0)
(2.70311e-06 -3.1372e-06 0)
(2.90655e-06 -3.04954e-06 0)
(3.11131e-06 -2.96149e-06 0)
(3.31712e-06 -2.87332e-06 0)
(3.52364e-06 -2.7852e-06 0)
(3.73059e-06 -2.69721e-06 0)
(3.93775e-06 -2.60937e-06 0)
(4.14493e-06 -2.52163e-06 0)
(4.35206e-06 -2.43391e-06 0)
(4.55901e-06 -2.34609e-06 0)
(4.76553e-06 -2.25805e-06 0)
(4.97176e-06 -2.1697e-06 0)
(5.17778e-06 -2.08095e-06 0)
(5.38339e-06 -1.99179e-06 0)
(5.58885e-06 -1.90233e-06 0)
(5.79413e-06 -1.8127e-06 0)
(5.99929e-06 -1.72315e-06 0)
(2.03153e-06 -3.47615e-06 0)
(2.22633e-06 -3.39341e-06 0)
(2.42383e-06 -3.30881e-06 0)
(2.62356e-06 -3.22278e-06 0)
(2.82531e-06 -3.13587e-06 0)
(3.02876e-06 -3.04843e-06 0)
(3.23347e-06 -2.96071e-06 0)
(3.439e-06 -2.8729e-06 0)
(3.64516e-06 -2.78511e-06 0)
(3.85177e-06 -2.69736e-06 0)
(4.05847e-06 -2.60965e-06 0)
(4.26501e-06 -2.52189e-06 0)
(4.47147e-06 -2.43397e-06 0)
(4.67766e-06 -2.34581e-06 0)
(4.8835e-06 -2.25736e-06 0)
(5.08916e-06 -2.16851e-06 0)
(5.29457e-06 -2.07933e-06 0)
(5.49983e-06 -1.98979e-06 0)
(5.70505e-06 -1.90016e-06 0)
(5.91006e-06 -1.81066e-06 0)
(1.48253e-07 -2.95244e-06 0)
(4.46693e-07 -2.90943e-06 0)
(7.50928e-07 -2.82491e-06 0)
(1.06417e-06 -2.70254e-06 0)
(1.38907e-06 -2.5468e-06 0)
(1.72728e-06 -2.36368e-06 0)
(2.07941e-06 -2.15975e-06 0)
(2.44488e-06 -1.94199e-06 0)
(2.82254e-06 -1.71738e-06 0)
(3.20925e-06 -1.49146e-06 0)
(1.44368e-07 -3.00225e-06 0)
(4.34721e-07 -2.96302e-06 0)
(7.29862e-07 -2.88578e-06 0)
(1.03246e-06 -2.77376e-06 0)
(1.34472e-06 -2.63069e-06 0)
(1.66805e-06 -2.46166e-06 0)
(2.00293e-06 -2.27231e-06 0)
(2.34878e-06 -2.06862e-06 0)
(2.70388e-06 -1.85703e-06 0)
(3.06584e-06 -1.64232e-06 0)
(1.40878e-07 -3.05346e-06 0)
(4.23952e-07 -3.01765e-06 0)
(7.10863e-07 -2.94701e-06 0)
(1.00377e-06 -2.84441e-06 0)
(1.30447e-06 -2.71308e-06 0)
(1.61413e-06 -2.55735e-06 0)
(1.93321e-06 -2.3821e-06 0)
(2.2616e-06 -2.19234e-06 0)
(2.59791e-06 -1.99376e-06 0)
(2.94074e-06 -1.78944e-06 0)
(1.37717e-07 -3.10605e-06 0)
(4.14269e-07 -3.07312e-06 0)
(6.93971e-07 -3.00808e-06 0)
(9.7857e-07 -2.9135e-06 0)
(1.26956e-06 -2.79219e-06 0)
(1.56784e-06 -2.64793e-06 0)
(1.87374e-06 -2.48509e-06 0)
(2.18714e-06 -2.30805e-06 0)
(2.50681e-06 -2.12217e-06 0)
(2.83162e-06 -1.92979e-06 0)
(1.34797e-07 -3.15994e-06 0)
(4.05263e-07 -3.12958e-06 0)
(6.78345e-07 -3.06955e-06 0)
(9.55404e-07 -2.98215e-06 0)
(1.23769e-06 -2.86992e-06 0)
(1.52593e-06 -2.73615e-06 0)
(1.82039e-06 -2.58477e-06 0)
(2.12098e-06 -2.41953e-06 0)
(2.42677e-06 -2.2453e-06 0)
(2.73616e-06 -2.06416e-06 0)
(1.32076e-07 -3.21504e-06 0)
(3.96882e-07 -3.1869e-06 0)
(6.63883e-07 -3.13124e-06 0)
(9.34153e-07 -3.0501e-06 0)
(1.20873e-06 -2.94582e-06 0)
(1.48818e-06 -2.82133e-06 0)
(1.77268e-06 -2.68021e-06 0)
(2.06205e-06 -2.52582e-06 0)
(2.35575e-06 -2.36253e-06 0)
(2.65173e-06 -2.19244e-06 0)
(1.29437e-07 -3.27127e-06 0)
(3.88874e-07 -3.24508e-06 0)
(6.50132e-07 -3.19335e-06 0)
(9.1411e-07 -3.1178e-06 0)
(1.18166e-06 -3.02065e-06 0)
(1.45326e-06 -2.90453e-06 0)
(1.72904e-06 -2.77269e-06 0)
(2.00866e-06 -2.62816e-06 0)
(2.29191e-06 -2.47483e-06 0)
(2.5764e-06 -2.31498e-06 0)
(1.26888e-07 -3.32848e-06 0)
(3.81157e-07 -3.30403e-06 0)
(6.36941e-07 -3.25577e-06 0)
(8.95035e-07 -3.18516e-06 0)
(1.15616e-06 -3.09436e-06 0)
(1.42063e-06 -2.98574e-06 0)
(1.68862e-06 -2.86226e-06 0)
(1.95963e-06 -2.72671e-06 0)
(2.23373e-06 -2.58252e-06 0)
(2.50832e-06 -2.43215e-06 0)
(1.24418e-07 -3.38659e-06 0)
(3.73601e-07 -3.36368e-06 0)
(6.24085e-07 -3.31852e-06 0)
(8.76575e-07 -3.25236e-06 0)
(1.13168e-06 -3.16727e-06 0)
(1.38963e-06 -3.0654e-06 0)
(1.65057e-06 -2.94945e-06 0)
(1.91392e-06 -2.82203e-06 0)
(2.17992e-06 -2.68616e-06 0)
(2.44596e-06 -2.54446e-06 0)
(1.21959e-07 -3.44546e-06 0)
(3.661e-07 -3.42391e-06 0)
(6.11408e-07 -3.38152e-06 0)
(8.58508e-07 -3.31938e-06 0)
(1.10788e-06 -3.23942e-06 0)
(1.35975e-06 -3.14362e-06 0)
(1.61423e-06 -3.03448e-06 0)
(1.87067e-06 -2.91443e-06 0)
(2.12942e-06 -2.78617e-06 0)
(2.38798e-06 -2.65236e-06 0)
(1.19452e-07 -3.50495e-06 0)
(3.58571e-07 -3.4846e-06 0)
(5.98755e-07 -3.44473e-06 0)
(8.40574e-07 -3.38624e-06 0)
(1.08442e-06 -3.31091e-06 0)
(1.33052e-06 -3.22061e-06 0)
(1.57896e-06 -3.11762e-06 0)
(1.82909e-06 -3.00427e-06 0)
(2.08128e-06 -2.88293e-06 0)
(2.33321e-06 -2.75627e-06 0)
(1.16898e-07 -3.56488e-06 0)
(3.50967e-07 -3.54565e-06 0)
(5.86006e-07 -3.50805e-06 0)
(8.22557e-07 -3.45287e-06 0)
(1.061e-06 -3.38175e-06 0)
(1.30152e-06 -3.29643e-06 0)
(1.54424e-06 -3.19904e-06 0)
(1.78851e-06 -3.09177e-06 0)
(2.03466e-06 -2.97672e-06 0)
(2.28063e-06 -2.85653e-06 0)
(1.14301e-07 -3.62511e-06 0)
(3.43204e-07 -3.60693e-06 0)
(5.73003e-07 -3.57141e-06 0)
(8.04232e-07 -3.51924e-06 0)
(1.0373e-06 -3.45195e-06 0)
(1.27236e-06 -3.37118e-06 0)
(1.50955e-06 -3.27889e-06 0)
(1.74826e-06 -3.17714e-06 0)
(1.98879e-06 -3.06781e-06 0)
(2.22934e-06 -2.95349e-06 0)
(1.11629e-07 -3.68548e-06 0)
(3.35161e-07 -3.66827e-06 0)
(5.59563e-07 -3.63464e-06 0)
(7.85363e-07 -3.58523e-06 0)
(1.01301e-06 -3.52145e-06 0)
(1.24264e-06 -3.44485e-06 0)
(1.47439e-06 -3.35723e-06 0)
(1.70774e-06 -3.2605e-06 0)
(1.94295e-06 -3.15644e-06 0)
(2.17845e-06 -3.04747e-06 0)
(1.08819e-07 -3.74584e-06 0)
(3.26706e-07 -3.72953e-06 0)
(5.45491e-07 -3.69763e-06 0)
(7.65692e-07 -3.65077e-06 0)
(9.87781e-07 -3.59024e-06 0)
(1.2119e-06 -3.51749e-06 0)
(1.43823e-06 -3.43414e-06 0)
(1.66633e-06 -3.34203e-06 0)
(1.8964e-06 -3.24281e-06 0)
(2.12711e-06 -3.1387e-06 0)
(1.05825e-07 -3.80589e-06 0)
(3.17737e-07 -3.79042e-06 0)
(5.30613e-07 -3.76013e-06 0)
(7.44952e-07 -3.71566e-06 0)
(9.61254e-07 -3.65813e-06 0)
(1.17972e-06 -3.58892e-06 0)
(1.40054e-06 -3.50954e-06 0)
(1.6234e-06 -3.42173e-06 0)
(1.84841e-06 -3.327e-06 0)
(2.07448e-06 -3.22735e-06 0)
(1.02616e-07 -3.86554e-06 0)
(3.08147e-07 -3.85088e-06 0)
(5.14714e-07 -3.8221e-06 0)
(7.2283e-07 -3.77984e-06 0)
(9.3303e-07 -3.72515e-06 0)
(1.14558e-06 -3.65928e-06 0)
(1.36073e-06 -3.58364e-06 0)
(1.57822e-06 -3.49986e-06 0)
(1.79815e-06 -3.40926e-06 0)
(2.01959e-06 -3.31379e-06 0)
(9.91603e-08 -3.92416e-06 0)
(2.97815e-07 -3.91027e-06 0)
(4.97575e-07 -3.88293e-06 0)
(6.99009e-07 -3.8428e-06 0)
(9.02701e-07 -3.79079e-06 0)
(1.109e-06 -3.72809e-06 0)
(1.31817e-06 -3.65601e-06 0)
(1.53006e-06 -3.57606e-06 0)
(1.74471e-06 -3.48939e-06 0)
(1.96148e-06 -3.39785e-06 0)
(9.53919e-08 -3.98205e-06 0)
(2.8653e-07 -3.96891e-06 0)
(4.7885e-07 -3.94297e-06 0)
(6.73007e-07 -3.90487e-06 0)
(8.69641e-07 -3.85547e-06 0)
(1.06919e-06 -3.79585e-06 0)
(1.27196e-06 -3.72722e-06 0)
(1.47788e-06 -3.65089e-06 0)
(1.68699e-06 -3.56805e-06 0)
(1.89892e-06 -3.48025e-06 0)
(9.12733e-08 -4.03756e-06 0)
(2.74195e-07 -4.02512e-06 0)
(4.58377e-07 -4.00058e-06 0)
(6.44599e-07 -3.96451e-06 0)
(8.33573e-07 -3.91769e-06 0)
(1.02579e-06 -3.86114e-06 0)
(1.2216e-06 -3.79592e-06 0)
(1.42107e-06 -3.72323e-06 0)
(1.62432e-06 -3.64422e-06 0)
(1.83118e-06 -3.5602e-06 0)
)


// ************************************************************************* //
