/*--------------------------------*- C++ -*----------------------------------*\
| =========                 |                                                 |
| \\      /  F ield         | foam-extend: Open Source CFD                    |
|  \\    /   O peration     | Version:     4.1                                |
|   \\  /    A nd           | Web:         http://www.foam-extend.org         |
|    \\/     M anipulation  |                                                 |
\*---------------------------------------------------------------------------*/
FoamFile
{
    version     2.0;
    format      ascii;
    class       vectorField;
    location    "7";
    object      solidsCellD_iteration4;
}
// * * * * * * * * * * * * * * * * * * * * * * * * * * * * * * * * * * * * * //


1000
(
(3.54988e-06 -1.46799e-06 0)
(3.35498e-06 -1.36849e-06 0)
(3.2312e-06 -1.30636e-06 0)
(3.16118e-06 -1.27852e-06 0)
(3.12818e-06 -1.27031e-06 0)
(3.12226e-06 -1.27728e-06 0)
(3.13624e-06 -1.29419e-06 0)
(3.16519e-06 -1.3186e-06 0)
(3.20518e-06 -1.3481e-06 0)
(3.25279e-06 -1.38184e-06 0)
(3.21074e-06 -1.60342e-06 0)
(3.00296e-06 -1.5351e-06 0)
(2.8709e-06 -1.49279e-06 0)
(2.79475e-06 -1.47847e-06 0)
(2.75695e-06 -1.47927e-06 0)
(2.74647e-06 -1.49269e-06 0)
(2.75595e-06 -1.51427e-06 0)
(2.78011e-06 -1.5421e-06 0)
(2.81495e-06 -1.5744e-06 0)
(2.85701e-06 -1.60953e-06 0)
(2.85791e-06 -1.7318e-06 0)
(2.64554e-06 -1.69828e-06 0)
(2.51064e-06 -1.678e-06 0)
(2.43164e-06 -1.67853e-06 0)
(2.39101e-06 -1.68907e-06 0)
(2.37731e-06 -1.70923e-06 0)
(2.38312e-06 -1.73549e-06 0)
(2.40319e-06 -1.76655e-06 0)
(2.43347e-06 -1.80132e-06 0)
(2.47079e-06 -1.83794e-06 0)
(2.49431e-06 -1.85083e-06 0)
(2.2862e-06 -1.85379e-06 0)
(2.15407e-06 -1.85657e-06 0)
(2.07584e-06 -1.87254e-06 0)
(2.03455e-06 -1.89314e-06 0)
(2.01903e-06 -1.92015e-06 0)
(2.02206e-06 -1.95103e-06 0)
(2.03851e-06 -1.9853e-06 0)
(2.06465e-06 -2.02248e-06 0)
(2.09727e-06 -2.06074e-06 0)
(2.12229e-06 -1.95813e-06 0)
(1.92739e-06 -1.99725e-06 0)
(1.80362e-06 -2.02292e-06 0)
(1.72982e-06 -2.0541e-06 0)
(1.69024e-06 -2.08454e-06 0)
(1.67427e-06 -2.11821e-06 0)
(1.67531e-06 -2.15357e-06 0)
(1.6885e-06 -2.19097e-06 0)
(1.71062e-06 -2.23041e-06 0)
(1.73851e-06 -2.27044e-06 0)
(1.74386e-06 -2.05152e-06 0)
(1.57067e-06 -2.12444e-06 0)
(1.46074e-06 -2.17152e-06 0)
(1.39487e-06 -2.2169e-06 0)
(1.35914e-06 -2.25653e-06 0)
(1.34399e-06 -2.29642e-06 0)
(1.34377e-06 -2.33589e-06 0)
(1.3541e-06 -2.37621e-06 0)
(1.37227e-06 -2.41772e-06 0)
(1.39529e-06 -2.45952e-06 0)
(1.36068e-06 -2.12894e-06 0)
(1.21704e-06 -2.23147e-06 0)
(1.12587e-06 -2.29731e-06 0)
(1.07101e-06 -2.35511e-06 0)
(1.04099e-06 -2.40275e-06 0)
(1.02787e-06 -2.44807e-06 0)
(1.02702e-06 -2.49113e-06 0)
(1.03478e-06 -2.53403e-06 0)
(1.04896e-06 -2.57738e-06 0)
(1.06698e-06 -2.62084e-06 0)
(9.74149e-07 -2.18863e-06 0)
(8.66574e-07 -2.31493e-06 0)
(7.98295e-07 -2.39585e-06 0)
(7.57139e-07 -2.46361e-06 0)
(7.34434e-07 -2.51768e-06 0)
(7.24307e-07 -2.56734e-06 0)
(7.23321e-07 -2.6133e-06 0)
(7.2871e-07 -2.65829e-06 0)
(7.38877e-07 -2.70309e-06 0)
(7.51785e-07 -2.74792e-06 0)
(5.85447e-07 -2.2292e-06 0)
(5.18871e-07 -2.37212e-06 0)
(4.76583e-07 -2.46357e-06 0)
(4.50993e-07 -2.53832e-06 0)
(4.36812e-07 -2.5969e-06 0)
(4.30455e-07 -2.64961e-06 0)
(4.29741e-07 -2.6976e-06 0)
(4.32887e-07 -2.74408e-06 0)
(4.38954e-07 -2.78994e-06 0)
(4.46703e-07 -2.83581e-06 0)
(1.95542e-07 -2.24964e-06 0)
(1.72932e-07 -2.40111e-06 0)
(1.58571e-07 -2.49804e-06 0)
(1.49907e-07 -2.57639e-06 0)
(1.45088e-07 -2.63728e-06 0)
(1.42866e-07 -2.69154e-06 0)
(1.42566e-07 -2.74058e-06 0)
(1.43602e-07 -2.7878e-06 0)
(1.45617e-07 -2.8342e-06 0)
(1.48182e-07 -2.88056e-06 0)
(5.53027e-06 -6.70284e-08 0)
(5.5798e-06 -4.8448e-08 0)
(5.61084e-06 -3.67051e-08 0)
(5.6448e-06 -2.98334e-08 0)
(5.6821e-06 -2.60778e-08 0)
(5.72773e-06 -2.43997e-08 0)
(5.78152e-06 -2.40873e-08 0)
(5.84396e-06 -2.4724e-08 0)
(5.91489e-06 -2.60311e-08 0)
(5.99339e-06 -2.75448e-08 0)
(5.48956e-06 -2.01054e-07 0)
(5.53093e-06 -1.46398e-07 0)
(5.55689e-06 -1.11974e-07 0)
(5.58743e-06 -9.18991e-08 0)
(5.62248e-06 -8.09088e-08 0)
(5.66648e-06 -7.60683e-08 0)
(5.71912e-06 -7.53311e-08 0)
(5.78065e-06 -7.73019e-08 0)
(5.8508e-06 -8.11845e-08 0)
(5.92846e-06 -8.57577e-08 0)
(5.40813e-06 -3.36251e-07 0)
(5.43398e-06 -2.48495e-07 0)
(5.45017e-06 -1.93263e-07 0)
(5.47424e-06 -1.61189e-07 0)
(5.505e-06 -1.43754e-07 0)
(5.54599e-06 -1.36179e-07 0)
(5.59642e-06 -1.35191e-07 0)
(5.6561e-06 -1.38589e-07 0)
(5.72473e-06 -1.45083e-07 0)
(5.80076e-06 -1.52754e-07 0)
(5.28749e-06 -4.73109e-07 0)
(5.29134e-06 -3.57071e-07 0)
(5.29353e-06 -2.84068e-07 0)
(5.30841e-06 -2.41871e-07 0)
(5.33306e-06 -2.19103e-07 0)
(5.36965e-06 -2.09469e-07 0)
(5.41689e-06 -2.08611e-07 0)
(5.47404e-06 -2.13638e-07 0)
(5.54052e-06 -2.22767e-07 0)
(5.61432e-06 -2.33533e-07 0)
(5.12944e-06 -6.12047e-07 0)
(5.10612e-06 -4.74112e-07 0)
(5.09103e-06 -3.87338e-07 0)
(5.09443e-06 -3.37534e-07 0)
(5.11151e-06 -3.10943e-07 0)
(5.14273e-06 -3.00166e-07 0)
(5.18601e-06 -2.99937e-07 0)
(5.23998e-06 -3.06804e-07 0)
(5.30377e-06 -3.18562e-07 0)
(5.37483e-06 -3.3242e-07 0)
(4.93642e-06 -7.53099e-07 0)
(4.88228e-06 -6.00843e-07 0)
(4.84764e-06 -5.0505e-07 0)
(4.83805e-06 -4.5065e-07 0)
(4.84654e-06 -4.22068e-07 0)
(4.87166e-06 -4.11224e-07 0)
(4.91043e-06 -4.12162e-07 0)
(4.96075e-06 -4.2111e-07 0)
(5.02144e-06 -4.35506e-07 0)
(5.08951e-06 -4.52448e-07 0)
(4.71114e-06 -8.95998e-07 0)
(4.62447e-06 -7.37772e-07 0)
(4.56923e-06 -6.38238e-07 0)
(4.5459e-06 -5.82576e-07 0)
(4.54524e-06 -5.54031e-07 0)
(4.56383e-06 -5.44309e-07 0)
(4.59774e-06 -5.47038e-07 0)
(4.64409e-06 -5.58363e-07 0)
(4.70137e-06 -5.75467e-07 0)
(4.76636e-06 -5.95475e-07 0)
(4.45662e-06 -1.04013e-06 0)
(4.33766e-06 -8.846e-07 0)
(4.26197e-06 -7.86802e-07 0)
(4.22494e-06 -7.33304e-07 0)
(4.21505e-06 -7.069e-07 0)
(4.22702e-06 -6.99558e-07 0)
(4.25594e-06 -7.04753e-07 0)
(4.29825e-06 -7.18785e-07 0)
(4.35195e-06 -7.38648e-07 0)
(4.41382e-06 -7.61728e-07 0)
(4.17607e-06 -1.18447e-06 0)
(4.02706e-06 -1.04015e-06 0)
(3.93243e-06 -9.49462e-07 0)
(3.88259e-06 -9.01522e-07 0)
(3.86398e-06 -8.79345e-07 0)
(3.86951e-06 -8.75648e-07 0)
(3.89341e-06 -8.84058e-07 0)
(3.9316e-06 -9.01096e-07 0)
(3.98141e-06 -9.23919e-07 0)
(4.04011e-06 -9.49949e-07 0)
(3.87277e-06 -1.32762e-06 0)
(3.69784e-06 -1.20235e-06 0)
(3.58682e-06 -1.1238e-06 0)
(3.52577e-06 -1.08458e-06 0)
(3.49934e-06 -1.06857e-06 0)
(3.49881e-06 -1.06972e-06 0)
(3.5178e-06 -1.08206e-06 0)
(3.55182e-06 -1.10266e-06 0)
(3.59771e-06 -1.1287e-06 0)
(3.65282e-06 -1.15878e-06 0)
(6.07949e-06 -2.90488e-08 0)
(6.1733e-06 -2.94383e-08 0)
(6.27303e-06 -2.9869e-08 0)
(6.37831e-06 -3.0177e-08 0)
(6.48846e-06 -3.03365e-08 0)
(6.60309e-06 -3.03437e-08 0)
(6.72177e-06 -3.01861e-08 0)
(6.84403e-06 -2.98692e-08 0)
(6.9694e-06 -2.93565e-08 0)
(7.09752e-06 -2.86242e-08 0)
(7.22806e-06 -2.76576e-08 0)
(7.36062e-06 -2.64516e-08 0)
(7.49484e-06 -2.49957e-08 0)
(7.63033e-06 -2.32671e-08 0)
(7.76677e-06 -2.12265e-08 0)
(7.90361e-06 -1.88319e-08 0)
(8.04063e-06 -1.6036e-08 0)
(8.17692e-06 -1.27878e-08 0)
(8.31266e-06 -9.00856e-09 0)
(8.44574e-06 -4.67279e-09 0)
(6.01743e-06 -9.00214e-08 0)
(6.11641e-06 -9.08059e-08 0)
(6.22077e-06 -9.17309e-08 0)
(6.33007e-06 -9.23583e-08 0)
(6.44386e-06 -9.26001e-08 0)
(6.56173e-06 -9.24481e-08 0)
(6.68328e-06 -9.18123e-08 0)
(6.80812e-06 -9.06818e-08 0)
(6.93587e-06 -8.89762e-08 0)
(7.06617e-06 -8.66676e-08 0)
(7.1987e-06 -8.3715e-08 0)
(7.3331e-06 -8.00741e-08 0)
(7.46907e-06 -7.56815e-08 0)
(7.60622e-06 -7.04579e-08 0)
(7.74421e-06 -6.42979e-08 0)
(7.88252e-06 -5.70925e-08 0)
(8.02094e-06 -4.87001e-08 0)
(8.15858e-06 -3.89681e-08 0)
(8.29569e-06 -2.76562e-08 0)
(8.43018e-06 -1.46728e-08 0)
(5.89528e-06 -1.58882e-07 0)
(6.0044e-06 -1.5889e-07 0)
(6.1179e-06 -1.59266e-07 0)
(6.23511e-06 -1.59434e-07 0)
(6.35595e-06 -1.59108e-07 0)
(6.48008e-06 -1.58275e-07 0)
(6.60735e-06 -1.56735e-07 0)
(6.73737e-06 -1.54457e-07 0)
(6.86982e-06 -1.513e-07 0)
(7.0044e-06 -1.47215e-07 0)
(7.14091e-06 -1.42116e-07 0)
(7.27903e-06 -1.35908e-07 0)
(7.41848e-06 -1.28472e-07 0)
(7.55888e-06 -1.19672e-07 0)
(7.69994e-06 -1.09338e-07 0)
(7.84121e-06 -9.72881e-08 0)
(7.98245e-06 -8.32785e-08 0)
(8.12283e-06 -6.70645e-08 0)
(8.26261e-06 -4.8248e-08 0)
(8.39974e-06 -2.66613e-08 0)
(5.71684e-06 -2.40107e-07 0)
(5.84049e-06 -2.37528e-07 0)
(5.96714e-06 -2.35715e-07 0)
(6.09582e-06 -2.34193e-07 0)
(6.22702e-06 -2.32272e-07 0)
(6.36037e-06 -2.29944e-07 0)
(6.49593e-06 -2.26833e-07 0)
(6.63343e-06 -2.22866e-07 0)
(6.77274e-06 -2.17829e-07 0)
(6.91366e-06 -2.11635e-07 0)
(7.05603e-06 -2.0413e-07 0)
(7.19959e-06 -1.95151e-07 0)
(7.3441e-06 -1.84514e-07 0)
(7.48925e-06 -1.72027e-07 0)
(7.63481e-06 -1.57459e-07 0)
(7.78039e-06 -1.40533e-07 0)
(7.92579e-06 -1.20902e-07 0)
(8.07023e-06 -9.82233e-08 0)
(8.21399e-06 -7.19348e-08 0)
(8.35501e-06 -4.18019e-08 0)
(5.48724e-06 -3.37678e-07 0)
(5.62916e-06 -3.30213e-07 0)
(5.77261e-06 -3.24102e-07 0)
(5.91592e-06 -3.19266e-07 0)
(6.06035e-06 -3.14382e-07 0)
(6.20548e-06 -3.09456e-07 0)
(6.35177e-06 -3.03894e-07 0)
(6.49897e-06 -2.97539e-07 0)
(6.64717e-06 -2.90071e-07 0)
(6.79627e-06 -2.81318e-07 0)
(6.94617e-06 -2.71036e-07 0)
(7.09671e-06 -2.58991e-07 0)
(7.24774e-06 -2.44935e-07 0)
(7.39905e-06 -2.28611e-07 0)
(7.55048e-06 -2.09706e-07 0)
(7.70161e-06 -1.8785e-07 0)
(7.85239e-06 -1.62593e-07 0)
(8.00198e-06 -1.33487e-07 0)
(8.15085e-06 -9.97979e-08 0)
(8.29693e-06 -6.12095e-08 0)
(5.21319e-06 -4.54419e-07 0)
(5.37619e-06 -4.39414e-07 0)
(5.53924e-06 -4.26525e-07 0)
(5.69972e-06 -4.16403e-07 0)
(5.85987e-06 -4.06938e-07 0)
(6.01908e-06 -3.98108e-07 0)
(6.17823e-06 -3.89049e-07 0)
(6.33709e-06 -3.79446e-07 0)
(6.49594e-06 -3.68853e-07 0)
(6.65481e-06 -3.56987e-07 0)
(6.81377e-06 -3.43502e-07 0)
(6.97274e-06 -3.28073e-07 0)
(7.13165e-06 -3.10373e-07 0)
(7.29036e-06 -2.90065e-07 0)
(7.4488e-06 -2.66735e-07 0)
(7.60659e-06 -2.39917e-07 0)
(7.76378e-06 -2.09061e-07 0)
(7.91959e-06 -1.73601e-07 0)
(8.07457e-06 -1.32629e-07 0)
(8.22675e-06 -8.57136e-08 0)
(4.9021e-06 -5.92184e-07 0)
(5.0881e-06 -5.66887e-07 0)
(5.27293e-06 -5.44726e-07 0)
(5.45264e-06 -5.2723e-07 0)
(5.63045e-06 -5.115e-07 0)
(5.8056e-06 -4.97337e-07 0)
(5.9792e-06 -4.83609e-07 0)
(6.15127e-06 -4.69793e-07 0)
(6.32227e-06 -4.553e-07 0)
(6.49233e-06 -4.39684e-07 0)
(6.66165e-06 -4.2249e-07 0)
(6.83025e-06 -4.03287e-07 0)
(6.99816e-06 -3.81648e-07 0)
(7.16533e-06 -3.57143e-07 0)
(7.33175e-06 -3.29253e-07 0)
(7.49716e-06 -2.97419e-07 0)
(7.66169e-06 -2.60978e-07 0)
(7.82466e-06 -2.19233e-07 0)
(7.98664e-06 -1.7109e-07 0)
(8.1458e-06 -1.16003e-07 0)
(4.5617e-06 -7.51299e-07 0)
(4.77163e-06 -7.12748e-07 0)
(4.97941e-06 -6.78865e-07 0)
(5.17985e-06 -6.51674e-07 0)
(5.37668e-06 -6.27861e-07 0)
(5.56926e-06 -6.06775e-07 0)
(5.75876e-06 -5.87113e-07 0)
(5.94542e-06 -5.68068e-07 0)
(6.12982e-06 -5.48878e-07 0)
(6.31227e-06 -5.28896e-07 0)
(6.49304e-06 -5.0753e-07 0)
(6.67225e-06 -4.84218e-07 0)
(6.85005e-06 -4.58421e-07 0)
(7.02654e-06 -4.29598e-07 0)
(7.20175e-06 -3.97113e-07 0)
(7.37559e-06 -3.60305e-07 0)
(7.54823e-06 -3.18372e-07 0)
(7.71906e-06 -2.70483e-07 0)
(7.88874e-06 -2.15349e-07 0)
(8.05565e-06 -1.52315e-07 0)
(4.20004e-06 -9.31602e-07 0)
(4.43435e-06 -8.77169e-07 0)
(4.66537e-06 -8.29927e-07 0)
(4.88741e-06 -7.91028e-07 0)
(5.10403e-06 -7.57584e-07 0)
(5.31491e-06 -7.28138e-07 0)
(5.52118e-06 -7.01307e-07 0)
(5.72333e-06 -6.7596e-07 0)
(5.922e-06 -6.51144e-07 0)
(6.11763e-06 -6.26019e-07 0)
(6.31062e-06 -5.99842e-07 0)
(6.5012e-06 -5.71915e-07 0)
(6.68964e-06 -5.4158e-07 0)
(6.87615e-06 -5.08166e-07 0)
(7.06082e-06 -4.70914e-07 0)
(7.2437e-06 -4.29048e-07 0)
(7.42504e-06 -3.81621e-07 0)
(7.60433e-06 -3.2766e-07 0)
(7.78229e-06 -2.657e-07 0)
(7.95755e-06 -1.95001e-07 0)
(3.82386e-06 -1.1304e-06 0)
(4.08326e-06 -1.05637e-06 0)
(4.33691e-06 -9.94113e-07 0)
(4.58125e-06 -9.41506e-07 0)
(4.81821e-06 -8.96638e-07 0)
(5.04815e-06 -8.57393e-07 0)
(5.27193e-06 -8.22238e-07 0)
(5.49024e-06 -7.89729e-07 0)
(5.7038e-06 -7.58654e-07 0)
(5.9132e-06 -7.27953e-07 0)
(6.11893e-06 -6.9669e-07 0)
(6.32136e-06 -6.63999e-07 0)
(6.52086e-06 -6.29069e-07 0)
(6.71776e-06 -5.91092e-07 0)
(6.91225e-06 -5.49176e-07 0)
(7.1045e-06 -5.02426e-07 0)
(7.29477e-06 -4.49747e-07 0)
(7.4828e-06 -3.90032e-07 0)
(7.66932e-06 -3.21646e-07 0)
(7.85331e-06 -2.43732e-07 0)
(3.54217e-06 -1.32282e-06 0)
(3.82006e-06 -1.23175e-06 0)
(4.08796e-06 -1.15792e-06 0)
(4.34628e-06 -1.09426e-06 0)
(4.59607e-06 -1.03929e-06 0)
(4.83811e-06 -9.90853e-07 0)
(5.07326e-06 -9.47318e-07 0)
(5.30221e-06 -9.07187e-07 0)
(5.5257e-06 -8.69154e-07 0)
(5.74432e-06 -8.3207e-07 0)
(5.95859e-06 -7.94897e-07 0)
(6.16891e-06 -7.5667e-07 0)
(6.37575e-06 -7.16484e-07 0)
(6.57946e-06 -6.73437e-07 0)
(6.78027e-06 -6.26557e-07 0)
(6.9785e-06 -5.74871e-07 0)
(7.1744e-06 -5.1721e-07 0)
(7.36794e-06 -4.52423e-07 0)
(7.55983e-06 -3.78837e-07 0)
(7.74942e-06 -2.95554e-07 0)
(3.38205e-06 -1.47968e-06 0)
(3.66157e-06 -1.38476e-06 0)
(3.93192e-06 -1.30416e-06 0)
(4.194e-06 -1.23346e-06 0)
(4.44803e-06 -1.17126e-06 0)
(4.69457e-06 -1.11572e-06 0)
(4.93423e-06 -1.06528e-06 0)
(5.16761e-06 -1.01852e-06 0)
(5.39532e-06 -9.74158e-07 0)
(5.61789e-06 -9.31068e-07 0)
(5.83579e-06 -8.88197e-07 0)
(6.04942e-06 -8.44566e-07 0)
(6.25927e-06 -7.99248e-07 0)
(6.46568e-06 -7.51315e-07 0)
(6.66891e-06 -6.99787e-07 0)
(6.86936e-06 -6.43682e-07 0)
(7.06726e-06 -5.81842e-07 0)
(7.26276e-06 -5.13159e-07 0)
(7.45654e-06 -4.36041e-07 0)
(7.64825e-06 -3.49605e-07 0)
(3.24607e-06 -1.6298e-06 0)
(3.52259e-06 -1.53288e-06 0)
(3.7924e-06 -1.44804e-06 0)
(4.05509e-06 -1.37202e-06 0)
(4.31075e-06 -1.30386e-06 0)
(4.5595e-06 -1.24208e-06 0)
(4.80176e-06 -1.18532e-06 0)
(5.03792e-06 -1.13233e-06 0)
(5.26845e-06 -1.08191e-06 0)
(5.49379e-06 -1.03298e-06 0)
(5.71435e-06 -9.84508e-07 0)
(5.93048e-06 -9.35529e-07 0)
(6.14268e-06 -8.85121e-07 0)
(6.35126e-06 -8.32357e-07 0)
(6.55649e-06 -7.76266e-07 0)
(6.75881e-06 -7.15884e-07 0)
(6.95846e-06 -6.50096e-07 0)
(7.15574e-06 -5.77853e-07 0)
(7.35125e-06 -4.97656e-07 0)
(7.54496e-06 -4.08642e-07 0)
(3.1265e-06 -1.77406e-06 0)
(3.39887e-06 -1.67625e-06 0)
(3.66627e-06 -1.58839e-06 0)
(3.92766e-06 -1.50814e-06 0)
(4.1831e-06 -1.43494e-06 0)
(4.43235e-06 -1.36769e-06 0)
(4.67567e-06 -1.30525e-06 0)
(4.91325e-06 -1.24653e-06 0)
(5.14542e-06 -1.19044e-06 0)
(5.37252e-06 -1.13599e-06 0)
(5.59487e-06 -1.08218e-06 0)
(5.81279e-06 -1.02809e-06 0)
(6.02674e-06 -9.72812e-07 0)
(6.23701e-06 -9.15446e-07 0)
(6.44385e-06 -8.5505e-07 0)
(6.64774e-06 -7.90697e-07 0)
(6.84892e-06 -7.21332e-07 0)
(7.04778e-06 -6.45971e-07 0)
(7.24487e-06 -5.63206e-07 0)
(7.44041e-06 -4.7225e-07 0)
(3.0212e-06 -1.91225e-06 0)
(3.28845e-06 -1.81428e-06 0)
(3.55215e-06 -1.72449e-06 0)
(3.81088e-06 -1.64111e-06 0)
(4.06465e-06 -1.56387e-06 0)
(4.31304e-06 -1.49199e-06 0)
(4.55615e-06 -1.42458e-06 0)
(4.79396e-06 -1.36072e-06 0)
(5.02672e-06 -1.29945e-06 0)
(5.25467e-06 -1.23986e-06 0)
(5.47803e-06 -1.18103e-06 0)
(5.69708e-06 -1.12211e-06 0)
(5.91223e-06 -1.06223e-06 0)
(6.12372e-06 -1.00051e-06 0)
(6.33181e-06 -9.36079e-07 0)
(6.53699e-06 -8.68045e-07 0)
(6.73946e-06 -7.95431e-07 0)
(6.9397e-06 -7.17317e-07 0)
(7.13822e-06 -6.32412e-07 0)
(7.33543e-06 -5.40089e-07 0)
(2.92751e-06 -2.04448e-06 0)
(3.18918e-06 -1.94696e-06 0)
(3.44842e-06 -1.85598e-06 0)
(3.70356e-06 -1.77027e-06 0)
(3.95466e-06 -1.68982e-06 0)
(4.20115e-06 -1.61407e-06 0)
(4.44301e-06 -1.54237e-06 0)
(4.6801e-06 -1.47396e-06 0)
(4.91257e-06 -1.40802e-06 0)
(5.14058e-06 -1.34374e-06 0)
(5.36427e-06 -1.28031e-06 0)
(5.58385e-06 -1.21691e-06 0)
(5.7997e-06 -1.15277e-06 0)
(6.012e-06 -1.08704e-06 0)
(6.22101e-06 -1.0189e-06 0)
(6.42717e-06 -9.47524e-07 0)
(6.63071e-06 -8.72013e-07 0)
(6.83213e-06 -7.91522e-07 0)
(7.03192e-06 -7.04922e-07 0)
(7.23062e-06 -6.11772e-07 0)
(2.84348e-06 -2.17103e-06 0)
(3.09929e-06 -2.07432e-06 0)
(3.3536e-06 -1.98274e-06 0)
(3.60452e-06 -1.8954e-06 0)
(3.85224e-06 -1.81245e-06 0)
(4.09607e-06 -1.73355e-06 0)
(4.33592e-06 -1.65821e-06 0)
(4.57153e-06 -1.58584e-06 0)
(4.80301e-06 -1.51577e-06 0)
(5.03043e-06 -1.4473e-06 0)
(5.25387e-06 -1.37969e-06 0)
(5.47347e-06 -1.31222e-06 0)
(5.68958e-06 -1.24418e-06 0)
(5.90229e-06 -1.17479e-06 0)
(6.1119e-06 -1.10327e-06 0)
(6.31878e-06 -1.02888e-06 0)
(6.52317e-06 -9.50807e-07 0)
(6.72558e-06 -8.68296e-07 0)
(6.92648e-06 -7.80426e-07 0)
(7.12648e-06 -6.86846e-07 0)
(2.76736e-06 -2.29215e-06 0)
(3.01726e-06 -2.19652e-06 0)
(3.26634e-06 -2.10479e-06 0)
(3.5127e-06 -2.01637e-06 0)
(3.75655e-06 -1.93152e-06 0)
(3.99718e-06 -1.85006e-06 0)
(4.23442e-06 -1.77169e-06 0)
(4.46799e-06 -1.69593e-06 0)
(4.69792e-06 -1.62226e-06 0)
(4.92422e-06 -1.55008e-06 0)
(5.14692e-06 -1.47875e-06 0)
(5.36612e-06 -1.40763e-06 0)
(5.58209e-06 -1.33608e-06 0)
(5.79489e-06 -1.26337e-06 0)
(6.00481e-06 -1.18883e-06 0)
(6.21216e-06 -1.11176e-06 0)
(6.41718e-06 -1.03145e-06 0)
(6.62042e-06 -9.47284e-07 0)
(6.82226e-06 -8.58512e-07 0)
(7.02336e-06 -7.64766e-07 0)
(2.6976e-06 -2.40822e-06 0)
(2.94165e-06 -2.31384e-06 0)
(3.18539e-06 -2.22228e-06 0)
(3.42699e-06 -2.13319e-06 0)
(3.66668e-06 -2.04694e-06 0)
(3.90373e-06 -1.96345e-06 0)
(4.13797e-06 -1.88257e-06 0)
(4.36908e-06 -1.80395e-06 0)
(4.59704e-06 -1.72717e-06 0)
(4.82183e-06 -1.65176e-06 0)
(5.04341e-06 -1.57716e-06 0)
(5.26183e-06 -1.50282e-06 0)
(5.47734e-06 -1.42815e-06 0)
(5.68994e-06 -1.3525e-06 0)
(5.8999e-06 -1.27528e-06 0)
(6.10752e-06 -1.19586e-06 0)
(6.31301e-06 -1.11367e-06 0)
(6.5169e-06 -1.02818e-06 0)
(6.7195e-06 -9.38762e-07 0)
(6.92152e-06 -8.45084e-07 0)
(2.6328e-06 -2.51962e-06 0)
(2.87114e-06 -2.42658e-06 0)
(3.10956e-06 -2.3354e-06 0)
(3.34634e-06 -2.24596e-06 0)
(3.58169e-06 -2.15868e-06 0)
(3.81496e-06 -2.0736e-06 0)
(4.04595e-06 -1.99067e-06 0)
(4.27432e-06 -1.90966e-06 0)
(4.50002e-06 -1.83026e-06 0)
(4.723e-06 -1.7521e-06 0)
(4.94315e-06 -1.67468e-06 0)
(5.16052e-06 -1.59754e-06 0)
(5.3753e-06 -1.52014e-06 0)
(5.58747e-06 -1.44193e-06 0)
(5.79727e-06 -1.36238e-06 0)
(6.00498e-06 -1.28097e-06 0)
(6.21078e-06 -1.19721e-06 0)
(6.41516e-06 -1.11067e-06 0)
(6.61838e-06 -1.0208e-06 0)
(6.82115e-06 -9.27445e-07 0)
(2.57177e-06 -2.62676e-06 0)
(2.80457e-06 -2.53506e-06 0)
(3.03774e-06 -2.44439e-06 0)
(3.26971e-06 -2.35481e-06 0)
(3.5007e-06 -2.26682e-06 0)
(3.73009e-06 -2.18052e-06 0)
(3.9577e-06 -2.09597e-06 0)
(4.18317e-06 -2.01302e-06 0)
(4.40642e-06 -1.93146e-06 0)
(4.62738e-06 -1.85097e-06 0)
(4.8459e-06 -1.77116e-06 0)
(5.06202e-06 -1.69162e-06 0)
(5.27587e-06 -1.61188e-06 0)
(5.48742e-06 -1.53146e-06 0)
(5.69691e-06 -1.44993e-06 0)
(5.90458e-06 -1.36684e-06 0)
(6.11054e-06 -1.28181e-06 0)
(6.31526e-06 -1.19443e-06 0)
(6.51896e-06 -1.10429e-06 0)
(6.72233e-06 -1.01143e-06 0)
(2.5134e-06 -2.73001e-06 0)
(2.74085e-06 -2.63958e-06 0)
(2.96891e-06 -2.54949e-06 0)
(3.19617e-06 -2.45996e-06 0)
(3.42284e-06 -2.37151e-06 0)
(3.64836e-06 -2.28433e-06 0)
(3.87255e-06 -2.19852e-06 0)
(4.09503e-06 -2.11402e-06 0)
(4.31574e-06 -2.0307e-06 0)
(4.53456e-06 -1.94829e-06 0)
(4.75132e-06 -1.86646e-06 0)
(4.96605e-06 -1.78489e-06 0)
(5.17885e-06 -1.70317e-06 0)
(5.38969e-06 -1.6209e-06 0)
(5.59875e-06 -1.53772e-06 0)
(5.80625e-06 -1.45326e-06 0)
(6.01225e-06 -1.36717e-06 0)
(6.2172e-06 -1.27914e-06 0)
(6.42126e-06 -1.18895e-06 0)
(6.6251e-06 -1.09661e-06 0)
(2.45668e-06 -2.82968e-06 0)
(2.67901e-06 -2.74043e-06 0)
(2.90213e-06 -2.65098e-06 0)
(3.12483e-06 -2.56163e-06 0)
(3.34729e-06 -2.47295e-06 0)
(3.56902e-06 -2.38515e-06 0)
(3.78982e-06 -2.2984e-06 0)
(4.00933e-06 -2.21269e-06 0)
(4.22746e-06 -2.12795e-06 0)
(4.44409e-06 -2.04398e-06 0)
(4.65905e-06 -1.96052e-06 0)
(4.87233e-06 -1.87728e-06 0)
(5.08402e-06 -1.79395e-06 0)
(5.29407e-06 -1.71017e-06 0)
(5.50263e-06 -1.62565e-06 0)
(5.70987e-06 -1.54006e-06 0)
(5.91582e-06 -1.45313e-06 0)
(6.1209e-06 -1.36463e-06 0)
(6.32522e-06 -1.27453e-06 0)
(6.52939e-06 -1.18273e-06 0)
(2.40069e-06 -2.92603e-06 0)
(2.61811e-06 -2.83792e-06 0)
(2.83652e-06 -2.74912e-06 0)
(3.05485e-06 -2.66006e-06 0)
(3.27327e-06 -2.57131e-06 0)
(3.49133e-06 -2.48312e-06 0)
(3.70884e-06 -2.39571e-06 0)
(3.92546e-06 -2.30911e-06 0)
(4.14106e-06 -2.2233e-06 0)
(4.35553e-06 -2.13811e-06 0)
(4.56869e-06 -2.05335e-06 0)
(4.78053e-06 -1.96879e-06 0)
(4.99112e-06 -1.88416e-06 0)
(5.20036e-06 -1.79917e-06 0)
(5.40836e-06 -1.71357e-06 0)
(5.61527e-06 -1.62708e-06 0)
(5.8211e-06 -1.53949e-06 0)
(6.02625e-06 -1.45073e-06 0)
(6.23076e-06 -1.36073e-06 0)
(6.43515e-06 -1.26951e-06 0)
(2.34451e-06 -3.0194e-06 0)
(2.55728e-06 -2.93234e-06 0)
(2.77121e-06 -2.8442e-06 0)
(2.9854e-06 -2.75552e-06 0)
(3.19998e-06 -2.66684e-06 0)
(3.41458e-06 -2.57848e-06 0)
(3.62896e-06 -2.49065e-06 0)
(3.84281e-06 -2.40343e-06 0)
(4.056e-06 -2.31681e-06 0)
(4.26842e-06 -2.2307e-06 0)
(4.47986e-06 -2.14495e-06 0)
(4.69032e-06 -2.05939e-06 0)
(4.89984e-06 -1.97377e-06 0)
(5.10825e-06 -1.88784e-06 0)
(5.31568e-06 -1.80138e-06 0)
(5.52223e-06 -1.7142e-06 0)
(5.72794e-06 -1.62616e-06 0)
(5.9331e-06 -1.53725e-06 0)
(6.13771e-06 -1.44735e-06 0)
(6.34223e-06 -1.35666e-06 0)
(2.28728e-06 -3.11003e-06 0)
(2.49564e-06 -3.02402e-06 0)
(2.70531e-06 -2.93646e-06 0)
(2.91565e-06 -2.84821e-06 0)
(3.12667e-06 -2.75977e-06 0)
(3.33806e-06 -2.67141e-06 0)
(3.54955e-06 -2.58337e-06 0)
(3.76082e-06 -2.49575e-06 0)
(3.97178e-06 -2.40861e-06 0)
(4.18231e-06 -2.32187e-06 0)
(4.39219e-06 -2.23543e-06 0)
(4.60137e-06 -2.14913e-06 0)
(4.80985e-06 -2.06276e-06 0)
(5.01747e-06 -1.97612e-06 0)
(5.22434e-06 -1.88904e-06 0)
(5.43058e-06 -1.80136e-06 0)
(5.63614e-06 -1.71304e-06 0)
(5.84125e-06 -1.62398e-06 0)
(6.04587e-06 -1.53423e-06 0)
(6.25043e-06 -1.44399e-06 0)
(2.22813e-06 -3.19824e-06 0)
(2.43217e-06 -3.11295e-06 0)
(2.6378e-06 -3.02618e-06 0)
(2.84476e-06 -2.93855e-06 0)
(3.05254e-06 -2.85043e-06 0)
(3.26105e-06 -2.7622e-06 0)
(3.46993e-06 -2.67413e-06 0)
(3.67892e-06 -2.58634e-06 0)
(3.88792e-06 -2.4989e-06 0)
(4.0968e-06 -2.41178e-06 0)
(4.3053e-06 -2.32489e-06 0)
(4.51331e-06 -2.23808e-06 0)
(4.72084e-06 -2.15119e-06 0)
(4.92775e-06 -2.06405e-06 0)
(5.13416e-06 -1.97655e-06 0)
(5.34011e-06 -1.88855e-06 0)
(5.54545e-06 -1.79999e-06 0)
(5.75039e-06 -1.7108e-06 0)
(5.95501e-06 -1.62124e-06 0)
(6.15974e-06 -1.53138e-06 0)
(2.16563e-06 -3.28388e-06 0)
(2.36601e-06 -3.19949e-06 0)
(2.56832e-06 -3.11368e-06 0)
(2.77201e-06 -3.02666e-06 0)
(2.97695e-06 -2.939e-06 0)
(3.18289e-06 -2.85107e-06 0)
(3.38956e-06 -2.76314e-06 0)
(3.59665e-06 -2.67538e-06 0)
(3.80405e-06 -2.58787e-06 0)
(4.01154e-06 -2.50057e-06 0)
(4.21881e-06 -2.4134e-06 0)
(4.4258e-06 -2.32629e-06 0)
(4.63257e-06 -2.2391e-06 0)
(4.83897e-06 -2.15166e-06 0)
(5.04493e-06 -2.06387e-06 0)
(5.25042e-06 -1.97564e-06 0)
(5.4555e-06 -1.8869e-06 0)
(5.66049e-06 -1.79771e-06 0)
(5.86507e-06 -1.70825e-06 0)
(6.06956e-06 -1.61866e-06 0)
(2.09897e-06 -3.36792e-06 0)
(2.296e-06 -3.28457e-06 0)
(2.49526e-06 -3.19947e-06 0)
(2.69626e-06 -3.11313e-06 0)
(2.89885e-06 -3.02601e-06 0)
(3.1028e-06 -2.93851e-06 0)
(3.30782e-06 -2.85089e-06 0)
(3.51353e-06 -2.7633e-06 0)
(3.71966e-06 -2.67583e-06 0)
(3.92602e-06 -2.58849e-06 0)
(4.1324e-06 -2.50125e-06 0)
(4.33877e-06 -2.414e-06 0)
(4.54497e-06 -2.32662e-06 0)
(4.75071e-06 -2.23899e-06 0)
(4.9562e-06 -2.15103e-06 0)
(5.16151e-06 -2.06264e-06 0)
(5.36638e-06 -1.97378e-06 0)
(5.57115e-06 -1.88461e-06 0)
(5.77569e-06 -1.79518e-06 0)
(5.98013e-06 -1.70577e-06 0)
(2.02723e-06 -3.44965e-06 0)
(2.2213e-06 -3.36745e-06 0)
(2.418e-06 -3.2834e-06 0)
(2.61688e-06 -3.19792e-06 0)
(2.81782e-06 -3.11157e-06 0)
(3.02049e-06 -3.02468e-06 0)
(3.22439e-06 -2.9375e-06 0)
(3.42908e-06 -2.85022e-06 0)
(3.63443e-06 -2.76296e-06 0)
(3.84027e-06 -2.67573e-06 0)
(4.04616e-06 -2.58851e-06 0)
(4.25191e-06 -2.50122e-06 0)
(4.45762e-06 -2.41375e-06 0)
(4.66304e-06 -2.32602e-06 0)
(4.86812e-06 -2.23796e-06 0)
(5.07307e-06 -2.14947e-06 0)
(5.27773e-06 -2.0606e-06 0)
(5.48229e-06 -1.97136e-06 0)
(5.68678e-06 -1.88195e-06 0)
(5.89101e-06 -1.79259e-06 0)
(1.47804e-07 -2.92792e-06 0)
(4.45328e-07 -2.88533e-06 0)
(7.48598e-07 -2.80158e-06 0)
(1.06077e-06 -2.68035e-06 0)
(1.38447e-06 -2.52606e-06 0)
(1.72137e-06 -2.34465e-06 0)
(2.07208e-06 -2.14262e-06 0)
(2.43603e-06 -1.92687e-06 0)
(2.81204e-06 -1.70434e-06 0)
(3.1971e-06 -1.48055e-06 0)
(1.43987e-07 -2.97727e-06 0)
(4.33552e-07 -2.93844e-06 0)
(7.27869e-07 -2.86193e-06 0)
(1.02954e-06 -2.75097e-06 0)
(1.34074e-06 -2.60927e-06 0)
(1.66292e-06 -2.44186e-06 0)
(1.99652e-06 -2.25433e-06 0)
(2.341e-06 -2.05259e-06 0)
(2.69457e-06 -1.84306e-06 0)
(3.05502e-06 -1.63041e-06 0)
(1.40561e-07 -3.02809e-06 0)
(4.22965e-07 -2.99264e-06 0)
(7.09159e-07 -2.92269e-06 0)
(1.00126e-06 -2.82111e-06 0)
(1.30103e-06 -2.69107e-06 0)
(1.60965e-06 -2.53688e-06 0)
(1.92756e-06 -2.36337e-06 0)
(2.25468e-06 -2.17548e-06 0)
(2.58955e-06 -1.97887e-06 0)
(2.93094e-06 -1.77651e-06 0)
(1.37444e-07 -3.08032e-06 0)
(4.13429e-07 -3.04774e-06 0)
(6.92489e-07 -2.98335e-06 0)
(9.76373e-07 -2.88974e-06 0)
(1.26653e-06 -2.76965e-06 0)
(1.56386e-06 -2.62685e-06 0)
(1.86869e-06 -2.46565e-06 0)
(2.1809e-06 -2.29038e-06 0)
(2.49924e-06 -2.10638e-06 0)
(2.82269e-06 -1.91584e-06 0)
(1.34554e-07 -3.13388e-06 0)
(4.04528e-07 -3.10385e-06 0)
(6.7704e-07 -3.04443e-06 0)
(9.53462e-07 -2.95794e-06 0)
(1.235e-06 -2.84686e-06 0)
(1.52236e-06 -2.71446e-06 0)
(1.81582e-06 -2.56462e-06 0)
(2.11531e-06 -2.40106e-06 0)
(2.41987e-06 -2.22861e-06 0)
(2.72798e-06 -2.04921e-06 0)
(1.31868e-07 -3.18867e-06 0)
(3.96232e-07 -3.16082e-06 0)
(6.62727e-07 -3.10575e-06 0)
(9.32415e-07 -3.02546e-06 0)
(1.20629e-06 -2.92227e-06 0)
(1.48495e-06 -2.79906e-06 0)
(1.76853e-06 -2.65938e-06 0)
(2.05687e-06 -2.50657e-06 0)
(2.34941e-06 -2.34498e-06 0)
(2.64418e-06 -2.17653e-06 0)
(1.29255e-07 -3.2446e-06 0)
(3.88295e-07 -3.21869e-06 0)
(6.49102e-07 -3.16751e-06 0)
(9.12533e-07 -3.09274e-06 0)
(1.17945e-06 -2.99661e-06 0)
(1.4503e-06 -2.8817e-06 0)
(1.72521e-06 -2.75121e-06 0)
(2.00387e-06 -2.60818e-06 0)
(2.28604e-06 -2.45644e-06 0)
(2.56937e-06 -2.29814e-06 0)
(1.26714e-07 -3.30153e-06 0)
(3.80637e-07 -3.27734e-06 0)
(6.36009e-07 -3.22958e-06 0)
(8.93579e-07 -3.1597e-06 0)
(1.15412e-06 -3.06985e-06 0)
(1.41789e-06 -2.96237e-06 0)
(1.68506e-06 -2.84016e-06 0)
(1.95515e-06 -2.70602e-06 0)
(2.22824e-06 -2.56333e-06 0)
(2.50175e-06 -2.41442e-06 0)
(1.24258e-07 -3.35937e-06 0)
(3.73131e-07 -3.3367e-06 0)
(6.23223e-07 -3.292e-06 0)
(8.75216e-07 -3.22653e-06 0)
(1.12976e-06 -3.14232e-06 0)
(1.38706e-06 -3.04152e-06 0)
(1.64723e-06 -2.92677e-06 0)
(1.90973e-06 -2.80065e-06 0)
(2.17479e-06 -2.66617e-06 0)
(2.4398e-06 -2.52584e-06 0)
(1.21824e-07 -3.41797e-06 0)
(3.65668e-07 -3.39664e-06 0)
(6.10591e-07 -3.35468e-06 0)
(8.57227e-07 -3.29318e-06 0)
(1.10607e-06 -3.21403e-06 0)
(1.35733e-06 -3.11924e-06 0)
(1.61109e-06 -3.01121e-06 0)
(1.86674e-06 -2.89237e-06 0)
(2.1246e-06 -2.7654e-06 0)
(2.38219e-06 -2.63288e-06 0)
(1.19333e-07 -3.47718e-06 0)
(3.58153e-07 -3.45704e-06 0)
(5.9797e-07 -3.41756e-06 0)
(8.39355e-07 -3.35967e-06 0)
(1.08271e-06 -3.2851e-06 0)
(1.32823e-06 -3.19574e-06 0)
(1.57602e-06 -3.09378e-06 0)
(1.82541e-06 -2.98155e-06 0)
(2.07675e-06 -2.86141e-06 0)
(2.32776e-06 -2.73596e-06 0)
(1.16778e-07 -3.53682e-06 0)
(3.50552e-07 -3.51779e-06 0)
(5.85256e-07 -3.48056e-06 0)
(8.21394e-07 -3.42594e-06 0)
(1.05937e-06 -3.35553e-06 0)
(1.29935e-06 -3.27108e-06 0)
(1.54146e-06 -3.17464e-06 0)
(1.78504e-06 -3.06841e-06 0)
(2.03039e-06 -2.95449e-06 0)
(2.27549e-06 -2.83542e-06 0)
(1.1418e-07 -3.59677e-06 0)
(3.42804e-07 -3.57877e-06 0)
(5.723e-07 -3.54359e-06 0)
(8.03126e-07 -3.49196e-06 0)
(1.03575e-06 -3.42533e-06 0)
(1.27031e-06 -3.34535e-06 0)
(1.50693e-06 -3.25395e-06 0)
(1.74498e-06 -3.15316e-06 0)
(1.98474e-06 -3.04488e-06 0)
(2.22446e-06 -2.9316e-06 0)
(1.11518e-07 -3.65684e-06 0)
(3.34797e-07 -3.63981e-06 0)
(5.58913e-07 -3.60649e-06 0)
(7.84319e-07 -3.55758e-06 0)
(1.01154e-06 -3.49442e-06 0)
(1.24069e-06 -3.41854e-06 0)
(1.47191e-06 -3.33175e-06 0)
(1.70463e-06 -3.23592e-06 0)
(1.93909e-06 -3.13282e-06 0)
(2.17379e-06 -3.02481e-06 0)
(1.08729e-07 -3.7169e-06 0)
(3.26385e-07 -3.70077e-06 0)
(5.4489e-07 -3.66914e-06 0)
(7.64712e-07 -3.62276e-06 0)
(9.86391e-07 -3.56279e-06 0)
(1.21007e-06 -3.49071e-06 0)
(1.43587e-06 -3.40814e-06 0)
(1.66335e-06 -3.31685e-06 0)
(1.8927e-06 -3.21852e-06 0)
(2.12263e-06 -3.1153e-06 0)
(1.05753e-07 -3.77663e-06 0)
(3.17449e-07 -3.76134e-06 0)
(5.30049e-07 -3.7313e-06 0)
(7.44034e-07 -3.68725e-06 0)
(9.59947e-07 -3.63025e-06 0)
(1.17798e-06 -3.56167e-06 0)
(1.39829e-06 -3.48301e-06 0)
(1.62055e-06 -3.39595e-06 0)
(1.84486e-06 -3.30204e-06 0)
(2.07017e-06 -3.2032e-06 0)
(1.02551e-07 -3.83594e-06 0)
(3.0788e-07 -3.82146e-06 0)
(5.14186e-07 -3.79291e-06 0)
(7.21976e-07 -3.75104e-06 0)
(9.31807e-07 -3.69683e-06 0)
(1.14394e-06 -3.63155e-06 0)
(1.35859e-06 -3.55656e-06 0)
(1.5755e-06 -3.47349e-06 0)
(1.79476e-06 -3.38364e-06 0)
(2.01546e-06 -3.28892e-06 0)
(9.90966e-08 -3.89422e-06 0)
(2.97568e-07 -3.8805e-06 0)
(4.97091e-07 -3.85337e-06 0)
(6.98229e-07 -3.81358e-06 0)
(9.01573e-07 -3.76202e-06 0)
(1.10746e-06 -3.69988e-06 0)
(1.31616e-06 -3.6284e-06 0)
(1.52748e-06 -3.5491e-06 0)
(1.74149e-06 -3.46311e-06 0)
(1.95754e-06 -3.37226e-06 0)
(9.53338e-08 -3.95176e-06 0)
(2.86317e-07 -3.93877e-06 0)
(4.7843e-07 -3.91303e-06 0)
(6.72317e-07 -3.87525e-06 0)
(8.68623e-07 -3.82625e-06 0)
(1.06778e-06 -3.76713e-06 0)
(1.27009e-06 -3.69906e-06 0)
(1.47546e-06 -3.62333e-06 0)
(1.68395e-06 -3.54111e-06 0)
(1.89519e-06 -3.45393e-06 0)
(9.12291e-08 -4.0069e-06 0)
(2.7403e-07 -3.99458e-06 0)
(4.58033e-07 -3.97023e-06 0)
(6.44012e-07 -3.93446e-06 0)
(8.32683e-07 -3.88802e-06 0)
(1.02453e-06 -3.83192e-06 0)
(1.2199e-06 -3.76721e-06 0)
(1.41882e-06 -3.69505e-06 0)
(1.62146e-06 -3.6166e-06 0)
(1.82764e-06 -3.53317e-06 0)
)


// ************************************************************************* //
