/*--------------------------------*- C++ -*----------------------------------*\
| =========                 |                                                 |
| \\      /  F ield         | foam-extend: Open Source CFD                    |
|  \\    /   O peration     | Version:     4.1                                |
|   \\  /    A nd           | Web:         http://www.foam-extend.org         |
|    \\/     M anipulation  |                                                 |
\*---------------------------------------------------------------------------*/
FoamFile
{
    version     2.0;
    format      ascii;
    class       volScalarField;
    location    "1";
    object      sigmaHyd;
}
// * * * * * * * * * * * * * * * * * * * * * * * * * * * * * * * * * * * * * //

dimensions      [1 -1 -2 0 0 0 0];

internalField   nonuniform List<scalar> 
100000
(
-47062.3
-46941.8
-46965
-46914.8
-46904.1
-46874.1
-46855.3
-46831.8
-46811.8
-46791
-46771.6
-46752.4
-46734.1
-46716.1
-46698.8
-46681.9
-46665.5
-46649.6
-46634.1
-46619.1
-46604.5
-46590.3
-46576.5
-46563
-46549.9
-46537.1
-46524.7
-46512.4
-46500.8
-46488.3
-46477.7
-46462.6
-46452.7
-46447.4
-46435.6
-46425.3
-46415.5
-46405.5
-46396.1
-46386.7
-46377.6
-46368.6
-46359.9
-46351.3
-46342.9
-46334.7
-46326.6
-46318.7
-46310.9
-46303.3
-46295.8
-46288.4
-46281.1
-46274
-46267
-46260.1
-46253.3
-46246.6
-46240
-46233.5
-46227.1
-46220.8
-46214.5
-46208.4
-46202.3
-46196.3
-46190.3
-46184.5
-46178.7
-46172.9
-46167.3
-46161.6
-46156.1
-46150.6
-46145.2
-46139.9
-46134.6
-46129.3
-46124.1
-46118.9
-46113.8
-46108.6
-46103.7
-46098.6
-46093.7
-46088.5
-46083.6
-46078.5
-46073.6
-46068.7
-46063.9
-46059.2
-46054.7
-46050.2
-46046.4
-46042.1
-46040.7
-46035.6
-46043.4
-46015.5
-48766.9
-48604.7
-48599.1
-48514.8
-48474.1
-48413.2
-48365.3
-48313.1
-48265.3
-48217.4
-48171.7
-48126.8
-48083.4
-48041.1
-47999.9
-47959.9
-47920.9
-47883
-47846.1
-47810.1
-47775
-47740.8
-47707.5
-47675
-47643.4
-47612.5
-47582.7
-47553.1
-47526.5
-47496.6
-47481.3
-47439.8
-47432.7
-47387.6
-47377.1
-47340.2
-47318
-47292
-47269.1
-47245.9
-47223.7
-47201.8
-47180.5
-47159.5
-47139
-47118.9
-47099.2
-47079.9
-47060.9
-47042.2
-47023.9
-47006
-46988.3
-46971
-46953.9
-46937.2
-46920.8
-46904.6
-46888.7
-46873
-46857.6
-46842.5
-46827.5
-46812.8
-46798.3
-46784.1
-46770
-46756.1
-46742.5
-46729
-46715.7
-46702.6
-46689.7
-46677
-46664.5
-46652.1
-46640
-46627.8
-46616
-46604.1
-46592.3
-46580.8
-46569.5
-46558.2
-46547.2
-46536
-46525
-46514.1
-46503.3
-46492.7
-46482.3
-46472
-46462.1
-46452
-46443
-46432.8
-46426.2
-46414.4
-46416.8
-46377.3
-50470.6
-50266.8
-50232.3
-50113.9
-50043.2
-49951.6
-49874.7
-49793.6
-49718.2
-49643.1
-49571
-49500.5
-49432.1
-49365.4
-49300.5
-49237.3
-49175.8
-49115.8
-49057.4
-49000.5
-48945
-48890.8
-48838
-48786.5
-48736.2
-48687.1
-48639.3
-48592.4
-48546.9
-48502.1
-48458.6
-48417.5
-48370.1
-48328
-48292.3
-48252.3
-48215
-48177.1
-48140.5
-48104.4
-48069.1
-48034.5
-48000.6
-47967.3
-47934.8
-47902.8
-47871.5
-47840.7
-47810.5
-47780.9
-47751.8
-47723.3
-47695.2
-47667.7
-47640.6
-47614.1
-47588
-47562.3
-47537.1
-47512.3
-47488
-47464
-47440.3
-47417.1
-47394.2
-47371.6
-47349.4
-47327.6
-47306.1
-47284.8
-47263.9
-47243.3
-47223.1
-47203
-47183.4
-47163.9
-47145
-47126
-47107.7
-47089.5
-47071.1
-47053
-47035.9
-47018.2
-47002.3
-46984.4
-46967.2
-46949.9
-46933.3
-46916.8
-46900.9
-46885
-46869.8
-46854.3
-46840.3
-46824.3
-46813.4
-46793.5
-46792.5
-46736.7
-52173
-51927.7
-51864.3
-51711.9
-51611.3
-51488.9
-51382.9
-51273.1
-51169.9
-51067.8
-50969.4
-50873.2
-50779.8
-50688.7
-50600.1
-50513.8
-50429.7
-50347.8
-50267.9
-50190
-50114.1
-50040
-49967.7
-49897.2
-49828.3
-49761.1
-49695.5
-49631.3
-49569
-49507
-49447.4
-49387.1
-49321
-49273.1
-49220.2
-49166.1
-49114.3
-49062.4
-49012.1
-48962.5
-48914.2
-48866.7
-48820.2
-48774.7
-48730
-48686.2
-48643.2
-48601.1
-48559.7
-48519.1
-48479.2
-48440.1
-48401.7
-48363.9
-48326.9
-48290.5
-48254.8
-48219.7
-48185.2
-48151.3
-48117.9
-48085.1
-48052.8
-48021
-47989.7
-47958.9
-47928.6
-47898.7
-47869.3
-47840.4
-47811.9
-47783.8
-47756.2
-47729
-47702.3
-47675.8
-47650.2
-47624.3
-47599.8
-47574.1
-47548.4
-47524.3
-47500.7
-47476.7
-47455.1
-47431.4
-47407
-47384.8
-47362.1
-47340.3
-47318.6
-47297.3
-47276.6
-47255.5
-47236.1
-47214.5
-47198.1
-47172.3
-47165.8
-47103
-53873.8
-53586.9
-53494.7
-53308.4
-53177.8
-53024.7
-52889.6
-52751.2
-52620.3
-52491.1
-52366.4
-52244.6
-52126.2
-52010.8
-51898.5
-51789.1
-51682.5
-51578.6
-51477.3
-51378.5
-51282.1
-51188.1
-51096.4
-51006.8
-50919.4
-50834
-50750.6
-50669
-50589.4
-50511.4
-50435
-50360.6
-50286.1
-50215.3
-50146.4
-50078.2
-50011.8
-49946.4
-49882.5
-49819.8
-49758.3
-49698.1
-49639.1
-49581.2
-49524.5
-49468.8
-49414.3
-49360.7
-49308.2
-49256.6
-49206
-49156.3
-49107.5
-49059.6
-49012.5
-48966.3
-48920.9
-48876.4
-48832.6
-48789.6
-48747.3
-48705.6
-48664.7
-48624.4
-48584.7
-48545.6
-48507.2
-48469.3
-48432.1
-48395.4
-48359.3
-48323.6
-48288.6
-48253.9
-48220.1
-48186.2
-48153.9
-48120.6
-48090.5
-48060.9
-48026.9
-47994.6
-47966.8
-47935.8
-47918.2
-47882.1
-47849.9
-47819.1
-47791.1
-47762.9
-47736
-47709
-47683
-47656.4
-47631.7
-47604.5
-47583.1
-47551.3
-47540.1
-47470.6
-55572.5
-55244.1
-55123.2
-54902.8
-54742.4
-54558.6
-54394.5
-54227.5
-54068.9
-53912.7
-53761.7
-53614.3
-53471
-53331.3
-53195.4
-53062.9
-52933.8
-52807.9
-52685.2
-52565.5
-52448.8
-52334.8
-52223.7
-52115.1
-52009.1
-51905.6
-51804.5
-51705.6
-51609
-51514.4
-51421.8
-51331.3
-51241.4
-51156.4
-51072.2
-50989.7
-50909
-50829.7
-50752.2
-50676.1
-50601.6
-50528.6
-50457
-50386.9
-50318.1
-50250.6
-50184.5
-50119.5
-50055.8
-49993.3
-49932
-49871.7
-49812.5
-49754.3
-49697.3
-49641.2
-49586.3
-49532.5
-49479.4
-49427.3
-49376
-49325.6
-49275.9
-49227.1
-49179
-49131.7
-49085.2
-49039.4
-48994.3
-48949.9
-48906.2
-48863.1
-48820.8
-48779
-48738.4
-48697.7
-48659.7
-48619.2
-48588.6
-48543.6
-48495.9
-48464.4
-48428.9
-48389.6
-48366.8
-48329.1
-48280.1
-48253.2
-48217.6
-48185.7
-48152.8
-48120.6
-48089
-48057
-48026.9
-47994.2
-47967.5
-47930.3
-47914.2
-47839.1
-57268.7
-56898.9
-56749.2
-56495
-56304.7
-56090.3
-55897.2
-55701.6
-55515.4
-55332.2
-55155
-54982
-54813.9
-54649.9
-54490.3
-54334.8
-54183.2
-54035.4
-53891.4
-53750.8
-53613.7
-53479.9
-53349.3
-53221.8
-53097.3
-52975.7
-52856.9
-52740.8
-52627.3
-52516.3
-52407.7
-52301.6
-52197.4
-52096.1
-51996.9
-51899.8
-51804.8
-51711.7
-51620.5
-51531.2
-51443.7
-51357.9
-51273.8
-51191.4
-51110.6
-51031.3
-50953.6
-50877.3
-50802.5
-50729.1
-50657
-50586.2
-50516.8
-50448.3
-50381.4
-50315.2
-50250.4
-50187.4
-50125.4
-50064.1
-50004
-49944.7
-49886.4
-49829
-49772.6
-49717
-49662.4
-49608.6
-49555.6
-49503.5
-49452.1
-49401.4
-49351.7
-49302
-49253.9
-49203.8
-49159.2
-49101.8
-49071.4
-48995.1
-48979.7
-48918.9
-48879.6
-48833.6
-48841.3
-48742.2
-48718.6
-48672.8
-48643.3
-48604
-48568.2
-48530.4
-48494
-48456.7
-48421.4
-48383.4
-48351.6
-48309.1
-48288.2
-48207.4
-58961.9
-58550.8
-58372.4
-58084.4
-57864.3
-57619.3
-57397.4
-57173.2
-56959.5
-56749.3
-56546
-56347.4
-56154.4
-55966.3
-55783.1
-55604.6
-55430.6
-55260.9
-55095.5
-54934.1
-54776.7
-54623.1
-54473.1
-54326.7
-54183.7
-54044.1
-53907.6
-53774.3
-53643.9
-53516.4
-53391.7
-53269.8
-53150.3
-53034
-52920
-52808.5
-52699.3
-52592.3
-52487.6
-52384.9
-52284.4
-52185.8
-52089.2
-51994.6
-51901.7
-51810.7
-51721.4
-51633.8
-51547.9
-51463.5
-51380.7
-51299.2
-51219.5
-51140.5
-51063.8
-50987.1
-50913.6
-50842.3
-50770.3
-50700.2
-50630.9
-50562.8
-50495.8
-50430
-50365.2
-50301.4
-50238.7
-50177
-50116.2
-50056.4
-49997.5
-49939.5
-49882.4
-49826
-49770.4
-49715.8
-49660.9
-49608.9
-49550
-49509.2
-49464.7
-49407.3
-49357.1
-49311.5
-49253.5
-49211.7
-49175
-49120.6
-49076.9
-49030.3
-48986.5
-48942.4
-48899.8
-48856.7
-48815.8
-48772.4
-48735.3
-48687.5
-48661.8
-48575.5
-60651.8
-60199.5
-59992.5
-59670.6
-59420.8
-59145.3
-58894.6
-58641.9
-58400.7
-58163.6
-57934.2
-57710.2
-57492.4
-57280.1
-57073.4
-56871.9
-56675.5
-56484
-56297.3
-56115.1
-55937.4
-55764
-55594.7
-55429.4
-55268
-55110.4
-54956.3
-54805.8
-54658.6
-54514.7
-54374
-54236.4
-54101.8
-53970.2
-53841.4
-53715.4
-53592
-53471.2
-53352.9
-53237
-53123.5
-53012.2
-52903.1
-52796.2
-52691.4
-52588.7
-52487.9
-52389
-52292
-52196.8
-52103.5
-52011.5
-51922
-51832.6
-51746.8
-51658.8
-51572.8
-51493.9
-51415
-51334.7
-51257.2
-51179.8
-51104.4
-51029.8
-50956.7
-50884.7
-50813.9
-50744.3
-50675.7
-50608.2
-50541.8
-50476.3
-50411.9
-50348.3
-50285.9
-50224
-50163.9
-50103.8
-50046.3
-49991.4
-49932.4
-49874.2
-49821.1
-49765.5
-49722.6
-49662.5
-49607.8
-49552.9
-49502.1
-49450.7
-49401.3
-49351.9
-49303.8
-49255.4
-49209.2
-49160.5
-49118.3
-49065.2
-49034.7
-48943
-62338
-61844.5
-61609
-61253.4
-60974
-60668
-60388.5
-60107.3
-59838.7
-59574.8
-59319.3
-59069.9
-58827.4
-58591
-58360.8
-58136.4
-57917.7
-57704.4
-57496.5
-57293.6
-57095.6
-56902.5
-56713.9
-56529.8
-56350
-56174.3
-56002.7
-55835
-55671.1
-55510.8
-55354.1
-55200.8
-55050.8
-54904.2
-54760.7
-54620.3
-54482.9
-54348.2
-54216.4
-54087.3
-53960.8
-53836.8
-53715.3
-53596.2
-53479.4
-53364.9
-53252.6
-53142.4
-53034.3
-52928.2
-52824.1
-52721.5
-52621.4
-52520.9
-52425.1
-52321.5
-52233.7
-52153.1
-52056.9
-51969.1
-51881.2
-51795.5
-51711.2
-51628.3
-51546.9
-51466.7
-51387.9
-51310.4
-51234.1
-51158.9
-51085
-51012.2
-50940.5
-50869.9
-50800.3
-50731.9
-50664.3
-50598.3
-50532.5
-50469.4
-50406.5
-50343.4
-50281.7
-50220.9
-50160.6
-50101.5
-50043.9
-49985
-49928.4
-49871.6
-49816.3
-49761.3
-49707.6
-49653.7
-49602.1
-49548.1
-49500.7
-49442.4
-49407
-49309.9
-64020.1
-63485.5
-63221.5
-62832.3
-62523.3
-62187
-61878.7
-61569.2
-61273.2
-60982.6
-60701.1
-60426.4
-60159.2
-59898.7
-59645.1
-59397.8
-59156.8
-58921.9
-58692.7
-58469.2
-58251
-58038.2
-57830.4
-57627.5
-57429.3
-57235.8
-57046.6
-56861.8
-56681.1
-56504.5
-56331.8
-56162.9
-55997.7
-55836
-55677.9
-55523.1
-55371.5
-55223.2
-55077.9
-54935.5
-54796.1
-54659.4
-54525.5
-54394.2
-54265.5
-54139.3
-54015.6
-53894.2
-53775.2
-53658.3
-53544.2
-53431.3
-53323.3
-53212.2
-53117.9
-52995.7
-52936
-52791.6
-52710
-52599.9
-52506.7
-52409.7
-52317.4
-52225.5
-52135.9
-52047.5
-51960.6
-51875.2
-51791.1
-51708.3
-51626.9
-51546.7
-51467.8
-51390.1
-51313.6
-51238.2
-51164.1
-51091.1
-51019.3
-50948.8
-50878.8
-50809.8
-50742.3
-50675.2
-50610.3
-50544.2
-50479.8
-50415.5
-50352.8
-50290.6
-50229.6
-50169.1
-50110
-50050.7
-49993.9
-49934.6
-49882.2
-49818.6
-49778.5
-49676.1
-65697.5
-65122
-64829.6
-64406.9
-64068.4
-63701.8
-63365
-63027.2
-62703.9
-62386.6
-62079.2
-61779.1
-61487.4
-61202.9
-60925.9
-60655.9
-60392.7
-60136
-59885.8
-59641.6
-59403.3
-59170.8
-58943.9
-58722.2
-58505.8
-58294.3
-58087.7
-57885.9
-57688.5
-57495.6
-57306.9
-57122.4
-56941.9
-56765.3
-56592.5
-56423.4
-56257.9
-56095.8
-55937
-55781.5
-55629.1
-55479.9
-55333.6
-55190.1
-55049.5
-54911.7
-54776.5
-54643.8
-54513.7
-54386.1
-54260.9
-54138
-54017.4
-53899.6
-53782.4
-53674.3
-53550.6
-53434.5
-53334.7
-53227.1
-53124.4
-53021.1
-52920.3
-52820.7
-52722.8
-52626.5
-52531.7
-52438.4
-52346.6
-52256.3
-52167.4
-52079.9
-51993.7
-51908.9
-51825.3
-51743.1
-51662.1
-51582.4
-51503.7
-51426.5
-51350.2
-51275
-51200.8
-51127.6
-51055.5
-50984.3
-50914.1
-50844.6
-50776.2
-50708.5
-50642
-50576.1
-50511.5
-50446.9
-50384.8
-50320.2
-50262.7
-50193.9
-50149
-50041.3
-67370.1
-66753.7
-66433
-65976.9
-65609
-65212.2
-64846.8
-64480.8
-64130.3
-63786.4
-63453.2
-63127.9
-62811.6
-62503.3
-62203
-61910.2
-61624.9
-61346.7
-61075.3
-60810.6
-60552.3
-60300.2
-60054.1
-59813.8
-59579.1
-59349.8
-59125.8
-58906.9
-58692.9
-58483.7
-58279.2
-58079.1
-57883.4
-57691.9
-57504.5
-57321.1
-57141.6
-56965.8
-56793.6
-56625
-56459.8
-56297.9
-56139.3
-55983.7
-55831.3
-55681.8
-55535.2
-55391.3
-55250.3
-55111.8
-54976.2
-54842.7
-54712.2
-54583
-54457.5
-54331.5
-54206.4
-54088.7
-53973.8
-53857.1
-53744.5
-53632.3
-53522.8
-53414.6
-53308.5
-53204
-53101.2
-53000.1
-52900.6
-52802.7
-52706.3
-52611.5
-52518.1
-52426.1
-52335.6
-52246.5
-52158.7
-52072.2
-51987.1
-51903.2
-51820.5
-51738.9
-51658.6
-51579.2
-51501.2
-51423.9
-51347.8
-51272.5
-51198.4
-51125.2
-51053.1
-50981.7
-50911.7
-50841.8
-50774.4
-50704.7
-50642.1
-50568.2
-50518.4
-50405.6
-69037.2
-68380.2
-68031.3
-67541.9
-67144.6
-66717.7
-66323.9
-65929.8
-65552.2
-65181.8
-64822.8
-64472.4
-64131.7
-63799.5
-63476
-63160.6
-62853.2
-62553.4
-62261.1
-61975.8
-61697.5
-61425.9
-61160.8
-60901.8
-60649
-60402
-60160.6
-59924.7
-59694.2
-59468.8
-59248.3
-59032.8
-58821.9
-58615.5
-58413.6
-58216
-58022.5
-57833.1
-57647.6
-57465.9
-57287.8
-57113.4
-56942.4
-56774.8
-56610.5
-56449.4
-56291.4
-56136.4
-55984.4
-55835.2
-55688.8
-55545.1
-55404
-55265.5
-55129.1
-54995.9
-54862.8
-54733.2
-54607.6
-54482.8
-54361.1
-54240.7
-54122.7
-54006.4
-53892
-53779.5
-53668.9
-53560
-53452.8
-53347.3
-53243.5
-53141.4
-53040.8
-52941.8
-52844.2
-52748.2
-52653.6
-52560.5
-52468.7
-52378.3
-52289.2
-52201.3
-52114.7
-52029.3
-51945
-51861.9
-51780
-51699.1
-51619.3
-51540.5
-51462.9
-51386.1
-51310.8
-51235.5
-51162.9
-51088
-51020.3
-50941.3
-50886.8
-50768.7
-70698.6
-70001
-69624
-69101.4
-68674.9
-68218.1
-67795.9
-67373.8
-66969.2
-66572.3
-66187.6
-65812.3
-65447.2
-65091.2
-64744.6
-64406.6
-64077.2
-63756
-63442.7
-63137.1
-62838.9
-62547.8
-62263.6
-61986.2
-61715.2
-61450.5
-61191.8
-60939
-60692
-60450.4
-60214.2
-59983.1
-59757.1
-59536
-59319.6
-59107.8
-58900.4
-58697.4
-58498.6
-58303.8
-58113
-57926.1
-57742.8
-57563.2
-57387.1
-57214.5
-57045.1
-56879
-56716.1
-56556.1
-56399.2
-56245.1
-56093.9
-55945.3
-55799.4
-55655.8
-55514.6
-55376.5
-55241.1
-55107.6
-54976.7
-54847.7
-54721
-54596.4
-54473.8
-54353.3
-54234.7
-54118
-54003.2
-53890.2
-53779
-53669.5
-53561.7
-53455.6
-53351.1
-53248.3
-53146.9
-53047.1
-52948.7
-52851.8
-52756.3
-52662.2
-52569.4
-52477.9
-52387.7
-52298.7
-52210.9
-52124.2
-52038.8
-51954.5
-51871.4
-51789.1
-51708.4
-51627.9
-51550.1
-51470
-51397.3
-51313.2
-51253.9
-51130.7
-72353.8
-71615.8
-71210.8
-70655.1
-70199.6
-69712.8
-69262.4
-68812.5
-68380.9
-67957.7
-67547.5
-67147.2
-66757.8
-66378.2
-66008.5
-65648.1
-65296.8
-64954.2
-64620
-64294.1
-63976
-63665.5
-63362.5
-63066.5
-62777.5
-62495.1
-62219.2
-61949.6
-61686.1
-61428.4
-61176.4
-60930
-60688.9
-60453
-60222.2
-59996.3
-59775.1
-59558.5
-59346.4
-59138.7
-58935.2
-58735.7
-58540.3
-58348.7
-58160.9
-57976.7
-57796
-57618.9
-57445
-57274.4
-57107
-56942.7
-56781.3
-56622.9
-56467.2
-56314.4
-56164
-56016.5
-55871.8
-55729.4
-55589.6
-55452.1
-55317
-55184.1
-55053.4
-54924.8
-54798.4
-54673.9
-54551.5
-54431
-54312.4
-54195.7
-54080.7
-53967.6
-53856.2
-53746.4
-53638.4
-53531.9
-53427
-53323.7
-53221.8
-53121.4
-53022.4
-52924.9
-52828.7
-52733.8
-52640.2
-52547.8
-52456.8
-52366.9
-52278.3
-52190.7
-52104.6
-52018.8
-51935.9
-51850.6
-51772.9
-51683.7
-51619.6
-51491.4
-74002.5
-73224.2
-72791.3
-72202.7
-71718.2
-71201.7
-70723.1
-70245.4
-69787
-69337.6
-68901.9
-68476.8
-68063.2
-67660.1
-67267.4
-66884.6
-66511.4
-66147.6
-65792.7
-65446.4
-65108.6
-64778.8
-64456.9
-64142.6
-63835.6
-63535.7
-63242.6
-62956.2
-62676.3
-62402.6
-62134.9
-61873.1
-61617
-61366.5
-61121.2
-60881.2
-60646.3
-60416.2
-60190.9
-59970.3
-59754.1
-59542.3
-59334.6
-59131.1
-58931.6
-58735.9
-58544
-58355.8
-58171.1
-57989.9
-57812.1
-57637.5
-57466.1
-57297.8
-57132.5
-56970.1
-56810.6
-56654
-56500.2
-56349
-56200.4
-56054.4
-55910.8
-55769.6
-55630.8
-55494.2
-55359.9
-55227.7
-55097.7
-54969.7
-54843.7
-54719.8
-54597.7
-54477.5
-54359.2
-54242.7
-54127.9
-54014.8
-53903.4
-53793.7
-53685.5
-53578.9
-53473.8
-53370.1
-53268
-53167.2
-53067.9
-52969.8
-52873.2
-52777.7
-52683.7
-52590.6
-52499.3
-52408.2
-52320.1
-52229.7
-52147
-52052.8
-51983.9
-51850.8
-75644.1
-74825.8
-74365.1
-73743.7
-73230.3
-72684.2
-72177.7
-71672.2
-71187.2
-70711.7
-70250.6
-69800.7
-69363.1
-68936.5
-68521
-68115.9
-67721
-67336
-66960.4
-66594
-66236.4
-65887.5
-65546.8
-65214.1
-64889.2
-64571.8
-64261.7
-63958.6
-63662.3
-63372.6
-63089.3
-62812.3
-62541.2
-62276
-62016.5
-61762.5
-61513.7
-61270.3
-61031.9
-60798.4
-60569.5
-60345.4
-60125.6
-59910.2
-59699.1
-59492
-59288.9
-59089.7
-58894.2
-58702.4
-58514.2
-58329.4
-58148
-57969.9
-57795
-57623.2
-57454.5
-57288.7
-57125.9
-56965.8
-56808.6
-56654
-56502.1
-56352.6
-56205.7
-56061.2
-55919
-55779.2
-55641.6
-55506.1
-55372.9
-55241.7
-55112.5
-54985.4
-54860.1
-54736.8
-54615.4
-54495.7
-54377.8
-54261.7
-54147.2
-54034.4
-53923.2
-53813.6
-53705.5
-53598.9
-53493.7
-53390
-53287.8
-53186.8
-53087.4
-52989
-52892.3
-52796
-52702.8
-52607.3
-52519.6
-52420.3
-52346.7
-52208.6
-77278.4
-76420.2
-75931.9
-75277.8
-74735.7
-74160.1
-73625.7
-73092.7
-72581
-72079.6
-71593.2
-71118.8
-70657.2
-70207.2
-69768.9
-69341.7
-68925.2
-68519
-68122.9
-67736.4
-67359.2
-66991.1
-66631.8
-66280.9
-65938.1
-65603.3
-65276.2
-64956.5
-64643.9
-64338.4
-64039.5
-63747.2
-63461.3
-63181.5
-62907.7
-62639.8
-62377.4
-62120.6
-61869.1
-61622.8
-61381.4
-61144.9
-60913.1
-60685.9
-60463.1
-60244.7
-60030.4
-59820.3
-59614.1
-59411.8
-59213.2
-59018.3
-58826.9
-58639.1
-58454.6
-58273.4
-58095.4
-57920.5
-57748.8
-57580
-57414.1
-57251
-57090.7
-56933.1
-56778.1
-56625.7
-56475.7
-56328.2
-56183
-56040.2
-55899.6
-55761.3
-55625
-55490.9
-55358.8
-55228.8
-55100.7
-54974.5
-54850.1
-54727.6
-54606.9
-54487.9
-54370.6
-54255
-54141
-54028.6
-53917.8
-53808.4
-53700.6
-53594.1
-53489.2
-53385.5
-53283.6
-53182.1
-53083.7
-52983.1
-52890.5
-52786.2
-52707.9
-52564.9
-78904.9
-78007
-77491.2
-76804.7
-76233.9
-75628.9
-75066.8
-74506.4
-73968.3
-73441
-72929.5
-72430.6
-71945.1
-71471.9
-71011
-70561.6
-70123.6
-69696.4
-69279.8
-68873.3
-68476.7
-68089.6
-67711.6
-67342.6
-66982.1
-66630
-66285.9
-65949.6
-65620.9
-65299.5
-64985.2
-64677.8
-64377
-64082.7
-63794.6
-63512.8
-63236.7
-62966.8
-62702.2
-62443.2
-62189.4
-61940.7
-61696.9
-61457.9
-61223.6
-60993.8
-60768.5
-60547.4
-60330.6
-60117.8
-59908.9
-59703.9
-59502.7
-59305.1
-59111
-58920.5
-58733.3
-58549.4
-58368.7
-58191.2
-58016.7
-57845.2
-57676.6
-57510.8
-57347.8
-57187.5
-57029.8
-56874.6
-56722
-56571.8
-56423.9
-56278.4
-56135.1
-55994.1
-55855.2
-55718.4
-55583.7
-55451
-55320.2
-55191.4
-55064.4
-54939.3
-54816
-54694.4
-54574.5
-54456.3
-54339.8
-54224.8
-54111.4
-53999.5
-53889.2
-53780.2
-53673
-53566.3
-53462.8
-53357.2
-53259.6
-53150.4
-53067.3
-52919.6
-80523.3
-79585.9
-79042.6
-78323.8
-77724.6
-77090.4
-76500.7
-75913
-75348.6
-74795.5
-74259.1
-73735.8
-73226.6
-72730.3
-72246.8
-71775.5
-71316
-70868
-70431
-70004.6
-69588.6
-69182.5
-68786.1
-68398.9
-68020.8
-67651.5
-67290.6
-66937.8
-66593
-66255.9
-65926.2
-65603.7
-65288.2
-64979.5
-64677.2
-64381.6
-64092
-63808.9
-63531.3
-63259.7
-62993.4
-62732.5
-62476.8
-62226.1
-61980.3
-61739.3
-61502.9
-61271
-61043.5
-60820.2
-60601.2
-60386.1
-60175
-59967.8
-59764.2
-59564.3
-59368
-59175.1
-58985.6
-58799.3
-58616.3
-58436.4
-58259.5
-58085.6
-57914.6
-57746.5
-57581
-57418.3
-57258.2
-57100.6
-56945.6
-56793
-56642.7
-56494.8
-56349.1
-56205.6
-56064.3
-55925.1
-55788
-55652.9
-55519.7
-55388.5
-55259.1
-55131.6
-55005.9
-54881.9
-54759.7
-54639.1
-54520.2
-54402.9
-54287.2
-54172.9
-54060.5
-53948.7
-53840.1
-53729.4
-53626.9
-53512.8
-53424.9
-53272.5
-82133.1
-81156.4
-80585.9
-79834.9
-79207.5
-78544.2
-77927
-77312.2
-76721.6
-76142.9
-75581.6
-75034.1
-74501.3
-73982
-73476.1
-72982.9
-72502.2
-72033.3
-71576.1
-71129.9
-70694.6
-70269.7
-69854.8
-69449.8
-69054.1
-68667.6
-68289.9
-67920.8
-67560
-67207.2
-66862.2
-66524.7
-66194.4
-65871.3
-65554.7
-65245.5
-64941.7
-64646.2
-64355.6
-64071.7
-63793
-63520.2
-63252.5
-62990.2
-62733
-62480.8
-62233.4
-61990.7
-61752.7
-61519
-61289.8
-61064.8
-60843.9
-60627
-60414
-60204.8
-59999.3
-59797.5
-59599.2
-59404.3
-59212.7
-59024.4
-58839.4
-58657.4
-58478.5
-58302.5
-58129.4
-57959.2
-57791.6
-57626.8
-57464.5
-57304.8
-57147.6
-56992.8
-56840.4
-56690.2
-56542.4
-56396.7
-56253.3
-56111.9
-55972.6
-55835.3
-55699.9
-55566.5
-55435
-55305.3
-55177.4
-55051.3
-54926.9
-54804.1
-54683.1
-54563.5
-54445.9
-54329
-54215.3
-54099.7
-53992.3
-53873.2
-53780.6
-53623.5
-83733.9
-82718.2
-82120.6
-81337.7
-80682
-79989.9
-79345.4
-78703.6
-78087
-77482.9
-76896.8
-76325.1
-75768.9
-75226.7
-74698.5
-74183.6
-73681.7
-73192.2
-72714.8
-72249
-71794.5
-71350.8
-70917.7
-70494.7
-70081.6
-69678.1
-69283.8
-68898.4
-68521.7
-68153.3
-67793.1
-67440.7
-67095.9
-66758.6
-66428.1
-66105.1
-65788.2
-65479.6
-65176.1
-64879.6
-64588.6
-64303.6
-64024.1
-63750.2
-63481.6
-63218.2
-62959.9
-62706.5
-62457.9
-62214
-61974.6
-61739.7
-61509
-61282.5
-61060.2
-60841.8
-60627.2
-60416.4
-60209.3
-60005.8
-59805.8
-59609.2
-59415.9
-59226
-59039.1
-58855.4
-58674.7
-58497
-58322.1
-58150
-57980.6
-57813.8
-57649.7
-57488.1
-57328.9
-57172.2
-57017.8
-56865.8
-56716
-56568.4
-56422.9
-56279.6
-56138.3
-55999
-55861.7
-55726.3
-55592.8
-55461.1
-55331.3
-55203.1
-55076.8
-54951.9
-54829.2
-54707.2
-54588.5
-54467.9
-54355.6
-54231.7
-54134.4
-53972.7
-85325.5
-84270.9
-83646.4
-82831.6
-82148
-81427.2
-80755.5
-80086.9
-79444.4
-78815
-78204.4
-77608.7
-77029.1
-76464.2
-75913.9
-75377.4
-74854.4
-74344.3
-73846.9
-73361.5
-72887.9
-72425.6
-71974.3
-71533.6
-71103.2
-70682.7
-70271.8
-69870.3
-69477.8
-69094
-68718.6
-68351.4
-67991.9
-67640.3
-67294.8
-66958.7
-66624.2
-66306.8
-65990.2
-65682.4
-65379.2
-65082.4
-64791.2
-64505.8
-64225.8
-63951.4
-63682.2
-63418.1
-63159.1
-62904.9
-62655.5
-62410.6
-62170.3
-61934.3
-61702.6
-61475
-61251.4
-61031.8
-60816
-60603.9
-60395.5
-60190.6
-59989.2
-59791.3
-59596.6
-59405.2
-59216.9
-59031.7
-58849.5
-58670.1
-58493.6
-58319.9
-58148.9
-57980.5
-57814.6
-57651.3
-57490.5
-57332.1
-57176
-57022.2
-56870.6
-56721.3
-56574.1
-56429
-56285.9
-56144.9
-56005.8
-55868.6
-55733.3
-55599.8
-55468.2
-55338.1
-55210.3
-55083.1
-54959.5
-54833.9
-54716.7
-54588
-54486
-54319.8
-86907.3
-85814.1
-85162.8
-84316.5
-83605.1
-82855.7
-82157
-81461.8
-80793.5
-80138.9
-79503.9
-78884.4
-78281.7
-77694.1
-77121.8
-76563.8
-76019.9
-75489.4
-74972.1
-74467.3
-73974.7
-73493.9
-73024.5
-72566.2
-72118.5
-71681.2
-71253.9
-70836.3
-70428
-70028.9
-69638.6
-69256.7
-68883.1
-68517.3
-68159.2
-67808.6
-67464.5
-67132
-66802.6
-66481.4
-66165.8
-65856.8
-65553.8
-65256.8
-64965.6
-64680.1
-64400.1
-64125.4
-63856
-63591.6
-63332.1
-63077.5
-62827.5
-62582.1
-62341.1
-62104.4
-61871.9
-61643.4
-61418.9
-61198.3
-60981.3
-60768.3
-60558.5
-60352.9
-60150.4
-59951.5
-59755.7
-59563.1
-59373.6
-59187.1
-59003.6
-58822.9
-58645
-58469.9
-58297.4
-58127.6
-57960.3
-57795.5
-57633.2
-57473.3
-57315.6
-57160.3
-57007.2
-56856.3
-56707.5
-56560.9
-56416.2
-56273.5
-56132.9
-55994
-55857.2
-55722
-55589
-55456.8
-55328.2
-55197.7
-55075.7
-54942.2
-54835.5
-54664.8
-88479
-87347.4
-86669.6
-85791.8
-85052.8
-84275
-83549.6
-82827.9
-82134
-81454.4
-80795.1
-80152
-79526.2
-78916.2
-78322
-77742.7
-77177.9
-76627.2
-76090
-75566
-75054.5
-74555.4
-74068
-73592.1
-73127.3
-72673.3
-72229.6
-71796.1
-71372.3
-70957.9
-70552.8
-70156.3
-69768.6
-69388.7
-69014.5
-68651.4
-68266.2
-67948.1
-67605.7
-67274.5
-66947
-66626.1
-66311.5
-66003
-65700.6
-65404.1
-65113.4
-64828.2
-64548.4
-64273.9
-64004.5
-63740.1
-63480.6
-63225.8
-62975.6
-62729.8
-62488.4
-62251.2
-62018.1
-61789.1
-61563.9
-61342.7
-61124.8
-60911.2
-60701
-60494.4
-60291.2
-60091.3
-59894.5
-59700.9
-59510.3
-59322.7
-59138
-58956.2
-58777.1
-58600.8
-58427.1
-58256
-58087.5
-57921.4
-57757.8
-57596.5
-57437.6
-57280.9
-57126.5
-56974.2
-56824
-56675.9
-56529.9
-56385.8
-56243.7
-56103.3
-55965.3
-55828.1
-55694.5
-55559.2
-55432.3
-55294.1
-55182.7
-55007.5
-90040.2
-88870.5
-88166.2
-87257.3
-86490.8
-85684.9
-84932.8
-84184.8
-83465.6
-82761.2
-82077.8
-81411.1
-80762.4
-80130.1
-79514.1
-78913.6
-78328.3
-77757.4
-77200.6
-76657.3
-76127.2
-75609.7
-75104.5
-74611.2
-74129.4
-73658.8
-73198.9
-72749.4
-72310.1
-71880.6
-71460.8
-71049.8
-70648.5
-70254.2
-69871.2
-69488
-69126.6
-68769.6
-68411.6
-68064.1
-67723.8
-67390.5
-67064.1
-66744.2
-66430.7
-66123.3
-65821.9
-65526.2
-65236.2
-64951.7
-64672.4
-64398.3
-64129.3
-63865.2
-63605.8
-63351.1
-63100.8
-62854.9
-62613.2
-62375.7
-62141.6
-61912.4
-61684.8
-61465.2
-61247.2
-61033.6
-60823
-60615.8
-60411.9
-60211.2
-60013.7
-59819.2
-59627.7
-59439.2
-59253.6
-59070.8
-58890.8
-58713.4
-58538.7
-58366.6
-58197
-58029.8
-57865.1
-57702.7
-57542.6
-57384.8
-57229.1
-57075.6
-56924.2
-56774.8
-56627.6
-56482.1
-56339
-56196.8
-56058.4
-55918.2
-55786.5
-55643.6
-55527.5
-55348
-91590.5
-90383
-89652.5
-88712.6
-87918.9
-87084.9
-86306.4
-85532.3
-84787.9
-84058.8
-83351.4
-82661.4
-81990
-81335.6
-80698
-80076.5
-79470.6
-78879.7
-78303.4
-77741.1
-77192.4
-76656.8
-76133.9
-75623.2
-75124.5
-74637.4
-74161.4
-73696.2
-73241.6
-72797.1
-72363
-71938
-71525.2
-71117.4
-70736
-70333.4
-69870.9
-69577.3
-69224
-68848.1
-68497.5
-68149.7
-67812
-67480.3
-67155.8
-66837.5
-66525.5
-66219.4
-65919.2
-65624.7
-65335.6
-65052
-64773.5
-64500.1
-64231.7
-63968
-63709.1
-63454.7
-63204.6
-62959
-62717
-62480.1
-62244.9
-62015.9
-61790.9
-61569.2
-61351.4
-61136.8
-60925.8
-60718
-60513.5
-60312.2
-60114
-59918.9
-59726.8
-59537.6
-59351.2
-59167.7
-58986.8
-58808.7
-58633.1
-58460.1
-58289.6
-58121.5
-57955.8
-57792.4
-57631.4
-57472.5
-57315.8
-57161.2
-57008.8
-56858.2
-56710.1
-56563
-56419.7
-56274.7
-56138.3
-55990.6
-55869.9
-55686.2
-93129.6
-91884.6
-91128
-90157.4
-89336.6
-88474.9
-87670.1
-86870
-86100.5
-85347
-84615.9
-83902.7
-83208.7
-82532.3
-81873.3
-81230.9
-80604.6
-79993.8
-79398.2
-78816.9
-78249.8
-77696.2
-77155.7
-76627.9
-76112.4
-75608.8
-75116.8
-74635.9
-74165.9
-73706.4
-73257.3
-72817.9
-72388.5
-71968.5
-71557.5
-71159.2
-70759.6
-70364.9
-69993.3
-69620.4
-69258.2
-68901.5
-68552.8
-68210.5
-67875.2
-67546.3
-67223.8
-66907.5
-66597.2
-66292.8
-65994.1
-65700.9
-65413
-65130.5
-64853.1
-64580.6
-64313
-64050
-63791.7
-63537.3
-63286.3
-63040.5
-62784.1
-62561.6
-62329.3
-62101.2
-61876.4
-61654.4
-61436.3
-61221.3
-61009.9
-60801.7
-60596.8
-60395.1
-60196.5
-60000.9
-59808.3
-59618.6
-59431.7
-59247.5
-59066.1
-58887.3
-58711
-58537.3
-58366
-58197.2
-58030.7
-57866.5
-57704.5
-57544.7
-57387.2
-57231.6
-57078.5
-56926.5
-56778.3
-56628.5
-56487.4
-56335.1
-56209.8
-56021.8
-94657.1
-93374.8
-92592.4
-91591.2
-90743.5
-89854.3
-89023.4
-88197.6
-87403.3
-86625.5
-85870.7
-85134.5
-84418.2
-83719.9
-83039.7
-82376.5
-81730
-81099.6
-80484.7
-79884.7
-79299.3
-78727.8
-78169.8
-77624.9
-77092.8
-76572.9
-76065
-75568.6
-75083.4
-74609
-74145.1
-73691.4
-73247.3
-72812.8
-72384.6
-71969.4
-71531.7
-71161.9
-70770.7
-70390.7
-70016.2
-69648.7
-69288.6
-68935.4
-68589.3
-68249.8
-67916.9
-67590.4
-67270.1
-66955.9
-66647.5
-66344.8
-66047.7
-65756
-65469.6
-65188.4
-64912.2
-64640.9
-64374.5
-64113
-63855.4
-63605.8
-63350.6
-63101.4
-62866.5
-62628.6
-62397
-62167.6
-61942.5
-61720.5
-61502.3
-61287.4
-61075.9
-60867.7
-60662.7
-60460.8
-60261.9
-60066.1
-59873.1
-59683
-59495.7
-59311.2
-59129.2
-58949.9
-58773.1
-58598.8
-58426.9
-58257.4
-58090.3
-57925.3
-57762.8
-57602.1
-57444.1
-57287.2
-57134.2
-56979.7
-56833.9
-56677
-56547
-56354.9
-96172.6
-94853.3
-94045.2
-93013.8
-92139.5
-91222.8
-90366.2
-89514.8
-88695.8
-87893.9
-87115.8
-86356.7
-85618.1
-84898.2
-84196.9
-83513.1
-82846.6
-82196.6
-81562.7
-80944.1
-80340.5
-79751.2
-79176
-78614.1
-78065.5
-77529.4
-77005.7
-76493.8
-75993.5
-75504.3
-75026
-74558.1
-74100.3
-73652.6
-73213.3
-72785.1
-72361.5
-71951.3
-71549.1
-71154.8
-70768.5
-70389.7
-70018.5
-69654.5
-69297.7
-68947.7
-68604.6
-68267.9
-67937.7
-67613.7
-67295.7
-66983.7
-66677.4
-66376.7
-66081.5
-65791.6
-65507.5
-65227.6
-64956
-64683.9
-64434
-64156.5
-63873.2
-63647.3
-63415.7
-63155.9
-62917.8
-62678.2
-62445.9
-62216.3
-61991.2
-61769.4
-61551.3
-61336.6
-61125.2
-60917
-60712
-60510
-60311.1
-60115.1
-59922
-59731.7
-59544.1
-59359.2
-59177
-58997.3
-58820.1
-58645.3
-58473
-58302.9
-58135.3
-57969.7
-57806.8
-57645.1
-57487.3
-57328
-57177.6
-57016.1
-56881.5
-56685.4
-97675.8
-96319.7
-95486.2
-94424.8
-93524
-92580.3
-91697.9
-90821.2
-89977.8
-89152
-88350.6
-87569
-86808.3
-86066.9
-85344.6
-84640.5
-83954.1
-83284.7
-82631.9
-81994.9
-81373.6
-80766.4
-80174
-79595.3
-79030.2
-78478.1
-77938.7
-77411.5
-76896.2
-76392.4
-75899.6
-75417.6
-74945.8
-74484.3
-74031.1
-73589.8
-73151.8
-72733
-72317.6
-71912.7
-71514.7
-71124.9
-70742.6
-70367.8
-70000.3
-69640
-69286.6
-68939.9
-68599.8
-68266.1
-67938.7
-67617.2
-67301.8
-66992
-66687.9
-66389.1
-66095.9
-65807.4
-65524.5
-65245
-64972.6
-64698.3
-64438
-64183.9
-63925.1
-63673.6
-63425.9
-63182.3
-62942.9
-62707.2
-62475.4
-62247.2
-62022.6
-61801.5
-61583.8
-61369.4
-61158.3
-60950.4
-60745.5
-60543.7
-60344.8
-60148.8
-59955.6
-59765.2
-59577.5
-59392.4
-59210
-59030
-58852.5
-58677.4
-58504.8
-58334.2
-58166.4
-57999.9
-57837.4
-57673.5
-57518.4
-57352.4
-57213.3
-57013.1
-99166.2
-97773.8
-96915
-95823.8
-94896.9
-93926.2
-93018.4
-92116.6
-91248.9
-90399.4
-89575
-88770.9
-87988.4
-87225.7
-86482.6
-85758.3
-85052.1
-84363.5
-83691.9
-83036.5
-82397.4
-81772.9
-81163.4
-80568.1
-79986.7
-79418.7
-78863.8
-78321.5
-77791.3
-77273
-76766
-76270.2
-75785
-75310.4
-74845.3
-74390.8
-73944.6
-73509.4
-73082.5
-72664.8
-72255.3
-71854
-71460.7
-71075.1
-70697.1
-70326.4
-69962.8
-69606.2
-69256.3
-68913
-68576.1
-68245.5
-67920.9
-67602.3
-67289.4
-66982.1
-66680.3
-66383.6
-66092.3
-65805.3
-65522.6
-65245.1
-64958.5
-64706.4
-64444
-64186.9
-63933
-63682.7
-63436.6
-63194.2
-62955.8
-62721
-62490
-62262.5
-62038.6
-61818
-61600.8
-61386.9
-61176.2
-60968.5
-60763.9
-60562.3
-60363.6
-60167.7
-59974.6
-59784.2
-59596.5
-59411.4
-59228.8
-59048.7
-58871.1
-58695.7
-58523
-58351.8
-58184.5
-58016
-57856.3
-57685.9
-57542.2
-57338
-100644
-99215.1
-98331.3
-97210.5
-96257.6
-95260.3
-94327.3
-93400.6
-92508.9
-91635.9
-90788.7