# Time Dx Dy Dz magD
1 0 -3.413698875580154e-07 3.806866216626533e-23 3.413698875580154e-07
