# Time dispX dispY dispZ forceX forceY forceZ
0 0 0 0 0 0 0
1 1.066801354198642e-06 -8.206855269935469e-08 1.551138654303322e-23 100000.0000023281 -0.002835410330055072 9.939020332771621e-18
