/*--------------------------------*- C++ -*----------------------------------*\
| =========                 |                                                 |
| \\      /  F ield         | foam-extend: Open Source CFD                    |
|  \\    /   O peration     | Version:     4.1                                |
|   \\  /    A nd           | Web:         http://www.foam-extend.org         |
|    \\/     M anipulation  |                                                 |
\*---------------------------------------------------------------------------*/
FoamFile
{
    version     2.0;
    format      ascii;
    class       volSymmTensorField;
    location    "5";
    object      epsilon;
}
// * * * * * * * * * * * * * * * * * * * * * * * * * * * * * * * * * * * * * //

dimensions      [0 0 0 0 0 0 0];

internalField   nonuniform List<symmTensor> 
1000
(
(1.63027e-06 -1.761e-06 -8.73182e-22 8.8383e-09 -1.65786e-21 -3.44036e-36)
(2.54609e-06 -1.3672e-06 4.93662e-21 -9.77012e-07 1.068e-21 0)
(2.98184e-06 -1.08519e-06 -5.36623e-21 -1.43113e-06 -3.82792e-21 0)
(3.2378e-06 -8.86267e-07 -2.05737e-21 -1.72028e-06 -4.7333e-22 0)
(3.36235e-06 -7.34901e-07 -3.45333e-22 -1.86146e-06 9.21481e-23 0)
(3.41513e-06 -6.21234e-07 2.16622e-21 -1.93315e-06 1.38127e-21 0)
(3.42423e-06 -5.3092e-07 -3.87773e-21 -1.95434e-06 -2.17856e-21 0)
(3.40479e-06 -4.60739e-07 8.49791e-22 -1.94747e-06 5.09846e-22 0)
(3.3759e-06 -4.01526e-07 -1.55237e-21 -1.92454e-06 -9.12788e-22 0)
(3.32524e-06 -3.50781e-07 -1.91628e-21 -1.89129e-06 -1.20668e-21 0)
(2.23282e-06 -2.11623e-06 2.45121e-21 -1.26499e-07 -1.43548e-21 9.47332e-37)
(2.97562e-06 -1.4556e-06 -4.9571e-21 -1.0288e-06 -1.31212e-21 0)
(3.30333e-06 -1.02803e-06 -4.58331e-21 -1.42971e-06 -1.22867e-21 0)
(3.4818e-06 -7.4592e-07 -3.57169e-21 -1.69252e-06 -2.45966e-21 0)
(3.55264e-06 -5.48885e-07 -7.81276e-22 -1.81734e-06 -6.96414e-22 0)
(3.56597e-06 -4.12504e-07 3.10647e-21 -1.88254e-06 1.82641e-21 0)
(3.54544e-06 -3.12726e-07 -3.63405e-21 -1.90049e-06 -2.48316e-21 0)
(3.5046e-06 -2.42349e-07 1.47382e-21 -1.89564e-06 1.2471e-21 0)
(3.45348e-06 -1.87072e-07 -2.74499e-21 -1.87001e-06 -2.12874e-21 0)
(3.39459e-06 -1.4764e-07 -1.01505e-21 -1.84743e-06 -1.13507e-21 0)
(2.93312e-06 -2.37515e-06 3.02701e-21 -3.77141e-07 1.8477e-22 -5.80405e-37)
(3.4264e-06 -1.49469e-06 -3.87159e-21 -1.11597e-06 -1.68898e-21 0)
(3.60431e-06 -9.49074e-07 3.54964e-21 -1.41977e-06 1.59955e-21 0)
(3.68164e-06 -6.00589e-07 -3.20394e-21 -1.63056e-06 -1.53943e-21 0)
(3.68581e-06 -3.68351e-07 -7.82591e-22 -1.72445e-06 -5.91848e-22 0)
(3.65292e-06 -2.15554e-07 -2.98831e-21 -1.77505e-06 -1.74813e-21 0)
(3.60006e-06 -1.10246e-07 5.50438e-27 -1.78564e-06 -1.48854e-26 0)
(3.53606e-06 -4.09756e-08 -1.02858e-23 -1.78042e-06 1.36476e-23 0)
(3.46675e-06 9.07266e-09 -2.11486e-22 -1.75459e-06 -1.00331e-21 0)
(3.39494e-06 4.54844e-08 3.2828e-22 -1.73822e-06 -2.48894e-22 0)
(3.69611e-06 -2.50704e-06 1.04606e-20 -7.19002e-07 -2.08378e-21 2.24849e-35)
(3.88183e-06 -1.47598e-06 2.22337e-21 -1.23094e-06 1.65758e-21 0)
(3.87872e-06 -8.52041e-07 1.66996e-21 -1.40318e-06 1.5474e-21 0)
(3.83785e-06 -4.60895e-07 9.69639e-22 -1.54186e-06 6.75211e-22 0)
(3.76638e-06 -2.07637e-07 7.0052e-21 -1.59379e-06 4.19314e-21 0)
(3.68346e-06 -4.62994e-08 -5.2706e-23 -1.62398e-06 -1.21102e-22 0)
(3.59705e-06 6.01332e-08 -2.50919e-23 -1.62485e-06 1.18132e-22 0)
(3.51103e-06 1.26893e-07 -6.64085e-23 -1.61832e-06 1.17723e-22 0)
(3.42565e-06 1.71016e-07 1.52552e-21 -1.59415e-06 7.57106e-22 0)
(3.34503e-06 2.03309e-07 -1.43434e-22 -1.58338e-06 -3.064e-22 0)
(4.47846e-06 -2.49092e-06 -7.89518e-21 -1.11897e-06 2.02519e-22 -2.38497e-43)
(4.32298e-06 -1.39447e-06 3.58351e-21 -1.36298e-06 1.4594e-21 0)
(4.12141e-06 -7.40604e-07 2.94606e-21 -1.38168e-06 1.43705e-21 0)
(3.95355e-06 -3.35512e-07 3.06575e-21 -1.4352e-06 1.58523e-21 0)
(3.80248e-06 -7.81714e-08 -1.84198e-21 -1.43809e-06 -9.76564e-22 0)
(3.66845e-06 8.22094e-08 2.63177e-21 -1.44402e-06 1.18784e-21 0)
(3.54935e-06 1.84619e-07 8.31891e-22 -1.43381e-06 5.02257e-22 0)
(3.44277e-06 2.46673e-07 -1.623e-21 -1.42545e-06 -5.98311e-22 0)
(3.34458e-06 2.84197e-07 3.7506e-21 -1.40465e-06 1.4511e-21 0)
(3.25697e-06 3.12042e-07 3.4971e-22 -1.39925e-06 -4.25795e-23 0)
(5.2321e-06 -2.31786e-06 -1.14536e-22 -1.53838e-06 -8.98199e-25 5.15225e-39)
(4.73009e-06 -1.24931e-06 -9.34977e-22 -1.49995e-06 -2.8317e-22 0)
(4.32851e-06 -6.18155e-07 4.62457e-21 -1.35797e-06 1.99716e-21 0)
(4.0344e-06 -2.30173e-07 1.21214e-21 -1.3218e-06 3.6164e-22 0)
(3.80526e-06 1.31249e-08 -1.72131e-21 -1.27337e-06 -6.78351e-22 0)
(3.62219e-06 1.62485e-07 -4.37116e-21 -1.25371e-06 -2.13494e-21 0)
(3.47266e-06 2.55547e-07 3.60077e-23 -1.23206e-06 -5.99537e-22 0)
(3.34774e-06 3.10522e-07 -2.31765e-22 -1.22152e-06 7.53132e-22 0)
(3.23928e-06 3.41005e-07 1.19208e-21 -1.20491e-06 9.15376e-22 0)
(3.14642e-06 3.64041e-07 3.05965e-21 -1.20423e-06 1.25494e-21 0)
(5.90812e-06 -1.99218e-06 2.97949e-21 -1.93654e-06 -3.87231e-22 -9.20733e-37)
(5.08368e-06 -1.0442e-06 -1.62359e-21 -1.62902e-06 2.30287e-22 0)
(4.49701e-06 -4.87808e-07 1.36208e-21 -1.33467e-06 1.0092e-21 0)
(4.0871e-06 -1.47568e-07 4.21416e-22 -1.21312e-06 -2.96613e-22 0)
(3.78707e-06 6.3904e-08 2.44601e-21 -1.11607e-06 4.58765e-22 0)
(3.56016e-06 1.92385e-07 -9.37769e-23 -1.07204e-06 -3.96118e-22 0)
(3.38408e-06 2.71001e-07 7.2946e-22 -1.03969e-06 1.18257e-21 0)
(3.24357e-06 3.16621e-07 2.54056e-21 -1.02694e-06 2.01384e-21 0)
(3.12733e-06 3.40001e-07 -1.21534e-21 -1.01475e-06 -6.07645e-22 0)
(3.03044e-06 3.58141e-07 3.49492e-22 -1.01792e-06 -6.46846e-22 0)
(6.46103e-06 -1.53125e-06 0 -2.27485e-06 0 0)
(5.36631e-06 -7.87047e-07 7.84509e-21 -1.7382e-06 2.37648e-21 0)
(4.62506e-06 -3.52048e-07 -8.27508e-21 -1.31454e-06 -2.26711e-21 0)
(4.11902e-06 -8.69328e-08 -3.13828e-22 -1.12032e-06 -5.1833e-22 0)
(3.76053e-06 7.6874e-08 -7.8837e-22 -9.82014e-07 8.22343e-23 0)
(3.49782e-06 1.75712e-07 4.09596e-21 -9.17219e-07 1.53391e-21 0)
(3.30046e-06 2.35421e-07 1.44071e-21 -8.75849e-07 5.54652e-22 0)
(3.14766e-06 2.69658e-07 -1.9868e-21 -8.61105e-07 -3.6971e-22 0)
(3.02586e-06 2.861e-07 8.41107e-23 -8.52939e-07 -3.54297e-22 0)
(2.92604e-06 2.99219e-07 -9.49919e-22 -8.58988e-07 -7.78286e-22 0)
(6.85258e-06 -9.64385e-07 5.36261e-21 -2.52051e-06 5.45705e-22 2.47512e-36)
(5.56328e-06 -4.89851e-07 -4.40627e-22 -1.81734e-06 -8.82962e-22 0)
(4.71094e-06 -2.12983e-07 -2.75466e-21 -1.29982e-06 -5.50221e-22 0)
(4.13609e-06 -4.45245e-08 2.29781e-21 -1.05279e-06 7.30372e-22 0)
(3.73593e-06 5.91954e-08 -9.23533e-22 -8.8453e-07 -2.11578e-22 0)
(3.44788e-06 1.21529e-07 -2.35844e-21 -8.04636e-07 -3.38594e-22 0)
(3.23564e-06 1.58886e-07 1.52094e-24 -7.56764e-07 -5.57969e-22 0)
(3.07435e-06 1.80154e-07 -2.77972e-23 -7.40527e-07 3.33675e-22 0)
(2.94902e-06 1.89925e-07 -2.51678e-23 -7.35421e-07 1.82099e-22 0)
(2.84728e-06 1.97899e-07 -9.67009e-22 -7.43421e-07 -6.11639e-22 0)
(7.05481e-06 -3.29568e-07 -4.50963e-21 -2.64875e-06 8.0267e-22 1.47191e-36)
(5.66396e-06 -1.6666e-07 -3.66038e-21 -1.85723e-06 -1.23e-21 0)
(4.75338e-06 -7.15468e-08 2.80052e-21 -1.28948e-06 8.97837e-22 0)
(4.14248e-06 -1.36671e-08 -4.37552e-21 -1.01416e-06 -5.66341e-22 0)
(3.72051e-06 2.19346e-08 1.76591e-21 -8.29831e-07 -5.49308e-22 0)
(3.41927e-06 4.33067e-08 -7.73784e-22 -7.41847e-07 1.18082e-22 0)
(3.19933e-06 5.60755e-08 -1.52319e-25 -6.90515e-07 5.67364e-22 0)
(3.0337e-06 6.33294e-08 -6.24088e-22 -6.73511e-07 3.37197e-22 0)
(2.90666e-06 6.65987e-08 -2.18882e-21 -6.70097e-07 -9.17464e-22 0)
(2.80406e-06 6.92985e-08 1.08423e-21 -6.79237e-07 8.05464e-23 0)
(9.56881e-07 8.65635e-08 -6.20359e-22 -2.58299e-06 2.80822e-21 -3.53106e-36)
(6.39912e-07 -3.86991e-08 9.22429e-22 -1.70807e-06 1.32055e-21 0)
(4.88644e-07 -1.02546e-07 1.21762e-23 -1.19037e-06 -5.94888e-22 0)
(5.16695e-07 -1.36679e-07 -4.89012e-23 -8.93532e-07 4.21772e-22 0)
(5.90108e-07 -1.52599e-07 -5.55422e-22 -7.22351e-07 -3.83426e-22 0)
(7.05197e-07 -1.58192e-07 7.3528e-22 -6.2645e-07 3.03376e-22 0)
(8.25397e-07 -1.57778e-07 1.0304e-22 -5.75706e-07 1.23428e-22 0)
(9.50172e-07 -1.54155e-07 -1.36174e-22 -5.51499e-07 2.25839e-22 0)
(1.06694e-06 -1.47997e-07 7.32341e-22 -5.43828e-07 1.97945e-22 0)
(1.17854e-06 -1.4351e-07 -6.8013e-23 -5.41619e-07 -9.78816e-23 0)
(9.05991e-07 2.40731e-07 3.42995e-23 -2.45618e-06 1.22739e-22 -2.0445e-38)
(6.65465e-07 -1.21422e-07 -1.62209e-21 -1.67119e-06 -2.3221e-21 0)
(5.55252e-07 -3.05005e-07 1.23651e-21 -1.20241e-06 1.21879e-21 0)
(6.03951e-07 -4.02498e-07 8.97711e-22 -9.34235e-07 6.49793e-22 0)
(6.87096e-07 -4.47565e-07 -2.28599e-22 -7.78713e-07 -2.97611e-22 0)
(8.05036e-07 -4.62899e-07 -2.44736e-21 -6.90991e-07 -9.03606e-22 0)
(9.24268e-07 -4.6103e-07 -4.03935e-23 -6.43714e-07 -3.41691e-25 0)
(1.04613e-06 -4.49944e-07 -4.13137e-22 -6.20354e-07 -2.51333e-22 0)
(1.1579e-06 -4.31693e-07 2.59171e-22 -6.11282e-07 -1.25937e-23 0)
(1.26601e-06 -4.1828e-07 6.43144e-22 -6.07703e-07 -5.2786e-23 0)
(8.0982e-07 3.43724e-07 -5.02511e-22 -2.21221e-06 -2.32611e-21 -1.41139e-36)
(7.12981e-07 -2.15337e-07 -1.23684e-21 -1.59964e-06 -1.08791e-21 0)
(6.77314e-07 -4.97086e-07 1.92542e-21 -1.22307e-06 5.04206e-22 0)
(7.63817e-07 -6.45526e-07 4.16089e-22 -1.00905e-06 4.68264e-22 0)
(8.64415e-07 -7.13106e-07 1.12743e-21 -8.8297e-07 5.29432e-22 0)
(9.8733e-07 -7.34862e-07 -1.0984e-21 -8.10693e-07 -5.49281e-22 0)
(1.10454e-06 -7.30294e-07 -1.78023e-21 -7.69991e-07 -5.11555e-22 0)
(1.22085e-06 -7.11508e-07 -6.06471e-22 -7.48286e-07 -1.37213e-22 0)
(1.32324e-06 -6.82104e-07 3.06241e-23 -7.36675e-07 -2.56239e-24 0)
(1.42499e-06 -6.60074e-07 8.74432e-22 -7.30695e-07 3.91011e-22 0)
(6.91547e-07 3.69541e-07 -1.80523e-21 -1.87624e-06 -2.56072e-23 8.34363e-36)
(7.90006e-07 -3.24327e-07 8.17671e-22 -1.50121e-06 -1.11998e-21 0)
(8.55029e-07 -6.71007e-07 -4.88524e-21 -1.25125e-06 -3.74403e-21 0)
(9.92071e-07 -8.51727e-07 -1.10373e-21 -1.11175e-06 7.23974e-23 0)
(1.11554e-06 -9.31783e-07 -6.70058e-23 -1.02612e-06 1.43941e-22 0)
(1.24435e-06 -9.55039e-07 1.44998e-21 -9.75111e-07 6.52462e-22 0)
(1.35807e-06 -9.45963e-07 -4.0024e-22 -9.4352e-07 -2.14833e-24 0)
(1.46607e-06 -9.19211e-07 1.2148e-21 -9.24086e-07 8.17465e-22 0)
(1.55521e-06 -8.80163e-07 -2.15658e-21 -9.09169e-07 -4.1515e-22 0)
(1.6476e-06 -8.50097e-07 1.94024e-21 -8.99778e-07 2.95763e-22 0)
(5.7876e-07 2.99335e-07 4.87827e-22 -1.48197e-06 -1.7732e-21 -3.65739e-37)
(9.01825e-07 -4.51366e-07 4.07539e-21 -1.38613e-06 3.75644e-21 0)
(1.08194e-06 -8.21182e-07 -3.88135e-21 -1.28482e-06 -2.60175e-21 0)
(1.27567e-06 -1.01064e-06 -1.8151e-21 -1.23302e-06 -9.82834e-22 0)
(1.42396e-06 -1.0906e-06 1.60091e-21 -1.19495e-06 6.75986e-22 0)
(1.55795e-06 -1.10925e-06 2.14738e-21 -1.16899e-06 8.82391e-22 0)
(1.66628e-06 -1.09345e-06 1.22099e-21 -1.1482e-06 7.91662e-22 0)
(1.76319e-06 -1.05854e-06 2.15616e-21 -1.13141e-06 6.57361e-22 0)
(1.83612e-06 -1.01173e-06 -4.77906e-22 -1.11285e-06 -5.27502e-22 0)
(1.91622e-06 -9.74527e-07 -2.94301e-21 -1.0992e-06 -2.93742e-22 0)
(5.03216e-07 1.25534e-07 -4.76877e-23 -1.06831e-06 1.16873e-22 -7.78977e-40)
(1.05422e-06 -5.96245e-07 2.56189e-21 -1.26583e-06 1.28414e-21 0)
(1.3499e-06 -9.43274e-07 2.07925e-21 -1.32027e-06 1.87198e-21 0)
(1.59874e-06 -1.11566e-06 -1.0204e-21 -1.36081e-06 -6.84909e-22 0)
(1.76975e-06 -1.18177e-06 -1.87054e-21 -1.37272e-06 -8.26605e-22 0)
(1.90631e-06 -1.18921e-06 -1.18033e-21 -1.37321e-06 -4.71393e-22 0)
(2.00681e-06 -1.16433e-06 1.90417e-21 -1.36397e-06 9.7183e-22 0)
(2.08994e-06 -1.1212e-06 -2.28124e-21 -1.34996e-06 -1.22462e-21 0)
(2.14468e-06 -1.0686e-06 3.78929e-21 -1.32809e-06 1.15165e-21 0)
(2.20983e-06 -1.02545e-06 1.2931e-22 -1.30962e-06 -5.23805e-22 0)
(4.97266e-07 -1.47364e-07 2.23257e-21 -6.76319e-07 -4.09411e-21 -2.39692e-37)
(1.25274e-06 -7.55615e-07 -7.0674e-21 -1.15281e-06 -3.87542e-21 0)
(1.65002e-06 -1.03458e-06 2.4142e-21 -1.3546e-06 1.62195e-21 0)
(1.94442e-06 -1.16452e-06 -2.20816e-22 -1.48313e-06 6.2713e-22 0)
(2.13187e-06 -1.20337e-06 1.04143e-21 -1.54249e-06 4.98539e-22 0)
(2.26648e-06 -1.19335e-06 -4.33744e-22 -1.56828e-06 -1.61321e-22 0)
(2.35623e-06 -1.15726e-06 -2.65648e-21 -1.57021e-06 -1.12295e-21 0)
(2.42306e-06 -1.1062e-06 1.53257e-21 -1.55899e-06 6.76838e-22 0)
(2.45876e-06 -1.04982e-06 -1.39399e-21 -1.53446e-06 -6.11767e-22 0)
(2.50666e-06 -1.00199e-06 2.90621e-21 -1.51134e-06 7.26492e-22 0)
(5.89859e-07 -5.02982e-07 -8.31743e-22 -3.44656e-07 1.1961e-21 3.56861e-38)
(1.50124e-06 -9.22814e-07 -2.30535e-21 -1.05877e-06 -2.7007e-21 0)
(1.97255e-06 -1.09379e-06 -3.3895e-21 -1.38477e-06 -3.24392e-21 0)
(2.29539e-06 -1.15899e-06 1.25887e-21 -1.58836e-06 6.16434e-22 0)
(2.48894e-06 -1.15894e-06 3.35494e-21 -1.6879e-06 1.63974e-21 0)
(2.61515e-06 -1.12619e-06 3.05598e-21 -1.7353e-06 1.49099e-21 0)
(2.69064e-06 -1.07722e-06 -4.76168e-22 -1.74712e-06 9.07508e-23 0)
(2.7387e-06 -1.01888e-06 1.75359e-21 -1.73824e-06 7.43764e-22 0)
(2.75568e-06 -9.60481e-07 -1.72461e-21 -1.71299e-06 -1.23806e-21 0)
(2.7842e-06 -9.09147e-07 6.12456e-22 -1.68538e-06 5.92686e-22 0)
(8.0324e-07 -9.14455e-07 2.39815e-21 -1.06112e-07 3.2293e-21 -8.60705e-36)
(1.80146e-06 -1.08836e-06 3.31374e-21 -9.93876e-07 4.23564e-21 0)
(2.30826e-06 -1.12098e-06 3.52425e-21 -1.40855e-06 9.88624e-22 0)
(2.63651e-06 -1.10473e-06 5.11285e-22 -1.66704e-06 -5.31205e-22 0)
(2.82284e-06 -1.05727e-06 1.06537e-22 -1.79537e-06 -1.57344e-22 0)
(2.93311e-06 -9.98482e-07 -7.71672e-23 -1.85871e-06 -2.21497e-23 0)
(2.99064e-06 -9.35927e-07 2.78825e-21 -1.87759e-06 1.47383e-21 0)
(3.01794e-06 -8.7221e-07 -3.72318e-21 -1.87115e-06 -2.41297e-21 0)
(3.01746e-06 -8.13572e-07 3.44078e-21 -1.84589e-06 1.4243e-21 0)
(3.02542e-06 -7.60533e-07 3.70328e-22 -1.81802e-06 1.96222e-22 0)
(1.14976e-06 -1.347e-06 3.59424e-21 1.57782e-08 -6.00551e-21 -9.80505e-36)
(2.15145e-06 -1.24077e-06 3.52626e-21 -9.65331e-07 1.73862e-21 0)
(2.64733e-06 -1.1175e-06 4.71533e-21 -1.42419e-06 2.36908e-21 0)
(2.95354e-06 -1.01044e-06 2.26983e-21 -1.71201e-06 1.77829e-21 0)
(3.11664e-06 -9.11174e-07 -3.58527e-21 -1.85463e-06 -1.98962e-21 0)
(3.20177e-06 -8.24809e-07 -3.21721e-21 -1.92596e-06 -1.76523e-21 0)
(3.23611e-06 -7.48856e-07 8.4445e-23 -1.94821e-06 -5.01035e-23 0)
(3.23947e-06 -6.81153e-07 -1.69174e-21 -1.94143e-06 -9.69119e-22 0)
(3.22271e-06 -6.25279e-07 1.75901e-21 -1.91985e-06 1.61783e-21 0)
(3.20326e-06 -5.72401e-07 2.39556e-21 -1.88397e-06 5.47282e-22 0)
(1.28257e-06 -1.32585e-07 3.55709e-22 -5.53213e-07 -1.29793e-24 0)
(1.37415e-06 -1.18569e-07 6.61346e-22 -5.56654e-07 -1.99485e-22 0)
(1.4575e-06 -1.07406e-07 3.56322e-23 -5.62352e-07 -4.674e-25 0)
(1.53364e-06 -9.71165e-08 -5.64851e-22 -5.66384e-07 -3.04921e-22 0)
(1.60168e-06 -8.79499e-08 -2.25215e-21 -5.68004e-07 -1.04137e-22 0)
(1.66288e-06 -7.9832e-08 -3.42759e-22 -5.6699e-07 4.10913e-22 0)
(1.71724e-06 -7.25309e-08 1.99301e-21 -5.6254e-07 2.12361e-22 0)
(1.7653e-06 -6.60081e-08 -1.99947e-21 -5.54508e-07 -1.12016e-22 0)
(1.80728e-06 -6.00865e-08 1.77289e-22 -5.42397e-07 6.00355e-22 0)
(1.84343e-06 -5.46874e-08 1.09725e-21 -5.25929e-07 2.04036e-22 0)
(1.87384e-06 -4.9682e-08 1.86475e-22 -5.04654e-07 5.64953e-22 0)
(1.89859e-06 -4.49746e-08 2.17206e-21 -4.78137e-07 2.05443e-22 0)
(1.91744e-06 -4.04565e-08 1.99038e-21 -4.45807e-07 -3.89711e-22 0)
(1.93049e-06 -3.60195e-08 -2.16108e-21 -4.07015e-07 -1.89626e-22 0)
(1.93673e-06 -3.15577e-08 -3.20969e-21 -3.60937e-07 5.55748e-24 0)
(1.9369e-06 -2.69357e-08 1.69965e-21 -3.06626e-07 2.71602e-22 0)
(1.92781e-06 -2.2047e-08 -4.21657e-23 -2.4284e-07 -9.36287e-23 0)
(1.91333e-06 -1.66638e-08 1.18365e-21 -1.68259e-07 2.28445e-22 0)
(1.88283e-06 -1.08181e-08 9.90382e-22 -8.07796e-08 -9.67142e-24 0)
(1.85345e-06 -3.51994e-09 2.47111e-22 2.05727e-08 2.57052e-23 -2.72637e-37)
(1.36041e-06 -3.86453e-07 1.01116e-23 -6.1344e-07 1.1132e-23 0)
(1.43911e-06 -3.46282e-07 -9.54997e-22 -6.08463e-07 -1.06232e-22 0)
(1.51292e-06 -3.14151e-07 4.93696e-22 -6.07164e-07 1.10057e-22 0)
(1.58041e-06 -2.84546e-07 1.58329e-21 -6.05297e-07 5.40356e-22 0)
(1.64144e-06 -2.58057e-07 -9.25395e-22 -6.01753e-07 -3.48732e-24 0)
(1.69657e-06 -2.3458e-07 -1.35539e-21 -5.96445e-07 -4.40955e-22 0)
(1.74589e-06 -2.13394e-07 9.08991e-22 -5.88317e-07 4.35699e-22 0)
(1.78963e-06 -1.94434e-07 2.34678e-22 -5.77214e-07 2.12335e-22 0)
(1.82799e-06 -1.77178e-07 -2.10083e-21 -5.62523e-07 -6.56921e-22 0)
(1.86105e-06 -1.61413e-07 -1.25246e-21 -5.43917e-07 -2.30247e-22 0)
(1.88885e-06 -1.46765e-07 -2.78167e-23 -5.20892e-07 -7.83045e-25 0)
(1.91141e-06 -1.32961e-07 3.84142e-21 -4.92971e-07 3.21615e-22 0)
(1.92841e-06 -1.19685e-07 1.76911e-22 -4.59556e-07 1.75734e-22 0)
(1.93993e-06 -1.06622e-07 -8.96821e-22 -4.19978e-07 1.84894e-22 0)
(1.94495e-06 -9.34628e-08 -1.94905e-22 -3.73406e-07 -2.14845e-22 0)
(1.94415e-06 -7.98064e-08 -2.07839e-22 -3.18892e-07 -1.86237e-22 0)
(1.9344e-06 -6.53423e-08 -7.42477e-22 -2.5521e-07 1.66854e-22 0)
(1.91951e-06 -4.93928e-08 -5.37531e-22 -1.81063e-07 -4.89988e-23 0)
(1.88897e-06 -3.20635e-08 2.99204e-21 -9.44066e-08 4.09086e-22 0)
(1.8598e-06 -1.04322e-08 7.69584e-22 5.68601e-09 1.93472e-22 -2.54292e-36)
(1.5013e-06 -6.1097e-07 5.56761e-22 -7.25646e-07 -1.17967e-22 0)
(1.55665e-06 -5.5034e-07 1.20503e-21 -7.05295e-07 3.71823e-22 0)
(1.61304e-06 -5.00896e-07 -3.07948e-21 -6.90896e-07 -2.65591e-22 0)
(1.66485e-06 -4.55405e-07 3.32672e-22 -6.78141e-07 2.46588e-22 0)
(1.71321e-06 -4.14137e-07 1.69109e-21 -6.64977e-07 -9.56188e-23 0)
(1.75732e-06 -3.77489e-07 -2.60444e-21 -6.51683e-07 -1.60033e-22 0)
(1.79753e-06 -3.44145e-07 -1.38878e-21 -6.36701e-07 -2.55116e-22 0)
(1.83345e-06 -3.14201e-07 3.1356e-21 -6.19872e-07 2.02729e-22 0)
(1.86526e-06 -2.86804e-07 1.77661e-21 -6.00372e-07 -1.48649e-22 0)
(1.89274e-06 -2.61683e-07 -2.32252e-21 -5.77788e-07 -3.06001e-22 0)
(1.91585e-06 -2.38255e-07 -2.65921e-21 -5.51512e-07 -5.26534e-22 0)
(1.93444e-06 -2.16103e-07 1.05769e-21 -5.20999e-07 6.42642e-23 0)
(1.94815e-06 -1.94733e-07 1.82773e-21 -4.85599e-07 2.98378e-22 0)
(1.95697e-06 -1.73644e-07 6.34029e-23 -4.44608e-07 -3.00755e-22 0)
(1.95984e-06 -1.52341e-07 1.18672e-22 -3.97183e-07 7.82872e-23 0)
(1.95742e-06 -1.30175e-07 -2.6517e-21 -3.4238e-07 -2.91151e-22 0)
(1.94659e-06 -1.06647e-07 -1.30853e-21 -2.79003e-07 -3.95026e-23 0)
(1.93111e-06 -8.06475e-08 -4.84196e-22 -2.05796e-07 -2.07215e-22 0)
(1.9007e-06 -5.23585e-08 1.02848e-21 -1.20824e-07 1.78689e-22 0)
(1.87207e-06 -1.70546e-08 9.373e-22 -2.32157e-08 4.08821e-22 -4.0733e-36)
(1.6994e-06 -7.89341e-07 5.88197e-22 -8.80438e-07 1.93735e-22 0)
(1.72268e-06 -7.17283e-07 -5.38799e-22 -8.40377e-07 -7.62337e-24 0)
(1.7552e-06 -6.56182e-07 2.9849e-22 -8.08239e-07 -2.55295e-22 0)
(1.78513e-06 -6.00224e-07 -4.10543e-23 -7.80884e-07 -2.68944e-22 0)
(1.81584e-06 -5.48165e-07 2.1064e-22 -7.54579e-07 -1.21147e-22 0)
(1.84441e-06 -5.01788e-07 -7.46291e-22 -7.30303e-07 -1.48561e-22 0)
(1.87179e-06 -4.59025e-07 -9.35747e-22 -7.05837e-07 -2.78643e-22 0)
(1.89658e-06 -4.20397e-07 -4.39416e-22 -6.81014e-07 -2.52645e-22 0)
(1.91907e-06 -3.84772e-07 1.91287e-22 -6.54768e-07 1.22258e-22 0)
(1.93855e-06 -3.51913e-07 8.19324e-22 -6.26559e-07 4.75966e-22 0)
(1.95492e-06 -3.21089e-07 -1.42797e-21 -5.95661e-07 -3.03895e-22 0)
(1.9678e-06 -2.91791e-07 9.12433e-22 -5.61437e-07 2.63587e-22 0)
(1.97676e-06 -2.63391e-07 2.14197e-21 -5.23177e-07 2.07718e-22 0)
(1.98165e-06 -2.35234e-07 -8.65657e-22 -4.80138e-07 -2.50131e-22 0)
(1.9814e-06 -2.06674e-07 -1.98088e-21 -4.31468e-07 -1.90003e-22 0)
(1.9766e-06 -1.76838e-07 -1.23964e-21 -3.76236e-07 -2.39465e-22 0)
(1.9642e-06 -1.4506e-07 8.7913e-22 -3.13297e-07 -4.5671e-23 0)
(1.94785e-06 -1.09824e-07 1.06105e-21 -2.41461e-07 2.14086e-22 0)
(1.91765e-06 -7.13743e-08 2.88496e-22 -1.58955e-07 4.59458e-23 0)
(1.8898e-06 -2.33232e-08 -6.46119e-22 -6.49946e-08 -3.95609e-22 -2.06117e-36)
(1.93986e-06 -9.08941e-07 1.13173e-21 -1.06386e-06 -1.97265e-22 0)
(1.92577e-06 -8.36671e-07 5.36441e-22 -1.00308e-06 -7.08474e-22 0)
(1.93049e-06 -7.71018e-07 -1.21644e-21 -9.5049e-07 2.11642e-22 0)
(1.93415e-06 -7.11436e-07 -5.51743e-22 -9.06367e-07 -2.22145e-23 0)
(1.94373e-06 -6.53698e-07 1.91909e-21 -8.646e-07 2.29796e-22 0)
(1.95332e-06 -6.01937e-07 -1.0819e-21 -8.27175e-07 3.45376e-22 0)
(1.96498e-06 -5.53259e-07 -1.18335e-21 -7.91286e-07 -3.20434e-22 0)
(1.97605e-06 -5.0884e-07 9.77695e-22 -7.56714e-07 -1.86107e-22 0)
(1.98695e-06 -4.67406e-07 -4.72928e-22 -7.2222e-07 2.0142e-22 0)
(1.99647e-06 -4.28839e-07 -2.77945e-23 -6.87096e-07 2.21089e-22 0)
(2.00439e-06 -3.92368e-07 -1.05939e-21 -6.50512e-07 -9.77208e-23 0)
(2.0101e-06 -3.57446e-07 -1.22535e-21 -6.11716e-07 -6.11872e-22 0)
(2.01305e-06 -3.23373e-07 3.70745e-21 -5.6994e-07 4.50032e-22 0)
(2.01298e-06 -2.89384e-07 4.40749e-22 -5.24393e-07 2.16208e-22 0)
(2.00876e-06 -2.5472e-07 -7.32928e-22 -4.74222e-07 -1.83226e-22 0)
(2.00091e-06 -2.18315e-07 5.59432e-22 -4.18518e-07 1.04229e-22 0)
(1.98649e-06 -1.79368e-07 -2.43672e-21 -3.56211e-07 -5.95376e-22 0)
(1.96902e-06 -1.35996e-07 1.01163e-21 -2.86205e-07 3.08534e-22 0)
(1.93908e-06 -8.84961e-08 -4.66162e-22 -2.06947e-07 -1.30426e-22 0)
(1.91221e-06 -2.90308e-08 2.17556e-22 -1.17776e-07 7.07947e-23 3.32163e-40)
(2.2046e-06 -9.61964e-07 -5.27125e-22 -1.25872e-06 -6.78836e-22 0)
(2.15191e-06 -9.01487e-07 -8.19394e-22 -1.18038e-06 5.2143e-22 0)
(2.12796e-06 -8.3891e-07 -8.22513e-22 -1.10767e-06 2.51651e-22 0)
(2.10331e-06 -7.83213e-07 -6.19534e-22 -1.0469e-06 -6.62208e-22 0)
(2.0901e-06 -7.2569e-07 1.35759e-21 -9.89399e-07 9.92488e-22 0)
(2.07876e-06 -6.73498e-07 1.40989e-21 -9.38093e-07 2.54379e-22 0)
(2.0729e-06 -6.23091e-07 2.21777e-21 -8.90018e-07 1.64245e-22 0)
(2.0685e-06 -5.76324e-07 -2.80231e-21 -8.4477e-07 -4.94764e-22 0)
(2.06621e-06 -5.32027e-07 -1.85123e-21 -8.01112e-07 -3.91207e-23 0)
(2.0643e-06 -4.90219e-07 -2.02723e-22 -7.58159e-07 -4.89944e-22 0)
(2.06244e-06 -4.50226e-07 2.65577e-21 -7.15035e-07 2.9724e-22 0)
(2.0598e-06 -4.11511e-07 -5.07342e-22 -6.70898e-07 -4.65049e-22 0)
(2.0557e-06 -3.73382e-07 -1.57333e-21 -6.24949e-07 -2.26331e-22 0)
(2.04977e-06 -3.35012e-07 7.31422e-22 -5.76372e-07 3.55851e-22 0)
(2.04084e-06 -2.95581e-07 -1.03926e-21 -5.24337e-07 -1.9555e-22 0)
(2.02937e-06 -2.53879e-07 -5.54767e-22 -4.6798e-07 -1.21048e-22 0)
(2.01254e-06 -2.09001e-07 -2.20082e-22 -4.06343e-07 -8.9612e-23 0)
(1.99371e-06 -1.5875e-07 1.13695e-21 -3.38457e-07 3.00465e-22 0)
(1.9641e-06 -1.03466e-07 1.38385e-21 -2.63067e-07 4.56498e-22 0)
(1.93844e-06 -3.40985e-08 -1.08978e-21 -1.79701e-07 -7.39405e-22 -3.32908e-36)
(2.47484e-06 -9.47223e-07 -2.30823e-22 -1.44693e-06 2.15281e-22 0)
(2.3862e-06 -9.10426e-07 4.68269e-22 -1.3569e-06 2.60795e-22 0)
(2.33571e-06 -8.58589e-07 2.3997e-21 -1.26692e-06 3.03321e-22 0)
(2.28302e-06 -8.13888e-07 -3.81619e-21 -1.19075e-06 -7.66966e-22 0)
(2.24705e-06 -7.62673e-07 -2.64547e-22 -1.11861e-06 2.95213e-22 0)
(2.21432e-06 -7.14785e-07 2.5646e-22 -1.05354e-06 -2.80427e-22 0)
(2.19017e-06 -6.66822e-07 2.71246e-21 -9.93319e-07 8.62124e-22 0)
(2.16955e-06 -6.21028e-07 1.08477e-21 -9.37206e-07 1.1264e-22 0)
(2.15318e-06 -5.76744e-07 -1.49291e-21 -8.84179e-07 -6.92419e-22 0)
(2.13903e-06 -5.3412e-07 -6.55856e-22 -8.33195e-07 -3.27163e-22 0)
(2.1266e-06 -4.92733e-07 -1.06119e-21 -7.8336e-07 -1.39426e-22 0)
(2.11488e-06 -4.52107e-07 2.81004e-22 -7.3376e-07 1.45514e-22 0)
(2.10306e-06 -4.11624e-07 9.15979e-22 -6.83566e-07 4.31316e-22 0)
(2.09066e-06 -3.70444e-07 0 -6.31955e-07 0 0)
(2.07651e-06 -3.27725e-07 1.94162e-22 -5.78133e-07 -1.59486e-22 0)
(2.06097e-06 -2.82157e-07 1.06147e-21 -5.21306e-07 2.60453e-22 0)
(2.04142e-06 -2.32771e-07 -5.14782e-22 -4.60656e-07 -7.89086e-23 0)
(2.02102e-06 -1.77122e-07 -1.90862e-21 -3.95384e-07 -6.74087e-22 0)
(1.99178e-06 -1.15596e-07 1.61841e-21 -3.24568e-07 5.85071e-22 0)
(1.96742e-06 -3.82646e-08 -4.92155e-22 -2.47965e-07 -4.36233e-22 -9.65766e-37)
(2.7306e-06 -8.66714e-07 2.30139e-21 -1.61264e-06 2.86929e-22 0)
(2.61278e-06 -8.62859e-07 -1.83031e-21 -1.52019e-06 -3.99137e-22 0)
(2.54134e-06 -8.29185e-07 1.6552e-21 -1.42137e-06 7.93637e-22 0)
(2.46406e-06 -8.0133e-07 5.43191e-22 -1.33385e-06 2.46099e-22 0)
(2.40718e-06 -7.62967e-07 -4.23193e-21 -1.25103e-06 -1.56699e-21 0)
(2.35458e-06 -7.24307e-07 9.88515e-22 -1.17437e-06 4.44456e-22 0)
(2.31248e-06 -6.83516e-07 1.11385e-21 -1.1034e-06 1.41647e-22 0)
(2.27585e-06 -6.42568e-07 3.98707e-21 -1.03705e-06 1.09314e-21 0)
(2.24512e-06 -6.01648e-07 -1.04143e-21 -9.7473e-07 -1.38762e-22 0)
(2.21837e-06 -5.61009e-07 -2.90983e-22 -9.15446e-07 2.22179e-22 0)
(2.19486e-06 -5.2059e-07 2.82575e-22 -8.58403e-07 -1.99985e-22 0)
(2.17354e-06 -4.80063e-07 -2.79078e-22 -8.02743e-07 1.75079e-22 0)
(2.1535e-06 -4.38964e-07 3.23827e-22 -7.47682e-07 4.51912e-22 0)
(2.13417e-06 -3.9652e-07 3.7308e-21 -6.92451e-07 9.40905e-22 0)
(2.11438e-06 -3.51932e-07 -1.58857e-21 -6.36337e-07 -5.09875e-22 0)
(2.09443e-06 -3.0385e-07 -3.05342e-21 -5.7865e-07 -8.19602e-22 0)
(2.07193e-06 -2.51289e-07 2.50408e-21 -5.18755e-07 8.37159e-22 0)
(2.04982e-06 -1.91613e-07 4.87856e-22 -4.56056e-07 1.50731e-22 0)
(2.02101e-06 -1.25257e-07 -1.43883e-21 -3.90051e-07 -5.71999e-22 0)
(1.99819e-06 -4.16501e-08 4.29832e-22 -3.20827e-07 2.59048e-22 -5.08645e-39)
(2.95817e-06 -7.35426e-07 -2.12205e-21 -1.74056e-06 -8.37549e-22 0)
(2.81871e-06 -7.69135e-07 -7.51084e-22 -1.64902e-06 1.54181e-22 0)
(2.73236e-06 -7.61569e-07 6.75549e-22 -1.55056e-06 -1.70015e-22 0)
(2.63633e-06 -7.52591e-07 2.41545e-21 -1.45514e-06 4.74692e-22 0)
(2.56088e-06 -7.31396e-07 -1.69421e-21 -1.36509e-06 -3.16885e-22 0)
(2.49134e-06 -7.04545e-07 -1.26642e-21 -1.27949e-06 1.24361e-22 0)
(2.43279e-06 -6.735e-07 0 -1.19988e-06 0 0)
(2.38152e-06 -6.39711e-07 1.99577e-21 -1.12534e-06 6.14191e-22 0)
(2.33732e-06 -6.04327e-07 2.90765e-21 -1.05552e-06 1.02795e-21 0)
(2.2986e-06 -5.67786e-07 1.05941e-21 -9.89581e-07 1.6862e-22 0)
(2.26438e-06 -5.30339e-07 -1.85312e-21 -9.26771e-07 -5.67485e-22 0)
(2.23365e-06 -4.91829e-07 -3.15622e-21 -8.66307e-07 -5.79757e-22 0)
(2.20541e-06 -4.51927e-07 -1.55207e-21 -8.07459e-07 -7.2594e-22 0)
(2.17909e-06 -4.09947e-07 2.98322e-21 -7.49544e-07 6.70781e-22 0)
(2.15355e-06 -3.65147e-07 3.3104e-21 -6.91964e-07 1.12881e-21 0)
(2.12904e-06 -3.16186e-07 -1.57477e-21 -6.3418e-07 -5.61746e-22 0)
(2.10347e-06 -2.62098e-07 -5.76151e-22 -5.75785e-07 -2.5873e-22 0)
(2.07955e-06 -2.00157e-07 2.05549e-21 -5.16433e-07 8.32779e-22 0)
(2.05121e-06 -1.30876e-07 -1.88252e-21 -4.56036e-07 -8.31593e-22 0)
(2.02974e-06 -4.36357e-08 3.86794e-24 -3.94915e-07 2.66244e-24 -3.32981e-43)
(3.1342e-06 -5.55471e-07 1.71678e-21 -1.83315e-06 4.61399e-22 0)
(2.99652e-06 -6.14716e-07 -1.29859e-21 -1.74995e-06 -2.60829e-22 0)
(2.90011e-06 -6.44669e-07 4.59141e-23 -1.66768e-06 -3.26304e-22 0)
(2.796e-06 -6.59956e-07 -6.53988e-22 -1.57502e-06 1.25923e-22 0)
(2.7048e-06 -6.6365e-07 -1.20306e-21 -1.4838e-06 9.04607e-24 0)
(2.62116e-06 -6.56076e-07 -1.05415e-21 -1.39359e-06 -6.2463e-22 0)
(2.54726e-06 -6.4076e-07 -8.78482e-22 -1.30698e-06 -9.69754e-22 0)
(2.48196e-06 -6.19173e-07 -6.22772e-23 -1.22459e-06 4.76694e-23 0)
(2.42467e-06 -5.93085e-07 6.68275e-23 -1.14667e-06 -3.68509e-23 0)
(2.37424e-06 -5.63522e-07 2.08824e-21 -1.07302e-06 3.66882e-22 0)
(2.32963e-06 -5.31188e-07 2.64097e-21 -1.00318e-06 1.09208e-21 0)
(2.28982e-06 -4.96328e-07 -1.66519e-21 -9.36592e-07 -8.23009e-22 0)
(2.25375e-06 -4.58896e-07 -2.62917e-21 -8.72683e-07 -9.88232e-22 0)
(2.22078e-06 -4.18426e-07 -1.72267e-21 -8.10879e-07 -6.01148e-22 0)
(2.18983e-06 -3.74315e-07 7.0345e-22 -7.50732e-07 3.4299e-22 0)
(2.16107e-06 -3.25313e-07 3.30187e-23 -6.91852e-07 3.65341e-24 0)
(2.13276e-06 -2.70509e-07 -9.37721e-22 -6.34099e-07 -3.26487e-22 0)
(2.10738e-06 -2.07155e-07 1.80955e-23 -5.77399e-07 4.49581e-24 0)
(2.08e-06 -1.35781e-07 9.10561e-22 -5.22117e-07 4.22209e-22 0)
(2.0607e-06 -4.54922e-08 -2.45006e-22 -4.68905e-07 -1.90022e-22 -2.92381e-39)
(3.23342e-06 -4.06456e-07 6.23682e-22 -1.85241e-06 3.62033e-22 0)
(3.10644e-06 -4.56437e-07 1.24186e-21 -1.76797e-06 8.50062e-22 0)
(3.00194e-06 -5.14971e-07 1.2889e-21 -1.69821e-06 3.77689e-22 0)
(2.89936e-06 -5.47436e-07 3.48023e-22 -1.61669e-06 5.68481e-23 0)
(2.80393e-06 -5.6843e-07 4.57826e-22 -1.53144e-06 6.10987e-22 0)
(2.71573e-06 -5.76985e-07 1.17458e-22 -1.44554e-06 -4.00334e-22 0)
(2.63563e-06 -5.75981e-07 -2.39928e-21 -1.36084e-06 -8.90198e-22 0)
(2.56327e-06 -5.67025e-07 -8.57389e-22 -1.2788e-06 -1.91517e-22 0)
(2.49841e-06 -5.51697e-07 8.5338e-22 -1.20006e-06 1.85297e-22 0)
(2.44028e-06 -5.31163e-07 -1.04775e-21 -1.12489e-06 -2.11356e-22 0)
(2.38816e-06 -5.06246e-07 2.67038e-21 -1.05323e-06 1.17065e-21 0)
(2.34126e-06 -4.77384e-07 1.63727e-21 -9.84866e-07 6.44964e-22 0)
(2.29873e-06 -4.44712e-07 -2.40181e-22 -9.19507e-07 1.83726e-22 0)
(2.26006e-06 -4.07959e-07 6.03387e-22 -8.56851e-07 3.67894e-22 0)
(2.22437e-06 -3.66683e-07 9.55048e-22 -7.96702e-07 2.76414e-22 0)
(2.19186e-06 -3.19834e-07 -6.70069e-23 -7.38932e-07 -1.81519e-23 0)
(2.16118e-06 -2.6664e-07 5.70108e-22 -6.83698e-07 2.9355e-22 0)
(2.13451e-06 -2.04574e-07 3.02794e-22 -6.3125e-07 9.32389e-23 0)
(2.10803e-06 -1.34301e-07 -9.1228e-22 -5.82447e-07 -4.3884e-22 0)
(2.09022e-06 -4.51158e-08 -4.48736e-22 -5.38063e-07 -4.97741e-22 -7.70627e-37)
(3.19724e-06 -2.87242e-07 -4.26824e-21 -1.78293e-06 -1.38303e-21 0)
(3.11289e-06 -3.42516e-07 -2.09743e-21 -1.73993e-06 -1.21382e-21 0)
(3.01967e-06 -4.05591e-07 1.83564e-21 -1.67938e-06 9.71487e-23 0)
(2.92885e-06 -4.4861e-07 -1.01688e-21 -1.61009e-06 6.54905e-22 0)
(2.84059e-06 -4.7934e-07 -1.95692e-21 -1.53405e-06 -9.84338e-22 0)
(2.75696e-06 -4.98011e-07 2.36743e-21 -1.45555e-06 5.91184e-22 0)
(2.67896e-06 -5.0667e-07 -2.18998e-35 -1.37652e-06 -8.8379e-36 0)
(2.60688e-06 -5.0679e-07 -2.50319e-21 -1.29868e-06 -1.37196e-21 0)
(2.54085e-06 -4.9975e-07 -4.72507e-36 -1.22295e-06 -3.67558e-36 0)
(2.48058e-06 -4.8662e-07 -6.60835e-22 -1.14993e-06 -4.93731e-22 0)
(2.42568e-06 -4.6819e-07 -6.46386e-22 -1.07987e-06 -4.63651e-22 0)
(2.37567e-06 -4.44927e-07 1.02001e-21 -1.01286e-06 2.50889e-22 0)
(2.33e-06 -4.17037e-07 -1.0004e-21 -9.48871e-07 -2.625e-22 0)
(2.28836e-06 -3.84367e-07 -2.91671e-35 -8.87887e-07 -9.00682e-36 0)
(2.25012e-06 -3.46612e-07 9.66104e-22 -8.29956e-07 3.01354e-22 0)