/*--------------------------------*- C++ -*----------------------------------*\
| =========                 |                                                 |
| \\      /  F ield         | foam-extend: Open Source CFD                    |
|  \\    /   O peration     | Version:     4.1                                |
|   \\  /    A nd           | Web:         http://www.foam-extend.org         |
|    \\/     M anipulation  |                                                 |
\*---------------------------------------------------------------------------*/
FoamFile
{
    version     2.0;
    format      ascii;
    class       volScalarField;
    location    "5";
    object      sigmaEq;
}
// * * * * * * * * * * * * * * * * * * * * * * * * * * * * * * * * * * * * * //

dimensions      [1 -1 -2 0 0 0 0];

internalField   nonuniform List<scalar> 
1000
(
531756
606326
665992
711179
732178
740381
739144
732230
722934
709901
665626
676405
702479
730563
742364
745537
741236
732917
721381
709577
796081
745982
735029
742592
742966
739713
731600
721182
708025
695792
919113
812589
763577
748349
735538
724767
712267
699561
685006
672657
1.03127e+06
873971
788002
748999
721826
702664
685350
670152
654516
642022
1.12957e+06
928201
808306
746037
704129
676092
653652
635779
619154
606410
1.21142e+06
973615
824482
741014
685029
648196
620587
599941
582388
569215
1.27471e+06
1.00889e+06
836601
735552
667355
622591
590199
566895
548474
534747
1.31781e+06
1.03298e+06
844641
730988
653703
602832
566655
541181
522047
507783
1.33942e+06
1.04493e+06
848278
727976
645781
591537
553229
526510
506963
492383
488484
323608
231741
193571
179819
182461
192313
206537
221882
237463
467975
322419
252833
232699
228941
234566
243313
254453
265636
278045
426783
320755
288819
292811
300519
309706
317660
325729
332259
340999
367486
321950
334144
360782
378308
390688
398236
403913
406552
412085
294233
329816
384138
429251
454442
469326
476550
480269
479740
482487
216447
347934
435601
494166
524782
541314
548088
550046
546913
547120
161805
378580
486594
553260
586976
604190
610266
610561
605288
603106
183908
421857
535800
605055
639421
656209
661254
659870
653006
648428
277366
476106
582448
648834
681337
696579
700167
697222
689189
682735
399624
538594
625936
684120
712094
724353
725770
720690
712221
702118
253417
266702
279255
290675
300727
309557
317056
323285
328221
331870
334204
335199
334772
332895
329361
324235
316977
308149
296090
283578
288214
294993
302738
310129
316937
323117
328453
332904
336372
338803
340122
340268
339131
336658
332632
327100
319524
310456
298261
285701
343657
341494
342160
343418
345077
346942
348668
350095
351034
351340
350875
349520
347123
343596
338698
332454
324330
314857
302461
289849
407867
397181
390549
385269
381164
378022
375432
373140
370901
368483
365697
362361
358286
353342
347269
340065
331207
321201
308566
295930
472613
454993
441851
430602
420991
412882
405887
399687
394038
388639
383274
377711
371730
365166
357745
349444
339759
329173
316327
303750
532845
510298
491911
475734
461417
448855
437819
427908
418943
410574
402588
394723
386746
378470
369621
360158
349615
338455
325474
313094
585648
560211
538051
517980
499920
483547
468991
455749
443751
432627
422177
412127
402242
392326
382110
371550
360228
348592
335621
323606
628962
602620
578787
556060
535539
516295
498951
482935
468284
454672
441927
429802
418076
406563
395015
383394
371348
359313
346479
335017
662643
635949
612428
587907
565732
544378
524839
506660
489896
474301
459706
445899
432670
419854
407235
394791
382250
370043
357580
346857
685518
660263
639435
615552
592902
570616
549506
529582
510932
493476
477099
461644
446936
432836
419164
405918
392916
380594
368600
358789
694384
668705
648878
626937
605121
583586
562757
542800
523835
505866
488852
472710
457331
442636
428513
415008
402036
390041
378879
370168
676734
661461
643648
624737
605090
585351
565883
546931
528661
511143
494396
478404
463123
448533
434593
421401
408962
397738
387760
380472
662221
649635
635375
619150
601897
584091
566196
548480
531165
514367
498164
482592
467666
453420
439877
427180
415418
405056
396271
390288
645737
636091
624497
610620
595585
579672
563425
547090
530928
515084
499680
484793
470488
456845
443940
431955
421046
411670
404119
399406
627919
620660
611542
599935
587078
573085
558554
543704
528832
514103
499671
485651
472146
459273
447155
436001
426022
417657
411282
407718
609597
604391
597355
587752
576869
564698
551853
538525
525024
511523
498203
485199
472646
460690
449489
439271
430285
422946
417685
415146
591200
587693
582436
574642
565566
555123
543914
532103
520006
507796
495667
483773
472271
461323
451115
441883
433903
427558
423312
421653
573112
570988
567220
561009
553547
544703
535046
524719
514024
503135
492249
481528
471142
461266
452099
443879
436896
431496
428157
427229
555564
554538
552007
547183
541163
533796
525603
516706
507391
497824
488199
478681
469443
460666
452554
445342
439320
434796
432244
431902
538686
538525
537017
533398
528664
522649
515826
508296
500323
492059
483692
475381
467300
459626
452563
446334
441220
437494
435611
435713
522532
523058
522399
519834
516251
511481
505939
499708
493027
486034
478903
471785
464846
458257
452215
446925
442657
439643
438312
438731
507106
508188
508251
506622
504081
500459
496116
491118
485674
479907
473976
468019
462192
456653
451587
447183
443688
441300
440411
441033
492377
493958
494641
493859
492279
489728
486513
482683
478418
473824
469044
464202
459440
454902
450758
447175
444376
442529
441980
442707
478317
480336
481620
481650
480974
479434
477281
474555
471405
467924
464235
460448
456690
453091
449800
446967
444786
443395
443096
443844
464875
467438
469253
470055
470269
469700
468558
466874
464773
462333
459662
456856
454028
451292
448779
446618
444976
443964
443834
444535
452132
455037
457583
459302
460356
460723
460529
459819
458686
457201
455456
453538
451546
449582
447759
446186
445003
444299
444272
444874
439847
444736
446849
449572
451372
452665
453353
453546
453287
452654
451722
450576
449307
448006
446775
445703
444903
444444
444470
444939
428615
433164
437418
440796
443597
445751
447306
448305
448809
448888
448623
448098
447404
446630
445868
445197
444707
444443
444499
444831
418263
424008
429097
433489
437255
440274
442613
444302
445415
446029
446238
446137
445829
445410
444977
444604
444364
444275
444383
444606
409718
416689
422981
428426
433061
436832
439788
441970
443464
444367
444792
444860
444695
444414
444128
443919
443859
443943
444176
444404
481913
496250
521375
553693
588840
622830
652466
675496
691163
697176
473164
485750
508027
537179
569649
602051
631517
655394
672821
681079
466075
477088
496654
522496
551666
581306
609217
633119
652897
665790
460209
469799
486937
509809
535988
562986
588903
611586
630986
646530
454969
463297
478245
498370
521694
546135
570113
591823
610584
627033
450222
457448
470469
488131
508792
530700
552446
572716
590353
607060
445659
451929
463267
478757
497030
516655
536313
555114
571416
587492
441149
446591
456459
470024
486126
503607
521229
538478
553458
568589
436525
441257
449858
461749
475940
491501
507257
522953
536609
550556
431668
435788
443294
453724
466223
480049
494105
508307
520726
533443
426450
430050
436621
445793
456826
469117
481659
494455
505720
517230
420760
423916
429693
437785
447554
458501
469718
481236
491462
501851
414454
417238
422349
429534
438235
448031
458113
468505
477819
487207
407421
409898
414462
420898
428718
437556
446696
456136
464688
473228
399440
401671
405804
411649
418776
426857
435263
443951
451918
459775
390442
392487
396301
401710
408333
415865
423757
431917
439515
446938
379969
381892
385510
390657
396989
404219
411850
419774
427226
434608
368212
370080
373627
378688
384950
392124
399768
407696
415320
422699
353927
355831
359482
364711
371219
378715
386784
395175
403414
411339
338588
340620
344539
350168
357214
365380
374244
383521
392743
401665
)
;

boundaryField
{
    left
    {
        type            symmetryPlane;
        value           nonuniform List<scalar> 
30
(
481580
472872
465817
459984
454775
450055
445514
441024
436417
431575
426371
420692
414397
407374
399402
390413
379948
368199
353921
338588
1.33654e+06
1.04399e+06
848064
727967
645755
591424
553027
526240
506653
492036
)
;
    }
    right
    {
        type            calculated;
        value           nonuniform List<scalar> 
30
(
282789
284903
289047
295126
302946
312305
322833
334291
346153
358191
369600
380014
389918
399117
407505
414996
421558
427178
431885
435722
438758
441071
442749
443887
444574
444908
444965
444850
444618
444432
)
;
    }
    down
    {
        type            symmetryPlane;
        value           nonuniform List<scalar> 
30
(
487939
323443
230124
190114
175161
177525
187661
202411
218350
234363
250942
264824
277784
289520
299813
308825
316466
322807
327830
331550
333941
334984
334598
332756
329254
324155
316922
308117
296075
283577
)
;
    }
    up
    {
        type            calculated;
        value           nonuniform List<scalar> 
30
(
338105
340134
344055
349688
356740
364921
373799
383107
392346
401325
409409
416434
422765
428246
432917
436716
439695
441895
443404
444316
444749
444823
444663
444386
444105
443901
443847
443934
444171
444382
)
;
    }
    hole
    {
        type            calculated;
        value           nonuniform List<scalar> 
20
(
515462
661497
802035
933671
1.0532e+06
1.15768e+06
1.24455e+06
1.31165e+06
1.3573e+06
1.38025e+06
504835
481707
435370
367274
279246
173528
52835.8
79795.7
221055
367470
)
;
    }
    frontAndBack
    {
        type            empty;
    }
}


// ************************************************************************* //
