/*--------------------------------*- C++ -*----------------------------------*\
| =========                 |                                                 |
| \\      /  F ield         | foam-extend: Open Source CFD                    |
|  \\    /   O peration     | Version:     4.1                                |
|   \\  /    A nd           | Web:         http://www.foam-extend.org         |
|    \\/     M anipulation  |                                                 |
\*---------------------------------------------------------------------------*/
FoamFile
{
    version     2.0;
    format      ascii;
    class       vectorField;
    location    "5";
    object      solidsCellD_iteration1;
}
// * * * * * * * * * * * * * * * * * * * * * * * * * * * * * * * * * * * * * //


1000
(
(2.37849e-06 -9.56761e-07 0)
(2.25305e-06 -8.91492e-07 0)
(2.17414e-06 -8.50365e-07 0)
(2.13045e-06 -8.31542e-07 0)
(2.11105e-06 -8.25449e-07 0)
(2.10944e-06 -8.29254e-07 0)
(2.12091e-06 -8.39519e-07 0)
(2.14223e-06 -8.5468e-07 0)
(2.17047e-06 -8.73371e-07 0)
(2.20349e-06 -8.95083e-07 0)
(2.15174e-06 -1.04511e-06 0)
(2.0179e-06 -9.99955e-07 0)
(1.93354e-06 -9.71653e-07 0)
(1.88567e-06 -9.6158e-07 0)
(1.86283e-06 -9.61308e-07 0)
(1.85791e-06 -9.69299e-07 0)
(1.866e-06 -9.82617e-07 0)
(1.88361e-06 -1.00003e-06 0)
(1.90788e-06 -1.02053e-06 0)
(1.93667e-06 -1.04276e-06 0)
(1.91579e-06 -1.12888e-06 0)
(1.77886e-06 -1.10621e-06 0)
(1.69243e-06 -1.09215e-06 0)
(1.64251e-06 -1.09171e-06 0)
(1.61757e-06 -1.09775e-06 0)
(1.6102e-06 -1.11009e-06 0)
(1.6155e-06 -1.12642e-06 0)
(1.62999e-06 -1.14589e-06 0)
(1.65092e-06 -1.16787e-06 0)
(1.67636e-06 -1.19087e-06 0)
(1.6724e-06 -1.20656e-06 0)
(1.53816e-06 -1.20748e-06 0)
(1.45331e-06 -1.20833e-06 0)
(1.40366e-06 -1.21787e-06 0)
(1.37806e-06 -1.23042e-06 0)
(1.3692e-06 -1.24719e-06 0)
(1.37237e-06 -1.26647e-06 0)
(1.38419e-06 -1.28797e-06 0)
(1.40216e-06 -1.3114e-06 0)
(1.42435e-06 -1.33537e-06 0)
(1.42319e-06 -1.27662e-06 0)
(1.29745e-06 -1.3009e-06 0)
(1.21786e-06 -1.31656e-06 0)
(1.17084e-06 -1.33593e-06 0)
(1.14609e-06 -1.35483e-06 0)
(1.13669e-06 -1.37588e-06 0)
(1.13831e-06 -1.39803e-06 0)
(1.14779e-06 -1.42151e-06 0)
(1.16296e-06 -1.44632e-06 0)
(1.18189e-06 -1.4714e-06 0)
(1.16953e-06 -1.3376e-06 0)
(1.05782e-06 -1.38375e-06 0)
(9.87074e-07 -1.41321e-06 0)
(9.44991e-07 -1.44177e-06 0)
(9.22512e-07 -1.4666e-06 0)
(9.13435e-07 -1.49165e-06 0)
(9.1402e-07 -1.51644e-06 0)
(9.21424e-07 -1.54176e-06 0)
(9.33848e-07 -1.56786e-06 0)
(9.49451e-07 -1.59406e-06 0)
(9.12619e-07 -1.38815e-06 0)
(8.19936e-07 -1.45343e-06 0)
(7.61239e-07 -1.49502e-06 0)
(7.26147e-07 -1.5316e-06 0)
(7.07202e-07 -1.56161e-06 0)
(6.99246e-07 -1.59017e-06 0)
(6.99223e-07 -1.61725e-06 0)
(7.04767e-07 -1.64421e-06 0)
(7.14448e-07 -1.67146e-06 0)
(7.26653e-07 -1.69871e-06 0)
(6.5342e-07 -1.42711e-06 0)
(5.83985e-07 -1.50777e-06 0)
(5.40013e-07 -1.55911e-06 0)
(5.13644e-07 -1.60212e-06 0)
(4.99289e-07 -1.63628e-06 0)
(4.93105e-07 -1.66763e-06 0)
(4.92825e-07 -1.69657e-06 0)
(4.96667e-07 -1.72487e-06 0)
(5.03592e-07 -1.75302e-06 0)
(5.12338e-07 -1.78114e-06 0)
(3.92719e-07 -1.45359e-06 0)
(3.49722e-07 -1.545e-06 0)
(3.2248e-07 -1.60317e-06 0)
(3.06093e-07 -1.65069e-06 0)
(2.97121e-07 -1.68775e-06 0)
(2.93202e-07 -1.72105e-06 0)
(2.92932e-07 -1.7513e-06 0)
(2.95187e-07 -1.78055e-06 0)
(2.99337e-07 -1.80937e-06 0)
(3.04589e-07 -1.83815e-06 0)
(1.31167e-07 -1.46692e-06 0)
(1.16576e-07 -1.56386e-06 0)
(1.07324e-07 -1.62555e-06 0)
(1.01756e-07 -1.67542e-06 0)
(9.86979e-08 -1.71397e-06 0)
(9.73354e-08 -1.74828e-06 0)
(9.72063e-08 -1.77919e-06 0)
(9.79405e-08 -1.80891e-06 0)
(9.93202e-08 -1.83805e-06 0)
(1.01066e-07 -1.86716e-06 0)
(3.69705e-06 -4.36563e-08 0)
(3.73023e-06 -3.15575e-08 0)
(3.75209e-06 -2.38946e-08 0)
(3.77641e-06 -1.93977e-08 0)
(3.80318e-06 -1.69037e-08 0)
(3.83564e-06 -1.57573e-08 0)
(3.87355e-06 -1.5513e-08 0)
(3.91721e-06 -1.58626e-08 0)
(3.96645e-06 -1.6634e-08 0)
(4.02061e-06 -1.75508e-08 0)
(3.67002e-06 -1.30953e-07 0)
(3.69792e-06 -9.53769e-08 0)
(3.71646e-06 -7.28903e-08 0)
(3.73859e-06 -5.97377e-08 0)
(3.76394e-06 -5.24806e-08 0)
(3.79538e-06 -4.91777e-08 0)
(3.83255e-06 -4.85263e-08 0)
(3.87561e-06 -4.9624e-08 0)
(3.92432e-06 -5.19535e-08 0)
(3.97792e-06 -5.47169e-08 0)
(3.616e-06 -2.19011e-07 0)
(3.6339e-06 -1.61905e-07 0)
(3.64609e-06 -1.2584e-07 0)
(3.66402e-06 -1.04801e-07 0)
(3.68662e-06 -9.32545e-08 0)
(3.71613e-06 -8.80904e-08 0)
(3.7519e-06 -8.71902e-08 0)
(3.79383e-06 -8.91091e-08 0)
(3.84164e-06 -9.3e-08 0)
(3.89423e-06 -9.76223e-08 0)
(3.53592e-06 -3.08183e-07 0)
(3.5396e-06 -2.32667e-07 0)
(3.54274e-06 -1.84986e-07 0)
(3.5547e-06 -1.573e-07 0)
(3.57335e-06 -1.42207e-07 0)
(3.60005e-06 -1.35625e-07 0)
(3.6338e-06 -1.34716e-07 0)
(3.67412e-06 -1.37581e-07 0)
(3.72061e-06 -1.43054e-07 0)
(3.77178e-06 -1.49561e-07 0)
(3.43097e-06 -3.9872e-07 0)
(3.41704e-06 -3.0893e-07 0)
(3.40901e-06 -2.52242e-07 0)
(3.41353e-06 -2.19554e-07 0)
(3.42729e-06 -2.01909e-07 0)
(3.45055e-06 -1.94503e-07 0)
(3.48181e-06 -1.93908e-07 0)
(3.52014e-06 -1.97881e-07 0)
(3.565e-06 -2.04965e-07 0)
(3.61448e-06 -2.13386e-07 0)
(3.3027e-06 -4.90658e-07 0)
(3.26878e-06 -3.91505e-07 0)
(3.2481e-06 -3.28899e-07 0)
(3.2442e-06 -2.9316e-07 0)
(3.25238e-06 -2.74148e-07 0)
(3.27169e-06 -2.66629e-07 0)
(3.30008e-06 -2.66728e-07 0)
(3.33612e-06 -2.71998e-07 0)
(3.37911e-06 -2.80721e-07 0)
(3.42676e-06 -2.91079e-07 0)
(3.15287e-06 -5.83823e-07 0)
(3.09781e-06 -4.80728e-07 0)
(3.06376e-06 -4.15617e-07 0)
(3.05094e-06 -3.78985e-07 0)
(3.05317e-06 -3.5993e-07 0)
(3.06823e-06 -3.53088e-07 0)
(3.0935e-06 -3.54318e-07 0)
(3.12707e-06 -3.61108e-07 0)
(3.16805e-06 -3.71548e-07 0)
(3.21388e-06 -3.83873e-07 0)
(2.98343e-06 -6.77786e-07 0)
(2.90739e-06 -5.76378e-07 0)
(2.86003e-06 -5.12316e-07 0)
(2.83827e-06 -4.77028e-07 0)
(2.83447e-06 -4.59307e-07 0)
(2.84516e-06 -4.53973e-07 0)
(2.86717e-06 -4.56783e-07 0)
(2.89816e-06 -4.65324e-07 0)
(2.937e-06 -4.77548e-07 0)
(2.98113e-06 -4.91918e-07 0)
(2.79647e-06 -7.71885e-07 0)
(2.70091e-06 -6.77684e-07 0)
(2.64113e-06 -6.18168e-07 0)
(2.61093e-06 -5.86425e-07 0)
(2.60135e-06 -5.71394e-07 0)
(2.60775e-06 -5.68393e-07 0)
(2.62642e-06 -5.73281e-07 0)
(2.65472e-06 -5.83807e-07 0)
(2.69117e-06 -5.98033e-07 0)
(2.73376e-06 -6.14491e-07 0)
(2.59415e-06 -8.65226e-07 0)
(2.48174e-06 -7.83324e-07 0)
(2.41119e-06 -7.31599e-07 0)
(2.37352e-06 -7.05451e-07 0)
(2.35863e-06 -6.94361e-07 0)
(2.36085e-06 -6.94466e-07 0)
(2.376e-06 -7.01873e-07 0)
(2.40123e-06 -7.14701e-07 0)
(2.4348e-06 -7.31087e-07 0)
(2.47557e-06 -7.50405e-07 0)
(4.0797e-06 -1.84783e-08 0)
(4.14402e-06 -1.86942e-08 0)
(4.21241e-06 -1.89623e-08 0)
(4.28463e-06 -1.9171e-08 0)
(4.36024e-06 -1.92958e-08 0)
(4.43898e-06 -1.93215e-08 0)
(4.52052e-06 -1.92282e-08 0)
(4.60455e-06 -1.90254e-08 0)
(4.69077e-06 -1.87078e-08 0)
(4.77892e-06 -1.82611e-08 0)
(4.86875e-06 -1.76605e-08 0)
(4.95998e-06 -1.68918e-08 0)
(5.05236e-06 -1.59465e-08 0)
(5.14561e-06 -1.48127e-08 0)
(5.23947e-06 -1.34691e-08 0)
(5.33359e-06 -1.18897e-08 0)
(5.42778e-06 -1.00421e-08 0)
(5.52142e-06 -7.89255e-09 0)
(5.61464e-06 -5.38937e-09 0)
(5.70599e-06 -2.51745e-09 0)
(4.03882e-06 -5.73157e-08 0)
(4.10645e-06 -5.77193e-08 0)
(4.17784e-06 -5.82976e-08 0)
(4.25269e-06 -5.87283e-08 0)
(4.3307e-06 -5.89299e-08 0)
(4.41158e-06 -5.88778e-08 0)
(4.49506e-06 -5.85032e-08 0)
(4.58087e-06 -5.78088e-08 0)
(4.66872e-06 -5.67596e-08 0)
(4.75835e-06 -5.53259e-08 0)
(4.84954e-06 -5.3455e-08 0)
(4.94203e-06 -5.11084e-08 0)
(5.0356e-06 -4.82479e-08 0)
(5.12998e-06 -4.48277e-08 0)
(5.22492e-06 -4.0782e-08 0)
(5.32004e-06 -3.60347e-08 0)
(5.41518e-06 -3.04882e-08 0)
(5.50973e-06 -2.40428e-08 0)
(5.60386e-06 -1.6543e-08 0)
(5.69614e-06 -7.93979e-09 0)
(3.95877e-06 -1.01319e-07 0)
(4.03295e-06 -1.01173e-07 0)
(4.11024e-06 -1.01394e-07 0)
(4.19024e-06 -1.01534e-07 0)
(4.27285e-06 -1.01382e-07 0)
(4.35783e-06 -1.0091e-07 0)
(4.44505e-06 -9.99742e-08 0)
(4.53424e-06 -9.85588e-08 0)
(4.62518e-06 -9.65842e-08 0)
(4.71766e-06 -9.40011e-08 0)
(4.8115e-06 -9.07311e-08 0)
(4.90649e-06 -8.67106e-08 0)
(5.0024e-06 -8.18652e-08 0)
(5.09897e-06 -7.61078e-08 0)
(5.19599e-06 -6.93239e-08 0)
(5.29314e-06 -6.13842e-08 0)
(5.39022e-06 -5.21243e-08 0)
(5.48666e-06 -4.13824e-08 0)
(5.58263e-06 -2.89e-08 0)
(5.67674e-06 -1.459e-08 0)
(3.84148e-06 -1.5346e-07 0)
(3.92507e-06 -1.51604e-07 0)
(4.01094e-06 -1.50399e-07 0)
(4.09845e-06 -1.49439e-07 0)
(4.18789e-06 -1.48252e-07 0)
(4.27895e-06 -1.46816e-07 0)
(4.37168e-06 -1.44869e-07 0)
(4.46585e-06 -1.42369e-07 0)
(4.56136e-06 -1.39181e-07 0)
(4.65805e-06 -1.3522e-07 0)
(4.7558e-06 -1.3037e-07 0)
(4.85444e-06 -1.24532e-07 0)
(4.95376e-06 -1.1759e-07 0)
(5.05354e-06 -1.0941e-07 0)
(5.15361e-06 -9.98296e-08 0)
(5.25368e-06 -8.86644e-08 0)
(5.35357e-06 -7.5683e-08 0)
(5.45278e-06 -6.06594e-08 0)
(5.55146e-06 -4.32265e-08 0)
(5.64823e-06 -2.32487e-08 0)
(3.69062e-06 -2.16362e-07 0)
(3.78605e-06 -2.11315e-07 0)
(3.88282e-06 -2.07318e-07 0)
(3.97991e-06 -2.042e-07 0)
(4.07803e-06 -2.01091e-07 0)
(4.17688e-06 -1.97978e-07 0)
(4.27672e-06 -1.94441e-07 0)
(4.37734e-06 -1.90383e-07 0)
(4.47877e-06 -1.85599e-07 0)
(4.5809e-06 -1.7995e-07 0)
(4.68369e-06 -1.73269e-07 0)
(4.78701e-06 -1.65409e-07 0)
(4.89071e-06 -1.56206e-07 0)
(4.99465e-06 -1.45482e-07 0)
(5.09869e-06 -1.3302e-07 0)
(5.20253e-06 -1.18582e-07 0)
(5.30609e-06 -1.0187e-07 0)
(5.40882e-06 -8.25848e-08 0)
(5.51099e-06 -6.02474e-08 0)
(5.61121e-06 -3.46552e-08 0)
(3.51027e-06 -2.91874e-07 0)
(3.61945e-06 -2.81948e-07 0)
(3.72908e-06 -2.73575e-07 0)
(3.8375e-06 -2.67039e-07 0)
(3.94603e-06 -2.6096e-07 0)
(4.05421e-06 -2.55299e-07 0)
(4.16256e-06 -2.49465e-07 0)
(4.27093e-06 -2.4327e-07 0)
(4.37946e-06 -2.36418e-07 0)
(4.48813e-06 -2.28699e-07 0)
(4.59698e-06 -2.19885e-07 0)
(4.70593e-06 -2.09772e-07 0)
(4.8149e-06 -1.98138e-07 0)
(4.92381e-06 -1.8475e-07 0)
(5.03257e-06 -1.69335e-07 0)
(5.1409e-06 -1.51597e-07 0)
(5.24881e-06 -1.31164e-07 0)
(5.35577e-06 -1.07658e-07 0)
(5.46209e-06 -8.04785e-08 0)
(5.56649e-06 -4.93406e-08 0)
(3.30534e-06 -3.81248e-07 0)
(3.42959e-06 -3.64711e-07 0)
(3.55355e-06 -3.50371e-07 0)
(3.67473e-06 -3.39056e-07 0)
(3.79501e-06 -3.28889e-07 0)
(3.91381e-06 -3.19721e-07 0)
(4.03182e-06 -3.10805e-07 0)
(4.149e-06 -3.01818e-07 0)
(4.26561e-06 -2.92362e-07 0)
(4.38173e-06 -2.82128e-07 0)
(4.49748e-06 -2.70821e-07 0)
(4.61285e-06 -2.5817e-07 0)
(4.72784e-06 -2.43891e-07 0)
(4.84242e-06 -2.27687e-07 0)
(4.95653e-06 -2.09224e-07 0)
(5.06999e-06 -1.88137e-07 0)
(5.18284e-06 -1.63978e-07 0)
(5.29462e-06 -1.36281e-07 0)
(5.4057e-06 -1.04317e-07 0)
(5.51486e-06 -6.77246e-08 0)
(3.08075e-06 -4.84726e-07 0)
(3.2209e-06 -4.59726e-07 0)
(3.36019e-06 -4.37843e-07 0)
(3.49524e-06 -4.2022e-07 0)
(3.62826e-06 -4.04747e-07 0)
(3.75872e-06 -3.90995e-07 0)
(3.88736e-06 -3.78124e-07 0)
(4.01426e-06 -3.65628e-07 0)
(4.13978e-06 -3.53004e-07 0)
(4.26413e-06 -3.39819e-07 0)
(4.38747e-06 -3.25691e-07 0)
(4.50988e-06 -3.10266e-07 0)
(4.63144e-06 -2.93184e-07 0)
(4.7522e-06 -2.74075e-07 0)
(4.87216e-06 -2.5253e-07 0)
(4.99122e-06 -2.28109e-07 0)
(5.10948e-06 -2.00273e-07 0)
(5.22655e-06 -1.68466e-07 0)
(5.34284e-06 -1.31831e-07 0)
(5.45728e-06 -8.99409e-08 0)
(2.84176e-06 -6.0231e-07 0)
(2.99851e-06 -5.67225e-07 0)
(3.15359e-06 -5.36705e-07 0)
(3.30328e-06 -5.11399e-07 0)
(3.4496e-06 -4.8953e-07 0)
(3.59232e-06 -4.70187e-07 0)
(3.73212e-06 -4.52501e-07 0)
(3.86929e-06 -4.35751e-07 0)
(4.00426e-06 -4.19318e-07 0)
(4.13733e-06 -4.02646e-07 0)
(4.26874e-06 -3.8526e-07 0)
(4.39865e-06 -3.66711e-07 0)
(4.52722e-06 -3.46561e-07 0)
(4.65458e-06 -3.24356e-07 0)
(4.78076e-06 -2.99604e-07 0)
(4.90578e-06 -2.71784e-07 0)
(5.02979e-06 -2.40263e-07 0)
(5.15249e-06 -2.04393e-07 0)
(5.27435e-06 -1.63208e-07 0)
(5.39448e-06 -1.16234e-07 0)
(2.59266e-06 -7.32422e-07 0)
(2.76703e-06 -6.8484e-07 0)
(2.93782e-06 -6.44369e-07 0)
(3.10267e-06 -6.09904e-07 0)
(3.26268e-06 -5.80383e-07 0)
(3.41811e-06 -5.54469e-07 0)
(3.56953e-06 -5.31191e-07 0)
(3.71739e-06 -5.0962e-07 0)
(3.86218e-06 -4.88963e-07 0)
(4.0043e-06 -4.68525e-07 0)
(4.14409e-06 -4.47697e-07 0)
(4.28177e-06 -4.25925e-07 0)
(4.41759e-06 -4.02667e-07 0)
(4.55175e-06 -3.77382e-07 0)
(4.68435e-06 -3.49486e-07 0)
(4.8155e-06 -3.18377e-07 0)
(4.9454e-06 -2.83329e-07 0)
(5.07388e-06 -2.43615e-07 0)
(5.20145e-06 -1.9817e-07 0)
(5.32745e-06 -1.46441e-07 0)
(2.40477e-06 -8.57672e-07 0)
(2.59359e-06 -7.98994e-07 0)
(2.77458e-06 -7.50876e-07 0)
(2.94889e-06 -7.09184e-07 0)
(3.11748e-06 -6.73025e-07 0)
(3.28095e-06 -6.41048e-07 0)
(3.43989e-06 -6.12224e-07 0)
(3.59477e-06 -5.8559e-07 0)
(3.74609e-06 -5.60303e-07 0)
(3.89428e-06 -5.35611e-07 0)
(4.03967e-06 -5.10839e-07 0)
(4.18251e-06 -4.85367e-07 0)
(4.32313e-06 -4.58594e-07 0)
(4.46174e-06 -4.29917e-07 0)
(4.59848e-06 -3.98699e-07 0)
(4.73357e-06 -3.6429e-07 0)
(4.8672e-06 -3.25924e-07 0)
(4.99934e-06 -2.82851e-07 0)
(5.13049e-06 -2.33988e-07 0)
(5.26026e-06 -1.7874e-07 0)
(2.29853e-06 -9.58703e-07 0)
(2.48843e-06 -8.97429e-07 0)
(2.67147e-06 -8.44987e-07 0)
(2.84857e-06 -7.98781e-07 0)
(3.02018e-06 -7.57966e-07 0)
(3.18676e-06 -7.21387e-07 0)
(3.34877e-06 -6.88062e-07 0)
(3.50663e-06 -6.57085e-07 0)
(3.66078e-06 -6.27644e-07 0)
(3.8116e-06 -5.98999e-07 0)
(3.9594e-06 -5.70468e-07 0)
(4.10444e-06 -5.41421e-07 0)
(4.24705e-06 -5.11249e-07 0)
(4.38746e-06 -4.79335e-07 0)
(4.52582e-06 -4.45036e-07 0)
(4.66241e-06 -4.07703e-07 0)
(4.79743e-06 -3.66588e-07 0)
(4.93092e-06 -3.20972e-07 0)
(5.06339e-06 -2.69811e-07 0)
(5.19461e-06 -2.12505e-07 0)
(2.20885e-06 -1.05545e-06 0)
(2.39656e-06 -9.92748e-07 0)
(2.57931e-06 -9.37531e-07 0)
(2.75697e-06 -8.87857e-07 0)
(2.9298e-06 -8.43169e-07 0)
(3.09796e-06 -8.02547e-07 0)
(3.26178e-06 -7.65119e-07 0)
(3.42154e-06 -7.30079e-07 0)
(3.5776e-06 -6.96673e-07 0)
(3.7303e-06 -6.64196e-07 0)
(3.87989e-06 -6.31983e-07 0)
(4.0266e-06 -5.99413e-07 0)
(4.17078e-06 -5.6588e-07 0)
(4.31265e-06 -5.30775e-07 0)
(4.45237e-06 -4.93462e-07 0)
(4.59024e-06 -4.53313e-07 0)
(4.72646e-06 -4.09613e-07 0)
(4.86118e-06 -3.61674e-07 0)
(4.99484e-06 -3.08494e-07 0)
(5.12739e-06 -2.49494e-07 0)
(2.13021e-06 -1.14834e-06 0)
(2.31498e-06 -1.08495e-06 0)
(2.49615e-06 -1.02775e-06 0)
(2.67303e-06 -9.75329e-07 0)
(2.84581e-06 -9.27374e-07 0)
(3.01439e-06 -8.83191e-07 0)
(3.179e-06 -8.42059e-07 0)
(3.33976e-06 -8.03278e-07 0)
(3.49696e-06 -7.66168e-07 0)
(3.65087e-06 -7.30071e-07 0)
(3.80167e-06 -6.94354e-07 0)
(3.94959e-06 -6.58417e-07 0)
(4.09495e-06 -6.21679e-07 0)
(4.23794e-06 -5.83543e-07 0)
(4.37875e-06 -5.43398e-07 0)
(4.51769e-06 -5.00642e-07 0)
(4.65494e-06 -4.546e-07 0)
(4.79073e-06 -4.04615e-07 0)
(4.92546e-06 -3.49738e-07 0)
(5.05922e-06 -2.89475e-07 0)
(2.06099e-06 -1.23732e-06 0)
(2.24226e-06 -1.1737e-06 0)
(2.42097e-06 -1.1152e-06 0)
(2.59614e-06 -1.06073e-06 0)
(2.7679e-06 -1.01014e-06 0)
(2.936e-06 -9.6295e-07 0)
(3.10054e-06 -9.18578e-07 0)
(3.26153e-06 -8.7644e-07 0)
(3.41917e-06 -8.35936e-07 0)
(3.57368e-06 -7.96476e-07 0)
(3.72519e-06 -7.57472e-07 0)
(3.87387e-06 -7.18362e-07 0)
(4.02003e-06 -6.78598e-07 0)
(4.16384e-06 -6.37612e-07 0)
(4.3055e-06 -5.94821e-07 0)
(4.44529e-06 -5.49656e-07 0)
(4.58341e-06 -5.01483e-07 0)
(4.72012e-06 -4.49683e-07 0)
(4.8558e-06 -3.934e-07 0)
(4.99064e-06 -3.3228e-07 0)
(1.99943e-06 -1.32245e-06 0)
(2.17691e-06 -1.259e-06 0)
(2.35268e-06 -1.19968e-06 0)
(2.52552e-06 -1.14367e-06 0)
(2.69558e-06 -1.09097e-06 0)
(2.8625e-06 -1.04126e-06 0)
(3.02629e-06 -9.94089e-07 0)
(3.18686e-06 -9.48985e-07 0)
(3.34436e-06 -9.0543e-07 0)
(3.49895e-06 -8.62908e-07 0)
(3.6507e-06 -8.20886e-07 0)
(3.79975e-06 -7.78847e-07 0)
(3.94638e-06 -7.36287e-07 0)
(4.09073e-06 -6.92672e-07 0)
(4.233e-06 -6.47455e-07 0)
(4.37345e-06 -6.00099e-07 0)
(4.51228e-06 -5.50018e-07 0)
(4.64977e-06 -4.9665e-07 0)
(4.78628e-06 -4.39276e-07 0)
(4.92208e-06 -3.77643e-07 0)
(1.94422e-06 -1.40388e-06 0)
(2.11778e-06 -1.34088e-06 0)
(2.29027e-06 -1.2811e-06 0)
(2.46038e-06 -1.22399e-06 0)
(2.62824e-06 -1.16966e-06 0)
(2.79347e-06 -1.11788e-06 0)
(2.95599e-06 -1.06835e-06 0)
(3.11564e-06 -1.02067e-06 0)
(3.27254e-06 -9.74414e-07 0)
(3.42678e-06 -9.2915e-07 0)
(3.57838e-06 -8.84399e-07 0)
(3.72747e-06 -8.39694e-07 0)
(3.87428e-06 -7.94577e-07 0)
(4.01891e-06 -7.48556e-07 0)
(4.16157e-06 -7.01125e-07 0)
(4.3025e-06 -6.51784e-07 0)
(4.44189e-06 -6.00008e-07 0)
(4.58002e-06 -5.45316e-07 0)
(4.71724e-06 -4.87132e-07 0)
(4.85388e-06 -4.25195e-07 0)
(1.8942e-06 -1.48177e-06 0)
(2.06382e-06 -1.4194e-06 0)
(2.23286e-06 -1.35946e-06 0)
(2.39996e-06 -1.3016e-06 0)
(2.56532e-06 -1.24602e-06 0)
(2.72847e-06 -1.19256e-06 0)
(2.88933e-06 -1.14104e-06 0)
(3.04769e-06 -1.09115e-06 0)
(3.2036e-06 -1.04254e-06 0)
(3.35714e-06 -9.94861e-07 0)
(3.50829e-06 -9.47682e-07 0)
(3.65712e-06 -9.00593e-07 0)
(3.80386e-06 -8.53178e-07 0)
(3.94856e-06 -8.04988e-07 0)
(4.09143e-06 -7.55566e-07 0)
(4.23268e-06 -7.04461e-07 0)
(4.37248e-06 -6.51222e-07 0)
(4.51113e-06 -5.95452e-07 0)
(4.64895e-06 -5.36672e-07 0)
(4.7863e-06 -4.74586e-07 0)
(1.84834e-06 -1.55634e-06 0)
(2.01407e-06 -1.49471e-06 0)
(2.17958e-06 -1.43482e-06 0)
(2.34355e-06 -1.3765e-06 0)
(2.50618e-06 -1.31997e-06 0)
(2.66702e-06 -1.26517e-06 0)
(2.82594e-06 -1.212e-06 0)
(2.98272e-06 -1.16024e-06 0)
(3.13737e-06 -1.1096e-06 0)
(3.28994e-06 -1.05982e-06 0)
(3.44038e-06 -1.01052e-06 0)
(3.58873e-06 -9.61338e-07 0)
(3.73519e-06 -9.11896e-07 0)
(3.87979e-06 -8.61787e-07 0)
(4.02269e-06 -8.10609e-07 0)
(4.16411e-06 -7.57975e-07 0)
(4.30421e-06 -7.03508e-07 0)
(4.44327e-06 -6.46872e-07 0)
(4.58157e-06 -5.87638e-07 0)
(4.71952e-06 -5.25604e-07 0)
(1.80574e-06 -1.62783e-06 0)
(1.96768e-06 -1.56702e-06 0)
(2.12965e-06 -1.50733e-06 0)
(2.29044e-06 -1.44873e-06 0)
(2.45023e-06 -1.3915e-06 0)
(2.6086e-06 -1.33564e-06 0)
(2.76541e-06 -1.28112e-06 0)
(2.9204e-06 -1.22781e-06 0)
(3.0736e-06 -1.17547e-06 0)
(3.22501e-06 -1.1239e-06 0)
(3.37454e-06 -1.07278e-06 0)
(3.52224e-06 -1.02178e-06 0)
(3.66825e-06 -9.7058e-07 0)
(3.81259e-06 -9.18801e-07 0)
(3.9554e-06 -8.66106e-07 0)
(4.09687e-06 -8.12172e-07 0)
(4.23716e-06 -7.56682e-07 0)
(4.37652e-06 -6.99341e-07 0)
(4.51522e-06 -6.39778e-07 0)
(4.65365e-06 -5.7799e-07 0)
(1.7656e-06 -1.69653e-06 0)
(1.92387e-06 -1.63654e-06 0)
(2.08236e-06 -1.57713e-06 0)
(2.23997e-06 -1.5184e-06 0)
(2.39688e-06 -1.46068e-06 0)
(2.55271e-06 -1.40401e-06 0)
(2.7073e-06 -1.34843e-06 0)
(2.86039e-06 -1.29385e-06 0)
(3.01201e-06 -1.24011e-06 0)
(3.16211e-06 -1.18703e-06 0)
(3.31061e-06 -1.13436e-06 0)
(3.45752e-06 -1.08181e-06 0)
(3.60296e-06 -1.02908e-06 0)
(3.74692e-06 -9.75873e-07 0)
(3.88953e-06 -9.21888e-07 0)
(4.03096e-06 -8.6686e-07 0)
(4.17135e-06 -8.10514e-07 0)
(4.31094e-06 -7.52593e-07 0)
(4.44994e-06 -6.92868e-07 0)
(4.58875e-06 -6.31382e-07 0)
(1.72719e-06 -1.76265e-06 0)
(1.88191e-06 -1.70344e-06 0)
(2.03701e-06 -1.64437e-06 0)
(2.19151e-06 -1.58565e-06 0)
(2.34556e-06 -1.52761e-06 0)
(2.49883e-06 -1.47034e-06 0)
(2.65116e-06 -1.41393e-06 0)
(2.80231e-06 -1.35834e-06 0)
(2.95227e-06 -1.30345e-06 0)
(3.101e-06 -1.24912e-06 0)
(3.24838e-06 -1.19514e-06 0)
(3.39441e-06 -1.14128e-06 0)
(3.53918e-06 -1.08728e-06 0)
(3.68267e-06 -1.03288e-06 0)
(3.82501e-06 -9.77828e-07 0)
(3.96633e-06 -9.21898e-07 0)
(4.10675e-06 -8.6485e-07 0)
(4.24648e-06 -8.06494e-07 0)
(4.38572e-06 -7.46765e-07 0)
(4.52482e-06 -6.85569e-07 0)
(1.68983e-06 -1.8264e-06 0)
(1.84116e-06 -1.76791e-06 0)
(1.99298e-06 -1.70923e-06 0)
(2.14445e-06 -1.65061e-06 0)
(2.29571e-06 -1.59238e-06 0)
(2.44647e-06 -1.53468e-06 0)
(2.59657e-06 -1.47764e-06 0)
(2.74577e-06 -1.42125e-06 0)
(2.89405e-06 -1.36547e-06 0)
(3.04137e-06 -1.31015e-06 0)
(3.18758e-06 -1.25512e-06 0)
(3.33267e-06 -1.20019e-06 0)
(3.47673e-06 -1.14515e-06 0)
(3.61972e-06 -1.08978e-06 0)
(3.76173e-06 -1.03386e-06 0)
(3.90289e-06 -9.77196e-07 0)
(4.04328e-06 -9.19595e-07 0)
(4.1831e-06 -8.60965e-07 0)
(4.32251e-06 -8.01273e-07 0)
(4.46183e-06 -7.40432e-07 0)
(1.6529e-06 -1.88795e-06 0)
(1.80097e-06 -1.83018e-06 0)
(1.94966e-06 -1.7719e-06 0)
(2.09823e-06 -1.71343e-06 0)
(2.2468e-06 -1.65513e-06 0)
(2.39514e-06 -1.59716e-06 0)
(2.54307e-06 -1.5397e-06 0)
(2.69036e-06 -1.48272e-06 0)
(2.83699e-06 -1.42625e-06 0)
(2.98291e-06 -1.37015e-06 0)
(3.12795e-06 -1.31429e-06 0)
(3.2721e-06 -1.25851e-06 0)
(3.41544e-06 -1.20264e-06 0)
(3.5579e-06 -1.14648e-06 0)
(3.69956e-06 -1.08986e-06 0)
(3.84052e-06 -1.03261e-06 0)
(3.98084e-06 -9.74606e-07 0)
(4.12071e-06 -9.15824e-07 0)
(4.26024e-06 -8.56143e-07 0)
(4.39972e-06 -7.95692e-07 0)
(1.61576e-06 -1.94756e-06 0)
(1.76075e-06 -1.89044e-06 0)
(1.90647e-06 -1.83256e-06 0)
(2.05229e-06 -1.77431e-06 0)
(2.19832e-06 -1.71605e-06 0)
(2.34436e-06 -1.65795e-06 0)
(2.49023e-06 -1.60021e-06 0)
(2.63571e-06 -1.54283e-06 0)
(2.78075e-06 -1.48583e-06 0)
(2.92531e-06 -1.42914e-06 0)
(3.06922e-06 -1.37265e-06 0)
(3.21247e-06 -1.31623e-06 0)
(3.3551e-06 -1.25973e-06 0)
(3.49703e-06 -1.20298e-06 0)
(3.63833e-06 -1.14582e-06 0)
(3.77907e-06 -1.08813e-06 0)
(3.91931e-06 -1.02986e-06 0)
(4.05921e-06 -9.70962e-07 0)
(4.19882e-06 -9.1136e-07 0)
(4.33838e-06 -8.51211e-07 0)
(1.57788e-06 -2.00539e-06 0)
(1.71994e-06 -1.94889e-06 0)
(1.86283e-06 -1.89136e-06 0)
(2.0061e-06 -1.83337e-06 0)
(2.14978e-06 -1.77525e-06 0)
(2.29369e-06 -1.71716e-06 0)
(2.43765e-06 -1.65927e-06 0)
(2.58142e-06 -1.60166e-06 0)
(2.72499e-06 -1.54432e-06 0)
(2.86829e-06 -1.48721e-06 0)
(3.01117e-06 -1.43027e-06 0)
(3.15357e-06 -1.37339e-06 0)
(3.29552e-06 -1.31642e-06 0)
(3.43694e-06 -1.25922e-06 0)
(3.57788e-06 -1.20168e-06 0)
(3.71843e-06 -1.1437e-06 0)
(3.85859e-06 -1.08526e-06 0)
(3.99847e-06 -1.02623e-06 0)
(4.13811e-06 -9.66774e-07 0)
(4.27769e-06 -9.06904e-07 0)
(1.53867e-06 -2.06153e-06 0)
(1.67786e-06 -2.0055e-06 0)
(1.81808e-06 -1.94848e-06 0)
(1.9591e-06 -1.89089e-06 0)
(2.10064e-06 -1.83296e-06 0)
(2.24264e-06 -1.77497e-06 0)
(2.38487e-06 -1.71706e-06 0)
(2.52713e-06 -1.65933e-06 0)
(2.66939e-06 -1.6018e-06 0)
(2.8116e-06 -1.54446e-06 0)
(2.95354e-06 -1.48723e-06 0)
(3.09517e-06 -1.43004e-06 0)
(3.23649e-06 -1.37274e-06 0)
(3.37745e-06 -1.31524e-06 0)
(3.5181e-06 -1.25744e-06 0)
(3.65848e-06 -1.19928e-06 0)
(3.79852e-06 -1.14069e-06 0)
(3.93829e-06 -1.08162e-06 0)
(4.07795e-06 -1.02224e-06 0)
(4.21767e-06 -9.62616e-07 0)
(1.49719e-06 -2.11599e-06 0)
(1.63395e-06 -2.06053e-06 0)
(1.77196e-06 -2.00411e-06 0)
(1.91081e-06 -1.94692e-06 0)
(2.05047e-06 -1.88931e-06 0)
(2.19078e-06 -1.83151e-06 0)
(2.33153e-06 -1.77371e-06 0)
(2.47252e-06 -1.71599e-06 0)
(2.61371e-06 -1.65842e-06 0)
(2.75499e-06 -1.60098e-06 0)
(2.89612e-06 -1.54361e-06 0)
(3.03706e-06 -1.48623e-06 0)
(3.17789e-06 -1.42875e-06 0)
(3.31852e-06 -1.37108e-06 0)
(3.45888e-06 -1.31313e-06 0)
(3.59895e-06 -1.25485e-06 0)
(3.73884e-06 -1.19614e-06 0)
(3.87868e-06 -1.13711e-06 0)
(4.01831e-06 -1.07777e-06 0)
(4.15787e-06 -1.01831e-06 0)
(1.45291e-06 -2.1694e-06 0)
(1.58743e-06 -2.11456e-06 0)
(1.72341e-06 -2.05862e-06 0)
(1.86048e-06 -2.00187e-06 0)
(1.99857e-06 -1.94463e-06 0)
(2.13756e-06 -1.88712e-06 0)
(2.27722e-06 -1.82951e-06 0)
(2.41729e-06 -1.77192e-06 0)
(2.55764e-06 -1.7144e-06 0)
(2.69815e-06 -1.65695e-06 0)
(2.83868e-06 -1.59954e-06 0)
(2.97923e-06 -1.54209e-06 0)
(3.11968e-06 -1.48452e-06 0)
(3.25986e-06 -1.42676e-06 0)
(3.39992e-06 -1.36873e-06 0)
(3.53989e-06 -1.31036e-06 0)
(3.67965e-06 -1.25161e-06 0)
(3.81933e-06 -1.19256e-06 0)
(3.95894e-06 -1.13326e-06 0)
(4.0985e-06 -1.0739e-06 0)
(1.4052e-06 -2.22117e-06 0)
(1.53774e-06 -2.16711e-06 0)
(1.67201e-06 -2.11187e-06 0)
(1.80767e-06 -2.05571e-06 0)
(1.94467e-06 -1.99897e-06 0)
(2.08282e-06 -1.94187e-06 0)
(2.22175e-06 -1.88459e-06 0)
(2.36113e-06 -1.82723e-06 0)
(2.50095e-06 -1.76987e-06 0)
(2.64113e-06 -1.71252e-06 0)
(2.78134e-06 -1.65514e-06 0)
(2.92146e-06 -1.59769e-06 0)
(3.06158e-06 -1.5401e-06 0)
(3.20155e-06 -1.48231e-06 0)
(3.34134e-06 -1.42423e-06 0)
(3.48107e-06 -1.36582e-06 0)
(3.62068e-06 -1.30712e-06 0)
(3.76023e-06 -1.24799e-06 0)
(3.89977e-06 -1.1887e-06 0)
(4.03919e-06 -1.12929e-06 0)
(1.00936e-07 -1.89692e-06 0)
(3.04027e-07 -1.86932e-06 0)
(5.10815e-07 -1.81501e-06 0)
(7.2336e-07 -1.73641e-06 0)
(9.4335e-07 -1.63634e-06 0)
(1.17184e-06 -1.5187e-06 0)
(1.40923e-06 -1.3877e-06 0)
(1.65519e-06 -1.24784e-06 0)
(1.90885e-06 -1.1037e-06 0)
(2.16886e-06 -9.58921e-07 0)
(9.85952e-08 -1.92795e-06 0)
(2.968e-07 -1.90279e-06 0)
(4.98037e-07 -1.85319e-06 0)
(7.03993e-07 -1.78129e-06 0)
(9.16067e-07 -1.68944e-06 0)
(1.13513e-06 -1.58096e-06 0)
(1.36145e-06 -1.45948e-06 0)
(1.59466e-06 -1.32886e-06 0)
(1.83345e-06 -1.19336e-06 0)
(2.07683e-06 -1.0558e-06 0)
(9.65041e-08 -1.95998e-06 0)
(2.90327e-07 -1.93706e-06 0)
(4.86545e-07 -1.89173e-06 0)
(6.86482e-07 -1.82598e-06 0)
(8.91254e-07 -1.74178e-06 0)
(1.10155e-06 -1.64199e-06 0)
(1.31758e-06 -1.52973e-06 0)
(1.53923e-06 -1.40823e-06 0)
(1.76547e-06 -1.28121e-06 0)
(1.99578e-06 -1.15022e-06 0)
(9.45913e-08 -1.99303e-06 0)
(2.84441e-07 -1.97201e-06 0)
(4.76208e-07 -1.93034e-06 0)
(6.70932e-07 -1.86983e-06 0)
(8.69498e-07 -1.7922e-06 0)
(1.07241e-06 -1.69988e-06 0)
(1.27979e-06 -1.59571e-06 0)
(1.49148e-06 -1.48246e-06 0)
(1.70668e-06 -1.3636e-06 0)
(1.9249e-06 -1.24018e-06 0)
(9.27882e-08 -2.02705e-06 0)
(2.78883e-07 -2.00772e-06 0)
(4.66508e-07 -1.96931e-06 0)
(6.56456e-07 -1.91348e-06 0)
(8.49418e-07 -1.84178e-06 0)
(1.04578e-06 -1.75628e-06 0)
(1.24563e-06 -1.65952e-06 0)
(1.44884e-06 -1.55389e-06 0)
(1.65487e-06 -1.44247e-06 0)
(1.86283e-06 -1.3262e-06 0)
(9.10788e-08 -2.06195e-06 0)
(2.73628e-07 -2.04408e-06 0)
(4.57406e-07 -2.00852e-06 0)
(6.43014e-07 -1.95674e-06 0)
(8.30981e-07 -1.89021e-06 0)
(1.02159e-06 -1.81072e-06 0)
(1.2149e-06 -1.72058e-06 0)
(1.41071e-06 -1.62192e-06 0)
(1.60877e-06 -1.51747e-06 0)
(1.80788e-06 -1.40825e-06 0)
(8.94038e-08 -2.09768e-06 0)
(2.68529e-07 -2.08108e-06 0)
(4.48631e-07 -2.04807e-06 0)
(6.30175e-07 -1.9999e-06 0)
(8.1358e-07 -1.93797e-06 0)
(9.9904e-07 -1.86389e-06 0)
(1.18662e-06 -1.77971e-06 0)
(1.37602e-06 -1.68734e-06 0)
(1.56724e-06 -1.58923e-06 0)
(1.7588e-06 -1.48655e-06 0)
(8.77586e-08 -2.13413e-06 0)
(2.63547e-07 -2.11863e-06 0)
(4.40111e-07 -2.08788e-06 0)
(6.17823e-07 -2.04288e-06 0)
(7.97029e-07 -1.98502e-06 0)
(9.77823e-07 -1.91575e-06 0)
(1.16029e-06 -1.83691e-06 0)
(1.34406e-06 -1.75026e-06 0)
(1.52929e-06 -1.65795e-06 0)
(1.71439e-06 -1.56134e-06 0)
(8.61349e-08 -2.17123e-06 0)
(2.58612e-07 -2.15669e-06 0)
(4.31712e-07 -2.12794e-06 0)
(6.05747e-07 -2.08579e-06 0)
(7.81009e-07 -2.03155e-06 0)
(9.57529e-07 -1.9666e-06 0)
(1.13539e-06 -1.89255e-06 0)
(1.31418e-06 -1.81104e-06 0)
(1.49416e-06 -1.72403e-06 0)
(1.6737e-06 -1.63295e-06 0)
(8.45103e-08 -2.20888e-06 0)
(2.5367e-07 -2.19517e-06 0)
(4.23348e-07 -2.16819e-06 0)
(5.93821e-07 -2.1286e-06 0)
(7.65325e-07 -2.07762e-06 0)
(9.3787e-07 -2.01651e-06 0)
(1.11152e-06 -1.94677e-06 0)
(1.28584e-06 -1.86993e-06 0)
(1.46113e-06 -1.78773e-06 0)
(1.63583e-06 -1.70168e-06 0)
(8.28527e-08 -2.24697e-06 0)
(2.48662e-07 -2.23402e-06 0)
(4.14929e-07 -2.20862e-06 0)
(5.81902e-07 -2.17133e-06 0)
(7.49775e-07 -2.12328e-06 0)
(9.18559e-07 -2.06562e-06 0)
(1.0883e-06 -1.99976e-06 0)
(1.25855e-06 -1.92715e-06 0)
(1.42961e-06 -1.84931e-06 0)
(1.60004e-06 -1.76778e-06 0)
(8.11516e-08 -2.28538e-06 0)
(2.4356e-07 -2.27311e-06 0)
(4.06393e-07 -2.24913e-06 0)
(5.69877e-07 -2.21393e-06 0)
(7.34188e-07 -2.16852e-06 0)
(8.99343e-07 -2.11397e-06 0)
(1.06537e-06 -2.05161e-06 0)
(1.23184e-06 -1.98283e-06 0)
(1.39903e-06 -1.90891e-06 0)
(1.56564e-06 -1.83147e-06 0)
(7.94049e-08 -2.32399e-06 0)
(2.38331e-07 -2.31237e-06 0)
(3.97663e-07 -2.28968e-06 0)
(5.57618e-07 -2.25636e-06 0)
(7.18384e-07 -2.21332e-06 0)
(8.79975e-07 -2.1616e-06 0)
(1.04242e-06 -2.10243e-06 0)
(1.20531e-06 -2.03708e-06 0)
(1.36888e-06 -1.96674e-06 0)
(1.532e-06 -1.89301e-06 0)
(7.76019e-08 -2.36267e-06 0)
(2.32924e-07 -2.35165e-06 0)
(3.88646e-07 -2.33012e-06 0)
(5.44995e-07 -2.29852e-06 0)
(7.02174e-07 -2.25766e-06 0)
(8.60203e-07 -2.20853e-06 0)
(1.01912e-06 -2.15226e-06 0)
(1.17854e-06 -2.09002e-06 0)
(1.33867e-06 -2.02298e-06 0)
(1.49855e-06 -1.95259e-06 0)
(7.5717e-08 -2.40131e-06 0)
(2.27265e-07 -2.39086e-06 0)
(3.79228e-07 -2.3704e-06 0)
(5.31847e-07 -2.34039e-06 0)
(6.85346e-07 -2.30154e-06 0)
(8.39757e-07 -2.25479e-06 0)
(9.95123e-07 -2.20114e-06 0)
(1.15113e-06 -2.14175e-06 0)
(1.30793e-06 -2.07773e-06 0)
(1.46471e-06 -2.01035e-06 0)
(7.37208e-08 -2.43972e-06 0)
(2.21281e-07 -2.42982e-06 0)
(3.69291e-07 -2.41035e-06 0)
(5.18009e-07 -2.3818e-06 0)
(6.67677e-07 -2.3448e-06 0)
(8.18355e-07 -2.30022e-06 0)
(9.70102e-07 -2.24901e-06 0)
(1.12267e-06 -2.19228e-06 0)
(1.27618e-06 -2.13102e-06 0)
(1.42996e-06 -2.06644e-06 0)
(7.15849e-08 -2.47785e-06 0)
(2.14893e-07 -2.46848e-06 0)
(3.58698e-07 -2.44993e-06 0)
(5.0328e-07 -2.42273e-06 0)
(6.48904e-07 -2.38747e-06 0)
(7.95668e-07 -2.34494e-06 0)
(9.43659e-07 -2.29601e-06 0)
(1.09269e-06 -2.24178e-06 0)
(1.24289e-06 -2.18303e-06 0)
(1.39367e-06 -2.12106e-06 0)
(6.92853e-08 -2.51528e-06 0)
(2.08022e-07 -2.5064e-06 0)
(3.4731e-07 -2.48873e-06 0)
(4.87458e-07 -2.46281e-06 0)
(6.28758e-07 -2.42918e-06 0)
(7.71366e-07 -2.38858e-06 0)
(9.15392e-07 -2.34185e-06 0)
(1.06074e-06 -2.28995e-06 0)
(1.20748e-06 -2.23362e-06 0)
(1.35523e-06 -2.17405e-06 0)
(6.67816e-08 -2.55219e-06 0)
(2.0054e-07 -2.54378e-06 0)
(3.34909e-07 -2.52699e-06 0)
(4.7023e-07 -2.50231e-06 0)
(6.06839e-07 -2.47026e-06 0)
(7.44955e-07 -2.43154e-06 0)
(8.84733e-07 -2.38692e-06 0)
(1.02613e-06 -2.33722e-06 0)
(1.16924e-06 -2.28324e-06 0)
(1.3138e-06 -2.22596e-06 0)
(6.40553e-08 -2.58749e-06 0)
(1.92389e-07 -2.57949e-06 0)
(3.21383e-07 -2.56358e-06 0)
(4.5144e-07 -2.54014e-06 0)
(5.82955e-07 -2.50966e-06 0)
(7.16198e-07 -2.47282e-06 0)
(8.51362e-07 -2.43029e-06 0)
(9.88467e-07 -2.38282e-06 0)
(1.12767e-06 -2.33115e-06 0)
(1.26888e-06 -2.27618e-06 0)
)


// ************************************************************************* //
