/*--------------------------------*- C++ -*----------------------------------*\
| =========                 |                                                 |
| \\      /  F ield         | foam-extend: Open Source CFD                    |
|  \\    /   O peration     | Version:     4.1                                |
|   \\  /    A nd           | Web:         http://www.foam-extend.org         |
|    \\/     M anipulation  |                                                 |
\*---------------------------------------------------------------------------*/
FoamFile
{
    version     2.0;
    format      ascii;
    class       vectorField;
    location    "5";
    object      solidsCellD_iteration267;
}
// * * * * * * * * * * * * * * * * * * * * * * * * * * * * * * * * * * * * * //


1000
(
(2.66252e-06 -1.17451e-06 0)
(2.50721e-06 -1.09054e-06 0)
(2.40702e-06 -1.03621e-06 0)
(2.34857e-06 -1.00945e-06 0)
(2.31877e-06 -9.98317e-07 0)
(2.30985e-06 -9.99313e-07 0)
(2.31626e-06 -1.00816e-06 0)
(2.33429e-06 -1.0228e-06 0)
(2.3608e-06 -1.04141e-06 0)
(2.39472e-06 -1.06282e-06 0)
(2.40669e-06 -1.28272e-06 0)
(2.24128e-06 -1.22315e-06 0)
(2.13483e-06 -1.1842e-06 0)
(2.07184e-06 -1.16788e-06 0)
(2.03861e-06 -1.16362e-06 0)
(2.02668e-06 -1.16947e-06 0)
(2.03026e-06 -1.18181e-06 0)
(2.04535e-06 -1.19902e-06 0)
(2.06876e-06 -1.21988e-06 0)
(2.09869e-06 -1.24244e-06 0)
(2.14111e-06 -1.38531e-06 0)
(1.97215e-06 -1.35305e-06 0)
(1.86361e-06 -1.33134e-06 0)
(1.79871e-06 -1.32658e-06 0)
(1.76368e-06 -1.32989e-06 0)
(1.74968e-06 -1.34098e-06 0)
(1.75091e-06 -1.35698e-06 0)
(1.76327e-06 -1.37684e-06 0)
(1.78359e-06 -1.39984e-06 0)
(1.80995e-06 -1.42392e-06 0)
(1.86778e-06 -1.48046e-06 0)
(1.70227e-06 -1.47688e-06 0)
(1.59609e-06 -1.4733e-06 0)
(1.53213e-06 -1.48066e-06 0)
(1.49703e-06 -1.49185e-06 0)
(1.48201e-06 -1.50836e-06 0)
(1.48149e-06 -1.52807e-06 0)
(1.49141e-06 -1.55059e-06 0)
(1.50884e-06 -1.57563e-06 0)
(1.53165e-06 -1.60131e-06 0)
(1.58846e-06 -1.56631e-06 0)
(1.4335e-06 -1.59118e-06 0)
(1.33419e-06 -1.60561e-06 0)
(1.27404e-06 -1.62495e-06 0)
(1.24063e-06 -1.64392e-06 0)
(1.22566e-06 -1.66573e-06 0)
(1.22398e-06 -1.68903e-06 0)
(1.23176e-06 -1.71415e-06 0)
(1.2464e-06 -1.7411e-06 0)
(1.26572e-06 -1.76843e-06 0)
(1.30466e-06 -1.64108e-06 0)
(1.16705e-06 -1.69259e-06 0)
(1.07893e-06 -1.72389e-06 0)
(1.02533e-06 -1.75443e-06 0)
(9.95309e-07 -1.78064e-06 0)
(9.81431e-07 -1.80739e-06 0)
(9.7917e-07 -1.83402e-06 0)
(9.85093e-07 -1.86154e-06 0)
(9.97018e-07 -1.89024e-06 0)
(1.01283e-06 -1.91915e-06 0)
(1.01761e-06 -1.7031e-06 0)
(9.03501e-07 -1.77796e-06 0)
(8.3047e-07 -1.82405e-06 0)
(7.85915e-07 -1.8644e-06 0)
(7.60802e-07 -1.89695e-06 0)
(7.48936e-07 -1.92801e-06 0)
(7.46598e-07 -1.95753e-06 0)
(7.50918e-07 -1.98715e-06 0)
(7.60167e-07 -2.01735e-06 0)
(7.72467e-07 -2.04771e-06 0)
(7.28342e-07 -1.75096e-06 0)
(6.4289e-07 -1.84456e-06 0)
(5.88218e-07 -1.90254e-06 0)
(5.54792e-07 -1.95077e-06 0)
(5.3587e-07 -1.9884e-06 0)
(5.26794e-07 -2.02292e-06 0)
(5.24801e-07 -2.05476e-06 0)
(5.27726e-07 -2.08608e-06 0)
(5.3432e-07 -2.11748e-06 0)
(5.431e-07 -2.14904e-06 0)
(4.37638e-07 -1.78349e-06 0)
(3.84732e-07 -1.89022e-06 0)
(3.5088e-07 -1.95651e-06 0)
(3.30148e-07 -2.01025e-06 0)
(3.18376e-07 -2.05144e-06 0)
(3.12673e-07 -2.08837e-06 0)
(3.11336e-07 -2.12183e-06 0)
(3.13018e-07 -2.15435e-06 0)
(3.16965e-07 -2.18659e-06 0)
(3.22228e-07 -2.21901e-06 0)
(1.46156e-07 -1.79988e-06 0)
(1.28224e-07 -1.91338e-06 0)
(1.16736e-07 -1.98397e-06 0)
(1.09687e-07 -2.04055e-06 0)
(1.0567e-07 -2.08359e-06 0)
(1.03708e-07 -2.12178e-06 0)
(1.03224e-07 -2.15608e-06 0)
(1.03761e-07 -2.18921e-06 0)
(1.05067e-07 -2.22189e-06 0)
(1.06814e-07 -2.25475e-06 0)
(4.16535e-06 -5.3686e-08 0)
(4.20418e-06 -3.86434e-08 0)
(4.22658e-06 -2.90464e-08 0)
(4.25028e-06 -2.3341e-08 0)
(4.27557e-06 -2.0101e-08 0)
(4.30674e-06 -1.85164e-08 0)
(4.34367e-06 -1.8045e-08 0)
(4.38699e-06 -1.83037e-08 0)
(4.43652e-06 -1.90863e-08 0)
(4.49163e-06 -2.00482e-08 0)
(4.13424e-06 -1.61023e-07 0)
(4.16661e-06 -1.16774e-07 0)
(4.18496e-06 -8.86049e-08 0)
(4.20596e-06 -7.19029e-08 0)
(4.22948e-06 -6.24566e-08 0)
(4.25939e-06 -5.7879e-08 0)
(4.29541e-06 -5.65721e-08 0)
(4.33798e-06 -5.7412e-08 0)
(4.38691e-06 -5.97827e-08 0)
(4.44133e-06 -6.2687e-08 0)
(4.07213e-06 -2.69283e-07 0)
(4.09219e-06 -1.98209e-07 0)
(4.10275e-06 -1.52995e-07 0)
(4.11858e-06 -1.26257e-07 0)
(4.13869e-06 -1.11193e-07 0)
(4.16619e-06 -1.03977e-07 0)
(4.20046e-06 -1.02025e-07 0)
(4.24159e-06 -1.03544e-07 0)
(4.28934e-06 -1.07513e-07 0)
(4.34244e-06 -1.12381e-07 0)
(3.98014e-06 -3.78876e-07 0)
(3.9827e-06 -2.84819e-07 0)
(3.98217e-06 -2.24966e-07 0)
(3.99066e-06 -1.89713e-07 0)
(4.00591e-06 -1.69954e-07 0)
(4.02996e-06 -1.60656e-07 0)
(4.06174e-06 -1.58355e-07 0)
(4.10082e-06 -1.60703e-07 0)
(4.14688e-06 -1.66285e-07 0)
(4.19812e-06 -1.73149e-07 0)
(3.85976e-06 -4.90105e-07 0)
(3.84067e-06 -3.78154e-07 0)
(3.82643e-06 -3.0687e-07 0)
(3.82581e-06 -2.65124e-07 0)
(3.83506e-06 -2.41901e-07 0)
(3.85484e-06 -2.31264e-07 0)
(3.8835e-06 -2.29017e-07 0)
(3.92004e-06 -2.324e-07 0)
(3.96399e-06 -2.39625e-07 0)
(4.01294e-06 -2.48521e-07 0)
(3.71286e-06 -6.03e-07 0)
(3.66927e-06 -4.79196e-07 0)
(3.63952e-06 -4.00287e-07 0)
(3.6286e-06 -3.54448e-07 0)
(3.63101e-06 -3.29222e-07 0)
(3.64593e-06 -3.18131e-07 0)
(3.67101e-06 -3.16417e-07 0)
(3.70464e-06 -3.21078e-07 0)
(3.74611e-06 -3.29988e-07 0)
(3.79249e-06 -3.40947e-07 0)
(3.54163e-06 -7.17346e-07 0)
(3.47217e-06 -5.88346e-07 0)
(3.42606e-06 -5.06015e-07 0)
(3.40424e-06 -4.58739e-07 0)
(3.39941e-06 -4.33133e-07 0)
(3.40913e-06 -4.22566e-07 0)
(3.43035e-06 -4.21934e-07 0)
(3.46083e-06 -4.28151e-07 0)
(3.49958e-06 -4.38835e-07 0)
(3.54323e-06 -4.51888e-07 0)
(3.34845e-06 -8.32621e-07 0)
(3.25334e-06 -7.05325e-07 0)
(3.19103e-06 -6.23936e-07 0)
(3.15836e-06 -5.77975e-07 0)
(3.14626e-06 -5.53668e-07 0)
(3.15072e-06 -5.44638e-07 0)
(3.16796e-06 -5.45645e-07 0)
(3.19517e-06 -5.53714e-07 0)
(3.23098e-06 -5.6626e-07 0)
(3.27186e-06 -5.81495e-07 0)
(3.13584e-06 -9.48014e-07 0)
(3.0169e-06 -8.29184e-07 0)
(2.93955e-06 -7.53021e-07 0)
(2.89677e-06 -7.11077e-07 0)
(2.87783e-06 -6.89722e-07 0)
(2.87727e-06 -6.83212e-07 0)
(2.8906e-06 -6.86433e-07 0)
(2.91457e-06 -6.96609e-07 0)
(2.94729e-06 -7.11258e-07 0)
(2.98549e-06 -7.28714e-07 0)
(2.90636e-06 -1.06243e-06 0)
(2.7669e-06 -9.58324e-07 0)
(2.67663e-06 -8.91358e-07 0)
(2.62505e-06 -8.55932e-07 0)
(2.60007e-06 -8.39041e-07 0)
(2.59492e-06 -8.35938e-07 0)
(2.60451e-06 -8.41807e-07 0)
(2.62526e-06 -8.54313e-07 0)
(2.65478e-06 -8.71012e-07 0)
(2.69041e-06 -8.91254e-07 0)
(4.55254e-06 -2.10322e-08 0)
(4.61903e-06 -2.11455e-08 0)
(4.68984e-06 -2.13326e-08 0)
(4.76473e-06 -2.14428e-08 0)
(4.8432e-06 -2.14509e-08 0)
(4.92494e-06 -2.13487e-08 0)
(5.00958e-06 -2.11095e-08 0)
(5.09679e-06 -2.07302e-08 0)
(5.18626e-06 -2.01952e-08 0)
(5.27769e-06 -1.9497e-08 0)
(5.3708e-06 -1.86222e-08 0)
(5.4653e-06 -1.75579e-08 0)
(5.5609e-06 -1.62865e-08 0)
(5.6573e-06 -1.47878e-08 0)
(5.75422e-06 -1.30358e-08 0)
(5.85125e-06 -1.10005e-08 0)
(5.9482e-06 -8.64177e-09 0)
(6.04434e-06 -5.9177e-09 0)
(6.13985e-06 -2.75916e-09 0)
(6.23293e-06 8.61338e-10 0)
(4.50451e-06 -6.54073e-08 0)
(4.57504e-06 -6.54316e-08 0)
(4.64947e-06 -6.57038e-08 0)
(4.72749e-06 -6.58012e-08 0)
(4.80875e-06 -6.56258e-08 0)
(4.89295e-06 -6.51569e-08 0)
(4.9798e-06 -6.43048e-08 0)
(5.06899e-06 -6.30573e-08 0)
(5.16026e-06 -6.13635e-08 0)
(5.25333e-06 -5.91979e-08 0)
(5.34795e-06 -5.65173e-08 0)
(5.44384e-06 -5.32808e-08 0)
(5.54075e-06 -4.94338e-08 0)
(5.63836e-06 -4.49143e-08 0)
(5.73644e-06 -3.96428e-08 0)
(5.83458e-06 -3.35282e-08 0)
(5.93259e-06 -2.64495e-08 0)
(6.02976e-06 -1.82803e-08 0)
(6.12628e-06 -8.81269e-09 0)
(6.22038e-06 2.03595e-09 0)
(4.41002e-06 -1.16132e-07 0)
(4.48849e-06 -1.15162e-07 0)
(4.57e-06 -1.147e-07 0)
(4.65415e-06 -1.14159e-07 0)
(4.74088e-06 -1.13273e-07 0)
(4.8299e-06 -1.1202e-07 0)
(4.92108e-06 -1.10214e-07 0)
(5.01417e-06 -1.07826e-07 0)
(5.10897e-06 -1.04754e-07 0)
(5.20527e-06 -1.00947e-07 0)
(5.30286e-06 -9.63251e-08 0)
(5.4015e-06 -9.0812e-08 0)
(5.50097e-06 -8.43115e-08 0)
(5.60099e-06 -7.67158e-08 0)
(5.70135e-06 -6.78884e-08 0)
(5.80166e-06 -5.7674e-08 0)
(5.90177e-06 -4.58682e-08 0)
(6.00098e-06 -3.22576e-08 0)
(6.09951e-06 -1.64942e-08 0)
(6.19561e-06 1.5634e-09 0)
(4.27198e-06 -1.76837e-07 0)
(4.36185e-06 -1.73459e-07 0)
(4.45361e-06 -1.70963e-07 0)
(4.54663e-06 -1.68789e-07 0)
(4.64132e-06 -1.66355e-07 0)
(4.73737e-06 -1.63653e-07 0)
(4.83488e-06 -1.60349e-07 0)
(4.93366e-06 -1.56386e-07 0)
(5.03365e-06 -1.51591e-07 0)
(5.13468e-06 -1.45872e-07 0)
(5.23662e-06 -1.39097e-07 0)
(5.33929e-06 -1.31149e-07 0)
(5.44251e-06 -1.21881e-07 0)
(5.54607e-06 -1.11131e-07 0)
(5.64977e-06 -9.87009e-08 0)
(5.75327e-06 -8.43663e-08 0)
(5.85645e-06 -6.78344e-08 0)
(5.95864e-06 -4.88008e-08 0)
(6.0601e-06 -2.67727e-08 0)
(6.15914e-06 -1.5409e-09 0)
(4.09457e-06 -2.50756e-07 0)
(4.19871e-06 -2.43153e-07 0)
(4.30345e-06 -2.36936e-07 0)
(4.40774e-06 -2.31826e-07 0)
(4.51259e-06 -2.26751e-07 0)
(4.61765e-06 -2.21719e-07 0)
(4.7233e-06 -2.16205e-07 0)
(4.82941e-06 -2.10089e-07 0)
(4.93608e-06 -2.03108e-07 0)
(5.04321e-06 -1.95106e-07 0)
(5.15077e-06 -1.85892e-07 0)
(5.25864e-06 -1.75286e-07 0)
(5.36673e-06 -1.63085e-07 0)
(5.47484e-06 -1.49066e-07 0)
(5.58286e-06 -1.32961e-07 0)
(5.69047e-06 -1.14471e-07 0)
(5.79761e-06 -9.3209e-08 0)
(5.90365e-06 -6.87765e-08 0)
(6.0089e-06 -4.05325e-08 0)
(6.11173e-06 -8.19121e-09 0)
(3.88289e-06 -3.40169e-07 0)
(4.00345e-06 -3.26246e-07 0)
(4.12335e-06 -3.14341e-07 0)
(4.24087e-06 -3.04725e-07 0)
(4.35774e-06 -2.95704e-07 0)
(4.47351e-06 -2.87269e-07 0)
(4.58887e-06 -2.78679e-07 0)
(4.70377e-06 -2.6971e-07 0)
(4.81845e-06 -2.59989e-07 0)
(4.93292e-06 -2.49269e-07 0)
(5.04724e-06 -2.3728e-07 0)
(5.16138e-06 -2.23768e-07 0)
(5.2753e-06 -2.08456e-07 0)
(5.38889e-06 -1.91052e-07 0)
(5.50209e-06 -1.71208e-07 0)
(5.61464e-06 -1.48544e-07 0)
(5.72653e-06 -1.22574e-07 0)
(5.83719e-06 -9.28002e-08 0)
(5.94697e-06 -5.84288e-08 0)
(6.05435e-06 -1.90874e-08 0)
(3.64286e-06 -4.46554e-07 0)
(3.7812e-06 -4.24161e-07 0)
(3.9178e-06 -4.04593e-07 0)
(4.05002e-06 -3.88797e-07 0)
(4.18033e-06 -3.74478e-07 0)
(4.30818e-06 -3.61484e-07 0)
(4.43453e-06 -3.4889e-07 0)
(4.55941e-06 -3.36292e-07 0)
(4.68322e-06 -3.23204e-07 0)
(4.80607e-06 -3.09256e-07 0)
(4.92813e-06 -2.94086e-07 0)
(5.04944e-06 -2.7735e-07 0)
(5.17005e-06 -2.58691e-07 0)
(5.28993e-06 -2.37733e-07 0)
(5.40906e-06 -2.14045e-07 0)
(5.52726e-06 -1.8716e-07 0)
(5.64457e-06 -1.56489e-07 0)
(5.76052e-06 -1.2143e-07 0)
(5.87547e-06 -8.10408e-08 0)
(5.98807e-06 -3.48576e-08 0)
(3.38056e-06 -5.70146e-07 0)
(3.53721e-06 -5.36984e-07 0)
(3.69127e-06 -5.07818e-07 0)
(3.83921e-06 -4.83987e-07 0)
(3.98395e-06 -4.62925e-07 0)
(4.12497e-06 -4.44107e-07 0)
(4.26333e-06 -4.26502e-07 0)
(4.39922e-06 -4.0946e-07 0)
(4.53311e-06 -3.92367e-07 0)
(4.66524e-06 -3.74699e-07 0)
(4.79586e-06 -3.5598e-07 0)
(4.92512e-06 -3.35756e-07 0)
(5.05314e-06 -3.13571e-07 0)
(5.17996e-06 -2.88956e-07 0)
(5.30565e-06 -2.61388e-07 0)
(5.43009e-06 -2.30304e-07 0)
(5.55339e-06 -1.95009e-07 0)
(5.67515e-06 -1.54796e-07 0)
(5.79581e-06 -1.08574e-07 0)
(5.91416e-06 -5.57809e-08 0)
(3.10262e-06 -7.10738e-07 0)
(3.27749e-06 -6.64825e-07 0)
(3.44891e-06 -6.24816e-07 0)
(3.61305e-06 -5.91387e-07 0)
(3.77262e-06 -5.62358e-07 0)
(3.92742e-06 -5.36594e-07 0)
(4.0784e-06 -5.13007e-07 0)
(4.22594e-06 -4.90681e-07 0)
(4.37057e-06 -4.68857e-07 0)
(4.51264e-06 -4.46857e-07 0)
(4.65247e-06 -4.24079e-07 0)
(4.79029e-06 -3.99955e-07 0)
(4.92631e-06 -3.73923e-07 0)
(5.06064e-06 -3.45415e-07 0)
(5.1934e-06 -3.13809e-07 0)
(5.32458e-06 -2.78446e-07 0)
(5.45432e-06 -2.38525e-07 0)
(5.58236e-06 -1.93234e-07 0)
(5.70916e-06 -1.41347e-07 0)
(5.83372e-06 -8.22152e-08 0)
(2.81413e-06 -8.65633e-07 0)
(3.00667e-06 -8.0447e-07 0)
(3.1944e-06 -7.52382e-07 0)
(3.375e-06 -7.07809e-07 0)
(3.54976e-06 -6.69452e-07 0)
(3.71893e-06 -6.35657e-07 0)
(3.88318e-06 -6.0521e-07 0)
(4.04303e-06 -5.76956e-07 0)
(4.199e-06 -5.4993e-07 0)
(4.35155e-06 -5.23276e-07 0)
(4.50108e-06 -4.9623e-07 0)
(4.64792e-06 -4.68087e-07 0)
(4.79235e-06 -4.38163e-07 0)
(4.93455e-06 -4.05781e-07 0)
(5.07474e-06 -3.70215e-07 0)
(5.21296e-06 -3.30709e-07 0)
(5.34944e-06 -2.86356e-07 0)
(5.48402e-06 -2.36249e-07 0)
(5.61723e-06 -1.79027e-07 0)
(5.74829e-06 -1.13941e-07 0)
(2.603e-06 -1.01125e-06 0)
(2.8061e-06 -9.38568e-07 0)
(3.00279e-06 -8.77954e-07 0)
(3.19279e-06 -8.24964e-07 0)
(3.37658e-06 -7.78724e-07 0)
(3.55452e-06 -7.37635e-07 0)
(3.72713e-06 -7.00465e-07 0)
(3.89489e-06 -6.66049e-07 0)
(4.05829e-06 -6.33366e-07 0)
(4.21777e-06 -6.01492e-07 0)
(4.37374e-06 -5.69587e-07 0)
(4.52653e-06 -5.36869e-07 0)
(4.67647e-06 -5.02581e-07 0)
(4.8238e-06 -4.65976e-07 0)
(4.96875e-06 -4.26265e-07 0)
(5.11146e-06 -3.82637e-07 0)
(5.25221e-06 -3.34139e-07 0)
(5.39094e-06 -2.79825e-07 0)
(5.52822e-06 -2.18306e-07 0)
(5.66352e-06 -1.48819e-07 0)
(2.4807e-06 -1.12795e-06 0)
(2.685e-06 -1.0526e-06 0)
(2.88317e-06 -9.87396e-07 0)
(3.07541e-06 -9.29414e-07 0)
(3.26184e-06 -8.77832e-07 0)
(3.44267e-06 -8.31342e-07 0)
(3.61828e-06 -7.88822e-07 0)
(3.78903e-06 -7.49202e-07 0)
(3.95532e-06 -7.11504e-07 0)
(4.11753e-06 -6.74829e-07 0)
(4.27603e-06 -6.38341e-07 0)
(4.43115e-06 -6.01251e-07 0)
(4.58318e-06 -5.62792e-07 0)
(4.73239e-06 -5.22206e-07 0)
(4.87904e-06 -4.787e-07 0)
(5.02331e-06 -4.31461e-07 0)
(5.1655e-06 -3.79556e-07 0)
(5.30566e-06 -3.22065e-07 0)
(5.44436e-06 -2.57667e-07 0)
(5.5813e-06 -1.85662e-07 0)
(2.37455e-06 -1.24087e-06 0)
(2.57698e-06 -1.16352e-06 0)
(2.77473e-06 -1.09508e-06 0)
(2.96722e-06 -1.03313e-06 0)
(3.15456e-06 -9.77061e-07 0)
(3.33673e-06 -9.25822e-07 0)
(3.51398e-06 -8.78434e-07 0)
(3.68653e-06 -8.33955e-07 0)
(3.85469e-06 -7.91481e-07 0)
(4.01878e-06 -7.50166e-07 0)
(4.17909e-06 -7.09203e-07 0)
(4.33594e-06 -6.67821e-07 0)
(4.48959e-06 -6.2526e-07 0)
(4.64032e-06 -5.8077e-07 0)
(4.78838e-06 -5.3357e-07 0)
(4.93399e-06 -4.82864e-07 0)
(5.07747e-06 -4.27756e-07 0)
(5.21895e-06 -3.6737e-07 0)
(5.359e-06 -3.00479e-07 0)
(5.49752e-06 -2.26454e-07 0)
(2.28033e-06 -1.34967e-06 0)
(2.47989e-06 -1.27121e-06 0)
(2.67589e-06 -1.20027e-06 0)
(2.86732e-06 -1.13502e-06 0)
(3.05431e-06 -1.07507e-06 0)
(3.23662e-06 -1.01961e-06 0)
(3.41441e-06 -9.678e-07 0)
(3.58778e-06 -9.18837e-07 0)
(3.75696e-06 -8.71902e-07 0)
(3.92217e-06 -8.2621e-07 0)
(4.08366e-06 -7.80998e-07 0)
(4.2417e-06 -7.35525e-07 0)
(4.39653e-06 -6.89057e-07 0)
(4.54841e-06 -6.40864e-07 0)
(4.69759e-06 -5.90193e-07 0)
(4.84432e-06 -5.36278e-07 0)
(4.98891e-06 -4.78272e-07 0)
(5.13158e-06 -4.15359e-07 0)
(5.27286e-06 -3.4642e-07 0)
(5.41283e-06 -2.70899e-07 0)
(2.1969e-06 -1.45395e-06 0)
(2.39267e-06 -1.375e-06 0)
(2.58589e-06 -1.30233e-06 0)
(2.77523e-06 -1.23454e-06 0)
(2.96083e-06 -1.1714e-06 0)
(3.1423e-06 -1.11232e-06 0)
(3.31972e-06 -1.05662e-06 0)
(3.49307e-06 -1.00362e-06 0)
(3.6625e-06 -9.52588e-07 0)
(3.82817e-06 -9.02829e-07 0)
(3.99026e-06 -8.53632e-07 0)
(4.14899e-06 -8.04302e-07 0)
(4.30458e-06 -7.54142e-07 0)
(4.45727e-06 -7.02457e-07 0)
(4.6073e-06 -6.48532e-07 0)
(4.75492e-06 -5.91648e-07 0)
(4.90046e-06 -5.31017e-07 0)
(5.04416e-06 -4.65893e-07 0)
(5.18654e-06 -3.95277e-07 0)
(5.32783e-06 -3.18693e-07 0)
(2.12245e-06 -1.55363e-06 0)
(2.31395e-06 -1.47473e-06 0)
(2.50371e-06 -1.40092e-06 0)
(2.69023e-06 -1.33116e-06 0)
(2.87368e-06 -1.26543e-06 0)
(3.05354e-06 -1.20328e-06 0)
(3.22983e-06 -1.14418e-06 0)
(3.40246e-06 -1.08758e-06 0)
(3.5715e-06 -1.03286e-06 0)
(3.73703e-06 -9.79383e-07 0)
(3.89921e-06 -9.26519e-07 0)
(4.05819e-06 -8.73621e-07 0)
(4.21417e-06 -8.20041e-07 0)
(4.36735e-06 -7.65129e-07 0)
(4.51797e-06 -7.08217e-07 0)
(4.66627e-06 -6.48641e-07 0)
(4.81257e-06 -5.85682e-07 0)
(4.95716e-06 -5.18671e-07 0)
(5.10051e-06 -4.46736e-07 0)
(5.24297e-06 -3.69478e-07 0)
(2.05554e-06 -1.64881e-06 0)
(2.24246e-06 -1.57032e-06 0)
(2.42831e-06 -1.49586e-06 0)
(2.61151e-06 -1.42468e-06 0)
(2.79223e-06 -1.35688e-06 0)
(2.9699e-06 -1.29217e-06 0)
(3.14449e-06 -1.23017e-06 0)
(3.31583e-06 -1.17043e-06 0)
(3.48396e-06 -1.11242e-06 0)
(3.64888e-06 -1.0556e-06 0)
(3.81071e-06 -9.99408e-07 0)
(3.96955e-06 -9.43253e-07 0)
(4.12558e-06 -8.86544e-07 0)
(4.27897e-06 -8.28683e-07 0)
(4.42995e-06 -7.69059e-07 0)
(4.57874e-06 -7.07066e-07 0)
(4.72564e-06 -6.42062e-07 0)
(4.87097e-06 -5.73458e-07 0)
(5.01517e-06 -5.00512e-07 0)
(5.15864e-06 -4.22903e-07 0)
(1.99479e-06 -1.73965e-06 0)
(2.177e-06 -1.66186e-06 0)
(2.35868e-06 -1.58711e-06 0)
(2.53824e-06 -1.51493e-06 0)
(2.71585e-06 -1.44553e-06 0)
(2.89091e-06 -1.37872e-06 0)
(3.06336e-06 -1.31427e-06 0)
(3.23298e-06 -1.2518e-06 0)
(3.39977e-06 -1.19091e-06 0)
(3.56369e-06 -1.13113e-06 0)
(3.72481e-06 -1.07196e-06 0)
(3.8832e-06 -1.01288e-06 0)
(4.039e-06 -9.53356e-07 0)
(4.19236e-06 -8.92845e-07 0)
(4.34348e-06 -8.30796e-07 0)
(4.49258e-06 -7.66667e-07 0)
(4.63994e-06 -6.99897e-07 0)
(4.78587e-06 -6.29978e-07 0)
(4.93078e-06 -5.56294e-07 0)
(5.07513e-06 -4.78597e-07 0)
(1.93896e-06 -1.82643e-06 0)
(2.11648e-06 -1.7495e-06 0)
(2.29386e-06 -1.67473e-06 0)
(2.4696e-06 -1.6019e-06 0)
(2.64385e-06 -1.53128e-06 0)
(2.81601e-06 -1.46279e-06 0)
(2.98601e-06 -1.39629e-06 0)
(3.1536e-06 -1.33152e-06 0)
(3.31873e-06 -1.26814e-06 0)
(3.48134e-06 -1.20577e-06 0)
(3.64146e-06 -1.14398e-06 0)
(3.79915e-06 -1.08231e-06 0)
(3.95449e-06 -1.02028e-06 0)
(4.10762e-06 -9.57418e-07 0)
(4.25871e-06 -8.93231e-07 0)
(4.40796e-06 -8.27243e-07 0)
(4.55564e-06 -7.58968e-07 0)
(4.70204e-06 -6.87981e-07 0)
(4.84754e-06 -6.13787e-07 0)
(4.99262e-06 -5.36209e-07 0)
(1.88698e-06 -1.90942e-06 0)
(2.05987e-06 -1.83343e-06 0)
(2.23294e-06 -1.75885e-06 0)
(2.40478e-06 -1.68563e-06 0)
(2.57553e-06 -1.61411e-06 0)
(2.74463e-06 -1.5443e-06 0)
(2.91196e-06 -1.47612e-06 0)
(3.0773e-06 -1.40942e-06 0)
(3.24054e-06 -1.34393e-06 0)
(3.40163e-06 -1.27933e-06 0)
(3.56055e-06 -1.21526e-06 0)
(3.71732e-06 -1.15133e-06 0)
(3.87202e-06 -1.08712e-06 0)
(4.02475e-06 -1.02221e-06 0)
(4.17567e-06 -9.5617e-07 0)
(4.32495e-06 -8.88586e-07 0)
(4.47282e-06 -8.19052e-07 0)
(4.61959e-06 -7.47219e-07 0)
(4.76557e-06 -6.72707e-07 0)
(4.91124e-06 -5.95398e-07 0)
(1.83786e-06 -1.98891e-06 0)
(2.00625e-06 -1.9139e-06 0)
(2.17507e-06 -1.83964e-06 0)
(2.34301e-06 -1.76625e-06 0)
(2.51022e-06 -1.69409e-06 0)
(2.67616e-06 -1.62325e-06 0)
(2.84072e-06 -1.55373e-06 0)
(3.00366e-06 -1.48544e-06 0)
(3.16488e-06 -1.41818e-06 0)
(3.32429e-06 -1.3517e-06 0)
(3.48185e-06 -1.28569e-06 0)
(3.63757e-06 -1.21983e-06 0)
(3.7915e-06 -1.15374e-06 0)
(3.94372e-06 -1.08707e-06 0)
(4.09434e-06 -1.01945e-06 0)
(4.24354e-06 -9.50524e-07 0)
(4.39152e-06 -8.79955e-07 0)
(4.53854e-06 -8.07469e-07 0)
(4.68489e-06 -7.32788e-07 0)
(4.83103e-06 -6.55853e-07 0)
(1.79074e-06 -2.06519e-06 0)
(1.95478e-06 -1.99114e-06 0)
(2.11944e-06 -1.91729e-06 0)
(2.28355e-06 -1.84387e-06 0)
(2.44723e-06 -1.7713e-06 0)
(2.61001e-06 -1.69969e-06 0)
(2.77176e-06 -1.62913e-06 0)
(2.93224e-06 -1.55955e-06 0)
(3.09136e-06 -1.49084e-06 0)
(3.249e-06 -1.4228e-06 0)
(3.40512e-06 -1.35518e-06 0)
(3.5597e-06 -1.28769e-06 0)
(3.71276e-06 -1.22003e-06 0)
(3.86438e-06 -1.15188e-06 0)
(4.01463e-06 -1.08294e-06 0)
(4.16367e-06 -1.0129e-06 0)
(4.31166e-06 -9.41498e-07 0)
(4.45886e-06 -8.68522e-07 0)
(4.60549e-06 -7.93789e-07 0)
(4.75199e-06 -7.17287e-07 0)
(1.74479e-06 -2.13853e-06 0)
(1.90466e-06 -2.06538e-06 0)
(2.06529e-06 -1.99199e-06 0)
(2.22568e-06 -1.91867e-06 0)
(2.38592e-06 -1.84586e-06 0)
(2.54558e-06 -1.77371e-06 0)
(2.70454e-06 -1.70236e-06 0)
(2.86258e-06 -1.63179e-06 0)
(3.01958e-06 -1.56193e-06 0)
(3.17543e-06 -1.49263e-06 0)
(3.33007e-06 -1.42369e-06 0)
(3.48346e-06 -1.35487e-06 0)
(3.63562e-06 -1.28591e-06 0)
(3.78657e-06 -1.21655e-06 0)
(3.9364e-06 -1.14652e-06 0)
(4.08522e-06 -1.07558e-06 0)
(4.23317e-06 -1.00353e-06 0)
(4.38046e-06 -9.302e-07 0)
(4.52729e-06 -8.55497e-07 0)
(4.67406e-06 -7.79449e-07 0)
(1.69926e-06 -2.20915e-06 0)
(1.85513e-06 -2.13687e-06 0)
(2.0119e-06 -2.06395e-06 0)
(2.1687e-06 -1.99083e-06 0)
(2.32563e-06 -1.91792e-06 0)
(2.48228e-06 -1.84543e-06 0)
(2.63853e-06 -1.77351e-06 0)
(2.79419e-06 -1.7022e-06 0)
(2.94912e-06 -1.63146e-06 0)
(3.1032e-06 -1.56118e-06 0)
(3.25637e-06 -1.4912e-06 0)
(3.40858e-06 -1.42132e-06 0)
(3.55982e-06 -1.35133e-06 0)
(3.7101e-06 -1.281e-06 0)
(3.85947e-06 -1.21011e-06 0)
(4.00804e-06 -1.13847e-06 0)
(4.15589e-06 -1.06591e-06 0)
(4.30323e-06 -9.92344e-07 0)
(4.4502e-06 -9.17725e-07 0)
(4.59715e-06 -8.4212e-07 0)
(1.65338e-06 -2.27729e-06 0)
(1.80544e-06 -2.20579e-06 0)
(1.95855e-06 -2.13338e-06 0)
(2.11195e-06 -2.06053e-06 0)
(2.26572e-06 -1.98766e-06 0)
(2.41952e-06 -1.915e-06 0)
(2.57321e-06 -1.84272e-06 0)
(2.72659e-06 -1.7709e-06 0)
(2.87955e-06 -1.69952e-06 0)
(3.03195e-06 -1.62852e-06 0)
(3.18372e-06 -1.55775e-06 0)
(3.33478e-06 -1.48707e-06 0)
(3.48512e-06 -1.41629e-06 0)
(3.63474e-06 -1.34521e-06 0)
(3.78365e-06 -1.27366e-06 0)
(3.93194e-06 -1.20147e-06 0)
(4.07968e-06 -1.12855e-06 0)
(4.22701e-06 -1.05483e-06 0)
(4.37407e-06 -9.80318e-07 0)
(4.52112e-06 -9.0512e-07 0)
(1.60646e-06 -2.34311e-06 0)
(1.7549e-06 -2.27245e-06 0)
(1.90449e-06 -2.20049e-06 0)
(2.05474e-06 -2.12796e-06 0)
(2.20558e-06 -2.05526e-06 0)
(2.35673e-06 -1.98257e-06 0)
(2.50804e-06 -1.91013e-06 0)
(2.65934e-06 -1.838e-06 0)
(2.81047e-06 -1.76621e-06 0)
(2.96131e-06 -1.69471e-06 0)
(3.11177e-06 -1.62339e-06 0)
(3.26178e-06 -1.55213e-06 0)
(3.41128e-06 -1.48077e-06 0)
(3.56026e-06 -1.40915e-06 0)
(3.70873e-06 -1.33711e-06 0)
(3.85674e-06 -1.26454e-06 0)
(4.00434e-06 -1.19136e-06 0)
(4.15164e-06 -1.11754e-06 0)
(4.29874e-06 -1.04315e-06 0)
(4.44585e-06 -9.68298e-07 0)
(1.55775e-06 -2.4069e-06 0)
(1.70264e-06 -2.33682e-06 0)
(1.8489e-06 -2.26549e-06 0)
(1.99636e-06 -2.19343e-06 0)
(2.14453e-06 -2.12098e-06 0)
(2.29333e-06 -2.04842e-06 0)
(2.44252e-06 -1.97595e-06 0)
(2.59196e-06 -1.9037e-06 0)
(2.74147e-06 -1.83168e-06 0)
(2.89094e-06 -1.75989e-06 0)
(3.04024e-06 -1.68822e-06 0)
(3.1893e-06 -1.61658e-06 0)
(3.33804e-06 -1.54483e-06 0)
(3.48645e-06 -1.47284e-06 0)
(3.63451e-06 -1.40047e-06 0)
(3.78224e-06 -1.32763e-06 0)
(3.92969e-06 -1.25427e-06 0)
(4.07694e-06 -1.1804e-06 0)
(4.22404e-06 -1.10611e-06 0)
(4.37117e-06 -1.03154e-06 0)
(1.50607e-06 -2.46859e-06 0)
(1.64795e-06 -2.39918e-06 0)
(1.79148e-06 -2.32862e-06 0)
(1.93624e-06 -2.25707e-06 0)
(2.08209e-06 -2.18498e-06 0)
(2.2288e-06 -2.11268e-06 0)
(2.37619e-06 -2.04035e-06 0)
(2.52405e-06 -1.96814e-06 0)
(2.67222e-06 -1.89608e-06 0)
(2.82053e-06 -1.82416e-06 0)
(2.96886e-06 -1.75233e-06 0)
(3.11711e-06 -1.68048e-06 0)
(3.26521e-06 -1.6085e-06 0)
(3.41311e-06 -1.53628e-06 0)
(3.56079e-06 -1.4637e-06 0)
(3.70826e-06 -1.3907e-06 0)
(3.85555e-06 -1.31724e-06 0)
(4.00272e-06 -1.24335e-06 0)
(4.1498e-06 -1.16914e-06 0)
(4.29692e-06 -1.09476e-06 0)
(1.45078e-06 -2.52888e-06 0)
(1.5899e-06 -2.46031e-06 0)
(1.73092e-06 -2.39034e-06 0)
(1.87347e-06 -2.31935e-06 0)
(2.01743e-06 -2.24774e-06 0)
(2.16252e-06 -2.17579e-06 0)
(2.30852e-06 -2.10373e-06 0)
(2.45519e-06 -2.03168e-06 0)
(2.60235e-06 -1.9597e-06 0)
(2.7498e-06 -1.88779e-06 0)
(2.89741e-06 -1.81592e-06 0)
(3.04504e-06 -1.74398e-06 0)
(3.19262e-06 -1.67189e-06 0)
(3.34008e-06 -1.59955e-06 0)
(3.48742e-06 -1.52686e-06 0)
(3.63463e-06 -1.45376e-06 0)
(3.78173e-06 -1.38025e-06 0)
(3.92879e-06 -1.30634e-06 0)
(4.07582e-06 -1.23218e-06 0)
(4.22291e-06 -1.15793e-06 0)
(1.39113e-06 -2.58724e-06 0)
(1.52781e-06 -2.5196e-06 0)
(1.66675e-06 -2.45051e-06 0)
(1.80761e-06 -2.38026e-06 0)
(1.95018e-06 -2.30928e-06 0)
(2.09414e-06 -2.23785e-06 0)
(2.23922e-06 -2.16619e-06 0)
(2.38515e-06 -2.09443e-06 0)
(2.53169e-06 -2.02265e-06 0)
(2.67862e-06 -1.95087e-06 0)
(2.82576e-06 -1.87904e-06 0)
(2.97298e-06 -1.80711e-06 0)
(3.12017e-06 -1.735e-06 0)
(3.26728e-06 -1.66261e-06 0)
(3.41429e-06 -1.58987e-06 0)
(3.56121e-06 -1.51674e-06 0)
(3.70808e-06 -1.44321e-06 0)
(3.85497e-06 -1.36932e-06 0)
(4.0019e-06 -1.29519e-06 0)
(4.14895e-06 -1.22097e-06 0)
(1.06256e-07 -2.28853e-06 0)
(3.20359e-07 -2.25448e-06 0)
(5.39305e-07 -2.18779e-06 0)
(7.65806e-07 -2.09106e-06 0)
(1.00212e-06 -1.96802e-06 0)
(1.24969e-06 -1.82327e-06 0)
(1.50906e-06 -1.66205e-06 0)
(1.77983e-06 -1.48996e-06 0)
(2.06074e-06 -1.31265e-06 0)
(2.34984e-06 -1.13475e-06 0)
(1.03093e-07 -2.32356e-06 0)
(3.10629e-07 -2.29246e-06 0)
(5.22235e-07 -2.23149e-06 0)
(7.40199e-07 -2.14286e-06 0)
(9.66456e-07 -2.02973e-06 0)
(1.20226e-06 -1.89602e-06 0)
(1.44812e-06 -1.7462e-06 0)
(1.70371e-06 -1.58506e-06 0)
(1.96748e-06 -1.41779e-06 0)
(2.23831e-06 -1.24775e-06 0)
(1.00343e-07 -2.35946e-06 0)
(3.02147e-07 -2.33102e-06 0)
(5.07292e-07 -2.27524e-06 0)
(7.17648e-07 -2.19401e-06 0)
(9.34822e-07 -2.09009e-06 0)
(1.1599e-06 -1.96684e-06 0)
(1.39338e-06 -1.82809e-06 0)
(1.63529e-06 -1.67785e-06 0)
(1.88447e-06 -1.52065e-06 0)
(2.14035e-06 -1.35828e-06 0)
(9.78968e-08 -2.39631e-06 0)
(2.94631e-07 -2.37014e-06 0)
(4.94154e-07 -2.31878e-06 0)
(6.98023e-07 -2.24388e-06 0)
(9.07571e-07 -2.14786e-06 0)
(1.1237e-06 -2.03365e-06 0)
(1.34678e-06 -1.90467e-06 0)
(1.57684e-06 -1.76436e-06 0)
(1.81294e-06 -1.61699e-06 0)
(2.05452e-06 -1.46373e-06 0)
(9.56406e-08 -2.43408e-06 0)
(2.87708e-07 -2.40993e-06 0)
(4.82099e-07 -2.36252e-06 0)
(6.80102e-07 -2.29331e-06 0)
(8.82831e-07 -2.20444e-06 0)
(1.09104e-06 -2.09851e-06 0)
(1.30508e-06 -1.97853e-06 0)
(1.52496e-06 -1.84744e-06 0)
(1.75005e-06 -1.7091e-06 0)
(1.97931e-06 -1.56453e-06 0)
(9.35422e-08 -2.47271e-06 0)
(2.8129e-07 -2.45033e-06 0)
(4.70995e-07 -2.40634e-06 0)
(6.63735e-07 -2.34208e-06 0)
(8.60439e-07 -2.25947e-06 0)
(1.06171e-06 -2.16084e-06 0)
(1.26786e-06 -2.04891e-06 0)
(1.47878e-06 -1.9263e-06 0)
(1.69422e-06 -1.79646e-06 0)
(1.91271e-06 -1.66051e-06 0)
(9.15354e-08 -2.51216e-06 0)
(2.75167e-07 -2.49134e-06 0)
(4.60463e-07 -2.4504e-06 0)
(6.48326e-07 -2.39057e-06 0)
(8.39549e-07 -2.31357e-06 0)
(1.03462e-06 -2.2215e-06 0)
(1.23382e-06 -2.11684e-06 0)
(1.43694e-06 -2.00193e-06 0)
(1.644e-06 -1.87984e-06 0)
(1.8532e-06 -1.75191e-06 0)
(8.95946e-08 -2.55232e-06 0)
(2.69264e-07 -2.53288e-06 0)
(4.50366e-07 -2.49464e-06 0)
(6.33669e-07 -2.4387e-06 0)
(8.19854e-07 -2.36668e-06 0)
(1.0093e-06 -2.28047e-06 0)
(1.20228e-06 -2.18233e-06 0)
(1.3985e-06 -2.07444e-06 0)
(1.59817e-06 -1.95948e-06 0)
(1.79934e-06 -1.83902e-06 0)
(8.76821e-08 -2.59313e-06 0)
(2.63462e-07 -2.57491e-06 0)
(4.40497e-07 -2.53907e-06 0)
(6.19447e-07 -2.48663e-06 0)
(8.00911e-07 -2.41906e-06 0)
(9.85184e-07 -2.33811e-06 0)
(1.17255e-06 -2.24585e-06 0)
(1.36261e-06 -2.1443e-06 0)
(1.55573e-06 -2.03582e-06 0)
(1.74989e-06 -1.92217e-06 0)
(8.57753e-08 -2.63445e-06 0)
(2.57693e-07 -2.61733e-06 0)
(4.30728e-07 -2.58364e-06 0)
(6.05464e-07 -2.53432e-06 0)
(7.82437e-07 -2.47073e-06 0)
(9.61876e-07 -2.3945e-06 0)
(1.14406e-06 -2.30753e-06 0)
(1.32855e-06 -2.21173e-06 0)
(1.51578e-06 -2.10917e-06 0)
(1.7038e-06 -2.00172e-06 0)
(8.3848e-08 -2.67621e-06 0)
(2.51874e-07 -2.66007e-06 0)
(4.2092e-07 -2.62832e-06 0)
(5.91509e-07 -2.5818e-06 0)
(7.64134e-07 -2.5218e-06 0)
(9.38984e-07 -2.44983e-06 0)
(1.11633e-06 -2.36763e-06 0)
(1.29572e-06 -2.27702e-06 0)
(1.47759e-06 -2.17984e-06 0)
(1.66013e-06 -2.078e-06 0)
(8.18785e-08 -2.71826e-06 0)
(2.4594e-07 -2.70302e-06 0)
(4.10953e-07 -2.673e-06 0)
(5.77404e-07 -2.62903e-06 0)
(7.45753e-07 -2.57227e-06 0)
(9.16168e-07 -2.50414e-06 0)
(1.0889e-06 -2.42627e-06 0)
(1.26354e-06 -2.34036e-06 0)
(1.44047e-06 -2.24807e-06 0)
(1.61807e-06 -2.1513e-06 0)
(7.98431e-08 -2.7605e-06 0)
(2.39818e-07 -2.74606e-06 0)
(4.00701e-07 -2.71763e-06 0)
(5.62962e-07 -2.67596e-06 0)
(7.2704e-07 -2.62215e-06 0)
(8.93096e-07 -2.55752e-06 0)
(1.06137e-06 -2.48357e-06 0)
(1.23149e-06 -2.40192e-06 0)
(1.40379e-06 -2.31407e-06 0)
(1.57685e-06 -2.2219e-06 0)
(7.77179e-08 -2.80275e-06 0)
(2.33435e-07 -2.78905e-06 0)
(3.90041e-07 -2.76207e-06 0)
(5.48001e-07 -2.72252e-06 0)
(7.07746e-07 -2.67139e-06 0)
(8.69444e-07 -2.60996e-06 0)
(1.03333e-06 -2.53958e-06 0)
(1.19908e-06 -2.46181e-06 0)
(1.36697e-06 -2.37802e-06 0)
(1.53576e-06 -2.29001e-06 0)
(7.54759e-08 -2.84489e-06 0)
(2.26709e-07 -2.83188e-06 0)
(3.78831e-07 -2.80624e-06 0)
(5.32317e-07 -2.76863e-06 0)
(6.876e-07 -2.71999e-06 0)
(8.44867e-07 -2.66148e-06 0)
(1.00435e-06 -2.59439e-06 0)
(1.16578e-06 -2.52017e-06 0)
(1.32938e-06 -2.44009e-06 0)
(1.49411e-06 -2.35585e-06 0)
(7.30882e-08 -2.88668e-06 0)
(2.19552e-07 -2.8743e-06 0)
(3.66924e-07 -2.84991e-06 0)
(5.15698e-07 -2.81411e-06 0)
(6.66319e-07 -2.76777e-06 0)
(8.19006e-07 -2.71199e-06 0)
(9.73993e-07 -2.64794e-06 0)
(1.13108e-06 -2.57699e-06 0)
(1.29044e-06 -2.50032e-06 0)
(1.45121e-06 -2.41953e-06 0)
(7.05188e-08 -2.92803e-06 0)
(2.11857e-07 -2.91626e-06 0)
(3.54137e-07 -2.89304e-06 0)
(4.97883e-07 -2.85895e-06 0)
(6.43562e-07 -2.81477e-06 0)
(7.91434e-07 -2.76153e-06 0)
(9.41748e-07 -2.70033e-06 0)
(1.09436e-06 -2.63244e-06 0)
(1.24945e-06 -2.55895e-06 0)
(1.40626e-06 -2.48136e-06 0)
(6.77309e-08 -2.96844e-06 0)
(2.03512e-07 -2.95723e-06 0)
(3.40282e-07 -2.93514e-06 0)
(4.78606e-07 -2.90267e-06 0)
(6.18982e-07 -2.86057e-06 0)
(7.61719e-07 -2.80976e-06 0)
(9.07087e-07 -2.75126e-06 0)
(1.05503e-06 -2.68627e-06 0)
(1.20567e-06 -2.61578e-06 0)
(1.35846e-06 -2.54121e-06 0)
(6.4667e-08 -3.00814e-06 0)
(1.94344e-07 -2.99749e-06 0)
(3.25073e-07 -2.97649e-06 0)
(4.57462e-07 -2.9456e-06 0)
(5.92057e-07 -2.90549e-06 0)
(7.29223e-07 -2.85703e-06 0)
(8.69271e-07 -2.80114e-06 0)
(1.01222e-06 -2.73893e-06 0)
(1.1582e-06 -2.67133e-06 0)
(1.30683e-06 -2.59963e-06 0)
(6.13007e-08 -3.04572e-06 0)
(1.84276e-07 -3.03563e-06 0)
(3.08375e-07 -3.01571e-06 0)
(4.34255e-07 -2.9864e-06 0)
(5.6252e-07 -2.94829e-06 0)
(6.93601e-07 -2.90218e-06 0)
(8.27874e-07 -2.84891e-06 0)
(9.65444e-07 -2.7895e-06 0)
(1.10647e-06 -2.72481e-06 0)
(1.2507e-06 -2.65603e-06 0)
)


// ************************************************************************* //
