/*--------------------------------*- C++ -*----------------------------------*\
| =========                 |                                                 |
| \\      /  F ield         | foam-extend: Open Source CFD                    |
|  \\    /   O peration     | Version:     4.1                                |
|   \\  /    A nd           | Web:         http://www.foam-extend.org         |
|    \\/     M anipulation  |                                                 |
\*---------------------------------------------------------------------------*/
FoamFile
{
    version     2.0;
    format      ascii;
    class       vectorField;
    location    "5";
    object      solidsCellD_iteration2;
}
// * * * * * * * * * * * * * * * * * * * * * * * * * * * * * * * * * * * * * //


1000
(
(2.42724e-06 -9.71141e-07 0)
(2.2991e-06 -9.06385e-07 0)
(2.2185e-06 -8.66261e-07 0)
(2.17387e-06 -8.48744e-07 0)
(2.15403e-06 -8.4419e-07 0)
(2.15236e-06 -8.4969e-07 0)
(2.16405e-06 -8.61762e-07 0)
(2.18578e-06 -8.78869e-07 0)
(2.21467e-06 -8.99541e-07 0)
(2.24812e-06 -9.23429e-07 0)
(2.19604e-06 -1.06087e-06 0)
(2.05934e-06 -1.01672e-06 0)
(1.97314e-06 -9.89791e-07 0)
(1.92425e-06 -9.81296e-07 0)
(1.90098e-06 -9.82754e-07 0)
(1.89596e-06 -9.92605e-07 0)
(1.90424e-06 -1.00786e-06 0)
(1.92224e-06 -1.02729e-06 0)
(1.94713e-06 -1.04981e-06 0)
(1.97648e-06 -1.07431e-06 0)
(1.9553e-06 -1.1459e-06 0)
(1.8155e-06 -1.1248e-06 0)
(1.72727e-06 -1.11248e-06 0)
(1.6763e-06 -1.11388e-06 0)
(1.65088e-06 -1.12182e-06 0)
(1.64342e-06 -1.13613e-06 0)
(1.64889e-06 -1.15447e-06 0)
(1.66379e-06 -1.176e-06 0)
(1.68532e-06 -1.19999e-06 0)
(1.71133e-06 -1.2252e-06 0)
(1.70699e-06 -1.22473e-06 0)
(1.56994e-06 -1.2278e-06 0)
(1.48339e-06 -1.23076e-06 0)
(1.43273e-06 -1.24237e-06 0)
(1.40664e-06 -1.25699e-06 0)
(1.39768e-06 -1.27582e-06 0)
(1.40102e-06 -1.29718e-06 0)
(1.41323e-06 -1.32074e-06 0)
(1.43178e-06 -1.3462e-06 0)
(1.45454e-06 -1.37232e-06 0)
(1.45275e-06 -1.29581e-06 0)
(1.32436e-06 -1.32279e-06 0)
(1.24318e-06 -1.34091e-06 0)
(1.19525e-06 -1.3626e-06 0)
(1.17006e-06 -1.3837e-06 0)
(1.16057e-06 -1.4069e-06 0)
(1.16235e-06 -1.43118e-06 0)
(1.17216e-06 -1.45674e-06 0)
(1.18786e-06 -1.48359e-06 0)
(1.20734e-06 -1.51076e-06 0)
(1.19395e-06 -1.35766e-06 0)
(1.07984e-06 -1.40702e-06 0)
(1.00768e-06 -1.43926e-06 0)
(9.64809e-07 -1.47034e-06 0)
(9.41965e-07 -1.49753e-06 0)
(9.32796e-07 -1.52483e-06 0)
(9.3352e-07 -1.55177e-06 0)
(9.41236e-07 -1.57919e-06 0)
(9.54123e-07 -1.60733e-06 0)
(9.70212e-07 -1.63559e-06 0)
(9.31767e-07 -1.4089e-06 0)
(8.37096e-07 -1.47786e-06 0)
(7.77217e-07 -1.5225e-06 0)
(7.41466e-07 -1.5618e-06 0)
(7.22213e-07 -1.59428e-06 0)
(7.14185e-07 -1.62516e-06 0)
(7.14287e-07 -1.65444e-06 0)
(7.20099e-07 -1.68352e-06 0)
(7.30163e-07 -1.71281e-06 0)
(7.42773e-07 -1.7421e-06 0)
(6.67172e-07 -1.44838e-06 0)
(5.96259e-07 -1.53309e-06 0)
(5.514e-07 -1.58771e-06 0)
(5.24547e-07 -1.63357e-06 0)
(5.09957e-07 -1.6703e-06 0)
(5.03717e-07 -1.70404e-06 0)
(5.03533e-07 -1.73522e-06 0)
(5.07581e-07 -1.76565e-06 0)
(5.14796e-07 -1.79586e-06 0)
(5.23842e-07 -1.82598e-06 0)
(4.00999e-07 -1.4752e-06 0)
(3.57103e-07 -1.57091e-06 0)
(3.29314e-07 -1.63253e-06 0)
(3.12614e-07 -1.68302e-06 0)
(3.0349e-07 -1.72272e-06 0)
(2.99551e-07 -1.75844e-06 0)
(2.99354e-07 -1.79095e-06 0)
(3.01731e-07 -1.82236e-06 0)
(3.06044e-07 -1.85326e-06 0)
(3.11476e-07 -1.88404e-06 0)
(1.33938e-07 -1.4887e-06 0)
(1.19033e-07 -1.59007e-06 0)
(1.09594e-07 -1.6553e-06 0)
(1.03931e-07 -1.70819e-06 0)
(1.00827e-07 -1.74941e-06 0)
(9.94524e-08 -1.78616e-06 0)
(9.93456e-08 -1.81933e-06 0)
(1.00125e-07 -1.85121e-06 0)
(1.01559e-07 -1.88242e-06 0)
(1.03361e-07 -1.91352e-06 0)
(3.77208e-06 -4.43067e-08 0)
(3.80554e-06 -3.20773e-08 0)
(3.82755e-06 -2.43668e-08 0)
(3.85202e-06 -1.98788e-08 0)
(3.87912e-06 -1.74266e-08 0)
(3.91208e-06 -1.63534e-08 0)
(3.95069e-06 -1.61948e-08 0)
(3.99523e-06 -1.66343e-08 0)
(4.04556e-06 -1.75098e-08 0)
(4.10101e-06 -1.85374e-08 0)
(3.74453e-06 -1.3291e-07 0)
(3.77259e-06 -9.69538e-08 0)
(3.79122e-06 -7.43265e-08 0)
(3.81346e-06 -6.1215e-08 0)
(3.83909e-06 -5.40935e-08 0)
(3.87097e-06 -5.09889e-08 0)
(3.90883e-06 -5.05883e-08 0)
(3.95277e-06 -5.19729e-08 0)
(4.00257e-06 -5.46116e-08 0)
(4.05746e-06 -5.76951e-08 0)
(3.68942e-06 -2.22275e-07 0)
(3.70725e-06 -1.6458e-07 0)
(3.71942e-06 -1.28303e-07 0)
(3.73739e-06 -1.07328e-07 0)
(3.7602e-06 -9.60132e-08 0)
(3.79011e-06 -9.11941e-08 0)
(3.82652e-06 -9.07121e-08 0)
(3.86926e-06 -9.31022e-08 0)
(3.9181e-06 -9.75026e-08 0)
(3.97195e-06 -1.02659e-07 0)
(3.60772e-06 -3.12774e-07 0)
(3.61104e-06 -2.36505e-07 0)
(3.61397e-06 -1.8858e-07 0)
(3.62588e-06 -1.61005e-07 0)
(3.64465e-06 -1.46239e-07 0)
(3.67167e-06 -1.40139e-07 0)
(3.70599e-06 -1.39812e-07 0)
(3.74708e-06 -1.43339e-07 0)
(3.79454e-06 -1.49532e-07 0)
(3.84694e-06 -1.56784e-07 0)
(3.50065e-06 -4.0466e-07 0)
(3.48604e-06 -3.14018e-07 0)
(3.47756e-06 -2.57087e-07 0)
(3.48188e-06 -2.24584e-07 0)
(3.49566e-06 -2.07376e-07 0)
(3.51915e-06 -2.00591e-07 0)
(3.55088e-06 -2.00749e-07 0)
(3.58991e-06 -2.05571e-07 0)
(3.63565e-06 -2.13572e-07 0)
(3.68632e-06 -2.2293e-07 0)
(3.3698e-06 -4.97971e-07 0)
(3.33484e-06 -3.97951e-07 0)
(3.31344e-06 -3.35148e-07 0)
(3.30917e-06 -2.99694e-07 0)
(3.31728e-06 -2.81254e-07 0)
(3.33674e-06 -2.74508e-07 0)
(3.36552e-06 -2.75521e-07 0)
(3.40217e-06 -2.81801e-07 0)
(3.44594e-06 -2.9162e-07 0)
(3.49474e-06 -3.03091e-07 0)
(3.21697e-06 -5.92531e-07 0)
(3.1605e-06 -4.88651e-07 0)
(3.12549e-06 -4.2345e-07 0)
(3.11212e-06 -3.87241e-07 0)
(3.11417e-06 -3.68909e-07 0)
(3.12931e-06 -3.6299e-07 0)
(3.15489e-06 -3.65281e-07 0)
(3.18897e-06 -3.73225e-07 0)
(3.2306e-06 -3.84927e-07 0)
(3.27753e-06 -3.98521e-07 0)
(3.04414e-06 -6.87901e-07 0)
(2.96634e-06 -5.85907e-07 0)
(2.91778e-06 -5.21932e-07 0)
(2.89532e-06 -4.87233e-07 0)
(2.89123e-06 -4.704e-07 0)
(2.90195e-06 -4.66142e-07 0)
(2.92422e-06 -4.70153e-07 0)
(2.95565e-06 -4.79977e-07 0)
(2.99502e-06 -4.93605e-07 0)
(3.04015e-06 -5.09364e-07 0)
(2.85347e-06 -7.8341e-07 0)
(2.75577e-06 -6.88926e-07 0)
(2.69464e-06 -6.29753e-07 0)
(2.66364e-06 -5.98804e-07 0)
(2.65369e-06 -5.84846e-07 0)
(2.66008e-06 -5.83088e-07 0)
(2.67898e-06 -5.89321e-07 0)
(2.70766e-06 -6.01252e-07 0)
(2.74452e-06 -6.16991e-07 0)
(2.78789e-06 -6.34881e-07 0)
(2.64714e-06 -8.78148e-07 0)
(2.53226e-06 -7.96337e-07 0)
(2.4602e-06 -7.45279e-07 0)
(2.42166e-06 -7.20183e-07 0)
(2.40639e-06 -7.10387e-07 0)
(2.40858e-06 -7.11939e-07 0)
(2.424e-06 -7.20895e-07 0)
(2.44971e-06 -7.35325e-07 0)
(2.48377e-06 -7.53401e-07 0)
(2.525e-06 -7.74282e-07 0)
(4.16153e-06 -1.95602e-08 0)
(4.2274e-06 -1.98461e-08 0)
(4.2974e-06 -2.01711e-08 0)
(4.37127e-06 -2.04289e-08 0)
(4.44856e-06 -2.05933e-08 0)
(4.529e-06 -2.06455e-08 0)
(4.61229e-06 -2.05677e-08 0)
(4.69811e-06 -2.03826e-08 0)
(4.78613e-06 -2.00916e-08 0)
(4.87609e-06 -1.96708e-08 0)
(4.96777e-06 -1.90868e-08 0)
(5.06088e-06 -1.83285e-08 0)
(5.15518e-06 -1.73937e-08 0)
(5.25038e-06 -1.62725e-08 0)
(5.34627e-06 -1.49419e-08 0)
(5.44247e-06 -1.33739e-08 0)
(5.53882e-06 -1.15347e-08 0)
(5.63472e-06 -9.3901e-09 0)
(5.73026e-06 -6.89005e-09 0)
(5.82404e-06 -4.02293e-09 0)
(4.11986e-06 -6.05807e-08 0)
(4.18913e-06 -6.12004e-08 0)
(4.2622e-06 -6.19478e-08 0)
(4.33876e-06 -6.25136e-08 0)
(4.4185e-06 -6.28195e-08 0)
(4.50112e-06 -6.2848e-08 0)
(4.58638e-06 -6.25403e-08 0)
(4.67397e-06 -6.19122e-08 0)
(4.76363e-06 -6.09301e-08 0)
(4.8551e-06 -5.95521e-08 0)
(4.94816e-06 -5.77231e-08 0)
(5.04255e-06 -5.54131e-08 0)
(5.13807e-06 -5.25895e-08 0)
(5.23444e-06 -4.92051e-08 0)
(5.3314e-06 -4.5191e-08 0)
(5.42861e-06 -4.04712e-08 0)
(5.52593e-06 -3.49469e-08 0)
(5.62273e-06 -2.85178e-08 0)
(5.7192e-06 -2.10329e-08 0)
(5.81394e-06 -1.24476e-08 0)
(4.03802e-06 -1.0683e-07 0)
(4.11399e-06 -1.07027e-07 0)
(4.19313e-06 -1.07503e-07 0)
(4.27497e-06 -1.07847e-07 0)
(4.35942e-06 -1.0786e-07 0)
(4.44626e-06 -1.07527e-07 0)
(4.53538e-06 -1.0671e-07 0)
(4.62647e-06 -1.05405e-07 0)
(4.71931e-06 -1.0353e-07 0)
(4.8137e-06 -1.0103e-07 0)
(4.90947e-06 -9.78322e-08 0)
(5.00641e-06 -9.38809e-08 0)
(5.10432e-06 -8.91011e-08 0)
(5.20292e-06 -8.34012e-08 0)
(5.30201e-06 -7.66658e-08 0)
(5.40128e-06 -6.87674e-08 0)
(5.50055e-06 -5.95412e-08 0)
(5.59926e-06 -4.88285e-08 0)
(5.69759e-06 -3.63782e-08 0)
(5.79415e-06 -2.21067e-08 0)
(3.91829e-06 -1.61313e-07 0)
(4.00387e-06 -1.59879e-07 0)
(4.09178e-06 -1.58983e-07 0)
(4.1813e-06 -1.58281e-07 0)
(4.27273e-06 -1.57313e-07 0)
(4.3658e-06 -1.56065e-07 0)
(4.46054e-06 -1.54278e-07 0)
(4.55672e-06 -1.51926e-07 0)
(4.65425e-06 -1.48874e-07 0)
(4.75297e-06 -1.45034e-07 0)
(4.85276e-06 -1.40294e-07 0)
(4.95344e-06 -1.3456e-07 0)
(5.05482e-06 -1.27709e-07 0)
(5.15668e-06 -1.19607e-07 0)
(5.25887e-06 -1.10095e-07 0)
(5.36111e-06 -9.89896e-08 0)
(5.46325e-06 -8.60586e-08 0)
(5.56476e-06 -7.10828e-08 0)
(5.66584e-06 -5.37039e-08 0)
(5.76507e-06 -3.37934e-08 0)
(3.76422e-06 -2.26657e-07 0)
(3.86192e-06 -2.22078e-07 0)
(3.96102e-06 -2.18415e-07 0)
(4.06035e-06 -2.15587e-07 0)
(4.16068e-06 -2.12732e-07 0)
(4.26172e-06 -2.09842e-07 0)
(4.36374e-06 -2.06505e-07 0)
(4.46652e-06 -2.02637e-07 0)
(4.57011e-06 -1.9803e-07 0)
(4.6744e-06 -1.92543e-07 0)
(4.77936e-06 -1.86013e-07 0)
(4.88482e-06 -1.78291e-07 0)
(4.99068e-06 -1.69207e-07 0)
(5.09678e-06 -1.58584e-07 0)
(5.20302e-06 -1.46214e-07 0)
(5.30909e-06 -1.31858e-07 0)
(5.41494e-06 -1.15218e-07 0)
(5.52002e-06 -9.60037e-08 0)
(5.62461e-06 -7.37479e-08 0)
(5.72734e-06 -4.8258e-08 0)
(3.58017e-06 -3.04729e-07 0)
(3.6919e-06 -2.95267e-07 0)
(3.80413e-06 -2.87211e-07 0)
(3.91504e-06 -2.8097e-07 0)
(4.02601e-06 -2.75166e-07 0)
(4.1366e-06 -2.6976e-07 0)
(4.24734e-06 -2.64171e-07 0)
(4.35806e-06 -2.58211e-07 0)
(4.46891e-06 -2.51579e-07 0)
(4.57988e-06 -2.44066e-07 0)
(4.69102e-06 -2.35447e-07 0)
(4.80225e-06 -2.25511e-07 0)
(4.9135e-06 -2.1403e-07 0)
(5.02468e-06 -2.00775e-07 0)
(5.13574e-06 -1.8548e-07 0)
(5.24639e-06 -1.67847e-07 0)
(5.35666e-06 -1.47511e-07 0)
(5.46602e-06 -1.24103e-07 0)
(5.57483e-06 -9.70343e-08 0)
(5.68176e-06 -6.60302e-08 0)
(3.37108e-06 -3.96788e-07 0)
(3.49822e-06 -3.80651e-07 0)
(3.62511e-06 -3.66562e-07 0)
(3.74905e-06 -3.55518e-07 0)
(3.872e-06 -3.45631e-07 0)
(3.99342e-06 -3.36747e-07 0)
(4.11401e-06 -3.28121e-07 0)
(4.23372e-06 -3.19421e-07 0)
(4.35283e-06 -3.1024e-07 0)
(4.47143e-06 -3.00268e-07 0)
(4.58964e-06 -2.89208e-07 0)
(4.70744e-06 -2.76779e-07 0)
(4.82485e-06 -2.62692e-07 0)
(4.94182e-06 -2.46658e-07 0)
(5.05834e-06 -2.28344e-07 0)
(5.17421e-06 -2.07391e-07 0)
(5.28953e-06 -1.83354e-07 0)
(5.40381e-06 -1.5578e-07 0)
(5.51744e-06 -1.2395e-07 0)
(5.62919e-06 -8.75092e-08 0)
(3.14202e-06 -5.03064e-07 0)
(3.28537e-06 -4.78319e-07 0)
(3.42789e-06 -4.56572e-07 0)
(3.56596e-06 -4.39184e-07 0)
(3.70189e-06 -4.23994e-07 0)
(3.8352e-06 -4.10568e-07 0)
(3.96661e-06 -3.98039e-07 0)
(4.09625e-06 -3.85886e-07 0)
(4.22448e-06 -3.73598e-07 0)
(4.3515e-06 -3.60734e-07 0)
(4.47749e-06 -3.46906e-07 0)
(4.60251e-06 -3.31749e-07 0)
(4.72663e-06 -3.14902e-07 0)
(4.84994e-06 -2.96002e-07 0)
(4.97245e-06 -2.74642e-07 0)
(5.09406e-06 -2.50385e-07 0)
(5.21492e-06 -2.22698e-07 0)
(5.33458e-06 -1.91034e-07 0)
(5.45352e-06 -1.54542e-07 0)
(5.57061e-06 -1.12805e-07 0)
(2.89832e-06 -6.23541e-07 0)
(3.05854e-06 -5.88464e-07 0)
(3.2171e-06 -5.57959e-07 0)
(3.37004e-06 -5.32865e-07 0)
(3.51952e-06 -5.11306e-07 0)
(3.66532e-06 -4.92332e-07 0)
(3.80815e-06 -4.75036e-07 0)
(3.94829e-06 -4.58682e-07 0)
(4.08619e-06 -4.42637e-07 0)
(4.22215e-06 -4.26336e-07 0)
(4.3564e-06 -4.09292e-07 0)
(4.4891e-06 -3.91053e-07 0)
(4.62042e-06 -3.7118e-07 0)
(4.75051e-06 -3.49228e-07 0)
(4.8794e-06 -3.24699e-07 0)
(5.00714e-06 -2.97077e-07 0)
(5.1339e-06 -2.65732e-07 0)
(5.25933e-06 -2.30019e-07 0)
(5.38392e-06 -1.88977e-07 0)
(5.50678e-06 -1.42149e-07 0)
(2.6444e-06 -7.56804e-07 0)
(2.8225e-06 -7.08858e-07 0)
(2.99701e-06 -6.68332e-07 0)
(3.16538e-06 -6.34052e-07 0)
(3.32883e-06 -6.04837e-07 0)
(3.48762e-06 -5.79292e-07 0)
(3.64231e-06 -5.56415e-07 0)
(3.79338e-06 -5.35259e-07 0)
(3.94132e-06 -5.15016e-07 0)
(4.08655e-06 -4.94974e-07 0)
(4.22937e-06 -4.74517e-07 0)
(4.37003e-06 -4.53085e-07 0)
(4.50879e-06 -4.30143e-07 0)
(4.64586e-06 -4.05148e-07 0)
(4.78134e-06 -3.77512e-07 0)
(4.91539e-06 -3.46634e-07 0)
(5.04817e-06 -3.1179e-07 0)
(5.17951e-06 -2.72249e-07 0)
(5.30992e-06 -2.26949e-07 0)
(5.43875e-06 -1.75356e-07 0)
(2.45226e-06 -8.86613e-07 0)
(2.64504e-06 -8.26752e-07 0)
(2.83009e-06 -7.7828e-07 0)
(3.0083e-06 -7.36562e-07 0)
(3.18063e-06 -7.00566e-07 0)
(3.34771e-06 -6.68862e-07 0)
(3.51014e-06 -6.40376e-07 0)
(3.66843e-06 -6.14116e-07 0)
(3.82308e-06 -5.89213e-07 0)
(3.97454e-06 -5.64895e-07 0)
(4.12312e-06 -5.40482e-07 0)
(4.26909e-06 -5.15349e-07 0)
(4.41278e-06 -4.88894e-07 0)
(4.55443e-06 -4.60513e-07 0)
(4.69417e-06 -4.29562e-07 0)
(4.83226e-06 -3.9539e-07 0)
(4.96885e-06 -3.57232e-07 0)
(5.10392e-06 -3.14332e-07 0)
(5.23799e-06 -2.65612e-07 0)
(5.37063e-06 -2.10479e-07 0)
(2.34388e-06 -9.92215e-07 0)
(2.53775e-06 -9.29604e-07 0)
(2.72478e-06 -8.76482e-07 0)
(2.90584e-06 -8.29973e-07 0)
(3.0813e-06 -7.89106e-07 0)
(3.2516e-06 -7.52642e-07 0)
(3.41723e-06 -7.19534e-07 0)
(3.57862e-06 -6.88834e-07 0)
(3.73622e-06 -6.59699e-07 0)
(3.89042e-06 -6.31366e-07 0)
(4.04152e-06 -6.03146e-07 0)
(4.18978e-06 -5.74402e-07 0)
(4.33556e-06 -5.44517e-07 0)
(4.47909e-06 -5.1287e-07 0)
(4.62052e-06 -4.7881e-07 0)
(4.76015e-06 -4.41691e-07 0)
(4.89814e-06 -4.00761e-07 0)
(5.03459e-06 -3.55298e-07 0)
(5.16998e-06 -3.04261e-07 0)
(5.30409e-06 -2.4702e-07 0)
(2.25268e-06 -1.09297e-06 0)
(2.44429e-06 -1.02909e-06 0)
(2.63097e-06 -9.7311e-07 0)
(2.81256e-06 -9.22979e-07 0)
(2.98925e-06 -8.78084e-07 0)
(3.16119e-06 -8.37436e-07 0)
(3.3287e-06 -8.00101e-07 0)
(3.49208e-06 -7.65232e-07 0)
(3.65168e-06 -7.32044e-07 0)
(3.80783e-06 -6.99809e-07 0)
(3.96079e-06 -6.67848e-07 0)
(4.1108e-06 -6.35528e-07 0)
(4.25822e-06 -6.02237e-07 0)
(4.40327e-06 -5.67355e-07 0)
(4.54609e-06 -5.30242e-07 0)
(4.68704e-06 -4.90273e-07 0)
(4.82626e-06 -4.46727e-07 0)
(4.96395e-06 -3.98917e-07 0)
(5.10054e-06 -3.45829e-07 0)
(5.23599e-06 -2.8683e-07 0)
(2.17281e-06 -1.18964e-06 0)
(2.36142e-06 -1.12521e-06 0)
(2.54644e-06 -1.06726e-06 0)
(2.72719e-06 -1.01432e-06 0)
(2.90381e-06 -9.66057e-07 0)
(3.07618e-06 -9.21741e-07 0)
(3.24451e-06 -8.80598e-07 0)
(3.40894e-06 -8.41894e-07 0)
(3.56973e-06 -8.04918e-07 0)
(3.72714e-06 -7.68992e-07 0)
(3.88138e-06 -7.33465e-07 0)
(4.03265e-06 -6.97722e-07 0)
(4.18131e-06 -6.61175e-07 0)
(4.32754e-06 -6.23217e-07 0)
(4.47151e-06 -5.83232e-07 0)
(4.61356e-06 -5.4062e-07 0)
(4.75384e-06 -4.94703e-07 0)
(4.89262e-06 -4.44816e-07 0)
(5.03029e-06 -3.89984e-07 0)
(5.16697e-06 -3.29673e-07 0)
(2.10257e-06 -1.28222e-06 0)
(2.28763e-06 -1.2177e-06 0)
(2.47011e-06 -1.15851e-06 0)
(2.64909e-06 -1.1035e-06 0)
(2.82464e-06 -1.05255e-06 0)
(2.99651e-06 -1.00515e-06 0)
(3.16478e-06 -9.60687e-07 0)
(3.32944e-06 -9.18545e-07 0)
(3.4907e-06 -8.78101e-07 0)
(3.64875e-06 -8.38745e-07 0)
(3.80374e-06 -7.99869e-07 0)
(3.95582e-06 -7.60896e-07 0)
(4.10534e-06 -7.21275e-07 0)
(4.25244e-06 -6.80425e-07 0)
(4.3973e-06 -6.37757e-07 0)
(4.54024e-06 -5.92702e-07 0)
(4.68142e-06 -5.44622e-07 0)
(4.82115e-06 -4.92883e-07 0)
(4.95979e-06 -4.36597e-07 0)
(5.09758e-06 -3.75413e-07 0)
(2.04013e-06 -1.37082e-06 0)
(2.22135e-06 -1.30661e-06 0)
(2.40083e-06 -1.24666e-06 0)
(2.57741e-06 -1.19013e-06 0)
(2.75121e-06 -1.13705e-06 0)
(2.92186e-06 -1.08707e-06 0)
(3.08936e-06 -1.03976e-06 0)
(3.2536e-06 -9.94586e-07 0)
(3.41473e-06 -9.51029e-07 0)
(3.57289e-06 -9.08552e-07 0)
(3.72815e-06 -8.66601e-07 0)
(3.88064e-06 -8.24648e-07 0)
(4.03068e-06 -7.82187e-07 0)
(4.17837e-06 -7.38672e-07 0)
(4.32387e-06 -6.93544e-07 0)
(4.46751e-06 -6.46266e-07 0)
(4.60943e-06 -5.96242e-07 0)
(4.74996e-06 -5.42896e-07 0)
(4.88946e-06 -4.85488e-07 0)
(5.02824e-06 -4.23798e-07 0)
(1.98414e-06 -1.45565e-06 0)
(2.1614e-06 -1.392e-06 0)
(2.33755e-06 -1.33165e-06 0)
(2.51133e-06 -1.27405e-06 0)
(2.68289e-06 -1.21934e-06 0)
(2.85181e-06 -1.16728e-06 0)
(3.01801e-06 -1.11756e-06 0)
(3.18132e-06 -1.06977e-06 0)
(3.34184e-06 -1.02346e-06 0)
(3.49965e-06 -9.78192e-07 0)
(3.65479e-06 -9.33462e-07 0)
(3.80735e-06 -8.88797e-07 0)
(3.95761e-06 -8.4374e-07 0)
(4.10561e-06 -7.97785e-07 0)
(4.25156e-06 -7.50409e-07 0)
(4.3957e-06 -7.01111e-07 0)
(4.53821e-06 -6.49355e-07 0)
(4.67942e-06 -5.94651e-07 0)
(4.81965e-06 -5.36426e-07 0)
(4.95929e-06 -4.74423e-07 0)
(1.93343e-06 -1.53688e-06 0)
(2.10671e-06 -1.47394e-06 0)
(2.27937e-06 -1.41349e-06 0)
(2.4501e-06 -1.3552e-06 0)
(2.6191e-06 -1.29925e-06 0)
(2.78591e-06 -1.24551e-06 0)
(2.95042e-06 -1.19378e-06 0)
(3.11241e-06 -1.14374e-06 0)
(3.27193e-06 -1.09504e-06 0)
(3.42905e-06 -1.0473e-06 0)
(3.58374e-06 -1.0001e-06 0)
(3.73606e-06 -9.53015e-07 0)
(3.88627e-06 -9.05624e-07 0)
(4.03437e-06 -8.57464e-07 0)
(4.18055e-06 -8.08063e-07 0)
(4.32504e-06 -7.56966e-07 0)
(4.46799e-06 -7.03716e-07 0)
(4.60975e-06 -6.47914e-07 0)
(4.75061e-06 -5.89095e-07 0)
(4.89099e-06 -5.26905e-07 0)
(1.88695e-06 -1.61474e-06 0)
(2.05631e-06 -1.55261e-06 0)
(2.22541e-06 -1.49229e-06 0)
(2.39297e-06 -1.43357e-06 0)
(2.5592e-06 -1.37669e-06 0)
(2.72366e-06 -1.32161e-06 0)
(2.8862e-06 -1.26822e-06 0)
(3.04658e-06 -1.21628e-06 0)
(3.20483e-06 -1.16551e-06 0)
(3.36097e-06 -1.11564e-06 0)
(3.51495e-06 -1.06629e-06 0)
(3.66681e-06 -1.01708e-06 0)
(3.81674e-06 -9.67628e-07 0)
(3.96474e-06 -9.17517e-07 0)
(4.11098e-06 -8.6633e-07 0)
(4.25566e-06 -8.13678e-07 0)
(4.39894e-06 -7.59183e-07 0)
(4.54115e-06 -7.02511e-07 0)
(4.68252e-06 -6.43219e-07 0)
(4.82351e-06 -5.8106e-07 0)
(1.84379e-06 -1.6895e-06 0)
(2.00933e-06 -1.62825e-06 0)
(2.17487e-06 -1.56817e-06 0)
(2.33923e-06 -1.50922e-06 0)
(2.50259e-06 -1.45167e-06 0)
(2.66454e-06 -1.39552e-06 0)
(2.82494e-06 -1.34078e-06 0)
(2.98352e-06 -1.28727e-06 0)
(3.14029e-06 -1.23477e-06 0)
(3.29526e-06 -1.18309e-06 0)
(3.44833e-06 -1.13189e-06 0)
(3.59952e-06 -1.08085e-06 0)
(3.749e-06 -1.02961e-06 0)
(3.89673e-06 -9.77801e-07 0)
(4.04289e-06 -9.25072e-07 0)
(4.18766e-06 -8.71104e-07 0)
(4.33115e-06 -8.1558e-07 0)
(4.4737e-06 -7.58194e-07 0)
(4.61548e-06 -6.98541e-07 0)
(4.75698e-06 -6.36649e-07 0)
(1.80313e-06 -1.76144e-06 0)
(1.96498e-06 -1.70107e-06 0)
(2.12703e-06 -1.64132e-06 0)
(2.28818e-06 -1.58227e-06 0)
(2.44864e-06 -1.52424e-06 0)
(2.60803e-06 -1.4673e-06 0)
(2.76619e-06 -1.41149e-06 0)
(2.92286e-06 -1.35671e-06 0)
(3.07803e-06 -1.3028e-06 0)
(3.23168e-06 -1.24959e-06 0)
(3.38369e-06 -1.19682e-06 0)
(3.53408e-06 -1.14419e-06 0)
(3.68297e-06 -1.09141e-06 0)
(3.83033e-06 -1.03814e-06 0)
(3.9763e-06 -9.84106e-07 0)
(4.12105e-06 -9.29031e-07 0)
(4.26466e-06 -8.72639e-07 0)
(4.40744e-06 -8.14652e-07 0)
(4.54956e-06 -7.54823e-07 0)
(4.69144e-06 -6.93247e-07 0)
(1.76426e-06 -1.8308e-06 0)
(1.92255e-06 -1.77126e-06 0)
(2.08119e-06 -1.71188e-06 0)
(2.23921e-06 -1.65286e-06 0)
(2.39679e-06 -1.59454e-06 0)
(2.55361e-06 -1.53701e-06 0)
(2.70951e-06 -1.48037e-06 0)
(2.86421e-06 -1.42457e-06 0)
(3.01771e-06 -1.36951e-06 0)
(3.16997e-06 -1.31504e-06 0)
(3.32083e-06 -1.26093e-06 0)
(3.47032e-06 -1.20697e-06 0)
(3.61853e-06 -1.15289e-06 0)
(3.76542e-06 -1.09841e-06 0)
(3.91113e-06 -1.04329e-06 0)
(4.05578e-06 -9.87306e-07 0)
(4.19944e-06 -9.30194e-07 0)
(4.34238e-06 -8.7175e-07 0)
(4.48474e-06 -8.11941e-07 0)
(4.62693e-06 -7.50631e-07 0)
(1.72649e-06 -1.89777e-06 0)
(1.88137e-06 -1.83898e-06 0)
(2.03672e-06 -1.78003e-06 0)
(2.1917e-06 -1.72113e-06 0)
(2.34649e-06 -1.66264e-06 0)
(2.50079e-06 -1.60469e-06 0)
(2.65444e-06 -1.54744e-06 0)
(2.80718e-06 -1.49084e-06 0)
(2.95898e-06 -1.43488e-06 0)
(3.10981e-06 -1.3794e-06 0)
(3.25948e-06 -1.32423e-06 0)
(3.40802e-06 -1.26918e-06 0)
(3.55552e-06 -1.21405e-06 0)
(3.7019e-06 -1.15859e-06 0)
(3.84729e-06 -1.10259e-06 0)
(3.99178e-06 -1.04585e-06 0)
(4.13541e-06 -9.8817e-07 0)
(4.27844e-06 -9.29451e-07 0)
(4.42098e-06 -8.69693e-07 0)
(4.5634e-06 -8.08734e-07 0)
(1.68921e-06 -1.96252e-06 0)
(1.84081e-06 -1.9045e-06 0)
(1.99302e-06 -1.84597e-06 0)
(2.14509e-06 -1.78725e-06 0)
(2.29719e-06 -1.72871e-06 0)
(2.44906e-06 -1.6705e-06 0)
(2.60053e-06 -1.61283e-06 0)
(2.75136e-06 -1.55564e-06 0)
(2.9015e-06 -1.499e-06 0)
(3.0509e-06 -1.44274e-06 0)
(3.19939e-06 -1.38672e-06 0)
(3.34698e-06 -1.3308e-06 0)
(3.49376e-06 -1.27481e-06 0)
(3.63962e-06 -1.21855e-06 0)
(3.78464e-06 -1.16184e-06 0)
(3.92892e-06 -1.10449e-06 0)
(4.07248e-06 -1.04639e-06 0)
(4.21557e-06 -9.8754e-07 0)
(4.35824e-06 -9.27765e-07 0)
(4.50082e-06 -8.67224e-07 0)
(1.65179e-06 -2.02535e-06 0)
(1.80029e-06 -1.96801e-06 0)
(1.94952e-06 -1.90991e-06 0)
(2.09884e-06 -1.85142e-06 0)
(2.24839e-06 -1.79294e-06 0)
(2.39796e-06 -1.73462e-06 0)
(2.54736e-06 -1.67668e-06 0)
(2.69635e-06 -1.61909e-06 0)
(2.84489e-06 -1.56189e-06 0)
(2.99293e-06 -1.50502e-06 0)
(3.14029e-06 -1.44837e-06 0)
(3.28699e-06 -1.3918e-06 0)
(3.43305e-06 -1.33517e-06 0)
(3.57837e-06 -1.27829e-06 0)
(3.72301e-06 -1.22102e-06 0)
(3.86707e-06 -1.16323e-06 0)
(4.01056e-06 -1.10487e-06 0)
(4.15367e-06 -1.0459e-06 0)
(4.29642e-06 -9.86188e-07 0)
(4.43908e-06 -9.25946e-07 0)
(1.61367e-06 -2.08642e-06 0)
(1.75924e-06 -2.02971e-06 0)
(1.90563e-06 -1.97197e-06 0)
(2.05239e-06 -1.91378e-06 0)
(2.19958e-06 -1.85544e-06 0)
(2.34702e-06 -1.79714e-06 0)
(2.4945e-06 -1.73904e-06 0)
(2.64178e-06 -1.68123e-06 0)
(2.78883e-06 -1.62369e-06 0)
(2.93562e-06 -1.56639e-06 0)
(3.08196e-06 -1.50928e-06 0)
(3.22781e-06 -1.45224e-06 0)
(3.37319e-06 -1.39512e-06 0)
(3.51797e-06 -1.33778e-06 0)
(3.66225e-06 -1.2801e-06 0)
(3.80612e-06 -1.22202e-06 0)
(3.94952e-06 -1.16349e-06 0)
(4.09261e-06 -1.10436e-06 0)
(4.23537e-06 -1.04482e-06 0)
(4.37805e-06 -9.84853e-07 0)
(1.57429e-06 -2.1458e-06 0)
(1.71697e-06 -2.08958e-06 0)
(1.86068e-06 -2.03238e-06 0)
(2.0052e-06 -1.97459e-06 0)
(2.15024e-06 -1.91646e-06 0)
(2.29576e-06 -1.85826e-06 0)
(2.4415e-06 -1.80014e-06 0)
(2.58725e-06 -1.7422e-06 0)
(2.73302e-06 -1.68446e-06 0)
(2.87872e-06 -1.62691e-06 0)
(3.02413e-06 -1.5695e-06 0)
(3.1692e-06 -1.51213e-06 0)
(3.31394e-06 -1.45467e-06 0)
(3.45826e-06 -1.39701e-06 0)
(3.60225e-06 -1.33907e-06 0)
(3.74594e-06 -1.2808e-06 0)
(3.8892e-06 -1.22211e-06 0)
(4.03215e-06 -1.1629e-06 0)
(4.17492e-06 -1.10345e-06 0)
(4.31777e-06 -1.04375e-06 0)
(1.53268e-06 -2.20349e-06 0)
(1.67293e-06 -2.14789e-06 0)
(1.81443e-06 -2.0913e-06 0)
(1.95677e-06 -2.03391e-06 0)
(2.09992e-06 -1.97611e-06 0)
(2.24373e-06 -1.9181e-06 0)
(2.38799e-06 -1.86007e-06 0)
(2.53249e-06 -1.80214e-06 0)
(2.67719e-06 -1.74435e-06 0)
(2.82197e-06 -1.6867e-06 0)
(2.96656e-06 -1.62912e-06 0)
(3.11093e-06 -1.57155e-06 0)
(3.25518e-06 -1.51389e-06 0)
(3.39919e-06 -1.45605e-06 0)
(3.54289e-06 -1.39796e-06 0)
(3.68623e-06 -1.33955e-06 0)
(3.82932e-06 -1.2807e-06 0)
(3.97236e-06 -1.22158e-06 0)
(4.11509e-06 -1.16214e-06 0)
(4.25773e-06 -1.10262e-06 0)
(1.48832e-06 -2.2602e-06 0)
(1.62633e-06 -2.20522e-06 0)
(1.7658e-06 -2.14911e-06 0)
(1.90635e-06 -2.09217e-06 0)
(2.04792e-06 -2.03471e-06 0)
(2.1904e-06 -1.97698e-06 0)
(2.33358e-06 -1.91915e-06 0)
(2.47718e-06 -1.86132e-06 0)
(2.62104e-06 -1.80357e-06 0)
(2.76503e-06 -1.74589e-06 0)
(2.90903e-06 -1.68826e-06 0)
(3.05303e-06 -1.6306e-06 0)
(3.19691e-06 -1.57284e-06 0)
(3.34043e-06 -1.5149e-06 0)
(3.4838e-06 -1.45671e-06 0)
(3.62707e-06 -1.39819e-06 0)
(3.77002e-06 -1.33929e-06 0)
(3.91288e-06 -1.28013e-06 0)
(4.0556e-06 -1.22075e-06 0)
(4.19821e-06 -1.16135e-06 0)
(1.44058e-06 -2.31528e-06 0)
(1.57662e-06 -2.2611e-06 0)
(1.71437e-06 -2.20569e-06 0)
(1.85349e-06 -2.14933e-06 0)
(1.99398e-06 -2.09237e-06 0)
(2.13565e-06 -2.03504e-06 0)
(2.27809e-06 -1.9775e-06 0)
(2.42098e-06 -1.91989e-06 0)
(2.56429e-06 -1.86228e-06 0)
(2.70798e-06 -1.80468e-06 0)
(2.85167e-06 -1.74707e-06 0)
(2.99522e-06 -1.68939e-06 0)
(3.13876e-06 -1.63159e-06 0)
(3.28209e-06 -1.5736e-06 0)
(3.42519e-06 -1.51535e-06 0)
(3.5682e-06 -1.45677e-06 0)
(3.71101e-06 -1.39795e-06 0)
(3.85374e-06 -1.33865e-06 0)
(3.9964e-06 -1.27927e-06 0)
(4.13883e-06 -1.21977e-06 0)
(1.03235e-07 -1.94524e-06 0)
(3.10933e-07 -1.91721e-06 0)
(5.22333e-07 -1.8619e-06 0)
(7.39472e-07 -1.78196e-06 0)
(9.64049e-07 -1.68014e-06 0)
(1.19714e-06 -1.56047e-06 0)
(1.43913e-06 -1.42722e-06 0)
(1.68967e-06 -1.28493e-06 0)
(1.94796e-06 -1.13817e-06 0)
(2.21226e-06 -9.90592e-07 0)
(1.00827e-07 -1.97836e-06 0)
(3.03493e-07 -1.95284e-06 0)
(5.0918e-07 -1.90234e-06 0)
(7.19553e-07 -1.82925e-06 0)
(9.36005e-07 -1.73585e-06 0)
(1.15943e-06 -1.62554e-06 0)
(1.3901e-06 -1.50202e-06 0)
(1.62762e-06 -1.36915e-06 0)
(1.87071e-06 -1.23126e-06 0)
(2.1181e-06 -1.09132e-06 0)
(9.86468e-08 -2.0126e-06 0)
(2.96744e-07 -1.98936e-06 0)
(4.97209e-07 -1.94323e-06 0)
(7.01359e-07 -1.87642e-06 0)
(9.10305e-07 -1.79083e-06 0)
(1.12476e-06 -1.68938e-06 0)
(1.34495e-06 -1.57524e-06 0)
(1.57079e-06 -1.45166e-06 0)
(1.80121e-06 -1.32244e-06 0)
(2.03558e-06 -1.18938e-06 0)
(9.66395e-08 -2.04792e-06 0)
(2.90585e-07 -2.02662e-06 0)
(4.86411e-07 -1.98421e-06 0)
(6.85174e-07 -1.92272e-06 0)
(8.87767e-07 -1.84382e-06 0)
(1.09471e-06 -1.74995e-06 0)
(1.30616e-06 -1.64403e-06 0)
(1.52198e-06 -1.52888e-06 0)
(1.7413e-06 -1.40805e-06 0)
(1.96357e-06 -1.28282e-06 0)
(9.47517e-08 -2.08425e-06 0)
(2.84768e-07 -2.06466e-06 0)
(4.76291e-07 -2.02557e-06 0)
(6.7013e-07 -1.96882e-06 0)
(8.67002e-07 -1.89594e-06 0)
(1.06731e-06 -1.80899e-06 0)
(1.27117e-06 -1.71063e-06 0)
(1.47847e-06 -1.60327e-06 0)
(1.68858e-06 -1.49009e-06 0)
(1.90055e-06 -1.37224e-06 0)
(9.29736e-08 -2.12149e-06 0)
(2.79286e-07 -2.10337e-06 0)
(4.66822e-07 -2.06718e-06 0)
(6.56193e-07 -2.01454e-06 0)
(8.47973e-07 -1.94692e-06 0)
(1.04247e-06 -1.86609e-06 0)
(1.23974e-06 -1.77448e-06 0)
(1.43961e-06 -1.67425e-06 0)
(1.64171e-06 -1.56823e-06 0)
(1.84477e-06 -1.45762e-06 0)
(9.12311e-08 -2.15959e-06 0)
(2.73992e-07 -2.14274e-06 0)
(4.57734e-07 -2.10917e-06 0)
(6.42931e-07 -2.06018e-06 0)
(8.30068e-07 -1.99724e-06 0)
(1.01937e-06 -1.92192e-06 0)
(1.21086e-06 -1.8364e-06 0)
(1.40428e-06 -1.74262e-06 0)
(1.59949e-06 -1.6431e-06 0)
(1.79496e-06 -1.53919e-06 0)
(8.95257e-08 -2.19844e-06 0)
(2.68848e-07 -2.18268e-06 0)
(4.48946e-07 -2.15143e-06 0)
(6.30218e-07 -2.10565e-06 0)
(8.13089e-07 -2.04685e-06 0)
(9.97674e-07 -1.97646e-06 0)
(1.18402e-06 -1.8964e-06 0)
(1.37175e-06 -1.80848e-06 0)
(1.56094e-06 -1.71492e-06 0)
(1.7499e-06 -1.61721e-06 0)
(8.78637e-08 -2.23795e-06 0)
(2.63781e-07 -2.22315e-06 0)
(4.40323e-07 -2.19396e-06 0)
(6.17844e-07 -2.15108e-06 0)
(7.96706e-07 -2.09599e-06 0)
(9.76971e-07 -2.03001e-06 0)
(1.15867e-06 -1.95487e-06 0)
(1.34137e-06 -1.87221e-06 0)
(1.52525e-06 -1.78408e-06 0)
(1.70862e-06 -1.69201e-06 0)
(8.62124e-08 -2.27804e-06 0)
(2.58728e-07 -2.26408e-06 0)
(4.31774e-07 -2.2367e-06 0)
(6.0568e-07 -2.19644e-06 0)
(7.80723e-07 -2.14468e-06 0)
(9.56961e-07 -2.08265e-06 0)
(1.1344e-06 -2.01192e-06 0)
(1.31259e-06 -1.93405e-06 0)
(1.49173e-06 -1.85086e-06 0)
(1.67021e-06 -1.76393e-06 0)
(8.45246e-08 -2.31861e-06 0)
(2.53628e-07 -2.30539e-06 0)
(4.23212e-07 -2.27964e-06 0)
(5.93572e-07 -2.24174e-06 0)
(7.64929e-07 -2.19299e-06 0)
(9.37348e-07 -2.13451e-06 0)
(1.11083e-06 -2.06776e-06 0)
(1.28489e-06 -1.99424e-06 0)
(1.45975e-06 -1.91552e-06 0)
(1.63393e-06 -1.83321e-06 0)
(8.2794e-08 -2.3595e-06 0)
(2.48461e-07 -2.34697e-06 0)
(4.14575e-07 -2.32268e-06 0)
(5.81395e-07 -2.28694e-06 0)
(7.49141e-07 -2.2409e-06 0)
(9.17871e-07 -2.18562e-06 0)
(1.08759e-06 -2.12248e-06 0)
(1.25782e-06 -2.05291e-06 0)
(1.42875e-06 -1.97821e-06 0)
(1.59909e-06 -1.90008e-06 0)
(8.10302e-08 -2.4006e-06 0)
(2.43195e-07 -2.38872e-06 0)
(4.05777e-07 -2.36577e-06 0)
(5.69015e-07 -2.33198e-06 0)
(7.33166e-07 -2.2884e-06 0)
(8.98277e-07 -2.23604e-06 0)
(1.06436e-06 -2.17619e-06 0)
(1.23095e-06 -2.11015e-06 0)
(1.39823e-06 -2.03912e-06 0)
(1.56506e-06 -1.96478e-06 0)
(7.92221e-08 -2.44178e-06 0)
(2.37762e-07 -2.43053e-06 0)
(3.96703e-07 -2.40878e-06 0)
(5.56287e-07 -2.37677e-06 0)
(7.16808e-07 -2.33544e-06 0)
(8.78311e-07 -2.28576e-06 0)
(1.04081e-06 -2.22892e-06 0)
(1.20389e-06 -2.16608e-06 0)
(1.3677e-06 -2.09844e-06 0)
(1.53127e-06 -2.02753e-06 0)
(7.73326e-08 -2.48295e-06 0)
(2.32073e-07 -2.47229e-06 0)
(3.87223e-07 -2.45164e-06 0)
(5.43044e-07 -2.42129e-06 0)
(6.99847e-07 -2.38204e-06 0)
(8.5769e-07 -2.33484e-06 0)
(1.0166e-06 -2.2807e-06 0)
(1.17623e-06 -2.22079e-06 0)
(1.33669e-06 -2.15629e-06 0)
(1.49715e-06 -2.08845e-06 0)
(7.53244e-08 -2.5239e-06 0)
(2.26047e-07 -2.51383e-06 0)
(3.77216e-07 -2.4942e-06 0)
(5.29111e-07 -2.46538e-06 0)
(6.82051e-07 -2.42804e-06 0)
(8.36127e-07 -2.38309e-06 0)
(9.9139e-07 -2.33146e-06 0)
(1.14756e-06 -2.27433e-06 0)
(1.30471e-06 -2.21268e-06 0)
(1.46217e-06 -2.14773e-06 0)
(7.31704e-08 -2.56459e-06 0)
(2.19609e-07 -2.55509e-06 0)
(3.66547e-07 -2.5364e-06 0)
(5.14286e-07 -2.50899e-06 0)
(6.63157e-07 -2.47347e-06 0)
(8.13297e-07 -2.43064e-06 0)
(9.64792e-07 -2.3814e-06 0)
(1.11742e-06 -2.32687e-06 0)
(1.27125e-06 -2.2678e-06 0)
(1.42571e-06 -2.20555e-06 0)
(7.08518e-08 -2.60461e-06 0)
(2.12688e-07 -2.59563e-06 0)
(3.55081e-07 -2.57786e-06 0)
(4.98366e-07 -2.55178e-06 0)
(6.42902e-07 -2.51795e-06 0)
(7.88877e-07 -2.47713e-06 0)
(9.36403e-07 -2.43017e-06 0)
(1.08533e-06 -2.37806e-06 0)
(1.2357e-06 -2.32151e-06 0)
(1.38713e-06 -2.26174e-06 0)
(6.83323e-08 -2.64414e-06 0)
(2.05159e-07 -2.63565e-06 0)
(3.42602e-07 -2.61879e-06 0)
(4.81045e-07 -2.594e-06 0)
(6.20883e-07 -2.56181e-06 0)
(7.62367e-07 -2.52296e-06 0)
(9.05641e-07 -2.47822e-06 0)
(1.05062e-06 -2.42839e-06 0)
(1.19735e-06 -2.3743e-06 0)
(1.34561e-06 -2.31691e-06 0)
(6.55933e-08 -2.68207e-06 0)
(1.96966e-07 -2.67403e-06 0)
(3.29003e-07 -2.65807e-06 0)
(4.6217e-07 -2.63456e-06 0)
(5.96918e-07 -2.604e-06 0)
(7.33531e-07 -2.56711e-06 0)
(8.7218e-07 -2.52454e-06 0)
(1.01286e-06 -2.47704e-06 0)
(1.1557e-06 -2.42536e-06 0)
(1.30065e-06 -2.37037e-06 0)
)


// ************************************************************************* //
