/*--------------------------------*- C++ -*----------------------------------*\
| =========                 |                                                 |
| \\      /  F ield         | foam-extend: Open Source CFD                    |
|  \\    /   O peration     | Version:     4.1                                |
|   \\  /    A nd           | Web:         http://www.foam-extend.org         |
|    \\/     M anipulation  |                                                 |
\*---------------------------------------------------------------------------*/
FoamFile
{
    version     2.0;
    format      ascii;
    class       vectorField;
    location    "5";
    object      solidsCellD_iteration4;
}
// * * * * * * * * * * * * * * * * * * * * * * * * * * * * * * * * * * * * * //


1000
(
(2.48487e-06 -9.9818e-07 0)
(2.3521e-06 -9.32278e-07 0)
(2.26839e-06 -8.91874e-07 0)
(2.22175e-06 -8.74738e-07 0)
(2.20067e-06 -8.70985e-07 0)
(2.19832e-06 -8.77551e-07 0)
(2.20974e-06 -8.90929e-07 0)
(2.23148e-06 -9.09484e-07 0)
(2.26086e-06 -9.31538e-07 0)
(2.2949e-06 -9.56715e-07 0)
(2.24806e-06 -1.09034e-06 0)
(2.10645e-06 -1.04584e-06 0)
(2.01697e-06 -1.01911e-06 0)
(1.96602e-06 -1.01131e-06 0)
(1.94151e-06 -1.01382e-06 0)
(1.9358e-06 -1.0249e-06 0)
(1.94385e-06 -1.04155e-06 0)
(1.96197e-06 -1.06249e-06 0)
(1.98745e-06 -1.08644e-06 0)
(2.01753e-06 -1.11255e-06 0)
(2.00146e-06 -1.17768e-06 0)
(1.85668e-06 -1.15706e-06 0)
(1.7652e-06 -1.14546e-06 0)
(1.71216e-06 -1.14789e-06 0)
(1.68554e-06 -1.15711e-06 0)
(1.67744e-06 -1.17284e-06 0)
(1.68276e-06 -1.1927e-06 0)
(1.69788e-06 -1.21582e-06 0)
(1.72003e-06 -1.24139e-06 0)
(1.7468e-06 -1.26837e-06 0)
(1.7472e-06 -1.25864e-06 0)
(1.60529e-06 -1.26304e-06 0)
(1.51564e-06 -1.26725e-06 0)
(1.46299e-06 -1.28027e-06 0)
(1.43574e-06 -1.2964e-06 0)
(1.42623e-06 -1.31681e-06 0)
(1.42946e-06 -1.33981e-06 0)
(1.44194e-06 -1.36507e-06 0)
(1.46112e-06 -1.39223e-06 0)
(1.48461e-06 -1.42022e-06 0)
(1.4869e-06 -1.33161e-06 0)
(1.35399e-06 -1.36077e-06 0)
(1.26994e-06 -1.38068e-06 0)
(1.2202e-06 -1.40412e-06 0)
(1.19398e-06 -1.42697e-06 0)
(1.184e-06 -1.45192e-06 0)
(1.18572e-06 -1.47796e-06 0)
(1.19579e-06 -1.50531e-06 0)
(1.21206e-06 -1.53396e-06 0)
(1.23222e-06 -1.56306e-06 0)
(1.222e-06 -1.39509e-06 0)
(1.10386e-06 -1.4474e-06 0)
(1.02917e-06 -1.48196e-06 0)
(9.84739e-07 -1.51513e-06 0)
(9.61021e-07 -1.54427e-06 0)
(9.51421e-07 -1.57346e-06 0)
(9.52101e-07 -1.60228e-06 0)
(9.60063e-07 -1.63159e-06 0)
(9.73461e-07 -1.66163e-06 0)
(9.90154e-07 -1.69186e-06 0)
(9.53633e-07 -1.4477e-06 0)
(8.55638e-07 -1.52028e-06 0)
(7.93679e-07 -1.56769e-06 0)
(7.56648e-07 -1.60935e-06 0)
(7.36671e-07 -1.64397e-06 0)
(7.28298e-07 -1.67686e-06 0)
(7.28384e-07 -1.70811e-06 0)
(7.3441e-07 -1.73917e-06 0)
(7.44893e-07 -1.77044e-06 0)
(7.57991e-07 -1.80175e-06 0)
(6.82813e-07 -1.48824e-06 0)
(6.09418e-07 -1.5771e-06 0)
(5.63007e-07 -1.63483e-06 0)
(5.35222e-07 -1.6833e-06 0)
(5.20086e-07 -1.72232e-06 0)
(5.13589e-07 -1.75817e-06 0)
(5.134e-07 -1.7914e-06 0)
(5.1762e-07 -1.82386e-06 0)
(5.25149e-07 -1.8561e-06 0)
(5.34546e-07 -1.8883e-06 0)
(4.10392e-07 -1.5158e-06 0)
(3.64978e-07 -1.61603e-06 0)
(3.36231e-07 -1.68097e-06 0)
(3.18934e-07 -1.73422e-06 0)
(3.09461e-07 -1.77633e-06 0)
(3.05386e-07 -1.81426e-06 0)
(3.05207e-07 -1.84887e-06 0)
(3.0768e-07 -1.88234e-06 0)
(3.12168e-07 -1.91531e-06 0)
(3.17812e-07 -1.9482e-06 0)
(1.37079e-07 -1.52969e-06 0)
(1.21642e-07 -1.63576e-06 0)
(1.11876e-07 -1.70445e-06 0)
(1.06032e-07 -1.76017e-06 0)
(1.0282e-07 -1.80384e-06 0)
(1.01383e-07 -1.84283e-06 0)
(1.01277e-07 -1.87815e-06 0)
(1.02097e-07 -1.91212e-06 0)
(1.0359e-07 -1.94544e-06 0)
(1.05457e-07 -1.97866e-06 0)
(3.86413e-06 -4.5554e-08 0)
(3.89813e-06 -3.29906e-08 0)
(3.92021e-06 -2.50865e-08 0)
(3.94468e-06 -2.0497e-08 0)
(3.97187e-06 -1.80374e-08 0)
(4.00504e-06 -1.69932e-08 0)
(4.04405e-06 -1.68693e-08 0)
(4.08917e-06 -1.74025e-08 0)
(4.14028e-06 -1.83966e-08 0)
(4.19674e-06 -1.95255e-08 0)
(3.83586e-06 -1.36645e-07 0)
(3.86428e-06 -9.96885e-08 0)
(3.8829e-06 -7.65318e-08 0)
(3.90504e-06 -6.3138e-08 0)
(3.93069e-06 -5.59261e-08 0)
(3.96273e-06 -5.29167e-08 0)
(4.00095e-06 -5.27023e-08 0)
(4.04546e-06 -5.4337e-08 0)
(4.09604e-06 -5.72714e-08 0)
(4.15193e-06 -6.06829e-08 0)
(3.77928e-06 -2.28537e-07 0)
(3.79711e-06 -1.69211e-07 0)
(3.80906e-06 -1.32065e-07 0)
(3.82681e-06 -1.10686e-07 0)
(3.84953e-06 -9.92763e-08 0)
(3.87952e-06 -9.45879e-08 0)
(3.91624e-06 -9.43812e-08 0)
(3.95946e-06 -9.71721e-08 0)
(4.00899e-06 -1.02078e-07 0)
(4.06378e-06 -1.07802e-07 0)
(3.69543e-06 -3.21559e-07 0)
(3.69826e-06 -2.43143e-07 0)
(3.70066e-06 -1.94081e-07 0)
(3.71215e-06 -1.65986e-07 0)
(3.73069e-06 -1.51122e-07 0)
(3.75766e-06 -1.45207e-07 0)
(3.79219e-06 -1.45269e-07 0)
(3.83371e-06 -1.49356e-07 0)
(3.88177e-06 -1.56253e-07 0)
(3.93508e-06 -1.64273e-07 0)
(3.58554e-06 -4.16005e-07 0)
(3.56985e-06 -3.2285e-07 0)
(3.56046e-06 -2.6459e-07 0)
(3.5641e-06 -2.31485e-07 0)
(3.57749e-06 -2.14182e-07 0)
(3.6008e-06 -2.07661e-07 0)
(3.63261e-06 -2.0833e-07 0)
(3.67197e-06 -2.13844e-07 0)
(3.71818e-06 -2.22712e-07 0)
(3.76965e-06 -2.33011e-07 0)
(3.45128e-06 -5.11899e-07 0)
(3.41457e-06 -4.09165e-07 0)
(3.39183e-06 -3.44935e-07 0)
(3.38661e-06 -3.08871e-07 0)
(3.39414e-06 -2.90379e-07 0)
(3.41329e-06 -2.83971e-07 0)
(3.44203e-06 -2.85595e-07 0)
(3.4789e-06 -2.92679e-07 0)
(3.52299e-06 -3.0351e-07 0)
(3.57251e-06 -3.16069e-07 0)
(3.29449e-06 -6.0906e-07 0)
(3.2356e-06 -5.02434e-07 0)
(3.19881e-06 -4.35831e-07 0)
(3.1842e-06 -3.9908e-07 0)
(3.18548e-06 -3.80777e-07 0)
(3.20018e-06 -3.75282e-07 0)
(3.2256e-06 -3.78265e-07 0)
(3.25976e-06 -3.87102e-07 0)
(3.30154e-06 -3.99933e-07 0)
(3.34906e-06 -4.14719e-07 0)
(3.11724e-06 -7.0708e-07 0)
(3.03632e-06 -6.0247e-07 0)
(2.98556e-06 -5.37228e-07 0)
(2.96159e-06 -5.02114e-07 0)
(2.95655e-06 -4.85433e-07 0)
(2.96673e-06 -4.81702e-07 0)
(2.98875e-06 -4.86495e-07 0)
(3.02018e-06 -4.973e-07 0)
(3.05956e-06 -5.12144e-07 0)
(3.10508e-06 -5.2913e-07 0)
(2.92173e-06 -8.05261e-07 0)
(2.8203e-06 -7.08473e-07 0)
(2.75661e-06 -6.48254e-07 0)
(2.72388e-06 -6.17091e-07 0)
(2.71285e-06 -6.03456e-07 0)
(2.7186e-06 -6.02363e-07 0)
(2.73717e-06 -6.09485e-07 0)
(2.76578e-06 -6.22452e-07 0)
(2.80249e-06 -6.39416e-07 0)
(2.84592e-06 -6.58463e-07 0)
(2.71023e-06 -9.02652e-07 0)
(2.59108e-06 -8.19024e-07 0)
(2.51617e-06 -7.67252e-07 0)
(2.47575e-06 -7.4221e-07 0)
(2.45932e-06 -7.3295e-07 0)
(2.46085e-06 -7.35345e-07 0)
(2.476e-06 -7.45339e-07 0)
(2.50171e-06 -7.6093e-07 0)
(2.53579e-06 -7.80294e-07 0)
(2.57665e-06 -8.0228e-07 0)
(4.25847e-06 -2.06359e-08 0)
(4.32568e-06 -2.09801e-08 0)
(4.39709e-06 -2.1336e-08 0)
(4.47242e-06 -2.15998e-08 0)
(4.55118e-06 -2.17562e-08 0)
(4.63311e-06 -2.18042e-08 0)
(4.71794e-06 -2.17423e-08 0)
(4.80532e-06 -2.15772e-08 0)
(4.89489e-06 -2.12785e-08 0)
(4.98644e-06 -2.08254e-08 0)
(5.07974e-06 -2.02088e-08 0)
(5.17451e-06 -1.94285e-08 0)
(5.27048e-06 -1.84811e-08 0)
(5.36741e-06 -1.7352e-08 0)
(5.46508e-06 -1.60122e-08 0)
(5.56311e-06 -1.44317e-08 0)
(5.66135e-06 -1.25793e-08 0)
(5.75918e-06 -1.04207e-08 0)
(5.85672e-06 -7.90489e-09 0)
(5.95257e-06 -5.01733e-09 0)
(4.21563e-06 -6.38585e-08 0)
(4.28639e-06 -6.46332e-08 0)
(4.36098e-06 -6.54493e-08 0)
(4.43907e-06 -6.60378e-08 0)
(4.52036e-06 -6.63498e-08 0)
(4.60455e-06 -6.63853e-08 0)
(4.69137e-06 -6.60903e-08 0)
(4.78053e-06 -6.54589e-08 0)
(4.87177e-06 -6.44309e-08 0)
(4.96484e-06 -6.29885e-08 0)
(5.05952e-06 -6.1108e-08 0)
(5.15557e-06 -5.87617e-08 0)
(5.25277e-06 -5.5908e-08 0)
(5.35087e-06 -5.24922e-08 0)
(5.44963e-06 -4.84408e-08 0)
(5.54869e-06 -4.36812e-08 0)
(5.6479e-06 -3.81203e-08 0)
(5.74667e-06 -3.16559e-08 0)
(5.84517e-06 -2.41311e-08 0)
(5.94203e-06 -1.54872e-08 0)
(4.13128e-06 -1.12429e-07 0)
(4.209e-06 -1.12826e-07 0)
(4.2899e-06 -1.13386e-07 0)
(4.37345e-06 -1.13771e-07 0)
(4.4596e-06 -1.13798e-07 0)
(4.54812e-06 -1.13467e-07 0)
(4.63892e-06 -1.1265e-07 0)
(4.73171e-06 -1.11327e-07 0)
(4.82623e-06 -1.09398e-07 0)
(4.92229e-06 -1.06836e-07 0)
(5.01976e-06 -1.03586e-07 0)
(5.11843e-06 -9.95835e-08 0)
(5.21809e-06 -9.47474e-08 0)
(5.31849e-06 -8.89853e-08 0)
(5.4194e-06 -8.21828e-08 0)
(5.52054e-06 -7.42185e-08 0)
(5.62174e-06 -6.49312e-08 0)
(5.72244e-06 -5.41614e-08 0)
(5.82281e-06 -4.16503e-08 0)
(5.9215e-06 -2.72867e-08 0)
(4.00804e-06 -1.69372e-07 0)
(4.09575e-06 -1.68144e-07 0)
(4.1857e-06 -1.67329e-07 0)
(4.27717e-06 -1.66678e-07 0)
(4.37049e-06 -1.6573e-07 0)
(4.46542e-06 -1.64483e-07 0)
(4.56198e-06 -1.62693e-07 0)
(4.65996e-06 -1.60312e-07 0)
(4.75927e-06 -1.57192e-07 0)
(4.85979e-06 -1.53286e-07 0)
(4.96138e-06 -1.48491e-07 0)
(5.06387e-06 -1.42692e-07 0)
(5.16709e-06 -1.35762e-07 0)
(5.27082e-06 -1.27575e-07 0)
(5.3749e-06 -1.17978e-07 0)
(5.47908e-06 -1.06786e-07 0)
(5.58321e-06 -9.37678e-08 0)
(5.68677e-06 -7.8703e-08 0)
(5.78995e-06 -6.12257e-08 0)
(5.89135e-06 -4.11856e-08 0)
(3.84941e-06 -2.37375e-07 0)
(3.94968e-06 -2.32951e-07 0)
(4.05123e-06 -2.29328e-07 0)
(4.15282e-06 -2.26535e-07 0)
(4.25531e-06 -2.23682e-07 0)
(4.35842e-06 -2.20768e-07 0)
(4.46245e-06 -2.17412e-07 0)
(4.5672e-06 -2.13503e-07 0)
(4.67274e-06 -2.08827e-07 0)
(4.77899e-06 -2.03275e-07 0)
(4.88587e-06 -1.96679e-07 0)
(4.99326e-06 -1.88877e-07 0)
(5.10105e-06 -1.79701e-07 0)
(5.20911e-06 -1.68984e-07 0)
(5.31734e-06 -1.56521e-07 0)
(5.42542e-06 -1.42062e-07 0)
(5.53334e-06 -1.2531e-07 0)
(5.64052e-06 -1.05976e-07 0)
(5.74729e-06 -8.35849e-08 0)
(5.85224e-06 -5.7933e-08 0)
(3.66003e-06 -3.18352e-07 0)
(3.77481e-06 -3.08916e-07 0)
(3.8899e-06 -3.00789e-07 0)
(4.00337e-06 -2.94513e-07 0)
(4.11677e-06 -2.88656e-07 0)
(4.22967e-06 -2.832e-07 0)
(4.34268e-06 -2.77578e-07 0)
(4.45558e-06 -2.71562e-07 0)
(4.56856e-06 -2.64858e-07 0)
(4.68164e-06 -2.57279e-07 0)
(4.79487e-06 -2.4859e-07 0)
(4.90819e-06 -2.38566e-07 0)
(5.02153e-06 -2.2699e-07 0)
(5.1348e-06 -2.13645e-07 0)
(5.24796e-06 -1.98251e-07 0)
(5.36073e-06 -1.805e-07 0)
(5.47317e-06 -1.60031e-07 0)
(5.58472e-06 -1.36481e-07 0)
(5.69579e-06 -1.09258e-07 0)
(5.80501e-06 -7.80786e-08 0)
(3.44496e-06 -4.13563e-07 0)
(3.57562e-06 -3.97222e-07 0)
(3.70581e-06 -3.82889e-07 0)
(3.83264e-06 -3.71711e-07 0)
(3.95832e-06 -3.61708e-07 0)
(4.08233e-06 -3.52743e-07 0)
(4.20539e-06 -3.44053e-07 0)
(4.32751e-06 -3.35277e-07 0)
(4.44898e-06 -3.26018e-07 0)
(4.5699e-06 -3.15981e-07 0)
(4.6904e-06 -3.04856e-07 0)
(4.81047e-06 -2.92347e-07 0)
(4.93014e-06 -2.78171e-07 0)
(5.04936e-06 -2.6205e-07 0)
(5.16812e-06 -2.43635e-07 0)
(5.28625e-06 -2.22555e-07 0)
(5.40386e-06 -1.98382e-07 0)
(5.52045e-06 -1.70662e-07 0)
(5.63645e-06 -1.38674e-07 0)
(5.75058e-06 -1.0206e-07 0)
(3.20948e-06 -5.2324e-07 0)
(3.35674e-06 -4.97954e-07 0)
(3.5029e-06 -4.75738e-07 0)
(3.64417e-06 -4.58079e-07 0)
(3.7831e-06 -4.42691e-07 0)
(3.91927e-06 -4.29133e-07 0)
(4.05343e-06 -4.16512e-07 0)
(4.18573e-06 -4.04284e-07 0)
(4.31658e-06 -3.91931e-07 0)
(4.44617e-06 -3.79016e-07 0)
(4.57469e-06 -3.65138e-07 0)
(4.70221e-06 -3.49915e-07 0)
(4.8288e-06 -3.32993e-07 0)
(4.95455e-06 -3.14016e-07 0)
(5.07949e-06 -2.92558e-07 0)
(5.20355e-06 -2.68183e-07 0)
(5.32687e-06 -2.40368e-07 0)
(5.449e-06 -2.08564e-07 0)
(5.57042e-06 -1.71919e-07 0)
(5.68999e-06 -1.30003e-07 0)
(2.95899e-06 -6.47306e-07 0)
(3.12336e-06 -6.11239e-07 0)
(3.2858e-06 -5.8e-07 0)
(3.44219e-06 -5.54473e-07 0)
(3.59498e-06 -5.32641e-07 0)
(3.74394e-06 -5.135e-07 0)
(3.88982e-06 -4.96104e-07 0)
(4.03295e-06 -4.79688e-07 0)
(4.17377e-06 -4.63601e-07 0)
(4.31258e-06 -4.47276e-07 0)
(4.44963e-06 -4.3021e-07 0)
(4.58509e-06 -4.11933e-07 0)
(4.71912e-06 -3.92011e-07 0)
(4.85189e-06 -3.7e-07 0)
(4.98346e-06 -3.45391e-07 0)
(5.11387e-06 -3.1767e-07 0)
(5.24331e-06 -2.86211e-07 0)
(5.37139e-06 -2.50366e-07 0)
(5.49862e-06 -2.09161e-07 0)
(5.62406e-06 -1.62115e-07 0)
(2.69821e-06 -7.84147e-07 0)
(2.88059e-06 -7.34579e-07 0)
(3.05915e-06 -6.93161e-07 0)
(3.23125e-06 -6.58382e-07 0)
(3.39831e-06 -6.28857e-07 0)
(3.56058e-06 -6.0313e-07 0)
(3.71865e-06 -5.80154e-07 0)
(3.87303e-06 -5.58947e-07 0)
(4.0242e-06 -5.38681e-07 0)
(4.17258e-06 -5.18643e-07 0)
(4.3185e-06 -4.98198e-07 0)
(4.46219e-06 -4.76765e-07 0)
(4.60393e-06 -4.53804e-07 0)
(4.74394e-06 -4.28779e-07 0)
(4.88235e-06 -4.0109e-07 0)
(5.01931e-06 -3.70143e-07 0)
(5.155e-06 -3.35205e-07 0)
(5.28919e-06 -2.95532e-07 0)
(5.42242e-06 -2.50036e-07 0)
(5.55399e-06 -1.98156e-07 0)
(2.50097e-06 -9.18321e-07 0)
(2.69762e-06 -8.56326e-07 0)
(2.88684e-06 -8.0674e-07 0)
(3.06916e-06 -7.64277e-07 0)
(3.24544e-06 -7.27802e-07 0)
(3.41631e-06 -6.95799e-07 0)
(3.58241e-06 -6.67133e-07 0)
(3.74426e-06 -6.40768e-07 0)
(3.90238e-06 -6.15808e-07 0)
(4.05722e-06 -5.91473e-07 0)
(4.2091e-06 -5.67062e-07 0)
(4.3583e-06 -5.41922e-07 0)
(4.50516e-06 -5.15452e-07 0)
(4.64994e-06 -4.87047e-07 0)
(4.79277e-06 -4.56051e-07 0)
(4.93392e-06 -4.21816e-07 0)
(5.07352e-06 -3.83555e-07 0)
(5.21157e-06 -3.40493e-07 0)
(5.34854e-06 -2.91515e-07 0)
(5.48401e-06 -2.36027e-07 0)
(2.38977e-06 -1.0285e-06 0)
(2.58757e-06 -9.63717e-07 0)
(2.77865e-06 -9.09198e-07 0)
(2.96384e-06 -8.6169e-07 0)
(3.1433e-06 -8.20131e-07 0)
(3.3175e-06 -7.83187e-07 0)
(3.48692e-06 -7.49754e-07 0)
(3.652e-06 -7.18836e-07 0)
(3.81319e-06 -6.89557e-07 0)
(3.97087e-06 -6.61137e-07 0)
(4.12537e-06 -6.32861e-07 0)
(4.27696e-06 -6.04066e-07 0)
(4.42599e-06 -5.74131e-07 0)
(4.57273e-06 -5.42433e-07 0)
(4.71729e-06 -5.08307e-07 0)
(4.86003e-06 -4.71098e-07 0)
(5.00106e-06 -4.3002e-07 0)
(5.1405e-06 -3.84333e-07 0)
(5.27879e-06 -3.32974e-07 0)
(5.41573e-06 -2.7534e-07 0)
(2.29625e-06 -1.13345e-06 0)
(2.4918e-06 -1.06747e-06 0)
(2.68251e-06 -1.01001e-06 0)
(2.8682e-06 -9.58766e-07 0)
(3.04893e-06 -9.13031e-07 0)
(3.22481e-06 -8.71749e-07 0)
(3.39617e-06 -8.33951e-07 0)
(3.56331e-06 -7.9875e-07 0)
(3.72658e-06 -7.65321e-07 0)
(3.88628e-06 -7.32915e-07 0)
(4.04271e-06 -7.00827e-07 0)
(4.19611e-06 -6.68401e-07 0)
(4.34684e-06 -6.35017e-07 0)
(4.49513e-06 -6.00049e-07 0)
(4.64113e-06 -5.62838e-07 0)
(4.78521e-06 -5.22739e-07 0)
(4.92747e-06 -4.78994e-07 0)
(5.06816e-06 -4.30905e-07 0)
(5.20765e-06 -3.77465e-07 0)
(5.34595e-06 -3.1806e-07 0)
(2.21437e-06 -1.23419e-06 0)
(2.40691e-06 -1.16776e-06 0)
(2.59592e-06 -1.10828e-06 0)
(2.78073e-06 -1.05413e-06 0)
(2.96138e-06 -1.00491e-06 0)
(3.1377e-06 -9.59843e-07 0)
(3.30991e-06 -9.18125e-07 0)
(3.47814e-06 -8.7899e-07 0)
(3.64264e-06 -8.41684e-07 0)
(3.80365e-06 -8.05506e-07 0)
(3.9614e-06 -7.69781e-07 0)
(4.11611e-06 -7.33876e-07 0)
(4.26813e-06 -6.97189e-07 0)
(4.41764e-06 -6.591e-07 0)
(4.56481e-06 -6.18973e-07 0)
(4.71001e-06 -5.76186e-07 0)
(4.85335e-06 -5.30023e-07 0)
(4.99514e-06 -4.79827e-07 0)
(5.13573e-06 -4.24638e-07 0)
(5.27528e-06 -3.6389e-07 0)
(2.14244e-06 -1.33066e-06 0)
(2.33138e-06 -1.26428e-06 0)
(2.51779e-06 -1.20356e-06 0)
(2.70079e-06 -1.14729e-06 0)
(2.88032e-06 -1.09531e-06 0)
(3.05612e-06 -1.04706e-06 0)
(3.22826e-06 -1.00193e-06 0)
(3.39674e-06 -9.59271e-07 0)
(3.56172e-06 -9.18413e-07 0)
(3.7234e-06 -8.78726e-07 0)
(3.88193e-06 -8.39582e-07 0)
(4.03748e-06 -8.00386e-07 0)
(4.19039e-06 -7.60569e-07 0)
(4.34081e-06 -7.1953e-07 0)
(4.48889e-06 -6.76666e-07 0)
(4.63502e-06 -6.31386e-07 0)
(4.77927e-06 -5.83024e-07 0)
(4.92204e-06 -5.3096e-07 0)
(5.0636e-06 -4.74301e-07 0)
(5.2043e-06 -4.12612e-07 0)
(2.07853e-06 -1.42303e-06 0)
(2.2636e-06 -1.35706e-06 0)
(2.44693e-06 -1.29562e-06 0)
(2.62747e-06 -1.23781e-06 0)
(2.80519e-06 -1.18364e-06 0)
(2.97973e-06 -1.13276e-06 0)
(3.15108e-06 -1.0847e-06 0)
(3.31912e-06 -1.03892e-06 0)
(3.48397e-06 -9.94874e-07 0)
(3.64576e-06 -9.5199e-07 0)
(3.80459e-06 -9.09701e-07 0)
(3.96057e-06 -8.67464e-07 0)
(4.11403e-06 -8.24751e-07 0)
(4.26506e-06 -7.80988e-07 0)
(4.41382e-06 -7.35612e-07 0)
(4.56066e-06 -6.88067e-07 0)
(4.70568e-06 -6.3774e-07 0)
(4.84927e-06 -5.84054e-07 0)
(4.99171e-06 -5.26228e-07 0)
(5.13343e-06 -4.6398e-07 0)
(2.02126e-06 -1.5115e-06 0)
(2.20231e-06 -1.44619e-06 0)
(2.38227e-06 -1.3844e-06 0)
(2.55992e-06 -1.32553e-06 0)
(2.73535e-06 -1.2697e-06 0)
(2.90811e-06 -1.21668e-06 0)
(3.07812e-06 -1.16614e-06 0)
(3.2452e-06 -1.11767e-06 0)
(3.40942e-06 -1.0708e-06 0)
(3.57088e-06 -1.02506e-06 0)
(3.72959e-06 -9.79928e-07 0)
(3.88565e-06 -9.34924e-07 0)
(4.03934e-06 -8.89564e-07 0)
(4.1907e-06 -8.43313e-07 0)
(4.33993e-06 -7.95649e-07 0)
(4.48729e-06 -7.46057e-07 0)
(4.63291e-06 -6.93982e-07 0)
(4.77719e-06 -6.38913e-07 0)
(4.92041e-06 -5.80221e-07 0)
(5.06302e-06 -5.17685e-07 0)
(1.96945e-06 -1.59629e-06 0)
(2.14646e-06 -1.53178e-06 0)
(2.32287e-06 -1.46995e-06 0)
(2.4974e-06 -1.41039e-06 0)
(2.67021e-06 -1.35331e-06 0)
(2.84081e-06 -1.29857e-06 0)
(3.00908e-06 -1.24598e-06 0)
(3.1748e-06 -1.19521e-06 0)
(3.33801e-06 -1.14589e-06 0)
(3.49875e-06 -1.09762e-06 0)
(3.657e-06 -1.04996e-06 0)
(3.81284e-06 -1.00248e-06 0)
(3.96649e-06 -9.54734e-07 0)
(4.11795e-06 -9.06235e-07 0)
(4.26741e-06 -8.56511e-07 0)
(4.41513e-06 -8.05092e-07 0)
(4.56121e-06 -7.51494e-07 0)
(4.70607e-06 -6.95293e-07 0)
(4.84995e-06 -6.35995e-07 0)
(4.99331e-06 -5.73327e-07 0)
(1.92201e-06 -1.67765e-06 0)
(2.09506e-06 -1.61404e-06 0)
(2.26784e-06 -1.55239e-06 0)
(2.43916e-06 -1.49243e-06 0)
(2.60914e-06 -1.43443e-06 0)
(2.77732e-06 -1.37834e-06 0)
(2.94357e-06 -1.32405e-06 0)
(3.10764e-06 -1.27134e-06 0)
(3.26955e-06 -1.21991e-06 0)
(3.4293e-06 -1.16945e-06 0)
(3.58682e-06 -1.11957e-06 0)
(3.74217e-06 -1.0699e-06 0)
(3.89554e-06 -1.02004e-06 0)
(4.04689e-06 -9.69537e-07 0)
(4.19642e-06 -9.17984e-07 0)
(4.34434e-06 -8.64967e-07 0)
(4.49076e-06 -8.10081e-07 0)
(4.63608e-06 -7.52984e-07 0)
(4.78049e-06 -6.93247e-07 0)
(4.92448e-06 -6.30601e-07 0)
(1.87801e-06 -1.75585e-06 0)
(2.0472e-06 -1.6932e-06 0)
(2.21638e-06 -1.63186e-06 0)
(2.38443e-06 -1.5717e-06 0)
(2.55148e-06 -1.51303e-06 0)
(2.71711e-06 -1.45588e-06 0)
(2.88117e-06 -1.40022e-06 0)
(3.0434e-06 -1.34589e-06 0)
(3.2038e-06 -1.29269e-06 0)
(3.36235e-06 -1.24036e-06 0)
(3.51894e-06 -1.18858e-06 0)
(3.6736e-06 -1.137e-06 0)
(3.82649e-06 -1.08529e-06 0)
(3.97757e-06 -1.03305e-06 0)
(4.127e-06 -9.79908e-07 0)
(4.275e-06 -9.25532e-07 0)
(4.42165e-06 -8.69588e-07 0)
(4.56733e-06 -8.11783e-07 0)
(4.71215e-06 -7.51716e-07 0)
(4.85665e-06 -6.89286e-07 0)
(1.83662e-06 -1.8312e-06 0)
(2.00207e-06 -1.7695e-06 0)
(2.16771e-06 -1.70853e-06 0)
(2.33251e-06 -1.64831e-06 0)
(2.49661e-06 -1.58918e-06 0)
(2.65963e-06 -1.53122e-06 0)
(2.82141e-06 -1.47447e-06 0)
(2.9817e-06 -1.41884e-06 0)
(3.14047e-06 -1.36418e-06 0)
(3.29766e-06 -1.31029e-06 0)
(3.45316e-06 -1.25688e-06 0)
(3.60699e-06 -1.20369e-06 0)
(3.75927e-06 -1.15038e-06 0)
(3.90994e-06 -1.09663e-06 0)
(4.05918e-06 -1.04214e-06 0)
(4.20716e-06 -9.86635e-07 0)
(4.35393e-06 -9.29823e-07 0)
(4.49985e-06 -8.7144e-07 0)
(4.64501e-06 -8.11174e-07 0)
(4.78992e-06 -7.49088e-07 0)
(1.7971e-06 -1.90393e-06 0)
(1.95894e-06 -1.84313e-06 0)
(2.12114e-06 -1.78258e-06 0)
(2.28275e-06 -1.72241e-06 0)
(2.44394e-06 -1.663e-06 0)
(2.60436e-06 -1.60445e-06 0)
(2.76385e-06 -1.54687e-06 0)
(2.92214e-06 -1.4902e-06 0)
(3.07919e-06 -1.43436e-06 0)
(3.23495e-06 -1.37916e-06 0)
(3.38928e-06 -1.32439e-06 0)
(3.54217e-06 -1.26981e-06 0)
(3.69375e-06 -1.21516e-06 0)
(3.84394e-06 -1.16015e-06 0)
(3.9929e-06 -1.10454e-06 0)
(4.14078e-06 -1.0481e-06 0)
(4.28759e-06 -9.90573e-07 0)
(4.43366e-06 -9.31727e-07 0)
(4.57907e-06 -8.71434e-07 0)
(4.7243e-06 -8.09696e-07 0)
(1.75877e-06 -1.97426e-06 0)
(1.91714e-06 -1.91428e-06 0)
(2.07601e-06 -1.85418e-06 0)
(2.23456e-06 -1.79416e-06 0)
(2.39293e-06 -1.73461e-06 0)
(2.55079e-06 -1.67567e-06 0)
(2.708e-06 -1.61746e-06 0)
(2.8643e-06 -1.55997e-06 0)
(3.01963e-06 -1.50318e-06 0)
(3.17392e-06 -1.44693e-06 0)
(3.32702e-06 -1.39104e-06 0)
(3.47894e-06 -1.33534e-06 0)
(3.62978e-06 -1.27958e-06 0)
(3.77945e-06 -1.22355e-06 0)
(3.92807e-06 -1.16704e-06 0)
(4.07578e-06 -1.10983e-06 0)
(4.22255e-06 -1.05171e-06 0)
(4.36871e-06 -9.92551e-07 0)
(4.5143e-06 -9.32334e-07 0)
(4.65977e-06 -8.70952e-07 0)
(1.72099e-06 -2.04237e-06 0)
(1.87606e-06 -1.98317e-06 0)
(2.03176e-06 -1.92354e-06 0)
(2.18737e-06 -1.86373e-06 0)
(2.34302e-06 -1.80414e-06 0)
(2.49842e-06 -1.74495e-06 0)
(2.65343e-06 -1.68631e-06 0)
(2.80778e-06 -1.62823e-06 0)
(2.96141e-06 -1.57071e-06 0)
(3.11425e-06 -1.51364e-06 0)
(3.26614e-06 -1.45687e-06 0)
(3.41709e-06 -1.40026e-06 0)
(3.56719e-06 -1.34362e-06 0)
(3.71632e-06 -1.28677e-06 0)
(3.86457e-06 -1.22952e-06 0)
(4.01205e-06 -1.17169e-06 0)
(4.15874e-06 -1.11313e-06 0)
(4.30495e-06 -1.0538e-06 0)
(4.45068e-06 -9.93638e-07 0)
(4.59629e-06 -9.32662e-07 0)
(1.68315e-06 -2.10848e-06 0)
(1.8351e-06 -2.05002e-06 0)
(1.9878e-06 -1.99085e-06 0)
(2.14062e-06 -1.9313e-06 0)
(2.29369e-06 -1.87177e-06 0)
(2.44677e-06 -1.81248e-06 0)
(2.59968e-06 -1.75356e-06 0)
(2.75217e-06 -1.69507e-06 0)
(2.90418e-06 -1.637e-06 0)
(3.05564e-06 -1.57929e-06 0)
(3.20638e-06 -1.52185e-06 0)
(3.35641e-06 -1.46456e-06 0)
(3.50579e-06 -1.40725e-06 0)
(3.65436e-06 -1.34976e-06 0)
(3.80221e-06 -1.29192e-06 0)
(3.94946e-06 -1.23361e-06 0)
(4.09607e-06 -1.17474e-06 0)
(4.24229e-06 -1.11532e-06 0)
(4.38809e-06 -1.05522e-06 0)
(4.53378e-06 -9.94613e-07 0)
(1.6447e-06 -2.17279e-06 0)
(1.79368e-06 -2.11504e-06 0)
(1.94352e-06 -2.05626e-06 0)
(2.09376e-06 -1.99702e-06 0)
(2.24444e-06 -1.93767e-06 0)
(2.39537e-06 -1.87838e-06 0)
(2.54633e-06 -1.81931e-06 0)
(2.69708e-06 -1.76056e-06 0)
(2.84759e-06 -1.70212e-06 0)
(2.99778e-06 -1.64399e-06 0)
(3.14748e-06 -1.58607e-06 0)
(3.29666e-06 -1.52827e-06 0)
(3.44534e-06 -1.47046e-06 0)
(3.59337e-06 -1.41246e-06 0)
(3.74085e-06 -1.35419e-06 0)
(3.88788e-06 -1.29555e-06 0)
(4.03441e-06 -1.2365e-06 0)
(4.1806e-06 -1.17696e-06 0)
(4.32638e-06 -1.11697e-06 0)
(4.47209e-06 -1.05667e-06 0)
(1.60503e-06 -2.23548e-06 0)
(1.75111e-06 -2.17822e-06 0)
(1.89824e-06 -2.11999e-06 0)
(2.04621e-06 -2.06117e-06 0)
(2.19473e-06 -2.00204e-06 0)
(2.34372e-06 -1.94284e-06 0)
(2.49292e-06 -1.88375e-06 0)
(2.64214e-06 -1.82487e-06 0)
(2.79133e-06 -1.76623e-06 0)
(2.94043e-06 -1.70783e-06 0)
(3.0892e-06 -1.6496e-06 0)
(3.23759e-06 -1.59144e-06 0)
(3.38562e-06 -1.53325e-06 0)
(3.53317e-06 -1.47492e-06 0)
(3.68036e-06 -1.41636e-06 0)
(3.82721e-06 -1.3575e-06 0)
(3.97357e-06 -1.29828e-06 0)
(4.11962e-06 -1.23864e-06 0)
(4.2654e-06 -1.1788e-06 0)
(4.41127e-06 -1.11876e-06 0)
(1.5632e-06 -2.29644e-06 0)
(1.70683e-06 -2.23982e-06 0)
(1.85173e-06 -2.18223e-06 0)
(1.99751e-06 -2.12383e-06 0)
(2.14411e-06 -2.06501e-06 0)
(2.29137e-06 -2.006e-06 0)
(2.43908e-06 -1.947e-06 0)
(2.58703e-06 -1.88813e-06 0)
(2.73516e-06 -1.82943e-06 0)
(2.88332e-06 -1.7709e-06 0)
(3.03126e-06 -1.71247e-06 0)
(3.17895e-06 -1.6541e-06 0)
(3.32649e-06 -1.5957e-06 0)
(3.47372e-06 -1.53715e-06 0)
(3.62061e-06 -1.47839e-06 0)
(3.76711e-06 -1.41936e-06 0)
(3.91328e-06 -1.36001e-06 0)
(4.0594e-06 -1.30037e-06 0)
(4.20515e-06 -1.24059e-06 0)
(4.35079e-06 -1.18075e-06 0)
(1.51866e-06 -2.35637e-06 0)
(1.66004e-06 -2.30044e-06 0)
(1.80289e-06 -2.24334e-06 0)
(1.94687e-06 -2.18539e-06 0)
(2.09188e-06 -2.12692e-06 0)
(2.23779e-06 -2.0682e-06 0)
(2.38441e-06 -2.0094e-06 0)
(2.53145e-06 -1.95063e-06 0)
(2.67872e-06 -1.89195e-06 0)
(2.8261e-06 -1.83338e-06 0)
(2.97344e-06 -1.77488e-06 0)
(3.12076e-06 -1.71641e-06 0)
(3.26792e-06 -1.65787e-06 0)
(3.41468e-06 -1.59917e-06 0)
(3.56124e-06 -1.54028e-06 0)
(3.70766e-06 -1.48113e-06 0)
(3.85369e-06 -1.42168e-06 0)
(3.99963e-06 -1.36207e-06 0)
(4.14537e-06 -1.30231e-06 0)
(4.29097e-06 -1.2426e-06 0)
(1.47078e-06 -2.41475e-06 0)
(1.61018e-06 -2.35961e-06 0)
(1.7513e-06 -2.3032e-06 0)
(1.89383e-06 -2.24582e-06 0)
(2.03775e-06 -2.18786e-06 0)
(2.18283e-06 -2.12954e-06 0)
(2.3287e-06 -2.07103e-06 0)
(2.47502e-06 -2.01245e-06 0)
(2.62175e-06 -1.95389e-06 0)
(2.76882e-06 -1.89538e-06 0)
(2.91585e-06 -1.83689e-06 0)
(3.06272e-06 -1.77838e-06 0)
(3.20955e-06 -1.71975e-06 0)
(3.35613e-06 -1.66098e-06 0)
(3.50241e-06 -1.60201e-06 0)
(3.64858e-06 -1.54278e-06 0)
(3.7945e-06 -1.48331e-06 0)
(3.9403e-06 -1.42363e-06 0)
(4.08602e-06 -1.36387e-06 0)
(4.23143e-06 -1.3042e-06 0)
(1.05302e-07 -2.01251e-06 0)
(3.17184e-07 -1.98354e-06 0)
(5.32876e-07 -1.92646e-06 0)
(7.54444e-07 -1.84393e-06 0)
(9.83618e-07 -1.73885e-06 0)
(1.2215e-06 -1.61534e-06 0)
(1.46846e-06 -1.4778e-06 0)
(1.7241e-06 -1.33089e-06 0)
(1.98774e-06 -1.17928e-06 0)
(2.25716e-06 -1.02665e-06 0)
(1.0275e-07 -2.04785e-06 0)
(3.093e-07 -2.02146e-06 0)
(5.18975e-07 -1.96934e-06 0)
(7.33456e-07 -1.89383e-06 0)
(9.54159e-07 -1.79738e-06 0)
(1.18201e-06 -1.68346e-06 0)
(1.41727e-06 -1.55585e-06 0)
(1.65952e-06 -1.41857e-06 0)
(1.90758e-06 -1.27594e-06 0)
(2.1597e-06 -1.13131e-06 0)
(1.00424e-07 -2.08431e-06 0)
(3.02106e-07 -2.06024e-06 0)
(5.06242e-07 -2.0126e-06 0)
(7.14199e-07 -1.9435e-06 0)
(9.27098e-07 -1.85503e-06 0)
(1.14569e-06 -1.75014e-06 0)
(1.37021e-06 -1.63213e-06 0)
(1.60056e-06 -1.50434e-06 0)
(1.83577e-06 -1.37062e-06 0)
(2.0748e-06 -1.2332e-06 0)
(9.82852e-08 -2.1218e-06 0)
(2.95577e-07 -2.09968e-06 0)
(4.94827e-07 -2.05584e-06 0)
(6.97163e-07 -1.99218e-06 0)
(9.03501e-07 -1.9105e-06 0)
(1.11438e-06 -1.81339e-06 0)
(1.32997e-06 -1.70379e-06 0)
(1.55016e-06 -1.58464e-06 0)
(1.77407e-06 -1.45959e-06 0)
(2.00088e-06 -1.33035e-06 0)
(9.62973e-08 -2.16025e-06 0)
(2.89445e-07 -2.13987e-06 0)
(4.84201e-07 -2.09942e-06 0)
(6.81421e-07 -2.04062e-06 0)
(8.81865e-07 -1.96508e-06 0)
(1.08594e-06 -1.87506e-06 0)
(1.29379e-06 -1.77321e-06 0)
(1.50533e-06 -1.66208e-06 0)
(1.71985e-06 -1.54497e-06 0)
(1.93626e-06 -1.4234e-06 0)
(9.44515e-08 -2.19958e-06 0)
(2.83716e-07 -2.18069e-06 0)
(4.74329e-07 -2.14322e-06 0)
(6.66921e-07 -2.08863e-06 0)
(8.62119e-07 -2.01848e-06 0)
(1.06026e-06 -1.93473e-06 0)
(1.26138e-06 -1.83982e-06 0)
(1.46535e-06 -1.73606e-06 0)
(1.67172e-06 -1.62639e-06 0)
(1.8791e-06 -1.51233e-06 0)
(9.2641e-08 -2.23974e-06 0)
(2.78228e-07 -2.22216e-06 0)
(4.64916e-07 -2.18734e-06 0)
(6.53203e-07 -2.13651e-06 0)
(8.43632e-07 -2.07118e-06 0)
(1.03645e-06 -1.9931e-06 0)
(1.23168e-06 -1.90448e-06 0)
(1.42909e-06 -1.80741e-06 0)
(1.62844e-06 -1.70451e-06 0)
(1.82809e-06 -1.59738e-06 0)
(9.08765e-08 -2.2806e-06 0)
(2.72931e-07 -2.26419e-06 0)
(4.55862e-07 -2.23172e-06 0)
(6.40112e-07 -2.18422e-06 0)
(8.26174e-07 -2.12318e-06 0)
(1.01417e-06 -2.05018e-06 0)
(1.20414e-06 -1.96723e-06 0)
(1.39576e-06 -1.87625e-06 0)
(1.58897e-06 -1.77953e-06 0)
(1.78201e-06 -1.67881e-06 0)
(8.9185e-08 -2.32212e-06 0)
(2.67746e-07 -2.30673e-06 0)
(4.47024e-07 -2.27637e-06 0)
(6.27437e-07 -2.23188e-06 0)
(8.09394e-07 -2.1747e-06 0)
(9.92986e-07 -2.10628e-06 0)
(1.17821e-06 -2.02843e-06 0)
(1.36469e-06 -1.94293e-06 0)
(1.55249e-06 -1.85184e-06 0)
(1.73984e-06 -1.75697e-06 0)
(8.75143e-08 -2.36419e-06 0)
(2.62591e-07 -2.3497e-06 0)
(4.383e-07 -2.32122e-06 0)
(6.15041e-07 -2.27946e-06 0)
(7.93094e-07 -2.22574e-06 0)
(9.72577e-07 -2.16144e-06 0)
(1.15347e-06 -2.0882e-06 0)
(1.33532e-06 -2.00768e-06 0)
(1.51829e-06 -1.92173e-06 0)
(1.70067e-06 -1.83219e-06 0)
(8.5794e-08 -2.4067e-06 0)
(2.57403e-07 -2.39301e-06 0)
(4.29602e-07 -2.36624e-06 0)
(6.02751e-07 -2.32695e-06 0)
(7.77051e-07 -2.27638e-06 0)
(9.52634e-07 -2.2158e-06 0)
(1.12949e-06 -2.14673e-06 0)
(1.30712e-06 -2.07074e-06 0)
(1.48572e-06 -1.98948e-06 0)
(1.66371e-06 -1.90476e-06 0)
(8.40268e-08 -2.44952e-06 0)
(2.52176e-07 -2.43658e-06 0)
(4.20875e-07 -2.41136e-06 0)
(5.90432e-07 -2.37433e-06 0)
(7.61066e-07 -2.32663e-06 0)
(9.32885e-07 -2.26942e-06 0)
(1.1059e-06 -2.20414e-06 0)
(1.27962e-06 -2.13227e-06 0)
(1.4542e-06 -2.05526e-06 0)
(1.62826e-06 -1.9749e-06 0)
(8.22424e-08 -2.49257e-06 0)
(2.46877e-07 -2.48034e-06 0)
(4.12019e-07 -2.45654e-06 0)
(5.77941e-07 -2.42157e-06 0)
(7.44932e-07 -2.37647e-06 0)
(9.13068e-07 -2.32234e-06 0)
(1.08238e-06 -2.26052e-06 0)
(1.25238e-06 -2.1924e-06 0)
(1.42323e-06 -2.11925e-06 0)
(1.59372e-06 -2.04284e-06 0)
(8.04309e-08 -2.53574e-06 0)
(2.41423e-07 -2.52419e-06 0)
(4.02897e-07 -2.50166e-06 0)
(5.65119e-07 -2.46858e-06 0)
(7.2844e-07 -2.42586e-06 0)
(8.92914e-07 -2.37456e-06 0)
(1.05858e-06 -2.31591e-06 0)
(1.225e-06 -2.2512e-06 0)
(1.39231e-06 -2.18161e-06 0)
(1.55948e-06 -2.10881e-06 0)
(7.85388e-08 -2.57895e-06 0)
(2.35702e-07 -2.56802e-06 0)
(3.93358e-07 -2.54665e-06 0)
(5.51785e-07 -2.5153e-06 0)
(7.11352e-07 -2.47479e-06 0)
(8.72119e-07 -2.42612e-06 0)
(1.03413e-06 -2.37038e-06 0)
(1.19704e-06 -2.30878e-06 0)
(1.36095e-06 -2.24248e-06 0)
(1.52498e-06 -2.17296e-06 0)
(7.65175e-08 -2.62196e-06 0)
(2.29628e-07 -2.61162e-06 0)
(3.8328e-07 -2.59133e-06 0)
(5.37755e-07 -2.56161e-06 0)
(6.93419e-07 -2.52314e-06 0)
(8.50376e-07 -2.47688e-06 0)
(1.0087e-06 -2.42383e-06 0)
(1.16812e-06 -2.36516e-06 0)
(1.32869e-06 -2.30191e-06 0)
(1.48969e-06 -2.23539e-06 0)
(7.43432e-08 -2.66473e-06 0)
(2.23138e-07 -2.65496e-06 0)
(3.72531e-07 -2.63569e-06 0)
(5.22823e-07 -2.60746e-06 0)
(6.74382e-07 -2.57092e-06 0)
(8.27367e-07 -2.52694e-06 0)
(9.81895e-07 -2.47643e-06 0)
(1.13776e-06 -2.42052e-06 0)
(1.29498e-06 -2.36007e-06 0)
(1.45296e-06 -2.29638e-06 0)
(7.20043e-08 -2.70684e-06 0)
(2.16163e-07 -2.69761e-06 0)
(3.60978e-07 -2.67931e-06 0)
(5.06787e-07 -2.65252e-06 0)
(6.53981e-07 -2.6178e-06 0)
(8.02777e-07 -2.57598e-06 0)
(9.53324e-07 -2.5279e-06 0)
(1.10547e-06 -2.47459e-06 0)
(1.25922e-06 -2.4168e-06 0)
(1.41416e-06 -2.35578e-06 0)
(6.9467e-08 -2.74851e-06 0)
(2.08579e-07 -2.73977e-06 0)
(3.48401e-07 -2.72244e-06 0)
(4.89332e-07 -2.69701e-06 0)
(6.31801e-07 -2.66405e-06 0)
(7.76096e-07 -2.62432e-06 0)
(9.22384e-07 -2.5786e-06 0)
(1.07057e-06 -2.52775e-06 0)
(1.22067e-06 -2.47258e-06 0)
(1.37246e-06 -2.41408e-06 0)
(6.67088e-08 -2.78861e-06 0)
(2.0032e-07 -2.78033e-06 0)
(3.34684e-07 -2.76395e-06 0)
(4.70309e-07 -2.7399e-06 0)
(6.07675e-07 -2.7087e-06 0)
(7.47092e-07 -2.67105e-06 0)
(8.88747e-07 -2.62764e-06 0)
(1.03264e-06 -2.57924e-06 0)
(1.17887e-06 -2.52668e-06 0)
(1.32736e-06 -2.47076e-06 0)
)


// ************************************************************************* //
