/*--------------------------------*- C++ -*----------------------------------*\
| =========                 |                                                 |
| \\      /  F ield         | foam-extend: Open Source CFD                    |
|  \\    /   O peration     | Version:     4.1                                |
|   \\  /    A nd           | Web:         http://www.foam-extend.org         |
|    \\/     M anipulation  |                                                 |
\*---------------------------------------------------------------------------*/
FoamFile
{
    version     2.0;
    format      ascii;
    class       vectorField;
    location    "5";
    object      solidsCellD_iteration19;
}
// * * * * * * * * * * * * * * * * * * * * * * * * * * * * * * * * * * * * * //


1000
(
(2.60482e-06 -1.11095e-06 0)
(2.45639e-06 -1.03314e-06 0)
(2.36126e-06 -9.83491e-07 0)
(2.30636e-06 -9.60014e-07 0)
(2.27923e-06 -9.51489e-07 0)
(2.27229e-06 -9.54504e-07 0)
(2.28029e-06 -9.6505e-07 0)
(2.29943e-06 -9.81175e-07 0)
(2.32702e-06 -1.00112e-06 0)
(2.36128e-06 -1.02361e-06 0)
(2.35498e-06 -1.21351e-06 0)
(2.19697e-06 -1.15915e-06 0)
(2.09584e-06 -1.1243e-06 0)
(2.03649e-06 -1.11086e-06 0)
(2.00595e-06 -1.10898e-06 0)
(1.99597e-06 -1.11668e-06 0)
(2.00105e-06 -1.13055e-06 0)
(2.01719e-06 -1.14916e-06 0)
(2.0416e-06 -1.17112e-06 0)
(2.07192e-06 -1.19494e-06 0)
(2.09552e-06 -1.31074e-06 0)
(1.93413e-06 -1.28258e-06 0)
(1.83094e-06 -1.26432e-06 0)
(1.7697e-06 -1.262e-06 0)
(1.73731e-06 -1.26739e-06 0)
(1.72525e-06 -1.28011e-06 0)
(1.72796e-06 -1.29746e-06 0)
(1.74141e-06 -1.31858e-06 0)
(1.76279e-06 -1.3425e-06 0)
(1.78979e-06 -1.36769e-06 0)
(1.82832e-06 -1.40089e-06 0)
(1.6703e-06 -1.40021e-06 0)
(1.56931e-06 -1.39938e-06 0)
(1.5089e-06 -1.40865e-06 0)
(1.47634e-06 -1.4216e-06 0)
(1.4632e-06 -1.43947e-06 0)
(1.46409e-06 -1.46034e-06 0)
(1.47512e-06 -1.48395e-06 0)
(1.49363e-06 -1.50975e-06 0)
(1.51725e-06 -1.5364e-06 0)
(1.55521e-06 -1.48218e-06 0)
(1.40725e-06 -1.50875e-06 0)
(1.31277e-06 -1.52518e-06 0)
(1.25593e-06 -1.54593e-06 0)
(1.22488e-06 -1.56631e-06 0)
(1.21166e-06 -1.58925e-06 0)
(1.2113e-06 -1.61354e-06 0)
(1.22018e-06 -1.63958e-06 0)
(1.23588e-06 -1.66718e-06 0)
(1.25608e-06 -1.69533e-06 0)
(1.27753e-06 -1.55297e-06 0)
(1.14619e-06 -1.60504e-06 0)
(1.06236e-06 -1.63765e-06 0)
(1.0117e-06 -1.66912e-06 0)
(9.83747e-07 -1.69645e-06 0)
(9.71405e-07 -1.72408e-06 0)
(9.70336e-07 -1.75153e-06 0)
(9.77282e-07 -1.77982e-06 0)
(9.9017e-07 -1.80909e-06 0)
(1.00682e-06 -1.83872e-06 0)
(9.96622e-07 -1.61165e-06 0)
(8.87717e-07 -1.68606e-06 0)
(8.18222e-07 -1.73286e-06 0)
(7.76087e-07 -1.77373e-06 0)
(7.52692e-07 -1.80713e-06 0)
(7.42114e-07 -1.83887e-06 0)
(7.40782e-07 -1.86908e-06 0)
(7.45966e-07 -1.89934e-06 0)
(7.56013e-07 -1.93006e-06 0)
(7.69026e-07 -1.96102e-06 0)
(7.134e-07 -1.65692e-06 0)
(6.3185e-07 -1.74928e-06 0)
(5.7982e-07 -1.80747e-06 0)
(5.48218e-07 -1.85586e-06 0)
(5.30597e-07 -1.89414e-06 0)
(5.22492e-07 -1.92919e-06 0)
(5.21246e-07 -1.96163e-06 0)
(5.24816e-07 -1.9935e-06 0)
(5.32007e-07 -2.02538e-06 0)
(5.41335e-07 -2.05746e-06 0)
(4.28692e-07 -1.6877e-06 0)
(3.78202e-07 -1.7926e-06 0)
(3.46009e-07 -1.85875e-06 0)
(3.26407e-07 -1.91243e-06 0)
(3.15422e-07 -1.95411e-06 0)
(3.10309e-07 -1.99147e-06 0)
(3.09446e-07 -2.02548e-06 0)
(3.11548e-07 -2.05849e-06 0)
(3.15865e-07 -2.0912e-06 0)
(3.21466e-07 -2.12408e-06 0)
(1.43172e-07 -1.70321e-06 0)
(1.2607e-07 -1.8146e-06 0)
(1.15122e-07 -1.88485e-06 0)
(1.08449e-07 -1.94124e-06 0)
(1.04722e-07 -1.98469e-06 0)
(1.02969e-07 -2.02325e-06 0)
(1.02628e-07 -2.05805e-06 0)
(1.03302e-07 -2.09164e-06 0)
(1.04743e-07 -2.12478e-06 0)
(1.06604e-07 -2.15809e-06 0)
(4.06819e-06 -5.06862e-08 0)
(4.10494e-06 -3.64751e-08 0)
(4.12699e-06 -2.74504e-08 0)
(4.15056e-06 -2.21293e-08 0)
(4.17624e-06 -1.91487e-08 0)
(4.2078e-06 -1.77572e-08 0)
(4.24524e-06 -1.74638e-08 0)
(4.28902e-06 -1.78505e-08 0)
(4.339e-06 -1.87352e-08 0)
(4.39453e-06 -1.98373e-08 0)
(4.03799e-06 -1.52079e-07 0)
(4.06857e-06 -1.10272e-07 0)
(4.08676e-06 -8.37325e-08 0)
(4.10775e-06 -6.81599e-08 0)
(4.13172e-06 -5.95541e-08 0)
(4.16207e-06 -5.55464e-08 0)
(4.19863e-06 -5.46901e-08 0)
(4.2417e-06 -5.59319e-08 0)
(4.29107e-06 -5.86565e-08 0)
(4.34597e-06 -6.19417e-08 0)
(3.97767e-06 -2.54315e-07 0)
(3.99652e-06 -1.87202e-07 0)
(4.00725e-06 -1.4465e-07 0)
(4.02333e-06 -1.1968e-07 0)
(4.04404e-06 -1.0592e-07 0)
(4.07208e-06 -9.96617e-08 0)
(4.10694e-06 -9.84741e-08 0)
(4.14865e-06 -1.00627e-07 0)
(4.19685e-06 -1.05166e-07 0)
(4.25051e-06 -1.10654e-07 0)
(3.8883e-06 -3.57861e-07 0)
(3.89047e-06 -2.69056e-07 0)
(3.89059e-06 -2.12793e-07 0)
(3.89966e-06 -1.79928e-07 0)
(3.91573e-06 -1.61901e-07 0)
(3.94051e-06 -1.53857e-07 0)
(3.97295e-06 -1.52564e-07 0)
(4.01272e-06 -1.55745e-07 0)
(4.05925e-06 -1.62074e-07 0)
(4.11116e-06 -1.69764e-07 0)
(3.77131e-06 -4.62977e-07 0)
(3.75283e-06 -3.57302e-07 0)
(3.73985e-06 -2.90362e-07 0)
(3.74023e-06 -2.51515e-07 0)
(3.75055e-06 -2.30397e-07 0)
(3.77126e-06 -2.21268e-07 0)
(3.80072e-06 -2.20221e-07 0)
(3.83806e-06 -2.24594e-07 0)
(3.88253e-06 -2.32713e-07 0)
(3.93231e-06 -2.42587e-07 0)
(3.62844e-06 -5.69744e-07 0)
(3.58661e-06 -4.52948e-07 0)
(3.55882e-06 -3.7893e-07 0)
(3.54938e-06 -3.36374e-07 0)
(3.55318e-06 -3.13542e-07 0)
(3.56925e-06 -3.04148e-07 0)
(3.59529e-06 -3.03777e-07 0)
(3.62986e-06 -3.09529e-07 0)
(3.67193e-06 -3.19448e-07 0)
(3.7193e-06 -3.31465e-07 0)
(3.46181e-06 -6.77935e-07 0)
(3.3953e-06 -5.56381e-07 0)
(3.3519e-06 -4.79278e-07 0)
(3.33207e-06 -4.3551e-07 0)
(3.32893e-06 -4.1248e-07 0)
(3.34006e-06 -4.03737e-07 0)
(3.36242e-06 -4.04534e-07 0)
(3.39402e-06 -4.11854e-07 0)
(3.43347e-06 -4.23585e-07 0)
(3.4783e-06 -4.37676e-07 0)
(3.2737e-06 -7.87043e-07 0)
(3.18273e-06 -6.67325e-07 0)
(3.12387e-06 -5.91303e-07 0)
(3.09369e-06 -5.48961e-07 0)
(3.08365e-06 -5.27326e-07 0)
(3.08978e-06 -5.20198e-07 0)
(3.10837e-06 -5.22692e-07 0)
(3.13686e-06 -5.31841e-07 0)
(3.17354e-06 -5.4542e-07 0)
(3.21571e-06 -5.61571e-07 0)
(3.06653e-06 -8.96321e-07 0)
(2.95282e-06 -7.84871e-07 0)
(2.87958e-06 -7.14037e-07 0)
(2.83973e-06 -6.75698e-07 0)
(2.82313e-06 -6.57028e-07 0)
(2.82442e-06 -6.52437e-07 0)
(2.83926e-06 -6.57154e-07 0)
(2.86461e-06 -6.68354e-07 0)
(2.89842e-06 -6.83961e-07 0)
(2.93802e-06 -7.02015e-07 0)
(2.84277e-06 -1.00473e-06 0)
(2.7095e-06 -9.07504e-07 0)
(2.6239e-06 -8.45627e-07 0)
(2.57564e-06 -8.13691e-07 0)
(2.55325e-06 -7.99458e-07 0)
(2.55015e-06 -7.98287e-07 0)
(2.56151e-06 -8.05711e-07 0)
(2.58375e-06 -8.19328e-07 0)
(2.6147e-06 -8.37005e-07 0)
(2.65157e-06 -8.57804e-07 0)
(4.45581e-06 -2.09351e-08 0)
(4.52263e-06 -2.11572e-08 0)
(4.59372e-06 -2.14202e-08 0)
(4.66885e-06 -2.16087e-08 0)
(4.74754e-06 -2.17045e-08 0)
(4.82947e-06 -2.16951e-08 0)
(4.91428e-06 -2.15366e-08 0)
(5.00166e-06 -2.12408e-08 0)
(5.09134e-06 -2.08155e-08 0)
(5.18303e-06 -2.02453e-08 0)
(5.27644e-06 -1.95073e-08 0)
(5.3713e-06 -1.85868e-08 0)
(5.46735e-06 -1.74664e-08 0)
(5.56429e-06 -1.61311e-08 0)
(5.66188e-06 -1.45626e-08 0)
(5.75973e-06 -1.27333e-08 0)
(5.85764e-06 -1.06026e-08 0)
(5.95496e-06 -8.123e-09 0)
(6.0518e-06 -5.23312e-09 0)
(6.1466e-06 -1.91123e-09 0)
(4.4094e-06 -6.49762e-08 0)
(4.48011e-06 -6.53345e-08 0)
(4.55468e-06 -6.5869e-08 0)
(4.63283e-06 -6.62254e-08 0)
(4.71421e-06 -6.62922e-08 0)
(4.7985e-06 -6.60758e-08 0)
(4.88546e-06 -6.54977e-08 0)
(4.97478e-06 -6.45576e-08 0)
(5.06623e-06 -6.32141e-08 0)
(5.15952e-06 -6.14185e-08 0)
(5.2544e-06 -5.9128e-08 0)
(5.35064e-06 -5.63165e-08 0)
(5.44797e-06 -5.29341e-08 0)
(5.54613e-06 -4.8921e-08 0)
(5.64486e-06 -4.4204e-08 0)
(5.74379e-06 -3.86977e-08 0)
(5.84275e-06 -3.22856e-08 0)
(5.94108e-06 -2.48394e-08 0)
(6.03893e-06 -1.61688e-08 0)
(6.13471e-06 -6.20873e-09 0)
(4.31814e-06 -1.14981e-07 0)
(4.39649e-06 -1.1462e-07 0)
(4.47787e-06 -1.1464e-07 0)
(4.56192e-06 -1.14563e-07 0)
(4.64858e-06 -1.14127e-07 0)
(4.73755e-06 -1.13339e-07 0)
(4.8287e-06 -1.12024e-07 0)
(4.9218e-06 -1.10158e-07 0)
(5.01668e-06 -1.07664e-07 0)
(5.11311e-06 -1.04473e-07 0)
(5.2109e-06 -1.00514e-07 0)
(5.30982e-06 -9.57299e-08 0)
(5.40966e-06 -9.00207e-08 0)
(5.51016e-06 -8.3279e-08 0)
(5.61112e-06 -7.53821e-08 0)
(5.71219e-06 -6.61867e-08 0)
(5.8132e-06 -5.54944e-08 0)
(5.91354e-06 -4.30975e-08 0)
(6.01336e-06 -2.8667e-08 0)
(6.11113e-06 -1.20964e-08 0)
(4.18479e-06 -1.74343e-07 0)
(4.27408e-06 -1.71925e-07 0)
(4.36533e-06 -1.70207e-07 0)
(4.45795e-06 -1.68752e-07 0)
(4.55229e-06 -1.67013e-07 0)
(4.64807e-06 -1.65015e-07 0)
(4.74537e-06 -1.62441e-07 0)
(4.84402e-06 -1.5925e-07 0)
(4.94396e-06 -1.55298e-07 0)
(5.04501e-06 -1.50469e-07 0)
(5.14706e-06 -1.44643e-07 0)
(5.24992e-06 -1.37721e-07 0)
(5.35345e-06 -1.29562e-07 0)
(5.45741e-06 -1.20016e-07 0)
(5.56165e-06 -1.08907e-07 0)
(5.66585e-06 -9.60179e-08 0)
(5.76987e-06 -8.10687e-08 0)
(5.87315e-06 -6.37629e-08 0)
(5.97584e-06 -4.36272e-08 0)
(6.07652e-06 -2.05255e-08 0)
(4.01338e-06 -2.46071e-07 0)
(4.11641e-06 -2.39858e-07 0)
(4.22015e-06 -2.34823e-07 0)
(4.32363e-06 -2.30776e-07 0)
(4.42779e-06 -2.26712e-07 0)
(4.5323e-06 -2.22685e-07 0)
(4.6375e-06 -2.18191e-07 0)
(4.74329e-06 -2.1314e-07 0)
(4.84974e-06 -2.07286e-07 0)
(4.95675e-06 -2.00456e-07 0)
(5.06429e-06 -1.92489e-07 0)
(5.17226e-06 -1.83229e-07 0)
(5.28056e-06 -1.7248e-07 0)
(5.38901e-06 -1.60032e-07 0)
(5.4975e-06 -1.45647e-07 0)
(5.60575e-06 -1.29032e-07 0)
(5.71368e-06 -1.09826e-07 0)
(5.82075e-06 -8.76433e-08 0)
(5.92719e-06 -6.18695e-08 0)
(6.03162e-06 -3.23277e-08 0)
(3.80878e-06 -3.32334e-07 0)
(3.92763e-06 -3.20309e-07 0)
(4.046e-06 -3.10087e-07 0)
(4.16227e-06 -3.0197e-07 0)
(4.27806e-06 -2.94367e-07 0)
(4.39296e-06 -2.87309e-07 0)
(4.50759e-06 -2.80073e-07 0)
(4.62193e-06 -2.72488e-07 0)
(4.73619e-06 -2.64209e-07 0)
(4.85038e-06 -2.5498e-07 0)
(4.96455e-06 -2.44568e-07 0)
(5.07867e-06 -2.32746e-07 0)
(5.1927e-06 -2.19247e-07 0)
(5.30655e-06 -2.03797e-07 0)
(5.42015e-06 -1.8608e-07 0)
(5.53327e-06 -1.65735e-07 0)
(5.6459e-06 -1.42302e-07 0)
(5.75754e-06 -1.15316e-07 0)
(5.86848e-06 -8.40223e-08 0)
(5.9774e-06 -4.81654e-08 0)
(3.57673e-06 -4.34439e-07 0)
(3.71274e-06 -4.14575e-07 0)
(3.84724e-06 -3.97317e-07 0)
(3.97772e-06 -3.83551e-07 0)
(4.10652e-06 -3.71117e-07 0)
(4.23313e-06 -3.59926e-07 0)
(4.35843e-06 -3.49081e-07 0)
(4.4825e-06 -3.38241e-07 0)
(4.60567e-06 -3.26954e-07 0)
(4.72806e-06 -3.14859e-07 0)
(4.84981e-06 -3.0163e-07 0)
(4.97098e-06 -2.86953e-07 0)
(5.0916e-06 -2.70486e-07 0)
(5.21165e-06 -2.51884e-07 0)
(5.33112e-06 -2.3075e-07 0)
(5.44985e-06 -2.06644e-07 0)
(5.56787e-06 -1.7901e-07 0)
(5.68474e-06 -1.47292e-07 0)
(5.80082e-06 -1.10608e-07 0)
(5.9149e-06 -6.8613e-08 0)
(3.32299e-06 -5.52709e-07 0)
(3.47669e-06 -5.22724e-07 0)
(3.62815e-06 -4.96527e-07 0)
(3.77387e-06 -4.75343e-07 0)
(3.91668e-06 -4.56738e-07 0)
(4.05607e-06 -4.40239e-07 0)
(4.19306e-06 -4.2487e-07 0)
(4.32784e-06 -4.10036e-07 0)
(4.46084e-06 -3.9516e-07 0)
(4.5923e-06 -3.79751e-07 0)
(4.72244e-06 -3.6337e-07 0)
(4.85142e-06 -3.45599e-07 0)
(4.97934e-06 -3.26008e-07 0)
(5.10627e-06 -3.04167e-07 0)
(5.23224e-06 -2.79592e-07 0)
(5.35717e-06 -2.51757e-07 0)
(5.48114e-06 -2.20011e-07 0)
(5.6038e-06 -1.83698e-07 0)
(5.72555e-06 -1.41812e-07 0)
(5.84533e-06 -9.39203e-08 0)
(3.05382e-06 -6.86894e-07 0)
(3.22515e-06 -6.44976e-07 0)
(3.3935e-06 -6.08701e-07 0)
(3.55493e-06 -5.78596e-07 0)
(3.71218e-06 -5.52607e-07 0)
(3.86498e-06 -5.29688e-07 0)
(4.01429e-06 -5.08831e-07 0)
(4.16044e-06 -4.89176e-07 0)
(4.30395e-06 -4.7002e-07 0)
(4.44514e-06 -4.50724e-07 0)
(4.58433e-06 -4.30723e-07 0)
(4.72174e-06 -4.09492e-07 0)
(4.85757e-06 -3.86502e-07 0)
(4.99194e-06 -3.61231e-07 0)
(5.12495e-06 -3.33098e-07 0)
(5.25658e-06 -3.01482e-07 0)
(5.38699e-06 -2.65645e-07 0)
(5.51592e-06 -2.24827e-07 0)
(5.6438e-06 -1.77922e-07 0)
(5.76976e-06 -1.24414e-07 0)
(2.77434e-06 -8.34573e-07 0)
(2.96343e-06 -7.77784e-07 0)
(3.14796e-06 -7.30127e-07 0)
(3.32547e-06 -6.89692e-07 0)
(3.49742e-06 -6.55176e-07 0)
(3.66413e-06 -6.24946e-07 0)
(3.82625e-06 -5.97865e-07 0)
(3.98431e-06 -5.72848e-07 0)
(4.13882e-06 -5.49011e-07 0)
(4.29022e-06 -5.25546e-07 0)
(4.43888e-06 -5.01748e-07 0)
(4.58513e-06 -4.7696e-07 0)
(4.72923e-06 -4.50543e-07 0)
(4.87137e-06 -4.21872e-07 0)
(5.01173e-06 -3.90269e-07 0)
(5.15036e-06 -3.55018e-07 0)
(5.28749e-06 -3.153e-07 0)
(5.42296e-06 -2.7024e-07 0)
(5.55727e-06 -2.18644e-07 0)
(5.68975e-06 -1.59888e-07 0)
(2.56775e-06 -9.75851e-07 0)
(2.76821e-06 -9.07137e-07 0)
(2.96212e-06 -8.51022e-07 0)
(3.14943e-06 -8.02357e-07 0)
(3.33061e-06 -7.60329e-07 0)
(3.50616e-06 -7.23258e-07 0)
(3.67664e-06 -6.89943e-07 0)
(3.84256e-06 -6.59273e-07 0)
(4.0044e-06 -6.3028e-07 0)
(4.16261e-06 -6.02087e-07 0)
(4.31761e-06 -5.73913e-07 0)
(4.46973e-06 -5.4503e-07 0)
(4.61926e-06 -5.14724e-07 0)
(4.76646e-06 -4.82307e-07 0)
(4.91153e-06 -4.47042e-07 0)
(5.05461e-06 -4.08154e-07 0)
(5.19597e-06 -3.648e-07 0)
(5.33558e-06 -3.16044e-07 0)
(5.47394e-06 -2.60675e-07 0)
(5.61061e-06 -1.98025e-07 0)
(2.44938e-06 -1.09015e-06 0)
(2.6513e-06 -1.0189e-06 0)
(2.84682e-06 -9.58163e-07 0)
(3.03662e-06 -9.04568e-07 0)
(3.22066e-06 -8.57334e-07 0)
(3.39931e-06 -8.15082e-07 0)
(3.57295e-06 -7.76703e-07 0)
(3.74197e-06 -7.41157e-07 0)
(3.90679e-06 -7.07501e-07 0)
(4.06781e-06 -6.74872e-07 0)
(4.22538e-06 -6.42492e-07 0)
(4.37985e-06 -6.09617e-07 0)
(4.53151e-06 -5.7552e-07 0)
(4.68061e-06 -5.39499e-07 0)
(4.82738e-06 -5.00814e-07 0)
(4.97203e-06 -4.58681e-07 0)
(5.11482e-06 -4.12288e-07 0)
(5.25585e-06 -3.60708e-07 0)
(5.3956e-06 -3.02774e-07 0)
(5.53383e-06 -2.37858e-07 0)
(2.34783e-06 -1.20009e-06 0)
(2.54788e-06 -1.12712e-06 0)
(2.74313e-06 -1.06331e-06 0)
(2.93338e-06 -1.00593e-06 0)
(3.11854e-06 -9.54407e-07 0)
(3.29871e-06 -9.07645e-07 0)
(3.47415e-06 -8.64682e-07 0)
(3.6451e-06 -8.24588e-07 0)
(3.81189e-06 -7.86488e-07 0)
(3.97485e-06 -7.49568e-07 0)
(4.13429e-06 -7.13075e-07 0)
(4.29052e-06 -6.76274e-07 0)
(4.44381e-06 -6.3844e-07 0)
(4.59442e-06 -5.98884e-07 0)
(4.74259e-06 -5.56872e-07 0)
(4.88857e-06 -5.11633e-07 0)
(5.03262e-06 -4.62388e-07 0)
(5.17492e-06 -4.0825e-07 0)
(5.31596e-06 -3.48114e-07 0)
(5.45566e-06 -2.81413e-07 0)
(2.25808e-06 -1.30622e-06 0)
(2.45536e-06 -1.2324e-06 0)
(2.64898e-06 -1.16627e-06 0)
(2.83834e-06 -1.10575e-06 0)
(3.02331e-06 -1.05052e-06 0)
(3.20381e-06 -9.99744e-07 0)
(3.37994e-06 -9.52612e-07 0)
(3.55186e-06 -9.0831e-07 0)
(3.71979e-06 -8.66044e-07 0)
(3.88397e-06 -8.25065e-07 0)
(4.04468e-06 -7.84655e-07 0)
(4.20215e-06 -7.44101e-07 0)
(4.35666e-06 -7.027e-07 0)
(4.50844e-06 -6.59786e-07 0)
(4.65775e-06 -6.14643e-07 0)
(4.80484e-06 -5.66533e-07 0)
(4.95e-06 -5.14711e-07 0)
(5.09345e-06 -4.58346e-07 0)
(5.23565e-06 -3.96415e-07 0)
(5.37671e-06 -3.2843e-07 0)
(2.17897e-06 -1.40782e-06 0)
(2.37261e-06 -1.33378e-06 0)
(2.56363e-06 -1.26613e-06 0)
(2.75107e-06 -1.20327e-06 0)
(2.93485e-06 -1.14505e-06 0)
(3.11469e-06 -1.09088e-06 0)
(3.29063e-06 -1.04009e-06 0)
(3.46268e-06 -9.9201e-07 0)
(3.63101e-06 -9.4593e-07 0)
(3.79577e-06 -9.01177e-07 0)
(3.95716e-06 -8.5709e-07 0)
(4.11541e-06 -8.12994e-07 0)
(4.27072e-06 -7.68219e-07 0)
(4.42335e-06 -7.22141e-07 0)
(4.57353e-06 -6.74065e-07 0)
(4.72152e-06 -6.23307e-07 0)
(4.86761e-06 -5.69157e-07 0)
(5.01206e-06 -5.10852e-07 0)
(5.1553e-06 -4.4748e-07 0)
(5.29762e-06 -3.78632e-07 0)
(2.10862e-06 -1.5051e-06 0)
(2.29822e-06 -1.4313e-06 0)
(2.48601e-06 -1.3627e-06 0)
(2.67085e-06 -1.29806e-06 0)
(2.85268e-06 -1.23745e-06 0)
(3.03112e-06 -1.18041e-06 0)
(3.20612e-06 -1.12645e-06 0)
(3.37763e-06 -1.07501e-06 0)
(3.54572e-06 -1.02549e-06 0)
(3.71048e-06 -9.77297e-07 0)
(3.87207e-06 -9.29827e-07 0)
(4.03065e-06 -8.82454e-07 0)
(4.18642e-06 -8.34555e-07 0)
(4.33959e-06 -7.85555e-07 0)
(4.49039e-06 -7.34788e-07 0)
(4.63907e-06 -6.81636e-07 0)
(4.78591e-06 -6.25432e-07 0)
(4.93121e-06 -5.6549e-07 0)
(5.07539e-06 -5.01019e-07 0)
(5.21883e-06 -4.31674e-07 0)
(2.04563e-06 -1.59812e-06 0)
(2.23095e-06 -1.5249e-06 0)
(2.41511e-06 -1.4558e-06 0)
(2.59686e-06 -1.38991e-06 0)
(2.77622e-06 -1.32742e-06 0)
(2.95268e-06 -1.26802e-06 0)
(3.12619e-06 -1.21137e-06 0)
(3.29661e-06 -1.15701e-06 0)
(3.46395e-06 -1.10444e-06 0)
(3.62825e-06 -1.05315e-06 0)
(3.78961e-06 -1.00261e-06 0)
(3.94815e-06 -9.52246e-07 0)
(4.10405e-06 -9.01494e-07 0)
(4.25749e-06 -8.4983e-07 0)
(4.40866e-06 -7.96622e-07 0)
(4.55784e-06 -7.41329e-07 0)
(4.70527e-06 -6.83333e-07 0)
(4.85128e-06 -6.22036e-07 0)
(4.99628e-06 -5.5676e-07 0)
(5.14068e-06 -4.87219e-07 0)
(1.98866e-06 -1.68712e-06 0)
(2.16963e-06 -1.61469e-06 0)
(2.34992e-06 -1.54543e-06 0)
(2.52832e-06 -1.4787e-06 0)
(2.70482e-06 -1.41476e-06 0)
(2.87892e-06 -1.35345e-06 0)
(3.05051e-06 -1.29453e-06 0)
(3.21941e-06 -1.23766e-06 0)
(3.38559e-06 -1.18242e-06 0)
(3.54904e-06 -1.12839e-06 0)
(3.70981e-06 -1.07511e-06 0)
(3.86801e-06 -1.02206e-06 0)
(4.02376e-06 -9.68745e-07 0)
(4.17722e-06 -9.1469e-07 0)
(4.32858e-06 -8.5931e-07 0)
(4.47808e-06 -8.02134e-07 0)
(4.62596e-06 -7.4261e-07 0)
(4.77255e-06 -6.80224e-07 0)
(4.91824e-06 -6.14402e-07 0)
(5.06345e-06 -5.44919e-07 0)
(1.93655e-06 -1.77234e-06 0)
(2.11317e-06 -1.70085e-06 0)
(2.28951e-06 -1.63167e-06 0)
(2.46439e-06 -1.56441e-06 0)
(2.63782e-06 -1.49939e-06 0)
(2.80928e-06 -1.43655e-06 0)
(2.97865e-06 -1.37576e-06 0)
(3.14572e-06 -1.31677e-06 0)
(3.31042e-06 -1.25923e-06 0)
(3.47272e-06 -1.20281e-06 0)
(3.63264e-06 -1.14712e-06 0)
(3.79024e-06 -1.0917e-06 0)
(3.94563e-06 -1.03611e-06 0)
(4.09893e-06 -9.79944e-07 0)
(4.2503e-06 -9.22659e-07 0)
(4.39998e-06 -8.63855e-07 0)
(4.54818e-06 -8.03052e-07 0)
(4.69524e-06 -7.3981e-07 0)
(4.84148e-06 -6.73658e-07 0)
(4.98737e-06 -6.04442e-07 0)
(1.88825e-06 -1.85408e-06 0)
(2.06061e-06 -1.78357e-06 0)
(2.233e-06 -1.71466e-06 0)
(2.4043e-06 -1.64711e-06 0)
(2.57453e-06 -1.58131e-06 0)
(2.74319e-06 -1.51728e-06 0)
(2.91014e-06 -1.45496e-06 0)
(3.07517e-06 -1.39419e-06 0)
(3.23819e-06 -1.3347e-06 0)
(3.39914e-06 -1.27623e-06 0)
(3.55801e-06 -1.21846e-06 0)
(3.71483e-06 -1.16098e-06 0)
(3.86968e-06 -1.10341e-06 0)
(4.02266e-06 -1.0454e-06 0)
(4.17391e-06 -9.86474e-07 0)
(4.32364e-06 -9.2629e-07 0)
(4.47204e-06 -8.64441e-07 0)
(4.61945e-06 -8.00548e-07 0)
(4.76612e-06 -7.34255e-07 0)
(4.91258e-06 -6.6547e-07 0)
(1.84284e-06 -1.93261e-06 0)
(2.01107e-06 -1.8631e-06 0)
(2.17958e-06 -1.79456e-06 0)
(2.34731e-06 -1.72691e-06 0)
(2.51431e-06 -1.66057e-06 0)
(2.68009e-06 -1.59562e-06 0)
(2.84453e-06 -1.53209e-06 0)
(3.0074e-06 -1.46986e-06 0)
(3.16861e-06 -1.40875e-06 0)
(3.32806e-06 -1.34855e-06 0)
(3.48574e-06 -1.289e-06 0)
(3.64165e-06 -1.22976e-06 0)
(3.79583e-06 -1.1705e-06 0)
(3.94837e-06 -1.11092e-06 0)
(4.09938e-06 -1.0506e-06 0)
(4.24906e-06 -9.89263e-07 0)
(4.39757e-06 -9.26573e-07 0)
(4.54521e-06 -8.62214e-07 0)
(4.69222e-06 -7.9594e-07 0)
(4.83912e-06 -7.277e-07 0)
(1.7995e-06 -2.00822e-06 0)
(1.96377e-06 -1.93967e-06 0)
(2.12849e-06 -1.87157e-06 0)
(2.29273e-06 -1.80396e-06 0)
(2.45653e-06 -1.73728e-06 0)
(2.61944e-06 -1.67165e-06 0)
(2.78134e-06 -1.60716e-06 0)
(2.942e-06 -1.54376e-06 0)
(3.10131e-06 -1.48132e-06 0)
(3.2592e-06 -1.41969e-06 0)
(3.4156e-06 -1.35867e-06 0)
(3.5705e-06 -1.29795e-06 0)
(3.72393e-06 -1.23726e-06 0)
(3.87596e-06 -1.17636e-06 0)
(4.02666e-06 -1.11488e-06 0)
(4.17621e-06 -1.05261e-06 0)
(4.32474e-06 -9.89262e-07 0)
(4.47252e-06 -9.24605e-07 0)
(4.6198e-06 -8.58471e-07 0)
(4.76702e-06 -7.90841e-07 0)
(1.75747e-06 -2.08116e-06 0)
(1.91795e-06 -2.01352e-06 0)
(2.07902e-06 -1.94589e-06 0)
(2.23989e-06 -1.87842e-06 0)
(2.40057e-06 -1.81155e-06 0)
(2.56065e-06 -1.74544e-06 0)
(2.72004e-06 -1.68024e-06 0)
(2.8785e-06 -1.61592e-06 0)
(3.03593e-06 -1.55243e-06 0)
(3.19223e-06 -1.48965e-06 0)
(3.34734e-06 -1.42742e-06 0)
(3.50121e-06 -1.36548e-06 0)
(3.65385e-06 -1.30362e-06 0)
(3.80532e-06 -1.24164e-06 0)
(3.95566e-06 -1.17922e-06 0)
(4.10501e-06 -1.1162e-06 0)
(4.25349e-06 -1.05236e-06 0)
(4.40136e-06 -9.87543e-07 0)
(4.54882e-06 -9.21637e-07 0)
(4.69626e-06 -8.54655e-07 0)
(1.71606e-06 -2.15164e-06 0)
(1.87291e-06 -2.08487e-06 0)
(2.0305e-06 -2.01772e-06 0)
(2.18813e-06 -1.95047e-06 0)
(2.34581e-06 -1.88353e-06 0)
(2.50319e-06 -1.81711e-06 0)
(2.66015e-06 -1.75141e-06 0)
(2.81649e-06 -1.68642e-06 0)
(2.9721e-06 -1.62212e-06 0)
(3.12684e-06 -1.55843e-06 0)
(3.28066e-06 -1.49524e-06 0)
(3.43351e-06 -1.43233e-06 0)
(3.58536e-06 -1.36953e-06 0)
(3.73624e-06 -1.30668e-06 0)
(3.8862e-06 -1.24351e-06 0)
(4.03532e-06 -1.17992e-06 0)
(4.18371e-06 -1.11573e-06 0)
(4.33163e-06 -1.05085e-06 0)
(4.47916e-06 -9.85227e-07 0)
(4.62677e-06 -9.18934e-07 0)
(1.67453e-06 -2.2199e-06 0)
(1.82796e-06 -2.15391e-06 0)
(1.98225e-06 -2.08727e-06 0)
(2.13681e-06 -2.02029e-06 0)
(2.29167e-06 -1.9534e-06 0)
(2.4465e-06 -1.88684e-06 0)
(2.60119e-06 -1.82081e-06 0)
(2.75552e-06 -1.75535e-06 0)
(2.90939e-06 -1.69045e-06 0)
(3.06267e-06 -1.62608e-06 0)
(3.21527e-06 -1.56216e-06 0)
(3.36714e-06 -1.4985e-06 0)
(3.51824e-06 -1.43497e-06 0)
(3.66857e-06 -1.37145e-06 0)
(3.81814e-06 -1.30771e-06 0)
(3.96703e-06 -1.24367e-06 0)
(4.11533e-06 -1.17926e-06 0)
(4.26323e-06 -1.11439e-06 0)
(4.41082e-06 -1.0491e-06 0)
(4.5585e-06 -9.83481e-07 0)
(1.63223e-06 -2.28609e-06 0)
(1.7824e-06 -2.22092e-06 0)
(1.93355e-06 -2.15472e-06 0)
(2.0853e-06 -2.08806e-06 0)
(2.23756e-06 -2.02134e-06 0)
(2.39005e-06 -1.95477e-06 0)
(2.54264e-06 -1.88857e-06 0)
(2.69514e-06 -1.82282e-06 0)
(2.84743e-06 -1.75753e-06 0)
(2.99937e-06 -1.69269e-06 0)
(3.15087e-06 -1.62824e-06 0)
(3.30185e-06 -1.56404e-06 0)
(3.45227e-06 -1.49997e-06 0)
(3.60208e-06 -1.43594e-06 0)
(3.7513e-06 -1.37176e-06 0)
(3.89999e-06 -1.30741e-06 0)
(4.04819e-06 -1.24285e-06 0)
(4.19605e-06 -1.17805e-06 0)
(4.34367e-06 -1.1131e-06 0)
(4.49136e-06 -1.04813e-06 0)
(1.58847e-06 -2.35051e-06 0)
(1.73546e-06 -2.28591e-06 0)
(1.88366e-06 -2.22029e-06 0)
(2.03295e-06 -2.15409e-06 0)
(2.18284e-06 -2.0876e-06 0)
(2.33327e-06 -2.02114e-06 0)
(2.48401e-06 -1.95492e-06 0)
(2.63491e-06 -1.88904e-06 0)
(2.78581e-06 -1.82351e-06 0)
(2.93659e-06 -1.75838e-06 0)
(3.08714e-06 -1.69359e-06 0)
(3.23736e-06 -1.62902e-06 0)
(3.38719e-06 -1.56455e-06 0)
(3.53657e-06 -1.50015e-06 0)
(3.68551e-06 -1.43566e-06 0)
(3.83404e-06 -1.3711e-06 0)
(3.98216e-06 -1.30644e-06 0)
(4.12999e-06 -1.24173e-06 0)
(4.2776e-06 -1.17711e-06 0)
(4.42529e-06 -1.11275e-06 0)
(1.54216e-06 -2.41309e-06 0)
(1.68649e-06 -2.34915e-06 0)
(1.83228e-06 -2.28424e-06 0)
(1.97918e-06 -2.2185e-06 0)
(2.12706e-06 -2.15236e-06 0)
(2.27568e-06 -2.08612e-06 0)
(2.42487e-06 -2.02e-06 0)
(2.57444e-06 -1.95414e-06 0)
(2.72422e-06 -1.88855e-06 0)
(2.87407e-06 -1.82328e-06 0)
(3.02386e-06 -1.75831e-06 0)
(3.17346e-06 -1.6935e-06 0)
(3.32282e-06 -1.62878e-06 0)
(3.47189e-06 -1.56414e-06 0)
(3.62063e-06 -1.49945e-06 0)
(3.76905e-06 -1.43474e-06 0)
(3.91713e-06 -1.37e-06 0)
(4.06499e-06 -1.30535e-06 0)
(4.2126e-06 -1.24103e-06 0)
(4.36023e-06 -1.17723e-06 0)
(1.49272e-06 -2.47447e-06 0)
(1.6346e-06 -2.4113e-06 0)
(1.7782e-06 -2.34695e-06 0)
(1.92319e-06 -2.28174e-06 0)
(2.06942e-06 -2.21601e-06 0)
(2.21665e-06 -2.15008e-06 0)
(2.36467e-06 -2.08418e-06 0)
(2.51328e-06 -2.01844e-06 0)
(2.66226e-06 -1.95291e-06 0)
(2.81145e-06 -1.88762e-06 0)
(2.96071e-06 -1.82256e-06 0)
(3.10991e-06 -1.75762e-06 0)
(3.25898e-06 -1.69278e-06 0)
(3.40783e-06 -1.628e-06 0)
(3.55645e-06 -1.56315e-06 0)
(3.70483e-06 -1.49829e-06 0)
(3.85295e-06 -1.43353e-06 0)
(4.0009e-06 -1.36891e-06 0)
(4.1486e-06 -1.30476e-06 0)
(4.29622e-06 -1.24143e-06 0)
(1.43954e-06 -2.53421e-06 0)
(1.57929e-06 -2.47191e-06 0)
(1.72108e-06 -2.40834e-06 0)
(1.86461e-06 -2.34379e-06 0)
(2.00967e-06 -2.27862e-06 0)
(2.15597e-06 -2.21313e-06 0)
(2.30327e-06 -2.14759e-06 0)
(2.45131e-06 -2.08211e-06 0)
(2.59986e-06 -2.01672e-06 0)
(2.74871e-06 -1.9515e-06 0)
(2.89771e-06 -1.88647e-06 0)
(3.0467e-06 -1.82151e-06 0)
(3.19561e-06 -1.75658e-06 0)
(3.34436e-06 -1.69171e-06 0)
(3.49293e-06 -1.6268e-06 0)
(3.64134e-06 -1.56187e-06 0)
(3.78959e-06 -1.49703e-06 0)
(3.93768e-06 -1.43238e-06 0)
(4.08564e-06 -1.36829e-06 0)
(4.23344e-06 -1.30525e-06 0)
(1.06186e-07 -2.19223e-06 0)
(3.20032e-07 -2.15982e-06 0)
(5.38295e-07 -2.09629e-06 0)
(7.63477e-07 -2.00419e-06 0)
(9.97614e-07 -1.88708e-06 0)
(1.24197e-06 -1.74933e-06 0)
(1.49702e-06 -1.59603e-06 0)
(1.76229e-06 -1.4324e-06 0)
(2.03685e-06 -1.26383e-06 0)
(2.31853e-06 -1.09457e-06 0)
(1.03154e-07 -2.22767e-06 0)
(3.10712e-07 -2.19804e-06 0)
(5.21954e-07 -2.13994e-06 0)
(7.38992e-07 -2.0555e-06 0)
(9.63555e-07 -1.94779e-06 0)
(1.19673e-06 -1.82051e-06 0)
(1.43897e-06 -1.67796e-06 0)
(1.68972e-06 -1.5247e-06 0)
(1.94791e-06 -1.36558e-06 0)
(2.21161e-06 -1.20429e-06 0)
(1.00486e-07 -2.26392e-06 0)
(3.02487e-07 -2.23683e-06 0)
(5.07506e-07 -2.18363e-06 0)
(7.17238e-07 -2.10621e-06 0)
(9.33136e-07 -2.0072e-06 0)
(1.1561e-06 -1.88982e-06 0)
(1.38661e-06 -1.75777e-06 0)
(1.6244e-06 -1.61489e-06 0)
(1.86876e-06 -1.46532e-06 0)
(2.11832e-06 -1.3116e-06 0)
(9.8128e-08 -2.30109e-06 0)
(2.95221e-07 -2.27614e-06 0)
(4.94842e-07 -2.22714e-06 0)
(6.98359e-07 -2.15573e-06 0)
(9.06989e-07 -2.06423e-06 0)
(1.12144e-06 -1.95544e-06 0)
(1.3421e-06 -1.83264e-06 0)
(1.5687e-06 -1.69922e-06 0)
(1.80064e-06 -1.55901e-06 0)
(2.03678e-06 -1.41407e-06 0)
(9.59603e-08 -2.33915e-06 0)
(2.88547e-07 -2.31613e-06 0)
(4.83237e-07 -2.27089e-06 0)
(6.81142e-07 -2.20489e-06 0)
(8.83278e-07 -2.12017e-06 0)
(1.09022e-06 -2.01926e-06 0)
(1.30232e-06 -1.90503e-06 0)
(1.51934e-06 -1.78039e-06 0)
(1.74087e-06 -1.64878e-06 0)
(1.96554e-06 -1.51209e-06 0)
(9.39398e-08 -2.37805e-06 0)
(2.82385e-07 -2.3567e-06 0)
(4.72582e-07 -2.31473e-06 0)
(6.65466e-07 -2.25346e-06 0)
(8.61875e-07 -2.17471e-06 0)
(1.06226e-06 -2.08076e-06 0)
(1.26689e-06 -1.97421e-06 0)
(1.47551e-06 -1.85765e-06 0)
(1.68793e-06 -1.73417e-06 0)
(1.90258e-06 -1.60564e-06 0)
(9.20144e-08 -2.41775e-06 0)
(2.76533e-07 -2.3979e-06 0)
(4.62522e-07 -2.35884e-06 0)
(6.50776e-07 -2.30181e-06 0)
(8.41982e-07 -2.22842e-06 0)
(1.03652e-06 -2.14074e-06 0)
(1.23461e-06 -2.04115e-06 0)
(1.43593e-06 -1.93194e-06 0)
(1.64047e-06 -1.81588e-06 0)
(1.84649e-06 -1.69494e-06 0)
(9.0172e-08 -2.45816e-06 0)
(2.70919e-07 -2.43964e-06 0)
(4.52931e-07 -2.40316e-06 0)
(6.36871e-07 -2.34988e-06 0)
(8.23317e-07 -2.28126e-06 0)
(1.01257e-06 -2.1992e-06 0)
(1.20481e-06 -2.10587e-06 0)
(1.39969e-06 -2.00337e-06 0)
(1.59732e-06 -1.89416e-06 0)
(1.7959e-06 -1.78029e-06 0)
(8.83634e-08 -2.49924e-06 0)
(2.65433e-07 -2.48189e-06 0)
(4.43614e-07 -2.44773e-06 0)
(6.23449e-07 -2.39781e-06 0)
(8.05458e-07 -2.33347e-06 0)
(9.89872e-07 -2.25646e-06 0)
(1.17684e-06 -2.16878e-06 0)
(1.36599e-06 -2.07237e-06 0)
(1.55752e-06 -1.96941e-06 0)
(1.74965e-06 -1.86201e-06 0)
(8.65604e-08 -2.54086e-06 0)
(2.6001e-07 -2.52458e-06 0)
(4.34443e-07 -2.49248e-06 0)
(6.10328e-07 -2.44557e-06 0)
(7.88125e-07 -2.38509e-06 0)
(9.68033e-07 -2.31262e-06 0)
(1.15017e-06 -2.23004e-06 0)
(1.33416e-06 -2.13916e-06 0)
(1.52025e-06 -2.04192e-06 0)
(1.70673e-06 -1.94042e-06 0)
(8.47503e-08 -2.58295e-06 0)
(2.5458e-07 -2.56764e-06 0)
(4.25281e-07 -2.53741e-06 0)
(5.97306e-07 -2.4932e-06 0)
(7.71044e-07 -2.4362e-06 0)
(9.46683e-07 -2.36784e-06 0)
(1.12433e-06 -2.28986e-06 0)
(1.30362e-06 -2.204e-06 0)
(1.4848e-06 -2.11197e-06 0)
(1.66627e-06 -2.01586e-06 0)
(8.29204e-08 -2.62541e-06 0)
(2.49073e-07 -2.61098e-06 0)
(4.16013e-07 -2.58243e-06 0)
(5.84206e-07 -2.54067e-06 0)
(7.53974e-07 -2.48681e-06 0)
(9.25506e-07 -2.42218e-06 0)
(1.09892e-06 -2.34839e-06 0)
(1.27384e-06 -2.26709e-06 0)
(1.45053e-06 -2.17981e-06 0)
(1.6275e-06 -2.08858e-06 0)
(8.10418e-08 -2.66814e-06 0)
(2.43407e-07 -2.65449e-06 0)
(4.06517e-07 -2.62748e-06 0)
(5.70842e-07 -2.58796e-06 0)
(7.36669e-07 -2.53695e-06 0)
(9.04187e-07 -2.47571e-06 0)
(1.07353e-06 -2.40574e-06 0)
(1.24434e-06 -2.32858e-06 0)
(1.41683e-06 -2.24564e-06 0)
(1.58973e-06 -2.15885e-06 0)
(7.90824e-08 -2.71098e-06 0)
(2.37508e-07 -2.69804e-06 0)
(3.96669e-07 -2.67245e-06 0)
(5.57036e-07 -2.63497e-06 0)
(7.18887e-07 -2.58658e-06 0)
(8.82418e-07 -2.52845e-06 0)
(1.04777e-06 -2.46196e-06 0)
(1.21463e-06 -2.3886e-06 0)
(1.38317e-06 -2.30963e-06 0)
(1.55229e-06 -2.22689e-06 0)
(7.70153e-08 -2.75382e-06 0)
(2.31304e-07 -2.74154e-06 0)
(3.86342e-07 -2.71726e-06 0)
(5.42602e-07 -2.68167e-06 0)
(7.00379e-07 -2.63569e-06 0)
(8.5988e-07 -2.58042e-06 0)
(1.02125e-06 -2.51715e-06 0)
(1.18423e-06 -2.44726e-06 0)
(1.34896e-06 -2.37195e-06 0)
(1.51451e-06 -2.29291e-06 0)
(7.48172e-08 -2.79645e-06 0)
(2.2472e-07 -2.78477e-06 0)
(3.75402e-07 -2.76172e-06 0)
(5.27344e-07 -2.72788e-06 0)
(6.80881e-07 -2.68415e-06 0)
(8.36228e-07 -2.63154e-06 0)
(9.93544e-07 -2.57125e-06 0)
(1.15265e-06 -2.50459e-06 0)
(1.31364e-06 -2.43265e-06 0)
(1.47573e-06 -2.35701e-06 0)
(7.24576e-08 -2.83877e-06 0)
(2.17656e-07 -2.82767e-06 0)
(3.63673e-07 -2.80577e-06 0)
(5.11016e-07 -2.77359e-06 0)
(6.60068e-07 -2.73197e-06 0)
(8.11064e-07 -2.68186e-06 0)
(9.64192e-07 -2.62438e-06 0)
(1.11933e-06 -2.56073e-06 0)
(1.27657e-06 -2.49194e-06 0)
(1.43524e-06 -2.41948e-06 0)
(6.98988e-08 -2.88036e-06 0)
(2.09994e-07 -2.86981e-06 0)
(3.50967e-07 -2.849e-06 0)
(4.93358e-07 -2.81842e-06 0)
(6.376e-07 -2.77881e-06 0)
(7.83967e-07 -2.73108e-06 0)
(9.32688e-07 -2.67626e-06 0)
(1.08368e-06 -2.61548e-06 0)
(1.23705e-06 -2.54968e-06 0)
(1.39228e-06 -2.48024e-06 0)
(6.70833e-08 -2.92138e-06 0)
(2.01568e-07 -2.91137e-06 0)
(3.37009e-07 -2.89163e-06 0)
(4.7399e-07 -2.86258e-06 0)
(6.12992e-07 -2.82494e-06 0)
(7.54353e-07 -2.77952e-06 0)
(8.98341e-07 -2.72727e-06 0)
(1.04495e-06 -2.66924e-06 0)
(1.19428e-06 -2.60633e-06 0)
(1.34596e-06 -2.53977e-06 0)
(6.39897e-08 -2.96063e-06 0)
(1.92319e-07 -2.95116e-06 0)
(3.21696e-07 -2.93248e-06 0)
(4.52751e-07 -2.90498e-06 0)
(5.86029e-07 -2.86929e-06 0)
(7.21946e-07 -2.82618e-06 0)
(8.60807e-07 -2.77651e-06 0)
(1.00272e-06 -2.72125e-06 0)
(1.14778e-06 -2.66123e-06 0)
(1.29579e-06 -2.59758e-06 0)
)


// ************************************************************************* //
