/*--------------------------------*- C++ -*----------------------------------*\
| =========                 |                                                 |
| \\      /  F ield         | foam-extend: Open Source CFD                    |
|  \\    /   O peration     | Version:     4.1                                |
|   \\  /    A nd           | Web:         http://www.foam-extend.org         |
|    \\/     M anipulation  |                                                 |
\*---------------------------------------------------------------------------*/
FoamFile
{
    version     2.0;
    format      ascii;
    class       volVectorField;
    location    "1";
    object      D_predicted;
}
// * * * * * * * * * * * * * * * * * * * * * * * * * * * * * * * * * * * * * //

dimensions      [0 1 0 0 0 0 0];

internalField   nonuniform List<vector> 
100000
(
(5.70428e-07 -2.37054e-07 0)
(5.6852e-07 -2.33868e-07 0)
(5.65686e-07 -2.30484e-07 0)
(5.60986e-07 -2.27039e-07 0)
(5.56708e-07 -2.23758e-07 0)
(5.53323e-07 -2.20866e-07 0)
(5.5015e-07 -2.1837e-07 0)
(5.46964e-07 -2.16359e-07 0)
(5.44198e-07 -2.14374e-07 0)
(5.40924e-07 -2.12285e-07 0)
(5.3776e-07 -2.10209e-07 0)
(5.34678e-07 -2.08097e-07 0)
(5.31734e-07 -2.06311e-07 0)
(5.28925e-07 -2.04616e-07 0)
(5.26317e-07 -2.02982e-07 0)
(5.23846e-07 -2.01376e-07 0)
(5.21492e-07 -1.99847e-07 0)
(5.19296e-07 -1.98401e-07 0)
(5.17238e-07 -1.97029e-07 0)
(5.15272e-07 -1.95731e-07 0)
(5.13393e-07 -1.94503e-07 0)
(5.11557e-07 -1.93338e-07 0)
(5.09781e-07 -1.92236e-07 0)
(5.08319e-07 -1.91215e-07 0)
(5.06935e-07 -1.90231e-07 0)
(5.05589e-07 -1.89322e-07 0)
(5.04312e-07 -1.88462e-07 0)
(5.03103e-07 -1.87648e-07 0)
(5.02071e-07 -1.86914e-07 0)
(5.01074e-07 -1.8627e-07 0)
(5.00129e-07 -1.85671e-07 0)
(4.99238e-07 -1.85115e-07 0)
(4.98397e-07 -1.84601e-07 0)
(4.97661e-07 -1.84166e-07 0)
(4.96985e-07 -1.83779e-07 0)
(4.96354e-07 -1.83426e-07 0)
(4.95749e-07 -1.83105e-07 0)
(4.95181e-07 -1.82818e-07 0)
(4.94654e-07 -1.82562e-07 0)
(4.94166e-07 -1.82334e-07 0)
(4.93698e-07 -1.82145e-07 0)
(4.93264e-07 -1.81986e-07 0)
(4.92866e-07 -1.81852e-07 0)
(4.92507e-07 -1.81756e-07 0)
(4.92184e-07 -1.81688e-07 0)
(4.91894e-07 -1.81641e-07 0)
(4.91637e-07 -1.81617e-07 0)
(4.91401e-07 -1.81598e-07 0)
(4.91189e-07 -1.81589e-07 0)
(4.91008e-07 -1.81601e-07 0)
(4.90871e-07 -1.81646e-07 0)
(4.90771e-07 -1.81718e-07 0)
(4.90698e-07 -1.81808e-07 0)
(4.90652e-07 -1.81915e-07 0)
(4.90658e-07 -1.82055e-07 0)
(4.90705e-07 -1.8222e-07 0)
(4.90776e-07 -1.82399e-07 0)
(4.9087e-07 -1.82591e-07 0)
(4.90986e-07 -1.82796e-07 0)
(4.91121e-07 -1.8301e-07 0)
(4.91278e-07 -1.83235e-07 0)
(4.91457e-07 -1.83471e-07 0)
(4.91655e-07 -1.83719e-07 0)
(4.91874e-07 -1.83978e-07 0)
(4.92114e-07 -1.84246e-07 0)
(4.92373e-07 -1.84524e-07 0)
(4.92651e-07 -1.8481e-07 0)
(4.92961e-07 -1.85106e-07 0)
(4.93292e-07 -1.85415e-07 0)
(4.93636e-07 -1.85744e-07 0)
(4.93997e-07 -1.86081e-07 0)
(4.94373e-07 -1.86426e-07 0)
(4.94758e-07 -1.86776e-07 0)
(4.9516e-07 -1.87133e-07 0)
(4.95577e-07 -1.87495e-07 0)
(4.96009e-07 -1.87863e-07 0)
(4.96451e-07 -1.88229e-07 0)
(4.96907e-07 -1.886e-07 0)
(4.97376e-07 -1.88976e-07 0)
(4.97859e-07 -1.89355e-07 0)
(4.9835e-07 -1.89743e-07 0)
(4.98854e-07 -1.90134e-07 0)
(4.9937e-07 -1.90528e-07 0)
(4.99897e-07 -1.90923e-07 0)
(5.00435e-07 -1.91321e-07 0)
(5.00983e-07 -1.91719e-07 0)
(5.01542e-07 -1.92119e-07 0)
(5.02111e-07 -1.92518e-07 0)
(5.02728e-07 -1.92929e-07 0)
(5.03355e-07 -1.93349e-07 0)
(5.0399e-07 -1.93767e-07 0)
(5.04678e-07 -1.94173e-07 0)
(5.05372e-07 -1.94573e-07 0)
(5.0607e-07 -1.94967e-07 0)
(5.06774e-07 -1.9535e-07 0)
(5.07476e-07 -1.95724e-07 0)
(5.08192e-07 -1.96076e-07 0)
(5.0889e-07 -1.96399e-07 0)
(5.09627e-07 -1.96683e-07 0)
(5.10419e-07 -1.96858e-07 0)
(5.64265e-07 -2.39361e-07 0)
(5.62267e-07 -2.36252e-07 0)
(5.595e-07 -2.33033e-07 0)
(5.55138e-07 -2.29552e-07 0)
(5.5117e-07 -2.26242e-07 0)
(5.47731e-07 -2.23369e-07 0)
(5.44443e-07 -2.20933e-07 0)
(5.414e-07 -2.18589e-07 0)
(5.38621e-07 -2.1664e-07 0)
(5.35289e-07 -2.14574e-07 0)
(5.32119e-07 -2.12627e-07 0)
(5.29036e-07 -2.10615e-07 0)
(5.26062e-07 -2.08833e-07 0)
(5.2322e-07 -2.07177e-07 0)
(5.20499e-07 -2.05605e-07 0)
(5.17909e-07 -2.04104e-07 0)
(5.15431e-07 -2.02684e-07 0)
(5.13069e-07 -2.01342e-07 0)
(5.10954e-07 -2.00044e-07 0)
(5.08958e-07 -1.98776e-07 0)
(5.07051e-07 -1.97577e-07 0)
(5.05383e-07 -1.96459e-07 0)
(5.03843e-07 -1.95407e-07 0)
(5.02355e-07 -1.94415e-07 0)
(5.00917e-07 -1.93477e-07 0)
(4.99546e-07 -1.92591e-07 0)
(4.98243e-07 -1.91761e-07 0)
(4.97014e-07 -1.9097e-07 0)
(4.95919e-07 -1.90247e-07 0)
(4.94896e-07 -1.89582e-07 0)
(4.93911e-07 -1.88997e-07 0)
(4.92982e-07 -1.88454e-07 0)
(4.92103e-07 -1.87953e-07 0)
(4.91282e-07 -1.87497e-07 0)
(4.90573e-07 -1.8712e-07 0)
(4.89902e-07 -1.86782e-07 0)
(4.89271e-07 -1.86482e-07 0)
(4.88673e-07 -1.86218e-07 0)
(4.88107e-07 -1.8599e-07 0)
(4.87581e-07 -1.85787e-07 0)
(4.87091e-07 -1.85616e-07 0)
(4.86638e-07 -1.85471e-07 0)
(4.86219e-07 -1.85358e-07 0)
(4.85788e-07 -1.85243e-07 0)
(4.85395e-07 -1.85152e-07 0)
(4.85037e-07 -1.85085e-07 0)
(4.84714e-07 -1.8504e-07 0)
(4.84426e-07 -1.85017e-07 0)
(4.8417e-07 -1.85015e-07 0)
(4.83946e-07 -1.85032e-07 0)
(4.83765e-07 -1.85081e-07 0)
(4.83625e-07 -1.85157e-07 0)
(4.83504e-07 -1.85235e-07 0)
(4.83409e-07 -1.85329e-07 0)
(4.83382e-07 -1.85465e-07 0)
(4.8339e-07 -1.85622e-07 0)
(4.83423e-07 -1.85792e-07 0)
(4.8348e-07 -1.85977e-07 0)
(4.8358e-07 -1.86182e-07 0)
(4.83704e-07 -1.864e-07 0)
(4.83849e-07 -1.8663e-07 0)
(4.84016e-07 -1.86872e-07 0)
(4.84203e-07 -1.87125e-07 0)
(4.8441e-07 -1.87389e-07 0)
(4.84638e-07 -1.87662e-07 0)
(4.84885e-07 -1.87944e-07 0)
(4.85167e-07 -1.88234e-07 0)
(4.8547e-07 -1.88533e-07 0)
(4.8579e-07 -1.88841e-07 0)
(4.86135e-07 -1.89169e-07 0)
(4.86539e-07 -1.895e-07 0)
(4.8696e-07 -1.89838e-07 0)
(4.87394e-07 -1.90181e-07 0)
(4.87843e-07 -1.9053e-07 0)
(4.88308e-07 -1.90886e-07 0)
(4.88785e-07 -1.91239e-07 0)
(4.89297e-07 -1.91588e-07 0)
(4.89822e-07 -1.91943e-07 0)
(4.90359e-07 -1.92302e-07 0)
(4.90909e-07 -1.92665e-07 0)
(4.91471e-07 -1.93032e-07 0)
(4.92045e-07 -1.93401e-07 0)
(4.9263e-07 -1.93773e-07 0)
(4.93225e-07 -1.94147e-07 0)
(4.93831e-07 -1.94522e-07 0)
(4.94448e-07 -1.94898e-07 0)
(4.95073e-07 -1.95273e-07 0)
(4.95707e-07 -1.95648e-07 0)
(4.96351e-07 -1.96022e-07 0)
(4.97037e-07 -1.96417e-07 0)
(4.97717e-07 -1.96813e-07 0)
(4.98401e-07 -1.97206e-07 0)
(4.99091e-07 -1.9759e-07 0)
(4.99787e-07 -1.97963e-07 0)
(5.00489e-07 -1.98321e-07 0)
(5.01194e-07 -1.98665e-07 0)
(5.01891e-07 -1.9901e-07 0)
(5.02538e-07 -1.99372e-07 0)
(5.03256e-07 -1.99691e-07 0)
(5.03982e-07 -2.00032e-07 0)
(5.57939e-07 -2.41574e-07 0)
(5.55985e-07 -2.3862e-07 0)
(5.53585e-07 -2.3545e-07 0)
(5.49587e-07 -2.32009e-07 0)
(5.45569e-07 -2.2877e-07 0)
(5.42021e-07 -2.25924e-07 0)
(5.38825e-07 -2.23496e-07 0)
(5.35848e-07 -2.21009e-07 0)
(5.32992e-07 -2.18912e-07 0)
(5.29632e-07 -2.16865e-07 0)
(5.26429e-07 -2.14962e-07 0)
(5.23376e-07 -2.13147e-07 0)
(5.20369e-07 -2.11359e-07 0)
(5.17495e-07 -2.0974e-07 0)
(5.14744e-07 -2.08204e-07 0)
(5.12124e-07 -2.06739e-07 0)
(5.09619e-07 -2.05351e-07 0)
(5.07223e-07 -2.04037e-07 0)
(5.04951e-07 -2.02797e-07 0)
(5.02973e-07 -2.01642e-07 0)
(5.01218e-07 -2.00567e-07 0)
(4.99538e-07 -1.9955e-07 0)
(4.9787e-07 -1.98591e-07 0)
(4.96296e-07 -1.97648e-07 0)
(4.94829e-07 -1.96741e-07 0)
(4.9343e-07 -1.95864e-07 0)
(4.921e-07 -1.95036e-07 0)
(4.90802e-07 -1.94278e-07 0)
(4.89629e-07 -1.93562e-07 0)
(4.88594e-07 -1.92899e-07 0)
(4.87612e-07 -1.92298e-07 0)
(4.86678e-07 -1.91765e-07 0)
(4.85796e-07 -1.91273e-07 0)
(4.84941e-07 -1.90821e-07 0)
(4.84101e-07 -1.90395e-07 0)
(4.83323e-07 -1.90035e-07 0)
(4.82579e-07 -1.89717e-07 0)
(4.81881e-07 -1.89432e-07 0)
(4.81228e-07 -1.89176e-07 0)
(4.80618e-07 -1.88947e-07 0)
(4.80052e-07 -1.88747e-07 0)
(4.79522e-07 -1.88586e-07 0)
(4.79046e-07 -1.88456e-07 0)
(4.78617e-07 -1.88349e-07 0)
(4.78228e-07 -1.88266e-07 0)
(4.77875e-07 -1.88206e-07 0)
(4.7756e-07 -1.88168e-07 0)
(4.77279e-07 -1.8815e-07 0)
(4.77034e-07 -1.88153e-07 0)
(4.76821e-07 -1.88175e-07 0)
(4.76652e-07 -1.88224e-07 0)
(4.76529e-07 -1.88303e-07 0)
(4.76456e-07 -1.88392e-07 0)
(4.7643e-07 -1.88492e-07 0)
(4.76485e-07 -1.88633e-07 0)
(4.76565e-07 -1.88791e-07 0)
(4.76675e-07 -1.88962e-07 0)
(4.76825e-07 -1.89151e-07 0)
(4.76999e-07 -1.89354e-07 0)
(4.77194e-07 -1.89567e-07 0)
(4.77409e-07 -1.89786e-07 0)
(4.77644e-07 -1.90013e-07 0)
(4.779e-07 -1.90252e-07 0)
(4.78176e-07 -1.90501e-07 0)
(4.78471e-07 -1.9076e-07 0)
(4.78799e-07 -1.91027e-07 0)
(4.79148e-07 -1.91303e-07 0)
(4.79513e-07 -1.91588e-07 0)
(4.79896e-07 -1.91881e-07 0)
(4.80299e-07 -1.92185e-07 0)
(4.80733e-07 -1.92501e-07 0)
(4.81185e-07 -1.92823e-07 0)
(4.81655e-07 -1.93145e-07 0)
(4.82141e-07 -1.93473e-07 0)
(4.82635e-07 -1.93801e-07 0)
(4.83141e-07 -1.94132e-07 0)
(4.83654e-07 -1.94474e-07 0)
(4.84155e-07 -1.94849e-07 0)
(4.84669e-07 -1.95228e-07 0)
(4.85195e-07 -1.9561e-07 0)
(4.85732e-07 -1.95996e-07 0)
(4.86281e-07 -1.96386e-07 0)
(4.8684e-07 -1.96777e-07 0)
(4.87408e-07 -1.97171e-07 0)
(4.87987e-07 -1.97566e-07 0)
(4.88575e-07 -1.97964e-07 0)
(4.89172e-07 -1.98363e-07 0)
(4.89777e-07 -1.98761e-07 0)
(4.90388e-07 -1.99159e-07 0)
(4.91014e-07 -1.99561e-07 0)
(4.91674e-07 -1.99979e-07 0)
(4.92338e-07 -2.00393e-07 0)
(4.92989e-07 -2.00807e-07 0)
(4.93644e-07 -2.01213e-07 0)
(4.94304e-07 -2.01608e-07 0)
(4.94964e-07 -2.01995e-07 0)
(4.95625e-07 -2.02363e-07 0)
(4.96267e-07 -2.02732e-07 0)
(4.96969e-07 -2.03065e-07 0)
(4.97627e-07 -2.03407e-07 0)
(5.51963e-07 -2.43495e-07 0)
(5.50457e-07 -2.40823e-07 0)
(5.4787e-07 -2.37789e-07 0)
(5.43998e-07 -2.34441e-07 0)
(5.40002e-07 -2.31285e-07 0)
(5.36368e-07 -2.28458e-07 0)
(5.33319e-07 -2.26047e-07 0)
(5.30281e-07 -2.2366e-07 0)
(5.27339e-07 -2.21298e-07 0)
(5.23967e-07 -2.19187e-07 0)
(5.20745e-07 -2.17306e-07 0)
(5.17697e-07 -2.15534e-07 0)
(5.14755e-07 -2.13886e-07 0)
(5.11882e-07 -2.12289e-07 0)
(5.09136e-07 -2.10782e-07 0)
(5.06522e-07 -2.09347e-07 0)
(5.04021e-07 -2.07981e-07 0)
(5.01625e-07 -2.06682e-07 0)
(4.99611e-07 -2.05483e-07 0)
(4.97722e-07 -2.04349e-07 0)
(4.95945e-07 -2.03287e-07 0)
(4.94226e-07 -2.02289e-07 0)
(4.92565e-07 -2.0135e-07 0)
(4.9098e-07 -2.00466e-07 0)
(4.89474e-07 -1.99635e-07 0)
(4.88018e-07 -1.98838e-07 0)
(4.86538e-07 -1.98022e-07 0)
(4.85078e-07 -1.97286e-07 0)
(4.83736e-07 -1.96581e-07 0)
(4.82595e-07 -1.95906e-07 0)
(4.81516e-07 -1.95275e-07 0)
(4.8051e-07 -1.94697e-07 0)
(4.79571e-07 -1.94176e-07 0)
(4.78695e-07 -1.93695e-07 0)
(4.77862e-07 -1.93258e-07 0)
(4.77112e-07 -1.92881e-07 0)
(4.76419e-07 -1.92558e-07 0)
(4.75773e-07 -1.92266e-07 0)
(4.75173e-07 -1.92002e-07 0)
(4.74618e-07 -1.91766e-07 0)
(4.74107e-07 -1.91563e-07 0)
(4.73638e-07 -1.91393e-07 0)
(4.73212e-07 -1.91248e-07 0)
(4.72829e-07 -1.91123e-07 0)
(4.72486e-07 -1.91022e-07 0)
(4.7218e-07 -1.90943e-07 0)
(4.71912e-07 -1.90885e-07 0)
(4.71678e-07 -1.90847e-07 0)
(4.71479e-07 -1.90829e-07 0)
(4.71313e-07 -1.9083e-07 0)
(4.71188e-07 -1.90856e-07 0)
(4.71112e-07 -1.90914e-07 0)
(4.71066e-07 -1.90988e-07 0)
(4.71056e-07 -1.91083e-07 0)
(4.7112e-07 -1.91215e-07 0)
(4.7122e-07 -1.91363e-07 0)
(4.71358e-07 -1.91528e-07 0)
(4.71519e-07 -1.91705e-07 0)
(4.7169e-07 -1.91908e-07 0)
(4.7186e-07 -1.92147e-07 0)
(4.72051e-07 -1.92398e-07 0)
(4.72264e-07 -1.92659e-07 0)
(4.72497e-07 -1.92931e-07 0)
(4.7275e-07 -1.93212e-07 0)
(4.73036e-07 -1.93503e-07 0)
(4.73343e-07 -1.93802e-07 0)
(4.73667e-07 -1.94109e-07 0)
(4.7401e-07 -1.94425e-07 0)
(4.74369e-07 -1.94748e-07 0)
(4.74745e-07 -1.9508e-07 0)
(4.75144e-07 -1.95428e-07 0)
(4.75561e-07 -1.95788e-07 0)
(4.75991e-07 -1.96152e-07 0)
(4.76432e-07 -1.96519e-07 0)
(4.76883e-07 -1.96889e-07 0)
(4.77348e-07 -1.97263e-07 0)
(4.77826e-07 -1.97642e-07 0)
(4.78317e-07 -1.98026e-07 0)
(4.78819e-07 -1.98411e-07 0)
(4.79333e-07 -1.98798e-07 0)
(4.79859e-07 -1.9919e-07 0)
(4.80396e-07 -1.99586e-07 0)
(4.80942e-07 -1.99984e-07 0)
(4.81499e-07 -2.00384e-07 0)
(4.82064e-07 -2.00785e-07 0)
(4.82638e-07 -2.01187e-07 0)
(4.83219e-07 -2.01589e-07 0)
(4.83808e-07 -2.01991e-07 0)
(4.84402e-07 -2.02392e-07 0)
(4.85003e-07 -2.0279e-07 0)
(4.85623e-07 -2.03196e-07 0)
(4.86271e-07 -2.03615e-07 0)
(4.86922e-07 -2.04027e-07 0)
(4.87578e-07 -2.04434e-07 0)
(4.88223e-07 -2.04835e-07 0)
(4.88864e-07 -2.05233e-07 0)
(4.89509e-07 -2.05613e-07 0)
(4.9014e-07 -2.06004e-07 0)
(4.90829e-07 -2.06364e-07 0)
(4.91455e-07 -2.06701e-07 0)
(5.47117e-07 -2.45241e-07 0)
(5.45507e-07 -2.42752e-07 0)
(5.42825e-07 -2.39954e-07 0)
(5.38885e-07 -2.36703e-07 0)
(5.35267e-07 -2.33585e-07 0)
(5.31843e-07 -2.30755e-07 0)
(5.28633e-07 -2.28438e-07 0)
(5.25509e-07 -2.26165e-07 0)
(5.22484e-07 -2.23839e-07 0)
(5.19037e-07 -2.21325e-07 0)
(5.15807e-07 -2.19426e-07 0)
(5.1271e-07 -2.17688e-07 0)
(5.09752e-07 -2.16161e-07 0)
(5.0689e-07 -2.14688e-07 0)
(5.04105e-07 -2.13195e-07 0)
(5.01458e-07 -2.11773e-07 0)
(4.99103e-07 -2.10432e-07 0)
(4.97007e-07 -2.09178e-07 0)
(4.95011e-07 -2.07989e-07 0)
(4.93092e-07 -2.06867e-07 0)
(4.91293e-07 -2.05809e-07 0)
(4.89541e-07 -2.04771e-07 0)
(4.87811e-07 -2.03765e-07 0)
(4.86148e-07 -2.02817e-07 0)
(4.84569e-07 -2.01924e-07 0)
(4.8307e-07 -2.01081e-07 0)
(4.8162e-07 -2.003e-07 0)
(4.80179e-07 -1.99568e-07 0)
(4.7882e-07 -1.98876e-07 0)
(4.77695e-07 -1.98207e-07 0)
(4.76639e-07 -1.97575e-07 0)
(4.75644e-07 -1.96986e-07 0)
(4.74718e-07 -1.96451e-07 0)
(4.73857e-07 -1.95966e-07 0)
(4.7305e-07 -1.95518e-07 0)
(4.72296e-07 -1.95106e-07 0)
(4.71598e-07 -1.94771e-07 0)
(4.7095e-07 -1.94476e-07 0)
(4.70349e-07 -1.94209e-07 0)
(4.6979e-07 -1.93974e-07 0)
(4.6927e-07 -1.93782e-07 0)
(4.68792e-07 -1.93615e-07 0)
(4.68357e-07 -1.93474e-07 0)
(4.67956e-07 -1.9336e-07 0)
(4.67566e-07 -1.933e-07 0)
(4.67201e-07 -1.93276e-07 0)
(4.66874e-07 -1.93272e-07 0)
(4.66584e-07 -1.93288e-07 0)
(4.66329e-07 -1.93321e-07 0)
(4.66109e-07 -1.93374e-07 0)
(4.65926e-07 -1.93446e-07 0)
(4.65798e-07 -1.93554e-07 0)
(4.657e-07 -1.93676e-07 0)
(4.65646e-07 -1.93821e-07 0)
(4.65675e-07 -1.94003e-07 0)
(4.6574e-07 -1.94201e-07 0)
(4.65829e-07 -1.9441e-07 0)
(4.65943e-07 -1.94632e-07 0)
(4.66081e-07 -1.94866e-07 0)
(4.66241e-07 -1.95111e-07 0)
(4.66424e-07 -1.95367e-07 0)
(4.66628e-07 -1.95634e-07 0)
(4.66852e-07 -1.9591e-07 0)
(4.6711e-07 -1.96196e-07 0)
(4.67389e-07 -1.96491e-07 0)
(4.67688e-07 -1.96794e-07 0)
(4.68005e-07 -1.97105e-07 0)
(4.6834e-07 -1.97424e-07 0)
(4.68692e-07 -1.97752e-07 0)
(4.6906e-07 -1.98086e-07 0)
(4.69446e-07 -1.9843e-07 0)
(4.69855e-07 -1.98793e-07 0)
(4.70275e-07 -1.9916e-07 0)
(4.70704e-07 -1.99527e-07 0)
(4.71146e-07 -1.999e-07 0)
(4.71604e-07 -2.00279e-07 0)
(4.72074e-07 -2.00664e-07 0)
(4.7255e-07 -2.01055e-07 0)
(4.73036e-07 -2.01451e-07 0)
(4.73533e-07 -2.01851e-07 0)
(4.7404e-07 -2.02254e-07 0)
(4.74557e-07 -2.0266e-07 0)
(4.75083e-07 -2.03069e-07 0)
(4.75617e-07 -2.0348e-07 0)
(4.76159e-07 -2.03893e-07 0)
(4.76708e-07 -2.04307e-07 0)
(4.77264e-07 -2.04722e-07 0)
(4.77825e-07 -2.05136e-07 0)
(4.7839e-07 -2.0555e-07 0)
(4.78959e-07 -2.05963e-07 0)
(4.79532e-07 -2.06374e-07 0)
(4.80125e-07 -2.06795e-07 0)
(4.80739e-07 -2.07226e-07 0)
(4.81356e-07 -2.07653e-07 0)
(4.81974e-07 -2.08075e-07 0)
(4.82587e-07 -2.08491e-07 0)
(4.83222e-07 -2.08888e-07 0)
(4.83833e-07 -2.093e-07 0)
(4.84503e-07 -2.09686e-07 0)
(4.85109e-07 -2.10059e-07 0)
(5.42341e-07 -2.46968e-07 0)
(5.40691e-07 -2.44513e-07 0)
(5.38315e-07 -2.41856e-07 0)
(5.34581e-07 -2.38652e-07 0)
(5.31144e-07 -2.35609e-07 0)
(5.2791e-07 -2.32784e-07 0)
(5.24682e-07 -2.30521e-07 0)
(5.21441e-07 -2.28351e-07 0)
(5.1824e-07 -2.26104e-07 0)
(5.14696e-07 -2.23669e-07 0)
(5.11423e-07 -2.21353e-07 0)
(5.08313e-07 -2.19426e-07 0)
(5.05356e-07 -2.17939e-07 0)
(5.02533e-07 -2.16554e-07 0)
(4.99844e-07 -2.15189e-07 0)
(4.97517e-07 -2.13827e-07 0)
(4.95308e-07 -2.12533e-07 0)
(4.93157e-07 -2.11281e-07 0)
(4.90966e-07 -2.10035e-07 0)
(4.88872e-07 -2.08854e-07 0)
(4.86877e-07 -2.07739e-07 0)
(4.85029e-07 -2.06684e-07 0)
(4.83289e-07 -2.05694e-07 0)
(4.81583e-07 -2.04789e-07 0)
(4.79936e-07 -2.03952e-07 0)
(4.78371e-07 -2.03165e-07 0)
(4.76885e-07 -2.02425e-07 0)
(4.7547e-07 -2.01719e-07 0)
(4.74108e-07 -2.01043e-07 0)
(4.72927e-07 -2.00407e-07 0)
(4.7187e-07 -1.99788e-07 0)
(4.70873e-07 -1.9921e-07 0)
(4.69923e-07 -1.98681e-07 0)
(4.68997e-07 -1.98248e-07 0)
(4.68135e-07 -1.97863e-07 0)
(4.67326e-07 -1.97513e-07 0)
(4.66569e-07 -1.97197e-07 0)
(4.65865e-07 -1.96962e-07 0)
(4.65209e-07 -1.96756e-07 0)
(4.64597e-07 -1.96591e-07 0)
(4.6403e-07 -1.96452e-07 0)
(4.63506e-07 -1.96338e-07 0)
(4.63024e-07 -1.96248e-07 0)
(4.62582e-07 -1.96182e-07 0)
(4.62175e-07 -1.96142e-07 0)
(4.61806e-07 -1.96123e-07 0)
(4.61475e-07 -1.96124e-07 0)
(4.6118e-07 -1.96145e-07 0)
(4.60919e-07 -1.96183e-07 0)
(4.60691e-07 -1.96242e-07 0)
(4.60492e-07 -1.9632e-07 0)
(4.60352e-07 -1.96436e-07 0)
(4.60242e-07 -1.96567e-07 0)
(4.60196e-07 -1.96726e-07 0)
(4.60221e-07 -1.96918e-07 0)
(4.60272e-07 -1.97123e-07 0)
(4.60347e-07 -1.97341e-07 0)
(4.60447e-07 -1.97571e-07 0)
(4.6057e-07 -1.97812e-07 0)
(4.60716e-07 -1.98065e-07 0)
(4.60883e-07 -1.98328e-07 0)
(4.61071e-07 -1.98602e-07 0)
(4.6129e-07 -1.98886e-07 0)
(4.61535e-07 -1.99179e-07 0)
(4.61798e-07 -1.99481e-07 0)
(4.6208e-07 -1.99791e-07 0)
(4.62381e-07 -2.00109e-07 0)
(4.62698e-07 -2.00436e-07 0)
(4.63033e-07 -2.00769e-07 0)
(4.63383e-07 -2.01111e-07 0)
(4.6375e-07 -2.0146e-07 0)
(4.64138e-07 -2.01826e-07 0)
(4.64537e-07 -2.02197e-07 0)
(4.64948e-07 -2.02573e-07 0)
(4.65373e-07 -2.02955e-07 0)
(4.6581e-07 -2.03341e-07 0)
(4.6626e-07 -2.03733e-07 0)
(4.66722e-07 -2.04128e-07 0)
(4.67195e-07 -2.04528e-07 0)
(4.67679e-07 -2.04932e-07 0)
(4.68172e-07 -2.05339e-07 0)
(4.68675e-07 -2.05749e-07 0)
(4.69187e-07 -2.06162e-07 0)
(4.69707e-07 -2.06577e-07 0)
(4.70234e-07 -2.06992e-07 0)
(4.70769e-07 -2.0741e-07 0)
(4.7131e-07 -2.07829e-07 0)
(4.71856e-07 -2.08248e-07 0)
(4.72407e-07 -2.08666e-07 0)
(4.72963e-07 -2.09084e-07 0)
(4.73522e-07 -2.095e-07 0)
(4.74084e-07 -2.09914e-07 0)
(4.74667e-07 -2.10338e-07 0)
(4.75272e-07 -2.10773e-07 0)
(4.75879e-07 -2.11203e-07 0)
(4.76476e-07 -2.11633e-07 0)
(4.77082e-07 -2.1205e-07 0)
(4.77677e-07 -2.12483e-07 0)
(4.78324e-07 -2.12892e-07 0)
(4.78901e-07 -2.13296e-07 0)
(5.38e-07 -2.48553e-07 0)
(5.36265e-07 -2.4616e-07 0)
(5.33854e-07 -2.43553e-07 0)
(5.30421e-07 -2.40591e-07 0)
(5.26905e-07 -2.37657e-07 0)
(5.23597e-07 -2.34847e-07 0)
(5.20535e-07 -2.32613e-07 0)
(5.17392e-07 -2.305e-07 0)
(5.14114e-07 -2.28313e-07 0)
(5.10558e-07 -2.25931e-07 0)
(5.07265e-07 -2.23664e-07 0)
(5.04141e-07 -2.21559e-07 0)
(5.01148e-07 -2.19738e-07 0)
(4.98459e-07 -2.18324e-07 0)
(4.96032e-07 -2.17094e-07 0)
(4.93472e-07 -2.1576e-07 0)
(4.91075e-07 -2.14395e-07 0)
(4.8876e-07 -2.13109e-07 0)
(4.86553e-07 -2.11891e-07 0)
(4.84446e-07 -2.10736e-07 0)
(4.82372e-07 -2.09684e-07 0)
(4.80402e-07 -2.0869e-07 0)
(4.7856e-07 -2.07759e-07 0)
(4.76767e-07 -2.06921e-07 0)
(4.7505e-07 -2.06166e-07 0)
(4.73414e-07 -2.05458e-07 0)
(4.7186e-07 -2.04795e-07 0)
(4.70389e-07 -2.04167e-07 0)
(4.68978e-07 -2.03579e-07 0)
(4.67694e-07 -2.03027e-07 0)
(4.66546e-07 -2.02503e-07 0)
(4.65482e-07 -2.01996e-07 0)
(4.64477e-07 -2.01527e-07 0)
(4.63529e-07 -2.01095e-07 0)
(4.62647e-07 -2.00713e-07 0)
(4.61826e-07 -2.00378e-07 0)
(4.61057e-07 -2.00075e-07 0)
(4.60338e-07 -1.99808e-07 0)
(4.5967e-07 -1.99628e-07 0)
(4.59047e-07 -1.99475e-07 0)
(4.5847e-07 -1.99348e-07 0)
(4.57936e-07 -1.99246e-07 0)
(4.57445e-07 -1.99167e-07 0)
(4.56994e-07 -1.9911e-07 0)
(4.56582e-07 -1.99077e-07 0)
(4.56203e-07 -1.99068e-07 0)
(4.55863e-07 -1.99078e-07 0)
(4.55558e-07 -1.99108e-07 0)
(4.55288e-07 -1.99156e-07 0)
(4.55052e-07 -1.99222e-07 0)
(4.54848e-07 -1.99304e-07 0)
(4.54699e-07 -1.99421e-07 0)
(4.54603e-07 -1.9956e-07 0)
(4.54562e-07 -1.99726e-07 0)
(4.54581e-07 -1.99922e-07 0)
(4.54627e-07 -2.00131e-07 0)
(4.54697e-07 -2.00352e-07 0)
(4.5479e-07 -2.00586e-07 0)
(4.54906e-07 -2.00831e-07 0)
(4.55045e-07 -2.01087e-07 0)
(4.55206e-07 -2.01354e-07 0)
(4.55395e-07 -2.01631e-07 0)
(4.55612e-07 -2.01919e-07 0)
(4.55849e-07 -2.02215e-07 0)
(4.56105e-07 -2.0252e-07 0)
(4.56379e-07 -2.02834e-07 0)
(4.56672e-07 -2.03156e-07 0)
(4.56983e-07 -2.03487e-07 0)
(4.57311e-07 -2.03826e-07 0)
(4.57655e-07 -2.04172e-07 0)
(4.58013e-07 -2.04526e-07 0)
(4.58382e-07 -2.04883e-07 0)
(4.58769e-07 -2.05259e-07 0)
(4.59169e-07 -2.05639e-07 0)
(4.59582e-07 -2.06025e-07 0)
(4.60007e-07 -2.06415e-07 0)
(4.60446e-07 -2.0681e-07 0)
(4.60895e-07 -2.0721e-07 0)
(4.61356e-07 -2.07613e-07 0)
(4.61827e-07 -2.08021e-07 0)
(4.62308e-07 -2.08431e-07 0)
(4.62798e-07 -2.08845e-07 0)
(4.63297e-07 -2.09262e-07 0)
(4.63803e-07 -2.09681e-07 0)
(4.64318e-07 -2.101e-07 0)
(4.6484e-07 -2.10519e-07 0)
(4.65368e-07 -2.10942e-07 0)
(4.65902e-07 -2.11364e-07 0)
(4.66441e-07 -2.11787e-07 0)
(4.66985e-07 -2.1221e-07 0)
(4.67534e-07 -2.12631e-07 0)
(4.68086e-07 -2.13052e-07 0)
(4.68644e-07 -2.13471e-07 0)
(4.69218e-07 -2.13898e-07 0)
(4.69818e-07 -2.14338e-07 0)
(4.70411e-07 -2.14778e-07 0)
(4.71016e-07 -2.15209e-07 0)
(4.71611e-07 -2.15655e-07 0)
(4.72258e-07 -2.16081e-07 0)
(4.72837e-07 -2.16504e-07 0)
(5.33636e-07 -2.50124e-07 0)
(5.31817e-07 -2.4779e-07 0)
(5.29313e-07 -2.45119e-07 0)
(5.2604e-07 -2.42342e-07 0)
(5.22625e-07 -2.39642e-07 0)
(5.19299e-07 -2.36948e-07 0)
(5.16117e-07 -2.34689e-07 0)
(5.13117e-07 -2.32636e-07 0)
(5.09969e-07 -2.30516e-07 0)
(5.064e-07 -2.28188e-07 0)
(5.03089e-07 -2.25973e-07 0)
(4.99969e-07 -2.23886e-07 0)
(4.97241e-07 -2.22153e-07 0)
(4.94504e-07 -2.20429e-07 0)
(4.91757e-07 -2.18715e-07 0)
(4.89131e-07 -2.17435e-07 0)
(4.8655e-07 -2.16307e-07 0)
(4.84079e-07 -2.15171e-07 0)
(4.8172e-07 -2.14092e-07 0)
(4.79467e-07 -2.13074e-07 0)
(4.77315e-07 -2.12114e-07 0)
(4.75262e-07 -2.11211e-07 0)
(4.73316e-07 -2.10363e-07 0)
(4.71483e-07 -2.09571e-07 0)
(4.69733e-07 -2.08827e-07 0)
(4.6808e-07 -2.0814e-07 0)
(4.66517e-07 -2.07493e-07 0)
(4.65033e-07 -2.06886e-07 0)
(4.63623e-07 -2.06322e-07 0)
(4.6231e-07 -2.05795e-07 0)
(4.6114e-07 -2.05301e-07 0)
(4.60043e-07 -2.04833e-07 0)
(4.59026e-07 -2.04383e-07 0)
(4.58066e-07 -2.03967e-07 0)
(4.57163e-07 -2.03586e-07 0)
(4.56322e-07 -2.03252e-07 0)
(4.55542e-07 -2.02964e-07 0)
(4.54811e-07 -2.02715e-07 0)
(4.54129e-07 -2.02508e-07 0)
(4.53496e-07 -2.02368e-07 0)
(4.52908e-07 -2.02254e-07 0)
(4.52365e-07 -2.02163e-07 0)
(4.51863e-07 -2.02095e-07 0)
(4.51403e-07 -2.0205e-07 0)
(4.50982e-07 -2.02025e-07 0)
(4.50599e-07 -2.02023e-07 0)
(4.50249e-07 -2.02043e-07 0)
(4.49934e-07 -2.02082e-07 0)
(4.49655e-07 -2.02138e-07 0)
(4.49409e-07 -2.02213e-07 0)
(4.49196e-07 -2.02304e-07 0)
(4.49046e-07 -2.02432e-07 0)
(4.48942e-07 -2.02585e-07 0)
(4.48885e-07 -2.02761e-07 0)
(4.4889e-07 -2.02968e-07 0)
(4.4892e-07 -2.03188e-07 0)
(4.48975e-07 -2.03419e-07 0)
(4.49054e-07 -2.03663e-07 0)
(4.49156e-07 -2.03917e-07 0)
(4.4928e-07 -2.04183e-07 0)
(4.4943e-07 -2.04459e-07 0)
(4.49613e-07 -2.04745e-07 0)
(4.49816e-07 -2.05041e-07 0)
(4.50041e-07 -2.05348e-07 0)
(4.50284e-07 -2.05664e-07 0)
(4.50546e-07 -2.05987e-07 0)
(4.50827e-07 -2.06318e-07 0)
(4.51124e-07 -2.06656e-07 0)
(4.51438e-07 -2.07002e-07 0)
(4.51768e-07 -2.07354e-07 0)
(4.52112e-07 -2.07712e-07 0)
(4.52465e-07 -2.08072e-07 0)
(4.52836e-07 -2.08443e-07 0)
(4.53225e-07 -2.08827e-07 0)
(4.53628e-07 -2.09216e-07 0)
(4.54043e-07 -2.0961e-07 0)
(4.54472e-07 -2.10008e-07 0)
(4.54912e-07 -2.1041e-07 0)
(4.55363e-07 -2.10816e-07 0)
(4.55825e-07 -2.11225e-07 0)
(4.56297e-07 -2.11637e-07 0)
(4.56779e-07 -2.12052e-07 0)
(4.57271e-07 -2.12469e-07 0)
(4.57772e-07 -2.12887e-07 0)
(4.58281e-07 -2.13307e-07 0)
(4.58799e-07 -2.13727e-07 0)
(4.59324e-07 -2.14147e-07 0)
(4.59857e-07 -2.14568e-07 0)
(4.60396e-07 -2.14989e-07 0)
(4.60942e-07 -2.15408e-07 0)
(4.61495e-07 -2.15827e-07 0)
(4.62054e-07 -2.16245e-07 0)
(4.6262e-07 -2.16661e-07 0)
(4.63192e-07 -2.17075e-07 0)
(4.63771e-07 -2.17494e-07 0)
(4.64374e-07 -2.17936e-07 0)
(4.64984e-07 -2.18373e-07 0)
(4.6558e-07 -2.18832e-07 0)
(4.66228e-07 -2.19271e-07 0)
(4.66809e-07 -2.1971e-07 0)
(5.29416e-07 -2.51577e-07 0)
(5.27395e-07 -2.49322e-07 0)
(5.24761e-07 -2.46722e-07 0)
(5.21531e-07 -2.4402e-07 0)
(5.18086e-07 -2.41382e-07 0)
(5.14748e-07 -2.3886e-07 0)
(5.11504e-07 -2.36655e-07 0)
(5.08514e-07 -2.34667e-07 0)
(5.05398e-07 -2.32627e-07 0)
(5.02042e-07 -2.30512e-07 0)
(4.98826e-07 -2.28464e-07 0)
(4.95861e-07 -2.26575e-07 0)
(4.92715e-07 -2.24821e-07 0)
(4.89712e-07 -2.23176e-07 0)
(4.86837e-07 -2.21622e-07 0)
(4.84069e-07 -2.20155e-07 0)
(4.81427e-07 -2.18766e-07 0)
(4.78917e-07 -2.17624e-07 0)
(4.76536e-07 -2.16617e-07 0)
(4.74267e-07 -2.15628e-07 0)
(4.72102e-07 -2.14698e-07 0)
(4.70036e-07 -2.13822e-07 0)
(4.68065e-07 -2.13e-07 0)
(4.66198e-07 -2.12229e-07 0)
(4.64434e-07 -2.11509e-07 0)
(4.62755e-07 -2.10836e-07 0)
(4.61167e-07 -2.10198e-07 0)
(4.59671e-07 -2.09612e-07 0)
(4.5825e-07 -2.09068e-07 0)
(4.56903e-07 -2.08563e-07 0)
(4.55739e-07 -2.08093e-07 0)
(4.54618e-07 -2.07653e-07 0)
(4.53573e-07 -2.07237e-07 0)
(4.52599e-07 -2.06844e-07 0)
(4.51675e-07 -2.06489e-07 0)
(4.50806e-07 -2.06162e-07 0)
(4.49997e-07 -2.05883e-07 0)
(4.49247e-07 -2.05662e-07 0)
(4.48546e-07 -2.05468e-07 0)
(4.47891e-07 -2.05305e-07 0)
(4.47287e-07 -2.05208e-07 0)
(4.46726e-07 -2.05134e-07 0)
(4.46209e-07 -2.05082e-07 0)
(4.45732e-07 -2.05053e-07 0)
(4.45295e-07 -2.05044e-07 0)
(4.44897e-07 -2.05055e-07 0)
(4.44535e-07 -2.05086e-07 0)
(4.44205e-07 -2.05139e-07 0)
(4.4391e-07 -2.05208e-07 0)
(4.4365e-07 -2.05296e-07 0)
(4.4344e-07 -2.05403e-07 0)
(4.43282e-07 -2.05536e-07 0)
(4.4317e-07 -2.05696e-07 0)
(4.43102e-07 -2.05879e-07 0)
(4.43097e-07 -2.06093e-07 0)
(4.43118e-07 -2.06319e-07 0)
(4.43164e-07 -2.06557e-07 0)
(4.43233e-07 -2.06806e-07 0)
(4.43325e-07 -2.07067e-07 0)
(4.43442e-07 -2.0734e-07 0)
(4.43596e-07 -2.07624e-07 0)
(4.43772e-07 -2.07918e-07 0)
(4.43967e-07 -2.08221e-07 0)
(4.44182e-07 -2.08533e-07 0)
(4.44417e-07 -2.08853e-07 0)
(4.44669e-07 -2.09181e-07 0)
(4.4494e-07 -2.09516e-07 0)
(4.45228e-07 -2.09859e-07 0)
(4.45532e-07 -2.10209e-07 0)
(4.45853e-07 -2.10565e-07 0)
(4.46181e-07 -2.10922e-07 0)
(4.46525e-07 -2.11286e-07 0)
(4.46882e-07 -2.11654e-07 0)
(4.4726e-07 -2.12039e-07 0)
(4.47652e-07 -2.12431e-07 0)
(4.48058e-07 -2.12828e-07 0)
(4.48476e-07 -2.13229e-07 0)
(4.48906e-07 -2.13634e-07 0)
(4.49347e-07 -2.14044e-07 0)
(4.49799e-07 -2.14456e-07 0)
(4.50261e-07 -2.14871e-07 0)
(4.50733e-07 -2.15289e-07 0)
(4.51215e-07 -2.15709e-07 0)
(4.51706e-07 -2.16131e-07 0)
(4.52206e-07 -2.16553e-07 0)
(4.52714e-07 -2.16977e-07 0)
(4.53231e-07 -2.17401e-07 0)
(4.53755e-07 -2.17825e-07 0)
(4.54287e-07 -2.1825e-07 0)
(4.54828e-07 -2.18698e-07 0)
(4.55381e-07 -2.19211e-07 0)
(4.55943e-07 -2.19724e-07 0)
(4.56512e-07 -2.20236e-07 0)
(4.57088e-07 -2.20747e-07 0)
(4.57673e-07 -2.21257e-07 0)
(4.58257e-07 -2.21775e-07 0)
(4.58868e-07 -2.22283e-07 0)
(4.5965e-07 -2.22771e-07 0)
(4.60443e-07 -2.23261e-07 0)
(4.6111e-07 -2.23763e-07 0)
(5.25497e-07 -2.525e-07 0)
(5.22728e-07 -2.50638e-07 0)
(5.19979e-07 -2.48095e-07 0)
(5.16783e-07 -2.45469e-07 0)
(5.13101e-07 -2.42915e-07 0)
(5.09505e-07 -2.40478e-07 0)
(5.05938e-07 -2.38374e-07 0)
(5.02367e-07 -2.36656e-07 0)
(4.98922e-07 -2.3489e-07 0)
(4.95952e-07 -2.33125e-07 0)
(4.9335e-07 -2.31341e-07 0)
(4.90495e-07 -2.29499e-07 0)
(4.8754e-07 -2.2773e-07 0)
(4.84692e-07 -2.26108e-07 0)
(4.81783e-07 -2.24611e-07 0)
(4.79001e-07 -2.23194e-07 0)
(4.76346e-07 -2.21855e-07 0)
(4.73807e-07 -2.20584e-07 0)
(4.71382e-07 -2.19386e-07 0)
(4.69065e-07 -2.18257e-07 0)
(4.6688e-07 -2.17284e-07 0)
(4.648e-07 -2.16438e-07 0)
(4.62805e-07 -2.1565e-07 0)
(4.60902e-07 -2.14912e-07 0)
(4.59095e-07 -2.14221e-07 0)
(4.57395e-07 -2.13575e-07 0)
(4.55783e-07 -2.12964e-07 0)
(4.5425e-07 -2.12396e-07 0)
(4.52796e-07 -2.11872e-07 0)
(4.51424e-07 -2.11394e-07 0)
(4.50217e-07 -2.10951e-07 0)
(4.49096e-07 -2.10544e-07 0)
(4.48017e-07 -2.10163e-07 0)
(4.47011e-07 -2.09803e-07 0)
(4.46076e-07 -2.09466e-07 0)
(4.45195e-07 -2.0916e-07 0)
(4.44365e-07 -2.08902e-07 0)
(4.43592e-07 -2.08679e-07 0)
(4.42881e-07 -2.08499e-07 0)
(4.42217e-07 -2.08344e-07 0)
(4.41599e-07 -2.08216e-07 0)
(4.41029e-07 -2.08154e-07 0)
(4.40502e-07 -2.08114e-07 0)
(4.40016e-07 -2.08095e-07 0)
(4.3957e-07 -2.08097e-07 0)
(4.39163e-07 -2.08118e-07 0)
(4.38793e-07 -2.08158e-07 0)
(4.38459e-07 -2.08216e-07 0)
(4.38155e-07 -2.08295e-07 0)
(4.37901e-07 -2.08394e-07 0)
(4.37692e-07 -2.08512e-07 0)
(4.37519e-07 -2.08649e-07 0)
(4.37398e-07 -2.08816e-07 0)
(4.37317e-07 -2.09005e-07 0)
(4.37304e-07 -2.09225e-07 0)
(4.37316e-07 -2.09457e-07 0)
(4.37353e-07 -2.09704e-07 0)
(4.37415e-07 -2.09962e-07 0)
(4.375e-07 -2.10232e-07 0)
(4.3762e-07 -2.10511e-07 0)
(4.37765e-07 -2.10801e-07 0)
(4.37932e-07 -2.111e-07 0)
(4.38118e-07 -2.11409e-07 0)
(4.38324e-07 -2.11725e-07 0)
(4.38549e-07 -2.1205e-07 0)
(4.38793e-07 -2.12382e-07 0)
(4.39054e-07 -2.12722e-07 0)
(4.39333e-07 -2.13069e-07 0)
(4.39628e-07 -2.13423e-07 0)
(4.39935e-07 -2.1378e-07 0)
(4.40253e-07 -2.14141e-07 0)
(4.40587e-07 -2.14507e-07 0)
(4.40935e-07 -2.1488e-07 0)
(4.41297e-07 -2.15258e-07 0)
(4.41681e-07 -2.15653e-07 0)
(4.42077e-07 -2.16054e-07 0)
(4.42486e-07 -2.16458e-07 0)
(4.42906e-07 -2.16867e-07 0)
(4.43337e-07 -2.17279e-07 0)
(4.43784e-07 -2.17746e-07 0)
(4.44244e-07 -2.18252e-07 0)
(4.44715e-07 -2.18761e-07 0)
(4.45196e-07 -2.19273e-07 0)
(4.45675e-07 -2.19819e-07 0)
(4.46162e-07 -2.20367e-07 0)
(4.46711e-07 -2.20891e-07 0)
(4.47263e-07 -2.21414e-07 0)
(4.47821e-07 -2.2194e-07 0)
(4.48388e-07 -2.22466e-07 0)
(4.48963e-07 -2.22992e-07 0)
(4.49546e-07 -2.23519e-07 0)
(4.50144e-07 -2.24068e-07 0)
(4.50758e-07 -2.24641e-07 0)
(4.51379e-07 -2.25213e-07 0)
(4.52034e-07 -2.25758e-07 0)
(4.52713e-07 -2.26293e-07 0)
(4.53406e-07 -2.2682e-07 0)
(4.54097e-07 -2.2737e-07 0)
(4.54865e-07 -2.27896e-07 0)
(4.55572e-07 -2.28413e-07 0)
(5.21525e-07 -2.53536e-07 0)
(5.17666e-07 -2.51978e-07 0)
(5.14523e-07 -2.49606e-07 0)
(5.11142e-07 -2.4717e-07 0)
(5.07275e-07 -2.44799e-07 0)
(5.03415e-07 -2.42609e-07 0)
(4.99567e-07 -2.40721e-07 0)
(4.95904e-07 -2.3905e-07 0)
(4.92918e-07 -2.37397e-07 0)
(4.89785e-07 -2.35538e-07 0)
(4.86847e-07 -2.33603e-07 0)
(4.84096e-07 -2.31972e-07 0)