/*--------------------------------*- C++ -*----------------------------------*\
| =========                 |                                                 |
| \\      /  F ield         | foam-extend: Open Source CFD                    |
|  \\    /   O peration     | Version:     4.1                                |
|   \\  /    A nd           | Web:         http://www.foam-extend.org         |
|    \\/     M anipulation  |                                                 |
\*---------------------------------------------------------------------------*/
FoamFile
{
    version     2.0;
    format      ascii;
    class       vectorField;
    location    "9";
    object      solidsCellD_iteration16;
}
// * * * * * * * * * * * * * * * * * * * * * * * * * * * * * * * * * * * * * //


1000
(
(4.72272e-06 -2.0372e-06 0)
(4.45163e-06 -1.89367e-06 0)
(4.2776e-06 -1.80169e-06 0)
(4.17683e-06 -1.75763e-06 0)
(4.12653e-06 -1.74085e-06 0)
(4.11299e-06 -1.74518e-06 0)
(4.12653e-06 -1.76325e-06 0)
(4.16043e-06 -1.79149e-06 0)
(4.20954e-06 -1.82668e-06 0)
(4.27099e-06 -1.86662e-06 0)
(4.26951e-06 -2.22514e-06 0)
(3.98088e-06 -2.12435e-06 0)
(3.79587e-06 -2.05937e-06 0)
(3.68706e-06 -2.0336e-06 0)
(3.63057e-06 -2.02894e-06 0)
(3.61155e-06 -2.04181e-06 0)
(3.61987e-06 -2.06598e-06 0)
(3.64837e-06 -2.09877e-06 0)
(3.69175e-06 -2.13774e-06 0)
(3.74609e-06 -2.17996e-06 0)
(3.79888e-06 -2.40331e-06 0)
(3.50406e-06 -2.35033e-06 0)
(3.31529e-06 -2.31556e-06 0)
(3.20306e-06 -2.31007e-06 0)
(3.14328e-06 -2.31867e-06 0)
(3.1205e-06 -2.34071e-06 0)
(3.12456e-06 -2.37125e-06 0)
(3.14818e-06 -2.40862e-06 0)
(3.18605e-06 -2.45125e-06 0)
(3.23424e-06 -2.49601e-06 0)
(3.31428e-06 -2.56852e-06 0)
(3.0256e-06 -2.56569e-06 0)
(2.84089e-06 -2.56269e-06 0)
(2.73017e-06 -2.57839e-06 0)
(2.67015e-06 -2.60078e-06 0)
(2.64546e-06 -2.63225e-06 0)
(2.64627e-06 -2.66923e-06 0)
(2.66551e-06 -2.71119e-06 0)
(2.69817e-06 -2.75728e-06 0)
(2.74018e-06 -2.80476e-06 0)
(2.81904e-06 -2.71753e-06 0)
(2.54874e-06 -2.76443e-06 0)
(2.37592e-06 -2.79294e-06 0)
(2.27177e-06 -2.82957e-06 0)
(2.21457e-06 -2.86553e-06 0)
(2.18979e-06 -2.90626e-06 0)
(2.18838e-06 -2.9495e-06 0)
(2.20374e-06 -2.99593e-06 0)
(2.23137e-06 -3.04534e-06 0)
(2.26717e-06 -3.09559e-06 0)
(2.31558e-06 -2.84729e-06 0)
(2.07563e-06 -2.94076e-06 0)
(1.92231e-06 -2.99878e-06 0)
(1.82947e-06 -3.05498e-06 0)
(1.77799e-06 -3.10361e-06 0)
(1.75489e-06 -3.15293e-06 0)
(1.75228e-06 -3.20196e-06 0)
(1.7642e-06 -3.25251e-06 0)
(1.78683e-06 -3.30496e-06 0)
(1.81627e-06 -3.35793e-06 0)
(1.80632e-06 -2.95489e-06 0)
(1.60735e-06 -3.08914e-06 0)
(1.48025e-06 -3.17306e-06 0)
(1.40304e-06 -3.24641e-06 0)
(1.35996e-06 -3.30611e-06 0)
(1.34018e-06 -3.36294e-06 0)
(1.33721e-06 -3.417e-06 0)
(1.34605e-06 -3.47118e-06 0)
(1.36366e-06 -3.52625e-06 0)
(1.38663e-06 -3.58169e-06 0)
(1.29296e-06 -3.03791e-06 0)
(1.14394e-06 -3.20492e-06 0)
(1.04879e-06 -3.30962e-06 0)
(9.90874e-07 -3.39672e-06 0)
(9.58427e-07 -3.46531e-06 0)
(9.43282e-07 -3.52818e-06 0)
(9.40615e-07 -3.5863e-06 0)
(9.46667e-07 -3.64342e-06 0)
(9.59249e-07 -3.7006e-06 0)
(9.75688e-07 -3.75809e-06 0)
(7.76932e-07 -3.09436e-06 0)
(6.84672e-07 -3.28427e-06 0)
(6.25792e-07 -3.40348e-06 0)
(5.89867e-07 -3.50023e-06 0)
(5.69647e-07 -3.57505e-06 0)
(5.601e-07 -3.64212e-06 0)
(5.58283e-07 -3.7031e-06 0)
(5.61828e-07 -3.76231e-06 0)
(5.69372e-07 -3.82098e-06 0)
(5.79234e-07 -3.87995e-06 0)
(2.59474e-07 -3.1228e-06 0)
(2.2822e-07 -3.32455e-06 0)
(2.08201e-07 -3.45125e-06 0)
(1.95975e-07 -3.55296e-06 0)
(1.89113e-07 -3.631e-06 0)
(1.85834e-07 -3.70026e-06 0)
(1.85131e-07 -3.76268e-06 0)
(1.86266e-07 -3.82296e-06 0)
(1.88782e-07 -3.88241e-06 0)
(1.92059e-07 -3.94217e-06 0)
(7.37981e-06 -9.30066e-08 0)
(7.44727e-06 -6.69495e-08 0)
(7.48717e-06 -5.038e-08 0)
(7.52978e-06 -4.05876e-08 0)
(7.57585e-06 -3.50812e-08 0)
(7.63251e-06 -3.24669e-08 0)
(7.69968e-06 -3.18337e-08 0)
(7.77828e-06 -3.24543e-08 0)
(7.86806e-06 -3.39885e-08 0)
(7.96784e-06 -3.58848e-08 0)
(7.32489e-06 -2.79022e-07 0)
(7.3811e-06 -2.02376e-07 0)
(7.41396e-06 -1.5368e-07 0)
(7.45184e-06 -1.25013e-07 0)
(7.4948e-06 -1.09051e-07 0)
(7.54923e-06 -1.01513e-07 0)
(7.61481e-06 -9.97152e-08 0)
(7.69211e-06 -1.01719e-07 0)
(7.7808e-06 -1.06417e-07 0)
(7.8794e-06 -1.12095e-07 0)
(7.21528e-06 -4.66603e-07 0)
(7.25003e-06 -3.4355e-07 0)
(7.26929e-06 -2.65447e-07 0)
(7.29818e-06 -2.19494e-07 0)
(7.33518e-06 -1.93989e-07 0)
(7.38542e-06 -1.82184e-07 0)
(7.4479e-06 -1.7961e-07 0)
(7.52271e-06 -1.83118e-07 0)
(7.60928e-06 -1.90959e-07 0)
(7.70559e-06 -2.00465e-07 0)
(7.05292e-06 -6.5655e-07 0)
(7.05714e-06 -4.93716e-07 0)
(7.05704e-06 -3.90426e-07 0)
(7.07311e-06 -3.29914e-07 0)
(7.10163e-06 -2.96479e-07 0)
(7.1459e-06 -2.8129e-07 0)
(7.20399e-06 -2.78391e-07 0)
(7.27525e-06 -2.83638e-07 0)
(7.35881e-06 -2.94598e-07 0)
(7.45191e-06 -3.07943e-07 0)
(6.84037e-06 -8.4937e-07 0)
(6.80685e-06 -6.55575e-07 0)
(6.78281e-06 -5.32645e-07 0)
(6.78301e-06 -4.61091e-07 0)
(6.80103e-06 -4.21886e-07 0)
(6.83786e-06 -4.04607e-07 0)
(6.8905e-06 -4.02046e-07 0)
(6.95733e-06 -4.09351e-07 0)
(7.03715e-06 -4.23447e-07 0)
(7.12634e-06 -4.40631e-07 0)
(6.58086e-06 -1.04518e-06 0)
(6.50464e-06 -8.30937e-07 0)
(6.45356e-06 -6.94956e-07 0)
(6.43581e-06 -6.16515e-07 0)
(6.4419e-06 -5.74071e-07 0)
(6.47024e-06 -5.56213e-07 0)
(6.51665e-06 -5.54787e-07 0)
(6.57841e-06 -5.64524e-07 0)
(6.65388e-06 -5.81802e-07 0)
(6.73866e-06 -6.02809e-07 0)
(6.27826e-06 -1.24356e-06 0)
(6.15692e-06 -1.02051e-06 0)
(6.0773e-06 -8.78786e-07 0)
(6.04056e-06 -7.98038e-07 0)
(6.034e-06 -7.55139e-07 0)
(6.0533e-06 -7.38389e-07 0)
(6.093e-06 -7.39021e-07 0)
(6.1493e-06 -7.51588e-07 0)
(6.22001e-06 -7.72119e-07 0)
(6.30011e-06 -7.96891e-07 0)
(5.93669e-06 -1.44359e-06 0)
(5.77063e-06 -1.22378e-06 0)
(5.66276e-06 -1.08393e-06 0)
(5.60712e-06 -1.00569e-06 0)
(5.58793e-06 -9.65248e-07 0)
(5.59809e-06 -9.51368e-07 0)
(5.63087e-06 -9.55026e-07 0)
(5.68149e-06 -9.70909e-07 0)
(5.74711e-06 -9.94789e-07 0)
(5.82239e-06 -1.02336e-06 0)
(5.56059e-06 -1.64388e-06 0)
(5.35299e-06 -1.43908e-06 0)
(5.21887e-06 -1.3086e-06 0)
(5.14555e-06 -1.23758e-06 0)
(5.11443e-06 -1.20248e-06 0)
(5.11576e-06 -1.19316e-06 0)
(5.14169e-06 -1.20083e-06 0)
(5.18662e-06 -1.22045e-06 0)
(5.24693e-06 -1.24803e-06 0)
(5.31752e-06 -1.28023e-06 0)
(5.15447e-06 -1.84256e-06 0)
(4.91111e-06 -1.66365e-06 0)
(4.75443e-06 -1.54944e-06 0)
(4.66575e-06 -1.49003e-06 0)
(4.62403e-06 -1.46294e-06 0)
(4.61734e-06 -1.45978e-06 0)
(4.63685e-06 -1.4723e-06 0)
(4.67612e-06 -1.49622e-06 0)
(4.73109e-06 -1.52753e-06 0)
(4.79684e-06 -1.56472e-06 0)
(8.07798e-06 -3.7788e-08 0)
(8.19811e-06 -3.8123e-08 0)
(8.32596e-06 -3.85474e-08 0)
(8.4611e-06 -3.8832e-08 0)
(8.60265e-06 -3.89442e-08 0)
(8.75005e-06 -3.88665e-08 0)
(8.90264e-06 -3.85278e-08 0)
(9.05985e-06 -3.79394e-08 0)
(9.22118e-06 -3.71025e-08 0)
(9.38608e-06 -3.59943e-08 0)
(9.55406e-06 -3.45793e-08 0)
(9.7246e-06 -3.28322e-08 0)
(9.89722e-06 -3.07211e-08 0)
(1.00714e-05 -2.82162e-08 0)
(1.02466e-05 -2.52794e-08 0)
(1.04222e-05 -2.18603e-08 0)
(1.05979e-05 -1.78875e-08 0)
(1.07723e-05 -1.32817e-08 0)
(1.09458e-05 -7.92891e-09 0)
(1.11154e-05 -1.78308e-09 0)
(7.99348e-06 -1.17357e-07 0)
(8.1207e-06 -1.17799e-07 0)
(8.2549e-06 -1.1859e-07 0)
(8.39554e-06 -1.19057e-07 0)
(8.542e-06 -1.19014e-07 0)
(8.69372e-06 -1.18458e-07 0)
(8.85021e-06 -1.17237e-07 0)
(9.01094e-06 -1.15343e-07 0)
(9.17547e-06 -1.12695e-07 0)
(9.34328e-06 -1.09222e-07 0)
(9.51392e-06 -1.0485e-07 0)
(9.68694e-06 -9.95241e-08 0)
(9.86189e-06 -9.31475e-08 0)
(1.00382e-05 -8.561e-08 0)
(1.02156e-05 -7.67759e-08 0)
(1.03931e-05 -6.64917e-08 0)
(1.05707e-05 -5.455e-08 0)
(1.0747e-05 -4.07267e-08 0)
(1.09223e-05 -2.46725e-08 0)
(1.10937e-05 -6.25036e-09 0)
(7.82736e-06 -2.07891e-07 0)
(7.96851e-06 -2.06868e-07 0)
(8.11512e-06 -2.0659e-07 0)
(8.2665e-06 -2.06148e-07 0)
(8.42256e-06 -2.05068e-07 0)
(8.58279e-06 -2.03348e-07 0)
(8.74693e-06 -2.0066e-07 0)
(8.91453e-06 -1.96957e-07 0)
(9.0853e-06 -1.92086e-07 0)
(9.25881e-06 -1.8594e-07 0)
(9.43471e-06 -1.78391e-07 0)
(9.61261e-06 -1.69322e-07 0)
(9.7921e-06 -1.58553e-07 0)
(9.9727e-06 -1.45887e-07 0)
(1.01541e-05 -1.31097e-07 0)
(1.03355e-05 -1.13923e-07 0)
(1.05168e-05 -9.40108e-08 0)
(1.06967e-05 -7.0989e-08 0)
(1.08756e-05 -4.4261e-08 0)
(1.10506e-05 -1.36002e-08 0)
(7.58464e-06 -3.15627e-07 0)
(7.74575e-06 -3.10691e-07 0)
(7.91033e-06 -3.07099e-07 0)
(8.07731e-06 -3.04018e-07 0)
(8.24737e-06 -3.0044e-07 0)
(8.41998e-06 -2.96389e-07 0)
(8.59529e-06 -2.91279e-07 0)
(8.77296e-06 -2.85026e-07 0)
(8.95291e-06 -2.77358e-07 0)
(9.13482e-06 -2.6809e-07 0)
(9.31846e-06 -2.57001e-07 0)
(9.50351e-06 -2.43896e-07 0)
(9.68968e-06 -2.28516e-07 0)
(9.87656e-06 -2.10582e-07 0)
(1.00638e-05 -1.89769e-07 0)
(1.0251e-05 -1.65688e-07 0)
(1.04377e-05 -1.37835e-07 0)
(1.06229e-05 -1.05675e-07 0)
(1.0807e-05 -6.83525e-08 0)
(1.09872e-05 -2.55607e-08 0)
(7.27268e-06 -4.46124e-07 0)
(7.45881e-06 -4.34095e-07 0)
(7.64617e-06 -4.24286e-07 0)
(7.83294e-06 -4.1633e-07 0)
(8.02086e-06 -4.08372e-07 0)
(8.20934e-06 -4.00478e-07 0)
(8.39901e-06 -3.91729e-07 0)
(8.58965e-06 -3.81944e-07 0)
(8.78141e-06 -3.70677e-07 0)
(8.97412e-06 -3.57632e-07 0)
(9.16773e-06 -3.42498e-07 0)
(9.36204e-06 -3.24981e-07 0)
(9.55685e-06 -3.04719e-07 0)
(9.75186e-06 -2.81328e-07 0)
(9.94685e-06 -2.54367e-07 0)
(1.01413e-05 -2.23316e-07 0)
(1.03351e-05 -1.87515e-07 0)
(1.05272e-05 -1.46265e-07 0)
(1.07181e-05 -9.84541e-08 0)
(1.0905e-05 -4.3676e-08 0)
(6.90034e-06 -6.03354e-07 0)
(7.11529e-06 -5.80555e-07 0)
(7.32929e-06 -5.61103e-07 0)
(7.53934e-06 -5.4556e-07 0)
(7.74845e-06 -5.30986e-07 0)
(7.95583e-06 -5.17413e-07 0)
(8.16262e-06 -5.03523e-07 0)
(8.36879e-06 -4.88978e-07 0)
(8.57474e-06 -4.73148e-07 0)
(8.78046e-06 -4.55582e-07 0)
(8.98608e-06 -4.35837e-07 0)
(9.19153e-06 -4.13488e-07 0)
(9.39674e-06 -3.88045e-07 0)
(9.60151e-06 -3.59004e-07 0)
(9.80574e-06 -3.25789e-07 0)
(1.0009e-05 -2.87745e-07 0)
(1.02113e-05 -2.44039e-07 0)
(1.04116e-05 -1.93817e-07 0)
(1.06106e-05 -1.35706e-07 0)
(1.08057e-05 -6.91503e-08 0)
(6.47807e-06 -7.89774e-07 0)
(6.72428e-06 -7.52475e-07 0)
(6.96765e-06 -7.19973e-07 0)
(7.20358e-06 -6.93943e-07 0)
(7.43634e-06 -6.70393e-07 0)
(7.66502e-06 -6.49123e-07 0)
(7.8912e-06 -6.28497e-07 0)
(8.11502e-06 -6.07866e-07 0)
(8.33714e-06 -5.86402e-07 0)
(8.55774e-06 -5.63456e-07 0)
(8.77711e-06 -5.38413e-07 0)
(8.99532e-06 -5.1069e-07 0)
(9.21245e-06 -4.79658e-07 0)
(9.42843e-06 -4.44684e-07 0)
(9.64326e-06 -4.05045e-07 0)
(9.85663e-06 -3.59944e-07 0)
(1.00686e-05 -3.08363e-07 0)
(1.02784e-05 -2.49281e-07 0)
(1.04866e-05 -1.81083e-07 0)
(1.0691e-05 -1.03048e-07 0)
(6.01641e-06 -1.0059e-06 0)
(6.29482e-06 -9.49996e-07 0)
(6.56899e-06 -9.01021e-07 0)
(6.83262e-06 -8.61273e-07 0)
(7.09086e-06 -8.26271e-07 0)
(7.34276e-06 -7.95131e-07 0)
(7.59019e-06 -7.66062e-07 0)
(7.83348e-06 -7.37966e-07 0)
(8.07345e-06 -7.09788e-07 0)
(8.31052e-06 -6.80624e-07 0)
(8.5451e-06 -6.49658e-07 0)
(8.77744e-06 -6.16112e-07 0)
(9.00777e-06 -5.79196e-07 0)
(9.23616e-06 -5.38124e-07 0)
(9.46273e-06 -4.92011e-07 0)
(9.68729e-06 -4.39899e-07 0)
(9.91001e-06 -3.80592e-07 0)
(1.01302e-05 -3.12887e-07 0)
(1.03487e-05 -2.34928e-07 0)
(1.05634e-05 -1.45831e-07 0)
(5.52682e-06 -1.25132e-06 0)
(5.83736e-06 -1.17342e-06 0)
(6.14224e-06 -1.10584e-06 0)
(6.43444e-06 -1.04963e-06 0)
(6.71891e-06 -1.001e-06 0)
(6.99516e-06 -9.57994e-07 0)
(7.26494e-06 -9.1876e-07 0)
(7.52888e-06 -8.81717e-07 0)
(7.78789e-06 -8.45566e-07 0)
(8.04259e-06 -8.09132e-07 0)
(8.29353e-06 -7.71376e-07 0)
(8.54113e-06 -7.3132e-07 0)
(8.78573e-06 -6.88e-07 0)
(9.02756e-06 -6.40457e-07 0)
(9.26682e-06 -5.87633e-07 0)
(9.50349e-06 -5.28395e-07 0)
(9.7378e-06 -4.61379e-07 0)
(9.9693e-06 -3.85193e-07 0)
(1.01988e-05 -2.97784e-07 0)
(1.04246e-05 -1.98108e-07 0)
(5.01848e-06 -1.52153e-06 0)
(5.36093e-06 -1.41666e-06 0)
(5.69502e-06 -1.32818e-06 0)
(6.01644e-06 -1.25288e-06 0)
(6.32768e-06 -1.1884e-06 0)
(6.62928e-06 -1.1318e-06 0)
(6.92241e-06 -1.08097e-06 0)
(7.20802e-06 -1.03393e-06 0)
(7.48706e-06 -9.89036e-07 0)
(7.76029e-06 -9.448e-07 0)
(8.02843e-06 -8.99912e-07 0)
(8.29203e-06 -8.53163e-07 0)
(8.5516e-06 -8.0338e-07 0)
(8.80748e-06 -7.49415e-07 0)
(9.06e-06 -6.90031e-07 0)
(9.30928e-06 -6.23921e-07 0)
(9.55569e-06 -5.49559e-07 0)
(9.79896e-06 -4.6536e-07 0)
(1.004e-05 -3.69084e-07 0)
(1.02775e-05 -2.59487e-07 0)
(4.64384e-06 -1.77847e-06 0)
(5.00636e-06 -1.65238e-06 0)
(5.35716e-06 -1.54864e-06 0)
(5.69599e-06 -1.45843e-06 0)
(6.02374e-06 -1.38022e-06 0)
(6.34121e-06 -1.31103e-06 0)
(6.64938e-06 -1.24869e-06 0)
(6.94917e-06 -1.19116e-06 0)
(7.24146e-06 -1.13667e-06 0)
(7.52703e-06 -1.08362e-06 0)
(7.80663e-06 -1.03055e-06 0)
(8.08085e-06 -9.76119e-07 0)
(8.35025e-06 -9.19033e-07 0)
(8.61527e-06 -8.5802e-07 0)
(8.87631e-06 -7.91732e-07 0)
(9.13362e-06 -7.18756e-07 0)
(9.38765e-06 -6.37514e-07 0)
(9.63836e-06 -5.46318e-07 0)
(9.88669e-06 -4.42891e-07 0)
(1.01318e-05 -3.25929e-07 0)
(4.42838e-06 -1.98578e-06 0)
(4.79336e-06 -1.85502e-06 0)
(5.14697e-06 -1.74295e-06 0)
(5.49014e-06 -1.6438e-06 0)
(5.82291e-06 -1.55611e-06 0)
(6.14584e-06 -1.47746e-06 0)
(6.45961e-06 -1.40582e-06 0)
(6.76494e-06 -1.33931e-06 0)
(7.06255e-06 -1.27621e-06 0)
(7.35312e-06 -1.21494e-06 0)
(7.63734e-06 -1.15406e-06 0)
(7.91578e-06 -1.0922e-06 0)
(8.189e-06 -1.02805e-06 0)
(8.45744e-06 -9.60315e-07 0)
(8.72155e-06 -8.87627e-07 0)
(8.98168e-06 -8.08569e-07 0)
(9.23829e-06 -7.2161e-07 0)
(9.49155e-06 -6.25088e-07 0)
(9.7424e-06 -5.16822e-07 0)
(9.99031e-06 -3.95591e-07 0)
(4.24285e-06 -2.18553e-06 0)
(4.60444e-06 -2.05152e-06 0)
(4.95747e-06 -1.93383e-06 0)
(5.30132e-06 -1.82775e-06 0)
(5.63599e-06 -1.73222e-06 0)
(5.96154e-06 -1.64529e-06 0)
(6.27846e-06 -1.56522e-06 0)
(6.58718e-06 -1.49032e-06 0)
(6.88827e-06 -1.41901e-06 0)
(7.1823e-06 -1.34979e-06 0)
(7.46984e-06 -1.28127e-06 0)
(7.75144e-06 -1.21212e-06 0)
(8.0276e-06 -1.14101e-06 0)
(8.29877e-06 -1.06666e-06 0)
(8.56541e-06 -9.87746e-07 0)
(8.82793e-06 -9.02853e-07 0)
(9.08684e-06 -8.10517e-07 0)
(9.34242e-06 -7.09154e-07 0)
(9.5956e-06 -5.96711e-07 0)
(9.84622e-06 -4.72088e-07 0)
(4.07867e-06 -2.37819e-06 0)
(4.43518e-06 -2.24251e-06 0)
(4.78519e-06 -2.12053e-06 0)
(5.12732e-06 -2.00871e-06 0)
(5.46154e-06 -1.9064e-06 0)
(5.78757e-06 -1.81211e-06 0)
(6.10565e-06 -1.72438e-06 0)
(6.41602e-06 -1.64173e-06 0)
(6.71908e-06 -1.56273e-06 0)
(7.01525e-06 -1.486e-06 0)
(7.30501e-06 -1.41022e-06 0)
(7.58883e-06 -1.3341e-06 0)
(7.86715e-06 -1.25635e-06 0)
(8.14043e-06 -1.17574e-06 0)
(8.40911e-06 -1.09096e-06 0)
(8.67364e-06 -1.00067e-06 0)
(8.93454e-06 -9.03469e-07 0)
(9.19221e-06 -7.97882e-07 0)
(9.44752e-06 -6.82022e-07 0)
(9.70066e-06 -5.54925e-07 0)
(3.93369e-06 -2.56274e-06 0)
(4.28356e-06 -2.4265e-06 0)
(4.62875e-06 -2.30167e-06 0)
(4.96732e-06 -2.1855e-06 0)
(5.29926e-06 -2.07769e-06 0)
(5.624e-06 -1.97715e-06 0)
(5.94161e-06 -1.88269e-06 0)
(6.25212e-06 -1.79306e-06 0)
(6.5558e-06 -1.70701e-06 0)
(6.85294e-06 -1.6233e-06 0)
(7.1439e-06 -1.54071e-06 0)
(7.42905e-06 -1.45801e-06 0)
(7.70882e-06 -1.37398e-06 0)
(7.9836e-06 -1.28746e-06 0)
(8.25383e-06 -1.19718e-06 0)
(8.51998e-06 -1.1019e-06 0)
(8.78256e-06 -1.0003e-06 0)
(9.04205e-06 -8.9103e-07 0)
(9.29928e-06 -7.72398e-07 0)
(9.55472e-06 -6.43588e-07 0)
(3.80458e-06 -2.73932e-06 0)
(4.14701e-06 -2.6034e-06 0)
(4.48626e-06 -2.47674e-06 0)
(4.82e-06 -2.35727e-06 0)
(5.14831e-06 -2.24502e-06 0)
(5.47038e-06 -2.13919e-06 0)
(5.78619e-06 -2.03888e-06 0)
(6.0956e-06 -1.94306e-06 0)
(6.39877e-06 -1.85066e-06 0)
(6.69584e-06 -1.76058e-06 0)
(6.98708e-06 -1.67171e-06 0)
(7.2728e-06 -1.58293e-06 0)
(7.55333e-06 -1.49308e-06 0)
(7.82906e-06 -1.40109e-06 0)
(8.10039e-06 -1.30577e-06 0)
(8.36777e-06 -1.20598e-06 0)
(8.63172e-06 -1.10048e-06 0)
(8.89276e-06 -9.88078e-07 0)
(9.15171e-06 -8.67297e-07 0)
(9.40919e-06 -7.37443e-07 0)
(3.6888e-06 -2.90809e-06 0)
(4.02333e-06 -2.77312e-06 0)
(4.35587e-06 -2.64547e-06 0)
(4.68392e-06 -2.52364e-06 0)
(5.00761e-06 -2.40791e-06 0)
(5.32599e-06 -2.29771e-06 0)
(5.63898e-06 -2.1924e-06 0)
(5.94631e-06 -2.09119e-06 0)
(6.24802e-06 -1.99315e-06 0)
(6.54416e-06 -1.89734e-06 0)
(6.83492e-06 -1.80278e-06 0)
(7.12051e-06 -1.70843e-06 0)
(7.40123e-06 -1.61326e-06 0)
(7.6774e-06 -1.51629e-06 0)
(7.9494e-06 -1.41638e-06 0)
(8.21766e-06 -1.31254e-06 0)
(8.48268e-06 -1.20364e-06 0)
(8.74503e-06 -1.08861e-06 0)
(9.00547e-06 -9.6622e-07 0)
(9.26469e-06 -8.35872e-07 0)
(3.58391e-06 -3.06942e-06 0)
(3.91041e-06 -2.93582e-06 0)
(4.23579e-06 -2.80781e-06 0)
(4.55762e-06 -2.68437e-06 0)
(4.87601e-06 -2.56593e-06 0)
(5.18997e-06 -2.45217e-06 0)
(5.49936e-06 -2.34267e-06 0)
(5.80383e-06 -2.23681e-06 0)
(6.10334e-06 -2.13383e-06 0)
(6.39785e-06 -2.03295e-06 0)
(6.68749e-06 -1.9333e-06 0)
(6.97238e-06 -1.83396e-06 0)
(7.25278e-06 -1.73401e-06 0)
(7.52896e-06 -1.63255e-06 0)
(7.80127e-06 -1.52856e-06 0)
(8.0701e-06 -1.42114e-06 0)
(8.33594e-06 -1.30932e-06 0)
(8.59936e-06 -1.19216e-06 0)
(8.86104e-06 -1.06862e-06 0)
(9.12176e-06 -9.38235e-07 0)
(3.48779e-06 -3.22379e-06 0)
(3.80625e-06 -3.09182e-06 0)
(4.1243e-06 -2.96391e-06 0)
(4.4396e-06 -2.83944e-06 0)
(4.75226e-06 -2.71897e-06 0)
(5.06131e-06 -2.60236e-06 0)
(5.36656e-06 -2.48939e-06 0)
(5.66761e-06 -2.37959e-06 0)
(5.96435e-06 -2.27235e-06 0)
(6.2567e-06 -2.16704e-06 0)
(6.54471e-06 -2.06292e-06 0)
(6.82846e-06 -1.95916e-06 0)
(7.10814e-06 -1.85496e-06 0)
(7.38398e-06 -1.74953e-06 0)
(7.65628e-06 -1.64195e-06 0)
(7.92543e-06 -1.53144e-06 0)
(8.19185e-06 -1.41714e-06 0)
(8.45611e-06 -1.29826e-06 0)
(8.7188e-06 -1.17397e-06 0)
(8.98079e-06 -1.04393e-06 0)
(3.39853e-06 -3.3717e-06 0)
(3.70909e-06 -3.24148e-06 0)
(4.01981e-06 -3.11399e-06 0)
(4.32845e-06 -2.98895e-06 0)
(4.63517e-06 -2.86699e-06 0)
(4.93901e-06 -2.74815e-06 0)
(5.23976e-06 -2.63234e-06 0)
(5.53701e-06 -2.51925e-06 0)
(5.83059e-06 -2.4084e-06 0)
(6.12039e-06 -2.29928e-06 0)
(6.4064e-06 -2.19129e-06 0)
(6.68866e-06 -2.08369e-06 0)
(6.9673e-06 -1.97579e-06 0)
(7.24252e-06 -1.8669e-06 0)
(7.51456e-06 -1.7562e-06 0)
(7.78379e-06 -1.64305e-06 0)
(8.05057e-06 -1.5267e-06 0)
(8.31546e-06 -1.4065e-06 0)
(8.57896e-06 -1.28179e-06 0)
(8.84199e-06 -1.15237e-06 0)
(3.31443e-06 -3.51367e-06 0)
(3.61732e-06 -3.38523e-06 0)
(3.9208e-06 -3.25837e-06 0)
(4.22282e-06 -3.1331e-06 0)
(4.52354e-06 -3.01011e-06 0)
(4.82203e-06 -2.88956e-06 0)
(5.11809e-06 -2.77149e-06 0)
(5.4113e-06 -2.65569e-06 0)
(5.70148e-06 -2.54182e-06 0)
(5.98847e-06 -2.42949e-06 0)
(6.27221e-06 -2.3182e-06 0)
(6.55273e-06 -2.20731e-06 0)
(6.8301e-06 -2.09623e-06 0)
(7.10447e-06 -1.98438e-06 0)
(7.37605e-06 -1.87104e-06 0)
(7.64517e-06 -1.75567e-06 0)
(7.91214e-06 -1.63765e-06 0)
(8.17745e-06 -1.51645e-06 0)
(8.4416e-06 -1.39161e-06 0)
(8.70543e-06 -1.26301e-06 0)
(3.23396e-06 -3.6502e-06 0)
(3.52948e-06 -3.52348e-06 0)
(3.82591e-06 -3.3974e-06 0)
(4.12145e-06 -3.27215e-06 0)
(4.4162e-06 -3.1485e-06 0)
(4.70934e-06 -3.02668e-06 0)
(5.00064e-06 -2.90683e-06 0)
(5.28971e-06 -2.78886e-06 0)
(5.57634e-06 -2.67253e-06 0)
(5.86037e-06 -2.55754e-06 0)
(6.14171e-06 -2.44349e-06 0)
(6.42033e-06 -2.32984e-06 0)
(6.69628e-06 -2.21609e-06 0)
(6.96966e-06 -2.10175e-06 0)
(7.24065e-06 -1.98621e-06 0)
(7.50951e-06 -1.86901e-06 0)
(7.77652e-06 -1.74966e-06 0)
(8.04212e-06 -1.62776e-06 0)
(8.30676e-06 -1.50299e-06 0)
(8.57118e-06 -1.37531e-06 0)
(3.15577e-06 -3.78175e-06 0)
(3.44422e-06 -3.65666e-06 0)
(3.73386e-06 -3.53143e-06 0)
(4.02309e-06 -3.40641e-06 0)
(4.31202e-06 -3.28239e-06 0)
(4.59988e-06 -3.15966e-06 0)
(4.88648e-06 -3.03848e-06 0)
(5.17143e-06 -2.91881e-06 0)
(5.45452e-06 -2.80052e-06 0)
(5.73556e-06 -2.68338e-06 0)
(6.01444e-06 -2.56708e-06 0)
(6.29109e-06 -2.45117e-06 0)
(6.56554e-06 -2.33523e-06 0)
(6.83785e-06 -2.21885e-06 0)
(7.10814e-06 -2.1015e-06 0)
(7.37664e-06 -1.98284e-06 0)
(7.64355e-06 -1.86247e-06 0)
(7.90933e-06 -1.7401e-06 0)
(8.17428e-06 -1.61556e-06 0)
(8.43915e-06 -1.48886e-06 0)
(3.07857e-06 -3.9087e-06 0)
(3.36025e-06 -3.78519e-06 0)
(3.64338e-06 -3.66082e-06 0)
(3.92656e-06 -3.53617e-06 0)
(4.20988e-06 -3.41202e-06 0)
(4.49267e-06 -3.28872e-06 0)
(4.77473e-06 -3.16659e-06 0)
(5.05568e-06 -3.04567e-06 0)
(5.33531e-06 -2.92587e-06 0)
(5.61341e-06 -2.80706e-06 0)
(5.88984e-06 -2.68898e-06 0)
(6.16453e-06 -2.57126e-06 0)
(6.43746e-06 -2.45356e-06 0)
(6.70866e-06 -2.33554e-06 0)
(6.9782e-06 -2.21676e-06 0)
(7.24626e-06 -2.09694e-06 0)
(7.51301e-06 -1.97581e-06 0)
(7.77886e-06 -1.85317e-06 0)
(8.044e-06 -1.72895e-06 0)
(8.30916e-06 -1.60326e-06 0)
(3.00102e-06 -4.0315e-06 0)
(3.27629e-06 -3.9094e-06 0)
(3.55323e-06 -3.78594e-06 0)
(3.83067e-06 -3.66179e-06 0)
(4.1087e-06 -3.53772e-06 0)
(4.38669e-06 -3.41414e-06 0)
(4.66446e-06 -3.29141e-06 0)
(4.94161e-06 -3.1696e-06 0)
(5.21795e-06 -3.04871e-06 0)
(5.49325e-06 -2.92864e-06 0)
(5.76737e-06 -2.80921e-06 0)
(6.04019e-06 -2.69011e-06 0)
(6.31166e-06 -2.57105e-06 0)
(6.58178e-06 -2.45176e-06 0)
(6.85056e-06 -2.33187e-06 0)
(7.11817e-06 -2.21118e-06 0)
(7.38474e-06 -2.08951e-06 0)
(7.65055e-06 -1.96673e-06 0)
(7.91582e-06 -1.8429e-06 0)
(8.18113e-06 -1.71817e-06 0)
(2.92192e-06 -4.15042e-06 0)
(3.19107e-06 -4.02979e-06 0)
(3.46213e-06 -3.90713e-06 0)
(3.73426e-06 -3.78356e-06 0)
(4.00738e-06 -3.65979e-06 0)
(4.28095e-06 -3.53619e-06 0)
(4.55476e-06 -3.41316e-06 0)
(4.82844e-06 -3.29082e-06 0)
(5.10176e-06 -3.16921e-06 0)
(5.37449e-06 -3.04827e-06 0)
(5.64647e-06 -2.92789e-06 0)
(5.91756e-06 -2.80778e-06 0)
(6.18767e-06 -2.68771e-06 0)
(6.45676e-06 -2.56748e-06 0)
(6.72484e-06 -2.44675e-06 0)
(6.99201e-06 -2.32544e-06 0)
(7.25836e-06 -2.2034e-06 0)
(7.5241e-06 -2.08059e-06 0)
(7.78943e-06 -1.95716e-06 0)
(8.05482e-06 -1.83332e-06 0)
(2.83997e-06 -4.26597e-06 0)
(3.10318e-06 -4.14638e-06 0)
(3.36865e-06 -4.02479e-06 0)
(3.63613e-06 -3.90205e-06 0)
(3.90479e-06 -3.77872e-06 0)
(4.17444e-06 -3.65532e-06 0)
(4.44472e-06 -3.53225e-06 0)
(4.71533e-06 -3.40968e-06 0)
(4.986e-06 -3.28765e-06 0)
(5.25648e-06 -3.16618e-06 0)
(5.52659e-06 -3.04518e-06 0)
(5.79616e-06 -2.92438e-06 0)
(6.06507e-06 -2.80361e-06 0)
(6.33327e-06 -2.68271e-06 0)
(6.60072e-06 -2.56141e-06 0)
(6.86751e-06 -2.43966e-06 0)
(7.13363e-06 -2.31737e-06 0)
(7.39931e-06 -2.19458e-06 0)
(7.66461e-06 -2.07154e-06 0)
(7.93001e-06 -1.94848e-06 0)
(2.75322e-06 -4.37801e-06 0)
(3.01138e-06 -4.25963e-06 0)
(3.27229e-06 -4.13935e-06 0)
(3.53527e-06 -4.01748e-06 0)
(3.80007e-06 -3.89478e-06 0)
(4.06629e-06 -3.77181e-06 0)
(4.33358e-06 -3.64895e-06 0)
(4.60161e-06 -3.52642e-06 0)
(4.87008e-06 -3.40429e-06 0)
(5.13871e-06 -3.28259e-06 0)
(5.40728e-06 -3.16124e-06 0)
(5.67559e-06 -3.04005e-06 0)
(5.94351e-06 -2.91884e-06 0)
(6.21097e-06 -2.79751e-06 0)
(6.47791e-06 -2.67584e-06 0)
(6.74436e-06 -2.55379e-06 0)
(7.01028e-06 -2.43133e-06 0)
(7.27592e-06 -2.30858e-06 0)
(7.54122e-06 -2.18587e-06 0)
(7.80654e-06 -2.06348e-06 0)
(2.66054e-06 -4.48778e-06 0)
(2.91406e-06 -4.37082e-06 0)
(3.17081e-06 -4.25158e-06 0)
(3.43014e-06 -4.13066e-06 0)
(3.69181e-06 -4.00875e-06 0)
(3.95534e-06 -3.88636e-06 0)
(4.22036e-06 -3.76392e-06 0)
(4.48649e-06 -3.64164e-06 0)
(4.75335e-06 -3.51963e-06 0)
(5.02063e-06 -3.3979e-06 0)
(5.28808e-06 -3.27642e-06 0)
(5.55548e-06 -3.15503e-06 0)
(5.82268e-06 -3.03359e-06 0)
(6.08955e-06 -2.91202e-06 0)
(6.35607e-06 -2.79009e-06 0)
(6.62224e-06 -2.66782e-06 0)
(6.88806e-06 -2.54529e-06 0)
(7.15362e-06 -2.42255e-06 0)
(7.41895e-06 -2.30004e-06 0)
(7.68424e-06 -2.17815e-06 0)
(2.56073e-06 -4.59438e-06 0)
(2.8102e-06 -4.47902e-06 0)
(3.06351e-06 -4.36124e-06 0)
(3.32005e-06 -4.24157e-06 0)
(3.57943e-06 -4.1207e-06 0)
(3.84113e-06 -3.99916e-06 0)
(4.1047e-06 -3.87739e-06 0)
(4.36965e-06 -3.75559e-06 0)
(4.63557e-06 -3.63386e-06 0)
(4.90209e-06 -3.51228e-06 0)
(5.1689e-06 -3.39087e-06 0)
(5.43573e-06 -3.26945e-06 0)
(5.70244e-06 -3.1479e-06 0)
(5.96892e-06 -3.02619e-06 0)
(6.2351e-06 -2.90416e-06 0)
(6.50102e-06 -2.78177e-06 0)
(6.76675e-06 -2.65916e-06 0)
(7.03229e-06 -2.5364e-06 0)
(7.29774e-06 -2.41395e-06 0)
(7.56311e-06 -2.29236e-06 0)
(1.91226e-07 -4.00346e-06 0)
(5.76405e-07 -3.94418e-06 0)
(9.69781e-07 -3.828e-06 0)
(1.376e-06 -3.65956e-06 0)
(1.79883e-06 -3.44536e-06 0)
(2.24066e-06 -3.19337e-06 0)
(2.70239e-06 -2.91283e-06 0)
(3.18321e-06 -2.61338e-06 0)
(3.68126e-06 -2.30483e-06 0)
(4.19279e-06 -1.99503e-06 0)
(1.857e-07 -4.06708e-06 0)
(5.59421e-07 -4.0129e-06 0)
(9.39984e-07 -3.90666e-06 0)
(1.33132e-06 -3.75228e-06 0)
(1.73665e-06 -3.5553e-06 0)
(2.158e-06 -3.32248e-06 0)
(2.59624e-06 -3.06169e-06 0)
(3.05053e-06 -2.78126e-06 0)
(3.51861e-06 -2.49009e-06 0)
(3.99759e-06 -2.19458e-06 0)
(1.80848e-07 -4.13221e-06 0)
(5.44468e-07 -4.08266e-06 0)
(9.13694e-07 -3.98542e-06 0)
(1.29169e-06 -3.84389e-06 0)
(1.68118e-06 -3.66286e-06 0)
(2.08384e-06 -3.4482e-06 0)
(2.50058e-06 -3.20664e-06 0)
(2.93112e-06 -2.94519e-06 0)
(3.37385e-06 -2.67152e-06 0)
(3.82689e-06 -2.3897e-06 0)
(1.76546e-07 -4.19899e-06 0)
(5.31222e-07 -4.15339e-06 0)
(8.90605e-07 -4.06384e-06 0)
(1.25725e-06 -3.9333e-06 0)
(1.63343e-06 -3.766e-06 0)
(2.02053e-06 -3.56707e-06 0)
(2.41922e-06 -3.34245e-06 0)
(2.82923e-06 -3.09831e-06 0)
(3.24923e-06 -2.84178e-06 0)
(3.67759e-06 -2.57598e-06 0)
(1.72592e-07 -4.26741e-06 0)
(5.19044e-07 -4.22533e-06 0)
(8.69428e-07 -4.14266e-06 0)
(1.22581e-06 -4.02201e-06 0)
(1.5901e-06 -3.86714e-06 0)
(1.96344e-06 -3.68262e-06 0)
(2.34643e-06 -3.47368e-06 0)
(2.73886e-06 -3.24558e-06 0)
(3.13978e-06 -3.00481e-06 0)
(3.54697e-06 -2.75415e-06 0)
(1.68901e-07 -4.33736e-06 0)
(5.0778e-07 -4.29833e-06 0)
(8.49947e-07 -4.22164e-06 0)
(1.19714e-06 -4.10963e-06 0)
(1.55093e-06 -3.96566e-06 0)
(1.91225e-06 -3.79385e-06 0)
(2.28154e-06 -3.59897e-06 0)
(2.65851e-06 -3.38564e-06 0)
(3.04272e-06 -3.15972e-06 0)
(3.43143e-06 -2.92403e-06 0)
(1.65375e-07 -4.40875e-06 0)
(4.97059e-07 -4.37246e-06 0)
(8.31512e-07 -4.30108e-06 0)
(1.17022e-06 -4.1968e-06 0)
(1.51447e-06 -4.06262e-06 0)
(1.86503e-06 -3.90227e-06 0)
(2.22231e-06 -3.72009e-06 0)
(2.58583e-06 -3.5202e-06 0)
(2.95559e-06 -3.30783e-06 0)
(3.32837e-06 -3.08608e-06 0)
(1.61996e-07 -4.48142e-06 0)
(4.86753e-07 -4.44754e-06 0)
(8.13896e-07 -4.38087e-06 0)
(1.14468e-06 -4.28343e-06 0)
(1.48018e-06 -4.15795e-06 0)
(1.82102e-06 -4.00784e-06 0)
(2.16756e-06 -3.83708e-06 0)
(2.51919e-06 -3.64946e-06 0)
(2.87624e-06 -3.44957e-06 0)
(3.23528e-06 -3.24079e-06 0)
(1.58677e-07 -4.55526e-06 0)
(4.7666e-07 -4.52353e-06 0)
(7.96743e-07 -4.46107e-06 0)
(1.11998e-06 -4.36976e-06 0)
(1.44731e-06 -4.25208e-06 0)
(1.77922e-06 -4.11118e-06 0)
(2.11606e-06 -3.95072e-06 0)
(2.45713e-06 -3.77421e-06 0)
(2.80293e-06 -3.58571e-06 0)
(3.15003e-06 -3.38878e-06 0)
(1.55359e-07 -4.63007e-06 0)
(4.66659e-07 -4.60027e-06 0)
(7.79828e-07 -4.54157e-06 0)
(1.09578e-06 -4.45574e-06 0)
(1.41534e-06 -4.34508e-06 0)
(1.73894e-06 -4.21246e-06 0)
(2.06687e-06 -4.06129e-06 0)
(2.3984e-06 -3.89486e-06 0)
(2.73413e-06 -3.71676e-06 0)
(3.07076e-06 -3.53065e-06 0)
(1.52012e-07 -4.70567e-06 0)
(4.56624e-07 -4.67764e-06 0)
(7.62901e-07 -4.62233e-06 0)
(1.07171e-06 -4.54143e-06 0)
(1.38378e-06 -4.43709e-06 0)
(1.6995e-06 -4.31196e-06 0)
(2.01912e-06 -4.16918e-06 0)
(2.34193e-06 -4.01189e-06 0)
(2.66854e-06 -3.84327e-06 0)
(2.99586e-06 -3.66697e-06 0)
(1.48622e-07 -4.78189e-06 0)
(4.46439e-07 -4.75545e-06 0)
(7.45761e-07 -4.70321e-06 0)
(1.04748e-06 -4.62677e-06 0)
(1.3522e-06 -4.52815e-06 0)
(1.66031e-06 -4.4098e-06 0)
(1.97207e-06 -4.27463e-06 0)
(2.28677e-06 -4.12563e-06 0)
(2.60498e-06 -3.96564e-06 0)
(2.92394e-06 -3.79825e-06 0)
(1.45141e-07 -4.85853e-06 0)
(4.35956e-07 -4.83353e-06 0)
(7.28181e-07 -4.78408e-06 0)
(1.02272e-06 -4.7117e-06 0)
(1.32015e-06 -4.61828e-06 0)
(1.6208e-06 -4.5061e-06 0)
(1.92497e-06 -4.37786e-06 0)
(2.23201e-06 -4.23639e-06 0)
(2.5424e-06 -4.08426e-06 0)
(2.85372e-06 -3.92496e-06 0)
(1.41511e-07 -4.93531e-06 0)
(4.25031e-07 -4.91161e-06 0)
(7.09935e-07 -4.86473e-06 0)
(9.9713e-07 -4.79607e-06 0)
(1.28717e-06 -4.7074e-06 0)
(1.5804e-06 -4.60087e-06 0)
(1.87713e-06 -4.47896e-06 0)
(2.17678e-06 -4.34436e-06 0)
(2.47976e-06 -4.19944e-06 0)
(2.78398e-06 -4.04748e-06 0)
(1.37677e-07 -5.01202e-06 0)
(4.13527e-07 -4.98951e-06 0)
(6.90784e-07 -4.94501e-06 0)
(9.70348e-07 -4.87978e-06 0)
(1.25281e-06 -4.79549e-06 0)
(1.53852e-06 -4.69416e-06 0)
(1.82781e-06 -4.57808e-06 0)
(2.1202e-06 -4.44978e-06 0)
(2.41602e-06 -4.31147e-06 0)
(2.71347e-06 -4.16622e-06 0)
(1.33597e-07 -5.08823e-06 0)
(4.01308e-07 -5.06682e-06 0)
(6.70483e-07 -5.02455e-06 0)
(9.42022e-07 -4.96252e-06 0)
(1.21658e-06 -4.8823e-06 0)
(1.49455e-06 -4.78579e-06 0)
(1.77626e-06 -4.67512e-06 0)
(2.06138e-06 -4.55266e-06 0)
(2.35013e-06 -4.42046e-06 0)
(2.64104e-06 -4.28133e-06 0)
(1.29218e-07 -5.16382e-06 0)
(3.88199e-07 -5.14346e-06 0)
(6.48717e-07 -5.10328e-06 0)
(9.11707e-07 -5.04426e-06 0)
(1.1779e-06 -4.96788e-06 0)
(1.44774e-06 -4.87589e-06 0)
(1.72161e-06 -4.7703e-06 0)
(1.99927e-06 -4.65329e-06 0)
(2.28092e-06 -4.52676e-06 0)
(2.56531e-06 -4.39338e-06 0)
(1.24475e-07 -5.23794e-06 0)
(3.73996e-07 -5.21858e-06 0)
(6.25152e-07 -5.18039e-06 0)
(8.78934e-07 -5.12426e-06 0)
(1.13616e-06 -5.05154e-06 0)
(1.39735e-06 -4.96387e-06 0)
(1.66295e-06 -4.86309e-06 0)
(1.9328e-06 -4.75126e-06 0)
(2.20711e-06 -4.63012e-06 0)
(2.48492e-06 -4.50214e-06 0)
(1.19265e-07 -5.31097e-06 0)
(3.58392e-07 -5.29259e-06 0)
(5.99284e-07 -5.25632e-06 0)
(8.43012e-07 -5.20298e-06 0)
(1.09048e-06 -5.13382e-06 0)
(1.34231e-06 -5.05033e-06 0)
(1.59901e-06 -4.9542e-06 0)
(1.86057e-06 -4.84734e-06 0)
(2.1272e-06 -4.73138e-06 0)
(2.39822e-06 -4.60858e-06 0)
(1.13541e-07 -5.3806e-06 0)
(3.41264e-07 -5.36319e-06 0)
(5.709e-07 -5.32885e-06 0)
(8.03607e-07 -5.2783e-06 0)
(1.04041e-06 -5.21268e-06 0)
(1.28205e-06 -5.13337e-06 0)
(1.52911e-06 -5.0419e-06 0)
(1.7818e-06 -4.94002e-06 0)
(2.0403e-06 -4.82927e-06 0)
(2.30421e-06 -4.7117e-06 0)
)


// ************************************************************************* //
