/*--------------------------------*- C++ -*----------------------------------*\
| =========                 |                                                 |
| \\      /  F ield         | foam-extend: Open Source CFD                    |
|  \\    /   O peration     | Version:     4.1                                |
|   \\  /    A nd           | Web:         http://www.foam-extend.org         |
|    \\/     M anipulation  |                                                 |
\*---------------------------------------------------------------------------*/
FoamFile
{
    version     2.0;
    format      ascii;
    class       vectorField;
    location    "9";
    object      solidsCellD_iteration3;
}
// * * * * * * * * * * * * * * * * * * * * * * * * * * * * * * * * * * * * * //


1000
(
(4.59066e-06 -1.92417e-06 0)
(4.33582e-06 -1.79191e-06 0)
(4.17345e-06 -1.70844e-06 0)
(4.08105e-06 -1.66998e-06 0)
(4.03677e-06 -1.65719e-06 0)
(4.02766e-06 -1.6643e-06 0)
(4.04441e-06 -1.68441e-06 0)
(4.08065e-06 -1.71426e-06 0)
(4.13109e-06 -1.75083e-06 0)
(4.19201e-06 -1.79285e-06 0)
(4.15161e-06 -2.10168e-06 0)
(3.87998e-06 -2.00998e-06 0)
(3.70689e-06 -1.95227e-06 0)
(3.60656e-06 -1.93137e-06 0)
(3.55611e-06 -1.93025e-06 0)
(3.54123e-06 -1.94569e-06 0)
(3.55232e-06 -1.97183e-06 0)
(3.58251e-06 -2.0061e-06 0)
(3.6265e-06 -2.04635e-06 0)
(3.68021e-06 -2.09005e-06 0)
(3.69504e-06 -2.26992e-06 0)
(3.41743e-06 -2.22358e-06 0)
(3.24066e-06 -2.19455e-06 0)
(3.13671e-06 -2.19298e-06 0)
(3.08267e-06 -2.20453e-06 0)
(3.06372e-06 -2.22873e-06 0)
(3.07015e-06 -2.26094e-06 0)
(3.09511e-06 -2.29945e-06 0)
(3.13328e-06 -2.34295e-06 0)
(3.18081e-06 -2.38866e-06 0)
(3.22464e-06 -2.4259e-06 0)
(2.9526e-06 -2.42713e-06 0)
(2.77949e-06 -2.42819e-06 0)
(2.67663e-06 -2.44672e-06 0)
(2.62188e-06 -2.47138e-06 0)
(2.60065e-06 -2.50452e-06 0)
(2.60356e-06 -2.54278e-06 0)
(2.6239e-06 -2.58553e-06 0)
(2.65676e-06 -2.63218e-06 0)
(2.69819e-06 -2.68011e-06 0)
(2.74345e-06 -2.56655e-06 0)
(2.48868e-06 -2.61493e-06 0)
(2.32656e-06 -2.64585e-06 0)
(2.22957e-06 -2.68423e-06 0)
(2.17713e-06 -2.72171e-06 0)
(2.15544e-06 -2.76357e-06 0)
(2.15588e-06 -2.80768e-06 0)
(2.17209e-06 -2.85455e-06 0)
(2.19984e-06 -2.90418e-06 0)
(2.23517e-06 -2.9545e-06 0)
(2.25407e-06 -2.68898e-06 0)
(2.02772e-06 -2.78147e-06 0)
(1.88374e-06 -2.8403e-06 0)
(1.79718e-06 -2.89722e-06 0)
(1.74988e-06 -2.94669e-06 0)
(1.72941e-06 -2.99667e-06 0)
(1.72833e-06 -3.04617e-06 0)
(1.74095e-06 -3.09688e-06 0)
(1.76368e-06 -3.14924e-06 0)
(1.79277e-06 -3.20194e-06 0)
(1.75866e-06 -2.79048e-06 0)
(1.57092e-06 -2.92159e-06 0)
(1.45152e-06 -3.00491e-06 0)
(1.37946e-06 -3.07805e-06 0)
(1.33975e-06 -3.13799e-06 0)
(1.32207e-06 -3.19507e-06 0)
(1.32032e-06 -3.24928e-06 0)
(1.32973e-06 -3.30337e-06 0)
(1.34744e-06 -3.35813e-06 0)
(1.37017e-06 -3.41304e-06 0)
(1.25901e-06 -2.86874e-06 0)
(1.11841e-06 -3.03087e-06 0)
(1.02899e-06 -3.13387e-06 0)
(9.74916e-07 -3.22001e-06 0)
(9.44913e-07 -3.28836e-06 0)
(9.31291e-07 -3.35112e-06 0)
(9.29528e-07 -3.40913e-06 0)
(9.36028e-07 -3.46596e-06 0)
(9.48706e-07 -3.52262e-06 0)
(9.6498e-07 -3.57935e-06 0)
(7.56619e-07 -2.92193e-06 0)
(6.6959e-07 -3.10576e-06 0)
(6.14211e-07 -3.22253e-06 0)
(5.80614e-07 -3.3178e-06 0)
(5.61894e-07 -3.39203e-06 0)
(5.5333e-07 -3.45876e-06 0)
(5.52085e-07 -3.51943e-06 0)
(5.55872e-07 -3.57821e-06 0)
(5.63447e-07 -3.63626e-06 0)
(5.73212e-07 -3.69435e-06 0)
(2.52706e-07 -2.94873e-06 0)
(2.23171e-07 -3.14374e-06 0)
(2.04369e-07 -3.26763e-06 0)
(1.92972e-07 -3.36761e-06 0)
(1.86601e-07 -3.44487e-06 0)
(1.83627e-07 -3.51364e-06 0)
(1.83136e-07 -3.57567e-06 0)
(1.84371e-07 -3.63543e-06 0)
(1.86886e-07 -3.69417e-06 0)
(1.90122e-07 -3.75294e-06 0)
(7.15714e-06 -8.78399e-08 0)
(7.22196e-06 -6.34126e-08 0)
(7.26196e-06 -4.79333e-08 0)
(7.30543e-06 -3.88483e-08 0)
(7.35288e-06 -3.3822e-08 0)
(7.41096e-06 -3.15093e-08 0)
(7.47943e-06 -3.10104e-08 0)
(7.55905e-06 -3.17289e-08 0)
(7.64954e-06 -3.33084e-08 0)
(7.74976e-06 -3.51746e-08 0)
(7.10431e-06 -2.6348e-07 0)
(7.15846e-06 -1.9164e-07 0)
(7.1918e-06 -1.46231e-07 0)
(7.23082e-06 -1.19653e-07 0)
(7.27533e-06 -1.04994e-07 0)
(7.33131e-06 -9.83381e-08 0)
(7.39827e-06 -9.70393e-08 0)
(7.47668e-06 -9.92819e-08 0)
(7.56617e-06 -1.04025e-07 0)
(7.66528e-06 -1.09653e-07 0)
(6.99868e-06 -4.40646e-07 0)
(7.03256e-06 -3.25315e-07 0)
(7.0531e-06 -2.52483e-07 0)
(7.08366e-06 -2.09969e-07 0)
(7.12256e-06 -1.86637e-07 0)
(7.17459e-06 -1.76208e-07 0)
(7.23868e-06 -1.74398e-07 0)
(7.31469e-06 -1.783e-07 0)
(7.40222e-06 -1.86227e-07 0)
(7.49919e-06 -1.95658e-07 0)
(6.84219e-06 -6.20029e-07 0)
(6.84729e-06 -4.67492e-07 0)
(6.84955e-06 -3.71205e-07 0)
(6.86807e-06 -3.15255e-07 0)
(6.89898e-06 -2.84734e-07 0)
(6.94528e-06 -2.71409e-07 0)
(7.00523e-06 -2.69565e-07 0)
(7.07792e-06 -2.7538e-07 0)
(7.16267e-06 -2.86524e-07 0)
(7.25668e-06 -2.99782e-07 0)
(6.63723e-06 -8.02162e-07 0)
(6.60677e-06 -6.2075e-07 0)
(6.58644e-06 -5.06247e-07 0)
(6.58995e-06 -4.40168e-07 0)
(6.61098e-06 -4.04463e-07 0)
(6.65027e-06 -3.89442e-07 0)
(6.70506e-06 -3.88214e-07 0)
(6.7736e-06 -3.96252e-07 0)
(6.85486e-06 -4.10635e-07 0)
(6.94526e-06 -4.2774e-07 0)
(6.38696e-06 -9.87103e-07 0)
(6.31619e-06 -7.86734e-07 0)
(6.2703e-06 -6.60219e-07 0)
(6.25683e-06 -5.87939e-07 0)
(6.26662e-06 -5.49453e-07 0)
(6.29792e-06 -5.34171e-07 0)
(6.34682e-06 -5.34296e-07 0)
(6.41059e-06 -5.44898e-07 0)
(6.48783e-06 -5.62546e-07 0)
(6.57426e-06 -5.83512e-07 0)
(6.09491e-06 -1.17447e-06 0)
(5.9816e-06 -9.661e-07 0)
(5.90877e-06 -8.34473e-07 0)
(5.87733e-06 -7.60339e-07 0)
(5.87516e-06 -7.21723e-07 0)
(5.89791e-06 -7.07757e-07 0)
(5.94047e-06 -7.10088e-07 0)
(5.99906e-06 -7.23666e-07 0)
(6.07188e-06 -7.44701e-07 0)
(6.1542e-06 -7.69543e-07 0)
(5.76505e-06 -1.36341e-06 0)
(5.60952e-06 -1.1584e-06 0)
(5.50996e-06 -1.02884e-06 0)
(5.46061e-06 -9.57356e-07 0)
(5.44639e-06 -9.2136e-07 0)
(5.46047e-06 -9.10357e-07 0)
(5.49647e-06 -9.15782e-07 0)
(5.54976e-06 -9.32785e-07 0)
(5.61788e-06 -9.57302e-07 0)
(5.69607e-06 -9.86097e-07 0)
(5.40157e-06 -1.5526e-06 0)
(5.20675e-06 -1.36207e-06 0)
(5.08242e-06 -1.24164e-06 0)
(5.01631e-06 -1.17724e-06 0)
(4.9907e-06 -1.14659e-06 0)
(4.99637e-06 -1.14019e-06 0)
(5.02584e-06 -1.14968e-06 0)
(5.07375e-06 -1.17052e-06 0)
(5.13679e-06 -1.19886e-06 0)
(5.2109e-06 -1.23154e-06 0)
(5.00873e-06 -1.74023e-06 0)
(4.78002e-06 -1.57442e-06 0)
(4.63427e-06 -1.46967e-06 0)
(4.55352e-06 -1.4165e-06 0)
(4.51771e-06 -1.39371e-06 0)
(4.51549e-06 -1.39346e-06 0)
(4.53854e-06 -1.4079e-06 0)
(4.58094e-06 -1.43319e-06 0)
(4.63872e-06 -1.46556e-06 0)
(4.70839e-06 -1.50346e-06 0)
(7.8598e-06 -3.70471e-08 0)
(7.97973e-06 -3.74704e-08 0)
(8.10729e-06 -3.79759e-08 0)
(8.24202e-06 -3.83378e-08 0)
(8.38303e-06 -3.85138e-08 0)
(8.52983e-06 -3.84908e-08 0)
(8.68182e-06 -3.82392e-08 0)
(8.83841e-06 -3.77688e-08 0)
(8.99901e-06 -3.70529e-08 0)
(9.16314e-06 -3.60635e-08 0)
(9.33035e-06 -3.47687e-08 0)
(9.50011e-06 -3.31531e-08 0)
(9.67197e-06 -3.11994e-08 0)
(9.8454e-06 -2.8879e-08 0)
(1.002e-05 -2.61453e-08 0)
(1.0195e-05 -2.29461e-08 0)
(1.03701e-05 -1.92166e-08 0)
(1.05442e-05 -1.48884e-08 0)
(1.07174e-05 -9.85598e-09 0)
(1.0887e-05 -4.0858e-09 0)
(7.77905e-06 -1.14914e-07 0)
(7.90571e-06 -1.15682e-07 0)
(8.0393e-06 -1.16726e-07 0)
(8.17926e-06 -1.17418e-07 0)
(8.325e-06 -1.17614e-07 0)
(8.47598e-06 -1.17294e-07 0)
(8.63172e-06 -1.16335e-07 0)
(8.79167e-06 -1.14733e-07 0)
(8.95537e-06 -1.12397e-07 0)
(9.12233e-06 -1.09273e-07 0)
(9.29212e-06 -1.05288e-07 0)
(9.46429e-06 -1.00382e-07 0)
(9.63842e-06 -9.4477e-08 0)
(9.814e-06 -8.74727e-08 0)
(9.99058e-06 -7.92337e-08 0)
(1.01675e-05 -6.96131e-08 0)
(1.03444e-05 -5.84175e-08 0)
(1.05202e-05 -4.5444e-08 0)
(1.06952e-05 -3.03744e-08 0)
(1.08666e-05 -1.3094e-08 0)
(7.62023e-06 -2.03147e-07 0)
(7.76007e-06 -2.02749e-07 0)
(7.90553e-06 -2.02963e-07 0)
(8.05577e-06 -2.02948e-07 0)
(8.21069e-06 -2.02303e-07 0)
(8.36982e-06 -2.0101e-07 0)
(8.53296e-06 -1.98791e-07 0)
(8.6996e-06 -1.95606e-07 0)
(8.86937e-06 -1.91284e-07 0)
(9.04187e-06 -1.85737e-07 0)
(9.21679e-06 -1.7884e-07 0)
(9.39376e-06 -1.70476e-07 0)
(9.57236e-06 -1.60491e-07 0)
(9.75213e-06 -1.48705e-07 0)
(9.93268e-06 -1.34893e-07 0)
(1.01134e-05 -1.18809e-07 0)
(1.0294e-05 -1.00125e-07 0)
(1.04734e-05 -7.85111e-08 0)
(1.06518e-05 -5.34382e-08 0)
(1.08266e-05 -2.46987e-08 0)
(7.38813e-06 -3.07664e-07 0)
(7.5469e-06 -3.03736e-07 0)
(7.70948e-06 -3.00967e-07 0)
(7.87464e-06 -2.98617e-07 0)
(8.04301e-06 -2.95769e-07 0)
(8.2141e-06 -2.92414e-07 0)
(8.38801e-06 -2.8804e-07 0)
(8.56436e-06 -2.82556e-07 0)
(8.74302e-06 -2.75684e-07 0)
(8.92371e-06 -2.67276e-07 0)
(9.10621e-06 -2.57125e-07 0)
(9.29018e-06 -2.45036e-07 0)
(9.47532e-06 -2.30768e-07 0)
(9.66121e-06 -2.14059e-07 0)
(9.84757e-06 -1.94594e-07 0)
(1.00339e-05 -1.72008e-07 0)
(1.02198e-05 -1.45836e-07 0)
(1.04044e-05 -1.15617e-07 0)
(1.0588e-05 -8.05969e-08 0)
(1.07678e-05 -4.04738e-08 0)
(7.0896e-06 -4.33714e-07 0)
(7.27215e-06 -4.23251e-07 0)
(7.45654e-06 -4.1473e-07 0)
(7.6407e-06 -4.07913e-07 0)
(7.82625e-06 -4.01071e-07 0)
(8.01264e-06 -3.94213e-07 0)
(8.20045e-06 -3.86522e-07 0)
(8.38937e-06 -3.77803e-07 0)
(8.57953e-06 -3.67635e-07 0)
(8.77077e-06 -3.55769e-07 0)
(8.96301e-06 -3.41885e-07 0)
(9.156e-06 -3.25691e-07 0)
(9.34956e-06 -3.06854e-07 0)
(9.5434e-06 -2.8502e-07 0)
(9.73731e-06 -2.59768e-07 0)
(9.93075e-06 -2.30613e-07 0)
(1.01236e-05 -1.96949e-07 0)
(1.03149e-05 -1.5817e-07 0)
(1.05051e-05 -1.13293e-07 0)
(1.06915e-05 -6.18995e-08 0)
(6.73327e-06 -5.85011e-07 0)
(6.94324e-06 -5.64557e-07 0)
(7.15312e-06 -5.47047e-07 0)
(7.35961e-06 -5.33189e-07 0)
(7.56557e-06 -5.20229e-07 0)
(7.77022e-06 -5.08133e-07 0)
(7.97468e-06 -4.95733e-07 0)
(8.17869e-06 -4.8264e-07 0)
(8.38263e-06 -4.68264e-07 0)
(8.58651e-06 -4.52211e-07 0)
(8.79043e-06 -4.34034e-07 0)
(8.99429e-06 -4.13317e-07 0)
(9.198e-06 -3.89613e-07 0)
(9.40138e-06 -3.62458e-07 0)
(9.60433e-06 -3.31304e-07 0)
(9.80636e-06 -2.95539e-07 0)
(1.00075e-05 -2.54415e-07 0)
(1.02068e-05 -2.07167e-07 0)
(1.04049e-05 -1.52576e-07 0)
(1.05992e-05 -9.00715e-08 0)
(6.32885e-06 -7.64009e-07 0)
(6.56872e-06 -7.29995e-07 0)
(6.80686e-06 -7.00237e-07 0)
(7.03834e-06 -6.76589e-07 0)
(7.26721e-06 -6.55286e-07 0)
(7.49252e-06 -6.36063e-07 0)
(7.71572e-06 -6.1742e-07 0)
(7.93684e-06 -5.9869e-07 0)
(8.15649e-06 -5.79085e-07 0)
(8.37483e-06 -5.58009e-07 0)
(8.59212e-06 -5.3487e-07 0)
(8.8084e-06 -5.09104e-07 0)
(9.02372e-06 -4.80136e-07 0)
(9.23801e-06 -4.47378e-07 0)
(9.45124e-06 -4.10142e-07 0)
(9.6631e-06 -3.67688e-07 0)
(9.87371e-06 -3.19108e-07 0)
(1.00822e-05 -2.63472e-07 0)
(1.02893e-05 -1.99311e-07 0)
(1.04926e-05 -1.25905e-07 0)
(5.88642e-06 -9.71119e-07 0)
(6.15737e-06 -9.19716e-07 0)
(6.42531e-06 -8.74508e-07 0)
(6.68367e-06 -8.38027e-07 0)
(6.93722e-06 -8.05997e-07 0)
(7.1851e-06 -7.77559e-07 0)
(7.4289e-06 -7.51005e-07 0)
(7.6689e-06 -7.25284e-07 0)
(7.90587e-06 -6.99393e-07 0)
(8.1402e-06 -6.72478e-07 0)
(8.37227e-06 -6.4376e-07 0)
(8.60226e-06 -6.12501e-07 0)
(8.83033e-06 -5.77974e-07 0)
(9.05663e-06 -5.39443e-07 0)
(9.2812e-06 -4.96068e-07 0)
(9.5039e-06 -4.46963e-07 0)
(9.72494e-06 -3.91046e-07 0)
(9.94355e-06 -3.27206e-07 0)
(1.01606e-05 -2.53726e-07 0)
(1.03739e-05 -1.69739e-07 0)
(5.41662e-06 -1.20611e-06 0)
(5.71917e-06 -1.13394e-06 0)
(6.01719e-06 -1.07116e-06 0)
(6.30352e-06 -1.01923e-06 0)
(6.58267e-06 -9.74442e-07 0)
(6.85424e-06 -9.34899e-07 0)
(7.11972e-06 -8.98809e-07 0)
(7.37974e-06 -8.64685e-07 0)
(7.63515e-06 -8.31284e-07 0)
(7.88652e-06 -7.975e-07 0)
(8.13437e-06 -7.6235e-07 0)
(8.37903e-06 -7.24917e-07 0)
(8.62084e-06 -6.84312e-07 0)
(8.86005e-06 -6.39634e-07 0)
(9.09681e-06 -5.89877e-07 0)
(9.33115e-06 -5.34e-07 0)
(9.56336e-06 -4.70737e-07 0)
(9.79286e-06 -3.98798e-07 0)
(1.00205e-05 -3.16239e-07 0)
(1.02447e-05 -2.22075e-07 0)
(4.92813e-06 -1.46535e-06 0)
(5.2628e-06 -1.36777e-06 0)
(5.58992e-06 -1.28525e-06 0)
(5.90503e-06 -1.2152e-06 0)
(6.21047e-06 -1.15528e-06 0)
(6.50671e-06 -1.10275e-06 0)
(6.79487e-06 -1.0556e-06 0)
(7.07583e-06 -1.01195e-06 0)
(7.35053e-06 -9.70217e-07 0)
(7.61973e-06 -9.28996e-07 0)
(7.88407e-06 -8.87047e-07 0)
(8.14406e-06 -8.43235e-07 0)
(8.40018e-06 -7.96472e-07 0)
(8.65282e-06 -7.45673e-07 0)
(8.90225e-06 -6.89661e-07 0)
(9.14866e-06 -6.27235e-07 0)
(9.39241e-06 -5.56948e-07 0)
(9.63317e-06 -4.77338e-07 0)
(9.8719e-06 -3.86245e-07 0)
(1.01073e-05 -2.82522e-07 0)
(4.56412e-06 -1.71433e-06 0)
(4.92179e-06 -1.59527e-06 0)
(5.26674e-06 -1.49783e-06 0)
(5.59944e-06 -1.41347e-06 0)
(5.9212e-06 -1.34038e-06 0)
(6.23292e-06 -1.27579e-06 0)
(6.53567e-06 -1.21762e-06 0)
(6.83033e-06 -1.16391e-06 0)
(7.11782e-06 -1.11298e-06 0)
(7.39892e-06 -1.0633e-06 0)
(7.67428e-06 -1.01351e-06 0)
(7.94446e-06 -9.62338e-07 0)
(8.21004e-06 -9.08576e-07 0)
(8.47146e-06 -8.51018e-07 0)
(8.72905e-06 -7.88383e-07 0)
(8.98317e-06 -7.19374e-07 0)
(9.23421e-06 -6.4246e-07 0)
(9.48209e-06 -5.5612e-07 0)
(9.72777e-06 -4.58144e-07 0)
(9.97039e-06 -3.47326e-07 0)
(4.35631e-06 -1.91613e-06 0)
(4.71604e-06 -1.79213e-06 0)
(5.06409e-06 -1.68618e-06 0)
(5.40146e-06 -1.59288e-06 0)
(5.72849e-06 -1.51051e-06 0)
(6.04583e-06 -1.43674e-06 0)
(6.35426e-06 -1.36959e-06 0)
(6.65449e-06 -1.30722e-06 0)
(6.94731e-06 -1.24799e-06 0)
(7.23341e-06 -1.19042e-06 0)
(7.51339e-06 -1.13312e-06 0)
(7.78777e-06 -1.07482e-06 0)
(8.05716e-06 -1.01427e-06 0)
(8.32202e-06 -9.5025e-07 0)
(8.58269e-06 -8.81461e-07 0)
(8.83964e-06 -8.06607e-07 0)
(9.09324e-06 -7.24181e-07 0)
(9.34365e-06 -6.32711e-07 0)
(9.59179e-06 -5.30086e-07 0)
(9.8372e-06 -4.15121e-07 0)
(4.17893e-06 -2.10979e-06 0)
(4.5349e-06 -1.98297e-06 0)
(4.88223e-06 -1.87152e-06 0)
(5.22031e-06 -1.77135e-06 0)
(5.54934e-06 -1.68127e-06 0)
(5.86941e-06 -1.59943e-06 0)
(6.18106e-06 -1.52408e-06 0)
(6.48477e-06 -1.45359e-06 0)
(6.78114e-06 -1.38643e-06 0)
(7.07073e-06 -1.32119e-06 0)
(7.35407e-06 -1.25654e-06 0)
(7.63162e-06 -1.19119e-06 0)
(7.904e-06 -1.12393e-06 0)
(8.17162e-06 -1.05353e-06 0)
(8.43484e-06 -9.78723e-07 0)
(8.6942e-06 -8.9823e-07 0)
(8.95007e-06 -8.10605e-07 0)
(9.20279e-06 -7.14447e-07 0)
(9.45321e-06 -6.0776e-07 0)
(9.70122e-06 -4.89407e-07 0)
(4.02262e-06 -2.29596e-06 0)
(4.37327e-06 -2.16777e-06 0)
(4.71751e-06 -2.05234e-06 0)
(5.05388e-06 -1.94666e-06 0)
(5.38253e-06 -1.85004e-06 0)
(5.70315e-06 -1.76108e-06 0)
(6.01609e-06 -1.67832e-06 0)
(6.32153e-06 -1.60035e-06 0)
(6.61993e-06 -1.52579e-06 0)
(6.91171e-06 -1.45331e-06 0)
(7.1973e-06 -1.38165e-06 0)
(7.47711e-06 -1.30957e-06 0)
(7.7517e-06 -1.23591e-06 0)
(8.02145e-06 -1.15945e-06 0)
(8.28673e-06 -1.07896e-06 0)
(8.5481e-06 -9.9324e-07 0)
(8.80594e-06 -9.00902e-07 0)
(9.06071e-06 -8.0063e-07 0)
(9.3132e-06 -6.90552e-07 0)
(9.56363e-06 -5.69666e-07 0)
(3.88475e-06 -2.47431e-06 0)
(4.22878e-06 -2.34572e-06 0)
(4.56822e-06 -2.22767e-06 0)
(4.9011e-06 -2.11786e-06 0)
(5.22756e-06 -2.01597e-06 0)
(5.54699e-06 -1.92098e-06 0)
(5.85955e-06 -1.83173e-06 0)
(6.16522e-06 -1.74704e-06 0)
(6.46431e-06 -1.66568e-06 0)
(6.75712e-06 -1.58648e-06 0)
(7.04395e-06 -1.50824e-06 0)
(7.32515e-06 -1.42981e-06 0)
(7.60124e-06 -1.35008e-06 0)
(7.87253e-06 -1.26791e-06 0)
(8.1394e-06 -1.18211e-06 0)
(8.4024e-06 -1.09154e-06 0)
(8.66191e-06 -9.94918e-07 0)
(8.91847e-06 -8.9101e-07 0)
(9.17282e-06 -7.78119e-07 0)
(9.42544e-06 -6.55469e-07 0)
(3.76198e-06 -2.64494e-06 0)
(4.09873e-06 -2.51675e-06 0)
(4.43235e-06 -2.39705e-06 0)
(4.76054e-06 -2.28414e-06 0)
(5.08348e-06 -2.178e-06 0)
(5.40039e-06 -2.07794e-06 0)
(5.71127e-06 -1.98307e-06 0)
(6.01593e-06 -1.89243e-06 0)
(6.31457e-06 -1.80496e-06 0)
(6.60739e-06 -1.71962e-06 0)
(6.89458e-06 -1.63533e-06 0)
(7.17641e-06 -1.55104e-06 0)
(7.45334e-06 -1.46571e-06 0)
(7.72564e-06 -1.37825e-06 0)
(7.99365e-06 -1.28758e-06 0)
(8.25791e-06 -1.19261e-06 0)
(8.51879e-06 -1.09216e-06 0)
(8.77688e-06 -9.85114e-07 0)
(9.03289e-06 -8.70015e-07 0)
(9.28746e-06 -7.46288e-07 0)
(3.65179e-06 -2.80812e-06 0)
(3.98088e-06 -2.68087e-06 0)
(4.30802e-06 -2.56028e-06 0)
(4.6307e-06 -2.44516e-06 0)
(4.94919e-06 -2.33572e-06 0)
(5.26258e-06 -2.23149e-06 0)
(5.57078e-06 -2.13186e-06 0)
(5.87347e-06 -2.03603e-06 0)
(6.17075e-06 -1.94315e-06 0)
(6.46274e-06 -1.8523e-06 0)
(6.74954e-06 -1.76254e-06 0)
(7.03134e-06 -1.6729e-06 0)
(7.30855e-06 -1.58244e-06 0)
(7.58135e-06 -1.49016e-06 0)
(7.8501e-06 -1.39504e-06 0)
(8.11527e-06 -1.2961e-06 0)
(8.37723e-06 -1.19227e-06 0)
(8.63661e-06 -1.08257e-06 0)
(8.89406e-06 -9.65817e-07 0)
(9.15033e-06 -8.41506e-07 0)
(3.5519e-06 -2.96419e-06 0)
(3.87321e-06 -2.83826e-06 0)
(4.1935e-06 -2.71736e-06 0)
(4.51017e-06 -2.60074e-06 0)
(4.82357e-06 -2.48877e-06 0)
(5.13274e-06 -2.38116e-06 0)
(5.4375e-06 -2.27752e-06 0)
(5.73747e-06 -2.17725e-06 0)
(6.03268e-06 -2.07963e-06 0)
(6.32317e-06 -1.98391e-06 0)
(6.60895e-06 -1.88926e-06 0)
(6.89016e-06 -1.79483e-06 0)
(7.16715e-06 -1.69975e-06 0)
(7.44002e-06 -1.60312e-06 0)
(7.70913e-06 -1.50402e-06 0)
(7.97491e-06 -1.40155e-06 0)
(8.23769e-06 -1.29479e-06 0)
(8.49813e-06 -1.18292e-06 0)
(8.75679e-06 -1.06498e-06 0)
(9.0145e-06 -9.40441e-07 0)
(3.46026e-06 -3.1136e-06 0)
(3.77388e-06 -2.98922e-06 0)
(4.08712e-06 -2.86846e-06 0)
(4.39754e-06 -2.75091e-06 0)
(4.70545e-06 -2.63703e-06 0)
(5.00991e-06 -2.52673e-06 0)
(5.31071e-06 -2.41977e-06 0)
(5.60743e-06 -2.31572e-06 0)
(5.90002e-06 -2.21401e-06 0)
(6.18848e-06 -2.11405e-06 0)
(6.47275e-06 -2.01511e-06 0)
(6.75291e-06 -1.91645e-06 0)
(7.02925e-06 -1.81728e-06 0)
(7.30184e-06 -1.71678e-06 0)
(7.571e-06 -1.61415e-06 0)
(7.8371e-06 -1.50861e-06 0)
(8.10048e-06 -1.39937e-06 0)
(8.36175e-06 -1.28577e-06 0)
(8.62142e-06 -1.16696e-06 0)
(8.88034e-06 -1.04254e-06 0)
(3.37506e-06 -3.25687e-06 0)
(3.68115e-06 -3.13417e-06 0)
(3.98736e-06 -3.01383e-06 0)
(4.29142e-06 -2.89575e-06 0)
(4.59363e-06 -2.78048e-06 0)
(4.8931e-06 -2.66805e-06 0)
(5.18961e-06 -2.55837e-06 0)
(5.4827e-06 -2.45118e-06 0)
(5.7723e-06 -2.34602e-06 0)
(6.05834e-06 -2.24243e-06 0)
(6.34072e-06 -2.13978e-06 0)
(6.61948e-06 -2.03743e-06 0)
(6.89485e-06 -1.93468e-06 0)
(7.16685e-06 -1.83082e-06 0)
(7.43579e-06 -1.72513e-06 0)
(7.702e-06 -1.61697e-06 0)
(7.96576e-06 -1.50568e-06 0)
(8.22767e-06 -1.39068e-06 0)
(8.48814e-06 -1.27126e-06 0)
(8.74805e-06 -1.14729e-06 0)
(3.29473e-06 -3.39451e-06 0)
(3.59349e-06 -3.2735e-06 0)
(3.89278e-06 -3.15377e-06 0)
(4.19051e-06 -3.03547e-06 0)
(4.48695e-06 -2.91922e-06 0)
(4.78131e-06 -2.80515e-06 0)
(5.07334e-06 -2.69332e-06 0)
(5.36258e-06 -2.58355e-06 0)
(5.64894e-06 -2.47553e-06 0)
(5.93231e-06 -2.36888e-06 0)
(6.21253e-06 -2.26307e-06 0)
(6.48963e-06 -2.15756e-06 0)
(6.76377e-06 -2.05173e-06 0)
(7.03497e-06 -1.94497e-06 0)
(7.30348e-06 -1.83669e-06 0)
(7.56962e-06 -1.72633e-06 0)
(7.83359e-06 -1.61333e-06 0)
(8.09595e-06 -1.49722e-06 0)
(8.35705e-06 -1.37747e-06 0)
(8.61774e-06 -1.25412e-06 0)
(3.21782e-06 -3.52699e-06 0)
(3.50952e-06 -3.40761e-06 0)
(3.80205e-06 -3.2886e-06 0)
(4.09355e-06 -3.17032e-06 0)
(4.38429e-06 -3.05344e-06 0)
(4.67353e-06 -2.93817e-06 0)
(4.96103e-06 -2.82465e-06 0)
(5.24633e-06 -2.71283e-06 0)
(5.52931e-06 -2.60247e-06 0)
(5.80985e-06 -2.49327e-06 0)
(6.08775e-06 -2.38481e-06 0)
(6.36301e-06 -2.27662e-06 0)
(6.63578e-06 -2.1682e-06 0)
(6.90602e-06 -2.05902e-06 0)
(7.17397e-06 -1.94857e-06 0)
(7.43988e-06 -1.83639e-06 0)
(7.7039e-06 -1.72201e-06 0)
(7.96656e-06 -1.60504e-06 0)
(8.22814e-06 -1.48524e-06 0)
(8.48943e-06 -1.36255e-06 0)
(3.14299e-06 -3.65473e-06 0)
(3.42791e-06 -3.53686e-06 0)
(3.71393e-06 -3.41866e-06 0)
(3.9994e-06 -3.30059e-06 0)
(4.28457e-06 -3.18336e-06 0)
(4.56878e-06 -3.06725e-06 0)
(4.85179e-06 -2.95247e-06 0)
(5.13315e-06 -2.83902e-06 0)
(5.41273e-06 -2.7268e-06 0)
(5.69038e-06 -2.61555e-06 0)
(5.96589e-06 -2.50493e-06 0)
(6.23925e-06 -2.39456e-06 0)
(6.51055e-06 -2.28401e-06 0)
(6.77976e-06 -2.17284e-06 0)
(7.04704e-06 -2.06062e-06 0)
(7.3126e-06 -1.94696e-06 0)
(7.57656e-06 -1.83146e-06 0)
(7.83939e-06 -1.71391e-06 0)
(8.10131e-06 -1.5942e-06 0)
(8.36305e-06 -1.47223e-06 0)
(3.06903e-06 -3.77808e-06 0)
(3.34747e-06 -3.66168e-06 0)
(3.62723e-06 -3.54431e-06 0)
(3.90692e-06 -3.42659e-06 0)
(4.18673e-06 -3.30923e-06 0)
(4.46609e-06 -3.19258e-06 0)
(4.74475e-06 -3.07691e-06 0)
(5.02227e-06 -2.96226e-06 0)
(5.29851e-06 -2.84862e-06 0)
(5.57331e-06 -2.73577e-06 0)
(5.84645e-06 -2.62344e-06 0)
(6.1179e-06 -2.51132e-06 0)
(6.38774e-06 -2.39906e-06 0)
(6.65586e-06 -2.28629e-06 0)
(6.92241e-06 -2.17265e-06 0)
(7.18755e-06 -2.05779e-06 0)
(7.45136e-06 -1.94146e-06 0)
(7.71428e-06 -1.82356e-06 0)
(7.97644e-06 -1.70394e-06 0)
(8.23848e-06 -1.58273e-06 0)
(2.99469e-06 -3.89748e-06 0)
(3.26698e-06 -3.78242e-06 0)
(3.54082e-06 -3.6659e-06 0)
(3.81501e-06 -3.54864e-06 0)
(4.08974e-06 -3.43137e-06 0)
(4.36451e-06 -3.31446e-06 0)
(4.63903e-06 -3.19824e-06 0)
(4.9129e-06 -3.08275e-06 0)
(5.18595e-06 -2.96804e-06 0)
(5.45802e-06 -2.85397e-06 0)
(5.7289e-06 -2.74034e-06 0)
(5.99852e-06 -2.6269e-06 0)
(6.26693e-06 -2.51334e-06 0)
(6.53398e-06 -2.39934e-06 0)
(6.79976e-06 -2.28458e-06 0)
(7.06445e-06 -2.16883e-06 0)
(7.32809e-06 -2.05192e-06 0)
(7.59102e-06 -1.93378e-06 0)
(7.85332e-06 -1.81431e-06 0)
(8.11553e-06 -1.69376e-06 0)
(2.91888e-06 -4.01323e-06 0)
(3.1853e-06 -3.89952e-06 0)
(3.4535e-06 -3.78374e-06 0)
(3.7226e-06 -3.66703e-06 0)
(3.99261e-06 -3.55005e-06 0)
(4.26313e-06 -3.43313e-06 0)
(4.53381e-06 -3.31662e-06 0)
(4.80427e-06 -3.20064e-06 0)
(5.07437e-06 -3.08523e-06 0)
(5.34395e-06 -2.97032e-06 0)
(5.61275e-06 -2.85577e-06 0)
(5.88067e-06 -2.74136e-06 0)
(6.14772e-06 -2.62682e-06 0)
(6.41371e-06 -2.51189e-06 0)
(6.67877e-06 -2.39631e-06 0)
(6.94303e-06 -2.27993e-06 0)
(7.20647e-06 -2.16263e-06 0)
(7.46935e-06 -2.04428e-06 0)
(7.73168e-06 -1.92503e-06 0)
(7.99394e-06 -1.80506e-06 0)
(2.84039e-06 -4.12571e-06 0)
(3.10109e-06 -4.01295e-06 0)
(3.36393e-06 -3.89821e-06 0)
(3.62855e-06 -3.7823e-06 0)
(3.89427e-06 -3.66573e-06 0)
(4.16097e-06 -3.54898e-06 0)
(4.42821e-06 -3.43243e-06 0)
(4.69566e-06 -3.31622e-06 0)
(4.96316e-06 -3.20043e-06 0)
(5.23055e-06 -3.08502e-06 0)
(5.49749e-06 -2.96987e-06 0)
(5.76387e-06 -2.8548e-06 0)
(6.02966e-06 -2.73959e-06 0)
(6.29472e-06 -2.62401e-06 0)
(6.55916e-06 -2.50789e-06 0)
(6.82303e-06 -2.39109e-06 0)
(7.08619e-06 -2.27348e-06 0)
(7.34887e-06 -2.155e-06 0)
(7.6112e-06 -2.03594e-06 0)
(7.87365e-06 -1.91645e-06 0)
(2.75735e-06 -4.2348e-06 0)
(3.01321e-06 -4.12319e-06 0)
(3.27164e-06 -4.00969e-06 0)
(3.53191e-06 -3.8946e-06 0)
(3.79388e-06 -3.77864e-06 0)
(4.05719e-06 -3.6623e-06 0)
(4.3215e-06 -3.54593e-06 0)
(4.58642e-06 -3.42975e-06 0)
(4.85179e-06 -3.31386e-06 0)
(5.11732e-06 -3.19823e-06 0)
(5.38266e-06 -3.08276e-06 0)
(5.6477e-06 -2.96731e-06 0)
(5.91248e-06 -2.8517e-06 0)
(6.17682e-06 -2.73574e-06 0)
(6.44066e-06 -2.61927e-06 0)
(6.70395e-06 -2.50218e-06 0)
(6.9668e-06 -2.38434e-06 0)
(7.2295e-06 -2.26587e-06 0)
(7.49178e-06 -2.14693e-06 0)
(7.75398e-06 -2.02777e-06 0)
(2.66869e-06 -4.34174e-06 0)
(2.9201e-06 -4.23147e-06 0)
(3.17448e-06 -4.11892e-06 0)
(3.4312e-06 -4.00471e-06 0)
(3.69006e-06 -3.88949e-06 0)
(3.95074e-06 -3.77372e-06 0)
(4.21285e-06 -3.65776e-06 0)
(4.47593e-06 -3.54182e-06 0)
(4.73963e-06 -3.42601e-06 0)
(5.00369e-06 -3.31035e-06 0)
(5.26785e-06 -3.19478e-06 0)
(5.53202e-06 -3.07915e-06 0)
(5.79602e-06 -2.96333e-06 0)
(6.05953e-06 -2.84715e-06 0)
(6.32275e-06 -2.73047e-06 0)
(6.58575e-06 -2.61319e-06 0)
(6.84831e-06 -2.49523e-06 0)
(7.11074e-06 -2.37675e-06 0)
(7.37296e-06 -2.25787e-06 0)
(7.63509e-06 -2.13892e-06 0)
(2.5732e-06 -4.44557e-06 0)
(2.82068e-06 -4.33684e-06 0)
(3.07167e-06 -4.22568e-06 0)
(3.3256e-06 -4.11263e-06 0)
(3.58226e-06 -3.9984e-06 0)
(3.84122e-06 -3.88345e-06 0)
(4.10187e-06 -3.7681e-06 0)
(4.36362e-06 -3.65259e-06 0)
(4.62628e-06 -3.53707e-06 0)
(4.88962e-06 -3.42158e-06 0)
(5.15311e-06 -3.30606e-06 0)
(5.41649e-06 -3.19041e-06 0)
(5.67983e-06 -3.0745e-06 0)
(5.94287e-06 -2.95821e-06 0)
(6.20555e-06 -2.84143e-06 0)
(6.46807e-06 -2.72403e-06 0)
(6.73032e-06 -2.6061e-06 0)
(6.99246e-06 -2.48754e-06 0)
(7.25457e-06 -2.36869e-06 0)
(7.51647e-06 -2.24976e-06 0)
(1.89539e-07 -3.81305e-06 0)
(5.71142e-07 -3.7573e-06 0)
(9.60371e-07 -3.64772e-06 0)
(1.36144e-06 -3.48907e-06 0)
(1.77787e-06 -3.28714e-06 0)
(2.21189e-06 -3.0497e-06 0)
(2.66435e-06 -2.78529e-06 0)
(3.13452e-06 -2.50297e-06 0)
(3.62067e-06 -2.2119e-06 0)
(4.11922e-06 -1.9194e-06 0)
(1.84527e-07 -3.87565e-06 0)
(5.55689e-07 -3.8248e-06 0)
(9.33174e-07 -3.72469e-06 0)
(1.32048e-06 -3.57946e-06 0)
(1.72055e-06 -3.394e-06 0)
(2.13531e-06 -3.17488e-06 0)
(2.56542e-06 -2.92942e-06 0)
(3.01023e-06 -2.66541e-06 0)
(3.46724e-06 -2.3913e-06 0)
(3.93404e-06 -2.11295e-06 0)
(1.80068e-07 -3.94009e-06 0)
(5.41913e-07 -3.89369e-06 0)
(9.08832e-07 -3.80215e-06 0)
(1.28366e-06 -3.6692e-06 0)
(1.6688e-06 -3.499e-06 0)
(2.06585e-06 -3.29719e-06 0)
(2.47544e-06 -3.07008e-06 0)
(2.8975e-06 -2.82417e-06 0)
(3.33008e-06 -2.56692e-06 0)
(3.77188e-06 -2.30177e-06 0)
(1.76029e-07 -4.00636e-06 0)
(5.29532e-07 -3.96373e-06 0)
(8.87175e-07 -3.87948e-06 0)
(1.2513e-06 -3.75697e-06 0)
(1.62387e-06 -3.59984e-06 0)
(2.00614e-06 -3.41293e-06 0)
(2.39858e-06 -3.20194e-06 0)
(2.80108e-06 -2.97251e-06 0)
(3.21199e-06 -2.73166e-06 0)
(3.6302e-06 -2.48183e-06 0)
(1.72279e-07 -4.07435e-06 0)
(5.17995e-07 -4.03508e-06 0)
(8.67119e-07 -3.95734e-06 0)
(1.22152e-06 -3.84417e-06 0)
(1.58282e-06 -3.69884e-06 0)
(1.95204e-06 -3.52556e-06 0)
(2.32958e-06 -3.32942e-06 0)
(2.71536e-06 -3.11527e-06 0)
(3.10817e-06 -2.88945e-06 0)
(3.50617e-06 -2.65411e-06 0)
(1.68782e-07 -4.14394e-06 0)
(5.07234e-07 -4.10755e-06 0)
(8.48533e-07 -4.03549e-06 0)
(1.19416e-06 -3.93044e-06 0)
(1.54547e-06 -3.79543e-06 0)
(1.90327e-06 -3.63418e-06 0)
(2.26784e-06 -3.45133e-06 0)
(2.63895e-06 -3.25121e-06 0)
(3.01597e-06 -3.0395e-06 0)
(3.39639e-06 -2.81844e-06 0)
(1.65394e-07 -4.21502e-06 0)
(4.96928e-07 -4.18117e-06 0)
(8.30829e-07 -4.11419e-06 0)
(1.16831e-06 -4.01637e-06 0)
(1.51052e-06 -3.8906e-06 0)
(1.8581e-06 -3.74019e-06 0)
(2.21128e-06 -3.56935e-06 0)
(2.56965e-06 -3.38198e-06 0)
(2.93302e-06 -3.18309e-06 0)
(3.29834e-06 -2.97527e-06 0)
(1.62101e-07 -4.2874e-06 0)
(4.86971e-07 -4.25577e-06 0)
(8.13808e-07 -4.19329e-06 0)
(1.14365e-06 -4.10187e-06 0)
(1.47752e-06 -3.98428e-06 0)
(1.81582e-06 -3.84357e-06 0)
(2.15882e-06 -3.68351e-06 0)
(2.50593e-06 -3.50773e-06 0)
(2.85731e-06 -3.32062e-06 0)
(3.20966e-06 -3.12506e-06 0)
(1.58892e-07 -4.36095e-06 0)
(4.77194e-07 -4.3313e-06 0)
(7.97164e-07 -4.27283e-06 0)
(1.11973e-06 -4.18714e-06 0)
(1.44575e-06 -4.0769e-06 0)
(1.77556e-06 -3.94489e-06 0)
(2.10937e-06 -3.79455e-06 0)
(2.44646e-06 -3.62921e-06 0)
(2.78724e-06 -3.45282e-06 0)
(3.12835e-06 -3.26846e-06 0)
(1.55704e-07 -4.43549e-06 0)
(4.67466e-07 -4.40756e-06 0)
(7.807e-07 -4.35267e-06 0)
(1.09624e-06 -4.27214e-06 0)
(1.41481e-06 -4.16849e-06 0)
(1.73668e-06 -4.0443e-06 0)
(2.06205e-06 -3.9027e-06 0)
(2.39012e-06 -3.74684e-06 0)
(2.7214e-06 -3.58022e-06 0)
(3.05267e-06 -3.40606e-06 0)
(1.52457e-07 -4.51081e-06 0)
(4.57662e-07 -4.48444e-06 0)
(7.64215e-07 -4.43276e-06 0)
(1.07287e-06 -4.35691e-06 0)
(1.38424e-06 -4.25921e-06 0)
(1.69857e-06 -4.14205e-06 0)
(2.01607e-06 -4.00835e-06 0)
(2.33588e-06 -3.86109e-06 0)
(2.65855e-06 -3.70336e-06 0)
(2.98109e-06 -3.53842e-06 0)
(1.49131e-07 -4.58669e-06 0)
(4.47716e-07 -4.56173e-06 0)
(7.47557e-07 -4.51296e-06 0)
(1.04933e-06 -4.44135e-06 0)
(1.35364e-06 -4.34903e-06 0)
(1.66069e-06 -4.23825e-06 0)
(1.9707e-06 -4.11171e-06 0)
(2.28283e-06 -3.97226e-06 0)
(2.59757e-06 -3.82259e-06 0)
(2.91227e-06 -3.66596e-06 0)
(1.45728e-07 -4.66291e-06 0)
(4.37538e-07 -4.63928e-06 0)
(7.30532e-07 -4.59316e-06 0)
(1.02534e-06 -4.52541e-06 0)
(1.32261e-06 -4.43799e-06 0)
(1.62252e-06 -4.33301e-06 0)
(1.92529e-06 -4.213e-06 0)
(2.23013e-06 -4.0806e-06 0)
(2.53747e-06 -3.93826e-06 0)
(2.84499e-06 -3.78918e-06 0)
(1.4222e-07 -4.73925e-06 0)
(4.26992e-07 -4.71685e-06 0)
(7.12908e-07 -4.67314e-06 0)
(1.0006e-06 -4.60892e-06 0)
(1.29074e-06 -4.52598e-06 0)
(1.58353e-06 -4.42632e-06 0)
(1.87917e-06 -4.31227e-06 0)
(2.17696e-06 -4.18629e-06 0)
(2.47727e-06 -4.05066e-06 0)
(2.7781e-06 -3.90844e-06 0)
(1.38537e-07 -4.81551e-06 0)
(4.15908e-07 -4.79426e-06 0)
(6.94433e-07 -4.75276e-06 0)
(9.74765e-07 -4.6918e-06 0)
(1.2576e-06 -4.613e-06 0)
(1.54316e-06 -4.51825e-06 0)
(1.83165e-06 -4.40964e-06 0)
(2.1225e-06 -4.28953e-06 0)
(2.41601e-06 -4.16009e-06 0)
(2.71047e-06 -4.02408e-06 0)
(1.34613e-07 -4.89127e-06 0)
(4.04134e-07 -4.87112e-06 0)
(6.74867e-07 -4.83168e-06 0)
(9.4749e-07 -4.77376e-06 0)
(1.22271e-06 -4.69878e-06 0)
(1.50082e-06 -4.60855e-06 0)
(1.78204e-06 -4.50499e-06 0)
(2.06594e-06 -4.39035e-06 0)
(2.35273e-06 -4.2666e-06 0)
(2.64101e-06 -4.13629e-06 0)
(1.30393e-07 -4.96643e-06 0)
(3.91513e-07 -4.94735e-06 0)
(6.53928e-07 -4.90983e-06 0)
(9.18361e-07 -4.85473e-06 0)
(1.18555e-06 -4.78337e-06 0)
(1.45584e-06 -4.69739e-06 0)
(1.72955e-06 -4.59856e-06 0)
(2.00633e-06 -4.48906e-06 0)
(2.28636e-06 -4.37054e-06 0)
(2.56846e-06 -4.24555e-06 0)
(1.25833e-07 -5.04017e-06 0)
(3.77888e-07 -5.02208e-06 0)
(6.31334e-07 -4.98641e-06 0)
(8.86964e-07 -4.93401e-06 0)
(1.14556e-06 -4.86607e-06 0)
(1.40757e-06 -4.78412e-06 0)
(1.67335e-06 -4.68983e-06 0)
(1.94268e-06 -4.58515e-06 0)
(2.21569e-06 -4.47164e-06 0)
(2.49155e-06 -4.35163e-06 0)
(1.20853e-07 -5.11288e-06 0)
(3.62998e-07 -5.09575e-06 0)
(6.0664e-07 -5.06187e-06 0)
(8.52665e-07 -5.01207e-06 0)
(1.10193e-06 -4.94744e-06 0)
(1.35499e-06 -4.8694e-06 0)
(1.61226e-06 -4.77948e-06 0)
(1.87365e-06 -4.67942e-06 0)
(2.13929e-06 -4.57074e-06 0)
(2.40865e-06 -4.45548e-06 0)
(1.15413e-07 -5.18232e-06 0)
(3.4672e-07 -5.16608e-06 0)
(5.79627e-07 -5.13399e-06 0)
(8.15159e-07 -5.08678e-06 0)
(1.05426e-06 -5.02545e-06 0)
(1.29759e-06 -4.95131e-06 0)
(1.54561e-06 -4.86575e-06 0)
(1.7984e-06 -4.77034e-06 0)
(2.05621e-06 -4.66652e-06 0)
(2.31875e-06 -4.55607e-06 0)
)


// ************************************************************************* //
