/*--------------------------------*- C++ -*----------------------------------*\
| =========                 |                                                 |
| \\      /  F ield         | foam-extend: Open Source CFD                    |
|  \\    /   O peration     | Version:     4.1                                |
|   \\  /    A nd           | Web:         http://www.foam-extend.org         |
|    \\/     M anipulation  |                                                 |
\*---------------------------------------------------------------------------*/
FoamFile
{
    version     2.0;
    format      ascii;
    class       vectorField;
    location    "9";
    object      solidsCellD_iteration10;
}
// * * * * * * * * * * * * * * * * * * * * * * * * * * * * * * * * * * * * * //


1000
(
(4.68783e-06 -1.99928e-06 0)
(4.42162e-06 -1.86002e-06 0)
(4.25131e-06 -1.77148e-06 0)
(4.15325e-06 -1.72985e-06 0)
(4.10496e-06 -1.71503e-06 0)
(4.09303e-06 -1.72092e-06 0)
(4.10781e-06 -1.74029e-06 0)
(4.14269e-06 -1.76974e-06 0)
(4.19266e-06 -1.80595e-06 0)
(4.25419e-06 -1.84696e-06 0)
(4.23844e-06 -2.18379e-06 0)
(3.95496e-06 -2.08663e-06 0)
(3.77377e-06 -2.0247e-06 0)
(3.66772e-06 -2.00118e-06 0)
(3.61321e-06 -1.99837e-06 0)
(3.59565e-06 -2.01274e-06 0)
(3.60508e-06 -2.03819e-06 0)
(3.63438e-06 -2.07214e-06 0)
(3.67836e-06 -2.11209e-06 0)
(3.7328e-06 -2.15539e-06 0)
(3.77159e-06 -2.35866e-06 0)
(3.48199e-06 -2.30857e-06 0)
(3.29702e-06 -2.27643e-06 0)
(3.18751e-06 -2.27289e-06 0)
(3.12965e-06 -2.28315e-06 0)
(3.10825e-06 -2.30656e-06 0)
(3.1133e-06 -2.33831e-06 0)
(3.13766e-06 -2.37674e-06 0)
(3.17605e-06 -2.42024e-06 0)
(3.22438e-06 -2.46596e-06 0)
(3.29076e-06 -2.5208e-06 0)
(3.00719e-06 -2.5201e-06 0)
(2.82613e-06 -2.51923e-06 0)
(2.71798e-06 -2.53653e-06 0)
(2.65976e-06 -2.56037e-06 0)
(2.63636e-06 -2.59306e-06 0)
(2.63808e-06 -2.63114e-06 0)
(2.65799e-06 -2.67404e-06 0)
(2.69114e-06 -2.72094e-06 0)
(2.73335e-06 -2.76924e-06 0)
(2.79927e-06 -2.66703e-06 0)
(2.53375e-06 -2.71528e-06 0)
(2.3643e-06 -2.74541e-06 0)
(2.2625e-06 -2.7833e-06 0)
(2.20695e-06 -2.82048e-06 0)
(2.18333e-06 -2.86227e-06 0)
(2.18273e-06 -2.90649e-06 0)
(2.19868e-06 -2.95375e-06 0)
(2.22675e-06 -3.00388e-06 0)
(2.26279e-06 -3.05487e-06 0)
(2.29948e-06 -2.79436e-06 0)
(2.06379e-06 -2.8884e-06 0)
(1.91344e-06 -2.94756e-06 0)
(1.82266e-06 -3.00473e-06 0)
(1.77261e-06 -3.05437e-06 0)
(1.75049e-06 -3.1046e-06 0)
(1.74859e-06 -3.15448e-06 0)
(1.76104e-06 -3.20578e-06 0)
(1.78407e-06 -3.25887e-06 0)
(1.81374e-06 -3.3125e-06 0)
(1.79386e-06 -2.89993e-06 0)
(1.59841e-06 -3.0341e-06 0)
(1.47378e-06 -3.11873e-06 0)
(1.39824e-06 -3.19277e-06 0)
(1.35632e-06 -3.25328e-06 0)
(1.33734e-06 -3.3109e-06 0)
(1.33496e-06 -3.3657e-06 0)
(1.34424e-06 -3.42056e-06 0)
(1.36218e-06 -3.47623e-06 0)
(1.38535e-06 -3.53224e-06 0)
(1.28411e-06 -2.98136e-06 0)
(1.13769e-06 -3.14779e-06 0)
(1.04438e-06 -3.25284e-06 0)
(9.87724e-07 -3.34037e-06 0)
(9.5614e-07 -3.40965e-06 0)
(9.41594e-07 -3.4732e-06 0)
(9.39366e-07 -3.53199e-06 0)
(9.45741e-07 -3.58972e-06 0)
(9.58564e-07 -3.64746e-06 0)
(9.75152e-07 -3.70545e-06 0)
(7.71627e-07 -3.03673e-06 0)
(6.80986e-07 -3.22568e-06 0)
(6.23248e-07 -3.345e-06 0)
(5.88092e-07 -3.44204e-06 0)
(5.68394e-07 -3.51744e-06 0)
(5.59217e-07 -3.58511e-06 0)
(5.5768e-07 -3.64669e-06 0)
(5.61429e-07 -3.70649e-06 0)
(5.69115e-07 -3.7657e-06 0)
(5.79067e-07 -3.82512e-06 0)
(2.57701e-07 -3.06462e-06 0)
(2.26996e-07 -3.26521e-06 0)
(2.07355e-07 -3.39191e-06 0)
(1.95397e-07 -3.49382e-06 0)
(1.88724e-07 -3.57238e-06 0)
(1.85563e-07 -3.64222e-06 0)
(1.84945e-07 -3.70523e-06 0)
(1.86152e-07 -3.76606e-06 0)
(1.8872e-07 -3.82603e-06 0)
(1.92028e-07 -3.88621e-06 0)
(7.31967e-06 -9.12673e-08 0)
(7.38615e-06 -6.57658e-08 0)
(7.42606e-06 -4.95821e-08 0)
(7.46899e-06 -4.00426e-08 0)
(7.51564e-06 -3.47175e-08 0)
(7.57291e-06 -3.22514e-08 0)
(7.64074e-06 -3.17064e-08 0)
(7.71992e-06 -3.23644e-08 0)
(7.81028e-06 -3.39761e-08 0)
(7.91058e-06 -3.59424e-08 0)
(7.26534e-06 -2.73807e-07 0)
(7.32077e-06 -1.9879e-07 0)
(7.35376e-06 -1.51241e-07 0)
(7.39204e-06 -1.23364e-07 0)
(7.43561e-06 -1.07927e-07 0)
(7.49068e-06 -1.00737e-07 0)
(7.55695e-06 -9.92378e-08 0)
(7.63487e-06 -1.0146e-07 0)
(7.72413e-06 -1.06343e-07 0)
(7.82328e-06 -1.12161e-07 0)
(7.15687e-06 -4.57869e-07 0)
(7.19121e-06 -3.37456e-07 0)
(7.21086e-06 -2.61197e-07 0)
(7.24028e-06 -2.1648e-07 0)
(7.27802e-06 -1.91863e-07 0)
(7.32898e-06 -1.80682e-07 0)
(7.39218e-06 -1.7859e-07 0)
(7.46765e-06 -1.82451e-07 0)
(7.55481e-06 -1.90559e-07 0)
(7.65172e-06 -2.00287e-07 0)
(6.99619e-06 -6.44274e-07 0)
(7.00053e-06 -4.84944e-07 0)
(7.00116e-06 -3.84138e-07 0)
(7.018e-06 -3.25289e-07 0)
(7.04738e-06 -2.93037e-07 0)
(7.09247e-06 -2.78689e-07 0)
(7.15137e-06 -2.76402e-07 0)
(7.22336e-06 -2.82137e-07 0)
(7.30756e-06 -2.93496e-07 0)
(7.40134e-06 -3.07174e-07 0)
(6.7858e-06 -8.33492e-07 0)
(6.75308e-06 -6.43931e-07 0)
(6.73018e-06 -5.24006e-07 0)
(6.73143e-06 -4.54473e-07 0)
(6.75048e-06 -4.16689e-07 0)
(6.78826e-06 -4.00431e-07 0)
(6.84179e-06 -3.98629e-07 0)
(6.90942e-06 -4.06554e-07 0)
(6.98993e-06 -4.21163e-07 0)
(7.07993e-06 -4.38763e-07 0)
(6.52887e-06 -1.02563e-06 0)
(6.4542e-06 -8.16162e-07 0)
(6.40475e-06 -6.83582e-07 0)
(6.38837e-06 -6.07438e-07 0)
(6.3957e-06 -5.66629e-07 0)
(6.42513e-06 -5.49961e-07 0)
(6.47254e-06 -5.49426e-07 0)
(6.5352e-06 -5.59864e-07 0)
(6.61144e-06 -5.77729e-07 0)
(6.69717e-06 -5.99226e-07 0)
(6.22925e-06 -1.22032e-06 0)
(6.11023e-06 -1.00235e-06 0)
(6.03274e-06 -8.64296e-07 0)
(5.99772e-06 -7.86062e-07 0)
(5.99262e-06 -7.44955e-07 0)
(6.01317e-06 -7.29519e-07 0)
(6.05399e-06 -7.31133e-07 0)
(6.1113e-06 -7.44458e-07 0)
(6.18286e-06 -7.65643e-07 0)
(6.26408e-06 -7.90975e-07 0)
(5.89093e-06 -1.41664e-06 0)
(5.72798e-06 -1.20201e-06 0)
(5.62271e-06 -1.06596e-06 0)
(5.56913e-06 -9.90337e-07 0)
(5.55162e-06 -9.51784e-07 0)
(5.56318e-06 -9.39301e-07 0)
(5.59721e-06 -9.43998e-07 0)
(5.64896e-06 -9.60681e-07 0)
(5.71554e-06 -9.85276e-07 0)
(5.79211e-06 -1.01445e-06 0)
(5.51832e-06 -1.61324e-06 0)
(5.31454e-06 -1.4135e-06 0)
(5.18349e-06 -1.28682e-06 0)
(5.11253e-06 -1.21844e-06 0)
(5.08328e-06 -1.18528e-06 0)
(5.08616e-06 -1.17741e-06 0)
(5.11342e-06 -1.18616e-06 0)
(5.15956e-06 -1.20661e-06 0)
(5.22091e-06 -1.2349e-06 0)
(5.29287e-06 -1.2677e-06 0)
(5.11585e-06 -1.80824e-06 0)
(4.87692e-06 -1.63409e-06 0)
(4.72369e-06 -1.52356e-06 0)
(4.63758e-06 -1.46673e-06 0)
(4.59787e-06 -1.44161e-06 0)
(4.59281e-06 -1.43995e-06 0)
(4.61371e-06 -1.45363e-06 0)
(4.6543e-06 -1.47848e-06 0)
(4.71046e-06 -1.51064e-06 0)
(4.7775e-06 -1.54845e-06 0)
(8.02112e-06 -3.78719e-08 0)
(8.14165e-06 -3.82534e-08 0)
(8.26986e-06 -3.87198e-08 0)
(8.4053e-06 -3.90406e-08 0)
(8.54712e-06 -3.91786e-08 0)
(8.6948e-06 -3.9118e-08 0)
(8.84764e-06 -3.87985e-08 0)
(9.00506e-06 -3.82479e-08 0)
(9.16657e-06 -3.74658e-08 0)
(9.33167e-06 -3.64102e-08 0)
(9.49986e-06 -3.50406e-08 0)
(9.67061e-06 -3.33402e-08 0)
(9.84346e-06 -3.12894e-08 0)
(1.00179e-05 -2.88673e-08 0)
(1.01934e-05 -2.60344e-08 0)
(1.03694e-05 -2.27299e-08 0)
(1.05455e-05 -1.88753e-08 0)
(1.07204e-05 -1.43964e-08 0)
(1.08946e-05 -9.18791e-09 0)
(1.1065e-05 -3.21256e-09 0)
(7.93771e-06 -1.17521e-07 0)
(8.06522e-06 -1.18139e-07 0)
(8.19968e-06 -1.19055e-07 0)
(8.34056e-06 -1.19615e-07 0)
(8.48725e-06 -1.19645e-07 0)
(8.63918e-06 -1.19163e-07 0)
(8.79586e-06 -1.18038e-07 0)
(8.95677e-06 -1.16266e-07 0)
(9.12147e-06 -1.13751e-07 0)
(9.28947e-06 -1.10402e-07 0)
(9.4603e-06 -1.06165e-07 0)
(9.63351e-06 -1.01006e-07 0)
(9.80869e-06 -9.48386e-08 0)
(9.98529e-06 -8.75504e-08 0)
(1.01629e-05 -7.9002e-08 0)
(1.03409e-05 -6.90361e-08 0)
(1.05188e-05 -5.74466e-08 0)
(1.06956e-05 -4.40226e-08 0)
(1.08716e-05 -2.84362e-08 0)
(1.10438e-05 -1.05525e-08 0)
(7.77373e-06 -2.07927e-07 0)
(7.91498e-06 -2.07233e-07 0)
(8.0617e-06 -2.07174e-07 0)
(8.21316e-06 -2.06898e-07 0)
(8.36931e-06 -2.05968e-07 0)
(8.52967e-06 -2.04402e-07 0)
(8.69396e-06 -2.01892e-07 0)
(8.86168e-06 -1.98394e-07 0)
(9.03257e-06 -1.93734e-07 0)
(9.20621e-06 -1.878e-07 0)
(9.38227e-06 -1.80502e-07 0)
(9.56034e-06 -1.71741e-07 0)
(9.74003e-06 -1.6133e-07 0)
(9.92087e-06 -1.49069e-07 0)
(1.01025e-05 -1.34732e-07 0)
(1.02843e-05 -1.18067e-07 0)
(1.0466e-05 -9.87338e-08 0)
(1.06464e-05 -7.63794e-08 0)
(1.08259e-05 -5.04515e-08 0)
(1.10017e-05 -2.0704e-08 0)
(7.53414e-06 -3.15203e-07 0)
(7.69504e-06 -3.10755e-07 0)
(7.85949e-06 -3.07493e-07 0)
(8.02636e-06 -3.04691e-07 0)
(8.19636e-06 -3.01391e-07 0)
(8.36896e-06 -2.9762e-07 0)
(8.5443e-06 -2.92803e-07 0)
(8.722e-06 -2.86856e-07 0)
(8.90201e-06 -2.7949e-07 0)
(9.08401e-06 -2.7054e-07 0)
(9.26777e-06 -2.5983e-07 0)
(9.45295e-06 -2.47168e-07 0)
(9.63928e-06 -2.32282e-07 0)
(9.82636e-06 -2.14898e-07 0)
(1.00139e-05 -1.94707e-07 0)
(1.02013e-05 -1.71329e-07 0)
(1.03884e-05 -1.44278e-07 0)
(1.05742e-05 -1.13044e-07 0)
(1.07588e-05 -7.68338e-08 0)
(1.09398e-05 -3.53156e-08 0)
(7.22616e-06 -4.44757e-07 0)
(7.41176e-06 -4.33431e-07 0)
(7.5987e-06 -4.24139e-07 0)
(7.78509e-06 -4.16641e-07 0)
(7.97274e-06 -4.09127e-07 0)
(8.16103e-06 -4.01655e-07 0)
(8.3506e-06 -3.93316e-07 0)
(8.54116e-06 -3.83958e-07 0)
(8.7329e-06 -3.73111e-07 0)
(8.92562e-06 -3.60511e-07 0)
(9.11928e-06 -3.45886e-07 0)
(9.31368e-06 -3.28946e-07 0)
(9.50862e-06 -3.09316e-07 0)
(9.7038e-06 -2.86623e-07 0)
(9.89901e-06 -2.60452e-07 0)
(1.00937e-05 -2.30294e-07 0)
(1.02879e-05 -1.95516e-07 0)
(1.04804e-05 -1.55456e-07 0)
(1.06718e-05 -1.09063e-07 0)
(1.08595e-05 -5.59176e-08 0)
(6.85853e-06 -6.00482e-07 0)
(7.07253e-06 -5.78661e-07 0)
(7.28578e-06 -5.59973e-07 0)
(7.49519e-06 -5.4512e-07 0)
(7.70382e-06 -5.31196e-07 0)
(7.91084e-06 -5.1823e-07 0)
(8.11734e-06 -5.04919e-07 0)
(8.3233e-06 -4.90941e-07 0)
(8.52911e-06 -4.75672e-07 0)
(8.73476e-06 -4.58701e-07 0)
(8.94037e-06 -4.39617e-07 0)
(9.14586e-06 -4.1799e-07 0)
(9.35115e-06 -3.9332e-07 0)
(9.55605e-06 -3.65125e-07 0)
(9.76045e-06 -3.32855e-07 0)
(9.96395e-06 -2.95883e-07 0)
(1.01665e-05 -2.53413e-07 0)
(1.03673e-05 -2.04638e-07 0)
(1.05667e-05 -1.48247e-07 0)
(1.07624e-05 -8.36719e-08 0)
(6.44154e-06 -7.84806e-07 0)
(6.68641e-06 -7.4879e-07 0)
(6.9287e-06 -7.17349e-07 0)
(7.16372e-06 -6.92295e-07 0)
(7.39574e-06 -6.69653e-07 0)
(7.62385e-06 -6.49204e-07 0)
(7.84955e-06 -6.29368e-07 0)
(8.073e-06 -6.0949e-07 0)
(8.29485e-06 -5.88769e-07 0)
(8.51529e-06 -5.66596e-07 0)
(8.73457e-06 -5.4238e-07 0)
(8.95276e-06 -5.15528e-07 0)
(9.16991e-06 -4.8541e-07 0)
(9.38596e-06 -4.51426e-07 0)
(9.60091e-06 -4.12889e-07 0)
(9.81448e-06 -3.6904e-07 0)
(1.00268e-05 -3.18912e-07 0)
(1.02369e-05 -2.61529e-07 0)
(1.04456e-05 -1.95331e-07 0)
(1.06505e-05 -1.19591e-07 0)
(5.98552e-06 -9.98242e-07 0)
(6.26223e-06 -9.43992e-07 0)
(6.53498e-06 -8.96461e-07 0)
(6.79743e-06 -8.58035e-07 0)
(7.05469e-06 -8.24236e-07 0)
(7.3058e-06 -7.94182e-07 0)
(7.55259e-06 -7.66132e-07 0)
(7.79537e-06 -7.39e-07 0)
(8.03495e-06 -7.11766e-07 0)
(8.27174e-06 -6.83561e-07 0)
(8.50614e-06 -6.53584e-07 0)
(8.73837e-06 -6.21054e-07 0)
(8.96863e-06 -5.85197e-07 0)
(9.19703e-06 -5.45266e-07 0)
(9.42367e-06 -5.00422e-07 0)
(9.6484e-06 -4.49754e-07 0)
(9.87137e-06 -3.9211e-07 0)
(1.00919e-05 -3.26338e-07 0)
(1.03108e-05 -2.50627e-07 0)
(1.05259e-05 -1.64087e-07 0)
(5.50162e-06 -1.24038e-06 0)
(5.81027e-06 -1.16449e-06 0)
(6.11352e-06 -1.09872e-06 0)
(6.40436e-06 -1.04421e-06 0)
(6.68766e-06 -9.97119e-07 0)
(6.96293e-06 -9.55537e-07 0)
(7.23188e-06 -9.17606e-07 0)
(7.49515e-06 -8.81787e-07 0)
(7.75364e-06 -8.46815e-07 0)
(8.00793e-06 -8.11544e-07 0)
(8.25856e-06 -7.74955e-07 0)
(8.50592e-06 -7.3608e-07 0)
(8.75036e-06 -6.93984e-07 0)
(8.99211e-06 -6.47755e-07 0)
(9.23139e-06 -5.96381e-07 0)
(9.46816e-06 -5.38784e-07 0)
(9.70268e-06 -4.7363e-07 0)
(9.93443e-06 -3.99589e-07 0)
(1.01643e-05 -3.14636e-07 0)
(1.03904e-05 -2.17733e-07 0)
(4.99896e-06 -1.50691e-06 0)
(5.33961e-06 -1.40438e-06 0)
(5.67208e-06 -1.31816e-06 0)
(5.99201e-06 -1.24499e-06 0)
(6.30193e-06 -1.18241e-06 0)
(6.60238e-06 -1.12755e-06 0)
(6.89452e-06 -1.0783e-06 0)
(7.17928e-06 -1.03274e-06 0)
(7.45761e-06 -9.89257e-07 0)
(7.73027e-06 -9.46391e-07 0)
(7.99793e-06 -9.02857e-07 0)
(8.26115e-06 -8.57467e-07 0)
(8.52043e-06 -8.09086e-07 0)
(8.77612e-06 -7.56614e-07 0)
(9.02856e-06 -6.98861e-07 0)
(9.27785e-06 -6.34581e-07 0)
(9.52436e-06 -5.62266e-07 0)
(9.76778e-06 -4.804e-07 0)
(1.0009e-05 -3.8676e-07 0)
(1.02468e-05 -2.8011e-07 0)
(4.62678e-06 -1.76166e-06 0)
(4.9884e-06 -1.63773e-06 0)
(5.33809e-06 -1.53633e-06 0)
(5.67571e-06 -1.44842e-06 0)
(6.00225e-06 -1.37232e-06 0)
(6.31857e-06 -1.30509e-06 0)
(6.62571e-06 -1.24455e-06 0)
(6.92458e-06 -1.18872e-06 0)
(7.21609e-06 -1.13585e-06 0)
(7.501e-06 -1.08435e-06 0)
(7.78004e-06 -1.03281e-06 0)
(8.0538e-06 -9.79919e-07 0)
(8.32285e-06 -9.24409e-07 0)
(8.58763e-06 -8.65055e-07 0)
(8.84852e-06 -8.00561e-07 0)
(9.10577e-06 -7.2957e-07 0)
(9.35982e-06 -6.50517e-07 0)
(9.6106e-06 -5.61784e-07 0)
(9.85906e-06 -4.61119e-07 0)
(1.01043e-05 -3.47203e-07 0)
(4.41347e-06 -1.96818e-06 0)
(4.77752e-06 -1.8395e-06 0)
(5.13009e-06 -1.72961e-06 0)
(5.47218e-06 -1.63268e-06 0)
(5.8039e-06 -1.54713e-06 0)
(6.12582e-06 -1.4705e-06 0)
(6.43866e-06 -1.40078e-06 0)
(6.74316e-06 -1.33609e-06 0)
(7.04005e-06 -1.27474e-06 0)
(7.33001e-06 -1.21517e-06 0)
(7.61371e-06 -1.15596e-06 0)
(7.89174e-06 -1.09578e-06 0)
(8.16464e-06 -1.03335e-06 0)
(8.43288e-06 -9.67404e-07 0)
(8.69685e-06 -8.96635e-07 0)
(8.95693e-06 -8.19666e-07 0)
(9.21356e-06 -7.34984e-07 0)
(9.46689e-06 -6.40992e-07 0)
(9.71783e-06 -5.35548e-07 0)
(9.96587e-06 -4.17385e-07 0)
(4.23056e-06 -2.16666e-06 0)
(4.59111e-06 -2.03497e-06 0)
(4.9431e-06 -1.91954e-06 0)
(5.28594e-06 -1.81571e-06 0)
(5.61964e-06 -1.72235e-06 0)
(5.94426e-06 -1.63752e-06 0)
(6.26034e-06 -1.55944e-06 0)
(6.5683e-06 -1.48646e-06 0)
(6.86873e-06 -1.417e-06 0)
(7.16218e-06 -1.3496e-06 0)
(7.44925e-06 -1.28288e-06 0)
(7.73047e-06 -1.21553e-06 0)
(8.00634e-06 -1.14626e-06 0)
(8.27732e-06 -1.07382e-06 0)
(8.54384e-06 -9.96924e-07 0)
(8.80631e-06 -9.14202e-07 0)
(9.06522e-06 -8.24211e-07 0)
(9.32086e-06 -7.25423e-07 0)
(9.5741e-06 -6.15831e-07 0)
(9.82479e-06 -4.94265e-07 0)
(4.069e-06 -2.35802e-06 0)
(4.4244e-06 -2.2248e-06 0)
(4.77336e-06 -2.10518e-06 0)
(5.11452e-06 -1.99569e-06 0)
(5.44783e-06 -1.89562e-06 0)
(5.77299e-06 -1.8035e-06 0)
(6.09031e-06 -1.71786e-06 0)
(6.39998e-06 -1.63723e-06 0)
(6.70243e-06 -1.56019e-06 0)
(6.99808e-06 -1.48539e-06 0)
(7.28742e-06 -1.41152e-06 0)
(7.57088e-06 -1.33732e-06 0)
(7.84896e-06 -1.26153e-06 0)
(8.12207e-06 -1.18293e-06 0)
(8.39063e-06 -1.10026e-06 0)
(8.65512e-06 -1.0122e-06 0)
(8.91601e-06 -9.17406e-07 0)
(9.17371e-06 -8.14427e-07 0)
(9.42906e-06 -7.01423e-07 0)
(9.68223e-06 -5.77356e-07 0)
(3.92643e-06 -2.54133e-06 0)
(4.27522e-06 -2.40769e-06 0)
(4.61939e-06 -2.28533e-06 0)
(4.95703e-06 -2.17156e-06 0)
(5.28811e-06 -2.06608e-06 0)
(5.61205e-06 -1.96778e-06 0)
(5.92895e-06 -1.87548e-06 0)
(6.23883e-06 -1.78796e-06 0)
(6.54196e-06 -1.70398e-06 0)
(6.83863e-06 -1.6223e-06 0)
(7.12921e-06 -1.54173e-06 0)
(7.41406e-06 -1.46106e-06 0)
(7.6936e-06 -1.3791e-06 0)
(7.96824e-06 -1.29467e-06 0)
(8.23838e-06 -1.20658e-06 0)
(8.50449e-06 -1.11359e-06 0)
(8.76706e-06 -1.01443e-06 0)
(9.02657e-06 -9.07782e-07 0)
(9.28381e-06 -7.91987e-07 0)
(9.53926e-06 -6.66183e-07 0)
(3.79952e-06 -2.71674e-06 0)
(4.14094e-06 -2.58352e-06 0)
(4.47924e-06 -2.45942e-06 0)
(4.81209e-06 -2.34245e-06 0)
(5.13961e-06 -2.23261e-06 0)
(5.46095e-06 -2.1291e-06 0)
(5.77612e-06 -2.03103e-06 0)
(6.08496e-06 -1.93741e-06 0)
(6.38764e-06 -1.84717e-06 0)
(6.6843e-06 -1.75922e-06 0)
(6.97522e-06 -1.67248e-06 0)
(7.26068e-06 -1.58583e-06 0)
(7.54103e-06 -1.49813e-06 0)
(7.81665e-06 -1.40832e-06 0)
(8.08789e-06 -1.31525e-06 0)
(8.35526e-06 -1.21779e-06 0)
(8.61919e-06 -1.11476e-06 0)
(8.88025e-06 -1.00498e-06 0)
(9.13919e-06 -8.87004e-07 0)
(9.39663e-06 -7.60131e-07 0)
(3.68573e-06 -2.88448e-06 0)
(4.01936e-06 -2.75227e-06 0)
(4.35104e-06 -2.62726e-06 0)
(4.67829e-06 -2.50801e-06 0)
(5.00126e-06 -2.39475e-06 0)
(5.31899e-06 -2.28695e-06 0)
(5.6314e-06 -2.18397e-06 0)
(5.93823e-06 -2.08504e-06 0)
(6.23952e-06 -1.98925e-06 0)
(6.53532e-06 -1.89567e-06 0)
(6.82581e-06 -1.80332e-06 0)
(7.11119e-06 -1.7112e-06 0)
(7.39177e-06 -1.61826e-06 0)
(7.66785e-06 -1.52353e-06 0)
(7.93979e-06 -1.42592e-06 0)
(8.20805e-06 -1.32444e-06 0)
(8.47307e-06 -1.21802e-06 0)
(8.73542e-06 -1.1056e-06 0)
(8.99584e-06 -9.85994e-07 0)
(9.255e-06 -8.58576e-07 0)
(3.58267e-06 -3.04491e-06 0)
(3.9084e-06 -2.91411e-06 0)
(4.23304e-06 -2.7888e-06 0)
(4.55417e-06 -2.668e-06 0)
(4.87193e-06 -2.55212e-06 0)
(5.18531e-06 -2.44083e-06 0)
(5.4942e-06 -2.33373e-06 0)
(5.79825e-06 -2.23023e-06 0)
(6.0974e-06 -2.12959e-06 0)
(6.39163e-06 -2.03102e-06 0)
(6.68105e-06 -1.93367e-06 0)
(6.96578e-06 -1.83663e-06 0)
(7.24609e-06 -1.73896e-06 0)
(7.52221e-06 -1.63979e-06 0)
(7.79448e-06 -1.53814e-06 0)
(8.06333e-06 -1.43311e-06 0)
(8.32916e-06 -1.32377e-06 0)
(8.59258e-06 -1.20919e-06 0)
(8.85424e-06 -1.08841e-06 0)
(9.11488e-06 -9.60872e-07 0)
(3.48824e-06 -3.19852e-06 0)
(3.80607e-06 -3.06937e-06 0)
(4.12352e-06 -2.94421e-06 0)
(4.43823e-06 -2.82244e-06 0)
(4.75036e-06 -2.70459e-06 0)
(5.05892e-06 -2.59052e-06 0)
(5.36376e-06 -2.48001e-06 0)
(5.66446e-06 -2.37264e-06 0)
(5.96092e-06 -2.26782e-06 0)
(6.25304e-06 -2.16489e-06 0)
(6.54089e-06 -2.06313e-06 0)
(6.82451e-06 -1.96173e-06 0)
(7.10413e-06 -1.85987e-06 0)
(7.37994e-06 -1.75677e-06 0)
(7.65223e-06 -1.65155e-06 0)
(7.9214e-06 -1.54343e-06 0)
(8.18782e-06 -1.43162e-06 0)
(8.45209e-06 -1.31532e-06 0)
(8.71475e-06 -1.19373e-06 0)
(8.97664e-06 -1.06644e-06 0)
(3.40054e-06 -3.3458e-06 0)
(3.71063e-06 -3.21842e-06 0)
(4.02088e-06 -3.09371e-06 0)
(4.32906e-06 -2.97141e-06 0)
(4.63536e-06 -2.85213e-06 0)
(4.93882e-06 -2.73588e-06 0)
(5.23925e-06 -2.6226e-06 0)
(5.53623e-06 -2.51201e-06 0)
(5.82959e-06 -2.40363e-06 0)
(6.11922e-06 -2.29695e-06 0)
(6.40511e-06 -2.19137e-06 0)
(6.68728e-06 -2.08618e-06 0)
(6.96589e-06 -1.98065e-06 0)
(7.24109e-06 -1.87412e-06 0)
(7.51314e-06 -1.76581e-06 0)
(7.78241e-06 -1.65506e-06 0)
(8.04921e-06 -1.5412e-06 0)
(8.31411e-06 -1.42354e-06 0)
(8.57757e-06 -1.30147e-06 0)
(8.84049e-06 -1.17473e-06 0)
(3.31792e-06 -3.48727e-06 0)
(3.6205e-06 -3.36168e-06 0)
(3.92365e-06 -3.23763e-06 0)
(4.22534e-06 -3.11513e-06 0)
(4.52575e-06 -2.99486e-06 0)
(4.82398e-06 -2.87695e-06 0)
(5.11981e-06 -2.76145e-06 0)
(5.41283e-06 -2.6482e-06 0)
(5.70284e-06 -2.53686e-06 0)
(5.98971e-06 -2.42702e-06 0)
(6.27339e-06 -2.31818e-06 0)
(6.55384e-06 -2.20973e-06 0)
(6.83121e-06 -2.10106e-06 0)
(7.10559e-06 -1.99159e-06 0)
(7.3772e-06 -1.88065e-06 0)
(7.64637e-06 -1.76769e-06 0)
(7.91337e-06 -1.65214e-06 0)
(8.1787e-06 -1.53345e-06 0)
(8.44281e-06 -1.41116e-06 0)
(8.7065e-06 -1.28515e-06 0)
(3.2389e-06 -3.62341e-06 0)
(3.53424e-06 -3.49954e-06 0)
(3.83048e-06 -3.37628e-06 0)
(4.12582e-06 -3.25384e-06 0)
(4.42039e-06 -3.13295e-06 0)
(4.71337e-06 -3.0138e-06 0)
(5.00453e-06 -2.89657e-06 0)
(5.29349e-06 -2.7812e-06 0)
(5.58003e-06 -2.66744e-06 0)
(5.86399e-06 -2.55496e-06 0)
(6.14529e-06 -2.44339e-06 0)
(6.42389e-06 -2.3322e-06 0)
(6.69985e-06 -2.22088e-06 0)
(6.97327e-06 -2.10894e-06 0)
(7.24431e-06 -1.99582e-06 0)
(7.51324e-06 -1.88103e-06 0)
(7.78027e-06 -1.76413e-06 0)
(8.04589e-06 -1.64468e-06 0)
(8.31048e-06 -1.5224e-06 0)
(8.57477e-06 -1.3972e-06 0)
(3.16214e-06 -3.75467e-06 0)
(3.45055e-06 -3.63244e-06 0)
(3.74014e-06 -3.51004e-06 0)
(4.02931e-06 -3.38785e-06 0)
(4.31818e-06 -3.26661e-06 0)
(4.60598e-06 -3.14659e-06 0)
(4.89253e-06 -3.02806e-06 0)
(5.17743e-06 -2.91102e-06 0)
(5.46049e-06 -2.79533e-06 0)
(5.74151e-06 -2.68074e-06 0)
(6.02039e-06 -2.56694e-06 0)
(6.29704e-06 -2.45351e-06 0)
(6.57153e-06 -2.34001e-06 0)
(6.84389e-06 -2.22604e-06 0)
(7.11423e-06 -2.11113e-06 0)
(7.3828e-06 -1.99487e-06 0)
(7.64975e-06 -1.87691e-06 0)
(7.91555e-06 -1.75693e-06 0)
(8.18044e-06 -1.63482e-06 0)
(8.44517e-06 -1.51048e-06 0)
(3.08641e-06 -3.88144e-06 0)
(3.3682e-06 -3.76077e-06 0)
(3.65141e-06 -3.63925e-06 0)
(3.93465e-06 -3.51745e-06 0)
(4.21801e-06 -3.39609e-06 0)
(4.50083e-06 -3.27552e-06 0)
(4.78292e-06 -3.15608e-06 0)
(5.06389e-06 -3.0378e-06 0)
(5.34354e-06 -2.92064e-06 0)
(5.62166e-06 -2.80438e-06 0)
(5.89812e-06 -2.68881e-06 0)
(6.17284e-06 -2.57359e-06 0)
(6.44582e-06 -2.45834e-06 0)
(6.71708e-06 -2.34275e-06 0)
(6.98668e-06 -2.22639e-06 0)
(7.25481e-06 -2.10896e-06 0)
(7.5216e-06 -1.99021e-06 0)
(7.78745e-06 -1.86991e-06 0)
(8.05254e-06 -1.74801e-06 0)
(8.31755e-06 -1.62458e-06 0)
(3.01043e-06 -4.00413e-06 0)
(3.28593e-06 -3.88488e-06 0)
(3.56307e-06 -3.76427e-06 0)
(3.84067e-06 -3.64297e-06 0)
(4.11883e-06 -3.52171e-06 0)
(4.39694e-06 -3.40088e-06 0)
(4.6748e-06 -3.28085e-06 0)
(4.95203e-06 -3.16171e-06 0)
(5.22844e-06 -3.04345e-06 0)
(5.5038e-06 -2.92595e-06 0)
(5.77796e-06 -2.80905e-06 0)
(6.05082e-06 -2.69245e-06 0)
(6.32236e-06 -2.57585e-06 0)
(6.59253e-06 -2.459e-06 0)
(6.86137e-06 -2.34153e-06 0)
(7.12903e-06 -2.22321e-06 0)
(7.39562e-06 -2.10387e-06 0)
(7.66144e-06 -1.98339e-06 0)
(7.92667e-06 -1.86177e-06 0)
(8.19182e-06 -1.73918e-06 0)
(2.93299e-06 -4.12304e-06 0)
(3.2025e-06 -4.00525e-06 0)
(3.47386e-06 -3.88543e-06 0)
(3.74624e-06 -3.7647e-06 0)
(4.01957e-06 -3.64375e-06 0)
(4.29333e-06 -3.52291e-06 0)
(4.5673e-06 -3.40258e-06 0)
(4.8411e-06 -3.28294e-06 0)
(5.11451e-06 -3.16397e-06 0)
(5.38732e-06 -3.0456e-06 0)
(5.65936e-06 -2.92774e-06 0)
(5.9305e-06 -2.81015e-06 0)
(6.20067e-06 -2.69255e-06 0)
(6.4698e-06 -2.57474e-06 0)
(6.73791e-06 -2.45643e-06 0)
(7.00512e-06 -2.33746e-06 0)
(7.27148e-06 -2.21774e-06 0)
(7.53721e-06 -2.09714e-06 0)
(7.80247e-06 -1.97584e-06 0)
(8.06771e-06 -1.854e-06 0)
(2.85284e-06 -4.23864e-06 0)
(3.11651e-06 -4.12187e-06 0)
(3.38238e-06 -4.00311e-06 0)
(3.65018e-06 -3.88321e-06 0)
(3.91912e-06 -3.76268e-06 0)
(4.18903e-06 -3.64205e-06 0)
(4.45951e-06 -3.52169e-06 0)
(4.73027e-06 -3.4018e-06 0)
(5.00104e-06 -3.28243e-06 0)
(5.27162e-06 -3.16353e-06 0)
(5.5418e-06 -3.04505e-06 0)
(5.8114e-06 -2.92677e-06 0)
(6.08035e-06 -2.80847e-06 0)
(6.34855e-06 -2.68999e-06 0)
(6.616e-06 -2.57111e-06 0)
(6.8828e-06 -2.45169e-06 0)
(7.1489e-06 -2.33166e-06 0)
(7.41453e-06 -2.21101e-06 0)
(7.67975e-06 -2.09002e-06 0)
(7.94502e-06 -1.96883e-06 0)
(2.76807e-06 -4.3508e-06 0)
(3.02677e-06 -4.23522e-06 0)
(3.28814e-06 -4.11774e-06 0)
(3.55152e-06 -3.99868e-06 0)
(3.81667e-06 -3.87879e-06 0)
(4.08317e-06 -3.75857e-06 0)
(4.35069e-06 -3.63842e-06 0)
(4.61889e-06 -3.51857e-06 0)
(4.88747e-06 -3.39909e-06 0)
(5.1562e-06 -3.27995e-06 0)
(5.42482e-06 -3.16113e-06 0)
(5.69312e-06 -3.04244e-06 0)
(5.96103e-06 -2.92371e-06 0)
(6.22847e-06 -2.8048e-06 0)
(6.49536e-06 -2.68552e-06 0)
(6.76174e-06 -2.5658e-06 0)
(7.02757e-06 -2.44559e-06 0)
(7.29313e-06 -2.32494e-06 0)
(7.55835e-06 -2.20417e-06 0)
(7.8235e-06 -2.08352e-06 0)
(2.67757e-06 -4.46075e-06 0)
(2.93171e-06 -4.34656e-06 0)
(3.189e-06 -4.23007e-06 0)
(3.4488e-06 -4.11194e-06 0)
(3.71084e-06 -3.99281e-06 0)
(3.97466e-06 -3.87317e-06 0)
(4.23991e-06 -3.75343e-06 0)
(4.50621e-06 -3.63381e-06 0)
(4.77318e-06 -3.51441e-06 0)
(5.04051e-06 -3.39524e-06 0)
(5.30796e-06 -3.27629e-06 0)
(5.57533e-06 -3.15739e-06 0)
(5.84248e-06 -3.0384e-06 0)
(6.10925e-06 -2.91926e-06 0)
(6.37562e-06 -2.79973e-06 0)
(6.64167e-06 -2.67977e-06 0)
(6.90732e-06 -2.55945e-06 0)
(7.17271e-06 -2.43881e-06 0)
(7.4379e-06 -2.31816e-06 0)
(7.70301e-06 -2.1979e-06 0)
(2.58016e-06 -4.56755e-06 0)
(2.83032e-06 -4.45494e-06 0)
(3.08421e-06 -4.33989e-06 0)
(3.34122e-06 -4.22297e-06 0)
(3.60099e-06 -4.10485e-06 0)
(3.86299e-06 -3.98602e-06 0)
(4.12679e-06 -3.8669e-06 0)
(4.39187e-06 -3.74775e-06 0)
(4.65785e-06 -3.62862e-06 0)
(4.92439e-06 -3.50957e-06 0)
(5.19117e-06 -3.39066e-06 0)
(5.4579e-06 -3.27174e-06 0)
(5.72448e-06 -3.15263e-06 0)
(5.99079e-06 -3.03331e-06 0)
(6.25673e-06 -2.91368e-06 0)
(6.5224e-06 -2.7936e-06 0)
(6.78785e-06 -2.67321e-06 0)
(7.05308e-06 -2.55252e-06 0)
(7.31826e-06 -2.43192e-06 0)
(7.58333e-06 -2.31181e-06 0)
(1.9129e-07 -3.94785e-06 0)
(5.7653e-07 -3.88967e-06 0)
(9.69739e-07 -3.77559e-06 0)
(1.37543e-06 -3.61024e-06 0)
(1.79724e-06 -3.3999e-06 0)
(2.23746e-06 -3.1525e-06 0)
(2.69696e-06 -2.87703e-06 0)
(3.17495e-06 -2.58297e-06 0)
(3.66973e-06 -2.27986e-06 0)
(4.1774e-06 -1.97527e-06 0)
(1.859e-07 -4.01191e-06 0)
(5.59962e-07 -3.95875e-06 0)
(9.40647e-07 -3.85445e-06 0)
(1.33177e-06 -3.70294e-06 0)
(1.73641e-06 -3.50955e-06 0)
(2.15651e-06 -3.28101e-06 0)
(2.59288e-06 -3.02497e-06 0)
(3.04467e-06 -2.74965e-06 0)
(3.50973e-06 -2.4637e-06 0)
(3.985e-06 -2.17348e-06 0)
(1.81122e-07 -4.07754e-06 0)
(5.45251e-07 -4.02894e-06 0)
(9.1478e-07 -3.93348e-06 0)
(1.29277e-06 -3.79459e-06 0)
(1.68182e-06 -3.61689e-06 0)
(2.08354e-06 -3.40618e-06 0)
(2.49875e-06 -3.16905e-06 0)
(2.9272e-06 -2.91237e-06 0)
(3.36726e-06 -2.64369e-06 0)
(3.81702e-06 -2.36711e-06 0)
(1.76865e-07 -4.14482e-06 0)
(5.32159e-07 -4.10009e-06 0)
(8.91988e-07 -4.01216e-06 0)
(1.25878e-06 -3.88406e-06 0)
(1.63475e-06 -3.71984e-06 0)
(2.02117e-06 -3.52456e-06 0)
(2.41864e-06 -3.30409e-06 0)
(2.82695e-06 -3.06445e-06 0)
(3.24469e-06 -2.8127e-06 0)
(3.67022e-06 -2.55199e-06 0)
(1.72959e-07 -4.21371e-06 0)
(5.201e-07 -4.17245e-06 0)
(8.71044e-07 -4.09128e-06 0)
(1.22771e-06 -3.97287e-06 0)
(1.59196e-06 -3.82086e-06 0)
(1.96486e-06 -3.63973e-06 0)
(2.34693e-06 -3.43468e-06 0)
(2.73799e-06 -3.21083e-06 0)
(3.13702e-06 -2.97463e-06 0)
(3.54179e-06 -2.7289e-06 0)
(1.69306e-07 -4.28412e-06 0)
(5.08934e-07 -4.24587e-06 0)
(8.51746e-07 -4.17056e-06 0)
(1.19934e-06 -4.06064e-06 0)
(1.55325e-06 -3.91934e-06 0)
(1.91433e-06 -3.7507e-06 0)
(2.28295e-06 -3.55948e-06 0)
(2.65886e-06 -3.35016e-06 0)
(3.04153e-06 -3.12861e-06 0)
(3.4282e-06 -2.89767e-06 0)
(1.65803e-07 -4.35597e-06 0)
(4.98299e-07 -4.32039e-06 0)
(8.33464e-07 -4.25033e-06 0)
(1.17268e-06 -4.14799e-06 0)
(1.51717e-06 -4.0163e-06 0)
(1.86768e-06 -3.85894e-06 0)
(2.22454e-06 -3.6802e-06 0)
(2.58726e-06 -3.48413e-06 0)
(2.95578e-06 -3.27593e-06 0)
(3.32689e-06 -3.05874e-06 0)
(1.62454e-07 -4.42908e-06 0)
(4.88076e-07 -4.39587e-06 0)
(8.15985e-07 -4.33045e-06 0)
(1.14738e-06 -4.23482e-06 0)
(1.48325e-06 -4.11169e-06 0)
(1.82418e-06 -3.96441e-06 0)
(2.17051e-06 -3.79692e-06 0)
(2.52159e-06 -3.61294e-06 0)
(2.87769e-06 -3.41705e-06 0)
(3.23537e-06 -3.21263e-06 0)
(1.59177e-07 -4.50333e-06 0)
(4.78068e-07 -4.47223e-06 0)
(7.98976e-07 -4.41097e-06 0)
(1.12292e-06 -4.32136e-06 0)
(1.45073e-06 -4.20593e-06 0)
(1.78289e-06 -4.06772e-06 0)
(2.11969e-06 -3.91038e-06 0)
(2.46042e-06 -3.73736e-06 0)
(2.80553e-06 -3.55269e-06 0)
(3.15157e-06 -3.35995e-06 0)
(1.55893e-07 -4.57854e-06 0)
(4.68154e-07 -4.54933e-06 0)
(7.82222e-07 -4.49179e-06 0)
(1.09897e-06 -4.40758e-06 0)
(1.41913e-06 -4.29908e-06 0)
(1.74312e-06 -4.16903e-06 0)
(2.07117e-06 -4.02084e-06 0)
(2.40255e-06 -3.85778e-06 0)
(2.73782e-06 -3.68337e-06 0)
(3.07364e-06 -3.50127e-06 0)
(1.52571e-07 -4.65455e-06 0)
(4.58222e-07 -4.62705e-06 0)
(7.65484e-07 -4.57286e-06 0)
(1.07519e-06 -4.49354e-06 0)
(1.38795e-06 -4.39127e-06 0)
(1.70419e-06 -4.26861e-06 0)
(2.0241e-06 -4.12871e-06 0)
(2.34693e-06 -3.97466e-06 0)
(2.67326e-06 -3.80959e-06 0)
(3.00001e-06 -3.63717e-06 0)
(1.49213e-07 -4.73115e-06 0)
(4.48173e-07 -4.7052e-06 0)
(7.48567e-07 -4.65406e-06 0)
(1.05127e-06 -4.57915e-06 0)
(1.3568e-06 -4.48252e-06 0)
(1.66556e-06 -4.36657e-06 0)
(1.97774e-06 -4.23419e-06 0)
(2.29263e-06 -4.08833e-06 0)
(2.61074e-06 -3.93178e-06 0)
(2.92932e-06 -3.76812e-06 0)
(1.45783e-07 -4.80816e-06 0)
(4.37856e-07 -4.78363e-06 0)
(7.31249e-07 -4.73526e-06 0)
(1.02688e-06 -4.66437e-06 0)
(1.32524e-06 -4.57288e-06 0)
(1.62666e-06 -4.46304e-06 0)
(1.93139e-06 -4.33751e-06 0)
(2.23875e-06 -4.19908e-06 0)
(2.54922e-06 -4.05029e-06 0)
(2.86035e-06 -3.8946e-06 0)
(1.42214e-07 -4.88533e-06 0)
(4.27112e-07 -4.86209e-06 0)
(7.13299e-07 -4.81626e-06 0)
(1.00169e-06 -4.74905e-06 0)
(1.29281e-06 -4.66228e-06 0)
(1.58693e-06 -4.55802e-06 0)
(1.88436e-06 -4.43876e-06 0)
(2.18448e-06 -4.30712e-06 0)
(2.4877e-06 -4.16544e-06 0)
(2.79192e-06 -4.01699e-06 0)
(1.38444e-07 -4.96245e-06 0)
(4.15798e-07 -4.9404e-06 0)
(6.94483e-07 -4.89692e-06 0)
(9.75382e-07 -4.83312e-06 0)
(1.25906e-06 -4.75069e-06 0)
(1.5458e-06 -4.65158e-06 0)
(1.83593e-06 -4.53808e-06 0)
(2.12895e-06 -4.41267e-06 0)
(2.42517e-06 -4.27753e-06 0)
(2.72281e-06 -4.13568e-06 0)
(1.34431e-07 -5.03912e-06 0)
(4.03795e-07 -5.01818e-06 0)
(6.74567e-07 -4.97689e-06 0)
(9.47595e-07 -4.91627e-06 0)
(1.22351e-06 -4.83787e-06 0)
(1.50266e-06 -4.74353e-06 0)
(1.78537e-06 -4.63537e-06 0)
(2.0713e-06 -4.51574e-06 0)
(2.36062e-06 -4.38664e-06 0)
(2.65189e-06 -4.25085e-06 0)
(1.30136e-07 -5.11522e-06 0)
(3.90948e-07 -5.09533e-06 0)
(6.53252e-07 -5.0561e-06 0)
(9.17902e-07 -4.99846e-06 0)
(1.18562e-06 -4.92386e-06 0)
(1.45681e-06 -4.834e-06 0)
(1.73186e-06 -4.73086e-06 0)
(2.0105e-06 -4.61664e-06 0)
(2.2929e-06 -4.49315e-06 0)
(2.57781e-06 -4.36301e-06 0)
(1.255e-07 -5.18991e-06 0)
(3.77061e-07 -5.17102e-06 0)
(6.30209e-07 -5.13375e-06 0)
(8.85849e-07 -5.07897e-06 0)
(1.1448e-06 -5.00798e-06 0)
(1.40754e-06 -4.92239e-06 0)
(1.6745e-06 -4.82402e-06 0)
(1.94552e-06 -4.71493e-06 0)
(2.22076e-06 -4.59676e-06 0)
(2.49926e-06 -4.47195e-06 0)
(1.20419e-07 -5.26357e-06 0)
(3.61832e-07 -5.24566e-06 0)
(6.0495e-07 -5.21029e-06 0)
(8.50772e-07 -5.15826e-06 0)
(1.10019e-06 -5.09078e-06 0)
(1.3538e-06 -5.00932e-06 0)
(1.61208e-06 -4.91556e-06 0)
(1.87501e-06 -4.81137e-06 0)
(2.14273e-06 -4.69834e-06 0)
(2.4146e-06 -4.57862e-06 0)
(1.14842e-07 -5.33396e-06 0)
(3.45133e-07 -5.317e-06 0)
(5.77262e-07 -5.28352e-06 0)
(8.1234e-07 -5.23424e-06 0)
(1.05137e-06 -5.17024e-06 0)
(1.29504e-06 -5.09291e-06 0)
(1.54392e-06 -5.00375e-06 0)
(1.79818e-06 -4.90448e-06 0)
(2.05795e-06 -4.79659e-06 0)
(2.32289e-06 -4.682e-06 0)
)


// ************************************************************************* //
