/*--------------------------------*- C++ -*----------------------------------*\
| =========                 |                                                 |
| \\      /  F ield         | foam-extend: Open Source CFD                    |
|  \\    /   O peration     | Version:     4.1                                |
|   \\  /    A nd           | Web:         http://www.foam-extend.org         |
|    \\/     M anipulation  |                                                 |
\*---------------------------------------------------------------------------*/
FoamFile
{
    version     2.0;
    format      ascii;
    class       vectorField;
    location    "9";
    object      solidsCellD_iteration13;
}
// * * * * * * * * * * * * * * * * * * * * * * * * * * * * * * * * * * * * * //


1000
(
(4.70753e-06 -2.02041e-06 0)
(4.43852e-06 -1.87875e-06 0)
(4.2661e-06 -1.78829e-06 0)
(4.16651e-06 -1.7453e-06 0)
(4.11708e-06 -1.72939e-06 0)
(4.10424e-06 -1.73442e-06 0)
(4.11833e-06 -1.75307e-06 0)
(4.15265e-06 -1.78186e-06 0)
(4.20216e-06 -1.8175e-06 0)
(4.26367e-06 -1.85789e-06 0)
(4.25597e-06 -2.20686e-06 0)
(3.96955e-06 -2.10766e-06 0)
(3.7862e-06 -2.04401e-06 0)
(3.67859e-06 -2.01924e-06 0)
(3.62295e-06 -2.01539e-06 0)
(3.60457e-06 -2.02893e-06 0)
(3.61338e-06 -2.05367e-06 0)
(3.64224e-06 -2.08698e-06 0)
(3.68591e-06 -2.12638e-06 0)
(3.74031e-06 -2.16907e-06 0)
(3.78698e-06 -2.38357e-06 0)
(3.4944e-06 -2.33185e-06 0)
(3.30727e-06 -2.29824e-06 0)
(3.19623e-06 -2.29361e-06 0)
(3.13728e-06 -2.30294e-06 0)
(3.11511e-06 -2.32559e-06 0)
(3.11962e-06 -2.35666e-06 0)
(3.14359e-06 -2.39451e-06 0)
(3.18172e-06 -2.43752e-06 0)
(3.23e-06 -2.4827e-06 0)
(3.30401e-06 -2.54743e-06 0)
(3.01754e-06 -2.54554e-06 0)
(2.83441e-06 -2.54348e-06 0)
(2.72481e-06 -2.55987e-06 0)
(2.66558e-06 -2.5829e-06 0)
(2.64146e-06 -2.6149e-06 0)
(2.64268e-06 -2.65237e-06 0)
(2.66225e-06 -2.69475e-06 0)
(2.69516e-06 -2.7412e-06 0)
(2.73729e-06 -2.78904e-06 0)
(2.8104e-06 -2.69521e-06 0)
(2.54218e-06 -2.74272e-06 0)
(2.37081e-06 -2.77193e-06 0)
(2.26769e-06 -2.80911e-06 0)
(2.21122e-06 -2.84561e-06 0)
(2.18696e-06 -2.8868e-06 0)
(2.18592e-06 -2.93047e-06 0)
(2.20157e-06 -2.97727e-06 0)
(2.22942e-06 -3.027e-06 0)
(2.26537e-06 -3.0776e-06 0)
(2.30853e-06 -2.82391e-06 0)
(2.07045e-06 -2.91763e-06 0)
(1.91842e-06 -2.97615e-06 0)
(1.82647e-06 -3.03277e-06 0)
(1.77562e-06 -3.08184e-06 0)
(1.75296e-06 -3.13157e-06 0)
(1.75068e-06 -3.18097e-06 0)
(1.76286e-06 -3.23186e-06 0)
(1.7857e-06 -3.2846e-06 0)
(1.81528e-06 -3.33788e-06 0)
(1.80086e-06 -2.93061e-06 0)
(1.60343e-06 -3.06483e-06 0)
(1.47741e-06 -3.14906e-06 0)
(1.40092e-06 -3.22272e-06 0)
(1.35835e-06 -3.28277e-06 0)
(1.33893e-06 -3.33995e-06 0)
(1.33624e-06 -3.39433e-06 0)
(1.3453e-06 -3.44883e-06 0)
(1.36308e-06 -3.50418e-06 0)
(1.38617e-06 -3.55989e-06 0)
(1.28908e-06 -3.01293e-06 0)
(1.1412e-06 -3.1797e-06 0)
(1.04684e-06 -3.28455e-06 0)
(9.89476e-07 -3.37183e-06 0)
(9.57415e-07 -3.44073e-06 0)
(9.42541e-07 -3.5039e-06 0)
(9.4008e-07 -3.56233e-06 0)
(9.46292e-07 -3.61973e-06 0)
(9.58998e-07 -3.67717e-06 0)
(9.75523e-07 -3.7349e-06 0)
(7.74603e-07 -3.06891e-06 0)
(6.83048e-07 -3.25841e-06 0)
(6.24669e-07 -3.37767e-06 0)
(5.8908e-07 -3.47454e-06 0)
(5.6909e-07 -3.54961e-06 0)
(5.59707e-07 -3.61695e-06 0)
(5.58024e-07 -3.6782e-06 0)
(5.61675e-07 -3.73769e-06 0)
(5.69292e-07 -3.79661e-06 0)
(5.79204e-07 -3.8558e-06 0)
(2.58696e-07 -3.0971e-06 0)
(2.27684e-07 -3.29836e-06 0)
(2.07824e-07 -3.42506e-06 0)
(1.95714e-07 -3.52685e-06 0)
(1.88941e-07 -3.60512e-06 0)
(1.85716e-07 -3.67465e-06 0)
(1.85048e-07 -3.73734e-06 0)
(1.8622e-07 -3.79787e-06 0)
(1.88765e-07 -3.85757e-06 0)
(1.9206e-07 -3.91753e-06 0)
(7.35369e-06 -9.22319e-08 0)
(7.42072e-06 -6.64182e-08 0)
(7.46059e-06 -5.00168e-08 0)
(7.50333e-06 -4.03278e-08 0)
(7.54964e-06 -3.48982e-08 0)
(7.60655e-06 -3.2361e-08 0)
(7.674e-06 -3.17687e-08 0)
(7.75283e-06 -3.23897e-08 0)
(7.84287e-06 -3.39723e-08 0)
(7.94288e-06 -3.59153e-08 0)
(7.29902e-06 -2.76707e-07 0)
(7.3549e-06 -2.0077e-07 0)
(7.38778e-06 -1.52571e-07 0)
(7.42582e-06 -1.2426e-07 0)
(7.46903e-06 -1.08522e-07 0)
(7.52371e-06 -1.01118e-07 0)
(7.58959e-06 -9.94668e-08 0)
(7.66715e-06 -1.0158e-07 0)
(7.75608e-06 -1.06382e-07 0)
(7.85492e-06 -1.1213e-07 0)
(7.18991e-06 -4.62717e-07 0)
(7.22448e-06 -3.40821e-07 0)
(7.24389e-06 -2.6351e-07 0)
(7.27299e-06 -2.18087e-07 0)
(7.31029e-06 -1.92979e-07 0)
(7.36083e-06 -1.8145e-07 0)
(7.42361e-06 -1.79113e-07 0)
(7.49871e-06 -1.82793e-07 0)
(7.58552e-06 -1.90769e-07 0)
(7.68209e-06 -2.00388e-07 0)
(7.02829e-06 -6.51097e-07 0)
(7.03255e-06 -4.89787e-07 0)
(7.03274e-06 -3.8757e-07 0)
(7.04913e-06 -3.27775e-07 0)
(7.07801e-06 -2.94867e-07 0)
(7.12262e-06 -2.80046e-07 0)
(7.18105e-06 -2.77431e-07 0)
(7.25263e-06 -2.8292e-07 0)
(7.33646e-06 -2.94085e-07 0)
(7.42985e-06 -3.07607e-07 0)
(6.81668e-06 -8.42317e-07 0)
(6.7835e-06 -6.5037e-07 0)
(6.75992e-06 -5.28736e-07 0)
(6.76056e-06 -4.58051e-07 0)
(6.77901e-06 -4.19472e-07 0)
(6.81624e-06 -4.02643e-07 0)
(6.86925e-06 -4.00433e-07 0)
(6.93644e-06 -4.08047e-07 0)
(7.01654e-06 -4.22402e-07 0)
(7.10609e-06 -4.39802e-07 0)
(6.55829e-06 -1.03649e-06 0)
(6.48272e-06 -8.24338e-07 0)
(6.43234e-06 -6.89826e-07 0)
(6.41516e-06 -6.12373e-07 0)
(6.42177e-06 -5.70651e-07 0)
(6.45057e-06 -5.53324e-07 0)
(6.4974e-06 -5.52313e-07 0)
(6.55956e-06 -5.62389e-07 0)
(6.63535e-06 -5.79954e-07 0)
(6.72055e-06 -6.01214e-07 0)
(6.25698e-06 -1.23324e-06 0)
(6.13663e-06 -1.0124e-06 0)
(6.05791e-06 -8.72273e-07 0)
(6.0219e-06 -7.92618e-07 0)
(6.01596e-06 -7.5051e-07 0)
(6.0358e-06 -7.34349e-07 0)
(6.07598e-06 -7.35436e-07 0)
(6.13272e-06 -7.48355e-07 0)
(6.20379e-06 -7.69195e-07 0)
(6.28438e-06 -7.94249e-07 0)
(5.91681e-06 -1.43163e-06 0)
(5.75208e-06 -1.21408e-06 0)
(5.64532e-06 -1.07588e-06 0)
(5.59056e-06 -9.98786e-07 0)
(5.57209e-06 -9.59177e-07 0)
(5.58286e-06 -9.45925e-07 0)
(5.61618e-06 -9.50062e-07 0)
(5.6673e-06 -9.66312e-07 0)
(5.73332e-06 -9.90525e-07 0)
(5.80916e-06 -1.01939e-06 0)
(5.54222e-06 -1.6303e-06 0)
(5.33624e-06 -1.42771e-06 0)
(5.20344e-06 -1.29889e-06 0)
(5.13114e-06 -1.22902e-06 0)
(5.10083e-06 -1.19478e-06 0)
(5.10283e-06 -1.18611e-06 0)
(5.12933e-06 -1.19427e-06 0)
(5.17479e-06 -1.21426e-06 0)
(5.23555e-06 -1.24217e-06 0)
(5.30673e-06 -1.27464e-06 0)
(5.13766e-06 -1.82736e-06 0)
(4.89621e-06 -1.65054e-06 0)
(4.74101e-06 -1.53793e-06 0)
(4.65345e-06 -1.47966e-06 0)
(4.61259e-06 -1.45345e-06 0)
(4.60661e-06 -1.45095e-06 0)
(4.62673e-06 -1.46399e-06 0)
(4.66658e-06 -1.48833e-06 0)
(4.72207e-06 -1.52002e-06 0)
(4.78836e-06 -1.55748e-06 0)
(8.0532e-06 -3.783e-08 0)
(8.17351e-06 -3.81844e-08 0)
(8.30153e-06 -3.86314e-08 0)
(8.4368e-06 -3.89355e-08 0)
(8.57847e-06 -3.90605e-08 0)
(8.726e-06 -3.89872e-08 0)
(8.87871e-06 -3.86514e-08 0)
(9.03602e-06 -3.80809e-08 0)
(9.19743e-06 -3.72752e-08 0)
(9.36243e-06 -3.61938e-08 0)
(9.5305e-06 -3.47972e-08 0)
(9.70114e-06 -3.30664e-08 0)
(9.87387e-06 -3.09784e-08 0)
(1.00481e-05 -2.85114e-08 0)
(1.02235e-05 -2.56266e-08 0)
(1.03993e-05 -2.22641e-08 0)
(1.05751e-05 -1.83452e-08 0)
(1.07498e-05 -1.37945e-08 0)
(1.09236e-05 -8.50565e-09 0)
(1.10936e-05 -2.43785e-09 0)
(7.96916e-06 -1.17437e-07 0)
(8.09652e-06 -1.17965e-07 0)
(8.23083e-06 -1.18823e-07 0)
(8.37159e-06 -1.19332e-07 0)
(8.51815e-06 -1.19315e-07 0)
(8.66997e-06 -1.1879e-07 0)
(8.82656e-06 -1.17616e-07 0)
(8.98738e-06 -1.15785e-07 0)
(9.15199e-06 -1.13199e-07 0)
(9.31988e-06 -1.09773e-07 0)
(9.49061e-06 -1.05454e-07 0)
(9.66372e-06 -1.00202e-07 0)
(9.83877e-06 -9.39234e-08 0)
(1.00152e-05 -8.65051e-08 0)
(1.01927e-05 -7.78059e-08 0)
(1.03705e-05 -6.7667e-08 0)
(1.05482e-05 -5.58808e-08 0)
(1.07247e-05 -4.22345e-08 0)
(1.09004e-05 -2.63935e-08 0)
(1.10721e-05 -8.2211e-09 0)
(7.80397e-06 -2.07924e-07 0)
(7.94518e-06 -2.07063e-07 0)
(8.09184e-06 -2.06894e-07 0)
(8.24325e-06 -2.06525e-07 0)
(8.39935e-06 -2.05508e-07 0)
(8.55965e-06 -2.03857e-07 0)
(8.72387e-06 -2.0125e-07 0)
(8.89153e-06 -1.97641e-07 0)
(9.06236e-06 -1.92861e-07 0)
(9.23593e-06 -1.86801e-07 0)
(9.4119e-06 -1.79363e-07 0)
(9.58988e-06 -1.7044e-07 0)
(9.76946e-06 -1.59842e-07 0)
(9.95018e-06 -1.47366e-07 0)
(1.01316e-05 -1.32784e-07 0)
(1.03133e-05 -1.1584e-07 0)
(1.04947e-05 -9.61851e-08 0)
(1.06749e-05 -7.34623e-08 0)
(1.08541e-05 -4.7102e-08 0)
(1.10295e-05 -1.6861e-08 0)
(7.56262e-06 -3.15469e-07 0)
(7.72364e-06 -3.10763e-07 0)
(7.88816e-06 -3.07322e-07 0)
(8.05509e-06 -3.04364e-07 0)
(8.22513e-06 -3.00914e-07 0)
(8.39775e-06 -2.96996e-07 0)
(8.57309e-06 -2.92022e-07 0)
(8.75077e-06 -2.85911e-07 0)
(8.93076e-06 -2.78373e-07 0)
(9.11271e-06 -2.69238e-07 0)
(9.29641e-06 -2.5832e-07 0)
(9.48153e-06 -2.45424e-07 0)
(9.66777e-06 -2.30273e-07 0)
(9.85474e-06 -2.12591e-07 0)
(1.00421e-05 -1.9206e-07 0)
(1.02294e-05 -1.68297e-07 0)
(1.04163e-05 -1.40806e-07 0)
(1.06018e-05 -1.09065e-07 0)
(1.07862e-05 -7.22561e-08 0)
(1.09667e-05 -3.00528e-08 0)
(7.25239e-06 -4.45547e-07 0)
(7.4383e-06 -4.33846e-07 0)
(7.62547e-06 -4.24278e-07 0)
(7.81207e-06 -4.16532e-07 0)
(7.99988e-06 -4.08781e-07 0)
(8.18828e-06 -4.01087e-07 0)
(8.37792e-06 -3.9252e-07 0)
(8.56853e-06 -3.82928e-07 0)
(8.76028e-06 -3.7184e-07 0)
(8.953e-06 -3.58985e-07 0)
(9.14664e-06 -3.44083e-07 0)
(9.34099e-06 -3.26837e-07 0)
(9.53587e-06 -3.06868e-07 0)
(9.73096e-06 -2.83796e-07 0)
(9.92606e-06 -2.57193e-07 0)
(1.01207e-05 -2.26545e-07 0)
(1.03146e-05 -1.91208e-07 0)
(1.05069e-05 -1.50504e-07 0)
(1.06981e-05 -1.0335e-07 0)
(1.08854e-05 -4.93341e-08 0)
(6.8821e-06 -6.02107e-07 0)
(7.09664e-06 -5.79758e-07 0)
(7.31031e-06 -5.60659e-07 0)
(7.52008e-06 -5.45437e-07 0)
(7.72898e-06 -5.31163e-07 0)
(7.93622e-06 -5.17875e-07 0)
(8.14288e-06 -5.04239e-07 0)
(8.34896e-06 -4.89942e-07 0)
(8.55485e-06 -4.74356e-07 0)
(8.76055e-06 -4.57055e-07 0)
(8.96617e-06 -4.37619e-07 0)
(9.17165e-06 -4.1561e-07 0)
(9.37691e-06 -3.90523e-07 0)
(9.58174e-06 -3.61863e-07 0)
(9.78605e-06 -3.29073e-07 0)
(9.98943e-06 -2.91514e-07 0)
(1.01919e-05 -2.48375e-07 0)
(1.03924e-05 -1.98825e-07 0)
(1.05916e-05 -1.41518e-07 0)
(1.0787e-05 -7.58949e-08 0)
(6.46213e-06 -7.87587e-07 0)
(6.70776e-06 -7.50875e-07 0)
(6.95066e-06 -7.18864e-07 0)
(7.18619e-06 -6.93285e-07 0)
(7.41862e-06 -6.70153e-07 0)
(7.64707e-06 -6.49253e-07 0)
(7.87303e-06 -6.28981e-07 0)
(8.09669e-06 -6.08685e-07 0)
(8.31869e-06 -5.87553e-07 0)
(8.53923e-06 -5.64959e-07 0)
(8.75858e-06 -5.40303e-07 0)
(8.97679e-06 -5.12985e-07 0)
(9.19394e-06 -4.82368e-07 0)
(9.40995e-06 -4.47837e-07 0)
(9.62484e-06 -4.08693e-07 0)
(9.83832e-06 -3.64166e-07 0)
(1.00505e-05 -3.1326e-07 0)
(1.02604e-05 -2.54978e-07 0)
(1.04689e-05 -1.87724e-07 0)
(1.06736e-05 -1.10777e-07 0)
(6.00291e-06 -1.00252e-06 0)
(6.28058e-06 -9.47357e-07 0)
(6.55412e-06 -8.99045e-07 0)
(6.81723e-06 -8.59903e-07 0)
(7.07505e-06 -8.25458e-07 0)
(7.3266e-06 -7.94808e-07 0)
(7.57375e-06 -7.66198e-07 0)
(7.81682e-06 -7.38536e-07 0)
(8.05662e-06 -7.10786e-07 0)
(8.29358e-06 -6.82061e-07 0)
(8.5281e-06 -6.51552e-07 0)
(8.76041e-06 -6.18472e-07 0)
(8.99072e-06 -5.82033e-07 0)
(9.21912e-06 -5.41472e-07 0)
(9.44573e-06 -4.95935e-07 0)
(9.67039e-06 -4.44494e-07 0)
(9.89324e-06 -3.85969e-07 0)
(1.01136e-05 -3.19185e-07 0)
(1.03323e-05 -2.42294e-07 0)
(1.05472e-05 -1.54412e-07 0)
(5.51579e-06 -1.24646e-06 0)
(5.8255e-06 -1.16947e-06 0)
(6.12965e-06 -1.10272e-06 0)
(6.42125e-06 -1.04729e-06 0)
(6.7052e-06 -9.99362e-07 0)
(6.98102e-06 -9.57008e-07 0)
(7.25043e-06 -9.18363e-07 0)
(7.51407e-06 -8.81872e-07 0)
(7.77287e-06 -8.46258e-07 0)
(8.02741e-06 -8.10357e-07 0)
(8.27823e-06 -7.73136e-07 0)
(8.52574e-06 -7.33619e-07 0)
(8.77028e-06 -6.90852e-07 0)
(9.0121e-06 -6.43903e-07 0)
(9.25139e-06 -5.91745e-07 0)
(9.48813e-06 -5.33279e-07 0)
(9.72257e-06 -4.67143e-07 0)
(9.95423e-06 -3.91987e-07 0)
(1.01839e-05 -3.05747e-07 0)
(1.041e-05 -2.07391e-07 0)
(5.00991e-06 -1.515e-06 0)
(5.35156e-06 -1.41117e-06 0)
(5.68493e-06 -1.32372e-06 0)
(6.00568e-06 -1.2494e-06 0)
(6.31633e-06 -1.1858e-06 0)
(6.61742e-06 -1.13e-06 0)
(6.91011e-06 -1.0799e-06 0)
(7.19535e-06 -1.03353e-06 0)
(7.47409e-06 -9.89282e-07 0)
(7.74709e-06 -9.45676e-07 0)
(8.01504e-06 -9.01411e-07 0)
(8.2785e-06 -8.55283e-07 0)
(8.53796e-06 -8.06139e-07 0)
(8.79378e-06 -7.52857e-07 0)
(9.0463e-06 -6.9423e-07 0)
(9.29563e-06 -6.28987e-07 0)
(9.54214e-06 -5.55596e-07 0)
(9.78553e-06 -4.72518e-07 0)
(1.00267e-05 -3.775e-07 0)
(1.02644e-05 -2.69306e-07 0)
(4.63633e-06 -1.77093e-06 0)
(4.99842e-06 -1.64582e-06 0)
(5.34871e-06 -1.54314e-06 0)
(5.687e-06 -1.45398e-06 0)
(6.01421e-06 -1.37675e-06 0)
(6.33118e-06 -1.30846e-06 0)
(6.6389e-06 -1.24695e-06 0)
(6.93829e-06 -1.1902e-06 0)
(7.23026e-06 -1.13647e-06 0)
(7.51558e-06 -1.08413e-06 0)
(7.79495e-06 -1.03177e-06 0)
(8.069e-06 -9.78046e-07 0)
(8.33828e-06 -9.21687e-07 0)
(8.60322e-06 -8.61439e-07 0)
(8.86424e-06 -7.95992e-07 0)
(9.12158e-06 -7.23958e-07 0)
(9.37567e-06 -6.43757e-07 0)
(9.62647e-06 -5.53742e-07 0)
(9.87491e-06 -4.51635e-07 0)
(1.01201e-05 -3.36123e-07 0)
(4.42181e-06 -1.97788e-06 0)
(4.78637e-06 -1.84807e-06 0)
(5.1395e-06 -1.737e-06 0)
(5.48219e-06 -1.63887e-06 0)
(5.8145e-06 -1.55218e-06 0)
(6.13698e-06 -1.47446e-06 0)
(6.45035e-06 -1.40371e-06 0)
(6.75533e-06 -1.33804e-06 0)
(7.05265e-06 -1.27575e-06 0)
(7.34298e-06 -1.21526e-06 0)
(7.627e-06 -1.15515e-06 0)
(7.90529e-06 -1.09408e-06 0)
(8.1784e-06 -1.03073e-06 0)
(8.44679e-06 -9.63824e-07 0)
(8.71089e-06 -8.92041e-07 0)
(8.97105e-06 -8.13973e-07 0)
(9.22772e-06 -7.28098e-07 0)
(9.48106e-06 -6.32784e-07 0)
(9.732e-06 -5.25865e-07 0)
(9.98001e-06 -4.06095e-07 0)
(4.23745e-06 -2.17705e-06 0)
(4.59857e-06 -2.04409e-06 0)
(4.95114e-06 -1.92744e-06 0)
(5.29454e-06 -1.82241e-06 0)
(5.62879e-06 -1.7279e-06 0)
(5.95394e-06 -1.64194e-06 0)
(6.2705e-06 -1.56279e-06 0)
(6.5789e-06 -1.48878e-06 0)
(6.87972e-06 -1.41833e-06 0)
(7.17352e-06 -1.34995e-06 0)
(7.46088e-06 -1.28227e-06 0)
(7.74234e-06 -1.21396e-06 0)
(8.01841e-06 -1.14372e-06 0)
(8.28954e-06 -1.07027e-06 0)
(8.55617e-06 -9.92306e-07 0)
(8.81872e-06 -9.08441e-07 0)
(9.07768e-06 -8.17221e-07 0)
(9.33334e-06 -7.17082e-07 0)
(9.58659e-06 -6.06e-07 0)
(9.83728e-06 -4.82838e-07 0)
(4.07443e-06 -2.36915e-06 0)
(4.43046e-06 -2.23458e-06 0)
(4.78e-06 -2.11368e-06 0)
(5.12172e-06 -2.00294e-06 0)
(5.45553e-06 -1.90168e-06 0)
(5.78119e-06 -1.8084e-06 0)
(6.09896e-06 -1.72163e-06 0)
(6.40903e-06 -1.63992e-06 0)
(6.71185e-06 -1.56183e-06 0)
(7.00781e-06 -1.486e-06 0)
(7.29741e-06 -1.41111e-06 0)
(7.58111e-06 -1.3359e-06 0)
(7.85936e-06 -1.25908e-06 0)
(8.13261e-06 -1.17942e-06 0)
(8.40129e-06 -1.09564e-06 0)
(8.66585e-06 -1.00641e-06 0)
(8.92679e-06 -9.10352e-07 0)
(9.18452e-06 -8.06003e-07 0)
(9.43989e-06 -6.91508e-07 0)
(9.6931e-06 -5.65866e-07 0)
(3.93053e-06 -2.55316e-06 0)
(4.27993e-06 -2.41809e-06 0)
(4.62468e-06 -2.29439e-06 0)
(4.96285e-06 -2.17933e-06 0)
(5.29442e-06 -2.07261e-06 0)
(5.61882e-06 -1.97311e-06 0)
(5.93614e-06 -1.87964e-06 0)
(6.24638e-06 -1.791e-06 0)
(6.54985e-06 -1.70591e-06 0)
(6.8468e-06 -1.62315e-06 0)
(7.13763e-06 -1.54151e-06 0)
(7.42269e-06 -1.45979e-06 0)
(7.7024e-06 -1.37674e-06 0)
(7.97716e-06 -1.29121e-06 0)
(8.2474e-06 -1.20198e-06 0)
(8.51358e-06 -1.10778e-06 0)
(8.7762e-06 -1.00734e-06 0)
(9.03575e-06 -8.99313e-07 0)
(9.29303e-06 -7.82042e-07 0)
(9.54853e-06 -6.54679e-07 0)
(3.8024e-06 -2.72923e-06 0)
(4.1444e-06 -2.59453e-06 0)
(4.48324e-06 -2.46905e-06 0)
(4.8166e-06 -2.35073e-06 0)
(5.14458e-06 -2.2396e-06 0)
(5.46635e-06 -2.13484e-06 0)
(5.7819e-06 -2.03556e-06 0)
(6.09108e-06 -1.94076e-06 0)
(6.39406e-06 -1.84937e-06 0)
(6.69098e-06 -1.7603e-06 0)
(6.98212e-06 -1.67244e-06 0)
(7.26776e-06 -1.58468e-06 0)
(7.54826e-06 -1.49587e-06 0)
(7.82398e-06 -1.40491e-06 0)
(8.09532e-06 -1.31067e-06 0)
(8.36274e-06 -1.21197e-06 0)
(8.62673e-06 -1.10766e-06 0)
(8.88782e-06 -9.96497e-07 0)
(9.14682e-06 -8.77068e-07 0)
(9.40433e-06 -7.48651e-07 0)
(3.68751e-06 -2.89757e-06 0)
(4.02166e-06 -2.76384e-06 0)
(4.35385e-06 -2.6374e-06 0)
(4.68156e-06 -2.51676e-06 0)
(5.00497e-06 -2.40217e-06 0)
(5.32308e-06 -2.29308e-06 0)
(5.63583e-06 -2.18884e-06 0)
(5.94297e-06 -2.08869e-06 0)
(6.24452e-06 -1.99171e-06 0)
(6.54055e-06 -1.89695e-06 0)
(6.83123e-06 -1.80345e-06 0)
(7.11677e-06 -1.71018e-06 0)
(7.39747e-06 -1.61608e-06 0)
(7.67364e-06 -1.52017e-06 0)
(7.94566e-06 -1.42136e-06 0)
(8.21397e-06 -1.31864e-06 0)
(8.47903e-06 -1.21092e-06 0)
(8.74143e-06 -1.09714e-06 0)
(9.00192e-06 -9.76093e-07 0)
(9.26115e-06 -8.47161e-07 0)
(3.58345e-06 -3.05853e-06 0)
(3.90964e-06 -2.9262e-06 0)
(4.23472e-06 -2.79942e-06 0)
(4.55627e-06 -2.6772e-06 0)
(4.87441e-06 -2.55994e-06 0)
(5.18814e-06 -2.44731e-06 0)
(5.49733e-06 -2.33891e-06 0)
(5.80164e-06 -2.23415e-06 0)
(6.10103e-06 -2.13227e-06 0)
(6.39546e-06 -2.03248e-06 0)
(6.68504e-06 -1.93393e-06 0)
(6.96991e-06 -1.83571e-06 0)
(7.25031e-06 -1.73685e-06 0)
(7.5265e-06 -1.63648e-06 0)
(7.79884e-06 -1.53361e-06 0)
(8.06772e-06 -1.42733e-06 0)
(8.3336e-06 -1.31669e-06 0)
(8.59707e-06 -1.20078e-06 0)
(8.85879e-06 -1.07857e-06 0)
(9.11951e-06 -9.49569e-07 0)
(3.4881e-06 -3.2126e-06 0)
(3.80632e-06 -3.08191e-06 0)
(4.12414e-06 -2.95525e-06 0)
(4.43922e-06 -2.83202e-06 0)
(4.75167e-06 -2.71276e-06 0)
(5.06053e-06 -2.59731e-06 0)
(5.36563e-06 -2.48547e-06 0)
(5.66656e-06 -2.3768e-06 0)
(5.96322e-06 -2.27071e-06 0)
(6.25551e-06 -2.16652e-06 0)
(6.54349e-06 -2.06352e-06 0)
(6.82723e-06 -1.96091e-06 0)
(7.10692e-06 -1.85782e-06 0)
(7.38279e-06 -1.7535e-06 0)
(7.65513e-06 -1.64705e-06 0)
(7.92433e-06 -1.53768e-06 0)
(8.1908e-06 -1.42459e-06 0)
(8.45511e-06 -1.30695e-06 0)
(8.71783e-06 -1.18398e-06 0)
(8.97982e-06 -1.05528e-06 0)
(3.39956e-06 -3.36028e-06 0)
(3.70996e-06 -3.23135e-06 0)
(4.02051e-06 -3.10513e-06 0)
(4.32898e-06 -2.98134e-06 0)
(4.63555e-06 -2.86061e-06 0)
(4.93926e-06 -2.74296e-06 0)
(5.2399e-06 -2.62831e-06 0)
(5.53707e-06 -2.51637e-06 0)
(5.83061e-06 -2.40669e-06 0)
(6.12038e-06 -2.29873e-06 0)
(6.40638e-06 -2.19188e-06 0)
(6.68864e-06 -2.08543e-06 0)
(6.9673e-06 -1.97866e-06 0)
(7.24255e-06 -1.8709e-06 0)
(7.51464e-06 -1.76135e-06 0)
(7.78393e-06 -1.64935e-06 0)
(8.05077e-06 -1.53421e-06 0)
(8.3157e-06 -1.41524e-06 0)
(8.57923e-06 -1.29182e-06 0)
(8.84226e-06 -1.16372e-06 0)
(3.31615e-06 -3.50207e-06 0)
(3.61895e-06 -3.37492e-06 0)
(3.92233e-06 -3.24935e-06 0)
(4.22424e-06 -3.12535e-06 0)
(4.52487e-06 -3.00361e-06 0)
(4.82329e-06 -2.88426e-06 0)
(5.11929e-06 -2.76737e-06 0)
(5.41247e-06 -2.65275e-06 0)
(5.70262e-06 -2.54008e-06 0)
(5.9896e-06 -2.42891e-06 0)
(6.27335e-06 -2.31877e-06 0)
(6.55388e-06 -2.20905e-06 0)
(6.83128e-06 -2.09912e-06 0)
(7.1057e-06 -1.9884e-06 0)
(7.37734e-06 -1.87623e-06 0)
(7.64653e-06 -1.76202e-06 0)
(7.91355e-06 -1.64521e-06 0)
(8.17891e-06 -1.52523e-06 0)
(8.4431e-06 -1.40165e-06 0)
(8.7069e-06 -1.27432e-06 0)
(3.23635e-06 -3.63847e-06 0)
(3.53184e-06 -3.51305e-06 0)
(3.82824e-06 -3.38825e-06 0)
(4.12374e-06 -3.2643e-06 0)
(4.41847e-06 -3.14192e-06 0)
(4.71158e-06 -3.02132e-06 0)
(5.00287e-06 -2.90266e-06 0)
(5.29195e-06 -2.7859e-06 0)
(5.57858e-06 -2.67077e-06 0)
(5.86263e-06 -2.55695e-06 0)
(6.14399e-06 -2.44406e-06 0)
(6.42264e-06 -2.33159e-06 0)
(6.69864e-06 -2.21899e-06 0)
(6.97208e-06 -2.1058e-06 0)
(7.24314e-06 -1.99143e-06 0)
(7.51207e-06 -1.8754e-06 0)
(7.77913e-06 -1.75726e-06 0)
(8.04478e-06 -1.63656e-06 0)
(8.30946e-06 -1.51303e-06 0)
(8.57384e-06 -1.38657e-06 0)
(3.15884e-06 -3.76993e-06 0)
(3.44732e-06 -3.64615e-06 0)
(3.737e-06 -3.52222e-06 0)
(4.02626e-06 -3.39851e-06 0)
(4.31522e-06 -3.27577e-06 0)
(4.60311e-06 -3.15427e-06 0)
(4.88974e-06 -3.0343e-06 0)
(5.17473e-06 -2.91585e-06 0)
(5.45785e-06 -2.79877e-06 0)
(5.73893e-06 -2.68281e-06 0)
(6.01786e-06 -2.56768e-06 0)
(6.29455e-06 -2.45295e-06 0)
(6.56906e-06 -2.33815e-06 0)
(6.84143e-06 -2.22293e-06 0)
(7.11179e-06 -2.10677e-06 0)
(7.38036e-06 -1.98927e-06 0)
(7.64734e-06 -1.8701e-06 0)
(7.91317e-06 -1.74891e-06 0)
(8.17813e-06 -1.62558e-06 0)
(8.44298e-06 -1.50005e-06 0)
(3.08234e-06 -3.89685e-06 0)
(3.36414e-06 -3.77465e-06 0)
(3.64736e-06 -3.65159e-06 0)
(3.93063e-06 -3.52825e-06 0)
(4.21403e-06 -3.40539e-06 0)
(4.49689e-06 -3.28333e-06 0)
(4.77902e-06 -3.16243e-06 0)
(5.06004e-06 -3.04272e-06 0)
(5.33973e-06 -2.92415e-06 0)
(5.61789e-06 -2.80652e-06 0)
(5.89438e-06 -2.68961e-06 0)
(6.16913e-06 -2.57307e-06 0)
(6.44212e-06 -2.45652e-06 0)
(6.71339e-06 -2.33966e-06 0)
(6.983e-06 -2.22206e-06 0)
(7.25114e-06 -2.10342e-06 0)
(7.51795e-06 -1.98347e-06 0)
(7.78385e-06 -1.86199e-06 0)
(8.049e-06 -1.73893e-06 0)
(8.31413e-06 -1.61437e-06 0)
(3.00555e-06 -4.01966e-06 0)
(3.28099e-06 -3.89887e-06 0)
(3.55808e-06 -3.77672e-06 0)
(3.83566e-06 -3.65388e-06 0)
(4.11381e-06 -3.53111e-06 0)
(4.39192e-06 -3.40878e-06 0)
(4.66979e-06 -3.28727e-06 0)
(4.94703e-06 -3.1667e-06 0)
(5.22346e-06 -3.04703e-06 0)
(5.49884e-06 -2.92814e-06 0)
(5.77304e-06 -2.80989e-06 0)
(6.04592e-06 -2.69196e-06 0)
(6.31747e-06 -2.57406e-06 0)
(6.58766e-06 -2.45594e-06 0)
(6.85651e-06 -2.33723e-06 0)
(7.12419e-06 -2.2177e-06 0)
(7.39081e-06 -2.0972e-06 0)
(7.65666e-06 -1.97556e-06 0)
(7.92195e-06 -1.85284e-06 0)
(8.18722e-06 -1.72919e-06 0)
(2.92726e-06 -4.13862e-06 0)
(3.19664e-06 -4.01931e-06 0)
(3.4679e-06 -3.89795e-06 0)
(3.74021e-06 -3.7757e-06 0)
(4.0135e-06 -3.65322e-06 0)
(4.28722e-06 -3.53088e-06 0)
(4.56116e-06 -3.40908e-06 0)
(4.83496e-06 -3.28799e-06 0)
(5.10838e-06 -3.1676e-06 0)
(5.3812e-06 -3.04784e-06 0)
(5.65326e-06 -2.92862e-06 0)
(5.92442e-06 -2.80969e-06 0)
(6.1946e-06 -2.69078e-06 0)
(6.46377e-06 -2.57171e-06 0)
(6.7319e-06 -2.45217e-06 0)
(6.99914e-06 -2.332e-06 0)
(7.26553e-06 -2.21112e-06 0)
(7.5313e-06 -2.08941e-06 0)
(7.79664e-06 -1.96705e-06 0)
(8.06199e-06 -1.84423e-06 0)
(2.84619e-06 -4.25425e-06 0)
(3.10968e-06 -4.13596e-06 0)
(3.3754e-06 -4.01567e-06 0)
(3.64309e-06 -3.89424e-06 0)
(3.91195e-06 -3.7722e-06 0)
(4.18178e-06 -3.65006e-06 0)
(4.45221e-06 -3.52823e-06 0)
(4.72296e-06 -3.4069e-06 0)
(4.99374e-06 -3.2861e-06 0)
(5.26432e-06 -3.16581e-06 0)
(5.53452e-06 -3.04597e-06 0)
(5.80415e-06 -2.92635e-06 0)
(6.07313e-06 -2.80674e-06 0)
(6.34138e-06 -2.687e-06 0)
(6.60888e-06 -2.56688e-06 0)
(6.87572e-06 -2.44626e-06 0)
(7.14187e-06 -2.3251e-06 0)
(7.40757e-06 -2.20339e-06 0)
(7.67286e-06 -2.08139e-06 0)
(7.93823e-06 -1.95928e-06 0)
(2.76042e-06 -4.3664e-06 0)
(3.01889e-06 -4.24931e-06 0)
(3.28007e-06 -4.13031e-06 0)
(3.54331e-06 -4.00974e-06 0)
(3.80834e-06 -3.88834e-06 0)
(4.07476e-06 -3.76662e-06 0)
(4.34222e-06 -3.645e-06 0)
(4.61039e-06 -3.52371e-06 0)
(4.87898e-06 -3.4028e-06 0)
(5.14771e-06 -3.28227e-06 0)
(5.41636e-06 -3.16208e-06 0)
(5.68473e-06 -3.04207e-06 0)
(5.95269e-06 -2.92202e-06 0)
(6.22019e-06 -2.80184e-06 0)
(6.48716e-06 -2.68133e-06 0)
(6.75362e-06 -2.56043e-06 0)
(7.01954e-06 -2.4391e-06 0)
(7.28518e-06 -2.31739e-06 0)
(7.55047e-06 -2.19567e-06 0)
(7.81575e-06 -2.07418e-06 0)
(2.66881e-06 -4.4763e-06 0)
(2.92268e-06 -4.36062e-06 0)
(3.17975e-06 -4.24263e-06 0)
(3.43936e-06 -4.123e-06 0)
(3.70128e-06 -4.00238e-06 0)
(3.96501e-06 -3.88125e-06 0)
(4.23021e-06 -3.76004e-06 0)
(4.49648e-06 -3.63898e-06 0)
(4.76345e-06 -3.51817e-06 0)
(5.03082e-06 -3.39762e-06 0)
(5.29832e-06 -3.27731e-06 0)
(5.56577e-06 -3.15707e-06 0)
(5.833e-06 -3.03678e-06 0)
(6.09988e-06 -2.91638e-06 0)
(6.36638e-06 -2.79562e-06 0)
(6.63254e-06 -2.67447e-06 0)
(6.89832e-06 -2.55304e-06 0)
(7.16384e-06 -2.43135e-06 0)
(7.42913e-06 -2.30979e-06 0)
(7.69437e-06 -2.18875e-06 0)
(2.57019e-06 -4.58304e-06 0)
(2.82005e-06 -4.46894e-06 0)
(3.07369e-06 -4.35241e-06 0)
(3.33052e-06 -4.23402e-06 0)
(3.59015e-06 -4.11442e-06 0)
(3.85206e-06 -3.99411e-06 0)
(4.1158e-06 -3.87354e-06 0)
(4.38088e-06 -3.75297e-06 0)
(4.64689e-06 -3.63245e-06 0)
(4.91348e-06 -3.51202e-06 0)
(5.18034e-06 -3.39175e-06 0)
(5.44718e-06 -3.2715e-06 0)
(5.71389e-06 -3.1511e-06 0)
(5.98035e-06 -3.03052e-06 0)
(6.24646e-06 -2.90966e-06 0)
(6.51232e-06 -2.7884e-06 0)
(6.77796e-06 -2.66688e-06 0)
(7.0434e-06 -2.54516e-06 0)
(7.30875e-06 -2.42366e-06 0)
(7.57401e-06 -2.30286e-06 0)
(1.91269e-07 -3.979e-06 0)
(5.76504e-07 -3.9202e-06 0)
(9.69834e-07 -3.80493e-06 0)
(1.37585e-06 -3.63784e-06 0)
(1.79826e-06 -3.42531e-06 0)
(2.23938e-06 -3.17532e-06 0)
(2.70012e-06 -2.89699e-06 0)
(3.17967e-06 -2.5999e-06 0)
(3.67626e-06 -2.29374e-06 0)
(4.18607e-06 -1.98622e-06 0)
(1.85797e-07 -4.04284e-06 0)
(5.5969e-07 -3.9891e-06 0)
(9.40324e-07 -3.8837e-06 0)
(1.33159e-06 -3.73057e-06 0)
(1.73663e-06 -3.53513e-06 0)
(2.15744e-06 -3.30417e-06 0)
(2.59485e-06 -3.04544e-06 0)
(3.04802e-06 -2.76724e-06 0)
(3.51475e-06 -2.47834e-06 0)
(3.99208e-06 -2.18514e-06 0)
(1.8097e-07 -4.10819e-06 0)
(5.44829e-07 -4.05906e-06 0)
(9.14199e-07 -3.96259e-06 0)
(1.29221e-06 -3.8222e-06 0)
(1.68152e-06 -3.6426e-06 0)
(2.08376e-06 -3.42965e-06 0)
(2.49983e-06 -3.18999e-06 0)
(2.92945e-06 -2.93061e-06 0)
(3.371e-06 -2.65912e-06 0)
(3.82257e-06 -2.3796e-06 0)
(1.76685e-07 -4.1752e-06 0)
(5.31638e-07 -4.12997e-06 0)
(8.91229e-07 -4.04113e-06 0)
(1.25794e-06 -3.91164e-06 0)
(1.63404e-06 -3.74566e-06 0)
(2.02084e-06 -3.54829e-06 0)
(2.419e-06 -3.32547e-06 0)
(2.82827e-06 -3.08328e-06 0)
(3.24728e-06 -2.82883e-06 0)
(3.67438e-06 -2.56526e-06 0)
(1.72753e-07 -4.24383e-06 0)
(5.19506e-07 -4.2021e-06 0)
(8.70147e-07 -4.12008e-06 0)
(1.22665e-06 -4.0004e-06 0)
(1.59094e-06 -3.84675e-06 0)
(1.96408e-06 -3.66368e-06 0)
(2.34668e-06 -3.45642e-06 0)
(2.73851e-06 -3.23017e-06 0)
(3.13861e-06 -2.99137e-06 0)
(3.54473e-06 -2.74287e-06 0)
(1.69077e-07 -4.31398e-06 0)
(5.08284e-07 -4.27528e-06 0)
(8.50742e-07 -4.19919e-06 0)
(1.19811e-06 -4.08809e-06 0)
(1.55196e-06 -3.94526e-06 0)
(1.91318e-06 -3.77481e-06 0)
(2.28219e-06 -3.5815e-06 0)
(2.65869e-06 -3.36991e-06 0)
(3.04223e-06 -3.14588e-06 0)
(3.43005e-06 -2.91227e-06 0)
(1.65559e-07 -4.38557e-06 0)
(4.976e-07 -4.34958e-06 0)
(8.32371e-07 -4.27878e-06 0)
(1.17131e-06 -4.17534e-06 0)
(1.51566e-06 -4.04223e-06 0)
(1.86621e-06 -3.88316e-06 0)
(2.22331e-06 -3.70246e-06 0)
(2.58649e-06 -3.50422e-06 0)
(2.95571e-06 -3.29365e-06 0)
(3.32777e-06 -3.0739e-06 0)
(1.62196e-07 -4.45843e-06 0)
(4.87331e-07 -4.42484e-06 0)
(8.14814e-07 -4.35872e-06 0)
(1.14588e-06 -4.26206e-06 0)
(1.48154e-06 -4.13758e-06 0)
(1.82242e-06 -3.98869e-06 0)
(2.16887e-06 -3.81934e-06 0)
(2.52028e-06 -3.6333e-06 0)
(2.87693e-06 -3.43515e-06 0)
(3.23539e-06 -3.22829e-06 0)
(1.58899e-07 -4.53244e-06 0)
(4.77276e-07 -4.50099e-06 0)
(7.97726e-07 -4.43905e-06 0)
(1.12128e-06 -4.34848e-06 0)
(1.44883e-06 -4.23177e-06 0)
(1.78085e-06 -4.09202e-06 0)
(2.11768e-06 -3.93291e-06 0)
(2.45862e-06 -3.75792e-06 0)
(2.80414e-06 -3.5711e-06 0)
(3.1508e-06 -3.37602e-06 0)
(1.55594e-07 -4.60742e-06 0)
(4.67314e-07 -4.57789e-06 0)
(7.80886e-07 -4.51969e-06 0)
(1.0972e-06 -4.43457e-06 0)
(1.41703e-06 -4.32483e-06 0)
(1.74081e-06 -4.19332e-06 0)
(2.0688e-06 -4.04344e-06 0)
(2.40029e-06 -3.8785e-06 0)
(2.73584e-06 -3.70202e-06 0)
(3.07215e-06 -3.51768e-06 0)
(1.52256e-07 -4.6832e-06 0)
(4.5733e-07 -4.65541e-06 0)
(7.64049e-07 -4.60059e-06 0)
(1.07327e-06 -4.52037e-06 0)
(1.38565e-06 -4.41693e-06 0)
(1.70161e-06 -4.29286e-06 0)
(2.02137e-06 -4.15133e-06 0)
(2.34422e-06 -3.99548e-06 0)
(2.67073e-06 -3.82843e-06 0)
(2.99783e-06 -3.65384e-06 0)
(1.48881e-07 -4.75958e-06 0)
(4.47215e-07 -4.73336e-06 0)
(7.47018e-07 -4.6816e-06 0)
(1.04919e-06 -4.60582e-06 0)
(1.35428e-06 -4.50807e-06 0)
(1.66269e-06 -4.39075e-06 0)
(1.97466e-06 -4.25681e-06 0)
(2.28946e-06 -4.1092e-06 0)
(2.60766e-06 -3.95074e-06 0)
(2.92649e-06 -3.78501e-06 0)
(1.45428e-07 -4.83637e-06 0)
(4.36818e-07 -4.81158e-06 0)
(7.29567e-07 -4.76261e-06 0)
(1.02461e-06 -4.69088e-06 0)
(1.32247e-06 -4.5983e-06 0)
(1.62348e-06 -4.48713e-06 0)
(1.92792e-06 -4.36008e-06 0)
(2.23512e-06 -4.21997e-06 0)
(2.54558e-06 -4.06934e-06 0)
(2.85686e-06 -3.91166e-06 0)
(1.4183e-07 -4.91332e-06 0)
(4.25983e-07 -4.88983e-06 0)
(7.11465e-07 -4.84342e-06 0)
(9.99219e-07 -4.77539e-06 0)
(1.28976e-06 -4.68754e-06 0)
(1.58341e-06 -4.582e-06 0)
(1.88047e-06 -4.46126e-06 0)
(2.18036e-06 -4.32799e-06 0)
(2.48348e-06 -4.18453e-06 0)
(2.78774e-06 -4.03416e-06 0)
(1.38026e-07 -4.99021e-06 0)
(4.1457e-07 -4.96791e-06 0)
(6.92476e-07 -4.92387e-06 0)
(9.72665e-07 -4.85927e-06 0)
(1.25569e-06 -4.77579e-06 0)
(1.54189e-06 -4.67543e-06 0)
(1.83158e-06 -4.56048e-06 0)
(2.12429e-06 -4.43349e-06 0)
(2.42033e-06 -4.29662e-06 0)
(2.71791e-06 -4.15292e-06 0)
(1.33978e-07 -5.06663e-06 0)
(4.02455e-07 -5.04545e-06 0)
(6.72363e-07 -5.00361e-06 0)
(9.446e-07 -4.9422e-06 0)
(1.2198e-06 -4.86279e-06 0)
(1.49832e-06 -4.76722e-06 0)
(1.78051e-06 -4.65766e-06 0)
(2.06604e-06 -4.53648e-06 0)
(2.35509e-06 -4.40569e-06 0)
(2.64622e-06 -4.26811e-06 0)
(1.29639e-07 -5.14247e-06 0)
(3.89472e-07 -5.12233e-06 0)
(6.50818e-07 -5.08258e-06 0)
(9.14586e-07 -5.02417e-06 0)
(1.1815e-06 -4.94857e-06 0)
(1.45198e-06 -4.85751e-06 0)
(1.72643e-06 -4.753e-06 0)
(2.00457e-06 -4.63726e-06 0)
(2.28661e-06 -4.51213e-06 0)
(2.57129e-06 -4.38025e-06 0)
(1.24949e-07 -5.21686e-06 0)
(3.75424e-07 -5.19772e-06 0)
(6.27507e-07 -5.15995e-06 0)
(8.82161e-07 -5.10442e-06 0)
(1.1402e-06 -5.03246e-06 0)
(1.40214e-06 -4.9457e-06 0)
(1.6684e-06 -4.84599e-06 0)
(1.93883e-06 -4.73541e-06 0)
(2.21363e-06 -4.61564e-06 0)
(2.49181e-06 -4.48914e-06 0)
(1.19803e-07 -5.29019e-06 0)
(3.60001e-07 -5.27203e-06 0)
(6.01934e-07 -5.23618e-06 0)
(8.46648e-07 -5.18342e-06 0)
(1.09504e-06 -5.115e-06 0)
(1.34773e-06 -5.0324e-06 0)
(1.6052e-06 -4.93732e-06 0)
(1.86745e-06 -4.83168e-06 0)
(2.13464e-06 -4.71709e-06 0)
(2.40611e-06 -4.59573e-06 0)
(1.14151e-07 -5.36019e-06 0)
(3.4308e-07 -5.34299e-06 0)
(5.73884e-07 -5.30905e-06 0)
(8.07708e-07 -5.25907e-06 0)
(1.04557e-06 -5.19416e-06 0)
(1.2882e-06 -5.11572e-06 0)
(1.53615e-06 -5.02528e-06 0)
(1.78965e-06 -4.92461e-06 0)
(2.04879e-06 -4.8152e-06 0)
(2.31325e-06 -4.69902e-06 0)
)


// ************************************************************************* //
