/*--------------------------------*- C++ -*----------------------------------*\
| =========                 |                                                 |
| \\      /  F ield         | foam-extend: Open Source CFD                    |
|  \\    /   O peration     | Version:     4.1                                |
|   \\  /    A nd           | Web:         http://www.foam-extend.org         |
|    \\/     M anipulation  |                                                 |
\*---------------------------------------------------------------------------*/
FoamFile
{
    version     2.0;
    format      ascii;
    class       vectorField;
    location    "9";
    object      solidsCellD_iteration4;
}
// * * * * * * * * * * * * * * * * * * * * * * * * * * * * * * * * * * * * * //


1000
(
(4.61489e-06 -1.93779e-06 0)
(4.35786e-06 -1.80471e-06 0)
(4.194e-06 -1.72084e-06 0)
(4.10061e-06 -1.6823e-06 0)
(4.05569e-06 -1.66964e-06 0)
(4.04619e-06 -1.677e-06 0)
(4.06274e-06 -1.69746e-06 0)
(4.09891e-06 -1.72772e-06 0)
(4.1495e-06 -1.76467e-06 0)
(4.21068e-06 -1.80697e-06 0)
(4.17342e-06 -2.11651e-06 0)
(3.89948e-06 -2.02436e-06 0)
(3.72483e-06 -1.96647e-06 0)
(3.62349e-06 -1.94562e-06 0)
(3.5724e-06 -1.94472e-06 0)
(3.55714e-06 -1.96048e-06 0)
(3.56806e-06 -1.987e-06 0)
(3.59825e-06 -2.02171e-06 0)
(3.64245e-06 -2.06235e-06 0)
(3.69648e-06 -2.1065e-06 0)
(3.71435e-06 -2.28593e-06 0)
(3.43439e-06 -2.2395e-06 0)
(3.25608e-06 -2.21053e-06 0)
(3.15112e-06 -2.20916e-06 0)
(3.09648e-06 -2.22102e-06 0)
(3.07718e-06 -2.24563e-06 0)
(3.08348e-06 -2.27828e-06 0)
(3.1085e-06 -2.31729e-06 0)
(3.14691e-06 -2.36126e-06 0)
(3.19477e-06 -2.40751e-06 0)
(3.24142e-06 -2.44301e-06 0)
(2.9671e-06 -2.44455e-06 0)
(2.79251e-06 -2.44589e-06 0)
(2.6887e-06 -2.4648e-06 0)
(2.63337e-06 -2.48988e-06 0)
(2.61184e-06 -2.52349e-06 0)
(2.61466e-06 -2.56226e-06 0)
(2.63507e-06 -2.60554e-06 0)
(2.66819e-06 -2.65273e-06 0)
(2.70993e-06 -2.70127e-06 0)
(2.75767e-06 -2.58465e-06 0)
(2.50079e-06 -2.63372e-06 0)
(2.3373e-06 -2.66517e-06 0)
(2.23943e-06 -2.70409e-06 0)
(2.18649e-06 -2.74211e-06 0)
(2.16453e-06 -2.78451e-06 0)
(2.1649e-06 -2.82919e-06 0)
(2.1812e-06 -2.87663e-06 0)
(2.20918e-06 -2.92685e-06 0)
(2.2448e-06 -2.97781e-06 0)
(2.26572e-06 -2.70795e-06 0)
(2.03749e-06 -2.80148e-06 0)
(1.89232e-06 -2.86107e-06 0)
(1.80501e-06 -2.91868e-06 0)
(1.75727e-06 -2.96878e-06 0)
(1.73657e-06 -3.01938e-06 0)
(1.73544e-06 -3.06949e-06 0)
(1.74814e-06 -3.12082e-06 0)
(1.77108e-06 -3.17382e-06 0)
(1.80042e-06 -3.22718e-06 0)
(1.76772e-06 -2.81018e-06 0)
(1.57844e-06 -2.94265e-06 0)
(1.45805e-06 -3.02693e-06 0)
(1.38538e-06 -3.10088e-06 0)
(1.34531e-06 -3.16153e-06 0)
(1.32745e-06 -3.21927e-06 0)
(1.32566e-06 -3.27414e-06 0)
(1.33514e-06 -3.32889e-06 0)
(1.35303e-06 -3.38432e-06 0)
(1.37596e-06 -3.43992e-06 0)
(1.26549e-06 -2.88901e-06 0)
(1.12373e-06 -3.05275e-06 0)
(1.03358e-06 -3.15686e-06 0)
(9.79056e-07 -3.24391e-06 0)
(9.48782e-07 -3.31304e-06 0)
(9.35025e-07 -3.3765e-06 0)
(9.33241e-07 -3.4352e-06 0)
(9.39801e-07 -3.49272e-06 0)
(9.52605e-07 -3.55008e-06 0)
(9.69025e-07 -3.60753e-06 0)
(7.60502e-07 -2.94259e-06 0)
(6.72764e-07 -3.12821e-06 0)
(6.16935e-07 -3.24618e-06 0)
(5.83052e-07 -3.34242e-06 0)
(5.64162e-07 -3.41748e-06 0)
(5.55524e-07 -3.48496e-06 0)
(5.54275e-07 -3.54634e-06 0)
(5.58094e-07 -3.60581e-06 0)
(5.6574e-07 -3.66458e-06 0)
(5.75594e-07 -3.72341e-06 0)
(2.54005e-07 -2.96959e-06 0)
(2.24221e-07 -3.16646e-06 0)
(2.05265e-07 -3.29162e-06 0)
(1.93782e-07 -3.39261e-06 0)
(1.87356e-07 -3.47071e-06 0)
(1.84349e-07 -3.54025e-06 0)
(1.83856e-07 -3.60301e-06 0)
(1.85106e-07 -3.66349e-06 0)
(1.87644e-07 -3.72295e-06 0)
(1.90907e-07 -3.78246e-06 0)
(7.19641e-06 -8.85028e-08 0)
(7.26147e-06 -6.39053e-08 0)
(7.30147e-06 -4.83237e-08 0)
(7.34491e-06 -3.91698e-08 0)
(7.39233e-06 -3.41182e-08 0)
(7.45043e-06 -3.18063e-08 0)
(7.51898e-06 -3.13054e-08 0)
(7.59876e-06 -3.20454e-08 0)
(7.68949e-06 -3.36656e-08 0)
(7.79004e-06 -3.55641e-08 0)
(7.14326e-06 -2.65463e-07 0)
(7.19757e-06 -1.93108e-07 0)
(7.23088e-06 -1.47416e-07 0)
(7.26981e-06 -1.2066e-07 0)
(7.31427e-06 -1.05891e-07 0)
(7.37024e-06 -9.92199e-08 0)
(7.43728e-06 -9.796e-08 0)
(7.51584e-06 -1.00267e-07 0)
(7.60556e-06 -1.05098e-07 0)
(7.70499e-06 -1.10832e-07 0)
(7.03698e-06 -4.43964e-07 0)
(7.07086e-06 -3.27778e-07 0)
(7.09127e-06 -2.54461e-07 0)
(7.12168e-06 -2.11692e-07 0)
(7.16048e-06 -1.88231e-07 0)
(7.21247e-06 -1.7777e-07 0)
(7.27661e-06 -1.76001e-07 0)
(7.35274e-06 -1.80007e-07 0)
(7.44046e-06 -1.88088e-07 0)
(7.53774e-06 -1.97707e-07 0)
(6.87954e-06 -6.2466e-07 0)
(6.88442e-06 -4.70999e-07 0)
(6.8864e-06 -3.74054e-07 0)
(6.90468e-06 -3.17757e-07 0)
(6.93543e-06 -2.87085e-07 0)
(6.98163e-06 -2.73732e-07 0)
(7.04159e-06 -2.71953e-07 0)
(7.11437e-06 -2.77919e-07 0)
(7.19927e-06 -2.89281e-07 0)
(7.29357e-06 -3.02793e-07 0)
(6.67334e-06 -8.08089e-07 0)
(6.64239e-06 -6.25373e-07 0)
(6.6216e-06 -5.10086e-07 0)
(6.62475e-06 -4.43583e-07 0)
(6.64554e-06 -4.07703e-07 0)
(6.68467e-06 -3.92672e-07 0)
(6.73941e-06 -3.91544e-07 0)
(6.808e-06 -3.99764e-07 0)
(6.88936e-06 -4.14412e-07 0)
(6.98001e-06 -4.31828e-07 0)
(6.42157e-06 -9.94299e-07 0)
(6.34999e-06 -7.92522e-07 0)
(6.30345e-06 -6.65165e-07 0)
(6.28948e-06 -5.92429e-07 0)
(6.29895e-06 -5.53757e-07 0)
(6.33003e-06 -5.38476e-07 0)
(6.37884e-06 -5.38728e-07 0)
(6.44261e-06 -5.49542e-07 0)
(6.51988e-06 -5.67501e-07 0)
(6.60651e-06 -5.88827e-07 0)
(6.12779e-06 -1.18294e-06 0)
(6.01334e-06 -9.73111e-07 0)
(5.93966e-06 -8.40644e-07 0)
(5.9076e-06 -7.66071e-07 0)
(5.905e-06 -7.27284e-07 0)
(5.92748e-06 -7.13335e-07 0)
(5.96988e-06 -7.15812e-07 0)
(6.02843e-06 -7.29623e-07 0)
(6.10121e-06 -7.51001e-07 0)
(6.18365e-06 -7.7623e-07 0)
(5.796e-06 -1.37318e-06 0)
(5.639e-06 -1.16673e-06 0)
(5.53838e-06 -1.03638e-06 0)
(5.48828e-06 -9.64493e-07 0)
(5.47356e-06 -9.28367e-07 0)
(5.48731e-06 -9.17413e-07 0)
(5.52312e-06 -9.23011e-07 0)
(5.57632e-06 -9.40271e-07 0)
(5.64434e-06 -9.65152e-07 0)
(5.72256e-06 -9.94326e-07 0)
(5.43041e-06 -1.56367e-06 0)
(5.23383e-06 -1.37182e-06 0)
(5.10825e-06 -1.25067e-06 0)
(5.04129e-06 -1.18595e-06 0)
(5.01512e-06 -1.15523e-06 0)
(5.02042e-06 -1.14893e-06 0)
(5.04965e-06 -1.15863e-06 0)
(5.09743e-06 -1.17974e-06 0)
(5.16032e-06 -1.20842e-06 0)
(5.23431e-06 -1.24143e-06 0)
(5.03532e-06 -1.7526e-06 0)
(4.8046e-06 -1.58568e-06 0)
(4.65747e-06 -1.48034e-06 0)
(4.57579e-06 -1.42696e-06 0)
(4.53937e-06 -1.40418e-06 0)
(4.53678e-06 -1.4041e-06 0)
(4.55961e-06 -1.41879e-06 0)
(4.60192e-06 -1.44438e-06 0)
(4.65962e-06 -1.4771e-06 0)
(4.72898e-06 -1.51528e-06 0)
(7.90051e-06 -3.74617e-08 0)
(8.02091e-06 -3.78965e-08 0)
(8.14897e-06 -3.84021e-08 0)
(8.28421e-06 -3.87541e-08 0)
(8.42575e-06 -3.89169e-08 0)
(8.57307e-06 -3.88832e-08 0)
(8.7256e-06 -3.86299e-08 0)
(8.88275e-06 -3.81613e-08 0)
(9.0439e-06 -3.74346e-08 0)
(9.2086e-06 -3.6423e-08 0)
(9.37639e-06 -3.51065e-08 0)
(9.54674e-06 -3.34748e-08 0)
(9.71921e-06 -3.15103e-08 0)
(9.89325e-06 -2.91822e-08 0)
(1.00685e-05 -2.64409e-08 0)
(1.02441e-05 -2.32321e-08 0)
(1.04199e-05 -1.94927e-08 0)
(1.05947e-05 -1.51548e-08 0)
(1.07686e-05 -1.01122e-08 0)
(1.09389e-05 -4.32826e-09 0)
(7.81923e-06 -1.16184e-07 0)
(7.94643e-06 -1.16979e-07 0)
(8.08056e-06 -1.18012e-07 0)
(8.22106e-06 -1.18679e-07 0)
(8.36736e-06 -1.1885e-07 0)
(8.51891e-06 -1.18511e-07 0)
(8.6752e-06 -1.17534e-07 0)
(8.83572e-06 -1.15905e-07 0)
(8.99997e-06 -1.13522e-07 0)
(9.16751e-06 -1.10347e-07 0)
(9.33788e-06 -1.06322e-07 0)
(9.51064e-06 -1.01386e-07 0)
(9.68537e-06 -9.5455e-08 0)
(9.86157e-06 -8.84237e-08 0)
(1.00388e-05 -8.01551e-08 0)
(1.02164e-05 -7.05038e-08 0)
(1.0394e-05 -5.92799e-08 0)
(1.05705e-05 -4.62802e-08 0)
(1.07462e-05 -3.11813e-08 0)
(1.09183e-05 -1.38584e-08 0)
(7.65929e-06 -2.05335e-07 0)
(7.7998e-06 -2.04955e-07 0)
(7.9459e-06 -2.05146e-07 0)
(8.09677e-06 -2.05098e-07 0)
(8.2523e-06 -2.04417e-07 0)
(8.41204e-06 -2.03083e-07 0)
(8.57579e-06 -2.00821e-07 0)
(8.74304e-06 -1.97588e-07 0)
(8.91341e-06 -1.93201e-07 0)
(9.08651e-06 -1.87594e-07 0)
(9.26205e-06 -1.80646e-07 0)
(9.43963e-06 -1.72233e-07 0)
(9.61887e-06 -1.62197e-07 0)
(9.79928e-06 -1.50358e-07 0)
(9.98048e-06 -1.36493e-07 0)
(1.01619e-05 -1.20358e-07 0)
(1.03432e-05 -1.01626e-07 0)
(1.05232e-05 -7.99675e-08 0)
(1.07024e-05 -5.48457e-08 0)
(1.0878e-05 -2.6036e-08 0)
(7.42563e-06 -3.10842e-07 0)
(7.58523e-06 -3.06911e-07 0)
(7.74859e-06 -3.041e-07 0)
(7.91447e-06 -3.01709e-07 0)
(8.08355e-06 -2.98815e-07 0)
(8.25531e-06 -2.95405e-07 0)
(8.42989e-06 -2.90973e-07 0)
(8.60689e-06 -2.85421e-07 0)
(8.7862e-06 -2.78465e-07 0)
(8.96753e-06 -2.69983e-07 0)
(9.15067e-06 -2.59769e-07 0)
(9.3353e-06 -2.47611e-07 0)
(9.52111e-06 -2.33266e-07 0)
(9.70767e-06 -2.16479e-07 0)
(9.89472e-06 -1.96939e-07 0)
(1.00817e-05 -1.74279e-07 0)
(1.02684e-05 -1.48035e-07 0)
(1.04537e-05 -1.17744e-07 0)
(1.0638e-05 -8.26439e-08 0)
(1.08187e-05 -4.24183e-08 0)
(7.12506e-06 -4.3798e-07 0)
(7.30865e-06 -4.27474e-07 0)
(7.49399e-06 -4.18877e-07 0)
(7.67902e-06 -4.11996e-07 0)
(7.86538e-06 -4.05083e-07 0)
(8.05254e-06 -3.98143e-07 0)
(8.2411e-06 -3.90376e-07 0)
(8.43073e-06 -3.81574e-07 0)
(8.62161e-06 -3.71314e-07 0)
(8.81356e-06 -3.5936e-07 0)
(9.00648e-06 -3.45393e-07 0)
(9.20017e-06 -3.29106e-07 0)
(9.39444e-06 -3.10169e-07 0)
(9.58899e-06 -2.88237e-07 0)
(9.78362e-06 -2.6289e-07 0)
(9.9778e-06 -2.33638e-07 0)
(1.01714e-05 -1.99877e-07 0)
(1.03634e-05 -1.60997e-07 0)
(1.05544e-05 -1.16011e-07 0)
(1.07416e-05 -6.4486e-08 0)
(6.76635e-06 -5.90487e-07 0)
(6.97757e-06 -5.69913e-07 0)
(7.18858e-06 -5.52261e-07 0)
(7.39607e-06 -5.38293e-07 0)
(7.60296e-06 -5.2522e-07 0)
(7.80848e-06 -5.13015e-07 0)
(8.01378e-06 -5.00521e-07 0)
(8.2186e-06 -4.8733e-07 0)
(8.42332e-06 -4.72849e-07 0)
(8.62798e-06 -4.56695e-07 0)
(8.83266e-06 -4.38414e-07 0)
(9.03729e-06 -4.1758e-07 0)
(9.24177e-06 -3.93755e-07 0)
(9.44591e-06 -3.66486e-07 0)
(9.64964e-06 -3.35218e-07 0)
(9.85244e-06 -2.99335e-07 0)
(1.00544e-05 -2.58091e-07 0)
(1.02545e-05 -2.10721e-07 0)
(1.04534e-05 -1.56001e-07 0)
(1.06485e-05 -9.33485e-08 0)
(6.35925e-06 -7.70806e-07 0)
(6.60058e-06 -7.36551e-07 0)
(6.84005e-06 -7.06563e-07 0)
(7.07265e-06 -6.82748e-07 0)
(7.30259e-06 -6.61291e-07 0)
(7.52888e-06 -6.4193e-07 0)
(7.75301e-06 -6.23165e-07 0)
(7.97504e-06 -6.0431e-07 0)
(8.19556e-06 -5.84581e-07 0)
(8.41476e-06 -5.63386e-07 0)
(8.6329e-06 -5.40125e-07 0)
(8.85002e-06 -5.14227e-07 0)
(9.06618e-06 -4.85124e-07 0)
(9.2813e-06 -4.52236e-07 0)
(9.49537e-06 -4.14871e-07 0)
(9.70806e-06 -3.72283e-07 0)
(9.91952e-06 -3.23574e-07 0)
(1.01289e-05 -2.67805e-07 0)
(1.03368e-05 -2.03506e-07 0)
(1.0541e-05 -1.29946e-07 0)
(5.91393e-06 -9.79357e-07 0)
(6.18651e-06 -9.27542e-07 0)
(6.45592e-06 -8.81992e-07 0)
(6.71554e-06 -8.45269e-07 0)
(6.97026e-06 -8.13031e-07 0)
(7.21925e-06 -7.84418e-07 0)
(7.46409e-06 -7.57714e-07 0)
(7.7051e-06 -7.31853e-07 0)
(7.94306e-06 -7.05824e-07 0)
(8.17836e-06 -6.78776e-07 0)
(8.41138e-06 -6.49922e-07 0)
(8.6423e-06 -6.1852e-07 0)
(8.87131e-06 -5.8385e-07 0)
(9.09852e-06 -5.45181e-07 0)
(9.32401e-06 -5.01669e-07 0)
(9.54763e-06 -4.52426e-07 0)
(9.76958e-06 -3.96376e-07 0)
(9.98912e-06 -3.32401e-07 0)
(1.02071e-05 -2.58778e-07 0)
(1.04213e-05 -1.74628e-07 0)
(5.44108e-06 -1.2159e-06 0)
(5.74535e-06 -1.1431e-06 0)
(6.04494e-06 -1.07985e-06 0)
(6.33263e-06 -1.02758e-06 0)
(6.61308e-06 -9.82527e-07 0)
(6.88588e-06 -9.42775e-07 0)
(7.15254e-06 -9.0651e-07 0)
(7.41371e-06 -8.72233e-07 0)
(7.67023e-06 -8.38687e-07 0)
(7.92269e-06 -8.04762e-07 0)
(8.1716e-06 -7.69473e-07 0)
(8.41732e-06 -7.31897e-07 0)
(8.66016e-06 -6.91149e-07 0)
(8.9004e-06 -6.46332e-07 0)
(9.13818e-06 -5.96438e-07 0)
(9.37354e-06 -5.40427e-07 0)
(9.60677e-06 -4.77031e-07 0)
(9.83727e-06 -4.04953e-07 0)
(1.0066e-05 -3.22239e-07 0)
(1.0291e-05 -2.27887e-07 0)
(4.94952e-06 -1.47665e-06 0)
(5.28593e-06 -1.37815e-06 0)
(5.61467e-06 -1.29507e-06 0)
(5.93125e-06 -1.22463e-06 0)
(6.23812e-06 -1.16442e-06 0)
(6.53572e-06 -1.11166e-06 0)
(6.8252e-06 -1.06432e-06 0)
(7.10745e-06 -1.02051e-06 0)
(7.3834e-06 -9.78626e-07 0)
(7.65382e-06 -9.37264e-07 0)
(7.91937e-06 -8.95182e-07 0)
(8.18053e-06 -8.51234e-07 0)
(8.4378e-06 -8.04334e-07 0)
(8.69159e-06 -7.53404e-07 0)
(8.94214e-06 -6.97262e-07 0)
(9.18968e-06 -6.3471e-07 0)
(9.43455e-06 -5.64289e-07 0)
(9.67641e-06 -4.84531e-07 0)
(9.91621e-06 -3.93257e-07 0)
(1.01526e-05 -2.89309e-07 0)
(4.58337e-06 -1.72732e-06 0)
(4.9425e-06 -1.60718e-06 0)
(5.28908e-06 -1.5091e-06 0)
(5.62339e-06 -1.42425e-06 0)
(5.9467e-06 -1.35078e-06 0)
(6.25992e-06 -1.28591e-06 0)
(6.56411e-06 -1.2275e-06 0)
(6.86017e-06 -1.17361e-06 0)
(7.14902e-06 -1.1225e-06 0)
(7.43143e-06 -1.07267e-06 0)
(7.70809e-06 -1.02273e-06 0)
(7.97952e-06 -9.71418e-07 0)
(8.24634e-06 -9.17517e-07 0)
(8.50897e-06 -8.59827e-07 0)
(8.76777e-06 -7.97063e-07 0)
(9.02308e-06 -7.27926e-07 0)
(9.27529e-06 -6.50866e-07 0)
(9.52432e-06 -5.64353e-07 0)
(9.77112e-06 -4.66159e-07 0)
(1.00148e-05 -3.55082e-07 0)
(4.37433e-06 -1.93086e-06 0)
(4.73557e-06 -1.8058e-06 0)
(5.08519e-06 -1.69911e-06 0)
(5.42417e-06 -1.60522e-06 0)
(5.75277e-06 -1.5224e-06 0)
(6.07163e-06 -1.44826e-06 0)
(6.38154e-06 -1.38081e-06 0)
(6.68322e-06 -1.3182e-06 0)
(6.97745e-06 -1.25876e-06 0)
(7.2649e-06 -1.201e-06 0)
(7.5462e-06 -1.14353e-06 0)
(7.82188e-06 -1.08507e-06 0)
(8.09254e-06 -1.02436e-06 0)
(8.35864e-06 -9.60198e-07 0)
(8.62053e-06 -8.91267e-07 0)
(8.87868e-06 -8.16266e-07 0)
(9.13345e-06 -7.33665e-07 0)
(9.38502e-06 -6.41985e-07 0)
(9.63428e-06 -5.39108e-07 0)
(9.88077e-06 -4.2387e-07 0)
(4.19589e-06 -2.12615e-06 0)
(4.55339e-06 -1.99829e-06 0)
(4.90229e-06 -1.88607e-06 0)
(5.24197e-06 -1.78527e-06 0)
(5.57258e-06 -1.69468e-06 0)
(5.89419e-06 -1.61241e-06 0)
(6.20735e-06 -1.5367e-06 0)
(6.51253e-06 -1.46591e-06 0)
(6.81033e-06 -1.39851e-06 0)
(7.1013e-06 -1.33305e-06 0)
(7.38598e-06 -1.26819e-06 0)
(7.66485e-06 -1.20266e-06 0)
(7.93851e-06 -1.13523e-06 0)
(8.20739e-06 -1.06466e-06 0)
(8.47184e-06 -9.89694e-07 0)
(8.7324e-06 -9.0903e-07 0)
(8.98944e-06 -8.21199e-07 0)
(9.24332e-06 -7.24801e-07 0)
(9.49485e-06 -6.17848e-07 0)
(9.74396e-06 -4.99223e-07 0)
(4.03864e-06 -2.31393e-06 0)
(4.39082e-06 -2.18473e-06 0)
(4.73663e-06 -2.06849e-06 0)
(5.07459e-06 -1.96215e-06 0)
(5.40482e-06 -1.86497e-06 0)
(5.72699e-06 -1.77553e-06 0)
(6.04144e-06 -1.69237e-06 0)
(6.34836e-06 -1.61406e-06 0)
(6.6482e-06 -1.53921e-06 0)
(6.94139e-06 -1.46647e-06 0)
(7.22834e-06 -1.39458e-06 0)
(7.50947e-06 -1.3223e-06 0)
(7.78535e-06 -1.24843e-06 0)
(8.05637e-06 -1.17179e-06 0)
(8.32289e-06 -1.09113e-06 0)
(8.58547e-06 -1.00521e-06 0)
(8.84448e-06 -9.12641e-07 0)
(9.10041e-06 -8.12114e-07 0)
(9.35402e-06 -7.01774e-07 0)
(9.60554e-06 -5.80609e-07 0)
(3.89996e-06 -2.49383e-06 0)
(4.24552e-06 -2.36428e-06 0)
(4.5865e-06 -2.24542e-06 0)
(4.92097e-06 -2.13492e-06 0)
(5.24899e-06 -2.03243e-06 0)
(5.56996e-06 -1.93692e-06 0)
(5.88404e-06 -1.84723e-06 0)
(6.19119e-06 -1.76216e-06 0)
(6.49172e-06 -1.68048e-06 0)
(6.78593e-06 -1.60099e-06 0)
(7.07414e-06 -1.52249e-06 0)
(7.35667e-06 -1.44383e-06 0)
(7.63406e-06 -1.36388e-06 0)
(7.90663e-06 -1.2815e-06 0)
(8.17473e-06 -1.19549e-06 0)
(8.43896e-06 -1.1047e-06 0)
(8.69964e-06 -1.00784e-06 0)
(8.95736e-06 -9.03674e-07 0)
(9.21284e-06 -7.90522e-07 0)
(9.46656e-06 -6.67566e-07 0)
(3.77649e-06 -2.66594e-06 0)
(4.11476e-06 -2.53685e-06 0)
(4.4499e-06 -2.41635e-06 0)
(4.77965e-06 -2.30274e-06 0)
(5.10413e-06 -2.19599e-06 0)
(5.42256e-06 -2.09538e-06 0)
(5.73494e-06 -2.00004e-06 0)
(6.04108e-06 -1.90899e-06 0)
(6.34117e-06 -1.82116e-06 0)
(6.63539e-06 -1.7355e-06 0)
(6.92395e-06 -1.65092e-06 0)
(7.20713e-06 -1.56636e-06 0)
(7.48537e-06 -1.48078e-06 0)
(7.75893e-06 -1.39309e-06 0)
(8.02819e-06 -1.30219e-06 0)
(8.29367e-06 -1.20698e-06 0)
(8.55574e-06 -1.10629e-06 0)
(8.81499e-06 -9.98991e-07 0)
(9.07212e-06 -8.83616e-07 0)
(9.32781e-06 -7.59563e-07 0)
(3.6657e-06 -2.83055e-06 0)
(3.99627e-06 -2.70245e-06 0)
(4.32492e-06 -2.58109e-06 0)
(4.64913e-06 -2.46527e-06 0)
(4.96914e-06 -2.35521e-06 0)
(5.28403e-06 -2.25042e-06 0)
(5.59371e-06 -2.15028e-06 0)
(5.89787e-06 -2.05402e-06 0)
(6.19659e-06 -1.96074e-06 0)
(6.48998e-06 -1.86954e-06 0)
(6.77815e-06 -1.77945e-06 0)
(7.06129e-06 -1.68953e-06 0)
(7.33981e-06 -1.5988e-06 0)
(7.61388e-06 -1.50626e-06 0)
(7.88388e-06 -1.4109e-06 0)
(8.15028e-06 -1.31171e-06 0)
(8.41342e-06 -1.20763e-06 0)
(8.67397e-06 -1.09768e-06 0)
(8.93255e-06 -9.80631e-07 0)
(9.18994e-06 -8.56007e-07 0)
(3.56528e-06 -2.98801e-06 0)
(3.88806e-06 -2.86127e-06 0)
(4.20981e-06 -2.73963e-06 0)
(4.528e-06 -2.62234e-06 0)
(4.8429e-06 -2.50973e-06 0)
(5.15354e-06 -2.40155e-06 0)
(5.45976e-06 -2.29739e-06 0)
(5.76119e-06 -2.19665e-06 0)
(6.05782e-06 -2.09862e-06 0)
(6.3497e-06 -2.00253e-06 0)
(6.63685e-06 -1.90753e-06 0)
(6.9194e-06 -1.81278e-06 0)
(7.19769e-06 -1.71742e-06 0)
(7.47184e-06 -1.62051e-06 0)
(7.7422e-06 -1.52115e-06 0)
(8.00919e-06 -1.41843e-06 0)
(8.27316e-06 -1.31141e-06 0)
(8.53477e-06 -1.19927e-06 0)
(8.79457e-06 -1.08103e-06 0)
(9.05341e-06 -9.56205e-07 0)
(3.47318e-06 -3.13879e-06 0)
(3.78824e-06 -3.01364e-06 0)
(4.10293e-06 -2.89217e-06 0)
(4.41483e-06 -2.77395e-06 0)
(4.72422e-06 -2.65945e-06 0)
(5.03013e-06 -2.54857e-06 0)
(5.33238e-06 -2.44108e-06 0)
(5.63052e-06 -2.33655e-06 0)
(5.92453e-06 -2.23442e-06 0)
(6.21437e-06 -2.13407e-06 0)
(6.49999e-06 -2.03475e-06 0)
(6.78149e-06 -1.93574e-06 0)
(7.05913e-06 -1.83626e-06 0)
(7.33299e-06 -1.73547e-06 0)
(7.60338e-06 -1.63257e-06 0)
(7.8707e-06 -1.52676e-06 0)
(8.13526e-06 -1.41726e-06 0)
(8.39772e-06 -1.30337e-06 0)
(8.65852e-06 -1.18428e-06 0)
(8.91857e-06 -1.05957e-06 0)
(3.38759e-06 -3.28339e-06 0)
(3.69509e-06 -3.15995e-06 0)
(4.00273e-06 -3.03894e-06 0)
(4.30825e-06 -2.92021e-06 0)
(4.61191e-06 -2.80432e-06 0)
(4.91281e-06 -2.69132e-06 0)
(5.21074e-06 -2.58112e-06 0)
(5.50524e-06 -2.47343e-06 0)
(5.79624e-06 -2.36783e-06 0)
(6.08365e-06 -2.26383e-06 0)
(6.36737e-06 -2.16078e-06 0)
(6.64745e-06 -2.05807e-06 0)
(6.92411e-06 -1.95499e-06 0)
(7.19737e-06 -1.85082e-06 0)
(7.46754e-06 -1.74484e-06 0)
(7.73496e-06 -1.6364e-06 0)
(7.99991e-06 -1.52483e-06 0)
(8.263e-06 -1.40956e-06 0)
(8.5246e-06 -1.28988e-06 0)
(8.78564e-06 -1.1656e-06 0)
(3.30691e-06 -3.42233e-06 0)
(3.60707e-06 -3.30062e-06 0)
(3.90777e-06 -3.18024e-06 0)
(4.20692e-06 -3.06131e-06 0)
(4.50479e-06 -2.94446e-06 0)
(4.80056e-06 -2.82982e-06 0)
(5.09399e-06 -2.71746e-06 0)
(5.38463e-06 -2.60719e-06 0)
(5.67237e-06 -2.49873e-06 0)
(5.95709e-06 -2.39165e-06 0)
(6.23864e-06 -2.28544e-06 0)
(6.51704e-06 -2.17955e-06 0)
(6.79247e-06 -2.07338e-06 0)
(7.06491e-06 -1.96629e-06 0)
(7.33465e-06 -1.85771e-06 0)
(7.60199e-06 -1.74705e-06 0)
(7.86715e-06 -1.63379e-06 0)
(8.13068e-06 -1.51741e-06 0)
(8.39292e-06 -1.3974e-06 0)
(8.65474e-06 -1.27377e-06 0)
(3.22969e-06 -3.55608e-06 0)
(3.52277e-06 -3.43604e-06 0)
(3.81668e-06 -3.31641e-06 0)
(4.10959e-06 -3.19751e-06 0)
(4.40173e-06 -3.08003e-06 0)
(4.69237e-06 -2.96421e-06 0)
(4.98125e-06 -2.85018e-06 0)
(5.26793e-06 -2.73785e-06 0)
(5.55228e-06 -2.62704e-06 0)
(5.83416e-06 -2.51741e-06 0)
(6.11337e-06 -2.40854e-06 0)
(6.38993e-06 -2.29997e-06 0)
(6.66396e-06 -2.19118e-06 0)
(6.93544e-06 -2.08166e-06 0)
(7.2046e-06 -1.97089e-06 0)
(7.47171e-06 -1.85842e-06 0)
(7.73692e-06 -1.74377e-06 0)
(8.00074e-06 -1.62655e-06 0)
(8.26346e-06 -1.50647e-06 0)
(8.52589e-06 -1.38353e-06 0)
(3.1546e-06 -3.68509e-06 0)
(3.44087e-06 -3.56658e-06 0)
(3.72825e-06 -3.44777e-06 0)
(4.0151e-06 -3.3291e-06 0)
(4.30166e-06 -3.21129e-06 0)
(4.58725e-06 -3.09463e-06 0)
(4.87164e-06 -2.97935e-06 0)
(5.15436e-06 -2.8654e-06 0)
(5.43529e-06 -2.75273e-06 0)
(5.71427e-06 -2.64103e-06 0)
(5.99108e-06 -2.52999e-06 0)
(6.26571e-06 -2.41923e-06 0)
(6.53827e-06 -2.30831e-06 0)
(6.8087e-06 -2.19679e-06 0)
(7.07719e-06 -2.08426e-06 0)
(7.34396e-06 -1.9703e-06 0)
(7.60908e-06 -1.85454e-06 0)
(7.87308e-06 -1.73671e-06 0)
(8.13614e-06 -1.61673e-06 0)
(8.39901e-06 -1.49451e-06 0)
(3.08039e-06 -3.80969e-06 0)
(3.36016e-06 -3.69267e-06 0)
(3.64128e-06 -3.5747e-06 0)
(3.92233e-06 -3.4564e-06 0)
(4.20352e-06 -3.33848e-06 0)
(4.48424e-06 -3.22129e-06 0)
(4.76426e-06 -3.10512e-06 0)
(5.04313e-06 -2.98999e-06 0)
(5.32071e-06 -2.87588e-06 0)
(5.59681e-06 -2.76258e-06 0)
(5.87124e-06 -2.64983e-06 0)
(6.14396e-06 -2.53732e-06 0)
(6.41504e-06 -2.42469e-06 0)
(6.68439e-06 -2.31157e-06 0)
(6.95215e-06 -2.19761e-06 0)
(7.21848e-06 -2.08247e-06 0)
(7.48345e-06 -1.96586e-06 0)
(7.74754e-06 -1.84767e-06 0)
(8.01084e-06 -1.72782e-06 0)
(8.27401e-06 -1.60636e-06 0)
(3.00586e-06 -3.93031e-06 0)
(3.27946e-06 -3.81465e-06 0)
(3.55463e-06 -3.69755e-06 0)
(3.83018e-06 -3.57973e-06 0)
(4.10627e-06 -3.4619e-06 0)
(4.38238e-06 -3.34448e-06 0)
(4.65824e-06 -3.22774e-06 0)
(4.93345e-06 -3.11179e-06 0)
(5.20782e-06 -2.99662e-06 0)
(5.4812e-06 -2.88211e-06 0)
(5.75335e-06 -2.76806e-06 0)
(6.02423e-06 -2.65422e-06 0)
(6.29388e-06 -2.54028e-06 0)
(6.56215e-06 -2.42592e-06 0)
(6.82914e-06 -2.31085e-06 0)
(7.09501e-06 -2.19479e-06 0)
(7.35981e-06 -2.07758e-06 0)
(7.6239e-06 -1.95918e-06 0)
(7.88734e-06 -1.83947e-06 0)
(8.15068e-06 -1.71871e-06 0)
(2.92987e-06 -4.04727e-06 0)
(3.1976e-06 -3.933e-06 0)
(3.46711e-06 -3.81665e-06 0)
(3.73755e-06 -3.69939e-06 0)
(4.0089e-06 -3.58187e-06 0)
(4.28075e-06 -3.46444e-06 0)
(4.55276e-06 -3.34742e-06 0)
(4.82455e-06 -3.23095e-06 0)
(5.09597e-06 -3.11509e-06 0)
(5.36683e-06 -2.99975e-06 0)
(5.6369e-06 -2.88478e-06 0)
(5.90608e-06 -2.76998e-06 0)
(6.17436e-06 -2.65507e-06 0)
(6.44158e-06 -2.53978e-06 0)
(6.70783e-06 -2.42388e-06 0)
(6.97328e-06 -2.30718e-06 0)
(7.23788e-06 -2.18958e-06 0)
(7.50191e-06 -2.07099e-06 0)
(7.76537e-06 -1.95149e-06 0)
(8.02877e-06 -1.83131e-06 0)
(2.85123e-06 -4.161e-06 0)
(3.11322e-06 -4.04768e-06 0)
(3.37736e-06 -3.93238e-06 0)
(3.6433e-06 -3.81592e-06 0)
(3.91036e-06 -3.69882e-06 0)
(4.17838e-06 -3.58157e-06 0)
(4.44694e-06 -3.46452e-06 0)
(4.71571e-06 -3.34782e-06 0)
(4.98451e-06 -3.23158e-06 0)
(5.25318e-06 -3.11574e-06 0)
(5.5214e-06 -3.00018e-06 0)
(5.78903e-06 -2.88471e-06 0)
(6.05606e-06 -2.76912e-06 0)
(6.32233e-06 -2.65319e-06 0)
(6.58796e-06 -2.53674e-06 0)
(6.85301e-06 -2.4196e-06 0)
(7.11733e-06 -2.3017e-06 0)
(7.38117e-06 -2.18296e-06 0)
(7.64463e-06 -2.06369e-06 0)
(7.90821e-06 -1.944e-06 0)
(2.76806e-06 -4.27131e-06 0)
(3.02519e-06 -4.15916e-06 0)
(3.28492e-06 -4.04513e-06 0)
(3.5465e-06 -3.92948e-06 0)
(3.80978e-06 -3.81299e-06 0)
(4.07442e-06 -3.69614e-06 0)
(4.34003e-06 -3.57928e-06 0)
(4.60627e-06 -3.46264e-06 0)
(4.87293e-06 -3.3463e-06 0)
(5.13975e-06 -3.23023e-06 0)
(5.40635e-06 -3.11433e-06 0)
(5.67264e-06 -2.99848e-06 0)
(5.93866e-06 -2.8825e-06 0)
(6.20421e-06 -2.76617e-06 0)
(6.46924e-06 -2.64935e-06 0)
(6.73372e-06 -2.53192e-06 0)
(6.99773e-06 -2.4138e-06 0)
(7.26158e-06 -2.29505e-06 0)
(7.52499e-06 -2.1759e-06 0)
(7.78833e-06 -2.05656e-06 0)
(2.67928e-06 -4.37947e-06 0)
(2.93196e-06 -4.26869e-06 0)
(3.18763e-06 -4.15561e-06 0)
(3.44565e-06 -4.04087e-06 0)
(3.70583e-06 -3.92511e-06 0)
(3.96781e-06 -3.80883e-06 0)
(4.23122e-06 -3.69239e-06 0)
(4.4956e-06 -3.57598e-06 0)
(4.7606e-06 -3.45971e-06 0)
(5.02594e-06 -3.34361e-06 0)
(5.29137e-06 -3.22761e-06 0)
(5.55679e-06 -3.11159e-06 0)
(5.82202e-06 -2.99538e-06 0)
(6.08674e-06 -2.87881e-06 0)
(6.35117e-06 -2.76177e-06 0)
(6.61536e-06 -2.64414e-06 0)
(6.87908e-06 -2.52588e-06 0)
(7.14266e-06 -2.40714e-06 0)
(7.40602e-06 -2.28806e-06 0)
(7.66929e-06 -2.16894e-06 0)
(2.58369e-06 -4.48455e-06 0)
(2.83243e-06 -4.37529e-06 0)
(3.0847e-06 -4.2636e-06 0)
(3.33992e-06 -4.15003e-06 0)
(3.59789e-06 -4.03528e-06 0)
(3.85814e-06 -3.91982e-06 0)
(4.12008e-06 -3.80398e-06 0)
(4.38314e-06 -3.68799e-06 0)
(4.6471e-06 -3.57202e-06 0)
(4.91172e-06 -3.45608e-06 0)
(5.17647e-06 -3.34012e-06 0)
(5.44111e-06 -3.22406e-06 0)
(5.70569e-06 -3.10775e-06 0)
(5.96995e-06 -2.99106e-06 0)
(6.23384e-06 -2.87391e-06 0)
(6.49755e-06 -2.75617e-06 0)
(6.76097e-06 -2.63788e-06 0)
(7.02428e-06 -2.51909e-06 0)
(7.28754e-06 -2.40002e-06 0)
(7.55059e-06 -2.28098e-06 0)
(1.90307e-07 -3.84334e-06 0)
(5.73471e-07 -3.78712e-06 0)
(9.64321e-07 -3.6767e-06 0)
(1.36709e-06 -3.51678e-06 0)
(1.78532e-06 -3.31327e-06 0)
(2.22125e-06 -3.07396e-06 0)
(2.67571e-06 -2.80744e-06 0)
(3.14796e-06 -2.52285e-06 0)
(3.63633e-06 -2.22941e-06 0)
(4.13703e-06 -1.93445e-06 0)
(1.85225e-07 -3.9067e-06 0)
(5.57803e-07 -3.85542e-06 0)
(9.36763e-07 -3.75453e-06 0)
(1.32562e-06 -3.60812e-06 0)
(1.72732e-06 -3.42116e-06 0)
(2.14382e-06 -3.20027e-06 0)
(2.57576e-06 -2.95281e-06 0)
(3.02248e-06 -2.68662e-06 0)
(3.48156e-06 -2.41018e-06 0)
(3.95035e-06 -2.12951e-06 0)
(1.80698e-07 -3.97188e-06 0)
(5.43824e-07 -3.92505e-06 0)
(9.12076e-07 -3.83279e-06 0)
(1.28832e-06 -3.69871e-06 0)
(1.67496e-06 -3.5271e-06 0)
(2.07361e-06 -3.32361e-06 0)
(2.48492e-06 -3.09461e-06 0)
(2.90879e-06 -2.84662e-06 0)
(3.34334e-06 -2.58713e-06 0)
(3.78708e-06 -2.31982e-06 0)
(1.76603e-07 -4.03884e-06 0)
(5.31282e-07 -3.99579e-06 0)
(8.90151e-07 -3.91086e-06 0)
(1.25558e-06 -3.78729e-06 0)
(1.62956e-06 -3.62879e-06 0)
(2.01334e-06 -3.44031e-06 0)
(2.4074e-06 -3.22752e-06 0)
(2.81164e-06 -2.99613e-06 0)
(3.22442e-06 -2.75318e-06 0)
(3.6445e-06 -2.50133e-06 0)
(1.7281e-07 -4.10751e-06 0)
(5.19611e-07 -4.06782e-06 0)
(8.69879e-07 -3.98943e-06 0)
(1.2255e-06 -3.87526e-06 0)
(1.58813e-06 -3.72864e-06 0)
(1.95878e-06 -3.55387e-06 0)
(2.33786e-06 -3.35604e-06 0)
(2.7253e-06 -3.14004e-06 0)
(3.11989e-06 -2.91225e-06 0)
(3.51971e-06 -2.67502e-06 0)
(1.69285e-07 -4.17775e-06 0)
(5.08747e-07 -4.14095e-06 0)
(8.51125e-07 -4.06829e-06 0)
(1.19791e-06 -3.96229e-06 0)
(1.55047e-06 -3.82606e-06 0)
(1.90964e-06 -3.6634e-06 0)
(2.27567e-06 -3.47895e-06 0)
(2.64838e-06 -3.27709e-06 0)
(3.0271e-06 -3.06356e-06 0)
(3.40927e-06 -2.84073e-06 0)
(1.65869e-07 -4.24946e-06 0)
(4.98362e-07 -4.21523e-06 0)
(8.33287e-07 -4.14767e-06 0)
(1.17186e-06 -4.04896e-06 0)
(1.51527e-06 -3.92204e-06 0)
(1.86414e-06 -3.7703e-06 0)
(2.21874e-06 -3.59795e-06 0)
(2.57864e-06 -3.40896e-06 0)
(2.94364e-06 -3.20838e-06 0)
(3.31065e-06 -2.99891e-06 0)
(1.62552e-07 -4.32246e-06 0)
(4.88343e-07 -4.29049e-06 0)
(8.16155e-07 -4.22743e-06 0)
(1.14705e-06 -4.13518e-06 0)
(1.48206e-06 -4.01652e-06 0)
(1.82161e-06 -3.87456e-06 0)
(2.16597e-06 -3.7131e-06 0)
(2.51455e-06 -3.5358e-06 0)
(2.86751e-06 -3.34712e-06 0)
(3.22148e-06 -3.15002e-06 0)
(1.59331e-07 -4.39662e-06 0)
(4.78516e-07 -4.36666e-06 0)
(7.99421e-07 -4.30763e-06 0)
(1.12299e-06 -4.22119e-06 0)
(1.45012e-06 -4.10994e-06 0)
(1.78113e-06 -3.97676e-06 0)
(2.11625e-06 -3.82511e-06 0)
(2.45477e-06 -3.65837e-06 0)
(2.79708e-06 -3.4805e-06 0)
(3.13976e-06 -3.29471e-06 0)
(1.56134e-07 -4.47175e-06 0)
(4.68745e-07 -4.44357e-06 0)
(7.82882e-07 -4.38813e-06 0)
(1.09941e-06 -4.30691e-06 0)
(1.41904e-06 -4.20233e-06 0)
(1.74208e-06 -4.07704e-06 0)
(2.06872e-06 -3.93422e-06 0)
(2.39816e-06 -3.77706e-06 0)
(2.73092e-06 -3.60907e-06 0)
(3.06371e-06 -3.43357e-06 0)
(1.52872e-07 -4.54767e-06 0)
(4.58903e-07 -4.52107e-06 0)
(7.66338e-07 -4.46889e-06 0)
(1.07596e-06 -4.39239e-06 0)
(1.38836e-06 -4.29382e-06 0)
(1.70382e-06 -4.17567e-06 0)
(2.02255e-06 -4.04083e-06 0)
(2.3437e-06 -3.89236e-06 0)
(2.66779e-06 -3.73335e-06 0)
(2.99182e-06 -3.56716e-06 0)
(1.4953e-07 -4.62413e-06 0)
(4.48928e-07 -4.59899e-06 0)
(7.49637e-07 -4.54976e-06 0)
(1.05236e-06 -4.47756e-06 0)
(1.35767e-06 -4.38444e-06 0)
(1.66582e-06 -4.27274e-06 0)
(1.97703e-06 -4.14515e-06 0)
(2.29045e-06 -4.00456e-06 0)
(2.60658e-06 -3.85372e-06 0)
(2.92272e-06 -3.69594e-06 0)
(1.46117e-07 -4.70097e-06 0)
(4.38731e-07 -4.67719e-06 0)
(7.3258e-07 -4.63064e-06 0)
(1.02831e-06 -4.56234e-06 0)
(1.32656e-06 -4.47419e-06 0)
(1.62754e-06 -4.36836e-06 0)
(1.93148e-06 -4.24737e-06 0)
(2.23758e-06 -4.11393e-06 0)
(2.54626e-06 -3.97051e-06 0)
(2.8552e-06 -3.82036e-06 0)
(1.42605e-07 -4.77794e-06 0)
(4.28171e-07 -4.75543e-06 0)
(7.14929e-07 -4.71132e-06 0)
(1.00352e-06 -4.64659e-06 0)
(1.29464e-06 -4.56297e-06 0)
(1.58847e-06 -4.46253e-06 0)
(1.88524e-06 -4.34758e-06 0)
(2.18426e-06 -4.22065e-06 0)
(2.48588e-06 -4.08402e-06 0)
(2.78809e-06 -3.94081e-06 0)
(1.3892e-07 -4.85486e-06 0)
(4.17069e-07 -4.83352e-06 0)
(6.96423e-07 -4.79164e-06 0)
(9.77639e-07 -4.73021e-06 0)
(1.26143e-06 -4.65078e-06 0)
(1.54801e-06 -4.5553e-06 0)
(1.83761e-06 -4.44589e-06 0)
(2.12967e-06 -4.32492e-06 0)
(2.42446e-06 -4.19455e-06 0)
(2.72027e-06 -4.05764e-06 0)
(1.34988e-07 -4.9313e-06 0)
(4.0527e-07 -4.91106e-06 0)
(6.76819e-07 -4.87127e-06 0)
(9.50314e-07 -4.8129e-06 0)
(1.22647e-06 -4.73736e-06 0)
(1.50558e-06 -4.64647e-06 0)
(1.78789e-06 -4.54218e-06 0)
(2.07298e-06 -4.42675e-06 0)
(2.36104e-06 -4.30217e-06 0)
(2.65065e-06 -4.17102e-06 0)
(1.30758e-07 -5.00716e-06 0)
(3.92623e-07 -4.98797e-06 0)
(6.55841e-07 -4.95013e-06 0)
(9.21129e-07 -4.89462e-06 0)
(1.18923e-06 -4.82274e-06 0)
(1.46051e-06 -4.73617e-06 0)
(1.73529e-06 -4.6367e-06 0)
(2.01325e-06 -4.52647e-06 0)
(2.29454e-06 -4.40722e-06 0)
(2.57796e-06 -4.28147e-06 0)
(1.26189e-07 -5.08159e-06 0)
(3.78973e-07 -5.0634e-06 0)
(6.33204e-07 -5.02743e-06 0)
(8.89672e-07 -4.97465e-06 0)
(1.14917e-06 -4.90625e-06 0)
(1.41215e-06 -4.82378e-06 0)
(1.67899e-06 -4.72891e-06 0)
(1.94949e-06 -4.62361e-06 0)
(2.22375e-06 -4.50942e-06 0)
(2.50093e-06 -4.38875e-06 0)
(1.21201e-07 -5.15502e-06 0)
(3.64055e-07 -5.13777e-06 0)
(6.08459e-07 -5.10363e-06 0)
(8.55302e-07 -5.05349e-06 0)
(1.10545e-06 -4.98845e-06 0)
(1.35947e-06 -4.90995e-06 0)
(1.6178e-06 -4.81952e-06 0)
(1.88035e-06 -4.7189e-06 0)
(2.14723e-06 -4.60964e-06 0)
(2.41792e-06 -4.49379e-06 0)
(1.15749e-07 -5.22519e-06 0)
(3.4774e-07 -5.20884e-06 0)
(5.81383e-07 -5.17652e-06 0)
(8.17714e-07 -5.12902e-06 0)
(1.05769e-06 -5.06733e-06 0)
(1.30197e-06 -4.99279e-06 0)
(1.55105e-06 -4.90677e-06 0)
(1.805e-06 -4.81085e-06 0)
(2.06405e-06 -4.70653e-06 0)
(2.32792e-06 -4.59558e-06 0)
)


// ************************************************************************* //
