/*--------------------------------*- C++ -*----------------------------------*\
| =========                 |                                                 |
| \\      /  F ield         | foam-extend: Open Source CFD                    |
|  \\    /   O peration     | Version:     4.1                                |
|   \\  /    A nd           | Web:         http://www.foam-extend.org         |
|    \\/     M anipulation  |                                                 |
\*---------------------------------------------------------------------------*/
FoamFile
{
    version     2.0;
    format      ascii;
    class       vectorField;
    location    "9";
    object      solidsCellD_iteration18;
}
// * * * * * * * * * * * * * * * * * * * * * * * * * * * * * * * * * * * * * //


1000
(
(4.73109e-06 -2.04643e-06 0)
(4.45889e-06 -1.90189e-06 0)
(4.284e-06 -1.80912e-06 0)
(4.18261e-06 -1.76448e-06 0)
(4.13184e-06 -1.74725e-06 0)
(4.11793e-06 -1.75122e-06 0)
(4.13118e-06 -1.76898e-06 0)
(4.16484e-06 -1.79694e-06 0)
(4.21373e-06 -1.83189e-06 0)
(4.27514e-06 -1.8716e-06 0)
(4.27698e-06 -2.23519e-06 0)
(3.98717e-06 -2.13355e-06 0)
(3.80127e-06 -2.06786e-06 0)
(3.69181e-06 -2.04157e-06 0)
(3.63488e-06 -2.03648e-06 0)
(3.61551e-06 -2.04901e-06 0)
(3.62357e-06 -2.07288e-06 0)
(3.65186e-06 -2.10539e-06 0)
(3.69507e-06 -2.14414e-06 0)
(3.74937e-06 -2.18611e-06 0)
(3.80546e-06 -2.41414e-06 0)
(3.50943e-06 -2.36048e-06 0)
(3.31979e-06 -2.32512e-06 0)
(3.20692e-06 -2.31917e-06 0)
(3.14669e-06 -2.32739e-06 0)
(3.12358e-06 -2.34911e-06 0)
(3.12739e-06 -2.37938e-06 0)
(3.15082e-06 -2.4165e-06 0)
(3.18852e-06 -2.45892e-06 0)
(3.23664e-06 -2.50346e-06 0)
(3.31998e-06 -2.58009e-06 0)
(3.03009e-06 -2.57676e-06 0)
(2.84454e-06 -2.57328e-06 0)
(2.73322e-06 -2.5886e-06 0)
(2.67276e-06 -2.61066e-06 0)
(2.64775e-06 -2.64185e-06 0)
(2.64833e-06 -2.67859e-06 0)
(2.66738e-06 -2.72032e-06 0)
(2.69989e-06 -2.76623e-06 0)
(2.74181e-06 -2.81351e-06 0)
(2.82382e-06 -2.72976e-06 0)
(2.55239e-06 -2.77636e-06 0)
(2.37881e-06 -2.8045e-06 0)
(2.2741e-06 -2.84084e-06 0)
(2.2165e-06 -2.87652e-06 0)
(2.19143e-06 -2.91701e-06 0)
(2.18982e-06 -2.96004e-06 0)
(2.205e-06 -3.00626e-06 0)
(2.23248e-06 -3.0555e-06 0)
(2.26818e-06 -3.10559e-06 0)
(2.3195e-06 -2.86011e-06 0)
(2.07852e-06 -2.95344e-06 0)
(1.9245e-06 -3.01121e-06 0)
(1.83118e-06 -3.0672e-06 0)
(1.77936e-06 -3.11559e-06 0)
(1.75602e-06 -3.16471e-06 0)
(1.75323e-06 -3.21355e-06 0)
(1.76498e-06 -3.26393e-06 0)
(1.78747e-06 -3.31623e-06 0)
(1.81682e-06 -3.36905e-06 0)
(1.80935e-06 -2.9682e-06 0)
(1.60953e-06 -3.10247e-06 0)
(1.48186e-06 -3.18622e-06 0)
(1.40426e-06 -3.25943e-06 0)
(1.3609e-06 -3.31895e-06 0)
(1.34092e-06 -3.3756e-06 0)
(1.33779e-06 -3.4295e-06 0)
(1.34649e-06 -3.48353e-06 0)
(1.36398e-06 -3.53846e-06 0)
(1.38688e-06 -3.59376e-06 0)
(1.29511e-06 -3.05159e-06 0)
(1.14547e-06 -3.21875e-06 0)
(1.04989e-06 -3.32337e-06 0)
(9.91681e-07 -3.41038e-06 0)
(9.59018e-07 -3.47883e-06 0)
(9.43721e-07 -3.54154e-06 0)
(9.40933e-07 -3.59952e-06 0)
(9.46887e-07 -3.6565e-06 0)
(9.5939e-07 -3.71355e-06 0)
(9.75771e-07 -3.77092e-06 0)
(7.78224e-07 -3.10829e-06 0)
(6.85579e-07 -3.29844e-06 0)
(6.26425e-07 -3.41764e-06 0)
(5.90319e-07 -3.51433e-06 0)
(5.69972e-07 -3.58902e-06 0)
(5.60336e-07 -3.65597e-06 0)
(5.58439e-07 -3.71681e-06 0)
(5.61916e-07 -3.77589e-06 0)
(5.69413e-07 -3.83444e-06 0)
(5.79241e-07 -3.8933e-06 0)
(2.59904e-07 -3.13686e-06 0)
(2.28516e-07 -3.33891e-06 0)
(2.08415e-07 -3.46561e-06 0)
(1.96129e-07 -3.56729e-06 0)
(1.89212e-07 -3.64521e-06 0)
(1.85903e-07 -3.71436e-06 0)
(1.85183e-07 -3.77665e-06 0)
(1.86296e-07 -3.8368e-06 0)
(1.88791e-07 -3.89614e-06 0)
(1.92056e-07 -3.95578e-06 0)
(7.3941e-06 -9.34378e-08 0)
(7.4618e-06 -6.72501e-08 0)
(7.50175e-06 -5.05878e-08 0)
(7.5443e-06 -4.07346e-08 0)
(7.59026e-06 -3.51845e-08 0)
(7.6468e-06 -3.25335e-08 0)
(7.71384e-06 -3.18752e-08 0)
(7.79232e-06 -3.24856e-08 0)
(7.88198e-06 -3.39994e-08 0)
(7.98165e-06 -3.58747e-08 0)
(7.33907e-06 -2.80307e-07 0)
(7.39546e-06 -2.03276e-07 0)
(7.42832e-06 -1.54313e-07 0)
(7.46614e-06 -1.25456e-07 0)
(7.50897e-06 -1.09363e-07 0)
(7.56329e-06 -1.01742e-07 0)
(7.62873e-06 -9.98693e-08 0)
(7.7059e-06 -1.01812e-07 0)
(7.79447e-06 -1.06454e-07 0)
(7.89296e-06 -1.12087e-07 0)
(7.22918e-06 -4.68757e-07 0)
(7.26403e-06 -3.45072e-07 0)
(7.28323e-06 -2.66539e-07 0)
(7.31202e-06 -2.203e-07 0)
(7.34887e-06 -1.94581e-07 0)
(7.39897e-06 -1.82624e-07 0)
(7.46131e-06 -1.79925e-07 0)
(7.53598e-06 -1.83338e-07 0)
(7.62243e-06 -1.91097e-07 0)
(7.71862e-06 -2.00527e-07 0)
(7.0664e-06 -6.59576e-07 0)
(7.07061e-06 -4.95904e-07 0)
(7.07037e-06 -3.92028e-07 0)
(7.08629e-06 -3.31129e-07 0)
(7.11464e-06 -2.97413e-07 0)
(7.15874e-06 -2.82024e-07 0)
(7.21667e-06 -2.78966e-07 0)
(7.28776e-06 -2.84084e-07 0)
(7.3712e-06 -2.94931e-07 0)
(7.46415e-06 -3.0817e-07 0)
(6.85333e-06 -8.53279e-07 0)
(6.81965e-06 -6.58481e-07 0)
(6.79537e-06 -5.34842e-07 0)
(6.79536e-06 -4.62812e-07 0)
(6.81317e-06 -4.23266e-07 0)
(6.84979e-06 -4.05742e-07 0)
(6.90225e-06 -4.02989e-07 0)
(6.9689e-06 -4.10136e-07 0)
(7.04858e-06 -4.24096e-07 0)
(7.1376e-06 -4.41151e-07 0)
(6.59322e-06 -1.04998e-06 0)
(6.51665e-06 -8.34614e-07 0)
(6.46522e-06 -6.97832e-07 0)
(6.44717e-06 -6.18852e-07 0)
(6.45301e-06 -5.76016e-07 0)
(6.48112e-06 -5.57876e-07 0)
(6.52731e-06 -5.56231e-07 0)
(6.58887e-06 -5.65791e-07 0)
(6.66418e-06 -5.82912e-07 0)
(6.74874e-06 -6.03769e-07 0)
(6.28992e-06 -1.24925e-06 0)
(6.16806e-06 -1.02501e-06 0)
(6.08797e-06 -8.82424e-07 0)
(6.05085e-06 -8.01092e-07 0)
(6.04399e-06 -7.57769e-07 0)
(6.06301e-06 -7.4071e-07 0)
(6.10245e-06 -7.41105e-07 0)
(6.15853e-06 -7.53485e-07 0)
(6.22905e-06 -7.73846e-07 0)
(6.3089e-06 -7.98457e-07 0)
(5.94759e-06 -1.45018e-06 0)
(5.78084e-06 -1.22915e-06 0)
(5.67238e-06 -1.08841e-06 0)
(5.61627e-06 -1.00956e-06 0)
(5.59672e-06 -9.68684e-07 0)
(5.60655e-06 -9.54477e-07 0)
(5.63905e-06 -9.57884e-07 0)
(5.68942e-06 -9.73575e-07 0)
(5.75483e-06 -9.97276e-07 0)
(5.82982e-06 -1.02569e-06 0)
(5.57069e-06 -1.65137e-06 0)
(5.36221e-06 -1.44538e-06 0)
(5.2274e-06 -1.314e-06 0)
(5.15355e-06 -1.24238e-06 0)
(5.12199e-06 -1.20682e-06 0)
(5.12298e-06 -1.19717e-06 0)
(5.14861e-06 -1.20458e-06 0)
(5.19326e-06 -1.22401e-06 0)
(5.25334e-06 -1.25141e-06 0)
(5.32363e-06 -1.28349e-06 0)
(5.16372e-06 -1.85092e-06 0)
(4.91933e-06 -1.6709e-06 0)
(4.76186e-06 -1.55583e-06 0)
(4.6726e-06 -1.49582e-06 0)
(4.63042e-06 -1.46827e-06 0)
(4.62335e-06 -1.46477e-06 0)
(4.64254e-06 -1.47701e-06 0)
(4.6815e-06 -1.50072e-06 0)
(4.73619e-06 -1.53184e-06 0)
(4.80168e-06 -1.56889e-06 0)
(8.09169e-06 -3.77677e-08 0)
(8.21173e-06 -3.80898e-08 0)
(8.3395e-06 -3.85053e-08 0)
(8.47457e-06 -3.87829e-08 0)
(8.61606e-06 -3.88878e-08 0)
(8.76341e-06 -3.88032e-08 0)
(8.91595e-06 -3.84597e-08 0)
(9.07311e-06 -3.78632e-08 0)
(9.23439e-06 -3.7012e-08 0)
(9.39924e-06 -3.58879e-08 0)
(9.56717e-06 -3.44581e-08 0)
(9.73765e-06 -3.26967e-08 0)
(9.91021e-06 -3.05698e-08 0)
(1.00843e-05 -2.80448e-08 0)
(1.02595e-05 -2.50828e-08 0)
(1.0435e-05 -2.16349e-08 0)
(1.06105e-05 -1.76307e-08 0)
(1.07848e-05 -1.29894e-08 0)
(1.09581e-05 -7.59408e-09 0)
(1.11275e-05 -1.39907e-09 0)
(8.00696e-06 -1.17319e-07 0)
(8.13412e-06 -1.17716e-07 0)
(8.26825e-06 -1.18478e-07 0)
(8.40884e-06 -1.18924e-07 0)
(8.55525e-06 -1.18862e-07 0)
(8.70692e-06 -1.18284e-07 0)
(8.86336e-06 -1.17036e-07 0)
(9.02406e-06 -1.15109e-07 0)
(9.18854e-06 -1.12424e-07 0)
(9.3563e-06 -1.08916e-07 0)
(9.5269e-06 -1.04504e-07 0)
(9.69987e-06 -9.91297e-08 0)
(9.87476e-06 -9.26966e-08 0)
(1.0051e-05 -8.50949e-08 0)
(1.02283e-05 -7.61891e-08 0)
(1.04058e-05 -6.58247e-08 0)
(1.05832e-05 -5.37915e-08 0)
(1.07593e-05 -3.98607e-08 0)
(1.09345e-05 -2.36764e-08 0)
(1.11056e-05 -5.10485e-09 0)
(7.84033e-06 -2.07889e-07 0)
(7.98146e-06 -2.06783e-07 0)
(8.12806e-06 -2.06452e-07 0)
(8.27942e-06 -2.05965e-07 0)
(8.43547e-06 -2.04846e-07 0)
(8.59567e-06 -2.03082e-07 0)
(8.75978e-06 -2.00346e-07 0)
(8.92735e-06 -1.96591e-07 0)
(9.09809e-06 -1.91664e-07 0)
(9.27157e-06 -1.85458e-07 0)
(9.44744e-06 -1.77837e-07 0)
(9.62529e-06 -1.68681e-07 0)
(9.80472e-06 -1.57815e-07 0)
(9.98527e-06 -1.45043e-07 0)
(1.01666e-05 -1.30134e-07 0)
(1.03479e-05 -1.12826e-07 0)
(1.05291e-05 -9.27595e-08 0)
(1.07088e-05 -6.95575e-08 0)
(1.08876e-05 -4.26133e-08 0)
(1.10623e-05 -1.17082e-08 0)
(7.59688e-06 -3.1575e-07 0)
(7.75803e-06 -3.10688e-07 0)
(7.92266e-06 -3.07012e-07 0)
(8.08968e-06 -3.03857e-07 0)
(8.25976e-06 -3.00207e-07 0)
(8.43237e-06 -2.9608e-07 0)
(8.60769e-06 -2.90895e-07 0)
(8.78535e-06 -2.84563e-07 0)
(8.96529e-06 -2.76813e-07 0)
(9.14717e-06 -2.67454e-07 0)
(9.33078e-06 -2.56261e-07 0)
(9.5158e-06 -2.43036e-07 0)
(9.70192e-06 -2.27523e-07 0)
(9.88875e-06 -2.09442e-07 0)
(1.0076e-05 -1.88463e-07 0)
(1.0263e-05 -1.6419e-07 0)
(1.04496e-05 -1.36116e-07 0)
(1.06347e-05 -1.03702e-07 0)
(1.08187e-05 -6.60787e-08 0)
(1.09987e-05 -2.29469e-08 0)
(7.28396e-06 -4.46495e-07 0)
(7.47023e-06 -4.34283e-07 0)
(7.65771e-06 -4.24339e-07 0)
(7.84457e-06 -4.16264e-07 0)
(8.03258e-06 -4.08192e-07 0)
(8.2211e-06 -4.00186e-07 0)
(8.41081e-06 -3.9133e-07 0)
(8.60147e-06 -3.81433e-07 0)
(8.79325e-06 -3.7005e-07 0)
(8.98596e-06 -3.56884e-07 0)
(9.17956e-06 -3.41612e-07 0)
(9.37384e-06 -3.23939e-07 0)
(9.56861e-06 -3.03506e-07 0)
(9.76357e-06 -2.79925e-07 0)
(9.9585e-06 -2.5275e-07 0)
(1.01529e-05 -2.21453e-07 0)
(1.03466e-05 -1.85367e-07 0)
(1.05385e-05 -1.43791e-07 0)
(1.07292e-05 -9.55964e-08 0)
(1.0916e-05 -4.03802e-08 0)
(6.91051e-06 -6.04111e-07 0)
(7.12569e-06 -5.81062e-07 0)
(7.33989e-06 -5.61411e-07 0)
(7.5501e-06 -5.45688e-07 0)
(7.75933e-06 -5.30945e-07 0)
(7.9668e-06 -5.17209e-07 0)
(8.17368e-06 -5.0317e-07 0)
(8.37991e-06 -4.88478e-07 0)
(8.58589e-06 -4.72497e-07 0)
(8.79164e-06 -4.54771e-07 0)
(8.99727e-06 -4.34849e-07 0)
(9.2027e-06 -4.12303e-07 0)
(9.40788e-06 -3.86648e-07 0)
(9.61262e-06 -3.57376e-07 0)
(9.8168e-06 -3.23901e-07 0)
(1.002e-05 -2.8556e-07 0)
(1.02222e-05 -2.4151e-07 0)
(1.04224e-05 -1.90889e-07 0)
(1.06212e-05 -1.32312e-07 0)
(1.08161e-05 -6.52227e-08 0)
(6.48698e-06 -7.91076e-07 0)
(6.73352e-06 -7.53448e-07 0)
(6.97716e-06 -7.20665e-07 0)
(7.21332e-06 -6.94381e-07 0)
(7.44627e-06 -6.70597e-07 0)
(7.67509e-06 -6.49113e-07 0)
(7.90141e-06 -6.28284e-07 0)
(8.12534e-06 -6.07456e-07 0)
(8.34752e-06 -5.85794e-07 0)
(8.56817e-06 -5.62641e-07 0)
(8.78756e-06 -5.37375e-07 0)
(9.00577e-06 -5.09414e-07 0)
(9.22289e-06 -4.7813e-07 0)
(9.43885e-06 -4.42885e-07 0)
(9.65364e-06 -4.0294e-07 0)
(9.86696e-06 -3.57488e-07 0)
(1.00789e-05 -3.05504e-07 0)
(1.02885e-05 -2.45953e-07 0)
(1.04966e-05 -1.77208e-07 0)
(1.07009e-05 -9.8547e-08 0)
(6.02399e-06 -1.0079e-06 0)
(6.30282e-06 -9.51575e-07 0)
(6.57736e-06 -9.02221e-07 0)
(6.84129e-06 -8.6213e-07 0)
(7.09979e-06 -8.26814e-07 0)
(7.35189e-06 -7.95393e-07 0)
(7.59949e-06 -7.66062e-07 0)
(7.84291e-06 -7.37713e-07 0)
(8.08298e-06 -7.09282e-07 0)
(8.3201e-06 -6.7986e-07 0)
(8.55472e-06 -6.48625e-07 0)
(8.78709e-06 -6.14799e-07 0)
(9.01743e-06 -5.77592e-07 0)
(9.24582e-06 -5.36205e-07 0)
(9.47236e-06 -4.89739e-07 0)
(9.69687e-06 -4.37222e-07 0)
(9.91951e-06 -3.77453e-07 0)
(1.01396e-05 -3.09211e-07 0)
(1.0358e-05 -2.30632e-07 0)
(1.05725e-05 -1.40825e-07 0)
(5.53306e-06 -1.25417e-06 0)
(5.84407e-06 -1.17576e-06 0)
(6.14937e-06 -1.1077e-06 0)
(6.44194e-06 -1.05105e-06 0)
(6.7267e-06 -1.00201e-06 0)
(7.00322e-06 -9.58647e-07 0)
(7.27321e-06 -9.19076e-07 0)
(7.53732e-06 -8.81712e-07 0)
(7.79647e-06 -8.45246e-07 0)
(8.05126e-06 -8.08497e-07 0)
(8.30228e-06 -7.70421e-07 0)
(8.54992e-06 -7.30039e-07 0)
(8.79456e-06 -6.86381e-07 0)
(9.03639e-06 -6.38473e-07 0)
(9.27563e-06 -5.85243e-07 0)
(9.51223e-06 -5.25546e-07 0)
(9.74647e-06 -4.58009e-07 0)
(9.97787e-06 -3.81224e-07 0)
(1.02072e-05 -2.93126e-07 0)
(1.04329e-05 -1.92668e-07 0)
(5.02338e-06 -1.52533e-06 0)
(5.3663e-06 -1.41987e-06 0)
(5.70081e-06 -1.33081e-06 0)
(6.02262e-06 -1.25497e-06 0)
(6.3342e-06 -1.18999e-06 0)
(6.63611e-06 -1.13293e-06 0)
(6.92951e-06 -1.08169e-06 0)
(7.21534e-06 -1.03426e-06 0)
(7.49455e-06 -9.88977e-07 0)
(7.76792e-06 -9.44366e-07 0)
(8.03616e-06 -8.99104e-07 0)
(8.29985e-06 -8.51977e-07 0)
(8.55946e-06 -8.01803e-07 0)
(8.81536e-06 -7.47421e-07 0)
(9.06788e-06 -6.87577e-07 0)
(9.31711e-06 -6.20952e-07 0)
(9.56345e-06 -5.46016e-07 0)
(9.80664e-06 -4.61159e-07 0)
(1.00476e-05 -3.64132e-07 0)
(1.0285e-05 -2.53695e-07 0)
(4.64815e-06 -1.78284e-06 0)
(5.01096e-06 -1.65622e-06 0)
(5.36207e-06 -1.55189e-06 0)
(5.70122e-06 -1.46109e-06 0)
(6.02929e-06 -1.38232e-06 0)
(6.34705e-06 -1.31262e-06 0)
(6.6555e-06 -1.24979e-06 0)
(6.95551e-06 -1.19181e-06 0)
(7.24799e-06 -1.13688e-06 0)
(7.53371e-06 -1.08339e-06 0)
(7.81342e-06 -1.02989e-06 0)
(8.08774e-06 -9.75034e-07 0)
(8.3572e-06 -9.17505e-07 0)
(8.62225e-06 -8.56022e-07 0)
(8.88329e-06 -7.89224e-07 0)
(9.14056e-06 -7.15686e-07 0)
(9.39453e-06 -6.33821e-07 0)
(9.64517e-06 -5.41924e-07 0)
(9.8934e-06 -4.37705e-07 0)
(1.01384e-05 -3.19871e-07 0)
(4.43218e-06 -1.99039e-06 0)
(4.79741e-06 -1.8591e-06 0)
(5.15132e-06 -1.74646e-06 0)
(5.49478e-06 -1.64673e-06 0)
(5.82783e-06 -1.55849e-06 0)
(6.15102e-06 -1.47929e-06 0)
(6.46504e-06 -1.40714e-06 0)
(6.77056e-06 -1.34014e-06 0)
(7.06834e-06 -1.27655e-06 0)
(7.35905e-06 -1.2148e-06 0)
(7.64338e-06 -1.15345e-06 0)
(7.92191e-06 -1.09113e-06 0)
(8.19517e-06 -1.02649e-06 0)
(8.46363e-06 -9.58243e-07 0)
(8.72773e-06 -8.85006e-07 0)
(8.98782e-06 -8.05351e-07 0)
(9.24438e-06 -7.17737e-07 0)
(9.49757e-06 -6.20491e-07 0)
(9.74833e-06 -5.11413e-07 0)
(9.99616e-06 -3.89303e-07 0)
(4.246e-06 -2.1905e-06 0)
(4.60786e-06 -2.05591e-06 0)
(4.96117e-06 -1.93762e-06 0)
(5.30529e-06 -1.83095e-06 0)
(5.64021e-06 -1.73483e-06 0)
(5.966e-06 -1.64734e-06 0)
(6.28314e-06 -1.56672e-06 0)
(6.59204e-06 -1.4913e-06 0)
(6.89329e-06 -1.41947e-06 0)
(7.18745e-06 -1.34974e-06 0)
(7.4751e-06 -1.28071e-06 0)
(7.75677e-06 -1.21105e-06 0)
(8.03296e-06 -1.13941e-06 0)
(8.30415e-06 -1.06452e-06 0)
(8.57078e-06 -9.85017e-07 0)
(8.83326e-06 -8.995e-07 0)
(9.09212e-06 -8.06483e-07 0)
(9.34764e-06 -7.04378e-07 0)
(9.60076e-06 -5.91111e-07 0)
(9.85131e-06 -4.65604e-07 0)
(4.08116e-06 -2.3835e-06 0)
(4.43796e-06 -2.24719e-06 0)
(4.78824e-06 -2.1246e-06 0)
(5.13063e-06 -2.01216e-06 0)
(5.46508e-06 -1.90925e-06 0)
(5.79132e-06 -1.81437e-06 0)
(6.1096e-06 -1.72606e-06 0)
(6.42014e-06 -1.64286e-06 0)
(6.72334e-06 -1.5633e-06 0)
(7.01963e-06 -1.48603e-06 0)
(7.30949e-06 -1.40971e-06 0)
(7.59337e-06 -1.33304e-06 0)
(7.87172e-06 -1.25472e-06 0)
(8.14501e-06 -1.17353e-06 0)
(8.41367e-06 -1.08814e-06 0)
(8.67816e-06 -9.97197e-07 0)
(8.93902e-06 -8.99296e-07 0)
(9.19663e-06 -7.92954e-07 0)
(9.45189e-06 -6.7626e-07 0)
(9.70496e-06 -5.48274e-07 0)
(3.93558e-06 -2.56838e-06 0)
(4.28572e-06 -2.43147e-06 0)
(4.63118e-06 -2.30599e-06 0)
(4.96998e-06 -2.18918e-06 0)
(5.30214e-06 -2.08075e-06 0)
(5.62707e-06 -1.97959e-06 0)
(5.94486e-06 -1.88453e-06 0)
(6.25552e-06 -1.79432e-06 0)
(6.55934e-06 -1.70769e-06 0)
(6.85657e-06 -1.62341e-06 0)
(7.14761e-06 -1.54024e-06 0)
(7.43281e-06 -1.45695e-06 0)
(7.7126e-06 -1.37233e-06 0)
(7.98738e-06 -1.28519e-06 0)
(8.25759e-06 -1.19428e-06 0)
(8.5237e-06 -1.09833e-06 0)
(8.78623e-06 -9.96008e-07 0)
(9.04568e-06 -8.85967e-07 0)
(9.30286e-06 -7.66497e-07 0)
(9.55823e-06 -6.36799e-07 0)
(3.80592e-06 -2.74526e-06 0)
(4.1486e-06 -2.60865e-06 0)
(4.48809e-06 -2.48131e-06 0)
(4.82204e-06 -2.36118e-06 0)
(5.15055e-06 -2.24827e-06 0)
(5.47279e-06 -2.14181e-06 0)
(5.78875e-06 -2.04087e-06 0)
(6.0983e-06 -1.94444e-06 0)
(6.40158e-06 -1.85143e-06 0)
(6.69873e-06 -1.76074e-06 0)
(6.99003e-06 -1.67127e-06 0)
(7.27578e-06 -1.58186e-06 0)
(7.55633e-06 -1.4914e-06 0)
(7.83205e-06 -1.39877e-06 0)
(8.10335e-06 -1.30278e-06 0)
(8.37069e-06 -1.2023e-06 0)
(8.6346e-06 -1.09608e-06 0)
(8.8956e-06 -9.82898e-07 0)
(9.15449e-06 -8.61277e-07 0)
(9.41192e-06 -7.30541e-07 0)
(3.68964e-06 -2.9143e-06 0)
(4.02439e-06 -2.77861e-06 0)
(4.35713e-06 -2.65026e-06 0)
(4.68536e-06 -2.52774e-06 0)
(5.00922e-06 -2.41133e-06 0)
(5.32775e-06 -2.30047e-06 0)
(5.64087e-06 -2.19452e-06 0)
(5.94831e-06 -2.09267e-06 0)
(6.25011e-06 -1.99399e-06 0)
(6.54632e-06 -1.89755e-06 0)
(6.83712e-06 -1.80235e-06 0)
(7.12273e-06 -1.70736e-06 0)
(7.40345e-06 -1.61155e-06 0)
(7.67961e-06 -1.51391e-06 0)
(7.95158e-06 -1.41333e-06 0)
(8.2198e-06 -1.30878e-06 0)
(8.48478e-06 -1.19914e-06 0)
(8.74708e-06 -1.08333e-06 0)
(9.00747e-06 -9.60101e-07 0)
(9.26667e-06 -8.28884e-07 0)
(3.58428e-06 -3.07586e-06 0)
(3.91094e-06 -2.94153e-06 0)
(4.2365e-06 -2.8128e-06 0)
(4.55848e-06 -2.68865e-06 0)
(4.877e-06 -2.56951e-06 0)
(5.19109e-06 -2.45507e-06 0)
(5.50059e-06 -2.34491e-06 0)
(5.80515e-06 -2.23838e-06 0)
(6.10473e-06 -2.13474e-06 0)
(6.39929e-06 -2.0332e-06 0)
(6.68895e-06 -1.93289e-06 0)
(6.97385e-06 -1.83289e-06 0)
(7.25425e-06 -1.73226e-06 0)
(7.53041e-06 -1.63013e-06 0)
(7.80268e-06 -1.52544e-06 0)
(8.07148e-06 -1.41731e-06 0)
(8.33727e-06 -1.30473e-06 0)
(8.60063e-06 -1.18679e-06 0)
(8.86228e-06 -1.06242e-06 0)
(9.12297e-06 -9.31183e-07 0)
(3.48771e-06 -3.23042e-06 0)
(3.80629e-06 -3.09771e-06 0)
(4.12448e-06 -2.96907e-06 0)
(4.43989e-06 -2.84387e-06 0)
(4.75267e-06 -2.72268e-06 0)
(5.06182e-06 -2.60538e-06 0)
(5.36715e-06 -2.49172e-06 0)
(5.66826e-06 -2.38123e-06 0)
(5.96505e-06 -2.27331e-06 0)
(6.25743e-06 -2.16731e-06 0)
(6.54545e-06 -2.06251e-06 0)
(6.82919e-06 -1.95807e-06 0)
(7.10886e-06 -1.85318e-06 0)
(7.38468e-06 -1.74706e-06 0)
(7.65694e-06 -1.63876e-06 0)
(7.92604e-06 -1.52753e-06 0)
(8.19241e-06 -1.41247e-06 0)
(8.45662e-06 -1.29282e-06 0)
(8.71928e-06 -1.16771e-06 0)
(8.98125e-06 -1.03683e-06 0)
(3.39802e-06 -3.37847e-06 0)
(3.70866e-06 -3.24752e-06 0)
(4.01947e-06 -3.11929e-06 0)
(4.3282e-06 -2.9935e-06 0)
(4.635e-06 -2.87082e-06 0)
(4.93891e-06 -2.75126e-06 0)
(5.23971e-06 -2.63475e-06 0)
(5.53699e-06 -2.52094e-06 0)
(5.8306e-06 -2.40939e-06 0)
(6.12041e-06 -2.29957e-06 0)
(6.40642e-06 -2.19087e-06 0)
(6.68866e-06 -2.08258e-06 0)
(6.96728e-06 -1.97397e-06 0)
(7.24247e-06 -1.86438e-06 0)
(7.51447e-06 -1.75296e-06 0)
(7.78365e-06 -1.63908e-06 0)
(8.05038e-06 -1.52197e-06 0)
(8.31523e-06 -1.40099e-06 0)
(8.57869e-06 -1.27548e-06 0)
(8.8417e-06 -1.14524e-06 0)
(3.31351e-06 -3.52056e-06 0)
(3.61644e-06 -3.39137e-06 0)
(3.91998e-06 -3.26377e-06 0)
(4.22204e-06 -3.13775e-06 0)
(4.5228e-06 -3.01402e-06 0)
(4.82132e-06 -2.89274e-06 0)
(5.1174e-06 -2.77394e-06 0)
(5.41062e-06 -2.65742e-06 0)
(5.7008e-06 -2.54283e-06 0)
(5.98779e-06 -2.42978e-06 0)
(6.27152e-06 -2.31777e-06 0)
(6.55202e-06 -2.20617e-06 0)
(6.82936e-06 -2.09438e-06 0)
(7.10369e-06 -1.98182e-06 0)
(7.37523e-06 -1.86774e-06 0)
(7.64429e-06 -1.75164e-06 0)
(7.91122e-06 -1.63286e-06 0)
(8.17649e-06 -1.51089e-06 0)
(8.4406e-06 -1.38526e-06 0)
(8.70442e-06 -1.25585e-06 0)
(3.23266e-06 -3.65716e-06 0)
(3.52817e-06 -3.52971e-06 0)
(3.82461e-06 -3.40287e-06 0)
(4.12014e-06 -3.27687e-06 0)
(4.41489e-06 -3.15247e-06 0)
(4.70803e-06 -3.0299e-06 0)
(4.99933e-06 -2.90932e-06 0)
(5.28839e-06 -2.79061e-06 0)
(5.57501e-06 -2.67354e-06 0)
(5.85902e-06 -2.55782e-06 0)
(6.14033e-06 -2.44304e-06 0)
(6.41891e-06 -2.32867e-06 0)
(6.69482e-06 -2.2142e-06 0)
(6.96816e-06 -2.09913e-06 0)
(7.2391e-06 -1.98285e-06 0)
(7.5079e-06 -1.86492e-06 0)
(7.77486e-06 -1.74482e-06 0)
(8.04041e-06 -1.62215e-06 0)
(8.30502e-06 -1.49661e-06 0)
(8.56944e-06 -1.36815e-06 0)
(3.15406e-06 -3.78875e-06 0)
(3.44246e-06 -3.66293e-06 0)
(3.73207e-06 -3.53694e-06 0)
(4.02126e-06 -3.41116e-06 0)
(4.31015e-06 -3.28638e-06 0)
(4.59798e-06 -3.16291e-06 0)
(4.88455e-06 -3.04098e-06 0)
(5.16946e-06 -2.92056e-06 0)
(5.45252e-06 -2.80152e-06 0)
(5.73352e-06 -2.68365e-06 0)
(6.01236e-06 -2.56662e-06 0)
(6.28897e-06 -2.44997e-06 0)
(6.56337e-06 -2.33329e-06 0)
(6.83562e-06 -2.21618e-06 0)
(7.10586e-06 -2.09809e-06 0)
(7.3743e-06 -1.9787e-06 0)
(7.64116e-06 -1.85757e-06 0)
(7.90689e-06 -1.73445e-06 0)
(8.17182e-06 -1.60915e-06 0)
(8.43669e-06 -1.4817e-06 0)
(3.07643e-06 -3.91573e-06 0)
(3.35803e-06 -3.79147e-06 0)
(3.64108e-06 -3.66634e-06 0)
(3.92419e-06 -3.54093e-06 0)
(4.20744e-06 -3.41601e-06 0)
(4.49016e-06 -3.29196e-06 0)
(4.77217e-06 -3.16908e-06 0)
(5.05306e-06 -3.0474e-06 0)
(5.33263e-06 -2.92685e-06 0)
(5.61068e-06 -2.80729e-06 0)
(5.88706e-06 -2.68847e-06 0)
(6.1617e-06 -2.57001e-06 0)
(6.43458e-06 -2.45157e-06 0)
(6.70572e-06 -2.33282e-06 0)
(6.9752e-06 -2.21329e-06 0)
(7.24321e-06 -2.09275e-06 0)
(7.50991e-06 -1.97087e-06 0)
(7.77571e-06 -1.84749e-06 0)
(8.04084e-06 -1.72253e-06 0)
(8.306e-06 -1.59611e-06 0)
(2.99842e-06 -4.03851e-06 0)
(3.27356e-06 -3.91567e-06 0)
(3.55039e-06 -3.79145e-06 0)
(3.82773e-06 -3.66653e-06 0)
(4.10565e-06 -3.54169e-06 0)
(4.38356e-06 -3.41736e-06 0)
(4.66125e-06 -3.29387e-06 0)
(4.93833e-06 -3.1713e-06 0)
(5.2146e-06 -3.04965e-06 0)
(5.48983e-06 -2.92884e-06 0)
(5.76389e-06 -2.80866e-06 0)
(6.03664e-06 -2.68882e-06 0)
(6.30805e-06 -2.56902e-06 0)
(6.57811e-06 -2.44899e-06 0)
(6.84684e-06 -2.32835e-06 0)
(7.11439e-06 -2.20693e-06 0)
(7.3809e-06 -2.08453e-06 0)
(7.64669e-06 -1.96103e-06 0)
(7.91193e-06 -1.83648e-06 0)
(8.17726e-06 -1.71105e-06 0)
(2.91882e-06 -4.15739e-06 0)
(3.18782e-06 -4.03602e-06 0)
(3.45873e-06 -3.9126e-06 0)
(3.73073e-06 -3.78827e-06 0)
(4.00372e-06 -3.66373e-06 0)
(4.27719e-06 -3.53937e-06 0)
(4.55089e-06 -3.41558e-06 0)
(4.82447e-06 -3.29248e-06 0)
(5.09771e-06 -3.17011e-06 0)
(5.37037e-06 -3.04843e-06 0)
(5.64228e-06 -2.9273e-06 0)
(5.9133e-06 -2.80644e-06 0)
(6.18335e-06 -2.68563e-06 0)
(6.45238e-06 -2.56466e-06 0)
(6.72041e-06 -2.44319e-06 0)
(6.98752e-06 -2.32115e-06 0)
(7.25383e-06 -2.19838e-06 0)
(7.51955e-06 -2.07487e-06 0)
(7.78486e-06 -1.95075e-06 0)
(8.05024e-06 -1.82623e-06 0)
(2.83634e-06 -4.27287e-06 0)
(3.09935e-06 -4.15254e-06 0)
(3.36465e-06 -4.03021e-06 0)
(3.63198e-06 -3.90671e-06 0)
(3.90048e-06 -3.78261e-06 0)
(4.17001e-06 -3.65845e-06 0)
(4.44017e-06 -3.53462e-06 0)
(4.71067e-06 -3.41128e-06 0)
(4.98124e-06 -3.28851e-06 0)
(5.25164e-06 -3.16629e-06 0)
(5.52167e-06 -3.04454e-06 0)
(5.79117e-06 -2.923e-06 0)
(6.06003e-06 -2.80149e-06 0)
(6.32817e-06 -2.67985e-06 0)
(6.59557e-06 -2.55781e-06 0)
(6.86232e-06 -2.43533e-06 0)
(7.12842e-06 -2.31232e-06 0)
(7.39406e-06 -2.18884e-06 0)
(7.65936e-06 -2.06512e-06 0)
(7.92476e-06 -1.94142e-06 0)
(2.74898e-06 -4.38484e-06 0)
(3.00693e-06 -4.26571e-06 0)
(3.26764e-06 -4.14469e-06 0)
(3.53044e-06 -4.02207e-06 0)
(3.79508e-06 -3.89861e-06 0)
(4.06114e-06 -3.77487e-06 0)
(4.32831e-06 -3.65126e-06 0)
(4.59623e-06 -3.52797e-06 0)
(4.86459e-06 -3.40509e-06 0)
(5.13314e-06 -3.28265e-06 0)
(5.40164e-06 -3.16056e-06 0)
(5.66988e-06 -3.03862e-06 0)
(5.93775e-06 -2.91668e-06 0)
(6.20517e-06 -2.79461e-06 0)
(6.47207e-06 -2.67221e-06 0)
(6.73849e-06 -2.54943e-06 0)
(7.0044e-06 -2.42626e-06 0)
(7.27001e-06 -2.30283e-06 0)
(7.5353e-06 -2.17947e-06 0)
(7.80063e-06 -2.05646e-06 0)
(2.65563e-06 -4.4945e-06 0)
(2.90892e-06 -4.37682e-06 0)
(3.16545e-06 -4.25684e-06 0)
(3.42458e-06 -4.13517e-06 0)
(3.68607e-06 -4.0125e-06 0)
(3.94945e-06 -3.88936e-06 0)
(4.21434e-06 -3.76617e-06 0)
(4.48034e-06 -3.64314e-06 0)
(4.74711e-06 -3.52038e-06 0)
(5.01431e-06 -3.39792e-06 0)
(5.28169e-06 -3.2757e-06 0)
(5.54903e-06 -3.15357e-06 0)
(5.81618e-06 -3.03141e-06 0)
(6.08303e-06 -2.9091e-06 0)
(6.34953e-06 -2.78643e-06 0)
(6.61569e-06 -2.66345e-06 0)
(6.88151e-06 -2.5402e-06 0)
(7.14709e-06 -2.41679e-06 0)
(7.41242e-06 -2.29363e-06 0)
(7.67771e-06 -2.17117e-06 0)
(2.55508e-06 -4.60099e-06 0)
(2.8043e-06 -4.48491e-06 0)
(3.05737e-06 -4.3664e-06 0)
(3.31369e-06 -4.24599e-06 0)
(3.57289e-06 -4.12437e-06 0)
(3.83444e-06 -4.00209e-06 0)
(4.09788e-06 -3.87958e-06 0)
(4.36272e-06 -3.75704e-06 0)
(4.62855e-06 -3.63457e-06 0)
(4.895e-06 -3.51227e-06 0)
(5.16174e-06 -3.39013e-06 0)
(5.42853e-06 -3.26798e-06 0)
(5.69522e-06 -3.14569e-06 0)
(5.96167e-06 -3.02326e-06 0)
(6.22786e-06 -2.9005e-06 0)
(6.4938e-06 -2.7774e-06 0)
(6.75955e-06 -2.65408e-06 0)
(7.02513e-06 -2.53064e-06 0)
(7.29063e-06 -2.40756e-06 0)
(7.55604e-06 -2.28542e-06 0)
(1.91201e-07 -4.01699e-06 0)
(5.76343e-07 -3.95745e-06 0)
(9.69746e-07 -3.84078e-06 0)
(1.37607e-06 -3.67161e-06 0)
(1.79915e-06 -3.45649e-06 0)
(2.24137e-06 -3.20342e-06 0)
(2.70367e-06 -2.92169e-06 0)
(3.18522e-06 -2.62096e-06 0)
(3.68412e-06 -2.31111e-06 0)
(4.19663e-06 -2.00008e-06 0)
(1.85649e-07 -4.08049e-06 0)
(5.59274e-07 -4.02609e-06 0)
(9.39809e-07 -3.9194e-06 0)
(1.33119e-06 -3.76435e-06 0)
(1.73668e-06 -3.56652e-06 0)
(2.15835e-06 -3.33271e-06 0)
(2.59707e-06 -3.07081e-06 0)
(3.05199e-06 -2.78918e-06 0)
(3.52085e-06 -2.49678e-06 0)
(4.00077e-06 -2.20001e-06 0)
(1.80786e-07 -4.14551e-06 0)
(5.4428e-07 -4.09576e-06 0)
(9.13439e-07 -3.99811e-06 0)
(1.29144e-06 -3.85597e-06 0)
(1.68103e-06 -3.67417e-06 0)
(2.08394e-06 -3.4586e-06 0)
(2.50106e-06 -3.21601e-06 0)
(2.93213e-06 -2.95344e-06 0)
(3.37553e-06 -2.67861e-06 0)
(3.82941e-06 -2.39555e-06 0)
(1.76475e-07 -4.21219e-06 0)
(5.31011e-07 -4.1664e-06 0)
(8.9029e-07 -4.07647e-06 0)
(1.25691e-06 -3.94538e-06 0)
(1.63314e-06 -3.77737e-06 0)
(2.02042e-06 -3.57761e-06 0)
(2.4194e-06 -3.35204e-06 0)
(2.82985e-06 -3.10685e-06 0)
(3.25041e-06 -2.84921e-06 0)
(3.67949e-06 -2.5822e-06 0)
(1.72508e-07 -4.28051e-06 0)
(5.18809e-07 -4.23825e-06 0)
(8.69062e-07 -4.15524e-06 0)
(1.22539e-06 -4.03408e-06 0)
(1.58969e-06 -3.87856e-06 0)
(1.96315e-06 -3.69326e-06 0)
(2.34637e-06 -3.48343e-06 0)
(2.73914e-06 -3.25436e-06 0)
(3.14053e-06 -3.01253e-06 0)
(3.54832e-06 -2.76071e-06 0)
(1.68811e-07 -4.35036e-06 0)
(5.07523e-07 -4.31117e-06 0)
(8.49541e-07 -4.23416e-06 0)
(1.19665e-06 -4.12168e-06 0)
(1.55042e-06 -3.97711e-06 0)
(1.9118e-06 -3.80458e-06 0)
(2.28126e-06 -3.60886e-06 0)
(2.6585e-06 -3.39461e-06 0)
(3.04309e-06 -3.1677e-06 0)
(3.4323e-06 -2.93089e-06 0)
(1.65282e-07 -4.42166e-06 0)
(4.96782e-07 -4.38522e-06 0)
(8.31072e-07 -4.31354e-06 0)
(1.16966e-06 -4.20883e-06 0)
(1.51386e-06 -4.07408e-06 0)
(1.86445e-06 -3.91306e-06 0)
(2.22184e-06 -3.73009e-06 0)
(2.58556e-06 -3.52933e-06 0)
(2.95561e-06 -3.31601e-06 0)
(3.32881e-06 -3.09319e-06 0)
(1.61892e-07 -4.49425e-06 0)
(4.86455e-07 -4.46022e-06 0)
(8.13422e-07 -4.39327e-06 0)
(1.14406e-06 -4.29543e-06 0)
(1.47949e-06 -4.16941e-06 0)
(1.8203e-06 -4.01867e-06 0)
(2.1669e-06 -3.84717e-06 0)
(2.51868e-06 -3.65872e-06 0)
(2.87595e-06 -3.45792e-06 0)
(3.23531e-06 -3.24812e-06 0)
(1.58559e-07 -4.56801e-06 0)
(4.7634e-07 -4.53614e-06 0)
(7.9623e-07 -4.47341e-06 0)
(1.11929e-06 -4.38172e-06 0)
(1.44652e-06 -4.26354e-06 0)
(1.77838e-06 -4.12203e-06 0)
(2.11523e-06 -3.96086e-06 0)
(2.45638e-06 -3.78356e-06 0)
(2.80233e-06 -3.59418e-06 0)
(3.14968e-06 -3.39628e-06 0)
(1.55234e-07 -4.64273e-06 0)
(4.66314e-07 -4.6128e-06 0)
(7.79268e-07 -4.55386e-06 0)
(1.09502e-06 -4.46766e-06 0)
(1.41446e-06 -4.35651e-06 0)
(1.73796e-06 -4.22332e-06 0)
(2.06585e-06 -4.07146e-06 0)
(2.39741e-06 -3.90427e-06 0)
(2.73324e-06 -3.72533e-06 0)
(3.07005e-06 -3.53828e-06 0)
(1.51885e-07 -4.71827e-06 0)
(4.56247e-07 -4.6901e-06 0)
(7.62287e-07 -4.63455e-06 0)
(1.07088e-06 -4.5533e-06 0)
(1.38279e-06 -4.44849e-06 0)
(1.69836e-06 -4.32281e-06 0)
(2.01792e-06 -4.17936e-06 0)
(2.34071e-06 -4.02133e-06 0)
(2.66737e-06 -3.8519e-06 0)
(2.99482e-06 -3.6747e-06 0)
(1.48485e-07 -4.7944e-06 0)
(4.46015e-07 -4.76784e-06 0)
(7.45079e-07 -4.71536e-06 0)
(1.04654e-06 -4.63857e-06 0)
(1.35108e-06 -4.5395e-06 0)
(1.65901e-06 -4.42061e-06 0)
(1.97066e-06 -4.28481e-06 0)
(2.28531e-06 -4.13508e-06 0)
(2.60354e-06 -3.9743e-06 0)
(2.92256e-06 -3.80604e-06 0)
(1.44986e-07 -4.87095e-06 0)
(4.35476e-07 -4.84583e-06 0)
(7.27419e-07 -4.79615e-06 0)
(1.02168e-06 -4.72344e-06 0)
(1.31887e-06 -4.62958e-06 0)
(1.61932e-06 -4.51687e-06 0)
(1.92335e-06 -4.38801e-06 0)
(2.23029e-06 -4.24583e-06 0)
(2.54065e-06 -4.09294e-06 0)
(2.85198e-06 -3.93278e-06 0)
(1.41335e-07 -4.94765e-06 0)
(4.24495e-07 -4.92382e-06 0)
(7.09085e-07 -4.87672e-06 0)
(9.95961e-07 -4.80773e-06 0)
(1.28573e-06 -4.71863e-06 0)
(1.57873e-06 -4.61158e-06 0)
(1.87527e-06 -4.48907e-06 0)
(2.17478e-06 -4.35378e-06 0)
(2.47768e-06 -4.2081e-06 0)
(2.78186e-06 -4.05531e-06 0)
(1.37483e-07 -5.02426e-06 0)
(4.12936e-07 -5.00163e-06 0)
(6.89837e-07 -4.95691e-06 0)
(9.69044e-07 -4.89135e-06 0)
(1.25119e-06 -4.80665e-06 0)
(1.53663e-06 -4.70481e-06 0)
(1.82569e-06 -4.58813e-06 0)
(2.11789e-06 -4.45916e-06 0)
(2.41358e-06 -4.3201e-06 0)
(2.71095e-06 -4.17402e-06 0)
(1.33384e-07 -5.10036e-06 0)
(4.00658e-07 -5.07883e-06 0)
(6.69423e-07 -5.03635e-06 0)
(9.40564e-07 -4.974e-06 0)
(1.21476e-06 -4.89337e-06 0)
(1.49241e-06 -4.79636e-06 0)
(1.77384e-06 -4.6851e-06 0)
(2.05872e-06 -4.56197e-06 0)
(2.34729e-06 -4.42902e-06 0)
(2.63806e-06 -4.28909e-06 0)
(1.28981e-07 -5.17583e-06 0)
(3.87473e-07 -5.15535e-06 0)
(6.47526e-07 -5.11496e-06 0)
(9.1007e-07 -5.05562e-06 0)
(1.17585e-06 -4.97884e-06 0)
(1.44532e-06 -4.88636e-06 0)
(1.71885e-06 -4.78018e-06 0)
(1.99622e-06 -4.66251e-06 0)
(2.27764e-06 -4.53525e-06 0)
(2.56184e-06 -4.40106e-06 0)
(1.24207e-07 -5.2498e-06 0)
(3.73178e-07 -5.23033e-06 0)
(6.23807e-07 -5.19193e-06 0)
(8.77088e-07 -5.13549e-06 0)
(1.13385e-06 -5.06237e-06 0)
(1.3946e-06 -4.97422e-06 0)
(1.6598e-06 -4.87287e-06 0)
(1.92931e-06 -4.76038e-06 0)
(2.20333e-06 -4.6385e-06 0)
(2.4809e-06 -4.50973e-06 0)
(1.18958e-07 -5.32266e-06 0)
(3.57467e-07 -5.30417e-06 0)
(5.97763e-07 -5.2677e-06 0)
(8.40919e-07 -5.21406e-06 0)
(1.08785e-06 -5.1445e-06 0)
(1.33917e-06 -5.06054e-06 0)
(1.59541e-06 -4.96384e-06 0)
(1.85657e-06 -4.85633e-06 0)
(2.12285e-06 -4.73964e-06 0)
(2.39358e-06 -4.61606e-06 0)
(1.1319e-07 -5.39208e-06 0)
(3.40218e-07 -5.37457e-06 0)
(5.69182e-07 -5.34003e-06 0)
(8.01241e-07 -5.28918e-06 0)
(1.03742e-06 -5.22318e-06 0)
(1.27847e-06 -5.14341e-06 0)
(1.525e-06 -5.05138e-06 0)
(1.7772e-06 -4.94886e-06 0)
(2.03528e-06 -4.83739e-06 0)
(2.29884e-06 -4.71906e-06 0)
)


// ************************************************************************* //
