/*--------------------------------*- C++ -*----------------------------------*\
| =========                 |                                                 |
| \\      /  F ield         | foam-extend: Open Source CFD                    |
|  \\    /   O peration     | Version:     4.1                                |
|   \\  /    A nd           | Web:         http://www.foam-extend.org         |
|    \\/     M anipulation  |                                                 |
\*---------------------------------------------------------------------------*/
FoamFile
{
    version     2.0;
    format      ascii;
    class       volVectorField;
    location    "2";
    object      D;
}
// * * * * * * * * * * * * * * * * * * * * * * * * * * * * * * * * * * * * * //

dimensions      [0 1 0 0 0 0 0];

internalField   nonuniform List<vector> 
100000
(
(1.14936e-06 -4.76843e-07 4.58623e-06)
(1.13999e-06 -4.70439e-07 4.6463e-06)
(1.13103e-06 -4.64331e-07 4.70555e-06)
(1.12247e-06 -4.58532e-07 4.76261e-06)
(1.1143e-06 -4.53017e-07 4.81793e-06)
(1.10648e-06 -4.47777e-07 4.87151e-06)
(1.09902e-06 -4.42797e-07 4.92343e-06)
(1.09189e-06 -4.38066e-07 4.97379e-06)
(1.08507e-06 -4.33572e-07 5.0226e-06)
(1.07857e-06 -4.29304e-07 5.06995e-06)
(1.07236e-06 -4.25252e-07 5.11589e-06)
(1.06643e-06 -4.21406e-07 5.16045e-06)
(1.06077e-06 -4.17758e-07 5.20373e-06)
(1.05537e-06 -4.14297e-07 5.24576e-06)
(1.05022e-06 -4.11017e-07 5.28662e-06)
(1.04531e-06 -4.07908e-07 5.32633e-06)
(1.04063e-06 -4.04965e-07 5.36494e-06)
(1.03617e-06 -4.02178e-07 5.40248e-06)
(1.03193e-06 -3.99543e-07 5.43899e-06)
(1.02789e-06 -3.97052e-07 5.47455e-06)
(1.02405e-06 -3.94699e-07 5.50915e-06)
(1.02039e-06 -3.92478e-07 5.54285e-06)
(1.01692e-06 -3.90385e-07 5.57568e-06)
(1.01363e-06 -3.88413e-07 5.60767e-06)
(1.0105e-06 -3.86558e-07 5.63885e-06)
(1.00754e-06 -3.84814e-07 5.66924e-06)
(1.00474e-06 -3.83178e-07 5.69889e-06)
(1.00209e-06 -3.81645e-07 5.72782e-06)
(9.99587e-07 -3.80211e-07 5.75607e-06)
(9.97225e-07 -3.78872e-07 5.78367e-06)
(9.95e-07 -3.77624e-07 5.81063e-06)
(9.92908e-07 -3.76464e-07 5.83696e-06)
(9.90945e-07 -3.75389e-07 5.86269e-06)
(9.89101e-07 -3.74393e-07 5.88784e-06)
(9.87379e-07 -3.73475e-07 5.91242e-06)
(9.85772e-07 -3.72632e-07 5.93644e-06)
(9.84277e-07 -3.7186e-07 5.95994e-06)
(9.8289e-07 -3.71158e-07 5.98293e-06)
(9.81607e-07 -3.70522e-07 6.00543e-06)
(9.80424e-07 -3.6995e-07 6.02747e-06)
(9.7934e-07 -3.69439e-07 6.04907e-06)
(9.7835e-07 -3.68988e-07 6.07023e-06)
(9.77451e-07 -3.68593e-07 6.09096e-06)
(9.76642e-07 -3.68253e-07 6.11129e-06)
(9.75918e-07 -3.67966e-07 6.13122e-06)
(9.75277e-07 -3.67729e-07 6.14249e-06)
(9.74717e-07 -3.67542e-07 6.14057e-06)
(9.74235e-07 -3.67401e-07 6.13864e-06)
(9.73829e-07 -3.67306e-07 6.1367e-06)
(9.73496e-07 -3.67254e-07 6.13473e-06)
(9.73235e-07 -3.67244e-07 6.13276e-06)
(9.73042e-07 -3.67275e-07 6.13076e-06)
(9.72917e-07 -3.67345e-07 6.12875e-06)
(9.72856e-07 -3.67452e-07 6.12672e-06)
(9.72859e-07 -3.67595e-07 6.12468e-06)
(9.72923e-07 -3.67774e-07 6.12261e-06)
(9.73046e-07 -3.67986e-07 6.12052e-06)
(9.73227e-07 -3.6823e-07 6.11841e-06)
(9.73464e-07 -3.68505e-07 6.11629e-06)
(9.73755e-07 -3.68811e-07 6.11414e-06)
(9.74099e-07 -3.69145e-07 6.11197e-06)
(9.74494e-07 -3.69507e-07 6.10977e-06)
(9.74939e-07 -3.69896e-07 6.10756e-06)
(9.75433e-07 -3.70311e-07 6.10533e-06)
(9.75973e-07 -3.70751e-07 6.10306e-06)
(9.7656e-07 -3.71214e-07 6.10078e-06)
(9.7719e-07 -3.71701e-07 6.09847e-06)
(9.77864e-07 -3.7221e-07 6.09613e-06)
(9.7858e-07 -3.72741e-07 6.09376e-06)
(9.79336e-07 -3.73292e-07 6.09138e-06)
(9.80132e-07 -3.73863e-07 6.08896e-06)
(9.80967e-07 -3.74453e-07 6.08652e-06)
(9.81839e-07 -3.75061e-07 6.08405e-06)
(9.82748e-07 -3.75687e-07 6.08155e-06)
(9.83692e-07 -3.76331e-07 6.07902e-06)
(9.8467e-07 -3.7699e-07 6.07646e-06)
(9.85682e-07 -3.77665e-07 6.07387e-06)
(9.86726e-07 -3.78356e-07 6.07124e-06)
(9.87803e-07 -3.79061e-07 6.06858e-06)
(9.88909e-07 -3.79779e-07 6.06589e-06)
(9.90046e-07 -3.80512e-07 6.06317e-06)
(9.91213e-07 -3.81257e-07 6.06041e-06)
(9.92407e-07 -3.82014e-07 6.05761e-06)
(9.93629e-07 -3.82784e-07 6.05478e-06)
(9.94878e-07 -3.83564e-07 6.0519e-06)
(9.96153e-07 -3.84356e-07 6.04898e-06)
(9.97454e-07 -3.85158e-07 6.04602e-06)
(9.98779e-07 -3.85971e-07 6.04301e-06)
(1.00013e-06 -3.86792e-07 6.03996e-06)
(1.0015e-06 -3.87623e-07 6.03686e-06)
(1.0029e-06 -3.88463e-07 6.03371e-06)
(1.00431e-06 -3.89311e-07 6.03051e-06)
(1.00575e-06 -3.90167e-07 6.02725e-06)
(1.00721e-06 -3.9103e-07 6.02392e-06)
(1.00869e-06 -3.91901e-07 6.02053e-06)
(1.01019e-06 -3.92778e-07 6.01708e-06)
(1.01171e-06 -3.93663e-07 6.01356e-06)
(1.01325e-06 -3.94553e-07 6.01001e-06)
(1.01481e-06 -3.9545e-07 6.00656e-06)
(1.01639e-06 -3.96354e-07 6.0034e-06)
(1.14003e-06 -4.80702e-07 4.61363e-06)
(1.13057e-06 -4.74427e-07 4.67175e-06)
(1.12152e-06 -4.68441e-07 4.73139e-06)
(1.11287e-06 -4.62759e-07 4.78883e-06)
(1.10461e-06 -4.57355e-07 4.8445e-06)
(1.09671e-06 -4.52222e-07 4.89843e-06)
(1.08917e-06 -4.47343e-07 4.95065e-06)
(1.08196e-06 -4.42708e-07 5.00132e-06)
(1.07508e-06 -4.38306e-07 5.05046e-06)
(1.06851e-06 -4.34127e-07 5.09806e-06)
(1.06224e-06 -4.30159e-07 5.14429e-06)
(1.05625e-06 -4.26393e-07 5.18912e-06)
(1.05053e-06 -4.22821e-07 5.23271e-06)
(1.04508e-06 -4.19434e-07 5.27497e-06)
(1.03988e-06 -4.16224e-07 5.31608e-06)
(1.03492e-06 -4.13182e-07 5.35604e-06)
(1.03019e-06 -4.10302e-07 5.39488e-06)
(1.02569e-06 -4.07577e-07 5.43267e-06)
(1.0214e-06 -4.05e-07 5.46942e-06)
(1.01732e-06 -4.02565e-07 5.50519e-06)
(1.01343e-06 -4.00266e-07 5.54003e-06)
(1.00974e-06 -3.98097e-07 5.57395e-06)
(1.00624e-06 -3.96053e-07 5.60698e-06)
(1.00291e-06 -3.94128e-07 5.63918e-06)
(9.99749e-07 -3.92318e-07 5.67056e-06)
(9.96756e-07 -3.90618e-07 5.70116e-06)
(9.93922e-07 -3.89024e-07 5.73101e-06)
(9.91242e-07 -3.87531e-07 5.76013e-06)
(9.8871e-07 -3.86135e-07 5.78857e-06)
(9.86322e-07 -3.84832e-07 5.81635e-06)
(9.8407e-07 -3.8362e-07 5.84349e-06)
(9.81955e-07 -3.82492e-07 5.87001e-06)
(9.79962e-07 -3.8145e-07 5.89593e-06)
(9.78094e-07 -3.80488e-07 5.92126e-06)
(9.76351e-07 -3.79599e-07 5.946e-06)
(9.74722e-07 -3.78785e-07 5.97019e-06)
(9.73206e-07 -3.78041e-07 5.99386e-06)
(9.71797e-07 -3.77366e-07 6.01703e-06)
(9.70494e-07 -3.76755e-07 6.0397e-06)
(9.69292e-07 -3.76208e-07 6.06191e-06)
(9.68189e-07 -3.75721e-07 6.08367e-06)
(9.6718e-07 -3.75293e-07 6.10499e-06)
(9.66264e-07 -3.7492e-07 6.12589e-06)
(9.65437e-07 -3.74602e-07 6.14638e-06)
(9.64696e-07 -3.74335e-07 6.16648e-06)
(9.64038e-07 -3.74118e-07 6.17369e-06)
(9.63462e-07 -3.7395e-07 6.17184e-06)
(9.62964e-07 -3.73828e-07 6.16997e-06)
(9.62542e-07 -3.73751e-07 6.16808e-06)
(9.62195e-07 -3.73716e-07 6.16618e-06)
(9.61918e-07 -3.73723e-07 6.16426e-06)
(9.61711e-07 -3.7377e-07 6.16232e-06)
(9.61571e-07 -3.73856e-07 6.16036e-06)
(9.61497e-07 -3.73978e-07 6.15839e-06)
(9.61485e-07 -3.74137e-07 6.15639e-06)
(9.61535e-07 -3.74329e-07 6.15438e-06)
(9.61645e-07 -3.74555e-07 6.15234e-06)
(9.61813e-07 -3.74813e-07 6.15029e-06)
(9.62036e-07 -3.75101e-07 6.14821e-06)
(9.62315e-07 -3.75419e-07 6.14611e-06)
(9.62646e-07 -3.75766e-07 6.14398e-06)
(9.63028e-07 -3.7614e-07 6.14184e-06)
(9.63461e-07 -3.76541e-07 6.13968e-06)
(9.63942e-07 -3.76967e-07 6.13749e-06)
(9.6447e-07 -3.77418e-07 6.13527e-06)
(9.65044e-07 -3.77892e-07 6.13303e-06)
(9.65662e-07 -3.7839e-07 6.13076e-06)
(9.66324e-07 -3.78909e-07 6.12847e-06)
(9.67028e-07 -3.7945e-07 6.12615e-06)
(9.67772e-07 -3.80011e-07 6.12381e-06)
(9.68556e-07 -3.80591e-07 6.12144e-06)
(9.69379e-07 -3.81191e-07 6.11904e-06)
(9.70239e-07 -3.81808e-07 6.11662e-06)
(9.71136e-07 -3.82444e-07 6.11417e-06)
(9.72068e-07 -3.83096e-07 6.11169e-06)
(9.73034e-07 -3.83764e-07 6.10917e-06)
(9.74034e-07 -3.84448e-07 6.10662e-06)
(9.75067e-07 -3.85146e-07 6.10405e-06)
(9.76131e-07 -3.85859e-07 6.10144e-06)
(9.77226e-07 -3.86586e-07 6.0988e-06)
(9.78351e-07 -3.87327e-07 6.09613e-06)
(9.79505e-07 -3.8808e-07 6.09343e-06)
(9.80688e-07 -3.88845e-07 6.09068e-06)
(9.81898e-07 -3.89622e-07 6.0879e-06)
(9.83135e-07 -3.9041e-07 6.08509e-06)
(9.84398e-07 -3.9121e-07 6.08223e-06)
(9.85686e-07 -3.92019e-07 6.07933e-06)
(9.86999e-07 -3.92839e-07 6.0764e-06)
(9.88337e-07 -3.93668e-07 6.07342e-06)
(9.89697e-07 -3.94506e-07 6.0704e-06)
(9.9108e-07 -3.95352e-07 6.06734e-06)
(9.92486e-07 -3.96207e-07 6.06423e-06)
(9.93912e-07 -3.9707e-07 6.06108e-06)
(9.9536e-07 -3.97941e-07 6.05789e-06)
(9.96828e-07 -3.98819e-07 6.05467e-06)
(9.98316e-07 -3.99703e-07 6.05143e-06)
(9.99823e-07 -4.00594e-07 6.04819e-06)
(1.00135e-06 -4.01492e-07 6.04504e-06)
(1.00289e-06 -4.02396e-07 6.04204e-06)
(1.00446e-06 -4.03304e-07 6.03976e-06)
(1.13064e-06 -4.84534e-07 4.64359e-06)
(1.12108e-06 -4.78391e-07 4.69745e-06)
(1.11194e-06 -4.7253e-07 4.75742e-06)
(1.1032e-06 -4.66968e-07 4.81525e-06)
(1.09486e-06 -4.61678e-07 4.87123e-06)
(1.08689e-06 -4.56653e-07 4.92551e-06)
(1.07927e-06 -4.51878e-07 4.97804e-06)
(1.072e-06 -4.47342e-07 5.02897e-06)
(1.06505e-06 -4.43035e-07 5.07843e-06)
(1.05841e-06 -4.38945e-07 5.12632e-06)
(1.05208e-06 -4.35063e-07 5.17282e-06)
(1.04603e-06 -4.31379e-07 5.21789e-06)
(1.04026e-06 -4.27886e-07 5.26174e-06)
(1.03475e-06 -4.24574e-07 5.30425e-06)
(1.0295e-06 -4.21435e-07 5.3456e-06)
(1.0245e-06 -4.18462e-07 5.3858e-06)
(1.01972e-06 -4.15647e-07 5.42487e-06)
(1.01517e-06 -4.12985e-07 5.46289e-06)
(1.01084e-06 -4.10468e-07 5.49986e-06)
(1.00672e-06 -4.0809e-07 5.53586e-06)
(1.0028e-06 -4.05846e-07 5.5709e-06)
(9.99073e-07 -4.0373e-07 5.60504e-06)
(9.95531e-07 -4.01736e-07 5.63828e-06)
(9.92168e-07 -3.99859e-07 5.67068e-06)
(9.88978e-07 -3.98096e-07 5.70226e-06)
(9.85954e-07 -3.9644e-07 5.73305e-06)
(9.8309e-07 -3.94889e-07 5.76309e-06)
(9.80381e-07 -3.93436e-07 5.7924e-06)
(9.77822e-07 -3.9208e-07 5.82102e-06)
(9.75406e-07 -3.90815e-07 5.84897e-06)
(9.73129e-07 -3.89639e-07 5.87629e-06)
(9.70986e-07 -3.88546e-07 5.90299e-06)
(9.68971e-07 -3.87535e-07 5.92908e-06)
(9.67084e-07 -3.86604e-07 5.95457e-06)
(9.65317e-07 -3.85747e-07 5.97949e-06)
(9.63666e-07 -3.84963e-07 6.00386e-06)
(9.62129e-07 -3.84248e-07 6.02769e-06)
(9.607e-07 -3.83599e-07 6.05102e-06)
(9.59377e-07 -3.83015e-07 6.07386e-06)
(9.58156e-07 -3.82493e-07 6.09623e-06)
(9.57034e-07 -3.82031e-07 6.11814e-06)
(9.56008e-07 -3.81626e-07 6.13962e-06)
(9.55074e-07 -3.81276e-07 6.16069e-06)
(9.54229e-07 -3.80979e-07 6.18134e-06)
(9.53472e-07 -3.80734e-07 6.2016e-06)
(9.52798e-07 -3.80538e-07 6.205e-06)
(9.52206e-07 -3.80389e-07 6.20321e-06)
(9.51693e-07 -3.80286e-07 6.2014e-06)
(9.51256e-07 -3.80226e-07 6.19958e-06)
(9.50893e-07 -3.8021e-07 6.19773e-06)
(9.50602e-07 -3.80234e-07 6.19587e-06)
(9.5038e-07 -3.80297e-07 6.19399e-06)
(9.50227e-07 -3.80399e-07 6.19209e-06)
(9.50138e-07 -3.80537e-07 6.19017e-06)
(9.50113e-07 -3.8071e-07 6.18822e-06)
(9.5015e-07 -3.80917e-07 6.18626e-06)
(9.50246e-07 -3.81157e-07 6.18428e-06)
(9.50401e-07 -3.81428e-07 6.18227e-06)
(9.50611e-07 -3.8173e-07 6.18025e-06)
(9.50877e-07 -3.82061e-07 6.1782e-06)
(9.51195e-07 -3.8242e-07 6.17612e-06)
(9.51565e-07 -3.82806e-07 6.17403e-06)
(9.51985e-07 -3.83219e-07 6.17191e-06)
(9.52454e-07 -3.83657e-07 6.16977e-06)
(9.5297e-07 -3.84119e-07 6.1676e-06)
(9.53532e-07 -3.84604e-07 6.16541e-06)
(9.54138e-07 -3.85112e-07 6.16319e-06)
(9.54787e-07 -3.85642e-07 6.16094e-06)
(9.55479e-07 -3.86193e-07 6.15867e-06)
(9.56211e-07 -3.86764e-07 6.15637e-06)
(9.56984e-07 -3.87354e-07 6.15405e-06)
(9.57794e-07 -3.87963e-07 6.1517e-06)
(9.58643e-07 -3.8859e-07 6.14933e-06)
(9.59527e-07 -3.89234e-07 6.14692e-06)
(9.60447e-07 -3.89895e-07 6.14449e-06)
(9.61402e-07 -3.90572e-07 6.14203e-06)
(9.6239e-07 -3.91264e-07 6.13953e-06)
(9.63411e-07 -3.91972e-07 6.13701e-06)
(9.64463e-07 -3.92693e-07 6.13446e-06)
(9.65546e-07 -3.93428e-07 6.13187e-06)
(9.6666e-07 -3.94176e-07 6.12926e-06)
(9.67802e-07 -3.94937e-07 6.12661e-06)
(9.68972e-07 -3.9571e-07 6.12393e-06)
(9.70171e-07 -3.96495e-07 6.12121e-06)
(9.71395e-07 -3.97291e-07 6.11846e-06)
(9.72646e-07 -3.98098e-07 6.11568e-06)
(9.73923e-07 -3.98915e-07 6.11286e-06)
(9.75224e-07 -3.99742e-07 6.11e-06)
(9.76549e-07 -4.00578e-07 6.10712e-06)
(9.77897e-07 -4.01423e-07 6.1042e-06)
(9.79268e-07 -4.02277e-07 6.10125e-06)
(9.80661e-07 -4.03139e-07 6.09827e-06)
(9.82075e-07 -4.04009e-07 6.09527e-06)
(9.8351e-07 -4.04886e-07 6.09226e-06)
(9.84966e-07 -4.05771e-07 6.08924e-06)
(9.86441e-07 -4.06662e-07 6.08625e-06)
(9.87935e-07 -4.0756e-07 6.08328e-06)
(9.89448e-07 -4.08464e-07 6.08043e-06)
(9.90978e-07 -4.09375e-07 6.07913e-06)
(9.92527e-07 -4.10289e-07 6.07812e-06)
(1.12118e-06 -4.88339e-07 4.67374e-06)
(1.11153e-06 -4.82331e-07 4.72593e-06)
(1.1023e-06 -4.76598e-07 4.78367e-06)
(1.09348e-06 -4.71158e-07 4.84183e-06)
(1.08506e-06 -4.65985e-07 4.89814e-06)
(1.07701e-06 -4.61071e-07 4.95274e-06)
(1.06933e-06 -4.56401e-07 5.0056e-06)
(1.06199e-06 -4.51967e-07 5.05679e-06)
(1.05497e-06 -4.47755e-07 5.10651e-06)
(1.04828e-06 -4.43758e-07 5.15466e-06)
(1.04188e-06 -4.39963e-07 5.20143e-06)
(1.03578e-06 -4.36364e-07 5.24675e-06)
(1.02996e-06 -4.32951e-07 5.29083e-06)
(1.0244e-06 -4.29715e-07 5.33362e-06)
(1.0191e-06 -4.26649e-07 5.37517e-06)
(1.01404e-06 -4.23746e-07 5.41562e-06)
(1.00923e-06 -4.20999e-07 5.4549e-06)
(1.00464e-06 -4.18401e-07 5.49314e-06)
(1.00027e-06 -4.15945e-07 5.53034e-06)
(9.96106e-07 -4.13626e-07 5.56654e-06)
(9.92148e-07 -4.11438e-07 5.60178e-06)
(9.88385e-07 -4.09375e-07 5.63613e-06)
(9.84809e-07 -4.07433e-07 5.66958e-06)
(9.81413e-07 -4.05606e-07 5.70216e-06)
(9.78192e-07 -4.03889e-07 5.73392e-06)
(9.75138e-07 -4.02279e-07 5.7649e-06)
(9.72246e-07 -4.00771e-07 5.79513e-06)
(9.69509e-07 -3.9936e-07 5.82463e-06)
(9.66923e-07 -3.98043e-07 5.85342e-06)
(9.64481e-07 -3.96817e-07 5.88155e-06)
(9.62179e-07 -3.95677e-07 5.90903e-06)
(9.60012e-07 -3.94621e-07 5.93589e-06)
(9.57976e-07 -3.93644e-07 5.96214e-06)
(9.56065e-07 -3.92744e-07 5.9878e-06)
(9.54276e-07 -3.91919e-07 6.01289e-06)
(9.52605e-07 -3.91165e-07 6.03742e-06)
(9.51047e-07 -3.90478e-07 6.06142e-06)
(9.49599e-07 -3.89858e-07 6.08491e-06)
(9.48257e-07 -3.89301e-07 6.1079e-06)
(9.47018e-07 -3.88805e-07 6.13043e-06)
(9.45878e-07 -3.88367e-07 6.15249e-06)
(9.44834e-07 -3.87986e-07 6.17413e-06)
(9.43883e-07 -3.87659e-07 6.19534e-06)
(9.43022e-07 -3.87385e-07 6.21615e-06)
(9.42248e-07 -3.8716e-07 6.23656e-06)
(9.41559e-07 -3.86985e-07 6.23641e-06)
(9.40951e-07 -3.86856e-07 6.23469e-06)
(9.40423e-07 -3.86772e-07 6.23294e-06)
(9.39971e-07 -3.86731e-07 6.23118e-06)
(9.39593e-07 -3.86733e-07 6.22939e-06)
(9.39288e-07 -3.86774e-07 6.22759e-06)
(9.39052e-07 -3.86854e-07 6.22576e-06)
(9.38885e-07 -3.86972e-07 6.22392e-06)
(9.38783e-07 -3.87126e-07 6.22205e-06)
(9.38744e-07 -3.87314e-07 6.22016e-06)
(9.38768e-07 -3.87536e-07 6.21826e-06)
(9.38851e-07 -3.8779e-07 6.21633e-06)
(9.38993e-07 -3.88075e-07 6.21437e-06)
(9.39191e-07 -3.8839e-07 6.2124e-06)
(9.39443e-07 -3.88734e-07 6.2104e-06)
(9.39749e-07 -3.89106e-07 6.20838e-06)
(9.40107e-07 -3.89504e-07 6.20633e-06)
(9.40515e-07 -3.89929e-07 6.20426e-06)
(9.40971e-07 -3.90378e-07 6.20217e-06)
(9.41475e-07 -3.90852e-07 6.20005e-06)
(9.42024e-07 -3.91348e-07 6.19791e-06)
(9.42619e-07 -3.91867e-07 6.19573e-06)
(9.43256e-07 -3.92407e-07 6.19353e-06)
(9.43936e-07 -3.92968e-07 6.19131e-06)
(9.44656e-07 -3.93549e-07 6.18906e-06)
(9.45417e-07 -3.94149e-07 6.18679e-06)
(9.46216e-07 -3.94768e-07 6.18449e-06)
(9.47052e-07 -3.95404e-07 6.18217e-06)
(9.47925e-07 -3.96057e-07 6.17981e-06)
(9.48833e-07 -3.96727e-07 6.17743e-06)
(9.49776e-07 -3.97413e-07 6.17502e-06)
(9.50752e-07 -3.98114e-07 6.17258e-06)
(9.51761e-07 -3.9883e-07 6.17011e-06)
(9.52802e-07 -3.99559e-07 6.16762e-06)
(9.53873e-07 -4.00303e-07 6.16509e-06)
(9.54974e-07 -4.01059e-07 6.16254e-06)
(9.56105e-07 -4.01828e-07 6.15995e-06)
(9.57263e-07 -4.02609e-07 6.15734e-06)
(9.58449e-07 -4.03401e-07 6.15469e-06)
(9.59661e-07 -4.04204e-07 6.15201e-06)
(9.609e-07 -4.05018e-07 6.14931e-06)
(9.62165e-07 -4.05843e-07 6.14657e-06)
(9.63454e-07 -4.06677e-07 6.14381e-06)
(9.64767e-07 -4.07521e-07 6.14102e-06)
(9.66103e-07 -4.08373e-07 6.13821e-06)
(9.67461e-07 -4.09234e-07 6.13538e-06)
(9.68842e-07 -4.10103e-07 6.13254e-06)
(9.70243e-07 -4.1098e-07 6.12968e-06)
(9.71666e-07 -4.11864e-07 6.12684e-06)
(9.73108e-07 -4.12756e-07 6.124e-06)
(9.74571e-07 -4.13654e-07 6.12121e-06)
(9.76052e-07 -4.14559e-07 6.11923e-06)
(9.77552e-07 -4.15469e-07 6.11815e-06)
(9.79069e-07 -4.16386e-07 6.11701e-06)
(9.80604e-07 -4.17307e-07 6.11674e-06)
(1.11166e-06 -4.92116e-07 4.70413e-06)
(1.10192e-06 -4.86246e-07 4.7568e-06)
(1.09261e-06 -4.80644e-07 4.81016e-06)
(1.08371e-06 -4.75329e-07 4.86864e-06)
(1.07521e-06 -4.70274e-07 4.92524e-06)
(1.06709e-06 -4.65473e-07 4.98012e-06)
(1.05934e-06 -4.60912e-07 5.03329e-06)
(1.05193e-06 -4.56581e-07 5.08473e-06)
(1.04486e-06 -4.52468e-07 5.13473e-06)
(1.0381e-06 -4.48564e-07 5.18313e-06)
(1.03165e-06 -4.4486e-07 5.23016e-06)
(1.02549e-06 -4.41346e-07 5.27572e-06)
(1.01962e-06 -4.38014e-07 5.32002e-06)
(1.01401e-06 -4.34857e-07 5.36303e-06)
(1.00867e-06 -4.31866e-07 5.40481e-06)
(1.00357e-06 -4.29034e-07 5.44547e-06)
(9.98708e-07 -4.26355e-07 5.48497e-06)
(9.94078e-07 -4.23822e-07 5.52341e-06)
(9.89668e-07 -4.21429e-07 5.56081e-06)
(9.85471e-07 -4.1917e-07 5.59724e-06)
(9.81477e-07 -4.17039e-07 5.63267e-06)
(9.77679e-07 -4.15031e-07 5.6672e-06)
(9.74071e-07 -4.13142e-07 5.70083e-06)
(9.70644e-07 -4.11365e-07 5.73361e-06)
(9.67393e-07 -4.09697e-07 5.76556e-06)
(9.6431e-07 -4.08133e-07 5.79672e-06)
(9.6139e-07 -4.06669e-07 5.82712e-06)
(9.58627e-07 -4.05301e-07 5.85679e-06)
(9.56014e-07 -4.04025e-07 5.88576e-06)
(9.53548e-07 -4.02837e-07 5.91405e-06)
(9.51222e-07 -4.01735e-07 5.94169e-06)
(9.49033e-07 -4.00715e-07 5.96871e-06)
(9.46974e-07 -3.99772e-07 5.99511e-06)
(9.45042e-07 -3.98906e-07 6.02094e-06)
(9.43232e-07 -3.98112e-07 6.04618e-06)
(9.41541e-07 -3.97389e-07 6.07088e-06)
(9.39963e-07 -3.96732e-07 6.09503e-06)
(9.38496e-07 -3.9614e-07 6.11867e-06)
(9.37136e-07 -3.9561e-07 6.14181e-06)
(9.35879e-07 -3.9514e-07 6.16448e-06)
(9.34721e-07 -3.94728e-07 6.1867e-06)
(9.3366e-07 -3.94371e-07 6.20849e-06)
(9.32693e-07 -3.94068e-07 6.22986e-06)
(9.31816e-07 -3.93816e-07 6.25082e-06)
(9.31026e-07 -3.93613e-07 6.26955e-06)
(9.30321e-07 -3.93459e-07 6.26792e-06)
(9.29699e-07 -3.9335e-07 6.26626e-06)
(9.29155e-07 -3.93285e-07 6.26458e-06)
(9.28689e-07 -3.93264e-07 6.26288e-06)
(9.28298e-07 -3.93283e-07 6.26115e-06)
(9.27978e-07 -3.93342e-07 6.2594e-06)
(9.27729e-07 -3.9344e-07 6.25764e-06)
(9.27548e-07 -3.93574e-07 6.25585e-06)
(9.27432e-07 -3.93743e-07 6.25404e-06)
(9.27381e-07 -3.93947e-07 6.25221e-06)
(9.27391e-07 -3.94184e-07 6.25035e-06)
(9.27462e-07 -3.94452e-07 6.24848e-06)
(9.27591e-07 -3.94751e-07 6.24658e-06)
(9.27776e-07 -3.9508e-07 6.24465e-06)
(9.28016e-07 -3.95437e-07 6.24271e-06)
(9.2831e-07 -3.95821e-07 6.24074e-06)
(9.28655e-07 -3.96232e-07 6.23874e-06)
(9.29051e-07 -3.96669e-07 6.23673e-06)
(9.29495e-07 -3.9713e-07 6.23468e-06)
(9.29987e-07 -3.97615e-07 6.23261e-06)
(9.30525e-07 -3.98122e-07 6.23051e-06)
(9.31107e-07 -3.98652e-07 6.22839e-06)
(9.31732e-07 -3.99203e-07 6.22624e-06)
(9.324e-07 -3.99774e-07 6.22407e-06)
(9.33109e-07 -4.00365e-07 6.22187e-06)
(9.33857e-07 -4.00975e-07 6.21965e-06)
(9.34645e-07 -4.01603e-07 6.2174e-06)
(9.35469e-07 -4.02249e-07 6.21513e-06)
(9.3633e-07 -4.02911e-07 6.21283e-06)
(9.37227e-07 -4.0359e-07 6.2105e-06)
(9.38158e-07 -4.04285e-07 6.20814e-06)
(9.39122e-07 -4.04994e-07 6.20576e-06)
(9.40119e-07 -4.05718e-07 6.20335e-06)
(9.41148e-07 -4.06456e-07 6.20092e-06)
(9.42207e-07 -4.07208e-07 6.19845e-06)
(9.43297e-07 -4.07973e-07 6.19596e-06)
(9.44415e-07 -4.08749e-07 6.19344e-06)
(9.45562e-07 -4.09538e-07 6.1909e-06)
(9.46736e-07 -4.10337e-07 6.18832e-06)
(9.47936e-07 -4.11148e-07 6.18572e-06)
(9.49163e-07 -4.1197e-07 6.1831e-06)
(9.50415e-07 -4.12802e-07 6.18045e-06)
(9.51692e-07 -4.13644e-07 6.17778e-06)
(9.52993e-07 -4.14494e-07 6.1751e-06)
(9.54316e-07 -4.15354e-07 6.17239e-06)
(9.55662e-07 -4.16222e-07 6.16968e-06)
(9.5703e-07 -4.17098e-07 6.16697e-06)
(9.58419e-07 -4.17981e-07 6.16426e-06)
(9.59829e-07 -4.18873e-07 6.16156e-06)
(9.61259e-07 -4.19771e-07 6.15889e-06)
(9.62708e-07 -4.20676e-07 6.15781e-06)
(9.64176e-07 -4.21587e-07 6.15758e-06)
(9.65663e-07 -4.22504e-07 6.15763e-06)
(9.67167e-07 -4.23428e-07 6.1575e-06)
(9.6869e-07 -4.24355e-07 6.15756e-06)
(1.10207e-06 -4.95865e-07 4.71913e-06)
(1.09224e-06 -4.90136e-07 4.78033e-06)
(1.08285e-06 -4.84667e-07 4.84012e-06)
(1.07388e-06 -4.79479e-07 4.89562e-06)
(1.06531e-06 -4.74546e-07 4.95252e-06)
(1.05712e-06 -4.69861e-07 5.00766e-06)
(1.0493e-06 -4.6541e-07 5.06114e-06)
(1.04183e-06 -4.61184e-07 5.11285e-06)
(1.0347e-06 -4.57171e-07 5.16307e-06)
(1.02789e-06 -4.53363e-07 5.21171e-06)
(1.02138e-06 -4.49751e-07 5.25897e-06)
(1.01517e-06 -4.46324e-07 5.30476e-06)
(1.00925e-06 -4.43076e-07 5.34928e-06)
(1.0036e-06 -4.39999e-07 5.39251e-06)
(9.98206e-07 -4.37084e-07 5.43451e-06)
(9.93066e-07 -4.34325e-07 5.47537e-06)
(9.88165e-07 -4.31716e-07 5.51507e-06)
(9.83496e-07 -4.2925e-07 5.55372e-06)
(9.7905e-07 -4.2692e-07 5.59131e-06)
(9.74816e-07 -4.24722e-07 5.62792e-06)
(9.70789e-07 -4.2265e-07 5.66355e-06)
(9.66959e-07 -4.20698e-07 5.69826e-06)
(9.63319e-07 -4.18861e-07 5.73208e-06)
(9.59862e-07 -4.17136e-07 5.76504e-06)
(9.56582e-07 -4.15517e-07 5.79717e-06)
(9.53471e-07 -4.14e-07 5.8285e-06)
(9.50525e-07 -4.12581e-07 5.85906e-06)
(9.47736e-07 -4.11256e-07 5.88889e-06)
(9.45099e-07 -4.10022e-07 5.91802e-06)
(9.42609e-07 -4.08875e-07 5.94648e-06)
(9.4026e-07 -4.07811e-07 5.97428e-06)
(9.38048e-07 -4.06827e-07 6.00145e-06)
(9.35968e-07 -4.0592e-07 6.02801e-06)
(9.34016e-07 -4.05087e-07 6.05398e-06)
(9.32186e-07 -4.04326e-07 6.07938e-06)
(9.30475e-07 -4.03633e-07 6.10422e-06)
(9.28879e-07 -4.03007e-07 6.12853e-06)
(9.27394e-07 -4.02443e-07 6.15231e-06)
(9.26015e-07 -4.01941e-07 6.1756e-06)
(9.24741e-07 -4.01498e-07 6.19841e-06)
(9.23567e-07 -4.01112e-07 6.22077e-06)
(9.22489e-07 -4.00779e-07 6.24271e-06)
(9.21506e-07 -4.005e-07 6.26422e-06)
(9.20613e-07 -4.00271e-07 6.28532e-06)
(9.19808e-07 -4.0009e-07 6.30108e-06)
(9.19089e-07 -3.99957e-07 6.29951e-06)
(9.18451e-07 -3.99869e-07 6.29792e-06)
(9.17893e-07 -3.99824e-07 6.2963e-06)
(9.17413e-07 -3.99822e-07 6.29466e-06)
(9.17008e-07 -3.99859e-07 6.293e-06)
(9.16675e-07 -3.99936e-07 6.29131e-06)
(9.16412e-07 -4.00051e-07 6.2896e-06)
(9.16218e-07 -4.00202e-07 6.28787e-06)
(9.16089e-07 -4.00387e-07 6.28612e-06)
(9.16025e-07 -4.00607e-07 6.28434e-06)
(9.16022e-07 -4.00858e-07 6.28254e-06)
(9.1608e-07 -4.01141e-07 6.28072e-06)
(9.16197e-07 -4.01455e-07 6.27888e-06)
(9.1637e-07 -4.01797e-07 6.27701e-06)
(9.16598e-07 -4.02167e-07 6.27511e-06)
(9.16879e-07 -4.02565e-07 6.2732e-06)
(9.17212e-07 -4.02988e-07 6.27125e-06)
(9.17596e-07 -4.03437e-07 6.26929e-06)
(9.18028e-07 -4.0391e-07 6.26729e-06)
(9.18508e-07 -4.04406e-07 6.26528e-06)
(9.19034e-07 -4.04925e-07 6.26323e-06)
(9.19604e-07 -4.05466e-07 6.26116e-06)
(9.20218e-07 -4.06027e-07 6.25906e-06)
(9.20874e-07 -4.06609e-07 6.25694e-06)
(9.21571e-07 -4.0721e-07 6.25479e-06)
(9.22308e-07 -4.07829e-07 6.25262e-06)
(9.23083e-07 -4.08467e-07 6.25042e-06)
(9.23896e-07 -4.09122e-07 6.2482e-06)
(9.24746e-07 -4.09794e-07 6.24596e-06)
(9.2563e-07 -4.10482e-07 6.24369e-06)
(9.2655e-07 -4.11185e-07 6.24139e-06)
(9.27502e-07 -4.11904e-07 6.23907e-06)
(9.28488e-07 -4.12636e-07 6.23672e-06)
(9.29504e-07 -4.13383e-07 6.23434e-06)
(9.30551e-07 -4.14142e-07 6.23194e-06)
(9.3163e-07 -4.14915e-07 6.22952e-06)
(9.32737e-07 -4.157e-07 6.22707e-06)
(9.33871e-07 -4.16496e-07 6.2246e-06)
(9.35033e-07 -4.17303e-07 6.2221e-06)
(9.36219e-07 -4.18119e-07 6.21958e-06)
(9.37435e-07 -4.18949e-07 6.21704e-06)
(9.38676e-07 -4.1979e-07 6.21448e-06)
(9.39941e-07 -4.20639e-07 6.21191e-06)
(9.41229e-07 -4.21497e-07 6.20932e-06)
(9.4254e-07 -4.22363e-07 6.20673e-06)
(9.43873e-07 -4.23238e-07 6.20413e-06)
(9.45228e-07 -4.24121e-07 6.20154e-06)
(9.46605e-07 -4.25012e-07 6.19896e-06)
(9.48002e-07 -4.2591e-07 6.19778e-06)
(9.49419e-07 -4.26815e-07 6.19784e-06)
(9.50855e-07 -4.27727e-07 6.1979e-06)
(9.52311e-07 -4.28645e-07 6.19794e-06)
(9.53785e-07 -4.29569e-07 6.19806e-06)
(9.55275e-07 -4.30499e-07 6.198e-06)
(9.56785e-07 -4.31432e-07 6.19814e-06)
(1.09242e-06 -4.99586e-07 4.72542e-06)
(1.08251e-06 -4.94e-07 4.78647e-06)
(1.07304e-06 -4.88667e-07 4.84628e-06)
(1.064e-06 -4.83609e-07 4.9039e-06)
(1.05536e-06 -4.78799e-07 4.9689e-06)
(1.0471e-06 -4.74232e-07 5.03157e-06)
(1.03922e-06 -4.69894e-07 5.0891e-06)
(1.03169e-06 -4.65775e-07 5.14107e-06)
(1.0245e-06 -4.61865e-07 5.19154e-06)
(1.01763e-06 -4.58155e-07 5.24039e-06)
(1.01108e-06 -4.54635e-07 5.28787e-06)
(1.00482e-06 -4.51298e-07 5.33391e-06)
(9.98852e-07 -4.48135e-07 5.3786e-06)
(9.93155e-07 -4.45139e-07 5.42206e-06)
(9.87721e-07 -4.42302e-07 5.46424e-06)
(9.8254e-07 -4.39617e-07 5.50531e-06)
(9.77601e-07 -4.37079e-07 5.54521e-06)
(9.72895e-07 -4.34681e-07 5.58403e-06)
(9.68413e-07 -4.32416e-07 5.62181e-06)
(9.64146e-07 -4.3028e-07 5.65861e-06)
(9.60085e-07 -4.28267e-07 5.69442e-06)
(9.56224e-07 -4.26372e-07 5.7293e-06)
(9.52554e-07 -4.24591e-07 5.76329e-06)
(9.49069e-07 -4.22917e-07 5.79642e-06)
(9.45761e-07 -4.21349e-07 5.82872e-06)
(9.42624e-07 -4.1988e-07 5.86022e-06)
(9.39652e-07 -4.18507e-07 5.89096e-06)
(9.36839e-07 -4.17226e-07 5.92094e-06)
(9.34178e-07 -4.16034e-07 5.95022e-06)
(9.31665e-07 -4.14927e-07 5.97882e-06)
(9.29295e-07 -4.13902e-07 6.00677e-06)
(9.27062e-07 -4.12955e-07 6.0341e-06)
(9.24961e-07 -4.12084e-07 6.0608e-06)
(9.22988e-07 -4.11286e-07 6.08692e-06)
(9.21139e-07 -4.10558e-07 6.11247e-06)
(9.1941e-07 -4.09897e-07 6.13746e-06)
(9.17795e-07 -4.09301e-07 6.1619e-06)
(9.16293e-07 -4.08767e-07 6.18583e-06)
(9.14897e-07 -4.08293e-07 6.20925e-06)
(9.13606e-07 -4.07877e-07 6.2322e-06)
(9.12416e-07 -4.07516e-07 6.2547e-06)
(9.11322e-07 -4.07209e-07 6.27676e-06)
(9.10323e-07 -4.06954e-07 6.29842e-06)
(9.09416e-07 -4.06748e-07 6.31965e-06)
(9.08596e-07 -4.0659e-07 6.33269e-06)
(9.07862e-07 -4.06478e-07 6.33119e-06)
(9.0721e-07 -4.06411e-07 6.32966e-06)
(9.06638e-07 -4.06386e-07 6.32811e-06)
(9.06144e-07 -4.06403e-07 6.32654e-06)
(9.05725e-07 -4.0646e-07 6.32493e-06)
(9.05379e-07 -4.06555e-07 6.32331e-06)
(9.05103e-07 -4.06687e-07 6.32166e-06)
(9.04896e-07 -4.06854e-07 6.31998e-06)
(9.04755e-07 -4.07056e-07 6.31829e-06)
(9.04678e-07 -4.07291e-07 6.31657e-06)
(9.04663e-07 -4.07558e-07 6.31482e-06)
(9.04708e-07 -4.07856e-07 6.31306e-06)
(9.04812e-07 -4.08183e-07 6.31127e-06)
(9.04973e-07 -4.0854e-07 6.30945e-06)
(9.05189e-07 -4.08923e-07 6.30761e-06)
(9.05459e-07 -4.09334e-07 6.30575e-06)
(9.0578e-07 -4.0977e-07 6.30386e-06)
(9.06152e-07 -4.10231e-07 6.30194e-06)
(9.06572e-07 -4.10716e-07 6.3e-06)
(9.0704e-07 -4.11224e-07 6.29803e-06)
(9.07554e-07 -4.11754e-07 6.29604e-06)
(9.08113e-07 -4.12305e-07 6.29402e-06)
(9.08715e-07 -4.12878e-07 6.29197e-06)
(9.0936e-07 -4.1347e-07 6.2899e-06)
(9.10045e-07 -4.14081e-07 6.28781e-06)
(9.1077e-07 -4.1471e-07 6.28569e-06)
(9.11534e-07 -4.15358e-07 6.28355e-06)
(9.12335e-07 -4.16023e-07 6.28138e-06)
(9.13172e-07 -4.16704e-07 6.27919e-06)
(9.14045e-07 -4.17401e-07 6.27698e-06)
(9.14953e-07 -4.18113e-07 6.27474e-06)
(9.15893e-07 -4.18841e-07 6.27248e-06)
(9.16866e-07 -4.19581e-07 6.27019e-06)
(9.17869e-07 -4.20337e-07 6.26789e-06)
(9.18908e-07 -4.21104e-07 6.26555e-06)
(9.19977e-07 -4.21884e-07 6.26319e-06)
(9.21068e-07 -4.22678e-07 6.26081e-06)
(9.22191e-07 -4.23482e-07 6.25841e-06)
(9.2334e-07 -4.24299e-07 6.256e-06)
(9.24515e-07 -4.25123e-07 6.25356e-06)
(9.25721e-07 -4.25956e-07 6.25109e-06)
(9.26952e-07 -4.26804e-07 6.24862e-06)
(9.28201e-07 -4.2766e-07 6.24496e-06)
(9.29477e-07 -4.28525e-07 6.24021e-06)
(9.30775e-07 -4.29399e-07 6.23545e-06)
(9.32096e-07 -4.30281e-07 6.23111e-06)
(9.33438e-07 -4.31172e-07 6.22815e-06)
(9.34802e-07 -4.32069e-07 6.22741e-06)
(9.36186e-07 -4.32974e-07 6.22678e-06)
(9.3759e-07 -4.33886e-07 6.22615e-06)
(9.39014e-07 -4.34804e-07 6.2255e-06)
(9.40456e-07 -4.35729e-07 6.22485e-06)
(9.41917e-07 -4.36659e-07 6.22422e-06)
(9.43395e-07 -4.37597e-07 6.22346e-06)
(9.44891e-07 -4.38536e-07 6.22292e-06)
(1.0827e-06 -5.03278e-07 4.73199e-06)
(1.07272e-06 -4.97838e-07 4.79283e-06)
(1.06318e-06 -4.92644e-07 4.85247e-06)
(1.05406e-06 -4.87718e-07 4.90977e-06)
(1.04535e-06 -4.83034e-07 4.96873e-06)
(1.03704e-06 -4.78587e-07 5.03109e-06)
(1.02909e-06 -4.74363e-07 5.09146e-06)
(1.02151e-06 -4.70354e-07 5.14964e-06)
(1.01426e-06 -4.66548e-07 5.20594e-06)
(1.00735e-06 -4.62937e-07 5.26027e-06)
(1.00074e-06 -4.59513e-07 5.31282e-06)
(9.94441e-07 -4.56266e-07 5.36313e-06)
(9.88425e-07 -4.5319e-07 5.40802e-06)
(9.82686e-07 -4.50276e-07 5.45165e-06)
(9.77212e-07 -4.47519e-07 5.49404e-06)
(9.71992e-07 -4.4491e-07 5.53528e-06)
(9.67016e-07 -4.42444e-07 5.57537e-06)
(9.62275e-07 -4.40114e-07 5.61438e-06)
(9.57758e-07 -4.37916e-07 5.65233e-06)
(9.53459e-07 -4.35843e-07 5.68929e-06)
(9.49368e-07 -4.33891e-07 5.72527e-06)
(9.45477e-07 -4.32054e-07 5.76033e-06)
(9.41779e-07 -4.30328e-07 5.79448e-06)
(9.38266e-07 -4.28708e-07 5.82777e-06)
(9.34932e-07 -4.2719e-07 5.86022e-06)
(9.3177e-07 -4.2577e-07 5.89189e-06)
(9.28773e-07 -4.24444e-07 5.92278e-06)
(9.25936e-07 -4.23208e-07 5.95293e-06)
(9.23253e-07 -4.22059e-07 5.98235e-06)
(9.20719e-07 -4.20993e-07 6.01109e-06)
(9.18327e-07 -4.20007e-07 6.03918e-06)
(9.16073e-07 -4.19099e-07 6.06664e-06)
(9.13953e-07 -4.18264e-07 6.09349e-06)
(9.11962e-07 -4.17501e-07 6.11974e-06)
(9.10094e-07 -4.16806e-07 6.14543e-06)
(9.08347e-07 -4.16177e-07 6.17055e-06)
(9.06715e-07 -4.15612e-07 6.19514e-06)
(9.05195e-07 -4.15108e-07 6.21921e-06)
(9.03783e-07 -4.14663e-07 6.24277e-06)
(9.02476e-07 -4.14274e-07 6.26585e-06)
(9.0127e-07 -4.1394e-07 6.28848e-06)
(9.00161e-07 -4.13659e-07 6.31067e-06)
(8.99147e-07 -4.13428e-07 6.33245e-06)
(8.98225e-07 -4.13245e-07 6.35382e-06)
(8.97391e-07 -4.1311e-07 6.36437e-06)
(8.96643e-07 -4.1302e-07 6.36294e-06)
(8.95977e-07 -4.12974e-07 6.36148e-06)
(8.95392e-07 -4.1297e-07 6.36e-06)
(8.94884e-07 -4.13006e-07 6.35848e-06)
(8.94452e-07 -4.13082e-07 6.35694e-06)
(8.94093e-07 -4.13195e-07 6.35538e-06)
(8.93805e-07 -4.13345e-07 6.35379e-06)
(8.93584e-07 -4.13529e-07 6.35217e-06)