/*--------------------------------*- C++ -*----------------------------------*\
| =========                 |                                                 |
| \\      /  F ield         | foam-extend: Open Source CFD                    |
|  \\    /   O peration     | Version:     4.1                                |
|   \\  /    A nd           | Web:         http://www.foam-extend.org         |
|    \\/     M anipulation  |                                                 |
\*---------------------------------------------------------------------------*/
FoamFile
{
    version     2.0;
    format      ascii;
    class       volScalarField;
    location    "2";
    object      epsilonEq;
}
// * * * * * * * * * * * * * * * * * * * * * * * * * * * * * * * * * * * * * //

dimensions      [0 0 0 0 0 0 0];

internalField   nonuniform List<scalar> 
100000
(
5.23351e-06
7.88479e-06
7.74044e-06
7.55061e-06
7.38507e-06
7.22322e-06
7.0717e-06
6.92759e-06
6.79049e-06
6.65862e-06
6.53204e-06
6.41263e-06
6.30166e-06
6.19385e-06
6.09212e-06
5.99385e-06
5.90097e-06
5.81302e-06
5.7298e-06
5.64984e-06
5.57296e-06
5.50106e-06
5.43089e-06
5.3643e-06
5.29967e-06
5.23868e-06
5.18013e-06
5.12417e-06
5.07086e-06
5.01971e-06
4.97036e-06
4.92223e-06
4.37164e-06
3.55981e-06
3.53167e-06
3.52005e-06
3.5081e-06
3.49603e-06
3.48381e-06
3.4715e-06
3.45909e-06
3.44652e-06
3.43377e-06
3.42093e-06
3.40806e-06
3.39519e-06
3.38229e-06
3.36938e-06
3.35637e-06
3.34332e-06
3.33015e-06
3.31713e-06
3.30401e-06
3.29109e-06
3.27815e-06
3.26534e-06
3.25252e-06
3.23968e-06
3.22698e-06
3.21433e-06
3.20179e-06
3.18925e-06
3.17686e-06
3.16456e-06
3.15236e-06
3.14015e-06
3.12799e-06
3.11599e-06
3.10403e-06
3.0923e-06
3.08063e-06
3.06915e-06
3.05794e-06
3.04676e-06
3.03573e-06
3.02482e-06
3.01401e-06
3.00342e-06
3.03519e-06
3.07151e-06
3.10856e-06
3.15024e-06
3.15115e-06
3.14254e-06
3.13427e-06
3.12642e-06
3.11904e-06
3.11219e-06
3.10596e-06
3.10044e-06
3.0958e-06
3.09218e-06
3.08982e-06
3.08911e-06
3.09026e-06
3.0946e-06
3.10097e-06
3.11465e-06
3.12914e-06
3.15303e-06
5.46025e-06
7.8426e-06
7.79673e-06
7.60558e-06
7.4342e-06
7.27136e-06
7.11757e-06
6.97132e-06
6.83097e-06
6.69561e-06
6.56869e-06
6.44919e-06
6.33554e-06
6.22495e-06
6.12108e-06
6.02184e-06
5.92707e-06
5.83792e-06
5.75327e-06
5.67215e-06
5.59466e-06
5.52084e-06
5.44847e-06
5.38054e-06
5.31563e-06
5.25378e-06
5.19366e-06
5.13644e-06
5.08208e-06
5.03e-06
4.97977e-06
4.93182e-06
4.21432e-06
3.55629e-06
3.54308e-06
3.53144e-06
3.51957e-06
3.50746e-06
3.49522e-06
3.48283e-06
3.47033e-06
3.45775e-06
3.44504e-06
3.43221e-06
3.41927e-06
3.40632e-06
3.39333e-06
3.38035e-06
3.36732e-06
3.35435e-06
3.34118e-06
3.32813e-06
3.31499e-06
3.30203e-06
3.28907e-06
3.27614e-06
3.26336e-06
3.25055e-06
3.23784e-06
3.22516e-06
3.21266e-06
3.20014e-06
3.18774e-06
3.17543e-06
3.16318e-06
3.15108e-06
3.13893e-06
3.12696e-06
3.11509e-06
3.10333e-06
3.09177e-06
3.08028e-06
3.069e-06
3.05797e-06
3.04702e-06
3.03621e-06
3.06051e-06
3.09877e-06
3.13726e-06
3.17983e-06
3.17795e-06
3.16864e-06
3.15968e-06
3.15106e-06
3.1428e-06
3.13495e-06
3.12754e-06
3.12066e-06
3.11435e-06
3.10864e-06
3.10365e-06
3.09948e-06
3.09627e-06
3.09412e-06
3.09304e-06
3.09337e-06
3.09434e-06
3.09726e-06
3.0985e-06
3.09525e-06
5.49848e-06
7.74565e-06
7.8497e-06
7.65533e-06
7.48186e-06
7.31833e-06
7.16049e-06
7.01207e-06
6.87064e-06
6.73346e-06
6.60327e-06
6.48104e-06
6.36505e-06
6.25458e-06
6.14861e-06
6.04887e-06
5.95263e-06
5.86226e-06
5.77652e-06
5.6934e-06
5.61362e-06
5.53856e-06
5.46598e-06
5.39723e-06
5.3309e-06
5.26697e-06
5.20545e-06
5.14741e-06
5.09248e-06
5.03979e-06
4.98898e-06
4.94009e-06
4.22071e-06
3.56103e-06
3.55403e-06
3.54218e-06
3.53033e-06
3.5183e-06
3.50606e-06
3.4936e-06
3.48101e-06
3.46839e-06
3.45567e-06
3.44286e-06
3.42996e-06
3.41701e-06
3.40394e-06
3.39093e-06
3.3778e-06
3.36474e-06
3.35148e-06
3.33839e-06
3.3253e-06
3.31228e-06
3.29935e-06
3.2864e-06
3.27361e-06
3.26077e-06
3.24806e-06
3.2354e-06
3.22288e-06
3.21037e-06
3.19792e-06
3.18566e-06
3.17339e-06
3.16129e-06
3.14921e-06
3.13721e-06
3.12547e-06
3.11376e-06
3.10221e-06
3.09084e-06
3.0796e-06
3.06863e-06
3.08026e-06
3.12087e-06
3.16049e-06
3.20356e-06
3.20472e-06
3.19482e-06
3.18515e-06
3.17577e-06
3.16671e-06
3.15795e-06
3.14954e-06
3.14151e-06
3.13388e-06
3.12669e-06
3.11995e-06
3.11372e-06
3.10806e-06
3.103e-06
3.09854e-06
3.09465e-06
3.09119e-06
3.08811e-06
3.08479e-06
3.08112e-06
3.07541e-06
3.06175e-06
4.6563e-06
7.5406e-06
7.78531e-06
7.70489e-06
7.53065e-06
7.36402e-06
7.20266e-06
7.05031e-06
6.90696e-06
6.76848e-06
6.6373e-06
6.51323e-06
6.39619e-06
6.28339e-06
6.1756e-06
6.07448e-06
5.9772e-06
5.88528e-06
5.79769e-06
5.71283e-06
5.63249e-06
5.55647e-06
5.48212e-06
5.4115e-06
5.34406e-06
5.27955e-06
5.21743e-06
5.15834e-06
5.10215e-06
5.04821e-06
4.99613e-06
4.94561e-06
4.1011e-06
3.57293e-06
3.56455e-06
3.55264e-06
3.54063e-06
3.52848e-06
3.51615e-06
3.50364e-06
3.49097e-06
3.47824e-06
3.46541e-06
3.45256e-06
3.43962e-06
3.42672e-06
3.41367e-06
3.4007e-06
3.38752e-06
3.3744e-06
3.36116e-06
3.34803e-06
3.33496e-06
3.32186e-06
3.30896e-06
3.296e-06
3.28318e-06
3.27034e-06
3.25761e-06
3.24495e-06
3.23237e-06
3.21995e-06
3.20747e-06
3.19521e-06
3.18299e-06
3.17082e-06
3.15884e-06
3.14683e-06
3.13504e-06
3.12342e-06
3.11187e-06
3.10059e-06
3.09473e-06
3.13826e-06
3.17881e-06
3.22213e-06
3.23168e-06
3.22121e-06
3.21096e-06
3.20092e-06
3.19114e-06
3.18159e-06
3.17231e-06
3.16327e-06
3.15459e-06
3.14625e-06
3.13818e-06
3.13041e-06
3.12299e-06
3.11592e-06
3.10921e-06
3.10284e-06
3.09671e-06
3.09073e-06
3.08472e-06
3.07848e-06
3.07163e-06
3.06393e-06
3.05463e-06
3.03821e-06
4.03566e-06
7.41577e-06
7.2969e-06
7.29056e-06
7.35322e-06
7.40673e-06
7.24301e-06
7.0891e-06
6.94425e-06
6.80414e-06
6.67137e-06
6.54351e-06
6.42464e-06
6.31029e-06
6.20197e-06
6.09886e-06
6.0006e-06
5.90652e-06
5.81833e-06
5.73232e-06
5.64964e-06
5.5719e-06
5.4972e-06
5.42602e-06
5.35759e-06
5.29162e-06
5.22776e-06
5.16709e-06
5.1098e-06
5.05496e-06
5.0021e-06
4.91039e-06
3.92254e-06
3.5858e-06
3.5741e-06
3.56218e-06
3.55011e-06
3.53792e-06
3.52557e-06
3.51309e-06
3.50042e-06
3.48762e-06
3.47468e-06
3.46175e-06
3.44872e-06
3.43581e-06
3.42275e-06
3.40975e-06
3.39657e-06
3.38342e-06
3.37025e-06
3.35703e-06
3.34397e-06
3.33083e-06
3.31792e-06
3.30494e-06
3.29206e-06
3.27925e-06
3.26649e-06
3.25387e-06
3.2412e-06
3.22876e-06
3.21635e-06
3.20403e-06
3.19192e-06
3.17974e-06
3.16779e-06
3.15595e-06
3.14413e-06
3.13251e-06
3.12101e-06
3.15103e-06
3.19237e-06
3.23568e-06
3.25887e-06
3.24788e-06
3.2371e-06
3.22648e-06
3.21611e-06
3.20591e-06
3.19592e-06
3.18615e-06
3.17664e-06
3.16729e-06
3.15823e-06
3.14944e-06
3.14088e-06
3.13251e-06
3.12441e-06
3.1165e-06
3.10876e-06
3.10111e-06
3.09349e-06
3.08579e-06
3.07785e-06
3.06954e-06
3.06058e-06
3.05082e-06
3.03999e-06
3.02238e-06
3.7959e-06
7.14463e-06
7.2968e-06
7.59232e-06
7.56152e-06
7.03267e-06
6.65347e-06
6.66513e-06
6.70412e-06
6.75969e-06
6.70181e-06
6.57338e-06
6.45162e-06
6.33692e-06
6.22654e-06
6.12246e-06
6.02304e-06
5.92737e-06
5.83713e-06
5.74966e-06
5.66632e-06
5.58786e-06
5.51186e-06
5.43865e-06
5.36855e-06
5.30171e-06
5.23751e-06
5.17629e-06
5.11796e-06
5.06195e-06
5.00815e-06
4.82778e-06
3.81328e-06
3.59487e-06
3.58319e-06
3.57125e-06
3.55905e-06
3.54676e-06
3.53437e-06
3.5219e-06
3.50924e-06
3.49648e-06
3.48349e-06
3.47051e-06
3.45737e-06
3.44434e-06
3.4312e-06
3.41811e-06
3.40494e-06
3.39174e-06
3.37861e-06
3.36536e-06
3.35231e-06
3.33917e-06
3.32617e-06
3.3132e-06
3.30026e-06
3.2875e-06
3.27469e-06
3.26211e-06
3.24945e-06
3.23691e-06
3.22459e-06
3.21219e-06
3.20001e-06
3.18794e-06
3.17593e-06
3.16415e-06
3.15245e-06
3.15736e-06
3.20157e-06
3.24537e-06
3.28644e-06
3.27496e-06
3.26365e-06
3.25252e-06
3.24162e-06
3.23082e-06
3.2204e-06
3.20979e-06
3.19936e-06
3.1469e-06
3.08642e-06
3.02639e-06
2.96739e-06
2.90901e-06
2.85088e-06
2.79361e-06
2.73704e-06
2.68116e-06
2.62596e-06
2.5714e-06
2.51746e-06
2.46405e-06
2.4113e-06
2.35857e-06
2.30734e-06
2.25466e-06
2.20405e-06
2.18123e-06
3.80394e-06
7.13613e-06
6.93972e-06
7.18582e-06
7.45838e-06
7.20765e-06
6.984e-06
6.7973e-06
6.64758e-06
6.34871e-06
5.99295e-06
5.85313e-06
5.83874e-06
5.83792e-06
5.84298e-06
5.85436e-06
5.86746e-06
5.88028e-06
5.85545e-06
5.76715e-06
5.68194e-06
5.60131e-06
5.52411e-06
5.45029e-06
5.37968e-06
5.31212e-06
5.24688e-06
5.18432e-06
5.12466e-06
5.06761e-06
5.01283e-06
4.75135e-06
3.78451e-06
3.60338e-06
3.59162e-06
3.57964e-06
3.56737e-06
3.55496e-06
3.54239e-06
3.5298e-06
3.51707e-06
3.50434e-06
3.49137e-06
3.4784e-06
3.46528e-06
3.45218e-06
3.43903e-06
3.42583e-06
3.41267e-06
3.3994e-06
3.3863e-06
3.37305e-06
3.35996e-06
3.34682e-06
3.33374e-06
3.29993e-06
3.21886e-06
3.1374e-06
3.05545e-06
2.97335e-06
2.8912e-06
2.80898e-06
2.72707e-06
2.64554e-06
2.56444e-06
2.48415e-06
2.40461e-06
2.326e-06
2.31262e-06
2.31323e-06
2.31626e-06
2.28222e-06
2.23276e-06
2.18355e-06
2.13467e-06
2.08625e-06
2.0383e-06
1.99097e-06
1.94439e-06
2.18826e-06
1.85819e-06
1.82323e-06
1.78298e-06
1.74182e-06
1.91785e-06
1.88217e-06
1.62635e-06
1.59028e-06
1.55575e-06
1.52264e-06
1.49101e-06
1.46092e-06
1.43242e-06
1.40554e-06
1.38051e-06
1.35693e-06
1.33579e-06
1.31662e-06
1.29768e-06
1.30553e-06
3.81026e-06
7.12264e-06
6.91455e-06
6.86695e-06
7.10013e-06
7.17649e-06
6.93704e-06
6.70455e-06
6.48541e-06
6.2719e-06
6.07318e-06
5.89044e-06
5.72669e-06
5.58819e-06
5.46524e-06
5.35655e-06
5.26014e-06
5.11823e-06
4.91207e-06
4.77774e-06
4.73334e-06
4.69259e-06
4.65279e-06
4.61335e-06
4.57389e-06
4.53452e-06
4.49393e-06
4.45207e-06
4.4095e-06
4.36601e-06
4.32108e-06
3.9437e-06
2.88383e-06
2.69461e-06
2.68464e-06
2.66942e-06
2.64925e-06
2.62456e-06
2.59564e-06
2.56299e-06
2.52678e-06
2.48752e-06
2.44533e-06
2.40059e-06
2.35362e-06
2.30457e-06
2.25392e-06
2.20167e-06
2.14845e-06
2.09415e-06
2.03941e-06
1.9842e-06
1.92892e-06
1.87384e-06
1.82225e-06
1.78219e-06
1.74347e-06
1.69482e-06
1.64812e-06
1.60367e-06
1.56203e-06
1.52342e-06
1.48823e-06
1.457e-06
1.4299e-06
1.40728e-06
1.3942e-06
1.3685e-06
1.34414e-06
1.33878e-06
1.32699e-06
1.3169e-06
1.3086e-06
1.30218e-06
1.29773e-06
1.29529e-06
1.29487e-06
1.29657e-06
1.30028e-06
1.30608e-06
1.31382e-06
1.31369e-06
1.31185e-06
1.30998e-06
1.30772e-06
1.30552e-06
1.30349e-06
1.30122e-06
1.29891e-06
1.29651e-06
1.29409e-06
1.29164e-06
1.28918e-06
1.28671e-06
1.28433e-06
1.28184e-06
1.27945e-06
1.27792e-06
1.27384e-06
1.27743e-06
3.8165e-06
7.10929e-06
6.90175e-06
6.65371e-06
6.75572e-06
6.99971e-06
6.90706e-06
6.6762e-06
6.459e-06
6.24808e-06
6.05156e-06
5.86394e-06
5.68072e-06
5.50853e-06
5.34519e-06
5.1923e-06
5.04409e-06
4.89896e-06
4.75869e-06
4.62115e-06
4.49077e-06
4.3702e-06
4.25669e-06
4.14928e-06
4.04739e-06
3.95163e-06
3.86016e-06
3.77178e-06
3.68694e-06
3.60595e-06
3.52846e-06
2.9282e-06
1.59042e-06
1.30286e-06
1.30724e-06
1.30997e-06
1.31129e-06
1.31153e-06
1.31097e-06
1.31003e-06
1.30903e-06
1.30835e-06
1.30835e-06
1.30936e-06
1.31178e-06
1.31592e-06
1.32211e-06
1.3306e-06
1.3416e-06
1.3553e-06
1.37184e-06
1.39137e-06
1.41402e-06
1.43977e-06
1.46873e-06
1.49083e-06
1.49178e-06
1.4926e-06
1.49324e-06
1.49373e-06
1.49409e-06
1.4943e-06
1.49438e-06
1.49433e-06
1.49412e-06
1.45856e-06
1.3869e-06
1.33832e-06
1.33203e-06
1.33117e-06
1.33024e-06
1.32921e-06
1.3281e-06
1.32692e-06
1.32564e-06
1.32428e-06
1.32284e-06
1.32131e-06
1.31975e-06
1.31811e-06
1.31632e-06
1.31444e-06
1.31257e-06
1.31059e-06
1.30857e-06
1.30652e-06
1.30436e-06
1.30213e-06
1.29992e-06
1.29764e-06
1.29534e-06
1.29301e-06
1.29069e-06
1.28835e-06
1.28611e-06
1.28629e-06
1.28717e-06
1.28571e-06
1.27528e-06
1.24731e-06
3.69919e-06
7.02731e-06
6.82078e-06
6.57445e-06
6.35966e-06
6.6479e-06
6.96727e-06
6.73952e-06
6.52175e-06
6.31327e-06
6.11663e-06
5.93127e-06
5.75183e-06
5.58134e-06
5.417e-06
5.26565e-06
5.12259e-06
4.98097e-06
4.84588e-06
4.71764e-06
4.59364e-06
4.47679e-06
4.36573e-06
4.25921e-06
4.15631e-06
4.05849e-06
3.96543e-06
3.87617e-06
3.79072e-06
3.71014e-06
3.6343e-06
2.97034e-06
1.94682e-06
1.78066e-06
1.79009e-06
1.79952e-06
1.80892e-06
1.81827e-06
1.82753e-06
1.83675e-06
1.84571e-06
1.85462e-06
1.86316e-06
1.87163e-06
1.87979e-06
1.88777e-06
1.89548e-06
1.90286e-06
1.90995e-06
1.91668e-06
1.9231e-06
1.9293e-06
1.93519e-06
1.94081e-06
1.9463e-06
1.95115e-06
1.95631e-06
1.96124e-06
1.96522e-06
1.96925e-06
1.97288e-06
1.97628e-06
1.97934e-06
1.98208e-06
1.90097e-06
1.81576e-06
1.76481e-06
1.77682e-06
1.78851e-06
1.79981e-06
1.81077e-06
1.82141e-06
1.83173e-06
1.84173e-06
1.85139e-06
1.86076e-06
1.86985e-06
1.87867e-06
1.88722e-06
1.89545e-06
1.90343e-06
1.91121e-06
1.9188e-06
1.9262e-06
1.93342e-06
1.94053e-06
1.94761e-06
1.95463e-06
1.96161e-06
1.96854e-06
1.9755e-06
1.9825e-06
1.98958e-06
1.99677e-06
2.00699e-06
1.98221e-06
1.94664e-06
1.90518e-06
1.86783e-06
1.90836e-06
3.74003e-06
6.95317e-06
6.78658e-06
6.57536e-06
6.39381e-06
6.36905e-06
6.93859e-06
7.26048e-06
7.05129e-06
6.85342e-06
6.66589e-06
6.48997e-06
6.3242e-06
6.16646e-06
6.01326e-06
5.87264e-06
5.74238e-06
5.61454e-06
5.49249e-06
5.37774e-06
5.2671e-06
5.16272e-06
5.06447e-06
4.97151e-06
4.88207e-06
4.79692e-06
4.71643e-06
4.64032e-06
4.56767e-06
4.49908e-06
4.43474e-06
3.85351e-06
3.27567e-06
3.20629e-06
3.20937e-06
3.21248e-06
3.21553e-06
3.21863e-06
3.22153e-06
3.22451e-06
3.22714e-06
3.2298e-06
3.23212e-06
3.23433e-06
3.23635e-06
3.2381e-06
3.23967e-06
3.24084e-06
3.24172e-06
3.24232e-06
3.24256e-06
3.24265e-06
3.24243e-06
3.24208e-06
3.24133e-06
3.24047e-06
3.3644e-06
3.23779e-06
3.23605e-06
3.23414e-06
3.23181e-06
3.22931e-06
3.20232e-06
3.09754e-06
2.99775e-06
2.97101e-06
2.98196e-06
2.99236e-06
3.00223e-06
3.01159e-06
3.02051e-06
3.02897e-06
3.03704e-06
3.0447e-06
3.05195e-06
3.05883e-06
3.06537e-06
3.07158e-06
3.0775e-06
3.08316e-06
3.08859e-06
3.09383e-06
3.09882e-06
3.10359e-06
3.10817e-06
3.11265e-06
3.11705e-06
3.12141e-06
3.12575e-06
3.1301e-06
3.13446e-06
3.13885e-06
3.12293e-06
3.07958e-06
3.02964e-06
2.96874e-06
2.91127e-06
2.87021e-06
2.85946e-06
2.84934e-06
4.05557e-06
7.06919e-06
6.90805e-06
6.7009e-06
6.51935e-06
6.34031e-06
6.4862e-06
7.11441e-06
7.32552e-06
7.16758e-06
7.01976e-06
6.87897e-06
6.74666e-06
6.62632e-06
6.50464e-06
6.39089e-06
6.28846e-06
6.18888e-06
6.09186e-06
5.99905e-06
5.9088e-06
5.823e-06
5.74214e-06
5.66555e-06
5.5908e-06
5.51794e-06
5.44755e-06
5.38031e-06
5.31552e-06
5.25327e-06
5.19358e-06
4.66399e-06
4.26185e-06
4.21619e-06
4.20763e-06
4.19855e-06
4.18879e-06
4.17865e-06
4.16786e-06
4.15677e-06
4.14521e-06
4.1333e-06
4.12114e-06
4.10853e-06
4.09582e-06
4.08277e-06
4.06951e-06
4.05604e-06
4.04227e-06
4.0284e-06
4.01435e-06
4.00014e-06
3.98585e-06
3.97151e-06
3.95689e-06
3.94253e-06
3.92734e-06
3.91206e-06
3.89749e-06
3.88255e-06
3.86768e-06
3.79904e-06
3.68101e-06
3.57041e-06
3.55339e-06
3.5392e-06
3.52501e-06
3.51092e-06
3.49685e-06
3.48279e-06
3.46879e-06
3.45481e-06
3.44089e-06
3.42703e-06
3.41323e-06
3.3995e-06
3.38582e-06
3.3722e-06
3.35866e-06
3.3452e-06
3.33189e-06
3.31872e-06
3.3057e-06
3.29282e-06
3.28007e-06
3.26742e-06
3.25489e-06
3.24246e-06
3.23015e-06
3.21801e-06
3.16149e-06
3.09793e-06
3.03161e-06
2.96964e-06
2.91152e-06
2.89617e-06
2.88551e-06
2.87513e-06
2.86437e-06
2.85417e-06
4.01645e-06
6.99062e-06
6.83307e-06
6.62975e-06
6.45375e-06
6.27971e-06
6.11683e-06
6.39242e-06
7.00038e-06
7.10466e-06
6.96092e-06
6.826e-06
6.69569e-06
6.57818e-06
6.46395e-06
6.35337e-06
6.25194e-06
6.15482e-06
6.06206e-06
5.97387e-06
5.88762e-06
5.80386e-06
5.72406e-06
5.64944e-06
5.57785e-06
5.50817e-06
5.44032e-06
5.37509e-06
5.3124e-06
5.25192e-06
5.19357e-06
4.63388e-06
4.25087e-06
4.21838e-06
4.2098e-06
4.20078e-06
4.19106e-06
4.18094e-06
4.17022e-06
4.15908e-06
4.1476e-06
4.13557e-06
4.12339e-06
4.11076e-06
4.09795e-06
4.08491e-06
4.07153e-06
4.058e-06
4.04421e-06
4.03022e-06
4.01611e-06
4.00186e-06
3.98749e-06
3.97297e-06
3.95835e-06
3.94356e-06
3.92872e-06
3.91374e-06
3.89877e-06
3.88369e-06
3.78941e-06
3.67064e-06
3.58606e-06
3.57179e-06
3.55752e-06
3.54336e-06
3.5292e-06
3.51509e-06
3.50099e-06
3.48694e-06
3.47293e-06
3.45895e-06
3.44504e-06
3.43115e-06
3.41732e-06
3.40357e-06
3.38991e-06
3.37635e-06
3.36288e-06
3.3495e-06
3.33622e-06
3.32302e-06
3.30992e-06
3.29695e-06
3.28416e-06
3.27154e-06
3.2591e-06
3.228e-06
3.16634e-06
3.09835e-06
3.03201e-06
2.97181e-06
2.93302e-06
2.92211e-06
2.91135e-06
2.90058e-06
2.88995e-06
2.87953e-06
2.86866e-06
2.85826e-06
3.97781e-06
6.91145e-06
6.75642e-06
6.5571e-06
6.38504e-06
6.21778e-06
6.05782e-06
5.9096e-06
6.26411e-06
6.85001e-06
6.90065e-06
6.76969e-06
6.64412e-06
6.53029e-06
6.42048e-06
6.31402e-06
6.21617e-06
6.12176e-06
6.03102e-06
5.9454e-06
5.86324e-06
5.78363e-06
5.70654e-06
5.63363e-06
5.56396e-06
5.49643e-06
5.43082e-06
5.36749e-06
5.30684e-06
5.24847e-06
5.1921e-06
4.60875e-06
4.24203e-06
4.21979e-06
4.21118e-06
4.2021e-06
4.1924e-06
4.18221e-06
4.17159e-06
4.16038e-06
4.14892e-06
4.13689e-06
4.12461e-06
4.11204e-06
4.09912e-06
4.08603e-06
4.0726e-06
4.05897e-06
4.04515e-06
4.03111e-06
4.01693e-06
4.00259e-06
3.98817e-06
3.97355e-06
3.9588e-06
3.94395e-06
3.92904e-06
3.91404e-06
3.89897e-06
3.78242e-06
3.66286e-06
3.60359e-06
3.5893e-06
3.57509e-06
3.56087e-06
3.54669e-06
3.53253e-06
3.51842e-06
3.50432e-06
3.4903e-06
3.47633e-06
3.46239e-06
3.44848e-06
3.43461e-06
3.42081e-06
3.40705e-06
3.39333e-06
3.37969e-06
3.36615e-06
3.35275e-06
3.33949e-06
3.32636e-06
3.31333e-06
3.30039e-06
3.28754e-06
3.2329e-06
3.16745e-06
3.09886e-06
3.03444e-06
2.97412e-06
2.95865e-06
2.94758e-06
2.93653e-06
2.92547e-06
2.91459e-06
2.90375e-06
2.89314e-06
2.88281e-06
2.87207e-06
2.86168e-06
3.93682e-06
6.83147e-06
6.6796e-06
6.48365e-06
6.31341e-06
6.15322e-06
5.99806e-06
5.85202e-06
5.71671e-06
6.10159e-06
6.66516e-06
6.71277e-06
6.5898e-06
6.47864e-06
6.37417e-06
6.27248e-06
6.17855e-06
6.08803e-06
6.00022e-06
5.91671e-06
5.83709e-06
5.76073e-06
5.68674e-06
5.61639e-06
5.54931e-06
5.484e-06
5.42042e-06
5.35876e-06
5.29983e-06
5.24311e-06
5.1888e-06
4.58731e-06
4.23468e-06
4.22034e-06
4.21176e-06
4.2026e-06
4.19294e-06
4.18262e-06
4.17202e-06
4.16078e-06
4.14923e-06
4.13726e-06
4.1249e-06
4.11231e-06
4.09935e-06
4.08617e-06
4.07272e-06
4.05902e-06
4.04512e-06
4.03102e-06
4.0168e-06
4.00237e-06
3.98785e-06
3.97318e-06
3.95838e-06
3.94346e-06
3.92849e-06
3.90371e-06
3.77812e-06
3.65761e-06
3.62023e-06
3.60598e-06
3.59169e-06
3.57744e-06
3.56324e-06
3.54907e-06
3.53487e-06
3.52073e-06
3.50664e-06
3.49263e-06
3.47865e-06
3.46471e-06
3.45081e-06
3.43696e-06
3.42319e-06
3.40951e-06
3.3959e-06
3.38234e-06
3.36884e-06
3.35542e-06
3.34211e-06
3.32893e-06
3.30146e-06
3.23781e-06
3.16856e-06
3.10023e-06
3.0376e-06
2.99508e-06
2.98367e-06
2.97237e-06
2.96121e-06
2.95014e-06
2.93913e-06
2.92814e-06
2.91724e-06
2.90628e-06
2.8955e-06
2.88505e-06
2.87431e-06
2.86394e-06
3.89294e-06
6.74773e-06
6.60128e-06
6.41028e-06
6.24151e-06
6.08503e-06
5.93683e-06
5.79399e-06
5.66142e-06
5.53682e-06
5.90678e-06
6.44848e-06
6.53593e-06
6.42758e-06
6.32628e-06
6.22785e-06
6.13722e-06
6.05111e-06
5.96753e-06
5.88717e-06
5.81011e-06
5.73635e-06
5.66515e-06
5.59723e-06
5.53292e-06
5.47031e-06
5.40919e-06
5.34935e-06
5.29214e-06
5.2366e-06
5.18436e-06
4.56978e-06
4.22813e-06
4.21981e-06
4.21136e-06
4.20215e-06
4.19252e-06
4.18217e-06
4.17148e-06
4.1603e-06
4.14864e-06
4.13667e-06
4.12428e-06
4.11162e-06
4.09862e-06
4.08537e-06
4.07188e-06
4.0581e-06
4.04415e-06
4.02999e-06
4.0157e-06
4.00125e-06
3.98662e-06
3.97188e-06
3.95705e-06
3.94206e-06
3.90396e-06
3.77615e-06
3.65525e-06
3.63599e-06
3.62174e-06
3.60747e-06
3.59325e-06
3.579e-06
3.56474e-06
3.55052e-06
3.53635e-06
3.52225e-06
3.50818e-06
3.49416e-06
3.48018e-06
3.46623e-06
3.45233e-06
3.43846e-06
3.42463e-06
3.41087e-06
3.39719e-06
3.38363e-06
3.37021e-06
3.35691e-06
3.30597e-06
3.23961e-06
3.16923e-06
3.10243e-06
3.04009e-06
3.02003e-06
3.00852e-06
2.99708e-06
2.98569e-06
2.97432e-06
2.963e-06
2.95178e-06
2.94071e-06
2.92975e-06
2.91893e-06
2.90808e-06
2.89736e-06
2.88687e-06
2.87604e-06
2.8655e-06
3.8486e-06
6.66112e-06
6.52027e-06
6.33443e-06
6.17023e-06
6.0151e-06
5.87288e-06
5.73471e-06
5.60611e-06
5.48308e-06
5.37009e-06
5.68203e-06
6.19739e-06
6.37495e-06
6.27732e-06
6.18329e-06
6.09582e-06
6.01295e-06
5.9329e-06
5.85594e-06
5.78211e-06
5.71111e-06
5.64243e-06
5.57659e-06
5.51468e-06
5.45472e-06
5.39623e-06
5.33816e-06
5.28295e-06
5.22857e-06
5.17794e-06
4.55558e-06
4.22215e-06
4.21836e-06
4.20996e-06
4.20073e-06
4.19106e-06
4.18081e-06
4.17001e-06
4.15884e-06
4.14717e-06
4.13513e-06
4.12271e-06
4.11e-06
4.09696e-06
4.08363e-06
4.07009e-06
4.05626e-06
4.04225e-06
4.02804e-06
4.01367e-06
3.99915e-06
3.98451e-06
3.96968e-06
3.9548e-06
3.90594e-06
3.77655e-06
3.66487e-06
3.65069e-06
3.63645e-06
3.62225e-06
3.60802e-06
3.5938e-06
3.57955e-06
3.56532e-06
3.55106e-06
3.53689e-06
3.5228e-06
3.50875e-06
3.49474e-06
3.48075e-06
3.46684e-06
3.45301e-06
3.43923e-06
3.42549e-06
3.41178e-06
3.39811e-06
3.37477e-06
3.30949e-06
3.2395e-06
3.16955e-06
3.1048e-06
3.0563e-06
3.04447e-06
3.03269e-06
3.021e-06
3.00941e-06
2.99793e-06
2.98653e-06
2.9752e-06
2.96394e-06
2.95272e-06
2.94156e-06
2.93046e-06
2.91955e-06
2.8748e-06
2.78796e-06
2.70132e-06
2.61837e-06
2.5502e-06
3.80453e-06
6.57232e-06
6.43767e-06
6.2559e-06
6.09771e-06
5.94511e-06
5.80579e-06
5.67325e-06
5.54956e-06
5.42996e-06
5.31817e-06
5.21638e-06
5.42313e-06
5.91811e-06
6.22834e-06
6.13676e-06
6.05202e-06
5.97268e-06
5.8965e-06
5.82298e-06
5.75245e-06
5.68448e-06
5.61854e-06
5.55473e-06
5.49481e-06
5.43717e-06
5.38178e-06
5.32581e-06
5.27231e-06
5.21944e-06
5.16964e-06
4.54388e-06
4.21646e-06
4.21616e-06
4.20766e-06
4.19846e-06
4.18868e-06
4.17846e-06
4.16765e-06
4.15641e-06
4.14474e-06
4.13269e-06
4.12019e-06
4.10741e-06
4.09438e-06
4.08098e-06
4.06734e-06
4.0535e-06
4.03943e-06
4.02517e-06
4.01074e-06
3.99613e-06
3.98143e-06
3.96658e-06
3.91042e-06
3.7793e-06
3.67847e-06
3.6644e-06
3.65032e-06
3.63611e-06
3.6219e-06
3.60767e-06
3.59346e-06
3.5792e-06
3.56498e-06
3.55075e-06
3.53661e-06
3.52247e-06
3.50839e-06
3.49435e-06
3.48035e-06
3.46642e-06
3.45251e-06
3.43867e-06
3.42492e-06
3.37739e-06
3.31055e-06
3.23903e-06
3.17044e-06
3.09209e-06
2.98063e-06
2.88438e-06
2.78974e-06
2.69676e-06
2.60549e-06
2.51597e-06
2.42824e-06
2.3424e-06
2.25858e-06
2.17688e-06
2.0974e-06
2.02022e-06
1.94547e-06
1.87323e-06
1.79804e-06
1.72429e-06
1.6612e-06
1.59932e-06
1.54286e-06
1.48547e-06
3.76163e-06
6.48204e-06
6.35322e-06
6.17626e-06
6.02315e-06
5.8753e-06
5.73847e-06
5.60899e-06
5.49129e-06
5.37587e-06
5.26686e-06
5.16719e-06
5.07164e-06
5.13627e-06
5.61026e-06
6.03156e-06
6.00845e-06
5.9317e-06
5.85844e-06
5.78783e-06
5.72047e-06
5.65594e-06
5.59318e-06
5.53185e-06
5.47416e-06
5.41842e-06
5.36573e-06
5.31277e-06
5.26109e-06
5.21038e-06
5.1607e-06
4.53488e-06
4.21055e-06
4.21313e-06
4.20447e-06
4.19531e-06
4.18547e-06
4.17516e-06
4.16436e-06
4.1531e-06
4.14136e-06
4.12925e-06
4.11678e-06
4.10391e-06
4.09079e-06
4.0774e-06
4.06369e-06
4.04978e-06
4.03567e-06
4.02131e-06
4.00684e-06
3.99221e-06
3.97743e-06
3.91742e-06
3.78427e-06
3.69104e-06
3.67709e-06
3.663e-06
3.64889e-06
3.63475e-06
3.62061e-06
3.60638e-06
3.59216e-06
3.57792e-06
3.48826e-06
3.38209e-06
3.27725e-06
3.17372e-06
3.07162e-06
2.97101e-06
2.87195e-06
2.77449e-06
2.67302e-06
2.53011e-06
2.3847e-06
2.24111e-06
2.10762e-06
1.99002e-06
1.90977e-06
1.82723e-06
1.75596e-06
1.68657e-06
1.62086e-06
1.55912e-06
1.50169e-06
1.44889e-06
1.40104e-06
1.35848e-06
1.32149e-06
1.29035e-06
1.26526e-06
1.24641e-06
1.23384e-06
1.22754e-06
1.22735e-06
1.22879e-06
1.22625e-06
1.22347e-06
1.22097e-06
1.21818e-06
3.71943e-06
6.39098e-06
6.26596e-06
6.09546e-06
5.94673e-06
5.80393e-06
5.67189e-06
5.54421e-06
5.42948e-06
5.32104e-06
5.21559e-06
5.11816e-06
5.02495e-06
4.93839e-06
4.89297e-06
5.27537e-06
5.7215e-06
5.88972e-06
5.82013e-06
5.75262e-06
5.68764e-06
5.62594e-06
5.56656e-06
5.50788e-06
5.45223e-06
5.39834e-06
5.34732e-06
5.29765e-06
5.24785e-06
5.20021e-06
5.15159e-06
4.52836e-06
4.20409e-06
4.20912e-06
4.20042e-06
4.19118e-06
4.18134e-06
4.17097e-06
4.16011e-06
4.14882e-06
4.13706e-06
4.12485e-06
4.11235e-06
4.09949e-06
4.08626e-06
4.07282e-06
4.0591e-06
4.0451e-06
3.94919e-06
3.83821e-06
3.72813e-06
3.61908e-06
3.46538e-06
3.23857e-06
3.06008e-06
2.95726e-06
2.85586e-06
2.75598e-06
2.65768e-06
2.56112e-06
2.46644e-06
2.37373e-06
2.28314e-06
2.18376e-06
2.0898e-06
2.00461e-06
1.92275e-06
1.84398e-06
1.7686e-06
1.6969e-06
1.60841e-06
1.51455e-06
1.4328e-06
1.36859e-06
1.31703e-06
1.2887e-06
1.27274e-06
1.26405e-06
1.2626e-06
1.26639e-06
1.26402e-06
1.26162e-06
1.2592e-06
1.25676e-06
1.2543e-06
1.25182e-06
1.24933e-06
1.24682e-06
1.2443e-06
1.24177e-06
1.23922e-06
1.23665e-06
1.23409e-06
1.23152e-06
1.22893e-06
1.22635e-06
1.22381e-06
1.22104e-06
1.21853e-06
1.21576e-06
3.67732e-06
6.2999e-06
6.17653e-06
6.01207e-06
5.86892e-06
5.73029e-06
5.60391e-06
5.48085e-06
5.36761e-06
5.26148e-06
5.16195e-06
5.06957e-06
4.97923e-06
4.89447e-06
4.8159e-06
4.74079e-06
4.91736e-06
5.34313e-06
5.69519e-06
5.71582e-06
5.65352e-06
5.59404e-06
5.53765e-06
5.48238e-06
5.42909e-06
5.37753e-06
5.32712e-06
5.28005e-06
5.23208e-06
5.18688e-06
5.14104e-06
4.47148e-06
4.04704e-06
3.95479e-06
3.84721e-06
3.74003e-06
3.63332e-06
3.52731e-06
3.42196e-06
3.31736e-06
3.2137e-06
3.111e-06
3.00937e-06
2.90902e-06
2.80994e-06
2.7123e-06
2.61631e-06
2.50516e-06
2.39599e-06
2.30147e-06
2.21103e-06
2.08701e-06
1.90627e-06
1.77655e-06
1.70388e-06
1.63544e-06
1.57164e-06
1.51293e-06
1.45981e-06
1.41279e-06
1.37234e-06
1.33888e-06
1.31279e-06
1.29436e-06
1.29056e-06
1.28907e-06
1.28752e-06
1.28545e-06
1.27875e-06
1.27393e-06
1.27452e-06
1.27746e-06
1.27987e-06
1.27768e-06
1.27545e-06
1.2732e-06
1.27092e-06
1.2686e-06
1.26626e-06
1.26389e-06
1.26151e-06
1.2591e-06
1.25667e-06
1.25422e-06
1.25175e-06
1.24926e-06
1.24676e-06
1.24424e-06
1.24172e-06
1.23918e-06
1.23662e-06
1.23406e-06
1.2315e-06
1.22893e-06
1.22634e-06
1.22377e-06
1.22123e-06
1.21847e-06
1.21596e-06
1.21204e-06
3.63529e-06
6.209e-06
6.0869e-06
5.92647e-06
5.78983e-06
5.65423e-06
5.53304e-06
5.41559e-06
5.30668e-06
5.20351e-06
5.10575e-06
5.01731e-06
4.93158e-06
4.85011e-06
4.77112e-06
4.62539e-06
4.48246e-06
4.39629e-06
4.6207e-06
4.92903e-06
5.06927e-06
4.9502e-06
4.80824e-06
4.66917e-06
4.53199e-06
4.39801e-06
4.26417e-06
4.13458e-06
4.00641e-06
3.88116e-06
3.80639e-06
2.89933e-06
2.41377e-06
2.31743e-06
2.22803e-06
2.14068e-06
2.05558e-06
1.97302e-06
1.89339e-06
1.81695e-06
1.74408e-06
1.6753e-06
1.61095e-06
1.55158e-06
1.49774e-06
1.44989e-06
1.40857e-06
1.37424e-06
1.36945e-06
1.36941e-06
1.3532e-06
1.31454e-06
1.30277e-06
1.30196e-06
1.30107e-06
1.30012e-06
1.2991e-06
1.29802e-06
1.29687e-06
1.29566e-06
1.2944e-06
1.29307e-06
1.29169e-06
1.29025e-06
1.28876e-06
1.28385e-06
1.27827e-06
1.27585e-06
1.27965e-06
1.28152e-06
1.28176e-06
1.2796e-06
1.27741e-06
1.27519e-06
1.27294e-06
1.27067e-06
1.26836e-06
1.26602e-06
1.26366e-06
1.26127e-06
1.25886e-06
1.25643e-06
1.25399e-06
1.25153e-06
1.24905e-06
1.24655e-06
1.24404e-06
1.24152e-06
1.23899e-06
1.23644e-06
1.23388e-06
1.23132e-06
1.22876e-06
1.22619e-06
1.2236e-06
1.22103e-06
1.21849e-06
1.21574e-06
1.21047e-06
1.24173e-06
3.59221e-06
6.10635e-06
5.93579e-06
5.72192e-06
5.5348e-06
5.34605e-06
5.16867e-06
4.99743e-06
4.83443e-06
4.67643e-06
4.52412e-06
4.38305e-06
4.2469e-06
4.1212e-06
4.11274e-06
4.10871e-06
4.00136e-06
3.90168e-06
3.81011e-06
3.72747e-06
3.90414e-06
4.12543e-06
4.10522e-06
4.00332e-06
3.90393e-06
3.81111e-06
3.72266e-06
3.63902e-06
3.56155e-06
3.48944e-06
3.42315e-06
2.04925e-06
1.33996e-06
1.35106e-06
1.35341e-06
1.35557e-06
1.35754e-06
1.35933e-06
1.36099e-06
1.36246e-06
1.36373e-06
1.36483e-06
1.36577e-06
1.36654e-06
1.36716e-06
1.36761e-06
1.36789e-06
1.36801e-06
1.36798e-06
1.35543e-06
1.31499e-06
1.30232e-06
1.30148e-06
1.30058e-06
1.29963e-06
1.2986e-06
1.29752e-06
1.29637e-06
1.29517e-06
1.29391e-06
1.29258e-06
1.29121e-06
1.28932e-06
1.28252e-06
1.27825e-06
1.27963e-06
1.28295e-06
1.28561e-06
1.28352e-06
1.28138e-06
1.27922e-06
1.27703e-06
1.2748e-06
1.27254e-06
1.27026e-06
1.26796e-06
1.26563e-06
1.26327e-06
1.26089e-06
1.25848e-06
1.25606e-06
1.25361e-06
1.25115e-06
1.24868e-06
1.24619e-06
1.24369e-06
1.24118e-06
1.23865e-06
1.23611e-06
1.23356e-06
1.231e-06
1.22844e-06
1.22587e-06
1.22331e-06
1.22073e-06
1.21815e-06
1.21561e-06
1.21084e-06
1.22268e-06
1.30321e-06
3.2147e-06
5.95541e-06
5.92423e-06
5.73769e-06
5.57801e-06
5.42496e-06
5.28356e-06
5.15044e-06
5.03162e-06
4.92154e-06
4.81827e-06
4.72788e-06
4.64672e-06
4.57454e-06
4.50862e-06
4.40229e-06
4.30021e-06
4.2032e-06
4.11125e-06
4.02407e-06
3.94008e-06
3.76183e-06
3.83539e-06
3.95875e-06
3.86058e-06
3.77785e-06
3.70168e-06
3.62679e-06
3.55413e-06
3.484e-06
3.2676e-06
1.86267e-06
1.35009e-06
1.35233e-06
1.35443e-06
1.35632e-06
1.35799e-06
1.3596e-06
1.36103e-06
1.36228e-06
1.36336e-06
1.36427e-06
1.36502e-06
1.36563e-06
1.36608e-06
1.36637e-06
1.3665e-06
1.36648e-06
1.35908e-06
1.31616e-06
1.30177e-06
1.30092e-06
1.3e-06
1.29902e-06
1.29799e-06
1.29689e-06
1.29574e-06
1.29453e-06
1.29326e-06
1.29194e-06
1.28701e-06
1.28152e-06
1.28021e-06
1.28487e-06
1.28676e-06
1.28721e-06
1.28514e-06
1.28303e-06
1.28089e-06
1.27872e-06
1.27653e-06
1.2743e-06
1.27204e-06
1.26976e-06
1.26745e-06
1.26511e-06
1.26275e-06
1.26036e-06
1.25796e-06
1.25554e-06
1.2531e-06
1.25065e-06
1.24817e-06
1.24569e-06
1.24319e-06
1.24068e-06
1.23815e-06
1.23562e-06
1.23308e-06
1.23053e-06
1.22797e-06
1.22541e-06
1.22284e-06
1.22028e-06
1.2177e-06
1.21513e-06
1.21153e-06
1.21952e-06
1.27781e-06
1.29931e-06
3.90987e-06
6.43248e-06
6.26662e-06
6.0666e-06
5.88979e-06
5.71826e-06
5.55747e-06
5.40101e-06
5.25396e-06
5.11402e-06
4.97845e-06
4.8514e-06
4.73032e-06
4.61447e-06
4.50259e-06
4.39593e-06
4.29385e-06
4.19685e-06
4.10446e-06
4.01714e-06
3.93328e-06
3.85246e-06
3.77434e-06
3.60187e-06
3.64746e-06
3.76176e-06
3.69519e-06
3.61442e-06
3.54351e-06
3.47277e-06
3.0173e-06
1.70308e-06
1.35155e-06
1.3535e-06
1.35531e-06
1.35703e-06
1.35838e-06
1.35964e-06
1.36092e-06
1.36194e-06
1.36281e-06
1.36352e-06
1.36409e-06
1.36453e-06
1.36481e-06
1.36494e-06
1.36493e-06
1.36278e-06
1.31817e-06
1.30118e-06