/*--------------------------------*- C++ -*----------------------------------*\
| =========                 |                                                 |
| \\      /  F ield         | foam-extend: Open Source CFD                    |
|  \\    /   O peration     | Version:     4.1                                |
|   \\  /    A nd           | Web:         http://www.foam-extend.org         |
|    \\/     M anipulation  |                                                 |
\*---------------------------------------------------------------------------*/
FoamFile
{
    version     2.0;
    format      ascii;
    class       volScalarField;
    location    "2";
    object      epsilonEq;
}
// * * * * * * * * * * * * * * * * * * * * * * * * * * * * * * * * * * * * * //

dimensions      [0 0 0 0 0 0 0];

internalField   nonuniform List<scalar> 
100000
(
5.22809e-06
7.8485e-06
7.70564e-06
7.51745e-06
7.3539e-06
7.19394e-06
7.04293e-06
6.89975e-06
6.76386e-06
6.63307e-06
6.50835e-06
6.38942e-06
6.27973e-06
6.17184e-06
6.07181e-06
5.97525e-06
5.88319e-06
5.79639e-06
5.71263e-06
5.6336e-06
5.55755e-06
5.48562e-06
5.41612e-06
5.34957e-06
5.28576e-06
5.22533e-06
5.16759e-06
5.11239e-06
5.05968e-06
5.009e-06
4.95997e-06
4.91238e-06
4.86771e-06
4.82414e-06
4.78104e-06
4.74038e-06
4.70127e-06
4.66382e-06
4.62804e-06
4.59363e-06
4.56027e-06
4.52822e-06
4.49742e-06
4.46784e-06
4.21374e-06
3.4342e-06
3.38568e-06
3.37269e-06
3.35966e-06
3.34656e-06
3.33342e-06
3.32033e-06
3.30725e-06
3.29427e-06
3.28135e-06
3.26853e-06
3.2557e-06
3.24291e-06
3.2302e-06
3.21756e-06
3.20496e-06
3.1924e-06
3.17998e-06
3.16764e-06
3.15543e-06
3.14324e-06
3.1311e-06
3.11911e-06
3.10713e-06
3.09535e-06
3.08368e-06
3.07215e-06
3.06092e-06
3.04972e-06
3.03869e-06
3.02783e-06
3.01702e-06
3.00644e-06
2.99596e-06
2.98559e-06
2.97551e-06
2.96563e-06
2.95598e-06
2.9466e-06
2.9374e-06
2.92846e-06
2.91984e-06
2.91149e-06
2.90351e-06
2.89604e-06
2.88916e-06
2.88303e-06
2.87772e-06
2.8736e-06
2.87078e-06
2.87093e-06
2.87291e-06
2.88051e-06
2.89746e-06
2.94008e-06
5.44023e-06
7.78891e-06
7.76181e-06
7.57234e-06
7.40337e-06
7.2419e-06
7.08838e-06
6.9436e-06
6.80443e-06
6.6702e-06
6.54495e-06
6.42579e-06
6.31282e-06
6.20283e-06
6.10143e-06
6.00319e-06
5.90981e-06
5.82087e-06
5.73584e-06
5.65597e-06
5.57883e-06
5.50504e-06
5.4338e-06
5.36618e-06
5.30163e-06
5.24005e-06
5.18122e-06
5.12514e-06
5.07118e-06
5.01938e-06
4.96951e-06
4.92204e-06
4.87588e-06
4.83019e-06
4.78648e-06
4.74539e-06
4.70562e-06
4.66775e-06
4.63133e-06
4.59609e-06
4.56191e-06
4.52921e-06
4.49789e-06
4.46781e-06
4.11161e-06
3.41721e-06
3.39679e-06
3.38373e-06
3.37068e-06
3.35761e-06
3.34444e-06
3.33131e-06
3.31822e-06
3.30523e-06
3.29224e-06
3.27934e-06
3.26654e-06
3.25378e-06
3.24104e-06
3.22838e-06
3.21587e-06
3.20334e-06
3.1909e-06
3.17854e-06
3.16627e-06
3.15415e-06
3.142e-06
3.13003e-06
3.11818e-06
3.1064e-06
3.09482e-06
3.08331e-06
3.072e-06
3.06096e-06
3.05e-06
3.03919e-06
3.02859e-06
3.01814e-06
3.0079e-06
2.99785e-06
2.98795e-06
2.9783e-06
2.96895e-06
2.95987e-06
2.95111e-06
2.94269e-06
2.93463e-06
2.92705e-06
2.91996e-06
2.91346e-06
2.90774e-06
2.90301e-06
2.89954e-06
2.89771e-06
2.89769e-06
2.90061e-06
2.90561e-06
2.91452e-06
2.96756e-06
3.02914e-06
5.4582e-06
7.70366e-06
7.81499e-06
7.62218e-06
7.45083e-06
7.28839e-06
7.13119e-06
6.98471e-06
6.84408e-06
6.70783e-06
6.5793e-06
6.45797e-06
6.3427e-06
6.23275e-06
6.12901e-06
6.03035e-06
5.93469e-06
5.84463e-06
5.75887e-06
5.67692e-06
5.59785e-06
5.52313e-06
5.45136e-06
5.3826e-06
5.31647e-06
5.25353e-06
5.19362e-06
5.13642e-06
5.08171e-06
5.0293e-06
4.97869e-06
4.93006e-06
4.88186e-06
4.83529e-06
4.79187e-06
4.74983e-06
4.70939e-06
4.67075e-06
4.63335e-06
4.59728e-06
4.56281e-06
4.52992e-06
4.49804e-06
4.46717e-06
4.02341e-06
3.41545e-06
3.40731e-06
3.39429e-06
3.38119e-06
3.36803e-06
3.35481e-06
3.34167e-06
3.32854e-06
3.3155e-06
3.30252e-06
3.2896e-06
3.27678e-06
3.26398e-06
3.25129e-06
3.23863e-06
3.22611e-06
3.21358e-06
3.2011e-06
3.1888e-06
3.17649e-06
3.16436e-06
3.15232e-06
3.14034e-06
3.12857e-06
3.11683e-06
3.10523e-06
3.09386e-06
3.08259e-06
3.07158e-06
3.06073e-06
3.05001e-06
3.03956e-06
3.02927e-06
3.01914e-06
3.00924e-06
2.99952e-06
2.99011e-06
2.98104e-06
2.97226e-06
2.96385e-06
2.95583e-06
2.94825e-06
2.94118e-06
2.93471e-06
2.92895e-06
2.92407e-06
2.92022e-06
2.91753e-06
2.91617e-06
2.91614e-06
2.91772e-06
2.94656e-06
2.99416e-06
3.03636e-06
3.084e-06
5.43381e-06
7.71772e-06
7.73881e-06
7.67175e-06
7.49931e-06
7.33367e-06
7.17348e-06
7.02319e-06
6.88076e-06
6.74296e-06
6.61312e-06
6.49014e-06
6.37401e-06
6.26135e-06
6.1561e-06
6.05574e-06
5.95873e-06
5.86772e-06
5.77977e-06
5.69649e-06
5.61707e-06
5.5409e-06
5.46704e-06
5.39673e-06
5.32996e-06
5.26649e-06
5.20559e-06
5.14723e-06
5.09142e-06
5.03785e-06
4.98605e-06
4.93581e-06
4.88696e-06
4.84068e-06
4.79628e-06
4.75351e-06
4.71229e-06
4.67258e-06
4.63428e-06
4.59767e-06
4.56276e-06
4.52926e-06
4.49685e-06
4.46553e-06
3.86458e-06
3.42613e-06
3.41709e-06
3.40404e-06
3.39087e-06
3.37769e-06
3.36447e-06
3.35132e-06
3.33817e-06
3.32511e-06
3.31214e-06
3.2992e-06
3.28634e-06
3.27352e-06
3.26085e-06
3.24819e-06
3.23559e-06
3.22314e-06
3.21066e-06
3.19837e-06
3.18612e-06
3.17393e-06
3.16197e-06
3.15e-06
3.13818e-06
3.12654e-06
3.11493e-06
3.10362e-06
3.09248e-06
3.08147e-06
3.07073e-06
3.06016e-06
3.04978e-06
3.03963e-06
3.02964e-06
3.01985e-06
3.01035e-06
3.00109e-06
2.99217e-06
2.98358e-06
2.9754e-06
2.96768e-06
2.96034e-06
2.95344e-06
2.9471e-06
2.94145e-06
2.93657e-06
2.93251e-06
2.92927e-06
2.92684e-06
2.92504e-06
2.97184e-06
3.04426e-06
3.1266e-06
3.15086e-06
3.17175e-06
4.60339e-06
7.3415e-06
7.67674e-06
7.71931e-06
7.5433e-06
7.37646e-06
7.21401e-06
7.06194e-06
6.91808e-06
6.77855e-06
6.6465e-06
6.52044e-06
6.40303e-06
6.28835e-06
6.18249e-06
6.07985e-06
5.98183e-06
5.88893e-06
5.80065e-06
5.71584e-06
5.63402e-06
5.55641e-06
5.48217e-06
5.41131e-06
5.34349e-06
5.27845e-06
5.21589e-06
5.15623e-06
5.09948e-06
5.04507e-06
4.9925e-06
4.94167e-06
4.89259e-06
4.84549e-06
4.80006e-06
4.75627e-06
4.71402e-06
4.67338e-06
4.63443e-06
4.59727e-06
4.56186e-06
4.52788e-06
4.49503e-06
4.40709e-06
3.65631e-06
3.43924e-06
3.42618e-06
3.41309e-06
3.39991e-06
3.38672e-06
3.37351e-06
3.36033e-06
3.34717e-06
3.33407e-06
3.3211e-06
3.30812e-06
3.29525e-06
3.28242e-06
3.26972e-06
3.2571e-06
3.24443e-06
3.23197e-06
3.21955e-06
3.20718e-06
3.19505e-06
3.18289e-06
3.17092e-06
3.1591e-06
3.14725e-06
3.1356e-06
3.1241e-06
3.11273e-06
3.10161e-06
3.09068e-06
3.07994e-06
3.06945e-06
3.05918e-06
3.04905e-06
3.03921e-06
3.02957e-06
3.02016e-06
3.01106e-06
3.0023e-06
2.99376e-06
2.98563e-06
2.97802e-06
2.97078e-06
2.96394e-06
2.95761e-06
2.95177e-06
2.94651e-06
2.94177e-06
2.93751e-06
2.98116e-06
3.05896e-06
3.13682e-06
3.19087e-06
3.21708e-06
3.23985e-06
3.23189e-06
3.98544e-06
7.37643e-06
7.21194e-06
7.0246e-06
7.2249e-06
7.28642e-06
7.25467e-06
7.0985e-06
6.95188e-06
6.81111e-06
6.67682e-06
6.55033e-06
6.43034e-06
6.31534e-06
6.207e-06
6.10323e-06
6.00407e-06
5.9099e-06
5.81941e-06
5.73315e-06
5.6509e-06
5.57235e-06
5.4965e-06
5.42392e-06
5.35479e-06
5.28894e-06
5.2259e-06
5.16552e-06
5.10754e-06
5.05175e-06
4.99815e-06
4.9466e-06
4.89698e-06
4.84923e-06
4.80312e-06
4.75855e-06
4.71546e-06
4.67395e-06
4.63424e-06
4.5963e-06
4.56014e-06
4.52537e-06
4.49171e-06
4.31092e-06
3.55196e-06
3.4478e-06
3.43466e-06
3.42149e-06
3.40829e-06
3.39508e-06
3.38185e-06
3.36866e-06
3.35553e-06
3.34238e-06
3.32936e-06
3.31635e-06
3.30345e-06
3.29067e-06
3.27788e-06
3.2653e-06
3.25268e-06
3.24012e-06
3.22774e-06
3.21534e-06
3.20315e-06
3.19112e-06
3.17909e-06
3.16728e-06
3.15558e-06
3.14392e-06
3.1325e-06
3.12121e-06
3.11005e-06
3.09918e-06
3.08851e-06
3.07802e-06
3.06782e-06
3.05772e-06
3.04803e-06
3.03824e-06
3.02868e-06
3.01985e-06
3.01113e-06
3.00289e-06
2.99473e-06
2.98652e-06
2.97903e-06
2.93038e-06
2.84489e-06
2.76108e-06
2.69312e-06
2.67294e-06
2.71977e-06
2.7698e-06
2.82578e-06
2.82755e-06
2.80065e-06
2.76589e-06
2.7325e-06
2.71744e-06
3.78416e-06
7.10539e-06
6.90731e-06
7.21667e-06
7.52584e-06
7.20166e-06
6.73618e-06
6.50575e-06
6.50659e-06
6.52507e-06
6.55803e-06
6.57874e-06
6.45687e-06
6.34034e-06
6.23075e-06
6.12584e-06
6.02475e-06
5.92894e-06
5.83804e-06
5.75051e-06
5.66617e-06
5.58587e-06
5.50916e-06
5.43598e-06
5.36611e-06
5.2993e-06
5.23505e-06
5.17329e-06
5.11406e-06
5.05731e-06
5.00288e-06
4.95047e-06
4.90009e-06
4.85157e-06
4.80461e-06
4.75914e-06
4.71528e-06
4.67322e-06
4.63315e-06
4.5948e-06
4.55806e-06
4.52259e-06
4.48808e-06
4.22562e-06
3.5279e-06
3.45562e-06
3.44244e-06
3.42922e-06
3.41599e-06
3.40277e-06
3.38954e-06
3.3763e-06
3.36319e-06
3.35002e-06
3.33694e-06
3.32394e-06
3.31096e-06
3.29821e-06
3.28542e-06
3.27273e-06
3.26022e-06
3.24761e-06
3.2352e-06
3.22292e-06
3.21064e-06
3.19862e-06
3.1867e-06
3.17477e-06
3.14581e-06
3.05477e-06
2.96442e-06
2.87493e-06
2.7863e-06
2.69871e-06
2.6123e-06
2.52714e-06
2.44329e-06
2.36094e-06
2.28025e-06
2.40088e-06
2.12424e-06
2.04919e-06
1.97648e-06
1.90615e-06
2.05719e-06
2.06389e-06
1.72392e-06
1.69762e-06
1.69694e-06
1.67811e-06
1.65854e-06
1.66306e-06
1.69684e-06
1.70568e-06
1.68241e-06
1.65909e-06
1.63685e-06
1.61417e-06
1.59224e-06
1.56371e-06
3.79036e-06
7.09196e-06
6.88529e-06
6.83984e-06
7.07558e-06
7.15537e-06
6.91826e-06
6.70751e-06
6.53148e-06
6.38106e-06
6.22927e-06
5.89532e-06
5.63027e-06
5.59539e-06
5.57031e-06
5.55081e-06
5.53604e-06
5.5233e-06
5.51175e-06
5.50063e-06
5.48849e-06
5.47487e-06
5.45875e-06
5.43985e-06
5.37587e-06
5.30773e-06
5.24239e-06
5.17972e-06
5.11968e-06
5.06217e-06
5.00692e-06
4.95367e-06
4.90255e-06
4.85328e-06
4.80549e-06
4.75917e-06
4.71461e-06
4.67195e-06
4.63123e-06
4.59221e-06
4.55478e-06
4.51879e-06
4.48355e-06
4.14835e-06
3.46365e-06
3.36447e-06
3.29963e-06
3.23273e-06
3.16418e-06
3.09408e-06
3.02275e-06
2.9502e-06
2.87672e-06
2.80238e-06
2.72742e-06
2.65205e-06
2.57644e-06
2.5008e-06
2.42533e-06
2.35008e-06
2.2754e-06
2.20145e-06
2.12834e-06
2.05657e-06
1.98618e-06
1.91744e-06
1.85071e-06
1.78945e-06
1.74838e-06
1.71316e-06
1.65983e-06
1.60998e-06
1.56402e-06
1.52223e-06
1.48493e-06
1.45246e-06
1.42497e-06
1.40281e-06
1.386e-06
1.37481e-06
1.36911e-06
1.36881e-06
1.37396e-06
1.38434e-06
1.39918e-06
1.41175e-06
1.41387e-06
1.37321e-06
1.32294e-06
1.28231e-06
1.25345e-06
1.25032e-06
1.24866e-06
1.24648e-06
1.24426e-06
1.24201e-06
1.23961e-06
1.23765e-06
1.23498e-06
1.23309e-06
3.79407e-06
7.06844e-06
6.85549e-06
6.60264e-06
6.71571e-06
6.99242e-06
6.89519e-06
6.66308e-06
6.4441e-06
6.2334e-06
6.03677e-06
5.84728e-06
5.66358e-06
5.49861e-06
5.35188e-06
5.21988e-06
5.09687e-06
4.9847e-06
4.88239e-06
4.78723e-06
4.69695e-06
4.61193e-06
4.53098e-06
4.40031e-06
4.27287e-06
4.20857e-06
4.15377e-06
4.09889e-06
4.04404e-06
3.98914e-06
3.93416e-06
3.8786e-06
3.82235e-06
3.76508e-06
3.70669e-06
3.64755e-06
3.58781e-06
3.52779e-06
3.46761e-06
3.4076e-06
3.34765e-06
3.28776e-06
3.2261e-06
2.59529e-06
1.80631e-06
1.76496e-06
1.72662e-06
1.68819e-06
1.65007e-06
1.61264e-06
1.5763e-06
1.54138e-06
1.50835e-06
1.47757e-06
1.44953e-06
1.42452e-06
1.40302e-06
1.38543e-06
1.37209e-06
1.36316e-06
1.35892e-06
1.35956e-06
1.36515e-06
1.37566e-06
1.39107e-06
1.41122e-06
1.43593e-06
1.46496e-06
1.49037e-06
1.4895e-06
1.48849e-06
1.48735e-06
1.48611e-06
1.48628e-06
1.48701e-06
1.48751e-06
1.4878e-06
1.48783e-06
1.48764e-06
1.48718e-06
1.48641e-06
1.48539e-06
1.48422e-06
1.46453e-06
1.43092e-06
1.37889e-06
1.34356e-06
1.32389e-06
1.28547e-06
1.25915e-06
1.25306e-06
1.25481e-06
1.25735e-06
1.26064e-06
1.26463e-06
1.26941e-06
1.27447e-06
1.28124e-06
1.28684e-06
1.28825e-06
3.64191e-06
6.92105e-06
6.73562e-06
6.50489e-06
6.31818e-06
6.79837e-06
7.27259e-06
7.03848e-06
6.81426e-06
6.58525e-06
6.34397e-06
6.13194e-06
5.95648e-06
5.78919e-06
5.63054e-06
5.48262e-06
5.34097e-06
5.2044e-06
5.0737e-06
4.9499e-06
4.83167e-06
4.71955e-06
4.6123e-06
4.50944e-06
4.3869e-06
4.26912e-06
4.15955e-06
4.05718e-06
3.96175e-06
3.87347e-06
3.79224e-06
3.71748e-06
3.64862e-06
3.58483e-06
3.52546e-06
3.47127e-06
3.42241e-06
3.37918e-06
3.34159e-06
3.3091e-06
3.28225e-06
3.25977e-06
3.24241e-06
2.66776e-06
2.383e-06
2.39736e-06
2.40157e-06
2.40536e-06
2.40899e-06
2.4123e-06
2.41531e-06
2.41822e-06
2.42079e-06
2.42319e-06
2.42547e-06
2.42712e-06
2.42922e-06
2.43111e-06
2.43204e-06
2.43308e-06
2.43369e-06
2.43411e-06
2.43417e-06
2.4339e-06
2.43327e-06
2.43228e-06
2.43099e-06
2.42937e-06
2.42743e-06
2.42519e-06
2.42263e-06
2.4198e-06
2.4178e-06
2.41606e-06
2.4129e-06
2.40891e-06
2.40465e-06
2.40006e-06
2.39517e-06
2.38998e-06
2.36557e-06
2.3154e-06
2.25042e-06
2.18587e-06
2.13526e-06
2.10705e-06
2.07378e-06
2.00755e-06
1.95006e-06
1.95807e-06
1.97807e-06
1.99804e-06
2.01795e-06
2.03782e-06
2.05755e-06
2.07738e-06
2.09634e-06
2.11736e-06
2.13457e-06
2.19865e-06
4.0988e-06
7.1284e-06
6.96476e-06
6.75481e-06
6.56967e-06
6.55495e-06
7.20374e-06
7.55272e-06
7.38235e-06
7.22112e-06
7.05924e-06
6.89057e-06
6.73229e-06
6.57873e-06
6.43456e-06
6.3007e-06
6.17342e-06
6.05178e-06
5.93594e-06
5.82644e-06
5.72202e-06
5.62352e-06
5.53025e-06
5.44135e-06
5.35639e-06
5.27548e-06
5.19893e-06
5.12663e-06
5.05792e-06
4.99269e-06
4.93099e-06
4.87287e-06
4.81789e-06
4.76536e-06
4.71418e-06
4.66458e-06
4.61707e-06
4.57161e-06
4.52908e-06
4.48833e-06
4.45055e-06
4.41398e-06
4.37874e-06
3.91527e-06
3.83188e-06
3.84153e-06
3.83858e-06
3.83525e-06
3.83168e-06
3.82797e-06
3.82388e-06
3.81975e-06
3.81537e-06
3.81088e-06
3.80613e-06
3.80123e-06
3.8222e-06
3.7908e-06
3.78523e-06
3.77955e-06
3.77346e-06
3.76721e-06
3.76066e-06
3.75375e-06
3.74656e-06
3.73906e-06
3.73126e-06
3.72321e-06
3.71488e-06
3.70627e-06
3.69742e-06
3.68834e-06
3.67899e-06
3.66571e-06
3.65062e-06
3.63553e-06
3.62045e-06
3.60531e-06
3.54149e-06
3.47076e-06
3.39465e-06
3.32395e-06
3.25919e-06
3.23959e-06
3.22531e-06
3.13488e-06
3.0439e-06
2.97702e-06
2.96595e-06
2.95496e-06
2.94405e-06
2.93317e-06
2.92236e-06
2.91158e-06
2.90088e-06
2.89015e-06
2.8796e-06
2.86929e-06
2.85853e-06
2.84845e-06
4.0588e-06
7.05077e-06
6.89152e-06
6.68718e-06
6.50639e-06
6.32935e-06
6.50594e-06
7.13764e-06
7.31594e-06
7.16071e-06
7.01346e-06
6.87372e-06
6.74432e-06
6.62173e-06
6.50169e-06
6.39053e-06
6.28683e-06
6.18729e-06
6.09091e-06
5.99854e-06
5.90955e-06
5.82503e-06
5.74482e-06
5.66804e-06
5.59381e-06
5.52173e-06
5.45188e-06
5.38499e-06
5.32089e-06
5.25935e-06
5.19997e-06
5.14306e-06
5.08853e-06
5.03606e-06
4.9848e-06
4.93411e-06
4.88451e-06
4.83542e-06
4.78859e-06
4.74291e-06
4.69938e-06
4.65767e-06
4.61637e-06
4.14457e-06
4.07776e-06
4.07688e-06
4.06364e-06
4.05026e-06
4.03647e-06
4.02267e-06
4.00866e-06
3.99447e-06
3.98028e-06
3.96594e-06
3.95136e-06
3.93705e-06
3.92184e-06
3.90663e-06
3.89212e-06
3.87719e-06
3.86237e-06
3.84741e-06
3.83238e-06
3.81733e-06
3.80222e-06
3.78712e-06
3.77202e-06
3.75693e-06
3.74181e-06
3.72666e-06
3.71149e-06
3.69629e-06
3.68109e-06
3.66587e-06
3.65065e-06
3.61019e-06
3.54371e-06
3.46722e-06
3.39181e-06
3.32581e-06
3.28207e-06
3.26786e-06
3.25364e-06
3.215e-06
3.12089e-06
3.03156e-06
2.99426e-06
2.98293e-06
2.97168e-06
2.96054e-06
2.9495e-06
2.93855e-06
2.92769e-06
2.91683e-06
2.90606e-06
2.89527e-06
2.88461e-06
2.87425e-06
2.86348e-06
2.85331e-06
4.02013e-06
6.97255e-06
6.81645e-06
6.61647e-06
6.44183e-06
6.26821e-06
6.10917e-06
6.42324e-06
7.03296e-06
7.09786e-06
6.95536e-06
6.82047e-06
6.69412e-06
6.57501e-06
6.46127e-06
6.3528e-06
6.25073e-06
6.15424e-06
6.06221e-06
5.97425e-06
5.88883e-06
5.8064e-06
5.72772e-06
5.65303e-06
5.58154e-06
5.51231e-06
5.44488e-06
5.37991e-06
5.31756e-06
5.25785e-06
5.2001e-06
5.14431e-06
5.09084e-06
5.03922e-06
4.98947e-06
4.9405e-06
4.89319e-06
4.84597e-06
4.80017e-06
4.75591e-06
4.71273e-06
4.67191e-06
4.63153e-06
4.14233e-06
4.08153e-06
4.07905e-06
4.06565e-06
4.0522e-06
4.03843e-06
4.02446e-06
4.01046e-06
3.9962e-06
3.98189e-06
3.96743e-06
3.9528e-06
3.93808e-06
3.92326e-06
3.90828e-06
3.89339e-06
3.87837e-06
3.86333e-06
3.84826e-06
3.83308e-06
3.81787e-06
3.80264e-06
3.78744e-06
3.77223e-06
3.75702e-06
3.74176e-06
3.72648e-06
3.71116e-06
3.69581e-06
3.67834e-06
3.61125e-06
3.53932e-06
3.46308e-06
3.39244e-06
3.32677e-06
3.30997e-06
3.29569e-06
3.28142e-06
3.26714e-06
3.20083e-06
3.10798e-06
3.02198e-06
3.01036e-06
2.99898e-06
2.98768e-06
2.97646e-06
2.9653e-06
2.95417e-06
2.9431e-06
2.93214e-06
2.92122e-06
2.91044e-06
2.89964e-06
2.88898e-06
2.87858e-06
2.86775e-06
2.85741e-06
3.98165e-06
6.89387e-06
6.73994e-06
6.54358e-06
6.37413e-06
6.20678e-06
6.04932e-06
5.90509e-06
6.30369e-06
6.89413e-06
6.89588e-06
6.76408e-06
6.64256e-06
6.52833e-06
6.41828e-06
6.31356e-06
6.21502e-06
6.12129e-06
6.03169e-06
5.94659e-06
5.86493e-06
5.78621e-06
5.71025e-06
5.63759e-06
5.56813e-06
5.50115e-06
5.43583e-06
5.37276e-06
5.31211e-06
5.25415e-06
5.19851e-06
5.14445e-06
5.09251e-06
5.04176e-06
4.99312e-06
4.94524e-06
4.89914e-06
4.85405e-06
4.80943e-06
4.76685e-06
4.72482e-06
4.68458e-06
4.64549e-06
4.1447e-06
4.08542e-06
4.08016e-06
4.06674e-06
4.05313e-06
4.0394e-06
4.02534e-06
4.01125e-06
3.99698e-06
3.98254e-06
3.96801e-06
3.95329e-06
3.93844e-06
3.92359e-06
3.90862e-06
3.89358e-06
3.87849e-06
3.86335e-06
3.84813e-06
3.83285e-06
3.81755e-06
3.80223e-06
3.78693e-06
3.77162e-06
3.7563e-06
3.74095e-06
3.72557e-06
3.67846e-06
3.61088e-06
3.53386e-06
3.45872e-06
3.39248e-06
3.35182e-06
3.33749e-06
3.32314e-06
3.30881e-06
3.29448e-06
3.28018e-06
3.18828e-06
3.09658e-06
3.03748e-06
3.02575e-06
3.01412e-06
3.00262e-06
2.99125e-06
2.98e-06
2.96882e-06
2.95769e-06
2.94662e-06
2.93558e-06
2.92456e-06
2.91369e-06
2.90284e-06
2.89221e-06
2.88186e-06
2.87111e-06
2.86076e-06
3.94072e-06
6.81416e-06
6.66354e-06
6.46981e-06
6.303e-06
6.14299e-06
5.98907e-06
5.84744e-06
5.71262e-06
6.1521e-06
6.72065e-06
6.70759e-06
6.58788e-06
6.47709e-06
6.37273e-06
6.27257e-06
6.17737e-06
6.08676e-06
6.00019e-06
5.9179e-06
5.83915e-06
5.7636e-06
5.69062e-06
5.62048e-06
5.55333e-06
5.48874e-06
5.4257e-06
5.36455e-06
5.30573e-06
5.24919e-06
5.19524e-06
5.14287e-06
5.093e-06
5.04386e-06
4.99634e-06
4.94987e-06
4.90427e-06
4.86063e-06
4.81708e-06
4.77547e-06
4.73521e-06
4.69577e-06
4.6575e-06
4.15073e-06
4.08866e-06
4.08026e-06
4.06689e-06
4.05316e-06
4.03936e-06
4.0253e-06
4.01107e-06
3.99676e-06
3.98226e-06
3.96761e-06
3.95288e-06
3.93797e-06
3.92301e-06
3.90801e-06
3.8929e-06
3.87772e-06
3.86247e-06
3.84714e-06
3.83177e-06
3.81637e-06
3.80097e-06
3.78557e-06
3.77016e-06
3.74466e-06
3.67707e-06
3.60365e-06
3.52745e-06
3.45743e-06
3.39326e-06
3.37889e-06
3.36452e-06
3.35016e-06
3.33579e-06
3.32144e-06
3.30708e-06
3.27277e-06
3.17716e-06
3.08632e-06
3.0523e-06
3.04049e-06
3.02878e-06
3.01718e-06
3.00564e-06
2.99417e-06
2.98279e-06
2.9715e-06
2.96032e-06
2.94923e-06
2.93819e-06
2.92719e-06
2.9163e-06
2.90537e-06
2.89462e-06
2.88419e-06
2.87344e-06
2.86306e-06
3.89716e-06
6.73067e-06
6.58566e-06
6.39613e-06
6.23141e-06
6.07581e-06
5.92761e-06
5.78882e-06
5.65772e-06
5.53443e-06
5.96861e-06
6.5129e-06
6.53426e-06
6.42651e-06
6.32494e-06
6.2286e-06
6.13757e-06
6.05085e-06
5.9676e-06
5.88813e-06
5.81205e-06
5.73935e-06
5.66945e-06
5.60219e-06
5.5375e-06
5.47516e-06
5.41452e-06
5.35538e-06
5.29832e-06
5.24308e-06
5.19054e-06
5.13942e-06
5.09099e-06
5.04402e-06
4.99788e-06
4.95343e-06
4.90886e-06
4.86605e-06
4.824e-06
4.78282e-06
4.74362e-06
4.70576e-06
4.66806e-06
4.15881e-06
4.09061e-06
4.07944e-06
4.06604e-06
4.05229e-06
4.03834e-06
4.02429e-06
4.01001e-06
3.99558e-06
3.98105e-06
3.96632e-06
3.95151e-06
3.93659e-06
3.92158e-06
3.90648e-06
3.89132e-06
3.87605e-06
3.86071e-06
3.8453e-06
3.82985e-06
3.81438e-06
3.79891e-06
3.74175e-06
3.67229e-06
3.59557e-06
3.52169e-06
3.45487e-06
3.42003e-06
3.40555e-06
3.3911e-06
3.37665e-06
3.36221e-06
3.34777e-06
3.33336e-06
3.31897e-06
3.26211e-06
3.1671e-06
3.07864e-06
3.06627e-06
3.05433e-06
3.04249e-06
3.03075e-06
3.01911e-06
3.00756e-06
2.9961e-06
2.98471e-06
2.97336e-06
2.96207e-06
2.95088e-06
2.9398e-06
2.92882e-06
2.91799e-06
2.90713e-06
2.89642e-06
2.88596e-06
2.87515e-06
2.86465e-06
3.85327e-06
6.6444e-06
6.5053e-06
6.32003e-06
6.15946e-06
6.00718e-06
5.86446e-06
5.72901e-06
5.60191e-06
5.48121e-06
5.36971e-06
5.75275e-06
6.27384e-06
6.37408e-06
6.27643e-06
6.18399e-06
6.09648e-06
6.01334e-06
5.93362e-06
5.85732e-06
5.78411e-06
5.71399e-06
5.64656e-06
5.58183e-06
5.51977e-06
5.45968e-06
5.40126e-06
5.34423e-06
5.28937e-06
5.23576e-06
5.1845e-06
5.13487e-06
5.0872e-06
5.04204e-06
4.99718e-06
4.95441e-06
4.91205e-06
4.87001e-06
4.82936e-06
4.78954e-06
4.75067e-06
4.7137e-06
4.67797e-06
4.17458e-06
4.09089e-06
4.07774e-06
4.0642e-06
4.05047e-06
4.03645e-06
4.0223e-06
4.00803e-06
3.99352e-06
3.9789e-06
3.96414e-06
3.94927e-06
3.93428e-06
3.91922e-06
3.90405e-06
3.88882e-06
3.87347e-06
3.85806e-06
3.84257e-06
3.8049e-06
3.7371e-06
3.66208e-06
3.58627e-06
3.51751e-06
3.46073e-06
3.44621e-06
3.43171e-06
3.41719e-06
3.40269e-06
3.38822e-06
3.37377e-06
3.35935e-06
3.34491e-06
3.33047e-06
3.25297e-06
3.15831e-06
3.09148e-06
3.07933e-06
3.06733e-06
3.05543e-06
3.04358e-06
3.0318e-06
3.02012e-06
3.00853e-06
2.99703e-06
2.98563e-06
2.97429e-06
2.96301e-06
2.9518e-06
2.94066e-06
2.92958e-06
2.91868e-06
2.84305e-06
2.75655e-06
2.67027e-06
2.58771e-06
2.52165e-06
3.80967e-06
6.5558e-06
6.42328e-06
6.24247e-06
6.08588e-06
5.9371e-06
5.79863e-06
5.66821e-06
5.54461e-06
5.42777e-06
5.3182e-06
5.21568e-06
5.50568e-06
6.00508e-06
6.22691e-06
6.13707e-06
6.05277e-06
5.97323e-06
5.8973e-06
5.82453e-06
5.75448e-06
5.68725e-06
5.62263e-06
5.56035e-06
5.50078e-06
5.44308e-06
5.38707e-06
5.33205e-06
5.27909e-06
5.22757e-06
5.17754e-06
5.12972e-06
5.08284e-06
5.03877e-06
4.99551e-06
4.95337e-06
4.91301e-06
4.87272e-06
4.83276e-06
4.79437e-06
4.75733e-06
4.71993e-06
4.68221e-06
4.18362e-06
4.08841e-06
4.07513e-06
4.06148e-06
4.04768e-06
4.0337e-06
4.01943e-06
4.00506e-06
3.99053e-06
3.97584e-06
3.96103e-06
3.94612e-06
3.93106e-06
3.91595e-06
3.90071e-06
3.8854e-06
3.86612e-06
3.79826e-06
3.72672e-06
3.65066e-06
3.57883e-06
3.51174e-06
3.48645e-06
3.47188e-06
3.45731e-06
3.44273e-06
3.42816e-06
3.41357e-06
3.39902e-06
3.38451e-06
3.37003e-06
3.35557e-06
3.34113e-06
3.24482e-06
3.15056e-06
3.10406e-06
3.04305e-06
2.94571e-06
2.8499e-06
2.75572e-06
2.6632e-06
2.57243e-06
2.48342e-06
2.39623e-06
2.31098e-06
2.2278e-06
2.14676e-06
2.06798e-06
1.99157e-06
1.91764e-06
1.84629e-06
1.76819e-06
1.69923e-06
1.63709e-06
1.57643e-06
1.52123e-06
1.46566e-06
3.76735e-06
6.46631e-06
6.33873e-06
6.16384e-06
6.01179e-06
5.86652e-06
5.73179e-06
5.60547e-06
5.48711e-06
5.37323e-06
5.26739e-06
5.16747e-06
5.07356e-06
5.22988e-06
5.70717e-06
6.08178e-06
6.0094e-06
5.93269e-06
5.8596e-06
5.78987e-06
5.7231e-06
5.65888e-06
5.5971e-06
5.5374e-06
5.48035e-06
5.42499e-06
5.3713e-06
5.31871e-06
5.26746e-06
5.21818e-06
5.16938e-06
5.12317e-06
5.07802e-06
5.03443e-06
4.99294e-06
4.9519e-06
4.91207e-06
4.87365e-06
4.83547e-06
4.79685e-06
4.76178e-06
4.72677e-06
4.68994e-06
4.19125e-06
4.08483e-06
4.0715e-06
4.05788e-06
4.04396e-06
4.02992e-06
4.01564e-06
4.00118e-06
3.98658e-06
3.97186e-06
3.95697e-06
3.94201e-06
3.92691e-06
3.91173e-06
3.85707e-06
3.78883e-06
3.71272e-06
3.63827e-06
3.57105e-06
3.52617e-06
3.49042e-06
3.38357e-06
3.27806e-06
3.17388e-06
3.07108e-06
2.96969e-06
2.86983e-06
2.77158e-06
2.67503e-06
2.58025e-06
2.48734e-06
2.38351e-06
2.21308e-06
2.0532e-06
1.9596e-06
1.87647e-06
1.79856e-06
1.72863e-06
1.66057e-06
1.59632e-06
1.5362e-06
1.48052e-06
1.42961e-06
1.38381e-06
1.34343e-06
1.30877e-06
1.28008e-06
1.25756e-06
1.24133e-06
1.23141e-06
1.22775e-06
1.23016e-06
1.22901e-06
1.22646e-06
1.22369e-06
1.22118e-06
1.21837e-06
3.72483e-06
6.37638e-06
6.25231e-06
6.08294e-06
5.93613e-06
5.79505e-06
5.66439e-06
5.54114e-06
5.42661e-06
5.31895e-06
5.21571e-06
5.11864e-06
5.02772e-06
4.9426e-06
4.93818e-06
5.38278e-06
5.83215e-06
5.89105e-06
5.82132e-06
5.75434e-06
5.69024e-06
5.62885e-06
5.56995e-06
5.51278e-06
5.45796e-06
5.40493e-06
5.35324e-06
5.30334e-06
5.25388e-06
5.20675e-06
5.1599e-06
5.11447e-06
5.07153e-06
5.02906e-06
4.98839e-06
4.94943e-06
4.91082e-06
4.8722e-06
4.83644e-06
4.79964e-06
4.76294e-06
4.73118e-06
4.69691e-06
4.20965e-06
4.07873e-06
4.06691e-06
4.05327e-06
4.01116e-06
3.89984e-06
3.78941e-06
3.67989e-06
3.57133e-06
3.46387e-06
3.35749e-06
3.22945e-06
3.07559e-06
2.91592e-06
2.75644e-06
2.60742e-06
2.46786e-06
2.37504e-06
2.28436e-06
2.19109e-06
2.08717e-06
1.99408e-06
1.91222e-06
1.83351e-06
1.75825e-06
1.6868e-06
1.61953e-06
1.55679e-06
1.49904e-06
1.44668e-06
1.38642e-06
1.3189e-06
1.2819e-06
1.26902e-06
1.26345e-06
1.26506e-06
1.26662e-06
1.26425e-06
1.26185e-06
1.25943e-06
1.25699e-06
1.25453e-06
1.25205e-06
1.24956e-06
1.24705e-06
1.24452e-06
1.24199e-06
1.23944e-06
1.23687e-06
1.2343e-06
1.23173e-06
1.22914e-06
1.22656e-06
1.22402e-06
1.22125e-06
1.21874e-06
1.21595e-06
3.68178e-06
6.28503e-06
6.1645e-06
6.00011e-06
5.85862e-06
5.72222e-06
5.59592e-06
5.47711e-06
5.36501e-06
5.26006e-06
5.16296e-06
5.06995e-06
4.98129e-06
4.89856e-06
4.82064e-06
4.74672e-06
5.03526e-06
5.46381e-06
5.75966e-06
5.71754e-06
5.65616e-06
5.59742e-06
5.54139e-06
5.48724e-06
5.43472e-06
5.38407e-06
5.33391e-06
5.28626e-06
5.239e-06
5.19322e-06
5.14901e-06
5.01051e-06
4.87223e-06
4.73587e-06
4.60049e-06
4.46688e-06
4.33684e-06
4.20608e-06
4.07667e-06
3.9523e-06
3.82666e-06
3.70416e-06
3.58723e-06
2.96105e-06
2.7552e-06
2.6654e-06
2.56432e-06
2.45239e-06
2.34946e-06
2.25795e-06
2.1687e-06
2.07437e-06
1.94885e-06
1.8264e-06
1.70832e-06
1.60341e-06
1.51258e-06
1.45355e-06
1.40802e-06
1.36925e-06
1.33765e-06
1.31359e-06
1.29736e-06
1.28995e-06
1.28855e-06
1.28708e-06
1.28555e-06
1.28395e-06
1.28229e-06
1.28057e-06
1.27879e-06
1.27698e-06
1.27091e-06
1.26872e-06
1.27569e-06
1.27343e-06
1.27115e-06
1.26883e-06
1.26649e-06
1.26413e-06
1.26174e-06
1.25933e-06
1.2569e-06
1.25444e-06
1.25197e-06
1.24948e-06
1.24698e-06
1.24446e-06
1.24193e-06
1.23939e-06
1.23684e-06
1.23428e-06
1.23171e-06
1.22914e-06
1.22655e-06
1.22397e-06
1.22143e-06
1.21867e-06
1.21615e-06
1.21339e-06
3.63989e-06
6.19355e-06
6.07548e-06
5.91593e-06
5.7801e-06
5.64719e-06
5.52601e-06
5.41163e-06
5.3039e-06
5.20227e-06
5.10739e-06
5.01874e-06
4.9341e-06
4.85437e-06
4.73844e-06
4.59366e-06
4.45218e-06
4.41306e-06
4.70783e-06
5.0174e-06
5.05558e-06
4.91181e-06
4.77088e-06
4.63309e-06
4.49717e-06
4.3642e-06
4.23198e-06
4.1027e-06
3.97664e-06
3.85211e-06
3.82953e-06
3.81666e-06
3.70867e-06
3.60244e-06
3.50144e-06
3.40303e-06
3.30983e-06
3.22283e-06
3.13684e-06
3.05685e-06
2.98469e-06
2.91557e-06
2.72608e-06
1.78433e-06
1.47149e-06
1.42711e-06
1.38949e-06
1.36713e-06
1.36727e-06
1.354e-06
1.33971e-06
1.31994e-06
1.30618e-06
1.30014e-06
1.29754e-06
1.29681e-06
1.29601e-06
1.2951e-06
1.29411e-06
1.29303e-06
1.29188e-06
1.29063e-06
1.28931e-06
1.28792e-06
1.28647e-06
1.28495e-06
1.28337e-06
1.28172e-06
1.28003e-06
1.27828e-06
1.27647e-06
1.26951e-06
1.2697e-06
1.27542e-06
1.27317e-06
1.27089e-06
1.26858e-06
1.26624e-06
1.26387e-06
1.26148e-06
1.25908e-06
1.25665e-06
1.2542e-06
1.25174e-06
1.24926e-06
1.24677e-06
1.24426e-06
1.24173e-06
1.2392e-06
1.23665e-06
1.2341e-06
1.23154e-06
1.22897e-06
1.2264e-06
1.22381e-06
1.22123e-06
1.21869e-06
1.21594e-06
1.21342e-06
1.21068e-06
3.59703e-06
6.06943e-06
5.90199e-06
5.68942e-06
5.50257e-06
5.31591e-06
5.13866e-06
4.97042e-06
4.80765e-06
4.65075e-06
4.50227e-06
4.36173e-06
4.22658e-06
4.16173e-06
4.15584e-06
4.09458e-06
3.98967e-06
3.89207e-06
3.8018e-06
3.77352e-06
3.99234e-06
4.16547e-06
4.09372e-06
3.99088e-06
3.89357e-06
3.80213e-06
3.71565e-06
3.63381e-06
3.55919e-06
3.48997e-06
3.42626e-06
3.36162e-06
3.29992e-06
3.23957e-06
3.18259e-06
3.1294e-06
3.0767e-06
3.02688e-06
2.97974e-06
2.9322e-06
2.88777e-06
2.84723e-06
2.46424e-06
1.53556e-06
1.36487e-06
1.36535e-06
1.35556e-06
1.34295e-06
1.3236e-06
1.30827e-06
1.30144e-06
1.29781e-06
1.29729e-06
1.29667e-06
1.29596e-06
1.29515e-06
1.29426e-06
1.29327e-06
1.29221e-06
1.29107e-06
1.28984e-06
1.28853e-06
1.28715e-06
1.28571e-06
1.2842e-06
1.28263e-06
1.28101e-06
1.27933e-06
1.27759e-06
1.2758e-06
1.26838e-06
1.27065e-06
1.27503e-06
1.27277e-06
1.27049e-06
1.26818e-06
1.26585e-06
1.26348e-06
1.2611e-06
1.25869e-06
1.25627e-06
1.25382e-06
1.25136e-06
1.24889e-06
1.2464e-06
1.2439e-06
1.24138e-06
1.23885e-06
1.23632e-06
1.23377e-06
1.23121e-06
1.22865e-06
1.22608e-06
1.22351e-06
1.22093e-06
1.21835e-06
1.21581e-06
1.21307e-06
1.21054e-06
1.20781e-06
3.25886e-06
5.99128e-06
5.90446e-06
5.71989e-06
5.5622e-06
5.41172e-06
5.27095e-06
5.14184e-06
5.02455e-06
4.91568e-06
4.81602e-06
4.72757e-06
4.64845e-06
4.57842e-06
4.48887e-06
4.38325e-06
4.2824e-06
4.18644e-06
4.09495e-06
4.00763e-06
3.90179e-06
3.79491e-06
3.89995e-06
3.95562e-06
3.85491e-06
3.77484e-06
3.69854e-06
3.62416e-06
3.55243e-06
3.48399e-06
3.41775e-06
3.35237e-06
3.29088e-06
3.23254e-06
3.17439e-06
3.12044e-06
3.07056e-06
3.02012e-06
2.97211e-06
2.92706e-06
2.88181e-06
2.84011e-06
2.2625e-06
1.42877e-06
1.34349e-06
1.32638e-06
1.3106e-06
1.30228e-06
1.29783e-06
1.29728e-06
1.29687e-06
1.29635e-06
1.29574e-06
1.29502e-06
1.29421e-06
1.29331e-06
1.29234e-06
1.29128e-06
1.29014e-06
1.28893e-06
1.28764e-06
1.28627e-06
1.28482e-06
1.28332e-06
1.28176e-06
1.28015e-06
1.27848e-06
1.27676e-06
1.27498e-06
1.2674e-06
1.27145e-06
1.27452e-06
1.27226e-06
1.26997e-06
1.26766e-06
1.26532e-06
1.26296e-06
1.26057e-06
1.25817e-06
1.25575e-06
1.25331e-06
1.25085e-06
1.24838e-06
1.24589e-06
1.24339e-06
1.24088e-06
1.23836e-06
1.23583e-06
1.23328e-06
1.23073e-06
1.22818e-06
1.22561e-06
1.22304e-06
1.22048e-06
1.2179e-06
1.21533e-06
1.21278e-06
1.21005e-06
1.20752e-06
1.20481e-06
3.92315e-06
6.39811e-06
6.2347e-06
6.03546e-06
5.86021e-06
5.69034e-06
5.52913e-06
5.37513e-06
5.22842e-06
5.08898e-06
4.95579e-06
4.82963e-06
4.709e-06
4.59357e-06
4.48254e-06
4.37675e-06
4.27591e-06
4.17996e-06
4.08827e-06
4.00088e-06
3.91705e-06
3.83698e-06
3.72617e-06
3.61913e-06
3.7187e-06
3.78196e-06
3.68489e-06
3.6121e-06
3.54169e-06
3.47278e-06
3.40738e-06
3.3441e-06
3.2814e-06
3.22275e-06
3.16704e-06
3.11172e-06
3.06172e-06
3.01395e-06
2.96459e-06
2.91923e-06
2.87751e-06
2.8443e-06
2.13388e-06
1.35583e-06
1.30274e-06
1.29803e-06
1.29692e-06
1.29668e-06