/*--------------------------------*- C++ -*----------------------------------*\
| =========                 |                                                 |
| \\      /  F ield         | foam-extend: Open Source CFD                    |
|  \\    /   O peration     | Version:     4.1                                |
|   \\  /    A nd           | Web:         http://www.foam-extend.org         |
|    \\/     M anipulation  |                                                 |
\*---------------------------------------------------------------------------*/
FoamFile
{
    version     2.0;
    format      ascii;
    class       volScalarField;
    location    "2";
    object      sigmaHyd;
}
// * * * * * * * * * * * * * * * * * * * * * * * * * * * * * * * * * * * * * //

dimensions      [1 -1 -2 0 0 0 0];

internalField   nonuniform List<scalar> 
100000
(
-94124.5
-93883.6
-93930
-93829.6
-93808.2
-93748.2
-93710.6
-93663.6
-93623.6
-93582
-93543.3
-93504.9
-93468.1
-93432.2
-93397.5
-93363.8
-93331
-93299.2
-93268.3
-93238.2
-93209
-93180.6
-93152.9
-93126
-93099.8
-93074.2
-93049.5
-93024.8
-93001.7
-92976.6
-92955.5
-92925.1
-92905.3
-92894.8
-92871.3
-92850.6
-92831
-92811
-92792.2
-92773.3
-92755.2
-92737.3
-92719.8
-92702.7
-92685.9
-92669.4
-92653.3
-92637.4
-92621.8
-92606.5
-92591.5
-92576.7
-92562.2
-92548
-92533.9
-92520.1
-92506.6
-92493.2
-92480
-92467
-92454.2
-92441.6
-92429.1
-92416.7
-92404.6
-92392.5
-92380.7
-92368.9
-92357.3
-92345.8
-92334.5
-92323.3
-92312.2
-92301.3
-92290.5
-92279.7
-92269.2
-92258.6
-92248.3
-92237.9
-92227.6
-92217.3
-92207.3
-92197.1
-92187.4
-92177.1
-92167.1
-92157
-92147.1
-92137.3
-92127.8
-92118.3
-92109.3
-92100.3
-92092.8
-92084.1
-92081.4
-92071.2
-92086.7
-92031
-97533.7
-97209.5
-97198.1
-97029.6
-96948.1
-96826.5
-96730.7
-96626.1
-96530.7
-96434.8
-96343.3
-96253.6
-96166.8
-96082.1
-95999.9
-95919.8
-95841.9
-95766
-95692.1
-95620.1
-95550
-95481.6
-95415
-95350
-95286.8
-95224.9
-95165.5
-95106.2
-95053.1
-94993.3
-94962.6
-94879.7
-94865.4
-94775.1
-94754.3
-94680.4
-94636
-94584
-94538.1
-94491.8
-94447.4
-94403.6
-94360.9
-94319.1
-94278.1
-94237.8
-94198.4
-94159.7
-94121.7
-94084.5
-94047.9
-94011.9
-93976.6
-93941.9
-93907.9
-93874.4
-93841.5
-93809.2
-93777.4
-93746.1
-93715.3
-93685
-93655.1
-93625.7
-93596.7
-93568.1
-93540
-93512.3
-93484.9
-93458
-93431.4
-93405.2
-93379.5
-93354
-93329
-93304.2
-93279.9
-93255.7
-93232
-93208.2
-93184.7
-93161.6
-93139
-93116.3
-93094.5
-93072.1
-93049.9
-93028.2
-93006.6
-92985.4
-92964.6
-92944
-92924.2
-92904
-92885.9
-92865.6
-92852.5
-92828.9
-92833.6
-92754.5
-100941
-100534
-100465
-100228
-100086
-99903.3
-99749.3
-99587.3
-99436.3
-99286.3
-99142.1
-99001
-98864.1
-98730.7
-98601
-98474.6
-98351.6
-98231.7
-98114.8
-98001
-97889.9
-97781.6
-97676
-97572.9
-97472.4
-97374.2
-97278.5
-97184.7
-97093.8
-97004.3
-96917.1
-96835.1
-96740.2
-96656
-96584.7
-96504.7
-96430
-96354.2
-96281.1
-96208.8
-96138.3
-96069
-96001.2
-95934.7
-95869.5
-95805.6
-95742.9
-95681.4
-95621.1
-95561.8
-95503.7
-95446.5
-95390.5
-95335.4
-95281.3
-95228.1
-95175.9
-95124.7
-95074.3
-95024.7
-94975.9
-94927.9
-94880.7
-94834.2
-94788.4
-94743.3
-94698.9
-94655.2
-94612.1
-94569.7
-94527.9
-94486.7
-94446.1
-94406.1
-94366.8
-94327.9
-94289.9
-94252.1
-94215.4
-94178.9
-94142.2
-94106
-94071.8
-94036.4
-94004.7
-93968.7
-93934.3
-93899.8
-93866.6
-93833.7
-93801.8
-93770.1
-93739.6
-93708.6
-93680.6
-93648.6
-93626.8
-93587.1
-93585
-93473.5
-104346
-103855
-103729
-103424
-103223
-102978
-102766
-102546
-102340
-102136
-101939
-101746
-101560
-101377
-101200
-101028
-100859
-100696
-100536
-100380
-100228
-100080
-99935.5
-99794.3
-99656.7
-99522.1
-99391.1
-99262.5
-99137.9
-99014.1
-98894.8
-98774.2
-98642
-98546.1
-98440.4
-98332.1
-98228.6
-98124.7
-98024.2
-97925.1
-97828.4
-97733.4
-97640.5
-97549.3
-97460
-97372.4
-97286.4
-97202.1
-97119.4
-97038.2
-96958.5
-96880.2
-96803.4
-96727.9
-96653.8
-96581
-96509.5
-96439.4
-96370.3
-96302.5
-96235.8
-96170.1
-96105.5
-96041.9
-95979.4
-95917.8
-95857.1
-95797.4
-95738.7
-95680.8
-95623.8
-95567.6
-95512.5
-95458
-95404.6
-95351.7
-95300.5
-95248.6
-95199.6
-95148.2
-95096.7
-95048.6
-95001.4
-94953.4
-94910.2
-94862.7
-94814.1
-94769.7
-94724.2
-94680.6
-94637.3
-94594.6
-94553.1
-94511
-94472.2
-94428.9
-94396.2
-94344.5
-94331.6
-94206.1
-107748
-107174
-106989
-106617
-106356
-106049
-105779
-105502
-105241
-104982
-104733
-104489
-104252
-104022
-103797
-103578
-103365
-103157
-102955
-102757
-102564
-102376
-102193
-102014
-101839
-101668
-101501
-101338
-101179
-101023
-100870
-100721
-100572
-100431
-100293
-100156
-100024
-99892.8
-99765
-99639.5
-99516.7
-99396.2
-99278.2
-99162.4
-99049
-98937.7
-98828.6
-98721.5
-98616.4
-98513.3
-98412.1
-98312.6
-98215.1
-98119.2
-98025.1
-97932.6
-97841.8
-97752.8
-97665.3
-97579.2
-97494.6
-97411.3
-97329.4
-97248.7
-97169.4
-97091.2
-97014.4
-96938.7
-96864.2
-96790.8
-96718.5
-96647.2
-96577.2
-96507.8
-96440.2
-96372.3
-96307.9
-96241.3
-96181
-96121.8
-96053.7
-95989.2
-95933.5
-95871.5
-95836.5
-95764.2
-95699.8
-95638.2
-95582.1
-95525.8
-95472
-95418
-95365.9
-95312.9
-95263.5
-95209.1
-95166.1
-95102.6
-95080.2
-94941.3
-111145
-110488
-110246
-109806
-109485
-109117
-108789
-108455
-108138
-107825
-107523
-107229
-106942
-106663
-106391
-106126
-105868
-105616
-105370
-105131
-104898
-104670
-104447
-104230
-104018
-103811
-103609
-103411
-103218
-103029
-102844
-102663
-102483
-102313
-102144
-101979
-101818
-101659
-101504
-101352
-101203
-101057
-100914
-100774
-100636
-100501
-100369
-100239
-100112
-99986.6
-99863.9
-99743.3
-99625
-99508.6
-99394.6
-99282.3
-99172.5
-99065
-98958.8
-98854.7
-98752
-98651.1
-98551.8
-98454.2
-98358
-98263.4
-98170.4
-98078.7
-97988.6
-97899.8
-97812.4
-97726.2
-97641.7
-97558.1
-97476.7
-97395.3
-97319.3
-97238.5
-97177.2
-97087.2
-96991.7
-96928.7
-96857.8
-96779.3
-96733.6
-96658.1
-96560.3
-96506.5
-96435.3
-96371.4
-96305.6
-96241.2
-96177.9
-96114
-96053.7
-95988.5
-95935
-95860.6
-95828.4
-95678.1
-114537
-113798
-113498
-112990
-112609
-112181
-111794
-111403
-111031
-110664
-110310
-109964
-109628
-109300
-108981
-108670
-108366
-108071
-107783
-107502
-107227
-106960
-106699
-106444
-106195
-105951
-105714
-105482
-105255
-105033
-104815
-104603
-104395
-104192
-103994
-103800
-103610
-103423
-103241
-103062
-102887
-102716
-102548
-102383
-102221
-102063
-101907
-101755
-101605
-101458
-101314
-101172
-101034
-100897
-100763
-100630
-100501
-100375
-100251
-100128
-100008
-99889.3
-99772.8
-99658
-99545.2
-99434.1
-99324.8
-99217.2
-99111.3
-99007
-98904.3
-98802.9
-98703.3
-98604
-98507.9
-98407.6
-98318.4
-98203.5
-98142.7
-97990.3
-97959.4
-97837.7
-97759.3
-97667.2
-97682.6
-97484.4
-97437.2
-97345.6
-97286.5
-97208.1
-97136.5
-97060.9
-96988
-96913.4
-96842.8
-96766.9
-96703.2
-96618.1
-96576.3
-96414.8
-117924
-117102
-116745
-116169
-115729
-115239
-114795
-114346
-113919
-113499
-113092
-112695
-112309
-111933
-111566
-111209
-110861
-110522
-110191
-109868
-109553
-109246
-108946
-108653
-108367
-108088
-107815
-107549
-107288
-107033
-106783
-106540
-106301
-106068
-105840
-105617
-105399
-105185
-104975
-104770
-104569
-104372
-104178
-103989
-103803
-103621
-103443
-103268
-103096
-102927
-102761
-102598
-102439
-102281
-102128
-101974
-101827
-101685
-101541
-101400
-101262
-101126
-100992
-100860
-100730
-100603
-100477
-100354
-100232
-100113
-99995
-99879
-99764.7
-99652
-99540.9
-99431.5
-99321.8
-99217.7
-99100
-99018.3
-98929.5
-98814.5
-98714.2
-98622.9
-98507
-98423.5
-98350
-98241.1
-98153.8
-98060.5
-97973
-97884.8
-97799.5
-97713.4
-97631.7
-97544.8
-97470.7
-97375
-97323.5
-97151
-121304
-120399
-119985
-119341
-118842
-118291
-117789
-117284
-116801
-116327
-115868
-115420
-114985
-114560
-114147
-113744
-113351
-112968
-112595
-112230
-111875
-111528
-111189
-110859
-110536
-110221
-109913
-109612
-109317
-109029
-108748
-108473
-108204
-107940
-107683
-107431
-107184
-106942
-106706
-106474
-106247
-106024
-105806
-105592
-105383
-105177
-104976
-104778
-104584
-104394
-104207
-104023
-103844
-103665
-103494
-103318
-103146
-102988
-102830
-102669
-102514
-102360
-102209
-102060
-101913
-101769
-101628
-101489
-101351
-101216
-101084
-100953
-100824
-100697
-100572
-100448
-100328
-100208
-100093
-99982.7
-99864.8
-99748.5
-99642.2
-99531
-99445.2
-99325
-99215.7
-99105.7
-99004.2
-98901.4
-98802.6
-98703.7
-98607.6
-98510.8
-98418.5
-98321.1
-98236.7
-98130.5
-98069.4
-97886.1
-124676
-123689
-123218
-122507
-121948
-121336
-120777
-120215
-119677
-119150
-118639
-118140
-117655
-117182
-116722
-116273
-115835
-115409
-114993
-114587
-114191
-113805
-113428
-113060
-112700
-112349
-112005
-111670
-111342
-111022
-110708
-110402
-110102
-109808
-109521
-109241
-108966
-108697
-108433
-108175
-107922
-107674
-107431
-107192
-106959
-106730
-106505
-106285
-106069
-105856
-105648
-105443
-105243
-105042
-104850
-104643
-104467
-104306
-104114
-103938
-103762
-103591
-103422
-103257
-103094
-102933
-102776
-102621
-102468
-102318
-102170
-102024
-101881
-101740
-101601
-101464
-101329
-101197
-101065
-100939
-100813
-100687
-100563
-100442
-100321
-100203
-100088
-99970.1
-99856.8
-99743.2
-99632.6
-99522.5
-99415.1
-99307.3
-99204.2
-99096.1
-99001.4
-98884.7
-98814.1
-98619.9
-128040
-126971
-126443
-125665
-125047
-124374
-123757
-123138
-122546
-121965
-121402
-120853
-120318
-119797
-119290
-118796
-118314
-117844
-117385
-116938
-116502
-116076
-115661
-115255
-114859
-114472
-114093
-113724
-113362
-113009
-112664
-112326
-111995
-111672
-111356
-111046
-110743
-110446
-110156
-109871
-109592
-109319
-109051
-108788
-108531
-108279
-108031
-107788
-107550
-107317
-107088
-106863
-106647
-106424
-106236
-105991
-105872
-105583
-105420
-105200
-105013
-104819
-104635
-104451
-104272
-104095
-103921
-103750
-103582
-103417
-103254
-103093
-102936
-102780
-102627
-102476
-102328
-102182
-102039
-101898
-101758
-101620
-101485
-101350
-101221
-101088
-100960
-100831
-100706
-100581
-100459
-100338
-100220
-100101
-99987.8
-99869.2
-99764.3
-99637.2
-99556.9
-99352.1
-131395
-130244
-129659
-128814
-128137
-127404
-126730
-126054
-125408
-124773
-124158
-123558
-122975
-122406
-121852
-121312
-120785
-120272
-119772
-119283
-118807
-118342
-117888
-117444
-117012
-116589
-116175
-115772
-115377
-114991
-114614
-114245
-113884
-113531
-113185
-112847
-112516
-112192
-111874
-111563
-111258
-110960
-110667
-110380
-110099
-109823
-109553
-109288
-109027
-108772
-108522
-108276
-108035
-107799
-107565
-107349
-107101
-106869
-106669
-106454
-106249
-106042
-105841
-105641
-105446
-105253
-105063
-104877
-104693
-104513
-104335
-104160
-103987
-103818
-103651
-103486
-103324
-103165
-103007
-102853
-102700
-102550
-102402
-102255
-102111
-101969
-101828
-101689
-101552
-101417
-101284
-101152
-101023
-100894
-100770
-100640
-100525
-100388
-100298
-100083
-134740
-133507
-132866
-131954
-131218
-130424
-129694
-128962
-128261
-127573
-126906
-126256
-125623
-125007
-124406
-123820
-123250
-122693
-122151
-121621
-121105
-120600
-120108
-119628
-119158
-118700
-118252
-117814
-117386
-116967
-116558
-116158
-115767
-115384
-115009
-114642
-114283
-113932
-113587
-113250
-112920
-112596
-112279
-111967
-111663
-111364
-111070
-110783
-110501
-110224
-109952
-109685
-109424
-109166
-108915
-108663
-108413
-108177
-107948
-107714
-107489
-107265
-107046
-106829
-106617
-106408
-106202
-106000
-105801
-105605
-105413
-105223
-105036
-104852
-104671
-104493
-104317
-104144
-103974
-103806
-103641
-103478
-103317
-103158
-103002
-102848
-102696
-102545
-102397
-102250
-102106
-101963
-101823
-101684
-101549
-101409
-101284
-101136
-101037
-100811
-138074
-136760
-136063
-135084
-134289
-133435
-132648
-131860
-131104
-130364
-129646
-128945
-128263
-127599
-126952
-126321
-125706
-125107
-124522
-123952
-123395
-122852
-122322
-121804
-121298
-120804
-120321
-119849
-119388
-118938
-118497
-118066
-117644
-117231
-116827
-116432
-116045
-115666
-115295
-114932
-114576
-114227
-113885
-113550
-113221
-112899
-112583
-112273
-111969
-111670
-111378
-111090
-110808
-110531
-110258
-109992
-109726
-109466
-109215
-108966
-108722
-108481
-108245
-108013
-107784
-107559
-107338
-107120
-106906
-106695
-106487
-106283
-106082
-105884
-105688
-105496
-105307
-105121
-104937
-104757
-104578
-104403
-104229
-104059
-103890
-103724
-103560
-103398
-103239
-103081
-102926
-102772
-102622
-102471
-102326
-102176
-102041
-101883
-101774
-101537
-141397
-140002
-139248
-138203
-137350
-136436
-135592
-134748
-133938
-133145
-132375
-131625
-130894
-130182
-129489
-128813
-128154
-127512
-126885
-126274
-125678
-125096
-124527
-123972
-123430
-122901
-122384
-121878
-121384
-120901
-120428
-119966
-119514
-119072
-118639
-118216
-117801
-117395
-116997
-116608
-116226
-115852
-115486
-115126
-114774
-114429
-114090
-113758
-113432
-113112
-112798
-112490
-112188
-111891
-111599
-111312
-111029
-110753
-110482
-110215
-109953
-109695
-109442
-109193
-108948
-108707
-108469
-108236
-108006
-107780
-107558
-107339
-107123
-106911
-106702
-106497
-106294
-106094
-105897
-105704
-105513
-105324
-105139
-104956
-104775
-104597
-104422
-104248
-104078
-103909
-103743
-103578
-103417
-103256
-103100
-102940
-102795
-102626
-102508
-102261
-144708
-143232
-142422
-141310
-140399
-139426
-138525
-137625
-136762
-135915
-135095
-134294
-133516
-132756
-132017
-131296
-130594
-129908
-129240
-128588
-127952
-127331
-126725
-126133
-125555
-124990
-124439
-123899
-123372
-122857
-122353
-121860
-121378
-120906
-120444
-119993
-119550
-119117
-118693
-118277
-117870
-117471
-117081
-116697
-116322
-115953
-115592
-115238
-114890
-114549
-114214
-113885
-113563
-113246
-112934
-112629
-112328
-112033
-111744
-111459
-111179
-110904
-110634
-110368
-110107
-109850
-109597
-109348
-109103
-108862
-108625
-108391
-108161
-107935
-107712
-107493
-107277
-107064
-106854
-106647
-106444
-106243
-106045
-105850
-105657
-105468
-105280
-105096
-104914
-104734
-104557
-104381
-104209
-104038
-103872
-103701
-103546
-103367
-103239
-102983
-148005
-146448
-145583
-144405
-143436
-142403
-141446
-140491
-139574
-138675
-137804
-136954
-136126
-135320
-134535
-133769
-133023
-132295
-131585
-130893
-130217
-129558
-128914
-128285
-127671
-127071
-126485
-125912
-125353
-124805
-124270
-123746
-123234
-122733
-122242
-121762
-121293
-120832
-120382
-119941
-119508
-119085
-118669
-118262
-117863
-117472
-117088
-116712
-116342
-115980
-115624
-115275
-114932
-114596
-114265
-113940
-113621
-113308
-113000
-112698
-112401
-112109
-111822
-111539
-111262
-110988
-110720
-110455
-110195
-109939
-109687
-109440
-109195
-108955
-108718
-108485
-108256
-108030
-107807
-107587
-107371
-107158
-106948
-106740
-106536
-106334
-106136
-105940
-105746
-105555
-105367
-105181
-104999
-104816
-104640
-104459
-104294
-104106
-103968
-103702
-151288
-149652
-148730
-147487
-146461
-145368
-144355
-143344
-142374
-141423
-140501
-139601
-138726
-137873
-137042
-136232
-135442
-134672
-133921
-133188
-132473
-131775
-131094
-130428
-129778
-129144
-128523
-127917
-127325
-126745
-126179
-125625
-125082
-124552
-124033
-123525
-123027
-122541
-122064
-121597
-121139
-120691
-120251
-119820
-119398
-118984
-118578
-118179
-117788
-117405
-117028
-116659
-116296
-115940
-115590
-115246
-114909
-114577
-114252
-113932
-113617
-113308
-113004
-112705
-112411
-112122
-111838
-111558
-111283
-111012
-110746
-110483
-110225
-109971
-109720
-109474
-109231
-108991
-108756
-108523
-108294
-108069
-107846
-107627
-107411
-107198
-106987
-106780
-106576
-106374
-106175
-105978
-105785
-105592
-105406
-105215
-105039
-104841
-104693
-104417
-154557
-152840
-151864
-150556
-149471
-148320
-147251
-146185
-145162
-144159
-143186
-142238
-141314
-140414
-139538
-138683
-137850
-137038
-136246
-135473
-134718
-133982
-133264
-132562
-131876
-131207
-130552
-129913
-129288
-128677
-128079
-127495
-126923
-126363
-125815
-125280
-124755
-124241
-123738
-123246
-122763
-122290
-121826
-121372
-120926
-120489
-120061
-119641
-119228
-118824
-118426
-118037
-117654
-117278
-116909
-116547
-116191
-115841
-115498
-115160
-114828
-114502
-114181
-113866
-113556
-113251
-112951
-112656
-112366
-112080
-111799
-111523
-111250
-110982
-110718
-110458
-110201
-109949
-109700
-109455
-109214
-108976
-108741
-108510
-108282
-108057
-107836
-107617
-107401
-107188
-106978
-106771
-106567
-106364
-106167
-105966
-105781
-105572
-105416
-105130
-157810
-156014
-154982
-153609
-152468
-151258
-150134
-149013
-147937
-146882
-145859
-144861
-143890
-142944
-142022
-141123
-140247
-139393
-138560
-137747
-136953
-136179
-135423
-134685
-133964
-133260
-132572
-131899
-131242
-130599
-129970
-129356
-128754
-128165
-127589
-127026
-126473
-125934
-125404
-124886
-124379
-123881
-123394
-122916
-122447
-121988
-121537
-121095
-120661
-120236
-119818
-119408
-119005
-118610
-118222
-117841
-117467
-117099
-116737
-116382
-116033
-115690
-115353
-115022
-114696
-114375
-114060
-113749
-113444
-113144
-112848
-112557
-112270
-111988
-111710
-111437
-111167
-110902
-110640
-110383
-110129
-109879
-109632
-109389
-109149
-108913
-108680
-108450
-108223
-107999
-107778
-107560
-107346
-107133
-106926
-106714
-106519
-106301
-106135
-105839
-161047
-159172
-158085
-156648
-155449
-154181
-153001
-151826
-150697
-149591
-148518
-147472
-146453
-145461
-144494
-143551
-142632
-141736
-140862
-140009
-139177
-138365
-137572
-136798
-136042
-135303
-134581
-133876
-133186
-132512
-131852
-131207
-130576
-129959
-129354
-128763
-128184
-127618
-127063
-126519
-125987
-125465
-124954
-124452
-123961
-123479
-123006
-122542
-122087
-121640
-121202
-120772
-120350
-119936
-119528
-119129
-118736
-118350
-117971
-117599
-117233
-116873
-116519
-116171
-115829
-115493
-115162
-114837
-114516
-114201
-113891
-113586
-113285
-112990
-112698
-112411
-112129
-111850
-111576
-111306
-111039
-110777
-110518
-110263
-110012
-109764
-109519
-109278
-109040
-108806
-108574
-108346
-108121
-107897
-107680
-107459
-107254
-107026
-106850
-106545
-164266
-162313
-161172
-159670
-158415
-157088
-155854
-154624
-153443
-152286
-151163
-150068
-149003
-147964
-146952
-145966
-145004
-144067
-143152
-142260
-141389
-140539
-139710
-138900
-138108
-137335
-136580
-135842
-135120
-134414
-133724
-133049
-132389
-131743
-131109
-130491
-129883
-129292
-128711
-128143
-127586
-127040
-126505
-125980
-125466
-124962
-124467
-123981
-123505
-123038
-122580
-122130
-121688
-121254
-120828
-120410
-119999
-119595
-119198
-118809
-118425
-118049
-117679
-117315
-116957
-116605
-116259
-115918
-115583
-115254
-114929
-114610
-114295
-113986
-113681
-113380
-113085
-112793
-112507
-112224
-111945
-111671
-111400
-111133
-110870
-110611
-110355
-110103
-109854
-109608
-109366
-109127
-108892
-108658
-108431
-108199
-107985
-107746
-107561
-107247
-167468
-165436
-164241
-162675
-161364
-159980
-158691
-157407
-156174
-154966
-153794
-152650
-151538
-150453
-149397
-148367
-147363
-146384
-145430
-144498
-143589
-142702
-141835
-140989
-140163
-139356
-138568
-137797
-137043
-136307
-135586
-134881
-134192
-133517
-132856
-132210
-131576
-130959
-130352
-129759
-129177
-128607
-128048
-127500
-126963
-126436
-125920
-125413
-124916
-124428
-123949
-123479
-123018
-122565
-122120
-121684
-121254
-120833
-120419
-120012
-119612
-119218
-118832
-118452
-118078
-117711
-117349
-116994
-116644
-116300
-115961
-115628
-115299
-114976
-114658
-114344
-114036
-113732
-113432
-113137
-112846
-112559
-112277
-111998
-111723
-111453
-111186
-110922
-110663
-110406
-110154
-109904
-109658
-109414
-109177
-108936
-108711
-108463
-108269
-107945
-170651
-168542
-167293
-165663
-164296
-162854
-161511
-160174
-158889
-157630
-156409
-155217
-154058
-152928
-151828
-150755
-149709
-148689
-147694
-146723
-145776
-144851
-143949
-143067
-142206
-141365
-140544
-139741
-138956
-138188
-137437
-136703
-135984
-135281
-134590
-133917
-133248
-132614
-131980
-131365
-130758
-130165
-129582
-129012
-128452
-127903
-127364
-126836
-126318
-125810
-125311
-124821
-124341
-123869
-123405
-122950
-122503
-122064
-121632
-121208
-120791
-120381
-119978
-119583
-119193
-118810
-118434
-118063
-117699
-117340
-116987
-116640
-116298
-115961
-115629
-115303
-114981
-114664
-114352
-114044
-113741
-113443
-113148
-112858
-112572
-112290
-112012
-111737
-111467
-111200
-110936
-110676
-110421
-110166
-109919
-109668
-109433
-109176
-108972
-108640
-173815
-171628
-170326
-168633
-167210
-165711
-164314
-162924
-161587
-160278
-159008
-157769
-156563
-155388
-154244
-153128
-152040
-150979
-149944
-148935
-147949
-146988
-146049
-145132
-144237
-143362
-142508
-141673
-140856
-140058
-139277
-138513
-137766
-137035
-136318
-135617
-134929
-134264
-133605
-132963
-132332
-131714
-131108
-130514
-129931
-129360
-128800
-128251
-127712
-127183
-126664
-126155
-125655
-125164
-124682
-124209
-123744
-123287
-122838
-122397
-121963
-121537
-121117
-120706
-120301
-119903
-119511
-119126
-118747
-118374
-118007
-117646
-117290
-116940
-116595
-116255
-115921
-115591
-115266
-114947
-114631
-114321
-114014
-113713
-113415
-113122
-112832
-112547
-112266
-111988
-111714
-111444
-111178
-110914
-110656
-110395
-110151
-109884
-109671
-109330
-176958
-174695
-173339
-171584
-170106
-168550
-167099
-165656
-164268
-162909
-161590
-160304
-159052
-157832
-156644
-155485
-154356
-153254
-152180
-151132
-150109
-149111
-148136
-147184
-146255
-145347
-144459
-143592
-142745
-141916
-141106
-140313
-139537
-138777
-138029
-137303
-136532
-135896
-135211
-134549
-133894
-133252
-132623
-132006
-131401
-130808
-130227
-129656
-129097
-128548
-128009
-127480
-126961
-126452
-125951
-125460
-124977
-124502
-124036
-123578
-123128
-122685
-122250
-121822
-121402
-120989
-120582
-120183
-119789
-119402
-119021
-118645
-118276
-117912
-117554
-117202
-116854
-116512
-116175
-115843
-115516
-115193
-114875
-114562
-114253
-113948
-113648
-113352
-113060
-112772
-112487
-112207
-111931
-111656
-111389
-111118
-110865
-110588
-110365
-110015
-180080
-177741
-176332
-174515
-172982
-171370
-169866
-168370
-166931
-165522
-164156
-162822
-161525
-160260
-159028
-157827
-156657
-155515
-154401
-153315
-152254
-151219
-150209
-149222
-148259
-147318
-146398
-145499
-144620
-143761
-142922
-142100
-141297
-140508
-139742
-138976
-138253
-137539
-136823
-136128
-135448
-134781
-134128
-133488
-132861
-132247
-131644
-131052
-130472
-129903
-129345
-128797
-128259
-127730
-127212
-126702
-126202
-125710
-125226
-124751
-124283
-123825
-123370
-122930
-122494
-122067
-121646
-121232
-120824
-120422
-120027
-119638
-119255
-118878
-118507
-118142
-117782
-117427
-117077
-116733
-116394
-116060
-115730
-115405
-115085
-114770
-114458
-114151
-113848
-113550
-113255
-112964
-112678
-112394
-112117
-111836
-111573
-111287
-111055
-110696
-183181
-180766
-179305
-177425
-175838
-174170
-172613
-171065
-169576
-168118
-166703
-165323
-163980
-162671
-161396
-160153
-158941
-157759
-156607
-155482
-154385
-153314
-152268
-151246
-150249
-149275
-148323
-147392
-146483
-145594
-144726
-143876
-143050
-142235
-141472
-140667
-139742
-139155
-138448
-137696
-136995
-136299
-135624
-134961
-134312
-133675
-133051
-132439
-131838
-131249
-130671
-130104
-129547
-129000
-128463
-127936
-127418
-126909
-126409
-125918
-125434
-124960
-124490
-124032
-123582
-123138
-122703
-122274
-121852
-121436
-121027
-120624
-120228
-119838
-119454
-119075
-118702
-118335
-117974
-117617
-117266
-116920
-116579
-116243
-115912
-115585
-115263
-114945
-114632
-114322
-114018
-113716
-113420
-113126
-112839
-112549
-112277
-111981
-111740
-111372
-186259
-183769
-182256
-180315
-178673
-176950
-175340
-173740
-172201
-170694
-169232
-167805
-166417
-165065
-163747
-162462
-161209
-159988
-158796
-157634
-156500
-155392
-154311
-153256
-152225
-151218
-150234
-149272
-148332
-147413
-146515
-145636
-144777
-143937
-143115
-142318
-141519
-140730
-139987
-139241
-138516
-137803
-137106
-136421
-135750
-135093
-134448
-133815
-133194
-132586
-131988
-131402
-130826
-130261
-129706
-129161
-128626
-128100
-127583
-127075
-126573
-126081
-125568
-125123
-124659
-124202
-123753
-123309
-122873
-122443
-122020
-121603
-121194
-120790
-120393
-120002
-119617
-119237
-118863
-118495
-118132
-117775
-117422
-117075
-116732
-116394
-116061
-115733
-115409
-115089
-114774
-114463
-114157
-113853
-113557
-113257
-112975
-112670
-112420
-112044
-189314
-186750
-185185
-183182
-181487
-179709
-178047
-176395
-174807
-173251
-171741
-170269
-168836
-167440
-166079
-164753
-163460
-162199
-160969
-159769
-158599
-157456
-156340
-155250
-154186
-153146
-152130
-151137
-150167
-149218
-148290
-147383
-146495
-145626
-144769
-143939
-143063
-142324
-141541
-140781
-140032
-139297
-138577
-137871
-137179
-136500
-135834
-135181
-134540
-133912
-133295
-132690
-132095
-131512
-130939
-130377
-129824
-129282
-128749
-128226
-127711
-127212
-126701
-126203
-125733
-125257
-124794
-124335
-123885
-123441
-123005
-122575
-122152
-121735
-121325
-120922
-120524
-120132
-119746
-119366
-118991
-118622
-118258
-117900
-117546
-117198
-116854
-116515
-116181
-115851
-115526
-115204
-114888
-114574
-114268
-113959
-113668
-113354
-113094
-112710
-192345
-189707
-188090
-186028
-184279
-182446
-180732
-179030
-177392
-175788
-174232
-172713
-171236
-169796
-168394
-167026
-165693
-164393
-163125
-161888
-160681
-159502
-158352
-157228
-156131
-155059
-154011
-152988
-151987
-151009
-150052
-149116
-148201
-147305
-146427
-145570
-144723
-143903
-143098
-142310
-141537
-140779
-140037
-139309
-138595
-137895
-137209
-136536
-135875
-135227
-134591
-133967
-133355
-132753
-132163
-131583
-131015
-130455
-129912
-129368
-128868
-128313
-127746
-127295
-126831
-126312
-125836
-125356
-124892
-124433
-123982
-123539
-123103
-122673
-122250
-121834
-121424
-121020
-120622
-120230
-119844
-119463
-119088
-118718
-118354
-117995
-117640
-117291
-116946
-116606
-116271
-115939
-115614
-115290
-114975
-114656
-114355
-114032
-113763
-113371
-195352
-192639
-190972
-188850
-187048
-185161
-183396
-181642
-179956
-178304
-176701
-175138
-173617
-172134
-170689
-169281
-167908
-166569
-165264
-163990
-162747
-161533
-160348
-159191
-158060
-156956
-155877
-154823
-153792
-152785
-151799
-150835
-149892
-148969
-148062
-147180
-146304
-145466
-144635
-143825
-143029
-142250
-141485
-140736
-140001
-139280
-138573
-137880
-137200
-136532
-135877
-135234
-134604
-133984
-133376
-132778
-132192
-131615
-131049
-130490
-129945
-129397
-128876
-128368
-127850
-127347
-126852
-126365
-125886
-125414
-124951
-124494
-124045
-123603
-123168
-122739
-122317
-121901
-121491
-121087
-120690
-120298
-119911
-119530
-119155
-118785
-118420
-118060
-117705
-117355
-117010
-116668
-116333
-116000
-115675
-115347
-115037
-114705
-114427
-114026
-198332
-195548
-193830
-191648
-189794
-187852
-186037
-184233
-182498
-180799
-179150
-177542
-175977
-174451
-172965
-171517
-170104
-168727
-167384
-166073
-164795
-163546
-162327
-161136
-159973
-158837
-157728
-156643
-155583
-154546
-153532
-152540
-151570
-150621
-149691
-148782
-147889
-147019
-146165
-145330
-144511
-143708
-142921
-142150
-141394
-140653
-139926
-139212
-138513
-137826
-137152
-136491
-135842
-135205
-134579
-133964
-133361
-132767
-132185
-131611
-131045
-130490
-129917
-129413
-128888
-128374
-127866
-127365
-126873
-126388
-125912
-125442
-124980
-124525
-124077
-123636
-123202
-122774
-122352
-121937
-121528
-121125
-120727
-120335
-119949
-119568
-119193
-118823
-118458
-118097
-117742
-117391
-117046
-116704
-116369
-116032
-115713
-115372
-115084
-114676
-201287
-198430
-196663
-194421
-192515
-190521
-188655
-186801
-185018
-183272
-181577
-179925
-178316
-176749
-175221
-173732
-172281
-170866
-169486
-168139
-166828
-165541
-164289
-163065
-161870
-160702
-159561
-158447
-157357
-156292
-155250
-154230
-153233
-152257
-151301
-150367
-149450
-148556
-147678
-146820
-145978
-145153
-144345
-143552
-142775
-142013
-141266
-140533
-139814
-139108
-138416
-137736
-137069
-136414
-135771
-135139
-134519
-133909
-133310
-132720
-132141
-131572
-131012
-130466
-129925
-129394
-128872
-128357
-127851
-127354
-126863
-126381
-125906
-125439
-124979
-124525
-124079
-123639
-123206
-122779
-122359
-121944
-121536
-121133
-120736
-120345
-119959
-119579
-119204
-118833
-118468
-118108
-117753
-117401
-117057
-116711
-116382
-116033
-115736
-115320
-204215
-201286
-199469
-197169
-195212
-193164
-191249
-189346
-187515
-185722
-183982
-182286
-180634
-179025
-177457
-175928
-174438
-172984
-171567
-170184
-168837
-167519
-166232
-164975
-163748
-162550
-161379
-160234
-159115
-158021
-156952
-155905
-154881
-153880
-152899
-151940
-151000
-150080
-149179
-148297
-147433
-146586
-145756
-144942
-144144
-143362
-142595
-141842
-141104
-140379
-139668
-138970
-138285
-137613
-136952
-136304
-135666
-135040
-134425
-133820
-133225
-132641
-132063
-131503
-130948
-130404
-129868
-129340
-128821
-128310
-127807
-127312
-126824
-126344
-125872
-125406
-124948
-124497
-124052
-123614
-123182
-122757
-122337
-121924
-121516
-121115
-120718
-120328
-119943
-119562
-119188
-118817
-118453
-118092
-117739
-117383
-117046
-116687
-116382
-115958
-207115
-204116
-202250
-199892
-197883
-195783
-193818
-191866
-189988
-188149
-186365
-184624
-182931
-181280
-179671
-178103
-176574
-175084
-173630
-172212
-170847
-169477
-168157
-166868
-165609
-164380
-163178
-162005
-160857
-159735
-158638
-157564
-156514
-155486
-154481
-153496
-152532
-151589
-150665
-149760
-148873
-148005
-147153
-146318
-145500
-144697
-143910
-143138
-142381
-141638
-140909
-140193
-139490
-138800
-138123
-137457
-136803
-136161
-135530
-134910
-134301
-133702
-133113
-132535
-131965
-131406
-130856
-130314
-129782
-129257
-128741
-128233
-127733
-127241
-126756
-126279
-125809
-125346
-124890
-124440
-123997
-123561
-123131
-122707