/*--------------------------------*- C++ -*----------------------------------*\
| =========                 |                                                 |
| \\      /  F ield         | foam-extend: Open Source CFD                    |
|  \\    /   O peration     | Version:     4.1                                |
|   \\  /    A nd           | Web:         http://www.foam-extend.org         |
|    \\/     M anipulation  |                                                 |
\*---------------------------------------------------------------------------*/
FoamFile
{
    version     2.0;
    format      ascii;
    class       volScalarField;
    location    "2";
    object      sigmaEq;
}
// * * * * * * * * * * * * * * * * * * * * * * * * * * * * * * * * * * * * * //

dimensions      [1 -1 -2 0 0 0 0];

internalField   nonuniform List<scalar> 
100000
(
1.20773e+06
1.81957e+06
1.78626e+06
1.74245e+06
1.70425e+06
1.6669e+06
1.63193e+06
1.59867e+06
1.56704e+06
1.53661e+06
1.50739e+06
1.47984e+06
1.45423e+06
1.42935e+06
1.40587e+06
1.3832e+06
1.36176e+06
1.34147e+06
1.32226e+06
1.30381e+06
1.28607e+06
1.26948e+06
1.25328e+06
1.23792e+06
1.223e+06
1.20893e+06
1.19542e+06
1.1825e+06
1.1702e+06
1.15839e+06
1.14701e+06
1.1359e+06
1.00884e+06
821496
815001
812320
809562
806776
803957
801115
798252
795351
792408
789446
786476
783506
780528
777548
774546
771535
768497
765491
762464
759482
756497
753540
750581
747618
744689
741769
738875
735980
733123
730283
727468
724650
721843
719075
716315
713607
710914
708264
705678
703098
700554
698036
695540
693097
700427
708810
717359
726979
727189
725201
723293
721482
719778
718197
716759
715486
714414
713580
713036
712871
713137
714138
715609
718764
722110
727623
1.26006e+06
1.80983e+06
1.79924e+06
1.75513e+06
1.71558e+06
1.67801e+06
1.64252e+06
1.60877e+06
1.57638e+06
1.54514e+06
1.51585e+06
1.48827e+06
1.46205e+06
1.43653e+06
1.41256e+06
1.38966e+06
1.36779e+06
1.34721e+06
1.32768e+06
1.30896e+06
1.29108e+06
1.27404e+06
1.25734e+06
1.24166e+06
1.22668e+06
1.21241e+06
1.19854e+06
1.18533e+06
1.17279e+06
1.16077e+06
1.14918e+06
1.13811e+06
972535
820682
817635
814948
812208
809413
806588
803730
800845
797941
795010
792048
789062
786073
783075
780081
777073
774081
771042
768029
764997
762008
759017
756033
753083
750126
747193
744268
741382
738494
735633
732791
729965
727171
724369
721605
718867
716154
713485
710833
708231
705685
703158
700663
706271
715101
723984
733808
733372
731225
729157
727168
725263
723451
721741
720153
718696
717379
716227
715265
714523
714028
713779
713855
714079
714752
715040
714289
1.26888e+06
1.78746e+06
1.81147e+06
1.76661e+06
1.72658e+06
1.68884e+06
1.65242e+06
1.61817e+06
1.58553e+06
1.55388e+06
1.52383e+06
1.49562e+06
1.46886e+06
1.44336e+06
1.41891e+06
1.39589e+06
1.37368e+06
1.35283e+06
1.33304e+06
1.31386e+06
1.29545e+06
1.27813e+06
1.26138e+06
1.24552e+06
1.23021e+06
1.21546e+06
1.20126e+06
1.18786e+06
1.17519e+06
1.16303e+06
1.1513e+06
1.14002e+06
974010
821776
820161
817426
814692
811914
809092
806216
803311
800398
797462
794507
791530
788541
785525
782522
779492
776478
773419
770398
767378
764372
761388
758399
755449
752486
749553
746631
743741
740855
737982
735152
732321
729530
726742
723971
721263
718561
715894
713272
710678
708145
710829
720201
729344
739284
739551
737265
735034
732870
730780
728759
726817
724963
723202
721543
719988
718551
717244
716077
715049
714150
713353
712640
711875
711027
709709
706558
1.07453e+06
1.74014e+06
1.79661e+06
1.77805e+06
1.73784e+06
1.69939e+06
1.66215e+06
1.62699e+06
1.59391e+06
1.56196e+06
1.53169e+06
1.50305e+06
1.47604e+06
1.45001e+06
1.42514e+06
1.4018e+06
1.37935e+06
1.35814e+06
1.33793e+06
1.31835e+06
1.29981e+06
1.28226e+06
1.2651e+06
1.24881e+06
1.23324e+06
1.21836e+06
1.20402e+06
1.19039e+06
1.17742e+06
1.16497e+06
1.15295e+06
1.14129e+06
946408
824522
822588
819840
817069
814265
811418
808532
805609
802671
799711
796745
793759
790781
787771
784778
781735
778707
775653
772622
769606
766584
763607
760615
757657
754695
751756
748834
745932
743064
740185
737355
734536
731727
728963
726191
723470
720789
718123
715521
714169
724214
733571
743568
745773
743357
740990
738675
736416
734213
732071
729986
727981
726057
724195
722403
720689
719058
717511
716040
714626
713246
711859
710419
708837
707060
704913
701126
931305
1.71133e+06
1.6839e+06
1.68244e+06
1.6969e+06
1.70925e+06
1.67146e+06
1.63595e+06
1.60252e+06
1.57019e+06
1.53955e+06
1.51004e+06
1.48261e+06
1.45622e+06
1.43122e+06
1.40743e+06
1.38475e+06
1.36304e+06
1.34269e+06
1.32284e+06
1.30376e+06
1.28582e+06
1.26858e+06
1.25216e+06
1.23637e+06
1.22114e+06
1.20641e+06
1.19241e+06
1.17918e+06
1.16653e+06
1.15433e+06
1.13317e+06
905203
827491
824793
822042
819256
816443
813592
810713
807788
804835
801849
798866
795859
792878
789864
786865
783823
780789
777749
774699
771684
768653
765673
762679
759706
756750
753806
750894
747968
745099
742235
739392
736596
733786
731029
728297
725568
722887
720233
727161
736700
746695
752048
749512
747024
744572
742180
739826
737520
735265
733070
730914
728823
726794
724818
722886
721018
719192
717405
715641
713882
712105
710273
708356
706288
704036
701536
697473
875977
1.64876e+06
1.68388e+06
1.75207e+06
1.74497e+06
1.62292e+06
1.53542e+06
1.53811e+06
1.5471e+06
1.55993e+06
1.54657e+06
1.51693e+06
1.48884e+06
1.46237e+06
1.43689e+06
1.41288e+06
1.38993e+06
1.36786e+06
1.34703e+06
1.32684e+06
1.30761e+06
1.28951e+06
1.27197e+06
1.25507e+06
1.2389e+06
1.22347e+06
1.20866e+06
1.19453e+06
1.18107e+06
1.16814e+06
1.15573e+06
1.1141e+06
879988
829585
826890
824134
821320
818483
815623
812747
809826
806880
803881
800887
797854
794847
791816
788794
785755
782709
779680
776621
773610
770577
767578
764584
761598
758653
755698
752794
749873
746979
744135
741274
738464
735679
732908
730189
727488
728622
738824
748931
758410
755760
753150
750582
748066
745574
743170
740722
738315
726207
712252
698398
684783
671311
657895
644679
631624
618730
605991
593400
580952
568626
556453
544285
532464
520306
508626
503360
877833
1.6468e+06
1.60147e+06
1.65827e+06
1.72116e+06
1.6633e+06
1.61169e+06
1.56861e+06
1.53406e+06
1.46509e+06
1.38299e+06
1.35072e+06
1.3474e+06
1.34721e+06
1.34838e+06
1.35101e+06
1.35403e+06
1.35699e+06
1.35126e+06
1.33088e+06
1.31122e+06
1.29261e+06
1.27479e+06
1.25776e+06
1.24146e+06
1.22587e+06
1.21082e+06
1.19638e+06
1.18261e+06
1.16945e+06
1.15681e+06
1.09647e+06
873348
831548
828835
826070
823239
820375
817475
814570
811631
808694
805700
802708
799679
796658
793622
790577
787540
784477
781453
778395
775375
772343
769325
761523
742814
724015
705104
686157
667200
648225
629325
610509
591794
573265
554911
536769
533683
533822
534521
526666
515253
503897
492617
481442
470377
459455
448706
504983
428814
420746
411457
401959
442581
434347
375313
366987
359019
351379
344079
337134
330559
324354
318580
313139
308259
303835
299464
301277
879290
1.64369e+06
1.59567e+06
1.58468e+06
1.63849e+06
1.65611e+06
1.60085e+06
1.5472e+06
1.49663e+06
1.44736e+06
1.4015e+06
1.35933e+06
1.32154e+06
1.28958e+06
1.26121e+06
1.23613e+06
1.21388e+06
1.18113e+06
1.13356e+06
1.10255e+06
1.09231e+06
1.08291e+06
1.07372e+06
1.06462e+06
1.05551e+06
1.04643e+06
1.03706e+06
1.0274e+06
1.01758e+06
1.00754e+06
997173
910085
665498
621833
619532
616020
611365
605668
598993
591459
583104
574042
564307
553982
543143
531823
520134
508077
495796
483266
470632
457892
445136
432424
420520
411274
402339
391111
380336
370079
360468
351559
343437
336230
329977
324756
321738
315808
310185
308949
306228
303900
301984
300504
299475
298913
298817
299208
300064
301403
303190
303159
302734
302302
301782
301274
300806
300281
299748
299194
298636
298070
297504
296932
296384
295810
295259
294904
293962
294791
880730
1.64061e+06
1.59271e+06
1.53547e+06
1.55901e+06
1.61532e+06
1.59394e+06
1.54066e+06
1.49054e+06
1.44186e+06
1.39651e+06
1.35322e+06
1.31094e+06
1.2712e+06
1.23351e+06
1.19822e+06
1.16402e+06
1.13053e+06
1.09816e+06
1.06642e+06
1.03633e+06
1.00851e+06
982314
957525
934014
911914
890805
870411
850832
832143
814260
675739
367019
300660
301670
302301
302605
302660
302532
302315
302084
301927
301927
302159
302717
303673
305103
307062
309600
312762
316579
321086
326312
332255
338937
344037
344256
344446
344594
344706
344791
344839
344858
344845
344796
336590
320053
308842
307392
307194
306978
306741
306485
306213
305917
305603
305271
304917
304559
304178
303766
303333
302902
302443
301977
301504
301007
300491
299981
299456
298925
298388
297852
297312
296794
296836
297040
296702
294296
287842
853660
1.62169e+06
1.57403e+06
1.51718e+06
1.46761e+06
1.53413e+06
1.60783e+06
1.55527e+06
1.50502e+06
1.45691e+06
1.41153e+06
1.36875e+06
1.32735e+06
1.288e+06
1.25008e+06
1.21515e+06
1.18214e+06
1.14945e+06
1.11828e+06
1.08869e+06
1.06007e+06
1.03311e+06
1.00748e+06
982894
959149
936574
915099
894501
874783
856186
838685
685464
449267
410921
413098
415273
417442
419600
421737
423865
425934
427990
429961
431915
433798
435640
437420
439122
440758
442312
443793
445222
446582
447880
449146
450265
451456
452594
453512
454443
455280
456065
456772
457404
438685
419022
407264
410036
412733
415340
417869
420324
422708
425015
427243
429406
431505
433539
435511
437412
439253
441049
442800
444508
446175
447815
449448
451069
452678
454279
455885
457501
459134
460794
463152
457433
449225
439656
431037
440390
863085
1.60458e+06
1.56613e+06
1.51739e+06
1.47549e+06
1.46978e+06
1.60121e+06
1.6755e+06
1.62722e+06
1.58156e+06
1.53828e+06
1.49768e+06
1.45943e+06
1.42303e+06
1.38768e+06
1.35522e+06
1.32516e+06
1.29566e+06
1.2675e+06
1.24102e+06
1.21548e+06
1.1914e+06
1.16872e+06
1.14727e+06
1.12663e+06
1.10698e+06
1.08841e+06
1.07084e+06
1.05408e+06
1.03825e+06
1.0234e+06
889271
755923
739913
740624
741342
742045
742760
743430
744117
744724
745338
745874
746383
746849
747255
747615
747886
748089
748229
748284
748303
748253
748171
748000
747801
776401
747182
746781
746339
745803
745224
738998
714818
691787
685618
688144
690544
692822
694981
697040
698994
700854
702624
704296
705884
707393
708826
710192
711498
712752
713962
715113
716213
717271
718305
719320
720325
721327
722331
723337
724349
720677
710673
699148
685094
671832
662357
659876
657541
935900
1.63135e+06
1.59416e+06
1.54636e+06
1.50447e+06
1.46315e+06
1.49682e+06
1.64179e+06
1.6905e+06
1.65406e+06
1.61995e+06
1.58746e+06
1.55692e+06
1.52915e+06
1.50107e+06
1.47482e+06
1.45118e+06
1.4282e+06
1.40581e+06
1.3844e+06
1.36357e+06
1.34377e+06
1.32511e+06
1.30743e+06
1.29019e+06
1.27337e+06
1.25713e+06
1.24161e+06
1.22666e+06
1.21229e+06
1.19852e+06
1.07631e+06
983504
972967
970991
968895
966644
964303
961814
959256
956588
953839
951033
948121
945190
942177
939117
936010
932832
929631
926388
923109
919811
916502
913128
909815
906308
902782
899421
895974
892543
876702
849464
823941
820012
816738
813464
810213
806966
803720
800490
797265
794053
790854
787669
784501
781344
778199
775075
771970
768897
765858
762853
759882
756940
754020
751129
748260
745420
742618
729575
714906
699602
685301
671889
668348
665887
663492
661008
658654
926872
1.61322e+06
1.57686e+06
1.52994e+06
1.48933e+06
1.44916e+06
1.41158e+06
1.47517e+06
1.61547e+06
1.63954e+06
1.60637e+06
1.57523e+06
1.54516e+06
1.51804e+06
1.49168e+06
1.46616e+06
1.44275e+06
1.42034e+06
1.39894e+06
1.37858e+06
1.35868e+06
1.33935e+06
1.32094e+06
1.30372e+06
1.2872e+06
1.27112e+06
1.25546e+06
1.24041e+06
1.22594e+06
1.21198e+06
1.19852e+06
1.06936e+06
980969
973472
971492
969410
967167
964832
962359
959787
957138
954363
951551
948637
945682
942672
939583
936461
933279
930051
926796
923506
920190
916840
913466
910053
906628
903170
899716
896237
874480
847071
827552
824259
820967
817699
814431
811174
807921
804679
801445
798219
795009
791804
788611
785440
782286
779157
776048
772961
769897
766850
763827
760834
757882
754971
752100
744923
730693
715005
699696
685803
676850
674332
671851
669366
666911
664507
661999
659599
917956
1.59495e+06
1.55917e+06
1.51318e+06
1.47347e+06
1.43487e+06
1.39796e+06
1.36375e+06
1.44556e+06
1.58077e+06
1.59246e+06
1.56224e+06
1.53326e+06
1.50699e+06
1.48165e+06
1.45708e+06
1.4345e+06
1.41271e+06
1.39177e+06
1.37202e+06
1.35305e+06
1.33468e+06
1.31689e+06
1.30007e+06
1.28399e+06
1.26841e+06
1.25327e+06
1.23865e+06
1.22465e+06
1.21118e+06
1.19818e+06
1.06356e+06
978930
973798
971810
969716
967477
965125
962674
960087
957443
954667
951834
948933
945952
942930
939831
936686
933496
930256
926983
923675
920346
916973
913570
910143
906701
903240
899763
872866
845276
831598
828301
825022
821739
818467
815199
811943
808688
805455
802230
799012
795804
792603
789417
786241
783077
779929
776804
773712
770652
767621
764614
761629
758664
746053
730951
715121
700255
686335
682765
680211
677660
675110
672598
670097
667648
665264
662786
660388
908496
1.57649e+06
1.54145e+06
1.49623e+06
1.45694e+06
1.41997e+06
1.38417e+06
1.35047e+06
1.31924e+06
1.40806e+06
1.53811e+06
1.5491e+06
1.52072e+06
1.49507e+06
1.47096e+06
1.4475e+06
1.42582e+06
1.40493e+06
1.38467e+06
1.36539e+06
1.34702e+06
1.3294e+06
1.31233e+06
1.29609e+06
1.28061e+06
1.26554e+06
1.25087e+06
1.23664e+06
1.22304e+06
1.20995e+06
1.19742e+06
1.05861e+06
977234
973924
971945
969831
967601
965221
962773
960180
957515
954753
951900
948994
946004
942962
939859
936697
933489
930235
926954
923625
920272
916889
913472
910029
906574
900855
871873
844064
835438
832148
828852
825563
822285
819016
815738
812476
809225
805991
802765
799549
796340
793145
789968
786810
783670
780541
777425
774327
771257
768214
761877
747187
731207
715438
700985
691171
688538
685933
683356
680801
678260
675724
673209
670679
668192
665781
663302
660909
898372
1.55717e+06
1.52337e+06
1.4793e+06
1.44035e+06
1.40424e+06
1.37004e+06
1.33707e+06
1.30648e+06
1.27773e+06
1.3631e+06
1.48811e+06
1.50829e+06
1.48329e+06
1.45991e+06
1.4372e+06
1.41628e+06
1.39641e+06
1.37712e+06
1.35858e+06
1.34079e+06
1.32377e+06
1.30734e+06
1.29167e+06
1.27683e+06
1.26238e+06
1.24828e+06
1.23446e+06
1.22126e+06
1.20845e+06
1.19639e+06
1.05456e+06
975722
973802
971852
969727
967505
965117
962650
960069
957378
954616
951757
948835
945834
942778
939665
936486
933266
929997
926700
923364
919990
916587
913166
909706
900915
871419
843518
839075
835785
832493
829212
825922
822632
819352
816082
812828
809579
806344
803117
799900
796692
793491
790300
787125
783968
780839
777741
774672
762916
747603
731361
715945
701560
696930
694273
691634
689005
686381
683768
681180
678625
676095
673599
671096
668622
666201
663701
661269
888138
1.53718e+06
1.50468e+06
1.46179e+06
1.4239e+06
1.3881e+06
1.35528e+06
1.32339e+06
1.29372e+06
1.26533e+06
1.23925e+06
1.31124e+06
1.43017e+06
1.47114e+06
1.44861e+06
1.42691e+06
1.40673e+06
1.3876e+06
1.36913e+06
1.35137e+06
1.33433e+06
1.31795e+06
1.3021e+06
1.2869e+06
1.27262e+06
1.25878e+06
1.24528e+06
1.23188e+06
1.21914e+06
1.20659e+06
1.19491e+06
1.05129e+06
974343
973468
971530
969399
967168
964802
962310
959731
957038
954262
951394
948462
945453
942376
939251
936061
932826
929549
926232
922881
919502
916080
912647
901371
871511
845738
842466
839181
835903
832621
829339
826050
822765
819475
816206
812954
809711
806478
803249
800039
796848
793668
790499
787333
784179
778792
763728
747578
731435
716492
705299
702569
699851
697153
694480
691829
689199
686586
683986
681397
678821
676260
673743
663416
643376
623381
604240
588507
877969
1.51669e+06
1.48562e+06
1.44367e+06
1.40716e+06
1.37195e+06
1.3398e+06
1.30921e+06
1.28067e+06
1.25307e+06
1.22727e+06
1.20378e+06
1.25149e+06
1.36572e+06
1.43731e+06
1.41617e+06
1.39662e+06
1.37831e+06
1.36073e+06
1.34376e+06
1.32749e+06
1.3118e+06
1.29659e+06
1.28186e+06
1.26803e+06
1.25473e+06
1.24195e+06
1.22903e+06
1.21669e+06
1.20449e+06
1.19299e+06
1.04859e+06
973030
972960
970998
968876
966618
964261
961765
959172
956479
953697
950814
947863
944857
941765
938617
935424
932176
928885
925556
922183
918792
915365
902404
872147
848878
845631
842380
839103
835823
832539
829259
825968
822687
819403
816140
812878
809629
806388
803157
799942
796733
793539
790367
779397
763973
747468
731641
713560
687838
665627
643787
622329
601267
580609
560363
540553
521211
502358
484015
466206
448956
432283
414931
397914
383354
369074
356045
342800
868069
1.49585e+06
1.46613e+06
1.42529e+06
1.38996e+06
1.35584e+06
1.32426e+06
1.29438e+06
1.26722e+06
1.24059e+06
1.21543e+06
1.19243e+06
1.17038e+06
1.18529e+06
1.29468e+06
1.3919e+06
1.38657e+06
1.36885e+06
1.35195e+06
1.33565e+06
1.32011e+06
1.30522e+06
1.29073e+06
1.27658e+06
1.26327e+06
1.25041e+06
1.23825e+06
1.22602e+06
1.2141e+06
1.2024e+06
1.19093e+06
1.04651e+06
971665
972261
970263
968149
965877
963498
961006
958407
955698
952903
950026
947055
944029
940939
937774
934564
931308
927995
924656
921279
917870
904019
873294
851779
848558
845308
842052
838790
835526
832242
828961
825673
804983
780482
756288
732396
708836
685617
662758
640267
616851
583872
550315
517179
486373
459236
440716
421667
405222
389209
374044
359797
346543
334358
323317
313495
304960
297773
291984
287632
284732
283278
283235
283566
282980
282340
281763
281118
858331
1.47484e+06
1.44599e+06
1.40664e+06
1.37232e+06
1.33937e+06
1.3089e+06
1.27943e+06
1.25296e+06
1.22793e+06
1.2036e+06
1.18111e+06
1.1596e+06
1.13963e+06
1.12915e+06
1.21739e+06
1.32035e+06
1.35917e+06
1.34311e+06
1.32753e+06
1.31253e+06
1.29829e+06
1.28459e+06
1.27105e+06
1.25821e+06
1.24577e+06
1.234e+06
1.22253e+06
1.21104e+06
1.20005e+06
1.18883e+06
1.04501e+06
970174
971336
969328
967196
964925
962531
960026
957420
954707
951889
949003
946037
942984
939881
936715
933484
911352
885741
860338
835172
799702
747363
706172
682444
659046
635995
613310
591027
569178
547785
526879
503945
482260
462602
443712
425533
408138
391593
371172
349512
330646
315828
303929
297393
293709
291704
291369
292245
291697
291143
290585
290022
289455
288883
288307
287729
287146
286561
285973
285382
284789
284197
283599
283004
282417
281778
281200
280559
848611
1.45382e+06
1.42535e+06
1.3874e+06
1.35437e+06
1.32237e+06
1.29321e+06
1.26481e+06
1.23868e+06
1.21419e+06
1.19122e+06
1.1699e+06
1.14905e+06
1.12949e+06
1.11136e+06
1.09403e+06
1.13478e+06
1.23303e+06
1.31428e+06
1.31904e+06
1.30466e+06
1.29093e+06
1.27792e+06
1.26516e+06
1.25287e+06
1.24097e+06
1.22934e+06
1.21847e+06
1.2074e+06
1.19697e+06
1.18639e+06
1.03188e+06
933932
912644
887818
863083
838459
813995
789683
765544
741624
717924
694469
671312
648447
625914
603764
578115
552922
531108
510238
481617
439909
409972
393202
377410
362686
349137
336879
326029
316693
308972
302950
298697
297823
297477
297119
296643
295097
293983
294121
294798
295356
294849
294335
293815
293288
292755
292214
291668
291117
290561
290001
289435
288865
288290
287713
287133
286550
285964
285375
284784
284192
283599
283002
282408
281821
281185
280605
279701
838913
1.43285e+06
1.40467e+06
1.36765e+06
1.33611e+06
1.30482e+06
1.27685e+06
1.24975e+06
1.22462e+06
1.20081e+06
1.17825e+06
1.15784e+06
1.13806e+06
1.11926e+06
1.10103e+06
1.0674e+06
1.03441e+06
1.01453e+06
1.06632e+06
1.13747e+06
1.16983e+06
1.14235e+06
1.10959e+06
1.0775e+06
1.04584e+06
1.01492e+06
984040
954134
924557
895652
878398
669077
557024
534791
514161
494003
474364
455312
436937
419295
402480
386607
371757
358057
345632
334591
325054
317133
316026
316017
312277
303355
300639
300452
300247
300027
299792
299542
299278
298999
298707
298401
298081
297750
297406
296274
294985
294426
295304
295735
295790
295293
294786
294274
293756
293231
292699
292159
291613
291062
290505
289945
289381
288813
288242
287666
287087
286505
285920
285332
284742
284152
283560
282967
282370
281776
281189
280555
279338
286554
828972
1.40916e+06
1.3698e+06
1.32044e+06
1.27726e+06
1.2337e+06
1.19277e+06
1.15325e+06
1.11564e+06
1.07918e+06
1.04403e+06
1.01147e+06
980053
951045
949095
948165
923392
900388
879257
860185
900956
952022
947359
923843
900908
879487
859075
839775
821895
805255
789957
472903
309222
311783
312325
312825
313279
313692
314074
314414
314708
314961
315178
315356
315498
315602
315667
315695
315687
312792
303460
300534
300341
300135
299914
299677
299427
299163
298885
298594
298288
297971
297535
295966
294981
295300
296066
296680
296196
295704
295205
294698
294184
293664
293138
292605
292068
291523
290974
290419
289859
289295
288727
288156
287582
287006
286426
285843
285257
284668
284077
283486
282894
282302
281706
281112
280525
279425
282156
300741
741853
1.37433e+06
1.36713e+06
1.32408e+06
1.28723e+06
1.25191e+06
1.21928e+06
1.18856e+06
1.16114e+06
1.13574e+06
1.11191e+06
1.09105e+06
1.07232e+06
1.05566e+06
1.04045e+06
1.01591e+06
992356
969968
948751
928631
909250
868116
885090
913557
890904
871812
854235
836951
820185
804001
754062
429847
311559
312077
312560
312996
313382
313754
314084
314372
314623
314830
315004
315144
315249
315317
315346
315340
313634
303730
300409
300211
300000
299775
299535
299282
299016
298737
298445
298141
297003
295734
295433
296508
296945
297049
296571
296084
295590
295090
294583
294070
293548
293021
292488
291949
291403
290852
290298
289740
289177
288610
288040
287466
286890
286310
285727
285143
284557
283968
283378
282787
282194
281603
281007
280415
279585
281429
294879
299842
902278
1.48442e+06
1.44614e+06
1.39998e+06
1.35918e+06
1.3196e+06
1.28249e+06
1.24639e+06
1.21245e+06
1.18016e+06
1.14887e+06
1.11955e+06
1.09161e+06
1.06488e+06
1.03906e+06
1.01445e+06
990889
968504
947184
927032
907680
889029
871001
831200
841721
868098
852736
834097
817733
801409
696299
393018
311896
312345
312763
313160
313471
313762
314058
314294
314495
314659
314791
314892
314957
314987
314984
314487
304192
300272
300067
299848
299615
299371
299114
298845
298563
298123
296570
295775
296368
297225
297867
297398
296924
296441
295951
295453
294949
294439
293923
293401
292873
292339
291800
291255
290704
290149
289590
289027
288459
287890
287318
286743
286165
285583
284998
284412
283824
283235
282645
282054
281462
280870
280274
279633
280715
294590
294008
298906
925571
1.48188e+06
1.44379e+06
1.39795e+06
1.3569e+06
1.31742e+06
1.28056e+06
1.24429e+06
1.21045e+06
1.17841e+06
1.14728e+06
1.11782e+06
1.08981e+06
1.06311e+06
1.03731e+06
1.01269e+06
989130
966805
945456
925294
905891
887271
869340
852013
835697
801384
795418
818199
818441
799108
641087
358745
312199
312581
312935
313248
313497
313771
314007
314185
314334
314453
314539
314596
314624
311995
307733
299174
298407
298823
299280
299780
300267
300697
301036
302823
306063
310359
315602
319751
320986
319824
318445
316881
315149
313274
311280
309197
307049
304863
302668
300489
298356
296298
294345
292525
290864
289410
288847
288279
287708
287135
286560
285982
285403
284820
284235
283648
283060
282470
281879
281288
280696
281322
283271
283584
292760
295491
298511
313313
928678
1.47919e+06
1.44098e+06
1.39556e+06
1.35446e+06
1.31483e+06
1.27828e+06
1.24244e+06
1.20833e+06
1.1761e+06
1.14514e+06
1.11582e+06
1.08789e+06
1.06127e+06
1.0355e+06
1.01086e+06
987269
965004
943648
923479
904062
885349
867407
850263
833927
818261
803416
777336
746569
765570
598039
329689
312467
312770
313060
313368
309491
303551
301702
303145
307237
313380
321004
329625
337286
344868
362260
387352
393402
397565
401160
404184
407800
418911
430164
441618
452042
460565
459208
457363
455051
452304
449135
445611
441724
437511
432986
428185
423130
417842
412347
406666
400825
394842
388743
382553
376304
370121
371007
378536
386025
393442
400752
407952
415031
421985
428796
435451
441935
448242
454376
460335
466860
474610
477743
475281
493417
512717
530920
550035
931925
1.47638e+06
1.43785e+06
1.39277e+06
1.35197e+06
1.31221e+06
1.27559e+06
1.23995e+06
1.20602e+06
1.17382e+06
1.14301e+06
1.11377e+06
1.08586e+06
1.05924e+06
1.03348e+06
1.00884e+06
985172
962973
941715
921481
902019
883416
865410
848184
832030
816392
801347
786974
773034
758984
468502
299439
308554
314908
325916
337758
385743
374763
393995
413356
432396
450879
468626
485529
501516
517001
534701
536341
533666
531072
535640
544285
553796
563441
571994
573725
571112
568543
566022
563546
561109
558707
556312
553959
571271
589603
607953
626297
644604
662859
681041
699167
717205
735154
752995
770722
788341
805706
816237
826260
834968
843340
851362
859044
866396
873447
880206
886682
892873
898791
904447
909839
914983
909534
898353
903689
906640
909454
911248
914843
935243
1.47337e+06
1.43448e+06
1.38976e+06
1.34912e+06
1.30923e+06
1.27266e+06
1.2374e+06
1.20364e+06
1.17133e+06
1.14044e+06
1.11125e+06
1.08345e+06
1.05689e+06
1.03115e+06
1.00659e+06
982981
966312
956516
947324
937982
928759
919504
909999
900474
890692
880521
869915
858988
784230
477135
425700
462281
487461
511771
535167
543655
534302
525289
522229
519620
517098
514662
512307
514838
532838
538151
537049
545441
554615
585879
617956
648244
668373
688438
708425
728322
748110
767791
787343
806781
826084
845255
865572
886663
905282
923627
941816
959851
977729
995460
1.01303e+06
1.03045e+06
1.04771e+06
1.06482e+06
1.08178e+06
1.0986e+06
1.11526e+06
1.12128e+06
1.11635e+06
1.11148e+06
1.10664e+06
1.10186e+06
1.09713e+06
1.09245e+06
1.0878e+06
1.0832e+06
1.07864e+06
1.07413e+06
1.06967e+06
1.06526e+06
1.06091e+06
1.0566e+06
1.05233e+06
1.04777e+06
1.04994e+06
1.04605e+06
1.04213e+06
1.03827e+06
1.03233e+06
938454
1.47007e+06
1.43108e+06
1.38612e+06
1.34592e+06
1.30653e+06
1.2696e+06
1.2342e+06
1.20065e+06
1.16857e+06
1.13779e+06
1.11379e+06
1.10607e+06
1.09972e+06
1.09388e+06
1.0886e+06
1.09448e+06
1.11065e+06
1.11346e+06
1.10428e+06
1.09486e+06
1.08519e+06
1.0752e+06
1.06476e+06
1.05422e+06
1.04314e+06
1.03145e+06
1.01924e+06
1.00655e+06
874813
593457
589423
585875
582431
579116
574102
564170
579180
596631
614019
631140
648200
666981
690178
735246
778343
812676
847648
882367
918483
947142
967650
987716
1.00759e+06
1.02727e+06
1.04675e+06
1.06604e+06
1.08512e+06
1.10402e+06
1.12269e+06
1.14121e+06
1.15946e+06
1.17774e+06
1.1958e+06
1.19124e+06
1.18567e+06
1.18012e+06
1.17463e+06
1.1692e+06
1.16381e+06
1.15849e+06
1.1532e+06
1.14796e+06
1.14277e+06
1.13762e+06
1.13253e+06
1.12748e+06
1.12248e+06
1.11753e+06
1.11263e+06
1.10778e+06
1.10295e+06
1.09818e+06
1.09347e+06
1.08881e+06
1.0842e+06
1.07964e+06
1.07511e+06
1.07063e+06
1.06619e+06
1.06181e+06
1.05747e+06
1.05319e+06
1.04894e+06
1.0446e+06
1.04555e+06
1.04297e+06
1.03906e+06
1.03522e+06
1.02934e+06
941480
1.46644e+06
1.42759e+06
1.38252e+06
1.34231e+06
1.30311e+06
1.26638e+06
1.23643e+06
1.23096e+06
1.22786e+06
1.23652e+06
1.27222e+06
1.29508e+06
1.28958e+06
1.2843e+06
1.27922e+06
1.27398e+06
1.25882e+06
1.23362e+06
1.20963e+06
1.18653e+06
1.16423e+06
1.14305e+06
1.1227e+06
1.10328e+06
1.08465e+06
1.09222e+06
1.10228e+06
1.10535e+06
884475
758994
787064
814662
841805
868463
894651
921379
948596
973303
990873
1.00784e+06
1.02474e+06
1.04332e+06
1.09329e+06
1.14317e+06
1.17315e+06
1.20357e+06
1.23501e+06
1.25522e+06
1.27515e+06
1.2704e+06
1.26412e+06
1.25789e+06
1.25172e+06
1.24559e+06
1.23951e+06
1.23348e+06
1.22751e+06
1.22159e+06
1.21571e+06
1.20987e+06
1.20411e+06
1.19655e+06
1.19273e+06
1.18709e+06
1.18153e+06
1.176e+06
1.17054e+06
1.16512e+06
1.15975e+06
1.15442e+06
1.14916e+06
1.14393e+06
1.13876e+06
1.13363e+06
1.12855e+06
1.12353e+06
1.11855e+06
1.11362e+06
1.10873e+06
1.1039e+06
1.09911e+06
1.09438e+06
1.08968e+06
1.08503e+06
1.08043e+06
1.07588e+06
1.07139e+06
1.06694e+06
1.06255e+06
1.0582e+06
1.05389e+06
1.04962e+06
1.0454e+06
1.04123e+06
1.03862e+06
1.03975e+06
1.03586e+06
1.03202e+06
1.02619e+06
944343
1.46236e+06
1.42382e+06
1.37872e+06
1.34678e+06
1.34431e+06
1.35591e+06
1.40828e+06
1.44759e+06
1.44557e+06
1.44464e+06
1.43543e+06
1.40236e+06
1.37085e+06
1.34049e+06
1.31139e+06
1.28355e+06
1.27262e+06
1.28163e+06
1.29184e+06
1.30323e+06
1.31536e+06
1.32818e+06
1.34177e+06
1.35592e+06
1.3889e+06
1.4226e+06
1.43708e+06
1.39556e+06
1.13719e+06
1.1332e+06
1.16117e+06
1.18846e+06
1.21513e+06
1.24117e+06
1.26664e+06
1.29153e+06
1.28803e+06
1.2818e+06
1.2756e+06
1.27691e+06
1.28414e+06
1.30437e+06
1.33186e+06
1.33283e+06
1.32513e+06
1.31348e+06
1.3018e+06
1.28983e+06
1.27808e+06
1.26653e+06
1.2599e+06
1.25367e+06
1.24747e+06
1.24134e+06
1.23525e+06
1.22922e+06
1.22324e+06
1.21731e+06
1.21146e+06
1.20564e+06
1.19996e+06
1.19411e+06
1.18831e+06
1.18277e+06
1.1772e+06
1.17171e+06
1.16626e+06
1.16085e+06
1.1555e+06
1.1502e+06
1.14493e+06
1.13971e+06
1.13455e+06
1.12945e+06
1.12441e+06
1.1194e+06
1.11444e+06
1.10952e+06
1.10466e+06
1.09985e+06
1.09509e+06
1.09039e+06
1.08573e+06
1.08111e+06
1.07654e+06
1.07201e+06
1.06753e+06
1.0631e+06
1.05873e+06
1.0544e+06
1.05013e+06
1.0459e+06
1.0417e+06
1.03756e+06
1.0328e+06
1.01345e+06
974215
936388
898458
946956
1.4577e+06
1.45217e+06
1.4697e+06
1.53766e+06
1.58676e+06
1.58885e+06
1.5836e+06
1.54346e+06
1.50521e+06
1.46885e+06
1.46473e+06
1.47529e+06
1.48749e+06
1.5011e+06
1.51576e+06
1.54413e+06
1.58728e+06
1.61708e+06
1.63177e+06
1.64682e+06
1.66237e+06
1.67802e+06
1.694e+06
1.7102e+06
1.72621e+06
1.71101e+06
1.69431e+06
1.58691e+06
1.34562e+06
1.32905e+06
1.32263e+06
1.31621e+06
1.30981e+06
1.30342e+06
1.29707e+06
1.29078e+06
1.28449e+06
1.29119e+06
1.29888e+06
1.30702e+06
1.32207e+06
1.35416e+06
1.35406e+06
1.3473e+06
1.34059e+06
1.33211e+06
1.31985e+06
1.30782e+06
1.29601e+06
1.28494e+06
1.27412e+06
1.2629e+06
1.25185e+06
1.24099e+06
1.23079e+06
1.22475e+06
1.21876e+06
1.21283e+06
1.20696e+06
1.20113e+06
1.19536e+06
1.18962e+06
1.18394e+06
1.17834e+06
1.17277e+06
1.16727e+06
1.16182e+06
1.15642e+06
1.15108e+06
1.14579e+06
1.14054e+06
1.13534e+06
1.1302e+06
1.12512e+06
1.12009e+06
1.1151e+06
1.11015e+06
1.10526e+06
1.10043e+06
1.09564e+06
1.0909e+06
1.08621e+06
1.08157e+06
1.07699e+06
1.07245e+06
1.04746e+06
1.00538e+06
966269
937705
909627
882017
854862
828160
801890
774562
761665
741562
718200
699340
1.02154e+06
1.61251e+06
1.69987e+06
1.72129e+06
1.71493e+06
1.66844e+06
1.6394e+06
1.65214e+06
1.66746e+06
1.68483e+06
1.73108e+06
1.78719e+06
1.81515e+06
1.83253e+06
1.85057e+06
1.86893e+06
1.88802e+06
1.88773e+06
1.86474e+06
1.8428e+06
1.82133e+06
1.80076e+06
1.7809e+06
1.76155e+06
1.74301e+06
1.72502e+06
1.70748e+06
1.68493e+06
1.4706e+06
1.33226e+06
1.32574e+06
1.31922e+06
1.31272e+06
1.30626e+06
1.29984e+06
1.29778e+06
1.30503e+06
1.3133e+06
1.32166e+06
1.32875e+06