/*--------------------------------*- C++ -*----------------------------------*\
| =========                 |                                                 |
| \\      /  F ield         | foam-extend: Open Source CFD                    |
|  \\    /   O peration     | Version:     4.1                                |
|   \\  /    A nd           | Web:         http://www.foam-extend.org         |
|    \\/     M anipulation  |                                                 |
\*---------------------------------------------------------------------------*/
FoamFile
{
    version     2.0;
    format      ascii;
    class       regIOobject;
    location    "2/uniform";
    object      profilingInfo;
}
// * * * * * * * * * * * * * * * * * * * * * * * * * * * * * * * * * * * * * //

profilingInfo
(

    {
        id              9;
        parentId        8;
        description     "Foam::Time::writeObject - outputTime";
        calls           2;
        totalTime       1.7008;
        childTime       0;
        onStack         1;
    }

    {
        id              8;
        parentId        1;
        description     "Foam::Time::writeObject";
        calls           2;
        totalTime       1.70099;
        childTime       1.7008;
        onStack         1;
    }

    {
        id              1;
        description     "application::main";
        calls           1;
        totalTime       302.323;
        childTime       257.606;
        onStack         1;
    }

    {
        id              10;
        parentId        1;
        description     "FO::forceDisp1::execute";
        calls           1;
        totalTime       3.2e-05;
        childTime       0;
        onStack         0;
    }

    {
        id              3;
        parentId        2;
        description     "FO::forceDisp1::start";
        calls           1;
        totalTime       3.7e-05;
        childTime       0;
        onStack         0;
    }

    {
        id              11;
        parentId        1;
        description     "FO::pointDisp::execute";
        calls           1;
        totalTime       1.4e-05;
        childTime       0;
        onStack         0;
    }

    {
        id              4;
        parentId        2;
        description     "FO::pointDisp::start";
        calls           1;
        totalTime       5e-06;
        childTime       0;
        onStack         0;
    }

    {
        id              2;
        parentId        1;
        description     "functionObjectList::read";
        calls           1;
        totalTime       0.001481;
        childTime       4.2e-05;
        onStack         0;
    }

    {
        id              5;
        parentId        1;
        description     "fvMatrix::solve_D";
        calls           446;
        totalTime       255.904;
        childTime       254.913;
        onStack         0;
    }

    {
        id              6;
        parentId        5;
        description     "lduMatrix::solver_Dx";
        calls           446;
        totalTime       115.303;
        childTime       0;
        onStack         0;
    }

    {
        id              7;
        parentId        5;
        description     "lduMatrix::solver_Dy";
        calls           446;
        totalTime       139.611;
        childTime       0;
        onStack         0;
    }
);


// ************************************************************************* //
