/*--------------------------------*- C++ -*----------------------------------*\
| =========                 |                                                 |
| \\      /  F ield         | foam-extend: Open Source CFD                    |
|  \\    /   O peration     | Version:     4.1                                |
|   \\  /    A nd           | Web:         http://www.foam-extend.org         |
|    \\/     M anipulation  |                                                 |
\*---------------------------------------------------------------------------*/
FoamFile
{
    version     2.0;
    format      ascii;
    class       volVectorField;
    location    "8";
    object      D;
}
// * * * * * * * * * * * * * * * * * * * * * * * * * * * * * * * * * * * * * //

dimensions      [0 1 0 0 0 0 0];

internalField   nonuniform List<vector> 
1000
(
(4.26003e-06 -1.87922e-06 0)
(4.01153e-06 -1.74486e-06 0)
(3.85123e-06 -1.65793e-06 0)
(3.75772e-06 -1.61512e-06 0)
(3.71004e-06 -1.59731e-06 0)
(3.69576e-06 -1.5989e-06 0)
(3.70601e-06 -1.61306e-06 0)
(3.73487e-06 -1.63647e-06 0)
(3.77728e-06 -1.66626e-06 0)
(3.83155e-06 -1.70051e-06 0)
(3.85071e-06 -2.05236e-06 0)
(3.58605e-06 -1.95705e-06 0)
(3.41573e-06 -1.89473e-06 0)
(3.31494e-06 -1.8686e-06 0)
(3.26178e-06 -1.86179e-06 0)
(3.24269e-06 -1.87116e-06 0)
(3.24842e-06 -1.8909e-06 0)
(3.27257e-06 -1.91844e-06 0)
(3.31001e-06 -1.95182e-06 0)
(3.35791e-06 -1.9879e-06 0)
(3.42578e-06 -2.2165e-06 0)
(3.15544e-06 -2.16488e-06 0)
(2.98177e-06 -2.13014e-06 0)
(2.87794e-06 -2.12253e-06 0)
(2.82188e-06 -2.12783e-06 0)
(2.79948e-06 -2.14557e-06 0)
(2.80145e-06 -2.17117e-06 0)
(2.82124e-06 -2.20294e-06 0)
(2.85375e-06 -2.23974e-06 0)
(2.89592e-06 -2.27827e-06 0)
(2.98845e-06 -2.36873e-06 0)
(2.72363e-06 -2.363e-06 0)
(2.55375e-06 -2.35728e-06 0)
(2.45141e-06 -2.36906e-06 0)
(2.39525e-06 -2.38697e-06 0)
(2.37122e-06 -2.41338e-06 0)
(2.37039e-06 -2.44491e-06 0)
(2.38626e-06 -2.48095e-06 0)
(2.41414e-06 -2.52101e-06 0)
(2.45064e-06 -2.5621e-06 0)
(2.54153e-06 -2.5061e-06 0)
(2.2936e-06 -2.54589e-06 0)
(2.13471e-06 -2.56898e-06 0)
(2.03846e-06 -2.59993e-06 0)
(1.985e-06 -2.63027e-06 0)
(1.96106e-06 -2.66516e-06 0)
(1.95837e-06 -2.70245e-06 0)
(1.97082e-06 -2.74264e-06 0)
(1.99424e-06 -2.78577e-06 0)
(2.02515e-06 -2.82949e-06 0)
(2.08745e-06 -2.62572e-06 0)
(1.86728e-06 -2.70814e-06 0)
(1.72629e-06 -2.75822e-06 0)
(1.64053e-06 -2.8071e-06 0)
(1.5925e-06 -2.84903e-06 0)
(1.57029e-06 -2.89183e-06 0)
(1.56667e-06 -2.93443e-06 0)
(1.57615e-06 -2.97846e-06 0)
(1.59523e-06 -3.02438e-06 0)
(1.62053e-06 -3.07065e-06 0)
(1.62818e-06 -2.72497e-06 0)
(1.4456e-06 -2.84474e-06 0)
(1.32875e-06 -2.91848e-06 0)
(1.25746e-06 -2.98305e-06 0)
(1.21728e-06 -3.03512e-06 0)
(1.1983e-06 -3.08481e-06 0)
(1.19456e-06 -3.13205e-06 0)
(1.20147e-06 -3.17945e-06 0)
(1.21627e-06 -3.22777e-06 0)
(1.23595e-06 -3.27634e-06 0)
(1.16535e-06 -2.80153e-06 0)
(1.02862e-06 -2.9513e-06 0)
(9.41149e-07 -3.04406e-06 0)
(8.87667e-07 -3.12123e-06 0)
(8.57392e-07 -3.18144e-06 0)
(8.42871e-07 -3.23667e-06 0)
(8.39682e-07 -3.28761e-06 0)
(8.44361e-07 -3.33773e-06 0)
(8.54912e-07 -3.38797e-06 0)
(8.6896e-07 -3.43846e-06 0)
(7.0022e-07 -2.85359e-06 0)
(6.15571e-07 -3.02435e-06 0)
(5.61407e-07 -3.13042e-06 0)
(5.28237e-07 -3.21639e-06 0)
(5.09402e-07 -3.2823e-06 0)
(5.00277e-07 -3.3414e-06 0)
(4.98137e-07 -3.39494e-06 0)
(5.00828e-07 -3.44696e-06 0)
(5.07144e-07 -3.49854e-06 0)
(5.15564e-07 -3.55041e-06 0)
(2.3385e-07 -2.87981e-06 0)
(2.05158e-07 -3.06141e-06 0)
(1.86778e-07 -3.17435e-06 0)
(1.75499e-07 -3.26488e-06 0)
(1.69072e-07 -3.33374e-06 0)
(1.65932e-07 -3.39484e-06 0)
(1.65158e-07 -3.44972e-06 0)
(1.66017e-07 -3.50274e-06 0)
(1.68107e-07 -3.55502e-06 0)
(1.70902e-07 -3.60761e-06 0)
(6.66455e-06 -8.58977e-08 0)
(6.72668e-06 -6.18294e-08 0)
(6.76253e-06 -4.64743e-08 0)
(6.80045e-06 -3.73456e-08 0)
(6.84091e-06 -3.21617e-08 0)
(6.89078e-06 -2.96262e-08 0)
(6.94987e-06 -2.8872e-08 0)
(7.01918e-06 -2.92859e-08 0)
(7.09843e-06 -3.0538e-08 0)
(7.18661e-06 -3.20771e-08 0)
(6.61478e-06 -2.57636e-07 0)
(6.66658e-06 -1.86838e-07 0)
(6.69594e-06 -1.41768e-07 0)
(6.72954e-06 -1.15045e-07 0)
(6.76717e-06 -9.99306e-08 0)
(6.81502e-06 -9.26064e-08 0)
(6.87266e-06 -9.05154e-08 0)
(6.94077e-06 -9.18592e-08 0)
(7.01905e-06 -9.56524e-08 0)
(7.10613e-06 -1.00299e-07 0)
(6.5154e-06 -4.30852e-07 0)
(6.54751e-06 -3.17135e-07 0)
(6.5644e-06 -2.44792e-07 0)
(6.58973e-06 -2.02012e-07 0)
(6.62191e-06 -1.77909e-07 0)
(6.6659e-06 -1.66363e-07 0)
(6.72074e-06 -1.6324e-07 0)
(6.78655e-06 -1.6567e-07 0)
(6.86295e-06 -1.72021e-07 0)
(6.9479e-06 -1.7981e-07 0)
(6.36822e-06 -6.06202e-07 0)
(6.37232e-06 -4.5571e-07 0)
(6.37148e-06 -3.59946e-07 0)
(6.38505e-06 -3.03541e-07 0)
(6.40946e-06 -2.71927e-07 0)
(6.44794e-06 -2.5705e-07 0)
(6.49878e-06 -2.53368e-07 0)
(6.56132e-06 -2.57125e-07 0)
(6.63501e-06 -2.66056e-07 0)
(6.71699e-06 -2.77039e-07 0)
(6.17561e-06 -7.84168e-07 0)
(6.14507e-06 -6.05046e-07 0)
(6.12229e-06 -4.90992e-07 0)
(6.1213e-06 -4.24198e-07 0)
(6.1361e-06 -3.87041e-07 0)
(6.16775e-06 -3.70023e-07 0)
(6.2136e-06 -3.66428e-07 0)
(6.27207e-06 -3.71841e-07 0)
(6.34238e-06 -3.83401e-07 0)
(6.4207e-06 -3.97634e-07 0)
(5.94058e-06 -9.648e-07 0)
(5.87082e-06 -7.66714e-07 0)
(5.82323e-06 -6.40459e-07 0)
(5.80576e-06 -5.67117e-07 0)
(5.80962e-06 -5.26756e-07 0)
(5.83349e-06 -5.09009e-07 0)
(5.87362e-06 -5.06267e-07 0)
(5.92742e-06 -5.13725e-07 0)
(5.99378e-06 -5.27981e-07 0)
(6.06799e-06 -5.45515e-07 0)
(5.66661e-06 -1.14775e-06 0)
(5.55547e-06 -9.41354e-07 0)
(5.4817e-06 -8.09625e-07 0)
(5.44679e-06 -7.33982e-07 0)
(5.43905e-06 -6.93013e-07 0)
(5.45461e-06 -6.76106e-07 0)
(5.48857e-06 -6.75094e-07 0)
(5.53733e-06 -6.85041e-07 0)
(5.59932e-06 -7.02136e-07 0)
(5.66917e-06 -7.23021e-07 0)
(5.35752e-06 -1.33219e-06 0)
(5.20534e-06 -1.12852e-06 0)
(5.10564e-06 -9.98297e-07 0)
(5.05337e-06 -9.24759e-07 0)
(5.03402e-06 -8.85868e-07 0)
(5.04115e-06 -8.71421e-07 0)
(5.06874e-06 -8.73031e-07 0)
(5.11228e-06 -8.85942e-07 0)
(5.16957e-06 -9.06016e-07 0)
(5.23497e-06 -9.30392e-07 0)
(5.01735e-06 -1.51682e-06 0)
(4.82704e-06 -1.32669e-06 0)
(4.70328e-06 -1.20483e-06 0)
(4.63483e-06 -1.13772e-06 0)
(4.60454e-06 -1.10356e-06 0)
(4.60363e-06 -1.09314e-06 0)
(4.62496e-06 -1.09829e-06 0)
(4.66331e-06 -1.11457e-06 0)
(4.71567e-06 -1.13801e-06 0)
(4.77679e-06 -1.16594e-06 0)
(4.65017e-06 -1.69989e-06 0)
(4.42704e-06 -1.53332e-06 0)
(4.28261e-06 -1.42617e-06 0)
(4.20009e-06 -1.36949e-06 0)
(4.16012e-06 -1.34247e-06 0)
(4.15186e-06 -1.3375e-06 0)
(4.16722e-06 -1.34689e-06 0)
(4.20041e-06 -1.3669e-06 0)
(4.24765e-06 -1.39362e-06 0)
(4.30466e-06 -1.42601e-06 0)
(7.28407e-06 -3.36515e-08 0)
(7.39045e-06 -3.38328e-08 0)
(7.50374e-06 -3.41322e-08 0)
(7.62356e-06 -3.43085e-08 0)
(7.74912e-06 -3.43214e-08 0)
(7.87991e-06 -3.41579e-08 0)
(8.01532e-06 -3.37753e-08 0)
(8.15486e-06 -3.31683e-08 0)
(8.29802e-06 -3.23123e-08 0)
(8.44431e-06 -3.11952e-08 0)
(8.59329e-06 -2.97955e-08 0)
(8.74448e-06 -2.80926e-08 0)
(8.89745e-06 -2.60583e-08 0)
(9.05168e-06 -2.36605e-08 0)
(9.20676e-06 -2.08573e-08 0)
(9.36201e-06 -1.76008e-08 0)
(9.51713e-06 -1.38268e-08 0)
(9.67094e-06 -9.46833e-09 0)
(9.82375e-06 -4.41465e-09 0)
(9.97269e-06 1.37814e-09 0)
(7.20721e-06 -1.04652e-07 0)
(7.32007e-06 -1.04691e-07 0)
(7.43915e-06 -1.05126e-07 0)
(7.56398e-06 -1.05282e-07 0)
(7.694e-06 -1.05001e-07 0)
(7.82872e-06 -1.04251e-07 0)
(7.96767e-06 -1.02888e-07 0)
(8.11038e-06 -1.00892e-07 0)
(8.25641e-06 -9.81816e-08 0)
(8.40533e-06 -9.47166e-08 0)
(8.55672e-06 -9.04277e-08 0)
(8.71014e-06 -8.52493e-08 0)
(8.86519e-06 -7.90941e-08 0)
(9.02138e-06 -7.18629e-08 0)
(9.17831e-06 -6.34285e-08 0)
(9.33533e-06 -5.36451e-08 0)
(9.49215e-06 -4.23192e-08 0)
(9.64761e-06 -2.92484e-08 0)
(9.80205e-06 -1.41003e-08 0)
(9.95261e-06 3.25752e-09 0)
(7.05603e-06 -1.85812e-07 0)
(7.18159e-06 -1.84259e-07 0)
(7.312e-06 -1.8352e-07 0)
(7.44664e-06 -1.82654e-07 0)
(7.58541e-06 -1.81237e-07 0)
(7.72784e-06 -1.79233e-07 0)
(7.87373e-06 -1.76343e-07 0)
(8.02267e-06 -1.72521e-07 0)
(8.17436e-06 -1.67607e-07 0)
(8.32844e-06 -1.61516e-07 0)
(8.48458e-06 -1.5412e-07 0)
(8.6424e-06 -1.45299e-07 0)
(8.80155e-06 -1.34898e-07 0)
(8.96159e-06 -1.22745e-07 0)
(9.12216e-06 -1.08621e-07 0)
(9.28266e-06 -9.22785e-08 0)
(9.44284e-06 -7.33891e-08 0)
(9.60157e-06 -5.16122e-08 0)
(9.75921e-06 -2.63908e-08 0)
(9.91298e-06 2.50143e-09 0)
(6.83517e-06 -2.82939e-07 0)
(6.97896e-06 -2.77535e-07 0)
(7.12577e-06 -2.73541e-07 0)
(7.27461e-06 -2.70063e-07 0)
(7.42611e-06 -2.66168e-07 0)
(7.57979e-06 -2.61844e-07 0)
(7.73582e-06 -2.56559e-07 0)
(7.89386e-06 -2.50218e-07 0)
(8.05384e-06 -2.42546e-07 0)
(8.21549e-06 -2.33395e-07 0)
(8.37859e-06 -2.22556e-07 0)
(8.54286e-06 -2.09839e-07 0)
(8.70802e-06 -1.95009e-07 0)
(8.87371e-06 -1.7781e-07 0)
(9.03963e-06 -1.57921e-07 0)
(9.20523e-06 -1.34986e-07 0)
(9.37032e-06 -1.08535e-07 0)
(9.53382e-06 -7.80812e-08 0)
(9.69616e-06 -4.28364e-08 0)
(9.85462e-06 -2.46544e-09 0)
(6.55132e-06 -4.01209e-07 0)
(6.71793e-06 -3.89045e-07 0)
(6.88552e-06 -3.79097e-07 0)
(7.05239e-06 -3.70922e-07 0)
(7.22015e-06 -3.62802e-07 0)
(7.38824e-06 -3.54751e-07 0)
(7.55728e-06 -3.45928e-07 0)
(7.72706e-06 -3.36143e-07 0)
(7.89773e-06 -3.24973e-07 0)
(8.06914e-06 -3.1217e-07 0)
(8.24124e-06 -2.97427e-07 0)
(8.41383e-06 -2.80458e-07 0)
(8.58676e-06 -2.60937e-07 0)
(8.75975e-06 -2.38506e-07 0)
(8.93257e-06 -2.12738e-07 0)
(9.10475e-06 -1.83153e-07 0)
(9.27617e-06 -1.49134e-07 0)
(9.44584e-06 -1.10042e-07 0)
(9.61423e-06 -6.4852e-08 0)
(9.77876e-06 -1.31059e-08 0)
(6.21263e-06 -5.4427e-07 0)
(6.40552e-06 -5.21994e-07 0)
(6.59736e-06 -5.02945e-07 0)
(6.7854e-06 -4.8756e-07 0)
(6.97239e-06 -4.73127e-07 0)
(7.15762e-06 -4.5963e-07 0)
(7.3422e-06 -4.45887e-07 0)
(7.52603e-06 -4.31536e-07 0)
(7.70952e-06 -4.15983e-07 0)
(7.89267e-06 -3.98831e-07 0)
(8.07558e-06 -3.79648e-07 0)
(8.2582e-06 -3.58028e-07 0)
(8.44048e-06 -3.3353e-07 0)
(8.62223e-06 -3.05683e-07 0)
(8.80334e-06 -2.73932e-07 0)
(8.98343e-06 -2.3767e-07 0)
(9.16244e-06 -1.96119e-07 0)
(9.3395e-06 -1.4848e-07 0)
(9.51515e-06 -9.34861e-08 0)
(9.68696e-06 -3.05398e-08 0)
(5.82858e-06 -7.14486e-07 0)
(6.04992e-06 -6.78657e-07 0)
(6.26848e-06 -6.47349e-07 0)
(6.48004e-06 -6.22074e-07 0)
(6.68854e-06 -5.99165e-07 0)
(6.8931e-06 -5.78374e-07 0)
(7.09525e-06 -5.58224e-07 0)
(7.29506e-06 -5.38068e-07 0)
(7.49316e-06 -5.17127e-07 0)
(7.68972e-06 -4.9481e-07 0)
(7.88501e-06 -4.70537e-07 0)
(8.0791e-06 -4.4376e-07 0)
(8.27209e-06 -4.13905e-07 0)
(8.46389e-06 -3.80372e-07 0)
(8.65449e-06 -3.42472e-07 0)
(8.84362e-06 -2.99456e-07 0)
(9.03132e-06 -2.50383e-07 0)
(9.21683e-06 -1.94288e-07 0)
(9.40076e-06 -1.29665e-07 0)
(9.58091e-06 -5.57722e-08 0)
(5.4089e-06 -9.12234e-07 0)
(5.65953e-06 -8.59175e-07 0)
(5.90603e-06 -8.12509e-07 0)
(6.14274e-06 -7.74379e-07 0)
(6.37433e-06 -7.4068e-07 0)
(6.59995e-06 -7.10571e-07 0)
(6.82133e-06 -6.82403e-07 0)
(7.03874e-06 -6.55136e-07 0)
(7.25297e-06 -6.27787e-07 0)
(7.46438e-06 -5.99519e-07 0)
(7.67337e-06 -5.69568e-07 0)
(7.88019e-06 -5.3721e-07 0)
(8.08502e-06 -5.01714e-07 0)
(8.28794e-06 -4.6233e-07 0)
(8.48904e-06 -4.18221e-07 0)
(8.68815e-06 -3.68486e-07 0)
(8.88542e-06 -3.12014e-07 0)
(9.08024e-06 -2.47674e-07 0)
(9.2733e-06 -1.73718e-07 0)
(9.46265e-06 -8.92495e-08 0)
(4.96419e-06 -1.13718e-06 0)
(5.24398e-06 -1.06372e-06 0)
(5.51826e-06 -9.99706e-07 0)
(5.78087e-06 -9.46219e-07 0)
(6.0362e-06 -8.99772e-07 0)
(6.28387e-06 -8.5855e-07 0)
(6.52544e-06 -8.20812e-07 0)
(6.76151e-06 -7.8509e-07 0)
(6.99291e-06 -7.50171e-07 0)
(7.22022e-06 -7.14971e-07 0)
(7.44394e-06 -6.78527e-07 0)
(7.66446e-06 -6.39928e-07 0)
(7.88209e-06 -5.98277e-07 0)
(8.09702e-06 -5.52664e-07 0)
(8.30944e-06 -5.02095e-07 0)
(8.51933e-06 -4.45514e-07 0)
(8.72692e-06 -3.81639e-07 0)
(8.93177e-06 -3.09174e-07 0)
(9.13466e-06 -2.26155e-07 0)
(9.33394e-06 -1.31544e-07 0)
(4.50261e-06 -1.38501e-06 0)
(4.81067e-06 -1.28715e-06 0)
(5.11105e-06 -1.20381e-06 0)
(5.4e-06 -1.13249e-06 0)
(5.67961e-06 -1.07112e-06 0)
(5.95029e-06 -1.01705e-06 0)
(6.21309e-06 -9.68336e-07 0)
(6.46884e-06 -9.2313e-07 0)
(6.7184e-06 -8.79889e-07 0)
(6.96248e-06 -8.37242e-07 0)
(7.20173e-06 -7.93968e-07 0)
(7.43668e-06 -7.48939e-07 0)
(7.66776e-06 -7.0106e-07 0)
(7.89528e-06 -6.49249e-07 0)
(8.11958e-06 -5.92344e-07 0)
(8.34074e-06 -5.29134e-07 0)
(8.55911e-06 -4.5817e-07 0)
(8.77444e-06 -3.77998e-07 0)
(8.98758e-06 -2.86443e-07 0)
(9.19727e-06 -1.82305e-07 0)
(4.1648e-06 -1.61799e-06 0)
(4.48976e-06 -1.50171e-06 0)
(4.80447e-06 -1.40473e-06 0)
(5.10846e-06 -1.31994e-06 0)
(5.40253e-06 -1.24596e-06 0)
(5.68722e-06 -1.18022e-06 0)
(5.96341e-06 -1.12074e-06 0)
(6.23182e-06 -1.06568e-06 0)
(6.49326e-06 -1.01339e-06 0)
(6.74843e-06 -9.62387e-07 0)
(6.99798e-06 -9.1134e-07 0)
(7.24245e-06 -8.58991e-07 0)
(7.48236e-06 -8.0413e-07 0)
(7.71808e-06 -7.45561e-07 0)
(7.95e-06 -6.82025e-07 0)
(8.17834e-06 -6.12219e-07 0)
(8.40353e-06 -5.34622e-07 0)
(8.6255e-06 -4.4772e-07 0)
(8.84516e-06 -3.49289e-07 0)
(9.06162e-06 -2.3811e-07 0)
(3.96913e-06 -1.80472e-06 0)
(4.296e-06 -1.68417e-06 0)
(4.61307e-06 -1.57983e-06 0)
(4.92066e-06 -1.48706e-06 0)
(5.21894e-06 -1.40453e-06 0)
(5.50827e-06 -1.33015e-06 0)
(5.78925e-06 -1.26212e-06 0)
(6.06245e-06 -1.19872e-06 0)
(6.32852e-06 -1.13841e-06 0)
(6.58806e-06 -1.07973e-06 0)
(6.84166e-06 -1.02134e-06 0)
(7.08984e-06 -9.62001e-07 0)
(7.33309e-06 -9.00467e-07 0)
(7.57183e-06 -8.35529e-07 0)
(7.80647e-06 -7.6592e-07 0)
(8.0373e-06 -6.90337e-07 0)
(8.2648e-06 -6.0729e-07 0)
(8.48905e-06 -5.15304e-07 0)
(8.71097e-06 -4.12267e-07 0)
(8.93008e-06 -2.9706e-07 0)
(3.79927e-06 -1.9854e-06 0)
(4.12317e-06 -1.86164e-06 0)
(4.43956e-06 -1.75213e-06 0)
(4.74755e-06 -1.65301e-06 0)
(5.0473e-06 -1.5633e-06 0)
(5.33877e-06 -1.48131e-06 0)
(5.62236e-06 -1.40549e-06 0)
(5.89844e-06 -1.33433e-06 0)
(6.16751e-06 -1.26637e-06 0)
(6.43004e-06 -1.20027e-06 0)
(6.68655e-06 -1.13473e-06 0)
(6.9375e-06 -1.06851e-06 0)
(7.18335e-06 -1.00042e-06 0)
(7.4245e-06 -9.29232e-07 0)
(7.66141e-06 -8.53712e-07 0)
(7.89438e-06 -7.72583e-07 0)
(8.12395e-06 -6.8441e-07 0)
(8.35032e-06 -5.87792e-07 0)
(8.5744e-06 -4.80767e-07 0)
(8.79603e-06 -3.62327e-07 0)
(3.64853e-06 -2.15947e-06 0)
(3.96783e-06 -2.03393e-06 0)
(4.28142e-06 -1.92043e-06 0)
(4.58771e-06 -1.81604e-06 0)
(4.88689e-06 -1.72012e-06 0)
(5.17859e-06 -1.63137e-06 0)
(5.46305e-06 -1.54848e-06 0)
(5.74045e-06 -1.47014e-06 0)
(6.01113e-06 -1.39504e-06 0)
(6.27547e-06 -1.32194e-06 0)
(6.53386e-06 -1.2496e-06 0)
(6.78672e-06 -1.17684e-06 0)
(7.03445e-06 -1.10249e-06 0)
(7.27745e-06 -1.02538e-06 0)
(7.51615e-06 -9.44308e-07 0)
(7.75091e-06 -8.58045e-07 0)
(7.98226e-06 -7.65236e-07 0)
(8.21053e-06 -6.64575e-07 0)
(8.43657e-06 -5.54272e-07 0)
(8.66052e-06 -4.33438e-07 0)
(3.51504e-06 -2.32632e-06 0)
(3.82828e-06 -2.2e-06 0)
(4.13743e-06 -2.08373e-06 0)
(4.44037e-06 -1.97526e-06 0)
(4.73733e-06 -1.87425e-06 0)
(5.02768e-06 -1.77971e-06 0)
(5.31155e-06 -1.69059e-06 0)
(5.58891e-06 -1.60579e-06 0)
(5.86e-06 -1.52414e-06 0)
(6.12507e-06 -1.44453e-06 0)
(6.38442e-06 -1.36581e-06 0)
(6.63838e-06 -1.28688e-06 0)
(6.88733e-06 -1.20663e-06 0)
(7.13163e-06 -1.12393e-06 0)
(7.37169e-06 -1.03765e-06 0)
(7.60788e-06 -9.46636e-07 0)
(7.84073e-06 -8.49627e-07 0)
(8.07065e-06 -7.45428e-07 0)
(8.29847e-06 -6.32443e-07 0)
(8.52452e-06 -5.09909e-07 0)
(3.39593e-06 -2.48581e-06 0)
(3.70231e-06 -2.35956e-06 0)
(4.00594e-06 -2.24147e-06 0)
(4.30437e-06 -2.12986e-06 0)
(4.59788e-06 -2.02469e-06 0)
(4.88566e-06 -1.92524e-06 0)
(5.16772e-06 -1.83069e-06 0)
(5.44393e-06 -1.74013e-06 0)
(5.71439e-06 -1.65257e-06 0)
(5.97925e-06 -1.56701e-06 0)
(6.23873e-06 -1.48243e-06 0)
(6.4931e-06 -1.39779e-06 0)
(6.74267e-06 -1.31207e-06 0)
(6.98775e-06 -1.22421e-06 0)
(7.22875e-06 -1.13315e-06 0)
(7.46603e-06 -1.03783e-06 0)
(7.70011e-06 -9.37091e-07 0)
(7.93145e-06 -8.29874e-07 0)
(8.16082e-06 -7.14778e-07 0)
(8.38875e-06 -5.91165e-07 0)
(3.28887e-06 -2.63809e-06 0)
(3.58793e-06 -2.51252e-06 0)
(3.88529e-06 -2.39337e-06 0)
(4.17842e-06 -2.27948e-06 0)
(4.46757e-06 -2.17102e-06 0)
(4.75184e-06 -2.06748e-06 0)
(5.03118e-06 -1.96828e-06 0)
(5.30533e-06 -1.87268e-06 0)
(5.57433e-06 -1.77987e-06 0)
(5.83821e-06 -1.68896e-06 0)
(6.09713e-06 -1.59905e-06 0)
(6.35128e-06 -1.5092e-06 0)
(6.60093e-06 -1.41847e-06 0)
(6.84636e-06 -1.32589e-06 0)
(7.08792e-06 -1.2305e-06 0)
(7.32598e-06 -1.13131e-06 0)
(7.56103e-06 -1.0273e-06 0)
(7.79355e-06 -9.17533e-07 0)
(8.02427e-06 -8.0082e-07 0)
(8.25383e-06 -6.76644e-07 0)
(3.19166e-06 -2.78344e-06 0)
(3.4832e-06 -2.65898e-06 0)
(3.77389e-06 -2.53937e-06 0)
(4.06119e-06 -2.42388e-06 0)
(4.34537e-06 -2.31284e-06 0)
(4.62546e-06 -2.20595e-06 0)
(4.90137e-06 -2.10283e-06 0)
(5.17278e-06 -2.00288e-06 0)
(5.43963e-06 -1.90546e-06 0)
(5.7019e-06 -1.80981e-06 0)
(5.95969e-06 -1.71514e-06 0)
(6.21312e-06 -1.62061e-06 0)
(6.4624e-06 -1.52537e-06 0)
(6.70778e-06 -1.42855e-06 0)
(6.94957e-06 -1.32927e-06 0)
(7.18813e-06 -1.22667e-06 0)
(7.4239e-06 -1.11984e-06 0)
(7.65739e-06 -1.00796e-06 0)
(7.88925e-06 -8.9007e-07 0)
(8.12021e-06 -7.65755e-07 0)
(3.10234e-06 -2.92228e-06 0)
(3.38636e-06 -2.7992e-06 0)
(3.67018e-06 -2.67957e-06 0)
(3.95136e-06 -2.56303e-06 0)
(4.23016e-06 -2.45004e-06 0)
(4.50562e-06 -2.34046e-06 0)
(4.77761e-06 -2.23406e-06 0)
(5.04575e-06 -2.13043e-06 0)
(5.30996e-06 -2.02903e-06 0)
(5.57015e-06 -1.92923e-06 0)
(5.82634e-06 -1.83036e-06 0)
(6.07864e-06 -1.73169e-06 0)
(6.32718e-06 -1.63245e-06 0)
(6.57219e-06 -1.53187e-06 0)
(6.81393e-06 -1.42917e-06 0)
(7.05274e-06 -1.32359e-06 0)
(7.28902e-06 -1.21435e-06 0)
(7.52327e-06 -1.10077e-06 0)
(7.75607e-06 -9.8206e-07 0)
(7.98819e-06 -8.57934e-07 0)
(3.01916e-06 -3.05506e-06 0)
(3.29579e-06 -2.93349e-06 0)
(3.57271e-06 -2.81417e-06 0)
(3.84765e-06 -2.69702e-06 0)
(4.12086e-06 -2.58258e-06 0)
(4.39141e-06 -2.47087e-06 0)
(4.65914e-06 -2.3618e-06 0)
(4.92367e-06 -2.25507e-06 0)
(5.18487e-06 -2.15028e-06 0)
(5.44261e-06 -2.04692e-06 0)
(5.69687e-06 -1.94442e-06 0)
(5.94771e-06 -1.84213e-06 0)
(6.19523e-06 -1.73939e-06 0)
(6.43961e-06 -1.63554e-06 0)
(6.68107e-06 -1.52987e-06 0)
(6.91992e-06 -1.42174e-06 0)
(7.15652e-06 -1.31048e-06 0)
(7.39134e-06 -1.19555e-06 0)
(7.62491e-06 -1.07633e-06 0)
(7.85798e-06 -9.52637e-07 0)
(2.94058e-06 -3.18226e-06 0)
(3.21001e-06 -3.06224e-06 0)
(3.48011e-06 -2.94343e-06 0)
(3.74881e-06 -2.826e-06 0)
(4.01635e-06 -2.71054e-06 0)
(4.28186e-06 -2.5972e-06 0)
(4.54516e-06 -2.48598e-06 0)
(4.80586e-06 -2.3767e-06 0)
(5.06381e-06 -2.26909e-06 0)
(5.31886e-06 -2.16271e-06 0)
(5.57096e-06 -2.05711e-06 0)
(5.82011e-06 -1.95172e-06 0)
(6.0664e-06 -1.84599e-06 0)
(6.30994e-06 -1.73932e-06 0)
(6.55095e-06 -1.63112e-06 0)
(6.78967e-06 -1.52084e-06 0)
(7.02643e-06 -1.40793e-06 0)
(7.26166e-06 -1.29195e-06 0)
(7.49582e-06 -1.17246e-06 0)
(7.72965e-06 -1.04936e-06 0)
(2.86518e-06 -3.30431e-06 0)
(3.12765e-06 -3.18582e-06 0)
(3.3911e-06 -3.06766e-06 0)
(3.65367e-06 -2.9502e-06 0)
(3.91558e-06 -2.83407e-06 0)
(4.17601e-06 -2.7195e-06 0)
(4.43481e-06 -2.6066e-06 0)
(4.69159e-06 -2.49528e-06 0)
(4.94618e-06 -2.38535e-06 0)
(5.1984e-06 -2.27648e-06 0)
(5.44819e-06 -2.16829e-06 0)
(5.69552e-06 -2.06031e-06 0)
(5.94042e-06 -1.95205e-06 0)
(6.183e-06 -1.84302e-06 0)
(6.42341e-06 -1.7327e-06 0)
(6.66187e-06 -1.62064e-06 0)
(6.89866e-06 -1.5064e-06 0)
(7.13417e-06 -1.38964e-06 0)
(7.36878e-06 -1.27006e-06 0)
(7.60318e-06 -1.14766e-06 0)
(2.79166e-06 -3.42165e-06 0)
(3.04745e-06 -3.30461e-06 0)
(3.30447e-06 -3.18718e-06 0)
(3.56108e-06 -3.06988e-06 0)
(3.81747e-06 -2.95337e-06 0)
(4.07292e-06 -2.83794e-06 0)
(4.32726e-06 -2.72377e-06 0)
(4.58012e-06 -2.61086e-06 0)
(4.83133e-06 -2.49908e-06 0)
(5.08068e-06 -2.3882e-06 0)
(5.32811e-06 -2.2779e-06 0)
(5.57354e-06 -2.16779e-06 0)
(5.81698e-06 -2.05746e-06 0)
(6.05851e-06 -1.94648e-06 0)
(6.29824e-06 -1.83443e-06 0)
(6.53635e-06 -1.72093e-06 0)
(6.77307e-06 -1.60564e-06 0)
(7.00874e-06 -1.48832e-06 0)
(7.24367e-06 -1.3688e-06 0)
(7.4785e-06 -1.24712e-06 0)
(2.71881e-06 -3.53463e-06 0)
(2.9682e-06 -3.41899e-06 0)
(3.21904e-06 -3.30232e-06 0)
(3.46993e-06 -3.18532e-06 0)
(3.721e-06 -3.06867e-06 0)
(3.97164e-06 -2.95268e-06 0)
(4.22165e-06 -2.83762e-06 0)
(4.4707e-06 -2.72352e-06 0)
(4.71859e-06 -2.61034e-06 0)
(4.96512e-06 -2.49789e-06 0)
(5.2102e-06 -2.38592e-06 0)
(5.45373e-06 -2.27412e-06 0)
(5.69571e-06 -2.16213e-06 0)
(5.93616e-06 -2.0496e-06 0)
(6.17516e-06 -1.93618e-06 0)
(6.41286e-06 -1.82155e-06 0)
(6.64943e-06 -1.70546e-06 0)
(6.88517e-06 -1.58775e-06 0)
(7.12032e-06 -1.46836e-06 0)
(7.35543e-06 -1.34739e-06 0)
(2.64541e-06 -3.64366e-06 0)
(2.88871e-06 -3.52927e-06 0)
(3.13367e-06 -3.41342e-06 0)
(3.37912e-06 -3.29685e-06 0)
(3.62515e-06 -3.18026e-06 0)
(3.87122e-06 -3.064e-06 0)
(4.11713e-06 -2.94836e-06 0)
(4.36255e-06 -2.83344e-06 0)
(4.60728e-06 -2.71924e-06 0)
(4.85112e-06 -2.60562e-06 0)
(5.09394e-06 -2.4924e-06 0)
(5.33565e-06 -2.37931e-06 0)
(5.57619e-06 -2.26606e-06 0)
(5.81558e-06 -2.15233e-06 0)
(6.05384e-06 -2.03785e-06 0)
(6.2911e-06 -1.92236e-06 0)
(6.52748e-06 -1.80568e-06 0)
(6.76322e-06 -1.68772e-06 0)
(6.99851e-06 -1.56851e-06 0)
(7.2338e-06 -1.44819e-06 0)
(2.57033e-06 -3.74897e-06 0)
(2.80783e-06 -3.63591e-06 0)
(3.04719e-06 -3.52078e-06 0)
(3.28758e-06 -3.40474e-06 0)
(3.52892e-06 -3.28841e-06 0)
(3.77076e-06 -3.17212e-06 0)
(4.01287e-06 -3.0562e-06 0)
(4.25494e-06 -2.9408e-06 0)
(4.49675e-06 -2.82593e-06 0)
(4.7381e-06 -2.71153e-06 0)
(4.97884e-06 -2.59743e-06 0)
(5.21884e-06 -2.48341e-06 0)
(5.45804e-06 -2.36923e-06 0)
(5.69642e-06 -2.25463e-06 0)
(5.93397e-06 -2.13938e-06 0)
(6.17078e-06 -2.02326e-06 0)
(6.40694e-06 -1.90617e-06 0)
(6.64263e-06 -1.78806e-06 0)
(6.87798e-06 -1.66903e-06 0)
(7.11336e-06 -1.54928e-06 0)
(2.4924e-06 -3.85104e-06 0)
(2.72422e-06 -3.7389e-06 0)
(2.95825e-06 -3.62478e-06 0)
(3.19418e-06 -3.50949e-06 0)
(3.43125e-06 -3.39357e-06 0)
(3.66932e-06 -3.27746e-06 0)
(3.90803e-06 -3.16153e-06 0)
(4.14713e-06 -3.04591e-06 0)
(4.38636e-06 -2.93069e-06 0)
(4.6255e-06 -2.81582e-06 0)
(4.86439e-06 -2.70116e-06 0)
(5.10287e-06 -2.58653e-06 0)
(5.34087e-06 -2.47173e-06 0)
(5.57832e-06 -2.35654e-06 0)
(5.81521e-06 -2.24074e-06 0)
(6.05159e-06 -2.1242e-06 0)
(6.28751e-06 -2.00683e-06 0)
(6.5231e-06 -1.88864e-06 0)
(6.75847e-06 -1.76978e-06 0)
(6.99388e-06 -1.65047e-06 0)
(2.40972e-06 -3.94974e-06 0)
(2.63673e-06 -3.83868e-06 0)
(2.86637e-06 -3.72579e-06 0)
(3.09798e-06 -3.61131e-06 0)
(3.33134e-06 -3.49597e-06 0)
(3.56609e-06 -3.38028e-06 0)
(3.80191e-06 -3.26457e-06 0)
(4.03848e-06 -3.14902e-06 0)
(4.27555e-06 -3.03373e-06 0)
(4.51285e-06 -2.91866e-06 0)
(4.75018e-06 -2.80373e-06 0)
(4.98738e-06 -2.68877e-06 0)
(5.22434e-06 -2.5736e-06 0)
(5.46098e-06 -2.45804e-06 0)
(5.69726e-06 -2.34192e-06 0)
(5.93322e-06 -2.22512e-06 0)
(6.16889e-06 -2.10758e-06 0)
(6.40435e-06 -1.98935e-06 0)
(6.63968e-06 -1.87062e-06 0)
(6.87508e-06 -1.75162e-06 0)
(2.32125e-06 -4.04621e-06 0)
(2.54383e-06 -3.93649e-06 0)
(2.76946e-06 -3.82455e-06 0)
(2.99756e-06 -3.71096e-06 0)
(3.22789e-06 -3.59638e-06 0)
(3.46003e-06 -3.48127e-06 0)
(3.69362e-06 -3.36596e-06 0)
(3.92831e-06 -3.25068e-06 0)
(4.16376e-06 -3.13552e-06 0)
(4.39968e-06 -3.02047e-06 0)
(4.63585e-06 -2.90546e-06 0)
(4.87206e-06 -2.79037e-06 0)
(5.10819e-06 -2.67503e-06 0)
(5.34414e-06 -2.55928e-06 0)
(5.57987e-06 -2.44298e-06 0)
(5.81541e-06 -2.32602e-06 0)
(6.05078e-06 -2.20839e-06 0)
(6.28606e-06 -2.09015e-06 0)
(6.52131e-06 -1.9715e-06 0)
(6.75665e-06 -1.85268e-06 0)
(2.22581e-06 -4.13959e-06 0)
(2.44449e-06 -4.03137e-06 0)
(2.66679e-06 -3.92081e-06 0)
(2.89218e-06 -3.80842e-06 0)
(3.12029e-06 -3.69485e-06 0)
(3.35062e-06 -3.58056e-06 0)
(3.58276e-06 -3.4659e-06 0)
(3.81624e-06 -3.35109e-06 0)
(4.05071e-06 -3.23624e-06 0)
(4.28579e-06 -3.12139e-06 0)
(4.52122e-06 -3.00647e-06 0)
(4.75677e-06 -2.89138e-06 0)
(4.99227e-06 -2.77599e-06 0)
(5.22765e-06 -2.66017e-06 0)
(5.46286e-06 -2.5438e-06 0)
(5.69794e-06 -2.42679e-06 0)
(5.93293e-06 -2.30913e-06 0)
(6.16795e-06 -2.1909e-06 0)
(6.40304e-06 -2.0723e-06 0)
(6.63831e-06 -1.95356e-06 0)
(1.70009e-07 -3.66166e-06 0)
(5.12574e-07 -3.60717e-06 0)
(8.62889e-07 -3.50046e-06 0)
(1.22529e-06 -3.3457e-06 0)
(1.6034e-06 -3.14883e-06 0)
(1.9995e-06 -2.91723e-06 0)
(2.4145e-06 -2.65928e-06 0)
(2.84774e-06 -2.38393e-06 0)
(3.29719e-06 -2.10024e-06 0)
(3.75975e-06 -1.81561e-06 0)
(1.64949e-07 -3.7177e-06 0)
(4.97006e-07 -3.66793e-06 0)
(8.35576e-07 -3.57038e-06 0)
(1.18432e-06 -3.42857e-06 0)
(1.54633e-06 -3.24756e-06 0)
(1.92362e-06 -3.03363e-06 0)
(2.317e-06 -2.79392e-06 0)
(2.72593e-06 -2.5361e-06 0)
(3.14797e-06 -2.26847e-06 0)
(3.5813e-06 -1.99639e-06 0)
(1.60549e-07 -3.77514e-06 0)
(4.83436e-07 -3.72963e-06 0)
(8.11668e-07 -3.64038e-06 0)
(1.14824e-06 -3.51042e-06 0)
(1.49571e-06 -3.34414e-06 0)
(1.85584e-06 -3.14694e-06 0)
(2.22941e-06 -2.92495e-06 0)
(2.61646e-06 -2.68456e-06 0)
(3.01515e-06 -2.43303e-06 0)
(3.42456e-06 -2.17324e-06 0)
(1.56635e-07 -3.83409e-06 0)
(4.71409e-07 -3.79222e-06 0)
(7.90647e-07 -3.71004e-06 0)
(1.11684e-06 -3.59021e-06 0)
(1.45211e-06 -3.43657e-06 0)
(1.79792e-06 -3.25385e-06 0)
(2.15485e-06 -3.04747e-06 0)
(2.52295e-06 -2.82298e-06 0)
(2.9007e-06 -2.58718e-06 0)
(3.28724e-06 -2.34196e-06 0)
(1.53025e-07 -3.89452e-06 0)
(4.60333e-07 -3.85589e-06 0)
(7.71358e-07 -3.78003e-06 0)
(1.08816e-06 -3.66929e-06 0)
(1.41253e-06 -3.52711e-06 0)
(1.74567e-06 -3.35762e-06 0)
(2.08813e-06 -3.16564e-06 0)
(2.43993e-06 -2.95591e-06 0)
(2.80008e-06 -2.73455e-06 0)
(3.1669e-06 -2.50325e-06 0)
(1.49668e-07 -3.95634e-06 0)
(4.50063e-07 -3.92052e-06 0)
(7.53593e-07 -3.85014e-06 0)
(1.06198e-06 -3.74733e-06 0)
(1.3767e-06 -3.61516e-06 0)
(1.69874e-06 -3.45734e-06 0)
(2.02858e-06 -3.27825e-06 0)
(2.36605e-06 -3.08208e-06 0)
(2.71075e-06 -2.87433e-06 0)
(3.06034e-06 -2.65681e-06 0)
(1.46457e-07 -4.01945e-06 0)
(4.40268e-07 -3.98614e-06 0)
(7.36741e-07 -3.92065e-06 0)
(1.03732e-06 -3.82491e-06 0)
(1.34328e-06 -3.70171e-06 0)
(1.65539e-06 -3.5544e-06 0)
(1.97411e-06 -3.38694e-06 0)
(2.2991e-06 -3.20309e-06 0)
(2.63041e-06 -3.00774e-06 0)
(2.96513e-06 -2.80306e-06 0)
(1.43351e-07 -4.08372e-06 0)
(4.30822e-07 -4.0526e-06 0)
(7.20586e-07 -3.99142e-06 0)
(1.01387e-06 -3.90193e-06 0)
(1.31177e-06 -3.78668e-06 0)
(1.61488e-06 -3.64874e-06 0)
(1.92366e-06 -3.49173e-06 0)
(2.23759e-06 -3.31911e-06 0)
(2.55708e-06 -3.13517e-06 0)
(2.87894e-06 -2.94243e-06 0)
(1.40291e-07 -4.149e-06 0)
(4.2154e-07 -4.11985e-06 0)
(7.04795e-07 -4.06252e-06 0)
(9.91114e-07 -3.97861e-06 0)
(1.28146e-06 -3.87049e-06 0)
(1.5763e-06 -3.74097e-06 0)
(1.87608e-06 -3.59335e-06 0)
(2.18017e-06 -3.43088e-06 0)
(2.48916e-06 -3.25732e-06 0)
(2.79983e-06 -3.07548e-06 0)
(1.3724e-07 -4.21513e-06 0)
(4.12308e-07 -4.18773e-06 0)
(6.89165e-07 -4.13383e-06 0)
(9.68743e-07 -4.05492e-06 0)
(1.2519e-06 -3.95317e-06 0)
(1.539e-06 -3.83121e-06 0)
(1.8305e-06 -3.69205e-06 0)
(2.12569e-06 -3.53877e-06 0)
(2.42525e-06 -3.37468e-06 0)
(2.72608e-06 -3.20276e-06 0)
(1.34157e-07 -4.28193e-06 0)
(4.02999e-07 -4.25612e-06 0)
(6.73471e-07 -4.2053e-06 0)
(9.46415e-07 -4.13089e-06 0)
(1.22261e-06 -4.03488e-06 0)
(1.50237e-06 -3.91973e-06 0)
(1.78612e-06 -3.78821e-06 0)
(2.07315e-06 -3.64324e-06 0)
(2.36415e-06 -3.48774e-06 0)
(2.65621e-06 -3.3248e-06 0)
(1.31006e-07 -4.34922e-06 0)
(3.93505e-07 -4.32483e-06 0)
(6.57524e-07 -4.2768e-06 0)
(9.23846e-07 -4.20644e-06 0)
(1.19321e-06 -4.11563e-06 0)
(1.46587e-06 -4.00663e-06 0)
(1.74224e-06 -3.88203e-06 0)
(2.02166e-06 -3.74457e-06 0)
(2.30475e-06 -3.5969e-06 0)
(2.58891e-06 -3.44208e-06 0)
(1.27749e-07 -4.41679e-06 0)
(3.83709e-07 -4.3937e-06 0)
(6.41122e-07 -4.34821e-06 0)
(9.00739e-07 -4.28154e-06 0)
(1.16326e-06 -4.19544e-06 0)
(1.42895e-06 -4.09203e-06 0)
(1.6982e-06 -3.9737e-06 0)
(1.97038e-06 -3.84307e-06 0)
(2.24607e-06 -3.70252e-06 0)
(2.52295e-06 -3.55504e-06 0)
(1.24349e-07 -4.4844e-06 0)
(3.73496e-07 -4.46249e-06 0)
(6.24065e-07 -4.41932e-06 0)
(8.76801e-07 -4.35603e-06 0)
(1.13239e-06 -4.27423e-06 0)
(1.39111e-06 -4.17593e-06 0)
(1.65333e-06 -4.06333e-06 0)
(1.91852e-06 -3.9389e-06 0)
(2.18715e-06 -3.80484e-06 0)
(2.45722e-06 -3.66401e-06 0)
(1.20761e-07 -4.55183e-06 0)
(3.62734e-07 -4.53101e-06 0)
(6.0613e-07 -4.48999e-06 0)
(8.51708e-07 -4.42981e-06 0)
(1.10016e-06 -4.35198e-06 0)
(1.35179e-06 -4.25837e-06 0)
(1.60696e-06 -4.15103e-06 0)
(1.86524e-06 -4.03228e-06 0)
(2.12702e-06 -3.90414e-06 0)
(2.39058e-06 -3.76936e-06 0)
(1.16941e-07 -4.61869e-06 0)
(3.51284e-07 -4.59889e-06 0)
(5.87079e-07 -4.55986e-06 0)
(8.25117e-07 -4.50258e-06 0)
(1.06611e-06 -4.42844e-06 0)
(1.31041e-06 -4.33918e-06 0)
(1.55839e-06 -4.2367e-06 0)
(1.80972e-06 -4.12319e-06 0)
(2.0647e-06 -4.00052e-06 0)
(2.32193e-06 -3.87125e-06 0)
(1.1283e-07 -4.68486e-06 0)
(3.38971e-07 -4.66602e-06 0)
(5.66619e-07 -4.62887e-06 0)
(7.96612e-07 -4.57432e-06 0)
(1.0297e-06 -4.50364e-06 0)
(1.26629e-06 -4.41846e-06 0)
(1.5068e-06 -4.32053e-06 0)
(1.75098e-06 -4.2119e-06 0)
(1.99912e-06 -4.09431e-06 0)
(2.25001e-06 -3.97017e-06 0)
(1.08369e-07 -4.7495e-06 0)
(3.25619e-07 -4.73158e-06 0)
(5.44451e-07 -4.69623e-06 0)
(7.65769e-07 -4.64428e-06 0)
(9.90371e-07 -4.5769e-06 0)
(1.21875e-06 -4.49561e-06 0)
(1.45134e-06 -4.40202e-06 0)
(1.68805e-06 -4.29803e-06 0)
(1.92907e-06 -4.18524e-06 0)
(2.17354e-06 -4.06593e-06 0)
(1.03467e-07 -4.81302e-06 0)
(3.10951e-07 -4.79599e-06 0)
(5.20117e-07 -4.76238e-06 0)
(7.3194e-07 -4.71295e-06 0)
(9.4729e-07 -4.64878e-06 0)
(1.16676e-06 -4.57124e-06 0)
(1.39083e-06 -4.48183e-06 0)
(1.61956e-06 -4.38229e-06 0)
(1.85313e-06 -4.27413e-06 0)
(2.09092e-06 -4.15941e-06 0)
(9.80811e-08 -4.87316e-06 0)
(2.94841e-07 -4.85701e-06 0)
(4.93399e-07 -4.82514e-06 0)
(6.94809e-07 -4.77823e-06 0)
(9.00032e-07 -4.71726e-06 0)
(1.10976e-06 -4.64348e-06 0)
(1.3246e-06 -4.55826e-06 0)
(1.54471e-06 -4.46321e-06 0)
(1.77036e-06 -4.3597e-06 0)
(2.00112e-06 -4.24964e-06 0)
)
;

boundaryField
{
    left
    {
        type            solidSymmetry;
        patchType       symmetryPlane;
        secondOrder     false;
        value           nonuniform List<vector> 
30
(
(0 -3.66335e-06 0)
(0 -3.71935e-06 0)
(0 -3.77674e-06 0)
(0 -3.83564e-06 0)
(0 -3.89601e-06 0)
(0 -3.95776e-06 0)
(0 -4.02081e-06 0)
(0 -4.08499e-06 0)