/*--------------------------------*- C++ -*----------------------------------*\
| =========                 |                                                 |
| \\      /  F ield         | foam-extend: Open Source CFD                    |
|  \\    /   O peration     | Version:     4.1                                |
|   \\  /    A nd           | Web:         http://www.foam-extend.org         |
|    \\/     M anipulation  |                                                 |
\*---------------------------------------------------------------------------*/
FoamFile
{
    version     2.0;
    format      ascii;
    class       pointVectorField;
    location    "8";
    object      pointD;
}
// * * * * * * * * * * * * * * * * * * * * * * * * * * * * * * * * * * * * * //

dimensions      [0 1 0 0 0 0 0];

internalField   nonuniform List<vector> 
2142
(
(4.65108e-06 -1.93165e-06 -2.55301e-22)
(4.33498e-06 -1.71291e-06 0)
(4.14134e-06 -1.58945e-06 0)
(4.02171e-06 -1.5165e-06 0)
(3.9563e-06 -1.48074e-06 0)
(3.92925e-06 -1.46901e-06 0)
(3.93046e-06 -1.47432e-06 0)
(3.95279e-06 -1.49129e-06 0)
(3.99109e-06 -1.51647e-06 0)
(4.04167e-06 -1.54743e-06 0)
(4.10336e-06 -1.58369e-06 0)
(4.2677e-06 -2.0805e-06 -1.1163e-22)
(3.92467e-06 -1.90729e-06 0)
(3.71422e-06 -1.81278e-06 0)
(3.58358e-06 -1.75862e-06 0)
(3.51033e-06 -1.73551e-06 0)
(3.47727e-06 -1.73239e-06 0)
(3.47337e-06 -1.74383e-06 0)
(3.49103e-06 -1.76526e-06 0)
(3.52461e-06 -1.79398e-06 0)
(3.57046e-06 -1.8275e-06 0)
(3.62494e-06 -1.86558e-06 0)
(3.85896e-06 -2.217e-06 1.74971e-22)
(3.50198e-06 -2.097e-06 0)
(3.28275e-06 -2.03614e-06 0)
(3.1462e-06 -2.00377e-06 0)
(3.06828e-06 -1.99518e-06 0)
(3.03109e-06 -2.00183e-06 0)
(3.02309e-06 -2.02014e-06 0)
(3.03639e-06 -2.04649e-06 0)
(3.0652e-06 -2.07905e-06 0)
(3.10552e-06 -2.11536e-06 0)
(3.15383e-06 -2.15646e-06 0)
(3.42743e-06 -2.34017e-06 4.03405e-22)
(3.07081e-06 -2.27801e-06 0)
(2.85166e-06 -2.25359e-06 0)
(2.71481e-06 -2.24478e-06 0)
(2.63574e-06 -2.25178e-06 0)
(2.59655e-06 -2.26882e-06 0)
(2.58565e-06 -2.29431e-06 0)
(2.59522e-06 -2.32571e-06 0)
(2.61955e-06 -2.36205e-06 0)
(2.65459e-06 -2.40127e-06 0)
(2.69742e-06 -2.44485e-06 0)
(2.97577e-06 -2.44907e-06 1.37069e-23)
(2.63439e-06 -2.44609e-06 0)
(2.42452e-06 -2.45889e-06 0)
(2.29323e-06 -2.4741e-06 0)
(2.21667e-06 -2.49693e-06 0)
(2.17771e-06 -2.52448e-06 0)
(2.16523e-06 -2.55715e-06 0)
(2.17176e-06 -2.59355e-06 0)
(2.19196e-06 -2.63355e-06 0)
(2.22188e-06 -2.67565e-06 0)
(2.25923e-06 -2.72153e-06 0)
(2.50672e-06 -2.54283e-06 -2.4833e-22)
(2.19526e-06 -2.59704e-06 0)
(2.00373e-06 -2.64573e-06 0)
(1.88375e-06 -2.6841e-06 0)
(1.81333e-06 -2.72215e-06 0)
(1.77681e-06 -2.75976e-06 0)
(1.76404e-06 -2.79925e-06 0)
(1.76824e-06 -2.84039e-06 0)
(1.7846e-06 -2.88384e-06 0)
(1.80949e-06 -2.92869e-06 0)
(1.84116e-06 -2.97668e-06 0)
(2.02307e-06 -2.62067e-06 3.1359e-23)
(1.75523e-06 -2.72684e-06 0)
(1.59049e-06 -2.80811e-06 0)
(1.48719e-06 -2.86748e-06 0)
(1.42625e-06 -2.91931e-06 0)
(1.39423e-06 -2.96601e-06 0)
(1.38238e-06 -3.01166e-06 0)
(1.38489e-06 -3.05707e-06 0)
(1.39767e-06 -3.1036e-06 0)
(1.41755e-06 -3.15097e-06 0)
(1.4433e-06 -3.2008e-06 0)
(1.5277e-06 -2.68192e-06 3.42829e-23)
(1.31544e-06 -2.8319e-06 0)
(1.18485e-06 -2.94061e-06 0)
(1.10291e-06 -3.01767e-06 0)
(1.0544e-06 -3.08109e-06 0)
(1.02867e-06 -3.13544e-06 0)
(1.01878e-06 -3.18624e-06 0)
(1.02014e-06 -3.23525e-06 0)
(1.02955e-06 -3.28437e-06 0)
(1.04444e-06 -3.33387e-06 0)
(1.064e-06 -3.38524e-06 0)
(1.02349e-06 -2.72603e-06 9.21593e-23)
(8.764e-07 -2.9092e-06 0)
(7.85868e-07 -3.03868e-06 0)
(7.29023e-07 -3.12914e-06 0)
(6.9529e-07 -3.20133e-06 0)
(6.77277e-07 -3.26146e-06 0)
(6.7019e-07 -3.31617e-06 0)
(6.70831e-07 -3.3679e-06 0)
(6.77007e-07 -3.41898e-06 0)
(6.86925e-07 -3.47012e-06 0)
(7.00091e-07 -3.52266e-06 0)
(5.13409e-07 -2.75258e-06 1.41315e-22)
(4.38167e-07 -2.95644e-06 0)
(3.91809e-07 -3.0989e-06 0)
(3.62677e-07 -3.19772e-06 0)
(3.45355e-07 -3.27538e-06 0)
(3.36063e-07 -3.33913e-06 0)
(3.32348e-07 -3.39628e-06 0)
(3.32573e-07 -3.44971e-06 0)
(3.35622e-07 -3.50202e-06 0)
(3.40569e-07 -3.5542e-06 0)
(3.47185e-07 -3.60748e-06 0)
(0 -2.76119e-06 9.90987e-23)
(0 -2.97226e-06 -4.02002e-25)
(0 -3.1193e-06 0)
(0 -3.22086e-06 0)
(0 -3.30045e-06 0)
(0 -3.36539e-06 0)
(0 -3.42339e-06 0)
(0 -3.47739e-06 0)
(0 -3.53012e-06 0)
(0 -3.58266e-06 0)
(0 -3.63618e-06 0)
(4.65108e-06 -1.93165e-06 -2.55301e-22)
(4.33498e-06 -1.71291e-06 0)
(4.14134e-06 -1.58945e-06 0)
(4.02171e-06 -1.5165e-06 0)
(3.9563e-06 -1.48074e-06 0)
(3.92925e-06 -1.46901e-06 0)
(3.93046e-06 -1.47432e-06 0)
(3.95279e-06 -1.49129e-06 0)
(3.99109e-06 -1.51647e-06 0)
(4.04167e-06 -1.54743e-06 0)
(4.10336e-06 -1.58369e-06 0)
(4.2677e-06 -2.0805e-06 -1.1163e-22)
(3.92467e-06 -1.90729e-06 0)
(3.71422e-06 -1.81278e-06 0)
(3.58358e-06 -1.75862e-06 0)
(3.51033e-06 -1.73551e-06 0)
(3.47727e-06 -1.73239e-06 0)
(3.47337e-06 -1.74383e-06 0)
(3.49103e-06 -1.76526e-06 0)
(3.52461e-06 -1.79398e-06 0)
(3.57046e-06 -1.8275e-06 0)
(3.62494e-06 -1.86558e-06 0)
(3.85896e-06 -2.217e-06 1.74971e-22)
(3.50198e-06 -2.097e-06 0)
(3.28275e-06 -2.03614e-06 0)
(3.1462e-06 -2.00377e-06 0)
(3.06828e-06 -1.99518e-06 0)
(3.03109e-06 -2.00183e-06 0)
(3.02309e-06 -2.02014e-06 0)
(3.03639e-06 -2.04649e-06 0)
(3.0652e-06 -2.07905e-06 0)
(3.10552e-06 -2.11536e-06 0)
(3.15383e-06 -2.15646e-06 0)
(3.42743e-06 -2.34017e-06 4.03405e-22)
(3.07081e-06 -2.27801e-06 0)
(2.85166e-06 -2.25359e-06 0)
(2.71481e-06 -2.24478e-06 0)
(2.63574e-06 -2.25178e-06 0)
(2.59655e-06 -2.26882e-06 0)
(2.58565e-06 -2.29431e-06 0)
(2.59522e-06 -2.32571e-06 0)
(2.61955e-06 -2.36205e-06 0)
(2.65459e-06 -2.40127e-06 0)
(2.69742e-06 -2.44485e-06 0)
(2.97577e-06 -2.44907e-06 1.37069e-23)
(2.63439e-06 -2.44609e-06 0)
(2.42452e-06 -2.45889e-06 0)
(2.29323e-06 -2.4741e-06 0)
(2.21667e-06 -2.49693e-06 0)
(2.17771e-06 -2.52448e-06 0)
(2.16523e-06 -2.55715e-06 0)
(2.17176e-06 -2.59355e-06 0)
(2.19196e-06 -2.63355e-06 0)
(2.22188e-06 -2.67565e-06 0)
(2.25923e-06 -2.72153e-06 0)
(2.50672e-06 -2.54283e-06 -2.4833e-22)
(2.19526e-06 -2.59704e-06 0)
(2.00373e-06 -2.64573e-06 0)
(1.88375e-06 -2.6841e-06 0)
(1.81333e-06 -2.72215e-06 0)
(1.77681e-06 -2.75976e-06 0)
(1.76404e-06 -2.79925e-06 0)
(1.76824e-06 -2.84039e-06 0)
(1.7846e-06 -2.88384e-06 0)
(1.80949e-06 -2.92869e-06 0)
(1.84116e-06 -2.97668e-06 0)
(2.02307e-06 -2.62067e-06 3.1359e-23)
(1.75523e-06 -2.72684e-06 0)
(1.59049e-06 -2.80811e-06 0)
(1.48719e-06 -2.86748e-06 0)
(1.42625e-06 -2.91931e-06 0)
(1.39423e-06 -2.96601e-06 0)
(1.38238e-06 -3.01166e-06 0)
(1.38489e-06 -3.05707e-06 0)
(1.39767e-06 -3.1036e-06 0)
(1.41755e-06 -3.15097e-06 0)
(1.4433e-06 -3.2008e-06 0)
(1.5277e-06 -2.68192e-06 3.42829e-23)
(1.31544e-06 -2.8319e-06 0)
(1.18485e-06 -2.94061e-06 0)
(1.10291e-06 -3.01767e-06 0)
(1.0544e-06 -3.08109e-06 0)
(1.02867e-06 -3.13544e-06 0)
(1.01878e-06 -3.18624e-06 0)
(1.02014e-06 -3.23525e-06 0)
(1.02955e-06 -3.28437e-06 0)
(1.04444e-06 -3.33387e-06 0)
(1.064e-06 -3.38524e-06 0)
(1.02349e-06 -2.72603e-06 9.21593e-23)
(8.764e-07 -2.9092e-06 0)
(7.85868e-07 -3.03868e-06 0)
(7.29023e-07 -3.12914e-06 0)
(6.9529e-07 -3.20133e-06 0)
(6.77277e-07 -3.26146e-06 0)
(6.7019e-07 -3.31617e-06 0)
(6.70831e-07 -3.3679e-06 0)
(6.77007e-07 -3.41898e-06 0)
(6.86925e-07 -3.47012e-06 0)
(7.00091e-07 -3.52266e-06 0)
(5.13409e-07 -2.75258e-06 1.41315e-22)
(4.38167e-07 -2.95644e-06 0)
(3.91809e-07 -3.0989e-06 0)
(3.62677e-07 -3.19772e-06 0)
(3.45355e-07 -3.27538e-06 0)
(3.36063e-07 -3.33913e-06 0)
(3.32348e-07 -3.39628e-06 0)
(3.32573e-07 -3.44971e-06 0)
(3.35622e-07 -3.50202e-06 0)
(3.40569e-07 -3.5542e-06 0)
(3.47185e-07 -3.60748e-06 0)
(0 -2.76119e-06 9.90987e-23)
(0 -2.97226e-06 -4.02002e-25)
(0 -3.1193e-06 0)
(0 -3.22086e-06 0)
(0 -3.30045e-06 0)
(0 -3.36539e-06 0)
(0 -3.42339e-06 0)
(0 -3.47739e-06 0)
(0 -3.53012e-06 0)
(0 -3.58266e-06 0)
(0 -3.63618e-06 0)
(6.62164e-06 0 -8.08059e-23)
(6.6962e-06 0 3.27796e-25)
(6.74512e-06 0 0)
(6.78204e-06 0 0)
(6.82138e-06 0 0)
(6.86676e-06 0 0)
(6.92152e-06 0 0)
(6.98604e-06 0 0)
(7.06068e-06 0 0)
(7.14476e-06 0 0)
(7.23812e-06 0 0)
(6.60091e-06 -2.12478e-07 -3.62694e-23)
(6.66868e-06 -1.47605e-07 0)
(6.71331e-06 -1.08878e-07 0)
(6.7476e-06 -8.49133e-08 0)
(6.78513e-06 -7.09617e-08 0)
(6.82933e-06 -6.34945e-08 0)
(6.88322e-06 -6.03773e-08 0)
(6.94709e-06 -6.01519e-08 0)
(7.02118e-06 -6.18923e-08 0)
(7.10474e-06 -6.47188e-08 0)
(7.19768e-06 -6.87628e-08 0)
(6.53833e-06 -4.2372e-07 -7.06128e-23)
(6.58646e-06 -2.97249e-07 0)
(6.61887e-06 -2.21954e-07 0)
(6.64531e-06 -1.75429e-07 0)
(6.67764e-06 -1.48417e-07 0)
(6.71831e-06 -1.34036e-07 0)
(6.76967e-06 -1.2813e-07 0)
(6.83161e-06 -1.27861e-07 0)
(6.90412e-06 -1.31418e-07 0)
(6.98615e-06 -1.37101e-07 0)
(7.07784e-06 -1.45128e-07 0)
(6.43427e-06 -6.32674e-07 -2.11567e-22)
(6.45103e-06 -4.51234e-07 0)
(6.46402e-06 -3.43423e-07 0)
(6.47793e-06 -2.76895e-07 0)
(6.50198e-06 -2.38411e-07 0)
(6.53703e-06 -2.1808e-07 0)
(6.58437e-06 -2.09939e-07 0)
(6.64322e-06 -2.09917e-07 0)
(6.71319e-06 -2.15395e-07 0)
(6.7928e-06 -2.23966e-07 0)
(6.88247e-06 -2.35833e-07 0)
(6.28963e-06 -8.3806e-07 -1.4935e-22)
(6.26518e-06 -6.11233e-07 0)
(6.25265e-06 -4.76709e-07 0)
(6.25012e-06 -3.93828e-07 0)
(6.26329e-06 -3.46138e-07 0)
(6.29093e-06 -3.21229e-07 0)
(6.33296e-06 -3.11646e-07 0)
(6.38773e-06 -3.12288e-07 0)
(6.45436e-06 -3.19843e-07 0)
(6.53077e-06 -3.31347e-07 0)
(6.61779e-06 -3.46875e-07 0)
(6.10555e-06 -1.03874e-06 -1.17656e-23)
(6.03255e-06 -7.7841e-07 0)
(5.98994e-06 -6.24412e-07 0)
(5.96802e-06 -5.29734e-07 0)
(5.96834e-06 -4.75671e-07 0)
(5.98723e-06 -4.47901e-07 0)
(6.02295e-06 -4.3787e-07 0)
(6.07288e-06 -4.39702e-07 0)
(6.13549e-06 -4.49536e-07 0)
(6.20812e-06 -4.64029e-07 0)
(6.29193e-06 -4.82987e-07 0)
(5.88344e-06 -1.23354e-06 -3.67936e-24)
(5.75752e-06 -9.53255e-07 0)
(5.6821e-06 -7.88045e-07 0)
(5.63901e-06 -6.86778e-07 0)
(5.62528e-06 -6.2958e-07 0)
(5.63454e-06 -6.00916e-07 0)
(5.66329e-06 -5.91582e-07 0)
(5.70783e-06 -5.95218e-07 0)
(5.76595e-06 -6.07584e-07 0)
(5.83436e-06 -6.25143e-07 0)
(5.91453e-06 -6.47308e-07 0)
(5.62497e-06 -1.42135e-06 -6.24808e-24)
(5.445e-06 -1.13553e-06 0)
(5.33603e-06 -9.67933e-07 0)
(5.27128e-06 -8.65647e-07 0)
(5.2431e-06 -8.0878e-07 0)
(5.24241e-06 -7.81326e-07 0)
(5.26387e-06 -7.73919e-07 0)
(5.30271e-06 -7.80021e-07 0)
(5.35601e-06 -7.95214e-07 0)
(5.41994e-06 -8.15956e-07 0)
(5.49606e-06 -8.41104e-07 0)
(5.33201e-06 -1.60103e-06 3.03113e-22)
(5.1002e-06 -1.32421e-06 0)
(4.95903e-06 -1.16313e-06 0)
(4.87346e-06 -1.06544e-06 0)
(4.8313e-06 -1.0124e-06 0)
(4.82089e-06 -9.88277e-07 0)
(4.8351e-06 -9.84037e-07 0)
(4.86819e-06 -9.93271e-07 0)
(4.91647e-06 -1.01164e-06 0)
(4.97582e-06 -1.03574e-06 0)
(5.04763e-06 -1.06395e-06 0)
(5.00663e-06 -1.77149e-06 1.92247e-22)
(4.72846e-06 -1.51751e-06 0)
(4.55844e-06 -1.37143e-06 0)
(4.45417e-06 -1.28371e-06 0)
(4.39934e-06 -1.23783e-06 0)
(4.37996e-06 -1.21903e-06 0)
(4.38728e-06 -1.2191e-06 0)
(4.41474e-06 -1.23205e-06 0)
(4.45791e-06 -1.25386e-06 0)
(4.51266e-06 -1.28165e-06 0)
(4.57946e-06 -1.31294e-06 0)
(6.62164e-06 0 -8.08059e-23)
(6.6962e-06 0 3.27796e-25)
(6.74512e-06 0 0)
(6.78204e-06 0 0)
(6.82138e-06 0 0)
(6.86676e-06 0 0)
(6.92152e-06 0 0)
(6.98604e-06 0 0)
(7.06068e-06 0 0)
(7.14476e-06 0 0)
(7.23812e-06 0 0)
(6.60091e-06 -2.12478e-07 -3.62694e-23)
(6.66868e-06 -1.47605e-07 0)
(6.71331e-06 -1.08878e-07 0)
(6.7476e-06 -8.49133e-08 0)
(6.78513e-06 -7.09617e-08 0)
(6.82933e-06 -6.34945e-08 0)
(6.88322e-06 -6.03773e-08 0)
(6.94709e-06 -6.01519e-08 0)
(7.02118e-06 -6.18923e-08 0)
(7.10474e-06 -6.47188e-08 0)
(7.19768e-06 -6.87628e-08 0)
(6.53833e-06 -4.2372e-07 -7.06128e-23)
(6.58646e-06 -2.97249e-07 0)
(6.61887e-06 -2.21954e-07 0)
(6.64531e-06 -1.75429e-07 0)
(6.67764e-06 -1.48417e-07 0)
(6.71831e-06 -1.34036e-07 0)
(6.76967e-06 -1.2813e-07 0)
(6.83161e-06 -1.27861e-07 0)
(6.90412e-06 -1.31418e-07 0)
(6.98615e-06 -1.37101e-07 0)
(7.07784e-06 -1.45128e-07 0)
(6.43427e-06 -6.32674e-07 -2.11567e-22)
(6.45103e-06 -4.51234e-07 0)
(6.46402e-06 -3.43423e-07 0)
(6.47793e-06 -2.76895e-07 0)
(6.50198e-06 -2.38411e-07 0)
(6.53703e-06 -2.1808e-07 0)
(6.58437e-06 -2.09939e-07 0)
(6.64322e-06 -2.09917e-07 0)
(6.71319e-06 -2.15395e-07 0)
(6.7928e-06 -2.23966e-07 0)
(6.88247e-06 -2.35833e-07 0)
(6.28963e-06 -8.3806e-07 -1.4935e-22)
(6.26518e-06 -6.11233e-07 0)
(6.25265e-06 -4.76709e-07 0)
(6.25012e-06 -3.93828e-07 0)
(6.26329e-06 -3.46138e-07 0)
(6.29093e-06 -3.21229e-07 0)
(6.33296e-06 -3.11646e-07 0)
(6.38773e-06 -3.12288e-07 0)
(6.45436e-06 -3.19843e-07 0)
(6.53077e-06 -3.31347e-07 0)
(6.61779e-06 -3.46875e-07 0)
(6.10555e-06 -1.03874e-06 -1.17656e-23)
(6.03255e-06 -7.7841e-07 0)
(5.98994e-06 -6.24412e-07 0)
(5.96802e-06 -5.29734e-07 0)
(5.96834e-06 -4.75671e-07 0)
(5.98723e-06 -4.47901e-07 0)
(6.02295e-06 -4.3787e-07 0)
(6.07288e-06 -4.39702e-07 0)
(6.13549e-06 -4.49536e-07 0)
(6.20812e-06 -4.64029e-07 0)
(6.29193e-06 -4.82987e-07 0)
(5.88344e-06 -1.23354e-06 -3.67936e-24)
(5.75752e-06 -9.53255e-07 0)
(5.6821e-06 -7.88045e-07 0)
(5.63901e-06 -6.86778e-07 0)
(5.62528e-06 -6.2958e-07 0)
(5.63454e-06 -6.00916e-07 0)
(5.66329e-06 -5.91582e-07 0)
(5.70783e-06 -5.95218e-07 0)
(5.76595e-06 -6.07584e-07 0)
(5.83436e-06 -6.25143e-07 0)
(5.91453e-06 -6.47308e-07 0)
(5.62497e-06 -1.42135e-06 -6.24808e-24)
(5.445e-06 -1.13553e-06 0)
(5.33603e-06 -9.67933e-07 0)
(5.27128e-06 -8.65647e-07 0)
(5.2431e-06 -8.0878e-07 0)
(5.24241e-06 -7.81326e-07 0)
(5.26387e-06 -7.73919e-07 0)
(5.30271e-06 -7.80021e-07 0)
(5.35601e-06 -7.95214e-07 0)
(5.41994e-06 -8.15956e-07 0)
(5.49606e-06 -8.41104e-07 0)
(5.33201e-06 -1.60103e-06 3.03113e-22)
(5.1002e-06 -1.32421e-06 0)
(4.95903e-06 -1.16313e-06 0)
(4.87346e-06 -1.06544e-06 0)
(4.8313e-06 -1.0124e-06 0)
(4.82089e-06 -9.88277e-07 0)
(4.8351e-06 -9.84037e-07 0)
(4.86819e-06 -9.93271e-07 0)
(4.91647e-06 -1.01164e-06 0)
(4.97582e-06 -1.03574e-06 0)
(5.04763e-06 -1.06395e-06 0)
(5.00663e-06 -1.77149e-06 1.92247e-22)
(4.72846e-06 -1.51751e-06 0)
(4.55844e-06 -1.37143e-06 0)
(4.45417e-06 -1.28371e-06 0)
(4.39934e-06 -1.23783e-06 0)
(4.37996e-06 -1.21903e-06 0)
(4.38728e-06 -1.2191e-06 0)
(4.41474e-06 -1.23205e-06 0)
(4.45791e-06 -1.25386e-06 0)
(4.51266e-06 -1.28165e-06 0)
(4.57946e-06 -1.31294e-06 0)
(7.34042e-06 0 0)
(7.45029e-06 0 0)
(7.56684e-06 0 0)
(7.68949e-06 0 0)
(7.81759e-06 0 0)
(7.95059e-06 0 0)
(8.08794e-06 0 0)
(8.22914e-06 0 0)
(8.3737e-06 0 0)
(8.52115e-06 0 0)
(8.67104e-06 0 0)
(8.82291e-06 0 0)
(8.97629e-06 0 0)
(9.13072e-06 0 0)
(9.28565e-06 0 0)
(9.44059e-06 0 0)
(9.59481e-06 0 0)
(9.74788e-06 0 0)
(9.89852e-06 0 -2.42108e-26)
(1.00468e-05 0 -3.95862e-23)
(7.30362e-06 -6.92919e-08 0)
(7.41655e-06 -6.9532e-08 0)
(7.5358e-06 -6.97872e-08 0)
(7.66081e-06 -6.97896e-08 0)
(7.79101e-06 -6.94806e-08 0)
(7.92588e-06 -6.88008e-08 0)
(8.06491e-06 -6.76995e-08 0)
(8.20762e-06 -6.61434e-08 0)
(8.35355e-06 -6.40936e-08 0)
(8.50227e-06 -6.1514e-08 0)
(8.65331e-06 -5.8361e-08 0)
(8.80626e-06 -5.45842e-08 0)
(8.96065e-06 -5.01223e-08 0)
(9.11603e-06 -4.49005e-08 0)
(9.27186e-06 -3.88285e-08 0)
(9.42768e-06 -3.17941e-08 0)
(9.58274e-06 -2.36664e-08 0)
(9.73663e-06 -1.42679e-08 0)
(9.88808e-06 -3.44539e-09 0)
(1.00372e-05 9.23963e-09 -8.19722e-23)
(7.19442e-06 -1.45017e-07 0)
(7.31642e-06 -1.44565e-07 0)
(7.44364e-06 -1.44292e-07 0)
(7.57565e-06 -1.43663e-07 0)
(7.71206e-06 -1.42524e-07 0)
(7.85245e-06 -1.40743e-07 0)
(7.99645e-06 -1.38198e-07 0)
(8.14364e-06 -1.34811e-07 0)
(8.29366e-06 -1.3049e-07 0)
(8.44611e-06 -1.25157e-07 0)
(8.6006e-06 -1.18715e-07 0)
(8.75676e-06 -1.11058e-07 0)
(8.91415e-06 -1.02059e-07 0)
(9.07236e-06 -9.15627e-08 0)
(9.23088e-06 -7.93863e-08 0)
(9.38928e-06 -6.53018e-08 0)
(9.54683e-06 -4.90448e-08 0)
(9.70317e-06 -3.02584e-08 0)
(9.85704e-06 -8.6339e-09 0)
(1.00086e-05 1.66977e-08 -1.38663e-22)
(7.01619e-06 -2.32867e-07 0)
(7.15283e-06 -2.29946e-07 0)
(7.29296e-06 -2.27655e-07 0)
(7.43633e-06 -2.25203e-07 0)
(7.58283e-06 -2.22258e-07 0)
(7.73223e-06 -2.18591e-07 0)
(7.88432e-06 -2.13967e-07 0)
(8.03884e-06 -2.0824e-07 0)
(8.19553e-06 -2.01246e-07 0)
(8.35409e-06 -1.92843e-07 0)
(8.51423e-06 -1.82869e-07 0)
(8.67563e-06 -1.71151e-07 0)
(8.83793e-06 -1.57483e-07 0)
(9.00076e-06 -1.41626e-07 0)
(9.16369e-06 -1.23296e-07 0)
(9.3263e-06 -1.02142e-07 0)
(9.48794e-06 -7.77611e-08 0)
(9.64827e-06 -4.96124e-08 0)
(9.80609e-06 -1.72237e-08 0)
(9.9616e-06 2.06987e-08 -2.22661e-23)
(6.77415e-06 -3.37966e-07 0)
(6.93033e-06 -3.30088e-07 0)
(7.08778e-06 -3.23672e-07 0)
(7.24644e-06 -3.17709e-07 0)
(7.40659e-06 -3.1157e-07 0)
(7.56819e-06 -3.04897e-07 0)
(7.73127e-06 -2.9729e-07 0)
(7.89574e-06 -2.88497e-07 0)
(8.0615e-06 -2.78251e-07 0)
(8.22839e-06 -2.66323e-07 0)
(8.39622e-06 -2.52466e-07 0)
(8.56476e-06 -2.36422e-07 0)
(8.73375e-06 -2.17898e-07 0)
(8.90289e-06 -1.96555e-07 0)
(9.0718e-06 -1.72e-07 0)
(9.24016e-06 -1.43753e-07 0)
(9.40736e-06 -1.11263e-07 0)
(9.57312e-06 -7.37993e-08 0)
(9.73633e-06 -3.07158e-08 0)
(9.89723e-06 1.96986e-08 3.47807e-23)
(6.47521e-06 -4.6445e-07 0)
(6.6549e-06 -4.48584e-07 0)
(6.83336e-06 -4.35443e-07 0)
(7.01068e-06 -4.23864e-07 0)
(7.18757e-06 -4.12794e-07 0)
(7.36418e-06 -4.01706e-07 0)
(7.54085e-06 -3.89974e-07 0)
(7.71764e-06 -3.772e-07 0)
(7.89465e-06 -3.62974e-07 0)
(8.07187e-06 -3.4695e-07 0)
(8.24925e-06 -3.28773e-07 0)
(8.42666e-06 -3.08078e-07 0)
(8.60395e-06 -2.84469e-07 0)
(8.78092e-06 -2.57494e-07 0)
(8.95726e-06 -2.26638e-07 0)
(9.13273e-06 -1.91282e-07 0)
(9.30682e-06 -1.50722e-07 0)
(9.4793e-06 -1.04029e-07 0)
(9.64919e-06 -5.03729e-08 0)
(9.81679e-06 1.23629e-08 7.75126e-23)
(6.12756e-06 -6.15196e-07 0)
(6.33367e-06 -5.88066e-07 0)
(6.53599e-06 -5.65333e-07 0)
(6.73465e-06 -5.45782e-07 0)
(6.93082e-06 -5.27831e-07 0)
(7.12481e-06 -5.10722e-07 0)
(7.31726e-06 -4.93558e-07 0)
(7.50841e-06 -4.75741e-07 0)
(7.69857e-06 -4.56685e-07 0)
(7.88788e-06 -4.35892e-07 0)
(8.07643e-06 -4.12872e-07 0)
(8.26425e-06 -3.87135e-07 0)
(8.45126e-06 -3.5816e-07 0)
(8.63739e-06 -3.25371e-07 0)
(8.82243e-06 -2.8812e-07 0)
(9.00622e-06 -2.45641e-07 0)
(9.18835e-06 -1.97067e-07 0)
(9.36869e-06 -1.41267e-07 0)
(9.54638e-06 -7.7221e-08 0)
(9.72182e-06 -2.43348e-09 1.39203e-22)
(5.74015e-06 -7.91487e-07 0)
(5.97434e-06 -7.49754e-07 0)
(6.20244e-06 -7.14454e-07 0)
(6.4244e-06 -6.84408e-07 0)
(6.6418e-06 -6.57489e-07 0)
(6.85508e-06 -6.3262e-07 0)
(7.06511e-06 -6.08617e-07 0)
(7.27234e-06 -5.84616e-07 0)
(7.47725e-06 -5.59826e-07 0)
(7.68015e-06 -5.33556e-07 0)
(7.88128e-06 -5.05153e-07 0)
(8.08079e-06 -4.73975e-07 0)
(8.27875e-06 -4.39361e-07 0)
(8.47518e-06 -4.00593e-07 0)
(8.66999e-06 -3.5688e-07 0)
(8.86311e-06 -3.073e-07 0)
(9.05426e-06 -2.50819e-07 0)
(9.24341e-06 -1.86104e-07 0)
(9.42986e-06 -1.11939e-07 0)
(9.61411e-06 -2.54796e-08 3.47976e-24)
(5.32255e-06 -9.93424e-07 0)
(5.58527e-06 -9.34127e-07 0)
(5.84003e-06 -8.83613e-07 0)
(6.08642e-06 -8.40648e-07 0)
(6.32629e-06 -8.02738e-07 0)
(6.56019e-06 -7.68366e-07 0)
(6.78913e-06 -7.3607e-07 0)
(7.01375e-06 -7.04678e-07 0)
(7.23468e-06 -6.73165e-07 0)
(7.45238e-06 -6.40623e-07 0)
(7.66723e-06 -6.06214e-07 0)
(7.87952e-06 -5.69124e-07 0)
(8.08944e-06 -5.28534e-07 0)
(8.29712e-06 -4.83573e-07 0)
(8.50258e-06 -4.33297e-07 0)
(8.70589e-06 -3.76621e-07 0)
(8.90686e-06 -3.12344e-07 0)
(9.10561e-06 -2.38936e-07 0)
(9.3016e-06 -1.54991e-07 0)
(9.49545e-06 -5.73881e-08 -4.01539e-23)
(4.88371e-06 -1.21855e-06 0)
(5.1742e-06 -1.13895e-06 0)
(5.45548e-06 -1.07097e-06 0)
(5.72692e-06 -1.01281e-06 0)
(5.99004e-06 -9.61999e-07 0)
(6.24555e-06 -9.16505e-07 0)
(6.49443e-06 -8.74589e-07 0)
(6.73747e-06 -8.34739e-07 0)
(6.9754e-06 -7.95656e-07 0)
(7.20883e-06 -7.56186e-07 0)
(7.43829e-06 -7.15274e-07 0)
(7.66419e-06 -6.71916e-07 0)
(7.88683e-06 -6.25119e-07 0)
(8.10648e-06 -5.73848e-07 0)
(8.32327e-06 -5.16999e-07 0)
(8.53738e-06 -4.53328e-07 0)
(8.74878e-06 -3.81467e-07 0)
(8.95769e-06 -2.99697e-07 0)
(9.16381e-06 -2.06432e-07 0)
(9.36788e-06 -9.82889e-08 2.4654e-23)
(4.43555e-06 -1.46387e-06 0)
(4.75178e-06 -1.3617e-06 0)
(5.05825e-06 -1.27519e-06 0)
(5.35391e-06 -1.20042e-06 0)
(5.63994e-06 -1.13531e-06 0)
(5.91701e-06 -1.07737e-06 0)
(6.18603e-06 -1.02464e-06 0)
(6.44784e-06 -9.75305e-07 0)
(6.70324e-06 -9.2779e-07 0)
(6.95293e-06 -8.80686e-07 0)
(7.19753e-06 -8.32713e-07 0)
(7.43757e-06 -7.82662e-07 0)
(7.67347e-06 -7.29353e-07 0)
(7.9056e-06 -6.71582e-07 0)
(8.13422e-06 -6.08082e-07 0)
(8.35961e-06 -5.37454e-07 0)
(8.5819e-06 -4.58169e-07 0)
(8.80143e-06 -3.68356e-07 0)
(9.01816e-06 -2.66236e-07 0)
(9.23289e-06 -1.48266e-07 7.18126e-23)
(7.34042e-06 0 0)
(7.45029e-06 0 0)
(7.56684e-06 0 0)
(7.68949e-06 0 0)
(7.81759e-06 0 0)
(7.95059e-06 0 0)
(8.08794e-06 0 0)
(8.22914e-06 0 0)
(8.3737e-06 0 0)
(8.52115e-06 0 0)
(8.67104e-06 0 0)
(8.82291e-06 0 0)
(8.97629e-06 0 0)
(9.13072e-06 0 0)
(9.28565e-06 0 0)
(9.44059e-06 0 0)
(9.59481e-06 0 0)
(9.74788e-06 0 0)
(9.89852e-06 0 -2.42108e-26)
(1.00468e-05 0 -3.95862e-23)
(7.30362e-06 -6.92919e-08 0)
(7.41655e-06 -6.9532e-08 0)
(7.5358e-06 -6.97872e-08 0)
(7.66081e-06 -6.97896e-08 0)
(7.79101e-06 -6.94806e-08 0)
(7.92588e-06 -6.88008e-08 0)
(8.06491e-06 -6.76995e-08 0)
(8.20762e-06 -6.61434e-08 0)
(8.35355e-06 -6.40936e-08 0)
(8.50227e-06 -6.1514e-08 0)
(8.65331e-06 -5.8361e-08 0)
(8.80626e-06 -5.45842e-08 0)
(8.96065e-06 -5.01223e-08 0)
(9.11603e-06 -4.49005e-08 0)
(9.27186e-06 -3.88285e-08 0)
(9.42768e-06 -3.17941e-08 0)
(9.58274e-06 -2.36664e-08 0)
(9.73663e-06 -1.42679e-08 0)
(9.88808e-06 -3.44539e-09 0)
(1.00372e-05 9.23963e-09 -8.19722e-23)
(7.19442e-06 -1.45017e-07 0)
(7.31642e-06 -1.44565e-07 0)
(7.44364e-06 -1.44292e-07 0)
(7.57565e-06 -1.43663e-07 0)
(7.71206e-06 -1.42524e-07 0)
(7.85245e-06 -1.40743e-07 0)
(7.99645e-06 -1.38198e-07 0)
(8.14364e-06 -1.34811e-07 0)
(8.29366e-06 -1.3049e-07 0)
(8.44611e-06 -1.25157e-07 0)
(8.6006e-06 -1.18715e-07 0)
(8.75676e-06 -1.11058e-07 0)
(8.91415e-06 -1.02059e-07 0)
(9.07236e-06 -9.15627e-08 0)
(9.23088e-06 -7.93863e-08 0)
(9.38928e-06 -6.53018e-08 0)
(9.54683e-06 -4.90448e-08 0)
(9.70317e-06 -3.02584e-08 0)
(9.85704e-06 -8.6339e-09 0)
(1.00086e-05 1.66977e-08 -1.38663e-22)
(7.01619e-06 -2.32867e-07 0)
(7.15283e-06 -2.29946e-07 0)
(7.29296e-06 -2.27655e-07 0)
(7.43633e-06 -2.25203e-07 0)
(7.58283e-06 -2.22258e-07 0)
(7.73223e-06 -2.18591e-07 0)
(7.88432e-06 -2.13967e-07 0)
(8.03884e-06 -2.0824e-07 0)
(8.19553e-06 -2.01246e-07 0)
(8.35409e-06 -1.92843e-07 0)
(8.51423e-06 -1.82869e-07 0)
(8.67563e-06 -1.71151e-07 0)
(8.83793e-06 -1.57483e-07 0)
(9.00076e-06 -1.41626e-07 0)
(9.16369e-06 -1.23296e-07 0)
(9.3263e-06 -1.02142e-07 0)
(9.48794e-06 -7.77611e-08 0)
(9.64827e-06 -4.96124e-08 0)
(9.80609e-06 -1.72237e-08 0)
(9.9616e-06 2.06987e-08 -2.22661e-23)
(6.77415e-06 -3.37966e-07 0)
(6.93033e-06 -3.30088e-07 0)
(7.08778e-06 -3.23672e-07 0)
(7.24644e-06 -3.17709e-07 0)
(7.40659e-06 -3.1157e-07 0)
(7.56819e-06 -3.04897e-07 0)
(7.73127e-06 -2.9729e-07 0)
(7.89574e-06 -2.88497e-07 0)
(8.0615e-06 -2.78251e-07 0)
(8.22839e-06 -2.66323e-07 0)
(8.39622e-06 -2.52466e-07 0)
(8.56476e-06 -2.36422e-07 0)
(8.73375e-06 -2.17898e-07 0)
(8.90289e-06 -1.96555e-07 0)
(9.0718e-06 -1.72e-07 0)
(9.24016e-06 -1.43753e-07 0)
(9.40736e-06 -1.11263e-07 0)
(9.57312e-06 -7.37993e-08 0)
(9.73633e-06 -3.07158e-08 0)
(9.89723e-06 1.96986e-08 3.47807e-23)
(6.47521e-06 -4.6445e-07 0)
(6.6549e-06 -4.48584e-07 0)
(6.83336e-06 -4.35443e-07 0)
(7.01068e-06 -4.23864e-07 0)
(7.18757e-06 -4.12794e-07 0)
(7.36418e-06 -4.01706e-07 0)
(7.54085e-06 -3.89974e-07 0)
(7.71764e-06 -3.772e-07 0)
(7.89465e-06 -3.62974e-07 0)
(8.07187e-06 -3.4695e-07 0)
(8.24925e-06 -3.28773e-07 0)
(8.42666e-06 -3.08078e-07 0)
(8.60395e-06 -2.84469e-07 0)
(8.78092e-06 -2.57494e-07 0)
(8.95726e-06 -2.26638e-07 0)
(9.13273e-06 -1.91282e-07 0)
(9.30682e-06 -1.50722e-07 0)
(9.4793e-06 -1.04029e-07 0)
(9.64919e-06 -5.03729e-08 0)
(9.81679e-06 1.23629e-08 7.75126e-23)
(6.12756e-06 -6.15196e-07 0)
(6.33367e-06 -5.88066e-07 0)
(6.53599e-06 -5.65333e-07 0)
(6.73465e-06 -5.45782e-07 0)
(6.93082e-06 -5.27831e-07 0)
(7.12481e-06 -5.10722e-07 0)
(7.31726e-06 -4.93558e-07 0)
(7.50841e-06 -4.75741e-07 0)
(7.69857e-06 -4.56685e-07 0)
(7.88788e-06 -4.35892e-07 0)
(8.07643e-06 -4.12872e-07 0)
(8.26425e-06 -3.87135e-07 0)
(8.45126e-06 -3.5816e-07 0)
(8.63739e-06 -3.25371e-07 0)
(8.82243e-06 -2.8812e-07 0)
(9.00622e-06 -2.45641e-07 0)
(9.18835e-06 -1.97067e-07 0)
(9.36869e-06 -1.41267e-07 0)
(9.54638e-06 -7.7221e-08 0)
(9.72182e-06 -2.43348e-09 1.39203e-22)
(5.74015e-06 -7.91487e-07 0)
(5.97434e-06 -7.49754e-07 0)
(6.20244e-06 -7.14454e-07 0)
(6.4244e-06 -6.84408e-07 0)
(6.6418e-06 -6.57489e-07 0)
(6.85508e-06 -6.3262e-07 0)
(7.06511e-06 -6.08617e-07 0)
(7.27234e-06 -5.84616e-07 0)
(7.47725e-06 -5.59826e-07 0)
(7.68015e-06 -5.33556e-07 0)
(7.88128e-06 -5.05153e-07 0)
(8.08079e-06 -4.73975e-07 0)
(8.27875e-06 -4.39361e-07 0)
(8.47518e-06 -4.00593e-07 0)
(8.66999e-06 -3.5688e-07 0)
(8.86311e-06 -3.073e-07 0)
(9.05426e-06 -2.50819e-07 0)
(9.24341e-06 -1.86104e-07 0)
(9.42986e-06 -1.11939e-07 0)
(9.61411e-06 -2.54796e-08 3.47976e-24)
(5.32255e-06 -9.93424e-07 0)
(5.58527e-06 -9.34127e-07 0)
(5.84003e-06 -8.83613e-07 0)
(6.08642e-06 -8.40648e-07 0)
(6.32629e-06 -8.02738e-07 0)
(6.56019e-06 -7.68366e-07 0)
(6.78913e-06 -7.3607e-07 0)
(7.01375e-06 -7.04678e-07 0)
(7.23468e-06 -6.73165e-07 0)
(7.45238e-06 -6.40623e-07 0)
(7.66723e-06 -6.06214e-07 0)
(7.87952e-06 -5.69124e-07 0)
(8.08944e-06 -5.28534e-07 0)
(8.29712e-06 -4.83573e-07 0)
(8.50258e-06 -4.33297e-07 0)
(8.70589e-06 -3.76621e-07 0)
(8.90686e-06 -3.12344e-07 0)
(9.10561e-06 -2.38936e-07 0)
(9.3016e-06 -1.54991e-07 0)
(9.49545e-06 -5.73881e-08 -4.01539e-23)
(4.88371e-06 -1.21855e-06 0)
(5.1742e-06 -1.13895e-06 0)
(5.45548e-06 -1.07097e-06 0)
(5.72692e-06 -1.01281e-06 0)
(5.99004e-06 -9.61999e-07 0)
(6.24555e-06 -9.16505e-07 0)
(6.49443e-06 -8.74589e-07 0)
(6.73747e-06 -8.34739e-07 0)
(6.9754e-06 -7.95656e-07 0)
(7.20883e-06 -7.56186e-07 0)
(7.43829e-06 -7.15274e-07 0)
(7.66419e-06 -6.71916e-07 0)
(7.88683e-06 -6.25119e-07 0)
(8.10648e-06 -5.73848e-07 0)
(8.32327e-06 -5.16999e-07 0)
(8.53738e-06 -4.53328e-07 0)
(8.74878e-06 -3.81467e-07 0)
(8.95769e-06 -2.99697e-07 0)
(9.16381e-06 -2.06432e-07 0)
(9.36788e-06 -9.82889e-08 2.4654e-23)
(4.43555e-06 -1.46387e-06 0)
(4.75178e-06 -1.3617e-06 0)
(5.05825e-06 -1.27519e-06 0)
(5.35391e-06 -1.20042e-06 0)
(5.63994e-06 -1.13531e-06 0)
(5.91701e-06 -1.07737e-06 0)
(6.18603e-06 -1.02464e-06 0)
(6.44784e-06 -9.75305e-07 0)
(6.70324e-06 -9.2779e-07 0)
(6.95293e-06 -8.80686e-07 0)
(7.19753e-06 -8.32713e-07 0)
(7.43757e-06 -7.82662e-07 0)
(7.67347e-06 -7.29353e-07 0)
(7.9056e-06 -6.71582e-07 0)
(8.13422e-06 -6.08082e-07 0)
(8.35961e-06 -5.37454e-07 0)
(8.5819e-06 -4.58169e-07 0)
(8.80143e-06 -3.68356e-07 0)
(9.01816e-06 -2.66236e-07 0)
(9.23289e-06 -1.48266e-07 7.18126e-23)
(3.89636e-06 -1.77603e-06 0)
(4.22992e-06 -1.65215e-06 0)
(4.55082e-06 -1.54261e-06 0)
(4.86166e-06 -1.44789e-06 0)
(5.16265e-06 -1.36437e-06 0)
(5.45424e-06 -1.29021e-06 0)
(5.73704e-06 -1.22331e-06 0)
(6.01173e-06 -1.16182e-06 0)
(6.27901e-06 -1.10405e-06 0)
(6.53957e-06 -1.04848e-06 0)
(6.79403e-06 -9.937e-07 0)
(7.04298e-06 -9.38419e-07 0)
(7.28694e-06 -8.81397e-07 0)
(7.52634e-06 -8.21422e-07 0)
(7.76159e-06 -7.57259e-07 0)
(7.99303e-06 -6.87625e-07 0)
(8.22099e-06 -6.11117e-07 0)
(8.44572e-06 -5.26234e-07 0)
(8.66767e-06 -4.31145e-07 0)
(8.88696e-06 -3.24182e-07 0)
(9.10451e-06 -2.01933e-07 7.49212e-23)
(3.71579e-06 -1.95979e-06 0)
(4.04689e-06 -1.83398e-06 0)
(4.36795e-06 -1.71944e-06 0)
(4.68021e-06 -1.61801e-06 0)
(4.98361e-06 -1.52698e-06 0)
(5.27832e-06 -1.44482e-06 0)
(5.56466e-06 -1.36977e-06 0)
(5.84313e-06 -1.30017e-06 0)
(6.11423e-06 -1.23446e-06 0)
(6.37853e-06 -1.17119e-06 0)
(6.63658e-06 -1.10902e-06 0)
(6.88889e-06 -1.04665e-06 0)
(7.13594e-06 -9.82849e-07 0)
(7.37819e-06 -9.16411e-07 0)
(7.61605e-06 -8.46098e-07 0)
(7.84989e-06 -7.70638e-07 0)
(8.08011e-06 -6.88655e-07 0)
(8.30703e-06 -5.98699e-07 0)
(8.53119e-06 -4.99033e-07 0)
(8.75287e-06 -3.88105e-07 0)
(8.97306e-06 -2.628e-07 1.52531e-22)
(3.55802e-06 -2.1377e-06 0)
(3.8847e-06 -2.01011e-06 0)
(4.20299e-06 -1.89203e-06 0)
(4.51406e-06 -1.7854e-06 0)
(4.81736e-06 -1.68812e-06 0)
(5.11289e-06 -1.59902e-06 0)
(5.40069e-06 -1.51666e-06 0)
(5.68108e-06 -1.43961e-06 0)
(5.95438e-06 -1.36647e-06 0)
(6.22104e-06 -1.2959e-06 0)
(6.48148e-06 -1.22663e-06 0)
(6.73616e-06 -1.15742e-06 0)
(6.9855e-06 -1.08706e-06 0)
(7.22994e-06 -1.01438e-06 0)
(7.46988e-06 -9.38159e-07 0)
(7.70571e-06 -8.57162e-07 0)
(7.93788e-06 -7.70068e-07 0)
(8.16676e-06 -6.75503e-07 0)
(8.39295e-06 -5.71852e-07 0)
(8.61688e-06 -4.57701e-07 0)
(8.83953e-06 -3.3025e-07 2.20126e-22)
(3.4192e-06 -2.30808e-06 0)
(3.73992e-06 -2.17993e-06 0)
(4.05374e-06 -2.05952e-06 0)
(4.36173e-06 -1.94887e-06 0)
(4.66308e-06 -1.84641e-06 0)
(4.95762e-06 -1.75136e-06 0)
(5.24522e-06 -1.66254e-06 0)
(5.52599e-06 -1.57875e-06 0)
(5.80012e-06 -1.49878e-06 0)
(6.06792e-06 -1.42141e-06 0)
(6.3297e-06 -1.34547e-06 0)
(6.58584e-06 -1.26978e-06 0)
(6.83672e-06 -1.19321e-06 0)
(7.08272e-06 -1.11461e-06 0)
(7.32423e-06 -1.03282e-06 0)
(7.56166e-06 -9.4666e-07 0)
(7.79545e-06 -8.54886e-07 0)
(8.02604e-06 -7.56216e-07 0)
(8.25405e-06 -6.4918e-07 0)
(8.48002e-06 -5.32515e-07 0)
(8.70492e-06 -4.03764e-07 1.93125e-22)
(3.29679e-06 -2.47089e-06 0)
(3.61039e-06 -2.34292e-06 0)
(3.91849e-06 -2.22119e-06 0)
(4.22203e-06 -2.10758e-06 0)
(4.51999e-06 -2.00102e-06 0)
(4.81214e-06 -1.90097e-06 0)
(5.09815e-06 -1.80656e-06 0)
(5.37803e-06 -1.7168e-06 0)
(5.65181e-06 -1.63066e-06 0)
(5.91968e-06 -1.54706e-06 0)
(6.18187e-06 -1.46494e-06 0)
(6.43866e-06 -1.38323e-06 0)
(6.69037e-06 -1.30084e-06 0)
(6.93735e-06 -1.21671e-06 0)
(7.17995e-06 -1.12973e-06 0)
(7.41858e-06 -1.03882e-06 0)
(7.65369e-06 -9.42795e-07 0)
(7.88574e-06 -8.40505e-07 0)
(8.11535e-06 -7.30631e-07 0)
(8.34314e-06 -6.12074e-07 0)
(8.57006e-06 -4.82729e-07 1.9486e-22)
(3.18787e-06 -2.62611e-06 0)
(3.49376e-06 -2.499e-06 0)
(3.79537e-06 -2.37673e-06 0)
(4.0935e-06 -2.26105e-06 0)
(4.38706e-06 -2.15126e-06 0)
(4.67574e-06 -2.04711e-06 0)
(4.9591e-06 -1.94792e-06 0)
(5.23704e-06 -1.85295e-06 0)
(5.5095e-06 -1.76131e-06 0)