/*--------------------------------*- C++ -*----------------------------------*\
| =========                 |                                                 |
| \\      /  F ield         | foam-extend: Open Source CFD                    |
|  \\    /   O peration     | Version:     4.1                                |
|   \\  /    A nd           | Web:         http://www.foam-extend.org         |
|    \\/     M anipulation  |                                                 |
\*---------------------------------------------------------------------------*/
FoamFile
{
    version     2.0;
    format      ascii;
    class       volSymmTensorField;
    location    "8";
    object      sigma;
}
// * * * * * * * * * * * * * * * * * * * * * * * * * * * * * * * * * * * * * //

dimensions      [1 -1 -2 0 0 0 0];

internalField   nonuniform List<symmTensor> 
1000
(
(703901 -433477 -2.14937e-10 304780 -4.08089e-10 302604)
(916404 -336542 1.21517e-09 49180.2 2.62894e-10 289675)
(1.02028e+06 -267124 -1.32092e-09 -65992.2 -9.42257e-10 286285)
(1.07716e+06 -218158 -5.0643e-10 -143295 -1.16512e-10 280158)
(1.10474e+06 -180899 -8.5005e-11 -181117 2.26826e-11 277088)
(1.11425e+06 -152919 5.33225e-10 -202255 3.40005e-10 273597)
(1.11425e+06 -130688 -9.54518e-10 -209705 -5.36261e-10 271364)
(1.10714e+06 -113413 2.09179e-10 -210336 1.255e-10 269042)
(1.09894e+06 -98837.3 -3.82122e-10 -205788 -2.24686e-10 267944)
(1.08325e+06 -86346.1 -4.71701e-10 -200819 -2.97029e-10 264729)
(938478 -520918 6.03375e-10 357722 -3.5335e-10 388860)
(1.09187e+06 -358302 -1.22021e-09 106171 -3.22982e-10 359413)
(1.15903e+06 -253052 -1.1282e-09 -6030.06 -3.02441e-10 345899)
(1.18739e+06 -183611 -8.79186e-10 -86292.4 -6.05454e-10 330328)
(1.19486e+06 -135110 -1.92314e-10 -126981 -1.71425e-10 320364)
(1.18856e+06 -101540 7.64669e-10 -152607 4.49577e-10 310787)
(1.17641e+06 -76978.8 -8.94535e-10 -164129 -6.11238e-10 303684)
(1.15971e+06 -59655 3.62787e-10 -169579 3.06979e-10 297040)
(1.14242e+06 -46048.6 -6.75691e-10 -167977 -5.23996e-10 292333)
(1.12122e+06 -36342.1 -2.49858e-10 -169120 -2.79402e-10 285631)
(1.19387e+06 -584653 7.45111e-10 379038 4.54819e-11 471873)
(1.26996e+06 -367924 -9.53006e-10 151841 -4.15749e-10 426541)
(1.29052e+06 -233618 8.73757e-10 53818.2 3.93735e-10 403300)
(1.28491e+06 -147837 -7.88661e-10 -22709.4 -3.78937e-10 378660)
(1.26937e+06 -90671 -1.92638e-10 -62381.4 -1.45686e-10 362098)
(1.24586e+06 -53059.4 -7.35583e-10 -90253 -4.30309e-10 346683)
(1.22114e+06 -27137.5 1.35493e-15 -104574 -3.66411e-15 334969)
(1.19453e+06 -10086.3 -2.5319e-12 -114140 3.35941e-12 324118)
(1.16944e+06 2233.27 -5.20581e-11 -115808 -2.4697e-10 316091)
(1.14153e+06 11196.2 8.08073e-11 -122014 -6.12663e-11 305855)
(1.45943e+06 -617118 2.57491e-09 372635 -5.1293e-10 549620)
(1.44492e+06 -363318 5.47291e-10 186394 4.0802e-10 489395)
(1.41178e+06 -209733 4.11068e-10 111625 3.80899e-10 457023)
(1.36858e+06 -113451 2.3868e-10 44340.1 1.66206e-10 423875)
(1.3282e+06 -51110.7 1.72436e-09 8778.06 1.03216e-09 401094)
(1.28691e+06 -11396.8 -1.29738e-11 -19536.2 -2.98096e-11 380212)
(1.24953e+06 14802 -6.17647e-12 -35861.8 2.90786e-11 364100)
(1.21368e+06 31235.1 -1.63467e-11 -48931.1 2.89781e-11 349424)
(1.18136e+06 42096.3 3.75513e-10 -54282.9 1.86365e-10 338123)
(1.14862e+06 50045.2 -3.53069e-11 -64527.7 -7.54215e-11 325227)
(1.7226e+06 -613148 -1.94343e-09 344773 4.98508e-11 620212)
(1.61058e+06 -343254 8.82096e-10 210957 3.59236e-10 546461)
(1.52029e+06 -182303 7.25185e-10 165688 3.53736e-10 505795)
(1.43811e+06 -82587.7 7.54647e-10 111644 3.90211e-10 464926)
(1.3725e+06 -19242.2 -4.5341e-10 82513.2 -2.40385e-10 436504)
(1.31367e+06 20236.2 6.4782e-10 55211.9 2.92391e-10 410664)
(1.26425e+06 45444.8 2.04773e-10 37625.7 1.23632e-10 390563)
(1.21988e+06 60719.4 -3.99508e-10 21551.2 -1.47277e-10 372430)
(1.18142e+06 69956.2 9.23224e-10 12382 3.57193e-10 358141)
(1.14468e+06 76810.3 8.60825e-11 -1467.54 -1.04811e-11 342963)
(1.96982e+06 -570550 -2.81935e-11 303241 -2.21095e-13 681918)
(1.76066e+06 -307522 -2.30148e-10 227116 -6.97033e-11 596334)
(1.61389e+06 -152161 1.13836e-09 214139 4.9161e-10 548408)
(1.49387e+06 -56657.9 2.98374e-10 175423 8.90192e-11 500788)
(1.4041e+06 3230.74 -4.23707e-10 153980 -1.66979e-10 467425)
(1.32887e+06 39996.3 -1.07598e-09 128651 -5.25523e-10 437258)
(1.26846e+06 62903.8 8.86344e-12 110373 -1.47578e-10 413649)
(1.21659e+06 76436.3 -5.70498e-11 91849.9 1.85386e-10 392533)
(1.17294e+06 83939.8 2.93435e-10 78983.5 2.25323e-10 375576)
(1.13306e+06 89610.1 7.53144e-10 62133.8 3.08908e-10 358559)
(2.18752e+06 -490383 7.33414e-10 256529 -9.53184e-11 733215)
(1.88915e+06 -257033 -3.99654e-10 236796 5.66859e-11 637784)
(1.69077e+06 -120076 3.35282e-10 255280 2.48419e-10 583815)
(1.53664e+06 -36324.4 1.03733e-10 231966 -7.30125e-11 530581)
(1.42531e+06 15730.2 6.02095e-10 218381 1.12927e-10 493107)
(1.33569e+06 47356.2 -2.30835e-11 195457 -9.75061e-11 459344)
(1.26582e+06 66707.8 1.79559e-10 176889 2.91095e-10 432812)
(1.20764e+06 77937.4 6.25368e-10 156440 4.95714e-10 409224)
(1.15982e+06 83692.6 -2.99161e-10 140230 -1.49574e-10 390015)
(1.1175e+06 88157.7 8.60287e-11 120979 -1.59224e-10 371543)
(2.36324e+06 -376923 0 212872 0 772834)
(1.99074e+06 -193735 1.9311e-09 241939 5.8498e-10 669805)
(1.74965e+06 -86658.1 -2.03694e-09 287593 -5.58058e-10 611172)
(1.56752e+06 -21398.8 -7.72499e-11 277834 -1.27589e-10 553606)
(1.43863e+06 18922.8 -1.9406e-10 271230 2.02423e-11 512957)
(1.33742e+06 43252.3 1.00824e-09 250642 3.77579e-10 476419)
(1.26004e+06 57949.9 3.54637e-10 232027 1.3653e-10 447621)
(1.19694e+06 66377.2 -4.89059e-10 210169 -9.10056e-11 422134)
(1.14598e+06 70424.7 2.07042e-11 191201 -8.72117e-11 401155)
(1.10186e+06 73653.8 -2.33826e-10 170166 -1.91578e-10 381609)
(2.48655e+06 -237387 1.32003e-09 179334 1.34327e-10 799767)
(2.06098e+06 -120579 -1.08462e-10 244211 -2.17345e-10 691558)
(1.78936e+06 -52426.6 -6.78071e-10 309790 -1.35439e-10 629745)
(1.58734e+06 -10959.9 5.65616e-10 310078 1.79784e-10 569225)
(1.44602e+06 14571.2 -2.27331e-10 308681 -5.20808e-11 526412)
(1.33669e+06 29914.8 -5.8054e-10 289920 -8.33462e-11 487984)
(1.2541e+06 39110.3 3.74386e-13 271358 -1.37346e-10 457639)
(1.18762e+06 44345.6 -6.84238e-12 248577 8.21353e-11 430860)
(1.13458e+06 46750.9 -6.19515e-12 227637 4.48244e-11 408664)
(1.08927e+06 48713.7 -2.38033e-10 205409 -1.50557e-10 388405)
(2.55e+06 -81124.5 -1.11006e-09 161426 1.9758e-10 813427)
(2.09699e+06 -41024.1 -9.01018e-10 245618 -3.02769e-10 702781)
(1.80955e+06 -17611.5 6.8936e-10 322079 2.21006e-10 639489)
(1.59723e+06 -3364.22 -1.07705e-09 327899 -1.39407e-10 577538)
(1.44948e+06 5399.29 4.34684e-10 329398 -1.35214e-10 533664)
(1.33596e+06 10660.1 -1.9047e-10 311685 2.90664e-11 494293)
(1.25069e+06 13803.2 -3.74942e-14 293193 1.39659e-10 463166)
(1.18249e+06 15588.8 -1.53622e-10 269941 8.30023e-11 435728)
(1.12839e+06 16393.5 -5.38785e-10 247957 -2.25837e-10 412904)
(1.0825e+06 17058.1 2.66887e-10 225077 1.98268e-11 392274)
(-64664.7 21307.9 -1.52704e-10 -936017 6.91253e-10 -300205)
(-39681.7 -9525.92 2.27059e-10 -617646 3.25058e-10 -197198)
(-9268.79 -25242.1 2.99721e-12 -422566 -1.46434e-10 -129550)
(57616.7 -33644.1 -1.20372e-11 -289516 1.03821e-10 -69569.8)
(120843 -37562.8 -1.36719e-10 -202224 -9.43818e-11 -24414.2)
(188125 -38939.7 1.80992e-10 -139665 7.46771e-11 14538)
(249271 -38837.6 2.53636e-11 -95615.7 3.03823e-11 46096.7)
(307489 -37945.8 -3.35197e-11 -62152.7 5.55912e-11 73601.1)
(359205 -36430 1.80269e-10 -37291.5 4.8725e-11 96574)
(407687 -35325.5 -1.67417e-11 -15736.2 -2.40939e-11 117585)
(-63176 59256.9 8.44296e-12 -890788 3.02126e-11 -286189)
(-21865.5 -29888.5 -3.99283e-10 -597042 -5.71594e-10 -185672)
(17202.1 -75078.2 3.04372e-10 -415453 3.0001e-10 -119475)
(87689.5 -99076.4 2.20975e-10 -290941 1.59949e-10 -60975.4)
(152218 -110170 -5.62705e-11 -208597 -7.3258e-11 -16913.8)
(219217 -113944 -6.02427e-10 -149036 -2.22426e-10 21054.4)
(279307 -113484 -9.94301e-12 -106658 -8.41086e-14 51794.6)
(336113 -110755 -1.01695e-10 -74098.3 -6.18667e-11 78604.3)
(385934 -106263 6.3796e-11 -49556.2 -3.09999e-12 100913)
(433166 -102961 1.58312e-10 -28054.9 -1.29935e-11 121533)
(-59561.7 84609 -1.23695e-10 -803445 -5.72581e-10 -258902)
(11811.4 -53006.1 -3.04453e-10 -557450 -2.67792e-10 -163692)
(65967.7 -122360 4.7395e-10 -401820 1.24112e-10 -100756)
(142743 -158899 1.02422e-10 -293655 1.15265e-10 -45273.7)
(209354 -175534 2.77522e-10 -220772 1.30322e-10 -3425.48)
(275645 -180889 -2.70375e-10 -166945 -1.35208e-10 32609.8)
(333649 -179765 -4.38211e-10 -127774 -1.25921e-10 61762.7)
(387761 -175140 -1.49285e-10 -96950.2 -3.37756e-11 87243.2)
(434008 -167902 7.53824e-12 -73047 -6.30742e-13 108288)
(478944 -162480 2.15245e-10 -51685.7 9.62489e-11 128178)
(-48486 90963.9 -4.44365e-10 -680557 -6.30331e-12 -218713)
(63163.7 -79834.2 2.01273e-10 -500828 -2.75688e-10 -131299)
(137320 -165171 -1.20252e-09 -381148 -9.21608e-10 -73148.4)
(222108 -209656 -2.71688e-10 -295754 1.78209e-11 -22093.7)
(291102 -229362 -1.64937e-11 -236075 3.54316e-11 16508.1)
(356006 -235086 3.56918e-10 -190322 1.60606e-10 49705.2)
(410828 -232852 -9.85205e-11 -155718 -5.28818e-13 76532.9)
(460936 -226267 2.99029e-10 -127409 2.01222e-10 100058)
(502089 -216656 -5.30849e-10 -104527 -1.02191e-10 119269)
(543622 -209255 4.77598e-10 -83424.7 7.28032e-11 138059)
(-24282.3 73682.5 1.2008e-10 -531538 -4.36481e-10 -166746)
(132577 -111106 1.00317e-09 -430613 9.24662e-10 -89410.7)
(228869 -202137 -9.55409e-10 -353718 -6.40431e-10 -37454.6)
(321885 -248774 -4.46794e-10 -295639 -2.41928e-10 7873.8)
(392794 -268456 3.94069e-10 -251861 1.66397e-10 42279.7)
(455304 -273045 5.28586e-10 -215944 2.17204e-10 71808)
(505807 -269157 3.00552e-10 -186987 1.94871e-10 95645.9)
(550654 -260563 5.30747e-10 -161862 1.61812e-10 116638)
(585492 -249041 -1.17638e-10 -140408 -1.29847e-10 133525)
(622521 -239884 -7.24432e-10 -119736 -7.23057e-11 150836)
(19542.7 30900.6 -1.17385e-11 -367295 2.87688e-11 -104326)
(220435 -146768 6.3062e-10 -350655 3.16096e-10 -39065.8)
(337752 -232191 5.11816e-10 -319520 4.60795e-10 5469.86)
(437463 -274624 -2.51175e-10 -291041 -1.68593e-10 43926.6)
(508931 -290898 -4.60439e-10 -264601 -2.03472e-10 73299.1)
(567664 -292728 -2.90543e-10 -239601 -1.16035e-10 98419)
(612661 -286604 4.68718e-10 -217070 2.3922e-10 118677)
(651057 -275987 -5.61536e-10 -195686 -3.01445e-10 136612)
(678678 -263041 9.32749e-10 -176157 2.83484e-10 150756)
(710149 -252417 3.18302e-11 -156178 -1.28937e-10 166191)
(89348.2 -36274.3 5.49556e-10 -199534 -1.00778e-09 -33055.8)
(326817 -185997 -1.73967e-09 -265320 -9.5395e-10 18449)
(460697 -254666 5.94264e-10 -278900 3.99248e-10 54539)
(563789 -286650 -5.43547e-11 -279916 1.5437e-10 85162)
(633579 -296215 2.56351e-10 -270880 1.22717e-10 108810)
(686801 -293749 -1.06768e-10 -257140 -3.97097e-11 128898)
(725107 -284864 -6.53903e-10 -241402 -2.76418e-10 145111)
(755966 -272295 3.77249e-10 -224229 1.66606e-10 159521)
(775875 -258417 -3.43135e-10 -207071 -1.50589e-10 170641)
(800775 -246643 7.15376e-10 -188272 1.78829e-10 183751)
(190464 -123811 -2.04737e-10 -39570 2.94425e-10 45268.3)
(451221 -227154 -5.67472e-10 -178935 -6.64787e-10 81685.8)
(594064 -269241 -8.34339e-10 -232353 -7.98505e-10 108514)
(695549 -285289 3.09877e-10 -260450 1.51738e-10 130530)
(760544 -285277 8.25832e-10 -267600 4.03627e-10 147883)
(806163 -277215 7.52241e-10 -264718 3.67013e-10 162433)
(836503 -265163 -1.17211e-10 -255869 2.23387e-11 174190)
(858841 -250802 4.31653e-10 -243176 1.8308e-10 184700)
(870819 -236426 -4.24518e-10 -229161 -3.04752e-10 192498)
(888202 -223790 1.50758e-10 -212002 1.45892e-10 202860)
(326421 -225097 5.90313e-10 102581 7.94905e-10 128701)
(592529 -267905 8.15691e-10 -95553.8 1.04262e-09 149093)
(734288 -275933 8.67509e-10 -180618 2.43354e-10 166101)
(827966 -271932 1.25855e-10 -231371 -1.30758e-10 178978)
(884541 -260250 2.62246e-11 -252250 -3.87308e-11 189687)
(920347 -245780 -1.8995e-11 -259178 -5.45224e-12 198351)
(941644 -230382 6.86337e-10 -256690 3.62788e-10 205486)
(954594 -214698 -9.16476e-10 -248876 -5.93962e-10 211715)
(959047 -200264 8.46961e-10 -238085 3.50597e-10 216289)
(967623 -187208 9.11577e-11 -224608 4.83007e-11 222905)
(498195 -331569 8.84735e-10 219061 -1.47828e-09 215177)
(748565 -305421 8.68004e-10 -18643.5 4.27969e-10 218976)
(877461 -275077 1.1607e-09 -124759 5.83158e-10 225810)
(956230 -248724 5.58728e-10 -192214 4.37732e-10 229205)
(1.00016e+06 -224289 -8.82529e-10 -223537 -4.89753e-10 232987)
(1.02366e+06 -203030 -7.9193e-10 -238547 -4.34518e-10 235534)
(1.03435e+06 -184334 2.07864e-11 -241793 -1.23332e-11 237766)
(1.03705e+06 -167668 -4.16429e-10 -238251 -2.38552e-10 239639)
(1.03381e+06 -153915 4.32987e-10 -232051 3.98234e-10 240527)
(1.03205e+06 -140899 5.89676e-10 -220186 1.34716e-10 243561)
(450360 -32636.4 8.75591e-11 -1525.09 -3.19491e-13 134650)
(489174 -29186.3 1.62793e-10 13899.6 -4.9104e-11 150922)
(524029 -26438.5 8.77101e-12 26833.6 -1.15052e-13 165259)
(556083 -23905.6 -1.3904e-10 39153.2 -7.50574e-11 178571)
(585091 -21649.2 -5.54375e-10 51015.8 -2.56337e-11 190832)
(611644 -19651 -8.43715e-11 62752.1 1.01148e-10 202319)
(635879 -17853.8 4.90588e-10 74703.4 5.22735e-11 213175)
(658065 -16248.1 -4.92178e-10 87035.8 -2.75731e-11 223530)
(678385 -14790.5 4.36403e-11 100003 1.4778e-10 233516)
(696999 -13461.5 2.70092e-10 113772 5.02241e-11 243231)
(714025 -12229.4 4.59016e-11 128550 1.39065e-10 252772)
(729584 -11070.7 5.3466e-10 144543 5.05707e-11 262238)
(743673 -9958.52 4.89939e-10 161950 -9.59288e-11 271687)
(756455 -8866.33 -5.31959e-10 181069 -4.66772e-11 281257)
(767650 -7768.06 -7.90077e-10 202070 1.368e-12 290916)
(777747 -6630.32 4.18376e-10 225496 6.68559e-11 300973)
(785611 -5426.95 -1.03792e-11 251296 -2.30471e-11 311072)
(793139 -4101.85 2.91359e-10 280749 5.62327e-11 322166)
(796152 -2662.92 2.43786e-10 312802 -2.38066e-12 332686)
(802207 -866.447 6.08272e-11 351037 6.32744e-12 345973)
(472771 -95126.8 2.48902e-12 -13099 2.74018e-12 137902)
(507591 -85238.7 -2.35076e-10 3573.73 -2.61493e-11 153349)
(539625 -77329.5 1.21525e-10 17759.6 2.7091e-11 167216)
(569046 -70042 3.89732e-10 31025.1 1.33011e-10 180021)
(595990 -63521.7 -2.27789e-10 43818.8 -8.58418e-13 191943)
(620718 -57742.9 -3.33635e-10 56283.2 -1.08543e-10 203100)
(643464 -52527.7 2.23752e-10 68889.5 1.07249e-10 213706)
(664355 -47860.8 5.77669e-11 81747.1 5.22671e-11 223831)
(683591 -43613 -5.17127e-10 95157.3 -1.61704e-10 233624)
(701268 -39732.3 -3.08297e-10 109276 -5.66762e-11 243163)
(717495 -36126.7 -6.84718e-12 124327 -1.92749e-13 252547)
(732364 -32728.8 9.4558e-10 140518 7.91669e-11 261865)
(745860 -29461 4.35474e-11 158052 4.32577e-11 271173)
(758130 -26245.5 -2.20756e-10 177228 4.55123e-11 280607)
(768886 -23006.2 -4.79766e-11 198215 -5.2885e-11 290130)
(778609 -19644.7 -5.11603e-11 221552 -4.58429e-11 300048)
(786166 -16084.3 -1.82764e-10 247184 4.10716e-11 310005)
(793439 -12158.2 -1.32315e-10 276375 -1.20612e-11 320944)
(796283 -7892.55 7.36502e-10 308066 1.00698e-10 331305)
(802196 -2567.92 1.89436e-10 345798 4.76238e-11 344398)
(512747 -150393 1.37049e-10 -35423.3 -2.90381e-11 143197)
(540349 -135468 2.96623e-10 -16437.5 9.15257e-11 157174)
(567297 -123297 -7.58026e-10 174.648 -6.53762e-11 170241)
(591973 -112100 8.18886e-11 15235.4 6.06987e-11 182162)
(615233 -101941 4.16269e-10 29833.1 -2.35369e-11 193520)
(636688 -92920.4 -6.41092e-10 43703 -3.93928e-11 204117)
(656778 -84712.6 -3.41853e-10 57581.3 -6.27977e-11 214308)
(675355 -77341.7 7.71839e-10 71460.9 4.99026e-11 224045)
(692659 -70597.9 4.3732e-10 85733.8 -3.65906e-11 233518)
(708664 -64414.4 -5.71696e-10 100535 -7.53234e-11 242760)
(723470 -58647.3 -6.54576e-10 116120 -1.29608e-10 251877)
(737112 -53194.6 2.60356e-10 132696 1.58189e-11 260942)
(749556 -47934.4 4.49904e-10 150478 7.3447e-11 270010)
(760922 -42743.1 1.56069e-11 169764 -7.40321e-11 279206)
(770912 -37499.3 2.92116e-11 190722 1.92707e-11 288490)
(779986 -32043.2 -6.52726e-10 213882 -7.16679e-11 298160)
(787022 -26251.6 -3.22099e-10 239184 -9.72372e-12 307862)
(793868 -19851.7 -1.19187e-10 267862 -5.10069e-11 318519)
(796459 -12888.3 2.53163e-10 298852 4.39849e-11 328593)
(802145 -4198.06 2.3072e-10 335613 1.00633e-10 341327)
(569507 -194299 1.44787e-10 -65529.9 4.76886e-11 151193)
(586931 -176562 -1.32628e-10 -43975.3 -1.87652e-12 162887)
(606875 -161522 7.34745e-11 -24126.6 -6.28417e-11 174824)
(624816 -147747 -1.01057e-11 -6818.31 -6.62015e-11 185399)
(642903 -134933 5.18499e-11 10183.2 -2.98209e-11 195926)
(659690 -123517 -1.83702e-10 25914.6 -3.65689e-11 205681)
(676001 -112991 -2.30338e-10 41508.2 -6.85891e-11 215253)
(691264 -103482 -1.08164e-10 56778.7 -6.21895e-11 224413)
(705795 -94713 4.70861e-11 72235.4 3.00942e-11 233409)
(719394 -86624.7 2.0168e-10 87983.5 1.17161e-10 242213)
(732150 -79037.3 -3.515e-10 104315 -7.48048e-11 250939)
(744017 -71825.5 2.24599e-10 121436 6.48829e-11 259636)
(754939 -64834.8 5.27255e-10 139571 5.11305e-11 268353)
(764993 -57903.8 -2.13085e-10 159014 -6.15706e-11 277202)
(773870 -50873.7 -4.87602e-10 179933 -4.67699e-11 286141)
(781997 -43529.4 -3.05143e-10 202839 -5.89452e-11 295451)
(788276 -35707 2.16401e-10 227662 -1.12421e-11 304781)
(794498 -27033.5 2.61181e-10 255590 5.2698e-11 315026)
(796720 -17569.1 7.10144e-11 285555 1.13097e-11 324683)
(802070 -5741.09 -1.59045e-10 320889 -9.73807e-11 336888)
(639227 -223739 2.7858e-10 -100150 -4.85575e-11 161723)
(644381 -205950 1.32047e-10 -76566.8 -1.74394e-10 170344)
(656123 -189789 -2.99431e-10 -53043 5.20965e-11 180924)
(665843 -175123 -1.35814e-10 -33361 -5.46819e-12 189745)
(677679 -160910 4.72392e-10 -13601.3 5.65653e-11 199223)
(688723 -148169 -2.66315e-10 4292.01 8.50156e-11 207904)
(700371 -136187 -2.91286e-10 21904.5 -7.8876e-11 216683)
(711519 -125253 2.40663e-10 38839.5 -4.5811e-11 225108)
(722584 -115054 -1.16413e-10 55711.5 4.95803e-11 233489)
(733168 -105560 -6.84171e-12 72598.7 5.44218e-11 241730)
(743336 -96582.9 -2.60773e-10 89821.3 -2.40543e-11 249947)
(752958 -87986.6 -3.01624e-10 107587 -1.50615e-10 258164)
(761941 -79599.6 9.12603e-10 126128 1.10777e-10 266421)
(770318 -71233.1 1.08492e-10 145734 5.32203e-11 274815)
(777762 -62700.2 -1.80413e-10 166567 -4.51017e-11 283299)
(784665 -53739.2 1.37706e-10 189114 2.56562e-11 292134)
(789958 -44152 -5.99808e-10 213292 -1.46554e-10 300975)
(795356 -33475.9 2.49015e-10 240223 7.59469e-11 310674)
(797091 -21783.7 -1.14748e-10 268838 -3.2105e-11 319779)
(801978 -7146.05 5.35523e-11 302289 1.74264e-11 331280)
(717296 -236791 -1.29754e-10 -135215 -1.67098e-10 174624)
(709060 -221905 -2.01697e-10 -111194 1.28352e-10 179360)
(712166 -206501 -2.02465e-10 -84295.8 6.1945e-11 188361)
(712766 -192791 -1.52501e-10 -62669.6 -1.63005e-10 195029)
(717693 -178631 3.34177e-10 -40337.9 2.44305e-10 203206)
(722281 -165784 3.47049e-10 -20329.6 6.26163e-11 210586)
(728632 -153376 5.45913e-10 -702.42 4.04295e-11 218379)
(735091 -141864 -6.898e-10 17976.8 -1.21788e-10 225920)
(742162 -130960 -4.55688e-10 36359.9 -9.62972e-12 233557)
(749267 -120669 -4.9901e-11 54509.3 -1.20602e-10 241133)
(756430 -110825 6.53728e-10 72743.5 7.31668e-11 248752)
(763439 -101295 -1.24884e-10 91267.7 -1.14474e-10 256412)
(770158 -91909.4 -3.87282e-10 110306 -5.57123e-11 264139)
(776570 -82464.6 1.80042e-10 130135 8.7594e-11 272011)
(782332 -72758.5 -2.55817e-10 150903 -4.81354e-11 279971)
(787792 -62493.3 -1.36558e-10 173061 -2.97964e-11 288256)
(791922 -51446.5 -5.41741e-11 196506 -2.20583e-11 296528)
(796344 -39076.9 2.79865e-10 222272 7.39607e-11 305585)
(797507 -25468.5 3.40641e-10 249282 1.12369e-10 314037)
(801847 -8393.49 -2.68253e-10 280457 -1.82007e-10 324691)
(798959 -233163 -5.6818e-11 -166401 5.29922e-11 189767)
(777397 -224105 1.15266e-10 -143980 6.41957e-11 190025)
(772259 -211345 5.90695e-10 -114544 7.46636e-11 197314)
(763623 -200342 -9.3937e-10 -91458.7 -1.88792e-10 201649)
(761445 -187735 -6.51192e-11 -67025.5 7.26678e-11 208326)
(759362 -175947 6.31285e-11 -45034.2 -6.90281e-11 214298)
(760074 -164141 6.67683e-10 -23553.1 2.12215e-10 220956)
(761552 -152868 2.67021e-10 -3187.49 2.77268e-11 227509)
(764290 -141968 -3.67487e-10 16633 -1.70442e-10 234277)
(767609 -131476 -1.61441e-10 35983.8 -8.05324e-11 241078)
(771455 -121288 -2.61215e-10 55156.1 -3.43202e-11 247983)
(775560 -111288 6.91703e-11 74357.3 3.58188e-11 254975)
(779737 -101323 2.25472e-10 93798 1.0617e-10 262060)
(783923 -91186.2 0 113741 0 269299)
(787765 -80670.9 4.77938e-11 134314 -3.92581e-11 276624)
(791559 -69454 2.61285e-10 155923 6.41115e-11 284245)
(794337 -57297.5 -1.26715e-10 178441 -1.94237e-11 291833)
(797601 -43599.2 -4.69813e-10 202793 -1.65929e-10 300118)
(798078 -28454.3 3.98379e-10 227900 1.44017e-10 307793)
(801725 -9418.97 -1.21146e-10 256400 -1.0738e-10 317437)
(878541 -213345 5.66495e-10 -190564 7.06288e-11 206393)
(844855 -212396 -4.50538e-10 -172492 -9.8249e-11 201709)
(832326 -204107 4.07434e-10 -143110 1.95357e-10 206765)
(815191 -197251 1.33709e-10 -119678 6.05782e-11 208654)
(805978 -187807 -1.04171e-09 -94503.6 -3.85721e-10 213442)
(797474 -178291 2.43327e-10 -71190.4 1.09405e-10 217885)
(792443 -168250 2.74178e-10 -48388.8 3.4867e-11 223216)
(788909 -158171 9.81433e-10 -26573.7 2.6908e-10 228701)
(787180 -148098 -2.56351e-10 -5399.62 -3.41567e-11 234534)
(786601 -138095 -7.16265e-11 15199.5 5.46902e-11 240540)
(787004 -128145 6.95569e-11 35431.4 -4.92271e-11 246731)
(788095 -118169 -6.86961e-11 55472.1 4.30964e-11 253070)
(789626 -108053 7.97112e-11 75490.2 1.1124e-10 259535)
(791496 -97604.9 9.18351e-10 95713.2 2.31607e-10 266163)
(793333 -86629.5 -3.91032e-10 116233 -1.25508e-10 272870)
(795387 -74793.8 -7.51612e-10 137399 -2.01748e-10 279836)
(796752 -61855.7 6.16389e-10 159046 2.0607e-10 286739)
(798805 -47166.2 1.20088e-10 181973 3.7103e-11 294233)
(798582 -30832.5 -3.54173e-10 205089 -1.408e-10 301101)
(801531 -10252.3 1.05805e-10 230695 6.37656e-11 309668)
(952955 -181028 -5.2235e-10 -203658 -2.06166e-10 224789)
(909781 -189326 -1.84882e-10 -189969 3.79522e-11 215943)
(890757 -187463 1.66289e-10 -163499 -4.18498e-11 218178)
(867010 -185253 5.94573e-10 -140120 1.16847e-10 218067)
(851131 -180036 -4.17035e-10 -115261 -7.80024e-11 220761)
(836979 -173426 -3.11734e-10 -91227 3.06119e-11 223725)
(826453 -165785 0 -67741.6 0 227613)
(818130 -157467 4.91267e-10 -45097.8 1.51186e-10 231910)
(811982 -148757 7.15729e-10 -23178.9 2.53033e-10 236641)
(807474 -139763 2.60777e-10 -1923.98 4.15066e-11 241665)
(804330 -130545 -4.56152e-10 18815.4 -1.39688e-10 246944)
(802254 -121066 -7.76916e-10 39187.8 -1.42709e-10 252432)
(800955 -111244 -3.82049e-10 59324.9 -1.78693e-10 258084)
(800306 -100910 7.34331e-10 79412.7 1.65115e-10 263916)
(799936 -89882.3 8.14868e-10 99501.6 2.77861e-10 269831)
(800044 -77830.4 -3.87636e-10 119868 -1.38276e-10 275974)
(799812 -64516.4 -1.41822e-10 140303 -6.36873e-11 282035)
(800465 -49269.4 5.05966e-10 161454 2.04992e-10 288576)
(799406 -32215.5 -4.63389e-10 182238 -2.047e-10 294493)
(801441 -10741.1 9.52109e-13 204604 6.55371e-13 301814)
(1.01169e+06 -136731 4.22592e-10 -211041 1.13575e-10 240195)
(967740 -151315 -3.19653e-10 -200621 -6.4204e-11 230136)
(941400 -158688 1.13019e-11 -182978 -8.0321e-11 227527)
(913656 -162451 -1.60982e-10 -162288 3.09964e-11 225410)
(891212 -163360 -2.96137e-10 -139827 2.22673e-12 225415)
(871835 -161496 -2.59483e-10 -116411 -1.53755e-10 226627)
(855994 -157725 -2.16242e-10 -92742.4 -2.38709e-10 228975)
(843075 -152412 -1.53298e-11 -69308.1 1.1734e-11 232130)
(832780 -145990 1.64499e-11 -46318.8 -9.07099e-12 235938)
(824656 -138713 5.14029e-10 -23899.9 9.03093e-11 240227)
(818333 -130754 6.50086e-10 -2050.97 2.68819e-10 244885)
(813474 -122173 -4.09893e-10 19280.5 -2.02587e-10 249826)
(809735 -112959 -6.47179e-10 40152.1 -2.43257e-10 254966)
(806942 -102997 -4.24041e-10 60688.1 -1.47975e-10 260289)
(804714 -92139 1.73157e-10 80883.7 8.44282e-11 265679)
(803197 -80077.1 8.12768e-12 100939 8.99301e-13 271241)
(801664 -66586.7 -2.30824e-10 120591 -8.03661e-11 276677)
(801199 -50992.1 4.45428e-12 140329 1.10666e-12 282459)
(799610 -33423 2.24138e-10 159088 1.03928e-10 287609)
(801119 -11198.1 -6.03092e-11 178447 -4.67747e-11 293870)
(1.05087e+06 -100051 1.53522e-10 -201022 8.91157e-11 254956)
(1.01176e+06 -112354 3.05689e-10 -188090 2.09246e-10 247102)
(979626 -126762 3.17268e-10 -177334 9.29696e-11 240688)
(950488 -134753 8.56673e-11 -161153 1.39934e-11 236801)
(925118 -139921 1.12696e-10 -142051 1.50397e-10 234920)
(902983 -142027 2.89127e-11 -121328 -9.85437e-11 234496)
(884116 -141780 -5.90591e-10 -99631.2 -2.19126e-10 235345)
(868092 -139575 -2.1105e-10 -77649.3 -4.71426e-11 237133)
(854686 -135802 2.10063e-10 -55705.5 4.56115e-11 239694)
(843526 -130748 -2.57908e-10 -34054.3 -5.2026e-11 242842)
(834303 -124614 6.57325e-10 -12808.6 2.8816e-10 246448)
(826720 -117510 4.03021e-10 7981.9 1.5876e-10 250411)
(820468 -109468 -5.91216e-11 28285.9 4.52247e-11 254626)
(815377 -100421 1.48526e-10 48137.2 9.05586e-11 259054)
(811108 -90260.3 2.35089e-10 67458.8 6.80403e-11 263570)
(807769 -78728.4 -1.6494e-11 86342.5 -4.46815e-12 268233)
(804747 -65634.5 1.40334e-10 104470 7.22584e-11 272765)
(802942 -50356.8 7.45339e-11 122140 2.29511e-11 277525)
(800545 -33058.7 -2.24561e-10 138274 -1.08022e-10 281646)
(801066 -11105.4 -1.10458e-10 154105 -1.22521e-10 286551)
(1.04812e+06 -70705.8 -1.05064e-09 -177770 -3.40438e-10 261104)
(1.01972e+06 -84311.7 -5.1629e-10 -174823 -2.98786e-10 253469)
(990741 -99837.7 4.5185e-10 -165949 2.39135e-11 247438)
(964410 -110427 -2.5031e-10 -152867 1.61207e-10 243463)
(940428 -117991 -4.81704e-10 -136405 -2.42299e-10 241207)
(918895 -122587 5.82752e-10 -118028 1.45522e-10 240260)
(899888 -124719 -5.39073e-24 -98385.2 -2.17548e-24 240451)
(883208 -124748 -6.16169e-10 -78160.6 -3.37713e-10 241514)
(868746 -123015 -1.16309e-24 -57730 -9.04757e-25 243305)
(856262 -119783 -1.62667e-10 -37402.7 -1.21534e-10 245658)
(845546 -115247 -1.5911e-10 -17359.3 -1.14129e-10 248456)
(836377 -109521 2.51079e-10 2277.76 6.17573e-11 251596)
(828517 -102655 -2.46253e-10 21409.8 -6.46155e-11 254978)
(821836 -94613.5 -7.17959e-24 39991.5 -2.21706e-24 258548)
(816061 -85319.9 2.3781e-10 57887.8 7.41794e-11 262185)
(811295 -74565 -2.34162e-10 75092.8 -8.10449e-11 265916)
(807051 -62202.2 -1.4284e-10 91253.6 -7.65275e-11 269492)
(804110 -47692 2.27956e-10 106508 9.96385e-11 273185)
(801049 -31242.6 -2.79839e-24 119807 -1.38039e-24 276257)
(800827 -10466.6 -6.7848e-11 132054 -6.34633e-11 279864)
(1.04716e+06 -40900.2 -2.11269e-10 -156102 -1.42785e-10 267316)
(1.02118e+06 -56466.7 4.86589e-10 -156920 5.96575e-11 259278)
(996242 -73193.9 -6.38004e-10 -152029 -2.13177e-10 253264)
(971955 -85741.1 1.70103e-10 -142677 1.68076e-10 248784)
(949496 -95404.3 9.51762e-11 -129539 -3.08263e-10 245987)
(928679 -102264 -3.61999e-24 -114045 -1.73306e-24 244390)
(909889 -106625 1.19284e-10 -96842.1 -7.12088e-11 243914)
(892977 -108806 -2.78518e-10 -78678.8 -7.10799e-11 244289)
(877965 -109070 -1.62153e-10 -59987.6 -1.31117e-10 245393)
(864687 -107656 -3.81726e-24 -41153.3 -1.53213e-24 247060)
(853017 -104739 -1.57254e-10 -22427.9 -1.16615e-10 249177)
(842794 -100438 -2.65745e-24 -4008.75 -7.18442e-25 251635)
(833843 -94815.3 -5.53973e-10 13938.5 -2.77591e-10 254334)
(826068 -87860.5 -3.00798e-10 31294.8 -1.93995e-10 257209)
(819263 -79529.6 9.17373e-11 47868.3 -1.1107e-11 260139)
(813524 -69660.1 9.00008e-11 63566 8.14692e-13 263127)
(808484 -58152.7 -1.44347e-10 78000 -8.06955e-11 265945)
(804800 -44552.6 -7.15041e-26 91167 2.79587e-26 268790)
(801401 -29115.3 -1.40194e-10 102062 -7.25511e-11 271039)
(800656 -9719.59 -2.95157e-10 111308 -3.28415e-10 273589)
(1.03833e+06 -17934.6 8.49623e-11 -135785 -1.23785e-10 270764)
(1.01596e+06 -33231.1 -3.23349e-10 -139775 -1.22126e-10 262854)
(994908 -50120.2 -1.33599e-24 -137309 -6.54745e-25 257280)
(973233 -63582.2 1.52397e-10 -130693 -6.22955e-11 252762)
(952916 -74550 1.58365e-10 -120195 1.58867e-10 249817)
(933486 -82968.3 2.56899e-24 -107185 7.65291e-25 247890)
(915573 -88998.2 3.4147e-25 -92256.3 -9.33409e-25 246995)
(899057 -92870.4 -1.21877e-10 -76145.2 6.02974e-11 246874)
(884075 -94778 0 -59298.7 0 247433)
(870534 -94915.5 -6.44747e-24 -42133.6 -2.76657e-24 248520)
(858388 -93433.3 0 -24944.2 0 250033)
(847536 -90441.3 5.11508e-10 -7978.89 1.50314e-10 251867)
(837869 -86006.9 9.94845e-11 8546.59 -2.79743e-11 253925)
(829328 -80136.8 -3.95735e-10 24453.8 -1.8029e-10 256134)
(821771 -72813.4 -1.4802e-10 39505.5 -9.39764e-11 258383)
(815294 -63918 -2.3814e-10 53536.6 -9.14893e-11 260649)
(809645 -53395.3 -9.01233e-11 66137.3 -1.44345e-11 262735)
(805366 -40877.5 2.3211e-10 77190.2 1.07783e-10 264767)
(801709 -26652.4 2.29908e-10 85752.8 1.1809e-10 266239)
(800500 -8875.42 -2.28714e-10 92195.5 -2.62183e-10 267809)
(1.02442e+06 1305.03 -6.38605e-11 -116569 2.03332e-10 272355)
(1.00544e+06 -13639.6 -1.35652e-10 -122638 -1.66367e-10 264842)
(988108 -30190.8 -4.53468e-10 -122254 -2.78839e-10 259756)
(969160 -43941.6 -1.61734e-10 -118122 5.33074e-11 255312)
(951195 -55606.9 4.47718e-10 -110098 2.55516e-10 252329)
(933476 -65016.3 2.93371e-10 -99493.9 9.38292e-11 250195)
(916834 -72229 -3.53037e-24 -86802.5 -2.09798e-24 249010)
(901148 -77383.9 -2.8021e-10 -72750.2 -8.50424e-11 248519)
(886653 -80605.6 2.73925e-10 -57780.8 8.23889e-11 248662)
(873307 -82038.1 -1.51339e-10 -42335.6 -1.25212e-10 249291)
(861133 -81799.1 -1.50783e-10 -26739.1 -1.18956e-10 250318)
(850082 -79982.4 1.06934e-10 -11280 -3.15583e-11 251641)
(840102 -76652.4 1.49075e-10 3786.44 1.07073e-10 253166)
(831169 -71827.8 0 18233.9 0 254821)
(823202 -65512.3 0 31789.8 0 256497)
(816297 -57627.2 -2.3964e-10 44230.7 -9.60634e-11 258158)
(810302 -48158.1 4.22116e-24 55133.8 2.00792e-24 259631)
(805657 -36823.7 9.12774e-11 64289.2 2.65083e-11 260984)
(801894 -23935.6 0 70822.9 0 261815)
(800355 -7943.64 -2.309e-10 74886.1 -2.64058e-10 262572)
(1.00714e+06 16504.1 4.16004e-10 -98904.6 2.5095e-10 272471)
(991366 2379.63 5.00522e-10 -106386 9.00056e-11 265494)
(977384 -13348.2 -6.15191e-10 -107475 -2.34709e-10 260973)