/*--------------------------------*- C++ -*----------------------------------*\
| =========                 |                                                 |
| \\      /  F ield         | foam-extend: Open Source CFD                    |
|  \\    /   O peration     | Version:     4.1                                |
|   \\  /    A nd           | Web:         http://www.foam-extend.org         |
|    \\/     M anipulation  |                                                 |
\*---------------------------------------------------------------------------*/
FoamFile
{
    version     2.0;
    format      ascii;
    class       volScalarField;
    location    "8";
    object      sigmaHyd;
}
// * * * * * * * * * * * * * * * * * * * * * * * * * * * * * * * * * * * * * //

dimensions      [1 -1 -2 0 0 0 0];

internalField   nonuniform List<scalar> 
1000
(
-437095
-418420
-413523
-404673
-400239
-395196
-391970
-388617
-387031
-382386
-561687
-519152
-499632
-477141
-462748
-448914
-438654
-429057
-422259
-412577
-681595
-616115
-582545
-546953
-523030
-500765
-483844
-468170
-456576
-441791
-793895
-706904
-660144
-612264
-579359
-549195
-525922
-504723
-488399
-469773
-895862
-789332
-730592
-671559
-630506
-593181
-564146
-537954
-517315
-495391
-984993
-861371
-792145
-723360
-675169
-631594
-597493
-566991
-542499
-517919
-1.05909e+06
-921243
-843289
-766395
-712266
-663497
-625172
-591102
-563355
-536673
-1.11632e+06
-967496
-882804
-799653
-740938
-688161
-646563
-609748
-579446
-551213
-1.15522e+06
-998917
-909632
-822215
-760372
-704866
-661033
-622354
-590292
-561029
-1.17495e+06
-1.01513e+06
-923706
-834221
-770848
-713979
-669017
-629385
-596416
-566618
433629
284842
187128
100490
35265
-20999.3
-66584.1
-106313
-139496
-169846
413384
268193
172575
88075.6
24431
-30411.9
-74814.4
-113540
-145764
-175548
373969
236443
145536
65395.3
4947.92
-47103
-89212.8
-126018
-156416
-185145
315919
189655
105659
31913.1
-23845.1
-71796.5
-110547
-144528
-172277
-199419
240856
129149
54101.1
-11373.3
-61070.7
-103723
-138155
-168477
-192870
-217874
150693
56428.3
-7900.91
-63449.5
-105876
-142161
-171423
-197328
-217759
-240054
47747.3
-26648.6
-78778.5
-123012
-157170
-186187
-209605
-230420
-246482
-265418
-65387.5
-117991
-156742
-188543
-213609
-234626
-251608
-266788
-278052
-293020
-185901
-215356
-239924
-258524
-273992
-286507
-296813
-305811
-312417
-321973
-310811
-316299
-326170
-331074
-336537
-340216
-343440
-346145
-347428
-351810
-194495
-217999
-238707
-257936
-275646
-292238
-307919
-322877
-337301
-351334
-365116
-378789
-392436
-406260
-420212
-434739
-449326
-465351
-480546
-499739
-199191
-221505
-241534
-260031
-277251
-293367
-308686
-323311
-337457
-351235
-364790
-378249
-391695
-405322
-419077
-433403
-447785
-463586
-478551
-497464
-206840
-227028
-245904
-263124
-279529
-294836
-309556
-323620
-337303
-350653
-363822
-376917
-390015
-403297
-416708
-430676
-444689
-460083
-474635
-493028
-218390
-235281
-252524
-267799
-283004
-297095
-310921
-324152
-337146
-349864
-362468
-375030
-387621
-400403
-413315
-426762
-440240
-455038
-468986
-486615
-233600
-246053
-261334
-274076
-287767
-300306
-312986
-325155
-337262
-349166
-361035
-372903
-384830
-396956
-409209
-421971
-434742
-448751
-461902
-478516
-252235
-259075
-272077
-281709
-293520
-304179
-315436
-326329
-337360
-348303
-359308
-370373
-381534
-392905
-404402
-416370
-428319
-441400
-453608
-468998
-274108
-274481
-285010
-291271
-300915
-309542
-319159
-328625
-338400
-348224
-358198
-368298
-378532
-388988
-399567
-410576
-421537
-433504
-444590
-458521
-298123
-291357
-298660
-301389
-308306
-314723
-322424
-330345
-338771
-347447
-356389
-365546
-374884
-384457
-394145
-404207
-414179
-425004
-434924
-447298
-324695
-311918
-315146
-314986
-318877
-323159
-328775
-334981
-341815
-349072
-356697
-364625
-372788
-381212
-389756
-398629
-407383
-416831
-425379
-435953
-346948
-332418
-328650
-325593
-325600
-327350
-330742
-335299
-340800
-346994
-353722
-360860
-368285
-375973
-383759
-391792
-399644
-407996
-415436
-424479
-368269
-356925
-347660
-342045
-339329
-338717
-339943
-342525
-346225
-350771
-355981
-361704
-367793
-374190
-380712
-387448
-393994
-400869
-406821
-413908
-377151
-366122
-357410
-351669
-348410
-347042
-347318
-348854
-351440
-354839
-358881
-363417
-368302
-373459
-378711
-384101
-389266
-394601
-399037
-404248
-386124
-374513
-365826
-359354
-355315
-353008
-352320
-352863
-354457
-356865
-359922
-363473
-367372
-371524
-375757
-380072
-384143
-388253
-391501
-395184
-391103
-379678
-371626
-365101
-360846
-358064
-356771
-356595
-357403
-358974
-361159
-363808
-366780
-369972
-373220
-376493
-379506
-382441
-384567
-386835
-393402
-382550
-375203
-368783
-364475
-361392
-359680
-358972
-359178
-360088
-361571
-363481
-365685
-368075
-370496
-372895
-375022
-376977
-378177
-379271
-393570
-383491
-376961
-370901
-366769
-363623
-361704
-360654
-360425
-360821
-361732
-363022
-364566
-366256
-367953
-369584
-370936
-372041
-372454
-372562
-391987
-382869
-377167
-371595
-367752
-364684
-362696
-361450
-360925
-360946
-361419
-362217
-363228
-364349
-365451
-366451
-367172
-367589
-367379
-366711
-389083
-381003
-376139
-371161
-367710
-364850
-362922
-361607
-360912
-360676
-360824
-361241
-361828
-362486
-363103
-363588
-363800
-363669
-362979
-361724
-385126
-378134
-374096
-369775
-366779
-364215
-362440
-361158
-360394
-360006
-359933
-360072
-360339
-360642
-360884
-360973
-360797
-360257
-359226
-357563
-380377
-374485
-371257
-367637
-365144
-362950
-361405
-360241
-359496
-359043
-358838
-358789
-358826
-358867
-358831
-358627
-358172
-357346
-356094
-354182
-375028
-370230
-367798
-364902
-362946
-361174
-359918
-358939
-358282
-357839
-357576
-357417
-357306
-357169
-356942
-356539
-355902
-354902
-353538
-351516
-369231
-365522
-363870
-361715
-360322
-359011
-358090
-357350
-356838
-356465
-356208
-356005
-355811
-355568
-355224
-354704
-353968
-352889
-351505
-349491
-363130
-360479
-359614
-358212
-357400
-356581
-356030
-355568
-355245
-354988
-354784
-354587
-354366
-354075
-353676
-353106
-352342
-351263
-349935
-348028
-356792
-355234
-355133
-354493
-354278
-353974
-353819
-353667
-353565
-353458
-353345
-353194
-352988
-352693
-352289
-351723
-350989
-349976
-348765
-347041
-350391
-349785
-350569
-350717
-351102
-351332
-351584
-351758
-351892
-351955
-351952
-351869
-351702
-351434
-351058
-350537
-349875
-348978
-347932
-346452
-343839
-344479
-345972
-346887
-347899
-348672
-349355
-349869
-350255
-350498
-350617
-350615
-350503
-350280
-349956
-349507
-348950
-348209
-347364
-346173
-337573
-339520
-341558
-343460
-344937
-346269
-347345
-348186
-348804
-349213
-349439
-349505
-349439
-349259
-348988
-348623
-348188
-347626
-347010
-346138
-331056
-333964
-337075
-339682
-341989
-343883
-345426
-346604
-347463
-348029
-348351
-348472
-348440
-348293
-348075
-347801
-347503
-347143
-346778
-346249
-325404
-329409
-333489
-336868
-339801
-342202
-344117
-345561
-346586
-347240
-347591
-347704
-347649
-347488
-347284
-347073
-346902
-346746
-346655
-346464
-318777
-324359
-329361
-333697
-337403
-340417
-342786
-344537
-345742
-346475
-346830
-346900
-346787
-346582
-346375
-346227
-346199
-346274
-346469
-346595
-541557
-536837
-528681
-516451
-500446
-480908
-458297
-433420
-407198
-382198
-518780
-515328
-509562
-500978
-489851
-476333
-460658
-442810
-422916
-396797
-498325
-495447
-490690
-483528
-474147
-462651
-449399
-434615
-419444
-400809
-479711
-477543
-474082
-468862
-462019
-453545
-443597
-432029
-419444
-403957
-462507
-460771
-458055
-453931
-448498
-441776
-433931
-425044
-415309
-404299
-446597
-445305
-443372
-440412
-436465
-431518
-425557
-418776
-410776
-402829
-431623
-430653
-429268
-427127
-424234
-420616
-416155
-411268
-404994
-399733
-417498
-416829
-415962
-414590
-412666
-410229
-407020
-403625
-398697
-395438
-403990
-403564
-403111
-402358
-401221
-399769
-397642
-395548
-391876
-390198
-390997
-390794
-390719
-390529
-390099
-389508
-388320
-387299
-384729
-384267
-378373
-378364
-378620
-378922
-379117
-379286
-378948
-378865
-377319
-377823
-366000
-366171
-366737
-367494
-368267
-369126
-369568
-370308
-369711
-371005
-353796
-354136
-354991
-356173
-357491
-358992
-360173
-361669
-361972
-363942
-341592
-342095
-343232
-344827
-346676
-348795
-350697
-352910
-354090
-356680
-329426
-330088
-331505
-333508
-335883
-338613
-341230
-344153
-346193
-349385
-316921
-317746
-319453
-321875
-324795
-328155
-331516
-335169
-338109
-341924
-304510
-305502
-307505
-310358
-313838
-317849
-321972
-326406
-330238
-334876
-291041
-292215
-294545
-297876
-301979
-306716
-311697
-316976
-321847
-327112
-278417
-279777
-282442
-286259
-290996
-296478
-302330
-308500
-314397
-320442
-262598
-264186
-267271
-271702
-277248
-283692
-290676
-298025
-305275
-312412
)
;

boundaryField
{
    left
    {
        type            symmetryPlane;
        value           nonuniform List<scalar> 
30
(
-541557
-518780
-498325
-479711
-462507
-446597
-431623
-417498
-403990
-390997
-378373
-366000
-353796
-341592
-329426
-316921
-304510
-291041
-278417
-262598
-1.17495e+06
-1.01513e+06
-923706
-834221
-770848
-713979
-669017
-629385
-596416
-566618
)
;
    }
    right
    {
        type            zeroGradient;
    }
    down
    {
        type            symmetryPlane;
        value           nonuniform List<scalar> 
30
(
433629
284842
187128
100490
35265
-20999.3
-66584.1
-106313
-139496
-169846
-194495
-217999
-238707
-257936
-275646
-292238
-307919
-322877
-337301
-351334
-365116
-378789
-392436
-406260
-420212
-434739
-449326
-465351
-480546
-499739
)
;
    }
    up
    {
        type            zeroGradient;
    }
    hole
    {
        type            zeroGradient;
    }
    frontAndBack
    {
        type            empty;
    }
}


// ************************************************************************* //
