/*--------------------------------*- C++ -*----------------------------------*\
| =========                 |                                                 |
| \\      /  F ield         | foam-extend: Open Source CFD                    |
|  \\    /   O peration     | Version:     4.1                                |
|   \\  /    A nd           | Web:         http://www.foam-extend.org         |
|    \\/     M anipulation  |                                                 |
\*---------------------------------------------------------------------------*/
FoamFile
{
    version     2.0;
    format      ascii;
    class       vectorField;
    location    "8";
    object      solidsCellD_iteration14;
}
// * * * * * * * * * * * * * * * * * * * * * * * * * * * * * * * * * * * * * //


1000
(
(4.1805e-06 -1.79155e-06 0)
(3.94179e-06 -1.66601e-06 0)
(3.78883e-06 -1.58586e-06 0)
(3.7005e-06 -1.54783e-06 0)
(3.65671e-06 -1.53382e-06 0)
(3.6454e-06 -1.5384e-06 0)
(3.65801e-06 -1.55507e-06 0)
(3.68858e-06 -1.58073e-06 0)
(3.73265e-06 -1.61248e-06 0)
(3.78736e-06 -1.64842e-06 0)
(3.77951e-06 -1.95689e-06 0)
(3.52536e-06 -1.86903e-06 0)
(3.36271e-06 -1.81269e-06 0)
(3.26726e-06 -1.79081e-06 0)
(3.21795e-06 -1.78752e-06 0)
(3.20172e-06 -1.79964e-06 0)
(3.20965e-06 -1.8217e-06 0)
(3.23537e-06 -1.85138e-06 0)
(3.27426e-06 -1.88645e-06 0)
(3.32265e-06 -1.92446e-06 0)
(3.36304e-06 -2.11361e-06 0)
(3.10344e-06 -2.06789e-06 0)
(2.93742e-06 -2.0382e-06 0)
(2.83893e-06 -2.0342e-06 0)
(2.78669e-06 -2.0426e-06 0)
(2.7671e-06 -2.06281e-06 0)
(2.7712e-06 -2.09049e-06 0)
(2.79258e-06 -2.12419e-06 0)
(2.82656e-06 -2.16246e-06 0)
(2.86954e-06 -2.20267e-06 0)
(2.93414e-06 -2.25893e-06 0)
(2.67998e-06 -2.25741e-06 0)
(2.51751e-06 -2.25572e-06 0)
(2.4203e-06 -2.27039e-06 0)
(2.3678e-06 -2.29094e-06 0)
(2.34649e-06 -2.31945e-06 0)
(2.34766e-06 -2.3528e-06 0)
(2.36514e-06 -2.39052e-06 0)
(2.39448e-06 -2.43183e-06 0)
(2.43202e-06 -2.4744e-06 0)
(2.49582e-06 -2.38998e-06 0)
(2.25784e-06 -2.43229e-06 0)
(2.1058e-06 -2.45837e-06 0)
(2.01434e-06 -2.49147e-06 0)
(1.96429e-06 -2.52398e-06 0)
(1.94284e-06 -2.56064e-06 0)
(1.942e-06 -2.5995e-06 0)
(1.956e-06 -2.64114e-06 0)
(1.98085e-06 -2.68536e-06 0)
(2.01289e-06 -2.73036e-06 0)
(2.05013e-06 -2.50411e-06 0)
(1.8389e-06 -2.58743e-06 0)
(1.70402e-06 -2.63952e-06 0)
(1.62247e-06 -2.68987e-06 0)
(1.5774e-06 -2.73354e-06 0)
(1.55736e-06 -2.77776e-06 0)
(1.55542e-06 -2.8217e-06 0)
(1.56633e-06 -2.86697e-06 0)
(1.58672e-06 -2.91385e-06 0)
(1.61309e-06 -2.96123e-06 0)
(1.59929e-06 -2.59873e-06 0)
(1.42414e-06 -2.71799e-06 0)
(1.31233e-06 -2.79289e-06 0)
(1.24449e-06 -2.85836e-06 0)
(1.20676e-06 -2.91178e-06 0)
(1.18958e-06 -2.96261e-06 0)
(1.18726e-06 -3.01097e-06 0)
(1.19539e-06 -3.05943e-06 0)
(1.21127e-06 -3.10863e-06 0)
(1.23186e-06 -3.15816e-06 0)
(1.1448e-06 -2.67174e-06 0)
(1.0136e-06 -2.81987e-06 0)
(9.29889e-07 -2.91307e-06 0)
(8.7901e-07 -2.99064e-06 0)
(8.50596e-07 -3.0519e-06 0)
(8.37442e-07 -3.10805e-06 0)
(8.35309e-07 -3.15999e-06 0)
(8.40883e-07 -3.21102e-06 0)
(8.52229e-07 -3.26208e-06 0)
(8.66971e-07 -3.31341e-06 0)
(6.87908e-07 -2.72138e-06 0)
(6.06679e-07 -2.88968e-06 0)
(5.54891e-07 -2.99566e-06 0)
(5.23327e-07 -3.08174e-06 0)
(5.05608e-07 -3.14848e-06 0)
(4.97307e-07 -3.20833e-06 0)
(4.95846e-07 -3.26278e-06 0)
(4.99127e-07 -3.31566e-06 0)
(5.0593e-07 -3.36804e-06 0)
(5.14773e-07 -3.42066e-06 0)
(2.29743e-07 -2.74638e-06 0)
(2.02231e-07 -2.92512e-06 0)
(1.84609e-07 -3.0377e-06 0)
(1.73866e-07 -3.12814e-06 0)
(1.67868e-07 -3.19772e-06 0)
(1.65015e-07 -3.25951e-06 0)
(1.6443e-07 -3.31523e-06 0)
(1.65483e-07 -3.36904e-06 0)
(1.67758e-07 -3.4221e-06 0)
(1.70698e-07 -3.47542e-06 0)
(6.53006e-06 -8.17724e-08 0)
(6.58949e-06 -5.88794e-08 0)
(6.62487e-06 -4.43368e-08 0)
(6.66282e-06 -3.57526e-08 0)
(6.70398e-06 -3.09443e-08 0)
(6.75456e-06 -2.86955e-08 0)
(6.81453e-06 -2.81841e-08 0)
(6.88461e-06 -2.87557e-08 0)
(6.96464e-06 -3.01623e-08 0)
(7.05355e-06 -3.18949e-08 0)
(6.48151e-06 -2.45334e-07 0)
(6.53105e-06 -1.7799e-07 0)
(6.56024e-06 -1.35245e-07 0)
(6.59402e-06 -1.10146e-07 0)
(6.63243e-06 -9.62204e-08 0)
(6.68103e-06 -8.96863e-08 0)
(6.7396e-06 -8.82437e-08 0)
(6.80854e-06 -9.01499e-08 0)
(6.8876e-06 -9.44393e-08 0)
(6.97547e-06 -9.95828e-08 0)
(6.38465e-06 -4.10257e-07 0)
(6.41528e-06 -3.02158e-07 0)
(6.43252e-06 -2.33607e-07 0)
(6.45836e-06 -1.9334e-07 0)
(6.49153e-06 -1.71102e-07 0)
(6.53646e-06 -1.60918e-07 0)
(6.59228e-06 -1.58886e-07 0)
(6.65904e-06 -1.62201e-07 0)
(6.73622e-06 -1.69337e-07 0)
(6.82207e-06 -1.77944e-07 0)
(6.24116e-06 -5.7728e-07 0)
(6.2449e-06 -4.34234e-07 0)
(6.24508e-06 -3.43604e-07 0)
(6.25966e-06 -2.90602e-07 0)
(6.28535e-06 -2.61456e-07 0)
(6.32502e-06 -2.48363e-07 0)
(6.37697e-06 -2.46107e-07 0)
(6.44062e-06 -2.51039e-07 0)
(6.51514e-06 -2.61014e-07 0)
(6.59817e-06 -2.73101e-07 0)
(6.05329e-06 -7.46831e-07 0)
(6.02381e-06 -5.76608e-07 0)
(6.0029e-06 -4.68767e-07 0)
(6.0035e-06 -4.06121e-07 0)
(6.01994e-06 -3.71963e-07 0)
(6.05307e-06 -3.571e-07 0)
(6.10021e-06 -3.55212e-07 0)
(6.15996e-06 -3.62035e-07 0)
(6.23117e-06 -3.7485e-07 0)
(6.31079e-06 -3.90395e-07 0)
(5.82387e-06 -9.19016e-07 0)
(5.75679e-06 -7.3087e-07 0)
(5.7121e-06 -6.11613e-07 0)
(5.69689e-06 -5.42975e-07 0)
(5.70282e-06 -5.06038e-07 0)
(5.72847e-06 -4.90737e-07 0)
(5.77013e-06 -4.89915e-07 0)
(5.82542e-06 -4.98933e-07 0)
(5.8928e-06 -5.14612e-07 0)
(5.96857e-06 -5.33592e-07 0)
(5.55635e-06 -1.09349e-06 0)
(5.44953e-06 -8.97651e-07 0)
(5.37969e-06 -7.73413e-07 0)
(5.34778e-06 -7.02818e-07 0)
(5.34258e-06 -6.65544e-07 0)
(5.36027e-06 -6.5128e-07 0)
(5.39604e-06 -6.52324e-07 0)
(5.44653e-06 -6.63871e-07 0)
(5.50971e-06 -6.82463e-07 0)
(5.5814e-06 -7.04806e-07 0)
(5.2543e-06 -1.26941e-06 0)
(5.10811e-06 -1.07651e-06 0)
(5.0134e-06 -9.53988e-07 0)
(4.96485e-06 -8.85667e-07 0)
(4.94854e-06 -8.50616e-07 0)
(4.9582e-06 -8.38939e-07 0)
(4.98788e-06 -8.42697e-07 0)
(5.03337e-06 -8.57198e-07 0)
(5.09209e-06 -8.78781e-07 0)
(5.15955e-06 -9.04495e-07 0)
(4.92168e-06 -1.44559e-06 0)
(4.7389e-06 -1.26596e-06 0)
(4.62109e-06 -1.15178e-06 0)
(4.55698e-06 -1.08988e-06 0)
(4.53015e-06 -1.05959e-06 0)
(4.53202e-06 -1.05198e-06 0)
(4.55565e-06 -1.05931e-06 0)
(4.59613e-06 -1.07713e-06 0)
(4.65019e-06 -1.10199e-06 0)
(4.71351e-06 -1.13087e-06 0)
(4.56245e-06 -1.62035e-06 0)
(4.3482e-06 -1.46359e-06 0)
(4.21051e-06 -1.36379e-06 0)
(4.13286e-06 -1.31219e-06 0)
(4.09669e-06 -1.28903e-06 0)
(4.09148e-06 -1.28691e-06 0)
(4.10946e-06 -1.29858e-06 0)
(4.14495e-06 -1.32027e-06 0)
(4.19436e-06 -1.34847e-06 0)
(4.25332e-06 -1.38178e-06 0)
(7.15163e-06 -3.36098e-08 0)
(7.25858e-06 -3.39351e-08 0)
(7.37237e-06 -3.43354e-08 0)
(7.49262e-06 -3.46094e-08 0)
(7.61855e-06 -3.47281e-08 0)
(7.74969e-06 -3.46746e-08 0)
(7.88544e-06 -3.43863e-08 0)
(8.02527e-06 -3.38844e-08 0)
(8.16876e-06 -3.31732e-08 0)
(8.31544e-06 -3.22217e-08 0)
(8.46486e-06 -3.09947e-08 0)
(8.61657e-06 -2.94728e-08 0)
(8.77014e-06 -2.76322e-08 0)
(8.92509e-06 -2.54512e-08 0)
(9.08103e-06 -2.28973e-08 0)
(9.23735e-06 -1.99209e-08 0)
(9.39372e-06 -1.64549e-08 0)
(9.54909e-06 -1.24307e-08 0)
(9.70369e-06 -7.7522e-09 0)
(9.85492e-06 -2.38162e-09 0)
(7.07702e-06 -1.04332e-07 0)
(7.19022e-06 -1.04823e-07 0)
(7.30961e-06 -1.05599e-07 0)
(7.43472e-06 -1.06072e-07 0)
(7.565e-06 -1.06082e-07 0)
(7.69995e-06 -1.0564e-07 0)
(7.83914e-06 -1.04619e-07 0)
(7.98209e-06 -1.03013e-07 0)
(8.12842e-06 -1.00744e-07 0)
(8.27767e-06 -9.77368e-08 0)
(8.42945e-06 -9.3938e-08 0)
(8.58335e-06 -8.9309e-08 0)
(8.73898e-06 -8.37657e-08 0)
(8.89589e-06 -7.7208e-08 0)
(9.05368e-06 -6.95139e-08 0)
(9.21176e-06 -6.05461e-08 0)
(9.36983e-06 -5.01221e-08 0)
(9.52684e-06 -3.80495e-08 0)
(9.68304e-06 -2.4029e-08 0)
(9.83584e-06 -7.93933e-09 0)
(6.93039e-06 -1.84692e-07 0)
(7.05589e-06 -1.83963e-07 0)
(7.18623e-06 -1.83844e-07 0)
(7.3208e-06 -1.83557e-07 0)
(7.45953e-06 -1.82697e-07 0)
(7.60201e-06 -1.81271e-07 0)
(7.74798e-06 -1.78995e-07 0)
(7.89701e-06 -1.75829e-07 0)
(8.04885e-06 -1.71632e-07 0)
(8.20314e-06 -1.66306e-07 0)
(8.35957e-06 -1.59755e-07 0)
(8.51779e-06 -1.51884e-07 0)
(8.67745e-06 -1.42525e-07 0)
(8.83812e-06 -1.315e-07 0)
(8.99948e-06 -1.1861e-07 0)
(9.16097e-06 -1.03628e-07 0)
(9.32234e-06 -8.62468e-08 0)
(9.48259e-06 -6.6144e-08 0)
(9.64198e-06 -4.28089e-08 0)
(9.79798e-06 -1.60326e-08 0)
(6.71616e-06 -2.80162e-07 0)
(6.85923e-06 -2.76047e-07 0)
(7.00542e-06 -2.7305e-07 0)
(7.15377e-06 -2.70483e-07 0)
(7.30488e-06 -2.67473e-07 0)
(7.45829e-06 -2.64045e-07 0)
(7.61412e-06 -2.59681e-07 0)
(7.77204e-06 -2.5431e-07 0)
(7.93203e-06 -2.47687e-07 0)
(8.09376e-06 -2.39653e-07 0)
(8.25706e-06 -2.30031e-07 0)
(8.42162e-06 -2.18651e-07 0)
(8.58719e-06 -2.05272e-07 0)
(8.75341e-06 -1.89651e-07 0)
(8.92003e-06 -1.71508e-07 0)
(9.08655e-06 -1.50502e-07 0)
(9.25276e-06 -1.26194e-07 0)
(9.41772e-06 -9.81169e-08 0)
(9.58171e-06 -6.55354e-08 0)
(9.74234e-06 -2.81725e-08 0)
(6.44078e-06 -3.95604e-07 0)
(6.60595e-06 -3.85304e-07 0)
(6.77224e-06 -3.76893e-07 0)
(6.93804e-06 -3.70093e-07 0)
(7.10492e-06 -3.63279e-07 0)
(7.27234e-06 -3.56517e-07 0)
(7.44087e-06 -3.48987e-07 0)
(7.61027e-06 -3.40549e-07 0)
(7.78069e-06 -3.30798e-07 0)
(7.95198e-06 -3.19479e-07 0)
(8.1241e-06 -3.06339e-07 0)
(8.29686e-06 -2.91117e-07 0)
(8.4701e-06 -2.73484e-07 0)
(8.64354e-06 -2.53104e-07 0)
(8.817e-06 -2.29599e-07 0)
(8.99002e-06 -2.02511e-07 0)
(9.1625e-06 -1.71269e-07 0)
(9.33354e-06 -1.35264e-07 0)
(9.50352e-06 -9.353e-08 0)
(9.67014e-06 -4.5715e-08 0)
(6.11209e-06 -5.34518e-07 0)
(6.30267e-06 -5.1479e-07 0)
(6.49248e-06 -4.97945e-07 0)
(6.67884e-06 -4.8453e-07 0)
(6.86445e-06 -4.7195e-07 0)
(7.04859e-06 -4.60245e-07 0)
(7.23223e-06 -4.48237e-07 0)
(7.41536e-06 -4.35647e-07 0)
(7.59834e-06 -4.21922e-07 0)
(7.78116e-06 -4.06673e-07 0)
(7.96392e-06 -3.89523e-07 0)
(8.14656e-06 -3.70094e-07 0)
(8.32902e-06 -3.47944e-07 0)
(8.51111e-06 -3.22633e-07 0)
(8.69275e-06 -2.93667e-07 0)
(8.87358e-06 -2.60476e-07 0)
(9.05358e-06 -2.22337e-07 0)
(9.2319e-06 -1.7851e-07 0)
(9.40909e-06 -1.27796e-07 0)
(9.5829e-06 -6.97132e-08 0)
(5.7393e-06 -6.99049e-07 0)
(5.95748e-06 -6.66604e-07 0)
(6.17322e-06 -6.38331e-07 0)
(6.38246e-06 -6.1575e-07 0)
(6.58894e-06 -5.95329e-07 0)
(6.79191e-06 -5.76896e-07 0)
(6.99268e-06 -5.59018e-07 0)
(7.19142e-06 -5.41123e-07 0)
(7.3887e-06 -5.22493e-07 0)
(7.5847e-06 -5.02562e-07 0)
(7.77965e-06 -4.80801e-07 0)
(7.97361e-06 -4.56685e-07 0)
(8.16662e-06 -4.29656e-07 0)
(8.35865e-06 -3.99166e-07 0)
(8.54968e-06 -3.64592e-07 0)
(8.73948e-06 -3.25246e-07 0)
(8.92811e-06 -2.80242e-07 0)
(9.11483e-06 -2.28692e-07 0)
(9.30022e-06 -1.69184e-07 0)
(9.48228e-06 -1.01092e-07 0)
(5.33166e-06 -8.8968e-07 0)
(5.57827e-06 -8.40882e-07 0)
(5.82122e-06 -7.98168e-07 0)
(6.05493e-06 -7.63575e-07 0)
(6.28395e-06 -7.33142e-07 0)
(6.50742e-06 -7.06082e-07 0)
(6.72701e-06 -6.8083e-07 0)
(6.94298e-06 -6.56422e-07 0)
(7.15607e-06 -6.3194e-07 0)
(7.36665e-06 -6.06592e-07 0)
(7.57507e-06 -5.79664e-07 0)
(7.78154e-06 -5.50465e-07 0)
(7.98625e-06 -5.183e-07 0)
(8.18928e-06 -4.82489e-07 0)
(8.39074e-06 -4.4227e-07 0)
(8.59048e-06 -3.96814e-07 0)
(8.78863e-06 -3.45076e-07 0)
(8.98462e-06 -2.8601e-07 0)
(9.17909e-06 -2.17988e-07 0)
(9.37027e-06 -1.4024e-07 0)
(4.89923e-06 -1.10602e-06 0)
(5.17427e-06 -1.03789e-06 0)
(5.44439e-06 -9.78846e-07 0)
(5.70338e-06 -9.29822e-07 0)
(5.95561e-06 -8.87445e-07 0)
(6.20062e-06 -8.50012e-07 0)
(6.43997e-06 -8.15875e-07 0)
(6.67421e-06 -7.83654e-07 0)
(6.90417e-06 -7.52215e-07 0)
(7.13036e-06 -7.20526e-07 0)
(7.35326e-06 -6.87673e-07 0)
(7.57324e-06 -6.52796e-07 0)
(7.7906e-06 -6.15047e-07 0)
(8.00555e-06 -5.73597e-07 0)
(8.21828e-06 -5.27531e-07 0)
(8.42876e-06 -4.75868e-07 0)
(8.63721e-06 -4.17407e-07 0)
(8.84322e-06 -3.50946e-07 0)
(9.04748e-06 -2.74675e-07 0)
(9.24855e-06 -1.87685e-07 0)
(4.45015e-06 -1.34417e-06 0)
(4.75359e-06 -1.2522e-06 0)
(5.04968e-06 -1.17479e-06 0)
(5.33455e-06 -1.10904e-06 0)
(5.61045e-06 -1.0528e-06 0)
(5.87789e-06 -1.00347e-06 0)
(6.13789e-06 -9.592e-07 0)
(6.3913e-06 -9.18248e-07 0)
(6.63895e-06 -8.79178e-07 0)
(6.88154e-06 -8.40683e-07 0)
(7.11965e-06 -8.01611e-07 0)
(7.35379e-06 -7.60899e-07 0)
(7.58441e-06 -7.17522e-07 0)
(7.81181e-06 -6.70482e-07 0)
(8.0363e-06 -6.18706e-07 0)
(8.25798e-06 -5.6106e-07 0)
(8.47716e-06 -4.96199e-07 0)
(8.6936e-06 -4.22748e-07 0)
(8.90811e-06 -3.38737e-07 0)
(9.11954e-06 -2.43074e-07 0)
(4.11842e-06 -1.57133e-06 0)
(4.44004e-06 -1.4604e-06 0)
(4.75118e-06 -1.36946e-06 0)
(5.05167e-06 -1.29053e-06 0)
(5.34231e-06 -1.22219e-06 0)
(5.62387e-06 -1.1618e-06 0)
(5.89723e-06 -1.10743e-06 0)
(6.16322e-06 -1.05729e-06 0)
(6.42263e-06 -1.00983e-06 0)
(6.67615e-06 -9.63619e-07 0)
(6.92441e-06 -9.17393e-07 0)
(7.16796e-06 -8.69975e-07 0)
(7.40731e-06 -8.20225e-07 0)
(7.64282e-06 -7.67036e-07 0)
(7.87486e-06 -7.09239e-07 0)
(8.10365e-06 -6.45602e-07 0)
(8.32958e-06 -5.74737e-07 0)
(8.55261e-06 -4.95172e-07 0)
(8.77357e-06 -4.04912e-07 0)
(8.99167e-06 -3.02796e-07 0)
(3.92803e-06 -1.75505e-06 0)
(4.25188e-06 -1.63997e-06 0)
(4.56554e-06 -1.54158e-06 0)
(4.86995e-06 -1.45469e-06 0)
(5.16515e-06 -1.37796e-06 0)
(5.45162e-06 -1.30921e-06 0)
(5.73002e-06 -1.24665e-06 0)
(6.00098e-06 -1.18861e-06 0)
(6.26515e-06 -1.13358e-06 0)
(6.52313e-06 -1.08015e-06 0)
(6.77552e-06 -1.02708e-06 0)
(7.02285e-06 -9.73154e-07 0)
(7.2656e-06 -9.17221e-07 0)
(7.50417e-06 -8.58146e-07 0)
(7.73895e-06 -7.94752e-07 0)
(7.97025e-06 -7.25787e-07 0)
(8.19848e-06 -6.49917e-07 0)
(8.42377e-06 -5.65682e-07 0)
(8.64694e-06 -4.71177e-07 0)
(8.86753e-06 -3.65305e-07 0)
(3.76448e-06 -1.93183e-06 0)
(4.08529e-06 -1.81397e-06 0)
(4.39847e-06 -1.71064e-06 0)
(4.70353e-06 -1.61763e-06 0)
(5.00046e-06 -1.53396e-06 0)
(5.28933e-06 -1.45791e-06 0)
(5.57057e-06 -1.38792e-06 0)
(5.84458e-06 -1.3225e-06 0)
(6.11187e-06 -1.26024e-06 0)
(6.37294e-06 -1.19983e-06 0)
(6.62831e-06 -1.14006e-06 0)
(6.87845e-06 -1.07973e-06 0)
(7.12383e-06 -1.0177e-06 0)
(7.36483e-06 -9.52845e-07 0)
(7.60186e-06 -8.83995e-07 0)
(7.83529e-06 -8.09916e-07 0)
(8.06554e-06 -7.29333e-07 0)
(8.29289e-06 -6.4085e-07 0)
(8.51811e-06 -5.42678e-07 0)
(8.74107e-06 -4.33819e-07 0)
(3.6199e-06 -2.10236e-06 0)
(3.93618e-06 -1.98309e-06 0)
(4.2467e-06 -1.876e-06 0)
(4.55028e-06 -1.77792e-06 0)
(4.84684e-06 -1.68828e-06 0)
(5.13617e-06 -1.60574e-06 0)
(5.41849e-06 -1.52899e-06 0)
(5.694e-06 -1.45675e-06 0)
(5.96307e-06 -1.38773e-06 0)
(6.22607e-06 -1.32073e-06 0)
(6.48344e-06 -1.25458e-06 0)
(6.73557e-06 -1.18815e-06 0)
(6.98289e-06 -1.1203e-06 0)
(7.22578e-06 -1.04995e-06 0)
(7.46464e-06 -9.75965e-07 0)
(7.69985e-06 -8.97152e-07 0)
(7.93186e-06 -8.12306e-07 0)
(8.16105e-06 -7.20116e-07 0)
(8.38814e-06 -6.18942e-07 0)
(8.61334e-06 -5.07905e-07 0)
(3.4923e-06 -2.2657e-06 0)
(3.80271e-06 -2.14601e-06 0)
(4.10898e-06 -2.03644e-06 0)
(4.40943e-06 -1.93455e-06 0)
(4.70401e-06 -1.84007e-06 0)
(4.99224e-06 -1.75202e-06 0)
(5.27418e-06 -1.66935e-06 0)
(5.54985e-06 -1.59096e-06 0)
(5.81951e-06 -1.51575e-06 0)
(6.0834e-06 -1.44262e-06 0)
(6.34186e-06 -1.37049e-06 0)
(6.59521e-06 -1.29829e-06 0)
(6.84383e-06 -1.22494e-06 0)
(7.08808e-06 -1.1494e-06 0)
(7.32832e-06 -1.0706e-06 0)
(7.56497e-06 -9.87407e-07 0)
(7.79847e-06 -8.98701e-07 0)
(8.02927e-06 -8.03272e-07 0)
(8.25806e-06 -6.9966e-07 0)
(8.48529e-06 -5.87118e-07 0)
(3.37871e-06 -2.42201e-06 0)
(3.68257e-06 -2.30266e-06 0)
(3.98361e-06 -2.19152e-06 0)
(4.2798e-06 -2.08675e-06 0)
(4.57121e-06 -1.98837e-06 0)
(4.85712e-06 -1.89568e-06 0)
(5.1375e-06 -1.80785e-06 0)
(5.41224e-06 -1.72402e-06 0)
(5.68148e-06 -1.64323e-06 0)
(5.94536e-06 -1.5645e-06 0)
(6.2041e-06 -1.48687e-06 0)
(6.45798e-06 -1.40933e-06 0)
(6.70731e-06 -1.33087e-06 0)
(6.9524e-06 -1.25054e-06 0)
(7.19362e-06 -1.16731e-06 0)
(7.43138e-06 -1.08016e-06 0)
(7.6661e-06 -9.88039e-07 0)
(7.89826e-06 -8.89859e-07 0)
(8.12858e-06 -7.84358e-07 0)
(8.3576e-06 -6.70901e-07 0)
(3.27688e-06 -2.57146e-06 0)
(3.57379e-06 -2.45299e-06 0)
(3.86894e-06 -2.34102e-06 0)
(4.16014e-06 -2.2342e-06 0)
(4.4475e-06 -2.13277e-06 0)
(4.73018e-06 -2.03623e-06 0)
(5.0081e-06 -1.94402e-06 0)
(5.28104e-06 -1.85545e-06 0)
(5.54903e-06 -1.7697e-06 0)
(5.81212e-06 -1.68595e-06 0)
(6.07047e-06 -1.60331e-06 0)
(6.32427e-06 -1.5209e-06 0)
(6.57377e-06 -1.43777e-06 0)
(6.81927e-06 -1.35307e-06 0)
(7.0611e-06 -1.26581e-06 0)
(7.29964e-06 -1.17511e-06 0)
(7.53531e-06 -1.07999e-06 0)
(7.76863e-06 -9.79515e-07 0)
(8.00027e-06 -8.72598e-07 0)
(8.23081e-06 -7.58704e-07 0)
(3.18468e-06 -2.71437e-06 0)
(3.47454e-06 -2.59715e-06 0)
(3.7634e-06 -2.4849e-06 0)
(4.04915e-06 -2.37668e-06 0)
(4.33186e-06 -2.27289e-06 0)
(4.61066e-06 -2.17323e-06 0)
(4.88543e-06 -2.07734e-06 0)
(5.15588e-06 -1.98469e-06 0)
(5.42196e-06 -1.89461e-06 0)
(5.68364e-06 -1.8064e-06 0)
(5.94102e-06 -1.7193e-06 0)
(6.19423e-06 -1.63251e-06 0)
(6.44347e-06 -1.54517e-06 0)
(6.689e-06 -1.45653e-06 0)
(6.9311e-06 -1.36569e-06 0)
(7.17016e-06 -1.27185e-06 0)
(7.40656e-06 -1.17417e-06 0)
(7.64083e-06 -1.07182e-06 0)
(7.87356e-06 -9.63895e-07 0)
(8.10542e-06 -8.49964e-07 0)
(3.10022e-06 -2.85118e-06 0)
(3.38304e-06 -2.73543e-06 0)
(3.66547e-06 -2.62329e-06 0)
(3.94548e-06 -2.51419e-06 0)
(4.22316e-06 -2.40863e-06 0)
(4.49766e-06 -2.30648e-06 0)
(4.76881e-06 -2.20755e-06 0)
(5.03627e-06 -2.11144e-06 0)
(5.29994e-06 -2.01763e-06 0)
(5.55974e-06 -1.92552e-06 0)
(5.81572e-06 -1.8345e-06 0)
(6.06793e-06 -1.74382e-06 0)
(6.31655e-06 -1.65276e-06 0)
(6.56179e-06 -1.56063e-06 0)
(6.8039e-06 -1.46663e-06 0)
(7.04324e-06 -1.37007e-06 0)
(7.28016e-06 -1.27023e-06 0)
(7.51519e-06 -1.16638e-06 0)
(7.7488e-06 -1.05779e-06 0)
(7.98179e-06 -9.44152e-07 0)
(3.02183e-06 -2.98233e-06 0)
(3.29771e-06 -2.86815e-06 0)
(3.57372e-06 -2.7564e-06 0)
(3.84789e-06 -2.64682e-06 0)
(4.12036e-06 -2.53997e-06 0)
(4.3903e-06 -2.43587e-06 0)
(4.65752e-06 -2.33446e-06 0)
(4.92166e-06 -2.23547e-06 0)
(5.18257e-06 -2.13848e-06 0)
(5.44014e-06 -2.04303e-06 0)
(5.69437e-06 -1.9486e-06 0)
(5.94528e-06 -1.85454e-06 0)
(6.193e-06 -1.76023e-06 0)
(6.43769e-06 -1.66506e-06 0)
(6.67959e-06 -1.56834e-06 0)
(6.919e-06 -1.46946e-06 0)
(7.15626e-06 -1.36782e-06 0)
(7.39183e-06 -1.2628e-06 0)
(7.62616e-06 -1.15385e-06 0)
(7.86007e-06 -1.04076e-06 0)
(2.948e-06 -3.10829e-06 0)
(3.21716e-06 -2.99568e-06 0)
(3.48682e-06 -2.88451e-06 0)
(3.75519e-06 -2.77475e-06 0)
(4.02241e-06 -2.66701e-06 0)
(4.28768e-06 -2.56142e-06 0)
(4.5508e-06 -2.45802e-06 0)
(4.81141e-06 -2.35666e-06 0)
(5.06933e-06 -2.25703e-06 0)
(5.32444e-06 -2.15876e-06 0)
(5.57668e-06 -2.06142e-06 0)
(5.82606e-06 -1.96447e-06 0)
(6.07267e-06 -1.86736e-06 0)
(6.31663e-06 -1.7696e-06 0)
(6.55813e-06 -1.67055e-06 0)
(6.79746e-06 -1.56973e-06 0)
(7.03487e-06 -1.46663e-06 0)
(7.27082e-06 -1.36073e-06 0)
(7.50574e-06 -1.25166e-06 0)
(7.74032e-06 -1.13929e-06 0)
(2.87739e-06 -3.22947e-06 0)
(3.14009e-06 -3.1184e-06 0)
(3.40358e-06 -3.00793e-06 0)
(3.66628e-06 -2.89821e-06 0)
(3.92828e-06 -2.7899e-06 0)
(4.18886e-06 -2.6832e-06 0)
(4.44781e-06 -2.57825e-06 0)
(4.7048e-06 -2.47499e-06 0)
(4.95962e-06 -2.37319e-06 0)
(5.21214e-06 -2.27258e-06 0)
(5.46227e-06 -2.17282e-06 0)
(5.71e-06 -2.07344e-06 0)
(5.95537e-06 -1.97398e-06 0)
(6.19847e-06 -1.87403e-06 0)
(6.43946e-06 -1.77305e-06 0)
(6.67856e-06 -1.67064e-06 0)
(6.91601e-06 -1.56636e-06 0)
(7.15221e-06 -1.45985e-06 0)
(7.38756e-06 -1.35085e-06 0)
(7.62266e-06 -1.23928e-06 0)
(2.80883e-06 -3.34629e-06 0)
(3.06533e-06 -3.23668e-06 0)
(3.32288e-06 -3.12697e-06 0)
(3.58007e-06 -3.01747e-06 0)
(3.83698e-06 -2.90885e-06 0)
(4.09294e-06 -2.80136e-06 0)
(4.34777e-06 -2.69524e-06 0)
(4.60115e-06 -2.59049e-06 0)
(4.85287e-06 -2.48697e-06 0)
(5.10277e-06 -2.38447e-06 0)
(5.35075e-06 -2.28273e-06 0)
(5.59676e-06 -2.18136e-06 0)
(5.84082e-06 -2.07997e-06 0)
(6.08298e-06 -1.97823e-06 0)
(6.32336e-06 -1.87567e-06 0)
(6.56214e-06 -1.77197e-06 0)
(6.79951e-06 -1.66679e-06 0)
(7.03588e-06 -1.55987e-06 0)
(7.27147e-06 -1.45107e-06 0)
(7.50698e-06 -1.34036e-06 0)
(2.74119e-06 -3.4591e-06 0)
(2.99178e-06 -3.35089e-06 0)
(3.24363e-06 -3.24195e-06 0)
(3.49552e-06 -3.13278e-06 0)
(3.74752e-06 -3.02405e-06 0)
(3.99904e-06 -2.91607e-06 0)
(4.2499e-06 -2.80913e-06 0)
(4.49977e-06 -2.70327e-06 0)
(4.74846e-06 -2.59843e-06 0)
(4.99579e-06 -2.49445e-06 0)
(5.24163e-06 -2.39115e-06 0)
(5.48592e-06 -2.28818e-06 0)
(5.72865e-06 -2.18524e-06 0)
(5.96984e-06 -2.08206e-06 0)
(6.20955e-06 -1.97824e-06 0)
(6.44796e-06 -1.87352e-06 0)
(6.68519e-06 -1.76768e-06 0)
(6.92161e-06 -1.66052e-06 0)
(7.15736e-06 -1.55199e-06 0)
(7.39312e-06 -1.44217e-06 0)
(2.67332e-06 -3.56828e-06 0)
(2.91829e-06 -3.46133e-06 0)
(3.16472e-06 -3.35319e-06 0)
(3.41158e-06 -3.24447e-06 0)
(3.65895e-06 -3.13582e-06 0)
(3.90627e-06 -3.02759e-06 0)
(4.15337e-06 -2.92012e-06 0)
(4.39991e-06 -2.8135e-06 0)
(4.64573e-06 -2.70769e-06 0)
(4.89061e-06 -2.6026e-06 0)
(5.13443e-06 -2.4981e-06 0)
(5.37709e-06 -2.39392e-06 0)
(5.61854e-06 -2.28978e-06 0)
(5.85879e-06 -2.18548e-06 0)
(6.09784e-06 -2.08068e-06 0)
(6.33584e-06 -1.97519e-06 0)
(6.57291e-06 -1.86888e-06 0)
(6.80928e-06 -1.7616e-06 0)
(7.04516e-06 -1.6534e-06 0)
(7.28104e-06 -1.54443e-06 0)
(2.60413e-06 -3.67406e-06 0)
(2.84375e-06 -3.56842e-06 0)
(3.08503e-06 -3.46099e-06 0)
(3.32724e-06 -3.35278e-06 0)
(3.57031e-06 -3.2444e-06 0)
(3.81376e-06 -3.13616e-06 0)
(4.05741e-06 -3.02843e-06 0)
(4.30092e-06 -2.92134e-06 0)
(4.54409e-06 -2.81489e-06 0)
(4.78671e-06 -2.70904e-06 0)
(5.02866e-06 -2.60369e-06 0)
(5.2698e-06 -2.49861e-06 0)
(5.51006e-06 -2.39359e-06 0)
(5.74941e-06 -2.28845e-06 0)
(5.98784e-06 -2.18291e-06 0)
(6.22546e-06 -2.07687e-06 0)
(6.46232e-06 -1.97023e-06 0)
(6.69862e-06 -1.86291e-06 0)
(6.93455e-06 -1.75507e-06 0)
(7.1705e-06 -1.64688e-06 0)
(2.5325e-06 -3.77691e-06 0)
(2.76692e-06 -3.67218e-06 0)
(3.00332e-06 -3.5657e-06 0)
(3.24145e-06 -3.45822e-06 0)
(3.48061e-06 -3.35022e-06 0)
(3.72064e-06 -3.24216e-06 0)
(3.96119e-06 -3.1344e-06 0)
(4.20201e-06 -3.02709e-06 0)
(4.44286e-06 -2.92028e-06 0)
(4.68352e-06 -2.81395e-06 0)
(4.92384e-06 -2.70805e-06 0)
(5.16364e-06 -2.60237e-06 0)
(5.40286e-06 -2.49671e-06 0)
(5.64142e-06 -2.39098e-06 0)
(5.87929e-06 -2.28494e-06 0)
(6.11657e-06 -2.1785e-06 0)
(6.35323e-06 -2.07162e-06 0)
(6.58948e-06 -1.96432e-06 0)
(6.82535e-06 -1.85683e-06 0)
(7.06132e-06 -1.74932e-06 0)
(2.45673e-06 -3.87669e-06 0)
(2.68672e-06 -3.77302e-06 0)
(2.91911e-06 -3.66769e-06 0)
(3.15332e-06 -3.56097e-06 0)
(3.38912e-06 -3.45354e-06 0)
(3.62613e-06 -3.34585e-06 0)
(3.86407e-06 -3.23826e-06 0)
(4.10263e-06 -3.131e-06 0)
(4.34155e-06 -3.02409e-06 0)
(4.5806e-06 -2.91754e-06 0)
(4.81956e-06 -2.81133e-06 0)
(5.05827e-06 -2.70529e-06 0)
(5.29661e-06 -2.59925e-06 0)
(5.53452e-06 -2.49312e-06 0)
(5.77195e-06 -2.38673e-06 0)
(6.00892e-06 -2.28004e-06 0)
(6.24539e-06 -2.17302e-06 0)
(6.4816e-06 -2.06574e-06 0)
(6.71748e-06 -1.95853e-06 0)
(6.95336e-06 -1.85162e-06 0)
(2.37581e-06 -3.97449e-06 0)
(2.60174e-06 -3.87207e-06 0)
(2.8305e-06 -3.76764e-06 0)
(3.06152e-06 -3.66176e-06 0)
(3.29458e-06 -3.55501e-06 0)
(3.52923e-06 -3.44783e-06 0)
(3.76518e-06 -3.34061e-06 0)
(4.00207e-06 -3.23355e-06 0)
(4.23959e-06 -3.12672e-06 0)
(4.47745e-06 -3.02015e-06 0)
(4.71542e-06 -2.91382e-06 0)
(4.95333e-06 -2.80758e-06 0)
(5.19104e-06 -2.70133e-06 0)
(5.42844e-06 -2.59499e-06 0)
(5.66549e-06 -2.48837e-06 0)
(5.90222e-06 -2.38146e-06 0)
(6.1386e-06 -2.27436e-06 0)
(6.37472e-06 -2.16711e-06 0)
(6.61063e-06 -2.06006e-06 0)
(6.84647e-06 -1.9536e-06 0)
(2.28872e-06 -4.06952e-06 0)
(2.51111e-06 -3.96851e-06 0)
(2.73686e-06 -3.86536e-06 0)
(2.96543e-06 -3.76056e-06 0)
(3.19647e-06 -3.65472e-06 0)
(3.42953e-06 -3.54827e-06 0)
(3.6642e-06 -3.44162e-06 0)
(3.90006e-06 -3.33498e-06 0)
(4.13675e-06 -3.2284e-06 0)
(4.37394e-06 -3.12194e-06 0)
(4.61136e-06 -3.01565e-06 0)
(4.84877e-06 -2.90939e-06 0)
(5.08605e-06 -2.80302e-06 0)
(5.3231e-06 -2.69654e-06 0)
(5.55985e-06 -2.58983e-06 0)
(5.79635e-06 -2.48281e-06 0)
(6.03266e-06 -2.37563e-06 0)
(6.26876e-06 -2.26834e-06 0)
(6.50476e-06 -2.16135e-06 0)
(6.74065e-06 -2.05514e-06 0)
(1.70004e-07 -3.53006e-06 0)
(5.12401e-07 -3.4779e-06 0)
(8.61963e-07 -3.37564e-06 0)
(1.22276e-06 -3.2274e-06 0)
(1.59806e-06 -3.03888e-06 0)
(1.98992e-06 -2.81712e-06 0)
(2.39914e-06 -2.57024e-06 0)
(2.82499e-06 -2.30672e-06 0)
(3.26592e-06 -2.03515e-06 0)
(3.71852e-06 -1.76238e-06 0)
(1.65144e-07 -3.58681e-06 0)
(4.9747e-07 -3.53913e-06 0)
(8.35759e-07 -3.44562e-06 0)
(1.18347e-06 -3.30976e-06 0)
(1.54336e-06 -3.13639e-06 0)
(1.9172e-06 -2.9315e-06 0)
(2.30574e-06 -2.70199e-06 0)
(2.70819e-06 -2.45521e-06 0)
(3.12264e-06 -2.19895e-06 0)
(3.5464e-06 -1.93892e-06 0)
(1.60857e-07 -3.64489e-06 0)
(4.84271e-07 -3.6013e-06 0)
(8.12562e-07 -3.51571e-06 0)
(1.1485e-06 -3.39114e-06 0)
(1.49444e-06 -3.23181e-06 0)
(1.85182e-06 -3.04289e-06 0)
(2.22143e-06 -2.8303e-06 0)
(2.603e-06 -2.60021e-06 0)
(2.99514e-06 -2.35937e-06 0)
(3.39606e-06 -2.11149e-06 0)
(1.57054e-07 -3.70445e-06 0)
(4.72561e-07 -3.66431e-06 0)
(7.92176e-07 -3.58548e-06 0)
(1.11809e-06 -3.47059e-06 0)
(1.45232e-06 -3.32333e-06 0)
(1.796e-06 -3.14824e-06 0)
(2.14973e-06 -2.95057e-06 0)
(2.51326e-06 -2.73573e-06 0)
(2.8854e-06 -2.51e-06 0)
(3.26464e-06 -2.27627e-06 0)
(1.53566e-07 -3.76544e-06 0)
(4.61797e-07 -3.72841e-06 0)
(7.73472e-07 -3.65563e-06 0)
(1.09033e-06 -3.54944e-06 0)
(1.41408e-06 -3.41312e-06 0)
(1.74565e-06 -3.25071e-06 0)
(2.08558e-06 -3.06684e-06 0)
(2.43365e-06 -2.86613e-06 0)
(2.78903e-06 -2.65428e-06 0)
(3.14968e-06 -2.43391e-06 0)
(1.50304e-07 -3.82778e-06 0)
(4.51845e-07 -3.79344e-06 0)
(7.56261e-07 -3.72592e-06 0)
(1.06502e-06 -3.62734e-06 0)
(1.37951e-06 -3.50061e-06 0)
(1.70051e-06 -3.3494e-06 0)
(2.02839e-06 -3.1779e-06 0)
(2.36288e-06 -2.9902e-06 0)
(2.70358e-06 -2.79145e-06 0)
(3.04802e-06 -2.58427e-06 0)
(1.47184e-07 -3.8914e-06 0)
(4.42372e-07 -3.85946e-06 0)
(7.39973e-07 -3.79664e-06 0)
(1.04125e-06 -3.70486e-06 0)
(1.34733e-06 -3.58675e-06 0)
(1.65887e-06 -3.44563e-06 0)
(1.9762e-06 -3.28532e-06 0)
(2.29887e-06 -3.10946e-06 0)
(2.62688e-06 -2.92265e-06 0)
(2.95736e-06 -2.72776e-06 0)
(1.44205e-07 -3.95615e-06 0)
(4.33271e-07 -3.92634e-06 0)
(7.24413e-07 -3.86766e-06 0)
(1.01872e-06 -3.78191e-06 0)
(1.31708e-06 -3.67147e-06 0)
(1.62006e-06 -3.53937e-06 0)
(1.92795e-06 -3.38914e-06 0)
(2.24019e-06 -3.22409e-06 0)
(2.55706e-06 -3.0483e-06 0)
(2.8755e-06 -2.86483e-06 0)
(1.41284e-07 -4.02193e-06 0)
(4.24362e-07 -3.99402e-06 0)
(7.09276e-07 -3.93905e-06 0)
(9.96929e-07 -3.8587e-06 0)
(1.2881e-06 -3.75515e-06 0)
(1.58323e-06 -3.63117e-06 0)
(1.88259e-06 -3.49002e-06 0)
(2.18557e-06 -3.33478e-06 0)
(2.49257e-06 -3.16904e-06 0)
(2.80057e-06 -2.99601e-06 0)
(1.38355e-07 -4.08858e-06 0)
(4.15539e-07 -4.06237e-06 0)
(6.94362e-07 -4.01073e-06 0)
(9.756e-07 -3.93521e-06 0)
(1.25994e-06 -3.83785e-06 0)
(1.54777e-06 -3.72118e-06 0)
(1.8393e-06 -3.58822e-06 0)
(2.13391e-06 -3.44189e-06 0)
(2.43209e-06 -3.28533e-06 0)
(2.73092e-06 -3.12183e-06 0)
(1.35398e-07 -4.15594e-06 0)
(4.06701e-07 -4.13128e-06 0)
(6.79455e-07 -4.08264e-06 0)
(9.54414e-07 -4.01147e-06 0)
(1.23216e-06 -3.9197e-06 0)
(1.51306e-06 -3.80963e-06 0)
(1.79731e-06 -3.68409e-06 0)
(2.08427e-06 -3.54582e-06 0)
(2.37445e-06 -3.39763e-06 0)
(2.66513e-06 -3.24279e-06 0)
(1.32411e-07 -4.22384e-06 0)
(3.9775e-07 -4.2006e-06 0)
(6.64379e-07 -4.15466e-06 0)
(9.33099e-07 -4.08743e-06 0)
(1.20439e-06 -4.00071e-06 0)
(1.47861e-06 -3.89664e-06 0)
(1.75596e-06 -3.77782e-06 0)
(2.03581e-06 -3.64688e-06 0)
(2.31863e-06 -3.50631e-06 0)
(2.60199e-06 -3.35933e-06 0)
(1.29356e-07 -4.29213e-06 0)
(3.8855e-07 -4.27016e-06 0)
(6.48934e-07 -4.2267e-06 0)
(9.11355e-07 -4.16306e-06 0)
(1.17624e-06 -4.08093e-06 0)
(1.44392e-06 -3.98232e-06 0)
(1.71461e-06 -3.86962e-06 0)
(1.98773e-06 -3.74533e-06 0)
(2.26371e-06 -3.61172e-06 0)
(2.5404e-06 -3.47188e-06 0)
(1.26173e-07 -4.36057e-06 0)
(3.78963e-07 -4.33974e-06 0)
(6.32916e-07 -4.29856e-06 0)
(8.88885e-07 -4.2382e-06 0)
(1.1473e-06 -4.16028e-06 0)
(1.40847e-06 -4.06666e-06 0)
(1.67264e-06 -3.95956e-06 0)
(1.93929e-06 -3.84135e-06 0)
(2.20879e-06 -3.71412e-06 0)
(2.47928e-06 -3.58077e-06 0)
(1.22807e-07 -4.42897e-06 0)
(3.68863e-07 -4.40919e-06 0)
(6.16113e-07 -4.37011e-06 0)
(8.65388e-07 -4.31279e-06 0)
(1.11716e-06 -4.23875e-06 0)
(1.37174e-06 -4.14973e-06 0)
(1.62939e-06 -4.04778e-06 0)
(1.8897e-06 -3.93516e-06 0)
(2.15295e-06 -3.81377e-06 0)
(2.41755e-06 -3.68635e-06 0)
(1.19225e-07 -4.49696e-06 0)
(3.58142e-07 -4.47816e-06 0)
(5.98316e-07 -4.44104e-06 0)
(8.40556e-07 -4.38656e-06 0)
(1.08541e-06 -4.31612e-06 0)
(1.3332e-06 -4.23136e-06 0)
(1.58423e-06 -4.1342e-06 0)
(1.8382e-06 -4.02674e-06 0)
(2.09528e-06 -3.91077e-06 0)
(2.35418e-06 -3.78878e-06 0)
(1.15386e-07 -4.56442e-06 0)
(3.46654e-07 -4.54655e-06 0)
(5.79252e-07 -4.51129e-06 0)
(8.14001e-07 -4.45947e-06 0)
(1.05153e-06 -4.39242e-06 0)
(1.29222e-06 -4.31167e-06 0)
(1.5364e-06 -4.21901e-06 0)
(1.78386e-06 -4.11638e-06 0)
(2.03475e-06 -4.00544e-06 0)
(2.28797e-06 -3.88852e-06 0)
(1.11236e-07 -4.63063e-06 0)
(3.34222e-07 -4.61365e-06 0)
(5.58626e-07 -4.58014e-06 0)
(7.8531e-07 -4.53088e-06 0)
(1.01499e-06 -4.46707e-06 0)
(1.24813e-06 -4.39014e-06 0)
(1.48508e-06 -4.30174e-06 0)
(1.72573e-06 -4.2037e-06 0)
(1.97024e-06 -4.09753e-06 0)
(2.21774e-06 -3.98541e-06 0)
(1.06681e-07 -4.69591e-06 0)
(3.2057e-07 -4.6798e-06 0)
(5.35993e-07 -4.64799e-06 0)
(7.53885e-07 -4.6012e-06 0)
(9.75037e-07 -4.54053e-06 0)
(1.2e-06 -4.4673e-06 0)
(1.4292e-06 -4.38301e-06 0)
(1.66263e-06 -4.28938e-06 0)
(1.90043e-06 -4.18781e-06 0)
(2.14202e-06 -4.08026e-06 0)
(1.01678e-07 -4.75826e-06 0)
(3.05592e-07 -4.743e-06 0)
(5.11166e-07 -4.7129e-06 0)
(7.19424e-07 -4.66857e-06 0)
(9.31266e-07 -4.61103e-06 0)
(1.14734e-06 -4.54149e-06 0)
(1.36813e-06 -4.46133e-06 0)
(1.59385e-06 -4.3721e-06 0)
(1.82457e-06 -4.27514e-06 0)
(2.06e-06 -4.17222e-06 0)
)


// ************************************************************************* //
