/*--------------------------------*- C++ -*----------------------------------*\
| =========                 |                                                 |
| \\      /  F ield         | foam-extend: Open Source CFD                    |
|  \\    /   O peration     | Version:     4.1                                |
|   \\  /    A nd           | Web:         http://www.foam-extend.org         |
|    \\/     M anipulation  |                                                 |
\*---------------------------------------------------------------------------*/
FoamFile
{
    version     2.0;
    format      ascii;
    class       vectorField;
    location    "8";
    object      solidsCellD_iteration10;
}
// * * * * * * * * * * * * * * * * * * * * * * * * * * * * * * * * * * * * * //


1000
(
(4.15532e-06 -1.76438e-06 0)
(3.92018e-06 -1.64192e-06 0)
(3.7699e-06 -1.56424e-06 0)
(3.68354e-06 -1.52796e-06 0)
(3.64121e-06 -1.51536e-06 0)
(3.63106e-06 -1.52105e-06 0)
(3.64456e-06 -1.53866e-06 0)
(3.67584e-06 -1.56518e-06 0)
(3.7205e-06 -1.59766e-06 0)
(3.77524e-06 -1.6344e-06 0)
(3.7571e-06 -1.92725e-06 0)
(3.5067e-06 -1.842e-06 0)
(3.3468e-06 -1.78786e-06 0)
(3.25335e-06 -1.76761e-06 0)
(3.20548e-06 -1.76564e-06 0)
(3.19032e-06 -1.77885e-06 0)
(3.19903e-06 -1.80183e-06 0)
(3.22531e-06 -1.83234e-06 0)
(3.26461e-06 -1.86811e-06 0)
(3.31307e-06 -1.9069e-06 0)
(3.34337e-06 -2.08159e-06 0)
(3.08756e-06 -2.03796e-06 0)
(2.9243e-06 -2.01016e-06 0)
(2.82776e-06 -2.00758e-06 0)
(2.77691e-06 -2.01717e-06 0)
(2.75831e-06 -2.03836e-06 0)
(2.76312e-06 -2.06691e-06 0)
(2.785e-06 -2.10137e-06 0)
(2.81933e-06 -2.14027e-06 0)
(2.86239e-06 -2.18118e-06 0)
(2.91721e-06 -2.22471e-06 0)
(2.66673e-06 -2.22473e-06 0)
(2.50691e-06 -2.22457e-06 0)
(2.41155e-06 -2.2404e-06 0)
(2.36036e-06 -2.262e-06 0)
(2.33996e-06 -2.29139e-06 0)
(2.34178e-06 -2.32552e-06 0)
(2.35971e-06 -2.36393e-06 0)
(2.38937e-06 -2.40581e-06 0)
(2.42703e-06 -2.44898e-06 0)
(2.48157e-06 -2.35377e-06 0)
(2.24705e-06 -2.39705e-06 0)
(2.09746e-06 -2.42428e-06 0)
(2.00769e-06 -2.45831e-06 0)
(1.95883e-06 -2.4917e-06 0)
(1.9382e-06 -2.52913e-06 0)
(1.93793e-06 -2.56868e-06 0)
(1.95233e-06 -2.61092e-06 0)
(1.97747e-06 -2.65566e-06 0)
(2.00964e-06 -2.70119e-06 0)
(2.03855e-06 -2.46615e-06 0)
(1.83038e-06 -2.54989e-06 0)
(1.69766e-06 -2.60278e-06 0)
(1.61759e-06 -2.65384e-06 0)
(1.57355e-06 -2.69824e-06 0)
(1.5542e-06 -2.74313e-06 0)
(1.55276e-06 -2.78767e-06 0)
(1.56402e-06 -2.83347e-06 0)
(1.58467e-06 -2.88082e-06 0)
(1.61117e-06 -2.92866e-06 0)
(1.59034e-06 -2.5593e-06 0)
(1.41771e-06 -2.67851e-06 0)
(1.30768e-06 -2.75392e-06 0)
(1.24106e-06 -2.81989e-06 0)
(1.20416e-06 -2.87389e-06 0)
(1.18755e-06 -2.9253e-06 0)
(1.18564e-06 -2.9742e-06 0)
(1.19406e-06 -3.02313e-06 0)
(1.21015e-06 -3.07276e-06 0)
(1.23086e-06 -3.1227e-06 0)
(1.13844e-06 -2.63117e-06 0)
(1.00912e-06 -2.77887e-06 0)
(9.26733e-07 -2.87233e-06 0)
(8.76765e-07 -2.95022e-06 0)
(8.48966e-07 -3.01197e-06 0)
(8.36235e-07 -3.06861e-06 0)
(8.34406e-07 -3.12104e-06 0)
(8.40196e-07 -3.17251e-06 0)
(8.517e-07 -3.22396e-06 0)
(8.66532e-07 -3.27564e-06 0)
(6.84099e-07 -2.68003e-06 0)
(6.0404e-07 -2.84763e-06 0)
(5.53073e-07 -2.9537e-06 0)
(5.22063e-07 -3.03999e-06 0)
(5.04719e-07 -3.10715e-06 0)
(4.96683e-07 -3.16743e-06 0)
(4.95412e-07 -3.22233e-06 0)
(4.98826e-07 -3.27562e-06 0)
(5.05722e-07 -3.32838e-06 0)
(5.14621e-07 -3.38132e-06 0)
(2.2847e-07 -2.70464e-06 0)
(2.01351e-07 -2.88254e-06 0)
(1.84008e-07 -2.99511e-06 0)
(1.7346e-07 -3.08571e-06 0)
(1.67589e-07 -3.15566e-06 0)
(1.64822e-07 -3.21786e-06 0)
(1.643e-07 -3.27401e-06 0)
(1.654e-07 -3.32822e-06 0)
(1.67707e-07 -3.38165e-06 0)
(1.70665e-07 -3.43526e-06 0)
(6.4866e-06 -8.05301e-08 0)
(6.54532e-06 -5.80371e-08 0)
(6.58074e-06 -4.37728e-08 0)
(6.61893e-06 -3.53744e-08 0)
(6.66052e-06 -3.06973e-08 0)
(6.71157e-06 -2.85482e-08 0)
(6.77201e-06 -2.80974e-08 0)
(6.84252e-06 -2.87037e-08 0)
(6.92297e-06 -3.01589e-08 0)
(7.01225e-06 -3.19327e-08 0)
(6.43849e-06 -2.41603e-07 0)
(6.48745e-06 -1.75435e-07 0)
(6.51677e-06 -1.3352e-07 0)
(6.55084e-06 -1.08984e-07 0)
(6.58972e-06 -9.54358e-08 0)
(6.6388e-06 -8.91617e-08 0)
(6.69787e-06 -8.79234e-08 0)
(6.76727e-06 -8.99781e-08 0)
(6.84674e-06 -9.43864e-08 0)
(6.93501e-06 -9.96232e-08 0)
(6.34245e-06 -4.04012e-07 0)
(6.37277e-06 -2.97814e-07 0)
(6.39031e-06 -2.30598e-07 0)
(6.41657e-06 -1.91228e-07 0)
(6.45028e-06 -1.69624e-07 0)
(6.49574e-06 -1.59887e-07 0)
(6.55209e-06 -1.58185e-07 0)
(6.61933e-06 -1.61742e-07 0)
(6.69694e-06 -1.69056e-07 0)
(6.78323e-06 -1.77811e-07 0)
(6.20017e-06 -5.68498e-07 0)
(6.20399e-06 -4.2798e-07 0)
(6.20472e-06 -3.39145e-07 0)
(6.21987e-06 -2.87346e-07 0)
(6.2462e-06 -2.59047e-07 0)
(6.28648e-06 -2.46558e-07 0)
(6.33902e-06 -2.44731e-07 0)
(6.4032e-06 -2.49996e-07 0)
(6.47818e-06 -2.60239e-07 0)
(6.56172e-06 -2.72544e-07 0)
(6.01385e-06 -7.35471e-07 0)
(5.98495e-06 -5.683e-07 0)
(5.96489e-06 -4.62632e-07 0)
(5.96626e-06 -4.01449e-07 0)
(5.98347e-06 -3.68309e-07 0)
(6.01729e-06 -3.54178e-07 0)
(6.06508e-06 -3.52826e-07 0)
(6.12542e-06 -3.60074e-07 0)
(6.19714e-06 -3.73238e-07 0)
(6.27735e-06 -3.89058e-07 0)
(5.7863e-06 -9.05029e-07 0)
(5.72035e-06 -7.20323e-07 0)
(5.67685e-06 -6.03524e-07 0)
(5.66265e-06 -5.36549e-07 0)
(5.66949e-06 -5.00784e-07 0)
(5.69594e-06 -4.86335e-07 0)
(5.73833e-06 -4.86143e-07 0)
(5.79427e-06 -4.95648e-07 0)
(5.86222e-06 -5.11731e-07 0)
(5.93867e-06 -5.31037e-07 0)
(5.52092e-06 -1.07686e-06 0)
(5.4158e-06 -8.84679e-07 0)
(5.34753e-06 -7.63093e-07 0)
(5.31687e-06 -6.94314e-07 0)
(5.31274e-06 -6.58329e-07 0)
(5.33134e-06 -6.45006e-07 0)
(5.36792e-06 -6.46746e-07 0)
(5.41913e-06 -6.58827e-07 0)
(5.48294e-06 -6.77876e-07 0)
(5.55543e-06 -7.00597e-07 0)
(5.22124e-06 -1.25012e-06 0)
(5.07731e-06 -1.06095e-06 0)
(4.98451e-06 -9.41171e-07 0)
(4.93745e-06 -8.74742e-07 0)
(4.92236e-06 -8.41051e-07 0)
(4.93304e-06 -8.30373e-07 0)
(4.96361e-06 -8.34869e-07 0)
(5.00992e-06 -8.49938e-07 0)
(5.06934e-06 -8.72024e-07 0)
(5.13774e-06 -8.98154e-07 0)
(4.89115e-06 -1.42363e-06 0)
(4.71116e-06 -1.24767e-06 0)
(4.59558e-06 -1.13622e-06 0)
(4.53317e-06 -1.07622e-06 0)
(4.50772e-06 -1.04734e-06 0)
(4.51071e-06 -1.04077e-06 0)
(4.5353e-06 -1.04887e-06 0)
(4.57665e-06 -1.06728e-06 0)
(4.63145e-06 -1.09265e-06 0)
(4.69577e-06 -1.12196e-06 0)
(4.53457e-06 -1.59575e-06 0)
(4.32354e-06 -1.44243e-06 0)
(4.18836e-06 -1.34528e-06 0)
(4.11257e-06 -1.29554e-06 0)
(4.07785e-06 -1.2738e-06 0)
(4.07382e-06 -1.27276e-06 0)
(4.09281e-06 -1.28527e-06 0)
(4.12925e-06 -1.30762e-06 0)
(4.1795e-06 -1.33643e-06 0)
(4.23942e-06 -1.37019e-06 0)
(7.11062e-06 -3.36654e-08 0)
(7.21785e-06 -3.40243e-08 0)
(7.33189e-06 -3.44533e-08 0)
(7.45236e-06 -3.4752e-08 0)
(7.57848e-06 -3.48884e-08 0)
(7.70981e-06 -3.48482e-08 0)
(7.84572e-06 -3.45766e-08 0)
(7.9857e-06 -3.41018e-08 0)
(8.12931e-06 -3.34267e-08 0)
(8.27614e-06 -3.25108e-08 0)
(8.4257e-06 -3.13161e-08 0)
(8.57755e-06 -2.98286e-08 0)
(8.73128e-06 -2.80321e-08 0)
(8.88642e-06 -2.59097e-08 0)
(9.04257e-06 -2.34273e-08 0)
(9.19914e-06 -2.05298e-08 0)
(9.35582e-06 -1.7147e-08 0)
(9.51158e-06 -1.32128e-08 0)
(9.66662e-06 -8.63607e-09 0)
(9.81843e-06 -3.38483e-09 0)
(7.03681e-06 -1.04439e-07 0)
(7.15021e-06 -1.05052e-07 0)
(7.26979e-06 -1.05915e-07 0)
(7.39507e-06 -1.06455e-07 0)
(7.5255e-06 -1.0652e-07 0)
(7.66059e-06 -1.06131e-07 0)
(7.7999e-06 -1.05177e-07 0)
(7.94298e-06 -1.03655e-07 0)
(8.08942e-06 -1.01478e-07 0)
(8.2388e-06 -9.8562e-08 0)
(8.39071e-06 -9.48615e-08 0)
(8.54474e-06 -9.03503e-08 0)
(8.70054e-06 -8.49519e-08 0)
(8.85762e-06 -7.85676e-08 0)
(9.01562e-06 -7.10734e-08 0)
(9.17393e-06 -6.23304e-08 0)
(9.3323e-06 -5.21567e-08 0)
(9.48968e-06 -4.03666e-08 0)
(9.64632e-06 -2.66737e-08 0)
(9.79968e-06 -1.09597e-08 0)
(6.89172e-06 -1.847e-07 0)
(7.01728e-06 -1.84201e-07 0)
(7.1477e-06 -1.84234e-07 0)
(7.28233e-06 -1.84066e-07 0)
(7.42113e-06 -1.83313e-07 0)
(7.56369e-06 -1.81998e-07 0)
(7.70974e-06 -1.79849e-07 0)
(7.85885e-06 -1.76829e-07 0)
(8.01077e-06 -1.72783e-07 0)
(8.16516e-06 -1.67611e-07 0)
(8.32169e-06 -1.61237e-07 0)
(8.48004e-06 -1.53578e-07 0)
(8.63984e-06 -1.44468e-07 0)
(8.80067e-06 -1.33726e-07 0)
(8.96222e-06 -1.21154e-07 0)
(9.12394e-06 -1.06533e-07 0)
(9.2856e-06 -8.95601e-08 0)
(9.4462e-06 -6.99279e-08 0)
(9.60601e-06 -4.71527e-08 0)
(9.76255e-06 -2.10167e-08 0)
(6.67975e-06 -2.79836e-07 0)
(6.82267e-06 -2.76063e-07 0)
(6.96877e-06 -2.73301e-07 0)
(7.11703e-06 -2.70933e-07 0)
(7.26809e-06 -2.6812e-07 0)
(7.42149e-06 -2.64889e-07 0)
(7.57732e-06 -2.60733e-07 0)
(7.73526e-06 -2.55579e-07 0)
(7.89528e-06 -2.49172e-07 0)
(8.05708e-06 -2.41366e-07 0)
(8.22044e-06 -2.3201e-07 0)
(8.3851e-06 -2.20938e-07 0)
(8.55078e-06 -2.07906e-07 0)
(8.71715e-06 -1.92672e-07 0)
(8.88393e-06 -1.74966e-07 0)
(9.05067e-06 -1.54456e-07 0)
(9.21714e-06 -1.30711e-07 0)
(9.38244e-06 -1.03284e-07 0)
(9.54682e-06 -7.14792e-08 0)
(9.70795e-06 -3.50074e-08 0)
(6.40724e-06 -3.94606e-07 0)
(6.57202e-06 -3.848e-07 0)
(6.73801e-06 -3.76751e-07 0)
(6.90354e-06 -3.70276e-07 0)
(7.07022e-06 -3.63777e-07 0)
(7.2375e-06 -3.57311e-07 0)
(7.40594e-06 -3.50075e-07 0)
(7.57528e-06 -3.4194e-07 0)
(7.74568e-06 -3.32489e-07 0)
(7.91698e-06 -3.21489e-07 0)
(8.08913e-06 -3.08707e-07 0)
(8.26195e-06 -2.93888e-07 0)
(8.43528e-06 -2.76699e-07 0)
(8.60883e-06 -2.5681e-07 0)
(8.78244e-06 -2.3386e-07 0)
(8.95565e-06 -2.074e-07 0)
(9.12837e-06 -1.76874e-07 0)
(9.2997e-06 -1.41701e-07 0)
(9.47004e-06 -1.00957e-07 0)
(9.63711e-06 -5.42793e-08 0)
(6.08195e-06 -5.32448e-07 0)
(6.27184e-06 -5.13412e-07 0)
(6.46111e-06 -4.97105e-07 0)
(6.64702e-06 -4.84175e-07 0)
(6.83227e-06 -4.72055e-07 0)
(7.01613e-06 -4.60777e-07 0)
(7.19957e-06 -4.49183e-07 0)
(7.38254e-06 -4.36999e-07 0)
(7.56542e-06 -4.23674e-07 0)
(7.74818e-06 -4.08847e-07 0)
(7.93092e-06 -3.92161e-07 0)
(8.11358e-06 -3.73236e-07 0)
(8.29609e-06 -3.51629e-07 0)
(8.47827e-06 -3.26915e-07 0)
(8.66003e-06 -2.98614e-07 0)
(8.84102e-06 -2.66174e-07 0)
(9.02124e-06 -2.28898e-07 0)
(9.19982e-06 -1.86078e-07 0)
(9.37733e-06 -1.36561e-07 0)
(9.55155e-06 -7.98545e-08 0)
(5.71297e-06 -6.95496e-07 0)
(5.93017e-06 -6.63958e-07 0)
(6.14514e-06 -6.3643e-07 0)
(6.35371e-06 -6.14535e-07 0)
(6.55967e-06 -5.94758e-07 0)
(6.76222e-06 -5.76908e-07 0)
(6.96264e-06 -5.5959e-07 0)
(7.16112e-06 -5.42231e-07 0)
(7.35821e-06 -5.24128e-07 0)
(7.55408e-06 -5.04744e-07 0)
(7.74895e-06 -4.83563e-07 0)
(7.94288e-06 -4.60058e-07 0)
(8.1359e-06 -4.33672e-07 0)
(8.32797e-06 -4.0388e-07 0)
(8.5191e-06 -3.7008e-07 0)
(8.70903e-06 -3.31608e-07 0)
(8.89784e-06 -2.87614e-07 0)
(9.08479e-06 -2.37243e-07 0)
(9.27047e-06 -1.79123e-07 0)
(9.45288e-06 -1.1262e-07 0)
(5.3094e-06 -8.84213e-07 0)
(5.55479e-06 -8.36595e-07 0)
(5.79673e-06 -7.94897e-07 0)
(6.02959e-06 -7.61238e-07 0)
(6.2579e-06 -7.31651e-07 0)
(6.48081e-06 -7.05361e-07 0)
(6.69992e-06 -6.80832e-07 0)
(6.91552e-06 -6.57108e-07 0)
(7.12833e-06 -6.33293e-07 0)
(7.33869e-06 -6.08621e-07 0)
(7.54697e-06 -5.82388e-07 0)
(7.75334e-06 -5.53903e-07 0)
(7.958e-06 -5.22482e-07 0)
(8.16103e-06 -4.87475e-07 0)
(8.36254e-06 -4.48145e-07 0)
(8.56238e-06 -4.03693e-07 0)
(8.76069e-06 -3.53109e-07 0)
(8.95688e-06 -2.95379e-07 0)
(9.15159e-06 -2.28912e-07 0)
(9.34306e-06 -1.52931e-07 0)
(4.8811e-06 -1.09823e-06 0)
(5.15477e-06 -1.03152e-06 0)
(5.42374e-06 -9.7376e-07 0)
(5.68175e-06 -9.25936e-07 0)
(5.93314e-06 -8.84648e-07 0)
(6.17745e-06 -8.48218e-07 0)
(6.4162e-06 -8.15005e-07 0)
(6.64996e-06 -7.8365e-07 0)
(6.87952e-06 -7.53043e-07 0)
(7.1054e-06 -7.22173e-07 0)
(7.32806e-06 -6.90139e-07 0)
(7.54786e-06 -6.56089e-07 0)
(7.7651e-06 -6.192e-07 0)
(7.97999e-06 -5.78672e-07 0)
(8.19271e-06 -5.33619e-07 0)
(8.40325e-06 -4.83095e-07 0)
(8.61181e-06 -4.25925e-07 0)
(8.81796e-06 -3.60942e-07 0)
(9.02242e-06 -2.86367e-07 0)
(9.22371e-06 -2.0129e-07 0)
(4.43614e-06 -1.33378e-06 0)
(4.73828e-06 -1.24349e-06 0)
(5.0332e-06 -1.16768e-06 0)
(5.31701e-06 -1.10343e-06 0)
(5.59198e-06 -1.04852e-06 0)
(5.8586e-06 -1.00042e-06 0)
(6.11788e-06 -9.57262e-07 0)
(6.37068e-06 -9.17352e-07 0)
(6.61781e-06 -8.79271e-07 0)
(6.85996e-06 -8.41735e-07 0)
(7.09772e-06 -8.03611e-07 0)
(7.33157e-06 -7.6385e-07 0)
(7.56196e-06 -7.21454e-07 0)
(7.78921e-06 -6.75458e-07 0)
(8.01361e-06 -6.24818e-07 0)
(8.23525e-06 -5.6844e-07 0)
(8.45447e-06 -5.04995e-07 0)
(8.67097e-06 -4.3315e-07 0)
(8.88559e-06 -3.50955e-07 0)
(9.09717e-06 -2.57322e-07 0)
(4.10618e-06 -1.55941e-06 0)
(4.42718e-06 -1.45002e-06 0)
(4.73753e-06 -1.36074e-06 0)
(5.03715e-06 -1.28342e-06 0)
(5.32693e-06 -1.21657e-06 0)
(5.60767e-06 -1.15756e-06 0)
(5.88028e-06 -1.10446e-06 0)
(6.1456e-06 -1.05551e-06 0)
(6.40443e-06 -1.00917e-06 0)
(6.65745e-06 -9.6405e-07 0)
(6.90529e-06 -9.18894e-07 0)
(7.14849e-06 -8.72545e-07 0)
(7.38756e-06 -8.23893e-07 0)
(7.62287e-06 -7.7186e-07 0)
(7.85477e-06 -7.15308e-07 0)
(8.08348e-06 -6.53043e-07 0)
(8.30938e-06 -5.83689e-07 0)
(8.53241e-06 -5.05819e-07 0)
(8.75342e-06 -4.17458e-07 0)
(8.9716e-06 -3.1744e-07 0)
(3.91733e-06 -1.74259e-06 0)
(4.24052e-06 -1.62898e-06 0)
(4.55345e-06 -1.53213e-06 0)
(4.8571e-06 -1.4468e-06 0)
(5.15154e-06 -1.37156e-06 0)
(5.43728e-06 -1.30424e-06 0)
(5.71501e-06 -1.24302e-06 0)
(5.98535e-06 -1.18625e-06 0)
(6.24899e-06 -1.13244e-06 0)
(6.5065e-06 -1.0802e-06 0)
(6.7585e-06 -1.02829e-06 0)
(7.00551e-06 -9.75534e-07 0)
(7.248e-06 -9.20793e-07 0)
(7.4864e-06 -8.62963e-07 0)
(7.72104e-06 -8.00895e-07 0)
(7.95227e-06 -7.33374e-07 0)
(8.18046e-06 -6.59073e-07 0)
(8.40576e-06 -5.76579e-07 0)
(8.62896e-06 -4.84014e-07 0)
(8.84961e-06 -3.80253e-07 0)
(3.75565e-06 -1.91849e-06 0)
(4.07571e-06 -1.80226e-06 0)
(4.38816e-06 -1.70052e-06 0)
(4.69249e-06 -1.60908e-06 0)
(4.98872e-06 -1.52694e-06 0)
(5.27692e-06 -1.45235e-06 0)
(5.55754e-06 -1.38375e-06 0)
(5.83099e-06 -1.31967e-06 0)
(6.09779e-06 -1.25871e-06 0)
(6.35843e-06 -1.19957e-06 0)
(6.61343e-06 -1.14104e-06 0)
(6.86328e-06 -1.08196e-06 0)
(7.10842e-06 -1.02121e-06 0)
(7.34926e-06 -9.57669e-07 0)
(7.58616e-06 -8.9021e-07 0)
(7.81952e-06 -8.17629e-07 0)
(8.04973e-06 -7.3866e-07 0)
(8.27707e-06 -6.51949e-07 0)
(8.5023e-06 -5.55735e-07 0)
(8.72529e-06 -4.48974e-07 0)
(3.61294e-06 -2.08808e-06 0)
(3.92842e-06 -1.97056e-06 0)
(4.23819e-06 -1.86513e-06 0)
(4.54106e-06 -1.76868e-06 0)
(4.83696e-06 -1.68061e-06 0)
(5.12567e-06 -1.59958e-06 0)
(5.40743e-06 -1.5243e-06 0)
(5.68243e-06 -1.45346e-06 0)
(5.95104e-06 -1.38581e-06 0)
(6.21365e-06 -1.32014e-06 0)
(6.47068e-06 -1.25532e-06 0)
(6.72254e-06 -1.19022e-06 0)
(6.96965e-06 -1.12372e-06 0)
(7.21238e-06 -1.05476e-06 0)
(7.45111e-06 -9.82218e-07 0)
(7.68625e-06 -9.04947e-07 0)
(7.91822e-06 -8.21751e-07 0)
(8.14739e-06 -7.31355e-07 0)
(8.37448e-06 -6.32139e-07 0)
(8.59967e-06 -5.23176e-07 0)
(3.48705e-06 -2.25054e-06 0)
(3.79668e-06 -2.13269e-06 0)
(4.10221e-06 -2.02486e-06 0)
(4.40198e-06 -1.92465e-06 0)
(4.69594e-06 -1.8318e-06 0)
(4.98359e-06 -1.74531e-06 0)
(5.26501e-06 -1.66415e-06 0)
(5.54022e-06 -1.58724e-06 0)
(5.80946e-06 -1.51346e-06 0)
(6.07299e-06 -1.44173e-06 0)
(6.33116e-06 -1.371e-06 0)
(6.58426e-06 -1.3002e-06 0)
(6.83269e-06 -1.22827e-06 0)
(7.07679e-06 -1.15418e-06 0)
(7.31692e-06 -1.07687e-06 0)
(7.55351e-06 -9.9526e-07 0)
(7.78697e-06 -9.0823e-07 0)
(8.01774e-06 -8.14604e-07 0)
(8.24651e-06 -7.12932e-07 0)
(8.47369e-06 -6.02444e-07 0)
(3.37503e-06 -2.40601e-06 0)
(3.67815e-06 -2.28858e-06 0)
(3.97849e-06 -2.17924e-06 0)
(4.27405e-06 -2.07622e-06 0)
(4.56487e-06 -1.97952e-06 0)
(4.85025e-06 -1.88844e-06 0)
(5.13015e-06 -1.80219e-06 0)
(5.40447e-06 -1.71989e-06 0)
(5.67334e-06 -1.6406e-06 0)
(5.93689e-06 -1.56334e-06 0)
(6.19538e-06 -1.48718e-06 0)
(6.44904e-06 -1.4111e-06 0)
(6.6982e-06 -1.33412e-06 0)
(6.94318e-06 -1.25529e-06 0)
(7.1843e-06 -1.1736e-06 0)
(7.422e-06 -1.08806e-06 0)
(7.65668e-06 -9.97625e-07 0)
(7.88882e-06 -9.01242e-07 0)
(8.11909e-06 -7.97657e-07 0)
(8.34804e-06 -6.86235e-07 0)
(3.27462e-06 -2.55471e-06 0)
(3.57087e-06 -2.4382e-06 0)
(3.86538e-06 -2.32809e-06 0)
(4.15599e-06 -2.22307e-06 0)
(4.44282e-06 -2.12337e-06 0)
(4.72501e-06 -2.02851e-06 0)
(5.0025e-06 -1.93794e-06 0)
(5.27506e-06 -1.85095e-06 0)
(5.54273e-06 -1.76677e-06 0)
(5.80554e-06 -1.68455e-06 0)
(6.06367e-06 -1.60344e-06 0)
(6.31728e-06 -1.52255e-06 0)
(6.56665e-06 -1.44096e-06 0)
(6.81206e-06 -1.35779e-06 0)
(7.0538e-06 -1.27211e-06 0)
(7.29231e-06 -1.18303e-06 0)
(7.52794e-06 -1.08961e-06 0)
(7.76123e-06 -9.90913e-07 0)
(7.99281e-06 -8.85891e-07 0)
(8.22327e-06 -7.73995e-07 0)
(3.18372e-06 -2.69698e-06 0)
(3.47299e-06 -2.58174e-06 0)
(3.7613e-06 -2.47138e-06 0)
(4.04652e-06 -2.36502e-06 0)
(4.32876e-06 -2.26301e-06 0)
(4.60713e-06 -2.16508e-06 0)
(4.88153e-06 -2.07088e-06 0)
(5.15165e-06 -1.97987e-06 0)
(5.41745e-06 -1.89141e-06 0)
(5.6789e-06 -1.80479e-06 0)
(5.93609e-06 -1.71927e-06 0)
(6.18914e-06 -1.63405e-06 0)
(6.43829e-06 -1.54829e-06 0)
(6.68374e-06 -1.46122e-06 0)
(6.92578e-06 -1.37198e-06 0)
(7.16481e-06 -1.27978e-06 0)
(7.40117e-06 -1.18379e-06 0)
(7.63541e-06 -1.0832e-06 0)
(7.86809e-06 -9.77151e-07 0)
(8.09985e-06 -8.65153e-07 0)
(3.10044e-06 -2.83323e-06 0)
(3.38278e-06 -2.71947e-06 0)
(3.66475e-06 -2.60926e-06 0)
(3.94431e-06 -2.50206e-06 0)
(4.22159e-06 -2.39833e-06 0)
(4.49572e-06 -2.29796e-06 0)
(4.76656e-06 -2.20075e-06 0)
(5.03374e-06 -2.10634e-06 0)
(5.29717e-06 -2.01419e-06 0)
(5.55678e-06 -1.92373e-06 0)
(5.81259e-06 -1.83433e-06 0)
(6.06468e-06 -1.74527e-06 0)
(6.31323e-06 -1.65581e-06 0)
(6.55842e-06 -1.56529e-06 0)
(6.80049e-06 -1.4729e-06 0)
(7.0398e-06 -1.37798e-06 0)
(7.27669e-06 -1.27982e-06 0)
(7.51169e-06 -1.17772e-06 0)
(7.74524e-06 -1.07098e-06 0)
(7.97812e-06 -9.59202e-07 0)
(3.02315e-06 -2.96392e-06 0)
(3.29866e-06 -2.85174e-06 0)
(3.57429e-06 -2.74194e-06 0)
(3.84811e-06 -2.63429e-06 0)
(4.12025e-06 -2.52931e-06 0)
(4.38989e-06 -2.42702e-06 0)
(4.65686e-06 -2.32738e-06 0)
(4.92077e-06 -2.23012e-06 0)
(5.18148e-06 -2.13484e-06 0)
(5.43889e-06 -2.04109e-06 0)
(5.693e-06 -1.94831e-06 0)
(5.94382e-06 -1.85591e-06 0)
(6.19149e-06 -1.76323e-06 0)
(6.43614e-06 -1.66968e-06 0)
(6.67801e-06 -1.57458e-06 0)
(6.91742e-06 -1.47735e-06 0)
(7.15465e-06 -1.37739e-06 0)
(7.39019e-06 -1.2741e-06 0)
(7.62446e-06 -1.16693e-06 0)
(7.85824e-06 -1.05565e-06 0)
(2.95035e-06 -3.08949e-06 0)
(3.21925e-06 -2.9789e-06 0)
(3.48864e-06 -2.8697e-06 0)
(3.75674e-06 -2.76188e-06 0)
(4.0237e-06 -2.65605e-06 0)
(4.28874e-06 -2.5523e-06 0)
(4.55166e-06 -2.4507e-06 0)
(4.81209e-06 -2.35112e-06 0)
(5.06987e-06 -2.25323e-06 0)
(5.32486e-06 -2.15668e-06 0)
(5.57702e-06 -2.06104e-06 0)
(5.82633e-06 -1.96577e-06 0)
(6.07291e-06 -1.87031e-06 0)
(6.31685e-06 -1.77417e-06 0)
(6.55834e-06 -1.67676e-06 0)
(6.79767e-06 -1.57759e-06 0)
(7.03507e-06 -1.47615e-06 0)
(7.27099e-06 -1.37196e-06 0)
(7.50583e-06 -1.2646e-06 0)
(7.7403e-06 -1.15398e-06 0)
(2.88075e-06 -3.21037e-06 0)
(3.14328e-06 -3.10132e-06 0)
(3.4066e-06 -2.99282e-06 0)
(3.66911e-06 -2.88507e-06 0)
(3.93095e-06 -2.77869e-06 0)
(4.19137e-06 -2.67386e-06 0)
(4.45018e-06 -2.57075e-06 0)
(4.70704e-06 -2.46929e-06 0)
(4.96175e-06 -2.36927e-06 0)
(5.21419e-06 -2.2704e-06 0)
(5.46427e-06 -2.17235e-06 0)
(5.71195e-06 -2.07467e-06 0)
(5.9573e-06 -1.97687e-06 0)
(6.2004e-06 -1.87856e-06 0)
(6.44138e-06 -1.77923e-06 0)
(6.6805e-06 -1.67845e-06 0)
(6.91794e-06 -1.57583e-06 0)
(7.15412e-06 -1.47097e-06 0)
(7.38939e-06 -1.36365e-06 0)
(7.62437e-06 -1.25374e-06 0)
(2.81318e-06 -3.32696e-06 0)
(3.06962e-06 -3.21936e-06 0)
(3.32709e-06 -3.11164e-06 0)
(3.58418e-06 -3.00412e-06 0)
(3.84099e-06 -2.89744e-06 0)
(4.09686e-06 -2.79185e-06 0)
(4.35162e-06 -2.68759e-06 0)
(4.60492e-06 -2.58467e-06 0)
(4.85657e-06 -2.48295e-06 0)
(5.10643e-06 -2.38221e-06 0)
(5.35437e-06 -2.2822e-06 0)
(5.60035e-06 -2.18254e-06 0)
(5.8444e-06 -2.08282e-06 0)
(6.08657e-06 -1.98273e-06 0)
(6.32695e-06 -1.88182e-06 0)
(6.56576e-06 -1.77975e-06 0)
(6.80312e-06 -1.67621e-06 0)
(7.03945e-06 -1.57089e-06 0)
(7.27498e-06 -1.46372e-06 0)
(7.51035e-06 -1.35459e-06 0)
(2.74656e-06 -3.43961e-06 0)
(2.99718e-06 -3.3334e-06 0)
(3.24903e-06 -3.22646e-06 0)
(3.50091e-06 -3.11928e-06 0)
(3.75289e-06 -3.01251e-06 0)
(4.00438e-06 -2.90644e-06 0)
(4.25521e-06 -2.80137e-06 0)
(4.50506e-06 -2.69736e-06 0)
(4.75372e-06 -2.59434e-06 0)
(5.00102e-06 -2.49215e-06 0)
(5.24685e-06 -2.39057e-06 0)
(5.49112e-06 -2.28932e-06 0)
(5.73386e-06 -2.18807e-06 0)
(5.97506e-06 -2.08654e-06 0)
(6.21479e-06 -1.98437e-06 0)
(6.45321e-06 -1.88127e-06 0)
(6.69042e-06 -1.77702e-06 0)
(6.92681e-06 -1.67144e-06 0)
(7.1625e-06 -1.56446e-06 0)
(7.39812e-06 -1.45616e-06 0)
(2.67975e-06 -3.54868e-06 0)
(2.92484e-06 -3.44373e-06 0)
(3.17136e-06 -3.33759e-06 0)
(3.41828e-06 -3.23086e-06 0)
(3.66568e-06 -3.12418e-06 0)
(3.91303e-06 -3.01788e-06 0)
(4.16016e-06 -2.9123e-06 0)
(4.40672e-06 -2.80753e-06 0)
(4.65253e-06 -2.70355e-06 0)
(4.89741e-06 -2.60025e-06 0)
(5.14122e-06 -2.4975e-06 0)
(5.38387e-06 -2.39504e-06 0)
(5.62533e-06 -2.2926e-06 0)
(5.86559e-06 -2.18996e-06 0)
(6.10464e-06 -2.0868e-06 0)
(6.34265e-06 -1.98291e-06 0)
(6.57969e-06 -1.87816e-06 0)
(6.81604e-06 -1.77242e-06 0)
(7.05185e-06 -1.66571e-06 0)
(7.2876e-06 -1.55816e-06 0)
(2.6117e-06 -3.65442e-06 0)
(2.85152e-06 -3.55076e-06 0)
(3.09296e-06 -3.44533e-06 0)
(3.33529e-06 -3.33911e-06 0)
(3.57845e-06 -3.2327e-06 0)
(3.82198e-06 -3.12639e-06 0)
(4.06569e-06 -3.02056e-06 0)
(4.30923e-06 -2.91534e-06 0)
(4.55242e-06 -2.81073e-06 0)
(4.79506e-06 -2.70666e-06 0)
(5.03701e-06 -2.60306e-06 0)
(5.27814e-06 -2.49972e-06 0)
(5.51841e-06 -2.39639e-06 0)
(5.75775e-06 -2.29291e-06 0)
(5.99616e-06 -2.18901e-06 0)
(6.23377e-06 -2.08456e-06 0)
(6.47061e-06 -1.97947e-06 0)
(6.70688e-06 -1.87363e-06 0)
(6.94273e-06 -1.76721e-06 0)
(7.17854e-06 -1.66034e-06 0)
(2.54129e-06 -3.75726e-06 0)
(2.77598e-06 -3.65451e-06 0)
(3.0126e-06 -3.55001e-06 0)
(3.25091e-06 -3.44452e-06 0)
(3.49022e-06 -3.33849e-06 0)
(3.73036e-06 -3.23236e-06 0)
(3.971e-06 -3.1265e-06 0)
(4.21188e-06 -3.02106e-06 0)
(4.45275e-06 -2.91609e-06 0)
(4.69343e-06 -2.81155e-06 0)
(4.93375e-06 -2.70741e-06 0)
(5.17354e-06 -2.60346e-06 0)
(5.41274e-06 -2.4995e-06 0)
(5.65126e-06 -2.39542e-06 0)
(5.88909e-06 -2.29101e-06 0)
(6.12635e-06 -2.18616e-06 0)
(6.36296e-06 -2.08081e-06 0)
(6.59914e-06 -1.97493e-06 0)
(6.83494e-06 -1.8688e-06 0)
(7.07079e-06 -1.76252e-06 0)
(2.46686e-06 -3.85709e-06 0)
(2.69718e-06 -3.75538e-06 0)
(2.92984e-06 -3.65202e-06 0)
(3.16428e-06 -3.54727e-06 0)
(3.40026e-06 -3.4418e-06 0)
(3.63741e-06 -3.33604e-06 0)
(3.87545e-06 -3.23035e-06 0)
(4.11408e-06 -3.12494e-06 0)
(4.35303e-06 -3.01987e-06 0)
(4.59209e-06 -2.91512e-06 0)
(4.83105e-06 -2.81066e-06 0)
(5.0697e-06 -2.70635e-06 0)
(5.30799e-06 -2.60201e-06 0)
(5.54585e-06 -2.49754e-06 0)
(5.7832e-06 -2.39278e-06 0)
(6.02008e-06 -2.28766e-06 0)
(6.25646e-06 -2.18214e-06 0)
(6.49259e-06 -2.07627e-06 0)
(6.72839e-06 -1.97035e-06 0)
(6.96412e-06 -1.86457e-06 0)
(2.38741e-06 -3.95497e-06 0)
(2.61373e-06 -3.8545e-06 0)
(2.84281e-06 -3.752e-06 0)
(3.0741e-06 -3.64807e-06 0)
(3.30735e-06 -3.54327e-06 0)
(3.54215e-06 -3.43802e-06 0)
(3.77821e-06 -3.33268e-06 0)
(4.01517e-06 -3.22747e-06 0)
(4.25271e-06 -3.12247e-06 0)
(4.49055e-06 -3.01769e-06 0)
(4.72848e-06 -2.91311e-06 0)
(4.96632e-06 -2.80859e-06 0)
(5.20396e-06 -2.70402e-06 0)
(5.44123e-06 -2.59935e-06 0)
(5.67813e-06 -2.49436e-06 0)
(5.91474e-06 -2.38902e-06 0)
(6.15097e-06 -2.2834e-06 0)
(6.38695e-06 -2.17754e-06 0)
(6.62273e-06 -2.07173e-06 0)
(6.85842e-06 -1.96631e-06 0)
(2.30193e-06 -4.0501e-06 0)
(2.52475e-06 -3.95102e-06 0)
(2.75086e-06 -3.84979e-06 0)
(2.9797e-06 -3.74692e-06 0)
(3.21095e-06 -3.643e-06 0)
(3.44417e-06 -3.53845e-06 0)
(3.67894e-06 -3.43366e-06 0)
(3.91484e-06 -3.32886e-06 0)
(4.15151e-06 -3.22409e-06 0)
(4.38867e-06 -3.1194e-06 0)
(4.62602e-06 -3.01485e-06 0)
(4.86331e-06 -2.91031e-06 0)
(5.10045e-06 -2.80563e-06 0)
(5.33733e-06 -2.70079e-06 0)
(5.57387e-06 -2.5957e-06 0)
(5.81016e-06 -2.49025e-06 0)
(6.04623e-06 -2.38457e-06 0)
(6.28209e-06 -2.27865e-06 0)
(6.51788e-06 -2.17288e-06 0)
(6.75354e-06 -2.06762e-06 0)
(1.70039e-07 -3.49015e-06 0)
(5.12458e-07 -3.43877e-06 0)
(8.61878e-07 -3.33803e-06 0)
(1.22227e-06 -3.19203e-06 0)
(1.59682e-06 -3.0063e-06 0)
(1.98752e-06 -2.78785e-06 0)
(2.39515e-06 -2.54462e-06 0)
(2.81898e-06 -2.28498e-06 0)
(3.25758e-06 -2.01733e-06 0)
(3.70743e-06 -1.74832e-06 0)
(1.65281e-07 -3.5472e-06 0)
(4.97836e-07 -3.50026e-06 0)
(8.362e-07 -3.40815e-06 0)
(1.18373e-06 -3.27437e-06 0)
(1.54312e-06 -3.1036e-06 0)
(1.91606e-06 -2.9018e-06 0)
(2.30325e-06 -2.67573e-06 0)
(2.70393e-06 -2.43264e-06 0)
(3.11623e-06 -2.18014e-06 0)
(3.53734e-06 -1.92393e-06 0)
(1.61053e-07 -3.60564e-06 0)
(4.84822e-07 -3.56274e-06 0)
(8.13321e-07 -3.47843e-06 0)
(1.14924e-06 -3.35579e-06 0)
(1.49486e-06 -3.19887e-06 0)
(1.85156e-06 -3.01282e-06 0)
(2.22007e-06 -2.80343e-06 0)
(2.60014e-06 -2.5768e-06 0)
(2.99037e-06 -2.33956e-06 0)
(3.38895e-06 -2.09546e-06 0)
(1.57286e-07 -3.66555e-06 0)
(4.73233e-07 -3.62606e-06 0)
(7.93157e-07 -3.54841e-06 0)
(1.11918e-06 -3.43529e-06 0)
(1.45323e-06 -3.29027e-06 0)
(1.79643e-06 -3.11783e-06 0)
(2.14928e-06 -2.92316e-06 0)
(2.51158e-06 -2.71157e-06 0)
(2.8821e-06 -2.4893e-06 0)
(3.25931e-06 -2.25925e-06 0)
(1.53831e-07 -3.72689e-06 0)
(4.62558e-07 -3.69046e-06 0)
(7.74624e-07 -3.61877e-06 0)
(1.09169e-06 -3.51421e-06 0)
(1.4154e-06 -3.37997e-06 0)
(1.74665e-06 -3.22002e-06 0)
(2.08591e-06 -3.03898e-06 0)
(2.43299e-06 -2.84134e-06 0)
(2.78701e-06 -2.63281e-06 0)
(3.14593e-06 -2.416e-06 0)
(1.50598e-07 -3.78958e-06 0)
(4.52676e-07 -3.7558e-06 0)
(7.57547e-07 -3.68929e-06 0)
(1.06659e-06 -3.59223e-06 0)
(1.38116e-06 -3.46744e-06 0)
(1.70198e-06 -3.31854e-06 0)
(2.02938e-06 -3.14969e-06 0)
(2.3631e-06 -2.9649e-06 0)
(2.70268e-06 -2.76932e-06 0)
(3.04566e-06 -2.56556e-06 0)
(1.47496e-07 -3.85354e-06 0)
(4.43266e-07 -3.82212e-06 0)
(7.41371e-07 -3.76025e-06 0)
(1.04302e-06 -3.66987e-06 0)
(1.34926e-06 -3.55359e-06 0)
(1.66076e-06 -3.41464e-06 0)
(1.97777e-06 -3.25684e-06 0)
(2.29987e-06 -3.08374e-06 0)
(2.62698e-06 -2.89996e-06 0)
(2.95625e-06 -2.70836e-06 0)
(1.44535e-07 -3.91862e-06 0)
(4.34223e-07 -3.88929e-06 0)
(7.25912e-07 -3.83152e-06 0)
(1.02065e-06 -3.74707e-06 0)
(1.31928e-06 -3.63836e-06 0)
(1.62232e-06 -3.50832e-06 0)
(1.93005e-06 -3.36046e-06 0)
(2.24189e-06 -3.19805e-06 0)
(2.55806e-06 -3.02515e-06 0)
(2.8755e-06 -2.84483e-06 0)
(1.41641e-07 -3.9847e-06 0)
(4.25376e-07 -3.95725e-06 0)
(7.10877e-07 -3.90315e-06 0)
(9.99028e-07 -3.82403e-06 0)
(1.29055e-06 -3.72212e-06 0)
(1.58586e-06 -3.6001e-06 0)
(1.88518e-06 -3.46121e-06 0)
(2.1879e-06 -3.3085e-06 0)
(2.49439e-06 -3.14553e-06 0)
(2.80159e-06 -2.97552e-06 0)
(1.38738e-07 -4.05165e-06 0)
(4.16615e-07 -4.02587e-06 0)
(6.96077e-07 -3.97506e-06 0)
(9.77877e-07 -3.90072e-06 0)
(1.26264e-06 -3.80493e-06 0)
(1.55074e-06 -3.69013e-06 0)
(1.84236e-06 -3.55934e-06 0)
(2.13684e-06 -3.41543e-06 0)
(2.43466e-06 -3.26153e-06 0)
(2.73288e-06 -3.10093e-06 0)
(1.35802e-07 -4.11931e-06 0)
(4.07847e-07 -4.09504e-06 0)
(6.813e-07 -4.0472e-06 0)
(9.56885e-07 -3.97717e-06 0)
(1.23513e-06 -3.88691e-06 0)
(1.51639e-06 -3.77864e-06 0)
(1.80083e-06 -3.65518e-06 0)
(2.08779e-06 -3.51925e-06 0)
(2.37774e-06 -3.37362e-06 0)
(2.66798e-06 -3.22156e-06 0)
(1.32837e-07 -4.1875e-06 0)
(3.98985e-07 -4.1646e-06 0)
(6.66376e-07 -4.11946e-06 0)
(9.35784e-07 -4.05334e-06 0)
(1.20765e-06 -3.96807e-06 0)
(1.48232e-06 -3.86574e-06 0)
(1.75996e-06 -3.74894e-06 0)
(2.03992e-06 -3.62026e-06 0)
(2.32265e-06 -3.48216e-06 0)
(2.60571e-06 -3.33786e-06 0)
(1.29814e-07 -4.25606e-06 0)
(3.89892e-07 -4.23442e-06 0)
(6.51108e-07 -4.19174e-06 0)
(9.14284e-07 -4.12918e-06 0)
(1.17983e-06 -4.04845e-06 0)
(1.44804e-06 -3.95154e-06 0)
(1.71912e-06 -3.8408e-06 0)
(1.99246e-06 -3.7187e-06 0)
(2.26846e-06 -3.58748e-06 0)
(2.54499e-06 -3.45022e-06 0)
(1.26671e-07 -4.32478e-06 0)
(3.80425e-07 -4.30428e-06 0)
(6.35291e-07 -4.26385e-06 0)
(8.92094e-07 -4.20455e-06 0)
(1.15126e-06 -4.128e-06 0)
(1.41305e-06 -4.03603e-06 0)
(1.67769e-06 -3.93084e-06 0)
(1.94467e-06 -3.81476e-06 0)
(2.21431e-06 -3.68984e-06 0)
(2.48477e-06 -3.55899e-06 0)
(1.23349e-07 -4.39347e-06 0)
(3.70456e-07 -4.37403e-06 0)
(6.18716e-07 -4.33567e-06 0)
(8.68918e-07 -4.27939e-06 0)
(1.12154e-06 -4.20669e-06 0)
(1.37683e-06 -4.11929e-06 0)
(1.63505e-06 -4.0192e-06 0)
(1.89579e-06 -3.90863e-06 0)
(2.1593e-06 -3.78951e-06 0)
(2.42399e-06 -3.66451e-06 0)
(1.19813e-07 -4.46179e-06 0)
(3.59885e-07 -4.44332e-06 0)
(6.01183e-07 -4.40691e-06 0)
(8.44456e-07 -4.35344e-06 0)
(1.09025e-06 -4.28431e-06 0)
(1.33886e-06 -4.20113e-06 0)
(1.59057e-06 -4.10578e-06 0)
(1.84508e-06 -4.00034e-06 0)
(2.10253e-06 -3.88657e-06 0)
(2.36165e-06 -3.76694e-06 0)
(1.16032e-07 -4.52962e-06 0)
(3.48577e-07 -4.51208e-06 0)
(5.82424e-07 -4.47749e-06 0)
(8.18325e-07 -4.42667e-06 0)
(1.05691e-06 -4.36091e-06 0)
(1.29853e-06 -4.28169e-06 0)
(1.54351e-06 -4.19079e-06 0)
(1.79163e-06 -4.09015e-06 0)
(2.04301e-06 -3.98136e-06 0)
(2.29656e-06 -3.86674e-06 0)
(1.11954e-07 -4.59622e-06 0)
(3.36359e-07 -4.57957e-06 0)
(5.62153e-07 -4.54672e-06 0)
(7.90128e-07 -4.49843e-06 0)
(1.021e-06 -4.43587e-06 0)
(1.2552e-06 -4.36044e-06 0)
(1.49309e-06 -4.27377e-06 0)
(1.73452e-06 -4.17767e-06 0)
(1.97962e-06 -4.0736e-06 0)
(2.22756e-06 -3.96371e-06 0)
(1.07486e-07 -4.66195e-06 0)
(3.22963e-07 -4.64616e-06 0)
(5.39936e-07 -4.61499e-06 0)
(7.59279e-07 -4.56914e-06 0)
(9.81775e-07 -4.50968e-06 0)
(1.20795e-06 -4.43791e-06 0)
(1.43822e-06 -4.35533e-06 0)
(1.67257e-06 -4.26359e-06 0)
(1.91109e-06 -4.16407e-06 0)
(2.15324e-06 -4.05869e-06 0)
(1.02582e-07 -4.72481e-06 0)
(3.08278e-07 -4.70987e-06 0)
(5.15588e-07 -4.68038e-06 0)
(7.25489e-07 -4.63696e-06 0)
(9.38861e-07 -4.58059e-06 0)
(1.15632e-06 -4.51247e-06 0)
(1.37834e-06 -4.43397e-06 0)
(1.60509e-06 -4.34658e-06 0)
(1.83665e-06 -4.25163e-06 0)
(2.07275e-06 -4.1508e-06 0)
)


// ************************************************************************* //
