/*--------------------------------*- C++ -*----------------------------------*\
| =========                 |                                                 |
| \\      /  F ield         | foam-extend: Open Source CFD                    |
|  \\    /   O peration     | Version:     4.1                                |
|   \\  /    A nd           | Web:         http://www.foam-extend.org         |
|    \\/     M anipulation  |                                                 |
\*---------------------------------------------------------------------------*/
FoamFile
{
    version     2.0;
    format      ascii;
    class       vectorField;
    location    "8";
    object      solidsCellD_iteration5;
}
// * * * * * * * * * * * * * * * * * * * * * * * * * * * * * * * * * * * * * //


1000
(
(4.10093e-06 -1.71534e-06 0)
(3.87296e-06 -1.59806e-06 0)
(3.72781e-06 -1.52439e-06 0)
(3.64515e-06 -1.49082e-06 0)
(3.60554e-06 -1.48021e-06 0)
(3.59741e-06 -1.48734e-06 0)
(3.61241e-06 -1.50607e-06 0)
(3.64482e-06 -1.53351e-06 0)
(3.69013e-06 -1.56684e-06 0)
(3.74465e-06 -1.60483e-06 0)
(3.70867e-06 -1.8736e-06 0)
(3.46573e-06 -1.79263e-06 0)
(3.31104e-06 -1.74201e-06 0)
(3.22134e-06 -1.72416e-06 0)
(3.17621e-06 -1.72401e-06 0)
(3.16293e-06 -1.73859e-06 0)
(3.17291e-06 -1.76269e-06 0)
(3.20001e-06 -1.79409e-06 0)
(3.23962e-06 -1.83067e-06 0)
(3.28784e-06 -1.87042e-06 0)
(3.3008e-06 -2.02359e-06 0)
(3.05252e-06 -1.9832e-06 0)
(2.89453e-06 -1.95825e-06 0)
(2.80165e-06 -1.95768e-06 0)
(2.75338e-06 -1.96885e-06 0)
(2.7365e-06 -1.99127e-06 0)
(2.74237e-06 -2.02082e-06 0)
(2.76488e-06 -2.05602e-06 0)
(2.79936e-06 -2.09556e-06 0)
(2.84214e-06 -2.13718e-06 0)
(2.88056e-06 -2.16266e-06 0)
(2.63732e-06 -2.16482e-06 0)
(2.48259e-06 -2.16677e-06 0)
(2.3907e-06 -2.18418e-06 0)
(2.34185e-06 -2.20707e-06 0)
(2.32299e-06 -2.23749e-06 0)
(2.32576e-06 -2.27246e-06 0)
(2.34419e-06 -2.31145e-06 0)
(2.37395e-06 -2.35384e-06 0)
(2.41133e-06 -2.39749e-06 0)
(2.45072e-06 -2.28806e-06 0)
(2.22295e-06 -2.33236e-06 0)
(2.07806e-06 -2.36102e-06 0)
(1.99142e-06 -2.39618e-06 0)
(1.94467e-06 -2.43054e-06 0)
(1.92541e-06 -2.46875e-06 0)
(1.92599e-06 -2.50897e-06 0)
(1.94075e-06 -2.55165e-06 0)
(1.96594e-06 -2.59673e-06 0)
(1.99788e-06 -2.64254e-06 0)
(2.01352e-06 -2.39721e-06 0)
(1.81122e-06 -2.48094e-06 0)
(1.68258e-06 -2.53457e-06 0)
(1.60528e-06 -2.58631e-06 0)
(1.56309e-06 -2.63139e-06 0)
(1.54491e-06 -2.67686e-06 0)
(1.54414e-06 -2.7219e-06 0)
(1.55569e-06 -2.76802e-06 0)
(1.57636e-06 -2.81558e-06 0)
(1.6027e-06 -2.86352e-06 0)
(1.57096e-06 -2.4877e-06 0)
(1.40319e-06 -2.60597e-06 0)
(1.29653e-06 -2.68149e-06 0)
(1.23217e-06 -2.74773e-06 0)
(1.19676e-06 -2.80217e-06 0)
(1.18108e-06 -2.85399e-06 0)
(1.17969e-06 -2.90324e-06 0)
(1.18834e-06 -2.95238e-06 0)
(1.20446e-06 -3.00211e-06 0)
(1.22505e-06 -3.05203e-06 0)
(1.12464e-06 -2.55748e-06 0)
(9.9897e-07 -2.70349e-06 0)
(9.19096e-07 -2.79659e-06 0)
(8.70822e-07 -2.87444e-06 0)
(8.44085e-07 -2.93641e-06 0)
(8.32015e-07 -2.99331e-06 0)
(8.30578e-07 -3.04596e-06 0)
(8.36559e-07 -3.09755e-06 0)
(8.48101e-07 -3.149e-06 0)
(8.62852e-07 -3.20056e-06 0)
(6.75853e-07 -2.6049e-06 0)
(5.98067e-07 -2.77031e-06 0)
(5.48618e-07 -2.87571e-06 0)
(5.18626e-07 -2.96172e-06 0)
(5.01939e-07 -3.02895e-06 0)
(4.94345e-07 -3.08939e-06 0)
(4.93323e-07 -3.14443e-06 0)
(4.96823e-07 -3.19777e-06 0)
(5.03725e-07 -3.25048e-06 0)
(5.1258e-07 -3.30325e-06 0)
(2.25726e-07 -2.6288e-06 0)
(1.99338e-07 -2.8042e-06 0)
(1.82536e-07 -2.91596e-06 0)
(1.72362e-07 -3.00618e-06 0)
(1.66696e-07 -3.07611e-06 0)
(1.64057e-07 -3.13839e-06 0)
(1.63638e-07 -3.19464e-06 0)
(1.6478e-07 -3.24887e-06 0)
(1.67078e-07 -3.30221e-06 0)
(1.70014e-07 -3.35559e-06 0)
(6.39395e-06 -7.83224e-08 0)
(6.45153e-06 -5.65554e-08 0)
(6.48707e-06 -4.27813e-08 0)
(6.52572e-06 -3.47086e-08 0)
(6.568e-06 -3.02634e-08 0)
(6.61979e-06 -2.8251e-08 0)
(6.68093e-06 -2.7852e-08 0)
(6.75204e-06 -2.8534e-08 0)
(6.83294e-06 -3.00116e-08 0)
(6.92257e-06 -3.17535e-08 0)
(6.34675e-06 -2.3494e-07 0)
(6.39481e-06 -1.70917e-07 0)
(6.4244e-06 -1.30507e-07 0)
(6.45906e-06 -1.06911e-07 0)
(6.49871e-06 -9.3948e-08 0)
(6.5486e-06 -8.81265e-08 0)
(6.6084e-06 -8.71236e-08 0)
(6.67843e-06 -8.92926e-08 0)
(6.7584e-06 -9.37125e-08 0)
(6.84705e-06 -9.89372e-08 0)
(6.25239e-06 -3.92902e-07 0)
(6.28233e-06 -2.90127e-07 0)
(6.30048e-06 -2.25309e-07 0)
(6.32756e-06 -1.8755e-07 0)
(6.3622e-06 -1.66942e-07 0)
(6.40857e-06 -1.57855e-07 0)
(6.46576e-06 -1.56491e-07 0)
(6.53365e-06 -1.60242e-07 0)
(6.61184e-06 -1.67615e-07 0)
(6.69858e-06 -1.76363e-07 0)
(6.11258e-06 -5.5283e-07 0)
(6.11681e-06 -4.16906e-07 0)
(6.11862e-06 -3.3124e-07 0)
(6.13493e-06 -2.81558e-07 0)
(6.1624e-06 -2.54609e-07 0)
(6.20367e-06 -2.43015e-07 0)
(6.25716e-06 -2.41692e-07 0)
(6.32208e-06 -2.47245e-07 0)
(6.39775e-06 -2.57603e-07 0)
(6.48185e-06 -2.69892e-07 0)
(5.92946e-06 -7.15187e-07 0)
(5.90192e-06 -5.53562e-07 0)
(5.88355e-06 -4.51713e-07 0)
(5.88645e-06 -3.93059e-07 0)
(5.90507e-06 -3.61547e-07 0)
(5.94006e-06 -3.48511e-07 0)
(5.98893e-06 -3.47816e-07 0)
(6.05012e-06 -3.55433e-07 0)
(6.12263e-06 -3.68774e-07 0)
(6.20353e-06 -3.84592e-07 0)
(5.70583e-06 -8.80026e-07 0)
(5.64227e-06 -7.01554e-07 0)
(5.6011e-06 -5.89062e-07 0)
(5.58884e-06 -5.24941e-07 0)
(5.59742e-06 -4.91018e-07 0)
(5.62526e-06 -4.77812e-07 0)
(5.66886e-06 -4.78391e-07 0)
(5.72579e-06 -4.8835e-07 0)
(5.79466e-06 -5.04673e-07 0)
(5.87201e-06 -5.24008e-07 0)
(5.44491e-06 -1.04703e-06 0)
(5.34332e-06 -8.6148e-07 0)
(5.27808e-06 -7.44509e-07 0)
(5.24981e-06 -6.78809e-07 0)
(5.2477e-06 -6.44834e-07 0)
(5.26791e-06 -6.32857e-07 0)
(5.30584e-06 -6.35449e-07 0)
(5.35816e-06 -6.48085e-07 0)
(5.42304e-06 -6.6747e-07 0)
(5.49667e-06 -6.90294e-07 0)
(5.15019e-06 -1.21546e-06 0)
(5.01088e-06 -1.03296e-06 0)
(4.92176e-06 -9.1792e-07 0)
(4.87752e-06 -8.54653e-07 0)
(4.8647e-06 -8.23077e-07 0)
(4.87717e-06 -8.13798e-07 0)
(4.90926e-06 -8.19189e-07 0)
(4.95684e-06 -8.34893e-07 0)
(5.01749e-06 -8.57403e-07 0)
(5.08736e-06 -8.83731e-07 0)
(4.82544e-06 -1.38411e-06 0)
(4.65105e-06 -1.21462e-06 0)
(4.5398e-06 -1.1078e-06 0)
(4.48061e-06 -1.05092e-06 0)
(4.45765e-06 -1.02418e-06 0)
(4.46264e-06 -1.01907e-06 0)
(4.4889e-06 -1.02812e-06 0)
(4.53166e-06 -1.04724e-06 0)
(4.58776e-06 -1.07311e-06 0)
(4.65381e-06 -1.10279e-06 0)
(4.47445e-06 -1.55138e-06 0)
(4.26983e-06 -1.40405e-06 0)
(4.13948e-06 -1.31129e-06 0)
(4.06722e-06 -1.26452e-06 0)
(4.03518e-06 -1.24488e-06 0)
(4.0332e-06 -1.24532e-06 0)
(4.05384e-06 -1.25885e-06 0)
(4.09178e-06 -1.282e-06 0)
(4.14336e-06 -1.3115e-06 0)
(4.20518e-06 -1.34574e-06 0)
(7.02104e-06 -3.34753e-08 0)
(7.12836e-06 -3.38849e-08 0)
(7.24246e-06 -3.43522e-08 0)
(7.36294e-06 -3.4682e-08 0)
(7.48904e-06 -3.48418e-08 0)
(7.6203e-06 -3.48251e-08 0)
(7.75616e-06 -3.4605e-08 0)
(7.89608e-06 -3.4194e-08 0)
(8.0396e-06 -3.35674e-08 0)
(8.18629e-06 -3.26947e-08 0)
(8.33574e-06 -3.15492e-08 0)
(8.48747e-06 -3.012e-08 0)
(8.64108e-06 -2.83953e-08 0)
(8.79613e-06 -2.63534e-08 0)
(8.95222e-06 -2.39526e-08 0)
(9.10875e-06 -2.11421e-08 0)
(9.26545e-06 -1.78609e-08 0)
(9.42128e-06 -1.40468e-08 0)
(9.57645e-06 -9.60895e-09 0)
(9.72849e-06 -4.52003e-09 0)
(6.94887e-06 -1.03785e-07 0)
(7.06222e-06 -1.04564e-07 0)
(7.18171e-06 -1.05539e-07 0)
(7.30688e-06 -1.0618e-07 0)
(7.4372e-06 -1.06363e-07 0)
(7.57218e-06 -1.06089e-07 0)
(7.71137e-06 -1.05253e-07 0)
(7.85432e-06 -1.03852e-07 0)
(8.0006e-06 -1.01797e-07 0)
(8.14982e-06 -9.90344e-08 0)
(8.30158e-06 -9.55122e-08 0)
(8.45547e-06 -9.11875e-08 0)
(8.61112e-06 -8.59907e-08 0)
(8.76807e-06 -7.98305e-08 0)
(8.92596e-06 -7.25847e-08 0)
(9.08419e-06 -6.41218e-08 0)
(9.24252e-06 -5.42699e-08 0)
(9.39992e-06 -4.28477e-08 0)
(9.55667e-06 -2.95762e-08 0)
(9.71029e-06 -1.43482e-08 0)
(6.8069e-06 -1.8331e-07 0)
(6.93207e-06 -1.83108e-07 0)
(7.06219e-06 -1.83367e-07 0)
(7.19655e-06 -1.83396e-07 0)
(7.33507e-06 -1.82849e-07 0)
(7.47735e-06 -1.81726e-07 0)
(7.62317e-06 -1.79789e-07 0)
(7.77208e-06 -1.76998e-07 0)
(7.92377e-06 -1.73188e-07 0)
(8.07794e-06 -1.68288e-07 0)
(8.23428e-06 -1.62204e-07 0)
(8.39244e-06 -1.54842e-07 0)
(8.55208e-06 -1.46059e-07 0)
(8.71278e-06 -1.35688e-07 0)
(8.8742e-06 -1.23531e-07 0)
(9.03583e-06 -1.09375e-07 0)
(9.19743e-06 -9.2931e-08 0)
(9.35801e-06 -7.39095e-08 0)
(9.51785e-06 -5.18447e-08 0)
(9.67454e-06 -2.65339e-08 0)
(6.59948e-06 -2.77292e-07 0)
(6.74159e-06 -2.73992e-07 0)
(6.88704e-06 -2.71615e-07 0)
(7.03474e-06 -2.6959e-07 0)
(7.18528e-06 -2.67113e-07 0)
(7.33823e-06 -2.64191e-07 0)
(7.49366e-06 -2.60367e-07 0)
(7.65125e-06 -2.55554e-07 0)
(7.81092e-06 -2.49496e-07 0)
(7.9724e-06 -2.4208e-07 0)
(8.1355e-06 -2.33141e-07 0)
(8.29991e-06 -2.22502e-07 0)
(8.46537e-06 -2.09941e-07 0)
(8.63154e-06 -1.95228e-07 0)
(8.79815e-06 -1.78094e-07 0)
(8.96476e-06 -1.58216e-07 0)
(9.13113e-06 -1.35185e-07 0)
(9.29637e-06 -1.0859e-07 0)
(9.46076e-06 -7.77689e-08 0)
(9.62196e-06 -4.24385e-08 0)
(6.33272e-06 -3.90377e-07 0)
(6.49613e-06 -3.81292e-07 0)
(6.66109e-06 -3.73828e-07 0)
(6.82575e-06 -3.67869e-07 0)
(6.99164e-06 -3.61875e-07 0)
(7.15823e-06 -3.55864e-07 0)
(7.32608e-06 -3.49116e-07 0)
(7.49489e-06 -3.41461e-07 0)
(7.66483e-06 -3.32509e-07 0)
(7.83574e-06 -3.22051e-07 0)
(8.00753e-06 -3.09825e-07 0)
(8.18e-06 -2.95571e-07 0)
(8.353e-06 -2.78984e-07 0)
(8.52628e-06 -2.59759e-07 0)
(8.69964e-06 -2.37534e-07 0)
(8.87264e-06 -2.11877e-07 0)
(9.04521e-06 -1.82253e-07 0)
(9.21639e-06 -1.48125e-07 0)
(9.38667e-06 -1.08624e-07 0)
(9.55372e-06 -6.33767e-08 0)
(6.0143e-06 -5.25871e-07 0)
(6.20225e-06 -5.07903e-07 0)
(6.39e-06 -4.92461e-07 0)
(6.57462e-06 -4.80277e-07 0)
(6.75874e-06 -4.68881e-07 0)
(6.94164e-06 -4.58257e-07 0)
(7.12432e-06 -4.47362e-07 0)
(7.3066e-06 -4.35849e-07 0)
(7.48885e-06 -4.23187e-07 0)
(7.67105e-06 -4.09045e-07 0)
(7.85329e-06 -3.93045e-07 0)
(8.03549e-06 -3.74812e-07 0)
(8.21758e-06 -3.53945e-07 0)
(8.39938e-06 -3.30043e-07 0)
(8.58083e-06 -3.02623e-07 0)
(8.76152e-06 -2.71146e-07 0)
(8.94149e-06 -2.34952e-07 0)
(9.11985e-06 -1.93373e-07 0)
(9.29719e-06 -1.45331e-07 0)
(9.47128e-06 -9.03197e-08 0)
(5.65296e-06 -6.85927e-07 0)
(5.86764e-06 -6.55865e-07 0)
(6.08065e-06 -6.2954e-07 0)
(6.28755e-06 -6.08695e-07 0)
(6.49209e-06 -5.89929e-07 0)
(6.69341e-06 -5.7301e-07 0)
(6.89282e-06 -5.56606e-07 0)
(7.0904e-06 -5.40115e-07 0)
(7.28668e-06 -5.22848e-07 0)
(7.48181e-06 -5.04296e-07 0)
(7.67601e-06 -4.83941e-07 0)
(7.86933e-06 -4.61275e-07 0)
(8.0618e-06 -4.3578e-07 0)
(8.25338e-06 -4.06948e-07 0)
(8.44406e-06 -3.74176e-07 0)
(8.63356e-06 -3.36811e-07 0)
(8.82201e-06 -2.94065e-07 0)
(9.00863e-06 -2.45116e-07 0)
(9.19404e-06 -1.88669e-07 0)
(9.37619e-06 -1.24086e-07 0)
(5.25765e-06 -8.70935e-07 0)
(5.50006e-06 -8.25328e-07 0)
(5.73964e-06 -7.85265e-07 0)
(5.9705e-06 -7.53042e-07 0)
(6.19705e-06 -7.24777e-07 0)
(6.41851e-06 -6.99712e-07 0)
(6.63632e-06 -6.76329e-07 0)
(6.85077e-06 -6.53682e-07 0)
(7.06255e-06 -6.30892e-07 0)
(7.27198e-06 -6.07217e-07 0)
(7.47941e-06 -5.81967e-07 0)
(7.68499e-06 -5.54474e-07 0)
(7.88891e-06 -5.24094e-07 0)
(8.09127e-06 -4.90188e-07 0)
(8.29215e-06 -4.52021e-07 0)
(8.4914e-06 -4.08819e-07 0)
(8.68922e-06 -3.59634e-07 0)
(8.88492e-06 -3.03486e-07 0)
(9.07923e-06 -2.3886e-07 0)
(9.2703e-06 -1.64986e-07 0)
(4.83783e-06 -1.08065e-06 0)
(5.10835e-06 -1.01644e-06 0)
(5.37471e-06 -9.6074e-07 0)
(5.6305e-06 -9.14793e-07 0)
(5.87989e-06 -8.75225e-07 0)
(6.12249e-06 -8.40354e-07 0)
(6.35969e-06 -8.08564e-07 0)
(6.59205e-06 -7.78527e-07 0)
(6.82032e-06 -7.49149e-07 0)
(7.04501e-06 -7.19451e-07 0)
(7.26657e-06 -6.88561e-07 0)
(7.48533e-06 -6.55652e-07 0)
(7.70158e-06 -6.19942e-07 0)
(7.91557e-06 -5.80649e-07 0)
(8.12743e-06 -5.36892e-07 0)
(8.33717e-06 -4.8776e-07 0)
(8.54505e-06 -4.32138e-07 0)
(8.75053e-06 -3.68886e-07 0)
(8.9544e-06 -2.9629e-07 0)
(9.15511e-06 -2.13468e-07 0)
(4.40139e-06 -1.31169e-06 0)
(4.70051e-06 -1.2246e-06 0)
(4.9928e-06 -1.15137e-06 0)
(5.27424e-06 -1.08941e-06 0)
(5.54707e-06 -1.03652e-06 0)
(5.8117e-06 -9.90212e-07 0)
(6.06917e-06 -9.48697e-07 0)
(6.32026e-06 -9.10296e-07 0)
(6.5658e-06 -8.73608e-07 0)
(6.80645e-06 -8.37393e-07 0)
(7.0428e-06 -8.00549e-07 0)
(7.27531e-06 -7.62056e-07 0)
(7.50442e-06 -7.20961e-07 0)
(7.73049e-06 -6.7632e-07 0)
(7.95375e-06 -6.27099e-07 0)
(8.17434e-06 -5.72246e-07 0)
(8.3926e-06 -5.10478e-07 0)
(8.6082e-06 -4.40501e-07 0)
(8.82199e-06 -3.60406e-07 0)
(9.03278e-06 -2.69165e-07 0)
(4.07582e-06 -1.53438e-06 0)
(4.39522e-06 -1.42793e-06 0)
(4.70349e-06 -1.34136e-06 0)
(5.00086e-06 -1.26659e-06 0)
(5.28842e-06 -1.20196e-06 0)
(5.56701e-06 -1.14496e-06 0)
(5.83761e-06 -1.09368e-06 0)
(6.10101e-06 -1.0464e-06 0)
(6.35803e-06 -1.00161e-06 0)
(6.60936e-06 -9.57943e-07 0)
(6.85561e-06 -9.14195e-07 0)
(7.09728e-06 -8.69235e-07 0)
(7.33489e-06 -8.21997e-07 0)
(7.56886e-06 -7.7143e-07 0)
(7.79945e-06 -7.16406e-07 0)
(8.02698e-06 -6.55782e-07 0)
(8.25176e-06 -5.88199e-07 0)
(8.47375e-06 -5.12302e-07 0)
(8.69376e-06 -4.26136e-07 0)
(8.91105e-06 -3.2862e-07 0)
(3.8902e-06 -1.71569e-06 0)
(4.21154e-06 -1.60487e-06 0)
(4.52252e-06 -1.51059e-06 0)
(4.82408e-06 -1.42774e-06 0)
(5.11641e-06 -1.35477e-06 0)
(5.4001e-06 -1.28955e-06 0)
(5.67584e-06 -1.23026e-06 0)
(5.94429e-06 -1.17527e-06 0)
(6.20613e-06 -1.12312e-06 0)
(6.46196e-06 -1.07246e-06 0)
(6.71237e-06 -1.02207e-06 0)
(6.95784e-06 -9.70805e-07 0)
(7.1989e-06 -9.1758e-07 0)
(7.43595e-06 -8.61312e-07 0)
(7.66931e-06 -8.00863e-07 0)
(7.89935e-06 -7.35081e-07 0)
(8.12643e-06 -6.62626e-07 0)
(8.35067e-06 -5.82183e-07 0)
(8.57287e-06 -4.91889e-07 0)
(8.79261e-06 -3.90683e-07 0)
(3.73202e-06 -1.88944e-06 0)
(4.05003e-06 -1.77621e-06 0)
(4.36042e-06 -1.67704e-06 0)
(4.66264e-06 -1.58807e-06 0)
(4.95681e-06 -1.50821e-06 0)
(5.24298e-06 -1.43577e-06 0)
(5.52166e-06 -1.36917e-06 0)
(5.79326e-06 -1.30696e-06 0)
(6.0583e-06 -1.24775e-06 0)
(6.31729e-06 -1.19029e-06 0)
(6.57073e-06 -1.13338e-06 0)
(6.81905e-06 -1.07588e-06 0)
(7.06278e-06 -1.01673e-06 0)
(7.30231e-06 -9.54829e-07 0)
(7.53793e-06 -8.89061e-07 0)
(7.77012e-06 -8.18292e-07 0)
(7.9992e-06 -7.41233e-07 0)
(8.22549e-06 -6.56633e-07 0)
(8.44971e-06 -5.62736e-07 0)
(8.67177e-06 -4.58525e-07 0)
(3.59272e-06 -2.05657e-06 0)
(3.90602e-06 -1.94221e-06 0)
(4.21366e-06 -1.83949e-06 0)
(4.51439e-06 -1.7456e-06 0)
(4.80825e-06 -1.6599e-06 0)
(5.09496e-06 -1.5811e-06 0)
(5.37482e-06 -1.5079e-06 0)
(5.64801e-06 -1.43903e-06 0)
(5.91489e-06 -1.37324e-06 0)
(6.17588e-06 -1.30935e-06 0)
(6.43136e-06 -1.24623e-06 0)
(6.68172e-06 -1.18278e-06 0)
(6.92744e-06 -1.11796e-06 0)
(7.16887e-06 -1.0507e-06 0)
(7.40633e-06 -9.79922e-07 0)
(7.64031e-06 -9.04523e-07 0)
(7.87115e-06 -8.23289e-07 0)
(8.09926e-06 -7.35047e-07 0)
(8.32532e-06 -6.38155e-07 0)
(8.54951e-06 -5.31701e-07 0)
(3.46994e-06 -2.21668e-06 0)
(3.77736e-06 -2.10208e-06 0)
(4.08074e-06 -1.99707e-06 0)
(4.37839e-06 -1.8995e-06 0)
(4.67031e-06 -1.8091e-06 0)
(4.95599e-06 -1.72492e-06 0)
(5.23556e-06 -1.64595e-06 0)
(5.50898e-06 -1.57109e-06 0)
(5.77652e-06 -1.49927e-06 0)
(6.03845e-06 -1.4294e-06 0)
(6.29508e-06 -1.36045e-06 0)
(6.54671e-06 -1.29138e-06 0)
(6.79378e-06 -1.22119e-06 0)
(7.03659e-06 -1.14888e-06 0)
(7.27546e-06 -1.07339e-06 0)
(7.5109e-06 -9.93705e-07 0)
(7.74323e-06 -9.08677e-07 0)
(7.97293e-06 -8.17223e-07 0)
(8.20065e-06 -7.1785e-07 0)
(8.42679e-06 -6.09832e-07 0)
(3.36068e-06 -2.36989e-06 0)
(3.66164e-06 -2.25575e-06 0)
(3.95986e-06 -2.14931e-06 0)
(4.25334e-06 -2.04902e-06 0)
(4.54215e-06 -1.95486e-06 0)
(4.8256e-06 -1.86617e-06 0)
(5.10369e-06 -1.7822e-06 0)
(5.37625e-06 -1.70205e-06 0)
(5.64343e-06 -1.62479e-06 0)
(5.90541e-06 -1.54948e-06 0)
(6.1624e-06 -1.47516e-06 0)
(6.41461e-06 -1.40089e-06 0)
(6.66244e-06 -1.32574e-06 0)
(6.90615e-06 -1.24875e-06 0)
(7.14605e-06 -1.16894e-06 0)
(7.38262e-06 -1.08536e-06 0)
(7.61617e-06 -9.96952e-07 0)
(7.84723e-06 -9.02734e-07 0)
(8.07642e-06 -8.01408e-07 0)
(8.3043e-06 -6.92434e-07 0)
(3.26269e-06 -2.51646e-06 0)
(3.55686e-06 -2.40324e-06 0)
(3.84933e-06 -2.29608e-06 0)
(4.13791e-06 -2.19386e-06 0)
(4.42278e-06 -2.09678e-06 0)
(4.70311e-06 -2.00441e-06 0)
(4.97883e-06 -1.91619e-06 0)
(5.24967e-06 -1.83144e-06 0)
(5.51569e-06 -1.74937e-06 0)
(5.77696e-06 -1.66918e-06 0)
(6.03362e-06 -1.59e-06 0)
(6.28583e-06 -1.51099e-06 0)
(6.53392e-06 -1.4313e-06 0)
(6.77809e-06 -1.35003e-06 0)
(7.01865e-06 -1.26628e-06 0)
(7.25603e-06 -1.17918e-06 0)
(7.49054e-06 -1.08779e-06 0)
(7.72275e-06 -9.91233e-07 0)
(7.95322e-06 -8.88441e-07 0)
(8.18261e-06 -7.78956e-07 0)
(3.17392e-06 -2.65671e-06 0)
(3.46122e-06 -2.54475e-06 0)
(3.7476e-06 -2.43737e-06 0)
(4.03086e-06 -2.33387e-06 0)
(4.31122e-06 -2.23455e-06 0)
(4.5878e-06 -2.13919e-06 0)
(4.86049e-06 -2.04743e-06 0)
(5.12894e-06 -1.95873e-06 0)
(5.39313e-06 -1.87246e-06 0)
(5.65309e-06 -1.78794e-06 0)
(5.90886e-06 -1.70443e-06 0)
(6.16055e-06 -1.62117e-06 0)
(6.40846e-06 -1.53738e-06 0)
(6.6527e-06 -1.45226e-06 0)
(6.8936e-06 -1.36498e-06 0)
(7.13152e-06 -1.27477e-06 0)
(7.36676e-06 -1.18079e-06 0)
(7.59992e-06 -1.08231e-06 0)
(7.83147e-06 -9.78469e-07 0)
(8.06215e-06 -8.68796e-07 0)
(3.09254e-06 -2.79107e-06 0)
(3.37303e-06 -2.68055e-06 0)
(3.65318e-06 -2.57335e-06 0)
(3.9309e-06 -2.46905e-06 0)
(4.20639e-06 -2.36808e-06 0)
(4.47882e-06 -2.27034e-06 0)
(4.748e-06 -2.17564e-06 0)
(5.01357e-06 -2.08359e-06 0)
(5.27546e-06 -1.99371e-06 0)
(5.53362e-06 -1.90543e-06 0)
(5.78806e-06 -1.81811e-06 0)
(6.03883e-06 -1.73109e-06 0)
(6.28618e-06 -1.64367e-06 0)
(6.53018e-06 -1.55512e-06 0)
(6.77112e-06 -1.46473e-06 0)
(7.00933e-06 -1.37179e-06 0)
(7.24511e-06 -1.27563e-06 0)
(7.47902e-06 -1.17562e-06 0)
(7.71146e-06 -1.07102e-06 0)
(7.94321e-06 -9.61461e-07 0)
(3.01695e-06 -2.91998e-06 0)
(3.29077e-06 -2.81101e-06 0)
(3.56471e-06 -2.70424e-06 0)
(3.8368e-06 -2.59951e-06 0)
(4.10725e-06 -2.49733e-06 0)
(4.37526e-06 -2.39772e-06 0)
(4.64065e-06 -2.30063e-06 0)
(4.90301e-06 -2.2058e-06 0)
(5.16224e-06 -2.11286e-06 0)
(5.41827e-06 -2.02136e-06 0)
(5.67104e-06 -1.93075e-06 0)
(5.92057e-06 -1.84046e-06 0)
(6.16706e-06 -1.74987e-06 0)
(6.41056e-06 -1.65833e-06 0)
(6.6513e-06 -1.56523e-06 0)
(6.88962e-06 -1.46998e-06 0)
(7.12575e-06 -1.372e-06 0)
(7.36022e-06 -1.27077e-06 0)
(7.59338e-06 -1.16566e-06 0)
(7.826e-06 -1.05651e-06 0)
(2.94572e-06 -3.04391e-06 0)
(3.21307e-06 -2.93649e-06 0)
(3.4809e-06 -2.83031e-06 0)
(3.74739e-06 -2.72543e-06 0)
(4.01275e-06 -2.6224e-06 0)
(4.27624e-06 -2.52137e-06 0)
(4.53767e-06 -2.42238e-06 0)
(4.79662e-06 -2.32528e-06 0)
(5.05297e-06 -2.2298e-06 0)
(5.30664e-06 -2.13559e-06 0)
(5.5575e-06 -2.04218e-06 0)
(5.80556e-06 -1.94908e-06 0)
(6.05098e-06 -1.85575e-06 0)
(6.29377e-06 -1.76165e-06 0)
(6.53415e-06 -1.66625e-06 0)
(6.7724e-06 -1.56906e-06 0)
(7.00872e-06 -1.46958e-06 0)
(7.24359e-06 -1.36738e-06 0)
(7.4773e-06 -1.262e-06 0)
(7.71062e-06 -1.15342e-06 0)
(2.87759e-06 -3.16326e-06 0)
(3.1387e-06 -3.05735e-06 0)
(3.40057e-06 -2.95185e-06 0)
(3.66157e-06 -2.84701e-06 0)
(3.9219e-06 -2.74346e-06 0)
(4.18087e-06 -2.64138e-06 0)
(4.43828e-06 -2.54093e-06 0)
(4.69374e-06 -2.44201e-06 0)
(4.9471e-06 -2.34447e-06 0)
(5.19826e-06 -2.24799e-06 0)
(5.44708e-06 -2.15223e-06 0)
(5.69352e-06 -2.05675e-06 0)
(5.93773e-06 -1.96112e-06 0)
(6.17968e-06 -1.86487e-06 0)
(6.41956e-06 -1.76755e-06 0)
(6.65762e-06 -1.66876e-06 0)
(6.89398e-06 -1.56807e-06 0)
(7.1291e-06 -1.46513e-06 0)
(7.36323e-06 -1.35971e-06 0)
(7.59708e-06 -1.25174e-06 0)
(2.81139e-06 -3.27843e-06 0)
(3.06652e-06 -3.17391e-06 0)
(3.32264e-06 -3.06916e-06 0)
(3.57833e-06 -2.96455e-06 0)
(3.83374e-06 -2.86071e-06 0)
(4.08826e-06 -2.75791e-06 0)
(4.34171e-06 -2.65635e-06 0)
(4.59368e-06 -2.55601e-06 0)
(4.84404e-06 -2.45681e-06 0)
(5.09265e-06 -2.35851e-06 0)
(5.33935e-06 -2.26083e-06 0)
(5.58411e-06 -2.16341e-06 0)
(5.82702e-06 -2.06589e-06 0)
(6.06806e-06 -1.96788e-06 0)
(6.30735e-06 -1.86901e-06 0)
(6.54511e-06 -1.76891e-06 0)
(6.7814e-06 -1.66725e-06 0)
(7.01667e-06 -1.56379e-06 0)
(7.2511e-06 -1.45847e-06 0)
(7.48533e-06 -1.35116e-06 0)
(2.74604e-06 -3.38973e-06 0)
(2.99546e-06 -3.28654e-06 0)
(3.24608e-06 -3.18255e-06 0)
(3.49667e-06 -3.07828e-06 0)
(3.74734e-06 -2.97436e-06 0)
(3.99758e-06 -2.8711e-06 0)
(4.24717e-06 -2.76876e-06 0)
(4.49576e-06 -2.66737e-06 0)
(4.74317e-06 -2.56692e-06 0)
(4.98926e-06 -2.4672e-06 0)
(5.23387e-06 -2.36799e-06 0)
(5.47694e-06 -2.26903e-06 0)
(5.71856e-06 -2.16999e-06 0)
(5.95865e-06 -2.07057e-06 0)
(6.19729e-06 -1.97044e-06 0)
(6.43467e-06 -1.86929e-06 0)
(6.67081e-06 -1.76689e-06 0)
(6.90615e-06 -1.66313e-06 0)
(7.14078e-06 -1.55792e-06 0)
(7.37528e-06 -1.45131e-06 0)
(2.68048e-06 -3.49753e-06 0)
(2.92447e-06 -3.39557e-06 0)
(3.16986e-06 -3.29236e-06 0)
(3.41559e-06 -3.18852e-06 0)
(3.66178e-06 -3.0847e-06 0)
(3.90796e-06 -2.98123e-06 0)
(4.15391e-06 -2.8784e-06 0)
(4.39927e-06 -2.77628e-06 0)
(4.64387e-06 -2.67488e-06 0)
(4.88756e-06 -2.57408e-06 0)
(5.13016e-06 -2.47372e-06 0)
(5.37163e-06 -2.37359e-06 0)
(5.61199e-06 -2.2734e-06 0)
(5.85112e-06 -2.17287e-06 0)
(6.08909e-06 -2.07175e-06 0)
(6.32605e-06 -1.9698e-06 0)
(6.56203e-06 -1.86688e-06 0)
(6.79737e-06 -1.76294e-06 0)
(7.03212e-06 -1.65787e-06 0)
(7.26675e-06 -1.5519e-06 0)
(2.61368e-06 -3.6021e-06 0)
(2.85251e-06 -3.50138e-06 0)
(3.09292e-06 -3.39885e-06 0)
(3.33415e-06 -3.29552e-06 0)
(3.57618e-06 -3.19197e-06 0)
(3.81861e-06 -3.08851e-06 0)
(4.06118e-06 -2.98543e-06 0)
(4.30355e-06 -2.88286e-06 0)
(4.54554e-06 -2.78084e-06 0)
(4.78702e-06 -2.67931e-06 0)
(5.0278e-06 -2.57814e-06 0)
(5.26777e-06 -2.47714e-06 0)
(5.50692e-06 -2.37608e-06 0)
(5.74513e-06 -2.27473e-06 0)
(5.98244e-06 -2.17287e-06 0)
(6.21901e-06 -2.07036e-06 0)
(6.45481e-06 -1.9671e-06 0)
(6.69009e-06 -1.86298e-06 0)
(6.92485e-06 -1.75812e-06 0)
(7.15954e-06 -1.65269e-06 0)
(2.54459e-06 -3.70383e-06 0)
(2.77837e-06 -3.60396e-06 0)
(3.01405e-06 -3.50236e-06 0)
(3.25133e-06 -3.39975e-06 0)
(3.48958e-06 -3.29658e-06 0)
(3.72866e-06 -3.19328e-06 0)
(3.9682e-06 -3.09017e-06 0)
(4.20792e-06 -2.9874e-06 0)
(4.44762e-06 -2.88504e-06 0)
(4.68717e-06 -2.78306e-06 0)
(4.92632e-06 -2.68136e-06 0)
(5.16494e-06 -2.57977e-06 0)
(5.40299e-06 -2.47809e-06 0)
(5.64036e-06 -2.37617e-06 0)
(5.8771e-06 -2.27382e-06 0)
(6.11332e-06 -2.17092e-06 0)
(6.34887e-06 -2.06738e-06 0)
(6.58399e-06 -1.96315e-06 0)
(6.81874e-06 -1.8585e-06 0)
(7.05356e-06 -1.75353e-06 0)
(2.47155e-06 -3.80257e-06 0)
(2.70106e-06 -3.70375e-06 0)
(2.93285e-06 -3.60326e-06 0)
(3.16632e-06 -3.50137e-06 0)
(3.40127e-06 -3.39874e-06 0)
(3.63738e-06 -3.29579e-06 0)
(3.87433e-06 -3.19286e-06 0)
(4.11182e-06 -3.09013e-06 0)
(4.34964e-06 -2.98768e-06 0)
(4.58757e-06 -2.8855e-06 0)
(4.82532e-06 -2.78348e-06 0)
(5.06276e-06 -2.68154e-06 0)
(5.2999e-06 -2.57952e-06 0)
(5.53662e-06 -2.47723e-06 0)
(5.77285e-06 -2.37454e-06 0)
(6.00859e-06 -2.27137e-06 0)
(6.24385e-06 -2.16763e-06 0)
(6.47895e-06 -2.0634e-06 0)
(6.71368e-06 -1.95888e-06 0)
(6.94831e-06 -1.85425e-06 0)
(2.39362e-06 -3.89944e-06 0)
(2.61921e-06 -3.80182e-06 0)
(2.84746e-06 -3.70218e-06 0)
(3.07781e-06 -3.60107e-06 0)
(3.31004e-06 -3.49908e-06 0)
(3.54381e-06 -3.39664e-06 0)
(3.77882e-06 -3.29407e-06 0)
(4.01468e-06 -3.19154e-06 0)
(4.25106e-06 -3.08915e-06 0)
(4.48771e-06 -2.98692e-06 0)
(4.72441e-06 -2.88482e-06 0)
(4.96107e-06 -2.78271e-06 0)
(5.19753e-06 -2.68047e-06 0)
(5.43355e-06 -2.57796e-06 0)
(5.66924e-06 -2.47507e-06 0)
(5.90471e-06 -2.3717e-06 0)
(6.13974e-06 -2.26784e-06 0)
(6.37461e-06 -2.1636e-06 0)
(6.60929e-06 -2.05914e-06 0)
(6.84387e-06 -1.95474e-06 0)
(2.30975e-06 -3.99359e-06 0)
(2.53189e-06 -3.89733e-06 0)
(2.75718e-06 -3.79891e-06 0)
(2.98508e-06 -3.69883e-06 0)
(3.21535e-06 -3.59773e-06 0)
(3.44759e-06 -3.496e-06 0)
(3.68131e-06 -3.39395e-06 0)
(3.91603e-06 -3.29179e-06 0)
(4.1515e-06 -3.18964e-06 0)
(4.3875e-06 -3.08754e-06 0)
(4.62362e-06 -2.98546e-06 0)
(4.85961e-06 -2.88332e-06 0)
(5.09551e-06 -2.78096e-06 0)
(5.33112e-06 -2.67833e-06 0)
(5.56636e-06 -2.57534e-06 0)
(5.8014e-06 -2.47186e-06 0)
(6.03618e-06 -2.36797e-06 0)
(6.27082e-06 -2.26366e-06 0)
(6.50543e-06 -2.1592e-06 0)
(6.73985e-06 -2.05485e-06 0)
(1.69504e-07 -3.41015e-06 0)
(5.10765e-07 -3.36033e-06 0)
(8.58789e-07 -3.26247e-06 0)
(1.21733e-06 -3.12075e-06 0)
(1.58949e-06 -2.94041e-06 0)
(1.97721e-06 -2.72833e-06 0)
(2.38122e-06 -2.49216e-06 0)
(2.80084e-06 -2.23998e-06 0)
(3.23468e-06 -1.97991e-06 0)
(3.67922e-06 -1.71841e-06 0)
(1.64987e-07 -3.46696e-06 0)
(4.96847e-07 -3.42151e-06 0)
(8.34309e-07 -3.33208e-06 0)
(1.1805e-06 -3.20233e-06 0)
(1.53801e-06 -3.03664e-06 0)
(1.9085e-06 -2.84087e-06 0)
(2.29255e-06 -2.62155e-06 0)
(2.68952e-06 -2.38563e-06 0)
(3.09737e-06 -2.14059e-06 0)
(3.51351e-06 -1.89187e-06 0)
(1.60946e-07 -3.52536e-06 0)
(4.84381e-07 -3.48385e-06 0)
(8.12322e-07 -3.40206e-06 0)
(1.1473e-06 -3.28321e-06 0)
(1.49144e-06 -3.13109e-06 0)
(1.84611e-06 -2.95072e-06 0)
(2.21189e-06 -2.74772e-06 0)
(2.58865e-06 -2.52791e-06 0)
(2.9748e-06 -2.29789e-06 0)
(3.36881e-06 -2.06109e-06 0)
(1.57296e-07 -3.58531e-06 0)
(4.73195e-07 -3.54715e-06 0)
(7.92802e-07 -3.47184e-06 0)
(1.11817e-06 -3.36228e-06 0)
(1.45108e-06 -3.22176e-06 0)
(1.79258e-06 -3.05466e-06 0)
(2.1431e-06 -2.86602e-06 0)
(2.50251e-06 -2.66092e-06 0)
(2.8694e-06 -2.44557e-06 0)
(3.24252e-06 -2.22253e-06 0)
(1.53925e-07 -3.64675e-06 0)
(4.62804e-07 -3.61157e-06 0)
(7.74764e-07 -3.54205e-06 0)
(1.09142e-06 -3.44082e-06 0)
(1.41426e-06 -3.31081e-06 0)
(1.74413e-06 -3.15585e-06 0)
(2.0814e-06 -2.98048e-06 0)
(2.42597e-06 -2.78901e-06 0)
(2.77678e-06 -2.58712e-06 0)
(3.13202e-06 -2.37707e-06 0)
(1.50785e-07 -3.70958e-06 0)
(4.5314e-07 -3.67696e-06 0)
(7.58082e-07 -3.61251e-06 0)
(1.0669e-06 -3.51852e-06 0)
(1.38081e-06 -3.39772e-06 0)
(1.70053e-06 -3.2535e-06 0)
(2.02626e-06 -3.09e-06 0)
(2.3578e-06 -2.91107e-06 0)
(2.69459e-06 -2.72182e-06 0)
(3.03427e-06 -2.52454e-06 0)
(1.47744e-07 -3.7737e-06 0)
(4.43908e-07 -3.74335e-06 0)
(7.42224e-07 -3.68343e-06 0)
(1.04378e-06 -3.59591e-06 0)
(1.34957e-06 -3.48337e-06 0)
(1.66018e-06 -3.34883e-06 0)
(1.9758e-06 -3.19606e-06 0)
(2.29604e-06 -3.02855e-06 0)
(2.62072e-06 -2.85079e-06 0)
(2.94704e-06 -2.66536e-06 0)
(1.44807e-07 -3.83895e-06 0)
(4.3501e-07 -3.81061e-06 0)
(7.27014e-07 -3.7547e-06 0)
(1.02177e-06 -3.6729e-06 0)
(1.32013e-06 -3.56769e-06 0)
(1.62249e-06 -3.44183e-06 0)
(1.92907e-06 -3.29872e-06 0)
(2.23932e-06 -3.1416e-06 0)
(2.55336e-06 -2.97442e-06 0)
(2.86819e-06 -2.79996e-06 0)
(1.41955e-07 -3.90521e-06 0)
(4.26293e-07 -3.87866e-06 0)
(7.12184e-07 -3.82633e-06 0)
(1.00046e-06 -3.74969e-06 0)
(1.29186e-06 -3.65108e-06 0)
(1.58667e-06 -3.53302e-06 0)
(1.88508e-06 -3.39862e-06 0)
(2.18644e-06 -3.25089e-06 0)
(2.49107e-06 -3.09333e-06 0)
(2.79594e-06 -2.9289e-06 0)
(1.39114e-07 -3.97235e-06 0)
(4.17639e-07 -3.94737e-06 0)
(6.97554e-07 -3.89824e-06 0)
(9.79601e-07 -3.82625e-06 0)
(1.26437e-06 -3.73357e-06 0)
(1.55213e-06 -3.62252e-06 0)
(1.84304e-06 -3.49599e-06 0)
(2.13638e-06 -3.35677e-06 0)
(2.43258e-06 -3.208e-06 0)
(2.72874e-06 -3.05271e-06 0)
(1.36221e-07 -4.04019e-06 0)
(4.08946e-07 -4.01662e-06 0)
(6.82939e-07 -3.97039e-06 0)
(9.58876e-07 -3.9026e-06 0)
(1.23725e-06 -3.81527e-06 0)
(1.51832e-06 -3.71057e-06 0)
(1.80223e-06 -3.59115e-06 0)
(2.08824e-06 -3.45967e-06 0)
(2.3768e-06 -3.3189e-06 0)
(2.66524e-06 -3.17187e-06 0)
(1.33273e-07 -4.10853e-06 0)
(4.00155e-07 -4.08625e-06 0)
(6.68197e-07 -4.04266e-06 0)
(9.38038e-07 -3.97868e-06 0)
(1.21015e-06 -3.8962e-06 0)
(1.48476e-06 -3.79726e-06 0)
(1.76202e-06 -3.68429e-06 0)
(2.04121e-06 -3.55984e-06 0)
(2.32275e-06 -3.42633e-06 0)
(2.60425e-06 -3.28679e-06 0)
(1.3027e-07 -4.17721e-06 0)
(3.91168e-07 -4.15614e-06 0)
(6.53143e-07 -4.11494e-06 0)
(9.16824e-07 -4.05444e-06 0)
(1.18271e-06 -3.97638e-06 0)
(1.45098e-06 -3.88268e-06 0)
(1.72182e-06 -3.7756e-06 0)
(1.99456e-06 -3.65752e-06 0)
(2.26955e-06 -3.53063e-06 0)
(2.54471e-06 -3.39787e-06 0)
(1.27172e-07 -4.24603e-06 0)
(3.81848e-07 -4.22608e-06 0)
(6.37571e-07 -4.18706e-06 0)
(8.94963e-07 -4.12973e-06 0)
(1.15456e-06 -4.05573e-06 0)
(1.41652e-06 -3.96684e-06 0)
(1.68106e-06 -3.86514e-06 0)
(1.94756e-06 -3.75286e-06 0)
(2.21634e-06 -3.63204e-06 0)
(2.4856e-06 -3.50547e-06 0)
(1.23914e-07 -4.31482e-06 0)
(3.72047e-07 -4.29591e-06 0)
(6.21258e-07 -4.25888e-06 0)
(8.72156e-07 -4.2045e-06 0)
(1.1253e-06 -4.13424e-06 0)
(1.38088e-06 -4.04978e-06 0)
(1.6391e-06 -3.95302e-06 0)
(1.89948e-06 -3.84606e-06 0)
(2.16227e-06 -3.73083e-06 0)
(2.42593e-06 -3.60987e-06 0)
(1.20443e-07 -4.38323e-06 0)
(3.61647e-07 -4.36529e-06 0)
(6.03997e-07 -4.33011e-06 0)
(8.48092e-07 -4.27848e-06 0)
(1.09452e-06 -4.21168e-06 0)
(1.34352e-06 -4.13132e-06 0)
(1.59534e-06 -4.03913e-06 0)
(1.84962e-06 -3.93713e-06 0)
(2.10649e-06 -3.82706e-06 0)
(2.36472e-06 -3.71125e-06 0)
(1.1672e-07 -4.45114e-06 0)
(3.50519e-07 -4.43413e-06 0)
(5.85542e-07 -4.40071e-06 0)
(8.22407e-07 -4.35163e-06 0)
(1.06174e-06 -4.2881e-06 0)
(1.30387e-06 -4.21159e-06 0)
(1.54908e-06 -4.1237e-06 0)
(1.7971e-06 -4.02635e-06 0)
(2.04804e-06 -3.92105e-06 0)
(2.30084e-06 -3.81006e-06 0)
(1.12707e-07 -4.51784e-06 0)
(3.38517e-07 -4.50172e-06 0)
(5.65631e-07 -4.46996e-06 0)
(7.9473e-07 -4.42333e-06 0)
(1.0265e-06 -4.3629e-06 0)
(1.26134e-06 -4.29004e-06 0)
(1.49959e-06 -4.20627e-06 0)
(1.74106e-06 -4.11331e-06 0)
(1.98584e-06 -4.01255e-06 0)
(2.23317e-06 -3.90609e-06 0)
(1.08325e-07 -4.58368e-06 0)
(3.25399e-07 -4.56841e-06 0)
(5.43864e-07 -4.53827e-06 0)
(7.645e-07 -4.49399e-06 0)
(9.88053e-07 -4.43657e-06 0)
(1.21503e-06 -4.36726e-06 0)
(1.44581e-06 -4.28745e-06 0)
(1.68032e-06 -4.19868e-06 0)
(1.91863e-06 -4.10232e-06 0)
(2.16028e-06 -4.00017e-06 0)
(1.03533e-07 -4.64671e-06 0)
(3.1105e-07 -4.63225e-06 0)
(5.20052e-07 -4.60372e-06 0)
(7.3145e-07 -4.56179e-06 0)
(9.46077e-07 -4.50735e-06 0)
(1.16451e-06 -4.44157e-06 0)
(1.38718e-06 -4.3657e-06 0)
(1.61416e-06 -4.28113e-06 0)
(1.84562e-06 -4.18918e-06 0)
(2.08132e-06 -4.09141e-06 0)
)


// ************************************************************************* //
