/*--------------------------------*- C++ -*----------------------------------*\
| =========                 |                                                 |
| \\      /  F ield         | foam-extend: Open Source CFD                    |
|  \\    /   O peration     | Version:     4.1                                |
|   \\  /    A nd           | Web:         http://www.foam-extend.org         |
|    \\/     M anipulation  |                                                 |
\*---------------------------------------------------------------------------*/
FoamFile
{
    version     2.0;
    format      ascii;
    class       vectorField;
    location    "8";
    object      solidsCellD_iteration9;
}
// * * * * * * * * * * * * * * * * * * * * * * * * * * * * * * * * * * * * * //


1000
(
(4.1473e-06 -1.75611e-06 0)
(3.9133e-06 -1.63459e-06 0)
(3.76386e-06 -1.55765e-06 0)
(3.67811e-06 -1.5219e-06 0)
(3.63624e-06 -1.50971e-06 0)
(3.62645e-06 -1.51573e-06 0)
(3.64023e-06 -1.5336e-06 0)
(3.67172e-06 -1.56036e-06 0)
(3.71654e-06 -1.59305e-06 0)
(3.77128e-06 -1.63004e-06 0)
(3.74997e-06 -1.91821e-06 0)
(3.50076e-06 -1.83376e-06 0)
(3.34172e-06 -1.78029e-06 0)
(3.24889e-06 -1.76051e-06 0)
(3.20148e-06 -1.75894e-06 0)
(3.18664e-06 -1.77245e-06 0)
(3.19559e-06 -1.7957e-06 0)
(3.22204e-06 -1.82644e-06 0)
(3.26144e-06 -1.86242e-06 0)
(3.30989e-06 -1.90144e-06 0)
(3.33711e-06 -2.07183e-06 0)
(3.0825e-06 -2.02883e-06 0)
(2.9201e-06 -2.0016e-06 0)
(2.82418e-06 -1.99943e-06 0)
(2.77376e-06 -2.00937e-06 0)
(2.75546e-06 -2.03085e-06 0)
(2.76048e-06 -2.05965e-06 0)
(2.7825e-06 -2.09432e-06 0)
(2.81691e-06 -2.1334e-06 0)
(2.85996e-06 -2.1745e-06 0)
(2.91182e-06 -2.21426e-06 0)
(2.66251e-06 -2.21474e-06 0)
(2.50352e-06 -2.21503e-06 0)
(2.40874e-06 -2.23121e-06 0)
(2.35795e-06 -2.25311e-06 0)
(2.33782e-06 -2.28276e-06 0)
(2.33983e-06 -2.31712e-06 0)
(2.35788e-06 -2.35571e-06 0)
(2.38761e-06 -2.39775e-06 0)
(2.42527e-06 -2.44108e-06 0)
(2.47705e-06 -2.34271e-06 0)
(2.24361e-06 -2.38627e-06 0)
(2.09479e-06 -2.41385e-06 0)
(2.00554e-06 -2.44815e-06 0)
(1.95704e-06 -2.48179e-06 0)
(1.93666e-06 -2.51943e-06 0)
(1.93656e-06 -2.55918e-06 0)
(1.95105e-06 -2.60158e-06 0)
(1.97626e-06 -2.64646e-06 0)
(2.00844e-06 -2.69213e-06 0)
(2.03488e-06 -2.45456e-06 0)
(1.82766e-06 -2.5384e-06 0)
(1.69561e-06 -2.59153e-06 0)
(1.616e-06 -2.64279e-06 0)
(1.57228e-06 -2.68739e-06 0)
(1.55314e-06 -2.73247e-06 0)
(1.55183e-06 -2.77718e-06 0)
(1.56318e-06 -2.82312e-06 0)
(1.58388e-06 -2.87059e-06 0)
(1.61039e-06 -2.91854e-06 0)
(1.5875e-06 -2.54726e-06 0)
(1.41566e-06 -2.66643e-06 0)
(1.30619e-06 -2.74197e-06 0)
(1.23994e-06 -2.80807e-06 0)
(1.20329e-06 -2.86225e-06 0)
(1.18685e-06 -2.91381e-06 0)
(1.18506e-06 -2.96286e-06 0)
(1.19354e-06 -3.01192e-06 0)
(1.20967e-06 -3.06165e-06 0)
(1.23039e-06 -3.11168e-06 0)
(1.13642e-06 -2.61878e-06 0)
(1.00768e-06 -2.76632e-06 0)
(9.25716e-07 -2.85983e-06 0)
(8.7603e-07 -2.93781e-06 0)
(8.48416e-07 -2.99969e-06 0)
(8.35809e-07 -3.05647e-06 0)
(8.34062e-07 -3.10902e-06 0)
(8.39904e-07 -3.1606e-06 0)
(8.51439e-07 -3.21215e-06 0)
(8.66282e-07 -3.2639e-06 0)
(6.82892e-07 -2.6674e-06 0)
(6.03199e-07 -2.83476e-06 0)
(5.52485e-07 -2.94083e-06 0)
(5.21645e-07 -3.02717e-06 0)
(5.04415e-07 -3.09444e-06 0)
(4.96458e-07 -3.15484e-06 0)
(4.95239e-07 -3.20984e-06 0)
(4.98682e-07 -3.26324e-06 0)
(5.05596e-07 -3.31608e-06 0)
(5.14502e-07 -3.36909e-06 0)
(2.28067e-07 -2.69189e-06 0)
(2.01069e-07 -2.8695e-06 0)
(1.83814e-07 -2.98205e-06 0)
(1.73327e-07 -3.07268e-06 0)
(1.67494e-07 -3.14273e-06 0)
(1.6475e-07 -3.20503e-06 0)
(1.64247e-07 -3.26129e-06 0)
(1.65358e-07 -3.31559e-06 0)
(1.6767e-07 -3.3691e-06 0)
(1.7063e-07 -3.42277e-06 0)
(6.47276e-06 -8.01554e-08 0)
(6.53127e-06 -5.77854e-08 0)
(6.56672e-06 -4.36062e-08 0)
(6.605e-06 -3.52665e-08 0)
(6.64672e-06 -3.06306e-08 0)
(6.69791e-06 -2.85082e-08 0)
(6.7585e-06 -2.80731e-08 0)
(6.82915e-06 -2.86939e-08 0)
(6.90972e-06 -3.01582e-08 0)
(6.99911e-06 -3.19364e-08 0)
(6.42479e-06 -2.40474e-07 0)
(6.47359e-06 -1.7467e-07 0)
(6.50295e-06 -1.33011e-07 0)
(6.53713e-06 -1.08644e-07 0)
(6.57615e-06 -9.52104e-08 0)
(6.62539e-06 -8.90205e-08 0)
(6.68462e-06 -8.78363e-08 0)
(6.75416e-06 -8.99271e-08 0)
(6.83375e-06 -9.43579e-08 0)
(6.92213e-06 -9.96129e-08 0)
(6.329e-06 -4.02126e-07 0)
(6.35925e-06 -2.96512e-07 0)
(6.37689e-06 -2.29711e-07 0)
(6.40329e-06 -1.90621e-07 0)
(6.43718e-06 -1.69205e-07 0)
(6.48281e-06 -1.59599e-07 0)
(6.53933e-06 -1.57983e-07 0)
(6.60671e-06 -1.61601e-07 0)
(6.68445e-06 -1.68954e-07 0)
(6.77087e-06 -1.77737e-07 0)
(6.18711e-06 -5.65842e-07 0)
(6.19098e-06 -4.26106e-07 0)
(6.19189e-06 -3.37824e-07 0)
(6.20723e-06 -2.86398e-07 0)
(6.23376e-06 -2.58351e-07 0)
(6.27423e-06 -2.46042e-07 0)
(6.32696e-06 -2.44333e-07 0)
(6.39129e-06 -2.49681e-07 0)
(6.46643e-06 -2.59984e-07 0)
(6.55011e-06 -2.7233e-07 0)
(6.00128e-06 -7.32033e-07 0)
(5.97258e-06 -5.65806e-07 0)
(5.9528e-06 -4.60808e-07 0)
(5.95442e-06 -4.00077e-07 0)
(5.97188e-06 -3.67242e-07 0)
(6.00591e-06 -3.53328e-07 0)
(6.05391e-06 -3.52125e-07 0)
(6.11442e-06 -3.5948e-07 0)
(6.1863e-06 -3.72725e-07 0)
(6.26668e-06 -3.886e-07 0)
(5.77432e-06 -9.00797e-07 0)
(5.70874e-06 -7.17151e-07 0)
(5.66563e-06 -6.01111e-07 0)
(5.65175e-06 -5.34648e-07 0)
(5.65889e-06 -4.99234e-07 0)
(5.68559e-06 -4.85034e-07 0)
(5.72821e-06 -4.85016e-07 0)
(5.78434e-06 -4.94649e-07 0)
(5.85247e-06 -5.10829e-07 0)
(5.92913e-06 -5.30202e-07 0)
(5.50963e-06 -1.07182e-06 0)
(5.40506e-06 -8.8077e-07 0)
(5.33728e-06 -7.59999e-07 0)
(5.30702e-06 -6.91776e-07 0)
(5.30323e-06 -6.56176e-07 0)
(5.32212e-06 -6.43127e-07 0)
(5.35896e-06 -6.45062e-07 0)
(5.41038e-06 -6.57289e-07 0)
(5.47439e-06 -6.76455e-07 0)
(5.54712e-06 -6.99259e-07 0)
(5.2107e-06 -1.24427e-06 0)
(5.0675e-06 -1.05625e-06 0)
(4.9753e-06 -9.37309e-07 0)
(4.92872e-06 -8.71457e-07 0)
(4.91401e-06 -8.38173e-07 0)
(4.925e-06 -8.27785e-07 0)
(4.95586e-06 -8.32487e-07 0)
(5.00241e-06 -8.47715e-07 0)
(5.06205e-06 -8.69935e-07 0)
(5.13074e-06 -8.96164e-07 0)
(4.88143e-06 -1.41696e-06 0)
(4.70232e-06 -1.24212e-06 0)
(4.58744e-06 -1.13151e-06 0)
(4.52558e-06 -1.07209e-06 0)
(4.50055e-06 -1.04362e-06 0)
(4.50389e-06 -1.03736e-06 0)
(4.52878e-06 -1.04568e-06 0)
(4.5704e-06 -1.06426e-06 0)
(4.62543e-06 -1.08977e-06 0)
(4.69007e-06 -1.11919e-06 0)
(4.52569e-06 -1.58827e-06 0)
(4.31568e-06 -1.436e-06 0)
(4.18129e-06 -1.33966e-06 0)
(4.10608e-06 -1.29048e-06 0)
(4.07182e-06 -1.26916e-06 0)
(4.06816e-06 -1.26843e-06 0)
(4.08745e-06 -1.28118e-06 0)
(4.12418e-06 -1.30372e-06 0)
(4.17468e-06 -1.33271e-06 0)
(4.23492e-06 -1.3666e-06 0)
(7.09755e-06 -3.36726e-08 0)
(7.20485e-06 -3.40418e-08 0)
(7.31896e-06 -3.44785e-08 0)
(7.43948e-06 -3.47838e-08 0)
(7.56566e-06 -3.49251e-08 0)
(7.69703e-06 -3.48895e-08 0)
(7.83299e-06 -3.4625e-08 0)
(7.973e-06 -3.41589e-08 0)
(8.11665e-06 -3.34927e-08 0)
(8.2635e-06 -3.25861e-08 0)
(8.4131e-06 -3.14014e-08 0)
(8.56499e-06 -2.9925e-08 0)
(8.71875e-06 -2.8142e-08 0)
(8.87393e-06 -2.60358e-08 0)
(9.03014e-06 -2.35714e-08 0)
(9.18677e-06 -2.06939e-08 0)
(9.34353e-06 -1.73334e-08 0)
(9.49937e-06 -1.34242e-08 0)
(9.65453e-06 -8.87549e-09 0)
(9.80647e-06 -3.65684e-09 0)
(7.02399e-06 -1.04446e-07 0)
(7.13745e-06 -1.05093e-07 0)
(7.25706e-06 -1.05978e-07 0)
(7.38238e-06 -1.06538e-07 0)
(7.51285e-06 -1.06622e-07 0)
(7.64797e-06 -1.06252e-07 0)
(7.78732e-06 -1.05316e-07 0)
(7.93042e-06 -1.03816e-07 0)
(8.0769e-06 -1.01665e-07 0)
(8.2263e-06 -9.87781e-08 0)
(8.37824e-06 -9.51091e-08 0)
(8.53231e-06 -9.06322e-08 0)
(8.68814e-06 -8.52732e-08 0)
(8.84527e-06 -7.8935e-08 0)
(9.00331e-06 -7.14939e-08 0)
(9.16168e-06 -6.28116e-08 0)
(9.32011e-06 -5.2707e-08 0)
(9.47758e-06 -4.09948e-08 0)
(9.63432e-06 -2.73906e-08 0)
(9.78782e-06 -1.1778e-08 0)
(6.87939e-06 -1.84658e-07 0)
(7.00496e-06 -1.84221e-07 0)
(7.13538e-06 -1.84298e-07 0)
(7.27002e-06 -1.84166e-07 0)
(7.40884e-06 -1.83448e-07 0)
(7.55141e-06 -1.82165e-07 0)
(7.69748e-06 -1.80055e-07 0)
(7.8466e-06 -1.77077e-07 0)
(7.99854e-06 -1.73076e-07 0)
(8.15294e-06 -1.67952e-07 0)
(8.3095e-06 -1.6163e-07 0)
(8.46787e-06 -1.54029e-07 0)
(8.6277e-06 -1.44985e-07 0)
(8.78858e-06 -1.3432e-07 0)
(8.95016e-06 -1.21834e-07 0)
(9.11194e-06 -1.07311e-07 0)
(9.27367e-06 -9.04511e-08 0)
(9.43435e-06 -7.09482e-08 0)
(9.59426e-06 -4.83244e-08 0)
(9.75092e-06 -2.23627e-08 0)
(6.66813e-06 -2.79673e-07 0)
(6.81099e-06 -2.75998e-07 0)
(6.95704e-06 -2.73305e-07 0)
(7.10527e-06 -2.70997e-07 0)
(7.25631e-06 -2.68243e-07 0)
(7.40969e-06 -2.65069e-07 0)
(7.56551e-06 -2.60973e-07 0)
(7.72345e-06 -2.55883e-07 0)
(7.88347e-06 -2.4954e-07 0)
(8.04527e-06 -2.41804e-07 0)
(8.20865e-06 -2.32525e-07 0)
(8.37332e-06 -2.21538e-07 0)
(8.53903e-06 -2.08601e-07 0)
(8.70542e-06 -1.93473e-07 0)
(8.87225e-06 -1.75886e-07 0)
(9.03903e-06 -1.5551e-07 0)
(9.20556e-06 -1.31918e-07 0)
(9.37093e-06 -1.04669e-07 0)
(9.5354e-06 -7.30735e-08 0)
(9.69665e-06 -3.68435e-08 0)
(6.39653e-06 -3.94228e-07 0)
(6.56116e-06 -3.84562e-07 0)
(6.72705e-06 -3.7662e-07 0)
(6.89249e-06 -3.70238e-07 0)
(7.0591e-06 -3.63831e-07 0)
(7.22633e-06 -3.57449e-07 0)
(7.39472e-06 -3.50302e-07 0)
(7.56404e-06 -3.42256e-07 0)
(7.73442e-06 -3.32897e-07 0)
(7.90571e-06 -3.21994e-07 0)
(8.07786e-06 -3.09315e-07 0)
(8.25069e-06 -2.94607e-07 0)
(8.42403e-06 -2.77538e-07 0)
(8.5976e-06 -2.57784e-07 0)
(8.77124e-06 -2.34986e-07 0)
(8.94449e-06 -2.08697e-07 0)
(9.11726e-06 -1.78365e-07 0)
(9.28865e-06 -1.43416e-07 0)
(9.45907e-06 -1.02938e-07 0)
(9.62624e-06 -5.65649e-08 0)
(6.07232e-06 -5.31736e-07 0)
(6.26197e-06 -5.12899e-07 0)
(6.45106e-06 -4.96749e-07 0)
(6.63682e-06 -4.83957e-07 0)
(6.82195e-06 -4.71971e-07 0)
(7.00571e-06 -4.60815e-07 0)
(7.18908e-06 -4.49348e-07 0)
(7.372e-06 -4.37286e-07 0)
(7.55483e-06 -4.24082e-07 0)
(7.73756e-06 -4.09379e-07 0)
(7.92028e-06 -3.92823e-07 0)
(8.10293e-06 -3.74036e-07 0)
(8.28544e-06 -3.52578e-07 0)
(8.46763e-06 -3.28028e-07 0)
(8.64941e-06 -2.99911e-07 0)
(8.83043e-06 -2.67676e-07 0)
(9.01069e-06 -2.30632e-07 0)
(9.18932e-06 -1.8808e-07 0)
(9.36689e-06 -1.3888e-07 0)
(9.54119e-06 -8.25382e-08 0)
(5.70453e-06 -6.9433e-07 0)
(5.9214e-06 -6.63058e-07 0)
(6.13613e-06 -6.35746e-07 0)
(6.34449e-06 -6.14048e-07 0)
(6.55027e-06 -5.94458e-07 0)
(6.75268e-06 -5.7678e-07 0)
(6.953e-06 -5.5963e-07 0)
(7.15138e-06 -5.4243e-07 0)
(7.3484e-06 -5.24482e-07 0)
(7.54422e-06 -5.05254e-07 0)
(7.73905e-06 -4.84234e-07 0)
(7.93295e-06 -4.60896e-07 0)
(8.12595e-06 -4.3469e-07 0)
(8.31802e-06 -4.05092e-07 0)
(8.50915e-06 -3.71505e-07 0)
(8.6991e-06 -3.33269e-07 0)
(8.88794e-06 -2.89544e-07 0)
(9.07493e-06 -2.39481e-07 0)
(9.26066e-06 -1.81725e-07 0)
(9.44313e-06 -1.15638e-07 0)
(5.30226e-06 -8.82466e-07 0)
(5.54724e-06 -8.352e-07 0)
(5.78886e-06 -7.93796e-07 0)
(6.02146e-06 -7.60406e-07 0)
(6.24954e-06 -7.31063e-07 0)
(6.47227e-06 -7.04999e-07 0)
(6.69123e-06 -6.80683e-07 0)
(6.90671e-06 -6.57159e-07 0)
(7.11942e-06 -6.33537e-07 0)
(7.3297e-06 -6.09057e-07 0)
(7.53791e-06 -5.83017e-07 0)
(7.74423e-06 -5.54731e-07 0)
(7.94885e-06 -5.23519e-07 0)
(8.15186e-06 -4.88735e-07 0)
(8.35335e-06 -4.49648e-07 0)
(8.55318e-06 -4.05463e-07 0)
(8.75151e-06 -3.55181e-07 0)
(8.94772e-06 -2.97797e-07 0)
(9.14247e-06 -2.31734e-07 0)
(9.33397e-06 -1.56213e-07 0)
(4.87526e-06 -1.09579e-06 0)
(5.1485e-06 -1.02951e-06 0)
(5.41711e-06 -9.72111e-07 0)
(5.67482e-06 -9.24633e-07 0)
(5.92594e-06 -8.83662e-07 0)
(6.17004e-06 -8.47524e-07 0)
(6.4086e-06 -8.1458e-07 0)
(6.6422e-06 -7.83476e-07 0)
(6.87162e-06 -7.53106e-07 0)
(7.09738e-06 -7.22466e-07 0)
(7.31995e-06 -6.90661e-07 0)
(7.53966e-06 -6.56842e-07 0)
(7.75683e-06 -6.20192e-07 0)
(7.97167e-06 -5.79918e-07 0)
(8.18435e-06 -5.35138e-07 0)
(8.39486e-06 -4.84914e-07 0)
(8.60342e-06 -4.2808e-07 0)
(8.80957e-06 -3.63477e-07 0)
(9.01404e-06 -2.89339e-07 0)
(9.21534e-06 -2.04757e-07 0)
(4.43161e-06 -1.33058e-06 0)
(4.73334e-06 -1.2408e-06 0)
(5.02791e-06 -1.16546e-06 0)
(5.31139e-06 -1.10163e-06 0)
(5.58608e-06 -1.04711e-06 0)
(5.85244e-06 -9.9935e-07 0)
(6.1115e-06 -9.56514e-07 0)
(6.36409e-06 -9.16899e-07 0)
(6.61105e-06 -8.79096e-07 0)
(6.85303e-06 -8.41827e-07 0)
(7.09065e-06 -8.03964e-07 0)
(7.32438e-06 -7.64465e-07 0)
(7.55466e-06 -7.22338e-07 0)
(7.78183e-06 -6.76626e-07 0)
(8.00615e-06 -6.26289e-07 0)
(8.22773e-06 -5.70241e-07 0)
(8.44691e-06 -5.07164e-07 0)
(8.66338e-06 -4.35731e-07 0)
(8.87797e-06 -3.54002e-07 0)
(9.08953e-06 -2.60893e-07 0)
(4.10224e-06 -1.55576e-06 0)
(4.42307e-06 -1.44684e-06 0)
(4.73318e-06 -1.35804e-06 0)
(5.03252e-06 -1.28119e-06 0)
(5.32202e-06 -1.21476e-06 0)
(5.60249e-06 -1.15614e-06 0)
(5.87486e-06 -1.10339e-06 0)
(6.13996e-06 -1.05477e-06 0)
(6.39858e-06 -1.00875e-06 0)
(6.65142e-06 -9.63927e-07 0)
(6.89909e-06 -9.19062e-07 0)
(7.14215e-06 -8.73004e-07 0)
(7.38108e-06 -8.24649e-07 0)
(7.61629e-06 -7.72927e-07 0)
(7.84809e-06 -7.16703e-07 0)
(8.07672e-06 -6.54795e-07 0)
(8.30255e-06 -5.85831e-07 0)
(8.52553e-06 -5.08396e-07 0)
(8.7465e-06 -4.20521e-07 0)
(8.96464e-06 -3.21047e-07 0)
(3.91388e-06 -1.73876e-06 0)
(4.23687e-06 -1.62559e-06 0)
(4.54957e-06 -1.52919e-06 0)
(4.85297e-06 -1.4443e-06 0)
(5.14716e-06 -1.36949e-06 0)
(5.43267e-06 -1.30256e-06 0)
(5.71016e-06 -1.24172e-06 0)
(5.9803e-06 -1.18531e-06 0)
(6.24374e-06 -1.13183e-06 0)
(6.50108e-06 -1.07992e-06 0)
(6.75292e-06 -1.02832e-06 0)
(6.99978e-06 -9.75879e-07 0)
(7.24215e-06 -9.21457e-07 0)
(7.48045e-06 -8.63958e-07 0)
(7.715e-06 -8.02238e-07 0)
(7.94615e-06 -7.35093e-07 0)
(8.17428e-06 -6.61198e-07 0)
(8.39951e-06 -5.79153e-07 0)
(8.62267e-06 -4.87087e-07 0)
(8.84328e-06 -3.83873e-07 0)
(3.75278e-06 -1.91439e-06 0)
(4.0726e-06 -1.79865e-06 0)
(4.38481e-06 -1.69736e-06 0)
(4.6889e-06 -1.60637e-06 0)
(4.9849e-06 -1.52465e-06 0)
(5.27286e-06 -1.45047e-06 0)
(5.55327e-06 -1.38226e-06 0)
(5.82652e-06 -1.31855e-06 0)
(6.09314e-06 -1.25794e-06 0)
(6.35361e-06 -1.19914e-06 0)
(6.60847e-06 -1.14095e-06 0)
(6.85817e-06 -1.08221e-06 0)
(7.1032e-06 -1.02179e-06 0)
(7.34394e-06 -9.586e-07 0)
(7.58075e-06 -8.91504e-07 0)
(7.81403e-06 -8.19313e-07 0)
(8.04417e-06 -7.40761e-07 0)
(8.27146e-06 -6.54509e-07 0)
(8.49664e-06 -5.58799e-07 0)
(8.71958e-06 -4.5258e-07 0)
(3.61063e-06 -2.08367e-06 0)
(3.92585e-06 -1.96668e-06 0)
(4.23537e-06 -1.86172e-06 0)
(4.538e-06 -1.76573e-06 0)
(4.83368e-06 -1.6781e-06 0)
(5.12217e-06 -1.5975e-06 0)
(5.40373e-06 -1.52261e-06 0)
(5.67854e-06 -1.45216e-06 0)
(5.94698e-06 -1.38488e-06 0)
(6.20943e-06 -1.31958e-06 0)
(6.46632e-06 -1.25511e-06 0)
(6.71805e-06 -1.19036e-06 0)
(6.96504e-06 -1.12422e-06 0)
(7.20768e-06 -1.05561e-06 0)
(7.44632e-06 -9.83454e-07 0)
(7.68139e-06 -9.06585e-07 0)
(7.91329e-06 -8.23815e-07 0)
(8.1424e-06 -7.33885e-07 0)
(8.36944e-06 -6.35171e-07 0)
(8.59457e-06 -5.26742e-07 0)
(3.48527e-06 -2.24584e-06 0)
(3.79463e-06 -2.12854e-06 0)
(4.09992e-06 -2.0212e-06 0)
(4.39945e-06 -1.92147e-06 0)
(4.69319e-06 -1.82907e-06 0)
(4.98063e-06 -1.74303e-06 0)
(5.26186e-06 -1.66229e-06 0)
(5.53689e-06 -1.58577e-06 0)
(5.80596e-06 -1.51238e-06 0)
(6.06935e-06 -1.44104e-06 0)
(6.32738e-06 -1.37067e-06 0)
(6.58036e-06 -1.30024e-06 0)
(6.82868e-06 -1.22867e-06 0)
(7.07269e-06 -1.15496e-06 0)
(7.31273e-06 -1.07805e-06 0)
(7.54925e-06 -9.96845e-07 0)
(7.78264e-06 -9.10248e-07 0)
(8.01335e-06 -8.17089e-07 0)
(8.24206e-06 -7.15913e-07 0)
(8.46918e-06 -6.05952e-07 0)
(3.37372e-06 -2.40103e-06 0)
(3.67658e-06 -2.28416e-06 0)
(3.97669e-06 -2.17534e-06 0)
(4.27201e-06 -2.07282e-06 0)
(4.56262e-06 -1.97659e-06 0)
(4.8478e-06 -1.88596e-06 0)
(5.12753e-06 -1.80015e-06 0)
(5.40168e-06 -1.71827e-06 0)
(5.67039e-06 -1.63937e-06 0)
(5.9338e-06 -1.56252e-06 0)
(6.19216e-06 -1.48673e-06 0)
(6.44571e-06 -1.41104e-06 0)
(6.69477e-06 -1.33445e-06 0)
(6.93966e-06 -1.256e-06 0)
(7.1807e-06 -1.17472e-06 0)
(7.41833e-06 -1.08959e-06 0)
(7.65294e-06 -9.9959e-07 0)
(7.88502e-06 -9.03672e-07 0)
(8.11523e-06 -8.00575e-07 0)
(8.34411e-06 -6.89675e-07 0)
(3.27373e-06 -2.54948e-06 0)
(3.56974e-06 -2.43354e-06 0)
(3.86403e-06 -2.32396e-06 0)
(4.15442e-06 -2.21945e-06 0)
(4.44104e-06 -2.12024e-06 0)
(4.72305e-06 -2.02585e-06 0)
(5.00037e-06 -1.93572e-06 0)
(5.27278e-06 -1.84917e-06 0)
(5.54029e-06 -1.7654e-06 0)
(5.80298e-06 -1.6836e-06 0)
(6.06099e-06 -1.60289e-06 0)
(6.31449e-06 -1.52239e-06 0)
(6.56377e-06 -1.4412e-06 0)
(6.8091e-06 -1.35843e-06 0)
(7.05077e-06 -1.27316e-06 0)
(7.28921e-06 -1.1845e-06 0)
(7.52477e-06 -1.09152e-06 0)
(7.758e-06 -9.93279e-07 0)
(7.98951e-06 -8.88739e-07 0)
(8.21991e-06 -7.77353e-07 0)
(3.1832e-06 -2.69151e-06 0)
(3.47226e-06 -2.57685e-06 0)
(3.76037e-06 -2.46703e-06 0)
(4.04538e-06 -2.36119e-06 0)
(4.32743e-06 -2.25969e-06 0)
(4.60563e-06 -2.16224e-06 0)
(4.87988e-06 -2.0685e-06 0)
(5.14985e-06 -1.97795e-06 0)
(5.41551e-06 -1.88992e-06 0)
(5.67684e-06 -1.80372e-06 0)
(5.93393e-06 -1.71862e-06 0)
(6.18688e-06 -1.63381e-06 0)
(6.43594e-06 -1.54846e-06 0)
(6.68132e-06 -1.4618e-06 0)
(6.9233e-06 -1.37297e-06 0)
(7.16226e-06 -1.28119e-06 0)
(7.39856e-06 -1.18563e-06 0)
(7.63274e-06 -1.08549e-06 0)
(7.86534e-06 -9.7992e-07 0)
(8.09704e-06 -8.68413e-07 0)
(3.10027e-06 -2.82756e-06 0)
(3.38241e-06 -2.71437e-06 0)
(3.6642e-06 -2.60471e-06 0)
(3.94359e-06 -2.49804e-06 0)
(4.22069e-06 -2.39483e-06 0)
(4.49467e-06 -2.29495e-06 0)
(4.76536e-06 -2.19823e-06 0)
(5.03241e-06 -2.10428e-06 0)
(5.29571e-06 -2.01257e-06 0)
(5.55521e-06 -1.92255e-06 0)
(5.81093e-06 -1.83358e-06 0)
(6.06293e-06 -1.74494e-06 0)
(6.3114e-06 -1.65591e-06 0)
(6.55652e-06 -1.56579e-06 0)
(6.79852e-06 -1.47383e-06 0)
(7.03778e-06 -1.37933e-06 0)
(7.27461e-06 -1.2816e-06 0)
(7.50954e-06 -1.17994e-06 0)
(7.74303e-06 -1.07366e-06 0)
(7.97583e-06 -9.62355e-07 0)
(3.02328e-06 -2.95806e-06 0)
(3.29863e-06 -2.84645e-06 0)
(3.57411e-06 -2.73721e-06 0)
(3.84777e-06 -2.6301e-06 0)
(4.11976e-06 -2.52565e-06 0)
(4.38926e-06 -2.42387e-06 0)
(4.6561e-06 -2.32471e-06 0)
(4.91988e-06 -2.22793e-06 0)
(5.18048e-06 -2.13311e-06 0)
(5.4378e-06 -2.0398e-06 0)
(5.69181e-06 -1.94747e-06 0)
(5.94255e-06 -1.8555e-06 0)
(6.19015e-06 -1.76325e-06 0)
(6.43474e-06 -1.67012e-06 0)
(6.67655e-06 -1.57544e-06 0)
(6.9159e-06 -1.47863e-06 0)
(7.15307e-06 -1.37909e-06 0)
(7.38856e-06 -1.27625e-06 0)
(7.62276e-06 -1.16951e-06 0)
(7.85646e-06 -1.05869e-06 0)
(2.95078e-06 -3.08347e-06 0)
(3.21954e-06 -2.97345e-06 0)
(3.4888e-06 -2.86481e-06 0)
(3.75677e-06 -2.75754e-06 0)
(4.0236e-06 -2.65224e-06 0)
(4.28851e-06 -2.549e-06 0)
(4.55132e-06 -2.44791e-06 0)
(4.81164e-06 -2.34881e-06 0)
(5.06931e-06 -2.25139e-06 0)
(5.32421e-06 -2.15531e-06 0)
(5.57629e-06 -2.06012e-06 0)
(5.82553e-06 -1.96529e-06 0)
(6.07204e-06 -1.87026e-06 0)
(6.31593e-06 -1.77455e-06 0)
(6.55736e-06 -1.67756e-06 0)
(6.79663e-06 -1.5788e-06 0)
(7.03398e-06 -1.47779e-06 0)
(7.26985e-06 -1.37402e-06 0)
(7.50462e-06 -1.26709e-06 0)
(7.739e-06 -1.1569e-06 0)
(2.88145e-06 -3.20421e-06 0)
(3.14388e-06 -3.09573e-06 0)
(3.40708e-06 -2.98779e-06 0)
(3.66949e-06 -2.88059e-06 0)
(3.93121e-06 -2.77475e-06 0)
(4.19152e-06 -2.67044e-06 0)
(4.45024e-06 -2.56784e-06 0)
(4.707e-06 -2.46687e-06 0)
(4.96163e-06 -2.36734e-06 0)
(5.21399e-06 -2.26895e-06 0)
(5.46399e-06 -2.17135e-06 0)
(5.7116e-06 -2.07411e-06 0)
(5.95689e-06 -1.97676e-06 0)
(6.19993e-06 -1.87887e-06 0)
(6.44086e-06 -1.77996e-06 0)
(6.67993e-06 -1.6796e-06 0)
(6.91731e-06 -1.5774e-06 0)
(7.15343e-06 -1.47294e-06 0)
(7.38864e-06 -1.36603e-06 0)
(7.62354e-06 -1.25654e-06 0)
(2.81415e-06 -3.32068e-06 0)
(3.0705e-06 -3.21365e-06 0)
(3.32789e-06 -3.10649e-06 0)
(3.58489e-06 -2.99952e-06 0)
(3.84161e-06 -2.89338e-06 0)
(4.0974e-06 -2.78832e-06 0)
(4.35207e-06 -2.68458e-06 0)
(4.60529e-06 -2.58216e-06 0)
(4.85686e-06 -2.48093e-06 0)
(5.10664e-06 -2.38068e-06 0)
(5.35452e-06 -2.28113e-06 0)
(5.60043e-06 -2.18191e-06 0)
(5.84443e-06 -2.08265e-06 0)
(6.08654e-06 -1.98298e-06 0)
(6.32687e-06 -1.8825e-06 0)
(6.56563e-06 -1.78084e-06 0)
(6.80293e-06 -1.67769e-06 0)
(7.03921e-06 -1.57278e-06 0)
(7.27467e-06 -1.46601e-06 0)
(7.50996e-06 -1.35727e-06 0)
(2.74779e-06 -3.43322e-06 0)
(2.99835e-06 -3.32758e-06 0)
(3.25014e-06 -3.2212e-06 0)
(3.50195e-06 -3.11458e-06 0)
(3.75385e-06 -3.00835e-06 0)
(4.00528e-06 -2.90281e-06 0)
(4.25604e-06 -2.79827e-06 0)
(4.50582e-06 -2.69477e-06 0)
(4.75441e-06 -2.59225e-06 0)
(5.00164e-06 -2.49053e-06 0)
(5.2474e-06 -2.38943e-06 0)
(5.49161e-06 -2.28864e-06 0)
(5.7343e-06 -2.18783e-06 0)
(5.97545e-06 -2.08674e-06 0)
(6.21512e-06 -1.98498e-06 0)
(6.4535e-06 -1.88229e-06 0)
(6.69066e-06 -1.77844e-06 0)
(6.92699e-06 -1.67325e-06 0)
(7.16262e-06 -1.56665e-06 0)
(7.39816e-06 -1.45871e-06 0)
(2.68125e-06 -3.5422e-06 0)
(2.9263e-06 -3.43782e-06 0)
(3.17278e-06 -3.33224e-06 0)
(3.41965e-06 -3.22606e-06 0)
(3.667e-06 -3.11993e-06 0)
(3.91429e-06 -3.01417e-06 0)
(4.16136e-06 -2.90912e-06 0)
(4.40786e-06 -2.80486e-06 0)
(4.65361e-06 -2.70138e-06 0)
(4.89843e-06 -2.59856e-06 0)
(5.14218e-06 -2.49629e-06 0)
(5.38476e-06 -2.39429e-06 0)
(5.62618e-06 -2.2923e-06 0)
(5.86638e-06 -2.19009e-06 0)
(6.10538e-06 -2.08735e-06 0)
(6.34333e-06 -1.98387e-06 0)
(6.58032e-06 -1.87951e-06 0)
(6.81662e-06 -1.77415e-06 0)
(7.05237e-06 -1.66779e-06 0)
(7.28803e-06 -1.56058e-06 0)
(2.61348e-06 -3.64788e-06 0)
(2.85329e-06 -3.54478e-06 0)
(3.0947e-06 -3.4399e-06 0)
(3.337e-06 -3.33424e-06 0)
(3.58012e-06 -3.22837e-06 0)
(3.82361e-06 -3.12261e-06 0)
(4.06727e-06 -3.0173e-06 0)
(4.31076e-06 -2.9126e-06 0)
(4.55388e-06 -2.80849e-06 0)
(4.79646e-06 -2.70491e-06 0)
(5.03836e-06 -2.60179e-06 0)
(5.27943e-06 -2.49891e-06 0)
(5.51965e-06 -2.39604e-06 0)
(5.75893e-06 -2.29299e-06 0)
(5.99728e-06 -2.1895e-06 0)
(6.23484e-06 -2.08545e-06 0)
(6.47162e-06 -1.98075e-06 0)
(6.70784e-06 -1.87527e-06 0)
(6.94362e-06 -1.76919e-06 0)
(7.17935e-06 -1.66264e-06 0)
(2.54337e-06 -3.75067e-06 0)
(2.77806e-06 -3.64846e-06 0)
(3.01467e-06 -3.54452e-06 0)
(3.25296e-06 -3.43958e-06 0)
(3.49224e-06 -3.33409e-06 0)
(3.73236e-06 -3.22851e-06 0)
(3.97296e-06 -3.12318e-06 0)
(4.21378e-06 -3.01826e-06 0)
(4.4546e-06 -2.91378e-06 0)
(4.69523e-06 -2.80974e-06 0)
(4.93549e-06 -2.70608e-06 0)
(5.17521e-06 -2.60259e-06 0)
(5.41435e-06 -2.49909e-06 0)
(5.6528e-06 -2.39544e-06 0)
(5.89058e-06 -2.29145e-06 0)
(6.12777e-06 -2.187e-06 0)
(6.36433e-06 -2.08203e-06 0)
(6.60045e-06 -1.9765e-06 0)
(6.83618e-06 -1.87069e-06 0)
(7.07195e-06 -1.7647e-06 0)
(2.46925e-06 -3.85044e-06 0)
(2.69959e-06 -3.74929e-06 0)
(2.93227e-06 -3.64647e-06 0)
(3.1667e-06 -3.54227e-06 0)
(3.40266e-06 -3.43735e-06 0)
(3.63979e-06 -3.33212e-06 0)
(3.87779e-06 -3.22696e-06 0)
(4.11637e-06 -3.12207e-06 0)
(4.35527e-06 -3.01751e-06 0)
(4.59428e-06 -2.91325e-06 0)
(4.83316e-06 -2.80927e-06 0)
(5.07174e-06 -2.70542e-06 0)
(5.30996e-06 -2.60154e-06 0)
(5.54775e-06 -2.4975e-06 0)
(5.78504e-06 -2.39316e-06 0)
(6.02185e-06 -2.28845e-06 0)
(6.25814e-06 -2.18329e-06 0)
(6.49421e-06 -2.07777e-06 0)
(6.72994e-06 -1.97215e-06 0)
(6.9656e-06 -1.86663e-06 0)
(2.39016e-06 -3.94829e-06 0)
(2.61651e-06 -3.84836e-06 0)
(2.84562e-06 -3.74641e-06 0)
(3.07691e-06 -3.64303e-06 0)
(3.31014e-06 -3.53876e-06 0)
(3.54492e-06 -3.43405e-06 0)
(3.78094e-06 -3.32924e-06 0)
(4.01786e-06 -3.22454e-06 0)
(4.25535e-06 -3.12004e-06 0)
(4.49312e-06 -3.01575e-06 0)
(4.73098e-06 -2.91165e-06 0)
(4.96874e-06 -2.8076e-06 0)
(5.2063e-06 -2.70349e-06 0)
(5.44349e-06 -2.59925e-06 0)
(5.6803e-06 -2.49468e-06 0)
(5.91682e-06 -2.38974e-06 0)
(6.15296e-06 -2.28449e-06 0)
(6.38886e-06 -2.17897e-06 0)
(6.62457e-06 -2.07345e-06 0)
(6.86018e-06 -1.96827e-06 0)
(2.30506e-06 -4.04339e-06 0)
(2.52793e-06 -3.94485e-06 0)
(2.75406e-06 -3.84416e-06 0)
(2.98291e-06 -3.74183e-06 0)
(3.21415e-06 -3.63844e-06 0)
(3.44734e-06 -3.53443e-06 0)
(3.68209e-06 -3.43017e-06 0)
(3.91793e-06 -3.32587e-06 0)
(4.15453e-06 -3.2216e-06 0)
(4.39162e-06 -3.1174e-06 0)
(4.6289e-06 -3.01332e-06 0)
(4.86609e-06 -2.90925e-06 0)
(5.10314e-06 -2.80502e-06 0)
(5.33993e-06 -2.70062e-06 0)
(5.57636e-06 -2.59595e-06 0)
(5.81254e-06 -2.49089e-06 0)
(6.04849e-06 -2.38559e-06 0)
(6.28425e-06 -2.28001e-06 0)
(6.51994e-06 -2.17452e-06 0)
(6.7555e-06 -2.06947e-06 0)
(1.70026e-07 -3.4777e-06 0)
(5.12402e-07 -3.42657e-06 0)
(8.61735e-07 -3.32631e-06 0)
(1.22196e-06 -3.181e-06 0)
(1.59625e-06 -2.99615e-06 0)
(1.98657e-06 -2.77873e-06 0)
(2.3937e-06 -2.53665e-06 0)
(2.81691e-06 -2.27822e-06 0)
(3.2548e-06 -2.01179e-06 0)
(3.70381e-06 -1.74397e-06 0)
(1.65303e-07 -3.53481e-06 0)
(4.97887e-07 -3.48811e-06 0)
(8.36238e-07 -3.39644e-06 0)
(1.18368e-06 -3.26331e-06 0)
(1.54288e-06 -3.09336e-06 0)
(1.91553e-06 -2.89254e-06 0)
(2.3023e-06 -2.66756e-06 0)
(2.70243e-06 -2.42562e-06 0)
(3.11407e-06 -2.17431e-06 0)
(3.53438e-06 -1.91929e-06 0)
(1.611e-07 -3.59334e-06 0)
(4.84945e-07 -3.55065e-06 0)
(8.1348e-07 -3.46676e-06 0)
(1.14937e-06 -3.34472e-06 0)
(1.49486e-06 -3.18858e-06 0)
(1.85133e-06 -3.00343e-06 0)
(2.21948e-06 -2.79507e-06 0)
(2.59909e-06 -2.56953e-06 0)
(2.98872e-06 -2.33343e-06 0)
(3.38659e-06 -2.09051e-06 0)
(1.57347e-07 -3.65334e-06 0)
(4.73406e-07 -3.61405e-06 0)
(7.934e-07 -3.53678e-06 0)
(1.11943e-06 -3.42422e-06 0)
(1.45341e-06 -3.27992e-06 0)
(1.79643e-06 -3.10833e-06 0)
(2.149e-06 -2.91462e-06 0)
(2.51091e-06 -2.70407e-06 0)
(2.88092e-06 -2.4829e-06 0)
(3.25751e-06 -2.25399e-06 0)
(1.53903e-07 -3.71477e-06 0)
(4.62766e-07 -3.67854e-06 0)
(7.74931e-07 -3.60719e-06 0)
(1.09204e-06 -3.50316e-06 0)
(1.41572e-06 -3.36959e-06 0)
(1.74685e-06 -3.21043e-06 0)
(2.08588e-06 -3.03028e-06 0)
(2.43265e-06 -2.83363e-06 0)
(2.78622e-06 -2.62616e-06 0)
(3.14461e-06 -2.41046e-06 0)
(1.50681e-07 -3.77756e-06 0)
(4.5291e-07 -3.74396e-06 0)
(7.57903e-07 -3.67777e-06 0)
(1.06702e-06 -3.58119e-06 0)
(1.38159e-06 -3.45704e-06 0)
(1.70234e-06 -3.30887e-06 0)
(2.02957e-06 -3.14088e-06 0)
(2.36303e-06 -2.95702e-06 0)
(2.70225e-06 -2.76244e-06 0)
(3.04476e-06 -2.55976e-06 0)
(1.47586e-07 -3.84161e-06 0)
(4.43522e-07 -3.81036e-06 0)
(7.41768e-07 -3.74879e-06 0)
(1.04351e-06 -3.65887e-06 0)
(1.34979e-06 -3.54317e-06 0)
(1.66125e-06 -3.40493e-06 0)
(1.97814e-06 -3.24792e-06 0)
(2.30004e-06 -3.07571e-06 0)
(2.62685e-06 -2.8929e-06 0)
(2.95572e-06 -2.70232e-06 0)
(1.4463e-07 -3.90678e-06 0)
(4.345e-07 -3.87761e-06 0)
(7.26341e-07 -3.82013e-06 0)
(1.02119e-06 -3.7361e-06 0)
(1.31989e-06 -3.62794e-06 0)
(1.62293e-06 -3.49856e-06 0)
(1.93058e-06 -3.35146e-06 0)
(2.24227e-06 -3.1899e-06 0)
(2.55819e-06 -3.01792e-06 0)
(2.87531e-06 -2.83857e-06 0)
(1.41743e-07 -3.97295e-06 0)
(4.25671e-07 -3.94565e-06 0)
(7.11337e-07 -3.89183e-06 0)
(9.99621e-07 -3.8131e-06 0)
(1.29123e-06 -3.71172e-06 0)
(1.58657e-06 -3.59032e-06 0)
(1.88586e-06 -3.45215e-06 0)
(2.18847e-06 -3.30024e-06 0)
(2.49477e-06 -3.13815e-06 0)
(2.80169e-06 -2.96907e-06 0)
(1.38849e-07 -4.03999e-06 0)
(4.16927e-07 -4.01434e-06 0)
(6.96567e-07 -3.9638e-06 0)
(9.78519e-07 -3.88983e-06 0)
(1.26339e-06 -3.79454e-06 0)
(1.55155e-06 -3.68034e-06 0)
(1.84317e-06 -3.55024e-06 0)
(2.13758e-06 -3.40709e-06 0)
(2.43525e-06 -3.25403e-06 0)
(2.73325e-06 -3.09432e-06 0)
(1.35919e-07 -4.10774e-06 0)
(4.08176e-07 -4.08358e-06 0)
(6.81823e-07 -4.036e-06 0)
(9.57578e-07 -3.96634e-06 0)
(1.23595e-06 -3.87655e-06 0)
(1.5173e-06 -3.76886e-06 0)
(1.80177e-06 -3.64606e-06 0)
(2.08869e-06 -3.51086e-06 0)
(2.37854e-06 -3.36603e-06 0)
(2.6686e-06 -3.21482e-06 0)
(1.3296e-07 -4.17601e-06 0)
(3.99333e-07 -4.15322e-06 0)
(6.66938e-07 -4.10833e-06 0)
(9.36531e-07 -4.04256e-06 0)
(1.20855e-06 -3.95775e-06 0)
(1.48333e-06 -3.85597e-06 0)
(1.76103e-06 -3.7398e-06 0)
(2.04098e-06 -3.61182e-06 0)
(2.32364e-06 -3.47448e-06 0)
(2.60657e-06 -3.33099e-06 0)
(1.29943e-07 -4.24466e-06 0)
(3.90266e-07 -4.22311e-06 0)
(6.51714e-07 -4.18067e-06 0)
(9.15091e-07 -4.11845e-06 0)
(1.18081e-06 -4.03817e-06 0)
(1.44915e-06 -3.94178e-06 0)
(1.72031e-06 -3.83166e-06 0)
(1.99368e-06 -3.71023e-06 0)
(2.26964e-06 -3.57974e-06 0)
(2.54607e-06 -3.44325e-06 0)
(1.26809e-07 -4.31345e-06 0)
(3.80829e-07 -4.29304e-06 0)
(6.35947e-07 -4.25285e-06 0)
(8.9297e-07 -4.19388e-06 0)
(1.15233e-06 -4.11776e-06 0)
(1.41427e-06 -4.0263e-06 0)
(1.67903e-06 -3.9217e-06 0)
(1.94605e-06 -3.80626e-06 0)
(2.21569e-06 -3.68204e-06 0)
(2.48609e-06 -3.55195e-06 0)
(1.23499e-07 -4.38223e-06 0)
(3.70893e-07 -4.36287e-06 0)
(6.19429e-07 -4.32475e-06 0)
(8.69875e-07 -4.26879e-06 0)
(1.12271e-06 -4.1965e-06 0)
(1.37818e-06 -4.10959e-06 0)
(1.63654e-06 -4.01008e-06 0)
(1.89735e-06 -3.90013e-06 0)
(2.16088e-06 -3.78168e-06 0)
(2.42554e-06 -3.6574e-06 0)
(1.19975e-07 -4.45063e-06 0)
(3.60359e-07 -4.43225e-06 0)
(6.01959e-07 -4.39605e-06 0)
(8.45503e-07 -4.3429e-06 0)
(1.09154e-06 -4.27417e-06 0)
(1.34035e-06 -4.19148e-06 0)
(1.59222e-06 -4.09668e-06 0)
(1.84684e-06 -3.99184e-06 0)
(2.10434e-06 -3.87872e-06 0)
(2.36346e-06 -3.75978e-06 0)
(1.16208e-07 -4.51854e-06 0)
(3.49093e-07 -4.5011e-06 0)
(5.83275e-07 -4.46672e-06 0)
(8.19477e-07 -4.4162e-06 0)
(1.05833e-06 -4.35083e-06 0)
(1.30017e-06 -4.27209e-06 0)
(1.54534e-06 -4.18172e-06 0)
(1.7936e-06 -4.08166e-06 0)
(2.04506e-06 -3.97349e-06 0)
(2.29864e-06 -3.85954e-06 0)
(1.12146e-07 -4.58525e-06 0)
(3.36928e-07 -4.56869e-06 0)
(5.63089e-07 -4.53604e-06 0)
(7.914e-07 -4.48804e-06 0)
(1.02257e-06 -4.42585e-06 0)
(1.25703e-06 -4.35088e-06 0)
(1.49514e-06 -4.26473e-06 0)
(1.73673e-06 -4.1692e-06 0)
(1.98195e-06 -4.06573e-06 0)
(2.22995e-06 -3.95648e-06 0)
(1.077e-07 -4.65108e-06 0)
(3.23596e-07 -4.63538e-06 0)
(5.40975e-07 -4.6044e-06 0)
(7.60694e-07 -4.55883e-06 0)
(9.83528e-07 -4.49974e-06 0)
(1.21e-06 -4.42841e-06 0)
(1.44053e-06 -4.34633e-06 0)
(1.67507e-06 -4.25514e-06 0)
(1.91372e-06 -4.15621e-06 0)
(2.15596e-06 -4.05144e-06 0)
(1.02821e-07 -4.71406e-06 0)
(3.08985e-07 -4.69921e-06 0)
(5.16748e-07 -4.6699e-06 0)
(7.27072e-07 -4.62675e-06 0)
(9.40829e-07 -4.57073e-06 0)
(1.15863e-06 -4.50304e-06 0)
(1.38093e-06 -4.42502e-06 0)
(1.6079e-06 -4.33817e-06 0)
(1.83963e-06 -4.24378e-06 0)
(2.07584e-06 -4.14353e-06 0)
)


// ************************************************************************* //
