/*--------------------------------*- C++ -*----------------------------------*\
| =========                 |                                                 |
| \\      /  F ield         | foam-extend: Open Source CFD                    |
|  \\    /   O peration     | Version:     4.1                                |
|   \\  /    A nd           | Web:         http://www.foam-extend.org         |
|    \\/     M anipulation  |                                                 |
\*---------------------------------------------------------------------------*/
FoamFile
{
    version     2.0;
    format      ascii;
    class       vectorField;
    location    "8";
    object      solidsCellD_iteration4;
}
// * * * * * * * * * * * * * * * * * * * * * * * * * * * * * * * * * * * * * //


1000
(
(4.08238e-06 -1.70289e-06 0)
(3.85642e-06 -1.5866e-06 0)
(3.7126e-06 -1.5136e-06 0)
(3.63089e-06 -1.48041e-06 0)
(3.59194e-06 -1.46997e-06 0)
(3.58422e-06 -1.47714e-06 0)
(3.59949e-06 -1.49583e-06 0)
(3.63205e-06 -1.52316e-06 0)
(3.67734e-06 -1.55639e-06 0)
(3.73174e-06 -1.59441e-06 0)
(3.69208e-06 -1.85997e-06 0)
(3.45122e-06 -1.77973e-06 0)
(3.29787e-06 -1.72963e-06 0)
(3.20912e-06 -1.71204e-06 0)
(3.16468e-06 -1.712e-06 0)
(3.15181e-06 -1.72658e-06 0)
(3.16201e-06 -1.75063e-06 0)
(3.18918e-06 -1.78191e-06 0)
(3.2287e-06 -1.81837e-06 0)
(3.27674e-06 -1.85802e-06 0)
(3.28613e-06 -2.00886e-06 0)
(3.03996e-06 -1.96889e-06 0)
(2.88336e-06 -1.94427e-06 0)
(2.79138e-06 -1.94384e-06 0)
(2.74374e-06 -1.95505e-06 0)
(2.72725e-06 -1.97743e-06 0)
(2.7333e-06 -2.00689e-06 0)
(2.75584e-06 -2.04192e-06 0)
(2.79019e-06 -2.08129e-06 0)
(2.83278e-06 -2.12273e-06 0)
(2.86787e-06 -2.14692e-06 0)
(2.62665e-06 -2.14917e-06 0)
(2.47329e-06 -2.15123e-06 0)
(2.38227e-06 -2.16867e-06 0)
(2.33396e-06 -2.19151e-06 0)
(2.31544e-06 -2.22182e-06 0)
(2.31836e-06 -2.25665e-06 0)
(2.33679e-06 -2.29542e-06 0)
(2.36642e-06 -2.33761e-06 0)
(2.4036e-06 -2.381e-06 0)
(2.43998e-06 -2.27139e-06 0)
(2.21409e-06 -2.31548e-06 0)
(2.07046e-06 -2.34404e-06 0)
(1.98462e-06 -2.3791e-06 0)
(1.93836e-06 -2.41332e-06 0)
(1.9194e-06 -2.45136e-06 0)
(1.92011e-06 -2.49138e-06 0)
(1.93485e-06 -2.5338e-06 0)
(1.9599e-06 -2.57863e-06 0)
(1.99166e-06 -2.62412e-06 0)
(2.00479e-06 -2.37973e-06 0)
(1.80408e-06 -2.46296e-06 0)
(1.67653e-06 -2.5163e-06 0)
(1.59994e-06 -2.56779e-06 0)
(1.55821e-06 -2.61265e-06 0)
(1.54028e-06 -2.6579e-06 0)
(1.5396e-06 -2.70269e-06 0)
(1.55112e-06 -2.74851e-06 0)
(1.57167e-06 -2.79577e-06 0)
(1.59785e-06 -2.84335e-06 0)
(1.5642e-06 -2.46956e-06 0)
(1.39774e-06 -2.58706e-06 0)
(1.29196e-06 -2.66212e-06 0)
(1.2282e-06 -2.728e-06 0)
(1.19315e-06 -2.78214e-06 0)
(1.17766e-06 -2.83367e-06 0)
(1.17634e-06 -2.88263e-06 0)
(1.18496e-06 -2.93146e-06 0)
(1.20099e-06 -2.98085e-06 0)
(1.22147e-06 -3.03038e-06 0)
(1.11982e-06 -2.53882e-06 0)
(9.95152e-07 -2.68384e-06 0)
(9.15938e-07 -2.77635e-06 0)
(8.68097e-07 -2.85376e-06 0)
(8.41608e-07 -2.91536e-06 0)
(8.29666e-07 -2.97192e-06 0)
(8.28281e-07 -3.02425e-06 0)
(8.34255e-07 -3.0755e-06 0)
(8.45741e-07 -3.12658e-06 0)
(8.60405e-07 -3.17772e-06 0)
(6.72975e-07 -2.5859e-06 0)
(5.95817e-07 -2.75016e-06 0)
(5.46759e-07 -2.85487e-06 0)
(5.17023e-07 -2.94037e-06 0)
(5.00487e-07 -3.00719e-06 0)
(4.92989e-07 -3.06728e-06 0)
(4.92008e-07 -3.12197e-06 0)
(4.95491e-07 -3.17494e-06 0)
(5.02347e-07 -3.22726e-06 0)
(5.11148e-07 -3.27961e-06 0)
(2.24773e-07 -2.60961e-06 0)
(1.98577e-07 -2.78379e-06 0)
(1.81918e-07 -2.89483e-06 0)
(1.71844e-07 -2.9845e-06 0)
(1.66222e-07 -3.05399e-06 0)
(1.63608e-07 -3.1159e-06 0)
(1.63211e-07 -3.1718e-06 0)
(1.64354e-07 -3.22565e-06 0)
(1.6663e-07 -3.27857e-06 0)
(1.69545e-07 -3.33151e-06 0)
(6.36334e-06 -7.77656e-08 0)
(6.42064e-06 -5.61767e-08 0)
(6.45616e-06 -4.25144e-08 0)
(6.49485e-06 -3.45016e-08 0)
(6.53722e-06 -3.0098e-08 0)
(6.58908e-06 -2.8103e-08 0)
(6.65025e-06 -2.76963e-08 0)
(6.72136e-06 -2.83847e-08 0)
(6.80219e-06 -2.98483e-08 0)
(6.89171e-06 -3.15545e-08 0)
(6.31641e-06 -2.33258e-07 0)
(6.36425e-06 -1.69753e-07 0)
(6.39388e-06 -1.29695e-07 0)
(6.42862e-06 -1.0628e-07 0)
(6.46838e-06 -9.34001e-08 0)
(6.51836e-06 -8.76441e-08 0)
(6.5782e-06 -8.66456e-08 0)
(6.64825e-06 -8.87843e-08 0)
(6.72818e-06 -9.3141e-08 0)
(6.81673e-06 -9.82951e-08 0)
(6.22256e-06 -3.90107e-07 0)
(6.25242e-06 -2.88136e-07 0)
(6.27072e-06 -2.23862e-07 0)
(6.29796e-06 -1.8644e-07 0)
(6.33274e-06 -1.65992e-07 0)
(6.37923e-06 -1.56974e-07 0)
(6.43651e-06 -1.55596e-07 0)
(6.50442e-06 -1.59298e-07 0)
(6.58259e-06 -1.66586e-07 0)
(6.66925e-06 -1.7523e-07 0)
(6.08352e-06 -5.48884e-07 0)
(6.08788e-06 -4.14035e-07 0)
(6.08996e-06 -3.29061e-07 0)
(6.10654e-06 -2.79814e-07 0)
(6.13424e-06 -2.53094e-07 0)
(6.17564e-06 -2.416e-07 0)
(6.22924e-06 -2.40282e-07 0)
(6.2942e-06 -2.45778e-07 0)
(6.3699e-06 -2.56024e-07 0)
(6.45395e-06 -2.68163e-07 0)
(5.90139e-06 -7.10068e-07 0)
(5.87425e-06 -5.49742e-07 0)
(5.85632e-06 -4.48712e-07 0)
(5.85959e-06 -3.90559e-07 0)
(5.87852e-06 -3.59323e-07 0)
(5.9137e-06 -3.46419e-07 0)
(5.96271e-06 -3.4574e-07 0)
(6.02399e-06 -3.53284e-07 0)
(6.09657e-06 -3.66487e-07 0)
(6.17742e-06 -3.82124e-07 0)
(5.679e-06 -8.73699e-07 0)
(5.61613e-06 -6.96683e-07 0)
(5.57554e-06 -5.85107e-07 0)
(5.56376e-06 -5.2154e-07 0)
(5.57275e-06 -4.87912e-07 0)
(5.60085e-06 -4.7485e-07 0)
(5.64463e-06 -4.75445e-07 0)
(5.70168e-06 -4.85326e-07 0)
(5.77066e-06 -5.01503e-07 0)
(5.84801e-06 -5.20638e-07 0)
(5.41947e-06 -1.03947e-06 0)
(5.3189e-06 -8.55442e-07 0)
(5.25444e-06 -7.39441e-07 0)
(5.22675e-06 -6.74323e-07 0)
(5.22512e-06 -6.40657e-07 0)
(5.24565e-06 -6.28822e-07 0)
(5.28381e-06 -6.31425e-07 0)
(5.33626e-06 -6.43993e-07 0)
(5.40129e-06 -6.63234e-07 0)
(5.475e-06 -6.85852e-07 0)
(5.12631e-06 -1.20665e-06 0)
(4.98833e-06 -1.02566e-06 0)
(4.90017e-06 -9.11589e-07 0)
(4.85661e-06 -8.48899e-07 0)
(4.84431e-06 -8.17633e-07 0)
(4.85717e-06 -8.08485e-07 0)
(4.88953e-06 -8.13882e-07 0)
(4.93728e-06 -8.29528e-07 0)
(4.99815e-06 -8.519e-07 0)
(5.06819e-06 -8.78027e-07 0)
(4.80324e-06 -1.37407e-06 0)
(4.63044e-06 -1.20598e-06 0)
(4.52034e-06 -1.10007e-06 0)
(4.46194e-06 -1.04374e-06 0)
(4.43955e-06 -1.01729e-06 0)
(4.44496e-06 -1.01229e-06 0)
(4.47153e-06 -1.02134e-06 0)
(4.51452e-06 -1.04042e-06 0)
(4.57087e-06 -1.06617e-06 0)
(4.63721e-06 -1.09569e-06 0)
(4.45405e-06 -1.54011e-06 0)
(4.25122e-06 -1.39402e-06 0)
(4.12215e-06 -1.30207e-06 0)
(4.05078e-06 -1.25577e-06 0)
(4.01936e-06 -1.23637e-06 0)
(4.0178e-06 -1.23691e-06 0)
(4.03871e-06 -1.25042e-06 0)
(4.07687e-06 -1.27352e-06 0)
(4.12866e-06 -1.3029e-06 0)
(4.1909e-06 -1.33703e-06 0)
(6.99e-06 -3.32552e-08 0)
(7.0971e-06 -3.36674e-08 0)
(7.211e-06 -3.41355e-08 0)
(7.33126e-06 -3.44655e-08 0)
(7.45711e-06 -3.46267e-08 0)
(7.58808e-06 -3.46134e-08 0)
(7.72369e-06 -3.4408e-08 0)
(7.86339e-06 -3.40153e-08 0)
(8.00665e-06 -3.33956e-08 0)
(8.15306e-06 -3.25236e-08 0)
(8.30222e-06 -3.13821e-08 0)
(8.45368e-06 -2.99632e-08 0)
(8.60703e-06 -2.8253e-08 0)
(8.76179e-06 -2.62247e-08 0)
(8.91761e-06 -2.38337e-08 0)
(9.07387e-06 -2.1032e-08 0)
(9.23027e-06 -1.77643e-08 0)
(9.38578e-06 -1.39713e-08 0)
(9.54063e-06 -9.56039e-09 0)
(9.69233e-06 -4.50053e-09 0)
(6.91833e-06 -1.03103e-07 0)
(7.03142e-06 -1.03892e-07 0)
(7.15066e-06 -1.04872e-07 0)
(7.27556e-06 -1.05519e-07 0)
(7.40561e-06 -1.05725e-07 0)
(7.54032e-06 -1.0548e-07 0)
(7.67924e-06 -1.04673e-07 0)
(7.82192e-06 -1.03293e-07 0)
(7.96792e-06 -1.01249e-07 0)
(8.11684e-06 -9.85072e-08 0)
(8.26829e-06 -9.50184e-08 0)
(8.42187e-06 -9.07302e-08 0)
(8.57722e-06 -8.55682e-08 0)
(8.73389e-06 -7.94408e-08 0)
(8.8915e-06 -7.22265e-08 0)
(9.04944e-06 -6.37981e-08 0)
(9.20746e-06 -5.399e-08 0)
(9.36453e-06 -4.26241e-08 0)
(9.52094e-06 -2.94187e-08 0)
(9.67426e-06 -1.42656e-08 0)
(6.77729e-06 -1.82108e-07 0)
(6.9021e-06 -1.81923e-07 0)
(7.0319e-06 -1.82206e-07 0)
(7.16594e-06 -1.82266e-07 0)
(7.30412e-06 -1.81762e-07 0)
(7.44606e-06 -1.80679e-07 0)
(7.59157e-06 -1.78778e-07 0)
(7.74021e-06 -1.76022e-07 0)
(7.89161e-06 -1.7225e-07 0)
(8.04546e-06 -1.67404e-07 0)
(8.20148e-06 -1.61381e-07 0)
(8.35933e-06 -1.54071e-07 0)
(8.51867e-06 -1.45334e-07 0)
(8.67908e-06 -1.35015e-07 0)
(8.84021e-06 -1.22916e-07 0)
(9.00154e-06 -1.08823e-07 0)
(9.1628e-06 -9.24521e-08 0)
(9.32303e-06 -7.3516e-08 0)
(9.48251e-06 -5.15468e-08 0)
(9.63886e-06 -2.63487e-08 0)
(6.57123e-06 -2.75475e-07 0)
(6.71286e-06 -2.72219e-07 0)
(6.85787e-06 -2.69907e-07 0)
(7.00515e-06 -2.67951e-07 0)
(7.15528e-06 -2.65544e-07 0)
(7.30784e-06 -2.62675e-07 0)
(7.46291e-06 -2.58903e-07 0)
(7.62016e-06 -2.54144e-07 0)
(7.77947e-06 -2.48147e-07 0)
(7.94059e-06 -2.40809e-07 0)
(8.10335e-06 -2.31949e-07 0)
(8.26745e-06 -2.21381e-07 0)
(8.4326e-06 -2.0889e-07 0)
(8.59846e-06 -1.94253e-07 0)
(8.76476e-06 -1.77199e-07 0)
(8.93104e-06 -1.57406e-07 0)
(9.09708e-06 -1.34468e-07 0)
(9.26196e-06 -1.07984e-07 0)
(9.42601e-06 -7.72893e-08 0)
(9.58684e-06 -4.21101e-08 0)
(6.30615e-06 -3.87829e-07 0)
(6.46891e-06 -3.78843e-07 0)
(6.6333e-06 -3.7149e-07 0)
(6.79747e-06 -3.65631e-07 0)
(6.96287e-06 -3.59732e-07 0)
(7.12901e-06 -3.538e-07 0)
(7.29644e-06 -3.47135e-07 0)
(7.46485e-06 -3.39556e-07 0)
(7.63439e-06 -3.30692e-07 0)
(7.80491e-06 -3.20339e-07 0)
(7.97633e-06 -3.08214e-07 0)
(8.14844e-06 -2.94048e-07 0)
(8.32109e-06 -2.77552e-07 0)
(8.49402e-06 -2.58424e-07 0)
(8.66705e-06 -2.36298e-07 0)
(8.8397e-06 -2.10744e-07 0)
(9.01191e-06 -1.81235e-07 0)
(9.18271e-06 -1.47242e-07 0)
(9.35263e-06 -1.07904e-07 0)
(9.51927e-06 -6.28477e-08 0)
(5.98977e-06 -5.22453e-07 0)
(6.17688e-06 -5.04663e-07 0)
(6.36391e-06 -4.89393e-07 0)
(6.54789e-06 -4.77348e-07 0)
(6.73141e-06 -4.66079e-07 0)
(6.91378e-06 -4.55561e-07 0)
(7.09601e-06 -4.44785e-07 0)
(7.27785e-06 -4.33388e-07 0)
(7.45963e-06 -4.20851e-07 0)
(7.64139e-06 -4.06841e-07 0)
(7.82321e-06 -3.90958e-07 0)
(8.00501e-06 -3.72827e-07 0)
(8.18671e-06 -3.52064e-07 0)
(8.36814e-06 -3.28276e-07 0)
(8.54922e-06 -3.00976e-07 0)
(8.72952e-06 -2.69626e-07 0)
(8.90908e-06 -2.33576e-07 0)
(9.08703e-06 -1.92161e-07 0)
(9.26397e-06 -1.44315e-07 0)
(9.43762e-06 -8.9531e-08 0)
(5.63068e-06 -6.81495e-07 0)
(5.84434e-06 -6.51719e-07 0)
(6.05649e-06 -6.25644e-07 0)
(6.26265e-06 -6.04989e-07 0)
(6.46652e-06 -5.86395e-07 0)
(6.66724e-06 -5.69634e-07 0)
(6.86611e-06 -5.53387e-07 0)
(7.06316e-06 -5.37052e-07 0)
(7.25891e-06 -5.19941e-07 0)
(7.45355e-06 -5.01535e-07 0)
(7.64727e-06 -4.81308e-07 0)
(7.84013e-06 -4.58757e-07 0)
(8.03217e-06 -4.33386e-07 0)
(8.22332e-06 -4.0469e-07 0)
(8.41356e-06 -3.72062e-07 0)
(8.60261e-06 -3.34851e-07 0)
(8.79061e-06 -2.92276e-07 0)
(8.97677e-06 -2.43519e-07 0)
(9.16173e-06 -1.87298e-07 0)
(9.34342e-06 -1.22974e-07 0)
(5.23781e-06 -8.65328e-07 0)
(5.47907e-06 -8.20145e-07 0)
(5.71767e-06 -7.80429e-07 0)
(5.9477e-06 -7.48471e-07 0)
(6.17347e-06 -7.20446e-07 0)
(6.39426e-06 -6.95597e-07 0)
(6.61143e-06 -6.72413e-07 0)
(6.82526e-06 -6.49961e-07 0)
(7.03644e-06 -6.27351e-07 0)
(7.24531e-06 -6.03836e-07 0)
(7.45221e-06 -5.78726e-07 0)
(7.65728e-06 -5.51369e-07 0)
(7.86068e-06 -5.21136e-07 0)
(8.06253e-06 -4.8739e-07 0)
(8.26288e-06 -4.49391e-07 0)
(8.46161e-06 -4.06365e-07 0)
(8.65891e-06 -3.57374e-07 0)
(8.85409e-06 -3.01442e-07 0)
(9.04791e-06 -2.37063e-07 0)
(9.23848e-06 -1.63471e-07 0)
(4.82056e-06 -1.07375e-06 0)
(5.08985e-06 -1.01013e-06 0)
(5.35515e-06 -9.5489e-07 0)
(5.61002e-06 -9.09305e-07 0)
(5.85856e-06 -8.70056e-07 0)
(6.10039e-06 -8.35456e-07 0)
(6.33686e-06 -8.03908e-07 0)
(6.56852e-06 -7.74097e-07 0)
(6.79611e-06 -7.44915e-07 0)
(7.02016e-06 -7.1539e-07 0)
(7.24111e-06 -6.84657e-07 0)
(7.45926e-06 -6.51906e-07 0)
(7.6749e-06 -6.16364e-07 0)
(7.88827e-06 -5.77249e-07 0)
(8.0995e-06 -5.33676e-07 0)
(8.30862e-06 -4.84737e-07 0)
(8.5159e-06 -4.29326e-07 0)
(8.7208e-06 -3.66306e-07 0)
(8.92412e-06 -2.93969e-07 0)
(9.12429e-06 -2.11444e-07 0)
(4.38669e-06 -1.30353e-06 0)
(4.6846e-06 -1.21726e-06 0)
(4.97579e-06 -1.14459e-06 0)
(5.25625e-06 -1.08307e-06 0)
(5.52817e-06 -1.03053e-06 0)
(5.79194e-06 -9.84524e-07 0)
(6.04856e-06 -9.4328e-07 0)
(6.29885e-06 -9.0512e-07 0)
(6.5436e-06 -8.6864e-07 0)
(6.78351e-06 -8.32608e-07 0)
(7.01915e-06 -7.95936e-07 0)
(7.25094e-06 -7.57617e-07 0)
(7.47933e-06 -7.16701e-07 0)
(7.70468e-06 -6.72248e-07 0)
(7.9272e-06 -6.23219e-07 0)
(8.14709e-06 -5.68568e-07 0)
(8.36466e-06 -5.07018e-07 0)
(8.57961e-06 -4.37281e-07 0)
(8.79276e-06 -3.57452e-07 0)
(9.00297e-06 -2.6652e-07 0)
(4.06277e-06 -1.52507e-06 0)
(4.38128e-06 -1.41947e-06 0)
(4.68852e-06 -1.33351e-06 0)
(4.98483e-06 -1.25926e-06 0)
(5.27138e-06 -1.19504e-06 0)
(5.54902e-06 -1.13838e-06 0)
(5.81869e-06 -1.08741e-06 0)
(6.08119e-06 -1.0404e-06 0)
(6.33736e-06 -9.95828e-07 0)
(6.58788e-06 -9.52369e-07 0)
(6.83334e-06 -9.08814e-07 0)
(7.07422e-06 -8.64044e-07 0)
(7.31104e-06 -8.17e-07 0)
(7.54422e-06 -7.66632e-07 0)
(7.77402e-06 -7.1181e-07 0)
(8.00079e-06 -6.51398e-07 0)
(8.22485e-06 -5.84038e-07 0)
(8.44613e-06 -5.08388e-07 0)
(8.66547e-06 -4.22498e-07 0)
(8.88212e-06 -3.25318e-07 0)
(3.87819e-06 -1.70527e-06 0)
(4.19857e-06 -1.59528e-06 0)
(4.50855e-06 -1.50164e-06 0)
(4.80909e-06 -1.41934e-06 0)
(5.1004e-06 -1.34683e-06 0)
(5.3831e-06 -1.28199e-06 0)
(5.65789e-06 -1.22305e-06 0)
(5.92542e-06 -1.16836e-06 0)
(6.18638e-06 -1.11646e-06 0)
(6.44139e-06 -1.06603e-06 0)
(6.69099e-06 -1.01587e-06 0)
(6.93565e-06 -9.64816e-07 0)
(7.1759e-06 -9.11806e-07 0)
(7.41216e-06 -8.55756e-07 0)
(7.64472e-06 -7.95527e-07 0)
(7.87402e-06 -7.29974e-07 0)
(8.10036e-06 -6.57754e-07 0)
(8.32389e-06 -5.77572e-07 0)
(8.54541e-06 -4.87575e-07 0)
(8.76451e-06 -3.86737e-07 0)
(3.72098e-06 -1.87797e-06 0)
(4.03799e-06 -1.76558e-06 0)
(4.34735e-06 -1.66705e-06 0)
(4.64853e-06 -1.57864e-06 0)
(4.94167e-06 -1.49927e-06 0)
(5.22685e-06 -1.42724e-06 0)
(5.50456e-06 -1.36101e-06 0)
(5.77523e-06 -1.29912e-06 0)
(6.03939e-06 -1.24021e-06 0)
(6.29755e-06 -1.18301e-06 0)
(6.55016e-06 -1.12635e-06 0)
(6.79767e-06 -1.06909e-06 0)
(7.0406e-06 -1.01017e-06 0)
(7.27932e-06 -9.48511e-07 0)
(7.51416e-06 -8.8298e-07 0)
(7.7456e-06 -8.12457e-07 0)
(7.97395e-06 -7.35648e-07 0)
(8.19953e-06 -6.51327e-07 0)
(8.42305e-06 -5.57752e-07 0)
(8.64446e-06 -4.53932e-07 0)
(3.58257e-06 -2.044e-06 0)
(3.89484e-06 -1.93049e-06 0)
(4.20145e-06 -1.82844e-06 0)
(4.50112e-06 -1.73515e-06 0)
(4.79396e-06 -1.64996e-06 0)
(5.07967e-06 -1.57161e-06 0)
(5.35856e-06 -1.49881e-06 0)
(5.63081e-06 -1.43029e-06 0)
(5.89681e-06 -1.36482e-06 0)
(6.15695e-06 -1.30123e-06 0)
(6.4116e-06 -1.23838e-06 0)
(6.66113e-06 -1.17519e-06 0)
(6.90605e-06 -1.11062e-06 0)
(7.14669e-06 -1.04362e-06 0)
(7.38337e-06 -9.73089e-07 0)
(7.61661e-06 -8.97952e-07 0)
(7.8467e-06 -8.16987e-07 0)
(8.07409e-06 -7.29042e-07 0)
(8.29945e-06 -6.3249e-07 0)
(8.52298e-06 -5.26429e-07 0)
(3.46058e-06 -2.20304e-06 0)
(3.76698e-06 -2.08928e-06 0)
(4.06933e-06 -1.98496e-06 0)
(4.36592e-06 -1.88801e-06 0)
(4.65682e-06 -1.79815e-06 0)
(4.9415e-06 -1.71445e-06 0)
(5.22009e-06 -1.63591e-06 0)
(5.49258e-06 -1.56144e-06 0)
(5.75922e-06 -1.48997e-06 0)
(6.0203e-06 -1.42042e-06 0)
(6.27608e-06 -1.35176e-06 0)
(6.52688e-06 -1.28297e-06 0)
(6.77314e-06 -1.21305e-06 0)
(7.01517e-06 -1.141e-06 0)
(7.25327e-06 -1.06579e-06 0)
(7.48797e-06 -9.86374e-07 0)
(7.71955e-06 -9.01634e-07 0)
(7.94853e-06 -8.10496e-07 0)
(8.17553e-06 -7.11467e-07 0)
(8.40099e-06 -6.03828e-07 0)
(3.352e-06 -2.35521e-06 0)
(3.65197e-06 -2.2419e-06 0)
(3.94916e-06 -2.13617e-06 0)
(4.2416e-06 -2.03651e-06 0)
(4.52939e-06 -1.9429e-06 0)
(4.81186e-06 -1.85473e-06 0)
(5.08898e-06 -1.77121e-06 0)
(5.36059e-06 -1.69147e-06 0)
(5.62687e-06 -1.61459e-06 0)
(5.88798e-06 -1.53962e-06 0)
(6.14411e-06 -1.46561e-06 0)
(6.39549e-06 -1.39164e-06 0)
(6.64253e-06 -1.31678e-06 0)
(6.88546e-06 -1.24007e-06 0)
(7.1246e-06 -1.16054e-06 0)
(7.36042e-06 -1.07725e-06 0)
(7.59322e-06 -9.89149e-07 0)
(7.82356e-06 -8.95256e-07 0)
(8.05202e-06 -7.94269e-07 0)
(8.27921e-06 -6.85667e-07 0)
(3.25459e-06 -2.50079e-06 0)
(3.54778e-06 -2.38838e-06 0)
(3.83926e-06 -2.28191e-06 0)
(4.12683e-06 -2.18034e-06 0)
(4.41069e-06 -2.08383e-06 0)
(4.69005e-06 -1.99198e-06 0)
(4.96481e-06 -1.90425e-06 0)
(5.2347e-06 -1.81993e-06 0)
(5.4998e-06 -1.73826e-06 0)
(5.7602e-06 -1.65842e-06 0)
(6.01601e-06 -1.57957e-06 0)
(6.26738e-06 -1.50088e-06 0)
(6.51469e-06 -1.42149e-06 0)
(6.75809e-06 -1.34052e-06 0)
(6.99789e-06 -1.25708e-06 0)
(7.23453e-06 -1.1703e-06 0)
(7.46829e-06 -1.07922e-06 0)
(7.69978e-06 -9.82988e-07 0)
(7.92951e-06 -8.80529e-07 0)
(8.15821e-06 -7.71426e-07 0)
(3.16632e-06 -2.64008e-06 0)
(3.45266e-06 -2.5289e-06 0)
(3.73808e-06 -2.42221e-06 0)
(4.02035e-06 -2.31935e-06 0)
(4.29973e-06 -2.22063e-06 0)
(4.57536e-06 -2.12581e-06 0)
(4.84709e-06 -2.03454e-06 0)
(5.11459e-06 -1.94629e-06 0)
(5.37787e-06 -1.86044e-06 0)
(5.63696e-06 -1.7763e-06 0)
(5.89189e-06 -1.69314e-06 0)
(6.14276e-06 -1.61021e-06 0)
(6.38989e-06 -1.52675e-06 0)
(6.63336e-06 -1.44194e-06 0)
(6.8735e-06 -1.35499e-06 0)
(7.11068e-06 -1.26509e-06 0)
(7.34517e-06 -1.17143e-06 0)
(7.57759e-06 -1.07328e-06 0)
(7.80841e-06 -9.69771e-07 0)
(8.03838e-06 -8.60485e-07 0)
(3.08539e-06 -2.7735e-06 0)
(3.36495e-06 -2.66374e-06 0)
(3.64416e-06 -2.55723e-06 0)
(3.92091e-06 -2.45357e-06 0)
(4.19545e-06 -2.35319e-06 0)
(4.46693e-06 -2.25601e-06 0)
(4.73517e-06 -2.16182e-06 0)
(4.9998e-06 -2.07025e-06 0)
(5.26079e-06 -1.9808e-06 0)
(5.5181e-06 -1.89291e-06 0)
(5.7717e-06 -1.80596e-06 0)
(6.02166e-06 -1.71928e-06 0)
(6.26824e-06 -1.6322e-06 0)
(6.51146e-06 -1.54399e-06 0)
(6.75164e-06 -1.45392e-06 0)
(6.98911e-06 -1.36131e-06 0)
(7.22414e-06 -1.26546e-06 0)
(7.45731e-06 -1.16577e-06 0)
(7.68901e-06 -1.06152e-06 0)
(7.92005e-06 -9.52326e-07 0)
(3.0102e-06 -2.9015e-06 0)
(3.28312e-06 -2.79326e-06 0)
(3.55614e-06 -2.68717e-06 0)
(3.8273e-06 -2.58308e-06 0)
(4.0968e-06 -2.4815e-06 0)
(4.36388e-06 -2.38246e-06 0)
(4.62835e-06 -2.28589e-06 0)
(4.88978e-06 -2.19154e-06 0)
(5.14813e-06 -2.09905e-06 0)
(5.40332e-06 -2.00796e-06 0)
(5.65526e-06 -1.91773e-06 0)
(5.90399e-06 -1.8278e-06 0)
(6.14971e-06 -1.73757e-06 0)
(6.39242e-06 -1.64637e-06 0)
(6.6324e-06 -1.55361e-06 0)
(6.86997e-06 -1.45868e-06 0)
(7.10535e-06 -1.36102e-06 0)
(7.33908e-06 -1.26011e-06 0)
(7.57149e-06 -1.15534e-06 0)
(7.8034e-06 -1.04652e-06 0)
(2.93934e-06 -3.02454e-06 0)
(3.20582e-06 -2.91784e-06 0)
(3.47275e-06 -2.81232e-06 0)
(3.73831e-06 -2.70806e-06 0)
(4.00274e-06 -2.60564e-06 0)
(4.26532e-06 -2.50517e-06 0)
(4.52585e-06 -2.40672e-06 0)
(4.7839e-06 -2.31011e-06 0)
(5.03939e-06 -2.21509e-06 0)
(5.29223e-06 -2.12131e-06 0)
(5.54227e-06 -2.0283e-06 0)
(5.78953e-06 -1.93558e-06 0)
(6.03417e-06 -1.84263e-06 0)
(6.27617e-06 -1.74888e-06 0)
(6.51578e-06 -1.65382e-06 0)
(6.75328e-06 -1.55695e-06 0)
(6.98884e-06 -1.4578e-06 0)
(7.22297e-06 -1.35592e-06 0)
(7.45594e-06 -1.25085e-06 0)
(7.68854e-06 -1.1426e-06 0)
(2.87155e-06 -3.14305e-06 0)
(3.13181e-06 -3.03781e-06 0)
(3.3928e-06 -2.93295e-06 0)
(3.65288e-06 -2.82874e-06 0)
(3.91229e-06 -2.72577e-06 0)
(4.17037e-06 -2.62427e-06 0)
(4.4269e-06 -2.52435e-06 0)
(4.68148e-06 -2.42594e-06 0)
(4.93401e-06 -2.32887e-06 0)
(5.18436e-06 -2.23285e-06 0)
(5.43235e-06 -2.1375e-06 0)
(5.67799e-06 -2.04243e-06 0)
(5.92141e-06 -1.94718e-06 0)
(6.16256e-06 -1.85128e-06 0)
(6.40168e-06 -1.75431e-06 0)
(6.63898e-06 -1.65584e-06 0)
(6.87459e-06 -1.55547e-06 0)
(7.10897e-06 -1.45284e-06 0)
(7.34236e-06 -1.34771e-06 0)
(7.57549e-06 -1.24007e-06 0)
(2.80564e-06 -3.25738e-06 0)
(3.05994e-06 -3.15351e-06 0)
(3.31519e-06 -3.04937e-06 0)
(3.56996e-06 -2.94537e-06 0)
(3.82448e-06 -2.84212e-06 0)
(4.07814e-06 -2.73989e-06 0)
(4.33073e-06 -2.63888e-06 0)
(4.58185e-06 -2.53905e-06 0)
(4.83138e-06 -2.44034e-06 0)
(5.07918e-06 -2.34251e-06 0)
(5.32506e-06 -2.24526e-06 0)
(5.56902e-06 -2.14826e-06 0)
(5.81115e-06 -2.05113e-06 0)
(6.05139e-06 -1.95348e-06 0)
(6.28991e-06 -1.85495e-06 0)
(6.52691e-06 -1.75518e-06 0)
(6.76245e-06 -1.65383e-06 0)
(6.99699e-06 -1.55067e-06 0)
(7.23068e-06 -1.44563e-06 0)
(7.4642e-06 -1.33862e-06 0)
(2.74054e-06 -3.36786e-06 0)
(2.98914e-06 -3.26529e-06 0)
(3.2389e-06 -3.16191e-06 0)
(3.48859e-06 -3.05823e-06 0)
(3.73839e-06 -2.95489e-06 0)
(3.98779e-06 -2.8522e-06 0)
(4.23655e-06 -2.75041e-06 0)
(4.48429e-06 -2.64955e-06 0)
(4.73088e-06 -2.54959e-06 0)
(4.97617e-06 -2.45035e-06 0)
(5.21997e-06 -2.35159e-06 0)
(5.46224e-06 -2.25305e-06 0)
(5.70308e-06 -2.15442e-06 0)
(5.94238e-06 -2.05537e-06 0)
(6.18026e-06 -1.95559e-06 0)
(6.41687e-06 -1.85477e-06 0)
(6.65227e-06 -1.75267e-06 0)
(6.88689e-06 -1.6492e-06 0)
(7.1208e-06 -1.54427e-06 0)
(7.35458e-06 -1.43793e-06 0)
(2.67518e-06 -3.47485e-06 0)
(2.91837e-06 -3.3735e-06 0)
(3.16292e-06 -3.27088e-06 0)
(3.40779e-06 -3.16762e-06 0)
(3.65312e-06 -3.06437e-06 0)
(3.89848e-06 -2.96148e-06 0)
(4.1436e-06 -2.8592e-06 0)
(4.38813e-06 -2.75761e-06 0)
(4.63191e-06 -2.65671e-06 0)
(4.87481e-06 -2.5564e-06 0)
(5.11661e-06 -2.4565e-06 0)
(5.35728e-06 -2.3568e-06 0)
(5.59686e-06 -2.25702e-06 0)
(5.8352e-06 -2.15688e-06 0)
(6.07241e-06 -2.05612e-06 0)
(6.30862e-06 -1.95449e-06 0)
(6.54387e-06 -1.85187e-06 0)
(6.7785e-06 -1.74822e-06 0)
(7.01253e-06 -1.64341e-06 0)
(7.24646e-06 -1.53769e-06 0)
(2.60858e-06 -3.57865e-06 0)
(2.84662e-06 -3.47851e-06 0)
(3.08621e-06 -3.37656e-06 0)
(3.3266e-06 -3.2738e-06 0)
(3.56779e-06 -3.17082e-06 0)
(3.8094e-06 -3.06793e-06 0)
(4.05115e-06 -2.96539e-06 0)
(4.29269e-06 -2.86335e-06 0)
(4.53387e-06 -2.76185e-06 0)
(4.77457e-06 -2.66081e-06 0)
(5.01455e-06 -2.56011e-06 0)
(5.25373e-06 -2.45955e-06 0)
(5.49211e-06 -2.35892e-06 0)
(5.72952e-06 -2.25795e-06 0)
(5.96609e-06 -2.15646e-06 0)
(6.20193e-06 -2.05427e-06 0)
(6.43701e-06 -1.95131e-06 0)
(6.67158e-06 -1.84748e-06 0)
(6.90562e-06 -1.74286e-06 0)
(7.1396e-06 -1.63765e-06 0)
(2.53968e-06 -3.67962e-06 0)
(2.77269e-06 -3.58031e-06 0)
(3.00758e-06 -3.47928e-06 0)
(3.24403e-06 -3.37724e-06 0)
(3.48145e-06 -3.27463e-06 0)
(3.71971e-06 -3.17189e-06 0)
(3.95843e-06 -3.06932e-06 0)
(4.19731e-06 -2.96708e-06 0)
(4.43622e-06 -2.86524e-06 0)
(4.67499e-06 -2.76376e-06 0)
(4.91335e-06 -2.66253e-06 0)
(5.15117e-06 -2.56139e-06 0)
(5.38845e-06 -2.46015e-06 0)
(5.62504e-06 -2.35862e-06 0)
(5.86106e-06 -2.25664e-06 0)
(6.09656e-06 -2.15408e-06 0)
(6.33139e-06 -2.05084e-06 0)
(6.56578e-06 -1.94688e-06 0)
(6.79982e-06 -1.84247e-06 0)
(7.03398e-06 -1.73769e-06 0)
(2.46685e-06 -3.7776e-06 0)
(2.6956e-06 -3.67932e-06 0)
(2.92662e-06 -3.5794e-06 0)
(3.15925e-06 -3.47807e-06 0)
(3.39337e-06 -3.376e-06 0)
(3.62865e-06 -3.2736e-06 0)
(3.86479e-06 -3.17121e-06 0)
(4.10146e-06 -3.06901e-06 0)
(4.33849e-06 -2.96708e-06 0)
(4.57564e-06 -2.8654e-06 0)
(4.81258e-06 -2.76387e-06 0)
(5.04922e-06 -2.66239e-06 0)
(5.28561e-06 -2.5608e-06 0)
(5.52159e-06 -2.45892e-06 0)
(5.75708e-06 -2.35661e-06 0)
(5.99207e-06 -2.25378e-06 0)
(6.22661e-06 -2.15035e-06 0)
(6.46104e-06 -2.04638e-06 0)
(6.69503e-06 -1.94208e-06 0)
(6.92895e-06 -1.83761e-06 0)
(2.38912e-06 -3.8737e-06 0)
(2.61398e-06 -3.77663e-06 0)
(2.84144e-06 -3.67754e-06 0)
(3.07095e-06 -3.577e-06 0)
(3.30234e-06 -3.47556e-06 0)
(3.5353e-06 -3.37367e-06 0)
(3.76952e-06 -3.27164e-06 0)
(4.00457e-06 -3.16964e-06 0)
(4.24013e-06 -3.06777e-06 0)
(4.47598e-06 -2.96605e-06 0)
(4.71189e-06 -2.86443e-06 0)
(4.94778e-06 -2.7628e-06 0)
(5.18349e-06 -2.661e-06 0)
(5.41873e-06 -2.5589e-06 0)
(5.65369e-06 -2.4564e-06 0)
(5.88843e-06 -2.35339e-06 0)
(6.12273e-06 -2.24983e-06 0)
(6.3569e-06 -2.14588e-06 0)
(6.59086e-06 -2.04162e-06 0)
(6.82471e-06 -1.93736e-06 0)
(2.30546e-06 -3.9671e-06 0)
(2.52687e-06 -3.87137e-06 0)
(2.75135e-06 -3.7735e-06 0)
(2.9784e-06 -3.67398e-06 0)
(3.20786e-06 -3.57343e-06 0)
(3.43931e-06 -3.47225e-06 0)
(3.67223e-06 -3.37074e-06 0)
(3.90611e-06 -3.26911e-06 0)
(4.14076e-06 -3.16749e-06 0)
(4.37599e-06 -3.0659e-06 0)
(4.61131e-06 -2.96431e-06 0)
(4.84651e-06 -2.86264e-06 0)
(5.08166e-06 -2.76075e-06 0)
(5.31649e-06 -2.65854e-06 0)
(5.55098e-06 -2.55594e-06 0)
(5.78531e-06 -2.45282e-06 0)
(6.01935e-06 -2.34924e-06 0)
(6.25328e-06 -2.24522e-06 0)
(6.48716e-06 -2.14098e-06 0)
(6.7208e-06 -2.03679e-06 0)
(1.69056e-07 -3.38563e-06 0)
(5.09399e-07 -3.33623e-06 0)
(8.56459e-07 -3.23914e-06 0)
(1.21393e-06 -3.09857e-06 0)
(1.58489e-06 -2.91966e-06 0)
(1.97131e-06 -2.7093e-06 0)
(2.3739e-06 -2.47503e-06 0)
(2.792e-06 -2.22486e-06 0)
(3.22419e-06 -1.96688e-06 0)
(3.66707e-06 -1.7075e-06 0)
(1.64606e-07 -3.44199e-06 0)
(4.95677e-07 -3.39693e-06 0)
(8.32316e-07 -3.30823e-06 0)
(1.17758e-06 -3.17954e-06 0)
(1.53403e-06 -3.01521e-06 0)
(1.90337e-06 -2.82107e-06 0)
(2.28614e-06 -2.60357e-06 0)
(2.68174e-06 -2.3696e-06 0)
(3.08807e-06 -2.12662e-06 0)
(3.50268e-06 -1.87996e-06 0)
(1.6063e-07 -3.49999e-06 0)
(4.83394e-07 -3.45885e-06 0)
(8.10617e-07 -3.37774e-06 0)
(1.14479e-06 -3.25991e-06 0)
(1.48799e-06 -3.10908e-06 0)
(1.84163e-06 -2.93025e-06 0)
(2.20624e-06 -2.72899e-06 0)
(2.58173e-06 -2.51105e-06 0)
(2.96645e-06 -2.283e-06 0)
(3.35901e-06 -2.04816e-06 0)
(1.57023e-07 -3.55958e-06 0)
(4.72356e-07 -3.52177e-06 0)
(7.9132e-07 -3.44711e-06 0)
(1.11598e-06 -3.33851e-06 0)
(1.44804e-06 -3.19922e-06 0)
(1.7886e-06 -3.03358e-06 0)
(2.13804e-06 -2.84659e-06 0)
(2.49627e-06 -2.64326e-06 0)
(2.86183e-06 -2.42978e-06 0)
(3.2336e-06 -2.20858e-06 0)
(1.53682e-07 -3.62069e-06 0)
(4.6207e-07 -3.58583e-06 0)
(7.7346e-07 -3.51693e-06 0)
(1.08948e-06 -3.4166e-06 0)
(1.41156e-06 -3.28775e-06 0)
(1.74057e-06 -3.13417e-06 0)
(2.07684e-06 -2.96033e-06 0)
(2.42031e-06 -2.77055e-06 0)
(2.76988e-06 -2.57043e-06 0)
(3.12384e-06 -2.36212e-06 0)
(1.50577e-07 -3.68321e-06 0)
(4.52489e-07 -3.65089e-06 0)
(7.56926e-07 -3.58702e-06 0)
(1.06516e-06 -3.49387e-06 0)
(1.37838e-06 -3.37416e-06 0)
(1.69729e-06 -3.23123e-06 0)
(2.0221e-06 -3.06916e-06 0)
(2.35262e-06 -2.89183e-06 0)
(2.68825e-06 -2.70427e-06 0)
(3.02672e-06 -2.50863e-06 0)
(1.47562e-07 -3.74703e-06 0)
(4.43329e-07 -3.71696e-06 0)
(7.41194e-07 -3.65759e-06 0)
(1.0422e-06 -3.57085e-06 0)
(1.34736e-06 -3.45932e-06 0)
(1.65722e-06 -3.326e-06 0)
(1.97197e-06 -3.17458e-06 0)
(2.29125e-06 -3.00857e-06 0)
(2.61484e-06 -2.83241e-06 0)
(2.94001e-06 -2.64852e-06 0)
(1.44633e-07 -3.812e-06 0)
(4.3449e-07 -3.78391e-06 0)
(7.26082e-07 -3.7285e-06 0)
(1.02031e-06 -3.64744e-06 0)
(1.31809e-06 -3.54319e-06 0)
(1.61975e-06 -3.41846e-06 0)
(1.92551e-06 -3.27663e-06 0)
(2.23485e-06 -3.12091e-06 0)
(2.54788e-06 -2.95522e-06 0)
(2.86161e-06 -2.78222e-06 0)
(1.41794e-07 -3.87799e-06 0)
(4.25824e-07 -3.85168e-06 0)
(7.11322e-07 -3.79981e-06 0)
(9.99105e-07 -3.72386e-06 0)
(1.28994e-06 -3.62613e-06 0)
(1.5841e-06 -3.50914e-06 0)
(1.88174e-06 -3.37594e-06 0)
(2.18225e-06 -3.22951e-06 0)
(2.48593e-06 -3.07334e-06 0)
(2.78978e-06 -2.91028e-06 0)
(1.38979e-07 -3.94486e-06 0)
(4.17207e-07 -3.9201e-06 0)
(6.96737e-07 -3.8714e-06 0)
(9.78319e-07 -3.80005e-06 0)
(1.26256e-06 -3.70818e-06 0)
(1.5497e-06 -3.59814e-06 0)
(1.83991e-06 -3.47272e-06 0)
(2.13245e-06 -3.33472e-06 0)
(2.42776e-06 -3.18724e-06 0)
(2.72295e-06 -3.03323e-06 0)
(1.36103e-07 -4.01243e-06 0)
(4.08528e-07 -3.98906e-06 0)
(6.82154e-07 -3.94323e-06 0)
(9.57657e-07 -3.87603e-06 0)
(1.23553e-06 -3.78946e-06 0)
(1.51602e-06 -3.6857e-06 0)
(1.79928e-06 -3.56731e-06 0)
(2.08455e-06 -3.43695e-06 0)
(2.37227e-06 -3.29738e-06 0)
(2.65979e-06 -3.15156e-06 0)
(1.33154e-07 -4.08048e-06 0)
(3.9974e-07 -4.05839e-06 0)
(6.67446e-07 -4.01516e-06 0)
(9.36875e-07 -3.95175e-06 0)
(1.20852e-06 -3.86999e-06 0)
(1.48259e-06 -3.77191e-06 0)
(1.75925e-06 -3.6599e-06 0)
(2.03774e-06 -3.53649e-06 0)
(2.31848e-06 -3.4041e-06 0)
(2.59911e-06 -3.26568e-06 0)
(1.30148e-07 -4.14887e-06 0)
(3.90768e-07 -4.12798e-06 0)
(6.5244e-07 -4.08712e-06 0)
(9.15718e-07 -4.02715e-06 0)
(1.18116e-06 -3.94976e-06 0)
(1.44893e-06 -3.85686e-06 0)
(1.7192e-06 -3.75066e-06 0)
(1.99128e-06 -3.63355e-06 0)
(2.2655e-06 -3.50769e-06 0)
(2.53983e-06 -3.37598e-06 0)
(1.27062e-07 -4.21739e-06 0)
(3.81484e-07 -4.19762e-06 0)
(6.36921e-07 -4.1589e-06 0)
(8.93919e-07 -4.10209e-06 0)
(1.15309e-06 -4.0287e-06 0)
(1.41458e-06 -3.94054e-06 0)
(1.67858e-06 -3.83966e-06 0)
(1.94444e-06 -3.72829e-06 0)
(2.21249e-06 -3.60842e-06 0)
(2.48094e-06 -3.48281e-06 0)
(1.23824e-07 -4.28588e-06 0)
(3.71727e-07 -4.26715e-06 0)
(6.20656e-07 -4.23039e-06 0)
(8.71176e-07 -4.17648e-06 0)
(1.12391e-06 -4.10679e-06 0)
(1.37904e-06 -4.02301e-06 0)
(1.63674e-06 -3.92702e-06 0)
(1.89651e-06 -3.82089e-06 0)
(2.15858e-06 -3.70654e-06 0)
(2.42145e-06 -3.58647e-06 0)
(1.2037e-07 -4.35397e-06 0)
(3.6136e-07 -4.3362e-06 0)
(6.03434e-07 -4.30128e-06 0)
(8.47174e-07 -4.25008e-06 0)
(1.09321e-06 -4.1838e-06 0)
(1.34178e-06 -4.10407e-06 0)
(1.59309e-06 -4.0126e-06 0)
(1.84676e-06 -3.91135e-06 0)
(2.10295e-06 -3.80211e-06 0)
(2.36041e-06 -3.68711e-06 0)
(1.16654e-07 -4.42155e-06 0)
(3.50252e-07 -4.40472e-06 0)
(5.85013e-07 -4.37152e-06 0)
(8.21553e-07 -4.32283e-06 0)
(1.06052e-06 -4.25979e-06 0)
(1.30223e-06 -4.18386e-06 0)
(1.54694e-06 -4.09663e-06 0)
(1.79437e-06 -3.99998e-06 0)
(2.04465e-06 -3.89543e-06 0)
(2.29671e-06 -3.7852e-06 0)
(1.12643e-07 -4.48791e-06 0)
(3.3827e-07 -4.47195e-06 0)
(5.65147e-07 -4.4404e-06 0)
(7.9395e-07 -4.39412e-06 0)
(1.02537e-06 -4.33414e-06 0)
(1.25981e-06 -4.26183e-06 0)
(1.49758e-06 -4.17866e-06 0)
(1.73849e-06 -4.08635e-06 0)
(1.98262e-06 -3.98627e-06 0)
(2.22924e-06 -3.8805e-06 0)
(1.08267e-07 -4.55339e-06 0)
(3.25186e-07 -4.53827e-06 0)
(5.43444e-07 -4.50833e-06 0)
(7.63809e-07 -4.46437e-06 0)
(9.87035e-07 -4.40735e-06 0)
(1.21363e-06 -4.33854e-06 0)
(1.44395e-06 -4.25929e-06 0)
(1.67791e-06 -4.17111e-06 0)
(1.91559e-06 -4.07538e-06 0)
(2.15655e-06 -3.97386e-06 0)
(1.03489e-07 -4.61605e-06 0)
(3.10885e-07 -4.60171e-06 0)
(5.19708e-07 -4.57338e-06 0)
(7.30863e-07 -4.53174e-06 0)
(9.45187e-07 -4.47768e-06 0)
(1.16325e-06 -4.41235e-06 0)
(1.38547e-06 -4.33699e-06 0)
(1.61191e-06 -4.25295e-06 0)
(1.84275e-06 -4.16157e-06 0)
(2.07778e-06 -4.06437e-06 0)
)


// ************************************************************************* //
