/*--------------------------------*- C++ -*----------------------------------*\
| =========                 |                                                 |
| \\      /  F ield         | foam-extend: Open Source CFD                    |
|  \\    /   O peration     | Version:     4.1                                |
|   \\  /    A nd           | Web:         http://www.foam-extend.org         |
|    \\/     M anipulation  |                                                 |
\*---------------------------------------------------------------------------*/
FoamFile
{
    version     2.0;
    format      ascii;
    class       vectorField;
    location    "8";
    object      solidsCellD_iteration2;
}
// * * * * * * * * * * * * * * * * * * * * * * * * * * * * * * * * * * * * * //


1000
(
(4.02475e-06 -1.67585e-06 0)
(3.80342e-06 -1.56071e-06 0)
(3.66271e-06 -1.48798e-06 0)
(3.58301e-06 -1.45441e-06 0)
(3.5453e-06 -1.44318e-06 0)
(3.53827e-06 -1.44928e-06 0)
(3.55381e-06 -1.46666e-06 0)
(3.58636e-06 -1.49255e-06 0)
(3.63115e-06 -1.52439e-06 0)
(3.68495e-06 -1.56112e-06 0)
(3.64005e-06 -1.83051e-06 0)
(3.4041e-06 -1.75061e-06 0)
(3.25403e-06 -1.70031e-06 0)
(3.16736e-06 -1.68202e-06 0)
(3.12415e-06 -1.68093e-06 0)
(3.11197e-06 -1.69429e-06 0)
(3.1224e-06 -1.71694e-06 0)
(3.14945e-06 -1.74671e-06 0)
(3.18839e-06 -1.78174e-06 0)
(3.23569e-06 -1.81977e-06 0)
(3.23997e-06 -1.97708e-06 0)
(2.99879e-06 -1.93663e-06 0)
(2.84543e-06 -1.91128e-06 0)
(2.75552e-06 -1.90983e-06 0)
(2.70909e-06 -1.91976e-06 0)
(2.69322e-06 -1.94072e-06 0)
(2.69944e-06 -1.96866e-06 0)
(2.72175e-06 -2.0021e-06 0)
(2.75547e-06 -2.0399e-06 0)
(2.79731e-06 -2.07955e-06 0)
(2.82766e-06 -2.113e-06 0)
(2.5913e-06 -2.11393e-06 0)
(2.44105e-06 -2.11474e-06 0)
(2.35201e-06 -2.13076e-06 0)
(2.30485e-06 -2.1521e-06 0)
(2.28689e-06 -2.18084e-06 0)
(2.28991e-06 -2.21402e-06 0)
(2.30807e-06 -2.2511e-06 0)
(2.33708e-06 -2.29158e-06 0)
(2.37353e-06 -2.33311e-06 0)
(2.40583e-06 -2.23559e-06 0)
(2.18446e-06 -2.2775e-06 0)
(2.0437e-06 -2.30428e-06 0)
(1.95967e-06 -2.33757e-06 0)
(1.91444e-06 -2.37004e-06 0)
(1.89596e-06 -2.40634e-06 0)
(1.89674e-06 -2.4446e-06 0)
(1.91122e-06 -2.48523e-06 0)
(1.9357e-06 -2.52825e-06 0)
(1.96677e-06 -2.57182e-06 0)
(1.97675e-06 -2.34231e-06 0)
(1.78007e-06 -2.42258e-06 0)
(1.65504e-06 -2.4736e-06 0)
(1.58001e-06 -2.52301e-06 0)
(1.53915e-06 -2.56592e-06 0)
(1.52165e-06 -2.60926e-06 0)
(1.52102e-06 -2.65218e-06 0)
(1.53229e-06 -2.69611e-06 0)
(1.55233e-06 -2.74147e-06 0)
(1.57791e-06 -2.78708e-06 0)
(1.54233e-06 -2.43076e-06 0)
(1.3792e-06 -2.54464e-06 0)
(1.2755e-06 -2.61693e-06 0)
(1.21301e-06 -2.68044e-06 0)
(1.17869e-06 -2.73245e-06 0)
(1.16355e-06 -2.78196e-06 0)
(1.16225e-06 -2.82896e-06 0)
(1.17065e-06 -2.87581e-06 0)
(1.18626e-06 -2.92323e-06 0)
(1.20625e-06 -2.97073e-06 0)
(1.10418e-06 -2.49895e-06 0)
(9.81993e-07 -2.63983e-06 0)
(9.0433e-07 -2.72923e-06 0)
(8.57422e-07 -2.80403e-06 0)
(8.31479e-07 -2.86334e-06 0)
(8.19794e-07 -2.91779e-06 0)
(8.18414e-07 -2.96807e-06 0)
(8.24217e-07 -3.01729e-06 0)
(8.35388e-07 -3.06634e-06 0)
(8.49702e-07 -3.1154e-06 0)
(6.63582e-07 -2.5453e-06 0)
(5.87943e-07 -2.70504e-06 0)
(5.39841e-07 -2.80644e-06 0)
(5.10703e-07 -2.88917e-06 0)
(4.94516e-07 -2.95358e-06 0)
(4.87154e-07 -3.01146e-06 0)
(4.86155e-07 -3.06405e-06 0)
(4.89541e-07 -3.11497e-06 0)
(4.96223e-07 -3.16521e-06 0)
(5.04813e-07 -3.21544e-06 0)
(2.21631e-07 -2.56863e-06 0)
(1.95967e-07 -2.7381e-06 0)
(1.79636e-07 -2.84568e-06 0)
(1.69743e-07 -2.93252e-06 0)
(1.64229e-07 -2.99957e-06 0)
(1.61677e-07 -3.05923e-06 0)
(1.6128e-07 -3.11298e-06 0)
(1.62381e-07 -3.16473e-06 0)
(1.646e-07 -3.21555e-06 0)
(1.67449e-07 -3.26637e-06 0)
(6.27129e-06 -7.65184e-08 0)
(6.32805e-06 -5.52633e-08 0)
(6.3635e-06 -4.17947e-08 0)
(6.40219e-06 -3.38834e-08 0)
(6.44446e-06 -2.94872e-08 0)
(6.49612e-06 -2.74632e-08 0)
(6.55689e-06 -2.70218e-08 0)
(6.62743e-06 -2.76165e-08 0)
(6.70747e-06 -2.89616e-08 0)
(6.79599e-06 -3.05663e-08 0)
(6.22508e-06 -2.29524e-07 0)
(6.27255e-06 -1.67018e-07 0)
(6.3022e-06 -1.27489e-07 0)
(6.33704e-06 -1.04357e-07 0)
(6.37677e-06 -9.15675e-08 0)
(6.42661e-06 -8.57163e-08 0)
(6.48607e-06 -8.45316e-08 0)
(6.55555e-06 -8.64201e-08 0)
(6.63471e-06 -9.04812e-08 0)
(6.72226e-06 -9.53073e-08 0)
(6.13269e-06 -3.83844e-07 0)
(6.16256e-06 -2.83506e-07 0)
(6.18107e-06 -2.201e-07 0)
(6.20854e-06 -1.83082e-07 0)
(6.24341e-06 -1.62729e-07 0)
(6.28982e-06 -1.5358e-07 0)
(6.34679e-06 -1.51927e-07 0)
(6.41422e-06 -1.55228e-07 0)
(6.4917e-06 -1.6201e-07 0)
(6.57741e-06 -1.70088e-07 0)
(5.9958e-06 -5.401e-07 0)
(6.00066e-06 -4.07396e-07 0)
(6.00328e-06 -3.23559e-07 0)
(6.02027e-06 -2.74833e-07 0)
(6.0482e-06 -2.48212e-07 0)
(6.08965e-06 -2.36532e-07 0)
(6.14303e-06 -2.34825e-07 0)
(6.20757e-06 -2.39761e-07 0)
(6.28267e-06 -2.49303e-07 0)
(6.36581e-06 -2.60674e-07 0)
(5.8165e-06 -6.98723e-07 0)
(5.79044e-06 -5.40911e-07 0)
(5.77341e-06 -4.41209e-07 0)
(5.77736e-06 -3.83658e-07 0)
(5.7967e-06 -3.52516e-07 0)
(5.83206e-06 -3.39349e-07 0)
(5.88098e-06 -3.3816e-07 0)
(5.94194e-06 -3.45011e-07 0)
(6.01405e-06 -3.57348e-07 0)
(6.09408e-06 -3.72043e-07 0)
(5.59752e-06 -8.59771e-07 0)
(5.53639e-06 -6.85468e-07 0)
(5.49715e-06 -5.7532e-07 0)
(5.48633e-06 -5.12363e-07 0)
(5.49589e-06 -4.78788e-07 0)
(5.5243e-06 -4.65386e-07 0)
(5.56812e-06 -4.65371e-07 0)
(5.62495e-06 -4.74448e-07 0)
(5.69361e-06 -4.89613e-07 0)
(5.77024e-06 -5.07659e-07 0)
(5.34195e-06 -1.02294e-06 0)
(5.2438e-06 -8.41659e-07 0)
(5.18112e-06 -7.27059e-07 0)
(5.15467e-06 -6.62484e-07 0)
(5.15381e-06 -6.28789e-07 0)
(5.17479e-06 -6.16529e-07 0)
(5.2131e-06 -6.18441e-07 0)
(5.26546e-06 -6.30115e-07 0)
(5.33035e-06 -6.48229e-07 0)
(5.40347e-06 -6.69654e-07 0)
(5.05321e-06 -1.18747e-06 0)
(4.91834e-06 -1.0091e-06 0)
(4.8324e-06 -8.96294e-07 0)
(4.79034e-06 -8.34018e-07 0)
(4.77898e-06 -8.02601e-07 0)
(4.79238e-06 -7.92925e-07 0)
(4.825e-06 -7.97539e-07 0)
(4.87275e-06 -8.12205e-07 0)
(4.93361e-06 -8.33361e-07 0)
(5.00326e-06 -8.58261e-07 0)
(4.73497e-06 -1.35222e-06 0)
(4.56591e-06 -1.18644e-06 0)
(4.45837e-06 -1.08157e-06 0)
(4.4017e-06 -1.02545e-06 0)
(4.38039e-06 -9.98679e-07 0)
(4.38644e-06 -9.93015e-07 0)
(4.41333e-06 -1.00118e-06 0)
(4.45641e-06 -1.01922e-06 0)
(4.5129e-06 -1.04375e-06 0)
(4.57918e-06 -1.07211e-06 0)
(4.39095e-06 -1.51561e-06 0)
(4.1924e-06 -1.37133e-06 0)
(4.06618e-06 -1.28009e-06 0)
(3.99669e-06 -1.23374e-06 0)
(3.96643e-06 -1.21381e-06 0)
(3.96553e-06 -1.2135e-06 0)
(3.98671e-06 -1.22598e-06 0)
(4.02486e-06 -1.24791e-06 0)
(4.07664e-06 -1.27601e-06 0)
(4.13925e-06 -1.30904e-06 0)
(6.89306e-06 -3.21795e-08 0)
(6.99882e-06 -3.25334e-08 0)
(7.11131e-06 -3.29707e-08 0)
(7.23011e-06 -3.32946e-08 0)
(7.35448e-06 -3.34638e-08 0)
(7.48396e-06 -3.34547e-08 0)
(7.61804e-06 -3.32334e-08 0)
(7.75618e-06 -3.28207e-08 0)
(7.89788e-06 -3.22087e-08 0)
(8.04271e-06 -3.1369e-08 0)
(8.19025e-06 -3.02602e-08 0)
(8.34006e-06 -2.88633e-08 0)
(8.49172e-06 -2.71655e-08 0)
(8.64476e-06 -2.51452e-08 0)
(8.7988e-06 -2.27634e-08 0)
(8.95322e-06 -1.99742e-08 0)
(9.10775e-06 -1.67198e-08 0)
(9.26132e-06 -1.29407e-08 0)
(9.41416e-06 -8.54555e-09 0)
(9.5638e-06 -3.50613e-09 0)
(6.82256e-06 -9.98251e-08 0)
(6.93416e-06 -1.00459e-07 0)
(7.05188e-06 -1.0137e-07 0)
(7.17526e-06 -1.01994e-07 0)
(7.30375e-06 -1.02195e-07 0)
(7.43689e-06 -1.01942e-07 0)
(7.57426e-06 -1.01123e-07 0)
(7.71537e-06 -9.97466e-08 0)
(7.85979e-06 -9.77482e-08 0)
(8.0071e-06 -9.50708e-08 0)
(8.15693e-06 -9.16335e-08 0)
(8.30886e-06 -8.73815e-08 0)
(8.46252e-06 -8.22497e-08 0)
(8.61745e-06 -7.61537e-08 0)
(8.77327e-06 -6.89767e-08 0)
(8.92936e-06 -6.05881e-08 0)
(9.08548e-06 -5.08166e-08 0)
(9.24059e-06 -3.9486e-08 0)
(9.39497e-06 -2.63205e-08 0)
(9.54617e-06 -1.1226e-08 0)
(6.68403e-06 -1.7651e-07 0)
(6.80709e-06 -1.76124e-07 0)
(6.93513e-06 -1.76322e-07 0)
(7.06746e-06 -1.76342e-07 0)
(7.20395e-06 -1.75824e-07 0)
(7.34421e-06 -1.74739e-07 0)
(7.48803e-06 -1.72839e-07 0)
(7.63497e-06 -1.70101e-07 0)
(7.7847e-06 -1.66383e-07 0)
(7.93686e-06 -1.61599e-07 0)
(8.09119e-06 -1.55627e-07 0)
(8.24731e-06 -1.48368e-07 0)
(8.4049e-06 -1.39688e-07 0)
(8.56351e-06 -1.29431e-07 0)
(8.72282e-06 -1.17399e-07 0)
(8.88228e-06 -1.03372e-07 0)
(9.04162e-06 -8.70621e-08 0)
(9.19985e-06 -6.81831e-08 0)
(9.35729e-06 -4.62748e-08 0)
(9.51152e-06 -2.11687e-08 0)
(6.48148e-06 -2.67415e-07 0)
(6.62098e-06 -2.63955e-07 0)
(6.76394e-06 -2.61561e-07 0)
(6.90928e-06 -2.59554e-07 0)
(7.05752e-06 -2.57126e-07 0)
(7.20823e-06 -2.54256e-07 0)
(7.36147e-06 -2.50488e-07 0)
(7.51692e-06 -2.45758e-07 0)
(7.67444e-06 -2.39829e-07 0)
(7.83377e-06 -2.32557e-07 0)
(7.99473e-06 -2.23753e-07 0)
(8.15701e-06 -2.1325e-07 0)
(8.32033e-06 -2.00838e-07 0)
(8.48432e-06 -1.86286e-07 0)
(8.64873e-06 -1.69316e-07 0)
(8.81308e-06 -1.49609e-07 0)
(8.97711e-06 -1.26759e-07 0)
(9.13995e-06 -1.00363e-07 0)
(9.3019e-06 -6.97675e-08 0)
(9.46056e-06 -3.4718e-08 0)
(6.22097e-06 -3.77111e-07 0)
(6.38115e-06 -3.6797e-07 0)
(6.54309e-06 -3.60577e-07 0)
(6.70499e-06 -3.54683e-07 0)
(6.86824e-06 -3.48783e-07 0)
(7.03232e-06 -3.42873e-07 0)
(7.19772e-06 -3.36228e-07 0)
(7.36417e-06 -3.28691e-07 0)
(7.53175e-06 -3.19895e-07 0)
(7.70033e-06 -3.09607e-07 0)
(7.86982e-06 -2.97548e-07 0)
(8.04001e-06 -2.83463e-07 0)
(8.21072e-06 -2.67059e-07 0)
(8.38169e-06 -2.48024e-07 0)
(8.55273e-06 -2.2599e-07 0)
(8.72337e-06 -2.0054e-07 0)
(8.8935e-06 -1.71143e-07 0)
(9.06221e-06 -1.3727e-07 0)
(9.22995e-06 -9.80675e-08 0)
(9.39437e-06 -5.31727e-08 0)
(5.9099e-06 -5.0883e-07 0)
(6.09397e-06 -4.91015e-07 0)
(6.27814e-06 -4.75816e-07 0)
(6.45957e-06 -4.63805e-07 0)
(6.64065e-06 -4.52589e-07 0)
(6.82071e-06 -4.42121e-07 0)
(7.00067e-06 -4.31379e-07 0)
(7.18032e-06 -4.20037e-07 0)
(7.35997e-06 -4.07572e-07 0)
(7.53963e-06 -3.93628e-07 0)
(7.71936e-06 -3.77815e-07 0)
(7.89907e-06 -3.59772e-07 0)
(8.07868e-06 -3.39104e-07 0)
(8.25801e-06 -3.15406e-07 0)
(8.437e-06 -2.88205e-07 0)
(8.61517e-06 -2.56974e-07 0)
(8.79257e-06 -2.21055e-07 0)
(8.96833e-06 -1.79783e-07 0)
(9.14301e-06 -1.32092e-07 0)
(9.31437e-06 -7.74826e-08 0)
(5.55679e-06 -6.6472e-07 0)
(5.76694e-06 -6.35148e-07 0)
(5.97579e-06 -6.09318e-07 0)
(6.17906e-06 -5.88796e-07 0)
(6.3802e-06 -5.70318e-07 0)
(6.57833e-06 -5.53638e-07 0)
(6.77472e-06 -5.37455e-07 0)
(6.96936e-06 -5.21196e-07 0)
(7.16276e-06 -5.04163e-07 0)
(7.35508e-06 -4.85822e-07 0)
(7.54652e-06 -4.6566e-07 0)
(7.73711e-06 -4.43189e-07 0)
(7.92688e-06 -4.17906e-07 0)
(8.11578e-06 -3.89297e-07 0)
(8.30378e-06 -3.56771e-07 0)
(8.49057e-06 -3.19687e-07 0)
(8.67628e-06 -2.77247e-07 0)
(8.86012e-06 -2.28638e-07 0)
(9.04272e-06 -1.72574e-07 0)
(9.22203e-06 -1.08424e-07 0)
(5.17036e-06 -8.45152e-07 0)
(5.4077e-06 -8.00509e-07 0)
(5.64265e-06 -7.61263e-07 0)
(5.86949e-06 -7.29576e-07 0)
(6.09227e-06 -7.01749e-07 0)
(6.31018e-06 -6.77032e-07 0)
(6.52461e-06 -6.5394e-07 0)
(6.73577e-06 -6.31563e-07 0)
(6.94434e-06 -6.09018e-07 0)
(7.15064e-06 -5.85554e-07 0)
(7.35501e-06 -5.60495e-07 0)
(7.55758e-06 -5.33203e-07 0)
(7.75851e-06 -5.03044e-07 0)
(7.95792e-06 -4.69376e-07 0)
(8.15584e-06 -4.31475e-07 0)
(8.35212e-06 -3.88568e-07 0)
(8.54695e-06 -3.39704e-07 0)
(8.73967e-06 -2.83912e-07 0)
(8.931e-06 -2.19686e-07 0)
(9.1191e-06 -1.46274e-07 0)
(4.75989e-06 -1.04998e-06 0)
(5.02503e-06 -9.8736e-07 0)
(5.28645e-06 -9.32849e-07 0)
(5.53786e-06 -8.87697e-07 0)
(5.7831e-06 -8.48721e-07 0)
(6.02177e-06 -8.14288e-07 0)
(6.25518e-06 -7.82841e-07 0)
(6.48386e-06 -7.53091e-07 0)
(6.70854e-06 -7.23951e-07 0)
(6.92973e-06 -6.9445e-07 0)
(7.14788e-06 -6.6374e-07 0)
(7.36327e-06 -6.31026e-07 0)
(7.5762e-06 -5.95534e-07 0)
(7.78689e-06 -5.56477e-07 0)
(7.99544e-06 -5.12985e-07 0)
(8.20189e-06 -4.64145e-07 0)
(8.40649e-06 -4.08846e-07 0)
(8.60874e-06 -3.45959e-07 0)
(8.80942e-06 -2.73785e-07 0)
(9.007e-06 -1.91478e-07 0)
(4.33288e-06 -1.27618e-06 0)
(4.6265e-06 -1.19154e-06 0)
(4.91365e-06 -1.11976e-06 0)
(5.19038e-06 -1.05874e-06 0)
(5.45869e-06 -1.00651e-06 0)
(5.71898e-06 -9.60686e-07 0)
(5.97222e-06 -9.19541e-07 0)
(6.2192e-06 -8.81433e-07 0)
(6.46072e-06 -8.44975e-07 0)
(6.69748e-06 -8.0894e-07 0)
(6.93002e-06 -7.72255e-07 0)
(7.15878e-06 -7.33937e-07 0)
(7.3842e-06 -6.9304e-07 0)
(7.60659e-06 -6.48616e-07 0)
(7.82619e-06 -5.99641e-07 0)
(8.04316e-06 -5.45059e-07 0)
(8.25784e-06 -4.83603e-07 0)
(8.46992e-06 -4.13998e-07 0)
(8.68027e-06 -3.34365e-07 0)
(8.88773e-06 -2.43721e-07 0)
(4.01406e-06 -1.49336e-06 0)
(4.32871e-06 -1.38989e-06 0)
(4.63177e-06 -1.30505e-06 0)
(4.92397e-06 -1.23154e-06 0)
(5.20658e-06 -1.1678e-06 0)
(5.48042e-06 -1.11144e-06 0)
(5.74642e-06 -1.06065e-06 0)
(6.00536e-06 -1.01375e-06 0)
(6.25806e-06 -9.69232e-07 0)
(6.5052e-06 -9.25791e-07 0)
(6.74736e-06 -8.82234e-07 0)
(6.98501e-06 -8.3747e-07 0)
(7.21866e-06 -7.90443e-07 0)
(7.44871e-06 -7.40099e-07 0)
(7.67542e-06 -6.85321e-07 0)
(7.89913e-06 -6.24972e-07 0)
(8.12017e-06 -5.57715e-07 0)
(8.33848e-06 -4.82227e-07 0)
(8.55492e-06 -3.96595e-07 0)
(8.76874e-06 -2.9977e-07 0)
(3.8323e-06 -1.66898e-06 0)
(4.14875e-06 -1.56117e-06 0)
(4.45468e-06 -1.46892e-06 0)
(4.75109e-06 -1.38762e-06 0)
(5.0384e-06 -1.31581e-06 0)
(5.3172e-06 -1.25145e-06 0)
(5.5882e-06 -1.19283e-06 0)
(5.85204e-06 -1.13835e-06 0)
(6.10942e-06 -1.0866e-06 0)
(6.36094e-06 -1.03626e-06 0)
(6.60714e-06 -9.86151e-07 0)
(6.84847e-06 -9.35153e-07 0)
(7.08547e-06 -8.82193e-07 0)
(7.31852e-06 -8.26193e-07 0)
(7.54794e-06 -7.6603e-07 0)
(7.77413e-06 -7.00568e-07 0)
(7.99744e-06 -6.28495e-07 0)
(8.21799e-06 -5.48537e-07 0)
(8.4366e-06 -4.58862e-07 0)
(8.65286e-06 -3.58418e-07 0)
(3.67741e-06 -1.8375e-06 0)
(3.99048e-06 -1.7272e-06 0)
(4.2958e-06 -1.63016e-06 0)
(4.59289e-06 -1.54286e-06 0)
(4.88199e-06 -1.46432e-06 0)
(5.16323e-06 -1.39293e-06 0)
(5.43709e-06 -1.32716e-06 0)
(5.70399e-06 -1.2656e-06 0)
(5.96449e-06 -1.20693e-06 0)
(6.21909e-06 -1.14991e-06 0)
(6.46824e-06 -1.09337e-06 0)
(6.71236e-06 -1.03622e-06 0)
(6.95197e-06 -9.77393e-07 0)
(7.18746e-06 -9.15817e-07 0)
(7.41912e-06 -8.50384e-07 0)
(7.64744e-06 -7.79992e-07 0)
(7.87275e-06 -7.03381e-07 0)
(8.09532e-06 -6.19339e-07 0)
(8.31594e-06 -5.26116e-07 0)
(8.5345e-06 -4.22702e-07 0)
(3.54101e-06 -1.99944e-06 0)
(3.84936e-06 -1.88794e-06 0)
(4.15197e-06 -1.78742e-06 0)
(4.44758e-06 -1.69533e-06 0)
(4.73639e-06 -1.6111e-06 0)
(5.01815e-06 -1.5335e-06 0)
(5.29316e-06 -1.46128e-06 0)
(5.56161e-06 -1.3932e-06 0)
(5.8239e-06 -1.32806e-06 0)
(6.08044e-06 -1.26472e-06 0)
(6.33158e-06 -1.20206e-06 0)
(6.57767e-06 -1.13904e-06 0)
(6.81923e-06 -1.07461e-06 0)
(7.05659e-06 -1.00774e-06 0)
(7.29007e-06 -9.37348e-07 0)
(7.52015e-06 -8.62387e-07 0)
(7.74719e-06 -7.81666e-07 0)
(7.97157e-06 -6.94032e-07 0)
(8.19401e-06 -5.97836e-07 0)
(8.41467e-06 -4.92212e-07 0)
(3.42071e-06 -2.15459e-06 0)
(3.72323e-06 -2.0427e-06 0)
(4.02165e-06 -1.93991e-06 0)
(4.31423e-06 -1.84422e-06 0)
(4.60114e-06 -1.7554e-06 0)
(4.88189e-06 -1.67254e-06 0)
(5.15661e-06 -1.59466e-06 0)
(5.42528e-06 -1.52071e-06 0)
(5.6882e-06 -1.44965e-06 0)
(5.94565e-06 -1.38044e-06 0)
(6.19789e-06 -1.31205e-06 0)
(6.44522e-06 -1.24348e-06 0)
(6.68809e-06 -1.17376e-06 0)
(6.92681e-06 -1.1019e-06 0)
(7.16168e-06 -1.02688e-06 0)
(7.3932e-06 -9.47691e-07 0)
(7.6217e-06 -8.63232e-07 0)
(7.84764e-06 -7.72418e-07 0)
(8.07171e-06 -6.73763e-07 0)
(8.29428e-06 -5.66629e-07 0)
(3.3136e-06 -2.303e-06 0)
(3.60972e-06 -2.19145e-06 0)
(3.90305e-06 -2.08721e-06 0)
(4.19155e-06 -1.98882e-06 0)
(4.47541e-06 -1.89631e-06 0)
(4.75398e-06 -1.80904e-06 0)
(5.02725e-06 -1.72627e-06 0)
(5.29507e-06 -1.64713e-06 0)
(5.55763e-06 -1.57074e-06 0)
(5.81511e-06 -1.49618e-06 0)
(6.06767e-06 -1.42251e-06 0)
(6.31556e-06 -1.34882e-06 0)
(6.55918e-06 -1.27421e-06 0)
(6.79877e-06 -1.19775e-06 0)
(7.03465e-06 -1.11847e-06 0)
(7.26727e-06 -1.03545e-06 0)
(7.49697e-06 -9.47651e-07 0)
(7.72426e-06 -8.54098e-07 0)
(7.94977e-06 -7.53529e-07 0)
(8.17402e-06 -6.45485e-07 0)
(3.21747e-06 -2.44494e-06 0)
(3.50687e-06 -2.33419e-06 0)
(3.79454e-06 -2.22916e-06 0)
(4.07824e-06 -2.12886e-06 0)
(4.35823e-06 -2.03347e-06 0)
(4.63375e-06 -1.94258e-06 0)
(4.9047e-06 -1.85566e-06 0)
(5.17082e-06 -1.77202e-06 0)
(5.43221e-06 -1.69091e-06 0)
(5.68898e-06 -1.61155e-06 0)
(5.94122e-06 -1.53311e-06 0)
(6.18909e-06 -1.45475e-06 0)
(6.43296e-06 -1.37567e-06 0)
(6.673e-06 -1.29499e-06 0)
(6.90953e-06 -1.21184e-06 0)
(7.14294e-06 -1.12535e-06 0)
(7.37359e-06 -1.03459e-06 0)
(7.602e-06 -9.38726e-07 0)
(7.82875e-06 -8.36734e-07 0)
(8.05448e-06 -7.28165e-07 0)
(3.1303e-06 -2.58067e-06 0)
(3.41291e-06 -2.47105e-06 0)
(3.69458e-06 -2.36576e-06 0)
(3.97305e-06 -2.26415e-06 0)
(4.24861e-06 -2.16656e-06 0)
(4.52046e-06 -2.07274e-06 0)
(4.78844e-06 -1.98234e-06 0)
(5.0522e-06 -1.89482e-06 0)
(5.31179e-06 -1.80959e-06 0)
(5.56726e-06 -1.72598e-06 0)
(5.81862e-06 -1.64328e-06 0)
(6.06598e-06 -1.56074e-06 0)
(6.30967e-06 -1.47764e-06 0)
(6.54979e-06 -1.39317e-06 0)
(6.78664e-06 -1.30654e-06 0)
(7.02058e-06 -1.21697e-06 0)
(7.25195e-06 -1.12365e-06 0)
(7.48127e-06 -1.0259e-06 0)
(7.70908e-06 -9.22871e-07 0)
(7.93607e-06 -8.14063e-07 0)
(3.05033e-06 -2.7106e-06 0)
(3.3262e-06 -2.60231e-06 0)
(3.60173e-06 -2.49713e-06 0)
(3.87473e-06 -2.39471e-06 0)
(4.14551e-06 -2.29546e-06 0)
(4.41327e-06 -2.19929e-06 0)
(4.67781e-06 -2.10599e-06 0)
(4.93874e-06 -2.01519e-06 0)
(5.19606e-06 -1.9264e-06 0)
(5.44978e-06 -1.83911e-06 0)
(5.69983e-06 -1.75268e-06 0)
(5.94629e-06 -1.66646e-06 0)
(6.18943e-06 -1.5798e-06 0)
(6.42931e-06 -1.49197e-06 0)
(6.6662e-06 -1.40227e-06 0)
(6.90044e-06 -1.31002e-06 0)
(7.13232e-06 -1.21456e-06 0)
(7.36237e-06 -1.1153e-06 0)
(7.59105e-06 -1.01149e-06 0)
(7.81908e-06 -9.02785e-07 0)
(2.97597e-06 -2.83515e-06 0)
(3.24525e-06 -2.72831e-06 0)
(3.51464e-06 -2.62348e-06 0)
(3.78209e-06 -2.5206e-06 0)
(4.04791e-06 -2.42013e-06 0)
(4.31132e-06 -2.3221e-06 0)
(4.57212e-06 -2.22645e-06 0)
(4.8299e-06 -2.13292e-06 0)
(5.08462e-06 -2.04112e-06 0)
(5.33624e-06 -1.95069e-06 0)
(5.58466e-06 -1.86105e-06 0)
(5.82991e-06 -1.77165e-06 0)
(6.07221e-06 -1.68188e-06 0)
(6.31159e-06 -1.59113e-06 0)
(6.54829e-06 -1.49877e-06 0)
(6.78263e-06 -1.40426e-06 0)
(7.01485e-06 -1.30701e-06 0)
(7.24545e-06 -1.20653e-06 0)
(7.47482e-06 -1.10217e-06 0)
(7.70372e-06 -9.93888e-07 0)
(2.90585e-06 -2.95479e-06 0)
(3.16873e-06 -2.84941e-06 0)
(3.43207e-06 -2.7451e-06 0)
(3.69399e-06 -2.64202e-06 0)
(3.95477e-06 -2.5407e-06 0)
(4.21373e-06 -2.44125e-06 0)
(4.47063e-06 -2.34373e-06 0)
(4.72505e-06 -2.24797e-06 0)
(4.97696e-06 -2.1537e-06 0)
(5.22626e-06 -2.06061e-06 0)
(5.4728e-06 -1.96823e-06 0)
(5.71662e-06 -1.87609e-06 0)
(5.95787e-06 -1.78366e-06 0)
(6.19656e-06 -1.69039e-06 0)
(6.4329e-06 -1.59578e-06 0)
(6.66717e-06 -1.49934e-06 0)
(6.89957e-06 -1.40061e-06 0)
(7.13057e-06 -1.29913e-06 0)
(7.36049e-06 -1.1945e-06 0)
(7.59006e-06 -1.08676e-06 0)
(2.8387e-06 -3.06992e-06 0)
(3.09542e-06 -2.96594e-06 0)
(3.35285e-06 -2.86225e-06 0)
(3.60934e-06 -2.75918e-06 0)
(3.86513e-06 -2.65731e-06 0)
(4.11962e-06 -2.55682e-06 0)
(4.37256e-06 -2.45784e-06 0)
(4.62356e-06 -2.36031e-06 0)
(4.87253e-06 -2.26402e-06 0)
(5.11937e-06 -2.16872e-06 0)
(5.3639e-06 -2.07404e-06 0)
(5.60614e-06 -1.97959e-06 0)
(5.84619e-06 -1.88491e-06 0)
(6.08405e-06 -1.78954e-06 0)
(6.31991e-06 -1.69306e-06 0)
(6.55398e-06 -1.59505e-06 0)
(6.78644e-06 -1.49509e-06 0)
(7.01769e-06 -1.39286e-06 0)
(7.24803e-06 -1.28822e-06 0)
(7.47812e-06 -1.181e-06 0)
(2.77337e-06 -3.18089e-06 0)
(3.02416e-06 -3.07821e-06 0)
(3.27589e-06 -2.97522e-06 0)
(3.52711e-06 -2.87233e-06 0)
(3.77804e-06 -2.77016e-06 0)
(4.02813e-06 -2.66892e-06 0)
(4.27716e-06 -2.56885e-06 0)
(4.52472e-06 -2.46991e-06 0)
(4.77073e-06 -2.37203e-06 0)
(5.01506e-06 -2.27497e-06 0)
(5.25752e-06 -2.17844e-06 0)
(5.4981e-06 -2.0821e-06 0)
(5.73689e-06 -1.98559e-06 0)
(5.97385e-06 -1.88852e-06 0)
(6.20913e-06 -1.79051e-06 0)
(6.44291e-06 -1.6912e-06 0)
(6.67531e-06 -1.59029e-06 0)
(6.90672e-06 -1.48757e-06 0)
(7.13736e-06 -1.38299e-06 0)
(7.36784e-06 -1.2764e-06 0)
(2.70876e-06 -3.28801e-06 0)
(2.95389e-06 -3.18662e-06 0)
(3.20016e-06 -3.08434e-06 0)
(3.44632e-06 -2.98175e-06 0)
(3.69257e-06 -2.87946e-06 0)
(3.93843e-06 -2.77775e-06 0)
(4.18365e-06 -2.67693e-06 0)
(4.42787e-06 -2.57696e-06 0)
(4.67097e-06 -2.47787e-06 0)
(4.91282e-06 -2.37945e-06 0)
(5.15321e-06 -2.28144e-06 0)
(5.39213e-06 -2.1836e-06 0)
(5.62965e-06 -2.08561e-06 0)
(5.86567e-06 -1.98715e-06 0)
(6.10032e-06 -1.8879e-06 0)
(6.33374e-06 -1.78757e-06 0)
(6.56602e-06 -1.68594e-06 0)
(6.79751e-06 -1.58295e-06 0)
(7.02836e-06 -1.4784e-06 0)
(7.25911e-06 -1.3725e-06 0)
(2.64382e-06 -3.39172e-06 0)
(2.88356e-06 -3.29148e-06 0)
(3.12465e-06 -3.18994e-06 0)
(3.36601e-06 -3.08774e-06 0)
(3.60782e-06 -2.98553e-06 0)
(3.84967e-06 -2.88362e-06 0)
(4.09128e-06 -2.78231e-06 0)
(4.33231e-06 -2.68163e-06 0)
(4.57262e-06 -2.5816e-06 0)
(4.8121e-06 -2.48213e-06 0)
(5.05052e-06 -2.38302e-06 0)
(5.28786e-06 -2.28404e-06 0)
(5.52413e-06 -2.18494e-06 0)
(5.75921e-06 -2.08542e-06 0)
(5.99321e-06 -1.98521e-06 0)
(6.22624e-06 -1.88411e-06 0)
(6.45836e-06 -1.782e-06 0)
(6.68988e-06 -1.67879e-06 0)
(6.92086e-06 -1.57438e-06 0)
(7.15175e-06 -1.46902e-06 0)
(2.57755e-06 -3.49228e-06 0)
(2.81217e-06 -3.39317e-06 0)
(3.04833e-06 -3.29227e-06 0)
(3.28523e-06 -3.19055e-06 0)
(3.52293e-06 -3.0886e-06 0)
(3.76106e-06 -2.98669e-06 0)
(3.99932e-06 -2.88512e-06 0)
(4.23738e-06 -2.78403e-06 0)
(4.47512e-06 -2.68342e-06 0)
(4.71241e-06 -2.58322e-06 0)
(4.94902e-06 -2.48332e-06 0)
(5.18487e-06 -2.38352e-06 0)
(5.41996e-06 -2.28358e-06 0)
(5.65413e-06 -2.18327e-06 0)
(5.88749e-06 -2.08237e-06 0)
(6.12016e-06 -1.98074e-06 0)
(6.35213e-06 -1.8783e-06 0)
(6.5836e-06 -1.77488e-06 0)
(6.81461e-06 -1.67071e-06 0)
(7.04556e-06 -1.56583e-06 0)
(2.50893e-06 -3.58994e-06 0)
(2.73855e-06 -3.49167e-06 0)
(2.97002e-06 -3.39167e-06 0)
(3.20302e-06 -3.29065e-06 0)
(3.43696e-06 -3.18905e-06 0)
(3.67175e-06 -3.08731e-06 0)
(3.90701e-06 -2.98571e-06 0)
(4.14243e-06 -2.88442e-06 0)
(4.3779e-06 -2.78347e-06 0)
(4.61328e-06 -2.68285e-06 0)
(4.84828e-06 -2.58244e-06 0)
(5.08278e-06 -2.48208e-06 0)
(5.31677e-06 -2.38157e-06 0)
(5.55013e-06 -2.28071e-06 0)
(5.78296e-06 -2.17935e-06 0)
(6.01529e-06 -2.07738e-06 0)
(6.24702e-06 -1.97467e-06 0)
(6.47832e-06 -1.87115e-06 0)
(6.70935e-06 -1.76712e-06 0)
(6.94048e-06 -1.66268e-06 0)
(2.43632e-06 -3.68465e-06 0)
(2.6617e-06 -3.5874e-06 0)
(2.88932e-06 -3.48847e-06 0)
(3.11852e-06 -3.38815e-06 0)
(3.34917e-06 -3.2871e-06 0)
(3.58101e-06 -3.1857e-06 0)
(3.8137e-06 -3.08428e-06 0)
(4.04692e-06 -2.98303e-06 0)
(4.28052e-06 -2.882e-06 0)
(4.51429e-06 -2.7812e-06 0)
(4.74788e-06 -2.68052e-06 0)
(4.9812e-06 -2.57984e-06 0)
(5.21431e-06 -2.47899e-06 0)
(5.44706e-06 -2.37782e-06 0)
(5.67936e-06 -2.27618e-06 0)
(5.91119e-06 -2.17397e-06 0)
(6.14265e-06 -2.07105e-06 0)
(6.37399e-06 -1.96759e-06 0)
(6.60498e-06 -1.86362e-06 0)
(6.83588e-06 -1.75947e-06 0)
(2.35879e-06 -3.77753e-06 0)
(2.58027e-06 -3.6814e-06 0)
(2.80435e-06 -3.58331e-06 0)
(3.03044e-06 -3.48378e-06 0)
(3.25838e-06 -3.38335e-06 0)
(3.48792e-06 -3.28245e-06 0)
(3.71869e-06 -3.18139e-06 0)
(3.9503e-06 -3.08033e-06 0)
(4.18245e-06 -2.97939e-06 0)
(4.41491e-06 -2.87857e-06 0)
(4.64747e-06 -2.77781e-06 0)
(4.88005e-06 -2.67699e-06 0)
(5.11248e-06 -2.57597e-06 0)
(5.34449e-06 -2.47463e-06 0)
(5.57626e-06 -2.37282e-06 0)
(5.80784e-06 -2.27045e-06 0)
(6.03906e-06 -2.16744e-06 0)
(6.27015e-06 -2.06394e-06 0)
(6.50109e-06 -1.96006e-06 0)
(6.73195e-06 -1.8561e-06 0)
(2.27526e-06 -3.86762e-06 0)
(2.49331e-06 -3.77286e-06 0)
(2.71442e-06 -3.67599e-06 0)
(2.93806e-06 -3.57749e-06 0)
(3.16409e-06 -3.47793e-06 0)
(3.39213e-06 -3.37774e-06 0)
(3.62163e-06 -3.27721e-06 0)
(3.85207e-06 -3.17655e-06 0)
(4.08331e-06 -3.07587e-06 0)
(4.31515e-06 -2.9752e-06 0)
(4.54713e-06 -2.87449e-06 0)
(4.77901e-06 -2.77366e-06 0)
(5.01086e-06 -2.67258e-06 0)
(5.24246e-06 -2.57116e-06 0)
(5.47376e-06 -2.46927e-06 0)
(5.70492e-06 -2.36681e-06 0)
(5.93586e-06 -2.26387e-06 0)
(6.16672e-06 -2.16024e-06 0)
(6.39754e-06 -2.05638e-06 0)
(6.62819e-06 -1.95236e-06 0)
(1.66988e-07 -3.31836e-06 0)
(5.03148e-07 -3.2699e-06 0)
(8.45916e-07 -3.17457e-06 0)
(1.19896e-06 -3.03659e-06 0)
(1.56532e-06 -2.86095e-06 0)
(1.94695e-06 -2.65443e-06 0)
(2.34457e-06 -2.42445e-06 0)
(2.75757e-06 -2.1789e-06 0)
(3.1844e-06 -1.92576e-06 0)
(3.62217e-06 -1.67144e-06 0)
(1.62683e-07 -3.3725e-06 0)
(4.8987e-07 -3.32831e-06 0)
(8.22521e-07 -3.24123e-06 0)
(1.16367e-06 -3.11496e-06 0)
(1.51588e-06 -2.95368e-06 0)
(1.88079e-06 -2.76316e-06 0)
(2.25897e-06 -2.54974e-06 0)
(2.64985e-06 -2.32019e-06 0)
(3.0512e-06 -2.08193e-06 0)
(3.46109e-06 -1.83997e-06 0)
(1.58853e-07 -3.42827e-06 0)
(4.78032e-07 -3.38798e-06 0)
(8.01584e-07 -3.30837e-06 0)
(1.13195e-06 -3.19283e-06 0)
(1.4712e-06 -3.04489e-06 0)
(1.8207e-06 -2.86948e-06 0)
(2.18098e-06 -2.6721e-06 0)
(2.55196e-06 -2.45837e-06 0)
(2.93189e-06 -2.23483e-06 0)
(3.31979e-06 -2.00434e-06 0)
(1.55378e-07 -3.48571e-06 0)
(4.67364e-07 -3.44871e-06 0)
(7.82904e-07 -3.37548e-06 0)
(1.10399e-06 -3.26905e-06 0)
(1.43231e-06 -3.13253e-06 0)
(1.76893e-06 -2.97014e-06 0)
(2.11423e-06 -2.78683e-06 0)
(2.46808e-06 -2.58749e-06 0)
(2.82907e-06 -2.37824e-06 0)
(3.19628e-06 -2.16105e-06 0)
(1.52136e-07 -3.54469e-06 0)
(4.57393e-07 -3.51062e-06 0)
(7.6555e-07 -3.44308e-06 0)
(1.07819e-06 -3.34481e-06 0)
(1.3967e-06 -3.21861e-06 0)
(1.72193e-06 -3.0681e-06 0)
(2.05422e-06 -2.89775e-06 0)
(2.39345e-06 -2.71174e-06 0)
(2.73861e-06 -2.51555e-06 0)
(3.08814e-06 -2.31096e-06 0)
(1.49099e-07 -3.60512e-06 0)
(4.4806e-07 -3.57357e-06 0)
(7.4942e-07 -3.51099e-06 0)
(1.05443e-06 -3.41979e-06 0)
(1.36424e-06 -3.3026e-06 0)
(1.6795e-06 -3.16259e-06 0)
(2.00045e-06 -3.00383e-06 0)
(2.32687e-06 -2.83003e-06 0)
(2.65824e-06 -2.64611e-06 0)
(2.9924e-06 -2.45392e-06 0)
(1.46152e-07 -3.66689e-06 0)
(4.39093e-07 -3.63754e-06 0)
(7.34012e-07 -3.57941e-06 0)
(1.03193e-06 -3.49452e-06 0)
(1.3338e-06 -3.38538e-06 0)
(1.64014e-06 -3.25482e-06 0)
(1.95115e-06 -3.1065e-06 0)
(2.26645e-06 -2.94378e-06 0)
(2.58589e-06 -2.77101e-06 0)
(2.90688e-06 -2.59033e-06 0)
(1.43282e-07 -3.72983e-06 0)
(4.30406e-07 -3.70241e-06 0)
(7.19166e-07 -3.64821e-06 0)
(1.01042e-06 -3.56888e-06 0)
(1.305e-06 -3.46686e-06 0)
(1.60325e-06 -3.34474e-06 0)
(1.90539e-06 -3.2058e-06 0)
(2.21085e-06 -3.05314e-06 0)
(2.51984e-06 -2.89061e-06 0)
(2.82951e-06 -2.72062e-06 0)
(1.40473e-07 -3.79383e-06 0)
(4.21859e-07 -3.7681e-06 0)
(7.04621e-07 -3.7174e-06 0)
(9.89512e-07 -3.64306e-06 0)
(1.27725e-06 -3.54742e-06 0)
(1.56808e-06 -3.43288e-06 0)
(1.86219e-06 -3.30238e-06 0)
(2.15894e-06 -3.15879e-06 0)
(2.45869e-06 -3.00557e-06 0)
(2.75855e-06 -2.84532e-06 0)
(1.37678e-07 -3.85871e-06 0)
(4.13344e-07 -3.83448e-06 0)
(6.90211e-07 -3.78689e-06 0)
(9.68959e-07 -3.71703e-06 0)
(1.25018e-06 -3.62712e-06 0)
(1.53409e-06 -3.51935e-06 0)
(1.82084e-06 -3.39644e-06 0)
(2.10972e-06 -3.26109e-06 0)
(2.4012e-06 -3.11636e-06 0)
(2.6925e-06 -2.96496e-06 0)
(1.34833e-07 -3.92433e-06 0)
(4.04753e-07 -3.90143e-06 0)
(6.75764e-07 -3.85662e-06 0)
(9.48477e-07 -3.79083e-06 0)
(1.22341e-06 -3.70607e-06 0)
(1.50074e-06 -3.6044e-06 0)
(1.78063e-06 -3.48834e-06 0)
(2.06232e-06 -3.36046e-06 0)
(2.3463e-06 -3.22343e-06 0)
(2.63001e-06 -3.08002e-06 0)
(1.31921e-07 -3.99045e-06 0)
(3.96026e-07 -3.96878e-06 0)
(6.61147e-07 -3.92648e-06 0)
(9.27838e-07 -3.86436e-06 0)
(1.19659e-06 -3.78426e-06 0)
(1.46757e-06 -3.68811e-06 0)
(1.74094e-06 -3.57824e-06 0)
(2.01594e-06 -3.45712e-06 0)
(2.29303e-06 -3.32705e-06 0)
(2.56993e-06 -3.19086e-06 0)
(1.28936e-07 -4.05689e-06 0)
(3.87086e-07 -4.03636e-06 0)
(6.46198e-07 -3.99635e-06 0)
(9.06793e-07 -3.93756e-06 0)
(1.16939e-06 -3.86168e-06 0)
(1.43413e-06 -3.77055e-06 0)
(1.70119e-06 -3.66633e-06 0)
(1.96984e-06 -3.5513e-06 0)
(2.24051e-06 -3.42756e-06 0)
(2.51117e-06 -3.29792e-06 0)
(1.25853e-07 -4.12342e-06 0)
(3.77823e-07 -4.10396e-06 0)
(6.30727e-07 -4.06602e-06 0)
(8.85088e-07 -4.01029e-06 0)
(1.14146e-06 -3.93828e-06 0)
(1.39998e-06 -3.85174e-06 0)
(1.66081e-06 -3.75267e-06 0)
(1.92334e-06 -3.64317e-06 0)
(2.18788e-06 -3.52525e-06 0)
(2.45273e-06 -3.40153e-06 0)
(1.22618e-07 -4.18988e-06 0)
(3.68098e-07 -4.17142e-06 0)
(6.14521e-07 -4.13539e-06 0)
(8.62434e-07 -4.08247e-06 0)
(1.11241e-06 -4.01404e-06 0)
(1.36461e-06 -3.93173e-06 0)
(1.61921e-06 -3.83734e-06 0)
(1.87569e-06 -3.7329e-06 0)
(2.13432e-06 -3.62034e-06 0)
(2.39362e-06 -3.50196e-06 0)
(1.19177e-07 -4.25591e-06 0)
(3.57778e-07 -4.23841e-06 0)
(5.9737e-07 -4.20415e-06 0)
(8.3853e-07 -4.15385e-06 0)
(1.08184e-06 -4.0887e-06 0)
(1.32753e-06 -4.01028e-06 0)
(1.57579e-06 -3.92023e-06 0)
(1.8262e-06 -3.82053e-06 0)
(2.07898e-06 -3.71288e-06 0)
(2.3329e-06 -3.59945e-06 0)
(1.15482e-07 -4.32141e-06 0)
(3.46723e-07 -4.30484e-06 0)
(5.79029e-07 -4.27223e-06 0)
(8.13015e-07 -4.22436e-06 0)
(1.04929e-06 -4.16233e-06 0)
(1.28816e-06 -4.08756e-06 0)
(1.52984e-06 -4.0016e-06 0)
(1.77404e-06 -3.90634e-06 0)
(2.02092e-06 -3.80317e-06 0)
(2.26946e-06 -3.69437e-06 0)
(1.1149e-07 -4.38567e-06 0)
(3.34795e-07 -4.36997e-06 0)
(5.5925e-07 -4.33894e-06 0)
(7.8553e-07 -4.29338e-06 0)
(1.01429e-06 -4.23429e-06 0)
(1.24591e-06 -4.16298e-06 0)
(1.48065e-06 -4.08093e-06 0)
(1.71835e-06 -3.98982e-06 0)
(1.9591e-06 -3.89098e-06 0)
(2.2022e-06 -3.78646e-06 0)
(1.07132e-07 -4.44902e-06 0)
(3.21766e-07 -4.43415e-06 0)
(5.37646e-07 -4.40468e-06 0)
(7.55523e-07 -4.36136e-06 0)
(9.76117e-07 -4.30511e-06 0)
(1.1999e-06 -4.23718e-06 0)
(1.4272e-06 -4.1589e-06 0)
(1.65795e-06 -4.07175e-06 0)
(1.89227e-06 -3.9771e-06 0)
(2.1297e-06 -3.87669e-06 0)
(1.02374e-07 -4.50951e-06 0)
(3.07531e-07 -4.49541e-06 0)
(5.14027e-07 -4.4675e-06 0)
(7.22724e-07 -4.42639e-06 0)
(9.3443e-07 -4.37298e-06 0)
(1.14969e-06 -4.30842e-06 0)
(1.3689e-06 -4.23389e-06 0)
(1.59212e-06 -4.15074e-06 0)
(1.81959e-06 -4.06025e-06 0)
(2.05107e-06 -3.96399e-06 0)
)


// ************************************************************************* //
