/*--------------------------------*- C++ -*----------------------------------*\
| =========                 |                                                 |
| \\      /  F ield         | foam-extend: Open Source CFD                    |
|  \\    /   O peration     | Version:     4.1                                |
|   \\  /    A nd           | Web:         http://www.foam-extend.org         |
|    \\/     M anipulation  |                                                 |
\*---------------------------------------------------------------------------*/
FoamFile
{
    version     2.0;
    format      ascii;
    class       volSymmTensorField;
    location    "2";
    object      epsilon;
}
// * * * * * * * * * * * * * * * * * * * * * * * * * * * * * * * * * * * * * //

dimensions      [0 0 0 0 0 0 0];

internalField   nonuniform List<symmTensor> 
1000
(
(6.52107e-07 -7.04399e-07 -3.49273e-22 3.53532e-09 -6.63145e-22 -1.37614e-36)
(1.01843e-06 -5.46881e-07 1.97465e-21 -3.90805e-07 4.27202e-22 0)
(1.19273e-06 -4.34076e-07 -2.14649e-21 -5.72451e-07 -1.53117e-21 0)
(1.29512e-06 -3.54507e-07 -8.22948e-22 -6.88111e-07 -1.89332e-22 0)
(1.34494e-06 -2.9396e-07 -1.38133e-22 -7.44583e-07 3.68592e-23 0)
(1.36605e-06 -2.48493e-07 8.6649e-22 -7.73259e-07 5.52509e-22 0)
(1.36969e-06 -2.12368e-07 -1.55109e-21 -7.81738e-07 -8.71424e-22 0)
(1.36191e-06 -1.84296e-07 3.39916e-22 -7.7899e-07 2.03938e-22 0)
(1.35036e-06 -1.60611e-07 -6.20948e-22 -7.69815e-07 -3.65115e-22 0)
(1.33009e-06 -1.40312e-07 -7.66513e-22 -7.56515e-07 -4.82672e-22 0)
(8.9313e-07 -8.46491e-07 9.80484e-22 -5.05996e-08 -5.74194e-22 3.78933e-37)
(1.19025e-06 -5.82242e-07 -1.98284e-21 -4.11518e-07 -5.24846e-22 0)
(1.32133e-06 -4.1121e-07 -1.83333e-21 -5.71885e-07 -4.91467e-22 0)
(1.39272e-06 -2.98368e-07 -1.42868e-21 -6.77008e-07 -9.83862e-22 0)
(1.42106e-06 -2.19554e-07 -3.1251e-22 -7.26936e-07 -2.78566e-22 0)
(1.42639e-06 -1.65002e-07 1.24259e-21 -7.53015e-07 7.30562e-22 0)
(1.41818e-06 -1.2509e-07 -1.45362e-21 -7.60195e-07 -9.93262e-22 0)
(1.40184e-06 -9.69394e-08 5.89529e-22 -7.58255e-07 4.98841e-22 0)
(1.38139e-06 -7.4829e-08 -1.098e-21 -7.48004e-07 -8.51494e-22 0)
(1.35784e-06 -5.90558e-08 -4.06019e-22 -7.3897e-07 -4.54028e-22 0)
(1.17325e-06 -9.50062e-07 1.2108e-21 -1.50856e-07 7.39081e-23 -2.32162e-37)
(1.37056e-06 -5.97877e-07 -1.54864e-21 -4.46387e-07 -6.75592e-22 0)
(1.44172e-06 -3.79629e-07 1.41985e-21 -5.67908e-07 6.39819e-22 0)
(1.47266e-06 -2.40236e-07 -1.28157e-21 -6.52225e-07 -6.15772e-22 0)
(1.47432e-06 -1.4734e-07 -3.13036e-22 -6.89778e-07 -2.36739e-22 0)
(1.46117e-06 -8.62216e-08 -1.19532e-21 -7.10021e-07 -6.99252e-22 0)
(1.44002e-06 -4.40985e-08 2.20175e-27 -7.14257e-07 -5.95418e-27 0)
(1.41442e-06 -1.63903e-08 -4.11433e-24 -7.12169e-07 5.45905e-24 0)
(1.3867e-06 3.62906e-09 -8.45944e-23 -7.01836e-07 -4.01325e-22 0)
(1.35797e-06 1.81938e-08 1.31312e-22 -6.95288e-07 -9.95578e-23 0)
(1.47844e-06 -1.00282e-06 4.18422e-21 -2.87601e-07 -8.33511e-22 8.99397e-36)
(1.55273e-06 -5.90392e-07 8.89349e-22 -4.92377e-07 6.63033e-22 0)
(1.55149e-06 -3.40816e-07 6.67985e-22 -5.61272e-07 6.18961e-22 0)
(1.53514e-06 -1.84358e-07 3.87856e-22 -6.16744e-07 2.70084e-22 0)
(1.50655e-06 -8.30549e-08 2.80208e-21 -6.37514e-07 1.67726e-21 0)
(1.47338e-06 -1.85198e-08 -2.10824e-23 -6.4959e-07 -4.84406e-23 0)
(1.43882e-06 2.40533e-08 -1.00368e-23 -6.49938e-07 4.72527e-23 0)
(1.40441e-06 5.07571e-08 -2.65634e-23 -6.47327e-07 4.70894e-23 0)
(1.37026e-06 6.84064e-08 6.10208e-22 -6.37659e-07 3.02842e-22 0)
(1.33801e-06 8.13234e-08 -5.73738e-23 -6.33352e-07 -1.2256e-22 0)
(1.79138e-06 -9.96366e-07 -3.15807e-21 -4.47589e-07 8.10075e-23 -9.53989e-44)
(1.72919e-06 -5.57787e-07 1.43341e-21 -5.45193e-07 5.83759e-22 0)
(1.64856e-06 -2.96242e-07 1.17843e-21 -5.52674e-07 5.7482e-22 0)
(1.58142e-06 -1.34205e-07 1.2263e-21 -5.74082e-07 6.34094e-22 0)
(1.52099e-06 -3.12686e-08 -7.36792e-22 -5.75235e-07 -3.90625e-22 0)
(1.46738e-06 3.28837e-08 1.05271e-21 -5.77609e-07 4.75135e-22 0)
(1.41974e-06 7.38478e-08 3.32756e-22 -5.73522e-07 2.00903e-22 0)
(1.37711e-06 9.86691e-08 -6.49201e-22 -5.70178e-07 -2.39325e-22 0)
(1.33783e-06 1.13679e-07 1.50024e-21 -5.61859e-07 5.80439e-22 0)
(1.30279e-06 1.24817e-07 1.39884e-22 -5.597e-07 -1.70318e-23 0)
(2.09284e-06 -9.27143e-07 -4.58145e-23 -6.15351e-07 -3.5928e-25 2.0609e-39)
(1.89204e-06 -4.99723e-07 -3.73991e-22 -5.99979e-07 -1.13268e-22 0)
(1.73141e-06 -2.47262e-07 1.84983e-21 -5.43188e-07 7.98866e-22 0)
(1.61376e-06 -9.2069e-08 4.84857e-22 -5.28719e-07 1.44656e-22 0)
(1.5221e-06 5.24996e-09 -6.88524e-22 -5.09348e-07 -2.7134e-22 0)
(1.44888e-06 6.4994e-08 -1.74846e-21 -5.01486e-07 -8.53976e-22 0)
(1.38906e-06 1.02219e-07 1.44031e-23 -4.92823e-07 -2.39815e-22 0)
(1.3391e-06 1.24209e-07 -9.27059e-23 -4.88609e-07 3.01253e-22 0)
(1.29571e-06 1.36402e-07 4.76833e-22 -4.81963e-07 3.6615e-22 0)
(1.25857e-06 1.45616e-07 1.22386e-21 -4.81691e-07 5.01976e-22 0)
(2.36325e-06 -7.96872e-07 1.1918e-21 -7.74615e-07 -1.54892e-22 -3.68293e-37)
(2.03347e-06 -4.17679e-07 -6.49437e-22 -6.51606e-07 9.21146e-23 0)
(1.7988e-06 -1.95123e-07 5.44833e-22 -5.3387e-07 4.03681e-22 0)
(1.63484e-06 -5.90272e-08 1.68567e-22 -4.85249e-07 -1.18645e-22 0)
(1.51483e-06 2.55616e-08 9.78405e-22 -4.4643e-07 1.83506e-22 0)
(1.42406e-06 7.69539e-08 -3.75107e-23 -4.28817e-07 -1.58447e-22 0)
(1.35363e-06 1.084e-07 2.91784e-22 -4.15875e-07 4.7303e-22 0)
(1.29743e-06 1.26648e-07 1.01622e-21 -4.10775e-07 8.05535e-22 0)
(1.25093e-06 1.36e-07 -4.86137e-22 -4.059e-07 -2.43058e-22 0)
(1.21218e-06 1.43256e-07 1.39797e-22 -4.07166e-07 -2.58738e-22 0)
(2.58441e-06 -6.12499e-07 0 -9.09938e-07 0 0)
(2.14653e-06 -3.14819e-07 3.13803e-21 -6.95282e-07 9.50592e-22 0)
(1.85002e-06 -1.40819e-07 -3.31003e-21 -5.25817e-07 -9.06844e-22 0)
(1.64761e-06 -3.47731e-08 -1.25531e-22 -4.4813e-07 -2.07332e-22 0)
(1.50421e-06 3.07496e-08 -3.15348e-22 -3.92806e-07 3.28937e-23 0)
(1.39913e-06 7.02849e-08 1.63838e-21 -3.66887e-07 6.13566e-22 0)
(1.32018e-06 9.41685e-08 5.76285e-22 -3.5034e-07 2.21861e-22 0)
(1.25906e-06 1.07863e-07 -7.94721e-22 -3.44442e-07 -1.47884e-22 0)
(1.21034e-06 1.1444e-07 3.36443e-23 -3.41176e-07 -1.41719e-22 0)
(1.17041e-06 1.19687e-07 -3.79968e-22 -3.43595e-07 -3.11314e-22 0)
(2.74103e-06 -3.85754e-07 2.14504e-21 -1.0082e-06 2.18282e-22 9.90048e-37)
(2.22531e-06 -1.9594e-07 -1.76251e-22 -7.26938e-07 -3.53185e-22 0)
(1.88438e-06 -8.51933e-08 -1.10186e-21 -5.19927e-07 -2.20088e-22 0)
(1.65444e-06 -1.78098e-08 9.19126e-22 -4.21115e-07 2.92149e-22 0)
(1.49437e-06 2.36782e-08 -3.69413e-22 -3.53812e-07 -8.46313e-23 0)
(1.37915e-06 4.86115e-08 -9.43377e-22 -3.21854e-07 -1.35437e-22 0)
(1.29426e-06 6.35543e-08 6.08377e-25 -3.02706e-07 -2.23187e-22 0)
(1.22974e-06 7.20616e-08 -1.11189e-23 -2.96211e-07 1.3347e-22 0)
(1.17961e-06 7.59701e-08 -1.00671e-23 -2.94168e-07 7.28396e-23 0)
(1.13891e-06 7.91598e-08 -3.86804e-22 -2.97368e-07 -2.44655e-22 0)
(2.82192e-06 -1.31827e-07 -1.80385e-21 -1.0595e-06 3.21068e-22 5.88763e-37)
(2.26558e-06 -6.66641e-08 -1.46415e-21 -7.42891e-07 -4.91999e-22 0)
(1.90135e-06 -2.86187e-08 1.12021e-21 -5.15791e-07 3.59135e-22 0)
(1.65699e-06 -5.46685e-09 -1.75021e-21 -4.05662e-07 -2.26537e-22 0)
(1.4882e-06 8.77385e-09 7.06362e-22 -3.31933e-07 -2.19723e-22 0)
(1.36771e-06 1.73227e-08 -3.09513e-22 -2.96739e-07 4.7233e-23 0)
(1.27973e-06 2.24302e-08 -6.0928e-26 -2.76206e-07 2.26946e-22 0)
(1.21348e-06 2.53318e-08 -2.49635e-22 -2.69404e-07 1.34879e-22 0)
(1.16266e-06 2.66395e-08 -8.75526e-22 -2.68039e-07 -3.66986e-22 0)
(1.12162e-06 2.77194e-08 4.33691e-22 -2.71695e-07 3.22186e-23 0)
(3.82752e-07 3.46254e-08 -2.48144e-22 -1.0332e-06 1.12329e-21 -1.41243e-36)
(2.55965e-07 -1.54796e-08 3.68972e-22 -6.83228e-07 5.2822e-22 0)
(1.95458e-07 -4.10184e-08 4.87047e-24 -4.7615e-07 -2.37955e-22 0)
(2.06678e-07 -5.46717e-08 -1.95605e-23 -3.57413e-07 1.68709e-22 0)
(2.36043e-07 -6.10396e-08 -2.22169e-22 -2.88941e-07 -1.53371e-22 0)
(2.82079e-07 -6.32769e-08 2.94112e-22 -2.5058e-07 1.2135e-22 0)
(3.30159e-07 -6.31111e-08 4.12159e-23 -2.30283e-07 4.93712e-23 0)
(3.80069e-07 -6.1662e-08 -5.44694e-23 -2.206e-07 9.03358e-23 0)
(4.26775e-07 -5.91988e-08 2.92936e-22 -2.17531e-07 7.91781e-23 0)
(4.71416e-07 -5.74039e-08 -2.72052e-23 -2.16648e-07 -3.91527e-23 0)
(3.62397e-07 9.62925e-08 1.37198e-23 -9.82473e-07 4.90954e-23 -8.17802e-39)
(2.66186e-07 -4.85688e-08 -6.48835e-22 -6.68476e-07 -9.2884e-22 0)
(2.22101e-07 -1.22002e-07 4.94605e-22 -4.80964e-07 4.87516e-22 0)
(2.41581e-07 -1.60999e-07 3.59084e-22 -3.73694e-07 2.59917e-22 0)
(2.74839e-07 -1.79026e-07 -9.14395e-23 -3.11485e-07 -1.19044e-22 0)
(3.22014e-07 -1.8516e-07 -9.78944e-22 -2.76396e-07 -3.61443e-22 0)
(3.69707e-07 -1.84412e-07 -1.61574e-23 -2.57486e-07 -1.36677e-25 0)
(4.18451e-07 -1.79978e-07 -1.65255e-22 -2.48142e-07 -1.00533e-22 0)
(4.63158e-07 -1.72677e-07 1.03669e-22 -2.44513e-07 -5.03748e-24 0)
(5.06404e-07 -1.67312e-07 2.57258e-22 -2.43081e-07 -2.11144e-23 0)
(3.23928e-07 1.3749e-07 -2.01005e-22 -8.84882e-07 -9.30445e-22 -5.64555e-37)
(2.85192e-07 -8.61349e-08 -4.94737e-22 -6.39858e-07 -4.35162e-22 0)
(2.70925e-07 -1.98834e-07 7.70169e-22 -4.89229e-07 2.01682e-22 0)
(3.05527e-07 -2.5821e-07 1.66435e-22 -4.0362e-07 1.87306e-22 0)
(3.45766e-07 -2.85242e-07 4.50974e-22 -3.53188e-07 2.11773e-22 0)
(3.94932e-07 -2.93945e-07 -4.3936e-22 -3.24277e-07 -2.19712e-22 0)
(4.41815e-07 -2.92118e-07 -7.12093e-22 -3.07996e-07 -2.04622e-22 0)
(4.88341e-07 -2.84603e-07 -2.42588e-22 -2.99314e-07 -5.48854e-23 0)
(5.29294e-07 -2.72842e-07 1.22496e-23 -2.9467e-07 -1.02496e-24 0)
(5.69996e-07 -2.6403e-07 3.49773e-22 -2.92278e-07 1.56404e-22 0)
(2.76619e-07 1.47816e-07 -7.22093e-22 -7.50496e-07 -1.02429e-23 3.33745e-36)
(3.16003e-07 -1.29731e-07 3.27069e-22 -6.00485e-07 -4.47993e-22 0)
(3.42012e-07 -2.68403e-07 -1.9541e-21 -5.005e-07 -1.49761e-21 0)
(3.96828e-07 -3.40691e-07 -4.41493e-22 -4.44698e-07 2.8959e-23 0)
(4.46215e-07 -3.72713e-07 -2.68023e-23 -4.10448e-07 5.75764e-23 0)
(4.97739e-07 -3.82016e-07 5.79992e-22 -3.90045e-07 2.60985e-22 0)
(5.43229e-07 -3.78385e-07 -1.60096e-22 -3.77408e-07 -8.5933e-25 0)
(5.86427e-07 -3.67684e-07 4.85921e-22 -3.69634e-07 3.26986e-22 0)
(6.22083e-07 -3.52065e-07 -8.6263e-22 -3.63668e-07 -1.6606e-22 0)
(6.59039e-07 -3.40039e-07 7.76097e-22 -3.59911e-07 1.18305e-22 0)
(2.31504e-07 1.19734e-07 1.95131e-22 -5.92787e-07 -7.09281e-22 -1.46296e-37)
(3.6073e-07 -1.80546e-07 1.63015e-21 -5.54453e-07 1.50258e-21 0)
(4.32777e-07 -3.28473e-07 -1.55254e-21 -5.13928e-07 -1.0407e-21 0)
(5.10269e-07 -4.04258e-07 -7.2604e-22 -4.93209e-07 -3.93134e-22 0)
(5.69585e-07 -4.36241e-07 6.40362e-22 -4.77979e-07 2.70394e-22 0)
(6.23181e-07 -4.43698e-07 8.58951e-22 -4.67597e-07 3.52957e-22 0)
(6.66512e-07 -4.3738e-07 4.88396e-22 -4.59279e-07 3.16665e-22 0)
(7.05277e-07 -4.23414e-07 8.62464e-22 -4.52562e-07 2.62944e-22 0)
(7.34446e-07 -4.04691e-07 -1.91162e-22 -4.45141e-07 -2.11001e-22 0)
(7.66489e-07 -3.89811e-07 -1.1772e-21 -4.39678e-07 -1.17497e-22 0)
(2.01286e-07 5.02134e-08 -1.90751e-23 -4.27325e-07 4.67492e-23 -3.11591e-40)
(4.21689e-07 -2.38498e-07 1.02476e-21 -5.06332e-07 5.13655e-22 0)
(5.39959e-07 -3.7731e-07 8.31702e-22 -5.28108e-07 7.48793e-22 0)
(6.39497e-07 -4.46264e-07 -4.0816e-22 -5.44323e-07 -2.73964e-22 0)
(7.07902e-07 -4.72709e-07 -7.48214e-22 -5.49087e-07 -3.30642e-22 0)
(7.62524e-07 -4.75683e-07 -4.72133e-22 -5.49282e-07 -1.88557e-22 0)
(8.02724e-07 -4.65732e-07 7.61667e-22 -5.4559e-07 3.88732e-22 0)
(8.35975e-07 -4.48478e-07 -9.12496e-22 -5.39983e-07 -4.89849e-22 0)
(8.57873e-07 -4.27441e-07 1.51572e-21 -5.31234e-07 4.60662e-22 0)
(8.83931e-07 -4.10178e-07 5.17241e-23 -5.2385e-07 -2.09522e-22 0)
(1.98907e-07 -5.89457e-08 8.93028e-22 -2.70527e-07 -1.63764e-21 -9.5877e-38)
(5.01097e-07 -3.02246e-07 -2.82696e-21 -4.61124e-07 -1.55017e-21 0)
(6.60007e-07 -4.13833e-07 9.65678e-22 -5.41839e-07 6.48778e-22 0)
(7.77769e-07 -4.65806e-07 -8.83264e-23 -5.93251e-07 2.50852e-22 0)
(8.5275e-07 -4.81349e-07 4.16571e-22 -6.16995e-07 1.99415e-22 0)
(9.06592e-07 -4.77342e-07 -1.73497e-22 -6.27312e-07 -6.45282e-23 0)
(9.42493e-07 -4.62905e-07 -1.06259e-21 -6.28085e-07 -4.4918e-22 0)
(9.69223e-07 -4.42479e-07 6.1303e-22 -6.23594e-07 2.70735e-22 0)
(9.83505e-07 -4.19927e-07 -5.57595e-22 -6.13783e-07 -2.44707e-22 0)
(1.00266e-06 -4.00794e-07 1.16249e-21 -6.04537e-07 2.90597e-22 0)
(2.35943e-07 -2.01193e-07 -3.32697e-22 -1.37862e-07 4.7844e-22 1.42745e-38)
(6.00495e-07 -3.69126e-07 -9.22142e-22 -4.23509e-07 -1.08028e-21 0)
(7.8902e-07 -4.37517e-07 -1.3558e-21 -5.53908e-07 -1.29757e-21 0)
(9.18157e-07 -4.63595e-07 5.0355e-22 -6.35342e-07 2.46573e-22 0)
(9.95574e-07 -4.63574e-07 1.34198e-21 -6.7516e-07 6.55894e-22 0)
(1.04606e-06 -4.50475e-07 1.22239e-21 -6.94121e-07 5.96395e-22 0)
(1.07626e-06 -4.3089e-07 -1.90467e-22 -6.98846e-07 3.63003e-23 0)
(1.09548e-06 -4.07554e-07 7.01435e-22 -6.95297e-07 2.97506e-22 0)
(1.10227e-06 -3.84192e-07 -6.89842e-22 -6.85195e-07 -4.95222e-22 0)
(1.11368e-06 -3.63659e-07 2.44982e-22 -6.74151e-07 2.37075e-22 0)
(3.21296e-07 -3.65782e-07 9.59259e-22 -4.24447e-08 1.29172e-21 -3.44282e-36)
(7.20585e-07 -4.35346e-07 1.3255e-21 -3.97551e-07 1.69425e-21 0)
(9.23304e-07 -4.4839e-07 1.4097e-21 -5.63419e-07 3.9545e-22 0)
(1.0546e-06 -4.4189e-07 2.04514e-22 -6.66818e-07 -2.12482e-22 0)
(1.12914e-06 -4.22906e-07 4.26149e-23 -7.18149e-07 -6.29376e-23 0)
(1.17324e-06 -3.99393e-07 -3.08669e-23 -7.43484e-07 -8.85989e-24 0)
(1.19626e-06 -3.74371e-07 1.1153e-21 -7.51037e-07 5.8953e-22 0)
(1.20718e-06 -3.48884e-07 -1.48927e-21 -7.48461e-07 -9.65189e-22 0)
(1.20698e-06 -3.25429e-07 1.37631e-21 -7.38358e-07 5.6972e-22 0)
(1.21017e-06 -3.04213e-07 1.48131e-22 -7.27208e-07 7.84887e-23 0)
(4.59905e-07 -5.388e-07 1.43769e-21 6.31129e-09 -2.4022e-21 -3.92202e-36)
(8.60581e-07 -4.96308e-07 1.41051e-21 -3.86132e-07 6.95449e-22 0)
(1.05893e-06 -4.47e-07 1.88613e-21 -5.69676e-07 9.47632e-22 0)
(1.18142e-06 -4.04177e-07 9.07933e-22 -6.84806e-07 7.11315e-22 0)
(1.24666e-06 -3.64469e-07 -1.43411e-21 -7.41852e-07 -7.95848e-22 0)
(1.28071e-06 -3.29924e-07 -1.28689e-21 -7.70382e-07 -7.06091e-22 0)
(1.29444e-06 -2.99543e-07 3.3778e-23 -7.79283e-07 -2.00414e-23 0)
(1.29579e-06 -2.72461e-07 -6.76698e-22 -7.76571e-07 -3.87648e-22 0)
(1.28908e-06 -2.50112e-07 7.03604e-22 -7.6794e-07 6.4713e-22 0)
(1.2813e-06 -2.2896e-07 9.58224e-22 -7.53588e-07 2.18913e-22 0)
(5.13028e-07 -5.30341e-08 1.42284e-22 -2.21285e-07 -5.19173e-25 0)
(5.49659e-07 -4.74277e-08 2.64539e-22 -2.22662e-07 -7.97941e-23 0)
(5.83001e-07 -4.29625e-08 1.42529e-23 -2.24941e-07 -1.8696e-25 0)
(6.13457e-07 -3.88466e-08 -2.2594e-22 -2.26554e-07 -1.21968e-22 0)
(6.40671e-07 -3.518e-08 -9.0086e-22 -2.27202e-07 -4.16547e-23 0)
(6.65154e-07 -3.19328e-08 -1.37104e-22 -2.26796e-07 1.64365e-22 0)
(6.86895e-07 -2.90124e-08 7.97205e-22 -2.25016e-07 8.49445e-23 0)
(7.06119e-07 -2.64032e-08 -7.9979e-22 -2.21803e-07 -4.48063e-23 0)
(7.22911e-07 -2.40346e-08 7.09156e-23 -2.16959e-07 2.40142e-22 0)
(7.37372e-07 -2.1875e-08 4.389e-22 -2.10372e-07 8.16142e-23 0)
(7.49535e-07 -1.98728e-08 7.45901e-23 -2.01862e-07 2.25981e-22 0)
(7.59438e-07 -1.79898e-08 8.68822e-22 -1.91255e-07 8.21773e-23 0)
(7.66977e-07 -1.61826e-08 7.96152e-22 -1.78323e-07 -1.55884e-22 0)
(7.72197e-07 -1.44078e-08 -8.64433e-22 -1.62806e-07 -7.58504e-23 0)
(7.74693e-07 -1.26231e-08 -1.28388e-21 -1.44375e-07 2.22299e-24 0)
(7.74759e-07 -1.07743e-08 6.79861e-22 -1.2265e-07 1.08641e-22 0)
(7.71125e-07 -8.8188e-09 -1.68663e-23 -9.71359e-08 -3.74515e-23 0)
(7.65331e-07 -6.66551e-09 4.73458e-22 -6.73034e-08 9.13781e-23 0)
(7.53132e-07 -4.32724e-09 3.96153e-22 -3.23118e-08 -3.86857e-24 0)
(7.4138e-07 -1.40798e-09 9.88442e-23 8.22908e-09 1.02821e-23 -1.09055e-37)
(5.44163e-07 -1.54581e-07 4.04466e-24 -2.45376e-07 4.45279e-24 0)
(5.75642e-07 -1.38513e-07 -3.81999e-22 -2.43385e-07 -4.24926e-23 0)
(6.05166e-07 -1.2566e-07 1.97478e-22 -2.42866e-07 4.40229e-23 0)
(6.32165e-07 -1.13818e-07 6.33315e-22 -2.42119e-07 2.16142e-22 0)
(6.56577e-07 -1.03223e-07 -3.70158e-22 -2.40701e-07 -1.39493e-24 0)
(6.78629e-07 -9.38321e-08 -5.42157e-22 -2.38578e-07 -1.76382e-22 0)
(6.98356e-07 -8.53575e-08 3.63596e-22 -2.35327e-07 1.7428e-22 0)
(7.15852e-07 -7.77737e-08 9.38713e-23 -2.30886e-07 8.4934e-23 0)
(7.31195e-07 -7.0871e-08 -8.40331e-22 -2.25009e-07 -2.62768e-22 0)
(7.4442e-07 -6.4565e-08 -5.00982e-22 -2.17567e-07 -9.20989e-23 0)
(7.55541e-07 -5.87059e-08 -1.11267e-23 -2.08357e-07 -3.13218e-25 0)
(7.64562e-07 -5.31843e-08 1.53657e-21 -1.97188e-07 1.28646e-22 0)
(7.71365e-07 -4.78741e-08 7.07645e-23 -1.83822e-07 7.02937e-23 0)
(7.75974e-07 -4.26489e-08 -3.58728e-22 -1.67991e-07 7.39575e-23 0)
(7.77978e-07 -3.73851e-08 -7.7962e-23 -1.49362e-07 -8.59381e-23 0)
(7.77662e-07 -3.19226e-08 -8.31355e-23 -1.27557e-07 -7.44947e-23 0)
(7.73761e-07 -2.61369e-08 -2.96991e-22 -1.02084e-07 6.67414e-23 0)
(7.67804e-07 -1.97571e-08 -2.15012e-22 -7.24251e-08 -1.95995e-23 0)
(7.55589e-07 -1.28254e-08 1.19682e-21 -3.77627e-08 1.63634e-22 0)
(7.43921e-07 -4.17287e-09 3.07834e-22 2.2744e-09 7.73886e-23 -1.01717e-36)
(6.00519e-07 -2.44388e-07 2.22704e-22 -2.90258e-07 -4.7187e-23 0)
(6.22661e-07 -2.20136e-07 4.82013e-22 -2.82118e-07 1.48729e-22 0)
(6.45215e-07 -2.00358e-07 -1.23179e-21 -2.76358e-07 -1.06236e-22 0)
(6.65942e-07 -1.82162e-07 1.33069e-22 -2.71256e-07 9.86353e-23 0)
(6.85284e-07 -1.65655e-07 6.76437e-22 -2.65991e-07 -3.82475e-23 0)
(7.02927e-07 -1.50996e-07 -1.04177e-21 -2.60673e-07 -6.40134e-23 0)
(7.19014e-07 -1.37658e-07 -5.55512e-22 -2.5468e-07 -1.02046e-22 0)
(7.33379e-07 -1.2568e-07 1.25424e-21 -2.47949e-07 8.10917e-23 0)
(7.46104e-07 -1.14722e-07 7.10645e-22 -2.40149e-07 -5.94597e-23 0)
(7.57094e-07 -1.04673e-07 -9.29006e-22 -2.31115e-07 -1.22401e-22 0)
(7.66338e-07 -9.53019e-08 -1.06369e-21 -2.20605e-07 -2.10614e-22 0)
(7.73775e-07 -8.64413e-08 4.23078e-22 -2.084e-07 2.57057e-23 0)
(7.79262e-07 -7.78934e-08 7.31094e-22 -1.9424e-07 1.19351e-22 0)
(7.82789e-07 -6.94575e-08 2.53611e-23 -1.77843e-07 -1.20302e-22 0)
(7.83935e-07 -6.09364e-08 4.74689e-23 -1.58873e-07 3.13149e-23 0)
(7.82966e-07 -5.20701e-08 -1.06068e-21 -1.36952e-07 -1.1646e-22 0)
(7.78635e-07 -4.26589e-08 -5.23411e-22 -1.11601e-07 -1.5801e-23 0)
(7.72443e-07 -3.2259e-08 -1.93679e-22 -8.23184e-08 -8.28862e-23 0)
(7.60282e-07 -2.09434e-08 4.11391e-22 -4.83294e-08 7.14754e-23 0)
(7.48829e-07 -6.82184e-09 3.7492e-22 -9.28629e-09 1.63528e-22 -1.62932e-36)
(6.7976e-07 -3.15736e-07 2.35279e-22 -3.52175e-07 7.7494e-23 0)
(6.89072e-07 -2.86913e-07 -2.1552e-22 -3.36151e-07 -3.04935e-24 0)
(7.02082e-07 -2.62473e-07 1.19396e-22 -3.23295e-07 -1.02118e-22 0)
(7.14052e-07 -2.4009e-07 -1.64217e-23 -3.12353e-07 -1.07577e-22 0)
(7.26337e-07 -2.19266e-07 8.42561e-23 -3.01832e-07 -4.84589e-23 0)
(7.37764e-07 -2.00715e-07 -2.98516e-22 -2.92121e-07 -5.94245e-23 0)
(7.48716e-07 -1.8361e-07 -3.74299e-22 -2.82335e-07 -1.11457e-22 0)
(7.58633e-07 -1.68159e-07 -1.75767e-22 -2.72405e-07 -1.01058e-22 0)
(7.67627e-07 -1.53909e-07 7.65148e-23 -2.61907e-07 4.89031e-23 0)
(7.75419e-07 -1.40765e-07 3.27729e-22 -2.50623e-07 1.90386e-22 0)
(7.81967e-07 -1.28436e-07 -5.71187e-22 -2.38264e-07 -1.21558e-22 0)
(7.8712e-07 -1.16716e-07 3.64973e-22 -2.24575e-07 1.05435e-22 0)
(7.90703e-07 -1.05356e-07 8.56789e-22 -2.09271e-07 8.3087e-23 0)
(7.9266e-07 -9.40937e-08 -3.46263e-22 -1.92055e-07 -1.00052e-22 0)
(7.92559e-07 -8.26698e-08 -7.92353e-22 -1.72587e-07 -7.6001e-23 0)
(7.90638e-07 -7.07353e-08 -4.95858e-22 -1.50495e-07 -9.57859e-23 0)
(7.85679e-07 -5.80239e-08 3.51652e-22 -1.25319e-07 -1.82684e-23 0)
(7.79141e-07 -4.39295e-08 4.24419e-22 -9.65843e-08 8.56343e-23 0)
(7.67061e-07 -2.85497e-08 1.15398e-22 -6.35821e-08 1.83783e-23 0)
(7.55921e-07 -9.32927e-09 -2.58448e-22 -2.59978e-08 -1.58244e-22 -8.24469e-37)
(7.75943e-07 -3.63576e-07 4.52692e-22 -4.25543e-07 -7.89059e-23 0)
(7.7031e-07 -3.34668e-07 2.14576e-22 -4.0123e-07 -2.8339e-22 0)
(7.72198e-07 -3.08407e-07 -4.86576e-22 -3.80196e-07 8.46568e-23 0)
(7.7366e-07 -2.84574e-07 -2.20697e-22 -3.62547e-07 -8.88581e-24 0)
(7.7749e-07 -2.61479e-07 7.67638e-22 -3.4584e-07 9.19185e-23 0)
(7.8133e-07 -2.40775e-07 -4.32761e-22 -3.3087e-07 1.3815e-22 0)
(7.85994e-07 -2.21304e-07 -4.73339e-22 -3.16515e-07 -1.28173e-22 0)
(7.90419e-07 -2.03536e-07 3.91078e-22 -3.02686e-07 -7.44429e-23 0)
(7.9478e-07 -1.86962e-07 -1.89171e-22 -2.88888e-07 8.0568e-23 0)
(7.98587e-07 -1.71536e-07 -1.11178e-23 -2.74838e-07 8.84354e-23 0)
(8.01757e-07 -1.56947e-07 -4.23756e-22 -2.60205e-07 -3.90883e-23 0)
(8.04041e-07 -1.42978e-07 -4.90139e-22 -2.44686e-07 -2.44749e-22 0)
(8.05221e-07 -1.29349e-07 1.48298e-21 -2.27976e-07 1.80013e-22 0)
(8.05191e-07 -1.15754e-07 1.763e-22 -2.09757e-07 8.6483e-23 0)
(8.03503e-07 -1.01888e-07 -2.93171e-22 -1.89689e-07 -7.32902e-23 0)
(8.00363e-07 -8.73262e-08 2.23773e-22 -1.67407e-07 4.16914e-23 0)
(7.94597e-07 -7.1747e-08 -9.74689e-22 -1.42485e-07 -2.3815e-22 0)
(7.87609e-07 -5.43983e-08 4.0465e-22 -1.14482e-07 1.23414e-22 0)
(7.75632e-07 -3.53985e-08 -1.86465e-22 -8.27787e-08 -5.21706e-23 0)
(7.64884e-07 -1.16123e-08 8.70224e-23 -4.71105e-08 2.83179e-23 1.32865e-40)
(8.81842e-07 -3.84785e-07 -2.1085e-22 -5.03489e-07 -2.71535e-22 0)
(8.60763e-07 -3.60595e-07 -3.27758e-22 -4.7215e-07 2.08572e-22 0)
(8.51183e-07 -3.35564e-07 -3.29005e-22 -4.43068e-07 1.00661e-22 0)
(8.41323e-07 -3.13285e-07 -2.47814e-22 -4.1876e-07 -2.64883e-22 0)
(8.3604e-07 -2.90276e-07 5.43037e-22 -3.9576e-07 3.96995e-22 0)
(8.31506e-07 -2.69399e-07 5.63955e-22 -3.75237e-07 1.01752e-22 0)
(8.29161e-07 -2.49237e-07 8.87109e-22 -3.56007e-07 6.5698e-23 0)
(8.27402e-07 -2.3053e-07 -1.12092e-21 -3.37908e-07 -1.97906e-22 0)
(8.26484e-07 -2.12811e-07 -7.40493e-22 -3.20445e-07 -1.56483e-23 0)
(8.25718e-07 -1.96088e-07 -8.10892e-23 -3.03264e-07 -1.95978e-22 0)
(8.24976e-07 -1.8009e-07 1.06231e-21 -2.86014e-07 1.18896e-22 0)
(8.23919e-07 -1.64604e-07 -2.02937e-22 -2.68359e-07 -1.8602e-22 0)
(8.22281e-07 -1.49353e-07 -6.29334e-22 -2.49979e-07 -9.05325e-23 0)
(8.19907e-07 -1.34005e-07 2.92569e-22 -2.30549e-07 1.4234e-22 0)
(8.16338e-07 -1.18233e-07 -4.15703e-22 -2.09735e-07 -7.822e-23 0)
(8.11747e-07 -1.01552e-07 -2.21907e-22 -1.87192e-07 -4.84191e-23 0)
(8.05015e-07 -8.36006e-08 -8.80329e-23 -1.62537e-07 -3.58448e-23 0)
(7.97483e-07 -6.35e-08 4.5478e-22 -1.35383e-07 1.20186e-22 0)
(7.85639e-07 -4.13864e-08 5.53541e-22 -1.05227e-07 1.82599e-22 0)
(7.75378e-07 -1.36394e-08 -4.35911e-22 -7.18803e-08 -2.95762e-22 -1.33163e-36)
(9.89936e-07 -3.78889e-07 -9.23292e-23 -5.78773e-07 8.61123e-23 0)
(9.5448e-07 -3.6417e-07 1.87308e-22 -5.42759e-07 1.04318e-22 0)
(9.34284e-07 -3.43435e-07 9.59879e-22 -5.0677e-07 1.21328e-22 0)
(9.13207e-07 -3.25555e-07 -1.52648e-21 -4.763e-07 -3.06786e-22 0)
(8.98818e-07 -3.05069e-07 -1.05819e-22 -4.47446e-07 1.18085e-22 0)
(8.85729e-07 -2.85914e-07 1.02584e-22 -4.21416e-07 -1.12171e-22 0)
(8.76066e-07 -2.66729e-07 1.08499e-21 -3.97328e-07 3.44849e-22 0)
(8.67819e-07 -2.48411e-07 4.33909e-22 -3.74882e-07 4.50561e-23 0)
(8.61272e-07 -2.30697e-07 -5.97166e-22 -3.53671e-07 -2.76968e-22 0)
(8.55614e-07 -2.13648e-07 -2.62342e-22 -3.33278e-07 -1.30865e-22 0)
(8.50641e-07 -1.97093e-07 -4.24474e-22 -3.13344e-07 -5.57704e-23 0)
(8.4595e-07 -1.80843e-07 1.12402e-22 -2.93504e-07 5.82055e-23 0)
(8.41224e-07 -1.6465e-07 3.66392e-22 -2.73426e-07 1.72526e-22 0)
(8.36264e-07 -1.48178e-07 0 -2.52782e-07 0 0)
(8.30604e-07 -1.3109e-07 7.76649e-23 -2.31253e-07 -6.37945e-23 0)
(8.24386e-07 -1.12863e-07 4.24589e-22 -2.08522e-07 1.04181e-22 0)
(8.16568e-07 -9.31085e-08 -2.05913e-22 -1.84263e-07 -3.15634e-23 0)
(8.0841e-07 -7.08488e-08 -7.63446e-22 -1.58154e-07 -2.69635e-22 0)
(7.96712e-07 -4.62383e-08 6.47366e-22 -1.29827e-07 2.34028e-22 0)
(7.86967e-07 -1.53058e-08 -1.96862e-22 -9.91861e-08 -1.74493e-22 -3.86307e-37)
(1.09224e-06 -3.46685e-07 9.20554e-22 -6.45055e-07 1.14772e-22 0)
(1.04511e-06 -3.45143e-07 -7.32124e-22 -6.08076e-07 -1.59655e-22 0)
(1.01654e-06 -3.31674e-07 6.6208e-22 -5.68547e-07 3.17455e-22 0)
(9.85623e-07 -3.20532e-07 2.17276e-22 -5.3354e-07 9.84395e-23 0)
(9.62871e-07 -3.05187e-07 -1.69277e-21 -5.00412e-07 -6.26796e-22 0)
(9.41832e-07 -2.89723e-07 3.95406e-22 -4.69748e-07 1.77782e-22 0)
(9.24994e-07 -2.73407e-07 4.45539e-22 -4.41358e-07 5.66589e-23 0)
(9.10339e-07 -2.57027e-07 1.59483e-21 -4.14821e-07 4.37255e-22 0)
(8.98049e-07 -2.40659e-07 -4.16571e-22 -3.89892e-07 -5.55047e-23 0)
(8.87348e-07 -2.24404e-07 -1.16393e-22 -3.66178e-07 8.88716e-23 0)
(8.77944e-07 -2.08236e-07 1.1303e-22 -3.43361e-07 -7.99941e-23 0)
(8.69416e-07 -1.92025e-07 -1.11631e-22 -3.21097e-07 7.00317e-23 0)
(8.61398e-07 -1.75586e-07 1.29531e-22 -2.99073e-07 1.80765e-22 0)
(8.53666e-07 -1.58608e-07 1.49232e-21 -2.7698e-07 3.76362e-22 0)
(8.45752e-07 -1.40773e-07 -6.35427e-22 -2.54535e-07 -2.0395e-22 0)
(8.3777e-07 -1.2154e-07 -1.22137e-21 -2.3146e-07 -3.27841e-22 0)
(8.2877e-07 -1.00516e-07 1.00163e-21 -2.07502e-07 3.34864e-22 0)
(8.19928e-07 -7.6645e-08 1.95143e-22 -1.82423e-07 6.02923e-23 0)
(8.08406e-07 -5.01028e-08 -5.75531e-22 -1.5602e-07 -2.288e-22 0)
(7.99277e-07 -1.66601e-08 1.71933e-22 -1.28331e-07 1.03619e-22 -2.03458e-39)
(1.18327e-06 -2.9417e-07 -8.48819e-22 -6.96226e-07 -3.3502e-22 0)
(1.12749e-06 -3.07654e-07 -3.00434e-22 -6.59608e-07 6.16723e-23 0)
(1.09294e-06 -3.04628e-07 2.7022e-22 -6.20224e-07 -6.8006e-23 0)
(1.05453e-06 -3.01036e-07 9.6618e-22 -5.82054e-07 1.89877e-22 0)
(1.02435e-06 -2.92558e-07 -6.77682e-22 -5.46035e-07 -1.26754e-22 0)
(9.96536e-07 -2.81818e-07 -5.06567e-22 -5.11798e-07 4.97444e-23 0)
(9.73114e-07 -2.694e-07 0 -4.79952e-07 0 0)
(9.52608e-07 -2.55885e-07 7.98309e-22 -4.50137e-07 2.45677e-22 0)
(9.3493e-07 -2.41731e-07 1.16306e-21 -4.22207e-07 4.11179e-22 0)
(9.1944e-07 -2.27114e-07 4.23763e-22 -3.95832e-07 6.74482e-23 0)
(9.05753e-07 -2.12136e-07 -7.41248e-22 -3.70709e-07 -2.26994e-22 0)
(8.9346e-07 -1.96732e-07 -1.26249e-21 -3.46523e-07 -2.31903e-22 0)
(8.82166e-07 -1.80771e-07 -6.2083e-22 -3.22984e-07 -2.90376e-22 0)
(8.71635e-07 -1.63979e-07 1.19329e-21 -2.99817e-07 2.68312e-22 0)
(8.6142e-07 -1.46059e-07 1.32416e-21 -2.76786e-07 4.51524e-22 0)
(8.51615e-07 -1.26474e-07 -6.29909e-22 -2.53672e-07 -2.24698e-22 0)
(8.41389e-07 -1.04839e-07 -2.3046e-22 -2.30314e-07 -1.03492e-22 0)
(8.3182e-07 -8.00627e-08 8.22194e-22 -2.06573e-07 3.33112e-22 0)
(8.20483e-07 -5.23502e-08 -7.53008e-22 -1.82415e-07 -3.32637e-22 0)
(8.11895e-07 -1.74543e-08 1.54718e-24 -1.57966e-07 1.06498e-24 -1.33192e-43)
(1.25368e-06 -2.22189e-07 6.86712e-22 -7.33259e-07 1.8456e-22 0)
(1.19861e-06 -2.45886e-07 -5.19436e-22 -6.99979e-07 -1.04332e-22 0)
(1.16004e-06 -2.57868e-07 1.83656e-23 -6.6707e-07 -1.30522e-22 0)
(1.1184e-06 -2.63982e-07 -2.61595e-22 -6.3001e-07 5.03691e-23 0)
(1.08192e-06 -2.6546e-07 -4.81222e-22 -5.93519e-07 3.61843e-24 0)
(1.04846e-06 -2.6243e-07 -4.21661e-22 -5.57437e-07 -2.49852e-22 0)
(1.0189e-06 -2.56304e-07 -3.51393e-22 -5.22791e-07 -3.87902e-22 0)
(9.92786e-07 -2.47669e-07 -2.49109e-23 -4.89837e-07 1.90678e-23 0)
(9.69868e-07 -2.37234e-07 2.6731e-23 -4.58668e-07 -1.47404e-23 0)
(9.49698e-07 -2.25409e-07 8.35298e-22 -4.29206e-07 1.46753e-22 0)
(9.31854e-07 -2.12475e-07 1.05639e-21 -4.0127e-07 4.36832e-22 0)
(9.15927e-07 -1.98531e-07 -6.66076e-22 -3.74637e-07 -3.29204e-22 0)
(9.015e-07 -1.83559e-07 -1.05167e-21 -3.49073e-07 -3.95293e-22 0)
(8.88312e-07 -1.6737e-07 -6.89067e-22 -3.24352e-07 -2.40459e-22 0)
(8.75931e-07 -1.49726e-07 2.8138e-22 -3.00293e-07 1.37196e-22 0)
(8.64429e-07 -1.30125e-07 1.32075e-23 -2.76741e-07 1.46136e-24 0)
(8.53105e-07 -1.08203e-07 -3.75088e-22 -2.5364e-07 -1.30595e-22 0)
(8.42953e-07 -8.28622e-08 7.2382e-24 -2.3096e-07 1.79833e-24 0)
(8.32e-07 -5.43124e-08 3.64224e-22 -2.08847e-07 1.68884e-22 0)
(8.2428e-07 -1.81969e-08 -9.80025e-23 -1.87562e-07 -7.6009e-23 -1.16952e-39)
(1.29337e-06 -1.62583e-07 2.49473e-22 -7.40964e-07 1.44813e-22 0)
(1.24257e-06 -1.82575e-07 4.96745e-22 -7.07187e-07 3.40025e-22 0)
(1.20077e-06 -2.05989e-07 5.1556e-22 -6.79285e-07 1.51076e-22 0)
(1.15974e-06 -2.18974e-07 1.39209e-22 -6.46674e-07 2.27392e-23 0)
(1.12157e-06 -2.27372e-07 1.83131e-22 -6.12577e-07 2.44395e-22 0)
(1.08629e-06 -2.30794e-07 4.69831e-23 -5.78215e-07 -1.60134e-22 0)
(1.05425e-06 -2.30392e-07 -9.59711e-22 -5.44337e-07 -3.56079e-22 0)
(1.02531e-06 -2.2681e-07 -3.42956e-22 -5.11521e-07 -7.66067e-23 0)
(9.99362e-07 -2.20679e-07 3.41352e-22 -4.80025e-07 7.41187e-23 0)
(9.76112e-07 -2.12465e-07 -4.191e-22 -4.49956e-07 -8.45423e-23 0)
(9.55264e-07 -2.02498e-07 1.06815e-21 -4.21293e-07 4.68261e-22 0)
(9.36503e-07 -1.90954e-07 6.5491e-22 -3.93947e-07 2.57985e-22 0)
(9.19493e-07 -1.77885e-07 -9.60725e-23 -3.67803e-07 7.34902e-23 0)
(9.04025e-07 -1.63183e-07 2.41355e-22 -3.4274e-07 1.47158e-22 0)
(8.89749e-07 -1.46673e-07 3.82019e-22 -3.18681e-07 1.10566e-22 0)
(8.76745e-07 -1.27934e-07 -2.68028e-23 -2.95573e-07 -7.26075e-24 0)
(8.6447e-07 -1.06656e-07 2.28043e-22 -2.73479e-07 1.1742e-22 0)
(8.53804e-07 -8.18297e-08 1.21118e-22 -2.525e-07 3.72956e-23 0)
(8.43211e-07 -5.37204e-08 -3.64912e-22 -2.32979e-07 -1.75536e-22 0)
(8.36087e-07 -1.80463e-08 -1.79494e-22 -2.15225e-07 -1.99097e-22 -3.08251e-37)
(1.2789e-06 -1.14897e-07 -1.70729e-21 -7.13171e-07 -5.53212e-22 0)
(1.24516e-06 -1.37006e-07 -8.38971e-22 -6.95974e-07 -4.85527e-22 0)
(1.20787e-06 -1.62236e-07 7.34257e-22 -6.71753e-07 3.88595e-23 0)
(1.17154e-06 -1.79444e-07 -4.06754e-22 -6.44036e-07 2.61962e-22 0)
(1.13623e-06 -1.91736e-07 -7.82769e-22 -6.1362e-07 -3.93735e-22 0)
(1.10278e-06 -1.99205e-07 9.46973e-22 -5.82219e-07 2.36473e-22 0)
(1.07159e-06 -2.02668e-07 -8.75994e-36 -5.50608e-07 -3.53516e-36 0)
(1.04275e-06 -2.02716e-07 -1.00127e-21 -5.19471e-07 -5.48783e-22 0)
(1.01634e-06 -1.999e-07 -1.89003e-36 -4.89181e-07 -1.47023e-36 0)
(9.92232e-07 -1.94648e-07 -2.64334e-22 -4.59973e-07 -1.97492e-22 0)
(9.70271e-07 -1.87276e-07 -2.58554e-22 -4.3195e-07 -1.8546e-22 0)
(9.50268e-07 -1.77971e-07 4.08003e-22 -4.05143e-07 1.00356e-22 0)
(9.32001e-07 -1.66815e-07 -4.0016e-22 -3.79549e-07 -1.05e-22 0)
(9.15343e-07 -1.53747e-07 -1.16668e-35 -3.55155e-07 -3.60273e-36 0)
(9.00049e-07 -1.38645e-07 3.86442e-22 -3.31983e-07 1.20542e-22 0)