/*--------------------------------*- C++ -*----------------------------------*\
| =========                 |                                                 |
| \\      /  F ield         | foam-extend: Open Source CFD                    |
|  \\    /   O peration     | Version:     4.1                                |
|   \\  /    A nd           | Web:         http://www.foam-extend.org         |
|    \\/     M anipulation  |                                                 |
\*---------------------------------------------------------------------------*/
FoamFile
{
    version     2.0;
    format      ascii;
    class       pointVectorField;
    location    "2";
    object      pointD;
}
// * * * * * * * * * * * * * * * * * * * * * * * * * * * * * * * * * * * * * //

dimensions      [0 1 0 0 0 0 0];

internalField   nonuniform List<vector> 
2142
(
(1.16277e-06 -4.82913e-07 -6.38252e-23)
(1.08374e-06 -4.28227e-07 0)
(1.03533e-06 -3.97362e-07 0)
(1.00543e-06 -3.79125e-07 0)
(9.89076e-07 -3.70186e-07 0)
(9.82311e-07 -3.67253e-07 0)
(9.82616e-07 -3.68579e-07 0)
(9.88198e-07 -3.72824e-07 0)
(9.97773e-07 -3.79117e-07 0)
(1.01042e-06 -3.86858e-07 0)
(1.02584e-06 -3.95922e-07 0)
(1.06693e-06 -5.20125e-07 -2.79076e-23)
(9.81167e-07 -4.76823e-07 0)
(9.28555e-07 -4.53194e-07 0)
(8.95894e-07 -4.39656e-07 0)
(8.77582e-07 -4.33878e-07 0)
(8.69318e-07 -4.33097e-07 0)
(8.68344e-07 -4.35959e-07 0)
(8.72758e-07 -4.41315e-07 0)
(8.81152e-07 -4.48495e-07 0)
(8.92616e-07 -4.56875e-07 0)
(9.06235e-07 -4.66395e-07 0)
(9.64741e-07 -5.54251e-07 4.37427e-23)
(8.75495e-07 -5.24251e-07 0)
(8.20688e-07 -5.09034e-07 0)
(7.86549e-07 -5.00942e-07 0)
(7.6707e-07 -4.98794e-07 0)
(7.57774e-07 -5.00457e-07 0)
(7.55772e-07 -5.05035e-07 0)
(7.59097e-07 -5.11623e-07 0)
(7.663e-07 -5.19762e-07 0)
(7.7638e-07 -5.28841e-07 0)
(7.88458e-07 -5.39115e-07 0)
(8.56859e-07 -5.85043e-07 1.00851e-22)
(7.67703e-07 -5.69502e-07 0)
(7.12915e-07 -5.63397e-07 0)
(6.78703e-07 -5.61195e-07 0)
(6.58936e-07 -5.62944e-07 0)
(6.49138e-07 -5.67206e-07 0)
(6.46412e-07 -5.73578e-07 0)
(6.48804e-07 -5.81428e-07 0)
(6.54886e-07 -5.90512e-07 0)
(6.63648e-07 -6.00319e-07 0)
(6.74354e-07 -6.11212e-07 0)
(7.43943e-07 -6.12268e-07 3.42672e-24)
(6.58599e-07 -6.11523e-07 0)
(6.0613e-07 -6.14722e-07 0)
(5.73307e-07 -6.18526e-07 0)
(5.54168e-07 -6.24233e-07 0)
(5.44428e-07 -6.31121e-07 0)
(5.41307e-07 -6.39286e-07 0)
(5.42941e-07 -6.48387e-07 0)
(5.4799e-07 -6.58388e-07 0)
(5.55471e-07 -6.68913e-07 0)
(5.64808e-07 -6.80381e-07 0)
(6.26679e-07 -6.35708e-07 -6.20825e-23)
(5.48816e-07 -6.4926e-07 0)
(5.00933e-07 -6.61433e-07 0)
(4.70938e-07 -6.71025e-07 0)
(4.53332e-07 -6.80536e-07 0)
(4.44201e-07 -6.89939e-07 0)
(4.41009e-07 -6.99812e-07 0)
(4.42059e-07 -7.10099e-07 0)
(4.4615e-07 -7.2096e-07 0)
(4.52373e-07 -7.32173e-07 0)
(4.60291e-07 -7.44169e-07 0)
(5.05768e-07 -6.55167e-07 7.83975e-24)
(4.38809e-07 -6.81711e-07 0)
(3.97622e-07 -7.02028e-07 0)
(3.71797e-07 -7.16871e-07 0)
(3.56563e-07 -7.29827e-07 0)
(3.48557e-07 -7.41503e-07 0)
(3.45596e-07 -7.52914e-07 0)
(3.46222e-07 -7.64268e-07 0)
(3.49418e-07 -7.75901e-07 0)
(3.54389e-07 -7.87741e-07 0)
(3.60824e-07 -8.002e-07 0)
(3.81924e-07 -6.70479e-07 8.57072e-24)
(3.28859e-07 -7.07975e-07 0)
(2.96212e-07 -7.35153e-07 0)
(2.75726e-07 -7.54418e-07 0)
(2.636e-07 -7.70272e-07 0)
(2.57167e-07 -7.83859e-07 0)
(2.54696e-07 -7.96561e-07 0)
(2.55035e-07 -8.08812e-07 0)
(2.57386e-07 -8.21092e-07 0)
(2.61111e-07 -8.33467e-07 0)
(2.66e-07 -8.4631e-07 0)
(2.55872e-07 -6.81506e-07 2.30398e-23)
(2.191e-07 -7.27299e-07 0)
(1.96467e-07 -7.59671e-07 0)
(1.82256e-07 -7.82285e-07 0)
(1.73822e-07 -8.00332e-07 0)
(1.69319e-07 -8.15365e-07 0)
(1.67547e-07 -8.29043e-07 0)
(1.67708e-07 -8.41974e-07 0)
(1.69252e-07 -8.54744e-07 0)
(1.71731e-07 -8.6753e-07 0)
(1.75023e-07 -8.80665e-07 0)
(1.28352e-07 -6.88145e-07 3.53286e-23)
(1.09542e-07 -7.39111e-07 0)
(9.79522e-08 -7.74724e-07 0)
(9.06692e-08 -7.99429e-07 0)
(8.63386e-08 -8.18846e-07 0)
(8.40157e-08 -8.34782e-07 0)
(8.30869e-08 -8.4907e-07 0)
(8.31432e-08 -8.62427e-07 0)
(8.39054e-08 -8.75504e-07 0)
(8.51423e-08 -8.88549e-07 0)
(8.67963e-08 -9.01869e-07 0)
(0 -6.90298e-07 2.47747e-23)
(0 -7.43064e-07 -1.00501e-25)
(0 -7.79825e-07 0)
(0 -8.05214e-07 0)
(0 -8.25114e-07 0)
(0 -8.41348e-07 0)
(0 -8.55849e-07 0)
(0 -8.69348e-07 0)
(0 -8.8253e-07 0)
(0 -8.95664e-07 0)
(0 -9.09045e-07 0)
(1.16277e-06 -4.82913e-07 -6.38252e-23)
(1.08374e-06 -4.28227e-07 0)
(1.03533e-06 -3.97362e-07 0)
(1.00543e-06 -3.79125e-07 0)
(9.89076e-07 -3.70186e-07 0)
(9.82311e-07 -3.67253e-07 0)
(9.82616e-07 -3.68579e-07 0)
(9.88198e-07 -3.72824e-07 0)
(9.97773e-07 -3.79117e-07 0)
(1.01042e-06 -3.86858e-07 0)
(1.02584e-06 -3.95922e-07 0)
(1.06693e-06 -5.20125e-07 -2.79076e-23)
(9.81167e-07 -4.76823e-07 0)
(9.28555e-07 -4.53194e-07 0)
(8.95894e-07 -4.39656e-07 0)
(8.77582e-07 -4.33878e-07 0)
(8.69318e-07 -4.33097e-07 0)
(8.68344e-07 -4.35959e-07 0)
(8.72758e-07 -4.41315e-07 0)
(8.81152e-07 -4.48495e-07 0)
(8.92616e-07 -4.56875e-07 0)
(9.06235e-07 -4.66395e-07 0)
(9.64741e-07 -5.54251e-07 4.37427e-23)
(8.75495e-07 -5.24251e-07 0)
(8.20688e-07 -5.09034e-07 0)
(7.86549e-07 -5.00942e-07 0)
(7.6707e-07 -4.98794e-07 0)
(7.57774e-07 -5.00457e-07 0)
(7.55772e-07 -5.05035e-07 0)
(7.59097e-07 -5.11623e-07 0)
(7.663e-07 -5.19762e-07 0)
(7.7638e-07 -5.28841e-07 0)
(7.88458e-07 -5.39115e-07 0)
(8.56859e-07 -5.85043e-07 1.00851e-22)
(7.67703e-07 -5.69502e-07 0)
(7.12915e-07 -5.63397e-07 0)
(6.78703e-07 -5.61195e-07 0)
(6.58936e-07 -5.62944e-07 0)
(6.49138e-07 -5.67206e-07 0)
(6.46412e-07 -5.73578e-07 0)
(6.48804e-07 -5.81428e-07 0)
(6.54886e-07 -5.90512e-07 0)
(6.63648e-07 -6.00319e-07 0)
(6.74354e-07 -6.11212e-07 0)
(7.43943e-07 -6.12268e-07 3.42672e-24)
(6.58599e-07 -6.11523e-07 0)
(6.0613e-07 -6.14722e-07 0)
(5.73307e-07 -6.18526e-07 0)
(5.54168e-07 -6.24233e-07 0)
(5.44428e-07 -6.31121e-07 0)
(5.41307e-07 -6.39286e-07 0)
(5.42941e-07 -6.48387e-07 0)
(5.4799e-07 -6.58388e-07 0)
(5.55471e-07 -6.68913e-07 0)
(5.64808e-07 -6.80381e-07 0)
(6.26679e-07 -6.35708e-07 -6.20825e-23)
(5.48816e-07 -6.4926e-07 0)
(5.00933e-07 -6.61433e-07 0)
(4.70938e-07 -6.71025e-07 0)
(4.53332e-07 -6.80536e-07 0)
(4.44201e-07 -6.89939e-07 0)
(4.41009e-07 -6.99812e-07 0)
(4.42059e-07 -7.10099e-07 0)
(4.4615e-07 -7.2096e-07 0)
(4.52373e-07 -7.32173e-07 0)
(4.60291e-07 -7.44169e-07 0)
(5.05768e-07 -6.55167e-07 7.83975e-24)
(4.38809e-07 -6.81711e-07 0)
(3.97622e-07 -7.02028e-07 0)
(3.71797e-07 -7.16871e-07 0)
(3.56563e-07 -7.29827e-07 0)
(3.48557e-07 -7.41503e-07 0)
(3.45596e-07 -7.52914e-07 0)
(3.46222e-07 -7.64268e-07 0)
(3.49418e-07 -7.75901e-07 0)
(3.54389e-07 -7.87741e-07 0)
(3.60824e-07 -8.002e-07 0)
(3.81924e-07 -6.70479e-07 8.57072e-24)
(3.28859e-07 -7.07975e-07 0)
(2.96212e-07 -7.35153e-07 0)
(2.75726e-07 -7.54418e-07 0)
(2.636e-07 -7.70272e-07 0)
(2.57167e-07 -7.83859e-07 0)
(2.54696e-07 -7.96561e-07 0)
(2.55035e-07 -8.08812e-07 0)
(2.57386e-07 -8.21092e-07 0)
(2.61111e-07 -8.33467e-07 0)
(2.66e-07 -8.4631e-07 0)
(2.55872e-07 -6.81506e-07 2.30398e-23)
(2.191e-07 -7.27299e-07 0)
(1.96467e-07 -7.59671e-07 0)
(1.82256e-07 -7.82285e-07 0)
(1.73822e-07 -8.00332e-07 0)
(1.69319e-07 -8.15365e-07 0)
(1.67547e-07 -8.29043e-07 0)
(1.67708e-07 -8.41974e-07 0)
(1.69252e-07 -8.54744e-07 0)
(1.71731e-07 -8.6753e-07 0)
(1.75023e-07 -8.80665e-07 0)
(1.28352e-07 -6.88145e-07 3.53286e-23)
(1.09542e-07 -7.39111e-07 0)
(9.79522e-08 -7.74724e-07 0)
(9.06692e-08 -7.99429e-07 0)
(8.63386e-08 -8.18846e-07 0)
(8.40157e-08 -8.34782e-07 0)
(8.30869e-08 -8.4907e-07 0)
(8.31432e-08 -8.62427e-07 0)
(8.39054e-08 -8.75504e-07 0)
(8.51423e-08 -8.88549e-07 0)
(8.67963e-08 -9.01869e-07 0)
(0 -6.90298e-07 2.47747e-23)
(0 -7.43064e-07 -1.00501e-25)
(0 -7.79825e-07 0)
(0 -8.05214e-07 0)
(0 -8.25114e-07 0)
(0 -8.41348e-07 0)
(0 -8.55849e-07 0)
(0 -8.69348e-07 0)
(0 -8.8253e-07 0)
(0 -8.95664e-07 0)
(0 -9.09045e-07 0)
(1.65541e-06 0 -2.02015e-23)
(1.67405e-06 0 8.1949e-26)
(1.68628e-06 0 0)
(1.69551e-06 0 0)
(1.70534e-06 0 0)
(1.71669e-06 0 0)
(1.73038e-06 0 0)
(1.74651e-06 0 0)
(1.76517e-06 0 0)
(1.78619e-06 0 0)
(1.80953e-06 0 0)
(1.65023e-06 -5.31195e-08 -9.06736e-24)
(1.66717e-06 -3.69012e-08 0)
(1.67833e-06 -2.72194e-08 0)
(1.6869e-06 -2.12283e-08 0)
(1.69628e-06 -1.77404e-08 0)
(1.70733e-06 -1.58736e-08 0)
(1.7208e-06 -1.50943e-08 0)
(1.73677e-06 -1.5038e-08 0)
(1.7553e-06 -1.54731e-08 0)
(1.77619e-06 -1.61797e-08 0)
(1.79942e-06 -1.71907e-08 0)
(1.63458e-06 -1.0593e-07 -1.76532e-23)
(1.64662e-06 -7.43122e-08 0)
(1.65472e-06 -5.54884e-08 0)
(1.66133e-06 -4.38573e-08 0)
(1.66941e-06 -3.71042e-08 0)
(1.67958e-06 -3.35091e-08 0)
(1.69242e-06 -3.20326e-08 0)
(1.7079e-06 -3.19653e-08 0)
(1.72603e-06 -3.28545e-08 0)
(1.74654e-06 -3.42752e-08 0)
(1.76946e-06 -3.62819e-08 0)
(1.60857e-06 -1.58168e-07 -5.28918e-23)
(1.61276e-06 -1.12808e-07 0)
(1.61601e-06 -8.58557e-08 0)
(1.61948e-06 -6.92239e-08 0)
(1.6255e-06 -5.96027e-08 0)
(1.63426e-06 -5.45199e-08 0)
(1.64609e-06 -5.24847e-08 0)
(1.6608e-06 -5.24792e-08 0)
(1.6783e-06 -5.38487e-08 0)
(1.6982e-06 -5.59914e-08 0)
(1.72062e-06 -5.89583e-08 0)
(1.57241e-06 -2.09515e-07 -3.73374e-23)
(1.5663e-06 -1.52808e-07 0)
(1.56316e-06 -1.19177e-07 0)
(1.56253e-06 -9.8457e-08 0)
(1.56582e-06 -8.65346e-08 0)
(1.57273e-06 -8.03073e-08 0)
(1.58324e-06 -7.79116e-08 0)
(1.59693e-06 -7.80721e-08 0)
(1.61359e-06 -7.99607e-08 0)
(1.63269e-06 -8.28367e-08 0)
(1.65445e-06 -8.67188e-08 0)
(1.52639e-06 -2.59684e-07 -2.94139e-24)
(1.50814e-06 -1.94603e-07 0)
(1.49749e-06 -1.56103e-07 0)
(1.492e-06 -1.32434e-07 0)
(1.49209e-06 -1.18918e-07 0)
(1.49681e-06 -1.11975e-07 0)
(1.50574e-06 -1.09467e-07 0)
(1.51822e-06 -1.09926e-07 0)
(1.53387e-06 -1.12384e-07 0)
(1.55203e-06 -1.16007e-07 0)
(1.57298e-06 -1.20747e-07 0)
(1.47086e-06 -3.08386e-07 -9.19841e-25)
(1.43938e-06 -2.38314e-07 0)
(1.42053e-06 -1.97011e-07 0)
(1.40975e-06 -1.71695e-07 0)
(1.40632e-06 -1.57395e-07 0)
(1.40863e-06 -1.50229e-07 0)
(1.41582e-06 -1.47896e-07 0)
(1.42696e-06 -1.48804e-07 0)
(1.44149e-06 -1.51896e-07 0)
(1.45859e-06 -1.56286e-07 0)
(1.47863e-06 -1.61827e-07 0)
(1.40624e-06 -3.55337e-07 -1.56202e-24)
(1.36125e-06 -2.83882e-07 0)
(1.33401e-06 -2.41983e-07 0)
(1.31782e-06 -2.16412e-07 0)
(1.31077e-06 -2.02195e-07 0)
(1.3106e-06 -1.95332e-07 0)
(1.31597e-06 -1.9348e-07 0)
(1.32568e-06 -1.95005e-07 0)
(1.339e-06 -1.98804e-07 0)
(1.35499e-06 -2.03989e-07 0)
(1.37401e-06 -2.10276e-07 0)
(1.333e-06 -4.00257e-07 7.57782e-23)
(1.27505e-06 -3.31052e-07 0)
(1.23976e-06 -2.90782e-07 0)
(1.21836e-06 -2.66361e-07 0)
(1.20783e-06 -2.53101e-07 0)
(1.20522e-06 -2.47069e-07 0)
(1.20877e-06 -2.46009e-07 0)
(1.21705e-06 -2.48318e-07 0)
(1.22912e-06 -2.5291e-07 0)
(1.24396e-06 -2.58936e-07 0)
(1.26191e-06 -2.65987e-07 0)
(1.25166e-06 -4.42871e-07 4.80619e-23)
(1.18211e-06 -3.79376e-07 0)
(1.13961e-06 -3.42857e-07 0)
(1.11354e-06 -3.20928e-07 0)
(1.09984e-06 -3.09457e-07 0)
(1.09499e-06 -3.04757e-07 0)
(1.09682e-06 -3.04774e-07 0)
(1.10368e-06 -3.08013e-07 0)
(1.11448e-06 -3.13464e-07 0)
(1.12817e-06 -3.20412e-07 0)
(1.14486e-06 -3.28234e-07 0)
(1.65541e-06 0 -2.02015e-23)
(1.67405e-06 0 8.1949e-26)
(1.68628e-06 0 0)
(1.69551e-06 0 0)
(1.70534e-06 0 0)
(1.71669e-06 0 0)
(1.73038e-06 0 0)
(1.74651e-06 0 0)
(1.76517e-06 0 0)
(1.78619e-06 0 0)
(1.80953e-06 0 0)
(1.65023e-06 -5.31195e-08 -9.06736e-24)
(1.66717e-06 -3.69012e-08 0)
(1.67833e-06 -2.72194e-08 0)
(1.6869e-06 -2.12283e-08 0)
(1.69628e-06 -1.77404e-08 0)
(1.70733e-06 -1.58736e-08 0)
(1.7208e-06 -1.50943e-08 0)
(1.73677e-06 -1.5038e-08 0)
(1.7553e-06 -1.54731e-08 0)
(1.77619e-06 -1.61797e-08 0)
(1.79942e-06 -1.71907e-08 0)
(1.63458e-06 -1.0593e-07 -1.76532e-23)
(1.64662e-06 -7.43122e-08 0)
(1.65472e-06 -5.54884e-08 0)
(1.66133e-06 -4.38573e-08 0)
(1.66941e-06 -3.71042e-08 0)
(1.67958e-06 -3.35091e-08 0)
(1.69242e-06 -3.20326e-08 0)
(1.7079e-06 -3.19653e-08 0)
(1.72603e-06 -3.28545e-08 0)
(1.74654e-06 -3.42752e-08 0)
(1.76946e-06 -3.62819e-08 0)
(1.60857e-06 -1.58168e-07 -5.28918e-23)
(1.61276e-06 -1.12808e-07 0)
(1.61601e-06 -8.58557e-08 0)
(1.61948e-06 -6.92239e-08 0)
(1.6255e-06 -5.96027e-08 0)
(1.63426e-06 -5.45199e-08 0)
(1.64609e-06 -5.24847e-08 0)
(1.6608e-06 -5.24792e-08 0)
(1.6783e-06 -5.38487e-08 0)
(1.6982e-06 -5.59914e-08 0)
(1.72062e-06 -5.89583e-08 0)
(1.57241e-06 -2.09515e-07 -3.73374e-23)
(1.5663e-06 -1.52808e-07 0)
(1.56316e-06 -1.19177e-07 0)
(1.56253e-06 -9.8457e-08 0)
(1.56582e-06 -8.65346e-08 0)
(1.57273e-06 -8.03073e-08 0)
(1.58324e-06 -7.79116e-08 0)
(1.59693e-06 -7.80721e-08 0)
(1.61359e-06 -7.99607e-08 0)
(1.63269e-06 -8.28367e-08 0)
(1.65445e-06 -8.67188e-08 0)
(1.52639e-06 -2.59684e-07 -2.94139e-24)
(1.50814e-06 -1.94603e-07 0)
(1.49749e-06 -1.56103e-07 0)
(1.492e-06 -1.32434e-07 0)
(1.49209e-06 -1.18918e-07 0)
(1.49681e-06 -1.11975e-07 0)
(1.50574e-06 -1.09467e-07 0)
(1.51822e-06 -1.09926e-07 0)
(1.53387e-06 -1.12384e-07 0)
(1.55203e-06 -1.16007e-07 0)
(1.57298e-06 -1.20747e-07 0)
(1.47086e-06 -3.08386e-07 -9.19841e-25)
(1.43938e-06 -2.38314e-07 0)
(1.42053e-06 -1.97011e-07 0)
(1.40975e-06 -1.71695e-07 0)
(1.40632e-06 -1.57395e-07 0)
(1.40863e-06 -1.50229e-07 0)
(1.41582e-06 -1.47896e-07 0)
(1.42696e-06 -1.48804e-07 0)
(1.44149e-06 -1.51896e-07 0)
(1.45859e-06 -1.56286e-07 0)
(1.47863e-06 -1.61827e-07 0)
(1.40624e-06 -3.55337e-07 -1.56202e-24)
(1.36125e-06 -2.83882e-07 0)
(1.33401e-06 -2.41983e-07 0)
(1.31782e-06 -2.16412e-07 0)
(1.31077e-06 -2.02195e-07 0)
(1.3106e-06 -1.95332e-07 0)
(1.31597e-06 -1.9348e-07 0)
(1.32568e-06 -1.95005e-07 0)
(1.339e-06 -1.98804e-07 0)
(1.35499e-06 -2.03989e-07 0)
(1.37401e-06 -2.10276e-07 0)
(1.333e-06 -4.00257e-07 7.57782e-23)
(1.27505e-06 -3.31052e-07 0)
(1.23976e-06 -2.90782e-07 0)
(1.21836e-06 -2.66361e-07 0)
(1.20783e-06 -2.53101e-07 0)
(1.20522e-06 -2.47069e-07 0)
(1.20877e-06 -2.46009e-07 0)
(1.21705e-06 -2.48318e-07 0)
(1.22912e-06 -2.5291e-07 0)
(1.24396e-06 -2.58936e-07 0)
(1.26191e-06 -2.65987e-07 0)
(1.25166e-06 -4.42871e-07 4.80619e-23)
(1.18211e-06 -3.79376e-07 0)
(1.13961e-06 -3.42857e-07 0)
(1.11354e-06 -3.20928e-07 0)
(1.09984e-06 -3.09457e-07 0)
(1.09499e-06 -3.04757e-07 0)
(1.09682e-06 -3.04774e-07 0)
(1.10368e-06 -3.08013e-07 0)
(1.11448e-06 -3.13464e-07 0)
(1.12817e-06 -3.20412e-07 0)
(1.14486e-06 -3.28234e-07 0)
(1.8351e-06 0 0)
(1.86257e-06 0 0)
(1.89171e-06 0 0)
(1.92237e-06 0 0)
(1.9544e-06 0 0)
(1.98765e-06 0 0)
(2.02199e-06 0 0)
(2.05729e-06 0 0)
(2.09343e-06 0 0)
(2.13029e-06 0 0)
(2.16776e-06 0 0)
(2.20573e-06 0 0)
(2.24407e-06 0 0)
(2.28268e-06 0 0)
(2.32141e-06 0 0)
(2.36015e-06 0 0)
(2.3987e-06 0 0)
(2.43697e-06 0 0)
(2.47463e-06 0 -6.05269e-27)
(2.51171e-06 0 -9.89654e-24)
(1.8259e-06 -1.7323e-08 0)
(1.85414e-06 -1.7383e-08 0)
(1.88395e-06 -1.74468e-08 0)
(1.9152e-06 -1.74474e-08 0)
(1.94775e-06 -1.73702e-08 0)
(1.98147e-06 -1.72002e-08 0)
(2.01623e-06 -1.69249e-08 0)
(2.0519e-06 -1.65359e-08 0)
(2.08839e-06 -1.60234e-08 0)
(2.12557e-06 -1.53785e-08 0)
(2.16333e-06 -1.45903e-08 0)
(2.20157e-06 -1.36461e-08 0)
(2.24016e-06 -1.25306e-08 0)
(2.27901e-06 -1.12251e-08 0)
(2.31797e-06 -9.70713e-09 0)
(2.35692e-06 -7.94853e-09 0)
(2.39568e-06 -5.9166e-09 0)
(2.43416e-06 -3.56696e-09 0)
(2.47202e-06 -8.61348e-10 0)
(2.5093e-06 2.30991e-09 -2.0493e-23)
(1.79861e-06 -3.62543e-08 0)
(1.82911e-06 -3.61413e-08 0)
(1.86091e-06 -3.60729e-08 0)
(1.89391e-06 -3.59158e-08 0)
(1.92801e-06 -3.56311e-08 0)
(1.96311e-06 -3.51858e-08 0)
(1.99911e-06 -3.45496e-08 0)
(2.03591e-06 -3.37027e-08 0)
(2.07341e-06 -3.26226e-08 0)
(2.11153e-06 -3.12893e-08 0)
(2.15015e-06 -2.96788e-08 0)
(2.18919e-06 -2.77646e-08 0)
(2.22854e-06 -2.55147e-08 0)
(2.26809e-06 -2.28907e-08 0)
(2.30772e-06 -1.98466e-08 0)
(2.34732e-06 -1.63254e-08 0)
(2.38671e-06 -1.22612e-08 0)
(2.42579e-06 -7.56459e-09 0)
(2.46426e-06 -2.15848e-09 0)
(2.50214e-06 4.17443e-09 -3.46657e-23)
(1.75405e-06 -5.82168e-08 0)
(1.78821e-06 -5.74866e-08 0)
(1.82324e-06 -5.69136e-08 0)
(1.85908e-06 -5.63008e-08 0)
(1.89571e-06 -5.55645e-08 0)
(1.93306e-06 -5.46476e-08 0)
(1.97108e-06 -5.34918e-08 0)
(2.00971e-06 -5.20601e-08 0)
(2.04888e-06 -5.03116e-08 0)
(2.08852e-06 -4.82108e-08 0)
(2.12856e-06 -4.57173e-08 0)
(2.16891e-06 -4.27876e-08 0)
(2.20948e-06 -3.93708e-08 0)
(2.25019e-06 -3.54066e-08 0)
(2.29092e-06 -3.08239e-08 0)
(2.33157e-06 -2.55355e-08 0)
(2.37199e-06 -1.94403e-08 0)
(2.41207e-06 -1.24031e-08 0)
(2.45152e-06 -4.30592e-09 0)
(2.4904e-06 5.17469e-09 -5.56652e-24)
(1.69354e-06 -8.44916e-08 0)
(1.73258e-06 -8.25219e-08 0)
(1.77194e-06 -8.09181e-08 0)
(1.81161e-06 -7.94272e-08 0)
(1.85165e-06 -7.78926e-08 0)
(1.89205e-06 -7.62243e-08 0)
(1.93282e-06 -7.43224e-08 0)
(1.97393e-06 -7.21243e-08 0)
(2.01537e-06 -6.95628e-08 0)
(2.0571e-06 -6.65807e-08 0)
(2.09905e-06 -6.31165e-08 0)
(2.14119e-06 -5.91054e-08 0)
(2.18344e-06 -5.44745e-08 0)
(2.22572e-06 -4.91388e-08 0)
(2.26795e-06 -4.3e-08 0)
(2.31004e-06 -3.59381e-08 0)
(2.35184e-06 -2.78158e-08 0)
(2.39328e-06 -1.84498e-08 0)
(2.43408e-06 -7.67896e-09 0)
(2.47431e-06 4.92465e-09 8.69516e-24)
(1.6188e-06 -1.16113e-07 0)
(1.66373e-06 -1.12146e-07 0)
(1.70834e-06 -1.08861e-07 0)
(1.75267e-06 -1.05966e-07 0)
(1.79689e-06 -1.03199e-07 0)
(1.84105e-06 -1.00427e-07 0)
(1.88521e-06 -9.74934e-08 0)
(1.92941e-06 -9.42999e-08 0)
(1.97366e-06 -9.07434e-08 0)
(2.01797e-06 -8.67375e-08 0)
(2.06231e-06 -8.21932e-08 0)
(2.10667e-06 -7.70196e-08 0)
(2.15099e-06 -7.11173e-08 0)
(2.19523e-06 -6.43734e-08 0)
(2.23932e-06 -5.66594e-08 0)
(2.28318e-06 -4.78205e-08 0)
(2.3267e-06 -3.76806e-08 0)
(2.36983e-06 -2.60073e-08 0)
(2.4123e-06 -1.25932e-08 0)
(2.4542e-06 3.09074e-09 1.93782e-23)
(1.53189e-06 -1.53799e-07 0)
(1.58342e-06 -1.47017e-07 0)
(1.634e-06 -1.41333e-07 0)
(1.68366e-06 -1.36445e-07 0)
(1.7327e-06 -1.31958e-07 0)
(1.7812e-06 -1.2768e-07 0)
(1.82931e-06 -1.23389e-07 0)
(1.8771e-06 -1.18935e-07 0)
(1.92464e-06 -1.14171e-07 0)
(1.97197e-06 -1.08973e-07 0)
(2.01911e-06 -1.03218e-07 0)
(2.06606e-06 -9.67838e-08 0)
(2.11282e-06 -8.954e-08 0)
(2.15935e-06 -8.13427e-08 0)
(2.20561e-06 -7.203e-08 0)
(2.25156e-06 -6.14101e-08 0)
(2.29709e-06 -4.92666e-08 0)
(2.34217e-06 -3.53167e-08 0)
(2.3866e-06 -1.93052e-08 0)
(2.43046e-06 -6.08369e-10 3.48008e-23)
(1.43504e-06 -1.97872e-07 0)
(1.49358e-06 -1.87438e-07 0)
(1.55061e-06 -1.78613e-07 0)
(1.6061e-06 -1.71102e-07 0)
(1.66045e-06 -1.64372e-07 0)
(1.71377e-06 -1.58155e-07 0)
(1.76628e-06 -1.52154e-07 0)
(1.81809e-06 -1.46154e-07 0)
(1.86931e-06 -1.39957e-07 0)
(1.92004e-06 -1.33389e-07 0)
(1.97032e-06 -1.26288e-07 0)
(2.0202e-06 -1.18494e-07 0)
(2.06969e-06 -1.0984e-07 0)
(2.1188e-06 -1.00148e-07 0)
(2.1675e-06 -8.92201e-08 0)
(2.21578e-06 -7.68249e-08 0)
(2.26356e-06 -6.27047e-08 0)
(2.31085e-06 -4.65259e-08 0)
(2.35746e-06 -2.79847e-08 0)
(2.40353e-06 -6.3699e-09 8.69941e-25)
(1.33064e-06 -2.48356e-07 0)
(1.39632e-06 -2.33532e-07 0)
(1.46001e-06 -2.20903e-07 0)
(1.52161e-06 -2.10162e-07 0)
(1.58157e-06 -2.00685e-07 0)
(1.64005e-06 -1.92092e-07 0)
(1.69728e-06 -1.84017e-07 0)
(1.75344e-06 -1.76169e-07 0)
(1.80867e-06 -1.68291e-07 0)
(1.86309e-06 -1.60156e-07 0)
(1.91681e-06 -1.51553e-07 0)
(1.96988e-06 -1.42281e-07 0)
(2.02236e-06 -1.32134e-07 0)
(2.07428e-06 -1.20893e-07 0)
(2.12565e-06 -1.08324e-07 0)
(2.17647e-06 -9.41553e-08 0)
(2.22672e-06 -7.80861e-08 0)
(2.2764e-06 -5.97339e-08 0)
(2.3254e-06 -3.87479e-08 0)
(2.37386e-06 -1.4347e-08 -1.00385e-23)
(1.22093e-06 -3.04638e-07 0)
(1.29355e-06 -2.84736e-07 0)
(1.36387e-06 -2.67741e-07 0)
(1.43173e-06 -2.53203e-07 0)
(1.49751e-06 -2.405e-07 0)
(1.56139e-06 -2.29126e-07 0)
(1.62361e-06 -2.18647e-07 0)
(1.68437e-06 -2.08685e-07 0)
(1.74385e-06 -1.98914e-07 0)
(1.80221e-06 -1.89046e-07 0)
(1.85957e-06 -1.78818e-07 0)
(1.91605e-06 -1.67979e-07 0)
(1.97171e-06 -1.5628e-07 0)
(2.02662e-06 -1.43462e-07 0)
(2.08082e-06 -1.2925e-07 0)
(2.13435e-06 -1.13332e-07 0)
(2.18719e-06 -9.53666e-08 0)
(2.23942e-06 -7.49242e-08 0)
(2.29095e-06 -5.1608e-08 0)
(2.34197e-06 -2.45722e-08 6.16349e-24)
(1.10889e-06 -3.65968e-07 0)
(1.18795e-06 -3.40425e-07 0)
(1.26456e-06 -3.18798e-07 0)
(1.33848e-06 -3.00106e-07 0)
(1.40999e-06 -2.83826e-07 0)
(1.47925e-06 -2.69343e-07 0)
(1.54651e-06 -2.5616e-07 0)
(1.61196e-06 -2.43826e-07 0)
(1.67581e-06 -2.31947e-07 0)
(1.73823e-06 -2.20172e-07 0)
(1.79938e-06 -2.08178e-07 0)
(1.85939e-06 -1.95666e-07 0)
(1.91837e-06 -1.82338e-07 0)
(1.9764e-06 -1.67896e-07 0)
(2.03356e-06 -1.52021e-07 0)
(2.0899e-06 -1.34364e-07 0)
(2.14548e-06 -1.14542e-07 0)
(2.20036e-06 -9.2089e-08 0)
(2.25454e-06 -6.65589e-08 0)
(2.30822e-06 -3.70666e-08 1.79532e-23)
(1.8351e-06 0 0)
(1.86257e-06 0 0)
(1.89171e-06 0 0)
(1.92237e-06 0 0)
(1.9544e-06 0 0)
(1.98765e-06 0 0)
(2.02199e-06 0 0)
(2.05729e-06 0 0)
(2.09343e-06 0 0)
(2.13029e-06 0 0)
(2.16776e-06 0 0)
(2.20573e-06 0 0)
(2.24407e-06 0 0)
(2.28268e-06 0 0)
(2.32141e-06 0 0)
(2.36015e-06 0 0)
(2.3987e-06 0 0)
(2.43697e-06 0 0)
(2.47463e-06 0 -6.05269e-27)
(2.51171e-06 0 -9.89654e-24)
(1.8259e-06 -1.7323e-08 0)
(1.85414e-06 -1.7383e-08 0)
(1.88395e-06 -1.74468e-08 0)
(1.9152e-06 -1.74474e-08 0)
(1.94775e-06 -1.73702e-08 0)
(1.98147e-06 -1.72002e-08 0)
(2.01623e-06 -1.69249e-08 0)
(2.0519e-06 -1.65359e-08 0)
(2.08839e-06 -1.60234e-08 0)
(2.12557e-06 -1.53785e-08 0)
(2.16333e-06 -1.45903e-08 0)
(2.20157e-06 -1.36461e-08 0)
(2.24016e-06 -1.25306e-08 0)
(2.27901e-06 -1.12251e-08 0)
(2.31797e-06 -9.70713e-09 0)
(2.35692e-06 -7.94853e-09 0)
(2.39568e-06 -5.9166e-09 0)
(2.43416e-06 -3.56696e-09 0)
(2.47202e-06 -8.61348e-10 0)
(2.5093e-06 2.30991e-09 -2.0493e-23)
(1.79861e-06 -3.62543e-08 0)
(1.82911e-06 -3.61413e-08 0)
(1.86091e-06 -3.60729e-08 0)
(1.89391e-06 -3.59158e-08 0)
(1.92801e-06 -3.56311e-08 0)
(1.96311e-06 -3.51858e-08 0)
(1.99911e-06 -3.45496e-08 0)
(2.03591e-06 -3.37027e-08 0)
(2.07341e-06 -3.26226e-08 0)
(2.11153e-06 -3.12893e-08 0)
(2.15015e-06 -2.96788e-08 0)
(2.18919e-06 -2.77646e-08 0)
(2.22854e-06 -2.55147e-08 0)
(2.26809e-06 -2.28907e-08 0)
(2.30772e-06 -1.98466e-08 0)
(2.34732e-06 -1.63254e-08 0)
(2.38671e-06 -1.22612e-08 0)
(2.42579e-06 -7.56459e-09 0)
(2.46426e-06 -2.15848e-09 0)
(2.50214e-06 4.17443e-09 -3.46657e-23)
(1.75405e-06 -5.82168e-08 0)
(1.78821e-06 -5.74866e-08 0)
(1.82324e-06 -5.69136e-08 0)
(1.85908e-06 -5.63008e-08 0)
(1.89571e-06 -5.55645e-08 0)
(1.93306e-06 -5.46476e-08 0)
(1.97108e-06 -5.34918e-08 0)
(2.00971e-06 -5.20601e-08 0)
(2.04888e-06 -5.03116e-08 0)
(2.08852e-06 -4.82108e-08 0)
(2.12856e-06 -4.57173e-08 0)
(2.16891e-06 -4.27876e-08 0)
(2.20948e-06 -3.93708e-08 0)
(2.25019e-06 -3.54066e-08 0)
(2.29092e-06 -3.08239e-08 0)
(2.33157e-06 -2.55355e-08 0)
(2.37199e-06 -1.94403e-08 0)
(2.41207e-06 -1.24031e-08 0)
(2.45152e-06 -4.30592e-09 0)
(2.4904e-06 5.17469e-09 -5.56652e-24)
(1.69354e-06 -8.44916e-08 0)
(1.73258e-06 -8.25219e-08 0)
(1.77194e-06 -8.09181e-08 0)
(1.81161e-06 -7.94272e-08 0)
(1.85165e-06 -7.78926e-08 0)
(1.89205e-06 -7.62243e-08 0)
(1.93282e-06 -7.43224e-08 0)
(1.97393e-06 -7.21243e-08 0)
(2.01537e-06 -6.95628e-08 0)
(2.0571e-06 -6.65807e-08 0)
(2.09905e-06 -6.31165e-08 0)
(2.14119e-06 -5.91054e-08 0)
(2.18344e-06 -5.44745e-08 0)
(2.22572e-06 -4.91388e-08 0)
(2.26795e-06 -4.3e-08 0)
(2.31004e-06 -3.59381e-08 0)
(2.35184e-06 -2.78158e-08 0)
(2.39328e-06 -1.84498e-08 0)
(2.43408e-06 -7.67896e-09 0)
(2.47431e-06 4.92465e-09 8.69516e-24)
(1.6188e-06 -1.16113e-07 0)
(1.66373e-06 -1.12146e-07 0)
(1.70834e-06 -1.08861e-07 0)
(1.75267e-06 -1.05966e-07 0)
(1.79689e-06 -1.03199e-07 0)
(1.84105e-06 -1.00427e-07 0)
(1.88521e-06 -9.74934e-08 0)
(1.92941e-06 -9.42999e-08 0)
(1.97366e-06 -9.07434e-08 0)
(2.01797e-06 -8.67375e-08 0)
(2.06231e-06 -8.21932e-08 0)
(2.10667e-06 -7.70196e-08 0)
(2.15099e-06 -7.11173e-08 0)
(2.19523e-06 -6.43734e-08 0)
(2.23932e-06 -5.66594e-08 0)
(2.28318e-06 -4.78205e-08 0)
(2.3267e-06 -3.76806e-08 0)
(2.36983e-06 -2.60073e-08 0)
(2.4123e-06 -1.25932e-08 0)
(2.4542e-06 3.09074e-09 1.93782e-23)
(1.53189e-06 -1.53799e-07 0)
(1.58342e-06 -1.47017e-07 0)
(1.634e-06 -1.41333e-07 0)
(1.68366e-06 -1.36445e-07 0)
(1.7327e-06 -1.31958e-07 0)
(1.7812e-06 -1.2768e-07 0)
(1.82931e-06 -1.23389e-07 0)
(1.8771e-06 -1.18935e-07 0)
(1.92464e-06 -1.14171e-07 0)
(1.97197e-06 -1.08973e-07 0)
(2.01911e-06 -1.03218e-07 0)
(2.06606e-06 -9.67838e-08 0)
(2.11282e-06 -8.954e-08 0)
(2.15935e-06 -8.13427e-08 0)
(2.20561e-06 -7.203e-08 0)
(2.25156e-06 -6.14101e-08 0)
(2.29709e-06 -4.92666e-08 0)
(2.34217e-06 -3.53167e-08 0)
(2.3866e-06 -1.93052e-08 0)
(2.43046e-06 -6.08369e-10 3.48008e-23)
(1.43504e-06 -1.97872e-07 0)
(1.49358e-06 -1.87438e-07 0)
(1.55061e-06 -1.78613e-07 0)
(1.6061e-06 -1.71102e-07 0)
(1.66045e-06 -1.64372e-07 0)
(1.71377e-06 -1.58155e-07 0)
(1.76628e-06 -1.52154e-07 0)
(1.81809e-06 -1.46154e-07 0)
(1.86931e-06 -1.39957e-07 0)
(1.92004e-06 -1.33389e-07 0)
(1.97032e-06 -1.26288e-07 0)
(2.0202e-06 -1.18494e-07 0)
(2.06969e-06 -1.0984e-07 0)
(2.1188e-06 -1.00148e-07 0)
(2.1675e-06 -8.92201e-08 0)
(2.21578e-06 -7.68249e-08 0)
(2.26356e-06 -6.27047e-08 0)
(2.31085e-06 -4.65259e-08 0)
(2.35746e-06 -2.79847e-08 0)
(2.40353e-06 -6.3699e-09 8.69941e-25)
(1.33064e-06 -2.48356e-07 0)
(1.39632e-06 -2.33532e-07 0)
(1.46001e-06 -2.20903e-07 0)
(1.52161e-06 -2.10162e-07 0)
(1.58157e-06 -2.00685e-07 0)
(1.64005e-06 -1.92092e-07 0)
(1.69728e-06 -1.84017e-07 0)
(1.75344e-06 -1.76169e-07 0)
(1.80867e-06 -1.68291e-07 0)
(1.86309e-06 -1.60156e-07 0)
(1.91681e-06 -1.51553e-07 0)
(1.96988e-06 -1.42281e-07 0)
(2.02236e-06 -1.32134e-07 0)
(2.07428e-06 -1.20893e-07 0)
(2.12565e-06 -1.08324e-07 0)
(2.17647e-06 -9.41553e-08 0)
(2.22672e-06 -7.80861e-08 0)
(2.2764e-06 -5.97339e-08 0)
(2.3254e-06 -3.87479e-08 0)
(2.37386e-06 -1.4347e-08 -1.00385e-23)
(1.22093e-06 -3.04638e-07 0)
(1.29355e-06 -2.84736e-07 0)
(1.36387e-06 -2.67741e-07 0)
(1.43173e-06 -2.53203e-07 0)
(1.49751e-06 -2.405e-07 0)
(1.56139e-06 -2.29126e-07 0)
(1.62361e-06 -2.18647e-07 0)
(1.68437e-06 -2.08685e-07 0)
(1.74385e-06 -1.98914e-07 0)
(1.80221e-06 -1.89046e-07 0)
(1.85957e-06 -1.78818e-07 0)
(1.91605e-06 -1.67979e-07 0)
(1.97171e-06 -1.5628e-07 0)
(2.02662e-06 -1.43462e-07 0)
(2.08082e-06 -1.2925e-07 0)
(2.13435e-06 -1.13332e-07 0)
(2.18719e-06 -9.53666e-08 0)
(2.23942e-06 -7.49242e-08 0)
(2.29095e-06 -5.1608e-08 0)
(2.34197e-06 -2.45722e-08 6.16349e-24)
(1.10889e-06 -3.65968e-07 0)
(1.18795e-06 -3.40425e-07 0)
(1.26456e-06 -3.18798e-07 0)
(1.33848e-06 -3.00106e-07 0)
(1.40999e-06 -2.83826e-07 0)
(1.47925e-06 -2.69343e-07 0)
(1.54651e-06 -2.5616e-07 0)
(1.61196e-06 -2.43826e-07 0)
(1.67581e-06 -2.31947e-07 0)
(1.73823e-06 -2.20172e-07 0)
(1.79938e-06 -2.08178e-07 0)
(1.85939e-06 -1.95666e-07 0)
(1.91837e-06 -1.82338e-07 0)
(1.9764e-06 -1.67896e-07 0)
(2.03356e-06 -1.52021e-07 0)
(2.0899e-06 -1.34364e-07 0)
(2.14548e-06 -1.14542e-07 0)
(2.20036e-06 -9.2089e-08 0)
(2.25454e-06 -6.65589e-08 0)
(2.30822e-06 -3.70666e-08 1.79532e-23)
(9.74089e-07 -4.44006e-07 0)
(1.05748e-06 -4.13037e-07 0)
(1.13771e-06 -3.85652e-07 0)
(1.21542e-06 -3.61973e-07 0)
(1.29066e-06 -3.41093e-07 0)
(1.36356e-06 -3.22553e-07 0)
(1.43426e-06 -3.05826e-07 0)
(1.50293e-06 -2.90454e-07 0)
(1.56975e-06 -2.76012e-07 0)
(1.63489e-06 -2.62119e-07 0)
(1.69851e-06 -2.48425e-07 0)
(1.76075e-06 -2.34605e-07 0)
(1.82173e-06 -2.20349e-07 0)
(1.88158e-06 -2.05355e-07 0)
(1.9404e-06 -1.89315e-07 0)
(1.99826e-06 -1.71906e-07 0)
(2.05525e-06 -1.52779e-07 0)
(2.11143e-06 -1.31559e-07 0)
(2.16692e-06 -1.07786e-07 0)
(2.22174e-06 -8.10454e-08 0)
(2.27613e-06 -5.04832e-08 1.87303e-23)
(9.28949e-07 -4.89946e-07 0)
(1.01172e-06 -4.58495e-07 0)
(1.09199e-06 -4.2986e-07 0)
(1.17005e-06 -4.04502e-07 0)
(1.2459e-06 -3.81744e-07 0)
(1.31958e-06 -3.61206e-07 0)
(1.39117e-06 -3.42442e-07 0)
(1.46078e-06 -3.25041e-07 0)
(1.52856e-06 -3.08614e-07 0)
(1.59463e-06 -2.92798e-07 0)
(1.65914e-06 -2.77254e-07 0)
(1.72222e-06 -2.61662e-07 0)
(1.78399e-06 -2.45712e-07 0)
(1.84455e-06 -2.29103e-07 0)
(1.90401e-06 -2.11525e-07 0)
(1.96247e-06 -1.92659e-07 0)
(2.02003e-06 -1.72164e-07 0)
(2.07676e-06 -1.49675e-07 0)
(2.1328e-06 -1.24758e-07 0)
(2.18822e-06 -9.70263e-08 0)
(2.24326e-06 -6.56999e-08 3.81328e-23)
(8.89506e-07 -5.34424e-07 0)
(9.71175e-07 -5.02527e-07 0)
(1.05075e-06 -4.73008e-07 0)
(1.12852e-06 -4.46351e-07 0)
(1.20434e-06 -4.22029e-07 0)
(1.27822e-06 -3.99756e-07 0)
(1.35017e-06 -3.79166e-07 0)
(1.42027e-06 -3.59903e-07 0)
(1.4886e-06 -3.41617e-07 0)
(1.55526e-06 -3.23976e-07 0)
(1.62037e-06 -3.06658e-07 0)
(1.68404e-06 -2.89355e-07 0)
(1.74638e-06 -2.71766e-07 0)
(1.80748e-06 -2.53595e-07 0)
(1.86747e-06 -2.3454e-07 0)
(1.92643e-06 -2.1429e-07 0)
(1.98447e-06 -1.92517e-07 0)
(2.04169e-06 -1.68876e-07 0)
(2.09824e-06 -1.42963e-07 0)
(2.15422e-06 -1.14425e-07 0)
(2.20988e-06 -8.25626e-08 5.50314e-23)
(8.548e-07 -5.77019e-07 0)
(9.34979e-07 -5.44983e-07 0)
(1.01343e-06 -5.14881e-07 0)
(1.09043e-06 -4.87216e-07 0)
(1.16577e-06 -4.61604e-07 0)
(1.23941e-06 -4.3784e-07 0)
(1.3113e-06 -4.15635e-07 0)
(1.3815e-06 -3.94688e-07 0)
(1.45003e-06 -3.74694e-07 0)
(1.51698e-06 -3.55353e-07 0)
(1.58243e-06 -3.36367e-07 0)
(1.64646e-06 -3.17446e-07 0)
(1.70918e-06 -2.98303e-07 0)
(1.77068e-06 -2.78652e-07 0)
(1.83106e-06 -2.58205e-07 0)
(1.89041e-06 -2.36665e-07 0)
(1.94886e-06 -2.13721e-07 0)
(2.00651e-06 -1.89054e-07 0)
(2.06351e-06 -1.62295e-07 0)
(2.12001e-06 -1.33129e-07 0)
(2.17623e-06 -1.00941e-07 4.82814e-23)
(8.24197e-07 -6.17723e-07 0)
(9.02597e-07 -5.85731e-07 0)
(9.79622e-07 -5.55298e-07 0)
(1.05551e-06 -5.26895e-07 0)
(1.13e-06 -5.00254e-07 0)
(1.20303e-06 -4.75243e-07 0)
(1.27454e-06 -4.5164e-07 0)
(1.34451e-06 -4.292e-07 0)
(1.41295e-06 -4.07664e-07 0)
(1.47992e-06 -3.86766e-07 0)
(1.54547e-06 -3.66236e-07 0)
(1.60966e-06 -3.45807e-07 0)
(1.67259e-06 -3.2521e-07 0)
(1.73434e-06 -3.04177e-07 0)
(1.79499e-06 -2.82434e-07 0)
(1.85465e-06 -2.59704e-07 0)
(1.91342e-06 -2.35699e-07 0)
(1.97143e-06 -2.10126e-07 0)
(2.02884e-06 -1.82658e-07 0)
(2.08579e-06 -1.53018e-07 0)
(2.14252e-06 -1.20682e-07 4.87151e-23)
(7.96967e-07 -6.56527e-07 0)
(8.7344e-07 -6.24749e-07 0)
(9.48842e-07 -5.94182e-07 0)
(1.02338e-06 -5.65262e-07 0)
(1.09677e-06 -5.37816e-07 0)
(1.16893e-06 -5.11777e-07 0)
(1.23978e-06 -4.86981e-07 0)
(1.30926e-06 -4.63236e-07 0)
(1.37737e-06 -4.40328e-07 0)