/*--------------------------------*- C++ -*----------------------------------*\
| =========                 |                                                 |
| \\      /  F ield         | foam-extend: Open Source CFD                    |
|  \\    /   O peration     | Version:     4.1                                |
|   \\  /    A nd           | Web:         http://www.foam-extend.org         |
|    \\/     M anipulation  |                                                 |
\*---------------------------------------------------------------------------*/
FoamFile
{
    version     2.0;
    format      ascii;
    class       volSymmTensorField;
    location    "2";
    object      sigma;
}
// * * * * * * * * * * * * * * * * * * * * * * * * * * * * * * * * * * * * * //

dimensions      [1 -1 -2 0 0 0 0];

internalField   nonuniform List<symmTensor> 
1000
(
(175975 -108369 -5.37343e-11 76194.9 -1.02022e-10 75651)
(229101 -84135.6 3.03792e-10 12295 6.57234e-11 72418.8)
(255069 -66781 -3.3023e-10 -16498.1 -2.35564e-10 71571.3)
(269289 -54539.5 -1.26607e-10 -35823.7 -2.9128e-11 70039.5)
(276186 -45224.7 -2.12512e-11 -45279.2 5.67065e-12 69272.1)
(278561 -38229.8 1.33306e-10 -50563.6 8.50014e-11 68399.3)
(278563 -32672 -2.38629e-10 -52426.3 -1.34065e-10 67841)
(276786 -28353.2 5.22948e-11 -52584 3.13751e-11 67260.6)
(274734 -24709.3 -9.55305e-11 -51446.9 -5.61716e-11 66986.1)
(270812 -21586.5 -1.17925e-10 -50204.7 -7.42572e-11 66182.2)
(234620 -130229 1.50844e-10 89430.5 -8.83375e-11 97215)
(272968 -89575.6 -3.05052e-10 26542.8 -8.07455e-11 89853.3)
(289757 -63263.1 -2.8205e-10 -1507.51 -7.56103e-11 86474.8)
(296846 -45902.8 -2.19797e-10 -21573.1 -1.51363e-10 82582)
(298715 -33777.5 -4.80785e-11 -31745.3 -4.28563e-11 80090.9)
(297141 -25384.9 1.91167e-10 -38151.9 1.12394e-10 77696.7)
(294102 -19244.7 -2.23634e-10 -41032.2 -1.5281e-10 75920.9)
(289928 -14913.8 9.06968e-11 -42394.7 7.67448e-11 74259.9)
(285605 -11512.1 -1.68923e-10 -41994.3 -1.30999e-10 73083.2)
(280306 -9085.51 -6.24645e-11 -42280.1 -6.98505e-11 71407.6)
(298468 -146163 1.86278e-10 94759.6 1.13705e-11 117968)
(317490 -91981.1 -2.38252e-10 37960.4 -1.03937e-10 106635)
(322629 -58404.5 2.18439e-10 13454.6 9.84337e-11 100825)
(321227 -36959.3 -1.97165e-10 -5677.35 -9.47342e-11 94665)
(317343 -22667.7 -4.81594e-11 -15595.3 -3.64214e-11 90524.4)
(311466 -13264.9 -1.83896e-10 -22563.2 -1.07577e-10 86670.8)
(305284 -6784.38 3.38731e-16 -26143.5 -9.16027e-16 83742.3)
(298633 -2521.58 -6.32975e-13 -28534.9 8.39853e-13 81029.5)
(292361 558.318 -1.30145e-11 -28952.1 -6.17424e-11 79022.7)
(285383 2799.04 2.02018e-11 -30503.6 -1.53166e-11 76463.8)
(364858 -154279 6.43727e-10 93158.7 -1.28232e-10 137405)
(361231 -90829.5 1.36823e-10 46598.5 1.02005e-10 122349)
(352946 -52433.3 1.02767e-10 27906.2 9.52248e-11 114256)
(342144 -28362.8 5.96701e-11 11085 4.15515e-11 105969)
(332051 -12777.7 4.3109e-10 2194.52 2.58039e-10 100274)
(321727 -2849.19 -3.24345e-12 -4884.04 -7.45241e-12 95052.9)
(312382 3700.5 -1.54412e-12 -8965.44 7.26965e-12 91025)
(303419 7808.79 -4.08668e-12 -12232.8 7.24452e-12 87356)
(295340 10524.1 9.38782e-11 -13570.7 4.65911e-11 84530.7)
(287155 12511.3 -8.82674e-12 -16131.9 -1.88554e-11 81306.8)
(430650 -153287 -4.85857e-10 86193.2 1.24627e-11 155053)
(402645 -85813.4 2.20524e-10 52739.3 8.9809e-11 136615)
(380074 -45575.6 1.81296e-10 41421.9 8.84339e-11 126449)
(359527 -20646.9 1.88662e-10 27911.1 9.75529e-11 116231)
(343125 -4810.55 -1.13353e-10 20628.3 -6.00962e-11 109126)
(328417 5059.04 1.61955e-10 13803 7.30977e-11 102666)
(316062 11361.2 5.11933e-11 9406.41 3.09081e-11 97640.6)
(304971 15179.9 -9.98771e-11 5387.8 -3.68192e-11 93107.5)
(295356 17489.1 2.30806e-10 3095.51 8.92984e-11 89535.3)
(286169 19202.6 2.15206e-11 -366.884 -2.62028e-12 85740.8)
(492455 -142637 -7.04839e-12 75810.3 -5.52738e-14 170480)
(440166 -76880.5 -5.7537e-11 56779.1 -1.74258e-11 149084)
(403472 -38040.3 2.84589e-10 53534.7 1.22902e-10 137102)
(373468 -14164.5 7.45934e-11 43855.7 2.22548e-11 125197)
(351026 807.686 -1.05927e-10 38495 -4.17447e-11 116856)
(332219 9999.08 -2.68994e-10 32162.8 -1.31381e-10 109314)
(317114 15725.9 2.21586e-12 27593.4 -3.68946e-11 103412)
(304148 19109.1 -1.42624e-11 22962.5 4.63466e-11 98133.1)
(293234 20984.9 7.33589e-11 19745.9 5.63308e-11 93894)
(283266 22402.5 1.88286e-10 15533.4 7.72271e-11 89639.8)
(546880 -122596 1.83354e-10 64132.2 -2.38296e-11 183304)
(472288 -64258.4 -9.99134e-11 59198.9 1.41715e-11 159446)
(422693 -30018.9 8.38204e-11 63820 6.21048e-11 145954)
(384159 -9081.11 2.59333e-11 57991.6 -1.82531e-11 132645)
(356327 3932.55 1.50524e-10 54595.3 2.82317e-11 123277)
(333923 11839.1 -5.77088e-12 48864.1 -2.43765e-11 114836)
(316454 16677 4.48898e-11 44222.2 7.27738e-11 108203)
(301910 19484.3 1.56342e-10 39109.9 1.23928e-10 102306)
(289955 20923.1 -7.47903e-11 35057.6 -3.73935e-11 97503.7)
(279374 22039.4 2.15072e-11 30244.7 -3.98059e-11 92885.7)
(590810 -94230.7 0 53218 0 193209)
(497686 -48433.7 4.82774e-10 60484.8 1.46245e-10 167451)
(437412 -21664.5 -5.09236e-10 71898.1 -1.39515e-10 152793)
(391880 -5349.71 -1.93125e-11 69458.4 -3.18972e-11 138401)
(359656 4730.71 -4.85151e-11 67807.6 5.06057e-12 128239)
(334356 10813.1 2.52059e-10 62660.6 9.43947e-11 119105)
(315010 14487.5 8.86592e-11 58006.8 3.41325e-11 111905)
(299236 16594.3 -1.22265e-10 52542.3 -2.27514e-11 105533)
(286496 17606.2 5.17604e-12 47800.2 -2.18029e-11 100289)
(275466 18413.5 -5.84566e-11 42541.4 -4.78945e-11 95402.2)
(621639 -59346.7 3.30007e-10 44833.5 3.35818e-11 199942)
(515245 -30144.7 -2.71155e-11 61052.8 -5.43361e-11 172889)
(447340 -13106.7 -1.69518e-10 77447.5 -3.38597e-11 157436)
(396835 -2739.97 1.41404e-10 77519.4 4.49459e-11 142306)
(361506 3642.8 -5.68328e-11 77170.3 -1.30202e-11 131603)
(334173 7478.69 -1.45135e-10 72480 -2.08365e-11 121996)
(313526 9777.58 9.35965e-14 67839.5 -3.43365e-11 114410)
(296906 11086.4 -1.7106e-12 62144.2 2.05338e-11 107715)
(283644 11687.7 -1.54879e-12 56909.3 1.12061e-11 102166)
(272318 12178.4 -5.95083e-11 51352.2 -3.76393e-11 97101.1)
(637499 -20281.1 -2.77516e-10 40356.6 4.93951e-11 203357)
(524247 -10256 -2.25254e-10 61404.4 -7.56922e-11 175695)
(452388 -4402.88 1.7234e-10 80519.8 5.52515e-11 159872)
(399306 -841.054 -2.69263e-10 81974.8 -3.48518e-11 144384)
(362370 1349.82 1.08671e-10 82349.4 -3.38036e-11 133416)
(333990 2665.03 -4.76175e-11 77921.2 7.26661e-12 123573)
(312673 3450.8 -9.37354e-15 73298.2 3.49147e-11 115791)
(295621 3897.2 -3.84054e-11 67485.1 2.07506e-11 108932)
(282097 4098.38 -1.34696e-10 61989.2 -5.64593e-11 103226)
(270626 4264.52 6.67217e-11 56269.3 4.9567e-12 98068.5)
(-16166.2 5326.98 -3.8176e-11 -234004 1.72813e-10 -75051.2)
(-9920.43 -2381.48 5.67649e-11 -154412 8.12646e-11 -49299.6)
(-2317.2 -6310.53 7.49304e-13 -105641 -3.66085e-11 -32387.6)
(14404.2 -8411.04 -3.00931e-12 -72379.1 2.59552e-11 -17392.5)
(30210.8 -9390.71 -3.41798e-11 -50556 -2.35955e-11 -6103.56)
(47031.3 -9734.92 4.5248e-11 -34916.3 1.86693e-11 3634.5)
(62317.8 -9709.4 6.34091e-12 -23903.9 7.59558e-12 11524.2)
(76872.4 -9486.46 -8.37991e-12 -15538.2 1.38978e-11 18400.3)
(89801.2 -9107.5 4.50671e-11 -9322.87 1.21813e-11 24143.5)
(101922 -8831.37 -4.18542e-12 -3934.06 -6.02349e-12 29396.3)
(-15794 14814.2 2.11074e-12 -222697 7.55315e-12 -71547.3)
(-5466.38 -7472.13 -9.98208e-11 -149260 -1.42899e-10 -46418.1)
(4300.53 -18769.6 7.60931e-11 -103863 7.50025e-11 -29868.8)
(21922.4 -24769.1 5.52437e-11 -72735.2 3.99872e-11 -15243.9)
(38054.4 -27542.5 -1.40676e-11 -52149.2 -1.83145e-11 -4228.44)
(54804.3 -28486.1 -1.50607e-10 -37258.9 -5.56065e-11 5263.6)
(69826.7 -28371.1 -2.48575e-12 -26664.5 -2.10272e-14 12948.6)
(84028.1 -27688.9 -2.54238e-11 -18524.6 -1.54667e-11 19651.1)
(96483.4 -26565.8 1.5949e-11 -12389 -7.74997e-13 25228.3)
(108292 -25740.3 3.95781e-11 -7013.73 -3.24837e-12 30383.4)
(-14890.4 21152.2 -3.09238e-11 -200861 -1.43145e-10 -64725.5)
(2952.86 -13251.5 -7.61133e-11 -139363 -6.6948e-11 -40922.9)
(16491.9 -30589.9 1.18487e-10 -100455 3.10281e-11 -25188.9)
(35685.7 -39724.7 2.56055e-11 -73413.8 2.88162e-11 -11318.4)
(52338.4 -43883.5 6.93805e-11 -55193 3.25804e-11 -856.37)
(68911.2 -45222.3 -6.75939e-11 -41736.4 -3.38019e-11 8152.45)
(83412.3 -44941.2 -1.09553e-10 -31943.4 -3.14803e-11 15440.7)
(96940.2 -43785.1 -3.73213e-11 -24237.5 -8.4439e-12 21810.8)
(108502 -41975.6 1.88456e-12 -18261.7 -1.57686e-13 27072.1)
(119736 -40619.9 5.38112e-11 -12921.4 2.40622e-11 32044.4)
(-12121.5 22741 -1.11091e-10 -170139 -1.57583e-12 -54678.2)
(15790.9 -19958.6 5.03182e-11 -125207 -6.8922e-11 -32824.8)
(34330.1 -41292.7 -3.0063e-10 -95287.1 -2.30402e-10 -18287.1)
(55527.1 -52414 -6.7922e-11 -73938.5 4.45523e-12 -5523.42)
(72775.5 -57340.5 -4.12343e-12 -59018.8 8.85791e-12 4127.03)
(89001.6 -58771.6 8.92295e-11 -47580.5 4.01515e-11 12426.3)
(102707 -58213.1 -2.46301e-11 -38929.5 -1.32205e-13 19133.2)
(115234 -56566.8 7.47571e-11 -31852.3 5.03055e-11 25014.5)
(125522 -54163.9 -1.32712e-10 -26131.7 -2.55477e-11 29817.1)
(135905 -52313.6 1.19399e-10 -20856.2 1.82008e-11 34514.8)
(-6070.56 18420.6 3.00201e-11 -132885 -1.0912e-10 -41686.5)
(33144.2 -27776.4 2.50793e-10 -107653 2.31165e-10 -22352.7)
(57217.4 -50534.3 -2.38852e-10 -88429.5 -1.60108e-10 -9363.65)
(80471.4 -62193.5 -1.11698e-10 -73909.9 -6.04821e-11 1968.45)
(98198.4 -67113.9 9.85173e-11 -62965.3 4.15991e-11 10569.9)
(113826 -68261.3 1.32146e-10 -53986 5.4301e-11 17952)
(126452 -67289.2 7.51379e-11 -46746.8 4.87177e-11 23911.5)
(137664 -65140.6 1.32687e-10 -40465.5 4.0453e-11 29159.4)
(146373 -62260.2 -2.94096e-11 -35102 -3.24617e-11 33381.3)
(155630 -59970.9 -1.81108e-10 -29933.9 -1.80764e-11 37708.9)
(4885.67 7725.14 -2.93463e-12 -91823.8 7.19219e-12 -26081.4)
(55108.8 -36692 1.57655e-10 -87663.6 7.90239e-11 -9766.44)
(84438.1 -58047.6 1.27954e-10 -79879.9 1.15199e-10 1367.47)
(109366 -68656 -6.27938e-11 -72760.3 -4.21483e-11 10981.6)
(127233 -72724.4 -1.1511e-10 -66150.1 -5.0868e-11 18324.8)
(141916 -73182 -7.26358e-11 -59900.2 -2.90088e-11 24604.7)
(153165 -71651.1 1.1718e-10 -54267.6 5.98049e-11 29669.3)
(162764 -68996.6 -1.40384e-10 -48921.4 -7.53613e-11 34152.9)
(169670 -65760.2 2.33187e-10 -44039.3 7.08711e-11 37689.1)
(177537 -63104.3 7.95755e-12 -39044.4 -3.22341e-11 41547.8)
(22337 -9068.57 1.37389e-10 -49883.6 -2.51945e-10 -8263.95)
(81704.2 -46499.4 -4.34917e-10 -66330 -2.38487e-10 4612.26)
(115174 -63666.6 1.48566e-10 -69725.1 9.9812e-11 13634.7)
(140947 -71662.5 -1.35887e-11 -69978.9 3.85926e-11 21290.5)
(158395 -74053.8 6.40878e-11 -67719.9 3.06793e-11 27202.4)
(171700 -73437.2 -2.66919e-11 -64284.9 -9.92742e-12 32224.6)
(181277 -71216.1 -1.63476e-10 -60350.6 -6.91046e-11 36277.8)
(188992 -68073.7 9.43123e-11 -56057.2 4.16516e-11 39880.3)
(193969 -64604.2 -8.57838e-11 -51767.8 -3.76472e-11 42660.3)
(200194 -61660.7 1.78844e-10 -47068 4.47072e-11 45937.8)
(47616.1 -30952.7 -5.11842e-11 -9892.5 7.36061e-11 11317.1)
(112805 -56788.6 -1.41868e-10 -44733.8 -1.66197e-10 20421.4)
(148516 -67310.3 -2.08585e-10 -58088.2 -1.99626e-10 27128.4)
(173887 -71322.2 7.74692e-11 -65112.5 3.79344e-11 32632.4)
(190136 -71319.1 2.06458e-10 -66900 1.00907e-10 36970.8)
(201541 -69303.9 1.8806e-10 -66179.6 9.17531e-11 40608.3)
(209126 -66290.7 -2.93026e-11 -63967.3 5.58466e-12 43547.5)
(214710 -62700.6 1.07913e-10 -60793.9 4.57701e-11 46174.9)
(217705 -59106.5 -1.0613e-10 -57290.1 -7.6188e-11 48124.4)
(222051 -55947.5 3.76896e-11 -53000.5 3.6473e-11 50715)
(81605.3 -56274.2 1.47578e-10 25645.2 1.98726e-10 32175.2)
(148132 -66976.3 2.03923e-10 -23888.4 2.60654e-10 37273.2)
(183572 -68983.1 2.16877e-10 -45154.6 6.08384e-11 41525.3)
(206991 -67983.1 3.14637e-11 -57842.7 -3.26895e-11 44744.6)
(221135 -65062.5 6.55614e-12 -63062.6 -9.68271e-12 47421.8)
(230087 -61445 -4.74875e-12 -64794.4 -1.36306e-12 49587.7)
(235411 -57595.5 1.71584e-10 -64172.6 9.0697e-11 51371.5)
(238648 -53674.5 -2.29119e-10 -62219.1 -1.48491e-10 52928.8)
(239762 -50065.9 2.1174e-10 -59521.4 8.76492e-11 54072.1)
(241906 -46802 2.27894e-11 -56152 1.20752e-11 55726.2)
(124549 -82892.3 2.21184e-10 54765.1 -3.6957e-10 53794.2)
(187141 -76355.1 2.17001e-10 -4660.88 1.06992e-10 54744.1)
(219365 -68769.2 2.90174e-10 -31189.9 1.4579e-10 56452.6)
(239058 -62181.1 1.39682e-10 -48053.5 1.09433e-10 57301.2)
(250040 -56072.2 -2.20632e-10 -55884.2 -1.22438e-10 58246.8)
(255915 -50757.5 -1.97982e-10 -59636.8 -1.08629e-10 58883.6)
(258587 -46083.5 5.19661e-12 -60448.3 -3.0833e-12 59441.5)
(259262 -41917.1 -1.04107e-10 -59562.7 -5.96381e-11 59909.7)
(258452 -38478.7 1.08247e-10 -58012.9 9.95585e-11 60131.8)
(258014 -35224.7 1.47419e-10 -55046.5 3.36789e-11 60890.1)
(112590 -8159.09 2.18898e-11 -381.272 -7.98728e-14 33662.6)
(122293 -7296.57 4.06982e-11 3474.9 -1.2276e-11 37730.5)
(131007 -6609.62 2.19275e-12 6708.41 -2.87631e-14 41314.7)
(139021 -5976.4 -3.47601e-11 9788.29 -1.87644e-11 44642.7)
(146273 -5412.3 -1.38594e-10 12753.9 -6.40841e-12 47708)
(152911 -4912.74 -2.10929e-11 15688 2.52869e-11 50579.7)
(158970 -4463.44 1.22647e-10 18675.9 1.30684e-11 53293.7)
(164516 -4062.04 -1.23045e-10 21758.9 -6.89328e-12 55882.5)
(169596 -3697.63 1.09101e-11 25000.8 3.69449e-11 58379.1)
(174250 -3365.38 6.7523e-11 28442.9 1.2556e-11 60807.8)
(178506 -3057.35 1.14754e-11 32137.4 3.47663e-11 63193.1)
(182396 -2767.67 1.33665e-10 36135.7 1.26427e-11 65559.6)
(185918 -2489.63 1.22485e-10 40487.4 -2.39822e-11 67921.7)
(189114 -2216.58 -1.3299e-10 45267.2 -1.16693e-11 70314.3)
(191912 -1942.01 -1.97519e-10 50517.4 3.41999e-13 72729)
(194437 -1657.58 1.04594e-10 56374 1.6714e-11 75243.2)
(196403 -1356.74 -2.59481e-12 62824 -5.76177e-12 77768)
(198285 -1025.46 7.28397e-11 70187.2 1.40582e-11 80541.6)
(199038 -665.729 6.09466e-11 78200.5 -5.95165e-13 83171.5)
(200552 -216.612 1.52068e-11 87759.3 1.58186e-12 86493.3)
(118193 -23781.7 6.22255e-13 -3274.75 6.85044e-13 34475.4)
(126898 -21309.7 -5.87691e-11 893.433 -6.53733e-12 38337.3)
(134906 -19332.4 3.03813e-11 4439.91 6.77276e-12 41803.9)
(142261 -17510.5 9.74331e-11 7756.26 3.32527e-11 45005.3)
(148998 -15880.4 -5.69474e-11 10954.7 -2.14604e-13 47985.7)
(155180 -14435.7 -8.34088e-11 14070.8 -2.71357e-11 50775.1)
(160866 -13131.9 5.59379e-11 17222.4 2.68123e-11 53426.5)
(166089 -11965.2 1.44417e-11 20436.8 1.30668e-11 55957.6)
(170898 -10903.2 -1.29282e-10 23789.3 -4.04259e-11 58406.1)
(175317 -9933.08 -7.70742e-11 27318.9 -1.41691e-11 60790.7)
(179374 -9031.67 -1.71179e-12 31081.8 -4.81874e-14 63136.7)
(183091 -8182.2 2.36395e-10 35129.5 1.97917e-11 65466.2)
(186465 -7365.25 1.08869e-11 39513 1.08144e-11 67793.4)
(189532 -6561.37 -5.5189e-11 44307 1.13781e-11 70151.8)
(192222 -5751.56 -1.19941e-11 49553.8 -1.32213e-11 72532.6)
(194652 -4911.16 -1.27901e-11 55388 -1.14607e-11 75012.1)
(196541 -4021.06 -4.56909e-11 61796 1.02679e-11 77501.2)
(198360 -3039.56 -3.30788e-11 69093.7 -3.01531e-12 80236)
(199071 -1973.14 1.84125e-10 77016.5 2.51745e-11 82826.2)
(200549 -641.98 4.7359e-11 86449.4 1.19059e-11 86099.5)
(128187 -37598.2 3.42622e-11 -8855.83 -7.25953e-12 35799.3)
(135087 -33867.1 7.41558e-11 -4109.38 2.28814e-11 39293.4)
(141824 -30824.4 -1.89507e-10 43.6621 -1.63441e-11 42560.3)
(147993 -28024.9 2.04721e-11 3808.85 1.51747e-11 45540.6)
(153808 -25485.3 1.04067e-10 7458.27 -5.88423e-12 48380)
(159172 -23230.1 -1.60273e-10 10925.7 -9.84821e-12 51029.3)
(164194 -21178.1 -8.54633e-11 14395.3 -1.56994e-11 53576.9)
(168839 -19335.4 1.9296e-10 17865.2 1.24756e-11 56011.2)
(173165 -17649.5 1.0933e-10 21433.5 -9.14764e-12 58379.4)
(177166 -16103.6 -1.42924e-10 25133.7 -1.88309e-11 60689.9)
(180867 -14661.8 -1.63644e-10 29030 -3.24021e-11 62969.2)
(184278 -13298.7 6.50889e-11 33174.1 3.95472e-12 65235.6)
(187389 -11983.6 1.12476e-10 37619.5 1.83618e-11 67502.5)
(190230 -10685.8 3.90171e-12 42440.9 -1.8508e-11 69801.4)
(192728 -9374.83 7.30291e-12 47680.5 4.81767e-12 72122.6)
(194996 -8010.79 -1.63181e-10 53470.5 -1.7917e-11 74540.1)
(196756 -6562.9 -8.05248e-11 59796.1 -2.43093e-12 76965.5)
(198467 -4962.92 -2.97967e-11 66965.4 -1.27517e-11 79629.7)
(199115 -3222.06 6.32909e-11 74713 1.09962e-11 82148.3)
(200536 -1049.51 5.768e-11 83903.2 2.51582e-11 85331.8)
(142377 -48574.8 3.61967e-11 -16382.5 1.19222e-11 37798.3)
(146733 -44140.5 -3.31569e-11 -10993.8 -4.69131e-13 40721.7)
(151719 -40380.4 1.83686e-11 -6031.64 -1.57104e-11 43706.1)
(156204 -36936.9 -2.52642e-12 -1704.58 -1.65504e-11 46349.8)
(160726 -33733.2 1.29625e-11 2545.81 -7.45522e-12 48981.4)
(164923 -30879.2 -4.59256e-11 6478.65 -9.14223e-12 51420.4)
(169000 -28247.7 -5.75844e-11 10377.1 -1.71473e-11 53813.2)
(172816 -25870.6 -2.7041e-11 14194.7 -1.55474e-11 56103.2)
(176449 -23678.3 1.17715e-11 18058.8 7.52356e-12 58352.2)
(179849 -21656.2 5.04199e-11 21995.9 2.92902e-11 60553.3)
(183037 -19759.3 -8.78749e-11 26078.8 -1.87012e-11 62734.9)
(186004 -17956.4 5.61497e-11 30359.1 1.62207e-11 64909)
(188735 -16208.7 1.31814e-10 34892.7 1.27826e-11 67088.3)
(191248 -14476 -5.32712e-11 39753.6 -1.53926e-11 69300.6)
(193467 -12718.4 -1.219e-10 44983.3 -1.16925e-11 71535.2)
(195499 -10882.4 -7.62858e-11 50709.7 -1.47363e-11 73862.7)
(197069 -8926.75 5.41003e-11 56915.5 -2.81052e-12 76195.4)
(198624 -6758.38 6.52953e-11 63897.4 1.31745e-11 78756.5)
(199180 -4392.26 1.77536e-11 71388.8 2.82743e-12 81170.6)
(200517 -1435.27 -3.97612e-11 80222.2 -2.43452e-11 84221.9)
(159807 -55934.8 6.96449e-11 -25037.4 -1.21394e-11 40430.8)
(161095 -51487.4 3.30117e-11 -19141.7 -4.35984e-11 42586.1)
(164031 -47447.3 -7.48578e-11 -13260.7 1.30241e-11 45231)
(166461 -43780.6 -3.39534e-11 -8340.25 -1.36705e-12 47436.2)
(169420 -40227.5 1.18098e-10 -3400.31 1.41413e-11 49805.8)
(172181 -37042.3 -6.65786e-11 1073 2.12539e-11 51976.1)
(175093 -34046.7 -7.28214e-11 5476.12 -1.9719e-11 54170.7)
(177880 -31313.2 6.01658e-11 9709.87 -1.14528e-11 56276.9)
(180646 -28763.4 -2.91033e-11 13927.9 1.23951e-11 58372.2)
(183292 -26390.1 -1.71043e-12 18149.7 1.36055e-11 60432.5)
(185834 -24145.7 -6.51933e-11 22455.3 -6.01359e-12 62486.8)
(188240 -21996.7 -7.5406e-11 26896.8 -3.76537e-11 64540.9)
(190485 -19899.9 2.28151e-10 31532 2.76942e-11 66605.2)
(192579 -17808.3 2.7123e-11 36433.5 1.33051e-11 68703.9)
(194440 -15675.1 -4.51033e-11 41641.8 -1.12754e-11 70824.7)
(196166 -13434.8 3.44266e-11 47278.4 6.41406e-12 73033.4)
(197489 -11038 -1.49952e-10 53323.1 -3.66385e-11 75243.8)
(198839 -8368.97 6.22539e-11 60055.9 1.89867e-11 77668.5)
(199273 -5445.92 -2.86869e-11 67209.4 -8.02624e-12 79944.6)
(200494 -1786.51 1.33881e-11 75572.3 4.3566e-12 82820)
(179324 -59197.8 -3.24384e-11 -33803.8 -4.17746e-11 43656.1)
(177265 -55476.2 -5.04242e-11 -27798.6 3.2088e-11 44839.9)
(178042 -51625.3 -5.06162e-11 -21073.9 1.54862e-11 47090.3)
(178192 -48197.7 -3.81252e-11 -15667.4 -4.07513e-11 48757.3)
(179423 -44657.8 8.35442e-11 -10084.5 6.10762e-11 50801.6)
(180570 -41446 8.67624e-11 -5082.39 1.56541e-11 52646.4)
(182158 -38344.1 1.36478e-10 -175.605 1.01074e-11 54594.7)
(183773 -35466.1 -1.7245e-10 4494.21 -3.0447e-11 56480.1)
(185541 -32740.1 -1.13922e-10 9089.96 -2.40743e-12 58389.1)
(187317 -30167.3 -1.24753e-11 13627.3 -3.01504e-11 60283.2)
(189107 -27706.2 1.63432e-10 18185.9 1.82917e-11 62188)
(190860 -25323.7 -3.1221e-11 22816.9 -2.86184e-11 64103)
(192539 -22977.4 -9.68206e-11 27576.4 -1.39281e-11 66034.8)
(194142 -20616.1 4.50106e-11 32533.8 2.18985e-11 68002.9)
(195583 -18189.6 -6.39543e-11 37725.7 -1.20338e-11 69992.6)
(196948 -15623.3 -3.41395e-11 43265.2 -7.44909e-12 72064)
(197981 -12861.6 -1.35435e-11 49126.4 -5.51459e-12 74132.1)
(199086 -9769.23 6.99661e-11 55568.1 1.84902e-11 76396.2)
(199377 -6367.14 8.51601e-11 62320.4 2.80922e-11 78509.2)
(200462 -2098.37 -6.70632e-11 70114.3 -4.55019e-11 81172.8)
(199740 -58290.7 -1.42045e-11 -41600.2 1.32481e-11 47441.8)
(194349 -56026.2 2.88166e-11 -35995 1.60489e-11 47506.3)
(193065 -52836.2 1.47674e-10 -28636 1.86659e-11 49328.6)
(190906 -50085.4 -2.34843e-10 -22864.7 -4.71979e-11 50412.3)
(190361 -46933.7 -1.62798e-11 -16756.4 1.8167e-11 52081.4)
(189841 -43986.8 1.57821e-11 -11258.6 -1.7257e-11 53574.6)
(190018 -41035.2 1.66921e-10 -5888.28 5.30538e-11 55239)
(190388 -38217.1 6.67552e-11 -796.874 6.9317e-12 56877.3)
(191073 -35491.9 -9.18716e-11 4158.26 -4.26104e-11 58569.3)
(191902 -32868.9 -4.03604e-11 8995.95 -2.01331e-11 60269.5)
(192864 -30322 -6.53038e-11 13789 -8.58006e-12 61995.8)
(193890 -27822 1.72926e-11 18589.3 8.95469e-12 63743.8)
(194934 -25330.7 5.63679e-11 23449.5 2.65425e-11 65515.1)
(195981 -22796.6 0 28435.3 0 67324.8)
(196941 -20167.7 1.19484e-11 33578.5 -9.81453e-12 69155.9)
(197890 -17363.5 6.53214e-11 38980.8 1.60279e-11 71061.2)
(198584 -14324.4 -3.16789e-11 44610.3 -4.85591e-12 72958.3)
(199400 -10899.8 -1.17453e-10 50698.3 -4.14823e-11 75029.6)
(199519 -7113.58 9.95947e-11 56974.9 3.60043e-11 76948.3)
(200431 -2354.74 -3.02864e-11 64099.9 -2.68451e-11 79359.3)
(219635 -53336.2 1.41624e-10 -47640.9 1.76572e-11 51598.3)
(211214 -53099 -1.12634e-10 -43123.1 -2.45623e-11 50427.2)
(208082 -51026.8 1.01858e-10 -35777.6 4.88392e-11 51691.2)
(203798 -49312.6 3.34271e-11 -29919.6 1.51445e-11 52163.5)
(201495 -46951.8 -2.60426e-10 -23625.9 -9.64302e-11 53360.6)
(199368 -44572.7 6.08317e-11 -17797.6 2.73511e-11 54471.3)
(198111 -42062.5 6.85445e-11 -12097.2 8.71676e-12 55804.1)
(197227 -39542.7 2.45358e-10 -6643.43 6.727e-11 57175.2)
(196795 -37024.5 -6.40878e-11 -1349.9 -8.53919e-12 58633.5)
(196650 -34523.6 -1.79066e-11 3799.86 1.36726e-11 60135)
(196751 -32036.3 1.73892e-11 8857.86 -1.23068e-11 61682.7)
(197024 -29542.3 -1.7174e-11 13868 1.07741e-11 63267.6)
(197407 -27013.2 1.99278e-11 18872.6 2.781e-11 64883.7)
(197874 -24401.2 2.29588e-10 23928.3 5.79018e-11 66540.7)
(198333 -21657.4 -9.7758e-11 29058.2 -3.13769e-11 68217.4)
(198847 -18698.4 -1.87903e-10 34349.7 -5.0437e-11 69958.9)
(199188 -15463.9 1.54097e-10 39761.4 5.15175e-11 71684.8)
(199701 -11791.5 3.00219e-11 45493.4 9.27574e-12 73558.4)
(199645 -7708.12 -8.85432e-11 51272.1 -3.51999e-11 75275.3)
(200383 -2563.08 2.64512e-11 57673.7 1.59414e-11 77416.9)
(238239 -45257 -1.30587e-10 -50914.4 -5.15415e-11 56197.3)
(227445 -47331.4 -4.62205e-11 -47492.3 9.48805e-12 53985.9)
(222689 -46865.8 4.15723e-11 -40874.7 -1.04625e-11 54544.4)
(216753 -46313.3 1.48643e-10 -35030.1 2.92118e-11 54516.7)
(212783 -45009 -1.04259e-10 -28815.2 -1.95006e-11 55190.3)
(209245 -43356.6 -7.79335e-11 -22806.8 7.65299e-12 55931.4)
(206613 -41446.2 0 -16935.4 0 56903.3)
(204533 -39366.9 1.22817e-10 -11274.4 3.77964e-11 57977.4)
(202996 -37189.4 1.78932e-10 -5794.74 6.32584e-11 59160.3)
(201869 -34940.7 6.51942e-11 -480.994 1.03766e-11 60416.3)
(201083 -32636.3 -1.14038e-10 4703.86 -3.49221e-11 61735.9)
(200563 -30266.4 -1.94229e-10 9796.94 -3.56773e-11 63108.1)
(200239 -27810.9 -9.55123e-11 14831.2 -4.46732e-11 64521)
(200077 -25227.5 1.83583e-10 19853.2 4.12788e-11 65978.9)
(199984 -22470.6 2.03717e-10 24875.4 6.94653e-11 67457.8)
(200011 -19457.6 -9.69091e-11 29966.9 -3.4569e-11 68993.4)
(199953 -16129.1 -3.54554e-11 35075.7 -1.59218e-11 70508.6)
(200116 -12317.3 1.26491e-10 40363.4 5.12479e-11 72143.9)
(199851 -8053.88 -1.15847e-10 45559.5 -5.1175e-11 73623.3)
(200360 -2685.27 2.38027e-13 51150.9 1.63843e-13 75453.4)
(252923 -34182.9 1.05648e-10 -52760.3 2.83938e-11 60048.7)
(241935 -37828.7 -7.99132e-11 -50155.2 -1.6051e-11 57533.9)
(235350 -39671.9 2.82548e-12 -45744.5 -2.00803e-11 56881.7)
(228414 -40612.7 -4.02454e-11 -40572 7.74909e-12 56352.6)
(222803 -40840 -7.40342e-11 -34956.8 5.56682e-13 56353.8)
(217959 -40373.9 -6.48709e-11 -29102.8 -3.84387e-11 56656.8)
(213998 -39431.4 -5.40604e-11 -23185.6 -5.96772e-11 57243.8)
(210769 -38103 -3.83244e-12 -17327 2.9335e-12 58032.5)
(208195 -36497.6 4.11246e-12 -11579.7 -2.26775e-12 58984.6)
(206164 -34678.3 1.28507e-10 -5974.98 2.25773e-11 60056.7)
(204583 -32688.5 1.62522e-10 -512.742 6.72049e-11 61221.2)
(203368 -30543.2 -1.02473e-10 4820.12 -5.06467e-11 62456.6)
(202434 -28239.8 -1.61795e-10 10038 -6.08143e-11 63741.6)
(201736 -25749.3 -1.0601e-10 15172 -3.69938e-11 65072.3)
(201178 -23034.8 4.32892e-11 20220.9 2.11071e-11 66419.8)
(200799 -20019.3 2.03192e-12 25234.7 2.24825e-13 67810.2)
(200416 -16646.7 -5.77059e-11 30147.6 -2.00915e-11 69169.1)
(200300 -12748 1.11357e-12 35082.4 2.76665e-13 70614.6)
(199902 -8355.75 5.60345e-11 39772.1 2.59821e-11 71902.4)
(200280 -2799.52 -1.50773e-11 44611.7 -1.16937e-11 73467.4)
(262719 -25012.7 3.83804e-11 -50255.5 2.22789e-11 63738.9)
(252941 -28088.5 7.64223e-11 -47022.6 5.23115e-11 61775.5)
(244907 -31690.5 7.93169e-11 -44333.5 2.32424e-11 60171.9)
(237622 -33688.4 2.14168e-11 -40288.2 3.49834e-12 59200.2)
(231279 -34980.3 2.81739e-11 -35512.6 3.75992e-11 58730)
(225746 -35506.8 7.22816e-12 -30332.1 -2.46359e-11 58624.1)
(221029 -35445 -1.47648e-10 -24907.8 -5.47814e-11 58836.3)
(217023 -34893.8 -5.27624e-11 -19412.3 -1.17857e-11 59283.2)
(213672 -33950.6 5.25157e-11 -13926.4 1.14029e-11 59923.6)
(210882 -32686.9 -6.44769e-11 -8513.57 -1.30065e-11 60710.4)
(208576 -31153.6 1.64331e-10 -3202.15 7.20401e-11 61612.1)
(206680 -29377.5 1.00755e-10 1995.48 3.96901e-11 62602.6)
(205117 -27366.9 -1.47804e-11 7071.48 1.13062e-11 63656.5)
(203844 -25105.2 3.71315e-11 12034.3 2.26396e-11 64763.6)
(202777 -22565.1 5.87722e-11 16864.7 1.70101e-11 65892.5)
(201942 -19682.1 -4.1235e-12 21585.6 -1.11704e-12 67058.3)
(201187 -16408.6 3.50836e-11 26117.6 1.80646e-11 68191.3)
(200736 -12589.2 1.86335e-11 30535 5.73778e-12 69381.2)
(200136 -8264.68 -5.61403e-11 34568.5 -2.70056e-11 70411.4)
(200267 -2776.36 -2.76145e-11 38526.3 -3.06302e-11 71637.9)
(262029 -17676.4 -2.62661e-10 -44442.5 -8.51095e-11 65276.1)
(254930 -21077.9 -1.29072e-10 -43705.7 -7.46964e-11 63367.2)
(247685 -24959.4 1.12963e-10 -41487.3 5.97838e-12 61859.4)
(241103 -27606.8 -6.25775e-11 -38216.8 4.03018e-11 60865.7)
(235107 -29497.9 -1.20426e-10 -34101.3 -6.05747e-11 60301.7)
(229724 -30646.9 1.45688e-10 -29507.1 3.63805e-11 60065)
(224972 -31179.7 -1.34768e-24 -24596.3 -5.43871e-25 60112.7)
(220802 -31187.1 -1.54042e-10 -19540.1 -8.44281e-11 60378.5)
(217186 -30753.8 -2.90773e-25 -14432.5 -2.26189e-25 60826.2)
(214066 -29945.8 -4.06667e-11 -9350.68 -3.03834e-11 61414.5)
(211386 -28811.7 -3.97776e-11 -4339.81 -2.85323e-11 62114)
(209094 -27380.1 6.27698e-11 569.439 1.54393e-11 62899.1)
(207129 -25663.8 -6.15631e-11 5352.45 -1.61539e-11 63744.5)
(205459 -23653.4 -1.7949e-24 9997.86 -5.54266e-25 64637.1)
(204015 -21330 5.94526e-11 14471.9 1.85448e-11 65546.2)
(202824 -18641.3 -5.85404e-11 18773.2 -2.02612e-11 66479.1)
(201763 -15550.5 -3.57099e-11 22813.4 -1.91319e-11 67372.9)
(201028 -11923 5.6989e-11 26626.9 2.49096e-11 68296.4)
(200262 -7810.65 -6.99598e-25 29951.7 -3.45097e-25 69064.2)
(200207 -2616.64 -1.6962e-11 33013.4 -1.58658e-11 69966)
(261789 -10225.1 -5.28172e-11 -39025.5 -3.56961e-11 66829.1)
(255295 -14116.7 1.21647e-10 -39230 1.49144e-11 64819.6)
(249061 -18298.5 -1.59501e-10 -38007.1 -5.32942e-11 63316)
(242989 -21435.3 4.25257e-11 -35669.2 4.2019e-11 62195.9)
(237374 -23851.1 2.37941e-11 -32384.9 -7.70657e-11 61496.8)
(232170 -25565.9 -9.04998e-25 -28511.4 -4.33264e-25 61097.5)
(227472 -26656.1 2.98209e-11 -24210.5 -1.78022e-11 60978.5)
(223244 -27201.4 -6.96295e-11 -19669.7 -1.777e-11 61072.4)
(219491 -27267.6 -4.05382e-11 -14996.9 -3.27793e-11 61348.3)
(216172 -26914 -9.54316e-25 -10288.3 -3.83033e-25 61765)
(213254 -26184.7 -3.93135e-11 -5606.98 -2.91538e-11 62294.2)
(210698 -25109.4 -6.64362e-25 -1002.19 -1.79611e-25 62908.9)
(208461 -23703.8 -1.38493e-10 3484.63 -6.93977e-11 63583.6)
(206517 -21965.1 -7.51996e-11 7823.71 -4.84988e-11 64302.2)
(204816 -19882.4 2.29343e-11 11967.1 -2.77676e-12 65034.8)
(203381 -17415 2.25002e-11 15891.5 2.03673e-13 65781.7)
(202121 -14538.2 -3.60868e-11 19500 -2.01739e-11 66486.3)
(201200 -11138.2 -1.7876e-26 22791.8 6.98967e-27 67197.6)
(200350 -7278.83 -3.50484e-11 25515.6 -1.81378e-11 67759.7)
(200164 -2429.9 -7.37893e-11 27827.1 -8.21038e-11 68397.3)
(259583 -4483.65 2.12406e-11 -33946.4 -3.09461e-11 67690.9)
(253989 -8307.77 -8.08372e-11 -34943.8 -3.05316e-11 65713.6)
(248727 -12530 -3.33999e-25 -34327.4 -1.63686e-25 64319.9)
(243308 -15895.5 3.80992e-11 -32673.3 -1.55739e-11 63190.5)
(238229 -18637.5 3.95912e-11 -30048.6 3.97166e-11 62454.1)
(233372 -20742.1 6.42247e-25 -26796.2 1.91323e-25 61972.6)
(228893 -22249.6 8.53674e-26 -23064.1 -2.33352e-25 61748.8)
(224764 -23217.6 -3.04693e-11 -19036.3 1.50744e-11 61718.4)
(221019 -23694.5 0 -14824.7 0 61858.2)
(217634 -23728.9 -1.61187e-24 -10533.4 -6.91641e-25 62130)
(214597 -23358.3 0 -6236.05 0 62508.3)
(211884 -22610.3 1.27877e-10 -1994.72 3.75785e-11 62966.8)
(209467 -21501.7 2.48711e-11 2136.65 -6.99357e-12 63481.2)
(207332 -20034.2 -9.89338e-11 6113.44 -4.50726e-11 64033.6)
(205443 -18203.4 -3.7005e-11 9876.37 -2.34941e-11 64595.7)
(203824 -15979.5 -5.9535e-11 13384.2 -2.28723e-11 65162.3)
(202411 -13348.8 -2.25308e-11 16534.3 -3.60863e-12 65683.7)
(201342 -10219.4 5.80274e-11 19297.6 2.69457e-11 66191.7)
(200427 -6663.11 5.74769e-11 21438.2 2.95224e-11 66559.7)
(200125 -2218.85 -5.71785e-11 23048.9 -6.55457e-11 66952.1)
(256105 326.257 -1.59651e-11 -29142.2 5.08329e-11 68088.8)
(251361 -3409.9 -3.3913e-11 -30659.5 -4.15917e-11 66210.5)
(247027 -7547.69 -1.13367e-10 -30563.4 -6.97098e-11 64939)
(242290 -10985.4 -4.04334e-11 -29530.4 1.33269e-11 63827.9)
(237799 -13901.7 1.1193e-10 -27524.5 6.3879e-11 63082.3)
(233369 -16254.1 7.33428e-11 -24873.5 2.34573e-11 62548.7)
(229209 -18057.2 -8.82594e-25 -21700.6 -5.24495e-25 62252.4)
(225287 -19346 -7.00525e-11 -18187.5 -2.12606e-11 62129.8)
(221663 -20151.4 6.84814e-11 -14445.2 2.05972e-11 62165.4)
(218327 -20509.5 -3.78347e-11 -10583.9 -3.1303e-11 62322.8)
(215283 -20449.8 -3.76957e-11 -6684.77 -2.97391e-11 62579.5)
(212521 -19995.6 2.67336e-11 -2819.99 -7.88959e-12 62910.2)
(210025 -19163.1 3.72688e-11 946.61 2.67682e-11 63291.6)
(207792 -17956.9 0 4558.49 0 63705.2)
(205800 -16378.1 0 7947.44 0 64124.3)
(204074 -14406.8 -5.991e-11 11057.7 -2.40158e-11 64539.5)
(202576 -12039.5 1.05529e-24 13783.4 5.01979e-25 64907.7)
(201414 -9205.93 2.28194e-11 16072.3 6.62708e-12 65246)