/*--------------------------------*- C++ -*----------------------------------*\
| =========                 |                                                 |
| \\      /  F ield         | foam-extend: Open Source CFD                    |
|  \\    /   O peration     | Version:     4.1                                |
|   \\  /    A nd           | Web:         http://www.foam-extend.org         |
|    \\/     M anipulation  |                                                 |
\*---------------------------------------------------------------------------*/
FoamFile
{
    version     2.0;
    format      ascii;
    class       regIOobject;
    location    "1/uniform";
    object      profilingInfo;
}
// * * * * * * * * * * * * * * * * * * * * * * * * * * * * * * * * * * * * * //

profilingInfo
(

    {
        id              7;
        parentId        6;
        description     "Foam::Time::writeObject - outputTime";
        calls           1;
        totalTime       2.205983;
        childTime       0;
        onStack         1;
    }

    {
        id              6;
        parentId        1;
        description     "Foam::Time::writeObject";
        calls           1;
        totalTime       2.206592;
        childTime       2.205983;
        onStack         1;
    }

    {
        id              1;
        description     "application::main";
        calls           1;
        totalTime       137.972323;
        childTime       111.1355539999999;
        onStack         1;
    }

    {
        id              2;
        parentId        1;
        description     "functionObjectList::read";
        calls           1;
        totalTime       1.6e-05;
        childTime       0;
        onStack         0;
    }

    {
        id              3;
        parentId        1;
        description     "fvMatrix::solve_D";
        calls           168;
        totalTime       108.928946;
        childTime       108.4489730000001;
        onStack         0;
    }

    {
        id              4;
        parentId        3;
        description     "lduMatrix::solver_Dx";
        calls           168;
        totalTime       45.69217899999997;
        childTime       0;
        onStack         0;
    }

    {
        id              5;
        parentId        3;
        description     "lduMatrix::solver_Dy";
        calls           168;
        totalTime       62.75679400000001;
        childTime       0;
        onStack         0;
    }
);


// ************************************************************************* //
