/*--------------------------------*- C++ -*----------------------------------*\
| =========                 |                                                 |
| \\      /  F ield         | foam-extend: Open Source CFD                    |
|  \\    /   O peration     | Version:     4.1                                |
|   \\  /    A nd           | Web:         http://www.foam-extend.org         |
|    \\/     M anipulation  |                                                 |
\*---------------------------------------------------------------------------*/
FoamFile
{
    version     2.0;
    format      ascii;
    class       volScalarField;
    location    "10";
    object      epsilonEq;
}
// * * * * * * * * * * * * * * * * * * * * * * * * * * * * * * * * * * * * * //

dimensions      [0 0 0 0 0 0 0];

internalField   nonuniform List<scalar> 
100000
(
4.13989e-06
4.09647e-06
4.07771e-06
4.08748e-06
4.11698e-06
4.16423e-06
4.22453e-06
4.29516e-06
4.37318e-06
4.45641e-06
4.54294e-06
4.63127e-06
4.72019e-06
4.80872e-06
4.89611e-06
4.98178e-06
5.06529e-06
5.1463e-06
5.22458e-06
5.29995e-06
5.37232e-06
5.44162e-06
5.50783e-06
5.57095e-06
5.63101e-06
5.68806e-06
5.74216e-06
5.79336e-06
5.8418e-06
5.88738e-06
5.93066e-06
5.97097e-06
6.00949e-06
6.04558e-06
6.07882e-06
6.11031e-06
6.13938e-06
6.16664e-06
6.19194e-06
6.21544e-06
6.23719e-06
6.25728e-06
6.27576e-06
6.29271e-06
6.30821e-06
6.32231e-06
6.33507e-06
6.34656e-06
6.35684e-06
6.36597e-06
6.37398e-06
6.38095e-06
6.38691e-06
6.39191e-06
6.396e-06
6.39922e-06
6.40161e-06
6.40321e-06
6.40406e-06
6.40419e-06
6.40365e-06
6.40245e-06
6.40064e-06
6.39824e-06
6.39529e-06
6.3918e-06
6.3878e-06
6.38332e-06
6.37838e-06
6.37301e-06
6.36722e-06
6.36103e-06
6.35448e-06
6.34756e-06
6.34031e-06
6.33274e-06
6.32487e-06
6.3167e-06
6.30827e-06
6.29958e-06
6.29063e-06
6.28145e-06
6.27205e-06
6.26246e-06
6.25269e-06
6.24275e-06
6.2326e-06
6.22227e-06
6.21178e-06
6.20113e-06
6.19035e-06
6.17942e-06
6.16839e-06
6.15722e-06
6.14599e-06
6.1346e-06
6.12334e-06
6.11172e-06
6.10121e-06
6.08872e-06
4.28922e-06
4.23923e-06
4.21307e-06
4.21529e-06
4.23709e-06
4.27678e-06
4.32975e-06
4.39341e-06
4.46485e-06
4.54195e-06
4.62278e-06
4.70586e-06
4.78993e-06
4.87401e-06
4.95732e-06
5.03925e-06
5.11933e-06
5.19719e-06
5.27258e-06
5.3453e-06
5.41522e-06
5.48227e-06
5.5464e-06
5.60761e-06
5.6659e-06
5.72132e-06
5.7739e-06
5.82373e-06
5.8708e-06
5.91538e-06
5.95731e-06
5.99702e-06
6.03302e-06
6.06899e-06
6.10147e-06
6.13202e-06
6.16045e-06
6.18703e-06
6.2117e-06
6.2346e-06
6.25577e-06
6.27529e-06
6.29325e-06
6.3097e-06
6.32472e-06
6.33837e-06
6.35071e-06
6.36179e-06
6.37169e-06
6.38044e-06
6.38811e-06
6.39474e-06
6.40039e-06
6.40509e-06
6.40889e-06
6.41183e-06
6.41395e-06
6.4153e-06
6.41592e-06
6.41582e-06
6.41506e-06
6.41365e-06
6.41164e-06
6.40905e-06
6.4059e-06
6.40223e-06
6.39806e-06
6.39341e-06
6.38831e-06
6.38278e-06
6.37684e-06
6.37051e-06
6.36381e-06
6.35676e-06
6.34938e-06
6.34167e-06
6.33368e-06
6.32539e-06
6.31684e-06
6.30804e-06
6.29898e-06
6.28967e-06
6.28017e-06
6.27046e-06
6.26062e-06
6.25062e-06
6.24038e-06
6.22996e-06
6.21937e-06
6.20864e-06
6.19778e-06
6.1868e-06
6.17572e-06
6.16454e-06
6.15329e-06
6.14197e-06
6.13065e-06
6.11926e-06
6.10791e-06
6.09647e-06
4.43849e-06
4.38198e-06
4.34852e-06
4.3433e-06
4.35751e-06
4.38974e-06
4.43545e-06
4.49218e-06
4.55706e-06
4.62802e-06
4.70314e-06
4.78092e-06
4.8601e-06
4.93968e-06
5.01885e-06
5.09697e-06
5.17355e-06
5.2482e-06
5.32063e-06
5.39062e-06
5.45804e-06
5.52278e-06
5.58478e-06
5.64402e-06
5.70049e-06
5.75423e-06
5.80527e-06
5.85369e-06
5.89947e-06
5.9429e-06
5.98356e-06
6.02224e-06
6.05801e-06
6.09151e-06
6.12353e-06
6.15303e-06
6.18088e-06
6.20668e-06
6.23069e-06
6.25293e-06
6.27349e-06
6.29243e-06
6.30984e-06
6.32577e-06
6.3403e-06
6.35348e-06
6.36538e-06
6.37605e-06
6.38555e-06
6.39393e-06
6.40124e-06
6.40753e-06
6.41284e-06
6.41723e-06
6.42073e-06
6.42339e-06
6.42525e-06
6.42634e-06
6.42671e-06
6.42638e-06
6.4254e-06
6.42378e-06
6.42156e-06
6.41876e-06
6.41543e-06
6.41157e-06
6.40723e-06
6.40241e-06
6.39715e-06
6.39146e-06
6.38537e-06
6.37889e-06
6.37205e-06
6.36486e-06
6.35735e-06
6.34951e-06
6.3414e-06
6.33299e-06
6.32436e-06
6.31548e-06
6.30627e-06
6.29682e-06
6.28721e-06
6.27738e-06
6.26749e-06
6.25744e-06
6.24708e-06
6.23654e-06
6.22587e-06
6.21505e-06
6.20412e-06
6.19307e-06
6.18192e-06
6.17068e-06
6.15935e-06
6.14794e-06
6.13647e-06
6.12491e-06
6.11317e-06
6.10139e-06
4.58764e-06
4.52469e-06
4.48402e-06
4.47147e-06
4.47819e-06
4.50305e-06
4.54156e-06
4.59141e-06
4.64976e-06
4.71458e-06
4.78396e-06
4.85642e-06
4.93067e-06
5.00569e-06
5.08066e-06
5.15492e-06
5.22793e-06
5.2993e-06
5.36871e-06
5.43592e-06
5.50077e-06
5.56314e-06
5.62295e-06
5.68016e-06
5.73476e-06
5.78676e-06
5.83618e-06
5.88307e-06
5.92747e-06
5.96945e-06
6.00906e-06
6.04615e-06
6.08086e-06
6.11409e-06
6.14505e-06
6.17374e-06
6.20064e-06
6.22565e-06
6.24891e-06
6.27046e-06
6.29037e-06
6.30871e-06
6.32554e-06
6.34094e-06
6.35496e-06
6.36766e-06
6.3791e-06
6.38934e-06
6.39843e-06
6.40642e-06
6.41336e-06
6.4193e-06
6.42428e-06
6.42835e-06
6.43155e-06
6.43392e-06
6.43549e-06
6.43632e-06
6.43644e-06
6.43588e-06
6.43467e-06
6.43283e-06
6.4304e-06
6.42741e-06
6.42388e-06
6.41984e-06
6.41531e-06
6.41032e-06
6.4049e-06
6.39905e-06
6.39281e-06
6.38619e-06
6.37922e-06
6.3719e-06
6.36426e-06
6.3563e-06
6.34807e-06
6.33952e-06
6.33077e-06
6.3218e-06
6.3125e-06
6.30287e-06
6.29311e-06
6.28305e-06
6.27322e-06
6.26329e-06
6.25277e-06
6.24211e-06
6.23131e-06
6.22041e-06
6.2094e-06
6.19829e-06
6.18707e-06
6.17575e-06
6.16433e-06
6.15281e-06
6.14118e-06
6.12948e-06
6.11742e-06
6.10555e-06
4.73666e-06
4.66731e-06
4.61952e-06
4.59974e-06
4.59906e-06
4.61663e-06
4.64802e-06
4.69104e-06
4.74288e-06
4.80156e-06
4.8652e-06
4.93231e-06
5.00159e-06
5.07201e-06
5.14273e-06
5.21306e-06
5.28245e-06
5.35048e-06
5.4168e-06
5.48117e-06
5.54339e-06
5.60333e-06
5.6609e-06
5.71603e-06
5.7687e-06
5.81891e-06
5.86666e-06
5.912e-06
5.95494e-06
5.99554e-06
6.03382e-06
6.06977e-06
6.10377e-06
6.13584e-06
6.16567e-06
6.19352e-06
6.21957e-06
6.24379e-06
6.2663e-06
6.28714e-06
6.30639e-06
6.32411e-06
6.34036e-06
6.3552e-06
6.36869e-06
6.3809e-06
6.39187e-06
6.40166e-06
6.41033e-06
6.41792e-06
6.42449e-06
6.43007e-06
6.43471e-06
6.43845e-06
6.44134e-06
6.4434e-06
6.44469e-06
6.44526e-06
6.44513e-06
6.44432e-06
6.44288e-06
6.44082e-06
6.43818e-06
6.43498e-06
6.43125e-06
6.42702e-06
6.42231e-06
6.41715e-06
6.41156e-06
6.40556e-06
6.39917e-06
6.3924e-06
6.38529e-06
6.37783e-06
6.37005e-06
6.36195e-06
6.35361e-06
6.34487e-06
6.33618e-06
6.32721e-06
6.31765e-06
6.30779e-06
6.29804e-06
6.28783e-06
6.27802e-06
6.26795e-06
6.25729e-06
6.24636e-06
6.23561e-06
6.22465e-06
6.21361e-06
6.20243e-06
6.19114e-06
6.17974e-06
6.16823e-06
6.15662e-06
6.14487e-06
6.13307e-06
6.1209e-06
6.10904e-06
4.8855e-06
4.80981e-06
4.75497e-06
4.72806e-06
4.72008e-06
4.73045e-06
4.75478e-06
4.79101e-06
4.83637e-06
4.88893e-06
4.94682e-06
5.00855e-06
5.07283e-06
5.13861e-06
5.20503e-06
5.27138e-06
5.3371e-06
5.40172e-06
5.46491e-06
5.52637e-06
5.58591e-06
5.64336e-06
5.69863e-06
5.75163e-06
5.80232e-06
5.85068e-06
5.89673e-06
5.94046e-06
5.98192e-06
6.02112e-06
6.05814e-06
6.09296e-06
6.12574e-06
6.1567e-06
6.18561e-06
6.21258e-06
6.23776e-06
6.26116e-06
6.2829e-06
6.30302e-06
6.32158e-06
6.33865e-06
6.35429e-06
6.36856e-06
6.38151e-06
6.39321e-06
6.4037e-06
6.41303e-06
6.42127e-06
6.42845e-06
6.43462e-06
6.43983e-06
6.44413e-06
6.44753e-06
6.45011e-06
6.45187e-06
6.45285e-06
6.45314e-06
6.45277e-06
6.45172e-06
6.45004e-06
6.44775e-06
6.44489e-06
6.44148e-06
6.43755e-06
6.43313e-06
6.42824e-06
6.42291e-06
6.41715e-06
6.41099e-06
6.40445e-06
6.39754e-06
6.3903e-06
6.38273e-06
6.37487e-06
6.36668e-06
6.35834e-06
6.34947e-06
6.34089e-06
6.3314e-06
6.32148e-06
6.31207e-06
6.30194e-06
6.29122e-06
6.28178e-06
6.2719e-06
6.26048e-06
6.24971e-06
6.23876e-06
6.22785e-06
6.21674e-06
6.20553e-06
6.19417e-06
6.1827e-06
6.1711e-06
6.15941e-06
6.14757e-06
6.13571e-06
6.12347e-06
6.11166e-06
5.03412e-06
4.95214e-06
4.89034e-06
4.85638e-06
4.84119e-06
4.84444e-06
4.86178e-06
4.89127e-06
4.93018e-06
4.97664e-06
5.02877e-06
5.08511e-06
5.14436e-06
5.20546e-06
5.26753e-06
5.32985e-06
5.39184e-06
5.45301e-06
5.513e-06
5.57151e-06
5.62831e-06
5.68322e-06
5.73613e-06
5.78695e-06
5.83561e-06
5.88209e-06
5.92637e-06
5.96847e-06
6.0084e-06
6.04618e-06
6.08187e-06
6.11549e-06
6.14718e-06
6.17699e-06
6.20486e-06
6.23089e-06
6.25517e-06
6.27774e-06
6.29869e-06
6.31806e-06
6.33593e-06
6.35234e-06
6.36735e-06
6.38103e-06
6.39343e-06
6.4046e-06
6.41459e-06
6.42345e-06
6.43124e-06
6.438e-06
6.44378e-06
6.44861e-06
6.45255e-06
6.45561e-06
6.45788e-06
6.45929e-06
6.45994e-06
6.45999e-06
6.45938e-06
6.45808e-06
6.45616e-06
6.45363e-06
6.45055e-06
6.44692e-06
6.44279e-06
6.43817e-06
6.4331e-06
6.42759e-06
6.42166e-06
6.41533e-06
6.40864e-06
6.40158e-06
6.39419e-06
6.38649e-06
6.37845e-06
6.37016e-06
6.3615e-06
6.35245e-06
6.3437e-06
6.33206e-06
6.32485e-06
6.31473e-06
6.30517e-06
6.29421e-06
6.28726e-06
6.27141e-06
6.26367e-06
6.25216e-06
6.24142e-06
6.23035e-06
6.21909e-06
6.20775e-06
6.19626e-06
6.18469e-06
6.173e-06
6.16122e-06
6.14931e-06
6.1374e-06
6.12509e-06
6.11333e-06
5.1825e-06
5.09427e-06
5.02557e-06
4.98465e-06
4.96234e-06
4.95855e-06
4.96897e-06
4.99177e-06
5.02426e-06
5.06462e-06
5.111e-06
5.16194e-06
5.21613e-06
5.27252e-06
5.33021e-06
5.38846e-06
5.44666e-06
5.50434e-06
5.56107e-06
5.61657e-06
5.67058e-06
5.7229e-06
5.77341e-06
5.82199e-06
5.86857e-06
5.91312e-06
5.95561e-06
5.99603e-06
6.0344e-06
6.07073e-06
6.10506e-06
6.13744e-06
6.16792e-06
6.19659e-06
6.22341e-06
6.24848e-06
6.27184e-06
6.29355e-06
6.31369e-06
6.33229e-06
6.34944e-06
6.36517e-06
6.37954e-06
6.39261e-06
6.40444e-06
6.41507e-06
6.42454e-06
6.43292e-06
6.44025e-06
6.44657e-06
6.45194e-06
6.45637e-06
6.45995e-06
6.46265e-06
6.46462e-06
6.46572e-06
6.46607e-06
6.46583e-06
6.46496e-06
6.46342e-06
6.46123e-06
6.45847e-06
6.45515e-06
6.45131e-06
6.44697e-06
6.44215e-06
6.43689e-06
6.43119e-06
6.42509e-06
6.4186e-06
6.41174e-06
6.40452e-06
6.39696e-06
6.38909e-06
6.38088e-06
6.37242e-06
6.36355e-06
6.35469e-06
6.34521e-06
6.3362e-06
6.32679e-06
6.31645e-06
6.30662e-06
6.29681e-06
6.28549e-06
6.27479e-06
6.26487e-06
6.25384e-06
6.24291e-06
6.23163e-06
6.2203e-06
6.20883e-06
6.19727e-06
6.18561e-06
6.17385e-06
6.16201e-06
6.15004e-06
6.13809e-06
6.12573e-06
6.11401e-06
5.33058e-06
5.23616e-06
5.16063e-06
5.11283e-06
5.08348e-06
5.07272e-06
5.07629e-06
5.09245e-06
5.11856e-06
5.15285e-06
5.19348e-06
5.239e-06
5.28812e-06
5.33977e-06
5.39303e-06
5.44717e-06
5.50155e-06
5.55567e-06
5.60911e-06
5.66155e-06
5.71271e-06
5.7624e-06
5.81045e-06
5.85675e-06
5.90121e-06
5.94378e-06
5.98443e-06
6.02314e-06
6.05991e-06
6.09475e-06
6.12769e-06
6.15877e-06
6.18804e-06
6.21554e-06
6.24129e-06
6.26535e-06
6.28777e-06
6.30859e-06
6.32789e-06
6.34572e-06
6.36212e-06
6.37715e-06
6.39087e-06
6.40332e-06
6.41456e-06
6.42463e-06
6.43358e-06
6.44147e-06
6.44833e-06
6.4542e-06
6.45915e-06
6.46319e-06
6.46641e-06
6.46876e-06
6.47048e-06
6.47108e-06
6.47105e-06
6.47067e-06
6.46966e-06
6.46774e-06
6.46529e-06
6.46226e-06
6.4587e-06
6.45464e-06
6.45008e-06
6.44507e-06
6.43962e-06
6.43375e-06
6.42747e-06
6.42082e-06
6.4138e-06
6.40643e-06
6.39874e-06
6.39072e-06
6.38241e-06
6.3738e-06
6.36496e-06
6.3558e-06
6.34668e-06
6.33729e-06
6.32735e-06
6.31715e-06
6.30716e-06
6.29675e-06
6.28644e-06
6.27581e-06
6.26491e-06
6.25377e-06
6.24279e-06
6.23155e-06
6.22022e-06
6.20874e-06
6.19716e-06
6.18546e-06
6.17366e-06
6.16178e-06
6.14977e-06
6.13779e-06
6.12537e-06
6.11368e-06
5.47835e-06
5.37777e-06
5.29548e-06
5.24087e-06
5.20456e-06
5.18692e-06
5.1837e-06
5.19327e-06
5.21304e-06
5.24127e-06
5.27616e-06
5.31626e-06
5.36029e-06
5.40717e-06
5.45598e-06
5.50597e-06
5.55648e-06
5.607e-06
5.6571e-06
5.70643e-06
5.7547e-06
5.8017e-06
5.84725e-06
5.89122e-06
5.93352e-06
5.97408e-06
6.01284e-06
6.0498e-06
6.08493e-06
6.11825e-06
6.14976e-06
6.17951e-06
6.20752e-06
6.23384e-06
6.25849e-06
6.28151e-06
6.30296e-06
6.32288e-06
6.34132e-06
6.35834e-06
6.37398e-06
6.38829e-06
6.40134e-06
6.41315e-06
6.42379e-06
6.43329e-06
6.44171e-06
6.44908e-06
6.45545e-06
6.46086e-06
6.46536e-06
6.46896e-06
6.47175e-06
6.47359e-06
6.47498e-06
6.47494e-06
6.47525e-06
6.47503e-06
6.4731e-06
6.47113e-06
6.46826e-06
6.46502e-06
6.4612e-06
6.45692e-06
6.45216e-06
6.44695e-06
6.44131e-06
6.43526e-06
6.42881e-06
6.42199e-06
6.41481e-06
6.4073e-06
6.39946e-06
6.39132e-06
6.38289e-06
6.3742e-06
6.36525e-06
6.35608e-06
6.34672e-06
6.33709e-06
6.32717e-06
6.31712e-06
6.30693e-06
6.29664e-06
6.28589e-06
6.27491e-06
6.26407e-06
6.25303e-06
6.24193e-06
6.23064e-06
6.21924e-06
6.20771e-06
6.19607e-06
6.18432e-06
6.17247e-06
6.16055e-06
6.14849e-06
6.13648e-06
6.12402e-06
6.11235e-06
5.62575e-06
5.51906e-06
5.43007e-06
5.36874e-06
5.32555e-06
5.30109e-06
5.29114e-06
5.29418e-06
5.30764e-06
5.32985e-06
5.359e-06
5.39368e-06
5.43261e-06
5.4747e-06
5.51903e-06
5.56483e-06
5.61144e-06
5.65832e-06
5.70503e-06
5.7512e-06
5.79654e-06
5.8408e-06
5.88381e-06
5.92541e-06
5.96551e-06
6.004e-06
6.04085e-06
6.07601e-06
6.10947e-06
6.14122e-06
6.17128e-06
6.19966e-06
6.22639e-06
6.2515e-06
6.27501e-06
6.29697e-06
6.31742e-06
6.33641e-06
6.35397e-06
6.37016e-06
6.38503e-06
6.39861e-06
6.41096e-06
6.42212e-06
6.43214e-06
6.44106e-06
6.44893e-06
6.45578e-06
6.46166e-06
6.46661e-06
6.47066e-06
6.47388e-06
6.47622e-06
6.47791e-06
6.47884e-06
6.4789e-06
6.48018e-06
6.4772e-06
6.47553e-06
6.47308e-06
6.47005e-06
6.46662e-06
6.46261e-06
6.45814e-06
6.45318e-06
6.44778e-06
6.44195e-06
6.43572e-06
6.42911e-06
6.42213e-06
6.4148e-06
6.40714e-06
6.39916e-06
6.39089e-06
6.38234e-06
6.37353e-06
6.36448e-06
6.35518e-06
6.3457e-06
6.33598e-06
6.32598e-06
6.3158e-06
6.30549e-06
6.29499e-06
6.28432e-06
6.27346e-06
6.26244e-06
6.25129e-06
6.24006e-06
6.2287e-06
6.21723e-06
6.20565e-06
6.19396e-06
6.18217e-06
6.17028e-06
6.15831e-06
6.14622e-06
6.13419e-06
6.12167e-06
6.11003e-06
5.77275e-06
5.66e-06
5.56438e-06
5.49639e-06
5.44639e-06
5.41519e-06
5.39858e-06
5.39513e-06
5.40233e-06
5.41853e-06
5.44196e-06
5.47123e-06
5.50504e-06
5.54232e-06
5.58215e-06
5.62373e-06
5.6664e-06
5.7096e-06
5.75288e-06
5.79586e-06
5.83821e-06
5.8797e-06
5.92012e-06
5.95932e-06
5.99716e-06
6.03355e-06
6.06844e-06
6.10177e-06
6.13353e-06
6.16368e-06
6.19224e-06
6.21922e-06
6.24463e-06
6.26851e-06
6.29086e-06
6.31174e-06
6.33117e-06
6.3492e-06
6.36586e-06
6.3812e-06
6.39527e-06
6.4081e-06
6.41974e-06
6.43023e-06
6.43962e-06
6.44795e-06
6.45526e-06
6.46158e-06
6.46697e-06
6.47147e-06
6.47509e-06
6.47793e-06
6.47992e-06
6.48134e-06
6.48171e-06
6.48195e-06
6.48044e-06
6.47846e-06
6.47692e-06
6.47409e-06
6.47103e-06
6.46728e-06
6.46308e-06
6.45837e-06
6.45321e-06
6.4476e-06
6.44158e-06
6.43517e-06
6.42838e-06
6.42123e-06
6.41375e-06
6.40594e-06
6.39783e-06
6.38943e-06
6.38076e-06
6.37183e-06
6.36266e-06
6.35326e-06
6.34364e-06
6.3338e-06
6.32374e-06
6.3135e-06
6.30308e-06
6.2925e-06
6.28171e-06
6.27076e-06
6.25969e-06
6.2485e-06
6.2372e-06
6.22578e-06
6.21425e-06
6.20261e-06
6.19086e-06
6.17903e-06
6.16709e-06
6.1551e-06
6.14297e-06
6.13091e-06
6.11834e-06
6.10673e-06
5.91933e-06
5.80055e-06
5.69835e-06
5.62377e-06
5.56704e-06
5.52917e-06
5.50596e-06
5.49609e-06
5.49706e-06
5.50728e-06
5.52501e-06
5.54886e-06
5.57755e-06
5.61002e-06
5.64531e-06
5.68265e-06
5.72134e-06
5.76084e-06
5.80065e-06
5.84039e-06
5.87972e-06
5.9184e-06
5.95619e-06
5.99293e-06
6.02848e-06
6.06274e-06
6.09563e-06
6.12709e-06
6.1571e-06
6.18562e-06
6.21266e-06
6.2382e-06
6.26227e-06
6.28488e-06
6.30606e-06
6.32582e-06
6.34421e-06
6.36125e-06
6.37699e-06
6.39146e-06
6.40471e-06
6.41677e-06
6.42769e-06
6.4375e-06
6.44624e-06
6.45396e-06
6.46069e-06
6.46648e-06
6.47135e-06
6.47536e-06
6.47853e-06
6.4809e-06
6.48252e-06
6.48338e-06
6.4836e-06
6.48285e-06
6.48148e-06
6.47982e-06
6.47766e-06
6.47457e-06
6.4711e-06
6.46707e-06
6.46258e-06
6.45763e-06
6.45223e-06
6.44642e-06
6.4402e-06
6.4336e-06
6.42663e-06
6.41932e-06
6.41168e-06
6.40372e-06
6.39547e-06
6.38694e-06
6.37814e-06
6.36909e-06
6.3598e-06
6.35029e-06
6.34056e-06
6.33061e-06
6.32046e-06
6.31013e-06
6.29962e-06
6.28894e-06
6.2781e-06
6.26711e-06
6.25598e-06
6.24472e-06
6.23334e-06
6.22186e-06
6.21027e-06
6.19857e-06
6.18678e-06
6.17491e-06
6.16293e-06
6.1509e-06
6.13873e-06
6.12665e-06
6.11404e-06
6.10246e-06
6.06543e-06
5.94067e-06
5.83196e-06
5.75086e-06
5.68747e-06
5.64299e-06
5.61324e-06
5.59699e-06
5.59178e-06
5.59606e-06
5.6081e-06
5.62655e-06
5.65012e-06
5.67775e-06
5.7085e-06
5.74156e-06
5.77626e-06
5.812e-06
5.84831e-06
5.88477e-06
5.92105e-06
5.95687e-06
5.99199e-06
6.02624e-06
6.05946e-06
6.09155e-06
6.12241e-06
6.15197e-06
6.1802e-06
6.20706e-06
6.23253e-06
6.25661e-06
6.27931e-06
6.30063e-06
6.32059e-06
6.33922e-06
6.35653e-06
6.37258e-06
6.38737e-06
6.40096e-06
6.41337e-06
6.42464e-06
6.43481e-06
6.44392e-06
6.45201e-06
6.4591e-06
6.46525e-06
6.47047e-06
6.47482e-06
6.47833e-06
6.48103e-06
6.48295e-06
6.48411e-06
6.48456e-06
6.48428e-06
6.48332e-06
6.48175e-06
6.4797e-06
6.47706e-06
6.47378e-06
6.47005e-06
6.46577e-06
6.46105e-06
6.45586e-06
6.45025e-06
6.44422e-06
6.43781e-06
6.43102e-06
6.42387e-06
6.41639e-06
6.40859e-06
6.40049e-06
6.3921e-06
6.38343e-06
6.3745e-06
6.36533e-06
6.35593e-06
6.3463e-06
6.33646e-06
6.32641e-06
6.31617e-06
6.30575e-06
6.29516e-06
6.2844e-06
6.27349e-06
6.26243e-06
6.25123e-06
6.23992e-06
6.22849e-06
6.21695e-06
6.2053e-06
6.19356e-06
6.18172e-06
6.1698e-06
6.15779e-06
6.14573e-06
6.13353e-06
6.12143e-06
6.10877e-06
6.09721e-06
6.21104e-06
6.08034e-06
5.96516e-06
5.87761e-06
5.80763e-06
5.75662e-06
5.72039e-06
5.69782e-06
5.68646e-06
5.68483e-06
5.6912e-06
5.70425e-06
5.7227e-06
5.74549e-06
5.77168e-06
5.80045e-06
5.83112e-06
5.86309e-06
5.89586e-06
5.92901e-06
5.9622e-06
5.99512e-06
6.02754e-06
6.05925e-06
6.09011e-06
6.11999e-06
6.14878e-06
6.1764e-06
6.20282e-06
6.22798e-06
6.25186e-06
6.27445e-06
6.29574e-06
6.31575e-06
6.33447e-06
6.35194e-06
6.36817e-06
6.38318e-06
6.39701e-06
6.40969e-06
6.42124e-06
6.43171e-06
6.44112e-06
6.44952e-06
6.45693e-06
6.46338e-06
6.46892e-06
6.47358e-06
6.47739e-06
6.48039e-06
6.4826e-06
6.48405e-06
6.48479e-06
6.48481e-06
6.48417e-06
6.48285e-06
6.48094e-06
6.47856e-06
6.47561e-06
6.47208e-06
6.46805e-06
6.46352e-06
6.45854e-06
6.45311e-06
6.44727e-06
6.44103e-06
6.43441e-06
6.42744e-06
6.42011e-06
6.41246e-06
6.4045e-06
6.39625e-06
6.38771e-06
6.37891e-06
6.36985e-06
6.36056e-06
6.35103e-06
6.34129e-06
6.33135e-06
6.32121e-06
6.31087e-06
6.30037e-06
6.28969e-06
6.27886e-06
6.26788e-06
6.25676e-06
6.2455e-06
6.23413e-06
6.22264e-06
6.21105e-06
6.19936e-06
6.18757e-06
6.17569e-06
6.16373e-06
6.15169e-06
6.13959e-06
6.12736e-06
6.11525e-06
6.10254e-06
6.09102e-06
6.3561e-06
6.2195e-06
6.09792e-06
6.00398e-06
5.92747e-06
5.86999e-06
5.82736e-06
5.79851e-06
5.78106e-06
5.77355e-06
5.77428e-06
5.78194e-06
5.79528e-06
5.81322e-06
5.83483e-06
5.8593e-06
5.88591e-06
5.91408e-06
5.94328e-06
5.97309e-06
6.00315e-06
6.03314e-06
6.06282e-06
6.09197e-06
6.12043e-06
6.14805e-06
6.17474e-06
6.2004e-06
6.22497e-06
6.2484e-06
6.27066e-06
6.29173e-06
6.31159e-06
6.33025e-06
6.34772e-06
6.36399e-06
6.37911e-06
6.39307e-06
6.40591e-06
6.41766e-06
6.42835e-06
6.43799e-06
6.44663e-06
6.45429e-06
6.46101e-06
6.46681e-06
6.47174e-06
6.47581e-06
6.47907e-06
6.48154e-06
6.48326e-06
6.48425e-06
6.48453e-06
6.48414e-06
6.48311e-06
6.48145e-06
6.47923e-06
6.47648e-06
6.47318e-06
6.46936e-06
6.46505e-06
6.46026e-06
6.45503e-06
6.44937e-06
6.4433e-06
6.43685e-06
6.43003e-06
6.42286e-06
6.41536e-06
6.40754e-06
6.39941e-06
6.391e-06
6.38232e-06
6.37339e-06
6.3642e-06
6.35478e-06
6.34514e-06
6.33529e-06
6.32524e-06
6.315e-06
6.30458e-06
6.29399e-06
6.28324e-06
6.27233e-06
6.26128e-06
6.2501e-06
6.23879e-06
6.22736e-06
6.21582e-06
6.20418e-06
6.19244e-06
6.18061e-06
6.16869e-06
6.1567e-06
6.14462e-06
6.1325e-06
6.12024e-06
6.10811e-06
6.09537e-06
6.08387e-06
6.50059e-06
6.35814e-06
6.2302e-06
6.12994e-06
6.04697e-06
5.98309e-06
5.9341e-06
5.89904e-06
5.87554e-06
5.86218e-06
5.85729e-06
5.85959e-06
5.86781e-06
5.88091e-06
5.89794e-06
5.91807e-06
5.94062e-06
5.96495e-06
5.99056e-06
6.017e-06
6.04389e-06
6.07092e-06
6.09783e-06
6.12438e-06
6.1504e-06
6.17575e-06
6.2003e-06
6.22396e-06
6.24665e-06
6.26832e-06
6.28893e-06
6.30845e-06
6.32686e-06
6.34415e-06
6.36032e-06
6.37539e-06
6.38936e-06
6.40226e-06
6.41409e-06
6.4249e-06
6.43469e-06
6.44349e-06
6.45134e-06
6.45825e-06
6.46426e-06
6.4694e-06
6.4737e-06
6.47718e-06
6.47987e-06
6.48182e-06
6.48303e-06
6.48354e-06
6.48338e-06
6.48257e-06
6.48114e-06
6.47911e-06
6.47653e-06
6.47344e-06
6.46982e-06
6.46569e-06
6.4611e-06
6.45604e-06
6.45055e-06
6.44465e-06
6.43835e-06
6.43169e-06
6.42466e-06
6.4173e-06
6.40961e-06
6.40162e-06
6.39334e-06
6.38477e-06
6.37595e-06
6.36687e-06
6.35756e-06
6.34802e-06
6.33826e-06
6.32831e-06
6.31815e-06
6.30782e-06
6.29731e-06
6.28663e-06
6.2758e-06
6.26483e-06
6.25371e-06
6.24246e-06
6.2311e-06
6.21962e-06
6.20803e-06
6.19634e-06
6.18456e-06
6.17269e-06
6.16073e-06
6.14871e-06
6.1366e-06
6.12445e-06
6.11218e-06
6.10003e-06
6.08726e-06
6.07578e-06
6.64447e-06
6.4962e-06
6.36196e-06
6.25545e-06
6.16609e-06
6.09587e-06
6.04058e-06
5.99936e-06
5.96986e-06
5.95069e-06
5.94021e-06
5.93715e-06
5.94028e-06
5.94853e-06
5.96096e-06
5.97676e-06
5.99521e-06
6.0157e-06
6.03769e-06
6.06073e-06
6.08443e-06
6.10847e-06
6.13256e-06
6.15648e-06
6.18004e-06
6.20307e-06
6.22545e-06
6.24708e-06
6.26786e-06
6.28775e-06
6.30667e-06
6.32462e-06
6.34154e-06
6.35744e-06
6.3723e-06
6.38614e-06
6.39894e-06
6.41075e-06
6.42156e-06
6.43139e-06
6.44028e-06
6.44822e-06
6.45526e-06
6.46141e-06
6.46671e-06
6.47116e-06
6.47482e-06
6.47769e-06
6.47981e-06
6.48121e-06
6.48191e-06
6.48194e-06
6.48132e-06
6.48008e-06
6.47825e-06
6.47585e-06
6.47291e-06
6.46946e-06
6.46551e-06
6.46108e-06
6.45619e-06
6.45086e-06
6.44511e-06
6.43896e-06
6.43244e-06
6.42555e-06
6.41832e-06
6.41076e-06
6.4029e-06
6.39473e-06
6.38628e-06
6.37757e-06
6.36859e-06
6.35938e-06
6.34994e-06
6.34028e-06
6.33041e-06
6.32034e-06
6.31009e-06
6.29966e-06
6.28906e-06
6.2783e-06
6.2674e-06
6.25635e-06
6.24517e-06
6.23386e-06
6.22244e-06
6.21091e-06
6.19927e-06
6.18754e-06
6.17572e-06
6.16382e-06
6.15183e-06
6.13978e-06
6.12764e-06
6.11547e-06
6.10317e-06
6.09102e-06
6.07821e-06
6.06677e-06
6.78771e-06
6.63366e-06
6.49318e-06
6.38047e-06
6.28478e-06
6.20829e-06
6.14677e-06
6.09944e-06
6.06398e-06
6.03904e-06
6.023e-06
6.01461e-06
6.01264e-06
6.01605e-06
6.02389e-06
6.03534e-06
6.04969e-06
6.0663e-06
6.08465e-06
6.10426e-06
6.12474e-06
6.14576e-06
6.16701e-06
6.18827e-06
6.20933e-06
6.23002e-06
6.2502e-06
6.26977e-06
6.28862e-06
6.30668e-06
6.3239e-06
6.34024e-06
6.35566e-06
6.37014e-06
6.38367e-06
6.39624e-06
6.40786e-06
6.41855e-06
6.42831e-06
6.43717e-06
6.44512e-06
6.4522e-06
6.45841e-06
6.46379e-06
6.46834e-06
6.47211e-06
6.47511e-06
6.47736e-06
6.4789e-06
6.47975e-06
6.47993e-06
6.47946e-06
6.47838e-06
6.47671e-06
6.47446e-06
6.47168e-06
6.46837e-06
6.46456e-06
6.46028e-06
6.45553e-06
6.45035e-06
6.44474e-06
6.43873e-06
6.43233e-06
6.42557e-06
6.41846e-06
6.41102e-06
6.40327e-06
6.39521e-06
6.38687e-06
6.37826e-06
6.36939e-06
6.36027e-06
6.35092e-06
6.34135e-06
6.33157e-06
6.32158e-06
6.31141e-06
6.30106e-06
6.29053e-06
6.27985e-06
6.26901e-06
6.25803e-06
6.24692e-06
6.23567e-06
6.22431e-06
6.21283e-06
6.20125e-06
6.18957e-06
6.1778e-06
6.16594e-06
6.154e-06
6.14199e-06
6.12991e-06
6.11775e-06
6.10556e-06
6.09324e-06
6.08108e-06
6.06825e-06
6.05683e-06
6.93027e-06
6.77049e-06
6.62382e-06
6.50496e-06
6.40301e-06
6.32031e-06
6.25262e-06
6.19924e-06
6.15786e-06
6.12719e-06
6.10562e-06
6.09192e-06
6.08488e-06
6.08345e-06
6.08669e-06
6.09379e-06
6.10402e-06
6.11675e-06
6.13143e-06
6.14759e-06
6.16483e-06
6.18279e-06
6.20118e-06
6.21975e-06
6.23828e-06
6.2566e-06
6.27455e-06
6.29202e-06
6.30891e-06
6.32513e-06
6.34062e-06
6.35533e-06
6.36922e-06
6.38226e-06
6.39442e-06
6.40572e-06
6.41611e-06
6.42567e-06
6.43437e-06
6.44223e-06
6.44924e-06
6.45543e-06
6.4608e-06
6.46538e-06
6.46919e-06
6.47225e-06
6.47458e-06
6.4762e-06
6.47715e-06
6.47743e-06
6.47708e-06
6.47612e-06
6.47456e-06
6.47244e-06
6.46978e-06
6.4666e-06
6.46291e-06
6.45875e-06
6.45413e-06
6.44906e-06
6.44358e-06
6.43768e-06
6.4314e-06
6.42476e-06
6.41776e-06
6.41043e-06
6.40278e-06
6.39482e-06
6.38658e-06
6.37807e-06
6.36929e-06
6.36026e-06
6.351e-06
6.34151e-06
6.33181e-06
6.3219e-06
6.31181e-06
6.30153e-06
6.29107e-06
6.28046e-06
6.26969e-06
6.25877e-06
6.24772e-06
6.23654e-06
6.22523e-06
6.21381e-06
6.20228e-06
6.19066e-06
6.17893e-06
6.16712e-06
6.15523e-06
6.14326e-06
6.13122e-06
6.11911e-06
6.10694e-06
6.09473e-06
6.0824e-06
6.07023e-06
6.05737e-06
6.04599e-06
7.07211e-06
6.90664e-06
6.75384e-06
6.6289e-06
6.52075e-06
6.4319e-06
6.3581e-06
6.29873e-06
6.25148e-06
6.21512e-06
6.18805e-06
6.16907e-06
6.15696e-06
6.1507e-06
6.14935e-06
6.15209e-06
6.15819e-06
6.16701e-06
6.17802e-06
6.19071e-06
6.20468e-06
6.21957e-06
6.23507e-06
6.25091e-06
6.26689e-06
6.2828e-06
6.2985e-06
6.31385e-06
6.32874e-06
6.34309e-06
6.35683e-06
6.36989e-06
6.38222e-06
6.3938e-06
6.40459e-06
6.41458e-06
6.42373e-06
6.43212e-06
6.43974e-06
6.44658e-06
6.45264e-06
6.45792e-06
6.46244e-06
6.46621e-06
6.46926e-06
6.4716e-06
6.47325e-06
6.47423e-06
6.47456e-06
6.47428e-06
6.47338e-06
6.47191e-06
6.46988e-06
6.46731e-06
6.46422e-06
6.46063e-06
6.45656e-06
6.45204e-06
6.44707e-06
6.44169e-06
6.43589e-06
6.42971e-06
6.42316e-06
6.41625e-06
6.40901e-06
6.40146e-06
6.39359e-06
6.38544e-06
6.37701e-06
6.36832e-06
6.35937e-06
6.35019e-06
6.34078e-06
6.33115e-06
6.32132e-06
6.3113e-06
6.30109e-06
6.2907e-06
6.28015e-06
6.26944e-06
6.25859e-06
6.2476e-06
6.23647e-06
6.22522e-06
6.21386e-06
6.20238e-06
6.1908e-06
6.17913e-06
6.16737e-06
6.15552e-06
6.14359e-06
6.1316e-06
6.11953e-06
6.10741e-06
6.09521e-06
6.08299e-06
6.07065e-06
6.05847e-06
6.0456e-06
6.03425e-06
7.2132e-06
7.04209e-06
6.8832e-06
6.75225e-06
6.63796e-06
6.54302e-06
6.46317e-06
6.39786e-06
6.3448e-06
6.30278e-06
6.27025e-06
6.24601e-06
6.22885e-06
6.21778e-06
6.21183e-06
6.21021e-06
6.21218e-06
6.21709e-06
6.2244e-06
6.2336e-06
6.24429e-06
6.25607e-06
6.26866e-06
6.28176e-06
6.29515e-06
6.30863e-06
6.32205e-06
6.33525e-06
6.34813e-06
6.36058e-06
6.37253e-06
6.38391e-06
6.39467e-06
6.40477e-06
6.41415e-06
6.42281e-06
6.43066e-06
6.4379e-06
6.44444e-06
6.45025e-06
6.45534e-06
6.4597e-06
6.46335e-06
6.46629e-06
6.46856e-06
6.47016e-06
6.47112e-06
6.47145e-06
6.47116e-06
6.47029e-06
6.46885e-06
6.46686e-06
6.46434e-06
6.46131e-06
6.45778e-06
6.45378e-06
6.44933e-06
6.44444e-06
6.43913e-06
6.43341e-06
6.42731e-06
6.42083e-06
6.414e-06
6.40684e-06
6.39935e-06
6.39157e-06
6.38349e-06
6.37513e-06
6.36651e-06
6.35764e-06
6.34853e-06
6.33919e-06
6.32963e-06
6.31987e-06
6.30991e-06
6.29976e-06
6.28944e-06
6.27895e-06
6.2683e-06
6.2575e-06
6.24656e-06
6.23549e-06
6.2243e-06
6.21298e-06
6.20156e-06
6.19003e-06
6.17841e-06
6.16669e-06
6.15489e-06
6.14301e-06
6.13105e-06
6.11903e-06
6.10694e-06
6.0948e-06
6.08258e-06
6.07036e-06
6.058e-06
6.04583e-06
6.03294e-06
6.02162e-06
7.35352e-06
7.1768e-06
7.01188e-06
6.87496e-06
6.7546e-06
6.65364e-06
6.5678e-06
6.4966e-06
6.43777e-06
6.39015e-06
6.35219e-06
6.32272e-06
6.30054e-06
6.28465e-06
6.27413e-06
6.26815e-06
6.26597e-06
6.26697e-06
6.27056e-06
6.27626e-06
6.28364e-06
6.29231e-06
6.30195e-06
6.31228e-06
6.32306e-06
6.33409e-06
6.3452e-06
6.35623e-06
6.36706e-06
6.37759e-06
6.38773e-06
6.39742e-06
6.40659e-06
6.4152e-06
6.42318e-06
6.43054e-06
6.43703e-06
6.443e-06
6.44848e-06
6.45323e-06
6.45734e-06
6.46076e-06
6.46352e-06
6.46563e-06
6.4671e-06
6.46796e-06
6.46821e-06
6.46787e-06
6.46696e-06
6.4655e-06
6.4635e-06
6.46098e-06
6.45796e-06
6.45446e-06
6.45049e-06
6.44607e-06
6.44123e-06
6.43597e-06
6.4303e-06
6.42426e-06
6.41784e-06
6.41107e-06
6.40395e-06
6.39652e-06
6.38879e-06
6.38077e-06
6.37247e-06
6.36392e-06
6.35511e-06
6.34606e-06
6.33678e-06
6.32728e-06
6.31757e-06
6.30767e-06
6.29757e-06
6.28731e-06
6.27687e-06
6.26628e-06
6.25553e-06
6.24464e-06
6.23362e-06
6.22248e-06
6.21121e-06
6.19984e-06
6.18835e-06
6.17677e-06
6.1651e-06
6.15334e-06
6.1415e-06
6.12959e-06
6.11761e-06
6.10556e-06
6.09345e-06
6.0813e-06
6.06907e-06
6.05684e-06
6.04447e-06
6.0323e-06
6.0194e-06
6.00812e-06
7.49301e-06
7.31073e-06
7.13984e-06
6.99702e-06
6.87064e-06
6.76372e-06
6.67195e-06
6.59492e-06
6.53038e-06
6.4772e-06
6.43384e-06
6.39916e-06
6.37199e-06
6.35131e-06
6.33621e-06
6.32587e-06
6.31956e-06
6.31662e-06
6.3165e-06
6.31868e-06
6.32273e-06
6.32826e-06
6.33494e-06
6.34248e-06
6.35063e-06
6.35918e-06
6.36795e-06
6.37678e-06
6.38554e-06
6.39412e-06
6.40243e-06
6.4104e-06
6.41796e-06
6.42504e-06
6.43159e-06
6.43755e-06
6.44256e-06
6.4475e-06
6.45191e-06
6.45559e-06
6.45869e-06
6.46114e-06
6.46299e-06
6.46424e-06
6.4649e-06
6.465e-06
6.46453e-06
6.46351e-06
6.46196e-06
6.4599e-06
6.45733e-06
6.45428e-06
6.45075e-06
6.44677e-06
6.44236e-06
6.43752e-06
6.43227e-06
6.42663e-06
6.42062e-06
6.41424e-06
6.4075e-06
6.40043e-06
6.39302e-06
6.38531e-06
6.37733e-06
6.36908e-06
6.36057e-06
6.3518e-06
6.3428e-06
6.33357e-06
6.32412e-06
6.31446e-06
6.30461e-06
6.29456e-06
6.28434e-06
6.27395e-06
6.2634e-06
6.2527e-06
6.24186e-06
6.23089e-06
6.21978e-06
6.20856e-06
6.19723e-06
6.18579e-06
6.17425e-06
6.16262e-06
6.15091e-06
6.13911e-06
6.12723e-06
6.11529e-06
6.10328e-06
6.09122e-06
6.07909e-06
6.06692e-06
6.05469e-06
6.04245e-06
6.03008e-06
6.01791e-06
6.005e-06
5.99375e-06
7.63166e-06
7.44386e-06
7.26704e-06
7.11838e-06
6.98605e-06
6.87323e-06
6.7756e-06
6.69279e-06
6.62258e-06
6.56388e-06
6.51517e-06
6.47532e-06
6.44317e-06
6.41772e-06
6.39806e-06
6.38337e-06
6.37291e-06
6.36604e-06
6.36219e-06
6.36084e-06
6.36155e-06
6.36392e-06
6.36762e-06
6.37235e-06
6.37785e-06
6.3839e-06
6.39031e-06
6.39692e-06
6.40358e-06
6.41018e-06
6.41664e-06
6.42285e-06
6.42878e-06
6.43437e-06
6.43955e-06
6.44445e-06
6.44791e-06
6.45112e-06
6.45464e-06
6.45724e-06
6.45933e-06
6.46081e-06
6.46174e-06
6.46212e-06
6.46196e-06
6.46128e-06
6.46009e-06
6.45839e-06
6.45619e-06
6.45351e-06
6.45037e-06