/*--------------------------------*- C++ -*----------------------------------*\
| =========                 |                                                 |
| \\      /  F ield         | foam-extend: Open Source CFD                    |
|  \\    /   O peration     | Version:     4.1                                |
|   \\  /    A nd           | Web:         http://www.foam-extend.org         |
|    \\/     M anipulation  |                                                 |
\*---------------------------------------------------------------------------*/
FoamFile
{
    version     2.0;
    format      ascii;
    class       volScalarField;
    location    "10";
    object      sigmaHyd;
}
// * * * * * * * * * * * * * * * * * * * * * * * * * * * * * * * * * * * * * //

dimensions      [1 -1 -2 0 0 0 0];

internalField   nonuniform List<scalar> 
100000
(
-470623
-469418
-469650
-469148
-469041
-468741
-468553
-468318
-468118
-467910
-467716
-467524
-467341
-467161
-466988
-466819
-466655
-466496
-466341
-466191
-466045
-465903
-465765
-465630
-465499
-465371
-465247
-465124
-465008
-464883
-464777
-464626
-464527
-464474
-464356
-464253
-464155
-464055
-463961
-463867
-463776
-463686
-463599
-463513
-463429
-463347
-463266
-463187
-463109
-463033
-462958
-462884
-462811
-462740
-462670
-462601
-462533
-462466
-462400
-462335
-462271
-462208
-462145
-462084
-462023
-461963
-461903
-461845
-461787
-461729
-461673
-461616
-461561
-461506
-461452
-461399
-461346
-461293
-461241
-461190
-461138
-461087
-461037
-460986
-460937
-460885
-460836
-460785
-460736
-460687
-460639
-460592
-460547
-460502
-460464
-460421
-460407
-460356
-460434
-460155
-487669
-486048
-485991
-485148
-484741
-484132
-483653
-483131
-482653
-482174
-481717
-481268
-480834
-480411
-479999
-479599
-479209
-478830
-478461
-478101
-477750
-477408
-477075
-476750
-476434
-476125
-475827
-475531
-475265
-474966
-474813
-474398
-474327
-473876
-473772
-473402
-473180
-472920
-472691
-472459
-472237
-472018
-471805
-471595
-471390
-471189
-470992
-470799
-470609
-470422
-470239
-470060
-469883
-469710
-469539
-469372
-469208
-469046
-468887
-468730
-468576
-468425
-468275
-468128
-467983
-467841
-467700
-467561
-467425
-467290
-467157
-467026
-466897
-466770
-466645
-466521
-466400
-466278
-466160
-466041
-465923
-465808
-465695
-465582
-465472
-465360
-465250
-465141
-465033
-464927
-464823
-464720
-464621
-464520
-464430
-464328
-464262
-464144
-464168
-463773
-504706
-502668
-502323
-501139
-500432
-499516
-498747
-497936
-497182
-496431
-495710
-495005
-494321
-493654
-493005
-492373
-491758
-491158
-490574
-490005
-489450
-488908
-488380
-487865
-487362
-486871
-486393
-485924
-485469
-485021
-484586
-484175
-483701
-483280
-482923
-482523
-482150
-481771
-481405
-481044
-480691
-480345
-480006
-479674
-479348
-479028
-478715
-478407
-478105
-477809
-477518
-477233
-476952
-476677
-476406
-476141
-475880
-475623
-475371
-475123
-474880
-474640
-474403
-474171
-473942
-473716
-473495
-473276
-473061
-472848
-472639
-472433
-472231
-472030
-471834
-471639
-471450
-471260
-471077
-470895
-470711
-470530
-470359
-470182
-470023
-469844
-469672
-469499
-469333
-469168
-469009
-468850
-468698
-468543
-468403
-468243
-468134
-467935
-467925
-467367
-521730
-519277
-518643
-517119
-516113
-514889
-513829
-512731
-511700
-510678
-509694
-508732
-507798
-506887
-506002
-505138
-504298
-503478
-502679
-501900
-501141
-500400
-499677
-498972
-498283
-497611
-496955
-496313
-495690
-495070
-494474
-493871
-493210
-492731
-492202
-491661
-491143
-490624
-490121
-489625
-489142
-488667
-488202
-487747
-487300
-486862
-486432
-486011
-485597
-485191
-484792
-484401
-484017
-483639
-483269
-482905
-482548
-482197
-481852
-481513
-481179
-480851
-480528
-480210
-479897
-479589
-479286
-478987
-478693
-478404
-478119
-477838
-477562
-477290
-477023
-476758
-476502
-476243
-475998
-475741
-475484
-475243
-475007
-474767
-474551
-474314
-474070
-473848
-473621
-473403
-473186
-472973
-472766
-472555
-472361
-472145
-471981
-471723
-471658
-471030
-538738
-535869
-534947
-533084
-531778
-530247
-528896
-527512
-526203
-524911
-523664
-522446
-521262
-520108
-518985
-517891
-516825
-515786
-514773
-513785
-512821
-511881
-510964
-510068
-509194
-508340
-507506
-506690
-505894
-505114
-504350
-503606
-502861
-502153
-501464
-500782
-500118
-499464
-498825
-498198
-497583
-496981
-496391
-495812
-495245
-494688
-494143
-493607
-493082
-492566
-492060
-491563
-491075
-490596
-490125
-489663
-489209
-488764
-488326
-487896
-487473
-487056
-486647
-486244
-485847
-485456
-485072
-484693
-484321
-483954
-483593
-483236
-482886
-482539
-482201
-481862
-481539
-481206
-480905
-480609
-480269
-479946
-479668
-479358
-479182
-478821
-478499
-478191
-477911
-477629
-477360
-477090
-476830
-476564
-476317
-476045
-475831
-475513
-475401
-474706
-555725
-552441
-551232
-549028
-547424
-545586
-543945
-542275
-540689
-539127
-537617
-536143
-534710
-533313
-531954
-530629
-529338
-528079
-526852
-525655
-524488
-523348
-522237
-521151
-520091
-519056
-518045
-517056
-516090
-515144
-514218
-513313
-512414
-511564
-510722
-509897
-509090
-508297
-507522
-506761
-506016
-505286
-504570
-503869
-503181
-502506
-501845
-501195
-500558
-499933
-499320
-498717
-498125
-497543
-496973
-496412
-495863
-495325
-494794
-494273
-493760
-493256
-492759
-492271
-491790
-491317
-490852
-490394
-489943
-489499
-489062
-488631
-488208
-487790
-487384
-486977
-486597
-486192
-485886
-485436
-484959
-484644
-484289
-483896
-483668
-483291
-482801
-482532
-482176
-481857
-481528
-481206
-480890
-480570
-480269
-479942
-479675
-479303
-479142
-478391
-572687
-568989
-567492
-564950
-563047
-560903
-558972
-557016
-555154
-553322
-551550
-549820
-548139
-546499
-544903
-543348
-541832
-540354
-538914
-537508
-536137
-534799
-533493
-532218
-530973
-529757
-528569
-527408
-526273
-525163
-524077
-523016
-521974
-520961
-519969
-518998
-518048
-517117
-516205
-515312
-514437
-513579
-512738
-511914
-511106
-510313
-509536
-508773
-508025
-507291
-506570
-505862
-505168
-504483
-503814
-503152
-502504
-501874
-501254
-500641
-500040
-499447
-498864
-498290
-497726
-497170
-496624
-496086
-495556
-495035
-494521
-494014
-493517
-493020
-492539
-492038
-491592
-491018
-490714
-489951
-489797
-489189
-488796
-488336
-488413
-487422
-487186
-486728
-486433
-486040
-485682
-485304
-484940
-484567
-484214
-483834
-483516
-483091
-482882
-482074
-589619
-585508
-583724
-580844
-578643
-576193
-573974
-571732
-569595
-567493
-565460
-563474
-561544
-559663
-557831
-556046
-554306
-552609
-550955
-549341
-547767
-546231
-544731
-543267
-541837
-540441
-539076
-537743
-536439
-535164
-533917
-532698
-531504
-530340
-529200
-528085
-526993
-525923
-524876
-523849
-522844
-521858
-520892
-519946
-519017
-518107
-517214
-516338
-515479
-514635
-513807
-512992
-512195
-511405
-510638
-509871
-509136
-508423
-507703
-507002
-506309
-505628
-504958
-504300
-503652
-503014
-502387
-501770
-501162
-500564
-499975
-499395
-498824
-498260
-497704
-497158
-496609
-496089
-495500
-495092
-494647
-494073
-493571
-493115
-492535
-492117
-491750
-491206
-490769
-490303
-489865
-489424
-488998
-488567
-488158
-487724
-487353
-486875
-486618
-485755
-606518
-601995
-599925
-596706
-594208
-591453
-588946
-586419
-584007
-581636
-579342
-577102
-574924
-572801
-570734
-568719
-566755
-564840
-562973
-561151
-559374
-557640
-555947
-554294
-552680
-551104
-549563
-548058
-546586
-545147
-543740
-542364
-541018
-539702
-538414
-537154
-535920
-534712
-533529
-532370
-531235
-530122
-529031
-527962
-526914
-525887
-524879
-523890
-522920
-521968
-521035
-520115
-519220
-518326
-517468
-516588
-515728
-514939
-514150
-513347
-512572
-511798
-511044
-510298
-509567
-508847
-508139
-507443
-506757
-506082
-505418
-504763
-504119
-503483
-502859
-502240
-501639
-501038
-500463
-499914
-499324
-498742
-498211
-497655
-497226
-496625
-496078
-495529
-495021
-494507
-494013
-493519
-493038
-492554
-492092
-491605
-491183
-490652
-490347
-489430
-623380
-618445
-616090
-612534
-609740
-606680
-603885
-601073
-598387
-595748
-593193
-590699
-588274
-585910
-583608
-581364
-579177
-577044
-574965
-572936
-570956
-569025
-567139
-565298
-563500
-561743
-560027
-558350
-556711
-555108
-553541
-552008
-550508
-549042
-547607
-546203
-544829
-543483
-542164
-540873
-539608
-538368
-537153
-535962
-534794
-533649
-532526
-531424
-530344
-529282
-528241
-527215
-526214
-525209
-524251
-523215
-522337
-521532
-520569
-519691
-518812
-517955
-517112
-516283
-515469
-514667
-513879
-513104
-512341
-511589
-510850
-510122
-509405
-508699
-508003
-507319
-506643
-505983
-505325
-504694
-504065
-503434
-502817
-502209
-501606
-501015
-500439
-499850
-499284
-498716
-498163
-497613
-497076
-496537
-496021
-495481
-495007
-494424
-494070
-493099
-640201
-634855
-632215
-628323
-625233
-621870
-618787
-615692
-612733
-609826
-607011
-604264
-601592
-598987
-596451
-593978
-591568
-589219
-586927
-584692
-582510
-580382
-578304
-576275
-574293
-572358
-570466
-568618
-566812
-565045
-563318
-561629
-559977
-558360
-556779
-555231
-553715
-552232
-550779
-549355
-547961
-546594
-545255
-543942
-542655
-541393
-540156
-538942
-537752
-536583
-535442
-534313
-533233
-532122
-531179
-529957
-529360
-527916
-527100
-525999
-525067
-524097
-523174
-522255
-521359
-520475
-519606
-518752
-517911
-517083
-516269
-515467
-514678
-513901
-513136
-512382
-511641
-510911
-510193
-509488
-508788
-508098
-507423
-506752
-506103
-505442
-504798
-504155
-503528
-502906
-502296
-501691
-501100
-500507
-499939
-499346
-498822
-498186
-497785
-496761
-656976
-651220
-648296
-644069
-640684
-637018
-633650
-630272
-627039
-623866
-620792
-617791
-614874
-612029
-609259
-606559
-603927
-601360
-598858
-596416
-594033
-591708
-589439
-587222
-585058
-582943
-580877
-578859
-576885
-574956
-573069
-571224
-569419
-567653
-565925
-564234
-562579
-560958
-559370
-557815
-556292
-554799
-553336
-551901
-550495
-549117
-547765
-546438
-545137
-543861
-542609
-541380
-540174
-538996
-537824
-536743
-535506
-534345
-533347
-532271
-531244
-530211
-529203
-528207
-527228
-526265
-525317
-524384
-523466
-522563
-521674
-520799
-519937
-519089
-518253
-517431
-516621
-515824
-515037
-514265
-513502
-512750
-512008
-511276
-510555
-509843
-509141
-508446
-507762
-507085
-506420
-505761
-505115
-504469
-503848
-503202
-502627
-501939
-501490
-500413
-673701
-667537
-664330
-659769
-656090
-652122
-648468
-644808
-641303
-637864
-634532
-631279
-628116
-625033
-622030
-619102
-616249
-613467
-610753
-608106
-605523
-603002
-600541
-598138
-595791
-593498
-591258
-589069
-586929
-584837
-582792
-580791
-578834
-576919
-575045
-573211
-571416
-569658
-567936
-566250
-564598
-562979
-561393
-559837
-558313
-556818
-555352
-553913
-552503
-551118
-549762
-548427
-547122
-545830
-544575
-543315
-542064
-540887
-539738
-538571
-537445
-536323
-535228
-534146
-533085
-532040
-531012
-530001
-529006
-528027
-527063
-526115
-525181
-524261
-523356
-522465
-521587
-520722
-519871
-519032
-518205
-517389
-516586
-515792
-515012
-514239
-513478
-512725
-511984
-511252
-510531
-509817
-509117
-508418
-507744
-507047
-506421
-505682
-505185
-504056
-690372
-683802
-680313
-675419
-671446
-667177
-663239
-659298
-655522
-651818
-648228
-644724
-641317
-637995
-634760
-631606
-628532
-625534
-622611
-619758
-616975
-614259
-611608
-609018
-606490
-604020
-601606
-599247
-596942
-594688
-592483
-590328
-588219
-586155
-584136
-582160
-580225
-578331
-576476
-574659
-572878
-571134
-569424
-567748
-566105
-564494
-562914
-561364
-559844
-558352
-556888
-555451
-554040
-552655
-551291
-549959
-548628
-547332
-546076
-544828
-543611
-542407
-541227
-540064
-538920
-537795
-536689
-535600
-534528
-533473
-532436
-531414
-530408
-529418
-528442
-527482
-526536
-525605
-524687
-523783
-522892
-522013
-521147
-520293
-519450
-518619
-517800
-516991
-516193
-515405
-514629
-513861
-513108
-512355
-511629
-510880
-510203
-509413
-508868
-507687
-706986
-700010
-696240
-691014
-686749
-682181
-677959
-673738
-669692
-665723
-661877
-658123
-654472
-650912
-647446
-644066
-640772
-637560
-634427
-631371
-628389
-625478
-622636
-619862
-617152
-614505
-611918
-609391
-606920
-604504
-602142
-599831
-597571
-595360
-593196
-591078
-589004
-586974
-584986
-583038
-581130
-579261
-577428
-575632
-573871
-572145
-570451
-568790
-567161
-565561
-563992
-562451
-560939
-559453
-557994
-556558
-555146
-553765
-552411
-551076
-549767
-548477
-547210
-545964
-544738
-543533
-542347
-541180
-540032
-538902
-537790
-536695
-535617
-534556
-533511
-532483
-531469
-530471
-529488
-528518
-527563
-526622
-525694
-524779
-523877
-522987
-522109
-521242
-520388
-519545
-518714
-517891
-517084
-516279
-515501
-514700
-513973
-513132
-512539
-511307
-723538
-716158
-712108
-706551
-701996
-697128
-692624
-688125
-683809
-679577
-675475
-671472
-667578
-663782
-660085
-656481
-652968
-649542
-646200
-642941
-639760
-636655
-633625
-630665
-627775
-624951
-622193
-619496
-616861
-614284
-611764
-609300
-606889
-604530
-602222
-599963
-597751
-595585
-593464
-591387
-589352
-587357
-585403
-583487
-581609
-579767
-577961
-576189
-574450
-572744
-571070
-569427
-567813
-566229
-564672
-563144
-561640
-560165
-558718
-557294
-555896
-554521
-553170
-551841
-550534
-549248
-547984
-546739
-545515
-544310
-543124
-541957
-540807
-539676
-538562
-537464
-536384
-535319
-534270
-533237
-532218
-531214
-530224
-529249
-528287
-527338
-526402
-525478
-524568
-523669
-522783
-521907
-521046
-520188
-519359
-518506
-517729
-516837
-516196
-514914
-740025
-732242
-727913
-722027
-717182
-712017
-707231
-702454
-697870
-693376
-689019
-684768
-680632
-676601
-672674
-668846
-665114
-661476
-657927
-654465
-651086
-647788
-644569
-641426
-638356
-635357
-632426
-629562
-626763
-624026
-621349
-618731
-616170
-613665
-611212
-608812
-606463
-604162
-601909
-599703
-597541
-595423
-593346
-591311
-589316
-587359
-585440
-583558
-581711
-579899
-578121
-576375
-574661
-572978
-571325
-569701
-568106
-566540
-565002
-563490
-562004
-560544
-559108
-557696
-556308
-554942
-553599
-552277
-550977
-549697
-548437
-547198
-545977
-544775
-543592
-542427
-541279
-540148
-539034
-537937
-536855
-535789
-534738
-533701
-532680
-531672
-530679
-529698
-528732
-527777
-526837
-525906
-524993
-524082
-523201
-522297
-521470
-520528
-519839
-518508
-756441
-748258
-743651
-737437
-732303
-726842
-721777
-716722
-711872
-707117
-702506
-698007
-693631
-689365
-685210
-681159
-677210
-673360
-669604
-665940
-662364
-658875
-655468
-652141
-648892
-645718
-642617
-639586
-636623
-633726
-630893
-628123
-625412
-622760
-620165
-617625
-615137
-612703
-610319
-607984
-605695
-603454
-601256
-599102
-596991
-594920
-592889
-590897
-588942
-587024
-585142
-583294
-581480
-579699
-577950
-576232
-574545
-572887
-571259
-569658
-568086
-566540
-565021
-563526
-562057
-560612
-559190
-557792
-556416
-555061
-553729
-552417
-551125
-549854
-548601
-547368
-546154
-544957
-543778
-542617
-541472
-540344
-539232
-538136
-537055
-535989
-534937
-533900
-532878
-531868
-530874
-529890
-528923
-527960
-527028
-526073
-525196
-524203
-523467
-522086
-772784
-764202
-759319
-752778
-747357
-741601
-736257
-730927
-725811
-720796
-715932
-711188
-706572
-702072
-697689
-693417
-689252
-685190
-681229
-677364
-673592
-669911
-666318
-662809
-659381
-656033
-652762
-649565
-646439
-643384
-640395
-637473
-634613
-631815
-629077
-626398
-623774
-621206
-618691
-616228
-613814
-611449
-609131
-606859
-604631
-602447
-600304
-598203
-596141
-594118
-592132
-590183
-588269
-586391
-584546
-582734
-580954
-579205
-577488
-575800
-574141
-572510
-570907
-569331
-567781
-566257
-564757
-563282
-561830
-560402
-558996
-557613
-556250
-554909
-553588
-552288
-551007
-549745
-548501
-547276
-546069
-544879
-543706
-542550
-541410
-540286
-539178
-538084
-537006
-535941
-534892
-533855
-532836
-531821
-530837
-529831
-528905
-527862
-527079
-525649
-789049
-780070
-774912
-768047
-762339
-756289
-750668
-745064
-739683
-734410
-729295
-724306
-719451
-714719
-710110
-705616
-701236
-696964
-692798
-688733
-684767
-680896
-677116
-673426
-669821
-666300
-662859
-659496
-656209
-652995
-649852
-646778
-643770
-640827
-637946
-635128
-632367
-629668
-627022
-624432
-621894
-619407
-616969
-614579
-612236
-609938
-607685
-605474
-603306
-601178
-599089
-597039
-595027
-593051
-591110
-589205
-587333
-585494
-583687
-581912
-580167
-578452
-576766
-575108
-573478
-571875
-570298
-568746
-567220
-565718
-564239
-562784
-561351
-559941
-558552
-557184
-555837
-554510
-553202
-551914
-550644
-549393
-548160
-546944
-545745
-544563
-543398
-542248
-541114
-539995
-538892
-537802
-536730
-535663
-534628
-533572
-532596
-531504
-530673
-529196
-805233
-795859
-790426
-783238
-777246
-770904
-765007
-759131
-753486
-747955
-742591
-737358
-732266
-727303
-722468
-717755
-713160
-708680
-704310
-700046
-695886
-691825
-687861
-683989
-680209
-676515
-672906
-669378
-665930
-662559
-659262
-656037
-652882
-649795
-646772
-643816
-640920
-638089
-635313
-632597
-629934
-627325
-624768
-622261
-619803
-617393
-615029
-612710
-610435
-608202
-606012
-603861
-601750
-599678
-597642
-595643
-593680
-591751
-589856
-587993
-586163
-584364
-582595
-580856
-579146
-577465
-575810
-574183
-572582
-571007
-569456
-567930
-566427
-564948
-563491
-562056
-560643
-559251
-557880
-556529
-555197
-553885
-552591
-551316
-550059
-548819
-547597
-546391
-545202
-544029
-542872
-541729
-540605
-539487
-538401
-537294
-536269
-535128
-534249
-532725
-821331
-811564
-805859
-798349
-792075
-785442
-779270
-773122
-767216
-761429
-755816
-750341
-745013
-739820
-734761
-729829
-725022
-720333
-715761
-711299
-706946
-702697
-698548
-694498
-690541
-686676
-682899
-679208
-675600
-672072
-668622
-665247
-661944
-658713
-655547
-652455
-649417
-646462
-643556
-640717
-637930
-635202
-632525
-629902
-627330
-624808
-622334
-619907
-617527
-615190
-612898
-610648
-608439
-606270
-604140
-602048
-599993
-597975
-595992
-594043
-592127
-590244
-588394
-586574
-584785
-583025
-581294
-579592
-577916
-576268
-574645
-573048
-571476
-569928
-568404
-566902
-565424
-563967
-562533
-561119
-559726
-558353
-556999
-555665
-554350
-553053
-551774
-550513
-549269
-548041
-546831
-545635
-544459
-543290
-542153
-540997
-539923
-538732
-537806
-536235
-837339
-827182
-821206
-813377
-806820
-799899
-793454
-787037
-780870
-774829
-768968
-763251
-757689
-752267
-746985
-741836
-736817
-731922
-727148
-722490
-717945
-713508
-709177
-704947
-700816
-696781
-692838
-688984
-685217
-681533
-677931
-674407
-670959
-667586
-664281
-661051
-657882
-654796
-651761
-648796
-645886
-643036
-640241
-637502
-634816
-632182
-629599
-627065
-624579
-622140
-619746
-617397
-615090
-612825
-610602
-608418
-606272
-604164
-602093
-600058
-598058
-596092
-594159
-592260
-590391
-588554
-586747
-584970
-583221
-581500
-579806
-578138
-576497
-574881
-573289
-571722
-570178
-568658
-567160
-565684
-564229
-562796
-561383
-559990
-558617
-557263
-555928
-554611
-553313
-552031
-550768
-549519
-548292
-547072
-545885
-544679
-543556
-542317
-541344
-539727
-853255
-842709
-836464
-828316
-821480
-814272
-807555
-800869
-794444
-788150
-782044
-776087
-770291
-764642
-759139
-753774
-748544
-743443
-738469
-733615
-728879
-724256
-719743
-715336
-711032
-706827
-702718
-698703
-694778
-690940
-687186
-683514
-679919
-676403
-672948
-669587
-666242
-663068
-659902
-656824
-653792
-650824
-647912
-645058
-642258
-639514
-636822
-634181
-631591
-629049
-626555
-624106
-621703
-619343
-617026
-614750
-612514
-610318
-608160
-606040
-603955
-601906
-599892
-597913
-595966
-594052
-592169
-590317
-588495
-586701
-584936
-583199
-581489
-579805
-578146
-576513
-574905
-573321
-571760
-570222
-568706
-567213
-565741
-564290
-562859
-561449
-560058
-558686
-557333
-555998
-554682
-553381
-552103
-550831
-549595
-548339
-547167
-545880
-544860
-543198
-869073
-858141
-851628
-843165
-836051
-828557
-821570
-814618
-807935
-801389
-795039
-788844
-782817
-776941
-771218
-765638
-760199
-754894
-749721
-744673
-739747
-734939
-730245
-725662
-721185
-716812
-712539
-708363
-704280
-700289
-696386
-692567
-688831
-685173
-681592
-678086
-674645
-671320
-668026
-664815
-661658
-658568
-655538
-652568
-649656
-646801
-644001
-641254
-638560
-635916
-633322
-630775
-628275
-625821
-623411
-621044
-618719
-616434
-614189
-611983
-609813
-607683
-605585
-603529
-601504
-599515
-597557
-595631
-593736
-591871
-590036
-588229
-586450
-584699
-582974
-581276
-579603
-577955
-576332
-574733
-573156
-571603
-570072
-568563
-567075
-565609
-564162
-562735
-561329
-559940
-558572
-557220
-555890
-554568
-553282
-551977
-550757
-549422
-548355
-546648
-884790
-873474
-866696
-857918
-850528
-842750
-835496
-828279
-821340
-814544
-807951
-801520
-795262
-789162
-783220
-777427
-771779
-766272
-760900
-755660
-750546
-745554
-740680
-735921
-731274
-726733
-722297
-717961
-713723
-709579
-705528
-701563
-697686
-693887
-690145
-686514
-682662
-679481
-676057
-672745
-669470
-666261
-663115
-660030
-657006
-654041
-651134
-648282
-645484
-642739
-640045
-637401
-634806
-632258
-629756
-627298
-624884
-622512
-620181
-617891
-615639
-613427
-611248
-609112
-607010
-604944
-602912
-600913
-598945
-597009
-595103
-593227
-591380
-589562
-587771
-586008
-584271
-582560
-580875
-579214
-577578
-575965
-574376
-572809
-571265
-569742
-568240
-566759
-565299
-563858
-562437
-561033
-559653
-558281
-556945
-555592
-554323
-552941
-551827
-550075
-900402
-888705
-881662
-872573
-864908
-856849
-849328
-841848
-834656
-827612
-820778
-814111
-807624
-801301
-795141
-789136
-783283
-777574
-772006
-766573
-761272
-756097
-751046
-746112
-741294
-736588
-731989
-727494
-723101
-718806
-714608
-710498
-706485
-702542
-698712
-694880
-691266
-687696
-684116
-680641
-677238
-673905
-670641
-667442
-664307
-661233
-658219
-655262
-652362
-649517
-646724
-643984
-641293
-638652
-636058
-633511
-631008
-628549
-626132
-623757
-621416
-619124
-616848
-614652
-612472
-610336
-608230
-606159
-604119
-602112
-600137
-598192
-596277
-594392
-592536
-590708
-588908
-587134
-585387
-583666
-581970
-580298
-578651
-577027
-575426
-573848
-572291
-570756
-569242
-567748
-566276
-564821
-563390
-561968
-560584
-559182
-557866
-556436
-555275
-553480
-915905
-903830
-896525
-887126
-879189
-870850
-863064
-855323
-847879
-840588
-833514
-826614
-819900
-813356
-806980
-800765
-794706
-788797
-783034
-777411
-771924
-766568
-761339
-756232
-751245
-746374
-741614
-736962
-732416
-727971
-723630
-719380
-715252
-711174
-707360
-703334
-698709
-695773
-692240
-688481
-684975
-681497
-678120
-674803
-671558
-668375
-665255
-662194
-659192
-656247
-653357
-650520
-647735
-645001
-642317
-639680
-637091
-634547
-632046
-629590
-627170
-624801
-622449
-620159
-617909
-615692
-613514
-611368
-609258
-607180
-605135
-603122
-601140
-599189
-597268
-595376
-593512
-591677
-589868
-588087
-586331
-584601
-582896
-581215
-579558
-577924
-576314
-574725
-573158
-571612
-570088
-568582
-567101
-565630
-564197
-562747
-561383
-559906
-558699
-556862
-931296
-918846
-911280
-901574
-893366
-884749
-876701
-868700
-861005
-853470
-846159
-839027
-832087
-825323
-818733
-812309
-806046
-799938
-793982
-788169
-782498
-776962
-771557
-766279
-761124
-756088
-751168
-746359
-741659
-737064
-732573
-728179
-723885
-719685
-715575
-711592
-707596
-703649
-699933
-696204
-692582
-689015
-685528
-682105
-678752
-675463
-672238
-669075
-665972
-662928
-659941
-657009
-654131
-651305
-648531
-645806
-643130
-640500
-637917
-635373
-632863
-630405
-627841
-625616
-623293
-621012
-618764
-616544
-614363
-612213
-610099
-608017
-605968
-603951
-601965
-600009
-598083
-596186
-594317
-592475
-590661
-588873
-587110
-585373
-583660
-581972
-580307
-578665
-577045
-575447
-573872
-572316
-570785
-569265
-567783
-566285
-564874
-563351
-562098
-560218
-946571
-933748
-925924
-915912
-907435
-898543
-890234
-881976
-874033
-866255
-858707
-851346
-844182
-837199
-830397
-823765
-817301
-810996
-804847
-798847
-792993
-787278
-781698
-776250
-770928
-765729
-760650
-755686
-750834
-746090
-741451
-736914
-732474
-728128
-723846
-719694
-715317
-711619
-707707
-703907
-700162
-696487
-692886
-689354
-685893
-682498
-679169
-675904
-672701
-669559
-666475
-663448
-660477
-657560
-654696
-651884
-649122
-646409
-643745
-641130
-638554
-636058
-633506
-631014
-628665
-626286
-623970
-621676
-619425
-617205
-615023
-612874
-610759
-608677
-606627
-604608
-602619
-600661
-598731
-596831
-594957
-593112
-591292
-589499
-587731
-585988
-584269
-582574
-580903
-579253
-577628
-576021
-574441
-572872
-571342
-569797
-568339
-566770
-565470
-563549
-961726
-948533
-940452
-930138
-921395
-912228
-903662
-895148
-886958
-878939
-871158
-863567
-856181
-848982
-841969
-835132
-828466
-821966
-815627
-809441
-803405
-797512
-791760
-786141
-780655
-775294
-770057
-764938
-759935
-755043
-750260
-745581
-741003
-736526
-732133
-727851
-723615
-719513
-715491
-711548
-707685
-703897
-700185
-696545
-692977
-689477
-686046
-682679
-679377
-676137
-672957
-669837
-666774
-663767
-660816
-657916
-655075
-652276
-649560
-646840
-644340
-641565
-638732
-636473
-634157
-631559
-629178
-626782
-624459
-622163
-619912
-617694
-615513
-613366
-611252
-609170
-607120
-605100
-603111
-601151
-599220
-597317
-595441
-593592
-591770
-589973
-588201
-586453
-584730
-583029
-581353
-579697
-578068
-576451
-574873
-573280
-571776
-570161
-568815
-566854
-976758
-963197
-954862
-944248
-935240
-925803
-916979
-908212
-899778
-891520
-883506
-875690
-868083
-860669
-853446
-846405
-839541
-832847
-826320
-819949
-813736
-807664
-801740
-795953
-790302
-784781
-779387
-774115
-768962
-763924
-758996
-754176
-749458
-744843
-740311
-735898
-731518
-727330
-723176
-719127
-715147
-711249
-707426
-703678
-700003
-696400
-692866
-689399
-685998
-682661
-679387
-676172
-673018
-669920
-666879
-663891
-660959
-658074
-655245
-652450
-649726
-646983
-644380
-641839
-639251
-636736
-634259
-631823
-629429
-627072
-624754
-622472
-620226
-618015
-615838
-613694
-611583
-609504
-607455
-605437
-603448
-601488
-599556
-597652
-595775
-593924
-592100
-590300
-588525
-586774
-585048
-583342
-581664
-579999
-578374
-576735
-575184
-573524
-572133
-570131
-991662
-977738
-969150
-958238
-948969
-939262
-930184
-921166
-912489
-903994
-895750
-887709
-879884
-872257
-864826
-857583
-850522
-843635
-836919
-830365
-823974
-817729
-811634
-805681
-799867
-794187
-788638
-783215
-777913
-772730
-767660
-762702
-757850
-753104
-748453
-743908
-739446
-735094
-730825
-726648
-722553
-718540
-714607
-710751
-706971
-703264
-699628
-696062
-692563
-689130
-685761
-682455
-679209
-676023
-672894
-669821
-666803
-663836
-660923
-658053
-655226
-652451
-649585
-647064
-644440
-641869
-639330
-636827
-634366
-631942
-629558
-627210
-624900
-622625
-620386
-618180
-616008
-613869
-611762
-609685
-607639
-605623
-603636
-601677
-599746
-597842
-595965
-594114
-592288
-590487
-588711
-586957
-585230
-583518
-581845
-580160
-578563
-576859
-575422
-573380
-1.00644e+06
-992151
-983313
-972105
-962576
-952603
-943273
-934006
-925089
-916359
-907887
-899623
-891581
-883743
-876106
-868662
-861406
-854329
-847430
-840694
-834140
-827707
-821444
-815323
-809348
-803511
-797807
-792234
-786785
-781458
-776248
-771152
-766164
-761286
-756506
-751835
-747250
-742780
-738391
-734099
-729890
-725767
-721725
-717762
-713877
-710067
-706331
-702666
-699070
-695542
-692080
-688682
-685346
-682070
-678854
-675695
-672593
-669543
-666548
-663601
-660707
-657859
-655059
-652329
-649624
-646972
-644358
-641787
-639257
-636768
-634317
-631906
-629531
-627194
-624893
-622626
-620394
-618196
-616030
-613896
-611794
-609722
-607679
-605667
-603682
-601726
-599796
-597894
-596018
-594166
-592342
-590539
-588764
-587005
-585285
-583554
-581912
-580163
-578681
-576601
-1.02107e+06
-1.00643e+06
-997347
-985847
-976060
-965822
-956243
-946729
-937574
-928611
-919912
-911428
-903172
-895124
-887284
-879640
-872189
-864922
-857837
-850920
-844185
-837593
-831158
-824877
-818741
-812749
-806893
-801171
-795577
-790107
-784758
-779526
-774407
-769398
-764495
-759698
-754998
-750400
-745896
-741486
-737164
-732929
-728779
-724710
-720721
-716809
-712973
-709210
-705518
-701896
-698341
-694852
-691427
-688064
-684761
-681518
-678332
-675201
-672124
-669100
-666124
-663205
-660316
-657517
-654742
-652021
-649339
-646701
-644105
-641549
-639034
-636558
-634121
-631721
-629359
-627032
-624740
-622483
-620259
-618069
-615910
-613783
-611686
-609619
-607582
-605573
-603592
-601639
-599713
-597812
-595938
-594087
-592266
-590459
-588694
-586917
-585229
-583437
-581909
-579791
-1.03558e+06
-1.02058e+06
-1.01125e+06
-999458
-989417
-978917
-969090
-959332
-949941
-940747
-931825
-923122
-914653
-906398
-898355
-890515
-882870
-875418
-868151
-861061
-854234
-847386
-840783
-834339
-828044
-821899
-815892
-810023
-804285
-798675
-793188
-787821
-782570
-777432
-772403
-767482
-762662
-757946
-753325
-748801
-744367
-740023
-735766
-731592
-727500
-723487
-719552
-715692
-711905
-708189
-704543
-700964
-697450
-694000
-690613
-687285
-684017
-680806
-677651
-674551
-671503
-668508
-665563
-662673
-659827
-657031
-654279
-651572
-648908
-646286
-643706
-641167
-638667
-636206
-633782
-631395
-629045
-626729
-624449
-622201
-619987
-617805
-615654
-613534
-611444
-609384
-607352
-605348
-603373
-601423
-599501
-597602
-595734
-593881
-592069
-590248
-588515
-586679
-585107
-582952
-1.04994e+06
-1.03459e+06
-1.02501e+06
-1.01294e+06
-1.00264e+06
-991884
-981812
-971811
-962187
-952765
-943620
-934701
-926022
-917561
-909318
-901283
-893447
-885807
-878352
-871070
-863998
-857092
-850306
-843711
-837258
-830961
-824805
-818790
-812909
-807159
-801536
-796035
-790654
-785389
-780236