/*--------------------------------*- C++ -*----------------------------------*\
| =========                 |                                                 |
| \\      /  F ield         | foam-extend: Open Source CFD                    |
|  \\    /   O peration     | Version:     4.1                                |
|   \\  /    A nd           | Web:         http://www.foam-extend.org         |
|    \\/     M anipulation  |                                                 |
\*---------------------------------------------------------------------------*/
FoamFile
{
    version     2.0;
    format      ascii;
    class       vectorField;
    location    "2";
    object      residualD_iteration4;
}
// * * * * * * * * * * * * * * * * * * * * * * * * * * * * * * * * * * * * * //


1000
(
(0.0249911 -0.0140508 0)
(0.0227384 -0.0132093 0)
(0.0212059 -0.0127976 0)
(0.0201822 -0.0127114 0)
(0.0195202 -0.0128429 0)
(0.0191183 -0.0131007 0)
(0.0189134 -0.0134585 0)
(0.0188394 -0.0138899 0)
(0.0189999 -0.0142751 0)
(0.0192656 -0.0145675 0)
(0.0225013 -0.0153006 0)
(0.0201158 -0.0148386 0)
(0.0185095 -0.0146469 0)
(0.0174641 -0.0146967 0)
(0.0168101 -0.0149272 0)
(0.016415 -0.0152555 0)
(0.0162415 -0.0156476 0)
(0.0162372 -0.0161034 0)
(0.0164601 -0.0165093 0)
(0.0167867 -0.016979 0)
(0.0199232 -0.016515 0)
(0.0174988 -0.0164291 0)
(0.0159111 -0.0164847 0)
(0.0148744 -0.0166904 0)
(0.0142431 -0.0170179 0)
(0.0138867 -0.0174373 0)
(0.0137559 -0.0178965 0)
(0.013812 -0.0184034 0)
(0.0140635 -0.018888 0)
(0.0143996 -0.0194469 0)
(0.0173182 -0.0176577 0)
(0.0149612 -0.0179654 0)
(0.0134378 -0.0182593 0)
(0.0124493 -0.0186501 0)
(0.0118527 -0.0190893 0)
(0.01154 -0.0195728 0)
(0.0114454 -0.0200948 0)
(0.0115304 -0.0206478 0)
(0.011785 -0.0212092 0)
(0.0121116 -0.0218286 0)
(0.0146758 -0.0186753 0)
(0.0124921 -0.0193838 0)
(0.0110821 -0.0199336 0)
(0.0101799 -0.020489 0)
(0.00965077 -0.021043 0)
(0.00937953 -0.0216045 0)
(0.00931271 -0.0221849 0)
(0.00939906 -0.0227788 0)
(0.00963774 -0.0233876 0)
(0.00993913 -0.0240506 0)
(0.0120221 -0.0195694 0)
(0.0100852 -0.0206435 0)
(0.00885093 -0.0214354 0)
(0.00807263 -0.0221432 0)
(0.00762112 -0.0227899 0)
(0.00738392 -0.0234247 0)
(0.00733262 -0.0240591 0)
(0.00741846 -0.0247067 0)
(0.00763264 -0.0253541 0)
(0.00789667 -0.026039 0)
(0.00935218 -0.0203306 0)
(0.00775682 -0.0217314 0)
(0.00674536 -0.0227173 0)
(0.00610943 -0.0235538 0)
(0.00573678 -0.0242837 0)
(0.00554752 -0.0249704 0)
(0.00551487 -0.025648 0)
(0.00559049 -0.0263347 0)
(0.00576452 -0.0270225 0)
(0.00597725 -0.027736 0)
(0.00667843 -0.0209172 0)
(0.00548573 -0.0225769 0)
(0.00473371 -0.0237186 0)
(0.00427065 -0.0246585 0)
(0.00399207 -0.0254601 0)
(0.00385201 -0.0261905 0)
(0.00383085 -0.0269016 0)
(0.0038926 -0.0276104 0)
(0.00402273 -0.0283267 0)
(0.00417388 -0.02907 0)
(0.00400671 -0.0213168 0)
(0.0032748 -0.0231609 0)
(0.00281028 -0.0244003 0)
(0.00251571 -0.0254038 0)
(0.00233975 -0.0262555 0)
(0.00226374 -0.0270307 0)
(0.00225948 -0.027763 0)
(0.00229308 -0.0284794 0)
(0.00236517 -0.0292176 0)
(0.00245721 -0.0299808 0)
(0.00133964 -0.0215192 0)
(0.00108323 -0.0234414 0)
(0.000924739 -0.0247558 0)
(0.000835177 -0.0257959 0)
(0.000779072 -0.0266654 0)
(0.000745626 -0.0274566 0)
(0.000742053 -0.0282103 0)
(0.000757873 -0.0289445 0)
(0.000781988 -0.0296953 0)
(0.000810138 -0.0304636 0)
(0.0405085 -0.000683959 0)
(0.0407666 -0.000508373 0)
(0.0407704 -0.000402801 0)
(0.0407274 -0.000331708 0)
(0.0407045 -0.00030556 0)
(0.0407187 -0.000306443 0)
(0.0408103 -0.000304333 0)
(0.0409713 -0.000326564 0)
(0.04122 -0.000368474 0)
(0.0415616 -0.000401898 0)
(0.0401797 -0.00204607 0)
(0.0403551 -0.00151384 0)
(0.0403155 -0.00122276 0)
(0.040226 -0.00103964 0)
(0.0401749 -0.000925487 0)
(0.0401651 -0.000909793 0)
(0.0402445 -0.00094991 0)
(0.0404005 -0.00101604 0)
(0.0406418 -0.0011065 0)
(0.0409761 -0.00121681 0)
(0.0395133 -0.00342281 0)
(0.0395161 -0.00254155 0)
(0.0393805 -0.0020408 0)
(0.0392247 -0.00177674 0)
(0.0391224 -0.00164466 0)
(0.0390807 -0.00161094 0)
(0.0391324 -0.00165409 0)
(0.0392519 -0.00176148 0)
(0.0394583 -0.00192003 0)
(0.0397692 -0.00211391 0)
(0.0385361 -0.00477763 0)
(0.0383057 -0.00361827 0)
(0.0380185 -0.00293937 0)
(0.0377715 -0.00258086 0)
(0.0376021 -0.00242498 0)
(0.0375016 -0.0023963 0)
(0.0375103 -0.00246328 0)
(0.0376029 -0.00261905 0)
(0.0377684 -0.00284358 0)
(0.0380577 -0.00310643 0)
(0.0372566 -0.00611507 0)
(0.0367433 -0.00476931 0)
(0.0362774 -0.00396115 0)
(0.0359033 -0.00352426 0)
(0.0356507 -0.0033427 0)
(0.0354912 -0.00333217 0)
(0.0354422 -0.00343537 0)
(0.0354939 -0.00362358 0)
(0.0355986 -0.00389689 0)
(0.035845 -0.00421814 0)
(0.0357107 -0.00742399 0)
(0.0348718 -0.00597171 0)
(0.0342007 -0.00510203 0)
(0.0336921 -0.00463248 0)
(0.0333518 -0.00444025 0)
(0.0331309 -0.00444137 0)
(0.0330286 -0.00457258 0)
(0.0330359 -0.00479133 0)
(0.0330744 -0.0051118 0)
(0.0332715 -0.00548349 0)
(0.0339222 -0.00873404 0)
(0.0327449 -0.00723324 0)
(0.0318633 -0.00636633 0)
(0.0312218 -0.00591455 0)
(0.0307886 -0.0057376 0)
(0.0305048 -0.00575503 0)
(0.0303455 -0.00590488 0)
(0.0302969 -0.00614545 0)
(0.0302582 -0.00649961 0)
(0.0303867 -0.00689947 0)
(0.0319251 -0.0100743 0)
(0.0304101 -0.00859414 0)
(0.0293135 -0.00777098 0)
(0.0285466 -0.00736367 0)
(0.0280282 -0.00722893 0)
(0.0276942 -0.00727925 0)
(0.0274904 -0.00745763 0)
(0.0274042 -0.00772326 0)
(0.0273058 -0.00809876 0)
(0.0273327 -0.00849051 0)
(0.0297515 -0.0114209 0)
(0.0279306 -0.0100612 0)
(0.0266567 -0.0093183 0)
(0.0257784 -0.00898985 0)
(0.0251939 -0.00892191 0)
(0.0248133 -0.00902295 0)
(0.0245677 -0.00923555 0)
(0.0244372 -0.00950927 0)
(0.0242768 -0.00987019 0)
(0.0241532 -0.0102104 0)
(0.0274336 -0.0127567 0)
(0.025354 -0.0116157 0)
(0.0239348 -0.0110062 0)
(0.022976 -0.0107836 0)
(0.0223536 -0.0108001 0)
(0.0219617 -0.0109695 0)
(0.0217411 -0.0112328 0)
(0.0216466 -0.0115433 0)
(0.0215575 -0.0119091 0)
(0.0212445 -0.012203 0)
(0.0419972 -0.000427763 0)
(0.0424831 -0.00043966 0)
(0.0429943 -0.000439653 0)
(0.0435277 -0.000429522 0)
(0.0440675 -0.000415901 0)
(0.0446115 -0.000404822 0)
(0.0451709 -0.000403118 0)
(0.045742 -0.000404957 0)
(0.0463169 -0.000393789 0)
(0.046902 -0.000370834 0)
(0.0475 -0.000348546 0)
(0.0481092 -0.000331952 0)
(0.0487315 -0.000320676 0)
(0.0493694 -0.000312817 0)
(0.0500241 -0.000304907 0)
(0.0506955 -0.000295093 0)
(0.0513815 -0.000284829 0)
(0.0520855 -0.000274927 0)
(0.0528087 -0.000264367 0)
(0.0535532 -0.000250153 0)
(0.0414511 -0.00131078 0)
(0.0420074 -0.00133767 0)
(0.0425669 -0.00132722 0)
(0.0431328 -0.00130085 0)
(0.0437095 -0.00127577 0)
(0.0442865 -0.00125565 0)
(0.0448632 -0.00123682 0)
(0.0454419 -0.0012091 0)
(0.0460229 -0.00116046 0)
(0.0466125 -0.00110747 0)
(0.0472094 -0.00106718 0)
(0.0478144 -0.00103666 0)
(0.0484341 -0.00100905 0)
(0.0490743 -0.000981165 0)
(0.0497352 -0.000950611 0)
(0.0504139 -0.000918968 0)
(0.0511107 -0.00088978 0)
(0.0518305 -0.000862672 0)
(0.052568 -0.000832493 0)
(0.0533338 -0.000788687 0)
(0.0403033 -0.00225724 0)
(0.0409818 -0.00227636 0)
(0.0416501 -0.002252 0)
(0.0422982 -0.00221837 0)
(0.0429348 -0.00218088 0)
(0.0435618 -0.00213901 0)
(0.0441892 -0.00209443 0)
(0.0448162 -0.0020441 0)
(0.045437 -0.00197826 0)
(0.0460623 -0.00191512 0)
(0.046693 -0.00186322 0)
(0.0473302 -0.001813 0)
(0.0479792 -0.00175991 0)
(0.0486431 -0.00170559 0)
(0.0493187 -0.00165076 0)
(0.0500068 -0.00159782 0)
(0.0507144 -0.00154883 0)
(0.0514459 -0.00150265 0)
(0.0521893 -0.00145219 0)
(0.0529651 -0.00137968 0)
(0.0386914 -0.0032785 0)
(0.0395452 -0.00327594 0)
(0.0403471 -0.00323202 0)
(0.041094 -0.00318954 0)
(0.0418205 -0.00314182 0)
(0.042524 -0.00308573 0)
(0.0432104 -0.00302541 0)
(0.0438822 -0.00295545 0)
(0.0445464 -0.00286994 0)
(0.0452119 -0.00279323 0)
(0.045879 -0.00272758 0)
(0.0465513 -0.00265674 0)
(0.0472358 -0.00257761 0)
(0.047934 -0.00249704 0)
(0.0486411 -0.00241931 0)
(0.0493607 -0.00234287 0)
(0.0501006 -0.00226866 0)
(0.0508576 -0.00219416 0)
(0.0516307 -0.00211196 0)
(0.0524263 -0.00200624 0)
(0.0365859 -0.00440101 0)
(0.0376553 -0.00435676 0)
(0.0386438 -0.00427856 0)
(0.0395312 -0.004213 0)
(0.0403711 -0.00413899 0)
(0.0411652 -0.00405545 0)
(0.0419361 -0.00397621 0)
(0.0426771 -0.00389091 0)
(0.0434099 -0.00379496 0)
(0.0441379 -0.00370567 0)
(0.0448575 -0.00361937 0)
(0.0455756 -0.00352341 0)
(0.0463024 -0.00342073 0)
(0.0470382 -0.00331944 0)
(0.047782 -0.00322127 0)
(0.0485384 -0.00312085 0)
(0.049314 -0.00302049 0)
(0.0500977 -0.00291714 0)
(0.0509053 -0.00280408 0)
(0.0517287 -0.00266855 0)
(0.0341291 -0.00564982 0)
(0.0354186 -0.00552574 0)
(0.0365897 -0.00538004 0)
(0.0376109 -0.00526518 0)
(0.0385756 -0.0051494 0)
(0.0394744 -0.00503688 0)
(0.0403455 -0.00494064 0)
(0.0411771 -0.00483868 0)
(0.0419879 -0.00473058 0)
(0.0427856 -0.00462657 0)
(0.0435722 -0.00451854 0)
(0.0443579 -0.00439839 0)
(0.0451503 -0.00427434 0)
(0.0459438 -0.00415543 0)
(0.046739 -0.00403794 0)
(0.0475421 -0.00391549 0)
(0.0483611 -0.00379261 0)
(0.0491872 -0.00366679 0)
(0.0500322 -0.00353364 0)
(0.0508917 -0.00338101 0)
(0.0313604 -0.00701241 0)
(0.0328698 -0.00676375 0)
(0.0342345 -0.00652691 0)
(0.0354004 -0.00635439 0)
(0.0364943 -0.00619581 0)
(0.0375139 -0.00605325 0)
(0.0384776 -0.00592705 0)
(0.0394067 -0.00579922 0)
(0.0403124 -0.0056711 0)
(0.0411987 -0.00554794 0)
(0.0420704 -0.00542161 0)
(0.042938 -0.00528529 0)
(0.0438053 -0.00514615 0)
(0.0446671 -0.00501248 0)
(0.0455281 -0.00487863 0)
(0.0463924 -0.00474136 0)
(0.0472659 -0.00460705 0)
(0.0481484 -0.00447085 0)
(0.0490431 -0.00432813 0)
(0.0499447 -0.00416886 0)
(0.0283839 -0.00849966 0)
(0.0300678 -0.00807445 0)
(0.0315845 -0.00772241 0)
(0.0328818 -0.0074716 0)
(0.0340914 -0.00725672 0)
(0.0352333 -0.00707679 0)
(0.0363115 -0.0069211 0)
(0.0373554 -0.00677708 0)
(0.0383738 -0.00663563 0)
(0.0393692 -0.00649701 0)
(0.0403465 -0.0063571 0)
(0.041315 -0.00621034 0)
(0.0422755 -0.00606215 0)
(0.0432243 -0.00591975 0)
(0.0441694 -0.00577776 0)
(0.0451145 -0.00563609 0)
(0.0460647 -0.0054986 0)
(0.0470153 -0.00535958 0)
(0.0479715 -0.00521226 0)
(0.0489199 -0.00504381 0)
(0.0252353 -0.0100962 0)
(0.0270097 -0.00945416 0)
(0.0286207 -0.00896692 0)
(0.0300309 -0.0086151 0)
(0.0313736 -0.00834212 0)
(0.0326407 -0.00812569 0)
(0.033859 -0.0079448 0)
(0.0350419 -0.00778763 0)
(0.0361937 -0.00763737 0)
(0.0373172 -0.00749207 0)
(0.0384182 -0.00734926 0)
(0.0395049 -0.00720174 0)
(0.0405764 -0.0070534 0)
(0.0416332 -0.00691084 0)
(0.0426849 -0.00676913 0)
(0.043733 -0.00663085 0)
(0.0447821 -0.00649318 0)
(0.045819 -0.00635004 0)
(0.0468473 -0.00619 0)
(0.0478523 -0.00599633 0)
(0.0220635 -0.0116591 0)
(0.0238686 -0.0107106 0)
(0.0255338 -0.01013 0)
(0.0270543 -0.00972749 0)
(0.0285232 -0.00942414 0)
(0.029928 -0.00918938 0)
(0.0312929 -0.00899658 0)
(0.0326216 -0.00883047 0)
(0.0339163 -0.00867519 0)
(0.0351774 -0.00853047 0)
(0.0364106 -0.00839317 0)
(0.0376239 -0.00825263 0)
(0.0388168 -0.00811136 0)
(0.0399935 -0.00797606 0)
(0.0411622 -0.0078422 0)
(0.0423226 -0.00771208 0)
(0.0434744 -0.00757425 0)
(0.0446106 -0.00742155 0)
(0.0457221 -0.00723442 0)
(0.0467974 -0.00700161 0)
(0.0198603 -0.0133979 0)
(0.021369 -0.0122931 0)
(0.0230435 -0.0116264 0)
(0.0247103 -0.0111156 0)
(0.0263117 -0.0107331 0)
(0.0278538 -0.0104381 0)
(0.029342 -0.0102004 0)
(0.030785 -0.0100009 0)
(0.0321866 -0.00982301 0)
(0.0335469 -0.00966334 0)
(0.0348738 -0.00951552 0)
(0.0361763 -0.00936816 0)
(0.0374517 -0.00922412 0)
(0.0387068 -0.00908879 0)
(0.039948 -0.00895603 0)
(0.0411769 -0.0088234 0)
(0.0423831 -0.00867207 0)
(0.0435723 -0.00849488 0)
(0.0447279 -0.00826937 0)
(0.0458448 -0.00800154 0)
(0.0185949 -0.0152035 0)
(0.0201501 -0.0141075 0)
(0.0217689 -0.0133416 0)
(0.0234264 -0.012736 0)
(0.0250411 -0.0122638 0)
(0.0266193 -0.0118872 0)
(0.0281503 -0.011581 0)
(0.0296406 -0.0113279 0)
(0.0310885 -0.0111094 0)
(0.0324905 -0.0109173 0)
(0.0338558 -0.0107416 0)
(0.0351933 -0.0105722 0)
(0.0364987 -0.0104121 0)
(0.0377795 -0.0102633 0)
(0.0390392 -0.0101177 0)
(0.0402813 -0.00996606 0)
(0.0414921 -0.00978476 0)
(0.0426837 -0.00956857 0)
(0.0438368 -0.00930804 0)
(0.0449576 -0.00902635 0)
(0.0174969 -0.0168782 0)
(0.0190736 -0.0158073 0)
(0.0206956 -0.0150079 0)
(0.0223494 -0.014365 0)
(0.0239783 -0.0138337 0)
(0.0255704 -0.0133897 0)
(0.0271233 -0.0130218 0)
(0.0286404 -0.0127182 0)
(0.0301148 -0.0124581 0)
(0.0315406 -0.0122294 0)
(0.0329287 -0.0120222 0)
(0.0342868 -0.0118288 0)
(0.0356088 -0.0116503 0)
(0.0369024 -0.0114837 0)
(0.03817 -0.0113192 0)
(0.0394152 -0.0111432 0)
(0.0406246 -0.0109305 0)
(0.0418166 -0.0106819 0)
(0.0429676 -0.010408 0)
(0.0440934 -0.0101279 0)
(0.0165228 -0.0185446 0)
(0.0181075 -0.0175001 0)
(0.019723 -0.0166704 0)
(0.0213692 -0.0159853 0)
(0.0229987 -0.0154019 0)
(0.0245933 -0.0149051 0)
(0.0261561 -0.0144888 0)
(0.0276869 -0.0141418 0)
(0.0291754 -0.0138429 0)
(0.0306153 -0.0135789 0)
(0.0320188 -0.0133415 0)
(0.0333918 -0.0131248 0)
(0.0347261 -0.0129262 0)
(0.0360292 -0.0127374 0)
(0.037303 -0.0125494 0)
(0.0385538 -0.0123479 0)
(0.0397651 -0.0121114 0)
(0.0409614 -0.0118487 0)
(0.0421136 -0.0115786 0)
(0.0432444 -0.0112902 0)
(0.0156936 -0.0201337 0)
(0.017268 -0.019145 0)
(0.0188632 -0.0183121 0)
(0.0204968 -0.0176005 0)
(0.0221114 -0.0169829 0)
(0.0236989 -0.0164488 0)
(0.0252594 -0.0159936 0)
(0.0267914 -0.0156074 0)
(0.0282835 -0.0152713 0)
(0.0297289 -0.0149721 0)
(0.0311408 -0.014703 0)
(0.0325227 -0.0144602 0)
(0.0338656 -0.0142366 0)
(0.0351757 -0.0140199 0)
(0.0364544 -0.0138049 0)
(0.0377109 -0.013579 0)
(0.038927 -0.0133292 0)
(0.0401279 -0.0130665 0)
(0.0412826 -0.0127972 0)
(0.0424184 -0.0124809 0)
(0.0149753 -0.0216638 0)
(0.0165343 -0.0207292 0)
(0.0181061 -0.019912 0)
(0.0197139 -0.019193 0)
(0.0213077 -0.0185564 0)
(0.0228805 -0.017996 0)
(0.0244284 -0.0175076 0)
(0.0259529 -0.0170846 0)
(0.0274418 -0.0167127 0)
(0.0288873 -0.0163787 0)
(0.0303024 -0.0160766 0)
(0.0316885 -0.0158057 0)
(0.0330366 -0.0155554 0)
(0.0343518 -0.0153105 0)
(0.0356352 -0.0150719 0)
(0.0368955 -0.0148292 0)
(0.038116 -0.0145766 0)
(0.03932 -0.0143167 0)
(0.0404796 -0.0140327 0)
(0.0416239 -0.0136957 0)
(0.0143465 -0.0231423 0)
(0.0158828 -0.0222565 0)
(0.0174326 -0.0214676 0)
(0.0190093 -0.0207541 0)
(0.0205823 -0.0201071 0)
(0.0221335 -0.0195265 0)
(0.0236626 -0.0190096 0)
(0.0251747 -0.0185543 0)
(0.0266568 -0.0181518 0)
(0.028099 -0.0177869 0)
(0.0295136 -0.0174533 0)
(0.0308999 -0.0171548 0)
(0.03225 -0.0168804 0)
(0.0335668 -0.016613 0)
(0.0348531 -0.016358 0)
(0.0361146 -0.0161068 0)
(0.0373372 -0.0158541 0)
(0.0385436 -0.0155888 0)
(0.0397103 -0.0152841 0)
(0.0408653 -0.0149603 0)
(0.0138021 -0.0245788 0)
(0.0153136 -0.0237412 0)
(0.0168368 -0.0229841 0)
(0.0183867 -0.0222805 0)
(0.0199362 -0.0216289 0)
(0.0214614 -0.0210358 0)
(0.0229683 -0.0205001 0)
(0.0244653 -0.0200222 0)
(0.0259376 -0.0195987 0)
(0.027373 -0.0192096 0)
(0.0287828 -0.018848 0)
(0.030165 -0.0185227 0)
(0.0315129 -0.0182256 0)
(0.032827 -0.0179406 0)
(0.0341122 -0.0176736 0)
(0.0353722 -0.0174136 0)
(0.0365947 -0.0171517 0)
(0.0378045 -0.0168717 0)
(0.0389778 -0.0165624 0)
(0.0401399 -0.0162642 0)
(0.0133324 -0.0259842 0)
(0.0148211 -0.0251904 0)
(0.0163158 -0.0244634 0)
(0.0178424 -0.0237741 0)
(0.0193645 -0.0231262 0)
(0.0208629 -0.0225313 0)
(0.0223479 -0.0219882 0)
(0.0238281 -0.0214959 0)
(0.0252874 -0.0210586 0)
(0.0267122 -0.0206494 0)
(0.0281126 -0.0202623 0)
(0.0294858 -0.0199095 0)
(0.0308266 -0.0195875 0)
(0.0321339 -0.0192843 0)
(0.0334138 -0.0190038 0)
(0.0346698 -0.018729 0)
(0.0358914 -0.0184501 0)
(0.037105 -0.0181591 0)
(0.0382816 -0.0178696 0)
(0.0394445 -0.0175694 0)
(0.0129257 -0.0273587 0)
(0.0143898 -0.0266015 0)
(0.0158605 -0.0259047 0)
(0.0173615 -0.0252354 0)
(0.0188559 -0.0245985 0)
(0.0203306 -0.0240088 0)
(0.0217954 -0.0234636 0)
(0.0232582 -0.0229579 0)
(0.0247021 -0.0225078 0)
(0.0261131 -0.0220809 0)
(0.0275004 -0.0216731 0)
(0.0288608 -0.0212973 0)
(0.0301905 -0.0209531 0)
(0.0314878 -0.0206326 0)
(0.0327599 -0.0203379 0)
(0.034011 -0.0200481 0)
(0.0352315 -0.0197598 0)
(0.0364456 -0.019477 0)
(0.0376223 -0.0192094 0)
(0.038785 -0.0188953 0)
(0.0125699 -0.0286995 0)
(0.0140084 -0.0279773 0)
(0.0154572 -0.0273096 0)
(0.0169305 -0.0266612 0)
(0.0184009 -0.0260363 0)
(0.019856 -0.0254528 0)
(0.0213031 -0.0249088 0)
(0.0227485 -0.0243919 0)
(0.0241751 -0.0239314 0)
(0.0255704 -0.0234941 0)
(0.0269426 -0.0230767 0)
(0.0282887 -0.0226892 0)
(0.0296056 -0.0223301 0)
(0.0308919 -0.0219941 0)
(0.0321558 -0.0216852 0)
(0.0334021 -0.0213855 0)
(0.0346205 -0.0211019 0)
(0.035831 -0.0208381 0)
(0.0370068 -0.0205648 0)
(0.0381741 -0.0202704 0)
(0.012253 -0.0300164 0)
(0.0136682 -0.0293307 0)
(0.0150937 -0.0286845 0)
(0.0165431 -0.0280521 0)
(0.0179951 -0.0274384 0)
(0.0194336 -0.0268645 0)
(0.0208644 -0.0263302 0)
(0.0222926 -0.0258138 0)
(0.0237013 -0.0253458 0)
(0.0250802 -0.0249022 0)
(0.026437 -0.0244793 0)
(0.0277692 -0.0240834 0)
(0.0290739 -0.023711 0)
(0.0303502 -0.0233577 0)
(0.0316065 -0.023033 0)
(0.0328475 -0.0227276 0)
(0.0340608 -0.0224511 0)
(0.0352668 -0.022191 0)
(0.0364415 -0.0218989 0)
(0.0376146 -0.021636 0)
(0.0119715 -0.0313224 0)
(0.0133652 -0.0306657 0)
(0.0147693 -0.0300316 0)
(0.0162013 -0.0294138 0)
(0.0176378 -0.0288149 0)
(0.0190597 -0.0282553 0)
(0.0204734 -0.0277321 0)
(0.0218851 -0.0272262 0)
(0.0232767 -0.0267468 0)
(0.0246403 -0.0262916 0)
(0.025983 -0.0258593 0)
(0.0273024 -0.0254555 0)
(0.0285962 -0.0250752 0)
(0.029864 -0.0247141 0)
(0.0311137 -0.0243855 0)
(0.0323486 -0.0240822 0)
(0.0335545 -0.0238056 0)
(0.0347578 -0.0235281 0)
(0.0359318 -0.0232514 0)
(0.037105 -0.0229891 0)
(0.0117266 -0.0326118 0)
(0.013101 -0.0319712 0)
(0.014489 -0.031351 0)
(0.015906 -0.0307523 0)
(0.0173252 -0.0301699 0)
(0.0187291 -0.0296216 0)
(0.0201253 -0.0290958 0)
(0.0215224 -0.0286031 0)
(0.0228998 -0.0281222 0)
(0.0242494 -0.0276632 0)
(0.0255799 -0.0272298 0)
(0.0268888 -0.0268257 0)
(0.0281743 -0.0264448 0)
(0.029436 -0.026084 0)
(0.0306804 -0.0257584 0)
(0.0319087 -0.0254557 0)
(0.0331092 -0.0251678 0)
(0.034311 -0.0248752 0)
(0.0354857 -0.0246324 0)
(0.0366552 -0.0243831 0)
(0.0115175 -0.0338691 0)
(0.0128765 -0.0332551 0)
(0.0142502 -0.0326563 0)
(0.0156494 -0.0320761 0)
(0.0170501 -0.0315048 0)
(0.0184371 -0.0309664 0)
(0.0198183 -0.030438 0)
(0.0212026 -0.0299548 0)
(0.0225696 -0.0294865 0)
(0.0239082 -0.0290293 0)
(0.0252281 -0.0285903 0)
(0.0265287 -0.0281791 0)
(0.0278083 -0.0277923 0)
(0.0290649 -0.027428 0)
(0.0303039 -0.0270991 0)
(0.0315274 -0.0267859 0)
(0.0327263 -0.0264833 0)
(0.0339237 -0.0262062 0)
(0.035095 -0.025958 0)
(0.036266 -0.0257434 0)
(0.0113387 -0.0351201 0)
(0.0126843 -0.0345412 0)
(0.0140423 -0.0339574 0)
(0.015423 -0.0333869 0)
(0.0168081 -0.0328302 0)
(0.0181817 -0.0323001 0)
(0.0195517 -0.0317738 0)
(0.0209236 -0.0312746 0)
(0.0222796 -0.0308099 0)
(0.0236097 -0.0303671 0)
(0.0249229 -0.0299388 0)
(0.0262179 -0.0295323 0)
(0.0274939 -0.0291456 0)
(0.0287481 -0.0287785 0)
(0.0299832 -0.028441 0)
(0.0312024 -0.0281135 0)
(0.0323988 -0.0278058 0)
(0.0335943 -0.0275545 0)
(0.0347598 -0.0272939 0)
(0.0359308 -0.0270799 0)
(0.0111844 -0.0364065 0)
(0.0125158 -0.0358245 0)
(0.0138578 -0.0352513 0)
(0.0152228 -0.034687 0)
(0.0165955 -0.0341461 0)
(0.0179594 -0.0336197 0)
(0.0193214 -0.0331062 0)
(0.0206854 -0.0326063 0)
(0.022032 -0.0321387 0)
(0.0233538 -0.0316962 0)
(0.0246621 -0.0312679 0)
(0.0259564 -0.0308596 0)
(0.0272322 -0.0304712 0)
(0.0284838 -0.0301015 0)
(0.0297154 -0.0297562 0)
(0.0309331 -0.029418 0)
(0.0321274 -0.0291102 0)
(0.0333254 -0.0288427 0)
(0.0344908 -0.028624 0)
(0.0356549 -0.028425 0)
(0.0110476 -0.037672 0)
(0.0123693 -0.0371083 0)
(0.0136993 -0.036558 0)
(0.015052 -0.0359947 0)
(0.0164135 -0.0354417 0)
(0.0177695 -0.0349164 0)
(0.0191245 -0.034411 0)
(0.0204792 -0.0339254 0)
(0.0218172 -0.0334648 0)
(0.0231347 -0.0330167 0)
(0.0244428 -0.0325774 0)
(0.0257378 -0.0321653 0)
(0.0270114 -0.0317797 0)
(0.0282587 -0.0314022 0)
(0.0294923 -0.0310343 0)
(0.0307173 -0.0306853 0)
(0.031911 -0.0303917 0)
(0.0330999 -0.0301026 0)
(0.0342666 -0.0298911 0)
(0.0354394 -0.0297126 0)
(0.0109245 -0.0389312 0)
(0.0122397 -0.0383973 0)
(0.0135603 -0.0378564 0)
(0.0149064 -0.0373003 0)
(0.0162615 -0.0367475 0)
(0.0176074 -0.0362212 0)
(0.0189512 -0.0357197 0)
(0.0202974 -0.0352375 0)
(0.0216335 -0.0347707 0)
(0.0229545 -0.034316 0)
(0.0242627 -0.0338801 0)
(0.0255522 -0.0334695 0)
(0.0268258 -0.0330672 0)
(0.0280831 -0.0326689 0)
(0.0293241 -0.0322938 0)
(0.0305462 -0.031938 0)
(0.0317398 -0.0316195 0)
(0.0329354 -0.0313616 0)
(0.0341096 -0.0311477 0)
(0.0352812 -0.0309781 0)
(0.0108195 -0.0402177 0)
(0.0121244 -0.0396772 0)
(0.0134362 -0.039131 0)
(0.0147804 -0.0385822 0)
(0.0161273 -0.0380494 0)
(0.017458 -0.0375295 0)
(0.0187922 -0.0370188 0)
(0.0201412 -0.0365235 0)
(0.0214795 -0.0360511 0)
(0.0227942 -0.0355935 0)
(0.0241007 -0.0351486 0)
(0.0253989 -0.034726 0)
(0.0266807 -0.0343082 0)
(0.0279424 -0.0338922 0)
(0.029187 -0.0335138 0)
(0.0304183 -0.0331557 0)
(0.0316231 -0.032791 0)
(0.0328231 -0.0325457 0)
(0.034016 -0.0323307 0)
(0.035198 -0.0322144 0)
(0.000792242 -0.0312429 0)
(0.00240301 -0.0307743 0)
(0.00407529 -0.0298953 0)
(0.00582995 -0.028592 0)
(0.00768469 -0.0269534 0)
(0.00964753 -0.0250242 0)
(0.0117138 -0.0228471 0)
(0.0138662 -0.0205105 0)
(0.016159 -0.0180631 0)
(0.0183845 -0.0155253 0)
(0.00071982 -0.0320329 0)
(0.00218093 -0.0315924 0)
(0.0037028 -0.0307864 0)
(0.00530139 -0.0295608 0)
(0.00698902 -0.0280206 0)
(0.00878062 -0.0261989 0)
(0.0106712 -0.0241285 0)
(0.0126468 -0.0218831 0)
(0.014779 -0.0194771 0)
(0.0168222 -0.0170847 0)
(0.000650672 -0.0327959 0)
(0.00197132 -0.0323601 0)
(0.00334641 -0.0316118 0)
(0.00480434 -0.0304511 0)
(0.00635233 -0.0289871 0)
(0.00801008 -0.0272644 0)
(0.0097743 -0.0252997 0)
(0.0116484 -0.0231621 0)
(0.0136872 -0.0208575 0)
(0.0156844 -0.0186175 0)
(0.0005914 -0.0335159 0)
(0.00180531 -0.0330835 0)
(0.00306989 -0.0323777 0)
(0.00442111 -0.0312781 0)
(0.0058696 -0.0298727 0)
(0.00742949 -0.0282436 0)
(0.00910378 -0.0263875 0)
(0.0108938 -0.0243674 0)
(0.0128211 -0.0221977 0)
(0.0147506 -0.0201123 0)
(0.000547588 -0.0342075 0)
(0.00166722 -0.033782 0)
(0.00284798 -0.0331144 0)
(0.00411193 -0.0320802 0)
(0.0054772 -0.0307469 0)
(0.00695317 -0.0292119 0)
(0.00854201 -0.0274571 0)
(0.0102572 -0.0255512 0)
(0.0120919 -0.0235237 0)
(0.0139621 -0.0215736 0)
(0.000518889 -0.0348785 0)
(0.00156121 -0.0344607 0)
(0.00267423 -0.0338361 0)
(0.00386557 -0.0328615 0)
(0.00515682 -0.0315993 0)
(0.00656452 -0.030145 0)
(0.00808129 -0.0284888 0)
(0.00972587 -0.0267005 0)
(0.0114816 -0.0248196 0)
(0.0132844 -0.0229985 0)
(0.000490165 -0.0355379 0)
(0.00147948 -0.0351368 0)
(0.00253542 -0.0345357 0)
(0.00366774 -0.0336209 0)
(0.00489807 -0.0324347 0)
(0.00623967 -0.0310608 0)
(0.00769513 -0.0295057 0)
(0.00927842 -0.0278357 0)
(0.0109661 -0.0260904 0)
(0.0127008 -0.0243896 0)
(0.000465271 -0.0361762 0)
(0.00141537 -0.0358146 0)
(0.00242122 -0.0352206 0)
(0.00350363 -0.0343729 0)
(0.00468612 -0.0332639 0)
(0.00597303 -0.0319732 0)
(0.00737188 -0.0305204 0)
(0.0088984 -0.0289655 0)
(0.0105254 -0.0273387 0)
(0.0121995 -0.0257513 0)
(0.000452708 -0.0368009 0)
(0.00136451 -0.0364886 0)
(0.00232863 -0.0359048 0)
(0.00337278 -0.0351261 0)
(0.00451014 -0.0340892 0)
(0.00575327 -0.0328814 0)
(0.00710364 -0.0315294 0)
(0.00857538 -0.0300868 0)
(0.0101455 -0.028564 0)
(0.0117685 -0.0270823 0)
(0.000443772 -0.0374164 0)
(0.00131954 -0.0371491 0)
(0.00225173 -0.0365897 0)
(0.00326997 -0.035872 0)
(0.00436783 -0.0349055 0)
(0.00557103 -0.0337852 0)
(0.00687863 -0.0325279 0)
(0.00829978 -0.0311856 0)
(0.00981829 -0.0297613 0)
(0.0113958 -0.0283808 0)
(0.000428727 -0.0380222 0)
(0.00127988 -0.0377972 0)
(0.00219013 -0.0372756 0)
(0.00318624 -0.0366111 0)
(0.00425339 -0.0357148 0)
(0.00541895 -0.0346858 0)
(0.00668643 -0.0335149 0)
(0.00806299 -0.0322579 0)
(0.00953579 -0.0309384 0)
(0.0110684 -0.0296585 0)
(0.000411469 -0.0386315 0)
(0.00125014 -0.0384473 0)
(0.0021453 -0.0379673 0)
(0.00311727 -0.0373548 0)
(0.00416027 -0.0365275 0)
(0.00529219 -0.0355828 0)
(0.00652263 -0.0344939 0)
(0.00785972 -0.0333208 0)
(0.00928956 -0.0321115 0)
(0.0107784 -0.0309253 0)
(0.000400677 -0.0392624 0)
(0.00123124 -0.0391138 0)
(0.00211355 -0.0386699 0)
(0.00306145 -0.0381096 0)
(0.00408368 -0.0373497 0)
(0.00518654 -0.0364749 0)
(0.00638418 -0.0354658 0)
(0.00768469 -0.0343871 0)
(0.00907368 -0.0332753 0)
(0.0105256 -0.032172 0)
(0.000397269 -0.039922 0)
(0.0012166 -0.0398016 0)
(0.00208533 -0.039387 0)
(0.00301302 -0.0388702 0)
(0.00401648 -0.0381707 0)
(0.00509478 -0.0373577 0)
(0.00626372 -0.0364314 0)
(0.00753041 -0.0354518 0)
(0.00888459 -0.034419 0)
(0.0103074 -0.0334022 0)
(0.000394477 -0.0406056 0)
(0.00119758 -0.0405034 0)
(0.00205247 -0.0401137 0)
(0.00296489 -0.0396281 0)
(0.00395062 -0.0389824 0)
(0.00500704 -0.0382348 0)
(0.00614973 -0.0374035 0)
(0.00738898 -0.0365136 0)
(0.00871776 -0.0355584 0)
(0.0101173 -0.0346254 0)
(0.000387231 -0.0413049 0)
(0.00117247 -0.0412062 0)
(0.00201442 -0.0408413 0)
(0.00291271 -0.0403855 0)
(0.00387957 -0.0397987 0)
(0.00491609 -0.0391202 0)
(0.00603732 -0.0383741 0)
(0.00725843 -0.0375552 0)
(0.00856999 -0.0366952 0)
(0.00995149 -0.0358259 0)
(0.000377155 -0.0420135 0)
(0.00114583 -0.0419103 0)
(0.00197338 -0.0415774 0)
(0.00285618 -0.0411487 0)
(0.00380371 -0.0406145 0)
(0.00482178 -0.0400115 0)
(0.00592828 -0.0393416 0)
(0.00713747 -0.0386014 0)
(0.00843692 -0.0378464 0)
(0.00980683 -0.0370573 0)
(0.000367355 -0.042733 0)
(0.00111953 -0.0426244 0)
(0.00192878 -0.0423235 0)
(0.00279381 -0.0419312 0)
(0.00372363 -0.0414547 0)
(0.00472692 -0.0409235 0)
(0.00582405 -0.0403229 0)
(0.00702536 -0.0396716 0)
(0.00831529 -0.0389851 0)
(0.00967947 -0.0382911 0)
(0.000358125 -0.0434725 0)
(0.00109054 -0.0433534 0)
(0.00187679 -0.0430817 0)
(0.0027205 -0.0427267 0)
(0.00363237 -0.0423067 0)
(0.00462541 -0.0418366 0)
(0.00571639 -0.0413043 0)
(0.00691312 -0.0407363 0)
(0.00819716 -0.0401345 0)
(0.0095605 -0.0395207 0)
(0.000346778 -0.0442358 0)
(0.00105315 -0.0441143 0)
(0.00181183 -0.0438752 0)
(0.00263644 -0.0435721 0)
(0.00353528 -0.0432102 0)
(0.00451989 -0.0427909 0)
(0.00560628 -0.0423221 0)
(0.00680402 -0.0417966 0)
(0.00809064 -0.0412794 0)
(0.00945732 -0.0407571 0)
)


// ************************************************************************* //
