/*--------------------------------*- C++ -*----------------------------------*\
| =========                 |                                                 |
| \\      /  F ield         | foam-extend: Open Source CFD                    |
|  \\    /   O peration     | Version:     4.1                                |
|   \\  /    A nd           | Web:         http://www.foam-extend.org         |
|    \\/     M anipulation  |                                                 |
\*---------------------------------------------------------------------------*/
FoamFile
{
    version     2.0;
    format      ascii;
    class       vectorField;
    location    "2";
    object      solidsCellD_iteration18;
}
// * * * * * * * * * * * * * * * * * * * * * * * * * * * * * * * * * * * * * //


1000
(
(1.00356e-06 -4.02107e-07 0)
(9.48806e-07 -3.75134e-07 0)
(9.14174e-07 -3.58428e-07 0)
(8.94603e-07 -3.51253e-07 0)
(8.85558e-07 -3.49608e-07 0)
(8.84139e-07 -3.52182e-07 0)
(8.88418e-07 -3.57555e-07 0)
(8.96834e-07 -3.65025e-07 0)
(9.08611e-07 -3.73905e-07 0)
(9.2253e-07 -3.83653e-07 0)
(9.07613e-07 -4.39375e-07 0)
(8.4938e-07 -4.21132e-07 0)
(8.12507e-07 -4.09969e-07 0)
(7.91235e-07 -4.06547e-07 0)
(7.80818e-07 -4.07407e-07 0)
(7.78157e-07 -4.11745e-07 0)
(7.81202e-07 -4.18342e-07 0)
(7.88369e-07 -4.26752e-07 0)
(7.98813e-07 -4.36297e-07 0)
(8.11195e-07 -4.46695e-07 0)
(8.07897e-07 -4.74709e-07 0)
(7.48428e-07 -4.66215e-07 0)
(7.10743e-07 -4.61246e-07 0)
(6.88721e-07 -4.61957e-07 0)
(6.77542e-07 -4.65537e-07 0)
(6.74033e-07 -4.71735e-07 0)
(6.76116e-07 -4.79611e-07 0)
(6.8223e-07 -4.88927e-07 0)
(6.91491e-07 -4.9914e-07 0)
(7.02704e-07 -5.09976e-07 0)
(7.05091e-07 -5.07445e-07 0)
(6.46909e-07 -5.09128e-07 0)
(6.10005e-07 -5.10658e-07 0)
(5.88231e-07 -5.15677e-07 0)
(5.76922e-07 -5.2206e-07 0)
(5.72932e-07 -5.30147e-07 0)
(5.74236e-07 -5.39291e-07 0)
(5.79401e-07 -5.49489e-07 0)
(5.8752e-07 -5.60346e-07 0)
(5.97504e-07 -5.71676e-07 0)
(5.9998e-07 -5.36926e-07 0)
(5.45493e-07 -5.48701e-07 0)
(5.10943e-07 -5.56647e-07 0)
(4.90449e-07 -5.65905e-07 0)
(4.79621e-07 -5.75039e-07 0)
(4.75498e-07 -5.84991e-07 0)
(4.7624e-07 -5.9539e-07 0)
(4.80533e-07 -6.06452e-07 0)
(4.87519e-07 -6.17955e-07 0)
(4.9617e-07 -6.29779e-07 0)
(4.92979e-07 -5.62603e-07 0)
(4.44651e-07 -5.83818e-07 0)
(4.14002e-07 -5.97769e-07 0)
(3.95712e-07 -6.10987e-07 0)
(3.85925e-07 -6.22692e-07 0)
(3.82017e-07 -6.34363e-07 0)
(3.82388e-07 -6.4592e-07 0)
(3.85853e-07 -6.57776e-07 0)
(3.91649e-07 -6.69894e-07 0)
(3.98855e-07 -6.82236e-07 0)
(3.84696e-07 -5.83854e-07 0)
(3.44631e-07 -6.13325e-07 0)
(3.19205e-07 -6.32553e-07 0)
(3.03978e-07 -6.49263e-07 0)
(2.95774e-07 -6.63215e-07 0)
(2.92406e-07 -6.76389e-07 0)
(2.92548e-07 -6.88957e-07 0)
(2.95202e-07 -7.01514e-07 0)
(2.9975e-07 -7.14166e-07 0)
(3.05422e-07 -7.26965e-07 0)
(2.75432e-07 -6.00252e-07 0)
(2.45427e-07 -6.36362e-07 0)
(2.26388e-07 -6.59809e-07 0)
(2.14973e-07 -6.79304e-07 0)
(2.088e-07 -6.95062e-07 0)
(2.06209e-07 -7.09457e-07 0)
(2.06212e-07 -7.2286e-07 0)
(2.08071e-07 -7.35991e-07 0)
(2.11342e-07 -7.49084e-07 0)
(2.15431e-07 -7.62272e-07 0)
(1.65531e-07 -6.11405e-07 0)
(1.46955e-07 -6.52137e-07 0)
(1.35194e-07 -6.78524e-07 0)
(1.28111e-07 -6.99987e-07 0)
(1.24246e-07 -7.17007e-07 0)
(1.22594e-07 -7.32247e-07 0)
(1.22569e-07 -7.46244e-07 0)
(1.23691e-07 -7.59806e-07 0)
(1.25662e-07 -7.73218e-07 0)
(1.28123e-07 -7.86689e-07 0)
(5.52851e-08 -6.17029e-07 0)
(4.90027e-08 -6.60175e-07 0)
(4.49836e-08 -6.88059e-07 0)
(4.25674e-08 -7.10514e-07 0)
(4.12738e-08 -7.2819e-07 0)
(4.07124e-08 -7.43874e-07 0)
(4.06698e-08 -7.58146e-07 0)
(4.10305e-08 -7.71911e-07 0)
(4.16969e-08 -7.85496e-07 0)
(4.25167e-08 -7.99127e-07 0)
(1.56261e-06 -1.82773e-08 0)
(1.57595e-06 -1.31493e-08 0)
(1.58454e-06 -9.9228e-09 0)
(1.59391e-06 -8.05725e-09 0)
(1.60446e-06 -7.04307e-09 0)
(1.61737e-06 -6.61052e-09 0)
(1.6327e-06 -6.61217e-09 0)
(1.65054e-06 -6.86039e-09 0)
(1.67085e-06 -7.27868e-09 0)
(1.69336e-06 -7.80724e-09 0)
(1.55113e-06 -5.48758e-08 0)
(1.5622e-06 -3.97924e-08 0)
(1.56937e-06 -3.02663e-08 0)
(1.57779e-06 -2.47919e-08 0)
(1.5877e-06 -2.19236e-08 0)
(1.60015e-06 -2.07117e-08 0)
(1.61515e-06 -2.06684e-08 0)
(1.63273e-06 -2.14347e-08 0)
(1.6528e-06 -2.27581e-08 0)
(1.67509e-06 -2.43254e-08 0)
(1.5282e-06 -9.17609e-08 0)
(1.53496e-06 -6.75784e-08 0)
(1.53938e-06 -5.23461e-08 0)
(1.546e-06 -4.35397e-08 0)
(1.5547e-06 -3.89103e-08 0)
(1.56631e-06 -3.70561e-08 0)
(1.58066e-06 -3.70905e-08 0)
(1.59775e-06 -3.83774e-08 0)
(1.61735e-06 -4.05789e-08 0)
(1.6392e-06 -4.31926e-08 0)
(1.49421e-06 -1.29149e-07 0)
(1.49483e-06 -9.71578e-08 0)
(1.49533e-06 -7.70751e-08 0)
(1.49937e-06 -6.55303e-08 0)
(1.50636e-06 -5.94776e-08 0)
(1.51679e-06 -5.71054e-08 0)
(1.53023e-06 -5.72688e-08 0)
(1.54661e-06 -5.9099e-08 0)
(1.56556e-06 -6.21325e-08 0)
(1.58679e-06 -6.57609e-08 0)
(1.44967e-06 -1.67132e-07 0)
(1.44272e-06 -1.29065e-07 0)
(1.43837e-06 -1.05224e-07 0)
(1.43922e-06 -9.16389e-08 0)
(1.44408e-06 -8.46053e-08 0)
(1.45302e-06 -8.19718e-08 0)
(1.46535e-06 -8.23644e-08 0)
(1.48084e-06 -8.4775e-08 0)
(1.499e-06 -8.8621e-08 0)
(1.51948e-06 -9.32215e-08 0)
(1.39521e-06 -2.05777e-07 0)
(1.37968e-06 -1.63739e-07 0)
(1.3699e-06 -1.3743e-07 0)
(1.36714e-06 -1.22625e-07 0)
(1.36959e-06 -1.15104e-07 0)
(1.37681e-06 -1.12493e-07 0)
(1.38789e-06 -1.13248e-07 0)
(1.40238e-06 -1.16282e-07 0)
(1.41962e-06 -1.20928e-07 0)
(1.43925e-06 -1.26444e-07 0)
(1.33163e-06 -2.44966e-07 0)
(1.30703e-06 -2.01324e-07 0)
(1.29149e-06 -1.74002e-07 0)
(1.28491e-06 -1.58857e-07 0)
(1.28481e-06 -1.51382e-07 0)
(1.29023e-06 -1.49117e-07 0)
(1.29996e-06 -1.50397e-07 0)
(1.31336e-06 -1.54074e-07 0)
(1.32964e-06 -1.59476e-07 0)
(1.34838e-06 -1.65813e-07 0)
(1.25976e-06 -2.84505e-07 0)
(1.22616e-06 -2.41695e-07 0)
(1.20495e-06 -2.14901e-07 0)
(1.19457e-06 -2.004e-07 0)
(1.19195e-06 -1.93549e-07 0)
(1.19554e-06 -1.91983e-07 0)
(1.2039e-06 -1.93982e-07 0)
(1.21617e-06 -1.98376e-07 0)
(1.23145e-06 -2.04512e-07 0)
(1.24922e-06 -2.11597e-07 0)
(1.18051e-06 -3.24146e-07 0)
(1.13855e-06 -2.84517e-07 0)
(1.11203e-06 -2.59775e-07 0)
(1.09807e-06 -2.46869e-07 0)
(1.09303e-06 -2.41212e-07 0)
(1.0948e-06 -2.40674e-07 0)
(1.10177e-06 -2.43574e-07 0)
(1.11286e-06 -2.48756e-07 0)
(1.12713e-06 -2.55651e-07 0)
(1.14394e-06 -2.63286e-07 0)
(1.09482e-06 -3.63518e-07 0)
(1.04568e-06 -3.29246e-07 0)
(1.01458e-06 -3.07929e-07 0)
(9.97522e-07 -2.97511e-07 0)
(9.90318e-07 -2.93612e-07 0)
(9.90473e-07 -2.94452e-07 0)
(9.96215e-07 -2.98477e-07 0)
(1.00614e-06 -3.04685e-07 0)
(1.0195e-06 -3.12426e-07 0)
(1.0351e-06 -3.21136e-07 0)
(1.71813e-06 -8.32267e-09 0)
(1.74509e-06 -8.48605e-09 0)
(1.77373e-06 -8.6396e-09 0)
(1.80395e-06 -8.76297e-09 0)
(1.83558e-06 -8.85657e-09 0)
(1.86849e-06 -8.91508e-09 0)
(1.90254e-06 -8.90637e-09 0)
(1.93761e-06 -8.84096e-09 0)
(1.97363e-06 -8.73881e-09 0)
(2.01047e-06 -8.5921e-09 0)
(2.04804e-06 -8.38704e-09 0)
(2.08623e-06 -8.11566e-09 0)
(2.12494e-06 -7.76874e-09 0)
(2.16408e-06 -7.34185e-09 0)
(2.20355e-06 -6.83268e-09 0)
(2.24322e-06 -6.23427e-09 0)
(2.28301e-06 -5.53225e-09 0)
(2.32273e-06 -4.70464e-09 0)
(2.36234e-06 -3.73127e-09 0)
(2.40139e-06 -2.60495e-09 0)
(1.70065e-06 -2.57488e-08 0)
(1.72905e-06 -2.61122e-08 0)
(1.759e-06 -2.64927e-08 0)
(1.79036e-06 -2.6802e-08 0)
(1.82299e-06 -2.69863e-08 0)
(1.85679e-06 -2.70644e-08 0)
(1.89165e-06 -2.70098e-08 0)
(1.92747e-06 -2.68287e-08 0)
(1.96417e-06 -2.65155e-08 0)
(2.00164e-06 -2.60386e-08 0)
(2.03977e-06 -2.538e-08 0)
(2.07849e-06 -2.45365e-08 0)
(2.11771e-06 -2.34893e-08 0)
(2.15733e-06 -2.22149e-08 0)
(2.19725e-06 -2.06892e-08 0)
(2.23735e-06 -1.88852e-08 0)
(2.27755e-06 -1.67622e-08 0)
(2.31765e-06 -1.42683e-08 0)
(2.35766e-06 -1.13386e-08 0)
(2.39708e-06 -7.9552e-09 0)
(1.66631e-06 -4.53033e-08 0)
(1.69757e-06 -4.55569e-08 0)
(1.73005e-06 -4.58719e-08 0)
(1.76361e-06 -4.61435e-08 0)
(1.79824e-06 -4.62636e-08 0)
(1.8338e-06 -4.62538e-08 0)
(1.87026e-06 -4.6046e-08 0)
(1.90752e-06 -4.5635e-08 0)
(1.94553e-06 -4.50081e-08 0)
(1.98419e-06 -4.4131e-08 0)
(2.02343e-06 -4.29814e-08 0)
(2.06319e-06 -4.15447e-08 0)
(2.10337e-06 -3.97791e-08 0)
(2.14388e-06 -3.76406e-08 0)
(2.18466e-06 -3.50903e-08 0)
(2.22559e-06 -3.20821e-08 0)
(2.26658e-06 -2.85441e-08 0)
(2.30747e-06 -2.43969e-08 0)
(2.34825e-06 -1.95213e-08 0)
(2.38845e-06 -1.3897e-08 0)
(1.6161e-06 -6.81789e-08 0)
(1.65144e-06 -6.78446e-08 0)
(1.68761e-06 -6.76635e-08 0)
(1.7244e-06 -6.75521e-08 0)
(1.76192e-06 -6.73092e-08 0)
(1.80005e-06 -6.69662e-08 0)
(1.83885e-06 -6.64055e-08 0)
(1.87822e-06 -6.56219e-08 0)
(1.91817e-06 -6.4585e-08 0)
(1.95862e-06 -6.32339e-08 0)
(1.99951e-06 -6.15242e-08 0)
(2.0408e-06 -5.94266e-08 0)
(2.0824e-06 -5.68898e-08 0)
(2.12425e-06 -5.38586e-08 0)
(2.1663e-06 -5.02813e-08 0)
(2.20844e-06 -4.60775e-08 0)
(2.2506e-06 -4.11482e-08 0)
(2.29262e-06 -3.53809e-08 0)
(2.33451e-06 -2.85969e-08 0)
(2.37586e-06 -2.07897e-08 0)
(1.55155e-06 -9.54368e-08 0)
(1.59204e-06 -9.38689e-08 0)
(1.63288e-06 -9.26292e-08 0)
(1.67373e-06 -9.17069e-08 0)
(1.71495e-06 -9.074e-08 0)
(1.75639e-06 -8.97797e-08 0)
(1.79819e-06 -8.86436e-08 0)
(1.84029e-06 -8.73084e-08 0)
(1.88273e-06 -8.56991e-08 0)
(1.92546e-06 -8.37347e-08 0)
(1.96848e-06 -8.13635e-08 0)
(2.01173e-06 -7.85379e-08 0)
(2.05519e-06 -7.51861e-08 0)
(2.09879e-06 -7.12324e-08 0)
(2.1425e-06 -6.66046e-08 0)
(2.18622e-06 -6.11943e-08 0)
(2.22991e-06 -5.48746e-08 0)
(2.27342e-06 -4.75037e-08 0)
(2.31678e-06 -3.88509e-08 0)
(2.3596e-06 -2.89125e-08 0)
(1.47446e-06 -1.27875e-07 0)
(1.52086e-06 -1.24317e-07 0)
(1.5672e-06 -1.21334e-07 0)
(1.61288e-06 -1.19073e-07 0)
(1.65849e-06 -1.16959e-07 0)
(1.70388e-06 -1.15033e-07 0)
(1.74925e-06 -1.13019e-07 0)
(1.79463e-06 -1.10883e-07 0)
(1.84006e-06 -1.08512e-07 0)
(1.88556e-06 -1.05794e-07 0)
(1.93113e-06 -1.02657e-07 0)
(1.97677e-06 -9.90283e-08 0)
(2.02246e-06 -9.48093e-08 0)
(2.06816e-06 -8.99043e-08 0)
(2.11387e-06 -8.42101e-08 0)
(2.15949e-06 -7.75986e-08 0)
(2.20503e-06 -6.99059e-08 0)
(2.25032e-06 -6.09687e-08 0)
(2.29546e-06 -5.05116e-08 0)
(2.34004e-06 -3.85004e-08 0)
(1.38698e-06 -1.65901e-07 0)
(1.43983e-06 -1.59623e-07 0)
(1.49224e-06 -1.54235e-07 0)
(1.54329e-06 -1.50065e-07 0)
(1.59381e-06 -1.46328e-07 0)
(1.64364e-06 -1.43035e-07 0)
(1.69307e-06 -1.39838e-07 0)
(1.74216e-06 -1.36647e-07 0)
(1.79101e-06 -1.33309e-07 0)
(1.83967e-06 -1.29682e-07 0)
(1.88818e-06 -1.25655e-07 0)
(1.93655e-06 -1.21124e-07 0)
(1.98481e-06 -1.15963e-07 0)
(2.03294e-06 -1.10059e-07 0)
(2.08096e-06 -1.03277e-07 0)
(2.12879e-06 -9.54643e-08 0)
(2.17646e-06 -8.64193e-08 0)
(2.22381e-06 -7.59517e-08 0)
(2.27098e-06 -6.37506e-08 0)
(2.31758e-06 -4.97464e-08 0)
(1.2912e-06 -2.09695e-07 0)
(1.35073e-06 -1.99797e-07 0)
(1.40958e-06 -1.91276e-07 0)
(1.46639e-06 -1.84548e-07 0)
(1.52225e-06 -1.78719e-07 0)
(1.57693e-06 -1.73643e-07 0)
(1.63083e-06 -1.6896e-07 0)
(1.68401e-06 -1.64469e-07 0)
(1.73663e-06 -1.59969e-07 0)
(1.78877e-06 -1.55281e-07 0)
(1.84052e-06 -1.50253e-07 0)
(1.89193e-06 -1.44741e-07 0)
(1.94304e-06 -1.38593e-07 0)
(1.99387e-06 -1.31666e-07 0)
(2.04445e-06 -1.23796e-07 0)
(2.09474e-06 -1.14797e-07 0)
(2.14476e-06 -1.0444e-07 0)
(2.19442e-06 -9.24971e-08 0)
(2.24383e-06 -7.8628e-08 0)
(2.29267e-06 -6.27317e-08 0)
(1.18939e-06 -2.59135e-07 0)
(1.25559e-06 -2.45002e-07 0)
(1.32089e-06 -2.32954e-07 0)
(1.38367e-06 -2.23104e-07 0)
(1.44503e-06 -2.14712e-07 0)
(1.50483e-06 -2.07416e-07 0)
(1.56345e-06 -2.00866e-07 0)
(1.621e-06 -1.94759e-07 0)
(1.67766e-06 -1.88847e-07 0)
(1.73357e-06 -1.82897e-07 0)
(1.78882e-06 -1.7671e-07 0)
(1.84352e-06 -1.70103e-07 0)
(1.89772e-06 -1.62889e-07 0)
(1.9515e-06 -1.54892e-07 0)
(2.00486e-06 -1.45911e-07 0)
(2.05782e-06 -1.35721e-07 0)
(2.11041e-06 -1.24075e-07 0)
(2.16257e-06 -1.10697e-07 0)
(2.21442e-06 -9.52405e-08 0)
(2.26572e-06 -7.75669e-08 0)
(1.0836e-06 -3.13444e-07 0)
(1.15696e-06 -2.93617e-07 0)
(1.22865e-06 -2.77478e-07 0)
(1.29762e-06 -2.64035e-07 0)
(1.36454e-06 -2.52759e-07 0)
(1.42961e-06 -2.43014e-07 0)
(1.49306e-06 -2.34396e-07 0)
(1.55511e-06 -2.26517e-07 0)
(1.61595e-06 -2.19075e-07 0)
(1.67575e-06 -2.11779e-07 0)
(1.73464e-06 -2.04382e-07 0)
(1.79275e-06 -1.96656e-07 0)
(1.85018e-06 -1.88375e-07 0)
(1.90699e-06 -1.79328e-07 0)
(1.96324e-06 -1.69276e-07 0)
(2.01897e-06 -1.5796e-07 0)
(2.07423e-06 -1.45117e-07 0)
(2.12901e-06 -1.30411e-07 0)
(2.18344e-06 -1.13494e-07 0)
(2.23735e-06 -9.41775e-08 0)
(1.00395e-06 -3.67098e-07 0)
(1.08242e-06 -3.42227e-07 0)
(1.15816e-06 -3.22751e-07 0)
(1.23132e-06 -3.06143e-07 0)
(1.30207e-06 -2.92107e-07 0)
(1.37073e-06 -2.79928e-07 0)
(1.43751e-06 -2.69142e-07 0)
(1.50266e-06 -2.59337e-07 0)
(1.56638e-06 -2.50164e-07 0)
(1.62883e-06 -2.41299e-07 0)
(1.69019e-06 -2.32469e-07 0)
(1.75059e-06 -2.23417e-07 0)
(1.81014e-06 -2.13891e-07 0)
(1.86893e-06 -2.03657e-07 0)
(1.92704e-06 -1.92453e-07 0)
(1.98451e-06 -1.79994e-07 0)
(2.04144e-06 -1.66026e-07 0)
(2.09785e-06 -1.50169e-07 0)
(2.15389e-06 -1.32077e-07 0)
(2.20945e-06 -1.11525e-07 0)
(9.59193e-07 -4.11259e-07 0)
(1.03841e-06 -3.85452e-07 0)
(1.11489e-06 -3.64103e-07 0)
(1.18921e-06 -3.45555e-07 0)
(1.26126e-06 -3.29524e-07 0)
(1.33129e-06 -3.15415e-07 0)
(1.39944e-06 -3.0279e-07 0)
(1.46592e-06 -2.91252e-07 0)
(1.53089e-06 -2.80444e-07 0)
(1.5945e-06 -2.70044e-07 0)
(1.65693e-06 -2.59778e-07 0)
(1.7183e-06 -2.49379e-07 0)
(1.77871e-06 -2.38584e-07 0)
(1.83828e-06 -2.27155e-07 0)
(1.89707e-06 -2.14826e-07 0)
(1.95518e-06 -2.01306e-07 0)
(2.01268e-06 -1.86358e-07 0)
(2.06965e-06 -1.696e-07 0)
(2.12623e-06 -1.50679e-07 0)
(2.18234e-06 -1.29376e-07 0)
(9.21632e-07 -4.53279e-07 0)
(1.00009e-06 -4.26974e-07 0)
(1.07655e-06 -4.04505e-07 0)
(1.15118e-06 -3.84563e-07 0)
(1.22382e-06 -3.66948e-07 0)
(1.29458e-06 -3.5119e-07 0)
(1.36357e-06 -3.36917e-07 0)
(1.4309e-06 -3.23762e-07 0)
(1.49672e-06 -3.11392e-07 0)
(1.56116e-06 -2.99503e-07 0)
(1.62437e-06 -2.87829e-07 0)
(1.68646e-06 -2.76098e-07 0)
(1.74753e-06 -2.64046e-07 0)
(1.8077e-06 -2.51442e-07 0)
(1.86705e-06 -2.38019e-07 0)
(1.92568e-06 -2.23489e-07 0)
(1.98366e-06 -2.07625e-07 0)
(2.04111e-06 -1.9006e-07 0)
(2.09816e-06 -1.7044e-07 0)
(2.15478e-06 -1.48568e-07 0)
(8.887e-07 -4.93967e-07 0)
(9.66112e-07 -4.67505e-07 0)
(1.042e-06 -4.44218e-07 0)
(1.11638e-06 -4.23127e-07 0)
(1.18905e-06 -4.04144e-07 0)
(1.26006e-06 -3.8692e-07 0)
(1.32943e-06 -3.71143e-07 0)
(1.39725e-06 -3.56485e-07 0)
(1.4636e-06 -3.42642e-07 0)
(1.5286e-06 -3.29337e-07 0)
(1.59236e-06 -3.16314e-07 0)
(1.65499e-06 -3.03303e-07 0)
(1.71658e-06 -2.90045e-07 0)
(1.77724e-06 -2.76323e-07 0)
(1.83704e-06 -2.61867e-07 0)
(1.89612e-06 -2.46408e-07 0)
(1.95454e-06 -2.29715e-07 0)
(2.01242e-06 -2.11451e-07 0)
(2.06989e-06 -1.91272e-07 0)
(2.127e-06 -1.69017e-07 0)
(8.59917e-07 -5.32848e-07 0)
(9.35973e-07 -5.0647e-07 0)
(1.01093e-06 -4.82719e-07 0)
(1.08466e-06 -4.60825e-07 0)
(1.15698e-06 -4.4078e-07 0)
(1.22785e-06 -4.22344e-07 0)
(1.29725e-06 -4.0526e-07 0)
(1.36523e-06 -3.89257e-07 0)
(1.43183e-06 -3.74069e-07 0)
(1.49714e-06 -3.59446e-07 0)
(1.56125e-06 -3.45153e-07 0)
(1.62423e-06 -3.30929e-07 0)
(1.68618e-06 -3.16529e-07 0)
(1.7472e-06 -3.01753e-07 0)
(1.80737e-06 -2.8633e-07 0)
(1.8668e-06 -2.70021e-07 0)
(1.92559e-06 -2.52585e-07 0)
(1.98385e-06 -2.33717e-07 0)
(2.0417e-06 -2.13109e-07 0)
(2.09927e-06 -1.90628e-07 0)
(8.34486e-07 -5.70176e-07 0)
(9.09076e-07 -5.44032e-07 0)
(9.82899e-07 -5.20022e-07 0)
(1.05572e-06 -4.97545e-07 0)
(1.1274e-06 -4.76665e-07 0)
(1.19784e-06 -4.57221e-07 0)
(1.26699e-06 -4.39013e-07 0)
(1.33487e-06 -4.21827e-07 0)
(1.40148e-06 -4.05429e-07 0)
(1.46688e-06 -3.89606e-07 0)
(1.53114e-06 -3.74144e-07 0)
(1.59432e-06 -3.58796e-07 0)
(1.65649e-06 -3.43338e-07 0)
(1.71776e-06 -3.27592e-07 0)
(1.7782e-06 -3.1128e-07 0)
(1.83791e-06 -2.94208e-07 0)
(1.897e-06 -2.76124e-07 0)
(1.95558e-06 -2.56758e-07 0)
(2.01377e-06 -2.35846e-07 0)
(2.07176e-06 -2.13271e-07 0)
(8.11873e-07 -6.05965e-07 0)
(8.84946e-07 -5.80156e-07 0)
(9.57496e-07 -5.5606e-07 0)
(1.02925e-06 -5.33196e-07 0)
(1.10009e-06 -5.1169e-07 0)
(1.16989e-06 -4.91429e-07 0)
(1.23858e-06 -4.7228e-07 0)
(1.30615e-06 -4.54072e-07 0)
(1.37257e-06 -4.36606e-07 0)
(1.43789e-06 -4.19705e-07 0)
(1.50213e-06 -4.03182e-07 0)
(1.56535e-06 -3.86809e-07 0)
(1.62763e-06 -3.70386e-07 0)
(1.68904e-06 -3.53757e-07 0)
(1.74965e-06 -3.36644e-07 0)
(1.80957e-06 -3.18891e-07 0)
(1.86888e-06 -3.00251e-07 0)
(1.92772e-06 -2.80492e-07 0)
(1.98623e-06 -2.59384e-07 0)
(2.04456e-06 -2.3682e-07 0)
(7.91577e-07 -6.40344e-07 0)
(8.63136e-07 -6.14925e-07 0)
(9.34341e-07 -5.90853e-07 0)
(1.00494e-06 -5.67752e-07 0)
(1.07481e-06 -5.45776e-07 0)
(1.14382e-06 -5.24863e-07 0)
(1.21189e-06 -5.04936e-07 0)
(1.27898e-06 -4.85857e-07 0)
(1.34505e-06 -4.67461e-07 0)
(1.41012e-06 -4.49608e-07 0)
(1.47422e-06 -4.32141e-07 0)
(1.53737e-06 -4.1485e-07 0)
(1.59964e-06 -3.97563e-07 0)
(1.6611e-06 -3.80143e-07 0)
(1.72181e-06 -3.62322e-07 0)
(1.78187e-06 -3.43977e-07 0)
(1.84136e-06 -3.24875e-07 0)
(1.90042e-06 -3.04821e-07 0)
(1.95918e-06 -2.83607e-07 0)
(2.01779e-06 -2.61147e-07 0)
(7.73161e-07 -6.73416e-07 0)
(8.43218e-07 -6.48414e-07 0)
(9.13069e-07 -6.24444e-07 0)
(9.82455e-07 -6.01215e-07 0)
(1.05128e-06 -5.78896e-07 0)
(1.1194e-06 -5.57476e-07 0)
(1.18674e-06 -5.36914e-07 0)
(1.25323e-06 -5.17102e-07 0)
(1.31883e-06 -4.97909e-07 0)
(1.38355e-06 -4.79231e-07 0)
(1.4474e-06 -4.60938e-07 0)
(1.51039e-06 -4.42841e-07 0)
(1.57258e-06 -4.24792e-07 0)
(1.63401e-06 -4.06676e-07 0)
(1.69475e-06 -3.8824e-07 0)
(1.7549e-06 -3.69391e-07 0)
(1.81452e-06 -3.49918e-07 0)
(1.87376e-06 -3.29649e-07 0)
(1.93272e-06 -3.08408e-07 0)
(1.99158e-06 -2.86139e-07 0)
(7.5625e-07 -7.0529e-07 0)
(8.2484e-07 -6.80712e-07 0)
(8.93351e-07 -6.56892e-07 0)
(9.61508e-07 -6.33613e-07 0)
(1.02925e-06 -6.11058e-07 0)
(1.09643e-06 -5.8925e-07 0)
(1.16296e-06 -5.68176e-07 0)
(1.22877e-06 -5.47757e-07 0)
(1.29383e-06 -5.27892e-07 0)
(1.35813e-06 -5.08511e-07 0)
(1.42165e-06 -4.89509e-07 0)
(1.48441e-06 -4.70712e-07 0)
(1.54646e-06 -4.52004e-07 0)
(1.60781e-06 -4.33286e-07 0)
(1.66853e-06 -4.14326e-07 0)
(1.72872e-06 -3.95058e-07 0)
(1.78843e-06 -3.75297e-07 0)
(1.8478e-06 -3.54884e-07 0)
(1.9069e-06 -3.33689e-07 0)
(1.96597e-06 -3.11682e-07 0)
(7.40502e-07 -7.36081e-07 0)
(8.07687e-07 -7.11915e-07 0)
(8.74883e-07 -6.88274e-07 0)
(9.41832e-07 -6.65003e-07 0)
(1.00849e-06 -6.42297e-07 0)
(1.0747e-06 -6.20196e-07 0)
(1.14039e-06 -5.98716e-07 0)
(1.2055e-06 -5.77801e-07 0)
(1.26997e-06 -5.5738e-07 0)
(1.33379e-06 -5.3741e-07 0)
(1.39693e-06 -5.17806e-07 0)
(1.45942e-06 -4.98413e-07 0)
(1.52126e-06 -4.79141e-07 0)
(1.58249e-06 -4.59911e-07 0)
(1.64315e-06 -4.40512e-07 0)
(1.70333e-06 -4.20905e-07 0)
(1.76309e-06 -4.00924e-07 0)
(1.82253e-06 -3.80434e-07 0)
(1.88176e-06 -3.59352e-07 0)
(1.94098e-06 -3.37658e-07 0)
(7.25624e-07 -7.65892e-07 0)
(7.91472e-07 -7.42115e-07 0)
(8.57398e-07 -7.18668e-07 0)
(9.2318e-07 -6.9545e-07 0)
(9.88765e-07 -6.72656e-07 0)
(1.05402e-06 -6.5034e-07 0)
(1.11887e-06 -6.28545e-07 0)
(1.18324e-06 -6.07232e-07 0)
(1.2471e-06 -5.86357e-07 0)
(1.31041e-06 -5.65899e-07 0)
(1.37316e-06 -5.45791e-07 0)
(1.43533e-06 -5.25898e-07 0)
(1.49695e-06 -5.06153e-07 0)
(1.55803e-06 -4.86496e-07 0)
(1.61861e-06 -4.66738e-07 0)
(1.67876e-06 -4.46862e-07 0)
(1.73853e-06 -4.2672e-07 0)
(1.79801e-06 -4.06219e-07 0)
(1.85734e-06 -3.85303e-07 0)
(1.91665e-06 -3.63948e-07 0)
(7.11364e-07 -7.94814e-07 0)
(7.7594e-07 -7.71401e-07 0)
(8.40657e-07 -7.48156e-07 0)
(9.05316e-07 -7.2502e-07 0)
(9.69862e-07 -7.02182e-07 0)
(1.03417e-06 -6.79712e-07 0)
(1.0982e-06 -6.5768e-07 0)
(1.16185e-06 -6.36059e-07 0)
(1.22511e-06 -6.14823e-07 0)
(1.28792e-06 -5.93972e-07 0)
(1.35026e-06 -5.73455e-07 0)
(1.41212e-06 -5.53153e-07 0)
(1.47351e-06 -5.33019e-07 0)
(1.53442e-06 -5.13013e-07 0)
(1.5949e-06 -4.92966e-07 0)
(1.65499e-06 -4.72879e-07 0)
(1.71473e-06 -4.52633e-07 0)
(1.77425e-06 -4.32173e-07 0)
(1.83361e-06 -4.11457e-07 0)
(1.893e-06 -3.90469e-07 0)
(6.97471e-07 -8.22922e-07 0)
(7.60847e-07 -7.99857e-07 0)
(8.24418e-07 -7.7681e-07 0)
(8.88001e-07 -7.53771e-07 0)
(9.51558e-07 -7.30927e-07 0)
(1.01498e-06 -7.08363e-07 0)
(1.07822e-06 -6.86166e-07 0)
(1.1412e-06 -6.64319e-07 0)
(1.20387e-06 -6.42807e-07 0)
(1.2662e-06 -6.21642e-07 0)
(1.32814e-06 -6.00793e-07 0)
(1.38969e-06 -5.80158e-07 0)
(1.45083e-06 -5.59706e-07 0)
(1.51158e-06 -5.39417e-07 0)
(1.57194e-06 -5.19137e-07 0)
(1.63196e-06 -4.9889e-07 0)
(1.69166e-06 -4.78593e-07 0)
(1.75119e-06 -4.58208e-07 0)
(1.81056e-06 -4.37718e-07 0)
(1.87e-06 -4.17143e-07 0)
(6.83691e-07 -8.50307e-07 0)
(7.45939e-07 -8.27561e-07 0)
(8.08425e-07 -8.04706e-07 0)
(8.71002e-07 -7.81781e-07 0)
(9.33645e-07 -7.58967e-07 0)
(9.96241e-07 -7.36364e-07 0)
(1.05876e-06 -7.14056e-07 0)
(1.1211e-06 -6.92045e-07 0)
(1.18323e-06 -6.70323e-07 0)
(1.2451e-06 -6.48915e-07 0)
(1.30669e-06 -6.27811e-07 0)
(1.36795e-06 -6.06916e-07 0)
(1.42888e-06 -5.86214e-07 0)
(1.48947e-06 -5.65698e-07 0)
(1.54972e-06 -5.45234e-07 0)
(1.60967e-06 -5.2487e-07 0)
(1.66936e-06 -5.04556e-07 0)
(1.72887e-06 -4.84274e-07 0)
(1.78824e-06 -4.64036e-07 0)
(1.84769e-06 -4.43881e-07 0)
(6.69785e-07 -8.77038e-07 0)
(7.30964e-07 -8.54597e-07 0)
(7.92434e-07 -8.31918e-07 0)
(8.54102e-07 -8.09123e-07 0)
(9.15914e-07 -7.86374e-07 0)
(9.77771e-07 -7.63773e-07 0)
(1.03962e-06 -7.41404e-07 0)
(1.1014e-06 -7.19286e-07 0)
(1.16305e-06 -6.97422e-07 0)
(1.22453e-06 -6.75841e-07 0)
(1.28579e-06 -6.54546e-07 0)
(1.34681e-06 -6.33453e-07 0)
(1.40756e-06 -6.12555e-07 0)
(1.46802e-06 -5.91852e-07 0)
(1.52818e-06 -5.71236e-07 0)
(1.58809e-06 -5.50792e-07 0)
(1.64776e-06 -5.30485e-07 0)
(1.70725e-06 -5.10315e-07 0)
(1.76662e-06 -4.90343e-07 0)
(1.82605e-06 -4.70612e-07 0)
(6.55496e-07 -9.0321e-07 0)
(7.15654e-07 -8.81e-07 0)
(7.76184e-07 -8.58527e-07 0)
(8.3707e-07 -8.35901e-07 0)
(8.98137e-07 -8.13238e-07 0)
(9.59356e-07 -7.90671e-07 0)
(1.02064e-06 -7.68289e-07 0)
(1.08193e-06 -7.4611e-07 0)
(1.14317e-06 -7.24147e-07 0)
(1.20432e-06 -7.02451e-07 0)
(1.26533e-06 -6.81026e-07 0)
(1.32616e-06 -6.59783e-07 0)
(1.38677e-06 -6.38723e-07 0)
(1.44714e-06 -6.17876e-07 0)
(1.50726e-06 -5.97156e-07 0)
(1.56718e-06 -5.76651e-07 0)
(1.62685e-06 -5.56343e-07 0)
(1.68635e-06 -5.36278e-07 0)
(1.7457e-06 -5.16561e-07 0)
(1.80511e-06 -4.97261e-07 0)
(6.40483e-07 -9.28811e-07 0)
(6.99793e-07 -9.06865e-07 0)
(7.59564e-07 -8.84631e-07 0)
(8.19704e-07 -8.62172e-07 0)
(8.80151e-07 -8.3963e-07 0)
(9.40818e-07 -8.17126e-07 0)
(1.00164e-06 -7.94762e-07 0)
(1.06255e-06 -7.72578e-07 0)
(1.12349e-06 -7.50582e-07 0)
(1.1844e-06 -7.28822e-07 0)
(1.24523e-06 -7.07303e-07 0)
(1.30592e-06 -6.85948e-07 0)
(1.36645e-06 -6.64773e-07 0)
(1.42681e-06 -6.43821e-07 0)
(1.48696e-06 -6.23022e-07 0)
(1.54692e-06 -6.02453e-07 0)
(1.60663e-06 -5.82123e-07 0)
(1.66621e-06 -5.62143e-07 0)
(1.72558e-06 -5.42673e-07 0)
(1.78494e-06 -5.23792e-07 0)
(6.2454e-07 -9.54069e-07 0)
(6.83061e-07 -9.32385e-07 0)
(7.42165e-07 -9.10357e-07 0)
(8.0172e-07 -8.88078e-07 0)
(8.61668e-07 -8.65663e-07 0)
(9.2192e-07 -8.43248e-07 0)
(9.82415e-07 -8.20947e-07 0)
(1.04307e-06 -7.98797e-07 0)
(1.10382e-06 -7.76802e-07 0)
(1.16459e-06 -7.55004e-07 0)
(1.22532e-06 -7.3342e-07 0)
(1.28598e-06 -7.11994e-07 0)
(1.34652e-06 -6.90756e-07 0)
(1.40691e-06 -6.69728e-07 0)
(1.46714e-06 -6.48825e-07 0)
(1.52721e-06 -6.2818e-07 0)
(1.58708e-06 -6.07859e-07 0)
(1.64679e-06 -5.87905e-07 0)
(1.70628e-06 -5.68573e-07 0)
(1.76564e-06 -5.50076e-07 0)
(6.07496e-07 -9.78849e-07 0)
(6.6537e-07 -9.57465e-07 0)
(7.23922e-07 -9.35695e-07 0)
(7.83035e-07 -9.13619e-07 0)
(8.4264e-07 -8.91376e-07 0)
(9.02648e-07 -8.69106e-07 0)
(9.6297e-07 -8.46921e-07 0)
(1.02351e-06 -8.24838e-07 0)
(1.08418e-06 -8.02855e-07 0)
(1.14493e-06 -7.81054e-07 0)
(1.20568e-06 -7.59475e-07 0)
(1.26637e-06 -7.38019e-07 0)
(1.32698e-06 -7.167e-07 0)
(1.38748e-06 -6.95613e-07 0)
(1.44786e-06 -6.74679e-07 0)
(1.5081e-06 -6.53964e-07 0)
(1.56823e-06 -6.33589e-07 0)
(1.62817e-06 -6.13597e-07 0)
(1.68796e-06 -5.94302e-07 0)
(1.74751e-06 -5.76058e-07 0)
(4.24428e-08 -8.13038e-07 0)
(1.27841e-07 -8.01178e-07 0)
(2.14718e-07 -7.7787e-07 0)
(3.03945e-07 -7.44127e-07 0)
(3.96177e-07 -7.01264e-07 0)
(4.91814e-07 -6.50843e-07 0)
(5.9098e-07 -5.94814e-07 0)
(6.93453e-07 -5.35013e-07 0)
(7.99075e-07 -4.73395e-07 0)
(9.0685e-07 -4.11425e-07 0)
(4.13189e-08 -8.27502e-07 0)
(1.24393e-07 -8.16647e-07 0)
(2.0868e-07 -7.95315e-07 0)
(2.94912e-07 -7.64353e-07 0)
(3.8364e-07 -7.24905e-07 0)
(4.75185e-07 -6.78282e-07 0)
(5.69692e-07 -6.26128e-07 0)
(6.66802e-07 -5.7009e-07 0)
(7.66375e-07 -5.11869e-07 0)
(8.67138e-07 -4.53165e-07 0)
(4.03058e-08 -8.42263e-07 0)
(1.21274e-07 -8.32327e-07 0)
(2.0323e-07 -8.12776e-07 0)
(2.86737e-07 -7.84351e-07 0)
(3.72278e-07 -7.48047e-07 0)
(4.60079e-07 -7.05028e-07 0)
(5.50324e-07 -6.5668e-07 0)
(6.42726e-07 -6.0445e-07 0)
(7.37277e-07 -5.49709e-07 0)
(8.3292e-07 -4.93963e-07 0)
(3.94194e-08 -8.5736e-07 0)
(1.18528e-07 -8.48204e-07 0)
(1.98473e-07 -8.30186e-07 0)
(2.79673e-07 -8.03947e-07 0)
(3.62543e-07 -7.70373e-07 0)
(4.47238e-07 -7.30492e-07 0)
(5.33908e-07 -6.85503e-07 0)
(6.22271e-07 -6.3674e-07 0)
(7.12301e-07 -5.85433e-07 0)
(8.0316e-07 -5.32983e-07 0)
(3.86108e-08 -8.72801e-07 0)
(1.16018e-07 -8.64345e-07 0)
(1.94124e-07 -8.47714e-07 0)
(2.73244e-07 -8.2345e-07 0)
(3.53729e-07 -7.92344e-07 0)
(4.35687e-07 -7.55346e-07 0)
(5.19255e-07 -7.13494e-07 0)
(6.04196e-07 -6.67939e-07 0)
(6.90457e-07 -6.19797e-07 0)
(7.77288e-07 -5.70366e-07 0)
(3.7852e-08 -8.88569e-07 0)
(1.13717e-07 -8.80717e-07 0)
(1.90148e-07 -8.65282e-07 0)
(2.67419e-07 -8.42768e-07 0)
(3.45809e-07 -8.13846e-07 0)
(4.25399e-07 -7.79406e-07 0)
(5.0626e-07 -7.40388e-07 0)
(5.88203e-07 -6.97797e-07 0)
(6.71182e-07 -6.52656e-07 0)
(7.54507e-07 -6.06184e-07 0)
(3.71325e-08 -9.04638e-07 0)
(1.11547e-07 -8.97343e-07 0)
(1.86424e-07 -8.82977e-07 0)
(2.62006e-07 -8.62038e-07 0)
(3.38494e-07 -8.3509e-07 0)
(4.15982e-07 -8.02962e-07 0)
(4.94492e-07 -7.66519e-07 0)
(5.73843e-07 -7.26632e-07 0)
(6.54009e-07 -6.84241e-07 0)
(7.34324e-07 -6.40519e-07 0)
(3.64595e-08 -9.20997e-07 0)
(1.09486e-07 -9.14193e-07 0)
(1.82909e-07 -9.00779e-07 0)
(2.56925e-07 -8.81244e-07 0)
(3.31691e-07 -8.56066e-07 0)
(4.07284e-07 -8.26016e-07 0)
(4.83704e-07 -7.91904e-07 0)
(5.60783e-07 -7.54497e-07 0)
(6.38505e-07 -7.14652e-07 0)
(7.16239e-07 -6.73497e-07 0)
(3.5804e-08 -9.3763e-07 0)
(1.07492e-07 -9.31263e-07 0)
(1.79534e-07 -9.1871e-07 0)
(2.5207e-07 -9.00433e-07 0)
(3.25244e-07 -8.76858e-07 0)
(3.99118e-07 -8.48685e-07 0)
(4.7366e-07 -8.16681e-07 0)
(5.48729e-07 -7.81539e-07 0)
(6.24317e-07 -7.44032e-07 0)
(6.9983e-07 -7.0524e-07 0)
(3.51485e-08 -9.54498e-07 0)
(1.05544e-07 -9.48536e-07 0)
(1.76248e-07 -9.36756e-07 0)
(2.47374e-07 -9.19603e-07 0)
(3.19046e-07 -8.97484e-07 0)
(3.9133e-07 -8.7101e-07 0)
(4.64168e-07 -8.40913e-07 0)
(5.37439e-07 -8.07843e-07 0)
(6.11146e-07 -7.72488e-07 0)
(6.84731e-07 -7.35868e-07 0)
(3.44977e-08 -9.71572e-07 0)
(1.03623e-07 -9.65996e-07 0)
(1.72999e-07 -9.54912e-07 0)
(2.42765e-07 -9.3877e-07 0)
(3.13e-07 -9.17972e-07 0)
(3.83787e-07 -8.93045e-07 0)
(4.55061e-07 -8.6468e-07 0)
(5.2671e-07 -8.33501e-07 0)
(5.98743e-07 -8.00121e-07 0)
(6.70631e-07 -7.65494e-07 0)
(3.38548e-08 -9.88833e-07 0)
(1.01698e-07 -9.83612e-07 0)
(1.69745e-07 -9.73157e-07 0)
(2.38176e-07 -9.57933e-07 0)
(3.07021e-07 -9.3833e-07 0)
(3.76376e-07 -9.14814e-07 0)
(4.46195e-07 -8.88033e-07 0)
(5.16361e-07 -8.58583e-07 0)
(5.86878e-07 -8.27011e-07 0)
(6.57266e-07 -7.94215e-07 0)
(3.32056e-08 -1.00626e-06 0)
(9.97307e-08 -1.00134e-06 0)
(1.66437e-07 -9.91471e-07 0)
(2.33531e-07 -9.77085e-07 0)
(3.01014e-07 -9.58569e-07 0)
(3.68986e-07 -9.36344e-07 0)
(4.37425e-07 -9.11016e-07 0)
(5.06208e-07 -8.83147e-07 0)
(5.75336e-07 -8.53236e-07 0)
(6.44398e-07 -8.22123e-07 0)
(3.25303e-08 -1.0238e-06 0)
(9.76866e-08 -1.01915e-06 0)
(1.63028e-07 -1.00982e-06 0)
(2.2876e-07 -9.96202e-07 0)
(2.94885e-07 -9.7868e-07 0)
(3.61503e-07 -9.57642e-07 0)
(4.28608e-07 -9.33653e-07 0)
(4.96079e-07 -9.0724e-07 0)
(5.63925e-07 -8.78871e-07 0)
(6.31792e-07 -8.49305e-07 0)
(3.18171e-08 -1.04141e-06 0)
(9.55443e-08 -1.03699e-06 0)
(1.59473e-07 -1.02817e-06 0)
(2.238e-07 -1.01527e-06 0)
(2.8855e-07 -9.98663e-07 0)
(3.53815e-07 -9.78729e-07 0)
(4.19599e-07 -9.5598e-07 0)
(4.85805e-07 -9.30916e-07 0)
(5.52443e-07 -9.03975e-07 0)
(6.19189e-07 -8.7583e-07 0)
(3.1061e-08 -1.05901e-06 0)
(9.32845e-08 -1.05481e-06 0)
(1.5573e-07 -1.04647e-06 0)
(2.18587e-07 -1.03424e-06 0)
(2.81916e-07 -1.01849e-06 0)
(3.45798e-07 -9.99576e-07 0)
(4.1025e-07 -9.77986e-07 0)
(4.75217e-07 -9.54181e-07 0)
(5.40675e-07 -9.28567e-07 0)
(6.0637e-07 -9.01745e-07 0)
(3.0255e-08 -1.07658e-06 0)
(9.08735e-08 -1.07259e-06 0)
(1.51735e-07 -1.0647e-06 0)
(2.13034e-07 -1.0531e-06 0)
(2.74868e-07 -1.03816e-06 0)
(3.37312e-07 -1.02021e-06 0)
(4.00406e-07 -9.99719e-07 0)
(4.64113e-07 -9.77098e-07 0)
(5.28403e-07 -9.52723e-07 0)
(5.93083e-07 -9.27161e-07 0)
(2.93837e-08 -1.09399e-06 0)
(8.82616e-08 -1.0902e-06 0)
(1.47413e-07 -1.08273e-06 0)
(2.0704e-07 -1.07174e-06 0)
(2.67273e-07 -1.05758e-06 0)
(3.28198e-07 -1.04056e-06 0)
(3.8988e-07 -1.0211e-06 0)
(4.5227e-07 -9.99602e-07 0)
(5.15391e-07 -9.76409e-07 0)
(5.79059e-07 -9.52043e-07 0)
(2.8424e-08 -1.11127e-06 0)
(8.53848e-08 -1.10768e-06 0)
(1.42661e-07 -1.10062e-06 0)
(2.00472e-07 -1.09022e-06 0)
(2.58967e-07 -1.07682e-06 0)
(3.18262e-07 -1.0607e-06 0)
(3.78433e-07 -1.04224e-06 0)
(4.39457e-07 -1.02182e-06 0)
(5.01368e-07 -9.99781e-07 0)
(5.64022e-07 -9.76577e-07 0)
(2.73694e-08 -1.12807e-06 0)
(8.22322e-08 -1.12468e-06 0)
(1.37458e-07 -1.11803e-06 0)
(1.93284e-07 -1.10823e-06 0)
(2.4989e-07 -1.09558e-06 0)
(3.0743e-07 -1.08036e-06 0)
(3.65975e-07 -1.0629e-06 0)
(4.25576e-07 -1.04355e-06 0)
(4.8622e-07 -1.02265e-06 0)
(5.47868e-07 -1.00062e-06 0)
)


// ************************************************************************* //
