/*--------------------------------*- C++ -*----------------------------------*\
| =========                 |                                                 |
| \\      /  F ield         | foam-extend: Open Source CFD                    |
|  \\    /   O peration     | Version:     4.1                                |
|   \\  /    A nd           | Web:         http://www.foam-extend.org         |
|    \\/     M anipulation  |                                                 |
\*---------------------------------------------------------------------------*/
FoamFile
{
    version     2.0;
    format      ascii;
    class       vectorField;
    location    "1";
    object      solidsCellD_iteration4;
}
// * * * * * * * * * * * * * * * * * * * * * * * * * * * * * * * * * * * * * //


1000
(
(3.54858e-07 -5.85679e-08 0)
(3.46333e-07 -5.98473e-08 0)
(3.42778e-07 -6.29094e-08 0)
(3.4289e-07 -6.7178e-08 0)
(3.45654e-07 -7.23311e-08 0)
(3.50438e-07 -7.81006e-08 0)
(3.56731e-07 -8.43997e-08 0)
(3.64043e-07 -9.12482e-08 0)
(3.72224e-07 -9.84061e-08 0)
(3.79126e-07 -1.0646e-07 0)
(3.22707e-07 -6.41579e-08 0)
(3.1343e-07 -6.73137e-08 0)
(3.09106e-07 -7.17413e-08 0)
(3.08549e-07 -7.70141e-08 0)
(3.10617e-07 -8.29264e-08 0)
(3.14457e-07 -8.93187e-08 0)
(3.19636e-07 -9.60968e-08 0)
(3.25684e-07 -1.03273e-07 0)
(3.3244e-07 -1.10534e-07 0)
(3.38573e-07 -1.18604e-07 0)
(2.88573e-07 -6.94316e-08 0)
(2.78959e-07 -7.46268e-08 0)
(2.74314e-07 -8.03957e-08 0)
(2.73186e-07 -8.66284e-08 0)
(2.74597e-07 -9.31973e-08 0)
(2.77699e-07 -1.00054e-07 0)
(2.82029e-07 -1.07117e-07 0)
(2.87256e-07 -1.14351e-07 0)
(2.93161e-07 -1.21516e-07 0)
(2.98843e-07 -1.29237e-07 0)
(2.52975e-07 -7.42777e-08 0)
(2.43471e-07 -8.15415e-08 0)
(2.38761e-07 -8.86087e-08 0)
(2.37283e-07 -9.5742e-08 0)
(2.38117e-07 -1.02918e-07 0)
(2.40615e-07 -1.10118e-07 0)
(2.44265e-07 -1.17352e-07 0)
(2.48814e-07 -1.24595e-07 0)
(2.54044e-07 -1.31723e-07 0)
(2.59295e-07 -1.39167e-07 0)
(2.16136e-07 -7.85568e-08 0)
(2.07188e-07 -8.78261e-08 0)
(2.02589e-07 -9.61908e-08 0)
(2.00974e-07 -1.04159e-07 0)
(2.01485e-07 -1.11841e-07 0)
(2.03474e-07 -1.19341e-07 0)
(2.0653e-07 -1.26735e-07 0)
(2.10383e-07 -1.33995e-07 0)
(2.14942e-07 -1.4108e-07 0)
(2.19648e-07 -1.48318e-07 0)
(1.78273e-07 -8.22258e-08 0)
(1.70217e-07 -9.33316e-08 0)
(1.66028e-07 -1.02854e-07 0)
(1.64473e-07 -1.11582e-07 0)
(1.64773e-07 -1.19752e-07 0)
(1.66276e-07 -1.27548e-07 0)
(1.68765e-07 -1.3506e-07 0)
(1.71988e-07 -1.4236e-07 0)
(1.75847e-07 -1.49438e-07 0)
(1.79889e-07 -1.56537e-07 0)
(1.39543e-07 -8.52139e-08 0)
(1.32837e-07 -9.7912e-08 0)
(1.29303e-07 -1.08445e-07 0)
(1.27916e-07 -1.17831e-07 0)
(1.28029e-07 -1.26409e-07 0)
(1.29149e-07 -1.34455e-07 0)
(1.31105e-07 -1.42089e-07 0)
(1.33675e-07 -1.49445e-07 0)
(1.36759e-07 -1.56553e-07 0)
(1.40018e-07 -1.6358e-07 0)
(1.00139e-07 -8.74794e-08 0)
(9.51065e-08 -1.01451e-07 0)
(9.24328e-08 -1.12799e-07 0)
(9.13891e-08 -1.22685e-07 0)
(9.139e-08 -1.31598e-07 0)
(9.21538e-08 -1.39833e-07 0)
(9.35594e-08 -1.47589e-07 0)
(9.54395e-08 -1.54994e-07 0)
(9.76928e-08 -1.62115e-07 0)
(1.00066e-07 -1.69073e-07 0)
(6.0282e-08 -8.90069e-08 0)
(5.71929e-08 -1.0386e-07 0)
(5.55277e-08 -1.15759e-07 0)
(5.48154e-08 -1.26026e-07 0)
(5.47607e-08 -1.35175e-07 0)
(5.52472e-08 -1.43556e-07 0)
(5.61382e-08 -1.51402e-07 0)
(5.7266e-08 -1.58857e-07 0)
(5.85955e-08 -1.66038e-07 0)
(6.00297e-08 -1.72999e-07 0)
(2.01544e-08 -8.97818e-08 0)
(1.90632e-08 -1.05056e-07 0)
(1.8487e-08 -1.17274e-07 0)
(1.82832e-08 -1.2773e-07 0)
(1.82836e-08 -1.36972e-07 0)
(1.84168e-08 -1.45409e-07 0)
(1.86975e-08 -1.53289e-07 0)
(1.90884e-08 -1.60752e-07 0)
(1.95368e-08 -1.67931e-07 0)
(2.00057e-08 -1.74855e-07 0)
(5.31853e-07 -2.60512e-09 0)
(5.34788e-07 -2.07595e-09 0)
(5.38944e-07 -1.84937e-09 0)
(5.44459e-07 -1.8242e-09 0)
(5.51416e-07 -1.95652e-09 0)
(5.59648e-07 -2.18005e-09 0)
(5.69112e-07 -2.43331e-09 0)
(5.79579e-07 -2.75949e-09 0)
(5.91061e-07 -3.12757e-09 0)
(6.03433e-07 -3.48697e-09 0)
(5.28474e-07 -7.82673e-09 0)
(5.30994e-07 -6.26936e-09 0)
(5.34934e-07 -5.64794e-09 0)
(5.40271e-07 -5.6157e-09 0)
(5.47105e-07 -5.96079e-09 0)
(5.55217e-07 -6.61344e-09 0)
(5.64623e-07 -7.44461e-09 0)
(5.7507e-07 -8.40742e-09 0)
(5.86511e-07 -9.44522e-09 0)
(5.98861e-07 -1.05333e-08 0)
(5.2158e-07 -1.31112e-08 0)
(5.23355e-07 -1.06434e-08 0)
(5.26863e-07 -9.669e-09 0)
(5.3194e-07 -9.68001e-09 0)
(5.38571e-07 -1.03217e-08 0)
(5.46571e-07 -1.14062e-08 0)
(5.55869e-07 -1.27612e-08 0)
(5.66187e-07 -1.43372e-08 0)
(5.77516e-07 -1.60673e-08 0)
(5.89832e-07 -1.78964e-08 0)
(5.11324e-07 -1.84573e-08 0)
(5.12099e-07 -1.52883e-08 0)
(5.14917e-07 -1.41081e-08 0)
(5.19625e-07 -1.42153e-08 0)
(5.25962e-07 -1.51582e-08 0)
(5.33689e-07 -1.66821e-08 0)
(5.42804e-07 -1.85847e-08 0)
(5.53049e-07 -2.07936e-08 0)
(5.64261e-07 -2.32247e-08 0)
(5.7658e-07 -2.57542e-08 0)
(4.97731e-07 -2.39206e-08 0)
(4.97321e-07 -2.03268e-08 0)
(4.99315e-07 -1.90943e-08 0)
(5.0345e-07 -1.93856e-08 0)
(5.09438e-07 -2.06617e-08 0)
(5.16924e-07 -2.26491e-08 0)
(5.25811e-07 -2.51159e-08 0)
(5.35934e-07 -2.79232e-08 0)
(5.46987e-07 -3.10116e-08 0)
(5.59303e-07 -3.41941e-08 0)
(4.80985e-07 -2.94985e-08 0)
(4.79161e-07 -2.58076e-08 0)
(4.80216e-07 -2.47058e-08 0)
(4.83727e-07 -2.53125e-08 0)
(4.89327e-07 -2.70007e-08 0)
(4.96546e-07 -2.94667e-08 0)
(5.05215e-07 -3.24614e-08 0)
(5.15185e-07 -3.58164e-08 0)
(5.26103e-07 -3.95196e-08 0)
(5.38516e-07 -4.33117e-08 0)
(4.61182e-07 -3.51831e-08 0)
(4.57869e-07 -3.1757e-08 0)
(4.57956e-07 -3.10191e-08 0)
(4.60809e-07 -3.20893e-08 0)
(4.65949e-07 -3.42706e-08 0)
(4.72874e-07 -3.7229e-08 0)
(4.81313e-07 -4.07174e-08 0)
(4.91094e-07 -4.45818e-08 0)
(5.01881e-07 -4.88646e-08 0)
(5.1448e-07 -5.3209e-08 0)
(4.38478e-07 -4.09824e-08 0)
(4.33654e-07 -3.82095e-08 0)
(4.32735e-07 -3.80789e-08 0)
(4.34907e-07 -3.97341e-08 0)
(4.39538e-07 -4.24986e-08 0)
(4.46156e-07 -4.59916e-08 0)
(4.5438e-07 -4.99795e-08 0)
(4.64042e-07 -5.4329e-08 0)
(4.74776e-07 -5.9136e-08 0)
(4.87592e-07 -6.39346e-08 0)
(4.13058e-07 -4.68496e-08 0)
(4.06783e-07 -4.51262e-08 0)
(4.04969e-07 -4.58369e-08 0)
(4.06466e-07 -4.82297e-08 0)
(4.10581e-07 -5.16785e-08 0)
(4.16786e-07 -5.57938e-08 0)
(4.24694e-07 -6.03388e-08 0)
(4.34121e-07 -6.51653e-08 0)
(4.44658e-07 -7.04099e-08 0)
(4.57523e-07 -7.54919e-08 0)
(3.85145e-07 -5.27071e-08 0)
(3.77557e-07 -5.23651e-08 0)
(3.74859e-07 -5.41659e-08 0)
(3.75705e-07 -5.74635e-08 0)
(3.79257e-07 -6.1717e-08 0)
(3.84916e-07 -6.65944e-08 0)
(3.92386e-07 -7.18931e-08 0)
(4.01507e-07 -7.74802e-08 0)
(4.11971e-07 -8.34835e-08 0)
(4.2432e-07 -8.92768e-08 0)
(6.16436e-07 -3.81018e-09 0)
(6.30457e-07 -4.0637e-09 0)
(6.45223e-07 -4.26984e-09 0)
(6.60641e-07 -4.44555e-09 0)
(6.76621e-07 -4.59549e-09 0)
(6.93161e-07 -4.7253e-09 0)
(7.10279e-07 -4.85463e-09 0)
(7.27885e-07 -4.99303e-09 0)
(7.45886e-07 -5.12232e-09 0)
(7.6429e-07 -5.22777e-09 0)
(7.83098e-07 -5.31099e-09 0)
(8.02266e-07 -5.38218e-09 0)
(8.21759e-07 -5.45192e-09 0)
(8.41575e-07 -5.52174e-09 0)
(8.617e-07 -5.58356e-09 0)
(8.82109e-07 -5.63136e-09 0)
(9.02784e-07 -5.66586e-09 0)
(9.23712e-07 -5.68651e-09 0)
(9.44841e-07 -5.69757e-09 0)
(9.66222e-07 -5.7064e-09 0)
(6.12022e-07 -1.15326e-08 0)
(6.2636e-07 -1.22879e-08 0)
(6.41404e-07 -1.28863e-08 0)
(6.5708e-07 -1.33968e-08 0)
(6.73358e-07 -1.38492e-08 0)
(6.90184e-07 -1.42598e-08 0)
(7.07529e-07 -1.46465e-08 0)
(7.25341e-07 -1.5013e-08 0)
(7.43561e-07 -1.53401e-08 0)
(7.62176e-07 -1.56302e-08 0)
(7.8116e-07 -1.58942e-08 0)
(8.00494e-07 -1.61371e-08 0)
(8.20175e-07 -1.63609e-08 0)
(8.40184e-07 -1.65607e-08 0)
(8.60477e-07 -1.67266e-08 0)
(8.81026e-07 -1.68586e-08 0)
(9.01825e-07 -1.69607e-08 0)
(9.22865e-07 -1.70317e-08 0)
(9.44146e-07 -1.7081e-08 0)
(9.6572e-07 -1.71159e-08 0)
(6.0326e-07 -1.95229e-08 0)
(6.18205e-07 -2.06965e-08 0)
(6.33894e-07 -2.16262e-08 0)
(6.5013e-07 -2.24441e-08 0)
(6.66892e-07 -2.318e-08 0)
(6.84196e-07 -2.38506e-08 0)
(7.02054e-07 -2.44785e-08 0)
(7.20375e-07 -2.50663e-08 0)
(7.39046e-07 -2.55947e-08 0)
(7.58074e-07 -2.60777e-08 0)
(7.77474e-07 -2.65256e-08 0)
(7.97232e-07 -2.6934e-08 0)
(8.17321e-07 -2.72982e-08 0)
(8.37692e-07 -2.76126e-08 0)
(8.5832e-07 -2.78721e-08 0)
(8.79212e-07 -2.80793e-08 0)
(9.00322e-07 -2.82366e-08 0)
(9.21657e-07 -2.83553e-08 0)
(9.43202e-07 -2.84549e-08 0)
(9.65009e-07 -2.85374e-08 0)
(5.90455e-07 -2.7903e-08 0)
(6.06267e-07 -2.93761e-08 0)
(6.22814e-07 -3.0559e-08 0)
(6.3986e-07 -3.16464e-08 0)
(6.57439e-07 -3.26461e-08 0)
(6.75522e-07 -3.3561e-08 0)
(6.94073e-07 -3.44138e-08 0)
(7.13031e-07 -3.52028e-08 0)
(7.32352e-07 -3.59194e-08 0)
(7.5204e-07 -3.65889e-08 0)
(7.72081e-07 -3.7213e-08 0)
(7.92442e-07 -3.77724e-08 0)
(8.13082e-07 -3.82571e-08 0)
(8.33963e-07 -3.86698e-08 0)
(8.55084e-07 -3.90177e-08 0)
(8.76467e-07 -3.92932e-08 0)
(8.9805e-07 -3.95003e-08 0)
(9.19861e-07 -3.96624e-08 0)
(9.41865e-07 -3.98075e-08 0)
(9.6404e-07 -3.99529e-08 0)
(5.73746e-07 -3.67709e-08 0)
(5.90715e-07 -3.84288e-08 0)
(6.08475e-07 -3.97795e-08 0)
(6.26625e-07 -4.10745e-08 0)
(6.45238e-07 -4.22805e-08 0)
(6.64297e-07 -4.33928e-08 0)
(6.83812e-07 -4.44484e-08 0)
(7.0367e-07 -4.54318e-08 0)
(7.23877e-07 -4.6341e-08 0)
(7.44417e-07 -4.71899e-08 0)
(7.65248e-07 -4.79657e-08 0)
(7.8634e-07 -4.86474e-08 0)
(8.07672e-07 -4.92324e-08 0)
(8.29241e-07 -4.97312e-08 0)
(8.51052e-07 -5.01525e-08 0)
(8.73044e-07 -5.0485e-08 0)
(8.95257e-07 -5.07425e-08 0)
(9.17598e-07 -5.09548e-08 0)
(9.40172e-07 -5.11589e-08 0)
(9.62857e-07 -5.138e-08 0)
(5.53715e-07 -4.62169e-08 0)
(5.7205e-07 -4.79184e-08 0)
(5.91218e-07 -4.9316e-08 0)
(6.10666e-07 -5.07329e-08 0)
(6.30575e-07 -5.2093e-08 0)
(6.50865e-07 -5.33853e-08 0)
(6.71585e-07 -5.46342e-08 0)
(6.9257e-07 -5.57933e-08 0)
(7.13805e-07 -5.68664e-08 0)
(7.35311e-07 -5.78637e-08 0)
(7.5708e-07 -5.87661e-08 0)
(7.79085e-07 -5.9552e-08 0)
(8.01288e-07 -6.02253e-08 0)
(8.23683e-07 -6.08034e-08 0)
(8.46293e-07 -6.12854e-08 0)
(8.69014e-07 -6.16647e-08 0)
(8.91948e-07 -6.19714e-08 0)
(9.14967e-07 -6.22404e-08 0)
(9.38214e-07 -6.25146e-08 0)
(9.61536e-07 -6.28088e-08 0)
(5.30671e-07 -5.63198e-08 0)
(5.5066e-07 -5.78937e-08 0)
(5.71569e-07 -5.92142e-08 0)
(5.92616e-07 -6.06737e-08 0)
(6.14052e-07 -6.21259e-08 0)
(6.35781e-07 -6.3556e-08 0)
(6.57763e-07 -6.49415e-08 0)
(6.79977e-07 -6.62426e-08 0)
(7.02402e-07 -6.74548e-08 0)
(7.25043e-07 -6.85765e-08 0)
(7.47892e-07 -6.95873e-08 0)
(7.70919e-07 -7.04666e-08 0)
(7.94093e-07 -7.12187e-08 0)
(8.17415e-07 -7.18644e-08 0)
(8.40877e-07 -7.2399e-08 0)
(8.64439e-07 -7.28274e-08 0)
(8.88205e-07 -7.31911e-08 0)
(9.1204e-07 -7.35177e-08 0)
(9.36071e-07 -7.3841e-08 0)
(9.60125e-07 -7.41737e-08 0)
(5.05029e-07 -6.7123e-08 0)
(5.26977e-07 -6.8367e-08 0)
(5.49886e-07 -6.94831e-08 0)
(5.72801e-07 -7.08893e-08 0)
(5.95938e-07 -7.23511e-08 0)
(6.19297e-07 -7.38471e-08 0)
(6.42763e-07 -7.53111e-08 0)
(6.66358e-07 -7.67163e-08 0)
(6.90093e-07 -7.80377e-08 0)
(7.13982e-07 -7.92568e-08 0)
(7.38008e-07 -8.03533e-08 0)
(7.62115e-07 -8.13102e-08 0)
(7.86287e-07 -8.21359e-08 0)
(8.10581e-07 -8.28505e-08 0)
(8.34972e-07 -8.34479e-08 0)
(8.59473e-07 -8.394e-08 0)
(8.84163e-07 -8.43613e-08 0)
(9.08877e-07 -8.47277e-08 0)
(9.33771e-07 -8.50598e-08 0)
(9.5866e-07 -8.53781e-08 0)
(4.7689e-07 -7.87162e-08 0)
(5.01368e-07 -7.93788e-08 0)
(5.26672e-07 -8.01477e-08 0)
(5.51751e-07 -8.1364e-08 0)
(5.76884e-07 -8.2755e-08 0)
(6.02007e-07 -8.42253e-08 0)
(6.27106e-07 -8.56982e-08 0)
(6.52199e-07 -8.71428e-08 0)
(6.77312e-07 -8.85159e-08 0)
(7.02466e-07 -8.97903e-08 0)
(7.27658e-07 -9.09465e-08 0)
(7.52854e-07 -9.19696e-08 0)
(7.78071e-07 -9.28723e-08 0)
(8.03382e-07 -9.36684e-08 0)
(8.28739e-07 -9.43435e-08 0)
(8.54208e-07 -9.49126e-08 0)
(8.79851e-07 -9.53915e-08 0)
(9.055e-07 -9.57792e-08 0)
(9.31296e-07 -9.6084e-08 0)
(9.57092e-07 -9.63425e-08 0)
(4.46904e-07 -9.16406e-08 0)
(4.75257e-07 -9.10033e-08 0)
(5.03626e-07 -9.12555e-08 0)
(5.31249e-07 -9.21354e-08 0)
(5.58505e-07 -9.3295e-08 0)
(5.85429e-07 -9.46047e-08 0)
(6.12108e-07 -9.59858e-08 0)
(6.38609e-07 -9.73819e-08 0)
(6.65004e-07 -9.87371e-08 0)
(6.91344e-07 -1.00021e-07 0)
(7.17633e-07 -1.01214e-07 0)
(7.4385e-07 -1.02295e-07 0)
(7.70047e-07 -1.03274e-07 0)
(7.96301e-07 -1.04155e-07 0)
(8.22564e-07 -1.04918e-07 0)
(8.48945e-07 -1.05576e-07 0)
(8.75443e-07 -1.0612e-07 0)
(9.01976e-07 -1.06534e-07 0)
(9.28635e-07 -1.06814e-07 0)
(9.55354e-07 -1.07003e-07 0)
(4.18565e-07 -1.09324e-07 0)
(4.52733e-07 -1.05472e-07 0)
(4.84609e-07 -1.04376e-07 0)
(5.14934e-07 -1.04306e-07 0)
(5.44171e-07 -1.04823e-07 0)
(5.72694e-07 -1.05691e-07 0)
(6.00701e-07 -1.06761e-07 0)
(6.28345e-07 -1.07928e-07 0)
(6.55751e-07 -1.09115e-07 0)
(6.83e-07 -1.1028e-07 0)
(7.10108e-07 -1.11392e-07 0)
(7.37071e-07 -1.12427e-07 0)
(7.63978e-07 -1.13387e-07 0)
(7.909e-07 -1.14266e-07 0)
(8.17768e-07 -1.15039e-07 0)
(8.44747e-07 -1.15707e-07 0)
(8.71758e-07 -1.16243e-07 0)
(8.98818e-07 -1.16633e-07 0)
(9.25962e-07 -1.1687e-07 0)
(9.53199e-07 -1.16972e-07 0)
(4.05208e-07 -1.26144e-07 0)
(4.39569e-07 -1.21634e-07 0)
(4.7212e-07 -1.19281e-07 0)
(5.0351e-07 -1.18159e-07 0)
(5.33827e-07 -1.17865e-07 0)
(5.63365e-07 -1.18113e-07 0)
(5.92295e-07 -1.18696e-07 0)
(6.20777e-07 -1.19474e-07 0)
(6.48931e-07 -1.20353e-07 0)
(6.76845e-07 -1.21273e-07 0)
(7.04544e-07 -1.22188e-07 0)
(7.3204e-07 -1.23065e-07 0)
(7.59447e-07 -1.23897e-07 0)
(7.86812e-07 -1.24668e-07 0)
(8.14059e-07 -1.25347e-07 0)
(8.41385e-07 -1.25929e-07 0)
(8.68659e-07 -1.26375e-07 0)
(8.95973e-07 -1.26681e-07 0)
(9.23306e-07 -1.26841e-07 0)
(9.50695e-07 -1.2681e-07 0)
(3.96614e-07 -1.4075e-07 0)
(4.30216e-07 -1.36651e-07 0)
(4.62729e-07 -1.33942e-07 0)
(4.94421e-07 -1.3226e-07 0)
(5.25279e-07 -1.31383e-07 0)
(5.55422e-07 -1.31091e-07 0)
(5.84989e-07 -1.31203e-07 0)
(6.14091e-07 -1.31587e-07 0)
(6.42821e-07 -1.32136e-07 0)
(6.71262e-07 -1.32782e-07 0)
(6.99433e-07 -1.33464e-07 0)
(7.27357e-07 -1.34144e-07 0)
(7.55166e-07 -1.34809e-07 0)
(7.82882e-07 -1.35433e-07 0)
(8.10431e-07 -1.35982e-07 0)
(8.38019e-07 -1.36447e-07 0)
(8.65496e-07 -1.36789e-07 0)
(8.92997e-07 -1.37008e-07 0)
(9.20453e-07 -1.37081e-07 0)
(9.47936e-07 -1.36896e-07 0)
(3.90108e-07 -1.54458e-07 0)
(4.22997e-07 -1.50798e-07 0)
(4.55206e-07 -1.48061e-07 0)
(4.86874e-07 -1.46113e-07 0)
(5.17931e-07 -1.44856e-07 0)
(5.48406e-07 -1.44158e-07 0)
(5.78386e-07 -1.43885e-07 0)
(6.07917e-07 -1.4392e-07 0)
(6.3707e-07 -1.44163e-07 0)
(6.6592e-07 -1.44538e-07 0)
(6.94474e-07 -1.44983e-07 0)
(7.22754e-07 -1.45456e-07 0)
(7.50902e-07 -1.45944e-07 0)
(7.78916e-07 -1.46409e-07 0)
(8.06734e-07 -1.46819e-07 0)
(8.34557e-07 -1.47163e-07 0)
(8.62218e-07 -1.47405e-07 0)
(8.89882e-07 -1.47539e-07 0)
(9.17444e-07 -1.47503e-07 0)
(9.45016e-07 -1.47171e-07 0)
(3.84917e-07 -1.67504e-07 0)
(4.17241e-07 -1.64279e-07 0)
(4.49077e-07 -1.6169e-07 0)
(4.80601e-07 -1.59661e-07 0)
(5.11655e-07 -1.58186e-07 0)
(5.42278e-07 -1.57206e-07 0)
(5.72487e-07 -1.56636e-07 0)
(6.02282e-07 -1.56378e-07 0)
(6.31718e-07 -1.56343e-07 0)
(6.60868e-07 -1.56463e-07 0)
(6.89721e-07 -1.56676e-07 0)
(7.18292e-07 -1.56944e-07 0)
(7.46727e-07 -1.57255e-07 0)
(7.74994e-07 -1.57564e-07 0)
(8.03049e-07 -1.5784e-07 0)
(8.31078e-07 -1.58068e-07 0)
(8.58908e-07 -1.58211e-07 0)
(8.8671e-07 -1.58246e-07 0)
(9.1437e-07 -1.58079e-07 0)
(9.42036e-07 -1.57657e-07 0)
(3.80565e-07 -1.80125e-07 0)
(4.12442e-07 -1.77284e-07 0)
(4.43965e-07 -1.74883e-07 0)
(4.75279e-07 -1.72877e-07 0)
(5.06246e-07 -1.71297e-07 0)
(5.36906e-07 -1.7014e-07 0)
(5.6722e-07 -1.69353e-07 0)
(5.97157e-07 -1.68861e-07 0)
(6.26774e-07 -1.68589e-07 0)
(6.56138e-07 -1.68483e-07 0)
(6.85219e-07 -1.68487e-07 0)
(7.14024e-07 -1.68568e-07 0)
(7.427e-07 -1.68718e-07 0)
(7.71182e-07 -1.68885e-07 0)
(7.99448e-07 -1.69038e-07 0)
(8.27645e-07 -1.69155e-07 0)
(8.55621e-07 -1.69195e-07 0)
(8.8354e-07 -1.69117e-07 0)
(9.11301e-07 -1.68839e-07 0)
(9.39055e-07 -1.68398e-07 0)
(3.76828e-07 -1.92456e-07 0)
(4.0834e-07 -1.89928e-07 0)
(4.39626e-07 -1.87715e-07 0)
(4.70711e-07 -1.8579e-07 0)
(5.01564e-07 -1.8419e-07 0)
(5.32193e-07 -1.82936e-07 0)
(5.6253e-07 -1.82002e-07 0)
(5.92533e-07 -1.81332e-07 0)
(6.2226e-07 -1.8087e-07 0)
(6.51772e-07 -1.80577e-07 0)
(6.81021e-07 -1.80401e-07 0)
(7.10008e-07 -1.80321e-07 0)
(7.38877e-07 -1.80329e-07 0)
(7.67525e-07 -1.80366e-07 0)
(7.95968e-07 -1.80402e-07 0)
(8.243e-07 -1.80405e-07 0)
(8.52395e-07 -1.80333e-07 0)
(8.80418e-07 -1.80146e-07 0)
(9.08277e-07 -1.79812e-07 0)
(9.36104e-07 -1.79362e-07 0)
(3.73619e-07 -2.04565e-07 0)
(4.04854e-07 -2.02289e-07 0)
(4.35923e-07 -2.00266e-07 0)
(4.66808e-07 -1.98454e-07 0)
(4.97531e-07 -1.9689e-07 0)
(5.28082e-07 -1.95597e-07 0)
(5.58391e-07 -1.94569e-07 0)
(5.8841e-07 -1.9377e-07 0)
(6.18193e-07 -1.93159e-07 0)
(6.47797e-07 -1.92716e-07 0)
(6.77158e-07 -1.9239e-07 0)
(7.06277e-07 -1.92171e-07 0)
(7.35289e-07 -1.92049e-07 0)
(7.64058e-07 -1.91959e-07 0)
(7.92629e-07 -1.91874e-07 0)
(8.21065e-07 -1.91758e-07 0)
(8.49259e-07 -1.91577e-07 0)
(8.77379e-07 -1.9131e-07 0)
(9.05321e-07 -1.9096e-07 0)
(9.33205e-07 -1.9045e-07 0)
(3.70843e-07 -2.16504e-07 0)
(4.01878e-07 -2.14444e-07 0)
(4.32754e-07 -2.12603e-07 0)
(4.63475e-07 -2.10914e-07 0)
(4.94059e-07 -2.09408e-07 0)
(5.24509e-07 -2.08107e-07 0)
(5.54763e-07 -2.07019e-07 0)
(5.84766e-07 -2.06124e-07 0)
(6.14569e-07 -2.05398e-07 0)
(6.44224e-07 -2.04836e-07 0)
(6.73651e-07 -2.04389e-07 0)
(7.02853e-07 -2.04054e-07 0)
(7.31952e-07 -2.03813e-07 0)
(7.60798e-07 -2.03602e-07 0)
(7.89454e-07 -2.03399e-07 0)
(8.17969e-07 -2.03173e-07 0)
(8.46246e-07 -2.02907e-07 0)
(8.74451e-07 -2.02599e-07 0)
(9.02451e-07 -2.02217e-07 0)
(9.3038e-07 -2.01634e-07 0)
(3.68429e-07 -2.28322e-07 0)
(3.99302e-07 -2.26459e-07 0)
(4.30027e-07 -2.24775e-07 0)
(4.60604e-07 -2.23194e-07 0)
(4.91052e-07 -2.21743e-07 0)
(5.21402e-07 -2.20444e-07 0)
(5.51594e-07 -2.19317e-07 0)
(5.81566e-07 -2.18356e-07 0)
(6.11369e-07 -2.1755e-07 0)
(6.41044e-07 -2.16903e-07 0)
(6.70499e-07 -2.16367e-07 0)
(6.99742e-07 -2.1594e-07 0)
(7.28878e-07 -2.15597e-07 0)
(7.57763e-07 -2.15278e-07 0)
(7.86469e-07 -2.14972e-07 0)
(8.15045e-07 -2.14663e-07 0)
(8.43391e-07 -2.14346e-07 0)
(8.71655e-07 -2.14008e-07 0)
(8.99698e-07 -2.13551e-07 0)
(9.27662e-07 -2.12967e-07 0)
(3.66334e-07 -2.40068e-07 0)
(3.97064e-07 -2.3838e-07 0)
(4.27661e-07 -2.36815e-07 0)
(4.58102e-07 -2.35316e-07 0)
(4.88434e-07 -2.33912e-07 0)
(5.18699e-07 -2.32627e-07 0)
(5.48835e-07 -2.31487e-07 0)
(5.78772e-07 -2.30492e-07 0)
(6.0856e-07 -2.29642e-07 0)
(6.38232e-07 -2.28936e-07 0)
(6.67684e-07 -2.28332e-07 0)
(6.96931e-07 -2.27825e-07 0)
(7.2607e-07 -2.27387e-07 0)
(7.54967e-07 -2.26973e-07 0)
(7.83704e-07 -2.26584e-07 0)
(8.12326e-07 -2.26216e-07 0)
(8.40721e-07 -2.25859e-07 0)
(8.69017e-07 -2.25465e-07 0)
(8.97098e-07 -2.24944e-07 0)
(9.25096e-07 -2.24406e-07 0)
(3.64515e-07 -2.51776e-07 0)
(3.95114e-07 -2.50219e-07 0)
(4.25587e-07 -2.48746e-07 0)
(4.55914e-07 -2.47314e-07 0)
(4.86156e-07 -2.4596e-07 0)
(5.16354e-07 -2.44705e-07 0)
(5.46441e-07 -2.43574e-07 0)
(5.76341e-07 -2.42562e-07 0)
(6.06103e-07 -2.41684e-07 0)
(6.35754e-07 -2.40923e-07 0)
(6.6518e-07 -2.40248e-07 0)
(6.94409e-07 -2.39659e-07 0)
(7.23535e-07 -2.39134e-07 0)
(7.52434e-07 -2.3864e-07 0)
(7.81191e-07 -2.38193e-07 0)
(8.09841e-07 -2.37783e-07 0)
(8.38256e-07 -2.37375e-07 0)
(8.66569e-07 -2.36909e-07 0)
(8.94676e-07 -2.36403e-07 0)
(9.22708e-07 -2.35867e-07 0)
(3.62937e-07 -2.63442e-07 0)
(3.93417e-07 -2.61974e-07 0)
(4.2378e-07 -2.60587e-07 0)
(4.5402e-07 -2.59224e-07 0)
(4.84191e-07 -2.57922e-07 0)
(5.1433e-07 -2.56698e-07 0)
(5.44372e-07 -2.55577e-07 0)
(5.74237e-07 -2.54545e-07 0)
(6.03965e-07 -2.53641e-07 0)
(6.33582e-07 -2.52829e-07 0)
(6.62972e-07 -2.52094e-07 0)
(6.92173e-07 -2.51441e-07 0)
(7.21286e-07 -2.50853e-07 0)
(7.50188e-07 -2.50309e-07 0)
(7.78953e-07 -2.49822e-07 0)
(8.07606e-07 -2.49365e-07 0)
(8.36014e-07 -2.48893e-07 0)
(8.64342e-07 -2.48391e-07 0)
(8.92465e-07 -2.47936e-07 0)
(9.20519e-07 -2.47393e-07 0)
(3.61582e-07 -2.75053e-07 0)
(3.9196e-07 -2.73679e-07 0)
(4.2224e-07 -2.72375e-07 0)
(4.52408e-07 -2.71073e-07 0)
(4.82515e-07 -2.69809e-07 0)
(5.12603e-07 -2.68608e-07 0)
(5.42602e-07 -2.67499e-07 0)
(5.72433e-07 -2.66466e-07 0)
(6.02122e-07 -2.65544e-07 0)
(6.31692e-07 -2.64695e-07 0)
(6.61044e-07 -2.63907e-07 0)
(6.90226e-07 -2.63197e-07 0)
(7.19336e-07 -2.62556e-07 0)
(7.48237e-07 -2.61968e-07 0)
(7.76992e-07 -2.61434e-07 0)
(8.05624e-07 -2.60916e-07 0)
(8.34024e-07 -2.60395e-07 0)
(8.62369e-07 -2.59921e-07 0)
(8.90517e-07 -2.59458e-07 0)
(9.18578e-07 -2.58966e-07 0)
(3.60451e-07 -2.8665e-07 0)
(3.90748e-07 -2.85387e-07 0)
(4.2096e-07 -2.84138e-07 0)
(4.51061e-07 -2.82878e-07 0)
(4.81111e-07 -2.81644e-07 0)
(5.11157e-07 -2.80481e-07 0)
(5.41113e-07 -2.79383e-07 0)
(5.70898e-07 -2.78348e-07 0)
(6.00544e-07 -2.77382e-07 0)
(6.30075e-07 -2.76482e-07 0)
(6.59404e-07 -2.75651e-07 0)
(6.88583e-07 -2.74901e-07 0)
(7.1769e-07 -2.74222e-07 0)
(7.4657e-07 -2.73589e-07 0)
(7.75292e-07 -2.72997e-07 0)
(8.03905e-07 -2.72428e-07 0)
(8.32324e-07 -2.71903e-07 0)
(8.60684e-07 -2.71463e-07 0)
(8.88833e-07 -2.70966e-07 0)
(9.16882e-07 -2.70517e-07 0)
(3.59539e-07 -2.98303e-07 0)
(3.89765e-07 -2.97087e-07 0)
(4.1992e-07 -2.9587e-07 0)
(4.49968e-07 -2.94655e-07 0)
(4.79978e-07 -2.93461e-07 0)
(5.09985e-07 -2.92324e-07 0)
(5.39892e-07 -2.91212e-07 0)
(5.69614e-07 -2.90157e-07 0)
(5.99213e-07 -2.89158e-07 0)
(6.28729e-07 -2.88222e-07 0)
(6.58063e-07 -2.87356e-07 0)
(6.8724e-07 -2.86567e-07 0)
(7.1632e-07 -2.85838e-07 0)
(7.4516e-07 -2.85147e-07 0)
(7.7386e-07 -2.84504e-07 0)
(8.02492e-07 -2.83918e-07 0)
(8.30935e-07 -2.83415e-07 0)
(8.59282e-07 -2.82933e-07 0)
(8.87389e-07 -2.82454e-07 0)
(9.15405e-07 -2.82029e-07 0)
(3.58836e-07 -3.09956e-07 0)
(3.89003e-07 -3.08772e-07 0)
(4.19113e-07 -3.076e-07 0)
(4.49125e-07 -3.06428e-07 0)
(4.79102e-07 -3.05257e-07 0)
(5.09056e-07 -3.04106e-07 0)
(5.38902e-07 -3.0299e-07 0)
(5.68575e-07 -3.01909e-07 0)
(5.98155e-07 -3.00882e-07 0)
(6.27677e-07 -2.99921e-07 0)
(6.5701e-07 -2.99019e-07 0)
(6.86155e-07 -2.98177e-07 0)
(7.15189e-07 -2.97387e-07 0)
(7.44015e-07 -2.96651e-07 0)
(7.7275e-07 -2.9599e-07 0)
(8.01421e-07 -2.95399e-07 0)
(8.2982e-07 -2.94864e-07 0)
(8.58065e-07 -2.94318e-07 0)
(8.86163e-07 -2.93906e-07 0)
(9.14334e-07 -2.93525e-07 0)
(3.58345e-07 -3.21572e-07 0)
(3.88468e-07 -3.20475e-07 0)
(4.18544e-07 -3.1934e-07 0)
(4.4852e-07 -3.18171e-07 0)
(4.78441e-07 -3.1702e-07 0)
(5.08329e-07 -3.15857e-07 0)
(5.38126e-07 -3.14716e-07 0)
(5.6779e-07 -3.13616e-07 0)
(5.97385e-07 -3.12571e-07 0)
(6.26901e-07 -3.1157e-07 0)
(6.56175e-07 -3.10607e-07 0)
(6.8526e-07 -3.09715e-07 0)
(7.14318e-07 -3.08897e-07 0)
(7.43235e-07 -3.08129e-07 0)
(7.71976e-07 -3.07425e-07 0)
(8.005e-07 -3.068e-07 0)
(8.2884e-07 -3.06215e-07 0)
(8.57227e-07 -3.05695e-07 0)
(8.85307e-07 -3.05283e-07 0)
(9.13255e-07 -3.04942e-07 0)
(3.58033e-07 -3.33263e-07 0)
(3.88124e-07 -3.32196e-07 0)
(4.18163e-07 -3.31062e-07 0)
(4.48088e-07 -3.29905e-07 0)
(4.77934e-07 -3.28725e-07 0)
(5.07777e-07 -3.27565e-07 0)
(5.37599e-07 -3.26421e-07 0)
(5.67298e-07 -3.25293e-07 0)
(5.96847e-07 -3.24194e-07 0)
(6.26257e-07 -3.2314e-07 0)
(6.55518e-07 -3.2215e-07 0)
(6.84725e-07 -3.21224e-07 0)
(7.13831e-07 -3.2035e-07 0)
(7.42609e-07 -3.19534e-07 0)
(7.713e-07 -3.18796e-07 0)
(7.99953e-07 -3.1812e-07 0)
(8.28302e-07 -3.17486e-07 0)
(8.56599e-07 -3.16994e-07 0)
(8.84713e-07 -3.16561e-07 0)
(9.1264e-07 -3.1626e-07 0)
(3.57879e-07 -3.44962e-07 0)
(3.87937e-07 -3.43927e-07 0)
(4.17902e-07 -3.42793e-07 0)
(4.47743e-07 -3.41608e-07 0)
(4.77603e-07 -3.40433e-07 0)
(5.07518e-07 -3.39264e-07 0)
(5.37324e-07 -3.38079e-07 0)
(5.66897e-07 -3.36903e-07 0)
(5.96397e-07 -3.35772e-07 0)
(6.25922e-07 -3.34689e-07 0)
(6.55245e-07 -3.33657e-07 0)
(6.8434e-07 -3.32686e-07 0)
(7.13419e-07 -3.31756e-07 0)
(7.42305e-07 -3.3089e-07 0)
(7.70977e-07 -3.30116e-07 0)
(7.99614e-07 -3.29385e-07 0)
(8.28033e-07 -3.28745e-07 0)
(8.56324e-07 -3.28181e-07 0)
(8.84496e-07 -3.27725e-07 0)
(9.12273e-07 -3.27422e-07 0)
(2.02978e-08 -1.81681e-07 0)
(6.08972e-08 -1.79951e-07 0)
(1.01432e-07 -1.7623e-07 0)
(1.41799e-07 -1.7108e-07 0)
(1.81919e-07 -1.64437e-07 0)
(2.21749e-07 -1.56726e-07 0)
(2.61206e-07 -1.48156e-07 0)
(3.00228e-07 -1.38918e-07 0)
(3.39145e-07 -1.29162e-07 0)
(3.77287e-07 -1.18842e-07 0)
(2.02758e-08 -1.88997e-07 0)
(6.0797e-08 -1.87492e-07 0)
(1.01187e-07 -1.84146e-07 0)
(1.41297e-07 -1.79547e-07 0)
(1.80994e-07 -1.73596e-07 0)
(2.20201e-07 -1.66639e-07 0)
(2.58767e-07 -1.58891e-07 0)
(2.96553e-07 -1.50515e-07 0)
(3.33594e-07 -1.41709e-07 0)
(3.69048e-07 -1.33117e-07 0)
(2.01497e-08 -1.96737e-07 0)
(6.0388e-08 -1.95418e-07 0)
(1.00408e-07 -1.92409e-07 0)
(1.4008e-07 -1.88295e-07 0)
(1.79241e-07 -1.8296e-07 0)
(2.17772e-07 -1.76674e-07 0)
(2.55503e-07 -1.69657e-07 0)
(2.9233e-07 -1.62056e-07 0)
(3.28192e-07 -1.541e-07 0)
(3.62524e-07 -1.46579e-07 0)
(1.99677e-08 -2.04751e-07 0)
(5.98722e-08 -2.03572e-07 0)
(9.95035e-08 -2.00822e-07 0)
(1.38745e-07 -1.9708e-07 0)
(1.77444e-07 -1.92218e-07 0)
(2.15422e-07 -1.86462e-07 0)
(2.52547e-07 -1.80055e-07 0)
(2.8869e-07 -1.7315e-07 0)
(3.23719e-07 -1.65999e-07 0)
(3.57263e-07 -1.59367e-07 0)
(1.97848e-08 -2.12986e-07 0)
(5.92787e-08 -2.11926e-07 0)
(9.85217e-08 -2.09404e-07 0)
(1.3734e-07 -2.05968e-07 0)
(1.756e-07 -2.0153e-07 0)
(2.13109e-07 -1.96251e-07 0)
(2.49723e-07 -1.90392e-07 0)
(2.85363e-07 -1.84128e-07 0)
(3.19811e-07 -1.77693e-07 0)
(3.52808e-07 -1.71778e-07 0)
(1.96177e-08 -2.21413e-07 0)
(5.8684e-08 -2.20433e-07 0)
(9.75325e-08 -2.18144e-07 0)
(1.35933e-07 -2.14962e-07 0)
(1.73768e-07 -2.10898e-07 0)
(2.10893e-07 -2.06055e-07 0)
(2.47094e-07 -2.00692e-07 0)
(2.82329e-07 -1.95016e-07 0)
(3.16349e-07 -1.89226e-07 0)
(3.4893e-07 -1.83922e-07 0)
(1.94127e-08 -2.30008e-07 0)
(5.80944e-08 -2.29088e-07 0)
(9.65458e-08 -2.27021e-07 0)
(1.34542e-07 -2.24056e-07 0)
(1.71992e-07 -2.20329e-07 0)
(2.08756e-07 -2.15897e-07 0)
(2.44628e-07 -2.11005e-07 0)
(2.79537e-07 -2.05867e-07 0)
(3.13238e-07 -2.00641e-07 0)
(3.45525e-07 -1.95848e-07 0)
(1.92009e-08 -2.38744e-07 0)
(5.75202e-08 -2.37883e-07 0)
(9.55687e-08 -2.36011e-07 0)
(1.33176e-07 -2.33257e-07 0)
(1.70291e-07 -2.29842e-07 0)
(2.06735e-07 -2.25811e-07 0)
(2.42313e-07 -2.21362e-07 0)
(2.76958e-07 -2.16692e-07 0)
(3.10432e-07 -2.1195e-07 0)
(3.42542e-07 -2.07598e-07 0)
(1.90393e-08 -2.47619e-07 0)
(5.69765e-08 -2.46807e-07 0)
(9.46265e-08 -2.45109e-07 0)
(1.3188e-07 -2.42575e-07 0)
(1.68665e-07 -2.39454e-07 0)
(2.04839e-07 -2.35794e-07 0)
(2.40176e-07 -2.31753e-07 0)
(2.74604e-07 -2.27491e-07 0)
(3.07913e-07 -2.23184e-07 0)
(3.39928e-07 -2.19234e-07 0)
(1.8894e-08 -2.56627e-07 0)
(5.64369e-08 -2.55837e-07 0)
(9.3717e-08 -2.54303e-07 0)
(1.30669e-07 -2.51997e-07 0)
(1.67144e-07 -2.49156e-07 0)
(2.03076e-07 -2.45837e-07 0)
(2.38222e-07 -2.4217e-07 0)
(2.72477e-07 -2.3829e-07 0)
(3.05662e-07 -2.34391e-07 0)
(3.37632e-07 -2.30814e-07 0)
(1.87156e-08 -2.65733e-07 0)
(5.59038e-08 -2.64953e-07 0)
(9.28662e-08 -2.63584e-07 0)
(1.29544e-07 -2.61509e-07 0)
(1.65744e-07 -2.58943e-07 0)
(2.01447e-07 -2.55942e-07 0)
(2.36428e-07 -2.52622e-07 0)
(2.70549e-07 -2.4912e-07 0)
(3.03644e-07 -2.45606e-07 0)
(3.35602e-07 -2.42359e-07 0)
(1.8524e-08 -2.74911e-07 0)
(5.54233e-08 -2.74166e-07 0)
(9.21128e-08 -2.72957e-07 0)
(1.28509e-07 -2.71111e-07 0)
(1.64463e-07 -2.68812e-07 0)
(1.99951e-07 -2.6611e-07 0)
(2.34781e-07 -2.63123e-07 0)
(2.68792e-07 -2.59986e-07 0)
(3.01825e-07 -2.56812e-07 0)
(3.3381e-07 -2.53855e-07 0)
(1.8368e-08 -2.84174e-07 0)
(5.50228e-08 -2.83495e-07 0)
(9.14585e-08 -2.82432e-07 0)
(1.27571e-07 -2.808e-07 0)
(1.633e-07 -2.7875e-07 0)
(1.98591e-07 -2.76329e-07 0)
(2.3328e-07 -2.73667e-07 0)
(2.67192e-07 -2.70862e-07 0)
(3.00192e-07 -2.67992e-07 0)
(3.32242e-07 -2.6532e-07 0)
(1.82566e-08 -2.93546e-07 0)
(5.46756e-08 -2.92947e-07 0)
(9.08641e-08 -2.91999e-07 0)
(1.26718e-07 -2.90563e-07 0)
(1.62243e-07 -2.88742e-07 0)
(1.97359e-07 -2.86596e-07 0)
(2.31912e-07 -2.84249e-07 0)
(2.65738e-07 -2.81749e-07 0)
(2.98734e-07 -2.79189e-07 0)
(3.30872e-07 -2.76804e-07 0)
(1.81581e-08 -3.03032e-07 0)
(5.43346e-08 -3.02508e-07 0)
(9.02927e-08 -3.01652e-07 0)
(1.25931e-07 -3.00396e-07 0)
(1.61272e-07 -2.98801e-07 0)
(1.96225e-07 -2.96932e-07 0)
(2.30651e-07 -2.94865e-07 0)
(2.64421e-07 -2.92645e-07 0)
(2.97442e-07 -2.90412e-07 0)
(3.29692e-07 -2.88279e-07 0)
(1.80469e-08 -3.12617e-07 0)
(5.39865e-08 -3.12173e-07 0)
(8.97403e-08 -3.11404e-07 0)
(1.25196e-07 -3.10318e-07 0)
(1.60364e-07 -3.0892e-07 0)
(1.95171e-07 -3.07291e-07 0)
(2.29502e-07 -3.05482e-07 0)
(2.63259e-07 -3.03564e-07 0)
(2.96336e-07 -3.01652e-07 0)
(3.28723e-07 -2.99767e-07 0)
(1.79281e-08 -3.22301e-07 0)
(5.36521e-08 -3.2195e-07 0)
(8.9222e-08 -3.21256e-07 0)
(1.24517e-07 -3.20301e-07 0)
(1.59533e-07 -3.19103e-07 0)
(1.9422e-07 -3.17713e-07 0)
(2.28497e-07 -3.16165e-07 0)
(2.62265e-07 -3.14567e-07 0)
(2.95417e-07 -3.12909e-07 0)
(3.27955e-07 -3.11295e-07 0)
(1.78196e-08 -3.32096e-07 0)
(5.33541e-08 -3.31823e-07 0)
(8.87527e-08 -3.31201e-07 0)
(1.23903e-07 -3.30378e-07 0)
(1.58795e-07 -3.29345e-07 0)
(1.93402e-07 -3.2817e-07 0)
(2.27654e-07 -3.26891e-07 0)
(2.61448e-07 -3.25579e-07 0)
(2.94684e-07 -3.2418e-07 0)
(3.27392e-07 -3.22812e-07 0)
(1.77334e-08 -3.41998e-07 0)
(5.31038e-08 -3.41781e-07 0)
(8.83422e-08 -3.41245e-07 0)
(1.23362e-07 -3.40531e-07 0)
(1.58155e-07 -3.39663e-07 0)
(1.92718e-07 -3.38701e-07 0)
(2.26968e-07 -3.37688e-07 0)
(2.60795e-07 -3.36607e-07 0)
(2.94106e-07 -3.35512e-07 0)
(3.26997e-07 -3.34375e-07 0)
(1.76683e-08 -3.52035e-07 0)
(5.28991e-08 -3.51826e-07 0)
(8.7984e-08 -3.51378e-07 0)
(1.22905e-07 -3.50782e-07 0)
(1.57659e-07 -3.50071e-07 0)
(1.92211e-07 -3.49305e-07 0)
(2.26448e-07 -3.48513e-07 0)
(2.60286e-07 -3.47641e-07 0)
(2.9369e-07 -3.46829e-07 0)
(3.26806e-07 -3.45937e-07 0)
)


// ************************************************************************* //
