/*--------------------------------*- C++ -*----------------------------------*\
| =========                 |                                                 |
| \\      /  F ield         | foam-extend: Open Source CFD                    |
|  \\    /   O peration     | Version:     4.1                                |
|   \\  /    A nd           | Web:         http://www.foam-extend.org         |
|    \\/     M anipulation  |                                                 |
\*---------------------------------------------------------------------------*/
FoamFile
{
    version     2.0;
    format      ascii;
    class       volScalarField;
    location    "1";
    object      sigmaEq;
}
// * * * * * * * * * * * * * * * * * * * * * * * * * * * * * * * * * * * * * //

dimensions      [1 -1 -2 0 0 0 0];

internalField   nonuniform List<scalar> 
100000
(
95535.88238889416
94533.85194615662
94100.8737144233
94326.28958686642
95007.19905020441
96097.60869387418
97489.01982431329
99119.16424131826
100919.4418394033
102840.2738777634
104837.0708351208
106875.5789365018
108927.3726436174
110970.4052528298
112987.1628763844
114964.228304104
116891.3322992344
118760.8554114297
120567.2661253238
122306.7369502702
123976.7931094818
125576.045269964
127103.9605548189
128560.686050733
129946.8999999944
131263.6936800724
132512.4740638812
133694.8867752659
134812.7535924275
135868.0206228776
136862.7177624047
137798.9256884863
138678.7495281531
139504.2985516163
140277.6684573772
141000.9279953243
141676.1100558437
142305.2032741194
142890.1452925831
143432.8194414123
143935.0518956428
144398.6086626842
144825.1946736337
145216.4540888197
145573.9699614709
145899.2641927176
146193.7988801176
146458.9777466505
146696.1470503815
146906.5968277086
147091.5629312728
147252.2289144651
147389.7275229066
147505.1422310258
147599.5091814782
147673.8190982991
147729.018969543
147766.0136872311
147785.6677384053
147788.8070176469
147776.2204601053
147748.6615550625
147706.8497926531
147651.4721156987
147583.1844258799
147502.6130079608
147410.3557717869
147306.983407084
147193.0406543151
147069.0475919879
146935.5007631704
146792.8741525552
146641.6201590459
146482.1706429918
146314.9379263135
146140.3156368595
145958.6795322673
145770.3883368777
145575.7845999623
145375.1952677696
145168.9325967471
144957.2945632563
144740.5662335641
144519.0186883938
144292.9126103334
144062.4929492868
143828.0008615788
143589.6506433503
143347.6766583938
143102.2411598252
142853.620467985
142601.8357945389
142347.411679541
142089.876479795
141830.8994176106
141568.0603772855
141308.230027154
141040.1378020089
140797.615384005
140509.3711094567
98981.98722896999
97828.24808971786
97224.60459074161
97275.80033216292
97778.9269726131
98694.95817437804
99917.20240465766
101386.398682985
103034.9488420423
104814.1714831178
106679.5571985621
108596.7250172684
110536.8086465695
112477.218874474
114399.8070105503
116290.5074110224
118138.4023265582
119935.2514421665
121674.9389878937
123353.096492136
124966.7510009289
126514.0595856572
127994.0783161838
129406.5823071973
130751.9141229517
132030.8625344405
133244.5624754562
134394.4145019751
135482.0197934533
136509.1255491661
137477.5822817239
138389.30958506
139246.2664788479
140050.4294816651
140803.7752531539
141508.2646111179
142165.8314433516
142778.3750194554
143347.7522676362
143875.772223509
144364.1931562259
144814.7197409426
145229.0007125699
145608.6282272611
145955.1378687186
146270.0084003241
146554.6620901919
146810.4657267477
147038.7317433476
147240.7192115395
147417.6352667685
147570.6368050863
147700.832017738
147809.2817304424
147897.0010661734
147964.9612279799
148014.0911037488
148045.2788156215
148059.3732576138
148057.1858009851
148039.4918628361
148007.0323136487
147960.5148803896
147900.6155756064
147827.9801108853
147743.2252125068
147646.9398351238
147539.6863227995
147422.0016312199
147294.3985443976
147157.3667528775
147011.3738219152
146856.8661590118
146694.2700166362
146523.9924446859
146346.4221396722
146161.9302893424
145970.8713926947
145773.584091391
145570.3918155447
145361.6037098388
145147.5151536754
144928.4091458076
144704.5558498773
144476.2158273915
144243.636778421
144007.0635702607
143766.7232377578
143522.8602425043
143275.6781947812
143025.4654033025
142772.3751882442
142516.872196697
142258.9356148049
141999.5877591124
141738.1786545309
141477.140854465
141214.2000672041
140952.285728002
140688.2451380565
102426.5182285261
101122.5515478228
100350.4779466739
100230.0614818585
100557.9149398548
101301.7128714474
102356.3966937633
103665.6606920114
105162.9219836749
106800.4617176746
108533.9320318261
110328.9114340193
112156.1739811372
113992.6624444929
115819.6537627822
117622.4819907372
119389.6207523593
121112.2404374523
122783.6629007034
124398.9950581049
125954.7786806197
127448.725722298
128879.4864138218
130246.4669127273
131549.6758383735
132789.5999431257
133967.1016489772
135083.3349156592
136139.6783271135
137137.6789741051
138079.0057111203
138965.413597361
139798.7138966083
140580.7488967775
141313.3727416445
141998.4357045993
142637.7716030223
143233.1880467271
143786.4583476769
144299.3158216511
144773.4495928015
145210.5006191747
145612.0593998433
145979.6651444334
146314.8047495627
146618.9119553632
146893.3677525695
147139.5011607379
147358.5897167577
147551.8601572185
147720.4898115707
147865.608119195
147988.2978499264
148089.5962294801
148170.496523734
148231.9497113583
148274.8658864802
148300.1157015132
148308.5318171839
148300.9104614024
148278.0129300284
148240.566980689
148189.2681430944
148124.7810018533
148047.7405535156
147958.753544041
147858.3996496715
147747.2325297553
147625.7809614401
147494.5500559177
147354.0223647857
147204.6587980649
147046.8995030078
146881.1648587435
146707.8564596147
146527.3579282382
146340.0357065712
146146.239915282
145946.3052044303
145740.5513626884
145529.2842050807
145312.7962877829
145091.3681500319
144865.2681407202
144634.755142376
144400.0766971961
144161.4762926841
143919.1831991091
143673.4372985347
143424.4495081022
143172.4854942423
142917.7185558445
142660.5157756263
142400.9188503857
142139.5765431446
141876.0714009313
141611.5093643732
141344.6634906113
141073.5518823917
140801.6629652873
105868.6488419768
104415.8183707737
103477.3964397136
103187.8119657378
103342.7790920806
103916.4195057513
104805.1380849719
105955.5268769363
107302.0203012709
108797.9107266366
110399.0810814663
112071.1490262095
113784.6041815027
115515.9880103923
117246.062306548
118959.6100087766
120644.5341380464
122291.4462162985
123893.129786105
125444.1847221705
126940.6804605214
128379.8930142387
129760.0729839311
131080.2618126341
132340.1365421589
133539.8824762853
134680.0893435779
135761.6645704765
136785.7624571547
137753.7273870199
138667.0457077372
139527.3063892688
140336.1695554054
141095.3411501886
141806.5516467427
142471.5382155431
143092.0318528137
143669.7470778867
144206.3720694658
144703.5619581923
145162.9347088776
145586.0664499392
145974.4879834911
146329.6836025807
146653.0900377421
146946.0950035207
147210.0369383552
147446.2056416173
147655.8426210064
147840.1413651357
148000.248395863
148137.2646514094
148252.2465853396
148346.2070473342
148420.1166274164
148474.9052764314
148511.4636138261
148530.644165877
148533.2626889727
148520.0996829567
148491.9018104503
148449.3831718822
148393.2265448576
148324.0846168344
148242.5812745156
148149.3128756937
148044.8493750188
147929.7353279372
147804.4909980318
147669.6135516321
147525.5781032356
147372.8385723884
147211.8285610349
147042.962354351
146866.6358585956
146683.2273729075
146493.0983930488
146296.5944958272
146094.046152414
145885.7693444993
145672.0664297157
145453.2269555562
145229.5287021887
145001.2378961467
144768.611123182
144531.8948342601
144291.3292106263
144047.1436551775
143799.5678118291
143548.8151226923
143295.1118038287
143038.6456409454
142779.6383650951
142518.2191721965
142254.5366000755
141988.6538846233
141720.0741745183
141449.9091513477
141171.6292446321
140897.7433783193
109307.5132486659
107707.1068777099
106604.2939608437
106147.8455993217
106132.1998756653
106537.6922708343
107262.028935599
108254.6340766585
109450.9511030294
110805.3222384996
112273.9199068534
113822.4703752129
115421.2477832224
117046.456278979
118678.3979183836
120301.3517925994
121902.6888108732
123472.4920008756
125003.0307694596
126488.4162168909
127924.2591286697
129307.4097932181
130635.7262399485
131907.8893771353
133123.2478263599
134281.6878950901
135383.5261473035
136429.422469989
137420.3073608023
138357.321273885
139241.7652083302
140075.0606663409
140858.7155772805
141594.2968965806
142283.4089145591
142927.6744607979
143528.7200369746
144088.1644504464
144607.6088123846
145088.6289211327
145532.7698495041
145941.5407963315
146316.4114350426
146658.8100244389
146970.1216045404
147251.6863197089
147504.7989402525
147730.7090196718
147930.6208239981
148105.6934340629
148257.0416525554
148385.7370677
148492.8088546847
148579.2445850499
148645.9914575211
148693.9576895664
148724.0136686054
148736.9931160379
148733.6942943505
148714.8813818919
148681.2858212982
148633.6075343575
148572.5160667536
148498.6517339985
148412.6268489366
148315.0269434743
148206.4118526329
148087.3166737268
147958.2528076846
147819.709098673
147672.1528677202
147516.0307518744
147351.7695289497
147179.777077634
147000.4433026545
146814.140889801
146621.2260723138
146422.0394929738
146216.9069934234
146006.1402194733
145790.0373961091
145568.8841478449
145342.9543124655
145112.5102625094
144877.8040837531
144639.0776916144
144396.5643110222
144150.4867178053
143901.0606258036
143648.4891814427
143392.9673879953
143134.6708920631
142873.7515673912
142610.3467649088
142344.4623159364
142076.2909783632
141805.0908091744
141532.6152415065
141251.8011106492
140978.0620241279
112742.2703489314
110995.5041530787
109730.1410954202
109109.0055759641
108924.9183898983
109164.21048505
109725.7326056724
110561.6732287291
111608.4681260777
112821.5372984083
114157.3920985741
115581.9287432603
117065.2684263282
118583.3378229696
120116.0320215211
121647.1715963104
123163.6331936704
124655.0017697893
126113.0569666965
127531.4403362696
128905.3181383861
130231.1248926191
131506.33441183
132729.2733978834
133898.9643062539
135014.996084756
136077.4145278465
137086.6318706268
138043.353239137
138948.5148789256
139803.2317795593
140608.755609666
141366.4400702185
142077.7121575211
142744.04831722
143366.9545035382
143947.9508925639
144488.5593533052
144990.2920883436
145454.6434506878
145883.0841461818
146277.0551974827
146637.9635016065
146967.1796599432
147266.0358249456
147535.8234388565
147777.7922704951
147993.1503571197
148183.0637348664
148348.6561513656
148491.0096249512
148611.1653929552
148710.1245550032
148788.8486258393
148848.2605879324
148889.246181649
148912.6548997776
148919.3009883942
148909.9645655038
148885.3929133828
148846.3017217464
148793.3762064891
148727.2721686854
148648.6170638238
148558.0111794423
148456.0288151943
148343.2192965031
148220.1078589644
148087.1966530961
147944.9658615399
147793.8746849465
147634.3621290938
147466.8478027987
147291.7328593272
147109.4008894815
146920.2186396071
146724.5367427699
146522.6905539212
146315.0008842278
146101.7745706743
145883.3051590927
145659.8737073412
145431.7493614582
145199.1897714552
144962.4415796425
144721.741125739
144477.3138157858
144229.3750753907
143978.1269802655
143723.7636816154
143466.4538227215
143206.3696987878
142943.6108330051
142678.3517405905
142410.4933447959
142140.4302142161
141867.1866524011
141593.3089485255
141310.7584996948
141038.2830306241
116172.0731034797
114280.1049790199
112853.935837477
112070.1776105828
111719.7270756017
111794.7079963643
112194.9666928519
112875.3848062935
113773.3679563893
114845.4322366588
116048.468555661
117348.5974866085
118715.8440616608
120125.9129090256
121558.3421123226
122996.5369173835
124426.9170731028
125838.6002972742
127222.9003208419
128573.0075826668
129883.6597028869
131150.8875117122
132371.7874963004
133544.3381089832
134667.2410643577
135739.7899112719
136761.7602753101
137733.3182293696
138654.943869071
139527.3677096561
140351.5175203858
141128.4746282118
141859.4370875641
142545.6897314306
143188.5795985447
143789.494565301
144349.8466163024
144871.0586508168
145354.5525277749
145801.7398098221
146214.0150790882
146592.7495148685
146939.2859850074
147254.9362036697
147540.9779965815
147798.6527393402
148029.1641267785
148233.677664073
148413.3200039427
148569.1784839704
148702.3014527445
148813.6989166228
148904.3429952838
148975.1683435903
149027.0729983998
149060.9194774604
149077.5356601934
149077.7156788956
149062.220913933
149031.7811728037
148987.095828842
148928.8348460815
148857.6397741056
148774.124760488
148678.8776395405
148572.4610295115
148455.4133086903
148328.2494685973
148191.4620551876
148045.522224436
147890.8806959068
147727.9685083914
147557.1977715414
147378.9625624846
147193.6397876717
147001.5898745185
146803.1574651816
146598.6722159822
146388.4494735601
146172.7907838812
145951.9844763532
145726.3064313357
145496.0204614876
145261.3787306032
145022.6218080634
144779.9797321849
144533.6702459012
144283.9014030279
144030.865003192
143774.7479443404
143515.7050564239
143253.9077562192
142989.4388869881
142722.4996220449
142452.9719863159
142181.3647678848
141906.6369298313
141631.7834138327
141347.9511055817
141076.6066908441
119596.0809105302
117560.0200241807
115974.7020200604
115030.2860176016
114515.4659984235
114427.9706214447
114668.5007207312
115194.5570722282
115944.4876083809
116875.916132016
117946.1461299222
119121.5699234287
120372.1674377865
121673.4715465102
123004.7112925247
124348.9192176841
125692.0932302437
127022.9129443523
128332.2517129104
129612.8688372383
130859.0872184856
132066.5462802778
133231.9751930492
134353.0097536549
135428.0349929186
136456.0531693276
137436.5718968672
138369.511228917
139255.1264421222
140093.942691204
140886.6997191533
141634.3069748772
142337.8058367232
142998.3379944123
143617.1193453953
144195.4178526644
144734.5360025556
145235.7963834363
145700.5287417835
146130.0601742012
146525.7078380806
146888.771782867
147220.5293566969
147522.2319463202
147795.1018824389
148040.3293682714
148259.0708053398
148452.4480263758
148621.5473183426
148767.4186210977
148891.0756328845
148993.4962676654
149075.6228670361
149138.3624075238
149182.5871896557
149209.1357943851
149218.8138267851
149212.3946771453
149190.6203807084
149154.2026699099
149103.8240343155
149040.1386824098
148963.7734374563
148875.3286531437
148775.3792446193
148664.4757341941
148543.1451555922
148411.8918459782
148271.1983484079
148121.5264276235
147963.3179725103
147796.9957025641
147622.9638871131
147441.6092093184
147253.3015769921
147058.3947610829
146857.2270505977
146650.1220268531
146437.3891913925
146219.3244219161
145996.2104708497
145768.317712025
145535.9043895573
145299.2170717569
145058.4903799063
144813.9484218886
144565.8022079843
144314.2537677013
144059.4871967934
143801.6852833075
143540.9946174432
143277.5908965472
143011.5483331429
142743.0982726899
142472.1066223091
142199.1857483445
141923.1973681157
141647.543470291
141362.4303783926
141092.0027790893
123013.4536291062
120834.3702295212
119091.4864219914
117988.2891681071
117311.017868177
117062.8308920805
117145.1498241611
117518.0204174043
118120.7011851081
118911.9295109096
119849.447284504
120899.958194188
122033.4439547918
123225.3134639508
124454.5301760203
125703.7934552152
126958.7153413206
128207.566601476
129440.803222428
130650.7740046341
131831.4035999662
132977.9511896559
134086.7877628411
135155.2144627756
136181.3048058139
137163.7726357156
138101.8600350875
138995.2429817619
139843.9523147866
140648.3073956799
141408.8598187736
142126.3467552357
142801.6515970412
143435.771439022
144029.7900031842
144584.8541553628
145102.1552331399
145582.913911271
146028.3665338141
146439.7544431609
146818.3158811314
147165.278297447
147481.852280085
147769.2276953726
148028.5701040261
148261.0173582945
148467.6775087254
148649.6276283117
148807.9125777313
148943.5439692239
149057.4999796301
149150.7255456518
149224.1323765051
149278.5989811897
149314.9711881427
149334.062956341
149336.6569602157
149323.5051887702
149295.3297009175
149252.8235955707
149196.6519614079
149127.4527262452
149045.8374741954
148952.3922978619
148847.6787525814
148732.234832606
148606.5758182834
148471.195012391
148326.5645845958
148173.1365357118
148011.3435570632
147841.5996926116
147664.301016716
147479.8264674073
147288.5386250881
147090.7843016345
146886.8951418401
146677.1883608875
146461.9673258408
146241.5219639392
146016.1292013544
145786.0536952467
145551.5479951618
145312.853055215
145070.1978187481
144823.8009603388
144573.8678964372
144320.5959873908
144064.1642080476
143804.7531995111
143542.5058128166
143277.6029864358
143010.1167255078
142740.3019543954
142468.0140858528
142193.9404601974
141916.8439114771
141640.4657413638
141354.0717961708
141084.3821005782
126423.3546882189
124102.2868504626
122203.3551523126
120943.1746489755
120105.30311862
119698.1625856045
119623.7706305457
119844.6449582534
120300.9190998546
120952.4426735307
121757.4171961275
122682.8928676885
123698.8935969212
124780.747411953
125907.1948352957
127060.6394402321
128226.3398919771
129392.1881263014
130548.247224525
131686.474209584
132800.4114814922
133884.95141443
134936.116464865
135950.8800596319
136927.0100992286
137862.936555243
138757.6384134255
139610.5489210669
140421.4758085701
141190.5333095959
141918.0843963978
142604.6932128224
143251.0846521814
143858.110414982
144426.7207189419
144957.939953282
145452.8471277584
145912.55979607
146338.2194951435
146730.9803898885
147092.0005406387
147422.433543823
147723.4219248834
147996.0928420762
148241.5539774151
148460.8896645698
148655.1584699361
148825.3917060803
148972.5918676034
149097.7313001111
149201.7517477209
149285.5643010689
149350.0492176243
149396.0557928712
149424.4026815055
149435.8785107664
149431.2423340002
149411.2241182414
149376.5253710211
149327.8199838157
149265.7550919374
149190.9518397124
149104.0060944614
149005.4892129501
148895.9489320382
148775.9102885632
148645.876403296
148506.3291537786
148357.7299614512
148200.5207096462
148035.1245586566
147861.9465596408
147681.3742792875
147493.7785837728
147299.5143875556
147098.9212233254
146892.3238084228
146680.0327367573
146462.3450173198
146239.5444536086
146011.9020406639
145779.676693532
145543.1153637357
145302.4536047269
145057.9150534924
144809.7134693073
144558.0494543809
144303.1166142579
144045.0901282495
143784.1496765615
143520.4356598718
143254.1343584043
142985.3151016195
142714.2528749563
142440.7869716421
142165.66911223
141887.5502717045
141610.4918198237
141322.8267598849
141053.7769990882
129824.9484892612
127362.9095086301
125309.3934616237
123893.9587707976
122897.2764798997
122332.8786027747
122103.2600734389
122173.3377093943
122484.0836514023
122996.4541345092
123669.124682623
124469.5217988132
125367.7491733679
126339.0926788837
127362.107836933
128418.9397625743
129494.5259299601
130576.4065988171
131654.2760777033
132719.7199729212
133765.9141923841
134787.3967996089
135779.8523618719
136739.9349861538
137665.1125686415
138553.5352775446
139403.9225718326
140215.4674024702
140987.7553732573
141720.6960215881
142414.4640685109
143069.4505405498
143686.2211281745
144265.4812172104
144808.0466197937
145314.8182574237
145786.7616249632
146224.8899032697
146630.2486275322
147003.9035287669
147346.9311875353
147660.4101795811
147945.4138512759
148203.0054535205
148434.2336127977
148640.12807644
148821.6969157305
148979.9246968472
149115.7705979653
149230.1667671549
149324.0176168235
149398.1995749335
149453.5606902975
149490.9202861022
149511.0691001925
149514.7697471017
149502.7570228972
149475.7382465733
149434.3937786334
149379.3777565467
149311.3188352209
149230.8208535099
149138.4634698314
149034.8028559569
148920.3725069209
148795.6840835809
148661.2281330841
148517.4747111131
148364.8741124756
148203.8577359961
148034.8388572824
147858.2132047018
147674.3595416958
147483.6404001837
147286.4027758403
147082.978662412
146873.6855998058
146658.8273395783
146438.6943367081
146213.5641081625
145983.7016154622
145749.3600011027
145510.780679453
145268.1939860515
145021.818590456
144771.8637989195
144518.5260427894
144261.9957600844
144002.4449884481
143740.0528151746
143474.9575345129
143207.3498376277
142937.2954565813
142665.0852397865
142390.5391346506
142114.4643546053
141835.3962399687
141557.700887917
141268.8038973598
141000.3486596419
133217.4045583032
130615.3874121305
128408.7028984897
126839.681802251
125685.9236662532
124965.9259347832
124582.5500732405
124503.040458645
124669.1685243548
125042.9881152305
125583.6600479882
126259.010924377
127039.2562546623
127899.6768248825
128818.6786818857
129778.181883098
130762.8342036091
131759.8519443437
132758.5835031818
133750.2622866012
134727.7144071917
135685.1372994373
136617.8877977044
137522.3086445035
138395.5745204257
139235.5609072364
140040.7310089026
140810.0397708457
141542.852459942
142238.8750107314
142898.0942444626
143520.7279699557
144107.182336578
144658.0158519074
145173.9091178652
145655.638671176
146104.0555277473
146520.0673573365
146904.6224736298
147258.6970737752
147583.2851862901
147879.3892007192
148148.0121172818
148390.1521701392
148606.7978590254
148798.9233265723
148967.4851814433
149113.4202704801
149237.6434868937
149341.0458934274
149424.4937562738
149488.8280348844
149534.8637794234
149563.3896075172
149575.1676475748
149570.9338174945
149551.3980051594
149517.2442861468
149469.1313082165
149407.6928989813
149333.5386978831
149247.2547322619
149149.4039711093
149040.5269426412
148921.142465478
148791.7484161623
148652.8223810517
148504.8222250937
148348.1867678079
148183.336588217
148010.6747416323
147830.5872945221
147643.443874288
147449.5983742843
147249.3896173032
147043.1418451783
146831.1652219969
146613.7564768162
146391.1993780553
146163.7650663914
145931.7124202249
145695.2888086562
145454.7301733029
145210.261734793
144962.0973655619
144710.4420966568
144455.4884278571
144197.423900917
143936.4175688637
143672.6477595137
143406.2503827905
143137.4193306199
142866.2153126822
142592.9424074662
142317.3981865499
142040.4412800238
141760.4893696542
141482.2050472745
141192.1336970991
140924.2588116316
136599.8933655637
133858.8759082208
131500.3993283493
129779.4059035015
128470.2585019314
127596.2840944193
127060.6057315174
126832.7260680899
126855.1765412636
127091.0947665269
127500.1339164905
128050.5420404284
128712.6738420256
129461.8371039793
130276.3223956741
131137.8573259558
132030.8289694622
132942.1555625124
133860.8629455358
134777.8522716248
135685.6157433093
136578.0232154284
137450.114953044
138297.9312310338
139118.3601168579
139909.0074660466
140668.0841787651
141394.3100960834
142086.8320965031
142745.153746135
143369.0746459366
143958.6395773145
144514.0949615675
145035.8520691522
145524.4557822164
145980.5574310089
146404.8925555497
146798.2623690114
147161.5170042512
147495.5420718438
147801.2479712798
148079.5598200377
148331.4091810194
148557.7282367565
148759.4443854882
148937.4751757781
149092.7247530341
149226.0813107456
149338.414587066
149430.5736990833
149503.3859299725
149557.6559953102
149594.1652068898
149613.6707383001
149616.905402551
149604.5777753137
149577.3722256025
149535.9489856276
149480.9444093959
149412.9714673784
149332.6202744167
149240.4585652405
149137.0321524245
149022.8654622412
148898.4621930982
148764.3060182566
148620.8611702578
148468.572945297
148307.8683252518
148139.1567413199
147962.8307398702
147779.266455275
147588.8241063491
147391.8486715751
147188.6705333032
146979.6059410558
146764.9574785084
146545.0146779715
146320.0544751216
146090.3415301721
145856.1285766005
145617.657201598
145375.1579083982
145128.8508567102
144878.9452305138
144625.6419112182
144369.129504469
144109.5925301491
143847.1970809413
143582.1201353554
143314.494764019
143044.5169840926
142772.2411898958
142497.9828359712
142221.5153772217
141943.746364886
141662.9760208889
141384.1562580515
141092.980197424
140825.688084124
139971.5900294852
137092.5385242423
134583.613011825
132712.2147912137
131249.3204627393
130222.961312067
129536.4229874316
129161.3972958432
129041.1368248734
129139.8479383791
129417.6780589819
129843.3130731722
130387.2721043853
131024.9197454663
131734.4614414837
132497.4619778824
133298.0762287011
134122.9502481257
134960.8093992356
135802.2415566313
136639.4214350264
137465.904966236
138276.4268874853
139066.7339155214
139833.434586868
140573.8706352861
141286.0048819691
141968.3252848824
142619.762638044
143239.6195875262
143827.5093375329
144383.3041464499
144907.0909195495
145399.1334501472
145859.8403651314
146289.7371687144
146689.4431937289
147059.6523556634
147401.1157216316
147714.6273523392
148001.0129840936
148261.1194562707
148495.8059414496
148705.9375999581
148892.3797377797
149055.9923620679
149197.6262443174
149318.1200158962
149418.2973844483
149498.9647150948
149560.9095320625
149604.8995238696
149631.6815089587
149641.9805198716
149636.4993940348
149615.9187225031
149580.8967375699
149532.0692414735
149470.0497350032
149395.4297927325
149308.7794891008
149210.6477806131
149101.5628696728
148982.0326515746
148852.5452930686
148713.5698660566
148565.5568704007
148408.9386727836
148244.130058334
148071.5289453513
147891.5170278005
147704.4602154863
147510.7090683718
147310.5994172007
147104.4529833549
146892.577820116
146675.2687407961
146452.8079067175
146225.4652755841
145993.4989187595
145757.1553403897
145516.6702760687
145272.2687606366
145024.1658842198
144772.5660722537
144517.6660226151
144259.6504851495
143998.7007133347
143734.9795902553
143468.6624230528
143199.8786666382
142928.8256843474
142655.5504403732
142380.3785506278
142103.0581966428
141824.5445053336
141543.02118286
141263.7231250645
140971.5188149912
140704.8210683409
143331.6730674696
140315.5450856194
137657.4851686904
135637.2098911946
134022.1736262272
132844.9929049796
132009.0248642099
131488.0845625147
131226.105258059
131188.3439298203
131335.4421616663
131636.537303145
132062.3342584869
132588.2802003854
133192.5238822593
133856.4958436872
134564.145331579
135301.8705936601
136058.1183149411
136823.1820094169
137588.9351145841
138348.6333305658
139096.7171181589
139828.6486920732
140540.7643733844
141230.1477205212
141894.5181375758
142532.1350988926
143141.7157142414
143722.3635063443
144273.5065721401
144794.8453379044
145286.3074477691
145748.0091892737
146180.2226282869
146583.3469651337
146957.884763498
147304.4219321701
147623.6096210002
147916.1494566642
148182.7816356412
148424.2738055678
148641.4118112214
148834.9928810785
149005.8193258247
149154.6926860368
149282.409458993
149389.7578812481
149477.5148266327
149546.4430965677
149597.2896659267
149630.7844544968
149647.6390816305
149648.5457574366
149634.1766874716
149605.1838472192
149562.1987278954
149505.8321293677
149436.6741603132
149355.2944837991
149262.2426295279
149158.048283061
149043.2215677433
148918.2534071546
148783.6160241626
148639.7635002393
148487.1322312927
148326.1413068278
148157.1930045087
147980.6734418392
147796.9531594962
147606.3875251681
147409.317147506
147206.0684623902
146996.9543043917
146782.2743155076
146562.3153561535
146337.3520661636
146107.6472791245
145873.4523327065
145635.0074044119
145392.5422872712
145146.276428545
144896.4197886585
144643.1719860272
144386.7253296407
144127.260492457
143864.9554227153
143599.9692884552
143332.4754287801
143062.5991447855
142790.5384973678
142516.3322794434
142240.3154527502
141962.21025287
141683.018413911
141400.8084760728
141121.0918581056
140827.9398544233
140561.8530504985
146679.3228454367
143527.072368687
140721.1699456034
138553.5098599347
136787.9025293005
135461.4388948188
134477.4616750365
133811.8442502984
133409.1608949775
133235.700152699
133252.5948125112
133429.443313727
133737.1547769756
134151.2825556594
134649.944502291
135214.4634252966
135828.6083034788
136478.5528197368
137152.4860643635
137840.4259599521
138533.9608031469
139226.0595515154
139910.879623274
140583.6081661756
141240.3170726525
141877.8378555927
142493.6512186486
143085.7918552608
143652.7660499005
144193.4802498961
144707.178891175
145193.3915102626
145651.8869301851
146082.6340526621
146485.7683209654
146861.5623445359
147210.401416491
147532.7628230671
147829.1971043244
148100.3126700185
148346.7633533682
148569.2368016028
148768.4446979815
148945.1154448839
149099.9874627278
149233.802987369
149347.3034341209
149441.2258297197
149516.299408093
149573.2426315557
149612.761180093
149635.546489415
149642.2742924089
149633.6033118432
149610.174479685
149572.6105419438
149521.515662288
149457.4750738563
149381.0549521339
149292.802540663
149193.2463497797
149082.8963358384
148962.2440970525
148831.7631589649
148691.9093943597
148543.1214995724
148385.8213824245
148220.4144807925
148047.2902077838
147866.8225633696
147679.3706705016
147485.279110794
147284.8782846186
147078.4849782815
146866.4029149706
146648.9231196504
146426.3242978367
146198.873398313
145966.8259964807
145730.4265652763
145489.9088113208
145245.4964973197
144997.403374294
144745.8340633291
144490.9832376859
144233.0387703704
143972.1768893524
143708.571990699
143442.3792488764
143173.7695808094
142902.8637104232
142629.8598933913
142354.7882406407
142077.992525259
141799.168717341
141519.3644482698
141236.5346837287
140956.4606942011
140662.4440137692
140396.9876805183
150013.7246139581
146726.3041026726
143773.8313951898
141460.2487084592
139545.6122737848
138071.3823909775
136940.8074800378
136131.7566903557
135589.4059267431
135281.0546678594
135168.3219099852
135221.2739693121
135411.0396327626
135713.2996093371
136106.1645722122
136570.8738675129
137091.040023153
137652.6347393558
138243.6100806085
138853.7265176149
139474.3029092646
140098.0350239901
140718.8087883227
141331.5458761626
141932.0615778946
142516.9417269418
143083.4334071351
143629.3504656195