/*--------------------------------*- C++ -*----------------------------------*\
| =========                 |                                                 |
| \\      /  F ield         | foam-extend: Open Source CFD                    |
|  \\    /   O peration     | Version:     4.1                                |
|   \\  /    A nd           | Web:         http://www.foam-extend.org         |
|    \\/     M anipulation  |                                                 |
\*---------------------------------------------------------------------------*/
FoamFile
{
    version     2.0;
    format      ascii;
    class       volVectorField;
    location    "1";
    object      D;
}
// * * * * * * * * * * * * * * * * * * * * * * * * * * * * * * * * * * * * * //

dimensions      [0 1 0 0 0 0 0];

internalField   nonuniform List<vector> 
100000
(
(5.74583e-07 -2.38326e-07 -0.0410771)
(5.699e-07 -2.35125e-07 -0.0354845)
(5.65423e-07 -2.32072e-07 -0.0297818)
(5.61145e-07 -2.29174e-07 -0.0251724)
(5.57057e-07 -2.26417e-07 -0.0217264)
(5.53151e-07 -2.23799e-07 -0.019087)
(5.4942e-07 -2.2131e-07 -0.0166232)
(5.45855e-07 -2.18945e-07 -0.0142725)
(5.42451e-07 -2.16699e-07 -0.0117517)
(5.39199e-07 -2.14566e-07 -0.00882687)
(5.36094e-07 -2.12541e-07 -0.00645946)
(5.33131e-07 -2.10619e-07 -0.00446629)
(5.30302e-07 -2.08796e-07 -0.00258597)
(5.27603e-07 -2.07066e-07 -0.000802882)
(5.25029e-07 -2.05427e-07 0.000754427)
(5.22575e-07 -2.03873e-07 0.00213302)
(5.20236e-07 -2.02402e-07 0.00338749)
(5.18008e-07 -2.0101e-07 0.0042502)
(5.15886e-07 -1.99693e-07 0.00473098)
(5.13866e-07 -1.98448e-07 0.00456118)
(5.11945e-07 -1.97272e-07 0.00433205)
(5.10119e-07 -1.96162e-07 0.00434848)
(5.08385e-07 -1.95116e-07 0.00439382)
(5.06738e-07 -1.94131e-07 0.00443513)
(5.05177e-07 -1.93203e-07 0.00447293)
(5.03697e-07 -1.92332e-07 0.0046803)
(5.02296e-07 -1.91515e-07 0.00497961)
(5.00972e-07 -1.90749e-07 0.00525682)
(4.9972e-07 -1.90032e-07 0.00551284)
(4.9854e-07 -1.89363e-07 0.00574846)
(4.97428e-07 -1.8874e-07 0.00596455)
(4.96383e-07 -1.8816e-07 0.00549655)
(4.95401e-07 -1.87623e-07 0.00507506)
(4.9448e-07 -1.87125e-07 0.00487076)
(4.93619e-07 -1.86667e-07 0.00467826)
(4.92816e-07 -1.86245e-07 0.00449702)
(4.92069e-07 -1.8586e-07 0.00432695)
(4.91376e-07 -1.85509e-07 0.00416786)
(4.90734e-07 -1.85192e-07 0.0040194)
(4.90144e-07 -1.84906e-07 0.00388126)
(4.89602e-07 -1.84651e-07 0.0037533)
(4.89107e-07 -1.84425e-07 0.0036353)
(4.88658e-07 -1.84228e-07 0.00352695)
(4.88254e-07 -1.84059e-07 0.00342817)
(4.87892e-07 -1.83915e-07 0.00333893)
(4.87572e-07 -1.83797e-07 0.00326029)
(4.87292e-07 -1.83704e-07 0.00319052)
(4.87051e-07 -1.83634e-07 0.00312947)
(4.86849e-07 -1.83586e-07 0.00307703)
(4.86682e-07 -1.83561e-07 0.00303293)
(4.86552e-07 -1.83556e-07 0.00299708)
(4.86456e-07 -1.83572e-07 0.00296936)
(4.86393e-07 -1.83607e-07 0.00294965)
(4.86363e-07 -1.83661e-07 0.00293773)
(4.86365e-07 -1.83733e-07 0.0029335)
(4.86397e-07 -1.83822e-07 0.00293694)
(4.86459e-07 -1.83928e-07 0.00294776)
(4.8655e-07 -1.8405e-07 0.00296588)
(4.86668e-07 -1.84188e-07 0.00299111)
(4.86814e-07 -1.84341e-07 0.00302341)
(4.86986e-07 -1.84509e-07 0.00306252)
(4.87184e-07 -1.8469e-07 0.00310827)
(4.87407e-07 -1.84885e-07 0.00323122)
(4.87654e-07 -1.85092e-07 0.00344754)
(4.87924e-07 -1.85312e-07 0.0036769)
(4.88217e-07 -1.85544e-07 0.0039189)
(4.88533e-07 -1.85788e-07 0.00417327)
(4.8887e-07 -1.86043e-07 0.00443983)
(4.89228e-07 -1.86308e-07 0.00471815)
(4.89606e-07 -1.86584e-07 0.00500795)
(4.90005e-07 -1.86869e-07 0.00489024)
(4.90422e-07 -1.87164e-07 0.00472109)
(4.90858e-07 -1.87469e-07 0.0046945)
(4.91313e-07 -1.87782e-07 0.00466386)
(4.91785e-07 -1.88104e-07 0.00469056)
(4.92274e-07 -1.88434e-07 0.0047532)
(4.9278e-07 -1.88771e-07 0.00481752)
(4.93303e-07 -1.89117e-07 0.0048835)
(4.93841e-07 -1.89469e-07 0.004951)
(4.94395e-07 -1.89829e-07 0.00501999)
(4.94963e-07 -1.90195e-07 0.00509056)
(4.95546e-07 -1.90568e-07 0.00516271)
(4.96144e-07 -1.90947e-07 0.00523641)
(4.96755e-07 -1.91332e-07 0.00531166)
(4.97379e-07 -1.91722e-07 0.00518867)
(4.98017e-07 -1.92118e-07 0.00507677)
(4.98668e-07 -1.92519e-07 0.00476538)
(4.9933e-07 -1.92926e-07 0.00432444)
(5.00005e-07 -1.93337e-07 0.00383057)
(5.00692e-07 -1.93752e-07 0.0032723)
(5.01389e-07 -1.94172e-07 0.00270917)
(5.02098e-07 -1.94596e-07 0.00214028)
(5.02818e-07 -1.95024e-07 0.00155859)
(5.03548e-07 -1.95456e-07 0.000926377)
(5.04289e-07 -1.95892e-07 0.000182292)
(5.05039e-07 -1.9633e-07 -0.000564383)
(5.05799e-07 -1.96773e-07 -0.00131462)
(5.06569e-07 -1.97218e-07 -0.00206102)
(5.07348e-07 -1.97667e-07 -0.00281281)
(5.08137e-07 -1.98118e-07 -0.00353534)
(5.69922e-07 -2.40254e-07 -0.0441875)
(5.65189e-07 -2.37118e-07 -0.0390898)
(5.60666e-07 -2.34126e-07 -0.0333179)
(5.56343e-07 -2.31287e-07 -0.0285356)
(5.52213e-07 -2.28586e-07 -0.0250527)
(5.48267e-07 -2.2602e-07 -0.022117)
(5.44497e-07 -2.23582e-07 -0.0195924)
(5.40896e-07 -2.21266e-07 -0.0172482)
(5.37456e-07 -2.19065e-07 -0.0155302)
(5.34172e-07 -2.16977e-07 -0.0132437)
(5.31035e-07 -2.14993e-07 -0.0105514)
(5.28042e-07 -2.13112e-07 -0.00796773)
(5.25184e-07 -2.11326e-07 -0.00581333)
(5.22458e-07 -2.09634e-07 -0.00378755)
(5.19858e-07 -2.08029e-07 -0.00187527)
(5.17379e-07 -2.06509e-07 -9.03802e-05)
(5.15016e-07 -2.0507e-07 0.000852215)
(5.12765e-07 -2.03708e-07 0.00141672)
(5.10622e-07 -2.0242e-07 0.00193529)
(5.08581e-07 -2.01203e-07 0.00242099)
(5.06641e-07 -2.00054e-07 0.00289434)
(5.04796e-07 -1.9897e-07 0.00297553)
(5.03043e-07 -1.97949e-07 0.00287644)
(5.01379e-07 -1.96987e-07 0.00274185)
(4.998e-07 -1.96083e-07 0.00261632)
(4.98305e-07 -1.95233e-07 0.0027522)
(4.96888e-07 -1.94437e-07 0.00304389)
(4.95549e-07 -1.93691e-07 0.00331605)
(4.94283e-07 -1.92993e-07 0.00289133)
(4.9309e-07 -1.92342e-07 0.00235087)
(4.91964e-07 -1.91737e-07 0.00184499)
(4.90907e-07 -1.91173e-07 0.00136877)
(4.89911e-07 -1.90653e-07 0.000920971)
(4.88977e-07 -1.90172e-07 0.000505559)
(4.88106e-07 -1.89728e-07 0.00012322)
(4.87292e-07 -1.89321e-07 -0.000229736)
(4.86534e-07 -1.88949e-07 -0.000553058)
(4.85831e-07 -1.88612e-07 -0.000838843)
(4.85179e-07 -1.88307e-07 -0.000998494)
(4.84579e-07 -1.88034e-07 -0.00114739)
(4.84027e-07 -1.87791e-07 -0.00128572)
(4.83523e-07 -1.87577e-07 -0.00141382)
(4.83065e-07 -1.87391e-07 -0.0015326)
(4.82652e-07 -1.87232e-07 -0.00168405)
(4.82282e-07 -1.87099e-07 -0.00181808)
(4.81954e-07 -1.86991e-07 -0.00192836)
(4.81666e-07 -1.86907e-07 -0.00202305)
(4.81417e-07 -1.86846e-07 -0.00210407)
(4.81206e-07 -1.86808e-07 -0.00217167)
(4.81033e-07 -1.86791e-07 -0.00222628)
(4.80895e-07 -1.86795e-07 -0.00226781)
(4.80791e-07 -1.86818e-07 -0.00229669)
(4.80722e-07 -1.86861e-07 -0.00231171)
(4.80685e-07 -1.86923e-07 -0.00230589)
(4.80679e-07 -1.87002e-07 -0.00228717)
(4.80705e-07 -1.87099e-07 -0.00221037)
(4.8076e-07 -1.87212e-07 -0.00211791)
(4.80844e-07 -1.87341e-07 -0.00202372)
(4.80956e-07 -1.87485e-07 -0.00191501)
(4.81095e-07 -1.87644e-07 -0.00179213)
(4.81261e-07 -1.87818e-07 -0.00165553)
(4.81452e-07 -1.88005e-07 -0.00150749)
(4.81669e-07 -1.88206e-07 -0.00135017)
(4.81909e-07 -1.88419e-07 -0.00118056)
(4.82174e-07 -1.88645e-07 -0.000998797)
(4.82461e-07 -1.88882e-07 -0.000799716)
(4.8277e-07 -1.89131e-07 -0.000588889)
(4.83101e-07 -1.89391e-07 -0.000366406)
(4.83453e-07 -1.89661e-07 -0.00013279)
(4.83825e-07 -1.89942e-07 0.000111641)
(4.84218e-07 -1.90232e-07 0.000541893)
(4.84629e-07 -1.90532e-07 0.00102123)
(4.85059e-07 -1.90841e-07 0.00151573)
(4.85508e-07 -1.91159e-07 0.0020248)
(4.85974e-07 -1.91485e-07 0.00254813)
(4.86457e-07 -1.91819e-07 0.00284508)
(4.86957e-07 -1.92161e-07 0.00290834)
(4.87474e-07 -1.92511e-07 0.00297332)
(4.88006e-07 -1.92868e-07 0.00303991)
(4.88554e-07 -1.93231e-07 0.00310812)
(4.89116e-07 -1.93602e-07 0.00307389)
(4.89694e-07 -1.93978e-07 0.00284038)
(4.90285e-07 -1.94361e-07 0.00260442)
(4.9089e-07 -1.9475e-07 0.00236621)
(4.91509e-07 -1.95144e-07 0.00214233)
(4.9214e-07 -1.95544e-07 0.00190234)
(4.92785e-07 -1.95949e-07 0.0016457)
(4.93442e-07 -1.96359e-07 0.00127031)
(4.9411e-07 -1.96773e-07 0.000630248)
(4.94791e-07 -1.97192e-07 -1.48891e-05)
(4.95482e-07 -1.97616e-07 -0.000664684)
(4.96185e-07 -1.98043e-07 -0.00131899)
(4.96899e-07 -1.98475e-07 -0.00206017)
(4.97623e-07 -1.9891e-07 -0.00284923)
(4.98357e-07 -1.99349e-07 -0.00364089)
(4.99101e-07 -1.99792e-07 -0.0044373)
(4.99854e-07 -2.00238e-07 -0.00523306)
(5.00618e-07 -2.00686e-07 -0.00616122)
(5.01389e-07 -2.01138e-07 -0.00711825)
(5.02171e-07 -2.01593e-07 -0.00806611)
(5.65227e-07 -2.4217e-07 -0.0470521)
(5.60447e-07 -2.391e-07 -0.0417428)
(5.55878e-07 -2.3617e-07 -0.0366037)
(5.51512e-07 -2.3339e-07 -0.0317368)
(5.47341e-07 -2.30746e-07 -0.028547)
(5.43356e-07 -2.28235e-07 -0.0253257)
(5.39549e-07 -2.25848e-07 -0.0230416)
(5.35913e-07 -2.23582e-07 -0.020821)
(5.3244e-07 -2.21429e-07 -0.0186375)
(5.29123e-07 -2.19385e-07 -0.0171354)
(5.25957e-07 -2.17445e-07 -0.0146551)
(5.22934e-07 -2.15604e-07 -0.011916)
(5.20049e-07 -2.13858e-07 -0.00932878)
(5.17297e-07 -2.12202e-07 -0.00688242)
(5.14672e-07 -2.10634e-07 -0.00496491)
(5.12169e-07 -2.09148e-07 -0.00369826)
(5.09783e-07 -2.07742e-07 -0.00255418)
(5.0751e-07 -2.06411e-07 -0.00165093)
(5.05345e-07 -2.05153e-07 -0.0011517)
(5.03285e-07 -2.03965e-07 -0.00069137)
(5.01325e-07 -2.02843e-07 -0.000254628)
(4.99462e-07 -2.01786e-07 0.000230985)
(4.97691e-07 -2.00789e-07 0.000684817)
(4.9601e-07 -1.99852e-07 0.00105148)
(4.94416e-07 -1.98971e-07 0.000962513)
(4.92905e-07 -1.98143e-07 0.000395995)
(4.91473e-07 -1.97368e-07 -0.000422323)
(4.90119e-07 -1.96642e-07 -0.00126547)
(4.8884e-07 -1.95964e-07 -0.00206448)
(4.87633e-07 -1.95333e-07 -0.00281526)
(4.86495e-07 -1.94745e-07 -0.00351958)
(4.85424e-07 -1.94199e-07 -0.00417895)
(4.84416e-07 -1.93694e-07 -0.00479374)
(4.83473e-07 -1.93229e-07 -0.0050049)
(4.8259e-07 -1.92801e-07 -0.00518597)
(4.81765e-07 -1.92409e-07 -0.00535844)
(4.80997e-07 -1.92052e-07 -0.00552236)
(4.80283e-07 -1.91728e-07 -0.00567808)
(4.79622e-07 -1.91436e-07 -0.00582579)
(4.79012e-07 -1.91176e-07 -0.00596562)
(4.78451e-07 -1.90945e-07 -0.00609784)
(4.77938e-07 -1.90742e-07 -0.00622261)
(4.77471e-07 -1.90568e-07 -0.00634012)
(4.7705e-07 -1.9042e-07 -0.00645174)
(4.76671e-07 -1.90297e-07 -0.00655731)
(4.76335e-07 -1.90199e-07 -0.006656)
(4.76039e-07 -1.90125e-07 -0.00674798)
(4.75782e-07 -1.90074e-07 -0.0067699)
(4.75564e-07 -1.90045e-07 -0.00678363)
(4.75383e-07 -1.90036e-07 -0.00679316)
(4.75238e-07 -1.90049e-07 -0.00679863)
(4.75127e-07 -1.90081e-07 -0.00680015)
(4.75051e-07 -1.90132e-07 -0.00680467)
(4.75007e-07 -1.90201e-07 -0.00682381)
(4.74994e-07 -1.90288e-07 -0.00684114)
(4.75013e-07 -1.90392e-07 -0.00685682)
(4.75061e-07 -1.90512e-07 -0.0068708)
(4.75139e-07 -1.90648e-07 -0.00688323)
(4.75244e-07 -1.90799e-07 -0.00689414)
(4.75377e-07 -1.90964e-07 -0.00690352)
(4.75537e-07 -1.91144e-07 -0.00691145)
(4.75722e-07 -1.91337e-07 -0.00691787)
(4.75932e-07 -1.91544e-07 -0.0069229)
(4.76167e-07 -1.91763e-07 -0.00692654)
(4.76425e-07 -1.91994e-07 -0.00692881)
(4.76706e-07 -1.92237e-07 -0.00678929)
(4.77009e-07 -1.92491e-07 -0.00644699)
(4.77334e-07 -1.92756e-07 -0.00602388)
(4.7768e-07 -1.93032e-07 -0.00557448)
(4.78046e-07 -1.93317e-07 -0.00510529)
(4.78432e-07 -1.93613e-07 -0.00461938)
(4.78838e-07 -1.93917e-07 -0.00411721)
(4.79262e-07 -1.94231e-07 -0.00359923)
(4.79705e-07 -1.94553e-07 -0.00306597)
(4.80165e-07 -1.94884e-07 -0.00269115)
(4.80642e-07 -1.95222e-07 -0.00261213)
(4.81137e-07 -1.95569e-07 -0.00252791)
(4.81647e-07 -1.95923e-07 -0.00243869)
(4.82173e-07 -1.96283e-07 -0.00234459)
(4.82715e-07 -1.96651e-07 -0.00226141)
(4.83272e-07 -1.97025e-07 -0.00218989)
(4.83843e-07 -1.97406e-07 -0.00206372)
(4.84429e-07 -1.97793e-07 -0.00218813)
(4.85028e-07 -1.98185e-07 -0.00261069)
(4.8564e-07 -1.98583e-07 -0.00302241)
(4.86266e-07 -1.98987e-07 -0.00343749)
(4.86904e-07 -1.99395e-07 -0.00389513)
(4.87555e-07 -1.99809e-07 -0.00444459)
(4.88217e-07 -2.00227e-07 -0.00499763)
(4.88891e-07 -2.0065e-07 -0.0055541)
(4.89577e-07 -2.01077e-07 -0.00614142)
(4.90274e-07 -2.01508e-07 -0.00680262)
(4.90981e-07 -2.01943e-07 -0.00776439)
(4.91698e-07 -2.02382e-07 -0.00873281)
(4.92426e-07 -2.02824e-07 -0.00970397)
(4.93164e-07 -2.0327e-07 -0.0106829)
(4.93911e-07 -2.03719e-07 -0.0116579)
(4.94668e-07 -2.04171e-07 -0.0126418)
(4.95433e-07 -2.04627e-07 -0.0136243)
(4.96207e-07 -2.05084e-07 -0.0146155)
(5.60499e-07 -2.44071e-07 -0.0496845)
(5.55673e-07 -2.41069e-07 -0.0445265)
(5.5106e-07 -2.38203e-07 -0.0396362)
(5.46653e-07 -2.35485e-07 -0.0352428)
(5.42443e-07 -2.32899e-07 -0.0320731)
(5.3842e-07 -2.30443e-07 -0.0288677)
(5.34578e-07 -2.28109e-07 -0.0262337)
(5.30908e-07 -2.25893e-07 -0.0238386)
(5.27403e-07 -2.23788e-07 -0.0216094)
(5.24055e-07 -2.2179e-07 -0.0198969)
(5.2086e-07 -2.19894e-07 -0.0183533)
(5.17809e-07 -2.18095e-07 -0.0159585)
(5.14898e-07 -2.16389e-07 -0.0134684)
(5.1212e-07 -2.14772e-07 -0.0118066)
(5.09471e-07 -2.1324e-07 -0.0102492)
(5.06945e-07 -2.11789e-07 -0.00878519)
(5.04537e-07 -2.10416e-07 -0.00740904)
(5.02243e-07 -2.09118e-07 -0.00614188)
(5.00058e-07 -2.07891e-07 -0.00507967)
(4.97978e-07 -2.06732e-07 -0.00415687)
(4.96e-07 -2.05638e-07 -0.0039399)
(4.94119e-07 -2.04607e-07 -0.0039682)
(4.92331e-07 -2.03637e-07 -0.00451099)
(4.90634e-07 -2.02724e-07 -0.00485424)
(4.89024e-07 -2.01866e-07 -0.00518394)
(4.87498e-07 -2.01062e-07 -0.00550101)
(4.86052e-07 -2.00308e-07 -0.00539794)
(4.84684e-07 -1.99603e-07 -0.00562326)
(4.83392e-07 -1.98945e-07 -0.00592568)
(4.82171e-07 -1.98332e-07 -0.00610709)
(4.81021e-07 -1.97763e-07 -0.00617175)
(4.79938e-07 -1.97235e-07 -0.00623641)
(4.7892e-07 -1.96747e-07 -0.00630102)
(4.77965e-07 -1.96298e-07 -0.00636557)
(4.77071e-07 -1.95885e-07 -0.00643005)
(4.76236e-07 -1.95509e-07 -0.00649442)
(4.75457e-07 -1.95166e-07 -0.00655864)
(4.74734e-07 -1.94856e-07 -0.00662268)
(4.74063e-07 -1.94578e-07 -0.00668652)
(4.73444e-07 -1.9433e-07 -0.00675013)
(4.72874e-07 -1.94112e-07 -0.00681353)
(4.72352e-07 -1.93921e-07 -0.00687663)
(4.71877e-07 -1.93758e-07 -0.00693947)
(4.71447e-07 -1.93621e-07 -0.00700194)
(4.7106e-07 -1.93509e-07 -0.00706412)
(4.70716e-07 -1.93422e-07 -0.00712588)
(4.70412e-07 -1.93358e-07 -0.00718731)
(4.70148e-07 -1.93316e-07 -0.00724831)
(4.69923e-07 -1.93296e-07 -0.00730897)
(4.69734e-07 -1.93297e-07 -0.00736923)
(4.69582e-07 -1.93318e-07 -0.00743221)
(4.69464e-07 -1.93358e-07 -0.00749732)
(4.69381e-07 -1.93417e-07 -0.00756199)
(4.6933e-07 -1.93494e-07 -0.00762651)
(4.69311e-07 -1.93589e-07 -0.00769055)
(4.69323e-07 -1.937e-07 -0.0077544)
(4.69365e-07 -1.93827e-07 -0.00781787)
(4.69436e-07 -1.9397e-07 -0.00788103)
(4.69535e-07 -1.94128e-07 -0.00794398)
(4.69662e-07 -1.943e-07 -0.00794262)
(4.69815e-07 -1.94486e-07 -0.00784863)
(4.69994e-07 -1.94685e-07 -0.00774792)
(4.70198e-07 -1.94898e-07 -0.00764058)
(4.70426e-07 -1.95123e-07 -0.00752688)
(4.70678e-07 -1.95359e-07 -0.00740701)
(4.70953e-07 -1.95608e-07 -0.00728111)
(4.7125e-07 -1.95867e-07 -0.00714939)
(4.71569e-07 -1.96138e-07 -0.00702139)
(4.71909e-07 -1.96418e-07 -0.0073136)
(4.7227e-07 -1.96709e-07 -0.00761229)
(4.7265e-07 -1.97009e-07 -0.00790358)
(4.7305e-07 -1.97319e-07 -0.00819897)
(4.73468e-07 -1.97637e-07 -0.00850022)
(4.73905e-07 -1.97964e-07 -0.00881147)
(4.74359e-07 -1.98299e-07 -0.0092437)
(4.7483e-07 -1.98642e-07 -0.00967277)
(4.75319e-07 -1.98992e-07 -0.00986514)
(4.75823e-07 -1.9935e-07 -0.00998359)
(4.76344e-07 -1.99715e-07 -0.0101003)
(4.76879e-07 -2.00087e-07 -0.0102154)
(4.7743e-07 -2.00466e-07 -0.0103285)
(4.77996e-07 -2.0085e-07 -0.0104399)
(4.78575e-07 -2.01241e-07 -0.0105508)
(4.79168e-07 -2.01637e-07 -0.0106609)
(4.79774e-07 -2.02039e-07 -0.0107692)
(4.80394e-07 -2.02446e-07 -0.0108761)
(4.81026e-07 -2.02858e-07 -0.010981)
(4.81671e-07 -2.03276e-07 -0.0110952)
(4.82327e-07 -2.03697e-07 -0.0116666)
(4.82995e-07 -2.04124e-07 -0.0123811)
(4.83675e-07 -2.04554e-07 -0.0131288)
(4.84365e-07 -2.04989e-07 -0.0138815)
(4.85066e-07 -2.05428e-07 -0.0146498)
(4.85777e-07 -2.0587e-07 -0.015479)
(4.86499e-07 -2.06316e-07 -0.0163649)
(4.8723e-07 -2.06765e-07 -0.017257)
(4.8797e-07 -2.07218e-07 -0.0183335)
(4.8872e-07 -2.07673e-07 -0.019346)
(4.89479e-07 -2.08132e-07 -0.020349)
(4.90247e-07 -2.08592e-07 -0.0213574)
(5.55738e-07 -2.45959e-07 -0.0528133)
(5.50868e-07 -2.43025e-07 -0.047516)
(5.46213e-07 -2.40225e-07 -0.0426575)
(5.41766e-07 -2.37569e-07 -0.0385404)
(5.37518e-07 -2.35043e-07 -0.0353607)
(5.3346e-07 -2.32643e-07 -0.0322697)
(5.29584e-07 -2.30364e-07 -0.0293996)
(5.25881e-07 -2.28199e-07 -0.0270495)
(5.22345e-07 -2.26144e-07 -0.0247287)
(5.18968e-07 -2.24193e-07 -0.0226532)
(5.15744e-07 -2.22341e-07 -0.0211439)
(5.12667e-07 -2.20585e-07 -0.020107)
(5.0973e-07 -2.1892e-07 -0.018991)
(5.06928e-07 -2.17342e-07 -0.0173677)
(5.04255e-07 -2.15847e-07 -0.0160288)
(5.01707e-07 -2.14432e-07 -0.0149382)
(4.99278e-07 -2.13094e-07 -0.0135903)
(4.96964e-07 -2.11828e-07 -0.0121219)
(4.9476e-07 -2.10632e-07 -0.0110107)
(4.92661e-07 -2.09503e-07 -0.010986)
(4.90665e-07 -2.08438e-07 -0.0109976)
(4.88767e-07 -2.07435e-07 -0.0110248)
(4.86963e-07 -2.0649e-07 -0.0107438)
(4.85251e-07 -2.05602e-07 -0.0101001)
(4.83625e-07 -2.04769e-07 -0.00949579)
(4.82085e-07 -2.03987e-07 -0.00893874)
(4.80625e-07 -2.03256e-07 -0.00844722)
(4.79244e-07 -2.02572e-07 -0.00810316)
(4.77938e-07 -2.01935e-07 -0.00779126)
(4.76706e-07 -2.01342e-07 -0.00750864)
(4.75543e-07 -2.00791e-07 -0.00725419)
(4.74449e-07 -2.00281e-07 -0.00706698)
(4.7342e-07 -1.9981e-07 -0.00728699)
(4.72454e-07 -1.99378e-07 -0.00748964)
(4.7155e-07 -1.98981e-07 -0.00767564)
(4.70705e-07 -1.9862e-07 -0.00784553)
(4.69916e-07 -1.98292e-07 -0.00793786)
(4.69183e-07 -1.97996e-07 -0.00800935)
(4.68503e-07 -1.97731e-07 -0.00808068)
(4.67875e-07 -1.97497e-07 -0.00815179)
(4.67297e-07 -1.97291e-07 -0.00822269)
(4.66767e-07 -1.97113e-07 -0.00829329)
(4.66283e-07 -1.96961e-07 -0.00836365)
(4.65845e-07 -1.96836e-07 -0.00843365)
(4.6545e-07 -1.96735e-07 -0.00850337)
(4.65098e-07 -1.96658e-07 -0.00857266)
(4.64787e-07 -1.96604e-07 -0.00864164)
(4.64516e-07 -1.96572e-07 -0.00871018)
(4.64283e-07 -1.96561e-07 -0.00877834)
(4.64087e-07 -1.96571e-07 -0.00881247)
(4.63928e-07 -1.96601e-07 -0.00879753)
(4.63804e-07 -1.9665e-07 -0.00877319)
(4.63713e-07 -1.96717e-07 -0.00873978)
(4.63656e-07 -1.96802e-07 -0.00868908)
(4.6363e-07 -1.96904e-07 -0.00863015)
(4.63636e-07 -1.97023e-07 -0.008563)
(4.63671e-07 -1.97157e-07 -0.00848799)
(4.63736e-07 -1.97307e-07 -0.00840539)
(4.63829e-07 -1.97471e-07 -0.00831529)
(4.63949e-07 -1.9765e-07 -0.00826699)
(4.64096e-07 -1.97842e-07 -0.00857025)
(4.64269e-07 -1.98048e-07 -0.00888736)
(4.64467e-07 -1.98267e-07 -0.00921591)
(4.64689e-07 -1.98497e-07 -0.00955535)
(4.64935e-07 -1.9874e-07 -0.00990531)
(4.65204e-07 -1.98994e-07 -0.0102655)
(4.65496e-07 -1.99259e-07 -0.0106155)
(4.65809e-07 -1.99534e-07 -0.0109545)
(4.66143e-07 -1.9982e-07 -0.0113029)
(4.66497e-07 -2.00116e-07 -0.0116868)
(4.66872e-07 -2.00421e-07 -0.0120871)
(4.67265e-07 -2.00735e-07 -0.0124967)
(4.67678e-07 -2.01058e-07 -0.0129151)
(4.68108e-07 -2.0139e-07 -0.0133421)
(4.68557e-07 -2.01729e-07 -0.0137773)
(4.69022e-07 -2.02077e-07 -0.0142204)
(4.69505e-07 -2.02432e-07 -0.0146711)
(4.70003e-07 -2.02794e-07 -0.015129)
(4.70518e-07 -2.03163e-07 -0.0155939)
(4.71048e-07 -2.03539e-07 -0.0160657)
(4.71593e-07 -2.03921e-07 -0.016544)
(4.72152e-07 -2.0431e-07 -0.0170159)
(4.72725e-07 -2.04704e-07 -0.0174773)
(4.73313e-07 -2.05104e-07 -0.0179438)
(4.73913e-07 -2.0551e-07 -0.0184154)
(4.74526e-07 -2.05921e-07 -0.0185571)
(4.75153e-07 -2.06337e-07 -0.0186472)
(4.75791e-07 -2.06758e-07 -0.0188235)
(4.76441e-07 -2.07183e-07 -0.0191019)
(4.77103e-07 -2.07613e-07 -0.0193808)
(4.77776e-07 -2.08047e-07 -0.01966)
(4.7846e-07 -2.08485e-07 -0.0202512)
(4.79155e-07 -2.08927e-07 -0.0210166)
(4.7986e-07 -2.09373e-07 -0.0217868)
(4.80575e-07 -2.09822e-07 -0.0225581)
(4.813e-07 -2.10275e-07 -0.0233349)
(4.82034e-07 -2.10731e-07 -0.0241098)
(4.82777e-07 -2.11189e-07 -0.0248904)
(4.83529e-07 -2.11652e-07 -0.0256049)
(4.8429e-07 -2.12115e-07 -0.0260179)
(5.50945e-07 -2.47833e-07 -0.0552902)
(5.46032e-07 -2.4497e-07 -0.050036)
(5.41338e-07 -2.42236e-07 -0.0450749)
(5.36852e-07 -2.39643e-07 -0.0416625)
(5.32568e-07 -2.37178e-07 -0.0384741)
(5.28475e-07 -2.34836e-07 -0.0353598)
(5.24566e-07 -2.32612e-07 -0.0327582)
(5.20832e-07 -2.305e-07 -0.0305674)
(5.17267e-07 -2.28494e-07 -0.0282059)
(5.13862e-07 -2.26591e-07 -0.0260588)
(5.10611e-07 -2.24786e-07 -0.0254387)
(5.07508e-07 -2.23073e-07 -0.0250475)
(5.04547e-07 -2.2145e-07 -0.0245434)
(5.01721e-07 -2.19912e-07 -0.023584)
(4.99027e-07 -2.18455e-07 -0.0221582)
(4.96457e-07 -2.17077e-07 -0.0204577)
(4.94008e-07 -2.15773e-07 -0.0191039)
(4.91674e-07 -2.1454e-07 -0.0187108)
(4.89451e-07 -2.13376e-07 -0.0183631)
(4.87335e-07 -2.12278e-07 -0.0175292)
(4.85322e-07 -2.11242e-07 -0.0167526)
(4.83408e-07 -2.10267e-07 -0.0159973)
(4.81588e-07 -2.09349e-07 -0.0152726)
(4.79861e-07 -2.08487e-07 -0.0146023)
(4.78221e-07 -2.07678e-07 -0.0139839)
(4.76666e-07 -2.0692e-07 -0.0134154)
(4.75194e-07 -2.06211e-07 -0.0128947)
(4.738e-07 -2.05549e-07 -0.0124528)
(4.72482e-07 -2.04932e-07 -0.0120122)
(4.71237e-07 -2.04359e-07 -0.0116053)
(4.70063e-07 -2.03828e-07 -0.0112356)
(4.68958e-07 -2.03336e-07 -0.0109014)
(4.67918e-07 -2.02883e-07 -0.0106015)
(4.66942e-07 -2.02467e-07 -0.0103347)
(4.66028e-07 -2.02087e-07 -0.0100998)
(4.65173e-07 -2.01741e-07 -0.00989549)
(4.64375e-07 -2.01428e-07 -0.00972064)
(4.63633e-07 -2.01147e-07 -0.00957411)
(4.62944e-07 -2.00896e-07 -0.00944242)
(4.62307e-07 -2.00675e-07 -0.00932566)
(4.6172e-07 -2.00482e-07 -0.00923461)
(4.61182e-07 -2.00316e-07 -0.0092091)
(4.60691e-07 -2.00176e-07 -0.00926547)
(4.60245e-07 -2.00062e-07 -0.00931343)
(4.59843e-07 -1.99972e-07 -0.00935322)
(4.59483e-07 -1.99906e-07 -0.00938519)
(4.59165e-07 -1.99862e-07 -0.00940952)
(4.58886e-07 -1.9984e-07 -0.00942651)
(4.58646e-07 -1.99839e-07 -0.00943637)
(4.58444e-07 -1.99858e-07 -0.00943932)
(4.58277e-07 -1.99897e-07 -0.0095482)
(4.58146e-07 -1.99954e-07 -0.00968548)
(4.58049e-07 -2.0003e-07 -0.00983948)
(4.57985e-07 -2.00123e-07 -0.0100095)
(4.57953e-07 -2.00233e-07 -0.0101949)
(4.57952e-07 -2.00359e-07 -0.0103953)
(4.57982e-07 -2.005e-07 -0.0106101)
(4.5804e-07 -2.00657e-07 -0.0108389)
(4.58127e-07 -2.00829e-07 -0.0110812)
(4.58241e-07 -2.01014e-07 -0.0113365)
(4.58382e-07 -2.01213e-07 -0.0116045)
(4.58549e-07 -2.01425e-07 -0.0119125)
(4.58741e-07 -2.01649e-07 -0.0122298)
(4.58957e-07 -2.01886e-07 -0.0125594)
(4.59197e-07 -2.02134e-07 -0.0129006)
(4.5946e-07 -2.02394e-07 -0.0132533)
(4.59745e-07 -2.02664e-07 -0.013617)
(4.60053e-07 -2.02945e-07 -0.0139913)
(4.60381e-07 -2.03236e-07 -0.0143758)
(4.60729e-07 -2.03537e-07 -0.0147701)
(4.61098e-07 -2.03847e-07 -0.015174)
(4.61486e-07 -2.04166e-07 -0.0155872)
(4.61892e-07 -2.04494e-07 -0.0160092)
(4.62317e-07 -2.0483e-07 -0.0164398)
(4.6276e-07 -2.05174e-07 -0.0168785)
(4.63219e-07 -2.05526e-07 -0.017325)
(4.63696e-07 -2.05885e-07 -0.0177792)
(4.64189e-07 -2.06252e-07 -0.0182406)
(4.64697e-07 -2.06625e-07 -0.0187091)
(4.65221e-07 -2.07005e-07 -0.0192066)
(4.6576e-07 -2.07391e-07 -0.0196942)
(4.66314e-07 -2.07784e-07 -0.0201627)
(4.66881e-07 -2.08182e-07 -0.0206367)
(4.67462e-07 -2.08586e-07 -0.0211156)
(4.68055e-07 -2.08994e-07 -0.021599)
(4.68663e-07 -2.09409e-07 -0.0221099)
(4.69284e-07 -2.0983e-07 -0.02277)
(4.69916e-07 -2.10254e-07 -0.0234354)
(4.7056e-07 -2.10683e-07 -0.0241155)
(4.71216e-07 -2.11117e-07 -0.0248113)
(4.71883e-07 -2.11554e-07 -0.0255118)
(4.7256e-07 -2.11996e-07 -0.0263319)
(4.73249e-07 -2.12441e-07 -0.027173)
(4.73947e-07 -2.12891e-07 -0.0279353)
(4.74656e-07 -2.13343e-07 -0.0286991)
(4.75374e-07 -2.13799e-07 -0.0291593)
(4.76102e-07 -2.14258e-07 -0.0295679)
(4.76839e-07 -2.1472e-07 -0.0299791)
(4.77584e-07 -2.15186e-07 -0.0303896)
(4.78339e-07 -2.15652e-07 -0.0307999)
(5.46119e-07 -2.49692e-07 -0.0570406)
(5.41166e-07 -2.46901e-07 -0.0518285)
(5.36433e-07 -2.44235e-07 -0.0471762)
(5.31911e-07 -2.41708e-07 -0.0442616)
(5.27593e-07 -2.39304e-07 -0.0411439)
(5.23467e-07 -2.37021e-07 -0.0383984)
(5.19527e-07 -2.34853e-07 -0.0360535)
(5.15763e-07 -2.32795e-07 -0.0343458)
(5.12169e-07 -2.3084e-07 -0.033252)
(5.08737e-07 -2.28986e-07 -0.0317403)
(5.05461e-07 -2.27227e-07 -0.0299715)
(5.02333e-07 -2.25559e-07 -0.0289164)
(4.99349e-07 -2.23979e-07 -0.0279244)
(4.96501e-07 -2.22481e-07 -0.0269924)
(4.93785e-07 -2.21063e-07 -0.0261373)
(4.91195e-07 -2.19722e-07 -0.0252364)
(4.88726e-07 -2.18453e-07 -0.0239811)
(4.86374e-07 -2.17255e-07 -0.0226291)
(4.84134e-07 -2.16123e-07 -0.0213617)
(4.82001e-07 -2.15056e-07 -0.0204701)
(4.79971e-07 -2.1405e-07 -0.0196986)
(4.78041e-07 -2.13103e-07 -0.0189476)
(4.76207e-07 -2.12213e-07 -0.0182028)
(4.74465e-07 -2.11377e-07 -0.01751)
(4.72812e-07 -2.10593e-07 -0.0168672)
(4.71244e-07 -2.09859e-07 -0.0162723)
(4.69758e-07 -2.09173e-07 -0.0156999)
(4.68352e-07 -2.08533e-07 -0.0151716)
(4.67022e-07 -2.07937e-07 -0.0146861)
(4.65766e-07 -2.07384e-07 -0.0142415)
(4.64582e-07 -2.06872e-07 -0.0138364)
(4.63465e-07 -2.06399e-07 -0.0134692)
(4.62416e-07 -2.05964e-07 -0.0131386)
(4.6143e-07 -2.05565e-07 -0.0128164)
(4.60506e-07 -2.05202e-07 -0.0125113)
(4.59641e-07 -2.04871e-07 -0.012259)
(4.58835e-07 -2.04574e-07 -0.0120421)
(4.58083e-07 -2.04307e-07 -0.0118549)
(4.57386e-07 -2.04071e-07 -0.0116965)
(4.56741e-07 -2.03863e-07 -0.0115074)
(4.56146e-07 -2.03683e-07 -0.0113114)
(4.556e-07 -2.0353e-07 -0.0111462)
(4.55101e-07 -2.03402e-07 -0.011011)
(4.54647e-07 -2.033e-07 -0.0109045)
(4.54237e-07 -2.03221e-07 -0.0108261)
(4.53871e-07 -2.03165e-07 -0.0107744)
(4.53545e-07 -2.03132e-07 -0.0107489)
(4.53259e-07 -2.0312e-07 -0.0107485)
(4.53013e-07 -2.03128e-07 -0.0107726)
(4.52803e-07 -2.03157e-07 -0.0108202)
(4.52631e-07 -2.03205e-07 -0.0109083)
(4.52493e-07 -2.03271e-07 -0.0110164)
(4.52389e-07 -2.03355e-07 -0.0111457)
(4.52319e-07 -2.03456e-07 -0.0112891)
(4.52281e-07 -2.03574e-07 -0.0114552)
(4.52274e-07 -2.03708e-07 -0.0116438)
(4.52297e-07 -2.03857e-07 -0.0118539)
(4.52349e-07 -2.04021e-07 -0.0120851)
(4.52429e-07 -2.04199e-07 -0.0123368)
(4.52538e-07 -2.04391e-07 -0.0126082)
(4.52673e-07 -2.04596e-07 -0.0128988)
(4.52833e-07 -2.04815e-07 -0.0132079)
(4.53019e-07 -2.05045e-07 -0.0135349)
(4.5323e-07 -2.05288e-07 -0.0138791)
(4.53464e-07 -2.05542e-07 -0.0142401)
(4.53721e-07 -2.05807e-07 -0.0146173)
(4.54001e-07 -2.06083e-07 -0.0150102)
(4.54302e-07 -2.06369e-07 -0.0154184)
(4.54624e-07 -2.06666e-07 -0.0158413)
(4.54967e-07 -2.06971e-07 -0.0162786)
(4.5533e-07 -2.07286e-07 -0.0167276)
(4.55712e-07 -2.0761e-07 -0.0171874)
(4.56113e-07 -2.07943e-07 -0.0176742)
(4.56532e-07 -2.08283e-07 -0.0181758)
(4.56968e-07 -2.08632e-07 -0.018693)
(4.57422e-07 -2.08988e-07 -0.0192235)
(4.57892e-07 -2.09352e-07 -0.0197655)
(4.58379e-07 -2.09723e-07 -0.0203185)
(4.5888e-07 -2.10101e-07 -0.0208819)
(4.594e-07 -2.10485e-07 -0.0214442)
(4.59935e-07 -2.10875e-07 -0.0219938)
(4.60481e-07 -2.11272e-07 -0.0225519)
(4.61042e-07 -2.11674e-07 -0.0231186)
(4.61617e-07 -2.12083e-07 -0.0236937)
(4.62204e-07 -2.12495e-07 -0.0243118)
(4.62807e-07 -2.12911e-07 -0.0249449)
(4.63423e-07 -2.13335e-07 -0.0255863)
(4.64048e-07 -2.13764e-07 -0.0262344)
(4.64685e-07 -2.14196e-07 -0.0268891)
(4.65334e-07 -2.14634e-07 -0.0275502)
(4.65995e-07 -2.15075e-07 -0.0282171)
(4.66666e-07 -2.1552e-07 -0.0288389)
(4.67348e-07 -2.15969e-07 -0.0292841)
(4.6804e-07 -2.16422e-07 -0.0300342)
(4.68743e-07 -2.16878e-07 -0.0307887)
(4.69454e-07 -2.17337e-07 -0.0315571)
(4.70176e-07 -2.17799e-07 -0.0324097)
(4.70906e-07 -2.18265e-07 -0.0332314)
(4.71645e-07 -2.18733e-07 -0.0336481)
(4.72393e-07 -2.19203e-07 -0.0340599)
(5.41262e-07 -2.51538e-07 -0.0592779)
(5.3627e-07 -2.48819e-07 -0.0546959)
(5.31501e-07 -2.46223e-07 -0.0504332)
(5.26944e-07 -2.43761e-07 -0.0478576)
(5.22592e-07 -2.4142e-07 -0.0453131)
(5.18435e-07 -2.39198e-07 -0.0428421)
(5.14465e-07 -2.37087e-07 -0.0410239)
(5.10673e-07 -2.35083e-07 -0.0388276)
(5.07052e-07 -2.33181e-07 -0.0367755)
(5.03595e-07 -2.31376e-07 -0.0348353)
(5.00294e-07 -2.29665e-07 -0.0330033)
(4.97143e-07 -2.28043e-07 -0.0318486)
(4.94136e-07 -2.26505e-07 -0.0309277)
(4.91268e-07 -2.25049e-07 -0.0300622)
(4.88531e-07 -2.23671e-07 -0.0283185)
(4.85922e-07 -2.22367e-07 -0.0273928)
(4.83435e-07 -2.21135e-07 -0.0267161)
(4.81065e-07 -2.19971e-07 -0.0253496)
(4.78808e-07 -2.18872e-07 -0.0240653)
(4.76659e-07 -2.17837e-07 -0.0229555)
(4.74614e-07 -2.16861e-07 -0.0221311)
(4.72669e-07 -2.15943e-07 -0.0213194)
(4.7082e-07 -2.1508e-07 -0.0201573)
(4.69065e-07 -2.14271e-07 -0.0190897)
(4.67398e-07 -2.13512e-07 -0.0181345)
(4.65818e-07 -2.12803e-07 -0.0172395)
(4.6432e-07 -2.1214e-07 -0.0164022)
(4.62902e-07 -2.11523e-07 -0.0156208)
(4.61561e-07 -2.10949e-07 -0.0148931)
(4.60294e-07 -2.10416e-07 -0.0142307)
(4.59099e-07 -2.09924e-07 -0.0136244)
(4.57973e-07 -2.0947e-07 -0.0130649)
(4.56913e-07 -2.09053e-07 -0.0125508)
(4.55917e-07 -2.08672e-07 -0.0120804)
(4.54984e-07 -2.08325e-07 -0.0116521)
(4.54111e-07 -2.08011e-07 -0.0112646)
(4.53295e-07 -2.07728e-07 -0.0109164)
(4.52536e-07 -2.07477e-07 -0.0106062)
(4.5183e-07 -2.07254e-07 -0.0103043)
(4.51177e-07 -2.0706e-07 -0.0100362)
(4.50574e-07 -2.06894e-07 -0.00980442)
(4.5002e-07 -2.06753e-07 -0.00960739)
(4.49514e-07 -2.06638e-07 -0.00944433)
(4.49053e-07 -2.06547e-07 -0.00931372)
(4.48636e-07 -2.0648e-07 -0.00921486)
(4.48262e-07 -2.06435e-07 -0.00914632)
(4.4793e-07 -2.06412e-07 -0.00910732)
(4.47637e-07 -2.0641e-07 -0.0090967)
(4.47384e-07 -2.06429e-07 -0.0091137)
(4.47168e-07 -2.06467e-07 -0.00915748)
(4.46989e-07 -2.06524e-07 -0.00922714)
(4.46845e-07 -2.06599e-07 -0.00932192)
(4.46735e-07 -2.06691e-07 -0.00944104)
(4.46658e-07 -2.06801e-07 -0.00958381)
(4.46614e-07 -2.06926e-07 -0.00974943)
(4.46601e-07 -2.07068e-07 -0.00993733)
(4.46617e-07 -2.07224e-07 -0.0101467)
(4.46664e-07 -2.07396e-07 -0.010379)
(4.46738e-07 -2.07581e-07 -0.0106335)
(4.4684e-07 -2.0778e-07 -0.0109078)
(4.46969e-07 -2.07992e-07 -0.0112013)
(4.47124e-07 -2.08216e-07 -0.0115133)
(4.47305e-07 -2.08453e-07 -0.0118433)
(4.47509e-07 -2.08702e-07 -0.0121951)