/*--------------------------------*- C++ -*----------------------------------*\
| =========                 |                                                 |
| \\      /  F ield         | foam-extend: Open Source CFD                    |
|  \\    /   O peration     | Version:     4.1                                |
|   \\  /    A nd           | Web:         http://www.foam-extend.org         |
|    \\/     M anipulation  |                                                 |
\*---------------------------------------------------------------------------*/
FoamFile
{
    version     2.0;
    format      ascii;
    class       volScalarField;
    location    "1";
    object      sigmaEq;
}
// * * * * * * * * * * * * * * * * * * * * * * * * * * * * * * * * * * * * * //

dimensions      [1 -1 -2 0 0 0 0];

internalField   nonuniform List<scalar> 
100000
(
1.3485e+11
1.93037e+11
1.7554e+11
1.41281e+11
1.13974e+11
9.83632e+10
9.25426e+10
9.4586e+10
1.17234e+11
1.19787e+11
1.0694e+11
9.74468e+10
9.1887e+10
8.2024e+10
7.01817e+10
6.18854e+10
6.08047e+10
5.69916e+10
5.14621e+10
4.68596e+10
3.883e+10
3.79434e+10
3.90189e+10
4.05498e+10
4.20481e+10
4.39049e+10
4.36773e+10
4.31879e+10
5.15655e+10
6.25062e+10
7.46436e+10
8.63887e+10
9.58673e+10
1.04569e+11
1.10986e+11
1.11689e+11
1.12293e+11
1.13045e+11
1.12391e+11
1.11761e+11
1.1115e+11
1.1056e+11
1.09996e+11
1.09951e+11
1.09823e+11
1.09536e+11
1.09186e+11
1.08793e+11
1.08358e+11
1.07884e+11
1.07369e+11
1.06816e+11
1.06209e+11
1.0536e+11
1.04442e+11
1.0318e+11
1.01857e+11
1.00622e+11
9.93337e+10
9.79958e+10
9.66112e+10
9.5221e+10
9.37579e+10
9.22063e+10
8.80353e+10
8.22992e+10
7.64072e+10
7.03247e+10
6.54085e+10
6.04609e+10
5.41544e+10
4.72567e+10
4.02464e+10
3.47968e+10
2.95129e+10
2.64829e+10
2.57079e+10
2.49249e+10
2.41354e+10
2.33401e+10
2.34534e+10
2.2861e+10
2.29545e+10
2.32927e+10
2.37255e+10
2.45268e+10
2.63836e+10
2.88339e+10
3.30748e+10
3.68276e+10
4.02419e+10
4.31756e+10
4.47092e+10
4.70963e+10
4.92464e+10
5.04828e+10
5.13654e+10
5.32927e+10
5.53129e+10
5.55852e+10
1.21584e+11
1.78594e+11
1.80323e+11
1.5395e+11
1.3991e+11
1.23926e+11
1.21096e+11
1.16672e+11
1.20138e+11
1.44792e+11
1.44126e+11
1.29751e+11
1.15939e+11
1.04931e+11
9.80278e+10
9.30691e+10
8.88305e+10
8.64138e+10
8.52739e+10
7.56611e+10
6.50042e+10
5.74899e+10
5.14555e+10
4.66074e+10
4.78326e+10
5.81939e+10
7.28391e+10
8.68014e+10
1.00841e+11
1.13034e+11
1.23973e+11
1.25418e+11
1.29444e+11
1.25937e+11
1.24798e+11
1.23714e+11
1.22675e+11
1.2162e+11
1.20659e+11
1.19807e+11
1.18998e+11
1.18231e+11
1.1752e+11
1.1686e+11
1.16227e+11
1.15649e+11
1.15109e+11
1.13872e+11
1.12657e+11
1.11507e+11
1.10421e+11
1.09396e+11
1.08508e+11
1.07881e+11
1.07333e+11
1.06868e+11
1.0646e+11
1.06118e+11
1.05847e+11
1.05639e+11
1.0549e+11
1.05396e+11
1.06095e+11
1.07742e+11
1.09492e+11
1.099e+11
1.08363e+11
1.06151e+11
1.03821e+11
1.01617e+11
9.53948e+10
8.83914e+10
8.26642e+10
7.6838e+10
7.26075e+10
7.13657e+10
7.06243e+10
7.00059e+10
6.93623e+10
6.88177e+10
6.85118e+10
6.78235e+10
6.9296e+10
7.34928e+10
7.57448e+10
7.81381e+10
7.92164e+10
8.0468e+10
8.12565e+10
8.08596e+10
8.06921e+10
8.1358e+10
8.46341e+10
8.72446e+10
8.87674e+10
9.03092e+10
9.21814e+10
9.42691e+10
9.58001e+10
9.89776e+10
1.16667e+11
1.66247e+11
1.69421e+11
1.53662e+11
1.42426e+11
1.31021e+11
1.2162e+11
1.19396e+11
1.0698e+11
1.15898e+11
1.38488e+11
1.40774e+11
1.33519e+11
1.33261e+11
1.31161e+11
1.31704e+11
1.23369e+11
1.1073e+11
1.01241e+11
9.41433e+10
9.69989e+10
9.77652e+10
1.02903e+11
1.04415e+11
1.06624e+11
1.13046e+11
1.15337e+11
1.20937e+11
1.18227e+11
1.12497e+11
1.05809e+11
9.9599e+10
9.31421e+10
8.74821e+10
8.28008e+10
7.85713e+10
7.47698e+10
7.1484e+10
6.97859e+10
6.82402e+10
6.68418e+10
6.55822e+10
6.44492e+10
6.29426e+10
6.16572e+10
6.06608e+10
5.98249e+10
5.91685e+10
5.86891e+10
5.83599e+10
5.82133e+10
5.82345e+10
5.84065e+10
5.8805e+10
5.93325e+10
6.04849e+10
6.17883e+10
6.30905e+10
6.45294e+10
6.54171e+10
6.54597e+10
6.55513e+10
6.56696e+10
6.5848e+10
6.61049e+10
6.67246e+10
6.75857e+10
6.83649e+10
7.32992e+10
7.83273e+10
8.50434e+10
9.22044e+10
9.94898e+10
1.06645e+11
1.14798e+11
1.21021e+11
1.22795e+11
1.23859e+11
1.24906e+11
1.25936e+11
1.25992e+11
1.24126e+11
1.22493e+11
1.20935e+11
1.19219e+11
1.1743e+11
1.15628e+11
1.12834e+11
1.11645e+11
1.11741e+11
1.12226e+11
1.13357e+11
1.1388e+11
1.13695e+11
1.13975e+11
1.14244e+11
1.16069e+11
1.16239e+11
1.16088e+11
1.16284e+11
1.19099e+11
1.65037e+11
1.59179e+11
1.50288e+11
1.39452e+11
1.36085e+11
1.21434e+11
1.1601e+11
1.08762e+11
9.58625e+10
1.12566e+11
1.40596e+11
1.55875e+11
1.62491e+11
1.68798e+11
1.69383e+11
1.64534e+11
1.54345e+11
1.43617e+11
1.46948e+11
1.51266e+11
1.57333e+11
1.58702e+11
1.53445e+11
1.4277e+11
1.26215e+11
1.07631e+11
9.12561e+10
7.58864e+10
6.15747e+10
4.85811e+10
3.72998e+10
3.19692e+10
3.16217e+10
3.14485e+10
3.11841e+10
3.00675e+10
2.88115e+10
2.76697e+10
2.66373e+10
2.57089e+10
2.48792e+10
2.41447e+10
2.34855e+10
2.29031e+10
2.24039e+10
2.19852e+10
2.23712e+10
2.28409e+10
2.29698e+10
2.25935e+10
2.21587e+10
2.15935e+10
2.06843e+10
1.97169e+10
1.86909e+10
1.7612e+10
1.64831e+10
1.52342e+10
1.45547e+10
1.77224e+10
2.08744e+10
2.41226e+10
2.74593e+10
3.08784e+10
3.58066e+10
4.26219e+10
4.99794e+10
5.81952e+10
6.633e+10
7.47077e+10
8.32664e+10
9.19798e+10
1.00968e+11
1.08393e+11
1.1252e+11
1.1679e+11
1.21328e+11
1.25958e+11
1.30499e+11
1.34942e+11
1.39786e+11
1.42152e+11
1.41782e+11
1.41563e+11
1.383e+11
1.34217e+11
1.30412e+11
1.2808e+11
1.25301e+11
1.22035e+11
1.20852e+11
1.18714e+11
1.16706e+11
1.14591e+11
1.12879e+11
1.11052e+11
1.08592e+11
1.0585e+11
1.00972e+11
1.18019e+11
1.63646e+11
1.49646e+11
1.43251e+11
1.33327e+11
1.31158e+11
1.25059e+11
1.23087e+11
1.18621e+11
1.06762e+11
1.1397e+11
1.41237e+11
1.70944e+11
1.80408e+11
1.79391e+11
1.74485e+11
1.74372e+11
1.84697e+11
1.90771e+11
1.89833e+11
1.8038e+11
1.67986e+11
1.49531e+11
1.34925e+11
1.20903e+11
1.07897e+11
1.01158e+11
9.12968e+10
8.07536e+10
7.2394e+10
6.61021e+10
6.01815e+10
5.53355e+10
5.06934e+10
4.65225e+10
4.27208e+10
3.93568e+10
3.64627e+10
3.38091e+10
3.1378e+10
2.92944e+10
2.80282e+10
2.7755e+10
2.73909e+10
2.69395e+10
2.64083e+10
2.57998e+10
2.51204e+10
2.4343e+10
2.34917e+10
2.38564e+10
2.45135e+10
2.53596e+10
2.6377e+10
2.75513e+10
2.88763e+10
3.03444e+10
3.19481e+10
3.3634e+10
3.62459e+10
4.05296e+10
4.4568e+10
4.87185e+10
5.30102e+10
5.74346e+10
6.19438e+10
6.65357e+10
7.11863e+10
7.17717e+10
7.24015e+10
7.3145e+10
7.39167e+10
7.47078e+10
7.54745e+10
7.51476e+10
7.49296e+10
7.70331e+10
7.98784e+10
8.27756e+10
8.59268e+10
8.89444e+10
9.17401e+10
9.45832e+10
9.74763e+10
9.99246e+10
1.02786e+11
1.07297e+11
1.11819e+11
1.12286e+11
1.11529e+11
1.10883e+11
1.11766e+11
1.12242e+11
1.1112e+11
1.09538e+11
1.05331e+11
9.9181e+10
9.34831e+10
8.71175e+10
8.10911e+10
9.99263e+10
1.53967e+11
1.34295e+11
1.28537e+11
1.25939e+11
1.24544e+11
1.23734e+11
1.30145e+11
1.46215e+11
1.45563e+11
1.36193e+11
1.34555e+11
1.36095e+11
1.47287e+11
1.55418e+11
1.56622e+11
1.53079e+11
1.5201e+11
1.4899e+11
1.36304e+11
1.24157e+11
1.12345e+11
1.04938e+11
1.03208e+11
1.01666e+11
1.00174e+11
9.80918e+10
9.47691e+10
9.17109e+10
8.87953e+10
8.60701e+10
8.3017e+10
7.52943e+10
6.80153e+10
6.12706e+10
5.54871e+10
5.1189e+10
4.75925e+10
4.44156e+10
4.09032e+10
3.73282e+10
3.42052e+10
3.15452e+10
2.92319e+10
2.72843e+10
2.5681e+10
2.44075e+10
2.34457e+10
2.27819e+10
2.28293e+10
2.40139e+10
2.54141e+10
2.71077e+10
2.9122e+10
3.14449e+10
3.40657e+10
3.69674e+10
4.0136e+10
4.35591e+10
4.67072e+10
4.64023e+10
4.61553e+10
4.5918e+10
4.57572e+10
4.56626e+10
4.56305e+10
4.58566e+10
4.63405e+10
4.68695e+10
4.71856e+10
4.74512e+10
4.77283e+10
4.81748e+10
4.86732e+10
4.9234e+10
4.9839e+10
5.04719e+10
5.11311e+10
5.18865e+10
5.2506e+10
5.27877e+10
5.3252e+10
5.39596e+10
5.46856e+10
5.58145e+10
6.04709e+10
6.55557e+10
6.94217e+10
7.24592e+10
7.54852e+10
7.88776e+10
7.9263e+10
7.59646e+10
7.51486e+10
7.36473e+10
7.2299e+10
7.24956e+10
7.2486e+10
6.96118e+10
6.9551e+10
9.6735e+10
1.52831e+11
1.34327e+11
1.29539e+11
1.35805e+11
1.38157e+11
1.42345e+11
1.35602e+11
1.38388e+11
1.42772e+11
1.22048e+11
1.06995e+11
9.96185e+10
9.9706e+10
9.41959e+10
1.05792e+11
1.16124e+11
1.01982e+11
8.65453e+10
8.0148e+10
7.83824e+10
7.69268e+10
7.02892e+10
6.4137e+10
5.88868e+10
5.39512e+10
4.92378e+10
4.42265e+10
3.99615e+10
3.61641e+10
3.26686e+10
2.93715e+10
2.63784e+10
2.36484e+10
2.08831e+10
1.81889e+10
1.575e+10
1.3483e+10
1.14589e+10
9.96117e+09
8.29931e+09
6.12649e+09
3.73254e+09
2.31641e+09
2.27367e+09
2.92371e+09
3.5056e+09
3.81965e+09
3.84384e+09
3.74274e+09
4.54451e+09
5.2376e+09
5.81482e+09
6.34289e+09
6.89098e+09
7.38514e+09
7.83026e+09
8.2191e+09
8.56044e+09
8.87338e+09
9.16526e+09
9.56615e+09
9.92322e+09
1.02406e+10
1.05312e+10
1.08175e+10
1.11039e+10
1.13938e+10
1.16922e+10
1.19742e+10
1.2238e+10
1.27384e+10
1.33251e+10
1.37948e+10
1.42847e+10
1.47606e+10
1.52449e+10
1.57566e+10
1.61235e+10
1.69265e+10
1.62364e+10
1.67732e+10
1.74509e+10
1.86992e+10
2.95404e+10
2.37862e+10
2.10821e+10
2.11652e+10
2.12098e+10
2.05173e+10
1.85786e+10
1.55267e+10
1.68765e+10
2.08495e+10
2.10732e+10
2.3103e+10
2.50389e+10
2.25587e+10
2.29206e+10
2.53855e+10
9.21434e+10
1.51913e+11
1.41737e+11
1.36593e+11
1.53169e+11
1.45972e+11
1.3315e+11
1.17988e+11
9.9461e+10
9.09835e+10
8.34059e+10
6.8458e+10
5.50589e+10
4.46364e+10
3.91827e+10
2.6673e+10
3.44864e+10
4.61646e+10
4.26848e+10
3.38748e+10
2.69651e+10
2.83437e+10
3.0151e+10
2.68251e+10
2.46775e+10
2.39134e+10
2.36644e+10
2.38939e+10
2.43631e+10
2.50384e+10
2.60934e+10
2.78504e+10
2.96883e+10
3.12335e+10
3.25478e+10
3.40496e+10
3.55292e+10
3.70056e+10
3.83716e+10
3.88531e+10
3.86606e+10
3.78466e+10
3.70878e+10
3.63819e+10
3.57283e+10
3.51229e+10
3.45659e+10
3.40532e+10
3.35844e+10
3.31573e+10
3.29665e+10
3.27868e+10
3.26304e+10
3.24001e+10
3.2227e+10
3.21098e+10
3.20525e+10
3.20521e+10
3.20933e+10
3.21735e+10
3.2295e+10
3.24539e+10
3.26641e+10
3.29246e+10
3.32016e+10
3.34916e+10
3.38086e+10
3.41501e+10
3.42033e+10
3.40581e+10
3.3897e+10
3.37154e+10
3.36634e+10
3.3631e+10
3.36291e+10
3.36416e+10
3.36536e+10
3.36879e+10
3.37822e+10
3.38335e+10
3.36818e+10
3.34769e+10
3.3461e+10
3.33259e+10
3.32902e+10
3.32919e+10
3.33037e+10
3.55867e+10
3.74817e+10
3.68462e+10
3.70136e+10
3.85593e+10
3.62857e+10
3.57858e+10
3.48185e+10
3.3369e+10
3.34822e+10
3.40774e+10
3.17463e+10
2.9176e+10
6.07128e+10
1.16732e+11
1.10392e+11
8.66623e+10
8.71255e+10
9.39877e+10
8.42065e+10
7.11721e+10
5.83137e+10
5.31179e+10
4.86058e+10
5.10114e+10
7.09811e+10
7.67371e+10
5.7037e+10
5.3042e+10
5.24718e+10
4.68264e+10
4.70449e+10
4.73314e+10
4.94263e+10
5.14061e+10
4.92519e+10
4.71349e+10
4.54869e+10
4.40458e+10
4.3496e+10
4.2981e+10
4.24724e+10
4.21893e+10
4.05422e+10
3.88972e+10
3.7105e+10
3.54258e+10
3.38541e+10
3.23882e+10
3.10227e+10
2.97562e+10
2.82492e+10
2.67702e+10
2.52844e+10
2.40229e+10
2.2994e+10
2.20644e+10
2.12335e+10
2.04948e+10
1.9848e+10
1.9288e+10
1.88119e+10
1.84172e+10
1.80984e+10
1.78535e+10
1.76853e+10
1.75831e+10
1.75339e+10
1.75392e+10
1.75972e+10
1.77249e+10
1.79145e+10
1.81425e+10
1.84071e+10
1.87042e+10
1.90309e+10
1.9427e+10
1.98861e+10
2.03689e+10
2.08732e+10
2.16038e+10
2.25252e+10
2.32754e+10
2.38961e+10
2.45312e+10
2.5178e+10
2.58356e+10
2.65044e+10
2.71842e+10
2.77968e+10
2.82445e+10
2.86528e+10
2.90679e+10
2.96565e+10
3.01454e+10
3.06701e+10
3.11454e+10
3.19391e+10
3.43929e+10
3.51556e+10
3.57807e+10
3.73149e+10
3.75999e+10
3.57816e+10
3.56299e+10
3.47483e+10
3.42763e+10
3.47705e+10
3.48626e+10
3.40213e+10
3.3822e+10
3.3926e+10
3.39079e+10
4.42955e+10
9.04779e+10
8.9533e+10
7.89503e+10
8.2029e+10
8.26933e+10
7.9935e+10
7.5303e+10
6.6327e+10
6.638e+10
8.50516e+10
9.75533e+10
9.06098e+10
7.07334e+10
5.96724e+10
5.85625e+10
5.77481e+10
6.0174e+10
5.42134e+10
5.24591e+10
5.0277e+10
4.84902e+10
4.76794e+10
4.68818e+10
4.36598e+10
4.12994e+10
3.90332e+10
3.64764e+10
3.40776e+10
3.08113e+10
2.77696e+10
2.53598e+10
2.31397e+10
2.10579e+10
1.91068e+10
1.71826e+10
1.52345e+10
1.34209e+10
1.17364e+10
1.01747e+10
8.89208e+09
8.29105e+09
7.7617e+09
7.30481e+09
6.92566e+09
6.62564e+09
6.40648e+09
6.26721e+09
6.20367e+09
6.21174e+09
6.28355e+09
6.41111e+09
6.58996e+09
6.83097e+09
7.10069e+09
7.39239e+09
7.69955e+09
8.0211e+09
8.35142e+09
8.6857e+09
9.02207e+09
9.35782e+09
9.69056e+09
1.00195e+10
1.03455e+10
1.06694e+10
1.09896e+10
1.13039e+10
1.17698e+10
1.23578e+10
1.29671e+10
1.35964e+10
1.42453e+10
1.49129e+10
1.55997e+10
1.63747e+10
1.71684e+10
1.72914e+10
1.72887e+10
1.72673e+10
1.71895e+10
1.81788e+10
2.04437e+10
2.24866e+10
2.28537e+10
2.41504e+10
2.48878e+10
2.36199e+10
2.37382e+10
2.41354e+10
2.42489e+10
2.61047e+10
2.78644e+10
2.79188e+10
2.82654e+10
2.91009e+10
2.99534e+10
3.07921e+10
3.10239e+10
3.20031e+10
4.49938e+10
9.27541e+10
9.99966e+10
9.24886e+10
8.40741e+10
8.10564e+10
7.78268e+10
7.2687e+10
7.5068e+10
8.39489e+10
8.73915e+10
7.95005e+10
6.81755e+10
5.76804e+10
5.24047e+10
5.11819e+10
5.24415e+10
5.23861e+10
5.23907e+10
4.83473e+10
4.60896e+10
4.38122e+10
4.15756e+10
3.66685e+10
3.18824e+10
2.91561e+10
2.60426e+10
2.31117e+10
2.01e+10
1.73695e+10
1.60102e+10
1.47693e+10
1.35851e+10
1.24557e+10
1.12892e+10
1.00498e+10
8.97515e+09
8.0959e+09
7.24678e+09
6.39647e+09
5.60428e+09
4.87427e+09
4.2155e+09
3.64022e+09
3.17091e+09
2.83432e+09
2.65406e+09
2.64118e+09
2.77924e+09
3.03213e+09
3.36267e+09
3.74012e+09
4.14412e+09
4.56102e+09
4.98026e+09
5.39541e+09
5.4235e+09
6.21561e+09
6.63103e+09
7.03106e+09
7.42098e+09
7.80137e+09
8.16886e+09
8.52725e+09
8.87752e+09
9.21943e+09
9.55411e+09
9.88115e+09
1.02001e+10
1.05141e+10
1.08243e+10
1.09534e+10
1.10993e+10
1.12931e+10
1.14127e+10
1.16242e+10
1.3279e+10
1.47871e+10
1.52433e+10
1.59758e+10
1.49189e+10
1.2527e+10
1.1123e+10
1.10742e+10
1.08169e+10
1.27196e+10
1.62646e+10
1.73376e+10
1.95403e+10
2.1428e+10
2.16071e+10
2.17436e+10
2.17982e+10
2.19277e+10
2.20856e+10
2.23029e+10
2.27605e+10
2.4984e+10
2.71338e+10
2.69965e+10
5.17877e+10
9.97028e+10
9.42082e+10
9.58865e+10
9.23717e+10
7.66756e+10
6.55766e+10
7.63119e+10
9.10945e+10
8.89093e+10
8.14788e+10
7.62969e+10
6.84344e+10
5.72452e+10
5.13225e+10
4.81418e+10
4.41156e+10
4.09893e+10
4.02367e+10
3.71223e+10
3.2991e+10
2.87005e+10
2.61731e+10
2.36571e+10
2.22008e+10
2.05263e+10
1.88868e+10
1.6914e+10
1.50764e+10
1.37409e+10
1.24731e+10
1.12697e+10
1.0129e+10
9.04939e+09
8.03076e+09
7.09031e+09
6.2195e+09
5.34926e+09
4.43854e+09
3.59901e+09
2.86776e+09
2.16623e+09
1.49473e+09
8.6333e+08
3.6216e+08
5.46494e+08
1.08008e+09
1.63205e+09
2.1746e+09
2.70149e+09
3.21337e+09
3.71042e+09
4.19225e+09
4.658e+09
5.10638e+09
5.54156e+09
5.96442e+09
6.23314e+09
6.48635e+09
6.85733e+09
7.22343e+09
7.58364e+09
7.93521e+09
8.27776e+09
8.59592e+09
8.90599e+09
9.25641e+09
9.64535e+09
1.00699e+10
1.0528e+10
1.20672e+10
1.38052e+10
1.42101e+10
1.40777e+10
1.42257e+10
1.45407e+10
1.16317e+10
8.88963e+09
8.97035e+09
9.31882e+09
9.75008e+09
1.20011e+10
1.49773e+10
1.55765e+10
1.61628e+10
1.88203e+10
2.09108e+10
2.11188e+10
2.12156e+10
2.10521e+10
2.10321e+10
2.14077e+10
2.14093e+10
2.08913e+10
2.07347e+10
2.07493e+10
2.08541e+10
2.09725e+10
2.10776e+10
2.09576e+10
5.20062e+10
9.28192e+10
8.79046e+10
8.5528e+10
8.73926e+10
8.52719e+10
8.02174e+10
9.43568e+10
1.00543e+11
9.21152e+10
8.26496e+10
7.57049e+10
6.62485e+10
5.31321e+10
4.26365e+10
3.73303e+10
3.38611e+10
3.12573e+10
2.83727e+10
2.65473e+10
2.29507e+10
2.38003e+10
2.53677e+10
2.17263e+10
1.85664e+10
1.66797e+10
1.55032e+10
1.43867e+10
1.33429e+10
1.22517e+10
1.12315e+10
1.02571e+10
9.32127e+09
8.4237e+09
7.56366e+09
6.743e+09
5.96372e+09
5.27938e+09
4.71455e+09
4.19809e+09
3.71902e+09
3.35604e+09
3.13227e+09
3.06421e+09
3.14663e+09
3.35691e+09
3.66299e+09
4.03419e+09
4.44892e+09
4.88882e+09
5.3437e+09
5.80683e+09
6.27194e+09
6.73555e+09
7.19523e+09
7.64757e+09
7.98164e+09
7.96476e+09
7.74561e+09
7.55121e+09
7.5714e+09
7.64987e+09
7.78716e+09
8.36302e+09
9.75495e+09
1.08558e+10
1.12832e+10
1.17538e+10
1.20969e+10
1.2276e+10
1.27709e+10
1.25674e+10
1.11835e+10
1.1704e+10
1.22066e+10
1.26469e+10
1.37384e+10
1.46284e+10
1.53187e+10
1.46694e+10
1.42276e+10
1.44731e+10
1.61674e+10
1.78822e+10
1.82852e+10
1.86432e+10
1.87139e+10
1.8786e+10
1.89419e+10
1.90968e+10
1.92041e+10
1.93009e+10
1.94052e+10
1.96087e+10
2.01655e+10
2.11949e+10
2.26414e+10
2.59732e+10
2.91336e+10
3.12675e+10
4.18391e+10
7.80596e+10
7.76445e+10
8.23385e+10
8.30105e+10
9.38259e+10
1.06971e+11
1.07009e+11
9.79603e+10
9.30999e+10
8.5803e+10
7.37447e+10
6.00242e+10
4.37122e+10
3.48507e+10
3.24761e+10
3.13049e+10
3.02105e+10
2.90621e+10
2.80077e+10
2.71389e+10
2.5583e+10
1.94945e+10
1.82775e+10
2.0677e+10
1.94208e+10
1.80275e+10
1.64321e+10
1.43018e+10
1.30466e+10
1.27781e+10
1.23835e+10
1.20403e+10
1.17827e+10
1.15942e+10
1.14588e+10
1.13633e+10
1.12939e+10
1.11971e+10
1.10523e+10
1.09029e+10
1.07464e+10
1.05785e+10
1.04802e+10
1.04739e+10
1.04171e+10
1.03119e+10
1.01586e+10
9.96178e+09
9.7257e+09
9.45548e+09
9.15927e+09
8.81297e+09
8.45695e+09
8.10565e+09
7.89911e+09
8.25889e+09
8.76671e+09
8.86343e+09
8.95342e+09
9.12685e+09
9.38162e+09
9.71107e+09
1.01127e+10
1.05691e+10
1.15555e+10
1.30686e+10
1.40651e+10
1.3723e+10
1.50223e+10
1.56371e+10
1.60139e+10
1.5716e+10
1.56003e+10
1.62641e+10
1.52809e+10
1.44141e+10
1.39232e+10
1.40458e+10
1.54918e+10
1.6926e+10
1.71383e+10
1.73828e+10
1.7586e+10
1.77874e+10
1.80366e+10
1.83351e+10
1.86198e+10
1.88999e+10
1.92698e+10
1.99733e+10
2.12398e+10
2.34793e+10
2.74042e+10
3.05237e+10
3.15687e+10
3.31832e+10
3.50298e+10
3.55319e+10
3.48415e+10
3.88426e+10
7.54468e+10
7.40986e+10
7.82771e+10
8.33818e+10
1.04297e+11
1.23785e+11
1.14821e+11
1.01122e+11
9.04435e+10
7.91512e+10
6.63893e+10
5.4551e+10
4.44265e+10
3.752e+10
3.5363e+10
3.45066e+10
3.3998e+10
3.31006e+10
3.24419e+10
3.18288e+10
3.12581e+10
3.05663e+10
3.02457e+10
2.52166e+10
2.1958e+10
2.11651e+10
1.88352e+10
1.62899e+10
1.52112e+10
1.43213e+10
1.34824e+10
1.27024e+10
1.19721e+10
1.12852e+10
1.08352e+10
1.06426e+10
1.04216e+10
1.01856e+10
9.95796e+09
9.7287e+09
9.49316e+09
9.26355e+09
9.02223e+09
8.73071e+09
8.41783e+09
8.11159e+09
7.81812e+09
7.54576e+09
7.30687e+09
7.11294e+09
7.00482e+09
6.98189e+09
7.0182e+09
7.14816e+09
7.41577e+09
7.64901e+09
7.93349e+09
8.34037e+09
9.41514e+09
1.08691e+10
1.25771e+10
1.44679e+10
1.48628e+10
1.58324e+10
1.80262e+10
1.88253e+10
1.91311e+10
1.87475e+10
1.74472e+10
1.73302e+10
1.60781e+10
1.4791e+10
1.36341e+10
1.34736e+10
1.3706e+10
1.49172e+10
1.59095e+10
1.61001e+10
1.6378e+10
1.66326e+10
1.68831e+10
1.71046e+10
1.75029e+10
1.88307e+10
2.02451e+10
2.13591e+10
2.28129e+10
2.49277e+10
2.8222e+10
3.1126e+10
3.29323e+10
3.46499e+10
3.599e+10
3.63135e+10
3.75328e+10
3.92588e+10
3.98345e+10
3.96429e+10
4.02816e+10
3.63989e+10
7.27224e+10
7.18756e+10
7.47546e+10
9.64087e+10
1.20764e+11
1.20297e+11
1.13716e+11
1.06239e+11
8.72764e+10
6.76443e+10
6.15896e+10
5.51022e+10
4.71885e+10
4.00537e+10
3.48204e+10
3.3745e+10
3.53543e+10
3.53051e+10
3.45579e+10
3.38161e+10
3.31119e+10
3.23569e+10
3.18262e+10
3.13607e+10
3.12497e+10
2.7598e+10
2.28258e+10
1.9993e+10
1.87226e+10
1.60217e+10
1.36769e+10
1.16801e+10
1.01638e+10
9.55427e+09
9.24269e+09
8.55434e+09
7.60155e+09
6.81287e+09
6.13795e+09
5.54487e+09
5.0455e+09
4.68304e+09
4.60806e+09
4.55437e+09
4.64463e+09
4.858e+09
5.17051e+09
5.55522e+09
5.99091e+09
6.46233e+09
6.95486e+09
8.3732e+09
1.01693e+10
1.2003e+10
1.38979e+10
1.59682e+10
1.80542e+10
1.92953e+10
2.08729e+10
2.30368e+10
2.38778e+10
2.40485e+10
2.43369e+10
2.24721e+10
2.10477e+10
1.99531e+10
1.78801e+10
1.57619e+10
1.3871e+10
1.2993e+10
1.2491e+10
1.31159e+10
1.45656e+10
1.56015e+10
1.65973e+10
1.7434e+10
1.79034e+10
1.84407e+10
1.91863e+10
2.00188e+10
2.06314e+10
2.24513e+10
2.57495e+10
2.89948e+10
3.20452e+10
3.47419e+10
3.63009e+10
3.78066e+10
3.90763e+10
3.96381e+10
4.01954e+10
4.07529e+10
4.13015e+10
4.18631e+10
4.24045e+10
4.23586e+10
4.20503e+10
4.18369e+10
4.1932e+10
3.26854e+10
6.76108e+10
6.98301e+10
8.28809e+10
1.13649e+11
1.24293e+11
1.1755e+11
1.09005e+11
9.37792e+10
8.16801e+10
7.45266e+10
6.99496e+10
6.644e+10
6.02374e+10
5.16739e+10
4.06644e+10
3.06028e+10
2.58846e+10
2.51283e+10
2.73851e+10
2.81686e+10
2.81712e+10
2.81261e+10
2.80616e+10
2.76032e+10
2.73489e+10
2.70127e+10
2.72656e+10
2.78346e+10
2.53637e+10
2.27545e+10
2.04509e+10
1.8367e+10
1.74192e+10
1.65795e+10
1.47636e+10
1.29256e+10
1.13833e+10
1.0086e+10
8.99711e+09
8.12546e+09
7.49667e+09
7.17981e+09
7.02798e+09
7.03718e+09
7.48149e+09
8.17911e+09
9.1757e+09
1.04607e+10
1.18804e+10
1.34208e+10
1.47419e+10
1.61804e+10
1.79058e+10
1.97569e+10
2.15841e+10
2.32919e+10
2.28482e+10
2.24047e+10
2.00016e+10
1.78216e+10
1.64298e+10
1.47351e+10
1.27955e+10
1.09622e+10
1.01722e+10
1.12516e+10
1.22319e+10
1.31946e+10
1.55713e+10
1.77095e+10
1.88089e+10
2.00321e+10
2.09376e+10
2.1749e+10
2.25692e+10
2.34443e+10
2.44095e+10
2.66571e+10
2.91148e+10
3.11194e+10
3.4221e+10
3.75251e+10
3.93606e+10
4.04721e+10
4.13527e+10
4.14024e+10
4.14472e+10
4.14907e+10
4.15354e+10
4.15806e+10
4.16226e+10
4.16842e+10
4.17682e+10
4.23863e+10
4.29831e+10
4.34184e+10
4.32359e+10
4.31027e+10
4.29229e+10
3.2529e+10
6.4348e+10
7.24583e+10
1.05986e+11
1.2757e+11
1.23045e+11
1.09346e+11
8.82102e+10
7.73047e+10
7.59519e+10
7.40438e+10
7.17649e+10
6.96928e+10
6.76381e+10
6.45911e+10
5.95762e+10
5.15766e+10
4.16369e+10
3.1854e+10
2.35395e+10
1.819e+10
1.81931e+10
1.78443e+10
1.66167e+10
1.58542e+10
1.61283e+10
1.71039e+10
1.86057e+10
1.97417e+10
2.06477e+10
2.1397e+10
2.14952e+10
2.1673e+10
2.1412e+10
1.97651e+10
1.83381e+10
1.71672e+10
1.62416e+10
1.55517e+10
1.50898e+10
1.48504e+10
1.48211e+10
1.49594e+10
1.50388e+10
1.51419e+10
1.51595e+10
1.52617e+10
1.56357e+10
1.61646e+10
1.67181e+10
1.73822e+10
1.81516e+10
1.69276e+10
1.47055e+10
1.24351e+10
1.01556e+10
9.09385e+09
9.68297e+09
9.10571e+09
9.20273e+09
1.00159e+10
1.08749e+10
1.19258e+10
1.31657e+10
1.45854e+10
1.73894e+10
1.98921e+10
2.09971e+10
2.21521e+10
2.33565e+10
2.38948e+10
2.4425e+10
2.49465e+10
2.58676e+10
2.76934e+10
2.93721e+10
3.11024e+10
3.39026e+10
3.68346e+10
3.8302e+10
3.94138e+10
4.06001e+10
4.08903e+10
4.1247e+10
4.16117e+10
4.19693e+10
4.21227e+10
4.25237e+10
4.32414e+10
4.39551e+10
4.46646e+10
4.53883e+10
4.59475e+10
4.64908e+10
4.70527e+10
4.66808e+10
4.55229e+10
4.46718e+10
4.45856e+10
4.46117e+10
3.28325e+10
6.80449e+10
1.02082e+11
1.34539e+11
1.2879e+11
1.03012e+11
8.02429e+10
7.57334e+10
7.27289e+10
6.99011e+10
6.73534e+10
6.50606e+10
6.29985e+10
6.11545e+10
5.937e+10
5.77916e+10
5.55375e+10
5.21017e+10
4.60938e+10
3.88189e+10
3.08669e+10
2.25532e+10
1.53219e+10
1.36386e+10
1.4801e+10
1.54248e+10
1.58233e+10
1.60076e+10
1.60292e+10
1.6006e+10
1.61015e+10
1.63138e+10
1.65632e+10
1.66768e+10
1.66553e+10
1.66328e+10
1.66052e+10
1.65722e+10
1.65333e+10
1.64853e+10
1.64305e+10
1.59984e+10
1.51971e+10
1.45477e+10
1.40379e+10
1.35306e+10
1.31563e+10
1.27976e+10
1.19503e+10
1.02125e+10
8.47493e+09
7.1565e+09
7.01252e+09
6.93501e+09
7.00731e+09
7.83601e+09
9.21997e+09
1.01156e+10
1.10963e+10
1.21434e+10
1.3411e+10
1.55397e+10
1.75191e+10
1.89186e+10
2.03858e+10
2.18772e+10
2.25599e+10
2.32804e+10
2.43121e+10
2.52908e+10
2.68665e+10
2.85155e+10
3.0234e+10
3.29994e+10
3.56242e+10
3.72151e+10
3.86632e+10
4.00809e+10
4.05729e+10
4.09107e+10
4.12586e+10
4.22051e+10
4.32688e+10
4.43392e+10
4.53145e+10
4.60582e+10
4.70729e+10
4.87232e+10
4.97847e+10
4.98077e+10
4.98176e+10
4.94413e+10
4.83062e+10
4.73547e+10
4.6567e+10
4.57755e+10
4.5213e+10
4.52796e+10
4.52627e+10
4.53037e+10
3.5782e+10
9.73098e+10
1.36592e+11
1.28437e+11
9.56943e+10
7.18303e+10
7.36471e+10
7.39662e+10
7.07513e+10
6.77776e+10
6.50373e+10
6.25242e+10
6.02161e+10
5.8113e+10
5.61984e+10
5.42315e+10
5.20945e+10
5.00886e+10
4.76412e+10
4.47843e+10
3.94056e+10
3.32559e+10
2.68894e+10
2.26413e+10
1.76861e+10
1.47421e+10
1.52983e+10
1.61768e+10
1.64796e+10
1.68083e+10
1.68919e+10
1.67118e+10
1.655e+10
1.63426e+10
1.60786e+10
1.57294e+10
1.53543e+10
1.49597e+10
1.45487e+10
1.31729e+10
1.15802e+10
1.01188e+10
8.96989e+09
7.77986e+09
6.3849e+09
5.18166e+09
3.9611e+09
2.66095e+09
2.74851e+09
3.99765e+09
4.73515e+09
5.94746e+09
7.37562e+09
8.50903e+09
9.36916e+09
1.01841e+10
1.19535e+10
1.4187e+10
1.58299e+10
1.73812e+10
1.89287e+10
2.03611e+10
2.14404e+10
2.25603e+10
2.33907e+10
2.43955e+10
2.60116e+10
2.76554e+10
2.927e+10
3.16436e+10
3.4167e+10
3.56855e+10
3.71921e+10
3.8666e+10
3.91711e+10
3.95267e+10
4.00506e+10
4.10272e+10
4.20012e+10
4.29288e+10
4.43648e+10
4.59073e+10
4.69821e+10
4.79362e+10
4.84355e+10
4.84488e+10
4.87444e+10
4.84313e+10
4.69399e+10
4.57772e+10
4.49679e+10
4.28999e+10
4.12798e+10
4.03219e+10
3.93317e+10
3.8361e+10
3.74557e+10
3.65916e+10
3.57536e+10
3.3692e+10
6.56863e+10
1.34072e+11
1.33524e+11
9.71993e+10
7.3589e+10
6.99765e+10
6.93775e+10
7.07256e+10
6.92729e+10
6.58817e+10
6.32396e+10
6.06879e+10
5.79661e+10
5.53933e+10
5.32924e+10
5.17528e+10
4.99711e+10
4.78568e+10
4.53391e+10
4.35623e+10
4.17154e+10
3.8459e+10
3.44539e+10
2.88733e+10
2.39414e+10
2.07715e+10
1.84845e+10
1.58085e+10
1.38771e+10
1.30411e+10
1.21991e+10
1.19524e+10
1.19487e+10
1.18198e+10
1.13457e+10
1.06568e+10
9.93917e+09
8.60093e+09
6.64064e+09
4.65906e+09
3.16153e+09
2.12131e+09
1.23146e+09
6.98936e+08
2.20693e+09
3.91965e+09
5.88704e+09
8.24589e+09
1.04229e+10
1.18143e+10
1.33829e+10
1.52143e+10
1.69391e+10
1.81863e+10
1.9384e+10
2.07469e+10
2.23903e+10
2.32473e+10
2.3683e+10
2.3978e+10
2.43161e+10
2.5571e+10
2.70297e+10
2.82031e+10
2.96014e+10
3.16438e+10
3.35217e+10
3.48193e+10
3.6141e+10
3.75184e+10
3.78556e+10
3.80874e+10
3.87633e+10
3.95479e+10
4.03262e+10
4.12818e+10
4.28023e+10
4.41526e+10
4.49994e+10
4.58404e+10
4.60542e+10
4.56573e+10
4.52167e+10
4.34394e+10
4.04472e+10
3.80299e+10
3.63332e+10
3.47237e+10
3.35041e+10
3.25051e+10
2.94356e+10
2.67903e+10
2.62694e+10
2.56342e+10
2.50822e+10
2.47235e+10
2.44842e+10
2.43129e+10
2.41888e+10
2.3326e+10
1.05006e+11
1.44416e+11
1.00895e+11
6.87183e+10
6.11988e+10
6.09804e+10
6.4848e+10
6.61406e+10
6.72121e+10
6.5252e+10
6.19087e+10
5.94778e+10
5.68953e+10
5.38962e+10
5.13587e+10
4.9127e+10
4.66743e+10
4.47256e+10
4.29465e+10
4.09558e+10
3.95599e+10
3.776e+10
3.58717e+10
3.38824e+10
3.07524e+10
2.69562e+10
2.3087e+10
2.04723e+10
1.798e+10
1.57541e+10
1.38744e+10
1.22848e+10
1.08702e+10
9.46327e+09
8.50308e+09
8.53571e+09
8.77196e+09
9.59733e+09
1.09729e+10
1.15833e+10
1.22626e+10
1.32638e+10
1.45966e+10
1.59723e+10
1.70777e+10
1.82366e+10
1.94356e+10
2.06523e+10
2.18541e+10
2.30507e+10
2.42897e+10
2.52419e+10
2.58252e+10
2.65101e+10
2.77527e+10
2.90214e+10
3.00132e+10
3.05821e+10
3.10415e+10
3.153e+10
3.26292e+10
3.3923e+10
3.4566e+10
3.50848e+10
3.59712e+10
3.68919e+10
3.71286e+10
3.78477e+10
3.86108e+10
3.93423e+10
4.00854e+10
4.14585e+10
4.29836e+10
4.40365e+10
4.4946e+10
4.51076e+10
4.35642e+10
4.15672e+10
3.96754e+10
3.69917e+10
3.40641e+10
3.2154e+10
2.94613e+10
2.57889e+10
2.3726e+10
2.31757e+10
2.27708e+10
2.25198e+10
2.24324e+10
2.25122e+10
2.27399e+10
2.29458e+10
2.31481e+10
2.33387e+10
2.35418e+10
2.37092e+10
2.39221e+10
2.41544e+10
2.27725e+10
2.10357e+10
1.06587e+11
1.02943e+11
7.49478e+10
6.9943e+10
6.62035e+10
6.29427e+10
6.02695e+10
5.9259e+10
5.65434e+10
5.51477e+10
5.69638e+10
5.72795e+10
5.39867e+10
5.03607e+10
4.75572e+10
4.70337e+10
4.60438e+10
4.39776e+10
4.15811e+10
3.93509e+10
3.74779e+10
3.59039e+10
3.45315e+10
3.33252e+10
3.22467e+10
3.12699e+10
2.95981e+10
2.77707e+10
2.57476e+10
2.35201e+10
2.17494e+10
2.08108e+10
2.08682e+10
2.12138e+10
2.14589e+10
2.19662e+10
2.27363e+10
2.28843e+10
2.30573e+10
2.3312e+10
2.37497e+10
2.43663e+10
2.50259e+10
2.56153e+10
2.62908e+10
2.69517e+10
2.76437e+10
2.81837e+10
2.87468e+10
2.93512e+10
2.99933e+10
3.06699e+10
3.1415e+10
3.24213e+10
3.34598e+10
3.42925e+10
3.51463e+10
3.60187e+10
3.69051e+10
3.77752e+10
3.85729e+10
3.88794e+10
3.90555e+10
3.94461e+10
4.007e+10
4.04743e+10
4.10162e+10
4.16085e+10
4.07944e+10
3.99874e+10
3.93835e+10
3.83168e+10
3.66382e+10
3.49693e+10
3.2357e+10
2.76212e+10
2.39261e+10
2.25461e+10
2.14873e+10
2.08003e+10
2.06354e+10
2.06901e+10
2.08962e+10
2.11739e+10
2.14135e+10
2.16449e+10
2.1867e+10
2.2082e+10
2.22938e+10
2.25057e+10
2.27163e+10
2.29193e+10
2.31203e+10
2.33115e+10
2.3521e+10
2.37649e+10
2.25622e+10
2.1133e+10
2.12226e+10
2.17276e+10
7.06634e+10
7.84487e+10
7.40496e+10
6.94679e+10
6.66736e+10
6.46767e+10
6.49069e+10
6.47756e+10
6.301e+10
5.9521e+10
5.7046e+10
5.32519e+10
4.89314e+10
4.50077e+10
4.18911e+10
4.2584e+10
4.32174e+10
4.07479e+10
3.90568e+10
3.82291e+10
3.72211e+10
3.57446e+10
3.45372e+10
3.35466e+10
3.27149e+10
3.19912e+10
3.13448e+10
3.08541e+10
3.07817e+10
3.03439e+10
3.03473e+10
3.05154e+10
3.06124e+10
3.09295e+10
3.08563e+10
3.03191e+10
2.99259e+10
2.9652e+10
2.94975e+10
2.94542e+10
2.9523e+10
2.9698e+10
2.99687e+10
3.03278e+10
3.0769e+10
3.12844e+10
3.18853e+10
3.26121e+10
3.33863e+10
3.42024e+10
3.49726e+10
3.57223e+10
3.64941e+10
3.72482e+10
3.72493e+10
3.66826e+10
3.6111e+10
3.5526e+10
3.50228e+10
3.45976e+10
3.45505e+10
3.46425e+10
3.43827e+10
3.41001e+10
3.35087e+10
3.259e+10
3.12953e+10
2.84668e+10
2.55386e+10
2.39267e+10
2.1953e+10
1.99368e+10
1.89093e+10
1.8426e+10
1.8424e+10
1.89316e+10
1.94088e+10
1.97437e+10
2.00362e+10
2.03239e+10
2.06028e+10
2.0859e+10
2.11065e+10
2.13504e+10
2.15893e+10
2.18205e+10
2.20435e+10
2.22613e+10
2.24764e+10
2.26057e+10
2.27282e+10
2.29102e+10
2.30961e+10
2.33429e+10
2.21378e+10
2.10612e+10
2.15448e+10
2.16623e+10
2.17381e+10
2.18537e+10
5.46415e+10
7.80239e+10
7.46894e+10
7.14329e+10
6.88832e+10
6.59263e+10
6.42561e+10
6.34881e+10
6.19467e+10
5.92673e+10
5.63792e+10
5.29698e+10
5.0238e+10
4.69018e+10
4.38326e+10
4.10909e+10
3.71297e+10
3.37667e+10
3.05064e+10
2.93108e+10
3.03534e+10
3.0223e+10
2.91956e+10
2.86644e+10
2.84784e+10
2.86471e+10
2.89848e+10
2.90572e+10
2.94227e+10
2.98292e+10
3.02728e+10
3.10342e+10
3.0857e+10
3.02258e+10
2.95799e+10
2.89503e+10
2.83401e+10
2.78124e+10
2.73956e+10
2.69789e+10
2.65601e+10
2.61401e+10
2.57202e+10
2.52991e+10
2.49468e+10
2.47127e+10
2.44867e+10
2.42684e+10
2.40613e+10
2.38423e+10
2.36694e+10
2.35331e+10