/*--------------------------------*- C++ -*----------------------------------*\
| =========                 |                                                 |
| \\      /  F ield         | foam-extend: Open Source CFD                    |
|  \\    /   O peration     | Version:     4.1                                |
|   \\  /    A nd           | Web:         http://www.foam-extend.org         |
|    \\/     M anipulation  |                                                 |
\*---------------------------------------------------------------------------*/
FoamFile
{
    version     2.0;
    format      ascii;
    class       vectorField;
    location    "1";
    object      solidsCellD_iteration273;
}
// * * * * * * * * * * * * * * * * * * * * * * * * * * * * * * * * * * * * * //


100000
(
(5.74678e-07 -2.3842e-07 0.00280339)
(5.69994e-07 -2.35219e-07 0.00280339)
(5.65516e-07 -2.32164e-07 0.00280339)
(5.61236e-07 -2.29265e-07 0.00280339)
(5.57147e-07 -2.26508e-07 0.00280339)
(5.5324e-07 -2.23888e-07 0.00280339)
(5.49508e-07 -2.21398e-07 0.00280339)
(5.45942e-07 -2.19032e-07 0.00280339)
(5.42536e-07 -2.16785e-07 0.00280339)
(5.39284e-07 -2.14651e-07 0.00280339)
(5.36178e-07 -2.12625e-07 0.00280339)
(5.33214e-07 -2.10702e-07 0.00280339)
(5.30384e-07 -2.08878e-07 0.00280339)
(5.27685e-07 -2.07148e-07 0.00280339)
(5.2511e-07 -2.05508e-07 0.00280339)
(5.22655e-07 -2.03953e-07 0.00280339)
(5.20315e-07 -2.02482e-07 0.00280339)
(5.18086e-07 -2.01088e-07 0.00280339)
(5.15963e-07 -1.99771e-07 0.00280339)
(5.13943e-07 -1.98525e-07 0.00280339)
(5.12022e-07 -1.97349e-07 0.00280339)
(5.10195e-07 -1.96238e-07 0.00280339)
(5.0846e-07 -1.95192e-07 0.00280339)
(5.06813e-07 -1.94206e-07 0.00280339)
(5.05251e-07 -1.93278e-07 0.00280339)
(5.03771e-07 -1.92406e-07 0.00280339)
(5.02369e-07 -1.91588e-07 0.00280339)
(5.01044e-07 -1.90822e-07 0.00280339)
(4.99793e-07 -1.90105e-07 0.00280339)
(4.98612e-07 -1.89435e-07 0.00280339)
(4.97499e-07 -1.88811e-07 0.00280339)
(4.96454e-07 -1.88231e-07 0.00280339)
(4.95472e-07 -1.87694e-07 0.00280339)
(4.9455e-07 -1.87196e-07 0.00280339)
(4.93689e-07 -1.86737e-07 0.00280339)
(4.92885e-07 -1.86315e-07 0.00280339)
(4.92138e-07 -1.85929e-07 0.00280339)
(4.91444e-07 -1.85578e-07 0.00280339)
(4.90803e-07 -1.8526e-07 0.00280339)
(4.90212e-07 -1.84974e-07 0.00280339)
(4.89669e-07 -1.84719e-07 0.00280339)
(4.89174e-07 -1.84493e-07 0.00280339)
(4.88725e-07 -1.84296e-07 0.00280339)
(4.8832e-07 -1.84126e-07 0.00280339)
(4.87958e-07 -1.83982e-07 0.00280339)
(4.87638e-07 -1.83864e-07 0.00280339)
(4.87358e-07 -1.8377e-07 0.00280339)
(4.87117e-07 -1.837e-07 0.00280339)
(4.86914e-07 -1.83652e-07 0.00280339)
(4.86747e-07 -1.83626e-07 0.00280339)
(4.86617e-07 -1.83621e-07 0.00280339)
(4.8652e-07 -1.83637e-07 0.00280339)
(4.86458e-07 -1.83672e-07 0.00280339)
(4.86428e-07 -1.83725e-07 0.00280339)
(4.86429e-07 -1.83797e-07 0.00280339)
(4.86461e-07 -1.83886e-07 0.00280339)
(4.86522e-07 -1.83992e-07 0.00280339)
(4.86613e-07 -1.84114e-07 0.00280339)
(4.86731e-07 -1.84252e-07 0.00280339)
(4.86877e-07 -1.84405e-07 0.00280339)
(4.87049e-07 -1.84572e-07 0.00280339)
(4.87247e-07 -1.84753e-07 0.00280339)
(4.87469e-07 -1.84947e-07 0.00280339)
(4.87716e-07 -1.85155e-07 0.00280339)
(4.87986e-07 -1.85375e-07 0.00280339)
(4.88279e-07 -1.85607e-07 0.00280339)
(4.88595e-07 -1.8585e-07 0.00280339)
(4.88931e-07 -1.86104e-07 0.00280339)
(4.89289e-07 -1.8637e-07 0.00280339)
(4.89668e-07 -1.86645e-07 0.00280339)
(4.90066e-07 -1.86931e-07 0.00280339)
(4.90483e-07 -1.87226e-07 0.00280339)
(4.90919e-07 -1.8753e-07 0.00280339)
(4.91373e-07 -1.87843e-07 0.00280339)
(4.91845e-07 -1.88165e-07 0.00280339)
(4.92334e-07 -1.88494e-07 0.00280339)
(4.9284e-07 -1.88832e-07 0.00280339)
(4.93363e-07 -1.89177e-07 0.00280339)
(4.93901e-07 -1.8953e-07 0.00280339)
(4.94454e-07 -1.89889e-07 0.00280339)
(4.95023e-07 -1.90255e-07 0.00280339)
(4.95606e-07 -1.90628e-07 0.00280339)
(4.96203e-07 -1.91007e-07 0.00280339)
(4.96814e-07 -1.91391e-07 0.00280339)
(4.97438e-07 -1.91782e-07 0.00280339)
(4.98076e-07 -1.92178e-07 0.00280339)
(4.98726e-07 -1.92579e-07 0.00280339)
(4.99389e-07 -1.92985e-07 0.00280339)
(5.00064e-07 -1.93396e-07 0.00280339)
(5.0075e-07 -1.93811e-07 0.00280339)
(5.01448e-07 -1.94231e-07 0.00280339)
(5.02157e-07 -1.94655e-07 0.00280339)
(5.02876e-07 -1.95083e-07 0.00280339)
(5.03606e-07 -1.95514e-07 0.00280339)
(5.04347e-07 -1.9595e-07 0.00280339)
(5.05097e-07 -1.96389e-07 0.00280339)
(5.05857e-07 -1.96831e-07 0.00280339)
(5.06627e-07 -1.97276e-07 0.00280339)
(5.07405e-07 -1.97724e-07 0.00280339)
(5.08195e-07 -1.98176e-07 0.00280339)
(5.70016e-07 -2.4035e-07 0.00280339)
(5.65282e-07 -2.37213e-07 0.00280339)
(5.60757e-07 -2.3422e-07 0.00280339)
(5.56433e-07 -2.31379e-07 0.00280339)
(5.52302e-07 -2.28677e-07 0.00280339)
(5.48355e-07 -2.2611e-07 0.00280339)
(5.44584e-07 -2.23671e-07 0.00280339)
(5.40982e-07 -2.21353e-07 0.00280339)
(5.37541e-07 -2.19152e-07 0.00280339)
(5.34255e-07 -2.17062e-07 0.00280339)
(5.31118e-07 -2.15079e-07 0.00280339)
(5.28124e-07 -2.13196e-07 0.00280339)
(5.25266e-07 -2.1141e-07 0.00280339)
(5.22539e-07 -2.09716e-07 0.00280339)
(5.19938e-07 -2.08111e-07 0.00280339)
(5.17458e-07 -2.0659e-07 0.00280339)
(5.15095e-07 -2.0515e-07 0.00280339)
(5.12843e-07 -2.03788e-07 0.00280339)
(5.10698e-07 -2.02499e-07 0.00280339)
(5.08657e-07 -2.01282e-07 0.00280339)
(5.06716e-07 -2.00132e-07 0.00280339)
(5.0487e-07 -1.99048e-07 0.00280339)
(5.03117e-07 -1.98026e-07 0.00280339)
(5.01453e-07 -1.97063e-07 0.00280339)
(4.99874e-07 -1.96158e-07 0.00280339)
(4.98377e-07 -1.95308e-07 0.00280339)
(4.96961e-07 -1.94511e-07 0.00280339)
(4.95621e-07 -1.93765e-07 0.00280339)
(4.94355e-07 -1.93067e-07 0.00280339)
(4.9316e-07 -1.92416e-07 0.00280339)
(4.92035e-07 -1.91809e-07 0.00280339)
(4.90977e-07 -1.91246e-07 0.00280339)
(4.8998e-07 -1.90724e-07 0.00280339)
(4.89046e-07 -1.90243e-07 0.00280339)
(4.88175e-07 -1.89799e-07 0.00280339)
(4.8736e-07 -1.89392e-07 0.00280339)
(4.86602e-07 -1.8902e-07 0.00280339)
(4.85898e-07 -1.88682e-07 0.00280339)
(4.85246e-07 -1.88377e-07 0.00280339)
(4.84646e-07 -1.88103e-07 0.00280339)
(4.84094e-07 -1.8786e-07 0.00280339)
(4.8359e-07 -1.87646e-07 0.00280339)
(4.83131e-07 -1.87459e-07 0.00280339)
(4.82718e-07 -1.873e-07 0.00280339)
(4.82347e-07 -1.87167e-07 0.00280339)
(4.82019e-07 -1.87059e-07 0.00280339)
(4.8173e-07 -1.86974e-07 0.00280339)
(4.81481e-07 -1.86913e-07 0.00280339)
(4.81271e-07 -1.86875e-07 0.00280339)
(4.81097e-07 -1.86857e-07 0.00280339)
(4.80958e-07 -1.86861e-07 0.00280339)
(4.80855e-07 -1.86885e-07 0.00280339)
(4.80785e-07 -1.86927e-07 0.00280339)
(4.80748e-07 -1.86989e-07 0.00280339)
(4.80742e-07 -1.87068e-07 0.00280339)
(4.80767e-07 -1.87164e-07 0.00280339)
(4.80822e-07 -1.87277e-07 0.00280339)
(4.80906e-07 -1.87406e-07 0.00280339)
(4.81018e-07 -1.8755e-07 0.00280339)
(4.81157e-07 -1.87709e-07 0.00280339)
(4.81322e-07 -1.87882e-07 0.00280339)
(4.81514e-07 -1.88069e-07 0.00280339)
(4.8173e-07 -1.8827e-07 0.00280339)
(4.8197e-07 -1.88483e-07 0.00280339)
(4.82234e-07 -1.88708e-07 0.00280339)
(4.82521e-07 -1.88946e-07 0.00280339)
(4.82831e-07 -1.89194e-07 0.00280339)
(4.83161e-07 -1.89454e-07 0.00280339)
(4.83513e-07 -1.89724e-07 0.00280339)
(4.83885e-07 -1.90005e-07 0.00280339)
(4.84278e-07 -1.90295e-07 0.00280339)
(4.84689e-07 -1.90595e-07 0.00280339)
(4.85119e-07 -1.90904e-07 0.00280339)
(4.85567e-07 -1.91221e-07 0.00280339)
(4.86033e-07 -1.91547e-07 0.00280339)
(4.86516e-07 -1.91881e-07 0.00280339)
(4.87016e-07 -1.92223e-07 0.00280339)
(4.87533e-07 -1.92573e-07 0.00280339)
(4.88065e-07 -1.92929e-07 0.00280339)
(4.88612e-07 -1.93293e-07 0.00280339)
(4.89175e-07 -1.93663e-07 0.00280339)
(4.89752e-07 -1.94039e-07 0.00280339)
(4.90343e-07 -1.94422e-07 0.00280339)
(4.90948e-07 -1.9481e-07 0.00280339)
(4.91567e-07 -1.95205e-07 0.00280339)
(4.92198e-07 -1.95604e-07 0.00280339)
(4.92843e-07 -1.96009e-07 0.00280339)
(4.93499e-07 -1.96419e-07 0.00280339)
(4.94168e-07 -1.96833e-07 0.00280339)
(4.94848e-07 -1.97252e-07 0.00280339)
(4.9554e-07 -1.97676e-07 0.00280339)
(4.96242e-07 -1.98103e-07 0.00280339)
(4.96956e-07 -1.98535e-07 0.00280339)
(4.9768e-07 -1.9897e-07 0.00280339)
(4.98414e-07 -1.99409e-07 0.00280339)
(4.99158e-07 -1.99851e-07 0.00280339)
(4.99911e-07 -2.00297e-07 0.00280339)
(5.00674e-07 -2.00745e-07 0.00280339)
(5.01446e-07 -2.01197e-07 0.00280339)
(5.02228e-07 -2.01651e-07 0.00280339)
(5.6532e-07 -2.42266e-07 0.00280339)
(5.60539e-07 -2.39195e-07 0.00280339)
(5.55969e-07 -2.36264e-07 0.00280339)
(5.51601e-07 -2.33483e-07 0.00280339)
(5.47429e-07 -2.30838e-07 0.00280339)
(5.43443e-07 -2.28326e-07 0.00280339)
(5.39635e-07 -2.25938e-07 0.00280339)
(5.35998e-07 -2.2367e-07 0.00280339)
(5.32524e-07 -2.21516e-07 0.00280339)
(5.29207e-07 -2.19472e-07 0.00280339)
(5.26039e-07 -2.17531e-07 0.00280339)
(5.23015e-07 -2.15689e-07 0.00280339)
(5.2013e-07 -2.13942e-07 0.00280339)
(5.17377e-07 -2.12286e-07 0.00280339)
(5.14751e-07 -2.10717e-07 0.00280339)
(5.12247e-07 -2.0923e-07 0.00280339)
(5.0986e-07 -2.07823e-07 0.00280339)
(5.07587e-07 -2.06492e-07 0.00280339)
(5.05421e-07 -2.05233e-07 0.00280339)
(5.0336e-07 -2.04044e-07 0.00280339)
(5.014e-07 -2.02922e-07 0.00280339)
(4.99536e-07 -2.01864e-07 0.00280339)
(4.97765e-07 -2.00867e-07 0.00280339)
(4.96083e-07 -1.99929e-07 0.00280339)
(4.94488e-07 -1.99047e-07 0.00280339)
(4.92976e-07 -1.98219e-07 0.00280339)
(4.91544e-07 -1.97444e-07 0.00280339)
(4.9019e-07 -1.96717e-07 0.00280339)
(4.8891e-07 -1.96039e-07 0.00280339)
(4.87702e-07 -1.95407e-07 0.00280339)
(4.86564e-07 -1.94819e-07 0.00280339)
(4.85492e-07 -1.94272e-07 0.00280339)
(4.84485e-07 -1.93767e-07 0.00280339)
(4.83541e-07 -1.93301e-07 0.00280339)
(4.82658e-07 -1.92873e-07 0.00280339)
(4.81832e-07 -1.92481e-07 0.00280339)
(4.81064e-07 -1.92123e-07 0.00280339)
(4.80349e-07 -1.91799e-07 0.00280339)
(4.79688e-07 -1.91507e-07 0.00280339)
(4.79078e-07 -1.91246e-07 0.00280339)
(4.78516e-07 -1.91015e-07 0.00280339)
(4.78003e-07 -1.90812e-07 0.00280339)
(4.77536e-07 -1.90637e-07 0.00280339)
(4.77114e-07 -1.90489e-07 0.00280339)
(4.76735e-07 -1.90366e-07 0.00280339)
(4.76399e-07 -1.90268e-07 0.00280339)
(4.76102e-07 -1.90194e-07 0.00280339)
(4.75846e-07 -1.90142e-07 0.00280339)
(4.75627e-07 -1.90113e-07 0.00280339)
(4.75446e-07 -1.90104e-07 0.00280339)
(4.753e-07 -1.90116e-07 0.00280339)
(4.7519e-07 -1.90148e-07 0.00280339)
(4.75113e-07 -1.90199e-07 0.00280339)
(4.75068e-07 -1.90268e-07 0.00280339)
(4.75056e-07 -1.90354e-07 0.00280339)
(4.75074e-07 -1.90458e-07 0.00280339)
(4.75123e-07 -1.90578e-07 0.00280339)
(4.752e-07 -1.90713e-07 0.00280339)
(4.75305e-07 -1.90864e-07 0.00280339)
(4.75438e-07 -1.9103e-07 0.00280339)
(4.75597e-07 -1.91209e-07 0.00280339)
(4.75782e-07 -1.91403e-07 0.00280339)
(4.75992e-07 -1.91609e-07 0.00280339)
(4.76226e-07 -1.91828e-07 0.00280339)
(4.76484e-07 -1.92059e-07 0.00280339)
(4.76765e-07 -1.92301e-07 0.00280339)
(4.77068e-07 -1.92555e-07 0.00280339)
(4.77393e-07 -1.9282e-07 0.00280339)
(4.77739e-07 -1.93096e-07 0.00280339)
(4.78105e-07 -1.93381e-07 0.00280339)
(4.78491e-07 -1.93676e-07 0.00280339)
(4.78897e-07 -1.93981e-07 0.00280339)
(4.79321e-07 -1.94294e-07 0.00280339)
(4.79763e-07 -1.94616e-07 0.00280339)
(4.80223e-07 -1.94947e-07 0.00280339)
(4.807e-07 -1.95285e-07 0.00280339)
(4.81195e-07 -1.95632e-07 0.00280339)
(4.81705e-07 -1.95985e-07 0.00280339)
(4.82231e-07 -1.96346e-07 0.00280339)
(4.82773e-07 -1.96713e-07 0.00280339)
(4.83329e-07 -1.97088e-07 0.00280339)
(4.839e-07 -1.97468e-07 0.00280339)
(4.84486e-07 -1.97855e-07 0.00280339)
(4.85085e-07 -1.98247e-07 0.00280339)
(4.85697e-07 -1.98645e-07 0.00280339)
(4.86323e-07 -1.99048e-07 0.00280339)
(4.86961e-07 -1.99457e-07 0.00280339)
(4.87611e-07 -1.9987e-07 0.00280339)
(4.88274e-07 -2.00288e-07 0.00280339)
(4.88948e-07 -2.00711e-07 0.00280339)
(4.89633e-07 -2.01138e-07 0.00280339)
(4.9033e-07 -2.01569e-07 0.00280339)
(4.91037e-07 -2.02004e-07 0.00280339)
(4.91755e-07 -2.02442e-07 0.00280339)
(4.92482e-07 -2.02885e-07 0.00280339)
(4.9322e-07 -2.0333e-07 0.00280339)
(4.93967e-07 -2.0378e-07 0.00280339)
(4.94724e-07 -2.04231e-07 0.00280339)
(4.95489e-07 -2.04687e-07 0.00280339)
(4.96263e-07 -2.05144e-07 0.00280339)
(5.60592e-07 -2.44168e-07 0.00280339)
(5.55764e-07 -2.41165e-07 0.00280339)
(5.5115e-07 -2.38298e-07 0.00280339)
(5.46741e-07 -2.35578e-07 0.00280339)
(5.4253e-07 -2.32991e-07 0.00280339)
(5.38507e-07 -2.30534e-07 0.00280339)
(5.34663e-07 -2.282e-07 0.00280339)
(5.30992e-07 -2.25982e-07 0.00280339)
(5.27486e-07 -2.23877e-07 0.00280339)
(5.24138e-07 -2.21878e-07 0.00280339)
(5.20941e-07 -2.19981e-07 0.00280339)
(5.17889e-07 -2.18181e-07 0.00280339)
(5.14977e-07 -2.16474e-07 0.00280339)
(5.12199e-07 -2.14857e-07 0.00280339)
(5.09549e-07 -2.13324e-07 0.00280339)
(5.07022e-07 -2.11872e-07 0.00280339)
(5.04613e-07 -2.10499e-07 0.00280339)
(5.02318e-07 -2.09199e-07 0.00280339)
(5.00133e-07 -2.07972e-07 0.00280339)
(4.98052e-07 -2.06812e-07 0.00280339)
(4.96073e-07 -2.05718e-07 0.00280339)
(4.94192e-07 -2.04687e-07 0.00280339)
(4.92404e-07 -2.03716e-07 0.00280339)
(4.90706e-07 -2.02802e-07 0.00280339)
(4.89095e-07 -2.01944e-07 0.00280339)
(4.87568e-07 -2.01139e-07 0.00280339)
(4.86122e-07 -2.00385e-07 0.00280339)
(4.84754e-07 -1.99679e-07 0.00280339)
(4.83461e-07 -1.99021e-07 0.00280339)
(4.8224e-07 -1.98408e-07 0.00280339)
(4.81089e-07 -1.97838e-07 0.00280339)
(4.80006e-07 -1.9731e-07 0.00280339)
(4.78987e-07 -1.96821e-07 0.00280339)
(4.78032e-07 -1.96371e-07 0.00280339)
(4.77138e-07 -1.95959e-07 0.00280339)
(4.76302e-07 -1.95582e-07 0.00280339)
(4.75523e-07 -1.95239e-07 0.00280339)
(4.74799e-07 -1.94928e-07 0.00280339)
(4.74128e-07 -1.9465e-07 0.00280339)
(4.73508e-07 -1.94402e-07 0.00280339)
(4.72938e-07 -1.94183e-07 0.00280339)
(4.72416e-07 -1.93992e-07 0.00280339)
(4.71941e-07 -1.93829e-07 0.00280339)
(4.7151e-07 -1.93692e-07 0.00280339)
(4.71123e-07 -1.9358e-07 0.00280339)
(4.70779e-07 -1.93492e-07 0.00280339)
(4.70475e-07 -1.93427e-07 0.00280339)
(4.70211e-07 -1.93385e-07 0.00280339)
(4.69985e-07 -1.93365e-07 0.00280339)
(4.69796e-07 -1.93366e-07 0.00280339)
(4.69643e-07 -1.93386e-07 0.00280339)
(4.69526e-07 -1.93427e-07 0.00280339)
(4.69442e-07 -1.93485e-07 0.00280339)
(4.69391e-07 -1.93562e-07 0.00280339)
(4.69372e-07 -1.93656e-07 0.00280339)
(4.69383e-07 -1.93767e-07 0.00280339)
(4.69425e-07 -1.93894e-07 0.00280339)
(4.69496e-07 -1.94037e-07 0.00280339)
(4.69595e-07 -1.94194e-07 0.00280339)
(4.69721e-07 -1.94366e-07 0.00280339)
(4.69874e-07 -1.94552e-07 0.00280339)
(4.70053e-07 -1.94752e-07 0.00280339)
(4.70257e-07 -1.94964e-07 0.00280339)
(4.70485e-07 -1.95189e-07 0.00280339)
(4.70737e-07 -1.95425e-07 0.00280339)
(4.71012e-07 -1.95673e-07 0.00280339)
(4.71309e-07 -1.95933e-07 0.00280339)
(4.71628e-07 -1.96203e-07 0.00280339)
(4.71967e-07 -1.96483e-07 0.00280339)
(4.72328e-07 -1.96774e-07 0.00280339)
(4.72708e-07 -1.97074e-07 0.00280339)
(4.73107e-07 -1.97383e-07 0.00280339)
(4.73525e-07 -1.97701e-07 0.00280339)
(4.73962e-07 -1.98028e-07 0.00280339)
(4.74416e-07 -1.98363e-07 0.00280339)
(4.74887e-07 -1.98706e-07 0.00280339)
(4.75376e-07 -1.99056e-07 0.00280339)
(4.7588e-07 -1.99414e-07 0.00280339)
(4.764e-07 -1.99779e-07 0.00280339)
(4.76936e-07 -2.00151e-07 0.00280339)
(4.77487e-07 -2.00529e-07 0.00280339)
(4.78052e-07 -2.00913e-07 0.00280339)
(4.78631e-07 -2.01304e-07 0.00280339)
(4.79224e-07 -2.017e-07 0.00280339)
(4.7983e-07 -2.02101e-07 0.00280339)
(4.8045e-07 -2.02509e-07 0.00280339)
(4.81082e-07 -2.02921e-07 0.00280339)
(4.81726e-07 -2.03338e-07 0.00280339)
(4.82383e-07 -2.0376e-07 0.00280339)
(4.83051e-07 -2.04186e-07 0.00280339)
(4.8373e-07 -2.04616e-07 0.00280339)
(4.8442e-07 -2.05051e-07 0.00280339)
(4.85121e-07 -2.05489e-07 0.00280339)
(4.85832e-07 -2.05931e-07 0.00280339)
(4.86554e-07 -2.06377e-07 0.00280339)
(4.87285e-07 -2.06826e-07 0.00280339)
(4.88025e-07 -2.07279e-07 0.00280339)
(4.88775e-07 -2.07734e-07 0.00280339)
(4.89534e-07 -2.08193e-07 0.00280339)
(4.90302e-07 -2.08653e-07 0.00280339)
(5.5583e-07 -2.46057e-07 0.00280339)
(5.50958e-07 -2.43122e-07 0.00280339)
(5.46302e-07 -2.40321e-07 0.00280339)
(5.41854e-07 -2.37663e-07 0.00280339)
(5.37605e-07 -2.35136e-07 0.00280339)
(5.33545e-07 -2.32736e-07 0.00280339)
(5.29668e-07 -2.30455e-07 0.00280339)
(5.25964e-07 -2.28289e-07 0.00280339)
(5.22427e-07 -2.26233e-07 0.00280339)
(5.19049e-07 -2.24281e-07 0.00280339)
(5.15824e-07 -2.22429e-07 0.00280339)
(5.12746e-07 -2.20672e-07 0.00280339)
(5.09809e-07 -2.19006e-07 0.00280339)
(5.07006e-07 -2.17428e-07 0.00280339)
(5.04332e-07 -2.15932e-07 0.00280339)
(5.01783e-07 -2.14516e-07 0.00280339)
(4.99353e-07 -2.13177e-07 0.00280339)
(4.97038e-07 -2.1191e-07 0.00280339)
(4.94833e-07 -2.10714e-07 0.00280339)
(4.92735e-07 -2.09584e-07 0.00280339)
(4.90738e-07 -2.08519e-07 0.00280339)
(4.88839e-07 -2.07515e-07 0.00280339)
(4.87035e-07 -2.0657e-07 0.00280339)
(4.85321e-07 -2.05682e-07 0.00280339)
(4.83696e-07 -2.04848e-07 0.00280339)
(4.82154e-07 -2.04066e-07 0.00280339)
(4.80694e-07 -2.03334e-07 0.00280339)
(4.79313e-07 -2.0265e-07 0.00280339)
(4.78007e-07 -2.02012e-07 0.00280339)
(4.76773e-07 -2.01418e-07 0.00280339)
(4.75611e-07 -2.00867e-07 0.00280339)
(4.74516e-07 -2.00357e-07 0.00280339)
(4.73486e-07 -1.99885e-07 0.00280339)
(4.7252e-07 -1.99452e-07 0.00280339)
(4.71616e-07 -1.99056e-07 0.00280339)
(4.7077e-07 -1.98694e-07 0.00280339)
(4.69981e-07 -1.98365e-07 0.00280339)
(4.69248e-07 -1.98069e-07 0.00280339)
(4.68567e-07 -1.97804e-07 0.00280339)
(4.67939e-07 -1.97569e-07 0.00280339)
(4.6736e-07 -1.97363e-07 0.00280339)
(4.6683e-07 -1.97185e-07 0.00280339)
(4.66346e-07 -1.97033e-07 0.00280339)
(4.65907e-07 -1.96907e-07 0.00280339)
(4.65513e-07 -1.96806e-07 0.00280339)
(4.6516e-07 -1.96729e-07 0.00280339)
(4.64849e-07 -1.96674e-07 0.00280339)
(4.64577e-07 -1.96642e-07 0.00280339)
(4.64344e-07 -1.96631e-07 0.00280339)
(4.64148e-07 -1.96641e-07 0.00280339)
(4.63989e-07 -1.9667e-07 0.00280339)
(4.63864e-07 -1.96719e-07 0.00280339)
(4.63773e-07 -1.96786e-07 0.00280339)
(4.63716e-07 -1.96871e-07 0.00280339)
(4.6369e-07 -1.96973e-07 0.00280339)
(4.63695e-07 -1.97091e-07 0.00280339)
(4.6373e-07 -1.97225e-07 0.00280339)
(4.63795e-07 -1.97375e-07 0.00280339)
(4.63887e-07 -1.97539e-07 0.00280339)
(4.64008e-07 -1.97718e-07 0.00280339)
(4.64154e-07 -1.9791e-07 0.00280339)
(4.64327e-07 -1.98116e-07 0.00280339)
(4.64525e-07 -1.98334e-07 0.00280339)
(4.64747e-07 -1.98564e-07 0.00280339)
(4.64993e-07 -1.98807e-07 0.00280339)
(4.65262e-07 -1.99061e-07 0.00280339)
(4.65553e-07 -1.99325e-07 0.00280339)
(4.65866e-07 -1.99601e-07 0.00280339)
(4.662e-07 -1.99886e-07 0.00280339)
(4.66554e-07 -2.00182e-07 0.00280339)
(4.66928e-07 -2.00487e-07 0.00280339)
(4.67322e-07 -2.00801e-07 0.00280339)
(4.67734e-07 -2.01124e-07 0.00280339)
(4.68165e-07 -2.01455e-07 0.00280339)
(4.68613e-07 -2.01794e-07 0.00280339)
(4.69078e-07 -2.02142e-07 0.00280339)
(4.69561e-07 -2.02497e-07 0.00280339)
(4.70059e-07 -2.02859e-07 0.00280339)
(4.70573e-07 -2.03228e-07 0.00280339)
(4.71103e-07 -2.03603e-07 0.00280339)
(4.71648e-07 -2.03986e-07 0.00280339)
(4.72207e-07 -2.04374e-07 0.00280339)
(4.7278e-07 -2.04768e-07 0.00280339)
(4.73368e-07 -2.05168e-07 0.00280339)
(4.73968e-07 -2.05573e-07 0.00280339)
(4.74581e-07 -2.05984e-07 0.00280339)
(4.75207e-07 -2.06401e-07 0.00280339)
(4.75846e-07 -2.06821e-07 0.00280339)
(4.76496e-07 -2.07246e-07 0.00280339)
(4.77158e-07 -2.07676e-07 0.00280339)
(4.77831e-07 -2.0811e-07 0.00280339)
(4.78515e-07 -2.08548e-07 0.00280339)
(4.79209e-07 -2.0899e-07 0.00280339)
(4.79914e-07 -2.09436e-07 0.00280339)
(4.80629e-07 -2.09885e-07 0.00280339)
(4.81354e-07 -2.10337e-07 0.00280339)
(4.82088e-07 -2.10793e-07 0.00280339)
(4.82831e-07 -2.11252e-07 0.00280339)
(4.83583e-07 -2.11714e-07 0.00280339)
(4.84344e-07 -2.12177e-07 0.00280339)
(5.51036e-07 -2.47931e-07 0.00280339)
(5.46121e-07 -2.45067e-07 0.00280339)
(5.41426e-07 -2.42332e-07 0.00280339)
(5.36939e-07 -2.39739e-07 0.00280339)
(5.32654e-07 -2.37272e-07 0.00280339)
(5.2856e-07 -2.3493e-07 0.00280339)
(5.2465e-07 -2.32704e-07 0.00280339)
(5.20915e-07 -2.30591e-07 0.00280339)
(5.17348e-07 -2.28585e-07 0.00280339)
(5.13942e-07 -2.26681e-07 0.00280339)
(5.1069e-07 -2.24874e-07 0.00280339)
(5.07586e-07 -2.23161e-07 0.00280339)
(5.04624e-07 -2.21537e-07 0.00280339)
(5.01798e-07 -2.19998e-07 0.00280339)
(4.99103e-07 -2.18541e-07 0.00280339)
(4.96532e-07 -2.17162e-07 0.00280339)
(4.94082e-07 -2.15857e-07 0.00280339)
(4.91748e-07 -2.14624e-07 0.00280339)
(4.89524e-07 -2.13459e-07 0.00280339)
(4.87408e-07 -2.1236e-07 0.00280339)
(4.85394e-07 -2.11324e-07 0.00280339)
(4.83479e-07 -2.10348e-07 0.00280339)
(4.81659e-07 -2.0943e-07 0.00280339)
(4.7993e-07 -2.08567e-07 0.00280339)
(4.7829e-07 -2.07758e-07 0.00280339)
(4.76735e-07 -2.06999e-07 0.00280339)
(4.75262e-07 -2.0629e-07 0.00280339)
(4.73867e-07 -2.05627e-07 0.00280339)
(4.72549e-07 -2.0501e-07 0.00280339)
(4.71304e-07 -2.04437e-07 0.00280339)
(4.7013e-07 -2.03905e-07 0.00280339)
(4.69024e-07 -2.03413e-07 0.00280339)
(4.67984e-07 -2.02959e-07 0.00280339)
(4.67007e-07 -2.02543e-07 0.00280339)
(4.66092e-07 -2.02162e-07 0.00280339)
(4.65237e-07 -2.01816e-07 0.00280339)
(4.64439e-07 -2.01503e-07 0.00280339)
(4.63696e-07 -2.01221e-07 0.00280339)
(4.63007e-07 -2.0097e-07 0.00280339)
(4.6237e-07 -2.00748e-07 0.00280339)
(4.61783e-07 -2.00555e-07 0.00280339)
(4.61244e-07 -2.00389e-07 0.00280339)
(4.60752e-07 -2.00249e-07 0.00280339)
(4.60306e-07 -2.00135e-07 0.00280339)
(4.59904e-07 -2.00044e-07 0.00280339)
(4.59544e-07 -1.99978e-07 0.00280339)
(4.59225e-07 -1.99934e-07 0.00280339)
(4.58946e-07 -1.99911e-07 0.00280339)
(4.58706e-07 -1.9991e-07 0.00280339)
(4.58503e-07 -1.99929e-07 0.00280339)
(4.58337e-07 -1.99967e-07 0.00280339)
(4.58205e-07 -2.00025e-07 0.00280339)
(4.58108e-07 -2.001e-07 0.00280339)
(4.58044e-07 -2.00193e-07 0.00280339)
(4.58012e-07 -2.00303e-07 0.00280339)
(4.58011e-07 -2.00428e-07 0.00280339)
(4.5804e-07 -2.0057e-07 0.00280339)
(4.58098e-07 -2.00727e-07 0.00280339)
(4.58184e-07 -2.00898e-07 0.00280339)
(4.58298e-07 -2.01083e-07 0.00280339)
(4.58439e-07 -2.01282e-07 0.00280339)
(4.58606e-07 -2.01493e-07 0.00280339)
(4.58797e-07 -2.01718e-07 0.00280339)
(4.59014e-07 -2.01954e-07 0.00280339)
(4.59253e-07 -2.02202e-07 0.00280339)
(4.59516e-07 -2.02462e-07 0.00280339)
(4.59802e-07 -2.02732e-07 0.00280339)
(4.60109e-07 -2.03013e-07 0.00280339)
(4.60437e-07 -2.03304e-07 0.00280339)
(4.60785e-07 -2.03604e-07 0.00280339)
(4.61153e-07 -2.03914e-07 0.00280339)
(4.61541e-07 -2.04233e-07 0.00280339)
(4.61948e-07 -2.0456e-07 0.00280339)
(4.62372e-07 -2.04896e-07 0.00280339)
(4.62815e-07 -2.0524e-07 0.00280339)
(4.63274e-07 -2.05592e-07 0.00280339)
(4.63751e-07 -2.05951e-07 0.00280339)
(4.64243e-07 -2.06318e-07 0.00280339)
(4.64751e-07 -2.06691e-07 0.00280339)
(4.65275e-07 -2.0707e-07 0.00280339)
(4.65814e-07 -2.07457e-07 0.00280339)
(4.66368e-07 -2.07849e-07 0.00280339)
(4.66935e-07 -2.08247e-07 0.00280339)
(4.67516e-07 -2.08651e-07 0.00280339)
(4.68109e-07 -2.09059e-07 0.00280339)
(4.68717e-07 -2.09474e-07 0.00280339)
(4.69337e-07 -2.09894e-07 0.00280339)
(4.6997e-07 -2.10319e-07 0.00280339)
(4.70614e-07 -2.10748e-07 0.00280339)
(4.71269e-07 -2.11181e-07 0.00280339)
(4.71936e-07 -2.11618e-07 0.00280339)
(4.72614e-07 -2.1206e-07 0.00280339)
(4.73302e-07 -2.12505e-07 0.00280339)
(4.74e-07 -2.12954e-07 0.00280339)
(4.74709e-07 -2.13407e-07 0.00280339)
(4.75427e-07 -2.13863e-07 0.00280339)
(4.76155e-07 -2.14322e-07 0.00280339)
(4.76892e-07 -2.14784e-07 0.00280339)
(4.77637e-07 -2.15249e-07 0.00280339)
(4.78392e-07 -2.15715e-07 0.00280339)
(5.46209e-07 -2.49792e-07 0.00280339)
(5.41254e-07 -2.46999e-07 0.00280339)
(5.36521e-07 -2.44333e-07 0.00280339)
(5.31997e-07 -2.41804e-07 0.00280339)
(5.27678e-07 -2.39399e-07 0.00280339)
(5.23551e-07 -2.37115e-07 0.00280339)
(5.19609e-07 -2.34946e-07 0.00280339)
(5.15844e-07 -2.32887e-07 0.00280339)
(5.12249e-07 -2.30932e-07 0.00280339)
(5.08816e-07 -2.29077e-07 0.00280339)
(5.05539e-07 -2.27317e-07 0.00280339)
(5.02411e-07 -2.25648e-07 0.00280339)
(4.99425e-07 -2.24067e-07 0.00280339)
(4.96577e-07 -2.22569e-07 0.00280339)
(4.9386e-07 -2.2115e-07 0.00280339)
(4.91269e-07 -2.19808e-07 0.00280339)
(4.888e-07 -2.18539e-07 0.00280339)
(4.86447e-07 -2.1734e-07 0.00280339)
(4.84206e-07 -2.16207e-07 0.00280339)
(4.82072e-07 -2.15139e-07 0.00280339)
(4.80042e-07 -2.14133e-07 0.00280339)
(4.78111e-07 -2.13185e-07 0.00280339)
(4.76277e-07 -2.12295e-07 0.00280339)
(4.74534e-07 -2.11458e-07 0.00280339)
(4.7288e-07 -2.10673e-07 0.00280339)
(4.71311e-07 -2.09939e-07 0.00280339)
(4.69825e-07 -2.09253e-07 0.00280339)
(4.68419e-07 -2.08612e-07 0.00280339)
(4.67088e-07 -2.08016e-07 0.00280339)
(4.65832e-07 -2.07463e-07 0.00280339)
(4.64647e-07 -2.0695e-07 0.00280339)
(4.6353e-07 -2.06477e-07 0.00280339)
(4.6248e-07 -2.06041e-07 0.00280339)
(4.61494e-07 -2.05642e-07 0.00280339)
(4.60569e-07 -2.05278e-07 0.00280339)
(4.59704e-07 -2.04948e-07 0.00280339)
(4.58897e-07 -2.0465e-07 0.00280339)
(4.58146e-07 -2.04383e-07 0.00280339)
(4.57448e-07 -2.04146e-07 0.00280339)
(4.56802e-07 -2.03938e-07 0.00280339)
(4.56207e-07 -2.03757e-07 0.00280339)
(4.55661e-07 -2.03604e-07 0.00280339)
(4.55161e-07 -2.03476e-07 0.00280339)
(4.54707e-07 -2.03373e-07 0.00280339)
(4.54297e-07 -2.03294e-07 0.00280339)
(4.5393e-07 -2.03238e-07 0.00280339)
(4.53604e-07 -2.03205e-07 0.00280339)
(4.53319e-07 -2.03192e-07 0.00280339)
(4.53072e-07 -2.03201e-07 0.00280339)
(4.52862e-07 -2.03229e-07 0.00280339)
(4.52689e-07 -2.03277e-07 0.00280339)
(4.52551e-07 -2.03343e-07 0.00280339)
(4.52447e-07 -2.03426e-07 0.00280339)
(4.52377e-07 -2.03527e-07 0.00280339)
(4.52338e-07 -2.03645e-07 0.00280339)
(4.52331e-07 -2.03778e-07 0.00280339)
(4.52354e-07 -2.03927e-07 0.00280339)
(4.52406e-07 -2.04091e-07 0.00280339)
(4.52486e-07 -2.04269e-07 0.00280339)
(4.52594e-07 -2.04461e-07 0.00280339)
(4.52729e-07 -2.04666e-07 0.00280339)
(4.52889e-07 -2.04884e-07 0.00280339)
(4.53075e-07 -2.05115e-07 0.00280339)
(4.53286e-07 -2.05357e-07 0.00280339)
(4.5352e-07 -2.05611e-07 0.00280339)
(4.53777e-07 -2.05876e-07 0.00280339)
(4.54056e-07 -2.06152e-07 0.00280339)
(4.54357e-07 -2.06438e-07 0.00280339)
(4.54679e-07 -2.06734e-07 0.00280339)
(4.55022e-07 -2.0704e-07 0.00280339)
(4.55384e-07 -2.07355e-07 0.00280339)
(4.55766e-07 -2.07678e-07 0.00280339)
(4.56167e-07 -2.08011e-07 0.00280339)
(4.56586e-07 -2.08351e-07 0.00280339)
(4.57022e-07 -2.087e-07 0.00280339)
(4.57476e-07 -2.09056e-07 0.00280339)
(4.57946e-07 -2.0942e-07 0.00280339)
(4.58433e-07 -2.0979e-07 0.00280339)
(4.58934e-07 -2.10168e-07 0.00280339)
(4.59453e-07 -2.10551e-07 0.00280339)
(4.59988e-07 -2.10941e-07 0.00280339)
(4.60534e-07 -2.11338e-07 0.00280339)
(4.61095e-07 -2.1174e-07 0.00280339)
(4.6167e-07 -2.12149e-07 0.00280339)
(4.62257e-07 -2.12561e-07 0.00280339)
(4.6286e-07 -2.12977e-07 0.00280339)
(4.63475e-07 -2.13401e-07 0.00280339)
(4.641e-07 -2.13829e-07 0.00280339)
(4.64738e-07 -2.14262e-07 0.00280339)
(4.65387e-07 -2.14699e-07 0.00280339)
(4.66047e-07 -2.1514e-07 0.00280339)
(4.66719e-07 -2.15585e-07 0.00280339)
(4.674e-07 -2.16034e-07 0.00280339)
(4.68093e-07 -2.16486e-07 0.00280339)
(4.68795e-07 -2.16942e-07 0.00280339)
(4.69507e-07 -2.17402e-07 0.00280339)
(4.70228e-07 -2.17864e-07 0.00280339)
(4.70958e-07 -2.18329e-07 0.00280339)
(4.71697e-07 -2.18798e-07 0.00280339)
(4.72445e-07 -2.19267e-07 0.00280339)
(5.41351e-07 -2.51638e-07 0.00280339)
(5.36358e-07 -2.48918e-07 0.00280339)
(5.31587e-07 -2.46321e-07 0.00280339)
(5.27029e-07 -2.43858e-07 0.00280339)
(5.22676e-07 -2.41516e-07 0.00280339)
(5.18518e-07 -2.39293e-07 0.00280339)
(5.14547e-07 -2.37181e-07 0.00280339)
(5.10754e-07 -2.35176e-07 0.00280339)
(5.07132e-07 -2.33273e-07 0.00280339)
(5.03673e-07 -2.31468e-07 0.00280339)
(5.00371e-07 -2.29756e-07 0.00280339)
(4.9722e-07 -2.28132e-07 0.00280339)
(4.94212e-07 -2.26594e-07 0.00280339)
(4.91342e-07 -2.25137e-07 0.00280339)
(4.88605e-07 -2.23758e-07 0.00280339)
(4.85995e-07 -2.22454e-07 0.00280339)
(4.83507e-07 -2.21221e-07 0.00280339)
(4.81137e-07 -2.20056e-07 0.00280339)
(4.78879e-07 -2.18957e-07 0.00280339)
(4.76729e-07 -2.17921e-07 0.00280339)
(4.74683e-07 -2.16945e-07 0.00280339)
(4.72738e-07 -2.16026e-07 0.00280339)
(4.70889e-07 -2.15163e-07 0.00280339)
(4.69132e-07 -2.14353e-07 0.00280339)
(4.67465e-07 -2.13594e-07 0.00280339)
(4.65884e-07 -2.12884e-07 0.00280339)
(4.64386e-07 -2.12221e-07 0.00280339)
(4.62967e-07 -2.11603e-07 0.00280339)
(4.61626e-07 -2.11029e-07 0.00280339)
(4.60359e-07 -2.10496e-07 0.00280339)
(4.59163e-07 -2.10003e-07 0.00280339)
(4.58036e-07 -2.09549e-07 0.00280339)
(4.56976e-07 -2.09131e-07 0.00280339)
(4.5598e-07 -2.0875e-07 0.00280339)
(4.55047e-07 -2.08402e-07 0.00280339)
(4.54173e-07 -2.08088e-07 0.00280339)
(4.53357e-07 -2.07805e-07 0.00280339)
(4.52597e-07 -2.07553e-07 0.00280339)
(4.51891e-07 -2.07331e-07 0.00280339)
(4.51237e-07 -2.07136e-07 0.00280339)
(4.50634e-07 -2.06969e-07 0.00280339)
(4.5008e-07 -2.06829e-07 0.00280339)
(4.49573e-07 -2.06713e-07 0.00280339)
(4.49112e-07 -2.06622e-07 0.00280339)
(4.48695e-07 -2.06554e-07 0.00280339)
(4.48321e-07 -2.06509e-07 0.00280339)
(4.47988e-07 -2.06486e-07 0.00280339)
(4.47695e-07 -2.06484e-07 0.00280339)
(4.47442e-07 -2.06502e-07 0.00280339)
(4.47226e-07 -2.0654e-07 0.00280339)
(4.47046e-07 -2.06597e-07 0.00280339)
(4.46902e-07 -2.06672e-07 0.00280339)
(4.46792e-07 -2.06764e-07 0.00280339)
(4.46715e-07 -2.06873e-07 0.00280339)
(4.4667e-07 -2.06999e-07 0.00280339)
(4.46657e-07 -2.0714e-07 0.00280339)
(4.46673e-07 -2.07296e-07 0.00280339)
(4.46719e-07 -2.07467e-07 0.00280339)
(4.46794e-07 -2.07652e-07 0.00280339)
(4.46896e-07 -2.07851e-07 0.00280339)
(4.47025e-07 -2.08063e-07 0.00280339)
(4.47179e-07 -2.08287e-07 0.00280339)
(4.47359e-07 -2.08524e-07 0.00280339)
(4.47564e-07 -2.08772e-07 0.00280339)
(4.47792e-07 -2.09032e-07 0.00280339)
(4.48043e-07 -2.09303e-07 0.00280339)
(4.48317e-07 -2.09584e-07 0.00280339)
(4.48612e-07 -2.09876e-07 0.00280339)
(4.48929e-07 -2.10177e-07 0.00280339)
(4.49265e-07 -2.10488e-07 0.00280339)
(4.49622e-07 -2.10807e-07 0.00280339)
(4.49998e-07 -2.11136e-07 0.00280339)