/*--------------------------------*- C++ -*----------------------------------*\
| =========                 |                                                 |
| \\      /  F ield         | foam-extend: Open Source CFD                    |
|  \\    /   O peration     | Version:     4.1                                |
|   \\  /    A nd           | Web:         http://www.foam-extend.org         |
|    \\/     M anipulation  |                                                 |
\*---------------------------------------------------------------------------*/
FoamFile
{
    version     2.0;
    format      ascii;
    class       volScalarField;
    location    "1";
    object      sigmaHyd;
}
// * * * * * * * * * * * * * * * * * * * * * * * * * * * * * * * * * * * * * //

dimensions      [1 -1 -2 0 0 0 0];

internalField   nonuniform List<scalar> 
100000
(
-47062.2129815571
-46941.77024116243
-46964.96619729497
-46914.78110712429
-46904.06406876562
-46874.050650908
-46855.25314964392
-46831.7456245087
-46811.76370930606
-46790.97354688734
-46771.58401280696
-46752.40281981666
-46734.00978721281
-46716.06352760576
-46698.70526628495
-46681.82665297533
-46665.45026945585
-46649.533170544
-46634.06817654876
-46619.02984819801
-46604.40405325598
-46590.17315484161
-46576.32142846847
-46562.83334282938
-46549.69492076671
-46536.89245440213
-46524.4124953674
-46512.24232384021
-46500.37044735668
-46488.78536555045
-46477.47610317467
-46466.43201787049
-46455.64283229322
-46445.09952754075
-46434.79305953353
-46424.71404707321
-46414.85422968106
-46405.20585690188
-46395.7608508765
-46386.51178457543
-46377.4519435995
-46368.57433207132
-46359.87197637308
-46351.33866516531
-46342.96858642741
-46334.75578273839
-46326.6944848568
-46318.77942540273
-46311.0055046977
-46303.36755971787
-46295.86064499304
-46288.4801971792
-46281.22181406031
-46274.08112374417
-46267.05389158599
-46260.13609129573
-46253.32386822075
-46246.61343027619
-46240.00104834359
-46233.48315405887
-46227.05638418997
-46220.71752852103
-46214.46345436722
-46208.29108361652
-46202.19743387878
-46196.17964634903
-46190.23495058571
-46184.36061990899
-46178.55399152591
-46172.81251734053
-46167.13376800781
-46161.5153894704
-46155.9550627144
-46150.45052833563
-46144.99965248675
-46139.60042403388
-46134.25088018797
-46128.94908804185
-46123.69322673778
-46118.48158884531
-46113.31258613589
-46108.18472043928
-46103.09681513786
-46098.04766695463
-46093.03694852806
-46088.06389717102
-46083.130825584
-46078.2362703258
-46073.39116851211
-46068.58773171065
-46063.87057449151
-46059.19127295524
-46054.73370485723
-46050.23495568124
-46046.48943615364
-46042.15072229997
-46040.79314328646
-46035.69380273783
-46043.44629086232
-46015.60832118741
-48766.81956919919
-48604.70974537862
-48599.01618385407
-48514.74147117931
-48474.01995434028
-48413.20558956081
-48365.30077008322
-48313.03410374276
-48265.29647288509
-48217.37122349626
-48171.6246463467
-48126.74297130714
-48083.33217301808
-48041.00170088687
-47999.88286707734
-47959.84029597454
-47920.87970947333
-47882.93582425984
-47845.98406381033
-47809.98130285971
-47774.89560143054
-47740.69252558557
-47707.34112659629
-47674.81052328752
-47643.07192539884
-47612.09742679317
-47581.86043292457
-47552.33508668744
-47523.49745385072
-47495.32396685798
-47467.79183788836
-47440.87993446468
-47414.56722557018
-47388.83360939522
-47363.66062371575
-47339.02979307477
-47314.92296820205
-47291.32347417815
-47268.21526716911
-47245.58246145293
-47223.40996387332
-47201.6833800737
-47180.38860127886
-47159.51198033364
-47139.04061588159
-47118.96210670778
-47099.26433501397
-47079.93561963887
-47060.96479813402
-47042.34104699823
-47024.05382600481
-47006.09302716385
-46988.44893925926
-46971.11214012185
-46954.07352041106
-46937.32428215037
-46920.85591322697
-46904.66015768013
-46888.7290080664
-46873.05472984257
-46857.62988372281
-46842.44729581503
-46827.50002424202
-46812.78133572958
-46798.2846921345
-46784.00375854538
-46769.93240578852
-46756.06467649715
-46742.39477467124
-46728.91710945377
-46715.62630607659
-46702.51715357974
-46689.58457294767
-46676.82365707047
-46664.22971475007
-46651.79823444903
-46639.5248420127
-46627.40530028433
-46615.4356065866
-46603.61192320536
-46591.93069536245
-46580.38839404817
-46568.98216450255
-46557.70868788949
-46546.56656646874
-46535.55194062053
-46524.66770603174
-46513.90551306745
-46503.28266104263
-46492.7705055277
-46482.44065377727
-46472.17573960803
-46462.25913393973
-46452.19968993663
-46443.13280193082
-46432.98816192182
-46426.40963684774
-46414.58294768428
-46416.94756617265
-46377.39539863978
-50470.54837431612
-50266.81216534508
-50232.25358560477
-50113.91233559785
-50043.2074236574
-49951.610110576
-49874.6153429287
-49793.60764515826
-49718.13098357877
-49643.08644795992
-49570.99882288817
-49500.43231937155
-49432.01794574857
-49365.31744091978
-49300.45265128982
-49237.25934871923
-49175.72706408326
-49115.76954985117
-49057.34363098184
-49000.38797294398
-48944.85398336116
-48890.69040319701
-48837.85045942575
-48786.28789578893
-48735.95954302898
-48686.82332346366
-48638.83934068405
-48591.96847866596
-48546.17418628759
-48501.42165826945
-48457.67621608444
-48414.90496577597
-48373.07689403735
-48332.1618048804
-48292.13061293955
-48252.95546888198
-48214.60956907793
-48177.06705976614
-48140.30297362083
-48104.29347948803
-48069.01574868443
-48034.44742900614
-48000.56689603799
-47967.35359214784
-47934.78775573204
-47902.85012129129
-47871.52211430515
-47840.78598372408
-47810.62456695819
-47781.02113205226
-47751.9594794215
-47723.42409919488
-47695.40005922475
-47667.87283990731
-47640.82837694533
-47614.25311693035
-47588.1339664752
-47562.458220406
-47537.21354557217
-47512.38800189646
-47487.97009296683
-47463.94874132892
-47440.31320880204
-47417.05305574957
-47394.15816599922
-47371.61876408846
-47349.42538407908
-47327.56882505398
-47306.04014788973
-47284.83071221291
-47263.93219122131
-47243.33653085682
-47223.03590307575
-47203.02272744751
-47183.2897331994
-47163.8299356026
-47144.63659135001
-47125.7031833076
-47107.02356467537
-47088.59182215355
-47070.40252016622
-47052.45027047258
-47034.73086880425
-47017.23924325192
-46999.97373643771
-46982.92826433003
-46966.10857594955
-46949.50035647373
-46933.13377727057
-46916.95721990537
-46901.09064743456
-46885.32300567721
-46870.11682710153
-46854.60888385789
-46840.59760971402
-46824.59019156585
-46813.64156802961
-46793.76305742723
-46792.72543047481
-46736.92122171337
-52173.01142593576
-51927.68566750948
-51864.28699029468
-51711.90655460791
-51611.24411378642
-51488.88990777189
-51382.82944759261
-51273.10468146887
-51169.91272789628
-51067.77168331217
-50969.36435837589
-50873.13451754251
-50779.73793209367
-50688.68709852156
-50600.09567000546
-50513.77120521293
-50429.68581264534
-50347.7322970877
-50267.84985147574
-50189.9585286744
-50113.99279784716
-50039.88470872534
-49967.57190734232
-49896.99283832024
-49828.08988250389
-49760.80643468702
-49695.08927215798
-49630.88705074018
-49568.15011549996
-49506.8312868623
-49446.88518282373
-49388.26773872237
-49330.93658666925
-49274.85158457559
-49219.97420166353
-49166.26666040423
-49113.69269192496
-49062.21794394661
-49011.80903300436
-48962.43355249189
-48914.06069095282
-48866.66070187057
-48820.20456020263
-48774.66436338906
-48730.01346507321
-48686.22606623907
-48643.27713525985
-48601.1426327216
-48559.79938829308
-48519.22489596915
-48479.39735260973
-48440.29579769408
-48401.90002877105
-48364.19045636572
-48327.14810362225
-48290.75465673644
-48254.99241919507
-48219.8442220224
-48185.2934200696
-48151.32391075597
-48117.92014395828
-48085.06709540186
-48052.75022670656
-48020.95543521483
-47989.66903725627
-47958.8777876321
-47928.56887141565
-47898.72984924066
-47869.34863905527
-47840.41355671577
-47811.91332629663
-47783.83702775774
-47756.17405607626
-47728.91414920533
-47702.0474387358
-47675.56441136704
-47649.4558768067
-47623.71294660045
-47598.32719459049
-47573.29046739373
-47548.59519328591
-47524.23377691619
-47500.20000566766
-47476.48640168852
-47453.08949560928
-47429.99992157918
-47407.2223153734
-47384.7362227663
-47362.57340958659
-47340.66707340455
-47319.14880828423
-47297.76490923133
-47277.02446430385
-47255.94244549541
-47236.47397520902
-47214.79330158262
-47198.41509407102
-47172.53909614708
-47166.04866050349
-47103.25894126546
-53873.78890203916
-53586.92191474464
-53494.71621559615
-53308.33403563382
-53177.74749046465
-53024.66994912938
-52889.57548407667
-52751.16476607086
-52620.28710513886
-52491.07912989338
-52366.38067730044
-52244.51460682606
-52126.16249919633
-52010.78766819281
-51898.49464927815
-51789.0633001317
-51682.44889861711
-51578.52282946157
-51477.20652503008
-51378.40145422828
-51282.02537504985
-51187.99387612557
-51096.22894986352
-51006.65309777431
-50919.19449852339
-50833.78318979634
-50750.35168530513
-50668.83558199355
-50589.17360177418
-50511.30627755832
-50435.17612930915
-50360.72846479529
-50287.91060481845
-50216.67170869627
-50146.9631796781
-50078.73809661488
-50011.95106935127
-49946.5585611215
-49882.51865174217
-49819.79094560463
-49758.33667018338
-49698.11826254994
-49639.09934218294
-49581.24496108866
-49524.52154701653
-49468.89660500992
-49414.33868667737
-49360.81756055916
-49308.30405449282
-49256.76984403913
-49206.18750959145
-49156.53067526923
-49107.7738865387
-49059.89248089943
-49012.86257810438
-48966.66109789086
-48921.2657369329
-48876.65489083591
-48832.80760800587
-48789.70359481178
-48747.32325569418
-48705.64765678469
-48664.65845574228
-48624.33785928197
-48584.66862079993
-48545.63404305268
-48507.21796144112
-48469.40469590577
-48432.17902178012
-48395.52619694388
-48359.43198262302
-48323.8825986955
-48288.8646671941
-48254.36522980492
-48220.37180937095
-48186.87236744562
-48153.85525956794
-48121.30919874777
-48089.22344797402
-48057.58759619507
-48026.39192973969
-47995.62667773589
-47965.28368294839
-47935.35321417398
-47905.83019484852
-47876.7023354963
-47847.97356182427
-47819.61796585381
-47791.66991825509
-47764.04864904831
-47736.90048477417
-47709.92958552734
-47683.70222066515
-47657.10135211431
-47632.2812305335
-47605.01373470124
-47583.4538897431
-47551.66015664714
-47540.37675772189
-47470.89480068345
-55572.47164217351
-55244.12024357736
-55123.14659607933
-54902.80720700095
-54742.33684248949
-54558.57686348543
-54394.48643132964
-54227.42798254042
-54068.90109045488
-53912.66135026656
-53761.70641146709
-53614.23802779726
-53470.96292261317
-53331.2957293232
-53195.3321500041
-53062.82414515241
-52933.71014127077
-52807.83984520491
-52685.11723765953
-52565.42571220571
-52448.66610853084
-52334.73665535803
-52223.54427815428
-52114.99667526312
-52009.00649760917
-51905.48998572298
-51804.36704276557
-51705.55985980047
-51608.99423487068
-51514.59923660937
-51422.30612891094
-51332.04872673535
-51243.76361839962
-51157.39007748612
-51072.86964617577
-50990.1456054739
-50909.16341726599
-50829.87088372231
-50752.21751922974
-50676.15459896445
-50601.63547029031
-50528.61498182517
-50457.04933929347
-50386.89644752694
-50318.11585839183
-50250.66843946962
-50184.51632503912
-50119.6230729383
-50055.95351667335
-49993.47353991276
-49932.15010438865
-49871.95142141027
-49812.84681053715
-49754.80652812865
-49697.80178081423
-49641.80475678604
-49586.78855933355
-49532.72712126296
-49479.59518688449
-49427.36830123841
-49376.0228218703
-49325.5358933101
-49275.88538397485
-49227.04982019209
-49179.00838200955
-49131.74092131993
-49085.22793532152
-49039.45049727624
-48994.3902277727
-48950.0293293747
-48906.35060068343
-48863.33738124038
-48820.97349390581
-48779.24326258439
-48738.13157393316
-48697.6238312093
-48657.70590494612
-48618.36407490083
-48579.58522239765
-48541.35657234529
-48503.6660999172
-48466.50166498875
-48429.85283658424
-48393.70737684253
-48358.058016616
-48322.88945550752
-48288.20370669384
-48253.97031613316
-48220.22294616384
-48186.87193066676
-48154.06791684985
-48121.49445621181
-48089.74016591463
-48057.63462617651
-48027.41188819135
-47994.69804171368
-47967.9009074231
-47930.66641729344
-47914.50964394009
-47839.33165556804
-57268.64667232652
-56898.87619352323
-56749.18183674852
-56494.9375647849
-56304.63049354142
-56090.23701907056
-55897.19577090589
-55701.53388113742
-55515.40110443638
-55332.17201995346
-55155.00135301786
-54981.9701661023
-54813.81054553635
-54649.88876011479
-54490.29155890882
-54334.74231878346
-54183.16308834366
-54035.38261712244
-53891.28702456881
-53750.74070824631
-53613.62859533928
-53479.83240067103
-53349.24231787914
-53221.75132656045
-53097.25822991916
-52975.66471148471
-52856.87695432284
-52740.80476963596
-52627.36165835906
-52516.4643295053
-52408.03255340514
-52301.98942271664
-52198.26087533679
-52096.77572869579
-51997.46571447893
-51900.26474673246
-51805.10907452321
-51711.9375927563
-51620.69135663808
-51531.31347221849
-51443.74934283037
-51357.94617905627
-51273.85282316813
-51191.42006301906
-51110.60057550054
-51031.3485910504
-50953.61984574502
-50877.37170344
-50802.56298864699
-50729.1538081888
-50657.10554661063
-50586.380989391
-50516.94421451863
-50448.76043378584
-50381.7959568853
-50316.01821797969
-50251.39573573627
-50187.89801033438
-50125.49548002954
-50064.15951937802
-50003.86245219956
-49944.57750562883
-49886.27875065679
-49828.94104617923
-49772.54001744558
-49717.05205665868
-49662.45430694371
-49608.72460047903
-49555.841413861
-49503.78389049933
-49452.53186169037
-49402.06579326897
-49352.36671349771
-49303.41621731758
-49255.19652901227
-49207.69046023839
-49160.88136495119
-49114.75307319968
-49069.29008616324
-49024.47728166453
-48980.30034764561
-48936.74483201651
-48893.79808046741
-48851.445423964
-48809.67741865678
-48768.47593557258
-48727.84116584007
-48687.73874823837
-48648.20195522597
-48609.13386831167
-48570.68968481796
-48532.53543099639
-48495.28135355004
-48457.70875923312
-48422.12884495999
-48384.0263831269
-48352.06035943584
-48309.44951172286
-48288.49460121946
-48207.70116434179
-58961.90406513469
-58550.78822901311
-58372.42686421177
-58084.33947933105
-57864.2488011649
-57619.27710479593
-57397.33747594414
-57173.12385121527
-56959.43493965358
-56749.26485541764
-56545.92524812838
-56347.37730471636
-56154.37812630952
-55966.24478522781
-55783.0558749567
-55604.50694011449
-55430.50287094278
-55260.8506838388
-55095.42007265283
-54934.05685350126
-54776.62819295863
-54622.99989863663
-54473.04694558895
-54326.64656081147
-54183.68292452492
-54044.04425220291
-53907.62335285978
-53774.31679822109
-53644.02572976152
-53516.65519471008
-53392.11347205091
-53270.31248208515
-53151.16761841153
-53034.59756061413
-52920.52413305511
-52808.87172538614
-52699.56749379817
-52592.54152779378
-52487.72636922779
-52385.05695078873
-52284.4707775464
-52185.90743332975
-52089.30839956814
-51994.6173581194
-51901.78014160372
-51810.74435887185
-51721.45932744466
-51633.8762384195
-51547.94794994705
-51463.62877292238
-51380.87450559654
-51299.64255490313
-51219.89177443181
-51141.58230771821
-51064.67557616068
-50989.13428740158
-50914.92237477901
-50842.00490581558
-50770.34803234298
-50699.91896296414
-50630.68597984649
-50562.61840538816
-50495.68652895051
-50429.86153608051
-50365.11549420997
-50301.42135097129
-50238.75290191502
-50177.08472393231
-50116.39214002962
-50056.65123786897
-49997.83887687816
-49939.93263151138
-49882.91072780995
-49826.75204708902
-49771.43617008955
-49716.94331399746
-49663.25428522103
-49610.35041578491
-49558.2137654304
-49506.82680069952
-49456.17284626207
-49406.23509085341
-49356.99861587752
-49308.44638297477
-49260.5667464612
-49213.33895378476
-49166.76116791375
-49120.79568497802
-49075.47460563497
-49030.69583113439
-48986.61684938765
-48942.89281987603
-48900.14765402313
-48857.13308945688
-48816.21188373093
-48772.77503336341
-48735.66056875224
-48687.76633458764
-48662.01442712966
-48575.73212845637
-60651.83315233773
-60199.45603897232
-59992.48703210253
-59670.6262308493
-59420.81263360969
-59145.32544723138
-58894.54683323948
-58641.8395718549
-58400.65033991027
-58163.59438680374
-57934.13943383137
-57710.12618416786
-57492.33779591742
-57280.04265331308
-57073.3100321981
-56871.80726815802
-56675.42388973558
-56483.94507453348
-56297.22224847013
-56115.08372121295
-55937.38007215085
-55763.95998768699
-55594.68280143328
-55429.41106396778
-55268.01447932142
-55110.36706160449
-54956.34829879658
-54805.84208112468
-54658.73712515354
-54514.9264884365
-54374.30710587645
-54236.77995974747
-54102.24980383943
-53970.62509881389
-53841.8178758075
-53715.74305020169
-53592.31864155202
-53471.46596294453
-53353.10908885526
-53237.17478490531
-53123.5926613275
-53012.29468955273
-52903.21502873552
-52796.29026786291
-52691.4593737567
-52588.6633670772
-52487.84519188276
-52388.94984152944
-52291.92420328897
-52196.71684394991
-52103.27799112767
-52011.5596533682
-51921.5154740217
-51833.10055428238
-51746.27142717042
-51660.98608185891
-51577.20388954474
-51494.88548311339
-51413.99271554824
-51334.48864686492
-51256.33754223265
-51179.50481873644
-51103.95697921816
-51029.6615459981
-50956.58703588266
-50884.70295003858
-50813.97974289873
-50744.38875164816
-50675.90215349407
-50608.49297851181
-50542.13511198814
-50476.80322914146
-50412.47272920689
-50349.11975002372
-50286.72122087918
-50225.25478553412
-50164.69873527102
-50105.03193539265
-50046.23403260877
-49988.28511105942
-49931.16614992038
-49874.85798482398
-49819.34340762984
-49764.6030207353
-49710.62300927551
-49657.38019054841
-49604.87088190135
-49553.05454805452
-49501.96229827775
-49451.4876105726
-49401.79000554283
-49352.51525884478
-49304.29961609959
-49255.86804699553
-49209.6304075747
-49160.88978636018
-49118.65047970173
-49065.50321369693
-49034.95712041081
-48943.23875444023
-62338.02461078759
-61844.47959813836
-61608.96849067197
-61253.41228807822
-60973.94382017061
-60668.01052943528
-60388.45857941195
-60107.32324604008
-59838.6968134192
-59574.81571874369
-59319.30480607201
-59069.88483111113
-58827.36364141807
-58590.96090702547
-58360.73837733134
-58136.33458405155
-57917.62215353837
-57704.36587872586
-57496.39964729291
-57293.53301777598
-57095.59990564122
-56902.43282028748
-56713.87541909827
-56529.77500753265
-56349.98696275577
-56174.37152945215
-56002.79476717534
-55835.12767011835
-55671.24671167701
-55511.03311825256
-55354.37237380655
-55201.15449729636
-55051.27372060899
-54904.62830949605
-54761.120469293
-54620.65568746951
-54483.14289030893
-54348.49462354307
-54216.62650157871
-54087.45713988399
-53960.90829603941
-53836.90433761851
-53715.37208455637
-53596.24108287621
-53479.44347899404
-53364.91367300491
-53252.58823438903
-53142.40601239425
-53034.30793972933
-52928.23682970795
-52824.13736033739
-52721.95615974818
-52621.64165494665
-52523.14392062336
-52426.41463473495
-52331.40706943612
-52238.07602266831
-52146.37771096697
-52056.26971110226
-51967.71093262163
-51880.66162235633
-51795.08331074187
-51710.93872928704
-51628.1917346904
-51546.80728866895
-51466.75144908291
-51387.99133377505
-51310.49504225778
-51234.23160741685
-51159.17100689808
-51085.28416703062
-51012.54289070345
-50940.91977388141
-50870.38820575871
-50800.92242757615
-50732.49746943314
-50665.08908394652
-50598.67365619262
-50533.22841088776
-50468.73106554467
-50405.1603006034
-50342.49467881737
-50280.71478263705
-50219.79894639071
-50159.73121204128
-50100.48605176683
-50042.05788264709
-49984.40356641421
-49927.55316680106
-49871.39654878982
-49816.09468369689
-49761.28580128006
-49707.61621706775
-49653.78861830194
-49602.25299456798
-49548.23531621653
-49500.88739706628
-49442.51952503335
-49407.17979870444
-49310.08782237614
-64020.06917901323
-63485.46031909573
-63221.47893944383
-62832.31286779865
-62523.26437132667
-62186.96254786655
-61878.71012040723
-61569.21763953
-61273.22329054452
-60982.58555438299
-60701.08429148257
-60426.32085136063
-60159.12954728336
-59898.6804504881
-59645.02654355031
-59397.77916688878
-59156.79432195386
-58921.81534517244
-58692.65876457327
-58469.11609928205
-58251.0044751576
-58038.13988997035
-57830.35053241367
-57627.46874012014
-57429.33541090051
-57235.79690880294
-57046.70607483551
-56861.92110667052
-56681.30613914796
-56504.73060066488
-56332.06863214623
-56163.19928474996
-55998.0062528602
-55836.37766649952
-55678.20594045799
-55523.3871467104
-55371.82113365502
-55223.41170657291
-55078.06606997003
-54935.69468989137
-54796.21145295596
-54659.53318326407
-54525.57940837092
-54394.27260247908
-54265.53810004814
-54139.30373035081
-54015.49969670541
-53894.05870365586
-53774.91576338349
-53658.00795363818
-53543.27439196092
-53430.6563428396
-53320.0970542331
-53211.54158009726
-53104.93673709421
-53000.231098651
-52897.37490803912
-52796.31996484531
-52697.01957624118
-52599.42852427588
-52503.50304918209
-52409.20079023746
-52316.48071154219
-52225.30302358355
-52135.62915036896
-52047.42171282866
-51960.6444940482
-51875.26235888781
-51791.24119461856
-51708.54791262023
-51627.15045984561
-51547.01776020022
-51468.11963035752
-51390.4267579709
-51313.91073808754
-51238.54400693637
-51164.29978830305
-51091.15199898313
-51019.07544118819
-50948.04544659867
-50878.03837409979
-50809.0305067072
-50741.00023490491
-50673.92370952066
-50607.78293693681
-50542.55022765841
-50478.21826259166
-50414.74150281127
-50352.14892338015
-50290.32714413568
-50229.43833270681
-50169.11382339272
-50110.00900500589
-50050.80568899122
-49993.99083929303
-49934.71774388832
-49882.27580647247
-49818.71082312436
-49778.5775341667
-49676.16710836415
-65697.5592263724
-65122.00012587327
-64829.62680891617
-64406.94500757907
-64068.3984710116
-63701.81136176344
-63364.93833344486
-63027.16788804388
-62703.88087149405
-62386.55987879157
-62079.14084997163
-61779.10439060851
-61487.31049845067
-61202.88143400995
-60925.86124933494
-60655.83329545041
-60392.63731760876
-60135.99566203663
-59885.70730642646
-59641.54553852214
-59403.31092957244
-59170.80318496322
-58943.83489646516
-58722.22338984317
-58505.79527408815
-58294.38307864111
-58087.82635251889
-57885.97056869106
-57688.6676144981
-57495.77511890039
-57307.15589701648
-57122.67808727328
-56942.21486781959
-56765.64425337048
-56592.84888964491
-56423.71546827987
-56258.13481989402
-56096.00200547576
-55937.21580190676
-55781.6785928291
-55629.2964394623
-55479.97860217831
-55333.63733777002
-55190.18809150333
-55049.54938457787
-54911.64248541475
-54776.39128014552
-54643.72234680125
-54513.56476029607
-54385.84987906706
-54260.51130062931
-54137.48493650177
-54016.70885651328
-53898.12311696674
-53781.66969231459
-53667.29245535781
-53554.93710007383
-53444.55103296436
-53336.08331005136
-53229.48459100801
-53124.70711465216
-53021.70463649675
-52920.43235649198
-52820.84684325018
-52722.90599489953
-52626.56901044124
-52531.79634923965
-52438.54965325562
-52346.79168683198
-52256.48632394869
-52167.59854372156
-52080.09436986268
-51993.94080008813
-51909.10579367328
-51825.55830276315
-51743.26819149189
-51662.20617594916
-51582.34373152683
-51503.65328611555
-51426.10784536465
-51349.68149762349
-51274.34828758055
-51200.08442430272
-51126.86388454764
-51054.66664097652
-50983.46285743196
-50913.24346897209
-50843.9607714624
-50775.64261142164
-50708.17262533877
-50641.71406775854
-50575.89183371516
-50511.36962238609
-50446.80991421568
-50384.73349343306
-50320.22596367366
-50262.70420496276
-50193.96652910011
-50149.04149548534
-50041.36933868255
-67370.08774638473
-66753.70255621054
-66433.02224864626
-65976.9250749179
-65608.97008006164
-65212.1894182035
-64846.7816911944
-64480.81826869149
-64130.32141935835
-63786.39747262944
-63453.13821317354
-63127.90507951585
-62811.58288858017
-62503.24584570109
-62202.9295704842
-61910.18966531732
-61624.84941027689
-61346.61010195675
-61075.25342473308
-60810.53459276968
-60552.23747749975
-60300.14550301586
-60054.05586207111
-59813.77089419909
-59579.10287703913
-59349.87059420119
-59125.90037233512
-58907.02496547595
-58693.08404531189
-58483.92349950039
-58279.3948549593
-58079.35536019276
-57883.66767931511
-57692.19975479352
-57504.82454629077
-57321.41936409562
-57141.86600565382
-56966.05085395375
-56793.86429694704
-56625.2006281496
-56459.95812287807
-56298.03851546992
-56139.34678251233
-55983.79135765199
-55831.28400538763
-55681.73945065663
-55535.07524862881
-55391.21187447409
-55250.07250724584
-55111.58279356512
-54975.67081401549
-54842.26715765105
-54711.30474091492
-54582.71862101766
-54456.44593287128
-54332.4258719785
-54210.59960602278
-54090.9101583735
-53973.30233998122
-53857.72269853299
-53744.11948636256
-53632.44259349094
-53522.64347004929
-53414.6750483332
-53308.49170120957
-53204.0492082373
-53101.30470612015
-53000.21660613415
-52900.74454082734
-52802.84936053372
-52706.49312341833
-52611.63900852375
-52518.25122451235
-52426.2950013978
-52335.73663982571
-52246.54343131689
-52158.68358491087
-52072.12612534335
-51986.84109886287
-51902.79919577499
-51819.97225848881
-51738.33214541359
-51657.85295974959
-51578.5065645807
-51500.27098014897
-51423.11434070232
-51347.02580699585
-51271.95550938072
-51197.93025900235
-51124.8306495659
-51052.82091761896
-50981.51986291696
-50911.59867815518
-50841.70178875524
-50774.38127945577
-50704.65939425243
-50642.07179326221
-50568.18511474175
-50518.47082999383
-50405.59291543504
-69037.2489702141
-68380.17074618375
-68031.27621809117
-67541.87286988446
-67144.60493057418
-66717.72884547785
-66323.87992866855
-65929.81541384997
-65552.19720544164
-65181.75721991902
-64822.74191837422
-64472.39406978172
-64131.6234697028
-63799.45639772563
-63475.91995568266
-63160.54198252918
-62853.12949050032
-62553.36286042743
-62261.00640311799
-61975.79734912048
-61697.50301762044
-61425.89052712396
-61160.74168187313
-60901.84394894799
-60648.99532778131
-60402.0008622162
-60160.67369556537
-59924.83393794791
-59694.30910464886
-59468.93335670323
-59248.54692298975
-59032.99622194073
-58822.13349625035
-58615.81661078257
-58413.90883765496
-58216.27817595425
-58022.79741595715
-57833.34426538296
-57647.80078299018
-57466.05320917465
-57287.99201791421
-57113.51143816383
-56942.50922604137
-56774.88682511166
-56610.54923981508
-56449.40468193538
-56291.36441169457
-56136.34280278459
-55984.25714539725
-55835.02741335781
-55688.57620182043
-55544.82878011516
-55403.71291558103
-55265.15868763613
-55129.09841258684
-54995.46662166585
-54864.19997092758
-54735.23711772488
-54608.51863792117
-54483.98697040929
-54361.58638627644
-54241.26292574674
-54122.9643129135
-54006.63986510823
-53892.24044314896
-53779.71842020382
-53669.02763266196
-53560.12328460354
-53452.96187719794
-53347.50120552599
-53243.70037078396
-53141.51970472708
-53040.92065768407
-52941.8657638649
-52844.3186949114
-52748.24419397707
-52653.60799507653
-52560.37670164455
-52468.51799728254
-52378.00027374482
-52288.79313424081
-52200.8662457108
-52114.19162864405
-52028.73907324039
-51944.48462562881
-51861.39444585696
-51779.4560978501
-51698.61749734944
-51618.90443828877
-51540.19471879495
-51462.65314858652
-51385.89289310222
-51310.59180622765
-51235.37744523637
-51162.83070552152
-51087.91486075042
-51020.2757556851
-50941.26444654501
-50886.76433212003
-50768.73729077545
-70698.63959653721
-70001.01086893234
-69624.00064596529
-69101.40773131319
-68674.93038336227
-68218.06411935615
-67795.87339721764
-67373.80658051556
-66969.16227771813
-66572.29921659865
-66187.61810875461
-65812.24363820434
-65447.11042424019
-65091.19681153831
-64744.52159252508
-64406.58496898787
-64077.17759190476
-63755.95905167086
-63442.67641362477
-63137.04892318845
-62838.82740640684
-62547.76277602811
-62263.62149821818
-61986.17618680111
-61715.21058950197
-61450.51608567568
-61191.89272585882
-60939.14800876929
-60692.09728232177
-60450.56303535245
-60214.37428256666
-59983.36661840139
-59757.38189541332
-59536.2679710639
-59319.878432406
-59108.07197606664
-58900.71246516958
-58697.66897425944
-58498.81521990641
-58304.02941434687
-58113.19428705038
-57926.19658065635
-57742.92683592943
-57563.27954789453
-57387.15300015219
-57214.44889245441
-57045.07219754565
-56878.93122685901
-56715.93741608982
-56556.00507649493
-56399.05132766291
-56244.99613959026
-56093.76214937175
-55945.27447384816
-55799.4606299153
-55656.2505043979
-55515.57625481133
-55377.37218434967
-55241.5746514808
-55108.12200621097
-54976.95455116836
-54848.01448046742
-54721.24579437605
-54596.59420135979
-54474.00705675461
-54353.43332985186
-54234.82356217871
-54118.12977711655
-54003.30539744985
-53890.30521763123
-53779.08540036042
-53669.60341068455
-53561.81792251393
-53455.68878133417
-53351.1770419506
-53248.24490144731
-53146.85562613433
-53046.97341926095
-52948.56362036675
-52851.59234218594
-52756.02699187371
-52661.83507253248
-52568.98650515002
-52477.4490611072
-52387.19687527248
-52298.19404826112
-52210.42653204544
-52123.84023879225
-52038.4597292143
-51954.16024291213
-51871.10700362562
-51788.9078522331
-51708.24664169701
-51627.73518192469
-51549.98077703819
-51469.89201490286
-51397.21639794431
-51313.10551560512
-51253.82358630862
-51130.70443038949
-72353.85617636879
-71615.82923066412
-71210.80942276609
-70655.15094778304
-70199.57401986061
-69712.83066475175
-69262.40448663598
-68812.44038010173
-68380.87150515184
-67957.68477393482
-67547.43429956044
-67147.12716524999
-66757.72293218892
-66378.15204028436
-66008.42489780071
-65648.01433586179
-65296.69474834128
-64954.10489774878
-64619.97464708874
-64294.00537360548
-63975.93151505985
-63665.48781555442
-63362.425402191
-63066.50210465343
-62777.48752844449
-62495.15943764169
-62219.30479074708
-61949.71853459832
-61686.20392464298
-61428.57178041127
-61176.63995777081
-60930.23331157025
-60689.1833006814
-60453.32778509695
-60222.5107499964
-59996.58163336035
-59775.39537171202
-59558.81244528136
-59346.69828156679
-59138.92307486675
-58935.36182047059
-58735.89382964594