/*--------------------------------*- C++ -*----------------------------------*\
| =========                 |                                                 |
| \\      /  F ield         | foam-extend: Open Source CFD                    |
|  \\    /   O peration     | Version:     4.1                                |
|   \\  /    A nd           | Web:         http://www.foam-extend.org         |
|    \\/     M anipulation  |                                                 |
\*---------------------------------------------------------------------------*/
FoamFile
{
    version     2.0;
    format      ascii;
    class       pointVectorField;
    location    "5";
    object      pointD;
}
// * * * * * * * * * * * * * * * * * * * * * * * * * * * * * * * * * * * * * //

dimensions      [0 1 0 0 0 0 0];

internalField   nonuniform List<vector> 
2142
(
(2.90692e-06 -1.20728e-06 -1.59563e-22)
(2.70936e-06 -1.07057e-06 0)
(2.58834e-06 -9.93405e-07 0)
(2.51357e-06 -9.47812e-07 0)
(2.47269e-06 -9.25466e-07 0)
(2.45578e-06 -9.18134e-07 0)
(2.45654e-06 -9.21449e-07 0)
(2.47049e-06 -9.32059e-07 0)
(2.49443e-06 -9.47793e-07 0)
(2.52605e-06 -9.67145e-07 0)
(2.5646e-06 -9.89806e-07 0)
(2.66731e-06 -1.30031e-06 -6.97689e-23)
(2.45292e-06 -1.19206e-06 0)
(2.32139e-06 -1.13299e-06 0)
(2.23974e-06 -1.09914e-06 0)
(2.19396e-06 -1.0847e-06 0)
(2.17329e-06 -1.08274e-06 0)
(2.17086e-06 -1.0899e-06 0)
(2.1819e-06 -1.10329e-06 0)
(2.20288e-06 -1.12124e-06 0)
(2.23154e-06 -1.14219e-06 0)
(2.26559e-06 -1.16599e-06 0)
(2.41185e-06 -1.38563e-06 1.09357e-22)
(2.18874e-06 -1.31063e-06 0)
(2.05172e-06 -1.27258e-06 0)
(1.96637e-06 -1.25236e-06 0)
(1.91768e-06 -1.24699e-06 0)
(1.89443e-06 -1.25114e-06 0)
(1.88943e-06 -1.26259e-06 0)
(1.89774e-06 -1.27906e-06 0)
(1.91575e-06 -1.2994e-06 0)
(1.94095e-06 -1.3221e-06 0)
(1.97115e-06 -1.34779e-06 0)
(2.14215e-06 -1.46261e-06 2.52128e-22)
(1.91926e-06 -1.42375e-06 0)
(1.78229e-06 -1.40849e-06 0)
(1.69676e-06 -1.40299e-06 0)
(1.64734e-06 -1.40736e-06 0)
(1.62284e-06 -1.41802e-06 0)
(1.61603e-06 -1.43395e-06 0)
(1.62201e-06 -1.45357e-06 0)
(1.63722e-06 -1.47628e-06 0)
(1.65912e-06 -1.5008e-06 0)
(1.68588e-06 -1.52803e-06 0)
(1.85986e-06 -1.53067e-06 8.5668e-24)
(1.6465e-06 -1.52881e-06 0)
(1.51532e-06 -1.53681e-06 0)
(1.43327e-06 -1.54631e-06 0)
(1.38542e-06 -1.56058e-06 0)
(1.36107e-06 -1.5778e-06 0)
(1.35327e-06 -1.59822e-06 0)
(1.35735e-06 -1.62097e-06 0)
(1.36997e-06 -1.64597e-06 0)
(1.38868e-06 -1.67228e-06 0)
(1.41202e-06 -1.70095e-06 0)
(1.5667e-06 -1.58927e-06 -1.55206e-22)
(1.37204e-06 -1.62315e-06 0)
(1.25233e-06 -1.65358e-06 0)
(1.17735e-06 -1.67756e-06 0)
(1.13333e-06 -1.70134e-06 0)
(1.1105e-06 -1.72485e-06 0)
(1.10252e-06 -1.74953e-06 0)
(1.10515e-06 -1.77525e-06 0)
(1.11538e-06 -1.8024e-06 0)
(1.13093e-06 -1.83043e-06 0)
(1.15073e-06 -1.86042e-06 0)
(1.26442e-06 -1.63792e-06 1.95994e-23)
(1.09702e-06 -1.70428e-06 0)
(9.94054e-07 -1.75507e-06 0)
(9.29492e-07 -1.79218e-06 0)
(8.91408e-07 -1.82457e-06 0)
(8.71393e-07 -1.85376e-06 0)
(8.63989e-07 -1.88229e-06 0)
(8.65554e-07 -1.91067e-06 0)
(8.73544e-07 -1.93975e-06 0)
(8.85972e-07 -1.96935e-06 0)
(9.02061e-07 -2.0005e-06 0)
(9.5481e-07 -1.6762e-06 2.14268e-23)
(8.22148e-07 -1.76994e-06 0)
(7.40531e-07 -1.83788e-06 0)
(6.89316e-07 -1.88604e-06 0)
(6.59e-07 -1.92568e-06 0)
(6.42916e-07 -1.95965e-06 0)
(6.3674e-07 -1.9914e-06 0)
(6.37588e-07 -2.02203e-06 0)
(6.43466e-07 -2.05273e-06 0)
(6.52776e-07 -2.08367e-06 0)
(6.65001e-07 -2.11578e-06 0)
(6.39679e-07 -1.70377e-06 5.75996e-23)
(5.4775e-07 -1.81825e-06 0)
(4.91168e-07 -1.89918e-06 0)
(4.5564e-07 -1.95571e-06 0)
(4.34556e-07 -2.00083e-06 0)
(4.23298e-07 -2.03841e-06 0)
(4.18869e-07 -2.07261e-06 0)
(4.19269e-07 -2.10494e-06 0)
(4.23129e-07 -2.13686e-06 0)
(4.29328e-07 -2.16883e-06 0)
(4.37557e-07 -2.20166e-06 0)
(3.20881e-07 -1.72036e-06 8.83216e-23)
(2.73855e-07 -1.84778e-06 0)
(2.44881e-07 -1.93681e-06 0)
(2.26673e-07 -1.99857e-06 0)
(2.15847e-07 -2.04712e-06 0)
(2.10039e-07 -2.08696e-06 0)
(2.07717e-07 -2.12268e-06 0)
(2.07858e-07 -2.15607e-06 0)
(2.09763e-07 -2.18876e-06 0)
(2.12856e-07 -2.22137e-06 0)
(2.16991e-07 -2.25467e-06 0)
(0 -1.72575e-06 6.19367e-23)
(0 -1.85766e-06 -2.51252e-25)
(0 -1.94956e-06 0)
(0 -2.01304e-06 0)
(0 -2.06278e-06 0)
(0 -2.10337e-06 0)
(0 -2.13962e-06 0)
(0 -2.17337e-06 0)
(0 -2.20632e-06 0)
(0 -2.23916e-06 0)
(0 -2.27261e-06 0)
(2.90692e-06 -1.20728e-06 -1.59563e-22)
(2.70936e-06 -1.07057e-06 0)
(2.58834e-06 -9.93405e-07 0)
(2.51357e-06 -9.47812e-07 0)
(2.47269e-06 -9.25466e-07 0)
(2.45578e-06 -9.18134e-07 0)
(2.45654e-06 -9.21449e-07 0)
(2.47049e-06 -9.32059e-07 0)
(2.49443e-06 -9.47793e-07 0)
(2.52605e-06 -9.67145e-07 0)
(2.5646e-06 -9.89806e-07 0)
(2.66731e-06 -1.30031e-06 -6.97689e-23)
(2.45292e-06 -1.19206e-06 0)
(2.32139e-06 -1.13299e-06 0)
(2.23974e-06 -1.09914e-06 0)
(2.19396e-06 -1.0847e-06 0)
(2.17329e-06 -1.08274e-06 0)
(2.17086e-06 -1.0899e-06 0)
(2.1819e-06 -1.10329e-06 0)
(2.20288e-06 -1.12124e-06 0)
(2.23154e-06 -1.14219e-06 0)
(2.26559e-06 -1.16599e-06 0)
(2.41185e-06 -1.38563e-06 1.09357e-22)
(2.18874e-06 -1.31063e-06 0)
(2.05172e-06 -1.27258e-06 0)
(1.96637e-06 -1.25236e-06 0)
(1.91768e-06 -1.24699e-06 0)
(1.89443e-06 -1.25114e-06 0)
(1.88943e-06 -1.26259e-06 0)
(1.89774e-06 -1.27906e-06 0)
(1.91575e-06 -1.2994e-06 0)
(1.94095e-06 -1.3221e-06 0)
(1.97115e-06 -1.34779e-06 0)
(2.14215e-06 -1.46261e-06 2.52128e-22)
(1.91926e-06 -1.42375e-06 0)
(1.78229e-06 -1.40849e-06 0)
(1.69676e-06 -1.40299e-06 0)
(1.64734e-06 -1.40736e-06 0)
(1.62284e-06 -1.41802e-06 0)
(1.61603e-06 -1.43395e-06 0)
(1.62201e-06 -1.45357e-06 0)
(1.63722e-06 -1.47628e-06 0)
(1.65912e-06 -1.5008e-06 0)
(1.68588e-06 -1.52803e-06 0)
(1.85986e-06 -1.53067e-06 8.5668e-24)
(1.6465e-06 -1.52881e-06 0)
(1.51532e-06 -1.53681e-06 0)
(1.43327e-06 -1.54631e-06 0)
(1.38542e-06 -1.56058e-06 0)
(1.36107e-06 -1.5778e-06 0)
(1.35327e-06 -1.59822e-06 0)
(1.35735e-06 -1.62097e-06 0)
(1.36997e-06 -1.64597e-06 0)
(1.38868e-06 -1.67228e-06 0)
(1.41202e-06 -1.70095e-06 0)
(1.5667e-06 -1.58927e-06 -1.55206e-22)
(1.37204e-06 -1.62315e-06 0)
(1.25233e-06 -1.65358e-06 0)
(1.17735e-06 -1.67756e-06 0)
(1.13333e-06 -1.70134e-06 0)
(1.1105e-06 -1.72485e-06 0)
(1.10252e-06 -1.74953e-06 0)
(1.10515e-06 -1.77525e-06 0)
(1.11538e-06 -1.8024e-06 0)
(1.13093e-06 -1.83043e-06 0)
(1.15073e-06 -1.86042e-06 0)
(1.26442e-06 -1.63792e-06 1.95994e-23)
(1.09702e-06 -1.70428e-06 0)
(9.94054e-07 -1.75507e-06 0)
(9.29492e-07 -1.79218e-06 0)
(8.91408e-07 -1.82457e-06 0)
(8.71393e-07 -1.85376e-06 0)
(8.63989e-07 -1.88229e-06 0)
(8.65554e-07 -1.91067e-06 0)
(8.73544e-07 -1.93975e-06 0)
(8.85972e-07 -1.96935e-06 0)
(9.02061e-07 -2.0005e-06 0)
(9.5481e-07 -1.6762e-06 2.14268e-23)
(8.22148e-07 -1.76994e-06 0)
(7.40531e-07 -1.83788e-06 0)
(6.89316e-07 -1.88604e-06 0)
(6.59e-07 -1.92568e-06 0)
(6.42916e-07 -1.95965e-06 0)
(6.3674e-07 -1.9914e-06 0)
(6.37588e-07 -2.02203e-06 0)
(6.43466e-07 -2.05273e-06 0)
(6.52776e-07 -2.08367e-06 0)
(6.65001e-07 -2.11578e-06 0)
(6.39679e-07 -1.70377e-06 5.75996e-23)
(5.4775e-07 -1.81825e-06 0)
(4.91168e-07 -1.89918e-06 0)
(4.5564e-07 -1.95571e-06 0)
(4.34556e-07 -2.00083e-06 0)
(4.23298e-07 -2.03841e-06 0)
(4.18869e-07 -2.07261e-06 0)
(4.19269e-07 -2.10494e-06 0)
(4.23129e-07 -2.13686e-06 0)
(4.29328e-07 -2.16883e-06 0)
(4.37557e-07 -2.20166e-06 0)
(3.20881e-07 -1.72036e-06 8.83216e-23)
(2.73855e-07 -1.84778e-06 0)
(2.44881e-07 -1.93681e-06 0)
(2.26673e-07 -1.99857e-06 0)
(2.15847e-07 -2.04712e-06 0)
(2.10039e-07 -2.08696e-06 0)
(2.07717e-07 -2.12268e-06 0)
(2.07858e-07 -2.15607e-06 0)
(2.09763e-07 -2.18876e-06 0)
(2.12856e-07 -2.22137e-06 0)
(2.16991e-07 -2.25467e-06 0)
(0 -1.72575e-06 6.19367e-23)
(0 -1.85766e-06 -2.51252e-25)
(0 -1.94956e-06 0)
(0 -2.01304e-06 0)
(0 -2.06278e-06 0)
(0 -2.10337e-06 0)
(0 -2.13962e-06 0)
(0 -2.17337e-06 0)
(0 -2.20632e-06 0)
(0 -2.23916e-06 0)
(0 -2.27261e-06 0)
(4.13853e-06 0 -5.05037e-23)
(4.18513e-06 0 2.04872e-25)
(4.2157e-06 0 0)
(4.23877e-06 0 0)
(4.26336e-06 0 0)
(4.29173e-06 0 0)
(4.32595e-06 0 0)
(4.36628e-06 0 0)
(4.41292e-06 0 0)
(4.46548e-06 0 0)
(4.52382e-06 0 0)
(4.12557e-06 -1.32799e-07 -2.26684e-23)
(4.16793e-06 -9.22529e-08 0)
(4.19582e-06 -6.80486e-08 0)
(4.21725e-06 -5.30708e-08 0)
(4.24071e-06 -4.43511e-08 0)
(4.26833e-06 -3.9684e-08 0)
(4.30201e-06 -3.77358e-08 0)
(4.34193e-06 -3.75949e-08 0)
(4.38824e-06 -3.86827e-08 0)
(4.44046e-06 -4.04493e-08 0)
(4.49855e-06 -4.29768e-08 0)
(4.08646e-06 -2.64825e-07 -4.4133e-23)
(4.11654e-06 -1.8578e-07 0)
(4.1368e-06 -1.38721e-07 0)
(4.15332e-06 -1.09643e-07 0)
(4.17352e-06 -9.27606e-08 0)
(4.19894e-06 -8.37727e-08 0)
(4.23105e-06 -8.00815e-08 0)
(4.26976e-06 -7.99133e-08 0)
(4.31508e-06 -8.21362e-08 0)
(4.36635e-06 -8.5688e-08 0)
(4.42365e-06 -9.07047e-08 0)
(4.02142e-06 -3.95421e-07 -1.32229e-22)
(4.03189e-06 -2.82021e-07 0)
(4.04001e-06 -2.14639e-07 0)
(4.04871e-06 -1.7306e-07 0)
(4.06374e-06 -1.49007e-07 0)
(4.08564e-06 -1.363e-07 0)
(4.11523e-06 -1.31212e-07 0)
(4.15201e-06 -1.31198e-07 0)
(4.19575e-06 -1.34622e-07 0)
(4.2455e-06 -1.39978e-07 0)
(4.30155e-06 -1.47396e-07 0)
(3.93102e-06 -5.23788e-07 -9.33436e-23)
(3.91574e-06 -3.82021e-07 0)
(3.90791e-06 -2.97943e-07 0)
(3.90632e-06 -2.46143e-07 0)
(3.91455e-06 -2.16336e-07 0)
(3.93183e-06 -2.00768e-07 0)
(3.9581e-06 -1.94779e-07 0)
(3.99233e-06 -1.9518e-07 0)
(4.03398e-06 -1.99902e-07 0)
(4.08173e-06 -2.07092e-07 0)
(4.13612e-06 -2.16797e-07 0)
(3.81597e-06 -6.49211e-07 -7.35348e-24)
(3.77034e-06 -4.86506e-07 0)
(3.74372e-06 -3.90257e-07 0)
(3.73001e-06 -3.31084e-07 0)
(3.73021e-06 -2.97294e-07 0)
(3.74202e-06 -2.79938e-07 0)
(3.76435e-06 -2.73669e-07 0)
(3.79555e-06 -2.74814e-07 0)
(3.83468e-06 -2.8096e-07 0)
(3.88007e-06 -2.90018e-07 0)
(3.93246e-06 -3.01867e-07 0)
(3.67715e-06 -7.70966e-07 -2.2996e-24)
(3.59845e-06 -5.95785e-07 0)
(3.55131e-06 -4.92528e-07 0)
(3.52438e-06 -4.29236e-07 0)
(3.5158e-06 -3.93488e-07 0)
(3.52159e-06 -3.75573e-07 0)
(3.53956e-06 -3.69739e-07 0)
(3.56739e-06 -3.72011e-07 0)
(3.60372e-06 -3.7974e-07 0)
(3.64648e-06 -3.90714e-07 0)
(3.69658e-06 -4.04568e-07 0)
(3.5156e-06 -8.88343e-07 -3.90505e-24)
(3.40312e-06 -7.09706e-07 0)
(3.33502e-06 -6.04958e-07 0)
(3.29455e-06 -5.4103e-07 0)
(3.27694e-06 -5.05488e-07 0)
(3.27651e-06 -4.88329e-07 0)
(3.28992e-06 -4.83699e-07 0)
(3.3142e-06 -4.87513e-07 0)
(3.3475e-06 -4.97009e-07 0)
(3.38746e-06 -5.09972e-07 0)
(3.43504e-06 -5.2569e-07 0)
(3.3325e-06 -1.00064e-06 1.89445e-22)
(3.18763e-06 -8.2763e-07 0)
(3.0994e-06 -7.26955e-07 0)
(3.04591e-06 -6.65902e-07 0)
(3.01956e-06 -6.32753e-07 0)
(3.01306e-06 -6.17673e-07 0)
(3.02194e-06 -6.15023e-07 0)
(3.04262e-06 -6.20795e-07 0)
(3.0728e-06 -6.32275e-07 0)
(3.10989e-06 -6.47339e-07 0)
(3.15477e-06 -6.64968e-07 0)
(3.12914e-06 -1.10718e-06 1.20155e-22)
(2.95529e-06 -9.48441e-07 0)
(2.84903e-06 -8.57143e-07 0)
(2.78386e-06 -8.02319e-07 0)
(2.74959e-06 -7.73644e-07 0)
(2.73747e-06 -7.61893e-07 0)
(2.74205e-06 -7.61936e-07 0)
(2.75921e-06 -7.70032e-07 0)
(2.7862e-06 -7.83661e-07 0)
(2.82041e-06 -8.0103e-07 0)
(2.86216e-06 -8.20586e-07 0)
(4.13853e-06 0 -5.05037e-23)
(4.18513e-06 0 2.04872e-25)
(4.2157e-06 0 0)
(4.23877e-06 0 0)
(4.26336e-06 0 0)
(4.29173e-06 0 0)
(4.32595e-06 0 0)
(4.36628e-06 0 0)
(4.41292e-06 0 0)
(4.46548e-06 0 0)
(4.52382e-06 0 0)
(4.12557e-06 -1.32799e-07 -2.26684e-23)
(4.16793e-06 -9.22529e-08 0)
(4.19582e-06 -6.80486e-08 0)
(4.21725e-06 -5.30708e-08 0)
(4.24071e-06 -4.43511e-08 0)
(4.26833e-06 -3.9684e-08 0)
(4.30201e-06 -3.77358e-08 0)
(4.34193e-06 -3.75949e-08 0)
(4.38824e-06 -3.86827e-08 0)
(4.44046e-06 -4.04493e-08 0)
(4.49855e-06 -4.29768e-08 0)
(4.08646e-06 -2.64825e-07 -4.4133e-23)
(4.11654e-06 -1.8578e-07 0)
(4.1368e-06 -1.38721e-07 0)
(4.15332e-06 -1.09643e-07 0)
(4.17352e-06 -9.27606e-08 0)
(4.19894e-06 -8.37727e-08 0)
(4.23105e-06 -8.00815e-08 0)
(4.26976e-06 -7.99133e-08 0)
(4.31508e-06 -8.21362e-08 0)
(4.36635e-06 -8.5688e-08 0)
(4.42365e-06 -9.07047e-08 0)
(4.02142e-06 -3.95421e-07 -1.32229e-22)
(4.03189e-06 -2.82021e-07 0)
(4.04001e-06 -2.14639e-07 0)
(4.04871e-06 -1.7306e-07 0)
(4.06374e-06 -1.49007e-07 0)
(4.08564e-06 -1.363e-07 0)
(4.11523e-06 -1.31212e-07 0)
(4.15201e-06 -1.31198e-07 0)
(4.19575e-06 -1.34622e-07 0)
(4.2455e-06 -1.39978e-07 0)
(4.30155e-06 -1.47396e-07 0)
(3.93102e-06 -5.23788e-07 -9.33436e-23)
(3.91574e-06 -3.82021e-07 0)
(3.90791e-06 -2.97943e-07 0)
(3.90632e-06 -2.46143e-07 0)
(3.91455e-06 -2.16336e-07 0)
(3.93183e-06 -2.00768e-07 0)
(3.9581e-06 -1.94779e-07 0)
(3.99233e-06 -1.9518e-07 0)
(4.03398e-06 -1.99902e-07 0)
(4.08173e-06 -2.07092e-07 0)
(4.13612e-06 -2.16797e-07 0)
(3.81597e-06 -6.49211e-07 -7.35348e-24)
(3.77034e-06 -4.86506e-07 0)
(3.74372e-06 -3.90257e-07 0)
(3.73001e-06 -3.31084e-07 0)
(3.73021e-06 -2.97294e-07 0)
(3.74202e-06 -2.79938e-07 0)
(3.76435e-06 -2.73669e-07 0)
(3.79555e-06 -2.74814e-07 0)
(3.83468e-06 -2.8096e-07 0)
(3.88007e-06 -2.90018e-07 0)
(3.93246e-06 -3.01867e-07 0)
(3.67715e-06 -7.70966e-07 -2.2996e-24)
(3.59845e-06 -5.95785e-07 0)
(3.55131e-06 -4.92528e-07 0)
(3.52438e-06 -4.29236e-07 0)
(3.5158e-06 -3.93488e-07 0)
(3.52159e-06 -3.75573e-07 0)
(3.53956e-06 -3.69739e-07 0)
(3.56739e-06 -3.72011e-07 0)
(3.60372e-06 -3.7974e-07 0)
(3.64648e-06 -3.90714e-07 0)
(3.69658e-06 -4.04568e-07 0)
(3.5156e-06 -8.88343e-07 -3.90505e-24)
(3.40312e-06 -7.09706e-07 0)
(3.33502e-06 -6.04958e-07 0)
(3.29455e-06 -5.4103e-07 0)
(3.27694e-06 -5.05488e-07 0)
(3.27651e-06 -4.88329e-07 0)
(3.28992e-06 -4.83699e-07 0)
(3.3142e-06 -4.87513e-07 0)
(3.3475e-06 -4.97009e-07 0)
(3.38746e-06 -5.09972e-07 0)
(3.43504e-06 -5.2569e-07 0)
(3.3325e-06 -1.00064e-06 1.89445e-22)
(3.18763e-06 -8.2763e-07 0)
(3.0994e-06 -7.26955e-07 0)
(3.04591e-06 -6.65902e-07 0)
(3.01956e-06 -6.32753e-07 0)
(3.01306e-06 -6.17673e-07 0)
(3.02194e-06 -6.15023e-07 0)
(3.04262e-06 -6.20795e-07 0)
(3.0728e-06 -6.32275e-07 0)
(3.10989e-06 -6.47339e-07 0)
(3.15477e-06 -6.64968e-07 0)
(3.12914e-06 -1.10718e-06 1.20155e-22)
(2.95529e-06 -9.48441e-07 0)
(2.84903e-06 -8.57143e-07 0)
(2.78386e-06 -8.02319e-07 0)
(2.74959e-06 -7.73644e-07 0)
(2.73747e-06 -7.61893e-07 0)
(2.74205e-06 -7.61936e-07 0)
(2.75921e-06 -7.70032e-07 0)
(2.7862e-06 -7.83661e-07 0)
(2.82041e-06 -8.0103e-07 0)
(2.86216e-06 -8.20586e-07 0)
(4.58776e-06 0 0)
(4.65643e-06 0 0)
(4.72927e-06 0 0)
(4.80593e-06 0 0)
(4.88599e-06 0 0)
(4.96912e-06 0 0)
(5.05496e-06 0 0)
(5.14321e-06 0 0)
(5.23356e-06 0 0)
(5.32572e-06 0 0)
(5.4194e-06 0 0)
(5.51432e-06 0 0)
(5.61018e-06 0 0)
(5.7067e-06 0 0)
(5.80353e-06 0 0)
(5.90037e-06 0 0)
(5.99676e-06 0 0)
(6.09243e-06 0 0)
(6.18658e-06 0 -1.51317e-26)
(6.27926e-06 0 -2.47414e-23)
(4.56476e-06 -4.33074e-08 0)
(4.63534e-06 -4.34575e-08 0)
(4.70987e-06 -4.3617e-08 0)
(4.78801e-06 -4.36185e-08 0)
(4.86938e-06 -4.34254e-08 0)
(4.95367e-06 -4.30005e-08 0)
(5.04057e-06 -4.23122e-08 0)
(5.12976e-06 -4.13396e-08 0)
(5.22097e-06 -4.00585e-08 0)
(5.31392e-06 -3.84463e-08 0)
(5.40832e-06 -3.64756e-08 0)
(5.50391e-06 -3.41151e-08 0)
(5.60041e-06 -3.13264e-08 0)
(5.69752e-06 -2.80628e-08 0)
(5.79492e-06 -2.42678e-08 0)
(5.8923e-06 -1.98713e-08 0)
(5.98921e-06 -1.47915e-08 0)
(6.0854e-06 -8.91741e-09 0)
(6.18005e-06 -2.15337e-09 0)
(6.27325e-06 5.77477e-09 -5.12326e-23)
(4.49651e-06 -9.06358e-08 0)
(4.57276e-06 -9.03532e-08 0)
(4.65227e-06 -9.01822e-08 0)
(4.73478e-06 -8.97894e-08 0)
(4.82004e-06 -8.90777e-08 0)
(4.90778e-06 -8.79646e-08 0)
(4.99778e-06 -8.6374e-08 0)
(5.08977e-06 -8.42567e-08 0)
(5.18353e-06 -8.15566e-08 0)
(5.27882e-06 -7.82232e-08 0)
(5.37538e-06 -7.4197e-08 0)
(5.47297e-06 -6.94114e-08 0)
(5.57134e-06 -6.37867e-08 0)
(5.67022e-06 -5.72267e-08 0)
(5.7693e-06 -4.96164e-08 0)
(5.8683e-06 -4.08136e-08 0)
(5.96677e-06 -3.0653e-08 0)
(6.06448e-06 -1.89115e-08 0)
(6.16065e-06 -5.39619e-09 0)
(6.25536e-06 1.04361e-08 -8.66641e-23)
(4.38512e-06 -1.45542e-07 0)
(4.47052e-06 -1.43717e-07 0)
(4.5581e-06 -1.42284e-07 0)
(4.64771e-06 -1.40752e-07 0)
(4.73927e-06 -1.38911e-07 0)
(4.83265e-06 -1.36619e-07 0)
(4.9277e-06 -1.33729e-07 0)
(5.02428e-06 -1.3015e-07 0)
(5.1222e-06 -1.25779e-07 0)
(5.22131e-06 -1.20527e-07 0)
(5.32139e-06 -1.14293e-07 0)
(5.42227e-06 -1.06969e-07 0)
(5.5237e-06 -9.8427e-08 0)
(5.62548e-06 -8.85165e-08 0)
(5.7273e-06 -7.70598e-08 0)
(5.82894e-06 -6.38386e-08 0)
(5.92996e-06 -4.86007e-08 0)
(6.03017e-06 -3.10077e-08 0)
(6.12881e-06 -1.07648e-08 0)
(6.226e-06 1.29367e-08 -1.39163e-23)
(4.23384e-06 -2.11229e-07 0)
(4.33146e-06 -2.06305e-07 0)
(4.42986e-06 -2.02295e-07 0)
(4.52903e-06 -1.98568e-07 0)
(4.62912e-06 -1.94731e-07 0)
(4.73012e-06 -1.90561e-07 0)
(4.83204e-06 -1.85806e-07 0)
(4.93484e-06 -1.80311e-07 0)
(5.03844e-06 -1.73907e-07 0)
(5.14274e-06 -1.66452e-07 0)
(5.24763e-06 -1.57791e-07 0)
(5.35297e-06 -1.47764e-07 0)
(5.45859e-06 -1.36186e-07 0)
(5.56431e-06 -1.22847e-07 0)
(5.66988e-06 -1.075e-07 0)
(5.7751e-06 -8.98453e-08 0)
(5.8796e-06 -6.95394e-08 0)
(5.9832e-06 -4.61245e-08 0)
(6.0852e-06 -1.91974e-08 0)
(6.18577e-06 1.23116e-08 2.17379e-23)
(4.04701e-06 -2.90282e-07 0)
(4.15931e-06 -2.80365e-07 0)
(4.27085e-06 -2.72152e-07 0)
(4.38168e-06 -2.64915e-07 0)
(4.49223e-06 -2.57996e-07 0)
(4.60262e-06 -2.51066e-07 0)
(4.71303e-06 -2.43733e-07 0)
(4.82352e-06 -2.3575e-07 0)
(4.93416e-06 -2.26859e-07 0)
(5.04492e-06 -2.16844e-07 0)
(5.15578e-06 -2.05483e-07 0)
(5.26666e-06 -1.92549e-07 0)
(5.37747e-06 -1.77793e-07 0)
(5.48807e-06 -1.60934e-07 0)
(5.59829e-06 -1.41648e-07 0)
(5.70796e-06 -1.19551e-07 0)
(5.81676e-06 -9.42015e-08 0)
(5.92456e-06 -6.50183e-08 0)
(6.03074e-06 -3.14831e-08 0)
(6.13549e-06 7.72685e-09 4.84454e-23)
(3.82973e-06 -3.84498e-07 0)
(3.95854e-06 -3.67541e-07 0)
(4.08499e-06 -3.53333e-07 0)
(4.20916e-06 -3.41114e-07 0)
(4.33176e-06 -3.29894e-07 0)
(4.45301e-06 -3.19201e-07 0)
(4.57329e-06 -3.08474e-07 0)
(4.69276e-06 -2.97338e-07 0)
(4.81161e-06 -2.85428e-07 0)
(4.92992e-06 -2.72433e-07 0)
(5.04777e-06 -2.58045e-07 0)
(5.16515e-06 -2.41959e-07 0)
(5.28204e-06 -2.2385e-07 0)
(5.39837e-06 -2.03357e-07 0)
(5.51402e-06 -1.80075e-07 0)
(5.62889e-06 -1.53525e-07 0)
(5.74272e-06 -1.23167e-07 0)
(5.85543e-06 -8.82918e-08 0)
(5.96649e-06 -4.82631e-08 0)
(6.07614e-06 -1.52092e-09 8.7002e-23)
(3.58759e-06 -4.94679e-07 0)
(3.73396e-06 -4.68596e-07 0)
(3.87653e-06 -4.46534e-07 0)
(4.01525e-06 -4.27755e-07 0)
(4.15112e-06 -4.1093e-07 0)
(4.28443e-06 -3.95388e-07 0)
(4.41569e-06 -3.80385e-07 0)
(4.54521e-06 -3.65385e-07 0)
(4.67328e-06 -3.49891e-07 0)
(4.80009e-06 -3.33473e-07 0)
(4.9258e-06 -3.15721e-07 0)
(5.05049e-06 -2.96235e-07 0)
(5.17422e-06 -2.74601e-07 0)
(5.29699e-06 -2.50371e-07 0)
(5.41874e-06 -2.2305e-07 0)
(5.53945e-06 -1.92062e-07 0)
(5.65891e-06 -1.56762e-07 0)
(5.77713e-06 -1.16315e-07 0)
(5.89366e-06 -6.99618e-08 0)
(6.00882e-06 -1.59248e-08 2.17485e-24)
(3.3266e-06 -6.2089e-07 0)
(3.49079e-06 -5.8383e-07 0)
(3.65002e-06 -5.52258e-07 0)
(3.80401e-06 -5.25405e-07 0)
(3.95393e-06 -5.01712e-07 0)
(4.10012e-06 -4.80229e-07 0)
(4.24321e-06 -4.60044e-07 0)
(4.38359e-06 -4.40424e-07 0)
(4.52167e-06 -4.20728e-07 0)
(4.65774e-06 -4.00389e-07 0)
(4.79202e-06 -3.78884e-07 0)
(4.9247e-06 -3.55703e-07 0)
(5.0559e-06 -3.30334e-07 0)
(5.1857e-06 -3.02233e-07 0)
(5.31411e-06 -2.70811e-07 0)
(5.44118e-06 -2.35388e-07 0)
(5.56679e-06 -1.95215e-07 0)
(5.69101e-06 -1.49335e-07 0)
(5.8135e-06 -9.68697e-08 0)
(5.93466e-06 -3.58676e-08 -2.50962e-23)
(3.05232e-06 -7.61595e-07 0)
(3.23387e-06 -7.11841e-07 0)
(3.40968e-06 -6.69354e-07 0)
(3.57932e-06 -6.33007e-07 0)
(3.74378e-06 -6.01249e-07 0)
(3.90347e-06 -5.72816e-07 0)
(4.05902e-06 -5.46618e-07 0)
(4.21092e-06 -5.21712e-07 0)
(4.35962e-06 -4.97285e-07 0)
(4.50552e-06 -4.72616e-07 0)
(4.64893e-06 -4.47046e-07 0)
(4.79012e-06 -4.19947e-07 0)
(4.92927e-06 -3.90699e-07 0)
(5.06655e-06 -3.58655e-07 0)
(5.20204e-06 -3.23125e-07 0)
(5.33586e-06 -2.8333e-07 0)
(5.46799e-06 -2.38417e-07 0)
(5.59856e-06 -1.87311e-07 0)
(5.72738e-06 -1.2902e-07 0)
(5.85492e-06 -6.14305e-08 1.54087e-23)
(2.77222e-06 -9.1492e-07 0)
(2.96986e-06 -8.51064e-07 0)
(3.1614e-06 -7.96995e-07 0)
(3.34619e-06 -7.50265e-07 0)
(3.52496e-06 -7.09566e-07 0)
(3.69813e-06 -6.73357e-07 0)
(3.86627e-06 -6.40401e-07 0)
(4.0299e-06 -6.09566e-07 0)
(4.18952e-06 -5.79869e-07 0)
(4.34558e-06 -5.50429e-07 0)
(4.49846e-06 -5.20446e-07 0)
(4.64848e-06 -4.89164e-07 0)
(4.79592e-06 -4.55846e-07 0)
(4.941e-06 -4.19739e-07 0)
(5.08389e-06 -3.80051e-07 0)
(5.22476e-06 -3.35909e-07 0)
(5.36369e-06 -2.86356e-07 0)
(5.5009e-06 -2.30222e-07 0)
(5.63635e-06 -1.66397e-07 0)
(5.77056e-06 -9.26665e-08 4.48829e-23)
(4.58776e-06 0 0)
(4.65643e-06 0 0)
(4.72927e-06 0 0)
(4.80593e-06 0 0)
(4.88599e-06 0 0)
(4.96912e-06 0 0)
(5.05496e-06 0 0)
(5.14321e-06 0 0)
(5.23356e-06 0 0)
(5.32572e-06 0 0)
(5.4194e-06 0 0)
(5.51432e-06 0 0)
(5.61018e-06 0 0)
(5.7067e-06 0 0)
(5.80353e-06 0 0)
(5.90037e-06 0 0)
(5.99676e-06 0 0)
(6.09243e-06 0 0)
(6.18658e-06 0 -1.51317e-26)
(6.27926e-06 0 -2.47414e-23)
(4.56476e-06 -4.33074e-08 0)
(4.63534e-06 -4.34575e-08 0)
(4.70987e-06 -4.3617e-08 0)
(4.78801e-06 -4.36185e-08 0)
(4.86938e-06 -4.34254e-08 0)
(4.95367e-06 -4.30005e-08 0)
(5.04057e-06 -4.23122e-08 0)
(5.12976e-06 -4.13396e-08 0)
(5.22097e-06 -4.00585e-08 0)
(5.31392e-06 -3.84463e-08 0)
(5.40832e-06 -3.64756e-08 0)
(5.50391e-06 -3.41151e-08 0)
(5.60041e-06 -3.13264e-08 0)
(5.69752e-06 -2.80628e-08 0)
(5.79492e-06 -2.42678e-08 0)
(5.8923e-06 -1.98713e-08 0)
(5.98921e-06 -1.47915e-08 0)
(6.0854e-06 -8.91741e-09 0)
(6.18005e-06 -2.15337e-09 0)
(6.27325e-06 5.77477e-09 -5.12326e-23)
(4.49651e-06 -9.06358e-08 0)
(4.57276e-06 -9.03532e-08 0)
(4.65227e-06 -9.01822e-08 0)
(4.73478e-06 -8.97894e-08 0)
(4.82004e-06 -8.90777e-08 0)
(4.90778e-06 -8.79646e-08 0)
(4.99778e-06 -8.6374e-08 0)
(5.08977e-06 -8.42567e-08 0)
(5.18353e-06 -8.15566e-08 0)
(5.27882e-06 -7.82232e-08 0)
(5.37538e-06 -7.4197e-08 0)
(5.47297e-06 -6.94114e-08 0)
(5.57134e-06 -6.37867e-08 0)
(5.67022e-06 -5.72267e-08 0)
(5.7693e-06 -4.96164e-08 0)
(5.8683e-06 -4.08136e-08 0)
(5.96677e-06 -3.0653e-08 0)
(6.06448e-06 -1.89115e-08 0)
(6.16065e-06 -5.39619e-09 0)
(6.25536e-06 1.04361e-08 -8.66641e-23)
(4.38512e-06 -1.45542e-07 0)
(4.47052e-06 -1.43717e-07 0)
(4.5581e-06 -1.42284e-07 0)
(4.64771e-06 -1.40752e-07 0)
(4.73927e-06 -1.38911e-07 0)
(4.83265e-06 -1.36619e-07 0)
(4.9277e-06 -1.33729e-07 0)
(5.02428e-06 -1.3015e-07 0)
(5.1222e-06 -1.25779e-07 0)
(5.22131e-06 -1.20527e-07 0)
(5.32139e-06 -1.14293e-07 0)
(5.42227e-06 -1.06969e-07 0)
(5.5237e-06 -9.8427e-08 0)
(5.62548e-06 -8.85165e-08 0)
(5.7273e-06 -7.70598e-08 0)
(5.82894e-06 -6.38386e-08 0)
(5.92996e-06 -4.86007e-08 0)
(6.03017e-06 -3.10077e-08 0)
(6.12881e-06 -1.07648e-08 0)
(6.226e-06 1.29367e-08 -1.39163e-23)
(4.23384e-06 -2.11229e-07 0)
(4.33146e-06 -2.06305e-07 0)
(4.42986e-06 -2.02295e-07 0)
(4.52903e-06 -1.98568e-07 0)
(4.62912e-06 -1.94731e-07 0)
(4.73012e-06 -1.90561e-07 0)
(4.83204e-06 -1.85806e-07 0)
(4.93484e-06 -1.80311e-07 0)
(5.03844e-06 -1.73907e-07 0)
(5.14274e-06 -1.66452e-07 0)
(5.24763e-06 -1.57791e-07 0)
(5.35297e-06 -1.47764e-07 0)
(5.45859e-06 -1.36186e-07 0)
(5.56431e-06 -1.22847e-07 0)
(5.66988e-06 -1.075e-07 0)
(5.7751e-06 -8.98453e-08 0)
(5.8796e-06 -6.95394e-08 0)
(5.9832e-06 -4.61245e-08 0)
(6.0852e-06 -1.91974e-08 0)
(6.18577e-06 1.23116e-08 2.17379e-23)
(4.04701e-06 -2.90282e-07 0)
(4.15931e-06 -2.80365e-07 0)
(4.27085e-06 -2.72152e-07 0)
(4.38168e-06 -2.64915e-07 0)
(4.49223e-06 -2.57996e-07 0)
(4.60262e-06 -2.51066e-07 0)
(4.71303e-06 -2.43733e-07 0)
(4.82352e-06 -2.3575e-07 0)
(4.93416e-06 -2.26859e-07 0)
(5.04492e-06 -2.16844e-07 0)
(5.15578e-06 -2.05483e-07 0)
(5.26666e-06 -1.92549e-07 0)
(5.37747e-06 -1.77793e-07 0)
(5.48807e-06 -1.60934e-07 0)
(5.59829e-06 -1.41648e-07 0)
(5.70796e-06 -1.19551e-07 0)
(5.81676e-06 -9.42015e-08 0)
(5.92456e-06 -6.50183e-08 0)
(6.03074e-06 -3.14831e-08 0)
(6.13549e-06 7.72685e-09 4.84454e-23)
(3.82973e-06 -3.84498e-07 0)
(3.95854e-06 -3.67541e-07 0)
(4.08499e-06 -3.53333e-07 0)
(4.20916e-06 -3.41114e-07 0)
(4.33176e-06 -3.29894e-07 0)
(4.45301e-06 -3.19201e-07 0)
(4.57329e-06 -3.08474e-07 0)
(4.69276e-06 -2.97338e-07 0)
(4.81161e-06 -2.85428e-07 0)
(4.92992e-06 -2.72433e-07 0)
(5.04777e-06 -2.58045e-07 0)
(5.16515e-06 -2.41959e-07 0)
(5.28204e-06 -2.2385e-07 0)
(5.39837e-06 -2.03357e-07 0)
(5.51402e-06 -1.80075e-07 0)
(5.62889e-06 -1.53525e-07 0)
(5.74272e-06 -1.23167e-07 0)
(5.85543e-06 -8.82918e-08 0)
(5.96649e-06 -4.82631e-08 0)
(6.07614e-06 -1.52092e-09 8.7002e-23)
(3.58759e-06 -4.94679e-07 0)
(3.73396e-06 -4.68596e-07 0)
(3.87653e-06 -4.46534e-07 0)
(4.01525e-06 -4.27755e-07 0)
(4.15112e-06 -4.1093e-07 0)
(4.28443e-06 -3.95388e-07 0)
(4.41569e-06 -3.80385e-07 0)
(4.54521e-06 -3.65385e-07 0)
(4.67328e-06 -3.49891e-07 0)
(4.80009e-06 -3.33473e-07 0)
(4.9258e-06 -3.15721e-07 0)
(5.05049e-06 -2.96235e-07 0)
(5.17422e-06 -2.74601e-07 0)
(5.29699e-06 -2.50371e-07 0)
(5.41874e-06 -2.2305e-07 0)
(5.53945e-06 -1.92062e-07 0)
(5.65891e-06 -1.56762e-07 0)
(5.77713e-06 -1.16315e-07 0)
(5.89366e-06 -6.99618e-08 0)
(6.00882e-06 -1.59248e-08 2.17485e-24)
(3.3266e-06 -6.2089e-07 0)
(3.49079e-06 -5.8383e-07 0)
(3.65002e-06 -5.52258e-07 0)
(3.80401e-06 -5.25405e-07 0)
(3.95393e-06 -5.01712e-07 0)
(4.10012e-06 -4.80229e-07 0)
(4.24321e-06 -4.60044e-07 0)
(4.38359e-06 -4.40424e-07 0)
(4.52167e-06 -4.20728e-07 0)
(4.65774e-06 -4.00389e-07 0)
(4.79202e-06 -3.78884e-07 0)
(4.9247e-06 -3.55703e-07 0)
(5.0559e-06 -3.30334e-07 0)
(5.1857e-06 -3.02233e-07 0)
(5.31411e-06 -2.70811e-07 0)
(5.44118e-06 -2.35388e-07 0)
(5.56679e-06 -1.95215e-07 0)
(5.69101e-06 -1.49335e-07 0)
(5.8135e-06 -9.68697e-08 0)
(5.93466e-06 -3.58676e-08 -2.50962e-23)
(3.05232e-06 -7.61595e-07 0)
(3.23387e-06 -7.11841e-07 0)
(3.40968e-06 -6.69354e-07 0)
(3.57932e-06 -6.33007e-07 0)
(3.74378e-06 -6.01249e-07 0)
(3.90347e-06 -5.72816e-07 0)
(4.05902e-06 -5.46618e-07 0)
(4.21092e-06 -5.21712e-07 0)
(4.35962e-06 -4.97285e-07 0)
(4.50552e-06 -4.72616e-07 0)
(4.64893e-06 -4.47046e-07 0)
(4.79012e-06 -4.19947e-07 0)
(4.92927e-06 -3.90699e-07 0)
(5.06655e-06 -3.58655e-07 0)
(5.20204e-06 -3.23125e-07 0)
(5.33586e-06 -2.8333e-07 0)
(5.46799e-06 -2.38417e-07 0)
(5.59856e-06 -1.87311e-07 0)
(5.72738e-06 -1.2902e-07 0)
(5.85492e-06 -6.14305e-08 1.54087e-23)
(2.77222e-06 -9.1492e-07 0)
(2.96986e-06 -8.51064e-07 0)
(3.1614e-06 -7.96995e-07 0)
(3.34619e-06 -7.50265e-07 0)
(3.52496e-06 -7.09566e-07 0)
(3.69813e-06 -6.73357e-07 0)
(3.86627e-06 -6.40401e-07 0)
(4.0299e-06 -6.09566e-07 0)
(4.18952e-06 -5.79869e-07 0)
(4.34558e-06 -5.50429e-07 0)
(4.49846e-06 -5.20446e-07 0)
(4.64848e-06 -4.89164e-07 0)
(4.79592e-06 -4.55846e-07 0)
(4.941e-06 -4.19739e-07 0)
(5.08389e-06 -3.80051e-07 0)
(5.22476e-06 -3.35909e-07 0)
(5.36369e-06 -2.86356e-07 0)
(5.5009e-06 -2.30222e-07 0)
(5.63635e-06 -1.66397e-07 0)
(5.77056e-06 -9.26665e-08 4.48829e-23)
(2.43522e-06 -1.11002e-06 0)
(2.6437e-06 -1.03259e-06 0)
(2.84427e-06 -9.64131e-07 0)
(3.03854e-06 -9.04932e-07 0)
(3.22665e-06 -8.52734e-07 0)
(3.4089e-06 -8.06383e-07 0)
(3.58565e-06 -7.64566e-07 0)
(3.75733e-06 -7.26135e-07 0)
(3.92438e-06 -6.9003e-07 0)
(4.08723e-06 -6.55298e-07 0)
(4.24627e-06 -6.21062e-07 0)
(4.40186e-06 -5.86512e-07 0)
(4.55434e-06 -5.50873e-07 0)
(4.70396e-06 -5.13389e-07 0)
(4.851e-06 -4.73287e-07 0)
(4.99564e-06 -4.29766e-07 0)
(5.13812e-06 -3.81948e-07 0)
(5.27857e-06 -3.28896e-07 0)
(5.41729e-06 -2.69466e-07 0)
(5.55435e-06 -2.02613e-07 0)
(5.69032e-06 -1.26208e-07 4.68258e-23)
(2.32237e-06 -1.22487e-06 0)
(2.52931e-06 -1.14624e-06 0)
(2.72997e-06 -1.07465e-06 0)
(2.92513e-06 -1.01126e-06 0)
(3.11476e-06 -9.54359e-07 0)
(3.29895e-06 -9.03014e-07 0)
(3.47791e-06 -8.56105e-07 0)
(3.65195e-06 -8.12603e-07 0)
(3.82139e-06 -7.71535e-07 0)
(3.98658e-06 -7.31995e-07 0)
(4.14786e-06 -6.93135e-07 0)
(4.30555e-06 -6.54154e-07 0)
(4.45997e-06 -6.14281e-07 0)
(4.61137e-06 -5.72757e-07 0)
(4.76003e-06 -5.28811e-07 0)
(4.90618e-06 -4.81649e-07 0)
(5.05007e-06 -4.30409e-07 0)
(5.19189e-06 -3.74187e-07 0)
(5.33199e-06 -3.11895e-07 0)
(5.47054e-06 -2.42566e-07 0)
(5.60816e-06 -1.6425e-07 9.5332e-23)
(2.22377e-06 -1.33606e-06 0)
(2.42794e-06 -1.25632e-06 0)
(2.62687e-06 -1.18252e-06 0)
(2.82129e-06 -1.11588e-06 0)
(3.01085e-06 -1.05507e-06 0)
(3.19555e-06 -9.9939e-07 0)
(3.37543e-06 -9.47916e-07 0)
(3.55067e-06 -8.99757e-07 0)
(3.72149e-06 -8.54044e-07 0)
(3.88815e-06 -8.0994e-07 0)
(4.05093e-06 -7.66644e-07 0)
(4.2101e-06 -7.23387e-07 0)
(4.36594e-06 -6.79416e-07 0)
(4.51871e-06 -6.33988e-07 0)
(4.66867e-06 -5.86349e-07 0)
(4.81607e-06 -5.35726e-07 0)
(4.96117e-06 -4.81293e-07 0)
(5.10423e-06 -4.2219e-07 0)
(5.2456e-06 -3.57407e-07 0)
(5.38555e-06 -2.86063e-07 0)
(5.52471e-06 -2.06407e-07 1.37579e-22)
(2.137e-06 -1.44255e-06 0)
(2.33745e-06 -1.36246e-06 0)
(2.53359e-06 -1.2872e-06 0)
(2.72608e-06 -1.21804e-06 0)
(2.91442e-06 -1.15401e-06 0)
(3.09851e-06 -1.0946e-06 0)
(3.27826e-06 -1.03909e-06 0)
(3.45374e-06 -9.86719e-07 0)
(3.62508e-06 -9.36736e-07 0)
(3.79245e-06 -8.88382e-07 0)
(3.95606e-06 -8.40917e-07 0)
(4.11615e-06 -7.93614e-07 0)
(4.27295e-06 -7.45756e-07 0)
(4.4267e-06 -6.9663e-07 0)
(4.57764e-06 -6.45512e-07 0)
(4.72604e-06 -5.91663e-07 0)
(4.87215e-06 -5.34304e-07 0)
(5.01628e-06 -4.72635e-07 0)
(5.15878e-06 -4.05737e-07 0)
(5.30001e-06 -3.32822e-07 0)
(5.44058e-06 -2.52352e-07 1.20703e-22)
(2.06049e-06 -1.54431e-06 0)
(2.25649e-06 -1.46433e-06 0)
(2.44906e-06 -1.38824e-06 0)
(2.63877e-06 -1.31724e-06 0)
(2.82499e-06 -1.25063e-06 0)
(3.00759e-06 -1.18811e-06 0)
(3.18635e-06 -1.1291e-06 0)
(3.36127e-06 -1.073e-06 0)
(3.53238e-06 -1.01916e-06 0)
(3.6998e-06 -9.66914e-07 0)
(3.86367e-06 -9.15591e-07 0)
(4.02416e-06 -8.64518e-07 0)
(4.18148e-06 -8.13026e-07 0)
(4.33584e-06 -7.60442e-07 0)
(4.48747e-06 -7.06084e-07 0)
(4.63662e-06 -6.4926e-07 0)
(4.78356e-06 -5.89247e-07 0)
(4.92859e-06 -5.25316e-07 0)
(5.07209e-06 -4.56644e-07 0)
(5.21446e-06 -3.82546e-07 0)
(5.35629e-06 -3.01706e-07 1.21788e-22)
(1.99242e-06 -1.64132e-06 0)
(2.1836e-06 -1.56187e-06 0)
(2.37211e-06 -1.48546e-06 0)
(2.55844e-06 -1.41315e-06 0)
(2.74191e-06 -1.34454e-06 0)
(2.92234e-06 -1.27944e-06 0)
(3.09944e-06 -1.21745e-06 0)
(3.27315e-06 -1.15809e-06 0)
(3.44344e-06 -1.10082e-06 0)