/*--------------------------------*- C++ -*----------------------------------*\
| =========                 |                                                 |
| \\      /  F ield         | foam-extend: Open Source CFD                    |
|  \\    /   O peration     | Version:     4.1                                |
|   \\  /    A nd           | Web:         http://www.foam-extend.org         |
|    \\/     M anipulation  |                                                 |
\*---------------------------------------------------------------------------*/
FoamFile
{
    version     2.0;
    format      ascii;
    class       volScalarField;
    location    "5";
    object      sigmaHyd;
}
// * * * * * * * * * * * * * * * * * * * * * * * * * * * * * * * * * * * * * //

dimensions      [1 -1 -2 0 0 0 0];

internalField   nonuniform List<scalar> 
1000
(
-273184
-261513
-258452
-252921
-250149
-246997
-244982
-242885
-241894
-238991
-351054
-324470
-312270
-298213
-289217
-280571
-274159
-268161
-263912
-257861
-425997
-385072
-364090
-341846
-326894
-312978
-302403
-292607
-285360
-276119
-496185
-441815
-412590
-382665
-362099
-343247
-328701
-315452
-305250
-293608
-559914
-493332
-456620
-419725
-394066
-370738
-352591
-336222
-323322
-309619
-615621
-538357
-495091
-452100
-421981
-394747
-373433
-354370
-339062
-323699
-661930
-575777
-527055
-478997
-445166
-414686
-390733
-369439
-352097
-335421
-697697
-604685
-551753
-499783
-463086
-430101
-404102
-381093
-362154
-344508
-722011
-624323
-568520
-513884
-475233
-440541
-413146
-388971
-368933
-350643
-734344
-634455
-577316
-521388
-481780
-446237
-418136
-393365
-372760
-354136
271018
178026
116955
62806.1
22040.6
-13124.6
-41615
-66445.4
-87184.8
-106153
258365
167621
107860
55047.2
15269.4
-19007.4
-46759
-70962.2
-91102.2
-109718
233731
147777
90959.9
40872.1
3092.45
-29439.4
-55758
-78761.2
-97760.3
-115716
197449
118534
66036.8
19945.7
-14903.2
-44872.8
-69092.2
-90330.2
-107673
-124637
150535
80718
33813.2
-7108.29
-38169.2
-64826.7
-86347
-105298
-120544
-136171
94183
35267.7
-4938.07
-39655.9
-66172.8
-88850.5
-107139
-123330
-136099
-150034
29842
-16655.4
-49236.6
-76882.4
-98231
-116367
-131003
-144012
-154051
-165886
-40867.2
-73744.1
-97963.6
-117839
-133506
-146641
-157255
-166743
-173783
-183138
-116188
-134598
-149952
-161578
-171245
-179067
-185508
-191132
-195261
-201233
-194257
-197687
-203857
-206921
-210336
-212635
-214650
-216341
-217142
-219881
-121559
-136249
-149192
-161210
-172279
-182649
-192449
-201798
-210813
-219584
-228197
-236743
-245273
-253913
-262632
-271712
-280829
-290845
-300342
-312337
-124495
-138440
-150958
-162519
-173282
-183355
-192929
-202069
-210911
-219522
-227994
-236406
-244809
-253326
-261923
-270877
-279866
-289741
-299095
-310915
-129275
-141893
-153690
-164452
-174705
-184273
-193472
-202263
-210815
-219158
-227389
-235573
-243759
-252061
-260443
-269173
-277931
-287552
-296647
-308143
-136494
-147051
-157828
-167374
-176877
-185685
-194325
-202595
-210716
-218665
-226543
-234394
-242263
-250252
-258322
-266726
-275150
-284399
-293116
-304135
-146000
-153783
-163334
-171297
-179854
-187691
-195616
-203222
-210788
-218229
-225647
-233064
-240519
-248097
-255756
-263732
-271714
-280469
-288689
-299072
-157647
-161922
-170048
-176068
-183450
-190112
-197148
-203956
-210850
-217689
-224568
-231483
-238459
-245566
-252751
-260231
-267699
-275875
-283505
-293124
-171318
-171550
-178131
-182044
-188072
-193464
-199474
-205390
-211500
-217640
-223874
-230186
-236582
-243117
-249730
-256610
-263461
-270940
-277869
-286575
-186327
-182098
-186663
-188368
-192691
-196702
-201515
-206466
-211732
-217154
-222743
-228466
-234302
-240286
-246341
-252629
-258862
-265627
-271827
-279561
-202935
-194949
-196966
-196866
-199298
-201974
-205484
-209363
-213634
-218170
-222935
-227890
-232993
-238257
-243598
-249143
-254615
-260520
-265862
-272471
-216843
-207761
-205406
-203496
-203500
-204594
-206714
-209562
-213000
-216871
-221076
-225538
-230178
-234983
-239849
-244870
-249777
-254997
-259647
-265299
-230168
-223078
-217287
-213778
-212081
-211698
-212465
-214078
-216391
-219232
-222488
-226065
-229871
-233869
-237945
-242155
-246246
-250543
-254263
-258692
-235719
-228826
-223381
-219793
-217756
-216901
-217074
-218034
-219650
-221774
-224301
-227136
-230189
-233412
-236695
-240063
-243291
-246626
-249398
-252655
-241327
-234071
-228641
-224596
-222072
-220630
-220200
-220539
-221535
-223040
-224951
-227171
-229607
-232202
-234848
-237545
-240090
-242658
-244688
-246990
-244439
-237299
-232266
-228188
-225529
-223790
-222982
-222872
-223377
-224359
-225724
-227380
-229238
-231232
-233262
-235308
-237191
-239026
-240354
-241772
-245876
-239094
-234502
-230490
-227797
-225870
-224800
-224358
-224486
-225055
-225982
-227176
-228553
-230047
-231560
-233059
-234389
-235610
-236361
-237044
-245981
-239682
-235601
-231813
-229231
-227265
-226065
-225409
-225265
-225513
-226083
-226888
-227853
-228910
-229971
-230990
-231835
-232526
-232784
-232851
-244992
-239293
-235730
-232247
-229845
-227927
-226685
-225906
-225578
-225591
-225887
-226385
-227018
-227718
-228407
-229032
-229483
-229743
-229612
-229195
-243177
-238127
-235087
-231976
-229819
-228031
-226826
-226004
-225570
-225423
-225515
-225775
-226142
-226554
-226939
-227243
-227375
-227293
-226862
-226078
-240703
-236334
-233810
-231109
-229237
-227634
-226525
-225724
-225246
-225004
-224958
-225045
-225212
-225401
-225552
-225608
-225498
-225161
-224516
-223477
-237736
-234053
-232036
-229773
-228215
-226844
-225878
-225151
-224685
-224402
-224273
-224243
-224267
-224292
-224269
-224142
-223857
-223341
-222559
-221364
-234393
-231394
-229874
-228064
-226841
-225734
-224948
-224337
-223926
-223649
-223485
-223386
-223316
-223231
-223088
-222837
-222439
-221814
-220961
-219698
-230769
-228451
-227419
-226072
-225201
-224382
-223806
-223344
-223024
-222791
-222630
-222503
-222382
-222230
-222015
-221690
-221230
-220555
-219691
-218432
-226957
-225299
-224759
-223882
-223375
-222863
-222519
-222230
-222028
-221867
-221740
-221617
-221479
-221297
-221048
-220691
-220214
-219540
-218710
-217517
-222995
-222021
-221958
-221558
-221424
-221234
-221137
-221042
-220978
-220911
-220841
-220746
-220617
-220433
-220180
-219827
-219368
-218735
-217978
-216901
-218995
-218616
-219105
-219198
-219439
-219582
-219740
-219849
-219933
-219972
-219970
-219918
-219814
-219647
-219411
-219086
-218672
-218111
-217457
-216532
-214899
-215299
-216233
-216804
-217437
-217920
-218347
-218668
-218909
-219061
-219136
-219134
-219064
-218925
-218722
-218442
-218094
-217631
-217102
-216358
-210983
-212200
-213474
-214663
-215586
-216418
-217090
-217617
-218003
-218258
-218399
-218441
-218399
-218287
-218117
-217889
-217618
-217266
-216881
-216336
-206910
-208728
-210672
-212301
-213743
-214927
-215891
-216628
-217164
-217518
-217720
-217795
-217775
-217683
-217547
-217375
-217189
-216964
-216736
-216406
-203377
-205881
-208430
-210543
-212375
-213876
-215073
-215976
-216616
-217025
-217245
-217315
-217280
-217180
-217052
-216921
-216814
-216716
-216659
-216540
-199236
-202725
-205851
-208561
-210877
-212761
-214241
-215336
-216089
-216547
-216769
-216813
-216742
-216614
-216484
-216392
-216374
-216422
-216543
-216622
-338473
-335523
-330425
-322782
-312779
-300567
-286436
-270887
-254499
-238874
-324238
-322080
-318476
-313111
-306157
-297708
-287911
-276756
-264323
-247998
-311453
-309654
-306681
-302205
-296342
-289157
-280874
-271634
-262153
-250506
-299820
-298465
-296301
-293039
-288762
-283466
-277248
-270018
-262153
-252473
-289067
-287982
-286285
-283707
-280311
-276110
-271207
-265653
-259568
-252687
-279123
-278316
-277108
-275258
-272791
-269699
-265973
-261735
-256735
-251768
-269765
-269158
-268293
-266954
-265146
-262885
-260097
-257042
-253122
-249833
-260937
-260518
-259976
-259119
-257916
-256393
-254387
-252266
-249186
-247149
-252494
-252228
-251944
-251474
-250763
-249856
-248526
-247218
-244922
-243874
-244373
-244246
-244199
-244080
-243812
-243443
-242700
-242062
-240456
-240167
-236483
-236477
-236637
-236826
-236948
-237054
-236843
-236790
-235824
-236140
-228750
-228857
-229210
-229684
-230167
-230704
-230980
-231442
-231069
-231878
-221123
-221335
-221869
-222608
-223432
-224370
-225108
-226043
-226232
-227464
-213495
-213809
-214520
-215517
-216673
-217997
-219186
-220569
-221306
-222925
-205891
-206305
-207191
-208443
-209927
-211633
-213269
-215096
-216371
-218366
-198076
-198592
-199658
-201172
-202997
-205097
-207197
-209481
-211318
-213702
-190319
-190939
-192190
-193974
-196149
-198656
-201232
-204004
-206399
-209297
-181901
-182634
-184091
-186172
-188737
-191697
-194811
-198110
-201154
-204445
-174011
-174861
-176526
-178912
-181873
-185299
-188956
-192812
-196498
-200276
-164124
-165116
-167044
-169814
-173280
-177307
-181673
-186266
-190797
-195257
)
;

boundaryField
{
    left
    {
        type            symmetryPlane;
        value           nonuniform List<scalar> 
30
(
-338473
-324238
-311453
-299820
-289067
-279123
-269765
-260937
-252494
-244373
-236483
-228750
-221123
-213495
-205891
-198076
-190319
-181901
-174011
-164124
-734344
-634455
-577316
-521388
-481780
-446237
-418136
-393365
-372760
-354136
)
;
    }
    right
    {
        type            zeroGradient;
    }
    down
    {
        type            symmetryPlane;
        value           nonuniform List<scalar> 
30
(
271018
178026
116955
62806.1
22040.6
-13124.6
-41615
-66445.4
-87184.8
-106153
-121559
-136249
-149192
-161210
-172279
-182649
-192449
-201798
-210813
-219584
-228197
-236743
-245273
-253913
-262632
-271712
-280829
-290845
-300342
-312337
)
;
    }
    up
    {
        type            zeroGradient;
    }
    hole
    {
        type            zeroGradient;
    }
    frontAndBack
    {
        type            empty;
    }
}


// ************************************************************************* //
