/*--------------------------------*- C++ -*----------------------------------*\
| =========                 |                                                 |
| \\      /  F ield         | foam-extend: Open Source CFD                    |
|  \\    /   O peration     | Version:     4.1                                |
|   \\  /    A nd           | Web:         http://www.foam-extend.org         |
|    \\/     M anipulation  |                                                 |
\*---------------------------------------------------------------------------*/
FoamFile
{
    version     2.0;
    format      ascii;
    class       vectorField;
    location    "5";
    object      solidsCellD_iteration8;
}
// * * * * * * * * * * * * * * * * * * * * * * * * * * * * * * * * * * * * * //


1000
(
(2.54075e-06 -1.04242e-06 0)
(2.40119e-06 -9.72287e-07 0)
(2.3128e-06 -9.28749e-07 0)
(2.26279e-06 -9.09607e-07 0)
(2.2393e-06 -9.04521e-07 0)
(2.23525e-06 -9.10261e-07 0)
(2.24547e-06 -9.23097e-07 0)
(2.26637e-06 -9.41308e-07 0)
(2.29545e-06 -9.63044e-07 0)
(2.32981e-06 -9.8746e-07 0)
(2.29791e-06 -1.13876e-06 0)
(2.14927e-06 -1.0909e-06 0)
(2.05504e-06 -1.0615e-06 0)
(2.00069e-06 -1.05203e-06 0)
(1.97371e-06 -1.0534e-06 0)
(1.96639e-06 -1.06372e-06 0)
(1.97344e-06 -1.07984e-06 0)
(1.99101e-06 -1.10048e-06 0)
(2.01645e-06 -1.12415e-06 0)
(2.04693e-06 -1.14988e-06 0)
(2.04538e-06 -1.23003e-06 0)
(1.89349e-06 -1.20706e-06 0)
(1.79716e-06 -1.19344e-06 0)
(1.74084e-06 -1.19456e-06 0)
(1.71192e-06 -1.20287e-06 0)
(1.70235e-06 -1.21798e-06 0)
(1.70684e-06 -1.23743e-06 0)
(1.72158e-06 -1.2604e-06 0)
(1.74386e-06 -1.28585e-06 0)
(1.77108e-06 -1.3127e-06 0)
(1.78509e-06 -1.31464e-06 0)
(1.63636e-06 -1.31773e-06 0)
(1.54199e-06 -1.32064e-06 0)
(1.48622e-06 -1.33276e-06 0)
(1.45692e-06 -1.34825e-06 0)
(1.4461e-06 -1.36824e-06 0)
(1.44861e-06 -1.391e-06 0)
(1.46083e-06 -1.41625e-06 0)
(1.48016e-06 -1.44343e-06 0)
(1.50411e-06 -1.47151e-06 0)
(1.51887e-06 -1.39091e-06 0)
(1.37961e-06 -1.41981e-06 0)
(1.29121e-06 -1.43908e-06 0)
(1.23863e-06 -1.46205e-06 0)
(1.21057e-06 -1.48457e-06 0)
(1.19942e-06 -1.50934e-06 0)
(1.2005e-06 -1.53529e-06 0)
(1.21043e-06 -1.56278e-06 0)
(1.22689e-06 -1.5916e-06 0)
(1.24746e-06 -1.621e-06 0)
(1.24795e-06 -1.4573e-06 0)
(1.12434e-06 -1.51033e-06 0)
(1.0459e-06 -1.5449e-06 0)
(9.98953e-07 -1.57803e-06 0)
(9.73581e-07 -1.60711e-06 0)
(9.62993e-07 -1.63631e-06 0)
(9.63182e-07 -1.66521e-06 0)
(9.71057e-07 -1.69477e-06 0)
(9.84632e-07 -1.72513e-06 0)
(1.00166e-06 -1.75582e-06 0)
(9.73727e-07 -1.51231e-06 0)
(8.71226e-07 -1.58648e-06 0)
(8.06177e-07 -1.63448e-06 0)
(7.67075e-07 -1.6765e-06 0)
(7.45771e-07 -1.7113e-06 0)
(7.36629e-07 -1.74438e-06 0)
(7.36346e-07 -1.77585e-06 0)
(7.42301e-07 -1.80724e-06 0)
(7.5291e-07 -1.83894e-06 0)
(7.66254e-07 -1.87083e-06 0)
(6.97134e-07 -1.55473e-06 0)
(6.20323e-07 -1.6459e-06 0)
(5.7161e-07 -1.70465e-06 0)
(5.42288e-07 -1.75376e-06 0)
(5.26225e-07 -1.79318e-06 0)
(5.19193e-07 -1.82937e-06 0)
(5.18725e-07 -1.86293e-06 0)
(5.22862e-07 -1.89581e-06 0)
(5.30463e-07 -1.92859e-06 0)
(5.4004e-07 -1.96147e-06 0)
(4.18947e-07 -1.58356e-06 0)
(3.71402e-07 -1.68659e-06 0)
(3.41275e-07 -1.75286e-06 0)
(3.23061e-07 -1.80699e-06 0)
(3.13017e-07 -1.84963e-06 0)
(3.08565e-07 -1.88797e-06 0)
(3.08201e-07 -1.923e-06 0)
(3.1066e-07 -1.95697e-06 0)
(3.15218e-07 -1.99054e-06 0)
(3.20969e-07 -2.02413e-06 0)
(1.39919e-07 -1.59809e-06 0)
(1.23813e-07 -1.70726e-06 0)
(1.13547e-07 -1.7774e-06 0)
(1.07357e-07 -1.83408e-06 0)
(1.03973e-07 -1.87839e-06 0)
(1.02432e-07 -1.91787e-06 0)
(1.02239e-07 -1.95364e-06 0)
(1.03039e-07 -1.98814e-06 0)
(1.0457e-07 -2.0221e-06 0)
(1.06482e-07 -2.05609e-06 0)
(3.95798e-06 -4.7538e-08 0)
(3.99298e-06 -3.43273e-08 0)
(4.01502e-06 -2.59981e-08 0)
(4.03917e-06 -2.1145e-08 0)
(4.06587e-06 -1.84976e-08 0)
(4.09852e-06 -1.73538e-08 0)
(4.1371e-06 -1.72161e-08 0)
(4.1819e-06 -1.76974e-08 0)
(4.23286e-06 -1.86999e-08 0)
(4.28929e-06 -1.9902e-08 0)
(3.92884e-06 -1.42637e-07 0)
(3.95804e-06 -1.03778e-07 0)
(3.97645e-06 -7.92991e-08 0)
(3.99814e-06 -6.51349e-08 0)
(4.02321e-06 -5.74885e-08 0)
(4.05468e-06 -5.41354e-08 0)
(4.09245e-06 -5.37894e-08 0)
(4.13659e-06 -5.54096e-08 0)
(4.18695e-06 -5.84349e-08 0)
(4.24279e-06 -6.19599e-08 0)
(3.87061e-06 -2.38514e-07 0)
(3.88874e-06 -1.76179e-07 0)
(3.90016e-06 -1.36955e-07 0)
(3.91721e-06 -1.1421e-07 0)
(3.93922e-06 -1.02032e-07 0)
(3.96854e-06 -9.68935e-08 0)
(4.00467e-06 -9.65313e-08 0)
(4.04752e-06 -9.92943e-08 0)
(4.09675e-06 -1.04298e-07 0)
(4.15143e-06 -1.10181e-07 0)
(3.78433e-06 -3.35637e-07 0)
(3.78672e-06 -2.53187e-07 0)
(3.78815e-06 -2.01415e-07 0)
(3.79861e-06 -1.71543e-07 0)
(3.81621e-06 -1.55619e-07 0)
(3.84245e-06 -1.49076e-07 0)
(3.87631e-06 -1.48865e-07 0)
(3.91736e-06 -1.52883e-07 0)
(3.96501e-06 -1.59887e-07 0)
(4.01809e-06 -1.68144e-07 0)
(3.67127e-06 -4.34245e-07 0)
(3.65427e-06 -3.36215e-07 0)
(3.64333e-06 -2.74711e-07 0)
(3.6456e-06 -2.39513e-07 0)
(3.65778e-06 -2.20936e-07 0)
(3.68018e-06 -2.1363e-07 0)
(3.7112e-06 -2.13925e-07 0)
(3.74997e-06 -2.19352e-07 0)
(3.79565e-06 -2.28333e-07 0)
(3.84683e-06 -2.3891e-07 0)
(3.53313e-06 -5.34409e-07 0)
(3.49412e-06 -4.26199e-07 0)
(3.46927e-06 -3.58322e-07 0)
(3.46231e-06 -3.19913e-07 0)
(3.46832e-06 -3.00004e-07 0)
(3.48633e-06 -2.9272e-07 0)
(3.51415e-06 -2.93906e-07 0)
(3.55031e-06 -3.00864e-07 0)
(3.59375e-06 -3.11786e-07 0)
(3.64279e-06 -3.24634e-07 0)
(3.37193e-06 -6.35942e-07 0)
(3.30966e-06 -5.23525e-07 0)
(3.27009e-06 -4.5303e-07 0)
(3.25337e-06 -4.1377e-07 0)
(3.25285e-06 -3.93939e-07 0)
(3.26621e-06 -3.87516e-07 0)
(3.29058e-06 -3.90026e-07 0)
(3.32395e-06 -3.98666e-07 0)
(3.36493e-06 -4.1153e-07 0)
(3.41172e-06 -4.26571e-07 0)
(3.18976e-06 -7.38342e-07 0)
(3.10444e-06 -6.27947e-07 0)
(3.05029e-06 -5.5875e-07 0)
(3.02382e-06 -5.21091e-07 0)
(3.0168e-06 -5.02821e-07 0)
(3.02545e-06 -4.9815e-07 0)
(3.04626e-06 -5.02456e-07 0)
(3.07675e-06 -5.13001e-07 0)
(3.11515e-06 -5.2782e-07 0)
(3.15962e-06 -5.44996e-07 0)
(2.98896e-06 -8.40918e-07 0)
(2.8822e-06 -7.38593e-07 0)
(2.81452e-06 -6.74571e-07 0)
(2.77891e-06 -6.40933e-07 0)
(2.76571e-06 -6.25717e-07 0)
(2.76976e-06 -6.23674e-07 0)
(2.78698e-06 -6.30282e-07 0)
(2.8145e-06 -6.4293e-07 0)
(2.85015e-06 -6.59791e-07 0)
(2.89221e-06 -6.78854e-07 0)
(2.77187e-06 -9.42685e-07 0)
(2.64666e-06 -8.54022e-07 0)
(2.5673e-06 -7.98718e-07 0)
(2.52368e-06 -7.71389e-07 0)
(2.50491e-06 -7.60644e-07 0)
(2.50473e-06 -7.62101e-07 0)
(2.51859e-06 -7.71566e-07 0)
(2.54318e-06 -7.86798e-07 0)
(2.57624e-06 -8.05947e-07 0)
(2.61544e-06 -8.27826e-07 0)
(4.35124e-06 -2.10498e-08 0)
(4.41871e-06 -2.13617e-08 0)
(4.4904e-06 -2.16945e-08 0)
(4.56603e-06 -2.19407e-08 0)
(4.64516e-06 -2.20823e-08 0)
(4.72752e-06 -2.21128e-08 0)
(4.81274e-06 -2.20003e-08 0)
(4.90045e-06 -2.1772e-08 0)
(4.99044e-06 -2.14363e-08 0)
(5.08245e-06 -2.09583e-08 0)
(5.17621e-06 -2.03088e-08 0)
(5.27142e-06 -1.94825e-08 0)
(5.36785e-06 -1.84765e-08 0)
(5.46523e-06 -1.7286e-08 0)
(5.56332e-06 -1.58906e-08 0)
(5.66178e-06 -1.42538e-08 0)
(5.76043e-06 -1.23306e-08 0)
(5.85867e-06 -1.00809e-08 0)
(5.95662e-06 -7.45539e-09 0)
(6.05283e-06 -4.44199e-09 0)
(4.30679e-06 -6.5175e-08 0)
(4.37796e-06 -6.58426e-08 0)
(4.45295e-06 -6.65893e-08 0)
(4.53149e-06 -6.71121e-08 0)
(4.61322e-06 -6.73238e-08 0)
(4.69785e-06 -6.72543e-08 0)
(4.78511e-06 -6.68515e-08 0)
(4.87472e-06 -6.61236e-08 0)
(4.96644e-06 -6.50147e-08 0)
(5.06003e-06 -6.34581e-08 0)
(5.15522e-06 -6.14313e-08 0)
(5.25177e-06 -5.89322e-08 0)
(5.34948e-06 -5.59218e-08 0)
(5.44807e-06 -5.2342e-08 0)
(5.54729e-06 -4.81169e-08 0)
(5.64682e-06 -4.3164e-08 0)
(5.7465e-06 -3.73756e-08 0)
(5.84573e-06 -3.06426e-08 0)
(5.94465e-06 -2.28074e-08 0)
(6.04181e-06 -1.38056e-08 0)
(4.21943e-06 -1.14878e-07 0)
(4.29789e-06 -1.15089e-07 0)
(4.37941e-06 -1.15489e-07 0)
(4.46355e-06 -1.1572e-07 0)
(4.55033e-06 -1.15572e-07 0)
(4.63948e-06 -1.15078e-07 0)
(4.73085e-06 -1.14092e-07 0)
(4.82412e-06 -1.12592e-07 0)
(4.91918e-06 -1.10482e-07 0)
(5.01581e-06 -1.07693e-07 0)
(5.11383e-06 -1.042e-07 0)
(5.21303e-06 -9.99659e-08 0)
(5.31321e-06 -9.48901e-08 0)
(5.41409e-06 -8.88594e-08 0)
(5.51549e-06 -8.17575e-08 0)
(5.61712e-06 -7.34615e-08 0)
(5.71883e-06 -6.37975e-08 0)
(5.82005e-06 -5.25903e-08 0)
(5.92092e-06 -3.95758e-08 0)
(6.02002e-06 -2.46236e-08 0)
(4.09178e-06 -1.7332e-07 0)
(4.18063e-06 -1.71771e-07 0)
(4.27156e-06 -1.70651e-07 0)
(4.36392e-06 -1.69713e-07 0)
(4.45811e-06 -1.68483e-07 0)
(4.55382e-06 -1.66991e-07 0)
(4.65111e-06 -1.64943e-07 0)
(4.74976e-06 -1.62298e-07 0)
(4.84977e-06 -1.58901e-07 0)
(4.95095e-06 -1.54672e-07 0)
(5.05317e-06 -1.49537e-07 0)
(5.15624e-06 -1.43406e-07 0)
(5.26002e-06 -1.36127e-07 0)
(5.3643e-06 -1.27557e-07 0)
(5.46892e-06 -1.17548e-07 0)
(5.57364e-06 -1.05907e-07 0)
(5.67831e-06 -9.2387e-08 0)
(5.78242e-06 -7.67347e-08 0)
(5.88608e-06 -5.85657e-08 0)
(5.988e-06 -3.77174e-08 0)
(3.92763e-06 -2.43271e-07 0)
(4.02959e-06 -2.38314e-07 0)
(4.1325e-06 -2.34215e-07 0)
(4.23526e-06 -2.31e-07 0)
(4.33887e-06 -2.27735e-07 0)
(4.44299e-06 -2.24463e-07 0)
(4.54793e-06 -2.20719e-07 0)
(4.65353e-06 -2.16438e-07 0)
(4.75988e-06 -2.11365e-07 0)
(4.86688e-06 -2.05366e-07 0)
(4.97447e-06 -1.98325e-07 0)
(5.08257e-06 -1.90094e-07 0)
(5.19105e-06 -1.80469e-07 0)
(5.29976e-06 -1.69264e-07 0)
(5.4086e-06 -1.56281e-07 0)
(5.5173e-06 -1.41258e-07 0)
(5.62582e-06 -1.23876e-07 0)
(5.73362e-06 -1.03809e-07 0)
(5.84095e-06 -8.05423e-08 0)
(5.9465e-06 -5.3879e-08 0)
(3.73161e-06 -3.26752e-07 0)
(3.84865e-06 -3.16481e-07 0)
(3.96559e-06 -3.07641e-07 0)
(4.08065e-06 -3.00765e-07 0)
(4.19551e-06 -2.94334e-07 0)
(4.30969e-06 -2.88369e-07 0)
(4.42375e-06 -2.8219e-07 0)
(4.53766e-06 -2.75641e-07 0)
(4.65162e-06 -2.68398e-07 0)
(4.76562e-06 -2.60259e-07 0)
(4.87971e-06 -2.51033e-07 0)
(4.99386e-06 -2.40494e-07 0)
(5.10799e-06 -2.28375e-07 0)
(5.22201e-06 -2.14437e-07 0)
(5.33588e-06 -1.9841e-07 0)
(5.44936e-06 -1.79978e-07 0)
(5.56251e-06 -1.58747e-07 0)
(5.67478e-06 -1.34325e-07 0)
(5.78652e-06 -1.06064e-07 0)
(5.89645e-06 -7.36892e-08 0)
(3.50918e-06 -4.25013e-07 0)
(3.64267e-06 -4.07462e-07 0)
(3.77515e-06 -3.92119e-07 0)
(3.90392e-06 -3.80107e-07 0)
(4.03132e-06 -3.69307e-07 0)
(4.15685e-06 -3.59609e-07 0)
(4.28122e-06 -3.50194e-07 0)
(4.40456e-06 -3.40721e-07 0)
(4.5272e-06 -3.3079e-07 0)
(4.64923e-06 -3.20095e-07 0)
(4.77077e-06 -3.08343e-07 0)
(4.89183e-06 -2.9522e-07 0)
(5.01243e-06 -2.80392e-07 0)
(5.13254e-06 -2.63567e-07 0)
(5.25218e-06 -2.44408e-07 0)
(5.37119e-06 -2.22538e-07 0)
(5.48965e-06 -1.97481e-07 0)
(5.60708e-06 -1.6876e-07 0)
(5.72387e-06 -1.35596e-07 0)
(5.83881e-06 -9.76318e-08 0)
(3.26572e-06 -5.38354e-07 0)
(3.41625e-06 -5.11366e-07 0)
(3.56508e-06 -4.87774e-07 0)
(3.7086e-06 -4.68965e-07 0)
(3.84958e-06 -4.52518e-07 0)
(3.98749e-06 -4.37985e-07 0)
(4.12325e-06 -4.24458e-07 0)
(4.25705e-06 -4.1137e-07 0)
(4.38929e-06 -3.98207e-07 0)
(4.52019e-06 -3.84527e-07 0)
(4.64993e-06 -3.69918e-07 0)
(4.77862e-06 -3.5397e-07 0)
(4.90635e-06 -3.36283e-07 0)
(5.03321e-06 -3.16496e-07 0)
(5.15926e-06 -2.94193e-07 0)
(5.28439e-06 -2.68925e-07 0)
(5.40872e-06 -2.4012e-07 0)
(5.53187e-06 -2.07204e-07 0)
(5.65422e-06 -1.69271e-07 0)
(5.77472e-06 -1.2588e-07 0)
(3.00695e-06 -6.66562e-07 0)
(3.17478e-06 -6.28293e-07 0)
(3.34013e-06 -5.95293e-07 0)
(3.49901e-06 -5.68238e-07 0)
(3.65409e-06 -5.4502e-07 0)
(3.80505e-06 -5.24647e-07 0)
(3.95281e-06 -5.06138e-07 0)
(4.09769e-06 -4.88693e-07 0)
(4.24016e-06 -4.71665e-07 0)
(4.38053e-06 -4.54464e-07 0)
(4.51907e-06 -4.3656e-07 0)
(4.65597e-06 -4.17451e-07 0)
(4.79142e-06 -3.96664e-07 0)
(4.92557e-06 -3.73752e-07 0)
(5.05853e-06 -3.48209e-07 0)
(5.19026e-06 -3.195e-07 0)
(5.32093e-06 -2.86951e-07 0)
(5.45022e-06 -2.49897e-07 0)
(5.57859e-06 -2.0732e-07 0)
(5.70513e-06 -1.58704e-07 0)
(2.73786e-06 -8.076e-07 0)
(2.92361e-06 -7.55095e-07 0)
(3.10512e-06 -7.11499e-07 0)
(3.27988e-06 -6.74863e-07 0)
(3.44939e-06 -6.43753e-07 0)
(3.61395e-06 -6.16634e-07 0)
(3.77419e-06 -5.92396e-07 0)
(3.93064e-06 -5.70039e-07 0)
(4.08379e-06 -5.48736e-07 0)
(4.23405e-06 -5.27733e-07 0)
(4.38176e-06 -5.06365e-07 0)
(4.52722e-06 -4.84016e-07 0)
(4.6707e-06 -4.60116e-07 0)
(4.81241e-06 -4.34119e-07 0)
(4.9525e-06 -4.05423e-07 0)
(5.09105e-06 -3.73407e-07 0)
(5.22825e-06 -3.37303e-07 0)
(5.36389e-06 -2.96339e-07 0)
(5.4985e-06 -2.494e-07 0)
(5.63136e-06 -1.95859e-07 0)
(2.53586e-06 -9.44929e-07 0)
(2.73462e-06 -8.80134e-07 0)
(2.92643e-06 -8.28217e-07 0)
(3.11145e-06 -7.83653e-07 0)
(3.29035e-06 -7.45407e-07 0)
(3.46375e-06 -7.11838e-07 0)
(3.63226e-06 -6.81764e-07 0)
(3.79643e-06 -6.54136e-07 0)
(3.95676e-06 -6.2804e-07 0)
(4.11368e-06 -6.02645e-07 0)
(4.26756e-06 -5.77219e-07 0)
(4.41875e-06 -5.51084e-07 0)
(4.56754e-06 -5.236e-07 0)
(4.7142e-06 -4.94152e-07 0)
(4.85888e-06 -4.62081e-07 0)
(5.00175e-06 -4.26703e-07 0)
(5.14303e-06 -3.87222e-07 0)
(5.28267e-06 -3.42803e-07 0)
(5.42117e-06 -2.92317e-07 0)
(5.55806e-06 -2.3507e-07 0)
(2.42143e-06 -1.05768e-06 0)
(2.62159e-06 -9.90204e-07 0)
(2.81513e-06 -9.33401e-07 0)
(3.00289e-06 -8.83776e-07 0)
(3.18493e-06 -8.40356e-07 0)
(3.36165e-06 -8.01739e-07 0)
(3.5335e-06 -7.66797e-07 0)
(3.70093e-06 -7.3452e-07 0)
(3.86434e-06 -7.04002e-07 0)
(4.02413e-06 -6.7442e-07 0)
(4.18067e-06 -6.45037e-07 0)
(4.33427e-06 -6.15163e-07 0)
(4.48525e-06 -5.84136e-07 0)
(4.63387e-06 -5.5132e-07 0)
(4.78029e-06 -5.16048e-07 0)
(4.92475e-06 -4.77619e-07 0)
(5.06745e-06 -4.35266e-07 0)
(5.20849e-06 -3.88159e-07 0)
(5.34834e-06 -3.35221e-07 0)
(5.4867e-06 -2.75752e-07 0)
(2.32465e-06 -1.16524e-06 0)
(2.52272e-06 -1.09645e-06 0)
(2.716e-06 -1.03671e-06 0)
(2.9043e-06 -9.83354e-07 0)
(3.08761e-06 -9.35722e-07 0)
(3.266e-06 -8.92707e-07 0)
(3.4398e-06 -8.53329e-07 0)
(3.60927e-06 -8.16682e-07 0)
(3.77475e-06 -7.81917e-07 0)
(3.93656e-06 -7.48256e-07 0)
(4.09503e-06 -7.14978e-07 0)
(4.25044e-06 -6.814e-07 0)
(4.40311e-06 -6.46856e-07 0)
(4.55327e-06 -6.10705e-07 0)
(4.7011e-06 -5.72289e-07 0)
(4.84689e-06 -5.30908e-07 0)
(4.99084e-06 -4.85832e-07 0)
(5.13312e-06 -4.36264e-07 0)
(5.27418e-06 -3.81186e-07 0)
(5.41393e-06 -3.19918e-07 0)
(2.23965e-06 -1.26889e-06 0)
(2.43482e-06 -1.19954e-06 0)
(2.62645e-06 -1.13764e-06 0)
(2.81393e-06 -1.08129e-06 0)
(2.99714e-06 -1.03009e-06 0)
(3.17597e-06 -9.83202e-07 0)
(3.35061e-06 -9.39817e-07 0)
(3.52115e-06 -8.99141e-07 0)
(3.68786e-06 -8.60403e-07 0)
(3.85098e-06 -8.22882e-07 0)
(4.01078e-06 -7.85895e-07 0)
(4.16751e-06 -7.48773e-07 0)
(4.32144e-06 -7.10865e-07 0)
(4.47281e-06 -6.7154e-07 0)
(4.6218e-06 -6.30155e-07 0)
(4.76871e-06 -5.86033e-07 0)
(4.91374e-06 -5.38487e-07 0)
(5.05715e-06 -4.86764e-07 0)
(5.19932e-06 -4.29909e-07 0)
(5.34037e-06 -3.6732e-07 0)
(2.16491e-06 -1.36815e-06 0)
(2.3565e-06 -1.29881e-06 0)
(2.54555e-06 -1.2356e-06 0)
(2.73119e-06 -1.17704e-06 0)
(2.91329e-06 -1.123e-06 0)
(3.09159e-06 -1.07285e-06 0)
(3.26613e-06 -1.02596e-06 0)
(3.43692e-06 -9.81664e-07 0)
(3.60412e-06 -9.39286e-07 0)
(3.76791e-06 -8.98178e-07 0)
(3.92849e-06 -8.57704e-07 0)
(4.08606e-06 -8.17229e-07 0)
(4.24087e-06 -7.7613e-07 0)
(4.39313e-06 -7.33804e-07 0)
(4.54302e-06 -6.89629e-07 0)
(4.69084e-06 -6.42966e-07 0)
(4.8368e-06 -5.93174e-07 0)
(4.98119e-06 -5.39551e-07 0)
(5.12436e-06 -4.81233e-07 0)
(5.2666e-06 -4.17743e-07 0)
(2.09854e-06 -1.4632e-06 0)
(2.2862e-06 -1.39428e-06 0)
(2.47216e-06 -1.33029e-06 0)
(2.65529e-06 -1.27013e-06 0)
(2.83556e-06 -1.21383e-06 0)
(3.01257e-06 -1.16096e-06 0)
(3.18629e-06 -1.11106e-06 0)
(3.35664e-06 -1.06357e-06 0)
(3.52371e-06 -1.01792e-06 0)
(3.68762e-06 -9.73545e-07 0)
(3.84849e-06 -9.29865e-07 0)
(4.00648e-06 -8.86287e-07 0)
(4.16181e-06 -8.42226e-07 0)
(4.31466e-06 -7.97119e-07 0)
(4.4652e-06 -7.50374e-07 0)
(4.61373e-06 -7.01406e-07 0)
(4.76045e-06 -6.49614e-07 0)
(4.90567e-06 -5.9436e-07 0)
(5.04975e-06 -5.34904e-07 0)
(5.19305e-06 -4.70874e-07 0)
(2.03915e-06 -1.55423e-06 0)
(2.22272e-06 -1.486e-06 0)
(2.40522e-06 -1.42165e-06 0)
(2.58541e-06 -1.36039e-06 0)
(2.76335e-06 -1.30235e-06 0)
(2.93852e-06 -1.24727e-06 0)
(3.11086e-06 -1.19481e-06 0)
(3.28025e-06 -1.14456e-06 0)
(3.44669e-06 -1.09602e-06 0)
(3.61024e-06 -1.04872e-06 0)
(3.77098e-06 -1.00213e-06 0)
(3.92902e-06 -9.55718e-07 0)
(4.08454e-06 -9.08944e-07 0)
(4.2377e-06 -8.61292e-07 0)
(4.38867e-06 -8.12204e-07 0)
(4.53772e-06 -7.61157e-07 0)
(4.68504e-06 -7.07602e-07 0)
(4.83096e-06 -6.50978e-07 0)
(4.97584e-06 -5.90679e-07 0)
(5.12004e-06 -5.26364e-07 0)
(1.98548e-06 -1.64147e-06 0)
(2.16494e-06 -1.5741e-06 0)
(2.34378e-06 -1.5097e-06 0)
(2.5208e-06 -1.44772e-06 0)
(2.69604e-06 -1.38837e-06 0)
(2.86898e-06 -1.33151e-06 0)
(3.03954e-06 -1.27693e-06 0)
(3.20754e-06 -1.22431e-06 0)
(3.37294e-06 -1.17325e-06 0)
(3.53574e-06 -1.12336e-06 0)
(3.696e-06 -1.07417e-06 0)
(3.85377e-06 -1.02521e-06 0)
(4.00922e-06 -9.7599e-07 0)
(4.16246e-06 -9.26043e-07 0)
(4.31365e-06 -8.74856e-07 0)
(4.46305e-06 -8.21967e-07 0)
(4.61082e-06 -7.66895e-07 0)
(4.75733e-06 -7.09158e-07 0)
(4.90288e-06 -6.48263e-07 0)
(5.04785e-06 -5.83857e-07 0)
(1.9364e-06 -1.7252e-06 0)
(2.11179e-06 -1.65878e-06 0)
(2.28691e-06 -1.59455e-06 0)
(2.46062e-06 -1.53214e-06 0)
(2.63295e-06 -1.47184e-06 0)
(2.80341e-06 -1.41357e-06 0)
(2.97191e-06 -1.35724e-06 0)
(3.13822e-06 -1.30262e-06 0)
(3.30227e-06 -1.2494e-06 0)
(3.46403e-06 -1.19724e-06 0)
(3.62353e-06 -1.14577e-06 0)
(3.78078e-06 -1.09456e-06 0)
(3.93592e-06 -1.04316e-06 0)
(4.08904e-06 -9.91176e-07 0)
(4.24029e-06 -9.38138e-07 0)
(4.38989e-06 -8.83649e-07 0)
(4.538e-06 -8.27302e-07 0)
(4.68498e-06 -7.68683e-07 0)
(4.83106e-06 -7.07368e-07 0)
(4.97669e-06 -6.43073e-07 0)
(1.89093e-06 -1.80567e-06 0)
(2.06233e-06 -1.74026e-06 0)
(2.23375e-06 -1.67635e-06 0)
(2.4041e-06 -1.61373e-06 0)
(2.57343e-06 -1.55274e-06 0)
(2.74128e-06 -1.49337e-06 0)
(2.90753e-06 -1.43562e-06 0)
(3.07194e-06 -1.37935e-06 0)
(3.23442e-06 -1.32429e-06 0)
(3.39493e-06 -1.2702e-06 0)
(3.55346e-06 -1.21676e-06 0)
(3.70999e-06 -1.16358e-06 0)
(3.86466e-06 -1.11028e-06 0)
(4.0175e-06 -1.05652e-06 0)
(4.16865e-06 -1.00188e-06 0)
(4.31833e-06 -9.46027e-07 0)
(4.46667e-06 -8.88629e-07 0)
(4.614e-06 -8.29315e-07 0)
(4.7605e-06 -7.67727e-07 0)
(4.90667e-06 -7.03733e-07 0)
(1.84819e-06 -1.88317e-06 0)
(2.01573e-06 -1.81877e-06 0)
(2.18352e-06 -1.75526e-06 0)
(2.35053e-06 -1.6926e-06 0)
(2.51685e-06 -1.63114e-06 0)
(2.68202e-06 -1.57094e-06 0)
(2.84592e-06 -1.51207e-06 0)
(3.00832e-06 -1.45444e-06 0)
(3.1691e-06 -1.39787e-06 0)
(3.32822e-06 -1.34214e-06 0)
(3.48563e-06 -1.28701e-06 0)
(3.64131e-06 -1.23214e-06 0)
(3.79535e-06 -1.17721e-06 0)
(3.94779e-06 -1.12191e-06 0)
(4.09874e-06 -1.06591e-06 0)
(4.2484e-06 -1.00893e-06 0)
(4.39687e-06 -9.50665e-07 0)
(4.54442e-06 -8.90806e-07 0)
(4.69127e-06 -8.29101e-07 0)
(4.83785e-06 -7.65502e-07 0)
(1.80742e-06 -1.95796e-06 0)
(1.97127e-06 -1.89451e-06 0)
(2.13552e-06 -1.83147e-06 0)
(2.29929e-06 -1.76888e-06 0)
(2.46263e-06 -1.70714e-06 0)
(2.62512e-06 -1.64634e-06 0)
(2.78663e-06 -1.5866e-06 0)
(2.94696e-06 -1.52788e-06 0)
(3.10597e-06 -1.47007e-06 0)
(3.26361e-06 -1.41298e-06 0)
(3.41982e-06 -1.35643e-06 0)
(3.57456e-06 -1.30013e-06 0)
(3.7279e-06 -1.24381e-06 0)
(3.87987e-06 -1.18724e-06 0)
(4.03054e-06 -1.13011e-06 0)
(4.18009e-06 -1.07219e-06 0)
(4.32858e-06 -1.01323e-06 0)
(4.47629e-06 -9.52964e-07 0)
(4.6234e-06 -8.91296e-07 0)
(4.77028e-06 -8.28108e-07 0)
(1.76796e-06 -2.03026e-06 0)
(1.92826e-06 -1.96771e-06 0)
(2.08912e-06 -1.90517e-06 0)
(2.24975e-06 -1.84276e-06 0)
(2.41018e-06 -1.78087e-06 0)
(2.57003e-06 -1.71964e-06 0)
(2.72919e-06 -1.65925e-06 0)
(2.88745e-06 -1.59968e-06 0)
(3.04469e-06 -1.54087e-06 0)
(3.20084e-06 -1.48269e-06 0)
(3.35581e-06 -1.42497e-06 0)
(3.50957e-06 -1.36751e-06 0)
(3.66217e-06 -1.31006e-06 0)
(3.8136e-06 -1.25244e-06 0)
(3.96393e-06 -1.19439e-06 0)
(4.11331e-06 -1.1357e-06 0)
(4.26175e-06 -1.07619e-06 0)
(4.40955e-06 -1.01566e-06 0)
(4.5568e-06 -9.54098e-07 0)
(4.70391e-06 -8.91373e-07 0)
(1.72918e-06 -2.10028e-06 0)
(1.88611e-06 -2.03859e-06 0)
(2.04372e-06 -1.97654e-06 0)
(2.20133e-06 -1.91436e-06 0)
(2.35895e-06 -1.85244e-06 0)
(2.51626e-06 -1.79095e-06 0)
(2.67315e-06 -1.7301e-06 0)
(2.82941e-06 -1.6699e-06 0)
(2.98492e-06 -1.61034e-06 0)
(3.13958e-06 -1.55129e-06 0)
(3.29333e-06 -1.49265e-06 0)
(3.4461e-06 -1.43424e-06 0)
(3.59794e-06 -1.37588e-06 0)
(3.74882e-06 -1.31741e-06 0)
(3.89877e-06 -1.25861e-06 0)
(4.04791e-06 -1.19931e-06 0)
(4.19626e-06 -1.13938e-06 0)
(4.34409e-06 -1.07871e-06 0)
(4.49144e-06 -1.01725e-06 0)
(4.63869e-06 -9.55037e-07 0)
(1.69043e-06 -2.16824e-06 0)
(1.84415e-06 -2.10734e-06 0)
(1.99868e-06 -2.04578e-06 0)
(2.15341e-06 -1.98388e-06 0)
(2.30838e-06 -1.92203e-06 0)
(2.46329e-06 -1.86043e-06 0)
(2.61804e-06 -1.79929e-06 0)
(2.77239e-06 -1.73865e-06 0)
(2.92625e-06 -1.67851e-06 0)
(3.07951e-06 -1.6188e-06 0)
(3.23209e-06 -1.55946e-06 0)
(3.38392e-06 -1.50034e-06 0)
(3.53503e-06 -1.44127e-06 0)
(3.68536e-06 -1.38214e-06 0)
(3.83491e-06 -1.32275e-06 0)
(3.9838e-06 -1.26297e-06 0)
(4.13204e-06 -1.20275e-06 0)
(4.27985e-06 -1.142e-06 0)
(4.42726e-06 -1.0807e-06 0)
(4.57458e-06 -1.01893e-06 0)
(1.65108e-06 -2.23431e-06 0)
(1.80176e-06 -2.17418e-06 0)
(1.95334e-06 -2.11305e-06 0)
(2.1054e-06 -2.05147e-06 0)
(2.25793e-06 -1.98979e-06 0)
(2.41064e-06 -1.9282e-06 0)
(2.5634e-06 -1.86691e-06 0)
(2.71601e-06 -1.80601e-06 0)
(2.86835e-06 -1.74549e-06 0)
(3.02031e-06 -1.68531e-06 0)
(3.17182e-06 -1.62547e-06 0)
(3.32278e-06 -1.56582e-06 0)
(3.47319e-06 -1.50622e-06 0)
(3.62298e-06 -1.44657e-06 0)
(3.77214e-06 -1.38673e-06 0)
(3.9208e-06 -1.32662e-06 0)
(4.06893e-06 -1.26621e-06 0)
(4.21667e-06 -1.20538e-06 0)
(4.36408e-06 -1.14426e-06 0)
(4.51142e-06 -1.08292e-06 0)
(1.61049e-06 -2.29871e-06 0)
(1.75819e-06 -2.23913e-06 0)
(1.90698e-06 -2.17856e-06 0)
(2.05673e-06 -2.11742e-06 0)
(2.20703e-06 -2.05597e-06 0)
(2.35778e-06 -1.99448e-06 0)
(2.50878e-06 -1.93317e-06 0)
(2.65984e-06 -1.87213e-06 0)
(2.81083e-06 -1.81139e-06 0)
(2.96168e-06 -1.75093e-06 0)
(3.11225e-06 -1.69075e-06 0)
(3.26243e-06 -1.63072e-06 0)
(3.4122e-06 -1.57072e-06 0)
(3.5615e-06 -1.51071e-06 0)
(3.71033e-06 -1.45056e-06 0)
(3.85879e-06 -1.39022e-06 0)
(4.00678e-06 -1.32963e-06 0)
(4.15444e-06 -1.26876e-06 0)
(4.3018e-06 -1.20783e-06 0)
(4.44919e-06 -1.14687e-06 0)
(1.56768e-06 -2.36137e-06 0)
(1.71286e-06 -2.30244e-06 0)
(1.85937e-06 -2.24253e-06 0)
(2.00689e-06 -2.18182e-06 0)
(2.15527e-06 -2.12071e-06 0)
(2.30429e-06 -2.05943e-06 0)
(2.45377e-06 -1.99821e-06 0)
(2.60353e-06 -1.93718e-06 0)
(2.75343e-06 -1.87636e-06 0)
(2.90335e-06 -1.81576e-06 0)
(3.05312e-06 -1.75537e-06 0)
(3.20262e-06 -1.6951e-06 0)
(3.35187e-06 -1.63487e-06 0)
(3.50081e-06 -1.57461e-06 0)
(3.64937e-06 -1.51423e-06 0)
(3.79757e-06 -1.45372e-06 0)
(3.94538e-06 -1.393e-06 0)
(4.09304e-06 -1.33215e-06 0)
(4.24042e-06 -1.27136e-06 0)
(4.38768e-06 -1.21071e-06 0)
(1.5221e-06 -2.42297e-06 0)
(1.66497e-06 -2.36475e-06 0)
(1.80943e-06 -2.30534e-06 0)
(1.95513e-06 -2.24511e-06 0)
(2.10192e-06 -2.18437e-06 0)
(2.24957e-06 -2.12338e-06 0)
(2.39791e-06 -2.06235e-06 0)
(2.54673e-06 -2.00142e-06 0)
(2.69581e-06 -1.94062e-06 0)
(2.845e-06 -1.87997e-06 0)
(2.99417e-06 -1.81949e-06 0)
(3.14323e-06 -1.75908e-06 0)
(3.29212e-06 -1.69868e-06 0)
(3.44069e-06 -1.63828e-06 0)
(3.58897e-06 -1.57775e-06 0)
(3.73704e-06 -1.51706e-06 0)
(3.88479e-06 -1.45629e-06 0)
(4.03233e-06 -1.39544e-06 0)
(4.17971e-06 -1.3347e-06 0)
(4.32694e-06 -1.2743e-06 0)
(1.47315e-06 -2.48297e-06 0)
(1.61401e-06 -2.42558e-06 0)
(1.75675e-06 -2.3669e-06 0)
(1.90103e-06 -2.30727e-06 0)
(2.04666e-06 -2.24703e-06 0)
(2.19341e-06 -2.18643e-06 0)
(2.34102e-06 -2.1257e-06 0)
(2.4892e-06 -2.06498e-06 0)
(2.63776e-06 -2.00429e-06 0)
(2.78658e-06 -1.94367e-06 0)
(2.93544e-06 -1.88318e-06 0)
(3.08416e-06 -1.82274e-06 0)
(3.23275e-06 -1.76224e-06 0)
(3.38113e-06 -1.70171e-06 0)
(3.52921e-06 -1.6411e-06 0)
(3.67709e-06 -1.58032e-06 0)
(3.82477e-06 -1.51951e-06 0)
(3.97224e-06 -1.45859e-06 0)
(4.11964e-06 -1.39786e-06 0)
(4.26683e-06 -1.33753e-06 0)
(1.06234e-07 -2.09075e-06 0)
(3.20058e-07 -2.06033e-06 0)
(5.37883e-07 -2.0006e-06 0)
(7.61986e-07 -1.9141e-06 0)
(9.94154e-07 -1.80404e-06 0)
(1.2355e-06 -1.67462e-06 0)
(1.48642e-06 -1.53053e-06 0)
(1.74648e-06 -1.37669e-06 0)
(2.01504e-06 -1.21799e-06 0)
(2.28967e-06 -1.05822e-06 0)
(1.03451e-07 -2.12688e-06 0)
(3.11503e-07 -2.09911e-06 0)
(5.22837e-07 -2.0445e-06 0)
(7.39365e-07 -1.96528e-06 0)
(9.62578e-07 -1.86412e-06 0)
(1.19339e-06 -1.74459e-06 0)
(1.43215e-06 -1.61071e-06 0)
(1.67833e-06 -1.46673e-06 0)
(1.93096e-06 -1.3171e-06 0)
(2.18791e-06 -1.16544e-06 0)
(1.00927e-07 -2.16394e-06 0)
(3.03737e-07 -2.13857e-06 0)
(5.09189e-07 -2.08859e-06 0)
(7.18793e-07 -2.01597e-06 0)
(9.33811e-07 -1.92303e-06 0)
(1.15496e-06 -1.81285e-06 0)
(1.38261e-06 -1.68887e-06 0)
(1.61654e-06 -1.55468e-06 0)
(1.856e-06 -1.41418e-06 0)
(2.09955e-06 -1.26998e-06 0)
(9.86596e-08 -2.20191e-06 0)
(2.9677e-07 -2.17856e-06 0)
(4.97093e-07 -2.13252e-06 0)
(7.00782e-07 -2.06553e-06 0)
(9.08922e-07 -1.97965e-06 0)
(1.12205e-06 -1.87752e-06 0)
(1.34043e-06 -1.76227e-06 0)
(1.56386e-06 -1.63705e-06 0)
(1.79162e-06 -1.50553e-06 0)
(2.02257e-06 -1.36983e-06 0)
(9.65828e-08 -2.24076e-06 0)
(2.90326e-07 -2.21924e-06 0)
(4.85934e-07 -2.17672e-06 0)
(6.84265e-07 -2.1148e-06 0)
(8.86238e-07 -2.0353e-06 0)
(1.09228e-06 -1.94058e-06 0)
(1.30262e-06 -1.83343e-06 0)
(1.51708e-06 -1.71652e-06 0)
(1.7351e-06 -1.59323e-06 0)
(1.95532e-06 -1.46549e-06 0)
(9.46343e-08 -2.28045e-06 0)
(2.84355e-07 -2.26049e-06 0)
(4.7563e-07 -2.22106e-06 0)
(6.69154e-07 -2.16358e-06 0)
(8.65675e-07 -2.08969e-06 0)
(1.06555e-06 -2.00153e-06 0)
(1.26888e-06 -1.90164e-06 0)
(1.47548e-06 -1.79239e-06 0)
(1.68501e-06 -1.67684e-06 0)
(1.8959e-06 -1.5569e-06 0)
(9.27526e-08 -2.32092e-06 0)
(2.78667e-07 -2.30236e-06 0)
(4.65862e-07 -2.26569e-06 0)
(6.54957e-07 -2.21217e-06 0)
(8.46514e-07 -2.14334e-06 0)
(1.04087e-06 -2.06111e-06 0)
(1.23808e-06 -1.9678e-06 0)
(1.43786e-06 -1.86552e-06 0)
(1.64008e-06 -1.75704e-06 0)
(1.84297e-06 -1.64434e-06 0)
(9.09656e-08 -2.36208e-06 0)
(2.73209e-07 -2.34475e-06 0)
(4.56532e-07 -2.31055e-06 0)
(6.41497e-07 -2.26055e-06 0)
(8.28523e-07 -2.19622e-06 0)
(1.01787e-06 -2.11931e-06 0)
(1.20961e-06 -2.03193e-06 0)
(1.40338e-06 -1.93604e-06 0)
(1.5992e-06 -1.83407e-06 0)
(1.79523e-06 -1.72807e-06 0)
(8.92337e-08 -2.40386e-06 0)
(2.67882e-07 -2.38764e-06 0)
(4.47484e-07 -2.35564e-06 0)
(6.28514e-07 -2.30882e-06 0)
(8.11314e-07 -2.24856e-06 0)
(9.96089e-07 -2.17644e-06 0)
(1.1829e-06 -2.09443e-06 0)
(1.37132e-06 -2.00434e-06 0)
(1.5615e-06 -1.9083e-06 0)
(1.75159e-06 -1.80843e-06 0)
(8.74933e-08 -2.44619e-06 0)
(2.62619e-07 -2.43095e-06 0)
(4.38607e-07 -2.40092e-06 0)
(6.15855e-07 -2.35697e-06 0)
(7.94638e-07 -2.30039e-06 0)
(9.75166e-07 -2.2326e-06 0)
(1.15744e-06 -2.15543e-06 0)
(1.34105e-06 -2.07061e-06 0)
(1.52618e-06 -1.98001e-06 0)
(1.71108e-06 -1.88575e-06 0)
(8.5727e-08 -2.48897e-06 0)
(2.57375e-07 -2.47462e-06 0)
(4.29781e-07 -2.44638e-06 0)
(6.03338e-07 -2.40502e-06 0)
(7.78253e-07 -2.35177e-06 0)
(9.54754e-07 -2.2879e-06 0)
(1.13282e-06 -2.21514e-06 0)
(1.31203e-06 -2.13511e-06 0)
(1.4926e-06 -2.04947e-06 0)
(1.6729e-06 -1.96029e-06 0)
(8.39534e-08 -2.53209e-06 0)
(2.5211e-07 -2.51855e-06 0)
(4.20913e-07 -2.49196e-06 0)
(5.90807e-07 -2.45295e-06 0)
(7.61958e-07 -2.4027e-06 0)
(9.34571e-07 -2.34241e-06 0)
(1.10866e-06 -2.27366e-06 0)
(1.28379e-06 -2.198e-06 0)
(1.46018e-06 -2.11688e-06 0)
(1.63636e-06 -2.03232e-06 0)
(8.21637e-08 -2.57547e-06 0)
(2.4674e-07 -2.56268e-06 0)
(4.11884e-07 -2.53758e-06 0)
(5.78092e-07 -2.50073e-06 0)
(7.45522e-07 -2.45322e-06 0)
(9.14336e-07 -2.3962e-06 0)
(1.08459e-06 -2.33111e-06 0)
(1.25588e-06 -2.25941e-06 0)
(1.42838e-06 -2.18242e-06 0)
(1.60083e-06 -2.10208e-06 0)
(8.03144e-08 -2.61898e-06 0)
(2.41162e-07 -2.60689e-06 0)
(4.02563e-07 -2.58315e-06 0)
(5.65016e-07 -2.54827e-06 0)
(7.28707e-07 -2.50329e-06 0)
(8.93758e-07 -2.44926e-06 0)
(1.06026e-06 -2.38753e-06 0)
(1.22786e-06 -2.31946e-06 0)
(1.39671e-06 -2.24627e-06 0)
(1.56572e-06 -2.16979e-06 0)
(7.83605e-08 -2.66255e-06 0)
(2.35295e-07 -2.6511e-06 0)
(3.92825e-07 -2.6286e-06 0)
(5.51409e-07 -2.59555e-06 0)
(7.11273e-07 -2.5529e-06 0)
(8.72533e-07 -2.50165e-06 0)
(1.03531e-06 -2.443e-06 0)
(1.19931e-06 -2.37826e-06 0)
(1.36466e-06 -2.30859e-06 0)
(1.5304e-06 -2.23562e-06 0)
(7.62822e-08 -2.70595e-06 0)
(2.2909e-07 -2.69509e-06 0)
(3.8256e-07 -2.67376e-06 0)
(5.37096e-07 -2.64243e-06 0)
(6.92979e-07 -2.60194e-06 0)
(8.50352e-07 -2.55325e-06 0)
(1.00936e-06 -2.49747e-06 0)
(1.1698e-06 -2.43584e-06 0)
(1.3317e-06 -2.36943e-06 0)
(1.4943e-06 -2.2997e-06 0)
(7.40691e-08 -2.74913e-06 0)
(2.22483e-07 -2.73885e-06 0)
(3.71618e-07 -2.71861e-06 0)
(5.21857e-07 -2.68888e-06 0)
(6.7355e-07 -2.65044e-06 0)
(8.26875e-07 -2.60415e-06 0)
(9.82009e-07 -2.55107e-06 0)
(1.1388e-06 -2.49238e-06 0)
(1.29725e-06 -2.42897e-06 0)
(1.45672e-06 -2.36227e-06 0)
(7.1696e-08 -2.79167e-06 0)
(2.15374e-07 -2.78194e-06 0)
(3.59826e-07 -2.76275e-06 0)
(5.05462e-07 -2.73455e-06 0)
(6.52688e-07 -2.69803e-06 0)
(8.01737e-07 -2.65403e-06 0)
(9.52804e-07 -2.60353e-06 0)
(1.10577e-06 -2.5476e-06 0)
(1.26066e-06 -2.48707e-06 0)
(1.41699e-06 -2.42323e-06 0)
(6.91079e-08 -2.83377e-06 0)
(2.07604e-07 -2.82456e-06 0)
(3.46937e-07 -2.80639e-06 0)
(4.87577e-07 -2.77965e-06 0)
(6.29969e-07 -2.74501e-06 0)
(7.74413e-07 -2.70324e-06 0)
(9.21124e-07 -2.65523e-06 0)
(1.07005e-06 -2.60194e-06 0)
(1.2212e-06 -2.54419e-06 0)
(1.3743e-06 -2.48307e-06 0)
(6.62736e-08 -2.87431e-06 0)
(1.99107e-07 -2.86561e-06 0)
(3.32845e-07 -2.84844e-06 0)
(4.68042e-07 -2.82316e-06 0)
(6.05198e-07 -2.79038e-06 0)
(7.44655e-07 -2.75081e-06 0)
(8.86647e-07 -2.70527e-06 0)
(1.03125e-06 -2.65461e-06 0)
(1.17846e-06 -2.59963e-06 0)
(1.3282e-06 -2.54126e-06 0)
)


// ************************************************************************* //
