/*--------------------------------*- C++ -*----------------------------------*\
| =========                 |                                                 |
| \\      /  F ield         | foam-extend: Open Source CFD                    |
|  \\    /   O peration     | Version:     4.1                                |
|   \\  /    A nd           | Web:         http://www.foam-extend.org         |
|    \\/     M anipulation  |                                                 |
\*---------------------------------------------------------------------------*/
FoamFile
{
    version     2.0;
    format      ascii;
    class       vectorField;
    location    "5";
    object      solidsCellD_iteration14;
}
// * * * * * * * * * * * * * * * * * * * * * * * * * * * * * * * * * * * * * //


1000
(
(2.58299e-06 -1.08684e-06 0)
(2.43747e-06 -1.01169e-06 0)
(2.34462e-06 -9.64134e-07 0)
(2.29135e-06 -9.42157e-07 0)
(2.26544e-06 -9.34833e-07 0)
(2.2595e-06 -9.3881e-07 0)
(2.26826e-06 -9.5017e-07 0)
(2.288e-06 -9.6705e-07 0)
(2.31617e-06 -9.8763e-07 0)
(2.35053e-06 -1.01073e-06 0)
(2.33549e-06 -1.18726e-06 0)
(2.18059e-06 -1.13514e-06 0)
(2.08181e-06 -1.10216e-06 0)
(2.02416e-06 -1.09009e-06 0)
(1.99479e-06 -1.08934e-06 0)
(1.98572e-06 -1.09796e-06 0)
(1.99149e-06 -1.11261e-06 0)
(2.00815e-06 -1.13196e-06 0)
(2.033e-06 -1.15452e-06 0)
(2.06344e-06 -1.17899e-06 0)
(2.07837e-06 -1.28242e-06 0)
(1.92015e-06 -1.25606e-06 0)
(1.81926e-06 -1.2394e-06 0)
(1.7597e-06 -1.23825e-06 0)
(1.72848e-06 -1.24467e-06 0)
(1.71729e-06 -1.25822e-06 0)
(1.72065e-06 -1.2763e-06 0)
(1.73462e-06 -1.29809e-06 0)
(1.7564e-06 -1.32256e-06 0)
(1.78357e-06 -1.34832e-06 0)
(1.81348e-06 -1.37065e-06 0)
(1.65862e-06 -1.37128e-06 0)
(1.55985e-06 -1.37174e-06 0)
(1.50102e-06 -1.38199e-06 0)
(1.46958e-06 -1.39583e-06 0)
(1.45728e-06 -1.41444e-06 0)
(1.45877e-06 -1.43596e-06 0)
(1.47029e-06 -1.46017e-06 0)
(1.48918e-06 -1.48645e-06 0)
(1.51303e-06 -1.51362e-06 0)
(1.54274e-06 -1.4502e-06 0)
(1.39774e-06 -1.47758e-06 0)
(1.30528e-06 -1.495e-06 0)
(1.24992e-06 -1.5165e-06 0)
(1.21992e-06 -1.53763e-06 0)
(1.20744e-06 -1.5612e-06 0)
(1.20761e-06 -1.58608e-06 0)
(1.21694e-06 -1.61265e-06 0)
(1.23301e-06 -1.64069e-06 0)
(1.25346e-06 -1.6693e-06 0)
(1.26733e-06 -1.51947e-06 0)
(1.13867e-06 -1.57188e-06 0)
(1.05666e-06 -1.60518e-06 0)
(1.00727e-06 -1.63721e-06 0)
(9.80219e-07 -1.66515e-06 0)
(9.685e-07 -1.69333e-06 0)
(9.67915e-07 -1.72129e-06 0)
(9.75276e-07 -1.75004e-06 0)
(9.88506e-07 -1.77971e-06 0)
(1.00539e-06 -1.80974e-06 0)
(9.88725e-07 -1.57687e-06 0)
(8.82038e-07 -1.65121e-06 0)
(8.14045e-07 -1.69846e-06 0)
(7.72941e-07 -1.73972e-06 0)
(7.50278e-07 -1.77361e-06 0)
(7.40218e-07 -1.8058e-06 0)
(7.39303e-07 -1.83645e-06 0)
(7.44838e-07 -1.86713e-06 0)
(7.55166e-07 -1.89821e-06 0)
(7.68378e-07 -1.92953e-06 0)
(7.07797e-07 -1.62117e-06 0)
(6.27865e-07 -1.71313e-06 0)
(5.76958e-07 -1.77154e-06 0)
(5.46135e-07 -1.82018e-06 0)
(5.29074e-07 -1.85885e-06 0)
(5.21365e-07 -1.8943e-06 0)
(5.20428e-07 -1.92714e-06 0)
(5.24247e-07 -1.95937e-06 0)
(5.31637e-07 -1.99159e-06 0)
(5.41111e-07 -2.02399e-06 0)
(4.25325e-07 -1.65128e-06 0)
(3.7584e-07 -1.75554e-06 0)
(3.44363e-07 -1.82176e-06 0)
(3.25238e-07 -1.87559e-06 0)
(3.14582e-07 -1.91762e-06 0)
(3.09703e-07 -1.9553e-06 0)
(3.09045e-07 -1.98968e-06 0)
(3.11317e-07 -2.02305e-06 0)
(3.15751e-07 -2.05608e-06 0)
(3.21437e-07 -2.08926e-06 0)
(1.42049e-07 -1.66645e-06 0)
(1.25297e-07 -1.77709e-06 0)
(1.14567e-07 -1.84732e-06 0)
(1.08054e-07 -1.90381e-06 0)
(1.04465e-07 -1.94757e-06 0)
(1.0279e-07 -1.98644e-06 0)
(1.02496e-07 -2.02158e-06 0)
(1.03226e-07 -2.05551e-06 0)
(1.04718e-07 -2.08897e-06 0)
(1.0661e-07 -2.12256e-06 0)
(4.03085e-06 -4.95607e-08 0)
(4.06698e-06 -3.56933e-08 0)
(4.08892e-06 -2.69089e-08 0)
(4.11265e-06 -2.1748e-08 0)
(4.13864e-06 -1.88837e-08 0)
(4.17052e-06 -1.75857e-08 0)
(4.20832e-06 -1.73571e-08 0)
(4.25241e-06 -1.77735e-08 0)
(4.30273e-06 -1.87105e-08 0)
(4.35857e-06 -1.9866e-08 0)
(4.00097e-06 -1.4872e-07 0)
(4.03108e-06 -1.07926e-07 0)
(4.04927e-06 -8.20825e-08 0)
(4.07044e-06 -6.70039e-08 0)
(4.09474e-06 -5.87464e-08 0)
(4.1254e-06 -5.49589e-08 0)
(4.16236e-06 -5.43004e-08 0)
(4.20575e-06 -5.57027e-08 0)
(4.25546e-06 -5.85697e-08 0)
(4.31067e-06 -6.19706e-08 0)
(3.94137e-06 -2.48687e-07 0)
(3.95996e-06 -1.83233e-07 0)
(3.97087e-06 -1.4181e-07 0)
(3.98721e-06 -1.17586e-07 0)
(4.00832e-06 -1.04387e-07 0)
(4.03674e-06 -9.85322e-08 0)
(4.072e-06 -9.76712e-08 0)
(4.11408e-06 -1.00075e-07 0)
(4.16261e-06 -1.04829e-07 0)
(4.2166e-06 -1.10515e-07 0)
(3.85308e-06 -3.49955e-07 0)
(3.85528e-06 -2.63343e-07 0)
(3.85578e-06 -2.08624e-07 0)
(3.86526e-06 -1.76774e-07 0)
(3.8818e-06 -1.59483e-07 0)
(3.90704e-06 -1.51969e-07 0)
(3.93993e-06 -1.51094e-07 0)
(3.98013e-06 -1.54617e-07 0)
(4.02701e-06 -1.61243e-07 0)
(4.0793e-06 -1.69211e-07 0)
(3.73744e-06 -4.52768e-07 0)
(3.71941e-06 -3.49716e-07 0)
(3.70705e-06 -2.84645e-07 0)
(3.70801e-06 -2.47046e-07 0)
(3.71891e-06 -2.26822e-07 0)
(3.74016e-06 -2.18341e-07 0)
(3.77011e-06 -2.17802e-07 0)
(3.80793e-06 -2.22595e-07 0)
(3.85278e-06 -2.31074e-07 0)
(3.90303e-06 -2.41282e-07 0)
(3.59615e-06 -5.57215e-07 0)
(3.55523e-06 -4.43352e-07 0)
(3.52839e-06 -3.71441e-07 0)
(3.51973e-06 -3.30306e-07 0)
(3.52422e-06 -3.08505e-07 0)
(3.54091e-06 -2.99859e-07 0)
(3.56752e-06 -3.00065e-07 0)
(3.60264e-06 -3.06286e-07 0)
(3.64513e-06 -3.16619e-07 0)
(3.69307e-06 -3.29024e-07 0)
(3.43137e-06 -6.6308e-07 0)
(3.36623e-06 -5.44644e-07 0)
(3.32406e-06 -4.69804e-07 0)
(3.30524e-06 -4.27575e-07 0)
(3.30293e-06 -4.05664e-07 0)
(3.3148e-06 -3.9774e-07 0)
(3.33782e-06 -3.99164e-07 0)
(3.37003e-06 -4.0698e-07 0)
(3.40996e-06 -4.19162e-07 0)
(3.45546e-06 -4.33673e-07 0)
(3.24523e-06 -7.69839e-07 0)
(3.15611e-06 -6.53312e-07 0)
(3.09879e-06 -5.79626e-07 0)
(3.06984e-06 -5.38882e-07 0)
(3.06078e-06 -5.18416e-07 0)
(3.06777e-06 -5.12156e-07 0)
(3.0871e-06 -5.1531e-07 0)
(3.11627e-06 -5.2497e-07 0)
(3.1535e-06 -5.39025e-07 0)
(3.19644e-06 -5.55598e-07 0)
(3.04018e-06 -8.7678e-07 0)
(2.92876e-06 -7.68453e-07 0)
(2.85736e-06 -6.99963e-07 0)
(2.81892e-06 -6.63231e-07 0)
(2.80345e-06 -6.45755e-07 0)
(2.80566e-06 -6.42056e-07 0)
(2.8213e-06 -6.47455e-07 0)
(2.84739e-06 -6.59168e-07 0)
(2.88181e-06 -6.7523e-07 0)
(2.92221e-06 -6.93639e-07 0)
(2.81863e-06 -9.82888e-07 0)
(2.68806e-06 -8.88595e-07 0)
(2.60453e-06 -8.2898e-07 0)
(2.55783e-06 -7.98628e-07 0)
(2.53664e-06 -7.85605e-07 0)
(2.53453e-06 -7.85346e-07 0)
(2.54675e-06 -7.935e-07 0)
(2.5698e-06 -8.0768e-07 0)
(2.60149e-06 -8.25866e-07 0)
(2.63908e-06 -8.47027e-07 0)
(4.4201e-06 -2.09905e-08 0)
(4.48716e-06 -2.12477e-08 0)
(4.55847e-06 -2.15358e-08 0)
(4.63378e-06 -2.17437e-08 0)
(4.71263e-06 -2.18576e-08 0)
(4.79473e-06 -2.18654e-08 0)
(4.8797e-06 -2.17206e-08 0)
(4.9672e-06 -2.14462e-08 0)
(5.057e-06 -2.10561e-08 0)
(5.14882e-06 -2.05236e-08 0)
(5.24238e-06 -1.98214e-08 0)
(5.33739e-06 -1.89381e-08 0)
(5.4336e-06 -1.78603e-08 0)
(5.53071e-06 -1.65785e-08 0)
(5.6285e-06 -1.50758e-08 0)
(5.72659e-06 -1.33206e-08 0)
(5.8248e-06 -1.12699e-08 0)
(5.92249e-06 -8.88003e-09 0)
(6.01978e-06 -6.09671e-09 0)
(6.11516e-06 -2.89843e-09 0)
(4.37432e-06 -6.50872e-08 0)
(4.4452e-06 -6.55637e-08 0)
(4.51993e-06 -6.61767e-08 0)
(4.59823e-06 -6.65915e-08 0)
(4.67975e-06 -6.67067e-08 0)
(4.76418e-06 -6.65461e-08 0)
(4.85126e-06 -6.60365e-08 0)
(4.9407e-06 -6.5179e-08 0)
(5.03227e-06 -6.39258e-08 0)
(5.12567e-06 -6.22181e-08 0)
(5.22068e-06 -6.00276e-08 0)
(5.31704e-06 -5.73405e-08 0)
(5.41454e-06 -5.41054e-08 0)
(5.51287e-06 -5.02594e-08 0)
(5.61182e-06 -4.57282e-08 0)
(5.71101e-06 -4.04292e-08 0)
(5.81028e-06 -3.42524e-08 0)
(5.90898e-06 -2.70814e-08 0)
(6.00727e-06 -1.87414e-08 0)
(6.10361e-06 -9.16091e-09 0)
(4.28438e-06 -1.15012e-07 0)
(4.36279e-06 -1.14866e-07 0)
(4.44423e-06 -1.15024e-07 0)
(4.52831e-06 -1.15062e-07 0)
(4.615e-06 -1.14733e-07 0)
(4.70407e-06 -1.14059e-07 0)
(4.79533e-06 -1.12866e-07 0)
(4.88851e-06 -1.11134e-07 0)
(4.98347e-06 -1.08779e-07 0)
(5.07998e-06 -1.05737e-07 0)
(5.17785e-06 -1.0196e-07 0)
(5.27689e-06 -9.7397e-08 0)
(5.37687e-06 -9.19381e-08 0)
(5.47753e-06 -8.54705e-08 0)
(5.57867e-06 -7.78767e-08 0)
(5.67997e-06 -6.90239e-08 0)
(5.78128e-06 -5.87259e-08 0)
(5.882e-06 -4.67894e-08 0)
(5.98228e-06 -3.29123e-08 0)
(6.08062e-06 -1.69707e-08 0)
(4.15296e-06 -1.7406e-07 0)
(4.24212e-06 -1.71971e-07 0)
(4.33326e-06 -1.70472e-07 0)
(4.42579e-06 -1.6921e-07 0)
(4.52009e-06 -1.6766e-07 0)
(4.61586e-06 -1.65854e-07 0)
(4.71319e-06 -1.63471e-07 0)
(4.81185e-06 -1.60478e-07 0)
(4.91183e-06 -1.56733e-07 0)
(5.01296e-06 -1.5213e-07 0)
(5.11508e-06 -1.46573e-07 0)
(5.21805e-06 -1.39961e-07 0)
(5.32168e-06 -1.32144e-07 0)
(5.42577e-06 -1.22972e-07 0)
(5.53017e-06 -1.12288e-07 0)
(5.63459e-06 -9.98827e-08 0)
(5.73889e-06 -8.54939e-08 0)
(5.84253e-06 -6.88364e-08 0)
(5.94565e-06 -4.94718e-08 0)
(6.04686e-06 -2.7248e-08 0)
(3.98404e-06 -2.4515e-07 0)
(4.08673e-06 -2.39413e-07 0)
(4.19017e-06 -2.34731e-07 0)
(4.29339e-06 -2.30997e-07 0)
(4.39737e-06 -2.27229e-07 0)
(4.50175e-06 -2.23486e-07 0)
(4.60689e-06 -2.19264e-07 0)
(4.71262e-06 -2.14496e-07 0)
(4.81904e-06 -2.08933e-07 0)
(4.92606e-06 -2.02415e-07 0)
(5.03363e-06 -1.94803e-07 0)
(5.14168e-06 -1.85945e-07 0)
(5.25006e-06 -1.75633e-07 0)
(5.35864e-06 -1.63664e-07 0)
(5.46729e-06 -1.49822e-07 0)
(5.57574e-06 -1.33829e-07 0)
(5.68394e-06 -1.15343e-07 0)
(5.79134e-06 -9.3998e-08 0)
(5.89819e-06 -6.92105e-08 0)
(6.0031e-06 -4.08003e-08 0)
(3.78235e-06 -3.30416e-07 0)
(3.9006e-06 -3.19042e-07 0)
(4.01847e-06 -3.09341e-07 0)
(4.13432e-06 -3.01695e-07 0)
(4.24981e-06 -2.94528e-07 0)
(4.36449e-06 -2.87884e-07 0)
(4.47891e-06 -2.81029e-07 0)
(4.5931e-06 -2.73821e-07 0)
(4.70727e-06 -2.65928e-07 0)
(4.82141e-06 -2.57111e-07 0)
(4.93557e-06 -2.47155e-07 0)
(5.04973e-06 -2.35833e-07 0)
(5.16384e-06 -2.2287e-07 0)
(5.27777e-06 -2.08002e-07 0)
(5.3915e-06 -1.90942e-07 0)
(5.50479e-06 -1.7135e-07 0)
(5.61766e-06 -1.48792e-07 0)
(5.72959e-06 -1.2283e-07 0)
(5.84091e-06 -9.27386e-08 0)
(5.95029e-06 -5.82608e-08 0)
(3.55358e-06 -4.31117e-07 0)
(3.68876e-06 -4.12108e-07 0)
(3.82254e-06 -3.95575e-07 0)
(3.95244e-06 -3.82472e-07 0)
(4.08074e-06 -3.70642e-07 0)
(4.207e-06 -3.60006e-07 0)
(4.33196e-06 -3.49684e-07 0)
(4.45577e-06 -3.39348e-07 0)
(4.57876e-06 -3.2857e-07 0)
(4.70105e-06 -3.17009e-07 0)
(4.82277e-06 -3.0435e-07 0)
(4.94394e-06 -2.90275e-07 0)
(5.06459e-06 -2.74442e-07 0)
(5.18469e-06 -2.56526e-07 0)
(5.30425e-06 -2.36165e-07 0)
(5.42312e-06 -2.1295e-07 0)
(5.54136e-06 -1.86348e-07 0)
(5.65852e-06 -1.55834e-07 0)
(5.77494e-06 -1.2056e-07 0)
(5.88944e-06 -8.01772e-08 0)
(3.30332e-06 -5.47592e-07 0)
(3.45594e-06 -5.18692e-07 0)
(3.60645e-06 -4.93477e-07 0)
(3.7514e-06 -4.73183e-07 0)
(3.89358e-06 -4.55387e-07 0)
(4.03244e-06 -4.39618e-07 0)
(4.16901e-06 -4.24929e-07 0)
(4.30345e-06 -4.10746e-07 0)
(4.43621e-06 -3.9652e-07 0)
(4.56751e-06 -3.81772e-07 0)
(4.69756e-06 -3.66076e-07 0)
(4.82647e-06 -3.49012e-07 0)
(4.95437e-06 -3.30158e-07 0)
(5.08131e-06 -3.09116e-07 0)
(5.20735e-06 -2.85437e-07 0)
(5.33242e-06 -2.58632e-07 0)
(5.45659e-06 -2.2807e-07 0)
(5.57953e-06 -1.93133e-07 0)
(5.7016e-06 -1.52844e-07 0)
(5.82177e-06 -1.06771e-07 0)
(3.03766e-06 -6.79575e-07 0)
(3.20777e-06 -6.38991e-07 0)
(3.37505e-06 -6.03956e-07 0)
(3.53556e-06 -5.7499e-07 0)
(3.69204e-06 -5.5003e-07 0)
(3.84417e-06 -5.28056e-07 0)
(3.99293e-06 -5.0807e-07 0)
(4.13865e-06 -4.89245e-07 0)
(4.28182e-06 -4.70901e-07 0)
(4.42277e-06 -4.52411e-07 0)
(4.56178e-06 -4.33226e-07 0)
(4.69907e-06 -4.12823e-07 0)
(4.83482e-06 -3.90693e-07 0)
(4.96917e-06 -3.66348e-07 0)
(5.10224e-06 -3.39245e-07 0)
(5.23402e-06 -3.08801e-07 0)
(5.36462e-06 -2.74293e-07 0)
(5.4938e-06 -2.35006e-07 0)
(5.62199e-06 -1.89867e-07 0)
(5.74832e-06 -1.38356e-07 0)
(2.76167e-06 -8.24791e-07 0)
(2.94959e-06 -7.69513e-07 0)
(3.13303e-06 -7.23365e-07 0)
(3.30955e-06 -6.84354e-07 0)
(3.4806e-06 -6.51124e-07 0)
(3.64653e-06 -6.22074e-07 0)
(3.80798e-06 -5.96074e-07 0)
(3.96548e-06 -5.72075e-07 0)
(4.11955e-06 -5.49219e-07 0)
(4.27061e-06 -5.26717e-07 0)
(4.419e-06 -5.03873e-07 0)
(4.56504e-06 -4.80047e-07 0)
(4.709e-06 -4.54624e-07 0)
(4.85108e-06 -4.27014e-07 0)
(4.99146e-06 -3.96577e-07 0)
(5.1302e-06 -3.62635e-07 0)
(5.2675e-06 -3.24385e-07 0)
(5.40319e-06 -2.80999e-07 0)
(5.53776e-06 -2.31321e-07 0)
(5.67056e-06 -1.74709e-07 0)
(2.55662e-06 -9.6458e-07 0)
(2.75638e-06 -8.97255e-07 0)
(2.94951e-06 -8.42691e-07 0)
(3.13599e-06 -7.95547e-07 0)
(3.31636e-06 -7.54952e-07 0)
(3.49116e-06 -7.1922e-07 0)
(3.66095e-06 -6.87152e-07 0)
(3.82628e-06 -6.57663e-07 0)
(3.98766e-06 -6.2981e-07 0)
(4.14549e-06 -6.02724e-07 0)
(4.30017e-06 -5.75641e-07 0)
(4.45204e-06 -5.47854e-07 0)
(4.60142e-06 -5.18676e-07 0)
(4.74854e-06 -4.8745e-07 0)
(4.89361e-06 -4.5348e-07 0)
(5.03678e-06 -4.1602e-07 0)
(5.17826e-06 -3.74253e-07 0)
(5.31805e-06 -3.27277e-07 0)
(5.45664e-06 -2.73928e-07 0)
(5.59356e-06 -2.13504e-07 0)
(2.43961e-06 -1.07828e-06 0)
(2.64088e-06 -1.0084e-06 0)
(2.83564e-06 -9.49147e-07 0)
(3.02471e-06 -8.97038e-07 0)
(3.20805e-06 -8.51257e-07 0)
(3.38602e-06 -8.10401e-07 0)
(3.55905e-06 -7.73352e-07 0)
(3.72756e-06 -7.39088e-07 0)
(3.89195e-06 -7.06673e-07 0)
(4.05261e-06 -6.75256e-07 0)
(4.2099e-06 -6.44072e-07 0)
(4.36416e-06 -6.12404e-07 0)
(4.51569e-06 -5.79546e-07 0)
(4.66473e-06 -5.44823e-07 0)
(4.81153e-06 -5.07532e-07 0)
(4.95627e-06 -4.66911e-07 0)
(5.09918e-06 -4.22183e-07 0)
(5.24038e-06 -3.72443e-07 0)
(5.38032e-06 -3.16577e-07 0)
(5.51875e-06 -2.53908e-07 0)
(2.33975e-06 -1.18731e-06 0)
(2.5391e-06 -1.11585e-06 0)
(2.73364e-06 -1.05359e-06 0)
(2.9232e-06 -9.97746e-07 0)
(3.10773e-06 -9.47725e-07 0)
(3.28729e-06 -9.02416e-07 0)
(3.46218e-06 -8.60855e-07 0)
(3.63266e-06 -8.22123e-07 0)
(3.79905e-06 -7.8535e-07 0)
(3.96167e-06 -7.49733e-07 0)
(4.12085e-06 -7.14535e-07 0)
(4.27689e-06 -6.79042e-07 0)
(4.43007e-06 -6.42548e-07 0)
(4.58064e-06 -6.04383e-07 0)
(4.72884e-06 -5.63853e-07 0)
(4.8749e-06 -5.20197e-07 0)
(5.01906e-06 -4.72679e-07 0)
(5.16152e-06 -4.20428e-07 0)
(5.30271e-06 -3.62391e-07 0)
(5.44256e-06 -2.97946e-07 0)
(2.2517e-06 -1.29256e-06 0)
(2.44825e-06 -1.22036e-06 0)
(2.64117e-06 -1.15584e-06 0)
(2.82989e-06 -1.09691e-06 0)
(3.01426e-06 -1.04324e-06 0)
(3.1942e-06 -9.93973e-07 0)
(3.36985e-06 -9.48313e-07 0)
(3.54133e-06 -9.05447e-07 0)
(3.7089e-06 -8.64592e-07 0)
(3.87277e-06 -8.25003e-07 0)
(4.03324e-06 -7.85983e-07 0)
(4.19055e-06 -7.46836e-07 0)
(4.34497e-06 -7.0687e-07 0)
(4.49674e-06 -6.65433e-07 0)
(4.64608e-06 -6.21849e-07 0)
(4.79325e-06 -5.75385e-07 0)
(4.93851e-06 -5.25343e-07 0)
(5.0821e-06 -4.70901e-07 0)
(5.22443e-06 -4.1109e-07 0)
(5.36564e-06 -3.45366e-07 0)
(2.17416e-06 -1.39333e-06 0)
(2.36711e-06 -1.32101e-06 0)
(2.55744e-06 -1.25504e-06 0)
(2.74429e-06 -1.19383e-06 0)
(2.92751e-06 -1.13723e-06 0)
(3.10686e-06 -1.08463e-06 0)
(3.28235e-06 -1.03538e-06 0)
(3.45401e-06 -9.88795e-07 0)
(3.62201e-06 -9.44199e-07 0)
(3.7865e-06 -9.00919e-07 0)
(3.9477e-06 -8.58309e-07 0)
(4.10582e-06 -8.15709e-07 0)
(4.26108e-06 -7.72452e-07 0)
(4.41371e-06 -7.27927e-07 0)
(4.56394e-06 -6.81478e-07 0)
(4.71201e-06 -6.32418e-07 0)
(4.8582e-06 -5.80091e-07 0)
(5.00277e-06 -5.23736e-07 0)
(5.14614e-06 -4.62494e-07 0)
(5.2886e-06 -3.95903e-07 0)
(2.10523e-06 -1.48983e-06 0)
(2.2942e-06 -1.41782e-06 0)
(2.48138e-06 -1.35097e-06 0)
(2.66566e-06 -1.28805e-06 0)
(2.847e-06 -1.22911e-06 0)
(3.025e-06 -1.17371e-06 0)
(3.1996e-06 -1.12134e-06 0)
(3.37077e-06 -1.07148e-06 0)
(3.53858e-06 -1.02351e-06 0)
(3.70314e-06 -9.7687e-07 0)
(3.86458e-06 -9.30956e-07 0)
(4.02307e-06 -8.85157e-07 0)
(4.17881e-06 -8.38849e-07 0)
(4.332e-06 -7.91468e-07 0)
(4.48284e-06 -7.42382e-07 0)
(4.63161e-06 -6.90977e-07 0)
(4.77855e-06 -6.3663e-07 0)
(4.92397e-06 -5.78657e-07 0)
(5.06827e-06 -5.16316e-07 0)
(5.21182e-06 -4.49214e-07 0)
(2.04355e-06 -1.58217e-06 0)
(2.22832e-06 -1.51079e-06 0)
(2.41195e-06 -1.4435e-06 0)
(2.59323e-06 -1.37939e-06 0)
(2.77216e-06 -1.31864e-06 0)
(2.94824e-06 -1.26093e-06 0)
(3.1214e-06 -1.20592e-06 0)
(3.29154e-06 -1.1532e-06 0)
(3.45865e-06 -1.10225e-06 0)
(3.62279e-06 -1.05258e-06 0)
(3.78405e-06 -1.00367e-06 0)
(3.94253e-06 -9.54949e-07 0)
(4.09842e-06 -9.05846e-07 0)
(4.25189e-06 -8.55857e-07 0)
(4.40313e-06 -8.04378e-07 0)
(4.55239e-06 -7.50869e-07 0)
(4.69993e-06 -6.94758e-07 0)
(4.84605e-06 -6.35441e-07 0)
(4.99117e-06 -5.72291e-07 0)
(5.13563e-06 -5.04963e-07 0)
(1.98781e-06 -1.67058e-06 0)
(2.16834e-06 -1.60004e-06 0)
(2.3482e-06 -1.53263e-06 0)
(2.5262e-06 -1.46773e-06 0)
(2.70235e-06 -1.40558e-06 0)
(2.87611e-06 -1.346e-06 0)
(3.04741e-06 -1.28878e-06 0)
(3.21609e-06 -1.23361e-06 0)
(3.3821e-06 -1.18007e-06 0)
(3.54543e-06 -1.12772e-06 0)
(3.70614e-06 -1.07612e-06 0)
(3.86431e-06 -1.02478e-06 0)
(4.02007e-06 -9.73157e-07 0)
(4.17358e-06 -9.20824e-07 0)
(4.32501e-06 -8.67211e-07 0)
(4.47461e-06 -8.11851e-07 0)
(4.6226e-06 -7.54232e-07 0)
(4.76931e-06 -6.9383e-07 0)
(4.9151e-06 -6.30119e-07 0)
(5.06034e-06 -5.62806e-07 0)
(1.93685e-06 -1.75533e-06 0)
(2.11315e-06 -1.68573e-06 0)
(2.28915e-06 -1.61845e-06 0)
(2.46372e-06 -1.55306e-06 0)
(2.63685e-06 -1.48987e-06 0)
(2.80805e-06 -1.42881e-06 0)
(2.97721e-06 -1.36978e-06 0)
(3.14411e-06 -1.31253e-06 0)
(3.30871e-06 -1.25674e-06 0)
(3.47094e-06 -1.20206e-06 0)
(3.63084e-06 -1.14811e-06 0)
(3.78844e-06 -1.09444e-06 0)
(3.94386e-06 -1.04059e-06 0)
(4.09722e-06 -9.86179e-07 0)
(4.24868e-06 -9.30693e-07 0)
(4.39846e-06 -8.73729e-07 0)
(4.54678e-06 -8.14846e-07 0)
(4.69396e-06 -7.53587e-07 0)
(4.84027e-06 -6.8952e-07 0)
(4.98622e-06 -6.22427e-07 0)
(1.88965e-06 -1.83668e-06 0)
(2.06179e-06 -1.76809e-06 0)
(2.23395e-06 -1.70109e-06 0)
(2.40502e-06 -1.63544e-06 0)
(2.57504e-06 -1.5715e-06 0)
(2.74353e-06 -1.50929e-06 0)
(2.91034e-06 -1.44878e-06 0)
(3.07529e-06 -1.38981e-06 0)
(3.23825e-06 -1.33212e-06 0)
(3.39917e-06 -1.27544e-06 0)
(3.55804e-06 -1.21944e-06 0)
(3.71489e-06 -1.16375e-06 0)
(3.86979e-06 -1.10795e-06 0)
(4.02284e-06 -1.05174e-06 0)
(4.17419e-06 -9.94635e-07 0)
(4.32404e-06 -9.36311e-07 0)
(4.47256e-06 -8.76389e-07 0)
(4.62008e-06 -8.1447e-07 0)
(4.76682e-06 -7.50227e-07 0)
(4.91332e-06 -6.83521e-07 0)
(1.84528e-06 -1.91494e-06 0)
(2.01341e-06 -1.84734e-06 0)
(2.18178e-06 -1.78073e-06 0)
(2.34939e-06 -1.715e-06 0)
(2.51628e-06 -1.65056e-06 0)
(2.68198e-06 -1.58747e-06 0)
(2.84636e-06 -1.52578e-06 0)
(3.00921e-06 -1.46539e-06 0)
(3.1704e-06 -1.40612e-06 0)
(3.32987e-06 -1.34774e-06 0)
(3.48757e-06 -1.29001e-06 0)
(3.64352e-06 -1.23258e-06 0)
(3.79777e-06 -1.17512e-06 0)
(3.9504e-06 -1.11735e-06 0)
(4.10153e-06 -1.05888e-06 0)
(4.25133e-06 -9.9942e-07 0)
(4.39996e-06 -9.38656e-07 0)
(4.54769e-06 -8.76253e-07 0)
(4.6948e-06 -8.1199e-07 0)
(4.8417e-06 -7.45776e-07 0)
(1.80295e-06 -1.99035e-06 0)
(1.96722e-06 -1.92372e-06 0)
(2.13192e-06 -1.85755e-06 0)
(2.29615e-06 -1.79188e-06 0)
(2.45994e-06 -1.72713e-06 0)
(2.62286e-06 -1.66339e-06 0)
(2.78476e-06 -1.60078e-06 0)
(2.94545e-06 -1.53925e-06 0)
(3.1048e-06 -1.47868e-06 0)
(3.26274e-06 -1.4189e-06 0)
(3.4192e-06 -1.35971e-06 0)
(3.57418e-06 -1.30082e-06 0)
(3.72771e-06 -1.24196e-06 0)
(3.87984e-06 -1.1829e-06 0)
(4.03068e-06 -1.12329e-06 0)
(4.18036e-06 -1.0629e-06 0)
(4.32901e-06 -1.00147e-06 0)
(4.47689e-06 -9.38735e-07 0)
(4.62427e-06 -8.74574e-07 0)
(4.77147e-06 -8.08904e-07 0)
(1.76195e-06 -2.06318e-06 0)
(1.92254e-06 -1.99746e-06 0)
(2.08371e-06 -1.93178e-06 0)
(2.24466e-06 -1.86626e-06 0)
(2.40542e-06 -1.80133e-06 0)
(2.56559e-06 -1.73713e-06 0)
(2.72505e-06 -1.67383e-06 0)
(2.8836e-06 -1.61142e-06 0)
(3.04112e-06 -1.54981e-06 0)
(3.19751e-06 -1.48889e-06 0)
(3.35271e-06 -1.42852e-06 0)
(3.50669e-06 -1.36844e-06 0)
(3.65945e-06 -1.30842e-06 0)
(3.81104e-06 -1.2483e-06 0)
(3.96151e-06 -1.18776e-06 0)
(4.11101e-06 -1.12662e-06 0)
(4.25961e-06 -1.06468e-06 0)
(4.4076e-06 -1.00175e-06 0)
(4.5551e-06 -9.37771e-07 0)
(4.70255e-06 -8.72687e-07 0)
(1.72164e-06 -2.13362e-06 0)
(1.87871e-06 -2.06877e-06 0)
(2.03649e-06 -2.00358e-06 0)
(2.19429e-06 -1.93829e-06 0)
(2.35214e-06 -1.8733e-06 0)
(2.50967e-06 -1.80881e-06 0)
(2.66678e-06 -1.74502e-06 0)
(2.82326e-06 -1.68195e-06 0)
(2.97899e-06 -1.61956e-06 0)
(3.13386e-06 -1.55775e-06 0)
(3.28781e-06 -1.49643e-06 0)
(3.44077e-06 -1.43539e-06 0)
(3.59276e-06 -1.37444e-06 0)
(3.74378e-06 -1.31346e-06 0)
(3.89387e-06 -1.25217e-06 0)
(4.04313e-06 -1.19044e-06 0)
(4.19165e-06 -1.12813e-06 0)
(4.33967e-06 -1.06511e-06 0)
(4.48724e-06 -1.00136e-06 0)
(4.63483e-06 -9.36901e-07 0)
(1.68129e-06 -2.20191e-06 0)
(1.83502e-06 -2.13785e-06 0)
(1.98959e-06 -2.07316e-06 0)
(2.14441e-06 -2.00815e-06 0)
(2.29951e-06 -1.94322e-06 0)
(2.45456e-06 -1.87859e-06 0)
(2.60945e-06 -1.81449e-06 0)
(2.76396e-06 -1.75096e-06 0)
(2.918e-06 -1.68797e-06 0)
(3.07144e-06 -1.62549e-06 0)
(3.2242e-06 -1.56345e-06 0)
(3.37622e-06 -1.50167e-06 0)
(3.52747e-06 -1.44001e-06 0)
(3.67795e-06 -1.37836e-06 0)
(3.82765e-06 -1.31649e-06 0)
(3.97668e-06 -1.25431e-06 0)
(4.1251e-06 -1.19174e-06 0)
(4.27307e-06 -1.1287e-06 0)
(4.42072e-06 -1.06521e-06 0)
(4.56836e-06 -1.00136e-06 0)
(1.64026e-06 -2.2682e-06 0)
(1.79082e-06 -2.20495e-06 0)
(1.94234e-06 -2.1407e-06 0)
(2.0944e-06 -2.07601e-06 0)
(2.24697e-06 -2.01125e-06 0)
(2.39973e-06 -1.94662e-06 0)
(2.55258e-06 -1.88235e-06 0)
(2.70531e-06 -1.81854e-06 0)
(2.8578e-06 -1.75517e-06 0)
(3.00993e-06 -1.69221e-06 0)
(3.16159e-06 -1.62965e-06 0)
(3.31273e-06 -1.56733e-06 0)
(3.4633e-06 -1.50513e-06 0)
(3.61325e-06 -1.44296e-06 0)
(3.7626e-06 -1.38064e-06 0)
(3.91141e-06 -1.31814e-06 0)
(4.05972e-06 -1.25541e-06 0)
(4.20763e-06 -1.19239e-06 0)
(4.3553e-06 -1.12919e-06 0)
(4.50298e-06 -1.0659e-06 0)
(1.59785e-06 -2.33277e-06 0)
(1.74534e-06 -2.27009e-06 0)
(1.89397e-06 -2.20641e-06 0)
(2.04363e-06 -2.14216e-06 0)
(2.19389e-06 -2.07763e-06 0)
(2.34464e-06 -2.01311e-06 0)
(2.49568e-06 -1.94883e-06 0)
(2.64684e-06 -1.88488e-06 0)
(2.79797e-06 -1.82127e-06 0)
(2.94896e-06 -1.75802e-06 0)
(3.09969e-06 -1.69512e-06 0)
(3.25007e-06 -1.63242e-06 0)
(3.40004e-06 -1.56981e-06 0)
(3.54955e-06 -1.50728e-06 0)
(3.69859e-06 -1.44466e-06 0)
(3.84723e-06 -1.38192e-06 0)
(3.99542e-06 -1.31906e-06 0)
(4.14332e-06 -1.25608e-06 0)
(4.29093e-06 -1.19316e-06 0)
(4.43861e-06 -1.13039e-06 0)
(1.55309e-06 -2.39554e-06 0)
(1.69795e-06 -2.33352e-06 0)
(1.84422e-06 -2.27052e-06 0)
(1.99158e-06 -2.20673e-06 0)
(2.13986e-06 -2.14255e-06 0)
(2.28885e-06 -2.07824e-06 0)
(2.43835e-06 -2.01405e-06 0)
(2.5882e-06 -1.95011e-06 0)
(2.73822e-06 -1.88644e-06 0)
(2.88828e-06 -1.82304e-06 0)
(3.03825e-06 -1.75993e-06 0)
(3.188e-06 -1.697e-06 0)
(3.33748e-06 -1.63414e-06 0)
(3.48666e-06 -1.57135e-06 0)
(3.63548e-06 -1.50851e-06 0)
(3.78396e-06 -1.44562e-06 0)
(3.93205e-06 -1.38267e-06 0)
(4.07997e-06 -1.31973e-06 0)
(4.2276e-06 -1.25705e-06 0)
(4.3752e-06 -1.19476e-06 0)
(1.50535e-06 -2.45716e-06 0)
(1.6478e-06 -2.39589e-06 0)
(1.79195e-06 -2.33343e-06 0)
(1.93744e-06 -2.27015e-06 0)
(2.08412e-06 -2.20636e-06 0)
(2.23172e-06 -2.14236e-06 0)
(2.38007e-06 -2.07837e-06 0)
(2.52896e-06 -2.01454e-06 0)
(2.67818e-06 -1.9509e-06 0)
(2.82757e-06 -1.88748e-06 0)
(2.97698e-06 -1.82428e-06 0)
(3.12631e-06 -1.7612e-06 0)
(3.27548e-06 -1.69819e-06 0)
(3.42439e-06 -1.63526e-06 0)
(3.57304e-06 -1.57226e-06 0)
(3.72144e-06 -1.50921e-06 0)
(3.86956e-06 -1.44622e-06 0)
(4.01745e-06 -1.3833e-06 0)
(4.16514e-06 -1.32075e-06 0)
(4.31273e-06 -1.25884e-06 0)
(1.45404e-06 -2.51718e-06 0)
(1.59443e-06 -2.45674e-06 0)
(1.73681e-06 -2.39505e-06 0)
(1.88086e-06 -2.3324e-06 0)
(2.02636e-06 -2.26915e-06 0)
(2.17304e-06 -2.20556e-06 0)
(2.32067e-06 -2.14191e-06 0)
(2.46897e-06 -2.07832e-06 0)
(2.61773e-06 -2.01481e-06 0)
(2.76676e-06 -1.95142e-06 0)
(2.9159e-06 -1.88822e-06 0)
(3.06498e-06 -1.82513e-06 0)
(3.21395e-06 -1.76202e-06 0)
(3.36274e-06 -1.69898e-06 0)
(3.51128e-06 -1.6359e-06 0)
(3.65962e-06 -1.57277e-06 0)
(3.80781e-06 -1.50971e-06 0)
(3.95577e-06 -1.44675e-06 0)
(4.10362e-06 -1.38424e-06 0)
(4.25129e-06 -1.32255e-06 0)
(1.06251e-07 -2.15694e-06 0)
(3.20186e-07 -2.12521e-06 0)
(5.38379e-07 -2.06296e-06 0)
(7.6328e-07 -1.97277e-06 0)
(9.96789e-07 -1.85807e-06 0)
(1.24011e-06 -1.72316e-06 0)
(1.4937e-06 -1.57301e-06 0)
(1.75709e-06 -1.41274e-06 0)
(2.02947e-06 -1.24756e-06 0)
(2.30862e-06 -1.08153e-06 0)
(1.03288e-07 -2.19267e-06 0)
(3.11093e-07 -2.16366e-06 0)
(5.22418e-07 -2.10673e-06 0)
(7.39348e-07 -2.02405e-06 0)
(9.63489e-07 -1.91856e-06 0)
(1.19584e-06 -1.79389e-06 0)
(1.43686e-06 -1.65427e-06 0)
(1.68596e-06 -1.50417e-06 0)
(1.94215e-06 -1.34827e-06 0)
(2.20341e-06 -1.19027e-06 0)
(1.00651e-07 -2.22922e-06 0)
(3.02982e-07 -2.20268e-06 0)
(5.08186e-07 -2.15057e-06 0)
(7.17911e-07 -2.07473e-06 0)
(9.33547e-07 -1.97776e-06 0)
(1.15588e-06 -1.86279e-06 0)
(1.38541e-06 -1.73344e-06 0)
(1.62183e-06 -1.5935e-06 0)
(1.86446e-06 -1.44698e-06 0)
(2.11185e-06 -1.29653e-06 0)
(9.83163e-08 -2.26666e-06 0)
(2.95782e-07 -2.24223e-06 0)
(4.95684e-07 -2.19422e-06 0)
(6.99278e-07 -2.12426e-06 0)
(9.07775e-07 -2.03462e-06 0)
(1.12178e-06 -1.92805e-06 0)
(1.34166e-06 -1.80777e-06 0)
(1.56715e-06 -1.67711e-06 0)
(1.79764e-06 -1.5398e-06 0)
(2.03192e-06 -1.39803e-06 0)
(9.61821e-08 -2.30499e-06 0)
(2.89173e-07 -2.28245e-06 0)
(4.84213e-07 -2.23812e-06 0)
(6.82272e-07 -2.17345e-06 0)
(8.84378e-07 -2.09045e-06 0)
(1.09102e-06 -1.9916e-06 0)
(1.30253e-06 -1.87972e-06 0)
(1.51867e-06 -1.75766e-06 0)
(1.739e-06 -1.62882e-06 0)
(1.9621e-06 -1.49519e-06 0)
(9.4179e-08 -2.34415e-06 0)
(2.83071e-07 -2.32324e-06 0)
(4.73664e-07 -2.28212e-06 0)
(6.66777e-07 -2.22209e-06 0)
(8.63247e-07 -2.14493e-06 0)
(1.06348e-06 -2.0529e-06 0)
(1.26768e-06 -1.94856e-06 0)
(1.47561e-06 -1.83442e-06 0)
(1.68705e-06 -1.71357e-06 0)
(1.90039e-06 -1.58797e-06 0)
(9.22628e-08 -2.3841e-06 0)
(2.77271e-07 -2.36466e-06 0)
(4.63695e-07 -2.32639e-06 0)
(6.52259e-07 -2.27052e-06 0)
(8.43599e-07 -2.19861e-06 0)
(1.0381e-06 -2.11273e-06 0)
(1.2359e-06 -2.01522e-06 0)
(1.43671e-06 -1.9083e-06 0)
(1.64047e-06 -1.79475e-06 0)
(1.84544e-06 -1.67662e-06 0)
(9.04487e-08 -2.42476e-06 0)
(2.71712e-07 -2.40661e-06 0)
(4.54193e-07 -2.37088e-06 0)
(6.38517e-07 -2.31869e-06 0)
(8.25173e-07 -2.25146e-06 0)
(1.01448e-06 -2.17109e-06 0)
(1.20658e-06 -2.07974e-06 0)
(1.4011e-06 -1.97943e-06 0)
(1.59815e-06 -1.87261e-06 0)
(1.7959e-06 -1.76142e-06 0)
(8.8675e-08 -2.46606e-06 0)
(2.66285e-07 -2.44907e-06 0)
(4.44978e-07 -2.41561e-06 0)
(6.25261e-07 -2.36672e-06 0)
(8.07556e-07 -2.30372e-06 0)
(9.92123e-07 -2.22831e-06 0)
(1.17907e-06 -2.14251e-06 0)
(1.36801e-06 -2.0482e-06 0)
(1.55914e-06 -1.94754e-06 0)
(1.75064e-06 -1.84271e-06 0)
(8.68898e-08 -2.5079e-06 0)
(2.60924e-07 -2.49197e-06 0)
(4.35925e-07 -2.46054e-06 0)
(6.12321e-07 -2.41461e-06 0)
(7.90476e-07 -2.35541e-06 0)
(9.7064e-07 -2.28447e-06 0)
(1.15286e-06 -2.2037e-06 0)
(1.33678e-06 -2.11485e-06 0)
(1.52262e-06 -2.01982e-06 0)
(1.70864e-06 -1.9208e-06 0)
(8.50889e-08 -2.55021e-06 0)
(2.55576e-07 -2.53524e-06 0)
(4.26903e-07 -2.50565e-06 0)
(5.99508e-07 -2.46239e-06 0)
(7.73676e-07 -2.40662e-06 0)
(9.4967e-07 -2.33974e-06 0)
(1.12752e-06 -2.26351e-06 0)
(1.30684e-06 -2.17961e-06 0)
(1.48789e-06 -2.08972e-06 0)
(1.66905e-06 -1.99599e-06 0)
(8.32834e-08 -2.59289e-06 0)
(2.50185e-07 -2.57879e-06 0)
(4.17808e-07 -2.55086e-06 0)
(5.86657e-07 -2.51002e-06 0)
(7.56938e-07 -2.45735e-06 0)
(9.28913e-07 -2.39416e-06 0)
(1.10262e-06 -2.32206e-06 0)
(1.27769e-06 -2.24267e-06 0)
(1.45435e-06 -2.15747e-06 0)
(1.63115e-06 -2.06855e-06 0)
(8.14501e-08 -2.63584e-06 0)
(2.44659e-07 -2.62252e-06 0)
(4.08514e-07 -2.59612e-06 0)
(5.73578e-07 -2.55748e-06 0)
(7.40017e-07 -2.50764e-06 0)
(9.08061e-07 -2.44781e-06 0)
(1.07779e-06 -2.37948e-06 0)
(1.24884e-06 -2.30418e-06 0)
(1.42143e-06 -2.22328e-06 0)
(1.59429e-06 -2.13874e-06 0)
(7.95421e-08 -2.67892e-06 0)
(2.38902e-07 -2.66631e-06 0)
(3.98891e-07 -2.64131e-06 0)
(5.60084e-07 -2.60469e-06 0)
(7.22654e-07 -2.55744e-06 0)
(8.86802e-07 -2.50069e-06 0)
(1.05264e-06 -2.43581e-06 0)
(1.21984e-06 -2.36427e-06 0)
(1.38861e-06 -2.2873e-06 0)
(1.55783e-06 -2.20677e-06 0)
(7.75218e-08 -2.72203e-06 0)
(2.32837e-07 -2.71006e-06 0)
(3.88814e-07 -2.68636e-06 0)
(5.45998e-07 -2.65161e-06 0)
(7.04604e-07 -2.60676e-06 0)
(8.6482e-07 -2.55284e-06 0)
(1.02678e-06 -2.49115e-06 0)
(1.19024e-06 -2.42305e-06 0)
(1.35532e-06 -2.34972e-06 0)
(1.52108e-06 -2.27284e-06 0)
(7.53718e-08 -2.76495e-06 0)
(2.2641e-07 -2.75357e-06 0)
(3.78161e-07 -2.73109e-06 0)
(5.31137e-07 -2.69809e-06 0)
(6.85616e-07 -2.65545e-06 0)
(8.41794e-07 -2.60417e-06 0)
(9.99832e-07 -2.54544e-06 0)
(1.15956e-06 -2.48055e-06 0)
(1.32101e-06 -2.41058e-06 0)
(1.48346e-06 -2.33706e-06 0)
(7.30745e-08 -2.8076e-06 0)
(2.1954e-07 -2.7968e-06 0)
(3.6677e-07 -2.77546e-06 0)
(5.15271e-07 -2.7441e-06 0)
(6.65394e-07 -2.70356e-06 0)
(8.17355e-07 -2.65475e-06 0)
(9.71349e-07 -2.59881e-06 0)
(1.12724e-06 -2.53692e-06 0)
(1.28508e-06 -2.47007e-06 0)
(1.44422e-06 -2.39971e-06 0)
(7.05974e-08 -2.84957e-06 0)
(2.12115e-07 -2.83931e-06 0)
(3.54457e-07 -2.81906e-06 0)
(4.98146e-07 -2.78928e-06 0)
(6.43603e-07 -2.75073e-06 0)
(7.91094e-07 -2.70428e-06 0)
(9.40832e-07 -2.65098e-06 0)
(1.09271e-06 -2.59194e-06 0)
(1.24684e-06 -2.52806e-06 0)
(1.40266e-06 -2.46068e-06 0)
(6.7881e-08 -2.89103e-06 0)
(2.03964e-07 -2.8813e-06 0)
(3.40949e-07 -2.8621e-06 0)
(4.79407e-07 -2.83384e-06 0)
(6.19803e-07 -2.79723e-06 0)
(7.62465e-07 -2.75308e-06 0)
(9.07634e-07 -2.70233e-06 0)
(1.05529e-06 -2.64602e-06 0)
(1.20551e-06 -2.58501e-06 0)
(1.35793e-06 -2.52048e-06 0)
(6.48971e-08 -2.93083e-06 0)
(1.95026e-07 -2.92162e-06 0)
(3.26142e-07 -2.90347e-06 0)
(4.58871e-07 -2.87673e-06 0)
(5.93754e-07 -2.84206e-06 0)
(7.31177e-07 -2.80019e-06 0)
(8.71407e-07 -2.75198e-06 0)
(1.01459e-06 -2.6984e-06 0)
(1.16069e-06 -2.64025e-06 0)
(1.30958e-06 -2.57861e-06 0)
)


// ************************************************************************* //
