/*--------------------------------*- C++ -*----------------------------------*\
| =========                 |                                                 |
| \\      /  F ield         | foam-extend: Open Source CFD                    |
|  \\    /   O peration     | Version:     4.1                                |
|   \\  /    A nd           | Web:         http://www.foam-extend.org         |
|    \\/     M anipulation  |                                                 |
\*---------------------------------------------------------------------------*/
FoamFile
{
    version     2.0;
    format      ascii;
    class       vectorField;
    location    "5";
    object      solidsCellD_iteration5;
}
// * * * * * * * * * * * * * * * * * * * * * * * * * * * * * * * * * * * * * //


1000
(
(2.50342e-06 -1.01063e-06 0)
(2.36864e-06 -9.4374e-07 0)
(2.2836e-06 -9.02665e-07 0)
(2.23601e-06 -8.85155e-07 0)
(2.21428e-06 -8.81222e-07 0)
(2.2115e-06 -8.87752e-07 0)
(2.22266e-06 -9.01171e-07 0)
(2.24425e-06 -9.19834e-07 0)
(2.27365e-06 -9.41991e-07 0)
(2.30782e-06 -9.67139e-07 0)
(2.26465e-06 -1.10397e-06 0)
(2.12096e-06 -1.05874e-06 0)
(2.03014e-06 -1.03149e-06 0)
(1.97824e-06 -1.02343e-06 0)
(1.95304e-06 -1.02583e-06 0)
(1.94692e-06 -1.0369e-06 0)
(1.95475e-06 -1.0536e-06 0)
(1.9728e-06 -1.07467e-06 0)
(1.99836e-06 -1.09873e-06 0)
(2.02862e-06 -1.12496e-06 0)
(2.01613e-06 -1.19241e-06 0)
(1.86923e-06 -1.17138e-06 0)
(1.77636e-06 -1.15945e-06 0)
(1.72242e-06 -1.16174e-06 0)
(1.69517e-06 -1.17091e-06 0)
(1.68669e-06 -1.18668e-06 0)
(1.69183e-06 -1.20663e-06 0)
(1.70692e-06 -1.22992e-06 0)
(1.7292e-06 -1.25566e-06 0)
(1.75617e-06 -1.28283e-06 0)
(1.75989e-06 -1.27439e-06 0)
(1.61596e-06 -1.27869e-06 0)
(1.52494e-06 -1.28279e-06 0)
(1.47142e-06 -1.29579e-06 0)
(1.44363e-06 -1.31196e-06 0)
(1.43378e-06 -1.33247e-06 0)
(1.43686e-06 -1.35562e-06 0)
(1.44934e-06 -1.38109e-06 0)
(1.46865e-06 -1.40846e-06 0)
(1.49235e-06 -1.4367e-06 0)
(1.49764e-06 -1.34827e-06 0)
(1.36285e-06 -1.37765e-06 0)
(1.27754e-06 -1.39765e-06 0)
(1.227e-06 -1.42121e-06 0)
(1.20029e-06 -1.44419e-06 0)
(1.19002e-06 -1.46932e-06 0)
(1.1916e-06 -1.49555e-06 0)
(1.2017e-06 -1.52316e-06 0)
(1.2181e-06 -1.55207e-06 0)
(1.23845e-06 -1.58148e-06 0)
(1.23072e-06 -1.41257e-06 0)
(1.11099e-06 -1.46539e-06 0)
(1.03522e-06 -1.50024e-06 0)
(9.90078e-07 -1.53365e-06 0)
(9.65903e-07 -1.56301e-06 0)
(9.56051e-07 -1.59243e-06 0)
(9.56636e-07 -1.62149e-06 0)
(9.64633e-07 -1.65109e-06 0)
(9.7815e-07 -1.68143e-06 0)
(9.94997e-07 -1.71203e-06 0)
(9.60394e-07 -1.46584e-06 0)
(8.61088e-07 -1.5392e-06 0)
(7.98244e-07 -1.58706e-06 0)
(7.60624e-07 -1.62909e-06 0)
(7.40281e-07 -1.664e-06 0)
(7.31716e-07 -1.69718e-06 0)
(7.31736e-07 -1.72872e-06 0)
(7.37788e-07 -1.76009e-06 0)
(7.48359e-07 -1.7917e-06 0)
(7.61574e-07 -1.8234e-06 0)
(6.87634e-07 -1.5069e-06 0)
(6.13236e-07 -1.59675e-06 0)
(5.66166e-07 -1.65507e-06 0)
(5.37947e-07 -1.70398e-06 0)
(5.22563e-07 -1.74337e-06 0)
(5.15939e-07 -1.77956e-06 0)
(5.15697e-07 -1.8131e-06 0)
(5.19924e-07 -1.8459e-06 0)
(5.27509e-07 -1.87852e-06 0)
(5.36992e-07 -1.91114e-06 0)
(4.1327e-07 -1.53481e-06 0)
(3.67228e-07 -1.63618e-06 0)
(3.3809e-07 -1.7018e-06 0)
(3.20537e-07 -1.75557e-06 0)
(3.10913e-07 -1.79808e-06 0)
(3.06741e-07 -1.83637e-06 0)
(3.06522e-07 -1.87133e-06 0)
(3.09013e-07 -1.90516e-06 0)
(3.13546e-07 -1.93853e-06 0)
(3.19244e-07 -1.97184e-06 0)
(1.38032e-07 -1.54887e-06 0)
(1.22403e-07 -1.65617e-06 0)
(1.12494e-07 -1.72558e-06 0)
(1.0655e-07 -1.78185e-06 0)
(1.03294e-07 -1.82596e-06 0)
(1.01832e-07 -1.86532e-06 0)
(1.01703e-07 -1.901e-06 0)
(1.02523e-07 -1.93535e-06 0)
(1.04038e-07 -1.96908e-06 0)
(1.05926e-07 -2.00273e-06 0)
(3.89474e-06 -4.61107e-08 0)
(3.92902e-06 -3.33694e-08 0)
(3.95112e-06 -2.53534e-08 0)
(3.97555e-06 -2.0704e-08 0)
(4.00266e-06 -1.82027e-08 0)
(4.03575e-06 -1.71412e-08 0)
(4.07472e-06 -1.70249e-08 0)
(4.11985e-06 -1.75518e-08 0)
(4.17102e-06 -1.85598e-08 0)
(4.22759e-06 -1.97246e-08 0)
(3.86621e-06 -1.38327e-07 0)
(3.89484e-06 -1.00853e-07 0)
(3.91342e-06 -7.73438e-08 0)
(3.93548e-06 -6.37697e-08 0)
(3.96102e-06 -5.64741e-08 0)
(3.99297e-06 -5.33991e-08 0)
(4.03115e-06 -5.31803e-08 0)
(4.07564e-06 -5.48454e-08 0)
(4.12626e-06 -5.78428e-08 0)
(4.18225e-06 -6.1325e-08 0)
(3.80911e-06 -2.31333e-07 0)
(3.82702e-06 -1.71201e-07 0)
(3.83883e-06 -1.33512e-07 0)
(3.85641e-06 -1.11795e-07 0)
(3.87898e-06 -1.00226e-07 0)
(3.90886e-06 -9.54689e-08 0)
(3.94549e-06 -9.52756e-08 0)
(3.98869e-06 -9.8116e-08 0)
(4.03823e-06 -1.03107e-07 0)
(4.09311e-06 -1.08934e-07 0)
(3.7245e-06 -3.25504e-07 0)
(3.72719e-06 -2.46014e-07 0)
(3.72932e-06 -1.9626e-07 0)
(3.74053e-06 -1.6773e-07 0)
(3.75885e-06 -1.52637e-07 0)
(3.78569e-06 -1.46621e-07 0)
(3.82011e-06 -1.46679e-07 0)
(3.86158e-06 -1.50823e-07 0)
(3.90962e-06 -1.57832e-07 0)
(3.96298e-06 -1.66002e-07 0)
(3.6136e-06 -4.21123e-07 0)
(3.59752e-06 -3.2667e-07 0)
(3.58769e-06 -2.67591e-07 0)
(3.59096e-06 -2.33985e-07 0)
(3.60404e-06 -2.16407e-07 0)
(3.62716e-06 -2.09752e-07 0)
(3.65883e-06 -2.10406e-07 0)
(3.6981e-06 -2.15993e-07 0)
(3.74424e-06 -2.24999e-07 0)
(3.79577e-06 -2.3548e-07 0)
(3.47811e-06 -5.18226e-07 0)
(3.44071e-06 -4.14036e-07 0)
(3.41738e-06 -3.4889e-07 0)
(3.41168e-06 -3.12273e-07 0)
(3.41881e-06 -2.93484e-07 0)
(3.4377e-06 -2.86934e-07 0)
(3.46626e-06 -2.88541e-07 0)
(3.50301e-06 -2.95703e-07 0)
(3.547e-06 -3.0668e-07 0)
(3.59651e-06 -3.1944e-07 0)
(3.31993e-06 -6.16627e-07 0)
(3.26002e-06 -5.08473e-07 0)
(3.22244e-06 -4.40899e-07 0)
(3.20726e-06 -4.03566e-07 0)
(3.20805e-06 -3.84954e-07 0)
(3.22243e-06 -3.79317e-07 0)
(3.24763e-06 -3.82288e-07 0)
(3.28166e-06 -3.91194e-07 0)
(3.32329e-06 -4.04169e-07 0)
(3.37073e-06 -4.19161e-07 0)
(3.14112e-06 -7.15884e-07 0)
(3.05888e-06 -6.0977e-07 0)
(3.00715e-06 -5.43558e-07 0)
(2.98251e-06 -5.07869e-07 0)
(2.97694e-06 -4.90877e-07 0)
(2.98674e-06 -4.87015e-07 0)
(3.00849e-06 -4.91802e-07 0)
(3.03973e-06 -5.02664e-07 0)
(3.0789e-06 -5.17647e-07 0)
(3.12425e-06 -5.34834e-07 0)
(2.94393e-06 -8.15304e-07 0)
(2.84091e-06 -7.17107e-07 0)
(2.77607e-06 -6.55982e-07 0)
(2.74255e-06 -6.24279e-07 0)
(2.73095e-06 -6.10351e-07 0)
(2.73628e-06 -6.09139e-07 0)
(2.75454e-06 -6.16258e-07 0)
(2.78292e-06 -6.29273e-07 0)
(2.81938e-06 -6.46359e-07 0)
(2.86252e-06 -6.65558e-07 0)
(2.73064e-06 -9.13926e-07 0)
(2.60969e-06 -8.29054e-07 0)
(2.5335e-06 -7.76477e-07 0)
(2.49219e-06 -7.50965e-07 0)
(2.47514e-06 -7.41459e-07 0)
(2.47626e-06 -7.43758e-07 0)
(2.49113e-06 -7.53767e-07 0)
(2.51662e-06 -7.69416e-07 0)
(2.55049e-06 -7.8889e-07 0)
(2.59093e-06 -8.10992e-07 0)
(4.28951e-06 -2.0856e-08 0)
(4.35694e-06 -2.11976e-08 0)
(4.42856e-06 -2.15526e-08 0)
(4.50411e-06 -2.18163e-08 0)
(4.58312e-06 -2.19712e-08 0)
(4.66533e-06 -2.20158e-08 0)
(4.75041e-06 -2.19393e-08 0)
(4.83801e-06 -2.17559e-08 0)
(4.92784e-06 -2.14503e-08 0)
(5.01968e-06 -2.09965e-08 0)
(5.11325e-06 -2.03758e-08 0)
(5.20829e-06 -1.95852e-08 0)
(5.30454e-06 -1.86234e-08 0)
(5.40175e-06 -1.74807e-08 0)
(5.49968e-06 -1.61311e-08 0)
(5.598e-06 -1.45418e-08 0)
(5.69653e-06 -1.26759e-08 0)
(5.79467e-06 -1.04962e-08 0)
(5.89254e-06 -7.95346e-09 0)
(5.98873e-06 -5.03683e-09 0)
(4.24617e-06 -6.45402e-08 0)
(4.31719e-06 -6.53054e-08 0)
(4.39203e-06 -6.61172e-08 0)
(4.47038e-06 -6.66988e-08 0)
(4.55195e-06 -6.69877e-08 0)
(4.63641e-06 -6.69947e-08 0)
(4.7235e-06 -6.66706e-08 0)
(4.81292e-06 -6.60176e-08 0)
(4.90445e-06 -6.49786e-08 0)
(4.99782e-06 -6.35156e-08 0)
(5.09281e-06 -6.16018e-08 0)
(5.18916e-06 -5.9219e-08 0)
(5.28667e-06 -5.63304e-08 0)
(5.38506e-06 -5.2882e-08 0)
(5.48409e-06 -4.8799e-08 0)
(5.58344e-06 -4.40049e-08 0)
(5.68296e-06 -3.84002e-08 0)
(5.78207e-06 -3.18795e-08 0)
(5.8809e-06 -2.42886e-08 0)
(5.97806e-06 -1.55698e-08 0)
(4.16089e-06 -1.1363e-07 0)
(4.23897e-06 -1.14011e-07 0)
(4.32019e-06 -1.14547e-07 0)
(4.40406e-06 -1.14901e-07 0)
(4.49054e-06 -1.14885e-07 0)
(4.57941e-06 -1.14514e-07 0)
(4.67052e-06 -1.1366e-07 0)
(4.76358e-06 -1.12302e-07 0)
(4.85839e-06 -1.10336e-07 0)
(4.95478e-06 -1.07719e-07 0)
(5.05257e-06 -1.04409e-07 0)
(5.15154e-06 -1.00355e-07 0)
(5.2515e-06 -9.54719e-08 0)
(5.35218e-06 -8.96584e-08 0)
(5.45339e-06 -8.27984e-08 0)
(5.55484e-06 -7.47704e-08 0)
(5.65637e-06 -6.54101e-08 0)
(5.75742e-06 -5.45549e-08 0)
(5.85814e-06 -4.19482e-08 0)
(5.95717e-06 -2.7472e-08 0)
(4.03629e-06 -1.7119e-07 0)
(4.12448e-06 -1.69917e-07 0)
(4.21487e-06 -1.69037e-07 0)
(4.30676e-06 -1.68316e-07 0)
(4.40049e-06 -1.673e-07 0)
(4.4958e-06 -1.66e-07 0)
(4.59273e-06 -1.64157e-07 0)
(4.69105e-06 -1.61723e-07 0)
(4.79072e-06 -1.58542e-07 0)
(4.8916e-06 -1.54557e-07 0)
(4.99353e-06 -1.49682e-07 0)
(5.09634e-06 -1.43813e-07 0)
(5.19986e-06 -1.36813e-07 0)
(5.3039e-06 -1.2855e-07 0)
(5.40829e-06 -1.18873e-07 0)
(5.51279e-06 -1.07596e-07 0)
(5.61726e-06 -9.44842e-08 0)
(5.72118e-06 -7.93098e-08 0)
(5.8247e-06 -6.17053e-08 0)
(5.92648e-06 -4.1514e-08 0)
(3.87597e-06 -2.39924e-07 0)
(3.97691e-06 -2.354e-07 0)
(4.07902e-06 -2.31666e-07 0)
(4.18111e-06 -2.28774e-07 0)
(4.28408e-06 -2.25824e-07 0)
(4.38764e-06 -2.22833e-07 0)
(4.49209e-06 -2.19394e-07 0)
(4.59724e-06 -2.15408e-07 0)
(4.70318e-06 -2.10644e-07 0)
(4.80981e-06 -2.04987e-07 0)
(4.91706e-06 -1.9829e-07 0)
(5.02482e-06 -1.90399e-07 0)
(5.13297e-06 -1.81133e-07 0)
(5.24137e-06 -1.70319e-07 0)
(5.34993e-06 -1.57758e-07 0)
(5.45836e-06 -1.43195e-07 0)
(5.56664e-06 -1.26327e-07 0)
(5.6742e-06 -1.06859e-07 0)
(5.78134e-06 -8.43049e-08 0)
(5.88668e-06 -5.8462e-08 0)
(3.68456e-06 -3.2177e-07 0)
(3.80018e-06 -3.12155e-07 0)
(3.91599e-06 -3.03856e-07 0)
(4.0301e-06 -2.97442e-07 0)
(4.14409e-06 -2.91459e-07 0)
(4.25753e-06 -2.85896e-07 0)
(4.37099e-06 -2.80154e-07 0)
(4.48434e-06 -2.74022e-07 0)
(4.59778e-06 -2.67194e-07 0)
(4.7113e-06 -2.59484e-07 0)
(4.82495e-06 -2.50677e-07 0)
(4.93867e-06 -2.40551e-07 0)
(5.0524e-06 -2.28871e-07 0)
(5.16605e-06 -2.15412e-07 0)
(5.27958e-06 -1.99899e-07 0)
(5.39273e-06 -1.82019e-07 0)
(5.50557e-06 -1.61408e-07 0)
(5.61754e-06 -1.37693e-07 0)
(5.72901e-06 -1.10274e-07 0)
(5.83867e-06 -7.88673e-08 0)
(3.46724e-06 -4.17995e-07 0)
(3.59892e-06 -4.01368e-07 0)
(3.72997e-06 -3.86784e-07 0)
(3.85754e-06 -3.75417e-07 0)
(3.98389e-06 -3.65242e-07 0)
(4.1085e-06 -3.56119e-07 0)
(4.23211e-06 -3.47272e-07 0)
(4.35475e-06 -3.38339e-07 0)
(4.47674e-06 -3.28925e-07 0)
(4.59817e-06 -3.18742e-07 0)
(4.71914e-06 -3.0749e-07 0)
(4.83967e-06 -2.94865e-07 0)
(4.95977e-06 -2.80566e-07 0)
(5.07942e-06 -2.64309e-07 0)
(5.19862e-06 -2.45749e-07 0)
(5.3172e-06 -2.24515e-07 0)
(5.43527e-06 -2.00171e-07 0)
(5.55232e-06 -1.72258e-07 0)
(5.66876e-06 -1.40044e-07 0)
(5.78335e-06 -1.03172e-07 0)
(3.22932e-06 -5.28847e-07 0)
(3.37774e-06 -5.03137e-07 0)
(3.52487e-06 -4.80574e-07 0)
(3.66698e-06 -4.6265e-07 0)
(3.80668e-06 -4.47022e-07 0)
(3.94353e-06 -4.33248e-07 0)
(4.07832e-06 -4.20428e-07 0)
(4.21124e-06 -4.08006e-07 0)
(4.34269e-06 -3.95472e-07 0)
(4.47284e-06 -3.82398e-07 0)
(4.60189e-06 -3.68379e-07 0)
(4.72992e-06 -3.53021e-07 0)
(4.85702e-06 -3.35951e-07 0)
(4.98329e-06 -3.16814e-07 0)
(5.10876e-06 -2.95188e-07 0)
(5.23334e-06 -2.70637e-07 0)
(5.35719e-06 -2.42628e-07 0)
(5.47983e-06 -2.10609e-07 0)
(5.60174e-06 -1.73715e-07 0)
(5.7218e-06 -1.31517e-07 0)
(2.97626e-06 -6.54203e-07 0)
(3.14186e-06 -6.17546e-07 0)
(3.30536e-06 -5.85851e-07 0)
(3.46267e-06 -5.59961e-07 0)
(3.61631e-06 -5.3781e-07 0)
(3.76604e-06 -5.18398e-07 0)
(3.91265e-06 -5.00759e-07 0)
(4.05649e-06 -4.84119e-07 0)
(4.19798e-06 -4.67835e-07 0)
(4.33743e-06 -4.51337e-07 0)
(4.47509e-06 -4.34113e-07 0)
(4.61115e-06 -4.15679e-07 0)
(4.7458e-06 -3.95588e-07 0)
(4.87919e-06 -3.734e-07 0)
(5.01139e-06 -3.48606e-07 0)
(5.14242e-06 -3.20692e-07 0)
(5.27245e-06 -2.89023e-07 0)
(5.40111e-06 -2.52946e-07 0)
(5.5289e-06 -2.11482e-07 0)
(5.65488e-06 -1.64139e-07 0)
(2.71291e-06 -7.92312e-07 0)
(2.89651e-06 -7.41913e-07 0)
(3.07615e-06 -6.99941e-07 0)
(3.24924e-06 -6.64725e-07 0)
(3.41721e-06 -6.34845e-07 0)
(3.58034e-06 -6.08818e-07 0)
(3.73926e-06 -5.85571e-07 0)
(3.89445e-06 -5.64122e-07 0)
(4.0464e-06 -5.43649e-07 0)
(4.19552e-06 -5.23427e-07 0)
(4.34215e-06 -5.0281e-07 0)
(4.48655e-06 -4.81204e-07 0)
(4.62901e-06 -4.58064e-07 0)
(4.76976e-06 -4.32852e-07 0)
(4.9089e-06 -4.0497e-07 0)
(5.04657e-06 -3.73821e-07 0)
(5.18294e-06 -3.38664e-07 0)
(5.31779e-06 -2.98752e-07 0)
(5.45165e-06 -2.5299e-07 0)
(5.58381e-06 -2.008e-07 0)
(2.51401e-06 -9.27629e-07 0)
(2.71156e-06 -8.64791e-07 0)
(2.90182e-06 -8.14591e-07 0)
(3.08519e-06 -7.71614e-07 0)
(3.26247e-06 -7.3473e-07 0)
(3.4343e-06 -7.02377e-07 0)
(3.60133e-06 -6.73404e-07 0)
(3.76408e-06 -6.46774e-07 0)
(3.92306e-06 -6.21587e-07 0)
(4.0787e-06 -5.97048e-07 0)
(4.23136e-06 -5.72443e-07 0)
(4.38136e-06 -5.47113e-07 0)
(4.52901e-06 -5.20448e-07 0)
(4.67458e-06 -4.91845e-07 0)
(4.8182e-06 -4.60646e-07 0)
(4.9601e-06 -4.262e-07 0)
(5.10044e-06 -3.87715e-07 0)
(5.23918e-06 -3.44407e-07 0)
(5.37683e-06 -2.95153e-07 0)
(5.51294e-06 -2.39329e-07 0)
(2.40178e-06 -1.03892e-06 0)
(2.60054e-06 -9.73305e-07 0)
(2.79262e-06 -9.18147e-07 0)
(2.97883e-06 -8.7009e-07 0)
(3.15931e-06 -8.28076e-07 0)
(3.3345e-06 -7.90741e-07 0)
(3.50487e-06 -7.56966e-07 0)
(3.67087e-06 -7.25753e-07 0)
(3.83293e-06 -6.96216e-07 0)
(3.99144e-06 -6.6756e-07 0)
(4.14675e-06 -6.39063e-07 0)
(4.29915e-06 -6.10054e-07 0)
(4.44899e-06 -5.79905e-07 0)
(4.59652e-06 -5.47989e-07 0)
(4.74188e-06 -5.13643e-07 0)
(4.88537e-06 -4.76204e-07 0)
(5.02713e-06 -4.34892e-07 0)
(5.16727e-06 -3.88944e-07 0)
(5.30625e-06 -3.37289e-07 0)
(5.44384e-06 -2.79285e-07 0)
(2.3073e-06 -1.14491e-06 0)
(2.50384e-06 -1.0781e-06 0)
(2.69558e-06 -1.01999e-06 0)
(2.88231e-06 -9.68191e-07 0)
(3.06407e-06 -9.21976e-07 0)
(3.24094e-06 -8.80276e-07 0)
(3.41328e-06 -8.4211e-07 0)
(3.58135e-06 -8.06583e-07 0)
(3.74548e-06 -7.72863e-07 0)
(3.90602e-06 -7.4019e-07 0)
(4.06327e-06 -7.07855e-07 0)
(4.21749e-06 -6.75192e-07 0)
(4.36903e-06 -6.41573e-07 0)
(4.51812e-06 -6.06367e-07 0)
(4.6649e-06 -5.68919e-07 0)
(4.80972e-06 -5.28574e-07 0)
(4.95272e-06 -4.84579e-07 0)
(5.09412e-06 -4.3621e-07 0)
(5.23431e-06 -3.82449e-07 0)
(5.37326e-06 -3.22652e-07 0)
(2.22452e-06 -1.24677e-06 0)
(2.41808e-06 -1.17949e-06 0)
(2.60812e-06 -1.11933e-06 0)
(2.794e-06 -1.06459e-06 0)
(2.97567e-06 -1.01486e-06 0)
(3.15299e-06 -9.69336e-07 0)
(3.32618e-06 -9.2722e-07 0)
(3.49534e-06 -8.87727e-07 0)
(3.66072e-06 -8.50097e-07 0)
(3.82258e-06 -8.13623e-07 0)
(3.98117e-06 -7.77628e-07 0)
(4.13671e-06 -7.41466e-07 0)
(4.28952e-06 -7.04526e-07 0)
(4.43983e-06 -6.66185e-07 0)
(4.58778e-06 -6.25806e-07 0)
(4.73372e-06 -5.82756e-07 0)
(4.8778e-06 -5.36326e-07 0)
(5.02031e-06 -4.85831e-07 0)
(5.1616e-06 -4.30303e-07 0)
(5.30182e-06 -3.69162e-07 0)
(2.1518e-06 -1.34431e-06 0)
(2.34176e-06 -1.27708e-06 0)
(2.5292e-06 -1.21567e-06 0)
(2.71325e-06 -1.15878e-06 0)
(2.89381e-06 -1.10626e-06 0)
(3.07061e-06 -1.05753e-06 0)
(3.24372e-06 -1.01197e-06 0)
(3.41314e-06 -9.68923e-07 0)
(3.57901e-06 -9.27712e-07 0)
(3.74155e-06 -8.87704e-07 0)
(3.90093e-06 -8.48268e-07 0)
(4.05732e-06 -8.08797e-07 0)
(4.21103e-06 -7.68709e-07 0)
(4.36223e-06 -7.27405e-07 0)
(4.51108e-06 -6.84274e-07 0)
(4.65795e-06 -6.38716e-07 0)
(4.80295e-06 -5.90067e-07 0)
(4.94644e-06 -5.37688e-07 0)
(5.08872e-06 -4.80684e-07 0)
(5.2301e-06 -4.18616e-07 0)
(2.0872e-06 -1.43771e-06 0)
(2.27327e-06 -1.37091e-06 0)
(2.45764e-06 -1.30876e-06 0)
(2.6392e-06 -1.25032e-06 0)
(2.81794e-06 -1.1956e-06 0)
(2.99348e-06 -1.14421e-06 0)
(3.16579e-06 -1.09569e-06 0)
(3.33478e-06 -1.0495e-06 0)
(3.50053e-06 -1.00508e-06 0)
(3.66319e-06 -9.61851e-07 0)
(3.82287e-06 -9.19252e-07 0)
(3.9797e-06 -8.76722e-07 0)
(4.13394e-06 -8.3372e-07 0)
(4.28575e-06 -7.89675e-07 0)
(4.43527e-06 -7.44014e-07 0)
(4.58286e-06 -6.96174e-07 0)
(4.72862e-06 -6.45543e-07 0)
(4.87294e-06 -5.91531e-07 0)
(5.01611e-06 -5.33367e-07 0)
(5.15852e-06 -4.70747e-07 0)
(2.02936e-06 -1.52717e-06 0)
(2.21139e-06 -1.46105e-06 0)
(2.39235e-06 -1.39857e-06 0)
(2.57101e-06 -1.33906e-06 0)
(2.74744e-06 -1.28265e-06 0)
(2.92117e-06 -1.2291e-06 0)
(3.09214e-06 -1.17809e-06 0)
(3.26017e-06 -1.12919e-06 0)
(3.42531e-06 -1.08192e-06 0)
(3.58764e-06 -1.03581e-06 0)
(3.7472e-06 -9.90354e-07 0)
(3.90409e-06 -9.45038e-07 0)
(4.05857e-06 -8.99371e-07 0)
(4.2107e-06 -8.52817e-07 0)
(4.36068e-06 -8.04848e-07 0)
(4.50879e-06 -7.54945e-07 0)
(4.65516e-06 -7.02555e-07 0)
(4.80017e-06 -6.47158e-07 0)
(4.94412e-06 -5.88134e-07 0)
(5.08743e-06 -5.25215e-07 0)
(1.97705e-06 -1.61292e-06 0)
(2.15502e-06 -1.54763e-06 0)
(2.33239e-06 -1.48511e-06 0)
(2.50791e-06 -1.42491e-06 0)
(2.6817e-06 -1.36724e-06 0)
(2.85326e-06 -1.31196e-06 0)
(3.02247e-06 -1.25887e-06 0)
(3.18915e-06 -1.20765e-06 0)
(3.35327e-06 -1.15791e-06 0)
(3.51488e-06 -1.10926e-06 0)
(3.67398e-06 -1.06125e-06 0)
(3.83063e-06 -1.01344e-06 0)
(3.98506e-06 -9.6537e-07 0)
(4.13729e-06 -9.16553e-07 0)
(4.28751e-06 -8.66507e-07 0)
(4.43597e-06 -8.14768e-07 0)
(4.5828e-06 -7.60852e-07 0)
(4.7284e-06 -7.04327e-07 0)
(4.87301e-06 -6.44693e-07 0)
(5.01707e-06 -5.81638e-07 0)
(1.92917e-06 -1.69521e-06 0)
(2.10315e-06 -1.63085e-06 0)
(2.27687e-06 -1.56852e-06 0)
(2.44914e-06 -1.50791e-06 0)
(2.62008e-06 -1.44931e-06 0)
(2.78921e-06 -1.39267e-06 0)
(2.9564e-06 -1.33786e-06 0)
(3.12141e-06 -1.28468e-06 0)
(3.28422e-06 -1.23282e-06 0)
(3.44482e-06 -1.18197e-06 0)
(3.60318e-06 -1.13173e-06 0)
(3.75934e-06 -1.08171e-06 0)
(3.91349e-06 -1.0315e-06 0)
(4.06561e-06 -9.80672e-07 0)
(4.21589e-06 -9.28788e-07 0)
(4.36456e-06 -8.75448e-07 0)
(4.51173e-06 -8.20248e-07 0)
(4.6578e-06 -7.62827e-07 0)
(4.80294e-06 -7.02749e-07 0)
(4.94764e-06 -6.39736e-07 0)
(1.88476e-06 -1.77433e-06 0)
(2.05485e-06 -1.71095e-06 0)
(2.22495e-06 -1.64893e-06 0)
(2.39394e-06 -1.58813e-06 0)
(2.56193e-06 -1.52886e-06 0)
(2.72848e-06 -1.47114e-06 0)
(2.89347e-06 -1.41496e-06 0)
(3.05663e-06 -1.36015e-06 0)
(3.21791e-06 -1.3065e-06 0)
(3.37729e-06 -1.25376e-06 0)
(3.53471e-06 -1.2016e-06 0)
(3.69018e-06 -1.14966e-06 0)
(3.84385e-06 -1.09759e-06 0)
(3.99571e-06 -1.045e-06 0)
(4.1459e-06 -9.91529e-07 0)
(4.29465e-06 -9.36829e-07 0)
(4.44205e-06 -8.80571e-07 0)
(4.58847e-06 -8.2244e-07 0)
(4.73404e-06 -7.62037e-07 0)
(4.87926e-06 -6.99268e-07 0)
(1.84301e-06 -1.85056e-06 0)
(2.00932e-06 -1.78815e-06 0)
(2.17586e-06 -1.72653e-06 0)
(2.34159e-06 -1.66568e-06 0)
(2.50662e-06 -1.60595e-06 0)
(2.67055e-06 -1.54742e-06 0)
(2.83323e-06 -1.49014e-06 0)
(2.99442e-06 -1.43402e-06 0)
(3.15405e-06 -1.3789e-06 0)
(3.31206e-06 -1.32457e-06 0)
(3.46839e-06 -1.27076e-06 0)
(3.62302e-06 -1.21718e-06 0)
(3.77608e-06 -1.16351e-06 0)
(3.92754e-06 -1.10941e-06 0)
(4.07754e-06 -1.05458e-06 0)
(4.22628e-06 -9.98742e-07 0)
(4.37381e-06 -9.41611e-07 0)
(4.52046e-06 -8.82903e-07 0)
(4.66637e-06 -8.22324e-07 0)
(4.812e-06 -7.59906e-07 0)
(1.80315e-06 -1.92415e-06 0)
(1.96583e-06 -1.86266e-06 0)
(2.12891e-06 -1.80147e-06 0)
(2.29145e-06 -1.74069e-06 0)
(2.45356e-06 -1.68068e-06 0)
(2.61486e-06 -1.62157e-06 0)
(2.77522e-06 -1.56345e-06 0)
(2.93439e-06 -1.50628e-06 0)
(3.09229e-06 -1.44996e-06 0)
(3.24886e-06 -1.39431e-06 0)
(3.404e-06 -1.33912e-06 0)
(3.5577e-06 -1.28414e-06 0)
(3.71007e-06 -1.2291e-06 0)
(3.86105e-06 -1.17374e-06 0)
(4.01078e-06 -1.11779e-06 0)
(4.15941e-06 -1.06102e-06 0)
(4.30698e-06 -1.00317e-06 0)
(4.45378e-06 -9.44016e-07 0)
(4.59994e-06 -8.83432e-07 0)
(4.74589e-06 -8.21368e-07 0)
(1.76452e-06 -1.99532e-06 0)
(1.92372e-06 -1.93468e-06 0)
(2.08347e-06 -1.87396e-06 0)
(2.24292e-06 -1.81334e-06 0)
(2.40219e-06 -1.7532e-06 0)
(2.56092e-06 -1.69368e-06 0)
(2.71898e-06 -1.63493e-06 0)
(2.87613e-06 -1.57693e-06 0)
(3.03229e-06 -1.51965e-06 0)
(3.18739e-06 -1.46294e-06 0)
(3.34131e-06 -1.40661e-06 0)
(3.49403e-06 -1.35049e-06 0)
(3.64566e-06 -1.29435e-06 0)
(3.79612e-06 -1.23795e-06 0)
(3.94551e-06 -1.1811e-06 0)
(4.09398e-06 -1.12356e-06 0)
(4.2415e-06 -1.06513e-06 0)
(4.38839e-06 -1.00567e-06 0)
(4.53472e-06 -9.45169e-07 0)
(4.6809e-06 -8.83492e-07 0)
(1.72649e-06 -2.06424e-06 0)
(1.88238e-06 -2.00442e-06 0)
(2.03894e-06 -1.94418e-06 0)
(2.19544e-06 -1.88378e-06 0)
(2.35196e-06 -1.82361e-06 0)
(2.50821e-06 -1.76384e-06 0)
(2.66405e-06 -1.70466e-06 0)
(2.81925e-06 -1.64605e-06 0)
(2.9737e-06 -1.58804e-06 0)
(3.12734e-06 -1.53049e-06 0)
(3.28004e-06 -1.47327e-06 0)
(3.43179e-06 -1.41623e-06 0)
(3.58267e-06 -1.35919e-06 0)
(3.73259e-06 -1.30197e-06 0)
(3.88161e-06 -1.24437e-06 0)
(4.02984e-06 -1.18621e-06 0)
(4.17728e-06 -1.12734e-06 0)
(4.32422e-06 -1.06773e-06 0)
(4.47066e-06 -1.00728e-06 0)
(4.61699e-06 -9.4604e-07 0)
(1.68845e-06 -2.13115e-06 0)
(1.8412e-06 -2.07209e-06 0)
(1.99474e-06 -2.01233e-06 0)
(2.14842e-06 -1.9522e-06 0)
(2.30235e-06 -1.8921e-06 0)
(2.45625e-06 -1.83223e-06 0)
(2.60999e-06 -1.77277e-06 0)
(2.76331e-06 -1.71374e-06 0)
(2.91614e-06 -1.65516e-06 0)
(3.06839e-06 -1.59697e-06 0)
(3.21993e-06 -1.53907e-06 0)
(3.37076e-06 -1.48134e-06 0)
(3.52091e-06 -1.42362e-06 0)
(3.67028e-06 -1.36575e-06 0)
(3.8189e-06 -1.30756e-06 0)
(3.96688e-06 -1.24891e-06 0)
(4.11422e-06 -1.18975e-06 0)
(4.26116e-06 -1.13005e-06 0)
(4.40768e-06 -1.06968e-06 0)
(4.55408e-06 -1.00883e-06 0)
(1.64981e-06 -2.19624e-06 0)
(1.79957e-06 -2.13791e-06 0)
(1.95022e-06 -2.07855e-06 0)
(2.1013e-06 -2.01874e-06 0)
(2.25283e-06 -1.95882e-06 0)
(2.40457e-06 -1.89897e-06 0)
(2.55636e-06 -1.83935e-06 0)
(2.70795e-06 -1.78007e-06 0)
(2.85926e-06 -1.72112e-06 0)
(3.01023e-06 -1.66248e-06 0)
(3.16073e-06 -1.6041e-06 0)
(3.3107e-06 -1.54586e-06 0)
(3.46016e-06 -1.48762e-06 0)
(3.60897e-06 -1.42924e-06 0)
(3.7572e-06 -1.37061e-06 0)
(3.90496e-06 -1.31164e-06 0)
(4.05221e-06 -1.25229e-06 0)
(4.1991e-06 -1.19246e-06 0)
(4.34561e-06 -1.13223e-06 0)
(4.49203e-06 -1.07171e-06 0)
(1.60995e-06 -2.25969e-06 0)
(1.75679e-06 -2.20187e-06 0)
(1.9047e-06 -2.14307e-06 0)
(2.05351e-06 -2.08369e-06 0)
(2.20286e-06 -2.02399e-06 0)
(2.35267e-06 -1.96423e-06 0)
(2.50269e-06 -1.9046e-06 0)
(2.65274e-06 -1.84519e-06 0)
(2.80274e-06 -1.78603e-06 0)
(2.95261e-06 -1.72713e-06 0)
(3.10218e-06 -1.66843e-06 0)
(3.25136e-06 -1.60982e-06 0)
(3.40016e-06 -1.55119e-06 0)
(3.54849e-06 -1.49246e-06 0)
(3.6964e-06 -1.43354e-06 0)
(3.84397e-06 -1.37435e-06 0)
(3.99106e-06 -1.31482e-06 0)
(4.13783e-06 -1.25491e-06 0)
(4.28431e-06 -1.19483e-06 0)
(4.43085e-06 -1.13461e-06 0)
(1.56791e-06 -2.32142e-06 0)
(1.71229e-06 -2.26424e-06 0)
(1.85796e-06 -2.20609e-06 0)
(2.00457e-06 -2.14713e-06 0)
(2.15202e-06 -2.08775e-06 0)
(2.30009e-06 -2.02819e-06 0)
(2.44862e-06 -1.96864e-06 0)
(2.59739e-06 -1.90925e-06 0)
(2.74631e-06 -1.85004e-06 0)
(2.89526e-06 -1.791e-06 0)
(3.04401e-06 -1.73209e-06 0)
(3.19249e-06 -1.67325e-06 0)
(3.34077e-06 -1.61441e-06 0)
(3.48875e-06 -1.55546e-06 0)
(3.63638e-06 -1.49632e-06 0)
(3.78363e-06 -1.43695e-06 0)
(3.93052e-06 -1.37729e-06 0)
(4.07732e-06 -1.31739e-06 0)
(4.2238e-06 -1.25739e-06 0)
(4.37015e-06 -1.19739e-06 0)
(1.52315e-06 -2.38212e-06 0)
(1.66527e-06 -2.32564e-06 0)
(1.80891e-06 -2.26797e-06 0)
(1.95372e-06 -2.20946e-06 0)
(2.09958e-06 -2.15044e-06 0)
(2.2463e-06 -2.09117e-06 0)
(2.39371e-06 -2.03183e-06 0)
(2.54156e-06 -1.97253e-06 0)
(2.68965e-06 -1.91333e-06 0)
(2.83783e-06 -1.85425e-06 0)
(2.98597e-06 -1.79527e-06 0)
(3.13404e-06 -1.73632e-06 0)
(3.28196e-06 -1.67733e-06 0)
(3.4295e-06 -1.61823e-06 0)
(3.57679e-06 -1.55895e-06 0)
(3.72393e-06 -1.49944e-06 0)
(3.8707e-06 -1.43969e-06 0)
(4.01734e-06 -1.3798e-06 0)
(4.1638e-06 -1.31982e-06 0)
(4.31013e-06 -1.25998e-06 0)
(1.47508e-06 -2.44125e-06 0)
(1.61521e-06 -2.38557e-06 0)
(1.75713e-06 -2.32861e-06 0)
(1.90051e-06 -2.27068e-06 0)
(2.04524e-06 -2.21216e-06 0)
(2.1911e-06 -2.15329e-06 0)
(2.33778e-06 -2.09424e-06 0)
(2.48494e-06 -2.03513e-06 0)
(2.63249e-06 -1.97605e-06 0)
(2.78033e-06 -1.91702e-06 0)
(2.92816e-06 -1.85803e-06 0)
(3.07582e-06 -1.79905e-06 0)
(3.2234e-06 -1.73997e-06 0)
(3.37075e-06 -1.68077e-06 0)
(3.51778e-06 -1.62141e-06 0)
(3.66468e-06 -1.56181e-06 0)
(3.81133e-06 -1.50204e-06 0)
(3.95784e-06 -1.44207e-06 0)
(4.10429e-06 -1.38209e-06 0)
(4.25049e-06 -1.32227e-06 0)
(1.05751e-07 -2.03703e-06 0)
(3.18549e-07 -2.00764e-06 0)
(5.35205e-07 -1.94979e-06 0)
(7.57848e-07 -1.86612e-06 0)
(9.88218e-07 -1.7596e-06 0)
(1.2274e-06 -1.63437e-06 0)
(1.47578e-06 -1.49493e-06 0)
(1.73294e-06 -1.346e-06 0)
(1.99824e-06 -1.19232e-06 0)
(2.26931e-06 -1.03756e-06 0)
(1.03131e-07 -2.07282e-06 0)
(3.1047e-07 -2.04603e-06 0)
(5.20969e-07 -1.99319e-06 0)
(7.36381e-07 -1.91662e-06 0)
(9.58137e-07 -1.8188e-06 0)
(1.18714e-06 -1.70325e-06 0)
(1.42368e-06 -1.57383e-06 0)
(1.6673e-06 -1.4346e-06 0)
(1.91688e-06 -1.28992e-06 0)
(2.17052e-06 -1.14323e-06 0)
(1.00741e-07 -2.10968e-06 0)
(3.03093e-07 -2.08524e-06 0)
(5.07947e-07 -2.03692e-06 0)
(7.1671e-07 -1.96681e-06 0)
(9.30542e-07 -1.87704e-06 0)
(1.15017e-06 -1.77061e-06 0)
(1.37586e-06 -1.65087e-06 0)
(1.60748e-06 -1.5212e-06 0)
(1.84412e-06 -1.3855e-06 0)
(2.0846e-06 -1.24613e-06 0)
(9.85583e-08 -2.14753e-06 0)
(2.96417e-07 -2.12507e-06 0)
(4.96309e-07 -2.08057e-06 0)
(6.9936e-07 -2.01595e-06 0)
(9.06534e-07 -1.93305e-06 0)
(1.11836e-06 -1.83447e-06 0)
(1.33503e-06 -1.72322e-06 0)
(1.5564e-06 -1.6023e-06 0)
(1.78164e-06 -1.47537e-06 0)
(2.00981e-06 -1.3443e-06 0)
(9.6541e-08 -2.18631e-06 0)
(2.90179e-07 -2.16561e-06 0)
(4.85505e-07 -2.12454e-06 0)
(6.83364e-07 -2.06483e-06 0)
(8.84561e-07 -1.98814e-06 0)
(1.08951e-06 -1.89675e-06 0)
(1.29835e-06 -1.79336e-06 0)
(1.51099e-06 -1.68055e-06 0)
(1.72675e-06 -1.56166e-06 0)
(1.94444e-06 -1.43835e-06 0)
(9.46593e-08 -2.22595e-06 0)
(2.84366e-07 -2.20677e-06 0)
(4.75485e-07 -2.16871e-06 0)
(6.68659e-07 -2.11327e-06 0)
(8.6455e-07 -2.04203e-06 0)
(1.0635e-06 -1.957e-06 0)
(1.26554e-06 -1.86065e-06 0)
(1.47054e-06 -1.7553e-06 0)
(1.67806e-06 -1.64395e-06 0)
(1.88665e-06 -1.52823e-06 0)
(9.28228e-08 -2.2664e-06 0)
(2.78807e-07 -2.24855e-06 0)
(4.65947e-07 -2.21319e-06 0)
(6.5478e-07 -2.16157e-06 0)
(8.45844e-07 -2.09522e-06 0)
(1.03941e-06 -2.01593e-06 0)
(1.23551e-06 -1.92596e-06 0)
(1.43388e-06 -1.82739e-06 0)
(1.63431e-06 -1.72289e-06 0)
(1.83511e-06 -1.61421e-06 0)
(9.10506e-08 -2.30755e-06 0)
(2.73452e-07 -2.29088e-06 0)
(4.56795e-07 -2.25791e-06 0)
(6.41567e-07 -2.20968e-06 0)
(8.28218e-07 -2.14769e-06 0)
(1.01691e-06 -2.07355e-06 0)
(1.2077e-06 -1.98932e-06 0)
(1.40023e-06 -1.89693e-06 0)
(1.59446e-06 -1.79873e-06 0)
(1.78858e-06 -1.69655e-06 0)
(8.93453e-08 -2.34934e-06 0)
(2.68216e-07 -2.33372e-06 0)
(4.47886e-07 -2.30289e-06 0)
(6.28796e-07 -2.25771e-06 0)
(8.11311e-07 -2.19965e-06 0)
(9.95555e-07 -2.13016e-06 0)
(1.18155e-06 -2.05112e-06 0)
(1.36888e-06 -1.96431e-06 0)
(1.55763e-06 -1.87183e-06 0)
(1.74601e-06 -1.77559e-06 0)
(8.76491e-08 -2.39168e-06 0)
(2.63023e-07 -2.37697e-06 0)
(4.39117e-07 -2.34806e-06 0)
(6.16323e-07 -2.30565e-06 0)
(7.94903e-07 -2.25113e-06 0)
(9.75002e-07 -2.18582e-06 0)
(1.1566e-06 -2.11147e-06 0)
(1.33925e-06 -2.02973e-06 0)
(1.52311e-06 -1.9425e-06 0)
(1.70646e-06 -1.85167e-06 0)
(8.59127e-08 -2.43447e-06 0)
(2.57822e-07 -2.42057e-06 0)
(4.30388e-07 -2.3934e-06 0)
(6.0397e-07 -2.35351e-06 0)
(7.78765e-07 -2.30219e-06 0)
(9.54927e-07 -2.24068e-06 0)
(1.13243e-06 -2.17057e-06 0)
(1.31081e-06 -2.09346e-06 0)
(1.49024e-06 -2.01099e-06 0)
(1.66916e-06 -1.92507e-06 0)
(8.41462e-08 -2.47757e-06 0)
(2.52591e-07 -2.46444e-06 0)
(4.21625e-07 -2.43885e-06 0)
(5.91595e-07 -2.40126e-06 0)
(7.62697e-07 -2.35284e-06 0)
(9.35056e-07 -2.29478e-06 0)
(1.10868e-06 -2.22853e-06 0)
(1.28309e-06 -2.15563e-06 0)
(1.45847e-06 -2.0775e-06 0)
(1.63341e-06 -1.99601e-06 0)
(8.23639e-08 -2.52091e-06 0)
(2.47277e-07 -2.5085e-06 0)
(4.12723e-07 -2.48436e-06 0)
(5.79047e-07 -2.44886e-06 0)
(7.46486e-07 -2.40309e-06 0)
(9.15124e-07 -2.34817e-06 0)
(1.085e-06 -2.28546e-06 0)
(1.25566e-06 -2.21637e-06 0)
(1.42727e-06 -2.14218e-06 0)
(1.5986e-06 -2.06473e-06 0)
(8.05415e-08 -2.56438e-06 0)
(2.41787e-07 -2.55265e-06 0)
(4.03547e-07 -2.52981e-06 0)
(5.66163e-07 -2.49622e-06 0)
(7.29913e-07 -2.45289e-06 0)
(8.94858e-07 -2.40086e-06 0)
(1.06106e-06 -2.34139e-06 0)
(1.22811e-06 -2.27578e-06 0)
(1.39616e-06 -2.20523e-06 0)
(1.56415e-06 -2.13146e-06 0)
(7.86288e-08 -2.60789e-06 0)
(2.36022e-07 -2.59678e-06 0)
(3.93959e-07 -2.57513e-06 0)
(5.52765e-07 -2.54332e-06 0)
(7.12741e-07 -2.50224e-06 0)
(8.73955e-07 -2.45289e-06 0)
(1.03649e-06 -2.39639e-06 0)
(1.20002e-06 -2.33396e-06 0)
(1.36464e-06 -2.26678e-06 0)
(1.52946e-06 -2.19636e-06 0)
(7.65901e-08 -2.65122e-06 0)
(2.29916e-07 -2.6407e-06 0)
(3.83843e-07 -2.62017e-06 0)
(5.38673e-07 -2.59001e-06 0)
(6.94726e-07 -2.55102e-06 0)
(8.52114e-07 -2.50413e-06 0)
(1.01094e-06 -2.45037e-06 0)
(1.17097e-06 -2.39093e-06 0)
(1.33223e-06 -2.32687e-06 0)
(1.494e-06 -2.25953e-06 0)
(7.44087e-08 -2.69432e-06 0)
(2.23405e-07 -2.68438e-06 0)
(3.7306e-07 -2.66488e-06 0)
(5.23677e-07 -2.63626e-06 0)
(6.75605e-07 -2.59924e-06 0)
(8.29008e-07 -2.55467e-06 0)
(9.8403e-07 -2.5035e-06 0)
(1.14048e-06 -2.44689e-06 0)
(1.29837e-06 -2.38568e-06 0)
(1.45709e-06 -2.32125e-06 0)
(7.2068e-08 -2.73678e-06 0)
(2.1641e-07 -2.72738e-06 0)
(3.61462e-07 -2.70887e-06 0)
(5.07567e-07 -2.68173e-06 0)
(6.55108e-07 -2.64656e-06 0)
(8.04308e-07 -2.60419e-06 0)
(9.55334e-07 -2.55551e-06 0)
(1.10805e-06 -2.50155e-06 0)
(1.26244e-06 -2.44308e-06 0)
(1.41809e-06 -2.38136e-06 0)
(6.95251e-08 -2.7788e-06 0)
(2.08792e-07 -2.76992e-06 0)
(3.48821e-07 -2.75238e-06 0)
(4.90022e-07 -2.72664e-06 0)
(6.32819e-07 -2.69327e-06 0)
(7.77499e-07 -2.65304e-06 0)
(9.24249e-07 -2.60676e-06 0)
(1.07299e-06 -2.55532e-06 0)
(1.22371e-06 -2.49952e-06 0)
(1.37618e-06 -2.4404e-06 0)
(6.6753e-08 -2.81927e-06 0)
(2.00485e-07 -2.81087e-06 0)
(3.35027e-07 -2.79429e-06 0)
(4.70896e-07 -2.76995e-06 0)
(6.08565e-07 -2.73837e-06 0)
(7.48349e-07 -2.70027e-06 0)
(8.90453e-07 -2.65636e-06 0)
(1.03489e-06 -2.60743e-06 0)
(1.18173e-06 -2.55429e-06 0)
(1.3309e-06 -2.49779e-06 0)
)


// ************************************************************************* //
