/*--------------------------------*- C++ -*----------------------------------*\
| =========                 |                                                 |
| \\      /  F ield         | foam-extend: Open Source CFD                    |
|  \\    /   O peration     | Version:     4.1                                |
|   \\  /    A nd           | Web:         http://www.foam-extend.org         |
|    \\/     M anipulation  |                                                 |
\*---------------------------------------------------------------------------*/
FoamFile
{
    version     2.0;
    format      ascii;
    class       vectorField;
    location    "5";
    object      solidsCellD_iteration11;
}
// * * * * * * * * * * * * * * * * * * * * * * * * * * * * * * * * * * * * * //


1000
(
(2.56502e-06 -1.06729e-06 0)
(2.42203e-06 -9.94344e-07 0)
(2.3311e-06 -9.48571e-07 0)
(2.27924e-06 -9.27861e-07 0)
(2.25438e-06 -9.21551e-07 0)
(2.24925e-06 -9.26338e-07 0)
(2.25866e-06 -9.38381e-07 0)
(2.27891e-06 -9.55885e-07 0)
(2.30751e-06 -9.76996e-07 0)
(2.3419e-06 -1.00066e-06 0)
(2.31949e-06 -1.16593e-06 0)
(2.16726e-06 -1.1157e-06 0)
(2.07045e-06 -1.0843e-06 0)
(2.01422e-06 -1.07339e-06 0)
(1.98588e-06 -1.07361e-06 0)
(1.97757e-06 -1.08301e-06 0)
(1.98391e-06 -1.09833e-06 0)
(2.00099e-06 -1.11829e-06 0)
(2.02613e-06 -1.14135e-06 0)
(2.05662e-06 -1.16639e-06 0)
(2.06432e-06 -1.2594e-06 0)
(1.90881e-06 -1.23454e-06 0)
(1.80988e-06 -1.21923e-06 0)
(1.75173e-06 -1.21911e-06 0)
(1.7215e-06 -1.22638e-06 0)
(1.71102e-06 -1.24065e-06 0)
(1.71489e-06 -1.25936e-06 0)
(1.72923e-06 -1.2817e-06 0)
(1.75128e-06 -1.30662e-06 0)
(1.77851e-06 -1.33289e-06 0)
(1.80137e-06 -1.34604e-06 0)
(1.64915e-06 -1.34778e-06 0)
(1.55228e-06 -1.34934e-06 0)
(1.49477e-06 -1.36043e-06 0)
(1.46427e-06 -1.37502e-06 0)
(1.45263e-06 -1.39426e-06 0)
(1.45458e-06 -1.41636e-06 0)
(1.46644e-06 -1.44106e-06 0)
(1.48557e-06 -1.46777e-06 0)
(1.50952e-06 -1.49537e-06 0)
(1.53256e-06 -1.42415e-06 0)
(1.39003e-06 -1.45224e-06 0)
(1.29932e-06 -1.4705e-06 0)
(1.24517e-06 -1.49266e-06 0)
(1.21602e-06 -1.51443e-06 0)
(1.20414e-06 -1.53856e-06 0)
(1.20473e-06 -1.56394e-06 0)
(1.21435e-06 -1.59094e-06 0)
(1.23065e-06 -1.61937e-06 0)
(1.2512e-06 -1.64836e-06 0)
(1.25906e-06 -1.49217e-06 0)
(1.13258e-06 -1.54489e-06 0)
(1.05212e-06 -1.57878e-06 0)
(1.00379e-06 -1.61131e-06 0)
(9.77472e-07 -1.63978e-06 0)
(9.66258e-07 -1.66844e-06 0)
(9.66036e-07 -1.69685e-06 0)
(9.73661e-07 -1.72599e-06 0)
(9.87091e-07 -1.756e-06 0)
(1.00409e-06 -1.78637e-06 0)
(9.82323e-07 -1.54852e-06 0)
(8.77446e-07 -1.62283e-06 0)
(8.10729e-07 -1.67045e-06 0)
(7.70493e-07 -1.71207e-06 0)
(7.48427e-07 -1.74639e-06 0)
(7.3878e-07 -1.779e-06 0)
(7.38166e-07 -1.81004e-06 0)
(7.43919e-07 -1.84107e-06 0)
(7.5441e-07 -1.87248e-06 0)
(7.67717e-07 -1.9041e-06 0)
(7.03248e-07 -1.592e-06 0)
(6.24661e-07 -1.68366e-06 0)
(5.74705e-07 -1.74227e-06 0)
(5.44534e-07 -1.79113e-06 0)
(5.27916e-07 -1.83017e-06 0)
(5.20515e-07 -1.86597e-06 0)
(5.198e-07 -1.89916e-06 0)
(5.23782e-07 -1.93173e-06 0)
(5.31293e-07 -1.96424e-06 0)
(5.4084e-07 -1.9969e-06 0)
(4.22603e-07 -1.62155e-06 0)
(3.73953e-07 -1.72533e-06 0)
(3.43065e-07 -1.7916e-06 0)
(3.24338e-07 -1.84559e-06 0)
(3.13952e-07 -1.88792e-06 0)
(3.09264e-07 -1.92593e-06 0)
(3.08746e-07 -1.96063e-06 0)
(3.11118e-07 -1.99431e-06 0)
(3.15624e-07 -2.02763e-06 0)
(3.21355e-07 -2.06104e-06 0)
(1.41139e-07 -1.63644e-06 0)
(1.24669e-07 -1.74649e-06 0)
(1.14138e-07 -1.81672e-06 0)
(1.07764e-07 -1.87332e-06 0)
(1.04269e-07 -1.91736e-06 0)
(1.02655e-07 -1.95653e-06 0)
(1.02406e-07 -1.99199e-06 0)
(1.03172e-07 -2.02621e-06 0)
(1.04689e-07 -2.05995e-06 0)
(1.06595e-07 -2.09377e-06 0)
(3.99984e-06 -4.8665e-08 0)
(4.03545e-06 -3.50846e-08 0)
(4.05741e-06 -2.64998e-08 0)
(4.08131e-06 -2.14705e-08 0)
(4.1076e-06 -1.86995e-08 0)
(4.13981e-06 -1.74758e-08 0)
(4.17795e-06 -1.72919e-08 0)
(4.22235e-06 -1.77296e-08 0)
(4.27297e-06 -1.87056e-08 0)
(4.32908e-06 -1.98958e-08 0)
(3.97027e-06 -1.46032e-07 0)
(3.99996e-06 -1.0608e-07 0)
(4.01822e-06 -8.08306e-08 0)
(4.03961e-06 -6.61586e-08 0)
(4.06423e-06 -5.81712e-08 0)
(4.09524e-06 -5.45659e-08 0)
(4.13255e-06 -5.40589e-08 0)
(4.17627e-06 -5.55728e-08 0)
(4.22627e-06 -5.85331e-08 0)
(4.28177e-06 -6.20057e-08 0)
(3.91125e-06 -2.44185e-07 0)
(3.92962e-06 -1.80094e-07 0)
(3.94073e-06 -1.39626e-07 0)
(3.95737e-06 -1.16042e-07 0)
(3.97885e-06 -1.033e-07 0)
(4.00766e-06 -9.77681e-08 0)
(4.0433e-06 -9.7153e-08 0)
(4.08572e-06 -9.97379e-08 0)
(4.13456e-06 -1.04627e-07 0)
(4.18886e-06 -1.10427e-07 0)
(3.82382e-06 -3.43626e-07 0)
(3.82608e-06 -2.58824e-07 0)
(3.82696e-06 -2.05391e-07 0)
(3.83685e-06 -1.744e-07 0)
(3.85384e-06 -1.57721e-07 0)
(3.87951e-06 -1.50642e-07 0)
(3.91282e-06 -1.50081e-07 0)
(3.9534e-06 -1.53853e-07 0)
(4.00061e-06 -1.60683e-07 0)
(4.05327e-06 -1.68821e-07 0)
(3.70929e-06 -4.44582e-07 0)
(3.69167e-06 -3.43717e-07 0)
(3.67991e-06 -2.80201e-07 0)
(3.68142e-06 -2.43648e-07 0)
(3.69286e-06 -2.24156e-07 0)
(3.71461e-06 -2.16203e-07 0)
(3.74502e-06 -2.16056e-07 0)
(3.78326e-06 -2.21168e-07 0)
(3.82847e-06 -2.29911e-07 0)
(3.87914e-06 -2.40331e-07 0)
(3.56934e-06 -5.47136e-07 0)
(3.52922e-06 -4.35739e-07 0)
(3.50322e-06 -3.65587e-07 0)
(3.49528e-06 -3.25641e-07 0)
(3.50041e-06 -3.04684e-07 0)
(3.51768e-06 -2.96655e-07 0)
(3.54481e-06 -2.97323e-07 0)
(3.58039e-06 -3.03906e-07 0)
(3.62329e-06 -3.14541e-07 0)
(3.67172e-06 -3.27196e-07 0)
(3.40609e-06 -6.51097e-07 0)
(3.34215e-06 -5.35283e-07 0)
(3.30109e-06 -4.62344e-07 0)
(3.28317e-06 -4.21417e-07 0)
(3.28162e-06 -4.00435e-07 0)
(3.29413e-06 -3.93193e-07 0)
(3.31775e-06 -3.95126e-07 0)
(3.35047e-06 -4.03335e-07 0)
(3.39085e-06 -4.15855e-07 0)
(3.43692e-06 -4.30653e-07 0)
(3.22164e-06 -7.55944e-07 0)
(3.13412e-06 -6.42093e-07 0)
(3.07816e-06 -5.70373e-07 0)
(3.05027e-06 -5.30987e-07 0)
(3.04209e-06 -5.115e-07 0)
(3.0498e-06 -5.05966e-07 0)
(3.06977e-06 -5.0966e-07 0)
(3.09953e-06 -5.19734e-07 0)
(3.13726e-06 -5.3416e-07 0)
(3.18086e-06 -5.51044e-07 0)
(3.01839e-06 -8.60974e-07 0)
(2.90895e-06 -7.55269e-07 0)
(2.83914e-06 -6.88747e-07 0)
(2.80192e-06 -6.5338e-07 0)
(2.78743e-06 -6.36916e-07 0)
(2.79044e-06 -6.33971e-07 0)
(2.80676e-06 -6.39931e-07 0)
(2.83348e-06 -6.52075e-07 0)
(2.86843e-06 -6.68513e-07 0)
(2.90954e-06 -6.87231e-07 0)
(2.79874e-06 -9.65185e-07 0)
(2.67045e-06 -8.73358e-07 0)
(2.58872e-06 -8.15646e-07 0)
(2.54334e-06 -7.86637e-07 0)
(2.52319e-06 -7.74641e-07 0)
(2.52193e-06 -7.75161e-07 0)
(2.53487e-06 -7.83922e-07 0)
(2.55859e-06 -7.98582e-07 0)
(2.5909e-06 -8.17211e-07 0)
(2.62915e-06 -8.387e-07 0)
(4.39082e-06 -2.10336e-08 0)
(4.45808e-06 -2.13149e-08 0)
(4.52957e-06 -2.16244e-08 0)
(4.60504e-06 -2.1851e-08 0)
(4.68403e-06 -2.1978e-08 0)
(4.76627e-06 -2.19948e-08 0)
(4.85136e-06 -2.18604e-08 0)
(4.93897e-06 -2.16058e-08 0)
(5.02886e-06 -2.12434e-08 0)
(5.12079e-06 -2.07373e-08 0)
(5.21445e-06 -2.00581e-08 0)
(5.30956e-06 -1.91986e-08 0)
(5.40589e-06 -1.81519e-08 0)
(5.50314e-06 -1.69131e-08 0)
(5.60109e-06 -1.5464e-08 0)
(5.69937e-06 -1.37679e-08 0)
(5.7978e-06 -1.17782e-08 0)
(5.89578e-06 -9.45385e-09 0)
(5.9934e-06 -6.74465e-09 0)
(6.08921e-06 -3.63382e-09 0)
(4.3456e-06 -6.51721e-08 0)
(4.41663e-06 -6.57385e-08 0)
(4.4915e-06 -6.64164e-08 0)
(4.56992e-06 -6.68794e-08 0)
(4.65155e-06 -6.70326e-08 0)
(4.73609e-06 -6.69096e-08 0)
(4.82326e-06 -6.64488e-08 0)
(4.91279e-06 -6.56544e-08 0)
(5.00444e-06 -6.44695e-08 0)
(5.09794e-06 -6.28257e-08 0)
(5.19304e-06 -6.07041e-08 0)
(5.28951e-06 -5.81022e-08 0)
(5.38712e-06 -5.49736e-08 0)
(5.48559e-06 -5.1256e-08 0)
(5.58469e-06 -4.68728e-08 0)
(5.68406e-06 -4.17389e-08 0)
(5.78355e-06 -3.57445e-08 0)
(5.88253e-06 -2.87793e-08 0)
(5.98114e-06 -2.06795e-08 0)
(6.0779e-06 -1.13752e-08 0)
(4.25677e-06 -1.15032e-07 0)
(4.33523e-06 -1.15056e-07 0)
(4.41672e-06 -1.15326e-07 0)
(4.50085e-06 -1.15449e-07 0)
(4.5876e-06 -1.15196e-07 0)
(4.67672e-06 -1.14601e-07 0)
(4.76805e-06 -1.13502e-07 0)
(4.86128e-06 -1.11875e-07 0)
(4.9563e-06 -1.0963e-07 0)
(5.05288e-06 -1.06697e-07 0)
(5.15084e-06 -1.03048e-07 0)
(5.24997e-06 -9.86407e-08 0)
(5.35005e-06 -9.33658e-08 0)
(5.45083e-06 -8.71069e-08 0)
(5.55211e-06 -7.97471e-08 0)
(5.65359e-06 -7.11578e-08 0)
(5.75511e-06 -6.11581e-08 0)
(5.8561e-06 -4.95652e-08 0)
(5.95669e-06 -3.60991e-08 0)
(6.05543e-06 -2.0627e-08 0)
(4.12697e-06 -1.73845e-07 0)
(4.21602e-06 -1.72008e-07 0)
(4.30709e-06 -1.70679e-07 0)
(4.39956e-06 -1.69559e-07 0)
(4.49383e-06 -1.68152e-07 0)
(4.5896e-06 -1.66491e-07 0)
(4.68693e-06 -1.6426e-07 0)
(4.7856e-06 -1.61425e-07 0)
(4.88562e-06 -1.57834e-07 0)
(4.98679e-06 -1.53395e-07 0)
(5.08897e-06 -1.48031e-07 0)
(5.192e-06 -1.41646e-07 0)
(5.29572e-06 -1.34083e-07 0)
(5.39992e-06 -1.25196e-07 0)
(5.50444e-06 -1.14831e-07 0)
(5.60902e-06 -1.02789e-07 0)
(5.71352e-06 -8.88123e-08 0)
(5.81742e-06 -7.2631e-08 0)
(5.92083e-06 -5.38371e-08 0)
(6.02241e-06 -3.22676e-08 0)
(3.96009e-06 -2.44455e-07 0)
(4.0625e-06 -2.39078e-07 0)
(4.16573e-06 -2.34661e-07 0)
(4.26876e-06 -2.31163e-07 0)
(4.3726e-06 -2.27624e-07 0)
(4.47689e-06 -2.24098e-07 0)
(4.58196e-06 -2.20089e-07 0)
(4.68765e-06 -2.1554e-07 0)
(4.79406e-06 -2.10193e-07 0)
(4.90108e-06 -2.03903e-07 0)
(5.00869e-06 -1.96552e-07 0)
(5.11678e-06 -1.8799e-07 0)
(5.22523e-06 -1.78004e-07 0)
(5.33389e-06 -1.66395e-07 0)
(5.44266e-06 -1.52959e-07 0)
(5.55125e-06 -1.37425e-07 0)
(5.65963e-06 -1.19465e-07 0)
(5.76726e-06 -9.87301e-08 0)
(5.87437e-06 -7.46707e-08 0)
(5.97964e-06 -4.70983e-08 0)
(3.76084e-06 -3.28951e-07 0)
(3.87859e-06 -3.1808e-07 0)
(3.99608e-06 -3.08771e-07 0)
(4.1116e-06 -3.01479e-07 0)
(4.22684e-06 -2.94647e-07 0)
(4.34132e-06 -2.88315e-07 0)
(4.45559e-06 -2.81759e-07 0)
(4.56968e-06 -2.74842e-07 0)
(4.68378e-06 -2.67237e-07 0)
(4.79787e-06 -2.58725e-07 0)
(4.91203e-06 -2.49109e-07 0)
(5.02621e-06 -2.38159e-07 0)
(5.14036e-06 -2.25594e-07 0)
(5.25436e-06 -2.11162e-07 0)
(5.36818e-06 -1.94588e-07 0)
(5.4816e-06 -1.75545e-07 0)
(5.59464e-06 -1.53622e-07 0)
(5.70676e-06 -1.28401e-07 0)
(5.81832e-06 -9.91928e-08 0)
(5.92802e-06 -6.57313e-08 0)
(3.53479e-06 -4.28582e-07 0)
(3.66926e-06 -4.10232e-07 0)
(3.8025e-06 -3.94243e-07 0)
(3.93192e-06 -3.8164e-07 0)
(4.05984e-06 -3.70278e-07 0)
(4.1858e-06 -3.60064e-07 0)
(4.31052e-06 -3.50148e-07 0)
(4.43414e-06 -3.40198e-07 0)
(4.557e-06 -3.29802e-07 0)
(4.6792e-06 -3.18639e-07 0)
(4.80087e-06 -3.06406e-07 0)
(4.92202e-06 -2.9278e-07 0)
(5.04268e-06 -2.77417e-07 0)
(5.16282e-06 -2.6001e-07 0)
(5.28246e-06 -2.40214e-07 0)
(5.40143e-06 -2.17641e-07 0)
(5.51982e-06 -1.91784e-07 0)
(5.63715e-06 -1.62141e-07 0)
(5.7538e-06 -1.27894e-07 0)
(5.86857e-06 -8.86877e-08 0)
(3.28743e-06 -5.4368e-07 0)
(3.43918e-06 -5.15632e-07 0)
(3.58897e-06 -4.91158e-07 0)
(3.73331e-06 -4.71543e-07 0)
(3.87497e-06 -4.54364e-07 0)
(4.01343e-06 -4.39153e-07 0)
(4.14966e-06 -4.24988e-07 0)
(4.28384e-06 -4.113e-07 0)
(4.4164e-06 -3.97559e-07 0)
(4.54755e-06 -3.83306e-07 0)
(4.67749e-06 -3.68118e-07 0)
(4.80635e-06 -3.51576e-07 0)
(4.93422e-06 -3.33264e-07 0)
(5.06117e-06 -3.12808e-07 0)
(5.18726e-06 -2.89781e-07 0)
(5.31241e-06 -2.63716e-07 0)
(5.43672e-06 -2.34007e-07 0)
(5.55981e-06 -2.00061e-07 0)
(5.68208e-06 -1.60925e-07 0)
(5.80248e-06 -1.16163e-07 0)
(3.02471e-06 -6.73985e-07 0)
(3.19385e-06 -6.34433e-07 0)
(3.36029e-06 -6.00328e-07 0)
(3.52009e-06 -5.72235e-07 0)
(3.67597e-06 -5.48067e-07 0)
(3.8276e-06 -5.26822e-07 0)
(3.97593e-06 -5.07507e-07 0)
(4.1213e-06 -4.89311e-07 0)
(4.2642e-06 -4.71572e-07 0)
(4.40493e-06 -4.53681e-07 0)
(4.54378e-06 -4.35094e-07 0)
(4.68094e-06 -4.15296e-07 0)
(4.81662e-06 -3.93793e-07 0)
(4.95094e-06 -3.70122e-07 0)
(5.08402e-06 -3.43763e-07 0)
(5.21585e-06 -3.14161e-07 0)
(5.34656e-06 -2.80609e-07 0)
(5.47587e-06 -2.42422e-07 0)
(5.60421e-06 -1.98542e-07 0)
(5.73073e-06 -1.4845e-07 0)
(2.75166e-06 -8.17317e-07 0)
(2.93865e-06 -7.63247e-07 0)
(3.12125e-06 -7.18259e-07 0)
(3.297e-06 -6.80339e-07 0)
(3.46737e-06 -6.48086e-07 0)
(3.63271e-06 -6.19929e-07 0)
(3.79365e-06 -5.94741e-07 0)
(3.95071e-06 -5.715e-07 0)
(4.10442e-06 -5.49368e-07 0)
(4.25517e-06 -5.27568e-07 0)
(4.40332e-06 -5.05417e-07 0)
(4.54916e-06 -4.82287e-07 0)
(4.69297e-06 -4.57582e-07 0)
(4.83497e-06 -4.30737e-07 0)
(4.9753e-06 -4.01138e-07 0)
(5.11404e-06 -3.68135e-07 0)
(5.25138e-06 -3.30936e-07 0)
(5.38714e-06 -2.88745e-07 0)
(5.52183e-06 -2.40415e-07 0)
(5.65475e-06 -1.8531e-07 0)
(2.54787e-06 -9.55992e-07 0)
(2.74717e-06 -8.89779e-07 0)
(2.93972e-06 -8.36416e-07 0)
(3.12559e-06 -7.90451e-07 0)
(3.30534e-06 -7.50943e-07 0)
(3.47955e-06 -7.16215e-07 0)
(3.64881e-06 -6.85073e-07 0)
(3.81366e-06 -6.56453e-07 0)
(3.97463e-06 -6.29426e-07 0)
(4.13211e-06 -6.03138e-07 0)
(4.28651e-06 -5.76839e-07 0)
(4.43815e-06 -5.49837e-07 0)
(4.58734e-06 -5.21466e-07 0)
(4.73434e-06 -4.9109e-07 0)
(4.87933e-06 -4.5804e-07 0)
(5.02245e-06 -4.21597e-07 0)
(5.16394e-06 -3.80952e-07 0)
(5.30376e-06 -3.35236e-07 0)
(5.44241e-06 -2.83298e-07 0)
(5.57942e-06 -2.2443e-07 0)
(2.43196e-06 -1.06931e-06 0)
(2.63275e-06 -1.0005e-06 0)
(2.82698e-06 -9.42356e-07 0)
(3.0155e-06 -8.91385e-07 0)
(3.1983e-06 -8.46698e-07 0)
(3.37575e-06 -8.06882e-07 0)
(3.5483e-06 -7.70816e-07 0)
(3.71638e-06 -7.37483e-07 0)
(3.8804e-06 -7.05964e-07 0)
(4.04074e-06 -6.75415e-07 0)
(4.19776e-06 -6.45087e-07 0)
(4.35181e-06 -6.14276e-07 0)
(4.50317e-06 -5.82296e-07 0)
(4.65211e-06 -5.4849e-07 0)
(4.79883e-06 -5.1218e-07 0)
(4.94354e-06 -4.72629e-07 0)
(5.08645e-06 -4.29066e-07 0)
(5.22768e-06 -3.80619e-07 0)
(5.36768e-06 -3.26194e-07 0)
(5.50617e-06 -2.65089e-07 0)
(2.33345e-06 -1.17769e-06 0)
(2.53226e-06 -1.10742e-06 0)
(2.72626e-06 -1.04632e-06 0)
(2.91531e-06 -9.91629e-07 0)
(3.09934e-06 -9.42722e-07 0)
(3.27843e-06 -8.98485e-07 0)
(3.45288e-06 -8.57946e-07 0)
(3.62297e-06 -8.20195e-07 0)
(3.78902e-06 -7.84372e-07 0)
(3.95134e-06 -7.49683e-07 0)
(4.11028e-06 -7.15402e-07 0)
(4.26612e-06 -6.80831e-07 0)
(4.41915e-06 -6.45278e-07 0)
(4.56962e-06 -6.08087e-07 0)
(4.71775e-06 -5.68587e-07 0)
(4.86378e-06 -5.26041e-07 0)
(5.00794e-06 -4.7972e-07 0)
(5.15041e-06 -4.28783e-07 0)
(5.29164e-06 -3.722e-07 0)
(5.43153e-06 -3.09313e-07 0)
(2.24674e-06 -1.28228e-06 0)
(2.44271e-06 -1.21135e-06 0)
(2.6351e-06 -1.14803e-06 0)
(2.82331e-06 -1.09029e-06 0)
(3.00722e-06 -1.03777e-06 0)
(3.18672e-06 -9.89622e-07 0)
(3.36198e-06 -9.45029e-07 0)
(3.53311e-06 -9.03195e-07 0)
(3.70035e-06 -8.63343e-07 0)
(3.86396e-06 -8.2474e-07 0)
(4.02421e-06 -7.86696e-07 0)
(4.18134e-06 -7.48531e-07 0)
(4.33563e-06 -7.09563e-07 0)
(4.4873e-06 -6.69152e-07 0)
(4.63658e-06 -6.26643e-07 0)
(4.78372e-06 -5.81321e-07 0)
(4.92898e-06 -5.32503e-07 0)
(5.07258e-06 -4.7939e-07 0)
(5.21492e-06 -4.21034e-07 0)
(5.35615e-06 -3.56852e-07 0)
(2.17043e-06 -1.38243e-06 0)
(2.36282e-06 -1.31144e-06 0)
(2.55264e-06 -1.24673e-06 0)
(2.739e-06 -1.18675e-06 0)
(2.92178e-06 -1.13134e-06 0)
(3.10073e-06 -1.07989e-06 0)
(3.27586e-06 -1.03175e-06 0)
(3.4472e-06 -9.86242e-07 0)
(3.61491e-06 -9.427e-07 0)
(3.77916e-06 -9.0046e-07 0)
(3.94017e-06 -8.58881e-07 0)
(4.09812e-06 -8.17317e-07 0)
(4.25327e-06 -7.75112e-07 0)
(4.40582e-06 -7.31657e-07 0)
(4.55599e-06 -6.86321e-07 0)
(4.70404e-06 -6.38429e-07 0)
(4.85021e-06 -5.87345e-07 0)
(4.9948e-06 -5.32327e-07 0)
(5.13817e-06 -4.72527e-07 0)
(5.28062e-06 -4.07463e-07 0)
(2.10264e-06 -1.47833e-06 0)
(2.29108e-06 -1.40771e-06 0)
(2.47777e-06 -1.34217e-06 0)
(2.6616e-06 -1.28053e-06 0)
(2.84254e-06 -1.22282e-06 0)
(3.02016e-06 -1.16861e-06 0)
(3.19444e-06 -1.11739e-06 0)
(3.36532e-06 -1.06865e-06 0)
(3.53288e-06 -1.02179e-06 0)
(3.69722e-06 -9.76234e-07 0)
(3.85849e-06 -9.31403e-07 0)
(4.01685e-06 -8.86692e-07 0)
(4.17249e-06 -8.41481e-07 0)
(4.32561e-06 -7.95208e-07 0)
(4.47641e-06 -7.47269e-07 0)
(4.62517e-06 -6.97051e-07 0)
(4.7721e-06 -6.43958e-07 0)
(4.91752e-06 -5.87317e-07 0)
(5.06181e-06 -5.26403e-07 0)
(5.20533e-06 -4.60815e-07 0)
(2.04198e-06 -1.57015e-06 0)
(2.22628e-06 -1.50019e-06 0)
(2.40947e-06 -1.43425e-06 0)
(2.59034e-06 -1.37146e-06 0)
(2.7689e-06 -1.31197e-06 0)
(2.94464e-06 -1.25549e-06 0)
(3.11752e-06 -1.20167e-06 0)
(3.2874e-06 -1.15012e-06 0)
(3.4543e-06 -1.10032e-06 0)
(3.61825e-06 -1.05179e-06 0)
(3.77937e-06 -1.00401e-06 0)
(3.93774e-06 -9.56422e-07 0)
(4.09356e-06 -9.08456e-07 0)
(4.24698e-06 -8.59607e-07 0)
(4.39818e-06 -8.09299e-07 0)
(4.54744e-06 -7.56992e-07 0)
(4.69497e-06 -7.02139e-07 0)
(4.84109e-06 -6.44145e-07 0)
(4.98619e-06 -5.82407e-07 0)
(5.13061e-06 -5.16566e-07 0)
(1.98718e-06 -1.6581e-06 0)
(2.1673e-06 -1.589e-06 0)
(2.34678e-06 -1.52298e-06 0)
(2.52442e-06 -1.45942e-06 0)
(2.70024e-06 -1.39858e-06 0)
(2.87372e-06 -1.34027e-06 0)
(3.04477e-06 -1.28428e-06 0)
(3.21323e-06 -1.23032e-06 0)
(3.37905e-06 -1.17797e-06 0)
(3.54223e-06 -1.1268e-06 0)
(3.70283e-06 -1.07638e-06 0)
(3.86091e-06 -1.0262e-06 0)
(4.01662e-06 -9.75748e-07 0)
(4.1701e-06 -9.24581e-07 0)
(4.32152e-06 -8.72157e-07 0)
(4.47111e-06 -8.18005e-07 0)
(4.61909e-06 -7.61644e-07 0)
(4.76581e-06 -7.02555e-07 0)
(4.91157e-06 -6.40241e-07 0)
(5.05677e-06 -5.74369e-07 0)
(1.93708e-06 -1.74247e-06 0)
(2.11306e-06 -1.67432e-06 0)
(2.28874e-06 -1.60845e-06 0)
(2.46301e-06 -1.54444e-06 0)
(2.63586e-06 -1.48259e-06 0)
(2.80682e-06 -1.42283e-06 0)
(2.97577e-06 -1.36506e-06 0)
(3.1425e-06 -1.30906e-06 0)
(3.30694e-06 -1.2545e-06 0)
(3.46905e-06 -1.20104e-06 0)
(3.62886e-06 -1.14829e-06 0)
(3.7864e-06 -1.09582e-06 0)
(3.94178e-06 -1.04316e-06 0)
(4.09513e-06 -9.89934e-07 0)
(4.24658e-06 -9.35649e-07 0)
(4.39637e-06 -8.79899e-07 0)
(4.54469e-06 -8.22273e-07 0)
(4.69187e-06 -7.62318e-07 0)
(4.83816e-06 -6.99621e-07 0)
(4.98404e-06 -6.33922e-07 0)
(1.89068e-06 -1.82352e-06 0)
(2.06258e-06 -1.75638e-06 0)
(2.23449e-06 -1.6908e-06 0)
(2.40532e-06 -1.62656e-06 0)
(2.57513e-06 -1.56399e-06 0)
(2.74342e-06 -1.5031e-06 0)
(2.91007e-06 -1.44389e-06 0)
(3.07487e-06 -1.38619e-06 0)
(3.23771e-06 -1.32976e-06 0)
(3.39854e-06 -1.27432e-06 0)
(3.55735e-06 -1.21956e-06 0)
(3.71415e-06 -1.16509e-06 0)
(3.86904e-06 -1.1105e-06 0)
(4.02209e-06 -1.05549e-06 0)
(4.17344e-06 -9.99594e-07 0)
(4.3233e-06 -9.42488e-07 0)
(4.47184e-06 -8.83821e-07 0)
(4.61935e-06 -8.23195e-07 0)
(4.76607e-06 -7.6028e-07 0)
(4.9125e-06 -6.94928e-07 0)
(1.84707e-06 -1.90152e-06 0)
(2.01503e-06 -1.83539e-06 0)
(2.18323e-06 -1.77021e-06 0)
(2.35066e-06 -1.7059e-06 0)
(2.5174e-06 -1.64285e-06 0)
(2.68296e-06 -1.58111e-06 0)
(2.84722e-06 -1.52074e-06 0)
(3.00996e-06 -1.46166e-06 0)
(3.17107e-06 -1.40367e-06 0)
(3.33047e-06 -1.34656e-06 0)
(3.48814e-06 -1.29007e-06 0)
(3.64406e-06 -1.23389e-06 0)
(3.79832e-06 -1.17765e-06 0)
(3.95096e-06 -1.12109e-06 0)
(4.1021e-06 -1.06384e-06 0)
(4.25193e-06 -1.0056e-06 0)
(4.40057e-06 -9.46084e-07 0)
(4.54831e-06 -8.84949e-07 0)
(4.69538e-06 -8.21973e-07 0)
(4.84221e-06 -7.57068e-07 0)
(1.80548e-06 -1.97674e-06 0)
(1.96966e-06 -1.91157e-06 0)
(2.13425e-06 -1.84685e-06 0)
(2.29838e-06 -1.78262e-06 0)
(2.46207e-06 -1.71927e-06 0)
(2.6249e-06 -1.6569e-06 0)
(2.78672e-06 -1.59563e-06 0)
(2.94735e-06 -1.53543e-06 0)
(3.10665e-06 -1.47617e-06 0)
(3.26455e-06 -1.41767e-06 0)
(3.421e-06 -1.35974e-06 0)
(3.57596e-06 -1.30211e-06 0)
(3.72951e-06 -1.24447e-06 0)
(3.88166e-06 -1.18663e-06 0)
(4.03252e-06 -1.12824e-06 0)
(4.18223e-06 -1.06907e-06 0)
(4.3309e-06 -1.00888e-06 0)
(4.47879e-06 -9.47386e-07 0)
(4.62612e-06 -8.84483e-07 0)
(4.77326e-06 -8.20062e-07 0)
(1.76522e-06 -2.04942e-06 0)
(1.92578e-06 -1.98516e-06 0)
(2.08692e-06 -1.92094e-06 0)
(2.24784e-06 -1.85687e-06 0)
(2.40856e-06 -1.79337e-06 0)
(2.56868e-06 -1.73055e-06 0)
(2.72811e-06 -1.6686e-06 0)
(2.88663e-06 -1.60753e-06 0)
(3.04413e-06 -1.54725e-06 0)
(3.20051e-06 -1.48763e-06 0)
(3.35571e-06 -1.42852e-06 0)
(3.50969e-06 -1.36971e-06 0)
(3.66248e-06 -1.31093e-06 0)
(3.81409e-06 -1.25203e-06 0)
(3.9646e-06 -1.19272e-06 0)
(4.11413e-06 -1.13279e-06 0)
(4.26274e-06 -1.07207e-06 0)
(4.41073e-06 -1.01035e-06 0)
(4.5582e-06 -9.47597e-07 0)
(4.70557e-06 -8.83707e-07 0)
(1.72566e-06 -2.11976e-06 0)
(1.88278e-06 -2.05638e-06 0)
(2.0406e-06 -1.99265e-06 0)
(2.19842e-06 -1.92882e-06 0)
(2.35628e-06 -1.86526e-06 0)
(2.51381e-06 -1.80217e-06 0)
(2.67093e-06 -1.73975e-06 0)
(2.82741e-06 -1.67803e-06 0)
(2.98315e-06 -1.61697e-06 0)
(3.13804e-06 -1.55647e-06 0)
(3.29199e-06 -1.49643e-06 0)
(3.44497e-06 -1.43665e-06 0)
(3.59699e-06 -1.37695e-06 0)
(3.74804e-06 -1.3172e-06 0)
(3.89817e-06 -1.25714e-06 0)
(4.04747e-06 -1.19662e-06 0)
(4.19599e-06 -1.13551e-06 0)
(4.34401e-06 -1.07367e-06 0)
(4.49156e-06 -1.01108e-06 0)
(4.63906e-06 -9.47763e-07 0)
(1.68611e-06 -2.188e-06 0)
(1.83996e-06 -2.12541e-06 0)
(1.99462e-06 -2.06218e-06 0)
(2.14951e-06 -1.99863e-06 0)
(2.30467e-06 -1.93514e-06 0)
(2.45976e-06 -1.87192e-06 0)
(2.6147e-06 -1.8092e-06 0)
(2.76925e-06 -1.74702e-06 0)
(2.92331e-06 -1.68538e-06 0)
(3.07678e-06 -1.62421e-06 0)
(3.22956e-06 -1.56345e-06 0)
(3.3816e-06 -1.50295e-06 0)
(3.53288e-06 -1.44253e-06 0)
(3.68339e-06 -1.38211e-06 0)
(3.83312e-06 -1.32147e-06 0)
(3.98217e-06 -1.26048e-06 0)
(4.1306e-06 -1.1991e-06 0)
(4.27857e-06 -1.13721e-06 0)
(4.42619e-06 -1.07484e-06 0)
(4.57376e-06 -1.01205e-06 0)
(1.64593e-06 -2.25429e-06 0)
(1.79666e-06 -2.19249e-06 0)
(1.94832e-06 -2.1297e-06 0)
(2.10051e-06 -2.06646e-06 0)
(2.25317e-06 -2.00315e-06 0)
(2.40602e-06 -1.93993e-06 0)
(2.55895e-06 -1.87705e-06 0)
(2.71174e-06 -1.81461e-06 0)
(2.86426e-06 -1.75258e-06 0)
(3.01642e-06 -1.69094e-06 0)
(3.16812e-06 -1.62966e-06 0)
(3.31928e-06 -1.56862e-06 0)
(3.46988e-06 -1.50767e-06 0)
(3.61985e-06 -1.44673e-06 0)
(3.76921e-06 -1.38564e-06 0)
(3.91804e-06 -1.32432e-06 0)
(4.06635e-06 -1.26276e-06 0)
(4.21426e-06 -1.20084e-06 0)
(4.36189e-06 -1.13871e-06 0)
(4.50948e-06 -1.07643e-06 0)
(1.60444e-06 -2.31888e-06 0)
(1.75215e-06 -2.25765e-06 0)
(1.90098e-06 -2.19542e-06 0)
(2.0508e-06 -2.13262e-06 0)
(2.2012e-06 -2.06954e-06 0)
(2.35206e-06 -2.00643e-06 0)
(2.50319e-06 -1.94353e-06 0)
(2.65442e-06 -1.88095e-06 0)
(2.8056e-06 -1.81869e-06 0)
(2.95663e-06 -1.75676e-06 0)
(3.10739e-06 -1.69514e-06 0)
(3.25778e-06 -1.63372e-06 0)
(3.40776e-06 -1.57237e-06 0)
(3.55727e-06 -1.51106e-06 0)
(3.70631e-06 -1.44966e-06 0)
(3.85495e-06 -1.3881e-06 0)
(4.00313e-06 -1.32639e-06 0)
(4.151e-06 -1.26448e-06 0)
(4.29857e-06 -1.20258e-06 0)
(4.44618e-06 -1.14075e-06 0)
(1.56067e-06 -2.38171e-06 0)
(1.70581e-06 -2.32112e-06 0)
(1.85232e-06 -2.25956e-06 0)
(1.99987e-06 -2.19722e-06 0)
(2.14832e-06 -2.13447e-06 0)
(2.29744e-06 -2.07157e-06 0)
(2.44705e-06 -2.00877e-06 0)
(2.59697e-06 -1.9462e-06 0)
(2.74704e-06 -1.88387e-06 0)
(2.89714e-06 -1.82179e-06 0)
(3.04713e-06 -1.75996e-06 0)
(3.19687e-06 -1.6983e-06 0)
(3.34634e-06 -1.6367e-06 0)
(3.4955e-06 -1.57514e-06 0)
(3.64429e-06 -1.51351e-06 0)
(3.79273e-06 -1.4518e-06 0)
(3.94077e-06 -1.38998e-06 0)
(4.08865e-06 -1.32809e-06 0)
(4.23624e-06 -1.26638e-06 0)
(4.38375e-06 -1.20496e-06 0)
(1.51404e-06 -2.44342e-06 0)
(1.65682e-06 -2.38357e-06 0)
(1.80124e-06 -2.32253e-06 0)
(1.94695e-06 -2.26067e-06 0)
(2.0938e-06 -2.19831e-06 0)
(2.24155e-06 -2.13571e-06 0)
(2.39001e-06 -2.07311e-06 0)
(2.53897e-06 -2.01063e-06 0)
(2.68824e-06 -1.94833e-06 0)
(2.83764e-06 -1.88621e-06 0)
(2.98705e-06 -1.82429e-06 0)
(3.13635e-06 -1.76248e-06 0)
(3.28549e-06 -1.70072e-06 0)
(3.43434e-06 -1.63902e-06 0)
(3.5829e-06 -1.57723e-06 0)
(3.73123e-06 -1.51535e-06 0)
(3.87926e-06 -1.45347e-06 0)
(4.02707e-06 -1.39161e-06 0)
(4.17468e-06 -1.32999e-06 0)
(4.32218e-06 -1.26889e-06 0)
(1.46395e-06 -2.50353e-06 0)
(1.60469e-06 -2.44451e-06 0)
(1.74737e-06 -2.38422e-06 0)
(1.89165e-06 -2.32299e-06 0)
(2.03733e-06 -2.26114e-06 0)
(2.18416e-06 -2.19893e-06 0)
(2.33189e-06 -2.13664e-06 0)
(2.48025e-06 -2.0744e-06 0)
(2.62903e-06 -2.01222e-06 0)
(2.77807e-06 -1.95012e-06 0)
(2.92718e-06 -1.8882e-06 0)
(3.07619e-06 -1.82637e-06 0)
(3.22508e-06 -1.76451e-06 0)
(3.37377e-06 -1.70268e-06 0)
(3.52218e-06 -1.64082e-06 0)
(3.6704e-06 -1.57884e-06 0)
(3.81843e-06 -1.5169e-06 0)
(3.96624e-06 -1.45499e-06 0)
(4.11394e-06 -1.3934e-06 0)
(4.26146e-06 -1.33244e-06 0)
(1.06285e-07 -2.12834e-06 0)
(3.20255e-07 -2.09716e-06 0)
(5.38363e-07 -2.03601e-06 0)
(7.62986e-07 -1.9474e-06 0)
(9.95968e-07 -1.8347e-06 0)
(1.23847e-06 -1.70216e-06 0)
(1.49092e-06 -1.55463e-06 0)
(1.75285e-06 -1.39714e-06 0)
(2.02355e-06 -1.23476e-06 0)
(2.30071e-06 -1.07142e-06 0)
(1.03393e-07 -2.1643e-06 0)
(3.11378e-07 -2.13581e-06 0)
(5.22769e-07 -2.07989e-06 0)
(7.39583e-07 -1.99869e-06 0)
(9.63371e-07 -1.89505e-06 0)
(1.19509e-06 -1.77259e-06 0)
(1.43514e-06 -1.63543e-06 0)
(1.68297e-06 -1.48796e-06 0)
(1.9376e-06 -1.33476e-06 0)
(2.19695e-06 -1.17948e-06 0)
(1.00796e-07 -2.20111e-06 0)
(3.03392e-07 -2.17507e-06 0)
(5.08755e-07 -2.12387e-06 0)
(7.18474e-07 -2.04941e-06 0)
(9.33886e-07 -1.95415e-06 0)
(1.15574e-06 -1.84122e-06 0)
(1.38447e-06 -1.71416e-06 0)
(1.61982e-06 -1.57669e-06 0)
(1.86108e-06 -1.43274e-06 0)
(2.10678e-06 -1.28499e-06 0)
(9.84852e-08 -2.23882e-06 0)
(2.96273e-07 -2.21484e-06 0)
(4.96404e-07 -2.16767e-06 0)
(7.00079e-07 -2.09897e-06 0)
(9.08462e-07 -2.01093e-06 0)
(1.12212e-06 -1.90624e-06 0)
(1.34138e-06 -1.7881e-06 0)
(1.56599e-06 -1.65977e-06 0)
(1.79531e-06 -1.52492e-06 0)
(2.02814e-06 -1.38579e-06 0)
(9.63738e-08 -2.2774e-06 0)
(2.89724e-07 -2.25529e-06 0)
(4.85051e-07 -2.21173e-06 0)
(6.83262e-07 -2.14823e-06 0)
(8.85347e-07 -2.06671e-06 0)
(1.09177e-06 -1.9696e-06 0)
(1.3028e-06 -1.85973e-06 0)
(1.51824e-06 -1.73987e-06 0)
(1.73759e-06 -1.61339e-06 0)
(1.95944e-06 -1.48231e-06 0)
(9.43905e-08 -2.31682e-06 0)
(2.83671e-07 -2.29631e-06 0)
(4.74594e-07 -2.2559e-06 0)
(6.67919e-07 -2.19695e-06 0)
(8.64446e-07 -2.12117e-06 0)
(1.06456e-06 -2.03078e-06 0)
(1.26842e-06 -1.92833e-06 0)
(1.4758e-06 -1.81626e-06 0)
(1.68645e-06 -1.69767e-06 0)
(1.89874e-06 -1.57452e-06 0)
(9.24868e-08 -2.35702e-06 0)
(2.77915e-07 -2.33794e-06 0)
(4.64704e-07 -2.30035e-06 0)
(6.53533e-07 -2.24548e-06 0)
(8.45e-07 -2.17486e-06 0)
(1.03948e-06 -2.09053e-06 0)
(1.23706e-06 -1.9948e-06 0)
(1.43746e-06 -1.88985e-06 0)
(1.64059e-06 -1.77846e-06 0)
(1.84469e-06 -1.66268e-06 0)
(9.06863e-08 -2.3979e-06 0)
(2.72398e-07 -2.3801e-06 0)
(4.55273e-07 -2.34502e-06 0)
(6.39912e-07 -2.29376e-06 0)
(8.26762e-07 -2.22776e-06 0)
(1.01613e-06 -2.14885e-06 0)
(1.20811e-06 -2.05918e-06 0)
(1.40235e-06 -1.96075e-06 0)
(1.59891e-06 -1.85601e-06 0)
(1.79596e-06 -1.74707e-06 0)
(8.89324e-08 -2.43942e-06 0)
(2.67014e-07 -2.42277e-06 0)
(4.46133e-07 -2.38992e-06 0)
(6.26779e-07 -2.34191e-06 0)
(8.09329e-07 -2.28008e-06 0)
(9.94028e-07 -2.20606e-06 0)
(1.18096e-06 -2.12187e-06 0)
(1.36972e-06 -2.02937e-06 0)
(1.56049e-06 -1.93069e-06 0)
(1.75143e-06 -1.82802e-06 0)
(8.71657e-08 -2.48149e-06 0)
(2.61699e-07 -2.46586e-06 0)
(4.37164e-07 -2.43502e-06 0)
(6.1397e-07 -2.38994e-06 0)
(7.92436e-07 -2.33185e-06 0)
(9.72803e-07 -2.26225e-06 0)
(1.1551e-06 -2.18302e-06 0)
(1.33893e-06 -2.0959e-06 0)
(1.52452e-06 -2.00278e-06 0)
(1.71012e-06 -1.90583e-06 0)
(8.53801e-08 -2.52401e-06 0)
(2.56405e-07 -2.50931e-06 0)
(4.28239e-07 -2.48029e-06 0)
(6.01301e-07 -2.43785e-06 0)
(7.75834e-07 -2.38315e-06 0)
(9.52098e-07 -2.31756e-06 0)
(1.13009e-06 -2.24282e-06 0)
(1.30942e-06 -2.1606e-06 0)
(1.49033e-06 -2.07255e-06 0)
(1.67118e-06 -1.98081e-06 0)
(8.35921e-08 -2.56688e-06 0)
(2.51082e-07 -2.55303e-06 0)
(4.19258e-07 -2.52568e-06 0)
(5.8861e-07 -2.48563e-06 0)
(7.59315e-07 -2.434e-06 0)
(9.31621e-07 -2.37205e-06 0)
(1.10555e-06 -2.30139e-06 0)
(1.28071e-06 -2.22362e-06 0)
(1.45732e-06 -2.14021e-06 0)
(1.63392e-06 -2.05321e-06 0)
(8.17831e-08 -2.61003e-06 0)
(2.45637e-07 -2.59695e-06 0)
(4.10096e-07 -2.57111e-06 0)
(5.75714e-07 -2.53324e-06 0)
(7.42637e-07 -2.48441e-06 0)
(9.11075e-07 -2.42579e-06 0)
(1.08109e-06 -2.35887e-06 0)
(1.25231e-06 -2.28514e-06 0)
(1.42494e-06 -2.20596e-06 0)
(1.5977e-06 -2.12328e-06 0)
(7.99051e-08 -2.65331e-06 0)
(2.39969e-07 -2.64094e-06 0)
(4.00625e-07 -2.61648e-06 0)
(5.6243e-07 -2.58062e-06 0)
(7.2555e-07 -2.53435e-06 0)
(8.90157e-07 -2.47878e-06 0)
(1.05635e-06 -2.41528e-06 0)
(1.22381e-06 -2.34526e-06 0)
(1.39269e-06 -2.26998e-06 0)
(1.56191e-06 -2.19125e-06 0)
(7.7917e-08 -2.69664e-06 0)
(2.34003e-07 -2.68491e-06 0)
(3.90718e-07 -2.66174e-06 0)
(5.48583e-07 -2.62773e-06 0)
(7.0781e-07 -2.58384e-06 0)
(8.68556e-07 -2.53108e-06 0)
(1.03095e-06 -2.47072e-06 0)
(1.19473e-06 -2.40412e-06 0)
(1.36002e-06 -2.33242e-06 0)
(1.52588e-06 -2.2573e-06 0)
(7.58023e-08 -2.7398e-06 0)
(2.27688e-07 -2.72867e-06 0)
(3.80263e-07 -2.70669e-06 0)
(5.33999e-07 -2.67442e-06 0)
(6.89174e-07 -2.63273e-06 0)
(8.45959e-07 -2.58257e-06 0)
(1.00451e-06 -2.52515e-06 0)
(1.16465e-06 -2.46172e-06 0)
(1.3264e-06 -2.39334e-06 0)
(1.48902e-06 -2.32155e-06 0)
(7.35482e-08 -2.78272e-06 0)
(2.20952e-07 -2.77216e-06 0)
(3.69101e-07 -2.75131e-06 0)
(5.18452e-07 -2.72068e-06 0)
(6.69356e-07 -2.68105e-06 0)
(8.2201e-07 -2.63335e-06 0)
(9.76605e-07 -2.57868e-06 0)
(1.133e-06 -2.51823e-06 0)
(1.29121e-06 -2.45294e-06 0)
(1.45062e-06 -2.38426e-06 0)
(7.11248e-08 -2.82499e-06 0)
(2.13688e-07 -2.81497e-06 0)
(3.57053e-07 -2.7952e-06 0)
(5.01696e-07 -2.76611e-06 0)
(6.48035e-07 -2.72846e-06 0)
(7.9632e-07 -2.6831e-06 0)
(9.46756e-07 -2.63105e-06 0)
(1.09923e-06 -2.57341e-06 0)
(1.25382e-06 -2.51107e-06 0)
(1.41e-06 -2.44532e-06 0)
(6.84737e-08 -2.86678e-06 0)
(2.05727e-07 -2.85729e-06 0)
(3.43856e-07 -2.83855e-06 0)
(4.83388e-07 -2.81097e-06 0)
(6.24782e-07 -2.77524e-06 0)
(7.68352e-07 -2.73214e-06 0)
(9.14327e-07 -2.68261e-06 0)
(1.06268e-06 -2.62768e-06 0)
(1.21345e-06 -2.56818e-06 0)
(1.36631e-06 -2.50524e-06 0)
(6.55642e-08 -2.90696e-06 0)
(1.97008e-07 -2.89799e-06 0)
(3.29405e-07 -2.88029e-06 0)
(4.63352e-07 -2.85421e-06 0)
(5.99373e-07 -2.82037e-06 0)
(7.37834e-07 -2.77952e-06 0)
(8.78987e-07 -2.73252e-06 0)
(1.02295e-06 -2.68028e-06 0)
(1.1697e-06 -2.62361e-06 0)
(1.31912e-06 -2.56349e-06 0)
)


// ************************************************************************* //
