/*--------------------------------*- C++ -*----------------------------------*\
| =========                 |                                                 |
| \\      /  F ield         | foam-extend: Open Source CFD                    |
|  \\    /   O peration     | Version:     4.1                                |
|   \\  /    A nd           | Web:         http://www.foam-extend.org         |
|    \\/     M anipulation  |                                                 |
\*---------------------------------------------------------------------------*/
FoamFile
{
    version     2.0;
    format      ascii;
    class       volScalarField;
    location    "1";
    object      epsilonEq;
}
// * * * * * * * * * * * * * * * * * * * * * * * * * * * * * * * * * * * * * //

dimensions      [0 0 0 0 0 0 0];

internalField   nonuniform List<scalar> 
100000
(
4.13988823685208e-07
4.096466917666787e-07
4.07770452762501e-07
4.087472548764212e-07
4.116978625508857e-07
4.164229710067881e-07
4.22452419238691e-07
4.295163783790457e-07
4.373175813040811e-07
4.456411868036415e-07
4.542939736188568e-07
4.631275087248409e-07
4.720186147890088e-07
4.808717560955959e-07
4.896110391309993e-07
4.981783226511173e-07
5.065291066300158e-07
5.146303734495286e-07
5.224581532097366e-07
5.299958601178376e-07
5.372327701410877e-07
5.441628628365107e-07
5.507838290708819e-07
5.57096306219843e-07
5.631032333333094e-07
5.688093392803136e-07
5.742207209434852e-07
5.793445093594854e-07
5.84188598900519e-07
5.887614226991363e-07
5.930717769704204e-07
5.971286779834404e-07
6.009412479553302e-07
6.045186270570041e-07
6.078698966486346e-07
6.110040213130722e-07
6.139298102419893e-07
6.166558808545176e-07
6.191906296011934e-07
6.215422175794532e-07
6.237185582144522e-07
6.257273042049651e-07
6.275758435857461e-07
6.29271301051552e-07
6.308205364997071e-07
6.322301448351097e-07
6.335064618138431e-07
6.346555702354853e-07
6.356833038849868e-07
6.365952529200705e-07
6.373967727021823e-07
6.380929919626819e-07
6.386888192659283e-07
6.391889496677783e-07
6.395978731197389e-07
6.399198827592962e-07
6.401590822013531e-07
6.403193926446682e-07
6.404045601997562e-07
6.404181637431365e-07
6.403636219937895e-07
6.402442000719376e-07
6.400630157681634e-07
6.398230458346945e-07
6.395271325121463e-07
6.391779897011635e-07
6.387782083444097e-07
6.383302614306974e-07
6.37836509502032e-07
6.372992062319476e-07
6.367205033070716e-07
6.361024546610724e-07
6.354470206891989e-07
6.347560727862978e-07
6.34031397680692e-07
6.332747010930579e-07
6.324876113064916e-07
6.316716827931369e-07
6.3082839993317e-07
6.299591794936683e-07
6.290653745859042e-07
6.281482764407773e-07
6.272091203454444e-07
6.262490809830401e-07
6.252692879781117e-07
6.242708027802428e-07
6.232546704001748e-07
6.222218194545181e-07
6.211732655197066e-07
6.201097116925761e-07
6.190323553612682e-07
6.179412884430018e-07
6.168387839446779e-07
6.157227980791115e-07
6.146005641429792e-07
6.134615949682374e-07
6.123356634510008e-07
6.11173930475372e-07
6.101229999973551e-07
6.088739414743122e-07
4.289219446588699e-07
4.239224083887774e-07
4.213066198932136e-07
4.215284681060393e-07
4.237086835479901e-07
4.276781520889715e-07
4.329745437535165e-07
4.393410609596016e-07
4.464847783155165e-07
4.541947430935102e-07
4.622780811937693e-07
4.705858084081631e-07
4.789928374684677e-07
4.874012817893876e-07
4.957324970457179e-07
5.039255321144304e-07
5.119330767484186e-07
5.197194229160548e-07
5.272580689475394e-07
5.345300847992557e-07
5.415225876706917e-07
5.482275915378478e-07
5.546410060367966e-07
5.607618566645218e-07
5.665916278661239e-07
5.721337376492419e-07
5.773931040603101e-07
5.823757961752254e-07
5.870887524382974e-07
5.915395440463866e-07
5.957361898874705e-07
5.996870082019267e-07
6.034004880750074e-07
6.068851944205488e-07
6.101496927636671e-07
6.132024799815108e-07
6.160519362545235e-07
6.187062917509738e-07
6.211735931597567e-07
6.234616796352056e-07
6.255781703436454e-07
6.275304522107511e-07
6.293256697544695e-07
6.309707223181312e-07
6.324722640977804e-07
6.338367030680713e-07
6.350702023908317e-07
6.361786848159066e-07
6.371678375545062e-07
6.38043116583338e-07
6.388097528226636e-07
6.394727594887073e-07
6.400369387435311e-07
6.405068874985839e-07
6.408870046200847e-07
6.411814986545798e-07
6.413943947829115e-07
6.415295415343598e-07
6.415906174496598e-07
6.415811384709354e-07
6.415044647389562e-07
6.413638066924776e-07
6.411622311483549e-07
6.409026674942943e-07
6.405879138138363e-07
6.402206425875295e-07
6.398034059522031e-07
6.393386407321313e-07
6.388286737352861e-07
6.382757270257229e-07
6.376819225958026e-07
6.370492865616327e-07
6.363797533557179e-07
6.356751700720905e-07
6.349373005936389e-07
6.34167829271913e-07
6.333683645871504e-07
6.325404427016767e-07
6.316855310626944e-07
6.308050312006935e-07
6.299002827426349e-07
6.289725656659268e-07
6.280231062984996e-07
6.270530753494681e-07
6.260636019186963e-07
6.250557593731577e-07
6.240306088044631e-07
6.229891340302839e-07
6.219323943841854e-07
6.208612721773854e-07
6.197770167476443e-07
6.186802924823917e-07
6.175731128523536e-07
6.164553876641547e-07
6.153315469561539e-07
6.141987741696337e-07
6.130676103693484e-07
6.119282002912179e-07
6.107932381546753e-07
6.096490622649116e-07
4.438482456569465e-07
4.381977233738988e-07
4.348520711022538e-07
4.343302664213867e-07
4.357509647393711e-07
4.389740891096052e-07
4.435443856729743e-07
4.492178629987161e-07
4.557059952625909e-07
4.628020007765899e-07
4.703137054712463e-07
4.780919495474172e-07
4.860100872515945e-07
4.939682039261358e-07
5.018851663053897e-07
5.096974219598611e-07
5.173550232602237e-07
5.248197085622934e-07
5.320625392363814e-07
5.390623119184545e-07
5.458040409493522e-07
5.522778114632915e-07
5.584777744598943e-07
5.644013566218183e-07
5.700485952996187e-07
5.754215997535446e-07
5.805241071455677e-07
5.853611179678565e-07
5.899386060841587e-07
5.942632755544555e-07
5.983423580815213e-07
6.021834589218978e-07
6.057944268853026e-07
6.091832452193692e-07
6.123579485471263e-07
6.153265547199302e-07
6.180970102797632e-07
6.206771482024841e-07
6.230746528399332e-07
6.252970352271549e-07
6.273516149021396e-07
6.292455026830902e-07
6.309855907326544e-07
6.325785489592114e-07
6.340308205814383e-07
6.353486184732406e-07
6.365379269278012e-07
6.376045050298643e-07
6.385538887726168e-07
6.393913940146135e-07
6.401221225168064e-07
6.407509685165119e-07
6.412826240163477e-07
6.417215836610802e-07
6.420721516028472e-07
6.423384487492196e-07
6.42524418841414e-07
6.426338347065571e-07
6.426703045411303e-07
6.426372786660769e-07
6.425380560301228e-07
6.423757902496523e-07
6.421534952867425e-07
6.418740510080312e-07
6.415402090652344e-07
6.41154598690844e-07
6.407197318152433e-07
6.402380076289399e-07
6.397117174995738e-07
6.391430502423102e-07
6.385340969140711e-07
6.378868547916143e-07
6.372032311797002e-07
6.36485047721222e-07
6.357340446583304e-07
6.349518843556991e-07
6.341401547284752e-07
6.333003729662219e-07
6.324339892191982e-07
6.315423892383164e-07
6.306268982220164e-07
6.296887839137262e-07
6.287292619834716e-07
6.277494952764541e-07
6.267506056169628e-07
6.2573366568785e-07
6.246997306016312e-07
6.23649793862806e-07
6.225848949603169e-07
6.215059478684428e-07
6.204141038083833e-07
6.193101137419928e-07
6.181955683610471e-07
6.170706483516714e-07
6.159381650202931e-07
6.147963094040354e-07
6.136498739122837e-07
6.12493541792649e-07
6.113187248236973e-07
6.101405395162451e-07
4.587641449818993e-07
4.524685462733529e-07
4.484020512387589e-07
4.471471851848639e-07
4.478187093990159e-07
4.503044845249223e-07
4.541555983682116e-07
4.591406164667239e-07
4.64975421305507e-07
4.714576131487587e-07
4.783960180196872e-07
4.856416457802412e-07
4.930666181198449e-07
5.005692813783665e-07
5.080662699950414e-07
5.154916433713651e-07
5.227929812648678e-07
5.299296002706266e-07
5.368702290731217e-07
5.435914671294056e-07
5.500762819955928e-07
5.563128697283677e-07
5.622936495970347e-07
5.680144678547478e-07
5.734739250160218e-07
5.786728240639031e-07
5.836137204888378e-07
5.883005464720646e-07
5.927383039810037e-07
5.969328186770863e-07
6.008905314001945e-07
6.046183276868313e-07
6.081234014067566e-07
6.114131449841506e-07
6.144950571358851e-07
6.173766656006868e-07
6.200654713621927e-07
6.225689040041756e-07
6.248942789676852e-07
6.270487684855e-07
6.290393837384694e-07
6.308729546164034e-07
6.32556114595128e-07
6.340952956111829e-07
6.354967234968824e-07
6.36766411681923e-07
6.379101600662058e-07
6.389335577803419e-07
6.398419846910279e-07
6.406406125822545e-07
6.413344097154063e-07
6.419281468227742e-07
6.424264018698048e-07
6.428335638717815e-07
6.431538387188043e-07
6.433912561978695e-07
6.43549675659913e-07
6.436327913854671e-07
6.436441383188815e-07
6.435870986261456e-07
6.434649078452846e-07
6.432806604114894e-07
6.430373150277164e-07
6.427377000062827e-07
6.42384518856234e-07
6.419803557946726e-07
6.415276806250815e-07
6.410288530877279e-07
6.404861276581378e-07
6.399016587237391e-07
6.392775051140212e-07
6.38615633813683e-07
6.379179237644847e-07
6.371861702021876e-07
6.36422088720581e-07
6.356273186159324e-07
6.348034263698782e-07
6.339519094819181e-07
6.33074199993794e-07
6.32171667159497e-07
6.312456211954345e-07
6.302973168074104e-07
6.293279577094843e-07
6.28338697549969e-07
6.273306482004554e-07
6.263048776151271e-07
6.252624265793806e-07
6.242042891724359e-07
6.231314605179261e-07
6.220448655316667e-07
6.209454844832579e-07
6.198341311107633e-07
6.187117662487454e-07
6.17578949746185e-07
6.164363252669938e-07
6.152841668333677e-07
6.141203214229125e-07
6.129496063225066e-07
6.11743726726739e-07
6.105568879727169e-07
4.736658907442189e-07
4.667307964700762e-07
4.619519404969894e-07
4.599739975970607e-07
4.599061994612164e-07
4.616633331736155e-07
4.648021253875956e-07
4.69103414332187e-07
4.742874547797941e-07
4.801563963668315e-07
4.865203195963649e-07
4.932307049592559e-07
5.001587403939637e-07
5.072013105422422e-07
5.142730576463291e-07
5.213058577679307e-07
5.282449848471173e-07
5.350474653371275e-07
5.416798000009914e-07
5.481164702731937e-07
5.543384562242353e-07
5.603321091039449e-07
5.66088147039777e-07
5.716008539675863e-07
5.768674072475594e-07
5.81887314212057e-07
5.866619466383151e-07
5.911941640366189e-07
5.954879985634766e-07
5.995483921868349e-07
6.033809825694309e-07
6.069919295541438e-07
6.103877675015487e-07
6.135752865518494e-07
6.165614386297561e-07
6.193532559967909e-07
6.219577868268897e-07
6.243820459519343e-07
6.266329715203333e-07
6.287173919915751e-07
6.306420026811845e-07
6.324133434507695e-07
6.340377828851846e-07
6.355215101059021e-07
6.368705269530084e-07
6.380906407187384e-07
6.391874620744274e-07
6.401664057519113e-07
6.41032690237325e-07
6.417913382142724e-07
6.42447180494407e-07
6.430048606267003e-07
6.434688383703004e-07
6.438433932018826e-07
6.441326296492582e-07
6.443404833214543e-07
6.444707258972903e-07
6.445269701694974e-07
6.44512675275519e-07
6.444311526548651e-07
6.442855718922922e-07
6.440789659822157e-07
6.438142362892658e-07
6.434941575139934e-07
6.431213830120585e-07
6.426984500883886e-07
6.422277846947426e-07
6.417117055861497e-07
6.411524288332999e-07
6.405520727609162e-07
6.399126624267877e-07
6.392361332581224e-07
6.385243346254485e-07
6.377790340030806e-07
6.370019209781697e-07
6.361946105224712e-07
6.353586463133596e-07
6.344955044695529e-07
6.336065969715014e-07
6.326932742843842e-07
6.317568287164728e-07
6.307984979739945e-07
6.298194686873505e-07
6.288208778042074e-07
6.278038176962636e-07
6.267693366636622e-07
6.257184453477628e-07
6.246521091104895e-07
6.235712627118156e-07
6.224767864529185e-07
6.213695253479796e-07
6.202502405322735e-07
6.19119590125362e-07
6.179781693146045e-07
6.168260033690577e-07
6.156639275729073e-07
6.144887268397559e-07
6.133079993798615e-07
6.120911381461467e-07
6.109049354378876e-07
4.885498381787028e-07
4.809805179966743e-07
4.754972780801541e-07
4.728056908291777e-07
4.720079796895591e-07
4.730449121018835e-07
4.754781746245806e-07
4.791005839911595e-07
4.836366952130034e-07
4.888933282931024e-07
4.946820324271544e-07
5.008550245541282e-07
5.072828298474221e-07
5.138611305662015e-07
5.205028054265915e-07
5.271377435840119e-07
5.337090771725716e-07
5.401716743357538e-07
5.464899135223514e-07
5.526362414571685e-07
5.585897119330062e-07
5.643348745346828e-07
5.698607824512636e-07
5.751601847241613e-07
5.802288453271004e-07
5.850649830339424e-07
5.896687962873347e-07
5.94042071439383e-07
5.981878640362604e-07
6.021102311420111e-07
6.058140043780904e-07
6.09304607641886e-07
6.125879069709469e-07
6.156700860159245e-07
6.185575427079531e-07
6.212568028486656e-07
6.237744538677769e-07
6.261170905309894e-07
6.282912657161556e-07
6.303034549529803e-07
6.321600313001213e-07
6.338672391890916e-07
6.35431175173628e-07
6.368577785264204e-07
6.381528219080977e-07
6.393219015683782e-07
6.403704331721453e-07
6.413036515475184e-07
6.421266095177542e-07
6.428441766559176e-07
6.434610417081218e-07
6.43981716702806e-07
6.444105397383474e-07
6.44751677378637e-07
6.450091292143737e-07
6.451867334538122e-07
6.452881712323696e-07
6.453169709497081e-07
6.452765131171832e-07
6.451700359579922e-07
6.450006407942344e-07
6.44771296894786e-07
6.444848460643035e-07
6.4414400727657e-07
6.437513817775834e-07
6.433094581991752e-07
6.428206169515137e-07
6.422871340555125e-07
6.417111854967499e-07
6.410948520666732e-07
6.404401236347683e-07
6.397489025594069e-07
6.390230071454609e-07
6.382641757237513e-07
6.374740705210863e-07
6.36654280771631e-07
6.358063258853362e-07
6.349316590669921e-07
6.340316704983206e-07
6.331076898062552e-07
6.32160989022735e-07
6.311927860651454e-07
6.302042472329855e-07
6.291964890096394e-07
6.281705801784508e-07
6.271275448782023e-07
6.260683598684054e-07
6.249939586600264e-07
6.239052169144838e-07
6.228029759536666e-07
6.216879665651264e-07
6.205609353614137e-07
6.19422313609689e-07
6.182728575425588e-07
6.171121378274488e-07
6.159418642616032e-07
6.147578088270716e-07
6.135710054436106e-07
6.12346620165344e-07
6.111658931327045e-07
5.034123167817454e-07
4.952137882424194e-07
4.890337219624002e-07
4.856374363125255e-07
4.841188173276074e-07
4.844437346509119e-07
4.861781890023582e-07
4.891266674939384e-07
4.930179278110201e-07
4.97663539692188e-07
5.028766970745309e-07
5.085105891086369e-07
5.144353242671968e-07
5.205456226057777e-07
5.267528158200648e-07
5.32984993308662e-07
5.391833073167787e-07
5.453006012881883e-07
5.512992347236483e-07
5.571496995248895e-07
5.628291920458435e-07
5.683205125507529e-07
5.736110791506349e-07
5.786921318055939e-07
5.835580446122164e-07
5.882057562821784e-07
5.926342945263436e-07
5.968443789939352e-07
6.008380900993076e-07
6.046185934085098e-07
6.08189909255005e-07
6.115567233889177e-07
6.147242273794446e-07
6.176979888361992e-07
6.204838449270269e-07
6.230878097829709e-07
6.255160020039768e-07
6.277745874868728e-07
6.298697276203578e-07
6.31807539175896e-07
6.335940653427155e-07
6.352352478977637e-07
6.36736905935032e-07
6.381047235492356e-07
6.393442379851866e-07
6.404608285371412e-07
6.414597112160404e-07
6.423459365443161e-07
6.431243866837518e-07
6.437997734305386e-07
6.443766396285593e-07
6.448593619720323e-07
6.452521529795634e-07
6.455590628222246e-07
6.457839829930659e-07
6.45930651068995e-07
6.460026545275045e-07
6.460034346085478e-07
6.45936290627043e-07
6.458043850821494e-07
6.456107485916487e-07
6.453582843330198e-07
6.450497723544573e-07
6.446878739621149e-07
6.442751364380088e-07
6.438139977945499e-07
6.433067910043246e-07
6.427557476972548e-07
6.421630022391464e-07
6.415305963058894e-07
6.408604830155964e-07
6.401545302030296e-07
6.394145236766792e-07
6.386421711041e-07
6.378391057465774e-07
6.370068894562467e-07
6.361470156824534e-07
6.352609129359228e-07
6.343499477187604e-07
6.334154267301519e-07
6.324585993975307e-07
6.314806612024548e-07
6.304827553331131e-07
6.294659744992805e-07
6.284313611682748e-07
6.273799121728011e-07
6.263125710655719e-07
6.252302394131207e-07
6.241337483471655e-07
6.230239077588084e-07
6.219013885778369e-07
6.207669336102833e-07
6.196209018436148e-07
6.184641650288614e-07
6.172962119407021e-07
6.161192473275007e-07
6.14928760029269e-07
6.137377281266081e-07
6.125077881241871e-07
6.113319623269912e-07
5.182496839456309e-07
5.094267534381161e-07
5.025570420869282e-07
4.984645727429401e-07
4.962336859931685e-07
4.958545393595939e-07
4.968968364565018e-07
4.991764139796557e-07
5.024261129696506e-07
5.06462303238736e-07
5.110999665629963e-07
5.161934696681912e-07
5.216127255637415e-07
5.272517100348774e-07
5.330204156009405e-07
5.388453166099645e-07
5.446657373310562e-07
5.5043262275886e-07
5.561064240892785e-07
5.616557649613659e-07
5.670560446134375e-07
5.722883672145372e-07
5.773385591698798e-07
5.821963755991711e-07
5.868548183026475e-07
5.913095637337528e-07
5.955584782197576e-07
5.996012153253069e-07
6.03438881249196e-07
6.070737516618842e-07
6.105090321163311e-07
6.137486635578012e-07
6.167971586258007e-07
6.196594646424533e-07
6.223408504967129e-07
6.248468106948789e-07
6.271829893444075e-07
6.293551176615572e-07
6.313689578810619e-07
6.332302607548718e-07
6.349447339650161e-07
6.365180110590906e-07
6.379556272123532e-07
6.392630051007209e-07
6.404454414905685e-07
6.415080939291761e-07
6.42455973489806e-07
6.432939414476286e-07
6.440267050461512e-07
6.44658814024757e-07
6.451946610758327e-07
6.456384838265499e-07
6.459943657571568e-07
6.462662370992698e-07
6.464578778218414e-07
6.465729217756689e-07
6.46614859916069e-07
6.465870436009631e-07
6.464926883164028e-07
6.463348782362762e-07
6.461165708153672e-07
6.458406009571093e-07
6.45509684895644e-07
6.451264241636224e-07
6.446933100600171e-07
6.442127281815079e-07
6.436869623408992e-07
6.431181979992391e-07
6.425085261764341e-07
6.41859947853035e-07
6.411743778808781e-07
6.404536480444445e-07
6.396995101774902e-07
6.389136399070464e-07
6.38097640166966e-07
6.372530439646923e-07
6.363813172192568e-07
6.354838621163635e-07
6.345620198293675e-07
6.336170724949697e-07
6.326502453736819e-07
6.316627100854418e-07
6.306555856880814e-07
6.2962994064428e-07
6.285867916462606e-07
6.27527109828184e-07
6.264518095679318e-07
6.253617663267056e-07
6.242577778527713e-07
6.231406362276661e-07
6.220109766755873e-07
6.208695605517046e-07
6.197167094436193e-07
6.18553425848323e-07
6.173791286966728e-07
6.161964715761593e-07
6.150005219285013e-07
6.138060217045943e-07
6.125705316397013e-07
6.11398678709387e-07
5.330582990594602e-07
5.236156043279251e-07
5.160631078286294e-07
5.112825863951308e-07
5.083477440954336e-07
5.072722671990152e-07
5.076289825713646e-07
5.092447551420856e-07
5.118563718021354e-07
5.152850278806082e-07
5.193476048995174e-07
5.238998188414813e-07
5.288115904707644e-07
5.339763583437872e-07
5.39302964096088e-07
5.447164383059325e-07
5.501544331457224e-07
5.555661219397294e-07
5.60910147297188e-07
5.661533540200811e-07
5.712694155998536e-07
5.762377884885088e-07
5.810427469723113e-07
5.856725960053609e-07
5.9011898749186e-07
5.94376348088101e-07
5.984413934853791e-07
6.023127195876348e-07
6.059904600307421e-07
6.09475998714613e-07
6.127717258813525e-07
6.158808359393547e-07
6.188071569205116e-07
6.215550095690952e-07
6.24129090013798e-07
6.265343680065723e-07
6.28776006010273e-07
6.308592936155076e-07
6.327895883131943e-07
6.345722692536971e-07
6.362127021515693e-07
6.377162059556037e-07
6.390880265470349e-07
6.403333200132811e-07
6.414571371174467e-07
6.424644085526097e-07
6.433599358711433e-07
6.441483863893508e-07
6.448342878368358e-07
6.454220238666369e-07
6.459158332450639e-07
6.463198106978246e-07
6.466379069648556e-07
6.468739289184885e-07
6.470315418152849e-07
6.471142728108108e-07
6.471255134942682e-07
6.470685224846706e-07
6.46946428703976e-07
6.467622355808063e-07
6.465188251661009e-07
6.462189618137291e-07
6.458652957215135e-07
6.454603666240681e-07
6.450066079278527e-07
6.445063509412928e-07
6.439618285458946e-07
6.433751783870276e-07
6.427484465332488e-07
6.42083591654751e-07
6.413824887472739e-07
6.406469320013171e-07
6.398786377391028e-07
6.390792480254318e-07
6.382503340420486e-07
6.373933986404161e-07
6.36509878947974e-07
6.356011495638459e-07
6.346685250786433e-07
6.337132618437367e-07
6.327365598725358e-07
6.317395660127356e-07
6.307233746457011e-07
6.296890299059315e-07
6.286375238812418e-07
6.275698041614682e-07
6.264867608845612e-07
6.253892492786934e-07
6.242780449015397e-07
6.23153930531215e-07
6.220175251888717e-07
6.208696129412217e-07
6.197105058105338e-07
6.185413084690468e-07
6.173613943720289e-07
6.161737419941886e-07
6.149729902830674e-07
6.137753515459101e-07
6.125343111167401e-07
6.113656557691722e-07
5.47834536982282e-07
5.377765763520046e-07
5.29547872326688e-07
5.240870901455606e-07
5.204563135140199e-07
5.18692037870953e-07
5.183696727323645e-07
5.193267948190983e-07
5.213039827660368e-07
5.241272515852996e-07
5.276154745165524e-07
5.316258690933169e-07
5.360285389199917e-07
5.40716572118463e-07
5.455978442862815e-07
5.505961042410059e-07
5.55647472865234e-07
5.606994818806394e-07
5.65709071306275e-07
5.706413882415307e-07
5.754684497531327e-07
5.801681227958632e-07
5.847231713477485e-07
5.891204802584049e-07
5.933503770966576e-07
5.974060584060528e-07
6.012830997915104e-07
6.049790453246234e-07
6.084930618371371e-07
6.118256443415821e-07
6.149783657177239e-07
6.17953670588897e-07
6.207547001594527e-07
6.233851451315889e-07
6.258491231154148e-07
6.281510731308887e-07
6.302956708869533e-07
6.322877591163035e-07
6.341322844789549e-07
6.358342483561835e-07
6.373986690094344e-07
6.388305453565665e-07
6.401348283411616e-07
6.413164023156638e-07
6.423800672354654e-07
6.433305218798025e-07
6.44172353369723e-07
6.449100307263479e-07
6.455478980929482e-07
6.460901689671483e-07
6.465409242401239e-07
6.469041119712986e-07
6.471835466097053e-07
6.473829084357751e-07
6.475057449531906e-07
6.475554735466545e-07
6.475353834473342e-07
6.474486378457125e-07
6.472982766077583e-07
6.470872199298681e-07
6.468182720650622e-07
6.464941246387537e-07
6.46117359742666e-07
6.456904532561171e-07
6.452157787054985e-07
6.446956112504404e-07
6.441321310809493e-07
6.435274263330406e-07
6.428834964996221e-07
6.422022564084669e-07
6.414855397541785e-07
6.407351017584434e-07
6.399526218769127e-07
6.39139707196349e-07
6.382978956794074e-07
6.374286586344101e-07
6.365334031698322e-07
6.356134751926152e-07
6.346701617417193e-07
6.337046926323041e-07
6.327182421762103e-07
6.317119323386387e-07
6.306868332428546e-07
6.296439656204832e-07
6.285842985651337e-07
6.275087583669987e-07
6.264182143023174e-07
6.253135053284508e-07
6.241953905557479e-07
6.23064648598433e-07
6.219218878594446e-07
6.207679155530853e-07
6.196030321070178e-07
6.18428429124811e-07
6.172434102104491e-07
6.160512328196633e-07
6.148460511773862e-07
6.136454645525691e-07
6.123989159595015e-07
6.112330336627156e-07
5.625747767867986e-07
5.519059412040637e-07
5.430073716670359e-07
5.368738213401232e-07
5.325548647462321e-07
5.301091406120235e-07
5.291141269849019e-07
5.294177967407089e-07
5.307643624894099e-07
5.329846345828731e-07
5.358995402913662e-07
5.393679277948571e-07
5.432602464179278e-07
5.47469401608496e-07
5.519024672933762e-07
5.564820723044885e-07
5.611429456964941e-07
5.658310952615408e-07
5.70501863003381e-07
5.751187865493251e-07
5.796522948336644e-07
5.840787194649719e-07
5.883793602347783e-07
5.925397182733331e-07
5.965488211307798e-07
6.003986528693601e-07
6.040836644779413e-07
6.076003587440374e-07
6.109469399507815e-07
6.141230160935484e-07
6.171293442968803e-07
6.199676190090489e-07
6.226402915554227e-07
6.25150418607912e-07
6.275015353524396e-07
6.296975457821693e-07
6.317426337081737e-07
6.336411895808355e-07
6.353977440526397e-07
6.370169152913232e-07
6.385033684793196e-07
6.398617774448515e-07
6.41096793355529e-07
6.422130236319225e-07
6.432150123221234e-07
6.441072216645733e-07
6.448940199681653e-07
6.455796736863377e-07
6.461683392578496e-07
6.466640559910048e-07
6.470707430062351e-07
6.473921981580451e-07
6.476320963246227e-07
6.477939879064428e-07
6.478812994341676e-07
6.478973355707739e-07
6.478452804325544e-07
6.477281990684844e-07
6.475490397074113e-07
6.473106369450356e-07
6.470157149526237e-07
6.466668903652095e-07
6.462666750359361e-07
6.458174790424801e-07
6.453216141966574e-07
6.447812976955176e-07
6.441986552433646e-07
6.435757237481569e-07
6.429144544873942e-07
6.422167168559831e-07
6.414843017148903e-07
6.40718923887041e-07
6.399222246806819e-07
6.390957750674628e-07
6.382410786953077e-07
6.373595742037852e-07
6.364526375991586e-07
6.355215851381726e-07
6.345676754590685e-07
6.33592111135371e-07
6.325960403336695e-07
6.315805600047781e-07
6.305467162776295e-07
6.294955072728897e-07
6.284278805586425e-07
6.273447431286514e-07
6.262469461854208e-07
6.251353149603658e-07
6.240105949499417e-07
6.228735621990899e-07
6.217248159828891e-07
6.205651826297201e-07
6.193949469785191e-07
6.182153693724079e-07
6.17025669583486e-07
6.15829345536623e-07
6.146200503731974e-07
6.134167038476401e-07
6.121648168885589e-07
6.110015108584482e-07
5.772754197526472e-07
5.660000121192323e-07
5.56437712560122e-07
5.496386211430878e-07
5.446390025537642e-07
5.415190123840605e-07
5.398577169840423e-07
5.39513175320795e-07
5.402330636055376e-07
5.41852948499332e-07
5.441958602079488e-07
5.471223806723003e-07
5.505034437702033e-07
5.542319329078241e-07
5.582142742881715e-07
5.623721214934246e-07
5.666389482156395e-07
5.709593584254892e-07
5.752871951804543e-07
5.795844699086054e-07
5.838200957644974e-07
5.879689282975615e-07
5.920108471233859e-07
5.959300041261819e-07
5.997141562551778e-07
6.033540972646912e-07
6.068431677052446e-07
6.101768390069979e-07
6.133523606597487e-07
6.163684583798363e-07
6.192250750593377e-07
6.219231545364749e-07
6.24464456791838e-07
6.268514020249322e-07
6.290869395107492e-07
6.311744342417629e-07
6.331175739535717e-07
6.349202918817919e-07
6.365866973857292e-07
6.381210206530258e-07
6.395275691405902e-07
6.408106865364497e-07
6.419747191748878e-07
6.430239927372698e-07
6.439627907224436e-07
6.447953344151469e-07
6.455257691195878e-07
6.461581545054137e-07
6.466964551098728e-07
6.471445322048519e-07
6.475061396105195e-07
6.47784921484499e-07
6.47984409710835e-07
6.481080216325747e-07
6.481590598061576e-07
6.481407132091427e-07
6.480560580223574e-07
6.479080585733028e-07
6.476995690022716e-07
6.474333358955857e-07
6.471120010241602e-07
6.467381038398015e-07
6.463140838748068e-07
6.45842283418112e-07
6.45324950683738e-07
6.447642431367032e-07
6.441622303178906e-07
6.435208963087394e-07
6.428421426605008e-07
6.421277918822737e-07
6.413795905470734e-07
6.405992116095957e-07
6.397882567885811e-07
6.389482596218987e-07
6.380806883416473e-07
6.371869479957727e-07
6.362683826286531e-07
6.353262780662035e-07
6.343618639715729e-07
6.333763152876959e-07
6.323707538209744e-07
6.31346251504177e-07
6.303038307509794e-07
6.292444675174362e-07
6.281690885841017e-07
6.270785824188461e-07
6.259737831873807e-07
6.248555035706406e-07
6.237244761317425e-07
6.225814736245592e-07
6.214270849920922e-07
6.202621504326863e-07
6.190869330216229e-07
6.179027504323535e-07
6.167087254750495e-07
6.155085788801033e-07
6.142954539351681e-07
6.130895552048563e-07
6.118325793540961e-07
6.10671788183737e-07
5.919328712507761e-07
5.800551289356235e-07
5.698350637561803e-07
5.623774255818398e-07
5.567044535083695e-07
5.529172310758171e-07
5.505959581699087e-07
5.496084796283893e-07
5.497057650121422e-07
5.507280773216168e-07
5.525005803047923e-07
5.548856821751897e-07
5.577549199821108e-07
5.610012941172437e-07
5.645307303812545e-07
5.682640484124752e-07
5.721335922010027e-07
5.760826741042201e-07
5.800637394306551e-07
5.840373598437074e-07
5.879710015543403e-07
5.918381006001898e-07
5.95617164796524e-07
5.992910353344799e-07
6.028462271730508e-07
6.062723656862021e-07
6.09561698107982e-07
6.127086770830279e-07
6.157096057515135e-07
6.18562332899918e-07
6.212659901323918e-07
6.238207715016961e-07
6.262277448334591e-07
6.284886922996597e-07
6.30605975056271e-07
6.325824155343721e-07
6.344212010740487e-07
6.361258035990492e-07
6.37699907018422e-07
6.391473489779899e-07
6.404720745422123e-07
6.416780925534965e-07
6.427694397844175e-07
6.437501556926119e-07
6.446242590037823e-07
6.453957257617053e-07
6.460684739298146e-07
6.466463523465645e-07
6.471331298772859e-07
6.475324860293609e-07
6.478480056965474e-07
6.480831759796773e-07
6.482413825631892e-07
6.483259065326339e-07
6.483399234110545e-07
6.48286503693026e-07
6.481686129776107e-07
6.479891122710527e-07
6.477507591073825e-07
6.474562096919731e-07
6.471080211891392e-07
6.467086537827087e-07
6.462604726605064e-07
6.457657503363786e-07
6.452266695034256e-07
6.446453260791121e-07
6.440237317377838e-07
6.433638160962871e-07
6.426674294094244e-07
6.41936345879053e-07
6.411722665394374e-07
6.403768213061915e-07
6.395515711275127e-07
6.386980109101587e-07
6.378175723109807e-07
6.369116257445751e-07
6.359814824068699e-07
6.350283969378765e-07
6.340535693921934e-07
6.330581466307457e-07
6.320432238319355e-07
6.310098478735915e-07
6.299590176030587e-07
6.28891687045744e-07
6.278087626655597e-07
6.267111149486125e-07
6.255995611860321e-07
6.244749009639794e-07
6.233378540174123e-07
6.221891872532067e-07
6.210294773107491e-07
6.198595735977347e-07
6.186797118228817e-07
6.174912589558751e-07
6.162932333012937e-07
6.150895675811725e-07
6.138728960905184e-07
6.126646771182234e-07
6.114029141888372e-07
6.102446483645371e-07
6.065435567944358e-07
5.940676669383833e-07
5.831956563845752e-07
5.750862640952594e-07
5.687470553385369e-07
5.64299499018957e-07
5.613244996122037e-07
5.59699388281987e-07
5.591782595744515e-07
5.596060077329761e-07
5.608099382555881e-07
5.626543566504131e-07
5.650115124523364e-07
5.677746522303539e-07
5.70849332913096e-07
5.741556685708239e-07
5.77624996991038e-07
5.811994510752115e-07
5.848301740633543e-07
5.884763800787359e-07
5.921041595517809e-07
5.956855881870226e-07
5.991978498457698e-07
6.026225136339262e-07
6.059448832097611e-07
6.091534394195728e-07
6.122393544885328e-07
6.151960762344906e-07
6.180189714315242e-07
6.207050182126135e-07