# Time dispX dispY dispZ forceX forceY forceZ
0 0 0 0 0 0 0
1 1.066801354192541e-06 -8.206855253576091e-08 1.551138599250647e-23 100000.0000000004 -1.86703069031245e-05 8.016201537376593e-20
