/*--------------------------------*- C++ -*----------------------------------*\
| =========                 |                                                 |
| \\      /  F ield         | foam-extend: Open Source CFD                    |
|  \\    /   O peration     | Version:     4.1                                |
|   \\  /    A nd           | Web:         http://www.foam-extend.org         |
|    \\/     M anipulation  |                                                 |
\*---------------------------------------------------------------------------*/
FoamFile
{
    version     2.0;
    format      ascii;
    class       vectorField;
    location    "1";
    object      convergedD_cells;
}
// * * * * * * * * * * * * * * * * * * * * * * * * * * * * * * * * * * * * * //


100000
(
(5.74627e-07 -2.38369e-07 -0.04131)
(5.69944e-07 -2.35168e-07 -0.0393258)
(5.65466e-07 -2.32115e-07 -0.0373693)
(5.61187e-07 -2.29216e-07 -0.0355202)
(5.57099e-07 -2.26459e-07 -0.0337497)
(5.53193e-07 -2.2384e-07 -0.0320561)
(5.49461e-07 -2.2135e-07 -0.0304345)
(5.45896e-07 -2.18985e-07 -0.0288831)
(5.4249e-07 -2.16739e-07 -0.0274011)
(5.39238e-07 -2.14605e-07 -0.0259819)
(5.36133e-07 -2.1258e-07 -0.0246212)
(5.33169e-07 -2.10658e-07 -0.0233172)
(5.3034e-07 -2.08834e-07 -0.0220699)
(5.27641e-07 -2.07104e-07 -0.0208733)
(5.25067e-07 -2.05464e-07 -0.0193297)
(5.22612e-07 -2.0391e-07 -0.0168318)
(5.20273e-07 -2.02439e-07 -0.0144376)
(5.18044e-07 -2.01046e-07 -0.0121425)
(5.15922e-07 -1.99729e-07 -0.00994457)
(5.13902e-07 -1.98483e-07 -0.00783538)
(5.11981e-07 -1.97307e-07 -0.00581863)
(5.10155e-07 -1.96197e-07 -0.00388666)
(5.0842e-07 -1.95151e-07 -0.0020351)
(5.06773e-07 -1.94165e-07 -0.000263814)
(5.05211e-07 -1.93238e-07 0.00143196)
(5.03731e-07 -1.92367e-07 0.00305891)
(5.0233e-07 -1.91549e-07 0.00462023)
(5.01005e-07 -1.90783e-07 0.00611676)
(4.99754e-07 -1.90066e-07 0.00755055)
(4.98574e-07 -1.89397e-07 0.0089233)
(4.97461e-07 -1.88773e-07 0.0102386)
(4.96416e-07 -1.88193e-07 0.0114978)
(4.95434e-07 -1.87656e-07 0.0127014)
(4.94513e-07 -1.87158e-07 0.0138562)
(4.93652e-07 -1.86699e-07 0.0149607)
(4.92848e-07 -1.86278e-07 0.0160152)
(4.92101e-07 -1.85892e-07 0.017023)
(4.91408e-07 -1.85541e-07 0.0179869)
(4.90766e-07 -1.85223e-07 0.0189079)
(4.90175e-07 -1.84937e-07 0.0197872)
(4.89633e-07 -1.84682e-07 0.0206281)
(4.89138e-07 -1.84457e-07 0.0214314)
(4.88689e-07 -1.84259e-07 0.0221966)
(4.88285e-07 -1.8409e-07 0.0229254)
(4.87923e-07 -1.83946e-07 0.0236193)
(4.87603e-07 -1.83828e-07 0.024279)
(4.87323e-07 -1.83734e-07 0.0249052)
(4.87082e-07 -1.83664e-07 0.025501)
(4.86879e-07 -1.83617e-07 0.0260664)
(4.86713e-07 -1.83591e-07 0.0266023)
(4.86582e-07 -1.83586e-07 0.0271091)
(4.86486e-07 -1.83602e-07 0.0275905)
(4.86423e-07 -1.83637e-07 0.0280455)
(4.86393e-07 -1.8369e-07 0.0284752)
(4.86395e-07 -1.83762e-07 0.0288815)
(4.86427e-07 -1.83852e-07 0.0292655)
(4.86488e-07 -1.83958e-07 0.0296281)
(4.86579e-07 -1.8408e-07 0.0299676)
(4.86698e-07 -1.84218e-07 0.0302881)
(4.86843e-07 -1.8437e-07 0.0305881)
(4.87015e-07 -1.84538e-07 0.030867)
(4.87213e-07 -1.84719e-07 0.0311248)
(4.87436e-07 -1.84913e-07 0.031363)
(4.87683e-07 -1.85121e-07 0.0315848)
(4.87953e-07 -1.85341e-07 0.0317893)
(4.88246e-07 -1.85573e-07 0.0319775)
(4.88562e-07 -1.85816e-07 0.0321487)
(4.88899e-07 -1.86071e-07 0.032304)
(4.89257e-07 -1.86336e-07 0.0324438)
(4.89635e-07 -1.86612e-07 0.0325679)
(4.90033e-07 -1.86897e-07 0.0326777)
(4.9045e-07 -1.87193e-07 0.0327744)
(4.90887e-07 -1.87497e-07 0.0328587)
(4.91341e-07 -1.8781e-07 0.0329296)
(4.91813e-07 -1.88132e-07 0.0329886)
(4.92302e-07 -1.88462e-07 0.0330353)
(4.92808e-07 -1.88799e-07 0.0330682)
(4.93331e-07 -1.89144e-07 0.033088)
(4.93869e-07 -1.89497e-07 0.033094)
(4.94422e-07 -1.89856e-07 0.0330876)
(4.94991e-07 -1.90223e-07 0.0330693)
(4.95574e-07 -1.90595e-07 0.0330394)
(4.96171e-07 -1.90974e-07 0.0329997)
(4.96782e-07 -1.91359e-07 0.0329498)
(4.97407e-07 -1.91749e-07 0.0328891)
(4.98045e-07 -1.92145e-07 0.0328166)
(4.98695e-07 -1.92546e-07 0.0327305)
(4.99358e-07 -1.92953e-07 0.0325941)
(5.00032e-07 -1.93364e-07 0.0322682)
(5.00719e-07 -1.93779e-07 0.031918)
(5.01417e-07 -1.94199e-07 0.031541)
(5.02125e-07 -1.94623e-07 0.0311331)
(5.02845e-07 -1.95051e-07 0.0306873)
(5.03575e-07 -1.95483e-07 0.0301962)
(5.04316e-07 -1.95918e-07 0.0296499)
(5.05066e-07 -1.96357e-07 0.0290333)
(5.05826e-07 -1.96799e-07 0.0283157)
(5.06596e-07 -1.97245e-07 0.027458)
(5.07374e-07 -1.97693e-07 0.0264581)
(5.08164e-07 -1.98145e-07 0.0248821)
(5.69965e-07 -2.40299e-07 -0.0424208)
(5.65232e-07 -2.37162e-07 -0.0404685)
(5.60708e-07 -2.34169e-07 -0.0385474)
(5.56384e-07 -2.31329e-07 -0.0367307)
(5.52254e-07 -2.28628e-07 -0.0349906)
(5.48307e-07 -2.26062e-07 -0.0333231)
(5.44537e-07 -2.23623e-07 -0.0317292)
(5.40936e-07 -2.21306e-07 -0.0302038)
(5.37496e-07 -2.19106e-07 -0.0287457)
(5.3421e-07 -2.17016e-07 -0.0273482)
(5.31074e-07 -2.15033e-07 -0.0260092)
(5.2808e-07 -2.1315e-07 -0.0247257)
(5.25222e-07 -2.11365e-07 -0.0235014)
(5.22496e-07 -2.09672e-07 -0.0223228)
(5.19895e-07 -2.08067e-07 -0.0207446)
(5.17416e-07 -2.06547e-07 -0.0182676)
(5.15053e-07 -2.05107e-07 -0.0158903)
(5.12801e-07 -2.03745e-07 -0.0136144)
(5.10657e-07 -2.02457e-07 -0.0114322)
(5.08617e-07 -2.0124e-07 -0.00934099)
(5.06676e-07 -2.0009e-07 -0.00733978)
(5.0483e-07 -1.99006e-07 -0.00542279)
(5.03077e-07 -1.97984e-07 -0.00358697)
(5.01413e-07 -1.97022e-07 -0.00183134)
(4.99835e-07 -1.96118e-07 -0.000148543)
(4.98338e-07 -1.95268e-07 0.00146541)
(4.96922e-07 -1.94471e-07 0.00301313)
(4.95582e-07 -1.93725e-07 0.00449622)
(4.94317e-07 -1.93027e-07 0.00591731)
(4.93122e-07 -1.92376e-07 0.00728012)
(4.91997e-07 -1.9177e-07 0.0085864)
(4.90939e-07 -1.91207e-07 0.00983681)
(4.89943e-07 -1.90686e-07 0.0110332)
(4.8901e-07 -1.90205e-07 0.0121793)
(4.88138e-07 -1.8976e-07 0.0132753)
(4.87324e-07 -1.89354e-07 0.014322)
(4.86566e-07 -1.88982e-07 0.0153232)
(4.85862e-07 -1.88644e-07 0.0162797)
(4.85211e-07 -1.88339e-07 0.0171923)
(4.8461e-07 -1.88066e-07 0.018065)
(4.84058e-07 -1.87823e-07 0.0188994)
(4.83554e-07 -1.87609e-07 0.0196951)
(4.83096e-07 -1.87422e-07 0.0204526)
(4.82683e-07 -1.87263e-07 0.0211755)
(4.82312e-07 -1.8713e-07 0.0218633)
(4.81984e-07 -1.87022e-07 0.0225176)
(4.81696e-07 -1.86938e-07 0.0231394)
(4.81447e-07 -1.86877e-07 0.0237317)
(4.81236e-07 -1.86839e-07 0.0242925)
(4.81063e-07 -1.86821e-07 0.0248247)
(4.80924e-07 -1.86825e-07 0.0253283)
(4.80821e-07 -1.86849e-07 0.025807)
(4.80751e-07 -1.86892e-07 0.0262587)
(4.80714e-07 -1.86953e-07 0.0266852)
(4.80709e-07 -1.87032e-07 0.0270891)
(4.80734e-07 -1.87129e-07 0.027469)
(4.80789e-07 -1.87242e-07 0.0278286)
(4.80873e-07 -1.87371e-07 0.0281655)
(4.80985e-07 -1.87515e-07 0.0284842)
(4.81124e-07 -1.87674e-07 0.0287813)
(4.81289e-07 -1.87847e-07 0.0290571)
(4.81481e-07 -1.88035e-07 0.0293135)
(4.81697e-07 -1.88235e-07 0.02955)
(4.81938e-07 -1.88448e-07 0.0297702)
(4.82202e-07 -1.88674e-07 0.0299728)
(4.82489e-07 -1.88911e-07 0.0301592)
(4.82798e-07 -1.8916e-07 0.0303289)
(4.83129e-07 -1.8942e-07 0.0304823)
(4.83481e-07 -1.8969e-07 0.03062)
(4.83853e-07 -1.89971e-07 0.0307426)
(4.84246e-07 -1.90261e-07 0.0308517)
(4.84657e-07 -1.90561e-07 0.0309471)
(4.85087e-07 -1.9087e-07 0.0310298)
(4.85536e-07 -1.91188e-07 0.0310997)
(4.86002e-07 -1.91514e-07 0.0311582)
(4.86485e-07 -1.91848e-07 0.0312044)
(4.86985e-07 -1.9219e-07 0.0312365)
(4.87501e-07 -1.92539e-07 0.0312556)
(4.88034e-07 -1.92896e-07 0.0312619)
(4.88581e-07 -1.93259e-07 0.0312558)
(4.89144e-07 -1.9363e-07 0.0311086)
(4.89721e-07 -1.94006e-07 0.0308815)
(4.90312e-07 -1.94389e-07 0.0306418)
(4.90917e-07 -1.94777e-07 0.0303888)
(4.91536e-07 -1.95172e-07 0.0301197)
(4.92167e-07 -1.95571e-07 0.0298328)
(4.92812e-07 -1.95976e-07 0.029526)
(4.93468e-07 -1.96386e-07 0.0291977)
(4.94137e-07 -1.96801e-07 0.0288464)
(4.94817e-07 -1.9722e-07 0.0284674)
(4.95509e-07 -1.97643e-07 0.0280573)
(4.96212e-07 -1.98071e-07 0.0276107)
(4.96925e-07 -1.98502e-07 0.027119)
(4.97649e-07 -1.98938e-07 0.0265741)
(4.98383e-07 -1.99376e-07 0.0259644)
(4.99127e-07 -1.99819e-07 0.0252713)
(4.99881e-07 -2.00264e-07 0.0244812)
(5.00644e-07 -2.00713e-07 0.0235741)
(5.01416e-07 -2.01165e-07 0.022543)
(5.02197e-07 -2.01619e-07 0.0212339)
(5.6527e-07 -2.42214e-07 -0.0435206)
(5.60489e-07 -2.39144e-07 -0.041605)
(5.5592e-07 -2.36214e-07 -0.0397168)
(5.51553e-07 -2.33433e-07 -0.0379332)
(5.47382e-07 -2.30789e-07 -0.0362233)
(5.43396e-07 -2.28277e-07 -0.0345841)
(5.39589e-07 -2.2589e-07 -0.0330183)
(5.35952e-07 -2.23622e-07 -0.0315195)
(5.32479e-07 -2.21469e-07 -0.0300858)
(5.29162e-07 -2.19425e-07 -0.0287122)
(5.25995e-07 -2.17484e-07 -0.0273963)
(5.22972e-07 -2.15643e-07 -0.0261343)
(5.20087e-07 -2.13897e-07 -0.0249283)
(5.17334e-07 -2.12241e-07 -0.0237719)
(5.14709e-07 -2.10672e-07 -0.0221606)
(5.12205e-07 -2.09186e-07 -0.0197069)
(5.09819e-07 -2.07779e-07 -0.0173473)
(5.07546e-07 -2.06448e-07 -0.015093)
(5.05381e-07 -2.0519e-07 -0.0129285)
(5.0332e-07 -2.04002e-07 -0.0108548)
(5.0136e-07 -2.0288e-07 -0.0088699)
(4.99496e-07 -2.01822e-07 -0.00696968)
(4.97725e-07 -2.00825e-07 -0.00514963)
(4.96044e-07 -1.99887e-07 -0.00340788)
(4.9445e-07 -1.99006e-07 -0.00173996)
(4.92938e-07 -1.98178e-07 -0.000141447)
(4.91506e-07 -1.97403e-07 0.00139221)
(4.90152e-07 -1.96677e-07 0.00286211)
(4.88873e-07 -1.95999e-07 0.0042713)
(4.87665e-07 -1.95367e-07 0.00562301)
(4.86527e-07 -1.94779e-07 0.00691792)
(4.85456e-07 -1.94233e-07 0.00815853)
(4.84448e-07 -1.93728e-07 0.0093476)
(4.83505e-07 -1.93262e-07 0.0104828)
(4.82622e-07 -1.92834e-07 0.0115698)
(4.81797e-07 -1.92442e-07 0.0126106)
(4.81028e-07 -1.92085e-07 0.0136047)
(4.80314e-07 -1.91761e-07 0.0145529)
(4.79653e-07 -1.91469e-07 0.0154582)
(4.79042e-07 -1.91208e-07 0.016324)
(4.78482e-07 -1.90977e-07 0.0171497)
(4.77969e-07 -1.90775e-07 0.0179372)
(4.77502e-07 -1.906e-07 0.0186879)
(4.7708e-07 -1.90452e-07 0.0194044)
(4.76701e-07 -1.90329e-07 0.0200851)
(4.76364e-07 -1.90231e-07 0.0207335)
(4.76068e-07 -1.90157e-07 0.0213499)
(4.75812e-07 -1.90105e-07 0.0219374)
(4.75594e-07 -1.90076e-07 0.0224932)
(4.75412e-07 -1.90068e-07 0.0230225)
(4.75267e-07 -1.9008e-07 0.0235237)
(4.75156e-07 -1.90112e-07 0.0239993)
(4.7508e-07 -1.90163e-07 0.0244478)
(4.75035e-07 -1.90232e-07 0.0248701)
(4.75023e-07 -1.90318e-07 0.0252711)
(4.75041e-07 -1.90422e-07 0.025647)
(4.7509e-07 -1.90542e-07 0.0260039)
(4.75167e-07 -1.90678e-07 0.0263378)
(4.75273e-07 -1.90829e-07 0.0266529)
(4.75405e-07 -1.90994e-07 0.0269475)
(4.75565e-07 -1.91174e-07 0.0272208)
(4.7575e-07 -1.91367e-07 0.027475)
(4.7596e-07 -1.91574e-07 0.0277092)
(4.76194e-07 -1.91793e-07 0.0279274)
(4.76452e-07 -1.92024e-07 0.0281282)
(4.76733e-07 -1.92267e-07 0.0283122)
(4.77037e-07 -1.92521e-07 0.0284792)
(4.77361e-07 -1.92786e-07 0.0286304)
(4.77707e-07 -1.93061e-07 0.0287665)
(4.78074e-07 -1.93347e-07 0.0288877)
(4.7846e-07 -1.93642e-07 0.0289949)
(4.78865e-07 -1.93946e-07 0.0290879)
(4.79289e-07 -1.9426e-07 0.0291684)
(4.79732e-07 -1.94582e-07 0.0291083)
(4.80192e-07 -1.94913e-07 0.0289614)
(4.80669e-07 -1.95251e-07 0.0288016)
(4.81164e-07 -1.95598e-07 0.0286281)
(4.81674e-07 -1.95951e-07 0.0284423)
(4.822e-07 -1.96312e-07 0.0282441)
(4.82742e-07 -1.9668e-07 0.0280323)
(4.83299e-07 -1.97054e-07 0.0278051)
(4.8387e-07 -1.97434e-07 0.027563)
(4.84455e-07 -1.97821e-07 0.0273077)
(4.85054e-07 -1.98213e-07 0.0270373)
(4.85667e-07 -1.98611e-07 0.0267489)
(4.86292e-07 -1.99015e-07 0.0264399)
(4.8693e-07 -1.99423e-07 0.0261097)
(4.87581e-07 -1.99837e-07 0.0257576)
(4.88244e-07 -2.00255e-07 0.0253789)
(4.88918e-07 -2.00678e-07 0.0249694)
(4.89603e-07 -2.01105e-07 0.0245263)
(4.903e-07 -2.01536e-07 0.024043)
(4.91007e-07 -2.01971e-07 0.0235134)
(4.91725e-07 -2.0241e-07 0.0229304)
(4.92452e-07 -2.02852e-07 0.0222878)
(4.9319e-07 -2.03298e-07 0.021574)
(4.93937e-07 -2.03747e-07 0.0207944)
(4.94694e-07 -2.04199e-07 0.0199395)
(4.95459e-07 -2.04654e-07 0.0190265)
(4.96233e-07 -2.05111e-07 0.0179155)
(5.60542e-07 -2.44116e-07 -0.0446095)
(5.55715e-07 -2.41113e-07 -0.0427324)
(5.51102e-07 -2.38247e-07 -0.0408776)
(5.46694e-07 -2.35528e-07 -0.0391282)
(5.42483e-07 -2.32941e-07 -0.037449)
(5.3846e-07 -2.30485e-07 -0.035841)
(5.34618e-07 -2.28151e-07 -0.0343047)
(5.30947e-07 -2.25934e-07 -0.0328307)
(5.27441e-07 -2.23829e-07 -0.0314227)
(5.24094e-07 -2.21831e-07 -0.030071)
(5.20897e-07 -2.19934e-07 -0.028779)
(5.17846e-07 -2.18135e-07 -0.0275399)
(5.14935e-07 -2.16429e-07 -0.0263544)
(5.12157e-07 -2.14811e-07 -0.0252183)
(5.09507e-07 -2.13279e-07 -0.0235797)
(5.0698e-07 -2.11828e-07 -0.0211471)
(5.04572e-07 -2.10454e-07 -0.0188117)
(5.02278e-07 -2.09155e-07 -0.0165743)
(5.00093e-07 -2.07928e-07 -0.0144314)
(4.98013e-07 -2.06769e-07 -0.0123764)
(4.96034e-07 -2.05675e-07 -0.0104068)
(4.94153e-07 -2.04644e-07 -0.00852381)
(4.92365e-07 -2.03673e-07 -0.00672154)
(4.90668e-07 -2.0276e-07 -0.00499591)
(4.89057e-07 -2.01902e-07 -0.00334216)
(4.87531e-07 -2.01097e-07 -0.0017576)
(4.86085e-07 -2.00343e-07 -0.000238907)
(4.84717e-07 -1.99638e-07 0.00121663)
(4.83424e-07 -1.9898e-07 0.00261225)
(4.82203e-07 -1.98367e-07 0.00395033)
(4.81053e-07 -1.97798e-07 0.00523293)
(4.79969e-07 -1.9727e-07 0.00646293)
(4.78951e-07 -1.96781e-07 0.0076416)
(4.77996e-07 -1.96332e-07 0.00876924)
(4.77102e-07 -1.95919e-07 0.00984871)
(4.76267e-07 -1.95542e-07 0.0108818)
(4.75488e-07 -1.95199e-07 0.011868)
(4.74764e-07 -1.94889e-07 0.0128094)
(4.74093e-07 -1.94611e-07 0.0137076)
(4.73474e-07 -1.94363e-07 0.0145651)
(4.72904e-07 -1.94144e-07 0.0153819)
(4.72382e-07 -1.93954e-07 0.0161613)
(4.71907e-07 -1.93791e-07 0.0169036)
(4.71477e-07 -1.93654e-07 0.0176121)
(4.7109e-07 -1.93542e-07 0.0182855)
(4.70745e-07 -1.93454e-07 0.0189281)
(4.70442e-07 -1.9339e-07 0.019538)
(4.70177e-07 -1.93348e-07 0.0201204)
(4.69952e-07 -1.93328e-07 0.0206724)
(4.69763e-07 -1.93328e-07 0.0211988)
(4.69611e-07 -1.93349e-07 0.0216964)
(4.69493e-07 -1.9339e-07 0.0221676)
(4.69409e-07 -1.93449e-07 0.0226135)
(4.69358e-07 -1.93526e-07 0.0230317)
(4.69339e-07 -1.9362e-07 0.0234294)
(4.69351e-07 -1.93731e-07 0.0238016)
(4.69393e-07 -1.93858e-07 0.0241551)
(4.69464e-07 -1.94001e-07 0.0244861)
(4.69563e-07 -1.94158e-07 0.024797)
(4.69689e-07 -1.9433e-07 0.0250884)
(4.69842e-07 -1.94516e-07 0.0253584)
(4.70021e-07 -1.94716e-07 0.0256097)
(4.70225e-07 -1.94928e-07 0.0258417)
(4.70454e-07 -1.95153e-07 0.0260572)
(4.70706e-07 -1.9539e-07 0.0262554)
(4.7098e-07 -1.95638e-07 0.0264368)
(4.71278e-07 -1.95897e-07 0.0266015)
(4.71597e-07 -1.96168e-07 0.0265711)
(4.71936e-07 -1.96448e-07 0.0264822)
(4.72297e-07 -1.96739e-07 0.0263811)
(4.72677e-07 -1.97039e-07 0.0262677)
(4.73077e-07 -1.97348e-07 0.0261428)
(4.73495e-07 -1.97666e-07 0.0260068)
(4.73931e-07 -1.97993e-07 0.0258599)
(4.74386e-07 -1.98328e-07 0.0257014)
(4.74857e-07 -1.98671e-07 0.0255295)
(4.75345e-07 -1.99022e-07 0.0253447)
(4.7585e-07 -1.9938e-07 0.0251477)
(4.7637e-07 -1.99745e-07 0.0249373)
(4.76906e-07 -2.00116e-07 0.0247125)
(4.77456e-07 -2.00495e-07 0.0244716)
(4.78022e-07 -2.00879e-07 0.0242156)
(4.78601e-07 -2.01269e-07 0.023945)
(4.79194e-07 -2.01666e-07 0.0236571)
(4.798e-07 -2.02067e-07 0.0233494)
(4.8042e-07 -2.02475e-07 0.0230204)
(4.81052e-07 -2.02887e-07 0.0226695)
(4.81697e-07 -2.03304e-07 0.0222954)
(4.82353e-07 -2.03726e-07 0.0218932)
(4.83021e-07 -2.04152e-07 0.0214599)
(4.837e-07 -2.04583e-07 0.0209929)
(4.84391e-07 -2.05017e-07 0.0204888)
(4.85092e-07 -2.05456e-07 0.0199422)
(4.85803e-07 -2.05898e-07 0.0193492)
(4.86524e-07 -2.06344e-07 0.0187083)
(4.87255e-07 -2.06793e-07 0.0180132)
(4.87996e-07 -2.07245e-07 0.0172782)
(4.88746e-07 -2.07701e-07 0.0164959)
(4.89504e-07 -2.08159e-07 0.0156013)
(4.90272e-07 -2.08619e-07 0.0142671)
(5.55781e-07 -2.46004e-07 -0.0456914)
(5.5091e-07 -2.4307e-07 -0.0438517)
(5.46255e-07 -2.40269e-07 -0.0420341)
(5.41807e-07 -2.37613e-07 -0.0403172)
(5.37558e-07 -2.35086e-07 -0.0386699)
(5.335e-07 -2.32686e-07 -0.0370914)
(5.29623e-07 -2.30406e-07 -0.0355831)
(5.25919e-07 -2.28241e-07 -0.0341372)
(5.22383e-07 -2.26185e-07 -0.0327536)
(5.19006e-07 -2.24233e-07 -0.0314295)
(5.15781e-07 -2.22382e-07 -0.0301595)
(5.12704e-07 -2.20625e-07 -0.028945)
(5.09767e-07 -2.1896e-07 -0.0277783)
(5.06964e-07 -2.17382e-07 -0.0266631)
(5.04291e-07 -2.15887e-07 -0.0250001)
(5.01742e-07 -2.14471e-07 -0.0225909)
(4.99313e-07 -2.13132e-07 -0.0202781)
(4.96998e-07 -2.11866e-07 -0.018064)
(4.94794e-07 -2.1067e-07 -0.0159397)
(4.92695e-07 -2.0954e-07 -0.0139039)
(4.90699e-07 -2.08475e-07 -0.0119544)
(4.88801e-07 -2.07472e-07 -0.0100888)
(4.86997e-07 -2.06527e-07 -0.00830224)
(4.85284e-07 -2.05639e-07 -0.00659249)
(4.83658e-07 -2.04805e-07 -0.00495506)
(4.82117e-07 -2.04023e-07 -0.003387)
(4.80657e-07 -2.03292e-07 -0.00188367)
(4.79276e-07 -2.02608e-07 -0.000441732)
(4.7797e-07 -2.0197e-07 0.000940591)
(4.76737e-07 -2.01377e-07 0.00226564)
(4.75575e-07 -2.00826e-07 0.00353659)
(4.7448e-07 -2.00316e-07 0.00475576)
(4.73451e-07 -1.99845e-07 0.00592349)
(4.72485e-07 -1.99412e-07 0.00704175)
(4.71581e-07 -1.99015e-07 0.00811253)
(4.70735e-07 -1.98654e-07 0.00913691)
(4.69947e-07 -1.98326e-07 0.0101143)
(4.69213e-07 -1.9803e-07 0.0110476)
(4.68533e-07 -1.97765e-07 0.0119374)
(4.67905e-07 -1.9753e-07 0.0127867)
(4.67326e-07 -1.97324e-07 0.0135949)
(4.66796e-07 -1.97146e-07 0.0143664)
(4.66312e-07 -1.96994e-07 0.0151006)
(4.65874e-07 -1.96869e-07 0.0158018)
(4.65479e-07 -1.96768e-07 0.0164672)
(4.65127e-07 -1.9669e-07 0.0171029)
(4.64816e-07 -1.96636e-07 0.0177065)
(4.64544e-07 -1.96604e-07 0.0182839)
(4.64312e-07 -1.96593e-07 0.0188314)
(4.64116e-07 -1.96603e-07 0.019353)
(4.63956e-07 -1.96633e-07 0.0198471)
(4.63832e-07 -1.96682e-07 0.0203138)
(4.63741e-07 -1.96749e-07 0.0207568)
(4.63684e-07 -1.96834e-07 0.0211705)
(4.63658e-07 -1.96936e-07 0.0215642)
(4.63663e-07 -1.97054e-07 0.0219338)
(4.63699e-07 -1.97188e-07 0.022283)
(4.63763e-07 -1.97338e-07 0.02261)
(4.63856e-07 -1.97502e-07 0.0229161)
(4.63976e-07 -1.97681e-07 0.0232038)
(4.64123e-07 -1.97873e-07 0.0234709)
(4.64296e-07 -1.98079e-07 0.0236841)
(4.64494e-07 -1.98297e-07 0.0236628)
(4.64716e-07 -1.98528e-07 0.0236292)
(4.64962e-07 -1.98771e-07 0.0235822)
(4.65231e-07 -1.99024e-07 0.0235216)
(4.65522e-07 -1.99289e-07 0.0234471)
(4.65835e-07 -1.99565e-07 0.0233599)
(4.66169e-07 -1.99851e-07 0.0232612)
(4.66524e-07 -2.00146e-07 0.0231508)
(4.66898e-07 -2.00451e-07 0.0230274)
(4.67292e-07 -2.00765e-07 0.0228922)
(4.67704e-07 -2.01088e-07 0.0227455)
(4.68135e-07 -2.0142e-07 0.0225869)
(4.68583e-07 -2.01759e-07 0.0224172)
(4.69048e-07 -2.02106e-07 0.0222342)
(4.69531e-07 -2.02461e-07 0.0220377)
(4.70029e-07 -2.02823e-07 0.0218287)
(4.70544e-07 -2.03192e-07 0.0216061)
(4.71073e-07 -2.03568e-07 0.0213686)
(4.71618e-07 -2.03951e-07 0.0211147)
(4.72178e-07 -2.04339e-07 0.0208448)
(4.72751e-07 -2.04733e-07 0.0205591)
(4.73338e-07 -2.05133e-07 0.0202552)
(4.73938e-07 -2.05539e-07 0.0199313)
(4.74552e-07 -2.0595e-07 0.019585)
(4.75178e-07 -2.06366e-07 0.0192168)
(4.75816e-07 -2.06787e-07 0.0188246)
(4.76467e-07 -2.07212e-07 0.0184053)
(4.77128e-07 -2.07642e-07 0.0179565)
(4.77802e-07 -2.08076e-07 0.0174769)
(4.78485e-07 -2.08514e-07 0.0169632)
(4.7918e-07 -2.08956e-07 0.0163652)
(4.79885e-07 -2.09402e-07 0.0154775)
(4.806e-07 -2.09851e-07 0.0145457)
(4.81325e-07 -2.10303e-07 0.0135705)
(4.82059e-07 -2.10759e-07 0.0125691)
(4.82802e-07 -2.11218e-07 0.011529)
(4.83554e-07 -2.1168e-07 0.0105238)
(4.84316e-07 -2.12143e-07 0.00931178)
(5.50987e-07 -2.47878e-07 -0.0467634)
(5.46073e-07 -2.45014e-07 -0.044963)
(5.41378e-07 -2.4228e-07 -0.0431807)
(5.36892e-07 -2.39687e-07 -0.0414978)
(5.32608e-07 -2.37221e-07 -0.0398833)
(5.28515e-07 -2.34879e-07 -0.0383364)
(5.24605e-07 -2.32654e-07 -0.0368577)
(5.20871e-07 -2.30542e-07 -0.0354395)
(5.17304e-07 -2.28536e-07 -0.034084)
(5.13899e-07 -2.26633e-07 -0.0327825)
(5.10648e-07 -2.24827e-07 -0.0315387)
(5.07544e-07 -2.23114e-07 -0.0303448)
(5.04583e-07 -2.2149e-07 -0.0292021)
(5.01757e-07 -2.19952e-07 -0.028106)
(4.99062e-07 -2.18495e-07 -0.0264208)
(4.96492e-07 -2.17116e-07 -0.0240374)
(4.94042e-07 -2.15812e-07 -0.0217486)
(4.91708e-07 -2.14579e-07 -0.0195558)
(4.89485e-07 -2.13415e-07 -0.0174535)
(4.87369e-07 -2.12316e-07 -0.0154384)
(4.85355e-07 -2.1128e-07 -0.0135069)
(4.83441e-07 -2.10304e-07 -0.0116591)
(4.81621e-07 -2.09386e-07 -0.00989118)
(4.79893e-07 -2.08524e-07 -0.0081993)
(4.78253e-07 -2.07715e-07 -0.00657839)
(4.76698e-07 -2.06957e-07 -0.00502544)
(4.75225e-07 -2.06247e-07 -0.00353639)
(4.73831e-07 -2.05585e-07 -0.00210891)
(4.72513e-07 -2.04968e-07 -0.000740939)
(4.71268e-07 -2.04395e-07 0.000570633)
(4.70094e-07 -2.03863e-07 0.00182838)
(4.68989e-07 -2.03371e-07 0.00303467)
(4.67949e-07 -2.02918e-07 0.00419083)
(4.66973e-07 -2.02502e-07 0.00529915)
(4.66058e-07 -2.02122e-07 0.00636011)
(4.65203e-07 -2.01775e-07 0.00737529)
(4.64405e-07 -2.01462e-07 0.00834423)
(4.63662e-07 -2.01181e-07 0.00926961)
(4.62974e-07 -2.0093e-07 0.0101506)
(4.62336e-07 -2.00709e-07 0.0109911)
(4.6175e-07 -2.00515e-07 0.0117902)
(4.61211e-07 -2.0035e-07 0.0125531)
(4.60719e-07 -2.0021e-07 0.0132776)
(4.60273e-07 -2.00095e-07 0.0139703)
(4.59871e-07 -2.00005e-07 0.0146281)
(4.59511e-07 -1.99939e-07 0.0152571)
(4.59193e-07 -1.99895e-07 0.0158547)
(4.58914e-07 -1.99873e-07 0.0164265)
(4.58674e-07 -1.99872e-07 0.0169695)
(4.58471e-07 -1.99891e-07 0.0174861)
(4.58305e-07 -1.99929e-07 0.0179769)
(4.58174e-07 -1.99987e-07 0.0184385)
(4.58077e-07 -2.00062e-07 0.0188773)
(4.58013e-07 -2.00155e-07 0.0192877)
(4.57981e-07 -2.00265e-07 0.0196772)
(4.5798e-07 -2.00391e-07 0.0200432)
(4.58009e-07 -2.00532e-07 0.0203872)
(4.58067e-07 -2.00689e-07 0.0204882)
(4.58154e-07 -2.0086e-07 0.0205141)
(4.58268e-07 -2.01046e-07 0.0205266)
(4.58408e-07 -2.01245e-07 0.0205243)
(4.58575e-07 -2.01456e-07 0.0205078)
(4.58767e-07 -2.01681e-07 0.0204774)
(4.58983e-07 -2.01917e-07 0.0204343)
(4.59223e-07 -2.02166e-07 0.020378)
(4.59486e-07 -2.02425e-07 0.0203073)
(4.59772e-07 -2.02695e-07 0.0202228)
(4.60079e-07 -2.02976e-07 0.0201267)
(4.60407e-07 -2.03267e-07 0.0200184)
(4.60755e-07 -2.03568e-07 0.019898)
(4.61124e-07 -2.03878e-07 0.0197644)
(4.61512e-07 -2.04197e-07 0.0196184)
(4.61918e-07 -2.04524e-07 0.0194612)
(4.62343e-07 -2.0486e-07 0.0192921)
(4.62785e-07 -2.05204e-07 0.0191111)
(4.63245e-07 -2.05556e-07 0.0189166)
(4.63721e-07 -2.05915e-07 0.018709)
(4.64214e-07 -2.06282e-07 0.0184887)
(4.64722e-07 -2.06655e-07 0.0182554)
(4.65246e-07 -2.07035e-07 0.0180065)
(4.65785e-07 -2.07421e-07 0.0177404)
(4.66339e-07 -2.07814e-07 0.0174579)
(4.66906e-07 -2.08212e-07 0.017159)
(4.67487e-07 -2.08616e-07 0.0168419)
(4.6808e-07 -2.09024e-07 0.0165068)
(4.68688e-07 -2.09439e-07 0.0161451)
(4.69309e-07 -2.09859e-07 0.0156879)
(4.69941e-07 -2.10284e-07 0.015009)
(4.70585e-07 -2.10713e-07 0.0143002)
(4.71241e-07 -2.11146e-07 0.0135591)
(4.71907e-07 -2.11584e-07 0.0127858)
(4.72585e-07 -2.12025e-07 0.0119788)
(4.73273e-07 -2.12471e-07 0.0111371)
(4.73972e-07 -2.1292e-07 0.0102612)
(4.74681e-07 -2.13372e-07 0.00935418)
(4.75399e-07 -2.13828e-07 0.00841872)
(4.76126e-07 -2.14287e-07 0.00747286)
(4.76864e-07 -2.14749e-07 0.00650546)
(4.77609e-07 -2.15214e-07 0.005012)
(4.78364e-07 -2.15681e-07 0.00319344)
(5.46161e-07 -2.49738e-07 -0.0478245)
(5.41207e-07 -2.46946e-07 -0.0460637)
(5.36474e-07 -2.4428e-07 -0.0443206)
(5.31951e-07 -2.41752e-07 -0.0426724)
(5.27632e-07 -2.39347e-07 -0.0410909)
(5.23506e-07 -2.37065e-07 -0.0395746)
(5.19565e-07 -2.34896e-07 -0.038125)
(5.15801e-07 -2.32837e-07 -0.0367343)
(5.12206e-07 -2.30882e-07 -0.0354063)
(5.08774e-07 -2.29028e-07 -0.0341306)
(5.05497e-07 -2.27268e-07 -0.0329131)
(5.02369e-07 -2.256e-07 -0.0317431)
(4.99384e-07 -2.24019e-07 -0.0306215)
(4.96536e-07 -2.22521e-07 -0.0295466)
(4.9382e-07 -2.21103e-07 -0.0278444)
(4.9123e-07 -2.19762e-07 -0.0254846)
(4.88761e-07 -2.18493e-07 -0.0232226)
(4.86408e-07 -2.17294e-07 -0.0210534)
(4.84167e-07 -2.16162e-07 -0.018972)
(4.82034e-07 -2.15094e-07 -0.0169777)
(4.80004e-07 -2.14088e-07 -0.0150673)
(4.78074e-07 -2.13141e-07 -0.0132394)
(4.7624e-07 -2.1225e-07 -0.0114888)
(4.74497e-07 -2.11414e-07 -0.00981316)
(4.72844e-07 -2.1063e-07 -0.00820916)
(4.71275e-07 -2.09896e-07 -0.00667365)
(4.6979e-07 -2.0921e-07 -0.00520159)
(4.68383e-07 -2.08569e-07 -0.00379012)
(4.67053e-07 -2.07974e-07 -0.00243704)
(4.65797e-07 -2.0742e-07 -0.0011395)
(4.64612e-07 -2.06908e-07 0.00010487)
(4.63496e-07 -2.06435e-07 0.00129917)
(4.62446e-07 -2.06e-07 0.00244426)
(4.6146e-07 -2.05601e-07 0.00354243)
(4.60535e-07 -2.05237e-07 0.00459345)
(4.59671e-07 -2.04907e-07 0.00559937)
(4.58864e-07 -2.04609e-07 0.00655849)
(4.58112e-07 -2.04342e-07 0.0074741)
(4.57415e-07 -2.04105e-07 0.00834555)
(4.5677e-07 -2.03897e-07 0.00917742)
(4.56175e-07 -2.03717e-07 0.00996693)
(4.55628e-07 -2.03564e-07 0.0107203)
(4.55129e-07 -2.03436e-07 0.0114358)
(4.54675e-07 -2.03333e-07 0.0121205)
(4.54265e-07 -2.03255e-07 0.0127706)
(4.53898e-07 -2.03199e-07 0.0133922)
(4.53573e-07 -2.03165e-07 0.0139838)
(4.53287e-07 -2.03153e-07 0.0145498)
(4.5304e-07 -2.03162e-07 0.0150884)
(4.52831e-07 -2.0319e-07 0.0155989)
(4.52658e-07 -2.03238e-07 0.0160855)
(4.5252e-07 -2.03304e-07 0.0165428)
(4.52416e-07 -2.03388e-07 0.0169768)
(4.52346e-07 -2.03489e-07 0.0171116)
(4.52308e-07 -2.03606e-07 0.0171908)
(4.523e-07 -2.0374e-07 0.0172534)
(4.52323e-07 -2.03889e-07 0.0173001)
(4.52375e-07 -2.04053e-07 0.0173308)
(4.52456e-07 -2.04231e-07 0.0173473)
(4.52564e-07 -2.04423e-07 0.0173496)
(4.52699e-07 -2.04628e-07 0.0173375)
(4.5286e-07 -2.04847e-07 0.0173111)
(4.53045e-07 -2.05077e-07 0.0172715)
(4.53256e-07 -2.0532e-07 0.0172187)
(4.5349e-07 -2.05574e-07 0.017152)
(4.53747e-07 -2.05839e-07 0.0170719)
(4.54027e-07 -2.06115e-07 0.0169783)
(4.54328e-07 -2.06401e-07 0.0168734)
(4.5465e-07 -2.06697e-07 0.016756)
(4.54993e-07 -2.07003e-07 0.0166258)
(4.55355e-07 -2.07318e-07 0.0164825)
(4.55737e-07 -2.07641e-07 0.0163268)
(4.56138e-07 -2.07974e-07 0.0161586)
(4.56557e-07 -2.08315e-07 0.0159788)
(4.56993e-07 -2.08663e-07 0.015787)
(4.57447e-07 -2.09019e-07 0.0155821)
(4.57917e-07 -2.09383e-07 0.0153643)
(4.58404e-07 -2.09754e-07 0.0151336)
(4.58905e-07 -2.10132e-07 0.0148901)
(4.59425e-07 -2.10515e-07 0.0146302)
(4.59959e-07 -2.10905e-07 0.0142403)
(4.60505e-07 -2.11302e-07 0.0136835)
(4.61067e-07 -2.11704e-07 0.013107)
(4.61641e-07 -2.12113e-07 0.0125084)
(4.62229e-07 -2.12525e-07 0.0118899)
(4.62832e-07 -2.12942e-07 0.011244)
(4.63447e-07 -2.13365e-07 0.0105724)
(4.64072e-07 -2.13794e-07 0.0098802)
(4.6471e-07 -2.14226e-07 0.00915964)
(4.65359e-07 -2.14663e-07 0.00841135)
(4.66019e-07 -2.15105e-07 0.00763629)
(4.66691e-07 -2.1555e-07 0.00683415)
(4.67373e-07 -2.15999e-07 0.0055984)
(4.68065e-07 -2.16451e-07 0.00418167)
(4.68767e-07 -2.16907e-07 0.00273099)
(4.69479e-07 -2.17366e-07 0.00125097)
(4.702e-07 -2.17829e-07 -0.000237736)
(4.7093e-07 -2.18294e-07 -0.00175517)
(4.71669e-07 -2.18763e-07 -0.00320054)
(4.72418e-07 -2.19233e-07 -0.00492518)
(5.41303e-07 -2.51584e-07 -0.0488777)
(5.3631e-07 -2.48865e-07 -0.0471576)
(5.31541e-07 -2.46268e-07 -0.0454508)
(5.26983e-07 -2.43806e-07 -0.0438376)
(5.22631e-07 -2.41464e-07 -0.0422901)
(5.18474e-07 -2.39242e-07 -0.0408063)
(5.14503e-07 -2.3713e-07 -0.0393869)
(5.10711e-07 -2.35126e-07 -0.0380251)
(5.07089e-07 -2.33223e-07 -0.0367256)
(5.03631e-07 -2.31419e-07 -0.035476)
(5.0033e-07 -2.29707e-07 -0.0342818)
(4.97179e-07 -2.28084e-07 -0.0331391)
(4.94171e-07 -2.26546e-07 -0.0320381)
(4.91302e-07 -2.2509e-07 -0.0309865)
(4.88566e-07 -2.23711e-07 -0.0292654)
(4.85956e-07 -2.22407e-07 -0.0269362)
(4.83469e-07 -2.21175e-07 -0.0246975)
(4.81098e-07 -2.2001e-07 -0.0225523)
(4.78841e-07 -2.18911e-07 -0.0204956)
(4.76691e-07 -2.17875e-07 -0.0185234)
(4.74646e-07 -2.169e-07 -0.016633)
(4.72701e-07 -2.15981e-07 -0.0148239)
(4.70852e-07 -2.15119e-07 -0.0130925)
(4.69096e-07 -2.14309e-07 -0.0114362)
(4.67429e-07 -2.1355e-07 -0.0098502)
(4.65849e-07 -2.1284e-07 -0.00833164)
(4.64351e-07 -2.12177e-07 -0.00687633)
(4.62933e-07 -2.1156e-07 -0.00548088)
(4.61591e-07 -2.10985e-07 -0.00414267)
(4.60324e-07 -2.10453e-07 -0.00285918)
(4.59129e-07 -2.0996e-07 -0.00162877)
(4.58002e-07 -2.09506e-07 -0.000447639)
(4.56942e-07 -2.09089e-07 0.000685063)
(4.55947e-07 -2.08708e-07 0.00177209)
(4.55013e-07 -2.0836e-07 0.00281233)
(4.5414e-07 -2.08046e-07 0.00380821)
(4.53324e-07 -2.07764e-07 0.00475755)
(4.52564e-07 -2.07512e-07 0.0056641)
(4.51859e-07 -2.0729e-07 0.00652583)
(4.51205e-07 -2.07095e-07 0.00734813)
(4.50602e-07 -2.06928e-07 0.00812772)
(4.50048e-07 -2.06788e-07 0.00887181)
(4.49541e-07 -2.06673e-07 0.0095782)
(4.4908e-07 -2.06582e-07 0.0102537)
(4.48663e-07 -2.06514e-07 0.0108957)
(4.48289e-07 -2.06469e-07 0.0115097)
(4.47957e-07 -2.06446e-07 0.0120955)
(4.47664e-07 -2.06444e-07 0.0126545)
(4.47411e-07 -2.06463e-07 0.0131876)
(4.47195e-07 -2.06501e-07 0.0135231)
(4.47015e-07 -2.06557e-07 0.0136635)
(4.46871e-07 -2.06632e-07 0.0137845)
(4.46761e-07 -2.06725e-07 0.0138883)
(4.46685e-07 -2.06834e-07 0.0139742)
(4.4664e-07 -2.0696e-07 0.0140442)
(4.46627e-07 -2.07101e-07 0.0140974)
(4.46644e-07 -2.07257e-07 0.0141348)
(4.4669e-07 -2.07428e-07 0.0141552)
(4.46764e-07 -2.07614e-07 0.0141618)
(4.46866e-07 -2.07812e-07 0.0141542)
(4.46995e-07 -2.08024e-07 0.0141327)
(4.4715e-07 -2.08249e-07 0.0140964)
(4.4733e-07 -2.08486e-07 0.0140467)
(4.47535e-07 -2.08734e-07 0.0139842)
(4.47763e-07 -2.08994e-07 0.0139076)
(4.48014e-07 -2.09265e-07 0.0138182)
(4.48288e-07 -2.09546e-07 0.0137156)
(4.48583e-07 -2.09838e-07 0.013601)
(4.489e-07 -2.10139e-07 0.0134748)
(4.49237e-07 -2.1045e-07 0.0133357)
(4.49594e-07 -2.1077e-07 0.0131824)
(4.4997e-07 -2.11099e-07 0.0130168)
(4.50365e-07 -2.11436e-07 0.0128387)
(4.50778e-07 -2.11781e-07 0.0126493)
(4.51208e-07 -2.12134e-07 0.0123398)
(4.51656e-07 -2.12495e-07 0.0118611)
(4.52121e-07 -2.12863e-07 0.0113685)
(4.52602e-07 -2.13238e-07 0.0108623)
(4.53099e-07 -2.13619e-07 0.0103416)
(4.53611e-07 -2.14008e-07 0.00980443)
(4.54138e-07 -2.14402e-07 0.00924882)
(4.54679e-07 -2.14802e-07 0.00867437)
(4.55234e-07 -2.15208e-07 0.00808073)
(4.55803e-07 -2.1562e-07 0.0074667)
(4.56387e-07 -2.16038e-07 0.00682973)