/*--------------------------------*- C++ -*----------------------------------*\
| =========                 |                                                 |
| \\      /  F ield         | foam-extend: Open Source CFD                    |
|  \\    /   O peration     | Version:     4.1                                |
|   \\  /    A nd           | Web:         http://www.foam-extend.org         |
|    \\/     M anipulation  |                                                 |
\*---------------------------------------------------------------------------*/
FoamFile
{
    version     2.0;
    format      ascii;
    class       volScalarField;
    location    "1";
    object      epsilonEq;
}
// * * * * * * * * * * * * * * * * * * * * * * * * * * * * * * * * * * * * * //

dimensions      [0 0 0 0 0 0 0];

internalField   nonuniform List<scalar> 
100000
(
0.199001
0.281674
0.277488
0.270717
0.265643
0.260632
0.256051
0.251659
0.247597
0.243928
0.240533
0.237169
0.234319
0.245417
0.295537
0.336188
0.326775
0.31786
0.309516
0.301425
0.293615
0.286536
0.279688
0.273143
0.267175
0.261723
0.256517
0.251503
0.246663
0.242016
0.237606
0.233288
0.229298
0.225546
0.221741
0.218111
0.214785
0.211696
0.208755
0.205989
0.20343
0.200937
0.198533
0.1962
0.19397
0.191778
0.189733
0.187719
0.185769
0.183815
0.182021
0.180242
0.178546
0.176987
0.175493
0.174107
0.172657
0.171365
0.170039
0.168721
0.1674
0.166098
0.164938
0.163785
0.162672
0.161576
0.160541
0.159525
0.158514
0.157531
0.15657
0.155659
0.154762
0.153855
0.152915
0.152002
0.151116
0.150194
0.149234
0.148279
0.152675
0.159821
0.166964
0.174169
0.181519
0.189034
0.196806
0.205835
0.215622
0.224342
0.233544
0.243369
0.254077
0.265858
0.278864
0.287791
0.295373
0.303743
0.320976
0.359123
0.197096
0.277947
0.273706
0.267474
0.262648
0.257844
0.253455
0.249349
0.245491
0.241986
0.238768
0.235496
0.23266
0.246126
0.296391
0.334715
0.3254
0.31674
0.308446
0.300545
0.292958
0.285903
0.279155
0.272825
0.267032
0.261654
0.256532
0.25165
0.247037
0.24258
0.238283
0.234104
0.23094
0.226414
0.222827
0.219311
0.216019
0.212958
0.210119
0.207414
0.204887
0.202472
0.20017
0.197913
0.195787
0.193688
0.19168
0.189676
0.187804
0.185904
0.184086
0.182348
0.18069
0.179186
0.177644
0.17631
0.174922
0.173597
0.172312
0.171019
0.169807
0.168552
0.167384
0.166243
0.165143
0.164099
0.163083
0.162102
0.16113
0.160167
0.159224
0.158356
0.157513
0.16208
0.169764
0.177397
0.184958
0.192409
0.199735
0.207213
0.215458
0.223414
0.231014
0.238753
0.246736
0.255006
0.263529
0.270889
0.271957
0.273375
0.27517
0.277506
0.280417
0.283964
0.288241
0.293268
0.297958
0.301403
0.306619
0.305733
0.194582
0.274062
0.269934
0.263966
0.259411
0.254994
0.250819
0.246845
0.243241
0.239842
0.236864
0.233944
0.230991
0.246383
0.297004
0.332887
0.323949
0.31524
0.307396
0.299627
0.292102
0.285196
0.278696
0.272461
0.266691
0.261425
0.256488
0.251765
0.247302
0.243058
0.238987
0.235056
0.231119
0.227422
0.223981
0.220539
0.217258
0.214183
0.211345
0.208694
0.206268
0.203939
0.201732
0.199573
0.197535
0.195504
0.193615
0.191709
0.189843
0.187954
0.186146
0.184476
0.182767
0.181311
0.179816
0.178459
0.177101
0.175772
0.174598
0.173331
0.172126
0.170929
0.169778
0.168683
0.167601
0.166579
0.165592
0.172458
0.181137
0.189624
0.197986
0.206185
0.214059
0.222323
0.230546
0.238468
0.246255
0.253921
0.261534
0.269167
0.271655
0.271509
0.271449
0.2716
0.27195
0.272478
0.273113
0.27388
0.274951
0.276257
0.277803
0.279575
0.281495
0.283452
0.285213
0.286219
0.28552
0.282549
0.282392
0.292515
0.192247
0.270004
0.266304
0.260486
0.256203
0.251941
0.248087
0.244394
0.240944
0.237852
0.234833
0.23224
0.229452
0.24643
0.297465
0.330864
0.32234
0.313857
0.305994
0.298616
0.291351
0.284406
0.277991
0.27203
0.266447
0.261233
0.256374
0.25176
0.247421
0.243343
0.239425
0.235636
0.231991
0.228344
0.224907
0.221604
0.218451
0.21541
0.212599
0.209981
0.207574
0.205263
0.203135
0.20106
0.199117
0.197173
0.195347
0.193505
0.191668
0.189877
0.188091
0.186502
0.184784
0.183331
0.181893
0.18047
0.17919
0.177894
0.176762
0.175563
0.174371
0.174796
0.18487
0.194737
0.204342
0.21374
0.222316
0.231402
0.240426
0.249112
0.257654
0.265995
0.2742
0.276871
0.276343
0.275859
0.275368
0.274907
0.274524
0.274221
0.273983
0.273797
0.273742
0.273865
0.274113
0.274473
0.274899
0.275488
0.2762
0.276969
0.277745
0.278461
0.280792
0.291952
0.302588
0.312032
0.319891
0.327611
0.340073
0.362193
0.190008
0.265867
0.262539
0.256998
0.253003
0.248988
0.245242
0.24189
0.238642
0.235725
0.232982
0.230428
0.227997
0.246387
0.297568
0.328884
0.320396
0.312307
0.30469
0.297355
0.290314
0.283631
0.277358
0.271485
0.266016
0.26093
0.256194
0.251698
0.247449
0.243457
0.239686
0.236052
0.232536
0.229096
0.225806
0.222591
0.219506
0.216551
0.213836
0.211259
0.208883
0.20663
0.20459
0.202561
0.200656
0.198797
0.197004
0.195218
0.193417
0.191752
0.189961
0.188412
0.186772
0.185261
0.183889
0.182461
0.181244
0.190152
0.201589
0.212696
0.223163
0.232505
0.242691
0.252856
0.262722
0.272371
0.28178
0.28303
0.282255
0.281492
0.280788
0.280131
0.279503
0.278918
0.278377
0.277862
0.277367
0.276904
0.27646
0.276094
0.275801
0.275574
0.275454
0.275415
0.275368
0.275568
0.278669
0.289479
0.30031
0.31112
0.321821
0.33288
0.346956
0.360826
0.370245
0.378358
0.385277
0.390151
0.412506
0.428182
0.187479
0.261629
0.258682
0.253423
0.249632
0.245872
0.242401
0.239133
0.236289
0.233405
0.231008
0.228541
0.226323
0.246302
0.297533
0.326624
0.318542
0.3106
0.303147
0.296097
0.289264
0.282693
0.27653
0.270801
0.26551
0.260593
0.255989
0.251634
0.247528
0.243656
0.240017
0.236523
0.233139
0.229816
0.226631
0.223508
0.220529
0.21766
0.214998
0.212455
0.210155
0.207977
0.206003
0.204065
0.202205
0.200411
0.198629
0.196921
0.195126
0.19354
0.191791
0.190218
0.188695
0.199806
0.212635
0.225058
0.23549
0.246518
0.258293
0.269815
0.280922
0.290102
0.289164
0.288281
0.287447
0.28662
0.285796
0.284924
0.284106
0.283366
0.282647
0.281964
0.281332
0.280713
0.28015
0.279601
0.279041
0.278513
0.277983
0.277559
0.281756
0.291977
0.302258
0.312602
0.32289
0.33388
0.346941
0.359666
0.37012
0.380436
0.390528
0.400304
0.422938
0.441279
0.458986
0.475732
0.491594
0.514328
0.542903
0.566583
0.185066
0.25727
0.254644
0.249777
0.246275
0.242774
0.239519
0.236429
0.233725
0.231119
0.228694
0.226811
0.22455
0.245994
0.297244
0.324415
0.316349
0.308819
0.301636
0.294682
0.288015
0.28169
0.275749
0.270143
0.264908
0.260108
0.255709
0.251542
0.247569
0.243813
0.24031
0.236937
0.233678
0.230473
0.227383
0.224326
0.221419
0.218639
0.216068
0.213578
0.211322
0.209208
0.207259
0.205398
0.203577
0.201873
0.200121
0.198515
0.19677
0.2032
0.217645
0.23165
0.242751
0.254776
0.268152
0.281158
0.293723
0.295603
0.294621
0.293697
0.292754
0.291859
0.29096
0.290087
0.289272
0.288408
0.287525
0.286684
0.285835
0.285045
0.284311
0.28359
0.282933
0.282271
0.28617
0.296533
0.306815
0.317018
0.32719
0.326576
0.350091
0.361685
0.371889
0.382076
0.382533
0.406576
0.431858
0.450177
0.468587
0.486865
0.504931
0.527458
0.553056
0.57273
0.589465
0.605266
0.620453
0.634186
0.630374
0.619703
0.182635
0.252935
0.250695
0.246075
0.242815
0.239682
0.236686
0.233851
0.231181
0.229074
0.226536
0.224741
0.222885
0.245545
0.296731
0.321935
0.314286
0.306811
0.299831
0.293224
0.286812
0.280604
0.274754
0.269299
0.264202
0.259479
0.255168
0.251157
0.247392
0.243793
0.240407
0.237164
0.234083
0.231046
0.228084
0.225141
0.222333
0.219596
0.217064
0.214641
0.212408
0.210347
0.208417
0.206647
0.204853
0.20323
0.21467
0.230817
0.24424
0.256796
0.271454
0.286279
0.300667
0.301427
0.300284
0.299231
0.298199
0.297241
0.296266
0.29532
0.294382
0.293464
0.292599
0.291723
0.290845
0.289984
0.289078
0.28821
0.288426
0.299374
0.310211
0.320891
0.331414
0.342261
0.354203
0.365745
0.375938
0.386023
0.397987
0.425943
0.449411
0.466928
0.484473
0.502064
0.520578
0.543147
0.56583
0.583695
0.601457
0.61898
0.636248
0.653328
0.654906
0.650395
0.645124
0.638855
0.632073
0.623765
0.619323
0.609486
0.180221
0.24847
0.246456
0.242377
0.239316
0.236492
0.233696
0.231284
0.228592
0.226619
0.224624
0.22264
0.221075
0.244885
0.296135
0.31942
0.311937
0.304846
0.298098
0.291643
0.285456
0.279506
0.273857
0.268549
0.263572
0.258936
0.254696
0.250771
0.247147
0.243721
0.240512
0.237414
0.234454
0.231551
0.228725
0.225889
0.223178
0.220539
0.21806
0.215714
0.213503
0.211512
0.209584
0.221005
0.238713
0.252333
0.266526
0.283289
0.299984
0.307617
0.306509
0.305272
0.304055
0.302918
0.301791
0.300772
0.299781
0.298764
0.297771
0.296806
0.295884
0.294953
0.294061
0.298274
0.309944
0.321424
0.33272
0.34389
0.355999
0.368521
0.379221
0.394358
0.422547
0.450599
0.474057
0.490974
0.507841
0.525047
0.545634
0.566932
0.584073
0.601201
0.618324
0.63547
0.652564
0.666181
0.664362
0.662309
0.659911
0.657067
0.653843
0.650162
0.64583
0.640874
0.635341
0.628998
0.622431
0.614624
0.610692
0.60145
0.177685
0.244137
0.242311
0.238458
0.23571
0.233216
0.230599
0.228375
0.226247
0.224042
0.222429
0.220714
0.219097
0.244156
0.295207
0.316839
0.309605
0.302656
0.296109
0.289953
0.284074
0.278362
0.272865
0.267713
0.262944
0.258491
0.254367
0.250514
0.246969
0.243612
0.240471
0.237475
0.234633
0.231851
0.22916
0.226458
0.223835
0.221312
0.218897
0.216649
0.221764
0.241234
0.256049
0.271295
0.289738
0.308361
0.312485
0.311308
0.310239
0.309036
0.307854
0.30668
0.305468
0.304354
0.303263
0.302198
0.301163
0.300141
0.303986
0.316638
0.329061
0.341317
0.353509
0.366398
0.387343
0.416752
0.445935
0.474913
0.502549
0.519266
0.536536
0.556271
0.575868
0.592495
0.609105
0.625649
0.642195
0.658754
0.673428
0.672141
0.670748
0.669223
0.667613
0.665891
0.663996
0.661864
0.659468
0.656845
0.653896
0.650551
0.646888
0.642728
0.638034
0.632899
0.627301
0.621072
0.614792
0.60743
0.597816
0.578467
0.175121
0.23953
0.238107
0.23458
0.232114
0.229822
0.227668
0.225386
0.22365
0.221705
0.220123
0.218685
0.217279
0.243071
0.294232
0.314103
0.307028
0.300401
0.294101
0.288094
0.282376
0.276901
0.271643
0.266661
0.262015
0.257691
0.253718
0.250003
0.246598
0.24342
0.240424
0.237519
0.234754
0.232073
0.22948
0.226926
0.22441
0.222029
0.238136
0.256062
0.270937
0.289993
0.310876
0.316974
0.315897
0.314749
0.313709
0.312573
0.311485
0.310351
0.309134
0.308007
0.306845
0.305713
0.318692
0.332268
0.3489
0.369921
0.402151
0.434108
0.464753
0.495098
0.525082
0.55061
0.570216
0.588865
0.605473
0.622017
0.638447
0.654819
0.671144
0.682852
0.681339
0.679808
0.678262
0.676694
0.675148
0.673574
0.671971
0.670306
0.668523
0.666658
0.664685
0.662523
0.660174
0.657598
0.654791
0.651746
0.648357
0.644688
0.640659
0.636184
0.631328
0.626159
0.6206
0.608767
0.558332
0.484563
0.419554
0.370678
0.172588
0.235064
0.23395
0.23067
0.228536
0.2264
0.224607
0.222617
0.220841
0.219352
0.217804
0.216639
0.215356
0.241995
0.292819
0.311398
0.304554
0.298037
0.291927
0.286178
0.280702
0.275413
0.270307
0.26549
0.261041
0.2569
0.253069
0.249488
0.246203
0.243169
0.240335
0.237579
0.234916
0.232359
0.229854
0.229037
0.251498
0.266896
0.284302
0.306815
0.321332
0.320235
0.319167
0.318012
0.316979
0.315863
0.314818
0.313743
0.312603
0.314291
0.341055
0.375414
0.40921
0.44258
0.476283
0.508601
0.541496
0.575436
0.602765
0.619745
0.636617
0.653301
0.669909
0.686464
0.694576
0.692933
0.691235
0.689485
0.687783
0.686177
0.684529
0.682871
0.681132
0.679338
0.677557
0.675807
0.674019
0.672135
0.67022
0.668262
0.666219
0.664065
0.661691
0.659146
0.656457
0.653535
0.650389
0.647016
0.643379
0.61399
0.550214
0.487268
0.420054
0.353875
0.286122
0.191558
0.11389
0.0716817
0.0583893
0.13036
0.169954
0.230338
0.229604
0.226792
0.224888
0.223046
0.22132
0.219814
0.218149
0.216831
0.215516
0.214505
0.213397
0.240765
0.291349
0.308404
0.301831
0.295672
0.289862
0.28434
0.279065
0.273999
0.269102
0.264432
0.260105
0.256104
0.252385
0.248905
0.245709
0.242766
0.240028
0.237425
0.23488
0.236957
0.260324
0.275238
0.295185
0.320457
0.324545
0.323441
0.322353
0.321186
0.320149
0.327026
0.346427
0.367244
0.404024
0.440291
0.475739
0.511277
0.549069
0.58408
0.617404
0.650114
0.66836
0.685494
0.70244
0.708105
0.706236
0.704327
0.702512
0.700716
0.698901
0.697158
0.695385
0.693535
0.691699
0.689884
0.688088
0.686302
0.684433
0.68251
0.680532
0.6786
0.676675
0.674692
0.672621
0.670482
0.668353
0.666168
0.66388
0.66141
0.647933
0.583295
0.519515
0.456722
0.395262
0.335648
0.261078
0.169742
0.106436
0.0568143
0.0731462
0.127271
0.190573
0.250391
0.271227
0.271976
0.271859
0.274516
0.164416
0.225737
0.22513
0.222733
0.221112
0.219668
0.218189
0.216766
0.21547
0.214212
0.213221
0.212207
0.211421
0.239312
0.289525
0.305316
0.299028
0.29308
0.287492
0.282219
0.277191
0.272364
0.267693
0.263227
0.259044
0.255187
0.251599
0.248226
0.245109
0.242262
0.239587
0.240944
0.26441
0.280503
0.302737
0.328367
0.327376
0.347177
0.367583
0.387681
0.407679
0.427328
0.460703
0.499083
0.537454
0.576103
0.614381
0.650113
0.685168
0.716877
0.723035
0.721025
0.719101
0.717159
0.715148
0.713249
0.711352
0.709339
0.707375
0.705409
0.703456
0.701611
0.699756
0.697821
0.695896
0.693965
0.692051
0.690164
0.688269
0.686258
0.684188
0.682111
0.679989
0.677863
0.675684
0.67346
0.61058
0.545357
0.48113
0.418086
0.356589
0.290567
0.203004
0.145008
0.086513
0.0478507
0.0774994
0.139871
0.208921
0.252983
0.26016
0.267023
0.268338
0.268863
0.269562
0.270402
0.271555
0.272084
0.271678
0.274159
0.110539
0.21903
0.220727
0.218692
0.21741
0.215993
0.215066
0.213793
0.212751
0.211671
0.210742
0.210101
0.209271
0.237851
0.287686
0.302038
0.295943
0.290298
0.285026
0.280014
0.27521
0.270616
0.266166
0.261934
0.25795
0.25427
0.250857
0.247659
0.244638
0.241888
0.272211
0.310971
0.357517
0.404445
0.425655
0.446715
0.466171
0.486737
0.509546
0.550886
0.591409
0.631808
0.672244
0.702789
0.719519
0.734263
0.732314
0.730334
0.728434
0.726416
0.724466
0.722478
0.720439
0.718498
0.716517
0.714459
0.71247
0.710392
0.708294
0.706298
0.704317
0.702304
0.700317
0.698297
0.696271
0.694264
0.692277
0.690185
0.688054
0.636791
0.569584
0.503276
0.43803
0.374157
0.312201
0.224673
0.164306
0.106365
0.0608151
0.0670296
0.116468
0.175414
0.225729
0.231387
0.237633
0.245953
0.254781
0.261369
0.267745
0.26854
0.268524
0.268725
0.26906
0.269455
0.270047
0.270738
0.271688
0.271986
0.271329
0.273679
0.0332974
0.181581
0.216304
0.214438
0.213824
0.2125
0.21169
0.210825
0.210045
0.209164
0.208455
0.207887
0.207441
0.236351
0.285781
0.298988
0.293119
0.287636
0.282546
0.277759
0.273185
0.268862
0.264659
0.260617
0.262745
0.279316
0.297067
0.315708
0.35944
0.402113
0.450172
0.500622
0.522579
0.544339
0.56585
0.592427
0.636271
0.658129
0.679541
0.700853
0.719751
0.738072
0.741481
0.739587
0.737606
0.73564
0.733715
0.731683
0.729761
0.727761
0.72567
0.723689
0.721674
0.719607
0.717616
0.715485
0.713326
0.711246
0.709153
0.707018
0.70495
0.702855
0.66508
0.595407
0.526692
0.458978
0.392545
0.327768
0.244553
0.176998
0.12242
0.0730583
0.0670882
0.110815
0.168751
0.229962
0.231897
0.230775
0.229727
0.228764
0.234647
0.240696
0.248938
0.257561
0.263723
0.269792
0.269995
0.269539
0.269215
0.269049
0.269083
0.269263
0.269502
0.269836
0.270342
0.270874
0.271685
0.271837
0.270967
0.27319
0.0303523
0.154789
0.211979
0.210171
0.209837
0.209156
0.208318
0.207702
0.207132
0.206584
0.205993
0.205544
0.205237
0.234625
0.283648
0.295678
0.290053
0.284849
0.280165
0.294557
0.310738
0.328399
0.347104
0.363301
0.37474
0.391521
0.427556
0.483491
0.540404
0.598861
0.615438
0.614619
0.61756
0.641467
0.664801
0.688184
0.711328
0.732193
0.750085
0.748439
0.746634
0.74482
0.742852
0.740891
0.738918
0.736836
0.734907
0.732919
0.730843
0.728838
0.726753
0.724666
0.722683
0.720546
0.718375
0.698091
0.625528
0.553882
0.483382
0.414031
0.346254
0.266639
0.191878
0.138709
0.0854321
0.0688315
0.106311
0.163592
0.225567
0.24054
0.239216
0.238006
0.236796
0.235585
0.234365
0.233168
0.23223
0.238196
0.244129
0.252455
0.261035
0.266885
0.272688
0.27227
0.271532
0.270875
0.270309
0.269906
0.269624
0.269452
0.269455
0.269582
0.269749
0.269993
0.270374
0.270804
0.271531
0.271537
0.270486
0.272655
0.0751291
0.0895319
0.2075
0.206252
0.205793
0.205637
0.205108
0.204627
0.204162
0.203952
0.203444
0.203211
0.202959
0.240142
0.306637
0.336924
0.353778
0.372157
0.379896
0.391962
0.41506
0.438452
0.461907
0.485367
0.501239
0.535494
0.570426
0.607651
0.617719
0.617051
0.639808
0.665218
0.690755
0.716073
0.739153
0.755957
0.754487
0.753003
0.751326
0.749674
0.747892
0.746025
0.744025
0.741934
0.739989
0.737946
0.735882
0.73392
0.731792
0.663299
0.588376
0.514373
0.441623
0.370323
0.294291
0.212068
0.158718
0.101036
0.0731471
0.101652
0.157554
0.22044
0.25047
0.248951
0.247469
0.245959
0.244474
0.242992
0.241594
0.240267
0.239026
0.237814
0.236569
0.2355
0.24146
0.247446
0.255963
0.2646
0.270356
0.276039
0.27503
0.274082
0.273241
0.272418
0.271652
0.271006
0.270553
0.270208
0.269885
0.2697
0.26971
0.269765
0.269835
0.270017
0.27033
0.270661
0.271259
0.271114
0.269924
0.27206
0.0803315
0.0545454
0.176042
0.202206
0.202077
0.202044
0.202013
0.20177
0.207817
0.234218
0.261767
0.289579
0.315223
0.351861
0.396912
0.429224
0.453503
0.478167
0.50283
0.502702
0.50246
0.502198
0.50184
0.518713
0.555185
0.593814
0.619414
0.630919
0.659118
0.686667
0.714563
0.740063
0.760761
0.759603
0.75834
0.757076
0.755562
0.754047
0.752438
0.750769
0.748943
0.746961
0.713299
0.634186
0.556294
0.479632
0.404114
0.330354
0.242082
0.181483
0.122507
0.0821751
0.0956638
0.148199
0.211747
0.260794
0.259244
0.257707
0.256175
0.254584
0.252935
0.251301
0.249792
0.248322
0.246843
0.245341
0.243908
0.242525
0.241248
0.239963
0.238736
0.244499
0.2506
0.259288
0.267994
0.273734
0.279361
0.278162
0.276956
0.275828
0.274872
0.274061
0.273225
0.272385
0.271667
0.271112
0.270679
0.270294
0.269977
0.269823
0.269769
0.269728
0.269778
0.269912
0.270119
0.270353
0.270887
0.247947
0.21068
0.171166
0.0796498
0.0986892
0.148608
0.197797
0.215891
0.244312
0.274212
0.302444
0.326325
0.354827
0.386561
0.417883
0.448625
0.476474
0.494308
0.500701
0.500853
0.50093
0.501014
0.501109
0.501085
0.501017
0.534575
0.57424
0.616531
0.644615
0.674874
0.705006
0.734382
0.761312
0.763928
0.762826
0.761681
0.760599
0.759279
0.757961
0.697224
0.614601
0.533152
0.452913
0.374232
0.288997
0.208469
0.153958
0.0991967
0.089154
0.132467
0.195744
0.264285
0.269857
0.268244
0.266532
0.264765
0.263111
0.26154
0.25999
0.258458
0.256902
0.255332
0.25375
0.252185
0.250633
0.249145
0.247645
0.246184
0.24477
0.243443
0.242135
0.247072
0.25325
0.262018
0.271006
0.277004
0.282713
0.281405
0.280136
0.278918
0.277751
0.276669
0.275631
0.274703
0.273854
0.273035
0.272276
0.271628
0.271106
0.270692
0.270302
0.269958
0.269737
0.269635
0.269604
0.269614
0.24446
0.207795
0.172773
0.122838
0.0763246
0.0582829
0.0502731
0.0972445
0.159716
0.169661
0.294718
0.323027
0.357046
0.392523
0.427398
0.454224
0.457752
0.460731
0.463552
0.46598
0.474872
0.492102
0.498085
0.498534
0.498923
0.499258
0.499583
0.50759
0.549317
0.592929
0.654201
0.686909
0.719779
0.750548
0.767503
0.766725
0.765731
0.697767
0.610115
0.523917
0.439235
0.356252
0.264095
0.193875
0.13632
0.0948764
0.111368
0.168421
0.237653
0.279999
0.27842
0.276839
0.275327
0.273737
0.27218
0.270629
0.268959
0.26724
0.265549
0.26385
0.262212
0.260692
0.259174
0.257566
0.255936
0.254408
0.252904
0.251388
0.249841
0.248332
0.246893
0.245569
0.249152
0.255565
0.264208
0.273429
0.279959
0.285845
0.284783
0.283482
0.282142
0.280766
0.279506
0.278391
0.277351
0.276296
0.275263
0.274398
0.273614
0.272811
0.27207
0.271488
0.271033
0.270608
0.270159
0.269789
0.241315
0.20382
0.168008
0.115467
0.0717439
0.0494833
0.0390813
0.0592333
0.0708131
0.0729797
0.0681268
0.233001
0.282833
0.272881
0.412857
0.433967
0.43936
0.444196
0.44866
0.452786
0.456317
0.459488
0.462269
0.464784
0.473265
0.489842
0.495532
0.496327
0.496979
0.497509
0.519511
0.566692
0.649858
0.694518
0.730205
0.719729
0.632604
0.539979
0.448955
0.35978
0.262958
0.193785
0.136106
0.102978
0.131606
0.195012
0.26874
0.288687
0.287087
0.285348
0.28365
0.282069
0.280472
0.27903
0.277556
0.275889
0.274316
0.272833
0.271255
0.26962
0.267972
0.266252
0.264533
0.262908
0.261352
0.259806
0.258216
0.256601
0.255044
0.253581
0.252063
0.250485
0.248926
0.250269
0.256961
0.265389
0.274984
0.282432
0.2885
0.288275
0.286832
0.285491
0.284166
0.282832
0.281476
0.280195
0.279048
0.277907
0.276822
0.275782
0.274847
0.274014
0.273202
0.272449
0.27182
0.271263
0.239038
0.200688
0.164145
0.109135
0.0675464
0.0462034
0.0425391
0.0671636
0.0768526
0.0752218
0.0734357
0.07161
0.0703692
0.0724514
0.0676681
0.340307
0.357624
0.337814
0.379547
0.431718
0.437354
0.442419
0.447084
0.45102
0.45497
0.458198
0.461064
0.463704
0.471604
0.487468
0.492805
0.49381
0.494657
0.530737
0.542652
0.520737
0.460095
0.397367
0.296211
0.210842
0.157367
0.115822
0.138072
0.202562
0.280274
0.298375
0.296625
0.2949
0.293018
0.291186
0.289517
0.287738
0.286047
0.284375
0.282604
0.281078
0.27964
0.278063
0.276487
0.274914
0.273323
0.271784
0.270244
0.26858
0.266868
0.265208
0.263587
0.261977
0.260395
0.258827
0.257237
0.255682
0.254185
0.252689
0.251137
0.257748
0.265532
0.275383
0.28416
0.290541
0.291944
0.290328
0.288838
0.287427
0.286055
0.284657
0.28329
0.282049
0.280803
0.279596
0.278418
0.277351
0.27636
0.275347
0.274361
0.273502
0.237178
0.198278
0.16124
0.103312
0.0634731
0.0422796
0.0452648
0.0738283
0.0819161
0.0805859
0.0792053
0.0777717
0.0762682
0.0747089
0.0729952
0.0712691
0.0701306
0.0721239
0.0673805
0.341791
0.365652
0.347647
0.328709
0.427657
0.435304
0.440696
0.445302
0.44961
0.453479
0.456848
0.459835
0.462474
0.469798
0.436019
0.334671
0.235795
0.198868
0.180468
0.170148
0.146172
0.132544
0.182674
0.260489
0.306411
0.305074
0.303543
0.301989
0.30055
0.298979
0.297476
0.295681
0.293815
0.292038
0.290198
0.288497
0.286759
0.284937
0.283312
0.281695
0.280073
0.278598
0.277062
0.275399
0.273822
0.272321
0.270725
0.269081
0.267443
0.265802
0.264171
0.262554
0.260947
0.259382
0.257847
0.256279
0.254715
0.257756
0.264847
0.274908
0.285059
0.291682
0.295472
0.293956
0.292398
0.29087
0.289423
0.288052
0.286619
0.285203
0.283835
0.282601
0.281353
0.280076
0.278889
0.27779
0.276681
0.235753
0.196131
0.15869
0.0977943
0.0598964
0.0381666
0.0480102
0.0799958
0.0857731
0.0846678
0.0836455
0.082557
0.0813239
0.0800308
0.0787103
0.0773194
0.0758528
0.0743396
0.072716
0.0711181
0.0700607
0.0719322
0.0672425
0.343389
0.364066
0.359037
0.332688
0.381926
0.433457
0.438832
0.443791
0.448114
0.451984
0.375786
0.251772
0.130614
0.108153
0.294619
0.383382
0.311374
0.249646
0.287628
0.313493
0.311817
0.310214
0.308649
0.307273
0.305822
0.304315
0.302804
0.301176
0.299746
0.298144
0.296475
0.29471
0.292769
0.291013
0.289256
0.287375
0.285652
0.283921
0.282241
0.280673
0.279058
0.277429
0.275907
0.274368
0.272739
0.271133
0.269543
0.267927
0.266306
0.264709
0.263102
0.26148
0.259896
0.258352
0.256814
0.264146
0.27327
0.283916
0.292464
0.299115
0.297616
0.295965
0.294312
0.292749
0.291318
0.289875
0.28845
0.287012
0.285656
0.284331
0.283009
0.281806
0.276065
0.234639
0.194623
0.15675
0.0923655
0.0568626
0.0342916
0.050915
0.0859458
0.0889386
0.0881025
0.0872445
0.0862947
0.0852448
0.0842019
0.0831731
0.082066
0.0808937
0.0796773
0.0783645
0.0769659
0.0755397
0.0741103
0.0725931
0.0710823
0.0700585
0.071822
0.0672158
0.34469
0.365842
0.363319
0.351697
0.33129
0.428546
0.405291
0.26512
0.128327
0.0766278
0.229993
0.3459
0.444985
0.563186
0.588121
0.449146
0.325804
0.316499
0.314879
0.313185
0.311405
0.309795
0.308274
0.306814
0.3053
0.303608
0.302069
0.300405
0.298828
0.297244
0.295438
0.29367
0.291807
0.289898
0.288134
0.28626
0.284449
0.282849
0.281195
0.279485
0.277883
0.276352
0.274815
0.273225
0.271557
0.26991
0.268327
0.266743
0.265119
0.26352
0.261947
0.260336
0.262036
0.269892
0.281112
0.292304
0.299304
0.301622
0.299902
0.298207
0.296462
0.29477
0.293202
0.291742
0.290299
0.288812
0.287425
0.286033
0.275332
0.233304
0.192996
0.151721
0.0872926
0.0506121
0.0309387
0.0543469
0.091741
0.0911516
0.0906235
0.0900497
0.0893202
0.0884568
0.0876018
0.0867858
0.0858568
0.0848128
0.0838047
0.0828271
0.0817805
0.0806438
0.0793916
0.0780452
0.0767103
0.0753997
0.0740536
0.0725866
0.0751061
0.0788232
0.0849074
0.0873792
0.345794
0.367633
0.365016
0.322991
0.186943
0.0607123
0.178477
0.343034
0.448547
0.566013
0.612934
0.613279
0.566998
0.510126
0.403839
0.319347
0.317843
0.3163
0.31459
0.312765
0.310943
0.309314
0.307831
0.306242
0.304706
0.302984
0.301302
0.299603
0.297839
0.296248
0.294477
0.292552
0.290705
0.288741
0.286823
0.28504
0.283374
0.281683
0.279982
0.278318
0.276724
0.275218
0.273672
0.272007
0.2703
0.268671
0.267096
0.265533
0.263954
0.262334
0.266863
0.276305
0.288143
0.298405
0.305679
0.304008
0.302187
0.300405
0.298631
0.296896
0.29521
0.293561
0.291991
0.290542
0.274791
0.23245
0.191737
0.146312
0.0817195
0.0440389
0.0280898
0.0579466
0.0932664
0.0929466
0.0925434
0.0919952
0.0914291
0.0909371
0.0903888
0.0896956
0.0889126
0.0881018
0.0873085
0.0864424
0.0854458
0.0844565
0.0835495
0.0825952
0.0815213
0.0803584
0.0791124
0.0812987
0.084778
0.0882496
0.091666
0.097416
0.103765
0.108016
0.114139
0.113884
0.346954
0.233373
0.111066
0.188845
0.38516
0.569915
0.630955
0.613131
0.613747
0.614289
0.59617
0.533545
0.44723
0.353823
0.31706
0.3193
0.317738
0.31604
0.314217
0.312326
0.310514
0.30875
0.307207
0.305579
0.303974
0.302274
0.300398
0.298681
0.296922
0.295176
0.293439
0.291423
0.289395
0.287502
0.285643
0.283854
0.281678
0.280448
0.278733
0.277131
0.27558
0.274032
0.272424
0.270709
0.268969
0.267366
0.265846
0.264263
0.270998
0.281948
0.294354
0.303823
0.30812
0.306268
0.304499
0.302702
0.300849
0.299052
0.297353
0.295674
0.274503
0.2315
0.190595
0.141461
0.0766124
0.0369053
0.026954
0.0626584
0.0945964
0.0942721
0.0939483
0.0935945
0.0931962
0.0927413
0.0923439
0.0918431
0.091291
0.0906979
0.0900637
0.0893946
0.088667
0.087855
0.0870044
0.0861109
0.0852011
0.0843214
0.0868593
0.0904944
0.0940989
0.0977071
0.103278
0.10978
0.114022
0.117335
0.120632
0.123907
0.123058
0.122071
0.123087
0.11796
0.090547
0.307781
0.497199
0.633473
0.64631
0.663375
0.672309
0.628099
0.616026
0.568943
0.502308
0.416225
0.329334
0.288685
0.317901
0.31946
0.317721
0.315852
0.313965
0.311956
0.310071
0.308209
0.306555
0.304932
0.303126
0.30138
0.299467
0.297657
0.296001
0.294124
0.292183
0.290213
0.288162
0.286204
0.284458
0.282729
0.28093
0.279142
0.277494
0.275928
0.274398
0.272772
0.271042
0.269349
0.267729
0.266107
0.274321
0.286632
0.299645
0.308597
0.310354
0.308458
0.306651
0.304858
0.303028
0.301194
0.275308
0.231977
0.190701
0.137191
0.0717882
0.0300587
0.0270976
0.0673788
0.0956661
0.0955108
0.0952516
0.0949033
0.0945975
0.0943489
0.0939674
0.0935507
0.0931147
0.0927258
0.092297
0.0917382
0.0911421
0.0905434
0.0899353
0.0892525
0.0884316
0.0920234
0.0958291
0.0996823
0.103502
0.109087
0.115475
0.119781
0.123356
0.126911
0.130407
0.130329
0.12897
0.127538
0.126125
0.124655
0.123225
0.122298
0.123308
0.118244
0.535371
0.607007
0.620718
0.634693
0.647431
0.658736
0.673867
0.657191
0.551335
0.47324
0.409835
0.324049
0.271698
0.289089
0.318617
0.319408
0.317553
0.315567
0.313604
0.311487
0.309497
0.307681
0.305897
0.304231
0.302277
0.300375
0.298574
0.296655
0.294849
0.293017
0.290969
0.288865
0.28687
0.284966
0.283203
0.281394
0.279544
0.277878
0.276321
0.274682
0.272984
0.271347
0.269734
0.26804
0.276862
0.290225
0.303906
0.312781
0.312678
0.31069
0.30881
0.306966
0.277076
0.233216
0.191749
0.134521
0.068149
0.0231482
0.0286303
0.0722916
0.0962878
0.096183
0.0961033
0.0959401
0.0957375
0.095498
0.0952507
0.0949656
0.0946892
0.094373
0.0939973
0.0935848
0.0931241
0.0926974
0.0922057
0.093832
0.0978395
0.101773
0.105615
0.109407
0.115291
0.121569
0.125426
0.129137
0.13278
0.136397
0.136437
0.135273
0.1341
0.132854
0.131555
0.130256
0.128926
0.127533
0.126189
0.124799
0.123442
0.122568
0.123538
0.118512
0.57075
0.609623
0.622848
0.636202
0.64868
0.659964
0.643815
0.583304
0.498867
0.422124
0.317802
0.267279
0.270929
0.289435
0.319194
0.31918
0.317231
0.315161
0.313056
0.310911
0.308822
0.307067
0.305181
0.303356
0.30146
0.299405
0.297509
0.295658
0.293708
0.291726
0.289668
0.287539
0.285535
0.283609
0.281754
0.279956
0.278248
0.276583
0.274916
0.27325
0.271639
0.27002
0.278735
0.292828
0.307054
0.316144
0.314987
0.312996
0.280665
0.236193
0.194233
0.1335
0.065784
0.0174798
0.0307191
0.0766676
0.0967069
0.0967092
0.0966235
0.0965764
0.0965509
0.0964805
0.0961809
0.0960293
0.0958137
0.0956177
0.0953332
0.0949845
0.0947386
0.0960579
0.100074
0.103978
0.107875
0.111903
0.116746
0.122671
0.127624
0.131342
0.1351
0.138886
0.14264
0.141798
0.14077
0.139674
0.138559
0.137428
0.136271
0.135117
0.133943
0.132729
0.131491
0.130218
0.128884
0.127527
0.126263
0.122538
0.104866
0.0876773
0.0747184
0.0425958
0.569451
0.61272
0.625559
0.638048
0.650188
0.616374
0.552391
0.50473
0.491897
0.381276
0.285275
0.251482
0.264627
0.289901
0.319854
0.319046
0.316943
0.314783
0.312487
0.310338
0.308158
0.306301
0.304448
0.302402
0.300428
0.298473
0.296465
0.294486
0.292474
0.290412
0.288329
0.286151
0.284049
0.282131
0.280377
0.278595
0.276789
0.275117
0.273514
0.271848
0.279509
0.294216
0.309267
0.318985
0.287123
0.24175
0.199322
0.136264
0.0662451
0.014797
0.0329729
0.0802113
0.096808
0.096875
0.0969242
0.0969245
0.0969289
0.0969251
0.0969058
0.0968586
0.0967572
0.0966549
0.0964192
0.0995547
0.103411
0.107329
0.111189
0.115114
0.119547
0.124972
0.129908
0.133738
0.137699
0.141743
0.145647
0.147215
0.146263
0.145333
0.144481
0.143574
0.142585
0.14159
0.140583
0.139528
0.138428
0.137281
0.136117
0.134984
0.133851
0.132672
0.122998
0.106015
0.0894254
0.0736001
0.0565735
0.0251092
0.0155717
0.0215445
0.0344589
0.0577189
0.56836
0.61604
0.628464
0.640475
0.591016
0.524272
0.493612
0.486723
0.408636
0.364738
0.343262
0.299967
0.269401
0.272423
0.30898
0.313732
0.316651
0.314383
0.311925
0.309729
0.307585
0.305425
0.30347
0.301513
0.299435
0.297384
0.295308
0.293255
0.291233
0.289079
0.286831
0.284651
0.282675
0.280756
0.27889
0.277132
0.275435
0.273701
0.279238
0.294063
0.283639
0.250314
0.207863