/*--------------------------------*- C++ -*----------------------------------*\
| =========                 |                                                 |
| \\      /  F ield         | foam-extend: Open Source CFD                    |
|  \\    /   O peration     | Version:     4.1                                |
|   \\  /    A nd           | Web:         http://www.foam-extend.org         |
|    \\/     M anipulation  |                                                 |
\*---------------------------------------------------------------------------*/
FoamFile
{
    version     2.0;
    format      ascii;
    class       volScalarField;
    location    "1";
    object      sigmaEq;
}
// * * * * * * * * * * * * * * * * * * * * * * * * * * * * * * * * * * * * * //

dimensions      [1 -1 -2 0 0 0 0];

internalField   nonuniform List<scalar> 
100000
(
4.59233e+10
6.50017e+10
6.40356e+10
6.2473e+10
6.13022e+10
6.01459e+10
5.90887e+10
5.80752e+10
5.71378e+10
5.62912e+10
5.55077e+10
5.47312e+10
5.40736e+10
5.66347e+10
6.82007e+10
7.75817e+10
7.54097e+10
7.33524e+10
7.14267e+10
6.95597e+10
6.77574e+10
6.61236e+10
6.45433e+10
6.3033e+10
6.16558e+10
6.03977e+10
5.91962e+10
5.80391e+10
5.69223e+10
5.58498e+10
5.48321e+10
5.38357e+10
5.29148e+10
5.20491e+10
5.1171e+10
5.03333e+10
4.95658e+10
4.88528e+10
4.81742e+10
4.7536e+10
4.69454e+10
4.63701e+10
4.58153e+10
4.5277e+10
4.47622e+10
4.42564e+10
4.37846e+10
4.33197e+10
4.28698e+10
4.24188e+10
4.20049e+10
4.15942e+10
4.1203e+10
4.08431e+10
4.04985e+10
4.01785e+10
3.9844e+10
3.95458e+10
3.92399e+10
3.89356e+10
3.86307e+10
3.83304e+10
3.80627e+10
3.77966e+10
3.75398e+10
3.72867e+10
3.7048e+10
3.68134e+10
3.65801e+10
3.63534e+10
3.61316e+10
3.59213e+10
3.57144e+10
3.5505e+10
3.52881e+10
3.50774e+10
3.48729e+10
3.46602e+10
3.44387e+10
3.42181e+10
3.52326e+10
3.68818e+10
3.85301e+10
4.01927e+10
4.18891e+10
4.36233e+10
4.54167e+10
4.75003e+10
4.9759e+10
5.17712e+10
5.38947e+10
5.6162e+10
5.86332e+10
6.13519e+10
6.43532e+10
6.64134e+10
6.81629e+10
7.00944e+10
7.40714e+10
8.28746e+10
4.54838e+10
6.41415e+10
6.31629e+10
6.17247e+10
6.06112e+10
5.95025e+10
5.84895e+10
5.75421e+10
5.66518e+10
5.58429e+10
5.51003e+10
5.43453e+10
5.36907e+10
5.67983e+10
6.83979e+10
7.72419e+10
7.50922e+10
7.30939e+10
7.11798e+10
6.93564e+10
6.76056e+10
6.59776e+10
6.44205e+10
6.29596e+10
6.16227e+10
6.03817e+10
5.91997e+10
5.8073e+10
5.70085e+10
5.59799e+10
5.49884e+10
5.40239e+10
5.32939e+10
5.22494e+10
5.14216e+10
5.06102e+10
4.98506e+10
4.91442e+10
4.84891e+10
4.78647e+10
4.72815e+10
4.67243e+10
4.6193e+10
4.56723e+10
4.51817e+10
4.46972e+10
4.42339e+10
4.37714e+10
4.33395e+10
4.29009e+10
4.24813e+10
4.20803e+10
4.16976e+10
4.13506e+10
4.09948e+10
4.0687e+10
4.03665e+10
4.00609e+10
3.97644e+10
3.94659e+10
3.91863e+10
3.88966e+10
3.86271e+10
3.83638e+10
3.811e+10
3.7869e+10
3.76345e+10
3.74082e+10
3.71838e+10
3.69616e+10
3.6744e+10
3.65436e+10
3.63492e+10
3.74031e+10
3.91763e+10
4.09377e+10
4.26826e+10
4.44021e+10
4.60927e+10
4.78183e+10
4.9721e+10
5.15571e+10
5.33109e+10
5.50969e+10
5.6939e+10
5.88475e+10
6.08144e+10
6.25129e+10
6.27594e+10
6.30865e+10
6.35009e+10
6.40397e+10
6.47117e+10
6.55302e+10
6.65171e+10
6.76772e+10
6.87595e+10
6.95545e+10
7.07581e+10
7.05537e+10
4.49036e+10
6.3245e+10
6.22924e+10
6.09151e+10
5.98642e+10
5.88448e+10
5.78812e+10
5.69642e+10
5.61325e+10
5.53482e+10
5.46609e+10
5.39872e+10
5.33057e+10
5.68575e+10
6.85393e+10
7.682e+10
7.47575e+10
7.27477e+10
7.09375e+10
6.91447e+10
6.74081e+10
6.58145e+10
6.43145e+10
6.28757e+10
6.1544e+10
6.03288e+10
5.91895e+10
5.80996e+10
5.70696e+10
5.60903e+10
5.51509e+10
5.42438e+10
5.33351e+10
5.2482e+10
5.16879e+10
5.08935e+10
5.01364e+10
4.94269e+10
4.87718e+10
4.81601e+10
4.76004e+10
4.7063e+10
4.65535e+10
4.60553e+10
4.55849e+10
4.51163e+10
4.46804e+10
4.42404e+10
4.38099e+10
4.33741e+10
4.29568e+10
4.25714e+10
4.2177e+10
4.18411e+10
4.1496e+10
4.11829e+10
4.08694e+10
4.05627e+10
4.02919e+10
3.99995e+10
3.97215e+10
3.94451e+10
3.91795e+10
3.8927e+10
3.86771e+10
3.84413e+10
3.82135e+10
3.97981e+10
4.18009e+10
4.37595e+10
4.56891e+10
4.75811e+10
4.93983e+10
5.13052e+10
5.32028e+10
5.5031e+10
5.6828e+10
5.8597e+10
6.0354e+10
6.21154e+10
6.26897e+10
6.26559e+10
6.26421e+10
6.2677e+10
6.27576e+10
6.28795e+10
6.30261e+10
6.32031e+10
6.34502e+10
6.37517e+10
6.41084e+10
6.45173e+10
6.49603e+10
6.54121e+10
6.58184e+10
6.60504e+10
6.58892e+10
6.52036e+10
6.51674e+10
6.75034e+10
4.43647e+10
6.23087e+10
6.14547e+10
6.01121e+10
5.91238e+10
5.81403e+10
5.72509e+10
5.63986e+10
5.56025e+10
5.48889e+10
5.41922e+10
5.35938e+10
5.29505e+10
5.68685e+10
6.86458e+10
7.63533e+10
7.43861e+10
7.24285e+10
7.06139e+10
6.89114e+10
6.72348e+10
6.56322e+10
6.41518e+10
6.27763e+10
6.14878e+10
6.02845e+10
5.91632e+10
5.80984e+10
5.70971e+10
5.61561e+10
5.52518e+10
5.43775e+10
5.35364e+10
5.26948e+10
5.19015e+10
5.11394e+10
5.04117e+10
4.97101e+10
4.90613e+10
4.84572e+10
4.79017e+10
4.73685e+10
4.68774e+10
4.63985e+10
4.59502e+10
4.55015e+10
4.50801e+10
4.46549e+10
4.42311e+10
4.38178e+10
4.34055e+10
4.3039e+10
4.26425e+10
4.23072e+10
4.19753e+10
4.1647e+10
4.13516e+10
4.10525e+10
4.07913e+10
4.05145e+10
4.02394e+10
4.03376e+10
4.26623e+10
4.49394e+10
4.71559e+10
4.93247e+10
5.13037e+10
5.34005e+10
5.54828e+10
5.74875e+10
5.94587e+10
6.13834e+10
6.3277e+10
6.38934e+10
6.37716e+10
6.36598e+10
6.35465e+10
6.34401e+10
6.33517e+10
6.32818e+10
6.32267e+10
6.31839e+10
6.31713e+10
6.31996e+10
6.32569e+10
6.334e+10
6.34382e+10
6.35741e+10
6.37385e+10
6.3916e+10
6.4095e+10
6.42603e+10
6.47982e+10
6.73736e+10
6.9828e+10
7.20075e+10
7.38211e+10
7.56026e+10
7.84783e+10
8.35831e+10
4.38479e+10
6.1354e+10
6.05858e+10
5.93072e+10
5.83853e+10
5.74587e+10
5.65944e+10
5.58209e+10
5.50713e+10
5.43982e+10
5.37651e+10
5.31757e+10
5.26146e+10
5.68585e+10
6.86695e+10
7.58962e+10
7.39374e+10
7.20708e+10
7.0313e+10
6.86205e+10
6.69956e+10
6.54532e+10
6.40056e+10
6.26503e+10
6.13883e+10
6.02146e+10
5.91216e+10
5.80842e+10
5.71037e+10
5.61824e+10
5.53122e+10
5.44735e+10
5.36622e+10
5.28684e+10
5.21092e+10
5.13672e+10
5.06553e+10
4.99734e+10
4.93468e+10
4.87522e+10
4.82039e+10
4.76839e+10
4.7213e+10
4.67449e+10
4.63053e+10
4.58763e+10
4.54624e+10
4.50502e+10
4.46348e+10
4.42505e+10
4.38372e+10
4.34798e+10
4.31013e+10
4.27525e+10
4.24359e+10
4.21063e+10
4.18255e+10
4.38812e+10
4.65206e+10
4.90837e+10
5.1499e+10
5.36549e+10
5.60055e+10
5.83513e+10
6.06281e+10
6.28548e+10
6.50262e+10
6.53147e+10
6.51358e+10
6.49597e+10
6.47972e+10
6.46457e+10
6.45006e+10
6.43657e+10
6.42409e+10
6.41221e+10
6.40077e+10
6.3901e+10
6.37985e+10
6.37139e+10
6.36463e+10
6.3594e+10
6.35664e+10
6.35574e+10
6.35465e+10
6.35926e+10
6.43081e+10
6.68029e+10
6.93024e+10
7.1797e+10
7.42665e+10
7.68185e+10
8.00668e+10
8.32676e+10
8.54411e+10
8.73134e+10
8.89101e+10
9.00349e+10
9.51936e+10
9.88113e+10
4.32644e+10
6.0376e+10
5.96959e+10
5.84823e+10
5.76074e+10
5.67396e+10
5.59386e+10
5.51845e+10
5.45283e+10
5.38626e+10
5.33095e+10
5.27402e+10
5.22285e+10
5.6839e+10
6.86614e+10
7.53748e+10
7.35096e+10
7.16769e+10
6.9957e+10
6.833e+10
6.67532e+10
6.52369e+10
6.38147e+10
6.24925e+10
6.12716e+10
6.01367e+10
5.90743e+10
5.80693e+10
5.71218e+10
5.62284e+10
5.53886e+10
5.45822e+10
5.38012e+10
5.30346e+10
5.22995e+10
5.15788e+10
5.08912e+10
5.02293e+10
4.96149e+10
4.9028e+10
4.84972e+10
4.79948e+10
4.75392e+10
4.70919e+10
4.66626e+10
4.62487e+10
4.58375e+10
4.54432e+10
4.50291e+10
4.4663e+10
4.42595e+10
4.38963e+10
4.35449e+10
4.6109e+10
4.90697e+10
5.19365e+10
5.43438e+10
5.68888e+10
5.9606e+10
6.22649e+10
6.48282e+10
6.69466e+10
6.67302e+10
6.65263e+10
6.63338e+10
6.61431e+10
6.59529e+10
6.57517e+10
6.55629e+10
6.53922e+10
6.52263e+10
6.50686e+10
6.49229e+10
6.47799e+10
6.465e+10
6.45233e+10
6.4394e+10
6.42723e+10
6.41498e+10
6.4052e+10
6.50206e+10
6.73792e+10
6.97518e+10
7.21388e+10
7.4513e+10
7.70491e+10
8.00633e+10
8.29997e+10
8.54123e+10
8.77929e+10
9.01218e+10
9.23778e+10
9.76011e+10
1.01834e+11
1.0592e+11
1.09784e+11
1.13445e+11
1.18691e+11
1.25285e+11
1.3075e+11
4.27076e+10
5.937e+10
5.87639e+10
5.7641e+10
5.68328e+10
5.60248e+10
5.52736e+10
5.45606e+10
5.39365e+10
5.33351e+10
5.27756e+10
5.23411e+10
5.18193e+10
5.67678e+10
6.85948e+10
7.48649e+10
7.30035e+10
7.1266e+10
6.96083e+10
6.80034e+10
6.6465e+10
6.50054e+10
6.36343e+10
6.23408e+10
6.11325e+10
6.0025e+10
5.90098e+10
5.80481e+10
5.71314e+10
5.62644e+10
5.54562e+10
5.46778e+10
5.39257e+10
5.3186e+10
5.2473e+10
5.17676e+10
5.10968e+10
5.0455e+10
4.98618e+10
4.92873e+10
4.87667e+10
4.82787e+10
4.78289e+10
4.73996e+10
4.69793e+10
4.65861e+10
4.61819e+10
4.58113e+10
4.54085e+10
4.68924e+10
5.02258e+10
5.34578e+10
5.60196e+10
5.87945e+10
6.18812e+10
6.48826e+10
6.77822e+10
6.8216e+10
6.79895e+10
6.77762e+10
6.75585e+10
6.73521e+10
6.71447e+10
6.69431e+10
6.67551e+10
6.65556e+10
6.6352e+10
6.61577e+10
6.5962e+10
6.57796e+10
6.56102e+10
6.54439e+10
6.52921e+10
6.51394e+10
6.60393e+10
6.84307e+10
7.08034e+10
7.3158e+10
7.55054e+10
7.53636e+10
8.07902e+10
8.34657e+10
8.58205e+10
8.81714e+10
8.82769e+10
9.38252e+10
9.96595e+10
1.03887e+11
1.08136e+11
1.12353e+11
1.16522e+11
1.21721e+11
1.27628e+11
1.32168e+11
1.3603e+11
1.39677e+11
1.43181e+11
1.46351e+11
1.45471e+11
1.43008e+11
4.21466e+10
5.83697e+10
5.78527e+10
5.67865e+10
5.60342e+10
5.53113e+10
5.46198e+10
5.39655e+10
5.33494e+10
5.28633e+10
5.22776e+10
5.18632e+10
5.1435e+10
5.66643e+10
6.84764e+10
7.42927e+10
7.25276e+10
7.08026e+10
6.91919e+10
6.7667e+10
6.61875e+10
6.47548e+10
6.34047e+10
6.21459e+10
6.09696e+10
5.98798e+10
5.8885e+10
5.79593e+10
5.70904e+10
5.626e+10
5.54786e+10
5.47301e+10
5.40192e+10
5.33184e+10
5.26347e+10
5.19555e+10
5.13076e+10
5.0676e+10
5.00917e+10
4.95325e+10
4.90173e+10
4.85417e+10
4.80963e+10
4.76878e+10
4.72737e+10
4.68992e+10
4.95393e+10
5.32655e+10
5.63631e+10
5.92605e+10
6.26433e+10
6.60644e+10
6.93846e+10
6.95601e+10
6.92962e+10
6.90534e+10
6.88152e+10
6.8594e+10
6.8369e+10
6.81509e+10
6.79342e+10
6.77225e+10
6.75229e+10
6.73208e+10
6.71181e+10
6.69194e+10
6.67103e+10
6.651e+10
6.65599e+10
6.90864e+10
7.15871e+10
7.40519e+10
7.64801e+10
7.89832e+10
8.17392e+10
8.44028e+10
8.6755e+10
8.90823e+10
9.18431e+10
9.82946e+10
1.0371e+11
1.07753e+11
1.11802e+11
1.15861e+11
1.20133e+11
1.25342e+11
1.30576e+11
1.34699e+11
1.38798e+11
1.42842e+11
1.46826e+11
1.50768e+11
1.51132e+11
1.50091e+11
1.48875e+11
1.47428e+11
1.45863e+11
1.43946e+11
1.42921e+11
1.40651e+11
4.15894e+10
5.73393e+10
5.68745e+10
5.59332e+10
5.52269e+10
5.4575e+10
5.39299e+10
5.33733e+10
5.2752e+10
5.22966e+10
5.18362e+10
5.13785e+10
5.10172e+10
5.65118e+10
6.83389e+10
7.37124e+10
7.19854e+10
7.03492e+10
6.87917e+10
6.73023e+10
6.58744e+10
6.45014e+10
6.31977e+10
6.19729e+10
6.08244e+10
5.97544e+10
5.8776e+10
5.78703e+10
5.70338e+10
5.62433e+10
5.55029e+10
5.47879e+10
5.41048e+10
5.34348e+10
5.27827e+10
5.21283e+10
5.15027e+10
5.08937e+10
5.03215e+10
4.97801e+10
4.92698e+10
4.88105e+10
4.83656e+10
5.10012e+10
5.50876e+10
5.82308e+10
6.1506e+10
6.53743e+10
6.9227e+10
7.09886e+10
7.07329e+10
7.04474e+10
7.01666e+10
6.99042e+10
6.9644e+10
6.94089e+10
6.91803e+10
6.89455e+10
6.87164e+10
6.84938e+10
6.82809e+10
6.80661e+10
6.78603e+10
6.88325e+10
7.15256e+10
7.41747e+10
7.67815e+10
7.93593e+10
8.21537e+10
8.50434e+10
8.75124e+10
9.10056e+10
9.75108e+10
1.03984e+11
1.09398e+11
1.13302e+11
1.17194e+11
1.21165e+11
1.25916e+11
1.3083e+11
1.34786e+11
1.38739e+11
1.4269e+11
1.46647e+11
1.50592e+11
1.53734e+11
1.53314e+11
1.52841e+11
1.52287e+11
1.51631e+11
1.50887e+11
1.50037e+11
1.49038e+11
1.47894e+11
1.46617e+11
1.45153e+11
1.43638e+11
1.41836e+11
1.40929e+11
1.38796e+11
4.10042e+10
5.63392e+10
5.5918e+10
5.50287e+10
5.43945e+10
5.3819e+10
5.32152e+10
5.27019e+10
5.22108e+10
5.17021e+10
5.13298e+10
5.0934e+10
5.05608e+10
5.63438e+10
6.81246e+10
7.31166e+10
7.14473e+10
6.98437e+10
6.83327e+10
6.69123e+10
6.55556e+10
6.42374e+10
6.29688e+10
6.17799e+10
6.06793e+10
5.96518e+10
5.87e+10
5.7811e+10
5.69928e+10
5.62182e+10
5.54932e+10
5.48019e+10
5.4146e+10
5.3504e+10
5.2883e+10
5.22596e+10
5.16542e+10
5.10721e+10
5.05148e+10
4.99959e+10
5.11763e+10
5.56693e+10
5.90881e+10
6.26066e+10
6.68627e+10
7.11603e+10
7.2112e+10
7.18403e+10
7.15936e+10
7.13159e+10
7.10432e+10
7.07724e+10
7.04927e+10
7.02356e+10
6.99837e+10
6.97381e+10
6.94991e+10
6.92632e+10
7.01507e+10
7.30703e+10
7.59371e+10
7.87655e+10
8.15791e+10
8.45535e+10
8.93868e+10
9.61736e+10
1.02908e+11
1.09595e+11
1.15973e+11
1.19831e+11
1.23816e+11
1.2837e+11
1.32893e+11
1.3673e+11
1.40563e+11
1.44381e+11
1.48199e+11
1.5202e+11
1.55406e+11
1.55109e+11
1.54788e+11
1.54436e+11
1.54065e+11
1.53667e+11
1.5323e+11
1.52738e+11
1.52185e+11
1.5158e+11
1.50899e+11
1.50127e+11
1.49282e+11
1.48322e+11
1.47239e+11
1.46054e+11
1.44762e+11
1.43324e+11
1.41875e+11
1.40176e+11
1.37957e+11
1.33492e+11
4.04125e+10
5.52762e+10
5.49478e+10
5.41339e+10
5.35648e+10
5.30359e+10
5.25388e+10
5.20122e+10
5.16115e+10
5.11627e+10
5.07976e+10
5.04657e+10
5.01413e+10
5.60934e+10
6.78998e+10
7.24853e+10
7.08527e+10
6.93234e+10
6.78695e+10
6.64832e+10
6.51638e+10
6.39001e+10
6.26868e+10
6.15371e+10
6.04651e+10
5.94672e+10
5.85504e+10
5.7693e+10
5.69073e+10
5.61738e+10
5.54824e+10
5.48121e+10
5.41739e+10
5.35552e+10
5.2957e+10
5.23675e+10
5.17869e+10
5.12375e+10
5.49543e+10
5.90912e+10
6.2524e+10
6.69216e+10
7.17405e+10
7.31479e+10
7.28993e+10
7.26344e+10
7.23943e+10
7.21323e+10
7.18812e+10
7.16194e+10
7.13387e+10
7.10786e+10
7.08104e+10
7.05492e+10
7.35444e+10
7.66771e+10
8.05153e+10
8.53664e+10
9.28042e+10
1.00179e+11
1.07251e+11
1.14253e+11
1.21173e+11
1.27064e+11
1.31588e+11
1.35892e+11
1.39725e+11
1.43542e+11
1.47334e+11
1.51112e+11
1.54879e+11
1.57581e+11
1.57232e+11
1.56879e+11
1.56522e+11
1.5616e+11
1.55803e+11
1.5544e+11
1.5507e+11
1.54686e+11
1.54275e+11
1.53844e+11
1.53389e+11
1.5289e+11
1.52348e+11
1.51753e+11
1.51106e+11
1.50403e+11
1.49621e+11
1.48774e+11
1.47844e+11
1.46812e+11
1.45691e+11
1.44498e+11
1.43215e+11
1.40485e+11
1.28846e+11
1.11822e+11
9.68202e+10
8.55411e+10
3.98279e+10
5.42456e+10
5.39884e+10
5.32315e+10
5.27391e+10
5.22462e+10
5.18323e+10
5.13732e+10
5.09634e+10
5.06196e+10
5.02624e+10
4.99936e+10
4.96975e+10
5.5845e+10
6.75737e+10
7.18612e+10
7.02818e+10
6.87777e+10
6.73678e+10
6.60411e+10
6.47774e+10
6.35569e+10
6.23786e+10
6.12668e+10
6.02403e+10
5.92845e+10
5.84005e+10
5.75743e+10
5.6816e+10
5.6116e+10
5.54619e+10
5.48259e+10
5.42113e+10
5.36214e+10
5.30432e+10
5.28546e+10
5.80381e+10
6.15914e+10
6.56082e+10
7.08036e+10
7.41535e+10
7.39004e+10
7.3654e+10
7.33874e+10
7.3149e+10
7.28914e+10
7.26503e+10
7.24022e+10
7.21391e+10
7.25288e+10
7.87049e+10
8.6634e+10
9.44331e+10
1.02134e+11
1.09911e+11
1.17369e+11
1.24961e+11
1.32793e+11
1.391e+11
1.43018e+11
1.46912e+11
1.50762e+11
1.54594e+11
1.58415e+11
1.60287e+11
1.59908e+11
1.59516e+11
1.59112e+11
1.58719e+11
1.58348e+11
1.57968e+11
1.57586e+11
1.57184e+11
1.5677e+11
1.56359e+11
1.55955e+11
1.55543e+11
1.55108e+11
1.54666e+11
1.54214e+11
1.53743e+11
1.53246e+11
1.52698e+11
1.52111e+11
1.5149e+11
1.50816e+11
1.5009e+11
1.49311e+11
1.48472e+11
1.4169e+11
1.26972e+11
1.12446e+11
9.69355e+10
8.16636e+10
6.60281e+10
4.42058e+10
2.62824e+10
1.65419e+10
1.34745e+10
3.00831e+10
3.92201e+10
5.31549e+10
5.29855e+10
5.23367e+10
5.18973e+10
5.14721e+10
5.10738e+10
5.07262e+10
5.03421e+10
5.00378e+10
4.97345e+10
4.95013e+10
4.92455e+10
5.55611e+10
6.72345e+10
7.11701e+10
6.96534e+10
6.82321e+10
6.68912e+10
6.56168e+10
6.43997e+10
6.32306e+10
6.21006e+10
6.10227e+10
6.00241e+10
5.91008e+10
5.82428e+10
5.74396e+10
5.67021e+10
5.6023e+10
5.5391e+10
5.47904e+10
5.42031e+10
5.46824e+10
6.00747e+10
6.35163e+10
6.81196e+10
7.39515e+10
7.48951e+10
7.46403e+10
7.43891e+10
7.41199e+10
7.38806e+10
7.54676e+10
7.99447e+10
8.47485e+10
9.32362e+10
1.01606e+11
1.09786e+11
1.17987e+11
1.26708e+11
1.34788e+11
1.42478e+11
1.50026e+11
1.54237e+11
1.58191e+11
1.62102e+11
1.63409e+11
1.62978e+11
1.62537e+11
1.62118e+11
1.61704e+11
1.61285e+11
1.60883e+11
1.60473e+11
1.60047e+11
1.59623e+11
1.59204e+11
1.5879e+11
1.58377e+11
1.57946e+11
1.57502e+11
1.57046e+11
1.566e+11
1.56156e+11
1.55698e+11
1.5522e+11
1.54727e+11
1.54235e+11
1.53731e+11
1.53203e+11
1.52633e+11
1.49523e+11
1.34607e+11
1.19888e+11
1.05397e+11
9.12143e+10
7.74572e+10
6.02487e+10
3.91713e+10
2.45621e+10
1.3111e+10
1.68799e+10
2.93702e+10
4.39784e+10
5.77826e+10
6.25909e+10
6.27638e+10
6.27366e+10
6.33499e+10
3.79422e+10
5.20932e+10
5.1953e+10
5.14e+10
5.10259e+10
5.06925e+10
5.03513e+10
5.0023e+10
4.97239e+10
4.94334e+10
4.92048e+10
4.89709e+10
4.87894e+10
5.52259e+10
6.68134e+10
7.04575e+10
6.90064e+10
6.76338e+10
6.63444e+10
6.51274e+10
6.39671e+10
6.28531e+10
6.17754e+10
6.07448e+10
5.97793e+10
5.88893e+10
5.80614e+10
5.7283e+10
5.65635e+10
5.59066e+10
5.52893e+10
5.56025e+10
6.10177e+10
6.47314e+10
6.98625e+10
7.5777e+10
7.55482e+10
8.01178e+10
8.48267e+10
8.94649e+10
9.40797e+10
9.86141e+10
1.06316e+11
1.15173e+11
1.24028e+11
1.32947e+11
1.4178e+11
1.50026e+11
1.58116e+11
1.65433e+11
1.66854e+11
1.6639e+11
1.65946e+11
1.65498e+11
1.65034e+11
1.64596e+11
1.64158e+11
1.63694e+11
1.6324e+11
1.62787e+11
1.62336e+11
1.6191e+11
1.61482e+11
1.61036e+11
1.60591e+11
1.60146e+11
1.59704e+11
1.59269e+11
1.58831e+11
1.58367e+11
1.57889e+11
1.5741e+11
1.56921e+11
1.5643e+11
1.55927e+11
1.55414e+11
1.40903e+11
1.25852e+11
1.1103e+11
9.64815e+10
8.22898e+10
6.70539e+10
4.6847e+10
3.34633e+10
1.99645e+10
1.10425e+10
1.78845e+10
3.22779e+10
4.82124e+10
5.83807e+10
6.0037e+10
6.16208e+10
6.19242e+10
6.20453e+10
6.22065e+10
6.24005e+10
6.26666e+10
6.27886e+10
6.26948e+10
6.32674e+10
2.5509e+10
5.05454e+10
5.09369e+10
5.04674e+10
5.01716e+10
4.98445e+10
4.96306e+10
4.93369e+10
4.90963e+10
4.88472e+10
4.86328e+10
4.84848e+10
4.82932e+10
5.48887e+10
6.6389e+10
6.97012e+10
6.82945e+10
6.69919e+10
6.57752e+10
6.46186e+10
6.351e+10
6.24498e+10
6.14229e+10
6.04463e+10
5.95268e+10
5.86778e+10
5.78901e+10
5.7152e+10
5.6455e+10
5.58204e+10
6.28179e+10
7.17624e+10
8.25039e+10
9.33334e+10
9.8228e+10
1.03088e+11
1.07578e+11
1.12324e+11
1.17588e+11
1.27127e+11
1.36479e+11
1.45802e+11
1.55133e+11
1.62182e+11
1.66043e+11
1.69445e+11
1.68996e+11
1.68539e+11
1.681e+11
1.67635e+11
1.67184e+11
1.66726e+11
1.66255e+11
1.65807e+11
1.6535e+11
1.64875e+11
1.64416e+11
1.63937e+11
1.63453e+11
1.62992e+11
1.62535e+11
1.6207e+11
1.61612e+11
1.61146e+11
1.60678e+11
1.60215e+11
1.59756e+11
1.59273e+11
1.58782e+11
1.46952e+11
1.31442e+11
1.16141e+11
1.01084e+11
8.6344e+10
7.20464e+10
5.18476e+10
3.79167e+10
2.45457e+10
1.40343e+10
1.54684e+10
2.68773e+10
4.04802e+10
5.20914e+10
5.3397e+10
5.48383e+10
5.67583e+10
5.87955e+10
6.03158e+10
6.17874e+10
6.19708e+10
6.19671e+10
6.20134e+10
6.20908e+10
6.21819e+10
6.23185e+10
6.24781e+10
6.26972e+10
6.2766e+10
6.26145e+10
6.31567e+10
7.68401e+09
4.19033e+10
4.99163e+10
4.94858e+10
4.93441e+10
4.90385e+10
4.88514e+10
4.86519e+10
4.8472e+10
4.82686e+10
4.8105e+10
4.7974e+10
4.78711e+10
5.45425e+10
6.59494e+10
6.89973e+10
6.76428e+10
6.63774e+10
6.52029e+10
6.40982e+10
6.30427e+10
6.20451e+10
6.10751e+10
6.01425e+10
6.06334e+10
6.44576e+10
6.8554e+10
7.28557e+10
8.29477e+10
9.27953e+10
1.03886e+11
1.15528e+11
1.20595e+11
1.25617e+11
1.30581e+11
1.36714e+11
1.46832e+11
1.51876e+11
1.56817e+11
1.61735e+11
1.66096e+11
1.70324e+11
1.71111e+11
1.70674e+11
1.70217e+11
1.69763e+11
1.69319e+11
1.6885e+11
1.68406e+11
1.67945e+11
1.67462e+11
1.67005e+11
1.6654e+11
1.66063e+11
1.65604e+11
1.65112e+11
1.64614e+11
1.64134e+11
1.63651e+11
1.63158e+11
1.62681e+11
1.62197e+11
1.5348e+11
1.37402e+11
1.21544e+11
1.05918e+11
9.05873e+10
7.56388e+10
5.64353e+10
4.08456e+10
2.82508e+10
1.68596e+10
1.54819e+10
2.55728e+10
3.89425e+10
5.30681e+10
5.35147e+10
5.32558e+10
5.30138e+10
5.27917e+10
5.41493e+10
5.55453e+10
5.74472e+10
5.94371e+10
6.08592e+10
6.22596e+10
6.23066e+10
6.22014e+10
6.21266e+10
6.20882e+10
6.2096e+10
6.21377e+10
6.21928e+10
6.22698e+10
6.23865e+10
6.25094e+10
6.26965e+10
6.27315e+10
6.25308e+10
6.30439e+10
7.00438e+09
3.57205e+10
4.89182e+10
4.85011e+10
4.8424e+10
4.82667e+10
4.80733e+10
4.79311e+10
4.77997e+10
4.76732e+10
4.75369e+10
4.74333e+10
4.73624e+10
5.41442e+10
6.54573e+10
6.82334e+10
6.69353e+10
6.57344e+10
6.46535e+10
6.79747e+10
7.17088e+10
7.57845e+10
8.0101e+10
8.38388e+10
8.64784e+10
9.03509e+10
9.86667e+10
1.11575e+11
1.24709e+11
1.38199e+11
1.42024e+11
1.41835e+11
1.42514e+11
1.48031e+11
1.53416e+11
1.58812e+11
1.64153e+11
1.68968e+11
1.73096e+11
1.72717e+11
1.723e+11
1.71882e+11
1.71427e+11
1.70975e+11
1.70519e+11
1.70039e+11
1.69594e+11
1.69135e+11
1.68656e+11
1.68193e+11
1.67712e+11
1.67231e+11
1.66773e+11
1.6628e+11
1.65779e+11
1.61098e+11
1.44353e+11
1.27819e+11
1.1155e+11
9.55457e+10
7.99047e+10
6.1532e+10
4.42795e+10
3.20099e+10
1.97151e+10
1.58842e+10
2.45332e+10
3.7752e+10
5.20539e+10
5.55091e+10
5.52036e+10
5.49246e+10
5.46451e+10
5.43657e+10
5.40842e+10
5.38081e+10
5.35916e+10
5.49683e+10
5.63375e+10
5.82588e+10
6.02388e+10
6.15887e+10
6.2928e+10
6.28316e+10
6.26613e+10
6.25097e+10
6.23789e+10
6.2286e+10
6.2221e+10
6.21812e+10
6.21819e+10
6.22113e+10
6.22498e+10
6.23062e+10
6.2394e+10
6.24932e+10
6.2661e+10
6.26624e+10
6.24199e+10
6.29204e+10
1.73375e+10
2.06612e+10
4.78847e+10
4.75967e+10
4.74907e+10
4.74546e+10
4.73325e+10
4.72215e+10
4.71143e+10
4.70658e+10
4.69487e+10
4.68948e+10
4.68367e+10
5.54173e+10
7.07624e+10
7.77518e+10
8.16411e+10
8.58824e+10
8.76683e+10
9.04529e+10
9.57831e+10
1.01181e+11
1.06594e+11
1.12008e+11
1.15671e+11
1.23576e+11
1.31637e+11
1.40227e+11
1.42551e+11
1.42396e+11
1.47648e+11
1.53512e+11
1.59405e+11
1.65248e+11
1.70574e+11
1.74452e+11
1.74112e+11
1.7377e+11
1.73383e+11
1.73002e+11
1.7259e+11
1.7216e+11
1.71698e+11
1.71216e+11
1.70767e+11
1.70295e+11
1.69819e+11
1.69366e+11
1.68875e+11
1.53069e+11
1.35779e+11
1.18702e+11
1.01913e+11
8.54592e+10
6.79133e+10
4.89388e+10
3.66273e+10
2.33161e+10
1.68801e+10
2.34581e+10
3.63585e+10
5.08708e+10
5.78009e+10
5.74503e+10
5.71082e+10
5.67599e+10
5.6417e+10
5.60751e+10
5.57525e+10
5.54462e+10
5.51599e+10
5.48801e+10
5.45929e+10
5.43461e+10
5.57216e+10
5.71029e+10
5.90683e+10
6.10615e+10
6.23899e+10
6.37012e+10
6.34685e+10
6.32497e+10
6.30556e+10
6.28656e+10
6.26889e+10
6.25397e+10
6.24352e+10
6.23557e+10
6.22812e+10
6.22384e+10
6.22408e+10
6.22535e+10
6.22695e+10
6.23116e+10
6.23839e+10
6.24602e+10
6.25982e+10
6.25648e+10
6.22902e+10
6.27831e+10
1.8538e+10
1.25874e+10
4.06251e+10
4.66629e+10
4.66332e+10
4.66255e+10
4.66184e+10
4.65624e+10
4.79578e+10
5.40503e+10
6.04077e+10
6.6826e+10
7.27437e+10
8.11986e+10
9.1595e+10
9.90517e+10
1.04655e+11
1.10346e+11
1.16038e+11
1.16008e+11
1.15952e+11
1.15892e+11
1.15809e+11
1.19703e+11
1.2812e+11
1.37034e+11
1.42942e+11
1.45597e+11
1.52104e+11
1.58462e+11
1.64899e+11
1.70784e+11
1.7556e+11
1.75293e+11
1.75001e+11
1.7471e+11
1.74361e+11
1.74011e+11
1.73639e+11
1.73254e+11
1.72833e+11
1.72376e+11
1.64607e+11
1.46351e+11
1.28376e+11
1.10684e+11
9.3257e+10
7.62354e+10
5.5865e+10
4.18807e+10
2.82709e+10
1.89635e+10
2.20763e+10
3.41997e+10
4.88647e+10
6.01832e+10
5.98256e+10
5.94709e+10
5.91173e+10
5.87501e+10
5.83696e+10
5.79925e+10
5.76443e+10
5.73052e+10
5.69638e+10
5.66172e+10
5.62864e+10
5.59674e+10
5.56726e+10
5.53762e+10
5.50929e+10
5.64229e+10
5.78308e+10
5.98358e+10
6.18449e+10
6.31694e+10
6.4468e+10
6.41913e+10
6.39129e+10
6.36527e+10
6.34319e+10
6.32449e+10
6.30519e+10
6.2858e+10
6.26923e+10
6.25643e+10
6.24644e+10
6.23755e+10
6.23024e+10
6.22669e+10
6.22543e+10
6.2245e+10
6.22563e+10
6.22875e+10
6.23353e+10
6.23891e+10
6.25124e+10
5.72187e+10
4.86185e+10
3.94999e+10
1.83807e+10
2.27744e+10
3.42942e+10
4.56455e+10
4.98211e+10
5.63798e+10
6.32797e+10
6.97949e+10
7.53058e+10
8.18832e+10
8.92064e+10
9.64344e+10
1.03529e+11
1.09955e+11
1.14071e+11
1.15546e+11
1.15581e+11
1.15599e+11
1.15619e+11
1.15641e+11
1.15635e+11
1.15619e+11
1.23363e+11
1.32517e+11
1.42276e+11
1.48757e+11
1.5574e+11
1.62694e+11
1.69473e+11
1.75687e+11
1.76291e+11
1.76037e+11
1.75773e+11
1.75523e+11
1.75218e+11
1.74914e+11
1.60898e+11
1.41831e+11
1.23035e+11
1.04518e+11
8.63613e+10
6.66916e+10
4.81082e+10
3.55287e+10
2.28916e+10
2.0574e+10
3.05694e+10
4.51717e+10
6.09888e+10
6.22747e+10
6.19024e+10
6.15073e+10
6.10997e+10
6.07179e+10
6.03554e+10
5.99977e+10
5.96442e+10
5.9285e+10
5.89228e+10
5.85577e+10
5.81967e+10
5.78384e+10
5.74949e+10
5.71489e+10
5.68118e+10
5.64854e+10
5.61792e+10
5.58773e+10
5.70165e+10
5.84423e+10
6.04657e+10
6.25397e+10
6.3924e+10
6.52416e+10
6.49395e+10
6.46469e+10
6.43657e+10
6.40964e+10
6.38468e+10
6.36073e+10
6.33929e+10
6.31971e+10
6.30082e+10
6.2833e+10
6.26834e+10
6.25628e+10
6.24673e+10
6.23774e+10
6.2298e+10
6.22469e+10
6.22235e+10
6.22162e+10
6.22187e+10
5.64139e+10
4.79526e+10
3.98707e+10
2.83471e+10
1.76134e+10
1.34499e+10
1.16015e+10
2.2441e+10
3.68576e+10
3.91525e+10
6.8012e+10
7.45446e+10
8.23952e+10
9.05823e+10
9.86304e+10
1.04821e+11
1.05635e+11
1.06323e+11
1.06973e+11
1.07534e+11
1.09586e+11
1.13562e+11
1.14943e+11
1.15046e+11
1.15136e+11
1.15213e+11
1.15288e+11
1.17136e+11
1.26765e+11
1.3683e+11
1.5097e+11
1.58517e+11
1.66103e+11
1.73203e+11
1.77116e+11
1.76937e+11
1.76707e+11
1.61023e+11
1.40796e+11
1.20904e+11
1.01362e+11
8.22121e+10
6.0945e+10
4.47403e+10
3.14585e+10
2.18945e+10
2.57004e+10
3.88663e+10
5.4843e+10
6.46151e+10
6.42507e+10
6.38859e+10
6.3537e+10
6.31701e+10
6.28108e+10
6.24529e+10
6.20674e+10
6.16709e+10
6.12805e+10
6.08885e+10
6.05105e+10
6.01598e+10
5.98095e+10
5.94383e+10
5.90622e+10
5.87096e+10
5.83625e+10
5.80127e+10
5.76556e+10
5.73073e+10
5.69753e+10
5.66697e+10
5.74966e+10
5.89767e+10
6.0971e+10
6.3099e+10
6.4606e+10
6.59642e+10
6.57192e+10
6.54189e+10
6.51097e+10
6.47922e+10
6.45014e+10
6.4244e+10
6.40041e+10
6.37605e+10
6.35222e+10
6.33226e+10
6.31416e+10
6.29564e+10
6.27854e+10
6.26511e+10
6.2546e+10
6.24479e+10
6.23443e+10
6.22589e+10
5.56881e+10
4.70354e+10
3.8771e+10
2.66463e+10
1.65563e+10
1.14192e+10
9.01876e+09
1.36692e+10
1.63415e+10
1.68415e+10
1.57216e+10
5.37696e+10
6.52692e+10
6.29725e+10
9.52746e+10
1.00146e+11
1.01391e+11
1.02507e+11
1.03537e+11
1.04489e+11
1.05304e+11
1.06036e+11
1.06677e+11
1.07258e+11
1.09215e+11
1.1304e+11
1.14354e+11
1.14537e+11
1.14688e+11
1.1481e+11
1.19887e+11
1.30775e+11
1.49967e+11
1.60273e+11
1.68509e+11
1.66091e+11
1.45986e+11
1.24611e+11
1.03605e+11
8.3026e+10
6.06825e+10
4.47196e+10
3.1409e+10
2.37642e+10
3.03706e+10
4.50028e+10
6.20168e+10
6.66201e+10
6.62508e+10
6.58496e+10
6.54576e+10
6.50929e+10
6.47242e+10
6.43916e+10
6.40515e+10
6.36667e+10
6.33038e+10
6.29615e+10
6.25973e+10
6.22199e+10
6.18397e+10
6.14429e+10
6.10461e+10
6.06712e+10
6.03121e+10
5.99553e+10
5.95883e+10
5.92155e+10
5.88564e+10
5.85188e+10
5.81684e+10
5.78043e+10
5.74445e+10
5.77543e+10
5.92986e+10
6.12436e+10
6.34578e+10
6.51767e+10
6.65768e+10
6.6525e+10
6.61921e+10
6.58825e+10
6.55767e+10
6.52689e+10
6.4956e+10
6.46605e+10
6.43957e+10
6.41324e+10
6.3882e+10
6.36419e+10
6.34262e+10
6.32341e+10
6.30466e+10
6.28729e+10
6.27276e+10
6.25992e+10
5.51626e+10
4.63127e+10
3.78796e+10
2.51851e+10
1.55876e+10
1.06623e+10
9.81671e+09
1.54993e+10
1.77352e+10
1.73589e+10
1.69467e+10
1.65254e+10
1.62391e+10
1.67196e+10
1.56157e+10
7.85324e+10
8.25286e+10
7.79572e+10
8.75878e+10
9.96271e+10
1.00928e+11
1.02097e+11
1.03173e+11
1.04082e+11
1.04993e+11
1.05738e+11
1.06399e+11
1.07009e+11
1.08832e+11
1.12493e+11
1.13724e+11
1.13956e+11
1.14152e+11
1.22478e+11
1.25227e+11
1.2017e+11
1.06176e+11
9.17002e+10
6.83563e+10
4.86558e+10
3.63156e+10
2.67283e+10
3.18627e+10
4.67451e+10
6.46786e+10
6.88558e+10
6.84519e+10
6.80538e+10
6.76195e+10
6.71968e+10
6.68116e+10
6.64011e+10
6.60107e+10
6.5625e+10
6.52164e+10
6.48643e+10
6.45323e+10
6.41684e+10
6.38046e+10
6.34418e+10
6.30746e+10
6.27194e+10
6.23639e+10
6.19799e+10
6.15849e+10
6.12019e+10
6.08277e+10
6.04562e+10
6.00912e+10
5.97294e+10
5.93625e+10
5.90036e+10
5.86582e+10
5.83128e+10
5.79547e+10
5.94802e+10
6.12766e+10
6.35499e+10
6.55755e+10
6.70479e+10
6.73716e+10
6.69988e+10
6.66548e+10
6.63294e+10
6.60128e+10
6.569e+10
6.53746e+10
6.50882e+10
6.48006e+10
6.45222e+10
6.42504e+10
6.40042e+10
6.37753e+10
6.35417e+10
6.33141e+10
6.31159e+10
5.47335e+10
4.57566e+10
3.72091e+10
2.38413e+10
1.46476e+10
9.75683e+09
1.04457e+10
1.70373e+10
1.89037e+10
1.85967e+10
1.82781e+10
1.79473e+10
1.76004e+10
1.72405e+10
1.6845e+10
1.64467e+10
1.6184e+10
1.6644e+10
1.55494e+10
7.88748e+10
8.43811e+10
8.02262e+10
7.58558e+10
9.869e+10
1.00455e+11
1.01699e+11
1.02762e+11
1.03756e+11
1.04649e+11
1.05426e+11
1.06116e+11
1.06725e+11
1.08415e+11
1.0062e+11
7.72318e+10
5.44142e+10
4.58926e+10
4.16465e+10
3.92649e+10
3.37319e+10
3.05871e+10
4.21555e+10
6.01129e+10
7.07101e+10
7.04017e+10
7.00484e+10
6.96898e+10
6.93576e+10
6.89951e+10
6.86484e+10
6.8234e+10
6.78034e+10
6.73934e+10
6.69687e+10
6.65763e+10
6.61752e+10
6.57546e+10
6.53796e+10
6.50065e+10
6.46322e+10
6.42918e+10
6.39373e+10
6.35536e+10
6.31898e+10
6.28433e+10
6.2475e+10
6.20957e+10
6.17176e+10
6.1339e+10
6.09624e+10
6.05893e+10
6.02186e+10
5.98573e+10
5.95031e+10
5.91414e+10
5.87804e+10
5.94822e+10
6.11185e+10
6.34404e+10
6.57828e+10
6.73112e+10
6.81859e+10
6.78361e+10
6.74766e+10
6.71238e+10
6.67898e+10
6.64735e+10
6.6143e+10
6.5816e+10
6.55005e+10
6.52155e+10
6.49275e+10
6.4633e+10
6.4359e+10
6.41055e+10
6.38495e+10
5.44045e+10
4.52609e+10
3.66208e+10
2.25679e+10
1.38222e+10
8.80768e+09
1.10793e+10
1.84606e+10
1.97938e+10
1.95387e+10
1.93028e+10
1.90516e+10
1.87671e+10
1.84686e+10
1.81639e+10
1.78429e+10
1.75045e+10
1.71553e+10
1.67806e+10
1.64119e+10
1.61679e+10
1.65997e+10
1.55175e+10
7.92436e+10
8.40153e+10
8.28547e+10
7.67742e+10
8.81367e+10
1.00028e+11
1.01269e+11
1.02413e+11
1.03411e+11
1.04304e+11
8.67199e+10
5.81013e+10
3.01418e+10
2.49584e+10
6.79891e+10
8.84728e+10
7.18555e+10
5.76107e+10
6.63757e+10
7.23445e+10
7.19579e+10
7.15878e+10
7.12267e+10
7.09091e+10
7.05742e+10
7.02265e+10
6.98779e+10
6.95021e+10
6.9172e+10
6.88024e+10
6.84172e+10
6.801e+10
6.7562e+10
6.71569e+10
6.67514e+10
6.63174e+10
6.59197e+10
6.55203e+10
6.51325e+10
6.47707e+10
6.4398e+10
6.40221e+10
6.36709e+10
6.33156e+10
6.29397e+10
6.25691e+10
6.22022e+10
6.18293e+10
6.14551e+10