/*--------------------------------*- C++ -*----------------------------------*\
| =========                 |                                                 |
| \\      /  F ield         | foam-extend: Open Source CFD                    |
|  \\    /   O peration     | Version:     4.1                                |
|   \\  /    A nd           | Web:         http://www.foam-extend.org         |
|    \\/     M anipulation  |                                                 |
\*---------------------------------------------------------------------------*/
FoamFile
{
    version     2.0;
    format      ascii;
    class       volScalarField;
    location    "1";
    object      sigmaHyd;
}
// * * * * * * * * * * * * * * * * * * * * * * * * * * * * * * * * * * * * * //

dimensions      [1 -1 -2 0 0 0 0];

internalField   nonuniform List<scalar> 
100000
(
-47062.4
-46942
-46965.2
-46915
-46904.3
-46874.3
-46855.5
-46832
-46812
-46791.2
-46771.8
-46752.6
-46734.3
-46716.3
-46699
-46682
-46665.7
-46649.7
-46634.3
-46619.3
-46604.7
-46590.4
-46576.6
-46563.1
-46550.1
-46537.2
-46524.9
-46512.5
-46501
-46488.4
-46477.9
-46462.7
-46452.8
-46447.5
-46435.7
-46425.4
-46415.6
-46405.6
-46396.2
-46386.8
-46377.7
-46368.7
-46360
-46351.5
-46343.1
-46334.8
-46326.8
-46318.8
-46311
-46303.4
-46295.9
-46288.5
-46281.2
-46274.1
-46267.1
-46260.2
-46253.4
-46246.7
-46240.1
-46233.6
-46227.2
-46220.8
-46214.6
-46208.4
-46202.3
-46196.3
-46190.4
-46184.5
-46178.7
-46173
-46167.3
-46161.7
-46156.2
-46150.7
-46145.3
-46140
-46134.7
-46129.4
-46124.2
-46119
-46113.9
-46108.7
-46103.7
-46098.6
-46093.7
-46088.6
-46083.6
-46078.5
-46073.6
-46068.7
-46063.9
-46059.2
-46054.7
-46050.2
-46046.5
-46042.1
-46040.7
-46035.6
-46043.3
-46015.4
-48766.9
-48604.8
-48599.1
-48514.8
-48474.1
-48413.3
-48365.4
-48313.1
-48265.4
-48217.4
-48171.7
-48126.8
-48083.4
-48041.1
-48000
-47959.9
-47921
-47883
-47846.1
-47810.1
-47775
-47740.8
-47707.5
-47675
-47643.4
-47612.5
-47582.7
-47553.1
-47526.6
-47496.7
-47481.3
-47439.9
-47432.7
-47387.6
-47377.2
-47340.2
-47318
-47292
-47269.1
-47245.9
-47223.7
-47201.8
-47180.5
-47159.5
-47139
-47118.9
-47099.2
-47079.9
-47060.9
-47042.2
-47023.9
-47006
-46988.3
-46971
-46953.9
-46937.2
-46920.8
-46904.6
-46888.7
-46873.1
-46857.7
-46842.5
-46827.6
-46812.9
-46798.4
-46784.1
-46770
-46756.2
-46742.5
-46729
-46715.7
-46702.6
-46689.7
-46677
-46664.5
-46652.1
-46639.9
-46627.8
-46616
-46604.1
-46592.3
-46580.8
-46569.5
-46558.2
-46547.2
-46536
-46525
-46514.1
-46503.3
-46492.7
-46482.3
-46472
-46462
-46451.9
-46442.8
-46432.6
-46426
-46414.1
-46416.4
-46376.8
-50470.4
-50266.7
-50232.1
-50113.8
-50043.1
-49951.5
-49874.5
-49793.5
-49718.1
-49643
-49570.9
-49500.3
-49432
-49365.2
-49300.4
-49237.2
-49175.7
-49115.7
-49057.3
-49000.4
-48944.9
-48890.7
-48837.9
-48786.4
-48736.1
-48687
-48639.2
-48592.3
-48546.8
-48502.1
-48458.5
-48417.4
-48370
-48327.9
-48292.2
-48252.2
-48214.9
-48177
-48140.4
-48104.3
-48069
-48034.4
-48000.5
-47967.3
-47934.7
-47902.8
-47871.4
-47840.7
-47810.5
-47780.9
-47751.8
-47723.2
-47695.2
-47667.6
-47640.6
-47614
-47587.9
-47562.3
-47537.1
-47512.3
-47487.9
-47463.9
-47440.3
-47417
-47394.1
-47371.6
-47349.4
-47327.5
-47306
-47284.8
-47263.9
-47243.3
-47223
-47203
-47183.4
-47163.9
-47144.9
-47126
-47107.6
-47089.4
-47071
-47053
-47035.8
-47018.1
-47002.2
-46984.3
-46967.1
-46949.8
-46933.2
-46916.7
-46900.7
-46884.9
-46869.6
-46854.1
-46840
-46823.9
-46813
-46792.9
-46791.8
-46735.6
-52172.6
-51927.4
-51863.9
-51711.6
-51610.9
-51488.6
-51382.6
-51272.8
-51169.7
-51067.5
-50969.2
-50872.9
-50779.5
-50688.5
-50599.9
-50513.6
-50429.5
-50347.6
-50267.7
-50189.8
-50113.9
-50039.8
-49967.5
-49897
-49828.1
-49760.9
-49695.3
-49631
-49568.8
-49506.9
-49447.2
-49386.9
-49320.8
-49272.9
-49220
-49165.9
-49114.1
-49062.2
-49011.9
-48962.4
-48914
-48866.5
-48820.1
-48774.5
-48729.8
-48686
-48643
-48600.9
-48559.5
-48518.9
-48479.1
-48440
-48401.5
-48363.8
-48326.8
-48290.3
-48254.6
-48219.5
-48185.1
-48151.1
-48117.8
-48085
-48052.7
-48020.9
-47989.6
-47958.8
-47928.5
-47898.6
-47869.2
-47840.3
-47811.8
-47783.7
-47756.1
-47728.8
-47702.2
-47675.7
-47650.1
-47624.2
-47599.7
-47574
-47548.2
-47524.2
-47500.6
-47476.6
-47455
-47431.2
-47406.9
-47384.7
-47361.9
-47340.1
-47318.4
-47297.1
-47276.3
-47255.2
-47235.7
-47214
-47197.6
-47171.5
-47165.2
-47101.6
-53873.2
-53586.4
-53494.2
-53307.8
-53177.2
-53024.2
-52889.1
-52750.7
-52619.9
-52490.6
-52366
-52244.1
-52125.8
-52010.4
-51898.2
-51788.7
-51682.1
-51578.2
-51476.9
-51378.1
-51281.8
-51187.7
-51096
-51006.4
-50919
-50833.6
-50750.2
-50668.7
-50589.1
-50511.1
-50434.7
-50360.3
-50285.8
-50215
-50146.1
-50077.9
-50011.5
-49946.1
-49882.2
-49819.5
-49758.1
-49697.8
-49638.8
-49581
-49524.3
-49468.6
-49414.1
-49360.5
-49308
-49256.4
-49205.8
-49156.1
-49107.3
-49059.4
-49012.3
-48966.1
-48920.7
-48876.2
-48832.4
-48789.4
-48747.1
-48705.5
-48664.5
-48624.2
-48584.5
-48545.4
-48507
-48469.1
-48431.9
-48395.2
-48359.1
-48323.4
-48288.4
-48253.7
-48219.9
-48186
-48153.7
-48120.5
-48090.3
-48060.7
-48026.6
-47994.4
-47966.5
-47935.5
-47918
-47881.8
-47849.7
-47818.8
-47790.8
-47762.6
-47735.6
-47708.7
-47682.6
-47656.1
-47631.3
-47604.1
-47582.5
-47550.8
-47539.6
-47469.9
-55571.7
-55243.4
-55122.4
-54902.1
-54741.7
-54557.9
-54393.9
-54226.8
-54068.3
-53912.1
-53761.2
-53613.7
-53470.5
-53330.8
-53194.9
-53062.3
-52933.2
-52807.4
-52684.7
-52565
-52448.3
-52334.3
-52223.2
-52114.6
-52008.7
-51905.2
-51804.1
-51705.2
-51608.6
-51514
-51421.4
-51330.9
-51241
-51156
-51071.8
-50989.3
-50908.6
-50829.4
-50751.8
-50675.7
-50601.3
-50528.2
-50456.7
-50386.5
-50317.7
-50250.3
-50184.1
-50119.2
-50055.5
-49993
-49931.7
-49871.4
-49812.2
-49754
-49697
-49640.9
-49586
-49532.2
-49479.1
-49427.1
-49375.8
-49325.3
-49275.7
-49226.8
-49178.8
-49131.5
-49084.9
-49039.1
-48994
-48949.6
-48905.9
-48862.9
-48820.6
-48778.8
-48738.1
-48697.4
-48659.4
-48619
-48588.3
-48543.4
-48495.6
-48464.1
-48428.6
-48389.4
-48366.5
-48328.7
-48279.8
-48252.9
-48217.3
-48185.3
-48152.4
-48120.2
-48088.5
-48056.6
-48026.3
-47993.9
-47966.9
-47930.2
-47913.6
-47839.4
-57267.7
-56898
-56748.3
-56494.1
-56303.8
-56089.4
-55896.4
-55700.7
-55514.7
-55331.4
-55154.3
-54981.2
-54813.1
-54649.2
-54489.7
-54334.1
-54182.5
-54034.8
-53890.7
-53750.2
-53613.1
-53479.3
-53348.7
-53221.2
-53096.7
-52975.1
-52856.3
-52740.3
-52626.8
-52515.8
-52407.1
-52301.1
-52196.9
-52095.6
-51996.4
-51899.3
-51804.3
-51711.2
-51620.1
-51530.7
-51443.2
-51357.4
-51273.4
-51191
-51110.2
-51030.9
-50953.2
-50876.9
-50802.1
-50728.7
-50656.6
-50585.8
-50516.4
-50447.9
-50381
-50314.8
-50250
-50187.1
-50125
-50063.8
-50003.7
-49944.3
-49886.1
-49828.7
-49772.3
-49716.7
-49662.1
-49608.3
-49555.3
-49503.2
-49451.8
-49401.1
-49351.3
-49301.7
-49253.6
-49203.5
-49158.9
-49101.4
-49071
-48994.8
-48979.4
-48918.5
-48879.3
-48833.2
-48841
-48741.8
-48718.2
-48672.4
-48642.8
-48603.6
-48567.7
-48530
-48493.4
-48456.2
-48420.8
-48382.9
-48350.9
-48308.7
-48287.3
-48207.4
-58960.7
-58549.7
-58371.3
-58083.3
-57863.2
-57618.3
-57396.4
-57172.2
-56958.5
-56748.3
-56545.1
-56346.5
-56153.6
-55965.4
-55782.3
-55603.7
-55429.7
-55260.1
-55094.7
-54933.3
-54775.9
-54622.3
-54472.4
-54326
-54183
-54043.4
-53906.9
-53773.6
-53643.2
-53515.8
-53391.1
-53269.2
-53149.7
-53033.4
-52919.4
-52807.9
-52698.7
-52591.7
-52487
-52384.4
-52283.8
-52185.3
-52088.7
-51994.1
-51901.2
-51810.2
-51720.9
-51633.3
-51547.4
-51463
-51380.3
-51298.8
-51219
-51140.1
-51063.4
-50986.7
-50913.1
-50841.9
-50769.9
-50699.8
-50630.5
-50562.4
-50495.5
-50429.6
-50364.8
-50301
-50238.3
-50176.6
-50115.8
-50056
-49997.1
-49939.1
-49882
-49825.6
-49770
-49715.4
-49660.5
-49608.5
-49549.6
-49508.8
-49464.3
-49406.9
-49356.7
-49311.1
-49253.1
-49211.3
-49174.5
-49120.1
-49076.4
-49029.8
-48985.9
-48941.9
-48899.1
-48856.2
-48815.1
-48771.9
-48734.5
-48687
-48660.8
-48575.2
-60650.5
-60198.2
-59991.2
-59669.4
-59419.6
-59144.1
-58893.4
-58640.7
-58399.6
-58162.5
-57933.1
-57709.1
-57491.4
-57279.1
-57072.4
-56870.9
-56674.5
-56483
-56296.4
-56114.2
-55936.5
-55763.1
-55593.9
-55428.6
-55267.2
-55109.5
-54955.5
-54805
-54657.8
-54514
-54373.2
-54235.7
-54101
-53969.5
-53840.7
-53714.7
-53591.3
-53470.5
-53352.3
-53236.4
-53122.8
-53011.6
-52902.5
-52795.6
-52690.9
-52588.1
-52487.3
-52388.4
-52291.5
-52196.2
-52103
-52011
-51921.5
-51832
-51746.3
-51658.3
-51572.3
-51493.4
-51414.5
-51334.2
-51256.7
-51179.4
-51103.9
-51029.4
-50956.3
-50884.3
-50813.5
-50743.8
-50675.3
-50607.8
-50541.3
-50475.9
-50411.5
-50347.9
-50285.5
-50223.6
-50163.5
-50103.4
-50045.9
-49990.9
-49931.9
-49873.8
-49820.6
-49765
-49722.1
-49662
-49607.3
-49552.3
-49501.5
-49450.1
-49400.7
-49351.2
-49303.1
-49254.7
-49208.5
-49159.9
-49117.5
-49064.6
-49033.7
-48942.7
-62336.4
-61843
-61607.5
-61252
-60972.5
-60666.7
-60387.1
-60106
-59837.4
-59573.6
-59318.1
-59068.7
-58826.2
-58589.8
-58359.7
-58135.3
-57916.6
-57703.3
-57495.4
-57292.5
-57094.6
-56901.5
-56712.9
-56528.8
-56349
-56173.4
-56001.8
-55834.1
-55670.2
-55509.9
-55353.2
-55200
-55050
-54903.4
-54759.9
-54619.5
-54482.1
-54347.5
-54215.7
-54086.6
-53960.1
-53836.1
-53714.6
-53595.5
-53478.7
-53364.2
-53251.9
-53141.8
-53033.7
-52927.6
-52823.5
-52720.9
-52620.8
-52520.3
-52424.5
-52321
-52233.1
-52152.5
-52056.3
-51968.5
-51880.7
-51794.9
-51710.7
-51627.8
-51546.4
-51466.2
-51387.4
-51309.9
-51233.6
-51158.4
-51084.5
-51011.7
-50940
-50869.4
-50799.8
-50731.4
-50663.8
-50597.8
-50532
-50468.9
-50406
-50342.8
-50281.2
-50220.4
-50160.1
-50100.9
-50043.3
-49984.5
-49927.7
-49871
-49815.6
-49760.6
-49706.8
-49652.9
-49601.3
-49547.2
-49499.7
-49441.5
-49405.8
-49309.1
-64018.3
-63483.8
-63219.8
-62830.7
-62521.7
-62185.4
-61877.2
-61567.7
-61271.8
-60981.2
-60699.7
-60425
-60157.8
-59897.4
-59643.8
-59396.5
-59155.6
-58920.6
-58691.5
-58468
-58249.9
-58037
-57829.3
-57626.4
-57428.2
-57234.7
-57045.6
-56860.8
-56680.1
-56503.6
-56330.8
-56162
-55996.7
-55835.1
-55677
-55522.2
-55370.7
-55222.3
-55077
-54934.7
-54795.3
-54658.6
-54524.7
-54393.5
-54264.8
-54138.6
-54014.9
-53893.5
-53774.5
-53657.6
-53543.5
-53430.6
-53322.6
-53211.5
-53117.3
-52995
-52935.3
-52791
-52709.4
-52599.3
-52506.1
-52409.2
-52316.8
-52225
-52135.3
-52046.9
-51960.1
-51874.6
-51790.5
-51707.8
-51626.3
-51546.2
-51467.2
-51389.5
-51313
-51237.6
-51163.5
-51090.5
-51018.7
-50948.2
-50878.3
-50809.2
-50741.8
-50674.5
-50609.7
-50543.5
-50479.1
-50414.8
-50352.1
-50289.9
-50228.9
-50168.3
-50109.2
-50049.8
-49993
-49933.6
-49881.2
-49817.3
-49777.3
-49674.5
-65695.6
-65120.1
-64827.7
-64405.2
-64066.6
-63700.1
-63363.3
-63025.5
-62702.3
-62385
-62077.6
-61777.6
-61485.9
-61201.5
-60924.5
-60654.5
-60391.3
-60134.7
-59884.4
-59640.3
-59402.1
-59169.6
-58942.6
-58721
-58504.6
-58293.2
-58086.6
-57884.7
-57687.4
-57494.5
-57305.8
-57121.3
-56940.9
-56764.3
-56591.5
-56422.4
-56256.9
-56094.8
-55936.1
-55780.6
-55628.3
-55479
-55332.7
-55189.3
-55048.7
-54910.8
-54775.6
-54643
-54512.9
-54385.3
-54260.1
-54137.2
-54016.6
-53898.8
-53781.6
-53673.5
-53549.9
-53433.8
-53334.1
-53226.5
-53123.7
-53020.5
-52919.7
-52820
-52722.2
-52625.8
-52531.1
-52437.8
-52346
-52255.7
-52166.8
-52079.3
-51993.1
-51908.3
-51824.7
-51742.5
-51661.5
-51581.7
-51503.1
-51425.9
-51349.6
-51274.3
-51200.2
-51127
-51054.9
-50983.6
-50913.4
-50843.9
-50775.5
-50707.8
-50641.2
-50575.2
-50510.6
-50445.9
-50383.8
-50319.1
-50261.6
-50192.5
-50147.8
-50039.4
-67367.9
-66751.6
-66430.9
-65974.9
-65607
-65210.3
-64844.9
-64479
-64128.6
-63784.7
-63451.5
-63126.2
-62810
-62501.6
-62201.4
-61908.7
-61623.4
-61345.2
-61073.8
-60809.1
-60550.9
-60298.8
-60052.7
-59812.4
-59577.8
-59348.5
-59124.5
-58905.7
-58691.7
-58482.5
-58278
-58078
-57882.2
-57690.8
-57503.4
-57320.1
-57140.5
-56964.7
-56792.6
-56624
-56458.8
-56296.9
-56138.3
-55982.8
-55830.4
-55680.9
-55534.3
-55390.5
-55249.5
-55111
-54975.3
-54841.8
-54711.4
-54582.2
-54456.7
-54330.7
-54205.6
-54088
-53973.1
-53856.4
-53743.8
-53631.6
-53522.1
-53413.9
-53307.8
-53203.3
-53100.5
-52999.4
-52899.9
-52802
-52705.7
-52610.8
-52517.4
-52425.5
-52335
-52245.8
-52158
-52071.6
-51986.4
-51902.5
-51819.8
-51738.2
-51657.9
-51578.6
-51500.5
-51423.2
-51347.1
-51271.8
-51197.7
-51124.4
-51052.3
-50980.9
-50910.9
-50840.8
-50773.5
-50703.6
-50641.1
-50566.9
-50517.3
-50404
-69034.9
-68377.9
-68029
-67539.7
-67142.5
-66715.7
-66321.9
-65927.8
-65550.3
-65179.8
-64820.9
-64470.6
-64129.9
-63797.7
-63474.3
-63158.9
-62851.5
-62551.8
-62259.5
-61974.2
-61696
-61424.4
-61159.3
-60900.4
-60647.5
-60400.6
-60159.2
-59923.4
-59692.8
-59467.5
-59247
-59031.5
-58820.6
-58614.3
-58412.4
-58214.8
-58021.4
-57831.9
-57646.5
-57464.8
-57286.8
-57112.3
-56941.4
-56773.8
-56609.5
-56448.4
-56290.4
-56135.5
-55983.4
-55834.3
-55687.9
-55544.2
-55403.1
-55264.7
-55128.2
-54995
-54862
-54732.4
-54606.8
-54482
-54360.3
-54239.9
-54121.9
-54005.6
-53891.3
-53778.8
-53668.1
-53559.2
-53452.1
-53346.6
-53242.8
-53140.7
-53040.1
-52941.1
-52843.5
-52747.5
-52652.9
-52559.8
-52468
-52377.6
-52288.4
-52200.6
-52114
-52028.5
-51944.3
-51861.2
-51779.2
-51698.3
-51618.5
-51539.7
-51462.1
-51385.2
-51309.9
-51234.5
-51162
-51086.9
-51019.3
-50940.1
-50885.6
-50767.4
-70696.1
-69998.6
-69621.5
-69099
-68672.6
-68215.8
-67793.7
-67371.6
-66967.1
-66570.2
-66185.6
-65810.3
-65445.2
-65089.3
-64742.7
-64404.8
-64075.4
-63754.2
-63441
-63135.4
-62837.2
-62546.2
-62262
-61984.6
-61713.6
-61448.9
-61190.3
-60937.6
-60690.5
-60449
-60212.8
-59981.8
-59755.8
-59534.7
-59318.3
-59106.5
-58899.2
-58696.2
-58497.4
-58302.6
-58111.8
-57924.9
-57741.7
-57562.1
-57386
-57213.4
-57044.1
-56878
-56715.1
-56555.2
-56398.3
-56244.2
-56093
-55944.3
-55798.4
-55654.9
-55513.7
-55375.6
-55240.2
-55106.7
-54975.8
-54846.9
-54720.2
-54595.6
-54473
-54352.5
-54233.8
-54117.2
-54002.4
-53889.4
-53778.2
-53668.7
-53560.9
-53454.9
-53350.4
-53247.5
-53146.2
-53046.3
-52948
-52851.1
-52755.6
-52661.4
-52568.6
-52477.1
-52386.9
-52297.9
-52210.1
-52123.4
-52038
-51953.6
-51870.5
-51788.2
-51707.5
-51626.9
-51549.2
-51469
-51396.3
-51312
-51252.8
-51129.5
-72351.1
-71613.2
-71208.2
-70652.6
-70197.1
-69710.4
-69260
-68810.1
-68378.6
-67955.4
-67545.3
-67145
-66755.7
-66376.1
-66006.5
-65646.1
-65294.8
-64952.3
-64618.2
-64292.2
-63974.2
-63663.7
-63360.7
-63064.8
-62775.8
-62493.5
-62217.6
-61948.1
-61684.5
-61426.9
-61174.9
-60928.5
-60687.5
-60451.6
-60220.8
-59994.8
-59773.7
-59557.2
-59345.1
-59137.4
-58933.9
-58734.5
-58539.1
-58347.5
-58159.7
-57975.5
-57794.9
-57617.7
-57443.9
-57273.3
-57105.9
-56941.6
-56780.3
-56621.9
-56466.2
-56313.4
-56163.1
-56015.5
-55870.8
-55728.5
-55588.7
-55451.2
-55316.1
-55183.2
-55052.5
-54924
-54797.5
-54673.1
-54550.6
-54430.2
-54311.6
-54194.8
-54079.9
-53966.8
-53855.4
-53745.6
-53637.6
-53531.1
-53426.2
-53322.8
-53221
-53120.6
-53021.6
-52924
-52827.8
-52732.9
-52639.3
-52547
-52455.9
-52366
-52277.4
-52189.8
-52103.7
-52017.9
-51934.9
-51849.6
-51771.9
-51682.6
-51618.6
-51490.4
-73999.5
-73221.4
-72788.5
-72200
-71715.5
-71199
-70720.5
-70242.9
-69784.6
-69335.2
-68899.6
-68474.5
-68061
-67657.8
-67265.2
-66882.4
-66509.3
-66145.5
-65790.7
-65444.5
-65106.7
-64777
-64455.1
-64140.8
-63833.8
-63533.9
-63240.9
-62954.5
-62674.6
-62400.9
-62133.3
-61871.5
-61615.5
-61364.9
-61119.7
-60879.8
-60644.8
-60414.8
-60189.6
-59968.9
-59752.8
-59540.9
-59333.3
-59129.8
-58930.3
-58734.7
-58542.8
-58354.6
-58170
-57988.8
-57810.9
-57636.4
-57465
-57296.7
-57131.4
-56969.1
-56809.6
-56653
-56499.2
-56348
-56199.5
-56053.4
-55909.9
-55768.7
-55629.9
-55493.3
-55359
-55226.8
-55096.8
-54968.8
-54842.9
-54718.9
-54596.8
-54476.7
-54358.4
-54241.8
-54127.1
-54014
-53902.6
-53792.8
-53684.7
-53578
-53472.9
-53369.3
-53267.1
-53166.4
-53067
-52969
-52872.3
-52776.9
-52682.8
-52589.8
-52498.4
-52407.3
-52319.2
-52228.8
-52146.1
-52051.8
-51983
-51849.7
-75641
-74822.8
-74362.1
-73740.9
-73227.5
-72681.4
-72174.9
-71669.6
-71184.6
-70709.1
-70248.1
-69798.3
-69360.7
-68934.1
-68518.7
-68113.6
-67718.8
-67333.8
-66958.3
-66591.9
-66234.4
-65885.4
-65544.8
-65212.2
-64887.3
-64569.9
-64259.8
-63956.8
-63660.5
-63370.9
-63087.6
-62810.6
-62539.6
-62274.4
-62014.9
-61760.9
-61512.2
-61268.8
-61030.4
-60796.9
-60568.1
-60344
-60124.3
-59908.9
-59697.7
-59490.7
-59287.6
-59088.4
-58893
-58701.2
-58513
-58328.2
-58146.9
-57968.8
-57793.9
-57622.1
-57453.4
-57287.6
-57124.8
-56964.8
-56807.6
-56653
-56501.1
-56351.6
-56204.7
-56060.2
-55918.1
-55778.2
-55640.6
-55505.2
-55372
-55240.8
-55111.6
-54984.5
-54859.3
-54736
-54614.5
-54494.9
-54377
-54260.8
-54146.4
-54033.5
-53922.3
-53812.7
-53704.6
-53598
-53492.9
-53389.2
-53286.9
-53186
-53086.4
-52988.1
-52891.4
-52795.1
-52701.9
-52606.4
-52518.7
-52419.4
-52345.8
-52207.8
-77274.9
-76416.9
-75928.6
-75274.7
-74732.6
-74157.1
-73622.7
-73089.9
-72578.3
-72076.8
-71590.6
-71116.2
-70654.6
-70204.7
-69766.5
-69339.3
-68922.8
-68516.7
-68120.6
-67734.2
-67357.1
-66989
-66629.7
-66278.8
-65936.1
-65601.3
-65274.3
-64954.6
-64642.1
-64336.5
-64037.7
-63745.4
-63459.5
-63179.8
-62906
-62638.1
-62375.8
-62119
-61867.5
-61621.2
-61379.9
-61143.4
-60911.7
-60684.5
-60461.7
-60243.3
-60029.1
-59818.9
-59612.7
-59410.4
-59211.9
-59017
-58825.7
-58637.9
-58453.4
-58272.2
-58094.2
-57919.4
-57747.6
-57578.9
-57413
-57250
-57089.6
-56932.1
-56777.1
-56624.7
-56474.7
-56327.2
-56182
-56039.2
-55898.6
-55760.3
-55624.1
-55490
-55357.9
-55227.9
-55099.8
-54973.6
-54849.2
-54726.7
-54606
-54487
-54369.8
-54254.1
-54140.1
-54027.7
-53916.8
-53807.5
-53699.7
-53593.2
-53488.3
-53384.6
-53282.7
-53181.2
-53082.8
-52982.3
-52889.6
-52785.5
-52707
-52564.3
-78901.7
-78003.8
-77487.9
-76801.5
-76230.7
-75625.8
-75063.7
-74503.4
-73965.4
-73438.1
-72926.7
-72427.8
-71942.4
-71469.2
-71008.4
-70559.1
-70121.1
-69694
-69277.4
-68871
-68474.4
-68087.3
-67709.4
-67340.4
-66980
-66627.9
-66283.8
-65947.6
-65618.9
-65297.6
-64983.3
-64675.9
-64375.1
-64080.9
-63792.8
-63511
-63235
-62965.1
-62700.5
-62441.6
-62187.8
-61939.1
-61695.3
-61456.4
-61222.1
-60992.4
-60767
-60546
-60329.2
-60116.4
-59907.5
-59702.6
-59501.3
-59303.8
-59109.8
-58919.2
-58732.1
-58548.2
-58367.5
-58190
-58015.5
-57844
-57675.5
-57509.7
-57346.7
-57186.4
-57028.7
-56873.5
-56720.9
-56570.7
-56422.9
-56277.4
-56134.1
-55993.1
-55854.2
-55717.4
-55582.7
-55450
-55319.3
-55190.4
-55063.5
-54938.4
-54815.1
-54693.5
-54573.6
-54455.4
-54338.8
-54223.9
-54110.5
-53998.6
-53888.3
-53779.3
-53672.1
-53565.5
-53461.9
-53356.4
-53258.7
-53149.7
-53066.4
-52919.1
-80519.4
-79582.2
-79039.1
-78320.4
-77721.2
-77087.1
-76497.4
-75909.9
-75345.5
-74792.5
-74256.1
-73732.8
-73223.7
-72727.5
-72244
-71772.8
-71313.4
-70865.4
-70428.4
-70002.2
-69586.1
-69180.1
-68783.7
-68396.6
-68018.6
-67649.3
-67288.4
-66935.7
-66590.9
-66253.8
-65924.2
-65601.7
-65286.2
-64977.5
-64675.3
-64379.8
-64090.2
-63807.1
-63529.6
-63258
-62991.7
-62730.9
-62475.2
-62224.5
-61978.7
-61737.7
-61501.3
-61269.5
-61042
-60818.8
-60599.7
-60384.7
-60173.7
-59966.4
-59762.9
-59563
-59366.7
-59173.8
-58984.3
-58798.1
-58615.1
-58435.2
-58258.3
-58084.5
-57913.5
-57745.3
-57579.9
-57417.2
-57257.1
-57099.6
-56944.5
-56791.9
-56641.6
-56493.7
-56348
-56204.6
-56063.3
-55924.1
-55787
-55651.9
-55518.7
-55387.5
-55258.2
-55130.7
-55004.9
-54881
-54758.7
-54638.2
-54519.3
-54401.9
-54286.3
-54172
-54059.6
-53947.8
-53839.2
-53728.6
-53626
-53512.1
-53424
-53271.9
-82128.9
-81152.5
-80582.1
-79831.3
-79203.9
-78540.7
-77923.6
-77308.9
-76718.4
-76139.7
-75578.5
-75031
-74498.3
-73979
-73473.2
-72980.1
-72499.4
-72030.6
-71573.4
-71127.3
-70692.1
-70267.2
-69852.4
-69447.3
-69051.7
-68665.3
-68287.6
-67918.6
-67557.8
-67205.1
-66860.1
-66522.6
-66192.4
-65869.3
-65552.8
-65243.5
-64939.8
-64644.3
-64353.8
-64069.9
-63791.3
-63518.4
-63250.8
-62988.6
-62731.4
-62479.2
-62231.8
-61989.2
-61751.1
-61517.5
-61288.3
-61063.3
-60842.4
-60625.6
-60412.6
-60203.5
-59998
-59796.2
-59597.9
-59403
-59211.5
-59023.2
-58838.1
-58656.2
-58477.3
-58301.3
-58128.3
-57958
-57790.5
-57625.6
-57463.4
-57303.7
-57146.5
-56991.7
-56839.3
-56689.2
-56541.3
-56395.7
-56252.2
-56110.9
-55971.6
-55834.3
-55698.9
-55565.5
-55434
-55304.3
-55176.4
-55050.3
-54925.9
-54803.2
-54682.2
-54562.6
-54445
-54328.1
-54214.4
-54098.9
-53991.4
-53872.5
-53779.8
-53622.9
-83730.1
-82714.4
-82116.8
-81333.9
-80678.3
-79986.3
-79341.8
-78700.2
-78083.6
-77479.5
-76893.6
-76321.9
-75765.8
-75223.6
-74695.5
-74180.7
-73678.8
-73189.4
-72712
-72246.3
-71791.8
-71348.2
-70915.1
-70492.2
-70079.2
-69675.6
-69281.4
-68896
-68519.4
-68151.1
-67790.9
-67438.5
-67093.8
-66756.4
-66426
-66103.1
-65786.2
-65477.6
-65174.2
-64877.7
-64586.8
-64301.8
-64022.4
-63748.4
-63479.9
-63216.5
-62958.2
-62704.9
-62456.3
-62212.4
-61973
-61738.1
-61507.5
-61281.1
-61058.7
-60840.3
-60625.8
-60415
-60208
-60004.5
-59804.4
-59607.9
-59414.6
-59224.7
-59037.9
-58854.2
-58673.5
-58495.8
-58320.9
-58148.8
-57979.4
-57812.7
-57648.5
-57487
-57327.8
-57171.1
-57016.7
-56864.7
-56714.9
-56567.3
-56421.9
-56278.5
-56137.3
-55998
-55860.7
-55725.3
-55591.8
-55460.1
-55330.3
-55202.2
-55075.9
-54951
-54828.3
-54706.3
-54587.6
-54467.1
-54354.7
-54230.9
-54133.5
-53971.9
-85321.2
-84266.8
-83642.3
-82827.7
-82144.1
-81423.4
-80751.8
-80083.3
-79440.8
-78811.4
-78201
-77605.3
-77025.9
-76461
-75910.7
-75374.2
-74851.4
-74341.3
-73844
-73358.6
-72885.1
-72422.9
-71971.6
-71531
-71100.6
-70680.1
-70269.3
-69867.8
-69475.3
-69091.6
-68716.3
-68349.1
-67989.6
-67638.1
-67292.7
-66956.6
-66622.1
-66304.8
-65988.2
-65680.4
-65377.2
-65080.5
-64789.3
-64503.9
-64224
-63949.6
-63680.4
-63416.4
-63157.4
-62903.2
-62653.8
-62409
-62168.7
-61932.7
-61701
-61473.5
-61250
-61030.4
-60814.6
-60602.5
-60394.1
-60189.3
-59987.8
-59789.9
-59595.3
-59403.9
-59215.6
-59030.4
-58848.2
-58668.9
-58492.4
-58318.7
-58147.7
-57979.3
-57813.5
-57650.2
-57489.4
-57331
-57174.9
-57021.1
-56869.6
-56720.2
-56573
-56427.9
-56284.9
-56143.8
-56004.8
-55867.6
-55732.3
-55598.8
-55467.2
-55337.2
-55209.3
-55082.2
-54958.6
-54833.1
-54715.8
-54587.2
-54485.1
-54319
-86902.8
-85809.8
-85158.6
-84312.4
-83601
-82851.7
-82153.1
-81458
-80789.8
-80135.3
-79500.3
-78880.9
-78278.2
-77690.8
-77118.5
-76560.6
-76016.7
-75486.4
-74969
-74464.3
-73971.8
-73491.1
-73021.7
-72563.4
-72115.8
-71678.5
-71251.3
-70833.7
-70425.5
-70026.4
-69636.1
-69254.3
-68880.8
-68515
-68157
-67806.4
-67462.3
-67129.9
-66800.5
-66479.4
-66163.8
-65854.8
-65551.8
-65254.9
-64963.7
-64678.2
-64398.2
-64123.6
-63854.2
-63589.8
-63330.4
-63075.8
-62825.9
-62580.5
-62339.5
-62102.8
-61870.3
-61641.9
-61417.4
-61196.8
-60979.9
-60766.9
-60557.1
-60351.5
-60149.1
-59950.2
-59754.4
-59561.9
-59372.3
-59185.9
-59002.3
-58821.7
-58643.8
-58468.7
-58296.2
-58126.4
-57959.1
-57794.4
-57632.1
-57472.1
-57314.5
-57159.2
-57006.2
-56855.3
-56706.5
-56559.8
-56415.2
-56272.5
-56131.9
-55993.1
-55856.2
-55721
-55588
-55455.9
-55327.3
-55196.8
-55074.8
-54941.3
-54834.6
-54664
-88474.4
-87343.1
-86665.1
-85787.6
-85048.5
-84270.9
-83545.5
-82823.9
-82130.2
-81450.6
-80791.4
-80148.3
-79522.6
-78912.7
-78318.6
-77739.3
-77174.7
-76624
-76086.9
-75562.8
-75051.5
-74552.4
-74065.1
-73589.3
-73124.5
-72670.5
-72226.9
-71793.4
-71369.6
-70955.3
-70550.2
-70153.9
-69766.1
-69386.3
-69012.2
-68649.1
-68263.9
-67945.9
-67603.5
-67272.3
-66944.9
-66624
-66309.5
-66001
-65698.7
-65402.2
-65111.5
-64826.3
-64546.6
-64272.1
-64002.7
-63738.4
-63478.9
-63224.1
-62973.9
-62728.2
-62486.8
-62249.7
-62016.6
-61787.6
-61562.4
-61341.2
-61123.4
-60909.8
-60699.6
-60493
-60289.8
-60089.9
-59893.2
-59699.6
-59509
-59321.4
-59136.7
-58954.9
-58775.9
-58599.6
-58425.9
-58254.8
-58086.3
-57920.3
-57756.7
-57595.4
-57436.5
-57279.9
-57125.4
-56973.1
-56823
-56674.9
-56528.9
-56384.8
-56242.7
-56102.3
-55964.3
-55827.1
-55693.6
-55558.3
-55431.4
-55293.2
-55181.7
-55006.7
-90035.2
-88865.8
-88161.7
-87252.9
-86486.4
-85680.6
-84928.6
-84180.7
-83461.5
-82757.2
-82073.9
-81407.3
-80758.7
-80126.5
-79510.5
-78910.2
-78324.8
-77754
-77197.3
-76654.1
-76124
-75606.6
-75101.5
-74608.2
-74126.5
-73655.9
-73196
-72746.6
-72307.4
-71877.9
-71458.1
-71047.2
-70645.9
-70251.7
-69868.7
-69485.6
-69124.2
-68767.3
-68409.3
-68061.9
-67721.6
-67388.3
-67062
-66742.1
-66428.7
-66121.3
-65819.9
-65524.3
-65234.3
-64949.8
-64670.6
-64396.5
-64127.5
-63863.4
-63604.1
-63349.4
-63099.1
-62853.3
-62611.6
-62374.1
-62140.1
-61910.9
-61683.3
-61463.7
-61245.8
-61032.2
-60821.6
-60614.5
-60410.6
-60209.9
-60012.3
-59817.9
-59626.4
-59437.9
-59252.3
-59069.6
-58889.5
-58712.2
-58537.5
-58365.4
-58195.8
-58028.7
-57864
-57701.6
-57541.5
-57383.7
-57228
-57074.5
-56923.2
-56773.8
-56626.6
-56481.1
-56338
-56195.9
-56057.4
-55917.2
-55785.6
-55642.7
-55526.6
-55347.2
-91585.6
-90378.3
-89647.7
-88708.1
-87914.3
-87080.5
-86302
-85528
-84783.7
-84054.6
-83347.4
-82657.4
-81986.2
-81331.8
-80694.3
-80072.8
-79467
-78876.2
-78300
-77737.7
-77189.1
-76653.5
-76130.7
-75620.1
-75121.5
-74634.4
-74158.4
-73693.3
-73238.8
-72794.3
-72360.3
-71935.3
-71522.6
-71114.8
-70733.5
-70330.9
-69868.5
-69574.9
-69221.6
-68845.8
-68495.2
-68147.5
-67809.8
-67478.2
-67153.6
-66835.4
-66523.4
-66217.4
-65917.2
-65622.7
-65333.7
-65050.1
-64771.7
-64498.3
-64229.9
-63966.3
-63707.3
-63453
-63202.9
-62957.4
-62715.4
-62478.5
-62243.3
-62014.3
-61789.4
-61567.7
-61350
-61135.4
-60924.4
-60716.6
-60512.1
-60310.8
-60112.7
-59917.6
-59725.5
-59536.3
-59350
-59166.4
-58985.6
-58807.5
-58631.9
-58458.9
-58288.5
-58120.4
-57954.7
-57791.3
-57630.3
-57471.4
-57314.8
-57160.2
-57007.8
-56857.2
-56709.1
-56562
-56418.7
-56273.7
-56137.3
-55989.7
-55869
-55685.3
-93124.9
-91879.8
-91123.2
-90152.6
-89331.9
-88470.3
-87665.5
-86865.6
-86096.2
-85342.8
-84611.7
-83898.6
-83204.7
-82528.3
-81869.4
-81227.1
-80600.9
-79990.2
-79394.6
-78813.5
-78246.4
-77692.8
-77152.4
-76624.7
-76109.2
-75605.7
-75113.7
-74632.9
-74163
-73703.5
-73254.4
-72815.1
-72385.7
-71965.8
-71554.9
-71156.5
-70757.1
-70362.4
-69990.8
-69618
-69255.8
-68899.2
-68550.5
-68208.3
-67873
-67544.1
-67221.7
-66905.4
-66595.2
-66290.8
-65992.1
-65698.9
-65411.1
-65128.6
-64851.2
-64578.7
-64311.2
-64048.2
-63790
-63535.6
-63284.7
-63038.9
-62782.5
-62560
-62327.7
-62099.7
-61874.9
-61652.9
-61434.8
-61219.8
-61008.5
-60800.3
-60595.5
-60393.8
-60195.2
-59999.6
-59807
-59617.3
-59430.4
-59246.3
-59064.9
-58886.1
-58709.9
-58536.1
-58364.9
-58196
-58029.6
-57865.4
-57703.5
-57543.7
-57386.2
-57230.6
-57077.5
-56925.5
-56777.3
-56627.6
-56486.5
-56334.2
-56208.8
-56020.9
-94651.6
-93369.6
-92587.2
-91586.3
-90738.6
-89849.5
-89018.7
-88193
-87398.8
-86621
-85866.5
-85130.3
-84414.1
-83715.8
-83035.7
-82372.6
-81726.2
-81095.8
-80481.1
-79881.1
-79295.8
-78724.3
-78166.4
-77621.6
-77089.5
-76569.7
-76061.8
-75565.5
-75080.3
-74606
-74142.2
-73688.5
-73244.5
-72810
-72381.9
-71966.7
-71529.1
-71159.3
-70768.2
-70388.2
-70013.7
-69646.3
-69286.2
-68933.1
-68587
-68247.6
-67914.7
-67588.2
-67268
-66953.7
-66645.4
-66342.7
-66045.7
-65754
-65467.7
-65186.5
-64910.4
-64639.1
-64372.7
-64111.2
-63853.7
-63604.1
-63348.9
-63099.8
-62864.9
-62627
-62395.5
-62166
-61940.9
-61719
-61500.8
-61286
-61074.5
-60866.3
-60661.3
-60459.4
-60260.6
-60064.8
-59871.8
-59681.8
-59494.5
-59309.9
-59128
-58948.7
-58771.9
-58597.7
-58425.8
-58256.3
-58089.2
-57924.3
-57761.7
-57601.1
-57443.1
-57286.2
-57133.2
-56978.7
-56832.9
-56676.1
-56546.1
-56354.1
-96167.1
-94848
-94040
-93008.7
-92134.5
-91217.9
-90361.3
-89510
-88691.2
-87889.4
-87111.3
-86352.4
-85613.9
-84894
-84192.7
-83509.1
-82842.7
-82192.7
-81558.9
-80940.3
-80336.9
-79747.6
-79172.4
-78610.7
-78062.1
-77526.1
-77002.4
-76490.6
-75990.4
-75501.2
-75022.9
-74555.1
-74097.3
-73649.7
-73210.5
-72782.3
-72358.8
-71948.6
-71546.4
-71152.2
-70766
-70387.2
-70016.1
-69652.1
-69295.3
-68945.4
-68602.3
-68265.7
-67935.5
-67611.5
-67293.6
-66981.6
-66675.3
-66374.7
-66079.6
-65789.7
-65505.6
-65225.8
-64954.2
-64682.1
-64432.2
-64154.8
-63871.5
-63645.6
-63414
-63154.3
-62916.2
-62676.6
-62444.3
-62214.8
-61989.7
-61768
-61549.9
-61335.1
-61123.8
-60915.6
-60710.6
-60508.7
-60309.8
-60113.8
-59920.7
-59730.4
-59542.9
-59358
-59175.8
-58996.1
-58818.9
-58644.2
-58471.9
-58301.8
-58134.2
-57968.6
-57805.7
-57644
-57486.2
-57327.1
-57176.6
-57015.2
-56880.6
-56684.5
-97670.1
-96314.3
-95480.7
-94419.5
-93518.7
-92575.2
-91692.9
-90816.3
-89973
-89147.2
-88346
-87564.4
-86803.9
-86062.6
-85340.4
-84636.3
-83950
-83280.7
-82628
-81991
-81369.8
-80762.7
-80170.4
-79591.7
-79026.7
-78474.7
-77935.3
-77408.2
-76893
-76389.2
-75896.5
-75414.5
-74942.7
-74481.4
-74028.2
-73586.9
-73149
-72730.2
-72314.9
-71910
-71512.1
-71122.3
-70740.1
-70365.3
-69997.9
-69637.6
-69284.2
-68937.6
-68597.5
-68263.9
-67936.5
-67615.1
-67299.6
-66989.9
-66685.8
-66387.1
-66093.9
-65805.4
-65522.6
-65243.1
-64970.7
-64696.5
-64436.2
-64182.1
-63923.4
-63671.9
-63424.3
-63180.7
-62941.3
-62705.6
-62473.9
-62245.7
-62021.1
-61800
-61582.4
-61368
-61156.9
-60949
-60744.1
-60542.3
-60343.5
-60147.5
-59954.3
-59764
-59576.3
-59391.2
-59208.8
-59028.8
-58851.4
-58676.3
-58503.7
-58333.2
-58165.4
-57998.9
-57836.4
-57672.5
-57517.4
-57351.5
-57212.3
-57012.3
-99160.4
-97768.1
-96909.5
-95818.3
-94891.5
-93920.9
-93013.3
-92111.5
-91244
-90394.5
-89570.2
-88766.2
-87983.8
-87221.2
-86478.3
-85754
-85047.9
-84359.3
-83687.9
-83032.5
-82393.5
-81769.1
-81159.6
-80564.4
-79983.1
-79415.2
-78860.3
-78318
-77787.9
-77269.7
-76762.8
-76267
-75781.9
-75307.3
-74842.3
-74387.9
-73941.7
-73506.5
-73079.7
-72662
-72252.6
-71851.3
-71458.1
-71072.6
-70694.6
-70323.9
-69960.4
-69603.8
-69254
-68910.7
-68573.9
-68243.3
-67918.7
-67600.1
-67287.3
-66980
-66678.3
-66381.6
-66090.3
-65803.3
-65520.7
-65243.2
-64956.7
-64704.6
-64442.3
-64185.1
-63931.3
-63681
-63434.9
-63192.6
-62954.2
-62719.4
-62488.4
-62261
-62037.1
-61816.6
-61599.4
-61385.5
-61174.8
-60967.2
-60762.6
-60561
-60362.3
-60166.4
-59973.4
-59783
-59595.3
-59410.2
-59227.6
-59047.5
-58870
-58694.6
-58522
-58350.7
-58183.5
-58015
-57855.3
-57684.9
-57541.2
-57337.2
-100638
-99209.2
-98325.5
-97204.9
-96252
-95254.9
-94321.9
-93395.4
-92503.8
-91630.8
-90783.8
-89957.5
-89153.4