/*--------------------------------*- C++ -*----------------------------------*\
| =========                 |                                                 |
| \\      /  F ield         | foam-extend: Open Source CFD                    |
|  \\    /   O peration     | Version:     4.1                                |
|   \\  /    A nd           | Web:         http://www.foam-extend.org         |
|    \\/     M anipulation  |                                                 |
\*---------------------------------------------------------------------------*/
FoamFile
{
    version     2.0;
    format      ascii;
    class       volScalarField;
    location    "1";
    object      sigmaHyd;
}
// * * * * * * * * * * * * * * * * * * * * * * * * * * * * * * * * * * * * * //

dimensions      [1 -1 -2 0 0 0 0];

internalField   nonuniform List<scalar> 
400000
(
-46610.1
-46554.4
-46569.1
-46547.8
-46544.9
-46533.2
-46526.2
-46517.3
-46509.5
-46501.5
-46493.8
-46486.2
-46478.7
-46471.4
-46464.2
-46457.1
-46450.2
-46443.3
-46436.6
-46430
-46423.5
-46417.1
-46410.8
-46404.6
-46398.5
-46392.5
-46386.6
-46380.8
-46375.1
-46369.5
-46364
-46358.5
-46353.2
-46347.9
-46342.7
-46337.6
-46332.6
-46327.6
-46322.7
-46317.9
-46313.1
-46308.5
-46303.9
-46299.3
-46294.8
-46290.4
-46286.1
-46281.8
-46277.5
-46273.4
-46269.2
-46265.2
-46261.2
-46257.2
-46253.3
-46249.5
-46245.7
-46241.9
-46238.2
-46234.5
-46230.9
-46227.4
-46223.9
-46220.4
-46217
-46213.6
-46210.2
-46206.9
-46203.6
-46200.3
-46197.1
-46193.9
-46190.7
-46187.6
-46184.5
-46181.5
-46178.5
-46175.5
-46172.5
-46169.6
-46166.7
-46163.9
-46161
-46158.2
-46155.5
-46152.7
-46150
-46147.3
-46144.6
-46142
-46139.3
-46136.7
-46134.2
-46131.6
-46129.1
-46126.6
-46124.1
-46121.7
-46119.2
-46116.8
-46114.4
-46112
-46109.7
-46107.3
-46105
-46102.7
-46100.4
-46098.1
-46095.8
-46093.6
-46091.3
-46089.1
-46086.9
-46084.7
-46082.7
-46080.6
-46078.7
-46076.9
-46074.7
-46072.4
-46070.3
-46068.1
-46066
-46063.9
-46061.9
-46059.9
-46057.8
-46055.8
-46053.9
-46051.9
-46049.9
-46047.9
-46045.9
-46043.8
-46041.8
-46039.6
-46038.2
-46036.2
-46034.4
-46032.5
-46030.7
-46028.8
-46026.9
-46025
-46023.2
-46021.3
-46019.5
-46017.6
-46015.8
-46013.9
-46012.1
-46010.3
-46008.5
-46006.7
-46004.9
-46003.1
-46001.3
-45999.6
-45997.8
-45996
-45994.3
-45992.5
-45990.8
-45989.1
-45987.3
-45985.6
-45983.9
-45982.1
-45980.4
-45978.5
-45976.7
-45974.9
-45973.2
-45971.4
-45969.7
-45968
-45966.3
-45964.5
-45962.8
-45961.1
-45959.4
-45957.7
-45956
-45954.3
-45952.6
-45950.9
-45949.2
-45947.5
-45945.8
-45944.1
-45942.5
-45940.9
-45939.3
-45937.7
-45936.5
-45935
-45934.9
-45933
-45937.4
-45924.3
-47465.7
-47399.3
-47406.6
-47376.2
-47365.7
-47345.6
-47330.8
-47313.8
-47298.4
-47282.6
-47267.4
-47252.3
-47237.5
-47222.9
-47208.6
-47194.4
-47180.5
-47166.8
-47153.3
-47140
-47126.9
-47114
-47101.2
-47088.7
-47076.4
-47064.2
-47052.2
-47040.4
-47028.7
-47017.3
-47005.9
-46994.8
-46983.8
-46972.9
-46962.2
-46951.7
-46941.3
-46931
-46920.9
-46910.9
-46901
-46891.3
-46881.7
-46872.2
-46862.8
-46853.6
-46844.5
-46835.5
-46826.6
-46817.8
-46809.2
-46800.6
-46792.2
-46783.8
-46775.6
-46767.4
-46759.4
-46751.4
-46743.6
-46735.8
-46728.2
-46720.6
-46713.1
-46705.8
-46698.5
-46691.2
-46684.1
-46677
-46669.9
-46663
-46656.1
-46649.3
-46642.6
-46635.9
-46629.3
-46622.8
-46616.4
-46610.1
-46603.8
-46597.5
-46591.4
-46585.3
-46579.2
-46573.3
-46567.3
-46561.5
-46555.7
-46549.9
-46544.2
-46538.6
-46533
-46527.4
-46522
-46516.5
-46511.1
-46505.8
-46500.5
-46495.3
-46490.1
-46485
-46479.9
-46474.8
-46469.8
-46464.8
-46459.9
-46455
-46450.2
-46445.4
-46440.6
-46435.9
-46431.2
-46426.6
-46422
-46417.4
-46412.9
-46408.5
-46404.1
-46399.8
-46395.5
-46391.1
-46386.7
-46382.3
-46378
-46373.8
-46369.5
-46365.3
-46361.2
-46357
-46352.9
-46348.8
-46344.7
-46340.6
-46336.6
-46332.3
-46328.4
-46323.8
-46320.7
-46316.7
-46313.2
-46309.4
-46305.7
-46302
-46298.3
-46294.6
-46290.9
-46287.2
-46283.5
-46279.9
-46276.3
-46272.7
-46269.1
-46265.5
-46262
-46258.5
-46255
-46251.5
-46248
-46244.6
-46241.1
-46237.7
-46234.3
-46231
-46227.6
-46224.3
-46221
-46217.7
-46214.4
-46211.3
-46208
-46204.6
-46201.2
-46197.9
-46194.6
-46191.4
-46188.2
-46185
-46181.8
-46178.7
-46175.5
-46172.4
-46169.3
-46166.2
-46163.1
-46160
-46156.9
-46153.9
-46150.8
-46147.8
-46144.8
-46141.8
-46138.9
-46135.9
-46133.1
-46130.1
-46127.7
-46124.6
-46123.3
-46119.3
-46122.3
-46104.6
-48321.1
-48244.1
-48244
-48204.8
-48186.4
-48157.9
-48135.3
-48110.3
-48087.2
-48063.7
-48040.9
-48018.3
-47996.2
-47974.3
-47952.8
-47931.6
-47910.7
-47890.1
-47869.8
-47849.9
-47830.2
-47810.7
-47791.6
-47772.7
-47754.1
-47735.8
-47717.7
-47699.9
-47682.3
-47664.9
-47647.8
-47631
-47614.3
-47597.9
-47581.7
-47565.7
-47549.9
-47534.3
-47519
-47503.8
-47488.8
-47474
-47459.4
-47445
-47430.8
-47416.7
-47402.8
-47389.1
-47375.6
-47362.2
-47349
-47336
-47323.1
-47310.4
-47297.8
-47285.3
-47273
-47260.9
-47248.9
-47237.1
-47225.3
-47213.8
-47202.3
-47191.1
-47179.9
-47168.9
-47158
-47147
-47136.3
-47125.6
-47115
-47104.6
-47094.3
-47084.2
-47074.1
-47064.2
-47054.3
-47044.6
-47035
-47025.4
-47016
-47006.6
-46997.4
-46988.2
-46979.1
-46970.2
-46961.3
-46952.5
-46943.7
-46935.1
-46926.6
-46918.1
-46909.7
-46901.4
-46893.1
-46885
-46876.9
-46868.9
-46861
-46853.1
-46845.3
-46837.6
-46829.9
-46822.3
-46814.8
-46807.4
-46800
-46792.6
-46785.4
-46778.2
-46771
-46764
-46757
-46750
-46743.2
-46736.4
-46729.6
-46723
-46716.3
-46709.6
-46703
-46696.4
-46689.9
-46683.5
-46677.1
-46670.7
-46664.4
-46658.2
-46652
-46645.8
-46639.7
-46633.6
-46627.5
-46621.5
-46615.5
-46609.5
-46603.8
-46598
-46592.3
-46586.6
-46580.9
-46575.3
-46569.7
-46564.1
-46558.6
-46553.1
-46547.6
-46542.1
-46536.7
-46531.4
-46526
-46520.7
-46515.4
-46510.2
-46505
-46499.8
-46494.7
-46489.6
-46484.5
-46479.4
-46474.4
-46469.5
-46464.5
-46459.7
-46454.8
-46450.1
-46445.2
-46440.7
-46435.6
-46430.1
-46425.5
-46420.6
-46415.9
-46411.2
-46406.6
-46401.9
-46397.3
-46392.8
-46388.2
-46383.7
-46379.1
-46374.6
-46370.2
-46365.7
-46361.3
-46356.9
-46352.5
-46348.1
-46343.8
-46339.5
-46335.3
-46331.1
-46327.1
-46322.8
-46319.2
-46314.6
-46312.4
-46305.7
-46308.2
-46283.9
-49176.2
-49088.7
-49081.2
-49033
-49006.8
-48970.1
-48939.5
-48906.6
-48875.7
-48844.5
-48814.2
-48784.2
-48754.7
-48725.5
-48696.9
-48668.6
-48640.8
-48613.3
-48586.3
-48559.6
-48533.3
-48507.4
-48481.8
-48456.6
-48431.8
-48407.2
-48383.1
-48359.2
-48335.7
-48312.5
-48289.6
-48267
-48244.7
-48222.7
-48201
-48179.6
-48158.4
-48137.5
-48116.9
-48096.6
-48076.5
-48056.6
-48037
-48017.7
-47998.6
-47979.7
-47961.1
-47942.7
-47924.5
-47906.5
-47888.8
-47871.2
-47853.9
-47836.8
-47819.9
-47803.1
-47786.6
-47770.3
-47754.1
-47738.2
-47722.4
-47706.8
-47691.4
-47676.3
-47661.2
-47646.4
-47631.7
-47616.9
-47602.4
-47588.1
-47573.9
-47559.9
-47546
-47532.4
-47518.8
-47505.4
-47492.2
-47479.1
-47466.1
-47453.2
-47440.5
-47427.9
-47415.5
-47403.1
-47390.9
-47378.8
-47366.8
-47355
-47343.2
-47331.6
-47320.1
-47308.7
-47297.4
-47286.2
-47275.1
-47264.1
-47253.2
-47242.4
-47231.8
-47221.2
-47210.7
-47200.3
-47190
-47179.8
-47169.7
-47159.6
-47149.7
-47139.9
-47130.1
-47120.4
-47110.8
-47101.3
-47091.9
-47082.6
-47073.3
-47064.1
-47055
-47046
-47037.1
-47028.2
-47019.3
-47010.5
-47001.8
-46993.2
-46984.6
-46976.1
-46967.7
-46959.3
-46951
-46942.7
-46934.5
-46926.3
-46918.3
-46910.2
-46902.3
-46894.3
-46886.6
-46878.8
-46871.2
-46863.6
-46856
-46848.5
-46841
-46833.6
-46826.2
-46818.9
-46811.6
-46804.4
-46797.2
-46790
-46782.9
-46775.9
-46768.9
-46761.9
-46755
-46748.1
-46741.3
-46734.5
-46727.7
-46721
-46714.3
-46707.8
-46701.1
-46694.7
-46688
-46682
-46675.2
-46669.8
-46664.5
-46656.6
-46649.6
-46643.6
-46637.1
-46631.1
-46624.9
-46618.9
-46612.8
-46606.8
-46600.8
-46594.9
-46589
-46583.1
-46577.2
-46571.4
-46565.6
-46559.8
-46554.1
-46548.4
-46542.7
-46537.1
-46531.6
-46526
-46520.6
-46515
-46510.1
-46504
-46500.4
-46492.1
-46493.1
-46466.6
-50031.2
-49933
-49918.2
-49861.1
-49827
-49782
-49743.6
-49702.7
-49664.1
-49625.2
-49587.3
-49549.8
-49512.9
-49476.6
-49440.8
-49405.4
-49370.6
-49336.3
-49302.5
-49269.2
-49236.3
-49203.8
-49171.9
-49140.3
-49109.2
-49078.5
-49048.3
-49018.4
-48988.9
-48959.9
-48931.2
-48902.9
-48874.9
-48847.4
-48820.1
-48793.3
-48766.8
-48740.6
-48714.7
-48689.2
-48664
-48639.1
-48614.5
-48590.3
-48566.3
-48542.6
-48519.2
-48496.1
-48473.2
-48450.7
-48428.4
-48406.4
-48384.6
-48363.1
-48341.8
-48320.8
-48300
-48279.5
-48259.2
-48239.2
-48219.3
-48199.8
-48180.4
-48161.3
-48142.5
-48123.9
-48105.9
-48086.8
-48068.6
-48050.5
-48032.6
-48015
-47997.6
-47980.4
-47963.4
-47946.6
-47929.9
-47913.4
-47897.1
-47880.9
-47864.9
-47849.1
-47833.4
-47817.9
-47802.5
-47787.3
-47772.3
-47757.4
-47742.6
-47728
-47713.5
-47699.1
-47684.9
-47670.9
-47656.9
-47643.1
-47629.4
-47615.9
-47602.5
-47589.2
-47576
-47562.9
-47550
-47537.2
-47524.4
-47511.8
-47499.4
-47487
-47474.7
-47462.6
-47450.5
-47438.6
-47426.7
-47415
-47403.4
-47391.8
-47380.4
-47369.1
-47357.8
-47346.6
-47335.6
-47324.6
-47313.6
-47302.8
-47292.1
-47281.4
-47270.8
-47260.3
-47249.9
-47239.6
-47229.3
-47219.2
-47209.1
-47199
-47189.1
-47179.2
-47169.5
-47159.7
-47150.1
-47140.6
-47131.1
-47121.7
-47112.3
-47103.1
-47093.8
-47084.7
-47075.6
-47066.5
-47057.6
-47048.6
-47039.8
-47031
-47022.3
-47013.6
-47004.9
-46996.4
-46987.9
-46979.4
-46971
-46962.7
-46954.4
-46946.2
-46938
-46930.2
-46922
-46915
-46906.5
-46902.9
-46891.5
-46878.2
-46873.8
-46865.5
-46858.4
-46850.8
-46843.3
-46835.8
-46828.3
-46820.9
-46813.5
-46806.1
-46798.8
-46791.5
-46784.2
-46777
-46769.9
-46762.7
-46755.7
-46748.6
-46741.6
-46734.7
-46727.8
-46720.9
-46714.3
-46707.3
-46701.1
-46693.5
-46688.7
-46678.7
-46678.6
-46650.1
-50885.8
-50777.1
-50754.8
-50688.9
-50646.9
-50593.6
-50547.3
-50498.5
-50452.1
-50405.6
-50360.2
-50315.2
-50271
-50227.4
-50184.4
-50142
-50100.3
-50059.1
-50018.5
-49978.5
-49939
-49900.1
-49861.7
-49823.8
-49786.4
-49749.6
-49713.2
-49677.4
-49642
-49607
-49572.6
-49538.5
-49505
-49471.8
-49439.1
-49406.8
-49374.9
-49343.4
-49312.3
-49281.6
-49251.3
-49221.4
-49191.8
-49162.6
-49133.8
-49105.3
-49077.1
-49049.3
-49021.8
-48994.7
-48967.8
-48941.3
-48915.1
-48889.2
-48863.6
-48838.3
-48813.3
-48788.6
-48764.1
-48740
-48716.1
-48692.6
-48669.2
-48646.3
-48623.5
-48601.3
-48579.1
-48556.2
-48534.4
-48512.6
-48491.2
-48470
-48449
-48428.3
-48407.8
-48387.6
-48367.5
-48347.6
-48328
-48308.5
-48289.2
-48270.2
-48251.3
-48232.6
-48214.1
-48195.8
-48177.6
-48159.6
-48141.9
-48124.2
-48106.8
-48089.5
-48072.4
-48055.4
-48038.7
-48022
-48005.6
-47989.2
-47973.1
-47957
-47941.2
-47925.4
-47909.9
-47894.4
-47879.1
-47863.9
-47848.9
-47834
-47819.2
-47804.6
-47790.1
-47775.7
-47761.5
-47747.3
-47733.3
-47719.5
-47705.7
-47692
-47678.5
-47665.1
-47651.7
-47638.5
-47625.4
-47612.4
-47599.4
-47586.6
-47573.9
-47561.3
-47548.8
-47536.4
-47524.1
-47511.8
-47499.7
-47487.7
-47475.7
-47463.9
-47452.2
-47440.5
-47429
-47417.5
-47406.1
-47394.8
-47383.6
-47372.4
-47361.4
-47350.4
-47339.5
-47328.6
-47317.9
-47307.2
-47296.6
-47286
-47275.6
-47265.2
-47254.8
-47244.6
-47234.4
-47224.2
-47214.1
-47204.1
-47194.1
-47184.3
-47174.1
-47164.6
-47153.6
-47145.3
-47130
-47128.8
-47103.8
-47110
-47092.5
-47089
-47078.4
-47070.6
-47061.3
-47052.7
-47043.7
-47034.9
-47026
-47017.3
-47008.5
-46999.8
-46991.2
-46982.6
-46974.1
-46965.6
-46957.1
-46948.8
-46940.4
-46932.1
-46923.9
-46915.7
-46907.7
-46899.4
-46891.9
-46883
-46876.8
-46865.5
-46864.1
-46834.2
-51740
-51620.8
-51591.2
-51516.4
-51466.4
-51404.9
-51350.7
-51294
-51239.9
-51185.6
-51132.7
-51080.3
-51028.7
-50977.8
-50927.7
-50878.3
-50829.6
-50781.6
-50734.2
-50687.5
-50641.5
-50596
-50551.2
-50507
-50463.4
-50420.4
-50377.9
-50336.1
-50294.7
-50253.9
-50213.7
-50174
-50134.7
-50096
-50057.8
-50020.1
-49982.8
-49946
-49909.7
-49873.9
-49838.4
-49803.5
-49768.9
-49734.8
-49701
-49667.7
-49634.8
-49602.3
-49570.2
-49538.5
-49507.1
-49476.1
-49445.4
-49415.2
-49385.2
-49355.6
-49326.4
-49297.5
-49268.9
-49240.6
-49212.6
-49185
-49157.5
-49130.9
-49103.9
-49078.5
-49056
-49026.2
-48999.8
-48974.7
-48949.3
-48924.8
-48900.2
-48876.1
-48852.1
-48828.4
-48804.9
-48781.7
-48758.7
-48735.9
-48713.4
-48691.1
-48669
-48647.1
-48625.5
-48604
-48582.8
-48561.8
-48541
-48520.4
-48500
-48479.7
-48459.7
-48439.9
-48420.3
-48400.8
-48381.5
-48362.4
-48343.5
-48324.8
-48306.2
-48287.8
-48269.6
-48251.6
-48233.7
-48215.9
-48198.3
-48180.9
-48163.7
-48146.5
-48129.6
-48112.8
-48096.1
-48079.6
-48063.2
-48047
-48030.9
-48014.9
-47999.1
-47983.4
-47967.8
-47952.3
-47937
-47921.8
-47906.7
-47891.8
-47876.9
-47862.2
-47847.6
-47833.1
-47818.7
-47804.5
-47790.3
-47776.3
-47762.3
-47748.5
-47734.8
-47721.2
-47707.7
-47694.3
-47681
-47667.8
-47654.8
-47641.8
-47628.8
-47616
-47603.3
-47590.7
-47578.1
-47565.7
-47553.3
-47541
-47528.8
-47516.7
-47504.7
-47492.7
-47480.8
-47469
-47457.3
-47445.7
-47434.1
-47422.6
-47411.1
-47399.7
-47388.4
-47376.6
-47366
-47351.5
-47346.1
-47338.7
-47323.6
-47313.4
-47301.6
-47291.1
-47280.3
-47269.8
-47259.3
-47248.9
-47238.6
-47228.4
-47218.2
-47208.1
-47198.1
-47188.1
-47178.2
-47168.4
-47158.6
-47148.8
-47139.2
-47129.5
-47120
-47110.4
-47101.1
-47091.5
-47082.6
-47072.4
-47065
-47052.3
-47049.8
-47018.4
-52593.9
-52464.1
-52427.1
-52343.4
-52285.5
-52215.8
-52153.7
-52089.1
-52027.2
-51965.3
-51904.8
-51845
-51786.1
-51728
-51670.7
-51614.3
-51558.6
-51503.7
-51449.6
-51396.2
-51343.6
-51291.7
-51240.4
-51189.9
-51140.1
-51090.9
-51042.4
-50994.5
-50947.2
-50900.6
-50854.5
-50809.1
-50764.2
-50720
-50676.2
-50633.1
-50590.5
-50548.4
-50506.8
-50465.8
-50425.3
-50385.3
-50345.7
-50306.7
-50268.1
-50230
-50192.3
-50155.1
-50118.3
-50082
-50046.1
-50010.6
-49975.5
-49940.9
-49906.6
-49872.7
-49839.3
-49806.2
-49773.4
-49741.1
-49709
-49677.5
-49646
-49615.6
-49584.6
-49556.8
-49526
-49493.4
-49465.2
-49436.3
-49407.6
-49379.4
-49351.4
-49323.7
-49296.2
-49269.1
-49242.2
-49215.6
-49189.2
-49163.2
-49137.3
-49111.8
-49086.5
-49061.5
-49036.7
-49012.1
-48987.8
-48963.8
-48939.9
-48916.3
-48893
-48869.8
-48846.9
-48824.2
-48801.7
-48779.4
-48757.4
-48735.5
-48713.8
-48692.4
-48671.1
-48650.1
-48629.2
-48608.5
-48588
-48567.7
-48547.6
-48527.7
-48507.9
-48488.3
-48468.9
-48449.7
-48430.6
-48411.7
-48392.9
-48374.3
-48355.9
-48337.6
-48319.5
-48301.5
-48283.7
-48266
-48248.5
-48231.1
-48213.9
-48196.8
-48179.8
-48162.9
-48146.2
-48129.7
-48113.2
-48096.9
-48080.8
-48064.7
-48048.8
-48033
-48017.3
-48001.8
-47986.4
-47971
-47955.9
-47940.8
-47925.8
-47911
-47896.2
-47881.6
-47867
-47852.6
-47838.3
-47824
-47809.9
-47795.9
-47782
-47768.1
-47754.4
-47740.7
-47727.2
-47713.7
-47700.3
-47687
-47673.8
-47660.7
-47647.6
-47634.8
-47621.8
-47609.3
-47596.5
-47584.6
-47573.7
-47560.2
-47546.9
-47535
-47522.4
-47510.5
-47498.3
-47486.4
-47474.6
-47462.8
-47451.1
-47439.4
-47427.9
-47416.4
-47404.9
-47393.6
-47382.3
-47371.1
-47359.9
-47348.8
-47337.8
-47326.8
-47316
-47305.1
-47294.5
-47283.5
-47273.4
-47261.8
-47253.1
-47239.1
-47235.4
-47202.6
-53447.3
-53307
-53262.5
-53170
-53104.2
-53026.3
-52956.3
-52883.8
-52814.2
-52744.6
-52676.6
-52609.3
-52543.1
-52477.7
-52413.3
-52349.9
-52287.3
-52225.5
-52164.6
-52104.6
-52045.4
-51987
-51929.3
-51872.5
-51816.4
-51761
-51706.4
-51652.5
-51599.3
-51546.9
-51495
-51443.9
-51393.4
-51343.6
-51294.4
-51245.8
-51197.8
-51150.4
-51103.7
-51057.5
-51011.8
-50966.8
-50922.2
-50878.3
-50834.8
-50791.9
-50749.5
-50707.6
-50666.2
-50625.3
-50584.8
-50544.9
-50505.4
-50466.3
-50427.7
-50389.6
-50351.8
-50314.6
-50277.6
-50241.2
-50204.9
-50169.3
-50133
-50099
-50058.6
-50031.7
-49987.2
-49964.7
-49924.5
-49897.8
-49864.5
-49833.7
-49802
-49771
-49740.1
-49709.5
-49679.2
-49649.2
-49619.6
-49590.2
-49561.1
-49532.3
-49503.8
-49475.6
-49447.7
-49420
-49392.6
-49365.5
-49338.7
-49312.1
-49285.8
-49259.7
-49233.9
-49208.3
-49183
-49157.9
-49133
-49108.4
-49084
-49059.8
-49035.9
-49012.2
-48988.6
-48965.4
-48942.3
-48919.4
-48896.7
-48874.3
-48852
-48830
-48808.1
-48786.4
-48764.9
-48743.6
-48722.5
-48701.6
-48680.8
-48660.2
-48639.8
-48619.6
-48599.5
-48579.6
-48559.9
-48540.3
-48520.9
-48501.6
-48482.5
-48463.6
-48444.8
-48426.1
-48407.6
-48389.3
-48371.1
-48353
-48335.1
-48317.3
-48299.7
-48282.2
-48264.9
-48247.6
-48230.6
-48213.6
-48196.8
-48180
-48163.5
-48147
-48130.6
-48114.4
-48098.3
-48082.3
-48066.4
-48050.7
-48035
-48019.4
-48004
-47988.7
-47973.4
-47958.3
-47943.3
-47928.4
-47913.5
-47898.8
-47884.2
-47869.7
-47855.3
-47840.9
-47826.9
-47812.6
-47799.2
-47785.7
-47771.4
-47757.8
-47743.8
-47730.3
-47716.7
-47703.2
-47689.9
-47676.6
-47663.5
-47650.4
-47637.4
-47624.5
-47611.7
-47598.9
-47586.3
-47573.7
-47561.2
-47548.7
-47536.4
-47524.1
-47511.9
-47499.7
-47487.7
-47475.5
-47464
-47451.2
-47441.2
-47425.9
-47421
-47386.8
-54300.2
-54149.4
-54097.5
-53996.2
-53922.5
-53836.3
-53758.4
-53678
-53600.7
-53523.5
-53447.9
-53373.2
-53299.6
-53227
-53155.5
-53085
-53015.5
-52946.9
-52879.3
-52812.5
-52746.7
-52681.8
-52617.8
-52554.6
-52492.3
-52430.8
-52370.1
-52310.2
-52251.1
-52192.8
-52135.2
-52078.4
-52022.2
-51966.8
-51912.2
-51858.1
-51804.8
-51752.2
-51700.2
-51648.8
-51598.1
-51548
-51498.5
-51449.6
-51401.2
-51353.5
-51306.4
-51259.8
-51213.7
-51168.2
-51123.3
-51078.8
-51034.9
-50991.5
-50948.6
-50906.1
-50864.2
-50822.7
-50781.7
-50741.1
-50701
-50661.4
-50622
-50583.2
-50544.8
-50505.8
-50471.4
-50435.1
-50396
-50360.1
-50323.6
-50288.3
-50253
-50218.3
-50183.8
-50149.8
-50116.1
-50082.7
-50049.7
-50017
-49984.6
-49952.6
-49920.9
-49889.5
-49858.5
-49827.7
-49797.2
-49767.1
-49737.2
-49707.6
-49678.4
-49649.4
-49620.6
-49592.2
-49564
-49536.1
-49508.4
-49481.1
-49453.9
-49427
-49400.4
-49374
-49347.9
-49322
-49296.3
-49270.9
-49245.7
-49220.7
-49195.9
-49171.4
-49147.1
-49123
-49099.1
-49075.4
-49051.9
-49028.6
-49005.5
-48982.6
-48960
-48937.5
-48915.1
-48893
-48871.1
-48849.3
-48827.7
-48806.3
-48785.1
-48764
-48743.1
-48722.4
-48701.9
-48681.5
-48661.3
-48641.2
-48621.3
-48601.5
-48582
-48562.5
-48543.2
-48524.1
-48505.1
-48486.3
-48467.6
-48449
-48430.6
-48412.3
-48394.1
-48376.1
-48358.2
-48340.4
-48322.8
-48305.3
-48287.9
-48270.6
-48253.5
-48236.5
-48219.6
-48202.8
-48186.1
-48169.6
-48153.1
-48136.8
-48120.6
-48104.5
-48088.5
-48072.7
-48057
-48041.5
-48026.1
-48010.6
-47995.1
-47979.9
-47964.6
-47949.6
-47934.6
-47919.7
-47904.9
-47890.3
-47875.7
-47861.2
-47846.8
-47832.5
-47818.3
-47804.2
-47790.1
-47776.2
-47762.3
-47748.5
-47734.8
-47721.2
-47707.7
-47694.1
-47680.9
-47667.3
-47654.6
-47640.5
-47629.2
-47612.7
-47606.6
-47571
-55152.6
-54991.2
-54932
-54821.8
-54740.2
-54645.7
-54560
-54471.7
-54386.6
-54301.8
-54218.7
-54136.5
-54055.7
-53975.9
-53897.2
-53819.7
-53743.2
-53667.8
-53593.4
-53520
-53447.7
-53376.3
-53305.9
-53236.4
-53167.8
-53100.2
-53033.4
-52967.5
-52902.5
-52838.3
-52774.9
-52712.4
-52650.7
-52589.7
-52529.5
-52470.1
-52411.4
-52353.5
-52296.3
-52239.7
-52183.9
-52128.8
-52074.3
-52020.5
-51967.3
-51914.8
-51862.9
-51811.6
-51760.9
-51710.9
-51661.4
-51612.5
-51564.1
-51516.3
-51469.1
-51422.4
-51376.2
-51330.5
-51285.4
-51240.8
-51196.5
-51153
-51109.6
-51067.2
-51024.8
-50983.9
-50946.6
-50902.1
-50860.7
-50821
-50781
-50742.1
-50703.3
-50665.1
-50627.2
-50589.7
-50552.6
-50515.9
-50479.5
-50443.5
-50407.9
-50372.7
-50337.8
-50303.2
-50269
-50235.1
-50201.6
-50168.4
-50135.5
-50103
-50070.7
-50038.8
-50007.2
-49975.8
-49944.8
-49914.1
-49883.7
-49853.5
-49823.6
-49794
-49764.7
-49735.7
-49706.9
-49678.4
-49650.1
-49622.1
-49594.4
-49566.9
-49539.6
-49512.6
-49485.9
-49459.3
-49433
-49406.9
-49381.1
-49355.5
-49330.1
-49304.9
-49279.9
-49255.1
-49230.6
-49206.2
-49182.1
-49158.1
-49134.4
-49110.8
-49087.5
-49064.3
-49041.3
-49018.5
-48995.9
-48973.5
-48951.3
-48929.2
-48907.3
-48885.6
-48864
-48842.6
-48821.4
-48800.4
-48779.5
-48758.8
-48738.2
-48717.8
-48697.5
-48677.4
-48657.4
-48637.6
-48618
-48598.4
-48579
-48559.8
-48540.7
-48521.7
-48502.9
-48484.2
-48465.6
-48447.1
-48428.8
-48410.6
-48392.6
-48374.6
-48356.8
-48339.2
-48321.6
-48304.2
-48286.9
-48269.7
-48252.8
-48235.8
-48218.9
-48202.2
-48185.5
-48169
-48152.5
-48136.2
-48120
-48103.9
-48087.8
-48071.9
-48056.1
-48040.4
-48024.8
-48009.3
-47993.9
-47978.6
-47963.3
-47948.2
-47933.2
-47918.2
-47903.4
-47888.5
-47874
-47859.1
-47845.1
-47829.7
-47817.2
-47799.3
-47792
-47755.1
-56004.4
-55832.5
-55765.8
-55646.8
-55557.3
-55454.6
-55361
-55264.8
-55172.1
-55079.6
-54989
-54899.4
-54811.2
-54724.2
-54638.4
-54553.8
-54470.4
-54388.2
-54307.1
-54227
-54148.1
-54070.2
-53993.4
-53917.6
-53842.8
-53769
-53696.2
-53624.3
-53553.4
-53483.4
-53414.3
-53346
-53278.7
-53212.2
-53146.5
-53081.7
-53017.6
-52954.4
-52892
-52830.3
-52769.4
-52709.2
-52649.7
-52591
-52533
-52475.7
-52419
-52363.1
-52307.8
-52253.1
-52199.1
-52145.7
-52093
-52040.8
-51989.2
-51938.3
-51887.9
-51838.1
-51788.8
-51740.1
-51691.9
-51644.3
-51597.2
-51550.6
-51504.7
-51459.1
-51414.9
-51370.1
-51325.6
-51282
-51238.6
-51195.9
-51153.5
-51111.7
-51070.3
-51029.4
-50988.9
-50948.8
-50909.1
-50869.8
-50830.9
-50792.4
-50754.3
-50716.6
-50679.3
-50642.3
-50605.7
-50569.4
-50533.5
-50498
-50462.8
-50428
-50393.4
-50359.2
-50325.4
-50291.8
-50258.6
-50225.7
-50193.1
-50160.8
-50128.8
-50097.1
-50065.7
-50034.6
-50003.7
-49973.2
-49942.9
-49912.9
-49883.1
-49853.6
-49824.4
-49795.5
-49766.8
-49738.3
-49710.1
-49682.1
-49654.4
-49626.9
-49599.6
-49572.6
-49545.8
-49519.2
-49492.9
-49466.8
-49440.9
-49415.2
-49389.7
-49364.4
-49339.3
-49314.5
-49289.8
-49265.3
-49241.1
-49217
-49193.1
-49169.4
-49145.9
-49122.6
-49099.5
-49076.5
-49053.7
-49031.1
-49008.7
-48986.4
-48964.3
-48942.4
-48920.6
-48899
-48877.6
-48856.3
-48835.1
-48814.1
-48793.3
-48772.6
-48752.1
-48731.7
-48711.4
-48691.3
-48671.3
-48651.5
-48631.8
-48612.3
-48592.9
-48573.6
-48554.5
-48535.5
-48516.7
-48498
-48479.4
-48460.9
-48442.5
-48424.3
-48406.1
-48388.1
-48370.2
-48352.4
-48334.8
-48317.2
-48299.8
-48282.5
-48265.3
-48248.2
-48231.2
-48214.3
-48197.5
-48180.8
-48164.3
-48147.8
-48131.4
-48115.1
-48098.9
-48082.8
-48066.9
-48050.8
-48035.5
-48018.8
-48005
-47985.9
-47977.4
-47939
-56855.5
-56673.1
-56599.1
-56471.2
-56373.8
-56262.9
-56161.4
-56057.3
-55956.9
-55856.8
-55758.6
-55661.6
-55566.1
-55471.9
-55379
-55287.4
-55197.1
-55108
-55020.2
-54933.5
-54848
-54763.7
-54680.5
-54598.4
-54517.4
-54437.4
-54358.5
-54280.7
-54203.8
-54128
-54053.1
-53979.2
-53906.2
-53834.1
-53763
-53692.7
-53623.4
-53554.9
-53487.2
-53420.4
-53354.4
-53289.2
-53224.8
-53161.1
-53098.3
-53036.1
-52974.8
-52914.1
-52854.2
-52795
-52736.4
-52678.6
-52621.4
-52564.9
-52509
-52453.8
-52399.2
-52345.2
-52291.8
-52239
-52186.8
-52135.2
-52084.2
-52033.8
-51984
-51934.8
-51886.6
-51837.7
-51789.8
-51742.4
-51695.4
-51649.2
-51603.3
-51558
-51513.1
-51468.7
-51424.8
-51381.4
-51338.3
-51295.8
-51253.6
-51211.9
-51170.6
-51129.7
-51089.2
-51049.2
-51009.5
-50970.2
-50931.3
-50892.8
-50854.6
-50816.8
-50779.4
-50742.4
-50705.7
-50669.3
-50633.3
-50597.6
-50562.3
-50527.3
-50492.6
-50458.3
-50424.2
-50390.5
-50357.1
-50323.9
-50291.1
-50258.6
-50226.4
-50194.4
-50162.7
-50131.4
-50100.2
-50069.4
-50038.8
-50008.5
-49978.5
-49948.7
-49919.2
-49889.9
-49860.8
-49832
-49803.5
-49775.2
-49747.1
-49719.3
-49691.7
-49664.3
-49637.1
-49610.2
-49583.5
-49557
-49530.7
-49504.6
-49478.7
-49453.1
-49427.6
-49402.3
-49377.3
-49352.4
-49327.7
-49303.3
-49279
-49254.8
-49230.9
-49207.2
-49183.6
-49160.2
-49137
-49113.9
-49091
-49068.3
-49045.7
-49023.3
-49001.1
-48979
-48957.1
-48935.3
-48913.7
-48892.3
-48871
-48849.8
-48828.8
-48808
-48787.3
-48766.7
-48746.3
-48726
-48705.9
-48685.9
-48666
-48646.3
-48626.6
-48607.2
-48587.8
-48568.6
-48549.5
-48530.5
-48511.7
-48493
-48474.4
-48456
-48437.5
-48419.3
-48401.1
-48383
-48365
-48347.2
-48329.5
-48311.8
-48294.4
-48276.9
-48259.7
-48242.3
-48225.7
-48207.7
-48192.7
-48172.3
-48162.6
-48122.9
-57705.9
-57513
-57431.6
-57294.9
-57189.6
-57070.5
-56961.1
-56849.2
-56741
-56633.3
-56527.7
-56423.3
-56320.5
-56219
-56119.1
-56020.4
-55923.2
-55827.3
-55732.7
-55639.4
-55547.4
-55456.5
-55366.9
-55278.5
-55191.3
-55105.2
-55020.3
-54936.4
-54853.7
-54772
-54691.4
-54611.8
-54533.2
-54455.6
-54379
-54303.3
-54228.6
-54154.8
-54082
-54010
-53938.9
-53868.7
-53799.3
-53730.8
-53663.1
-53596.2
-53530
-53464.7
-53400.2
-53336.4
-53273.3
-53211
-53149.4
-53088.6
-53028.4
-52968.9
-52910.1
-52851.9
-52794.4
-52737.5
-52681.3
-52625.7
-52570.8
-52516.4
-52462.8
-52409.6
-52357.2
-52305
-52253.5
-52202.5
-52152
-52102.1
-52052.7
-52003.9
-51955.5
-51907.7
-51860.4
-51813.6
-51767.2
-51721.4
-51676
-51631
-51586.5
-51542.5
-51498.9
-51455.7
-51412.9
-51370.6
-51328.7
-51287.2
-51246.1
-51205.4
-51165.1
-51125.2
-51085.7
-51046.5
-51007.7
-50969.3
-50931.2
-50893.5
-50856.1
-50819.1
-50782.5
-50746.1
-50710.1
-50674.4
-50639.1
-50604
-50569.3
-50534.9
-50500.8
-50467
-50433.5
-50400.3
-50367.3
-50334.7
-50302.3
-50270.2
-50238.4
-50206.9
-50175.6
-50144.6
-50113.8
-50083.3
-50053.1
-50023.1
-49993.4
-49963.9
-49934.7
-49905.7
-49876.9
-49848.4
-49820.1
-49792
-49764.1
-49736.5
-49709.1
-49681.9
-49654.9
-49628.1
-49601.6
-49575.2
-49549
-49523.1
-49497.3
-49471.7
-49446.4
-49421.2
-49396.2
-49371.4
-49346.8
-49322.3
-49298
-49273.9
-49249.9
-49226.2
-49202.6
-49179.1
-49155.9
-49132.8
-49109.9
-49087.1
-49064.5
-49042.1
-49019.8
-48997.7
-48975.7
-48953.9
-48932.2
-48910.7
-48889.3
-48868.1
-48847
-48826
-48805.2
-48784.5
-48764
-48743.6
-48723.3
-48703.2
-48683.2
-48663.4
-48643.6
-48623.9
-48604.4
-48585
-48565.6
-48546.5
-48527.4
-48508.4
-48489.7
-48470.9
-48452.4
-48433.7
-48415.8
-48396.6
-48380.3
-48358.6
-48347.8
-48306.7
-58555.6
-58352.1
-58263.4
-58117.9
-58004.6
-57877.4
-57760.2
-57640.4
-57524.5
-57409.2
-57296
-57184.2
-57074.1
-56965.5
-56858.4
-56752.8
-56648.7
-56545.9
-56444.6
-56344.7
-56246.1
-56148.8
-56052.8
-55958.1
-55864.7
-55772.5
-55681.5
-55591.7
-55503
-55415.5
-55329.1
-55243.8
-55159.6
-55076.5
-54994.4
-54913.4
-54833.3
-54754.3
-54676.2
-54599.1
-54522.9
-54447.7
-54373.4
-54299.9
-54227.4
-54155.7
-54084.8
-54014.8
-53945.7
-53877.3
-53809.7
-53743
-53677
-53611.8
-53547.3
-53483.5
-53420.5
-53358.2
-53296.6
-53235.6
-53175.4
-53115.8
-53056.9
-52998.7
-52941.2
-52884.2
-52827.9
-52772
-52716.8
-52662.2
-52608.1
-52554.6
-52501.7
-52449.4
-52397.6
-52346.3
-52295.6
-52245.4
-52195.8
-52146.6
-52097.9
-52049.8
-52002.1
-51954.9
-51908.1
-51861.9
-51816.1
-51770.7
-51725.8
-51681.3
-51637.3
-51593.7
-51550.5
-51507.7
-51465.3
-51423.4
-51381.8
-51340.6
-51299.8
-51259.4
-51219.4
-51179.7
-51140.4
-51101.5
-51062.9
-51024.6
-50986.8
-50949.2
-50912
-50875.1
-50838.6
-50802.3
-50766.4
-50730.8
-50695.5
-50660.6
-50625.9
-50591.5
-50557.4
-50523.6
-50490.1
-50456.9
-50423.9
-50391.3
-50358.9
-50326.7
-50294.9
-50263.3
-50232
-50200.9
-50170.1
-50139.5
-50109.2
-50079.1
-50049.3
-50019.7
-49990.3
-49961.2
-49932.3
-49903.6
-49875.1
-49846.9
-49818.9
-49791.1
-49763.5
-49736.1
-49708.9
-49682
-49655.2
-49628.6
-49602.3
-49576.1
-49550.1
-49524.2
-49498.6
-49473.1
-49447.8
-49422.8
-49397.9
-49373.1
-49348.6
-49324.2
-49300
-49276
-49252.2
-49228.5
-49205
-49181.6
-49158.4
-49135.3
-49112.5
-49089.7
-49067.1
-49044.7
-49022.4
-49000.3
-48978.3
-48956.5
-48934.9
-48913.5
-48892.1
-48871.3
-48849.7
-48828.7
-48807.6
-48786.8
-48766.1
-48745.6
-48725.2
-48704.9
-48684.8
-48664.7
-48645
-48624.9
-48605.8
-48585.3
-48567.8
-48544.8
-48532.8
-48490.3
-59404.4
-59190.5
-59094.4
-58940
-58818.9
-58683.5
-58558.4
-58430.8
-58307.2
-58184.3
-58063.7
-57944.4
-57827.1
-57711.2
-57597.1
-57484.5
-57373.4
-57263.9
-57155.8
-57049.3
-56944.1
-56840.4
-56738.1
-56637.1
-56537.4
-56439.1
-56342
-56246.3
-56151.7
-56058.4
-55966.3
-55875.3
-55785.5
-55696.9
-55609.3
-55522.9
-55437.5
-55353.2
-55269.9
-55187.7
-55106.4
-55026.2
-54946.9
-54868.6
-54791.1
-54714.7
-54639.1
-54564.4
-54490.6
-54417.7
-54345.7
-54274.5
-54204.1
-54134.5
-54065.7
-53997.7
-53930.5
-53864
-53798.3
-53733.3
-53669
-53605.5
-53542.6
-53480.5
-53419
-53358.2
-53298.1
-53238.6
-53179.7
-53121.4
-53063.8
-53006.7
-52950.3
-52894.5
-52839.2
-52784.5
-52730.4
-52676.9
-52623.9
-52571.5
-52519.5
-52468.1
-52417.3
-52366.9
-52317.1
-52267.7
-52218.8
-52170.4
-52122.5
-52075.1
-52028.1
-51981.6
-51935.5
-51889.8
-51844.6
-51799.9
-51755.5
-51711.6
-51668.1
-51625
-51582.3
-51539.9
-51498
-51456.5
-51415.3
-51374.5
-51334.1
-51294.1
-51254.4
-51215
-51176
-51137.4
-51099.1
-51061.1
-51023.5
-50986.2
-50949.2
-50912.5
-50876.1
-50840.1
-50804.3
-50768.9
-50733.7
-50698.9
-50664.3
-50630.1
-50596.1
-50562.4
-50529
-50495.9
-50463
-50430.4
-50398.1
-50366
-50334.2
-50302.6
-50271.3
-50240.2
-50209.4
-50178.8
-50148.5
-50118.4
-50088.5
-50058.8
-50029.4
-50000.2
-49971.3
-49942.5
-49914
-49885.7
-49857.6
-49829.7
-49801.9
-49774.3
-49747
-49719.8
-49692.9
-49666.1
-49639.6
-49613.3
-49587.1
-49561.1
-49535.4
-49509.7
-49484.3
-49459.1
-49434
-49409.1
-49384.4
-49359.8
-49335.4
-49311.2
-49287.1
-49263.2
-49239.4
-49215.8
-49192.3
-49169.1
-49145.9
-49123.1
-49100.1
-49078
-49055.4
-49032.9
-49010.6
-48988.4
-48966.4
-48944.5
-48922.8
-48901.1
-48879.7
-48858.4
-48837.3
-48816
-48795.6
-48773.8
-48755.1
-48730.8
-48717.6
-48673.8
-60252.4
-60028
-59924.5
-59761.4
-59632.4
-59488.8
-59355.9
-59220.4
-59089.2
-58958.6
-58830.5
-58703.9
-58579.2
-58456.2
-58335
-58215.4
-58097.4
-57981.1
-57866.3
-57753.1
-57641.5
-57531.3
-57422.6
-57315.3
-57209.5
-57105
-57001.9
-56900.2
-56799.8
-56700.6
-56602.8
-56506.2
-56410.8
-56316.6
-56223.6
-56131.7
-56041.1
-55951.5
-55863
-55775.6
-55689.3
-55604.1
-55519.8
-55436.6
-55354.4
-55273.1
-55192.8
-55113.5
-55035.1
-54957.6
-54881.1
-54805.4
-54730.6
-54656.7
-54583.6
-54511.4
-54439.9
-54369.3
-54299.5
-54230.4
-54162.1
-54094.6
-54027.8
-53961.8
-53896.5
-53831.9
-53768
-53704.7
-53642.2
-53580.3
-53519
-53458.4
-53398.4
-53339.1
-53280.4
-53222.3
-53164.8
-53107.9
-53051.6
-52995.9
-52940.7
-52886.1
-52832.1
-52778.5
-52725.6
-52673.1
-52621.2
-52569.8
-52518.9
-52468.4
-52418.5
-52369.1
-52320.1
-52271.6
-52223.6
-52176
-52128.9
-52082.2
-52036
-51990.2
-51944.8
-51899.8
-51855.3
-51811.1
-51767.4
-51724.1
-51681.1
-51638.6
-51596.4
-51554.6