/*--------------------------------*- C++ -*----------------------------------*\
| =========                 |                                                 |
| \\      /  F ield         | foam-extend: Open Source CFD                    |
|  \\    /   O peration     | Version:     4.1                                |
|   \\  /    A nd           | Web:         http://www.foam-extend.org         |
|    \\/     M anipulation  |                                                 |
\*---------------------------------------------------------------------------*/
FoamFile
{
    version     2.0;
    format      ascii;
    class       volScalarField;
    location    "1";
    object      sigmaEq;
}
// * * * * * * * * * * * * * * * * * * * * * * * * * * * * * * * * * * * * * //

dimensions      [1 -1 -2 0 0 0 0];

internalField   nonuniform List<scalar> 
400000
(
95089
94407.4
93865.9
93535.1
93356.7
93342.4
93465.5
93719.6
94088.6
94562.2
95127.9
95775.6
96495
97276.9
98112.6
98994.3
99914.8
100867
101846
102846
103862
104889
105924
106964
108004
109043
110078
111107
112127
113138
114138
115125
116099
117058
118002
118931
119843
120737
121615
122475
123317
124142
124948
125736
126506
127258
127992
128708
129406
130087
130750
131396
132025
132637
133232
133811
134374
134921
135452
135967
136468
136954
137425
137882
138325
138754
139169
139571
139960
140337
140701
141052
141392
141720
142037
142342
142636
142920
143193
143456
143709
143952
144185
144409
144624
144829
145026
145215
145395
145567
145731
145887
146035
146176
146310
146437
146556
146669
146775
146875
146969
147056
147137
147212
147282
147346
147404
147457
147505
147548
147586
147619
147647
147671
147690
147705
147716
147723
147724
147722
147716
147707
147694
147677
147657
147633
147606
147575
147542
147505
147465
147422
147376
147327
147274
147223
147169
147108
147046
146981
146915
146846
146775
146702
146627
146549
146470
146389
146305
146220
146133
146045
145954
145862
145768
145673
145576
145477
145377
145275
145173
145068
144963
144856
144748
144638
144528
144416
144304
144190
144075
143958
143841
143723
143604
143484
143363
143242
143119
142996
142872
142747
142621
142495
142368
142240
142112
141983
141853
141723
141592
141461
141329
141196
141063
140930
140798
140663
140541
140397
96831.6
96113.7
95532.1
95160.4
94940
94882.1
94961
95170.5
95494.9
95924
96445.8
97050.2
97727.1
98467.5
99262.9
100105
100988
101904
102847
103813
104796
105792
106797
107807
108820
109832
110841
111846
112843
113832
114810
115777
116731
117671
118598
119509
120404
121283
122146
122991
123819
124630
125424
126200
126958
127699
128422
129127
129816
130487
131140
131777
132397
133001
133588
134160
134715
135255
135779
136288
136782
137261
137727
138178
138615
139038
139449
139846
140230
140602
140961
141308
141643
141967
142280
142581
142872
143152
143421
143680
143930
144169
144400
144620
144832
145035
145229
145415
145592
145761
145923
146076
146222
146361
146493
146617
146734
146845
146949
147047
147138
147224
147303
147376
147444
147506
147563
147615
147661
147702
147738
147770
147797
147819
147837
147850
147860
147865
147865
147862
147855
147844
147830
147812
147790
147765
147737
147706
147671
147633
147592
147548
147501
147451
147399
147344
147288
147228
147165
147100
147033
146963
146891
146817
146741
146663
146583
146501
146417
146331
146243
146154
146062
145969
145875
145779
145681
145582
145481
145379
145275
145171
145064
144957
144848
144738
144627
144515
144402
144288
144172
144055
143937
143818
143699
143578
143457
143335
143212
143088
142964
142838
142712
142585
142458
142330
142201
142071
141941
141811
141680
141548
141416
141284
141151
141019
140887
140754
140623
140491
98573.7
97820
97198.5
96786.4
96524.1
96422.9
96458
96623.2
96903.1
97288.1
97766.2
98327.5
98962.1
99661.2
100416
101220
102064
102944
103852
104783
105733
106698
107672
108653
109638
110624
111607
112587
113561
114527
115483
116430
117364
118286
119194
120087
120966
121829
122676
123507
124321
125119
125899
126663
127409
128138
128850
129545
130223
130884
131529
132156
132768
133363
133942
134505
135053
135586
136103
136605
137093
137566
138025
138470
138901
139319
139725
140117
140496
140862
141217
141559
141890
142210
142518
142816
143102
143378
143644
143900
144146
144382
144609
144827
145036
145235
145427
145610
145784
145951
146109
146261
146404
146540
146669
146791
146907
147015
147117
147213
147302
147386
147463
147535
147601
147661
147716
147766
147810
147850
147885
147915
147940
147961
147977
147989
147997
148001
148000
147996
147987
147975
147959
147940
147918
147891
147862
147829
147794
147755
147712
147667
147620
147569
147516
147461
147403
147342
147278
147212
147144
147074
147001
146926
146849
146770
146689
146606
146522
146435
146346
146256
146164
146071
145975
145879
145780
145680
145579
145476
145372
145267
145160
145052
144942
144832
144720
144607
144494
144379
144262
144145
144026
143907
143787
143666
143545
143422
143299
143174
143049
142924
142797
142670
142542
142413
142284
142154
142024
141893
141761
141629
141497
141364
141231
141098
140964
140830
140695
140559
100315
99526
98865
98412.6
98108.5
97964.5
97956
98077.2
98313.2
98654.2
99088.9
99607.4
100200
100858
101573
102337
103144
103986
104859
105756
106674
107606
108550
109502
110459
111418
112375
113330
114280
115224
116159
117084
117998
118901
119790
120666
121528
122375
123207
124023
124823
125606
126374
127124
127859
128576
129277
129961
130629
131280
131915
132533
133136
133722
134293
134849
135389
135914
136424
136919
137400
137867
138319
138758
139184
139596
139996
140383
140757
141119
141468
141806
142133
142448
142752
143045
143328
143601
143863
144115
144357
144590
144814
145028
145234
145431
145619
145799
145971
146135
146291
146439
146580
146714
146841
146960
147073
147180
147280
147373
147461
147542
147617
147687
147751
147810
147863
147911
147954
147992
148025
148054
148077
148097
148112
148122
148129
148131
148129
148123
148113
148100
148083
148063
148039
148011
147981
147947
147910
147870
147827
147781
147732
147681
147627
147570
147511
147449
147385
147318
147249
147178
147104
147029
146951
146871
146789
146706
146620
146533
146444
146353
146260
146166
146070
145972
145873
145773
145671
145567
145463
145357
145249
145140
145030
144919
144805
144694
144582
144464
144345
144228
144109
143990
143870
143748
143626
143503
143379
143255
143129
143003
142876
142748
142620
142491
142361
142231
142100
141968
141836
141704
141571
141438
141304
141170
141035
140900
140762
140624
102057
101232
100531
100039
99693.2
99506.7
99455
99532.6
99724.8
100022
100414
100890
101440
102057
102732
103458
104226
105032
105870
106733
107617
108518
109431
110354
111282
112214
113146
114076
115002
115922
116835
117739
118634
119517
120388
121246
122091
122921
123737
124538
125324
126093
126847
127585
128307
129013
129702
130376
131033
131674
132299
132908
133501
134079
134642
135189
135721
136239
136741
137230
137704
138164
138610
139043
139463
139870
140265
140646
141014
141371
141715
142049
142371
142682
142982
143271
143549
143818
144076
144325
144564
144793
145013
145224
145427
145621
145806
145983
146152
146313
146466
146612
146751
146882
147006
147124
147234
147338
147436
147528
147613
147692
147766
147834
147896
147953
148004
148050
148092
148128
148159
148186
148209
148226
148240
148249
148254
148255
148251
148244
148233
148219
148200
148179
148154
148125
148093
148058
148020
147979
147935
147888
147838
147786
147731
147673
147613
147551
147485
147418
147348
147276
147201
147125
147046
146966
146883
146799
146712
146624
146534
146443
146349
146254
146158
146060
145960
145859
145756
145652
145547
145440
145333
145224
145113
145003
144888
144779
144660
144539
144424
144304
144187
144067
143946
143824
143702
143578
143454
143328
143203
143076
142948
142820
142691
142562
142432
142301
142170
142038
141905
141773
141639
141505
141371
141236
141100
140964
140825
140687
103797
102937
102197
101665
101278
101049
100955
100989
101138
101392
101741
102174
102683
103259
103894
104581
105312
106081
106883
107712
108563
109432
110315
111208
112108
113012
113918
114823
115725
116622
117513
118396
119270
120134
120986
121826
122654
123468
124268
125053
125824
126580
127320
128045
128755
129448
130126
130788
131435
132066
132681
133280
133865
134434
134988
135527
136051
136561
137056
137537
138005
138458
138898
139325
139738
140138
140529
140905
141267
141618
141958
142287
142604
142911
143206
143491
143766
144031
144285
144530
144765
144991
145208
145416
145615
145805
145988
146162
146328
146486
146637
146780
146916
147045
147166
147281
147390
147492
147587
147676
147760
147837
147908
147974
148035
148089
148139
148184
148223
148258
148288
148313
148334
148350
148362
148369
148373
148372
148368
148359
148347
148331
148312
148289
148262
148233
148200
148164
148125
148082
148037
147989
147938
147885
147829
147770
147709
147646
147579
147511
147440
147367
147292
147215
147135
147054
146971
146886
146798
146710
146619
146527
146432
146337
146239
146141
146040
145939
145835
145731
145625
145517
145409
145299
145188
145075
144959
144849
144704
144617
144494
144378
144260
144139
144017
143895
143771
143647
143522
143396
143270
143143
143015
142886
142757
142627
142496
142365
142234
142101
141968
141835
141701
141567
141432
141296
141159
141023
140883
140746
105537
104642
103863
103292
102863
102593
102455
102446
102552
102763
103069
103461
103928
104464
105059
105707
106400
107133
107899
108694
109512
110349
111201
112065
112936
113813
114693
115572
116450
117324
118193
119054
119908
120751
121585
122407
123217
124014
124798
125568
126324
127066
127793
128504
129201
129883
130549
131200
131835
132456
133061
133651
134226
134786
135331
135862
136378
136880
137368
137842
138302
138749
139182
139603
140009
140406
140791
141158
141515
141862
142197
142521
142834
143136
143427
143708
143978
144239
144489
144730
144962
145184
145397
145602
145798
145985
146164
146335
146498
146654
146802
146942
147075
147202
147321
147434
147539
147639
147732
147819
147900
147976
148045
148109
148167
148221
148268
148311
148349
148382
148410
148434
148453
148467
148478
148484
148486
148484
148478
148468
148455
148437
148417
148392
148365
148334
148300
148263
148222
148179
148133
148084
148032
147978
147921
147861
147799
147734
147667
147598
147526
147453
147377
147298
147218
147136
147052
146966
146878
146789
146697
146604
146509
146413
146315
146215
146114
146012
145908
145803
145696
145588
145478
145367
145256
145141
145029
144911
144801
144687
144564
144447
144325
144204
144081
143958
143834
143710
143584
143458
143331
143204
143075
142946
142816
142686
142555
142424
142291
142159
142025
141891
141757
141622
141486
141350
141213
141076
140936
140800
107276
106346
105528
104917
104448
104136
103956
103905
103967
104136
104399
104749
105175
105670
106226
106835
107491
108187
108918
109678
110463
111268
112089
112923
113767
114616
115469
116323
117177
118027
118873
119713
120546
121370
122184
122988
123780
124561
125328
126083
126824
127551
128264
128962
129646
130316
130970
131609
132234
132844
133439
134019
134584
135135
135672
136194
136702
137196
137676
138143
138597
139037
139464
139879
140279
140671
141043
141404
141760
142100
142432
142751
143059
143356
143643
143919
144186
144442
144688
144925
145153
145372
145582
145783
145975
146159
146335
146503
146664
146816
146961
147099
147230
147353
147470
147580
147684
147781
147872
147957
148036
148109
148176
148238
148295
148346
148392
148433
148469
148500
148526
148548
148566
148579
148588
148592
148593
148589
148582
148571
148556
148538
148516
148490
148461
148429
148394
148356
148314
148270
148223
148173
148120
148064
148006
147946
147882
147817
147749
147679
147606
147532
147455
147376
147295
147212
147127
147040
146952
146861
146769
146675
146580
146483
146384
146284
146182
146079
145974
145869
145761
145653
145543
145431
145319
145205
145090
144977
144863
144743
144622
144503
144382
144261
144139
144015
143891
143766
143640
143514
143386
143258
143129
143000
142870
142739
142608
142476
142343
142210
142076
141942
141807
141671
141535
141399
141261
141124
140984
140848
109015
108049
107193
106543
106033
105679
105457
105364
105384
105510
105731
106039
106424
106879
107395
107965
108583
109243
109939
110665
111417
112190
112980
113784
114599
115421
116247
117076
117905
118732
119555
120373
121185
121989
122784
123569
124344
125107
125858
126597
127323
128036
128734
129420
130090
130747
131389
132017
132631
133230
133814
134385
134941
135482
136010
136524
137023
137509
137982
138441
138887
139320
139741
140148
140543
140924
141304
141654
142003
142339
142664
142977
143280
143573
143855
144126
144388
144640
144883
145116
145340
145555
145761
145959
146148
146329
146502
146666
146824
146973
147115
147250
147378
147499
147613
147721
147822
147917
148006
148088
148165
148236
148301
148361
148416
148465
148509
148548
148582
148612
148637
148657
148673
148684
148692
148695
148694
148689
148680
148668
148651
148632
148608
148582
148552
148518
148482
148442
148400
148354
148306
148255
148201
148145
148085
148024
147960
147893
147824
147753
147680
147604
147527
147447
147365
147281
147196
147108
147019
146928
146835
146740
146644
146546
146447
146346
146244
146140
146035
145928
145820
145711
145601
145489
145376
145262
145148
145033
144915
144796
144677
144557
144435
144313
144190
144067
143942
143816
143690
143563
143435
143307
143178
143048
142917
142786
142654
142522
142389
142255
142121
141986
141851
141715
141579
141442
141304
141167
141026
140890
110752
109751
108856
108168
107617
107222
106959
106823
106801
106885
107064
107330
107675
108089
108566
109098
109679
110302
110962
111654
112373
113114
113873
114647
115433
116227
117027
117830
118634
119438
120238
121034
121825
122609
123384
124151
124907
125653
126388
127111
127822
128519
129204
129876
130533
131177
131808
132424
133026
133614
134188
134748
135295
135827
136345
136850
137342
137820
138284
138736
139174
139599
140013
140411
140802
141175
141544
141902
142240
142573
142891
143199
143497
143784
144062
144329
144586
144834
145073
145302
145522
145733
145936
146130
146315
146493
146662
146824
146978
147125
147264
147396
147521
147640
147751
147856
147955
148048
148134
148214
148289
148358
148421
148479
148531
148578
148621
148658
148690
148718
148741
148760
148774
148784
148789
148791
148789
148782
148772
148758
148741
148719
148695
148667
148636
148601
148563
148523
148479
148433
148383
148331
148276
148219
148159
148096
148031
147963
147894
147822
147747
147671
147592
147512
147429
147345
147258
147170
147080
146988
146894
146799
146702
146604
146504
146402
146299
146195
146089
145982
145873
145764
145653
145541
145427
145313
145198
145081
144964
144845
144724
144604
144482
144359
144236
144112
143987
143861
143734
143606
143478
143349
143220
143090
142959
142827
142695
142562
142428
142294
142160
142025
141889
141753
141616
141479
141341
141203
141062
140927
112488
111452
110519
109792
109201
108765
108460
108283
108219
108261
108398
108623
108927
109301
109739
110232
110776
111363
111988
112645
113331
114039
114768
115512
116269
117035
117809
118586
119365
120145
120922
121696
122466
123229
123985
124733
125471
126200
126918
127625
128320
129003
129673
130331
130975
131606
132224
132829
133419
133996
134560
135110
135646
136169
136678
137174
137657
138127
138583
139027
139458
139877
140283
140677
141058
141431
141793
142137
142471
142798
143112
143416
143709
143991
144264
144527
144780
145023
145258
145483
145699
145906
146105
146296
146478
146652
146818
146977
147128
147271
147408
147537
147659
147775
147884
147986
148083
148173
148257
148335
148407
148473
148535
148590
148641
148686
148726
148762
148792
148818
148840
148857
148869
148877
148881
148881
148877
148870
148858
148843
148824
148801
148775
148746
148714
148678
148639
148597
148552
148505
148454
148401
148345
148286
148225
148162
148096
148027
147957
147884
147809
147731
147652
147571
147487
147402
147315
147226
147135
147042
146948
146852
146754
146655
146554
146452
146349
146244
146137
146029
145920
145810
145699
145586
145472
145357
145241
145124
145006
144886
144766
144645
144522
144399
144275
144151
144025
143899
143772
143644
143515
143386
143256
143125
142994
142862
142729
142596
142462
142328
142193
142057
141921
141785
141648
141510
141372
141234
141093
140957
114223
113152
112181
111415
110784
110308
109962
109742
109637
109637
109733
109917
110180
110515
110913
111369
111875
112426
113015
113638
114291
114967
115665
116379
117107
117845
118592
119343
120097
120853
121607
122359
123107
123850
124586
125315
126035
126746
127447
128138
128817
129485
130141
130784
131416
132034
132639
133232
133811
134377
134930
135469
135996
136509
137009
137496
137970
138431
138880
139316
139739
140151
140550
140937
141313
141679
142031
142370
142701
143021
143330
143628
143916
144194
144462
144720
144969
145208
145438
145659
145871
146075
146270
146457
146635
146806
146969
147124
147272
147412
147546
147672
147792
147905
148011
148111
148204
148292
148374
148449
148519
148584
148643
148696
148745
148788
148826
148860
148889
148913
148932
148947
148958
148965
148967
148966
148960
148951
148938
148921
148901
148877
148850
148819
148785
148748
148708
148665
148619
148571
148519
148465
148408
148348
148286
148221
148155
148085
148014
147940
147864
147786
147705
147623
147539
147453
147365
147275
147183
147090
146995
146898
146800
146700
146599
146496
146392
146286
146179
146071
145961
145850
145738
145625
145511
145395
145279
145161
145042
144922
144801
144680
144557
144433
144309
144184
144058
143931
143803
143675
143546
143416
143286
143155
143023
142891
142758
142624
142490
142355
142220
142084
141948
141811
141673
141536
141397
141259
141117
140982
115957
114851
113842
113038
112367
111851
111463
111202
111055
111014
111069
111212
111435
111730
112089
112507
112976
113490
114044
114633
115252
115897
116563
117248
117946
118657
119376
120101
120831
121562
122293
123023
123749
124471
125188
125897
126599
127292
127976
128650
129314
129967
130608
131237
131855
132460
133053
133633
134201
134755
135297
135826
136343
136846
137337
137815
138280
138733
139173
139601
140017
140421
140813
141194
141563
141922
142268
142602
142926
143240
143544
143837
144120
144392
144656
144909
145153
145388
145614
145830
146039
146238
146429
146613
146788
146955
147114
147266
147411
147548
147679
147802
147919
148029
148132
148230
148321
148406
148485
148558
148626
148688
148745
148796
148843
148884
148920
148952
148979
149001
149019
149032
149041
149046
149047
149044
149037
149026
149012
148994
148972
148947
148918
148886
148851
148813
148772
148728
148680
148630
148578
148522
148464
148404
148341
148275
148207
148137
148064
147990
147913
147834
147752
147669
147584
147497
147409
147318
147226
147132
147036
146939
146840
146739
146637
146534
146429
146322
146215
146106
145996
145884
145772
145658
145543
145427
145310
145192
145072
144952
144831
144709
144585
144461
144336
144211
144084
143957
143829
143700
143571
143441
143310
143179
143047
142914
142780
142646
142512
142377
142241
142105
141968
141831
141693
141555
141416
141278
141136
141001
117689
116549
115502
114659
113949
113392
112964
112662
112474
112392
112406
112508
112691
112946
113267
113646
114078
114556
115075
115630
116216
116828
117463
118118
118787
119470
120162
120861
121565
122272
122980
123687
124392
125093
125789
126480
127163
127838
128505
129162
129810
130447
131074
131689
132293
132885
133465
134033
134589
135132
135663
136181
136687
137181
137662
138131
138587
139031
139464
139884
140292
140688
141073
141447
141810
142161
142501
142829
143148
143456
143753
144041
144319
144586
144845
145093
145333
145563
145784
145997
146201
146397
146584
146764
146935
147099
147255
147403
147545
147679
147806
147927
148040
148148
148249
148343
148432
148514
148591
148662
148727
148787
148842
148891
148935
148974
149009
149038
149063
149084
149100
149111
149119
149122
149121
149117
149108
149096
149080
149060
149037
149010
148980
148947
148911
148871
148829
148784
148735
148684
148630
148574
148515
148453
148389
148322
148254
148182
148109
148033
147955
147875
147794
147710
147624
147536
147446
147355
147262
147167
147071
146973
146873
146772
146669
146565
146460
146353
146244
146135
146024
145912
145799
145685
145569
145453
145335
145216
145097
144976
144854
144731
144608
144483
144358
144232
144105
143977
143848
143719
143589
143459
143329
143197
143064
142931
142797
142663
142528
142392
142256
142120
141983
141845
141707
141569
141430
141291
141149
141014
119420
118245
117160
116279
115530
114933
114464
114122
113893
113769
113743
113805
113948
114164
114446
114787
115182
115624
116108
116628
117181
117761
118365
118989
119630
120284
120949
121622
122301
122983
123668
124352
125035
125715
126391
127062
127727
128384
129033
129674
130306
130927
131539
132140
132730
133308
133876
134431
134975
135506
136026
136534
137030
137513
137985
138444
138892
139327
139751
140163
140563
140952
141330
141697
142052
142397
142730
143053
143365
143667
143959
144241
144513
144776
145029
145273
145508
145734
145951
146159
146359
146551
146734
146910
147077
147237
147390
147535
147673
147804
147929
148046
148157
148261
148359
148451
148537
148617
148691
148760
148823
148880
148932
148980
149022
149059
149091
149119
149142
149160
149175
149185
149190
149192
149189
149183
149173
149159
149142
149121
149096
149068
149037
149002
148965
148924
148880
148834
148784
148732
148677
148619
148559
148496
148431
148364
148294
148222
148147
148071
147992
147911
147828
147744
147657
147568
147478
147386
147292
147197
147099
147001
146901
146799
146695
146591
146484
146377
146268
146158
146046
145934
145820
145705
145589
145472
145354
145235
145115
144993
144871
144748
144624
144499
144373
144247
144119
143991
143862
143733
143602
143472
143341
143209
143076
142942
142808
142673
142538
142402
142266
142129
141992
141854
141716
141577
141438
141299
141156
141021
121149
119939
118817
117898
117109
116473
115964
115581
115311
115147
115080
115102
115205
115382
115626
115929
116287
116693
117142
117628
118148
118696
119268
119862
120474
121099
121737
122384
123037
123695
124356
125018
125679
126338
126993
127645
128290
128929
129561
130185
130800
131406
132003
132589
133165
133730
134285
134828
135359
135879
136388
136885
137370
137843
138305
138755
139193
139620
140035
140439
140832
141213
141583
141942
142291
142629
142956
143272
143578
143874
144161
144437
144704
144962
145210
145449
145679
145900
146112
146316
146512
146700
146879
147051
147215
147371
147520
147662
147797
147925
148046
148160
148268
148369
148465
148554
148637
148714
148786
148852
148912
148968
149018
149063
149103
149138
149168
149194
149215
149231
149244
149252
149256
149256
149252
149244
149232
149217
149198
149175
149149
149120
149087
149051
149012
148970
148925
148877
148827
148773
148717
148659
148597
148534
148468
148399
148328
148255
148180
148102
148023
147941
147857
147772
147684
147595
147504
147411
147316
147220
147122
147023
146922
146819
146715
146610
146503
146395
146285
146175
146063
145950
145835
145720
145603
145486
145367
145247
145127
145005
144882
144759
144634
144509
144383
144256
144128
143999
143870
143739
143607
143478
143349
143215
143082
142947
142813
142678
142542
142406
142269
142132
141995
141857
141718
141579
141439
141301
141158
141023
122876
121632
120472
119516
118688
118013
117463
117040
116730
116525
116418
116400
116463
116601
116806
117073
117394
117764
118177
118629
119116
119631
120173
120736
121318
121916
122526
123147
123775
124408
125045
125684
126323
126961
127596
128227
128854
129474
130089
130696
131294
131885
132466
133038
133600
134151
134692
135222
135742
136250
136747
137233
137707
138171
138623
139063
139492
139910
140317
140712
141097
141470
141833
142185
142526
142857
143177
143487
143788
144078
144358
144629
144890
145143
145386
145620
145845
146061
146269
146469
146660
146844
147019
147187
147347
147500
147645
147784
147915
148040
148157
148269
148374
148472
148564
148651
148731
148806
148875
148939
148997
149050
149097
149140
149178
149211
149239
149263
149282
149297
149307
149313
149315
149314
149308
149298
149285
149268
149248
149224
149196
149165
149131
149094
149054
149011
148964
148915
148863
148809
148752
148692
148630
148565
148498
148428
148356
148282
148206
148127
148047
147964
147880
147794
147705
147615
147523
147429
147334
147237
147138
147039
146938
146834
146729
146623
146515
146406
146296
146185
146073
145959
145844
145728
145611
145493
145374
145254
145133
145011
144887
144764
144639
144513
144387
144259
144131
144002
143872
143742
143609
143479
143347
143215
143081
142946
142811
142676
142540
142404
142267
142130
141992
141853
141715
141576
141436
141297
141153
141018
124601
123323
122126
121132
120265
119551
118962
118498
118148
117903
117755
117698
117722
117821
117988
118217
118501
118835
119214
119632
120085
120568
121079
121612
122165
122734
123317
123910
124513
125121
125735
126350
126967
127584
128198
128810
129417
130019
130616
131205
131788
132362
132928
133485
134032
134570
135098
135615
136122
136618
137104
137579
138043
138496
138938
139369
139788
140197
140595
140982
141358
141724
142079
142424
142758
143082
143395
143699
143993
144277
144552
144817
145073
145319
145557
145786
146007
146218
146422
146617
146804
146983
147155
147318
147475
147624
147766
147900
148028
148150
148264
148372
148474
148570
148659
148743
148820
148892
148959
149020
149076
149126
149172
149212
149248
149278
149304
149326
149343
149356
149365
149369
149369
149366
149358
149347
149332
149314
149292
149266
149237
149205
149170
149131
149090
149045
148997
148947
148894
148838
148780
148719
148656
148590
148522
148451
148378
148303
148226
148147
148065
147982
147897
147809
147720
147629
147537
147442
147346
147248
147149
147048
146947
146843
146737
146630
146521
146412
146302
146190
146077
145963
145847
145731
145613
145495
145375
145254
145133
145010
144887
144762
144637
144511
144384
144257
144129
143999
143870
143736
143599
143472
143347
143209
143073
142939
142804
142668
142532
142396
142259
142121
141983
141845
141706
141566
141426
141287
141143
141008
126325
125012
123778
122747
121841
121088
120459
119956
119565
119280
119093
118996
118981
119041
119170
119362
119609
119907
120251
120635
121055
121506
121985
122488
123012
123552
124108
124675
125251
125835
126425
127017
127612
128207
128800
129392
129980
130564
131142
131715
132280
132839
133389
133931
134464
134988
135502
136007
136501
136985
137459
137923
138376
138819
139250
139671
140082
140481
140870
141249
141617
141975
142322
142659
142986
143303
143610
143907
144194
144472
144741
145000
145251
145492
145725
145949
146164
146371
146570
146760
146943
147118
147285
147445
147597
147743
147881
148012
148136
148254
148366
148471
148569
148662
148748
148829
148904
148973
149037
149096
149149
149197
149240
149278
149312
149340
149364
149384
149399
149410
149416
149419
149417
149412
149403
149390
149373
149353
149330
149303
149273
149239
149202
149163
149120
149073
149024
148973
148919
148862
148802
148740
148676
148609
148540
148468
148394
148318
148240
148160
148078
147993
147907
147819
147729
147637
147544
147449
147351
147253
147152
147053
146951
146845
146737
146630
146521
146412
146301
146189
146075
145960
145845
145727
145609
145490
145370
145249
145127
145004
144880
144755
144629
144503
144375
144247
144118
143989
143859
143731
143592
143495
143327
143200
143063
142928
142792
142656
142520
142383
142245
142107
141969
141830
141691
141551
141411
141271
141127
140993
128046
126700
125428
124360
123416
122624
121955
121413
120982
120658
120431
120294
120240
120262
120353
120507
120718
120981
121290
121640
122026
122446
122893
123366
123860
124372
124900
125440
125991
126550
127115
127685
128257
128830
129403
129974
130543
131108
131668
132223
132772
133314
133849
134376
134894
135404
135905
136397
136877
137350
137813
138265
138707
139139
139560
139971
140372
140763
141143
141513
141872
142222
142561
142891
143211
143520
143820
144111
144392
144664
144926
145180
145425
145660
145888
146106
146317
146519
146713
146899
147077
147248
147411
147567
147715
147857
147991
148119
148240
148354
148462
148564
148659
148749
148832
148910
148982
149049
149110
149166
149217
149262
149303
149339
149370
149396
149418
149436
149449
149458
149462
149463
149460
149453
149442
149427
149409
149387
149362
149334
149302
149267
149229
149188
149144
149096
149045
148993
148937
148879
148819
148756
148690
148622
148552
148479
148404
148327
148248
148167
148084
147999
147912
147823
147732
147640
147546
147450
147353
147255
147152
147055
146947
146836
146733
146624
146516
146405
146294
146181
146068
145952
145836
145718
145599
145480
145359
145237
145115
144991
144867
144741
144615
144488
144360
144232
144102
143972
143841
143712
143584
143444
143305
143178
143046
142910
142775
142638
142501
142364
142226
142088
141949
141810
141670
141531
141390
141250
141106
140971
129766
128385
127076
125971
124989
124158
123451
122868
122398
122034
121768
121592
121499
121483
121536
121653
121828
122055
122329
122645
122998
123385
123802
124244
124709
125192
125692
126206
126731
127265
127806
128352
128902
129453
130005
130556
131105
131651
132194
132731
133263
133789
134308
134819
135323
135819
136307
136786
137253
137712
138164
138605
139036
139457
139868
140269
140660
141041
141412
141773
142125
142466
142798
143119
143432
143734
144027
144311
144586
144851
145108
145355
145594
145825
146046
146260
146465
146662
146852
147033
147207
147373
147532
147684
147828
147966
148096
148220
148338
148449
148553
148652
148744
148830
148911
148986
149055
149119
149178
149231
149279
149322
149361
149394
149423
149447
149467
149482
149493
149500
149503
149502
149496
149487
149475
149458
149438
149415
149388
149358
149325
149289
149250
149207
149162
149112
149060
149007
148950
148891
148829
148765
148699
148629
148558
148484
148409
148331
148250
148168
148084
147998
147910
147821
147729
147636
147541
147444
147346
147246
147142
147043
146914
146832
146722
146615