# Time Dx Dy Dz magD
1 0 -3.41381e-07 -0.00228962 0.00228962
