/*--------------------------------*- C++ -*----------------------------------*\
| =========                 |                                                 |
| \\      /  F ield         | foam-extend: Open Source CFD                    |
|  \\    /   O peration     | Version:     4.1                                |
|   \\  /    A nd           | Web:         http://www.foam-extend.org         |
|    \\/     M anipulation  |                                                 |
\*---------------------------------------------------------------------------*/
FoamFile
{
    version     2.0;
    format      ascii;
    class       volScalarField;
    location    "1";
    object      epsilonEq;
}
// * * * * * * * * * * * * * * * * * * * * * * * * * * * * * * * * * * * * * //

dimensions      [0 0 0 0 0 0 0];

internalField   nonuniform List<scalar> 
100000
(
3.20467e-06
6.30579e-06
6.13502e-06
5.90808e-06
5.70711e-06
5.51149e-06
5.32669e-06
5.14911e-06
4.97796e-06
4.8146e-06
4.6572e-06
4.50786e-06
4.36598e-06
4.23062e-06
4.10134e-06
3.97541e-06
3.85486e-06
3.7395e-06
2.65052e-06
1.14625e-06
8.32004e-07
8.32312e-07
8.32747e-07
8.33271e-07
8.3385e-07
8.34464e-07
8.35137e-07
8.3585e-07
8.36574e-07
8.37293e-07
8.38004e-07
8.38631e-07
8.39314e-07
8.39969e-07
8.4051e-07
8.41084e-07
8.41606e-07
8.42107e-07
8.42568e-07
8.42996e-07
8.43386e-07
8.43712e-07
8.43972e-07
8.44185e-07
8.4436e-07
8.44516e-07
8.44646e-07
8.44753e-07
8.44794e-07
8.44798e-07
8.44751e-07
8.4469e-07
8.44607e-07
8.44526e-07
8.44447e-07
8.44333e-07
8.44213e-07
8.44048e-07
8.43868e-07
8.43651e-07
8.43389e-07
8.43143e-07
8.42896e-07
8.42661e-07
8.42438e-07
8.42202e-07
8.4216e-07
8.43e-07
8.43737e-07
8.43461e-07
8.54445e-07
8.60879e-07
8.73979e-07
8.75661e-07
8.75325e-07
8.75039e-07
8.74801e-07
8.74603e-07
8.74468e-07
8.74438e-07
8.74505e-07
8.74667e-07
8.74945e-07
8.75355e-07
8.75921e-07
8.76649e-07
8.77548e-07
8.78661e-07
8.80059e-07
8.81796e-07
8.83942e-07
8.86596e-07
8.89896e-07
8.93995e-07
8.99195e-07
9.05899e-07
9.13623e-07
9.26103e-07
9.35856e-07
9.65695e-07
3.20552e-06
6.29874e-06
6.1264e-06
5.89971e-06
5.69924e-06
5.50353e-06
5.31884e-06
5.14372e-06
4.97156e-06
4.80793e-06
4.65285e-06
4.5062e-06
4.36388e-06
4.22684e-06
4.09856e-06
3.97358e-06
3.8546e-06
3.73999e-06
2.88844e-06
1.32834e-06
8.37694e-07
8.37801e-07
8.38037e-07
8.38374e-07
8.38777e-07
8.39242e-07
8.39767e-07
8.40341e-07
8.40917e-07
8.41509e-07
8.42092e-07
8.42671e-07
8.4331e-07
8.43729e-07
8.44221e-07
8.44693e-07
8.45139e-07
8.45573e-07
8.45966e-07
8.46307e-07
8.46616e-07
8.46893e-07
8.47111e-07
8.47282e-07
8.4741e-07
8.47514e-07
8.47576e-07
8.47627e-07
8.47632e-07
8.47607e-07
8.47526e-07
8.47425e-07
8.47315e-07
8.47187e-07
8.47079e-07
8.46934e-07
8.46799e-07
8.46625e-07
8.4641e-07
8.46199e-07
8.45936e-07
8.45676e-07
8.45423e-07
8.45161e-07
8.44928e-07
8.44691e-07
8.44439e-07
8.44288e-07
8.52333e-07
8.60011e-07
8.68482e-07
8.78304e-07
8.77864e-07
8.7746e-07
8.77108e-07
8.76806e-07
8.76556e-07
8.76361e-07
8.76231e-07
8.76187e-07
8.76239e-07
8.76393e-07
8.76656e-07
8.77045e-07
8.77578e-07
8.78262e-07
8.79113e-07
8.80159e-07
8.81436e-07
8.82995e-07
8.84867e-07
8.87092e-07
8.89723e-07
8.92764e-07
8.96277e-07
9.11038e-07
9.32435e-07
9.55138e-07
9.69604e-07
9.82698e-07
3.20346e-06
6.2851e-06
6.11537e-06
5.88934e-06
5.68952e-06
5.49574e-06
5.30838e-06
5.1356e-06
4.9661e-06
4.80225e-06
4.6462e-06
4.49992e-06
4.35949e-06
4.22289e-06
4.09539e-06
3.97106e-06
3.85261e-06
3.73888e-06
3.13009e-06
1.53023e-06
8.43302e-07
8.43234e-07
8.43289e-07
8.43419e-07
8.43639e-07
8.43953e-07
8.44314e-07
8.44737e-07
8.45188e-07
8.45676e-07
8.46161e-07
8.46685e-07
8.47097e-07
8.4749e-07
8.47913e-07
8.48243e-07
8.48605e-07
8.48947e-07
8.4926e-07
8.49539e-07
8.49786e-07
8.49985e-07
8.50124e-07
8.50241e-07
8.50325e-07
8.50393e-07
8.50426e-07
8.50451e-07
8.5041e-07
8.50323e-07
8.50198e-07
8.50045e-07
8.49897e-07
8.49724e-07
8.49595e-07
8.49426e-07
8.49244e-07
8.49072e-07
8.48842e-07
8.48612e-07
8.48345e-07
8.48059e-07
8.47797e-07
8.47524e-07
8.47262e-07
8.47019e-07
8.4676e-07
8.56001e-07
8.63986e-07
8.78838e-07
8.802e-07
8.79845e-07
8.79384e-07
8.78962e-07
8.78588e-07
8.78267e-07
8.77993e-07
8.77763e-07
8.77597e-07
8.77507e-07
8.77496e-07
8.77577e-07
8.77757e-07
8.7805e-07
8.78476e-07
8.79023e-07
8.79682e-07
8.80478e-07
8.81434e-07
8.8256e-07
8.83866e-07
8.85346e-07
9.04532e-07
9.25075e-07
9.39998e-07
9.53313e-07
9.71566e-07
9.92813e-07
1.01054e-06
1.01257e-06
3.20112e-06
6.27098e-06
6.10107e-06
5.87705e-06
5.67943e-06
5.48707e-06
5.29862e-06
5.12438e-06
4.95656e-06
4.79429e-06
4.63941e-06
4.49303e-06
4.35498e-06
4.21805e-06
4.09083e-06
3.968e-06
3.84928e-06
3.73753e-06
3.3745e-06
1.7456e-06
8.48895e-07
8.48623e-07
8.48476e-07
8.48429e-07
8.48469e-07
8.48614e-07
8.48823e-07
8.49096e-07
8.49422e-07
8.49784e-07
8.50149e-07
8.50495e-07
8.50842e-07
8.51164e-07
8.51471e-07
8.51733e-07
8.51996e-07
8.52232e-07
8.52455e-07
8.52671e-07
8.52843e-07
8.52966e-07
8.53036e-07
8.53087e-07
8.531e-07
8.53118e-07
8.53109e-07
8.53083e-07
8.53003e-07
8.52875e-07
8.52731e-07
8.52534e-07
8.52352e-07
8.52143e-07
8.51965e-07
8.51778e-07
8.51551e-07
8.5136e-07
8.51122e-07
8.50856e-07
8.50587e-07
8.50289e-07
8.50002e-07
8.49728e-07
8.49446e-07
8.50242e-07
8.60747e-07
8.7043e-07
8.80521e-07
8.7994e-07
8.80344e-07
8.80882e-07
8.80642e-07
8.80185e-07
8.79768e-07
8.794e-07
8.79082e-07
8.78799e-07
8.78568e-07
8.78404e-07
8.783e-07
8.78266e-07
8.78319e-07
8.78451e-07
8.78698e-07
8.79039e-07
8.79427e-07
8.7989e-07
8.82816e-07
9.02532e-07
9.22646e-07
9.3402e-07
9.47303e-07
9.6817e-07
9.89251e-07
9.97724e-07
9.97792e-07
9.97896e-07
9.9668e-07
9.9224e-07
3.1975e-06
6.25545e-06
6.0871e-06
5.8626e-06
5.66476e-06
5.47562e-06
5.28708e-06
5.11293e-06
4.94705e-06
4.78615e-06
4.63207e-06
4.4845e-06
4.34693e-06
4.21179e-06
4.08513e-06
3.96347e-06
3.84556e-06
3.73332e-06
3.62246e-06
1.90099e-06
8.54451e-07
8.53933e-07
8.53571e-07
8.53365e-07
8.53254e-07
8.53236e-07
8.53278e-07
8.53382e-07
8.53548e-07
8.53759e-07
8.53989e-07
8.54223e-07
8.54467e-07
8.54693e-07
8.54895e-07
8.55078e-07
8.55246e-07
8.55399e-07
8.55548e-07
8.5569e-07
8.55789e-07
8.55853e-07
8.55863e-07
8.55853e-07
8.55803e-07
8.55763e-07
8.55699e-07
8.55604e-07
8.55492e-07
8.55323e-07
8.55144e-07
8.54907e-07
8.54683e-07
8.54445e-07
8.54201e-07
8.53993e-07
8.53742e-07
8.53503e-07
8.53256e-07
8.52968e-07
8.52675e-07
8.52371e-07
8.5205e-07
8.51748e-07
8.57019e-07
8.65685e-07
8.77444e-07
8.82277e-07
8.81634e-07
8.81021e-07
8.80445e-07
8.80744e-07
8.81278e-07
8.81138e-07
8.80663e-07
8.8023e-07
8.79837e-07
8.7947e-07
8.79161e-07
8.78898e-07
8.78664e-07
8.78483e-07
8.78373e-07
8.78313e-07
8.78348e-07
8.83129e-07
9.02603e-07
9.21174e-07
9.32246e-07
9.46606e-07
9.67693e-07
9.88878e-07
9.89867e-07
9.89571e-07
9.89086e-07
9.88376e-07
9.87021e-07
9.85741e-07
9.83294e-07
9.78114e-07
3.19317e-06
6.23699e-06
6.06922e-06
5.84701e-06
5.64977e-06
5.46284e-06
5.2765e-06
5.09991e-06
4.93413e-06
4.77525e-06
4.62247e-06
4.47567e-06
4.33855e-06
4.20468e-06
4.07853e-06
3.95722e-06
3.84075e-06
3.72963e-06
3.62252e-06
2.10898e-06
9.03681e-07
8.59195e-07
8.58634e-07
8.58234e-07
8.57947e-07
8.57754e-07
8.5763e-07
8.57586e-07
8.57614e-07
8.57694e-07
8.57809e-07
8.57926e-07
8.58045e-07
8.58162e-07
8.58267e-07
8.58352e-07
8.58416e-07
8.58479e-07
8.58535e-07
8.5859e-07
8.58616e-07
8.58632e-07
8.58593e-07
8.5853e-07
8.58429e-07
8.58317e-07
8.58196e-07
8.58029e-07
8.57875e-07
8.57661e-07
8.5743e-07
8.57162e-07
8.56884e-07
8.56619e-07
8.56325e-07
8.56065e-07
8.55799e-07
8.5551e-07
8.55231e-07
8.54938e-07
8.54612e-07
8.5429e-07
8.53962e-07
8.60522e-07
8.70619e-07
8.84665e-07
8.83943e-07
8.8323e-07
8.82537e-07
8.81876e-07
8.81239e-07
8.8063e-07
8.8079e-07
8.81314e-07
8.81292e-07
8.80791e-07
8.80321e-07
8.79853e-07
8.79444e-07
8.79033e-07
8.78643e-07
8.78325e-07
8.84686e-07
9.04059e-07
9.21472e-07
9.33091e-07
9.48498e-07
9.69421e-07
9.87804e-07
9.87058e-07
9.86269e-07
9.85409e-07
9.84448e-07
9.83317e-07
9.81969e-07
9.80398e-07
9.78243e-07
9.76303e-07
9.73322e-07
9.6804e-07
3.18906e-06
6.21931e-06
6.05222e-06
5.83036e-06
5.63161e-06
5.44564e-06
5.26265e-06
5.08707e-06
4.92112e-06
4.76238e-06
4.61312e-06
4.46562e-06
4.32826e-06
4.19634e-06
4.07072e-06
3.95095e-06
3.8342e-06
3.72319e-06
3.618e-06
2.35933e-06
1.01919e-06
8.64422e-07
8.63641e-07
8.63032e-07
8.62574e-07
8.6224e-07
8.6198e-07
8.61783e-07
8.6165e-07
8.61581e-07
8.61567e-07
8.61561e-07
8.6156e-07
8.61559e-07
8.61547e-07
8.61529e-07
8.615e-07
8.61473e-07
8.61428e-07
8.61386e-07
8.61324e-07
8.61262e-07
8.6116e-07
8.61035e-07
8.60895e-07
8.60718e-07
8.60556e-07
8.60341e-07
8.60133e-07
8.59886e-07
8.59598e-07
8.593e-07
8.58969e-07
8.58657e-07
8.58338e-07
8.58006e-07
8.57701e-07
8.57394e-07
8.57066e-07
8.56745e-07
8.56407e-07
8.56043e-07
8.64008e-07
8.75421e-07
8.86332e-07
8.85532e-07
8.84757e-07
8.84007e-07
8.8326e-07
8.82529e-07
8.81828e-07
8.81147e-07
8.80494e-07
8.80495e-07
8.80978e-07
8.81047e-07
8.80467e-07
8.79892e-07
8.79366e-07
8.85042e-07
9.06856e-07
9.23376e-07
9.35512e-07
9.51803e-07
9.6136e-07
9.88368e-07
9.87181e-07
9.85989e-07
9.84833e-07
9.83622e-07
9.82328e-07
9.80939e-07
9.79415e-07
9.7772e-07
9.75799e-07
9.7369e-07
9.71082e-07
9.68803e-07
9.65586e-07
9.60363e-07
3.18297e-06
6.197e-06
6.03111e-06
5.81261e-06
5.61395e-06
5.42742e-06
5.24731e-06
5.07248e-06
4.90839e-06
4.74883e-06
4.60018e-06
4.45579e-06
4.3169e-06
4.18639e-06
4.06215e-06
3.9424e-06
3.82803e-06
3.71735e-06
3.61132e-06
2.61266e-06
1.18363e-06
8.69567e-07
8.68608e-07
8.67816e-07
8.67154e-07
8.66626e-07
8.662e-07
8.65846e-07
8.65562e-07
8.6534e-07
8.65181e-07
8.65054e-07
8.64945e-07
8.64843e-07
8.64728e-07
8.64614e-07
8.64488e-07
8.64364e-07
8.64226e-07
8.641e-07
8.63959e-07
8.63808e-07
8.63641e-07
8.6344e-07
8.63249e-07
8.63008e-07
8.62793e-07
8.62541e-07
8.62264e-07
8.61987e-07
8.61651e-07
8.61308e-07
8.60938e-07
8.60557e-07
8.6021e-07
8.59837e-07
8.59468e-07
8.59137e-07
8.58787e-07
8.58416e-07
8.58054e-07
8.67307e-07
8.79934e-07
8.8794e-07
8.87065e-07
8.86218e-07
8.85388e-07
8.84574e-07
8.83769e-07
8.82973e-07
8.82202e-07
8.81458e-07
8.80729e-07
8.8001e-07
8.79806e-07
8.80234e-07
8.91298e-07
9.10681e-07
9.2658e-07
9.39367e-07
9.56588e-07
9.77386e-07
9.90696e-07
9.89293e-07
9.87834e-07
9.86357e-07
9.84909e-07
9.83416e-07
9.81862e-07
9.80229e-07
9.78515e-07
9.76699e-07
9.74761e-07
9.72662e-07
9.70396e-07
9.67976e-07
9.65144e-07
9.62695e-07
9.59375e-07
9.54246e-07
3.17718e-06
6.17509e-06
6.00973e-06
5.79286e-06
5.59531e-06
5.40732e-06
5.23e-06
5.05628e-06
4.89256e-06
4.73455e-06
4.58678e-06
4.44376e-06
4.30599e-06
4.1749e-06
4.05112e-06
3.93399e-06
3.81939e-06
3.70963e-06
3.60512e-06
2.87007e-06
1.3809e-06
8.74688e-07
8.73522e-07
8.72532e-07
8.71672e-07
8.70944e-07
8.70341e-07
8.6984e-07
8.69429e-07
8.69078e-07
8.68777e-07
8.68518e-07
8.68284e-07
8.68066e-07
8.67842e-07
8.67627e-07
8.67401e-07
8.67183e-07
8.66961e-07
8.66747e-07
8.6653e-07
8.66288e-07
8.66055e-07
8.65771e-07
8.65509e-07
8.65208e-07
8.64909e-07
8.64623e-07
8.64284e-07
8.63964e-07
8.63595e-07
8.63187e-07
8.62787e-07
8.62353e-07
8.61951e-07
8.61541e-07
8.61131e-07
8.60733e-07
8.60375e-07
8.59972e-07
8.70309e-07
8.84053e-07
8.89517e-07
8.88578e-07
8.87646e-07
8.86735e-07
8.85846e-07
8.84962e-07
8.84086e-07
8.83225e-07
8.82373e-07
8.81538e-07
8.80722e-07
8.93638e-07
9.13023e-07
9.28767e-07
9.43441e-07
9.62574e-07
9.83362e-07
9.9435e-07
9.92661e-07
9.90974e-07
9.89319e-07
9.87656e-07
9.86015e-07
9.84321e-07
9.8258e-07
9.80796e-07
9.78959e-07
9.77044e-07
9.75041e-07
9.72923e-07
9.70686e-07
9.68314e-07
9.65801e-07
9.63188e-07
9.60223e-07
9.57681e-07
9.54305e-07
9.49275e-07
3.16957e-06
6.14934e-06
5.98581e-06
5.77001e-06
5.5757e-06
5.387e-06
5.21014e-06
5.03965e-06
4.87578e-06
4.71865e-06
4.57126e-06
4.43018e-06
4.29419e-06
4.16364e-06
4.03925e-06
3.92219e-06
3.81074e-06
3.70218e-06
3.59728e-06
3.12996e-06
1.60041e-06
8.79733e-07
8.7837e-07
8.77212e-07
8.76203e-07
8.75308e-07
8.74527e-07
8.73848e-07
8.73261e-07
8.72746e-07
8.72297e-07
8.71905e-07
8.71544e-07
8.71204e-07
8.70862e-07
8.70527e-07
8.7019e-07
8.69865e-07
8.69558e-07
8.69249e-07
8.68966e-07
8.68651e-07
8.68358e-07
8.6801e-07
8.67662e-07
8.67313e-07
8.66926e-07
8.66587e-07
8.66208e-07
8.65815e-07
8.65413e-07
8.64947e-07
8.64489e-07
8.64018e-07
8.6355e-07
8.63035e-07
8.62654e-07
8.62277e-07
8.61788e-07
8.72911e-07
8.87653e-07
8.91042e-07
8.90028e-07
8.8903e-07
8.88047e-07
8.87075e-07
8.86123e-07
8.85182e-07
8.84234e-07
8.83291e-07
8.99617e-07
9.1905e-07
9.33873e-07
9.48277e-07
9.67288e-07
9.87993e-07
9.96479e-07
9.95712e-07
9.94958e-07
9.93358e-07
9.91526e-07
9.89696e-07
9.8785e-07
9.85993e-07
9.84098e-07
9.82158e-07
9.80188e-07
9.78162e-07
9.76076e-07
9.73926e-07
9.7169e-07
9.69364e-07
9.66933e-07
9.64396e-07
9.61743e-07
9.59026e-07
9.55994e-07
9.53413e-07
9.50024e-07
9.4511e-07
3.16293e-06
6.12319e-06
5.96045e-06
5.74617e-06
5.55347e-06
5.3657e-06
5.18996e-06
5.02089e-06
4.85783e-06
4.70259e-06
4.55478e-06
4.4145e-06
4.28067e-06
4.15085e-06
4.02752e-06
3.91107e-06
3.79962e-06
3.69186e-06
3.58862e-06
3.39349e-06
1.77527e-06
8.84758e-07
8.83169e-07
8.8178e-07
8.80561e-07
8.79482e-07
8.78533e-07
8.77692e-07
8.76948e-07
8.7629e-07
8.75704e-07
8.75176e-07
8.74691e-07
8.7424e-07
8.73798e-07
8.73359e-07
8.72926e-07
8.72489e-07
8.72087e-07
8.71671e-07
8.71307e-07
8.7092e-07
8.70541e-07
8.7014e-07
8.69702e-07
8.69304e-07
8.68858e-07
8.68437e-07
8.68023e-07
8.67562e-07
8.67103e-07
8.6661e-07
8.66084e-07
8.65576e-07
8.65076e-07
8.64534e-07
8.64318e-07
8.63565e-07
8.75013e-07
8.90657e-07
8.92518e-07
8.91455e-07
8.90388e-07
8.8932e-07
8.88275e-07
8.87252e-07
8.87795e-07
9.0688e-07
9.26359e-07
9.40653e-07
9.55902e-07
9.75767e-07
9.96459e-07
1.00148e-06
9.99473e-07
9.97482e-07
9.95496e-07
9.93505e-07
9.9255e-07
9.91644e-07
9.90233e-07
9.88232e-07
9.86226e-07
9.84205e-07
9.82156e-07
9.80071e-07
9.7793e-07
9.75724e-07
9.7346e-07
9.71128e-07
9.68714e-07
9.6621e-07
9.63631e-07
9.60962e-07
9.58209e-07
9.55418e-07
9.52343e-07
9.49742e-07
9.46352e-07
9.4155e-07
3.15564e-06
6.09489e-06
5.9328e-06
5.72068e-06
5.53059e-06
5.34278e-06
5.16756e-06
5.0005e-06
4.83863e-06
4.68477e-06
4.53849e-06
4.39761e-06
4.26488e-06
4.13801e-06
4.01416e-06
3.89763e-06
3.78809e-06
3.6821e-06
3.57923e-06
3.48028e-06
1.97849e-06
9.10569e-07
8.87848e-07
8.86257e-07
8.84859e-07
8.83617e-07
8.82507e-07
8.8151e-07
8.80613e-07
8.7981e-07
8.79082e-07
8.78414e-07
8.77801e-07
8.77231e-07
8.76686e-07
8.76138e-07
8.75612e-07
8.75062e-07
8.74558e-07
8.74045e-07
8.73576e-07
8.73115e-07
8.72628e-07
8.72167e-07
8.71654e-07
8.71172e-07
8.70688e-07
8.70184e-07
8.69713e-07
8.69214e-07
8.68686e-07
8.68146e-07
8.67587e-07
8.67021e-07
8.66449e-07
8.65951e-07
8.65302e-07
8.76553e-07
8.93056e-07
8.93978e-07
8.92854e-07
8.91723e-07
8.90603e-07
8.96427e-07
9.15557e-07
9.34577e-07
9.48938e-07
9.65346e-07
9.85693e-07
1.00633e-06
1.00729e-06
1.00512e-06
1.00297e-06
1.00084e-06
9.98724e-07
9.96612e-07
9.94508e-07
9.92396e-07
9.90273e-07
9.88886e-07
9.87832e-07
9.86682e-07
9.84535e-07
9.82348e-07
9.80136e-07
9.77888e-07
9.75584e-07
9.73233e-07
9.70842e-07
9.68387e-07
9.65866e-07
9.63274e-07
9.60611e-07
9.57868e-07
9.55061e-07
9.52228e-07
9.49145e-07
9.46544e-07
9.4317e-07
9.38485e-07
3.14786e-06
6.06535e-06
5.90391e-06
5.69303e-06
5.50538e-06
5.31923e-06
5.14407e-06
4.97852e-06
4.81752e-06
4.66591e-06
4.52033e-06
4.38091e-06
4.24852e-06
4.1218e-06
4.00123e-06
3.8851e-06
3.77484e-06
3.66922e-06
3.56789e-06
3.4708e-06
2.23784e-06
1.01317e-06
8.92607e-07
8.90802e-07
8.89193e-07
8.87758e-07
8.86464e-07
8.85292e-07
8.84228e-07
8.83251e-07
8.82356e-07
8.81536e-07
8.80794e-07
8.80095e-07
8.79445e-07
8.78785e-07
8.78167e-07
8.77526e-07
8.76922e-07
8.76335e-07
8.75751e-07
8.75214e-07
8.74636e-07
8.74089e-07
8.73523e-07
8.72942e-07
8.72396e-07
8.7184e-07
8.71287e-07
8.70734e-07
8.70159e-07
8.69546e-07
8.68938e-07
8.68333e-07
8.67699e-07
8.6707e-07
8.7767e-07
8.94791e-07
8.95492e-07
8.94258e-07
9.06731e-07
9.25882e-07
9.43537e-07
9.58939e-07
9.76889e-07
9.97195e-07
1.01596e-06
1.01365e-06
1.01135e-06
1.00906e-06
1.00678e-06
1.00454e-06
1.0023e-06
1.00008e-06
9.97866e-07
9.95649e-07
9.93421e-07
9.91183e-07
9.88944e-07
9.867e-07
9.84797e-07
9.83577e-07
9.82344e-07
9.80556e-07
9.78228e-07
9.7586e-07
9.73435e-07
9.70961e-07
9.68437e-07
9.65863e-07
9.63239e-07
9.60565e-07
9.57837e-07
9.55049e-07
9.52211e-07
9.49354e-07
9.46263e-07
9.43657e-07
9.40297e-07
9.35725e-07
3.14074e-06
6.03487e-06
5.87343e-06
5.66374e-06
5.47774e-06
5.29461e-06
5.11993e-06
4.95496e-06
4.79575e-06
4.64502e-06
4.50117e-06
4.36238e-06
4.23087e-06
4.10647e-06
3.98592e-06
3.8704e-06
3.76138e-06
3.65685e-06
3.55615e-06
3.45951e-06
2.50856e-06
1.17759e-06
8.97241e-07
8.95215e-07
8.93393e-07
8.91756e-07
8.9028e-07
8.88942e-07
8.87721e-07
8.86587e-07
8.85548e-07
8.84588e-07
8.83721e-07
8.82883e-07
8.82112e-07
8.81339e-07
8.80612e-07
8.7989e-07
8.79173e-07
8.78514e-07
8.77829e-07
8.772e-07
8.7656e-07
8.75904e-07
8.75275e-07
8.74632e-07
8.73998e-07
8.73378e-07
8.72762e-07
8.72128e-07
8.71496e-07
8.7085e-07
8.70165e-07
8.695e-07
8.68837e-07
8.7812e-07
8.97769e-07
9.18951e-07
9.38089e-07
9.54593e-07
9.7104e-07
9.9021e-07
1.01044e-06
1.02293e-06
1.02048e-06
1.01807e-06
1.01566e-06
1.01327e-06
1.01089e-06
1.00852e-06
1.00616e-06
1.00381e-06
1.00149e-06
9.99176e-07
9.96857e-07
9.94533e-07
9.92211e-07
9.89878e-07
9.87539e-07
9.85185e-07
9.82807e-07
9.80403e-07
9.78901e-07
9.77498e-07
9.76002e-07
9.73785e-07
9.71278e-07
9.68734e-07
9.66142e-07
9.63503e-07
9.60819e-07
9.58086e-07
9.55309e-07
9.52495e-07
9.49643e-07
9.46784e-07
9.43707e-07
9.41104e-07
9.37753e-07
9.33273e-07
3.13259e-06
6.003e-06
5.84299e-06
5.63342e-06
5.44771e-06
5.26785e-06
5.09489e-06
4.93037e-06
4.77317e-06
4.62305e-06
4.48048e-06
4.34361e-06
4.21201e-06
4.08772e-06
3.96986e-06
3.85615e-06
3.74732e-06
3.64303e-06
3.54309e-06
3.44752e-06
2.78336e-06
1.38354e-06
9.01791e-07
8.99581e-07
8.97586e-07
8.95772e-07
8.9412e-07
8.926e-07
8.91205e-07
8.89908e-07
8.88729e-07
8.87619e-07
8.86607e-07
8.85629e-07
8.84725e-07
8.83849e-07
8.82988e-07
8.8218e-07
8.81348e-07
8.80589e-07
8.79828e-07
8.7908e-07
8.78372e-07
8.77637e-07
8.76912e-07
8.76212e-07
8.75506e-07
8.74793e-07
8.74108e-07
8.7343e-07
8.72718e-07
8.72012e-07
8.71301e-07
8.81388e-07
9.08321e-07
9.47834e-07
9.68119e-07
9.85762e-07
1.00554e-06
1.02563e-06
1.0303e-06
1.02775e-06
1.02521e-06
1.0227e-06
1.0202e-06
1.0177e-06
1.01522e-06
1.01275e-06
1.01029e-06
1.00784e-06
1.00542e-06
1.00301e-06
1.0006e-06
9.98195e-07
9.95786e-07
9.9337e-07
9.90946e-07
9.88518e-07
9.86082e-07
9.8363e-07
9.81158e-07
9.78672e-07
9.76159e-07
9.73968e-07
9.72357e-07
9.70759e-07
9.69003e-07
9.66562e-07
9.63906e-07
9.61221e-07
9.58498e-07
9.5573e-07
9.52924e-07
9.5008e-07
9.47207e-07
9.44351e-07
9.41297e-07
9.3872e-07
9.3541e-07
9.3104e-07
3.14774e-06
5.96845e-06
5.81076e-06
5.60284e-06
5.41702e-06
5.23864e-06
5.06835e-06
4.90501e-06
4.74866e-06
4.60046e-06
4.45914e-06
4.32291e-06
4.19347e-06
4.06993e-06
3.95198e-06
3.83888e-06
3.73141e-06
3.62864e-06
3.52982e-06
3.43509e-06
3.06097e-06
1.61168e-06
9.06375e-07
9.03937e-07
9.01732e-07
8.9972e-07
8.97873e-07
8.96157e-07
8.94585e-07
8.93125e-07
8.91803e-07
8.90548e-07
8.89391e-07
8.88298e-07
8.87255e-07
8.86284e-07
8.85295e-07
8.84386e-07
8.83465e-07
8.82567e-07
8.81729e-07
8.8088e-07
8.80067e-07
8.79275e-07
8.78469e-07
8.77667e-07
8.7689e-07
8.7612e-07
8.75341e-07
8.78139e-07
8.95658e-07
9.13551e-07
9.27772e-07
9.49856e-07
9.94936e-07
1.02308e-06
1.04074e-06
1.03804e-06
1.03539e-06
1.03274e-06
1.03011e-06
1.02751e-06
1.02491e-06
1.02232e-06
1.01976e-06
1.0172e-06
1.01465e-06
1.0121e-06
1.00956e-06
1.00704e-06
1.00453e-06
1.00204e-06
9.99551e-07
9.97064e-07
9.94579e-07
9.92099e-07
9.89616e-07
9.87113e-07
9.84587e-07
9.82045e-07
9.79487e-07
9.76919e-07
9.74322e-07
9.71703e-07
9.69064e-07
9.66968e-07
9.65199e-07
9.63425e-07
9.61483e-07
9.59087e-07
9.5633e-07
9.5354e-07
9.50721e-07
9.47869e-07
9.44991e-07
9.42123e-07
9.39067e-07
9.36494e-07
9.33204e-07
9.2893e-07
3.14105e-06
5.85367e-06
5.77629e-06
5.57028e-06
5.38582e-06
5.20834e-06
5.04015e-06
4.87809e-06
4.72386e-06
4.57564e-06
4.43599e-06
4.30286e-06
4.17289e-06
4.04991e-06
3.93345e-06
3.82192e-06
3.7153e-06
3.61316e-06
3.51512e-06
3.42143e-06
3.33141e-06
1.77475e-06
9.10882e-07
9.08168e-07
9.05762e-07
9.03561e-07
9.01537e-07
8.99643e-07
8.97899e-07
8.96268e-07
8.94777e-07
8.93383e-07
8.92074e-07
8.90874e-07
8.8969e-07
8.8861e-07
8.87527e-07
8.86483e-07
8.85484e-07
8.84468e-07
8.83517e-07
8.82599e-07
8.81682e-07
8.80789e-07
8.79914e-07
8.79042e-07
8.94749e-07
9.12292e-07
9.29022e-07
9.41735e-07
9.56599e-07
9.75386e-07
1.00057e-06
1.03632e-06
1.04628e-06
1.04346e-06
1.04069e-06
1.03792e-06
1.03518e-06
1.03248e-06
1.0298e-06
1.02712e-06
1.02447e-06
1.02182e-06
1.01917e-06
1.01654e-06
1.01393e-06
1.01133e-06
1.00874e-06
1.00615e-06
1.00358e-06
1.00101e-06
9.98435e-07
9.95862e-07
9.93293e-07
9.9073e-07
9.88162e-07
9.85584e-07
9.83002e-07
9.80408e-07
9.77801e-07
9.75161e-07
9.72488e-07
9.69796e-07
9.67095e-07
9.64378e-07
9.61636e-07
9.59453e-07
9.57495e-07
9.55562e-07
9.53496e-07
9.5131e-07
9.48576e-07
9.45733e-07
9.42876e-07
9.40037e-07
9.37013e-07
9.34454e-07
9.31177e-07
9.26984e-07
3.01806e-06
5.65224e-06
5.74049e-06
5.53599e-06
5.35345e-06
5.17708e-06
5.00991e-06
4.85041e-06
4.69762e-06
4.55108e-06
4.41163e-06
4.27887e-06
4.15261e-06
4.03112e-06
3.9145e-06
3.80306e-06
3.69708e-06
3.5962e-06
3.49963e-06
3.40714e-06
3.31805e-06
2.01713e-06
9.66617e-07
9.12411e-07
9.09799e-07
9.07398e-07
9.05191e-07
9.03124e-07
9.01207e-07
8.99412e-07
8.9773e-07
8.96188e-07
8.94708e-07
8.93376e-07
8.92068e-07
8.90841e-07
8.89675e-07
8.88493e-07
8.87379e-07
8.86288e-07
8.85226e-07
8.84207e-07
8.9746e-07
9.14486e-07
9.31891e-07
9.45201e-07
9.59234e-07
9.77206e-07
9.95858e-07
1.01063e-06
1.00837e-06
1.00682e-06
1.03418e-06
1.04913e-06
1.04622e-06
1.04332e-06
1.04047e-06
1.03766e-06
1.03486e-06
1.03208e-06
1.02933e-06
1.02661e-06
1.02388e-06
1.02116e-06
1.01845e-06
1.01576e-06
1.01308e-06
1.0104e-06
1.00775e-06
1.0051e-06
1.00247e-06
9.99837e-07
9.97217e-07
9.94601e-07
9.91975e-07
9.89348e-07
9.86704e-07
9.84058e-07
9.81408e-07
9.78753e-07
9.76082e-07
9.73388e-07
9.70665e-07
9.67933e-07
9.65186e-07
9.62425e-07
9.59646e-07
9.56853e-07
9.54038e-07
9.51575e-07
9.494e-07
9.47293e-07
9.45159e-07
9.42868e-07
9.40527e-07
9.37988e-07
9.34997e-07
9.32467e-07
9.29231e-07
9.25138e-07
2.97276e-06
5.47634e-06
5.56439e-06
5.50021e-06
5.31984e-06
5.14484e-06
4.97865e-06
4.82086e-06
4.67027e-06
4.5251e-06
4.38681e-06
4.2555e-06
4.12922e-06
4.00916e-06
3.89446e-06
3.78443e-06
3.67935e-06
3.5792e-06
3.48323e-06
3.39145e-06
3.30336e-06
2.30127e-06
1.10552e-06
9.16594e-07
9.13768e-07
9.11154e-07
9.08746e-07
9.06516e-07
9.04431e-07
9.02498e-07
9.00636e-07
8.98941e-07
8.97307e-07
8.95803e-07
8.94393e-07
8.93008e-07
8.91716e-07
8.90442e-07
9.04411e-07
9.20812e-07
9.37626e-07
9.51612e-07
9.65749e-07
9.8289e-07
1.00087e-06
1.01919e-06
1.01845e-06
1.01607e-06
1.01372e-06
1.01145e-06
1.00876e-06
1.03106e-06
1.052e-06
1.04898e-06
1.046e-06
1.04306e-06
1.04014e-06
1.03724e-06
1.03439e-06
1.03156e-06
1.02874e-06
1.02593e-06
1.02315e-06
1.02038e-06
1.01761e-06
1.01487e-06
1.01214e-06
1.00942e-06
1.0067e-06
1.00398e-06
1.00127e-06
9.98556e-07
9.95858e-07
9.93168e-07
9.90486e-07
9.8781e-07
9.8513e-07
9.82448e-07
9.79757e-07
9.77051e-07
9.74321e-07
9.71569e-07
9.688e-07
9.66031e-07
9.63256e-07
9.6047e-07
9.57669e-07
9.54855e-07
9.52027e-07
9.49191e-07
9.46342e-07
9.43474e-07
9.41102e-07
9.38784e-07
9.36479e-07
9.34229e-07
9.31751e-07
9.29593e-07
9.26753e-07
9.23254e-07
2.97366e-06
5.30382e-06
5.37297e-06
5.42957e-06
5.28454e-06
5.11121e-06
4.94706e-06
4.78966e-06
4.64096e-06
4.49872e-06
4.36102e-06
4.23034e-06
4.10564e-06
3.98732e-06
3.87377e-06
3.76456e-06
3.66012e-06
3.56086e-06
3.46599e-06
3.37509e-06
3.28786e-06
2.58968e-06
1.30272e-06
9.20679e-07
9.17638e-07
9.14821e-07
9.12203e-07
9.09806e-07
9.07541e-07
9.05465e-07
9.03455e-07
9.01592e-07
8.99846e-07
9.01667e-07
9.16725e-07
9.32258e-07
9.48228e-07
9.61977e-07
9.76225e-07
9.92878e-07
1.01011e-06
1.02777e-06
1.02917e-06
1.02668e-06
1.02423e-06
1.02174e-06
1.01929e-06
1.01689e-06
1.01448e-06
1.0121e-06
1.02702e-06
1.05498e-06
1.05178e-06
1.04871e-06
1.04566e-06
1.04265e-06
1.03967e-06
1.03672e-06
1.0338e-06
1.03089e-06
1.02802e-06
1.02515e-06
1.02229e-06
1.01946e-06
1.01664e-06
1.01384e-06
1.01104e-06
1.00827e-06
1.00551e-06
1.00276e-06
1.00001e-06
9.97251e-07
9.94493e-07
9.91736e-07
9.88987e-07
9.8624e-07
9.83502e-07
9.80766e-07
9.78034e-07
9.75282e-07
9.72516e-07
9.69732e-07
9.66941e-07
9.64146e-07
9.61338e-07
9.58524e-07
9.55708e-07
9.52887e-07
9.50052e-07
9.47207e-07
9.44349e-07
9.41481e-07
9.38616e-07
9.35752e-07
9.32892e-07
9.30258e-07
9.27742e-07
9.25585e-07
9.22707e-07
9.19182e-07
2.97439e-06
5.28047e-06
5.19098e-06
5.21856e-06
5.24794e-06
5.07652e-06
4.91405e-06
4.75899e-06
4.61033e-06
4.46858e-06
4.33459e-06
4.20585e-06
4.08162e-06
3.96369e-06
3.85131e-06
3.74363e-06
3.64035e-06
3.54195e-06
3.44806e-06
3.35809e-06
3.27172e-06
2.88126e-06
1.53543e-06
9.24751e-07
9.21492e-07
9.18487e-07
9.1566e-07
9.13077e-07
9.10618e-07
9.22132e-07
9.35828e-07
9.50081e-07
9.64436e-07
9.7779e-07
9.92169e-07
1.00805e-06
1.02436e-06
1.04108e-06
1.04068e-06
1.03805e-06
1.0354e-06
1.03279e-06
1.03023e-06
1.02764e-06
1.02509e-06
1.02258e-06
1.02005e-06
1.01755e-06
1.01511e-06
1.02205e-06
1.05252e-06
1.05464e-06
1.05145e-06
1.0483e-06
1.0452e-06
1.04213e-06
1.03908e-06
1.03606e-06
1.03308e-06
1.03011e-06
1.02716e-06
1.02424e-06
1.02134e-06
1.01846e-06
1.01558e-06
1.01272e-06
1.00986e-06
1.00703e-06
1.0042e-06
1.00139e-06
9.98577e-07
9.95774e-07
9.92979e-07
9.90193e-07
9.87412e-07
9.84638e-07
9.81864e-07
9.79083e-07
9.76285e-07
9.7348e-07
9.70678e-07
9.67879e-07
9.65071e-07
9.62253e-07
9.5943e-07
9.56608e-07
9.53782e-07
9.50943e-07
9.48099e-07
9.45258e-07
9.42406e-07
9.39544e-07
9.36685e-07
9.33829e-07
9.30985e-07
9.28182e-07
9.25242e-07
9.22732e-07
9.19508e-07
9.15554e-07
2.9748e-06
5.25617e-06
5.1155e-06
5.03504e-06
5.07182e-06
5.03955e-06
4.87968e-06
4.72626e-06
4.57969e-06
4.43995e-06
4.30534e-06
4.1785e-06
4.05661e-06
3.94034e-06
3.82908e-06
3.72226e-06
3.61969e-06
3.52206e-06
3.42917e-06
3.34011e-06
3.25462e-06
3.17222e-06
1.69532e-06
9.30733e-07
9.40918e-07
9.51912e-07
9.63647e-07
9.76096e-07
9.8827e-07
1.00108e-06
1.01501e-06
1.02953e-06
1.04456e-06
1.0561e-06
1.05322e-06
1.05034e-06
1.04751e-06
1.04475e-06
1.04194e-06
1.03919e-06
1.0365e-06
1.03377e-06
1.03112e-06
1.0285e-06
1.02585e-06
1.02325e-06
1.02069e-06
1.01812e-06
1.01626e-06
1.04685e-06
1.05751e-06
1.05424e-06
1.051e-06
1.0478e-06
1.04462e-06
1.04149e-06
1.03838e-06
1.0353e-06
1.03224e-06
1.02921e-06
1.02621e-06
1.02323e-06
1.02026e-06
1.01732e-06
1.01439e-06
1.01149e-06
1.0086e-06
1.00573e-06
1.00286e-06
9.99994e-07
9.97129e-07
9.94265e-07
9.9141e-07
9.88566e-07
9.85743e-07
9.82936e-07
9.80127e-07
9.77313e-07
9.74491e-07
9.71665e-07
9.68835e-07
9.65994e-07
9.63158e-07
9.60328e-07
9.57506e-07
9.54683e-07
9.51848e-07
9.49004e-07
9.4616e-07
9.43316e-07
9.40465e-07
9.3762e-07
9.34786e-07
9.31952e-07
9.29126e-07
9.26335e-07
9.23414e-07
9.20922e-07
9.17732e-07
9.13862e-07
3.04582e-06
5.24645e-06
5.09022e-06
4.91226e-06
4.87862e-06
4.91559e-06
4.84343e-06
4.69266e-06
4.54797e-06
4.40849e-06
4.27631e-06
4.15146e-06
4.0311e-06
3.91574e-06
3.80518e-06
3.69946e-06
3.59819e-06
3.50311e-06
3.41397e-06
3.32957e-06
3.24985e-06
3.17448e-06
1.99317e-06
1.06413e-06
1.02282e-06
1.03409e-06
1.04609e-06
1.05876e-06
1.07209e-06
1.07051e-06
1.06723e-06
1.06401e-06
1.06088e-06
1.05778e-06
1.05475e-06
1.05181e-06
1.04883e-06
1.04594e-06
1.04309e-06
1.04022e-06
1.03743e-06
1.03466e-06
1.03189e-06
1.02919e-06
1.02652e-06
1.02382e-06
1.02116e-06
1.01821e-06
1.04027e-06
1.06046e-06
1.05708e-06
1.05373e-06
1.05042e-06
1.04715e-06
1.04392e-06
1.04072e-06
1.03755e-06
1.03441e-06
1.03129e-06
1.0282e-06
1.02515e-06
1.02211e-06
1.01909e-06
1.01608e-06
1.0131e-06
1.01015e-06
1.00721e-06
1.00429e-06
1.00138e-06
9.98478e-07
9.95586e-07
9.92699e-07
9.89823e-07
9.86945e-07
9.84072e-07
9.81197e-07
9.78342e-07
9.75491e-07
9.72648e-07
9.698e-07
9.6695e-07
9.64095e-07
9.61243e-07
9.58397e-07
9.55558e-07
9.52726e-07
9.49894e-07
9.47061e-07
9.44221e-07
9.41375e-07
9.38532e-07
9.35702e-07
9.32881e-07
9.30064e-07
9.27264e-07
9.24503e-07
9.21619e-07
9.19145e-07
9.15976e-07
9.12174e-07
3.14165e-06
5.19733e-06
5.0984e-06
4.94935e-06
4.78203e-06
4.74958e-06
4.7752e-06
4.67292e-06
4.53063e-06
4.3943e-06
4.26355e-06
4.14123e-06
4.02555e-06
3.91568e-06
3.8108e-06
3.71154e-06
3.65267e-06
3.62093e-06
3.56576e-06
3.50024e-06
3.43985e-06
3.38449e-06
2.23539e-06
1.15671e-06
1.09112e-06
1.08718e-06
1.08339e-06
1.0797e-06
1.07613e-06
1.07262e-06
1.06921e-06
1.06583e-06
1.06254e-06
1.05935e-06
1.05618e-06
1.05311e-06
1.05006e-06
1.04703e-06
1.04408e-06
1.04116e-06
1.03823e-06
1.03539e-06
1.03259e-06
1.02977e-06
1.02701e-06
1.02428e-06
1.02155e-06
1.03279e-06
1.0634e-06
1.05997e-06
1.0565e-06
1.05309e-06
1.04973e-06
1.0464e-06
1.0431e-06
1.03983e-06
1.0366e-06
1.0334e-06
1.03023e-06
1.02709e-06
1.02397e-06
1.02088e-06
1.01781e-06
1.01477e-06
1.01176e-06
1.00875e-06
1.00577e-06
1.00279e-06
9.99823e-07
9.96871e-07
9.93936e-07
9.9102e-07
9.88102e-07
9.85199e-07
9.82305e-07
9.7942e-07
9.76535e-07
9.73645e-07
9.70759e-07
9.67889e-07
9.65029e-07
9.62171e-07
9.59316e-07
9.56467e-07
9.53627e-07
9.50784e-07
9.47936e-07
9.45089e-07
9.42251e-07
9.39425e-07
9.36609e-07
9.33792e-07
9.30978e-07
9.28173e-07
9.25391e-07
9.22654e-07
9.19801e-07
9.17349e-07
9.14215e-07
9.10489e-07
3.22982e-06
5.26375e-06
5.13884e-06
4.96529e-06
4.81681e-06
4.6755e-06
4.653e-06
4.67373e-06
4.57371e-06
4.45439e-06
4.34124e-06
4.2359e-06
4.13724e-06
4.04466e-06
3.95726e-06
3.8757e-06
3.80018e-06
3.72014e-06
3.63913e-06
3.56162e-06
3.48713e-06
3.41559e-06
2.2432e-06
1.15406e-06
1.09404e-06
1.08987e-06
1.08589e-06
1.08201e-06
1.07828e-06
1.07461e-06
1.07104e-06
1.06756e-06
1.0641e-06
1.06078e-06
1.05753e-06
1.05431e-06
1.05114e-06
1.04801e-06
1.04495e-06
1.04193e-06
1.03895e-06
1.036e-06
1.03311e-06
1.03025e-06
1.0274e-06
1.02458e-06
1.02452e-06
1.05758e-06
1.06292e-06
1.05935e-06
1.05582e-06