/*--------------------------------*- C++ -*----------------------------------*\
| =========                 |                                                 |
| \\      /  F ield         | foam-extend: Open Source CFD                    |
|  \\    /   O peration     | Version:     4.1                                |
|   \\  /    A nd           | Web:         http://www.foam-extend.org         |
|    \\/     M anipulation  |                                                 |
\*---------------------------------------------------------------------------*/
FoamFile
{
    version     2.0;
    format      ascii;
    class       volScalarField;
    location    "1";
    object      sigmaEq;
}
// * * * * * * * * * * * * * * * * * * * * * * * * * * * * * * * * * * * * * //

dimensions      [1 -1 -2 0 0 0 0];

internalField   nonuniform List<scalar> 
100000
(
739538
1.45518e+06
1.41577e+06
1.3634e+06
1.31703e+06
1.27188e+06
1.22924e+06
1.18826e+06
1.14876e+06
1.11106e+06
1.07474e+06
1.04028e+06
1.00753e+06
976296
946464
917403
889584
862962
611658
264518
192001
192072
192172
192293
192427
192569
192724
192888
193056
193221
193385
193530
193688
193839
193964
194096
194217
194332
194439
194538
194627
194703
194763
194812
194852
194888
194918
194943
194953
194953
194943
194929
194909
194891
194872
194846
194818
194780
194739
194689
194628
194572
194514
194460
194409
194354
194345
194539
194709
194645
197180
198664
201687
202076
201998
201932
201877
201831
201800
201793
201809
201846
201910
202005
202136
202304
202511
202768
203090
203491
203987
204599
205361
206306
207507
209054
210836
213716
215967
222853
739735
1.45355e+06
1.41378e+06
1.36147e+06
1.31521e+06
1.27004e+06
1.22742e+06
1.18701e+06
1.14728e+06
1.10952e+06
1.07374e+06
1.03989e+06
1.00705e+06
975423
945821
916980
889524
863075
666563
306539
193314
193339
193393
193471
193564
193671
193792
193925
194058
194194
194329
194463
194610
194707
194820
194929
195032
195132
195223
195302
195373
195437
195487
195527
195556
195580
195594
195606
195607
195602
195583
195560
195534
195505
195480
195446
195415
195375
195325
195277
195216
195156
195098
195037
194983
194929
194871
194836
196692
198464
200419
202686
202584
202491
202410
202340
202282
202237
202207
202197
202209
202245
202305
202395
202518
202676
202872
203114
203408
203768
204200
204714
205321
206022
206833
210240
215177
220416
223755
226777
739259
1.45041e+06
1.41124e+06
1.35908e+06
1.31297e+06
1.26825e+06
1.22501e+06
1.18514e+06
1.14602e+06
1.10821e+06
1.0722e+06
1.03844e+06
1.00604e+06
974513
945090
916399
889064
862819
722328
353130
194608
194592
194605
194635
194686
194758
194842
194939
195043
195156
195268
195389
195484
195575
195672
195748
195832
195911
195983
196047
196105
196150
196183
196210
196229
196244
196252
196258
196249
196228
196200
196164
196130
196090
196060
196021
195979
195940
195887
195833
195772
195706
195646
195582
195522
195466
195406
197539
199381
202809
203123
203041
202935
202837
202751
202677
202614
202561
202522
202502
202499
202518
202559
202627
202725
202851
203003
203187
203408
203668
203969
204311
208738
213479
216923
219995
224207
229111
233200
233670
738720
1.44715e+06
1.40794e+06
1.35624e+06
1.31064e+06
1.26625e+06
1.22276e+06
1.18255e+06
1.14382e+06
1.10637e+06
1.07063e+06
1.03685e+06
1.005e+06
973396
944037
915692
888295
862508
778731
402832
195899
195836
195802
195791
195801
195834
195882
195945
196021
196104
196188
196268
196348
196422
196493
196554
196615
196669
196720
196770
196810
196838
196854
196866
196869
196873
196871
196865
196847
196817
196784
196739
196697
196648
196607
196564
196512
196468
196413
196351
196289
196220
196154
196091
196026
196210
198634
200868
203197
203063
203156
203280
203225
203120
203023
202938
202865
202800
202747
202709
202685
202677
202689
202719
202776
202855
202945
203052
203727
208277
212918
215543
218608
223424
228289
230244
230260
230284
230003
228978
737885
1.44356e+06
1.40471e+06
1.35291e+06
1.30725e+06
1.2636e+06
1.22009e+06
1.17991e+06
1.14163e+06
1.1045e+06
1.06894e+06
1.03489e+06
1.00314e+06
971952
942722
914647
887438
861536
835952
438691
197181
197061
196978
196930
196905
196901
196910
196934
196973
197021
197074
197128
197185
197237
197284
197326
197364
197400
197434
197467
197490
197505
197507
197504
197493
197484
197469
197447
197421
197382
197341
197286
197235
197180
197123
197075
197017
196962
196905
196839
196771
196701
196627
196557
197774
199774
202487
203602
203454
203313
203180
203249
203372
203340
203230
203130
203039
202955
202883
202823
202769
202727
202702
202688
202696
203799
208293
212579
215134
218448
223314
228203
228431
228363
228251
228087
227774
227479
226914
225719
736885
1.43931e+06
1.40059e+06
1.34931e+06
1.30379e+06
1.26066e+06
1.21765e+06
1.1769e+06
1.13864e+06
1.10198e+06
1.06672e+06
1.03285e+06
1.0012e+06
970311
941200
913205
886327
860684
835967
486687
208542
198276
198146
198054
197988
197943
197915
197905
197911
197929
197956
197983
198010
198037
198062
198081
198096
198111
198123
198136
198142
198146
198137
198122
198099
198073
198045
198007
197971
197922
197868
197807
197742
197681
197614
197553
197492
197425
197361
197293
197218
197144
197068
198582
200912
204153
203987
203822
203662
203510
203363
203222
203259
203380
203375
203259
203151
203043
202949
202854
202764
202690
204158
208629
212647
215329
218884
223713
227955
227783
227601
227402
227180
226919
226608
226246
225748
225301
224613
223394
735937
1.43522e+06
1.39667e+06
1.34547e+06
1.2996e+06
1.25669e+06
1.21446e+06
1.17394e+06
1.13564e+06
1.09901e+06
1.06457e+06
1.03053e+06
998828
968386
939398
911757
884816
859198
834924
544460
235198
199482
199302
199161
199056
198979
198918
198873
198842
198826
198823
198822
198821
198821
198818
198814
198808
198801
198791
198781
198767
198753
198729
198700
198668
198627
198590
198540
198492
198435
198369
198300
198224
198152
198078
198001
197931
197860
197784
197710
197632
197548
199386
202020
204538
204354
204175
204002
203829
203661
203499
203342
203191
203191
203303
203319
203185
203052
202931
204240
209274
213087
215887
219647
221852
228085
227811
227536
227269
226990
226691
226371
226019
225628
225184
224698
224096
223570
222828
221622
734532
1.43008e+06
1.39179e+06
1.34137e+06
1.29553e+06
1.25248e+06
1.21092e+06
1.17057e+06
1.13271e+06
1.09588e+06
1.06158e+06
1.02826e+06
996209
966089
937419
909784
883392
857850
833382
602922
273146
200669
200448
200265
200112
199991
199892
199811
199745
199694
199657
199628
199603
199579
199553
199526
199497
199469
199437
199408
199375
199340
199302
199255
199211
199156
199106
199048
198984
198920
198843
198763
198678
198590
198510
198424
198339
198262
198182
198096
198013
200148
203062
204909
204707
204512
204320
204133
203947
203763
203585
203413
203245
203079
203032
203131
205684
210157
213826
216777
220751
225551
228622
228298
227962
227621
227287
226942
226584
226207
225811
225392
224945
224460
223938
223379
222726
222160
221394
220211
733196
1.42502e+06
1.38686e+06
1.33681e+06
1.29123e+06
1.24784e+06
1.20692e+06
1.16683e+06
1.12905e+06
1.09259e+06
1.05849e+06
1.02548e+06
993690
963438
934874
907844
881398
856068
831951
662324
318669
201851
201582
201354
201155
200987
200848
200732
200637
200556
200487
200427
200373
200323
200271
200222
200170
200119
200068
200019
199968
199913
199859
199793
199733
199663
199594
199528
199450
199376
199291
199197
199105
199005
198912
198817
198722
198631
198548
198455
200840
204012
205273
205057
204841
204631
204426
204222
204020
203821
203624
203432
203244
206224
210698
214331
217717
222132
226930
229465
229076
228686
228304
227921
227542
227151
226749
226338
225914
225472
225010
224521
224004
223457
222877
222274
221590
221003
220224
219063
731438
1.41908e+06
1.38134e+06
1.33154e+06
1.2867e+06
1.24315e+06
1.20234e+06
1.163e+06
1.12518e+06
1.08892e+06
1.05491e+06
1.02235e+06
990968
960840
932135
905121
879401
854350
830143
722299
369325
203015
202701
202434
202201
201994
201814
201657
201522
201403
201299
201209
201126
201047
200968
200891
200813
200738
200667
200596
200531
200458
200390
200310
200230
200149
200060
199982
199894
199804
199711
199603
199497
199389
199281
199162
199074
198987
198874
201441
204843
205625
205391
205161
204934
204710
204490
204273
204054
203836
207604
212088
215509
218833
223220
227998
229957
229780
229606
229236
228814
228391
227965
227537
227100
226652
226197
225730
225248
224752
224236
223699
223138
222553
221941
221314
220614
220018
219236
218102
729908
1.41304e+06
1.37549e+06
1.32604e+06
1.28157e+06
1.23824e+06
1.19768e+06
1.15867e+06
1.12104e+06
1.08521e+06
1.0511e+06
1.01873e+06
987847
957889
929427
902554
876834
851968
828143
783112
409677
204175
203808
203488
203206
202957
202738
202544
202373
202221
202085
201964
201852
201748
201646
201544
201444
201344
201251
201155
201071
200982
200894
200802
200701
200609
200506
200408
200313
200207
200101
199987
199866
199748
199633
199508
199458
199284
201926
205536
205966
205720
205474
205228
204987
204750
204876
209280
213775
217074
220593
225177
229952
231111
230648
230188
229730
229270
229050
228841
228515
228054
227591
227124
226651
226170
225676
225167
224645
224107
223549
222972
222376
221760
221125
220481
219771
219171
218389
217281
728225
1.40651e+06
1.36911e+06
1.32016e+06
1.27629e+06
1.23295e+06
1.19251e+06
1.15396e+06
1.11661e+06
1.0811e+06
1.04734e+06
1.01483e+06
984204
954927
926344
899453
874175
849715
825977
803142
456574
210131
204888
204521
204198
203912
203656
203425
203218
203033
202865
202711
202569
202438
202312
202186
202064
201937
201821
201703
201595
201488
201376
201269
201151
201040
200928
200812
200703
200588
200466
200341
200212
200082
199950
199835
199685
202281
206090
206303
206043
205782
205524
206868
211282
215672
218986
222772
227468
232231
232451
231951
231456
230964
230475
229987
229502
229015
228524
228204
227961
227696
227200
226696
226185
225666
225135
224592
224040
223474
222892
222294
221679
221046
220399
219745
219034
218433
217655
216573
726429
1.3997e+06
1.36244e+06
1.31378e+06
1.27047e+06
1.22752e+06
1.18709e+06
1.14889e+06
1.11174e+06
1.07675e+06
1.04315e+06
1.01098e+06
980428
951185
923362
896563
871116
846742
823359
800954
516425
233809
205986
205570
205198
204867
204569
204298
204053
203827
203621
203431
203260
203099
202949
202796
202654
202506
202367
202231
202096
201972
201839
201713
201582
201448
201322
201194
201066
200939
200806
200665
200524
200385
200238
200093
202539
206490
206652
206367
209246
213665
217739
221294
225436
230122
234453
233919
233388
232860
232335
231816
231300
230787
230277
229765
229251
228735
228218
227700
227261
226979
226695
226282
225745
225198
224639
224068
223485
222891
222286
221669
221039
220396
219741
219082
218368
217767
216992
215936
724786
1.39266e+06
1.35541e+06
1.30702e+06
1.26409e+06
1.22183e+06
1.18152e+06
1.14345e+06
1.10671e+06
1.07193e+06
1.03873e+06
1.0067e+06
976354
947648
919827
893170
868011
843887
820650
798348
578898
271752
207056
206588
206168
205790
205449
205140
204859
204597
204357
204136
203936
203742
203564
203386
203218
203051
202886
202734
202576
202431
202283
202132
201987
201838
201692
201549
201407
201260
201114
200965
200807
200654
200501
202643
207177
212066
216482
220291
224086
228510
233178
236061
235496
234939
234384
233831
233282
232736
232190
231649
231112
230579
230044
229508
228972
228433
227894
227350
226802
226247
225900
225576
225231
224720
224141
223554
222956
222347
221727
221097
220456
219807
219148
218489
217779
217178
216404
215371
722905
1.38531e+06
1.34838e+06
1.30002e+06
1.25716e+06
1.21566e+06
1.17574e+06
1.13778e+06
1.1015e+06
1.06686e+06
1.03396e+06
1.00237e+06
972003
943320
916122
889882
864767
840699
817636
795582
642314
319279
208106
207596
207135
206717
206335
205985
205663
205363
205091
204835
204602
204376
204167
203965
203766
203580
203388
203213
203037
202865
202701
202532
202364
202203
202040
201875
201717
201561
201396
201234
201069
203397
209613
218731
223412
227484
232048
236683
237761
237174
236587
236008
235431
234853
234281
233712
233144
232579
232020
231464
230908
230353
229797
229239
228680
228119
227557
226991
226421
225847
225267
224762
224390
224021
223616
223053
222440
221820
221192
220553
219905
219249
218586
217927
217222
216628
215864
214855
726402
1.37733e+06
1.34094e+06
1.29296e+06
1.25008e+06
1.20892e+06
1.16962e+06
1.13193e+06
1.09584e+06
1.06165e+06
1.02903e+06
997594
967723
939214
911995
885894
861096
837378
814573
792712
706377
371926
209163
208601
208092
207628
207201
206805
206443
206106
205801
205511
205244
204992
204751
204527
204299
204089
203877
203669
203476
203280
203092
202910
202724
202539
202359
202182
202002
202647
206690
210819
214101
219198
229601
236096
240171
239549
238936
238325
237718
237118
236518
235920
235328
234739
234149
233561
232977
232394
231816
231240
230666
230092
229518
228946
228373
227795
227212
226626
226035
225443
224844
224239
223630
223146
222738
222329
221881
221328
220692
220048
219397
218739
218075
217413
216708
216114
215355
214368
724857
1.35085e+06
1.33299e+06
1.28545e+06
1.24288e+06
1.20193e+06
1.16311e+06
1.12571e+06
1.09012e+06
1.05592e+06
1.02369e+06
992967
962976
934594
907718
881980
857378
833806
811181
789562
768787
409558
210204
209577
209022
208514
208047
207610
207208
206831
206487
206165
205863
205586
205313
205064
204814
204573
204343
204108
203889
203677
203465
203259
203057
202856
206481
210529
214390
217324
220754
225089
230900
239151
241450
240800
240159
239520
238888
238265
237645
237028
236415
235805
235193
234585
233984
233383
232785
232189
231596
231003
230408
229814
229222
228630
228037
227443
226847
226248
225646
225037
224420
223799
223176
222549
221916
221412
220960
220514
220038
219533
218902
218246
217587
216932
216234
215643
214887
213919
696475
1.30436e+06
1.32473e+06
1.27754e+06
1.23541e+06
1.19471e+06
1.15613e+06
1.11933e+06
1.08407e+06
1.05025e+06
1.01807e+06
987431
958294
930259
903347
877630
853172
829893
807608
786264
765703
465491
223065
210556
209954
209400
208890
208413
207971
207557
207168
206813
206471
206164
205862
205579
205310
205037
204780
204528
204283
204048
207106
211035
215052
218123
221362
225509
229813
233222
232701
232344
238657
242106
241435
240766
240109
239460
238814
238171
237539
236910
236280
235652
235028
234406
233787
233170
232558
231946
231338
230732
230127
229523
228917
228311
227701
227090
226479
225866
225250
224628
224000
223369
222735
222098
221457
220812
220163
219594
219092
218606
218114
217585
217045
216459
215769
215185
214438
213493
686021
1.26377e+06
1.28409e+06
1.26928e+06
1.22766e+06
1.18727e+06
1.14892e+06
1.11251e+06
1.07776e+06
1.04425e+06
1.01234e+06
982039
952896
925190
898721
873329
849080
825970
803823
782642
762313
531062
255120
211522
210869
210266
209711
209196
208715
208269
207839
207448
207071
206724
206398
206079
205781
205487
208710
212495
216375
219603
222865
226821
230970
235197
235027
234478
233936
233410
232791
237936
242768
242072
241385
240706
240031
239363
238706
238052
237401
236754
236112
235471
234833
234200
233571
232943
232314
231687
231062
230436
229813
229193
228574
227956
227338
226719
226098
225473
224843
224208
223569
222930
222290
221647
221000
220351
219699
219044
218387
217725
217177
216643
216110
215591
215019
214521
213866
213059
686228
1.22396e+06
1.23992e+06
1.25298e+06
1.21951e+06
1.17951e+06
1.14163e+06
1.10531e+06
1.07099e+06
1.03817e+06
1.00639e+06
976232
947456
920151
893946
868744
844644
821737
799845
778867
758738
597619
300628
212464
211763
211112
210508
209955
209433
208954
208490
208060
207657
208077
211552
215137
218822
221995
225283
229126
233103
237178
237502
236925
236361
235786
235221
234668
234111
233562
237006
243457
242717
242010
241307
240611
239924
239243
238568
237899
237234
236572
235913
235260
234610
233963
233317
232678
232041
231407
230772
230135
229498
228862
228228
227594
226962
226331
225700
225065
224427
223784
223140
222495
221847
221198
220548
219897
219243
218586
217927
217265
216604
215943
215283
214675
214094
213596
212932
212119
686397
1.21857e+06
1.19792e+06
1.20428e+06
1.21106e+06
1.1715e+06
1.13401e+06
1.09823e+06
1.06392e+06
1.03121e+06
1.00029e+06
970582
941912
914697
888763
863914
840082
817373
795706
774943
755011
664906
354329
213404
212652
211959
211306
210710
210143
212800
215960
219249
222562
225644
228962
232627
236392
240250
240156
239551
238937
238336
237746
237147
236559
235979
235395
234819
234256
235858
242890
243378
242642
241915
241201
240491
239787
239091
238403
237718
237038
236363
235695
235030
234365
233705
233045
232391
231739
231090
230441
229794
229149
228506
227864
227224
226584
225942
225297
224649
224003
223357
222709
222058
221407
220756
220103
219448
218792
218136
217478
216818
216158
215499
214843
214196
213517
212938
212194
211282
686492
1.21296e+06
1.1805e+06
1.16193e+06
1.17042e+06
1.16297e+06
1.12608e+06
1.09067e+06
1.05685e+06
1.0246e+06
993541
964269
936141
909309
883634
858982
835314
812782
791347
770795
751066
732050
391227
214784
217135
219672
222380
225253
228062
231018
234234
237584
241052
243715
243050
242387
241732
241095
240447
239814
239191
238563
237950
237345
236735
236134
235544
234950
234520
241581
244041
243285
242540
241799
241067
240343
239627
238915
238209
237509
236817
236129
235446
234765
234089
233420
232755
232093
231430
230768
230107
229446
228787
228131
227479
226831
226183
225534
224883
224230
223577
222922
222267
221614
220963
220311
219657
219001
218345
217688
217030
216374
215720
215066
214414
213770
213096
212520
211784
210891
702882
1.21072e+06
1.17467e+06
1.1336e+06
1.12583e+06
1.13437e+06
1.11772e+06
1.08292e+06
1.04953e+06
1.01734e+06
986840
958029
930253
903633
878118
853722
830352
808410
787838
768363
749965
732572
459962
245568
236034
238635
241406
244328
247405
247040
246285
245540
244818
244102
243404
242726
242039
241371
240714
240051
239407
238768
238129
237504
236889
236266
235652
234973
240062
244721
243940
243168
242405
241651
240906
240167
239436
238710
237990
237278
236573
235873
235175
234481
233793
233111
232433
231758
231087
230418
229751
229084
228421
227757
227093
226430
225771
225113
224457
223800
223142
222483
221825
221168
220513
219860
219206
218553
217897
217240
216584
215931
215280
214630
213984
213347
212681
212110
211379
210502
724997
1.19938e+06
1.17655e+06
1.14216e+06
1.10355e+06
1.09606e+06
1.10197e+06
1.07837e+06
1.04553e+06
1.01407e+06
983896
955669
928972
903617
879416
856508
842925
835598
822869
807748
793812
781035
515858
266933
251797
250887
250013
249161
248337
247527
246741
245960
245202
244466
243733
243025
242321
241622
240942
240267
239592
238936
238289
237640
237003
236373
235741
238336
245401
244608
243808
243021
242245
241477
240715
239962
239216
238477
237746
237020
236300
235587
234880
234178
233482
232788
232101
231413
230728
230047
229370
228697
228024
227354
226686
226020
225354
224687
224021
223359
222699
222039
221381
220723
220068
219412
218754
218097
217442
216790
216140
215491
214841
214194
213552
212920
212262
211696
210973
210113
745344
1.21471e+06
1.18589e+06
1.14584e+06
1.11157e+06
1.07896e+06
1.07377e+06
1.07855e+06
1.05547e+06
1.02794e+06
1.00182e+06
977515
954749
933384
913214
894393
876965
858494
839799
821912
804722
788213
517661
266322
252471
251509
250589
249695
248834
247987
247164
246360
245561
244795
244044
243303
242571
241850
241141
240444
239759
239077
238409
237750
237092
236441
236427
244057
245289
244465
243650
242847
242056
241274
240499
239732
238974
238223
237478
236740
236007
235282
234561
233848
233143
232440
231741
231045
230358
229673
228988
228301
227617
226939
226266
225593
224921
224251
223583
222916
222248
221584
220925
220269
219614
218958
218302
217646
216992
216342
215693
215046
214402
213761
213123
212493
211838
211274
210558
209715
747868
1.21475e+06
1.18796e+06
1.15373e+06
1.12381e+06
1.09492e+06
1.06745e+06
1.05992e+06
1.06223e+06
1.03895e+06
1.01253e+06
987303
963224
940242
918052
896684
876196
856684
838048
820183
802961
786462
513661
265958
253113
252111
251149
250210
249306
248430
247561
246726
245906
245097
244323
243554
242778
242050
241328
240600
239891
239196
238505
237821
237149
236356
241935
245993
245137
244296
243467
242648
241839
241042
240256
239477
238703
237939
237183
236435
235691
234956
234228
233506
232786
232069
231358
230657
229962
229268
228578
227890
227206
226522
225839
225158
224481
223806
223134
222464
221795
221130
220467
219805
219145
218490
217838
217188
216538
215890
215244
214600
213960
213324
212690
212066
211417
211695
212363
212946
750255
1.21459e+06
1.18775e+06
1.15371e+06
1.12366e+06
1.09453e+06
1.06729e+06
1.041e+06
1.02987e+06
1.03103e+06
1.00984e+06
984867
960920
938001
915866
894585
874174
854732
836109
818275
801172
784576
510114
265772
253730
252683
251677
250706
249755
248843
247946
247064
246218
245383
244564
243790
243003
242212
241468
240732
239997
239275
238568
237868
237177
239631
246663
245835
244964
244106
243259
242425
241602
240791
239989
239196
238412
237636
236865
236104
235353
234610
233869
233135
232406
231686
230970
230259
229550
228846
228149
227456
226766
226080
225394
224710
224027
223344
222668
221997
221332
220668
220003
219340
218681
218025
217371
216719
216072
216446
217387
218307
219206
220085
220945
221801
222416
223032
223612
224094
752652
1.2143e+06
1.18719e+06
1.15336e+06
1.12341e+06
1.09421e+06
1.06685e+06
1.04038e+06
1.01519e+06
999114
999204
982263
958387
935513
913462
892279
871900
852549
834072
816170
799123
782764
507025
265706
254323
253235
252177
251172
250188
249227
248306
247396
246500
245642
244791
243977
242879
242380
241582
240822
240069
239327
238599
237885
237167
245260
246553
245651
244761
243884
243024
242175
241337
240511
239697
238892
238094
237305
236526
235760
235000
234246
233488
232740
232008
231279
230555
229838
229125
228416
227711
227009
226313
225621
224929
224240
223554
222875
222198
221523
220851
220504
221608
222692
223755
224793
225807
226799
227599
228311
229160
230067
230953
231821
232665
233503
234279
234235
233432
232283
755102
1.21385e+06
1.18642e+06
1.15282e+06
1.12285e+06
1.09352e+06
1.06612e+06
1.03986e+06
1.01459e+06
990392
967899
966673
955857
932838
910842
889836
869608
850169
831784
814115
796947
780597
504372
265842
254890
253761
252663
251604
250594
249600
248630
247696
246776
245877
245002
244139
243318
242507
241688
240895
240120
239357
238610
237840
242584
247300
246362
245443
244539
243644
242763
241898
241049
240212
239381
238561
237753
236955
236168
235386
234615
233852
233082
232338
231594
230856
230123
229396
228674
227960
227253
226550
225847
225146
225018
226276
227511
228723
229909
231071
232164
233058
233993
235050
236085
237099
238093
239066
240014
239845
239053
238269
237492
236721
235953
235196
234425
233718
232922
231787
757513
1.21316e+06
1.18557e+06
1.15174e+06
1.12211e+06
1.09292e+06
1.06517e+06
1.03876e+06
1.01357e+06
989531
966552
937512
933904
935455
908195
887133
867115
847924
829364
811691
794798
778450
502106
266081
255440
254253
253127
252024
250961
249942
248941
247961
247012
246087
245183
244294
243423
242595
241767
240948
240151
239367
238598
239762
247940
247102
246149
245212
244287
243376
242482
241605
240741
239886
239043
238214
237396
236583
235783
234989
234214
233453
232680
231905
231163
230422
229678
228965
230389
231791
233165
234511
235827
237062
238161
239305
240507
241682
242835
243968
245077
245815
244972
244136
243306
242483
241667
240858
240056
239264
238481
237702
236928
236159
235397
234648
233887
233185
232395
231275
759751
1.21218e+06
1.18455e+06
1.15076e+06
1.12093e+06
1.09172e+06
1.06418e+06
1.03773e+06
1.01254e+06
988479
965478
943601
922569
901346
900780
885616
864384
845304
827007
809295
792378
776174
500193
266372
255971
254736
253551
252420
251319
250251
249217
248209
247223
246265
245333
244415
243531
242674
241817
240976
240156
239351
238364
245265
247879
246889
245915
244953
244012
243090
242182
241287
240407
239542
238690
237846
237012
236190
235382
234583
233785
233861
236772
236999
238502
239998
241458
242776
244104
245469
246799
248101
249379
250634
251250
250362
249481
248608
247739
246878
246024
245179
244343
243515
242692
241873
241059
240252
239455
238670
237891
237116
236347
235585
234830
234086
233329
232629
231847
230744
761836
1.21089e+06
1.18333e+06
1.14935e+06
1.11949e+06
1.09069e+06
1.06294e+06
1.03636e+06
1.01114e+06
987205
964214
942267
921352
901265
872492
866597
867547
842587
824383
806819
789872
773784
498504
266765
256463
255195
253967
252786
251650
250546
249471
248431
247416
246425
245463
244526
243607
242717
241841
240981
240138
239308
242106
248602
247663
246651
245658
244683
243727
242786
241860
240952
240060
239182
238315
238302
240058
241783
243471
245131
246728
248275
249834
251345
252807
254248
255668
257036
256093
255156
254226
253306
252394
251490
250592
249705
248828
247958
247093
246233
245380
244537
243702
242872
242049
241235
240430
239633
238842
238058
237280
236510
235750
234997
234248
233509
232757
232060
231286
230199
763699
1.20909e+06
1.18178e+06
1.14814e+06
1.118e+06
1.08888e+06
1.06141e+06
1.03506e+06
1.00972e+06
985684
962882
941009
919943
899855
880401
861776
833580
832148
828840
804227
787489
771158
497065
267266
256950
255626
254360
253138
251957
250817
249708
248631
247586
246566
245573
244605
243664
242747
241847
240961
240094
238982
247675
248473
247420
246391
245382
244390
243415
242458
244107
246032
247916
249764
251580
253391
255161
256830
258465
260072
261643
262279
261255
260267
259280
258305
257338
256378
255429
254489
253559
252637
251723
250818
249923
249036
248154
247280
246416
245564
244721
243882
243046
242215
241396
240587
239786
238991
238205
237425
236653
235891
235136
234386
233642
232909
232166
231477
230712
229641
765522
1.20742e+06
1.17984e+06
1.14639e+06
1.11641e+06
1.08744e+06
1.05984e+06
1.03343e+06
1.0082e+06
984150
961299
939463
918401
898320
878912
860201
842280
822615
798504
797700
791828
768799
496001
267763
257418
256047
254732
253469
252248
251066
249923
248814
247736
246684
245662
244668
243697
242748
241823
240919
240031
244185
249316
248233
247332
249498
251616
253692
255726
257820
259915
261803
263632
265424
267172
267980
266884
265807
264744
263692
262649
261617
260606
259611
258615
257632
256660
255701
254750
253806
252871
251946
251034
250131
249236
248348
247466
246592
245729
244877
244031
243192
242362
241542
240731
239925
239122
238329
237547
236775
236012
235255
234503
233757
233018
232292
231557
230873
230116
229061
767312
1.20523e+06
1.17778e+06
1.14474e+06
1.1146e+06
1.08557e+06
1.05793e+06
1.03162e+06
1.00646e+06
982374
959522
937784
916787
896553
877116
858636
840756
823560
807191
787227
763543
763126
508157
268410
257861
256450
255088
253776
252516
251301
250120
248970
247860
246784
245731
244703
243705
242733
241784
240852
243373
256157
258908
261176
263611
266013
268076
270089
272049
273964
273096
271916
270752
269601
268464
267347
266246
265159
264084
263021
261977
260945
259926
258919
257921
256936
255964
255001
254045
253096
252163
251241
250328
249419
248520
247634
246759
245891
245030
244174
243326
242489
241664
240849
240040
239237
238440
237654
236877
236108
235347
234594
233849
233113
232382
231662
230931
230251
229502
228462
769227
1.20331e+06
1.1755e+06
1.14228e+06
1.11258e+06
1.08367e+06
1.05597e+06
1.02961e+06
1.00454e+06
980558
957705
935818
914860
894842
875376
856699
838964
821985
805441
789547
774448
756572
486966
269609
262079
257874
255419
254072
252768
251505
250288
249112
247970
246856
245770
245111
248015
250844
253603
256123
265611
273752
275981
278157
280111
278791
277493
276209
274945
273709
272498
271303
270122
268958
267819
266695
265582
264481
263398
262333
261285
260242
259214
258202
257208
256223
255244
254272
253314
252371
251439
250514
249597
248686
247790
246906
246030
245160
244299
243449
242610
241780
240957
240139
239330
238530
237742
236963
236189
235422
234665
233918
233180
232450
231725
231010
230288
229616
228877
227850
770956
1.20077e+06
1.17323e+06
1.14023e+06
1.11028e+06
1.08147e+06
1.05385e+06
1.0275e+06
1.00249e+06
978382
955599
933934
912878
892656
873425
854991
837051
819924
803609
787840
772585
741111
433830
273439
269035
264805
260737
256790
252991
251692
250443
249231
252463
255625
258695
261615
264512
267310
270039
274619
284787
283762
282331
280940
279578
278234
276909
275613
274345
273099
271867
270656
269469
268302
267150
266008
264885
263783
262698
261626
260564
259515
258485
257473
256472
255477
254494
253525
252571
251626
250689
249759
248843
247940
247050
246165
245283
244412
243553
242708
241873
241045
240225
239412
238609
237815
237028
236249
235479
234720
233973
233232
232498
231769
231048
230340
229629
228964
228232
227217
772785
1.19832e+06
1.17075e+06
1.13751e+06
1.10761e+06
1.07914e+06
1.05157e+06
1.02492e+06
1.00011e+06
976394
953425
931490
910719
890741
871293
852764
835097
818083
801535
785816
770832
692336
372080
273799
272238
270725
267640
263634
262301
263461
264558
266135
269505
272635
275672
278201
276895
275620
274384
281212
284727
283248
281806
280393
279005
277644
276311
275004
273718
272452
271210
269994
268798
267616
266447
265299
264174
263068
261971
260888
259821
258775
257744
256723
255710
254711
253731
252765
251806
250855
249915
248989
248078
247175
246282
245395
244518
243654
242800
241954
241117
240289
239473
238668
237871
237080
236295
235520
234757
234006
233262
232525
231795
231073
230361
229661
228955
228291
227563
226562
773940
1.19502e+06
1.16778e+06
1.1351e+06
1.10498e+06
1.07615e+06
1.04906e+06
1.0227e+06
997595
973752
951136
929372
908370
888321
869125
850725
832975
815956
799600
783887
768728
645195
337508
274109
272490
274672
278753
282702
286548
287735
288797
289850
286109
282397
279266
277905
276574
275267
276508
285326
284213
282716
281247
279809
278407
277037
275689
274361
273058
271785
270538
269307
268091
266897
265726
264578
263443
262322
261218
260133
259068
258014
256972
255945
254931
253937
252954
251982
251016
250064
249129
248209
247296
246388
245491
244605
243734
242873
242021
241178
240345
239524
238712
237908
237111
236323
235546
234780
234024
233274
232531
231797
231074