/*--------------------------------*- C++ -*----------------------------------*\
| =========                 |                                                 |
| \\      /  F ield         | foam-extend: Open Source CFD                    |
|  \\    /   O peration     | Version:     4.1                                |
|   \\  /    A nd           | Web:         http://www.foam-extend.org         |
|    \\/     M anipulation  |                                                 |
\*---------------------------------------------------------------------------*/
FoamFile
{
    version     2.0;
    format      ascii;
    class       regIOobject;
    location    "1/uniform";
    object      profilingInfo;
}
// * * * * * * * * * * * * * * * * * * * * * * * * * * * * * * * * * * * * * //

profilingInfo
(

    {
        id              9;
        parentId        8;
        description     "Foam::Time::writeObject - outputTime";
        calls           1;
        totalTime       0.66536;
        childTime       0;
        onStack         1;
    }

    {
        id              8;
        parentId        1;
        description     "Foam::Time::writeObject";
        calls           1;
        totalTime       0.66553;
        childTime       0.66536;
        onStack         1;
    }

    {
        id              1;
        description     "application::main";
        calls           1;
        totalTime       46.3357;
        childTime       32.5163;
        onStack         1;
    }

    {
        id              3;
        parentId        2;
        description     "FO::forceDisp1::start";
        calls           1;
        totalTime       4.9e-05;
        childTime       0;
        onStack         0;
    }

    {
        id              4;
        parentId        2;
        description     "FO::pointDisp::start";
        calls           1;
        totalTime       3e-06;
        childTime       0;
        onStack         0;
    }

    {
        id              2;
        parentId        1;
        description     "functionObjectList::read";
        calls           1;
        totalTime       0.001127;
        childTime       5.2e-05;
        onStack         0;
    }

    {
        id              5;
        parentId        1;
        description     "fvMatrix::solve_D";
        calls           122;
        totalTime       31.8496;
        childTime       31.5575;
        onStack         0;
    }

    {
        id              6;
        parentId        5;
        description     "lduMatrix::solver_Dx";
        calls           122;
        totalTime       15.963;
        childTime       0;
        onStack         0;
    }

    {
        id              7;
        parentId        5;
        description     "lduMatrix::solver_Dy";
        calls           122;
        totalTime       15.5944;
        childTime       0;
        onStack         0;
    }
);


// ************************************************************************* //
