/*--------------------------------*- C++ -*----------------------------------*\
| =========                 |                                                 |
| \\      /  F ield         | foam-extend: Open Source CFD                    |
|  \\    /   O peration     | Version:     4.1                                |
|   \\  /    A nd           | Web:         http://www.foam-extend.org         |
|    \\/     M anipulation  |                                                 |
\*---------------------------------------------------------------------------*/
FoamFile
{
    version     2.0;
    format      ascii;
    class       vectorField;
    location    "1";
    object      residualD_iteration12;
}
// * * * * * * * * * * * * * * * * * * * * * * * * * * * * * * * * * * * * * //


1000
(
(0.00587297 -0.00631642 0)
(0.00503741 -0.00559762 0)
(0.00440835 -0.00502148 0)
(0.00394897 -0.00461341 0)
(0.0036057 -0.00428846 0)
(0.00333611 -0.00403059 0)
(0.00312687 -0.003813 0)
(0.00296088 -0.00361512 0)
(0.00282503 -0.00344447 0)
(0.00281736 -0.00325779 0)
(0.00522539 -0.00689514 0)
(0.00434779 -0.00628482 0)
(0.00370385 -0.00576863 0)
(0.00323725 -0.00539366 0)
(0.0029001 -0.00508482 0)
(0.00265055 -0.00483456 0)
(0.00246713 -0.00461904 0)
(0.00233504 -0.0044264 0)
(0.00224304 -0.00426314 0)
(0.0022298 -0.00407915 0)
(0.00458684 -0.00744654 0)
(0.00369911 -0.00695728 0)
(0.00305447 -0.00651717 0)
(0.00259638 -0.00618925 0)
(0.00227146 -0.00591156 0)
(0.00204003 -0.0056818 0)
(0.0018761 -0.0054797 0)
(0.00175984 -0.00530272 0)
(0.00168106 -0.00515526 0)
(0.00166531 -0.00499312 0)
(0.00394823 -0.00795906 0)
(0.00308619 -0.00760095 0)
(0.00246548 -0.00724543 0)
(0.00203185 -0.00697219 0)
(0.00172846 -0.00672865 0)
(0.00151499 -0.00652228 0)
(0.00136603 -0.00633876 0)
(0.00126018 -0.00618029 0)
(0.00118818 -0.00604642 0)
(0.00116416 -0.00590706 0)
(0.00331908 -0.00842374 0)
(0.00251195 -0.00819879 0)
(0.00193931 -0.00792632 0)
(0.00154427 -0.00770847 0)
(0.00126854 -0.00750318 0)
(0.00107647 -0.00732399 0)
(0.000944005 -0.00716113 0)
(0.000852291 -0.00702132 0)
(0.000787297 -0.00690186 0)
(0.000759407 -0.00678106 0)
(0.00269714 -0.00883088 0)
(0.00198422 -0.00873304 0)
(0.00148016 -0.00854204 0)
(0.00113368 -0.00837645 0)
(0.000894324 -0.00820547 0)
(0.000731459 -0.00805148 0)
(0.000616967 -0.00790923 0)
(0.000536844 -0.00778523 0)
(0.000479157 -0.00767846 0)
(0.000450848 -0.00757456 0)
(0.00208657 -0.00917094 0)
(0.00149603 -0.00918323 0)
(0.00107976 -0.00906399 0)
(0.000796192 -0.00894735 0)
(0.000602619 -0.00880835 0)
(0.000469755 -0.00867513 0)
(0.000375522 -0.00854924 0)
(0.000309967 -0.00843773 0)
(0.000262961 -0.00834085 0)
(0.000237622 -0.0082508 0)
(0.00148308 -0.00943566 0)
(0.00104362 -0.00953782 0)
(0.000733097 -0.00947699 0)
(0.000520401 -0.00939881 0)
(0.000377386 -0.00928359 0)
(0.000279097 -0.00916887 0)
(0.000209251 -0.00905781 0)
(0.000160008 -0.00895708 0)
(0.00012483 -0.00886801 0)
(0.000105354 -0.00878919 0)
(0.000887264 -0.00961714 0)
(0.00061412 -0.00978144 0)
(0.000422479 -0.00976068 0)
(0.000293102 -0.00970866 0)
(0.000205727 -0.00961083 0)
(0.000144114 -0.00950942 0)
(0.000100334 -0.00940753 0)
(7.04944e-05 -0.00931292 0)
(4.97345e-05 -0.0092285 0)
(3.75899e-05 -0.0091572 0)
(0.000296408 -0.00970772 0)
(0.000204983 -0.00990403 0)
(0.000139563 -0.00990534 0)
(9.4125e-05 -0.00986813 0)
(6.43338e-05 -0.00977982 0)
(4.47105e-05 -0.00968553 0)
(2.99917e-05 -0.009588 0)
(1.93226e-05 -0.00949646 0)
(1.23135e-05 -0.00941487 0)
(8.44844e-06 -0.00934804 0)
(0.0101452 -0.000288361 0)
(0.0103084 -0.000195038 0)
(0.0102974 -0.000129934 0)
(0.0102386 -8.52295e-05 0)
(0.0101381 -5.39695e-05 0)
(0.0100279 -3.26187e-05 0)
(0.00991516 -1.83927e-05 0)
(0.00981134 -7.32477e-06 0)
(0.00971512 1.5062e-06 0)
(0.00962641 8.60753e-06 0)
(0.0100415 -0.000866904 0)
(0.0101746 -0.000591771 0)
(0.0101441 -0.000397602 0)
(0.0100724 -0.000267504 0)
(0.00996272 -0.000177613 0)
(0.00984869 -0.000113284 0)
(0.00973022 -6.78318e-05 0)
(0.00962179 -3.48939e-05 0)
(0.00952482 -1.04451e-05 0)
(0.00943089 1.07253e-05 0)
(0.00985064 -0.00144945 0)
(0.00991966 -0.00100604 0)
(0.0098482 -0.000691401 0)
(0.00975016 -0.000480282 0)
(0.00962182 -0.000333375 0)
(0.00949487 -0.000228691 0)
(0.00936912 -0.000155267 0)
(0.00925657 -0.000100665 0)
(0.00915391 -6.07663e-05 0)
(0.0090511 -2.738e-05 0)
(0.00956905 -0.00203977 0)
(0.00954595 -0.00144795 0)
(0.0094173 -0.00102596 0)
(0.00927995 -0.00074278 0)
(0.00912951 -0.000546292 0)
(0.00898778 -0.000404676 0)
(0.00884805 -0.000306053 0)
(0.00872369 -0.000232159 0)
(0.00861218 -0.000173526 0)
(0.00849464 -0.000125944 0)
(0.00920711 -0.00263801 0)
(0.00906845 -0.00192499 0)
(0.00886872 -0.00141377 0)
(0.00868538 -0.00106913 0)
(0.00850477 -0.00083124 0)
(0.00834116 -0.000660064 0)
(0.00818712 -0.000537392 0)
(0.00805079 -0.000443624 0)
(0.00792934 -0.000366763 0)
(0.00779242 -0.000306372 0)
(0.00876968 -0.00324595 0)
(0.00850436 -0.00244434 0)
(0.00822358 -0.00186631 0)
(0.00798631 -0.00147444 0)
(0.00777153 -0.00120109 0)
(0.00758358 -0.00100359 0)
(0.00741087 -0.000860727 0)
(0.00725879 -0.000751748 0)
(0.00712403 -0.000661078 0)
(0.00696276 -0.000589184 0)
(0.00826839 -0.00386082 0)
(0.00786907 -0.00300597 0)
(0.00750302 -0.00238421 0)
(0.00720802 -0.00195894 0)
(0.00695662 -0.00165888 0)
(0.00674342 -0.00144159 0)
(0.00655075 -0.00128322 0)
(0.00638177 -0.00116146 0)
(0.00623387 -0.00105717 0)
(0.00604507 -0.000973002 0)
(0.00771544 -0.00448058 0)
(0.00718467 -0.00360849 0)
(0.00673837 -0.00296619 0)
(0.00638788 -0.00252452 0)
(0.00610146 -0.00220782 0)
(0.00586284 -0.00197758 0)
(0.00565161 -0.00180932 0)
(0.00546173 -0.00167915 0)
(0.00529569 -0.00156393 0)
(0.00507541 -0.00147074 0)
(0.00712271 -0.00510131 0)
(0.00647086 -0.00424616 0)
(0.00594721 -0.00360657 0)
(0.00554727 -0.0031632 0)
(0.00522723 -0.00283772 0)
(0.00496463 -0.00259751 0)
(0.004739 -0.00242058 0)
(0.00453372 -0.00228403 0)
(0.00435928 -0.0021658 0)
(0.00412422 -0.00206904 0)
(0.00650296 -0.00571781 0)
(0.00575052 -0.00491516 0)
(0.00516339 -0.00429686 0)
(0.0047269 -0.00386286 0)
(0.00438553 -0.00353384 0)
(0.0041093 -0.00328435 0)
(0.00387511 -0.003092 0)
(0.00365176 -0.00293852 0)
(0.00345407 -0.00279719 0)
(0.0032298 -0.0026922 0)
(0.00955987 1.31276e-05 0)
(0.00949359 2.12375e-05 0)
(0.00943437 2.70603e-05 0)
(0.00938328 3.20239e-05 0)
(0.00933741 3.59025e-05 0)
(0.0092945 3.96853e-05 0)
(0.00925504 4.45417e-05 0)
(0.00922094 5.04374e-05 0)
(0.00918981 5.74706e-05 0)
(0.00915741 6.51898e-05 0)
(0.00912374 7.3299e-05 0)
(0.00908962 8.23947e-05 0)
(0.00905261 9.35299e-05 0)
(0.00901006 0.00010704 0)
(0.00896008 0.000122639 0)
(0.00890097 0.000140084 0)
(0.0088297 0.000159427 0)
(0.00874215 0.000180997 0)
(0.00863752 0.000205137 0)
(0.00850562 0.000232903 0)
(0.00937276 2.68731e-05 0)
(0.00932485 5.35991e-05 0)
(0.00928127 7.11856e-05 0)
(0.00924238 8.63659e-05 0)
(0.00920608 0.000100233 0)
(0.00917274 0.000113147 0)
(0.00914233 0.000127866 0)
(0.00911386 0.000145676 0)
(0.00908595 0.000166607 0)
(0.00905628 0.000189437 0)
(0.00902526 0.000214207 0)
(0.00899249 0.000242271 0)
(0.0089562 0.000275403 0)
(0.00891502 0.00031449 0)
(0.00886771 0.000359749 0)
(0.00881213 0.000411733 0)
(0.00874412 0.000470856 0)
(0.00865937 0.000537682 0)
(0.00855909 0.000614219 0)
(0.00842978 0.000700962 0)
(0.00901248 3.6601e-06 0)
(0.00899712 5.38319e-05 0)
(0.00897893 8.6766e-05 0)
(0.00896361 0.000114373 0)
(0.00894739 0.000140271 0)
(0.00892819 0.000165654 0)
(0.00890836 0.00019476 0)
(0.00888902 0.000227839 0)
(0.00887018 0.00026356 0)
(0.00884774 0.000301435 0)
(0.00882254 0.000343348 0)
(0.00879391 0.00039172 0)
(0.00876093 0.000448043 0)
(0.00872313 0.000512625 0)
(0.00867877 0.00058602 0)
(0.00862447 0.000670107 0)
(0.00855845 0.000766621 0)
(0.00847723 0.000877334 0)
(0.00838169 0.00100728 0)
(0.00825877 0.00115557 0)
(0.00848427 -7.55202e-05 0)
(0.00851896 1.95933e-06 0)
(0.00854091 5.52903e-05 0)
(0.00855874 0.000101726 0)
(0.00856943 0.000146602 0)
(0.0085728 0.000190354 0)
(0.00857228 0.000237319 0)
(0.00856728 0.000286667 0)
(0.00855858 0.000337949 0)
(0.00854427 0.000393328 0)
(0.00852683 0.000455372 0)
(0.00850541 0.000525734 0)
(0.00847866 0.000605175 0)
(0.0084463 0.000694789 0)
(0.00840677 0.000796563 0)
(0.00835622 0.000912473 0)
(0.00829478 0.00104466 0)
(0.00821863 0.00119715 0)
(0.00812907 0.00137687 0)
(0.00801523 0.00158273 0)
(0.00781354 -0.000231055 0)
(0.00790611 -0.00011892 0)
(0.00797511 -3.63403e-05 0)
(0.00803519 3.77564e-05 0)
(0.00808135 0.00010861 0)
(0.00811358 0.000174762 0)
(0.00813459 0.000243168 0)
(0.00814778 0.000313261 0)
(0.00815305 0.000385055 0)
(0.00815029 0.000461342 0)
(0.00814197 0.000544452 0)
(0.008128 0.000636108 0)
(0.0081079 0.000737681 0)
(0.00808125 0.00085162 0)
(0.00804673 0.000981261 0)
(0.00800314 0.00112872 0)
(0.00794765 0.0012964 0)
(0.00788106 0.00149015 0)
(0.00779932 0.00171882 0)
(0.00769599 0.00198029 0)
(0.00701868 -0.000480001 0)
(0.00717954 -0.000321935 0)
(0.00730343 -0.000199 0)
(0.00741035 -8.85552e-05 0)
(0.00749293 1.60507e-05 0)
(0.00755733 0.000112576 0)
(0.00760429 0.000209569 0)
(0.0076398 0.000304835 0)
(0.00766348 0.000399669 0)
(0.0076768 0.000498394 0)
(0.00768093 0.000603978 0)
(0.00767611 0.000718439 0)
(0.00766382 0.000843714 0)
(0.00764426 0.000982901 0)
(0.00761505 0.00113924 0)
(0.00757845 0.00131551 0)
(0.00752926 0.00151676 0)
(0.00747013 0.00174948 0)
(0.00739663 0.0020247 0)
(0.00730466 0.00233985 0)
(0.00613044 -0.000824798 0)
(0.00635788 -0.00061674 0)
(0.00653614 -0.00044621 0)
(0.00669006 -0.000289253 0)
(0.00681306 -0.000142396 0)
(0.00691048 -7.3411e-06 0)
(0.00698916 0.000122912 0)
(0.00705018 0.000247667 0)
(0.0070944 0.00037087 0)
(0.00712444 0.000496922 0)
(0.00714254 0.000628839 0)
(0.00714973 0.000768488 0)
(0.00714778 0.000918268 0)
(0.00713706 0.00108235 0)
(0.00711623 0.00126438 0)
(0.00708698 0.00146822 0)
(0.00704399 0.00170206 0)
(0.00699179 0.00197215 0)
(0.00692677 0.00228974 0)
(0.00684839 0.00265262 0)
(0.00517738 -0.00127123 0)
(0.00546352 -0.000999008 0)
(0.00569669 -0.000765474 0)
(0.00589382 -0.000550855 0)
(0.00605907 -0.000357672 0)
(0.00618865 -0.000179439 0)
(0.00629735 -1.16316e-05 0)
(0.00638306 0.000146829 0)
(0.0064495 0.000301625 0)
(0.00649858 0.000457089 0)
(0.00653325 0.000616344 0)
(0.00655608 0.000781513 0)
(0.00656857 0.000956014 0)
(0.00656886 0.0011451 0)
(0.00655751 0.00135324 0)
(0.00653635 0.00158538 0)
(0.00650014 0.00185024 0)
(0.0064569 0.00215434 0)
(0.00640158 0.00250934 0)
(0.00633796 0.00291277 0)
(0.00421462 -0.00181066 0)
(0.00453071 -0.00148103 0)
(0.00479854 -0.00118758 0)
(0.00502591 -0.000912511 0)
(0.00522018 -0.000662457 0)
(0.00538133 -0.000431645 0)
(0.00551788 -0.000217566 0)
(0.00562988 -1.66305e-05 0)
(0.0057214 0.000175887 0)
(0.00579446 0.000364808 0)
(0.0058512 0.000554034 0)
(0.00589407 0.000746791 0)
(0.0059242 0.000948204 0)
(0.00593909 0.0011643 0)
(0.00594137 0.00139966 0)
(0.00593239 0.0016609 0)
(0.00590743 0.00195593 0)
(0.00587634 0.00229121 0)
(0.00583387 0.00267809 0)
(0.00578619 0.00311483 0)
(0.00325323 -0.00241294 0)
(0.003553 -0.00202314 0)
(0.00382202 -0.00165522 0)
(0.00406715 -0.00131204 0)
(0.00428204 -0.00100499 0)
(0.00447202 -0.000724477 0)
(0.00463638 -0.00046689 0)
(0.00477785 -0.000226007 0)
(0.00489872 2.63235e-06 0)
(0.00500078 0.00022444 0)
(0.00508532 0.000444075 0)
(0.00515442 0.000665387 0)
(0.00520847 0.000894425 0)
(0.00524512 0.00113772 0)
(0.00526906 0.00140014 0)
(0.00527976 0.00168966 0)
(0.00527561 0.00201313 0)
(0.00526446 0.00237739 0)
(0.00524166 0.00279182 0)
(0.00521301 0.00325584 0)
(0.00283971 -0.00276492 0)
(0.00297821 -0.00240982 0)
(0.00315843 -0.00202906 0)
(0.00335737 -0.00165701 0)
(0.00355696 -0.00131652 0)
(0.0037477 -0.00100122 0)
(0.00392108 -0.00070864 0)
(0.0040759 -0.000434408 0)
(0.00421208 -0.000174133 0)
(0.00432977 7.75967e-05 0)
(0.00442903 0.000325683 0)
(0.00451218 0.000574131 0)
(0.00457918 0.000829173 0)
(0.00462767 0.00109746 0)
(0.00466468 0.00138386 0)
(0.00468765 0.00169709 0)
(0.0046982 0.00204218 0)
(0.00470139 0.00242752 0)
(0.00469425 0.002861 0)
(0.00467984 0.00334106 0)
(0.00247915 -0.00289099 0)
(0.00262939 -0.00255212 0)
(0.0027969 -0.00219947 0)
(0.00297321 -0.00184167 0)
(0.00314767 -0.00149961 0)
(0.00331649 -0.00117298 0)
(0.00347281 -0.000863757 0)
(0.00361431 -0.000570149 0)
(0.00374042 -0.000288594 0)
(0.00385017 -1.46976e-05 0)
(0.00394255 0.000255421 0)
(0.00401976 0.00052535 0)
(0.00408115 0.000801234 0)
(0.00412511 0.00108906 0)
(0.00415955 0.00139345 0)
(0.00418043 0.00172375 0)
(0.00419144 0.00208266 0)
(0.00419491 0.00248001 0)
(0.0041908 0.00292321 0)
(0.00418112 0.00340619 0)
(0.00204395 -0.00309599 0)
(0.00221562 -0.00271829 0)
(0.0023855 -0.00235383 0)
(0.00255402 -0.00199361 0)
(0.00271556 -0.00164626 0)
(0.00287101 -0.00131076 0)
(0.0030141 -0.000989363 0)
(0.00314385 -0.000680588 0)
(0.00326025 -0.000381898 0)
(0.00336166 -8.97266e-05 0)
(0.00344686 0.000198785 0)
(0.00351858 0.000486731 0)
(0.00357543 0.000780306 0)
(0.00361652 0.0010845 0)
(0.0036498 0.00140325 0)
(0.00367022 0.00174666 0)
(0.00368306 0.00211616 0)
(0.00368802 0.00252196 0)
(0.00368812 0.00296974 0)
(0.0036863 0.00344907 0)
(0.00160902 -0.00331708 0)
(0.00179524 -0.00291246 0)
(0.00196817 -0.0025311 0)
(0.00213236 -0.00215794 0)
(0.00228455 -0.00179799 0)
(0.00242922 -0.0014499 0)
(0.00256044 -0.00111401 0)
(0.00267956 -0.000789336 0)
(0.00278666 -0.000474061 0)
(0.00287963 -0.000164802 0)
(0.00295756 0.000140538 0)
(0.00302388 0.000444809 0)
(0.00307649 0.000754528 0)
(0.00311506 0.00107348 0)
(0.00314698 0.00140513 0)
(0.0031664 0.00175948 0)
(0.00318075 0.00213746 0)
(0.00318757 0.00254929 0)
(0.0031922 0.00299703 0)
(0.00319933 0.00347044 0)
(0.00120953 -0.00352406 0)
(0.00139313 -0.00309697 0)
(0.00156341 -0.00269774 0)
(0.00172115 -0.00231092 0)
(0.00186644 -0.00193894 0)
(0.00200155 -0.00157885 0)
(0.00212273 -0.00122908 0)
(0.00223222 -0.000889988 0)
(0.00233024 -0.000559899 0)
(0.00241465 -0.000235303 0)
(0.00248512 8.50726e-05 0)
(0.00254547 0.000403886 0)
(0.00259297 0.000728086 0)
(0.00262819 0.00105995 0)
(0.00265748 0.00140301 0)
(0.00267472 0.00176635 0)
(0.00268937 0.00215044 0)
(0.00269806 0.00256479 0)
(0.00270772 0.00300827 0)
(0.00272229 0.00347649 0)
(0.000846448 -0.003722 0)
(0.00101895 -0.0032784 0)
(0.00118026 -0.00286179 0)
(0.00132966 -0.00245974 0)
(0.00146669 -0.00207434 0)
(0.00159142 -0.00170039 0)
(0.00170264 -0.00133637 0)
(0.00180232 -0.000983367 0)
(0.00189092 -0.000639293 0)
(0.00196643 -0.000300342 0)
(0.00202907 3.39338e-05 0)
(0.00208265 0.000366087 0)
(0.00212371 0.00070343 0)
(0.00215429 0.0010466 0)
(0.00217961 0.00139954 0)
(0.00219422 0.00176962 0)
(0.00220851 0.00215705 0)
(0.00221888 0.00257024 0)
(0.00223315 0.00300791 0)
(0.00225174 0.00347149 0)
(0.00051777 -0.00389902 0)
(0.000673692 -0.00344565 0)
(0.000821018 -0.00301591 0)
(0.000959784 -0.00260062 0)
(0.00108555 -0.00220174 0)
(0.00119903 -0.00181363 0)
(0.00129938 -0.00143591 0)
(0.00138842 -0.00106961 0)
(0.00146699 -0.000712265 0)
(0.00153313 -0.00035969 0)
(0.00158743 -1.22998e-05 0)
(0.00163348 0.000332361 0)
(0.00166713 0.000681493 0)
(0.00169217 0.00103417 0)
(0.00171279 0.00139494 0)
(0.00172477 0.00176916 0)
(0.0017384 0.00215715 0)
(0.00174973 0.00256666 0)
(0.00176635 0.0029993 0)
(0.00178642 0.00345394 0)
(0.000218352 -0.00405576 0)
(0.000354783 -0.00359733 0)
(0.000484739 -0.00315728 0)
(0.00060882 -0.00273012 0)
(0.000720474 -0.00231766 0)
(0.00082133 -0.00191625 0)
(0.000909486 -0.00152588 0)
(0.000987236 -0.00114723 0)
(0.00105552 -0.000777712 0)
(0.00111233 -0.000412562 0)
(0.0011584 -5.3105e-05 0)
(0.00119686 0.000303043 0)
(0.00122323 0.000662335 0)
(0.00124285 0.00102246 0)
(0.00125928 0.00138862 0)
(0.00126919 0.00176452 0)
(0.00128201 0.00215119 0)
(0.00129348 0.00255625 0)
(0.00131004 0.0029834 0)
(0.00133303 0.00342278 0)
(-5.51717e-05 -0.00419179 0)
(5.86385e-05 -0.00373095 0)
(0.000168262 -0.00328268 0)
(0.000273705 -0.00284523 0)
(0.000369667 -0.00242092 0)
(0.000456442 -0.00200831 0)
(0.000531723 -0.0016068 0)
(0.000598411 -0.00121699 0)
(0.000656707 -0.000836484 0)
(0.000704691 -0.000459857 0)
(0.000743078 -8.94297e-05 0)
(0.000774572 0.000277126 0)
(0.000794762 0.000644992 0)
(0.000809868 0.00101075 0)
(0.000822861 0.00138026 0)
(0.000830878 0.00175651 0)
(0.0008422 0.00214125 0)
(0.000853033 0.00254215 0)
(0.000869005 0.0029596 0)
(0.00089778 0.00338304 0)
(-0.000307548 -0.00430733 0)
(-0.000218206 -0.00384463 0)
(-0.000130802 -0.00339025 0)
(-4.5575e-05 -0.0029449 0)
(3.38089e-05 -0.0025118 0)
(0.000105641 -0.00209013 0)
(0.00016794 -0.00167893 0)
(0.000224009 -0.00127886 0)
(0.000272341 -0.000888037 0)
(0.000311485 -0.000500809 0)
(0.000342191 -0.000120457 0)
(0.000367035 0.000255277 0)
(0.000381885 0.00063022 0)
(0.000393031 0.0010002 0)
(0.000402627 0.00137169 0)
(0.000407854 0.0017477 0)
(0.000416597 0.00212992 0)
(0.000425961 0.00252523 0)
(0.000443082 0.00292805 0)
(0.000475805 0.00333861 0)
(-0.000545657 -0.00440268 0)
(-0.000480902 -0.00393816 0)
(-0.000415642 -0.00348011 0)
(-0.000350313 -0.00302969 0)
(-0.000288214 -0.00259018 0)
(-0.000231764 -0.00216072 0)
(-0.000182959 -0.00174075 0)
(-0.000137953 -0.00133103 0)
(-0.000100178 -0.000930195 0)
(-7.03141e-05 -0.000533676 0)
(-4.73876e-05 -0.000145157 0)
(-2.87466e-05 0.000237575 0)
(-1.8467e-05 0.000617465 0)
(-1.08272e-05 0.000990241 0)
(-4.47827e-06 0.00136286 0)
(-2.48372e-06 0.00173803 0)
(3.77145e-06 0.00211633 0)
(1.18733e-05 0.00250218 0)
(3.18615e-05 0.00289055 0)
(6.32396e-05 0.00328598 0)
(-0.000776052 -0.00447866 0)
(-0.000734445 -0.004014 0)
(-0.000690391 -0.0035541 0)
(-0.000645006 -0.00310039 0)
(-0.000601019 -0.00265536 0)
(-0.000560542 -0.00221885 0)
(-0.000526015 -0.00179126 0)
(-0.000492864 -0.0013736 0)
(-0.000465198 -0.000963909 0)
(-0.000443797 -0.000560347 0)
(-0.000427317 -0.000166008 0)
(-0.00041329 0.000221482 0)
(-0.000406183 0.00060475 0)
(-0.00040114 0.000979923 0)
(-0.000397236 0.00135393 0)
(-0.00039741 0.00172787 0)
(-0.000392077 0.00210062 0)
(-0.000383278 0.00247437 0)
(-0.000362055 0.00285222 0)
(-0.000331646 0.00322801 0)
(-0.00100435 -0.00453768 0)
(-0.000983964 -0.00407484 0)
(-0.000961106 -0.00361356 0)
(-0.000936037 -0.00315704 0)
(-0.000909998 -0.00270737 0)
(-0.000885204 -0.00226541 0)
(-0.000863954 -0.00183193 0)
(-0.000842524 -0.00140905 0)
(-0.000823052 -0.000992162 0)
(-0.000808206 -0.000582854 0)
(-0.000796415 -0.000183672 0)
(-0.000785851 0.000208093 0)
(-0.000781607 0.000594737 0)
(-0.000779298 0.000972422 0)
(-0.000777774 0.00134727 0)
(-0.000779023 0.00171843 0)
(-0.000773589 0.00208363 0)
(-0.000763143 0.00244671 0)
(-0.00074487 0.00281231 0)
(-0.000710881 0.00317017 0)
(-0.00123575 -0.004582 0)
(-0.00123641 -0.00412048 0)
(-0.00123457 -0.0036581 0)
(-0.00122828 -0.00319981 0)
(-0.00121788 -0.00274753 0)
(-0.0012074 -0.002302 0)
(-0.00119716 -0.00186331 0)
(-0.00118724 -0.00143589 0)
(-0.00117553 -0.00101359 0)
(-0.00116662 -0.000599564 0)
(-0.00115914 -0.000196957 0)
(-0.00115193 0.000197647 0)
(-0.00115042 0.000586721 0)
(-0.00115011 0.000965919 0)
(-0.00114939 0.00133972 0)
(-0.00114971 0.00170617 0)
(-0.00114308 0.00206322 0)
(-0.00113296 0.00241895 0)
(-0.0011172 0.00276665 0)
(-0.00108214 0.00310678 0)
(-0.00147722 -0.00461179 0)
(-0.00149924 -0.00415095 0)
(-0.00151544 -0.00368901 0)
(-0.00152478 -0.00323079 0)
(-0.0015279 -0.00277689 0)
(-0.00153124 -0.00232794 0)
(-0.00153136 -0.00188546 0)
(-0.00153112 -0.00145464 0)
(-0.00152602 -0.00103141 0)
(-0.00152085 -0.000615296 0)
(-0.0015153 -0.000209299 0)
(-0.00150936 0.000189099 0)
(-0.00150831 0.000581028 0)
(-0.00150691 0.000960938 0)
(-0.0015035 0.00133253 0)
(-0.00150116 0.00169459 0)
(-0.00149321 0.00204614 0)
(-0.00148548 0.00239295 0)
(-0.00146671 0.00272374 0)
(-0.0014339 0.003042 0)
(-0.00173459 -0.0046256 0)
(-0.00177527 -0.00416967 0)
(-0.00180633 -0.00370969 0)
(-0.00182962 -0.00325168 0)
(-0.00184622 -0.00279682 0)
(-0.00186093 -0.00234544 0)
(-0.0018699 -0.00190252 0)
(-0.00187409 -0.00146915 0)
(-0.0018729 -0.00104467 0)
(-0.00187138 -0.000626951 0)
(-0.00186878 -0.000218545 0)
(-0.00186393 0.000182064 0)
(-0.0018612 0.000574793 0)
(-0.0018558 0.000953881 0)
(-0.00184769 0.00132377 0)
(-0.00184237 0.00168364 0)
(-0.0018337 0.00203207 0)
(-0.00182532 0.00236446 0)
(-0.00180344 0.00268019 0)
(-0.00176878 0.00297713 0)
(-0.00201182 -0.00463094 0)
(-0.00206707 -0.00417776 0)
(-0.00211301 -0.00371932 0)
(-0.00214874 -0.00326199 0)
(-0.00217836 -0.00280801 0)
(-0.00220069 -0.00235754 0)
(-0.00221675 -0.00191525 0)
(-0.00222399 -0.00148218 0)
(-0.00222487 -0.00105643 0)
(-0.00222494 -0.000636607 0)
(-0.00222233 -0.000226651 0)
(-0.0022144 0.000173912 0)
(-0.00220565 0.000565383 0)
(-0.00219357 0.000943878 0)
(-0.00218082 0.00131493 0)
(-0.00217196 0.00167459 0)
(-0.0021588 0.00201595 0)
(-0.00214055 0.00233541 0)
(-0.00212007 0.00263696 0)
(-0.00209109 0.0029139 0)
(-0.00231264 -0.00462736 0)
(-0.0023821 -0.00417479 0)
(-0.00244133 -0.00371998 0)
(-0.00248849 -0.003266 0)
(-0.00252525 -0.00281249 0)
(-0.00255241 -0.00236454 0)
(-0.00257114 -0.00192437 0)
(-0.00258084 -0.00149242 0)
(-0.00258377 -0.00106561 0)
(-0.00258333 -0.000645431 0)
(-0.00257557 -0.000237478 0)
(-0.00255945 0.000161351 0)
(-0.00254388 0.000554274 0)
(-0.00252697 0.000935021 0)
(-0.00250673 0.00130465 0)
(-0.00248462 0.00166098 0)
(-0.00245892 0.00199603 0)
(-0.00243673 0.00231383 0)
(-0.00241546 0.00260078 0)
(-0.00238068 0.00285162 0)
(-0.00264491 -0.00461165 0)
(-0.00272892 -0.00416348 0)
(-0.00279818 -0.00371384 0)
(-0.00285433 -0.00326434 0)
(-0.00289395 -0.00281681 0)
(-0.00292217 -0.00237111 0)
(-0.00294265 -0.00193165 0)
(-0.00295425 -0.00150125 0)
(-0.00295467 -0.00107811 0)
(-0.00294634 -0.00066187 0)
(-0.00293086 -0.000254667 0)
(-0.00291066 0.000145508 0)
(-0.0028885 0.000537504 0)
(-0.00285658 0.000915805 0)
(-0.00281962 0.00128475 0)
(-0.00278795 0.00164166 0)
(-0.00274873 0.00197502 0)
(-0.00271375 0.00228796 0)
(-0.00268303 0.00256462 0)
(-0.00264548 0.00279515 0)
(-0.00300965 -0.00459235 0)
(-0.00310234 -0.00414556 0)
(-0.00317856 -0.00370126 0)
(-0.00323623 -0.00325914 0)
(-0.00327862 -0.00281634 0)
(-0.00330929 -0.00237365 0)
(-0.00332811 -0.00193854 0)
(-0.00333188 -0.00151385 0)
(-0.00332375 -0.00109454 0)
(-0.00331141 -0.000679762 0)
(-0.00329118 -0.000274627 0)
(-0.00325779 0.000122028 0)
(-0.0032204 0.000511155 0)
(-0.00317884 0.000888621 0)
(-0.00312725 0.00125698 0)
(-0.00307493 0.00161165 0)
(-0.00301559 0.00194934 0)
(-0.0029587 0.00225885 0)
(-0.00290626 0.00253134 0)
(-0.0028524 0.00273956 0)
(-7.54729e-06 -0.00929502 0)
(-1.11768e-05 -0.00911046 0)
(2.27871e-05 -0.00875614 0)
(0.000118636 -0.00823559 0)
(0.00029364 -0.00758116 0)
(0.000562626 -0.0068084 0)
(0.000931108 -0.00595376 0)
(0.00139855 -0.00504924 0)
(0.00193657 -0.00413805 0)
(0.00257663 -0.00326331 0)
(-3.18289e-05 -0.00922633 0)
(-8.44805e-05 -0.00905377 0)
(-0.000101795 -0.0087273 0)
(-6.03947e-05 -0.00824222 0)
(5.73963e-05 -0.0076323 0)
(0.000265673 -0.00690914 0)
(0.000577026 -0.00610308 0)
(0.000986958 -0.00524419 0)
(0.00148719 -0.00436643 0)
(0.00210025 -0.00347844 0)
(-4.61436e-05 -0.00914507 0)
(-0.000129041 -0.00898378 0)
(-0.000178169 -0.00868376 0)
(-0.000174306 -0.0082348 0)
(-9.94272e-05 -0.00766835 0)
(5.78471e-05 -0.00699769 0)
(0.000314379 -0.00624588 0)
(0.000660988 -0.00544061 0)
(0.00110358 -0.00460086 0)
(0.00164846 -0.00372172 0)
(-5.45631e-05 -0.00906357 0)
(-0.000158238 -0.00891336 0)
(-0.000231027 -0.00863873 0)
(-0.000256214 -0.0082248 0)
(-0.000217543 -0.00769999 0)
(-0.000104434 -0.00707869 0)
(9.912e-05 -0.00637506 0)
(0.000383341 -0.00561585 0)
(0.000760771 -0.00480899 0)
(0.00123075 -0.00395429 0)
(-6.22032e-05 -0.00898257 0)
(-0.000179329 -0.00884224 0)
(-0.000271481 -0.0085905 0)
(-0.000320673 -0.00820808 0)
(-0.000312952 -0.0077207 0)
(-0.000238918 -0.00714325 0)
(-8.29099e-05 -0.00648362 0)
(0.0001456 -0.00576521 0)
(0.000462719 -0.00499084 0)
(0.000865491 -0.00416304 0)
(-6.91877e-05 -0.00890317 0)
(-0.000196052 -0.00877171 0)
(-0.00030317 -0.00853755 0)
(-0.000371759 -0.00818358 0)
(-0.000389542 -0.00772858 0)
(-0.000350229 -0.00718782 0)
(-0.000237694 -0.00656814 0)
(-5.94204e-05 -0.00588786 0)
(0.000199826 -0.00514828 0)
(0.000540225 -0.00435174 0)
(-7.35352e-05 -0.00882546 0)
(-0.000210681 -0.00870401 0)
(-0.000329505 -0.00848299 0)
(-0.00041525 -0.00815518 0)
(-0.000456238 -0.00772872 0)
(-0.000446603 -0.00721966 0)
(-0.000373824 -0.00663525 0)
(-0.00023964 -0.005989 0)
(-3.20491e-05 -0.00528245 0)
(0.000251639 -0.00451786 0)
(-7.75834e-05 -0.00875112 0)
(-0.00022433 -0.008638 0)
(-0.000352697 -0.00842752 0)
(-0.00045421 -0.00812203 0)
(-0.000516808 -0.00771947 0)
(-0.000533256 -0.00723749 0)
(-0.000495619 -0.00668342 0)
(-0.00040097 -0.00606845 0)
(-0.00023963 -0.00539413 0)
(-7.10239e-06 -0.00466281 0)
(-8.36863e-05 -0.0086799 0)
(-0.000238287 -0.00857401 0)
(-0.000376239 -0.00837286 0)
(-0.000492826 -0.00808488 0)
(-0.000574801 -0.00770186 0)
(-0.000615784 -0.00724316 0)
(-0.000608751 -0.00671574 0)
(-0.000548479 -0.00612946 0)
(-0.000427805 -0.00548505 0)
(-0.000241621 -0.00478518 0)
(-8.98193e-05 -0.00860928 0)
(-0.000252445 -0.00851208 0)
(-0.000401982 -0.00831829 0)
(-0.000533578 -0.00804345 0)
(-0.000633264 -0.00767713 0)
(-0.000696989 -0.00723825 0)
(-0.000716806 -0.00673412 0)
(-0.000686957 -0.00617341 0)
(-0.000602325 -0.00555629 0)
(-0.000458433 -0.00488512 0)
(-9.46917e-05 -0.00853947 0)
(-0.000268371 -0.00845197 0)
(-0.000431447 -0.00826332 0)
(-0.000577533 -0.00799819 0)
(-0.000694501 -0.00764679 0)
(-0.000778857 -0.00722499 0)
(-0.000823019 -0.00674075 0)
(-0.000821573 -0.00620169 0)
(-0.000769419 -0.00560932 0)
(-0.000663529 -0.00496541 0)
(-9.97428e-05 -0.00847213 0)
(-0.000288094 -0.00839207 0)
(-0.000465825 -0.00820748 0)
(-0.000625978 -0.00794997 0)
(-0.000760786 -0.00761166 0)
(-0.000864441 -0.00720442 0)
(-0.000931463 -0.00673674 0)
(-0.000956829 -0.00621626 0)
(-0.00093405 -0.0056468 0)
(-0.000862322 -0.00502892 0)
(-0.00010673 -0.00840658 0)
(-0.000312133 -0.00833026 0)
(-0.000505845 -0.00815022 0)
(-0.000681062 -0.00789929 0)
(-0.000834578 -0.00757201 0)
(-0.000957464 -0.00717702 0)
(-0.00104657 -0.00672298 0)
(-0.00109665 -0.00621968 0)
(-0.00110089 -0.00567113 0)
(-0.00106077 -0.00507606 0)
(-0.000115681 -0.00834011 0)
(-0.00033938 -0.00826523 0)
(-0.000551493 -0.00809107 0)
(-0.000744465 -0.00784594 0)
(-0.000917785 -0.0075274 0)
(-0.00106093 -0.00714269 0)
(-0.00117182 -0.00670049 0)
(-0.00124487 -0.00621301 0)
(-0.00127503 -0.00568163 0)
(-0.00126477 -0.0051063 0)
(-0.000125539 -0.00827024 0)
(-0.000369133 -0.00819625 0)
(-0.000603263 -0.00802883 0)
(-0.000817492 -0.00778861 0)
(-0.00101187 -0.0074768 0)
(-0.00117646 -0.00710063 0)
(-0.0013093 -0.00667061 0)
(-0.00140576 -0.00619771 0)
(-0.00146245 -0.00568009 0)
(-0.00148118 -0.00512442 0)
(-0.000136319 -0.00819576 0)
(-0.000403085 -0.00812212 0)
(-0.00066292 -0.0079608 0)
(-0.000901245 -0.00772505 0)
(-0.00111831 -0.00742089 0)
(-0.00130627 -0.0070539 0)
(-0.00146277 -0.00663501 0)
(-0.00158464 -0.0061721 0)
(-0.00166894 -0.00566722 0)
(-0.00171411 -0.00512846 0)
(-0.000149306 -0.00811521 0)
(-0.000443756 -0.00804096 0)
(-0.000732215 -0.00788578 0)
(-0.000997714 -0.00765574 0)
(-0.0012403 -0.00735774 0)
(-0.00145429 -0.00699902 0)
(-0.00163721 -0.0065894 0)
(-0.00178689 -0.00613386 0)
(-0.00189736 -0.00564434 0)
(-0.0019684 -0.0051207 0)
(-0.00016548 -0.00802606 0)
(-0.000492567 -0.00795159 0)
(-0.000812734 -0.00780188 0)
(-0.00110991 -0.00757802 0)
(-0.00138301 -0.00728803 0)
(-0.00162693 -0.00693794 0)
(-0.00183886 -0.00653618 0)
(-0.0020172 -0.0060901 0)
(-0.0021509 -0.00561233 0)
(-0.00224911 -0.00510505 0)
(-0.000185277 -0.00792674 0)
(-0.000550814 -0.0078523 0)
(-0.000907428 -0.00770704 0)
(-0.00124099 -0.00749049 0)
(-0.00154903 -0.00720868 0)
(-0.00182715 -0.00686639 0)
(-0.00207186 -0.00647128 0)
(-0.0022786 -0.00603775 0)
(-0.00243938 -0.00557038 0)
(-0.00256305 -0.00507938 0)
(-0.000208059 -0.00780855 0)
(-0.000617742 -0.0077374 0)
(-0.00101658 -0.00759718 0)
(-0.00139391 -0.00738891 0)
(-0.00174443 -0.00711679 0)
(-0.00206142 -0.00678383 0)
(-0.00234055 -0.0064003 0)
(-0.00257221 -0.00597938 0)
(-0.00276072 -0.00552421 0)
(-0.00291049 -0.00504939 0)
)


// ************************************************************************* //
