/*--------------------------------*- C++ -*----------------------------------*\
| =========                 |                                                 |
| \\      /  F ield         | foam-extend: Open Source CFD                    |
|  \\    /   O peration     | Version:     4.1                                |
|   \\  /    A nd           | Web:         http://www.foam-extend.org         |
|    \\/     M anipulation  |                                                 |
\*---------------------------------------------------------------------------*/
FoamFile
{
    version     2.0;
    format      ascii;
    class       vectorField;
    location    "1";
    object      residualD_iteration6;
}
// * * * * * * * * * * * * * * * * * * * * * * * * * * * * * * * * * * * * * //


1000
(
(0.014339 -0.0111313 0)
(0.0126113 -0.0100791 0)
(0.011424 -0.0093046 0)
(0.0105723 -0.00881399 0)
(0.00996478 -0.00849555 0)
(0.0095385 -0.00830617 0)
(0.00924065 -0.00818846 0)
(0.00903468 -0.0081209 0)
(0.00897059 -0.00805497 0)
(0.0090641 -0.00786695 0)
(0.0127924 -0.012189 0)
(0.0110019 -0.0113569 0)
(0.00980057 -0.0107009 0)
(0.00894205 -0.0102933 0)
(0.00831635 -0.0100268 0)
(0.0079123 -0.00985682 0)
(0.00766426 -0.00974086 0)
(0.00753145 -0.00968307 0)
(0.00753502 -0.00962437 0)
(0.00764726 -0.00954081 0)
(0.0112711 -0.013182 0)
(0.00946211 -0.0126062 0)
(0.00823254 -0.0121159 0)
(0.00740521 -0.0118028 0)
(0.00682245 -0.0115936 0)
(0.00645222 -0.0114548 0)
(0.00625054 -0.0113701 0)
(0.00616431 -0.01135 0)
(0.00620834 -0.0113357 0)
(0.00633294 -0.0113178 0)
(0.0097221 -0.0141015 0)
(0.00798932 -0.0137942 0)
(0.00679257 -0.0134876 0)
(0.00600321 -0.0132772 0)
(0.00548675 -0.0131348 0)
(0.0051613 -0.0130508 0)
(0.00498418 -0.0130085 0)
(0.00492865 -0.0130254 0)
(0.00498163 -0.0130437 0)
(0.00510972 -0.0130851 0)
(0.00820337 -0.0149371 0)
(0.0065897 -0.0148945 0)
(0.00548571 -0.014756 0)
(0.00476933 -0.0146551 0)
(0.00430539 -0.0145891 0)
(0.00401523 -0.0145641 0)
(0.00386048 -0.0145629 0)
(0.00383251 -0.0146151 0)
(0.00389397 -0.0146768 0)
(0.0040113 -0.0147699 0)
(0.00665813 -0.015675 0)
(0.00527074 -0.0158778 0)
(0.00431813 -0.0159051 0)
(0.00368374 -0.0159159 0)
(0.00326763 -0.0159204 0)
(0.00302144 -0.0159417 0)
(0.00290384 -0.0159815 0)
(0.0028915 -0.0160614 0)
(0.002948 -0.0161614 0)
(0.00304333 -0.0162997 0)
(0.00515677 -0.0162796 0)
(0.00401247 -0.0167053 0)
(0.00322957 -0.016883 0)
(0.00270589 -0.0169922 0)
(0.00237204 -0.0170575 0)
(0.00218138 -0.0171225 0)
(0.00209428 -0.0171969 0)
(0.00208439 -0.0173023 0)
(0.00212572 -0.0174316 0)
(0.00219642 -0.0175969 0)
(0.00367651 -0.0167551 0)
(0.00280788 -0.0173618 0)
(0.00222472 -0.0176474 0)
(0.00183577 -0.0178307 0)
(0.00160356 -0.0179515 0)
(0.00147133 -0.0180577 0)
(0.00140529 -0.0181608 0)
(0.00138994 -0.0182863 0)
(0.00141508 -0.0184431 0)
(0.00146689 -0.0186354 0)
(0.00219638 -0.0170792 0)
(0.00165469 -0.0178069 0)
(0.00130601 -0.0181696 0)
(0.00107399 -0.0184117 0)
(0.000930045 -0.0185704 0)
(0.000836351 -0.0186931 0)
(0.000792216 -0.0188175 0)
(0.000792943 -0.0189664 0)
(0.000814957 -0.0191357 0)
(0.000845742 -0.0193333 0)
(0.000728944 -0.0172424 0)
(0.000559602 -0.0180482 0)
(0.000432901 -0.0184372 0)
(0.000344695 -0.0187002 0)
(0.000302068 -0.0188838 0)
(0.000276331 -0.019028 0)
(0.000254861 -0.0191608 0)
(0.000250717 -0.0193172 0)
(0.000262041 -0.0195015 0)
(0.000274983 -0.0197169 0)
(0.0240611 -0.00049821 0)
(0.024312 -0.000334951 0)
(0.0243019 -0.000228174 0)
(0.0242232 -0.000162722 0)
(0.0241047 -0.000115285 0)
(0.0239829 -9.01655e-05 0)
(0.0238835 -8.91627e-05 0)
(0.0238124 -7.63086e-05 0)
(0.0237878 -7.89427e-05 0)
(0.0237929 -0.000100243 0)
(0.0238368 -0.0015057 0)
(0.0240329 -0.0010259 0)
(0.0239807 -0.000690932 0)
(0.0238712 -0.00049808 0)
(0.0237308 -0.000393528 0)
(0.023592 -0.00030798 0)
(0.0234862 -0.000277738 0)
(0.0234044 -0.000278326 0)
(0.0233597 -0.000306671 0)
(0.0233597 -0.000340422 0)
(0.0234156 -0.00250488 0)
(0.0234891 -0.00174805 0)
(0.0233556 -0.00122484 0)
(0.0231831 -0.000878583 0)
(0.0230087 -0.00068866 0)
(0.0228443 -0.000581028 0)
(0.0227039 -0.00054966 0)
(0.0226195 -0.000549674 0)
(0.0225545 -0.000581765 0)
(0.0225383 -0.000629075 0)
(0.0227936 -0.00353561 0)
(0.0226799 -0.00251872 0)
(0.0224352 -0.00183943 0)
(0.0221778 -0.00139226 0)
(0.021943 -0.00112958 0)
(0.0217639 -0.000977639 0)
(0.0216015 -0.000917191 0)
(0.0214949 -0.000907408 0)
(0.0214001 -0.000944611 0)
(0.0213575 -0.00101546 0)
(0.021985 -0.00458132 0)
(0.0216453 -0.00335008 0)
(0.0212565 -0.00253848 0)
(0.0209113 -0.00201542 0)
(0.0206084 -0.00170048 0)
(0.0203844 -0.00150952 0)
(0.0201901 -0.00142364 0)
(0.0200503 -0.0014128 0)
(0.0199266 -0.00145434 0)
(0.0198653 -0.00153862 0)
(0.02099 -0.00565697 0)
(0.0204026 -0.00427192 0)
(0.0198698 -0.00335938 0)
(0.0194309 -0.00277477 0)
(0.0190478 -0.00242708 0)
(0.0187666 -0.00221499 0)
(0.0185407 -0.00211513 0)
(0.0183706 -0.00209609 0)
(0.0182111 -0.00213395 0)
(0.0181034 -0.00222298 0)
(0.0198632 -0.00676016 0)
(0.0189995 -0.00529654 0)
(0.0182978 -0.00432229 0)
(0.0177619 -0.00369663 0)
(0.0173095 -0.00332257 0)
(0.0169761 -0.00310004 0)
(0.0167191 -0.00299345 0)
(0.0165265 -0.00295699 0)
(0.0163288 -0.00298114 0)
(0.0161578 -0.0030626 0)
(0.0186041 -0.00786346 0)
(0.0174794 -0.0064051 0)
(0.0166232 -0.00541624 0)
(0.0159911 -0.00478301 0)
(0.0154914 -0.00439408 0)
(0.0151093 -0.00417072 0)
(0.0148109 -0.00406193 0)
(0.0145817 -0.00400897 0)
(0.0143396 -0.00401812 0)
(0.0140865 -0.00408314 0)
(0.0172473 -0.00897016 0)
(0.0158893 -0.00757772 0)
(0.0148778 -0.00663065 0)
(0.0141512 -0.00601676 0)
(0.0136045 -0.00563094 0)
(0.0131786 -0.00540611 0)
(0.0128419 -0.00529091 0)
(0.0125767 -0.0052223 0)
(0.0123135 -0.00521031 0)
(0.0119752 -0.00522807 0)
(0.0158156 -0.0100731 0)
(0.0142744 -0.0088105 0)
(0.0131466 -0.00793453 0)
(0.0123382 -0.00737147 0)
(0.011748 -0.0070121 0)
(0.0113193 -0.00679152 0)
(0.0109998 -0.00667396 0)
(0.0107254 -0.00659642 0)
(0.0104773 -0.00655677 0)
(0.01006 -0.00654042 0)
(0.0238625 -0.000111262 0)
(0.0239441 -0.000103219 0)
(0.0240283 -9.7677e-05 0)
(0.0241185 -9.37839e-05 0)
(0.0242246 -9.05225e-05 0)
(0.0243452 -8.64698e-05 0)
(0.0244537 -7.29295e-05 0)
(0.0245508 -5.5591e-05 0)
(0.0246649 -4.60817e-05 0)
(0.0247948 -4.03998e-05 0)
(0.0249234 -3.25849e-05 0)
(0.0250508 -2.12982e-05 0)
(0.0251805 -6.83975e-06 0)
(0.0253095 8.09505e-06 0)
(0.0254359 2.10022e-05 0)
(0.0255609 3.36184e-05 0)
(0.0256837 4.97853e-05 0)
(0.0258056 7.13433e-05 0)
(0.0259291 9.78666e-05 0)
(0.0260444 0.000128416 0)
(0.0234531 -0.0003524 0)
(0.0235704 -0.000325904 0)
(0.0236883 -0.000309548 0)
(0.0238139 -0.000294415 0)
(0.0239386 -0.000268937 0)
(0.0240623 -0.000241486 0)
(0.0241848 -0.000213368 0)
(0.0243086 -0.000189101 0)
(0.0244441 -0.000170476 0)
(0.0245854 -0.000142628 0)
(0.024727 -0.000105405 0)
(0.024871 -6.67697e-05 0)
(0.0250143 -2.80484e-05 0)
(0.0251534 1.16517e-05 0)
(0.0252905 5.26778e-05 0)
(0.0254283 9.7574e-05 0)
(0.0255658 0.000150564 0)
(0.0257017 0.000213866 0)
(0.0258273 0.000287468 0)
(0.0259256 0.00037272 0)
(0.0226837 -0.000651213 0)
(0.0228887 -0.00060694 0)
(0.023062 -0.000567896 0)
(0.0232247 -0.000530427 0)
(0.0233954 -0.00048622 0)
(0.023568 -0.000445394 0)
(0.0237224 -0.000403279 0)
(0.0238583 -0.000359464 0)
(0.0240063 -0.000315131 0)
(0.0241611 -0.00025827 0)
(0.0243134 -0.000196504 0)
(0.0244626 -0.000139021 0)
(0.0246068 -8.08367e-05 0)
(0.0247476 -1.59222e-05 0)
(0.0248883 5.59197e-05 0)
(0.0250304 0.000134498 0)
(0.0251792 0.000223308 0)
(0.0253315 0.00032683 0)
(0.0254793 0.000445719 0)
(0.0256089 0.000584887 0)
(0.0215565 -0.00104319 0)
(0.0218663 -0.000966876 0)
(0.0221306 -0.000891109 0)
(0.022371 -0.000819384 0)
(0.0226003 -0.000748228 0)
(0.0228119 -0.000687562 0)
(0.0230095 -0.000623541 0)
(0.0231918 -0.00055835 0)
(0.0233809 -0.00049035 0)
(0.0235646 -0.000409271 0)
(0.0237348 -0.000323978 0)
(0.023896 -0.000241942 0)
(0.0240531 -0.000156855 0)
(0.0242101 -6.38806e-05 0)
(0.0243661 3.49399e-05 0)
(0.0245192 0.000141204 0)
(0.0246754 0.000259548 0)
(0.0248325 0.000398584 0)
(0.0249774 0.000562234 0)
(0.0251305 0.000753068 0)
(0.0201498 -0.00154826 0)
(0.0206002 -0.00141882 0)
(0.0209611 -0.00130065 0)
(0.0212701 -0.00119576 0)
(0.0215659 -0.00109348 0)
(0.021834 -0.00100504 0)
(0.0220785 -0.000908436 0)
(0.0223078 -0.000816394 0)
(0.0225252 -0.000717566 0)
(0.0227278 -0.000605175 0)
(0.0229235 -0.000493361 0)
(0.0231179 -0.000387566 0)
(0.023309 -0.000277911 0)
(0.0234919 -0.000159065 0)
(0.0236668 -3.45282e-05 0)
(0.023841 9.86755e-05 0)
(0.0240116 0.000247198 0)
(0.0241884 0.000419941 0)
(0.0243517 0.000626988 0)
(0.0245265 0.000865106 0)
(0.0184548 -0.00219315 0)
(0.0190495 -0.00198722 0)
(0.0195374 -0.00180951 0)
(0.0199544 -0.00166145 0)
(0.0203373 -0.00151923 0)
(0.0206751 -0.00139371 0)
(0.0209528 -0.00125388 0)
(0.0212206 -0.00112066 0)
(0.0214824 -0.0009859 0)
(0.0217291 -0.000845008 0)
(0.0219642 -0.000710977 0)
(0.0221918 -0.000584622 0)
(0.0224119 -0.000452152 0)
(0.0226197 -0.000307931 0)
(0.0228176 -0.000155966 0)
(0.0230194 4.97308e-06 0)
(0.023218 0.000184486 0)
(0.0234181 0.000389083 0)
(0.0236101 0.000633156 0)
(0.0238112 0.000913332 0)
(0.0165753 -0.00297304 0)
(0.0173162 -0.00267042 0)
(0.017916 -0.00241807 0)
(0.018423 -0.00221212 0)
(0.0188699 -0.00201431 0)
(0.0192695 -0.00183227 0)
(0.0196153 -0.00165083 0)
(0.0199375 -0.00147726 0)
(0.0202472 -0.00130987 0)
(0.0205432 -0.00114617 0)
(0.0208253 -0.000991222 0)
(0.021095 -0.000840519 0)
(0.0213528 -0.000680873 0)
(0.0215979 -0.00050981 0)
(0.0218397 -0.000331527 0)
(0.0220822 -0.000144891 0)
(0.022317 6.22559e-05 0)
(0.0225507 0.000295914 0)
(0.0227715 0.000570367 0)
(0.0230018 0.000885666 0)
(0.0145386 -0.00390511 0)
(0.0153906 -0.00347755 0)
(0.0160831 -0.00313336 0)
(0.016669 -0.00284912 0)
(0.0172003 -0.00258585 0)
(0.0176554 -0.00234321 0)
(0.0180776 -0.00211792 0)
(0.0184698 -0.00190419 0)
(0.0188385 -0.00170367 0)
(0.0191861 -0.00151435 0)
(0.0195156 -0.00133432 0)
(0.0198353 -0.00115623 0)
(0.020148 -0.000969222 0)
(0.0204498 -0.000773127 0)
(0.0207508 -0.000571747 0)
(0.0210439 -0.000361902 0)
(0.021321 -0.000130545 0)
(0.0216006 0.000127713 0)
(0.0218591 0.000426577 0)
(0.0221202 0.000770108 0)
(0.0124215 -0.00495336 0)
(0.0133193 -0.00439641 0)
(0.0140733 -0.00395493 0)
(0.0147192 -0.00357607 0)
(0.0153122 -0.00323095 0)
(0.0158349 -0.00292583 0)
(0.0163241 -0.00265154 0)
(0.0167837 -0.00239792 0)
(0.0172213 -0.00216648 0)
(0.0176381 -0.00195128 0)
(0.0180369 -0.00174594 0)
(0.0184275 -0.00154298 0)
(0.0188108 -0.00133346 0)
(0.019184 -0.00111713 0)
(0.019558 -0.000896224 0)
(0.0199166 -0.000665032 0)
(0.0202518 -0.000411247 0)
(0.0205817 -0.00013077 0)
(0.0208926 0.000186757 0)
(0.0211962 0.000551341 0)
(0.010293 -0.00600414 0)
(0.0111678 -0.00525412 0)
(0.0119357 -0.00471047 0)
(0.0126246 -0.00425123 0)
(0.0132589 -0.00386092 0)
(0.0138561 -0.00351935 0)
(0.0144217 -0.00321092 0)
(0.0149647 -0.00292985 0)
(0.0154876 -0.00267732 0)
(0.0159865 -0.00244325 0)
(0.016467 -0.00221964 0)
(0.0169415 -0.00199954 0)
(0.0174079 -0.00177452 0)
(0.0178629 -0.0015433 0)
(0.0183145 -0.00130652 0)
(0.0187414 -0.00105697 0)
(0.01915 -0.000786676 0)
(0.0195413 -0.000487146 0)
(0.0199162 -0.000153902 0)
(0.0202722 0.000232532 0)
(0.00905757 -0.00680035 0)
(0.00961243 -0.00608719 0)
(0.0102896 -0.00550458 0)
(0.0109981 -0.00498312 0)
(0.0116846 -0.0045474 0)
(0.0123445 -0.00416392 0)
(0.0129745 -0.00382056 0)
(0.0135832 -0.00351372 0)
(0.0141667 -0.00323947 0)
(0.0147202 -0.0029846 0)
(0.015255 -0.00274175 0)
(0.0157849 -0.00250464 0)
(0.0163016 -0.00226385 0)
(0.0168039 -0.00201709 0)
(0.0172997 -0.00176479 0)
(0.0177625 -0.00149771 0)
(0.0182117 -0.00121536 0)
(0.0186403 -0.00090005 0)
(0.0190549 -0.000551274 0)
(0.0194403 -0.000139624 0)
(0.00822798 -0.00747461 0)
(0.00884989 -0.00678979 0)
(0.00949481 -0.00621598 0)
(0.0101715 -0.00568818 0)
(0.010849 -0.00522864 0)
(0.0115078 -0.00481764 0)
(0.012147 -0.00444918 0)
(0.012766 -0.00411934 0)
(0.013357 -0.00382083 0)
(0.0139175 -0.00354209 0)
(0.0144619 -0.00327818 0)
(0.0150011 -0.00302241 0)
(0.0155215 -0.00276371 0)
(0.0160255 -0.00249945 0)
(0.0165216 -0.00223021 0)
(0.0169846 -0.00194462 0)
(0.0174361 -0.00164851 0)
(0.0178669 -0.00131742 0)
(0.0182857 -0.000950138 0)
(0.018671 -0.000517383 0)
(0.00740285 -0.00815236 0)
(0.00806555 -0.00743855 0)
(0.00874114 -0.00686831 0)
(0.00942922 -0.00634243 0)
(0.0101067 -0.00587339 0)
(0.010767 -0.00544788 0)
(0.0114083 -0.00506193 0)
(0.0120257 -0.0047106 0)
(0.0126141 -0.0043884 0)
(0.013174 -0.00408752 0)
(0.013721 -0.00380462 0)
(0.0142618 -0.00353211 0)
(0.0147788 -0.00325766 0)
(0.0152788 -0.00297885 0)
(0.0157699 -0.00269547 0)
(0.0162303 -0.00239458 0)
(0.0166835 -0.00208432 0)
(0.0171151 -0.00173877 0)
(0.0175364 -0.00135565 0)
(0.017926 -0.000914547 0)
(0.0066176 -0.0089046 0)
(0.00730728 -0.00816523 0)
(0.00799605 -0.00756318 0)
(0.00869691 -0.0070139 0)
(0.00937342 -0.00652316 0)
(0.0100354 -0.00607676 0)
(0.0106742 -0.00566916 0)
(0.011289 -0.00529431 0)
(0.0118771 -0.00494854 0)
(0.0124384 -0.00462689 0)
(0.0129882 -0.00432701 0)
(0.01353 -0.00403985 0)
(0.014044 -0.00375179 0)
(0.0145422 -0.003461 0)
(0.0150308 -0.0031652 0)
(0.0154895 -0.00285145 0)
(0.015945 -0.00252807 0)
(0.0163801 -0.00217033 0)
(0.0168054 -0.00177969 0)
(0.0172063 -0.00134403 0)
(0.00591173 -0.00962975 0)
(0.00660401 -0.00888491 0)
(0.00729888 -0.00826253 0)
(0.00799631 -0.00769352 0)
(0.00867339 -0.00718202 0)
(0.00933355 -0.00671461 0)
(0.00996755 -0.00628396 0)
(0.0105817 -0.0058858 0)
(0.0111721 -0.00551835 0)
(0.0117357 -0.00517812 0)
(0.0122877 -0.0048628 0)
(0.0128287 -0.00456128 0)
(0.0133382 -0.00425904 0)
(0.0138336 -0.00395594 0)
(0.0143192 -0.00364755 0)
(0.0147779 -0.00332241 0)
(0.0152336 -0.002987 0)
(0.0156712 -0.00262088 0)
(0.0161024 -0.00223179 0)
(0.0165165 -0.00180605 0)
(0.00529052 -0.0103288 0)
(0.00597238 -0.00958539 0)
(0.00666244 -0.0089519 0)
(0.00734778 -0.00836771 0)
(0.00802244 -0.00783839 0)
(0.00867388 -0.00735094 0)
(0.00930179 -0.0068987 0)
(0.00991685 -0.00648046 0)
(0.0105103 -0.00609455 0)
(0.0110752 -0.00573789 0)
(0.0116269 -0.005408 0)
(0.0121645 -0.00509158 0)
(0.0126677 -0.00477372 0)
(0.0131586 -0.00445676 0)
(0.0136373 -0.00413395 0)
(0.0140958 -0.00379908 0)
(0.0145512 -0.0034547 0)
(0.0149906 -0.00308627 0)
(0.0154298 -0.0027039 0)
(0.0158528 -0.00228199 0)
(0.00475868 -0.0109969 0)
(0.00542544 -0.0102644 0)
(0.00609348 -0.00962718 0)
(0.00676726 -0.00903183 0)
(0.00743032 -0.00848742 0)
(0.00806736 -0.00798133 0)
(0.00868778 -0.00751013 0)
(0.00930149 -0.00707461 0)
(0.00989402 -0.00667155 0)
(0.0104559 -0.00629828 0)
(0.0110034 -0.00595269 0)
(0.0115337 -0.00561961 0)
(0.0120287 -0.00528479 0)
(0.0125149 -0.00495424 0)
(0.0129856 -0.00461742 0)
(0.0134423 -0.00427474 0)
(0.0138975 -0.00392647 0)
(0.0143388 -0.00356072 0)
(0.014786 -0.00318362 0)
(0.0152128 -0.00276103 0)
(0.00429797 -0.0116399 0)
(0.00494674 -0.010922 0)
(0.005588 -0.0102834 0)
(0.00624665 -0.0096801 0)
(0.00689019 -0.00912251 0)
(0.00751166 -0.00859993 0)
(0.00812271 -0.00811277 0)
(0.00873018 -0.00766208 0)
(0.00931567 -0.00724233 0)
(0.00986936 -0.00685197 0)
(0.0104094 -0.00648987 0)
(0.0109307 -0.00613955 0)
(0.0114172 -0.00578799 0)
(0.0118991 -0.00544562 0)
(0.0123647 -0.00509903 0)
(0.01282 -0.00475248 0)
(0.0132759 -0.00440562 0)
(0.0137202 -0.00404402 0)
(0.0141719 -0.00366867 0)
(0.014604 -0.00325477 0)
(0.00389133 -0.0122598 0)
(0.0045126 -0.0115566 0)
(0.0051316 -0.0109183 0)
(0.00576756 -0.0103101 0)
(0.0063909 -0.00974213 0)
(0.00699818 -0.00920695 0)
(0.00759749 -0.00870736 0)
(0.00819398 -0.00824402 0)
(0.00876764 -0.00780876 0)
(0.00931007 -0.00740156 0)
(0.00984114 -0.00702263 0)
(0.0103544 -0.00665546 0)
(0.0108357 -0.00628927 0)
(0.0113151 -0.0059372 0)
(0.011779 -0.00558474 0)
(0.0122344 -0.00523749 0)
(0.0126916 -0.00489358 0)
(0.0131389 -0.00453469 0)
(0.0135913 -0.00416287 0)
(0.0140333 -0.00377154 0)
(0.00352907 -0.0128553 0)
(0.00411805 -0.0121667 0)
(0.00471413 -0.011532 0)
(0.0053247 -0.0109231 0)
(0.00593117 -0.0103502 0)
(0.00652394 -0.00980739 0)
(0.00710808 -0.00929855 0)
(0.00768986 -0.00882446 0)
(0.00824893 -0.00837424 0)
(0.00877945 -0.00794979 0)
(0.00930197 -0.00755287 0)
(0.00980881 -0.00716828 0)
(0.0102881 -0.00678871 0)
(0.0107674 -0.00642799 0)
(0.0112312 -0.00607088 0)
(0.0116869 -0.00572299 0)
(0.0121445 -0.00537983 0)
(0.0125916 -0.00502362 0)
(0.013045 -0.0046647 0)
(0.0134943 -0.00429498 0)
(0.0031973 -0.0134244 0)
(0.00375836 -0.0127515 0)
(0.00432966 -0.0121248 0)
(0.00492017 -0.011521 0)
(0.00551176 -0.0109486 0)
(0.00608746 -0.0104008 0)
(0.00665306 -0.00988304 0)
(0.00721774 -0.00939751 0)
(0.00776094 -0.00893144 0)
(0.00827995 -0.008489 0)
(0.00879524 -0.00807388 0)
(0.0092974 -0.00767282 0)
(0.00977632 -0.0072816 0)
(0.0102568 -0.00691363 0)
(0.0107209 -0.00655247 0)
(0.0111759 -0.00620278 0)
(0.0116324 -0.00585971 0)
(0.0120768 -0.00551078 0)
(0.0125344 -0.00517244 0)
(0.0129831 -0.00481361 0)
(0.00289188 -0.0139681 0)
(0.0034301 -0.0133133 0)
(0.00398087 -0.0126987 0)
(0.00455631 -0.0121037 0)
(0.00513085 -0.0115331 0)
(0.00568611 -0.0109796 0)
(0.0062309 -0.0104516 0)
(0.00677746 -0.00995394 0)
(0.00730545 -0.00947367 0)
(0.00781437 -0.00901578 0)
(0.00832475 -0.00858573 0)
(0.00882472 -0.00817185 0)
(0.00930411 -0.00777175 0)
(0.00978587 -0.00739819 0)
(0.0102501 -0.0070337 0)
(0.0107041 -0.00668235 0)
(0.0111588 -0.00634292 0)
(0.0116023 -0.00600739 0)
(0.0120623 -0.00568474 0)
(0.0125083 -0.00533976 0)
(0.00261987 -0.0144916 0)
(0.00313776 -0.0138586 0)
(0.00367298 -0.0132571 0)
(0.00423107 -0.0126697 0)
(0.0047844 -0.012099 0)
(0.00531754 -0.0115393 0)
(0.00584221 -0.0110033 0)
(0.00637174 -0.0104951 0)
(0.00688803 -0.0100047 0)
(0.00738975 -0.00953532 0)
(0.00789752 -0.00909387 0)
(0.00839623 -0.00866939 0)
(0.00887427 -0.00826039 0)
(0.0093542 -0.00787988 0)
(0.00981611 -0.00751073 0)
(0.0102683 -0.00715879 0)
(0.0107208 -0.00682643 0)
(0.0111648 -0.00650389 0)
(0.0116172 -0.00618618 0)
(0.0120618 -0.0058679 0)
(0.00238115 -0.015002 0)
(0.00288138 -0.0143889 0)
(0.00339983 -0.0137978 0)
(0.00393576 -0.0132151 0)
(0.00446714 -0.0126448 0)
(0.00498008 -0.0120813 0)
(0.00548889 -0.0115414 0)
(0.00600384 -0.0110239 0)
(0.00651152 -0.0105243 0)
(0.00700725 -0.0100441 0)
(0.00751062 -0.00959096 0)
(0.0080046 -0.0091552 0)
(0.0084779 -0.00873638 0)
(0.0089544 -0.00834829 0)
(0.00941436 -0.00797451 0)
(0.00986519 -0.0076239 0)
(0.0103147 -0.00729805 0)
(0.010753 -0.0069811 0)
(0.0111951 -0.00667201 0)
(0.0116352 -0.00637855 0)
(0.00216512 -0.0154981 0)
(0.00264892 -0.014898 0)
(0.00314559 -0.0143157 0)
(0.00365932 -0.0137376 0)
(0.00417232 -0.0131693 0)
(0.00466785 -0.0126028 0)
(0.00516432 -0.0120596 0)
(0.00566819 -0.0115352 0)
(0.0061689 -0.0110276 0)
(0.00666032 -0.0105393 0)
(0.00715905 -0.0100782 0)
(0.00764736 -0.00963444 0)
(0.00811716 -0.00920835 0)
(0.00859375 -0.00881461 0)
(0.00905339 -0.00843808 0)
(0.00949991 -0.0080883 0)
(0.00994305 -0.0077635 0)
(0.0103696 -0.00744714 0)
(0.0108096 -0.00716233 0)
(0.0112464 -0.00688862 0)
(0.00195795 -0.0159718 0)
(0.00242337 -0.0153857 0)
(0.00289766 -0.0148122 0)
(0.00339273 -0.0142383 0)
(0.00389053 -0.0136703 0)
(0.00437306 -0.0131047 0)
(0.00486166 -0.0125604 0)
(0.0053638 -0.0120367 0)
(0.00585938 -0.0115249 0)
(0.00634203 -0.011028 0)
(0.00683227 -0.0105577 0)
(0.00731634 -0.0101064 0)
(0.00778608 -0.00967399 0)
(0.00826299 -0.00927394 0)
(0.008719 -0.00889297 0)
(0.00915742 -0.00854058 0)
(0.00959258 -0.00821406 0)
(0.0100133 -0.00790404 0)
(0.0104536 -0.00763808 0)
(0.0108929 -0.00739537 0)
(0.00174528 -0.0164315 0)
(0.00219346 -0.0158614 0)
(0.00264945 -0.0152911 0)
(0.00312981 -0.0147217 0)
(0.00361492 -0.0141546 0)
(0.00409358 -0.0135952 0)
(0.00457794 -0.0130497 0)
(0.00507614 -0.0125228 0)
(0.00556463 -0.0120055 0)
(0.00604013 -0.0115026 0)
(0.00652728 -0.0110272 0)
(0.00701358 -0.0105698 0)
(0.00748613 -0.0101293 0)
(0.0079591 -0.00972183 0)
(0.00840529 -0.00933622 0)
(0.00883873 -0.0089785 0)
(0.00927775 -0.0086492 0)
(0.00971403 -0.00835637 0)
(0.0101411 -0.008098 0)
(0.0105481 -0.00788065 0)
(0.00152373 -0.0168893 0)
(0.0019527 -0.0163253 0)
(0.00239694 -0.0157559 0)
(0.00286967 -0.0151941 0)
(0.00335176 -0.0146345 0)
(0.00382858 -0.0140776 0)
(0.00430966 -0.0135316 0)
(0.00479966 -0.0130019 0)
(0.00527983 -0.0124816 0)
(0.00575528 -0.0119757 0)
(0.00625114 -0.0114957 0)
(0.00674228 -0.0110316 0)
(0.00720561 -0.0105827 0)
(0.00766507 -0.0101666 0)
(0.00811778 -0.00977507 0)
(0.00857732 -0.00941618 0)
(0.00901722 -0.00908762 0)
(0.00943181 -0.00879687 0)
(0.00987037 -0.00855603 0)
(0.0103028 -0.00836913 0)
(0.00128969 -0.01734 0)
(0.00170236 -0.0167799 0)
(0.00214452 -0.0162183 0)
(0.00261696 -0.0156619 0)
(0.00309924 -0.0151063 0)
(0.00356973 -0.0145484 0)
(0.00403742 -0.0139996 0)
(0.00451944 -0.0134673 0)
(0.0050089 -0.0129467 0)
(0.00549937 -0.0124391 0)
(0.00599183 -0.0119507 0)
(0.00646397 -0.0114748 0)
(0.00692973 -0.0110208 0)
(0.00741855 -0.0106052 0)
(0.00787915 -0.0102047 0)
(0.00832443 -0.00983475 0)
(0.00878327 -0.0095165 0)
(0.00921288 -0.00922092 0)
(0.00965138 -0.00898945 0)
(0.0100848 -0.00883157 0)
(0.00104975 -0.0177768 0)
(0.0014568 -0.0172317 0)
(0.00190332 -0.0166816 0)
(0.00237776 -0.0161325 0)
(0.00284502 -0.0155721 0)
(0.00329775 -0.0150101 0)
(0.00376872 -0.0144666 0)
(0.0042716 -0.0139399 0)
(0.0047655 -0.0134128 0)
(0.00523769 -0.0128922 0)
(0.00573031 -0.0124 0)
(0.00622883 -0.0119267 0)
(0.0067022 -0.0114644 0)
(0.00718732 -0.0110367 0)
(0.0076662 -0.0106363 0)
(0.00812185 -0.0102632 0)
(0.00859183 -0.00994008 0)
(0.00903768 -0.00964444 0)
(0.00948291 -0.00941735 0)
(0.00995273 -0.00926511 0)
(0.000251901 -0.0199451 0)
(0.000775477 -0.0195736 0)
(0.00134598 -0.0189044 0)
(0.00201712 -0.0178959 0)
(0.00280149 -0.0166326 0)
(0.00370077 -0.0151301 0)
(0.00472401 -0.0134696 0)
(0.00585565 -0.0117099 0)
(0.00711552 -0.0099056 0)
(0.00844624 -0.0080842 0)
(0.000192391 -0.0201687 0)
(0.000602982 -0.0198127 0)
(0.00105151 -0.0191856 0)
(0.0015972 -0.0182393 0)
(0.00225774 -0.0170451 0)
(0.00302746 -0.0156218 0)
(0.00393267 -0.014025 0)
(0.00493986 -0.0123235 0)
(0.00611232 -0.0105374 0)
(0.00734336 -0.00874195 0)
(0.000140453 -0.0203401 0)
(0.000453438 -0.0200056 0)
(0.000812485 -0.0194138 0)
(0.0012543 -0.0185157 0)
(0.0018143 -0.0173817 0)
(0.00248261 -0.0160329 0)
(0.00329288 -0.014512 0)
(0.00421566 -0.0128837 0)
(0.00531081 -0.0111519 0)
(0.00646466 -0.00942546 0)
(0.000106395 -0.020479 0)
(0.000337615 -0.0201609 0)
(0.000634059 -0.0196029 0)
(0.000999591 -0.0187538 0)
(0.00147886 -0.0176832 0)
(0.00206927 -0.0164062 0)
(0.00279361 -0.0149641 0)
(0.00363392 -0.0134143 0)
(0.00463151 -0.0117625 0)
(0.00569325 -0.010122 0)
(8.32353e-05 -0.0205972 0)
(0.000255442 -0.0203004 0)
(0.000494445 -0.0197767 0)
(0.000797314 -0.0189807 0)
(0.00120688 -0.0179675 0)
(0.00172587 -0.0167697 0)
(0.00237707 -0.0154159 0)
(0.0031405 -0.01394 0)
(0.00404861 -0.0123641 0)
(0.00503028 -0.0107965 0)
(5.64057e-05 -0.0207018 0)
(0.000191848 -0.0204257 0)
(0.000381043 -0.0199258 0)
(0.000638656 -0.0191881 0)
(0.000995303 -0.0182319 0)
(0.00145541 -0.0171082 0)
(0.00203716 -0.0158363 0)
(0.00272719 -0.0144322 0)
(0.00355196 -0.0129323 0)
(0.00446105 -0.0114423 0)
(3.77763e-05 -0.0207949 0)
(0.000139769 -0.0205411 0)
(0.000288494 -0.0200659 0)
(0.000514804 -0.0193821 0)
(0.000822026 -0.018483 0)
(0.00123357 -0.0174265 0)
(0.00175742 -0.0162289 0)
(0.0023821 -0.014897 0)
(0.00313369 -0.0134753 0)
(0.0039769 -0.0120641 0)
(3.2525e-05 -0.0208794 0)
(9.84915e-05 -0.0206461 0)
(0.000217311 -0.0201992 0)
(0.000420367 -0.0195624 0)
(0.000685513 -0.0187202 0)
(0.00104896 -0.0177213 0)
(0.00152293 -0.0165943 0)
(0.00209366 -0.0153413 0)
(0.00278106 -0.0140011 0)
(0.00356145 -0.0126658 0)
(2.29002e-05 -0.0209558 0)
(6.26039e-05 -0.0207434 0)
(0.000163991 -0.0203231 0)
(0.000341997 -0.019728 0)
(0.000576511 -0.0189447 0)
(0.000898623 -0.0180002 0)
(0.00132238 -0.0169399 0)
(0.00184329 -0.0157687 0)
(0.0024741 -0.0145093 0)
(0.00319618 -0.0132449 0)
(5.19104e-06 -0.0210291 0)
(3.59169e-05 -0.0208399 0)
(0.000126229 -0.0204441 0)
(0.000276264 -0.0198857 0)
(0.000482013 -0.0191575 0)
(0.000769651 -0.0182671 0)
(0.00114478 -0.01727 0)
(0.00161818 -0.0161753 0)
(0.00219879 -0.0149915 0)
(0.00286675 -0.0137956 0)
(-6.52952e-06 -0.0211067 0)
(2.33206e-05 -0.0209401 0)
(9.58838e-05 -0.0205673 0)
(0.000220729 -0.02004 0)
(0.0003972 -0.0193572 0)
(0.000653403 -0.0185199 0)
(0.000986444 -0.0175833 0)
(0.00141639 -0.0165566 0)
(0.00195081 -0.0154437 0)
(0.00256684 -0.014318 0)
(-7.56359e-06 -0.0211914 0)
(1.63257e-05 -0.0210426 0)
(6.26751e-05 -0.0206911 0)
(0.000170077 -0.02019 0)
(0.00032228 -0.0195451 0)
(0.000548368 -0.0187595 0)
(0.000846324 -0.0178803 0)
(0.00123753 -0.0169153 0)
(0.00172867 -0.0158727 0)
(0.00229692 -0.0148184 0)
(-7.93663e-06 -0.021282 0)
(5.32617e-07 -0.0211445 0)
(2.14314e-05 -0.0208136 0)
(0.000117077 -0.0203363 0)
(0.000251466 -0.0197275 0)
(0.000449524 -0.018992 0)
(0.000717891 -0.0181651 0)
(0.0010761 -0.0172587 0)
(0.00153006 -0.0162874 0)
(0.00205968 -0.0153009 0)
(-1.67704e-05 -0.0213772 0)
(-2.88491e-05 -0.0212462 0)
(-2.55254e-05 -0.0209372 0)
(5.75941e-05 -0.0204841 0)
(0.00017671 -0.0199109 0)
(0.000350967 -0.0192204 0)
(0.000595523 -0.0184409 0)
(0.000927828 -0.0175921 0)
(0.0013532 -0.0166883 0)
(0.00185184 -0.0157653 0)
(-3.20447e-05 -0.021478 0)
(-6.38156e-05 -0.0213517 0)
(-7.16785e-05 -0.0210657 0)
(-5.77044e-06 -0.0206369 0)
(9.7578e-05 -0.0200972 0)
(0.00025254 -0.0194458 0)
(0.000477872 -0.0187129 0)
(0.000790021 -0.0179215 0)
(0.00119054 -0.0170769 0)
(0.00166067 -0.0162172 0)
(-4.59988e-05 -0.021587 0)
(-9.45607e-05 -0.021463 0)
(-0.00011337 -0.021199 0)
(-6.98953e-05 -0.0207954 0)
(1.57155e-05 -0.0202874 0)
(0.000153376 -0.0196734 0)
(0.000361373 -0.018988 0)
(0.000656033 -0.0182489 0)
(0.00103074 -0.0174576 0)
(0.00147543 -0.0166584 0)
(-5.48392e-05 -0.0217034 0)
(-0.00012034 -0.0215793 0)
(-0.000155694 -0.0213372 0)
(-0.000138571 -0.0209616 0)
(-7.23892e-05 -0.0204831 0)
(4.79759e-05 -0.0199031 0)
(0.00023788 -0.0192616 0)
(0.000511188 -0.0185681 0)
(0.000861303 -0.0178331 0)
(0.00127927 -0.0170866 0)
(-6.20167e-05 -0.0218248 0)
(-0.000149922 -0.0217031 0)
(-0.000208281 -0.0214808 0)
(-0.000219331 -0.02113 0)
(-0.00017635 -0.020681 0)
(-7.55731e-05 -0.0201362 0)
(9.46327e-05 -0.0195326 0)
(0.000342153 -0.0188822 0)
(0.000673321 -0.0182039 0)
(0.00106723 -0.0175072 0)
(-7.31946e-05 -0.0219495 0)
(-0.000192317 -0.0218351 0)
(-0.00027896 -0.0216282 0)
(-0.000316626 -0.0213031 0)
(-0.000298538 -0.0208832 0)
(-0.000221612 -0.0203734 0)
(-7.39235e-05 -0.0198048 0)
(0.000154905 -0.0192014 0)
(0.0004669 -0.0185677 0)
(0.000841973 -0.017924 0)
(-9.08516e-05 -0.0220762 0)
(-0.000247667 -0.0219752 0)
(-0.000365155 -0.0217839 0)
(-0.000433561 -0.0214802 0)
(-0.000445391 -0.0210848 0)
(-0.000392691 -0.0206098 0)
(-0.000263665 -0.0200788 0)
(-3.9527e-05 -0.0195242 0)
(0.000256989 -0.0189307 0)
(0.000618267 -0.0183317 0)
)


// ************************************************************************* //
