/*--------------------------------*- C++ -*----------------------------------*\
| =========                 |                                                 |
| \\      /  F ield         | foam-extend: Open Source CFD                    |
|  \\    /   O peration     | Version:     4.1                                |
|   \\  /    A nd           | Web:         http://www.foam-extend.org         |
|    \\/     M anipulation  |                                                 |
\*---------------------------------------------------------------------------*/
FoamFile
{
    version     2.0;
    format      ascii;
    class       vectorField;
    location    "1";
    object      residualD_iteration9;
}
// * * * * * * * * * * * * * * * * * * * * * * * * * * * * * * * * * * * * * //


1000
(
(0.0083713 -0.00831168 0)
(0.00720083 -0.00738194 0)
(0.00634448 -0.00664698 0)
(0.00571903 -0.00613484 0)
(0.00525554 -0.00574089 0)
(0.00490025 -0.00543839 0)
(0.00462938 -0.00519001 0)
(0.00441502 -0.00497155 0)
(0.00426962 -0.00477605 0)
(0.00428667 -0.00452475 0)
(0.00744514 -0.00908804 0)
(0.0062237 -0.00830528 0)
(0.00535087 -0.0076497 0)
(0.00471681 -0.00718355 0)
(0.00425589 -0.00681417 0)
(0.00392713 -0.00652034 0)
(0.00369507 -0.00627059 0)
(0.00353568 -0.00605831 0)
(0.00344959 -0.00586965 0)
(0.00346364 -0.00565083 0)
(0.00653327 -0.00982301 0)
(0.00530188 -0.00920715 0)
(0.00442329 -0.00865818 0)
(0.0038044 -0.00825482 0)
(0.00336594 -0.00792622 0)
(0.00306541 -0.00765775 0)
(0.00286665 -0.00742695 0)
(0.00273767 -0.00723844 0)
(0.0026777 -0.00707542 0)
(0.00269619 -0.0068924 0)
(0.0056173 -0.0105068 0)
(0.00443008 -0.0100705 0)
(0.00358426 -0.00963945 0)
(0.00299895 -0.00930921 0)
(0.00259667 -0.00902599 0)
(0.00232477 -0.00878912 0)
(0.0021469 -0.00858425 0)
(0.00203759 -0.00842079 0)
(0.00198769 -0.00827818 0)
(0.00200187 -0.00813313 0)
(0.00472338 -0.0111256 0)
(0.00361225 -0.0108718 0)
(0.00283289 -0.0105537 0)
(0.00230418 -0.0102968 0)
(0.0019416 -0.0100654 0)
(0.00169782 -0.00986698 0)
(0.00154121 -0.00969033 0)
(0.00145334 -0.00955166 0)
(0.00141382 -0.00943297 0)
(0.00142297 -0.00931932 0)
(0.00383166 -0.0116694 0)
(0.00285991 -0.0115866 0)
(0.00217827 -0.0113811 0)
(0.00171381 -0.0111967 0)
(0.00139744 -0.0110117 0)
(0.00119151 -0.0108468 0)
(0.00106155 -0.010699 0)
(0.000989743 -0.0105811 0)
(0.000956636 -0.010483 0)
(0.000959935 -0.0103963 0)
(0.00296391 -0.0121216 0)
(0.00216059 -0.0121898 0)
(0.00159818 -0.0120843 0)
(0.0012167 -0.0119674 0)
(0.000962362 -0.0118249 0)
(0.000797507 -0.0116874 0)
(0.000693911 -0.011562 0)
(0.000636327 -0.0114612 0)
(0.000608894 -0.0113797 0)
(0.000607942 -0.0113139 0)
(0.00210887 -0.0124755 0)
(0.00150729 -0.0126672 0)
(0.00108816 -0.0126393 0)
(0.000803149 -0.0125735 0)
(0.000619 -0.0124642 0)
(0.000499182 -0.0123527 0)
(0.000422216 -0.0122485 0)
(0.000377135 -0.012162 0)
(0.000355268 -0.0120943 0)
(0.00035396 -0.0120463 0)
(0.00126074 -0.0127181 0)
(0.000886622 -0.0129939 0)
(0.000631011 -0.0130188 0)
(0.000458871 -0.0129894 0)
(0.000345453 -0.0129045 0)
(0.000267666 -0.0128097 0)
(0.000219688 -0.0127189 0)
(0.000195607 -0.0126423 0)
(0.000184072 -0.0125817 0)
(0.00018225 -0.0125432 0)
(0.000420299 -0.0128391 0)
(0.000298041 -0.0131607 0)
(0.000208068 -0.0132124 0)
(0.000145928 -0.013202 0)
(0.000109732 -0.0131316 0)
(8.62913e-05 -0.0130487 0)
(6.80572e-05 -0.0129636 0)
(5.83148e-05 -0.0128906 0)
(5.56654e-05 -0.0128361 0)
(5.57544e-05 -0.0128067 0)
(0.0144085 -0.000375526 0)
(0.0146066 -0.000251822 0)
(0.0145802 -0.000166779 0)
(0.0144928 -0.00010822 0)
(0.0143594 -6.69944e-05 0)
(0.0142135 -4.12561e-05 0)
(0.0140712 -2.77051e-05 0)
(0.0139432 -1.32746e-05 0)
(0.0138336 -6.05755e-06 0)
(0.0137379 -5.09381e-06 0)
(0.0142615 -0.0011321 0)
(0.0144209 -0.000766169 0)
(0.0143698 -0.000508318 0)
(0.0142635 -0.000340267 0)
(0.0141156 -0.000229416 0)
(0.0139617 -0.000145961 0)
(0.0138132 -9.59657e-05 0)
(0.0136796 -6.50389e-05 0)
(0.0135654 -4.93525e-05 0)
(0.0134633 -3.7754e-05 0)
(0.0139941 -0.00189046 0)
(0.0140656 -0.00130262 0)
(0.0139604 -0.000887675 0)
(0.0138171 -0.000607166 0)
(0.0136445 -0.000423012 0)
(0.0134732 -0.000295869 0)
(0.0133098 -0.000218852 0)
(0.0131731 -0.000166751 0)
(0.0130482 -0.000136888 0)
(0.0129335 -0.000117841 0)
(0.0136014 -0.00266458 0)
(0.013544 -0.00187655 0)
(0.0133606 -0.00132308 0)
(0.0131639 -0.000950743 0)
(0.012959 -0.000703022 0)
(0.0127724 -0.000529897 0)
(0.0125906 -0.000421097 0)
(0.0124384 -0.000348202 0)
(0.0122974 -0.000300934 0)
(0.0121628 -0.000274033 0)
(0.0130948 -0.00344824 0)
(0.0128798 -0.0024981 0)
(0.012597 -0.00182828 0)
(0.0123385 -0.00137861 0)
(0.0120913 -0.00107928 0)
(0.0118753 -0.000869493 0)
(0.0116727 -0.000730775 0)
(0.0115031 -0.000636669 0)
(0.0113463 -0.000570878 0)
(0.0111889 -0.000534285 0)
(0.0124766 -0.00424673 0)
(0.0120899 -0.00317889 0)
(0.0116997 -0.00242236 0)
(0.0113703 -0.00191224 0)
(0.0110736 -0.00157029 0)
(0.0108231 -0.00132944 0)
(0.0105966 -0.00116627 0)
(0.0104061 -0.00105317 0)
(0.0102286 -0.000972037 0)
(0.0100374 -0.000925014 0)
(0.0117711 -0.00505937 0)
(0.0111993 -0.00392204 0)
(0.0106918 -0.00310954 0)
(0.0102867 -0.00255722 0)
(0.0099409 -0.00218151 0)
(0.00965707 -0.00191766 0)
(0.00940571 -0.0017362 0)
(0.00919419 -0.00160366 0)
(0.00899521 -0.00150307 0)
(0.00876286 -0.0014395 0)
(0.0109872 -0.00587822 0)
(0.0102369 -0.00472331 0)
(0.0096221 -0.00388587 0)
(0.00914345 -0.00331466 0)
(0.00875477 -0.00291741 0)
(0.00843797 -0.00263971 0)
(0.00816199 -0.00244737 0)
(0.00792399 -0.00230091 0)
(0.00769883 -0.00218362 0)
(0.00741467 -0.00210233 0)
(0.0101464 -0.00670029 0)
(0.00923213 -0.00557269 0)
(0.00851254 -0.00474538 0)
(0.00796734 -0.00417509 0)
(0.00753611 -0.00376836 0)
(0.00718533 -0.00347854 0)
(0.00688607 -0.00327439 0)
(0.00662444 -0.00311529 0)
(0.00639114 -0.00298507 0)
(0.00607451 -0.00288016 0)
(0.00926664 -0.00751936 0)
(0.00821768 -0.00646639 0)
(0.00741427 -0.00567174 0)
(0.00681888 -0.00512035 0)
(0.00635923 -0.00471516 0)
(0.00599607 -0.00441484 0)
(0.00569496 -0.00419265 0)
(0.00541224 -0.00401188 0)
(0.0051644 -0.00384905 0)
(0.0048372 -0.00372685 0)
(0.0136787 -3.24107e-06 0)
(0.0136201 6.71498e-06 0)
(0.0135684 1.44215e-05 0)
(0.0135256 2.09125e-05 0)
(0.0134889 2.56602e-05 0)
(0.0134569 3.01423e-05 0)
(0.0134258 3.79523e-05 0)
(0.013398 4.73963e-05 0)
(0.0133768 5.61715e-05 0)
(0.0133565 6.51554e-05 0)
(0.013334 7.47409e-05 0)
(0.0133116 8.54315e-05 0)
(0.0132876 9.8474e-05 0)
(0.0132579 0.000113699 0)
(0.0132212 0.000130206 0)
(0.0131769 0.00014827 0)
(0.0131211 0.000168743 0)
(0.0130499 0.000191852 0)
(0.0129629 0.00021788 0)
(0.0128519 0.000248382 0)
(0.0134163 -2.44121e-05 0)
(0.0133828 8.4233e-06 0)
(0.0133531 3.11273e-05 0)
(0.0133291 5.09896e-05 0)
(0.0133054 7.12848e-05 0)
(0.0132832 8.97066e-05 0)
(0.0132638 0.000109276 0)
(0.0132471 0.000130963 0)
(0.0132327 0.000155258 0)
(0.0132154 0.000183968 0)
(0.0131951 0.000215304 0)
(0.0131747 0.000248511 0)
(0.0131528 0.000285936 0)
(0.0131273 0.000329091 0)
(0.0130977 0.00037824 0)
(0.0130619 0.000434337 0)
(0.0130135 0.000498213 0)
(0.0129484 0.000570146 0)
(0.0128677 0.000652024 0)
(0.0127564 0.000746094 0)
(0.0129154 -9.30307e-05 0)
(0.0129317 -3.29223e-05 0)
(0.0129362 1.00282e-05 0)
(0.0129394 4.6066e-05 0)
(0.0129423 8.16397e-05 0)
(0.012943 0.00011543 0)
(0.012941 0.000153226 0)
(0.0129367 0.000195154 0)
(0.0129346 0.000239209 0)
(0.0129273 0.000286904 0)
(0.0129154 0.00033763 0)
(0.0129011 0.000392607 0)
(0.0128833 0.000455237 0)
(0.0128611 0.000526841 0)
(0.0128333 0.000607496 0)
(0.0127969 0.000698712 0)
(0.0127507 0.000802814 0)
(0.0126922 0.000922564 0)
(0.0126216 0.00106256 0)
(0.0125246 0.00122447 0)
(0.0121827 -0.000232826 0)
(0.0122675 -0.000139927 0)
(0.0123263 -7.02795e-05 0)
(0.0123754 -9.90385e-06 0)
(0.0124162 4.91955e-05 0)
(0.0124465 0.000105282 0)
(0.0124709 0.000165887 0)
(0.012487 0.000228446 0)
(0.0125002 0.000292193 0)
(0.0125059 0.00036106 0)
(0.0125064 0.000435604 0)
(0.0125029 0.000516519 0)
(0.0124944 0.000606062 0)
(0.0124811 0.000705744 0)
(0.0124617 0.000816678 0)
(0.0124312 0.000941203 0)
(0.0123914 0.00108224 0)
(0.0123395 0.00124617 0)
(0.0122735 0.00144004 0)
(0.0121902 0.0016646 0)
(0.0112555 -0.000466498 0)
(0.0114234 -0.000330032 0)
(0.0115441 -0.000225022 0)
(0.0116454 -0.000132135 0)
(0.0117336 -4.16341e-05 0)
(0.0118027 4.15806e-05 0)
(0.0118565 0.000129702 0)
(0.0118993 0.000217714 0)
(0.0119306 0.000307939 0)
(0.0119499 0.000403925 0)
(0.0119639 0.000504362 0)
(0.011974 0.000609866 0)
(0.0119785 0.000724233 0)
(0.0119761 0.000850981 0)
(0.011966 0.00099223 0)
(0.0119473 0.00115055 0)
(0.0119171 0.00132909 0)
(0.0118792 0.00153575 0)
(0.0118257 0.00178106 0)
(0.0117572 0.00206306 0)
(0.0101497 -0.000816788 0)
(0.0104109 -0.000620527 0)
(0.0106074 -0.000466458 0)
(0.0107734 -0.000330795 0)
(0.010913 -0.000199027 0)
(0.0110268 -7.87313e-05 0)
(0.0111098 4.67407e-05 0)
(0.0111805 0.000168004 0)
(0.0112378 0.000286961 0)
(0.0112818 0.000409131 0)
(0.0113162 0.000534649 0)
(0.0113423 0.000665373 0)
(0.011361 0.000806485 0)
(0.0113711 0.00096195 0)
(0.0113707 0.00113308 0)
(0.0113645 0.00132224 0)
(0.0113463 0.00153612 0)
(0.0113203 0.00178215 0)
(0.0112817 0.00207408 0)
(0.0112309 0.00240971 0)
(0.00891652 -0.00128173 0)
(0.0092697 -0.00101855 0)
(0.00953805 -0.000806163 0)
(0.00976654 -0.000614275 0)
(0.00995554 -0.000429695 0)
(0.0101111 -0.000260043 0)
(0.0102364 -9.48141e-05 0)
(0.0103397 6.1862e-05 0)
(0.0104245 0.000213106 0)
(0.010495 0.000364915 0)
(0.010554 0.000519211 0)
(0.0106015 0.000678588 0)
(0.0106386 0.000848226 0)
(0.0106654 0.00103186 0)
(0.0106822 0.00123076 0)
(0.0106919 0.00144812 0)
(0.0106877 0.0016948 0)
(0.0106767 0.00197757 0)
(0.0106536 0.00231009 0)
(0.0106238 0.00269177 0)
(0.0075874 -0.00187335 0)
(0.00801548 -0.00152127 0)
(0.00835108 -0.00123263 0)
(0.00863385 -0.0009708 0)
(0.00887795 -0.000731267 0)
(0.00907095 -0.000509041 0)
(0.0092392 -0.00030033 0)
(0.00937978 -0.000104723 0)
(0.00949792 8.27717e-05 0)
(0.00959837 0.000267747 0)
(0.0096842 0.000452997 0)
(0.0097581 0.000641589 0)
(0.00982133 0.00083915 0)
(0.00987093 0.0010498 0)
(0.00991007 0.00127564 0)
(0.00993984 0.00152148 0)
(0.00995253 0.00179888 0)
(0.00996271 0.00211442 0)
(0.00995946 0.00248201 0)
(0.00995286 0.0029019 0)
(0.0062327 -0.00257446 0)
(0.00668967 -0.00214719 0)
(0.00706446 -0.00178562 0)
(0.00738338 -0.00144692 0)
(0.00766399 -0.00113643 0)
(0.00789798 -0.00085161 0)
(0.00810401 -0.000589481 0)
(0.00828209 -0.000346289 0)
(0.00843935 -0.000117413 0)
(0.00857891 0.000103513 0)
(0.00870186 0.000320779 0)
(0.00881118 0.000538668 0)
(0.00890778 0.000764254 0)
(0.00898815 0.00100233 0)
(0.0090583 0.00125549 0)
(0.00911715 0.00153071 0)
(0.00915673 0.00183843 0)
(0.00919285 0.00218447 0)
(0.00921685 0.00258157 0)
(0.00923778 0.00303243 0)
(0.00487411 -0.00333078 0)
(0.00530742 -0.00280105 0)
(0.00568358 -0.00234548 0)
(0.00602201 -0.00192817 0)
(0.00632391 -0.00155846 0)
(0.00659792 -0.00122409 0)
(0.00684339 -0.000918369 0)
(0.00706546 -0.000635359 0)
(0.00726908 -0.000371172 0)
(0.00745493 -0.000118435 0)
(0.0076231 0.000128156 0)
(0.00777699 0.000373507 0)
(0.00791612 0.000625511 0)
(0.00803707 0.000889592 0)
(0.00814764 0.00116894 0)
(0.00824351 0.00147231 0)
(0.00832291 0.00180763 0)
(0.00839526 0.00218211 0)
(0.00845531 0.00260481 0)
(0.00850853 0.00308253 0)
(0.00423658 -0.00378013 0)
(0.00442962 -0.00330019 0)
(0.00469447 -0.00282602 0)
(0.00499371 -0.00236924 0)
(0.0052942 -0.00196163 0)
(0.00558448 -0.00158979 0)
(0.00585361 -0.00124821 0)
(0.00610419 -0.00093267 0)
(0.00633736 -0.000638388 0)
(0.00655126 -0.000357274 0)
(0.00674603 -8.38842e-05 0)
(0.00692637 0.000186699 0)
(0.00709005 0.000462764 0)
(0.00723392 0.000750237 0)
(0.00736838 0.00105232 0)
(0.00748553 0.00137916 0)
(0.00758915 0.00173462 0)
(0.00768463 0.00213026 0)
(0.00776891 0.00257186 0)
(0.00784172 0.00306803 0)
(0.00373028 -0.00399131 0)
(0.00395997 -0.00354115 0)
(0.00420561 -0.00310191 0)
(0.00447465 -0.00266252 0)
(0.00474828 -0.00225252 0)
(0.00501624 -0.00186741 0)
(0.00527141 -0.00150835 0)
(0.00551249 -0.00117346 0)
(0.00573857 -0.000857601 0)
(0.00594665 -0.000554095 0)
(0.00613683 -0.000259099 0)
(0.00631362 3.20289e-05 0)
(0.00647298 0.000327905 0)
(0.00661309 0.000634094 0)
(0.00674556 0.00095372 0)
(0.00686101 0.00129856 0)
(0.00696506 0.00166807 0)
(0.00706007 0.0020776 0)
(0.00714641 0.00253124 0)
(0.00722114 0.00303266 0)
(0.00315012 -0.00427733 0)
(0.00341436 -0.00378358 0)
(0.00367689 -0.0033389 0)
(0.00394513 -0.00290554 0)
(0.0042084 -0.00249475 0)
(0.00446496 -0.00210303 0)
(0.00470886 -0.00173314 0)
(0.00493907 -0.00138342 0)
(0.00515555 -0.00105018 0)
(0.005355 -0.000728492 0)
(0.00553797 -0.000415947 0)
(0.00570926 -0.000108183 0)
(0.00586325 0.000203956 0)
(0.00599956 0.000525132 0)
(0.00612959 0.00085808 0)
(0.00624335 0.00121609 0)
(0.0063486 0.00159651 0)
(0.00644309 0.00201581 0)
(0.00653144 0.0024751 0)
(0.00661245 0.00297174 0)
(0.00257534 -0.00461294 0)
(0.00286503 -0.00408614 0)
(0.00313856 -0.0036185 0)
(0.00340929 -0.00317027 0)
(0.00366559 -0.00274574 0)
(0.00391455 -0.00234123 0)
(0.00414836 -0.00195662 0)
(0.00436911 -0.00159031 0)
(0.00457735 -0.00123994 0)
(0.00476904 -0.000901414 0)
(0.00494538 -0.000573189 0)
(0.00511172 -0.000250654 0)
(0.00526125 7.62627e-05 0)
(0.00539508 0.000410915 0)
(0.00552343 0.000756003 0)
(0.00563521 0.0011247 0)
(0.00574169 0.00151356 0)
(0.00583708 0.00193909 0)
(0.00592856 0.00239734 0)
(0.00601955 0.00288535 0)
(0.00205108 -0.00492974 0)
(0.00234328 -0.00438227 0)
(0.00262004 -0.00389516 0)
(0.00288767 -0.00343165 0)
(0.00314098 -0.00299389 0)
(0.00338336 -0.00257643 0)
(0.00360847 -0.00217634 0)
(0.00382125 -0.00179405 0)
(0.00402216 -0.00142803 0)
(0.00420664 -0.00107419 0)
(0.00437664 -0.000731671 0)
(0.00453767 -0.000395336 0)
(0.00468196 -5.42319e-05 0)
(0.00481252 0.000292928 0)
(0.00493782 0.000649429 0)
(0.00504681 0.00102703 0)
(0.00515272 0.0014219 0)
(0.00524919 0.00184914 0)
(0.00534541 0.0023011 0)
(0.00544532 0.00278264 0)
(0.00157966 -0.00523551 0)
(0.00186267 -0.00467394 0)
(0.00213426 -0.00416916 0)
(0.00239514 -0.00368942 0)
(0.00264437 -0.00323757 0)
(0.00287802 -0.0028049 0)
(0.00309444 -0.00238867 0)
(0.00329957 -0.00199124 0)
(0.00349326 -0.00161055 0)
(0.00367044 -0.00124209 0)
(0.00383389 -0.000885794 0)
(0.00398859 -0.000536007 0)
(0.00412597 -0.000181157 0)
(0.00425161 0.000177545 0)
(0.00437152 0.00054442 0)
(0.0044772 0.000928157 0)
(0.0045817 0.00132564 0)
(0.00467911 0.00174983 0)
(0.00478069 0.00219407 0)
(0.00488437 0.00267116 0)
(0.00116174 -0.00551865 0)
(0.00142935 -0.00495161 0)
(0.00168706 -0.00443464 0)
(0.00193972 -0.00394111 0)
(0.00217952 -0.00347457 0)
(0.00240217 -0.00302561 0)
(0.00260871 -0.00259383 0)
(0.00280497 -0.00218208 0)
(0.00299022 -0.00178712 0)
(0.00315898 -0.00140396 0)
(0.00331472 -0.00103361 0)
(0.00346154 -0.000670193 0)
(0.00359039 -0.000302377 0)
(0.00370986 6.59639e-05 0)
(0.00382324 0.000440996 0)
(0.00392526 0.000827676 0)
(0.00402828 0.00122401 0)
(0.00412621 0.00164236 0)
(0.00423087 0.00208058 0)
(0.00433427 0.00254778 0)
(0.000789634 -0.00578026 0)
(0.00103876 -0.00521317 0)
(0.0012779 -0.00468702 0)
(0.00151736 -0.00418143 0)
(0.0017424 -0.0036998 0)
(0.00195222 -0.00323568 0)
(0.00214725 -0.0027902 0)
(0.00233311 -0.00236542 0)
(0.00250854 -0.00195708 0)
(0.00266799 -0.00155965 0)
(0.00281542 -0.00117546 0)
(0.00295376 -0.000798647 0)
(0.00307391 -0.000419116 0)
(0.0031871 -4.33252e-05 0)
(0.00329494 0.000336715 0)
(0.0033941 0.000723542 0)
(0.0034959 0.00111649 0)
(0.00359392 0.00152884 0)
(0.00369803 0.00196083 0)
(0.00380344 0.00240896 0)
(0.000456466 -0.00602078 0)
(0.000681473 -0.00545571 0)
(0.000900194 -0.00492236 0)
(0.00111984 -0.0044064 0)
(0.00132796 -0.00391196 0)
(0.00152382 -0.00343589 0)
(0.00170635 -0.00297902 0)
(0.00188141 -0.00254254 0)
(0.00204664 -0.00212177 0)
(0.00219676 -0.00171064 0)
(0.00233612 -0.00131301 0)
(0.00246665 -0.000923275 0)
(0.00257976 -0.000533459 0)
(0.00268782 -0.000151855 0)
(0.00279154 0.000230959 0)
(0.00288845 0.000616833 0)
(0.00298855 0.00100647 0)
(0.00308566 0.00141359 0)
(0.00318761 0.00183396 0)
(0.00329965 0.00226188 0)
(0.000155547 -0.00623921 0)
(0.00035299 -0.00567582 0)
(0.00054896 -0.00513774 0)
(0.000745853 -0.00461463 0)
(0.00093687 -0.0041118 0)
(0.00111792 -0.00362683 0)
(0.00128738 -0.00315994 0)
(0.00145163 -0.00271207 0)
(0.00160628 -0.00227893 0)
(0.00174697 -0.00185446 0)
(0.00187826 -0.00144401 0)
(0.00200156 -0.00104234 0)
(0.0021091 -0.000643847 0)
(0.00221307 -0.000257713 0)
(0.00231313 0.000126607 0)
(0.00240693 0.000511311 0)
(0.0025039 0.000897631 0)
(0.00259824 0.00129754 0)
(0.0027003 0.00169963 0)
(0.0028166 0.00211282 0)
(-0.000123164 -0.00643436 0)
(4.77326e-05 -0.00587234 0)
(0.000219817 -0.00533262 0)
(0.000395466 -0.00480646 0)
(0.000569227 -0.00429847 0)
(0.000734522 -0.00380561 0)
(0.000889753 -0.00332882 0)
(0.00104219 -0.00286939 0)
(0.00118522 -0.00242377 0)
(0.00131598 -0.00198741 0)
(0.00143921 -0.00156644 0)
(0.00155601 -0.00115582 0)
(0.00165915 -0.000751432 0)
(0.00175992 -0.000362278 0)
(0.00185673 2.29003e-05 0)
(0.00194684 0.000406238 0)
(0.00204033 0.000787575 0)
(0.00213173 0.00117546 0)
(0.00223707 0.00155993 0)
(0.00235034 0.00195691 0)
(-0.00038623 -0.00660714 0)
(-0.000239315 -0.00604893 0)
(-8.96784e-05 -0.00550994 0)
(6.60393e-05 -0.00498301 0)
(0.0002212 -0.00447036 0)
(0.000369194 -0.00396968 0)
(0.00050858 -0.00348383 0)
(0.000647823 -0.00301483 0)
(0.000779452 -0.0025583 0)
(0.000901186 -0.002113 0)
(0.00101809 -0.00168462 0)
(0.00113062 -0.00126795 0)
(0.00123123 -0.000859396 0)
(0.00133 -0.000467234 0)
(0.00142439 -8.03689e-05 0)
(0.00151175 0.000301623 0)
(0.00160326 0.0006759 0)
(0.00169469 0.00104914 0)
(0.00180119 0.00142246 0)
(0.00191164 0.00179673 0)
(-0.000636059 -0.00676194 0)
(-0.000511072 -0.00621032 0)
(-0.00038272 -0.00567262 0)
(-0.000248036 -0.00514474 0)
(-0.000112594 -0.00462756 0)
(1.75762e-05 -0.00412055 0)
(0.000141751 -0.0036277 0)
(0.000267834 -0.00315235 0)
(0.000390544 -0.00268688 0)
(0.000505646 -0.00223411 0)
(0.000618452 -0.00179952 0)
(0.000728166 -0.00137727 0)
(0.000826265 -0.000964184 0)
(0.000922134 -0.000568478 0)
(0.00101338 -0.000180206 0)
(0.00109879 0.00019866 0)
(0.00118959 0.000564165 0)
(0.00128271 0.000925864 0)
(0.00138365 0.00128715 0)
(0.00149612 0.0016396 0)
(-0.000877301 -0.00690258 0)
(-0.000773635 -0.0063561 0)
(-0.00066678 -0.00581956 0)
(-0.000553018 -0.00529077 0)
(-0.000435472 -0.00477074 0)
(-0.000321567 -0.00425937 0)
(-0.000209744 -0.00376032 0)
(-9.64891e-05 -0.00327942 0)
(1.81468e-05 -0.00280742 0)
(0.000127081 -0.00234841 0)
(0.000235543 -0.00190877 0)
(0.000341724 -0.00148205 0)
(0.000436591 -0.00106513 0)
(0.000529753 -0.000667034 0)
(0.000619533 -0.000279544 0)
(0.00070545 9.40806e-05 0)
(0.000797033 0.000451462 0)
(0.000888427 0.000806905 0)
(0.000983855 0.00114844 0)
(0.00109535 0.00148038 0)
(-0.00111895 -0.00702744 0)
(-0.00103685 -0.00648494 0)
(-0.000950001 -0.00595075 0)
(-0.000853913 -0.00542231 0)
(-0.000751428 -0.00490023 0)
(-0.000653152 -0.00438437 0)
(-0.000552839 -0.00388087 0)
(-0.000450661 -0.00339584 0)
(-0.000342911 -0.00292259 0)
(-0.000237474 -0.00246058 0)
(-0.000130984 -0.00201586 0)
(-2.6704e-05 -0.00158357 0)
(6.70281e-05 -0.0011625 0)
(0.000161132 -0.000762996 0)
(0.000253605 -0.00037737 0)
(0.000341614 -7.40466e-06 0)
(0.000433511 0.000346142 0)
(0.000519275 0.000693152 0)
(0.000616398 0.00101416 0)
(0.000724561 0.00132116 0)
(-0.00136971 -0.00713404 0)
(-0.00130732 -0.00660072 0)
(-0.00123707 -0.00606946 0)
(-0.00115629 -0.00554078 0)
(-0.00106843 -0.00501731 0)
(-0.000983098 -0.00449881 0)
(-0.000892166 -0.00399494 0)
(-0.000793725 -0.00350712 0)
(-0.000690018 -0.00303183 0)
(-0.000589381 -0.00256674 0)
(-0.000487408 -0.0021178 0)
(-0.00038528 -0.00168203 0)
(-0.000290148 -0.00125946 0)
(-0.000191995 -0.000859511 0)
(-9.51666e-05 -0.000473689 0)
(-5.48106e-06 -0.000103747 0)
(8.48204e-05 0.000247721 0)
(0.000168936 0.000578034 0)
(0.000268993 0.000883112 0)
(0.000380281 0.00116486 0)
(-0.00163596 -0.00723379 0)
(-0.00158843 -0.00670528 0)
(-0.00153374 -0.00617429 0)
(-0.00146707 -0.00564616 0)
(-0.00139363 -0.00512353 0)
(-0.00131551 -0.00460692 0)
(-0.00123153 -0.00410348 0)
(-0.00113594 -0.00361466 0)
(-0.0010353 -0.00313591 0)
(-0.000937846 -0.00266695 0)
(-0.000837134 -0.0022157 0)
(-0.000732159 -0.00177921 0)
(-0.000630346 -0.00135612 0)
(-0.00052574 -0.000954343 0)
(-0.000426526 -0.000565356 0)
(-0.000335556 -0.000194268 0)
(-0.000241272 0.000150333 0)
(-0.000143688 0.000465798 0)
(-4.64894e-05 0.000756341 0)
(5.23653e-05 0.00101528 0)
(-0.00191925 -0.00732435 0)
(-0.00188788 -0.0067963 0)
(-0.00184708 -0.00626838 0)
(-0.00179215 -0.00574457 0)
(-0.00172566 -0.00522293 0)
(-0.00165146 -0.00470872 0)
(-0.00156963 -0.00420621 0)
(-0.00147752 -0.00371695 0)
(-0.00138122 -0.00323587 0)
(-0.00128465 -0.00276573 0)
(-0.00117776 -0.00231526 0)
(-0.00106337 -0.00187848 0)
(-0.000956495 -0.00145132 0)
(-0.000850784 -0.0010449 0)
(-0.000744551 -0.000655645 0)
(-0.000636158 -0.000287896 0)
(-0.00052861 4.9595e-05 0)
(-0.000431894 0.000365881 0)
(-0.000333016 0.000639279 0)
(-0.000223033 0.000868165 0)
(-0.00222779 -0.00740068 0)
(-0.00221299 -0.00687718 0)
(-0.00218159 -0.00635536 0)
(-0.00213443 -0.0058366 0)
(-0.00206989 -0.00532079 0)
(-0.00199727 -0.00480725 0)
(-0.00192003 -0.00430354 0)
(-0.00183269 -0.00381463 0)
(-0.00173333 -0.00333703 0)
(-0.00162641 -0.00287021 0)
(-0.00151255 -0.00241785 0)
(-0.00139857 -0.00197625 0)
(-0.00128649 -0.0015482 0)
(-0.00116122 -0.00114408 0)
(-0.00103676 -0.0007539 0)
(-0.000923025 -0.000382635 0)
(-0.000799575 -4.8028e-05 0)
(-0.000687729 0.000262618 0)
(-0.000581479 0.000525208 0)
(-0.000469413 0.000730951 0)
(-0.00256188 -0.00747382 0)
(-0.00255659 -0.0069518 0)
(-0.00253105 -0.00643546 0)
(-0.00248416 -0.00592389 0)
(-0.00242464 -0.00541005 0)
(-0.00235858 -0.00489689 0)
(-0.00228053 -0.0043977 0)
(-0.00218222 -0.00391531 0)
(-0.00207358 -0.0034395 0)
(-0.00196717 -0.00297011 0)
(-0.00185034 -0.00251792 0)
(-0.00171882 -0.00208033 0)
(-0.00159039 -0.00165324 0)
(-0.00145779 -0.0012459 0)
(-0.00131648 -0.000856298 0)
(-0.00118074 -0.000486752 0)
(-0.00103719 -0.000143945 0)
(-0.000903042 0.000160587 0)
(-0.000777262 0.000417017 0)
(-0.000646022 0.000599346 0)
(3.49851e-05 -0.0127941 0)
(0.00011987 -0.0125379 0)
(0.000248177 -0.0120578 0)
(0.000454701 -0.0113455 0)
(0.000756969 -0.0104527 0)
(0.00116834 -0.00939723 0)
(0.00169769 -0.00822963 0)
(0.00233776 -0.0069947 0)
(0.0030706 -0.00574728 0)
(0.00391966 -0.00452808 0)
(-3.47174e-06 -0.0127624 0)
(6.66537e-06 -0.0125189 0)
(5.5943e-05 -0.0120725 0)
(0.000180624 -0.0114033 0)
(0.000400412 -0.0105626 0)
(0.000726417 -0.00956563 0)
(0.00117903 -0.00845153 0)
(0.00173942 -0.00726765 0)
(0.00242515 -0.00604734 0)
(0.00322763 -0.00481982 0)
(-3.07776e-05 -0.0127015 0)
(-7.45475e-05 -0.0124714 0)
(-7.77486e-05 -0.012056 0)
(-1.39742e-05 -0.0114283 0)
(0.000142775 -0.0106374 0)
(0.000399818 -0.00970197 0)
(0.000783148 -0.00865212 0)
(0.00127036 -0.00753219 0)
(0.00189145 -0.00635365 0)
(0.00261631 -0.00514784 0)
(-4.72142e-05 -0.0126305 0)
(-0.000131488 -0.012413 0)
(-0.000171804 -0.0120283 0)
(-0.000153489 -0.0114436 0)
(-4.90136e-05 -0.0107039 0)
(0.000149952 -0.00982933 0)
(0.000465083 -0.0088408 0)
(0.00087812 -0.00777939 0)
(0.00141857 -0.00664489 0)
(0.00205664 -0.00547789 0)
(-5.96502e-05 -0.0125539 0)
(-0.000171357 -0.0123502 0)
(-0.000243451 -0.011995 0)
(-0.000262407 -0.0114516 0)
(-0.000203146 -0.010759 0)
(-5.65698e-05 -0.00994276 0)
(0.000197679 -0.0090132 0)
(0.000543746 -0.00800251 0)
(0.00100971 -0.00691146 0)
(0.00157083 -0.00578283 0)
(-7.26531e-05 -0.0124746 0)
(-0.000201807 -0.0122834 0)
(-0.000299419 -0.0119499 0)
(-0.000346536 -0.0114467 0)
(-0.000323163 -0.0107969 0)
(-0.000221307 -0.0100303 0)
(-2.34853e-05 -0.00915474 0)
(0.00026014 -0.00819308 0)
(0.000654194 -0.00715009 0)
(0.00114364 -0.00606596 0)
(-8.09648e-05 -0.0123931 0)
(-0.000226808 -0.0122172 0)
(-0.000344214 -0.0119 0)
(-0.00041364 -0.0114344 0)
(-0.000423465 -0.0108246 0)
(-0.000359794 -0.010102 0)
(-0.000212197 -0.00927553 0)
(1.59963e-05 -0.00836078 0)
(0.000346185 -0.00736581 0)
(0.000770644 -0.00632774 0)
(-8.51451e-05 -0.0123124 0)
(-0.000247701 -0.0121506 0)
(-0.00038016 -0.0118478 0)
(-0.000469037 -0.0114154 0)
(-0.00050841 -0.0108411 0)
(-0.000479874 -0.010157 0)
(-0.000376281 -0.00937475 0)
(-0.000196001 -0.00850664 0)
(7.82986e-05 -0.00755995 0)
(0.000443607 -0.00656939 0)
(-9.22543e-05 -0.0122333 0)
(-0.000267268 -0.0120843 0)
(-0.000411704 -0.0117952 0)
(-0.000519917 -0.01139 0)
(-0.000583505 -0.010847 0)
(-0.000586568 -0.010197 0)
(-0.000522226 -0.00945531 0)
(-0.000383523 -0.00863268 0)
(-0.000157897 -0.00773232 0)
(0.00015329 -0.00678736 0)
(-0.000101463 -0.0121532 0)
(-0.000284393 -0.0120196 0)
(-0.000441191 -0.0117427 0)
(-0.000568602 -0.0113585 0)
(-0.000654206 -0.010843 0)
(-0.000685176 -0.0102242 0)
(-0.000655149 -0.00951902 0)
(-0.000553393 -0.00873795 0)
(-0.00037121 -0.00788113 0)
(-0.000110346 -0.00697948 0)
(-0.000108017 -0.0120739 0)
(-0.000299243 -0.0119577 0)
(-0.00047166 -0.0116904 0)
(-0.000616257 -0.0113219 0)
(-0.000723217 -0.0108312 0)
(-0.000778989 -0.0102408 0)
(-0.000778744 -0.00956809 0)
(-0.000711299 -0.00882302 0)
(-0.000568894 -0.00800765 0)
(-0.000354277 -0.00714895 0)
(-0.000111978 -0.0119998 0)
(-0.000315665 -0.0118975 0)
(-0.000506091 -0.0116379 0)
(-0.000665302 -0.0112822 0)
(-0.000792423 -0.0108135 0)
(-0.000870924 -0.0102488 0)
(-0.000897272 -0.00960473 0)
(-0.00086185 -0.00889198 0)
(-0.000755557 -0.00811699 0)
(-0.000582288 -0.00730024 0)
(-0.000117166 -0.0119317 0)
(-0.000337407 -0.0118362 0)
(-0.000546343 -0.0115849 0)
(-0.000719962 -0.011241 0)
(-0.000865961 -0.010792 0)
(-0.000966055 -0.01025 0)
(-0.00101693 -0.00963081 0)
(-0.00101002 -0.00894938 0)
(-0.00093551 -0.00821248 0)
(-0.000798606 -0.00743352 0)
(-0.000125789 -0.0118656 0)
(-0.000364673 -0.0117728 0)
(-0.000592341 -0.0115321 0)
(-0.000783265 -0.0111994 0)
(-0.000947965 -0.0107667 0)
(-0.00106906 -0.0102442 0)
(-0.00114262 -0.00964784 0)
(-0.00116029 -0.00899685 0)
(-0.00111392 -0.0082927 0)
(-0.00101005 -0.00754884 0)
(-0.000136571 -0.0117982 0)
(-0.000395177 -0.0117074 0)
(-0.000643238 -0.0114791 0)
(-0.000855395 -0.011156 0)
(-0.00103947 -0.010737 0)
(-0.00118138 -0.0102315 0)
(-0.00127662 -0.00965943 0)
(-0.0013173 -0.00903746 0)
(-0.00129879 -0.00836132 0)
(-0.00122619 -0.00765301 0)
(-0.000147824 -0.0117288 0)
(-0.000428243 -0.0116394 0)
(-0.000699457 -0.0114226 0)
(-0.000935917 -0.0111088 0)
(-0.0011409 -0.0107047 0)
(-0.00130487 -0.0102173 0)
(-0.00142276 -0.0096684 0)
(-0.0014874 -0.00906859 0)
(-0.00149756 -0.00841977 0)
(-0.00145197 -0.00774233 0)
(-0.000159847 -0.0116569 0)
(-0.000465961 -0.0115672 0)
(-0.000763458 -0.0113623 0)
(-0.00102716 -0.0110591 0)
(-0.00125582 -0.0106678 0)
(-0.00144405 -0.0101974 0)
(-0.00158692 -0.00966849 0)
(-0.00167886 -0.00908731 0)
(-0.00171499 -0.00846981 0)
(-0.00169605 -0.00782042 0)
(-0.000174353 -0.0115806 0)
(-0.000511705 -0.0114907 0)
(-0.000838969 -0.0112964 0)
(-0.00113384 -0.0110037 0)
(-0.00139166 -0.0106273 0)
(-0.00160779 -0.0101745 0)
(-0.00177766 -0.00966255 0)
(-0.00189802 -0.00910223 0)
(-0.00195473 -0.00851014 0)
(-0.00196212 -0.00789084 0)
(-0.0001929 -0.011498 0)
(-0.000568527 -0.0114077 0)
(-0.000930579 -0.0112222 0)
(-0.00125972 -0.0109421 0)
(-0.00155054 -0.0105806 0)
(-0.00179887 -0.0101435 0)
(-0.00199927 -0.00964642 0)
(-0.00214441 -0.00911069 0)
(-0.00222505 -0.00853993 0)
(-0.00225536 -0.00795054 0)
(-0.000215502 -0.0114022 0)
(-0.000635682 -0.0113156 0)
(-0.00103843 -0.0111401 0)
(-0.00140973 -0.010874 0)
(-0.00174121 -0.0105278 0)
(-0.00202525 -0.0101073 0)
(-0.00225551 -0.00963043 0)
(-0.00241685 -0.00911746 0)
(-0.00252007 -0.0085692 0)
(-0.00257217 -0.00800742 0)
)


// ************************************************************************* //
