/*--------------------------------*- C++ -*----------------------------------*\
| =========                 |                                                 |
| \\      /  F ield         | foam-extend: Open Source CFD                    |
|  \\    /   O peration     | Version:     4.1                                |
|   \\  /    A nd           | Web:         http://www.foam-extend.org         |
|    \\/     M anipulation  |                                                 |
\*---------------------------------------------------------------------------*/
FoamFile
{
    version     2.0;
    format      ascii;
    class       vectorField;
    location    "1";
    object      residualD_iteration14;
}
// * * * * * * * * * * * * * * * * * * * * * * * * * * * * * * * * * * * * * //


1000
(
(0.00485137 -0.00535272 0)
(0.00417172 -0.00475031 0)
(0.00365518 -0.00426486 0)
(0.0032797 -0.00391483 0)
(0.00299883 -0.00363296 0)
(0.00277696 -0.003405 0)
(0.00260387 -0.00321428 0)
(0.00246828 -0.00303819 0)
(0.00234933 -0.00289119 0)
(0.00233602 -0.00274202 0)
(0.0043211 -0.00582569 0)
(0.0036043 -0.00531596 0)
(0.00307381 -0.00488637 0)
(0.00269147 -0.00456307 0)
(0.00241668 -0.00429583 0)
(0.00221053 -0.00407918 0)
(0.00205688 -0.00389564 0)
(0.00194471 -0.00372545 0)
(0.00185984 -0.0035866 0)
(0.00184141 -0.00343388 0)
(0.00379641 -0.00629149 0)
(0.00306939 -0.00588624 0)
(0.00253979 -0.00551402 0)
(0.00216321 -0.00523045 0)
(0.00189625 -0.00499342 0)
(0.00170287 -0.00479818 0)
(0.00156228 -0.00462475 0)
(0.00145971 -0.00447079 0)
(0.00138244 -0.00434639 0)
(0.00135824 -0.00421257 0)
(0.00327239 -0.00672597 0)
(0.00256264 -0.00642129 0)
(0.00205228 -0.0061197 0)
(0.00169538 -0.00589068 0)
(0.00144381 -0.00568617 0)
(0.00126329 -0.00551295 0)
(0.00113459 -0.00535376 0)
(0.00103856 -0.00521797 0)
(0.000966303 -0.0051043 0)
(0.000932783 -0.00498312 0)
(0.00275164 -0.00711567 0)
(0.00208739 -0.00692011 0)
(0.00161631 -0.00669394 0)
(0.001289 -0.00651526 0)
(0.00105905 -0.00634246 0)
(0.000896375 -0.00619101 0)
(0.000781273 -0.00605123 0)
(0.000695604 -0.00593131 0)
(0.000628217 -0.00582425 0)
(0.000591014 -0.0057086 0)
(0.00223916 -0.00745807 0)
(0.00164921 -0.00737427 0)
(0.001233 -0.00721502 0)
(0.000946207 -0.00707532 0)
(0.000746905 -0.00693257 0)
(0.000608614 -0.00680092 0)
(0.000507285 -0.00667893 0)
(0.000430577 -0.00657046 0)
(0.000369815 -0.00647057 0)
(0.000333704 -0.00636646 0)
(0.00173272 -0.00774734 0)
(0.00124368 -0.00775176 0)
(0.000899868 -0.00764988 0)
(0.000665548 -0.00755001 0)
(0.000503723 -0.00743605 0)
(0.000389956 -0.00732264 0)
(0.000305399 -0.00721527 0)
(0.000241984 -0.00711294 0)
(0.000192371 -0.00701538 0)
(0.00016118 -0.0069201 0)
(0.00123119 -0.00796947 0)
(0.000868338 -0.00804189 0)
(0.000611754 -0.00799127 0)
(0.000435607 -0.00793423 0)
(0.000314827 -0.00783835 0)
(0.000230034 -0.00773582 0)
(0.000167454 -0.00763498 0)
(0.000120391 -0.00753964 0)
(8.35952e-05 -0.00744922 0)
(5.97379e-05 -0.00736432 0)
(0.000737074 -0.00812182 0)
(0.000511602 -0.00824696 0)
(0.000352193 -0.00823251 0)
(0.000244651 -0.0081939 0)
(0.000171274 -0.00810768 0)
(0.000118922 -0.00801952 0)
(7.93598e-05 -0.00792843 0)
(4.97336e-05 -0.00783513 0)
(2.77273e-05 -0.00774659 0)
(1.32485e-05 -0.00767059 0)
(0.000246366 -0.00820198 0)
(0.000170008 -0.00835769 0)
(0.000116678 -0.008355 0)
(7.94624e-05 -0.00832595 0)
(5.34408e-05 -0.00824854 0)
(3.62775e-05 -0.00816063 0)
(2.37977e-05 -0.0080698 0)
(1.35519e-05 -0.00798208 0)
(5.61972e-06 -0.00789891 0)
(8.12183e-07 -0.00782629 0)
(0.00836007 -0.000246002 0)
(0.00850336 -0.000168196 0)
(0.00850142 -0.000114555 0)
(0.00845966 -8.24102e-05 0)
(0.00838098 -5.87173e-05 0)
(0.00829537 -3.35382e-05 0)
(0.00820564 -2.16496e-05 0)
(0.00812312 -2.36519e-05 0)
(0.00804451 -6.46951e-06 0)
(0.00797129 9.52691e-06 0)
(0.00827607 -0.000736013 0)
(0.00839317 -0.000509606 0)
(0.00837424 -0.00035023 0)
(0.00832236 -0.000236269 0)
(0.00823681 -0.000167815 0)
(0.00814875 -0.000127936 0)
(0.00805385 -8.09221e-05 0)
(0.00796713 -4.61491e-05 0)
(0.00788857 -1.21745e-05 0)
(0.00781086 8.77343e-06 0)
(0.00811834 -0.00123664 0)
(0.00818298 -0.000867921 0)
(0.00812959 -0.000615811 0)
(0.00805613 -0.000447081 0)
(0.00795514 -0.000320741 0)
(0.0078561 -0.000234093 0)
(0.00775652 -0.000157745 0)
(0.00766526 -0.000103226 0)
(0.00758317 -6.22121e-05 0)
(0.00749857 -2.92777e-05 0)
(0.00788533 -0.00173531 0)
(0.0078751 -0.00125007 0)
(0.00777454 -0.000909184 0)
(0.00766839 -0.000681991 0)
(0.00754942 -0.000513638 0)
(0.00743645 -0.000396934 0)
(0.00732535 -0.000307561 0)
(0.00722382 -0.000229868 0)
(0.00713571 -0.00016442 0)
(0.00703913 -0.000109724 0)
(0.00758643 -0.00224613 0)
(0.00748075 -0.00165547 0)
(0.00732243 -0.00124453 0)
(0.00717804 -0.000969289 0)
(0.00703419 -0.000771134 0)
(0.00690296 -0.000628533 0)
(0.00678046 -0.000516147 0)
(0.00666906 -0.000414376 0)
(0.00657325 -0.00033054 0)
(0.00645991 -0.000263046 0)
(0.00722742 -0.002771 0)
(0.00701658 -0.00210055 0)
(0.00679049 -0.00163402 0)
(0.00660096 -0.00132118 0)
(0.00642951 -0.00109149 0)
(0.00627832 -0.000920261 0)
(0.00613997 -0.000784365 0)
(0.00601523 -0.000672853 0)
(0.00590894 -0.000581259 0)
(0.00577579 -0.000502862 0)
(0.00681503 -0.00329268 0)
(0.00649428 -0.0025836 0)
(0.0061983 -0.0020757 0)
(0.0059604 -0.00172522 0)
(0.00575843 -0.00147109 0)
(0.00558549 -0.00127932 0)
(0.00542987 -0.00112996 0)
(0.00529064 -0.00101499 0)
(0.00517392 -0.000916594 0)
(0.00501893 -0.000828429 0)
(0.00636231 -0.00381311 0)
(0.00593268 -0.00308959 0)
(0.00556933 -0.00256187 0)
(0.00528507 -0.00219288 0)
(0.00505264 -0.00192497 0)
(0.00485757 -0.00171959 0)
(0.00468579 -0.00156243 0)
(0.00452882 -0.0014428 0)
(0.00439714 -0.00133525 0)
(0.00421927 -0.00124084 0)
(0.00587684 -0.0043304 0)
(0.00534673 -0.00362298 0)
(0.00491932 -0.00308962 0)
(0.00459391 -0.00271751 0)
(0.00433303 -0.0024378 0)
(0.00411887 -0.00222519 0)
(0.00393582 -0.00206488 0)
(0.00376703 -0.00194315 0)
(0.00362607 -0.00183448 0)
(0.0034381 -0.00174405 0)
(0.00536892 -0.00484467 0)
(0.00475471 -0.00417704 0)
(0.00427418 -0.00366015 0)
(0.00391811 -0.00329133 0)
(0.00363919 -0.00300506 0)
(0.0034119 -0.00278729 0)
(0.00321811 -0.00261605 0)
(0.00303441 -0.00248095 0)
(0.00286972 -0.00235649 0)
(0.00269604 -0.00226368 0)
(0.00791415 1.21895e-05 0)
(0.00785776 1.79642e-05 0)
(0.00780768 2.61028e-05 0)
(0.00776462 3.32204e-05 0)
(0.00772622 3.7425e-05 0)
(0.0076899 3.79956e-05 0)
(0.00765704 3.82844e-05 0)
(0.00762935 4.4718e-05 0)
(0.00760331 5.57937e-05 0)
(0.00757561 6.43844e-05 0)
(0.00754689 6.90757e-05 0)
(0.00751731 7.26576e-05 0)
(0.00748483 7.88245e-05 0)
(0.00744748 9.08626e-05 0)
(0.00740318 0.000108233 0)
(0.00734987 0.000126736 0)
(0.00728499 0.000143428 0)
(0.00720469 0.000159692 0)
(0.00710864 0.000178605 0)
(0.00698593 0.000202419 0)
(0.00776082 2.118e-05 0)
(0.00771968 4.99908e-05 0)
(0.00768262 7.41148e-05 0)
(0.00764922 8.80611e-05 0)
(0.0076186 9.56835e-05 0)
(0.00759089 0.000104642 0)
(0.00756566 0.000119726 0)
(0.007542 0.000141379 0)
(0.00751832 0.000161619 0)
(0.00749342 0.000174606 0)
(0.00746767 0.000188224 0)
(0.0074397 0.000209631 0)
(0.0074078 0.000240052 0)
(0.00737095 0.000278371 0)
(0.00732773 0.000322011 0)
(0.00727597 0.000367845 0)
(0.0072128 0.000415292 0)
(0.00713419 0.000468579 0)
(0.007041 0.000533281 0)
(0.00692126 0.000610333 0)
(0.00746461 5.23496e-06 0)
(0.00744954 6.00957e-05 0)
(0.00743405 9.74291e-05 0)
(0.00742169 0.000120608 0)
(0.00740809 0.000139345 0)
(0.00739131 0.000160956 0)
(0.00737399 0.000187939 0)
(0.00735773 0.000218976 0)
(0.00734138 0.000246896 0)
(0.00732246 0.000271247 0)
(0.00730135 0.00030378 0)
(0.00727657 0.000348789 0)
(0.0072476 0.000402862 0)
(0.00721413 0.000463079 0)
(0.00717429 0.000528638 0)
(0.00712467 0.000599513 0)
(0.0070636 0.00067732 0)
(0.00698742 0.000767902 0)
(0.00689718 0.000880848 0)
(0.00678116 0.00101083 0)
(0.0070291 -5.33917e-05 0)
(0.00705602 2.16375e-05 0)
(0.00707459 7.05408e-05 0)
(0.00708972 0.000109125 0)
(0.0070981 0.000150468 0)
(0.00710045 0.000195159 0)
(0.00709942 0.000240379 0)
(0.00709542 0.000286321 0)
(0.00708742 0.00032525 0)
(0.00707468 0.000363963 0)
(0.0070593 0.000415929 0)
(0.00704019 0.000481212 0)
(0.00701641 0.000553545 0)
(0.00698728 0.000632051 0)
(0.00695111 0.000719144 0)
(0.00690454 0.000815862 0)
(0.00684715 0.000925096 0)
(0.006775 0.00105203 0)
(0.0066907 0.00121025 0)
(0.0065818 0.00139269 0)
(0.00647547 -0.000184147 0)
(0.00654976 -7.90631e-05 0)
(0.00660839 -1.97873e-06 0)
(0.0066599 6.57648e-05 0)
(0.00669796 0.00013424 0)
(0.0067246 0.000200416 0)
(0.00674178 0.000258856 0)
(0.00675233 0.000319253 0)
(0.00675636 0.00037298 0)
(0.00675409 0.000429083 0)
(0.00674651 0.000501061 0)
(0.00673316 0.000587089 0)
(0.00671414 0.000679534 0)
(0.00668908 0.000778458 0)
(0.00665639 0.000887607 0)
(0.00661506 0.00100915 0)
(0.00656226 0.00114962 0)
(0.00649782 0.00131526 0)
(0.00641939 0.00151798 0)
(0.00631904 0.00175486 0)
(0.00582102 -0.000393382 0)
(0.00595231 -0.000249273 0)
(0.00605676 -0.00013659 0)
(0.00614696 -3.40294e-05 0)
(0.00621513 6.40567e-05 0)
(0.0062681 0.000155858 0)
(0.0063088 0.000235871 0)
(0.00633866 0.000312463 0)
(0.00635789 0.000386286 0)
(0.00636831 0.000468169 0)
(0.00637025 0.000566403 0)
(0.00636387 0.000675036 0)
(0.00635064 0.000786475 0)
(0.00633103 0.000903233 0)
(0.0063026 0.00103162 0)
(0.00626654 0.00117725 0)
(0.00621834 0.00134895 0)
(0.0061601 0.00155522 0)
(0.00608752 0.00180413 0)
(0.00599592 0.00209449 0)
(0.00508844 -0.000685022 0)
(0.00527503 -0.000497482 0)
(0.00542582 -0.000342031 0)
(0.00555543 -0.000198052 0)
(0.00565911 -6.37916e-05 0)
(0.00574081 5.29053e-05 0)
(0.00580823 0.000164417 0)
(0.00586015 0.000268991 0)
(0.00589697 0.000371658 0)
(0.00592052 0.000482872 0)
(0.00593282 0.000606511 0)
(0.00593542 0.000734684 0)
(0.00593002 0.000862482 0)
(0.00591685 0.000996011 0)
(0.0058942 0.00114456 0)
(0.00586292 0.00131801 0)
(0.00581867 0.00152436 0)
(0.00576479 0.00177176 0)
(0.00569841 0.00206543 0)
(0.00561709 0.00240431 0)
(0.00430461 -0.00105557 0)
(0.00454177 -0.000817123 0)
(0.00474021 -0.000608153 0)
(0.0049074 -0.000416198 0)
(0.00504697 -0.000238426 0)
(0.00515824 -8.41505e-05 0)
(0.00525033 6.02089e-05 0)
(0.00532221 0.000196048 0)
(0.00537697 0.000330233 0)
(0.00541559 0.000469049 0)
(0.0054409 0.000613348 0)
(0.00545542 0.000757612 0)
(0.00546052 0.000902047 0)
(0.00545468 0.00105565 0)
(0.00543755 0.00122917 0)
(0.00541048 0.00143441 0)
(0.00537003 0.00167604 0)
(0.00532101 0.00196318 0)
(0.0052608 0.00229496 0)
(0.00519035 0.00267248 0)
(0.00351369 -0.00151306 0)
(0.00378046 -0.00122674 0)
(0.00401062 -0.000964755 0)
(0.00420587 -0.000715716 0)
(0.0043717 -0.000491325 0)
(0.00451069 -0.000285906 0)
(0.00462698 -0.000100386 0)
(0.00472114 7.25549e-05 0)
(0.00479597 0.000240429 0)
(0.00485311 0.000407168 0)
(0.00489517 0.000573386 0)
(0.00492432 0.000737686 0)
(0.00494148 0.000904421 0)
(0.00494465 0.00108349 0)
(0.00493516 0.00128633 0)
(0.00491432 0.00152501 0)
(0.00487964 0.00179881 0)
(0.00483767 0.00212054 0)
(0.0047849 0.00248281 0)
(0.0047253 0.00289058 0)
(0.00272432 -0.00203179 0)
(0.00297847 -0.00169965 0)
(0.00321057 -0.00137421 0)
(0.00342389 -0.00106419 0)
(0.00361126 -0.000786655 0)
(0.00377548 -0.000533125 0)
(0.0039162 -0.000306775 0)
(0.00403518 -9.63888e-05 0)
(0.00413351 0.000104912 0)
(0.00421334 0.000299955 0)
(0.00427665 0.000490706 0)
(0.00432509 0.000679375 0)
(0.00435909 0.000872576 0)
(0.0043769 0.00107969 0)
(0.0043817 0.00131243 0)
(0.00437366 0.00158146 0)
(0.0043521 0.00188286 0)
(0.00432315 0.00223243 0)
(0.0042832 0.00262003 0)
(0.00423669 0.0030512 0)
(0.00238825 -0.00234318 0)
(0.0025197 -0.00203198 0)
(0.00268037 -0.00169439 0)
(0.00285154 -0.00136091 0)
(0.00302195 -0.00104997 0)
(0.00318301 -0.000765612 0)
(0.0033284 -0.000506727 0)
(0.00345576 -0.000264337 0)
(0.00356446 -3.3534e-05 0)
(0.00365549 0.000187719 0)
(0.00372939 0.000403035 0)
(0.00378752 0.000617463 0)
(0.00383015 0.000837659 0)
(0.0038557 0.00107071 0)
(0.00386926 0.00132896 0)
(0.00386973 0.00162072 0)
(0.00385879 0.0019423 0)
(0.00384013 0.00230827 0)
(0.00381187 0.00271304 0)
(0.00377696 0.00315668 0)
(0.00208772 -0.00244733 0)
(0.00222062 -0.00214595 0)
(0.00237132 -0.0018296 0)
(0.00252408 -0.00150651 0)
(0.00267233 -0.00119271 0)
(0.00281422 -0.000897928 0)
(0.00294361 -0.000622508 0)
(0.00305807 -0.000361844 0)
(0.00315708 -0.000112488 0)
(0.00324062 0.000127815 0)
(0.00330797 0.000363235 0)
(0.00336025 0.000599695 0)
(0.00339752 0.000842375 0)
(0.00341882 0.0010958 0)
(0.00342994 0.00137292 0)
(0.00342844 0.00167782 0)
(0.00341808 0.00201059 0)
(0.00340006 0.00238194 0)
(0.00337512 0.00279388 0)
(0.00334586 0.00323992 0)
(0.00172093 -0.00261957 0)
(0.00186883 -0.0022859 0)
(0.00201625 -0.0019583 0)
(0.00215918 -0.00162829 0)
(0.00229444 -0.00130913 0)
(0.00242337 -0.00100492 0)
(0.00254003 -0.000718158 0)
(0.00264367 -0.000444428 0)
(0.00273405 -0.00017995 0)
(0.00281042 7.70977e-05 0)
(0.00287159 0.000330856 0)
(0.00291906 0.000587972 0)
(0.00295254 0.000851298 0)
(0.0029716 0.00112252 0)
(0.00298214 0.00141528 0)
(0.0029808 0.00172941 0)
(0.00297239 0.00206973 0)
(0.00295663 0.00244329 0)
(0.00293653 0.00285817 0)
(0.00291508 0.00330313 0)
(0.00135469 -0.00279099 0)
(0.00151131 -0.00243716 0)
(0.00165823 -0.00209814 0)
(0.00179467 -0.00175852 0)
(0.0019205 -0.00143032 0)
(0.00203829 -0.00111608 0)
(0.0021434 -0.000818122 0)
(0.00223692 -0.000531232 0)
(0.00231852 -0.00025138 0)
(0.00238704 2.26963e-05 0)
(0.00244144 0.000295294 0)
(0.00248381 0.000573264 0)
(0.00251338 0.000856307 0)
(0.00253007 0.00114362 0)
(0.00253938 0.00144991 0)
(0.00253757 0.00177092 0)
(0.00253063 0.00211824 0)
(0.002517 0.00249335 0)
(0.00250161 0.00290777 0)
(0.00248783 0.00334996 0)
(0.00101697 -0.00295233 0)
(0.00116881 -0.00258009 0)
(0.00131073 -0.002227 0)
(0.0014395 -0.00187967 0)
(0.00155713 -0.00154219 0)
(0.00166468 -0.00121962 0)
(0.00175982 -0.00091213 0)
(0.00184385 -0.000612922 0)
(0.00191647 -0.000317686 0)
(0.00197662 -2.63255e-05 0)
(0.00202369 0.000265241 0)
(0.00206024 0.000563296 0)
(0.00208504 0.000864 0)
(0.00209855 0.00116527 0)
(0.00210552 0.00148324 0)
(0.00210201 0.00180873 0)
(0.00209564 0.00216086 0)
(0.00208403 0.00253602 0)
(0.00207326 0.002947 0)
(0.00206586 0.00338614 0)
(0.000708371 -0.00310388 0)
(0.00084876 -0.00272033 0)
(0.000980287 -0.00235506 0)
(0.00110002 -0.00199694 0)
(0.00120781 -0.0016493 0)
(0.00130461 -0.00131815 0)
(0.00138972 -0.00100088 0)
(0.00146375 -0.000688505 0)
(0.0015268 -0.00037715 0)
(0.001578 -6.83706e-05 0)
(0.00161725 0.000241598 0)
(0.00164727 0.000558199 0)
(0.00166625 0.000873915 0)
(0.00167557 0.00118662 0)
(0.00167931 0.0015139 0)
(0.00167372 0.0018437 0)
(0.00166736 0.00219825 0)
(0.00165758 0.00257203 0)
(0.00165074 0.00297892 0)
(0.00164768 0.00341457 0)
(0.000426196 -0.00323389 0)
(0.000550186 -0.00284244 0)
(0.000667548 -0.00246947 0)
(0.000775602 -0.00210111 0)
(0.000871541 -0.00174482 0)
(0.000957246 -0.00140566 0)
(0.00103152 -0.00107887 0)
(0.00109485 -0.000753371 0)
(0.00114785 -0.000426571 0)
(0.00118984 -0.000101825 0)
(0.00122096 0.000224259 0)
(0.00124399 0.000556428 0)
(0.00125655 0.000884098 0)
(0.00126104 0.00120644 0)
(0.00126101 0.00153999 0)
(0.00125337 0.00187355 0)
(0.00124668 0.00222965 0)
(0.001238 0.00260162 0)
(0.00123326 0.00300536 0)
(0.00123302 0.00343384 0)
(0.000166055 -0.00334169 0)
(0.000270614 -0.00294501 0)
(0.000371262 -0.00256548 0)
(0.000464379 -0.0021888 0)
(0.000546846 -0.00182435 0)
(0.000620335 -0.00147739 0)
(0.000682662 -0.0011413 0)
(0.000734871 -0.000803605 0)
(0.000777843 -0.000463359 0)
(0.000810885 -0.000125491 0)
(0.000834142 0.000213077 0)
(0.000850251 0.000556469 0)
(0.000856497 0.000891904 0)
(0.000856257 0.00122184 0)
(0.000852672 0.00156021 0)
(0.000843304 0.00189663 0)
(0.000835977 0.00225426 0)
(0.000827568 0.00262514 0)
(0.000823408 0.00302572 0)
(0.000826546 0.00344235 0)
(-7.44568e-05 -0.00342553 0)
(8.64713e-06 -0.00302611 0)
(8.97254e-05 -0.00264073 0)
(0.000165411 -0.0022577 0)
(0.000233143 -0.00188554 0)
(0.000292943 -0.00153151 0)
(0.000342645 -0.00118722 0)
(0.000383911 -0.000839224 0)
(0.000417204 -0.000488538 0)
(0.000441808 -0.00014144 0)
(0.000457725 0.00020528 0)
(0.000467363 0.000555644 0)
(0.000467999 0.000895399 0)
(0.000463633 0.00123041 0)
(0.000456958 0.00157286 0)
(0.000445858 0.00191228 0)
(0.000437258 0.00227213 0)
(0.000428556 0.00264297 0)
(0.000424826 0.00303757 0)
(0.000432701 0.00344187 0)
(-0.000299236 -0.00348929 0)
(-0.00023845 -0.00308732 0)
(-0.000178493 -0.00269774 0)
(-0.00012125 -0.00230899 0)
(-6.94777e-05 -0.00193011 0)
(-2.43375e-05 -0.00157014 0)
(1.26e-05 -0.00121929 0)
(4.32718e-05 -0.000863234 0)
(6.69734e-05 -0.000505134 0)
(8.31886e-05 -0.000152621 0)
(9.18415e-05 0.000198208 0)
(9.52642e-05 0.000552042 0)
(9.08279e-05 0.000894292 0)
(8.26568e-05 0.00123299 0)
(7.28676e-05 0.00157931 0)
(5.93437e-05 0.00192247 0)
(4.87287e-05 0.00228482 0)
(3.93584e-05 0.00265514 0)
(3.70599e-05 0.0030405 0)
(4.84031e-05 0.00343467 0)
(-0.000513342 -0.00353899 0)
(-0.00047527 -0.00313422 0)
(-0.000436087 -0.00274124 0)
(-0.00039763 -0.00234678 0)
(-0.000362801 -0.00196215 0)
(-0.000332652 -0.00159708 0)
(-0.000308722 -0.00124087 0)
(-0.00028883 -0.000878583 0)
(-0.000275028 -0.000515432 0)
(-0.000267478 -0.000160467 0)
(-0.000266113 0.000191724 0)
(-0.000268563 0.000546779 0)
(-0.000277526 0.000890541 0)
(-0.000289253 0.00123224 0)
(-0.000302127 0.00158244 0)
(-0.000318433 0.00192944 0)
(-0.000330893 0.00229336 0)
(-0.000340754 0.00266028 0)
(-0.000340839 0.00303678 0)
(-0.000329384 0.00341909 0)
(-0.000722708 -0.00357696 0)
(-0.000706573 -0.00317012 0)
(-0.00068753 -0.00277282 0)
(-0.000668422 -0.0023727 0)
(-0.000651047 -0.00198266 0)
(-0.000636016 -0.00161276 0)
(-0.000625384 -0.00125199 0)
(-0.000616656 -0.000885304 0)
(-0.00061233 -0.000519046 0)
(-0.000612864 -0.0001641 0)
(-0.00061786 0.00018753 0)
(-0.0006251 0.000542334 0)
(-0.000637611 0.000886882 0)
(-0.000652265 0.00123108 0)
(-0.000667629 0.00158511 0)
(-0.000685871 0.00193515 0)
(-0.000698922 0.00229905 0)
(-0.000708043 0.00266024 0)
(-0.000706912 0.00303055 0)
(-0.000695212 0.00339732 0)
(-0.000933831 -0.00360243 0)
(-0.000938008 -0.00319378 0)
(-0.000939319 -0.00279096 0)
(-0.000939499 -0.00238564 0)
(-0.000938894 -0.00199073 0)
(-0.000938411 -0.00161652 0)
(-0.000940141 -0.00125237 0)
(-0.000942399 -0.000883878 0)
(-0.000946238 -0.000516309 0)
(-0.000953521 -0.000162569 0)
(-0.000963609 0.000188054 0)
(-0.000974726 0.000542545 0)
(-0.000990336 0.000887694 0)
(-0.00100769 0.00123384 0)
(-0.00102516 0.0015906 0)
(-0.00104425 0.00194191 0)
(-0.0010571 0.00230361 0)
(-0.00106487 0.00265948 0)
(-0.001065 0.00302123 0)
(-0.00104998 0.00337323 0)
(-0.00115187 -0.00361432 0)
(-0.0011761 -0.00320369 0)
(-0.00119733 -0.00279624 0)
(-0.00121493 -0.00238742 0)
(-0.00122898 -0.00198939 0)
(-0.00124199 -0.00161216 0)
(-0.00125451 -0.00124499 0)
(-0.00126749 -0.000875413 0)
(-0.00127908 -0.000507014 0)
(-0.00129235 -0.00015379 0)
(-0.00130688 0.000195542 0)
(-0.00132147 0.000548808 0)
(-0.00133982 0.000893578 0)
(-0.00135908 0.00124077 0)
(-0.00137728 0.00159847 0)
(-0.00139559 0.00194934 0)
(-0.0014074 0.00230719 0)
(-0.00141499 0.00265829 0)
(-0.00141627 0.00300483 0)
(-0.00139968 0.00334159 0)
(-0.00138242 -0.00361378 0)
(-0.00142675 -0.00320152 0)
(-0.0014649 -0.00279238 0)
(-0.0014973 -0.00238262 0)
(-0.00152442 -0.00198298 0)
(-0.00155036 -0.00160334 0)
(-0.00157301 -0.001233 0)
(-0.001595 -0.00086116 0)
(-0.00161321 -0.000492965 0)
(-0.00163075 -0.00014036 0)
(-0.00164785 0.000207961 0)
(-0.00166413 0.000560263 0)
(-0.00168326 0.000905026 0)
(-0.00170189 0.0012535 0)
(-0.00171794 0.00161158 0)
(-0.00173388 0.00196072 0)
(-0.00174433 0.00231387 0)
(-0.00175289 0.00265654 0)
(-0.00175156 0.00298792 0)
(-0.0017361 0.00330646 0)
(-0.00162992 -0.00360209 0)
(-0.0016918 -0.0031898 0)
(-0.00174432 -0.00278229 0)
(-0.00179015 -0.00237361 0)
(-0.00183019 -0.00197359 0)
(-0.00186692 -0.0015917 0)
(-0.00189843 -0.00121881 0)
(-0.00192577 -0.000842855 0)
(-0.00194826 -0.000473506 0)
(-0.00196934 -0.000122473 0)
(-0.00198917 0.000223337 0)
(-0.00200661 0.000574477 0)
(-0.00202454 0.000920173 0)
(-0.00203989 0.00126967 0)
(-0.00205189 0.00162703 0)
(-0.00206505 0.00197293 0)
(-0.00207422 0.00232089 0)
(-0.00208142 0.00265081 0)
(-0.00207728 0.00296954 0)
(-0.00206075 0.00326973 0)
(-0.00189766 -0.0035808 0)
(-0.00197421 -0.00317015 0)
(-0.00204122 -0.00276666 0)
(-0.00209876 -0.00236115 0)
(-0.00215095 -0.00196239 0)
(-0.00219578 -0.00157851 0)
(-0.00223432 -0.00120217 0)
(-0.00226536 -0.000823972 0)
(-0.00229035 -0.000454973 0)
(-0.00231318 -0.000105835 0)
(-0.00233325 0.000238938 0)
(-0.00234824 0.000590746 0)
(-0.00236128 0.00093775 0)
(-0.00237098 0.0012867 0)
(-0.00237848 0.00164168 0)
(-0.00238785 0.00198367 0)
(-0.00239269 0.00232413 0)
(-0.00239247 0.00264628 0)
(-0.00238899 0.00295537 0)
(-0.0023758 0.0032311 0)
(-0.00219104 -0.00355093 0)
(-0.00228064 -0.00314545 0)
(-0.00236025 -0.0027485 0)
(-0.00242913 -0.0023472 0)
(-0.00248878 -0.001947 0)
(-0.00253907 -0.00156029 0)
(-0.00258096 -0.00118275 0)
(-0.0026147 -0.000806634 0)
(-0.00264157 -0.000440634 0)
(-0.00266408 -9.29477e-05 0)
(-0.00268024 0.000253165 0)
(-0.00268872 0.000607572 0)
(-0.00269565 0.000954782 0)
(-0.00270029 0.00129868 0)
(-0.00270089 0.0016477 0)
(-0.00269929 0.00199312 0)
(-0.0026933 0.00233294 0)
(-0.00268862 0.00264223 0)
(-0.00268452 0.00293328 0)
(-0.00266731 0.00319842 0)
(-0.00251678 -0.00351749 0)
(-0.00261955 -0.00311802 0)
(-0.00270942 -0.00272751 0)
(-0.00278739 -0.00232832 0)
(-0.00285062 -0.00192791 0)
(-0.0029025 -0.00154051 0)
(-0.00294595 -0.0011673 0)
(-0.00298111 -0.000798274 0)
(-0.00300618 -0.000434453 0)
(-0.00302262 -8.20317e-05 0)
(-0.00303222 0.00026674 0)
(-0.00303634 0.000613599 0)
(-0.00303708 0.000952935 0)
(-0.00302942 0.00130365 0)
(-0.00301578 0.00165887 0)
(-0.00300473 0.00199224 0)
(-0.00298716 0.00232382 0)
(-0.00297094 0.00263607 0)
(-0.00295769 0.00291475 0)
(-0.00293802 0.00316193 0)
(-0.00287545 -0.0034803 0)
(-0.00298697 -0.00308736 0)
(-0.00308411 -0.00269903 0)
(-0.00316448 -0.00229865 0)
(-0.00323019 -0.00190405 0)
(-0.00328378 -0.00152945 0)
(-0.00332589 -0.00116375 0)
(-0.00335515 -0.000790338 0)
(-0.00337327 -0.000423137 0)
(-0.00338544 -8.14475e-05 0)
(-0.00339039 0.000256984 0)
(-0.00338394 0.000611234 0)
(-0.00337178 0.000956036 0)
(-0.00335504 0.0012956 0)
(-0.00332879 0.00164814 0)
(-0.00329977 0.0019848 0)
(-0.00326421 0.00231302 0)
(-0.00322796 0.0026219 0)
(-0.00319391 0.00289584 0)
(-0.00315861 0.00312469 0)
(-1.24242e-05 -0.00776681 0)
(-2.75715e-05 -0.00761577 0)
(-9.38225e-06 -0.00731959 0)
(6.14841e-05 -0.00688937 0)
(0.000201683 -0.00635397 0)
(0.000425312 -0.00571506 0)
(0.000736397 -0.00501244 0)
(0.00113627 -0.00425654 0)
(0.00159705 -0.00348943 0)
(0.00214497 -0.00275902 0)
(-3.04493e-05 -0.00769169 0)
(-8.30692e-05 -0.00755132 0)
(-0.000103817 -0.00727945 0)
(-7.53951e-05 -0.00687917 0)
(1.87124e-05 -0.00638327 0)
(0.000192575 -0.00579003 0)
(0.000454499 -0.0051324 0)
(0.000805896 -0.00441831 0)
(0.00123122 -0.00368525 0)
(0.0017581 -0.00294322 0)
(-3.99011e-05 -0.00761296 0)
(-0.00011366 -0.00748174 0)
(-0.000158047 -0.00723161 0)
(-0.00015777 -0.00686389 0)
(-9.82866e-05 -0.00640423 0)
(3.2681e-05 -0.00585851 0)
(0.000246558 -0.00524599 0)
(0.000541131 -0.00458013 0)
(0.000913535 -0.00388108 0)
(0.00138 -0.00314379 0)
(-4.57117e-05 -0.00753432 0)
(-0.000133303 -0.007415 0)
(-0.000196195 -0.00718551 0)
(-0.000218312 -0.00684546 0)
(-0.000188109 -0.00641991 0)
(-9.45112e-05 -0.00591959 0)
(7.43302e-05 -0.00534352 0)
(0.000314351 -0.0047154 0)
(0.000630417 -0.00404633 0)
(0.00103064 -0.00332877 0)
(-5.17307e-05 -0.00746074 0)
(-0.000148319 -0.00734652 0)
(-0.000226063 -0.00713678 0)
(-0.000266885 -0.00682335 0)
(-0.000261546 -0.00642844 0)
(-0.000200767 -0.0059614 0)
(-7.22278e-05 -0.00541879 0)
(0.000119206 -0.00482773 0)
(0.000383212 -0.00418857 0)
(0.000723512 -0.00349396 0)
(-5.66233e-05 -0.0073884 0)
(-0.000160825 -0.00728172 0)
(-0.000249953 -0.00708536 0)
(-0.000306656 -0.00679252 0)
(-0.000322304 -0.00642363 0)
(-0.000291263 -0.00598529 0)
(-0.000199132 -0.00547624 0)
(-5.08089e-05 -0.00491898 0)
(0.000163774 -0.00430843 0)
(0.000448679 -0.00363909 0)
(-5.97813e-05 -0.00731529 0)
(-0.000172343 -0.00721746 0)
(-0.00027066 -0.00702998 0)
(-0.000342275 -0.00675876 0)
(-0.000376736 -0.00641233 0)
(-0.00037105 -0.00599937 0)
(-0.000312572 -0.00552059 0)
(-0.000201973 -0.00498944 0)
(-3.16275e-05 -0.00440252 0)
(0.000202837 -0.0037582 0)
(-6.38518e-05 -0.00724785 0)
(-0.000183804 -0.00715421 0)
(-0.000290123 -0.00697428 0)
(-0.000375753 -0.00672305 0)
(-0.000428183 -0.00639449 0)
(-0.000444357 -0.00600319 0)
(-0.000415794 -0.00554848 0)
(-0.000339605 -0.00503683 0)
(-0.000209467 -0.0044711 0)
(-2.05018e-05 -0.00385288 0)
(-6.94555e-05 -0.00718713 0)
(-0.000195983 -0.00709437 0)
(-0.000311228 -0.00692337 0)
(-0.000410058 -0.00668611 0)
(-0.000479322 -0.00637112 0)
(-0.00051651 -0.00599865 0)
(-0.000513981 -0.00556288 0)
(-0.000467901 -0.00506677 0)
(-0.000373449 -0.00451991 0)
(-0.000225544 -0.00392583 0)
(-7.44265e-05 -0.00712741 0)
(-0.000209131 -0.00703887 0)
(-0.000335439 -0.00687623 0)
(-0.000447504 -0.00664729 0)
(-0.000532304 -0.00634458 0)
(-0.000589465 -0.00598829 0)
(-0.000610144 -0.00556731 0)
(-0.000590814 -0.00508521 0)
(-0.000527925 -0.0045554 0)
(-0.000417036 -0.00398179 0)
(-7.86746e-05 -0.00706803 0)
(-0.00022513 -0.00698908 0)
(-0.000363821 -0.0068311 0)
(-0.0004892 -0.00660778 0)
(-0.000589372 -0.00631729 0)
(-0.000664938 -0.00597392 0)
(-0.000707142 -0.00556436 0)
(-0.00071273 -0.00509517 0)
(-0.000678075 -0.00458035 0)
(-0.000600156 -0.00402451 0)
(-8.40145e-05 -0.00701339 0)
(-0.0002454 -0.00694421 0)
(-0.000397194 -0.00678707 0)
(-0.000536196 -0.00656885 0)
(-0.000652823 -0.00628883 0)
(-0.000745777 -0.00595414 0)
(-0.000808516 -0.00555397 0)
(-0.00083767 -0.00509649 0)
(-0.000828679 -0.00459482 0)
(-0.00078068 -0.00405597 0)
(-9.14632e-05 -0.00696443 0)
(-0.000269461 -0.00689939 0)
(-0.000435876 -0.0067421 0)
(-0.000589716 -0.00652859 0)
(-0.000724209 -0.00625586 0)
(-0.000834734 -0.00592643 0)
(-0.0009176 -0.00553573 0)
(-0.000969007 -0.00508976 0)
(-0.000984405 -0.00460037 0)
(-0.000964816 -0.00407685 0)
(-0.000100305 -0.00691467 0)
(-0.000295794 -0.00684744 0)
(-0.000479675 -0.00669193 0)
(-0.000650637 -0.0064821 0)
(-0.000804347 -0.00621457 0)
(-0.000933859 -0.00589023 0)
(-0.00103714 -0.00550972 0)
(-0.00111022 -0.00507538 0)
(-0.0011499 -0.00459744 0)
(-0.00115748 -0.00408461 0)
(-0.000109589 -0.00685526 0)
(-0.000324157 -0.00678371 0)
(-0.000529319 -0.00663321 0)
(-0.000720432 -0.00642589 0)
(-0.000894718 -0.00616216 0)
(-0.0010448 -0.00584479 0)
(-0.00116925 -0.00547457 0)
(-0.00126516 -0.00505115 0)
(-0.00132969 -0.00458269 0)
(-0.00136388 -0.00407724 0)
(-0.00011982 -0.0067827 0)
(-0.000356765 -0.00670853 0)
(-0.000586855 -0.00656437 0)
(-0.000800741 -0.00635896 0)
(-0.000997233 -0.00609843 0)
(-0.00117 -0.00578924 0)
(-0.00131761 -0.00542929 0)
(-0.00143844 -0.00501503 0)
(-0.00152868 -0.00455423 0)
(-0.00158817 -0.00405739 0)
(-0.000132465 -0.00669969 0)
(-0.000396085 -0.00662466 0)
(-0.000653802 -0.0064846 0)
(-0.000893436 -0.00628146 0)
(-0.00111492 -0.00602619 0)
(-0.00131317 -0.00572589 0)
(-0.00148666 -0.00537639 0)
(-0.001634 -0.00496985 0)
(-0.0017495 -0.00451553 0)
(-0.00183362 -0.00402933 0)
(-0.000148213 -0.00660852 0)
(-0.000442886 -0.00653329 0)
(-0.00073107 -0.00639556 0)
(-0.00100077 -0.00619739 0)
(-0.00125167 -0.00595034 0)
(-0.00147922 -0.00565821 0)
(-0.00168121 -0.0053157 0)
(-0.00185601 -0.00491573 0)
(-0.00199562 -0.00446742 0)
(-0.00210605 -0.00399149 0)
(-0.000167178 -0.00650915 0)
(-0.000497899 -0.00643483 0)
(-0.000820894 -0.00629971 0)
(-0.00112571 -0.00610816 0)
(-0.0014106 -0.00586936 0)
(-0.00167161 -0.00558518 0)
(-0.0019057 -0.00524843 0)
(-0.00210937 -0.00485433 0)
(-0.00227608 -0.00441325 0)
(-0.00241238 -0.0039499 0)
(-0.000188583 -0.00639485 0)
(-0.000560484 -0.00632485 0)
(-0.000923452 -0.00619154 0)
(-0.00126969 -0.00600696 0)
(-0.00159538 -0.00577919 0)
(-0.00189454 -0.00550337 0)
(-0.00216319 -0.0051712 0)
(-0.00239513 -0.00478011 0)
(-0.00259072 -0.00434785 0)
(-0.00275432 -0.00390512 0)
)


// ************************************************************************* //
