/*--------------------------------*- C++ -*----------------------------------*\
| =========                 |                                                 |
| \\      /  F ield         | foam-extend: Open Source CFD                    |
|  \\    /   O peration     | Version:     4.1                                |
|   \\  /    A nd           | Web:         http://www.foam-extend.org         |
|    \\/     M anipulation  |                                                 |
\*---------------------------------------------------------------------------*/
FoamFile
{
    version     2.0;
    format      ascii;
    class       vectorField;
    location    "1";
    object      residualD_iteration13;
}
// * * * * * * * * * * * * * * * * * * * * * * * * * * * * * * * * * * * * * //


1000
(
(0.00532203 -0.00578785 0)
(0.00456956 -0.00513202 0)
(0.00399999 -0.00460629 0)
(0.00358492 -0.0042335 0)
(0.00327453 -0.00393523 0)
(0.00302989 -0.0036978 0)
(0.00283949 -0.00349692 0)
(0.00268932 -0.00331348 0)
(0.00256168 -0.00315647 0)
(0.00255058 -0.0029909 0)
(0.00473754 -0.00631516 0)
(0.00394559 -0.0057582 0)
(0.00336164 -0.00528752 0)
(0.00293957 -0.00494517 0)
(0.00263538 -0.00466158 0)
(0.00240854 -0.00443177 0)
(0.00224054 -0.00423398 0)
(0.00211864 -0.00405556 0)
(0.00202978 -0.00390607 0)
(0.00201325 -0.00373851 0)
(0.00416033 -0.00681832 0)
(0.00335817 -0.00637131 0)
(0.0027744 -0.00596934 0)
(0.00235934 -0.00567021 0)
(0.00206501 -0.00541521 0)
(0.00185345 -0.00520452 0)
(0.00170146 -0.00501903 0)
(0.00159198 -0.00485448 0)
(0.00151324 -0.00471889 0)
(0.00149243 -0.00457053 0)
(0.0035835 -0.00728579 0)
(0.00280253 -0.00695808 0)
(0.00224019 -0.0066326 0)
(0.00184707 -0.0063834 0)
(0.00157093 -0.00615974 0)
(0.00137461 -0.00597071 0)
(0.00123595 -0.00580221 0)
(0.00113475 -0.00565458 0)
(0.00106184 -0.00553122 0)
(0.0010321 -0.00540222 0)
(0.00301283 -0.00770999 0)
(0.00228173 -0.0075032 0)
(0.00176277 -0.00725334 0)
(0.00140345 -0.00705499 0)
(0.00115177 -0.00686615 0)
(0.000974988 -0.00670162 0)
(0.000851313 -0.00655182 0)
(0.000762232 -0.00642122 0)
(0.000695212 -0.00631033 0)
(0.000661713 -0.00619721 0)
(0.00244997 -0.00808139 0)
(0.0018024 -0.00799052 0)
(0.00134475 -0.00781438 0)
(0.00102974 -0.00766342 0)
(0.000811444 -0.00750587 0)
(0.000661342 -0.00736432 0)
(0.000553402 -0.00723301 0)
(0.000474522 -0.00711697 0)
(0.000414508 -0.00701711 0)
(0.000381468 -0.00691858 0)
(0.00189559 -0.00839192 0)
(0.00135896 -0.0084011 0)
(0.000980967 -0.00828972 0)
(0.000723382 -0.00818294 0)
(0.000546481 -0.00805455 0)
(0.000423478 -0.00793213 0)
(0.00033398 -0.00781573 0)
(0.000269088 -0.00771112 0)
(0.000220144 -0.00761971 0)
(0.000191225 -0.00753326 0)
(0.0013471 -0.00863333 0)
(0.000948372 -0.00872397 0)
(0.000666332 -0.00866585 0)
(0.000472905 -0.00859424 0)
(0.000341516 -0.00848746 0)
(0.000250164 -0.00838172 0)
(0.000183877 -0.00827839 0)
(0.000135451 -0.00818358 0)
(9.90118e-05 -0.00809881 0)
(7.68483e-05 -0.00802209 0)
(0.00080618 -0.00879875 0)
(0.000558379 -0.00894603 0)
(0.000383728 -0.00892466 0)
(0.000265846 -0.00887667 0)
(0.000185796 -0.00878556 0)
(0.000128989 -0.00869203 0)
(8.72706e-05 -0.00859682 0)
(5.73001e-05 -0.00850738 0)
(3.56161e-05 -0.00842663 0)
(2.20191e-05 -0.00835666 0)
(0.000269413 -0.00888138 0)
(0.00018596 -0.00905756 0)
(0.000126934 -0.00905657 0)
(8.5846e-05 -0.00902211 0)
(5.80027e-05 -0.00893944 0)
(3.96324e-05 -0.00885201 0)
(2.6055e-05 -0.00876086 0)
(1.55397e-05 -0.0086744 0)
(7.94402e-06 -0.00859586 0)
(3.50304e-06 -0.00852945 0)
(0.00918473 -0.000265234 0)
(0.00933773 -0.000180168 0)
(0.00933148 -0.000120704 0)
(0.00928166 -8.00418e-05 0)
(0.00919249 -5.16517e-05 0)
(0.00909503 -3.18773e-05 0)
(0.00899405 -1.81364e-05 0)
(0.00890104 -8.07721e-06 0)
(0.00881357 6.26442e-07 0)
(0.00873241 8.409e-06 0)
(0.00909155 -0.000796627 0)
(0.0092165 -0.000546055 0)
(0.00919211 -0.000369558 0)
(0.00913088 -0.000250734 0)
(0.00903374 -0.000167851 0)
(0.00893321 -0.000109385 0)
(0.00882678 -6.66453e-05 0)
(0.00872936 -3.4773e-05 0)
(0.00864163 -9.98128e-06 0)
(0.00855563 1.18162e-05 0)
(0.00891846 -0.00133225 0)
(0.00898549 -0.000928039 0)
(0.00892357 -0.000641673 0)
(0.00883853 -0.000450244 0)
(0.00872443 -0.00031541 0)
(0.00861201 -0.000218909 0)
(0.00849975 -0.000149281 0)
(0.00839797 -9.67345e-05 0)
(0.00830571 -5.6958e-05 0)
(0.00821188 -2.25012e-05 0)
(0.0086629 -0.00187404 0)
(0.008647 -0.00133521 0)
(0.00853319 -0.000950681 0)
(0.00841233 -0.000693332 0)
(0.00827835 -0.000513289 0)
(0.00815154 -0.000383051 0)
(0.00802659 -0.000290383 0)
(0.00791383 -0.000219658 0)
(0.00781428 -0.000161996 0)
(0.00770716 -0.000113025 0)
(0.00833474 -0.00242308 0)
(0.00821394 -0.00177425 0)
(0.00803616 -0.00130846 0)
(0.00787338 -0.000994813 0)
(0.00771206 -0.000776734 0)
(0.00756528 -0.000619331 0)
(0.00742757 -0.000504737 0)
(0.00730397 -0.000415542 0)
(0.00719571 -0.00034089 0)
(0.00707055 -0.000279329 0)
(0.00793936 -0.00298043 0)
(0.0077033 -0.00225119 0)
(0.00745147 -0.00172463 0)
(0.00723938 -0.00136795 0)
(0.00704742 -0.00111724 0)
(0.00687865 -0.00093564 0)
(0.00672374 -0.0008027 0)
(0.00658566 -0.000699847 0)
(0.00646564 -0.000612412 0)
(0.00631856 -0.000539866 0)
(0.00748571 -0.00354321 0)
(0.00712844 -0.00276559 0)
(0.00679949 -0.00219924 0)
(0.0065346 -0.00181226 0)
(0.00630923 -0.00153739 0)
(0.00611707 -0.00133765 0)
(0.00594361 -0.00119065 0)
(0.00578989 -0.00107705 0)
(0.00565826 -0.000977984 0)
(0.00548675 -0.000894882 0)
(0.00698651 -0.00411035 0)
(0.00650974 -0.00331662 0)
(0.00610736 -0.00273158 0)
(0.0057918 -0.00232954 0)
(0.00553379 -0.00203978 0)
(0.00531794 -0.00182807 0)
(0.00512721 -0.00167197 0)
(0.00495422 -0.00155154 0)
(0.00480619 -0.00144328 0)
(0.00460789 -0.00135356 0)
(0.00645132 -0.00467782 0)
(0.00586437 -0.00389931 0)
(0.00539167 -0.00331607 0)
(0.00503106 -0.00291229 0)
(0.00474211 -0.00261464 0)
(0.00450489 -0.00239415 0)
(0.00430153 -0.00223055 0)
(0.0041151 -0.00210528 0)
(0.00395821 -0.00199612 0)
(0.00374788 -0.00190736 0)
(0.00589157 -0.00524065 0)
(0.00521279 -0.00450981 0)
(0.00468205 -0.00394585 0)
(0.00428803 -0.00354998 0)
(0.0039795 -0.00324858 0)
(0.00372883 -0.00301987 0)
(0.00351565 -0.00284234 0)
(0.00331274 -0.00270204 0)
(0.00313205 -0.00257296 0)
(0.00293488 -0.00247791 0)
(0.00867013 1.3179e-05 0)
(0.00860835 2.0697e-05 0)
(0.0085533 2.59692e-05 0)
(0.00850584 3.05034e-05 0)
(0.00846334 3.41602e-05 0)
(0.00842336 3.77682e-05 0)
(0.00838692 4.20309e-05 0)
(0.00835582 4.72402e-05 0)
(0.00832697 5.38472e-05 0)
(0.00829664 6.11815e-05 0)
(0.0082652 6.8874e-05 0)
(0.00823311 7.74904e-05 0)
(0.00819807 8.79676e-05 0)
(0.00815782 0.000100721 0)
(0.00811033 0.000115615 0)
(0.00805369 0.000132355 0)
(0.00798511 0.00015086 0)
(0.0079006 0.000171487 0)
(0.00779957 0.000194612 0)
(0.00767138 0.000221096 0)
(0.00850104 2.77273e-05 0)
(0.00845596 5.24386e-05 0)
(0.00841514 6.85471e-05 0)
(0.0083785 8.24867e-05 0)
(0.00834463 9.49105e-05 0)
(0.00831376 0.000106692 0)
(0.00828563 0.000120373 0)
(0.00825927 0.000137177 0)
(0.00823315 0.000157006 0)
(0.0082056 0.000178285 0)
(0.008177 0.000201419 0)
(0.00814638 0.000227987 0)
(0.00811198 0.000259521 0)
(0.00807259 0.000296747 0)
(0.00802687 0.000339879 0)
(0.00797266 0.000389393 0)
(0.00790649 0.000445662 0)
(0.00782417 0.000509355 0)
(0.0077267 0.000582508 0)
(0.00760135 0.000665222 0)
(0.00817491 8.33034e-06 0)
(0.00815885 5.49146e-05 0)
(0.00814138 8.50597e-05 0)
(0.00812705 0.000110506 0)
(0.00811164 0.000134113 0)
(0.00809314 0.000157542 0)
(0.00807412 0.000184489 0)
(0.00805595 0.000215184 0)
(0.00803797 0.000248553 0)
(0.00801696 0.000283915 0)
(0.00799354 0.000323461 0)
(0.00796652 0.000369576 0)
(0.00793521 0.000423314 0)
(0.0078992 0.000484832 0)
(0.00785667 0.000554764 0)
(0.00780422 0.000634946 0)
(0.00774011 0.000726977 0)
(0.00766072 0.00083246 0)
(0.00756701 0.000956336 0)
(0.00744657 0.00109724 0)
(0.00769614 -6.29947e-05 0)
(0.00772581 9.13266e-06 0)
(0.00774525 5.81395e-05 0)
(0.00776105 0.000100985 0)
(0.00776991 0.000142194 0)
(0.00777217 0.000182697 0)
(0.00777084 0.000226063 0)
(0.00776588 0.000271824 0)
(0.00775707 0.000319725 0)
(0.00774314 0.000371539 0)
(0.00772637 0.000429966 0)
(0.00770572 0.000496693 0)
(0.00768004 0.000572213 0)
(0.00764883 0.00065754 0)
(0.00761048 0.000754726 0)
(0.00756137 0.000865593 0)
(0.00750135 0.000992137 0)
(0.00742648 0.00113781 0)
(0.00733878 0.00130923 0)
(0.00722638 0.00150499 0)
(0.00708783 -0.000205455 0)
(0.00716973 -0.00010114 0)
(0.00723254 -2.4666e-05 0)
(0.00728758 4.41066e-05 0)
(0.00732884 0.000109506 0)
(0.00735752 0.000170984 0)
(0.00737596 0.000234172 0)
(0.00738722 0.000299268 0)
(0.00739134 0.000366081 0)
(0.00738839 0.000437137 0)
(0.00737998 0.000515186 0)
(0.0073658 0.00060206 0)
(0.00734569 0.000698692 0)
(0.00731927 0.000807241 0)
(0.00728506 0.00093108 0)
(0.00724197 0.00107219 0)
(0.00718714 0.00123289 0)
(0.00712082 0.00141838 0)
(0.00703988 0.00163685 0)
(0.00693693 0.00188628 0)
(0.00636792 -0.000434381 0)
(0.00651211 -0.000287825 0)
(0.00662499 -0.000173468 0)
(0.00672257 -7.04973e-05 0)
(0.00679688 2.63454e-05 0)
(0.00685464 0.000116153 0)
(0.00689781 0.00020546 0)
(0.00692983 0.000293547 0)
(0.00695064 0.000381756 0)
(0.00696191 0.000473936 0)
(0.00696432 0.00057334 0)
(0.00695805 0.000681944 0)
(0.0069446 0.000801086 0)
(0.00692431 0.000933588 0)
(0.00689478 0.00108289 0)
(0.00685768 0.00125177 0)
(0.00680817 0.00144485 0)
(0.00674858 0.00166817 0)
(0.00667454 0.00193189 0)
(0.00658153 0.00223344 0)
(0.00556282 -0.00075317 0)
(0.00576759 -0.000560442 0)
(0.00593061 -0.000401312 0)
(0.00607119 -0.000255041 0)
(0.00618338 -0.000119194 0)
(0.00627194 5.98116e-06 0)
(0.00634419 0.000126335 0)
(0.00639991 0.000242022 0)
(0.00643969 0.000357043 0)
(0.0064657 0.000475239 0)
(0.00648006 0.000599701 0)
(0.00648408 0.000732142 0)
(0.00647952 0.000874417 0)
(0.00646669 0.00103059 0)
(0.00644403 0.00120462 0)
(0.0064128 0.00140036 0)
(0.00636817 0.00162517 0)
(0.00631403 0.00188501 0)
(0.00624716 0.00219038 0)
(0.00616594 0.00253884 0)
(0.00470017 -0.00116583 0)
(0.00495942 -0.000915115 0)
(0.00517365 -0.000697135 0)
(0.00535452 -0.00049718 0)
(0.00550565 -0.000317597 0)
(0.00562506 -0.000152162 0)
(0.00572446 3.54542e-06 0)
(0.0058023 0.000151012 0)
(0.00586195 0.000295787 0)
(0.0059048 0.000441786 0)
(0.00593373 0.000592114 0)
(0.0059513 0.000748709 0)
(0.00595896 0.000914489 0)
(0.00595503 0.00109468 0)
(0.00593957 0.00129401 0)
(0.00591421 0.00151734 0)
(0.00587462 0.00177248 0)
(0.00582709 0.0020658 0)
(0.00576792 0.00240823 0)
(0.00569936 0.00279696 0)
(0.00382956 -0.00166616 0)
(0.00411876 -0.0013615 0)
(0.00436625 -0.00108702 0)
(0.00457622 -0.000831107 0)
(0.00475492 -0.000598919 0)
(0.00490384 -0.000384544 0)
(0.0050291 -0.000185483 0)
(0.00513102 1.98678e-06 0)
(0.00521298 0.000182455 0)
(0.00527677 0.000360332 0)
(0.0053248 0.000539318 0)
(0.00535937 0.000722382 0)
(0.00538154 0.000914105 0)
(0.00538906 0.00112049 0)
(0.00538386 0.00134636 0)
(0.00536731 0.001598 0)
(0.00533587 0.00188261 0)
(0.00529762 0.00220662 0)
(0.00524828 0.0025809 0)
(0.00519291 0.00300303 0)
(0.00296063 -0.00222749 0)
(0.0032355 -0.00187122 0)
(0.00348455 -0.0015285 0)
(0.00371247 -0.00120834 0)
(0.00391227 -0.000921297 0)
(0.00408802 -0.000658627 0)
(0.00423918 -0.000417293 0)
(0.00436795 -0.000191099 0)
(0.00447599 2.4478e-05 0)
(0.00456528 0.00023436 0)
(0.00463748 0.000442951 0)
(0.00469444 0.000653868 0)
(0.00473662 0.000872619 0)
(0.00476195 0.0011057 0)
(0.00477433 0.00135812 0)
(0.00477368 0.00163742 0)
(0.0047588 0.00195004 0)
(0.00473673 0.00230259 0)
(0.00470333 0.00270457 0)
(0.00466377 0.00315399 0)
(0.00259008 -0.00255787 0)
(0.0027243 -0.00223234 0)
(0.00289342 -0.00187809 0)
(0.00307677 -0.00153168 0)
(0.00326001 -0.00121286 0)
(0.00343416 -0.000916748 0)
(0.00359183 -0.000641439 0)
(0.00373115 -0.00038257 0)
(0.00385172 -0.00013587 0)
(0.00395416 0.00010343 0)
(0.00403877 0.000340025 0)
(0.00410735 0.000577753 0)
(0.00416007 0.000822292 0)
(0.00419497 0.00108017 0)
(0.00421804 0.0013564 0)
(0.00422759 0.00165905 0)
(0.00422521 0.00199332 0)
(0.00421531 0.00236675 0)
(0.00419545 0.00278779 0)
(0.00416874 0.00325301 0)
(0.0022619 -0.00267574 0)
(0.00240215 -0.00236254 0)
(0.00256004 -0.00203293 0)
(0.002723 -0.00169877 0)
(0.00288255 -0.00137792 0)
(0.00303609 -0.00107073 0)
(0.00317708 -0.000779064 0)
(0.00330314 -0.000501033 0)
(0.00341371 -0.000233444 0)
(0.00350834 2.75645e-05 0)
(0.00358614 0.000285844 0)
(0.00364873 0.00054483 0)
(0.00369591 0.000810049 0)
(0.00372638 0.00108735 0)
(0.00374692 0.00138146 0)
(0.00375442 0.00170083 0)
(0.00375257 0.0020489 0)
(0.00374316 0.00243409 0)
(0.00372652 0.00286456 0)
(0.00370506 0.00333277 0)
(0.00186305 -0.00286905 0)
(0.00202124 -0.00251972 0)
(0.00217829 -0.00217746 0)
(0.00233222 -0.00183874 0)
(0.00247871 -0.0015113 0)
(0.00261899 -0.00119452 0)
(0.00274691 -0.000890248 0)
(0.00286161 -0.000596953 0)
(0.00296296 -0.000312362 0)
(0.0030498 -3.32344e-05 0)
(0.00312089 0.000243403 0)
(0.00317831 0.000520472 0)
(0.00322133 0.000803441 0)
(0.00324925 0.00109721 0)
(0.00326895 0.00140585 0)
(0.00327634 0.00173834 0)
(0.00327641 0.00209708 0)
(0.00326894 0.00249071 0)
(0.00325689 0.00292594 0)
(0.00324334 0.00339147 0)
(0.00146446 -0.00307036 0)
(0.00163407 -0.00269638 0)
(0.00179218 -0.00233884 0)
(0.00194051 -0.00198782 0)
(0.0020775 -0.00164819 0)
(0.0022067 -0.00131891 0)
(0.00232282 -0.00100023 0)
(0.00242705 -0.000691276 0)
(0.00251929 -0.000390321 0)
(0.00259794 -9.42088e-05 0)
(0.00266197 0.00019933 0)
(0.00271412 0.000492876 0)
(0.00275306 0.000792066 0)
(0.00277854 0.00110071 0)
(0.00279695 0.00142237 0)
(0.00280364 0.00176593 0)
(0.00280523 0.00213336 0)
(0.00279979 0.00253322 0)
(0.00279242 0.00296912 0)
(0.00278723 0.0034299 0)
(0.00109763 -0.00325925 0)
(0.0012634 -0.00286343 0)
(0.00141749 -0.00248871 0)
(0.00155864 -0.00212455 0)
(0.00168797 -0.00177316 0)
(0.00180715 -0.00143202 0)
(0.0019132 -0.00109983 0)
(0.0020078 -0.000776824 0)
(0.00209093 -0.000461286 0)
(0.00216106 -0.000149948 0)
(0.00221765 0.00015867 0)
(0.00226387 0.000466817 0)
(0.00229786 0.000780428 0)
(0.00232007 0.00110203 0)
(0.00233602 0.00143511 0)
(0.00234078 0.0017878 0)
(0.00234284 0.00216159 0)
(0.00233938 0.00256449 0)
(0.00233689 0.00299713 0)
(0.00233865 0.00345346 0)
(0.00076328 -0.00343905 0)
(0.000917676 -0.00302709 0)
(0.00106197 -0.00263574 0)
(0.00119436 -0.00225696 0)
(0.00131451 -0.00189244 0)
(0.00142305 -0.00153785 0)
(0.00151903 -0.00119191 0)
(0.00160365 -0.000855286 0)
(0.00167721 -0.000525951 0)
(0.00173835 -0.000200399 0)
(0.00178707 0.000122079 0)
(0.00182661 0.000443508 0)
(0.00185447 0.000770093 0)
(0.00187225 0.00110299 0)
(0.00188462 0.00144592 0)
(0.00188704 0.00180566 0)
(0.00188896 0.00218324 0)
(0.00188729 0.00258582 0)
(0.0018891 0.00301363 0)
(0.00189506 0.00346571 0)
(0.000458997 -0.00359854 0)
(0.00059681 -0.00317645 0)
(0.000726997 -0.00277231 0)
(0.000848142 -0.00238076 0)
(0.000956652 -0.00200326 0)
(0.00105398 -0.00163521 0)
(0.00113905 -0.00127612 0)
(0.00121293 -0.000926495 0)
(0.00127638 -0.000584154 0)
(0.00132818 -0.000245273 0)
(0.00136862 9.00833e-05 0)
(0.00140089 0.000423779 0)
(0.00142183 0.000761914 0)
(0.00143442 0.00110437 0)
(0.00144259 0.00145519 0)
(0.00144268 0.00181955 0)
(0.00144413 0.00219841 0)
(0.00144352 0.00259825 0)
(0.00144757 0.00302171 0)
(0.00145569 0.00346571 0)
(0.000180067 -0.00373834 0)
(0.000298347 -0.00331053 0)
(0.000411465 -0.00289626 0)
(0.000517718 -0.00249321 0)
(0.000612404 -0.00210281 0)
(0.00069727 -0.00172213 0)
(0.000770213 -0.00135076 0)
(0.000832828 -0.000989021 0)
(0.000886079 -0.000634798 0)
(0.000928713 -0.000283732 0)
(0.000961086 6.33218e-05 0)
(0.000986099 0.000408132 0)
(0.00100025 0.000756164 0)
(0.00100777 0.00110621 0)
(0.00101209 0.00146266 0)
(0.00101031 0.00182932 0)
(0.00101106 0.00220767 0)
(0.00101068 0.0026039 0)
(0.00101499 0.00302245 0)
(0.00102629 0.00345285 0)
(-7.63111e-05 -0.00385783 0)
(1.9906e-05 -0.00342698 0)
(0.000113004 -0.00300464 0)
(0.000201182 -0.00259167 0)
(0.00028063 -0.00219001 0)
(0.000351564 -0.00179851 0)
(0.00041171 -0.00141623 0)
(0.00046329 -0.00104355 0)
(0.000506688 -0.000678661 0)
(0.000540678 -0.000316596 0)
(0.000565532 4.0941e-05 0)
(0.000583831 0.000395679 0)
(0.000592095 0.000752031 0)
(0.000595311 0.00110784 0)
(0.00059639 0.001468 0)
(0.000592817 0.00183561 0)
(0.000592199 0.0022127 0)
(0.000591365 0.00260541 0)
(0.00059561 0.00301531 0)
(0.000612232 0.00343129 0)
(-0.000314427 -0.00395746 0)
(-0.000241612 -0.00352432 0)
(-0.000170246 -0.00309593 0)
(-0.000101405 -0.00267527 0)
(-3.82541e-05 -0.002265 0)
(1.78403e-05 -0.00186461 0)
(6.50858e-05 -0.00147285 0)
(0.00010605 -0.00109028 0)
(0.000139662 -0.000715544 0)
(0.000165031 -0.000343468 0)
(0.000182402 2.34345e-05 0)
(0.000194267 0.000386839 0)
(0.000197323 0.000750062 0)
(0.000196659 0.00111025 0)
(0.000194489 0.00147278 0)
(0.000188317 0.00184069 0)
(0.000185409 0.00221581 0)
(0.000183524 0.0026037 0)
(0.0001891 0.00300051 0)
(0.000209466 0.00340449 0)
(-0.000540223 -0.0040378 0)
(-0.000491097 -0.00360255 0)
(-0.000441208 -0.00317036 0)
(-0.000391725 -0.0027445 0)
(-0.00034572 -0.00232778 0)
(-0.000304833 -0.00191978 0)
(-0.000270852 -0.00151965 0)
(-0.000240809 -0.00112794 0)
(-0.000217432 -0.000743794 0)
(-0.000201047 -0.000362965 0)
(-0.000191228 1.16984e-05 0)
(-0.000185411 0.000381817 0)
(-0.000186911 0.000749986 0)
(-0.00019111 0.0011132 0)
(-0.000196445 0.00147721 0)
(-0.000205619 0.00184471 0)
(-0.000210685 0.00221654 0)
(-0.000213417 0.0025961 0)
(-0.000205255 0.00297979 0)
(-0.000185518 0.00336966 0)
(-0.000759984 -0.00409967 0)
(-0.000733448 -0.00366376 0)
(-0.000704246 -0.00322946 0)
(-0.000674451 -0.00280001 0)
(-0.000646253 -0.0023778 0)
(-0.000620916 -0.00196308 0)
(-0.000600729 -0.00155573 0)
(-0.000582192 -0.00115649 0)
(-0.000568598 -0.000763994 0)
(-0.000560487 -0.000376468 0)
(-0.000557081 3.80266e-06 0)
(-0.000555968 0.00037856 0)
(-0.000560831 0.000750152 0)
(-0.000567792 0.00111585 0)
(-0.000575586 0.0014814 0)
(-0.000586798 0.00184799 0)
(-0.000592593 0.00221501 0)
(-0.00059457 0.00258367 0)
(-0.000585164 0.00295746 0)
(-0.000565772 0.00332938 0)
(-0.000979854 -0.0041451 0)
(-0.000974115 -0.00371023 0)
(-0.000965733 -0.00327424 0)
(-0.000955774 -0.00284178 0)
(-0.000944938 -0.00241509 0)
(-0.0009347 -0.00199519 0)
(-0.000927311 -0.00158226 0)
(-0.000920115 -0.00117803 0)
(-0.000914674 -0.000778799 0)
(-0.000913202 -0.000385867 0)
(-0.000914685 -9.47438e-07 0)
(-0.000917242 0.000377935 0)
(-0.000925085 0.000752823 0)
(-0.000934758 0.00112099 0)
(-0.00094478 0.00148746 0)
(-0.000956936 0.00185167 0)
(-0.000962547 0.0022119 0)
(-0.000962997 0.00257068 0)
(-0.000955694 0.00293291 0)
(-0.000932759 0.00328841 0)
(-0.00120503 -0.004176 0)
(-0.00121988 -0.00374185 0)
(-0.00123202 -0.00330448 0)
(-0.00124016 -0.00287021 0)
(-0.00124443 -0.00244105 0)
(-0.00124807 -0.0020178 0)
(-0.00125154 -0.00159999 0)
(-0.00125545 -0.00119145 0)
(-0.00125775 -0.000787105 0)
(-0.00126223 -0.000389727 0)
(-0.00126808 -1.56484e-06 0)
(-0.00127404 0.000380007 0)
(-0.0012846 0.000757209 0)
(-0.0012962 0.00112687 0)
(-0.00130698 0.00149251 0)
(-0.00131826 0.00185255 0)
(-0.00132273 0.00220518 0)
(-0.00132322 0.00255684 0)
(-0.00131772 0.00290253 0)
(-0.0012934 0.00324148 0)
(-0.00144178 -0.00419288 0)
(-0.00147743 -0.00375887 0)
(-0.00150703 -0.00332166 0)
(-0.00153035 -0.00288745 0)
(-0.00154789 -0.00245686 0)
(-0.00156487 -0.0020305 0)
(-0.00157854 -0.00160912 0)
(-0.00159178 -0.00119733 0)
(-0.00160069 -0.000791965 0)
(-0.00160915 -0.000392556 0)
(-0.00161721 -1.30189e-06 0)
(-0.0016246 0.000383711 0)
(-0.00163574 0.000763547 0)
(-0.00164645 0.00113394 0)
(-0.00165478 0.00149762 0)
(-0.00166351 0.00185353 0)
(-0.00166661 0.00220073 0)
(-0.00166875 0.00254392 0)
(-0.00166033 0.00287407 0)
(-0.00163774 0.00319275 0)
(-0.0016952 -0.00419455 0)
(-0.00174898 -0.00376448 0)
(-0.00179316 -0.00332908 0)
(-0.00183015 -0.00289522 0)
(-0.00186087 -0.00246378 0)
(-0.00188891 -0.00203518 0)
(-0.0019114 -0.00161329 0)
(-0.00192949 -0.00119908 0)
(-0.00194246 -0.000792532 0)
(-0.00195447 -0.000391716 0)
(-0.00196533 1.60305e-06 0)
(-0.00197379 0.000388589 0)
(-0.00198346 0.00076922 0)
(-0.0019905 0.00113879 0)
(-0.00199441 0.00150067 0)
(-0.00200021 0.00185421 0)
(-0.00200225 0.00219834 0)
(-0.00200333 0.00252836 0)
(-0.00199193 0.00284415 0)
(-0.00196788 0.00314308 0)
(-0.00196887 -0.00418733 0)
(-0.00203726 -0.00375967 0)
(-0.00209613 -0.00332613 0)
(-0.00214515 -0.00289303 0)
(-0.00218844 -0.00246247 0)
(-0.00222432 -0.00203462 0)
(-0.00225388 -0.0016133 0)
(-0.00227532 -0.00119952 0)
(-0.0022905 -0.000792084 0)
(-0.0023041 -0.000389543 0)
(-0.002315 5.17897e-06 0)
(-0.00232065 0.000392115 0)
(-0.00232482 0.000771394 0)
(-0.00232565 0.0011401 0)
(-0.0023249 0.00150281 0)
(-0.00232695 0.001856 0)
(-0.00232456 0.00219351 0)
(-0.002317 0.00251154 0)
(-0.00230666 0.00281385 0)
(-0.00228698 0.00309395 0)
(-0.00226736 -0.00417137 0)
(-0.00234938 -0.00374448 0)
(-0.0024212 -0.00331462 0)
(-0.00248158 -0.00288464 0)
(-0.00253214 -0.00245455 0)
(-0.00257316 -0.00202913 0)
(-0.00260572 -0.00161005 0)
(-0.00262968 -0.00119765 0)
(-0.00264673 -0.000789474 0)
(-0.00265984 -0.000386742 0)
(-0.00266617 5.93896e-06 0)
(-0.00266443 0.000390976 0)
(-0.00266205 0.000771234 0)
(-0.00265779 0.00114169 0)
(-0.00264978 0.00150283 0)
(-0.00263975 0.00185298 0)
(-0.00262563 0.00218472 0)
(-0.00261372 0.00250063 0)
(-0.00260267 0.00278946 0)
(-0.00257819 0.003045 0)
(-0.00259802 -0.00414403 0)
(-0.00269388 -0.00372146 0)
(-0.00277583 -0.0032965 0)
(-0.0028453 -0.00287079 0)
(-0.00289907 -0.00244645 0)
(-0.00294136 -0.00202347 0)
(-0.00297545 -0.00160548 0)
(-0.00300096 -0.00119484 0)
(-0.00301582 -0.000790198 0)
(-0.00302194 -0.000391252 0)
(-0.00302105 2.84283e-07 0)
(-0.00301493 0.000385993 0)
(-0.00300606 0.00076508 0)
(-0.00298816 0.00113322 0)
(-0.00296461 0.00149352 0)
(-0.00294491 0.00184374 0)
(-0.00291819 0.00217404 0)
(-0.00289416 0.00248557 0)
(-0.0028737 0.00276452 0)
(-0.00284656 0.00300063 0)
(-0.00296165 -0.00411256 0)
(-0.00306616 -0.00369178 0)
(-0.00315524 -0.00327216 0)
(-0.00322666 -0.00285368 0)
(-0.00328299 -0.00243442 0)
(-0.00332722 -0.00201492 0)
(-0.00335974 -0.00160117 0)
(-0.00337839 -0.00119588 0)
(-0.00338545 -0.000795258 0)
(-0.00338726 -0.000398436 0)
(-0.00338156 -9.22051e-06 0)
(-0.00336359 0.000373242 0)
(-0.00334057 0.000749286 0)
(-0.00331318 0.00111589 0)
(-0.00327598 0.00147562 0)
(-0.00323689 0.00182364 0)
(-0.00319097 0.00215721 0)
(-0.00314587 0.00246608 0)
(-0.00310399 0.00274131 0)
(-0.00306092 0.00295611 0)
(-1.10526e-05 -0.00847565 0)
(-2.26148e-05 -0.00830892 0)
(1.28206e-06 -0.00798736 0)
(8.23181e-05 -0.00751575 0)
(0.00023745 -0.00692213 0)
(0.000481249 -0.00622119 0)
(0.000818391 -0.00544542 0)
(0.00124948 -0.00462395 0)
(0.00174596 -0.00379574 0)
(0.00233709 -0.00300306 0)
(-3.19437e-05 -0.00840784 0)
(-8.62923e-05 -0.00825275 0)
(-0.000107004 -0.00795729 0)
(-7.39279e-05 -0.00751917 0)
(2.99923e-05 -0.00696776 0)
(0.000218954 -0.00631387 0)
(0.000503276 -0.00558488 0)
(0.000881759 -0.00480696 0)
(0.00134174 -0.00401263 0)
(0.00190927 -0.00320682 0)
(-4.35472e-05 -0.00833103 0)
(-0.000123092 -0.00818664 0)
(-0.00017111 -0.007916 0)
(-0.000170424 -0.00751208 0)
(-0.000104899 -0.0070019 0)
(3.73848e-05 -0.00639739 0)
(0.000270458 -0.00571941 0)
(0.000588894 -0.00499153 0)
(0.000993576 -0.00423386 0)
(0.00149678 -0.00343519 0)
(-5.04759e-05 -0.00825556 0)
(-0.000146892 -0.00812164 0)
(-0.000215714 -0.0078745 0)
(-0.000240441 -0.00750299 0)
(-0.000207377 -0.00703141 0)
(-0.000105668 -0.00647252 0)
(7.85964e-05 -0.00583902 0)
(0.000338637 -0.0051537 0)
(0.000682734 -0.00442681 0)
(0.00111538 -0.00365028 0)
(-5.71992e-05 -0.00818149 0)
(-0.000164514 -0.00805649 0)
(-0.000250183 -0.00783014 0)
(-0.00029601 -0.00748736 0)
(-0.000290595 -0.00705026 0)
(-0.00022463 -0.00653132 0)
(-8.41161e-05 -0.00593804 0)
(0.000123861 -0.00529095 0)
(0.000411918 -0.00459442 0)
(0.000781005 -0.00384284 0)
(-6.30072e-05 -0.00810966 0)
(-0.000178808 -0.00799268 0)
(-0.000277428 -0.00778249 0)
(-0.000340729 -0.00746513 0)
(-0.000358381 -0.00705754 0)
(-0.000324509 -0.00657197 0)
(-0.000223768 -0.00601504 0)
(-6.2339e-05 -0.00540331 0)
(0.000172207 -0.00473871 0)
(0.000482418 -0.00401588 0)
(-6.6668e-05 -0.00804005 0)
(-0.000191645 -0.00793177 0)
(-0.000300536 -0.00773379 0)
(-0.000379784 -0.00743958 0)
(-0.000418276 -0.00705761 0)
(-0.000411796 -0.00660069 0)
(-0.000347639 -0.0060756 0)
(-0.000226989 -0.00549493 0)
(-4.02762e-05 -0.00486014 0)
(0.000216365 -0.00416646 0)
(-7.07239e-05 -0.00797395 0)
(-0.000204042 -0.0078727 0)
(-0.000321579 -0.00768437 0)
(-0.00041566 -0.0074097 0)
(-0.000473818 -0.00704893 0)
(-0.000491162 -0.00661637 0)
(-0.000459439 -0.00611839 0)
(-0.000375693 -0.00556568 0)
(-0.000232133 -0.00495959 0)
(-2.37877e-05 -0.00429604 0)
(-7.65646e-05 -0.00791088 0)
(-0.000216993 -0.00781575 0)
(-0.000343734 -0.00763577 0)
(-0.000451882 -0.00737634 0)
(-0.000528093 -0.00703268 0)
(-0.000568111 -0.00662083 0)
(-0.0005646 -0.00614641 0)
(-0.000513031 -0.0056188 0)
(-0.000407578 -0.00503902 0)
(-0.000242884 -0.00440369 0)
(-8.20639e-05 -0.00784859 0)
(-0.000230598 -0.00776067 0)
(-0.000368663 -0.00758711 0)
(-0.000490872 -0.00733913 0)
(-0.000583654 -0.00700994 0)
(-0.000644967 -0.00661547 0)
(-0.000666386 -0.00616142 0)
(-0.000643337 -0.00565595 0)
(-0.000571608 -0.00509987 0)
(-0.00044651 -0.00449002 0)
(-8.66025e-05 -0.0077871 0)
(-0.000246617 -0.00770697 0)
(-0.000397627 -0.00753784 0)
(-0.000533706 -0.00729839 0)
(-0.000642766 -0.00698202 0)
(-0.000723551 -0.0066023 0)
(-0.000767844 -0.00616545 0)
(-0.000771403 -0.00567859 0)
(-0.000729952 -0.00514361 0)
(-0.000640267 -0.00455755 0)
(-9.18339e-05 -0.00772731 0)
(-0.000266734 -0.00765307 0)
(-0.000431585 -0.00748746 0)
(-0.000581526 -0.0072547 0)
(-0.000707728 -0.00694948 0)
(-0.000806831 -0.00658211 0)
(-0.000872802 -0.00615936 0)
(-0.000901516 -0.00568823 0)
(-0.000887513 -0.00517241 0)
(-0.000829802 -0.00460882 0)
(-9.9105e-05 -0.00766827 0)
(-0.000290897 -0.00759711 0)
(-0.000471043 -0.00743539 0)
(-0.000635983 -0.00720829 0)
(-0.000780523 -0.00691234 0)
(-0.000898035 -0.0065552 0)
(-0.000985125 -0.00614389 0)
(-0.00103732 -0.00568703 0)
(-0.00104898 -0.00518849 0)
(-0.00102125 -0.00464438 0)
(-0.00010803 -0.00760765 0)
(-0.000317766 -0.00753781 0)
(-0.000515902 -0.00738097 0)
(-0.000698341 -0.00715876 0)
(-0.000862477 -0.00687012 0)
(-0.00099967 -0.00652153 0)
(-0.00110791 -0.00611997 0)
(-0.00118244 -0.00567594 0)
(-0.00121921 -0.00519135 0)
(-0.00122 -0.00466365 0)
(-0.000117611 -0.00754326 0)
(-0.000346909 -0.00747423 0)
(-0.000566807 -0.00732294 0)
(-0.000770022 -0.00710484 0)
(-0.000955084 -0.00682177 0)
(-0.00111338 -0.00648016 0)
(-0.00124325 -0.00608839 0)
(-0.00134097 -0.00565601 0)
(-0.00140347 -0.00518229 0)
(-0.00143211 -0.00467072 0)
(-0.000128144 -0.00747382 0)
(-0.000380337 -0.0074051 0)
(-0.000625704 -0.00725877 0)
(-0.000852437 -0.00704439 0)
(-0.00106007 -0.00676763 0)
(-0.00124149 -0.00643353 0)
(-0.00139486 -0.00605053 0)
(-0.00151785 -0.0056259 0)
(-0.00160709 -0.00516195 0)
(-0.00166166 -0.00466427 0)
(-0.000141034 -0.00739776 0)
(-0.000420562 -0.00732852 0)
(-0.000694217 -0.00718718 0)
(-0.000947512 -0.00697762 0)
(-0.00118053 -0.00670587 0)
(-0.00138784 -0.00637839 0)
(-0.00156746 -0.00600266 0)
(-0.00171773 -0.00558344 0)
(-0.00183276 -0.00513146 0)
(-0.00191263 -0.00464611 0)
(-0.0001571 -0.00731239 0)
(-0.000468637 -0.00724309 0)
(-0.000773545 -0.00710623 0)
(-0.00105786 -0.006902 0)
(-0.00132098 -0.00663692 0)
(-0.00155805 -0.00631636 0)
(-0.00176656 -0.00594687 0)
(-0.001945 -0.00553495 0)
(-0.00208379 -0.00509205 0)
(-0.00219052 -0.00461993 0)
(-0.000176593 -0.0072164 0)
(-0.000525541 -0.00714734 0)
(-0.000866259 -0.00701424 0)
(-0.00118651 -0.00681626 0)
(-0.00148427 -0.00655796 0)
(-0.00175531 -0.00624375 0)
(-0.00199643 -0.0058795 0)
(-0.00220367 -0.00547766 0)
(-0.00236972 -0.00504299 0)
(-0.00250223 -0.00458407 0)
(-0.000198785 -0.00710095 0)
(-0.00059057 -0.00703503 0)
(-0.000972596 -0.0069061 0)
(-0.00133565 -0.00671518 0)
(-0.00167524 -0.00646528 0)
(-0.001985 -0.00615896 0)
(-0.00226084 -0.00580447 0)
(-0.00249488 -0.00541321 0)
(-0.00268945 -0.00498852 0)
(-0.00284878 -0.00454314 0)
)


// ************************************************************************* //
