/*--------------------------------*- C++ -*----------------------------------*\
| =========                 |                                                 |
| \\      /  F ield         | foam-extend: Open Source CFD                    |
|  \\    /   O peration     | Version:     4.1                                |
|   \\  /    A nd           | Web:         http://www.foam-extend.org         |
|    \\/     M anipulation  |                                                 |
\*---------------------------------------------------------------------------*/
FoamFile
{
    version     2.0;
    format      ascii;
    class       vectorField;
    location    "1";
    object      solidsCellD_iteration17;
}
// * * * * * * * * * * * * * * * * * * * * * * * * * * * * * * * * * * * * * //


1000
(
(4.6703e-07 -1.6276e-07 0)
(4.43865e-07 -1.53064e-07 0)
(4.29683e-07 -1.47605e-07 0)
(4.22098e-07 -1.46053e-07 0)
(4.19234e-07 -1.46851e-07 0)
(4.1978e-07 -1.49398e-07 0)
(4.22914e-07 -1.53148e-07 0)
(4.2783e-07 -1.57827e-07 0)
(4.34413e-07 -1.63098e-07 0)
(4.41566e-07 -1.68672e-07 0)
(4.22673e-07 -1.77992e-07 0)
(3.9809e-07 -1.72071e-07 0)
(3.82937e-07 -1.69035e-07 0)
(3.74571e-07 -1.69126e-07 0)
(3.71009e-07 -1.71041e-07 0)
(3.70901e-07 -1.74373e-07 0)
(3.73355e-07 -1.78644e-07 0)
(3.77599e-07 -1.83743e-07 0)
(3.83444e-07 -1.89222e-07 0)
(3.89861e-07 -1.95227e-07 0)
(3.76504e-07 -1.92431e-07 0)
(3.51406e-07 -1.90715e-07 0)
(3.3585e-07 -1.90375e-07 0)
(3.27113e-07 -1.9225e-07 0)
(3.23153e-07 -1.95352e-07 0)
(3.22601e-07 -1.99481e-07 0)
(3.24559e-07 -2.04288e-07 0)
(3.28295e-07 -2.09753e-07 0)
(3.3357e-07 -2.15463e-07 0)
(3.39545e-07 -2.21586e-07 0)
(3.28787e-07 -2.05786e-07 0)
(3.04288e-07 -2.08422e-07 0)
(2.89024e-07 -2.10899e-07 0)
(2.8033e-07 -2.1462e-07 0)
(2.76246e-07 -2.18925e-07 0)
(2.75414e-07 -2.23841e-07 0)
(2.76932e-07 -2.29161e-07 0)
(2.80206e-07 -2.34962e-07 0)
(2.84912e-07 -2.40898e-07 0)
(2.90379e-07 -2.47183e-07 0)
(2.7998e-07 -2.17775e-07 0)
(2.57027e-07 -2.24724e-07 0)
(2.42706e-07 -2.2996e-07 0)
(2.34514e-07 -2.35482e-07 0)
(2.3056e-07 -2.40958e-07 0)
(2.29567e-07 -2.46661e-07 0)
(2.30743e-07 -2.52503e-07 0)
(2.33565e-07 -2.58638e-07 0)
(2.37694e-07 -2.64827e-07 0)
(2.42532e-07 -2.71267e-07 0)
(2.3016e-07 -2.28219e-07 0)
(2.09845e-07 -2.39193e-07 0)
(1.97151e-07 -2.47008e-07 0)
(1.89814e-07 -2.54214e-07 0)
(1.86197e-07 -2.60786e-07 0)
(1.85179e-07 -2.67205e-07 0)
(1.86092e-07 -2.73526e-07 0)
(1.88451e-07 -2.79962e-07 0)
(1.91928e-07 -2.8641e-07 0)
(1.96019e-07 -2.93039e-07 0)
(1.79714e-07 -2.3683e-07 0)
(1.62877e-07 -2.51316e-07 0)
(1.52331e-07 -2.61404e-07 0)
(1.46203e-07 -2.70111e-07 0)
(1.43157e-07 -2.77641e-07 0)
(1.42258e-07 -2.84684e-07 0)
(1.42945e-07 -2.91425e-07 0)
(1.44802e-07 -2.98131e-07 0)
(1.47555e-07 -3.04807e-07 0)
(1.50806e-07 -3.11597e-07 0)
(1.28729e-07 -2.43479e-07 0)
(1.16111e-07 -2.60792e-07 0)
(1.0821e-07 -2.72682e-07 0)
(1.03623e-07 -2.82573e-07 0)
(1.01339e-07 -2.90875e-07 0)
(1.00636e-07 -2.98435e-07 0)
(1.01095e-07 -3.05539e-07 0)
(1.02417e-07 -3.12472e-07 0)
(1.04407e-07 -3.19344e-07 0)
(1.06769e-07 -3.26278e-07 0)
(7.73818e-08 -2.48002e-07 0)
(6.95714e-08 -2.67271e-07 0)
(6.47123e-08 -2.80409e-07 0)
(6.18632e-08 -2.91148e-07 0)
(6.04128e-08 -2.99989e-07 0)
(5.99452e-08 -3.079e-07 0)
(6.02252e-08 -3.15268e-07 0)
(6.10438e-08 -3.22391e-07 0)
(6.2248e-08 -3.29412e-07 0)
(6.36731e-08 -3.36453e-07 0)
(2.58466e-08 -2.50287e-07 0)
(2.32156e-08 -2.70593e-07 0)
(2.15336e-08 -2.84354e-07 0)
(2.05561e-08 -2.95505e-07 0)
(2.00918e-08 -3.04627e-07 0)
(1.99374e-08 -3.12728e-07 0)
(1.99999e-08 -3.202e-07 0)
(2.02638e-08 -3.27397e-07 0)
(2.0679e-08 -3.34503e-07 0)
(2.11555e-08 -3.41613e-07 0)
(7.22673e-07 -7.33192e-09 0)
(7.28125e-07 -5.275e-09 0)
(7.32204e-07 -4.0125e-09 0)
(7.36863e-07 -3.31757e-09 0)
(7.42409e-07 -2.97239e-09 0)
(7.49139e-07 -2.87386e-09 0)
(7.57148e-07 -2.98195e-09 0)
(7.6638e-07 -3.18413e-09 0)
(7.76839e-07 -3.45525e-09 0)
(7.88384e-07 -3.80117e-09 0)
(7.1747e-07 -2.20509e-08 0)
(7.21977e-07 -1.6002e-08 0)
(7.25467e-07 -1.22375e-08 0)
(7.29721e-07 -1.01945e-08 0)
(7.34981e-07 -9.27895e-09 0)
(7.41505e-07 -9.02237e-09 0)
(7.4937e-07 -9.27625e-09 0)
(7.58486e-07 -9.90431e-09 0)
(7.68831e-07 -1.07802e-08 0)
(7.80292e-07 -1.17884e-08 0)
(7.07097e-07 -3.68652e-08 0)
(7.09788e-07 -2.72012e-08 0)
(7.12121e-07 -2.12177e-08 0)
(7.15624e-07 -1.78954e-08 0)
(7.20372e-07 -1.63809e-08 0)
(7.26547e-07 -1.60428e-08 0)
(7.34112e-07 -1.65271e-08 0)
(7.43038e-07 -1.7556e-08 0)
(7.5315e-07 -1.90039e-08 0)
(7.64436e-07 -2.06813e-08 0)
(6.91702e-07 -5.19137e-08 0)
(6.91811e-07 -3.91363e-08 0)
(6.92478e-07 -3.1305e-08 0)
(6.94898e-07 -2.69962e-08 0)
(6.98916e-07 -2.50295e-08 0)
(7.04614e-07 -2.46128e-08 0)
(7.1178e-07 -2.53124e-08 0)
(7.20417e-07 -2.67349e-08 0)
(7.30214e-07 -2.87063e-08 0)
(7.41261e-07 -3.10137e-08 0)
(6.71484e-07 -6.72248e-08 0)
(6.68427e-07 -5.20298e-08 0)
(6.6704e-07 -4.27854e-08 0)
(6.68114e-07 -3.77773e-08 0)
(6.71229e-07 -3.55515e-08 0)
(6.763e-07 -3.51628e-08 0)
(6.82988e-07 -3.60965e-08 0)
(6.91259e-07 -3.79059e-08 0)
(7.00688e-07 -4.03719e-08 0)
(7.11464e-07 -4.3256e-08 0)
(6.46688e-07 -8.2862e-08 0)
(6.40045e-07 -6.61231e-08 0)
(6.36377e-07 -5.598e-08 0)
(6.35943e-07 -5.06005e-08 0)
(6.38037e-07 -4.8313e-08 0)
(6.42389e-07 -4.80545e-08 0)
(6.48549e-07 -4.92565e-08 0)
(6.56404e-07 -5.14424e-08 0)
(6.65428e-07 -5.43826e-08 0)
(6.75883e-07 -5.77789e-08 0)
(6.17696e-07 -9.87534e-08 0)
(6.07232e-07 -8.1483e-08 0)
(6.01135e-07 -7.10392e-08 0)
(5.99105e-07 -6.56285e-08 0)
(6.00121e-07 -6.3477e-08 0)
(6.03724e-07 -6.34723e-08 0)
(6.09328e-07 -6.49922e-08 0)
(6.16743e-07 -6.75146e-08 0)
(6.25362e-07 -7.08618e-08 0)
(6.35488e-07 -7.46663e-08 0)
(5.84826e-07 -1.14805e-07 0)
(5.70584e-07 -9.80377e-08 0)
(5.62107e-07 -8.79462e-08 0)
(5.58487e-07 -8.29267e-08 0)
(5.5846e-07 -8.11484e-08 0)
(5.61316e-07 -8.15444e-08 0)
(5.66362e-07 -8.34608e-08 0)
(5.73313e-07 -8.63328e-08 0)
(5.81529e-07 -9.00451e-08 0)
(5.91254e-07 -9.41597e-08 0)
(5.48482e-07 -1.30938e-07 0)
(5.30726e-07 -1.15645e-07 0)
(5.20004e-07 -1.06561e-07 0)
(5.14866e-07 -1.02335e-07 0)
(5.13807e-07 -1.01163e-07 0)
(5.15861e-07 -1.02088e-07 0)
(5.20306e-07 -1.04466e-07 0)
(5.26733e-07 -1.07704e-07 0)
(5.34572e-07 -1.1175e-07 0)
(5.43882e-07 -1.15956e-07 0)
(5.09093e-07 -1.47003e-07 0)
(4.88334e-07 -1.34087e-07 0)
(4.75664e-07 -1.26574e-07 0)
(4.69206e-07 -1.23527e-07 0)
(4.67216e-07 -1.23224e-07 0)
(4.68581e-07 -1.24849e-07 0)
(4.72561e-07 -1.27831e-07 0)
(4.78479e-07 -1.31638e-07 0)
(4.86067e-07 -1.36129e-07 0)
(4.94667e-07 -1.40853e-07 0)
(8.01014e-07 -4.125e-09 0)
(8.14712e-07 -4.27216e-09 0)
(8.29227e-07 -4.39232e-09 0)
(8.44505e-07 -4.49678e-09 0)
(8.60466e-07 -4.59236e-09 0)
(8.77054e-07 -4.67501e-09 0)
(8.94198e-07 -4.71673e-09 0)
(9.11851e-07 -4.73098e-09 0)
(9.29993e-07 -4.74262e-09 0)
(9.48578e-07 -4.74337e-09 0)
(9.67546e-07 -4.72068e-09 0)
(9.86863e-07 -4.66937e-09 0)
(1.00649e-06 -4.5846e-09 0)
(1.02638e-06 -4.46706e-09 0)
(1.0465e-06 -4.32021e-09 0)
(1.06681e-06 -4.14266e-09 0)
(1.08727e-06 -3.92769e-09 0)
(1.10782e-06 -3.66237e-09 0)
(1.12842e-06 -3.34168e-09 0)
(1.14897e-06 -2.96356e-09 0)
(7.9325e-07 -1.2683e-08 0)
(8.07579e-07 -1.30628e-08 0)
(8.2266e-07 -1.34027e-08 0)
(8.38444e-07 -1.3703e-08 0)
(8.54853e-07 -1.39316e-08 0)
(8.71829e-07 -1.41143e-08 0)
(8.89338e-07 -1.42432e-08 0)
(9.07343e-07 -1.43275e-08 0)
(9.2581e-07 -1.43711e-08 0)
(9.4468e-07 -1.43456e-08 0)
(9.63911e-07 -1.42431e-08 0)
(9.83479e-07 -1.40706e-08 0)
(1.00335e-06 -1.38202e-08 0)
(1.02347e-06 -1.34807e-08 0)
(1.04382e-06 -1.30438e-08 0)
(1.06434e-06 -1.25016e-08 0)
(1.08499e-06 -1.18389e-08 0)
(1.10573e-06 -1.10312e-08 0)
(1.12652e-06 -1.00583e-08 0)
(1.14723e-06 -8.91717e-09 0)
(7.78048e-07 -2.20735e-08 0)
(7.93626e-07 -2.25604e-08 0)
(8.09812e-07 -2.29932e-08 0)
(8.26548e-07 -2.33945e-08 0)
(8.4383e-07 -2.37118e-08 0)
(8.61605e-07 -2.39739e-08 0)
(8.79842e-07 -2.41509e-08 0)
(8.98492e-07 -2.42429e-08 0)
(9.17551e-07 -2.4258e-08 0)
(9.36966e-07 -2.41722e-08 0)
(9.56713e-07 -2.39827e-08 0)
(9.76763e-07 -2.3691e-08 0)
(9.97075e-07 -2.32727e-08 0)
(1.01761e-06 -2.27051e-08 0)
(1.03835e-06 -2.19777e-08 0)
(1.05926e-06 -2.10775e-08 0)
(1.08029e-06 -1.99758e-08 0)
(1.1014e-06 -1.86383e-08 0)
(1.12256e-06 -1.70202e-08 0)
(1.14365e-06 -1.51255e-08 0)
(7.55801e-07 -3.2745e-08 0)
(7.73146e-07 -3.31469e-08 0)
(7.90939e-07 -3.3506e-08 0)
(8.09099e-07 -3.38654e-08 0)
(8.27672e-07 -3.41448e-08 0)
(8.46594e-07 -3.43789e-08 0)
(8.65883e-07 -3.45154e-08 0)
(8.855e-07 -3.45626e-08 0)
(9.05463e-07 -3.45255e-08 0)
(9.25712e-07 -3.4363e-08 0)
(9.46234e-07 -3.40596e-08 0)
(9.66999e-07 -3.36103e-08 0)
(9.87978e-07 -3.29917e-08 0)
(1.00915e-06 -3.21818e-08 0)
(1.03048e-06 -3.11717e-08 0)
(1.05196e-06 -2.99281e-08 0)
(1.07354e-06 -2.84131e-08 0)
(1.09519e-06 -2.65764e-08 0)
(1.11687e-06 -2.43438e-08 0)
(1.13851e-06 -2.17474e-08 0)
(7.27194e-07 -4.50974e-08 0)
(7.46785e-07 -4.51382e-08 0)
(7.66619e-07 -4.52074e-08 0)
(7.86564e-07 -4.53649e-08 0)
(8.06775e-07 -4.54679e-08 0)
(8.27178e-07 -4.55686e-08 0)
(8.47826e-07 -4.55877e-08 0)
(8.68696e-07 -4.55304e-08 0)
(8.89796e-07 -4.53742e-08 0)
(9.11097e-07 -4.50705e-08 0)
(9.32603e-07 -4.46096e-08 0)
(9.54298e-07 -4.39809e-08 0)
(9.76156e-07 -4.31527e-08 0)
(9.98159e-07 -4.20953e-08 0)
(1.0203e-06 -4.07935e-08 0)
(1.04253e-06 -3.92013e-08 0)
(1.06484e-06 -3.72727e-08 0)
(1.0872e-06 -3.49476e-08 0)
(1.10959e-06 -3.21291e-08 0)
(1.13193e-06 -2.88709e-08 0)
(6.92968e-07 -5.94644e-08 0)
(7.15148e-07 -5.88119e-08 0)
(7.37408e-07 -5.83063e-08 0)
(7.59503e-07 -5.80561e-08 0)
(7.81681e-07 -5.78277e-08 0)
(8.03875e-07 -5.76683e-08 0)
(8.2613e-07 -5.74444e-08 0)
(8.48499e-07 -5.71749e-08 0)
(8.70974e-07 -5.6822e-08 0)
(8.93562e-07 -5.63262e-08 0)
(9.16272e-07 -5.56737e-08 0)
(9.39092e-07 -5.48433e-08 0)
(9.62008e-07 -5.379e-08 0)
(9.85007e-07 -5.2479e-08 0)
(1.0081e-06 -5.08809e-08 0)
(1.03124e-06 -4.89477e-08 0)
(1.05445e-06 -4.66164e-08 0)
(1.07766e-06 -4.38279e-08 0)
(1.10092e-06 -4.04708e-08 0)
(1.12411e-06 -3.65863e-08 0)
(6.54096e-07 -7.59489e-08 0)
(6.79126e-07 -7.43084e-08 0)
(7.04084e-07 -7.29703e-08 0)
(7.28573e-07 -7.20829e-08 0)
(7.5293e-07 -7.13218e-08 0)
(7.7712e-07 -7.07323e-08 0)
(8.01216e-07 -7.01526e-08 0)
(8.25283e-07 -6.95765e-08 0)
(8.49336e-07 -6.89532e-08 0)
(8.73399e-07 -6.82172e-08 0)
(8.97488e-07 -6.73334e-08 0)
(9.21602e-07 -6.62653e-08 0)
(9.4574e-07 -6.49596e-08 0)
(9.69907e-07 -6.33805e-08 0)
(9.94113e-07 -6.14858e-08 0)
(1.01833e-06 -5.92215e-08 0)
(1.04258e-06 -5.65074e-08 0)
(1.0668e-06 -5.32794e-08 0)
(1.09104e-06 -4.94215e-08 0)
(1.1152e-06 -4.49573e-08 0)
(6.11419e-07 -9.46879e-08 0)
(6.39413e-07 -9.1623e-08 0)
(6.67269e-07 -8.91182e-08 0)
(6.94353e-07 -8.73227e-08 0)
(7.21136e-07 -8.58579e-08 0)
(7.47506e-07 -8.46827e-08 0)
(7.73653e-07 -8.36472e-08 0)
(7.99593e-07 -8.26882e-08 0)
(8.25388e-07 -8.17303e-08 0)
(8.51072e-07 -8.07022e-08 0)
(8.76677e-07 -7.95488e-08 0)
(9.0222e-07 -7.82182e-08 0)
(9.27716e-07 -7.66497e-08 0)
(9.53188e-07 -7.48005e-08 0)
(9.78644e-07 -7.26172e-08 0)
(1.00407e-06 -7.0033e-08 0)
(1.02948e-06 -6.6961e-08 0)
(1.05483e-06 -6.33207e-08 0)
(1.08017e-06 -5.89979e-08 0)
(1.10542e-06 -5.40049e-08 0)
(5.65838e-07 -1.15596e-07 0)
(5.96831e-07 -1.10894e-07 0)
(6.27642e-07 -1.0708e-07 0)
(6.57425e-07 -1.04128e-07 0)
(6.86722e-07 -1.01734e-07 0)
(7.15436e-07 -9.97674e-08 0)
(7.43753e-07 -9.8098e-08 0)
(7.71707e-07 -9.6612e-08 0)
(7.99381e-07 -9.52187e-08 0)
(8.26822e-07 -9.38229e-08 0)
(8.54076e-07 -9.23476e-08 0)
(8.81182e-07 -9.07248e-08 0)
(9.08171e-07 -8.88831e-08 0)
(9.35076e-07 -8.67665e-08 0)
(9.61902e-07 -8.43053e-08 0)
(9.88652e-07 -8.1413e-08 0)
(1.01533e-06 -7.80047e-08 0)
(1.04193e-06 -7.39766e-08 0)
(1.06848e-06 -6.92329e-08 0)
(1.09494e-06 -6.37663e-08 0)
(5.18383e-07 -1.38465e-07 0)
(5.53013e-07 -1.3115e-07 0)
(5.86948e-07 -1.2571e-07 0)
(6.1961e-07 -1.21447e-07 0)
(6.5141e-07 -1.18082e-07 0)
(6.82491e-07 -1.15317e-07 0)
(7.1296e-07 -1.12992e-07 0)
(7.42933e-07 -1.10955e-07 0)
(7.72498e-07 -1.09104e-07 0)
(8.01718e-07 -1.07323e-07 0)
(8.30653e-07 -1.05518e-07 0)
(8.59357e-07 -1.03606e-07 0)
(8.87871e-07 -1.01502e-07 0)
(9.16234e-07 -9.91359e-08 0)
(9.44459e-07 -9.64222e-08 0)
(9.72561e-07 -9.32591e-08 0)
(1.00057e-06 -8.95673e-08 0)
(1.02846e-06 -8.52024e-08 0)
(1.05631e-06 -8.00965e-08 0)
(1.08407e-06 -7.42069e-08 0)
(4.81246e-07 -1.62716e-07 0)
(5.18956e-07 -1.52637e-07 0)
(5.55208e-07 -1.45572e-07 0)
(5.90206e-07 -1.39845e-07 0)
(6.24045e-07 -1.35325e-07 0)
(6.5697e-07 -1.31614e-07 0)
(6.89098e-07 -1.28497e-07 0)
(7.20585e-07 -1.25798e-07 0)
(7.51529e-07 -1.23378e-07 0)
(7.82014e-07 -1.211e-07 0)
(8.12121e-07 -1.18859e-07 0)
(8.41916e-07 -1.16562e-07 0)
(8.71448e-07 -1.14111e-07 0)
(9.00765e-07 -1.11428e-07 0)
(9.29881e-07 -1.08417e-07 0)
(9.58832e-07 -1.04959e-07 0)
(9.87644e-07 -1.00995e-07 0)
(1.01634e-06 -9.63424e-08 0)
(1.04497e-06 -9.09411e-08 0)
(1.07352e-06 -8.47121e-08 0)
(4.61201e-07 -1.83418e-07 0)
(4.99436e-07 -1.72936e-07 0)
(5.36126e-07 -1.64906e-07 0)
(5.71853e-07 -1.58232e-07 0)
(6.06487e-07 -1.52788e-07 0)
(6.40215e-07 -1.48239e-07 0)
(6.73134e-07 -1.44369e-07 0)
(7.05363e-07 -1.40998e-07 0)
(7.36986e-07 -1.37966e-07 0)
(7.68092e-07 -1.35132e-07 0)
(7.98764e-07 -1.32393e-07 0)
(8.29068e-07 -1.29644e-07 0)
(8.59055e-07 -1.26779e-07 0)
(8.88773e-07 -1.23719e-07 0)
(9.1824e-07 -1.20361e-07 0)
(9.47516e-07 -1.1658e-07 0)
(9.76608e-07 -1.12334e-07 0)
(1.00558e-06 -1.07427e-07 0)
(1.03446e-06 -1.01784e-07 0)
(1.06323e-06 -9.53108e-08 0)
(4.45185e-07 -2.02676e-07 0)
(4.83018e-07 -1.92124e-07 0)
(5.19796e-07 -1.83633e-07 0)
(5.55791e-07 -1.76369e-07 0)
(5.90839e-07 -1.7025e-07 0)
(6.2505e-07 -1.65014e-07 0)
(6.58482e-07 -1.60484e-07 0)
(6.91213e-07 -1.56484e-07 0)
(7.23318e-07 -1.52862e-07 0)
(7.54878e-07 -1.49485e-07 0)
(7.8597e-07 -1.46251e-07 0)
(8.16656e-07 -1.43048e-07 0)
(8.46983e-07 -1.39767e-07 0)
(8.77004e-07 -1.3633e-07 0)
(9.0674e-07 -1.32634e-07 0)
(9.36266e-07 -1.28551e-07 0)
(9.65583e-07 -1.24041e-07 0)
(9.94768e-07 -1.18917e-07 0)
(1.02384e-06 -1.13079e-07 0)
(1.0528e-06 -1.06444e-07 0)
(4.3141e-07 -2.2144e-07 0)
(4.68769e-07 -2.10972e-07 0)
(5.05322e-07 -2.02174e-07 0)
(5.41292e-07 -1.94431e-07 0)
(5.76451e-07 -1.87731e-07 0)
(6.10894e-07 -1.81886e-07 0)
(6.44615e-07 -1.76749e-07 0)
(6.77668e-07 -1.72158e-07 0)
(7.10113e-07 -1.67971e-07 0)
(7.42012e-07 -1.64071e-07 0)
(7.73431e-07 -1.60356e-07 0)
(8.04421e-07 -1.56709e-07 0)
(8.35029e-07 -1.53022e-07 0)
(8.65308e-07 -1.49224e-07 0)
(8.95283e-07 -1.45204e-07 0)
(9.2503e-07 -1.40847e-07 0)
(9.54556e-07 -1.36099e-07 0)
(9.83939e-07 -1.30788e-07 0)
(1.01318e-06 -1.24805e-07 0)
(1.04233e-06 -1.18089e-07 0)
(4.19604e-07 -2.39305e-07 0)
(4.56373e-07 -2.29038e-07 0)
(4.92554e-07 -2.20137e-07 0)
(5.28303e-07 -2.12113e-07 0)
(5.63392e-07 -2.04998e-07 0)
(5.97877e-07 -1.98677e-07 0)
(6.31713e-07 -1.93026e-07 0)
(6.64939e-07 -1.87911e-07 0)
(6.97593e-07 -1.83211e-07 0)
(7.29719e-07 -1.78822e-07 0)
(7.61367e-07 -1.74651e-07 0)
(7.92581e-07 -1.7058e-07 0)
(8.23404e-07 -1.66505e-07 0)
(8.53888e-07 -1.62366e-07 0)
(8.84058e-07 -1.58043e-07 0)
(9.1399e-07 -1.5344e-07 0)
(9.43692e-07 -1.48483e-07 0)
(9.73243e-07 -1.43016e-07 0)
(1.00264e-06 -1.36943e-07 0)
(1.03199e-06 -1.30215e-07 0)
(4.09327e-07 -2.56548e-07 0)
(4.45497e-07 -2.46519e-07 0)
(4.8125e-07 -2.37601e-07 0)
(5.16659e-07 -2.29398e-07 0)
(5.51557e-07 -2.21983e-07 0)
(5.85941e-07 -2.1528e-07 0)
(6.19764e-07 -2.09196e-07 0)
(6.53044e-07 -2.0363e-07 0)
(6.85797e-07 -1.98474e-07 0)
(7.18052e-07 -1.93642e-07 0)
(7.49845e-07 -1.89051e-07 0)
(7.81209e-07 -1.84586e-07 0)
(8.12185e-07 -1.80151e-07 0)
(8.42822e-07 -1.757e-07 0)
(8.73142e-07 -1.71096e-07 0)
(9.03219e-07 -1.66277e-07 0)
(9.33064e-07 -1.61145e-07 0)
(9.62751e-07 -1.55563e-07 0)
(9.92302e-07 -1.4945e-07 0)
(1.02182e-06 -1.4276e-07 0)
(4.00341e-07 -2.73171e-07 0)
(4.35925e-07 -2.63404e-07 0)
(4.71205e-07 -2.54542e-07 0)
(5.06225e-07 -2.46251e-07 0)
(5.40846e-07 -2.38632e-07 0)
(5.75035e-07 -2.31634e-07 0)
(6.08749e-07 -2.25201e-07 0)
(6.41988e-07 -2.19255e-07 0)
(6.74748e-07 -2.13702e-07 0)
(7.07044e-07 -2.08475e-07 0)
(7.38902e-07 -2.03503e-07 0)
(7.70347e-07 -1.98677e-07 0)
(8.01417e-07 -1.93914e-07 0)
(8.32155e-07 -1.89181e-07 0)
(8.62581e-07 -1.84327e-07 0)
(8.92764e-07 -1.79319e-07 0)
(9.22719e-07 -1.74046e-07 0)
(9.52517e-07 -1.68392e-07 0)
(9.82214e-07 -1.62285e-07 0)
(1.01186e-06 -1.55669e-07 0)
(3.92426e-07 -2.89269e-07 0)
(4.27458e-07 -2.7976e-07 0)
(4.62245e-07 -2.70991e-07 0)
(4.96855e-07 -2.62672e-07 0)
(5.31137e-07 -2.54914e-07 0)
(5.65071e-07 -2.47693e-07 0)
(5.98604e-07 -2.40984e-07 0)
(6.31721e-07 -2.34723e-07 0)
(6.64408e-07 -2.28828e-07 0)
(6.96672e-07 -2.23255e-07 0)
(7.28531e-07 -2.17946e-07 0)
(7.6e-07 -2.12799e-07 0)
(7.91117e-07 -2.07744e-07 0)
(8.21912e-07 -2.0276e-07 0)
(8.52409e-07 -1.97691e-07 0)
(8.82668e-07 -1.92524e-07 0)
(9.12708e-07 -1.87147e-07 0)
(9.4261e-07 -1.81461e-07 0)
(9.72416e-07 -1.75393e-07 0)
(1.00217e-06 -1.68893e-07 0)
(3.85392e-07 -3.04894e-07 0)
(4.19886e-07 -2.95634e-07 0)
(4.54196e-07 -2.86974e-07 0)
(4.88376e-07 -2.78666e-07 0)
(5.22295e-07 -2.70818e-07 0)
(5.55935e-07 -2.63436e-07 0)
(5.89236e-07 -2.5651e-07 0)
(6.22176e-07 -2.4999e-07 0)
(6.54735e-07 -2.43809e-07 0)
(6.86918e-07 -2.37939e-07 0)
(7.18734e-07 -2.3234e-07 0)
(7.50189e-07 -2.26914e-07 0)
(7.81318e-07 -2.21606e-07 0)
(8.1214e-07 -2.16404e-07 0)
(8.42681e-07 -2.11155e-07 0)
(8.72997e-07 -2.0586e-07 0)
(9.03106e-07 -2.00416e-07 0)
(9.33099e-07 -1.94729e-07 0)
(9.62971e-07 -1.8873e-07 0)
(9.92827e-07 -1.82389e-07 0)
(3.79086e-07 -3.20097e-07 0)
(4.13058e-07 -3.11074e-07 0)
(4.4691e-07 -3.0253e-07 0)
(4.80658e-07 -2.94254e-07 0)
(5.14211e-07 -2.86357e-07 0)
(5.47538e-07 -2.78862e-07 0)
(5.80578e-07 -2.71769e-07 0)
(6.13312e-07 -2.65039e-07 0)
(6.45712e-07 -2.5862e-07 0)
(6.77784e-07 -2.52503e-07 0)
(7.09526e-07 -2.46657e-07 0)
(7.4094e-07 -2.40991e-07 0)
(7.72052e-07 -2.35468e-07 0)
(8.02877e-07 -2.3008e-07 0)
(8.33438e-07 -2.24684e-07 0)
(8.6379e-07 -2.19294e-07 0)
(8.93949e-07 -2.13814e-07 0)
(9.23994e-07 -2.0815e-07 0)
(9.53913e-07 -2.02256e-07 0)
(9.83863e-07 -1.96115e-07 0)
(3.7336e-07 -3.34934e-07 0)
(4.06847e-07 -3.26129e-07 0)
(4.40258e-07 -3.17702e-07 0)
(4.73595e-07 -3.09473e-07 0)
(5.06791e-07 -3.0156e-07 0)
(5.39801e-07 -2.93985e-07 0)
(5.72573e-07 -2.86763e-07 0)
(6.05087e-07 -2.79864e-07 0)
(6.37309e-07 -2.73249e-07 0)
(6.69249e-07 -2.66927e-07 0)
(7.00894e-07 -2.60875e-07 0)
(7.32242e-07 -2.55007e-07 0)
(7.63314e-07 -2.49301e-07 0)
(7.94121e-07 -2.43758e-07 0)
(8.24683e-07 -2.38244e-07 0)
(8.55051e-07 -2.32787e-07 0)
(8.85237e-07 -2.27293e-07 0)
(9.15294e-07 -2.2168e-07 0)
(9.4527e-07 -2.15926e-07 0)
(9.75267e-07 -2.10015e-07 0)
(3.68101e-07 -3.49452e-07 0)
(4.01141e-07 -3.40845e-07 0)
(4.34135e-07 -3.32531e-07 0)
(4.67094e-07 -3.24364e-07 0)
(4.99944e-07 -3.16453e-07 0)
(5.32643e-07 -3.0882e-07 0)
(5.65146e-07 -3.01499e-07 0)
(5.97433e-07 -2.94464e-07 0)
(6.29472e-07 -2.87691e-07 0)
(6.61269e-07 -2.81198e-07 0)
(6.92806e-07 -2.74972e-07 0)
(7.24081e-07 -2.68935e-07 0)
(7.55106e-07 -2.63077e-07 0)
(7.8589e-07 -2.57407e-07 0)
(8.16445e-07 -2.51803e-07 0)
(8.46817e-07 -2.46299e-07 0)
(8.77006e-07 -2.4081e-07 0)
(9.07072e-07 -2.35279e-07 0)
(9.37094e-07 -2.29695e-07 0)
(9.6711e-07 -2.24024e-07 0)
(3.63228e-07 -3.63685e-07 0)
(3.95854e-07 -3.5526e-07 0)
(4.28464e-07 -3.4706e-07 0)
(4.61065e-07 -3.38958e-07 0)
(4.93581e-07 -3.31053e-07 0)
(5.25977e-07 -3.23378e-07 0)
(5.58223e-07 -3.15984e-07 0)
(5.90294e-07 -3.08844e-07 0)
(6.22164e-07 -3.01946e-07 0)
(6.53827e-07 -2.95316e-07 0)
(6.85265e-07 -2.88949e-07 0)
(7.1647e-07 -2.82773e-07 0)
(7.47447e-07 -2.76791e-07 0)
(7.782e-07 -2.7102e-07 0)
(8.08736e-07 -2.65344e-07 0)
(8.39094e-07 -2.59809e-07 0)
(8.69265e-07 -2.54345e-07 0)
(8.99351e-07 -2.4892e-07 0)
(9.29362e-07 -2.43521e-07 0)
(9.59403e-07 -2.38115e-07 0)
(3.58653e-07 -3.77663e-07 0)
(3.90899e-07 -3.69413e-07 0)
(4.23155e-07 -3.61317e-07 0)
(4.55412e-07 -3.53275e-07 0)
(4.8762e-07 -3.45384e-07 0)
(5.19739e-07 -3.37687e-07 0)
(5.5176e-07 -3.30243e-07 0)
(5.83635e-07 -3.23029e-07 0)
(6.15353e-07 -3.16035e-07 0)
(6.46887e-07 -3.09291e-07 0)
(6.78225e-07 -3.02803e-07 0)
(7.09356e-07 -2.96508e-07 0)
(7.40283e-07 -2.90418e-07 0)
(7.71003e-07 -2.84559e-07 0)
(8.01514e-07 -2.78824e-07 0)
(8.31851e-07 -2.73269e-07 0)
(8.62006e-07 -2.67852e-07 0)
(8.92094e-07 -2.62544e-07 0)
(9.22074e-07 -2.57344e-07 0)
(9.52127e-07 -2.52252e-07 0)
(3.54276e-07 -3.91427e-07 0)
(3.86173e-07 -3.8334e-07 0)
(4.18096e-07 -3.75335e-07 0)
(4.50043e-07 -3.67352e-07 0)
(4.81982e-07 -3.59485e-07 0)
(5.13862e-07 -3.51785e-07 0)
(5.4568e-07 -3.44304e-07 0)
(5.77378e-07 -3.37031e-07 0)
(6.08958e-07 -3.29955e-07 0)
(6.40386e-07 -3.23115e-07 0)
(6.7165e-07 -3.16531e-07 0)
(7.02732e-07 -3.1014e-07 0)
(7.33629e-07 -3.03961e-07 0)
(7.64331e-07 -2.98027e-07 0)
(7.94826e-07 -2.9224e-07 0)
(8.25146e-07 -2.86674e-07 0)
(8.55309e-07 -2.81308e-07 0)
(8.85368e-07 -2.76128e-07 0)
(9.15345e-07 -2.71148e-07 0)
(9.45372e-07 -2.66382e-07 0)
(3.49998e-07 -4.05014e-07 0)
(3.81568e-07 -3.97065e-07 0)
(4.13192e-07 -3.89144e-07 0)
(4.44876e-07 -3.81227e-07 0)
(4.76584e-07 -3.73392e-07 0)
(5.08264e-07 -3.65699e-07 0)
(5.39907e-07 -3.5819e-07 0)
(5.71472e-07 -3.50873e-07 0)
(6.02941e-07 -3.43739e-07 0)
(6.34286e-07 -3.36826e-07 0)
(6.65496e-07 -3.30162e-07 0)
(6.96547e-07 -3.2369e-07 0)
(7.27427e-07 -3.1743e-07 0)
(7.58121e-07 -3.11418e-07 0)
(7.88618e-07 -3.05576e-07 0)
(8.18951e-07 -3.00007e-07 0)
(8.49125e-07 -2.94695e-07 0)
(8.79161e-07 -2.89639e-07 0)
(9.09133e-07 -2.84891e-07 0)
(9.39133e-07 -2.80466e-07 0)
(3.45713e-07 -4.18459e-07 0)
(3.76993e-07 -4.10624e-07 0)
(4.08357e-07 -4.02782e-07 0)
(4.39828e-07 -3.94936e-07 0)
(4.71333e-07 -3.87138e-07 0)
(5.0286e-07 -3.79455e-07 0)
(5.34361e-07 -3.71937e-07 0)
(5.65822e-07 -3.64582e-07 0)
(5.97212e-07 -3.57393e-07 0)
(6.28511e-07 -3.50424e-07 0)
(6.597e-07 -3.437e-07 0)
(6.90749e-07 -3.37153e-07 0)
(7.21643e-07 -3.30808e-07 0)
(7.52362e-07 -3.24726e-07 0)
(7.82898e-07 -3.18847e-07 0)
(8.13289e-07 -3.13267e-07 0)
(8.43485e-07 -3.07985e-07 0)
(8.73548e-07 -3.03037e-07 0)
(9.03483e-07 -2.98516e-07 0)
(9.33472e-07 -2.9445e-07 0)
(3.41334e-07 -4.31763e-07 0)
(3.72376e-07 -4.24057e-07 0)
(4.03538e-07 -4.16296e-07 0)
(4.34818e-07 -4.08514e-07 0)
(4.66178e-07 -4.00762e-07 0)
(4.97577e-07 -3.93089e-07 0)
(5.28987e-07 -3.85559e-07 0)
(5.60383e-07 -3.7819e-07 0)
(5.91738e-07 -3.70977e-07 0)
(6.23032e-07 -3.63964e-07 0)
(6.54235e-07 -3.57177e-07 0)
(6.8531e-07 -3.5056e-07 0)
(7.16251e-07 -3.44145e-07 0)
(7.47052e-07 -3.38002e-07 0)
(7.77688e-07 -3.32081e-07 0)
(8.08159e-07 -3.26471e-07 0)
(8.38419e-07 -3.21187e-07 0)
(8.68579e-07 -3.16322e-07 0)
(8.98541e-07 -3.12021e-07 0)
(9.28473e-07 -3.08322e-07 0)
(3.3678e-07 -4.45013e-07 0)
(3.67594e-07 -4.37396e-07 0)
(3.98605e-07 -4.29718e-07 0)
(4.29749e-07 -4.22004e-07 0)
(4.60995e-07 -4.14281e-07 0)
(4.92307e-07 -4.06623e-07 0)
(5.2367e-07 -3.99101e-07 0)
(5.55053e-07 -3.91729e-07 0)
(5.8642e-07 -3.84496e-07 0)
(6.17737e-07 -3.77442e-07 0)
(6.48984e-07 -3.70597e-07 0)
(6.80144e-07 -3.63922e-07 0)
(7.11198e-07 -3.57462e-07 0)
(7.42111e-07 -3.51268e-07 0)
(7.72887e-07 -3.45266e-07 0)
(8.03521e-07 -3.39593e-07 0)
(8.3397e-07 -3.34328e-07 0)
(8.64259e-07 -3.29493e-07 0)
(8.94347e-07 -3.25312e-07 0)
(9.24289e-07 -3.21957e-07 0)
(3.32031e-07 -4.58179e-07 0)
(3.62698e-07 -4.5067e-07 0)
(3.93581e-07 -4.43073e-07 0)
(4.24626e-07 -4.35408e-07 0)
(4.55807e-07 -4.27724e-07 0)
(4.87101e-07 -4.20102e-07 0)
(5.18474e-07 -4.12611e-07 0)
(5.49884e-07 -4.05244e-07 0)
(5.81299e-07 -3.97979e-07 0)
(6.12697e-07 -3.90893e-07 0)
(6.44048e-07 -3.84038e-07 0)
(6.75318e-07 -3.77332e-07 0)
(7.06513e-07 -3.70794e-07 0)
(7.37606e-07 -3.64543e-07 0)
(7.68575e-07 -3.58517e-07 0)
(7.99431e-07 -3.52783e-07 0)
(8.30176e-07 -3.47464e-07 0)
(8.60722e-07 -3.42588e-07 0)
(8.91109e-07 -3.38437e-07 0)
(9.21229e-07 -3.35311e-07 0)
(2.1204e-08 -3.48811e-07 0)
(6.37983e-08 -3.43884e-07 0)
(1.06872e-07 -3.34151e-07 0)
(1.50744e-07 -3.201e-07 0)
(1.95593e-07 -3.02284e-07 0)
(2.41523e-07 -2.81333e-07 0)
(2.88539e-07 -2.58124e-07 0)
(3.36505e-07 -2.33354e-07 0)
(3.85535e-07 -2.07818e-07 0)
(4.35013e-07 -1.82019e-07 0)
(2.07245e-08 -3.56321e-07 0)
(6.23366e-08 -3.51799e-07 0)
(1.04314e-07 -3.42876e-07 0)
(1.46929e-07 -3.29958e-07 0)
(1.90324e-07 -3.13538e-07 0)
(2.34553e-07 -2.94133e-07 0)
(2.7966e-07 -2.72478e-07 0)
(3.25342e-07 -2.49242e-07 0)
(3.71784e-07 -2.25064e-07 0)
(4.17922e-07 -2.00972e-07 0)
(2.02665e-08 -3.63954e-07 0)
(6.09322e-08 -3.59808e-07 0)
(1.01889e-07 -3.5161e-07 0)
(1.43319e-07 -3.39718e-07 0)
(1.85373e-07 -3.24566e-07 0)
(2.28042e-07 -3.06634e-07 0)
(2.71404e-07 -2.86527e-07 0)
(3.15168e-07 -2.6488e-07 0)
(3.59557e-07 -2.42135e-07 0)
(4.03618e-07 -2.19462e-07 0)
(1.98734e-08 -3.71731e-07 0)
(5.97003e-08 -3.67901e-07 0)
(9.97886e-08 -3.60335e-07 0)
(1.40223e-07 -3.49338e-07 0)
(1.81156e-07 -3.35304e-07 0)
(2.2254e-07 -3.18665e-07 0)
(2.64447e-07 -2.99931e-07 0)
(3.06589e-07 -2.79729e-07 0)
(3.49126e-07 -2.58426e-07 0)
(3.91319e-07 -2.37208e-07 0)
(1.95222e-08 -3.79665e-07 0)
(5.85864e-08 -3.76123e-07 0)
(9.78737e-08 -3.69139e-07 0)
(1.37416e-07 -3.58958e-07 0)
(1.77347e-07 -3.45935e-07 0)
(2.17604e-07 -3.30494e-07 0)
(2.58253e-07 -3.13065e-07 0)
(2.99052e-07 -2.94195e-07 0)
(3.40068e-07 -2.74224e-07 0)
(3.80752e-07 -2.54265e-07 0)
(1.91859e-08 -3.8775e-07 0)
(5.75797e-08 -3.84454e-07 0)
(9.61375e-08 -3.77968e-07 0)
(1.34898e-07 -3.68529e-07 0)
(1.73955e-07 -3.56415e-07 0)
(2.13258e-07 -3.42047e-07 0)
(2.52809e-07 -3.25815e-07 0)
(2.92437e-07 -3.08184e-07 0)
(3.32144e-07 -2.89486e-07 0)
(3.71525e-07 -2.70739e-07 0)
(1.88695e-08 -3.95972e-07 0)
(5.66439e-08 -3.92915e-07 0)
(9.45369e-08 -3.86875e-07 0)
(1.32599e-07 -3.78112e-07 0)
(1.70864e-07 -3.66831e-07 0)
(2.0933e-07 -3.5344e-07 0)
(2.47945e-07 -3.38304e-07 0)
(2.86572e-07 -3.21813e-07 0)
(3.25179e-07 -3.04293e-07 0)
(3.63454e-07 -2.86667e-07 0)
(1.859e-08 -4.04337e-07 0)
(5.57734e-08 -4.01492e-07 0)
(9.30584e-08 -3.95858e-07 0)
(1.30482e-07 -3.87705e-07 0)
(1.68046e-07 -3.77184e-07 0)
(2.05758e-07 -3.64679e-07 0)
(2.43552e-07 -3.50548e-07 0)
(2.81319e-07 -3.35114e-07 0)
(3.18995e-07 -3.18693e-07 0)
(3.56339e-07 -3.0212e-07 0)
(1.83235e-08 -4.12847e-07 0)
(5.49516e-08 -4.10189e-07 0)
(9.16781e-08 -4.04928e-07 0)
(1.28503e-07 -3.97325e-07 0)
(1.65435e-07 -3.87504e-07 0)
(2.0248e-07 -3.75809e-07 0)
(2.39543e-07 -3.62595e-07 0)
(2.76559e-07 -3.48141e-07 0)
(3.13443e-07 -3.32743e-07 0)
(3.50005e-07 -3.17148e-07 0)
(1.80527e-08 -4.21487e-07 0)
(5.41703e-08 -4.19011e-07 0)
(9.0369e-08 -4.14088e-07 0)
(1.26639e-07 -4.06976e-07 0)
(1.62981e-07 -3.97805e-07 0)
(1.99423e-07 -3.86852e-07 0)
(2.35837e-07 -3.74474e-07 0)
(2.72193e-07 -3.60929e-07 0)
(3.08403e-07 -3.46484e-07 0)
(3.44298e-07 -3.31802e-07 0)
(1.77892e-08 -4.30246e-07 0)
(5.34289e-08 -4.27957e-07 0)
(8.91095e-08 -4.2334e-07 0)
(1.24862e-07 -4.1667e-07 0)
(1.6065e-07 -4.08094e-07 0)
(1.9653e-07 -3.97828e-07 0)
(2.32369e-07 -3.86216e-07 0)
(2.68145e-07 -3.73513e-07 0)
(3.03777e-07 -3.59954e-07 0)
(3.39098e-07 -3.46125e-07 0)
(1.75451e-08 -4.39132e-07 0)
(5.27143e-08 -4.3702e-07 0)
(8.78825e-08 -4.32681e-07 0)
(1.23143e-07 -4.26415e-07 0)
(1.58411e-07 -4.1838e-07 0)
(1.93764e-07 -4.08748e-07 0)
(2.29087e-07 -3.97846e-07 0)
(2.6435e-07 -3.8592e-07 0)
(2.99476e-07 -3.73181e-07 0)
(3.34311e-07 -3.60156e-07 0)
(1.73118e-08 -4.4815e-07 0)
(5.19981e-08 -4.46183e-07 0)
(8.66642e-08 -4.42105e-07 0)
(1.21442e-07 -4.36212e-07 0)
(1.5622e-07 -4.28669e-07 0)
(1.91077e-07 -4.19622e-07 0)
(2.2593e-07 -4.09381e-07 0)
(2.60733e-07 -3.98175e-07 0)
(2.95418e-07 -3.862e-07 0)
(3.29863e-07 -3.73929e-07 0)
(1.70712e-08 -4.57285e-07 0)
(5.12576e-08 -4.5543e-07 0)
(8.54301e-08 -4.51602e-07 0)
(1.19723e-07 -4.46053e-07 0)
(1.54031e-07 -4.38961e-07 0)
(1.88422e-07 -4.30458e-07 0)
(2.22838e-07 -4.20832e-07 0)
(2.57225e-07 -4.10301e-07 0)
(2.91536e-07 -3.99051e-07 0)
(3.25661e-07 -3.87487e-07 0)
(1.68153e-08 -4.66511e-07 0)
(5.04873e-08 -4.6475e-07 0)
(8.41648e-08 -4.61163e-07 0)
(1.17966e-07 -4.55935e-07 0)
(1.51812e-07 -4.49261e-07 0)
(1.85757e-07 -4.41271e-07 0)
(2.19753e-07 -4.32223e-07 0)
(2.53764e-07 -4.22327e-07 0)
(2.87746e-07 -4.1176e-07 0)
(3.2159e-07 -4.00855e-07 0)
(1.65462e-08 -4.75809e-07 0)
(4.9689e-08 -4.74135e-07 0)
(8.28582e-08 -4.70779e-07 0)
(1.16153e-07 -4.65859e-07 0)
(1.49533e-07 -4.59571e-07 0)
(1.83033e-07 -4.52055e-07 0)
(2.16622e-07 -4.43555e-07 0)
(2.5029e-07 -4.3426e-07 0)
(2.83963e-07 -4.24334e-07 0)
(3.17575e-07 -4.14058e-07 0)
(1.62661e-08 -4.85165e-07 0)
(4.88542e-08 -4.8358e-07 0)
(8.14854e-08 -4.80437e-07 0)
(1.14252e-07 -4.75804e-07 0)
(1.4715e-07 -4.69891e-07 0)
(1.80201e-07 -4.62829e-07 0)
(2.13395e-07 -4.54854e-07 0)
(2.4672e-07 -4.4613e-07 0)
(2.80106e-07 -4.36806e-07 0)
(3.13517e-07 -4.27144e-07 0)
(1.59681e-08 -4.94568e-07 0)
(4.79563e-08 -4.93069e-07 0)
(8.0009e-08 -4.90119e-07 0)
(1.12215e-07 -4.8577e-07 0)
(1.44601e-07 -4.80215e-07 0)
(1.7719e-07 -4.73588e-07 0)
(2.0999e-07 -4.66105e-07 0)
(2.42959e-07 -4.57921e-07 0)
(2.761e-07 -4.49176e-07 0)
(3.09325e-07 -4.401e-07 0)
(1.564e-08 -5.0399e-07 0)
(4.69648e-08 -5.02578e-07 0)
(7.83852e-08 -4.99811e-07 0)
(1.09996e-07 -4.95739e-07 0)
(1.41835e-07 -4.9054e-07 0)
(1.73942e-07 -4.8434e-07 0)
(2.06327e-07 -4.7733e-07 0)
(2.38961e-07 -4.69669e-07 0)
(2.71846e-07 -4.61495e-07 0)
(3.0492e-07 -4.53004e-07 0)
(1.52792e-08 -5.13369e-07 0)
(4.58849e-08 -5.12053e-07 0)
(7.6618e-08 -5.09472e-07 0)
(1.07583e-07 -5.05678e-07 0)
(1.3884e-07 -5.00833e-07 0)
(1.70449e-07 -4.95056e-07 0)
(2.02398e-07 -4.88514e-07 0)
(2.3473e-07 -4.81355e-07 0)
(2.67368e-07 -4.73736e-07 0)
(3.00346e-07 -4.65833e-07 0)
)


// ************************************************************************* //
