/*--------------------------------*- C++ -*----------------------------------*\
| =========                 |                                                 |
| \\      /  F ield         | foam-extend: Open Source CFD                    |
|  \\    /   O peration     | Version:     4.1                                |
|   \\  /    A nd           | Web:         http://www.foam-extend.org         |
|    \\/     M anipulation  |                                                 |
\*---------------------------------------------------------------------------*/
FoamFile
{
    version     2.0;
    format      ascii;
    class       vectorField;
    location    "1";
    object      solidsCellD_iteration0;
}
// * * * * * * * * * * * * * * * * * * * * * * * * * * * * * * * * * * * * * //


1000
(
(1.71487e-07 0 0)
(1.73031e-07 0 0)
(1.75744e-07 0 0)
(1.79404e-07 0 0)
(1.83848e-07 0 0)
(1.88944e-07 0 0)
(1.94566e-07 0 0)
(2.0057e-07 0 0)
(2.06695e-07 0 0)
(2.12321e-07 0 0)
(1.56284e-07 0 0)
(1.57641e-07 0 0)
(1.60017e-07 0 0)
(1.63202e-07 0 0)
(1.67025e-07 0 0)
(1.71325e-07 0 0)
(1.75939e-07 0 0)
(1.8068e-07 0 0)
(1.85324e-07 0 0)
(1.8959e-07 0 0)
(1.40086e-07 0 0)
(1.41259e-07 0 0)
(1.43299e-07 0 0)
(1.46014e-07 0 0)
(1.49237e-07 0 0)
(1.52817e-07 0 0)
(1.56606e-07 0 0)
(1.60462e-07 0 0)
(1.64255e-07 0 0)
(1.67878e-07 0 0)
(1.23038e-07 0 0)
(1.24027e-07 0 0)
(1.25742e-07 0 0)
(1.28012e-07 0 0)
(1.30693e-07 0 0)
(1.33652e-07 0 0)
(1.36775e-07 0 0)
(1.39965e-07 0 0)
(1.4315e-07 0 0)
(1.46283e-07 0 0)
(1.05266e-07 0 0)
(1.06077e-07 0 0)
(1.07486e-07 0 0)
(1.09348e-07 0 0)
(1.11541e-07 0 0)
(1.13959e-07 0 0)
(1.16517e-07 0 0)
(1.19151e-07 0 0)
(1.2182e-07 0 0)
(1.24499e-07 0 0)
(8.68932e-08 0 0)
(8.7537e-08 0 0)
(8.86626e-08 0 0)
(9.01504e-08 0 0)
(9.19005e-08 0 0)
(9.38315e-08 0 0)
(9.58827e-08 0 0)
(9.80132e-08 0 0)
(1.00198e-07 0 0)
(1.02423e-07 0 0)
(6.80449e-08 0 0)
(6.85334e-08 0 0)
(6.93951e-08 0 0)
(7.05341e-08 0 0)
(7.18724e-08 0 0)
(7.33505e-08 0 0)
(7.4927e-08 0 0)
(7.65764e-08 0 0)
(7.82838e-08 0 0)
(8.00418e-08 0 0)
(4.8841e-08 0 0)
(4.91855e-08 0 0)
(4.97968e-08 0 0)
(5.0603e-08 0 0)
(5.15484e-08 0 0)
(5.25929e-08 0 0)
(5.37107e-08 0 0)
(5.48868e-08 0 0)
(5.61133e-08 0 0)
(5.73864e-08 0 0)
(2.93953e-08 0 0)
(2.96029e-08 0 0)
(2.99697e-08 0 0)
(3.0451e-08 0 0)
(3.10136e-08 0 0)
(3.16352e-08 0 0)
(3.23021e-08 0 0)
(3.30071e-08 0 0)
(3.37467e-08 0 0)
(3.45191e-08 0 0)
(9.81207e-09 0 0)
(9.88286e-09 0 0)
(1.00056e-08 0 0)
(1.01655e-08 0 0)
(1.03517e-08 0 0)
(1.05571e-08 0 0)
(1.0778e-08 0 0)
(1.10125e-08 0 0)
(1.12599e-08 0 0)
(1.15197e-08 0 0)
(2.50497e-07 0 0)
(2.52534e-07 0 0)
(2.56134e-07 0 0)
(2.60923e-07 0 0)
(2.66629e-07 0 0)
(2.73041e-07 0 0)
(2.79989e-07 0 0)
(2.87334e-07 0 0)
(2.94964e-07 0 0)
(3.02796e-07 0 0)
(2.49044e-07 0 0)
(2.5109e-07 0 0)
(2.54696e-07 0 0)
(2.59497e-07 0 0)
(2.65221e-07 0 0)
(2.71655e-07 0 0)
(2.78622e-07 0 0)
(2.85978e-07 0 0)
(2.93611e-07 0 0)
(3.01439e-07 0 0)
(2.46169e-07 0 0)
(2.48227e-07 0 0)
(2.51844e-07 0 0)
(2.56664e-07 0 0)
(2.62419e-07 0 0)
(2.68896e-07 0 0)
(2.75918e-07 0 0)
(2.83337e-07 0 0)
(2.91038e-07 0 0)
(2.98935e-07 0 0)
(2.41854e-07 0 0)
(2.43919e-07 0 0)
(2.47545e-07 0 0)
(2.52382e-07 0 0)
(2.58168e-07 0 0)
(2.64691e-07 0 0)
(2.71771e-07 0 0)
(2.7926e-07 0 0)
(2.87042e-07 0 0)
(2.9503e-07 0 0)
(2.36082e-07 0 0)
(2.38145e-07 0 0)
(2.4177e-07 0 0)
(2.46622e-07 0 0)
(2.52446e-07 0 0)
(2.59036e-07 0 0)
(2.66214e-07 0 0)
(2.73831e-07 0 0)
(2.81764e-07 0 0)
(2.89912e-07 0 0)
(2.28841e-07 0 0)
(2.30886e-07 0 0)
(2.34489e-07 0 0)
(2.3933e-07 0 0)
(2.45171e-07 0 0)
(2.51816e-07 0 0)
(2.59101e-07 0 0)
(2.66884e-07 0 0)
(2.75041e-07 0 0)
(2.83458e-07 0 0)
(2.20135e-07 0 0)
(2.22142e-07 0 0)
(2.2569e-07 0 0)
(2.30481e-07 0 0)
(2.36297e-07 0 0)
(2.42968e-07 0 0)
(2.50351e-07 0 0)
(2.58329e-07 0 0)
(2.66789e-07 0 0)
(2.75607e-07 0 0)
(2.09987e-07 0 0)
(2.11926e-07 0 0)
(2.15366e-07 0 0)
(2.20033e-07 0 0)
(2.25736e-07 0 0)
(2.3234e-07 0 0)
(2.39752e-07 0 0)
(2.4791e-07 0 0)
(2.56761e-07 0 0)
(2.66202e-07 0 0)
(1.98446e-07 0 0)
(2.00284e-07 0 0)
(2.03548e-07 0 0)
(2.07989e-07 0 0)
(2.13442e-07 0 0)
(2.19803e-07 0 0)
(2.2704e-07 0 0)
(2.35195e-07 0 0)
(2.44384e-07 0 0)
(2.54731e-07 0 0)
(1.85589e-07 0 0)
(1.87282e-07 0 0)
(1.90296e-07 0 0)
(1.94398e-07 0 0)
(1.99429e-07 0 0)
(2.0529e-07 0 0)
(2.11961e-07 0 0)
(2.19553e-07 0 0)
(2.28432e-07 0 0)
(2.39522e-07 0 0)
(3.10737e-07 0 0)
(3.19284e-07 0 0)
(3.28388e-07 0 0)
(3.38035e-07 0 0)
(3.48193e-07 0 0)
(3.58821e-07 0 0)
(3.69877e-07 0 0)
(3.81321e-07 0 0)
(3.93116e-07 0 0)
(4.05226e-07 0 0)
(4.17608e-07 0 0)
(4.30216e-07 0 0)
(4.43009e-07 0 0)
(4.55953e-07 0 0)
(4.69017e-07 0 0)
(4.8217e-07 0 0)
(4.95382e-07 0 0)
(5.0862e-07 0 0)
(5.2183e-07 0 0)
(5.34965e-07 0 0)
(3.09372e-07 0 0)
(3.17938e-07 0 0)
(3.27097e-07 0 0)
(3.3683e-07 0 0)
(3.47103e-07 0 0)
(3.57868e-07 0 0)
(3.69071e-07 0 0)
(3.80657e-07 0 0)
(3.92573e-07 0 0)
(4.04772e-07 0 0)
(4.17217e-07 0 0)
(4.29886e-07 0 0)
(4.42758e-07 0 0)
(4.55799e-07 0 0)
(4.68965e-07 0 0)
(4.82219e-07 0 0)
(4.95525e-07 0 0)
(5.08838e-07 0 0)
(5.22134e-07 0 0)
(5.35363e-07 0 0)
(3.06918e-07 0 0)
(3.15568e-07 0 0)
(3.24843e-07 0 0)
(3.34711e-07 0 0)
(3.45128e-07 0 0)
(3.56047e-07 0 0)
(3.67421e-07 0 0)
(3.79202e-07 0 0)
(3.91334e-07 0 0)
(4.03756e-07 0 0)
(4.16417e-07 0 0)
(4.29286e-07 0 0)
(4.42343e-07 0 0)
(4.55559e-07 0 0)
(4.689e-07 0 0)
(4.82344e-07 0 0)
(4.95837e-07 0 0)
(5.09324e-07 0 0)
(5.22795e-07 0 0)
(5.3618e-07 0 0)
(3.03095e-07 0 0)
(3.11897e-07 0 0)
(3.21395e-07 0 0)
(3.31536e-07 0 0)
(3.42251e-07 0 0)
(3.53473e-07 0 0)
(3.6514e-07 0 0)
(3.772e-07 0 0)
(3.89605e-07 0 0)
(4.02306e-07 0 0)
(4.15262e-07 0 0)
(4.28434e-07 0 0)
(4.41782e-07 0 0)
(4.55271e-07 0 0)
(4.68876e-07 0 0)
(4.82571e-07 0 0)
(4.9631e-07 0 0)
(5.10052e-07 0 0)
(5.23777e-07 0 0)
(5.374e-07 0 0)
(2.9811e-07 0 0)
(3.07127e-07 0 0)
(3.16921e-07 0 0)
(3.27415e-07 0 0)
(3.38523e-07 0 0)
(3.50162e-07 0 0)
(3.62256e-07 0 0)
(3.7473e-07 0 0)
(3.8752e-07 0 0)
(4.00579e-07 0 0)
(4.13879e-07 0 0)
(4.27393e-07 0 0)
(4.41076e-07 0 0)
(4.549e-07 0 0)
(4.68847e-07 0 0)
(4.82861e-07 0 0)
(4.96926e-07 0 0)
(5.10981e-07 0 0)
(5.2503e-07 0 0)
(5.3898e-07 0 0)
(2.91907e-07 0 0)
(3.01294e-07 0 0)
(3.11556e-07 0 0)
(3.22563e-07 0 0)
(3.34193e-07 0 0)
(3.46349e-07 0 0)
(3.5895e-07 0 0)
(3.71922e-07 0 0)
(3.85196e-07 0 0)
(3.98713e-07 0 0)
(4.12439e-07 0 0)
(4.26348e-07 0 0)
(4.40407e-07 0 0)
(4.54597e-07 0 0)
(4.68906e-07 0 0)
(4.83273e-07 0 0)
(4.97691e-07 0 0)
(5.12105e-07 0 0)
(5.26525e-07 0 0)
(5.40867e-07 0 0)
(2.84464e-07 0 0)
(2.94429e-07 0 0)
(3.05386e-07 0 0)
(3.17124e-07 0 0)
(3.29466e-07 0 0)
(3.42284e-07 0 0)
(3.55483e-07 0 0)
(3.68993e-07 0 0)
(3.82763e-07 0 0)
(3.96753e-07 0 0)
(4.10932e-07 0 0)
(4.25265e-07 0 0)
(4.39731e-07 0 0)
(4.54322e-07 0 0)
(4.69007e-07 0 0)
(4.83757e-07 0 0)
(4.9856e-07 0 0)
(5.13374e-07 0 0)
(5.28202e-07 0 0)
(5.42983e-07 0 0)
(2.75779e-07 0 0)
(2.86695e-07 0 0)
(2.98677e-07 0 0)
(3.11391e-07 0 0)
(3.24616e-07 0 0)
(3.3822e-07 0 0)
(3.52113e-07 0 0)
(3.66228e-07 0 0)
(3.80523e-07 0 0)
(3.94982e-07 0 0)
(4.09595e-07 0 0)
(4.2433e-07 0 0)
(4.39173e-07 0 0)
(4.54135e-07 0 0)
(4.69178e-07 0 0)
(4.84303e-07 0 0)
(4.9948e-07 0 0)
(5.147e-07 0 0)
(5.29958e-07 0 0)
(5.45225e-07 0 0)
(2.65758e-07 0 0)
(2.78346e-07 0 0)
(2.91851e-07 0 0)
(3.05818e-07 0 0)
(3.2005e-07 0 0)
(3.34463e-07 0 0)
(3.49028e-07 0 0)
(3.63724e-07 0 0)
(3.78534e-07 0 0)
(3.93451e-07 0 0)
(4.08467e-07 0 0)
(4.23571e-07 0 0)
(4.38767e-07 0 0)
(4.54067e-07 0 0)
(4.69429e-07 0 0)
(4.84883e-07 0 0)
(5.00392e-07 0 0)
(5.15995e-07 0 0)
(5.31669e-07 0 0)
(5.47432e-07 0 0)
(2.54438e-07 0 0)
(2.70022e-07 0 0)
(2.8559e-07 0 0)
(3.00982e-07 0 0)
(3.16239e-07 0 0)
(3.31427e-07 0 0)
(3.46599e-07 0 0)
(3.61786e-07 0 0)
(3.7701e-07 0 0)
(3.92294e-07 0 0)
(4.07641e-07 0 0)
(4.23047e-07 0 0)
(4.38533e-07 0 0)
(4.54103e-07 0 0)
(4.69731e-07 0 0)
(4.85461e-07 0 0)
(5.01239e-07 0 0)
(5.17156e-07 0 0)
(5.33188e-07 0 0)
(5.49402e-07 0 0)
(2.42475e-07 0 0)
(2.62901e-07 0 0)
(2.80654e-07 0 0)
(2.97288e-07 0 0)
(3.13377e-07 0 0)
(3.29187e-07 0 0)
(3.44856e-07 0 0)
(3.6045e-07 0 0)
(3.76013e-07 0 0)
(3.91584e-07 0 0)
(4.07179e-07 0 0)
(4.22805e-07 0 0)
(4.38499e-07 0 0)
(4.54257e-07 0 0)
(4.70066e-07 0 0)
(4.85987e-07 0 0)
(5.01945e-07 0 0)
(5.18058e-07 0 0)
(5.34311e-07 0 0)
(5.50776e-07 0 0)
(2.37755e-07 0 0)
(2.581e-07 0 0)
(2.76617e-07 0 0)
(2.94011e-07 0 0)
(3.10735e-07 0 0)
(3.27065e-07 0 0)
(3.43166e-07 0 0)
(3.59123e-07 0 0)
(3.74997e-07 0 0)
(3.90842e-07 0 0)
(4.06678e-07 0 0)
(4.22522e-07 0 0)
(4.3842e-07 0 0)
(4.54353e-07 0 0)
(4.70327e-07 0 0)
(4.86408e-07 0 0)
(5.02522e-07 0 0)
(5.18777e-07 0 0)
(5.3518e-07 0 0)
(5.51754e-07 0 0)
(2.35521e-07 0 0)
(2.55134e-07 0 0)
(2.7369e-07 0 0)
(2.91393e-07 0 0)
(3.08495e-07 0 0)
(3.25197e-07 0 0)
(3.41639e-07 0 0)
(3.57895e-07 0 0)
(3.74034e-07 0 0)
(3.90118e-07 0 0)
(4.0617e-07 0 0)
(4.22216e-07 0 0)
(4.38302e-07 0 0)
(4.54395e-07 0 0)
(4.7052e-07 0 0)
(4.86734e-07 0 0)
(5.02988e-07 0 0)
(5.19354e-07 0 0)
(5.35859e-07 0 0)
(5.52498e-07 0 0)
(2.3425e-07 0 0)
(2.53228e-07 0 0)
(2.71596e-07 0 0)
(2.89368e-07 0 0)
(3.06662e-07 0 0)
(3.23607e-07 0 0)
(3.403e-07 0 0)
(3.56793e-07 0 0)
(3.73153e-07 0 0)
(3.89443e-07 0 0)
(4.05682e-07 0 0)
(4.21903e-07 0 0)
(4.38153e-07 0 0)
(4.54385e-07 0 0)
(4.70648e-07 0 0)
(4.86971e-07 0 0)
(5.03348e-07 0 0)
(5.19805e-07 0 0)
(5.36387e-07 0 0)
(5.5307e-07 0 0)
(2.33442e-07 0 0)
(2.51957e-07 0 0)
(2.701e-07 0 0)
(2.87835e-07 0 0)
(3.05203e-07 0 0)
(3.22291e-07 0 0)
(3.39155e-07 0 0)
(3.55824e-07 0 0)
(3.72361e-07 0 0)
(3.88826e-07 0 0)
(4.05226e-07 0 0)
(4.21599e-07 0 0)
(4.37987e-07 0 0)
(4.54338e-07 0 0)
(4.70722e-07 0 0)
(4.87138e-07 0 0)
(5.03618e-07 0 0)
(5.20153e-07 0 0)
(5.36795e-07 0 0)
(5.53509e-07 0 0)
(2.32883e-07 0 0)
(2.51067e-07 0 0)
(2.69013e-07 0 0)
(2.86672e-07 0 0)
(3.04054e-07 0 0)
(3.2122e-07 0 0)
(3.38194e-07 0 0)
(3.54986e-07 0 0)
(3.71661e-07 0 0)
(3.88269e-07 0 0)
(4.04801e-07 0 0)
(4.21301e-07 0 0)
(4.37807e-07 0 0)
(4.54258e-07 0 0)
(4.7075e-07 0 0)
(4.8725e-07 0 0)
(5.03818e-07 0 0)
(5.20419e-07 0 0)
(5.37107e-07 0 0)
(5.53845e-07 0 0)
(2.32492e-07 0 0)
(2.50425e-07 0 0)
(2.68212e-07 0 0)
(2.85786e-07 0 0)
(3.03154e-07 0 0)
(3.20362e-07 0 0)
(3.37404e-07 0 0)
(3.5428e-07 0 0)
(3.71055e-07 0 0)
(3.87771e-07 0 0)
(4.04407e-07 0 0)
(4.2101e-07 0 0)
(4.37616e-07 0 0)
(4.54156e-07 0 0)
(4.70743e-07 0 0)
(4.87319e-07 0 0)
(5.03961e-07 0 0)
(5.20618e-07 0 0)
(5.3734e-07 0 0)
(5.54094e-07 0 0)
(2.32229e-07 0 0)
(2.4997e-07 0 0)
(2.67626e-07 0 0)
(2.85114e-07 0 0)
(3.02456e-07 0 0)
(3.19681e-07 0 0)
(3.36762e-07 0 0)
(3.53691e-07 0 0)
(3.70534e-07 0 0)
(3.87327e-07 0 0)
(4.04041e-07 0 0)
(4.20726e-07 0 0)
(4.37416e-07 0 0)
(4.54042e-07 0 0)
(4.70711e-07 0 0)
(4.87356e-07 0 0)
(5.04057e-07 0 0)
(5.20756e-07 0 0)
(5.37505e-07 0 0)
(5.5427e-07 0 0)
(2.32057e-07 0 0)
(2.49657e-07 0 0)
(2.67203e-07 0 0)
(2.84614e-07 0 0)
(3.01922e-07 0 0)
(3.19146e-07 0 0)
(3.36243e-07 0 0)
(3.53199e-07 0 0)
(3.70083e-07 0 0)
(3.86929e-07 0 0)
(4.03703e-07 0 0)
(4.20459e-07 0 0)
(4.37217e-07 0 0)
(4.5392e-07 0 0)
(4.70661e-07 0 0)
(4.87361e-07 0 0)
(5.04108e-07 0 0)
(5.2084e-07 0 0)
(5.37611e-07 0 0)
(5.54388e-07 0 0)
(2.31948e-07 0 0)
(2.49447e-07 0 0)
(2.66904e-07 0 0)
(2.84251e-07 0 0)
(3.01522e-07 0 0)
(3.18731e-07 0 0)
(3.35825e-07 0 0)
(3.5279e-07 0 0)
(3.69697e-07 0 0)
(3.86577e-07 0 0)
(4.03399e-07 0 0)
(4.20218e-07 0 0)
(4.37031e-07 0 0)
(4.53795e-07 0 0)
(4.7059e-07 0 0)
(4.87335e-07 0 0)
(5.04118e-07 0 0)
(5.20879e-07 0 0)
(5.37671e-07 0 0)
(5.54459e-07 0 0)
(2.31891e-07 0 0)
(2.49312e-07 0 0)
(2.66701e-07 0 0)
(2.83997e-07 0 0)
(3.01229e-07 0 0)
(3.1841e-07 0 0)
(3.3549e-07 0 0)
(3.52452e-07 0 0)
(3.69372e-07 0 0)
(3.86278e-07 0 0)
(4.03138e-07 0 0)
(4.20005e-07 0 0)
(4.36859e-07 0 0)
(4.53662e-07 0 0)
(4.70497e-07 0 0)
(4.87278e-07 0 0)
(5.04096e-07 0 0)
(5.20886e-07 0 0)
(5.37696e-07 0 0)
(5.5449e-07 0 0)
(2.3188e-07 0 0)
(2.49239e-07 0 0)
(2.66574e-07 0 0)
(2.83823e-07 0 0)
(3.0101e-07 0 0)
(3.18156e-07 0 0)
(3.35214e-07 0 0)
(3.52171e-07 0 0)
(3.69105e-07 0 0)
(3.86034e-07 0 0)
(4.02919e-07 0 0)
(4.19815e-07 0 0)
(4.36691e-07 0 0)
(4.5352e-07 0 0)
(4.70387e-07 0 0)
(4.87205e-07 0 0)
(5.04055e-07 0 0)
(5.20868e-07 0 0)
(5.37689e-07 0 0)
(5.54484e-07 0 0)
(2.3191e-07 0 0)
(2.49216e-07 0 0)
(2.66503e-07 0 0)
(2.83699e-07 0 0)
(3.00835e-07 0 0)
(3.17941e-07 0 0)
(3.34979e-07 0 0)
(3.51938e-07 0 0)
(3.68889e-07 0 0)
(3.85835e-07 0 0)
(4.02731e-07 0 0)
(4.19637e-07 0 0)
(4.36524e-07 0 0)
(4.53375e-07 0 0)
(4.70276e-07 0 0)
(4.87128e-07 0 0)
(5.04002e-07 0 0)
(5.20825e-07 0 0)
(5.37648e-07 0 0)
(5.5445e-07 0 0)
(2.31974e-07 0 0)
(2.49233e-07 0 0)
(2.66464e-07 0 0)
(2.83599e-07 0 0)
(3.0068e-07 0 0)
(3.17751e-07 0 0)
(3.34778e-07 0 0)
(3.51748e-07 0 0)
(3.68715e-07 0 0)
(3.85666e-07 0 0)
(4.02558e-07 0 0)
(4.19465e-07 0 0)
(4.36366e-07 0 0)
(4.53245e-07 0 0)
(4.70177e-07 0 0)
(4.87048e-07 0 0)
(5.03928e-07 0 0)
(5.20755e-07 0 0)
(5.37589e-07 0 0)
(5.54406e-07 0 0)
(2.32064e-07 0 0)
(2.49274e-07 0 0)
(2.66438e-07 0 0)
(2.83505e-07 0 0)
(3.00539e-07 0 0)
(3.1759e-07 0 0)
(3.34619e-07 0 0)
(3.51598e-07 0 0)
(3.68568e-07 0 0)
(3.85509e-07 0 0)
(4.02394e-07 0 0)
(4.19312e-07 0 0)
(4.36238e-07 0 0)
(4.53142e-07 0 0)
(4.70083e-07 0 0)
(4.86953e-07 0 0)
(5.03838e-07 0 0)
(5.20686e-07 0 0)
(5.37538e-07 0 0)
(5.54351e-07 0 0)
(2.32165e-07 0 0)
(2.49321e-07 0 0)
(2.66413e-07 0 0)
(2.83423e-07 0 0)
(3.00428e-07 0 0)
(3.17476e-07 0 0)
(3.34506e-07 0 0)
(3.51477e-07 0 0)
(3.68429e-07 0 0)
(3.8536e-07 0 0)
(4.02257e-07 0 0)
(4.192e-07 0 0)
(4.36145e-07 0 0)
(4.53045e-07 0 0)
(4.69977e-07 0 0)
(4.86855e-07 0 0)
(5.03766e-07 0 0)
(5.20639e-07 0 0)
(5.37497e-07 0 0)
(5.54275e-07 0 0)
(2.32262e-07 0 0)
(2.49358e-07 0 0)
(2.66389e-07 0 0)
(2.83366e-07 0 0)
(3.00367e-07 0 0)
(3.17413e-07 0 0)
(3.34424e-07 0 0)
(3.51362e-07 0 0)
(3.68299e-07 0 0)
(3.85246e-07 0 0)
(4.02172e-07 0 0)
(4.19127e-07 0 0)
(4.36054e-07 0 0)
(4.52936e-07 0 0)
(4.69883e-07 0 0)
(4.86807e-07 0 0)
(5.0373e-07 0 0)
(5.20549e-07 0 0)
(5.37418e-07 0 0)
(5.54297e-07 0 0)
(2.32339e-07 0 0)
(2.49378e-07 0 0)
(2.66376e-07 0 0)
(2.8335e-07 0 0)
(3.00349e-07 0 0)
(3.17369e-07 0 0)
(3.34338e-07 0 0)
(3.51258e-07 0 0)
(3.68217e-07 0 0)
(3.85196e-07 0 0)
(4.02118e-07 0 0)
(4.19035e-07 0 0)
(4.35958e-07 0 0)
(4.52893e-07 0 0)
(4.69857e-07 0 0)
(4.8672e-07 0 0)
(5.03643e-07 0 0)
(5.20517e-07 0 0)
(5.3735e-07 0 0)
(5.54191e-07 0 0)
(2.32389e-07 0 0)
(2.49388e-07 0 0)
(2.66384e-07 0 0)
(2.83359e-07 0 0)
(3.00326e-07 0 0)
(3.17306e-07 0 0)
(3.34273e-07 0 0)
(3.51228e-07 0 0)
(3.68196e-07 0 0)
(3.85134e-07 0 0)
(4.02042e-07 0 0)
(4.1901e-07 0 0)
(4.35945e-07 0 0)
(4.5283e-07 0 0)
(4.69809e-07 0 0)
(4.8671e-07 0 0)
(5.036e-07 0 0)
(5.20472e-07 0 0)
(5.37299e-07 0 0)
(5.54146e-07 0 0)
(2.32419e-07 0 0)
(2.49404e-07 0 0)
(2.66398e-07 0 0)
(2.8333e-07 0 0)
(3.00288e-07 0 0)
(3.17305e-07 0 0)
(3.34283e-07 0 0)
(3.51194e-07 0 0)
(3.68151e-07 0 0)
(3.85136e-07 0 0)
(4.02044e-07 0 0)
(4.18969e-07 0 0)
(4.35929e-07 0 0)
(4.52836e-07 0 0)
(4.69797e-07 0 0)
(4.8673e-07 0 0)
(5.03625e-07 0 0)
(5.20501e-07 0 0)
(5.3731e-07 0 0)
(5.54069e-07 0 0)
(1.179e-08 0 0)
(3.53191e-08 0 0)
(5.86966e-08 0 0)
(8.18342e-08 0 0)
(1.04662e-07 0 0)
(1.27145e-07 0 0)
(1.49293e-07 0 0)
(1.712e-07 0 0)
(1.93121e-07 0 0)
(2.15672e-07 0 0)
(1.20187e-08 0 0)
(3.60005e-08 0 0)
(5.98096e-08 0 0)
(8.33394e-08 0 0)
(1.06508e-07 0 0)
(1.29262e-07 0 0)
(1.5158e-07 0 0)
(1.73473e-07 0 0)
(1.94987e-07 0 0)
(2.16091e-07 0 0)
(1.22122e-08 0 0)
(3.65723e-08 0 0)
(6.07328e-08 0 0)
(8.45686e-08 0 0)
(1.07982e-07 0 0)
(1.309e-07 0 0)
(1.53253e-07 0 0)
(1.74968e-07 0 0)
(1.95937e-07 0 0)
(2.15893e-07 0 0)
(1.23718e-08 0 0)
(3.70388e-08 0 0)
(6.14756e-08 0 0)
(8.55395e-08 0 0)
(1.09119e-07 0 0)
(1.32117e-07 0 0)
(1.54425e-07 0 0)
(1.75911e-07 0 0)
(1.96399e-07 0 0)
(2.15603e-07 0 0)
(1.24989e-08 0 0)
(3.74054e-08 0 0)
(6.205e-08 0 0)
(8.62752e-08 0 0)
(1.09957e-07 0 0)
(1.32981e-07 0 0)
(1.55208e-07 0 0)
(1.76475e-07 0 0)
(1.96593e-07 0 0)
(2.15332e-07 0 0)
(1.25951e-08 0 0)
(3.76792e-08 0 0)
(6.2471e-08 0 0)
(8.68021e-08 0 0)
(1.10541e-07 0 0)
(1.33558e-07 0 0)
(1.55698e-07 0 0)
(1.76784e-07 0 0)
(1.96642e-07 0 0)
(2.15102e-07 0 0)
(1.2663e-08 0 0)
(3.78688e-08 0 0)
(6.27558e-08 0 0)
(8.71493e-08 0 0)
(1.10914e-07 0 0)
(1.3391e-07 0 0)
(1.55973e-07 0 0)
(1.76925e-07 0 0)
(1.96613e-07 0 0)
(2.1492e-07 0 0)
(1.27055e-08 0 0)
(3.79846e-08 0 0)
(6.2924e-08 0 0)
(8.73475e-08 0 0)
(1.11118e-07 0 0)
(1.3409e-07 0 0)
(1.56094e-07 0 0)
(1.76955e-07 0 0)
(1.96543e-07 0 0)
(2.14781e-07 0 0)
(1.2726e-08 0 0)
(3.80376e-08 0 0)
(6.29962e-08 0 0)
(8.74273e-08 0 0)
(1.11193e-07 0 0)
(1.34145e-07 0 0)
(1.56108e-07 0 0)
(1.76914e-07 0 0)
(1.96453e-07 0 0)
(2.14678e-07 0 0)
(1.27281e-08 0 0)
(3.80392e-08 0 0)
(6.29922e-08 0 0)
(8.74171e-08 0 0)
(1.11175e-07 0 0)
(1.34112e-07 0 0)
(1.5605e-07 0 0)
(1.76828e-07 0 0)
(1.96353e-07 0 0)
(2.14605e-07 0 0)
(1.27156e-08 0 0)
(3.80008e-08 0 0)
(6.2931e-08 0 0)
(8.73414e-08 0 0)
(1.11091e-07 0 0)
(1.34017e-07 0 0)
(1.55941e-07 0 0)
(1.76711e-07 0 0)
(1.96251e-07 0 0)
(2.14558e-07 0 0)
(1.26925e-08 0 0)
(3.79345e-08 0 0)
(6.28316e-08 0 0)
(8.72228e-08 0 0)
(1.1096e-07 0 0)
(1.33876e-07 0 0)
(1.55793e-07 0 0)
(1.7657e-07 0 0)
(1.96146e-07 0 0)
(2.14535e-07 0 0)
(1.26625e-08 0 0)
(3.78523e-08 0 0)
(6.27126e-08 0 0)
(8.70822e-08 0 0)
(1.10803e-07 0 0)
(1.33703e-07 0 0)
(1.55614e-07 0 0)
(1.7641e-07 0 0)
(1.96042e-07 0 0)
(2.14537e-07 0 0)
(1.26292e-08 0 0)
(3.77655e-08 0 0)
(6.25906e-08 0 0)
(8.69371e-08 0 0)
(1.10634e-07 0 0)
(1.33511e-07 0 0)
(1.55415e-07 0 0)
(1.76239e-07 0 0)
(1.95946e-07 0 0)
(2.14565e-07 0 0)
(1.25959e-08 0 0)
(3.76837e-08 0 0)
(6.2478e-08 0 0)
(8.67992e-08 0 0)
(1.10464e-07 0 0)
(1.33309e-07 0 0)
(1.55207e-07 0 0)
(1.76068e-07 0 0)
(1.95863e-07 0 0)
(2.14616e-07 0 0)
(1.25665e-08 0 0)
(3.76145e-08 0 0)
(6.23823e-08 0 0)
(8.66731e-08 0 0)
(1.10296e-07 0 0)
(1.33105e-07 0 0)
(1.54998e-07 0 0)
(1.75906e-07 0 0)
(1.95797e-07 0 0)
(2.14679e-07 0 0)
(1.25443e-08 0 0)
(3.75626e-08 0 0)
(6.23055e-08 0 0)
(8.65583e-08 0 0)
(1.10132e-07 0 0)
(1.32904e-07 0 0)
(1.548e-07 0 0)
(1.75761e-07 0 0)
(1.95743e-07 0 0)
(2.14737e-07 0 0)
(1.25312e-08 0 0)
(3.75292e-08 0 0)
(6.22453e-08 0 0)
(8.64524e-08 0 0)
(1.09973e-07 0 0)
(1.32716e-07 0 0)
(1.54627e-07 0 0)
(1.75641e-07 0 0)
(1.95693e-07 0 0)
(2.14773e-07 0 0)
(1.25266e-08 0 0)
(3.7511e-08 0 0)
(6.21972e-08 0 0)
(8.63553e-08 0 0)
(1.09832e-07 0 0)
(1.32565e-07 0 0)
(1.54502e-07 0 0)
(1.75553e-07 0 0)
(1.95641e-07 0 0)
(2.14784e-07 0 0)
(1.25272e-08 0 0)
(3.75039e-08 0 0)
(6.21583e-08 0 0)
(8.62745e-08 0 0)
(1.09736e-07 0 0)
(1.3249e-07 0 0)
(1.54448e-07 0 0)
(1.75493e-07 0 0)
(1.95578e-07 0 0)
(2.14797e-07 0 0)
)


// ************************************************************************* //
