/*--------------------------------*- C++ -*----------------------------------*\
| =========                 |                                                 |
| \\      /  F ield         | foam-extend: Open Source CFD                    |
|  \\    /   O peration     | Version:     4.1                                |
|   \\  /    A nd           | Web:         http://www.foam-extend.org         |
|    \\/     M anipulation  |                                                 |
\*---------------------------------------------------------------------------*/
FoamFile
{
    version     2.0;
    format      ascii;
    class       vectorField;
    location    "1";
    object      solidsCellD_iteration13;
}
// * * * * * * * * * * * * * * * * * * * * * * * * * * * * * * * * * * * * * //


1000
(
(4.47499e-07 -1.41188e-07 0)
(4.26994e-07 -1.33892e-07 0)
(4.14878e-07 -1.30355e-07 0)
(4.08791e-07 -1.30178e-07 0)
(4.07039e-07 -1.32079e-07 0)
(4.08482e-07 -1.35515e-07 0)
(4.12314e-07 -1.40012e-07 0)
(4.17782e-07 -1.45384e-07 0)
(4.24881e-07 -1.51234e-07 0)
(4.32113e-07 -1.57378e-07 0)
(4.05259e-07 -1.54505e-07 0)
(3.835e-07 -1.50617e-07 0)
(3.70474e-07 -1.49283e-07 0)
(3.63651e-07 -1.50636e-07 0)
(3.61166e-07 -1.53596e-07 0)
(3.61878e-07 -1.57776e-07 0)
(3.64957e-07 -1.62767e-07 0)
(3.69674e-07 -1.68537e-07 0)
(3.75897e-07 -1.74561e-07 0)
(3.82404e-07 -1.81167e-07 0)
(3.61196e-07 -1.67074e-07 0)
(3.38968e-07 -1.6698e-07 0)
(3.25504e-07 -1.68105e-07 0)
(3.1829e-07 -1.7108e-07 0)
(3.154e-07 -1.75116e-07 0)
(3.15624e-07 -1.80013e-07 0)
(3.18162e-07 -1.85497e-07 0)
(3.22348e-07 -1.91573e-07 0)
(3.27972e-07 -1.97776e-07 0)
(3.34074e-07 -2.04426e-07 0)
(3.15558e-07 -1.78693e-07 0)
(2.9391e-07 -1.82533e-07 0)
(2.80656e-07 -1.86195e-07 0)
(2.73394e-07 -1.90813e-07 0)
(2.70328e-07 -1.95929e-07 0)
(2.70241e-07 -2.01524e-07 0)
(2.7229e-07 -2.07461e-07 0)
(2.75988e-07 -2.13805e-07 0)
(2.81014e-07 -2.20188e-07 0)
(2.86655e-07 -2.26942e-07 0)
(2.68867e-07 -1.89114e-07 0)
(2.48583e-07 -1.96826e-07 0)
(2.36103e-07 -2.02958e-07 0)
(2.29234e-07 -2.09181e-07 0)
(2.26222e-07 -2.1534e-07 0)
(2.25897e-07 -2.21633e-07 0)
(2.27543e-07 -2.2802e-07 0)
(2.30746e-07 -2.34634e-07 0)
(2.35181e-07 -2.41236e-07 0)
(2.40213e-07 -2.48107e-07 0)
(2.21081e-07 -1.98185e-07 0)
(2.03173e-07 -2.09485e-07 0)
(1.92128e-07 -2.1793e-07 0)
(1.8594e-07 -2.25673e-07 0)
(1.83129e-07 -2.32808e-07 0)
(1.82668e-07 -2.39737e-07 0)
(1.84006e-07 -2.46534e-07 0)
(1.86715e-07 -2.53395e-07 0)
(1.90474e-07 -2.60219e-07 0)
(1.9475e-07 -2.67232e-07 0)
(1.72679e-07 -2.05643e-07 0)
(1.57833e-07 -2.20094e-07 0)
(1.48653e-07 -2.30582e-07 0)
(1.43458e-07 -2.39671e-07 0)
(1.41068e-07 -2.47652e-07 0)
(1.40629e-07 -2.55132e-07 0)
(1.41679e-07 -2.62286e-07 0)
(1.4383e-07 -2.69381e-07 0)
(1.46815e-07 -2.76413e-07 0)
(1.50223e-07 -2.8355e-07 0)
(1.23734e-07 -2.11405e-07 0)
(1.12573e-07 -2.28401e-07 0)
(1.05692e-07 -2.40491e-07 0)
(1.0181e-07 -2.50606e-07 0)
(1.00023e-07 -2.59284e-07 0)
(9.967e-08 -2.67228e-07 0)
(1.00398e-07 -2.74711e-07 0)
(1.01931e-07 -2.81999e-07 0)
(1.04087e-07 -2.892e-07 0)
(1.06563e-07 -2.96445e-07 0)
(7.4383e-08 -2.15321e-07 0)
(6.7477e-08 -2.34062e-07 0)
(6.32617e-08 -2.47255e-07 0)
(6.0843e-08 -2.58143e-07 0)
(5.96882e-08 -2.67313e-07 0)
(5.94308e-08 -2.7555e-07 0)
(5.98868e-08 -2.83262e-07 0)
(6.08465e-08 -2.90728e-07 0)
(6.21475e-08 -2.98069e-07 0)
(6.36396e-08 -3.05392e-07 0)
(2.48455e-08 -2.17291e-07 0)
(2.2526e-08 -2.36952e-07 0)
(2.10463e-08 -2.50712e-07 0)
(2.02154e-08 -2.61967e-07 0)
(1.9869e-08 -2.71385e-07 0)
(1.97831e-08 -2.79807e-07 0)
(1.98896e-08 -2.87612e-07 0)
(2.02021e-08 -2.95132e-07 0)
(2.06577e-08 -3.02545e-07 0)
(2.11578e-08 -3.09926e-07 0)
(6.89138e-07 -6.33421e-09 0)
(6.94038e-07 -4.58879e-09 0)
(6.9806e-07 -3.54246e-09 0)
(7.02875e-07 -2.98223e-09 0)
(7.08723e-07 -2.73656e-09 0)
(7.15771e-07 -2.73472e-09 0)
(7.24127e-07 -2.89663e-09 0)
(7.33656e-07 -3.10378e-09 0)
(7.44435e-07 -3.43424e-09 0)
(7.56271e-07 -3.83821e-09 0)
(6.84235e-07 -1.9071e-08 0)
(6.88321e-07 -1.39314e-08 0)
(6.91841e-07 -1.08033e-08 0)
(6.96277e-07 -9.21494e-09 0)
(7.01858e-07 -8.59161e-09 0)
(7.08694e-07 -8.51126e-09 0)
(7.16934e-07 -8.95139e-09 0)
(7.26374e-07 -9.72096e-09 0)
(7.37027e-07 -1.07298e-08 0)
(7.48788e-07 -1.18309e-08 0)
(6.74508e-07 -3.18646e-08 0)
(6.76971e-07 -2.36856e-08 0)
(6.79487e-07 -1.87187e-08 0)
(6.83251e-07 -1.60751e-08 0)
(6.88381e-07 -1.50699e-08 0)
(6.94927e-07 -1.50862e-08 0)
(7.02876e-07 -1.58731e-08 0)
(7.12155e-07 -1.71235e-08 0)
(7.22578e-07 -1.87483e-08 0)
(7.34185e-07 -2.05773e-08 0)
(6.6007e-07 -4.48945e-08 0)
(6.60225e-07 -3.40765e-08 0)
(6.61261e-07 -2.76242e-08 0)
(6.6408e-07 -2.42331e-08 0)
(6.68543e-07 -2.29402e-08 0)
(6.74674e-07 -2.29965e-08 0)
(6.82268e-07 -2.40627e-08 0)
(6.91314e-07 -2.57948e-08 0)
(7.01444e-07 -2.80295e-08 0)
(7.12858e-07 -3.05681e-08 0)
(6.41066e-07 -5.8148e-08 0)
(6.38431e-07 -4.53237e-08 0)
(6.37638e-07 -3.7744e-08 0)
(6.39256e-07 -3.38533e-08 0)
(6.42916e-07 -3.24311e-08 0)
(6.48496e-07 -3.26202e-08 0)
(6.55651e-07 -3.40052e-08 0)
(6.64371e-07 -3.62066e-08 0)
(6.74167e-07 -3.90009e-08 0)
(6.85386e-07 -4.21682e-08 0)
(6.17703e-07 -7.16872e-08 0)
(6.11899e-07 -5.76242e-08 0)
(6.09104e-07 -4.93671e-08 0)
(6.09401e-07 -4.5256e-08 0)
(6.12145e-07 -4.38946e-08 0)
(6.17083e-07 -4.43152e-08 0)
(6.23781e-07 -4.60465e-08 0)
(6.32136e-07 -4.86641e-08 0)
(6.41572e-07 -5.19723e-08 0)
(6.52554e-07 -5.56987e-08 0)
(5.9037e-07 -8.54861e-08 0)
(5.81164e-07 -7.10503e-08 0)
(5.7621e-07 -6.26486e-08 0)
(5.75114e-07 -5.86362e-08 0)
(5.76904e-07 -5.74966e-08 0)
(5.81189e-07 -5.82426e-08 0)
(5.87413e-07 -6.03413e-08 0)
(5.95388e-07 -6.33141e-08 0)
(6.04462e-07 -6.70588e-08 0)
(6.15208e-07 -7.12275e-08 0)
(5.59291e-07 -9.94377e-08 0)
(5.46739e-07 -8.55647e-08 0)
(5.39679e-07 -7.75858e-08 0)
(5.37185e-07 -7.4027e-08 0)
(5.38071e-07 -7.33086e-08 0)
(5.41704e-07 -7.45039e-08 0)
(5.47439e-07 -7.70309e-08 0)
(5.55021e-07 -8.03699e-08 0)
(5.63756e-07 -8.45095e-08 0)
(5.7419e-07 -8.90015e-08 0)
(5.24867e-07 -1.1348e-07 0)
(5.09202e-07 -1.01016e-07 0)
(5.0016e-07 -9.40585e-08 0)
(4.96315e-07 -9.13012e-08 0)
(4.96295e-07 -9.12259e-08 0)
(4.99197e-07 -9.29742e-08 0)
(5.04374e-07 -9.59776e-08 0)
(5.1148e-07 -9.96878e-08 0)
(5.19888e-07 -1.04153e-07 0)
(5.2994e-07 -1.087e-07 0)
(4.87488e-07 -1.27474e-07 0)
(4.69174e-07 -1.17221e-07 0)
(4.58402e-07 -1.11762e-07 0)
(4.53359e-07 -1.10167e-07 0)
(4.52475e-07 -1.1098e-07 0)
(4.54743e-07 -1.1345e-07 0)
(4.59509e-07 -1.17101e-07 0)
(4.66163e-07 -1.21429e-07 0)
(4.74425e-07 -1.26396e-07 0)
(4.83701e-07 -1.31468e-07 0)
(7.69133e-07 -4.17847e-09 0)
(7.8306e-07 -4.35162e-09 0)
(7.97782e-07 -4.49912e-09 0)
(8.13234e-07 -4.62694e-09 0)
(8.29345e-07 -4.73913e-09 0)
(8.46093e-07 -4.82935e-09 0)
(8.63389e-07 -4.87615e-09 0)
(8.81159e-07 -4.91259e-09 0)
(8.99409e-07 -4.96297e-09 0)
(9.18118e-07 -4.99863e-09 0)
(9.37215e-07 -5.00163e-09 0)
(9.56662e-07 -4.9738e-09 0)
(9.76423e-07 -4.92011e-09 0)
(9.96467e-07 -4.85086e-09 0)
(1.01677e-06 -4.76931e-09 0)
(1.03729e-06 -4.66332e-09 0)
(1.05801e-06 -4.51836e-09 0)
(1.07889e-06 -4.32613e-09 0)
(1.09988e-06 -4.091e-09 0)
(1.12093e-06 -3.81599e-09 0)
(7.61952e-07 -1.27853e-08 0)
(7.76447e-07 -1.32748e-08 0)
(7.91678e-07 -1.36973e-08 0)
(8.07605e-07 -1.40499e-08 0)
(8.24146e-07 -1.43141e-08 0)
(8.41251e-07 -1.45386e-08 0)
(8.58884e-07 -1.47279e-08 0)
(8.76999e-07 -1.48928e-08 0)
(8.95573e-07 -1.50174e-08 0)
(9.14551e-07 -1.50568e-08 0)
(9.33888e-07 -1.50262e-08 0)
(9.53572e-07 -1.49525e-08 0)
(9.73578e-07 -1.48294e-08 0)
(9.93863e-07 -1.46421e-08 0)
(1.01439e-06 -1.43774e-08 0)
(1.03514e-06 -1.40219e-08 0)
(1.05606e-06 -1.35616e-08 0)
(1.07712e-06 -1.29861e-08 0)
(1.0983e-06 -1.22932e-08 0)
(1.11949e-06 -1.14786e-08 0)
(7.47939e-07 -2.21123e-08 0)
(7.63588e-07 -2.28049e-08 0)
(7.79835e-07 -2.33742e-08 0)
(7.96608e-07 -2.38715e-08 0)
(8.13938e-07 -2.42715e-08 0)
(8.31801e-07 -2.46243e-08 0)
(8.50139e-07 -2.49072e-08 0)
(8.68868e-07 -2.51202e-08 0)
(8.87999e-07 -2.52548e-08 0)
(9.0749e-07 -2.52854e-08 0)
(9.27323e-07 -2.52432e-08 0)
(9.47478e-07 -2.51411e-08 0)
(9.67915e-07 -2.49437e-08 0)
(9.88592e-07 -2.46206e-08 0)
(1.00949e-06 -2.41627e-08 0)
(1.0306e-06 -2.35615e-08 0)
(1.05189e-06 -2.2796e-08 0)
(1.07333e-06 -2.18501e-08 0)
(1.09489e-06 -2.07113e-08 0)
(1.11647e-06 -1.93624e-08 0)
(7.27442e-07 -3.25302e-08 0)
(7.44677e-07 -3.32276e-08 0)
(7.62385e-07 -3.37817e-08 0)
(7.80477e-07 -3.43018e-08 0)
(7.99021e-07 -3.47456e-08 0)
(8.17953e-07 -3.5152e-08 0)
(8.37271e-07 -3.5463e-08 0)
(8.56906e-07 -3.56925e-08 0)
(8.7691e-07 -3.5827e-08 0)
(8.97225e-07 -3.58436e-08 0)
(9.17818e-07 -3.57644e-08 0)
(9.38668e-07 -3.55848e-08 0)
(9.59746e-07 -3.52642e-08 0)
(9.81029e-07 -3.47811e-08 0)
(1.00251e-06 -3.41387e-08 0)
(1.02418e-06 -3.33106e-08 0)
(1.046e-06 -3.22706e-08 0)
(1.06797e-06 -3.09834e-08 0)
(1.09001e-06 -2.94198e-08 0)
(1.11212e-06 -2.75874e-08 0)
(7.01067e-07 -4.4338e-08 0)
(7.20367e-07 -4.48008e-08 0)
(7.39953e-07 -4.51803e-08 0)
(7.59676e-07 -4.56103e-08 0)
(7.79732e-07 -4.5979e-08 0)
(8.00038e-07 -4.63369e-08 0)
(8.20635e-07 -4.65924e-08 0)
(8.41467e-07 -4.6785e-08 0)
(8.62553e-07 -4.68675e-08 0)
(8.83863e-07 -4.68145e-08 0)
(9.05401e-07 -4.66556e-08 0)
(9.27158e-07 -4.63782e-08 0)
(9.49104e-07 -4.59315e-08 0)
(9.71214e-07 -4.529e-08 0)
(9.9349e-07 -4.44554e-08 0)
(1.0159e-06 -4.33915e-08 0)
(1.03844e-06 -4.20739e-08 0)
(1.06109e-06 -4.04615e-08 0)
(1.08382e-06 -3.8498e-08 0)
(1.10659e-06 -3.62283e-08 0)
(6.69467e-07 -5.78372e-08 0)
(6.91118e-07 -5.77635e-08 0)
(7.12948e-07 -5.77141e-08 0)
(7.34679e-07 -5.78767e-08 0)
(7.56596e-07 -5.80364e-08 0)
(7.78601e-07 -5.82451e-08 0)
(8.00686e-07 -5.83517e-08 0)
(8.22932e-07 -5.84055e-08 0)
(8.45334e-07 -5.83731e-08 0)
(8.67884e-07 -5.82238e-08 0)
(8.90593e-07 -5.79708e-08 0)
(9.13451e-07 -5.75814e-08 0)
(9.3643e-07 -5.69925e-08 0)
(9.59509e-07 -5.61807e-08 0)
(9.8271e-07 -5.51406e-08 0)
(1.006e-06 -5.38441e-08 0)
(1.02942e-06 -5.22555e-08 0)
(1.05288e-06 -5.0345e-08 0)
(1.07646e-06 -4.80321e-08 0)
(1.10005e-06 -4.53552e-08 0)
(6.33551e-07 -7.31012e-08 0)
(6.5784e-07 -7.22179e-08 0)
(6.82179e-07 -7.15149e-08 0)
(7.0615e-07 -7.12108e-08 0)
(7.30087e-07 -7.09876e-08 0)
(7.53971e-07 -7.08781e-08 0)
(7.7778e-07 -7.07573e-08 0)
(8.01624e-07 -7.06172e-08 0)
(8.25529e-07 -7.04265e-08 0)
(8.49511e-07 -7.01486e-08 0)
(8.73571e-07 -6.97654e-08 0)
(8.9769e-07 -6.92248e-08 0)
(9.21853e-07 -6.84627e-08 0)
(9.46065e-07 -6.74648e-08 0)
(9.70349e-07 -6.62211e-08 0)
(9.94694e-07 -6.47102e-08 0)
(1.01914e-06 -6.28775e-08 0)
(1.04359e-06 -6.06904e-08 0)
(1.06813e-06 -5.80589e-08 0)
(1.09265e-06 -5.50052e-08 0)
(5.94013e-07 -9.02834e-08 0)
(6.21052e-07 -8.81818e-08 0)
(6.48087e-07 -8.65358e-08 0)
(6.74496e-07 -8.55233e-08 0)
(7.00719e-07 -8.47779e-08 0)
(7.26641e-07 -8.42375e-08 0)
(7.52418e-07 -8.37952e-08 0)
(7.78071e-07 -8.33995e-08 0)
(8.03655e-07 -8.29991e-08 0)
(8.29204e-07 -8.25425e-08 0)
(8.54728e-07 -8.1984e-08 0)
(8.80221e-07 -8.1262e-08 0)
(9.05693e-07 -8.03188e-08 0)
(9.31176e-07 -7.9142e-08 0)
(9.56692e-07 -7.77145e-08 0)
(9.82237e-07 -7.60085e-08 0)
(1.00782e-06 -7.39552e-08 0)
(1.0334e-06 -7.1512e-08 0)
(1.05901e-06 -6.85755e-08 0)
(1.08459e-06 -6.51631e-08 0)
(5.51596e-07 -1.09276e-07 0)
(5.81513e-07 -1.05747e-07 0)
(6.11386e-07 -1.03015e-07 0)
(6.40372e-07 -1.01073e-07 0)
(6.69005e-07 -9.95895e-08 0)
(6.97146e-07 -9.84586e-08 0)
(7.24989e-07 -9.75512e-08 0)
(7.52565e-07 -9.67823e-08 0)
(7.79951e-07 -9.60868e-08 0)
(8.07185e-07 -9.53855e-08 0)
(8.34285e-07 -9.46096e-08 0)
(8.61277e-07 -9.36917e-08 0)
(8.88191e-07 -9.25756e-08 0)
(9.15075e-07 -9.12388e-08 0)
(9.41943e-07 -8.965e-08 0)
(9.68803e-07 -8.7765e-08 0)
(9.9565e-07 -8.55035e-08 0)
(1.02245e-06 -8.28131e-08 0)
(1.04926e-06 -7.95924e-08 0)
(1.07601e-06 -7.5847e-08 0)
(5.07292e-07 -1.29991e-07 0)
(5.4089e-07 -1.24019e-07 0)
(5.73886e-07 -1.19908e-07 0)
(6.05681e-07 -1.16905e-07 0)
(6.36713e-07 -1.14674e-07 0)
(6.67123e-07 -1.12947e-07 0)
(6.97014e-07 -1.1156e-07 0)
(7.26504e-07 -1.10401e-07 0)
(7.55688e-07 -1.09393e-07 0)
(7.8461e-07 -1.08434e-07 0)
(8.13305e-07 -1.07442e-07 0)
(8.41819e-07 -1.06345e-07 0)
(8.70199e-07 -1.05079e-07 0)
(8.98496e-07 -1.03608e-07 0)
(9.26722e-07 -1.01887e-07 0)
(9.54897e-07 -9.98532e-08 0)
(9.83029e-07 -9.74261e-08 0)
(1.01109e-06 -9.45202e-08 0)
(1.03914e-06 -9.10568e-08 0)
(1.06714e-06 -8.70009e-08 0)
(4.71526e-07 -1.52939e-07 0)
(5.08656e-07 -1.44107e-07 0)
(5.44246e-07 -1.38415e-07 0)
(5.78546e-07 -1.3404e-07 0)
(6.11683e-07 -1.30787e-07 0)
(6.43955e-07 -1.28248e-07 0)
(6.75489e-07 -1.26209e-07 0)
(7.06469e-07 -1.24526e-07 0)
(7.37e-07 -1.23079e-07 0)
(7.67146e-07 -1.21742e-07 0)
(7.96971e-07 -1.20426e-07 0)
(8.26542e-07 -1.19055e-07 0)
(8.55918e-07 -1.17557e-07 0)
(8.85149e-07 -1.15878e-07 0)
(9.14243e-07 -1.13968e-07 0)
(9.43239e-07 -1.1174e-07 0)
(9.72138e-07 -1.09135e-07 0)
(1.00096e-06 -1.06023e-07 0)
(1.02976e-06 -1.02346e-07 0)
(1.05848e-06 -9.80127e-08 0)
(4.52687e-07 -1.73161e-07 0)
(4.90371e-07 -1.63899e-07 0)
(5.26432e-07 -1.57165e-07 0)
(5.6153e-07 -1.51807e-07 0)
(5.95561e-07 -1.47645e-07 0)
(6.2871e-07 -1.44313e-07 0)
(6.61104e-07 -1.41592e-07 0)
(6.92882e-07 -1.39317e-07 0)
(7.24132e-07 -1.37343e-07 0)
(7.54925e-07 -1.35537e-07 0)
(7.85339e-07 -1.3381e-07 0)
(8.15447e-07 -1.3208e-07 0)
(8.45306e-07 -1.30263e-07 0)
(8.7496e-07 -1.28295e-07 0)
(9.0442e-07 -1.26122e-07 0)
(9.3375e-07 -1.23636e-07 0)
(9.62923e-07 -1.20808e-07 0)
(9.92012e-07 -1.1748e-07 0)
(1.02103e-06 -1.13597e-07 0)
(1.04994e-06 -1.09035e-07 0)
(4.38174e-07 -1.91653e-07 0)
(4.75402e-07 -1.82454e-07 0)
(5.11579e-07 -1.75312e-07 0)
(5.46987e-07 -1.69403e-07 0)
(5.81486e-07 -1.64598e-07 0)
(6.1517e-07 -1.60624e-07 0)
(6.48132e-07 -1.57297e-07 0)
(6.80455e-07 -1.54457e-07 0)
(7.12213e-07 -1.51962e-07 0)
(7.4348e-07 -1.49687e-07 0)
(7.74333e-07 -1.47546e-07 0)
(8.04844e-07 -1.45449e-07 0)
(8.35063e-07 -1.43301e-07 0)
(8.65034e-07 -1.41035e-07 0)
(8.94767e-07 -1.38595e-07 0)
(9.24343e-07 -1.35858e-07 0)
(9.53734e-07 -1.32811e-07 0)
(9.83019e-07 -1.2929e-07 0)
(1.01219e-06 -1.25234e-07 0)
(1.04126e-06 -1.20511e-07 0)
(4.25905e-07 -2.09676e-07 0)
(4.6263e-07 -2.00648e-07 0)
(4.98584e-07 -1.9325e-07 0)
(5.34003e-07 -1.86905e-07 0)
(5.68644e-07 -1.81563e-07 0)
(6.02607e-07 -1.77029e-07 0)
(6.35904e-07 -1.73149e-07 0)
(6.68585e-07 -1.69778e-07 0)
(7.00711e-07 -1.66787e-07 0)
(7.32344e-07 -1.64061e-07 0)
(7.6355e-07 -1.61518e-07 0)
(7.94389e-07 -1.59064e-07 0)
(8.24911e-07 -1.56591e-07 0)
(8.55156e-07 -1.54033e-07 0)
(8.85138e-07 -1.51332e-07 0)
(9.14933e-07 -1.48362e-07 0)
(9.44526e-07 -1.45116e-07 0)
(9.73996e-07 -1.41428e-07 0)
(1.00332e-06 -1.37236e-07 0)
(1.03257e-06 -1.32428e-07 0)
(4.15488e-07 -2.26838e-07 0)
(4.5165e-07 -2.18094e-07 0)
(4.87249e-07 -2.10658e-07 0)
(5.22477e-07 -2.04075e-07 0)
(5.57085e-07 -1.98364e-07 0)
(5.91136e-07 -1.93397e-07 0)
(6.24587e-07 -1.89049e-07 0)
(6.57475e-07 -1.8521e-07 0)
(6.89843e-07 -1.8177e-07 0)
(7.21738e-07 -1.78627e-07 0)
(7.5321e-07 -1.75703e-07 0)
(7.84303e-07 -1.72903e-07 0)
(8.15063e-07 -1.70114e-07 0)
(8.45529e-07 -1.67277e-07 0)
(8.75717e-07 -1.64326e-07 0)
(9.05702e-07 -1.61142e-07 0)
(9.35465e-07 -1.57717e-07 0)
(9.65094e-07 -1.53885e-07 0)
(9.94563e-07 -1.49599e-07 0)
(1.024e-06 -1.44771e-07 0)
(4.0647e-07 -2.43422e-07 0)
(4.42083e-07 -2.34972e-07 0)
(4.77305e-07 -2.27578e-07 0)
(5.12232e-07 -2.20868e-07 0)
(5.467e-07 -2.14906e-07 0)
(5.80696e-07 -2.09602e-07 0)
(6.14172e-07 -2.04868e-07 0)
(6.47153e-07 -2.00634e-07 0)
(6.79664e-07 -1.96803e-07 0)
(7.11729e-07 -1.93286e-07 0)
(7.43385e-07 -1.90014e-07 0)
(7.74659e-07 -1.86891e-07 0)
(8.05595e-07 -1.83803e-07 0)
(8.3623e-07 -1.80704e-07 0)
(8.66575e-07 -1.77517e-07 0)
(8.9671e-07 -1.74146e-07 0)
(9.26614e-07 -1.70566e-07 0)
(9.56374e-07 -1.66623e-07 0)
(9.86e-07 -1.6229e-07 0)
(1.01558e-06 -1.57486e-07 0)
(3.98638e-07 -2.59473e-07 0)
(4.33732e-07 -2.51325e-07 0)
(4.68551e-07 -2.44029e-07 0)
(5.03147e-07 -2.37279e-07 0)
(5.37394e-07 -2.31158e-07 0)
(5.71239e-07 -2.25599e-07 0)
(6.04649e-07 -2.20562e-07 0)
(6.37633e-07 -2.16003e-07 0)
(6.70195e-07 -2.11837e-07 0)
(7.02344e-07 -2.07987e-07 0)
(7.34104e-07 -2.04397e-07 0)
(7.65488e-07 -2.00974e-07 0)
(7.96538e-07 -1.97609e-07 0)
(8.27286e-07 -1.94272e-07 0)
(8.57747e-07 -1.90869e-07 0)
(8.87991e-07 -1.87332e-07 0)
(9.18007e-07 -1.83626e-07 0)
(9.4788e-07 -1.79611e-07 0)
(9.77645e-07 -1.75273e-07 0)
(1.00732e-06 -1.70517e-07 0)
(3.91796e-07 -2.75084e-07 0)
(4.26432e-07 -2.67223e-07 0)
(4.60831e-07 -2.60052e-07 0)
(4.95086e-07 -2.53315e-07 0)
(5.29045e-07 -2.47096e-07 0)
(5.6268e-07 -2.41353e-07 0)
(5.95957e-07 -2.36084e-07 0)
(6.28869e-07 -2.31263e-07 0)
(6.61403e-07 -2.26811e-07 0)
(6.93559e-07 -2.22669e-07 0)
(7.25355e-07 -2.18794e-07 0)
(7.56791e-07 -2.15099e-07 0)
(7.87906e-07 -2.11478e-07 0)
(8.18724e-07 -2.07928e-07 0)
(8.49267e-07 -2.04336e-07 0)
(8.79595e-07 -2.00658e-07 0)
(9.09704e-07 -1.96859e-07 0)
(9.39683e-07 -1.92811e-07 0)
(9.69543e-07 -1.88499e-07 0)
(9.99303e-07 -1.83814e-07 0)
(3.85764e-07 -2.90316e-07 0)
(4.19961e-07 -2.82718e-07 0)
(4.53964e-07 -2.75684e-07 0)
(4.87858e-07 -2.6899e-07 0)
(5.2151e-07 -2.62716e-07 0)
(5.54909e-07 -2.56848e-07 0)
(5.88012e-07 -2.51403e-07 0)
(6.20803e-07 -2.46371e-07 0)
(6.53254e-07 -2.41679e-07 0)
(6.85366e-07 -2.37285e-07 0)
(7.17149e-07 -2.33159e-07 0)
(7.48595e-07 -2.2922e-07 0)
(7.79741e-07 -2.25374e-07 0)
(8.106e-07 -2.21633e-07 0)
(8.41197e-07 -2.17883e-07 0)
(8.71592e-07 -2.14093e-07 0)
(9.01778e-07 -2.10237e-07 0)
(9.31845e-07 -2.06185e-07 0)
(9.61757e-07 -2.01919e-07 0)
(9.91631e-07 -1.97346e-07 0)
(3.80403e-07 -3.05213e-07 0)
(4.14168e-07 -2.9786e-07 0)
(4.47802e-07 -2.90961e-07 0)
(4.81335e-07 -2.84324e-07 0)
(5.14692e-07 -2.78033e-07 0)
(5.4785e-07 -2.72084e-07 0)
(5.80758e-07 -2.66506e-07 0)
(6.13401e-07 -2.61304e-07 0)
(6.45735e-07 -2.56412e-07 0)
(6.7777e-07 -2.51802e-07 0)
(7.09502e-07 -2.47458e-07 0)
(7.40925e-07 -2.43305e-07 0)
(7.7207e-07 -2.39265e-07 0)
(8.02944e-07 -2.3536e-07 0)
(8.33572e-07 -2.31482e-07 0)
(8.64009e-07 -2.27612e-07 0)
(8.94247e-07 -2.23726e-07 0)
(9.2436e-07 -2.19692e-07 0)
(9.54321e-07 -2.15494e-07 0)
(9.84278e-07 -2.1108e-07 0)
(3.75572e-07 -3.19814e-07 0)
(4.08941e-07 -3.12686e-07 0)
(4.42222e-07 -3.05917e-07 0)
(4.75429e-07 -2.99351e-07 0)
(5.08513e-07 -2.9307e-07 0)
(5.41432e-07 -2.87068e-07 0)
(5.74134e-07 -2.8139e-07 0)
(6.0661e-07 -2.76051e-07 0)
(6.38805e-07 -2.70994e-07 0)
(6.70738e-07 -2.66201e-07 0)
(7.02393e-07 -2.61669e-07 0)
(7.33767e-07 -2.57332e-07 0)
(7.64887e-07 -2.53126e-07 0)
(7.95758e-07 -2.49084e-07 0)
(8.26398e-07 -2.45105e-07 0)
(8.56859e-07 -2.41179e-07 0)
(8.87123e-07 -2.37281e-07 0)
(9.17247e-07 -2.33281e-07 0)
(9.47276e-07 -2.29187e-07 0)
(9.7725e-07 -2.24954e-07 0)
(3.71176e-07 -3.34161e-07 0)
(4.04192e-07 -3.27235e-07 0)
(4.37147e-07 -3.20593e-07 0)
(4.70067e-07 -3.14109e-07 0)
(5.02891e-07 -3.07852e-07 0)
(5.3557e-07 -3.01816e-07 0)
(5.68057e-07 -2.96063e-07 0)
(6.00355e-07 -2.90612e-07 0)
(6.32406e-07 -2.8542e-07 0)
(6.64228e-07 -2.80469e-07 0)
(6.95801e-07 -2.75776e-07 0)
(7.27122e-07 -2.71281e-07 0)
(7.58215e-07 -2.66934e-07 0)
(7.89079e-07 -2.62781e-07 0)
(8.19725e-07 -2.58725e-07 0)
(8.50196e-07 -2.54761e-07 0)
(8.80467e-07 -2.50863e-07 0)
(9.10607e-07 -2.4692e-07 0)
(9.40675e-07 -2.42964e-07 0)
(9.7066e-07 -2.3891e-07 0)
(3.67179e-07 -3.48286e-07 0)
(3.99873e-07 -3.41547e-07 0)
(4.32536e-07 -3.35032e-07 0)
(4.65183e-07 -3.28631e-07 0)
(4.97749e-07 -3.22399e-07 0)
(5.3019e-07 -3.16338e-07 0)
(5.62475e-07 -3.1053e-07 0)
(5.94602e-07 -3.0499e-07 0)
(6.26526e-07 -2.99687e-07 0)
(6.58249e-07 -2.94606e-07 0)
(6.8975e-07 -2.89781e-07 0)
(7.21019e-07 -2.85157e-07 0)
(7.52077e-07 -2.80696e-07 0)
(7.8292e-07 -2.76452e-07 0)
(8.13551e-07 -2.72335e-07 0)
(8.44011e-07 -2.68341e-07 0)
(8.74267e-07 -2.64455e-07 0)
(9.04431e-07 -2.60592e-07 0)
(9.34464e-07 -2.56783e-07 0)
(9.64484e-07 -2.52936e-07 0)
(3.63531e-07 -3.6222e-07 0)
(3.95931e-07 -3.5566e-07 0)
(4.28324e-07 -3.49263e-07 0)
(4.60702e-07 -3.42931e-07 0)
(4.93025e-07 -3.36723e-07 0)
(5.25253e-07 -3.30652e-07 0)
(5.57369e-07 -3.24809e-07 0)
(5.89338e-07 -3.19205e-07 0)
(6.21144e-07 -3.13816e-07 0)
(6.52762e-07 -3.08629e-07 0)
(6.84183e-07 -3.03687e-07 0)
(7.15395e-07 -2.98947e-07 0)
(7.46415e-07 -2.94383e-07 0)
(7.77233e-07 -2.90058e-07 0)
(8.07842e-07 -2.85885e-07 0)
(8.38281e-07 -2.81867e-07 0)
(8.68523e-07 -2.78009e-07 0)
(8.98679e-07 -2.74238e-07 0)
(9.28678e-07 -2.70569e-07 0)
(9.58693e-07 -2.66977e-07 0)
(3.60147e-07 -3.75996e-07 0)
(3.92278e-07 -3.69604e-07 0)
(4.2441e-07 -3.633e-07 0)
(4.56542e-07 -3.57029e-07 0)
(4.88659e-07 -3.50851e-07 0)
(5.20695e-07 -3.44786e-07 0)
(5.5266e-07 -3.38918e-07 0)
(5.84483e-07 -3.33265e-07 0)
(6.16182e-07 -3.27798e-07 0)
(6.47723e-07 -3.22518e-07 0)
(6.79092e-07 -3.17482e-07 0)
(7.10271e-07 -3.12649e-07 0)
(7.41273e-07 -3.08e-07 0)
(7.72078e-07 -3.03605e-07 0)
(8.02668e-07 -2.9938e-07 0)
(8.33088e-07 -2.95342e-07 0)
(8.6333e-07 -2.91516e-07 0)
(8.93437e-07 -2.87839e-07 0)
(9.23449e-07 -2.84333e-07 0)
(9.53426e-07 -2.80995e-07 0)
(3.56932e-07 -3.89648e-07 0)
(3.88809e-07 -3.83391e-07 0)
(4.20709e-07 -3.77166e-07 0)
(4.52633e-07 -3.70957e-07 0)
(4.84572e-07 -3.64814e-07 0)
(5.16452e-07 -3.58762e-07 0)
(5.48289e-07 -3.52874e-07 0)
(5.80019e-07 -3.47189e-07 0)
(6.11627e-07 -3.41668e-07 0)
(6.43097e-07 -3.36311e-07 0)
(6.74421e-07 -3.31191e-07 0)
(7.05575e-07 -3.26276e-07 0)
(7.3656e-07 -3.21549e-07 0)
(7.6735e-07 -3.17078e-07 0)
(7.97932e-07 -3.12793e-07 0)
(8.28354e-07 -3.08741e-07 0)
(8.58592e-07 -3.0495e-07 0)
(8.88668e-07 -3.01349e-07 0)
(9.18659e-07 -2.98022e-07 0)
(9.48628e-07 -2.94956e-07 0)
(3.53792e-07 -4.03203e-07 0)
(3.85458e-07 -3.97056e-07 0)
(4.17155e-07 -3.90894e-07 0)
(4.48912e-07 -3.84748e-07 0)
(4.80692e-07 -3.78636e-07 0)
(5.12463e-07 -3.726e-07 0)
(5.44181e-07 -3.66708e-07 0)
(5.7583e-07 -3.60988e-07 0)
(6.0738e-07 -3.5541e-07 0)
(6.38819e-07 -3.49992e-07 0)
(6.7013e-07 -3.44807e-07 0)
(7.0128e-07 -3.39817e-07 0)
(7.32267e-07 -3.35006e-07 0)
(7.63066e-07 -3.30464e-07 0)
(7.9367e-07 -3.26137e-07 0)
(8.2413e-07 -3.22059e-07 0)
(8.54366e-07 -3.18269e-07 0)
(8.84467e-07 -3.14747e-07 0)
(9.14392e-07 -3.11606e-07 0)
(9.44355e-07 -3.08805e-07 0)
(3.50702e-07 -4.16659e-07 0)
(3.82163e-07 -4.10625e-07 0)
(4.13702e-07 -4.04523e-07 0)
(4.45328e-07 -3.98427e-07 0)
(4.77e-07 -3.92363e-07 0)
(5.08672e-07 -3.86338e-07 0)
(5.40314e-07 -3.80433e-07 0)
(5.71907e-07 -3.74691e-07 0)
(6.03428e-07 -3.69077e-07 0)
(6.34864e-07 -3.63606e-07 0)
(6.66183e-07 -3.58355e-07 0)
(6.97343e-07 -3.533e-07 0)
(7.28356e-07 -3.4842e-07 0)
(7.59219e-07 -3.43798e-07 0)
(7.89897e-07 -3.3941e-07 0)
(8.20394e-07 -3.35312e-07 0)
(8.50652e-07 -3.31516e-07 0)
(8.80829e-07 -3.28033e-07 0)
(9.10789e-07 -3.25047e-07 0)
(9.40677e-07 -3.22561e-07 0)
(3.47564e-07 -4.30089e-07 0)
(3.78844e-07 -4.24123e-07 0)
(4.10281e-07 -4.1808e-07 0)
(4.41806e-07 -4.12039e-07 0)
(4.73389e-07 -4.05998e-07 0)
(5.04984e-07 -3.99986e-07 0)
(5.36585e-07 -3.94072e-07 0)
(5.68169e-07 -3.88302e-07 0)
(5.99697e-07 -3.82655e-07 0)
(6.31136e-07 -3.7715e-07 0)
(6.62475e-07 -3.71844e-07 0)
(6.93704e-07 -3.66703e-07 0)
(7.24811e-07 -3.6175e-07 0)
(7.55743e-07 -3.57096e-07 0)
(7.86505e-07 -3.52643e-07 0)
(8.17128e-07 -3.48444e-07 0)
(8.47548e-07 -3.44643e-07 0)
(8.77773e-07 -3.412e-07 0)
(9.07824e-07 -3.38289e-07 0)
(9.3772e-07 -3.36072e-07 0)
(3.44384e-07 -4.43458e-07 0)
(3.75557e-07 -4.37576e-07 0)
(4.06899e-07 -4.31599e-07 0)
(4.38342e-07 -4.256e-07 0)
(4.69861e-07 -4.19574e-07 0)
(5.01439e-07 -4.13555e-07 0)
(5.33045e-07 -4.07645e-07 0)
(5.64636e-07 -4.01884e-07 0)
(5.96186e-07 -3.96206e-07 0)
(6.27689e-07 -3.9063e-07 0)
(6.59116e-07 -3.8528e-07 0)
(6.90418e-07 -3.80126e-07 0)
(7.21621e-07 -3.75104e-07 0)
(7.52701e-07 -3.70352e-07 0)
(7.83604e-07 -3.65866e-07 0)
(8.14378e-07 -3.61614e-07 0)
(8.4503e-07 -3.57752e-07 0)
(8.75442e-07 -3.54258e-07 0)
(9.05706e-07 -3.5136e-07 0)
(9.35695e-07 -3.49298e-07 0)
(2.12601e-08 -3.17347e-07 0)
(6.39304e-08 -3.13023e-07 0)
(1.06945e-07 -3.0447e-07 0)
(1.50566e-07 -2.9214e-07 0)
(1.94862e-07 -2.76481e-07 0)
(2.39884e-07 -2.58092e-07 0)
(2.8562e-07 -2.37713e-07 0)
(3.31936e-07 -2.15968e-07 0)
(3.79071e-07 -1.93497e-07 0)
(4.26323e-07 -1.70612e-07 0)
(2.08479e-08 -3.25135e-07 0)
(6.2684e-08 -3.21168e-07 0)
(1.04748e-07 -3.13325e-07 0)
(1.47274e-07 -3.01999e-07 0)
(1.90303e-07 -2.87568e-07 0)
(2.33818e-07 -2.70536e-07 0)
(2.77851e-07 -2.51518e-07 0)
(3.22087e-07 -2.31136e-07 0)
(3.66778e-07 -2.09877e-07 0)
(4.10777e-07 -1.88751e-07 0)
(2.04218e-08 -3.33052e-07 0)
(6.13927e-08 -3.29422e-07 0)
(1.02531e-07 -3.22213e-07 0)
(1.43971e-07 -3.11777e-07 0)
(1.858e-07 -2.98459e-07 0)
(2.27928e-07 -2.82705e-07 0)
(2.70421e-07 -2.65044e-07 0)
(3.12984e-07 -2.46054e-07 0)
(3.5585e-07 -2.26084e-07 0)
(3.98014e-07 -2.06358e-07 0)
(2.00504e-08 -3.41109e-07 0)
(6.02281e-08 -3.37748e-07 0)
(1.00581e-07 -3.31087e-07 0)
(1.41106e-07 -3.21429e-07 0)
(1.8193e-07 -3.09087e-07 0)
(2.22927e-07 -2.94446e-07 0)
(2.64151e-07 -2.78002e-07 0)
(3.05323e-07 -2.603e-07 0)
(3.46575e-07 -2.41647e-07 0)
(3.87142e-07 -2.23295e-07 0)
(1.97281e-08 -3.49304e-07 0)
(5.91738e-08 -3.46207e-07 0)
(9.87892e-08 -3.40052e-07 0)
(1.38492e-07 -3.31103e-07 0)
(1.78409e-07 -3.19643e-07 0)
(2.18413e-07 -3.06061e-07 0)
(2.58545e-07 -2.90781e-07 0)
(2.98573e-07 -2.74258e-07 0)
(3.38526e-07 -2.56814e-07 0)
(3.77831e-07 -2.39625e-07 0)
(1.94091e-08 -3.57645e-07 0)
(5.82206e-08 -3.54761e-07 0)
(9.71496e-08 -3.49048e-07 0)
(1.36135e-07 -3.40756e-07 0)
(1.7526e-07 -3.30098e-07 0)
(2.14435e-07 -3.17468e-07 0)
(2.53612e-07 -3.03251e-07 0)
(2.92641e-07 -2.8783e-07 0)
(3.31487e-07 -2.71541e-07 0)
(3.69718e-07 -2.55457e-07 0)
(1.9102e-08 -3.66117e-07 0)
(5.73318e-08 -3.63442e-07 0)
(9.56302e-08 -3.58133e-07 0)
(1.33984e-07 -3.50434e-07 0)
(1.72385e-07 -3.40516e-07 0)
(2.10826e-07 -3.28759e-07 0)
(2.49202e-07 -3.15518e-07 0)
(2.87382e-07 -3.01128e-07 0)
(3.25307e-07 -2.85914e-07 0)
(3.62645e-07 -2.70847e-07 0)
(1.88451e-08 -3.74716e-07 0)
(5.65085e-08 -3.72235e-07 0)
(9.42275e-08 -3.67296e-07 0)
(1.32006e-07 -3.60133e-07 0)
(1.69773e-07 -3.50902e-07 0)
(2.07545e-07 -3.39941e-07 0)
(2.45219e-07 -3.27608e-07 0)
(2.82683e-07 -3.14187e-07 0)
(3.19848e-07 -2.99981e-07 0)
(3.56451e-07 -2.8586e-07 0)
(1.86078e-08 -3.83443e-07 0)
(5.5736e-08 -3.81138e-07 0)
(9.29317e-08 -3.76536e-07 0)
(1.30167e-07 -3.6987e-07 0)
(1.67368e-07 -3.61282e-07 0)
(2.04559e-07 -3.51052e-07 0)
(2.41608e-07 -3.39557e-07 0)
(2.7845e-07 -3.27045e-07 0)
(3.14978e-07 -3.13781e-07 0)
(3.50975e-07 -3.00539e-07 0)
(1.83536e-08 -3.92296e-07 0)
(5.50055e-08 -3.90156e-07 0)
(9.17206e-08 -3.85862e-07 0)
(1.28455e-07 -3.79651e-07 0)
(1.65128e-07 -3.71662e-07 0)
(2.01804e-07 -3.62111e-07 0)
(2.38305e-07 -3.51387e-07 0)
(2.74602e-07 -3.39722e-07 0)
(3.10586e-07 -3.27339e-07 0)
(3.46068e-07 -3.14922e-07 0)
(1.80993e-08 -4.01267e-07 0)
(5.43307e-08 -3.99289e-07 0)
(9.0578e-08 -3.95283e-07 0)
(1.26853e-07 -3.89486e-07 0)
(1.63034e-07 -3.82045e-07 0)
(1.99233e-07 -3.7313e-07 0)
(2.35254e-07 -3.63121e-07 0)
(2.7107e-07 -3.52241e-07 0)
(3.06584e-07 -3.40681e-07 0)
(3.4162e-07 -3.29042e-07 0)
(1.78754e-08 -4.10359e-07 0)
(5.37102e-08 -4.08533e-07 0)
(8.94941e-08 -4.04797e-07 0)
(1.25339e-07 -3.9938e-07 0)
(1.61073e-07 -3.92441e-07 0)
(1.96821e-07 -3.84123e-07 0)
(2.32412e-07 -3.7478e-07 0)
(2.67801e-07 -3.64628e-07 0)
(3.02906e-07 -3.53835e-07 0)
(3.37577e-07 -3.4293e-07 0)
(1.76789e-08 -4.19577e-07 0)
(5.31093e-08 -4.17884e-07 0)
(8.84449e-08 -4.14403e-07 0)
(1.23874e-07 -4.09336e-07 0)
(1.59202e-07 -4.02861e-07 0)
(1.94527e-07 -3.95102e-07 0)
(2.29726e-07 -3.86379e-07 0)
(2.64739e-07 -3.76902e-07 0)
(2.99506e-07 -3.66827e-07 0)
(3.33903e-07 -3.56618e-07 0)
(1.7481e-08 -4.2892e-07 0)
(5.24879e-08 -4.2734e-07 0)
(8.74003e-08 -4.24098e-07 0)
(1.22418e-07 -4.1936e-07 0)
(1.57366e-07 -4.13313e-07 0)
(1.92301e-07 -4.06073e-07 0)
(2.27142e-07 -3.97929e-07 0)
(2.61836e-07 -3.89086e-07 0)
(2.96335e-07 -3.79697e-07 0)
(3.30523e-07 -3.70152e-07 0)
(1.72648e-08 -4.3838e-07 0)
(5.18363e-08 -4.36899e-07 0)
(8.63464e-08 -4.33882e-07 0)
(1.20957e-07 -4.29454e-07 0)
(1.55534e-07 -4.23808e-07 0)
(1.90106e-07 -4.17055e-07 0)
(2.24619e-07 -4.09455e-07 0)
(2.59044e-07 -4.01213e-07 0)
(2.93317e-07 -3.92476e-07 0)
(3.27333e-07 -3.8356e-07 0)
(1.70365e-08 -4.47948e-07 0)
(5.11712e-08 -4.46558e-07 0)
(8.52846e-08 -4.43754e-07 0)
(1.19483e-07 -4.39623e-07 0)
(1.53687e-07 -4.34349e-07 0)
(1.8791e-07 -4.28044e-07 0)
(2.22125e-07 -4.20962e-07 0)
(2.56322e-07 -4.13295e-07 0)
(2.90389e-07 -4.05175e-07 0)
(3.24289e-07 -3.96855e-07 0)
(1.68089e-08 -4.57611e-07 0)
(5.05014e-08 -4.56311e-07 0)
(8.41989e-08 -4.53706e-07 0)
(1.17974e-07 -4.49855e-07 0)
(1.51803e-07 -4.44936e-07 0)
(1.8569e-07 -4.39059e-07 0)
(2.19629e-07 -4.32473e-07 0)
(2.53593e-07 -4.25355e-07 0)
(2.87488e-07 -4.17817e-07 0)
(3.21283e-07 -4.10075e-07 0)
(1.658e-08 -4.67361e-07 0)
(4.98051e-08 -4.66146e-07 0)
(8.30563e-08 -4.63726e-07 0)
(1.16392e-07 -4.60142e-07 0)
(1.49831e-07 -4.55557e-07 0)
(1.83388e-07 -4.50091e-07 0)
(2.1706e-07 -4.43975e-07 0)
(2.50784e-07 -4.37378e-07 0)
(2.84559e-07 -4.30399e-07 0)
(3.18271e-07 -4.2321e-07 0)
(1.63361e-08 -4.77176e-07 0)
(4.905e-08 -4.76045e-07 0)
(8.18175e-08 -4.73797e-07 0)
(1.14708e-07 -4.70469e-07 0)
(1.4775e-07 -4.66217e-07 0)
(1.80974e-07 -4.61153e-07 0)
(2.14368e-07 -4.55488e-07 0)
(2.47893e-07 -4.49391e-07 0)
(2.81513e-07 -4.42962e-07 0)
(3.15189e-07 -4.3632e-07 0)
(1.60694e-08 -4.87029e-07 0)
(4.82383e-08 -4.8598e-07 0)
(8.04846e-08 -4.83907e-07 0)
(1.129e-07 -4.80835e-07 0)
(1.45538e-07 -4.76901e-07 0)
(1.78435e-07 -4.72232e-07 0)
(2.1155e-07 -4.67013e-07 0)
(2.44935e-07 -4.61399e-07 0)
(2.78433e-07 -4.55495e-07 0)
(3.12133e-07 -4.49379e-07 0)
)


// ************************************************************************* //
