/*--------------------------------*- C++ -*----------------------------------*\
| =========                 |                                                 |
| \\      /  F ield         | foam-extend: Open Source CFD                    |
|  \\    /   O peration     | Version:     4.1                                |
|   \\  /    A nd           | Web:         http://www.foam-extend.org         |
|    \\/     M anipulation  |                                                 |
\*---------------------------------------------------------------------------*/
FoamFile
{
    version     2.0;
    format      ascii;
    class       volScalarField;
    location    "4";
    object      epsilonEq;
}
// * * * * * * * * * * * * * * * * * * * * * * * * * * * * * * * * * * * * * //

dimensions      [0 0 0 0 0 0 0];

internalField   nonuniform List<scalar> 
100000
(
2.81056e-05
2.66912e-05
1.43941e-05
1.0653e-05
1.04049e-05
1.02029e-05
9.92319e-06
9.6583e-06
9.4069e-06
9.16737e-06
8.93995e-06
8.72392e-06
8.52161e-06
8.34402e-06
8.19785e-06
8.02349e-06
7.84182e-06
7.66951e-06
7.50582e-06
7.35086e-06
7.20301e-06
7.06303e-06
6.9294e-06
6.72742e-06
6.49893e-06
6.28003e-06
6.07027e-06
5.86961e-06
5.67794e-06
5.49479e-06
5.3194e-06
5.15175e-06
4.99355e-06
4.84299e-06
4.69949e-06
4.50003e-06
4.24534e-06
4.06547e-06
3.9587e-06
3.86047e-06
3.77074e-06
3.68932e-06
3.61598e-06
3.55081e-06
3.49375e-06
3.44454e-06
3.40287e-06
3.36836e-06
3.34035e-06
3.31865e-06
3.30269e-06
3.2925e-06
2.81358e-06
2.73857e-06
2.7543e-06
2.75773e-06
2.76088e-06
2.76378e-06
2.76639e-06
2.76877e-06
2.77088e-06
2.77276e-06
2.77445e-06
2.77595e-06
2.77727e-06
2.77838e-06
2.7793e-06
2.78002e-06
2.78055e-06
2.78088e-06
2.78108e-06
2.78115e-06
2.78109e-06
2.78098e-06
2.7807e-06
2.78034e-06
2.77987e-06
2.77925e-06
2.77859e-06
2.7779e-06
2.77716e-06
2.77647e-06
2.77578e-06
2.77509e-06
2.77444e-06
2.7738e-06
2.77321e-06
2.77274e-06
2.7724e-06
2.77232e-06
2.77254e-06
2.77313e-06
2.77422e-06
2.77588e-06
2.77837e-06
2.78127e-06
2.79884e-06
2.92995e-06
3.07221e-06
3.59489e-06
3.29883e-05
3.91754e-05
3.36107e-05
2.41206e-05
1.41852e-05
9.53868e-06
9.83741e-06
9.70423e-06
9.44922e-06
9.20636e-06
8.97817e-06
8.76175e-06
8.55589e-06
8.24831e-06
7.92029e-06
7.65151e-06
7.37806e-06
7.11119e-06
6.85758e-06
6.61812e-06
6.39036e-06
6.17427e-06
5.85518e-06
5.49594e-06
5.26418e-06
5.09839e-06
4.94534e-06
4.80549e-06
4.67852e-06
4.56384e-06
4.46089e-06
4.3688e-06
4.38403e-06
4.21733e-06
4.1581e-06
4.10966e-06
4.0539e-06
3.98535e-06
3.92041e-06
3.85844e-06
3.7995e-06
3.74352e-06
3.69039e-06
3.63987e-06
3.59183e-06
3.54638e-06
3.50318e-06
3.46205e-06
3.4223e-06
3.38459e-06
3.34837e-06
3.30566e-06
2.81569e-06
2.75877e-06
2.76239e-06
2.76573e-06
2.76877e-06
2.77157e-06
2.77409e-06
2.77634e-06
2.77832e-06
2.7801e-06
2.78172e-06
2.78316e-06
2.7844e-06
2.78542e-06
2.78624e-06
2.78685e-06
2.78725e-06
2.78747e-06
2.78756e-06
2.78754e-06
2.78742e-06
2.78718e-06
2.78681e-06
2.78636e-06
2.78573e-06
2.78498e-06
2.78419e-06
2.78333e-06
2.78249e-06
2.78165e-06
2.78078e-06
2.77992e-06
2.77905e-06
2.77817e-06
2.77729e-06
2.77643e-06
2.77565e-06
2.77501e-06
2.77447e-06
2.77402e-06
2.77356e-06
2.82429e-06
2.95327e-06
3.12357e-06
3.4783e-06
3.83425e-06
3.99066e-06
4.25497e-06
3.61781e-05
4.14195e-05
3.86691e-05
3.70457e-05
3.27839e-05
2.7479e-05
1.94474e-05
1.22039e-05
9.01326e-06
8.5407e-06
8.35132e-06
8.00419e-06
7.50303e-06
6.93974e-06
6.57837e-06
6.36582e-06
6.30931e-06
6.2295e-06
6.04329e-06
5.87488e-06
5.72264e-06
5.58667e-06
5.46648e-06
5.3386e-06
5.20788e-06
5.08393e-06
4.96586e-06
4.8539e-06
4.74843e-06
4.6487e-06
4.55376e-06
4.46311e-06
4.37447e-06
4.28978e-06
4.21076e-06
4.13507e-06
4.06332e-06
3.99533e-06
3.93094e-06
3.86959e-06
3.8114e-06
3.75619e-06
3.70345e-06
3.65315e-06
3.60546e-06
3.56056e-06
3.5176e-06
3.47683e-06
3.43755e-06
3.40019e-06
3.36441e-06
3.25406e-06
2.82504e-06
2.76642e-06
2.76992e-06
2.77315e-06
2.7761e-06
2.77878e-06
2.78118e-06
2.78332e-06
2.78522e-06
2.78692e-06
2.78844e-06
2.78977e-06
2.7909e-06
2.79182e-06
2.79253e-06
2.79303e-06
2.79332e-06
2.79342e-06
2.79341e-06
2.79327e-06
2.79302e-06
2.79264e-06
2.79214e-06
2.79153e-06
2.79076e-06
2.78989e-06
2.78895e-06
2.78795e-06
2.78691e-06
2.78581e-06
2.78469e-06
2.78351e-06
2.78229e-06
2.78107e-06
2.77972e-06
2.7783e-06
2.77682e-06
2.77524e-06
2.87296e-06
3.00791e-06
3.23515e-06
3.59476e-06
3.89074e-06
4.07434e-06
4.23465e-06
4.17625e-06
4.13554e-06
4.18527e-06
3.7651e-05
4.48364e-05
4.2591e-05
3.96933e-05
3.77494e-05
3.74022e-05
3.68782e-05
3.26485e-05
2.9377e-05
2.35511e-05
1.73223e-05
1.37896e-05
1.03892e-05
6.57764e-06
6.37642e-06
6.1867e-06
6.02062e-06
6.05374e-06
6.08384e-06
5.92549e-06
5.76788e-06
5.61724e-06
5.47234e-06
5.33502e-06
5.20542e-06
5.08326e-06
4.9669e-06
4.85591e-06
4.75078e-06
4.65125e-06
4.55681e-06
4.46685e-06
4.38044e-06
4.29728e-06
4.21854e-06
4.14369e-06
4.07249e-06
4.00485e-06
3.94086e-06
3.88003e-06
3.82226e-06
3.76748e-06
3.71524e-06
3.66555e-06
3.61828e-06
3.57398e-06
3.5315e-06
3.49116e-06
3.45246e-06
3.41531e-06
3.37992e-06
3.21487e-06
2.80934e-06
2.77354e-06
2.77692e-06
2.78005e-06
2.78289e-06
2.78545e-06
2.78774e-06
2.78978e-06
2.79158e-06
2.79317e-06
2.79457e-06
2.79578e-06
2.79679e-06
2.79762e-06
2.7982e-06
2.79858e-06
2.79875e-06
2.79875e-06
2.79862e-06
2.79833e-06
2.79793e-06
2.79742e-06
2.79677e-06
2.79599e-06
2.79507e-06
2.794e-06
2.79287e-06
2.79168e-06
2.79042e-06
2.789e-06
2.78753e-06
2.78592e-06
2.78441e-06
2.78286e-06
2.81644e-06
2.93625e-06
3.0801e-06
3.37443e-06
3.74162e-06
3.78681e-06
3.72575e-06
3.58592e-06
3.38364e-06
3.22322e-06
3.11309e-06
3.04153e-06
3.05496e-06
3.64415e-06
3.74176e-05
4.44174e-05
4.37365e-05
4.35353e-05
4.24556e-05
4.1446e-05
4.048e-05
3.95166e-05
3.9007e-05
3.98801e-05
3.62402e-05
3.27193e-05
3.11096e-05
2.61911e-05
2.04208e-05
1.75228e-05
1.47483e-05
1.02033e-05
6.93706e-06
5.84605e-06
5.75831e-06
5.60946e-06
5.46718e-06
5.33158e-06
5.20265e-06
5.08092e-06
4.9657e-06
4.8562e-06
4.75226e-06
4.65344e-06
4.55946e-06
4.47002e-06
4.38485e-06
4.30327e-06
4.22535e-06
4.15091e-06
4.08023e-06
4.01324e-06
3.94995e-06
3.89001e-06
3.83311e-06
3.77896e-06
3.72692e-06
3.67748e-06
3.63034e-06
3.5863e-06
3.54441e-06
3.50454e-06
3.46659e-06
3.42968e-06
3.39483e-06
3.18741e-06
2.7997e-06
2.78012e-06
2.78341e-06
2.78641e-06
2.78913e-06
2.79156e-06
2.79374e-06
2.79567e-06
2.79736e-06
2.79884e-06
2.80013e-06
2.80124e-06
2.80211e-06
2.8004e-06
2.79678e-06
2.79317e-06
2.71145e-06
2.65163e-06
2.64072e-06
2.67961e-06
2.76648e-06
2.89699e-06
3.0655e-06
3.26606e-06
3.49559e-06
3.74798e-06
4.0184e-06
4.3027e-06
4.59852e-06
4.90323e-06
5.2153e-06
5.53263e-06
5.71825e-06
5.81734e-06
5.98585e-06
6.14103e-06
6.21933e-06
6.29832e-06
5.73614e-06
4.86945e-06
4.13734e-06
3.7127e-06
3.46398e-06
3.23586e-06
3.03412e-06
2.84929e-06
2.70716e-06
3.44377e-06
3.71906e-05
4.39146e-05
4.37291e-05
4.37228e-05
4.41567e-05
4.41423e-05
4.37669e-05
4.27618e-05
4.18216e-05
4.07036e-05
3.9634e-05
3.89024e-05
3.88218e-05
4.21731e-05
3.85249e-05
3.5536e-05
3.35688e-05
3.18901e-05
2.89275e-05
2.52118e-05
2.2478e-05
2.06883e-05
1.77569e-05
1.42886e-05
1.115e-05
8.40112e-06
6.19664e-06
4.88281e-06
4.84931e-06
5.6993e-06
5.43562e-06
5.20914e-06
5.01535e-06
4.85049e-06
4.71088e-06
4.59347e-06
4.49606e-06
4.41718e-06
4.35607e-06
4.31596e-06
4.30124e-06
4.30296e-06
4.32121e-06
4.3564e-06
4.40949e-06
4.48105e-06
4.57082e-06
4.67899e-06
4.8046e-06
4.94835e-06
5.10819e-06
5.15751e-06
4.84e-06
5.05256e-06
5.27917e-06
5.51541e-06
5.76052e-06
6.01404e-06
6.27513e-06
6.54322e-06
6.81756e-06
7.09752e-06
7.38288e-06
7.67267e-06
7.96611e-06
8.26282e-06
8.56341e-06
8.18853e-06
7.11081e-06
6.06028e-06
5.04541e-06
4.1003e-06
3.28696e-06
2.72646e-06
2.58748e-06
2.78183e-06
3.10401e-06
3.52545e-06
4.01515e-06
4.54495e-06
5.10256e-06
5.68201e-06
6.28492e-06
6.92344e-06
7.59131e-06
8.37528e-06
9.05982e-06
9.54941e-06
1.00338e-05
1.06484e-05
1.1569e-05
1.24523e-05
1.31385e-05
1.3723e-05
1.44288e-05
1.5195e-05
1.59478e-05
1.67081e-05
1.74422e-05
1.93175e-05
3.69843e-05
4.3874e-05
4.39455e-05
4.38393e-05
4.38441e-05
4.38642e-05
4.3867e-05
4.38587e-05
4.38455e-05
4.38269e-05
4.31352e-05
4.2377e-05
4.16693e-05
4.09986e-05
4.02357e-05
3.95123e-05
3.907e-05
4.0961e-05
4.27221e-05
4.321e-05
4.07187e-05
3.87973e-05
3.72769e-05
3.55584e-05
3.31928e-05
3.09851e-05
2.89037e-05
2.69432e-05
2.49956e-05
2.24729e-05
2.03809e-05
1.88839e-05
1.74155e-05
1.59541e-05
1.45875e-05
1.33105e-05
1.21214e-05
1.10155e-05
9.994e-06
9.05769e-06
8.19684e-06
7.35647e-06
6.62088e-06
5.98919e-06
5.45667e-06
4.9996e-06
4.59487e-06
4.26978e-06
4.0261e-06
3.85918e-06
3.76301e-06
3.25708e-06
3.16593e-06
3.46467e-06
3.90648e-06
4.39652e-06
4.92094e-06
5.47139e-06
6.04077e-06
6.6244e-06
7.21904e-06
7.82179e-06
8.51065e-06
9.24116e-06
9.97776e-06
1.07252e-05
1.14786e-05
1.24562e-05
1.36992e-05
1.47847e-05
1.58746e-05
1.69675e-05
1.80618e-05
1.91562e-05
2.01673e-05
2.11705e-05
2.22483e-05
2.33448e-05
2.44374e-05
2.3923e-05
2.66102e-05
2.76923e-05
2.88168e-05
2.99422e-05
2.92096e-05
3.12313e-05
3.25837e-05
3.33976e-05
3.42049e-05
3.50056e-05
3.49181e-05
3.44531e-05
3.39807e-05
3.37939e-05
3.38131e-05
3.37981e-05
3.37558e-05
3.35411e-05
3.33241e-05
3.30662e-05
3.76937e-05
4.3848e-05
4.38767e-05
4.3497e-05
4.35379e-05
4.3583e-05
4.36217e-05
4.36415e-05
4.36585e-05
4.36596e-05
4.36583e-05
4.36411e-05
4.36141e-05
4.35826e-05
4.3539e-05
4.30275e-05
4.24812e-05
4.19642e-05
4.14739e-05
4.10095e-05
4.05674e-05
4.01471e-05
4.10074e-05
4.27062e-05
4.4276e-05
4.55267e-05
4.6097e-05
4.65977e-05
4.70344e-05
4.71197e-05
4.47998e-05
4.26564e-05
4.0685e-05
3.8851e-05
3.71443e-05
3.55709e-05
3.41248e-05
3.27976e-05
3.15834e-05
3.04833e-05
2.95104e-05
2.86246e-05
2.78099e-05
2.70775e-05
2.64284e-05
2.58631e-05
2.53665e-05
2.49262e-05
2.45457e-05
2.42235e-05
2.38838e-05
2.4874e-05
2.61359e-05
2.70088e-05
2.78986e-05
2.88045e-05
2.97235e-05
3.06554e-05
3.1599e-05
3.25524e-05
3.35144e-05
3.4491e-05
3.5478e-05
3.64627e-05
3.74485e-05
3.84374e-05
3.9103e-05
3.90856e-05
3.83097e-05
3.75382e-05
3.67711e-05
3.60085e-05
3.52505e-05
3.44974e-05
3.37489e-05
3.33461e-05
3.30654e-05
3.2792e-05
3.25224e-05
3.22626e-05
3.2008e-05
3.17732e-05
3.1568e-05
3.13203e-05
3.10613e-05
3.06938e-05
3.03238e-05
2.99574e-05
2.95966e-05
2.924e-05
2.88886e-05
2.85419e-05
2.82005e-05
2.79213e-05
2.76468e-05
2.73723e-05
2.70858e-05
2.66905e-05
2.62434e-05
2.53616e-05
3.86627e-05
4.34863e-05
4.34085e-05
4.31507e-05
4.3233e-05
4.33017e-05
4.33754e-05
4.34217e-05
4.34638e-05
4.34916e-05
4.35094e-05
4.35137e-05
4.35056e-05
4.34854e-05
4.34598e-05
4.3422e-05
4.33712e-05
4.33104e-05
4.32399e-05
4.31618e-05
4.30746e-05
4.29786e-05
4.28745e-05
4.27676e-05
4.32093e-05
4.37045e-05
4.41598e-05
4.44185e-05
4.40836e-05
4.36142e-05
4.31687e-05
4.27154e-05
4.23505e-05
4.20894e-05
4.18417e-05
4.16072e-05
4.13847e-05
4.11743e-05
4.09739e-05
4.07843e-05
4.06044e-05
4.04913e-05
4.03566e-05
4.0165e-05
3.94765e-05
3.88054e-05
3.81941e-05
3.76023e-05
3.70279e-05
3.64731e-05
3.58533e-05
3.69059e-05
3.64435e-05
3.5959e-05
3.54884e-05
3.50316e-05
3.45892e-05
3.41582e-05
3.374e-05
3.33338e-05
3.29388e-05
3.25553e-05
3.2099e-05
3.16156e-05
3.11408e-05
3.06376e-05
3.01464e-05
2.96942e-05
2.925e-05
2.88134e-05
2.83843e-05
2.79624e-05
2.75475e-05
2.71396e-05
2.67384e-05
2.63438e-05
2.59555e-05
2.55734e-05
2.51975e-05
2.48269e-05
2.44651e-05
2.41434e-05
2.38018e-05
2.34518e-05
2.31063e-05
2.27687e-05
2.24352e-05
2.2105e-05
2.17797e-05
2.1459e-05
2.11436e-05
2.08334e-05
2.05288e-05
2.02301e-05
1.99384e-05
1.96164e-05
1.92643e-05
1.90671e-05
1.88616e-05
1.87197e-05
3.84463e-05
4.2936e-05
4.29455e-05
4.28067e-05
4.29305e-05
4.30267e-05
4.31276e-05
4.32039e-05
4.32684e-05
4.33183e-05
4.33559e-05
4.33833e-05
4.33913e-05
4.33894e-05
4.33738e-05
4.33507e-05
4.33141e-05
4.32651e-05
4.32056e-05
4.31372e-05
4.30596e-05
4.29731e-05
4.28777e-05
4.27737e-05
4.26626e-05
4.26481e-05
4.32201e-05
4.37582e-05
4.34806e-05
4.31109e-05
4.23322e-05
4.14812e-05
4.06468e-05
3.98277e-05
3.90228e-05
3.8234e-05
3.74602e-05
3.67027e-05
3.59599e-05
3.52321e-05
3.4519e-05
3.38188e-05
3.31379e-05
3.25374e-05
3.19524e-05
3.13012e-05
3.06625e-05
3.0038e-05
2.94241e-05
2.88215e-05
2.86892e-05
2.88084e-05
2.82601e-05
2.77221e-05
2.71958e-05
2.66767e-05
2.61728e-05
2.56786e-05
2.5189e-05
2.47114e-05
2.42417e-05
2.37818e-05
2.33303e-05
2.28876e-05
2.24533e-05
2.20271e-05
2.19329e-05
2.18405e-05
2.17483e-05
2.16564e-05
2.15648e-05
2.14736e-05
2.13828e-05
2.12924e-05
2.12025e-05
2.11131e-05
2.10241e-05
2.09357e-05
2.08477e-05
2.07598e-05
2.06776e-05
2.0632e-05
2.05486e-05
2.0462e-05
2.00079e-05
1.94244e-05
1.8848e-05
1.82785e-05
1.77157e-05
1.71595e-05
1.66102e-05
1.6068e-05
1.5533e-05
1.49203e-05
1.42282e-05
1.35309e-05
1.28744e-05
1.23199e-05
1.18747e-05
1.19751e-05
3.82304e-05
4.23928e-05
4.24883e-05
4.24656e-05
4.26235e-05
4.27546e-05
4.28805e-05
4.29843e-05
4.30749e-05
4.31445e-05
4.32017e-05
4.32446e-05
4.32752e-05
4.32867e-05
4.30221e-05
4.20779e-05
4.11488e-05
4.02348e-05
3.93353e-05
3.84513e-05
3.75831e-05
3.67308e-05
3.58933e-05
3.50699e-05
3.42603e-05
3.34647e-05
3.26999e-05
3.19744e-05
3.18094e-05
3.17708e-05
3.1742e-05
3.15537e-05
3.11124e-05
3.03227e-05
2.95482e-05
2.87894e-05
2.80458e-05
2.73186e-05
2.66083e-05
2.59134e-05
2.52356e-05
2.45709e-05
2.39211e-05
2.33159e-05
2.31888e-05
2.30646e-05
2.29396e-05
2.28175e-05
2.26956e-05
2.21306e-05
2.25663e-05
2.19354e-05
2.12826e-05
2.06302e-05
1.99793e-05
1.93302e-05
1.81474e-05
1.80389e-05
1.73987e-05
1.67624e-05
1.61308e-05
1.5504e-05
1.48824e-05
1.42664e-05
1.36565e-05
1.30536e-05
1.24576e-05
1.18694e-05
1.12891e-05
1.07174e-05
1.01544e-05
9.60115e-06
9.05828e-06
8.52659e-06
8.00763e-06
7.50276e-06
7.01352e-06
6.54206e-06
6.09086e-06
5.66288e-06
5.30124e-06
4.98584e-06
4.66179e-06
4.05311e-06
3.40371e-06
3.08725e-06
2.93216e-06
2.86231e-06
2.88075e-06
2.9832e-06
3.15893e-06
3.43651e-06
3.78057e-06
4.16166e-06
4.62758e-06
5.08078e-06
5.49463e-06
5.92256e-06
6.24407e-06
6.94934e-06
2.86053e-05
3.47661e-05
3.53727e-05
3.58421e-05
3.63807e-05
3.64259e-05
3.55311e-05
3.4585e-05
3.36012e-05
3.25801e-05
3.15268e-05
3.04441e-05
2.93412e-05
2.83048e-05
2.74929e-05
2.65868e-05
2.54095e-05
2.42236e-05
2.30301e-05
2.18326e-05
2.06335e-05
1.94359e-05
1.82428e-05
1.70568e-05
1.58804e-05
1.47159e-05
1.35439e-05
1.24391e-05
1.18766e-05
1.12885e-05
1.11339e-05
1.11664e-05
1.13972e-05
1.14558e-05
1.12549e-05
1.08548e-05
1.03384e-05
9.81891e-06
9.30212e-06
8.7872e-06
8.28005e-06
7.78186e-06
7.2939e-06
6.82215e-06
6.36832e-06
5.94316e-06
5.54932e-06
5.19535e-06
5.19939e-06
4.23528e-06
3.14017e-06
2.74802e-06
2.61531e-06
2.60352e-06
2.71405e-06
2.93207e-06
3.23742e-06
3.60659e-06
4.01784e-06
4.46171e-06
4.92608e-06
5.40609e-06
5.89625e-06
6.39313e-06
6.8944e-06
7.39787e-06
7.90205e-06
8.40591e-06
8.90882e-06
9.40983e-06
9.90875e-06
1.04052e-05
1.08987e-05
1.13891e-05
1.18759e-05
1.23589e-05
1.2838e-05
1.33128e-05
1.37835e-05
1.42507e-05
1.46963e-05
1.51545e-05
1.56079e-05
1.60565e-05
1.61318e-05
1.60715e-05
1.60118e-05
1.59526e-05
1.58939e-05
1.58993e-05
1.59936e-05
1.6077e-05
1.61663e-05
1.61725e-05
1.61062e-05
1.60404e-05
1.59747e-05
1.59098e-05
1.58367e-05
1.56682e-05
8.74409e-06
1.65215e-05
1.56605e-05
1.4932e-05
1.4642e-05
1.51893e-05
1.5455e-05
1.49931e-05
1.46141e-05
1.43379e-05
1.41691e-05
1.41112e-05
1.417e-05
1.43405e-05
1.44671e-05
1.42554e-05
1.4087e-05
1.39612e-05
1.38782e-05
1.38368e-05
1.38363e-05
1.38759e-05
1.39549e-05
1.40718e-05
1.4226e-05
1.4602e-05
1.51731e-05
1.54851e-05
1.57423e-05
1.60281e-05
1.63407e-05
1.6677e-05
1.68313e-05
1.66864e-05
1.668e-05
1.67676e-05
1.67699e-05
1.67344e-05
1.68855e-05
1.7197e-05
1.7526e-05
1.78697e-05
1.82284e-05
1.85984e-05
1.89806e-05
1.93726e-05
1.97726e-05
2.01801e-05
2.0593e-05
1.98278e-05
1.8754e-05
1.86596e-05
1.85688e-05
1.8479e-05
1.83899e-05
1.83015e-05
1.82143e-05
1.81273e-05
1.80419e-05
1.79572e-05
1.78734e-05
1.77904e-05
1.77086e-05
1.76275e-05
1.75474e-05
1.74683e-05
1.73901e-05
1.73127e-05
1.72363e-05
1.71609e-05
1.70864e-05
1.70127e-05
1.694e-05
1.68681e-05
1.6797e-05
1.67268e-05
1.66575e-05
1.65892e-05
1.65217e-05
1.64569e-05
1.63736e-05
1.63121e-05
1.62488e-05
1.61863e-05
1.61247e-05
1.60638e-05
1.60036e-05
1.59904e-05
1.60884e-05
1.61742e-05
1.62647e-05
1.6283e-05
1.62161e-05
1.61496e-05
1.60834e-05
1.60177e-05
1.59523e-05
1.58878e-05
1.58228e-05
1.57201e-05
2.08807e-05
2.65331e-05
2.785e-05
2.86959e-05
2.9568e-05
3.00985e-05
2.98119e-05
2.95359e-05
2.9268e-05
2.90114e-05
2.87611e-05
2.852e-05
2.82855e-05
2.80576e-05
2.7836e-05
2.76205e-05
2.74107e-05
2.7205e-05
2.70035e-05
2.68058e-05
2.66123e-05
2.64232e-05
2.62388e-05
2.60581e-05
2.59642e-05
2.61353e-05
2.60915e-05
2.59044e-05
2.57215e-05
2.5542e-05
2.53661e-05
2.51934e-05
2.50238e-05
2.4858e-05
2.4694e-05
2.43098e-05
2.38036e-05
2.33689e-05
2.30004e-05
2.25884e-05
2.21427e-05
2.17254e-05
2.15818e-05
2.14415e-05
2.13033e-05
2.11689e-05
2.10364e-05
2.09068e-05
2.0654e-05
1.91336e-05
1.87464e-05
1.86547e-05
1.85635e-05
1.84733e-05
1.83841e-05
1.82955e-05
1.82078e-05
1.81213e-05
1.80354e-05
1.79503e-05
1.78666e-05
1.77835e-05
1.77014e-05
1.76204e-05
1.75401e-05
1.74608e-05
1.73824e-05
1.7305e-05
1.72284e-05
1.71528e-05
1.70781e-05
1.70042e-05
1.69313e-05
1.68592e-05
1.6788e-05
1.67175e-05
1.66479e-05
1.65791e-05
1.65112e-05
1.64467e-05
1.63661e-05
1.63033e-05
1.62396e-05
1.61766e-05
1.61143e-05
1.6078e-05
1.61799e-05
1.62683e-05
1.63601e-05
1.63938e-05
1.63261e-05
1.62589e-05
1.6192e-05
1.61255e-05
1.60595e-05
1.59939e-05
1.59288e-05
1.58645e-05
1.58e-05
1.57214e-05
2.64693e-05
3.12202e-05
3.12426e-05
3.08968e-05
3.05722e-05
3.02587e-05
2.99606e-05
2.96719e-05
2.93943e-05
2.9126e-05
2.88674e-05
2.86166e-05
2.83738e-05
2.81377e-05
2.79087e-05
2.76855e-05
2.7468e-05
2.72555e-05
2.70484e-05
2.68459e-05
2.6648e-05
2.64543e-05
2.62651e-05
2.60962e-05
2.62534e-05
2.62942e-05
2.60994e-05
2.59084e-05
2.57218e-05
2.55389e-05
2.53596e-05
2.51839e-05
2.50111e-05
2.48422e-05
2.46758e-05
2.45127e-05
2.43532e-05
2.41949e-05
2.38707e-05
2.3408e-05
2.29663e-05
2.26214e-05
2.22857e-05
2.18762e-05
2.14789e-05
2.11245e-05
2.09898e-05
2.08584e-05
2.04566e-05
1.89039e-05
1.87382e-05
1.8646e-05
1.85549e-05
1.84642e-05
1.83747e-05
1.82862e-05
1.81982e-05
1.81113e-05
1.80256e-05
1.79404e-05
1.78562e-05
1.77731e-05
1.76909e-05
1.76095e-05
1.75292e-05
1.74498e-05
1.73711e-05
1.72935e-05
1.72168e-05
1.71411e-05
1.70663e-05
1.69923e-05
1.69192e-05
1.68468e-05
1.67753e-05
1.67047e-05
1.66349e-05
1.6566e-05
1.64978e-05
1.64336e-05
1.63555e-05
1.62913e-05
1.61425e-05
1.59595e-05
1.59277e-05
1.58823e-05
1.58401e-05
1.576e-05
1.556e-05
1.53619e-05
1.51658e-05
1.49717e-05
1.47795e-05
1.45894e-05
1.44012e-05
1.4215e-05
1.40312e-05
1.38485e-05
1.36696e-05
1.34224e-05
3.05829e-05
3.17692e-05
3.14429e-05
3.10801e-05
3.07428e-05
3.04158e-05
3.01048e-05
2.98053e-05
2.95161e-05
2.92378e-05
2.89687e-05
2.87097e-05
2.84592e-05
2.82155e-05
2.79774e-05
2.77464e-05
2.75223e-05
2.73037e-05
2.70905e-05
2.68822e-05
2.6679e-05
2.64799e-05
2.62853e-05
2.63632e-05
2.64938e-05
2.63006e-05
2.6102e-05
2.59074e-05
2.57171e-05
2.55314e-05
2.53493e-05
2.51708e-05
2.49949e-05
2.48225e-05
2.4654e-05
2.44876e-05
2.43263e-05
2.41659e-05
2.40096e-05
2.38559e-05
2.37042e-05
2.35415e-05
2.31173e-05
2.2707e-05
2.23172e-05
2.20039e-05
2.1693e-05
2.13234e-05
2.04752e-05
1.88642e-05
1.87267e-05
1.8634e-05
1.85424e-05
1.84519e-05
1.83619e-05
1.8273e-05
1.81852e-05
1.80981e-05
1.80119e-05
1.79269e-05
1.78426e-05
1.77302e-05
1.75214e-05
1.73141e-05
1.71083e-05
1.69043e-05
1.67019e-05
1.65013e-05
1.63025e-05
1.61054e-05
1.59101e-05
1.57165e-05
1.55247e-05
1.53345e-05
1.5146e-05
1.49593e-05
1.47743e-05
1.45912e-05
1.44098e-05
1.42283e-05
1.40484e-05
1.3883e-05
1.38525e-05
1.38175e-05
1.37787e-05
1.37308e-05
1.35396e-05
1.36518e-05
1.40067e-05
1.43618e-05
1.47166e-05
1.50838e-05
1.57229e-05
1.63602e-05
1.6995e-05
1.76293e-05
1.82573e-05
1.88899e-05
1.94839e-05
1.9451e-05
4.60312e-05
4.43664e-05
4.12044e-05
3.79803e-05
3.51826e-05
3.26098e-05
3.02447e-05
2.99336e-05
2.96335e-05
2.93457e-05
2.90669e-05
2.87985e-05
2.8538e-05
2.82867e-05
2.80428e-05
2.78052e-05
2.75732e-05
2.73469e-05
2.71271e-05
2.69133e-05
2.67051e-05
2.65012e-05
2.64702e-05
2.66562e-05
2.65117e-05
2.63044e-05
2.61017e-05
2.59034e-05
2.57096e-05
2.55207e-05
2.53354e-05
2.51535e-05
2.49756e-05
2.47999e-05
2.46291e-05
2.44597e-05
2.42617e-05
2.40084e-05
2.37554e-05
2.35047e-05
2.32545e-05
2.30067e-05
2.27595e-05
2.25146e-05
2.22705e-05
2.19965e-05
2.15144e-05
2.10116e-05
1.87338e-05
1.76762e-05
1.74299e-05
1.71852e-05
1.6942e-05
1.67014e-05
1.64633e-05
1.62448e-05
1.60398e-05
1.58363e-05
1.56341e-05
1.54334e-05
1.52349e-05
1.50414e-05
1.48506e-05
1.46574e-05
1.44658e-05
1.42757e-05
1.40874e-05
1.39009e-05
1.37161e-05
1.35329e-05
1.33514e-05
1.31717e-05
1.3413e-05
1.38157e-05
1.42205e-05
1.4627e-05
1.50351e-05
1.54443e-05
1.59341e-05
1.65833e-05
1.72939e-05
1.808e-05
1.89481e-05
1.98597e-05
2.06157e-05
2.1369e-05
2.15551e-05
2.15861e-05
2.16327e-05
2.16747e-05
2.17168e-05
2.16342e-05
2.15616e-05
2.14686e-05
2.1378e-05
2.1297e-05
2.12183e-05
2.10415e-05
2.07959e-05
2.05063e-05
5.20779e-05
5.30412e-05
4.96103e-05
4.63305e-05
4.31025e-05
4.00428e-05
3.78685e-05
3.60578e-05
3.42415e-05
3.25489e-05
3.09715e-05
2.95027e-05
2.81364e-05
2.68673e-05
2.63788e-05
2.61204e-05
2.58633e-05
2.56078e-05
2.53538e-05
2.51005e-05
2.48482e-05
2.4653e-05
2.48085e-05
2.47237e-05
2.44521e-05
2.41824e-05
2.39145e-05
2.36481e-05
2.33835e-05
2.31208e-05
2.28602e-05
2.26001e-05
2.2343e-05
2.20857e-05
2.18311e-05
2.15654e-05
2.128e-05
2.10098e-05
2.07602e-05
2.05133e-05
2.0268e-05
2.00261e-05
1.97851e-05
1.95451e-05
1.93092e-05
1.90731e-05
1.88386e-05
1.75577e-05
1.5193e-05
1.49835e-05
1.47647e-05
1.45333e-05
1.43044e-05
1.40775e-05
1.38529e-05
1.37045e-05
1.40035e-05
1.43117e-05
1.46284e-05
1.49526e-05
1.52837e-05
1.56431e-05
1.61044e-05
1.66192e-05
1.73521e-05
1.80906e-05
1.88341e-05
1.95818e-05
2.03332e-05
2.1088e-05
2.18454e-05
2.25874e-05
2.32997e-05
2.33668e-05
2.34318e-05
2.3499e-05
2.35686e-05
2.35272e-05
2.35311e-05
2.36455e-05
2.37285e-05
2.37713e-05
2.36769e-05
2.35628e-05
2.34529e-05
2.33063e-05
2.30383e-05
2.25131e-05
2.17432e-05
2.09795e-05
2.02302e-05
1.95787e-05
1.89379e-05
1.83023e-05
1.76717e-05
1.70453e-05
1.64393e-05
1.58425e-05
1.52709e-05
1.5309e-05
3.73445e-05
4.20208e-05
4.49402e-05
4.64706e-05
4.77245e-05
4.79959e-05
4.76019e-05
4.52184e-05
4.30084e-05
4.07989e-05
3.87505e-05
3.68545e-05
3.50994e-05
3.37223e-05
3.25593e-05
3.12371e-05
2.99373e-05
2.88542e-05
2.79861e-05
2.71837e-05
2.64492e-05
2.60744e-05
2.56972e-05
2.50591e-05
2.44753e-05
2.39431e-05
2.34591e-05
2.30211e-05
2.2628e-05
2.22762e-05
2.1966e-05
2.16916e-05
2.14551e-05
2.12523e-05
2.10813e-05
2.0943e-05
2.0866e-05
2.0876e-05
2.09147e-05
2.09818e-05
2.10749e-05
2.11929e-05
2.13364e-05
2.15366e-05
2.18872e-05
2.22668e-05
2.25014e-05
2.07109e-05
2.05809e-05
2.11312e-05
2.16979e-05
2.22795e-05
2.28761e-05
2.34864e-05
2.41078e-05
2.47258e-05
2.53547e-05
2.59796e-05
2.59932e-05
2.59948e-05
2.60014e-05
2.60127e-05
2.59308e-05
2.58261e-05
2.57266e-05
2.56164e-05
2.551e-05
2.54066e-05
2.53043e-05
2.52053e-05
2.5108e-05
2.49959e-05
2.44279e-05
2.37024e-05
2.29026e-05
2.2107e-05
2.13372e-05
2.07156e-05
2.0005e-05
1.91459e-05
1.84032e-05
1.77357e-05
1.70682e-05
1.64039e-05
1.57435e-05
1.5103e-05
1.50087e-05
1.50571e-05
1.51081e-05
1.51578e-05
1.51944e-05
1.53441e-05
1.55159e-05
1.56993e-05
1.58807e-05
1.60527e-05
1.62223e-05
1.64888e-05
1.67828e-05
1.70977e-05
2.7713e-05
3.43866e-05
3.60653e-05
3.76773e-05
3.90097e-05
4.00409e-05
4.12878e-05
4.25476e-05
4.30305e-05
4.37331e-05
4.43311e-05
4.47175e-05
4.5042e-05
4.5308e-05
4.47462e-05
4.36343e-05
4.24437e-05
4.13897e-05
4.04046e-05
3.94792e-05
3.88112e-05
3.8373e-05
3.7655e-05
3.7e-05
3.64212e-05
3.59144e-05
3.54759e-05
3.51015e-05
3.47903e-05
3.45356e-05
3.4338e-05
3.41916e-05
3.40942e-05
3.40452e-05
3.40381e-05
3.40743e-05
3.415e-05
3.41078e-05
3.38716e-05
3.36509e-05
3.34462e-05
3.32524e-05
3.3082e-05
3.2955e-05
3.27523e-05
3.25063e-05
3.07448e-05
2.89921e-05
2.88202e-05
2.8659e-05
2.85038e-05
2.83541e-05
2.82093e-05
2.80698e-05
2.79353e-05
2.77303e-05
2.70791e-05
2.63803e-05
2.56949e-05
2.49861e-05
2.42027e-05
2.34279e-05
2.26573e-05
2.18379e-05
2.0805e-05
1.97734e-05
1.87437e-05
1.77166e-05
1.66928e-05
1.59074e-05
1.51866e-05
1.44681e-05
1.38013e-05
1.37877e-05
1.37723e-05
1.38719e-05
1.3982e-05
1.42078e-05
1.44098e-05
1.44971e-05
1.46456e-05
1.48424e-05
1.50412e-05
1.52316e-05
1.54186e-05
1.56036e-05
1.59396e-05
1.62425e-05
1.6542e-05
1.68382e-05
1.71311e-05
1.73203e-05
1.72185e-05
1.71166e-05
1.70149e-05
1.69129e-05
1.68117e-05
1.67097e-05
1.66068e-05
1.64734e-05
2.28373e-05
2.84895e-05
2.86004e-05
2.90797e-05
2.9401e-05
3.04373e-05
3.17788e-05
3.2966e-05
3.41016e-05
3.49872e-05
3.56302e-05
3.62131e-05
3.67674e-05
3.72458e-05
3.75515e-05
3.77552e-05
3.80059e-05
3.81286e-05
3.80637e-05
3.80785e-05
3.83823e-05
3.8396e-05
3.82591e-05
3.80862e-05
3.78797e-05
3.76407e-05
3.73724e-05
3.70738e-05
3.67504e-05
3.6401e-05
3.60277e-05
3.56341e-05
3.52173e-05
3.47825e-05
3.43295e-05
3.38601e-05
3.33365e-05
3.27451e-05
3.21754e-05
3.16721e-05
3.11648e-05
3.05782e-05
2.98792e-05
2.90651e-05
2.81042e-05
2.69167e-05
2.3866e-05
2.28696e-05
2.19721e-05
2.10645e-05
2.0148e-05
1.92241e-05
1.82934e-05
1.73564e-05
1.64147e-05
1.54694e-05
1.45211e-05
1.37624e-05
1.3719e-05
1.36968e-05
1.36742e-05
1.36471e-05
1.37188e-05
1.38288e-05
1.39388e-05
1.40488e-05
1.41591e-05
1.42698e-05
1.43639e-05
1.44612e-05
1.4572e-05
1.46982e-05
1.48241e-05
1.50611e-05
1.54599e-05
1.58557e-05
1.62313e-05
1.64591e-05
1.66856e-05
1.69106e-05
1.70131e-05
1.69448e-05
1.6877e-05
1.68098e-05
1.67396e-05
1.66683e-05
1.65977e-05
1.65277e-05
1.64584e-05
1.63897e-05
1.63217e-05
1.62544e-05
1.61878e-05
1.61219e-05
1.60566e-05
1.59919e-05
1.59278e-05
1.58644e-05
1.58016e-05
1.57244e-05
1.88604e-05
2.56289e-05
2.56334e-05
2.55636e-05
2.55288e-05
2.5372e-05
2.51955e-05
2.51093e-05
2.49853e-05
2.46552e-05
2.44192e-05
2.4297e-05
2.41607e-05
2.40103e-05
2.38436e-05
2.39648e-05
2.42086e-05
2.43835e-05
2.45873e-05
2.50722e-05
2.53169e-05
2.52198e-05
2.50653e-05
2.48558e-05
2.45951e-05
2.42835e-05
2.39255e-05
2.35213e-05
2.30743e-05
2.25888e-05
2.20632e-05
2.15025e-05
2.0908e-05
2.0282e-05
1.96272e-05
1.8946e-05
1.82412e-05
1.76595e-05
1.72868e-05
1.69135e-05
1.64932e-05
1.6031e-05
1.55735e-05
1.515e-05
1.49182e-05
1.43627e-05
1.38385e-05
1.39312e-05
1.40261e-05
1.41224e-05
1.42196e-05
1.43172e-05
1.44158e-05
1.45151e-05
1.46149e-05
1.47149e-05
1.4809e-05
1.49136e-05
1.50283e-05
1.51794e-05
1.54042e-05
1.56288e-05
1.5853e-05
1.60769e-05
1.63003e-05
1.65232e-05
1.67456e-05
1.69676e-05
1.71888e-05
1.71736e-05
1.70971e-05
1.70361e-05
1.71303e-05
1.72216e-05
1.73112e-05
1.72703e-05
1.71993e-05
1.7129e-05
1.70593e-05
1.69901e-05
1.69215e-05
1.68535e-05
1.6786e-05
1.67191e-05
1.66527e-05
1.65869e-05
1.65216e-05
1.64569e-05
1.63927e-05
1.6329e-05
1.62658e-05
1.62032e-05
1.61411e-05
1.60796e-05
1.60186e-05
1.59562e-05
1.58924e-05
1.58293e-05
1.57667e-05
1.569e-05
1.80415e-05
2.46396e-05
2.39932e-05
2.33006e-05
2.26626e-05
2.20497e-05
2.16052e-05
2.12257e-05
2.09082e-05
2.07021e-05
2.04979e-05
2.02928e-05
2.00833e-05
1.98694e-05
1.96489e-05
1.94228e-05
1.91896e-05
1.91731e-05
1.93774e-05
1.94429e-05
1.90991e-05
1.87586e-05
1.84214e-05
1.80867e-05
1.77555e-05
1.74258e-05
1.70979e-05
1.67731e-05
1.64492e-05
1.61285e-05
1.5927e-05
1.58531e-05
1.57848e-05
1.57222e-05
1.56652e-05
1.56112e-05
1.55633e-05
1.55199e-05
1.5478e-05
1.54097e-05
1.53396e-05
1.53372e-05
1.54347e-05
1.56259e-05
1.58958e-05
1.56391e-05
1.60521e-05
1.62214e-05
1.64289e-05
1.66369e-05
1.68457e-05
1.70551e-05
1.72647e-05
1.74747e-05
1.76851e-05
1.78955e-05
1.81057e-05
1.81231e-05
1.80364e-05
1.79506e-05
1.78656e-05
1.77815e-05
1.76981e-05
1.75498e-05
1.70758e-05
1.66165e-05
1.61712e-05
1.57391e-05
1.53199e-05
1.49132e-05
1.45262e-05
1.41533e-05
1.37941e-05
1.33662e-05
1.28615e-05
1.23704e-05
1.18925e-05
1.14276e-05
1.09752e-05
1.05352e-05
1.01073e-05
9.69113e-06
9.28657e-06
8.89323e-06
8.51438e-06
8.14784e-06
7.79173e-06
7.44601e-06
7.11056e-06
6.78532e-06
6.47015e-06
6.16502e-06
5.86974e-06
5.5844e-06
5.30938e-06
5.04374e-06
4.7905e-06
4.54245e-06
4.31257e-06
4.43318e-06
1.8125e-05
2.46691e-05
2.40197e-05
2.33235e-05
2.26826e-05
2.20689e-05
2.14839e-05
2.09279e-05
2.03991e-05
1.98943e-05
1.94124e-05
1.89544e-05
1.85171e-05
1.815e-05
1.79173e-05
1.77116e-05
1.79382e-05
1.82536e-05
1.83793e-05
1.82405e-05
1.81233e-05
1.80269e-05
1.79512e-05
1.78936e-05
1.78537e-05
1.78313e-05
1.78227e-05
1.78305e-05
1.78524e-05
1.79493e-05
1.81222e-05
1.82434e-05
1.83115e-05
1.83878e-05
1.84751e-05
1.85707e-05
1.8673e-05
1.87867e-05
1.89052e-05
1.90288e-05
1.91613e-05
1.92991e-05
1.94404e-05
1.83193e-05
1.6646e-05
1.4391e-05
1.31057e-05
1.22841e-05
1.15704e-05
1.08845e-05
1.02259e-05
9.59394e-06
8.98755e-06
8.40582e-06
7.84838e-06
7.31511e-06
6.8055e-06
6.31925e-06
5.85666e-06
5.41825e-06
5.00424e-06
4.6151e-06
4.25071e-06
3.94966e-06
3.73788e-06
3.47833e-06
3.25402e-06
3.06748e-06
2.92187e-06
2.81548e-06
2.74578e-06
2.71725e-06
2.74911e-06
2.85664e-06
3.02574e-06
3.24162e-06
3.49113e-06
3.76377e-06
4.05151e-06
4.34841e-06
4.65013e-06
4.95362e-06
5.2566e-06
5.55757e-06
5.85532e-06
6.14901e-06
6.43801e-06
6.72183e-06
7.00006e-06
7.27245e-06
7.53894e-06
7.79949e-06
8.05418e-06
8.30289e-06
8.54559e-06
8.78125e-06
9.00689e-06
9.23282e-06
9.44344e-06
9.67475e-06
1.93145e-05
2.56575e-05
2.51534e-05
2.46212e-05
2.41466e-05
2.3708e-05
2.3307e-05
2.29409e-05
2.26065e-05
2.23054e-05
2.20354e-05
2.1795e-05
2.16191e-05
2.15554e-05
2.14778e-05
2.1842e-05
2.22088e-05
2.21944e-05
2.20855e-05
2.19956e-05
2.19238e-05
2.18688e-05
2.18302e-05
2.18078e-05
2.1798e-05
2.18034e-05
2.18202e-05
2.18484e-05
2.18883e-05
2.19389e-05
2.18736e-05
2.16805e-05
2.14945e-05
2.13119e-05
2.11328e-05
2.08363e-05
1.84558e-05
1.62006e-05
1.40781e-05
1.2105e-05
1.0311e-05
8.7431e-06
6.32739e-06
3.81425e-06
3.00354e-06
3.3624e-06
3.82582e-06
4.42054e-06
4.95928e-06
5.50049e-06
6.03615e-06
6.56185e-06