/*--------------------------------*- C++ -*----------------------------------*\
| =========                 |                                                 |
| \\      /  F ield         | foam-extend: Open Source CFD                    |
|  \\    /   O peration     | Version:     4.1                                |
|   \\  /    A nd           | Web:         http://www.foam-extend.org         |
|    \\/     M anipulation  |                                                 |
\*---------------------------------------------------------------------------*/
FoamFile
{
    version     2.0;
    format      ascii;
    class       volScalarField;
    location    "4";
    object      sigmaEq;
}
// * * * * * * * * * * * * * * * * * * * * * * * * * * * * * * * * * * * * * //

dimensions      [1 -1 -2 0 0 0 0];

internalField   nonuniform List<scalar> 
100000
(
6.4859e+06
6.15951e+06
3.32172e+06
2.45839e+06
2.40113e+06
2.35451e+06
2.28997e+06
2.22884e+06
2.17082e+06
2.11555e+06
2.06306e+06
2.01321e+06
1.96653e+06
1.92554e+06
1.89181e+06
1.85158e+06
1.80965e+06
1.76989e+06
1.73211e+06
1.69635e+06
1.66223e+06
1.62993e+06
1.59909e+06
1.55248e+06
1.49975e+06
1.44924e+06
1.40083e+06
1.35453e+06
1.31029e+06
1.26803e+06
1.22755e+06
1.18887e+06
1.15236e+06
1.11761e+06
1.0845e+06
1.03847e+06
979694
938186
913547
890879
870170
851382
834456
819417
806249
794893
785278
777314
770849
765841
762158
759808
649288
631977
635608
636399
637127
637795
638398
638947
639434
639868
640258
640604
640908
641165
641377
641542
641666
641742
641788
641804
641791
641764
641701
641616
641508
641365
641214
641053
640883
640724
640564
640405
640256
640108
639971
639863
639785
639765
639816
639953
640205
640588
641162
641832
645886
676143
708973
829589
7.61268e+06
9.04048e+06
7.75631e+06
5.5663e+06
3.27351e+06
2.20123e+06
2.27017e+06
2.23944e+06
2.18059e+06
2.12454e+06
2.07189e+06
2.02194e+06
1.97444e+06
1.90346e+06
1.82776e+06
1.76573e+06
1.70263e+06
1.64104e+06
1.58252e+06
1.52726e+06
1.4747e+06
1.42483e+06
1.35119e+06
1.26829e+06
1.21481e+06
1.17655e+06
1.14123e+06
1.10896e+06
1.07966e+06
1.05319e+06
1.02944e+06
1.00818e+06
1.0117e+06
973230
959562
948383
935516
919697
904709
890409
876809
863890
851630
839970
828884
818395
808427
798934
789762
781059
772700
762845
649775
636639
637474
638246
638948
639594
640174
640693
641151
641562
641936
642267
642553
642789
642979
643119
643212
643263
643283
643277
643250
643195
643111
643006
642862
642688
642504
642308
642113
641919
641718
641519
641319
641116
640913
640714
640535
640387
640262
640159
640053
651759
681524
720823
802685
884828
920922
981915
8.3488e+06
9.55836e+06
8.92363e+06
8.54901e+06
7.56553e+06
6.34131e+06
4.48786e+06
2.81628e+06
2.07998e+06
1.97093e+06
1.92723e+06
1.84712e+06
1.73147e+06
1.60148e+06
1.51809e+06
1.46904e+06
1.456e+06
1.43758e+06
1.3946e+06
1.35574e+06
1.32061e+06
1.28923e+06
1.2615e+06
1.23199e+06
1.20182e+06
1.17321e+06
1.14597e+06
1.12013e+06
1.09579e+06
1.07278e+06
1.05087e+06
1.02995e+06
1.00949e+06
989950
971713
954248
937689
922000
907140
892982
879554
866813
854643
843035
832029
821668
811754
802345
793280
784660
776403
750936
651933
638404
639212
639959
640638
641257
641811
642305
642743
643135
643487
643793
644054
644267
644429
644546
644611
644636
644634
644600
644542
644456
644340
644198
644022
643820
643604
643374
643133
642880
642622
642348
642068
641786
641474
641147
640805
640440
662991
694134
746573
829559
897863
940232
977226
963751
954356
965831
8.68869e+06
1.03469e+07
9.82869e+06
9.15998e+06
8.7114e+06
8.63128e+06
8.51036e+06
7.53427e+06
6.77931e+06
5.43487e+06
3.99745e+06
3.18222e+06
2.39751e+06
1.51792e+06
1.47148e+06
1.4277e+06
1.38937e+06
1.39702e+06
1.40396e+06
1.36742e+06
1.33105e+06
1.29629e+06
1.26285e+06
1.23116e+06
1.20125e+06
1.17306e+06
1.14621e+06
1.12059e+06
1.09633e+06
1.07337e+06
1.05157e+06
1.03081e+06
1.01087e+06
991679
973510
956235
939806
924197
909430
895391
882060
869419
857363
845896
834988
824764
814961
805653
796721
788147
779983
741894
648308
640048
640829
641550
642206
642796
643324
643794
644210
644577
644901
645181
645414
645603
645738
645825
645866
645864
645836
645768
645676
645558
645408
645229
645016
644770
644508
644235
643942
643616
643276
642905
642556
642199
649948
677596
710792
778715
863451
873879
859789
827520
780839
743820
718406
701891
704991
840958
8.63484e+06
1.02502e+07
1.0093e+07
1.00466e+07
9.79745e+06
9.56446e+06
9.34154e+06
9.11922e+06
9.00161e+06
9.20311e+06
8.36313e+06
7.5506e+06
7.17914e+06
6.04411e+06
4.71249e+06
4.04371e+06
3.40345e+06
2.35461e+06
1.60086e+06
1.34909e+06
1.32884e+06
1.29449e+06
1.26166e+06
1.23036e+06
1.20061e+06
1.17252e+06
1.14593e+06
1.12066e+06
1.09667e+06
1.07387e+06
1.05218e+06
1.03154e+06
1.01189e+06
993062
975082
957902
941591
926133
911527
897694
884564
872069
860058
848649
837771
827607
817940
808741
799981
791465
783422
735556
646085
641566
642325
643018
643644
644205
644710
645155
645546
645886
646183
646439
646641
646247
645411
644577
625720
611915
609397
618372
638419
668536
707424
753706
806674
864919
927323
992931
1.0612e+06
1.13151e+06
1.20353e+06
1.27676e+06
1.3196e+06
1.34246e+06
1.38135e+06
1.41716e+06
1.43523e+06
1.45346e+06
1.32372e+06
1.12372e+06
954771
856777
799379
746736
700182
657529
624730
794716
8.58244e+06
1.01341e+07
1.00913e+07
1.00899e+07
1.019e+07
1.01867e+07
1.01001e+07
9.86811e+06
9.65113e+06
9.39313e+06
9.1463e+06
8.97747e+06
8.95888e+06
9.73225e+06
8.89036e+06
8.20062e+06
7.74666e+06
7.35926e+06
6.67557e+06
5.8181e+06
5.18724e+06
4.77422e+06
4.09776e+06
3.29736e+06
2.57307e+06
1.93872e+06
1.42999e+06
1.1268e+06
1.11907e+06
1.31522e+06
1.25437e+06
1.20211e+06
1.15739e+06
1.11934e+06
1.08713e+06
1.06003e+06
1.03755e+06
1.01935e+06
1.00525e+06
995991
992593
992991
997201
1.00532e+06
1.01757e+06
1.03409e+06
1.05481e+06
1.07977e+06
1.10875e+06
1.14193e+06
1.17881e+06
1.1902e+06
1.11692e+06
1.16597e+06
1.21827e+06
1.27279e+06
1.32935e+06
1.38786e+06
1.44811e+06
1.50997e+06
1.57328e+06
1.63789e+06
1.70374e+06
1.77062e+06
1.83833e+06
1.9068e+06
1.97617e+06
1.88966e+06
1.64096e+06
1.39853e+06
1.16433e+06
946222
758530
629183
597110
641960
716310
813565
926573
1.04884e+06
1.17751e+06
1.31123e+06
1.45037e+06
1.59772e+06
1.75184e+06
1.93276e+06
2.09073e+06
2.20371e+06
2.31549e+06
2.45733e+06
2.66977e+06
2.87361e+06
3.03197e+06
3.16684e+06
3.32972e+06
3.50653e+06
3.68025e+06
3.85572e+06
4.02512e+06
4.45788e+06
8.53483e+06
1.01248e+07
1.01413e+07
1.01168e+07
1.01179e+07
1.01225e+07
1.01231e+07
1.01212e+07
1.01182e+07
1.01139e+07
9.95428e+06
9.7793e+06
9.61599e+06
9.46121e+06
9.28517e+06
9.11822e+06
9.01614e+06
9.45254e+06
9.85894e+06
9.97154e+06
9.39661e+06
8.95323e+06
8.60235e+06
8.20579e+06
7.65988e+06
7.15041e+06
6.67009e+06
6.21766e+06
5.76821e+06
5.18606e+06
4.70329e+06
4.35781e+06
4.01896e+06
3.68173e+06
3.36633e+06
3.07166e+06
2.79725e+06
2.54203e+06
2.30631e+06
2.09024e+06
1.89158e+06
1.69765e+06
1.52789e+06
1.38212e+06
1.25923e+06
1.15375e+06
1.06035e+06
985334
929100
890580
868388
751635
730599
799539
901495
1.01458e+06
1.1356e+06
1.26263e+06
1.39402e+06
1.52871e+06
1.66593e+06
1.80503e+06
1.964e+06
2.13258e+06
2.30256e+06
2.47506e+06
2.64891e+06
2.87451e+06
3.16136e+06
3.41185e+06
3.66338e+06
3.91558e+06
4.1681e+06
4.42067e+06
4.65398e+06
4.88549e+06
5.13423e+06
5.38726e+06
5.63941e+06
5.52069e+06
6.14082e+06
6.39052e+06
6.65002e+06
6.90974e+06
6.74067e+06
7.20723e+06
7.51932e+06
7.70714e+06
7.89345e+06
8.07823e+06
8.05803e+06
7.95072e+06
7.84169e+06
7.7986e+06
7.80303e+06
7.79956e+06
7.7898e+06
7.74024e+06
7.69017e+06
7.63067e+06
8.69856e+06
1.01188e+07
1.01254e+07
1.00378e+07
1.00472e+07
1.00576e+07
1.00665e+07
1.00711e+07
1.0075e+07
1.00753e+07
1.0075e+07
1.0071e+07
1.00648e+07
1.00575e+07
1.00475e+07
9.92942e+06
9.80335e+06
9.68404e+06
9.57091e+06
9.46373e+06
9.3617e+06
9.26472e+06
9.46324e+06
9.85527e+06
1.02175e+07
1.05062e+07
1.06378e+07
1.07533e+07
1.08541e+07
1.08738e+07
1.03384e+07
9.84379e+06
9.38884e+06
8.96561e+06
8.57177e+06
8.20866e+06
7.87496e+06
7.56867e+06
7.28848e+06
7.0346e+06
6.81009e+06
6.60567e+06
6.41767e+06
6.24865e+06
6.09887e+06
5.9684e+06
5.8538e+06
5.7522e+06
5.66438e+06
5.59005e+06
5.51163e+06
5.74016e+06
6.03136e+06
6.23281e+06
6.43815e+06
6.6472e+06
6.85927e+06
7.07433e+06
7.29207e+06
7.51208e+06
7.7341e+06
7.95946e+06
8.18724e+06
8.41448e+06
8.64195e+06
8.87017e+06
9.02378e+06
9.01976e+06
8.84071e+06
8.66266e+06
8.48564e+06
8.30965e+06
8.13473e+06
7.96093e+06
7.78821e+06
7.69525e+06
7.63049e+06
7.56738e+06
7.50517e+06
7.44521e+06
7.38646e+06
7.33227e+06
7.28492e+06
7.22777e+06
7.168e+06
7.08319e+06
6.9978e+06
6.91325e+06
6.82999e+06
6.7477e+06
6.66659e+06
6.5866e+06
6.50782e+06
6.44337e+06
6.38004e+06
6.31669e+06
6.25057e+06
6.15935e+06
6.05618e+06
5.85268e+06
8.92216e+06
1.00353e+07
1.00173e+07
9.95785e+06
9.97684e+06
9.99271e+06
1.00097e+07
1.00204e+07
1.00301e+07
1.00365e+07
1.00406e+07
1.00416e+07
1.00398e+07
1.00351e+07
1.00292e+07
1.00205e+07
1.00087e+07
9.9947e+06
9.97844e+06
9.96041e+06
9.9403e+06
9.91814e+06
9.89411e+06
9.86945e+06
9.97138e+06
1.00856e+07
1.01907e+07
1.02504e+07
1.01731e+07
1.00648e+07
9.962e+06
9.85741e+06
9.77318e+06
9.71295e+06
9.65577e+06
9.60165e+06
9.55032e+06
9.50176e+06
9.45551e+06
9.41176e+06
9.37024e+06
9.34414e+06
9.31306e+06
9.26884e+06
9.10995e+06
8.95509e+06
8.81403e+06
8.67744e+06
8.54491e+06
8.41688e+06
8.27383e+06
8.51674e+06
8.41004e+06
8.29823e+06
8.18963e+06
8.08421e+06
7.98212e+06
7.88266e+06
7.78614e+06
7.69241e+06
7.60126e+06
7.51276e+06
7.40746e+06
7.29592e+06
7.18633e+06
7.07021e+06
6.95686e+06
6.85251e+06
6.74999e+06
6.64925e+06
6.55022e+06
6.45285e+06
6.35712e+06
6.26299e+06
6.1704e+06
6.07933e+06
5.98972e+06
5.90155e+06
5.8148e+06
5.72929e+06
5.6458e+06
5.57155e+06
5.49273e+06
5.41196e+06
5.33223e+06
5.25432e+06
5.17736e+06
5.10115e+06
5.02609e+06
4.95208e+06
4.87929e+06
4.80771e+06
4.73742e+06
4.66849e+06
4.60117e+06
4.52687e+06
4.44561e+06
4.4001e+06
4.35267e+06
4.31994e+06
8.87222e+06
9.90832e+06
9.9105e+06
9.87848e+06
9.90705e+06
9.92923e+06
9.95253e+06
9.97014e+06
9.98502e+06
9.99654e+06
1.00052e+07
1.00115e+07
1.00134e+07
1.00129e+07
1.00093e+07
1.0004e+07
9.99556e+06
9.98426e+06
9.97053e+06
9.95474e+06
9.93682e+06
9.91688e+06
9.89484e+06
9.87085e+06
9.84521e+06
9.84187e+06
9.97388e+06
1.0098e+07
1.0034e+07
9.94867e+06
9.76897e+06
9.57259e+06
9.38004e+06
9.191e+06
9.00527e+06
8.82323e+06
8.64467e+06
8.46985e+06
8.29845e+06
8.13049e+06
7.96593e+06
7.80435e+06
7.64721e+06
7.50864e+06
7.37363e+06
7.22336e+06
7.07596e+06
6.93185e+06
6.79018e+06
6.65112e+06
6.62059e+06
6.6481e+06
6.52157e+06
6.39741e+06
6.27596e+06
6.15616e+06
6.03988e+06
5.92582e+06
5.81285e+06
5.70264e+06
5.59425e+06
5.4881e+06
5.38392e+06
5.28176e+06
5.18152e+06
5.08319e+06
5.06145e+06
5.04011e+06
5.01885e+06
4.99763e+06
4.97649e+06
4.95545e+06
4.93449e+06
4.91363e+06
4.89288e+06
4.87225e+06
4.85172e+06
4.83131e+06
4.81101e+06
4.79072e+06
4.77176e+06
4.76123e+06
4.74199e+06
4.722e+06
4.6172e+06
4.48255e+06
4.34953e+06
4.21811e+06
4.08823e+06
3.95988e+06
3.83313e+06
3.70799e+06
3.58455e+06
3.44314e+06
3.28343e+06
3.12251e+06
2.97102e+06
2.84306e+06
2.74031e+06
2.76348e+06
8.82239e+06
9.78294e+06
9.80498e+06
9.79976e+06
9.83619e+06
9.86644e+06
9.89549e+06
9.91946e+06
9.94037e+06
9.95642e+06
9.96963e+06
9.97953e+06
9.98658e+06
9.98925e+06
9.92817e+06
9.71028e+06
9.49587e+06
9.28496e+06
9.07738e+06
8.87338e+06
8.67302e+06
8.47634e+06
8.28307e+06
8.09306e+06
7.90623e+06
7.72262e+06
7.54612e+06
7.37871e+06
7.34063e+06
7.33173e+06
7.32507e+06
7.28162e+06
7.17978e+06
6.99756e+06
6.81881e+06
6.64372e+06
6.47212e+06
6.30429e+06
6.14038e+06
5.98001e+06
5.82359e+06
5.67021e+06
5.52025e+06
5.38059e+06
5.35126e+06
5.32259e+06
5.29375e+06
5.26557e+06
5.23745e+06
5.10705e+06
5.2076e+06
5.06202e+06
4.91137e+06
4.76083e+06
4.61061e+06
4.46081e+06
4.18786e+06
4.16281e+06
4.01507e+06
3.86825e+06
3.72249e+06
3.57784e+06
3.4344e+06
3.29224e+06
3.15149e+06
3.01236e+06
2.87484e+06
2.73908e+06
2.60518e+06
2.47324e+06
2.34333e+06
2.21565e+06
2.09037e+06
1.96768e+06
1.84791e+06
1.73141e+06
1.6185e+06
1.50971e+06
1.40558e+06
1.30682e+06
1.22336e+06
1.15058e+06
1.0758e+06
935333
785472
712442
676653
660532
664789
688430
728983
793042
872440
960382
1.0679e+06
1.17249e+06
1.26799e+06
1.36674e+06
1.44094e+06
1.60369e+06
6.60121e+06
8.02294e+06
8.16293e+06
8.27126e+06
8.39555e+06
8.40597e+06
8.19948e+06
7.98114e+06
7.75412e+06
7.51848e+06
7.27543e+06
7.02556e+06
6.77105e+06
6.53189e+06
6.34451e+06
6.13543e+06
5.86374e+06
5.59007e+06
5.31464e+06
5.0383e+06
4.76157e+06
4.48521e+06
4.20987e+06
3.93618e+06
3.6647e+06
3.39599e+06
3.12552e+06
2.87056e+06
2.74075e+06
2.60504e+06
2.56936e+06
2.57685e+06
2.63012e+06
2.64364e+06
2.59728e+06
2.50495e+06
2.38578e+06
2.2659e+06
2.14664e+06
2.02782e+06
1.91078e+06
1.79581e+06
1.68321e+06
1.57434e+06
1.46961e+06
1.3715e+06
1.28061e+06
1.19893e+06
1.19986e+06
977372
724654
634158
603534
600813
626320
676632
747097
832291
927194
1.02962e+06
1.13679e+06
1.24756e+06
1.36067e+06
1.47534e+06
1.59101e+06
1.7072e+06
1.82355e+06
1.93982e+06
2.05588e+06
2.1715e+06
2.28664e+06
2.4012e+06
2.51509e+06
2.62826e+06
2.74059e+06
2.85206e+06
2.96261e+06
3.07219e+06
3.1808e+06
3.28862e+06
3.39144e+06
3.4972e+06
3.60182e+06
3.70534e+06
3.72272e+06
3.70881e+06
3.69503e+06
3.68136e+06
3.66781e+06
3.66908e+06
3.69083e+06
3.71007e+06
3.73068e+06
3.73211e+06
3.71682e+06
3.70163e+06
3.68647e+06
3.6715e+06
3.65463e+06
3.61573e+06
2.01787e+06
3.81266e+06
3.61397e+06
3.44585e+06
3.37892e+06
3.50522e+06
3.56654e+06
3.45994e+06
3.37248e+06
3.30874e+06
3.26979e+06
3.25643e+06
3.27001e+06
3.30935e+06
3.33856e+06
3.2897e+06
3.25084e+06
3.22181e+06
3.20266e+06
3.1931e+06
3.19299e+06
3.20214e+06
3.22035e+06
3.24735e+06
3.28291e+06
3.36969e+06
3.50148e+06
3.57349e+06
3.63283e+06
3.69878e+06
3.77093e+06
3.84855e+06
3.88414e+06
3.85071e+06
3.84924e+06
3.86944e+06
3.86997e+06
3.86179e+06
3.89665e+06
3.96853e+06
4.04447e+06
4.12378e+06
4.20656e+06
4.29194e+06
4.38013e+06
4.47061e+06
4.56291e+06
4.65694e+06
4.75224e+06
4.57565e+06
4.32785e+06
4.30606e+06
4.2851e+06
4.26439e+06
4.24382e+06
4.22343e+06
4.2033e+06
4.18323e+06
4.16351e+06
4.14397e+06
4.12462e+06
4.10547e+06
4.08659e+06
4.06789e+06
4.04939e+06
4.03114e+06
4.01309e+06
3.99524e+06
3.97761e+06
3.96021e+06
3.94301e+06
3.92601e+06
3.90924e+06
3.89264e+06
3.87624e+06
3.86004e+06
3.84404e+06
3.82827e+06
3.8127e+06
3.79775e+06
3.77853e+06
3.76434e+06
3.74973e+06
3.73531e+06
3.72109e+06
3.70703e+06
3.69313e+06
3.6901e+06
3.71271e+06
3.73251e+06
3.7534e+06
3.75761e+06
3.74218e+06
3.72682e+06
3.71156e+06
3.6964e+06
3.68131e+06
3.66641e+06
3.65141e+06
3.62772e+06
4.81863e+06
6.12303e+06
6.42693e+06
6.62214e+06
6.82338e+06
6.9458e+06
6.87968e+06
6.81597e+06
6.75415e+06
6.69493e+06
6.63717e+06
6.58155e+06
6.52743e+06
6.47483e+06
6.42368e+06
6.37395e+06
6.32554e+06
6.27807e+06
6.23158e+06
6.18595e+06
6.14131e+06
6.09766e+06
6.0551e+06
6.01341e+06
5.99173e+06
6.03123e+06
6.02112e+06
5.97793e+06
5.93573e+06
5.89432e+06
5.85371e+06
5.81385e+06
5.77473e+06
5.73646e+06
5.69862e+06
5.60996e+06
5.49315e+06
5.39283e+06
5.30778e+06
5.21272e+06
5.10986e+06
5.01356e+06
4.98042e+06
4.94804e+06
4.91616e+06
4.88514e+06
4.85456e+06
4.82466e+06
4.76632e+06
4.41544e+06
4.32609e+06
4.30494e+06
4.28389e+06
4.26307e+06
4.24249e+06
4.22204e+06
4.20181e+06
4.18183e+06
4.162e+06
4.14238e+06
4.12306e+06
4.10389e+06
4.08494e+06
4.06624e+06
4.04772e+06
4.02941e+06
4.01132e+06
3.99346e+06
3.97578e+06
3.95833e+06
3.94109e+06
3.92405e+06
3.90722e+06
3.89059e+06
3.87415e+06
3.85789e+06
3.84182e+06
3.82595e+06
3.81028e+06
3.7954e+06
3.77679e+06
3.76229e+06
3.74761e+06
3.73307e+06
3.71868e+06
3.71032e+06
3.73383e+06
3.75423e+06
3.77541e+06
3.78318e+06
3.76757e+06
3.75205e+06
3.73661e+06
3.72127e+06
3.70603e+06
3.69091e+06
3.67587e+06
3.66105e+06
3.64614e+06
3.62802e+06
6.10829e+06
7.20467e+06
7.20984e+06
7.13003e+06
7.05512e+06
6.98279e+06
6.91399e+06
6.84735e+06
6.7833e+06
6.72137e+06
6.6617e+06
6.60384e+06
6.54779e+06
6.49333e+06
6.44048e+06
6.38895e+06
6.33876e+06
6.28974e+06
6.24193e+06
6.1952e+06
6.14955e+06
6.10484e+06
6.06117e+06
6.02219e+06
6.05848e+06
6.06789e+06
6.02294e+06
5.97886e+06
5.93579e+06
5.89359e+06
5.85221e+06
5.81168e+06
5.77178e+06
5.73281e+06
5.69441e+06
5.65679e+06
5.61997e+06
5.58344e+06
5.50863e+06
5.40184e+06
5.29992e+06
5.22032e+06
5.14285e+06
5.04836e+06
4.95667e+06
4.87488e+06
4.8438e+06
4.81347e+06
4.72076e+06
4.36244e+06
4.32421e+06
4.30293e+06
4.2819e+06
4.26097e+06
4.24031e+06
4.21988e+06
4.19958e+06
4.17953e+06
4.15974e+06
4.14009e+06
4.12065e+06
4.10148e+06
4.08251e+06
4.06374e+06
4.0452e+06
4.02687e+06
4.00872e+06
3.99081e+06
3.97312e+06
3.95564e+06
3.93837e+06
3.9213e+06
3.90442e+06
3.88772e+06
3.87122e+06
3.85492e+06
3.83883e+06
3.82293e+06
3.80719e+06
3.79237e+06
3.77434e+06
3.75953e+06
3.72519e+06
3.68295e+06
3.67563e+06
3.66514e+06
3.65541e+06
3.63692e+06
3.59077e+06
3.54506e+06
3.49981e+06
3.455e+06
3.41065e+06
3.36677e+06
3.32336e+06
3.28039e+06
3.23797e+06
3.19581e+06
3.15452e+06
3.09748e+06
7.05759e+06
7.33135e+06
7.25606e+06
7.17234e+06
7.09449e+06
7.01903e+06
6.94725e+06
6.87815e+06
6.81141e+06
6.74718e+06
6.6851e+06
6.62532e+06
6.5675e+06
6.51127e+06
6.45633e+06
6.40302e+06
6.3513e+06
6.30085e+06
6.25165e+06
6.20358e+06
6.15668e+06
6.11075e+06
6.06585e+06
6.08382e+06
6.11397e+06
6.06938e+06
6.02355e+06
5.97862e+06
5.93472e+06
5.89187e+06
5.84983e+06
5.80864e+06
5.76805e+06
5.72826e+06
5.68938e+06
5.65099e+06
5.61375e+06
5.57676e+06
5.54067e+06
5.50522e+06
5.47019e+06
5.43266e+06
5.33477e+06
5.24007e+06
5.15013e+06
5.07783e+06
5.00609e+06
4.92079e+06
4.72504e+06
4.35327e+06
4.32155e+06
4.30015e+06
4.27903e+06
4.25814e+06
4.23737e+06
4.21686e+06
4.19659e+06
4.17648e+06
4.15659e+06
4.13697e+06
4.11751e+06
4.09159e+06
4.04341e+06
3.99557e+06
3.94808e+06
3.90099e+06
3.85429e+06
3.808e+06
3.7621e+06
3.71664e+06
3.67157e+06
3.62689e+06
3.58262e+06
3.53873e+06
3.49524e+06
3.45214e+06
3.40946e+06
3.3672e+06
3.32534e+06
3.28345e+06
3.24195e+06
3.20377e+06
3.19673e+06
3.18866e+06
3.1797e+06
3.16864e+06
3.12453e+06
3.15041e+06
3.23232e+06
3.31425e+06
3.39615e+06
3.48087e+06
3.62835e+06
3.77543e+06
3.92191e+06
4.0683e+06
4.21322e+06
4.35922e+06
4.49628e+06
4.4887e+06
1.06226e+07
1.02384e+07
9.50871e+06
8.76467e+06
8.11905e+06
7.52534e+06
6.97955e+06
6.90775e+06
6.83851e+06
6.77208e+06
6.70775e+06
6.64581e+06
6.58569e+06
6.5277e+06
6.47141e+06
6.41659e+06
6.36305e+06
6.31083e+06
6.2601e+06
6.21076e+06
6.1627e+06
6.11566e+06
6.1085e+06
6.15143e+06
6.11808e+06
6.07025e+06
6.02347e+06
5.97771e+06
5.933e+06
5.88939e+06
5.84663e+06
5.80466e+06
5.76359e+06
5.72305e+06
5.68365e+06
5.64455e+06
5.59885e+06
5.54041e+06
5.48201e+06
5.42416e+06
5.36643e+06
5.30924e+06
5.2522e+06
5.19567e+06
5.13935e+06
5.07611e+06
4.96485e+06
4.84884e+06
4.32319e+06
4.07913e+06
4.02229e+06
3.96581e+06
3.90968e+06
3.85417e+06
3.79922e+06
3.7488e+06
3.70149e+06
3.65454e+06
3.60787e+06
3.56155e+06
3.51576e+06
3.47108e+06
3.42706e+06
3.38247e+06
3.33825e+06
3.29439e+06
3.25093e+06
3.2079e+06
3.16525e+06
3.12299e+06
3.0811e+06
3.03962e+06
3.0953e+06
3.18823e+06
3.28165e+06
3.37546e+06
3.46964e+06
3.56408e+06
3.6771e+06
3.82692e+06
3.9909e+06
4.17231e+06
4.37264e+06
4.583e+06
4.75746e+06
4.9313e+06
4.97426e+06
4.9814e+06
4.99216e+06
5.00186e+06
5.01157e+06
4.9925e+06
4.97576e+06
4.9543e+06
4.93339e+06
4.9147e+06
4.89654e+06
4.85574e+06
4.79905e+06
4.73223e+06
1.2018e+07
1.22403e+07
1.14485e+07
1.06917e+07
9.94672e+06
9.24065e+06
8.73889e+06
8.32102e+06
7.90188e+06
7.51128e+06
7.14726e+06
6.80832e+06
6.49303e+06
6.20015e+06
6.08742e+06
6.02778e+06
5.96845e+06
5.90949e+06
5.85087e+06
5.79243e+06
5.7342e+06
5.68916e+06
5.72504e+06
5.70546e+06
5.64278e+06
5.58056e+06
5.51872e+06
5.45726e+06
5.39619e+06
5.33556e+06
5.27544e+06
5.2154e+06
5.15608e+06
5.0967e+06
5.03795e+06
4.97663e+06
4.91077e+06
4.84841e+06
4.79082e+06
4.73383e+06
4.67724e+06
4.6214e+06
4.5658e+06
4.51041e+06
4.45597e+06
4.40148e+06
4.34738e+06
4.05179e+06
3.50607e+06
3.45772e+06
3.40723e+06
3.35383e+06
3.30101e+06
3.24865e+06
3.19682e+06
3.16257e+06
3.23159e+06
3.3027e+06
3.37579e+06
3.45059e+06
3.52702e+06
3.60994e+06
3.7164e+06
3.8352e+06
4.00433e+06
4.17475e+06
4.34633e+06
4.51888e+06
4.69227e+06
4.86645e+06
5.04126e+06
5.21248e+06
5.37685e+06
5.39234e+06
5.40733e+06
5.42286e+06
5.4389e+06
5.42934e+06
5.43026e+06
5.45665e+06
5.4758e+06
5.48568e+06
5.46391e+06
5.43757e+06
5.41221e+06
5.37838e+06
5.31654e+06
5.19532e+06
5.01765e+06
4.84143e+06
4.6685e+06
4.51816e+06
4.37028e+06
4.2236e+06
4.07807e+06
3.93353e+06
3.79367e+06
3.65596e+06
3.52406e+06
3.53285e+06
8.61797e+06
9.6971e+06
1.03708e+07
1.0724e+07
1.10133e+07
1.1076e+07
1.09851e+07
1.0435e+07
9.92501e+06
9.41514e+06
8.94243e+06
8.50488e+06
8.09987e+06
7.78206e+06
7.51367e+06
7.20857e+06
6.9086e+06
6.65867e+06
6.45834e+06
6.27315e+06
6.10366e+06
6.01717e+06
5.93012e+06
5.78287e+06
5.64815e+06
5.52533e+06
5.41363e+06
5.31257e+06
5.22185e+06
5.14066e+06
5.06907e+06
5.00575e+06
4.95118e+06
4.90437e+06
4.86491e+06
4.833e+06
4.81524e+06
4.81754e+06
4.82646e+06
4.84196e+06
4.86344e+06
4.89066e+06
4.92379e+06
4.96998e+06
5.05088e+06
5.1385e+06
5.19264e+06
4.77944e+06
4.74944e+06
4.87644e+06
5.0072e+06
5.14143e+06
5.27911e+06
5.41995e+06
5.56333e+06
5.70595e+06
5.85108e+06
5.99529e+06
5.99844e+06
5.99879e+06
6.00032e+06
6.00294e+06
5.98403e+06
5.95988e+06
5.93691e+06
5.91148e+06
5.88692e+06
5.86305e+06
5.83945e+06
5.81662e+06
5.79416e+06
5.76829e+06
5.6372e+06
5.46978e+06
5.28521e+06
5.10161e+06
4.92397e+06
4.78053e+06
4.61653e+06
4.41828e+06
4.2469e+06
4.09285e+06
3.93882e+06
3.78552e+06
3.63312e+06
3.48532e+06
3.46355e+06
3.47472e+06
3.48648e+06
3.49794e+06
3.5064e+06
3.54095e+06
3.5806e+06
3.62292e+06
3.66478e+06
3.70447e+06
3.7436e+06
3.80511e+06
3.87295e+06
3.94562e+06
6.3953e+06
7.93537e+06
8.32276e+06
8.69476e+06
9.00223e+06
9.24021e+06
9.52797e+06
9.81868e+06
9.93012e+06
1.00922e+07
1.02303e+07
1.03194e+07
1.03943e+07
1.04557e+07
1.03261e+07
1.00695e+07
9.79471e+06
9.55147e+06
9.32414e+06
9.11059e+06
8.95643e+06
8.85531e+06
8.68961e+06
8.53847e+06
8.40489e+06
8.28793e+06
8.18675e+06
8.10034e+06
8.02854e+06
7.96975e+06
7.92416e+06
7.89038e+06
7.86788e+06
7.85659e+06
7.85495e+06
7.86329e+06
7.88076e+06
7.87103e+06
7.81652e+06
7.76558e+06
7.71836e+06
7.67363e+06
7.6343e+06
7.605e+06
7.55822e+06
7.50146e+06
7.09496e+06
6.69047e+06
6.65082e+06
6.61361e+06
6.5778e+06
6.54325e+06
6.50984e+06
6.47764e+06
6.44661e+06
6.39929e+06
6.24902e+06
6.08776e+06
5.9296e+06
5.76602e+06
5.58524e+06
5.40644e+06
5.22861e+06
5.03952e+06
4.80115e+06
4.56308e+06
4.32546e+06
4.08844e+06
3.85219e+06
3.67093e+06
3.5046e+06
3.3388e+06
3.18493e+06
3.18178e+06
3.17823e+06
3.2012e+06
3.2266e+06
3.27872e+06
3.32533e+06
3.34549e+06
3.37974e+06
3.42517e+06
3.47105e+06
3.51499e+06
3.55813e+06
3.60083e+06
3.67837e+06
3.74826e+06
3.81738e+06
3.88573e+06
3.95334e+06
3.997e+06
3.9735e+06
3.94999e+06
3.92651e+06
3.90298e+06
3.87962e+06
3.85608e+06
3.83234e+06
3.80155e+06
5.27015e+06
6.57451e+06
6.60008e+06
6.71069e+06
6.78485e+06
7.024e+06
7.33356e+06
7.60753e+06
7.86959e+06
8.07397e+06
8.22236e+06
8.35687e+06
8.48478e+06
8.59519e+06
8.66574e+06
8.71275e+06
8.7706e+06
8.79891e+06
8.78393e+06
8.78734e+06
8.85746e+06
8.8606e+06
8.82902e+06
8.78912e+06
8.74147e+06
8.6863e+06
8.62439e+06
8.5555e+06
8.48085e+06
8.40022e+06
8.31408e+06
8.22325e+06
8.12708e+06
8.02673e+06
7.92219e+06
7.81388e+06
7.69303e+06
7.55657e+06
7.42508e+06
7.30895e+06
7.19188e+06
7.05652e+06
6.8952e+06
6.70733e+06
6.48559e+06
6.21155e+06
5.50753e+06
5.2776e+06
5.07048e+06
4.86104e+06
4.64953e+06
4.43634e+06
4.22156e+06
4.00532e+06
3.788e+06
3.56986e+06
3.35103e+06
3.17595e+06
3.16592e+06
3.1608e+06
3.15558e+06
3.14933e+06
3.16588e+06
3.19126e+06
3.21664e+06
3.24204e+06
3.26748e+06
3.29304e+06
3.31473e+06
3.33719e+06
3.36278e+06
3.3919e+06
3.42096e+06
3.47564e+06
3.56766e+06
3.65901e+06
3.74567e+06
3.79827e+06
3.85052e+06
3.90244e+06
3.92611e+06
3.91034e+06
3.8947e+06
3.87919e+06
3.86298e+06
3.84654e+06
3.83025e+06
3.81409e+06
3.79809e+06
3.78224e+06
3.76655e+06
3.75101e+06
3.73564e+06
3.72043e+06
3.70536e+06
3.69044e+06
3.67564e+06
3.66101e+06
3.64652e+06
3.62872e+06
4.35239e+06
5.91436e+06
5.9154e+06
5.8993e+06
5.89126e+06
5.85507e+06
5.81436e+06
5.79446e+06
5.76583e+06
5.68967e+06
5.63519e+06
5.607e+06
5.57555e+06
5.54083e+06
5.50237e+06
5.53034e+06
5.58661e+06
5.62697e+06
5.67399e+06
5.78589e+06
5.84236e+06
5.81994e+06
5.78429e+06
5.73595e+06
5.67579e+06
5.60389e+06
5.52127e+06
5.42798e+06
5.32484e+06
5.2128e+06
5.0915e+06
4.96213e+06
4.82491e+06
4.68047e+06
4.52936e+06
4.37215e+06
4.2095e+06
4.07526e+06
3.98927e+06
3.90312e+06
3.80613e+06
3.69946e+06
3.59389e+06
3.49614e+06
3.44267e+06
3.31446e+06
3.19349e+06
3.21488e+06
3.23679e+06
3.25902e+06
3.28144e+06
3.30397e+06
3.32671e+06
3.34965e+06
3.37266e+06
3.39576e+06
3.41746e+06
3.44161e+06
3.46808e+06
3.50293e+06
3.55482e+06
3.60665e+06
3.65838e+06
3.71005e+06
3.7616e+06
3.81305e+06
3.86438e+06
3.9156e+06
3.96664e+06
3.96314e+06
3.94548e+06
3.93141e+06
3.95315e+06
3.97421e+06
3.9949e+06
3.98545e+06
3.96908e+06
3.95285e+06
3.93675e+06
3.9208e+06
3.90497e+06
3.88927e+06
3.87369e+06
3.85824e+06
3.84293e+06
3.82775e+06
3.81268e+06
3.79775e+06
3.78294e+06
3.76824e+06
3.75365e+06
3.73919e+06
3.72487e+06
3.71067e+06
3.6966e+06
3.6822e+06
3.66748e+06
3.65291e+06
3.63847e+06
3.62076e+06
4.16342e+06
5.68605e+06
5.5369e+06
5.37705e+06
5.22982e+06
5.08839e+06
4.98582e+06
4.89823e+06
4.82498e+06
4.77741e+06
4.73029e+06
4.68296e+06
4.6346e+06
4.58524e+06
4.53437e+06
4.48219e+06
4.42836e+06
4.42455e+06
4.47172e+06
4.48683e+06
4.40748e+06
4.3289e+06
4.25109e+06
4.17384e+06
4.09741e+06
4.02134e+06
3.94567e+06
3.87072e+06
3.79598e+06
3.72196e+06
3.67546e+06
3.65841e+06
3.64266e+06
3.6282e+06
3.61504e+06
3.60258e+06
3.59153e+06
3.58151e+06
3.57185e+06
3.55609e+06
3.5399e+06
3.53935e+06
3.56186e+06
3.60598e+06
3.66827e+06
3.60903e+06
3.70432e+06
3.7434e+06
3.7913e+06
3.83929e+06
3.88747e+06
3.93579e+06
3.98417e+06
4.03263e+06
4.08119e+06
4.12972e+06
4.17824e+06
4.18225e+06
4.16225e+06
4.14244e+06
4.12282e+06
4.10342e+06
4.08418e+06
4.04994e+06
3.94057e+06
3.83458e+06
3.73181e+06
3.6321e+06
3.53536e+06
3.44151e+06
3.3522e+06
3.26615e+06
3.18326e+06
3.08452e+06
2.96803e+06
2.8547e+06
2.74442e+06
2.63713e+06
2.53275e+06
2.43121e+06
2.33246e+06
2.23642e+06
2.14305e+06
2.05228e+06
1.96486e+06
1.88027e+06
1.79809e+06
1.71831e+06
1.6409e+06
1.56584e+06
1.49311e+06
1.4227e+06
1.35456e+06
1.28871e+06
1.22524e+06
1.16394e+06
1.1055e+06
1.04826e+06
995207
1.02304e+06
4.1827e+06
5.69287e+06
5.54301e+06
5.38235e+06
5.23444e+06
5.09283e+06
4.95782e+06
4.82952e+06
4.70747e+06
4.59099e+06
4.47978e+06
4.37409e+06
4.27318e+06
4.18846e+06
4.13476e+06
4.0873e+06
4.13958e+06
4.21236e+06
4.24137e+06
4.20934e+06
4.18229e+06
4.16006e+06
4.14259e+06
4.1293e+06
4.12009e+06
4.11491e+06
4.11293e+06
4.11474e+06
4.11978e+06
4.14216e+06
4.18203e+06
4.21001e+06
4.22572e+06
4.24335e+06
4.26348e+06
4.28554e+06
4.30915e+06
4.33539e+06
4.36274e+06
4.39126e+06
4.42185e+06
4.45363e+06
4.48625e+06
4.22753e+06
3.84138e+06
3.32101e+06
3.02438e+06
2.8348e+06
2.67009e+06
2.51181e+06
2.35981e+06
2.21399e+06
2.07405e+06
1.9398e+06
1.81116e+06
1.6881e+06
1.5705e+06
1.45829e+06
1.35154e+06
1.25037e+06
1.15482e+06
1.06502e+06
980933
911461
862589
802691
750927
707880
674278
649725
633642
627058
634411
659224
698247
748067
805647
868562
934963
1.00348e+06
1.07311e+06
1.14314e+06
1.21306e+06
1.28252e+06
1.35123e+06
1.419e+06
1.4857e+06
1.55119e+06
1.6154e+06
1.67826e+06
1.73976e+06
1.79988e+06
1.85866e+06
1.91605e+06
1.97206e+06
2.02644e+06
2.07851e+06
2.13065e+06
2.17926e+06
2.23263e+06
4.4572e+06
5.92095e+06
5.80464e+06
5.68181e+06
5.5723e+06
5.47107e+06
5.37853e+06
5.29405e+06
5.2169e+06
5.1474e+06
5.0851e+06
5.02962e+06
4.98903e+06
4.97432e+06
4.95641e+06
5.04046e+06
5.1251e+06
5.12178e+06
5.09665e+06
5.07592e+06
5.05935e+06
5.04666e+06
5.03775e+06
5.03257e+06
5.03031e+06
5.03155e+06
5.03543e+06
5.04193e+06
5.05115e+06
5.06283e+06
5.04775e+06
5.00319e+06
4.96026e+06
4.91813e+06
4.87681e+06
4.80838e+06
4.25904e+06
3.7386e+06
3.24878e+06
2.79346e+06
2.37947e+06
2.01764e+06
1.46017e+06
880212
693126
775939
882882
1.02013e+06
1.14445e+06
1.26934e+06
1.39296e+06
1.51427e+06
1.63267e+06
1.74772e+06
1.85928e+06
1.96727e+06
2.07163e+06
2.17236e+06
2.26949e+06
2.36312e+06
2.45333e+06
2.54026e+06
2.62396e+06
2.6896e+06
2.67811e+06
2.66665e+06
2.65522e+06
2.64167e+06
2.62724e+06
2.61302e+06
2.60097e+06
2.58985e+06
2.57877e+06
2.56776e+06
2.55681e+06
2.54593e+06
2.53512e+06
2.52439e+06
2.51373e+06
2.50313e+06
2.49261e+06
2.48215e+06
2.47176e+06
2.46146e+06
2.45123e+06
2.4411e+06
2.43106e+06
2.4211e+06
2.41121e+06
2.40139e+06
2.39166e+06
2.38201e+06
2.37245e+06
2.36298e+06
2.35362e+06
2.34428e+06
2.3351e+06
2.32594e+06
2.31686e+06
2.30675e+06
5.23843e+06
6.57995e+06
6.48443e+06
6.38678e+06
6.29942e+06
6.22009e+06
6.14819e+06
6.08345e+06
6.02547e+06
5.97368e+06
5.92788e+06
5.88786e+06
5.85289e+06
5.80895e+06
5.85811e+06
5.90449e+06
5.83422e+06
5.76393e+06
5.69625e+06
5.63094e+06
5.56779e+06
5.50694e+06
5.44759e+06
5.3907e+06
5.33556e+06
5.28217e+06
5.23045e+06
5.18008e+06
5.1314e+06
5.05336e+06
4.38702e+06
3.76376e+06
3.19006e+06
2.67658e+06
2.21709e+06
1.40786e+06
765789
820043
1.14336e+06
1.55838e+06
1.99568e+06
2.43333e+06
2.86257e+06
2.97757e+06
2.96679e+06
2.9468e+06
2.87012e+06
2.86586e+06
2.85484e+06
2.8437e+06
2.83248e+06
2.82118e+06
2.80981e+06
2.79839e+06
2.78692e+06
2.77543e+06
2.76392e+06
2.72425e+06
2.67792e+06
2.63349e+06
2.59088e+06
2.55e+06
2.51078e+06
2.47313e+06
2.43703e+06
2.4014e+06
2.3636e+06
2.32715e+06
2.29302e+06
2.26239e+06
2.233e+06
2.20481e+06
2.17777e+06
2.15186e+06
2.12702e+06
2.10318e+06
2.08034e+06
2.05844e+06
2.03745e+06
2.01736e+06
1.99814e+06
1.97975e+06
1.96215e+06
1.94531e+06
1.9292e+06
1.91382e+06
1.89914e+06
1.88514e+06
1.87179e+06
1.85908e+06
1.84697e+06
1.83545e+06
1.82451e+06
1.8141e+06
1.80427e+06
1.79488e+06
1.78617e+06
1.77766e+06
1.77016e+06
1.75114e+06
5.75439e+06
6.98528e+06
6.86879e+06
6.74668e+06
6.63298e+06
6.52466e+06
6.42134e+06
6.32292e+06
6.2286e+06