/*--------------------------------*- C++ -*----------------------------------*\
| =========                 |                                                 |
| \\      /  F ield         | foam-extend: Open Source CFD                    |
|  \\    /   O peration     | Version:     4.1                                |
|   \\  /    A nd           | Web:         http://www.foam-extend.org         |
|    \\/     M anipulation  |                                                 |
\*---------------------------------------------------------------------------*/
FoamFile
{
    version     2.0;
    format      ascii;
    class       vectorField;
    location    "9";
    object      solidsCellD_iteration212;
}
// * * * * * * * * * * * * * * * * * * * * * * * * * * * * * * * * * * * * * //


100000
(
(5.17212e-06 -2.1458e-06 8.50976e-07)
(5.12996e-06 -2.11698e-06 8.70198e-07)
(5.08965e-06 -2.08949e-06 8.88767e-07)
(5.05114e-06 -2.0634e-06 9.06046e-07)
(5.01434e-06 -2.03858e-06 9.22345e-07)
(4.97917e-06 -2.015e-06 9.37628e-07)
(4.94558e-06 -1.99259e-06 9.52e-07)
(4.91349e-06 -1.9713e-06 9.65496e-07)
(4.88284e-06 -1.95108e-06 9.78172e-07)
(4.85357e-06 -1.93187e-06 9.90073e-07)
(4.82561e-06 -1.91364e-06 1.00124e-06)
(4.79893e-06 -1.89633e-06 1.01172e-06)
(4.77347e-06 -1.87991e-06 1.02156e-06)
(4.74917e-06 -1.86434e-06 1.03079e-06)
(4.726e-06 -1.84958e-06 1.0923e-06)
(4.7039e-06 -1.83559e-06 1.17008e-06)
(4.68285e-06 -1.82234e-06 1.24419e-06)
(4.66278e-06 -1.80981e-06 1.31477e-06)
(4.64368e-06 -1.79795e-06 1.382e-06)
(4.6255e-06 -1.78674e-06 1.44601e-06)
(4.60821e-06 -1.77615e-06 1.50692e-06)
(4.59177e-06 -1.76615e-06 1.53913e-06)
(4.57615e-06 -1.75673e-06 1.54768e-06)
(4.56133e-06 -1.74786e-06 1.55552e-06)
(4.54727e-06 -1.73951e-06 1.56267e-06)
(4.53395e-06 -1.73167e-06 1.56918e-06)
(4.52133e-06 -1.72431e-06 1.57507e-06)
(4.50941e-06 -1.71741e-06 1.58039e-06)
(4.49814e-06 -1.71095e-06 1.5796e-06)
(4.48752e-06 -1.70493e-06 1.57563e-06)
(4.4775e-06 -1.69931e-06 1.57177e-06)
(4.46809e-06 -1.69409e-06 1.56804e-06)
(4.45925e-06 -1.68925e-06 1.56444e-06)
(4.45096e-06 -1.68477e-06 1.56095e-06)
(4.44321e-06 -1.68064e-06 1.55759e-06)
(4.43598e-06 -1.67685e-06 1.55436e-06)
(4.42925e-06 -1.67337e-06 1.55126e-06)
(4.42301e-06 -1.67021e-06 1.54827e-06)
(4.41723e-06 -1.66735e-06 1.54541e-06)
(4.41191e-06 -1.66478e-06 1.54268e-06)
(4.40703e-06 -1.66248e-06 1.54006e-06)
(4.40258e-06 -1.66045e-06 1.53757e-06)
(4.39853e-06 -1.65867e-06 1.5352e-06)
(4.39489e-06 -1.65714e-06 1.53295e-06)
(4.39163e-06 -1.65585e-06 1.53083e-06)
(4.38875e-06 -1.65478e-06 1.52882e-06)
(4.38623e-06 -1.65394e-06 1.52693e-06)
(4.38406e-06 -1.65331e-06 1.52516e-06)
(4.38223e-06 -1.65288e-06 1.52351e-06)
(4.38074e-06 -1.65265e-06 1.52198e-06)
(4.37956e-06 -1.6526e-06 1.52056e-06)
(4.37869e-06 -1.65274e-06 1.51926e-06)
(4.37813e-06 -1.65305e-06 1.51808e-06)
(4.37786e-06 -1.65354e-06 1.517e-06)
(4.37787e-06 -1.65418e-06 1.51586e-06)
(4.37815e-06 -1.65498e-06 1.51378e-06)
(4.37871e-06 -1.65594e-06 1.51183e-06)
(4.37952e-06 -1.65704e-06 1.51001e-06)
(4.38059e-06 -1.65828e-06 1.50831e-06)
(4.3819e-06 -1.65965e-06 1.50673e-06)
(4.38345e-06 -1.66115e-06 1.50526e-06)
(4.38523e-06 -1.66278e-06 1.50392e-06)
(4.38723e-06 -1.66453e-06 1.5027e-06)
(4.38945e-06 -1.6664e-06 1.50159e-06)
(4.39188e-06 -1.66838e-06 1.50059e-06)
(4.39452e-06 -1.67047e-06 1.49971e-06)
(4.39736e-06 -1.67266e-06 1.49893e-06)
(4.40039e-06 -1.67495e-06 1.49827e-06)
(4.40361e-06 -1.67734e-06 1.49771e-06)
(4.40702e-06 -1.67982e-06 1.49726e-06)
(4.4106e-06 -1.68238e-06 1.49692e-06)
(4.41435e-06 -1.68504e-06 1.49668e-06)
(4.41828e-06 -1.68778e-06 1.49654e-06)
(4.42237e-06 -1.6906e-06 1.4965e-06)
(4.42661e-06 -1.69349e-06 1.49656e-06)
(4.43102e-06 -1.69646e-06 1.49451e-06)
(4.43557e-06 -1.6995e-06 1.4899e-06)
(4.44027e-06 -1.7026e-06 1.48531e-06)
(4.44511e-06 -1.70577e-06 1.48072e-06)
(4.4501e-06 -1.70901e-06 1.47615e-06)
(4.45521e-06 -1.7123e-06 1.4716e-06)
(4.46046e-06 -1.71566e-06 1.46705e-06)
(4.46583e-06 -1.71907e-06 1.46253e-06)
(4.47133e-06 -1.72253e-06 1.45802e-06)
(4.47695e-06 -1.72604e-06 1.45354e-06)
(4.48269e-06 -1.72961e-06 1.44907e-06)
(4.48854e-06 -1.73321e-06 1.44463e-06)
(4.49451e-06 -1.73687e-06 1.44021e-06)
(4.50058e-06 -1.74057e-06 1.43581e-06)
(4.50676e-06 -1.74431e-06 1.43143e-06)
(4.51304e-06 -1.74808e-06 1.42708e-06)
(4.51942e-06 -1.7519e-06 1.42274e-06)
(4.52589e-06 -1.75575e-06 1.41842e-06)
(4.53246e-06 -1.75964e-06 1.4141e-06)
(4.53913e-06 -1.76356e-06 1.40978e-06)
(4.54588e-06 -1.76751e-06 1.40544e-06)
(4.55272e-06 -1.77148e-06 1.40109e-06)
(4.55965e-06 -1.77549e-06 1.39663e-06)
(4.56665e-06 -1.77953e-06 1.39228e-06)
(4.57376e-06 -1.78359e-06 1.38782e-06)
(5.13016e-06 -2.16316e-06 7.24697e-07)
(5.08755e-06 -2.13493e-06 7.41435e-07)
(5.04683e-06 -2.10799e-06 7.57641e-07)
(5.00791e-06 -2.08242e-06 7.72666e-07)
(4.97073e-06 -2.0581e-06 7.86815e-07)
(4.9352e-06 -2.035e-06 8.00057e-07)
(4.90127e-06 -2.01305e-06 8.12474e-07)
(4.86885e-06 -1.99219e-06 8.24114e-07)
(4.83788e-06 -1.97238e-06 8.3502e-07)
(4.80831e-06 -1.95357e-06 8.45228e-07)
(4.78008e-06 -1.93572e-06 8.54784e-07)
(4.75312e-06 -1.91877e-06 8.63727e-07)
(4.7274e-06 -1.9027e-06 8.72104e-07)
(4.70286e-06 -1.88746e-06 9.25866e-07)
(4.67945e-06 -1.87301e-06 1.00626e-06)
(4.65713e-06 -1.85932e-06 1.08286e-06)
(4.63586e-06 -1.84636e-06 1.15586e-06)
(4.61559e-06 -1.8341e-06 1.22539e-06)
(4.5963e-06 -1.8225e-06 1.29159e-06)
(4.57793e-06 -1.81155e-06 1.32591e-06)
(4.56045e-06 -1.8012e-06 1.33468e-06)
(4.54384e-06 -1.79144e-06 1.34271e-06)
(4.52806e-06 -1.78224e-06 1.35004e-06)
(4.51308e-06 -1.77358e-06 1.35669e-06)
(4.49887e-06 -1.76543e-06 1.36271e-06)
(4.48541e-06 -1.75778e-06 1.36814e-06)
(4.47265e-06 -1.75061e-06 1.37299e-06)
(4.46059e-06 -1.74389e-06 1.37731e-06)
(4.4492e-06 -1.73761e-06 1.38111e-06)
(4.43845e-06 -1.73175e-06 1.38445e-06)
(4.42832e-06 -1.72629e-06 1.3873e-06)
(4.4188e-06 -1.72122e-06 1.38977e-06)
(4.40983e-06 -1.71653e-06 1.39173e-06)
(4.40143e-06 -1.7122e-06 1.3933e-06)
(4.39358e-06 -1.7082e-06 1.3946e-06)
(4.38625e-06 -1.70453e-06 1.3955e-06)
(4.37943e-06 -1.70119e-06 1.39609e-06)
(4.37309e-06 -1.69815e-06 1.39636e-06)
(4.36723e-06 -1.6954e-06 1.39633e-06)
(4.36182e-06 -1.69294e-06 1.39602e-06)
(4.35685e-06 -1.69075e-06 1.39545e-06)
(4.35231e-06 -1.68882e-06 1.39464e-06)
(4.34819e-06 -1.68714e-06 1.39358e-06)
(4.34447e-06 -1.68571e-06 1.39231e-06)
(4.34113e-06 -1.68451e-06 1.39084e-06)
(4.33818e-06 -1.68354e-06 1.38916e-06)
(4.33558e-06 -1.68278e-06 1.3873e-06)
(4.33334e-06 -1.68223e-06 1.38527e-06)
(4.33144e-06 -1.68188e-06 1.38308e-06)
(4.32988e-06 -1.68173e-06 1.38074e-06)
(4.32863e-06 -1.68176e-06 1.37825e-06)
(4.3277e-06 -1.68197e-06 1.37563e-06)
(4.32707e-06 -1.68235e-06 1.37289e-06)
(4.32674e-06 -1.6829e-06 1.37003e-06)
(4.32669e-06 -1.68362e-06 1.36628e-06)
(4.32691e-06 -1.68448e-06 1.36198e-06)
(4.32741e-06 -1.6855e-06 1.3576e-06)
(4.32816e-06 -1.68666e-06 1.35315e-06)
(4.32917e-06 -1.68796e-06 1.34863e-06)
(4.33042e-06 -1.68939e-06 1.34406e-06)
(4.33191e-06 -1.69095e-06 1.33943e-06)
(4.33363e-06 -1.69263e-06 1.33475e-06)
(4.33558e-06 -1.69444e-06 1.33003e-06)
(4.33774e-06 -1.69635e-06 1.32528e-06)
(4.34012e-06 -1.69838e-06 1.32048e-06)
(4.3427e-06 -1.70052e-06 1.31566e-06)
(4.34548e-06 -1.70276e-06 1.31081e-06)
(4.34846e-06 -1.70509e-06 1.30594e-06)
(4.35163e-06 -1.70753e-06 1.30105e-06)
(4.35498e-06 -1.71005e-06 1.29615e-06)
(4.35851e-06 -1.71266e-06 1.29124e-06)
(4.36221e-06 -1.71536e-06 1.28632e-06)
(4.36608e-06 -1.71814e-06 1.2814e-06)
(4.37011e-06 -1.721e-06 1.27647e-06)
(4.37431e-06 -1.72393e-06 1.27155e-06)
(4.37866e-06 -1.72694e-06 1.26662e-06)
(4.38316e-06 -1.73002e-06 1.26171e-06)
(4.3878e-06 -1.73316e-06 1.2568e-06)
(4.39259e-06 -1.73637e-06 1.2519e-06)
(4.39752e-06 -1.73964e-06 1.24701e-06)
(4.40258e-06 -1.74297e-06 1.24214e-06)
(4.40778e-06 -1.74636e-06 1.23728e-06)
(4.4131e-06 -1.7498e-06 1.23244e-06)
(4.41854e-06 -1.7533e-06 1.2276e-06)
(4.42411e-06 -1.75685e-06 1.22279e-06)
(4.42979e-06 -1.76045e-06 1.21799e-06)
(4.43559e-06 -1.76409e-06 1.2132e-06)
(4.4415e-06 -1.76778e-06 1.20843e-06)
(4.44752e-06 -1.77151e-06 1.20367e-06)
(4.45364e-06 -1.77528e-06 1.19893e-06)
(4.45986e-06 -1.77909e-06 1.19419e-06)
(4.46619e-06 -1.78294e-06 1.18946e-06)
(4.47261e-06 -1.78682e-06 1.18472e-06)
(4.47912e-06 -1.79074e-06 1.17998e-06)
(4.48573e-06 -1.79469e-06 1.17522e-06)
(4.49243e-06 -1.79867e-06 1.17043e-06)
(4.49921e-06 -1.80268e-06 1.16564e-06)
(4.50608e-06 -1.80672e-06 1.16075e-06)
(4.51302e-06 -1.81078e-06 1.15603e-06)
(4.52006e-06 -1.81487e-06 1.15101e-06)
(5.08789e-06 -2.18041e-06 5.98275e-07)
(5.04486e-06 -2.15277e-06 6.12499e-07)
(5.00373e-06 -2.12639e-06 6.2632e-07)
(4.96442e-06 -2.10136e-06 6.39081e-07)
(4.92688e-06 -2.07756e-06 6.51065e-07)
(4.891e-06 -2.05494e-06 6.62255e-07)
(4.85673e-06 -2.03345e-06 6.72709e-07)
(4.82399e-06 -2.01304e-06 6.82473e-07)
(4.79273e-06 -1.99366e-06 6.91601e-07)
(4.76287e-06 -1.97525e-06 7.0011e-07)
(4.73436e-06 -1.95779e-06 7.08045e-07)
(4.70715e-06 -1.94121e-06 7.15436e-07)
(4.68118e-06 -1.92549e-06 7.58012e-07)
(4.6564e-06 -1.91058e-06 8.4102e-07)
(4.63277e-06 -1.89646e-06 9.20146e-07)
(4.61023e-06 -1.88308e-06 9.95553e-07)
(4.58875e-06 -1.87042e-06 1.06739e-06)
(4.56829e-06 -1.85844e-06 1.11463e-06)
(4.5488e-06 -1.84711e-06 1.12354e-06)
(4.53025e-06 -1.83641e-06 1.13169e-06)
(4.51261e-06 -1.82631e-06 1.13911e-06)
(4.49583e-06 -1.81679e-06 1.14585e-06)
(4.47989e-06 -1.80781e-06 1.15193e-06)
(4.46476e-06 -1.79937e-06 1.1574e-06)
(4.4504e-06 -1.79143e-06 1.16228e-06)
(4.4368e-06 -1.78398e-06 1.16661e-06)
(4.42391e-06 -1.777e-06 1.17042e-06)
(4.41172e-06 -1.77047e-06 1.17373e-06)
(4.4002e-06 -1.76436e-06 1.17656e-06)
(4.38933e-06 -1.75867e-06 1.17896e-06)
(4.37908e-06 -1.75338e-06 1.18092e-06)
(4.36944e-06 -1.74846e-06 1.1825e-06)
(4.36037e-06 -1.74391e-06 1.18368e-06)
(4.35188e-06 -1.73972e-06 1.1845e-06)
(4.34393e-06 -1.73587e-06 1.18499e-06)
(4.3365e-06 -1.73233e-06 1.18516e-06)
(4.32958e-06 -1.72912e-06 1.18502e-06)
(4.32315e-06 -1.7262e-06 1.1846e-06)
(4.3172e-06 -1.72357e-06 1.18391e-06)
(4.31171e-06 -1.72122e-06 1.18296e-06)
(4.30666e-06 -1.71914e-06 1.18177e-06)
(4.30204e-06 -1.71732e-06 1.18035e-06)
(4.29783e-06 -1.71574e-06 1.17872e-06)
(4.29404e-06 -1.71441e-06 1.17689e-06)
(4.29063e-06 -1.7133e-06 1.17487e-06)
(4.28759e-06 -1.71242e-06 1.17267e-06)
(4.28493e-06 -1.71175e-06 1.1703e-06)
(4.28262e-06 -1.71129e-06 1.16777e-06)
(4.28065e-06 -1.71102e-06 1.1651e-06)
(4.27902e-06 -1.71095e-06 1.16229e-06)
(4.27771e-06 -1.71106e-06 1.15935e-06)
(4.27671e-06 -1.71134e-06 1.15629e-06)
(4.27602e-06 -1.7118e-06 1.15312e-06)
(4.27562e-06 -1.71242e-06 1.14972e-06)
(4.27551e-06 -1.7132e-06 1.14509e-06)
(4.27568e-06 -1.71413e-06 1.14039e-06)
(4.27611e-06 -1.71521e-06 1.13561e-06)
(4.27681e-06 -1.71643e-06 1.13077e-06)
(4.27775e-06 -1.71779e-06 1.12587e-06)
(4.27895e-06 -1.71928e-06 1.12092e-06)
(4.28038e-06 -1.72089e-06 1.11592e-06)
(4.28205e-06 -1.72263e-06 1.11089e-06)
(4.28394e-06 -1.72449e-06 1.10581e-06)
(4.28605e-06 -1.72646e-06 1.1007e-06)
(4.28837e-06 -1.72854e-06 1.09557e-06)
(4.29089e-06 -1.73072e-06 1.0904e-06)
(4.29362e-06 -1.73301e-06 1.08522e-06)
(4.29655e-06 -1.73539e-06 1.08002e-06)
(4.29966e-06 -1.73787e-06 1.0748e-06)
(4.30295e-06 -1.74044e-06 1.06958e-06)
(4.30643e-06 -1.74309e-06 1.06435e-06)
(4.31008e-06 -1.74584e-06 1.05911e-06)
(4.31389e-06 -1.74866e-06 1.05387e-06)
(4.31788e-06 -1.75156e-06 1.04863e-06)
(4.32202e-06 -1.75453e-06 1.04339e-06)
(4.32631e-06 -1.75758e-06 1.03816e-06)
(4.33076e-06 -1.76069e-06 1.03293e-06)
(4.33535e-06 -1.76387e-06 1.02771e-06)
(4.34009e-06 -1.76712e-06 1.0225e-06)
(4.34496e-06 -1.77043e-06 1.0173e-06)
(4.34997e-06 -1.7738e-06 1.01211e-06)
(4.35511e-06 -1.77722e-06 1.00694e-06)
(4.36038e-06 -1.7807e-06 1.00178e-06)
(4.36577e-06 -1.78423e-06 9.96631e-07)
(4.37128e-06 -1.78781e-06 9.91492e-07)
(4.37691e-06 -1.79144e-06 9.86363e-07)
(4.38265e-06 -1.79512e-06 9.81247e-07)
(4.38851e-06 -1.79884e-06 9.76141e-07)
(4.39447e-06 -1.8026e-06 9.71045e-07)
(4.40054e-06 -1.80641e-06 9.65955e-07)
(4.40671e-06 -1.81025e-06 9.60868e-07)
(4.41298e-06 -1.81413e-06 9.55782e-07)
(4.41934e-06 -1.81804e-06 9.5069e-07)
(4.4258e-06 -1.82199e-06 9.4559e-07)
(4.43235e-06 -1.82597e-06 9.40481e-07)
(4.43899e-06 -1.82998e-06 9.35358e-07)
(4.44571e-06 -1.83402e-06 9.30245e-07)
(4.45252e-06 -1.83809e-06 9.25077e-07)
(4.4594e-06 -1.84219e-06 9.20106e-07)
(4.46638e-06 -1.8463e-06 9.14914e-07)
(5.04534e-06 -2.19753e-06 4.71698e-07)
(5.00189e-06 -2.17049e-06 4.83399e-07)
(4.96036e-06 -2.1447e-06 4.94823e-07)
(4.92068e-06 -2.12022e-06 5.05298e-07)
(4.88278e-06 -2.09693e-06 5.15112e-07)
(4.84657e-06 -2.07482e-06 5.24235e-07)
(4.81198e-06 -2.05381e-06 5.3272e-07)
(4.77894e-06 -2.03385e-06 5.40602e-07)
(4.74738e-06 -2.0149e-06 5.47932e-07)
(4.71725e-06 -1.99691e-06 5.54731e-07)
(4.68848e-06 -1.97984e-06 5.61035e-07)
(4.66101e-06 -1.96364e-06 5.88837e-07)
(4.63481e-06 -1.94828e-06 6.74498e-07)
(4.6098e-06 -1.93372e-06 7.56168e-07)
(4.58595e-06 -1.91992e-06 8.33983e-07)
(4.5632e-06 -1.90686e-06 9.05794e-07)
(4.54153e-06 -1.8945e-06 9.14745e-07)
(4.52087e-06 -1.88281e-06 9.22914e-07)
(4.5012e-06 -1.87175e-06 9.30344e-07)
(4.48248e-06 -1.86132e-06 9.37072e-07)
(4.46467e-06 -1.85147e-06 9.43135e-07)
(4.44773e-06 -1.84219e-06 9.4857e-07)
(4.43164e-06 -1.83345e-06 9.53408e-07)
(4.41636e-06 -1.82523e-06 9.57681e-07)
(4.40187e-06 -1.8175e-06 9.61418e-07)
(4.38812e-06 -1.81026e-06 9.64648e-07)
(4.37511e-06 -1.80347e-06 9.67397e-07)
(4.36279e-06 -1.79712e-06 9.69692e-07)
(4.35115e-06 -1.7912e-06 9.71555e-07)
(4.34017e-06 -1.78568e-06 9.73011e-07)
(4.32981e-06 -1.78055e-06 9.74077e-07)
(4.32006e-06 -1.7758e-06 9.74777e-07)
(4.31089e-06 -1.7714e-06 9.75136e-07)
(4.3023e-06 -1.76735e-06 9.75165e-07)
(4.29425e-06 -1.76364e-06 9.74878e-07)
(4.28673e-06 -1.76024e-06 9.743e-07)
(4.27972e-06 -1.75716e-06 9.73448e-07)
(4.2732e-06 -1.75436e-06 9.72333e-07)
(4.26716e-06 -1.75186e-06 9.70972e-07)
(4.26158e-06 -1.74962e-06 9.69378e-07)
(4.25645e-06 -1.74765e-06 9.67566e-07)
(4.25175e-06 -1.74594e-06 9.65547e-07)
(4.24748e-06 -1.74447e-06 9.63334e-07)
(4.2436e-06 -1.74323e-06 9.60938e-07)
(4.24012e-06 -1.74222e-06 9.5837e-07)
(4.23702e-06 -1.74143e-06 9.55641e-07)
(4.23428e-06 -1.74085e-06 9.5276e-07)
(4.2319e-06 -1.74048e-06 9.49736e-07)
(4.22987e-06 -1.74029e-06 9.46579e-07)
(4.22817e-06 -1.7403e-06 9.43298e-07)
(4.2268e-06 -1.74049e-06 9.39902e-07)
(4.22574e-06 -1.74085e-06 9.36396e-07)
(4.22498e-06 -1.74138e-06 9.32792e-07)
(4.22452e-06 -1.74207e-06 9.28424e-07)
(4.22435e-06 -1.74292e-06 9.23376e-07)
(4.22446e-06 -1.74391e-06 9.18259e-07)
(4.22483e-06 -1.74506e-06 9.13082e-07)
(4.22547e-06 -1.74634e-06 9.07853e-07)
(4.22636e-06 -1.74776e-06 9.02571e-07)
(4.2275e-06 -1.74931e-06 8.97248e-07)
(4.22887e-06 -1.75098e-06 8.91882e-07)
(4.23048e-06 -1.75277e-06 8.86483e-07)
(4.23232e-06 -1.75468e-06 8.81053e-07)
(4.23437e-06 -1.7567e-06 8.75595e-07)
(4.23664e-06 -1.75884e-06 8.70114e-07)
(4.23911e-06 -1.76107e-06 8.64612e-07)
(4.24179e-06 -1.7634e-06 8.59094e-07)
(4.24466e-06 -1.76584e-06 8.53562e-07)
(4.24771e-06 -1.76836e-06 8.4802e-07)
(4.25096e-06 -1.77097e-06 8.42472e-07)
(4.25438e-06 -1.77367e-06 8.36919e-07)
(4.25797e-06 -1.77646e-06 8.31365e-07)
(4.26174e-06 -1.77932e-06 8.2581e-07)
(4.26566e-06 -1.78226e-06 8.20257e-07)
(4.26975e-06 -1.78528e-06 8.14708e-07)
(4.27399e-06 -1.78836e-06 8.09166e-07)
(4.27839e-06 -1.79152e-06 8.03629e-07)
(4.28293e-06 -1.79474e-06 7.98102e-07)
(4.28761e-06 -1.79802e-06 7.92585e-07)
(4.29243e-06 -1.80136e-06 7.87078e-07)
(4.29739e-06 -1.80477e-06 7.81584e-07)
(4.30247e-06 -1.80823e-06 7.76104e-07)
(4.30769e-06 -1.81174e-06 7.70635e-07)
(4.31302e-06 -1.81531e-06 7.65178e-07)
(4.31848e-06 -1.81892e-06 7.59732e-07)
(4.32405e-06 -1.82258e-06 7.54288e-07)
(4.32974e-06 -1.8263e-06 7.48857e-07)
(4.33554e-06 -1.83005e-06 7.43436e-07)
(4.34145e-06 -1.83384e-06 7.38022e-07)
(4.34746e-06 -1.83768e-06 7.32616e-07)
(4.35358e-06 -1.84155e-06 7.27213e-07)
(4.35979e-06 -1.84547e-06 7.21813e-07)
(4.3661e-06 -1.84941e-06 7.16413e-07)
(4.3725e-06 -1.85339e-06 7.11016e-07)
(4.37899e-06 -1.8574e-06 7.05621e-07)
(4.38557e-06 -1.86144e-06 7.00233e-07)
(4.39224e-06 -1.86552e-06 6.94875e-07)
(4.39899e-06 -1.86961e-06 6.89495e-07)
(4.40581e-06 -1.87374e-06 6.84321e-07)
(4.41272e-06 -1.87788e-06 6.78953e-07)
(5.00248e-06 -2.21452e-06 3.44982e-07)
(4.95863e-06 -2.18811e-06 3.54144e-07)
(4.91673e-06 -2.1629e-06 3.63165e-07)
(4.8767e-06 -2.13898e-06 3.71345e-07)
(4.83846e-06 -2.11624e-06 3.78974e-07)
(4.80192e-06 -2.09463e-06 3.86014e-07)
(4.76702e-06 -2.07411e-06 3.92523e-07)
(4.73369e-06 -2.05462e-06 3.98508e-07)
(4.70185e-06 -2.03611e-06 4.04039e-07)
(4.67145e-06 -2.01854e-06 4.09117e-07)
(4.64243e-06 -2.00187e-06 4.1855e-07)
(4.61473e-06 -1.98606e-06 5.06847e-07)
(4.58829e-06 -1.97107e-06 5.91042e-07)
(4.56306e-06 -1.95686e-06 6.7131e-07)
(4.539e-06 -1.9434e-06 7.08858e-07)
(4.51606e-06 -1.93066e-06 7.16929e-07)
(4.49419e-06 -1.9186e-06 7.24252e-07)
(4.47335e-06 -1.9072e-06 7.30862e-07)
(4.45351e-06 -1.89643e-06 7.368e-07)
(4.43462e-06 -1.88627e-06 7.42102e-07)
(4.41665e-06 -1.87668e-06 7.46797e-07)
(4.39956e-06 -1.86764e-06 7.50923e-07)
(4.38332e-06 -1.85914e-06 7.54506e-07)
(4.3679e-06 -1.85114e-06 7.57576e-07)
(4.35327e-06 -1.84364e-06 7.60159e-07)
(4.3394e-06 -1.8366e-06 7.62282e-07)
(4.32626e-06 -1.83001e-06 7.63969e-07)
(4.31382e-06 -1.82386e-06 7.65242e-07)
(4.30207e-06 -1.81811e-06 7.66125e-07)
(4.29097e-06 -1.81277e-06 7.66638e-07)
(4.2805e-06 -1.80781e-06 7.66801e-07)
(4.27065e-06 -1.80322e-06 7.66632e-07)
(4.26138e-06 -1.79898e-06 7.66153e-07)
(4.25269e-06 -1.79508e-06 7.65373e-07)
(4.24455e-06 -1.79151e-06 7.64313e-07)
(4.23694e-06 -1.78825e-06 7.62988e-07)
(4.22984e-06 -1.7853e-06 7.61414e-07)
(4.22324e-06 -1.78263e-06 7.59603e-07)
(4.21711e-06 -1.78025e-06 7.57571e-07)
(4.21146e-06 -1.77813e-06 7.5533e-07)
(4.20625e-06 -1.77628e-06 7.52891e-07)
(4.20147e-06 -1.77467e-06 7.50267e-07)
(4.19712e-06 -1.77331e-06 7.47469e-07)
(4.19317e-06 -1.77217e-06 7.44507e-07)
(4.18962e-06 -1.77126e-06 7.4139e-07)
(4.18645e-06 -1.77057e-06 7.38129e-07)
(4.18365e-06 -1.77008e-06 7.34732e-07)
(4.1812e-06 -1.76979e-06 7.31207e-07)
(4.1791e-06 -1.76969e-06 7.27566e-07)
(4.17734e-06 -1.76978e-06 7.23812e-07)
(4.1759e-06 -1.77004e-06 7.19959e-07)
(4.17478e-06 -1.77048e-06 7.16006e-07)
(4.17397e-06 -1.77108e-06 7.11968e-07)
(4.17345e-06 -1.77185e-06 7.06644e-07)
(4.17322e-06 -1.77276e-06 7.01175e-07)
(4.17326e-06 -1.77383e-06 6.9565e-07)
(4.17358e-06 -1.77504e-06 6.90073e-07)
(4.17416e-06 -1.77638e-06 6.84453e-07)
(4.17499e-06 -1.77786e-06 6.78789e-07)
(4.17608e-06 -1.77947e-06 6.73089e-07)
(4.1774e-06 -1.7812e-06 6.67356e-07)
(4.17895e-06 -1.78305e-06 6.61595e-07)
(4.18073e-06 -1.78501e-06 6.5581e-07)
(4.18273e-06 -1.78709e-06 6.50003e-07)
(4.18494e-06 -1.78927e-06 6.44178e-07)
(4.18736e-06 -1.79155e-06 6.38337e-07)
(4.18998e-06 -1.79394e-06 6.32485e-07)
(4.1928e-06 -1.79642e-06 6.26624e-07)
(4.1958e-06 -1.79899e-06 6.20757e-07)
(4.19899e-06 -1.80165e-06 6.14887e-07)
(4.20236e-06 -1.80439e-06 6.09016e-07)
(4.2059e-06 -1.80722e-06 6.03146e-07)
(4.20961e-06 -1.81012e-06 5.97279e-07)
(4.21349e-06 -1.8131e-06 5.91416e-07)
(4.21752e-06 -1.81616e-06 5.85559e-07)
(4.22171e-06 -1.81928e-06 5.7971e-07)
(4.22605e-06 -1.82248e-06 5.73868e-07)
(4.23054e-06 -1.82574e-06 5.68039e-07)
(4.23517e-06 -1.82906e-06 5.62221e-07)
(4.23994e-06 -1.83244e-06 5.56411e-07)
(4.24484e-06 -1.83588e-06 5.50613e-07)
(4.24987e-06 -1.83937e-06 5.44835e-07)
(4.25503e-06 -1.84292e-06 5.39067e-07)
(4.26032e-06 -1.84652e-06 5.33316e-07)
(4.26571e-06 -1.85017e-06 5.27569e-07)
(4.27123e-06 -1.85387e-06 5.21822e-07)
(4.27687e-06 -1.85761e-06 5.16094e-07)
(4.28262e-06 -1.8614e-06 5.1038e-07)
(4.28847e-06 -1.86523e-06 5.04674e-07)
(4.29443e-06 -1.86909e-06 4.98977e-07)
(4.30048e-06 -1.873e-06 4.93289e-07)
(4.30664e-06 -1.87694e-06 4.87609e-07)
(4.31289e-06 -1.88092e-06 4.81939e-07)
(4.31923e-06 -1.88493e-06 4.76282e-07)
(4.32567e-06 -1.88897e-06 4.70642e-07)
(4.33219e-06 -1.89304e-06 4.65026e-07)
(4.3388e-06 -1.89715e-06 4.59455e-07)
(4.34549e-06 -1.90127e-06 4.53884e-07)
(4.35225e-06 -1.90543e-06 4.48519e-07)
(4.35911e-06 -1.9096e-06 4.42979e-07)
(4.95933e-06 -2.2314e-06 1.69305e-07)
(4.9151e-06 -2.20561e-06 1.83144e-07)
(4.87284e-06 -2.181e-06 1.96666e-07)
(4.83246e-06 -2.15766e-06 2.08897e-07)
(4.7939e-06 -2.13546e-06 2.20272e-07)
(4.75705e-06 -2.11438e-06 2.30712e-07)
(4.72186e-06 -2.09435e-06 2.4033e-07)
(4.68824e-06 -2.07533e-06 2.49124e-07)
(4.65614e-06 -2.05727e-06 2.5718e-07)
(4.62549e-06 -2.04014e-06 2.63291e-07)
(4.59622e-06 -2.02388e-06 3.38217e-07)
(4.56829e-06 -2.00846e-06 4.24948e-07)
(4.54163e-06 -1.99385e-06 5.06532e-07)
(4.51619e-06 -1.98e-06 5.14356e-07)
(4.49193e-06 -1.96688e-06 5.21428e-07)
(4.4688e-06 -1.95447e-06 5.27784e-07)
(4.44675e-06 -1.94272e-06 5.33469e-07)
(4.42574e-06 -1.93163e-06 5.38512e-07)
(4.40573e-06 -1.92114e-06 5.42949e-07)
(4.38668e-06 -1.91125e-06 5.46815e-07)
(4.36855e-06 -1.90193e-06 5.50136e-07)
(4.35132e-06 -1.89314e-06 5.52944e-07)
(4.33494e-06 -1.88488e-06 5.55265e-07)
(4.31938e-06 -1.87711e-06 5.57125e-07)
(4.30462e-06 -1.86983e-06 5.58548e-07)
(4.29062e-06 -1.863e-06 5.59557e-07)
(4.27736e-06 -1.85662e-06 5.60175e-07)
(4.26481e-06 -1.85066e-06 5.60422e-07)
(4.25295e-06 -1.8451e-06 5.6032e-07)
(4.24174e-06 -1.83994e-06 5.59886e-07)
(4.23117e-06 -1.83515e-06 5.59139e-07)
(4.22122e-06 -1.83072e-06 5.58094e-07)
(4.21186e-06 -1.82664e-06 5.56772e-07)
(4.20307e-06 -1.82289e-06 5.55184e-07)
(4.19484e-06 -1.81947e-06 5.53344e-07)
(4.18714e-06 -1.81635e-06 5.51268e-07)
(4.17996e-06 -1.81353e-06 5.48969e-07)
(4.17327e-06 -1.811e-06 5.4646e-07)
(4.16707e-06 -1.80874e-06 5.43753e-07)
(4.16134e-06 -1.80674e-06 5.40859e-07)
(4.15605e-06 -1.805e-06 5.37791e-07)
(4.1512e-06 -1.80351e-06 5.34559e-07)
(4.14678e-06 -1.80225e-06 5.31173e-07)
(4.14276e-06 -1.80122e-06 5.27641e-07)
(4.13914e-06 -1.80041e-06 5.23975e-07)
(4.1359e-06 -1.79981e-06 5.20179e-07)
(4.13303e-06 -1.79941e-06 5.16265e-07)
(4.13052e-06 -1.79921e-06 5.12238e-07)
(4.12836e-06 -1.7992e-06 5.0811e-07)
(4.12654e-06 -1.79937e-06 5.03883e-07)
(4.12504e-06 -1.79972e-06 4.9957e-07)
(4.12386e-06 -1.80023e-06 4.9517e-07)
(4.12298e-06 -1.80091e-06 4.90274e-07)
(4.1224e-06 -1.80174e-06 4.84435e-07)
(4.12211e-06 -1.80273e-06 4.78545e-07)
(4.1221e-06 -1.80386e-06 4.72611e-07)
(4.12236e-06 -1.80514e-06 4.66635e-07)
(4.12289e-06 -1.80655e-06 4.60622e-07)
(4.12367e-06 -1.80809e-06 4.54575e-07)
(4.12469e-06 -1.80976e-06 4.48296e-07)
(4.12596e-06 -1.81154e-06 4.42961e-07)
(4.12746e-06 -1.81345e-06 4.37765e-07)
(4.12918e-06 -1.81547e-06 4.32539e-07)
(4.13113e-06 -1.8176e-06 4.27288e-07)
(4.13329e-06 -1.81983e-06 4.22015e-07)
(4.13565e-06 -1.82217e-06 4.16721e-07)
(4.13822e-06 -1.8246e-06 4.1141e-07)
(4.14098e-06 -1.82712e-06 4.06084e-07)
(4.14394e-06 -1.82974e-06 4.00745e-07)
(4.14707e-06 -1.83245e-06 3.95397e-07)
(4.15039e-06 -1.83523e-06 3.9004e-07)
(4.15388e-06 -1.8381e-06 3.8446e-07)
(4.15754e-06 -1.84105e-06 3.78178e-07)
(4.16136e-06 -1.84408e-06 3.71898e-07)
(4.16534e-06 -1.84717e-06 3.65622e-07)
(4.16948e-06 -1.85034e-06 3.59352e-07)
(4.17376e-06 -1.85357e-06 3.53087e-07)
(4.1782e-06 -1.85687e-06 3.46835e-07)
(4.18277e-06 -1.86022e-06 3.40584e-07)
(4.18748e-06 -1.86364e-06 3.34357e-07)
(4.19234e-06 -1.86712e-06 3.28126e-07)
(4.19732e-06 -1.87065e-06 3.21914e-07)
(4.20242e-06 -1.87424e-06 3.1571e-07)
(4.20765e-06 -1.87787e-06 3.09529e-07)
(4.21299e-06 -1.88154e-06 3.03374e-07)
(4.21846e-06 -1.88527e-06 2.97199e-07)
(4.22404e-06 -1.88906e-06 2.91028e-07)
(4.22974e-06 -1.89288e-06 2.84886e-07)
(4.23553e-06 -1.89674e-06 2.78748e-07)
(4.24143e-06 -1.90064e-06 2.72628e-07)
(4.24743e-06 -1.90457e-06 2.66521e-07)
(4.25353e-06 -1.90855e-06 2.60431e-07)
(4.25972e-06 -1.91256e-06 2.54359e-07)
(4.26601e-06 -1.9166e-06 2.4831e-07)
(4.27239e-06 -1.92067e-06 2.42289e-07)
(4.27885e-06 -1.92477e-06 2.36301e-07)
(4.2854e-06 -1.9289e-06 2.30368e-07)
(4.29203e-06 -1.93306e-06 2.24437e-07)
(4.29874e-06 -1.93725e-06 2.18709e-07)
(4.30553e-06 -1.94145e-06 2.12816e-07)
(4.9159e-06 -2.24814e-06 -5.4981e-08)
(4.8713e-06 -2.223e-06 -3.71289e-08)
(4.8287e-06 -2.199e-06 -1.97401e-08)
(4.78799e-06 -2.17624e-06 -4.39241e-09)
(4.74911e-06 -2.1546e-06 9.65025e-09)
(4.71197e-06 -2.13405e-06 2.22115e-08)
(4.67649e-06 -2.11453e-06 3.35145e-08)
(4.64261e-06 -2.09599e-06 4.35424e-08)
(4.61025e-06 -2.0784e-06 5.24236e-08)
(4.57936e-06 -2.0617e-06 1.3771e-07)
(4.54986e-06 -2.04586e-06 2.3174e-07)
(4.52171e-06 -2.03084e-06 3.03338e-07)
(4.49484e-06 -2.01661e-06 3.11033e-07)
(4.4692e-06 -2.00313e-06 3.17927e-07)
(4.44475e-06 -1.99036e-06 3.24182e-07)
(4.42143e-06 -1.97828e-06 3.29833e-07)
(4.39921e-06 -1.96686e-06 3.3491e-07)
(4.37803e-06 -1.95607e-06 3.39443e-07)
(4.35786e-06 -1.94588e-06 3.4346e-07)
(4.33866e-06 -1.93626e-06 3.46988e-07)
(4.32039e-06 -1.92721e-06 3.49995e-07)
(4.30301e-06 -1.91868e-06 3.52284e-07)
(4.2865e-06 -1.91066e-06 3.54101e-07)
(4.27081e-06 -1.90313e-06 3.5547e-07)
(4.25593e-06 -1.89607e-06 3.56416e-07)
(4.24181e-06 -1.88946e-06 3.56961e-07)
(4.22844e-06 -1.88328e-06 3.57125e-07)
(4.21578e-06 -1.87752e-06 3.56928e-07)
(4.2038e-06 -1.87216e-06 3.5639e-07)
(4.1925e-06 -1.86717e-06 3.55528e-07)
(4.18183e-06 -1.86256e-06 3.54362e-07)
(4.17178e-06 -1.8583e-06 3.52905e-07)
(4.16233e-06 -1.85438e-06 3.51176e-07)
(4.15345e-06 -1.85079e-06 3.49187e-07)
(4.14513e-06 -1.84751e-06 3.46953e-07)
(4.13735e-06 -1.84454e-06 3.44487e-07)
(4.13008e-06 -1.84186e-06 3.41802e-07)
(4.12332e-06 -1.83945e-06 3.3891e-07)
(4.11704e-06 -1.83732e-06 3.35824e-07)
(4.11123e-06 -1.83545e-06 3.32553e-07)
(4.10587e-06 -1.83383e-06 3.29112e-07)
(4.10095e-06 -1.83244e-06 3.25508e-07)
(4.09646e-06 -1.83129e-06 3.21753e-07)
(4.09237e-06 -1.83037e-06 3.17853e-07)
(4.08868e-06 -1.82966e-06 3.13819e-07)
(4.08538e-06 -1.82915e-06 3.09657e-07)
(4.08245e-06 -1.82885e-06 3.05379e-07)
(4.07988e-06 -1.82874e-06 3.00987e-07)
(4.07765e-06 -1.82882e-06 2.96495e-07)
(4.07577e-06 -1.82907e-06 2.91904e-07)
(4.07421e-06 -1.8295e-06 2.87227e-07)
(4.07297e-06 -1.83009e-06 2.82464e-07)
(4.07203e-06 -1.83085e-06 2.76473e-07)
(4.0714e-06 -1.83175e-06 2.70252e-07)
(4.07105e-06 -1.83281e-06 2.63977e-07)
(4.07099e-06 -1.83401e-06 2.57657e-07)
(4.07119e-06 -1.83535e-06 2.51295e-07)
(4.07166e-06 -1.83683e-06 2.44895e-07)
(4.07238e-06 -1.83843e-06 2.38459e-07)
(4.07335e-06 -1.84016e-06 2.31993e-07)
(4.07457e-06 -1.84201e-06 2.255e-07)
(4.07601e-06 -1.84397e-06 2.18984e-07)
(4.07768e-06 -1.84604e-06 2.12448e-07)
(4.07958e-06 -1.84822e-06 2.05895e-07)
(4.08168e-06 -1.85051e-06 1.99327e-07)
(4.084e-06 -1.8529e-06 1.92749e-07)
(4.08651e-06 -1.85538e-06 1.86162e-07)
(4.08922e-06 -1.85795e-06 1.79569e-07)
(4.09212e-06 -1.86062e-06 1.72972e-07)
(4.0952e-06 -1.86337e-06 1.66374e-07)
(4.09847e-06 -1.8662e-06 1.59776e-07)
(4.1019e-06 -1.86911e-06 1.5318e-07)
(4.10551e-06 -1.8721e-06 1.46587e-07)
(4.10928e-06 -1.87517e-06 1.39999e-07)
(4.11321e-06 -1.87831e-06 1.33416e-07)
(4.11729e-06 -1.88151e-06 1.26843e-07)
(4.12152e-06 -1.88479e-06 1.20268e-07)
(4.1259e-06 -1.88812e-06 1.13722e-07)
(4.13041e-06 -1.89152e-06 1.07147e-07)
(4.13509e-06 -1.89497e-06 1.00656e-07)
(4.1399e-06 -1.89848e-06 9.4178e-08)
(4.14481e-06 -1.90205e-06 8.76332e-08)
(4.14986e-06 -1.90567e-06 8.11458e-08)
(4.15503e-06 -1.90935e-06 7.46327e-08)
(4.16032e-06 -1.91306e-06 6.82002e-08)
(4.16575e-06 -1.9168e-06 6.1849e-08)
(4.17129e-06 -1.92062e-06 5.54227e-08)
(4.17691e-06 -1.92447e-06 4.89816e-08)
(4.18265e-06 -1.92837e-06 4.25805e-08)
(4.18849e-06 -1.9323e-06 3.61889e-08)
(4.19443e-06 -1.93627e-06 2.98261e-08)
(4.20047e-06 -1.94027e-06 2.3485e-08)
(4.20661e-06 -1.94431e-06 1.71721e-08)
(4.21284e-06 -1.94839e-06 1.08918e-08)
(4.21916e-06 -1.95249e-06 4.64744e-09)
(4.22557e-06 -1.95662e-06 -1.55536e-09)
(4.23206e-06 -1.96078e-06 -7.69578e-09)
(4.23863e-06 -1.96497e-06 -1.3828e-08)
(4.24528e-06 -1.96919e-06 -1.97621e-08)
(4.25201e-06 -1.97341e-06 -2.58553e-08)
(4.87217e-06 -2.26475e-06 -3.61296e-07)
(4.82723e-06 -2.24028e-06 -3.49871e-07)
(4.7843e-06 -2.2169e-06 -3.38568e-07)
(4.74327e-06 -2.19474e-06 -3.29032e-07)
(4.7041e-06 -2.17366e-06 -3.20505e-07)
(4.66667e-06 -2.15365e-06 -3.13223e-07)
(4.63093e-06 -2.13464e-06 -3.06938e-07)
(4.59679e-06 -2.1166e-06 -2.64231e-07)
(4.56419e-06 -2.09947e-06 -1.63779e-07)
(4.53307e-06 -2.08322e-06 -6.83088e-08)
(4.50335e-06 -2.06781e-06 2.24325e-08)
(4.47499e-06 -2.0532e-06 1.08681e-07)
(4.44792e-06 -2.03936e-06 1.25766e-07)
(4.42209e-06 -2.02625e-06 1.30981e-07)
(4.39746e-06 -2.01384e-06 1.35559e-07)
(4.37397e-06 -2.0021e-06 1.39527e-07)
(4.35157e-06 -1.991e-06 1.42921e-07)
(4.33024e-06 -1.98052e-06 1.45771e-07)
(4.30992e-06 -1.97063e-06 1.48103e-07)
(4.29057e-06 -1.9613e-06 1.49948e-07)
(4.27216e-06 -1.95251e-06 1.51329e-07)
(4.25465e-06 -1.94425e-06 1.52272e-07)
(4.23801e-06 -1.93648e-06 1.52799e-07)
(4.2222e-06 -1.92919e-06 1.52931e-07)
(4.2072e-06 -1.92236e-06 1.52691e-07)
(4.19297e-06 -1.91597e-06 1.52097e-07)
(4.17948e-06 -1.91e-06 1.5117e-07)
(4.16672e-06 -1.90444e-06 1.49925e-07)
(4.15464e-06 -1.89927e-06 1.48381e-07)
(4.14324e-06 -1.89447e-06 1.46552e-07)
(4.13247e-06 -1.89004e-06 1.44456e-07)
(4.12233e-06 -1.88595e-06 1.42106e-07)
(4.11279e-06 -1.88219e-06 1.39517e-07)
(4.10383e-06 -1.87876e-06 1.36701e-07)
(4.09543e-06 -1.87563e-06 1.33672e-07)
(4.08756e-06 -1.8728e-06 1.30439e-07)
(4.08022e-06 -1.87026e-06 1.27016e-07)
(4.07338e-06 -1.86799e-06 1.23412e-07)
(4.06703e-06 -1.86599e-06 1.19638e-07)
(4.06114e-06 -1.86424e-06 1.15705e-07)
(4.05572e-06 -1.86273e-06 1.11622e-07)
(4.05073e-06 -1.86147e-06 1.07398e-07)
(4.04617e-06 -1.86043e-06 1.03044e-07)
(4.04201e-06 -1.85961e-06 9.85642e-08)
(4.03826e-06 -1.859e-06 9.39702e-08)
(4.03489e-06 -1.85859e-06 8.92644e-08)
(4.0319e-06 -1.85839e-06 8.44598e-08)
(4.02927e-06 -1.85837e-06 7.95579e-08)
(4.02698e-06 -1.85853e-06 7.45709e-08)
(4.02504e-06 -1.85887e-06 6.94997e-08)
(4.02342e-06 -1.85938e-06 6.43541e-08)
(4.02212e-06 -1.86005e-06 5.83905e-08)
(4.02113e-06 -1.86088e-06 5.17751e-08)
(4.02044e-06 -1.86187e-06 4.51161e-08)
(4.02004e-06 -1.863e-06 3.84166e-08)