/*--------------------------------*- C++ -*----------------------------------*\
| =========                 |                                                 |
| \\      /  F ield         | foam-extend: Open Source CFD                    |
|  \\    /   O peration     | Version:     4.1                                |
|   \\  /    A nd           | Web:         http://www.foam-extend.org         |
|    \\/     M anipulation  |                                                 |
\*---------------------------------------------------------------------------*/
FoamFile
{
    version     2.0;
    format      ascii;
    class       volScalarField;
    location    "1";
    object      epsilonEq;
}
// * * * * * * * * * * * * * * * * * * * * * * * * * * * * * * * * * * * * * //

dimensions      [0 0 0 0 0 0 0];

internalField   nonuniform List<scalar> 
100000
(
0.0900895
0.0641596
0.0922484
0.117453
0.149058
0.200209
0.178807
0.17626
0.15223
0.158029
0.181647
0.212407
0.229723
0.246909
0.246329
0.232291
0.201961
0.173205
0.14317
0.114491
0.0915037
0.07636
0.0572543
0.0421814
0.0349019
0.0389654
0.052356
0.0603058
0.062983
0.0674245
0.0702455
0.0699551
0.0696854
0.0693946
0.0690559
0.0687085
0.0683526
0.0679881
0.0676135
0.0668642
0.0660573
0.0652963
0.0657849
0.0747183
0.0834964
0.0918523
0.0998137
0.107375
0.114581
0.121423
0.127898
0.134006
0.139783
0.145282
0.150498
0.155296
0.159453
0.163855
0.168878
0.172884
0.17656
0.179985
0.183185
0.186153
0.188918
0.191582
0.19296
0.192794
0.192311
0.191983
0.192316
0.192776
0.193117
0.193346
0.193477
0.193501
0.193419
0.193282
0.193052
0.192694
0.192639
0.191542
0.188995
0.186434
0.183866
0.181575
0.179
0.176528
0.17417
0.171781
0.16938
0.166071
0.162561
0.161655
0.160542
0.158956
0.156857
0.153862
0.150535
0.146109
0.106275
0.108144
0.100588
0.0581962
0.126955
0.169635
0.18886
0.163251
0.150458
0.157723
0.176097
0.162627
0.138102
0.119147
0.101592
0.085417
0.0673172
0.0496654
0.0450003
0.0528707
0.0670393
0.0661554
0.065289
0.0629086
0.059978
0.0592862
0.0591706
0.0591195
0.0585937
0.0613021
0.0699358
0.0871847
0.103138
0.117795
0.13201
0.145402
0.157901
0.169827
0.181196
0.191992
0.202263
0.211827
0.221447
0.230894
0.238766
0.24619
0.251834
0.254619
0.257106
0.25925
0.261139
0.262819
0.264291
0.265571
0.26662
0.267016
0.267805
0.268992
0.269729
0.270281
0.270571
0.270702
0.27068
0.270582
0.270075
0.269193
0.266451
0.261948
0.257061
0.24948
0.242673
0.236042
0.22954
0.223358
0.2176
0.209222
0.200857
0.192703
0.184689
0.176791
0.16848
0.160071
0.151902
0.143863
0.135755
0.127212
0.119191
0.11384
0.108525
0.103906
0.0986563
0.0934001
0.0884718
0.0845117
0.0805047
0.0763895
0.0742
0.0735855
0.0754997
0.0936723
0.228347
0.155454
0.16747
0.145548
0.146201
0.0977921
0.0822074
0.0406635
0.0389211
0.0496942
0.0557088
0.0537203
0.0641402
0.0791733
0.0837074
0.0805057
0.0686466
0.0688575
0.0687973
0.0675578
0.0683794
0.0761161
0.0833986
0.0877668
0.0935681
0.0996753
0.10532
0.110584
0.115299
0.122826
0.137371
0.152457
0.163653
0.173452
0.182756
0.191254
0.199096
0.206315
0.212839
0.218739
0.224101
0.228684
0.231066
0.224207
0.21715
0.209938
0.202454
0.195339
0.188723
0.182395
0.176156
0.169993
0.16355
0.157121
0.150329
0.143653
0.13741
0.131185
0.125191
0.119212
0.112722
0.106398
0.10022
0.09415
0.0870251
0.0772504
0.0692675
0.0647214
0.0599501
0.0548691
0.0500498
0.0458135
0.0409547
0.0331773
0.0251449
0.0181342
0.011367
0.00546232
0.00258072
0.00753833
0.0129555
0.0166052
0.0187709
0.0209472
0.0232563
0.0254679
0.027434
0.0293641
0.0312823
0.0345007
0.0377853
0.0398096
0.0414586
0.0430758
0.0447726
0.046985
0.0496932
0.05091
0.0459499
0.0424736
0.0389821
0.0482646
0.036738
0.168923
0.17607
0.124294
0.0950632
0.0522844
0.0295908
0.043415
0.0454559
0.0382873
0.0350692
0.0317551
0.0123607
0.0162957
0.030115
0.0450975
0.0472992
0.0542081
0.0681451
0.0792712
0.0789011
0.0775561
0.0787734
0.0799114
0.0808323
0.0815009
0.081966
0.083361
0.084638
0.0775007
0.0705608
0.0641805
0.0589831
0.054405
0.0500027
0.0458578
0.041776
0.0374205
0.0330837
0.0285924
0.0241976
0.0207995
0.0186979
0.0180006
0.0182872
0.0182387
0.0184515
0.0174827
0.0163748
0.0149322
0.0135479
0.0123363
0.0112566
0.0106334
0.0113911
0.0144499
0.0181846
0.0220399
0.0265437
0.0342596
0.0427235
0.0500527
0.0570706
0.0640205
0.0701534
0.0765177
0.0828265
0.0870287
0.0919694
0.0952363
0.0984333
0.101941
0.105394
0.106083
0.106662
0.107323
0.107771
0.108243
0.108324
0.108232
0.108161
0.108111
0.108607
0.109459
0.110358
0.111302
0.113089
0.11532
0.116597
0.11793
0.119419
0.121524
0.123769
0.126251
0.128547
0.129306
0.132494
0.140297
0.141052
0.164553
0.167051
0.307272
0.28235
0.258988
0.238584
0.225794
0.229754
0.236214
0.221176
0.150972
0.103905
0.0623721
0.0512023
0.0407053
0.0392686
0.0468742
0.0621542
0.0678804
0.064619
0.0588511
0.0529064
0.0512089
0.0514977
0.0520568
0.0528244
0.0539333
0.0551952
0.0575518
0.0599945
0.0580169
0.0571244
0.0565158
0.0548774
0.0529792
0.0503933
0.0479181
0.0448712
0.0418017
0.0391069
0.0360074
0.0325355
0.0293038
0.0263907
0.0237213
0.0213022
0.0192776
0.0205638
0.0224372
0.0240324
0.0284942
0.033351
0.0385324
0.0440405
0.0484703
0.0533601
0.0592115
0.0650425
0.0699708
0.0743698
0.0789908
0.0835065
0.0878196
0.0912326
0.0917463
0.0925634
0.0952612
0.0978888
0.100477
0.103723
0.107065
0.10919
0.109002
0.109011
0.109518
0.11003
0.111155
0.112347
0.111694
0.11037
0.109091
0.107987
0.107139
0.106484
0.105862
0.105117
0.104692
0.105448
0.105047
0.104614
0.104283
0.104049
0.104159
0.10452
0.104153
0.103383
0.102516
0.105106
0.109001
0.168024
0.166875
0.244069
0.325222
0.281408
0.25856
0.22741
0.231
0.245972
0.187794
0.118366
0.0802288
0.0454934
0.0429744
0.0385864
0.0356213
0.0340546
0.0319469
0.0322582
0.0477606
0.0626109
0.0682918
0.0662284
0.0626417
0.0581591
0.0534244
0.0489225
0.0449618
0.0417446
0.0398359
0.0401288
0.0369959
0.0327614
0.0333515
0.0341513
0.0336706
0.0335254
0.0329088
0.0325235
0.0325098
0.032704
0.0351837
0.0388833
0.034989
0.029368
0.0252334
0.024936
0.0282786
0.0340077
0.0384598
0.0484677
0.059958
0.0709884
0.080974
0.090053
0.0989413
0.101244
0.101025
0.100579
0.0998895
0.0995555
0.0972449
0.0942032
0.0925906
0.0910116
0.0894312
0.0878776
0.0861176
0.0843801
0.0826429
0.0807623
0.08047
0.0789861
0.0774326
0.0757833
0.0740424
0.0722116
0.0703973
0.0685309
0.0667019
0.0651701
0.0637434
0.0624736
0.061371
0.0597112
0.0573487
0.055065
0.0540191
0.0533207
0.0526118
0.0520269
0.0515182
0.0511788
0.0509781
0.0507138
0.0506804
0.0509781
0.0506257
0.0522013
0.0540946
0.168438
0.17122
0.295574
0.322934
0.279282
0.255106
0.231972
0.245587
0.166749
0.0986479
0.0793283
0.0570727
0.0383081
0.037437
0.0393869
0.0387677
0.039079
0.0389363
0.0421835
0.0457258
0.0418606
0.0435578
0.050207
0.0518229
0.0517618
0.0507657
0.0496146
0.0481649
0.0474323
0.0479833
0.0502135
0.0525618
0.0534703
0.0580831
0.0675103
0.0778002
0.0826728
0.0739664
0.065656
0.0557772
0.0476422
0.0424592
0.0250366
0.00585889
0.0140901
0.0252447
0.0356423
0.0456765
0.0553673
0.0646902
0.0640687
0.0622453
0.0605501
0.0588738
0.0574179
0.0556718
0.0540495
0.052552
0.0513323
0.0498398
0.0483056
0.0473984
0.0456915
0.0438481
0.0420626
0.0404506
0.0388626
0.0372957
0.0357375
0.034187
0.0325824
0.0314875
0.0306603
0.0279979
0.0253892
0.0228245
0.0203294
0.017903
0.0155396
0.0149073
0.0162887
0.0172494
0.0181443
0.0189269
0.0176888
0.0189587
0.021768
0.024683
0.0268274
0.0285524
0.0298551
0.0312599
0.0328157
0.0341805
0.0352934
0.0384724
0.0416071
0.0449403
0.0515623
0.0517222
0.233817
0.215061
0.316759
0.322518
0.279081
0.255447
0.247251
0.154001
0.13075
0.118341
0.0914645
0.073017
0.0630714
0.0639209
0.0667188
0.06806
0.0692783
0.0694822
0.0715813
0.0733222
0.0735755
0.0702327
0.0645756
0.0677442
0.0693603
0.0766605
0.0892118
0.102541
0.11563
0.128773
0.142062
0.130676
0.121177
0.1162
0.110652
0.0982484
0.0769617
0.0608752
0.049302
0.0377787
0.0272007
0.0108561
0.00640585
0.0119469
0.0132313
0.0124506
0.0115802
0.0106389
0.00966158
0.00861368
0.007653
0.00651709
0.0052273
0.0040399
0.00311414
0.00280049
0.00330372
0.00477772
0.00624909
0.0077202
0.00926148
0.0100801
0.0104815
0.0104199
0.0105831
0.0106241
0.0108913
0.0111604
0.0114307
0.0120615
0.0131328
0.0139845
0.0157262
0.0169469
0.0179972
0.0191996
0.0204944
0.0218009
0.0231923
0.0247157
0.0261949
0.0275778
0.0288853
0.0300868
0.0312359
0.0321861
0.0337036
0.0355513
0.0359958
0.035846
0.0357639
0.0364384
0.0395787
0.0423498
0.0396947
0.0393771
0.037367
0.0345404
0.0254982
0.00582214
0.341472
0.262158
0.32254
0.324892
0.280687
0.202358
0.136535
0.200329
0.184979
0.129822
0.106707
0.0917054
0.0843743
0.0890553
0.096623
0.103146
0.109325
0.116783
0.121345
0.130168
0.14069
0.154385
0.172801
0.188328
0.198873
0.211692
0.196516
0.177085
0.166247
0.15641
0.136959
0.11776
0.102201
0.0829837
0.0584508
0.0343246
0.0163837
0.0130478
0.0100288
0.00888643
0.00707216
0.00718139
0.00878044
0.00759238
0.00631163
0.00513903
0.00412858
0.00340968
0.00311808
0.00334477
0.00361412
0.00363316
0.00408596
0.00473187
0.00557982
0.00651164
0.00726741
0.00795759
0.00857857
0.00987983
0.0113901
0.0126021
0.0139951
0.0152997
0.0161316
0.0170192
0.0179065
0.0187557
0.0200318
0.0215203
0.0228342
0.0238894
0.024727
0.0266477
0.0274187
0.0283518
0.0292915
0.0302383
0.0311945
0.0318786
0.0322062
0.032548
0.0328998
0.0332661
0.0335958
0.0339661
0.0351456
0.036241
0.0358332
0.031635
0.0288375
0.0294803
0.0306728
0.0175313
0.00543162
0.00433901
0.0119972
0.0203325
0.028531
0.0326381
0.324518
0.280575
0.316533
0.311596
0.142561
0.0625492
0.178456
0.231714
0.195062
0.151788
0.142884
0.139007
0.147148
0.156444
0.172228
0.190136
0.210142
0.232118
0.252889
0.271429
0.286311
0.302614
0.312413
0.283738
0.25636
0.211189
0.163904
0.119494
0.0768874
0.0373872
0.0206528
0.0182362
0.0174253
0.0172233
0.0180139
0.0183214
0.0165496
0.0158336
0.0163738
0.0170357
0.0178551
0.0161911
0.0130559
0.0106007
0.00813743
0.00774499
0.00784204
0.00855848
0.00934496
0.010219
0.0111187
0.012458
0.0138946
0.0152952
0.0166463
0.0177598
0.018777
0.0198729
0.0211609
0.0224032
0.0235173
0.0243672
0.0254421
0.0267303
0.0279627
0.0289202
0.0294841
0.0301651
0.0308166
0.0311457
0.0313526
0.0315663
0.0317476
0.0324638
0.0332747
0.0334147
0.0335477
0.0342395
0.035499
0.0367214
0.0379008
0.0390368
0.0374359
0.0311753
0.0257582
0.0231063
0.0216053
0.0189258
0.0115066
0.00603109
0.0032088
0.00425368
0.0111941
0.0186726
0.0188881
0.0193236
0.0201025
0.0209081
0.0217042
0.0227848
0.217387
0.244568
0.28
0.0944317
0.0995242
0.15543
0.239555
0.277991
0.241539
0.212714
0.220382
0.233377
0.254806
0.276806
0.291737
0.304025
0.315543
0.327694
0.339986
0.331503
0.293273
0.251059
0.199578
0.154665
0.110381
0.0677756
0.0524186
0.041957
0.0253946
0.00365578
0.0188634
0.0347549
0.0368069
0.038765
0.0395197
0.0401849
0.0398606
0.0385618
0.0373897
0.0374811
0.0376161
0.0378377
0.0381396
0.0359238
0.0336836
0.0318402
0.0302273
0.0301706
0.0312827
0.0322453
0.0331388
0.0340899
0.0349008
0.0355365
0.0362035
0.0368904
0.0391254
0.0383235
0.0388563
0.0389104
0.0389886
0.0390679
0.038822
0.0392189
0.039887
0.0403541
0.0420179
0.0433021
0.0443361
0.0454362
0.0465035
0.0474987
0.0487705
0.0499284
0.0525017
0.0541549
0.0516347
0.0455368
0.0394703
0.0333392
0.0273827
0.0223879
0.0181687
0.017115
0.0118697
0.00757725
0.00402885
0.00196284
0.00495244
0.00538299
0.00616057
0.00704532
0.00795899
0.0084665
0.00924093
0.0102752
0.0113431
0.0123786
0.0135313
0.0143898
0.171452
0.1658
0.0730412
0.164959
0.212384
0.2439
0.30988
0.31251
0.29637
0.29709
0.301209
0.308447
0.319418
0.338874
0.342041
0.341544
0.313317
0.272765
0.227634
0.176789
0.132816
0.0856302
0.0451912
0.0394724
0.0331067
0.0261225
0.0201681
0.0174537
0.0166348
0.0159205
0.0159212
0.0187185
0.0325224
0.0429185
0.0511656
0.0518738
0.0526932
0.0531217
0.052701
0.0524073
0.0528535
0.0533822
0.053932
0.0544724
0.0552115
0.0541398
0.0527124
0.0509624
0.049202
0.0469788
0.0467794
0.0467328
0.046708
0.0466917
0.0468189
0.0482603
0.0496859
0.0511051
0.052509
0.0539049
0.0552884
0.0566529
0.0576065
0.0587492
0.0602009
0.0622926
0.0641014
0.0655257
0.0669282
0.065359
0.0594122
0.0536772
0.0480922
0.04254
0.0371748
0.0313063
0.0254202
0.0221793
0.018752
0.0155963
0.0101661
0.00422995
0.00275484
0.00550734
0.00750859
0.0070076
0.00624461
0.00540191
0.00454096
0.00365851
0.00268062
0.00178367
0.000949051
0.000591421
0.000786552
0.00103151
0.00125225
0.00166149
0.00203387
0.00240903
0.172428
0.147395
0.107274
0.181036
0.205112
0.293927
0.377259
0.389289
0.375995
0.360744
0.345444
0.340108
0.328587
0.303388
0.257414
0.202318
0.148008
0.101968
0.052869
0.0171295
0.0129639
0.016326
0.0163234
0.0173698
0.018528
0.0181078
0.0176247
0.0170446
0.0165109
0.0160414
0.0156288
0.0144062
0.0179512
0.0250348
0.0325923
0.0422246
0.0504575
0.0581911
0.0600782
0.0588683
0.0577544
0.0569721
0.0573344
0.0576135
0.0589866
0.0608889
0.062743
0.0631666
0.0622141
0.0614453
0.0610383
0.06051
0.0602937
0.0617013
0.0632934
0.064891
0.0662109
0.0675162
0.0688104
0.0700894
0.0713504
0.0725949
0.0711349
0.064888
0.0593182
0.0541859
0.048191
0.0420612
0.0348152
0.0270395
0.0212708
0.0151304
0.00908248
0.00475845
0.00491777
0.00813651
0.00820704
0.00360468
0.00388956
0.00668134
0.00942352
0.00951635
0.00902478
0.00868539
0.00818322
0.00764558
0.00694953
0.00636817
0.00618873
0.00657604
0.00656512
0.00655885
0.00656083
0.00660325
0.00706491
0.0180278
0.0258828
0.0316376
0.0376996
0.0430345
0.166359
0.171111
0.206594
0.193351
0.234602
0.329786
0.365578
0.372785
0.366369
0.360515
0.313564
0.249405
0.189899
0.129922
0.0807912
0.0327277
0.0103372
0.00149842
0.0100953
0.0156161
0.0192077
0.019046
0.019171
0.0188713
0.017135
0.0165313
0.0171032
0.0172007
0.016559
0.0160726
0.0156579
0.0148514
0.0132298
0.0120224
0.0124025
0.0184827
0.026715
0.0338006
0.042129
0.0506262
0.0579385
0.064605
0.0709743
0.0751252
0.0769299
0.0784067
0.079815
0.0811782
0.0821941
0.0836025
0.0834683
0.0833083
0.0833763
0.0835466
0.0834166
0.0798426
0.0725476
0.0653895
0.0583727
0.0515069
0.0448032
0.0373091
0.0293902
0.0227202
0.0155128
0.00900778
0.00391484
0.00498295
0.0104126
0.0137492
0.0119311
0.00832151
0.00560683
0.0016563
0.00549713
0.00730415
0.00895449
0.0123221
0.0113151
0.0102264
0.00921262
0.00821492
0.00721715
0.00685726
0.00629497
0.00574582
0.0137099
0.0248686
0.034745
0.0406916
0.0465719
0.0523795
0.0581081
0.0637684
0.0725858
0.0826065
0.0859648
0.0911724
0.0972064
0.102387
0.147561
0.276678
0.264282
0.203797
0.252316
0.286557
0.305009
0.315165
0.297012
0.201146
0.10029
0.0489934
0.0311669
0.0196845
0.00761169
0.00765985
0.0133969
0.0204236
0.0213495
0.0210707
0.0208177
0.0202756
0.0205996
0.0196339
0.0190903
0.0193593
0.0192947
0.0185152
0.0186697
0.0195039
0.0199257
0.0197509
0.0189611
0.019724
0.0215503
0.0228898
0.0240128
0.0254828
0.0319481
0.040256
0.0482425
0.0556928
0.0613383
0.0666672
0.0710962
0.0750635
0.0788004
0.0820459
0.0851382
0.0826
0.0772252
0.071751
0.0659515
0.0585603
0.0492419
0.0398008
0.0313913
0.0227963
0.0145481
0.00795488
0.00508595
0.00899729
0.0124533
0.0117988
0.0116089
0.011467
0.0122289
0.0101806
0.00746172
0.00444411
0.0027087
0.00424517
0.00486149
0.0065429
0.00565784
0.00463484
0.00457656
0.0141045
0.0255784
0.0365177
0.0474557
0.0536385
0.0590721
0.0644863
0.0699566
0.0760179
0.0854598
0.0918112
0.0954271
0.100246
0.106914
0.113815
0.119931
0.116013
0.108199
0.0896036
0.0741574
0.0608864
0.0475739
0.0253183
0.19601
0.328281
0.263043
0.220221
0.260663
0.276271
0.289285
0.24258
0.161472
0.124422
0.12369
0.107345
0.0948192
0.0801253
0.0649736
0.0596256
0.0500261
0.0317422
0.0285363
0.0297073
0.0311191
0.0321589
0.0334289
0.0345711
0.0360506
0.0373617
0.03815
0.0389634
0.0398178
0.0399247
0.0393741
0.0393504
0.0395456
0.040349
0.0400447
0.0395703
0.0393152
0.039996
0.0405645
0.0408945
0.0410902
0.0413142
0.0415562
0.0413244
0.0358565
0.0305647
0.0253
0.0207421
0.0125569
0.00587613
0.00604916
0.00862486
0.0133631
0.0194938
0.0257334
0.0291974
0.0290393
0.0289666
0.0286264
0.028299
0.0295261
0.0312492
0.0324846
0.0323643
0.0231646
0.0132927
0.00215116
0.00978537
0.021066
0.0322759
0.0421628
0.0494686
0.0535671
0.0577187
0.0620444
0.0665209
0.0727725
0.0803567
0.086766
0.0930202
0.0953833
0.0980614
0.102056
0.106379
0.111079
0.116556
0.113852
0.0988998
0.081964
0.0692111
0.0569475
0.0445068
0.0255004
0.019155
0.0218038
0.0285928
0.0397844
0.0526164
0.0654366
0.0797454
0.329242
0.298393
0.341837
0.256676
0.251318
0.239869
0.184698
0.151904
0.181626
0.162528
0.159684
0.168606
0.180269
0.176835
0.159384
0.141513
0.135224
0.128106
0.12185
0.115806
0.110557
0.105882
0.0941077
0.0841033
0.0751274
0.066447
0.0581655
0.0543154
0.0535344
0.052786
0.0522192
0.0518776
0.0514936
0.0507155
0.04949
0.0487876
0.0483278
0.0476135
0.043627
0.0326888
0.022976
0.0163303
0.0129491
0.0143123
0.0255355
0.0350356
0.0442254
0.052612
0.0592418
0.0560555
0.0496743
0.0429801
0.0361162
0.0291337
0.0206875
0.0126552
0.00686743
0.0094627
0.0168651
0.0246071
0.0313002
0.0362103
0.0407579
0.0458261
0.0546583
0.0602564
0.0656746
0.0700663
0.0742187
0.0786984
0.0825972
0.0849533
0.0875669
0.0916574
0.0959
0.100081
0.102937
0.0979655
0.0929669
0.0875301
0.0823078
0.069026
0.0553595
0.0418502
0.0292625
0.0195339
0.00366827
0.0232406
0.0376144
0.050092
0.0638929
0.0782785
0.0921651
0.0960758
0.0963531
0.0967274
0.0966595
0.0964367
0.0958467
0.0970708
0.355487
0.407993
0.351236
0.263172
0.179826
0.132349
0.166778
0.189106
0.18561
0.176034
0.177095
0.188695
0.193483
0.197821
0.20078
0.190703
0.19213
0.205385
0.202309
0.193489
0.186284
0.179875
0.172851
0.167578
0.162995
0.158884
0.155257
0.152411
0.149853
0.147571
0.145645
0.143602
0.141801
0.136418
0.124899
0.113798
0.102405
0.0903171
0.078721
0.069184
0.059589
0.0505137
0.0415102
0.0352117
0.0366584
0.0381977
0.0408414
0.0437027
0.0465745
0.0499621
0.0531408
0.0563336
0.0595942
0.0631759
0.0669342
0.070744
0.0745969
0.0787618
0.0839873
0.0890565
0.0950755
0.101504
0.107485
0.112001
0.107122
0.100791
0.0938303
0.08738
0.0809629
0.0742963
0.0678987
0.0621586
0.0623007
0.0619196
0.0595794
0.0458604
0.0335633
0.0229992
0.0166846
0.0193346
0.0205394
0.0387221
0.0501349
0.061688
0.073637
0.0866083
0.100225
0.104558
0.105057
0.105262
0.104881
0.104484
0.104097
0.103599
0.10307
0.102316
0.101602
0.100985
0.10017
0.100708
0.339805
0.424005
0.341632
0.20784
0.150671
0.119816
0.0893833
0.0841385
0.115271
0.140867
0.177778
0.199071
0.201101
0.201454
0.20335
0.199074
0.193521
0.194195
0.194325
0.193902
0.19346
0.193425
0.199344
0.20511
0.21109
0.216396
0.221243
0.222159
0.214543
0.20024
0.186593
0.173382
0.160136
0.147428
0.136711
0.125755
0.115213
0.105033
0.0984258
0.0999885
0.101722
0.103257
0.104492
0.105635
0.106603
0.107649
0.110376
0.112676
0.113411
0.110104
0.106406
0.102441
0.0984393
0.0946179
0.0910758
0.0887697
0.0866221
0.084599
0.0824783
0.0802688
0.0787351
0.0783238
0.0778255
0.0773155
0.076801
0.0762859
0.0757298
0.0734151
0.0605136
0.0443974
0.0291956
0.0183552
0.0164317
0.0207407
0.0307335
0.0494273
0.0623811
0.0749956
0.0874082
0.0998052
0.112374
0.112161
0.110937
0.109603
0.108821
0.108034
0.107267
0.106357
0.106096
0.105003
0.104126
0.103451
0.102798
0.10216
0.101558
0.100778
0.101136
0.101461
0.100104
0.0918682
0.32672
0.339885
0.205701
0.197007
0.202242
0.202521
0.166904
0.120695
0.0536597
0.0252813
0.0458979
0.0706909
0.105838
0.136966
0.165519
0.19085
0.202181
0.200367
0.200576
0.200534
0.199528
0.199439
0.199362
0.19688
0.1834
0.170407
0.157765
0.145008
0.132565
0.120758
0.108876
0.097272
0.0859137
0.0790637
0.0792935
0.0793448
0.0800807
0.0805223
0.0803706
0.0797564
0.0789062
0.0778483
0.0771976
0.0767614
0.07632
0.0764037
0.0765029
0.0756745
0.0748677
0.0743578
0.0740501
0.0737744
0.0750037
0.0759192
0.0767113
0.0775633
0.0783284
0.0787382
0.0780839
0.0778583
0.0667914
0.0552505
0.0436284
0.0321203
0.0210309
0.011837
0.0113278
0.0164546
0.0345316
0.0471719
0.0576505
0.0683182
0.0816771
0.0951633
0.106921
0.106891
0.107262
0.107732
0.108554
0.109473
0.11032
0.110968
0.110343
0.108903
0.106585
0.105566
0.10464
0.103727
0.10323
0.103023
0.103254
0.103498
0.103754
0.104017
0.0940146
0.0839839
0.0744474
0.0637081
0.0493489
0.0409069
0.218167
0.244045
0.195845
0.192584
0.200127
0.149893
0.0994229
0.0796685
0.0814854
0.0858509
0.0927547
0.0807578
0.0525997
0.0311239
0.0338399
0.0506236
0.0618219
0.0704413
0.0825983
0.0914551
0.0975291
0.103614
0.108146
0.10982
0.110056
0.108453
0.105656
0.0933366
0.0858496
0.0856823
0.0854647
0.0852574
0.0850333
0.0844586
0.0838279
0.0831712
0.0824339
0.0817164
0.0810299
0.0804157
0.0798397
0.0792907
0.0787539
0.0784333
0.0783904
0.0796111
0.0796349
0.0796684
0.0797078
0.0736233
0.0665686
0.0593305
0.0518535
0.0437226
0.0350325
0.0250774
0.0151635
0.00788786
0.0122409
0.0209856
0.0373625
0.048068
0.0576206
0.0673906
0.0773505
0.0873609
0.0972249
0.107475
0.108392
0.105791
0.103407
0.101668
0.100763
0.0998626
0.0987148
0.0973611
0.0959473
0.0956574
0.0962057
0.0969089
0.0977906
0.098912
0.099759
0.0999138
0.100007
0.100442
0.100919
0.102336
0.103596
0.0975311
0.0876133
0.0780025
0.0680979
0.0535039
0.0428954
0.0338003
0.0247307
0.0158369
0.0115416
0.0150676
0.202163
0.244599
0.191216
0.180858
0.131195
0.0793293
0.0704599
0.0771499
0.080297
0.0831572
0.089853
0.0912395
0.0921694
0.0956624
0.0992731
0.103381
0.106403
0.0988608
0.0938483
0.0847845
0.078898
0.0730723
0.0684866
0.0646891
0.0515344
0.0401103
0.0286335
0.0216642
0.014878
0.00963219
0.00763441
0.00927097
0.0122919
0.0151089
0.0172314
0.0186671
0.0188965
0.0184477
0.0176963
0.016498
0.0147639
0.012526
0.00982082
0.00670297
0.00260037
0.00254335
0.00846281
0.0143366
0.0209814
0.0300066
0.037163
0.0443563
0.0533341
0.0626513
0.0722174
0.0819562
0.0916989
0.100515
0.109498
0.119004
0.117818
0.115589
0.113096
0.110907
0.108725
0.106415
0.104384
0.103428
0.102396
0.100856
0.099206
0.098067
0.0972551
0.0967122
0.0962463
0.0957992
0.0952486
0.0950161
0.094853
0.0946929
0.0947575
0.0950529
0.0952374
0.095983
0.0954284
0.0850083
0.0753394
0.06588
0.0509331
0.0372039
0.0281758
0.0198781
0.0125578
0.00812751
0.00682083
0.00894491
0.014041
0.0192192
0.0249171
0.030825
0.256656
0.215268
0.158886
0.108985
0.0642635
0.0640245
0.0678536
0.0748829
0.0821494
0.0882181
0.0980499
0.102979
0.106425
0.109593
0.114212
0.118679
0.122968
0.127151
0.134662
0.140161
0.14101
0.141695
0.14147
0.141464
0.141263
0.140914
0.140322
0.131336
0.122962
0.11572
0.109506
0.104307
0.10006
0.0963334
0.0932709
0.0908656
0.0897844
0.0894396
0.0897877
0.0909701
0.0927904
0.0951753
0.0980567
0.101423
0.104582
0.109156
0.114585
0.120412
0.126635
0.127071
0.126817
0.126135
0.1244
0.122348
0.120168
0.117918
0.115439
0.112991
0.110738
0.108482
0.106166
0.104049
0.103425
0.102845
0.102592
0.102462
0.10231
0.102079
0.101604
0.10133
0.10087
0.10038
0.100372
0.100497
0.100539
0.100566
0.100605
0.10065
0.100401
0.100085
0.0900919
0.0790039
0.0682347
0.0565624
0.0408868
0.0297354
0.0191815
0.00892692
0.0057962
0.00764455
0.00524767
0.00274416
0.00430307
0.00986057
0.0155863
0.0215532
0.0250587
0.0275071
0.0272024
0.0267546
0.259401
0.156551
0.108858
0.0741866
0.0797925
0.080687
0.0848953
0.0887438
0.0968063
0.100742
0.109057
0.11504
0.119634
0.121265
0.1231
0.124742
0.126258
0.126993
0.127357
0.133743
0.137749
0.138963
0.138008
0.136994
0.135964
0.134963
0.134443
0.133895
0.13348
0.133331
0.133455
0.13362
0.133771
0.13389
0.133949
0.133818
0.133548
0.133521
0.133506
0.133452
0.133348
0.132916
0.131743
0.130474
0.129007
0.127725
0.125738
0.123662
0.121578
0.11947
0.117279
0.11491
0.112547
0.110317
0.108124
0.106303
0.104756
0.104408
0.104079
0.103747
0.103431
0.103425
0.103616
0.103889
0.104189
0.104554
0.104882
0.105145
0.105391
0.105697
0.106005
0.105734
0.105098
0.104443
0.103981
0.0955912
0.0844997
0.0736134
0.0630183
0.0478452
0.0355424
0.0244541
0.0149234
0.00709936
0.00707643
0.00534386
0.00283572
0.00192636
0.0036006
0.00760709
0.0119514
0.0162124
0.0210642
0.0241286
0.0266979
0.0255284
0.0237552
0.0221463
0.0209133
0.0213461
0.148686
0.107176
0.0981929
0.0913723
0.100215
0.101479
0.103503
0.105098
0.109757
0.109436
0.113152
0.115594
0.117145
0.119057
0.120927
0.122631
0.124056
0.12512
0.12482
0.125562
0.130764
0.134481
0.13449
0.134089
0.133537
0.132992
0.132792
0.132555
0.132498
0.1326
0.132655
0.132637
0.132527
0.132398
0.132199
0.131951
0.131162
0.130885
0.130516
0.129614
0.128041
0.125357
0.122695
0.120063
0.118005
0.116296
0.11453
0.112827
0.111154
0.109476
0.107795
0.106525
0.106298
0.106423
0.106677
0.106951
0.107176
0.107389
0.107577
0.107758
0.107936
0.108014
0.108091
0.108166
0.107879
0.107458
0.107037
0.106611
0.106415
0.106234
0.098468
0.0875715
0.0765189
0.0657317
0.0514122
0.0385092
0.0279094
0.017611
0.00942032
0.00698195
0.00679101
0.00439685
0.00236063
0.00318425
0.0042555
0.00747523
0.0118004
0.0153648
0.0198585
0.0244185
0.0271195
0.0296511
0.0282228
0.0261807
0.0241933
0.0223941
0.0211817
0.0204219
0.0193988
0.0188672
0.040326
0.0700305
0.104682
0.100385
0.104865
0.105701
0.106444
0.108459
0.110341
0.114984
0.117507
0.118475
0.119073
0.119756
0.120472
0.11983
0.119172
0.11874
0.117864
0.117416
0.1193
0.125628
0.130582
0.131243
0.131819
0.132172
0.132111
0.132059
0.131942
0.131753
0.131481
0.131278
0.131244
0.131158
0.131069
0.129771
0.128049
0.125925
0.12356
0.12112
0.118636
0.116518
0.115175
0.113727
0.112306
0.110955
0.110454
0.110387
0.110315
0.110379
0.110568
0.110761
0.110957
0.111165
0.111362
0.111167
0.110871
0.110496
0.110091
0.109683
0.109272
0.108864
0.108459
0.108048
0.107636
0.0989471
0.087908
0.077009
0.066305
0.0527285
0.0403975
0.0302251
0.0198669
0.010956
0.00711461
0.00738271
0.0061644
0.00366586
0.00257169
0.00367039
0.00489661
0.00618517
0.00893113
0.0127601
0.0164275
0.0212444
0.0256364
0.0290866
0.0312349
0.0307256
0.0297246
0.0279936
0.0262379
0.0241276
0.0226203
0.0214813
0.0198786
0.0185049
0.0172834
0.0173517
0.0412545
0.0486407
0.0929012
0.10422
0.102559
0.10653
0.106652
0.109872
0.109533
0.118484
0.120709
0.120927
0.1207
0.120036
0.119558
0.119049
0.118529
0.118026
0.117774
0.11824
0.118754
0.122375
0.128704
0.134187
0.134829
0.135229
0.135464
0.135835
0.135944
0.134685
0.133311
0.131925
0.130559
0.129146
0.127663
0.125905
0.123795
0.12128
0.119228
0.117587
0.116544
0.116509
0.11646
0.116222
0.11594
0.115478
0.115037
0.114661
0.114295
0.113937
0.113546
0.113124
0.112696
0.11222
0.11166
0.111095
0.110562
0.110162
0.109758
0.109356
0.0984487
0.0875113
0.0766807
0.0660048
0.0525309
0.0407489
0.0303675
0.0198391
0.010593
0.0081082
0.00865974
0.0080088
0.00635459
0.00420848
0.00400215
0.00440391
0.00509697
0.00593439
0.00586711
0.00919174
0.0131075
0.0169085
0.0220276
0.0261688
0.0298302
0.0314243
0.031225
0.0299937
0.0283393
0.0264664
0.0247013
0.0231429
0.022703
0.0224698
0.0212708
0.0200454
0.0179557
0.013222
0.00870463
0.0076865
0.0422841
0.0561334
0.0634215
0.102279
0.0951182
0.102747
0.101974
0.104254
0.103939
0.10807
0.116311
0.116322
0.116646
0.116759
0.1169
0.118269
0.119512
0.120644
0.121255
0.121931
0.122787
0.123582
0.125681
0.129372
0.132797
0.135221
0.134273
0.133383
0.132444
0.131436
0.130379
0.12904
0.127422
0.125187
0.122517
0.120987
0.119394
0.118288
0.117767
0.117577
0.117376
0.117143
0.116878
0.116513
0.116347
0.116177
0.116002
0.115805
0.11558
0.115199
0.114678
0.114136
0.113581
0.113019
0.107645
0.0967133
0.085866
0.0751046
0.0644462
0.0508697
0.0402397
0.0294447
0.0190032
0.0101698
0.00919169
0.00954741
0.00867852
0.00809318
0.0058351
0.00387774
0.00446632
0.00552687
0.00673019
0.00717157
0.00708542
0.00693339
0.00996232
0.0133534
0.0169871
0.0225634
0.0267235
0.0305337
0.0315442
0.0313924
0.0301914
0.0287355
0.0267612
0.0247766
0.0232104
0.022158
0.0214919
0.0172433
0.012948
0.00848793
0.00413327
0.000554478
0.00759456
0.0135143
0.0166006
0.0194765
0.0391586
0.0530662
0.0540078
0.0696586
0.080351
0.0942496
0.0962649
0.0964867
0.0947667
0.0913579
0.109807
0.111091
0.11267
0.11426
0.115814
0.116877
0.116668
0.11631
0.115676
0.114604
0.113786
0.112849
0.112602
0.11154
0.11471
0.117672
0.12027
0.122513
0.124365
0.124474
0.124602
0.1242
0.123184
0.122149
0.121128
0.120392
0.119897
0.119221
0.118444
0.118004
0.117633
0.117271
0.116823
0.11639
0.116249
0.116085
0.115862
0.115543
0.112959
0.102527
0.0920863
0.0816687
0.071302
0.0597302
0.0481403
0.0383826
0.0279829
0.0179314
0.00993895
0.0107059
0.0103026
0.00943718
0.0087254
0.00781283
0.00551801
0.00424196
0.00506043
0.00607549
0.00723955
0.00726106
0.00712907
0.0069178
0.00678036
0.0105303
0.014555
0.018494
0.0239892
0.0278153
0.031533
0.0318046
0.0311345
0.0301664
0.0287095
0.0267627
0.0248073
0.021638
0.0160554
0.0117394
0.0080492
0.00540364
0.00298712
0.0104469
0.0144576
0.018553
0.0219154
0.0246562
0.0262573
0.0251608
0.0319458
0.0411316
0.0336522
0.049326
0.051004
0.0498579
0.0595168
0.0630669
0.0730271
0.08756
0.0866816
0.0834366
0.0948094
0.104446
0.105004
0.105224
0.105345
0.105332
0.105127
0.104711
0.104135
0.103037
0.102024
0.101074
0.100919
0.101873
0.102398
0.103382
0.107191
0.110497
0.1139
0.117052
0.119433
0.121428
0.120444
0.120062
0.120039
0.11999
0.119939
0.119897
0.119332
0.119037
0.1187
0.118337
0.114125
0.104099
0.0940191
0.0838898
0.0737639
0.0631585
0.05174
0.0423931
0.0323114
0.0225103
0.0136638
0.00925754
0.0110185
0.0109326
0.0102111
0.00941416
0.00892106
0.00776248
0.00583568
0.00550519
0.00655107
0.00770845
0.00868767
0.00844984
0.0081122
0.00778339
0.00739077
0.00721973
0.0111136
0.015178
0.019126
0.0245991
0.0285884
0.0326252
0.0326116
0.0319501
0.0309602
0.0290312
0.0233168
0.0175052
0.0118422
0.00720308
0.00310764
0.00569779
0.0116802
0.0153503
0.019281
0.0233105
0.0275512
0.0271782
0.0265693
0.0255558
0.0288355
0.0397197
0.0511641
0.0548973
0.0654833
0.0628312
0.0313225
0.0469561
0.0449668
0.0405273
0.0451996
0.0508131
0.053733
0.0496938
0.0480553
0.0561416
0.0649513
0.0924316
0.0937646
0.0938992
0.0939223
0.0941317
0.0953295
0.0963935
0.0973704
0.0979917
0.0985443
0.0991749
0.0997367
0.100985
0.101489
0.101968
0.1024
0.102641
0.102361
0.104947
0.10732
0.109859
0.112797
0.115606
0.118417
0.119462
0.110737
0.101534
0.0919704
0.0824456
0.0731086