/*--------------------------------*- C++ -*----------------------------------*\
| =========                 |                                                 |
| \\      /  F ield         | foam-extend: Open Source CFD                    |
|  \\    /   O peration     | Version:     4.1                                |
|   \\  /    A nd           | Web:         http://www.foam-extend.org         |
|    \\/     M anipulation  |                                                 |
\*---------------------------------------------------------------------------*/
FoamFile
{
    version     2.0;
    format      ascii;
    class       volScalarField;
    location    "1";
    object      epsilonEq;
}
// * * * * * * * * * * * * * * * * * * * * * * * * * * * * * * * * * * * * * //

dimensions      [0 0 0 0 0 0 0];

internalField   nonuniform List<scalar> 
100000
(
0.231855
0.364423
0.324212
0.214469
0.0347667
0.178388
0.196155
0.188983
0.188009
0.203927
0.101568
0.0181478
0.0467409
0.0532774
0.0547958
0.0541846
0.0619013
0.0765616
0.0840256
0.0832948
0.0814601
0.0537338
0.0157653
0.0435632
0.055666
0.0549815
0.0545322
0.0493285
0.038909
0.0317755
0.0280209
0.0250093
0.0291567
0.0384452
0.0399961
0.0371946
0.0355291
0.037565
0.0421719
0.0473102
0.05216
0.0579604
0.0622876
0.0632512
0.060056
0.0566142
0.0518954
0.0474171
0.0434476
0.0397027
0.0365508
0.0334743
0.0326342
0.0321497
0.0323539
0.0320907
0.0318248
0.0315732
0.0336166
0.0358589
0.037578
0.0374201
0.0372789
0.0371241
0.037053
0.0369512
0.0358177
0.0346187
0.0339556
0.0331678
0.029115
0.0252648
0.0214183
0.0175951
0.0141877
0.0127301
0.0146323
0.0165295
0.0183683
0.0199023
0.0214276
0.0230501
0.0246564
0.0262346
0.0277774
0.0292897
0.0307748
0.0319579
0.0323827
0.0285574
0.0230015
0.0177666
0.0137835
0.00979434
0.00632317
0.00541888
0.00805744
0.0126803
0.0201385
0.0590499
0.232697
0.407657
0.212585
0.0590231
0.190428
0.185583
0.131496
0.120994
0.181522
0.219153
0.162452
0.0399757
0.0427703
0.0468759
0.0456033
0.0472473
0.0492282
0.0527501
0.0601648
0.0489068
0.0234928
0.0429827
0.0617679
0.0592499
0.0559024
0.0522947
0.051537
0.0448412
0.0299493
0.0194244
0.0155043
0.014295
0.0152314
0.0247956
0.0340788
0.0343808
0.0341913
0.0336064
0.0340881
0.0367159
0.0381571
0.0383053
0.0379767
0.036043
0.033276
0.0304637
0.0276139
0.0229074
0.0172029
0.0125294
0.010149
0.00759365
0.00481027
0.00178454
0.00451169
0.00756924
0.0106429
0.0145186
0.0185912
0.0206531
0.0234376
0.0265292
0.0295451
0.0324529
0.0353603
0.0369496
0.0384419
0.0408187
0.0430854
0.044748
0.0464271
0.0471613
0.0466429
0.0461198
0.0457642
0.0464563
0.0480556
0.0483533
0.0486256
0.0488721
0.0492728
0.0496788
0.0500882
0.0505035
0.0509316
0.0510123
0.0510275
0.0509947
0.0487424
0.0456943
0.0400638
0.0374475
0.0359883
0.0343661
0.0326016
0.0305231
0.027604
0.0249531
0.0249056
0.0256605
0.355081
0.409225
0.227963
0.225786
0.21509
0.176466
0.0637322
0.0182531
0.138724
0.204833
0.19987
0.0929971
0.0305299
0.0434631
0.0432873
0.0434984
0.0424096
0.0393578
0.0428084
0.0721375
0.104355
0.106227
0.101092
0.098622
0.0943841
0.0904125
0.0833581
0.0641156
0.0582643
0.059117
0.0634885
0.0698927
0.077201
0.083088
0.0810828
0.069637
0.056591
0.0459376
0.0366776
0.0280829
0.020345
0.0157782
0.0161034
0.0191393
0.0236119
0.0289169
0.0344447
0.0399367
0.0452724
0.05057
0.0561984
0.0601772
0.0623403
0.0652099
0.0662718
0.067132
0.068076
0.0688978
0.0677849
0.0675518
0.0674691
0.0669626
0.0663198
0.0656499
0.0641773
0.0626176
0.0620643
0.0616406
0.0611912
0.0611015
0.0646676
0.0682433
0.0721324
0.0761845
0.0802433
0.0822227
0.0794819
0.0767789
0.074485
0.0726981
0.0704943
0.068327
0.0662045
0.0641225
0.0619803
0.0598488
0.0578551
0.0559273
0.0538758
0.0557481
0.055819
0.0530417
0.050431
0.0479636
0.0467681
0.0449341
0.0427855
0.0425894
0.0433732
0.0478471
0.663223
0.62801
0.458807
0.399799
0.261345
0.16222
0.144403
0.133183
0.10905
0.154215
0.166976
0.118143
0.0613169
0.106522
0.0992913
0.0962364
0.107951
0.135639
0.171589
0.176874
0.164659
0.152391
0.144968
0.133242
0.124593
0.116815
0.103566
0.0859665
0.0697292
0.0646326
0.0614912
0.0598226
0.0570945
0.0528176
0.0412938
0.0293538
0.020975
0.0128952
0.00655379
0.00696011
0.0130669
0.0202079
0.0280619
0.0368102
0.0462579
0.0558434
0.0651342
0.074135
0.0828602
0.0913145
0.0999462
0.108658
0.11195
0.110334
0.108657
0.107044
0.105297
0.103183
0.101127
0.0990729
0.0954371
0.0915024
0.0876553
0.0833508
0.0790124
0.0759047
0.0728061
0.0696901
0.0666318
0.0637083
0.0613993
0.0600639
0.0599366
0.0599614
0.05967
0.0589038
0.0579936
0.0565037
0.0550699
0.0534329
0.0516739
0.0500632
0.0484686
0.0468746
0.0452751
0.0440472
0.0429099
0.0417695
0.0406178
0.0399345
0.0424645
0.0436788
0.0411801
0.0386729
0.0363466
0.0339003
0.0320601
0.0314977
0.0315145
0.0324314
0.751537
0.76593
0.406512
0.300254
0.168497
0.00905249
0.0269335
0.0531519
0.0781314
0.101028
0.163531
0.142259
0.0944081
0.0178882
0.0520777
0.0620049
0.0872058
0.125058
0.118688
0.111064
0.100404
0.0914315
0.0836818
0.0666059
0.0468811
0.0270067
0.00756329
0.0112184
0.0134496
0.0323845
0.0393108
0.047644
0.058414
0.0697938
0.0791947
0.0787406
0.0761384
0.0751019
0.0741043
0.0729721
0.0720515
0.0715392
0.0712117
0.0714542
0.0721166
0.0726799
0.0731733
0.0736439
0.0740913
0.0746155
0.0754383
0.0760826
0.0767311
0.0774923
0.0783434
0.0790293
0.0795493
0.0800454
0.0801536
0.079615
0.0790655
0.0785134
0.0774937
0.0762635
0.0756293
0.0751702
0.0748569
0.0744125
0.0738893
0.0733829
0.0723511
0.0713292
0.0704909
0.0697117
0.0687747
0.0678354
0.0669115
0.0659922
0.0646836
0.0629348
0.0616565
0.0604071
0.0591615
0.0579155
0.0566706
0.0554125
0.0541537
0.0528906
0.0516141
0.050328
0.0505389
0.0537785
0.055317
0.0542776
0.0522601
0.0504351
0.048831
0.0470953
0.0455509
0.0444443
0.546878
0.746807
0.392716
0.162113
0.159214
0.120295
0.160783
0.164795
0.151676
0.134465
0.195983
0.252272
0.309668
0.258665
0.128962
0.0300695
0.0310337
0.0338284
0.035447
0.0360928
0.0318648
0.0284244
0.015401
0.0162197
0.0311014
0.0449902
0.0520064
0.0451757
0.0426146
0.0509423
0.060499
0.0629716
0.0674967
0.0705089
0.0726901
0.074406
0.0746538
0.0747927
0.0763134
0.0775077
0.0782166
0.0788877
0.0794762
0.0796205
0.0789506
0.0781953
0.0774344
0.0766811
0.0759404
0.0752359
0.0745436
0.073832
0.0733144
0.0728253
0.0721882
0.0714596
0.0707273
0.070018
0.0692977
0.0685858
0.0678849
0.0668154
0.0654297
0.064595
0.0639089
0.0632309
0.0624867
0.0615644
0.0606137
0.0595197
0.0583401
0.0569334
0.0560791
0.0552249
0.0543368
0.0537977
0.0533335
0.0531679
0.0531228
0.0530885
0.0530598
0.0530325
0.0530128
0.0530009
0.0529807
0.0529812
0.0530012
0.0530155
0.053046
0.0530874
0.0531414
0.0550024
0.0595153
0.0628899
0.0630244
0.0632298
0.0632192
0.0625333
0.0617423
0.0608163
0.416117
0.697137
0.476471
0.233777
0.164441
0.131966
0.109966
0.139537
0.208319
0.214187
0.21382
0.223581
0.216958
0.233745
0.216179
0.11208
0.0350507
0.0304538
0.0298469
0.0283975
0.036795
0.0524372
0.0646138
0.0662797
0.0653345
0.0663064
0.0651077
0.0651172
0.0611699
0.0591764
0.0673401
0.0747766
0.0764221
0.0766634
0.0772266
0.0773939
0.0771691
0.0754159
0.0739517
0.0737557
0.0735198
0.0732845
0.0730438
0.0727265
0.0720484
0.0714772
0.0712286
0.0709875
0.0707502
0.0704123
0.0698408
0.0701967
0.0704953
0.0705659
0.0705582
0.0705748
0.0705717
0.0705763
0.0705777
0.0705653
0.0703455
0.0696233
0.0692529
0.0687091
0.068168
0.0676067
0.0670264
0.0665932
0.0662452
0.0658773
0.0656639
0.0654341
0.064891
0.0648245
0.0646837
0.0645198
0.0643388
0.0641389
0.0639171
0.061533
0.0633839
0.0630636
0.0627008
0.0622889
0.0596663
0.0596038
0.0607704
0.0601633
0.0595039
0.0587739
0.0578548
0.0568641
0.0576197
0.0605991
0.0635355
0.0627762
0.0623374
0.0626365
0.0631221
0.063329
0.392737
0.680232
0.522481
0.357023
0.259762
0.163113
0.110516
0.0907483
0.103665
0.194824
0.203742
0.147654
0.113807
0.123292
0.180702
0.226985
0.158881
0.0883596
0.067633
0.0813937
0.0837005
0.0861135
0.0894055
0.0884805
0.084994
0.0815932
0.075428
0.0752905
0.0737775
0.0703843
0.0694808
0.0774857
0.0796051
0.077814
0.0777679
0.0791421
0.0801512
0.0805694
0.0795822
0.0789281
0.0793916
0.0798342
0.0802377
0.0806218
0.0808815
0.0807987
0.0807765
0.0810703
0.0813527
0.0816071
0.0820934
0.0828249
0.0830645
0.0832381
0.0833762
0.0835242
0.0836496
0.0837489
0.0838454
0.0835187
0.0822934
0.0814094
0.0808573
0.0803166
0.0798053
0.0792849
0.0789746
0.0789124
0.0788799
0.0789636
0.0791309
0.0791419
0.0782161
0.078004
0.0777599
0.0774605
0.0771381
0.0767945
0.0764347
0.0760375
0.0756054
0.0751409
0.0746283
0.0740665
0.0733992
0.0726566
0.0718465
0.0709872
0.0700542
0.0672555
0.0592113
0.0511907
0.0431871
0.036624
0.0329671
0.0296676
0.0247083
0.0325283
0.0401874
0.0473468
0.321592
0.621437
0.513084
0.373317
0.319864
0.252082
0.170218
0.126256
0.105891
0.0411193
0.10956
0.136356
0.112139
0.124158
0.128173
0.1632
0.208068
0.177444
0.121681
0.0824595
0.0890823
0.0891916
0.090773
0.0922567
0.093435
0.0905455
0.0866072
0.0847554
0.0836204
0.0845701
0.0846884
0.0852533
0.0923122
0.0948994
0.0938727
0.0932998
0.0930807
0.0934121
0.0935982
0.0927065
0.0918875
0.0922456
0.0925642
0.0928608
0.093121
0.0932759
0.0931066
0.092971
0.093174
0.0935278
0.0939518
0.093796
0.0933239
0.0929128
0.0924814
0.092057
0.091151
0.0901363
0.0890994
0.0875225
0.086001
0.0850459
0.0842137
0.0838013
0.0833939
0.0829828
0.0825839
0.0821909
0.0817971
0.081486
0.0812326
0.0809587
0.0803789
0.0795043
0.0792195
0.0789148
0.0786073
0.078293
0.0779695
0.0733021
0.0657181
0.0581681
0.0506707
0.0442612
0.037934
0.0369207
0.0413065
0.0456837
0.0497083
0.0542611
0.0600573
0.0648544
0.070148
0.0753976
0.0766868
0.0773338
0.0741358
0.0750678
0.0722193
0.0832885
0.233884
0.49472
0.491533
0.377101
0.290533
0.228852
0.187701
0.184756
0.0994614
0.163316
0.171661
0.0937229
0.059718
0.0819069
0.100806
0.107238
0.114922
0.14463
0.146301
0.10045
0.065691
0.0494378
0.0729939
0.0949037
0.106286
0.104916
0.105218
0.103156
0.101256
0.102505
0.102309
0.0993092
0.0999151
0.107002
0.109764
0.10787
0.106358
0.105364
0.104182
0.102509
0.0999164
0.0983311
0.0977823
0.0973563
0.096936
0.0965032
0.0960257
0.0952237
0.0945907
0.0945186
0.0941921
0.0939234
0.0934797
0.0925803
0.0915092
0.0903971
0.0893184
0.0883089
0.0869894
0.0856601
0.0852247
0.0848059
0.0843898
0.0839729
0.0835655
0.0831628
0.0827615
0.0823665
0.078509
0.0724689
0.0662679
0.0600201
0.0530496
0.0406361
0.0435186
0.048515
0.0534458
0.058306
0.0625626
0.0677711
0.0730411
0.0776591
0.0830954
0.0884904
0.0935036
0.0944263
0.0918482
0.0878788
0.0839155
0.0765653
0.0731781
0.0700945
0.0683929
0.067813
0.0678155
0.0707753
0.0737018
0.0639343
0.0559859
0.0582739
0.236511
0.401814
0.432949
0.369629
0.332962
0.291096
0.232818
0.113269
0.219149
0.256232
0.248855
0.211593
0.165918
0.121723
0.0767235
0.0464644
0.0523602
0.0613309
0.0781405
0.0884418
0.0586609
0.0218864
0.0459425
0.0360206
0.028849
0.0443035
0.062187
0.0772636
0.0918629
0.103917
0.110633
0.107954
0.102311
0.101622
0.10641
0.110039
0.109659
0.108795
0.107624
0.106706
0.105227
0.102634
0.100163
0.098475
0.0972667
0.0966568
0.0962408
0.095863
0.0954035
0.0948034
0.094027
0.0929228
0.091873
0.092094
0.0924942
0.0890102
0.0845742
0.0771612
0.0665303
0.0562711
0.0461229
0.0441188
0.0491368
0.0543428
0.0598645
0.0644961
0.0684587
0.0721339
0.0760649
0.0797528
0.0829799
0.0862791
0.0916521
0.0932836
0.0984689
0.103594
0.10354
0.0986266
0.0916757
0.0842764
0.0798098
0.075896
0.07357
0.0733338
0.0707408
0.0630793
0.052116
0.0413077
0.0325582
0.0295799
0.0261778
0.0222192
0.0188826
0.0247885
0.0306993
0.0323385
0.0341238
0.0362162
0.0366222
0.0334997
0.3796
0.470377
0.435114
0.407766
0.361627
0.264035
0.138463
0.273466
0.290825
0.284531
0.263407
0.247501
0.249009
0.239163
0.195378
0.156659
0.129841
0.102842
0.0627559
0.037142
0.0356952
0.0335743
0.0505941
0.0944194
0.129344
0.136298
0.109413
0.0861418
0.0655363
0.0488223
0.0280541
0.0155748
0.00907402
0.0103105
0.0112469
0.0117348
0.0202221
0.0252853
0.0282637
0.0308895
0.0324144
0.0314031
0.0284784
0.0250617
0.0211594
0.0168776
0.0126008
0.0110455
0.0153289
0.0196647
0.0240177
0.0291171
0.0356037
0.0426288
0.047591
0.0527174
0.0583145
0.0638952
0.0695922
0.0743176
0.0768581
0.0820972
0.0889485
0.094286
0.0992257
0.103858
0.100376
0.0928675
0.0853658
0.0800508
0.0747794
0.0698441
0.0702288
0.0755146
0.0663532
0.053019
0.0387644
0.027836
0.0228472
0.0243265
0.0254117
0.0298465
0.0362633
0.0472254
0.0600869
0.0671505
0.0695516
0.0718853
0.0745561
0.0719721
0.0679431
0.0638668
0.0613558
0.0624586
0.0635368
0.064537
0.0655011
0.0662174
0.0663673
0.0641581
0.440865
0.522925
0.509781
0.42134
0.251534
0.117708
0.192972
0.199061
0.190862
0.18109
0.166467
0.166664
0.174752
0.187344
0.198305
0.202617
0.184424
0.144952
0.115248
0.0871629
0.0720029
0.0582136
0.0429971
0.0358721
0.0418622
0.0500739
0.0783214
0.099609
0.109541
0.109546
0.10332
0.087422
0.0763662
0.0666494
0.0607654
0.0548121
0.0436512
0.0299364
0.0219044
0.0146783
0.00655256
0.00468972
0.0118569
0.0184697
0.0245592
0.0296313
0.0356492
0.0438581
0.0538497
0.0597173
0.0659106
0.0725096
0.0772894
0.073903
0.0693669
0.0679982
0.0687676
0.0698353
0.0701995
0.0706825
0.0734515
0.0711832
0.061836
0.052365
0.0429355
0.0297659
0.0205886
0.0199813
0.0223829
0.0250192
0.0313147
0.0360739
0.0443674
0.0555107
0.067283
0.0799765
0.0879785
0.0905209
0.0903429
0.0851042
0.0803576
0.0759163
0.0728243
0.0735094
0.0740979
0.0745773
0.0750773
0.0756285
0.0762059
0.0766823
0.0743557
0.071436
0.0685887
0.065777
0.0626312
0.0594537
0.0568738
0.0540707
0.0504338
0.0465787
0.449146
0.531232
0.463436
0.256026
0.0738622
0.0437208
0.0562354
0.05506
0.0639366
0.0546866
0.0146597
0.0150047
0.0174205
0.0167978
0.00958144
0.00841879
0.00953777
0.0114908
0.0126988
0.0136371
0.0177815
0.0459563
0.0743627
0.099367
0.117763
0.131225
0.1095
0.0903924
0.0730192
0.0625447
0.0523229
0.0442844
0.0427668
0.0425356
0.0428025
0.0438751
0.0439841
0.0451674
0.0477065
0.0515694
0.0549788
0.0594641
0.0646021
0.0703629
0.0758714
0.0823827
0.0873655
0.0888262
0.0814868
0.07409
0.0667556
0.0578536
0.0457602
0.0340648
0.0246909
0.0151864
0.00573882
0.0100524
0.0212779
0.0280448
0.0354334
0.0458077
0.0570318
0.0681923
0.079282
0.0902997
0.0931303
0.0926982
0.0889112
0.0851843
0.0812414
0.0764151
0.0761345
0.0768822
0.0777197
0.0784187
0.0796631
0.0805492
0.0810801
0.0817778
0.0822094
0.0784655
0.0745231
0.0705927
0.0666741
0.0630951
0.0599113
0.0567526
0.0532543
0.0487428
0.0443764
0.0417011
0.0391842
0.0367879
0.0344045
0.0320404
0.0293393
0.026426
0.0236845
0.0240685
0.450278
0.417522
0.203653
0.0316014
0.00871277
0.00293556
0.024637
0.040371
0.0490369
0.0564635
0.0581556
0.071946
0.0831927
0.0913265
0.0965212
0.0990196
0.101911
0.104518
0.106641
0.108407
0.109836
0.110941
0.111738
0.110816
0.108623
0.107915
0.111003
0.126444
0.127776
0.118075
0.106956
0.095909
0.0853613
0.071481
0.0592421
0.0474939
0.0418313
0.0364405
0.0338518
0.0300833
0.0261661
0.0214806
0.01737
0.0141981
0.0133121
0.014521
0.0202609
0.0290051
0.039516
0.0494903
0.0593082
0.0692125
0.0773383
0.0793621
0.0813531
0.0829356
0.0847428
0.0862197
0.0826077
0.0788709
0.0770402
0.0781396
0.0792262
0.0799055
0.0802054
0.0809714
0.0826626
0.0840466
0.0849363
0.0848286
0.0841415
0.0806255
0.0766937
0.0727517
0.0691
0.0656862
0.062295
0.0593156
0.0564812
0.0535196
0.0493305
0.0451454
0.0414779
0.0378256
0.0341309
0.0303632
0.0278834
0.025538
0.0231908
0.0208402
0.0215692
0.0229597
0.0238175
0.0243956
0.0249117
0.0250791
0.0239012
0.0215972
0.0189978
0.0166769
0.280857
0.155715
0.0565884
0.0271399
0.00717268
0.00128585
0.0187521
0.0356301
0.0375821
0.0439637
0.0354498
0.0441871
0.0430224
0.0461899
0.0530975
0.0564592
0.0591426
0.0614714
0.0633725
0.0649297
0.0661769
0.067124
0.0676181
0.0657566
0.0660923
0.0673873
0.069864
0.070118
0.0697479
0.0693174
0.0687041
0.067045
0.0546804
0.0428665
0.0315845
0.0210725
0.0167196
0.0144712
0.0177449
0.0254407
0.0336627
0.0422224
0.0510172
0.0563948
0.0612035
0.066115
0.0689529
0.0712167
0.0739761
0.0766778
0.0792752
0.0811619
0.0830093
0.0835372
0.0851057
0.0866896
0.0873066
0.0878211
0.0878859
0.0846808
0.0813786
0.0779966
0.074479
0.0708166
0.0672197
0.063876
0.0613373
0.0578912
0.0547765
0.0516378
0.047574
0.044306
0.041563
0.0384112
0.0352836
0.0322211
0.0290712
0.0260396
0.0232165
0.0198227
0.0164905
0.01738
0.0183999
0.0194056
0.020017
0.02065
0.0214279
0.0217423
0.0220451
0.0221304
0.021914
0.0195174
0.0168183
0.0141911
0.011488
0.00867259
0.00568785
0.00330087
0.00210877
0.00476331
0.0709031
0.0669083
0.0536672
0.0279064
0.0079361
0.00429993
0.0122916
0.0326444
0.0287475
0.0376816
0.0354755
0.0444674
0.0427084
0.04309
0.0456171
0.0463236
0.0455479
0.0452192
0.0449766
0.0446409
0.0443719
0.0441027
0.0432881
0.040446
0.0402125
0.0424397
0.0427939
0.0427879
0.0408783
0.0389939
0.0372088
0.0334294
0.0326798
0.0317607
0.0308476
0.0299186
0.0225633
0.0136445
0.0062944
0.00943726
0.0172536
0.0237456
0.0288523
0.0343378
0.0398569
0.0446536
0.048989
0.0527712
0.0532875
0.0538184
0.0550238
0.056068
0.056819
0.0559434
0.0545384
0.052891
0.0509549
0.0489147
0.0460857
0.0432072
0.040088
0.0372997
0.0345349
0.03182
0.0292347
0.0268068
0.0241998
0.0211448
0.018096
0.0149003
0.0117721
0.0112283
0.01113
0.0109611
0.0104243
0.0101458
0.0106451
0.0110984
0.0116305
0.0127391
0.0138697
0.0148173
0.0151912
0.0153437
0.01541
0.0155397
0.0132436
0.0107705
0.00825795
0.00561183
0.00226891
0.00118297
0.00330037
0.00562007
0.00797997
0.0101072
0.0118448
0.0124039
0.0123284
0.0117901
0.0341552
0.0648589
0.0515681
0.0283657
0.00855058
0.0054238
0.00710548
0.0265469
0.0258189
0.0324878
0.0344533
0.044536
0.0427722
0.0421308
0.0430258
0.0454312
0.0465739
0.0456613
0.045063
0.0432126
0.0413693
0.039522
0.0360764
0.0322103
0.0318312
0.0323389
0.0305427
0.0284475
0.0267839
0.0248369
0.0221897
0.0180676
0.0178565
0.017335
0.0158114
0.0147796
0.0126719
0.0120706
0.0121889
0.0117613
0.0118892
0.0124673
0.0135315
0.011359
0.00998933
0.00874263
0.00725151
0.0041098
0.00152521
0.00212202
0.00293971
0.00303155
0.00180826
0.00107485
0.00205156
0.00347462
0.0041988
0.00442516
0.00550854
0.00469434
0.00416819
0.00411487
0.00359814
0.00277773
0.00279581
0.00380423
0.00452847
0.00449023
0.00443213
0.00441983
0.00436164
0.00410385
0.00388437
0.00397415
0.00485033
0.00683363
0.00817444
0.00841292
0.008774
0.00885112
0.0085649
0.00684436
0.00535352
0.00430486
0.00413218
0.00359557
0.00525446
0.00718095
0.00902367
0.010644
0.0119535
0.0121336
0.012333
0.0125685
0.0125658
0.0123241
0.0115485
0.0107009
0.00974974
0.00891559
0.0336975
0.0625979
0.0500198
0.0272456
0.00964629
0.00740653
0.00389263
0.0196338
0.0242393
0.0309871
0.0332662
0.0428041
0.0393373
0.0376458
0.0355805
0.0348371
0.0351144
0.0337767
0.031311
0.0289285
0.0269824
0.0247526
0.0200696
0.0174442
0.0185001
0.0177429
0.0160448
0.0146161
0.0154189
0.0156031
0.0136085
0.012871
0.0147026
0.018457
0.0195615
0.0197108
0.0198585
0.0201353
0.0216058
0.0230598
0.0242363
0.0257001
0.0267037
0.0276726
0.0287609
0.0300775
0.0313361
0.0317079
0.0290541
0.0261481
0.0244931
0.0239711
0.0235912
0.022347
0.0213429
0.020296
0.0194804
0.0181796
0.0173815
0.0166435
0.0160163
0.0160686
0.0162716
0.0162465
0.0159271
0.0145542
0.0129145
0.0113369
0.00973371
0.00863704
0.00864632
0.00851775
0.00785372
0.0075111
0.00756051
0.0075775
0.0073845
0.00734689
0.00756009
0.00724477
0.0054024
0.0050416
0.00657078
0.00853941
0.0104545
0.012111
0.012339
0.0123208
0.0123042
0.0122897
0.0122778
0.0124866
0.012432
0.0116591
0.0108071
0.00985971
0.00901352
0.00829142
0.00813558
0.0086473
0.0328965
0.0600572
0.0486549
0.0263509
0.0102267
0.0092895
0.00496612
0.00666359
0.0116802
0.0157339
0.0206384
0.0317889
0.0277507
0.0255471
0.0237046
0.0219792
0.0203098
0.0192803
0.0190738
0.0196478
0.0202175
0.0199651
0.0171338
0.0191973
0.0233169
0.0252754
0.0271959
0.0294462
0.030918
0.0320398
0.0306867
0.0316123
0.0319902
0.0326197
0.0323356
0.0319598
0.0329728
0.0340227
0.0350999
0.0361813
0.0360982
0.0357132
0.0346697
0.0342008
0.0334122
0.0325569
0.0325403
0.0327209
0.032763
0.0314233
0.0292087
0.0267337
0.0252922
0.0240216
0.0237385
0.0237686
0.0232259
0.0226762
0.0215492
0.0202649
0.0180898
0.0163659
0.0149859
0.0136934
0.0124388
0.012757
0.0120509
0.0109986
0.0100855
0.00925712
0.00934222
0.00985262
0.0104698
0.0111737
0.0110841
0.0109582
0.0117238
0.0131421
0.0146806
0.0161681
0.0170691
0.0164631
0.0157028
0.0152574
0.0150119
0.0147775
0.014558
0.01435
0.0140728
0.013327
0.0125025
0.0116398
0.0105445
0.0101647
0.00980753
0.00968518
0.0101369
0.010642
0.0111785
0.0117013
0.0310558
0.0583765
0.0484593
0.0280224
0.0144192
0.0144091
0.0143927
0.00712938
0.00758036
0.00924895
0.0191687
0.0309938
0.0272904
0.0263117
0.0253383
0.0250329
0.0255561
0.0274905
0.0315594
0.035227
0.0372047
0.0369854
0.0356638
0.0397693
0.0418716
0.0429399
0.0440347
0.0449026
0.0448255
0.0439242
0.0442222
0.043102
0.040137
0.0373204
0.0361107
0.0348415
0.0337277
0.0326078
0.0315999
0.0307073
0.0298312
0.028188
0.0274562
0.0268595
0.0264507
0.0259101
0.0250761
0.0247599
0.0254103
0.0264396
0.0272036
0.0267762
0.026141
0.0251625
0.0252275
0.0247291
0.0235476
0.0226454
0.0206803
0.0186476
0.0163457
0.0133703
0.0107622
0.00941461
0.00932433
0.0101732
0.0109679
0.0118863
0.0128954
0.0129786
0.0133776
0.0146259
0.0159519
0.0172839
0.0190725
0.019981
0.020294
0.0206047
0.0209469
0.021329
0.0213577
0.0211204
0.0200343
0.018653
0.0178081
0.0172611
0.0161598
0.0150641
0.0145642
0.0143645
0.0141642
0.0137713
0.0136549
0.0141365
0.0145664
0.0150007
0.0169129
0.0213442
0.0251553
0.0297063
0.028257
0.0517144
0.0431218
0.0269417
0.0148171
0.0118181
0.0103867
0.0132118
0.027576
0.0279709
0.0348736
0.0428579
0.0407746
0.0409102
0.0416257
0.0423628
0.0425855
0.0437776
0.0464687
0.0479904
0.048854
0.0462063
0.0465794
0.0485122
0.0474026
0.0455816
0.0436169
0.0416638
0.0398573
0.0360654
0.0341873
0.0318104
0.0294595
0.0286352
0.0298205
0.0291225
0.0280614
0.0269589
0.0258324
0.0247464
0.0243473
0.0237477
0.0233793
0.0234243
0.0238682
0.0243571
0.0248191
0.0251787
0.0252628
0.0254481
0.0250162
0.0242203
0.0225735
0.0204954
0.0186
0.0181352
0.0177709
0.0165986
0.0160361
0.0155051
0.016034
0.0162866
0.016268
0.0159475
0.015046
0.0149482
0.0155697
0.0162527
0.017564
0.018899
0.0189369
0.0193064
0.0197353
0.0200363
0.0203514
0.0207684
0.0211917
0.0211849
0.0210507
0.0208763
0.0207417
0.020534
0.0196319
0.0184218
0.0171801
0.0162873
0.0161243
0.0159817
0.0160137
0.0165428
0.0171801
0.018517
0.0231661
0.0271665
0.0311382
0.0291407
0.0277608
0.0263348
0.0235838
0.0149263
0.0444935
0.0560864
0.0450015
0.0254815
0.011236
0.0105542
0.0171402
0.0389995
0.0493097
0.0456823
0.0450606
0.0521723
0.0493837
0.0489625
0.0481188
0.0463713
0.0449551
0.0442547
0.0427361
0.0417498
0.0406147
0.0376189
0.0400636
0.0398217
0.0385263
0.0371929
0.0360582
0.0348797
0.0306274
0.0261801
0.023639
0.0237466
0.0233038
0.0231907
0.0242542
0.0255627
0.0254355
0.0253096
0.0252775
0.0253257
0.0250248
0.0250082
0.0247111
0.0247002
0.0248053
0.0244759
0.023147
0.021875
0.0205977
0.0193207
0.0184249
0.0172062
0.0156062
0.0144475
0.0127195
0.0127924
0.014602
0.0169131
0.0186858
0.0203636
0.0217369
0.023091
0.024545
0.0252116
0.0254193
0.0241207
0.0231011
0.0220398
0.0215373
0.0213322
0.0210315
0.0207669
0.0207347
0.021136
0.0210781
0.0209674
0.0208627
0.0207639
0.0200394
0.0198159
0.019587
0.0195757
0.0195328
0.0192329
0.0185473
0.0176529
0.0176891
0.0226139
0.0269014
0.0268493
0.0239943
0.0226253
0.022258
0.0197685
0.0115921
0.00947829
0.00851628
0.0102408
0.0150431
0.0222242
0.0813451
0.0393213
0.0477551
0.0273745
0.0138706
0.0138164
0.0358029
0.0577676
0.0572931
0.0504622
0.0514152
0.0482987
0.0438447
0.0418324
0.0398486
0.0385193
0.0371928
0.0363202
0.0354144
0.0349524
0.0320251
0.0306483
0.0332511
0.0330574
0.0320698
0.0316549
0.0313432
0.0282578
0.0230956
0.0211596
0.0210396
0.0217827
0.023147
0.0232874
0.0235954
0.0259723
0.0264543
0.0265657
0.0266694
0.0266791
0.0265627
0.0251531
0.0231611
0.0209435
0.0191564
0.0179391
0.016806
0.0151445
0.0137496
0.0132499
0.0142566
0.015942
0.0174375
0.0185235
0.0192
0.0196528
0.020433
0.0219589
0.023341
0.0250998
0.0260658
0.0267462
0.0271172
0.0270183
0.0269476
0.0269299
0.0269734
0.0268964
0.0265003
0.0262883
0.026121
0.0254706
0.0247082
0.0240215
0.0238827
0.023234
0.0226183
0.0221517
0.0216201
0.0210544
0.0208393
0.0210088
0.0256772
0.0270755
0.0241882
0.0210308
0.0182342
0.0186272
0.0119268
0.00649214
0.00752952
0.00811089
0.0126276
0.0189176
0.0259261
0.0272988
0.0281871
0.0291851
0.0300541
0.0309245
0.0832824
0.0666421
0.0351235
0.0249628
0.00939404
0.0209806
0.051758
0.0599003
0.0501411
0.0470997
0.053701
0.03623
0.0373154
0.0360004
0.0347805
0.0335756
0.0323899
0.0319051
0.0317799
0.0317538
0.0282889
0.028963
0.030343
0.0308955
0.031505
0.0307291
0.0276738
0.0232672
0.0211235
0.0214308
0.0216737
0.0218847
0.023201
0.0246765
0.0248796
0.0261348
0.0275461
0.0257873
0.023881
0.0215556
0.0201534
0.0191462
0.0175278
0.0153511
0.0140834
0.0142099
0.0155247
0.0168688
0.0177899
0.0186384
0.0199989
0.0215894
0.0232526
0.0249335
0.0258322
0.0258364
0.0257771
0.0251628
0.0243569
0.0232544
0.0235449
0.024392
0.0254075
0.0264816
0.0272132
0.0278018
0.028392
0.0287908
0.0286857
0.0286544
0.0294145
0.0296188
0.0293155
0.0285473
0.0279046
0.0274377
0.0269305
0.0240515
0.0218153
0.0190168
0.0161911
0.0138827
0.0115461
0.00796121
0.0105136
0.0100885
0.0115558
0.0168266
0.0238062
0.0275513
0.028423
0.0298674
0.030924
0.0319806
0.0329188
0.0340375
0.0353873
0.0365995
0.0374097
0.0386187
0.0694237
0.0745162
0.0353049
0.0180267
0.0124115
0.0404098
0.0597149
0.0577464
0.0492001
0.0488751
0.0522949
0.0310296
0.0357401
0.0343819
0.0334692
0.0327704
0.0321078
0.0315761
0.0316435
0.0309492
0.0285103
0.029933
0.0295429
0.0295251
0.0286448
0.0269949
0.0242673
0.0219708
0.0221935
0.0225169
0.0227932
0.023067
0.0230152
0.0221893
0.0211887
0.01917
0.0196682
0.0192454
0.0174751
0.0164814
0.016271
0.0172672
0.0186339
0.0194886
0.0198907
0.020881
0.0222818
0.023702
0.0252102
0.0257623
0.0256344
0.0253051
0.0251773
0.0250352
0.025061
0.0250785
0.0250958
0.0251718
0.0255603
0.0250418
0.0244882
0.024255
0.0246492
0.0257479
0.0269151
0.0280036
0.0290835
0.0293021
0.0292178
0.0289793
0.0243621
0.0179161
0.0134783
0.0113996
0.00887746
0.00686027
0.00764316
0.0100967
0.010218
0.0112677
0.0131527
0.0160275
0.0228316
0.0271507
0.0279128
0.0292737
0.0306434
0.0316676
0.0330151
0.0344606
0.0363416
0.0375473
0.0384642
0.0391149
0.03977
0.0404085
0.0406648
0.0405331
0.040403
0.04051
0.0503874
0.057885
0.0640788
0.00885026
0.0331098
0.0610254
0.0593092
0.0575552
0.0543555
0.0486248
0.0503662
0.0434323
0.0343749
0.0344976
0.0336977
0.0328731
0.0320382
0.0313994
0.0316559
0.0303502
0.0297284
0.0302464
0.029777
0.0273198
0.0245207
0.023219
0.0228881
0.0231356
0.0233147
0.0210186
0.0187134
0.0164349
0.0141819
0.0124261
0.0121615
0.0134242
0.0147211
0.0184609
0.0195709
0.0204665
0.0217541
0.023378
0.0249935
0.0265887
0.0271134
0.0267153
0.0262675
0.0259907
0.025715
0.0254807
0.0253173
0.0250648
0.024916
0.0247579
0.0245981
0.024436
0.0245076
0.025027
0.0258854
0.0271027
0.027208
0.0270202
0.0259067
0.0220877
0.0157923
0.0094497
0.00434721
0.00576249
0.00866026
0.0140948
0.0229779
0.0246899
0.022023
0.0223949
0.0247603
0.0272986
0.0300395
0.0307772
0.0316776
0.0327227
0.0337767
0.0348786
0.0357357
0.0362351
0.0371042
0.0379455
0.0384767
0.0390304
0.0396051
0.0405611
0.0413647
0.0417023
0.0418741
0.0417778
0.0416017
0.0414381
0.0413355
0.0405346
0.0347549
0.0274819
0.0435324
0.0524732
0.07368
0.0567535
0.0546044
0.0608769
0.0591434
0.0573801
0.0554508
0.047901
0.0474564
0.0555565
0.029713
0.0352215
0.0340064
0.033041
0.0323052
0.0316018
0.0315942
0.0303021
0.03107
0.0310467
0.0278132
0.0241598
0.0224708
0.0201957
0.0161167
0.0130896
0.0111582
0.0103803
0.0105754
0.0112112
0.0112656
0.0130436
0.014724
0.0176258
0.0212943
0.02381
0.0263085
0.0272141
0.0271163
0.0270078
0.0268945
0.0267779
0.0266572
0.0264607
0.0260926
0.0257397
0.0254381
0.0251755
0.0247963
0.0245904
0.0241926
0.0234992
0.02355
0.0205249
0.0155751
0.0106973
0.00592153
0.00245448
0.00543516
0.0120099
0.0211519
0.0311349
0.035512
0.0378169
0.0402322
0.0402279
0.0398543
0.0416961
0.039936
0.0361986
0.035166
0.0367755
0.0382828
0.0396219
0.0406905
0.0416316
0.042265
0.0428193
0.0432247
0.0436714
0.044144
0.0446421
0.0449018
0.0445769
0.044297
0.0439986
0.0435703
0.0431653
0.0429053
0.0432154
0.0434279
0.0437425
0.0406564
0.0347795
0.0286394
0.0181471
0.00709575
0.0143586
0.0428992
0.0497098
0.0730476
0.109752
0.0724843
0.0607089
0.0589643
0.0571842
0.0552464
0.0515425
0.043839
0.057604
0.0428087
0.0349704
0.0343612
0.0338998
0.0334048
0.0328301
0.0324986
0.031832
0.0322115
0.0280682
0.02191
0.0182718
0.0145097
0.008561
0.00403767
0.00302278
0.00369038
0.00658299
0.0101163
0.0130339
0.0158525
0.0186767
0.0211388
0.0218708
0.0234918
0.0247785
0.0268576
0.0269975
0.0267125
0.026325
0.0259019
0.0254429
0.0249515
0.0228495
0.0179242
0.0125717
0.00732246
0.00394889
0.00680869
0.011288
0.015376
0.0193473
0.0243074
0.0306636
0.0359939
0.0408775
0.0459402
0.0512196
0.0525596
0.0549791
0.0569702
0.0534678
0.048102
0.0447237
0.0419277
0.0388848
0.0385826
0.0399041
0.0410174
0.0423673
0.0437758
0.0446667
0.0454007
0.0460557
0.0468214
0.0475783
0.0478765
0.0476659
0.0472756
0.046884
0.0464942
0.0461302
0.045802
0.0454206
0.0449965
0.0444917
0.0441195
0.0438578
0.0436445
0.038135
0.0328967
0.0206695
0.00574732
0.0106368
0.0242015
0.0408318
0.0491937
0.0407276
0.0142839
0.0392306
0.0814457
0.106787
0.111314
0.0719578
0.0587744
0.0569698
0.0550313
0.0531778
0.0419474
0.0549943
0.0578105
0.0332003
0.0356938
0.0351522
0.034669
0.0341606
0.0339481
0.0302301
0.0239299
0.0156526
0.0116659
0.010213
0.00893112
0.00765033
0.00869589
0.0107487
0.0122978
0.0134467
0.011893
0.00952124
0.00813188
0.00647807
0.00467205
0.00302873
0.00219627
0.00351353
0.00560681
0.00811613
0.0118094
0.0158409
0.020148
0.0246737
0.0297718
0.0359926
0.0420426
0.0460326
0.0498117
0.0536469
0.0572611
0.0605952
0.0640905
0.0676155
0.0719605
0.0733975
0.0691414
0.0646476