/*--------------------------------*- C++ -*----------------------------------*\
| =========                 |                                                 |
| \\      /  F ield         | foam-extend: Open Source CFD                    |
|  \\    /   O peration     | Version:     4.1                                |
|   \\  /    A nd           | Web:         http://www.foam-extend.org         |
|    \\/     M anipulation  |                                                 |
\*---------------------------------------------------------------------------*/
FoamFile
{
    version     2.0;
    format      ascii;
    class       volScalarField;
    location    "1";
    object      sigmaEq;
}
// * * * * * * * * * * * * * * * * * * * * * * * * * * * * * * * * * * * * * //

dimensions      [1 -1 -2 0 0 0 0];

internalField   nonuniform List<scalar> 
100000
(
2.07899e+10
1.48061e+10
2.12881e+10
2.71046e+10
3.43979e+10
4.62022e+10
4.12632e+10
4.06753e+10
3.51299e+10
3.64683e+10
4.19185e+10
4.90171e+10
5.30129e+10
5.69789e+10
5.68453e+10
5.36057e+10
4.66064e+10
3.99704e+10
3.30393e+10
2.6421e+10
2.11162e+10
1.76215e+10
1.32125e+10
9.73416e+09
8.05428e+09
8.99201e+09
1.20821e+10
1.39167e+10
1.45345e+10
1.55595e+10
1.62105e+10
1.61435e+10
1.60813e+10
1.60141e+10
1.5936e+10
1.58558e+10
1.57737e+10
1.56896e+10
1.56031e+10
1.54302e+10
1.5244e+10
1.50684e+10
1.51811e+10
1.72427e+10
1.92684e+10
2.11967e+10
2.30339e+10
2.47788e+10
2.64418e+10
2.80207e+10
2.95149e+10
3.09245e+10
3.22576e+10
3.35265e+10
3.47304e+10
3.58374e+10
3.67969e+10
3.78126e+10
3.89718e+10
3.98962e+10
4.07446e+10
4.1535e+10
4.22734e+10
4.29584e+10
4.35965e+10
4.42113e+10
4.45293e+10
4.4491e+10
4.43794e+10
4.43038e+10
4.43806e+10
4.44868e+10
4.45656e+10
4.46183e+10
4.46485e+10
4.4654e+10
4.46352e+10
4.46035e+10
4.45504e+10
4.44679e+10
4.44551e+10
4.42021e+10
4.36143e+10
4.30232e+10
4.24307e+10
4.19019e+10
4.13078e+10
4.07373e+10
4.01932e+10
3.96418e+10
3.90876e+10
3.8324e+10
3.75142e+10
3.73049e+10
3.70483e+10
3.6682e+10
3.61977e+10
3.55066e+10
3.47388e+10
3.37175e+10
2.45249e+10
2.49563e+10
2.32125e+10
1.34299e+10
2.92972e+10
3.91465e+10
4.3583e+10
3.76733e+10
3.47211e+10
3.63977e+10
4.06378e+10
3.75292e+10
3.18698e+10
2.74955e+10
2.34444e+10
1.97116e+10
1.55347e+10
1.14613e+10
1.03847e+10
1.22009e+10
1.54706e+10
1.52666e+10
1.50667e+10
1.45174e+10
1.38411e+10
1.36814e+10
1.36548e+10
1.3643e+10
1.35216e+10
1.41466e+10
1.6139e+10
2.01195e+10
2.3801e+10
2.71836e+10
3.04639e+10
3.35544e+10
3.64388e+10
3.91909e+10
4.18146e+10
4.43059e+10
4.6676e+10
4.88832e+10
5.11031e+10
5.32832e+10
5.50998e+10
5.68132e+10
5.81156e+10
5.87583e+10
5.93322e+10
5.98269e+10
6.02628e+10
6.06506e+10
6.09902e+10
6.12856e+10
6.15278e+10
6.16192e+10
6.18012e+10
6.2075e+10
6.22451e+10
6.23725e+10
6.24395e+10
6.24698e+10
6.24647e+10
6.24421e+10
6.23251e+10
6.21215e+10
6.14888e+10
6.04495e+10
5.93219e+10
5.75724e+10
5.60015e+10
5.44713e+10
5.29708e+10
5.15441e+10
5.02155e+10
4.82819e+10
4.63516e+10
4.447e+10
4.26206e+10
4.07979e+10
3.88799e+10
3.69393e+10
3.50543e+10
3.31991e+10
3.13281e+10
2.93566e+10
2.75056e+10
2.62708e+10
2.50442e+10
2.39783e+10
2.27668e+10
2.15539e+10
2.04166e+10
1.95027e+10
1.8578e+10
1.76284e+10
1.71231e+10
1.69813e+10
1.7423e+10
2.16167e+10
5.26954e+10
3.58739e+10
3.86468e+10
3.35879e+10
3.37387e+10
2.25674e+10
1.89709e+10
9.38389e+09
8.9818e+09
1.14679e+10
1.28559e+10
1.2397e+10
1.48016e+10
1.82708e+10
1.93171e+10
1.85782e+10
1.58415e+10
1.58902e+10
1.58763e+10
1.55903e+10
1.57799e+10
1.75653e+10
1.92458e+10
2.02539e+10
2.15926e+10
2.3002e+10
2.43046e+10
2.55193e+10
2.66073e+10
2.83445e+10
3.1701e+10
3.51823e+10
3.7766e+10
4.00274e+10
4.21745e+10
4.41355e+10
4.59453e+10
4.76113e+10
4.91166e+10
5.04783e+10
5.17156e+10
5.27731e+10
5.3323e+10
5.17401e+10
5.01116e+10
4.84472e+10
4.67203e+10
4.50783e+10
4.35514e+10
4.20912e+10
4.06514e+10
3.92291e+10
3.77423e+10
3.62588e+10
3.46913e+10
3.31507e+10
3.17101e+10
3.02735e+10
2.88901e+10
2.75106e+10
2.60127e+10
2.45534e+10
2.31278e+10
2.17269e+10
2.00827e+10
1.7827e+10
1.59848e+10
1.49357e+10
1.38346e+10
1.26621e+10
1.155e+10
1.05723e+10
9.45107e+09
7.65631e+09
5.80267e+09
4.18482e+09
2.62316e+09
1.26054e+09
5.9555e+08
1.73961e+09
2.98973e+09
3.83198e+09
4.33175e+09
4.83397e+09
5.36685e+09
5.87721e+09
6.33092e+09
6.77632e+09
7.21899e+09
7.9617e+09
8.71968e+09
9.18683e+09
9.56737e+09
9.94057e+09
1.03321e+10
1.08427e+10
1.14677e+10
1.17485e+10
1.06038e+10
9.8016e+09
8.99587e+09
1.1138e+10
8.47801e+09
3.89822e+10
4.06316e+10
2.86831e+10
2.19377e+10
1.20656e+10
6.82865e+09
1.00188e+10
1.04898e+10
8.83554e+09
8.0929e+09
7.32809e+09
2.85247e+09
3.76054e+09
6.94961e+09
1.04071e+10
1.09152e+10
1.25096e+10
1.57258e+10
1.82933e+10
1.8208e+10
1.78976e+10
1.81785e+10
1.84411e+10
1.86536e+10
1.88079e+10
1.89152e+10
1.92371e+10
1.95318e+10
1.78848e+10
1.62833e+10
1.48109e+10
1.36115e+10
1.2555e+10
1.15391e+10
1.05826e+10
9.64061e+09
8.6355e+09
7.6347e+09
6.59825e+09
5.58407e+09
4.79988e+09
4.31489e+09
4.15399e+09
4.22012e+09
4.20893e+09
4.25803e+09
4.03446e+09
3.77879e+09
3.4459e+09
3.12644e+09
2.84685e+09
2.59769e+09
2.45387e+09
2.62872e+09
3.3346e+09
4.19645e+09
5.08612e+09
6.12547e+09
7.90606e+09
9.85928e+09
1.15506e+10
1.31701e+10
1.4774e+10
1.61893e+10
1.76579e+10
1.91138e+10
2.00835e+10
2.12237e+10
2.19776e+10
2.27154e+10
2.35248e+10
2.43218e+10
2.44806e+10
2.46143e+10
2.4767e+10
2.48702e+10
2.49791e+10
2.49978e+10
2.49767e+10
2.49602e+10
2.49488e+10
2.50632e+10
2.52598e+10
2.54671e+10
2.56852e+10
2.60974e+10
2.66124e+10
2.69069e+10
2.72146e+10
2.75583e+10
2.80441e+10
2.85621e+10
2.91349e+10
2.96647e+10
2.98398e+10
3.05755e+10
3.23763e+10
3.25505e+10
3.79738e+10
3.85503e+10
7.0909e+10
6.51576e+10
5.97665e+10
5.50579e+10
5.21063e+10
5.30203e+10
5.4511e+10
5.10405e+10
3.48397e+10
2.39781e+10
1.43936e+10
1.18159e+10
9.39353e+09
9.06198e+09
1.08171e+10
1.43433e+10
1.56647e+10
1.49121e+10
1.3581e+10
1.22092e+10
1.18174e+10
1.18841e+10
1.20131e+10
1.21903e+10
1.24461e+10
1.27374e+10
1.32812e+10
1.38449e+10
1.33885e+10
1.31826e+10
1.30421e+10
1.2664e+10
1.2226e+10
1.16292e+10
1.1058e+10
1.03549e+10
9.64656e+09
9.02466e+09
8.30939e+09
7.50819e+09
6.76241e+09
6.09017e+09
5.47415e+09
4.91589e+09
4.44868e+09
4.7455e+09
5.17783e+09
5.54595e+09
6.57559e+09
7.69639e+09
8.89208e+09
1.01632e+10
1.11854e+10
1.23139e+10
1.36642e+10
1.50098e+10
1.61471e+10
1.71623e+10
1.82287e+10
1.92707e+10
2.02661e+10
2.10537e+10
2.11722e+10
2.13608e+10
2.19834e+10
2.25897e+10
2.31871e+10
2.39361e+10
2.47072e+10
2.51978e+10
2.51543e+10
2.51565e+10
2.52735e+10
2.53917e+10
2.56513e+10
2.59262e+10
2.57755e+10
2.547e+10
2.51748e+10
2.49201e+10
2.47244e+10
2.45733e+10
2.44297e+10
2.42579e+10
2.41597e+10
2.43342e+10
2.42417e+10
2.41418e+10
2.40653e+10
2.40113e+10
2.40366e+10
2.41201e+10
2.40353e+10
2.38575e+10
2.36576e+10
2.42552e+10
2.5154e+10
3.87748e+10
3.85097e+10
5.63236e+10
7.50513e+10
6.49403e+10
5.96676e+10
5.24793e+10
5.33076e+10
5.67628e+10
4.33371e+10
2.73152e+10
1.85143e+10
1.04985e+10
9.91718e+09
8.90456e+09
8.22031e+09
7.85875e+09
7.37236e+09
7.44419e+09
1.10217e+10
1.44487e+10
1.57596e+10
1.52835e+10
1.44558e+10
1.34213e+10
1.23287e+10
1.12898e+10
1.03758e+10
9.63337e+09
9.19291e+09
9.2605e+09
8.53752e+09
7.56032e+09
7.69649e+09
7.88107e+09
7.77014e+09
7.73664e+09
7.59434e+09
7.50543e+09
7.50226e+09
7.54707e+09
8.11933e+09
8.97306e+09
8.07438e+09
6.77724e+09
5.82308e+09
5.75446e+09
6.52583e+09
7.84793e+09
8.87534e+09
1.11849e+10
1.38365e+10
1.63819e+10
1.86863e+10
2.07815e+10
2.28326e+10
2.33641e+10
2.33134e+10
2.32105e+10
2.30514e+10
2.29743e+10
2.24411e+10
2.17392e+10
2.13671e+10
2.10027e+10
2.0638e+10
2.02794e+10
1.98733e+10
1.94723e+10
1.90714e+10
1.86375e+10
1.857e+10
1.82276e+10
1.78691e+10
1.74885e+10
1.70867e+10
1.66642e+10
1.62455e+10
1.58148e+10
1.53927e+10
1.50393e+10
1.471e+10
1.4417e+10
1.41625e+10
1.37795e+10
1.32343e+10
1.27073e+10
1.2466e+10
1.23048e+10
1.21412e+10
1.20062e+10
1.18888e+10
1.18105e+10
1.17642e+10
1.17032e+10
1.16955e+10
1.17642e+10
1.16828e+10
1.20465e+10
1.24834e+10
3.88703e+10
3.95124e+10
6.82094e+10
7.45233e+10
6.44498e+10
5.88705e+10
5.3532e+10
5.6674e+10
3.84806e+10
2.27649e+10
1.83065e+10
1.31706e+10
8.84034e+09
8.63931e+09
9.08929e+09
8.94638e+09
9.01822e+09
8.9853e+09
9.73464e+09
1.05521e+10
9.66015e+09
1.00518e+10
1.15862e+10
1.19591e+10
1.1945e+10
1.17152e+10
1.14495e+10
1.1115e+10
1.09459e+10
1.10731e+10
1.15877e+10
1.21296e+10
1.23393e+10
1.34038e+10
1.55793e+10
1.79539e+10
1.90783e+10
1.70692e+10
1.51514e+10
1.28717e+10
1.09944e+10
9.79827e+09
5.77769e+09
1.35205e+09
3.25157e+09
5.8257e+09
8.22516e+09
1.05407e+10
1.27771e+10
1.49285e+10
1.47851e+10
1.43643e+10
1.39731e+10
1.35863e+10
1.32503e+10
1.28473e+10
1.2473e+10
1.21274e+10
1.18459e+10
1.15015e+10
1.11474e+10
1.09381e+10
1.05442e+10
1.01188e+10
9.70676e+09
9.33476e+09
8.9683e+09
8.60669e+09
8.24713e+09
7.88931e+09
7.51902e+09
7.26635e+09
7.07545e+09
6.46106e+09
5.85905e+09
5.26719e+09
4.6914e+09
4.13147e+09
3.58605e+09
3.44014e+09
3.75894e+09
3.98064e+09
4.18714e+09
4.36774e+09
4.08203e+09
4.3751e+09
5.02338e+09
5.69607e+09
6.19094e+09
6.58901e+09
6.88964e+09
7.21382e+09
7.57285e+09
7.88782e+09
8.14464e+09
8.87825e+09
9.60164e+09
1.03708e+10
1.1899e+10
1.19359e+10
5.39578e+10
4.96296e+10
7.30982e+10
7.44273e+10
6.44033e+10
5.89493e+10
5.70579e+10
3.55388e+10
3.01732e+10
2.73094e+10
2.11072e+10
1.68501e+10
1.45549e+10
1.4751e+10
1.53966e+10
1.57062e+10
1.59873e+10
1.60344e+10
1.65188e+10
1.69205e+10
1.6979e+10
1.62075e+10
1.49021e+10
1.56333e+10
1.60062e+10
1.76909e+10
2.05873e+10
2.36634e+10
2.66838e+10
2.97168e+10
3.27836e+10
3.0156e+10
2.7964e+10
2.68154e+10
2.55351e+10
2.26727e+10
1.77604e+10
1.40481e+10
1.13774e+10
8.71817e+09
6.27708e+09
2.50526e+09
1.47827e+09
2.75698e+09
3.05338e+09
2.87323e+09
2.67235e+09
2.45513e+09
2.2296e+09
1.98777e+09
1.76608e+09
1.50394e+09
1.2063e+09
9.32285e+08
7.18647e+08
6.46267e+08
7.62397e+08
1.10255e+09
1.4421e+09
1.78158e+09
2.13727e+09
2.32617e+09
2.4188e+09
2.40459e+09
2.44225e+09
2.45172e+09
2.51339e+09
2.57547e+09
2.63786e+09
2.78342e+09
3.03066e+09
3.2272e+09
3.62912e+09
3.91082e+09
4.1532e+09
4.43068e+09
4.72948e+09
5.03098e+09
5.35206e+09
5.70362e+09
6.04497e+09
6.36412e+09
6.66583e+09
6.9431e+09
7.20828e+09
7.42756e+09
7.77775e+09
8.20414e+09
8.30673e+09
8.27216e+09
8.25321e+09
8.40887e+09
9.13354e+09
9.77304e+09
9.16031e+09
9.08703e+09
8.62317e+09
7.97086e+09
5.88419e+09
1.34357e+09
7.88013e+10
6.0498e+10
7.44323e+10
7.49751e+10
6.47739e+10
4.6698e+10
3.15081e+10
4.62299e+10
4.26875e+10
2.99589e+10
2.46246e+10
2.11628e+10
1.9471e+10
2.05512e+10
2.22976e+10
2.38029e+10
2.52288e+10
2.695e+10
2.80026e+10
3.00388e+10
3.24669e+10
3.56273e+10
3.98771e+10
4.34603e+10
4.58937e+10
4.8852e+10
4.53499e+10
4.08659e+10
3.83648e+10
3.60946e+10
3.16059e+10
2.71754e+10
2.35849e+10
1.91501e+10
1.34887e+10
7.92106e+09
3.78087e+09
3.01102e+09
2.31434e+09
2.05071e+09
1.63204e+09
1.65724e+09
2.02626e+09
1.75209e+09
1.45653e+09
1.18593e+09
9.52749e+08
7.86849e+08
7.19558e+08
7.7187e+08
8.34027e+08
8.38421e+08
9.42914e+08
1.09197e+09
1.28765e+09
1.50269e+09
1.67709e+09
1.83637e+09
1.97967e+09
2.27996e+09
2.62849e+09
2.90817e+09
3.22964e+09
3.5307e+09
3.72269e+09
3.9275e+09
4.13227e+09
4.32823e+09
4.62271e+09
4.96623e+09
5.26944e+09
5.51293e+09
5.70623e+09
6.14946e+09
6.32739e+09
6.54273e+09
6.75959e+09
6.97807e+09
7.19874e+09
7.35659e+09
7.43221e+09
7.51108e+09
7.59227e+09
7.67678e+09
7.75287e+09
7.83833e+09
8.11051e+09
8.3633e+09
8.26919e+09
7.30038e+09
6.6548e+09
6.80314e+09
7.07834e+09
4.04568e+09
1.25345e+09
1.00131e+09
2.76858e+09
4.69213e+09
6.58407e+09
7.53186e+09
7.48889e+10
6.47482e+10
7.3046e+10
7.19067e+10
3.28987e+10
1.44344e+10
4.11821e+10
5.34725e+10
4.50143e+10
3.5028e+10
3.29732e+10
3.20785e+10
3.39571e+10
3.61024e+10
3.97449e+10
4.38775e+10
4.84942e+10
5.35658e+10
5.83589e+10
6.26376e+10
6.60717e+10
6.98339e+10
7.20953e+10
6.5478e+10
5.916e+10
4.87359e+10
3.7824e+10
2.75756e+10
1.77432e+10
8.62781e+09
4.76603e+09
4.20835e+09
4.02121e+09
3.9746e+09
4.15704e+09
4.22801e+09
3.81914e+09
3.65391e+09
3.77858e+09
3.93132e+09
4.12041e+09
3.73641e+09
3.01291e+09
2.44632e+09
1.87787e+09
1.78731e+09
1.8097e+09
1.97503e+09
2.15653e+09
2.35824e+09
2.56585e+09
2.87493e+09
3.20645e+09
3.52967e+09
3.84147e+09
4.09842e+09
4.33316e+09
4.58606e+09
4.88327e+09
5.16996e+09
5.42706e+09
5.6232e+09
5.87125e+09
6.16853e+09
6.45292e+09
6.67389e+09
6.80403e+09
6.96119e+09
7.11153e+09
7.18748e+09
7.23522e+09
7.28454e+09
7.32637e+09
7.49164e+09
7.67878e+09
7.71108e+09
7.74178e+09
7.90143e+09
8.19209e+09
8.47416e+09
8.74633e+09
9.00849e+09
8.63905e+09
7.19429e+09
5.9442e+09
5.33222e+09
4.98583e+09
4.36748e+09
2.65538e+09
1.39179e+09
7.40491e+08
9.81619e+08
2.58326e+09
4.30905e+09
4.35879e+09
4.4593e+09
4.63905e+09
4.82495e+09
5.00867e+09
5.25803e+09
5.01663e+10
5.64389e+10
6.46153e+10
2.17919e+10
2.29671e+10
3.58685e+10
5.52819e+10
6.41518e+10
5.57398e+10
4.90877e+10
5.08573e+10
5.38562e+10
5.88013e+10
6.38784e+10
6.7324e+10
7.01596e+10
7.28175e+10
7.56217e+10
7.84583e+10
7.65006e+10
6.76784e+10
5.79366e+10
4.60565e+10
3.56919e+10
2.54725e+10
1.56405e+10
1.20966e+10
9.68237e+09
5.86029e+09
8.43641e+08
4.35309e+09
8.02035e+09
8.49389e+09
8.94576e+09
9.11994e+09
9.27343e+09
9.19861e+09
8.89887e+09
8.6284e+09
8.64949e+09
8.68064e+09
8.73178e+09
8.80145e+09
8.29011e+09
7.77314e+09
7.34774e+09
6.97554e+09
6.96245e+09
7.21909e+09
7.44122e+09
7.64741e+09
7.86689e+09
8.05404e+09
8.20072e+09
8.35465e+09
8.51318e+09
9.02894e+09
8.84389e+09
8.96684e+09
8.97932e+09
8.99736e+09
9.01566e+09
8.95892e+09
9.05052e+09
9.2047e+09
9.31248e+09
9.69643e+09
9.99279e+09
1.02314e+10
1.04853e+10
1.07316e+10
1.09612e+10
1.12547e+10
1.15219e+10
1.21158e+10
1.24973e+10
1.19157e+10
1.05085e+10
9.10854e+09
7.69365e+09
6.31909e+09
5.16644e+09
4.19278e+09
3.94961e+09
2.73916e+09
1.7486e+09
9.29734e+08
4.52963e+08
1.14287e+09
1.24223e+09
1.42167e+09
1.62584e+09
1.83669e+09
1.95381e+09
2.13252e+09
2.37119e+09
2.61765e+09
2.85661e+09
3.12262e+09
3.32071e+09
3.95658e+10
3.82615e+10
1.68557e+10
3.80674e+10
4.90118e+10
5.62846e+10
7.15109e+10
7.21176e+10
6.83931e+10
6.85592e+10
6.95098e+10
7.11801e+10
7.37119e+10
7.82017e+10
7.89325e+10
7.88178e+10
7.23039e+10
6.29458e+10
5.25308e+10
4.07975e+10
3.06499e+10
1.97608e+10
1.04287e+10
9.10902e+09
7.64e+09
6.02827e+09
4.65417e+09
4.02777e+09
3.8388e+09
3.67397e+09
3.67413e+09
4.31965e+09
7.50517e+09
9.90427e+09
1.18074e+10
1.19709e+10
1.216e+10
1.22589e+10
1.21618e+10
1.2094e+10
1.2197e+10
1.2319e+10
1.24458e+10
1.25706e+10
1.27411e+10
1.24938e+10
1.21644e+10
1.17606e+10
1.13543e+10
1.08413e+10
1.07952e+10
1.07845e+10
1.07788e+10
1.0775e+10
1.08044e+10
1.1137e+10
1.1466e+10
1.17935e+10
1.21175e+10
1.24396e+10
1.27589e+10
1.30738e+10
1.32938e+10
1.35575e+10
1.38925e+10
1.43752e+10
1.47926e+10
1.51213e+10
1.5445e+10
1.50828e+10
1.37105e+10
1.2387e+10
1.10982e+10
9.81693e+09
8.57881e+09
7.22453e+09
5.86621e+09
5.11829e+09
4.32737e+09
3.59914e+09
2.34601e+09
9.76143e+08
6.35732e+08
1.27092e+09
1.73275e+09
1.61714e+09
1.44106e+09
1.24659e+09
1.04791e+09
8.44272e+08
6.18604e+08
4.11615e+08
2.19012e+08
1.36482e+08
1.81512e+08
2.38042e+08
2.8898e+08
3.8342e+08
4.69356e+08
5.55929e+08
3.97911e+10
3.40142e+10
2.47554e+10
4.17775e+10
4.73336e+10
6.78294e+10
8.70597e+10
8.9836e+10
8.67682e+10
8.32486e+10
7.97178e+10
7.84863e+10
7.58278e+10
7.00125e+10
5.94032e+10
4.66888e+10
3.41558e+10
2.35312e+10
1.22005e+10
3.95296e+09
2.99168e+09
3.76755e+09
3.76694e+09
4.00842e+09
4.27568e+09
4.17872e+09
4.06724e+09
3.93338e+09
3.81022e+09
3.70186e+09
3.60665e+09
3.32451e+09
4.14258e+09
5.77727e+09
7.5213e+09
9.74414e+09
1.1644e+10
1.34287e+10
1.38642e+10
1.3585e+10
1.33279e+10
1.31474e+10
1.3231e+10
1.32954e+10
1.36123e+10
1.40513e+10
1.44792e+10
1.45769e+10
1.43571e+10
1.41797e+10
1.40858e+10
1.39638e+10
1.39139e+10
1.42388e+10
1.46062e+10
1.49749e+10
1.52794e+10
1.55807e+10
1.58793e+10
1.61745e+10
1.64655e+10
1.67527e+10
1.64157e+10
1.49742e+10
1.36888e+10
1.25044e+10
1.1121e+10
9.70642e+09
8.03429e+09
6.23988e+09
4.90865e+09
3.49164e+09
2.09596e+09
1.0981e+09
1.13487e+09
1.87766e+09
1.89393e+09
8.31848e+08
8.9759e+08
1.54185e+09
2.17466e+09
2.19608e+09
2.08264e+09
2.00432e+09
1.88844e+09
1.76436e+09
1.60374e+09
1.46958e+09
1.42817e+09
1.51755e+09
1.51503e+09
1.51358e+09
1.51404e+09
1.52383e+09
1.63036e+09
4.16026e+09
5.97296e+09
7.30099e+09
8.6999e+09
9.93103e+09
3.83905e+10
3.94872e+10
4.76755e+10
4.46195e+10
5.41389e+10
7.61045e+10
8.43641e+10
8.60273e+10
8.45466e+10
8.31957e+10
7.23609e+10
5.7555e+10
4.38229e+10
2.99819e+10
1.86441e+10
7.55254e+09
2.3855e+09
3.45789e+08
2.32968e+09
3.60372e+09
4.43254e+09
4.39523e+09
4.42407e+09
4.35491e+09
3.95423e+09
3.81492e+09
3.9469e+09
3.9694e+09
3.8213e+09
3.70907e+09
3.61335e+09
3.42725e+09
3.05302e+09
2.77439e+09
2.86212e+09
4.26523e+09
6.16501e+09
7.80013e+09
9.72207e+09
1.1683e+10
1.33704e+10
1.49088e+10
1.63787e+10
1.73366e+10
1.77531e+10
1.80939e+10
1.84189e+10
1.87334e+10
1.89679e+10
1.92929e+10
1.92619e+10
1.9225e+10
1.92407e+10
1.928e+10
1.925e+10
1.84252e+10
1.67418e+10
1.50899e+10
1.34706e+10
1.18862e+10
1.03392e+10
8.6098e+09
6.78236e+09
5.24312e+09
3.57987e+09
2.07872e+09
9.03426e+08
1.14991e+09
2.4029e+09
3.17289e+09
2.75332e+09
1.92035e+09
1.29388e+09
3.82222e+08
1.26857e+09
1.68557e+09
2.06642e+09
2.84357e+09
2.61118e+09
2.35994e+09
2.12599e+09
1.89575e+09
1.6655e+09
1.58245e+09
1.45268e+09
1.32596e+09
3.16382e+09
5.7389e+09
8.01808e+09
9.39038e+09
1.07474e+10
1.20876e+10
1.34096e+10
1.47158e+10
1.67506e+10
1.9063e+10
1.9838e+10
2.10398e+10
2.24322e+10
2.36277e+10
3.40525e+10
6.38487e+10
6.09883e+10
4.70302e+10
5.82267e+10
6.61285e+10
7.03866e+10
7.27303e+10
6.85413e+10
4.64183e+10
2.31438e+10
1.13062e+10
7.19237e+09
4.54258e+09
1.75654e+09
1.76766e+09
3.0916e+09
4.71313e+09
4.9268e+09
4.86247e+09
4.80408e+09
4.67898e+09
4.75376e+09
4.5309e+09
4.40544e+09
4.46753e+09
4.45263e+09
4.27274e+09
4.30839e+09
4.5009e+09
4.59824e+09
4.5579e+09
4.37565e+09
4.55169e+09
4.97315e+09
5.28226e+09
5.54141e+09
5.88066e+09
7.37263e+09
9.28986e+09
1.11329e+10
1.28522e+10
1.4155e+10
1.53847e+10
1.64068e+10
1.73223e+10
1.81847e+10
1.89337e+10
1.96473e+10
1.90615e+10
1.78212e+10
1.65579e+10
1.52196e+10
1.35139e+10
1.13635e+10
9.18479e+09
7.24414e+09
5.26069e+09
3.35724e+09
1.83574e+09
1.17368e+09
2.0763e+09
2.87384e+09
2.7228e+09
2.67899e+09
2.64622e+09
2.82206e+09
2.34938e+09
1.72194e+09
1.02556e+09
6.25084e+08
9.79655e+08
1.12188e+09
1.5099e+09
1.30566e+09
1.06958e+09
1.05613e+09
3.25489e+09
5.9027e+09
8.42716e+09
1.09513e+10
1.23781e+10
1.3632e+10
1.48815e+10
1.61438e+10
1.75426e+10
1.97215e+10
2.11872e+10
2.20216e+10
2.31338e+10
2.46725e+10
2.62651e+10
2.76764e+10
2.67722e+10
2.49691e+10
2.06777e+10
1.71132e+10
1.40507e+10
1.09786e+10
5.84269e+09
4.5233e+10
7.57572e+10
6.07022e+10
5.08201e+10
6.01531e+10
6.37549e+10
6.6758e+10
5.59801e+10
3.72629e+10
2.87128e+10
2.85439e+10
2.47719e+10
2.18814e+10
1.84904e+10
1.49939e+10
1.37597e+10
1.15445e+10
7.32512e+09
6.58529e+09
6.85553e+09
7.18133e+09
7.42128e+09
7.71437e+09
7.97794e+09
8.31936e+09
8.62194e+09
8.80385e+09
8.99154e+09
9.18873e+09
9.2134e+09
9.08633e+09
9.08086e+09
9.12592e+09
9.31131e+09
9.24109e+09
9.1316e+09
9.07274e+09
9.22985e+09
9.36104e+09
9.43719e+09
9.48234e+09
9.53404e+09
9.5899e+09
9.5364e+09
8.27458e+09
7.05339e+09
5.83846e+09
4.78663e+09
2.89774e+09
1.35603e+09
1.39596e+09
1.99035e+09
3.0838e+09
4.49857e+09
5.93847e+09
6.73786e+09
6.70138e+09
6.68461e+09
6.60608e+09
6.53055e+09
6.81372e+09
7.21135e+09
7.49644e+09
7.4687e+09
5.34567e+09
3.06754e+09
4.96421e+08
2.25816e+09
4.86137e+09
7.44828e+09
9.72987e+09
1.14158e+10
1.23616e+10
1.33197e+10
1.43179e+10
1.5351e+10
1.67937e+10
1.85439e+10
2.00229e+10
2.14662e+10
2.20115e+10
2.26295e+10
2.35515e+10
2.45489e+10
2.56337e+10
2.68976e+10
2.62735e+10
2.2823e+10
1.89148e+10
1.59718e+10
1.31417e+10
1.02708e+10
5.8847e+09
4.42039e+09
5.03165e+09
6.59833e+09
9.18101e+09
1.21423e+10
1.51008e+10
1.84028e+10
7.5979e+10
6.886e+10
7.88854e+10
5.92329e+10
5.79965e+10
5.53544e+10
4.26225e+10
3.50547e+10
4.19137e+10
3.75064e+10
3.68502e+10
3.89091e+10
4.16006e+10
4.08081e+10
3.67809e+10
3.26568e+10
3.12054e+10
2.9563e+10
2.81192e+10
2.67245e+10
2.55132e+10
2.44344e+10
2.17172e+10
1.94085e+10
1.73371e+10
1.53339e+10
1.34228e+10
1.25343e+10
1.23541e+10
1.21814e+10
1.20506e+10
1.19718e+10
1.18831e+10
1.17036e+10
1.14208e+10
1.12587e+10
1.11526e+10
1.09877e+10
1.00678e+10
7.54358e+09
5.30216e+09
3.76853e+09
2.98825e+09
3.30284e+09
5.89281e+09
8.08513e+09
1.02059e+10
1.21412e+10
1.36712e+10
1.29359e+10
1.14633e+10
9.91848e+09
8.33451e+09
6.72316e+09
4.77405e+09
2.92042e+09
1.58479e+09
2.1837e+09
3.89195e+09
5.67856e+09
7.22313e+09
8.35623e+09
9.40566e+09
1.05753e+10
1.26135e+10
1.39053e+10
1.51557e+10
1.61691e+10
1.71274e+10
1.81612e+10
1.90609e+10
1.96046e+10
2.02078e+10
2.11517e+10
2.21308e+10
2.30957e+10
2.37546e+10
2.26074e+10
2.14539e+10
2.01992e+10
1.89941e+10
1.59291e+10
1.27753e+10
9.65774e+09
6.75288e+09
4.50783e+09
8.46525e+08
5.36322e+09
8.68024e+09
1.15597e+10
1.47445e+10
1.80643e+10
2.12689e+10
2.21713e+10
2.22353e+10
2.23217e+10
2.2306e+10
2.22546e+10
2.21185e+10
2.2401e+10
8.20355e+10
9.41522e+10
8.10545e+10
6.0732e+10
4.14984e+10
3.05421e+10
3.84872e+10
4.36398e+10
4.2833e+10
4.06233e+10
4.08681e+10
4.35451e+10
4.465e+10
4.56511e+10
4.6334e+10
4.40085e+10
4.43377e+10
4.73965e+10
4.66866e+10
4.46513e+10
4.29886e+10
4.15096e+10
3.98888e+10
3.86718e+10
3.76143e+10
3.66656e+10
3.58285e+10
3.51718e+10
3.45815e+10
3.40548e+10
3.36105e+10
3.31389e+10
3.27232e+10
3.14812e+10
2.88228e+10
2.6261e+10
2.36319e+10
2.08424e+10
1.81664e+10
1.59655e+10
1.37513e+10
1.1657e+10
9.57927e+09
8.12579e+09
8.45964e+09
8.81484e+09
9.42495e+09
1.00852e+10
1.0748e+10
1.15297e+10
1.22633e+10
1.30001e+10
1.37525e+10
1.45791e+10
1.54463e+10
1.63255e+10
1.72147e+10
1.81758e+10
1.93817e+10
2.05515e+10
2.19405e+10
2.34239e+10
2.48041e+10
2.58463e+10
2.47204e+10
2.32594e+10
2.16531e+10
2.01646e+10
1.86838e+10
1.71453e+10
1.56689e+10
1.43443e+10
1.43771e+10
1.42891e+10
1.37491e+10
1.05832e+10
7.74538e+09
5.30752e+09
3.85028e+09
4.46183e+09
4.73985e+09
8.93587e+09
1.15696e+10
1.42357e+10
1.69932e+10
1.99865e+10
2.31289e+10
2.41287e+10
2.4244e+10
2.42912e+10
2.42033e+10
2.41116e+10
2.40223e+10
2.39074e+10
2.37855e+10
2.36115e+10
2.34467e+10
2.33043e+10
2.31162e+10
2.32403e+10
7.84166e+10
9.78474e+10
7.88382e+10
4.7963e+10
3.47702e+10
2.76498e+10
2.06269e+10
1.94166e+10
2.66009e+10
3.25078e+10
4.10256e+10
4.59394e+10
4.64079e+10
4.64893e+10
4.69268e+10
4.59402e+10
4.46586e+10
4.48141e+10
4.48442e+10
4.47465e+10
4.46445e+10
4.46365e+10
4.60025e+10
4.73331e+10
4.87131e+10
4.99376e+10
5.10561e+10
5.12675e+10
4.95099e+10
4.62091e+10
4.30599e+10
4.00112e+10
3.69544e+10
3.40218e+10
3.15487e+10
2.90204e+10
2.65877e+10
2.42383e+10
2.27136e+10
2.30743e+10
2.34743e+10
2.38284e+10
2.41136e+10
2.43773e+10
2.46007e+10
2.48421e+10
2.54713e+10
2.60021e+10
2.61718e+10
2.54087e+10
2.45552e+10
2.36401e+10
2.27168e+10
2.18349e+10
2.10175e+10
2.04853e+10
1.99897e+10
1.95229e+10
1.90335e+10
1.85236e+10
1.81696e+10
1.80747e+10
1.79597e+10
1.7842e+10
1.77233e+10
1.76044e+10
1.74761e+10
1.69419e+10
1.39647e+10
1.02456e+10
6.73744e+09
4.23581e+09
3.79194e+09
4.78631e+09
7.09235e+09
1.14063e+10
1.43956e+10
1.73067e+10
2.01711e+10
2.3032e+10
2.59325e+10
2.58833e+10
2.56009e+10
2.5293e+10
2.51126e+10
2.49308e+10
2.47538e+10
2.45439e+10
2.44836e+10
2.42315e+10
2.4029e+10
2.38734e+10
2.37225e+10
2.35754e+10
2.34364e+10
2.32565e+10
2.33391e+10
2.34141e+10
2.31009e+10
2.12003e+10
7.53968e+10
7.8435e+10
4.74694e+10
4.54631e+10
4.66711e+10
4.67357e+10
3.85162e+10
2.78528e+10
1.2383e+10
5.83414e+09
1.05918e+10
1.63133e+10
2.44241e+10
3.16075e+10
3.81968e+10
4.40423e+10
4.66572e+10
4.62384e+10
4.62868e+10
4.62771e+10
4.60449e+10
4.60243e+10
4.60067e+10
4.54339e+10
4.23231e+10
3.93248e+10
3.64073e+10
3.34634e+10
3.05918e+10
2.78673e+10
2.51253e+10
2.24474e+10
1.98262e+10
1.82455e+10
1.82985e+10
1.83103e+10
1.84802e+10
1.85821e+10
1.85471e+10
1.84053e+10
1.82091e+10
1.7965e+10
1.78148e+10
1.77142e+10
1.76123e+10
1.76316e+10
1.76545e+10
1.74634e+10
1.72772e+10
1.71595e+10
1.70885e+10
1.70249e+10
1.73086e+10
1.75198e+10
1.77026e+10
1.78992e+10
1.80758e+10
1.81704e+10
1.80194e+10
1.79673e+10
1.54134e+10
1.27501e+10
1.00681e+10
7.41237e+09
4.85328e+09
2.73162e+09
2.61412e+09
3.79722e+09
7.96884e+09
1.08858e+10
1.3304e+10
1.57657e+10
1.88486e+10
2.19608e+10
2.4674e+10
2.46672e+10
2.47528e+10
2.48613e+10
2.50508e+10
2.52631e+10
2.54586e+10
2.5608e+10
2.54637e+10
2.51314e+10
2.45965e+10
2.43614e+10
2.41476e+10
2.3937e+10
2.38223e+10
2.37747e+10
2.38278e+10
2.38843e+10
2.39432e+10
2.40038e+10
2.16957e+10
1.93809e+10
1.71802e+10
1.47019e+10
1.13882e+10
9.44006e+09
5.03463e+10
5.63182e+10
4.51949e+10
4.44425e+10
4.61831e+10
3.45907e+10
2.29438e+10
1.8385e+10
1.88043e+10
1.98117e+10
2.14049e+10
1.86364e+10
1.21384e+10
7.18245e+09
7.80921e+09
1.16824e+10
1.42666e+10
1.62557e+10
1.90611e+10
2.1105e+10
2.25067e+10
2.3911e+10
2.49569e+10
2.53431e+10
2.53976e+10
2.50277e+10
2.43821e+10
2.15392e+10
1.98114e+10
1.97728e+10
1.97226e+10
1.96748e+10
1.96231e+10
1.94904e+10
1.93449e+10
1.91934e+10
1.90232e+10
1.88576e+10
1.86992e+10
1.85575e+10
1.84245e+10
1.82978e+10
1.8174e+10
1.81e+10
1.80901e+10
1.83718e+10
1.83773e+10
1.8385e+10
1.83941e+10
1.699e+10
1.5362e+10
1.36917e+10
1.19662e+10
1.00898e+10
8.08442e+09
5.7871e+09
3.49926e+09
1.82027e+09
2.82483e+09
4.84282e+09
8.62211e+09
1.10926e+10
1.32971e+10
1.55517e+10
1.78501e+10
2.01602e+10
2.24365e+10
2.48019e+10
2.50136e+10
2.44132e+10
2.38631e+10
2.34618e+10
2.3253e+10
2.30452e+10
2.27803e+10
2.24679e+10
2.21417e+10
2.20748e+10
2.22013e+10
2.23636e+10
2.25671e+10
2.28258e+10
2.30213e+10
2.3057e+10
2.30786e+10
2.31789e+10
2.32889e+10
2.36161e+10
2.39067e+10
2.25072e+10
2.02185e+10
1.80006e+10
1.57149e+10
1.23471e+10
9.89893e+09
7.80007e+09
5.70709e+09
3.65467e+09
2.66345e+09
3.47715e+09
4.6653e+10
5.64458e+10
4.41267e+10
4.17364e+10
3.02757e+10
1.83068e+10
1.626e+10
1.78038e+10
1.85301e+10
1.91901e+10
2.07353e+10
2.10553e+10
2.12699e+10
2.20759e+10
2.29092e+10
2.38571e+10
2.45546e+10
2.2814e+10
2.16573e+10
1.95657e+10
1.82072e+10
1.68628e+10
1.58046e+10
1.49283e+10
1.18926e+10
9.25623e+09
6.60773e+09
4.99942e+09
3.43339e+09
2.22281e+09
1.76179e+09
2.13946e+09
2.83659e+09
3.48667e+09
3.97647e+09
4.30778e+09
4.36074e+09
4.25716e+09
4.08377e+09
3.80724e+09
3.40705e+09
2.89062e+09
2.26634e+09
1.54684e+09
6.00086e+08
5.86927e+08
1.95296e+09
3.30845e+09
4.84186e+09
6.9246e+09
8.57607e+09
1.02361e+10
1.23079e+10
1.4458e+10
1.66655e+10
1.8913e+10
2.11613e+10
2.31958e+10
2.52688e+10
2.74624e+10
2.71889e+10
2.66743e+10
2.60991e+10
2.5594e+10
2.50903e+10
2.45574e+10
2.40885e+10
2.3868e+10
2.36299e+10
2.32745e+10
2.28937e+10
2.26308e+10
2.24435e+10
2.23182e+10
2.22107e+10
2.21075e+10
2.19805e+10
2.19268e+10
2.18891e+10
2.18522e+10
2.18671e+10
2.19353e+10
2.19779e+10
2.21499e+10
2.20219e+10
1.96173e+10
1.7386e+10
1.52031e+10
1.17538e+10
8.58552e+09
6.5021e+09
4.58727e+09
2.89794e+09
1.87558e+09
1.57404e+09
2.06421e+09
3.24022e+09
4.4352e+09
5.75009e+09
7.11347e+09
5.92282e+10
4.96771e+10
3.66659e+10
2.51503e+10
1.483e+10
1.47749e+10
1.56585e+10
1.72807e+10
1.89576e+10
2.0358e+10
2.26269e+10
2.37644e+10
2.45596e+10
2.52907e+10
2.63565e+10
2.73876e+10
2.83773e+10
2.93426e+10
3.10758e+10
3.23448e+10
3.25408e+10
3.26988e+10
3.2647e+10
3.26455e+10
3.25992e+10
3.25186e+10
3.23821e+10
3.03084e+10
2.8376e+10
2.67047e+10
2.52707e+10
2.40708e+10
2.30908e+10
2.22308e+10
2.15241e+10
2.0969e+10
2.07195e+10
2.06399e+10
2.07202e+10
2.09931e+10
2.14132e+10
2.19635e+10
2.26285e+10
2.34054e+10
2.41344e+10
2.51899e+10
2.64426e+10
2.77874e+10
2.92235e+10
2.9324e+10
2.92654e+10
2.91081e+10
2.87077e+10
2.8234e+10
2.77311e+10
2.72117e+10
2.66398e+10
2.60748e+10
2.55548e+10
2.50344e+10
2.44997e+10
2.40112e+10
2.38674e+10
2.37335e+10
2.36751e+10
2.3645e+10
2.36099e+10
2.35566e+10
2.34472e+10
2.33839e+10
2.32776e+10
2.31645e+10
2.31629e+10
2.31915e+10
2.32013e+10
2.32075e+10
2.32165e+10
2.32269e+10
2.31695e+10
2.30965e+10
2.07904e+10
1.82317e+10
1.57465e+10
1.30529e+10
9.43541e+09
6.86202e+09
4.4265e+09
2.06006e+09
1.33758e+09
1.76413e+09
1.211e+09
6.33268e+08
9.93015e+08
2.27552e+09
3.59684e+09
4.97383e+09
5.78278e+09
6.34779e+09
6.27748e+09
6.17414e+09
5.98617e+10
3.61272e+10
2.5121e+10
1.712e+10
1.84137e+10
1.86201e+10
1.95912e+10
2.04793e+10
2.23399e+10
2.32481e+10
2.5167e+10
2.65478e+10
2.76078e+10
2.79842e+10
2.84077e+10
2.87867e+10
2.91365e+10
2.93062e+10
2.93901e+10
3.08638e+10
3.17882e+10
3.20685e+10
3.18479e+10
3.16139e+10
3.13762e+10
3.11452e+10
3.10253e+10
3.08987e+10
3.08031e+10
3.07688e+10
3.07974e+10
3.08353e+10
3.08702e+10
3.08977e+10
3.09113e+10
3.0881e+10
3.08189e+10
3.08126e+10
3.08091e+10
3.07965e+10
3.07726e+10
3.06729e+10
3.04021e+10
3.01093e+10
2.97707e+10
2.94751e+10
2.90165e+10
2.85375e+10
2.80565e+10
2.757e+10
2.70643e+10
2.65178e+10
2.59724e+10
2.54577e+10
2.49516e+10
2.45314e+10
2.41745e+10
2.40942e+10
2.40183e+10
2.39416e+10
2.38686e+10
2.38673e+10
2.39114e+10
2.39743e+10
2.40437e+10
2.41279e+10
2.42036e+10
2.42643e+10
2.43211e+10
2.43915e+10
2.44628e+10
2.44002e+10
2.42534e+10
2.41023e+10
2.39955e+10
2.20595e+10
1.94999e+10
1.69877e+10
1.45427e+10
1.10412e+10
8.20209e+09
5.64326e+09
3.44387e+09
1.63831e+09
1.63302e+09
1.2332e+09
6.54397e+08
4.44545e+08
8.30908e+08
1.75548e+09
2.75802e+09
3.74133e+09
4.86098e+09
5.56813e+09
6.16104e+09
5.89117e+09
5.48197e+09
5.11069e+09
4.82614e+09
4.92602e+09
3.4312e+10
2.47329e+10
2.26599e+10
2.10859e+10
2.31265e+10
2.34182e+10
2.38854e+10
2.42534e+10
2.53287e+10
2.52544e+10
2.61121e+10
2.66755e+10
2.70334e+10
2.74747e+10
2.79062e+10
2.82995e+10
2.86284e+10
2.88739e+10
2.88047e+10
2.89758e+10
3.01763e+10
3.1034e+10
3.10362e+10
3.09437e+10
3.08162e+10
3.06906e+10
3.06443e+10
3.05896e+10
3.05765e+10
3.05999e+10
3.06127e+10
3.06086e+10
3.05832e+10
3.05533e+10
3.05074e+10
3.04502e+10
3.02681e+10
3.02042e+10
3.01191e+10
2.9911e+10
2.95479e+10
2.89284e+10
2.83141e+10
2.77069e+10
2.72318e+10
2.68376e+10
2.64299e+10
2.6037e+10