/*--------------------------------*- C++ -*----------------------------------*\
| =========                 |                                                 |
| \\      /  F ield         | foam-extend: Open Source CFD                    |
|  \\    /   O peration     | Version:     4.1                                |
|   \\  /    A nd           | Web:         http://www.foam-extend.org         |
|    \\/     M anipulation  |                                                 |
\*---------------------------------------------------------------------------*/
FoamFile
{
    version     2.0;
    format      ascii;
    class       volScalarField;
    location    "1";
    object      sigmaHyd;
}
// * * * * * * * * * * * * * * * * * * * * * * * * * * * * * * * * * * * * * //

dimensions      [1 -1 -2 0 0 0 0];

internalField   nonuniform List<scalar> 
100000
(
-47062.6
-46942.1
-46965.3
-46915.1
-46904.4
-46874.4
-46855.6
-46832
-46812.1
-46791.2
-46771.9
-46752.6
-46734.3
-46716.3
-46698.9
-46682
-46665.7
-46649.7
-46634.2
-46619.2
-46604.6
-46590.3
-46576.5
-46563
-46549.9
-46537.1
-46524.8
-46512.4
-46500.9
-46488.3
-46477.8
-46462.6
-46452.8
-46447.6
-46435.8
-46425.5
-46415.7
-46405.7
-46396.3
-46386.8
-46377.8
-46368.8
-46360.1
-46351.5
-46343.1
-46334.9
-46326.8
-46318.8
-46311
-46303.4
-46295.9
-46288.5
-46281.2
-46274.1
-46267.1
-46260.1
-46253.4
-46246.7
-46240.1
-46233.6
-46227.2
-46220.8
-46214.6
-46208.4
-46202.3
-46196.3
-46190.4
-46184.5
-46178.7
-46173
-46167.3
-46161.7
-46156.2
-46150.7
-46145.3
-46139.9
-46134.7
-46129.4
-46124.2
-46119
-46113.9
-46108.8
-46103.8
-46098.7
-46093.8
-46088.7
-46083.7
-46078.6
-46073.7
-46068.8
-46064
-46059.3
-46054.8
-46050.3
-46046.6
-46042.3
-46040.9
-46036
-46043.7
-46015.8
-48766.8
-48604.8
-48599.1
-48514.8
-48474.2
-48413.3
-48365.4
-48313.1
-48265.4
-48217.5
-48171.8
-48126.9
-48083.5
-48041.2
-48000.1
-47960.1
-47921.1
-47883.2
-47846.3
-47810.3
-47775.3
-47741.1
-47707.8
-47675.3
-47643.7
-47612.8
-47583
-47553.4
-47526.8
-47496.9
-47481.5
-47440
-47433
-47387.7
-47377.3
-47340.3
-47318.1
-47292.1
-47269.2
-47246
-47223.8
-47201.9
-47180.6
-47159.6
-47139.1
-47119
-47099.3
-47080
-47061
-47042.4
-47024.1
-47006.1
-46988.5
-46971.1
-46954.1
-46937.4
-46920.9
-46904.8
-46888.9
-46873.2
-46857.8
-46842.7
-46827.7
-46813
-46798.5
-46784.3
-46770.2
-46756.3
-46742.7
-46729.2
-46715.9
-46702.8
-46689.9
-46677.2
-46664.7
-46652.3
-46640.1
-46628
-46616.2
-46604.3
-46592.5
-46580.9
-46569.6
-46558.3
-46547.4
-46536.2
-46525.1
-46514.2
-46503.4
-46492.9
-46482.5
-46472.2
-46462.2
-46452.2
-46443.1
-46433
-46426.4
-46414.7
-46417
-46377.8
-50470.9
-50267.1
-50232.6
-50114.3
-50043.6
-49952
-49875.1
-49794
-49718.6
-49643.4
-49571.4
-49500.7
-49432.4
-49365.6
-49300.8
-49237.5
-49176
-49116
-49057.6
-49000.6
-48945.1
-48890.9
-48838.1
-48786.5
-48736.3
-48687.1
-48639.3
-48592.4
-48547
-48502.2
-48458.7
-48417.7
-48370.3
-48328.1
-48292.5
-48252.5
-48215.2
-48177.3
-48140.8
-48104.6
-48069.4
-48034.7
-48000.8
-47967.6
-47935
-47903
-47871.6
-47840.9
-47810.7
-47781.1
-47752
-47723.4
-47695.4
-47667.8
-47640.8
-47614.2
-47588.1
-47562.4
-47537.2
-47512.4
-47488
-47464
-47440.4
-47417.2
-47394.3
-47371.7
-47349.5
-47327.7
-47306.1
-47284.9
-47264
-47243.4
-47223.1
-47203.1
-47183.5
-47164
-47145.1
-47126.2
-47107.8
-47089.6
-47071.2
-47053.2
-47036
-47018.4
-47002.5
-46984.6
-46967.3
-46950.1
-46933.5
-46917.1
-46901.1
-46885.3
-46870.1
-46854.5
-46840.6
-46824.5
-46813.7
-46793.7
-46792.9
-46736.7
-52173.8
-51928.2
-51864.7
-51712.1
-51611.5
-51489.1
-51383.1
-51273.3
-51170.2
-51068
-50969.6
-50873.4
-50780
-50689
-50600.4
-50514.1
-50430
-50348.1
-50268.2
-50190.3
-50114.4
-50040.3
-49968.1
-49897.5
-49828.7
-49761.4
-49695.9
-49631.6
-49569.3
-49507.4
-49447.7
-49387.4
-49321.3
-49273.3
-49220.4
-49166.2
-49114.4
-49062.5
-49012.2
-48962.7
-48914.3
-48866.8
-48820.4
-48774.8
-48730.1
-48686.3
-48643.4
-48601.2
-48559.9
-48519.3
-48479.4
-48440.3
-48401.9
-48364.2
-48327.1
-48290.7
-48255
-48219.9
-48185.4
-48151.5
-48118.1
-48085.3
-48053
-48021.2
-47989.9
-47959.1
-47928.8
-47899
-47869.6
-47840.6
-47812.1
-47784
-47756.4
-47729.2
-47702.5
-47676
-47650.4
-47624.5
-47600
-47574.3
-47548.5
-47524.4
-47500.9
-47476.9
-47455.3
-47431.5
-47407.2
-47385
-47362.3
-47340.5
-47318.8
-47297.5
-47276.8
-47255.7
-47236.4
-47214.6
-47198.4
-47172.3
-47166.2
-47102.5
-53873.8
-53587.1
-53495.1
-53308.7
-53178.2
-53025.1
-52890.1
-52751.6
-52620.8
-52491.5
-52366.8
-52244.9
-52126.6
-52011.1
-51898.9
-51789.4
-51682.8
-51578.9
-51477.5
-51378.7
-51282.3
-51188.3
-51096.5
-51006.9
-50919.5
-50834.1
-50750.7
-50669.1
-50589.5
-50511.6
-50435.1
-50360.8
-50286.3
-50215.5
-50146.6
-50078.4
-50012.1
-49946.7
-49882.8
-49820
-49758.6
-49698.4
-49639.4
-49581.5
-49524.7
-49469.1
-49414.5
-49361
-49308.4
-49256.8
-49206.2
-49156.5
-49107.7
-49059.7
-49012.7
-48966.4
-48921
-48876.5
-48832.8
-48789.7
-48747.4
-48705.8
-48664.8
-48624.5
-48584.8
-48545.7
-48507.3
-48469.5
-48432.2
-48395.5
-48359.4
-48323.7
-48288.7
-48254
-48220.2
-48186.3
-48154.1
-48120.8
-48090.6
-48061.1
-48027
-47994.8
-47967
-47936
-47918.5
-47882.3
-47850.2
-47819.4
-47791.3
-47763.2
-47736.2
-47709.3
-47683.3
-47656.8
-47632.1
-47604.9
-47583.5
-47551.8
-47540.7
-47471.1
-55573
-55244.5
-55123.6
-54903.1
-54742.7
-54558.8
-54394.9
-54227.7
-54069.3
-53913
-53762.1
-53614.6
-53471.4
-53331.7
-53195.7
-53063.2
-52934.1
-52808.2
-52685.5
-52565.9
-52449.1
-52335.2
-52224.1
-52115.5
-52009.6
-51906.1
-51805
-51706.1
-51609.5
-51514.8
-51422.2
-51331.6
-51241.8
-51156.7
-51072.4
-50989.9
-50909.2
-50829.9
-50752.4
-50676.3
-50601.8
-50528.8
-50457.2
-50387
-50318.3
-50250.8
-50184.7
-50119.7
-50056.1
-49993.5
-49932.2
-49871.9
-49812.8
-49754.6
-49697.6
-49641.4
-49586.5
-49532.8
-49479.7
-49427.6
-49376.3
-49325.8
-49276.2
-49227.3
-49179.3
-49132
-49085.4
-49039.6
-48994.5
-48950.1
-48906.4
-48863.4
-48821.1
-48779.3
-48738.6
-48697.9
-48659.9
-48619.4
-48588.8
-48543.8
-48496.1
-48464.5
-48429.1
-48389.8
-48367
-48329.3
-48280.4
-48253.5
-48217.9
-48185.9
-48153
-48120.8
-48089.2
-48057.3
-48027.2
-47994.5
-47967.8
-47930.7
-47914.6
-47839.8
-57269.3
-56899.4
-56749.7
-56495.4
-56305.2
-56090.7
-55897.7
-55702
-55515.9
-55332.6
-55155.5
-54982.4
-54814.2
-54650.3
-54490.7
-54335.1
-54183.6
-54035.8
-53891.7
-53751.1
-53614
-53480.2
-53349.6
-53222
-53097.5
-52975.9
-52857.1
-52741
-52627.5
-52516.5
-52407.9
-52301.8
-52197.6
-52096.3
-51997.2
-51900.1
-51805.1
-51712
-51620.9
-51531.5
-51444
-51358.2
-51274.1
-51191.7
-51110.9
-51031.6
-50953.9
-50877.6
-50802.8
-50729.3
-50657.2
-50586.4
-50517
-50448.5
-50381.6
-50315.4
-50250.6
-50187.6
-50125.5
-50064.3
-50004.2
-49944.8
-49886.6
-49829.2
-49772.8
-49717.2
-49662.6
-49608.8
-49555.8
-49503.7
-49452.3
-49401.6
-49351.8
-49302.2
-49254.1
-49204
-49159.4
-49102
-49071.6
-48995.5
-48979.9
-48919.1
-48879.8
-48833.9
-48841.5
-48742.6
-48718.9
-48673.1
-48643.5
-48604.4
-48568.5
-48530.8
-48494.3
-48457
-48421.7
-48383.8
-48352
-48309.5
-48288.6
-48207.9
-58962.2
-58551.1
-58372.9
-58084.7
-57864.7
-57619.7
-57397.8
-57173.5
-56959.9
-56749.7
-56546.4
-56347.8
-56154.9
-55966.7
-55783.6
-55605
-55431
-55261.3
-55095.9
-54934.5
-54777.1
-54623.5
-54473.6
-54327.2
-54184.2
-54044.6
-53908.1
-53774.8
-53644.4
-53516.9
-53392.2
-53270.2
-53150.7
-53034.4
-52920.3
-52808.8
-52699.6
-52592.6
-52487.8
-52385.2
-52284.6
-52186.1
-52089.5
-51994.8
-51902
-51811
-51721.7
-51634.1
-51548.2
-51463.8
-51381
-51299.5
-51219.8
-51140.8
-51064.1
-50987.4
-50913.9
-50842.6
-50770.6
-50700.5
-50631.2
-50563.1
-50496.1
-50430.2
-50365.4
-50301.7
-50238.9
-50177.2
-50116.5
-50056.6
-49997.8
-49939.7
-49882.6
-49826.3
-49770.7
-49716
-49661.1
-49609.1
-49550.3
-49509.4
-49464.9
-49407.5
-49357.3
-49311.7
-49253.8
-49212
-49175.2
-49120.8
-49077.1
-49030.5
-48986.7
-48942.7
-48900
-48857
-48816.1
-48772.7
-48735.7
-48687.8
-48662.1
-48575.9
-60652.4
-60200
-59993.1
-59671.1
-59421.4
-59145.8
-58895.1
-58642.3
-58401.2
-58164.1
-57934.6
-57710.6
-57492.8
-57280.5
-57073.8
-56872.3
-56675.9
-56484.4
-56297.7
-56115.5
-55937.8
-55764.3
-55595
-55429.7
-55268.3
-55110.6
-54956.5
-54806
-54658.8
-54515
-54374.2
-54236.7
-54102
-53970.5
-53841.7
-53715.7
-53592.4
-53471.6
-53353.3
-53237.4
-53123.8
-53012.6
-52903.5
-52796.6
-52691.8
-52589
-52488.2
-52389.3
-52292.3
-52197
-52103.8
-52011.8
-51922.3
-51832.8
-51747.1
-51659
-51573.1
-51494.1
-51415.2
-51334.9
-51257.4
-51180.1
-51104.6
-51030.1
-50957
-50885
-50814.2
-50744.5
-50676
-50608.5
-50542
-50476.6
-50412.1
-50348.6
-50286.2
-50224.3
-50164.2
-50104.1
-50046.6
-49991.6
-49932.6
-49874.5
-49821.4
-49765.8
-49722.9
-49662.8
-49608.1
-49553.2
-49502.4
-49451.1
-49401.6
-49352.2
-49304.1
-49255.7
-49209.6
-49160.9
-49118.7
-49065.6
-49035.1
-48943.4
-62338.7
-61845
-61609.5
-61253.9
-60974.5
-60668.5
-60389
-60107.8
-59839.3
-59575.3
-59319.9
-59070.4
-58828
-58591.5
-58361.3
-58136.9
-57918.2
-57704.9
-57497
-57294.1
-57096.2
-56903
-56714.4
-56530.3
-56350.5
-56174.9
-56003.3
-55835.6
-55671.6
-55511.3
-55354.6
-55201.3
-55051.3
-54904.6
-54761.1
-54620.7
-54483.2
-54348.6
-54216.7
-54087.6
-53961.1
-53837.1
-53715.6
-53596.5
-53479.7
-53365.2
-53252.9
-53142.7
-53034.7
-52928.5
-52824.5
-52721.8
-52621.7
-52521.2
-52425.5
-52321.8
-52234
-52153.5
-52057.2
-51969.4
-51881.5
-51795.8
-51711.5
-51628.6
-51547.2
-51467
-51388.2
-51310.6
-51234.3
-51159.2
-51085.2
-51012.4
-50940.7
-50870.2
-50800.6
-50732.2
-50664.6
-50598.6
-50532.7
-50469.7
-50406.8
-50343.6
-50281.9
-50221.2
-50160.9
-50101.7
-50044.1
-49985.3
-49928.6
-49871.9
-49816.6
-49761.5
-49707.8
-49654
-49602.4
-49548.4
-49501
-49442.7
-49407.4
-49310.3
-64020.7
-63486.1
-63222.1
-62832.9
-62523.9
-62187.5
-61879.4
-61569.8
-61273.8
-60983.1
-60701.7
-60426.9
-60159.7
-59899.2
-59645.6
-59398.3
-59157.3
-58922.3
-58693.2
-58469.6
-58251.5
-58038.6
-57830.7
-57627.8
-57429.6
-57236.1
-57046.9
-56862.1
-56681.4
-56504.8
-56332.1
-56163.2
-55998
-55836.4
-55678.3
-55523.5
-55371.9
-55223.6
-55078.3
-54935.9
-54796.5
-54659.8
-54525.9
-54394.6
-54265.9
-54139.7
-54015.9
-53894.5
-53775.5
-53658.6
-53544.5
-53431.6
-53323.6
-53212.4
-53118.2
-52995.9
-52936.3
-52791.8
-52710.3
-52600.2
-52507
-52410
-52317.7
-52225.8
-52136.2
-52047.8
-51960.9
-51875.5
-51791.4
-51708.6
-51627.2
-51547
-51468.1
-51390.3
-51313.8
-51238.5
-51164.4
-51091.4
-51019.6
-50949.1
-50879.1
-50810.1
-50742.7
-50675.5
-50610.6
-50544.5
-50480.1
-50415.9
-50353.1
-50290.9
-50230
-50169.5
-50110.3
-50051.1
-49994.2
-49934.9
-49882.5
-49818.9
-49778.8
-49676.3
-65698.1
-65122.5
-64830.2
-64407.5
-64069
-63702.4
-63365.5
-63027.8
-62704.5
-62387.2
-62079.8
-61779.7
-61488
-61203.5
-60926.5
-60656.5
-60393.3
-60136.6
-59886.3
-59642.1
-59403.9
-59171.4
-58944.4
-58722.8
-58506.4
-58294.9
-58088.4
-57886.4
-57689.1
-57496.1
-57307.4
-57122.9
-56942.4
-56765.8
-56593
-56423.8
-56258.2
-56096.1
-55937.4
-55781.8
-55629.5
-55480.2
-55333.9
-55190.5
-55049.9
-54912
-54776.8
-54644.2
-54514.1
-54386.5
-54261.3
-54138.4
-54017.7
-53900
-53782.7
-53674.7
-53550.9
-53434.8
-53335.1
-53227.5
-53124.7
-53021.5
-52920.6
-52821
-52723.1
-52626.7
-52532
-52438.7
-52346.9
-52256.6
-52167.7
-52080.1
-51994
-51909.1
-51825.6
-51743.4
-51662.3
-51582.6
-51504
-51426.8
-51350.5
-51275.2
-51201.1
-51127.9
-51055.8
-50984.5
-50914.4
-50844.8
-50776.5
-50708.8
-50642.3
-50576.4
-50511.8
-50447.2
-50385.1
-50320.5
-50263
-50194.2
-50149.3
-50041.5
-67370.9
-66754.5
-66433.7
-65977.6
-65609.7
-65212.9
-64847.5
-64481.5
-64131
-63787
-63453.8
-63128.5
-62812.2
-62503.8
-62203.5
-61910.8
-61625.5
-61347.2
-61075.8
-60811.1
-60552.8
-60300.6
-60054.5
-59814.2
-59579.5
-59350.2
-59126.2
-58907.3
-58693.3
-58484.1
-58279.6
-58079.5
-57883.8
-57692.3
-57505
-57321.6
-57142.1
-56966.3
-56794.1
-56625.5
-56460.3
-56298.4
-56139.7
-55984.2
-55831.7
-55682.2
-55535.5
-55391.7
-55250.7
-55112.2
-54976.5
-54843
-54712.5
-54583.3
-54457.8
-54331.8
-54206.7
-54089
-53974.1
-53857.4
-53744.9
-53632.6
-53523.1
-53415
-53308.8
-53204.3
-53101.6
-53000.4
-52900.9
-52803
-52706.7
-52611.8
-52518.4
-52426.4
-52335.9
-52246.8
-52159
-52072.5
-51987.4
-51903.5
-51820.8
-51739.2
-51658.9
-51579.6
-51501.5
-51424.3
-51348.1
-51272.9
-51198.8
-51125.5
-51053.5
-50982.1
-50912.1
-50842.1
-50774.8
-50705
-50642.4
-50568.4
-50518.8
-50405.7
-69037.9
-68380.9
-68031.9
-67542.6
-67145.2
-66718.4
-66324.5
-65930.5
-65552.9
-65182.5
-64823.5
-64473.1
-64132.3
-63800.2
-63476.6
-63161.2
-62853.8
-62554
-62261.7
-61976.5
-61698.2
-61426.5
-61161.4
-60902.5
-60649.6
-60402.6
-60161.2
-59925.3
-59694.8
-59469.3
-59248.9
-59033.3
-58822.4
-58616
-58414.1
-58216.4
-58022.9
-57833.5
-57648
-57466.2
-57288.2
-57113.8
-56942.8
-56775.2
-56610.9
-56449.8
-56291.8
-56136.8
-55984.8
-55835.6
-55689.2
-55545.5
-55404.4
-55266
-55129.5
-54996.3
-54863.2
-54733.6
-54608
-54483.2
-54361.4
-54241.1
-54123
-54006.7
-53892.4
-53779.8
-53669.2
-53560.3
-53453.1
-53347.6
-53243.8
-53141.7
-53041.1
-52942.1
-52844.5
-52748.5
-52653.9
-52560.8
-52469
-52378.6
-52289.5
-52201.6
-52115
-52029.6
-51945.3
-51862.2
-51780.3
-51699.4
-51619.6
-51540.8
-51463.2
-51386.4
-51311.1
-51235.8
-51163.2
-51088.3
-51020.6
-50941.6
-50887.1
-50768.9
-70699.2
-70001.8
-69624.7
-69102.2
-68675.7
-68218.8
-67796.7
-67374.5
-66969.9
-66573
-66188.3
-65812.9
-65447.8
-65091.9
-64745.2
-64407.3
-64077.9
-63756.6
-63443.3
-63137.7
-62839.5
-62548.4
-62264.2
-61986.7
-61715.7
-61451
-61192.3
-60939.5
-60692.4
-60450.9
-60214.6
-59983.6
-59757.6
-59536.5
-59320.1
-59108.3
-58900.9
-58697.9
-58499.1
-58304.3
-58113.5
-57926.6
-57743.3
-57563.7
-57387.6
-57214.9
-57045.6
-56879.4
-56716.5
-56556.5
-56399.6
-56245.5
-56094.3
-55945.6
-55799.7
-55656.1
-55514.9
-55376.8
-55241.4
-55107.9
-54977
-54848
-54721.4
-54596.7
-54474.2
-54353.6
-54235
-54118.3
-54003.5
-53890.5
-53779.3
-53669.8
-53562.1
-53456
-53351.5
-53248.6
-53147.3
-53047.4
-52949.1
-52852.2
-52756.7
-52662.6
-52569.8
-52478.2
-52388
-52299
-52211.2
-52124.6
-52039.2
-51954.8
-51871.7
-51789.5
-51708.8
-51628.2
-51550.4
-51470.3
-51397.6
-51313.4
-51254.2
-51130.9
-72354.8
-71616.7
-71211.6
-70656
-70200.3
-69713.6
-69263.1
-68813.3
-68381.6
-67958.5
-67548.2
-67147.9
-66758.5
-66378.9
-66009.2
-65648.8
-65297.5
-64954.9
-64620.7
-64294.7
-63976.6
-63666.2
-63363.1
-63067.2
-62778.1
-62495.8
-62219.9
-61950.3
-61686.7
-61429
-61177
-60930.6
-60689.5
-60453.5
-60222.7
-59996.7
-59775.5
-59559
-59346.9
-59139.1
-58935.6
-58736.2
-58540.7
-58349.1
-58161.3
-57977.1
-57796.5
-57619.3
-57445.5
-57274.9
-57107.5
-56943.2
-56781.8
-56623.4
-56467.7
-56314.9
-56164.5
-56016.9
-55872.2
-55729.8
-55590
-55452.5
-55317.4
-55184.5
-55053.8
-54925.2
-54798.7
-54674.3
-54551.8
-54431.3
-54312.7
-54196
-54081.1
-53967.9
-53856.5
-53746.8
-53638.7
-53532.2
-53427.4
-53324
-53222.1
-53121.7
-53022.8
-52925.2
-52829
-52734.1
-52640.5
-52548.2
-52457.1
-52367.2
-52278.6
-52191
-52105
-52019.1
-51936.2
-51850.9
-51773.2
-51684
-51620
-51491.7
-74003.3
-73225.2
-72792.1
-72203.6
-71719
-71202.5
-70724
-70246.2
-69787.8
-69338.4
-68902.6
-68477.5
-68063.9
-67660.8
-67268.1
-66885.3
-66512.1
-66148.3
-65793.4
-65447.1
-65109.3
-64779.5
-64457.6
-64143.2
-63836.2
-63536.3
-63243.2
-62956.8
-62676.8
-62403.1
-62135.5
-61873.7
-61617.6
-61367
-61121.8
-60881.8
-60646.8
-60416.8
-60191.5
-59970.8
-59754.6
-59542.8
-59335.2
-59131.7
-58932.1
-58736.4
-58544.5
-58356.3
-58171.6
-57990.3
-57812.5
-57637.9
-57466.5
-57298.2
-57132.9
-56970.5
-56811
-56654.4
-56500.6
-56349.3
-56200.8
-56054.8
-55911.2
-55770
-55631.2
-55494.6
-55360.3
-55228.1
-55098.1
-54970.1
-54844.1
-54720.1
-54598.1
-54477.9
-54359.6
-54243
-54128.3
-54015.2
-53903.8
-53794
-53685.8
-53579.2
-53474.1
-53370.5
-53268.3
-53167.6
-53068.2
-52970.2
-52873.5
-52778.1
-52684
-52591
-52499.7
-52408.6
-52320.5
-52230.1
-52147.4
-52053.1
-51984.3
-51851.1
-75644.9
-74826.7
-74366
-73744.7
-73231.1
-72685.1
-72178.5
-71673.1
-71188
-70712.5
-70251.4
-69801.6
-69363.9
-68937.3
-68521.8
-68116.7
-67721.8
-67336.7
-66961.1
-66594.7
-66237.1
-65888.2
-65547.5
-65214.8
-64889.9
-64572.5
-64262.3
-63959.2
-63662.9
-63373.3
-63090
-62812.9
-62541.8
-62276.6
-62017
-61763
-61514.3
-61270.8
-61032.3
-60798.8
-60570
-60345.8
-60126.1
-59910.7
-59699.5
-59492.4
-59289.3
-59090.1
-58894.7
-58702.9
-58514.7
-58329.9
-58148.5
-57970.4
-57795.5
-57623.7
-57454.9
-57289.2
-57126.3
-56966.3
-56809
-56654.5
-56502.5
-56353.1
-56206.1
-56061.6
-55919.4
-55779.5
-55641.9
-55506.5
-55373.2
-55242
-55112.9
-54985.7
-54860.5
-54737.2
-54615.7
-54496.1
-54378.2
-54262
-54147.6
-54034.8
-53923.5
-53813.9
-53705.8
-53599.2
-53494.1
-53390.4
-53288.1
-53187.2
-53087.7
-52989.3
-52892.7
-52796.4
-52703.1
-52607.6
-52519.9
-52420.7
-52347.1
-52209
-77279.3
-76421.3
-75932.8
-75278.9
-74736.6
-74161.1
-73626.6
-73093.6
-72581.9
-72080.4
-71594.1
-71119.6
-70658
-70208
-69769.7
-69342.4
-68925.9
-68519.8
-68123.6
-67737.1
-67360
-66991.9
-66632.5
-66281.6
-65938.9
-65604
-65276.9
-64957.1
-64644.6
-64339
-64040.2
-63747.9
-63461.9
-63182.2
-62908.3
-62640.4
-62378
-62121.2
-61869.7
-61623.4
-61382
-61145.5
-60913.7
-60686.5
-60463.7
-60245.2
-60031
-59820.8
-59614.6
-59412.2
-59213.7
-59018.7
-58827.4
-58639.5
-58455
-58273.8
-58095.8
-57920.9
-57749.2
-57580.4
-57414.5
-57251.4
-57091.1
-56933.5
-56778.5
-56626.1
-56476.1
-56328.6
-56183.5
-56040.6
-55900
-55761.7
-55625.4
-55491.3
-55359.2
-55229.2
-55101.1
-54974.9
-54850.5
-54728
-54607.3
-54488.3
-54371
-54255.4
-54141.4
-54029
-53918.1
-53808.8
-53700.9
-53594.5
-53489.6
-53385.9
-53283.9
-53182.5
-53084
-52983.5
-52890.8
-52786.5
-52708.2
-52565.2
-78906
-78008.1
-77492.1
-76805.7
-76234.8
-75630
-75067.7
-74507.4
-73969.2
-73441.9
-72930.4
-72431.5
-71946
-71472.8
-71011.9
-70562.5
-70124.4
-69697.3
-69280.6
-68874.1
-68477.5
-68090.3
-67712.4
-67343.3
-66982.8
-66630.7
-66286.6
-65950.3
-65621.6
-65300.2
-64985.9
-64678.4
-64377.6
-64083.3
-63795.2
-63513.4
-63237.3
-62967.3
-62702.7
-62443.7
-62189.9
-61941.2
-61697.4
-61458.4
-61224.1
-60994.3
-60769
-60547.9
-60331.1
-60118.3
-59909.4
-59704.5
-59503.2
-59305.6
-59111.6
-58921
-58733.8
-58549.9
-58369.2
-58191.7
-58017.2
-57845.7
-57677
-57511.3
-57348.2
-57187.9
-57030.2
-56875
-56722.4
-56572.1
-56424.3
-56278.8
-56135.5
-55994.5
-55855.6
-55718.8
-55584.1
-55451.4
-55320.6
-55191.8
-55064.8
-54939.7
-54816.4
-54694.8
-54574.9
-54456.7
-54340.1
-54225.2
-54111.8
-53999.9
-53889.6
-53780.5
-53673.4
-53566.7
-53463.2
-53357.6
-53260
-53150.7
-53067.7
-52919.9
-80524.3
-79587
-79043.6
-78324.9
-77725.6
-77091.5
-76501.7
-75914
-75349.6
-74796.5
-74260
-73736.6
-73227.5
-72731.1
-72247.6
-71776.3
-71316.9
-70868.8
-70431.8
-70005.4
-69589.4
-69183.3
-68786.9
-68399.7
-68021.6
-67652.3
-67291.3
-66938.6
-66593.8
-66256.6
-65926.9
-65604.4
-65288.9
-64980.1
-64677.9
-64382.3
-64092.7
-63809.6
-63532
-63260.4
-62994.1
-62733.2
-62477.4
-62226.7
-61980.9
-61739.9
-61503.5
-61271.5
-61044
-60820.8
-60601.7
-60386.6
-60175.5
-59968.2
-59764.7
-59564.8
-59368.4
-59175.5
-58986
-58799.7
-58616.7
-58436.8
-58259.9
-58086.1
-57915.1
-57746.9
-57581.5
-57418.8
-57258.6
-57101.1
-56946
-56793.4
-56643.1
-56495.2
-56349.5
-56206
-56064.7
-55925.5
-55788.4
-55653.3
-55520.1
-55388.9
-55259.5
-55132
-55006.3
-54882.3
-54760.1
-54639.5
-54520.6
-54403.3
-54287.6
-54173.2
-54060.9
-53949
-53840.4
-53729.8
-53627.3
-53513.1
-53425.3
-53272.8
-82134.3
-81157.6
-80587
-79836.1
-79208.5
-78545.3
-77928
-77313.3
-76722.6
-76144
-75582.6
-75035.1
-74502.2
-73982.9
-73477
-72983.8
-72503.1
-72034.2
-71576.9
-71130.8
-70695.4
-70270.5
-69855.6
-69450.5
-69054.9
-68668.3
-68290.7
-67921.6
-67560.7
-67207.9
-66862.9
-66525.4
-66195.1
-65872
-65555.4
-65246.1
-64942.3
-64646.8
-64356.2
-64072.2
-63793.6
-63520.7
-63253.1
-62990.8
-62733.5
-62481.3
-62233.9
-61991.3
-61753.2
-61519.6
-61290.4
-61065.3
-60844.4
-60627.5
-60414.6
-60205.4
-59999.9
-59798
-59599.7
-59404.8
-59213.2
-59024.9
-58839.8
-58657.9
-58478.9
-58303
-58129.9
-57959.6
-57792.1
-57627.2
-57464.9
-57305.2
-57148
-56993.2
-56840.8
-56690.6
-56542.8
-56397.1
-56253.7
-56112.3
-55973
-55835.6
-55700.3
-55566.9
-55435.4
-55305.7
-55177.8
-55051.6
-54927.2
-54804.5
-54683.5
-54563.9
-54446.3
-54329.3
-54215.7
-54100.1
-53992.6
-53873.6
-53781
-53623.9
-83735
-82719.4
-82121.7
-81338.8
-80683.1
-79991
-79346.5
-78704.7
-78088
-77483.9
-76897.8
-76326.1
-75769.9
-75227.7
-74699.5
-74184.6
-73682.6
-73193.1
-72715.7
-72249.9
-71795.4
-71351.7
-70918.6
-70495.6
-70082.5
-69678.9
-69284.6
-68899.2
-68522.5
-68154.1
-67793.9
-67441.5
-67096.7
-66759.3
-66428.9
-66105.9
-65788.9
-65480.3
-65176.9
-64880.3
-64589.3
-64304.3
-64024.8
-63750.9
-63482.3
-63218.9
-62960.5
-62707.1
-62458.5
-62214.6
-61975.2
-61740.2
-61509.5
-61283
-61060.7
-60842.2
-60627.7
-60416.9
-60209.8
-60006.3
-59806.3
-59609.7
-59416.4
-59226.4
-59039.6
-58855.9
-58675.2
-58497.4
-58322.5
-58150.4
-57981
-57814.3
-57650.1
-57488.5
-57329.4
-57172.6
-57018.3
-56866.2
-56716.4
-56568.8
-56423.3
-56280
-56138.7
-55999.4
-55862.1
-55726.7
-55593.2
-55461.5
-55331.6
-55203.5
-55077.2
-54952.3
-54829.6
-54707.5
-54588.9
-54468.3
-54355.9
-54232
-54134.7
-53973
-85326.7
-84272.1
-83647.5
-82832.8
-82149.1
-81428.3
-80756.6
-80088.1
-79445.5
-78816.1
-78205.4
-77609.8
-77030.2
-76465.2
-75914.9
-75378.4
-74855.3
-74345.3
-73847.8
-73362.4
-72888.8
-72426.5
-71975.2
-71534.4
-71104
-70683.5
-70272.6
-69871
-69478.5
-69094.7
-68719.3
-68352.1
-67992.6
-67641
-67295.5
-66959.4
-66624.9
-66307.5
-65990.8
-65683
-65379.8
-65083
-64791.8
-64506.3
-64226.4
-63951.9
-63682.8
-63418.7
-63159.7
-62905.5
-62656.1
-62411.2
-62170.9
-61934.9
-61703.2
-61475.6
-61252
-61032.4
-60816.6
-60604.5
-60396
-60191.2
-59989.7
-59791.8
-59597.1
-59405.7
-59217.4
-59032.2
-58849.9
-58670.6
-58494.1
-58320.3
-58149.3
-57980.9
-57815.1
-57651.8
-57490.9
-57332.5
-57176.4
-57022.6
-56871.1
-56721.7
-56574.5
-56429.4
-56286.3
-56145.3
-56006.2
-55869
-55733.7
-55600.2
-55468.6
-55338.5
-55210.6
-55083.5
-54959.9
-54834.3
-54717.1
-54588.4
-54486.4
-54320.1
-86908.6
-85815.4
-85164
-84317.7
-83606.2
-82856.9
-82158.2
-81462.9
-80794.7
-80140
-79505
-78885.5
-78282.7
-77695.2
-77122.8
-76564.8
-76020.9
-75490.4
-74973
-74468.3
-73975.7
-73494.9
-73025.5
-72567.1
-72119.4
-71682.1
-71254.8
-70837.1
-70428.9
-70029.7
-69639.4
-69257.5
-68883.9
-68518.1
-68160
-67809.4
-67465.2
-67132.8
-66803.4
-66482.2
-66166.6
-65857.5
-65554.5
-65257.5
-64966.3
-64680.7
-64400.7
-64126
-63856.6
-63592.2
-63332.7
-63078.1
-62828.1
-62582.6
-62341.6
-62104.9
-61872.4
-61643.9
-61419.4
-61198.8
-60981.8
-60768.8
-60559
-60353.4
-60150.9
-59952
-59756.2
-59563.6
-59374.1
-59187.6
-59004.1
-58823.4
-58645.5
-58470.3
-58297.9
-58128
-57960.7
-57796
-57633.6
-57473.7
-57316.1
-57160.8
-57007.7
-56856.8
-56708
-56561.3
-56416.6
-56274
-56133.3
-55994.4
-55857.6
-55722.4
-55589.4
-55457.2
-55328.6
-55198.1
-55076.1
-54942.5
-54835.9
-54665
-88480.2
-87348.7
-86670.8
-85793.1
-85054
-84276.2
-83550.7
-82829.1
-82135.2
-81455.6
-80796.3
-80153.1
-79527.3
-78917.3
-78323
-77743.7
-77179
-76628.2
-76091
-75566.9
-75055.5
-74556.3
-74068.9
-73593
-73128.2
-72674.1
-72230.5
-71796.9
-71373.1
-70958.7
-70553.6
-70157.1
-69769.3
-69389.4
-69015.3
-68652.1
-68266.9
-67948.8
-67606.4
-67275.1
-66947.7
-66626.8
-66312.2
-66003.7
-65701.3
-65404.8
-65114
-64828.8
-64549
-64274.5
-64005.2
-63740.8
-63481.2
-63226.4
-62976.2
-62730.4
-62489
-62251.8
-62018.7
-61789.7
-61564.4
-61343.2
-61125.4
-60911.7
-60701.6
-60495
-60291.7
-60091.7
-59895
-59701.3
-59510.8
-59323.2
-59138.5
-58956.6
-58777.6
-58601.2
-58427.5
-58256.5
-58087.9
-57921.9
-57758.2
-57597
-57438
-57281.4
-57126.9
-56974.6
-56824.4
-56676.3
-56530.3
-56386.2
-56244.1
-56103.7
-55965.6
-55828.4
-55694.9
-55559.5
-55432.7
-55294.4
-55183.1
-55007.8
-90041.6
-88871.9
-88167.6
-87258.6
-86492.1
-85686.2
-84934.1
-84186
-83466.8
-82762.3
-82078.9
-81412.2
-80763.5
-80131.2
-79515.2
-78914.7
-78329.3
-77758.4
-77201.6
-76658.3
-76128.2
-75610.7
-75105.6
-74612.2
-74130.4
-73659.7
-73199.8
-72750.4
-72311.1
-71881.5
-71461.6
-71050.7
-70649.3
-70255
-69872
-69488.8
-69127.4
-68770.4
-68412.4
-68064.9
-67724.6
-67391.2
-67064.9
-66744.9
-66431.4
-66124
-65822.6
-65526.9
-65236.9
-64952.3
-64673
-64399
-64129.9
-63865.8
-63606.4
-63351.6
-63101.4
-62855.5
-62613.7
-62376.2
-62142.2
-61912.9
-61685.4
-61465.7
-61247.8
-61034.1
-60823.6
-60616.4
-60412.4
-60211.7
-60014.2
-59819.7
-59628.2
-59439.7
-59254.1
-59071.3
-58891.2
-58713.9
-58539.2
-58367.1
-58197.4
-58030.3
-57865.5
-57703.1
-57543
-57385.2
-57229.5
-57076
-56924.6
-56775.3
-56628
-56482.5
-56339.4
-56197.2
-56058.7
-55918.5
-55786.9
-55643.9
-55527.9
-55348.3
-91592
-90384.4
-89653.9
-88714
-87920.2
-87086.3
-86307.7
-85533.6
-84789.1
-84060
-83352.6
-82662.6
-81991.2
-81336.7
-80699.1
-80077.6
-79471.7
-78880.8
-78304.4
-77742.1
-77193.4
-76657.7
-76134.8
-75624.2
-75125.5
-74638.3
-74162.3
-73697.1
-73242.5
-72798
-72363.9
-71938.8
-71526
-71118.2
-70736.8
-70334.2
-69871.7
-69578
-69224.7
-68848.9
-68498.2
-68150.4
-67812.7
-67481
-67156.5
-66838.2
-66526.1
-66220.1
-65919.9
-65625.4
-65336.3
-65052.6
-64774.2
-64500.8
-64232.3
-63968.7
-63709.7
-63455.3
-63205.2
-62959.6
-62717.6
-62480.7
-62245.5
-62016.4
-61791.4
-61569.8
-61352
-61137.4
-60926.3
-60718.5
-60514
-60312.7
-60114.5
-59919.4
-59727.3
-59538
-59351.7
-59168.1
-58987.3
-58809.1
-58633.6
-58460.6
-58290.1
-58122
-57956.3
-57792.9
-57631.8
-57472.9
-57316.2
-57161.6
-57009.2
-56858.6
-56710.5
-56563.4
-56420
-56275
-56138.7
-55991
-55870.3
-55686.5
-93131.1
-91886
-91129.4
-90158.8
-89337.9
-88476.2
-87671.4
-86871.3
-86101.8
-85348.2
-84617.1
-83903.9
-83209.9
-82533.4
-81874.4
-81232
-80605.7
-79995
-79399.3
-78818
-78250.9
-77697.2
-77156.8
-76628.9
-76113.4
-75609.8
-75117.8
-74636.9
-74166.9
-73707.4
-73258.2
-72818.8
-72389.4
-71969.4
-71558.4
-71160
-70760.5
-70365.7
-69994.1
-69621.2
-69259
-68902.3
-68553.5
-68211.3
-67875.9
-67547
-67224.6
-66908.2
-66597.9
-66293.5
-65994.7
-65701.5
-65413.7
-65131.1
-64853.7
-64581.2
-64313.6
-64050.6
-63792.3
-63537.9
-63286.9
-63041.1
-62784.7
-62562.2
-62329.9
-62101.8
-61876.9
-61654.9
-61436.8
-61221.8
-61010.4
-60802.2
-60597.3
-60395.6
-60197
-60001.4
-59808.8
-59619.1
-59432.2
-59248
-59066.5
-58887.7
-58711.5
-58537.7
-58366.5
-58197.6
-58031.1
-57866.9
-57704.9
-57545.2
-57387.6
-57232
-57078.9
-56926.9
-56778.7
-56628.9
-56487.8
-56335.5
-56210.1
-56022.2
-94658.7
-93376.3
-92593.8
-91592.6
-90745
-89855.7
-89024.8
-88199
-87404.6
-86626.8
-85872
-85135.8
-84419.4
-83721.1
-83040.9
-82377.7
-81731.2
-81100.7
-80485.8
-79885.8
-79300.4
-78728.8
-78170.9
-77625.9
-77093.8
-76573.9
-76065.9
-75569.5
-75084.3
-74609.9
-74146
-73692.2
-73248.2
-72813.7
-72385.4
-71970.3
-71532.5
-71162.7
-70771.5
-70391.5
-70016.9
-69649.5
-69289.4
-68936.2
-68590
-68250.5
-67917.7
-67591.1
-67270.8
-66956.6
-66648.2
-66345.5
-66048.4
-65756.7
-65470.3
-65189
-64912.9
-64641.5
-64375.2
-64113.6
-63856
-63606.4
-63351.1
-63102
-62867.1
-62629.2
-62397.6
-62168.1
-61943
-61721.1
-61502.8
-61287.9
-61076.4
-60868.2
-60663.2
-60461.3
-60262.4
-60066.6
-59873.6
-59683.5
-59496.2
-59311.6
-59129.7
-58950.3
-58773.5
-58599.2
-58427.4
-58257.9
-58090.7
-57925.8
-57763.2
-57602.5
-57444.5
-57287.6
-57134.6
-56980
-56834.3
-56677.3
-56547.4
-56355.2
-96174.2
-94854.8
-94046.7
-93015.3
-92141
-91224.3
-90367.6
-89516.2
-88697.2
-87895.2
-87117.1
-86358
-85619.4
-84899.5
-84198.1
-83514.4
-82847.8
-82197.8
-81563.8
-80945.2
-80341.7
-79752.3
-79177.1
-78615.2
-78066.5
-77530.5
-77006.7
-76494.9
-75994.5
-75505.3
-75027
-74559.1
-74101.2
-73653.5
-73214.2
-72786
-72362.4
-71952.1
-71549.9
-71155.6
-70769.4
-70390.5
-70019.3
-69655.3
-69298.5
-68948.5
-68605.3
-68268.7
-67938.4
-67614.4
-67296.4
-66984.4
-66678.1
-66377.3
-66082.2
-65792.3
-65508.2
-65228.3
-64956.7
-64684.6
-64434.6
-64157.1
-63873.8
-63647.9
-63416.3
-63156.5
-62918.4
-62678.7
-62446.4
-62216.9
-61991.7
-61770
-61551.9
-61337.1
-61125.7
-60917.5
-60712.5
-60510.6
-60311.6
-60115.6
-59922.5
-59732.2
-59544.6
-59359.7
-59177.4
-58997.7
-58820.5
-58645.7
-58473.4
-58303.4
-58135.7
-57970.1
-57807.2
-57645.5
-57487.6
-57328.4
-57177.9
-57016.5
-56881.9
-56685.7
-97677.4
-96321.3
-95487.8
-94426.3
-93525.5
-92581.7
-91699.4
-90822.7
-89979.2
-89153.4
-88352
-87570.3
-86809.6
-86068.2
-85345.9
-84641.8
-83955.3
-83285.9
-82633.1
-81996
-81374.7
-80767.5
-80175.1
-79596.4
-79031.2
-78479.1
-77939.7
-77412.5
-76897.2
-76393.3
-75900.5
-75418.6
-74946.7
-74485.2
-74032
-73590.7
-73152.7
-72733.9
-72318.5
-71913.5
-71515.5
-71125.7
-70743.4
-70368.6
-70001.1
-69640.8
-69287.3
-68940.7
-68600.6
-68266.8
-67939.4
-67618
-67302.5
-66992.7
-66688.6
-66389.8
-66096.5
-65808
-65525.2
-65245.7
-64973.2
-64699
-64438.6
-64184.5
-63925.7
-63674.2
-63426.5
-63182.9
-62943.5
-62707.8
-62476
-62247.8
-62023.2
-61802
-61584.3
-61370
-61158.8
-60950.9
-60746
-60544.1
-60345.3
-60149.3
-59956.1
-59765.7
-59578
-59392.9
-59210.4
-59030.4
-58852.9
-58677.8
-58505.2
-58334.7
-58166.9
-58000.3
-57837.8
-57673.9
-57518.8
-57352.8
-57213.7
-57013.5
-99167.9
-97775.4
-96916.7
-95825.4
-94898.4
-93927.7
-93019.9
-92118.1
-91250.4
-90400.8
-89576.4
-88772.3
-87989.8
-87227
-86484
-85759.6
-85053.4
-84364.7
-83693.2
-83037.7
-82398.6
-81774.1
-81164.5
-80569.2
-79987.8
-79419.9
-78864.9
-78322.5
-77792.4
-77274
-76767.1
-76271.2
-75786
-75311.3
-74846.3
-74391.8
-73945.5
-73510.3
-73083.4
-72665.6
-72256.1
-71854.9
-71461.5
-71076
-70697.9
-70327.2
-69963.6
-69607
-69257.1
-68913.8
-68576.9
-68246.2
-67921.7
-67603
-67290.1
-66982.7
-66681
-66384.2
-66093
-65805.9
-65523.3
-65245.7
-64959.1
-64707.1
-64444.7
-64187.5
-63933.6
-63683.3
-63437.2
-63194.8
-62956.3
-62721.6
-62490.5
-62263.1
-62039.1
-61818.6
-61601.4
-61387.4
-61176.7
-60969
-60764.4
-60562.8
-60364.1
-60168.2
-59975.1
-59784.7
-59597
-59411.8
-59229.2
-59049.1
-58871.5
-58696.1
-58523.4
-58352.2
-58184.9
-58016.4
-57856.7
-57686.2
-57542.5
-57338.4
-100645
-99216.7
-98333
-97212.1
-96259.2
-95261.8
-94328.8
-93402.1
-92510.4