/*--------------------------------*- C++ -*----------------------------------*\
| =========                 |                                                 |
| \\      /  F ield         | foam-extend: Open Source CFD                    |
|  \\    /   O peration     | Version:     4.1                                |
|   \\  /    A nd           | Web:         http://www.foam-extend.org         |
|    \\/     M anipulation  |                                                 |
\*---------------------------------------------------------------------------*/
FoamFile
{
    version     2.0;
    format      ascii;
    class       vectorField;
    location    "1";
    object      solidsCellD_iteration114;
}
// * * * * * * * * * * * * * * * * * * * * * * * * * * * * * * * * * * * * * //


100000
(
(5.74692e-07 -2.38434e-07 -0.00722016)
(5.70008e-07 -2.35232e-07 -0.00644036)
(5.6553e-07 -2.32178e-07 -0.00654952)
(5.6125e-07 -2.29278e-07 -0.00598949)
(5.57161e-07 -2.2652e-07 -0.00505118)
(5.53254e-07 -2.239e-07 -0.00536102)
(5.49521e-07 -2.2141e-07 -0.00574324)
(5.45955e-07 -2.19045e-07 -0.00651637)
(5.42549e-07 -2.16797e-07 -0.00689963)
(5.39297e-07 -2.14663e-07 -0.00713636)
(5.36191e-07 -2.12637e-07 -0.00738825)
(5.33226e-07 -2.10714e-07 -0.00801181)
(5.30397e-07 -2.0889e-07 -0.00847702)
(5.27697e-07 -2.0716e-07 -0.00867446)
(5.25122e-07 -2.05519e-07 -0.00888239)
(5.22667e-07 -2.03965e-07 -0.00897992)
(5.20327e-07 -2.02493e-07 -0.00904892)
(5.18098e-07 -2.011e-07 -0.00912686)
(5.15975e-07 -1.99782e-07 -0.00916904)
(5.13955e-07 -1.98536e-07 -0.00920784)
(5.12034e-07 -1.9736e-07 -0.00919777)
(5.10207e-07 -1.96249e-07 -0.0088394)
(5.08472e-07 -1.95203e-07 -0.0084917)
(5.06825e-07 -1.94217e-07 -0.00815343)
(5.05262e-07 -1.93289e-07 -0.00783314)
(5.03782e-07 -1.92417e-07 -0.0075462)
(5.02381e-07 -1.91599e-07 -0.00727508)
(5.01056e-07 -1.90833e-07 -0.00701218)
(4.99804e-07 -1.90116e-07 -0.00677791)
(4.98623e-07 -1.89446e-07 -0.00664022)
(4.97511e-07 -1.88822e-07 -0.00657841)
(4.96465e-07 -1.88242e-07 -0.00651528)
(4.95483e-07 -1.87704e-07 -0.00645079)
(4.94561e-07 -1.87206e-07 -0.00638507)
(4.937e-07 -1.86747e-07 -0.00631817)
(4.92896e-07 -1.86325e-07 -0.00624999)
(4.92149e-07 -1.8594e-07 -0.00618056)
(4.91455e-07 -1.85588e-07 -0.00611028)
(4.90813e-07 -1.8527e-07 -0.00603917)
(4.90222e-07 -1.84984e-07 -0.00596714)
(4.8968e-07 -1.84729e-07 -0.00589427)
(4.89185e-07 -1.84503e-07 -0.00581568)
(4.88736e-07 -1.84306e-07 -0.00573314)
(4.88331e-07 -1.84136e-07 -0.00565013)
(4.87969e-07 -1.83992e-07 -0.00556675)
(4.87648e-07 -1.83874e-07 -0.00548288)
(4.87368e-07 -1.8378e-07 -0.00539847)
(4.87127e-07 -1.8371e-07 -0.00531373)
(4.86924e-07 -1.83662e-07 -0.00522864)
(4.86758e-07 -1.83636e-07 -0.00514111)
(4.86627e-07 -1.83631e-07 -0.00505288)
(4.86531e-07 -1.83646e-07 -0.00496441)
(4.86468e-07 -1.83681e-07 -0.00487555)
(4.86438e-07 -1.83735e-07 -0.00478637)
(4.86439e-07 -1.83807e-07 -0.00469697)
(4.86471e-07 -1.83896e-07 -0.0046075)
(4.86532e-07 -1.84002e-07 -0.00452925)
(4.86623e-07 -1.84124e-07 -0.00446267)
(4.86741e-07 -1.84261e-07 -0.00439239)
(4.86887e-07 -1.84414e-07 -0.0043325)
(4.87059e-07 -1.84581e-07 -0.00427151)
(4.87256e-07 -1.84762e-07 -0.00420943)
(4.87479e-07 -1.84957e-07 -0.00414619)
(4.87726e-07 -1.85164e-07 -0.00408234)
(4.87996e-07 -1.85384e-07 -0.00401785)
(4.88289e-07 -1.85616e-07 -0.00395274)
(4.88604e-07 -1.85859e-07 -0.00385408)
(4.88941e-07 -1.86114e-07 -0.00371428)
(4.89299e-07 -1.86379e-07 -0.00356433)
(4.89677e-07 -1.86654e-07 -0.00339707)
(4.90075e-07 -1.8694e-07 -0.00322904)
(4.90493e-07 -1.87235e-07 -0.00306433)
(4.90929e-07 -1.87539e-07 -0.00290289)
(4.91383e-07 -1.87852e-07 -0.00274463)
(4.91855e-07 -1.88174e-07 -0.00258923)
(4.92344e-07 -1.88503e-07 -0.00243654)
(4.9285e-07 -1.88841e-07 -0.00228671)
(4.93372e-07 -1.89186e-07 -0.00213964)
(4.9391e-07 -1.89539e-07 -0.00199511)
(4.94464e-07 -1.89898e-07 -0.00185294)
(4.95032e-07 -1.90264e-07 -0.00171248)
(4.95615e-07 -1.90637e-07 -0.0015732)
(4.96212e-07 -1.91015e-07 -0.00143587)
(4.96823e-07 -1.914e-07 -0.00130015)
(4.97448e-07 -1.91791e-07 -0.00116582)
(4.98085e-07 -1.92186e-07 -0.00103268)
(4.98736e-07 -1.92587e-07 -0.000912093)
(4.99398e-07 -1.92993e-07 -0.000859277)
(5.00073e-07 -1.93404e-07 -0.000808044)
(5.00759e-07 -1.9382e-07 -0.00077739)
(5.01457e-07 -1.9424e-07 -0.000755691)
(5.02166e-07 -1.94664e-07 -0.000735817)
(5.02885e-07 -1.95091e-07 -0.000726941)
(5.03616e-07 -1.95523e-07 -0.000732883)
(5.04356e-07 -1.95959e-07 -0.000742705)
(5.05106e-07 -1.96397e-07 -0.000754609)
(5.05866e-07 -1.96839e-07 -0.000823921)
(5.06636e-07 -1.97285e-07 -0.000944088)
(5.07414e-07 -1.97733e-07 -0.0010698)
(5.08204e-07 -1.98185e-07 -0.00132139)
(5.7003e-07 -2.40364e-07 -0.00780649)
(5.65296e-07 -2.37226e-07 -0.00664438)
(5.60771e-07 -2.34233e-07 -0.00694792)
(5.56447e-07 -2.31392e-07 -0.00663967)
(5.52315e-07 -2.2869e-07 -0.0065592)
(5.48368e-07 -2.26123e-07 -0.00687958)
(5.44597e-07 -2.23683e-07 -0.00709508)
(5.40995e-07 -2.21366e-07 -0.00772001)
(5.37554e-07 -2.19165e-07 -0.00803963)
(5.34268e-07 -2.17075e-07 -0.0083393)
(5.31131e-07 -2.15091e-07 -0.00883149)
(5.28136e-07 -2.13208e-07 -0.00948608)
(5.25278e-07 -2.11422e-07 -0.0100639)
(5.22551e-07 -2.09728e-07 -0.0105759)
(5.1995e-07 -2.08123e-07 -0.0107998)
(5.1747e-07 -2.06602e-07 -0.0106811)
(5.15107e-07 -2.05162e-07 -0.0102905)
(5.12855e-07 -2.03799e-07 -0.00992274)
(5.1071e-07 -2.02511e-07 -0.00952633)
(5.08669e-07 -2.01293e-07 -0.00914293)
(5.06728e-07 -2.00144e-07 -0.00877095)
(5.04882e-07 -1.99059e-07 -0.00840958)
(5.03129e-07 -1.98037e-07 -0.00805952)
(5.01464e-07 -1.97074e-07 -0.00771962)
(4.99885e-07 -1.96169e-07 -0.0074161)
(4.98389e-07 -1.95319e-07 -0.00712481)
(4.96972e-07 -1.94522e-07 -0.00684109)
(4.95632e-07 -1.93775e-07 -0.00656476)
(4.94366e-07 -1.93078e-07 -0.00629538)
(4.93171e-07 -1.92426e-07 -0.00608861)
(4.92046e-07 -1.9182e-07 -0.0059591)
(4.90988e-07 -1.91256e-07 -0.0058941)
(4.89991e-07 -1.90735e-07 -0.00582726)
(4.89057e-07 -1.90254e-07 -0.0057595)
(4.88186e-07 -1.89809e-07 -0.00569124)
(4.87371e-07 -1.89402e-07 -0.00562166)
(4.86613e-07 -1.8903e-07 -0.00555116)
(4.85909e-07 -1.88692e-07 -0.00547982)
(4.85257e-07 -1.88387e-07 -0.00540761)
(4.84656e-07 -1.88113e-07 -0.00533487)
(4.84104e-07 -1.8787e-07 -0.00526166)
(4.836e-07 -1.87656e-07 -0.00518765)
(4.83142e-07 -1.87469e-07 -0.00508793)
(4.82728e-07 -1.8731e-07 -0.00481816)
(4.82357e-07 -1.87177e-07 -0.00454859)
(4.82029e-07 -1.87068e-07 -0.00428463)
(4.81741e-07 -1.86984e-07 -0.00402602)
(4.81492e-07 -1.86923e-07 -0.0037731)
(4.81281e-07 -1.86884e-07 -0.00352512)
(4.81107e-07 -1.86867e-07 -0.00328211)
(4.80968e-07 -1.86871e-07 -0.0030442)
(4.80865e-07 -1.86894e-07 -0.00281165)
(4.80795e-07 -1.86937e-07 -0.00258378)
(4.80758e-07 -1.86998e-07 -0.00236052)
(4.80752e-07 -1.87077e-07 -0.00214225)
(4.80777e-07 -1.87174e-07 -0.00193033)
(4.80832e-07 -1.87286e-07 -0.00172817)
(4.80916e-07 -1.87415e-07 -0.00152808)
(4.81027e-07 -1.87559e-07 -0.00133661)
(4.81167e-07 -1.87718e-07 -0.00116456)
(4.81332e-07 -1.87892e-07 -0.000997849)
(4.81523e-07 -1.88079e-07 -0.000834439)
(4.8174e-07 -1.88279e-07 -0.000674098)
(4.8198e-07 -1.88492e-07 -0.000517202)
(4.82244e-07 -1.88718e-07 -0.000363225)
(4.82531e-07 -1.88955e-07 -0.000212331)
(4.8284e-07 -1.89204e-07 -9.35324e-05)
(4.83171e-07 -1.89463e-07 -8.44797e-06)
(4.83523e-07 -1.89733e-07 7.43379e-05)
(4.83895e-07 -1.90014e-07 0.000168294)
(4.84287e-07 -1.90304e-07 0.000280681)
(4.84698e-07 -1.90604e-07 0.00039698)
(4.85128e-07 -1.90913e-07 0.000510788)
(4.85577e-07 -1.9123e-07 0.000622133)
(4.86043e-07 -1.91556e-07 0.000731143)
(4.86526e-07 -1.9189e-07 0.000837733)
(4.87026e-07 -1.92232e-07 0.000941952)
(4.87542e-07 -1.92582e-07 0.00104502)
(4.88074e-07 -1.92938e-07 0.00114594)
(4.88622e-07 -1.93302e-07 0.00124351)
(4.89184e-07 -1.93672e-07 0.00133049)
(4.89761e-07 -1.94048e-07 0.0013748)
(4.90353e-07 -1.94431e-07 0.00138172)
(4.90958e-07 -1.94819e-07 0.0013863)
(4.91576e-07 -1.95214e-07 0.00138835)
(4.92208e-07 -1.95613e-07 0.00138782)
(4.92852e-07 -1.96018e-07 0.0013845)
(4.93508e-07 -1.96428e-07 0.00137822)
(4.94177e-07 -1.96842e-07 0.0013686)
(4.94857e-07 -1.97261e-07 0.00135511)
(4.95549e-07 -1.97685e-07 0.00133709)
(4.96251e-07 -1.98112e-07 0.00129147)
(4.96965e-07 -1.98543e-07 0.00123597)
(4.97689e-07 -1.98979e-07 0.00117029)
(4.98423e-07 -1.99418e-07 0.00109059)
(4.99167e-07 -1.9986e-07 0.00099516)
(4.9992e-07 -2.00305e-07 0.000871754)
(5.00684e-07 -2.00754e-07 0.000729303)
(5.01455e-07 -2.01206e-07 0.000546492)
(5.02237e-07 -2.0166e-07 0.000369457)
(5.65334e-07 -2.4228e-07 -0.00608608)
(5.60553e-07 -2.39208e-07 -0.00510978)
(5.55982e-07 -2.36278e-07 -0.00514699)
(5.51615e-07 -2.33496e-07 -0.00523017)
(5.47443e-07 -2.30851e-07 -0.0068446)
(5.43456e-07 -2.28339e-07 -0.00775424)
(5.39649e-07 -2.25951e-07 -0.00838745)
(5.36011e-07 -2.23683e-07 -0.00876633)
(5.32537e-07 -2.21529e-07 -0.00905661)
(5.29219e-07 -2.19484e-07 -0.0093847)
(5.26052e-07 -2.17543e-07 -0.00984038)
(5.23028e-07 -2.15701e-07 -0.0102285)
(5.20142e-07 -2.13954e-07 -0.0103558)
(5.17389e-07 -2.12298e-07 -0.01039)
(5.14763e-07 -2.10728e-07 -0.0104614)
(5.12259e-07 -2.09242e-07 -0.010243)
(5.09872e-07 -2.07835e-07 -0.00986484)
(5.07598e-07 -2.06503e-07 -0.0095006)
(5.05433e-07 -2.05245e-07 -0.00910657)
(5.03372e-07 -2.04056e-07 -0.00871993)
(5.01411e-07 -2.02934e-07 -0.00834576)
(4.99547e-07 -2.01875e-07 -0.00798226)
(4.97776e-07 -2.00878e-07 -0.0076297)
(4.96095e-07 -1.9994e-07 -0.00730054)
(4.94499e-07 -1.99058e-07 -0.00700033)
(4.92987e-07 -1.9823e-07 -0.00670763)
(4.91556e-07 -1.97455e-07 -0.00642237)
(4.90201e-07 -1.96728e-07 -0.00614461)
(4.88921e-07 -1.9605e-07 -0.00587353)
(4.87713e-07 -1.95418e-07 -0.005616)
(4.86575e-07 -1.94829e-07 -0.005353)
(4.85503e-07 -1.94283e-07 -0.00496153)
(4.84495e-07 -1.93777e-07 -0.00460157)
(4.83552e-07 -1.93312e-07 -0.00425038)
(4.82668e-07 -1.92884e-07 -0.00390698)
(4.81843e-07 -1.92491e-07 -0.00357371)
(4.81074e-07 -1.92134e-07 -0.00325218)
(4.8036e-07 -1.91809e-07 -0.00293717)
(4.79698e-07 -1.91517e-07 -0.00262859)
(4.79088e-07 -1.91256e-07 -0.00232689)
(4.78527e-07 -1.91025e-07 -0.00203149)
(4.78013e-07 -1.90823e-07 -0.00174234)
(4.77546e-07 -1.90648e-07 -0.0014593)
(4.77124e-07 -1.90499e-07 -0.00118261)
(4.76745e-07 -1.90376e-07 -0.000911276)
(4.76409e-07 -1.90278e-07 -0.000645639)
(4.76112e-07 -1.90204e-07 -0.000413302)
(4.75856e-07 -1.90152e-07 -0.000236999)
(4.75637e-07 -1.90123e-07 -6.5768e-05)
(4.75456e-07 -1.90114e-07 0.000101556)
(4.7531e-07 -1.90126e-07 0.000264937)
(4.75199e-07 -1.90158e-07 0.000424681)
(4.75122e-07 -1.90209e-07 0.000580826)
(4.75078e-07 -1.90278e-07 0.000733683)
(4.75066e-07 -1.90364e-07 0.000882426)
(4.75084e-07 -1.90468e-07 0.00101815)
(4.75132e-07 -1.90588e-07 0.00115065)
(4.75209e-07 -1.90723e-07 0.0012801)
(4.75315e-07 -1.90874e-07 0.00140556)
(4.75447e-07 -1.91039e-07 0.00151634)
(4.75607e-07 -1.91219e-07 0.00162109)
(4.75792e-07 -1.91412e-07 0.0017233)
(4.76002e-07 -1.91618e-07 0.00182332)
(4.76236e-07 -1.91837e-07 0.00192224)
(4.76494e-07 -1.92068e-07 0.00201256)
(4.76775e-07 -1.92311e-07 0.00209725)
(4.77078e-07 -1.92565e-07 0.00217475)
(4.77403e-07 -1.9283e-07 0.00225003)
(4.77748e-07 -1.93105e-07 0.00232305)
(4.78114e-07 -1.93391e-07 0.00234852)
(4.78501e-07 -1.93686e-07 0.00239079)
(4.78906e-07 -1.9399e-07 0.00243341)
(4.7933e-07 -1.94304e-07 0.00247446)
(4.79772e-07 -1.94626e-07 0.00251811)
(4.80232e-07 -1.94956e-07 0.00256731)
(4.8071e-07 -1.95295e-07 0.00254955)
(4.81204e-07 -1.95641e-07 0.00252687)
(4.81714e-07 -1.95994e-07 0.00250423)
(4.8224e-07 -1.96355e-07 0.0024804)
(4.82782e-07 -1.96723e-07 0.00245563)
(4.83338e-07 -1.97097e-07 0.00241982)
(4.8391e-07 -1.97477e-07 0.00237811)
(4.84495e-07 -1.97864e-07 0.00233517)
(4.85094e-07 -1.98256e-07 0.00229092)
(4.85706e-07 -1.98654e-07 0.00224136)
(4.86332e-07 -1.99057e-07 0.00217739)
(4.8697e-07 -1.99466e-07 0.00211178)
(4.8762e-07 -1.99879e-07 0.00204429)
(4.88283e-07 -2.00297e-07 0.00197463)
(4.88957e-07 -2.0072e-07 0.00190081)
(4.89642e-07 -2.01147e-07 0.00179937)
(4.90339e-07 -2.01578e-07 0.00169292)
(4.91046e-07 -2.02013e-07 0.00158305)
(4.91764e-07 -2.02451e-07 0.00148128)
(4.92491e-07 -2.02894e-07 0.00137122)
(4.93229e-07 -2.03339e-07 0.00124992)
(4.93976e-07 -2.03788e-07 0.00111777)
(4.94732e-07 -2.0424e-07 0.000968912)
(4.95497e-07 -2.04696e-07 0.000891598)
(4.96272e-07 -2.05153e-07 0.000968703)
(5.60605e-07 -2.44182e-07 -0.00478171)
(5.55778e-07 -2.41178e-07 -0.00463431)
(5.51164e-07 -2.38312e-07 -0.00461463)
(5.46755e-07 -2.35592e-07 -0.00512008)
(5.42543e-07 -2.33005e-07 -0.00670425)
(5.3852e-07 -2.30548e-07 -0.00744843)
(5.34676e-07 -2.28213e-07 -0.00792579)
(5.31005e-07 -2.25995e-07 -0.00788061)
(5.27498e-07 -2.2389e-07 -0.00783231)
(5.2415e-07 -2.21891e-07 -0.0080548)
(5.20953e-07 -2.19993e-07 -0.00844276)
(5.17902e-07 -2.18194e-07 -0.00881341)
(5.14989e-07 -2.16487e-07 -0.00909368)
(5.12211e-07 -2.14869e-07 -0.00935738)
(5.0956e-07 -2.13336e-07 -0.00950251)
(5.07033e-07 -2.11884e-07 -0.00953729)
(5.04625e-07 -2.10511e-07 -0.00944067)
(5.0233e-07 -2.09211e-07 -0.00907321)
(5.00144e-07 -2.07983e-07 -0.00868848)
(4.98064e-07 -2.06824e-07 -0.00830856)
(4.96085e-07 -2.0573e-07 -0.00789394)
(4.94203e-07 -2.04698e-07 -0.00735276)
(4.92415e-07 -2.03727e-07 -0.0068335)
(4.90717e-07 -2.02813e-07 -0.00637653)
(4.89106e-07 -2.01955e-07 -0.00594028)
(4.87579e-07 -2.0115e-07 -0.00552025)
(4.86133e-07 -2.00396e-07 -0.00511608)
(4.84765e-07 -1.9969e-07 -0.00472603)
(4.83471e-07 -1.99032e-07 -0.00435064)
(4.82251e-07 -1.98419e-07 -0.0039895)
(4.811e-07 -1.97849e-07 -0.00361325)
(4.80016e-07 -1.97321e-07 -0.00327878)
(4.78998e-07 -1.96832e-07 -0.00297145)
(4.78042e-07 -1.96382e-07 -0.00269484)
(4.77148e-07 -1.95969e-07 -0.00242501)
(4.76312e-07 -1.95592e-07 -0.00216644)
(4.75533e-07 -1.95249e-07 -0.00191848)
(4.74809e-07 -1.94939e-07 -0.00168089)
(4.74138e-07 -1.9466e-07 -0.00145399)
(4.73518e-07 -1.94412e-07 -0.00123702)
(4.72948e-07 -1.94193e-07 -0.00102868)
(4.72426e-07 -1.94003e-07 -0.000833434)
(4.71951e-07 -1.93839e-07 -0.000654379)
(4.7152e-07 -1.93702e-07 -0.000486932)
(4.71133e-07 -1.9359e-07 -0.000325587)
(4.70789e-07 -1.93502e-07 -0.000170254)
(4.70485e-07 -1.93437e-07 -2.03349e-05)
(4.7022e-07 -1.93395e-07 0.000124321)
(4.69995e-07 -1.93375e-07 0.000265444)
(4.69806e-07 -1.93376e-07 0.000405576)
(4.69653e-07 -1.93396e-07 0.000540668)
(4.69535e-07 -1.93437e-07 0.00067023)
(4.69451e-07 -1.93495e-07 0.000787529)
(4.694e-07 -1.93572e-07 0.000898829)
(4.69381e-07 -1.93666e-07 0.000997045)
(4.69393e-07 -1.93777e-07 0.00108943)
(4.69435e-07 -1.93904e-07 0.00117815)
(4.69505e-07 -1.94047e-07 0.00126357)
(4.69604e-07 -1.94204e-07 0.00134535)
(4.69731e-07 -1.94376e-07 0.00140672)
(4.69884e-07 -1.94562e-07 0.00144818)
(4.70062e-07 -1.94761e-07 0.0014877)
(4.70266e-07 -1.94974e-07 0.00152542)
(4.70494e-07 -1.95198e-07 0.00156136)
(4.70746e-07 -1.95435e-07 0.00156968)
(4.71021e-07 -1.95683e-07 0.00151259)
(4.71318e-07 -1.95942e-07 0.00146102)
(4.71637e-07 -1.96213e-07 0.00145165)
(4.71977e-07 -1.96493e-07 0.00144106)
(4.72337e-07 -1.96783e-07 0.0014293)
(4.72717e-07 -1.97083e-07 0.00143469)
(4.73116e-07 -1.97393e-07 0.00145851)
(4.73535e-07 -1.97711e-07 0.00146346)
(4.73971e-07 -1.98038e-07 0.00139285)
(4.74425e-07 -1.98372e-07 0.00132547)
(4.74897e-07 -1.98715e-07 0.00126842)
(4.75385e-07 -1.99066e-07 0.00120998)
(4.75889e-07 -1.99424e-07 0.00116544)
(4.76409e-07 -1.99788e-07 0.00112115)
(4.76945e-07 -2.0016e-07 0.00107551)
(4.77496e-07 -2.00538e-07 0.00102856)
(4.78061e-07 -2.00923e-07 0.000980199)
(4.7864e-07 -2.01313e-07 0.000930312)
(4.79233e-07 -2.01709e-07 0.000878851)
(4.79839e-07 -2.02111e-07 0.000825787)
(4.80459e-07 -2.02518e-07 0.00077093)
(4.81091e-07 -2.0293e-07 0.000713981)
(4.81735e-07 -2.03347e-07 0.000654786)
(4.82392e-07 -2.03769e-07 0.000592994)
(4.8306e-07 -2.04195e-07 0.000502551)
(4.83739e-07 -2.04625e-07 0.000406222)
(4.84429e-07 -2.0506e-07 0.000304483)
(4.8513e-07 -2.05498e-07 0.000196465)
(4.85841e-07 -2.05941e-07 8.11223e-05)
(4.86562e-07 -2.06386e-07 -4.213e-05)
(4.87294e-07 -2.06835e-07 -0.000194405)
(4.88034e-07 -2.07288e-07 -0.000386133)
(4.88784e-07 -2.07743e-07 -0.000594571)
(4.89543e-07 -2.08202e-07 -0.00069425)
(4.9031e-07 -2.08662e-07 -0.000728408)
(5.55844e-07 -2.46071e-07 -0.00556791)
(5.50972e-07 -2.43136e-07 -0.00576142)
(5.46316e-07 -2.40335e-07 -0.00548426)
(5.41867e-07 -2.37677e-07 -0.00690242)
(5.37618e-07 -2.35149e-07 -0.00846986)
(5.33558e-07 -2.32749e-07 -0.00922869)
(5.29681e-07 -2.30468e-07 -0.00971877)
(5.25977e-07 -2.28302e-07 -0.00952573)
(5.2244e-07 -2.26246e-07 -0.00947125)
(5.19062e-07 -2.24294e-07 -0.00977847)
(5.15837e-07 -2.22442e-07 -0.0100615)
(5.12758e-07 -2.20685e-07 -0.0103884)
(5.09821e-07 -2.19019e-07 -0.0106155)
(5.07018e-07 -2.1744e-07 -0.0107281)
(5.04344e-07 -2.15944e-07 -0.0103468)
(5.01795e-07 -2.14528e-07 -0.00999423)
(4.99365e-07 -2.13189e-07 -0.00965191)
(4.9705e-07 -2.11922e-07 -0.00931592)
(4.94845e-07 -2.10726e-07 -0.00883873)
(4.92746e-07 -2.09596e-07 -0.00825262)
(4.90749e-07 -2.0853e-07 -0.00769173)
(4.8885e-07 -2.07526e-07 -0.00715207)
(4.87046e-07 -2.06582e-07 -0.00671231)
(4.85332e-07 -2.05693e-07 -0.00633044)
(4.83707e-07 -2.04859e-07 -0.0059651)
(4.82165e-07 -2.04077e-07 -0.00561537)
(4.80705e-07 -2.03345e-07 -0.00528085)
(4.79323e-07 -2.02661e-07 -0.0049611)
(4.78017e-07 -2.02023e-07 -0.00465302)
(4.76784e-07 -2.01429e-07 -0.00435813)
(4.75621e-07 -2.00878e-07 -0.00404363)
(4.74526e-07 -2.00368e-07 -0.00374854)
(4.73496e-07 -1.99896e-07 -0.00348894)
(4.72531e-07 -1.99463e-07 -0.00324008)
(4.71626e-07 -1.99066e-07 -0.00298826)
(4.7078e-07 -1.98704e-07 -0.00273307)
(4.69991e-07 -1.98376e-07 -0.00248845)
(4.69258e-07 -1.9808e-07 -0.00224659)
(4.68577e-07 -1.97815e-07 -0.00201234)
(4.67949e-07 -1.9758e-07 -0.00179675)
(4.6737e-07 -1.97374e-07 -0.00158879)
(4.6684e-07 -1.97195e-07 -0.00138871)
(4.66356e-07 -1.97044e-07 -0.0012034)
(4.65917e-07 -1.96918e-07 -0.00102795)
(4.65522e-07 -1.96816e-07 -0.000858878)
(4.6517e-07 -1.96739e-07 -0.000695679)
(4.64859e-07 -1.96685e-07 -0.000537824)
(4.64587e-07 -1.96652e-07 -0.000385489)
(4.64354e-07 -1.96641e-07 -0.000236572)
(4.64158e-07 -1.96651e-07 -4.01172e-05)
(4.63998e-07 -1.96681e-07 0.00015141)
(4.63873e-07 -1.96729e-07 0.000340456)
(4.63783e-07 -1.96796e-07 0.000525911)
(4.63725e-07 -1.96881e-07 0.000691078)
(4.63699e-07 -1.96983e-07 0.000837874)
(4.63704e-07 -1.97101e-07 0.000981219)
(4.6374e-07 -1.97235e-07 0.0010379)
(4.63804e-07 -1.97385e-07 0.00105043)
(4.63897e-07 -1.97549e-07 0.00105677)
(4.64017e-07 -1.97728e-07 0.00105608)
(4.64164e-07 -1.9792e-07 0.00105078)
(4.64336e-07 -1.98126e-07 0.000977189)
(4.64534e-07 -1.98344e-07 0.000883733)
(4.64756e-07 -1.98574e-07 0.000810528)
(4.65002e-07 -1.98817e-07 0.00073695)
(4.65271e-07 -1.9907e-07 0.000662758)
(4.65562e-07 -1.99335e-07 0.00058778)
(4.65875e-07 -1.99611e-07 0.000506726)
(4.66209e-07 -1.99896e-07 0.000424764)
(4.66563e-07 -2.00192e-07 0.000341868)
(4.66937e-07 -2.00497e-07 0.000258063)
(4.67331e-07 -2.00811e-07 0.000211934)
(4.67743e-07 -2.01133e-07 0.000166324)
(4.68174e-07 -2.01465e-07 0.000119441)
(4.68622e-07 -2.01804e-07 7.1302e-05)
(4.69087e-07 -2.02151e-07 2.19696e-05)
(4.69569e-07 -2.02506e-07 -3.0059e-05)
(4.70068e-07 -2.02868e-07 -8.42086e-05)
(4.70582e-07 -2.03237e-07 -0.00013342)
(4.71112e-07 -2.03613e-07 -0.000184185)
(4.71657e-07 -2.03995e-07 -0.000236503)
(4.72216e-07 -2.04384e-07 -0.000290438)
(4.72789e-07 -2.04778e-07 -0.000346077)
(4.73376e-07 -2.05178e-07 -0.000403525)
(4.73976e-07 -2.05583e-07 -0.000479955)
(4.7459e-07 -2.05994e-07 -0.000579889)
(4.75216e-07 -2.0641e-07 -0.00068283)
(4.75854e-07 -2.06831e-07 -0.000789024)
(4.76505e-07 -2.07256e-07 -0.00091648)
(4.77166e-07 -2.07686e-07 -0.00105898)
(4.77839e-07 -2.0812e-07 -0.00120766)
(4.78523e-07 -2.08558e-07 -0.00136307)
(4.79218e-07 -2.08999e-07 -0.00152596)
(4.79923e-07 -2.09445e-07 -0.00169708)
(4.80638e-07 -2.09894e-07 -0.00187657)
(4.81362e-07 -2.10347e-07 -0.00206612)
(4.82096e-07 -2.10802e-07 -0.00226266)
(4.8284e-07 -2.11261e-07 -0.00247222)
(4.83592e-07 -2.11723e-07 -0.00268007)
(4.84353e-07 -2.12186e-07 -0.00283969)
(5.51049e-07 -2.47946e-07 -0.00670413)
(5.46135e-07 -2.45081e-07 -0.00690537)
(5.41439e-07 -2.42346e-07 -0.00675582)
(5.36952e-07 -2.39752e-07 -0.00870151)
(5.32667e-07 -2.37285e-07 -0.0102348)
(5.28573e-07 -2.34943e-07 -0.0110184)
(5.24662e-07 -2.32717e-07 -0.0113733)
(5.20927e-07 -2.30604e-07 -0.0111759)
(5.1736e-07 -2.28598e-07 -0.0112166)
(5.13954e-07 -2.26694e-07 -0.0115366)
(5.10702e-07 -2.24887e-07 -0.011725)
(5.07598e-07 -2.23174e-07 -0.0110506)
(5.04636e-07 -2.2155e-07 -0.0106541)
(5.0181e-07 -2.20011e-07 -0.0102919)
(4.99114e-07 -2.18553e-07 -0.0099573)
(4.96544e-07 -2.17174e-07 -0.00966216)
(4.94093e-07 -2.15869e-07 -0.00937375)
(4.91759e-07 -2.14636e-07 -0.00910322)
(4.89535e-07 -2.13471e-07 -0.00884862)
(4.87419e-07 -2.12372e-07 -0.00854483)
(4.85405e-07 -2.11336e-07 -0.00807385)
(4.8349e-07 -2.1036e-07 -0.00761309)
(4.8167e-07 -2.09442e-07 -0.00721885)
(4.79941e-07 -2.08579e-07 -0.00683666)
(4.78301e-07 -2.07769e-07 -0.00645916)
(4.76746e-07 -2.07011e-07 -0.00609724)
(4.75272e-07 -2.06301e-07 -0.00575029)
(4.73878e-07 -2.05639e-07 -0.0054179)
(4.72559e-07 -2.05022e-07 -0.0050989)
(4.71314e-07 -2.04448e-07 -0.00479164)
(4.7014e-07 -2.03916e-07 -0.00447577)
(4.69034e-07 -2.03424e-07 -0.00414437)
(4.67994e-07 -2.0297e-07 -0.00385508)
(4.67017e-07 -2.02554e-07 -0.00357727)
(4.66103e-07 -2.02173e-07 -0.00327499)
(4.65247e-07 -2.01827e-07 -0.0029862)
(4.64449e-07 -2.01513e-07 -0.00269634)
(4.63706e-07 -2.01232e-07 -0.00241613)
(4.63017e-07 -2.00981e-07 -0.00214458)
(4.6238e-07 -2.00759e-07 -0.00188173)
(4.61793e-07 -2.00566e-07 -0.00162683)
(4.61254e-07 -2.004e-07 -0.0013801)
(4.60762e-07 -2.0026e-07 -0.00114088)
(4.60316e-07 -2.00145e-07 -0.000909372)
(4.59913e-07 -2.00055e-07 -0.000684756)
(4.59553e-07 -1.99988e-07 -0.00046691)
(4.59235e-07 -1.99944e-07 -0.000255026)
(4.58956e-07 -1.99922e-07 -4.92766e-05)
(4.58715e-07 -1.99921e-07 0.000150927)
(4.58513e-07 -1.99939e-07 0.00034514)
(4.58346e-07 -1.99978e-07 0.000336343)
(4.58215e-07 -2.00035e-07 0.000286498)
(4.58118e-07 -2.0011e-07 0.000237764)
(4.58053e-07 -2.00203e-07 0.000188155)
(4.58021e-07 -2.00313e-07 0.00014188)
(4.5802e-07 -2.00439e-07 9.44128e-05)
(4.58049e-07 -2.0058e-07 4.56004e-05)
(4.58107e-07 -2.00737e-07 -4.76475e-06)
(4.58193e-07 -2.00908e-07 -5.7006e-05)
(4.58307e-07 -2.01093e-07 -0.000111448)
(4.58448e-07 -2.01292e-07 -0.000172706)
(4.58615e-07 -2.01504e-07 -0.00023503)
(4.58806e-07 -2.01728e-07 -0.000308479)
(4.59023e-07 -2.01964e-07 -0.000382918)
(4.59263e-07 -2.02212e-07 -0.000463061)
(4.59525e-07 -2.02472e-07 -0.000543944)
(4.59811e-07 -2.02742e-07 -0.000625674)
(4.60118e-07 -2.03023e-07 -0.000708414)
(4.60446e-07 -2.03314e-07 -0.000792144)
(4.60794e-07 -2.03614e-07 -0.000876862)
(4.61162e-07 -2.03924e-07 -0.000964738)
(4.6155e-07 -2.04243e-07 -0.00103621)
(4.61956e-07 -2.0457e-07 -0.00109569)
(4.62381e-07 -2.04906e-07 -0.00117653)
(4.62823e-07 -2.0525e-07 -0.00125878)
(4.63283e-07 -2.05602e-07 -0.00134248)
(4.63759e-07 -2.05961e-07 -0.00142776)
(4.64252e-07 -2.06327e-07 -0.00151467)
(4.6476e-07 -2.067e-07 -0.00160329)
(4.65284e-07 -2.0708e-07 -0.00164799)
(4.65823e-07 -2.07467e-07 -0.00167731)
(4.66377e-07 -2.07859e-07 -0.00170875)
(4.66944e-07 -2.08257e-07 -0.00174571)
(4.67525e-07 -2.08661e-07 -0.00178861)
(4.68117e-07 -2.09069e-07 -0.00183453)
(4.68726e-07 -2.09484e-07 -0.00188398)
(4.69346e-07 -2.09904e-07 -0.00193514)
(4.69979e-07 -2.10328e-07 -0.00199312)
(4.70622e-07 -2.10757e-07 -0.00208103)
(4.71278e-07 -2.1119e-07 -0.00217019)
(4.71945e-07 -2.11628e-07 -0.00226596)
(4.72622e-07 -2.1207e-07 -0.00236914)
(4.7331e-07 -2.12515e-07 -0.00248043)
(4.74009e-07 -2.12964e-07 -0.00260763)
(4.74717e-07 -2.13416e-07 -0.00274871)
(4.75436e-07 -2.13872e-07 -0.00289921)
(4.76163e-07 -2.14331e-07 -0.00307662)
(4.769e-07 -2.14793e-07 -0.00327061)
(4.77646e-07 -2.15258e-07 -0.00347298)
(4.78401e-07 -2.15725e-07 -0.00371958)
(5.46223e-07 -2.49806e-07 -0.00785953)
(5.41268e-07 -2.47013e-07 -0.00806517)
(5.36534e-07 -2.44346e-07 -0.00856596)
(5.3201e-07 -2.41817e-07 -0.0105037)
(5.2769e-07 -2.39412e-07 -0.0119894)
(5.23563e-07 -2.37129e-07 -0.0128175)
(5.19622e-07 -2.34959e-07 -0.0130108)
(5.15857e-07 -2.329e-07 -0.0129012)
(5.12262e-07 -2.30945e-07 -0.0130887)
(5.08829e-07 -2.2909e-07 -0.0125409)
(5.05551e-07 -2.2733e-07 -0.0117915)
(5.02423e-07 -2.25661e-07 -0.0111664)
(4.99437e-07 -2.24079e-07 -0.0108021)
(4.96589e-07 -2.22581e-07 -0.0105017)
(4.93872e-07 -2.21163e-07 -0.0101521)
(4.91281e-07 -2.1982e-07 -0.00981816)
(4.88811e-07 -2.18551e-07 -0.00948412)
(4.86458e-07 -2.17352e-07 -0.00915815)
(4.84217e-07 -2.16219e-07 -0.00885715)
(4.82083e-07 -2.15151e-07 -0.00852794)
(4.80053e-07 -2.14145e-07 -0.00821845)
(4.78122e-07 -2.13197e-07 -0.00793264)
(4.76287e-07 -2.12306e-07 -0.00752543)
(4.74545e-07 -2.1147e-07 -0.0070828)
(4.72891e-07 -2.10685e-07 -0.00663537)
(4.71322e-07 -2.09951e-07 -0.00620336)
(4.69836e-07 -2.09264e-07 -0.00578634)
(4.68429e-07 -2.08624e-07 -0.00539138)
(4.67099e-07 -2.08028e-07 -0.00502125)
(4.65842e-07 -2.07474e-07 -0.00466406)
(4.64657e-07 -2.06961e-07 -0.00430914)
(4.6354e-07 -2.06488e-07 -0.00392216)
(4.6249e-07 -2.06053e-07 -0.00354841)
(4.61504e-07 -2.05653e-07 -0.0032259)
(4.60579e-07 -2.05289e-07 -0.00292738)
(4.59714e-07 -2.04959e-07 -0.00263882)
(4.58907e-07 -2.04661e-07 -0.00235943)
(4.58155e-07 -2.04394e-07 -0.00208473)
(4.57458e-07 -2.04157e-07 -0.00181314)
(4.56812e-07 -2.03949e-07 -0.00155042)
(4.56217e-07 -2.03768e-07 -0.00129569)
(4.5567e-07 -2.03615e-07 -0.000978017)
(4.55171e-07 -2.03487e-07 -0.000662759)
(4.54717e-07 -2.03384e-07 -0.000577277)
(4.54307e-07 -2.03305e-07 -0.000574525)
(4.5394e-07 -2.03249e-07 -0.000612937)
(4.53614e-07 -2.03215e-07 -0.000653897)
(4.53328e-07 -2.03203e-07 -0.000697169)
(4.53081e-07 -2.03211e-07 -0.000742233)
(4.52871e-07 -2.0324e-07 -0.000789607)
(4.52698e-07 -2.03287e-07 -0.000838804)
(4.5256e-07 -2.03353e-07 -0.000890052)
(4.52457e-07 -2.03437e-07 -0.000942305)
(4.52386e-07 -2.03538e-07 -0.00099597)
(4.52347e-07 -2.03655e-07 -0.00105147)
(4.5234e-07 -2.03789e-07 -0.00110846)
(4.52363e-07 -2.03938e-07 -0.00111409)
(4.52415e-07 -2.04101e-07 -0.00111033)
(4.52495e-07 -2.04279e-07 -0.00110775)
(4.52603e-07 -2.04471e-07 -0.00110635)
(4.52738e-07 -2.04677e-07 -0.00111718)
(4.52898e-07 -2.04895e-07 -0.00115217)
(4.53084e-07 -2.05125e-07 -0.00118998)
(4.53294e-07 -2.05367e-07 -0.0012391)
(4.53528e-07 -2.05621e-07 -0.00128885)
(4.53785e-07 -2.05886e-07 -0.00133935)
(4.54065e-07 -2.06162e-07 -0.00139076)
(4.54366e-07 -2.06448e-07 -0.00144304)
(4.54688e-07 -2.06744e-07 -0.00149624)
(4.55031e-07 -2.0705e-07 -0.00154951)
(4.55393e-07 -2.07365e-07 -0.00160265)
(4.55775e-07 -2.07688e-07 -0.00165686)
(4.56176e-07 -2.08021e-07 -0.00167709)
(4.56594e-07 -2.08361e-07 -0.00169416)
(4.57031e-07 -2.0871e-07 -0.00171275)
(4.57484e-07 -2.09066e-07 -0.00172978)
(4.57955e-07 -2.0943e-07 -0.00174674)
(4.58441e-07 -2.098e-07 -0.00176562)
(4.58942e-07 -2.10178e-07 -0.00178637)
(4.59462e-07 -2.10561e-07 -0.00180922)
(4.59996e-07 -2.10951e-07 -0.00183409)
(4.60542e-07 -2.11348e-07 -0.00186092)
(4.61103e-07 -2.1175e-07 -0.00189244)
(4.61678e-07 -2.12159e-07 -0.00192969)
(4.62265e-07 -2.12571e-07 -0.00197175)
(4.62868e-07 -2.12987e-07 -0.00201912)
(4.63484e-07 -2.13411e-07 -0.00207015)
(4.64109e-07 -2.13839e-07 -0.00214934)
(4.64746e-07 -2.14272e-07 -0.00225761)
(4.65395e-07 -2.14709e-07 -0.00238627)
(4.66056e-07 -2.1515e-07 -0.00252191)
(4.66727e-07 -2.15595e-07 -0.0026651)
(4.67409e-07 -2.16044e-07 -0.00281605)
(4.68101e-07 -2.16496e-07 -0.00297482)
(4.68803e-07 -2.16952e-07 -0.00314163)
(4.69515e-07 -2.17411e-07 -0.00331571)
(4.70236e-07 -2.17874e-07 -0.00349821)
(4.70967e-07 -2.18339e-07 -0.0036847)
(4.71705e-07 -2.18807e-07 -0.00390276)
(4.72454e-07 -2.19277e-07 -0.00423485)
(5.41365e-07 -2.51652e-07 -0.00900118)
(5.36371e-07 -2.48932e-07 -0.00920141)
(5.316e-07 -2.46335e-07 -0.0103796)
(5.27042e-07 -2.43872e-07 -0.0122972)
(5.22689e-07 -2.4153e-07 -0.0137213)
(5.18531e-07 -2.39306e-07 -0.0145803)
(5.14559e-07 -2.37194e-07 -0.0147333)
(5.10766e-07 -2.35189e-07 -0.0147667)
(5.07144e-07 -2.33286e-07 -0.0136592)
(5.03685e-07 -2.31481e-07 -0.0124978)
(5.00383e-07 -2.29769e-07 -0.0117041)
(4.97231e-07 -2.28145e-07 -0.0110638)
(4.94224e-07 -2.26607e-07 -0.010643)
(4.91354e-07 -2.2515e-07 -0.0103072)
(4.88617e-07 -2.23771e-07 -0.00993384)
(4.86006e-07 -2.22467e-07 -0.00958709)
(4.83518e-07 -2.21233e-07 -0.00923024)
(4.81148e-07 -2.20069e-07 -0.00887057)
(4.78889e-07 -2.1897e-07 -0.00850214)
(4.7674e-07 -2.17933e-07 -0.00810313)
(4.74694e-07 -2.16957e-07 -0.00767829)
(4.72748e-07 -2.16038e-07 -0.00732018)
(4.70899e-07 -2.15175e-07 -0.00702748)
(4.69143e-07 -2.14365e-07 -0.00670671)
(4.67476e-07 -2.13606e-07 -0.00627846)
(4.65895e-07 -2.12896e-07 -0.00586544)
(4.64396e-07 -2.12233e-07 -0.00546673)
(4.62978e-07 -2.11615e-07 -0.00508235)
(4.61636e-07 -2.1104e-07 -0.00471162)
(4.60369e-07 -2.10507e-07 -0.00435462)
(4.59173e-07 -2.10014e-07 -0.00400971)
(4.58046e-07 -2.0956e-07 -0.00362742)
(4.56986e-07 -2.09143e-07 -0.00321947)
(4.5599e-07 -2.08761e-07 -0.00274702)
(4.55056e-07 -2.08414e-07 -0.0022059)
(4.54182e-07 -2.08099e-07 -0.00168464)
(4.53367e-07 -2.07817e-07 -0.00127959)
(4.52607e-07 -2.07564e-07 -0.00116362)
(4.51901e-07 -2.07342e-07 -0.00105173)
(4.51247e-07 -2.07147e-07 -0.000987315)
(4.50644e-07 -2.0698e-07 -0.000970966)
(4.5009e-07 -2.0684e-07 -0.000966533)
(4.49583e-07 -2.06724e-07 -0.000962993)
(4.49121e-07 -2.06633e-07 -0.000960608)
(4.48704e-07 -2.06565e-07 -0.00095903)
(4.4833e-07 -2.0652e-07 -0.000958417)
(4.47997e-07 -2.06497e-07 -0.000958643)
(4.47705e-07 -2.06495e-07 -0.000959868)
(4.47451e-07 -2.06513e-07 -0.000962076)
(4.47235e-07 -2.06551e-07 -0.000965233)
(4.47055e-07 -2.06607e-07 -0.00096957)
(4.46911e-07 -2.06682e-07 -0.000989976)
(4.46801e-07 -2.06775e-07 -0.00101148)
(4.46724e-07 -2.06884e-07 -0.00103363)
(4.46679e-07 -2.07009e-07 -0.00105659)
(4.46666e-07 -2.0715e-07 -0.00108041)