/*--------------------------------*- C++ -*----------------------------------*\
| =========                 |                                                 |
| \\      /  F ield         | foam-extend: Open Source CFD                    |
|  \\    /   O peration     | Version:     4.1                                |
|   \\  /    A nd           | Web:         http://www.foam-extend.org         |
|    \\/     M anipulation  |                                                 |
\*---------------------------------------------------------------------------*/
FoamFile
{
    version     2.0;
    format      ascii;
    class       vectorField;
    location    "1";
    object      solidsCellD_iteration121;
}
// * * * * * * * * * * * * * * * * * * * * * * * * * * * * * * * * * * * * * //


100000
(
(5.74686e-07 -2.38429e-07 -0.000626307)
(5.70002e-07 -2.35227e-07 0.00328178)
(5.65524e-07 -2.32172e-07 0.00488693)
(5.61244e-07 -2.29273e-07 0.00646142)
(5.57155e-07 -2.26515e-07 0.00701806)
(5.53248e-07 -2.23895e-07 0.00585189)
(5.49516e-07 -2.21405e-07 0.00459)
(5.4595e-07 -2.1904e-07 0.00252465)
(5.42544e-07 -2.16793e-07 0.00152373)
(5.39291e-07 -2.14659e-07 -0.000178216)
(5.36186e-07 -2.12633e-07 -0.00135312)
(5.33221e-07 -2.1071e-07 -0.00169489)
(5.30391e-07 -2.08885e-07 -0.00130506)
(5.27692e-07 -2.07155e-07 -0.000917621)
(5.25117e-07 -2.05515e-07 -0.000495782)
(5.22662e-07 -2.03961e-07 -0.000205666)
(5.20322e-07 -2.02489e-07 1.81181e-05)
(5.18093e-07 -2.01095e-07 0.000124316)
(5.1597e-07 -1.99778e-07 0.000184285)
(5.1395e-07 -1.98532e-07 0.00024445)
(5.12029e-07 -1.97356e-07 0.000304206)
(5.10202e-07 -1.96245e-07 0.000464254)
(5.08467e-07 -1.95198e-07 0.000679067)
(5.0682e-07 -1.94212e-07 0.000328416)
(5.05258e-07 -1.93285e-07 -1.84068e-05)
(5.03777e-07 -1.92413e-07 -0.000347275)
(5.02376e-07 -1.91595e-07 -0.000743051)
(5.01051e-07 -1.90829e-07 -0.00119128)
(4.99799e-07 -1.90112e-07 -0.00150818)
(4.98618e-07 -1.89442e-07 -0.00173011)
(4.97506e-07 -1.88818e-07 -0.00193931)
(4.9646e-07 -1.88238e-07 -0.00213981)
(4.95478e-07 -1.877e-07 -0.00233226)
(4.94556e-07 -1.87202e-07 -0.0026435)
(4.93695e-07 -1.86743e-07 -0.0029752)
(4.92892e-07 -1.86322e-07 -0.00329314)
(4.92144e-07 -1.85936e-07 -0.00353451)
(4.9145e-07 -1.85585e-07 -0.00375042)
(4.90809e-07 -1.85267e-07 -0.00395539)
(4.90218e-07 -1.84981e-07 -0.00415865)
(4.89675e-07 -1.84725e-07 -0.00432234)
(4.8918e-07 -1.84499e-07 -0.00446629)
(4.88731e-07 -1.84302e-07 -0.00460258)
(4.88326e-07 -1.84132e-07 -0.00470621)
(4.87964e-07 -1.83988e-07 -0.00479572)
(4.87644e-07 -1.8387e-07 -0.0048792)
(4.87364e-07 -1.83776e-07 -0.00495694)
(4.87123e-07 -1.83706e-07 -0.00498862)
(4.8692e-07 -1.83658e-07 -0.00498914)
(4.86753e-07 -1.83632e-07 -0.00498702)
(4.86623e-07 -1.83627e-07 -0.00499914)
(4.86526e-07 -1.83643e-07 -0.00501866)
(4.86464e-07 -1.83678e-07 -0.0050348)
(4.86433e-07 -1.83731e-07 -0.00504776)
(4.86435e-07 -1.83803e-07 -0.00504355)
(4.86467e-07 -1.83892e-07 -0.00502792)
(4.86528e-07 -1.83998e-07 -0.00501034)
(4.86619e-07 -1.8412e-07 -0.00499087)
(4.86737e-07 -1.84258e-07 -0.00496947)
(4.86883e-07 -1.84411e-07 -0.0049238)
(4.87055e-07 -1.84578e-07 -0.00486136)
(4.87252e-07 -1.84759e-07 -0.00479804)
(4.87475e-07 -1.84953e-07 -0.00473371)
(4.87722e-07 -1.85161e-07 -0.0046684)
(4.87992e-07 -1.8538e-07 -0.00460506)
(4.88285e-07 -1.85612e-07 -0.00454201)
(4.886e-07 -1.85856e-07 -0.00447816)
(4.88937e-07 -1.8611e-07 -0.00443076)
(4.89295e-07 -1.86375e-07 -0.00438246)
(4.89673e-07 -1.86651e-07 -0.00432488)
(4.90071e-07 -1.86937e-07 -0.0042664)
(4.90489e-07 -1.87232e-07 -0.00420215)
(4.90925e-07 -1.87536e-07 -0.00412384)
(4.91379e-07 -1.87849e-07 -0.00404467)
(4.91851e-07 -1.8817e-07 -0.0039648)
(4.9234e-07 -1.885e-07 -0.00388414)
(4.92846e-07 -1.88838e-07 -0.00380118)
(4.93368e-07 -1.89183e-07 -0.00371743)
(4.93906e-07 -1.89535e-07 -0.00363286)
(4.9446e-07 -1.89895e-07 -0.0035476)
(4.95028e-07 -1.90261e-07 -0.00346628)
(4.95611e-07 -1.90633e-07 -0.00338476)
(4.96208e-07 -1.91012e-07 -0.00330275)
(4.9682e-07 -1.91397e-07 -0.00322042)
(4.97444e-07 -1.91787e-07 -0.00313787)
(4.98082e-07 -1.92183e-07 -0.00305517)
(4.98732e-07 -1.92584e-07 -0.00297231)
(4.99394e-07 -1.9299e-07 -0.00288928)
(5.00069e-07 -1.93401e-07 -0.00278782)
(5.00755e-07 -1.93817e-07 -0.00267294)
(5.01453e-07 -1.94236e-07 -0.00255792)
(5.02162e-07 -1.9466e-07 -0.00252301)
(5.02882e-07 -1.95088e-07 -0.00248679)
(5.03612e-07 -1.9552e-07 -0.00244946)
(5.04352e-07 -1.95955e-07 -0.00241025)
(5.05102e-07 -1.96394e-07 -0.00236603)
(5.05862e-07 -1.96836e-07 -0.00231657)
(5.06632e-07 -1.97282e-07 -0.00226197)
(5.07411e-07 -1.9773e-07 -0.00223308)
(5.082e-07 -1.98182e-07 -0.00230779)
(5.70024e-07 -2.40358e-07 -0.000252071)
(5.6529e-07 -2.37221e-07 0.00376913)
(5.60765e-07 -2.34228e-07 0.0067262)
(5.56441e-07 -2.31387e-07 0.00701209)
(5.5231e-07 -2.28685e-07 0.00606033)
(5.48362e-07 -2.26118e-07 0.00501899)
(5.44591e-07 -2.23678e-07 0.00397537)
(5.40989e-07 -2.21361e-07 0.00325685)
(5.37549e-07 -2.1916e-07 0.0023115)
(5.34263e-07 -2.1707e-07 0.000753419)
(5.31126e-07 -2.15086e-07 -0.000801499)
(5.28131e-07 -2.13203e-07 -0.00146506)
(5.25273e-07 -2.11417e-07 -0.0011728)
(5.22546e-07 -2.09724e-07 -0.000788613)
(5.19945e-07 -2.08118e-07 -0.000415913)
(5.17465e-07 -2.06598e-07 -3.35266e-05)
(5.15101e-07 -2.05158e-07 0.000333362)
(5.1285e-07 -2.03795e-07 0.000669829)
(5.10705e-07 -2.02506e-07 0.000861485)
(5.08664e-07 -2.01289e-07 0.000926158)
(5.06723e-07 -2.00139e-07 0.000990375)
(5.04877e-07 -1.99055e-07 0.000687558)
(5.03124e-07 -1.98033e-07 0.000281526)
(5.01459e-07 -1.9707e-07 -7.59849e-05)
(4.9988e-07 -1.96165e-07 -0.000412225)
(4.98384e-07 -1.95315e-07 -0.000739431)
(4.96967e-07 -1.94518e-07 -0.00105531)
(4.95627e-07 -1.93771e-07 -0.00148972)
(4.94361e-07 -1.93074e-07 -0.00180263)
(4.93167e-07 -1.92422e-07 -0.00198801)
(4.92041e-07 -1.91816e-07 -0.00211705)
(4.90983e-07 -1.91252e-07 -0.0022404)
(4.89987e-07 -1.90731e-07 -0.00235895)
(4.89053e-07 -1.9025e-07 -0.00248861)
(4.88181e-07 -1.89805e-07 -0.00275056)
(4.87367e-07 -1.89398e-07 -0.00298469)
(4.86608e-07 -1.89026e-07 -0.0031897)
(4.85904e-07 -1.88688e-07 -0.00336155)
(4.85253e-07 -1.88383e-07 -0.00349561)
(4.84652e-07 -1.8811e-07 -0.00361188)
(4.841e-07 -1.87866e-07 -0.00373845)
(4.83596e-07 -1.87652e-07 -0.00386415)
(4.83137e-07 -1.87466e-07 -0.00396802)
(4.82724e-07 -1.87306e-07 -0.00408425)
(4.82353e-07 -1.87173e-07 -0.00419343)
(4.82024e-07 -1.87065e-07 -0.00429582)
(4.81736e-07 -1.86981e-07 -0.0043917)
(4.81487e-07 -1.8692e-07 -0.0044812)
(4.81277e-07 -1.86881e-07 -0.00456472)
(4.81103e-07 -1.86864e-07 -0.00464254)
(4.80964e-07 -1.86867e-07 -0.00472561)
(4.80861e-07 -1.86891e-07 -0.00481252)
(4.80791e-07 -1.86933e-07 -0.00484939)
(4.80753e-07 -1.86995e-07 -0.00487518)
(4.80748e-07 -1.87074e-07 -0.00487623)
(4.80773e-07 -1.8717e-07 -0.00486994)
(4.80828e-07 -1.87283e-07 -0.0048611)
(4.80911e-07 -1.87412e-07 -0.00484987)
(4.81023e-07 -1.87556e-07 -0.00478976)
(4.81162e-07 -1.87715e-07 -0.00472697)
(4.81328e-07 -1.87888e-07 -0.00466317)
(4.81519e-07 -1.88075e-07 -0.00459846)
(4.81735e-07 -1.88276e-07 -0.00453274)
(4.81976e-07 -1.88489e-07 -0.00446598)
(4.8224e-07 -1.88714e-07 -0.00439996)
(4.82527e-07 -1.88951e-07 -0.00433535)
(4.82836e-07 -1.892e-07 -0.00428988)
(4.83167e-07 -1.8946e-07 -0.00424592)
(4.83519e-07 -1.8973e-07 -0.00420071)
(4.83891e-07 -1.90011e-07 -0.00416581)
(4.84283e-07 -1.90301e-07 -0.00420796)
(4.84694e-07 -1.90601e-07 -0.00424723)
(4.85124e-07 -1.90909e-07 -0.00427858)
(4.85573e-07 -1.91227e-07 -0.00430847)
(4.86039e-07 -1.91553e-07 -0.00433711)
(4.86522e-07 -1.91887e-07 -0.00431742)
(4.87022e-07 -1.92229e-07 -0.00418239)
(4.87538e-07 -1.92578e-07 -0.00404718)
(4.8807e-07 -1.92935e-07 -0.00391179)
(4.88618e-07 -1.93298e-07 -0.00377625)
(4.8918e-07 -1.93669e-07 -0.00364068)
(4.89757e-07 -1.94045e-07 -0.00350518)
(4.90349e-07 -1.94428e-07 -0.00336948)
(4.90954e-07 -1.94816e-07 -0.00323359)
(4.91572e-07 -1.9521e-07 -0.00309765)
(4.92204e-07 -1.9561e-07 -0.00296148)
(4.92848e-07 -1.96015e-07 -0.00282503)
(4.93504e-07 -1.96424e-07 -0.00268815)
(4.94173e-07 -1.96839e-07 -0.002555)
(4.94853e-07 -1.97258e-07 -0.00253249)
(4.95545e-07 -1.97681e-07 -0.00249324)
(4.96248e-07 -1.98109e-07 -0.00245441)
(4.96961e-07 -1.9854e-07 -0.00241918)
(4.97685e-07 -1.98975e-07 -0.00238846)
(4.98419e-07 -1.99414e-07 -0.00236373)
(4.99163e-07 -1.99857e-07 -0.00233588)
(4.99916e-07 -2.00302e-07 -0.0023133)
(5.0068e-07 -2.00751e-07 -0.00232717)
(5.01452e-07 -2.01203e-07 -0.00238502)
(5.02233e-07 -2.01657e-07 -0.00254324)
(5.65328e-07 -2.42275e-07 -0.000447173)
(5.60547e-07 -2.39203e-07 0.00413701)
(5.55976e-07 -2.36273e-07 0.00627389)
(5.51609e-07 -2.33491e-07 0.00582507)
(5.47437e-07 -2.30846e-07 0.00486045)
(5.43451e-07 -2.28334e-07 0.00382354)
(5.39643e-07 -2.25946e-07 0.00338312)
(5.36005e-07 -2.23678e-07 0.00360236)
(5.32531e-07 -2.21524e-07 0.00314436)
(5.29214e-07 -2.19479e-07 0.0016897)
(5.26046e-07 -2.17538e-07 0.000146947)
(5.23023e-07 -2.15696e-07 -0.00118323)
(5.20137e-07 -2.1395e-07 -0.0010382)
(5.17384e-07 -2.12293e-07 -0.000655656)
(5.14758e-07 -2.10724e-07 -0.000286675)
(5.12254e-07 -2.09237e-07 9.24237e-05)
(5.09867e-07 -2.0783e-07 0.000458038)
(5.07593e-07 -2.06499e-07 0.000811216)
(5.05428e-07 -2.0524e-07 0.00112393)
(5.03367e-07 -2.04052e-07 0.00102987)
(5.01406e-07 -2.02929e-07 0.000619113)
(4.99542e-07 -2.01871e-07 0.000239041)
(4.97771e-07 -2.00874e-07 -4.16261e-05)
(4.9609e-07 -1.99936e-07 -0.000404817)
(4.94495e-07 -1.99054e-07 -0.000707635)
(4.92983e-07 -1.98226e-07 -0.000975374)
(4.91551e-07 -1.9745e-07 -0.00122265)
(4.90196e-07 -1.96724e-07 -0.00139757)
(4.88917e-07 -1.96046e-07 -0.00164748)
(4.87709e-07 -1.95413e-07 -0.00184769)
(4.8657e-07 -1.94825e-07 -0.00203042)
(4.85499e-07 -1.94279e-07 -0.00219162)
(4.84491e-07 -1.93773e-07 -0.00234238)
(4.83547e-07 -1.93308e-07 -0.00245756)
(4.82664e-07 -1.9288e-07 -0.00263663)
(4.81839e-07 -1.92487e-07 -0.00286431)
(4.8107e-07 -1.9213e-07 -0.00304412)
(4.80355e-07 -1.91805e-07 -0.00321505)
(4.79694e-07 -1.91513e-07 -0.00337311)
(4.79083e-07 -1.91252e-07 -0.00351398)
(4.78522e-07 -1.91021e-07 -0.00364748)
(4.78009e-07 -1.90819e-07 -0.00377377)
(4.77542e-07 -1.90644e-07 -0.00390805)
(4.7712e-07 -1.90495e-07 -0.0040492)
(4.76741e-07 -1.90373e-07 -0.00418637)
(4.76404e-07 -1.90274e-07 -0.00431946)
(4.76108e-07 -1.902e-07 -0.00444862)
(4.75852e-07 -1.90148e-07 -0.00457386)
(4.75633e-07 -1.90119e-07 -0.00469558)
(4.75452e-07 -1.9011e-07 -0.0048138)
(4.75306e-07 -1.90123e-07 -0.00493939)
(4.75195e-07 -1.90154e-07 -0.00507644)
(4.75118e-07 -1.90205e-07 -0.00510248)
(4.75074e-07 -1.90274e-07 -0.0050272)
(4.75062e-07 -1.90361e-07 -0.00494901)
(4.7508e-07 -1.90464e-07 -0.00486895)
(4.75128e-07 -1.90584e-07 -0.00478514)
(4.75205e-07 -1.9072e-07 -0.00469256)
(4.75311e-07 -1.9087e-07 -0.00459894)
(4.75443e-07 -1.91036e-07 -0.00450464)
(4.75603e-07 -1.91215e-07 -0.00437584)
(4.75788e-07 -1.91409e-07 -0.004239)
(4.75998e-07 -1.91615e-07 -0.00410263)
(4.76232e-07 -1.91834e-07 -0.00396675)
(4.7649e-07 -1.92065e-07 -0.00383169)
(4.76771e-07 -1.92307e-07 -0.00372227)
(4.77074e-07 -1.92561e-07 -0.0036151)
(4.77399e-07 -1.92826e-07 -0.00350784)
(4.77744e-07 -1.93102e-07 -0.00340032)
(4.78111e-07 -1.93387e-07 -0.00329318)
(4.78497e-07 -1.93682e-07 -0.00319551)
(4.78902e-07 -1.93987e-07 -0.00310643)
(4.79326e-07 -1.943e-07 -0.00303291)
(4.79769e-07 -1.94622e-07 -0.00295958)
(4.80229e-07 -1.94953e-07 -0.00287863)
(4.80706e-07 -1.95291e-07 -0.00279427)
(4.812e-07 -1.95637e-07 -0.0027074)
(4.8171e-07 -1.95991e-07 -0.00261017)
(4.82236e-07 -1.96352e-07 -0.00251269)
(4.82778e-07 -1.96719e-07 -0.00241501)
(4.83335e-07 -1.97093e-07 -0.00231713)
(4.83906e-07 -1.97474e-07 -0.00221888)
(4.84491e-07 -1.9786e-07 -0.00212007)
(4.8509e-07 -1.98253e-07 -0.0020206)
(4.85702e-07 -1.98651e-07 -0.00192048)
(4.86328e-07 -1.99054e-07 -0.00182941)
(4.86966e-07 -1.99463e-07 -0.00174)
(4.87617e-07 -1.99876e-07 -0.00164982)
(4.88279e-07 -2.00294e-07 -0.00155883)
(4.88953e-07 -2.00717e-07 -0.00149835)
(4.89639e-07 -2.01143e-07 -0.0015259)
(4.90335e-07 -2.01575e-07 -0.0015535)
(4.91042e-07 -2.02009e-07 -0.00154935)
(4.9176e-07 -2.02448e-07 -0.00154852)
(4.92487e-07 -2.0289e-07 -0.00155114)
(4.93225e-07 -2.03336e-07 -0.00155771)
(4.93972e-07 -2.03785e-07 -0.00157878)
(4.94729e-07 -2.04237e-07 -0.00160139)
(4.95494e-07 -2.04693e-07 -0.00165303)
(4.96268e-07 -2.0515e-07 -0.00171897)
(5.60599e-07 -2.44177e-07 -0.0034758)
(5.55772e-07 -2.41173e-07 0.0020043)
(5.51158e-07 -2.38306e-07 0.00385642)
(5.46749e-07 -2.35586e-07 0.00404714)
(5.42538e-07 -2.33e-07 0.00348103)
(5.38514e-07 -2.30542e-07 0.00280228)
(5.34671e-07 -2.28208e-07 0.003071)
(5.30999e-07 -2.2599e-07 0.00343411)
(5.27493e-07 -2.23885e-07 0.00355298)
(5.24145e-07 -2.21886e-07 0.0023872)
(5.20948e-07 -2.19989e-07 0.000876056)
(5.17896e-07 -2.18189e-07 -0.000511449)
(5.14984e-07 -2.16482e-07 -0.00117551)
(5.12206e-07 -2.14864e-07 -0.000774092)
(5.09555e-07 -2.13331e-07 -0.000439268)
(5.07028e-07 -2.1188e-07 -0.000127822)
(5.0462e-07 -2.10506e-07 0.000202152)
(5.02325e-07 -2.09207e-07 0.000542696)
(5.00139e-07 -2.07979e-07 0.000203554)
(4.98059e-07 -2.06819e-07 -0.000148745)
(4.9608e-07 -2.05725e-07 -0.000549306)
(4.94198e-07 -2.04694e-07 -0.000952161)
(4.9241e-07 -2.03723e-07 -0.00128647)
(4.90712e-07 -2.02809e-07 -0.00160316)
(4.89102e-07 -2.01951e-07 -0.00191153)
(4.87575e-07 -2.01146e-07 -0.00219845)
(4.86128e-07 -2.00391e-07 -0.00242829)
(4.8476e-07 -1.99686e-07 -0.00251913)
(4.83467e-07 -1.99028e-07 -0.00271657)
(4.82246e-07 -1.98415e-07 -0.00295583)
(4.81095e-07 -1.97845e-07 -0.00318918)
(4.80012e-07 -1.97316e-07 -0.0034498)
(4.78993e-07 -1.96828e-07 -0.00372375)
(4.78038e-07 -1.96378e-07 -0.0039669)
(4.77144e-07 -1.95965e-07 -0.00417245)
(4.76308e-07 -1.95588e-07 -0.00419484)
(4.75529e-07 -1.95245e-07 -0.00417284)
(4.74805e-07 -1.94935e-07 -0.0041458)
(4.74134e-07 -1.94656e-07 -0.00410713)
(4.73514e-07 -1.94408e-07 -0.00405362)
(4.72944e-07 -1.94189e-07 -0.00400306)
(4.72422e-07 -1.93999e-07 -0.00395907)
(4.71947e-07 -1.93835e-07 -0.00391711)
(4.71516e-07 -1.93698e-07 -0.00388208)
(4.71129e-07 -1.93586e-07 -0.00384624)
(4.70784e-07 -1.93498e-07 -0.0038095)
(4.70481e-07 -1.93434e-07 -0.00377216)
(4.70216e-07 -1.93392e-07 -0.00373409)
(4.6999e-07 -1.93371e-07 -0.00369549)
(4.69802e-07 -1.93372e-07 -0.00365627)
(4.69649e-07 -1.93393e-07 -0.00361944)
(4.69531e-07 -1.93433e-07 -0.00358871)
(4.69447e-07 -1.93492e-07 -0.00355718)
(4.69396e-07 -1.93568e-07 -0.00352528)
(4.69377e-07 -1.93663e-07 -0.00349587)
(4.69389e-07 -1.93774e-07 -0.00346328)
(4.69431e-07 -1.93901e-07 -0.00342737)
(4.69501e-07 -1.94043e-07 -0.0033911)
(4.696e-07 -1.94201e-07 -0.00334641)
(4.69727e-07 -1.94373e-07 -0.00328742)
(4.6988e-07 -1.94558e-07 -0.00322788)
(4.70058e-07 -1.94758e-07 -0.00316806)
(4.70262e-07 -1.9497e-07 -0.00310795)
(4.7049e-07 -1.95195e-07 -0.00304748)
(4.70742e-07 -1.95431e-07 -0.00299877)
(4.71017e-07 -1.9568e-07 -0.00295388)
(4.71314e-07 -1.95939e-07 -0.00291238)
(4.71633e-07 -1.96209e-07 -0.0028702)
(4.71973e-07 -1.9649e-07 -0.00282736)
(4.72333e-07 -1.9678e-07 -0.00278388)
(4.72713e-07 -1.9708e-07 -0.00272944)
(4.73113e-07 -1.97389e-07 -0.00267067)
(4.73531e-07 -1.97707e-07 -0.00259805)
(4.73967e-07 -1.98034e-07 -0.00252314)
(4.74421e-07 -1.98369e-07 -0.00244632)
(4.74893e-07 -1.98712e-07 -0.00236922)
(4.75381e-07 -1.99062e-07 -0.00229175)
(4.75885e-07 -1.9942e-07 -0.00221388)
(4.76405e-07 -1.99785e-07 -0.00212458)
(4.76941e-07 -2.00157e-07 -0.00202325)
(4.77492e-07 -2.00535e-07 -0.00193285)
(4.78057e-07 -2.00919e-07 -0.00184235)
(4.78636e-07 -2.0131e-07 -0.00175126)
(4.79229e-07 -2.01706e-07 -0.00165964)
(4.79835e-07 -2.02107e-07 -0.00156752)
(4.80455e-07 -2.02514e-07 -0.00147486)
(4.81087e-07 -2.02927e-07 -0.00138152)
(4.81732e-07 -2.03344e-07 -0.00128734)
(4.82388e-07 -2.03765e-07 -0.00119224)
(4.83056e-07 -2.04192e-07 -0.00109633)
(4.83735e-07 -2.04622e-07 -0.00104898)
(4.84425e-07 -2.05057e-07 -0.00107307)
(4.85126e-07 -2.05495e-07 -0.00109861)
(4.85837e-07 -2.05937e-07 -0.00112594)
(4.86559e-07 -2.06383e-07 -0.00112639)
(4.8729e-07 -2.06832e-07 -0.00114158)
(4.88031e-07 -2.07284e-07 -0.00117153)
(4.88781e-07 -2.0774e-07 -0.00118864)
(4.89539e-07 -2.08198e-07 -0.00122807)
(4.90307e-07 -2.08658e-07 -0.00125894)
(5.55838e-07 -2.46065e-07 -0.00841199)
(5.50966e-07 -2.43131e-07 -0.00226043)
(5.4631e-07 -2.40329e-07 9.29405e-05)
(5.41862e-07 -2.37672e-07 0.00020395)
(5.37612e-07 -2.35144e-07 0.00128763)
(5.33553e-07 -2.32744e-07 0.00152021)
(5.29675e-07 -2.30463e-07 0.00136037)
(5.25971e-07 -2.28297e-07 0.00169906)
(5.22434e-07 -2.26241e-07 0.00179907)
(5.19056e-07 -2.24289e-07 0.00163366)
(5.15832e-07 -2.22437e-07 0.000157331)
(5.12753e-07 -2.2068e-07 -0.00114119)
(5.09815e-07 -2.19014e-07 -0.00194806)
(5.07013e-07 -2.17435e-07 -0.00216154)
(5.04339e-07 -2.1594e-07 -0.00171806)
(5.0179e-07 -2.14524e-07 -0.00130163)
(4.9936e-07 -2.13184e-07 -0.00113733)
(4.97045e-07 -2.11918e-07 -0.00135682)
(4.9484e-07 -2.10721e-07 -0.00156698)
(4.92741e-07 -2.09592e-07 -0.00175765)
(4.90744e-07 -2.08526e-07 -0.00197095)
(4.88845e-07 -2.07522e-07 -0.0021795)
(4.87041e-07 -2.06577e-07 -0.00237461)
(4.85328e-07 -2.05689e-07 -0.00255936)
(4.83702e-07 -2.04855e-07 -0.00273545)
(4.82161e-07 -2.04073e-07 -0.00290298)
(4.807e-07 -2.03341e-07 -0.00297565)
(4.79319e-07 -2.02657e-07 -0.00285977)
(4.78013e-07 -2.02019e-07 -0.00278237)
(4.7678e-07 -2.01425e-07 -0.00287765)
(4.75617e-07 -2.00874e-07 -0.00299473)
(4.74522e-07 -2.00363e-07 -0.00310451)
(4.73492e-07 -1.99892e-07 -0.00321498)
(4.72526e-07 -1.99459e-07 -0.00328856)
(4.71621e-07 -1.99062e-07 -0.00334959)
(4.70776e-07 -1.987e-07 -0.0034053)
(4.69987e-07 -1.98372e-07 -0.00343096)
(4.69253e-07 -1.98076e-07 -0.00344745)
(4.68573e-07 -1.97811e-07 -0.00345221)
(4.67945e-07 -1.97576e-07 -0.00344011)
(4.67366e-07 -1.9737e-07 -0.00341892)
(4.66835e-07 -1.97191e-07 -0.00339598)
(4.66352e-07 -1.9704e-07 -0.0033706)
(4.65913e-07 -1.96914e-07 -0.00333493)
(4.65518e-07 -1.96812e-07 -0.00328075)
(4.65166e-07 -1.96735e-07 -0.00321739)
(4.64854e-07 -1.96681e-07 -0.00315349)
(4.64583e-07 -1.96649e-07 -0.00308905)
(4.6435e-07 -1.96638e-07 -0.00302426)
(4.64154e-07 -1.96647e-07 -0.00295898)
(4.63994e-07 -1.96677e-07 -0.00289485)
(4.63869e-07 -1.96725e-07 -0.00283842)
(4.63779e-07 -1.96793e-07 -0.00278143)
(4.63721e-07 -1.96877e-07 -0.00272459)
(4.63695e-07 -1.96979e-07 -0.00266667)
(4.63701e-07 -1.97097e-07 -0.00260627)
(4.63736e-07 -1.97232e-07 -0.00254529)
(4.638e-07 -1.97381e-07 -0.00248419)
(4.63893e-07 -1.97546e-07 -0.00242241)
(4.64013e-07 -1.97724e-07 -0.00236025)
(4.6416e-07 -1.97916e-07 -0.00229764)
(4.64332e-07 -1.98122e-07 -0.00223455)
(4.6453e-07 -1.9834e-07 -0.00217112)
(4.64752e-07 -1.98571e-07 -0.00211822)
(4.64998e-07 -1.98813e-07 -0.00206771)
(4.65267e-07 -1.99067e-07 -0.00201704)
(4.65558e-07 -1.99332e-07 -0.00196966)
(4.65871e-07 -1.99607e-07 -0.00192378)
(4.66205e-07 -1.99893e-07 -0.00187719)
(4.66559e-07 -2.00188e-07 -0.00182986)
(4.66933e-07 -2.00493e-07 -0.00177933)
(4.67327e-07 -2.00807e-07 -0.00171612)
(4.67739e-07 -2.0113e-07 -0.00164044)
(4.6817e-07 -2.01461e-07 -0.00155927)
(4.68618e-07 -2.01801e-07 -0.00147768)
(4.69084e-07 -2.02148e-07 -0.00140392)
(4.69566e-07 -2.02503e-07 -0.00133141)
(4.70064e-07 -2.02865e-07 -0.00126552)
(4.70578e-07 -2.03234e-07 -0.00120204)
(4.71108e-07 -2.03609e-07 -0.00113819)
(4.71653e-07 -2.03992e-07 -0.00107414)
(4.72212e-07 -2.0438e-07 -0.00100985)
(4.72786e-07 -2.04774e-07 -0.000945254)
(4.73373e-07 -2.05174e-07 -0.000880494)
(4.73973e-07 -2.05579e-07 -0.000815783)
(4.74586e-07 -2.0599e-07 -0.000751096)
(4.75212e-07 -2.06406e-07 -0.000686249)
(4.75851e-07 -2.06827e-07 -0.000621224)
(4.76501e-07 -2.07252e-07 -0.000556126)
(4.77163e-07 -2.07682e-07 -0.000491062)
(4.77836e-07 -2.08116e-07 -0.000425992)
(4.7852e-07 -2.08554e-07 -0.00041815)
(4.79214e-07 -2.08996e-07 -0.000474009)
(4.79919e-07 -2.09442e-07 -0.000531457)
(4.80634e-07 -2.09891e-07 -0.000589776)
(4.81359e-07 -2.10343e-07 -0.000658842)
(4.82093e-07 -2.10799e-07 -0.000724889)
(4.82836e-07 -2.11257e-07 -0.000759723)
(4.83588e-07 -2.11719e-07 -0.000809142)
(4.84349e-07 -2.12183e-07 -0.000847969)
(5.51044e-07 -2.4794e-07 -0.0125323)
(5.46129e-07 -2.45075e-07 -0.00611335)
(5.41433e-07 -2.42341e-07 -0.00145647)
(5.36947e-07 -2.39747e-07 -7.05016e-05)
(5.32661e-07 -2.3728e-07 0.00133877)
(5.28567e-07 -2.34938e-07 0.00268265)
(5.24657e-07 -2.32712e-07 0.00270586)
(5.20922e-07 -2.30599e-07 0.00274496)
(5.17355e-07 -2.28593e-07 0.00240162)
(5.13949e-07 -2.26689e-07 0.00187716)
(5.10697e-07 -2.24882e-07 0.00133142)
(5.07593e-07 -2.23169e-07 0.000594131)
(5.04631e-07 -2.21545e-07 -5.49359e-05)
(5.01805e-07 -2.20006e-07 -0.000576869)
(4.99109e-07 -2.18549e-07 -0.000710923)
(4.96539e-07 -2.17169e-07 -0.000951134)
(4.94089e-07 -2.15865e-07 -0.00117876)
(4.91754e-07 -2.14631e-07 -0.00141503)
(4.89531e-07 -2.13467e-07 -0.00167165)
(4.87414e-07 -2.12368e-07 -0.00191271)
(4.854e-07 -2.11331e-07 -0.00214474)
(4.83485e-07 -2.10355e-07 -0.00241239)
(4.81665e-07 -2.09437e-07 -0.00263132)
(4.79937e-07 -2.08574e-07 -0.0026649)
(4.78297e-07 -2.07765e-07 -0.00262921)
(4.76741e-07 -2.07006e-07 -0.00259167)
(4.75268e-07 -2.06297e-07 -0.00255242)
(4.73873e-07 -2.05635e-07 -0.00255618)
(4.72555e-07 -2.05017e-07 -0.00248227)
(4.7131e-07 -2.04444e-07 -0.0024284)
(4.70136e-07 -2.03911e-07 -0.00253156)
(4.6903e-07 -2.0342e-07 -0.00262859)
(4.67989e-07 -2.02966e-07 -0.00268846)
(4.67013e-07 -2.0255e-07 -0.00270725)
(4.66098e-07 -2.02169e-07 -0.00272866)
(4.65243e-07 -2.01823e-07 -0.00274601)
(4.64445e-07 -2.01509e-07 -0.00275977)
(4.63702e-07 -2.01228e-07 -0.00274124)
(4.63013e-07 -2.00977e-07 -0.00271099)
(4.62376e-07 -2.00755e-07 -0.00266932)
(4.61788e-07 -2.00562e-07 -0.0026268)
(4.6125e-07 -2.00396e-07 -0.00258304)
(4.60758e-07 -2.00256e-07 -0.00253833)
(4.60312e-07 -2.00141e-07 -0.00249084)
(4.59909e-07 -2.00051e-07 -0.00243485)
(4.59549e-07 -1.99984e-07 -0.00237823)
(4.59231e-07 -1.9994e-07 -0.00232131)
(4.58952e-07 -1.99918e-07 -0.00226397)
(4.58712e-07 -1.99917e-07 -0.00220643)
(4.58509e-07 -1.99936e-07 -0.0021464)
(4.58342e-07 -1.99974e-07 -0.00208155)
(4.58211e-07 -2.00031e-07 -0.00202652)
(4.58114e-07 -2.00107e-07 -0.00197123)
(4.58049e-07 -2.00199e-07 -0.00191308)
(4.58017e-07 -2.00309e-07 -0.0018556)
(4.58016e-07 -2.00435e-07 -0.00179817)
(4.58045e-07 -2.00576e-07 -0.00174052)
(4.58103e-07 -2.00733e-07 -0.0016829)
(4.5819e-07 -2.00904e-07 -0.00162515)
(4.58304e-07 -2.01089e-07 -0.00156712)
(4.58444e-07 -2.01288e-07 -0.00150896)
(4.58611e-07 -2.015e-07 -0.00145071)
(4.58803e-07 -2.01724e-07 -0.00140143)
(4.59019e-07 -2.01961e-07 -0.00135654)
(4.59259e-07 -2.02209e-07 -0.00131149)
(4.59522e-07 -2.02468e-07 -0.0012664)
(4.59807e-07 -2.02738e-07 -0.00122136)
(4.60114e-07 -2.03019e-07 -0.0011791)
(4.60442e-07 -2.0331e-07 -0.00113834)
(4.6079e-07 -2.0361e-07 -0.00109694)
(4.61159e-07 -2.0392e-07 -0.00105836)
(4.61546e-07 -2.04239e-07 -0.00101724)
(4.61953e-07 -2.04567e-07 -0.000957784)
(4.62377e-07 -2.04903e-07 -0.000893)
(4.6282e-07 -2.05247e-07 -0.000827868)
(4.63279e-07 -2.05598e-07 -0.000762495)
(4.63756e-07 -2.05957e-07 -0.00069687)
(4.64248e-07 -2.06324e-07 -0.000630822)
(4.64756e-07 -2.06697e-07 -0.000564246)
(4.6528e-07 -2.07076e-07 -0.000497246)
(4.65819e-07 -2.07463e-07 -0.000430014)
(4.66373e-07 -2.07855e-07 -0.000362348)
(4.6694e-07 -2.08254e-07 -0.000294344)
(4.67521e-07 -2.08657e-07 -0.000226104)
(4.68114e-07 -2.09065e-07 -0.000157657)
(4.68722e-07 -2.0948e-07 -8.93992e-05)
(4.69342e-07 -2.099e-07 -2.08829e-05)
(4.69975e-07 -2.10325e-07 4.80203e-05)
(4.70619e-07 -2.10754e-07 0.000117176)
(4.71274e-07 -2.11187e-07 0.000186543)
(4.71941e-07 -2.11624e-07 0.000256166)
(4.72619e-07 -2.12066e-07 0.000325995)
(4.73307e-07 -2.12511e-07 0.000339687)
(4.74005e-07 -2.1296e-07 0.000291786)
(4.74714e-07 -2.13413e-07 0.000242403)
(4.75432e-07 -2.13869e-07 0.000183346)
(4.7616e-07 -2.14328e-07 0.000124231)
(4.76897e-07 -2.1479e-07 6.97181e-05)
(4.77642e-07 -2.15255e-07 -5.97259e-06)
(4.78397e-07 -2.15721e-07 -6.90046e-05)
(5.46217e-07 -2.498e-07 -0.0139199)
(5.41262e-07 -2.47008e-07 -0.00760203)
(5.36528e-07 -2.44341e-07 -0.00242537)
(5.32005e-07 -2.41812e-07 -2.52819e-05)
(5.27685e-07 -2.39407e-07 0.00141915)
(5.23558e-07 -2.37124e-07 0.00281953)
(5.19616e-07 -2.34954e-07 0.0036891)
(5.15852e-07 -2.32895e-07 0.0040951)
(5.12256e-07 -2.3094e-07 0.00391085)
(5.08823e-07 -2.29085e-07 0.00340999)
(5.05546e-07 -2.27325e-07 0.00288414)
(5.02418e-07 -2.25656e-07 0.00248728)
(4.99432e-07 -2.24074e-07 0.00267595)
(4.96584e-07 -2.22576e-07 0.0017887)
(4.93867e-07 -2.21158e-07 0.000262242)
(4.91276e-07 -2.19816e-07 -0.00109012)
(4.88806e-07 -2.18546e-07 -0.00138689)
(4.86453e-07 -2.17347e-07 -0.00165025)
(4.84212e-07 -2.16215e-07 -0.00190227)
(4.82078e-07 -2.15147e-07 -0.00214153)
(4.80048e-07 -2.1414e-07 -0.00219169)
(4.78118e-07 -2.13193e-07 -0.00223984)
(4.76283e-07 -2.12302e-07 -0.00229899)
(4.7454e-07 -2.11465e-07 -0.00228687)
(4.72886e-07 -2.10681e-07 -0.00221344)
(4.71318e-07 -2.09946e-07 -0.00213858)
(4.69831e-07 -2.0926e-07 -0.0020814)
(4.68425e-07 -2.08619e-07 -0.00207933)
(4.67094e-07 -2.08023e-07 -0.00204861)
(4.65838e-07 -2.0747e-07 -0.00198164)
(4.64653e-07 -2.06957e-07 -0.00194061)
(4.63536e-07 -2.06484e-07 -0.00198986)
(4.62486e-07 -2.06048e-07 -0.00200119)
(4.61499e-07 -2.05649e-07 -0.00200879)
(4.60575e-07 -2.05285e-07 -0.00202026)
(4.5971e-07 -2.04955e-07 -0.00203422)
(4.58903e-07 -2.04656e-07 -0.00204476)
(4.58151e-07 -2.0439e-07 -0.00204948)
(4.57454e-07 -2.04153e-07 -0.00201656)
(4.56808e-07 -2.03944e-07 -0.00197219)
(4.56213e-07 -2.03764e-07 -0.00192705)
(4.55666e-07 -2.03611e-07 -0.00188071)
(4.55167e-07 -2.03483e-07 -0.00183347)
(4.54713e-07 -2.0338e-07 -0.0017851)
(4.54303e-07 -2.03301e-07 -0.00173415)
(4.53936e-07 -2.03245e-07 -0.00167518)
(4.5361e-07 -2.03211e-07 -0.00161597)
(4.53324e-07 -2.03199e-07 -0.00155626)
(4.53077e-07 -2.03207e-07 -0.00149637)
(4.52867e-07 -2.03236e-07 -0.00143599)
(4.52694e-07 -2.03283e-07 -0.00137535)
(4.52556e-07 -2.03349e-07 -0.00132253)
(4.52453e-07 -2.03433e-07 -0.00126664)
(4.52382e-07 -2.03534e-07 -0.00121036)
(4.52344e-07 -2.03651e-07 -0.00115595)
(4.52336e-07 -2.03785e-07 -0.00110126)
(4.52359e-07 -2.03934e-07 -0.00104629)
(4.52411e-07 -2.04098e-07 -0.000990889)
(4.52491e-07 -2.04276e-07 -0.000935278)
(4.52599e-07 -2.04467e-07 -0.000879297)
(4.52734e-07 -2.04673e-07 -0.00082281)
(4.52895e-07 -2.04891e-07 -0.000773055)
(4.5308e-07 -2.05121e-07 -0.000729808)
(4.53291e-07 -2.05364e-07 -0.000686213)
(4.53525e-07 -2.05618e-07 -0.000642369)
(4.53782e-07 -2.05883e-07 -0.00059835)
(4.54061e-07 -2.06158e-07 -0.000559004)
(4.54362e-07 -2.06444e-07 -0.000525286)
(4.54684e-07 -2.0674e-07 -0.000492117)
(4.55027e-07 -2.07046e-07 -0.000461643)
(4.5539e-07 -2.07361e-07 -0.000430451)
(4.55771e-07 -2.07685e-07 -0.000394845)
(4.56172e-07 -2.08017e-07 -0.000335344)
(4.56591e-07 -2.08357e-07 -0.000267965)
(4.57027e-07 -2.08706e-07 -0.000200321)
(4.57481e-07 -2.09062e-07 -0.000132331)
(4.57951e-07 -2.09426e-07 -6.39539e-05)
(4.58438e-07 -2.09796e-07 4.88473e-06)
(4.58939e-07 -2.10174e-07 7.42201e-05)
(4.59458e-07 -2.10558e-07 0.000144232)
(4.59993e-07 -2.10948e-07 0.00021458)
(4.60539e-07 -2.11345e-07 0.00028516)
(4.611e-07 -2.11747e-07 0.000356273)
(4.61675e-07 -2.12155e-07 0.000427768)
(4.62262e-07 -2.12567e-07 0.000499091)
(4.62865e-07 -2.12984e-07 0.000570903)
(4.6348e-07 -2.13407e-07 0.000643248)
(4.64105e-07 -2.13835e-07 0.000715627)
(4.64743e-07 -2.14268e-07 0.00078854)
(4.65392e-07 -2.14705e-07 0.00086171)
(4.66052e-07 -2.15146e-07 0.000935229)
(4.66723e-07 -2.15591e-07 0.00100914)
(4.67405e-07 -2.1604e-07 0.00108363)
(4.68097e-07 -2.16493e-07 0.00111734)
(4.688e-07 -2.16948e-07 0.0010695)
(4.69511e-07 -2.17408e-07 0.00101291)
(4.70232e-07 -2.1787e-07 0.000955873)
(4.70963e-07 -2.18335e-07 0.000908139)
(4.71702e-07 -2.18804e-07 0.000843944)
(4.7245e-07 -2.19273e-07 0.000792507)
(5.41359e-07 -2.51647e-07 -0.0152704)
(5.36365e-07 -2.48927e-07 -0.00906171)
(5.31595e-07 -2.46329e-07 -0.00408352)
(5.27037e-07 -2.43867e-07 -0.00109031)
(5.22684e-07 -2.41525e-07 0.00124732)
(5.18525e-07 -2.39301e-07 0.00290294)
(5.14554e-07 -2.37189e-07 0.00388618)
(5.10761e-07 -2.35184e-07 0.00477664)
(5.07139e-07 -2.33281e-07 0.0054204)
(5.0368e-07 -2.31476e-07 0.004943)
(5.00378e-07 -2.29764e-07 0.00444413)
(4.97226e-07 -2.2814e-07 0.00398052)
(4.94219e-07 -2.26602e-07 0.00320908)
(4.91349e-07 -2.25145e-07 0.0023259)
(4.88612e-07 -2.23766e-07 0.00144117)
(4.86002e-07 -2.22462e-07 -2.9716e-05)
(4.83514e-07 -2.21229e-07 -0.00139107)
(4.81143e-07 -2.20064e-07 -0.0015117)
(4.78885e-07 -2.18965e-07 -0.00152931)
(4.76735e-07 -2.17928e-07 -0.00154185)
(4.74689e-07 -2.16952e-07 -0.00154924)
(4.72744e-07 -2.16034e-07 -0.00155202)
(4.70895e-07 -2.15171e-07 -0.00155561)
(4.69138e-07 -2.14361e-07 -0.00155439)
(4.67471e-07 -2.13601e-07 -0.0015321)
(4.6589e-07 -2.12891e-07 -0.00146709)
(4.64392e-07 -2.12228e-07 -0.00143355)
(4.62973e-07 -2.1161e-07 -0.00142723)
(4.61632e-07 -2.11036e-07 -0.00141749)
(4.60365e-07 -2.10503e-07 -0.00139167)
(4.59169e-07 -2.1001e-07 -0.00133615)
(4.58042e-07 -2.09556e-07 -0.00129243)
(4.56982e-07 -2.09138e-07 -0.00131114)
(4.55986e-07 -2.08757e-07 -0.00131515)
(4.55052e-07 -2.08409e-07 -0.00131594)
(4.54178e-07 -2.08095e-07 -0.00131968)
(4.53362e-07 -2.07812e-07 -0.00132695)
(4.52602e-07 -2.0756e-07 -0.00133095)
(4.51897e-07 -2.07338e-07 -0.00132023)
(4.51243e-07 -2.07143e-07 -0.00127313)
(4.5064e-07 -2.06976e-07 -0.00122527)
(4.50086e-07 -2.06835e-07 -0.00117625)
(4.49579e-07 -2.0672e-07 -0.00112644)
(4.49117e-07 -2.06629e-07 -0.00107558)
(4.487e-07 -2.06561e-07 -0.00102411)
(4.48326e-07 -2.06516e-07 -0.000969959)
(4.47993e-07 -2.06493e-07 -0.000908414)
(4.47701e-07 -2.06491e-07 -0.000846366)
(4.47447e-07 -2.06509e-07 -0.000784109)
(4.47231e-07 -2.06547e-07 -0.000721497)
(4.47051e-07 -2.06604e-07 -0.000658001)
(4.46907e-07 -2.06678e-07 -0.000585624)
(4.46797e-07 -2.06771e-07 -0.000514974)
(4.4672e-07 -2.0688e-07 -0.000445622)
(4.46675e-07 -2.07005e-07 -0.000378566)