/*--------------------------------*- C++ -*----------------------------------*\
| =========                 |                                                 |
| \\      /  F ield         | foam-extend: Open Source CFD                    |
|  \\    /   O peration     | Version:     4.1                                |
|   \\  /    A nd           | Web:         http://www.foam-extend.org         |
|    \\/     M anipulation  |                                                 |
\*---------------------------------------------------------------------------*/
FoamFile
{
    version     2.0;
    format      ascii;
    class       regIOobject;
    location    "6/uniform";
    object      profilingInfo;
}
// * * * * * * * * * * * * * * * * * * * * * * * * * * * * * * * * * * * * * //

profilingInfo
(

    {
        id              9;
        parentId        8;
        description     "Foam::Time::writeObject - outputTime";
        calls           6;
        totalTime       3.74736;
        childTime       0;
        onStack         1;
    }

    {
        id              8;
        parentId        1;
        description     "Foam::Time::writeObject";
        calls           6;
        totalTime       3.7475;
        childTime       3.74736;
        onStack         1;
    }

    {
        id              1;
        description     "application::main";
        calls           1;
        totalTime       582.399;
        childTime       490.762;
        onStack         1;
    }

    {
        id              10;
        parentId        1;
        description     "FO::forceDisp1::execute";
        calls           5;
        totalTime       0.000294;
        childTime       0;
        onStack         0;
    }

    {
        id              3;
        parentId        2;
        description     "FO::forceDisp1::start";
        calls           1;
        totalTime       6.9e-05;
        childTime       0;
        onStack         0;
    }

    {
        id              11;
        parentId        1;
        description     "FO::pointDisp::execute";
        calls           5;
        totalTime       8.6e-05;
        childTime       0;
        onStack         0;
    }

    {
        id              4;
        parentId        2;
        description     "FO::pointDisp::start";
        calls           1;
        totalTime       4e-06;
        childTime       0;
        onStack         0;
    }

    {
        id              2;
        parentId        1;
        description     "functionObjectList::read";
        calls           1;
        totalTime       0.001503;
        childTime       7.3e-05;
        onStack         0;
    }

    {
        id              5;
        parentId        1;
        description     "fvMatrix::solve_D";
        calls           1308;
        totalTime       487.013;
        childTime       484.652;
        onStack         0;
    }

    {
        id              6;
        parentId        5;
        description     "lduMatrix::solver_Dx";
        calls           1308;
        totalTime       221.948;
        childTime       0;
        onStack         0;
    }

    {
        id              7;
        parentId        5;
        description     "lduMatrix::solver_Dy";
        calls           1308;
        totalTime       262.704;
        childTime       0;
        onStack         0;
    }
);


// ************************************************************************* //
