/*--------------------------------*- C++ -*----------------------------------*\
| =========                 |                                                 |
| \\      /  F ield         | foam-extend: Open Source CFD                    |
|  \\    /   O peration     | Version:     4.1                                |
|   \\  /    A nd           | Web:         http://www.foam-extend.org         |
|    \\/     M anipulation  |                                                 |
\*---------------------------------------------------------------------------*/
FoamFile
{
    version     2.0;
    format      ascii;
    class       volVectorField;
    location    "1";
    object      D;
}
// * * * * * * * * * * * * * * * * * * * * * * * * * * * * * * * * * * * * * //

dimensions      [0 1 0 0 0 0 0];

internalField   nonuniform List<vector> 
100000
(
(5.74679e-07 -2.38421e-07 0)
(5.69995e-07 -2.3522e-07 0)
(5.65517e-07 -2.32165e-07 0)
(5.61237e-07 -2.29266e-07 0)
(5.57148e-07 -2.26508e-07 0)
(5.53241e-07 -2.23889e-07 0)
(5.49509e-07 -2.21399e-07 0)
(5.45943e-07 -2.19033e-07 0)
(5.42537e-07 -2.16786e-07 0)
(5.39285e-07 -2.14652e-07 0)
(5.36179e-07 -2.12626e-07 0)
(5.33214e-07 -2.10703e-07 0)
(5.30385e-07 -2.08879e-07 0)
(5.27686e-07 -2.07149e-07 0)
(5.25111e-07 -2.05509e-07 0)
(5.22656e-07 -2.03954e-07 0)
(5.20316e-07 -2.02482e-07 0)
(5.18087e-07 -2.01089e-07 0)
(5.15964e-07 -1.99771e-07 0)
(5.13944e-07 -1.98526e-07 0)
(5.12023e-07 -1.97349e-07 0)
(5.10196e-07 -1.96239e-07 0)
(5.08461e-07 -1.95192e-07 0)
(5.06814e-07 -1.94206e-07 0)
(5.05252e-07 -1.93279e-07 0)
(5.03772e-07 -1.92407e-07 0)
(5.0237e-07 -1.91589e-07 0)
(5.01045e-07 -1.90823e-07 0)
(4.99793e-07 -1.90106e-07 0)
(4.98613e-07 -1.89436e-07 0)
(4.975e-07 -1.88812e-07 0)
(4.96454e-07 -1.88232e-07 0)
(4.95472e-07 -1.87695e-07 0)
(4.94551e-07 -1.87196e-07 0)
(4.9369e-07 -1.86737e-07 0)
(4.92886e-07 -1.86316e-07 0)
(4.92139e-07 -1.8593e-07 0)
(4.91445e-07 -1.85579e-07 0)
(4.90803e-07 -1.85261e-07 0)
(4.90212e-07 -1.84975e-07 0)
(4.8967e-07 -1.8472e-07 0)
(4.89175e-07 -1.84494e-07 0)
(4.88726e-07 -1.84297e-07 0)
(4.88321e-07 -1.84127e-07 0)
(4.87959e-07 -1.83983e-07 0)
(4.87639e-07 -1.83865e-07 0)
(4.87359e-07 -1.83771e-07 0)
(4.87118e-07 -1.83701e-07 0)
(4.86915e-07 -1.83653e-07 0)
(4.86748e-07 -1.83627e-07 0)
(4.86617e-07 -1.83622e-07 0)
(4.86521e-07 -1.83638e-07 0)
(4.86458e-07 -1.83672e-07 0)
(4.86428e-07 -1.83726e-07 0)
(4.86429e-07 -1.83798e-07 0)
(4.86461e-07 -1.83887e-07 0)
(4.86523e-07 -1.83993e-07 0)
(4.86613e-07 -1.84115e-07 0)
(4.86732e-07 -1.84253e-07 0)
(4.86877e-07 -1.84405e-07 0)
(4.8705e-07 -1.84572e-07 0)
(4.87247e-07 -1.84754e-07 0)
(4.8747e-07 -1.84948e-07 0)
(4.87716e-07 -1.85155e-07 0)
(4.87987e-07 -1.85375e-07 0)
(4.8828e-07 -1.85607e-07 0)
(4.88595e-07 -1.85851e-07 0)
(4.88932e-07 -1.86105e-07 0)
(4.8929e-07 -1.8637e-07 0)
(4.89668e-07 -1.86646e-07 0)
(4.90066e-07 -1.86931e-07 0)
(4.90484e-07 -1.87226e-07 0)
(4.9092e-07 -1.87531e-07 0)
(4.91374e-07 -1.87844e-07 0)
(4.91846e-07 -1.88165e-07 0)
(4.92335e-07 -1.88495e-07 0)
(4.92841e-07 -1.88833e-07 0)
(4.93363e-07 -1.89178e-07 0)
(4.93901e-07 -1.8953e-07 0)
(4.94455e-07 -1.8989e-07 0)
(4.95023e-07 -1.90256e-07 0)
(4.95606e-07 -1.90628e-07 0)
(4.96204e-07 -1.91007e-07 0)
(4.96815e-07 -1.91392e-07 0)
(4.97439e-07 -1.91782e-07 0)
(4.98077e-07 -1.92178e-07 0)
(4.98727e-07 -1.92579e-07 0)
(4.9939e-07 -1.92985e-07 0)
(5.00064e-07 -1.93396e-07 0)
(5.00751e-07 -1.93812e-07 0)
(5.01448e-07 -1.94231e-07 0)
(5.02157e-07 -1.94655e-07 0)
(5.02877e-07 -1.95083e-07 0)
(5.03607e-07 -1.95515e-07 0)
(5.04347e-07 -1.9595e-07 0)
(5.05098e-07 -1.96389e-07 0)
(5.05857e-07 -1.96831e-07 0)
(5.06627e-07 -1.97277e-07 0)
(5.07406e-07 -1.97725e-07 0)
(5.08195e-07 -1.98177e-07 0)
(5.70017e-07 -2.40351e-07 0)
(5.65283e-07 -2.37214e-07 0)
(5.60758e-07 -2.34221e-07 0)
(5.56434e-07 -2.3138e-07 0)
(5.52303e-07 -2.28678e-07 0)
(5.48355e-07 -2.26111e-07 0)
(5.44585e-07 -2.23672e-07 0)
(5.40982e-07 -2.21354e-07 0)
(5.37542e-07 -2.19153e-07 0)
(5.34256e-07 -2.17063e-07 0)
(5.31119e-07 -2.15079e-07 0)
(5.28125e-07 -2.13197e-07 0)
(5.25267e-07 -2.11411e-07 0)
(5.2254e-07 -2.09717e-07 0)
(5.19939e-07 -2.08112e-07 0)
(5.17459e-07 -2.06591e-07 0)
(5.15095e-07 -2.05151e-07 0)
(5.12844e-07 -2.03789e-07 0)
(5.10699e-07 -2.025e-07 0)
(5.08658e-07 -2.01283e-07 0)
(5.06717e-07 -2.00133e-07 0)
(5.04871e-07 -1.99049e-07 0)
(5.03118e-07 -1.98026e-07 0)
(5.01453e-07 -1.97064e-07 0)
(4.99874e-07 -1.96159e-07 0)
(4.98378e-07 -1.95309e-07 0)
(4.96961e-07 -1.94512e-07 0)
(4.95621e-07 -1.93765e-07 0)
(4.94355e-07 -1.93068e-07 0)
(4.93161e-07 -1.92416e-07 0)
(4.92035e-07 -1.9181e-07 0)
(4.90977e-07 -1.91246e-07 0)
(4.89981e-07 -1.90725e-07 0)
(4.89047e-07 -1.90244e-07 0)
(4.88176e-07 -1.898e-07 0)
(4.87361e-07 -1.89393e-07 0)
(4.86603e-07 -1.89021e-07 0)
(4.85899e-07 -1.88683e-07 0)
(4.85247e-07 -1.88378e-07 0)
(4.84646e-07 -1.88104e-07 0)
(4.84094e-07 -1.87861e-07 0)
(4.8359e-07 -1.87646e-07 0)
(4.83132e-07 -1.8746e-07 0)
(4.82718e-07 -1.87301e-07 0)
(4.82348e-07 -1.87168e-07 0)
(4.82019e-07 -1.87059e-07 0)
(4.81731e-07 -1.86975e-07 0)
(4.81482e-07 -1.86914e-07 0)
(4.81271e-07 -1.86875e-07 0)
(4.81097e-07 -1.86858e-07 0)
(4.80959e-07 -1.86862e-07 0)
(4.80856e-07 -1.86885e-07 0)
(4.80786e-07 -1.86928e-07 0)
(4.80748e-07 -1.86989e-07 0)
(4.80743e-07 -1.87068e-07 0)
(4.80768e-07 -1.87165e-07 0)
(4.80823e-07 -1.87277e-07 0)
(4.80906e-07 -1.87406e-07 0)
(4.81018e-07 -1.87551e-07 0)
(4.81157e-07 -1.8771e-07 0)
(4.81323e-07 -1.87883e-07 0)
(4.81514e-07 -1.8807e-07 0)
(4.81731e-07 -1.8827e-07 0)
(4.81971e-07 -1.88483e-07 0)
(4.82235e-07 -1.88709e-07 0)
(4.82522e-07 -1.88946e-07 0)
(4.82831e-07 -1.89195e-07 0)
(4.83162e-07 -1.89455e-07 0)
(4.83514e-07 -1.89725e-07 0)
(4.83886e-07 -1.90005e-07 0)
(4.84278e-07 -1.90296e-07 0)
(4.84689e-07 -1.90595e-07 0)
(4.8512e-07 -1.90904e-07 0)
(4.85568e-07 -1.91222e-07 0)
(4.86034e-07 -1.91548e-07 0)
(4.86517e-07 -1.91882e-07 0)
(4.87017e-07 -1.92224e-07 0)
(4.87533e-07 -1.92573e-07 0)
(4.88065e-07 -1.9293e-07 0)
(4.88613e-07 -1.93293e-07 0)
(4.89176e-07 -1.93663e-07 0)
(4.89753e-07 -1.9404e-07 0)
(4.90344e-07 -1.94423e-07 0)
(4.90949e-07 -1.94811e-07 0)
(4.91567e-07 -1.95205e-07 0)
(4.92199e-07 -1.95605e-07 0)
(4.92843e-07 -1.9601e-07 0)
(4.935e-07 -1.96419e-07 0)
(4.94168e-07 -1.96834e-07 0)
(4.94849e-07 -1.97253e-07 0)
(4.9554e-07 -1.97676e-07 0)
(4.96243e-07 -1.98104e-07 0)
(4.96956e-07 -1.98535e-07 0)
(4.9768e-07 -1.9897e-07 0)
(4.98414e-07 -1.99409e-07 0)
(4.99158e-07 -1.99852e-07 0)
(4.99912e-07 -2.00297e-07 0)
(5.00675e-07 -2.00746e-07 0)
(5.01447e-07 -2.01198e-07 0)
(5.02228e-07 -2.01652e-07 0)
(5.65321e-07 -2.42267e-07 0)
(5.6054e-07 -2.39196e-07 0)
(5.55969e-07 -2.36265e-07 0)
(5.51602e-07 -2.33484e-07 0)
(5.4743e-07 -2.30839e-07 0)
(5.43444e-07 -2.28327e-07 0)
(5.39636e-07 -2.25939e-07 0)
(5.35999e-07 -2.23671e-07 0)
(5.32525e-07 -2.21517e-07 0)
(5.29207e-07 -2.19472e-07 0)
(5.2604e-07 -2.17531e-07 0)
(5.23016e-07 -2.1569e-07 0)
(5.20131e-07 -2.13943e-07 0)
(5.17377e-07 -2.12287e-07 0)
(5.14751e-07 -2.10717e-07 0)
(5.12248e-07 -2.09231e-07 0)
(5.09861e-07 -2.07824e-07 0)
(5.07587e-07 -2.06493e-07 0)
(5.05422e-07 -2.05234e-07 0)
(5.03361e-07 -2.04045e-07 0)
(5.014e-07 -2.02923e-07 0)
(4.99536e-07 -2.01865e-07 0)
(4.97765e-07 -2.00868e-07 0)
(4.96084e-07 -1.9993e-07 0)
(4.94489e-07 -1.99048e-07 0)
(4.92977e-07 -1.9822e-07 0)
(4.91545e-07 -1.97444e-07 0)
(4.90191e-07 -1.96718e-07 0)
(4.88911e-07 -1.9604e-07 0)
(4.87703e-07 -1.95408e-07 0)
(4.86565e-07 -1.94819e-07 0)
(4.85493e-07 -1.94273e-07 0)
(4.84486e-07 -1.93768e-07 0)
(4.83542e-07 -1.93302e-07 0)
(4.82659e-07 -1.92874e-07 0)
(4.81833e-07 -1.92481e-07 0)
(4.81064e-07 -1.92124e-07 0)
(4.8035e-07 -1.918e-07 0)
(4.79689e-07 -1.91508e-07 0)
(4.79078e-07 -1.91247e-07 0)
(4.78517e-07 -1.91016e-07 0)
(4.78004e-07 -1.90813e-07 0)
(4.77537e-07 -1.90638e-07 0)
(4.77115e-07 -1.9049e-07 0)
(4.76736e-07 -1.90367e-07 0)
(4.76399e-07 -1.90269e-07 0)
(4.76103e-07 -1.90194e-07 0)
(4.75846e-07 -1.90143e-07 0)
(4.75628e-07 -1.90113e-07 0)
(4.75447e-07 -1.90105e-07 0)
(4.75301e-07 -1.90117e-07 0)
(4.7519e-07 -1.90149e-07 0)
(4.75113e-07 -1.90199e-07 0)
(4.75069e-07 -1.90268e-07 0)
(4.75057e-07 -1.90355e-07 0)
(4.75075e-07 -1.90459e-07 0)
(4.75123e-07 -1.90579e-07 0)
(4.752e-07 -1.90714e-07 0)
(4.75306e-07 -1.90865e-07 0)
(4.75438e-07 -1.9103e-07 0)
(4.75598e-07 -1.9121e-07 0)
(4.75783e-07 -1.91403e-07 0)
(4.75993e-07 -1.91609e-07 0)
(4.76227e-07 -1.91828e-07 0)
(4.76485e-07 -1.92059e-07 0)
(4.76766e-07 -1.92302e-07 0)
(4.77069e-07 -1.92556e-07 0)
(4.77394e-07 -1.92821e-07 0)
(4.7774e-07 -1.93096e-07 0)
(4.78106e-07 -1.93382e-07 0)
(4.78492e-07 -1.93677e-07 0)
(4.78897e-07 -1.93982e-07 0)
(4.79321e-07 -1.94295e-07 0)
(4.79764e-07 -1.94617e-07 0)
(4.80224e-07 -1.94948e-07 0)
(4.80701e-07 -1.95286e-07 0)
(4.81195e-07 -1.95632e-07 0)
(4.81705e-07 -1.95986e-07 0)
(4.82232e-07 -1.96347e-07 0)
(4.82773e-07 -1.96714e-07 0)
(4.8333e-07 -1.97088e-07 0)
(4.83901e-07 -1.97469e-07 0)
(4.84486e-07 -1.97855e-07 0)
(4.85085e-07 -1.98248e-07 0)
(4.85698e-07 -1.98645e-07 0)
(4.86323e-07 -1.99049e-07 0)
(4.86961e-07 -1.99457e-07 0)
(4.87612e-07 -1.99871e-07 0)
(4.88274e-07 -2.00289e-07 0)
(4.88948e-07 -2.00712e-07 0)
(4.89634e-07 -2.01138e-07 0)
(4.9033e-07 -2.01569e-07 0)
(4.91038e-07 -2.02004e-07 0)
(4.91755e-07 -2.02443e-07 0)
(4.92483e-07 -2.02885e-07 0)
(4.9322e-07 -2.03331e-07 0)
(4.93968e-07 -2.0378e-07 0)
(4.94724e-07 -2.04232e-07 0)
(4.95489e-07 -2.04688e-07 0)
(4.96264e-07 -2.05145e-07 0)
(5.60592e-07 -2.44169e-07 0)
(5.55765e-07 -2.41166e-07 0)
(5.51151e-07 -2.38299e-07 0)
(5.46742e-07 -2.35579e-07 0)
(5.42531e-07 -2.32992e-07 0)
(5.38507e-07 -2.30535e-07 0)
(5.34664e-07 -2.28201e-07 0)
(5.30993e-07 -2.25983e-07 0)
(5.27487e-07 -2.23878e-07 0)
(5.24138e-07 -2.21879e-07 0)
(5.20942e-07 -2.19982e-07 0)
(5.1789e-07 -2.18182e-07 0)
(5.14978e-07 -2.16475e-07 0)
(5.122e-07 -2.14858e-07 0)
(5.09549e-07 -2.13325e-07 0)
(5.07022e-07 -2.11873e-07 0)
(5.04614e-07 -2.105e-07 0)
(5.02319e-07 -2.092e-07 0)
(5.00133e-07 -2.07972e-07 0)
(4.98053e-07 -2.06813e-07 0)
(4.96074e-07 -2.05719e-07 0)
(4.94192e-07 -2.04688e-07 0)
(4.92404e-07 -2.03716e-07 0)
(4.90707e-07 -2.02803e-07 0)
(4.89096e-07 -2.01945e-07 0)
(4.87569e-07 -2.0114e-07 0)
(4.86123e-07 -2.00385e-07 0)
(4.84755e-07 -1.9968e-07 0)
(4.83461e-07 -1.99022e-07 0)
(4.82241e-07 -1.98409e-07 0)
(4.8109e-07 -1.97839e-07 0)
(4.80006e-07 -1.97311e-07 0)
(4.78988e-07 -1.96822e-07 0)
(4.78033e-07 -1.96372e-07 0)
(4.77138e-07 -1.9596e-07 0)
(4.76303e-07 -1.95582e-07 0)
(4.75524e-07 -1.95239e-07 0)
(4.748e-07 -1.94929e-07 0)
(4.74129e-07 -1.94651e-07 0)
(4.73509e-07 -1.94402e-07 0)
(4.72939e-07 -1.94184e-07 0)
(4.72417e-07 -1.93993e-07 0)
(4.71941e-07 -1.9383e-07 0)
(4.71511e-07 -1.93692e-07 0)
(4.71124e-07 -1.9358e-07 0)
(4.70779e-07 -1.93492e-07 0)
(4.70476e-07 -1.93428e-07 0)
(4.70211e-07 -1.93386e-07 0)
(4.69985e-07 -1.93366e-07 0)
(4.69797e-07 -1.93366e-07 0)
(4.69644e-07 -1.93387e-07 0)
(4.69526e-07 -1.93427e-07 0)
(4.69442e-07 -1.93486e-07 0)
(4.69391e-07 -1.93563e-07 0)
(4.69372e-07 -1.93657e-07 0)
(4.69384e-07 -1.93768e-07 0)
(4.69426e-07 -1.93895e-07 0)
(4.69496e-07 -1.94038e-07 0)
(4.69595e-07 -1.94195e-07 0)
(4.69722e-07 -1.94367e-07 0)
(4.69875e-07 -1.94553e-07 0)
(4.70054e-07 -1.94752e-07 0)
(4.70257e-07 -1.94965e-07 0)
(4.70486e-07 -1.95189e-07 0)
(4.70737e-07 -1.95426e-07 0)
(4.71012e-07 -1.95674e-07 0)
(4.71309e-07 -1.95934e-07 0)
(4.71628e-07 -1.96204e-07 0)
(4.71968e-07 -1.96484e-07 0)
(4.72328e-07 -1.96775e-07 0)
(4.72708e-07 -1.97075e-07 0)
(4.73108e-07 -1.97384e-07 0)
(4.73526e-07 -1.97702e-07 0)
(4.73962e-07 -1.98029e-07 0)
(4.74417e-07 -1.98364e-07 0)
(4.74888e-07 -1.98707e-07 0)
(4.75376e-07 -1.99057e-07 0)
(4.75881e-07 -1.99415e-07 0)
(4.76401e-07 -1.9978e-07 0)
(4.76936e-07 -2.00151e-07 0)
(4.77487e-07 -2.0053e-07 0)
(4.78052e-07 -2.00914e-07 0)
(4.78632e-07 -2.01304e-07 0)
(4.79225e-07 -2.017e-07 0)
(4.79831e-07 -2.02102e-07 0)
(4.8045e-07 -2.02509e-07 0)
(4.81082e-07 -2.02921e-07 0)
(4.81727e-07 -2.03339e-07 0)
(4.82383e-07 -2.0376e-07 0)
(4.83051e-07 -2.04187e-07 0)
(4.83731e-07 -2.04617e-07 0)
(4.84421e-07 -2.05051e-07 0)
(4.85122e-07 -2.0549e-07 0)
(4.85833e-07 -2.05932e-07 0)
(4.86554e-07 -2.06378e-07 0)
(4.87285e-07 -2.06827e-07 0)
(4.88026e-07 -2.07279e-07 0)
(4.88776e-07 -2.07735e-07 0)
(4.89534e-07 -2.08193e-07 0)
(4.90302e-07 -2.08653e-07 0)
(5.55831e-07 -2.46058e-07 0)
(5.50959e-07 -2.43123e-07 0)
(5.46303e-07 -2.40322e-07 0)
(5.41855e-07 -2.37664e-07 0)
(5.37606e-07 -2.35137e-07 0)
(5.33546e-07 -2.32737e-07 0)
(5.29669e-07 -2.30456e-07 0)
(5.25965e-07 -2.2829e-07 0)
(5.22428e-07 -2.26234e-07 0)
(5.1905e-07 -2.24282e-07 0)
(5.15825e-07 -2.2243e-07 0)
(5.12747e-07 -2.20673e-07 0)
(5.09809e-07 -2.19007e-07 0)
(5.07006e-07 -2.17429e-07 0)
(5.04333e-07 -2.15933e-07 0)
(5.01784e-07 -2.14517e-07 0)
(4.99354e-07 -2.13178e-07 0)
(4.97039e-07 -2.11911e-07 0)
(4.94834e-07 -2.10715e-07 0)
(4.92735e-07 -2.09585e-07 0)
(4.90738e-07 -2.0852e-07 0)
(4.8884e-07 -2.07516e-07 0)
(4.87035e-07 -2.06571e-07 0)
(4.85322e-07 -2.05682e-07 0)
(4.83696e-07 -2.04848e-07 0)
(4.82155e-07 -2.04066e-07 0)
(4.80695e-07 -2.03334e-07 0)
(4.79313e-07 -2.0265e-07 0)
(4.78007e-07 -2.02012e-07 0)
(4.76774e-07 -2.01419e-07 0)
(4.75611e-07 -2.00868e-07 0)
(4.74516e-07 -2.00357e-07 0)
(4.73487e-07 -1.99886e-07 0)
(4.72521e-07 -1.99453e-07 0)
(4.71616e-07 -1.99056e-07 0)
(4.7077e-07 -1.98694e-07 0)
(4.69982e-07 -1.98366e-07 0)
(4.69248e-07 -1.9807e-07 0)
(4.68568e-07 -1.97805e-07 0)
(4.67939e-07 -1.9757e-07 0)
(4.67361e-07 -1.97364e-07 0)
(4.6683e-07 -1.97186e-07 0)
(4.66347e-07 -1.97034e-07 0)
(4.65908e-07 -1.96908e-07 0)
(4.65513e-07 -1.96807e-07 0)
(4.65161e-07 -1.96729e-07 0)
(4.64849e-07 -1.96675e-07 0)
(4.64578e-07 -1.96643e-07 0)
(4.64345e-07 -1.96632e-07 0)
(4.64149e-07 -1.96642e-07 0)
(4.63989e-07 -1.96671e-07 0)
(4.63865e-07 -1.9672e-07 0)
(4.63774e-07 -1.96787e-07 0)
(4.63716e-07 -1.96872e-07 0)
(4.6369e-07 -1.96973e-07 0)
(4.63696e-07 -1.97092e-07 0)
(4.63731e-07 -1.97226e-07 0)
(4.63795e-07 -1.97376e-07 0)
(4.63888e-07 -1.9754e-07 0)
(4.64008e-07 -1.97718e-07 0)
(4.64155e-07 -1.97911e-07 0)
(4.64328e-07 -1.98116e-07 0)
(4.64525e-07 -1.98335e-07 0)
(4.64748e-07 -1.98565e-07 0)
(4.64993e-07 -1.98807e-07 0)
(4.65262e-07 -1.99061e-07 0)
(4.65553e-07 -1.99326e-07 0)
(4.65866e-07 -1.99602e-07 0)
(4.662e-07 -1.99887e-07 0)
(4.66555e-07 -2.00183e-07 0)
(4.66929e-07 -2.00488e-07 0)
(4.67322e-07 -2.00802e-07 0)
(4.67735e-07 -2.01124e-07 0)
(4.68165e-07 -2.01456e-07 0)
(4.68613e-07 -2.01795e-07 0)
(4.69079e-07 -2.02142e-07 0)
(4.69561e-07 -2.02497e-07 0)
(4.7006e-07 -2.02859e-07 0)
(4.70574e-07 -2.03228e-07 0)
(4.71104e-07 -2.03604e-07 0)
(4.71649e-07 -2.03986e-07 0)
(4.72208e-07 -2.04375e-07 0)
(4.72781e-07 -2.04769e-07 0)
(4.73368e-07 -2.05169e-07 0)
(4.73968e-07 -2.05574e-07 0)
(4.74581e-07 -2.05985e-07 0)
(4.75208e-07 -2.06401e-07 0)
(4.75846e-07 -2.06822e-07 0)
(4.76496e-07 -2.07247e-07 0)
(4.77158e-07 -2.07677e-07 0)
(4.77831e-07 -2.08111e-07 0)
(4.78515e-07 -2.08549e-07 0)
(4.7921e-07 -2.08991e-07 0)
(4.79915e-07 -2.09436e-07 0)
(4.80629e-07 -2.09886e-07 0)
(4.81354e-07 -2.10338e-07 0)
(4.82088e-07 -2.10794e-07 0)
(4.82832e-07 -2.11252e-07 0)
(4.83584e-07 -2.11714e-07 0)
(4.84345e-07 -2.12178e-07 0)
(5.51037e-07 -2.47932e-07 0)
(5.46122e-07 -2.45068e-07 0)
(5.41427e-07 -2.42333e-07 0)
(5.3694e-07 -2.3974e-07 0)
(5.32655e-07 -2.37273e-07 0)
(5.28561e-07 -2.34931e-07 0)
(5.2465e-07 -2.32705e-07 0)
(5.20916e-07 -2.30592e-07 0)
(5.17349e-07 -2.28586e-07 0)
(5.13943e-07 -2.26682e-07 0)
(5.10691e-07 -2.24875e-07 0)
(5.07587e-07 -2.23162e-07 0)
(5.04625e-07 -2.21538e-07 0)
(5.01799e-07 -2.19999e-07 0)
(4.99103e-07 -2.18542e-07 0)
(4.96533e-07 -2.17163e-07 0)
(4.94083e-07 -2.15858e-07 0)
(4.91748e-07 -2.14625e-07 0)
(4.89525e-07 -2.1346e-07 0)
(4.87408e-07 -2.12361e-07 0)
(4.85394e-07 -2.11325e-07 0)
(4.83479e-07 -2.10349e-07 0)
(4.8166e-07 -2.09431e-07 0)
(4.79931e-07 -2.08568e-07 0)
(4.78291e-07 -2.07759e-07 0)
(4.76736e-07 -2.07e-07 0)
(4.75262e-07 -2.06291e-07 0)
(4.73868e-07 -2.05628e-07 0)
(4.7255e-07 -2.05011e-07 0)
(4.71305e-07 -2.04437e-07 0)
(4.7013e-07 -2.03905e-07 0)
(4.69024e-07 -2.03413e-07 0)
(4.67984e-07 -2.0296e-07 0)
(4.67008e-07 -2.02544e-07 0)
(4.66093e-07 -2.02163e-07 0)
(4.65238e-07 -2.01817e-07 0)
(4.64439e-07 -2.01503e-07 0)
(4.63697e-07 -2.01222e-07 0)
(4.63008e-07 -2.00971e-07 0)
(4.62371e-07 -2.00749e-07 0)
(4.61783e-07 -2.00556e-07 0)
(4.61245e-07 -2.0039e-07 0)
(4.60753e-07 -2.0025e-07 0)
(4.60307e-07 -2.00135e-07 0)
(4.59904e-07 -2.00045e-07 0)
(4.59544e-07 -1.99979e-07 0)
(4.59226e-07 -1.99934e-07 0)
(4.58947e-07 -1.99912e-07 0)
(4.58707e-07 -1.99911e-07 0)
(4.58504e-07 -1.9993e-07 0)
(4.58337e-07 -1.99968e-07 0)
(4.58206e-07 -2.00025e-07 0)
(4.58109e-07 -2.00101e-07 0)
(4.58045e-07 -2.00194e-07 0)
(4.58012e-07 -2.00303e-07 0)
(4.58011e-07 -2.00429e-07 0)
(4.5804e-07 -2.00571e-07 0)
(4.58098e-07 -2.00727e-07 0)
(4.58185e-07 -2.00898e-07 0)
(4.58299e-07 -2.01084e-07 0)
(4.5844e-07 -2.01282e-07 0)
(4.58606e-07 -2.01494e-07 0)
(4.58798e-07 -2.01719e-07 0)
(4.59014e-07 -2.01955e-07 0)
(4.59254e-07 -2.02203e-07 0)
(4.59517e-07 -2.02463e-07 0)
(4.59802e-07 -2.02733e-07 0)
(4.60109e-07 -2.03014e-07 0)
(4.60437e-07 -2.03304e-07 0)
(4.60786e-07 -2.03605e-07 0)
(4.61154e-07 -2.03915e-07 0)
(4.61542e-07 -2.04234e-07 0)
(4.61948e-07 -2.04561e-07 0)
(4.62373e-07 -2.04897e-07 0)
(4.62815e-07 -2.05241e-07 0)
(4.63275e-07 -2.05593e-07 0)
(4.63751e-07 -2.05952e-07 0)
(4.64244e-07 -2.06318e-07 0)
(4.64752e-07 -2.06691e-07 0)
(4.65276e-07 -2.07071e-07 0)
(4.65815e-07 -2.07458e-07 0)
(4.66368e-07 -2.0785e-07 0)
(4.66935e-07 -2.08248e-07 0)
(4.67516e-07 -2.08652e-07 0)
(4.68109e-07 -2.0906e-07 0)
(4.68718e-07 -2.09475e-07 0)
(4.69338e-07 -2.09895e-07 0)
(4.6997e-07 -2.10319e-07 0)
(4.70614e-07 -2.10748e-07 0)
(4.7127e-07 -2.11182e-07 0)
(4.71937e-07 -2.11619e-07 0)
(4.72614e-07 -2.12061e-07 0)
(4.73302e-07 -2.12506e-07 0)
(4.74001e-07 -2.12955e-07 0)
(4.74709e-07 -2.13408e-07 0)
(4.75428e-07 -2.13863e-07 0)
(4.76155e-07 -2.14323e-07 0)
(4.76892e-07 -2.14784e-07 0)
(4.77638e-07 -2.1525e-07 0)
(4.78392e-07 -2.15716e-07 0)
(5.4621e-07 -2.49793e-07 0)
(5.41255e-07 -2.47e-07 0)
(5.36521e-07 -2.44334e-07 0)
(5.31998e-07 -2.41805e-07 0)
(5.27678e-07 -2.394e-07 0)
(5.23551e-07 -2.37116e-07 0)
(5.1961e-07 -2.34947e-07 0)
(5.15845e-07 -2.32888e-07 0)
(5.1225e-07 -2.30933e-07 0)
(5.08817e-07 -2.29078e-07 0)
(5.0554e-07 -2.27318e-07 0)
(5.02412e-07 -2.25649e-07 0)
(4.99426e-07 -2.24068e-07 0)
(4.96578e-07 -2.22569e-07 0)
(4.93861e-07 -2.21151e-07 0)
(4.9127e-07 -2.19809e-07 0)
(4.88801e-07 -2.1854e-07 0)
(4.86448e-07 -2.1734e-07 0)
(4.84206e-07 -2.16208e-07 0)
(4.82073e-07 -2.1514e-07 0)
(4.80043e-07 -2.14134e-07 0)
(4.78112e-07 -2.13186e-07 0)
(4.76277e-07 -2.12295e-07 0)
(4.74535e-07 -2.11459e-07 0)
(4.72881e-07 -2.10674e-07 0)
(4.71312e-07 -2.0994e-07 0)
(4.69826e-07 -2.09253e-07 0)
(4.68419e-07 -2.08613e-07 0)
(4.67089e-07 -2.08017e-07 0)
(4.65833e-07 -2.07464e-07 0)
(4.64647e-07 -2.06951e-07 0)
(4.63531e-07 -2.06478e-07 0)
(4.62481e-07 -2.06042e-07 0)
(4.61494e-07 -2.05643e-07 0)
(4.6057e-07 -2.05279e-07 0)
(4.59705e-07 -2.04948e-07 0)
(4.58898e-07 -2.0465e-07 0)
(4.58146e-07 -2.04383e-07 0)
(4.57449e-07 -2.04147e-07 0)
(4.56803e-07 -2.03938e-07 0)
(4.56208e-07 -2.03758e-07 0)
(4.55661e-07 -2.03605e-07 0)
(4.55162e-07 -2.03477e-07 0)
(4.54708e-07 -2.03374e-07 0)
(4.54298e-07 -2.03295e-07 0)
(4.53931e-07 -2.03239e-07 0)
(4.53605e-07 -2.03205e-07 0)
(4.53319e-07 -2.03193e-07 0)
(4.53072e-07 -2.03202e-07 0)
(4.52863e-07 -2.0323e-07 0)
(4.5269e-07 -2.03277e-07 0)
(4.52552e-07 -2.03343e-07 0)
(4.52448e-07 -2.03427e-07 0)
(4.52377e-07 -2.03528e-07 0)
(4.52339e-07 -2.03646e-07 0)
(4.52331e-07 -2.03779e-07 0)
(4.52354e-07 -2.03928e-07 0)
(4.52406e-07 -2.04092e-07 0)
(4.52487e-07 -2.0427e-07 0)
(4.52595e-07 -2.04462e-07 0)
(4.52729e-07 -2.04667e-07 0)
(4.5289e-07 -2.04885e-07 0)
(4.53076e-07 -2.05116e-07 0)
(4.53286e-07 -2.05358e-07 0)
(4.5352e-07 -2.05612e-07 0)
(4.53777e-07 -2.05877e-07 0)
(4.54057e-07 -2.06153e-07 0)
(4.54358e-07 -2.06439e-07 0)
(4.5468e-07 -2.06735e-07 0)
(4.55022e-07 -2.0704e-07 0)
(4.55385e-07 -2.07355e-07 0)
(4.55767e-07 -2.07679e-07 0)
(4.56167e-07 -2.08011e-07 0)
(4.56586e-07 -2.08352e-07 0)
(4.57023e-07 -2.087e-07 0)
(4.57476e-07 -2.09057e-07 0)
(4.57947e-07 -2.0942e-07 0)
(4.58433e-07 -2.09791e-07 0)
(4.58934e-07 -2.10169e-07 0)
(4.59454e-07 -2.10552e-07 0)
(4.59989e-07 -2.10942e-07 0)
(4.60534e-07 -2.11339e-07 0)
(4.61096e-07 -2.11741e-07 0)
(4.6167e-07 -2.1215e-07 0)
(4.62257e-07 -2.12562e-07 0)
(4.6286e-07 -2.12978e-07 0)
(4.63476e-07 -2.13402e-07 0)
(4.64101e-07 -2.1383e-07 0)
(4.64738e-07 -2.14263e-07 0)
(4.65387e-07 -2.147e-07 0)
(4.66048e-07 -2.15141e-07 0)
(4.66719e-07 -2.15586e-07 0)
(4.67401e-07 -2.16035e-07 0)
(4.68093e-07 -2.16487e-07 0)
(4.68795e-07 -2.16943e-07 0)
(4.69507e-07 -2.17402e-07 0)
(4.70228e-07 -2.17865e-07 0)
(4.70959e-07 -2.1833e-07 0)
(4.71697e-07 -2.18798e-07 0)
(4.72446e-07 -2.19268e-07 0)
(5.41352e-07 -2.51639e-07 0)
(5.36358e-07 -2.48919e-07 0)
(5.31588e-07 -2.46322e-07 0)
(5.2703e-07 -2.43859e-07 0)
(5.22677e-07 -2.41517e-07 0)
(5.18519e-07 -2.39294e-07 0)
(5.14548e-07 -2.37182e-07 0)
(5.10755e-07 -2.35177e-07 0)
(5.07132e-07 -2.33274e-07 0)
(5.03674e-07 -2.31469e-07 0)
(5.00372e-07 -2.29756e-07 0)
(4.9722e-07 -2.28133e-07 0)
(4.94213e-07 -2.26595e-07 0)
(4.91343e-07 -2.25138e-07 0)
(4.88606e-07 -2.23759e-07 0)
(4.85996e-07 -2.22455e-07 0)
(4.83508e-07 -2.21222e-07 0)
(4.81137e-07 -2.20057e-07 0)
(4.78879e-07 -2.18958e-07 0)
(4.7673e-07 -2.17922e-07 0)
(4.74684e-07 -2.16946e-07 0)
(4.72739e-07 -2.16027e-07 0)
(4.70889e-07 -2.15164e-07 0)
(4.69133e-07 -2.14354e-07 0)
(4.67466e-07 -2.13595e-07 0)
(4.65885e-07 -2.12885e-07 0)
(4.64387e-07 -2.12222e-07 0)
(4.62968e-07 -2.11604e-07 0)
(4.61627e-07 -2.11029e-07 0)
(4.60359e-07 -2.10496e-07 0)
(4.59164e-07 -2.10004e-07 0)
(4.58037e-07 -2.09549e-07 0)
(4.56977e-07 -2.09132e-07 0)
(4.55981e-07 -2.0875e-07 0)
(4.55047e-07 -2.08403e-07 0)
(4.54173e-07 -2.08089e-07 0)
(4.53357e-07 -2.07806e-07 0)
(4.52598e-07 -2.07554e-07 0)
(4.51892e-07 -2.07331e-07 0)
(4.51238e-07 -2.07137e-07 0)
(4.50635e-07 -2.0697e-07 0)
(4.50081e-07 -2.06829e-07 0)
(4.49574e-07 -2.06714e-07 0)
(4.49113e-07 -2.06623e-07 0)
(4.48696e-07 -2.06555e-07 0)
(4.48321e-07 -2.0651e-07 0)
(4.47989e-07 -2.06487e-07 0)
(4.47696e-07 -2.06485e-07 0)
(4.47442e-07 -2.06503e-07 0)
(4.47226e-07 -2.06541e-07 0)
(4.47047e-07 -2.06598e-07 0)
(4.46902e-07 -2.06672e-07 0)
(4.46792e-07 -2.06765e-07 0)
(4.46715e-07 -2.06874e-07 0)
(4.46671e-07 -2.06999e-07 0)
(4.46657e-07 -2.07141e-07 0)
(4.46674e-07 -2.07297e-07 0)
(4.4672e-07 -2.07468e-07 0)
(4.46794e-07 -2.07653e-07 0)
(4.46896e-07 -2.07852e-07 0)
(4.47025e-07 -2.08064e-07 0)
(4.4718e-07 -2.08288e-07 0)
(4.4736e-07 -2.08525e-07 0)
(4.47564e-07 -2.08773e-07 0)
(4.47793e-07 -2.09033e-07 0)
(4.48044e-07 -2.09304e-07 0)
(4.48317e-07 -2.09585e-07 0)
(4.48613e-07 -2.09876e-07 0)
(4.48929e-07 -2.10178e-07 0)
(4.49266e-07 -2.10488e-07 0)
(4.49623e-07 -2.10808e-07 0)
(4.49999e-07 -2.11137e-07 0)
(4.50394e-07 -2.11474e-07 0)
(4.50807e-07 -2.11819e-07 0)
(4.51237e-07 -2.12172e-07 0)
(4.51685e-07 -2.12533e-07 0)
(4.5215e-07 -2.12901e-07 0)
(4.5263e-07 -2.13275e-07 0)
(4.53127e-07 -2.13657e-07 0)
(4.53639e-07 -2.14045e-07 0)
(4.54166e-07 -2.14439e-07 0)
(4.54707e-07 -2.1484e-07 0)
(4.55263e-07 -2.15246e-07 0)
(4.55832e-07 -2.15658e-07 0)
(4.56415e-07 -2.16076e-07 0)
(4.5701e-07 -2.16497e-07 0)
(4.57617e-07 -2.16923e-07 0)
(4.58237e-07 -2.17354e-07 0)
(4.58868e-07 -2.1779e-07 0)
(4.59511e-07 -2.18231e-07 0)
(4.60166e-07 -2.18675e-07 0)
(4.60831e-07 -2.19124e-07 0)
(4.61506e-07 -2.19576e-07 0)
(4.62192e-07 -2.20032e-07 0)
(4.62888e-07 -2.20491e-07 0)
(4.63593e-07 -2.20954e-07 0)
(4.64308e-07 -2.21419e-07 0)
(4.65032e-07 -2.21888e-07 0)
(4.65764e-07 -2.22359e-07 0)
(4.66506e-07 -2.22832e-07 0)
(5.36462e-07 -2.53471e-07 0)
(5.31432e-07 -2.50825e-07 0)
(5.26627e-07 -2.48298e-07 0)
(5.22036e-07 -2.45903e-07 0)
(5.17652e-07 -2.43625e-07 0)
(5.13463e-07 -2.41463e-07 0)
(5.09464e-07 -2.39409e-07 0)
(5.05644e-07 -2.3746e-07 0)
(5.01996e-07 -2.3561e-07 0)
(4.98513e-07 -2.33855e-07 0)
(4.95188e-07 -2.32191e-07 0)
(4.92014e-07 -2.30614e-07 0)
(4.88986e-07 -2.2912e-07 0)
(4.86096e-07 -2.27705e-07 0)
(4.8334e-07 -2.26367e-07 0)
(4.80711e-07 -2.25101e-07 0)
(4.78206e-07 -2.23904e-07 0)
(4.75818e-07 -2.22775e-07 0)
(4.73544e-07 -2.21709e-07 0)
(4.71379e-07 -2.20705e-07 0)
(4.69319e-07 -2.1976e-07 0)
(4.67359e-07 -2.18871e-07 0)
(4.65497e-07 -2.18036e-07 0)
(4.63727e-07 -2.17253e-07 0)
(4.62048e-07 -2.1652e-07 0)
(4.60455e-07 -2.15835e-07 0)
(4.58945e-07 -2.15195e-07 0)
(4.57515e-07 -2.146e-07 0)
(4.56163e-07 -2.14047e-07 0)
(4.54885e-07 -2.13535e-07 0)
(4.53679e-07 -2.13063e-07 0)
(4.52543e-07 -2.12628e-07 0)
(4.51473e-07 -2.12229e-07 0)
(4.50469e-07 -2.11865e-07 0)
(4.49526e-07 -2.11535e-07 0)
(4.48644e-07 -2.11237e-07 0)
(4.47819e-07 -2.1097e-07 0)
(4.47051e-07 -2.10733e-07 0)
(4.46338e-07 -2.10525e-07 0)
(4.45676e-07 -2.10344e-07 0)
(4.45066e-07 -2.10191e-07 0)
(4.44504e-07 -2.10063e-07 0)
(4.4399e-07 -2.0996e-07 0)
(4.43521e-07 -2.09881e-07 0)
(4.43098e-07 -2.09825e-07 0)
(4.42717e-07 -2.09791e-07 0)
(4.42377e-07 -2.09778e-07 0)
(4.42078e-07 -2.09787e-07 0)
(4.41818e-07 -2.09815e-07 0)
(4.41595e-07 -2.09862e-07 0)
(4.41409e-07 -2.09928e-07 0)
(4.41259e-07 -2.10012e-07 0)
(4.41143e-07 -2.10113e-07 0)
(4.4106e-07 -2.1023e-07 0)
(4.41009e-07 -2.10364e-07 0)
(4.4099e-07 -2.10513e-07 0)
(4.41e-07 -2.10677e-07 0)
(4.4104e-07 -2.10855e-07 0)
(4.41109e-07 -2.11047e-07 0)
(4.41205e-07 -2.11253e-07 0)
(4.41328e-07 -2.11471e-07 0)
(4.41477e-07 -2.11702e-07 0)
(4.41651e-07 -2.11945e-07 0)
(4.4185e-07 -2.12199e-07 0)
(4.42072e-07 -2.12465e-07 0)
(4.42318e-07 -2.12741e-07 0)
(4.42586e-07 -2.13028e-07 0)
(4.42875e-07 -2.13325e-07 0)
(4.43186e-07 -2.13632e-07 0)
(4.43517e-07 -2.13947e-07 0)
(4.43868e-07 -2.14272e-07 0)
(4.44238e-07 -2.14606e-07 0)
(4.44627e-07 -2.14948e-07 0)
(4.45035e-07 -2.15297e-07 0)
(4.4546e-07 -2.15655e-07 0)
(4.45902e-07 -2.1602e-07 0)
(4.4636e-07 -2.16392e-07 0)
(4.46835e-07 -2.16771e-07 0)
(4.47326e-07 -2.17157e-07 0)
(4.47832e-07 -2.1755e-07 0)
(4.48353e-07 -2.17948e-07 0)
(4.48889e-07 -2.18352e-07 0)
(4.49438e-07 -2.18762e-07 0)
(4.50001e-07 -2.19178e-07 0)
(4.50577e-07 -2.19598e-07 0)
(4.51166e-07 -2.20024e-07 0)
(4.51768e-07 -2.20455e-07 0)
(4.52381e-07 -2.2089e-07 0)
(4.53007e-07 -2.21329e-07 0)
(4.53643e-07 -2.21773e-07 0)
(4.54291e-07 -2.22221e-07 0)
(4.5495e-07 -2.22673e-07 0)
(4.55619e-07 -2.23129e-07 0)
(4.56299e-07 -2.23588e-07 0)
(4.56988e-07 -2.2405e-07 0)
(4.57687e-07 -2.24516e-07 0)
(4.58395e-07 -2.24985e-07 0)
(4.59112e-07 -2.25457e-07 0)
(4.59838e-07 -2.25932e-07 0)
(4.60573e-07 -2.26408e-07 0)
(5.31541e-07 -2.55288e-07 0)
(5.26476e-07 -2.52718e-07 0)
(5.21638e-07 -2.50262e-07 0)
(5.17016e-07 -2.47935e-07 0)
(5.12602e-07 -2.45723e-07 0)
(5.08386e-07 -2.43622e-07 0)
(5.04359e-07 -2.41628e-07 0)
(5.00514e-07 -2.39735e-07 0)
(4.96842e-07 -2.37939e-07 0)
(4.93336e-07 -2.36236e-07 0)
(4.89989e-07 -2.34621e-07 0)
(4.86794e-07 -2.33091e-07 0)
(4.83746e-07 -2.31642e-07 0)
(4.80837e-07 -2.3027e-07 0)
(4.78062e-07 -2.28972e-07 0)
(4.75417e-07 -2.27745e-07 0)
(4.72895e-07 -2.26586e-07 0)
(4.70491e-07 -2.25493e-07 0)
(4.68202e-07 -2.24461e-07 0)
(4.66022e-07 -2.2349e-07 0)
(4.63948e-07 -2.22576e-07 0)
(4.61975e-07 -2.21717e-07 0)
(4.601e-07 -2.2091e-07 0)
(4.58318e-07 -2.20155e-07 0)
(4.56627e-07 -2.19448e-07 0)
(4.55022e-07 -2.18788e-07 0)
(4.53501e-07 -2.18173e-07 0)
(4.52061e-07 -2.17601e-07 0)
(4.50699e-07 -2.1707e-07 0)
(4.49411e-07 -2.16579e-07 0)
(4.48196e-07 -2.16127e-07 0)
(4.4705e-07 -2.15712e-07 0)
(4.45972e-07 -2.15332e-07 0)
(4.44958e-07 -2.14986e-07 0)
(4.44007e-07 -2.14673e-07 0)
(4.43117e-07 -2.14391e-07 0)
(4.42284e-07 -2.1414e-07 0)
(4.41509e-07 -2.13919e-07 0)
(4.40787e-07 -2.13725e-07 0)
(4.40118e-07 -2.13559e-07 0)
(4.39501e-07 -2.13419e-07 0)
(4.38932e-07 -2.13304e-07 0)
(4.38411e-07 -2.13214e-07 0)
(4.37936e-07 -2.13147e-07 0)
(4.37505e-07 -2.13103e-07 0)
(4.37117e-07 -2.1308e-07 0)
(4.36772e-07 -2.13078e-07 0)
(4.36466e-07 -2.13097e-07 0)
(4.362e-07 -2.13135e-07 0)
(4.35971e-07 -2.13192e-07 0)
(4.35779e-07 -2.13268e-07 0)
(4.35622e-07 -2.1336e-07 0)
(4.355e-07 -2.1347e-07 0)
(4.35411e-07 -2.13596e-07 0)
(4.35354e-07 -2.13738e-07 0)
(4.35329e-07 -2.13895e-07 0)
(4.35334e-07 -2.14066e-07 0)
(4.35368e-07 -2.14252e-07 0)
(4.35431e-07 -2.14451e-07 0)
(4.35521e-07 -2.14663e-07 0)
(4.35639e-07 -2.14889e-07 0)
(4.35782e-07 -2.15126e-07 0)
(4.35951e-07 -2.15375e-07 0)
(4.36144e-07 -2.15636e-07 0)
(4.36361e-07 -2.15907e-07 0)
(4.366e-07 -2.16189e-07 0)
(4.36863e-07 -2.16482e-07 0)
(4.37146e-07 -2.16784e-07 0)
(4.37451e-07 -2.17096e-07 0)
(4.37777e-07 -2.17417e-07 0)
(4.38122e-07 -2.17747e-07 0)
(4.38487e-07 -2.18085e-07 0)
(4.3887e-07 -2.18432e-07 0)
(4.39271e-07 -2.18786e-07 0)
(4.39691e-07 -2.19148e-07 0)
(4.40127e-07 -2.19518e-07 0)
(4.4058e-07 -2.19895e-07 0)
(4.41049e-07 -2.20278e-07 0)
(4.41534e-07 -2.20668e-07 0)
(4.42034e-07 -2.21064e-07 0)
(4.42549e-07 -2.21467e-07 0)
(4.43078e-07 -2.21875e-07 0)
(4.43622e-07 -2.22289e-07 0)
(4.44179e-07 -2.22708e-07 0)
(4.44749e-07 -2.23133e-07 0)
(4.45332e-07 -2.23562e-07 0)
(4.45927e-07 -2.23996e-07 0)
(4.46534e-07 -2.24435e-07 0)
(4.47154e-07 -2.24878e-07 0)
(4.47784e-07 -2.25326e-07 0)
(4.48426e-07 -2.25777e-07 0)
(4.49078e-07 -2.26232e-07 0)
(4.49741e-07 -2.26691e-07 0)
(4.50414e-07 -2.27154e-07 0)
(4.51097e-07 -2.2762e-07 0)
(4.51789e-07 -2.28089e-07 0)
(4.52491e-07 -2.28561e-07 0)
(4.53202e-07 -2.29036e-07 0)
(4.53921e-07 -2.29515e-07 0)
(4.54649e-07 -2.29994e-07 0)
(5.26589e-07 -2.5709e-07 0)
(5.21491e-07 -2.54597e-07 0)
(5.16622e-07 -2.52214e-07 0)
(5.1197e-07 -2.49957e-07 0)
(5.07529e-07 -2.4781e-07 0)
(5.03286e-07 -2.45773e-07 0)
(4.99234e-07 -2.43839e-07 0)
(4.95365e-07 -2.42003e-07 0)
(4.9167e-07 -2.40262e-07 0)
(4.88142e-07 -2.38611e-07 0)
(4.84775e-07 -2.37046e-07 0)
(4.8156e-07 -2.35564e-07 0)