# Time dispX dispY dispZ forceX forceY forceZ
0 0 0 0 0 0 0
1 1.06775e-06 -8.15503e-08 1.075e-23 100000 -0.000379338 3.58966e-19
2 2.1355e-06 -1.63101e-07 2.15e-23 200000 -0.00063115 7.15802e-19
