/*--------------------------------*- C++ -*----------------------------------*\
| =========                 |                                                 |
| \\      /  F ield         | foam-extend: Open Source CFD                    |
|  \\    /   O peration     | Version:     4.1                                |
|   \\  /    A nd           | Web:         http://www.foam-extend.org         |
|    \\/     M anipulation  |                                                 |
\*---------------------------------------------------------------------------*/
FoamFile
{
    version     2.0;
    format      ascii;
    class       pointVectorField;
    location    "1";
    object      pointD;
}
// * * * * * * * * * * * * * * * * * * * * * * * * * * * * * * * * * * * * * //

dimensions      [0 1 0 0 0 0 0];

internalField   nonuniform List<vector> 
2142
(
(5.813806534553179e-07 -2.414520144516792e-07 -1.986260415057155e-23)
(5.418685034499355e-07 -2.141093832541416e-07 0)
(5.176639139563007e-07 -1.986768696758941e-07 0)
(5.027104306475172e-07 -1.895585348804143e-07 0)
(4.945347747681989e-07 -1.850893737793709e-07 0)
(4.911525957923815e-07 -1.836231048110249e-07 0)
(4.913049395206039e-07 -1.842861497839949e-07 0)
(4.94095939981264e-07 -1.864082848012572e-07 0)
(4.988833150459929e-07 -1.89555138167295e-07 0)
(5.052062469469391e-07 -1.934255881603061e-07 0)
(5.129170581822013e-07 -1.97957944348075e-07 0)
(5.334591035901231e-07 -2.600574305105037e-07 3.098884904003608e-23)
(4.905802625906417e-07 -2.384068287039802e-07 0)
(4.642743747563257e-07 -2.265926490098172e-07 0)
(4.479442455107912e-07 -2.198235863530489e-07 0)
(4.387885563284891e-07 -2.169348133596034e-07 0)
(4.346564101044596e-07 -2.16544139370082e-07 0)
(4.341693485604284e-07 -2.179751513982607e-07 0)
(4.363766374046718e-07 -2.206534358612107e-07 0)
(4.405734508437563e-07 -2.242432517532024e-07 0)
(4.46305526702313e-07 -2.284333652070786e-07 0)
(4.531148567630716e-07 -2.331932031532271e-07 0)
(4.823672091911697e-07 -2.771200597350693e-07 -4.393812609869411e-23)
(4.37744660223212e-07 -2.621201196333173e-07 0)
(4.103416902182363e-07 -2.545118104833729e-07 0)
(3.932722268403251e-07 -2.504661600438454e-07 0)
(3.835329036465417e-07 -2.493922265862973e-07 0)
(3.788846756681002e-07 -2.502235753301405e-07 0)
(3.778838057349571e-07 -2.525128286041697e-07 0)
(3.79546686085071e-07 -2.558068126741895e-07 0)
(3.831482906988118e-07 -2.598760168879061e-07 0)
(3.881883659638956e-07 -2.644156443806469e-07 0)
(3.942272105959464e-07 -2.695528361654038e-07 0)
(4.284263874477942e-07 -2.925158378131629e-07 3.949785329421379e-23)
(3.83848885583277e-07 -2.847452727957911e-07 0)
(3.564552788487841e-07 -2.816931821039092e-07 0)
(3.393494347313703e-07 -2.805920449690466e-07 0)
(3.294660467034516e-07 -2.814667935920509e-07 0)
(3.245672766889963e-07 -2.835976888719537e-07 0)
(3.232046018506823e-07 -2.867836875409201e-07 0)
(3.244004921528231e-07 -2.907086878404585e-07 0)
(3.274417761533714e-07 -2.952507415860677e-07 0)
(3.318228577500674e-07 -3.001538284502704e-07 0)
(3.371757716917326e-07 -3.056002454299166e-07 0)
(3.71968935493061e-07 -3.061278995197759e-07 1.020016832969633e-22)
(3.292972988396762e-07 -3.057554288786177e-07 0)
(3.030632340985336e-07 -3.07355052041967e-07 0)
(2.866518182569064e-07 -3.092568393003373e-07 0)
(2.770826365746452e-07 -3.121106553592526e-07 0)
(2.722126250726178e-07 -3.155544580596063e-07 0)
(2.706523532318175e-07 -3.196372802148861e-07 0)
(2.714692680489614e-07 -3.241876116107648e-07 0)
(2.739939254621516e-07 -3.291881016565954e-07 0)
(2.777347313864661e-07 -3.344501800531703e-07 0)
(2.824033495109805e-07 -3.401845295613413e-07 0)
(3.133374138053267e-07 -3.178473198402591e-07 2.282555349768132e-23)
(2.744064635447663e-07 -3.246234172074955e-07 0)
(2.504650848943725e-07 -3.307100271334391e-07 0)
(2.354680316978459e-07 -3.355060914890035e-07 0)
(2.266648046044675e-07 -3.402618762946421e-07 0)
(2.220997240535179e-07 -3.449631262130707e-07 0)
(2.205039134560419e-07 -3.498995718460335e-07 0)
(2.210290088394325e-07 -3.550428602381435e-07 0)
(2.230746234548954e-07 -3.604737390922404e-07 0)
(2.261857890661338e-07 -3.660801234443169e-07 0)
(2.301451709482532e-07 -3.720777812924185e-07 0)
(2.528822144993892e-07 -3.275770269521788e-07 -4.069071121428283e-23)
(2.194029574164675e-07 -3.408487539331399e-07 0)
(1.988097982072341e-07 -3.510073739809247e-07 0)
(1.858974470405505e-07 -3.584288893721281e-07 0)
(1.782808547409517e-07 -3.649069386172088e-07 0)
(1.742779769788611e-07 -3.70744802996047e-07 0)
(1.727972875136584e-07 -3.764502645463542e-07 0)
(1.731104337691568e-07 -3.82127344181327e-07 0)
(1.747085476630401e-07 -3.879436644106682e-07 0)
(1.771941138263614e-07 -3.938637881231004e-07 0)
(1.804120985050212e-07 -4.000929675131905e-07 0)
(1.909607963865285e-07 -3.352327148232585e-07 3.462629793537015e-24)
(1.644287350747384e-07 -3.539807360412536e-07 0)
(1.481053361001603e-07 -3.675693433579927e-07 0)
(1.378625949807672e-07 -3.77201989981223e-07 0)
(1.317994412553833e-07 -3.85129018856568e-07 0)
(1.28582834169381e-07 -3.919223842131919e-07 0)
(1.273477141818373e-07 -3.982733435352271e-07 0)
(1.275173939266801e-07 -4.043990327937674e-07 0)
(1.286930923953587e-07 -4.105387321953594e-07 0)
(1.305552269268586e-07 -4.167262860151383e-07 0)
(1.330001825591842e-07 -4.231478996608776e-07 0)
(1.279349639614004e-07 -3.407462644090771e-07 3.427090419653774e-23)
(1.095494169501432e-07 -3.636426251814985e-07 0)
(9.823300776287037e-08 -3.798283157967225e-07 0)
(9.112752140616259e-08 -3.911351860712771e-07 0)
(8.691089485526451e-08 -4.001588207130814e-07 0)
(8.465938347177138e-08 -4.076751672146966e-07 0)
(8.377350743329522e-08 -4.145143156747481e-07 0)
(8.385370242062441e-08 -4.209799337329513e-07 0)
(8.462576356689137e-08 -4.273647429583738e-07 0)
(8.586567696935116e-08 -4.337576719269203e-07 0)
(8.751152733037406e-08 -4.403252712263854e-07 0)
(6.41757690270714e-08 -3.440652753916744e-07 -1.155013458955295e-23)
(5.477061884127302e-08 -3.695481573816854e-07 0)
(4.897585838174607e-08 -3.873549178248949e-07 0)
(4.533440810256622e-08 -3.997071492886803e-07 0)
(4.316916794469373e-08 -4.094156574746188e-07 0)
(4.200772419437398e-08 -4.173836079814788e-07 0)
(4.154335694423981e-08 -4.245277730210675e-07 0)
(4.157157187397879e-08 -4.312061285006969e-07 0)
(4.195267281798373e-08 -4.377445590634454e-07 0)
(4.257117200034587e-08 -4.442672613356778e-07 0)
(4.339820073889989e-08 -4.509271258030383e-07 0)
(0 -3.451420918439308e-07 -1.81218716043124e-23)
(0 -3.715247007378191e-07 7.351294771312417e-26)
(0 -3.899054293960969e-07 0)
(0 -4.025998764061166e-07 0)
(0 -4.125494256697045e-07 0)
(0 -4.20666348488464e-07 0)
(0 -4.279168573014237e-07 0)
(0 -4.346663279629016e-07 0)
(0 -4.412574521827074e-07 0)
(0 -4.47824769127506e-07 0)
(0 -4.54514871660365e-07 0)
(5.813806534553182e-07 -2.414520144516795e-07 -1.986260415057181e-23)
(5.418685034499355e-07 -2.141093832541415e-07 0)
(5.176639139563009e-07 -1.98676869675894e-07 0)
(5.027104306475172e-07 -1.895585348804143e-07 0)
(4.945347747681989e-07 -1.850893737793708e-07 0)
(4.911525957923815e-07 -1.836231048110249e-07 0)
(4.913049395206039e-07 -1.842861497839949e-07 0)
(4.940959399812642e-07 -1.864082848012571e-07 0)
(4.988833150459929e-07 -1.89555138167295e-07 0)
(5.052062469469389e-07 -1.934255881603061e-07 0)
(5.129170581822013e-07 -1.97957944348075e-07 0)
(5.33459103590123e-07 -2.600574305105039e-07 3.098884904003604e-23)
(4.905802625906412e-07 -2.384068287039804e-07 0)
(4.642743747563254e-07 -2.265926490098174e-07 0)
(4.47944245510791e-07 -2.198235863530491e-07 0)
(4.387885563284889e-07 -2.169348133596035e-07 0)
(4.346564101044595e-07 -2.16544139370082e-07 0)
(4.341693485604282e-07 -2.179751513982608e-07 0)
(4.363766374046717e-07 -2.206534358612107e-07 0)
(4.40573450843756e-07 -2.242432517532026e-07 0)
(4.463055267023129e-07 -2.284333652070786e-07 0)
(4.531148567630716e-07 -2.331932031532271e-07 0)
(4.823672091911696e-07 -2.771200597350692e-07 -4.393812609869396e-23)
(4.377446602232118e-07 -2.621201196333174e-07 0)
(4.103416902182362e-07 -2.545118104833729e-07 0)
(3.93272226840325e-07 -2.504661600438455e-07 0)
(3.835329036465416e-07 -2.493922265862973e-07 0)
(3.788846756681004e-07 -2.502235753301404e-07 0)
(3.778838057349569e-07 -2.525128286041698e-07 0)
(3.795466860850708e-07 -2.558068126741896e-07 0)
(3.831482906988119e-07 -2.59876016887906e-07 0)
(3.881883659638955e-07 -2.64415644380647e-07 0)
(3.942272105959463e-07 -2.695528361654038e-07 0)
(4.284263874477946e-07 -2.925158378131629e-07 3.949785329421379e-23)
(3.838488855832772e-07 -2.847452727957909e-07 0)
(3.564552788487844e-07 -2.81693182103909e-07 0)
(3.393494347313705e-07 -2.805920449690464e-07 0)
(3.294660467034517e-07 -2.814667935920509e-07 0)
(3.245672766889964e-07 -2.835976888719536e-07 0)
(3.232046018506824e-07 -2.8678368754092e-07 0)
(3.244004921528233e-07 -2.907086878404584e-07 0)
(3.274417761533714e-07 -2.952507415860676e-07 0)
(3.318228577500675e-07 -3.001538284502703e-07 0)
(3.371757716917328e-07 -3.056002454299166e-07 0)
(3.719689354930609e-07 -3.06127899519776e-07 1.020016832969636e-22)
(3.292972988396758e-07 -3.057554288786178e-07 0)
(3.030632340985333e-07 -3.073550520419671e-07 0)
(2.866518182569064e-07 -3.092568393003373e-07 0)
(2.770826365746452e-07 -3.121106553592526e-07 0)
(2.722126250726178e-07 -3.155544580596063e-07 0)
(2.706523532318177e-07 -3.19637280214886e-07 0)
(2.714692680489615e-07 -3.241876116107647e-07 0)
(2.739939254621516e-07 -3.291881016565954e-07 0)
(2.77734731386466e-07 -3.344501800531703e-07 0)
(2.824033495109805e-07 -3.401845295613413e-07 0)
(3.133374138053267e-07 -3.178473198402591e-07 2.282555349768132e-23)
(2.744064635447661e-07 -3.246234172074955e-07 0)
(2.504650848943724e-07 -3.307100271334392e-07 0)
(2.354680316978457e-07 -3.355060914890035e-07 0)
(2.266648046044673e-07 -3.402618762946422e-07 0)
(2.220997240535179e-07 -3.449631262130707e-07 0)
(2.205039134560419e-07 -3.498995718460335e-07 0)
(2.210290088394325e-07 -3.550428602381435e-07 0)
(2.230746234548953e-07 -3.604737390922405e-07 0)
(2.261857890661338e-07 -3.660801234443169e-07 0)
(2.301451709482533e-07 -3.720777812924185e-07 0)
(2.528822144993897e-07 -3.275770269521787e-07 -4.069071121428298e-23)
(2.194029574164674e-07 -3.408487539331399e-07 0)
(1.988097982072341e-07 -3.510073739809247e-07 0)
(1.858974470405506e-07 -3.58428889372128e-07 0)
(1.782808547409518e-07 -3.649069386172087e-07 0)
(1.742779769788612e-07 -3.70744802996047e-07 0)
(1.727972875136585e-07 -3.764502645463542e-07 0)
(1.731104337691568e-07 -3.821273441813269e-07 0)
(1.747085476630401e-07 -3.879436644106682e-07 0)
(1.771941138263614e-07 -3.938637881231004e-07 0)
(1.804120985050212e-07 -4.000929675131905e-07 0)
(1.909607963865283e-07 -3.352327148232584e-07 3.462629793537347e-24)
(1.644287350747381e-07 -3.539807360412538e-07 0)
(1.481053361001602e-07 -3.675693433579927e-07 0)
(1.378625949807672e-07 -3.77201989981223e-07 0)
(1.317994412553832e-07 -3.85129018856568e-07 0)
(1.28582834169381e-07 -3.919223842131918e-07 0)
(1.273477141818372e-07 -3.982733435352272e-07 0)
(1.275173939266799e-07 -4.043990327937674e-07 0)
(1.286930923953586e-07 -4.105387321953594e-07 0)
(1.305552269268585e-07 -4.167262860151383e-07 0)
(1.330001825591842e-07 -4.231478996608776e-07 0)
(1.279349639614004e-07 -3.407462644090771e-07 3.427090419653772e-23)
(1.095494169501431e-07 -3.636426251814986e-07 0)
(9.823300776287037e-08 -3.798283157967225e-07 0)
(9.112752140616259e-08 -3.911351860712771e-07 0)
(8.691089485526451e-08 -4.001588207130814e-07 0)
(8.465938347177143e-08 -4.076751672146965e-07 0)
(8.377350743329522e-08 -4.145143156747481e-07 0)
(8.385370242062439e-08 -4.209799337329513e-07 0)
(8.462576356689137e-08 -4.273647429583738e-07 0)
(8.586567696935119e-08 -4.337576719269202e-07 0)
(8.751152733037408e-08 -4.403252712263854e-07 0)
(6.417576902707169e-08 -3.440652753916743e-07 -1.155013458955297e-23)
(5.477061884127332e-08 -3.695481573816854e-07 0)
(4.897585838174638e-08 -3.873549178248949e-07 0)
(4.533440810256647e-08 -3.997071492886803e-07 0)
(4.316916794469389e-08 -4.094156574746188e-07 0)
(4.200772419437402e-08 -4.173836079814788e-07 0)
(4.154335694423986e-08 -4.245277730210675e-07 0)
(4.157157187397889e-08 -4.31206128500697e-07 0)
(4.195267281798385e-08 -4.377445590634454e-07 0)
(4.257117200034593e-08 -4.442672613356778e-07 0)
(4.339820073889989e-08 -4.509271258030383e-07 0)
(0 -3.451420918439306e-07 -1.812187160431265e-23)
(0 -3.715247007378192e-07 7.351294771312437e-26)
(0 -3.899054293960969e-07 0)
(0 -4.025998764061166e-07 0)
(0 -4.125494256697046e-07 0)
(0 -4.20666348488464e-07 0)
(0 -4.279168573014236e-07 0)
(0 -4.346663279629016e-07 0)
(0 -4.412574521827074e-07 0)
(0 -4.47824769127506e-07 0)
(0 -4.54514871660365e-07 0)
(8.276995661577984e-07 0 -3.451157269895488e-24)
(8.370194151128277e-07 0 1.399991948891698e-26)
(8.431342372001852e-07 0 0)
(8.477489418731843e-07 0 0)
(8.526662242985711e-07 0 0)
(8.583392027397048e-07 0 0)
(8.651840557660857e-07 0 0)
(8.732493158706196e-07 0 0)
(8.825784677690889e-07 0 0)
(8.930892545448394e-07 0 0)
(9.047588312097458e-07 0 0)
(8.251075946919028e-07 -2.655929832258716e-08 -3.978846729733588e-24)
(8.335797771439958e-07 -1.845020531429163e-08 0)
(8.391579271071473e-07 -1.360939688822642e-08 0)
(8.434445103700541e-07 -1.061389029989955e-08 0)
(8.481352305184014e-07 -8.869983538055386e-09 0)
(8.536602147239767e-07 -7.936616295202699e-09 0)
(8.603963505671573e-07 -7.546999423533448e-09 0)
(8.683797469292068e-07 -7.518856998731775e-09 0)
(8.77641894293881e-07 -7.736438367580624e-09 0)
(8.880867999649327e-07 -8.089783534669344e-09 0)
(8.997045965068783e-07 -8.595318049781424e-09 0)
(8.172856679936467e-07 -5.296405959436442e-08 -2.478957968640139e-24)
(8.233018280728434e-07 -3.715530742880542e-08 0)
(8.273534938245795e-07 -2.774355782408798e-08 0)
(8.306575419234486e-07 -2.192811855732727e-08 0)
(8.346985281794168e-07 -1.855165116597442e-08 0)
(8.397825641965902e-07 -1.675414194656351e-08 0)
(8.46203428540543e-07 -1.601596463243137e-08 0)
(8.539452003139658e-07 -1.598238386796311e-08 0)
(8.630092768370271e-07 -1.642702775425072e-08 0)
(8.732634581369273e-07 -1.713743883511375e-08 0)
(8.847240202543121e-07 -1.814085131833996e-08 0)
(8.042788751446528e-07 -7.908279699999971e-08 1.809473302677985e-24)
(8.063734168139166e-07 -5.640305973522848e-08 0)
(8.079969119955932e-07 -4.292687836961647e-08 0)
(8.097358458995698e-07 -3.46110938254218e-08 0)
(8.127421528273019e-07 -2.980064050417515e-08 0)
(8.171230414955071e-07 -2.725932252113923e-08 0)
(8.230405913070986e-07 -2.624181917522559e-08 0)
(8.303963369943197e-07 -2.623913935544845e-08 0)
(8.391436159442962e-07 -2.692398672707583e-08 0)
(8.490937860868164e-07 -2.79954088831187e-08 0)
(8.603036157898293e-07 -2.947896966200189e-08 0)
(7.861989955234689e-07 -1.047556157771913e-07 2.985253871386676e-23)
(7.83142166846224e-07 -7.640260323605098e-08 0)
(7.81575983263944e-07 -5.958733325072517e-08 0)
(7.81258974483708e-07 -4.922735625535486e-08 0)
(7.829051918748455e-07 -4.326626643119081e-08 0)
(7.863607543381382e-07 -4.015277015288282e-08 0)
(7.916146665722803e-07 -3.895499034526823e-08 0)
(7.984612326933076e-07 -3.903536205417331e-08 0)
(8.067896720610378e-07 -3.997978147502015e-08 0)
(8.163408072485238e-07 -4.141788587781917e-08 0)
(8.27218844938556e-07 -4.335906390376921e-08 0)
(7.631887224387656e-07 -1.298397524853005e-07 1.229891507656268e-23)
(7.540636204536503e-07 -9.729929147096443e-08 0)
(7.48737866252942e-07 -7.804977480486615e-08 0)
(7.459971116414014e-07 -6.621529038843688e-08 0)
(7.460375131038245e-07 -5.945752043442093e-08 0)
(7.483981978336691e-07 -5.598644702916844e-08 0)
(7.528638414973455e-07 -5.47326456850567e-08 0)
(7.59104364221604e-07 -5.496184047324487e-08 0)
(7.669315801535903e-07 -5.619113852847898e-08 0)
(7.760092335556556e-07 -5.800291833283147e-08 0)
(7.864860758154071e-07 -6.037280044689675e-08 0)
(7.35425296730726e-07 -1.541902552581116e-07 -5.059276107577228e-23)
(7.196852830738215e-07 -1.191544809454555e-07 0)
(7.102579667446826e-07 -9.850346057507507e-08 0)
(7.048714893143915e-07 -8.58453718331641e-08 0)
(7.03154556275542e-07 -7.869578548075234e-08 0)
(7.043125798486203e-07 -7.511292089510499e-08 0)
(7.079066395338873e-07 -7.394634638630598e-08 0)
(7.134738798910444e-07 -7.440086779476117e-08 0)
(7.20739017929926e-07 -7.594681307241688e-08 0)
(7.292905310127358e-07 -7.814179311335908e-08 0)
(7.393111581050571e-07 -8.091262470362407e-08 0)
(7.031159531140709e-07 -1.776652457181498e-07 3.226869937697673e-24)
(6.806200289536228e-07 -1.419382358474986e-07 0)
(6.669995435578168e-07 -1.209890394528884e-07 0)
(6.589054980335099e-07 -1.082035564223013e-07 0)
(6.553826489472543e-07 -1.010953751870903e-07 0)
(6.552966068636383e-07 -9.766375351034235e-08 0)
(6.579788332022477e-07 -9.673798922958054e-08 0)
(6.628347234069608e-07 -9.750086809235741e-08 0)
(6.694963053101159e-07 -9.940014067953791e-08 0)
(6.774885501908005e-07 -1.019929841307859e-07 0)
(6.870025963795077e-07 -1.051366808217098e-07 0)
(6.664962423213057e-07 -2.001244689167321e-07 4.085211575736745e-23)
(6.375211478949029e-07 -1.65522627031013e-07 0)
(6.1987506719465e-07 -1.453878924497898e-07 0)
(6.091781559142522e-07 -1.331775764274799e-07 0)
(6.039086006778206e-07 -1.265479072828097e-07 0)
(6.026072799270081e-07 -1.235321124436791e-07 0)
(6.043831526543851e-07 -1.230022077919353e-07 0)
(6.085203500330008e-07 -1.241566555031595e-07 0)
(6.145553272742702e-07 -1.264528337738502e-07 0)
(6.219741380370423e-07 -1.29465841895788e-07 0)
(6.309493936066092e-07 -1.329918375836869e-07 0)
(6.258247096136654e-07 -2.214313578660553e-07 -5.986779721310078e-23)
(5.910533460002028e-07 -1.896843644233797e-07 0)
(5.698015642779402e-07 -1.714251446753619e-07 0)
(5.567678880478829e-07 -1.60460452707173e-07 0)
(5.499141266463289e-07 -1.547255497852596e-07 0)
(5.474910212129274e-07 -1.523756440466546e-07 0)
(5.484060408857867e-07 -1.523842572583206e-07 0)
(5.518389463246282e-07 -1.540036490338795e-07 0)
(5.57235560531297e-07 -1.567294446011263e-07 0)
(5.64079496507964e-07 -1.60203330241146e-07 0)
(5.724284369493537e-07 -1.641146455924617e-07 0)
(8.276995661577983e-07 0 -3.451157269895537e-24)
(8.370194151128277e-07 0 1.399991948891718e-26)
(8.431342372001852e-07 0 0)
(8.477489418731843e-07 0 0)
(8.526662242985711e-07 0 0)
(8.583392027397048e-07 0 0)
(8.651840557660857e-07 0 0)
(8.732493158706197e-07 0 0)
(8.825784677690889e-07 0 0)
(8.930892545448393e-07 0 0)
(9.04758831209746e-07 0 0)
(8.251075946919027e-07 -2.655929832258728e-08 -3.978846729733607e-24)
(8.335797771439957e-07 -1.845020531429173e-08 0)
(8.391579271071473e-07 -1.360939688822651e-08 0)
(8.434445103700541e-07 -1.061389029989959e-08 0)
(8.481352305184015e-07 -8.869983538055391e-09 0)
(8.536602147239767e-07 -7.936616295202707e-09 0)
(8.603963505671573e-07 -7.54699942353347e-09 0)
(8.683797469292067e-07 -7.518856998731798e-09 0)
(8.77641894293881e-07 -7.736438367580646e-09 0)
(8.880867999649326e-07 -8.089783534669357e-09 0)
(8.997045965068783e-07 -8.595318049781424e-09 0)
(8.172856679936467e-07 -5.296405959436441e-08 -2.478957968640137e-24)
(8.233018280728434e-07 -3.715530742880536e-08 0)
(8.273534938245796e-07 -2.774355782408798e-08 0)
(8.306575419234485e-07 -2.192811855732731e-08 0)
(8.346985281794168e-07 -1.855165116597442e-08 0)
(8.397825641965902e-07 -1.675414194656352e-08 0)
(8.46203428540543e-07 -1.601596463243139e-08 0)
(8.539452003139658e-07 -1.598238386796313e-08 0)
(8.630092768370271e-07 -1.642702775425073e-08 0)
(8.732634581369273e-07 -1.713743883511375e-08 0)
(8.84724020254312e-07 -1.814085131833997e-08 0)
(8.042788751446529e-07 -7.908279699999971e-08 1.809473302677987e-24)
(8.063734168139168e-07 -5.640305973522834e-08 0)
(8.079969119955933e-07 -4.292687836961638e-08 0)
(8.097358458995699e-07 -3.461109382542175e-08 0)
(8.127421528273019e-07 -2.980064050417514e-08 0)
(8.171230414955071e-07 -2.725932252113921e-08 0)
(8.230405913070987e-07 -2.624181917522556e-08 0)
(8.303963369943197e-07 -2.623913935544842e-08 0)
(8.391436159442963e-07 -2.692398672707579e-08 0)
(8.490937860868165e-07 -2.799540888311867e-08 0)
(8.603036157898293e-07 -2.947896966200189e-08 0)
(7.861989955234689e-07 -1.047556157771915e-07 2.9852538713867e-23)
(7.831421668462239e-07 -7.640260323605102e-08 0)
(7.815759832639439e-07 -5.95873332507252e-08 0)
(7.81258974483708e-07 -4.922735625535486e-08 0)
(7.829051918748455e-07 -4.326626643119081e-08 0)
(7.863607543381382e-07 -4.01527701528828e-08 0)
(7.916146665722803e-07 -3.89549903452682e-08 0)
(7.984612326933077e-07 -3.90353620541733e-08 0)
(8.067896720610377e-07 -3.997978147502015e-08 0)
(8.163408072485238e-07 -4.141788587781917e-08 0)
(8.27218844938556e-07 -4.335906390376921e-08 0)
(7.631887224387656e-07 -1.298397524853005e-07 1.229891507656268e-23)
(7.540636204536502e-07 -9.729929147096444e-08 0)
(7.487378662529418e-07 -7.80497748048663e-08 0)
(7.459971116414012e-07 -6.621529038843696e-08 0)
(7.460375131038244e-07 -5.945752043442098e-08 0)
(7.483981978336691e-07 -5.598644702916848e-08 0)
(7.528638414973455e-07 -5.47326456850567e-08 0)
(7.591043642216038e-07 -5.496184047324491e-08 0)
(7.669315801535902e-07 -5.6191138528479e-08 0)
(7.760092335556556e-07 -5.800291833283148e-08 0)
(7.864860758154071e-07 -6.037280044689672e-08 0)
(7.354252967307262e-07 -1.541902552581116e-07 -5.05927610757724e-23)
(7.196852830738214e-07 -1.191544809454553e-07 0)
(7.102579667446826e-07 -9.850346057507501e-08 0)
(7.048714893143916e-07 -8.584537183316409e-08 0)
(7.03154556275542e-07 -7.869578548075231e-08 0)
(7.043125798486203e-07 -7.5112920895105e-08 0)
(7.079066395338874e-07 -7.394634638630595e-08 0)
(7.134738798910444e-07 -7.440086779476117e-08 0)
(7.20739017929926e-07 -7.594681307241688e-08 0)
(7.292905310127359e-07 -7.814179311335903e-08 0)
(7.393111581050571e-07 -8.091262470362407e-08 0)
(7.031159531140708e-07 -1.7766524571815e-07 3.226869937697988e-24)
(6.806200289536225e-07 -1.419382358474985e-07 0)
(6.669995435578167e-07 -1.209890394528883e-07 0)
(6.589054980335098e-07 -1.082035564223014e-07 0)
(6.553826489472542e-07 -1.010953751870904e-07 0)
(6.552966068636383e-07 -9.76637535103424e-08 0)
(6.579788332022477e-07 -9.673798922958054e-08 0)
(6.628347234069607e-07 -9.750086809235747e-08 0)
(6.694963053101159e-07 -9.940014067953795e-08 0)
(6.774885501908004e-07 -1.01992984130786e-07 0)
(6.870025963795075e-07 -1.051366808217098e-07 0)
(6.664962423213057e-07 -2.001244689167321e-07 4.085211575736745e-23)
(6.375211478949028e-07 -1.655226270310128e-07 0)
(6.1987506719465e-07 -1.453878924497898e-07 0)
(6.091781559142523e-07 -1.331775764274799e-07 0)
(6.039086006778206e-07 -1.265479072828097e-07 0)
(6.026072799270081e-07 -1.235321124436791e-07 0)
(6.043831526543852e-07 -1.230022077919353e-07 0)
(6.085203500330009e-07 -1.241566555031596e-07 0)
(6.145553272742702e-07 -1.264528337738502e-07 0)
(6.219741380370423e-07 -1.29465841895788e-07 0)
(6.309493936066093e-07 -1.329918375836869e-07 0)
(6.258247096136657e-07 -2.214313578660553e-07 -5.986779721310086e-23)
(5.91053346000203e-07 -1.896843644233795e-07 0)
(5.698015642779405e-07 -1.714251446753617e-07 0)
(5.567678880478832e-07 -1.604604527071729e-07 0)
(5.499141266463289e-07 -1.547255497852596e-07 0)
(5.474910212129274e-07 -1.523756440466546e-07 0)
(5.484060408857866e-07 -1.523842572583207e-07 0)
(5.518389463246284e-07 -1.540036490338793e-07 0)
(5.572355605312973e-07 -1.567294446011262e-07 0)
(5.640794965079643e-07 -1.602033302411458e-07 0)
(5.724284369493538e-07 -1.641146455924617e-07 0)
(9.17545976032661e-07 0 0)
(9.312798224544368e-07 0 0)
(9.458488577011797e-07 0 0)
(9.611803562009047e-07 0 0)
(9.771929171509783e-07 0 0)
(9.938180893020672e-07 0 0)
(1.010987168190828e-06 0 0)
(1.028637134190023e-06 0 0)
(1.046707145399631e-06 0 0)
(1.065138894865698e-06 0 0)
(1.083874915220904e-06 0 0)
(1.10285871182045e-06 0 0)
(1.122031252812591e-06 0 0)
(1.141334575441139e-06 0 0)
(1.160700675880572e-06 0 0)
(1.180068887344659e-06 0 0)
(1.199346878992327e-06 0 0)
(1.218480764722086e-06 0 0)
(1.23731060402491e-06 0 -6.396336074384523e-27)
(1.255848294532352e-06 0 -1.045843025593519e-23)
(9.129461651008066e-07 -8.661479002866634e-09 0)
(9.270626920483082e-07 -8.69153480321253e-09 0)
(9.419690550830198e-07 -8.723461656141651e-09 0)
(9.575960457948052e-07 -8.723785239039107e-09 0)
(9.738708303468788e-07 -8.685190091337469e-09 0)
(9.90729250116775e-07 -8.60023702195817e-09 0)
(1.008107711124271e-06 -8.462598336189227e-09 0)
(1.025946667125001e-06 -8.268104354240521e-09 0)
(1.044188597508795e-06 -8.011887319443115e-09 0)
(1.062777779068329e-06 -7.689461891858975e-09 0)
(1.081659006650969e-06 -7.295344467051674e-09 0)
(1.100777730530174e-06 -6.82325468200296e-09 0)
(1.120076490989754e-06 -6.265524326921149e-09 0)
(1.139498937843189e-06 -5.612804518513577e-09 0)
(1.158978102113574e-06 -4.853819984239892e-09 0)
(1.178454975138862e-06 -3.974530320432084e-09 0)
(1.197837687573337e-06 -2.95857355094035e-09 0)
(1.21707454919691e-06 -1.783767947238457e-09 0)
(1.236005548868228e-06 -4.309756417049492e-10 0)
(1.254645388144073e-06 1.154633273075166e-09 -3.189683919426679e-23)
(8.992971189433402e-07 -1.812713982762967e-08 0)
(9.145466772702944e-07 -1.807068077553151e-08 0)
(9.304491629046826e-07 -1.803654452875892e-08 0)
(9.469509014086885e-07 -1.795804564259614e-08 0)
(9.640016667355843e-07 -1.781575775755903e-08 0)
(9.815510330597069e-07 -1.759318848787691e-08 0)
(9.995500715414548e-07 -1.727510659248369e-08 0)
(1.017949450956036e-06 -1.685169217035947e-08 0)
(1.036701476817495e-06 -1.631169098955513e-08 0)
(1.055757900829379e-06 -1.56450409964104e-08 0)
(1.075070311888885e-06 -1.483982769073591e-08 0)
(1.094589689216371e-06 -1.388273827424821e-08 0)
(1.114263521476518e-06 -1.275781175481351e-08 0)
(1.134039714771046e-06 -1.144582729233581e-08 0)
(1.153855217228438e-06 -9.923795534912716e-09 0)
(1.173654570563523e-06 -8.163248906080269e-09 0)
(1.193349461699333e-06 -6.131140972074876e-09 0)
(1.212891517306704e-06 -3.782863548416513e-09 0)
(1.232124841203273e-06 -1.079837039265017e-09 0)
(1.251067484086831e-06 2.086577201159195e-09 -3.701660337631619e-23)
(8.770175550812309e-07 -2.910833847780185e-08 0)
(8.940979689607784e-07 -2.87433388483384e-08 0)
(9.116141279544516e-07 -2.845694243260323e-08 0)
(9.295357378283339e-07 -2.815060126302723e-08 0)
(9.478487622588495e-07 -2.778255050896975e-08 0)
(9.665236762938428e-07 -2.732419952319323e-08 0)
(9.855350983755714e-07 -2.674632465917319e-08 0)
(1.00484963059373e-06 -2.603055762653157e-08 0)
(1.02443530540282e-06 -2.515637086490496e-08 0)
(1.044255749147022e-06 -2.410600249903231e-08 0)
(1.064273442159582e-06 -2.285931066579454e-08 0)
(1.084448250381598e-06 -2.139449519288278e-08 0)
(1.104735649502682e-06 -1.968610616787234e-08 0)
(1.125090451317006e-06 -1.77040375833147e-08 0)
(1.145455998759138e-06 -1.541272797277525e-08 0)
(1.165782647440907e-06 -1.276851128685342e-08 0)
(1.185987994071444e-06 -9.720954494540747e-09 0)
(1.206029105428115e-06 -6.202392417875173e-09 0)
(1.225757061652236e-06 -2.153848323893314e-09 0)
(1.24519511839737e-06 2.586396930657884e-09 -1.979296841300272e-23)
(8.467632516334038e-07 -4.224560184855415e-08 0)
(8.662858832248183e-07 -4.126092345780549e-08 0)
(8.859665955528225e-07 -4.045913470736663e-08 0)
(9.057996252458803e-07 -3.971386191661769e-08 0)
(9.258183096463236e-07 -3.894663815969355e-08 0)
(9.460177109153678e-07 -3.811263694819712e-08 0)
(9.664033608121133e-07 -3.716175646235528e-08 0)
(9.869619787480478e-07 -3.606281881863439e-08 0)
(1.007682219291115e-06 -3.478212368926027e-08 0)
(1.028543245380169e-06 -3.329115090124149e-08 0)
(1.049521905695745e-06 -3.155908819144178e-08 0)
(1.070589885454031e-06 -2.955361794478278e-08 0)
(1.091713310619409e-06 -2.723817841792279e-08 0)
(1.112856278812386e-06 -2.457040145802662e-08 0)
(1.133970790116415e-06 -2.150100365433581e-08 0)
(1.155015115520876e-06 -1.797010154810918e-08 0)
(1.17591503838231e-06 -1.390895278137615e-08 0)
(1.196635124729908e-06 -9.226025350601781e-09 0)
(1.217036409710809e-06 -3.840650919088256e-09 0)
(1.23714927471249e-06 2.46107806553164e-09 -1.237226881110127e-23)
(8.093957530612955e-07 -5.805595265488031e-08 0)
(8.318576593832162e-07 -5.607286453299302e-08 0)
(8.541650393011643e-07 -5.443046338199189e-08 0)
(8.763301129138656e-07 -5.298315523907902e-08 0)
(8.984412596072576e-07 -5.159965892148685e-08 0)
(9.205177168633533e-07 -5.021381118632047e-08 0)
(9.426006881409813e-07 -4.874735769916572e-08 0)
(9.646993855859469e-07 -4.715072541399552e-08 0)
(9.868262858596169e-07 -4.537260796047812e-08 0)
(1.008978806478489e-06 -4.336975701426099e-08 0)
(1.031150700085845e-06 -4.109768162702846e-08 0)
(1.0533278547259e-06 -3.85109363914011e-08 0)
(1.075489212658912e-06 -3.555980529839258e-08 0)
(1.097610211696494e-06 -3.218793991822796e-08 0)
(1.119653514556033e-06 -2.833094283605861e-08 0)
(1.141587223955198e-06 -2.391152862626029e-08 0)
(1.163347509126883e-06 -1.884163197107391e-08 0)
(1.184908433614491e-06 -1.300503880685691e-08 0)
(1.206144194695148e-06 -6.298055286548775e-09 0)
(1.227094400868815e-06 1.543839522895427e-09 8.782155299233679e-24)
(7.659403007078624e-07 -7.689890169775447e-08 0)
(7.917031853718118e-07 -7.350793142447545e-08 0)
(8.169936496571317e-07 -7.066656212370836e-08 0)
(8.418261645748277e-07 -6.822285602622588e-08 0)
(8.663473428948145e-07 -6.597916068863709e-08 0)
(8.90596719164584e-07 -6.384074171520144e-08 0)
(9.146520660061995e-07 -6.169543772027342e-08 0)
(9.385461503172721e-07 -5.946844708734806e-08 0)
(9.623162889389425e-07 -5.708664147677485e-08 0)
(9.859799808132948e-07 -5.448767900404651e-08 0)
(1.009549258780584e-06 -5.161031073597571e-08 0)
(1.033025907032986e-06 -4.839322457903712e-08 0)
(1.056403182054341e-06 -4.477142719978051e-08 0)
(1.079669434120322e-06 -4.067282212306849e-08 0)
(1.102799612712421e-06 -3.601648524132476e-08 0)
(1.125773271994676e-06 -3.070659779900953e-08 0)
(1.148539016482379e-06 -2.463488572696834e-08 0)
(1.171082231593281e-06 -1.765998301867826e-08 0)
(1.193293560573943e-06 -9.654309327157864e-09 0)