/*--------------------------------*- C++ -*----------------------------------*\
| =========                 |                                                 |
| \\      /  F ield         | foam-extend: Open Source CFD                    |
|  \\    /   O peration     | Version:     4.1                                |
|   \\  /    A nd           | Web:         http://www.foam-extend.org         |
|    \\/     M anipulation  |                                                 |
\*---------------------------------------------------------------------------*/
FoamFile
{
    version     2.0;
    format      ascii;
    class       volScalarField;
    location    "1";
    object      sigmaHyd;
}
// * * * * * * * * * * * * * * * * * * * * * * * * * * * * * * * * * * * * * //

dimensions      [1 -1 -2 0 0 0 0];

internalField   nonuniform List<scalar> 
1000
(
-54636.94980776621
-52302.5887640755
-51690.44417178787
-50584.20329488731
-50029.9449546007
-49399.5958933402
-48996.40975244974
-48577.18413907244
-48378.96698329069
-47798.36268766486
-70210.75584778341
-64893.99569286498
-62453.97867164227
-59642.57838027633
-57843.49640970214
-56114.30671633658
-54831.83919026209
-53632.25293373047
-52782.44247880994
-51572.29698005376
-85199.07474270252
-77014.15400840399
-72817.94554454774
-68369.10508201603
-65378.71032721949
-62595.59894647442
-60480.59239897302
-58521.37962489677
-57072.04642699848
-55223.9963545167
-99236.50813605127
-88362.69114524001
-82517.78297798739
-76532.80294897938
-72419.73664405718
-68649.29518480267
-65740.31089950238
-63090.48723452337
-61050.03707095077
-58721.74332442263
-111982.2358173482
-98666.09592496704
-91323.71710349112
-83944.70391007804
-78813.05878186345
-74147.5708661401
-70518.21818439417
-67244.34728528479
-64664.49666123938
-61924.02244046225
-123123.4982838672
-107670.9332644667
-99017.74778661429
-90419.78012806438
-84396.00081174084
-78949.19239347416
-74686.63092410698
-70873.94588125263
-67812.44122671234
-64739.96613621282
-132385.2833595802
-115154.8520443411
-105410.6448415366
-95799.02097968843
-89033.02843260206
-82936.99544501056
-78146.48190024492
-73887.71213299879
-70419.38561982743
-67084.25727306557
-139538.6497638185
-120936.4031101081
-110350.0178548525
-99956.26874673979
-92616.96295377149
-86019.98769297084
-80820.30025205069
-76218.52826502899
-72430.80936457985
-68901.69454785743
-144401.4251744765
-124863.9173912241
-113703.4921767866
-102776.4425041704
-95046.24164597267
-88108.05658246212
-82629.06880647257
-77794.15882275923
-73786.54368868348
-70128.6713994412
-146867.8181958379
-126890.4045717151
-115462.7655046512
-104277.2158988902
-96355.69040287851
-89247.17287698091
-83627.04013742982
-78673.03532104427
-74552.05396473165
-70827.32292446469
54202.54593391348
35604.41024916477
23390.29400109208
12560.60539862687
4407.601195470243
-2625.351029447847
-8323.372834964135
-13289.37632270062
-17437.20544993512
-21230.87541240398
51672.00360326492
33523.30255363322
21571.18075959639
11008.84263039812
3053.361199640312
-3801.917367579013
-9352.154278905085
-14192.73122121828
-18220.68079892588
-21943.71940166014
46745.16643206799
29554.61465233698
18191.28594389796
8173.828855945126
617.9943630395295
-5888.292419305363
-11151.94017558084
-15752.5211578921
-19552.27364861005
-23143.35274679493
39488.84858893089
23706.05462011522
13206.6899765175
3988.582849180601
-2981.103649945307
-8974.946352130642
-13818.76023504183
-18066.30988616623
-21534.81335294025
-24927.50828265223
30106.05527674391
16142.87850803386
6762.022558424448
-1422.169094553602
-7634.273835316534
-12965.69070560613
-17269.69772276532
-21059.80496507574
-24108.91691152927
-27234.36366379248
18835.79649468557
7052.889833989097
-988.1660585705744
-7931.645349725402
-13234.94232706259
-17770.41954797314
-21428.08914626457
-24666.18931119298
-27220.06481099164
-30006.88873523047
5967.713517626285
-3331.636721849573
-9847.791548229277
-15376.87669226586
-19646.53493233888
-23273.619643995
-26200.87919489032
-28802.63257745584
-30810.35417191055
-33177.37323538798
-8174.005434981201
-14749.28256507555
-19593.10879992725
-23568.18745911617
-26701.43393230946
-29328.47043616545
-31451.17407412017
-33348.68822383474
-34756.66226606497
-36627.62201483003
-23238.03705538358
-26919.85769628637
-29990.75570038684
-32315.81255354179
-34249.28184843699
-35813.53265573415
-37101.83200725728
-38226.50002080335
-39052.22272644349
-40246.75840473419
-38851.60797788265
-39537.60498382799
-40771.50747927732
-41384.38121198847
-42067.29878409431
-42527.19482818196
-42930.0822103714
-43268.25978385393
-43428.60151541985
-43976.30864889939
-24312.02583173085
-27249.90763066668
-29838.43667832891
-32241.95800824257
-34455.77073441187
-36529.74100902599
-38489.8082790374
-40359.48289305712
-42162.5202864938
-43916.56226176739
-45639.25111714084
-47348.3442193259
-49054.28904977651
-50782.28754441794
-52526.17771554881
-54342.0319450696
-56165.43824644871
-58168.56426090017
-60067.92302072407
-62466.96407318546
-24899.03856675951
-27688.16360432891
-30191.73438177957
-32503.83153001737
-34656.28705106588
-36670.84304836183
-38585.70464621585
-40413.72169586997
-42182.03516344946
-43904.25064532178
-45598.51858483467
-47280.91193986694
-48961.62746039631
-50664.93284522426
-52384.3639484759
-54175.08811831151
-55972.77938213232
-57947.87736996787
-59818.51721059236
-62182.57304115668
-25855.17570186624
-28378.64076440595
-30738.06753432086
-32890.44164327551
-34941.04510233324
-36854.43631241492
-38694.35444824561
-40452.39482876889
-42162.76599295125
-43831.39821676384
-45477.58770880113
-47114.37480187673
-48751.58691656889
-50411.84505574412
-52088.22833914714
-53834.20039907597
-55585.85524116953
-57510.02215661724
-59328.97990695309
-61628.12655817751
-27298.88463100755
-29410.18095386173
-31565.56564088481
-33474.84714240595
-35375.44411231875
-37136.86370568402
-38864.98211647756
-40518.85616259413
-42143.12941147758
-43732.77112125009
-45308.29863697846
-46878.50960414509
-48452.38510867984
-50050.14726283253
-51664.05617855622
-53344.99165952857
-55029.66871099333
-56879.37948081067
-58622.87461842529
-60826.53217516962
-29200.10203825922
-30756.65606784161
-32666.8297458789
-34259.44538538418
-35970.81879140422
-37538.20886703011
-39123.14215887394
-40644.28643818822
-42157.52156229815
-43645.51109739488
-45129.15007163045
-46612.63926608836
-48103.50876290454
-49619.1936408976
-51150.86479402243
-52746.03465167234
-54342.39679214003
-56093.56712108102
-57737.44373680351
-59814.0943301789
-31529.46213217145
-32384.43514490203
-34009.66207312622
-35213.55336922222
-36689.99559974627
-38022.30094823243
-39429.38560725842
-40791.00337425384
-42169.76099290913
-43537.69692402489
-44913.32555509542
-46296.36671795879
-47691.52004342432
-49112.90771291604
-50549.95908736338
-52045.91262163161
-53539.55329729883
-55174.70224623047
-56700.73083347057
-58624.45401426496
-34263.61890013749
-34310.13580988116
-35626.208799728
-36408.85204139318
-37614.30388409441
-38692.66634586079
-39894.72892156956
-41077.91097949984
-42299.82410070125
-43527.75163024943
-44774.51396707197
-46036.94155569987
-47316.18654073848
-48623.22078524556
-49945.63318195349
-51321.69611791504
-52691.85283317089
-54187.73550141159
-55573.47714690656
-57314.76843588588
-37265.47674370837
-36419.65925706765
-37332.52165330267
-37673.56834665993
-38538.12858886486
-39340.2345294691
-40302.81071911736
-41292.99196014234
-42346.21167256682
-43430.60290363301
-44548.335990667
-45692.96965162177
-46860.19358725697
-48056.8533273383
-49267.84269776399
-50525.5690720554
-51772.07026747059
-53125.19895169895
-54365.19592065041
-55911.93374530164
-40586.98046829285
-38989.80884495757
-39393.16627816484
-39373.14252988132
-39859.52449851339
-40394.73796338402
-41096.67882859303
-41872.38138893484
-42726.61828089418
-43633.71076518986
-44586.79019894115
-45577.78252216521
-46598.21430369707
-47651.14222548065
-48719.23405428376
-49828.26898037583
-50922.649011845
-52103.65816129878
-53172.14565777325
-54493.8853346718
-43368.62410394269
-41552.32731210753
-41081.22850160279
-40699.08959701751
-40699.92396946082
-40918.65997402854
-41342.60743557444
-41912.17472788662
-42599.74582881803
-43374.01469064753
-44214.98262563407
-45107.1880600527
-46035.23821143594
-46996.28127398571
-47969.52784749901
-48973.66363154376
-49955.21170910812
-50999.19172255106
-51929.28162429827
-53059.63569165436
-46033.73405121172
-44615.68404931305
-43457.48808436434
-42755.6218519518
-42416.02403409153
-42339.48122574147
-42492.72004989404
-42815.43768776513
-43277.8571896733
-43846.08074724529
-44497.29272683405
-45212.6514207576
-45973.79039313962
-46773.30449250999
-47588.68482703739
-48430.66887772034
-49249.05137546267
-50108.41209825691
-50852.56022265739
-51738.35396474892
-47143.93260400816
-45765.27188790705
-44676.21701390705
-43958.49703813787
-43551.09587787274
-43380.09462251917
-43414.47064239147
-43606.42603733156
-43929.69780535627
-44354.51592619454
-44859.7171608057
-45426.66765238417
-46037.27126568868
-46681.78100861147
-47338.48215272692
-48012.123846479
-48657.94054802468
-49324.84437934062
-49879.59432057709
-50530.93748525555
-48265.57802319675
-46814.2106082463
-45728.21799561786
-44919.16758418013
-44414.15216049037
-44125.746143911
-44039.74116973595
-44107.49165349128
-44306.75343998622
-44607.69247128197
-44989.82498423935
-45433.70506138185
-45921.0044549599
-46439.94830963069
-46969.19417280511
-47508.55745941853
-48017.83517971064
-48531.39487354732
-48937.69043308387
-49398.08772495395
-48888.02217508599
-47459.88713735651
-46453.22302902387
-45637.47958950956
-45105.52875280992
-44757.66930323159
-44595.98827937042
-44573.98233639733
-44674.99057320094
-44871.22960905122
-45144.39343807312
-45475.39857036161
-45846.90610643732
-46245.55732720313
-46651.85086353592
-47060.45632965122
-47438.03183375591
-47804.62077080087
-48070.9585400707
-48354.26196413863
-49175.41998554376
-47818.84658325477
-46900.41096607137
-46097.77801345565
-45559.09340094026
-45173.64089401939
-44959.67110270686
-44871.09650398268
-44896.83813651272
-45010.4844131372
-45195.86872710944
-45434.56136559216
-45709.98391119357
-46008.6019971125
-46311.40958775022
-46611.29751017574
-46878.38690305921
-47122.07788977717
-47272.72596557408
-47409.03326392988
-49196.51332324906
-47936.6558602619
-47120.10403104367
-46362.40748756858
-45845.68362763742
-45452.3531713285
-45212.46948685348
-45081.20990325759
-45052.62002912453
-45102.06940999241
-45216.07184264196
-45376.81891149388
-45569.96667134139
-45780.11429567109
-45993.22162442804
-46193.78454109842
-46367.30094387465
-46503.81805842981
-46557.19980962014
-46569.90223879979
-48998.82367877563
-47858.97864447594
-47146.00879762193
-46449.11048503557
-45968.24701376514
-45584.7324537104
-45336.56244924737
-45180.62882532385
-45115.35305181133
-45117.89029590695
-45177.03399225313
-45276.64297459133
-45402.71925959042
-45542.97538805517
-45679.48064548518
-45806.46498450822
-45900.39434836164
-45949.36797168358
-45924.14393550823
-45838.92666334454
-48635.95781428333
-47626.00634695104
-47017.5619167451
-46395.12068894083
-45962.69150972162
-45604.96427571713
-45364.5110397656
-45200.00126330111
-45113.61917157961
-45084.00191643822
-45102.86114857719
-45154.15235948221
-45228.21388132555
-45306.82596220102
-45387.3669216148
-45429.35087509022
-45477.55933906964
-45455.55377116834
-45373.67927993619
-45214.61141060813
-48141.87029545038
-47267.63170750847
-46762.5987562639
-46221.46735967288
-45844.99890997384
-45525.23974738755
-45304.71550749363
-45144.07988855869
-45049.49048691587
-45000.73956720658
-44991.8259101726
-45009.29922116198
-45041.30207593586
-45081.41890966643
-45098.01886175167
-45132.37447628332
-45119.95887691425
-45036.0297720232
-44907.21557447704
-44694.84159599982
-47548.47776373805
-46812.24247272049
-46407.83442841257
-45955.83855167204
-45639.6472838457
-45364.68523158417
-45174.50875279342
-45028.56949267113
-44936.98672993306
-44880.18356307581
-44855.50880826553
-44848.78143025425
-44856.15230319273
-44858.05472385377
-44866.38024004595
-44712.79201018467
-44784.10338459849
-44668.02529167211
-44514.96685562137
-44272.8272782672
-46881.72466734347
-46280.98046799617
-45978.96309169209
-45611.5818881715
-45358.18979670631
-45142.49931553117
-44992.48693369839
-44866.84160137241
-44787.19492774938
-44730.55845130114
-44698.98599771363
-44678.89999259239
-44668.25499776824
-44650.57070582723
-44638.36874660633
-44578.55734526347
-44475.75144303719
-44364.58646155346
-44192.23262496164
-43941.74942014174
-46156.366141336
-45693.77683071523
-45485.94546511206
-45225.8938752594
-45029.05519126864
-44859.07787676976
-44760.25794693274
-44665.7906539769
-44605.42515388273
-44558.02183543956
-44527.03886321517
-44500.63092226481
-44478.15795010419
-44443.39651151155
-44405.94232385109
-44319.3338072969
-44246.2617468703
-44108.15736695009
-43939.4244916467
-43687.75307403919
-45399.05566250421
-45065.61840470721
-44980.66825982804
-44769.13248152444
-44775.16566167229
-44564.35956603335
-44531.33205619684
-44447.26190646899
-44411.80209334257
-44374.79610902387
-44350.4184661139
-44324.70358101735
-44298.4695844793
-44260.83254257939
-44213.99717104807
-44139.05138005075
-44041.68560525214
-43908.31106156037
-43742.43243431835
-43504.99662568441
-44601.44227101436
-44404.299599552
-44390.97583356463
-44294.49765328998
-44273.12842452936
-44257.2151736954
-44228.64019221424
-44210.10504797311
-44196.92434428388
-44182.93511785237
-44169.10733102284
-44149.53441668629
-44124.33393161433
-44085.82573138186
-44036.82430249834
-43961.82423494115
-43873.40728214574
-43745.98177615266
-43596.11710224082
-43380.86334994982
-43803.02019758913
-43741.51418922787
-43825.5038929617
-43834.35544328576
-43876.82122334233
-43913.19355221911
-43950.80036385845
-43969.72498032888
-43988.39673945058
-43994.88590828925
-43995.09540525659
-43984.17956383804
-43963.80799912085
-43929.7341522807
-43883.39301468295
-43817.11122004205
-43734.43271713704
-43622.38147781148
-43491.79295574848
-43307.03101612853
-42983.93125147172
-43061.87408965174
-43242.35438771721
-43354.63708928433
-43482.5654544182
-43583.31934052036
-43668.7425832779
-43733.53206477121
-43782.06179354161
-43812.3133401587
-43827.44151433989
-43826.88517770843
-43813.11197513273
-43784.80479488571
-43744.61691278646
-43687.6679890275
-43618.73898033867
-43525.84204220804
-43420.62091862388
-43271.81164941494
-42197.19891626687
-42414.777077044
-42694.66941448018
-42907.3423886853
-43112.0332628223
-43277.49784957301
-43416.82933763357
-43521.81002988156
-43600.32911665712
-43651.19994204283
-43679.87727635776
-43688.01482540122
-43679.99514978034
-43657.30463250491
-43623.68344181647
-43577.77891860239
-43523.56681362847
-43453.28474473531
-43376.31027225742
-43267.42242256967
-41378.76216942134
-41747.5182070927
-42136.9988771998
-42457.49314455585
-42747.57015181891
-42984.01656588024
-43177.47592203628
-43324.74115985638
-43432.32803213478
-43503.08510808786
-43543.52713534785
-43558.57392673679
-43554.7021708281
-43536.37443965
-43509.31180312111
-43474.83489756408
-43437.84281252427
-43392.72648356193
-43347.32424349365
-43281.14626603998
-40677.22529818483
-41192.49653527268
-41686.9190488525
-42107.42213437565
-42474.54951714385
-42773.77551485682
-43013.83941991407
-43194.06547494327
-43322.39823976038
-43404.17562432895
-43448.23420746632
-43462.36536145503
-43455.65505406267
-43435.62889656323
-43410.32187541863
-43384.02113496443
-43362.78441862271
-43343.19903564727
-43331.84515513721
-43308.0677257551
-39846.70883562443
-40540.18562234718
-41168.69072209387
-41712.97366723132
-42176.43501028604
-42552.62225203659
-42848.14159277183
-43066.45753967416
-43216.80651136384
-43308.31626811051
-43352.67591774967
-43361.58928191068
-43347.61774699666
-43322.19535954219
-43296.54421124378
-43278.29759226758
-43274.86739537798
-43284.30914557795
-43308.66207445328
-43324.4236015022
-67694.73164976532
-67104.70606951621
-66085.21019881619
-64556.50159795834
-62555.94582223732
-60113.6262383068
-57287.32790254245
-54177.65599683436
-50899.89705236252
-47774.8293131694
-64847.68496082917
-64416.14952149705
-63695.43681357456
-62622.48123335118
-61231.65566716006
-59541.93716729469
-57582.4445506191
-55351.51781789933
-52864.73327143902
-49599.69297421967
-62290.85357788646
-61931.07666780401
-61336.48787748599
-60441.2314535922
-59268.71159132904
-57831.62319741763
-56175.19635691863
-54327.18512356425
-52430.76622705326
-50101.29356016752
-59964.12704504857
-59693.16038911026
-59260.45079765045
-58608.09224318613
-57752.68567481259
-56693.50471021741
-55450.04823353836
-54004.00629758493
-52430.84501244104
-50494.81820464938
-57813.58801470936
-57596.69235773983
-57257.19164935967
-56741.66531859054
-56062.65345836862
-55222.43141364782
-54241.8931771447
-53131.02107862663
-51914.03260800744
-50537.62390567327
-55824.82034081707
-55663.4417503238
-55421.8522573796
-55051.86961597556
-54558.56463748615
-53940.2922082503
-53195.18816509539
-52347.55045604151
-51347.56837625566
-50354.05458045877
-53953.18163419401
-53831.90859932225
-53658.87135204511
-53391.25498639227
-53029.64514732189
-52577.58687116194
-52020.02108250833
-51409.14414456338
-50625.03243802041
-49967.15069859507
-52187.56221578152
-52103.89253407747
-51995.57607192479
-51824.16897562164
-51583.66461847784
-51279.24846313873
-50878.16921138469
-50453.98485599236
-49838.06196008936
-49430.54251901537
-50499.02281167526
-50445.76481443932
-50389.12603900463
-50295.09972338242
-50153.04982095191
-49971.7152961706
-49706.05338493267
-49444.4296686411
-48985.64326209783
-48775.76106058733
-48874.91171277068
-48849.449920773
-48840.14941935989
-48816.41304788742
-48762.78182976761
-48689.13433084587
-48540.78795046873
-48413.35583144899
-48092.47861701603
-48034.77756029661
-47296.82636057561
-47295.67334507328
-47327.74438621433
-47365.48799459351
-47389.98003200744
-47411.30368745707
-47369.33995173065
-47359.09284511782
-47166.66446812262
-47229.67425471243
-45750.13087827236
-45771.57022686195
-45842.27702680245
-45936.95411027176
-46033.74720877517
-46141.17942683055
-46196.69434460756
-46289.35055588854
-46215.37075171706
-46377.48154965656
-44224.62665310019
-44267.08706524318
-44373.97074668085
-44521.77316280352
-44686.60493776397
-44874.21761476245
-45022.2803499182
-45209.22633474724
-45248.64976042046
-45495.12443496802
-42699.10317822081
-42761.91763898006
-42904.13206431225
-43103.51351165496
-43334.63946594773
-43599.43656951696
-43837.35246298055
-44113.80510912926
-44261.92875322027
-44585.47687414036
-41178.24984314357
-41261.03749751856
-41438.21966738972
-41688.50776968034
-41985.42381074896
-42326.40455214331
-42653.77836386571
-43018.36105228008
-43274.78831498308
-43673.04181140233
-39615.11702055352
-39718.30205907108
-39931.59396107324
-40234.37041401365
-40599.38829456868
-41019.13045752067
-41439.23976972667
-41895.24944333152
-42262.93684410277
-42739.23089995453
-38063.71241601063
-38187.71982857143
-38438.07041925121
-38794.6782862218
-39229.6932941841
-39730.51470906271
-40246.05964664754
-40796.74786869101
-41278.29107248209
-41836.39686331081
-36380.06270624145
-36526.76128102629
-36818.09876440043
-37234.41915283727
-37747.47379263795
-38339.48715823338
-38962.47853673491
-39621.67286214171
-40231.44652333996
-40887.37593423727
-34802.00369685423
-34972.0540569194
-35305.16911744099
-35782.25374712468
-36374.63541318489
-37059.73270705411
-37791.70360536783
-38562.34442236108
-39300.67100996707
-40055.57754796617
-32824.56027680228
-33023.10195747078
-33408.73517073
-33962.68321103369
-34656.21315136732
-35461.90968875485
-36335.48583581526
-37254.6108845725
-38161.23276228467
-39053.70990134587
)
;

boundaryField
{
    left
    {
        type            symmetryPlane;
        value           nonuniform List<scalar> 
30
(
-67694.73164976532
-64847.68496082917
-62290.85357788646
-59964.12704504857
-57813.58801470936
-55824.82034081707
-53953.18163419401
-52187.56221578152
-50499.02281167526
-48874.91171277068
-47296.82636057561
-45750.13087827236
-44224.62665310019
-42699.10317822081
-41178.24984314357
-39615.11702055352
-38063.71241601063
-36380.06270624145
-34802.00369685423
-32824.56027680228
-146867.8181958379
-126890.4045717151
-115462.7655046512
-104277.2158988902
-96355.69040287851
-89247.17287698091
-83627.04013742982
-78673.03532104427
-74552.05396473165
-70827.32292446469
)
;
    }
    right
    {
        type            zeroGradient;
    }
    down
    {
        type            symmetryPlane;
        value           nonuniform List<scalar> 
30
(
54202.54593391348
35604.41024916477
23390.29400109208
12560.60539862687
4407.601195470243
-2625.351029447847
-8323.372834964135
-13289.37632270062
-17437.20544993512
-21230.87541240398
-24312.02583173085
-27249.90763066668
-29838.43667832891
-32241.95800824257
-34455.77073441187
-36529.74100902599
-38489.8082790374
-40359.48289305712
-42162.5202864938
-43916.56226176739
-45639.25111714084
-47348.3442193259
-49054.28904977651
-50782.28754441794
-52526.17771554881
-54342.0319450696
-56165.43824644871
-58168.56426090017
-60067.92302072407
-62466.96407318546
)
;
    }
    up
    {
        type            zeroGradient;
    }
    hole
    {
        type            zeroGradient;
    }
    frontAndBack
    {
        type            empty;
    }
}


// ************************************************************************* //
