/*--------------------------------*- C++ -*----------------------------------*\
| =========                 |                                                 |
| \\      /  F ield         | foam-extend: Open Source CFD                    |
|  \\    /   O peration     | Version:     4.1                                |
|   \\  /    A nd           | Web:         http://www.foam-extend.org         |
|    \\/     M anipulation  |                                                 |
\*---------------------------------------------------------------------------*/
FoamFile
{
    version     2.0;
    format      ascii;
    class       vectorField;
    location    "1";
    object      solidsCellD_iteration1;
}
// * * * * * * * * * * * * * * * * * * * * * * * * * * * * * * * * * * * * * //


1000
(
(2.484787204993859e-07 -1.714938696118163e-08 0)
(2.472845837674444e-07 -1.906114097964063e-08 0)
(2.485306147493857e-07 -2.140021424882653e-08 0)
(2.515949962007651e-07 -2.398262264743711e-08 0)
(2.560334876725001e-07 -2.6795819521327e-08 0)
(2.615642383155817e-07 -2.980360819926743e-08 0)
(2.679088731782207e-07 -3.298979843542344e-08 0)
(2.747929857451036e-07 -3.644398947154738e-08 0)
(2.818349107534602e-07 -4.023875503119954e-08 0)
(2.877098268981855e-07 -4.482789035989645e-08 0)
(2.263878995291737e-07 -1.893073311096896e-08 0)
(2.248744400959592e-07 -2.143115132846327e-08 0)
(2.256726512523965e-07 -2.428912857394422e-08 0)
(2.281991666005279e-07 -2.72795994935601e-08 0)
(2.319427338586246e-07 -3.041048461862762e-08 0)
(2.365662054162359e-07 -3.371936290011316e-08 0)
(2.417935543952257e-07 -3.716791599680911e-08 0)
(2.473301287715257e-07 -4.080840344952568e-08 0)
(2.528748194725069e-07 -4.46190432322267e-08 0)
(2.577130918008087e-07 -4.88117046617662e-08 0)
(2.028952261822817e-07 -2.063676594174527e-08 0)
(2.011431968864251e-07 -2.377683540223774e-08 0)
(2.015465073356681e-07 -2.707738203384552e-08 0)
(2.035443158643861e-07 -3.044087726794204e-08 0)
(2.066297792007262e-07 -3.38344233413843e-08 0)
(2.104556299342235e-07 -3.730184188666503e-08 0)
(2.14770192716319e-07 -4.083508086722787e-08 0)
(2.193672230964197e-07 -4.442132347217461e-08 0)
(2.240434160906631e-07 -4.799291000208621e-08 0)
(2.283989071198761e-07 -5.172996387220835e-08 0)
(1.781714900755317e-07 -2.219357272498202e-08 0)
(1.763422951158138e-07 -2.598011391009716e-08 0)
(1.764349823342963e-07 -2.969409520488029e-08 0)
(1.779540464853267e-07 -3.333738345163808e-08 0)
(1.804329052381467e-07 -3.693630500023367e-08 0)
(1.835867256399355e-07 -4.049740409976507e-08 0)
(1.871762413204863e-07 -4.401952044777713e-08 0)
(1.910607224694028e-07 -4.749989507178889e-08 0)
(1.950933424046795e-07 -5.089024862578454e-08 0)
(1.990273137200673e-07 -5.43197352220948e-08 0)
(1.524204487241801e-07 -2.35703285132297e-08 0)
(1.506539463037269e-07 -2.795802459641909e-08 0)
(1.505080311929639e-07 -3.207165839090656e-08 0)
(1.516160336016722e-07 -3.597097320390541e-08 0)
(1.535888153890566e-07 -3.969421836351583e-08 0)
(1.561578877227493e-07 -4.329723710585373e-08 0)
(1.591254466651064e-07 -4.680682746296561e-08 0)
(1.62378613525813e-07 -5.019353808843788e-08 0)
(1.658398565228282e-07 -5.343997431397487e-08 0)
(1.693138768870733e-07 -5.665085057223782e-08 0)
(1.258075061678373e-07 -2.473818142556689e-08 0)
(1.241823602745096e-07 -2.967357175986925e-08 0)
(1.239297044882695e-07 -3.41044051279505e-08 0)
(1.247251615099107e-07 -3.822078987571197e-08 0)
(1.262643263372457e-07 -4.208244528834913e-08 0)
(1.282901574235205e-07 -4.573950829130513e-08 0)
(1.30683300019502e-07 -4.922043126967146e-08 0)
(1.333496731816285e-07 -5.252682758024541e-08 0)
(1.362335448657613e-07 -5.56724361789523e-08 0)
(1.391856553035568e-07 -5.87328116815054e-08 0)
(9.852970615352881e-08 -2.566270788154281e-08 0)
(9.71359818630832e-08 -3.106232570977832e-08 0)
(9.686342393875543e-08 -3.577965439271179e-08 0)
(9.741570592906756e-08 -4.007946348221454e-08 0)
(9.856033636954531e-08 -4.404838611490521e-08 0)
(1.00097516722079e-07 -4.775951150458564e-08 0)
(1.01944452840462e-07 -5.122450449578149e-08 0)
(1.040325340854563e-07 -5.448666863475409e-08 0)
(1.063144217542474e-07 -5.757318168905167e-08 0)
(1.086795053616583e-07 -6.05374377413025e-08 0)
(7.07463222754834e-08 -2.63445766819716e-08 0)
(6.967295645373957e-08 -3.212183318214824e-08 0)
(6.943794953702665e-08 -3.707744045385418e-08 0)
(6.98102266168358e-08 -4.150521205095512e-08 0)
(7.059286344153795e-08 -4.555464944596808e-08 0)
(7.166951900561827e-08 -4.929751041885335e-08 0)
(7.298389195530018e-08 -5.276693713866894e-08 0)
(7.448611628601503e-08 -5.600605955331107e-08 0)
(7.613654584426547e-08 -5.904025995078997e-08 0)
(7.785814462485724e-08 -6.191415514659161e-08 0)
(4.260854547497076e-08 -2.679358359178276e-08 0)
(4.193646143228558e-08 -3.282403084833026e-08 0)
(4.177617346481778e-08 -3.795642217568657e-08 0)
(4.197445264361491e-08 -4.249566182029141e-08 0)
(4.242049957201215e-08 -4.660005830493539e-08 0)
(4.306329508625031e-08 -5.035446769685151e-08 0)
(4.386351693711903e-08 -5.382954335091938e-08 0)
(4.477334364817983e-08 -5.707060591309338e-08 0)
(4.576498853752564e-08 -6.009970116155882e-08 0)
(4.680657528124976e-08 -6.294556899244022e-08 0)
(1.42418337254822e-08 -2.701364959686342e-08 0)
(1.399739926872212e-08 -3.315355028135737e-08 0)
(1.393482932964297e-08 -3.837998357600803e-08 0)
(1.40066826442817e-08 -4.297773884970815e-08 0)
(1.41617687365571e-08 -4.710209430945247e-08 0)
(1.436923938604865e-08 -5.086061679645827e-08 0)
(1.462732998303294e-08 -5.432470156736618e-08 0)
(1.493177898023888e-08 -5.753965631993941e-08 0)
(1.526667972567974e-08 -6.054144847168353e-08 0)
(1.561522653047236e-08 -6.335255066689624e-08 0)
(3.647740880594998e-07 -7.074368228335526e-10 0)
(3.668877151871948e-07 -6.427907857436569e-10 0)
(3.70822879445686e-07 -6.574336344807579e-10 0)
(3.761815878824617e-07 -7.249575370853919e-10 0)
(3.827245202130096e-07 -8.228615792230241e-10 0)
(3.902547657340787e-07 -9.442187605855567e-10 0)
(3.986168333762336e-07 -1.076966159141677e-09 0)
(4.076251899896238e-07 -1.219634345654803e-09 0)
(4.172301815214205e-07 -1.365006090145324e-09 0)
(4.273097768300359e-07 -1.51220809456387e-09 0)
(3.626327804450848e-07 -2.135108085786161e-09 0)
(3.646368960888515e-07 -1.957781203642278e-09 0)
(3.684903475150742e-07 -2.006454187424888e-09 0)
(3.738220269451474e-07 -2.215434852201662e-09 0)
(3.803599347861812e-07 -2.515290994333336e-09 0)
(3.878682147323588e-07 -2.874507255896628e-09 0)
(3.962225208402647e-07 -3.268584665557321e-09 0)
(4.052219115387052e-07 -3.694355107059307e-09 0)
(4.147946785964574e-07 -4.127275373878669e-09 0)
(4.248496170577384e-07 -4.567307622052194e-09 0)
(3.582997164093291e-07 -3.584970497904602e-09 0)
(3.601507688625883e-07 -3.337077103684879e-09 0)
(3.638877993829837e-07 -3.443799030203867e-09 0)
(3.691563921583425e-07 -3.795692443380608e-09 0)
(3.756675025182928e-07 -4.299933093513148e-09 0)
(3.831763963329366e-07 -4.90874108716929e-09 0)
(3.915319641346393e-07 -5.570264414925464e-09 0)
(4.00554857041827e-07 -6.274302182648131e-09 0)
(4.101636611144429e-07 -6.989586444739459e-09 0)
(4.202801717951339e-07 -7.717136550729397e-09 0)
(3.518112764772067e-07 -5.08135883432171e-09 0)
(3.534386331743818e-07 -4.811319307123656e-09 0)
(3.570024323667309e-07 -5.012974505642008e-09 0)
(3.621776588537785e-07 -5.529414251211844e-09 0)
(3.686210347441494e-07 -6.243340895808966e-09 0)
(3.760777274761834e-07 -7.099759650688509e-09 0)
(3.844093750004751e-07 -8.031769438052179e-09 0)
(3.934621861867402e-07 -9.018290759812093e-09 0)
(4.031033446772409e-07 -1.002632645219073e-08 0)
(4.132859600453241e-07 -1.104202163314277e-08 0)
(3.431636508096944e-07 -6.635481285377955e-09 0)
(3.445103051881628e-07 -6.406610458794534e-09 0)
(3.478668820969387e-07 -6.746068366192193e-09 0)
(3.528815012831295e-07 -7.455207592975056e-09 0)
(3.592421507649967e-07 -8.38882059005614e-09 0)
(3.6667616939281e-07 -9.491245560412548e-09 0)
(3.750071446791752e-07 -1.069394942616442e-08 0)
(3.841070182597073e-07 -1.196093483797685e-08 0)
(3.938166888570527e-07 -1.326442116369181e-08 0)
(4.041293589691996e-07 -1.456892233364665e-08 0)
(3.324050265475652e-07 -8.25794162677401e-09 0)
(3.333644598565063e-07 -8.148334032191772e-09 0)
(3.364820617348809e-07 -8.670026674485824e-09 0)
(3.413202541033071e-07 -9.601262939088235e-09 0)
(3.475674519287323e-07 -1.077030114358621e-08 0)
(3.54947493817131e-07 -1.212426667283715e-08 0)
(3.632684359844524e-07 -1.359413443256263e-08 0)
(3.724073155236337e-07 -1.513531185863525e-08 0)
(3.822208409911494e-07 -1.673059970699598e-08 0)
(3.927605792630331e-07 -1.832165164671489e-08 0)
(3.195604541131768e-07 -9.94606683165912e-09 0)
(3.200760393258568e-07 -1.005071082091065e-08 0)
(3.229133535999388e-07 -1.080474257239691e-08 0)
(3.275506031604676e-07 -1.199362777011946e-08 0)
(3.33640783714624e-07 -1.342315848471354e-08 0)
(3.409261379304378e-07 -1.503511733889358e-08 0)
(3.492210684718292e-07 -1.677130742897813e-08 0)
(3.584082215723691e-07 -1.858772088900792e-08 0)
(3.683874379055487e-07 -2.047973335712997e-08 0)
(3.792931514281045e-07 -2.23621857690756e-08 0)
(3.046694609218106e-07 -1.168865154855644e-08 0)
(3.04719684121166e-07 -1.211761704879696e-08 0)
(3.07211492074841e-07 -1.316769836104371e-08 0)
(3.115876482796156e-07 -1.464809110314811e-08 0)
(3.17456783477736e-07 -1.637331552153137e-08 0)
(3.245853271270833e-07 -1.826224308199758e-08 0)
(3.328037066664059e-07 -2.026747739627269e-08 0)
(3.420265989243461e-07 -2.235314166612092e-08 0)
(3.522140329621524e-07 -2.453996501610232e-08 0)
(3.636448025861027e-07 -2.672185632930481e-08 0)
(2.878000439584288e-07 -1.347337383026236e-08 0)
(2.873849995736956e-07 -1.433697657445723e-08 0)
(2.894896543575838e-07 -1.575075117497659e-08 0)
(2.935204171817158e-07 -1.756294216041825e-08 0)
(2.990842293730664e-07 -1.961685540462635e-08 0)
(3.059386262666741e-07 -2.182352843303952e-08 0)
(3.139433238403231e-07 -2.413458773140002e-08 0)
(3.230597914731606e-07 -2.651997135165548e-08 0)
(3.333340604568443e-07 -2.902705361950901e-08 0)
(3.45365464319287e-07 -3.151951850628229e-08 0)
(2.690603641469456e-07 -1.528131934943892e-08 0)
(2.682219872466273e-07 -1.666430339733791e-08 0)
(2.698874733948017e-07 -1.851301591843925e-08 0)
(2.734724100697403e-07 -2.070526904330341e-08 0)
(2.785709196396939e-07 -2.312863436337821e-08 0)
(2.849141756072707e-07 -2.571546188072017e-08 0)
(2.923921004978801e-07 -2.842684534218184e-08 0)
(3.01022846143231e-07 -3.12504496280971e-08 0)
(3.109752715273124e-07 -3.427686041632424e-08 0)
(3.232425590093912e-07 -3.740099832813718e-08 0)
(4.376691170054194e-07 -1.652504466613615e-09 0)
(4.487963694269697e-07 -1.777783883503699e-09 0)
(4.605426521855331e-07 -1.896213679881563e-09 0)
(4.728515719885115e-07 -2.016753293009277e-09 0)
(4.856815934990241e-07 -2.135144584544792e-09 0)
(4.990220753251038e-07 -2.242602729245124e-09 0)
(5.128530309153778e-07 -2.340543691991088e-09 0)
(5.271190508662894e-07 -2.441247492244241e-09 0)
(5.417668131411451e-07 -2.551674807385861e-09 0)
(5.56770170718173e-07 -2.663527182550178e-09 0)
(5.721051445720544e-07 -2.762742159934779e-09 0)
(5.87737474213431e-07 -2.845536430692752e-09 0)
(6.036344997630469e-07 -2.917345393627561e-09 0)
(6.197664473868673e-07 -2.982484416712833e-09 0)
(6.360963390600799e-07 -3.040438057043676e-09 0)
(6.525866357515053e-07 -3.089353368316689e-09 0)
(6.692149166626474e-07 -3.128640055603206e-09 0)
(6.859551822357094e-07 -3.158392533101545e-09 0)
(7.027598410342263e-07 -3.182043163096035e-09 0)
(7.196446739631883e-07 -3.206519056195705e-09 0)
(4.352207274498449e-07 -4.989904061218116e-09 0)
(4.464180778009002e-07 -5.373993619480536e-09 0)
(4.582628392471909e-07 -5.73452855428903e-09 0)
(4.707016750857273e-07 -6.087262674138864e-09 0)
(4.836954002023007e-07 -6.429245984875634e-09 0)
(4.972145171435739e-07 -6.752271015215104e-09 0)
(5.112272137949904e-07 -7.059380259918816e-09 0)
(5.256803231329535e-07 -7.362957203709433e-09 0)
(5.405141177141003e-07 -7.668853930104125e-09 0)
(5.556882225384624e-07 -7.96754527990885e-09 0)
(5.711756417605703e-07 -8.241146533338116e-09 0)
(5.869559363997543e-07 -8.483777655198883e-09 0)
(6.030074779681408e-07 -8.700858359248058e-09 0)
(6.192928710318176e-07 -8.896213245503211e-09 0)
(6.357623487620773e-07 -9.067701060862803e-09 0)
(6.523770419422419e-07 -9.212174512417019e-09 0)
(6.691088122683235e-07 -9.328575423544643e-09 0)
(6.85925194874176e-07 -9.418549811861997e-09 0)
(7.028310676879812e-07 -9.492850806009651e-09 0)
(7.198313762314657e-07 -9.568557643779476e-09 0)
(4.307547169718272e-07 -8.413216486098165e-09 0)
(4.421564138870517e-07 -9.04418575547221e-09 0)
(4.542406991384442e-07 -9.634277212823703e-09 0)
(4.669153826338186e-07 -1.020754774522452e-08 0)
(4.80142587706826e-07 -1.076314814983231e-08 0)
(4.939084217971014e-07 -1.129379955212285e-08 0)
(5.08184342615464e-07 -1.180287340265701e-08 0)
(5.22905296305033e-07 -1.229818308881639e-08 0)
(5.380020515425912e-07 -1.278097686842354e-08 0)
(5.534432016198138e-07 -1.324312063573934e-08 0)
(5.692149171565614e-07 -1.367102361014884e-08 0)
(5.852911176220399e-07 -1.406103571649291e-08 0)
(6.016280030034992e-07 -1.441603387981148e-08 0)
(6.181764272845895e-07 -1.473518049887057e-08 0)
(6.34907534015493e-07 -1.501322331175507e-08 0)
(6.518038335623342e-07 -1.524500958773624e-08 0)
(6.68799291954511e-07 -1.542974034583017e-08 0)
(6.858726062300821e-07 -1.557624806134067e-08 0)
(7.030256189111261e-07 -1.570457363031966e-08 0)
(7.202489386468334e-07 -1.584068293421483e-08 0)
(4.238956662251005e-07 -1.19909628827884e-08 0)
(4.355888797472179e-07 -1.283596622890761e-08 0)
(4.480486903901882e-07 -1.362910072234308e-08 0)
(4.611484410859971e-07 -1.440787093263745e-08 0)
(4.74832649385018e-07 -1.516745985959882e-08 0)
(4.890579642431902e-07 -1.589411685266956e-08 0)
(5.037740677286757e-07 -1.658975629347487e-08 0)
(5.189171040821712e-07 -1.726028518688309e-08 0)
(5.344352070864419e-07 -1.790827295432309e-08 0)
(5.503039373630636e-07 -1.852316609505671e-08 0)
(5.665075167236932e-07 -1.909206595876677e-08 0)
(5.830095650666772e-07 -1.961259325621444e-08 0)
(5.997529423872186e-07 -2.008499848042814e-08 0)
(6.166874813972821e-07 -2.05053281956633e-08 0)
(6.337963972333975e-07 -2.086888328430855e-08 0)
(6.51063515465107e-07 -2.117136891718425e-08 0)
(6.684160456754038e-07 -2.141548666253674e-08 0)
(6.858656828555893e-07 -2.161885228506689e-08 0)
(7.033765750292486e-07 -2.18083632516967e-08 0)
(7.209144402022832e-07 -2.201598932782774e-08 0)
(4.149631599962031e-07 -1.575720243003634e-08 0)
(4.270836599184265e-07 -1.679293437842735e-08 0)
(4.400637726113546e-07 -1.776920279057143e-08 0)
(4.537110422737464e-07 -1.873905292092398e-08 0)
(4.679604356769951e-07 -1.969043233587311e-08 0)
(4.827640964933048e-07 -2.060275372491864e-08 0)
(4.980746354390239e-07 -2.147728777387394e-08 0)
(5.13806433783105e-07 -2.231174358328749e-08 0)
(5.299021574452125e-07 -2.311220744968416e-08 0)
(5.463334735949976e-07 -2.386514752909271e-08 0)
(5.630762808705513e-07 -2.455531301756918e-08 0)
(5.800904366774536e-07 -2.51797197043806e-08 0)
(5.973303264288026e-07 -2.573819250045607e-08 0)
(6.147750255280333e-07 -2.62286656913818e-08 0)
(6.324074373626496e-07 -2.665065030186103e-08 0)
(6.50152509133242e-07 -2.700547701394113e-08 0)
(6.680016564463547e-07 -2.730233216037697e-08 0)
(6.859014336079282e-07 -2.756360549164372e-08 0)
(7.03870422015492e-07 -2.782141075216666e-08 0)
(7.218338968884832e-07 -2.810227389377955e-08 0)
(4.039564391432376e-07 -1.973919355001479e-08 0)
(4.166876065876958e-07 -2.095076658098962e-08 0)
(4.303949599853197e-07 -2.210215357346297e-08 0)
(4.448022069842575e-07 -2.325951501152889e-08 0)
(4.598332858051568e-07 -2.439698447541311e-08 0)
(4.754035719480738e-07 -2.548420200529191e-08 0)
(4.914628275726438e-07 -2.652189507015263e-08 0)
(5.079166960008265e-07 -2.750163050749807e-08 0)
(5.246997695048849e-07 -2.842621069166857e-08 0)
(5.41795854494312e-07 -2.928326575782158e-08 0)
(5.591880113639541e-07 -3.006150078927927e-08 0)
(5.768282088528522e-07 -3.075824203904983e-08 0)
(5.946645581880494e-07 -3.137313986325855e-08 0)
(6.126903831127325e-07 -3.190859220787373e-08 0)
(6.309009733182611e-07 -3.236880717279117e-08 0)
(6.491895531915743e-07 -3.276179282897882e-08 0)
(6.675863505625786e-07 -3.310400601933499e-08 0)
(6.860137768238966e-07 -3.34182436753864e-08 0)
(7.045207829624681e-07 -3.37355061623248e-08 0)
(7.230079274466695e-07 -3.407075965807137e-08 0)
(3.910468004461378e-07 -2.400526523393009e-08 0)
(4.046253335726404e-07 -2.538208782481454e-08 0)
(4.193097072960641e-07 -2.669710893062098e-08 0)
(4.347149792678536e-07 -2.801873775478416e-08 0)
(4.507391195205374e-07 -2.930592933257147e-08 0)
(4.672648498001243e-07 -3.053362401208852e-08 0)
(4.841966667349683e-07 -3.169276052941059e-08 0)
(5.014664028542368e-07 -3.278376228239121e-08 0)
(5.190264657399716e-07 -3.379898709522303e-08 0)
(5.368673365802381e-07 -3.472308684918873e-08 0)
(5.549727711569074e-07 -3.555263769916243e-08 0)
(5.732951373738674e-07 -3.629039434198183e-08 0)
(5.917967682942269e-07 -3.693806276403575e-08 0)
(6.10473693025212e-07 -3.750118442538487e-08 0)
(6.292863029855959e-07 -3.798751367582923e-08 0)
(6.481737896093524e-07 -3.840943417933633e-08 0)
(6.671769112676378e-07 -3.878630831229813e-08 0)
(6.862054398750092e-07 -3.913745738705654e-08 0)
(7.053167602659773e-07 -3.948421829043722e-08 0)
(7.244045284566439e-07 -3.983850802811555e-08 0)
(3.762989216281861e-07 -2.860876883121738e-08 0)
(3.911367049612277e-07 -3.013813065573529e-08 0)
(4.071682368844619e-07 -3.15879454002778e-08 0)
(4.238731453587715e-07 -3.303056440349408e-08 0)
(4.410974307815486e-07 -3.440724747383676e-08 0)
(4.58745463757485e-07 -3.570973316122954e-08 0)
(4.766954762669569e-07 -3.69230408372699e-08 0)
(4.948858955682228e-07 -3.806039085997011e-08 0)
(5.132981757583978e-07 -3.911093139839735e-08 0)
(5.319377129946887e-07 -4.005933072869305e-08 0)
(5.507860056710471e-07 -4.090711524791992e-08 0)
(5.697876512917904e-07 -4.166118591828623e-08 0)
(5.88924179539618e-07 -4.232667477076848e-08 0)
(6.082277970025088e-07 -4.291016405819869e-08 0)
(6.27641872663404e-07 -4.341932812038957e-08 0)
(6.471460661996327e-07 -4.386628286763923e-08 0)
(6.667701158756579e-07 -4.42658042367542e-08 0)
(6.864254619759885e-07 -4.462963896286157e-08 0)
(7.061879409191746e-07 -4.497183196672382e-08 0)
(7.259563443181586e-07 -4.531618138660517e-08 0)
(3.596668038297431e-07 -3.37198725312663e-08 0)
(3.765176523830269e-07 -3.536507488648763e-08 0)
(3.94462595541605e-07 -3.685209442754027e-08 0)
(4.128403714962733e-07 -3.829017883139768e-08 0)
(4.315040912517814e-07 -3.964407977833725e-08 0)
(4.503816719902872e-07 -4.091188212569631e-08 0)
(4.69400667767936e-07 -4.209494121595796e-08 0)
(4.885364258587469e-07 -4.320611992770837e-08 0)
(5.07801696517142e-07 -4.423211990987503e-08 0)
(5.27215316621433e-07 -4.516079225261187e-08 0)
(5.467655991536417e-07 -4.59963391065422e-08 0)
(5.6641402091662e-07 -4.67476809738668e-08 0)
(5.861683189881418e-07 -4.742223730648282e-08 0)
(6.060653552848057e-07 -4.802435522643794e-08 0)
(6.260388507769153e-07 -4.855663097040557e-08 0)
(6.461158033903586e-07 -4.902710357578713e-08 0)
(6.663275365240148e-07 -4.944280956419273e-08 0)
(6.86605400661275e-07 -4.980558242089763e-08 0)
(7.07021936216247e-07 -5.01308766927545e-08 0)
(7.275044020186256e-07 -5.046177225136367e-08 0)
(3.413552755751338e-07 -3.991629232475436e-08 0)
(3.616912400954589e-07 -4.126443856610406e-08 0)
(3.822930092268429e-07 -4.246416441410524e-08 0)
(4.026697498919666e-07 -4.365741343587594e-08 0)
(4.228733452640218e-07 -4.482070527366039e-08 0)
(4.429679664003294e-07 -4.594305564470791e-08 0)
(4.629848270656644e-07 -4.702329486184704e-08 0)
(4.829690612765544e-07 -4.80547777612912e-08 0)
(5.029790257363835e-07 -4.90188226965602e-08 0)
(5.230631524143252e-07 -4.9903971151424e-08 0)
(5.432219271910708e-07 -5.071329700275017e-08 0)
(5.63427170627751e-07 -5.145523818525131e-08 0)
(5.837104525909662e-07 -5.213672149300112e-08 0)
(6.041068676117728e-07 -5.27576048741377e-08 0)
(6.245588968239715e-07 -5.331438797791747e-08 0)
(6.451362562047921e-07 -5.38102685546335e-08 0)
(6.658469534584617e-07 -5.424457345890892e-08 0)
(6.866628014890429e-07 -5.461638374777159e-08 0)
(7.076574594910176e-07 -5.49487818184436e-08 0)
(7.28814998331536e-07 -5.52878652402295e-08 0)
(3.22365222197461e-07 -4.867596637319145e-08 0)
(3.487044882269059e-07 -4.813931888370025e-08 0)
(3.723414609286411e-07 -4.851270795577622e-08 0)
(3.94656876379833e-07 -4.921306970414309e-08 0)
(4.162173277293518e-07 -5.004567247248835e-08 0)
(4.373381307498312e-07 -5.094024835201324e-08 0)
(4.581808508668815e-07 -5.185264605941877e-08 0)
(4.788572036953254e-07 -5.275056324091198e-08 0)
(4.994608082141005e-07 -5.361053764553343e-08 0)
(5.200646071929867e-07 -5.441780618751043e-08 0)
(5.406774712790273e-07 -5.516970943140166e-08 0)
(5.612831254629925e-07 -5.587168601359332e-08 0)
(5.819463634529611e-07 -5.652899453417128e-08 0)
(6.026990996204442e-07 -5.713694664386699e-08 0)
(6.234823576579787e-07 -5.768705197438381e-08 0)
(6.444012244131677e-07 -5.818030457844243e-08 0)
(6.654348482093617e-07 -5.861243472949197e-08 0)
(6.865866998740356e-07 -5.899107762819808e-08 0)
(7.079135887672299e-07 -5.934324519113844e-08 0)
(7.294434957785472e-07 -5.968540213175293e-08 0)
(3.139642895075761e-07 -5.634316482345814e-08 0)
(3.404317844089459e-07 -5.534625400790458e-08 0)
(3.649330087630806e-07 -5.50697089547392e-08 0)
(3.882413368491881e-07 -5.524989676342529e-08 0)
(4.107144733541506e-07 -5.569980952558512e-08 0)
(4.326203292107094e-07 -5.631293971855111e-08 0)
(4.541402864685866e-07 -5.70038129347977e-08 0)
(4.754033290201974e-07 -5.772302129077867e-08 0)
(4.965178234354505e-07 -5.844100771363993e-08 0)
(5.175698473360153e-07 -5.913548371453622e-08 0)
(5.385718052266293e-07 -5.979513073659361e-08 0)
(5.59520035238427e-07 -6.042073728099085e-08 0)
(5.805023395051949e-07 -6.101560137630276e-08 0)
(6.01542701877366e-07 -6.157089198721402e-08 0)
(6.225898559324034e-07 -6.207608238888951e-08 0)
(6.437662874629943e-07 -6.253428061411619e-08 0)
(6.650276547166387e-07 -6.294333830896332e-08 0)
(6.863985457992158e-07 -6.33198516070926e-08 0)
(7.079048025424497e-07 -6.367752168264693e-08 0)
(7.295685792954153e-07 -6.397548025778378e-08 0)
(3.092114892677347e-07 -6.275528205441313e-08 0)
(3.349771580206638e-07 -6.192951168363248e-08 0)
(3.595320524210513e-07 -6.146637979135361e-08 0)
(3.831921455815307e-07 -6.135173414413111e-08 0)
(4.06149956832767e-07 -6.152025775761375e-08 0)
(4.285709215263903e-07 -6.188943480014531e-08 0)
(4.505931592172747e-07 -6.237130229430138e-08 0)
(4.723176891479754e-07 -6.291499674956513e-08 0)
(4.938496448433171e-07 -6.348826917054454e-08 0)
(5.152792920989298e-07 -6.406323956775643e-08 0)
(5.366133557582892e-07 -6.462055181526526e-08 0)
(5.578553041130945e-07 -6.515609229141293e-08 0)
(5.791105232617464e-07 -6.567250751987145e-08 0)
(6.003940507593795e-07 -6.615905507305263e-08 0)
(6.216651405932294e-07 -6.660629027551667e-08 0)
(6.430468710009935e-07 -6.702151905482233e-08 0)
(6.644867340552015e-07 -6.740785442983406e-08 0)
(6.860188271859225e-07 -6.777759645495642e-08 0)
(7.076419639226275e-07 -6.811110318648018e-08 0)
(7.293735643698403e-07 -6.833011178843501e-08 0)
(3.059476989086465e-07 -6.860787342228238e-08 0)
(3.310703463404762e-07 -6.798271172158102e-08 0)
(3.554416176142357e-07 -6.75355209918933e-08 0)
(3.79174264659766e-07 -6.731031885233756e-08 0)
(4.023601052259089e-07 -6.73151861498081e-08 0)
(4.250995018456008e-07 -6.750591909411696e-08 0)
(4.474735450970524e-07 -6.781817584363264e-08 0)
(4.695408052370415e-07 -6.820869539465067e-08 0)
(4.913973159321994e-07 -6.864644707950102e-08 0)
(5.131328537584998e-07 -6.910326948372866e-08 0)
(5.347428171016988e-07 -6.955579326227544e-08 0)
(5.562332252529349e-07 -6.999762654654887e-08 0)
(5.777214300451617e-07 -7.043333223454584e-08 0)
(5.992120602249992e-07 -7.085131593235306e-08 0)
(6.206786163680886e-07 -7.124359522816635e-08 0)
(6.422307556108575e-07 -7.161961663440125e-08 0)
(6.638115779525307e-07 -7.198245808294674e-08 0)
(6.85465523242155e-07 -7.232768876259867e-08 0)
(7.071754602843785e-07 -7.260227111137922e-08 0)
(7.289533812181938e-07 -7.275623355171936e-08 0)
(3.034732301294672e-07 -7.416132414302446e-08 0)
(3.281169047231525e-07 -7.370030965116754e-08 0)
(3.522596633689821e-07 -7.333647915528428e-08 0)
(3.7595832093374e-07 -7.309767127916444e-08 0)
(3.992351763613005e-07 -7.301931308536809e-08 0)
(4.221617982096972e-07 -7.309320428342056e-08 0)
(4.447676004780558e-07 -7.328110462062146e-08 0)
(4.670744671093162e-07 -7.354742443606451e-08 0)
(4.891715300386071e-07 -7.386553771458383e-08 0)
(5.111458025635393e-07 -7.421306131829075e-08 0)
(5.329783286679225e-07 -7.456679796959468e-08 0)
(5.546751432887064e-07 -7.492107129140655e-08 0)
(5.76359887755035e-07 -7.52850761661539e-08 0)
(5.980226225629689e-07 -7.564623876343869e-08 0)
(6.196538689356003e-07 -7.599501737904318e-08 0)
(6.413484166669568e-07 -7.633792838629677e-08 0)
(6.630440188704476e-07 -7.667005715544126e-08 0)
(6.847909025800916e-07 -7.696917258807585e-08 0)
(7.065664259624545e-07 -7.717802556721636e-08 0)
(7.283786830804031e-07 -7.732602890351325e-08 0)
(3.014667071744015e-07 -7.954639421336517e-08 0)
(3.257564327895941e-07 -7.922383921155951e-08 0)
(3.497093759458367e-07 -7.894595773249412e-08 0)
(3.733357329967319e-07 -7.873384650129893e-08 0)
(3.966361681411907e-07 -7.862525028548229e-08 0)
(4.196695185416157e-07 -7.863549031166872e-08 0)
(4.424241316233018e-07 -7.874402039750506e-08 0)
(4.648947761895987e-07 -7.892067500798333e-08 0)
(4.871668229521454e-07 -7.914417054261307e-08 0)
(5.093238964871901e-07 -7.940147695025862e-08 0)
(5.313324991686087e-07 -7.967147682052732e-08 0)
(5.531989145760007e-07 -7.995084984317678e-08 0)
(5.750488980527133e-07 -8.025461050622949e-08 0)
(5.968547644290873e-07 -8.056934617081944e-08 0)
(6.186242705816154e-07 -8.088083365447033e-08 0)
(6.404324534330712e-07 -8.118618552675869e-08 0)
(6.622222518789627e-07 -8.147234860826822e-08 0)
(6.840400734002202e-07 -8.171344307149176e-08 0)
(7.058639947595465e-07 -8.188677081463387e-08 0)
(7.277021867764016e-07 -8.20599184934839e-08 0)
(2.997888440278852e-07 -8.483340968391111e-08 0)
(3.238158241429402e-07 -8.462024930801905e-08 0)
(3.476276892884357e-07 -8.441582841590983e-08 0)
(3.711684562626788e-07 -8.424941596959957e-08 0)
(3.944591504406308e-07 -8.415017770414232e-08 0)
(4.175486344372655e-07 -8.413910805673279e-08 0)
(4.403965683234881e-07 -8.420550242691402e-08 0)
(4.629781890832453e-07 -8.43241901728901e-08 0)
(4.853766743262811e-07 -8.447887478537906e-08 0)
(5.076722003279618e-07 -8.466815129235094e-08 0)
(5.298184717164307e-07 -8.487273138056608e-08 0)
(5.51823410478914e-07 -8.509127886409082e-08 0)
(5.738103196349108e-07 -8.534172169667166e-08 0)
(5.95732319713577e-07 -8.560955582700485e-08 0)
(6.176158574394564e-07 -8.587717193886651e-08 0)
(6.395134676332135e-07 -8.613119208828553e-08 0)
(6.613760493451108e-07 -8.635879230266638e-08 0)
(6.832467580418735e-07 -8.654968591414899e-08 0)
(7.051060653899102e-07 -8.672203617618623e-08 0)
(7.269640858355796e-07 -8.687255282397785e-08 0)
(2.983744913586934e-07 -9.004578744443467e-08 0)
(3.222170392250806e-07 -8.991038670811653e-08 0)
(3.459141573435575e-07 -8.977336792202396e-08 0)
(3.693698167749331e-07 -8.966288478256449e-08 0)
(3.926326474021781e-07 -8.959582340591699e-08 0)
(4.15743762457452e-07 -8.958601309971572e-08 0)
(4.386460877862119e-07 -8.963012063847889e-08 0)
(4.613007939276926e-07 -8.970996910557377e-08 0)
(4.837895344622669e-07 -8.981351145459087e-08 0)
(5.061887351812282e-07 -8.995394429392268e-08 0)
(5.284414983207979e-07 -9.011221646343736e-08 0)
(5.505586760448794e-07 -9.028733695829747e-08 0)
(5.726575676812643e-07 -9.049340992174606e-08 0)
(5.946749303447525e-07 -9.071271719895183e-08 0)
(6.16646945049592e-07 -9.092909528219102e-08 0)
(6.386126615558442e-07 -9.112746661567142e-08 0)
(6.605287156130192e-07 -9.130479677843655e-08 0)
(6.824376125310681e-07 -9.146951772413783e-08 0)
(7.043227660307381e-07 -9.163746566231087e-08 0)
(7.261961033028845e-07 -9.170912600942632e-08 0)
(2.971753428956366e-07 -9.51939768795026e-08 0)
(3.20892573704356e-07 -9.511670107689408e-08 0)
(3.444905317252651e-07 -9.503979639105241e-08 0)
(3.678710669078278e-07 -9.498127941157946e-08 0)
(3.910966350999876e-07 -9.494656954984888e-08 0)
(4.142067080852257e-07 -9.494043972042761e-08 0)
(4.371364806183446e-07 -9.4968509252173e-08 0)
(4.598374864089187e-07 -9.502198584462969e-08 0)
(4.823908086244754e-07 -9.509021724797625e-08 0)
(5.048685779932631e-07 -9.520294125220968e-08 0)
(5.272051060421281e-07 -9.53385296453489e-08 0)
(5.494131523405932e-07 -9.549389851435674e-08 0)
(5.715982498763723e-07 -9.567284922239612e-08 0)
(5.936910206884151e-07 -9.585270191487334e-08 0)
(6.157284570569123e-07 -9.602385995407867e-08 0)
(6.37743822727713e-07 -9.618149073850069e-08 0)
(6.596980102352342e-07 -9.633346236924028e-08 0)
(6.81634154182523e-07 -9.648715425682808e-08 0)
(7.035385117619758e-07 -9.660818206696769e-08 0)
(7.254235597052673e-07 -9.663734863497452e-08 0)
(2.961614430632397e-07 -1.003017988246163e-07 0)
(3.197868651414066e-07 -1.002773251916224e-07 0)
(3.433011358850644e-07 -1.002438157559857e-07 0)
(3.666174035524317e-07 -1.002200883594996e-07 0)
(3.898014073558932e-07 -1.002064048231148e-07 0)
(4.128971054375532e-07 -1.002029537967651e-07 0)
(4.358369216502994e-07 -1.002246351240794e-07 0)
(4.585663335418293e-07 -1.002715016452893e-07 0)
(4.811665917499455e-07 -1.003277131995833e-07 0)
(5.037039372911337e-07 -1.004349457635454e-07 0)
(5.261052486050997e-07 -1.005677748841244e-07 0)
(5.483856367418206e-07 -1.007194893484283e-07 0)
(5.706342889338041e-07 -1.008828842158566e-07 0)
(5.927817643928682e-07 -1.010330603414261e-07 0)
(6.14864201458668e-07 -1.011702814496926e-07 0)
(6.369148637097522e-07 -1.013027940721028e-07 0)
(6.588966591761767e-07 -1.014399927459377e-07 0)
(6.808528186283691e-07 -1.015649511629267e-07 0)