/*--------------------------------*- C++ -*----------------------------------*\
| =========                 |                                                 |
| \\      /  F ield         | foam-extend: Open Source CFD                    |
|  \\    /   O peration     | Version:     4.1                                |
|   \\  /    A nd           | Web:         http://www.foam-extend.org         |
|    \\/     M anipulation  |                                                 |
\*---------------------------------------------------------------------------*/
FoamFile
{
    version     2.0;
    format      ascii;
    class       volScalarField;
    location    "9";
    object      epsilonEq;
}
// * * * * * * * * * * * * * * * * * * * * * * * * * * * * * * * * * * * * * //

dimensions      [0 0 0 0 0 0 0];

internalField   nonuniform List<scalar> 
1000
(
4.1477e-06
4.72934e-06
5.19474e-06
5.5472e-06
5.71099e-06
5.77497e-06
5.76532e-06
5.7114e-06
5.63889e-06
5.53723e-06
5.19189e-06
5.27596e-06
5.47934e-06
5.69839e-06
5.79044e-06
5.81519e-06
5.78164e-06
5.71675e-06
5.62677e-06
5.5347e-06
6.20943e-06
5.81866e-06
5.73323e-06
5.79222e-06
5.79513e-06
5.76976e-06
5.70648e-06
5.62522e-06
5.5226e-06
5.42718e-06
7.16908e-06
6.33819e-06
5.9559e-06
5.83712e-06
5.73719e-06
5.65319e-06
5.55568e-06
5.45658e-06
5.34304e-06
5.24672e-06
8.04393e-06
6.81697e-06
6.14641e-06
5.84219e-06
5.63024e-06
5.48078e-06
5.34573e-06
5.22718e-06
5.10522e-06
5.00777e-06
8.81063e-06
7.23997e-06
6.30479e-06
5.81909e-06
5.49221e-06
5.27352e-06
5.09848e-06
4.95908e-06
4.8294e-06
4.73e-06
9.44909e-06
7.5942e-06
6.43096e-06
5.77991e-06
5.34323e-06
5.05593e-06
4.84058e-06
4.67954e-06
4.54262e-06
4.43988e-06
9.94277e-06
7.86936e-06
6.52549e-06
5.73731e-06
5.20537e-06
4.85621e-06
4.60355e-06
4.42178e-06
4.27809e-06
4.17103e-06
1.0279e-05
8.05727e-06
6.5882e-06
5.7017e-06
5.09888e-06
4.70209e-06
4.41991e-06
4.22121e-06
4.07197e-06
3.96071e-06
1.04475e-05
8.15049e-06
6.61657e-06
5.67822e-06
5.03709e-06
4.61399e-06
4.31519e-06
4.10678e-06
3.95431e-06
3.84058e-06
3.81017e-06
2.52414e-06
1.80758e-06
1.50986e-06
1.40259e-06
1.4232e-06
1.50004e-06
1.61099e-06
1.73068e-06
1.85221e-06
3.65021e-06
2.51487e-06
1.9721e-06
1.81506e-06
1.78574e-06
1.82962e-06
1.89784e-06
1.98474e-06
2.07196e-06
2.16875e-06
3.32891e-06
2.50189e-06
2.25279e-06
2.28392e-06
2.34405e-06
2.41571e-06
2.47775e-06
2.54068e-06
2.59162e-06
2.65979e-06
2.86639e-06
2.51121e-06
2.60632e-06
2.8141e-06
2.9508e-06
3.04737e-06
3.10624e-06
3.15052e-06
3.1711e-06
3.21426e-06
2.29501e-06
2.57257e-06
2.99627e-06
3.34815e-06
3.54465e-06
3.66074e-06
3.71709e-06
3.7461e-06
3.74197e-06
3.7634e-06
1.68829e-06
2.71388e-06
3.39769e-06
3.85449e-06
4.0933e-06
4.22225e-06
4.27509e-06
4.29036e-06
4.26592e-06
4.26753e-06
1.26208e-06
2.95292e-06
3.79543e-06
4.31543e-06
4.57842e-06
4.71268e-06
4.76007e-06
4.76238e-06
4.72125e-06
4.70422e-06
1.43449e-06
3.29048e-06
4.17924e-06
4.71943e-06
4.98748e-06
5.11843e-06
5.15778e-06
5.14699e-06
5.09345e-06
5.05773e-06
2.16345e-06
3.71363e-06
4.54309e-06
5.06091e-06
5.31443e-06
5.43331e-06
5.4613e-06
5.43833e-06
5.37568e-06
5.32533e-06
3.11707e-06
4.20103e-06
4.8823e-06
5.33614e-06
5.55433e-06
5.64995e-06
5.66101e-06
5.62138e-06
5.55532e-06
5.47652e-06
1.97665e-06
2.08028e-06
2.17819e-06
2.26726e-06
2.34567e-06
2.41454e-06
2.47303e-06
2.52163e-06
2.56012e-06
2.58859e-06
2.60679e-06
2.61455e-06
2.61122e-06
2.59658e-06
2.56902e-06
2.52903e-06
2.47242e-06
2.40357e-06
2.3095e-06
2.21191e-06
2.24807e-06
2.30094e-06
2.36136e-06
2.41901e-06
2.47211e-06
2.52031e-06
2.56194e-06
2.59665e-06
2.6237e-06
2.64266e-06
2.65295e-06
2.65409e-06
2.64522e-06
2.62593e-06
2.59453e-06
2.55138e-06
2.49229e-06
2.42156e-06
2.32644e-06
2.22847e-06
2.68052e-06
2.66366e-06
2.66885e-06
2.67866e-06
2.6916e-06
2.70614e-06
2.71961e-06
2.73074e-06
2.73807e-06
2.74045e-06
2.73683e-06
2.72625e-06
2.70756e-06
2.68005e-06
2.64184e-06
2.59314e-06
2.52977e-06
2.45589e-06
2.3592e-06
2.26082e-06
3.18136e-06
3.09801e-06
3.04629e-06
3.0051e-06
2.97308e-06
2.94857e-06
2.92837e-06
2.91049e-06
2.89303e-06
2.87416e-06
2.85244e-06
2.82642e-06
2.79463e-06
2.75607e-06
2.7087e-06
2.65251e-06
2.58341e-06
2.50537e-06
2.40682e-06
2.30826e-06
3.68638e-06
3.54894e-06
3.44644e-06
3.3587e-06
3.28373e-06
3.22048e-06
3.16592e-06
3.11756e-06
3.0735e-06
3.03138e-06
2.98954e-06
2.94615e-06
2.89949e-06
2.8483e-06
2.79041e-06
2.72566e-06
2.65012e-06
2.56755e-06
2.46735e-06
2.36925e-06
4.15619e-06
3.98033e-06
3.83691e-06
3.71072e-06
3.59905e-06
3.50107e-06
3.41499e-06
3.33769e-06
3.26775e-06
3.20248e-06
3.14019e-06
3.07884e-06
3.01662e-06
2.95207e-06
2.88304e-06
2.80923e-06
2.727e-06
2.63995e-06
2.5387e-06
2.44214e-06
4.56806e-06
4.36964e-06
4.1968e-06
4.04024e-06
3.89937e-06
3.77167e-06
3.65813e-06
3.55484e-06
3.46126e-06
3.37449e-06
3.29298e-06
3.21459e-06
3.13749e-06
3.06014e-06
2.98046e-06
2.89809e-06
2.80978e-06
2.71902e-06
2.61784e-06
2.52413e-06
4.9059e-06
4.70043e-06
4.51454e-06
4.33727e-06
4.1772e-06
4.0271e-06
3.89182e-06
3.76689e-06
3.65262e-06
3.54644e-06
3.44703e-06
3.35246e-06
3.26099e-06
3.17119e-06
3.08112e-06
2.99047e-06
2.89651e-06
2.80264e-06
2.70253e-06
2.61313e-06
5.16862e-06
4.96041e-06
4.77694e-06
4.58568e-06
4.41271e-06
4.24615e-06
4.09374e-06
3.95195e-06
3.82119e-06
3.69955e-06
3.58571e-06
3.47801e-06
3.37483e-06
3.27486e-06
3.17644e-06
3.07937e-06
2.98155e-06
2.88633e-06
2.78912e-06
2.70548e-06
5.34704e-06
5.15006e-06
4.98759e-06
4.8013e-06
4.62464e-06
4.4508e-06
4.28615e-06
4.13074e-06
3.98527e-06
3.84911e-06
3.72137e-06
3.60082e-06
3.4861e-06
3.37612e-06
3.26948e-06
3.16616e-06
3.06474e-06
2.96863e-06
2.87508e-06
2.79856e-06
5.4162e-06
5.2159e-06
5.06125e-06
4.8901e-06
4.71994e-06
4.55197e-06
4.3895e-06
4.23384e-06
4.08591e-06
3.94576e-06
3.81305e-06
3.68714e-06
3.56718e-06
3.45256e-06
3.3424e-06
3.23706e-06
3.13588e-06
3.04232e-06
2.95525e-06
2.88731e-06
5.27852e-06
5.15939e-06
5.02045e-06
4.87295e-06
4.7197e-06
4.56574e-06
4.41389e-06
4.26606e-06
4.12356e-06
3.98691e-06
3.85629e-06
3.73155e-06
3.61236e-06
3.49856e-06
3.38983e-06
3.28693e-06
3.18991e-06
3.10235e-06
3.02453e-06
2.96768e-06
5.16532e-06
5.06715e-06
4.95592e-06
4.82937e-06
4.6948e-06
4.55591e-06
4.41633e-06
4.27814e-06
4.14309e-06
4.01206e-06
3.88568e-06
3.76422e-06
3.64779e-06
3.53668e-06
3.43104e-06
3.33201e-06
3.24026e-06
3.15943e-06
3.09091e-06
3.04424e-06
5.03675e-06
4.96151e-06
4.87108e-06
4.76284e-06
4.64556e-06
4.52144e-06
4.39472e-06
4.2673e-06
4.14124e-06
4.01766e-06
3.8975e-06
3.78139e-06
3.66981e-06
3.56339e-06
3.46273e-06
3.36925e-06
3.28416e-06
3.21103e-06
3.15213e-06
3.11536e-06
4.89777e-06
4.84115e-06
4.77003e-06
4.67949e-06
4.57921e-06
4.47007e-06
4.35672e-06
4.24089e-06
4.12489e-06
4.01e-06
3.89744e-06
3.78808e-06
3.68274e-06
3.58233e-06
3.48781e-06
3.40081e-06
3.32297e-06
3.25773e-06
3.208e-06
3.1802e-06
4.75486e-06
4.71425e-06
4.65937e-06
4.58447e-06
4.49958e-06
4.40465e-06
4.30446e-06
4.20049e-06
4.09519e-06
3.98988e-06
3.88598e-06
3.78455e-06
3.68664e-06
3.59338e-06
3.50602e-06
3.42631e-06
3.35622e-06
3.29898e-06
3.25794e-06
3.23814e-06
4.61136e-06
4.584e-06
4.543e-06
4.48221e-06
4.41142e-06
4.32996e-06
4.24253e-06
4.15041e-06
4.05605e-06
3.96081e-06
3.86621e-06
3.77343e-06
3.68371e-06
3.59832e-06
3.5187e-06
3.44669e-06
3.38445e-06
3.33495e-06
3.30183e-06
3.28889e-06
4.47027e-06
4.4537e-06
4.42431e-06
4.37587e-06
4.31766e-06
4.24868e-06
4.17336e-06
4.0928e-06
4.00939e-06
3.92445e-06
3.83954e-06
3.75592e-06
3.67491e-06
3.59787e-06
3.52637e-06
3.46226e-06
3.40779e-06
3.36567e-06
3.33962e-06
3.33239e-06
4.3334e-06
4.3254e-06
4.30566e-06
4.26803e-06
4.22107e-06
4.16361e-06
4.0997e-06
4.0303e-06
3.95765e-06
3.88302e-06
3.80796e-06
3.73371e-06
3.66166e-06
3.59319e-06
3.52992e-06
3.47367e-06
3.4267e-06
3.39141e-06
3.37151e-06
3.36883e-06
4.20175e-06
4.2005e-06
4.18874e-06
4.16051e-06
4.12358e-06
4.07667e-06
4.02345e-06
3.96471e-06
3.90252e-06
3.83806e-06
3.7728e-06
3.70798e-06
3.64494e-06
3.58508e-06
3.52999e-06
3.4814e-06
3.44152e-06
3.41245e-06
3.39777e-06
3.39856e-06
4.07575e-06
4.07986e-06
4.07471e-06
4.05471e-06
4.02676e-06
3.98955e-06
3.94632e-06
3.89773e-06
3.84561e-06
3.79106e-06
3.73544e-06
3.67992e-06
3.6258e-06
3.57441e-06
3.52727e-06
3.48602e-06
3.45272e-06
3.42922e-06
3.41883e-06
3.4221e-06
3.95542e-06
3.96387e-06
3.96436e-06
3.95166e-06
3.93183e-06
3.90358e-06
3.8697e-06
3.83072e-06
3.78826e-06
3.74328e-06
3.69701e-06
3.65055e-06
3.60509e-06
3.56189e-06
3.52238e-06
3.48803e-06
3.46077e-06
3.44214e-06
3.43521e-06
3.44006e-06
3.84054e-06
3.85287e-06
3.8582e-06
3.8521e-06
3.83978e-06
3.81988e-06
3.7948e-06
3.76493e-06
3.73166e-06
3.69583e-06
3.65855e-06
3.62078e-06
3.58363e-06
3.54824e-06
3.51591e-06
3.48796e-06
3.46614e-06
3.45173e-06
3.44744e-06
3.45311e-06
3.73087e-06
3.74662e-06
3.75664e-06
3.75687e-06
3.7516e-06
3.73959e-06
3.7228e-06
3.70153e-06
3.67696e-06
3.64981e-06
3.62103e-06
3.59149e-06
3.56218e-06
3.53411e-06
3.50844e-06
3.48634e-06
3.46933e-06
3.45848e-06
3.45615e-06
3.46198e-06
3.62602e-06
3.64602e-06
3.66017e-06
3.66643e-06
3.6681e-06
3.66366e-06
3.65475e-06
3.64162e-06
3.62523e-06
3.6062e-06
3.58536e-06
3.56348e-06
3.54142e-06
3.52007e-06
3.50048e-06
3.48362e-06
3.47081e-06
3.46292e-06
3.4619e-06
3.46737e-06
3.52663e-06
3.54929e-06
3.56915e-06
3.58255e-06
3.59078e-06
3.59364e-06
3.59213e-06
3.58659e-06
3.57775e-06
3.56617e-06
3.55256e-06
3.53759e-06
3.52206e-06
3.50674e-06
3.49252e-06
3.48025e-06
3.47103e-06
3.46553e-06
3.46532e-06
3.47002e-06
3.4308e-06
3.46894e-06
3.48542e-06
3.50666e-06
3.5207e-06
3.53079e-06
3.53616e-06
3.53766e-06
3.53564e-06
3.5307e-06
3.52343e-06
3.5145e-06
3.5046e-06
3.49445e-06
3.48484e-06
3.47648e-06
3.47025e-06
3.46666e-06
3.46687e-06
3.47053e-06
3.34319e-06
3.37868e-06
3.41186e-06
3.43821e-06
3.46005e-06
3.47686e-06
3.48899e-06
3.49678e-06
3.50071e-06
3.50133e-06
3.49926e-06
3.49516e-06
3.48975e-06
3.48371e-06
3.47777e-06
3.47254e-06
3.46871e-06
3.46665e-06
3.4671e-06
3.46968e-06
3.26245e-06
3.30726e-06
3.34696e-06
3.38122e-06
3.41059e-06
3.43414e-06
3.45238e-06
3.46556e-06
3.47424e-06
3.47903e-06
3.48065e-06
3.47987e-06
3.47746e-06
3.4742e-06
3.47082e-06
3.46791e-06
3.46604e-06
3.46535e-06
3.46619e-06
3.46793e-06
3.1958e-06
3.25017e-06
3.29925e-06
3.34172e-06
3.37788e-06
3.40729e-06
3.43034e-06
3.44736e-06
3.45902e-06
3.46606e-06
3.46938e-06
3.46991e-06
3.46862e-06
3.46643e-06
3.4642e-06
3.46257e-06
3.4621e-06
3.46275e-06
3.46458e-06
3.46635e-06
3.75892e-06
3.87075e-06
4.06673e-06
4.3188e-06
4.59296e-06
4.85807e-06
5.08924e-06
5.26887e-06
5.39107e-06
5.43797e-06
3.69068e-06
3.78885e-06
3.96261e-06
4.18999e-06
4.44326e-06
4.696e-06
4.92583e-06
5.11207e-06
5.24801e-06
5.31242e-06
3.63538e-06
3.72128e-06
3.8739e-06
4.07547e-06
4.30299e-06
4.53419e-06
4.75189e-06
4.93833e-06
5.09259e-06
5.19316e-06
3.58963e-06
3.66443e-06
3.79811e-06
3.97651e-06
4.18071e-06
4.39129e-06
4.59344e-06
4.77037e-06
4.92169e-06
5.04294e-06
3.54876e-06
3.61372e-06
3.73031e-06
3.88729e-06
4.06922e-06
4.25986e-06
4.44689e-06
4.61622e-06
4.76256e-06
4.89086e-06
3.51173e-06
3.5681e-06
3.66966e-06
3.80742e-06
3.96858e-06
4.13946e-06
4.30908e-06
4.46719e-06
4.60476e-06
4.73507e-06
3.47614e-06
3.52505e-06
3.61348e-06
3.7343e-06
3.87684e-06
4.02991e-06
4.18324e-06
4.32989e-06
4.45705e-06
4.58243e-06
3.44096e-06
3.48341e-06
3.56038e-06
3.66618e-06
3.79178e-06
3.92814e-06
4.06558e-06
4.20013e-06
4.31698e-06
4.43499e-06
3.40489e-06
3.4418e-06
3.50889e-06
3.60164e-06
3.71233e-06
3.83371e-06
3.9566e-06
4.07903e-06
4.18555e-06
4.29434e-06
3.36701e-06
3.39915e-06
3.4577e-06
3.53904e-06
3.63654e-06
3.74438e-06
3.85402e-06
3.96479e-06
4.06166e-06
4.16086e-06
3.32631e-06
3.35439e-06
3.40565e-06
3.47718e-06
3.56324e-06
3.65911e-06
3.75694e-06
3.85675e-06
3.94462e-06
4.03439e-06
3.28193e-06
3.30655e-06
3.3516e-06
3.41473e-06
3.49092e-06
3.57631e-06
3.6638e-06
3.75364e-06
3.8334e-06
3.91444e-06
3.23274e-06
3.25446e-06
3.29432e-06
3.35037e-06
3.41824e-06
3.49465e-06
3.57328e-06
3.65434e-06
3.72699e-06
3.80021e-06
3.17789e-06
3.1972e-06
3.2328e-06
3.28301e-06
3.344e-06
3.41293e-06
3.48423e-06
3.55786e-06
3.62456e-06
3.69118e-06
3.11563e-06
3.13303e-06
3.16527e-06
3.21086e-06
3.26646e-06
3.32949e-06
3.39505e-06
3.46282e-06
3.52496e-06
3.58625e-06
3.04545e-06
3.0614e-06
3.09115e-06
3.13334e-06
3.185e-06
3.24375e-06
3.30531e-06
3.36895e-06
3.42821e-06
3.48611e-06
2.96376e-06
2.97876e-06
3.00698e-06
3.04712e-06
3.09652e-06
3.15291e-06
3.21243e-06
3.27424e-06
3.33237e-06
3.38994e-06
2.87205e-06
2.88662e-06
2.91429e-06
2.95377e-06
3.00261e-06
3.05857e-06
3.11819e-06
3.18003e-06
3.23949e-06
3.29705e-06
2.76063e-06
2.77548e-06
2.80396e-06
2.84475e-06
2.89551e-06
2.95398e-06
3.01691e-06
3.08236e-06
3.14663e-06
3.20844e-06
2.64099e-06
2.65684e-06
2.68741e-06
2.73131e-06
2.78627e-06
2.84997e-06
2.9191e-06
2.99147e-06
3.0634e-06
3.13299e-06
)
;

boundaryField
{
    left
    {
        type            symmetryPlane;
        value           nonuniform List<scalar> 
30
(
3.75632e-06
3.6884e-06
3.63338e-06
3.58788e-06
3.54725e-06
3.51043e-06
3.47501e-06
3.43999e-06
3.40405e-06
3.36629e-06
3.32569e-06
3.2814e-06
3.23229e-06
3.17752e-06
3.11534e-06
3.04522e-06
2.9636e-06
2.87195e-06
2.76059e-06
2.64098e-06
1.0425e-05
8.14313e-06
6.6149e-06
5.67814e-06
5.03689e-06
4.61311e-06
4.31361e-06
4.10467e-06
3.95189e-06
3.83788e-06
)
;
    }
    right
    {
        type            calculated;
        value           nonuniform List<scalar> 
30
(
2.20575e-06
2.22224e-06
2.25457e-06
2.30199e-06
2.36298e-06
2.43598e-06
2.5181e-06
2.60747e-06
2.69999e-06
2.79389e-06
2.88288e-06
2.96411e-06
3.04136e-06
3.11311e-06
3.17854e-06
3.23697e-06
3.28815e-06
3.33199e-06
3.3687e-06
3.39863e-06
3.42231e-06
3.44035e-06
3.45344e-06
3.46232e-06
3.46768e-06
3.47028e-06
3.47073e-06
3.46983e-06
3.46802e-06
3.46657e-06
)
;
    }
    down
    {
        type            symmetryPlane;
        value           nonuniform List<scalar> 
30
(
3.80592e-06
2.52286e-06
1.79497e-06
1.48289e-06
1.36625e-06
1.3847e-06
1.46376e-06
1.57881e-06
1.70313e-06
1.82803e-06
1.95735e-06
2.06563e-06
2.16672e-06
2.25826e-06
2.33854e-06
2.40883e-06
2.46844e-06
2.51789e-06
2.55707e-06
2.58609e-06
2.60474e-06
2.61288e-06
2.60987e-06
2.5955e-06
2.56818e-06
2.52841e-06
2.472e-06
2.40332e-06
2.30939e-06
2.2119e-06
)
;
    }
    up
    {
        type            calculated;
        value           nonuniform List<scalar> 
30
(
2.63722e-06
2.65304e-06
2.68363e-06
2.72757e-06
2.78257e-06
2.84638e-06
2.91564e-06
2.98824e-06
3.0603e-06
3.13033e-06
3.19339e-06
3.24818e-06
3.29757e-06
3.34032e-06
3.37675e-06
3.40638e-06
3.42962e-06
3.44678e-06
3.45855e-06
3.46567e-06
3.46904e-06
3.46962e-06
3.46837e-06
3.46621e-06
3.46402e-06
3.46243e-06
3.462e-06
3.46268e-06
3.46454e-06
3.46618e-06
)
;
    }
    hole
    {
        type            calculated;
        value           nonuniform List<scalar> 
20
(
4.02061e-06
5.15968e-06
6.25587e-06
7.28263e-06
8.21493e-06
9.02992e-06
9.70749e-06
1.02309e-05
1.05869e-05
1.0766e-05
3.93771e-06
3.75732e-06
3.39588e-06
2.86474e-06
2.17812e-06
1.35352e-06
4.12119e-07
6.22406e-07
1.72423e-06
2.86627e-06
)
;
    }
    frontAndBack
    {
        type            empty;
    }
}


// ************************************************************************* //
