/*--------------------------------*- C++ -*----------------------------------*\
| =========                 |                                                 |
| \\      /  F ield         | foam-extend: Open Source CFD                    |
|  \\    /   O peration     | Version:     4.1                                |
|   \\  /    A nd           | Web:         http://www.foam-extend.org         |
|    \\/     M anipulation  |                                                 |
\*---------------------------------------------------------------------------*/
FoamFile
{
    version     2.0;
    format      ascii;
    class       volSymmTensorField;
    location    "9";
    object      epsilon;
}
// * * * * * * * * * * * * * * * * * * * * * * * * * * * * * * * * * * * * * //

dimensions      [0 0 0 0 0 0 0];

internalField   nonuniform List<symmTensor> 
1000
(
(2.93448e-06 -3.1698e-06 -1.57173e-21 1.59089e-08 -2.98415e-21 -6.19264e-36)
(4.58296e-06 -2.46097e-06 8.88592e-21 -1.75862e-06 1.92241e-21 0)
(5.36731e-06 -1.95334e-06 -9.65922e-21 -2.57603e-06 -6.89025e-21 0)
(5.82804e-06 -1.59528e-06 -3.70327e-21 -3.0965e-06 -8.51994e-22 0)
(6.05224e-06 -1.32282e-06 -6.21599e-22 -3.35062e-06 1.65867e-22 0)
(6.14724e-06 -1.11822e-06 3.8992e-21 -3.47967e-06 2.48629e-21 0)
(6.16362e-06 -9.55656e-07 -6.97991e-21 -3.51782e-06 -3.92141e-21 0)
(6.12862e-06 -8.2933e-07 1.52962e-21 -3.50545e-06 9.17722e-22 0)
(6.07662e-06 -7.22748e-07 -2.79427e-21 -3.46417e-06 -1.64302e-21 0)
(5.98542e-06 -6.31406e-07 -3.44931e-21 -3.40432e-06 -2.17202e-21 0)
(4.01908e-06 -3.80921e-06 4.41218e-21 -2.27698e-07 -2.58387e-21 1.7052e-36)
(5.35611e-06 -2.62009e-06 -8.92278e-21 -1.85183e-06 -2.36181e-21 0)
(5.946e-06 -1.85045e-06 -8.24997e-21 -2.57348e-06 -2.2116e-21 0)
(6.26724e-06 -1.34266e-06 -6.42905e-21 -3.04654e-06 -4.42738e-21 0)
(6.39476e-06 -9.87993e-07 -1.4063e-21 -3.27121e-06 -1.25355e-21 0)
(6.41874e-06 -7.42508e-07 5.59164e-21 -3.38857e-06 3.28753e-21 0)
(6.38179e-06 -5.62907e-07 -6.54129e-21 -3.42088e-06 -4.46968e-21 0)
(6.30828e-06 -4.36227e-07 2.65288e-21 -3.41215e-06 2.24479e-21 0)
(6.21626e-06 -3.3673e-07 -4.94099e-21 -3.36602e-06 -3.83172e-21 0)
(6.11026e-06 -2.65751e-07 -1.82709e-21 -3.32537e-06 -2.04313e-21 0)
(5.27962e-06 -4.27528e-06 5.44862e-21 -6.78854e-07 3.32587e-22 -1.04473e-36)
(6.16751e-06 -2.69045e-06 -6.96886e-21 -2.00874e-06 -3.04016e-21 0)
(6.48776e-06 -1.70833e-06 6.38935e-21 -2.55559e-06 2.87919e-21 0)
(6.62695e-06 -1.08106e-06 -5.76709e-21 -2.93501e-06 -2.77097e-21 0)
(6.63445e-06 -6.63032e-07 -1.40866e-21 -3.104e-06 -1.06533e-21 0)
(6.57526e-06 -3.87997e-07 -5.37895e-21 -3.1951e-06 -3.14663e-21 0)
(6.48011e-06 -1.98443e-07 9.90789e-27 -3.21416e-06 -2.67938e-26 0)
(6.36491e-06 -7.37561e-08 -1.85145e-23 -3.20476e-06 2.45657e-23 0)
(6.24015e-06 1.63308e-08 -3.80675e-22 -3.15826e-06 -1.80596e-21 0)
(6.11088e-06 8.18719e-08 5.90903e-22 -3.1288e-06 -4.4801e-22 0)
(6.653e-06 -4.51267e-06 1.8829e-20 -1.2942e-06 -3.7508e-21 4.04729e-35)
(6.9873e-06 -2.65676e-06 4.00207e-21 -2.21569e-06 2.98365e-21 0)
(6.98169e-06 -1.53367e-06 3.00593e-21 -2.52572e-06 2.78532e-21 0)
(6.90813e-06 -8.29611e-07 1.74535e-21 -2.77535e-06 1.21538e-21 0)
(6.77948e-06 -3.73747e-07 1.26094e-20 -2.86881e-06 7.54765e-21 0)
(6.63022e-06 -8.33389e-08 -9.48709e-23 -2.92316e-06 -2.17983e-22 0)
(6.4747e-06 1.0824e-07 -4.51654e-23 -2.92472e-06 2.12637e-22 0)
(6.31985e-06 2.28407e-07 -1.19535e-22 -2.91297e-06 2.11902e-22 0)
(6.16616e-06 3.07829e-07 2.74594e-21 -2.86947e-06 1.36279e-21 0)
(6.02105e-06 3.65955e-07 -2.58182e-22 -2.85008e-06 -5.5152e-22 0)
(8.06122e-06 -4.48365e-06 -1.42113e-20 -2.01415e-06 3.64534e-22 -4.29295e-43)
(7.78136e-06 -2.51004e-06 6.45032e-21 -2.45337e-06 2.62691e-21 0)
(7.41853e-06 -1.33309e-06 5.30292e-21 -2.48703e-06 2.58669e-21 0)
(7.11639e-06 -6.03922e-07 5.51836e-21 -2.58337e-06 2.85342e-21 0)
(6.84447e-06 -1.40709e-07 -3.31556e-21 -2.58856e-06 -1.75781e-21 0)
(6.60322e-06 1.47977e-07 4.73719e-21 -2.59924e-06 2.13811e-21 0)
(6.38884e-06 3.32315e-07 1.4974e-21 -2.58085e-06 9.04062e-22 0)
(6.19699e-06 4.44011e-07 -2.9214e-21 -2.5658e-06 -1.07696e-21 0)
(6.02024e-06 5.11555e-07 6.75108e-21 -2.52836e-06 2.61198e-21 0)
(5.86254e-06 5.61675e-07 6.29479e-22 -2.51865e-06 -7.66431e-23 0)
(9.41778e-06 -4.17214e-06 -2.06165e-22 -2.76908e-06 -1.61676e-24 9.27405e-39)
(8.51416e-06 -2.24876e-06 -1.68296e-21 -2.69991e-06 -5.09706e-22 0)
(7.79132e-06 -1.11268e-06 8.32422e-21 -2.44434e-06 3.5949e-21 0)
(7.26192e-06 -4.14311e-07 2.18186e-21 -2.37923e-06 6.50953e-22 0)
(6.84946e-06 2.36248e-08 -3.09836e-21 -2.29207e-06 -1.22103e-21 0)
(6.51995e-06 2.92473e-07 -7.86808e-21 -2.25669e-06 -3.84289e-21 0)
(6.25078e-06 4.59984e-07 6.48139e-23 -2.2177e-06 -1.07917e-21 0)
(6.02593e-06 5.5894e-07 -4.17176e-22 -2.19874e-06 1.35564e-21 0)
(5.8307e-06 6.1381e-07 2.14575e-21 -2.16883e-06 1.64768e-21 0)
(5.66356e-06 6.55274e-07 5.50737e-21 -2.16761e-06 2.25889e-21 0)
(1.06346e-05 -3.58592e-06 5.36309e-21 -3.48577e-06 -6.97016e-22 -1.65732e-36)
(9.15062e-06 -1.87956e-06 -2.92247e-21 -2.93223e-06 4.14516e-22 0)
(8.09461e-06 -8.78054e-07 2.45175e-21 -2.40241e-06 1.81656e-21 0)
(7.35678e-06 -2.65622e-07 7.5855e-22 -2.18362e-06 -5.33904e-22 0)
(6.81673e-06 1.15027e-07 4.40282e-21 -2.00893e-06 8.25777e-22 0)
(6.40828e-06 3.46292e-07 -1.68798e-22 -1.92968e-06 -7.13013e-22 0)
(6.09135e-06 4.87801e-07 1.31303e-21 -1.87144e-06 2.12863e-21 0)
(5.83842e-06 5.69917e-07 4.57301e-21 -1.84849e-06 3.62491e-21 0)
(5.62919e-06 6.12002e-07 -2.18762e-21 -1.82655e-06 -1.09376e-21 0)
(5.45479e-06 6.44653e-07 6.29085e-22 -1.83225e-06 -1.16432e-21 0)
(1.16299e-05 -2.75625e-06 0 -4.09472e-06 0 0)
(9.65937e-06 -1.41668e-06 1.41212e-20 -3.12877e-06 4.27766e-21 0)
(8.3251e-06 -6.33687e-07 -1.48951e-20 -2.36617e-06 -4.0808e-21 0)
(7.41424e-06 -1.56479e-07 -5.6489e-22 -2.01658e-06 -9.32994e-22 0)
(6.76895e-06 1.38373e-07 -1.41907e-21 -1.76762e-06 1.48022e-22 0)
(6.29608e-06 3.16282e-07 7.37273e-21 -1.65099e-06 2.76105e-21 0)
(5.94083e-06 4.23758e-07 2.59328e-21 -1.57653e-06 9.98374e-22 0)
(5.66579e-06 4.85384e-07 -3.57624e-21 -1.54999e-06 -6.65478e-22 0)
(5.44655e-06 5.1498e-07 1.51399e-22 -1.53529e-06 -6.37735e-22 0)
(5.26687e-06 5.38594e-07 -1.70985e-21 -1.54618e-06 -1.40091e-21 0)
(1.23346e-05 -1.73589e-06 9.6527e-21 -4.53691e-06 9.82268e-22 4.45522e-36)
(1.00139e-05 -8.81732e-07 -7.93129e-22 -3.27122e-06 -1.58933e-21 0)
(8.47969e-06 -3.8337e-07 -4.95839e-21 -2.33967e-06 -9.90397e-22 0)
(7.44497e-06 -8.01441e-08 4.13607e-21 -1.89502e-06 1.31467e-21 0)
(6.72467e-06 1.06552e-07 -1.66236e-21 -1.59215e-06 -3.80841e-22 0)
(6.20619e-06 2.18752e-07 -4.2452e-21 -1.44834e-06 -6.09469e-22 0)
(5.82415e-06 2.85994e-07 2.73769e-24 -1.36218e-06 -1.00434e-21 0)
(5.53384e-06 3.24277e-07 -5.00349e-23 -1.33295e-06 6.00615e-22 0)
(5.30823e-06 3.41866e-07 -4.5302e-23 -1.32376e-06 3.27778e-22 0)
(5.1251e-06 3.56219e-07 -1.74062e-21 -1.33816e-06 -1.10095e-21 0)
(1.26987e-05 -5.93223e-07 -8.11733e-21 -4.76775e-06 1.44481e-21 2.64943e-36)
(1.01951e-05 -2.99988e-07 -6.58869e-21 -3.34301e-06 -2.214e-21 0)
(8.55608e-06 -1.28784e-07 5.04094e-21 -2.32106e-06 1.61611e-21 0)
(7.45647e-06 -2.46008e-08 -7.87594e-21 -1.82548e-06 -1.01941e-21 0)
(6.69692e-06 3.94823e-08 3.17863e-21 -1.4937e-06 -9.88754e-22 0)
(6.15468e-06 7.7952e-08 -1.39281e-21 -1.33532e-06 2.12548e-22 0)
(5.75879e-06 1.00936e-07 -2.74175e-25 -1.24293e-06 1.02126e-21 0)
(5.46067e-06 1.13993e-07 -1.12336e-21 -1.21232e-06 6.06954e-22 0)
(5.23199e-06 1.19878e-07 -3.93987e-21 -1.20618e-06 -1.65144e-21 0)
(5.0473e-06 1.24737e-07 1.95161e-21 -1.22263e-06 1.44984e-22 0)
(1.72239e-06 1.55814e-07 -1.11665e-21 -4.64938e-06 5.05479e-21 -6.35592e-36)
(1.15184e-06 -6.96583e-08 1.66037e-21 -3.07453e-06 2.37699e-21 0)
(8.79559e-07 -1.84583e-07 2.19171e-23 -2.14267e-06 -1.0708e-21 0)
(9.30052e-07 -2.46023e-07 -8.80222e-23 -1.60836e-06 7.59189e-22 0)
(1.06219e-06 -2.74678e-07 -9.9976e-22 -1.30023e-06 -6.90167e-22 0)
(1.26936e-06 -2.84746e-07 1.3235e-21 -1.12761e-06 5.46076e-22 0)
(1.48571e-06 -2.84e-07 1.85472e-22 -1.03627e-06 2.22171e-22 0)
(1.71031e-06 -2.77479e-07 -2.45112e-22 -9.92699e-07 4.06511e-22 0)
(1.92049e-06 -2.66394e-07 1.31821e-21 -9.78891e-07 3.56302e-22 0)
(2.12137e-06 -2.58318e-07 -1.22423e-22 -9.74914e-07 -1.76187e-22 0)
(1.63078e-06 4.33316e-07 6.17391e-23 -4.42113e-06 2.2093e-22 -3.68011e-38)
(1.19784e-06 -2.1856e-07 -2.91976e-21 -3.00814e-06 -4.17978e-21 0)
(9.99453e-07 -5.49009e-07 2.22572e-21 -2.16434e-06 2.19382e-21 0)
(1.08711e-06 -7.24496e-07 1.61588e-21 -1.68162e-06 1.16963e-21 0)
(1.23677e-06 -8.05617e-07 -4.11478e-22 -1.40168e-06 -5.35699e-22 0)
(1.44906e-06 -8.33218e-07 -4.40525e-21 -1.24378e-06 -1.62649e-21 0)
(1.66368e-06 -8.29855e-07 -7.27083e-23 -1.15869e-06 -6.15045e-25 0)
(1.88303e-06 -8.09899e-07 -7.43647e-22 -1.11664e-06 -4.524e-22 0)
(2.08421e-06 -7.77048e-07 4.66508e-22 -1.10031e-06 -2.26687e-23 0)
(2.27882e-06 -7.52904e-07 1.15766e-21 -1.09386e-06 -9.50147e-23 0)
(1.45768e-06 6.18703e-07 -9.0452e-22 -3.98197e-06 -4.187e-21 -2.5405e-36)
(1.28337e-06 -3.87607e-07 -2.22631e-21 -2.87936e-06 -1.95823e-21 0)
(1.21916e-06 -8.94755e-07 3.46576e-21 -2.20153e-06 9.07571e-22 0)
(1.37487e-06 -1.16195e-06 7.4896e-22 -1.81629e-06 8.42875e-22 0)
(1.55595e-06 -1.28359e-06 2.02938e-21 -1.58935e-06 9.52978e-22 0)
(1.77719e-06 -1.32275e-06 -1.97712e-21 -1.45925e-06 -9.88705e-22 0)
(1.98817e-06 -1.31453e-06 -3.20442e-21 -1.38598e-06 -9.20798e-22 0)
(2.19754e-06 -1.28071e-06 -1.09165e-21 -1.34691e-06 -2.46984e-22 0)
(2.38182e-06 -1.22779e-06 5.51234e-23 -1.32601e-06 -4.6123e-24 0)
(2.56498e-06 -1.18813e-06 1.57398e-21 -1.31525e-06 7.0382e-22 0)
(1.24478e-06 6.65174e-07 -3.24942e-21 -3.37723e-06 -4.6093e-23 1.50185e-35)
(1.42201e-06 -5.83788e-07 1.47181e-21 -2.70218e-06 -2.01597e-21 0)
(1.53905e-06 -1.20781e-06 -8.79343e-21 -2.25225e-06 -6.73926e-21 0)
(1.78573e-06 -1.53311e-06 -1.98672e-21 -2.00114e-06 1.30315e-22 0)
(2.00797e-06 -1.67721e-06 -1.2061e-22 -1.84701e-06 2.59094e-22 0)
(2.23983e-06 -1.71907e-06 2.60996e-21 -1.7552e-06 1.17443e-21 0)
(2.44453e-06 -1.70273e-06 -7.20431e-22 -1.69834e-06 -3.86699e-24 0)
(2.63892e-06 -1.65458e-06 2.18665e-21 -1.66335e-06 1.47144e-21 0)
(2.79937e-06 -1.58429e-06 -3.88184e-21 -1.6365e-06 -7.47269e-22 0)
(2.96568e-06 -1.53017e-06 3.49243e-21 -1.6196e-06 5.32373e-22 0)
(1.04177e-06 5.38804e-07 8.78088e-22 -2.66754e-06 -3.19177e-21 -6.58331e-37)
(1.62328e-06 -8.12459e-07 7.33569e-21 -2.49504e-06 6.76159e-21 0)
(1.94749e-06 -1.47813e-06 -6.98643e-21 -2.31268e-06 -4.68315e-21 0)
(2.29621e-06 -1.81916e-06 -3.26718e-21 -2.21944e-06 -1.7691e-21 0)
(2.56313e-06 -1.96308e-06 2.88163e-21 -2.15091e-06 1.21677e-21 0)
(2.80431e-06 -1.99664e-06 3.86528e-21 -2.10419e-06 1.5883e-21 0)
(2.9993e-06 -1.96821e-06 2.19778e-21 -2.06675e-06 1.42499e-21 0)
(3.17375e-06 -1.90536e-06 3.88109e-21 -2.03653e-06 1.18325e-21 0)
(3.30501e-06 -1.82111e-06 -8.60231e-22 -2.00314e-06 -9.49504e-22 0)
(3.4492e-06 -1.75415e-06 -5.29741e-21 -1.97855e-06 -5.28736e-22 0)
(9.05788e-07 2.2596e-07 -8.58379e-23 -1.92296e-06 2.10372e-22 -1.40216e-39)
(1.8976e-06 -1.07324e-06 4.61141e-21 -2.27849e-06 2.31145e-21 0)
(2.42982e-06 -1.69789e-06 3.74266e-21 -2.37649e-06 3.36957e-21 0)
(2.87774e-06 -2.00819e-06 -1.83672e-21 -2.44945e-06 -1.23284e-21 0)
(3.18556e-06 -2.12719e-06 -3.36696e-21 -2.47089e-06 -1.48789e-21 0)
(3.43136e-06 -2.14057e-06 -2.1246e-21 -2.47177e-06 -8.48508e-22 0)
(3.61226e-06 -2.09579e-06 3.4275e-21 -2.45515e-06 1.74929e-21 0)
(3.76189e-06 -2.01815e-06 -4.10623e-21 -2.42992e-06 -2.20432e-21 0)
(3.86043e-06 -1.92349e-06 6.82072e-21 -2.39056e-06 2.07298e-21 0)
(3.97769e-06 -1.8458e-06 2.32758e-22 -2.35732e-06 -9.42848e-22 0)
(8.95079e-07 -2.65256e-07 4.01862e-21 -1.21737e-06 -7.3694e-21 -4.31446e-37)
(2.25494e-06 -1.36011e-06 -1.27213e-20 -2.07506e-06 -6.97576e-21 0)
(2.97003e-06 -1.86225e-06 4.34555e-21 -2.43828e-06 2.9195e-21 0)
(3.49996e-06 -2.09613e-06 -3.97469e-22 -2.66963e-06 1.12883e-21 0)
(3.83737e-06 -2.16607e-06 1.87457e-21 -2.77648e-06 8.97369e-22 0)
(4.07966e-06 -2.14804e-06 -7.80739e-22 -2.8229e-06 -2.90377e-22 0)
(4.24122e-06 -2.08307e-06 -4.78166e-21 -2.82638e-06 -2.02131e-21 0)
(4.3615e-06 -1.99116e-06 2.75863e-21 -2.80617e-06 1.21831e-21 0)
(4.42577e-06 -1.88967e-06 -2.50918e-21 -2.76202e-06 -1.10118e-21 0)
(4.51199e-06 -1.80357e-06 5.23119e-21 -2.72042e-06 1.30769e-21 0)
(1.06175e-06 -9.05367e-07 -1.49714e-21 -6.2038e-07 2.15298e-21 6.42351e-38)
(2.70223e-06 -1.66107e-06 -4.14964e-21 -1.90579e-06 -4.86126e-21 0)
(3.55059e-06 -1.96882e-06 -6.1011e-21 -2.49258e-06 -5.83906e-21 0)
(4.1317e-06 -2.08618e-06 2.26597e-21 -2.85904e-06 1.10958e-21 0)
(4.48008e-06 -2.08608e-06 6.0389e-21 -3.03822e-06 2.95153e-21 0)
(4.70727e-06 -2.02714e-06 5.50077e-21 -3.12355e-06 2.68378e-21 0)
(4.84316e-06 -1.939e-06 -8.57102e-22 -3.14481e-06 1.63351e-22 0)
(4.92966e-06 -1.83399e-06 3.15646e-21 -3.12884e-06 1.33877e-21 0)
(4.96023e-06 -1.72887e-06 -3.10429e-21 -3.08338e-06 -2.2285e-21 0)
(5.01157e-06 -1.63646e-06 1.10242e-21 -3.03368e-06 1.06684e-21 0)
(1.44583e-06 -1.64602e-06 4.31667e-21 -1.91001e-07 5.81274e-21 -1.54927e-35)
(3.24263e-06 -1.95906e-06 5.96474e-21 -1.78898e-06 7.62414e-21 0)
(4.15487e-06 -2.01776e-06 6.34366e-21 -2.53539e-06 1.77952e-21 0)
(4.74572e-06 -1.98851e-06 9.20314e-22 -3.00068e-06 -9.56169e-22 0)
(5.08112e-06 -1.90308e-06 1.91767e-22 -3.23167e-06 -2.83219e-22 0)
(5.2796e-06 -1.79727e-06 -1.38901e-22 -3.34568e-06 -3.98695e-23 0)
(5.38315e-06 -1.68467e-06 5.01884e-21 -3.37966e-06 2.65289e-21 0)
(5.4323e-06 -1.56998e-06 -6.70173e-21 -3.36808e-06 -4.34335e-21 0)
(5.43142e-06 -1.46443e-06 6.1934e-21 -3.32261e-06 2.56374e-21 0)
(5.44576e-06 -1.36896e-06 6.66591e-22 -3.27244e-06 3.53199e-22 0)
(2.06957e-06 -2.4246e-06 6.46962e-21 2.84008e-08 -1.08099e-20 -1.76491e-35)
(3.87261e-06 -2.23339e-06 6.34728e-21 -1.73759e-06 3.12952e-21 0)
(4.76519e-06 -2.0115e-06 8.48759e-21 -2.56354e-06 4.26435e-21 0)
(5.31637e-06 -1.8188e-06 4.0857e-21 -3.08163e-06 3.20092e-21 0)
(5.60996e-06 -1.64011e-06 -6.45349e-21 -3.33833e-06 -3.58132e-21 0)
(5.76318e-06 -1.48466e-06 -5.79099e-21 -3.46672e-06 -3.17741e-21 0)
(5.82499e-06 -1.34794e-06 1.52001e-22 -3.50678e-06 -9.01864e-23 0)
(5.83105e-06 -1.22608e-06 -3.04514e-21 -3.49457e-06 -1.74442e-21 0)
(5.80087e-06 -1.1255e-06 3.16622e-21 -3.45573e-06 2.91209e-21 0)
(5.76586e-06 -1.03032e-06 4.31201e-21 -3.39115e-06 9.85108e-22 0)
(2.30863e-06 -2.38653e-07 6.40276e-22 -9.95784e-07 -2.33628e-24 0)
(2.47347e-06 -2.13425e-07 1.19042e-21 -1.00198e-06 -3.59073e-22 0)
(2.62351e-06 -1.93331e-07 6.4138e-23 -1.01223e-06 -8.4132e-25 0)
(2.76056e-06 -1.7481e-07 -1.01673e-21 -1.01949e-06 -5.48857e-22 0)
(2.88302e-06 -1.5831e-07 -4.05387e-21 -1.02241e-06 -1.87446e-22 0)
(2.99319e-06 -1.43698e-07 -6.16966e-22 -1.02058e-06 7.39643e-22 0)
(3.09103e-06 -1.30556e-07 3.58742e-21 -1.01257e-06 3.8225e-22 0)
(3.17753e-06 -1.18815e-07 -3.59905e-21 -9.98115e-07 -2.01628e-22 0)
(3.2531e-06 -1.08156e-07 3.1912e-22 -9.76315e-07 1.08064e-21 0)
(3.31818e-06 -9.84374e-08 1.97505e-21 -9.46672e-07 3.67264e-22 0)
(3.37291e-06 -8.94276e-08 3.35655e-22 -9.08378e-07 1.01692e-21 0)
(3.41747e-06 -8.09542e-08 3.9097e-21 -8.60647e-07 3.69798e-22 0)
(3.4514e-06 -7.28217e-08 3.58268e-21 -8.02453e-07 -7.0148e-22 0)
(3.47489e-06 -6.48351e-08 -3.88995e-21 -7.32627e-07 -3.41327e-22 0)
(3.48612e-06 -5.68039e-08 -5.77744e-21 -6.49687e-07 1.00035e-23 0)
(3.48641e-06 -4.84842e-08 3.05937e-21 -5.51927e-07 4.88884e-22 0)
(3.47006e-06 -3.96846e-08 -7.58982e-23 -4.37112e-07 -1.68532e-22 0)
(3.44399e-06 -2.99948e-08 2.13056e-21 -3.02865e-07 4.11201e-22 0)
(3.38909e-06 -1.94726e-08 1.78269e-21 -1.45403e-07 -1.74086e-23 0)
(3.33621e-06 -6.33589e-09 4.44799e-22 3.70309e-08 4.62694e-23 -4.90746e-37)
(2.44873e-06 -6.95615e-07 1.82009e-23 -1.10419e-06 2.00375e-23 0)
(2.59039e-06 -6.23308e-07 -1.719e-21 -1.09523e-06 -1.91217e-22 0)
(2.72325e-06 -5.65472e-07 8.88653e-22 -1.0929e-06 1.98103e-22 0)
(2.84474e-06 -5.12182e-07 2.84992e-21 -1.08953e-06 9.7264e-22 0)
(2.9546e-06 -4.64502e-07 -1.66571e-21 -1.08316e-06 -6.27718e-24 0)
(3.05383e-06 -4.22245e-07 -2.43971e-21 -1.0736e-06 -7.93718e-22 0)
(3.1426e-06 -3.84109e-07 1.63618e-21 -1.05897e-06 7.84259e-22 0)
(3.22133e-06 -3.49982e-07 4.22421e-22 -1.03899e-06 3.82203e-22 0)
(3.29038e-06 -3.1892e-07 -3.78149e-21 -1.01254e-06 -1.18246e-21 0)
(3.34989e-06 -2.90543e-07 -2.25442e-21 -9.79051e-07 -4.14445e-22 0)
(3.39994e-06 -2.64176e-07 -5.007e-23 -9.37605e-07 -1.40948e-24 0)
(3.44053e-06 -2.39329e-07 6.91455e-21 -8.87348e-07 5.78908e-22 0)
(3.47114e-06 -2.15433e-07 3.1844e-22 -8.27201e-07 3.16322e-22 0)
(3.49188e-06 -1.9192e-07 -1.61428e-21 -7.55961e-07 3.32809e-22 0)
(3.5009e-06 -1.68233e-07 -3.50829e-22 -6.72131e-07 -3.86722e-22 0)
(3.49948e-06 -1.43652e-07 -3.7411e-22 -5.74006e-07 -3.35226e-22 0)
(3.48193e-06 -1.17616e-07 -1.33646e-21 -4.59378e-07 3.00336e-22 0)
(3.45512e-06 -8.8907e-08 -9.67555e-22 -3.25913e-07 -8.81978e-23 0)
(3.40015e-06 -5.77143e-08 5.38567e-21 -1.69932e-07 7.36354e-22 0)
(3.34765e-06 -1.87779e-08 1.38525e-21 1.02348e-08 3.48249e-22 -4.57725e-36)
(2.70234e-06 -1.09975e-06 1.00217e-21 -1.30616e-06 -2.12341e-22 0)
(2.80197e-06 -9.90612e-07 2.16906e-21 -1.26953e-06 6.69282e-22 0)
(2.90347e-06 -9.01613e-07 -5.54307e-21 -1.24361e-06 -4.78064e-22 0)
(2.99674e-06 -8.19729e-07 5.9881e-22 -1.22065e-06 4.43859e-22 0)
(3.08378e-06 -7.45446e-07 3.04397e-21 -1.19696e-06 -1.72114e-22 0)
(3.16317e-06 -6.79481e-07 -4.68799e-21 -1.17303e-06 -2.8806e-22 0)
(3.23556e-06 -6.19461e-07 -2.4998e-21 -1.14606e-06 -4.59208e-22 0)
(3.30021e-06 -5.65561e-07 5.64407e-21 -1.11577e-06 3.64913e-22 0)
(3.35747e-06 -5.16247e-07 3.1979e-21 -1.08067e-06 -2.67568e-22 0)
(3.40692e-06 -4.7103e-07 -4.18053e-21 -1.04002e-06 -5.50803e-22 0)
(3.44852e-06 -4.28859e-07 -4.78659e-21 -9.92722e-07 -9.47762e-22 0)
(3.48199e-06 -3.88986e-07 1.90385e-21 -9.37799e-07 1.15676e-22 0)
(3.50668e-06 -3.5052e-07 3.28992e-21 -8.74078e-07 5.37081e-22 0)
(3.52255e-06 -3.12559e-07 1.14125e-22 -8.00295e-07 -5.4136e-22 0)
(3.52771e-06 -2.74214e-07 2.1361e-22 -7.14929e-07 1.40917e-22 0)
(3.52335e-06 -2.34316e-07 -4.77306e-21 -6.16284e-07 -5.24072e-22 0)
(3.50386e-06 -1.91965e-07 -2.35535e-21 -5.02205e-07 -7.11047e-23 0)
(3.47599e-06 -1.45165e-07 -8.71553e-22 -3.70433e-07 -3.72988e-22 0)
(3.42127e-06 -9.42454e-08 1.85126e-21 -2.17482e-07 3.21639e-22 0)
(3.36973e-06 -3.06983e-08 1.68714e-21 -4.17883e-08 7.35877e-22 -7.33194e-36)
(3.05892e-06 -1.42081e-06 1.05875e-21 -1.58479e-06 3.48723e-22 0)
(3.10082e-06 -1.29111e-06 -9.69839e-22 -1.51268e-06 -1.37221e-23 0)
(3.15937e-06 -1.18113e-06 5.37282e-22 -1.45483e-06 -4.5953e-22 0)
(3.21323e-06 -1.0804e-06 -7.38977e-23 -1.40559e-06 -4.84099e-22 0)
(3.26852e-06 -9.86697e-07 3.79152e-22 -1.35824e-06 -2.18065e-22 0)
(3.31994e-06 -9.03218e-07 -1.34332e-21 -1.31455e-06 -2.6741e-22 0)
(3.36922e-06 -8.26245e-07 -1.68434e-21 -1.27051e-06 -5.01558e-22 0)
(3.41385e-06 -7.56714e-07 -7.90949e-22 -1.22582e-06 -4.54761e-22 0)
(3.45432e-06 -6.92589e-07 3.44317e-22 -1.17858e-06 2.20064e-22 0)
(3.48939e-06 -6.33443e-07 1.47478e-21 -1.12781e-06 8.56739e-22 0)
(3.51885e-06 -5.7796e-07 -2.57034e-21 -1.07219e-06 -5.4701e-22 0)
(3.54204e-06 -5.25224e-07 1.64238e-21 -1.01059e-06 4.74456e-22 0)
(3.55816e-06 -4.74104e-07 3.85555e-21 -9.41719e-07 3.73892e-22 0)
(3.56697e-06 -4.23422e-07 -1.55818e-21 -8.64249e-07 -4.50235e-22 0)
(3.56652e-06 -3.72014e-07 -3.56559e-21 -7.76643e-07 -3.42005e-22 0)
(3.55787e-06 -3.18309e-07 -2.23136e-21 -6.77225e-07 -4.31037e-22 0)
(3.53555e-06 -2.61107e-07 1.58243e-21 -5.63935e-07 -8.22078e-23 0)
(3.50613e-06 -1.97683e-07 1.90989e-21 -4.34629e-07 3.85354e-22 0)
(3.45177e-06 -1.28474e-07 5.19293e-22 -2.86119e-07 8.27024e-23 0)
(3.40164e-06 -4.19817e-08 -1.16301e-21 -1.1699e-07 -7.12096e-22 -3.71011e-36)
(3.49174e-06 -1.63609e-06 2.03711e-21 -1.91494e-06 -3.55077e-22 0)
(3.46639e-06 -1.50601e-06 9.65593e-22 -1.80554e-06 -1.27525e-21 0)
(3.47489e-06 -1.38783e-06 -2.18959e-21 -1.71088e-06 3.80956e-22 0)
(3.48147e-06 -1.28058e-06 -9.93137e-22 -1.63146e-06 -3.99861e-23 0)
(3.49871e-06 -1.17666e-06 3.45437e-21 -1.55628e-06 4.13633e-22 0)
(3.51598e-06 -1.08349e-06 -1.94743e-21 -1.48892e-06 6.21677e-22 0)
(3.53697e-06 -9.95867e-07 -2.13003e-21 -1.42432e-06 -5.76781e-22 0)
(3.55688e-06 -9.15912e-07 1.75985e-21 -1.36209e-06 -3.34993e-22 0)
(3.57651e-06 -8.4133e-07 -8.5127e-22 -1.3e-06 3.62556e-22 0)
(3.59364e-06 -7.7191e-07 -5.003e-23 -1.23677e-06 3.97959e-22 0)
(3.60791e-06 -7.06262e-07 -1.9069e-21 -1.17092e-06 -1.75897e-22 0)
(3.61818e-06 -6.43402e-07 -2.20562e-21 -1.10109e-06 -1.10137e-21 0)
(3.62349e-06 -5.82072e-07 6.67341e-21 -1.02589e-06 8.10057e-22 0)
(3.62336e-06 -5.20892e-07 7.93349e-22 -9.43908e-07 3.89174e-22 0)
(3.61576e-06 -4.58495e-07 -1.31927e-21 -8.536e-07 -3.29806e-22 0)
(3.60163e-06 -3.92968e-07 1.00698e-21 -7.53332e-07 1.87611e-22 0)
(3.57569e-06 -3.22862e-07 -4.3861e-21 -6.4118e-07 -1.07168e-21 0)
(3.54424e-06 -2.44792e-07 1.82093e-21 -5.15169e-07 5.55361e-22 0)
(3.49034e-06 -1.59293e-07 -8.39091e-22 -3.72504e-07 -2.34768e-22 0)
(3.44198e-06 -5.22555e-08 3.91601e-22 -2.11997e-07 1.2743e-22 5.97894e-40)
(3.96829e-06 -1.73153e-06 -9.48824e-22 -2.2657e-06 -1.22191e-21 0)
(3.87343e-06 -1.62268e-06 -1.47491e-21 -2.12468e-06 9.38574e-22 0)
(3.83033e-06 -1.51004e-06 -1.48052e-21 -1.9938e-06 4.52973e-22 0)
(3.78595e-06 -1.40978e-06 -1.11516e-21 -1.88442e-06 -1.19197e-21 0)
(3.76218e-06 -1.30624e-06 2.44367e-21 -1.78092e-06 1.78648e-21 0)
(3.74178e-06 -1.2123e-06 2.5378e-21 -1.68857e-06 4.57882e-22 0)
(3.73122e-06 -1.12156e-06 3.99199e-21 -1.60203e-06 2.95641e-22 0)
(3.72331e-06 -1.03738e-06 -5.04416e-21 -1.52059e-06 -8.90575e-22 0)
(3.71918e-06 -9.57648e-07 -3.33222e-21 -1.442e-06 -7.04173e-23 0)
(3.71573e-06 -8.82394e-07 -3.64901e-22 -1.36469e-06 -8.81899e-22 0)
(3.71239e-06 -8.10407e-07 4.78039e-21 -1.28706e-06 5.35033e-22 0)
(3.70763e-06 -7.40719e-07 -9.13215e-22 -1.20762e-06 -8.37089e-22 0)
(3.70026e-06 -6.72088e-07 -2.832e-21 -1.12491e-06 -4.07396e-22 0)
(3.68958e-06 -6.03022e-07 1.31656e-21 -1.03747e-06 6.40531e-22 0)
(3.67352e-06 -5.32047e-07 -1.87066e-21 -9.43807e-07 -3.5199e-22 0)
(3.65286e-06 -4.56982e-07 -9.9858e-22 -8.42365e-07 -2.17886e-22 0)
(3.62257e-06 -3.76203e-07 -3.96148e-22 -7.31417e-07 -1.61302e-22 0)
(3.58867e-06 -2.8575e-07 2.04651e-21 -6.09223e-07 5.40838e-22 0)
(3.53538e-06 -1.86239e-07 2.49093e-21 -4.7352e-07 8.21696e-22 0)
(3.4892e-06 -6.13774e-08 -1.9616e-21 -3.23461e-07 -1.33093e-21 -5.99234e-36)
(4.45471e-06 -1.705e-06 -4.15482e-22 -2.60448e-06 3.87505e-22 0)
(4.29516e-06 -1.63877e-06 8.42885e-22 -2.44241e-06 4.69431e-22 0)
(4.20428e-06 -1.54546e-06 4.31946e-21 -2.28046e-06 5.45977e-22 0)
(4.10943e-06 -1.465e-06 -6.86915e-21 -2.14335e-06 -1.38054e-21 0)
(4.04468e-06 -1.37281e-06 -4.76185e-22 -2.01351e-06 5.31384e-22 0)
(3.98578e-06 -1.28661e-06 4.61627e-22 -1.89637e-06 -5.04768e-22 0)
(3.9423e-06 -1.20028e-06 4.88243e-21 -1.78797e-06 1.55182e-21 0)
(3.90519e-06 -1.11785e-06 1.95259e-21 -1.68697e-06 2.02752e-22 0)
(3.87572e-06 -1.03814e-06 -2.68725e-21 -1.59152e-06 -1.24635e-21 0)
(3.85026e-06 -9.61416e-07 -1.18054e-21 -1.49975e-06 -5.88893e-22 0)
(3.82789e-06 -8.86919e-07 -1.91013e-21 -1.41005e-06 -2.50967e-22 0)
(3.80678e-06 -8.13792e-07 5.05808e-22 -1.32077e-06 2.61925e-22 0)
(3.78551e-06 -7.40924e-07 1.64876e-21 -1.23042e-06 7.76369e-22 0)
(3.76319e-06 -6.66799e-07 0 -1.13752e-06 0 0)
(3.73772e-06 -5.89906e-07 3.49492e-22 -1.04064e-06 -2.87075e-22 0)
(3.70974e-06 -5.07883e-07 1.91065e-21 -9.38351e-07 4.68816e-22 0)
(3.67456e-06 -4.18988e-07 -9.26607e-22 -8.29181e-07 -1.42035e-22 0)
(3.63784e-06 -3.18819e-07 -3.43551e-21 -7.11691e-07 -1.21336e-21 0)
(3.58521e-06 -2.08072e-07 2.91315e-21 -5.84222e-07 1.05313e-21 0)
(3.54135e-06 -6.88762e-08 -8.85878e-22 -4.46338e-07 -7.85219e-22 -1.73838e-36)
(4.91508e-06 -1.56008e-06 4.14249e-21 -2.90275e-06 5.16473e-22 0)
(4.703e-06 -1.55315e-06 -3.29456e-21 -2.73634e-06 -7.18446e-22 0)
(4.57442e-06 -1.49253e-06 2.97936e-21 -2.55846e-06 1.42855e-21 0)
(4.4353e-06 -1.44239e-06 9.77744e-22 -2.40093e-06 4.42978e-22 0)
(4.33292e-06 -1.37334e-06 -7.61747e-21 -2.25185e-06 -2.82058e-21 0)
(4.23824e-06 -1.30375e-06 1.77933e-21 -2.11386e-06 8.00021e-22 0)
(4.16247e-06 -1.23033e-06 2.00493e-21 -1.98611e-06 2.54965e-22 0)
(4.09652e-06 -1.15662e-06 7.17673e-21 -1.86669e-06 1.96765e-21 0)
(4.04122e-06 -1.08297e-06 -1.87457e-21 -1.75451e-06 -2.49771e-22 0)
(3.99307e-06 -1.00982e-06 -5.23769e-22 -1.6478e-06 3.99922e-22 0)
(3.95075e-06 -9.37062e-07 5.08635e-22 -1.54513e-06 -3.59973e-22 0)
(3.91237e-06 -8.64113e-07 -5.0234e-22 -1.44494e-06 3.15142e-22 0)
(3.87629e-06 -7.90136e-07 5.82888e-22 -1.34583e-06 8.13441e-22 0)
(3.8415e-06 -7.13736e-07 6.71544e-21 -1.24641e-06 1.69363e-21 0)
(3.80589e-06 -6.33478e-07 -2.85942e-21 -1.14541e-06 -9.17776e-22 0)
(3.76997e-06 -5.46929e-07 -5.49616e-21 -1.04157e-06 -1.47528e-21 0)
(3.72947e-06 -4.5232e-07 4.50734e-21 -9.33758e-07 1.50689e-21 0)
(3.68968e-06 -3.44903e-07 8.78141e-22 -8.20902e-07 2.71316e-22 0)
(3.63783e-06 -2.25462e-07 -2.58989e-21 -7.02091e-07 -1.0296e-21 0)
(3.59675e-06 -7.49702e-08 7.73697e-22 -5.77489e-07 4.66286e-22 -9.15562e-39)
(5.32471e-06 -1.32377e-06 -3.81968e-21 -3.13302e-06 -1.50759e-21 0)
(5.07369e-06 -1.38444e-06 -1.35195e-21 -2.96824e-06 2.77525e-22 0)
(4.91824e-06 -1.37082e-06 1.21599e-21 -2.79101e-06 -3.06027e-22 0)
(4.7454e-06 -1.35466e-06 4.34781e-21 -2.61925e-06 8.54446e-22 0)
(4.60958e-06 -1.31651e-06 -3.04957e-21 -2.45716e-06 -5.70393e-22 0)
(4.48441e-06 -1.26818e-06 -2.27955e-21 -2.30309e-06 2.2385e-22 0)
(4.37901e-06 -1.2123e-06 0 -2.15978e-06 0 0)
(4.28674e-06 -1.15148e-06 3.59239e-21 -2.02562e-06 1.10554e-21 0)
(4.20718e-06 -1.08779e-06 5.23377e-21 -1.89993e-06 1.85031e-21 0)
(4.13748e-06 -1.02201e-06 1.90693e-21 -1.78124e-06 3.03517e-22 0)
(4.07589e-06 -9.54611e-07 -3.33561e-21 -1.66819e-06 -1.02147e-21 0)
(4.02057e-06 -8.85292e-07 -5.6812e-21 -1.55935e-06 -1.04356e-21 0)
(3.96975e-06 -8.13469e-07 -2.79373e-21 -1.45343e-06 -1.30669e-21 0)
(3.92236e-06 -7.37904e-07 5.36979e-21 -1.34918e-06 1.2074e-21 0)
(3.87639e-06 -6.57265e-07 5.95872e-21 -1.24554e-06 2.03186e-21 0)
(3.83227e-06 -5.69135e-07 -2.83459e-21 -1.14152e-06 -1.01114e-21 0)
(3.78625e-06 -4.71777e-07 -1.03707e-21 -1.03641e-06 -4.65713e-22 0)
(3.74319e-06 -3.60282e-07 3.69987e-21 -9.29579e-07 1.499e-21 0)
(3.69217e-06 -2.35576e-07 -3.38854e-21 -8.20866e-07 -1.49687e-21 0)
(3.65353e-06 -7.85442e-08 6.9623e-24 -7.10846e-07 4.7924e-24 -5.99365e-43)
(5.64156e-06 -9.99849e-07 3.0902e-21 -3.29966e-06 8.30518e-22 0)
(5.39373e-06 -1.10649e-06 -2.33746e-21 -3.14991e-06 -4.69492e-22 0)
(5.2202e-06 -1.1604e-06 8.26454e-23 -3.00182e-06 -5.87347e-22 0)
(5.0328e-06 -1.18792e-06 -1.17718e-21 -2.83504e-06 2.26661e-22 0)
(4.86864e-06 -1.19457e-06 -2.1655e-21 -2.67084e-06 1.62829e-23 0)
(4.71808e-06 -1.18094e-06 -1.89747e-21 -2.50847e-06 -1.12433e-21 0)
(4.58507e-06 -1.15337e-06 -1.58127e-21 -2.35256e-06 -1.74556e-21 0)
(4.46754e-06 -1.11451e-06 -1.12099e-22 -2.20427e-06 8.5805e-23 0)
(4.36441e-06 -1.06755e-06 1.2029e-22 -2.06401e-06 -6.63316e-23 0)
(4.27364e-06 -1.01434e-06 3.75884e-21 -1.93143e-06 6.60387e-22 0)
(4.19334e-06 -9.56138e-07 4.75375e-21 -1.80572e-06 1.96574e-21 0)
(4.12167e-06 -8.9339e-07 -2.99734e-21 -1.68587e-06 -1.48142e-21 0)
(4.05675e-06 -8.26013e-07 -4.7325e-21 -1.57083e-06 -1.77882e-21 0)
(3.9974e-06 -7.53167e-07 -3.1008e-21 -1.45958e-06 -1.08207e-21 0)
(3.94169e-06 -6.73767e-07 1.26621e-21 -1.35132e-06 6.17381e-22 0)
(3.88993e-06 -5.85564e-07 5.94337e-23 -1.24533e-06 6.57614e-24 0)
(3.83897e-06 -4.86915e-07 -1.6879e-21 -1.14138e-06 -5.87677e-22 0)
(3.79329e-06 -3.7288e-07 3.25719e-23 -1.03932e-06 8.09247e-24 0)
(3.744e-06 -2.44406e-07 1.63901e-21 -9.3981e-07 7.59976e-22 0)
(3.70926e-06 -8.18859e-08 -4.41011e-22 -8.4403e-07 -3.4204e-22 -5.26286e-39)
(5.82015e-06 -7.31622e-07 1.12263e-21 -3.33434e-06 6.51659e-22 0)
(5.59159e-06 -8.21587e-07 2.23535e-21 -3.18234e-06 1.53011e-21 0)
(5.40349e-06 -9.26949e-07 2.32002e-21 -3.05678e-06 6.7984e-22 0)
(5.21884e-06 -9.85385e-07 6.26442e-22 -2.91003e-06 1.02326e-22 0)
(5.04707e-06 -1.02317e-06 8.24087e-22 -2.7566e-06 1.09978e-21 0)
(4.88831e-06 -1.03857e-06 2.11424e-22 -2.60197e-06 -7.20601e-22 0)
(4.74413e-06 -1.03677e-06 -4.3187e-21 -2.44952e-06 -1.60236e-21 0)
(4.61389e-06 -1.02064e-06 -1.5433e-21 -2.30184e-06 -3.4473e-22 0)
(4.49713e-06 -9.93055e-07 1.53608e-21 -2.16011e-06 3.33534e-22 0)
(4.39251e-06 -9.56093e-07 -1.88595e-21 -2.0248e-06 -3.8044e-22 0)
(4.29869e-06 -9.11243e-07 4.80669e-21 -1.89582e-06 2.10717e-21 0)
(4.21426e-06 -8.59291e-07 2.94709e-21 -1.77276e-06 1.16093e-21 0)
(4.13772e-06 -8.00481e-07 -4.32326e-22 -1.65511e-06 3.30706e-22 0)
(4.06811e-06 -7.34326e-07 1.0861e-21 -1.54233e-06 6.6221e-22 0)
(4.00387e-06 -6.60029e-07 1.71909e-21 -1.43406e-06 4.97545e-22 0)
(3.94535e-06 -5.75701e-07 -1.20612e-22 -1.33008e-06 -3.26734e-23 0)
(3.89012e-06 -4.79952e-07 1.02619e-21 -1.23066e-06 5.2839e-22 0)
(3.84212e-06 -3.68234e-07 5.45029e-22 -1.13625e-06 1.6783e-22 0)
(3.79445e-06 -2.41742e-07 -1.6421e-21 -1.0484e-06 -7.89913e-22 0)
(3.76239e-06 -8.12085e-08 -8.07725e-22 -9.68513e-07 -8.95935e-22 -1.38713e-36)
(5.75504e-06 -5.17036e-07 -7.68282e-21 -3.20927e-06 -2.48945e-21 0)
(5.6032e-06 -6.16529e-07 -3.77537e-21 -3.13188e-06 -2.18487e-21 0)
(5.43541e-06 -7.30063e-07 3.30415e-21 -3.02289e-06 1.74868e-22 0)
(5.27193e-06 -8.07498e-07 -1.83039e-21 -2.89816e-06 1.17883e-21 0)
(5.11306e-06 -8.62813e-07 -3.52246e-21 -2.76129e-06 -1.77181e-21 0)
(4.96252e-06 -8.96421e-07 4.26138e-21 -2.61998e-06 1.06413e-21 0)
(4.82213e-06 -9.12006e-07 -3.94197e-35 -2.47774e-06 -1.59082e-35 0)
(4.69238e-06 -9.12223e-07 -4.50574e-21 -2.33762e-06 -2.46952e-21 0)
(4.57354e-06 -8.9955e-07 -8.50512e-36 -2.20132e-06 -6.61604e-36 0)
(4.46504e-06 -8.75916e-07 -1.1895e-21 -2.06988e-06 -8.88716e-22 0)
(4.36622e-06 -8.42742e-07 -1.16349e-21 -1.94377e-06 -8.34571e-22 0)
(4.27621e-06 -8.00869e-07 1.83602e-21 -1.82314e-06 4.516e-22 0)
(4.194e-06 -7.50667e-07 -1.80072e-21 -1.70797e-06 -4.72501e-22 0)
(4.11904e-06 -6.91861e-07 -5.25007e-35 -1.5982e-06 -1.62123e-35 0)
(4.05022e-06 -6.23901e-07 1.73899e-21 -1.49392e-06 5.42437e-22 0)