/*--------------------------------*- C++ -*----------------------------------*\
| =========                 |                                                 |
| \\      /  F ield         | foam-extend: Open Source CFD                    |
|  \\    /   O peration     | Version:     4.1                                |
|   \\  /    A nd           | Web:         http://www.foam-extend.org         |
|    \\/     M anipulation  |                                                 |
\*---------------------------------------------------------------------------*/
FoamFile
{
    version     2.0;
    format      ascii;
    class       vectorField;
    location    "9";
    object      solidsCellD_iteration8;
}
// * * * * * * * * * * * * * * * * * * * * * * * * * * * * * * * * * * * * * //


1000
(
(4.67076e-06 -1.98203e-06 0)
(4.40696e-06 -1.84472e-06 0)
(4.23841e-06 -1.75771e-06 0)
(4.14165e-06 -1.71717e-06 0)
(4.09432e-06 -1.70317e-06 0)
(4.08313e-06 -1.70971e-06 0)
(4.09848e-06 -1.72963e-06 0)
(4.13381e-06 -1.75954e-06 0)
(4.18409e-06 -1.79618e-06 0)
(4.24559e-06 -1.83772e-06 0)
(4.22326e-06 -2.16494e-06 0)
(3.94229e-06 -2.06942e-06 0)
(3.7629e-06 -2.00887e-06 0)
(3.65816e-06 -1.98633e-06 0)
(3.6046e-06 -1.9843e-06 0)
(3.58774e-06 -1.9993e-06 0)
(3.59765e-06 -2.02529e-06 0)
(3.62729e-06 -2.0597e-06 0)
(3.67146e-06 -2.10005e-06 0)
(3.72589e-06 -2.14383e-06 0)
(3.75827e-06 -2.33828e-06 0)
(3.4712e-06 -2.28949e-06 0)
(3.28805e-06 -2.25851e-06 0)
(3.17981e-06 -2.25582e-06 0)
(3.12286e-06 -2.26679e-06 0)
(3.10209e-06 -2.29077e-06 0)
(3.10756e-06 -2.32302e-06 0)
(3.1322e-06 -2.36187e-06 0)
(3.17073e-06 -2.40572e-06 0)
(3.21904e-06 -2.45184e-06 0)
(3.27931e-06 -2.49901e-06 0)
(2.99818e-06 -2.49924e-06 0)
(2.81887e-06 -2.49928e-06 0)
(2.71193e-06 -2.51729e-06 0)
(2.65455e-06 -2.54173e-06 0)
(2.63172e-06 -2.57493e-06 0)
(2.63381e-06 -2.61346e-06 0)
(2.65396e-06 -2.65673e-06 0)
(2.68723e-06 -2.70393e-06 0)
(2.72943e-06 -2.75256e-06 0)
(2.78964e-06 -2.64395e-06 0)
(2.52641e-06 -2.69276e-06 0)
(2.35856e-06 -2.72357e-06 0)
(2.25786e-06 -2.76202e-06 0)
(2.20307e-06 -2.7997e-06 0)
(2.17995e-06 -2.84192e-06 0)
(2.17969e-06 -2.88652e-06 0)
(2.19584e-06 -2.93409e-06 0)
(2.22401e-06 -2.98449e-06 0)
(2.26004e-06 -3.03574e-06 0)
(2.29167e-06 -2.77016e-06 0)
(2.05798e-06 -2.8644e-06 0)
(1.90904e-06 -2.92401e-06 0)
(1.81922e-06 -2.98158e-06 0)
(1.76983e-06 -3.03163e-06 0)
(1.74814e-06 -3.08223e-06 0)
(1.74652e-06 -3.13243e-06 0)
(1.75913e-06 -3.184e-06 0)
(1.78225e-06 -3.23731e-06 0)
(1.81192e-06 -3.29114e-06 0)
(1.78782e-06 -2.87479e-06 0)
(1.59403e-06 -3.00885e-06 0)
(1.47055e-06 -3.09372e-06 0)
(1.39581e-06 -3.16803e-06 0)
(1.35441e-06 -3.22886e-06 0)
(1.33578e-06 -3.28678e-06 0)
(1.33363e-06 -3.34187e-06 0)
(1.34304e-06 -3.39696e-06 0)
(1.36104e-06 -3.45283e-06 0)
(1.38423e-06 -3.509e-06 0)
(1.27981e-06 -2.9555e-06 0)
(1.13463e-06 -3.12155e-06 0)
(1.04218e-06 -3.22668e-06 0)
(9.86121e-07 -3.31438e-06 0)
(9.54921e-07 -3.3839e-06 0)
(9.40628e-07 -3.44771e-06 0)
(9.38566e-07 -3.50674e-06 0)
(9.45042e-07 -3.56468e-06 0)
(9.57919e-07 -3.62257e-06 0)
(9.74519e-07 -3.6807e-06 0)
(7.69057e-07 -3.01036e-06 0)
(6.79187e-07 -3.19876e-06 0)
(6.21979e-07 -3.31807e-06 0)
(5.87179e-07 -3.41518e-06 0)
(5.67717e-07 -3.49079e-06 0)
(5.58704e-07 -3.55867e-06 0)
(5.57269e-07 -3.62047e-06 0)
(5.61074e-07 -3.68045e-06 0)
(5.6879e-07 -3.73981e-06 0)
(5.78751e-07 -3.79934e-06 0)
(2.56844e-07 -3.038e-06 0)
(2.26392e-07 -3.23796e-06 0)
(2.06936e-07 -3.36457e-06 0)
(1.95106e-07 -3.46653e-06 0)
(1.88509e-07 -3.54526e-06 0)
(1.85399e-07 -3.61529e-06 0)
(1.84818e-07 -3.6785e-06 0)
(1.86047e-07 -3.73951e-06 0)
(1.88623e-07 -3.79961e-06 0)
(1.91933e-07 -3.85989e-06 0)
(7.29026e-06 -9.04869e-08 0)
(7.35633e-06 -6.5242e-08 0)
(7.39628e-06 -4.92353e-08 0)
(7.43939e-06 -3.98178e-08 0)
(7.48632e-06 -3.45785e-08 0)
(7.54391e-06 -3.21669e-08 0)
(7.61203e-06 -3.16522e-08 0)
(7.69149e-06 -3.23403e-08 0)
(7.78208e-06 -3.39689e-08 0)
(7.88259e-06 -3.59405e-08 0)
(7.23623e-06 -2.71456e-07 0)
(7.29133e-06 -1.97197e-07 0)
(7.32442e-06 -1.50183e-07 0)
(7.36291e-06 -1.22657e-07 0)
(7.4068e-06 -1.07454e-07 0)
(7.46219e-06 -1.00439e-07 0)
(7.52878e-06 -9.90471e-08 0)
(7.60698e-06 -1.01339e-07 0)
(7.69648e-06 -1.06261e-07 0)
(7.79585e-06 -1.1211e-07 0)
(7.12831e-06 -4.5394e-07 0)
(7.16249e-06 -3.34747e-07 0)
(7.18236e-06 -2.59351e-07 0)
(7.21208e-06 -2.15216e-07 0)
(7.25018e-06 -1.90986e-07 0)
(7.30149e-06 -1.80075e-07 0)
(7.36504e-06 -1.78151e-07 0)
(7.4408e-06 -1.82129e-07 0)
(7.52823e-06 -1.90308e-07 0)
(7.62538e-06 -2.00086e-07 0)
(6.96844e-06 -6.38738e-07 0)
(6.97289e-06 -4.81042e-07 0)
(6.97389e-06 -3.81388e-07 0)
(6.99114e-06 -3.23314e-07 0)
(7.02095e-06 -2.91583e-07 0)
(7.06642e-06 -2.77601e-07 0)
(7.1257e-06 -2.75549e-07 0)
(7.19802e-06 -2.81445e-07 0)
(7.28252e-06 -2.92915e-07 0)
(7.37659e-06 -3.06664e-07 0)
(6.75908e-06 -8.26329e-07 0)
(6.7268e-06 -6.38738e-07 0)
(6.70447e-06 -5.20207e-07 0)
(6.70626e-06 -4.51612e-07 0)
(6.72583e-06 -4.14456e-07 0)
(6.76405e-06 -3.98642e-07 0)
(6.818e-06 -3.97139e-07 0)
(6.886e-06 -4.05273e-07 0)
(6.96684e-06 -4.20033e-07 0)
(7.05718e-06 -4.37727e-07 0)
(6.50342e-06 -1.01681e-06 0)
(6.42953e-06 -8.09556e-07 0)
(6.38089e-06 -6.78551e-07 0)
(6.36519e-06 -6.03472e-07 0)
(6.37313e-06 -5.63382e-07 0)
(6.40308e-06 -5.47224e-07 0)
(6.45096e-06 -5.4704e-07 0)
(6.51403e-06 -5.57727e-07 0)
(6.59064e-06 -5.75777e-07 0)
(6.67678e-06 -5.97392e-07 0)
(6.20524e-06 -1.20982e-06 0)
(6.08739e-06 -9.94202e-07 0)
(6.01094e-06 -8.57842e-07 0)
(5.97676e-06 -7.80761e-07 0)
(5.97237e-06 -7.40446e-07 0)
(5.99351e-06 -7.25569e-07 0)
(6.03486e-06 -7.27573e-07 0)
(6.09262e-06 -7.41186e-07 0)
(6.16459e-06 -7.62598e-07 0)
(6.2463e-06 -7.88082e-07 0)
(5.86852e-06 -1.40444e-06 0)
(5.70711e-06 -1.19221e-06 0)
(5.60311e-06 -1.0579e-06 0)
(5.55051e-06 -9.83471e-07 0)
(5.53381e-06 -9.45755e-07 0)
(5.54603e-06 -9.33861e-07 0)
(5.58063e-06 -9.38972e-07 0)
(5.63288e-06 -9.55972e-07 0)
(5.69993e-06 -9.80828e-07 0)
(5.7771e-06 -1.01019e-06 0)
(5.49763e-06 -1.59933e-06 0)
(5.29572e-06 -1.40194e-06 0)
(5.16616e-06 -1.27699e-06 0)
(5.09632e-06 -1.20979e-06 0)
(5.06797e-06 -1.17749e-06 0)
(5.07158e-06 -1.17024e-06 0)
(5.09946e-06 -1.17943e-06 0)
(5.14615e-06 -1.20022e-06 0)
(5.20798e-06 -1.2288e-06 0)
(5.2806e-06 -1.26183e-06 0)
(5.09695e-06 -1.79263e-06 0)
(4.86018e-06 -1.62068e-06 0)
(4.70861e-06 -1.5118e-06 0)
(4.62373e-06 -1.45614e-06 0)
(4.58497e-06 -1.43188e-06 0)
(4.58066e-06 -1.43085e-06 0)
(4.6022e-06 -1.44501e-06 0)
(4.64338e-06 -1.47025e-06 0)
(4.70006e-06 -1.50276e-06 0)
(4.76777e-06 -1.54083e-06 0)
(7.99328e-06 -3.78756e-08 0)
(8.11394e-06 -3.82781e-08 0)
(8.24227e-06 -3.87606e-08 0)
(8.37782e-06 -3.90949e-08 0)
(8.51973e-06 -3.9243e-08 0)
(8.66748e-06 -3.91918e-08 0)
(8.8204e-06 -3.8888e-08 0)
(8.97788e-06 -3.83561e-08 0)
(9.13945e-06 -3.75924e-08 0)
(9.30461e-06 -3.65559e-08 0)
(9.47285e-06 -3.52066e-08 0)
(9.64366e-06 -3.35288e-08 0)
(9.81658e-06 -3.15057e-08 0)
(9.99107e-06 -2.91162e-08 0)
(1.01667e-05 -2.63192e-08 0)
(1.03428e-05 -2.30541e-08 0)
(1.0519e-05 -1.92441e-08 0)
(1.06941e-05 -1.48151e-08 0)
(1.08685e-05 -9.66272e-09 0)
(1.10392e-05 -3.75292e-09 0)
(7.9104e-06 -1.17501e-07 0)
(8.038e-06 -1.18188e-07 0)
(8.17253e-06 -1.19152e-07 0)
(8.31348e-06 -1.19753e-07 0)
(8.46022e-06 -1.19824e-07 0)
(8.61221e-06 -1.1938e-07 0)
(8.76895e-06 -1.18295e-07 0)
(8.92991e-06 -1.16569e-07 0)
(9.09465e-06 -1.14106e-07 0)
(9.26269e-06 -1.10816e-07 0)
(9.43358e-06 -1.06645e-07 0)
(9.60685e-06 -1.01557e-07 0)
(9.78208e-06 -9.54689e-08 0)
(9.95876e-06 -8.82734e-08 0)
(1.01364e-05 -7.98311e-08 0)
(1.03145e-05 -6.99865e-08 0)
(1.04926e-05 -5.85352e-08 0)
(1.06695e-05 -4.52668e-08 0)
(1.08457e-05 -2.98576e-08 0)
(1.10181e-05 -1.21768e-08 0)
(7.74744e-06 -2.07784e-07 0)
(7.88868e-06 -2.07218e-07 0)
(8.03541e-06 -2.07249e-07 0)
(8.18687e-06 -2.07047e-07 0)
(8.34303e-06 -2.06191e-07 0)
(8.5034e-06 -2.04694e-07 0)
(8.66771e-06 -2.02263e-07 0)
(8.83546e-06 -1.98853e-07 0)
(9.00636e-06 -1.94285e-07 0)
(9.18003e-06 -1.88451e-07 0)
(9.35612e-06 -1.8126e-07 0)
(9.53423e-06 -1.72615e-07 0)
(9.71398e-06 -1.62339e-07 0)
(9.89488e-06 -1.50232e-07 0)
(1.00766e-05 -1.36068e-07 0)
(1.02585e-05 -1.19601e-07 0)
(1.04402e-05 -1.00492e-07 0)
(1.06208e-05 -7.83965e-08 0)
(1.08005e-05 -5.27712e-08 0)
(1.09765e-05 -2.33729e-08 0)
(7.50936e-06 -3.14789e-07 0)
(7.67011e-06 -3.10538e-07 0)
(7.83445e-06 -3.07421e-07 0)
(8.00123e-06 -3.04744e-07 0)
(8.17116e-06 -3.01567e-07 0)
(8.34371e-06 -2.97913e-07 0)
(8.51902e-06 -2.93222e-07 0)
(8.69669e-06 -2.87407e-07 0)
(8.87669e-06 -2.80174e-07 0)
(9.0587e-06 -2.71369e-07 0)
(9.24246e-06 -2.60815e-07 0)
(9.42767e-06 -2.48326e-07 0)
(9.61403e-06 -2.33632e-07 0)
(9.80115e-06 -2.16461e-07 0)
(9.98874e-06 -1.96509e-07 0)
(1.01763e-05 -1.734e-07 0)
(1.03635e-05 -1.46654e-07 0)
(1.05493e-05 -1.15775e-07 0)
(1.07342e-05 -7.99839e-08 0)
(1.09153e-05 -3.89501e-08 0)
(7.20329e-06 -4.43875e-07 0)
(7.38856e-06 -4.32836e-07 0)
(7.57526e-06 -4.23764e-07 0)
(7.76146e-06 -4.16461e-07 0)
(7.94894e-06 -4.09136e-07 0)
(8.13711e-06 -4.01838e-07 0)
(8.32658e-06 -3.93683e-07 0)
(8.51706e-06 -3.84509e-07 0)
(8.70875e-06 -3.73851e-07 0)
(8.90145e-06 -3.61452e-07 0)
(9.09509e-06 -3.47038e-07 0)
(9.28948e-06 -3.30323e-07 0)
(9.48443e-06 -3.10938e-07 0)
(9.67963e-06 -2.88517e-07 0)
(9.87488e-06 -2.6265e-07 0)
(1.00697e-05 -2.32835e-07 0)
(1.02639e-05 -1.98443e-07 0)
(1.04565e-05 -1.58831e-07 0)
(1.06481e-05 -1.12968e-07 0)
(1.08359e-05 -6.0432e-08 0)
(6.83793e-06 -5.98887e-07 0)
(7.05141e-06 -5.77478e-07 0)
(7.26427e-06 -5.59113e-07 0)
(7.47335e-06 -5.44545e-07 0)
(7.68171e-06 -5.30897e-07 0)
(7.8885e-06 -5.18184e-07 0)
(8.09485e-06 -5.05134e-07 0)
(8.30067e-06 -4.91409e-07 0)
(8.50638e-06 -4.76389e-07 0)
(8.71195e-06 -4.59675e-07 0)
(8.9175e-06 -4.40856e-07 0)
(9.12296e-06 -4.19508e-07 0)
(9.32823e-06 -3.9514e-07 0)
(9.53312e-06 -3.67278e-07 0)
(9.73755e-06 -3.35377e-07 0)
(9.94108e-06 -2.98813e-07 0)
(1.01437e-05 -2.56807e-07 0)
(1.03445e-05 -2.08565e-07 0)
(1.05441e-05 -1.52807e-07 0)
(1.07399e-05 -8.89591e-08 0)
(6.42347e-06 -7.82256e-07 0)
(6.66763e-06 -7.4679e-07 0)
(6.90939e-06 -7.15794e-07 0)
(7.14394e-06 -6.91144e-07 0)
(7.37558e-06 -6.68889e-07 0)
(7.60339e-06 -6.48796e-07 0)
(7.82884e-06 -6.29306e-07 0)
(8.05209e-06 -6.09755e-07 0)
(8.27378e-06 -5.89353e-07 0)
(8.49409e-06 -5.675e-07 0)
(8.71327e-06 -5.43612e-07 0)
(8.93138e-06 -5.171e-07 0)
(9.14847e-06 -4.87344e-07 0)
(9.36448e-06 -4.53753e-07 0)
(9.57943e-06 -4.15644e-07 0)
(9.793e-06 -3.72266e-07 0)
(1.00053e-05 -3.22673e-07 0)
(1.02155e-05 -2.65904e-07 0)
(1.04242e-05 -2.00429e-07 0)
(1.06293e-05 -1.25518e-07 0)
(5.97017e-06 -9.94471e-07 0)
(6.24602e-06 -9.40954e-07 0)
(6.5181e-06 -8.94028e-07 0)
(6.77997e-06 -8.56154e-07 0)
(7.03674e-06 -8.22858e-07 0)
(7.28747e-06 -7.9327e-07 0)
(7.53392e-06 -7.65659e-07 0)
(7.77642e-06 -7.38938e-07 0)
(8.01578e-06 -7.121e-07 0)
(8.25238e-06 -6.84286e-07 0)
(8.48662e-06 -6.54702e-07 0)
(8.71871e-06 -6.22575e-07 0)
(8.94887e-06 -5.8714e-07 0)
(9.17719e-06 -5.47661e-07 0)
(9.40377e-06 -5.03304e-07 0)
(9.62846e-06 -4.53168e-07 0)
(9.85143e-06 -3.96127e-07 0)
(1.0072e-05 -3.31041e-07 0)
(1.02909e-05 -2.56131e-07 0)
(1.05061e-05 -1.70505e-07 0)
(5.48905e-06 -1.23515e-06 0)
(5.79677e-06 -1.16015e-06 0)
(6.09926e-06 -1.09515e-06 0)
(6.38945e-06 -1.04135e-06 0)
(6.67219e-06 -9.94906e-07 0)
(6.94699e-06 -9.53922e-07 0)
(7.21553e-06 -9.16544e-07 0)
(7.47844e-06 -8.81238e-07 0)
(7.73662e-06 -8.46751e-07 0)
(7.99064e-06 -8.1195e-07 0)
(8.24104e-06 -7.75823e-07 0)
(8.4882e-06 -7.37415e-07 0)
(8.73247e-06 -6.95802e-07 0)
(8.97408e-06 -6.50084e-07 0)
(9.21325e-06 -5.99256e-07 0)
(9.44993e-06 -5.42257e-07 0)
(9.68439e-06 -4.77771e-07 0)
(9.91611e-06 -4.04484e-07 0)
(1.01459e-05 -3.20397e-07 0)
(1.03721e-05 -2.24476e-07 0)
(4.98917e-06 -1.50011e-06 0)
(5.32894e-06 -1.39867e-06 0)
(5.66065e-06 -1.3134e-06 0)
(5.97989e-06 -1.24111e-06 0)
(6.2892e-06 -1.17931e-06 0)
(6.58909e-06 -1.12516e-06 0)
(6.88074e-06 -1.07656e-06 0)
(7.16506e-06 -1.0316e-06 0)
(7.44299e-06 -9.88681e-07 0)
(7.71529e-06 -9.46354e-07 0)
(7.98263e-06 -9.03349e-07 0)
(8.24556e-06 -8.58486e-07 0)
(8.50458e-06 -8.10646e-07 0)
(8.76005e-06 -7.58743e-07 0)
(9.01229e-06 -7.01595e-07 0)
(9.26142e-06 -6.37973e-07 0)
(9.5078e-06 -5.66388e-07 0)
(9.75111e-06 -4.85338e-07 0)
(9.99228e-06 -3.92621e-07 0)
(1.023e-05 -2.87012e-07 0)
(4.61826e-06 -1.75393e-06 0)
(4.9795e-06 -1.63099e-06 0)
(5.32866e-06 -1.53058e-06 0)
(5.66568e-06 -1.44362e-06 0)
(5.99162e-06 -1.36839e-06 0)
(6.30736e-06 -1.30195e-06 0)
(6.61396e-06 -1.24214e-06 0)
(6.91234e-06 -1.18698e-06 0)
(7.20339e-06 -1.13473e-06 0)
(7.48789e-06 -1.08384e-06 0)
(7.76655e-06 -1.03289e-06 0)
(8.03997e-06 -9.8058e-07 0)
(8.30872e-06 -9.25665e-07 0)
(8.57323e-06 -8.66932e-07 0)
(8.83388e-06 -8.03093e-07 0)
(9.09092e-06 -7.32812e-07 0)
(9.34479e-06 -6.54533e-07 0)
(9.59542e-06 -5.66663e-07 0)
(9.84375e-06 -4.66961e-07 0)
(1.00889e-05 -3.54125e-07 0)
(4.40599e-06 -1.96004e-06 0)
(4.76959e-06 -1.83229e-06 0)
(5.12166e-06 -1.72332e-06 0)
(5.46322e-06 -1.62731e-06 0)
(5.7944e-06 -1.54262e-06 0)
(6.11578e-06 -1.46681e-06 0)
(6.42813e-06 -1.39785e-06 0)
(6.73215e-06 -1.33388e-06 0)
(7.0286e-06 -1.27321e-06 0)
(7.31816e-06 -1.21428e-06 0)
(7.6015e-06 -1.15571e-06 0)
(7.87919e-06 -1.09616e-06 0)
(8.1518e-06 -1.03437e-06 0)
(8.41978e-06 -9.69085e-07 0)
(8.68352e-06 -8.99008e-07 0)
(8.9434e-06 -8.22788e-07 0)
(9.19985e-06 -7.38911e-07 0)
(9.45302e-06 -6.45811e-07 0)
(9.70382e-06 -5.41355e-07 0)
(9.95174e-06 -4.24282e-07 0)
(4.22428e-06 -2.15794e-06 0)
(4.5843e-06 -2.02727e-06 0)
(4.93578e-06 -1.91277e-06 0)
(5.27808e-06 -1.80986e-06 0)
(5.61126e-06 -1.71737e-06 0)
(5.93539e-06 -1.63336e-06 0)
(6.25098e-06 -1.55608e-06 0)
(6.55849e-06 -1.48385e-06 0)
(6.85851e-06 -1.4151e-06 0)
(7.15158e-06 -1.34839e-06 0)
(7.4383e-06 -1.28234e-06 0)
(7.71919e-06 -1.21566e-06 0)
(7.99478e-06 -1.14706e-06 0)
(8.26552e-06 -1.07532e-06 0)
(8.5318e-06 -9.99145e-07 0)
(8.79408e-06 -9.172e-07 0)
(9.05281e-06 -8.28037e-07 0)
(9.30829e-06 -7.30161e-07 0)
(9.56138e-06 -6.21569e-07 0)
(9.81194e-06 -5.01081e-07 0)
(4.06392e-06 -2.34862e-06 0)
(4.41873e-06 -2.2165e-06 0)
(4.76716e-06 -2.09786e-06 0)
(5.10778e-06 -1.98931e-06 0)
(5.44058e-06 -1.89015e-06 0)
(5.76527e-06 -1.79889e-06 0)
(6.08213e-06 -1.71406e-06 0)
(6.39138e-06 -1.63421e-06 0)
(6.69343e-06 -1.55792e-06 0)
(6.98871e-06 -1.48385e-06 0)
(7.27771e-06 -1.41069e-06 0)
(7.56087e-06 -1.33719e-06 0)
(7.83867e-06 -1.26211e-06 0)
(8.11154e-06 -1.18423e-06 0)
(8.37988e-06 -1.10231e-06 0)
(8.64417e-06 -1.01506e-06 0)
(8.90487e-06 -9.21105e-07 0)
(9.16241e-06 -8.19052e-07 0)
(9.41761e-06 -7.07045e-07 0)
(9.67063e-06 -5.84039e-07 0)
(3.92243e-06 -2.53131e-06 0)
(4.27064e-06 -2.39881e-06 0)
(4.61426e-06 -2.27746e-06 0)
(4.95138e-06 -2.16467e-06 0)
(5.28196e-06 -2.06012e-06 0)
(5.60543e-06 -1.96271e-06 0)
(5.9219e-06 -1.87126e-06 0)
(6.23137e-06 -1.78456e-06 0)
(6.53412e-06 -1.70136e-06 0)
(6.83044e-06 -1.62044e-06 0)
(7.1207e-06 -1.54061e-06 0)
(7.40525e-06 -1.46067e-06 0)
(7.68454e-06 -1.37944e-06 0)
(7.95894e-06 -1.29577e-06 0)
(8.22886e-06 -1.20845e-06 0)
(8.49478e-06 -1.11628e-06 0)
(8.75716e-06 -1.01799e-06 0)
(9.01651e-06 -9.12265e-07 0)
(9.27359e-06 -7.97455e-07 0)
(9.52886e-06 -6.72697e-07 0)
(3.7965e-06 -2.7061e-06 0)
(4.13736e-06 -2.57406e-06 0)
(4.47512e-06 -2.45102e-06 0)
(4.80747e-06 -2.33506e-06 0)
(5.1345e-06 -2.22617e-06 0)
(5.4554e-06 -2.12359e-06 0)
(5.77015e-06 -2.0264e-06 0)
(6.0786e-06 -1.93363e-06 0)
(6.38091e-06 -1.8442e-06 0)
(6.67724e-06 -1.75705e-06 0)
(6.96786e-06 -1.67108e-06 0)
(7.25303e-06 -1.58518e-06 0)
(7.53314e-06 -1.49826e-06 0)
(7.80853e-06 -1.40922e-06 0)
(8.07957e-06 -1.31695e-06 0)
(8.34675e-06 -1.22032e-06 0)
(8.6105e-06 -1.11816e-06 0)
(8.87139e-06 -1.0093e-06 0)
(9.13016e-06 -8.92293e-07 0)
(9.38743e-06 -7.66457e-07 0)
(3.68358e-06 -2.87328e-06 0)
(4.01669e-06 -2.74226e-06 0)
(4.34787e-06 -2.61834e-06 0)
(4.67462e-06 -2.50013e-06 0)
(4.99713e-06 -2.38786e-06 0)
(5.31444e-06 -2.28101e-06 0)
(5.62645e-06 -2.17895e-06 0)
(5.93291e-06 -2.0809e-06 0)
(6.23385e-06 -1.98596e-06 0)
(6.52934e-06 -1.8932e-06 0)
(6.81955e-06 -1.80166e-06 0)
(7.10466e-06 -1.71032e-06 0)
(7.38501e-06 -1.61818e-06 0)
(7.66088e-06 -1.52424e-06 0)
(7.93263e-06 -1.42745e-06 0)
(8.20071e-06 -1.32681e-06 0)
(8.46555e-06 -1.22125e-06 0)
(8.72774e-06 -1.10974e-06 0)
(8.98798e-06 -9.91089e-07 0)
(9.24696e-06 -8.64686e-07 0)
(3.58131e-06 -3.03319e-06 0)
(3.90654e-06 -2.90359e-06 0)
(4.23073e-06 -2.77939e-06 0)
(4.55139e-06 -2.65966e-06 0)
(4.86872e-06 -2.54479e-06 0)
(5.18171e-06 -2.43449e-06 0)
(5.49023e-06 -2.32834e-06 0)
(5.79393e-06 -2.22575e-06 0)
(6.09275e-06 -2.12598e-06 0)
(6.3867e-06 -2.02826e-06 0)
(6.67585e-06 -1.93174e-06 0)
(6.96033e-06 -1.83552e-06 0)
(7.24042e-06 -1.73867e-06 0)
(7.51635e-06 -1.64032e-06 0)
(7.78843e-06 -1.53949e-06 0)
(8.05711e-06 -1.4353e-06 0)
(8.32277e-06 -1.32681e-06 0)
(8.58603e-06 -1.21314e-06 0)
(8.84751e-06 -1.0933e-06 0)
(9.10795e-06 -9.66735e-07 0)
(3.48757e-06 -3.18634e-06 0)
(3.80497e-06 -3.05838e-06 0)
(4.122e-06 -2.93434e-06 0)
(4.4363e-06 -2.81366e-06 0)
(4.74803e-06 -2.69686e-06 0)
(5.05622e-06 -2.5838e-06 0)
(5.36072e-06 -2.47427e-06 0)
(5.6611e-06 -2.36783e-06 0)
(5.95725e-06 -2.26391e-06 0)
(6.2491e-06 -2.16186e-06 0)
(6.5367e-06 -2.06096e-06 0)
(6.82009e-06 -1.9604e-06 0)
(7.09952e-06 -1.85939e-06 0)
(7.37514e-06 -1.75711e-06 0)
(7.64725e-06 -1.65272e-06 0)
(7.91625e-06 -1.54544e-06 0)
(8.18251e-06 -1.43448e-06 0)
(8.44662e-06 -1.31907e-06 0)
(8.7091e-06 -1.1984e-06 0)
(8.97079e-06 -1.07204e-06 0)
(3.40051e-06 -3.3332e-06 0)
(3.71022e-06 -3.207e-06 0)
(4.02011e-06 -3.08343e-06 0)
(4.32792e-06 -2.96224e-06 0)
(4.63385e-06 -2.84403e-06 0)
(4.93698e-06 -2.72881e-06 0)
(5.2371e-06 -2.61652e-06 0)
(5.53377e-06 -2.50688e-06 0)
(5.82686e-06 -2.39943e-06 0)
(6.11624e-06 -2.29367e-06 0)
(6.40189e-06 -2.18897e-06 0)
(6.68385e-06 -2.08464e-06 0)
(6.96227e-06 -1.97998e-06 0)
(7.2373e-06 -1.87428e-06 0)
(7.50918e-06 -1.76681e-06 0)
(7.77829e-06 -1.6569e-06 0)
(8.04493e-06 -1.54387e-06 0)
(8.30967e-06 -1.42709e-06 0)
(8.57295e-06 -1.30589e-06 0)
(8.83566e-06 -1.18005e-06 0)
(3.31848e-06 -3.4743e-06 0)
(3.62074e-06 -3.34988e-06 0)
(3.92357e-06 -3.22698e-06 0)
(4.22494e-06 -3.1056e-06 0)
(4.52503e-06 -2.98641e-06 0)
(4.82295e-06 -2.86954e-06 0)
(5.1185e-06 -2.75506e-06 0)
(5.41125e-06 -2.64279e-06 0)
(5.70101e-06 -2.53241e-06 0)
(5.98765e-06 -2.4235e-06 0)
(6.27111e-06 -2.31556e-06 0)
(6.55136e-06 -2.208e-06 0)
(6.82855e-06 -2.1002e-06 0)
(7.10277e-06 -1.99157e-06 0)
(7.37422e-06 -1.88147e-06 0)
(7.64324e-06 -1.76935e-06 0)
(7.91008e-06 -1.65463e-06 0)
(8.17525e-06 -1.53678e-06 0)
(8.43918e-06 -1.41533e-06 0)
(8.70267e-06 -1.29018e-06 0)
(3.24001e-06 -3.61011e-06 0)
(3.53509e-06 -3.48742e-06 0)
(3.83107e-06 -3.3653e-06 0)
(4.12612e-06 -3.24398e-06 0)
(4.42042e-06 -3.12418e-06 0)
(4.71312e-06 -3.00609e-06 0)
(5.00404e-06 -2.8899e-06 0)
(5.29275e-06 -2.77553e-06 0)
(5.57906e-06 -2.66274e-06 0)
(5.86281e-06 -2.55122e-06 0)
(6.14391e-06 -2.44057e-06 0)
(6.42231e-06 -2.33028e-06 0)
(6.69811e-06 -2.21984e-06 0)
(6.97137e-06 -2.10875e-06 0)
(7.24225e-06 -1.99646e-06 0)
(7.51103e-06 -1.88251e-06 0)
(7.77791e-06 -1.76643e-06 0)
(8.04338e-06 -1.64778e-06 0)
(8.30779e-06 -1.52633e-06 0)
(8.57187e-06 -1.40194e-06 0)
(3.16379e-06 -3.74108e-06 0)
(3.45199e-06 -3.62002e-06 0)
(3.74136e-06 -3.49876e-06 0)
(4.03029e-06 -3.3777e-06 0)
(4.31892e-06 -3.25755e-06 0)
(4.60649e-06 -3.13861e-06 0)
(4.89282e-06 -3.02113e-06 0)
(5.17751e-06 -2.90511e-06 0)
(5.46035e-06 -2.79041e-06 0)
(5.74118e-06 -2.67679e-06 0)
(6.01986e-06 -2.56392e-06 0)
(6.29634e-06 -2.4514e-06 0)
(6.57066e-06 -2.33879e-06 0)
(6.84286e-06 -2.22568e-06 0)
(7.11305e-06 -2.11161e-06 0)
(7.38148e-06 -1.99617e-06 0)
(7.64828e-06 -1.87901e-06 0)
(7.91392e-06 -1.75982e-06 0)
(8.17864e-06 -1.6385e-06 0)
(8.44316e-06 -1.51493e-06 0)
(3.08859e-06 -3.86759e-06 0)
(3.37021e-06 -3.74809e-06 0)
(3.65324e-06 -3.62771e-06 0)
(3.93629e-06 -3.50702e-06 0)
(4.21945e-06 -3.38678e-06 0)
(4.50208e-06 -3.26729e-06 0)
(4.78398e-06 -3.14891e-06 0)
(5.06476e-06 -3.03166e-06 0)
(5.34421e-06 -2.91551e-06 0)
(5.62214e-06 -2.80023e-06 0)
(5.89842e-06 -2.68561e-06 0)
(6.17296e-06 -2.5713e-06 0)
(6.44579e-06 -2.45695e-06 0)
(6.7169e-06 -2.34222e-06 0)
(6.98635e-06 -2.2267e-06 0)
(7.25434e-06 -2.11009e-06 0)
(7.52097e-06 -1.99211e-06 0)
(7.78668e-06 -1.87259e-06 0)
(8.0516e-06 -1.75143e-06 0)
(8.3164e-06 -1.62873e-06 0)
(3.01313e-06 -3.99007e-06 0)
(3.28851e-06 -3.87197e-06 0)
(3.56552e-06 -3.75249e-06 0)
(3.84297e-06 -3.63231e-06 0)
(4.12095e-06 -3.51216e-06 0)
(4.3989e-06 -3.39243e-06 0)
(4.6766e-06 -3.27347e-06 0)
(4.95367e-06 -3.15537e-06 0)
(5.22989e-06 -3.03812e-06 0)
(5.50507e-06 -2.92161e-06 0)
(5.77906e-06 -2.80566e-06 0)
(6.05175e-06 -2.68999e-06 0)
(6.32313e-06 -2.5743e-06 0)
(6.59315e-06 -2.45831e-06 0)
(6.86183e-06 -2.34167e-06 0)
(7.12935e-06 -2.22415e-06 0)
(7.39579e-06 -2.10559e-06 0)
(7.66146e-06 -1.98586e-06 0)
(7.92652e-06 -1.86495e-06 0)
(8.19148e-06 -1.74303e-06 0)
(2.93625e-06 -4.10879e-06 0)
(3.20568e-06 -3.99214e-06 0)
(3.47693e-06 -3.87344e-06 0)
(3.74919e-06 -3.75384e-06 0)
(4.02239e-06 -3.634e-06 0)
(4.29602e-06 -3.51426e-06 0)
(4.56984e-06 -3.39501e-06 0)
(4.84348e-06 -3.27641e-06 0)
(5.11672e-06 -3.15845e-06 0)
(5.38936e-06 -3.04108e-06 0)
(5.66124e-06 -2.92418e-06 0)
(5.9322e-06 -2.80752e-06 0)
(6.20222e-06 -2.69083e-06 0)
(6.47119e-06 -2.57389e-06 0)
(6.73913e-06 -2.45641e-06 0)
(7.00619e-06 -2.33825e-06 0)
(7.2724e-06 -2.21929e-06 0)
(7.53799e-06 -2.09941e-06 0)
(7.80307e-06 -1.97877e-06 0)
(8.06811e-06 -1.85756e-06 0)
(2.85669e-06 -4.22423e-06 0)
(3.1203e-06 -4.10858e-06 0)
(3.38611e-06 -3.99095e-06 0)
(3.65382e-06 -3.87217e-06 0)
(3.92266e-06 -3.75275e-06 0)
(4.19244e-06 -3.63322e-06 0)
(4.46279e-06 -3.51393e-06 0)
(4.7334e-06 -3.39509e-06 0)
(5.00401e-06 -3.27673e-06 0)
(5.27443e-06 -3.15884e-06 0)
(5.54444e-06 -3.04133e-06 0)
(5.81387e-06 -2.92399e-06 0)
(6.08264e-06 -2.80659e-06 0)
(6.35066e-06 -2.68898e-06 0)
(6.61794e-06 -2.57094e-06 0)
(6.88459e-06 -2.45232e-06 0)
(7.15053e-06 -2.33304e-06 0)
(7.41599e-06 -2.21308e-06 0)
(7.68104e-06 -2.09273e-06 0)
(7.94613e-06 -1.97211e-06 0)
(2.77254e-06 -4.33625e-06 0)
(3.03122e-06 -4.22178e-06 0)
(3.29256e-06 -4.10542e-06 0)
(3.55588e-06 -3.98748e-06 0)
(3.82094e-06 -3.8687e-06 0)
(4.08733e-06 -3.74957e-06 0)
(4.35472e-06 -3.63049e-06 0)
(4.62277e-06 -3.51169e-06 0)
(4.8912e-06 -3.39323e-06 0)
(5.15977e-06 -3.2751e-06 0)
(5.42821e-06 -3.15723e-06 0)
(5.69631e-06 -3.03949e-06 0)
(5.96404e-06 -2.92167e-06 0)
(6.23129e-06 -2.80363e-06 0)
(6.498e-06 -2.68519e-06 0)
(6.76419e-06 -2.56627e-06 0)
(7.02982e-06 -2.44679e-06 0)
(7.29522e-06 -2.32683e-06 0)
(7.56026e-06 -2.20667e-06 0)
(7.82522e-06 -2.08653e-06 0)
(2.68272e-06 -4.44607e-06 0)
(2.93688e-06 -4.333e-06 0)
(3.19416e-06 -4.21762e-06 0)
(3.45391e-06 -4.10059e-06 0)
(3.71587e-06 -3.98256e-06 0)
(3.97958e-06 -3.86401e-06 0)
(4.24472e-06 -3.74533e-06 0)
(4.51088e-06 -3.62676e-06 0)
(4.77769e-06 -3.50838e-06 0)
(5.04484e-06 -3.39021e-06 0)
(5.31209e-06 -3.27222e-06 0)
(5.57926e-06 -3.15426e-06 0)
(5.84621e-06 -3.0362e-06 0)
(6.11276e-06 -2.91792e-06 0)
(6.3789e-06 -2.79924e-06 0)
(6.64475e-06 -2.68007e-06 0)
(6.91017e-06 -2.56048e-06 0)
(7.17536e-06 -2.44052e-06 0)
(7.44036e-06 -2.32045e-06 0)
(7.70526e-06 -2.20065e-06 0)
(2.58606e-06 -4.55276e-06 0)
(2.83626e-06 -4.44126e-06 0)
(3.09015e-06 -4.32731e-06 0)
(3.34712e-06 -4.21148e-06 0)
(3.6068e-06 -4.09445e-06 0)
(3.86872e-06 -3.97671e-06 0)
(4.13239e-06 -3.85865e-06 0)
(4.39732e-06 -3.74052e-06 0)
(4.66311e-06 -3.62241e-06 0)
(4.92947e-06 -3.50437e-06 0)
(5.19605e-06 -3.38641e-06 0)
(5.46254e-06 -3.26843e-06 0)
(5.72889e-06 -3.15023e-06 0)
(5.99496e-06 -3.03179e-06 0)
(6.26063e-06 -2.913e-06 0)
(6.52606e-06 -2.79372e-06 0)
(6.79123e-06 -2.67407e-06 0)
(7.05622e-06 -2.55404e-06 0)
(7.32116e-06 -2.43401e-06 0)
(7.58599e-06 -2.31431e-06 0)
(1.91239e-07 -3.92158e-06 0)
(5.76345e-07 -3.86392e-06 0)
(9.69328e-07 -3.75084e-06 0)
(1.37463e-06 -3.58695e-06 0)
(1.79585e-06 -3.37846e-06 0)
(2.23524e-06 -3.13323e-06 0)
(2.69368e-06 -2.86017e-06 0)
(3.17035e-06 -2.56866e-06 0)
(3.66363e-06 -2.26811e-06 0)
(4.16954e-06 -1.96603e-06 0)
(1.85926e-07 -3.98574e-06 0)
(5.60006e-07 -3.93307e-06 0)
(9.40625e-07 -3.82969e-06 0)
(1.33152e-06 -3.67956e-06 0)
(1.73574e-06 -3.4879e-06 0)
(2.1552e-06 -3.26141e-06 0)
(2.59065e-06 -3.00767e-06 0)
(3.04129e-06 -2.73478e-06 0)
(3.50494e-06 -2.45134e-06 0)
(3.97856e-06 -2.16364e-06 0)
(1.81202e-07 -4.05151e-06 0)
(5.45455e-07 -4.00338e-06 0)
(9.15023e-07 -3.90878e-06 0)
(1.29291e-06 -3.77118e-06 0)
(1.68167e-06 -3.5951e-06 0)
(2.08288e-06 -3.38632e-06 0)
(2.49732e-06 -3.15134e-06 0)
(2.92477e-06 -2.89696e-06 0)
(3.36358e-06 -2.6307e-06 0)
(3.81183e-06 -2.3566e-06 0)
(1.76977e-07 -4.11895e-06 0)
(5.32474e-07 -4.07467e-06 0)
(8.92417e-07 -3.98754e-06 0)
(1.2592e-06 -3.86064e-06 0)
(1.63498e-06 -3.69793e-06 0)
(2.02101e-06 -3.50444e-06 0)
(2.41786e-06 -3.286e-06 0)
(2.82533e-06 -3.04854e-06 0)
(3.24197e-06 -2.79912e-06 0)
(3.66619e-06 -2.54081e-06 0)
(1.73095e-07 -4.18803e-06 0)
(5.20493e-07 -4.14718e-06 0)
(8.71613e-07 -4.06674e-06 0)
(1.22835e-06 -3.94945e-06 0)
(1.5925e-06 -3.79885e-06 0)
(1.96512e-06 -3.61939e-06 0)
(2.34668e-06 -3.41625e-06 0)
(2.73705e-06 -3.19448e-06 0)
(3.13514e-06 -2.96051e-06 0)
(3.53877e-06 -2.71711e-06 0)
(1.69468e-07 -4.25862e-06 0)
(5.09386e-07 -4.22075e-06 0)
(8.52426e-07 -4.14613e-06 0)
(1.20014e-06 -4.03724e-06 0)
(1.55403e-06 -3.89727e-06 0)
(1.91492e-06 -3.7302e-06 0)
(2.28317e-06 -3.54077e-06 0)
(2.6585e-06 -3.33343e-06 0)
(3.04039e-06 -3.11401e-06 0)
(3.42607e-06 -2.88531e-06 0)
(1.65981e-07 -4.33065e-06 0)
(4.98801e-07 -4.29543e-06 0)
(8.34232e-07 -4.22602e-06 0)
(1.17362e-06 -4.12463e-06 0)
(1.51815e-06 -3.99419e-06 0)
(1.86856e-06 -3.83831e-06 0)
(2.22513e-06 -3.66127e-06 0)
(2.58741e-06 -3.46706e-06 0)
(2.95528e-06 -3.26091e-06 0)
(3.32553e-06 -3.04586e-06 0)
(1.62641e-07 -4.40394e-06 0)
(4.8862e-07 -4.37106e-06 0)
(8.16825e-07 -4.30626e-06 0)
(1.14843e-06 -4.21151e-06 0)
(1.48441e-06 -4.08956e-06 0)
(1.82531e-06 -3.94368e-06 0)
(2.17144e-06 -3.7778e-06 0)
(2.52218e-06 -3.59559e-06 0)
(2.87774e-06 -3.40165e-06 0)
(3.2347e-06 -3.19928e-06 0)
(1.59379e-07 -4.47836e-06 0)
(4.78652e-07 -4.44757e-06 0)
(7.99881e-07 -4.3869e-06 0)
(1.12407e-06 -4.29812e-06 0)
(1.45204e-06 -4.18381e-06 0)
(1.78424e-06 -4.04693e-06 0)
(2.12093e-06 -3.89111e-06 0)
(2.4614e-06 -3.71978e-06 0)
(2.80608e-06 -3.53696e-06 0)
(3.1515e-06 -3.34617e-06 0)
(1.56114e-07 -4.55375e-06 0)
(4.68773e-07 -4.52482e-06 0)
(7.83189e-07 -4.46784e-06 0)
(1.10023e-06 -4.38442e-06 0)
(1.42059e-06 -4.27698e-06 0)
(1.74467e-06 -4.1482e-06 0)
(2.07269e-06 -4.00146e-06 0)
(2.40389e-06 -3.84e-06 0)
(2.73881e-06 -3.66735e-06 0)
(3.07413e-06 -3.48713e-06 0)
(1.52805e-07 -4.62994e-06 0)
(4.58875e-07 -4.60268e-06 0)
(7.66517e-07 -4.54904e-06 0)
(1.07655e-06 -4.47047e-06 0)
(1.38956e-06 -4.36921e-06 0)
(1.70594e-06 -4.24776e-06 0)
(2.02588e-06 -4.10924e-06 0)
(2.3486e-06 -3.95673e-06 0)
(2.67468e-06 -3.79334e-06 0)
(3.00101e-06 -3.6227e-06 0)
(1.49456e-07 -4.7067e-06 0)
(4.48862e-07 -4.68097e-06 0)
(7.49675e-07 -4.63036e-06 0)
(1.05273e-06 -4.55618e-06 0)
(1.35856e-06 -4.46052e-06 0)
(1.66751e-06 -4.34573e-06 0)
(1.97978e-06 -4.21467e-06 0)
(2.29462e-06 -4.07028e-06 0)
(2.61255e-06 -3.91533e-06 0)
(2.93081e-06 -3.75336e-06 0)
(1.46038e-07 -4.78387e-06 0)
(4.38594e-07 -4.75953e-06 0)
(7.32444e-07 -4.71168e-06 0)
(1.02846e-06 -4.6415e-06 0)
(1.32715e-06 -4.55094e-06 0)
(1.62881e-06 -4.44221e-06 0)
(1.93369e-06 -4.31796e-06 0)
(2.24107e-06 -4.18094e-06 0)
(2.55141e-06 -4.03368e-06 0)
(2.86231e-06 -3.8796e-06 0)
(1.42489e-07 -4.86118e-06 0)
(4.2791e-07 -4.83814e-06 0)
(7.14595e-07 -4.79281e-06 0)
(1.00342e-06 -4.72629e-06 0)
(1.2949e-06 -4.6404e-06 0)
(1.58931e-06 -4.53723e-06 0)
(1.88693e-06 -4.4192e-06 0)
(2.18712e-06 -4.28891e-06 0)
(2.49029e-06 -4.14869e-06 0)
(2.79433e-06 -4.00179e-06 0)
(1.38741e-07 -4.93846e-06 0)
(4.16662e-07 -4.9166e-06 0)
(6.9589e-07 -4.87359e-06 0)
(9.77263e-07 -4.81046e-06 0)
(1.26135e-06 -4.72889e-06 0)
(1.54843e-06 -4.63084e-06 0)
(1.83879e-06 -4.51852e-06 0)
(2.13193e-06 -4.3944e-06 0)
(2.42816e-06 -4.26066e-06 0)
(2.72569e-06 -4.1203e-06 0)
(1.34753e-07 -5.01529e-06 0)
(4.04732e-07 -4.99454e-06 0)
(6.761e-07 -4.95369e-06 0)
(9.49654e-07 -4.89372e-06 0)
(1.22603e-06 -4.81616e-06 0)
(1.50556e-06 -4.72284e-06 0)
(1.78855e-06 -4.61582e-06 0)
(2.07466e-06 -4.49744e-06 0)
(2.36405e-06 -4.36969e-06 0)
(2.65527e-06 -4.23532e-06 0)
(1.30484e-07 -5.09156e-06 0)
(3.91968e-07 -5.07186e-06 0)
(6.54927e-07 -5.03305e-06 0)
(9.20163e-07 -4.97604e-06 0)
(1.1884e-06 -4.90226e-06 0)
(1.46002e-06 -4.81337e-06 0)
(1.73541e-06 -4.71134e-06 0)
(2.01429e-06 -4.59833e-06 0)
(2.29681e-06 -4.47613e-06 0)
(2.58173e-06 -4.34736e-06 0)
(1.25881e-07 -5.16642e-06 0)
(3.78183e-07 -5.14772e-06 0)
(6.32052e-07 -5.11086e-06 0)
(8.88346e-07 -5.05668e-06 0)
(1.14787e-06 -4.98648e-06 0)
(1.41111e-06 -4.90184e-06 0)
(1.67847e-06 -4.80454e-06 0)
(1.94979e-06 -4.69662e-06 0)
(2.2252e-06 -4.57969e-06 0)
(2.50376e-06 -4.45619e-06 0)
(1.20842e-07 -5.24028e-06 0)
(3.63079e-07 -5.22256e-06 0)
(6.06995e-07 -5.18758e-06 0)
(8.53547e-07 -5.13613e-06 0)
(1.10361e-06 -5.0694e-06 0)
(1.35779e-06 -4.98886e-06 0)
(1.61654e-06 -4.89614e-06 0)
(1.87983e-06 -4.79308e-06 0)
(2.14777e-06 -4.68125e-06 0)
(2.41976e-06 -4.56278e-06 0)
(1.15314e-07 -5.31089e-06 0)
(3.46527e-07 -5.29411e-06 0)
(5.79545e-07 -5.26101e-06 0)
(8.15446e-07 -5.21228e-06 0)
(1.05521e-06 -5.14901e-06 0)
(1.29954e-06 -5.07256e-06 0)
(1.54895e-06 -4.9844e-06 0)
(1.8036e-06 -4.88622e-06 0)
(2.06364e-06 -4.77948e-06 0)
(2.32876e-06 -4.66608e-06 0)
)


// ************************************************************************* //
