/*--------------------------------*- C++ -*----------------------------------*\
| =========                 |                                                 |
| \\      /  F ield         | foam-extend: Open Source CFD                    |
|  \\    /   O peration     | Version:     4.1                                |
|   \\  /    A nd           | Web:         http://www.foam-extend.org         |
|    \\/     M anipulation  |                                                 |
\*---------------------------------------------------------------------------*/
FoamFile
{
    version     2.0;
    format      ascii;
    class       vectorField;
    location    "9";
    object      solidsCellD_iteration7;
}
// * * * * * * * * * * * * * * * * * * * * * * * * * * * * * * * * * * * * * //


1000
(
(4.66038e-06 -1.97228e-06 0)
(4.39799e-06 -1.83603e-06 0)
(4.23046e-06 -1.74985e-06 0)
(4.13444e-06 -1.70987e-06 0)
(4.08765e-06 -1.69631e-06 0)
(4.07687e-06 -1.70316e-06 0)
(4.09253e-06 -1.72333e-06 0)
(4.1281e-06 -1.75346e-06 0)
(4.17852e-06 -1.79029e-06 0)
(4.23999e-06 -1.83211e-06 0)
(4.21403e-06 -2.15427e-06 0)
(3.93452e-06 -2.05964e-06 0)
(3.75617e-06 -1.99982e-06 0)
(3.65218e-06 -1.97779e-06 0)
(3.59917e-06 -1.97615e-06 0)
(3.58268e-06 -1.99146e-06 0)
(3.59286e-06 -2.01771e-06 0)
(3.62267e-06 -2.05233e-06 0)
(3.66691e-06 -2.09287e-06 0)
(3.72131e-06 -2.13686e-06 0)
(3.75016e-06 -2.32674e-06 0)
(3.46458e-06 -2.27864e-06 0)
(3.28246e-06 -2.24826e-06 0)
(3.17496e-06 -2.24601e-06 0)
(3.11852e-06 -2.25732e-06 0)
(3.0981e-06 -2.28158e-06 0)
(3.10379e-06 -2.31406e-06 0)
(3.12856e-06 -2.35309e-06 0)
(3.16714e-06 -2.3971e-06 0)
(3.2154e-06 -2.44339e-06 0)
(3.27234e-06 -2.48667e-06 0)
(2.99263e-06 -2.48736e-06 0)
(2.81432e-06 -2.48786e-06 0)
(2.70807e-06 -2.50622e-06 0)
(2.65116e-06 -2.53096e-06 0)
(2.62864e-06 -2.5644e-06 0)
(2.63093e-06 -2.60312e-06 0)
(2.65119e-06 -2.64654e-06 0)
(2.6845e-06 -2.69388e-06 0)
(2.72666e-06 -2.74264e-06 0)
(2.78377e-06 -2.63089e-06 0)
(2.52187e-06 -2.67994e-06 0)
(2.35496e-06 -2.71107e-06 0)
(2.25488e-06 -2.74978e-06 0)
(2.20051e-06 -2.7877e-06 0)
(2.17767e-06 -2.83011e-06 0)
(2.17758e-06 -2.87488e-06 0)
(2.19381e-06 -2.92257e-06 0)
(2.222e-06 -2.97306e-06 0)
(2.258e-06 -3.02441e-06 0)
(2.28691e-06 -2.75645e-06 0)
(2.05438e-06 -2.85074e-06 0)
(1.90625e-06 -2.91053e-06 0)
(1.81698e-06 -2.96828e-06 0)
(1.76796e-06 -3.0185e-06 0)
(1.7465e-06 -3.06925e-06 0)
(1.74502e-06 -3.11958e-06 0)
(1.7577e-06 -3.17125e-06 0)
(1.78083e-06 -3.22464e-06 0)
(1.81048e-06 -3.27853e-06 0)
(1.78414e-06 -2.86055e-06 0)
(1.5913e-06 -2.99448e-06 0)
(1.4685e-06 -3.07941e-06 0)
(1.3942e-06 -3.15381e-06 0)
(1.3531e-06 -3.21477e-06 0)
(1.33466e-06 -3.27281e-06 0)
(1.33261e-06 -3.328e-06 0)
(1.34208e-06 -3.38317e-06 0)
(1.3601e-06 -3.43909e-06 0)
(1.38326e-06 -3.49529e-06 0)
(1.27719e-06 -2.94084e-06 0)
(1.13273e-06 -3.10661e-06 0)
(1.04078e-06 -3.21172e-06 0)
(9.85052e-07 -3.29945e-06 0)
(9.54066e-07 -3.36905e-06 0)
(9.39907e-07 -3.43295e-06 0)
(9.37926e-07 -3.49206e-06 0)
(9.44445e-07 -3.55005e-06 0)
(9.57335e-07 -3.60798e-06 0)
(9.73924e-07 -3.66611e-06 0)
(7.6749e-07 -2.99541e-06 0)
(6.78068e-07 -3.18343e-06 0)
(6.21161e-07 -3.30265e-06 0)
(5.86564e-07 -3.39976e-06 0)
(5.67234e-07 -3.47541e-06 0)
(5.58309e-07 -3.54337e-06 0)
(5.56925e-07 -3.60523e-06 0)
(5.60751e-07 -3.66526e-06 0)
(5.68471e-07 -3.72464e-06 0)
(5.78427e-07 -3.78417e-06 0)
(2.56323e-07 -3.02291e-06 0)
(2.26015e-07 -3.22243e-06 0)
(2.06667e-07 -3.34893e-06 0)
(1.94911e-07 -3.45085e-06 0)
(1.88354e-07 -3.52962e-06 0)
(1.8527e-07 -3.5997e-06 0)
(1.8471e-07 -3.66297e-06 0)
(1.85948e-07 -3.72402e-06 0)
(1.88524e-07 -3.78414e-06 0)
(1.91831e-07 -3.8444e-06 0)
(7.27248e-06 -9.00475e-08 0)
(7.33833e-06 -6.49475e-08 0)
(7.37831e-06 -4.90394e-08 0)
(7.42153e-06 -3.9689e-08 0)
(7.4686e-06 -3.44973e-08 0)
(7.52635e-06 -3.21141e-08 0)
(7.59463e-06 -3.16117e-08 0)
(7.67421e-06 -3.23162e-08 0)
(7.76491e-06 -3.39505e-08 0)
(7.86552e-06 -3.59182e-08 0)
(7.21864e-06 -2.7013e-07 0)
(7.27355e-06 -1.963e-07 0)
(7.30671e-06 -1.49587e-07 0)
(7.34532e-06 -1.22254e-07 0)
(7.38937e-06 -1.07173e-07 0)
(7.44493e-06 -1.00253e-07 0)
(7.51168e-06 -9.89127e-08 0)
(7.59002e-06 -1.01233e-07 0)
(7.67964e-06 -1.06162e-07 0)
(7.77911e-06 -1.12014e-07 0)
(7.11104e-06 -4.51729e-07 0)
(7.14515e-06 -3.33222e-07 0)
(7.16514e-06 -2.58309e-07 0)
(7.19503e-06 -2.145e-07 0)
(7.23332e-06 -1.90476e-07 0)
(7.28483e-06 -1.79704e-07 0)
(7.34856e-06 -1.77856e-07 0)
(7.42446e-06 -1.81881e-07 0)
(7.51202e-06 -1.90081e-07 0)
(7.60928e-06 -1.99866e-07 0)
(6.95165e-06 -6.35619e-07 0)
(6.95617e-06 -4.78845e-07 0)
(6.95739e-06 -3.79832e-07 0)
(6.97488e-06 -3.22188e-07 0)
(7.00492e-06 -2.90735e-07 0)
(7.05061e-06 -2.76943e-07 0)
(7.11009e-06 -2.75002e-07 0)
(7.18257e-06 -2.80967e-07 0)
(7.26722e-06 -2.92472e-07 0)
(7.36142e-06 -3.0623e-07 0)
(6.74291e-06 -8.22292e-07 0)
(6.71089e-06 -6.35813e-07 0)
(6.68891e-06 -5.18056e-07 0)
(6.691e-06 -4.49978e-07 0)
(6.71085e-06 -4.13158e-07 0)
(6.74932e-06 -3.97574e-07 0)
(6.8035e-06 -3.96215e-07 0)
(6.87168e-06 -4.04437e-07 0)
(6.95269e-06 -4.19249e-07 0)
(7.04319e-06 -4.36958e-07 0)
(6.488e-06 -1.01183e-06 0)
(6.41459e-06 -8.05832e-07 0)
(6.36641e-06 -6.757e-07 0)
(6.3511e-06 -6.01205e-07 0)
(6.35939e-06 -5.61497e-07 0)
(6.38962e-06 -5.45603e-07 0)
(6.43776e-06 -5.45588e-07 0)
(6.50104e-06 -5.56383e-07 0)
(6.57785e-06 -5.74499e-07 0)
(6.66419e-06 -5.96138e-07 0)
(6.19069e-06 -1.20389e-06 0)
(6.07354e-06 -9.89602e-07 0)
(5.99769e-06 -8.54178e-07 0)
(5.96398e-06 -7.77729e-07 0)
(5.96e-06 -7.37831e-07 0)
(5.98147e-06 -7.23241e-07 0)
(6.02311e-06 -7.25433e-07 0)
(6.08109e-06 -7.39177e-07 0)
(6.15329e-06 -7.60676e-07 0)
(6.23525e-06 -7.86201e-07 0)
(5.85493e-06 -1.39755e-06 0)
(5.69442e-06 -1.18666e-06 0)
(5.59116e-06 -1.05331e-06 0)
(5.53912e-06 -9.79537e-07 0)
(5.52287e-06 -9.42263e-07 0)
(5.53546e-06 -9.30668e-07 0)
(5.57038e-06 -9.35978e-07 0)
(5.62289e-06 -9.53124e-07 0)
(5.6902e-06 -9.78087e-07 0)
(5.76768e-06 -1.00751e-06 0)
(5.48507e-06 -1.59147e-06 0)
(5.28426e-06 -1.39539e-06 0)
(5.15556e-06 -1.27138e-06 0)
(5.08636e-06 -1.20484e-06 0)
(5.05852e-06 -1.17299e-06 0)
(5.06253e-06 -1.16605e-06 0)
(5.09075e-06 -1.17544e-06 0)
(5.13774e-06 -1.19639e-06 0)
(5.19984e-06 -1.2251e-06 0)
(5.27282e-06 -1.25822e-06 0)
(5.08547e-06 -1.78381e-06 0)
(4.84996e-06 -1.61307e-06 0)
(4.69934e-06 -1.5051e-06 0)
(4.61517e-06 -1.45005e-06 0)
(4.57695e-06 -1.42623e-06 0)
(4.57306e-06 -1.42553e-06 0)
(4.59494e-06 -1.43992e-06 0)
(4.63644e-06 -1.46534e-06 0)
(4.69339e-06 -1.49801e-06 0)
(4.76149e-06 -1.5362e-06 0)
(7.97624e-06 -3.78527e-08 0)
(8.09695e-06 -3.82662e-08 0)
(8.22531e-06 -3.87573e-08 0)
(8.36088e-06 -3.90987e-08 0)
(8.50281e-06 -3.9252e-08 0)
(8.65057e-06 -3.92058e-08 0)
(8.8035e-06 -3.8912e-08 0)
(8.961e-06 -3.83924e-08 0)
(9.12256e-06 -3.76387e-08 0)
(9.28772e-06 -3.66119e-08 0)
(9.45597e-06 -3.52732e-08 0)
(9.62678e-06 -3.36074e-08 0)
(9.79969e-06 -3.15987e-08 0)
(9.97419e-06 -2.92257e-08 0)
(1.01498e-05 -2.64457e-08 0)
(1.03259e-05 -2.3199e-08 0)
(1.05022e-05 -1.94101e-08 0)
(1.06774e-05 -1.50055e-08 0)
(1.08518e-05 -9.88111e-09 0)
(1.10225e-05 -4.00422e-09 0)
(7.89368e-06 -1.17416e-07 0)
(8.02129e-06 -1.18139e-07 0)
(8.15583e-06 -1.19128e-07 0)
(8.29678e-06 -1.19751e-07 0)
(8.44353e-06 -1.19847e-07 0)
(8.59552e-06 -1.19425e-07 0)
(8.75225e-06 -1.18364e-07 0)
(8.91321e-06 -1.16663e-07 0)
(9.07794e-06 -1.14225e-07 0)
(9.24598e-06 -1.10969e-07 0)
(9.41686e-06 -1.06834e-07 0)
(9.59013e-06 -1.01783e-07 0)
(9.76536e-06 -9.5736e-08 0)
(9.94203e-06 -8.85867e-08 0)
(1.01197e-05 -8.01961e-08 0)
(1.02978e-05 -7.04101e-08 0)
(1.04759e-05 -5.90257e-08 0)
(1.06529e-05 -4.5833e-08 0)
(1.08291e-05 -3.05101e-08 0)
(1.10016e-05 -1.29292e-08 0)
(7.73134e-06 -2.07582e-07 0)
(7.87252e-06 -2.07081e-07 0)
(8.01921e-06 -2.0716e-07 0)
(8.17065e-06 -2.07e-07 0)
(8.32677e-06 -2.06185e-07 0)
(8.48712e-06 -2.04728e-07 0)
(8.6514e-06 -2.02341e-07 0)
(8.81913e-06 -1.98979e-07 0)
(8.99001e-06 -1.9446e-07 0)
(9.16366e-06 -1.88681e-07 0)
(9.33974e-06 -1.81548e-07 0)
(9.51784e-06 -1.72964e-07 0)
(9.69758e-06 -1.62755e-07 0)
(9.87848e-06 -1.50725e-07 0)
(1.00602e-05 -1.36647e-07 0)
(1.02421e-05 -1.20276e-07 0)
(1.04239e-05 -1.01277e-07 0)
(1.06045e-05 -7.93074e-08 0)
(1.07842e-05 -5.38294e-08 0)
(1.09603e-05 -2.46024e-08 0)
(7.49414e-06 -3.14387e-07 0)
(7.65475e-06 -3.10237e-07 0)
(7.81899e-06 -3.072e-07 0)
(7.98568e-06 -3.04593e-07 0)
(8.15554e-06 -3.01484e-07 0)
(8.32803e-06 -2.97894e-07 0)
(8.50327e-06 -2.93273e-07 0)
(8.6809e-06 -2.87529e-07 0)
(8.86086e-06 -2.80368e-07 0)
(9.04283e-06 -2.71642e-07 0)
(9.22657e-06 -2.61173e-07 0)
(9.41176e-06 -2.48772e-07 0)
(9.5981e-06 -2.34175e-07 0)
(9.7852e-06 -2.17112e-07 0)
(9.97278e-06 -1.97277e-07 0)
(1.01603e-05 -1.743e-07 0)
(1.03475e-05 -1.47702e-07 0)
(1.05334e-05 -1.16996e-07 0)
(1.07183e-05 -8.14086e-08 0)
(1.08995e-05 -4.06122e-08 0)
(7.18918e-06 -4.43166e-07 0)
(7.37422e-06 -4.32278e-07 0)
(7.56075e-06 -4.23326e-07 0)
(7.74679e-06 -4.16128e-07 0)
(7.93415e-06 -4.08907e-07 0)
(8.1222e-06 -4.01703e-07 0)
(8.31158e-06 -3.93649e-07 0)
(8.50199e-06 -3.84575e-07 0)
(8.6936e-06 -3.7402e-07 0)
(8.88625e-06 -3.61731e-07 0)
(9.07985e-06 -3.47431e-07 0)
(9.27421e-06 -3.30831e-07 0)
(9.46912e-06 -3.1157e-07 0)
(9.66429e-06 -2.89286e-07 0)
(9.85952e-06 -2.63569e-07 0)
(1.00543e-05 -2.3392e-07 0)
(1.02485e-05 -1.99716e-07 0)
(1.04412e-05 -1.60321e-07 0)
(1.06327e-05 -1.14716e-07 0)
(1.08206e-05 -6.2477e-08 0)
(6.82517e-06 -5.97737e-07 0)
(7.03829e-06 -5.76549e-07 0)
(7.25089e-06 -5.5836e-07 0)
(7.45974e-06 -5.43945e-07 0)
(7.6679e-06 -5.30446e-07 0)
(7.87453e-06 -5.17869e-07 0)
(8.08075e-06 -5.04963e-07 0)
(8.28647e-06 -4.91377e-07 0)
(8.49207e-06 -4.76493e-07 0)
(8.69757e-06 -4.59917e-07 0)
(8.90305e-06 -4.41239e-07 0)
(9.10844e-06 -4.20033e-07 0)
(9.31365e-06 -3.95819e-07 0)
(9.5185e-06 -3.68124e-07 0)
(9.72289e-06 -3.36405e-07 0)
(9.92639e-06 -3.00042e-07 0)
(1.0129e-05 -2.5826e-07 0)
(1.03298e-05 -2.10275e-07 0)
(1.05294e-05 -1.54822e-07 0)
(1.07252e-05 -9.13262e-08 0)
(6.4122e-06 -7.80536e-07 0)
(6.65589e-06 -7.45372e-07 0)
(6.8973e-06 -7.14619e-07 0)
(7.13155e-06 -6.90184e-07 0)
(7.36294e-06 -6.68139e-07 0)
(7.59054e-06 -6.48238e-07 0)
(7.81581e-06 -6.28936e-07 0)
(8.03891e-06 -6.09563e-07 0)
(8.26047e-06 -5.89332e-07 0)
(8.48066e-06 -5.67649e-07 0)
(8.69974e-06 -5.43931e-07 0)
(8.91776e-06 -5.17592e-07 0)
(9.13477e-06 -4.88022e-07 0)
(9.35071e-06 -4.54629e-07 0)
(9.56559e-06 -4.16732e-07 0)
(9.77911e-06 -3.73583e-07 0)
(9.99138e-06 -3.24248e-07 0)
(1.02015e-05 -2.67774e-07 0)
(1.04103e-05 -2.02645e-07 0)
(1.06153e-05 -1.28132e-07 0)
(5.96051e-06 -9.92038e-07 0)
(6.23581e-06 -9.38928e-07 0)
(6.50745e-06 -8.92332e-07 0)
(6.76896e-06 -8.54752e-07 0)
(7.02541e-06 -8.21727e-07 0)
(7.27588e-06 -7.92391e-07 0)
(7.5221e-06 -7.65015e-07 0)
(7.76441e-06 -7.38515e-07 0)
(8.00359e-06 -7.11887e-07 0)
(8.24004e-06 -6.84279e-07 0)
(8.47414e-06 -6.54898e-07 0)
(8.70611e-06 -6.22977e-07 0)
(8.93615e-06 -5.87756e-07 0)
(9.16437e-06 -5.48505e-07 0)
(9.39086e-06 -5.04388e-07 0)
(9.61547e-06 -4.54511e-07 0)
(9.83838e-06 -3.97759e-07 0)
(1.00589e-05 -3.33e-07 0)
(1.02777e-05 -2.5847e-07 0)
(1.04928e-05 -1.7328e-07 0)
(5.48104e-06 -1.23188e-06 0)
(5.78818e-06 -1.15738e-06 0)
(6.09019e-06 -1.09279e-06 0)
(6.37997e-06 -1.03938e-06 0)
(6.66235e-06 -9.93285e-07 0)
(6.93684e-06 -9.52622e-07 0)
(7.2051e-06 -9.15538e-07 0)
(7.46777e-06 -8.80503e-07 0)
(7.72573e-06 -8.46268e-07 0)
(7.97955e-06 -8.1171e-07 0)
(8.22976e-06 -7.75821e-07 0)
(8.47675e-06 -7.37649e-07 0)
(8.72085e-06 -6.9628e-07 0)
(8.96232e-06 -6.50817e-07 0)
(9.20135e-06 -6.00257e-07 0)
(9.43791e-06 -5.43546e-07 0)
(9.67227e-06 -4.79381e-07 0)
(9.90389e-06 -4.06452e-07 0)
(1.01336e-05 -3.22775e-07 0)
(1.03597e-05 -2.27321e-07 0)
(4.98282e-06 -1.49596e-06 0)
(5.32203e-06 -1.39515e-06 0)
(5.65326e-06 -1.31041e-06 0)
(5.97206e-06 -1.23858e-06 0)
(6.28099e-06 -1.1772e-06 0)
(6.58053e-06 -1.12341e-06 0)
(6.87185e-06 -1.07516e-06 0)
(7.15587e-06 -1.03051e-06 0)
(7.43352e-06 -9.87872e-07 0)
(7.70555e-06 -9.4582e-07 0)
(7.97264e-06 -9.0308e-07 0)
(8.23534e-06 -8.5848e-07 0)
(8.49414e-06 -8.1091e-07 0)
(8.74942e-06 -7.59288e-07 0)
(9.00148e-06 -7.02434e-07 0)
(9.25043e-06 -6.39129e-07 0)
(9.49666e-06 -5.67892e-07 0)
(9.73983e-06 -4.87229e-07 0)
(9.98087e-06 -3.94947e-07 0)
(1.02185e-05 -2.89833e-07 0)
(4.61273e-06 -1.74923e-06 0)
(4.9737e-06 -1.62687e-06 0)
(5.3225e-06 -1.527e-06 0)
(5.65912e-06 -1.44056e-06 0)
(5.98466e-06 -1.36578e-06 0)
(6.30002e-06 -1.29975e-06 0)
(6.60626e-06 -1.24032e-06 0)
(6.90429e-06 -1.1855e-06 0)
(7.19503e-06 -1.13358e-06 0)
(7.47922e-06 -1.08298e-06 0)
(7.7576e-06 -1.03233e-06 0)
(8.03076e-06 -9.80305e-07 0)
(8.29925e-06 -9.25683e-07 0)
(8.56354e-06 -8.67254e-07 0)
(8.82397e-06 -8.03732e-07 0)
(9.08081e-06 -7.33792e-07 0)
(9.3345e-06 -6.5588e-07 0)
(9.58495e-06 -5.68419e-07 0)
(9.83312e-06 -4.69174e-07 0)
(1.00781e-05 -3.56855e-07 0)
(4.40108e-06 -1.95503e-06 0)
(4.76436e-06 -1.82782e-06 0)
(5.1161e-06 -1.71936e-06 0)
(5.45729e-06 -1.62385e-06 0)
(5.7881e-06 -1.53962e-06 0)
(6.10912e-06 -1.46424e-06 0)
(6.42111e-06 -1.39568e-06 0)
(6.7248e-06 -1.33207e-06 0)
(7.02093e-06 -1.27174e-06 0)
(7.3102e-06 -1.21314e-06 0)
(7.59325e-06 -1.15488e-06 0)
(7.87068e-06 -1.09564e-06 0)
(8.14304e-06 -1.03416e-06 0)
(8.4108e-06 -9.69202e-07 0)
(8.67432e-06 -8.9946e-07 0)
(8.934e-06 -8.23601e-07 0)
(9.19027e-06 -7.40107e-07 0)
(9.44327e-06 -6.47432e-07 0)
(9.69391e-06 -5.43446e-07 0)
(9.94168e-06 -4.26898e-07 0)
(4.22006e-06 -2.15256e-06 0)
(4.57973e-06 -2.02247e-06 0)
(4.93084e-06 -1.90848e-06 0)
(5.27277e-06 -1.80606e-06 0)
(5.60559e-06 -1.71403e-06 0)
(5.92936e-06 -1.63046e-06 0)
(6.24461e-06 -1.55358e-06 0)
(6.5518e-06 -1.48173e-06 0)
(6.8515e-06 -1.41335e-06 0)
(7.14429e-06 -1.34698e-06 0)
(7.43074e-06 -1.28127e-06 0)
(7.71137e-06 -1.21491e-06 0)
(7.98672e-06 -1.14665e-06 0)
(8.25724e-06 -1.07524e-06 0)
(8.5233e-06 -9.99414e-07 0)
(8.78539e-06 -9.17843e-07 0)
(9.04393e-06 -8.29076e-07 0)
(9.29924e-06 -7.31637e-07 0)
(9.55217e-06 -6.23523e-07 0)
(9.80258e-06 -5.03557e-07 0)
(4.06037e-06 -2.3428e-06 0)
(4.4148e-06 -2.2113e-06 0)
(4.76285e-06 -2.09319e-06 0)
(5.1031e-06 -1.98515e-06 0)
(5.43555e-06 -1.88646e-06 0)
(5.75988e-06 -1.79565e-06 0)
(6.07641e-06 -1.71125e-06 0)
(6.38534e-06 -1.6318e-06 0)
(6.68709e-06 -1.55589e-06 0)
(6.98209e-06 -1.48218e-06 0)
(7.27082e-06 -1.40937e-06 0)
(7.55372e-06 -1.33621e-06 0)
(7.83129e-06 -1.26148e-06 0)
(8.10394e-06 -1.18395e-06 0)
(8.37207e-06 -1.10239e-06 0)
(8.63616e-06 -1.01552e-06 0)
(8.89668e-06 -9.21977e-07 0)
(9.15405e-06 -8.20368e-07 0)
(9.40908e-06 -7.08839e-07 0)
(9.66194e-06 -5.86345e-07 0)
(3.91951e-06 -2.52506e-06 0)
(4.26732e-06 -2.3932e-06 0)
(4.61056e-06 -2.27241e-06 0)
(4.9473e-06 -2.16015e-06 0)
(5.27753e-06 -2.05609e-06 0)
(5.60066e-06 -1.95914e-06 0)
(5.91681e-06 -1.86813e-06 0)
(6.22597e-06 -1.78185e-06 0)
(6.52842e-06 -1.69904e-06 0)
(6.82446e-06 -1.61851e-06 0)
(7.11446e-06 -1.53904e-06 0)
(7.39876e-06 -1.45946e-06 0)
(7.67782e-06 -1.37859e-06 0)
(7.95201e-06 -1.29528e-06 0)
(8.22171e-06 -1.20834e-06 0)
(8.48745e-06 -1.11657e-06 0)
(8.74964e-06 -1.01868e-06 0)
(9.00882e-06 -9.13406e-07 0)
(9.26573e-06 -7.99067e-07 0)
(9.52083e-06 -6.74814e-07 0)
(3.79413e-06 -2.69945e-06 0)
(4.1346e-06 -2.56805e-06 0)
(4.47199e-06 -2.44559e-06 0)
(4.80397e-06 -2.33018e-06 0)
(5.13065e-06 -2.2218e-06 0)
(5.45121e-06 -2.11969e-06 0)
(5.76564e-06 -2.02296e-06 0)
(6.07379e-06 -1.93063e-06 0)
(6.37581e-06 -1.84162e-06 0)
(6.67187e-06 -1.75486e-06 0)
(6.96224e-06 -1.66927e-06 0)
(7.24716e-06 -1.58374e-06 0)
(7.52705e-06 -1.49719e-06 0)
(7.80223e-06 -1.40853e-06 0)
(8.07306e-06 -1.31664e-06 0)
(8.34006e-06 -1.22042e-06 0)
(8.60363e-06 -1.11867e-06 0)
(8.86434e-06 -1.01025e-06 0)
(9.12294e-06 -8.93712e-07 0)
(9.38002e-06 -7.68377e-07 0)
(3.68169e-06 -2.86624e-06 0)
(4.01443e-06 -2.73587e-06 0)
(4.34524e-06 -2.61254e-06 0)
(4.67164e-06 -2.49489e-06 0)
(4.99381e-06 -2.38314e-06 0)
(5.31079e-06 -2.27679e-06 0)
(5.6225e-06 -2.17521e-06 0)
(5.92867e-06 -2.07761e-06 0)
(6.22932e-06 -1.9831e-06 0)
(6.52455e-06 -1.89075e-06 0)
(6.81451e-06 -1.7996e-06 0)
(7.09938e-06 -1.70865e-06 0)
(7.37952e-06 -1.6169e-06 0)
(7.65519e-06 -1.52335e-06 0)
(7.92674e-06 -1.42696e-06 0)
(8.19464e-06 -1.32672e-06 0)
(8.4593e-06 -1.22158e-06 0)
(8.72131e-06 -1.11051e-06 0)
(8.98137e-06 -9.92309e-07 0)
(9.24017e-06 -8.66398e-07 0)
(3.57984e-06 -3.02579e-06 0)
(3.90473e-06 -2.89684e-06 0)
(4.22857e-06 -2.77324e-06 0)
(4.5489e-06 -2.65408e-06 0)
(4.86589e-06 -2.53975e-06 0)
(5.17857e-06 -2.42996e-06 0)
(5.4868e-06 -2.32431e-06 0)
(5.79021e-06 -2.22218e-06 0)
(6.08877e-06 -2.12286e-06 0)
(6.38246e-06 -2.02557e-06 0)
(6.67137e-06 -1.92946e-06 0)
(6.95563e-06 -1.83363e-06 0)
(7.23551e-06 -1.73719e-06 0)
(7.51124e-06 -1.63923e-06 0)
(7.78314e-06 -1.53881e-06 0)
(8.05164e-06 -1.43502e-06 0)
(8.31712e-06 -1.32695e-06 0)
(8.5802e-06 -1.2137e-06 0)
(8.84149e-06 -1.09431e-06 0)
(9.10176e-06 -9.68221e-07 0)
(3.48648e-06 -3.1786e-06 0)
(3.80356e-06 -3.05129e-06 0)
(4.12027e-06 -2.92785e-06 0)
(4.43425e-06 -2.80776e-06 0)
(4.74567e-06 -2.69151e-06 0)
(5.05357e-06 -2.57897e-06 0)
(5.35778e-06 -2.46995e-06 0)
(5.65789e-06 -2.36399e-06 0)
(5.95378e-06 -2.26053e-06 0)
(6.24539e-06 -2.15892e-06 0)
(6.53276e-06 -2.05844e-06 0)
(6.81593e-06 -1.95831e-06 0)
(7.09516e-06 -1.8577e-06 0)
(7.37059e-06 -1.75583e-06 0)
(7.64252e-06 -1.65185e-06 0)
(7.91134e-06 -1.54497e-06 0)
(8.17742e-06 -1.43441e-06 0)
(8.44135e-06 -1.31943e-06 0)
(8.70365e-06 -1.1992e-06 0)
(8.96516e-06 -1.07329e-06 0)
(3.39977e-06 -3.32515e-06 0)
(3.70919e-06 -3.1996e-06 0)
(4.01877e-06 -3.07663e-06 0)
(4.32629e-06 -2.95603e-06 0)
(4.63194e-06 -2.83838e-06 0)
(4.93478e-06 -2.72369e-06 0)
(5.23463e-06 -2.61192e-06 0)
(5.53105e-06 -2.50277e-06 0)
(5.82388e-06 -2.3958e-06 0)
(6.11303e-06 -2.29049e-06 0)
(6.39847e-06 -2.18623e-06 0)
(6.68021e-06 -2.08234e-06 0)
(6.95844e-06 -1.9781e-06 0)
(7.23328e-06 -1.87281e-06 0)
(7.50498e-06 -1.76575e-06 0)
(7.77392e-06 -1.65624e-06 0)
(8.04038e-06 -1.54362e-06 0)
(8.30495e-06 -1.42725e-06 0)
(8.56805e-06 -1.30647e-06 0)
(8.83057e-06 -1.18107e-06 0)
(3.31805e-06 -3.46597e-06 0)
(3.62004e-06 -3.34219e-06 0)
(3.92261e-06 -3.21989e-06 0)
(4.2237e-06 -3.09909e-06 0)
(4.52352e-06 -2.98047e-06 0)
(4.82118e-06 -2.86415e-06 0)
(5.11648e-06 -2.75019e-06 0)
(5.40898e-06 -2.63843e-06 0)
(5.6985e-06 -2.52853e-06 0)
(5.98492e-06 -2.4201e-06 0)
(6.26816e-06 -2.31262e-06 0)
(6.54822e-06 -2.2055e-06 0)
(6.82522e-06 -2.09813e-06 0)
(7.09925e-06 -1.98991e-06 0)
(7.37052e-06 -1.88022e-06 0)
(7.63937e-06 -1.7685e-06 0)
(7.90604e-06 -1.65418e-06 0)
(8.17105e-06 -1.53674e-06 0)
(8.43479e-06 -1.41569e-06 0)
(8.69809e-06 -1.29096e-06 0)
(3.23987e-06 -3.60152e-06 0)
(3.53471e-06 -3.47946e-06 0)
(3.83045e-06 -3.35794e-06 0)
(4.12525e-06 -3.23721e-06 0)
(4.41929e-06 -3.11797e-06 0)
(4.71175e-06 -3.00044e-06 0)
(5.00244e-06 -2.88478e-06 0)
(5.29092e-06 -2.77093e-06 0)
(5.577e-06 -2.65864e-06 0)
(5.86054e-06 -2.54761e-06 0)
(6.14144e-06 -2.43742e-06 0)
(6.41964e-06 -2.32758e-06 0)
(6.69525e-06 -2.21757e-06 0)
(6.96832e-06 -2.1069e-06 0)
(7.23902e-06 -1.99502e-06 0)
(7.50764e-06 -1.88148e-06 0)
(7.77435e-06 -1.76578e-06 0)
(8.03965e-06 -1.64753e-06 0)
(8.30388e-06 -1.52646e-06 0)
(8.56778e-06 -1.40247e-06 0)
(3.16393e-06 -3.73225e-06 0)
(3.45191e-06 -3.6118e-06 0)
(3.74105e-06 -3.49114e-06 0)
(4.02976e-06 -3.37066e-06 0)
(4.31815e-06 -3.2511e-06 0)
(4.6055e-06 -3.13272e-06 0)
(4.89162e-06 -3.01578e-06 0)
(5.17609e-06 -2.90028e-06 0)
(5.45872e-06 -2.78609e-06 0)
(5.73934e-06 -2.67296e-06 0)
(6.01782e-06 -2.56057e-06 0)
(6.2941e-06 -2.4485e-06 0)
(6.56824e-06 -2.33633e-06 0)
(6.84026e-06 -2.22365e-06 0)
(7.11028e-06 -2.10999e-06 0)
(7.37855e-06 -1.99495e-06 0)
(7.64517e-06 -1.87817e-06 0)
(7.91064e-06 -1.75936e-06 0)
(8.17518e-06 -1.63841e-06 0)
(8.43952e-06 -1.51522e-06 0)
(3.08898e-06 -3.85853e-06 0)
(3.37041e-06 -3.73964e-06 0)
(3.65324e-06 -3.61985e-06 0)
(3.93608e-06 -3.49976e-06 0)
(4.21903e-06 -3.38008e-06 0)
(4.50145e-06 -3.26117e-06 0)
(4.78315e-06 -3.14334e-06 0)
(5.06373e-06 -3.02662e-06 0)
(5.34297e-06 -2.91098e-06 0)
(5.62071e-06 -2.79621e-06 0)
(5.89679e-06 -2.68206e-06 0)
(6.17114e-06 -2.56821e-06 0)
(6.44379e-06 -2.45431e-06 0)
(6.71472e-06 -2.34e-06 0)
(6.984e-06 -2.2249e-06 0)
(7.25183e-06 -2.10868e-06 0)
(7.51829e-06 -1.99108e-06 0)
(7.78383e-06 -1.87193e-06 0)
(8.04858e-06 -1.75113e-06 0)
(8.3132e-06 -1.62878e-06 0)
(3.01378e-06 -3.9808e-06 0)
(3.28898e-06 -3.8633e-06 0)
(3.56581e-06 -3.74442e-06 0)
(3.84307e-06 -3.62482e-06 0)
(4.12086e-06 -3.50525e-06 0)
(4.39863e-06 -3.38609e-06 0)
(4.67614e-06 -3.26769e-06 0)
(4.95301e-06 -3.15012e-06 0)
(5.22904e-06 -3.03339e-06 0)
(5.50403e-06 -2.91738e-06 0)
(5.77782e-06 -2.80192e-06 0)
(6.05031e-06 -2.68672e-06 0)
(6.32152e-06 -2.57148e-06 0)
(6.59136e-06 -2.45592e-06 0)
(6.85988e-06 -2.3397e-06 0)
(7.12723e-06 -2.22257e-06 0)
(7.39349e-06 -2.10438e-06 0)
(7.65901e-06 -1.98502e-06 0)
(7.92389e-06 -1.86444e-06 0)
(8.18867e-06 -1.74284e-06 0)
(2.93715e-06 -4.09933e-06 0)
(3.20643e-06 -3.98327e-06 0)
(3.47752e-06 -3.86516e-06 0)
(3.74961e-06 -3.74615e-06 0)
(4.02263e-06 -3.62688e-06 0)
(4.29609e-06 -3.50772e-06 0)
(4.56973e-06 -3.38903e-06 0)
(4.84319e-06 -3.27096e-06 0)
(5.11623e-06 -3.15353e-06 0)
(5.38869e-06 -3.03666e-06 0)
(5.66037e-06 -2.92025e-06 0)
(5.93115e-06 -2.80407e-06 0)
(6.20098e-06 -2.68784e-06 0)
(6.46978e-06 -2.57132e-06 0)
(6.73754e-06 -2.45426e-06 0)
(7.00444e-06 -2.33649e-06 0)
(7.27048e-06 -2.2179e-06 0)
(7.53591e-06 -2.09837e-06 0)
(7.80083e-06 -1.97805e-06 0)
(8.06568e-06 -1.85713e-06 0)
(2.85785e-06 -4.21459e-06 0)
(3.12133e-06 -4.09952e-06 0)
(3.387e-06 -3.98248e-06 0)
(3.65455e-06 -3.86428e-06 0)
(3.92323e-06 -3.74545e-06 0)
(4.19286e-06 -3.62648e-06 0)
(4.46303e-06 -3.50775e-06 0)
(4.73346e-06 -3.38945e-06 0)
(5.00388e-06 -3.27162e-06 0)
(5.27411e-06 -3.15424e-06 0)
(5.54394e-06 -3.03722e-06 0)
(5.81317e-06 -2.92036e-06 0)
(6.08176e-06 -2.80342e-06 0)
(6.3496e-06 -2.68624e-06 0)
(6.6167e-06 -2.56862e-06 0)
(6.88318e-06 -2.4504e-06 0)
(7.14896e-06 -2.33149e-06 0)
(7.41425e-06 -2.21186e-06 0)
(7.67912e-06 -2.0918e-06 0)
(7.94405e-06 -1.97145e-06 0)
(2.77399e-06 -4.32643e-06 0)
(3.03256e-06 -4.21255e-06 0)
(3.29377e-06 -4.09678e-06 0)
(3.55695e-06 -3.97941e-06 0)
(3.82185e-06 -3.86121e-06 0)
(4.08808e-06 -3.74265e-06 0)
(4.35531e-06 -3.62412e-06 0)
(4.62318e-06 -3.50586e-06 0)
(4.89142e-06 -3.38793e-06 0)
(5.15981e-06 -3.27032e-06 0)
(5.42805e-06 -3.15295e-06 0)
(5.69596e-06 -3.03568e-06 0)
(5.9635e-06 -2.91833e-06 0)
(6.23057e-06 -2.80073e-06 0)
(6.49709e-06 -2.68271e-06 0)
(6.76309e-06 -2.56419e-06 0)
(7.02855e-06 -2.44506e-06 0)
(7.29378e-06 -2.32543e-06 0)
(7.55865e-06 -2.20555e-06 0)
(7.82343e-06 -2.08564e-06 0)
(2.68448e-06 -4.4361e-06 0)
(2.93855e-06 -4.3236e-06 0)
(3.1957e-06 -4.2088e-06 0)
(3.45532e-06 -4.09235e-06 0)
(3.71712e-06 -3.97489e-06 0)
(3.98068e-06 -3.85691e-06 0)
(4.24566e-06 -3.73879e-06 0)
(4.51164e-06 -3.62075e-06 0)
(4.77827e-06 -3.5029e-06 0)
(5.04522e-06 -3.38524e-06 0)
(5.31228e-06 -3.26775e-06 0)
(5.57925e-06 -3.15028e-06 0)
(5.84601e-06 -3.03268e-06 0)
(6.11235e-06 -2.91485e-06 0)
(6.37829e-06 -2.79658e-06 0)
(6.64395e-06 -2.67782e-06 0)
(6.90918e-06 -2.55858e-06 0)
(7.17418e-06 -2.43895e-06 0)
(7.439e-06 -2.31915e-06 0)
(7.70372e-06 -2.19955e-06 0)
(2.58815e-06 -4.54264e-06 0)
(2.83826e-06 -4.43171e-06 0)
(3.09204e-06 -4.31833e-06 0)
(3.34887e-06 -4.20307e-06 0)
(3.60841e-06 -4.08661e-06 0)
(3.87018e-06 -3.96943e-06 0)
(4.13369e-06 -3.85193e-06 0)
(4.39843e-06 -3.73434e-06 0)
(4.66403e-06 -3.61675e-06 0)
(4.9302e-06 -3.49923e-06 0)
(5.19657e-06 -3.38177e-06 0)
(5.46285e-06 -3.26427e-06 0)
(5.72899e-06 -3.14654e-06 0)
(5.99485e-06 -3.02855e-06 0)
(6.2603e-06 -2.91017e-06 0)
(6.52551e-06 -2.79129e-06 0)
(6.79047e-06 -2.67201e-06 0)
(7.05525e-06 -2.5523e-06 0)
(7.32e-06 -2.43253e-06 0)
(7.58462e-06 -2.31302e-06 0)
(1.9116e-07 -3.90606e-06 0)
(5.76092e-07 -3.84871e-06 0)
(9.68852e-07 -3.73619e-06 0)
(1.37384e-06 -3.57316e-06 0)
(1.79464e-06 -3.36573e-06 0)
(2.23349e-06 -3.12176e-06 0)
(2.69125e-06 -2.85009e-06 0)
(3.16713e-06 -2.56005e-06 0)
(3.65951e-06 -2.261e-06 0)
(4.1644e-06 -1.96039e-06 0)
(1.85895e-07 -3.9702e-06 0)
(5.59893e-07 -3.91784e-06 0)
(9.40386e-07 -3.81499e-06 0)
(1.33107e-06 -3.66565e-06 0)
(1.73497e-06 -3.47499e-06 0)
(2.15399e-06 -3.2497e-06 0)
(2.58886e-06 -2.99729e-06 0)
(3.03881e-06 -2.72582e-06 0)
(3.50161e-06 -2.44385e-06 0)
(3.97427e-06 -2.15762e-06 0)
(1.81207e-07 -4.036e-06 0)
(5.45448e-07 -3.98816e-06 0)
(9.14958e-07 -3.89405e-06 0)
(1.29271e-06 -3.7572e-06 0)
(1.68123e-06 -3.58207e-06 0)
(2.08208e-06 -3.37441e-06 0)
(2.49602e-06 -3.1407e-06 0)
(2.92286e-06 -2.88766e-06 0)
(3.36089e-06 -2.62282e-06 0)
(3.80827e-06 -2.35017e-06 0)
(1.77005e-07 -4.10349e-06 0)
(5.32544e-07 -4.05947e-06 0)
(8.92475e-07 -3.9728e-06 0)
(1.25918e-06 -3.8466e-06 0)
(1.63478e-06 -3.68479e-06 0)
(2.02052e-06 -3.49235e-06 0)
(2.41695e-06 -3.27511e-06 0)
(2.8239e-06 -3.03892e-06 0)
(3.23986e-06 -2.79086e-06 0)
(3.66329e-06 -2.53396e-06 0)
(1.73139e-07 -4.17262e-06 0)
(5.20616e-07 -4.13202e-06 0)
(8.71767e-07 -4.052e-06 0)
(1.22847e-06 -3.93537e-06 0)
(1.5925e-06 -3.78561e-06 0)
(1.96489e-06 -3.60714e-06 0)
(2.34611e-06 -3.40512e-06 0)
(2.73602e-06 -3.18456e-06 0)
(3.13352e-06 -2.95191e-06 0)
(3.53645e-06 -2.70985e-06 0)
(1.69529e-07 -4.24327e-06 0)
(5.09551e-07 -4.20564e-06 0)
(8.52654e-07 -4.13142e-06 0)
(1.20037e-06 -4.02314e-06 0)
(1.55418e-06 -3.88395e-06 0)
(1.9149e-06 -3.71781e-06 0)
(2.28286e-06 -3.52943e-06 0)
(2.65781e-06 -3.32325e-06 0)
(3.03918e-06 -3.10509e-06 0)
(3.42425e-06 -2.87767e-06 0)
(1.66054e-07 -4.31537e-06 0)
(4.98999e-07 -4.28036e-06 0)
(8.3452e-07 -4.21133e-06 0)
(1.17394e-06 -4.11051e-06 0)
(1.51843e-06 -3.98081e-06 0)
(1.86871e-06 -3.8258e-06 0)
(2.22506e-06 -3.64975e-06 0)
(2.58701e-06 -3.45665e-06 0)
(2.95444e-06 -3.25169e-06 0)
(3.32414e-06 -3.03788e-06 0)
(1.62719e-07 -4.38872e-06 0)
(4.88845e-07 -4.35603e-06 0)
(8.1716e-07 -4.2916e-06 0)
(1.14882e-06 -4.19738e-06 0)
(1.48479e-06 -4.07612e-06 0)
(1.8256e-06 -3.93107e-06 0)
(2.17156e-06 -3.76613e-06 0)
(2.52203e-06 -3.58497e-06 0)
(2.87722e-06 -3.39216e-06 0)
(3.23369e-06 -3.19096e-06 0)
(1.59465e-07 -4.46321e-06 0)
(4.78901e-07 -4.4326e-06 0)
(8.00255e-07 -4.37228e-06 0)
(1.12452e-06 -4.28399e-06 0)
(1.45252e-06 -4.17033e-06 0)
(1.78466e-06 -4.03423e-06 0)
(2.12122e-06 -3.8793e-06 0)
(2.46147e-06 -3.70896e-06 0)
(2.80583e-06 -3.52722e-06 0)
(3.15083e-06 -3.33755e-06 0)
(1.56211e-07 -4.53867e-06 0)
(4.69043e-07 -4.5099e-06 0)
(7.83596e-07 -4.45325e-06 0)
(1.10073e-06 -4.3703e-06 0)
(1.42114e-06 -4.26346e-06 0)
(1.7452e-06 -4.13543e-06 0)
(2.07313e-06 -3.98954e-06 0)
(2.40416e-06 -3.82901e-06 0)
(2.7388e-06 -3.65739e-06 0)
(3.07375e-06 -3.47822e-06 0)
(1.52911e-07 -4.61492e-06 0)
(4.59159e-07 -4.5878e-06 0)
(7.66957e-07 -4.53448e-06 0)
(1.0771e-06 -4.45635e-06 0)
(1.39019e-06 -4.35568e-06 0)
(1.70658e-06 -4.23494e-06 0)
(2.02646e-06 -4.09722e-06 0)
(2.34905e-06 -3.9456e-06 0)
(2.67489e-06 -3.78318e-06 0)
(3.00091e-06 -3.61354e-06 0)
(1.49565e-07 -4.69174e-06 0)
(4.49163e-07 -4.66613e-06 0)
(7.50151e-07 -4.61583e-06 0)
(1.05334e-06 -4.54207e-06 0)
(1.35927e-06 -4.44697e-06 0)
(1.66825e-06 -4.33286e-06 0)
(1.98049e-06 -4.20257e-06 0)
(2.29523e-06 -4.05902e-06 0)
(2.61297e-06 -3.90498e-06 0)
(2.93096e-06 -3.74398e-06 0)
(1.46151e-07 -4.76896e-06 0)
(4.38915e-07 -4.74474e-06 0)
(7.32963e-07 -4.69719e-06 0)
(1.02913e-06 -4.62741e-06 0)
(1.32794e-06 -4.53739e-06 0)
(1.62966e-06 -4.4293e-06 0)
(1.93453e-06 -4.30578e-06 0)
(2.24184e-06 -4.16957e-06 0)
(2.55203e-06 -4.02317e-06 0)
(2.8627e-06 -3.87e-06 0)
(1.42611e-07 -4.84633e-06 0)
(4.2826e-07 -4.82339e-06 0)
(7.15163e-07 -4.77834e-06 0)
(1.00415e-06 -4.71222e-06 0)
(1.29577e-06 -4.62684e-06 0)
(1.59027e-06 -4.52428e-06 0)
(1.8879e-06 -4.40696e-06 0)
(2.18805e-06 -4.27743e-06 0)
(2.49109e-06 -4.13803e-06 0)
(2.79495e-06 -3.992e-06 0)
(1.38876e-07 -4.92366e-06 0)
(4.17045e-07 -4.9019e-06 0)
(6.9651e-07 -4.85916e-06 0)
(9.78071e-07 -4.79641e-06 0)
(1.26232e-06 -4.71533e-06 0)
(1.54949e-06 -4.61787e-06 0)
(1.8399e-06 -4.50622e-06 0)
(2.13303e-06 -4.38282e-06 0)
(2.42916e-06 -4.24987e-06 0)
(2.72653e-06 -4.11032e-06 0)
(1.34899e-07 -5.00053e-06 0)
(4.05149e-07 -4.97988e-06 0)
(6.76775e-07 -4.93929e-06 0)
(9.50544e-07 -4.87969e-06 0)
(1.2271e-06 -4.8026e-06 0)
(1.50675e-06 -4.70984e-06 0)
(1.78981e-06 -4.60346e-06 0)
(2.07592e-06 -4.48577e-06 0)
(2.36525e-06 -4.35877e-06 0)
(2.65634e-06 -4.22518e-06 0)
(1.30643e-07 -5.07685e-06 0)
(3.92423e-07 -5.05725e-06 0)
(6.55665e-07 -5.01868e-06 0)
(9.21144e-07 -4.96202e-06 0)
(1.18958e-06 -4.88869e-06 0)
(1.46135e-06 -4.80036e-06 0)
(1.73683e-06 -4.69893e-06 0)
(2.01574e-06 -4.58659e-06 0)
(2.29823e-06 -4.46509e-06 0)
(2.58304e-06 -4.33706e-06 0)
(1.26053e-07 -5.15177e-06 0)
(3.78683e-07 -5.13317e-06 0)
(6.32865e-07 -5.09653e-06 0)
(8.89433e-07 -5.04269e-06 0)
(1.14919e-06 -4.97292e-06 0)
(1.41261e-06 -4.8888e-06 0)
(1.68009e-06 -4.79209e-06 0)
(1.95147e-06 -4.6848e-06 0)
(2.22686e-06 -4.56855e-06 0)
(2.50535e-06 -4.44575e-06 0)
(1.21032e-07 -5.22568e-06 0)
(3.63636e-07 -5.20806e-06 0)
(6.079e-07 -5.17329e-06 0)
(8.5476e-07 -5.12216e-06 0)
(1.10509e-06 -5.05585e-06 0)
(1.35948e-06 -4.97581e-06 0)
(1.61838e-06 -4.88365e-06 0)
(1.88175e-06 -4.7812e-06 0)
(2.1497e-06 -4.67001e-06 0)
(2.42164e-06 -4.55219e-06 0)
(1.15528e-07 -5.29636e-06 0)
(3.47153e-07 -5.27968e-06 0)
(5.80559e-07 -5.24677e-06 0)
(8.16811e-07 -5.19834e-06 0)
(1.05688e-06 -5.13547e-06 0)
(1.30145e-06 -5.05949e-06 0)
(1.55104e-06 -4.97187e-06 0)
(1.80579e-06 -4.87427e-06 0)
(2.06586e-06 -4.76814e-06 0)
(2.33095e-06 -4.65537e-06 0)
)


// ************************************************************************* //
