/*--------------------------------*- C++ -*----------------------------------*\
| =========                 |                                                 |
| \\      /  F ield         | foam-extend: Open Source CFD                    |
|  \\    /   O peration     | Version:     4.1                                |
|   \\  /    A nd           | Web:         http://www.foam-extend.org         |
|    \\/     M anipulation  |                                                 |
\*---------------------------------------------------------------------------*/
FoamFile
{
    version     2.0;
    format      ascii;
    class       vectorField;
    location    "9";
    object      solidsCellD_iteration17;
}
// * * * * * * * * * * * * * * * * * * * * * * * * * * * * * * * * * * * * * //


1000
(
(4.72706e-06 -2.04198e-06 0)
(4.45539e-06 -1.89793e-06 0)
(4.28091e-06 -1.80554e-06 0)
(4.17982e-06 -1.76117e-06 0)
(4.12927e-06 -1.74416e-06 0)
(4.11554e-06 -1.7483e-06 0)
(4.12893e-06 -1.76621e-06 0)
(4.1627e-06 -1.7943e-06 0)
(4.21169e-06 -1.82936e-06 0)
(4.27312e-06 -1.86918e-06 0)
(4.27338e-06 -2.23035e-06 0)
(3.98414e-06 -2.12912e-06 0)
(3.79866e-06 -2.06376e-06 0)
(3.68951e-06 -2.03773e-06 0)
(3.63279e-06 -2.03284e-06 0)
(3.61359e-06 -2.04553e-06 0)
(3.62178e-06 -2.06954e-06 0)
(3.65017e-06 -2.10218e-06 0)
(3.69346e-06 -2.14104e-06 0)
(3.74777e-06 -2.18313e-06 0)
(3.80228e-06 -2.40893e-06 0)
(3.50684e-06 -2.35559e-06 0)
(3.31762e-06 -2.32051e-06 0)
(3.20505e-06 -2.31478e-06 0)
(3.14504e-06 -2.32318e-06 0)
(3.12209e-06 -2.34505e-06 0)
(3.12601e-06 -2.37545e-06 0)
(3.14953e-06 -2.41269e-06 0)
(3.18732e-06 -2.45521e-06 0)
(3.23547e-06 -2.49986e-06 0)
(3.31724e-06 -2.57452e-06 0)
(3.02792e-06 -2.57143e-06 0)
(2.84278e-06 -2.56818e-06 0)
(2.73174e-06 -2.58368e-06 0)
(2.6715e-06 -2.60589e-06 0)
(2.64664e-06 -2.63722e-06 0)
(2.64732e-06 -2.67407e-06 0)
(2.66646e-06 -2.71591e-06 0)
(2.69905e-06 -2.76191e-06 0)
(2.74102e-06 -2.80928e-06 0)
(2.82151e-06 -2.72387e-06 0)
(2.55062e-06 -2.77062e-06 0)
(2.37741e-06 -2.79894e-06 0)
(2.27297e-06 -2.83541e-06 0)
(2.21556e-06 -2.87122e-06 0)
(2.19063e-06 -2.91183e-06 0)
(2.18912e-06 -2.95496e-06 0)
(2.20438e-06 -3.00127e-06 0)
(2.23194e-06 -3.05059e-06 0)
(2.26769e-06 -3.10076e-06 0)
(2.31761e-06 -2.85394e-06 0)
(2.07712e-06 -2.94734e-06 0)
(1.92344e-06 -3.00523e-06 0)
(1.83035e-06 -3.06131e-06 0)
(1.77869e-06 -3.10982e-06 0)
(1.75547e-06 -3.15903e-06 0)
(1.75276e-06 -3.20796e-06 0)
(1.7646e-06 -3.25843e-06 0)
(1.78716e-06 -3.31079e-06 0)
(1.81655e-06 -3.36369e-06 0)
(1.80789e-06 -2.9618e-06 0)
(1.60848e-06 -3.09606e-06 0)
(1.48108e-06 -3.17989e-06 0)
(1.40367e-06 -3.25316e-06 0)
(1.36044e-06 -3.31276e-06 0)
(1.34056e-06 -3.3695e-06 0)
(1.3375e-06 -3.42347e-06 0)
(1.34627e-06 -3.47758e-06 0)
(1.36382e-06 -3.53257e-06 0)
(1.38675e-06 -3.58794e-06 0)
(1.29408e-06 -3.04501e-06 0)
(1.14473e-06 -3.2121e-06 0)
(1.04936e-06 -3.31675e-06 0)
(9.9129e-07 -3.4038e-06 0)
(9.58731e-07 -3.47232e-06 0)
(9.43507e-07 -3.53511e-06 0)
(9.40777e-07 -3.59315e-06 0)
(9.46778e-07 -3.6502e-06 0)
(9.59319e-07 -3.70731e-06 0)
(9.75729e-07 -3.76473e-06 0)
(7.77602e-07 -3.10159e-06 0)
(6.85142e-07 -3.29162e-06 0)
(6.2612e-07 -3.41083e-06 0)
(5.901e-07 -3.50754e-06 0)
(5.69814e-07 -3.58229e-06 0)
(5.60222e-07 -3.6493e-06 0)
(5.58362e-07 -3.7102e-06 0)
(5.61872e-07 -3.76935e-06 0)
(5.69392e-07 -3.82795e-06 0)
(5.79237e-07 -3.88686e-06 0)
(2.59697e-07 -3.1301e-06 0)
(2.28374e-07 -3.332e-06 0)
(2.08312e-07 -3.4587e-06 0)
(1.96055e-07 -3.56039e-06 0)
(1.89164e-07 -3.63837e-06 0)
(1.8587e-07 -3.70757e-06 0)
(1.85158e-07 -3.76992e-06 0)
(1.86281e-07 -3.83013e-06 0)
(1.88786e-07 -3.88952e-06 0)
(1.92057e-07 -3.94922e-06 0)
(7.38723e-06 -9.32296e-08 0)
(7.45481e-06 -6.71044e-08 0)
(7.49473e-06 -5.04868e-08 0)
(7.53731e-06 -4.06631e-08 0)
(7.58332e-06 -3.51341e-08 0)
(7.63992e-06 -3.25001e-08 0)
(7.70702e-06 -3.1854e-08 0)
(7.78556e-06 -3.24701e-08 0)
(7.87527e-06 -3.39933e-08 0)
(7.97499e-06 -3.58783e-08 0)
(7.33225e-06 -2.79687e-07 0)
(7.38855e-06 -2.0284e-07 0)
(7.42141e-06 -1.54005e-07 0)
(7.45926e-06 -1.25239e-07 0)
(7.50215e-06 -1.0921e-07 0)
(7.55652e-06 -1.01629e-07 0)
(7.62203e-06 -9.97916e-08 0)
(7.69926e-06 -1.01764e-07 0)
(7.78788e-06 -1.06433e-07 0)
(7.88642e-06 -1.12088e-07 0)
(7.2225e-06 -4.67718e-07 0)
(7.25729e-06 -3.44336e-07 0)
(7.27652e-06 -2.66009e-07 0)
(7.30536e-06 -2.19907e-07 0)
(7.34228e-06 -1.9429e-07 0)
(7.39245e-06 -1.82406e-07 0)
(7.45485e-06 -1.79767e-07 0)
(7.52959e-06 -1.83226e-07 0)
(7.6161e-06 -1.91025e-07 0)
(7.71234e-06 -2.00492e-07 0)
(7.05992e-06 -6.58116e-07 0)
(7.06413e-06 -4.94847e-07 0)
(7.06396e-06 -3.91251e-07 0)
(7.07995e-06 -3.30538e-07 0)
(7.10838e-06 -2.96956e-07 0)
(7.15256e-06 -2.81662e-07 0)
(7.21056e-06 -2.78681e-07 0)
(7.28173e-06 -2.8386e-07 0)
(7.36523e-06 -2.94762e-07 0)
(7.45825e-06 -3.08052e-07 0)
(6.8471e-06 -8.51393e-07 0)
(6.81349e-06 -6.57076e-07 0)
(6.78933e-06 -5.33777e-07 0)
(6.78942e-06 -4.61975e-07 0)
(6.80733e-06 -4.22593e-07 0)
(6.84405e-06 -4.05186e-07 0)
(6.89659e-06 -4.02525e-07 0)
(6.96333e-06 -4.09746e-07 0)
(7.04306e-06 -4.23772e-07 0)
(7.13217e-06 -4.4089e-07 0)
(6.58727e-06 -1.04766e-06 0)
(6.51087e-06 -8.32837e-07 0)
(6.45961e-06 -6.96439e-07 0)
(6.4417e-06 -6.17717e-07 0)
(6.44766e-06 -5.75069e-07 0)
(6.47588e-06 -5.57064e-07 0)
(6.52217e-06 -5.55523e-07 0)
(6.58383e-06 -5.65168e-07 0)
(6.65921e-06 -5.82364e-07 0)
(6.74387e-06 -6.03294e-07 0)
(6.28431e-06 -1.24651e-06 0)
(6.1627e-06 -1.02284e-06 0)
(6.08283e-06 -8.80664e-07 0)
(6.04589e-06 -7.9961e-07 0)
(6.03918e-06 -7.5649e-07 0)
(6.05833e-06 -7.39578e-07 0)
(6.09789e-06 -7.40087e-07 0)
(6.15408e-06 -7.52556e-07 0)
(6.22469e-06 -7.72998e-07 0)
(6.30466e-06 -7.97687e-07 0)
(5.94234e-06 -1.447e-06 0)
(5.77593e-06 -1.22656e-06 0)
(5.66775e-06 -1.08624e-06 0)
(5.61186e-06 -1.00769e-06 0)
(5.59248e-06 -9.67017e-07 0)
(5.60247e-06 -9.52966e-07 0)
(5.6351e-06 -9.56492e-07 0)
(5.68559e-06 -9.72275e-07 0)
(5.7511e-06 -9.96061e-07 0)
(5.82622e-06 -1.02455e-06 0)
(5.56583e-06 -1.64776e-06 0)
(5.35777e-06 -1.44234e-06 0)
(5.22329e-06 -1.3114e-06 0)
(5.14969e-06 -1.24006e-06 0)
(5.11834e-06 -1.20472e-06 0)
(5.11949e-06 -1.19523e-06 0)
(5.14526e-06 -1.20276e-06 0)
(5.19004e-06 -1.22228e-06 0)
(5.25024e-06 -1.24976e-06 0)
(5.32067e-06 -1.2819e-06 0)
(5.15927e-06 -1.84689e-06 0)
(4.91537e-06 -1.66741e-06 0)
(4.75828e-06 -1.55275e-06 0)
(4.66929e-06 -1.49302e-06 0)
(4.62733e-06 -1.46569e-06 0)
(4.62045e-06 -1.46235e-06 0)
(4.63978e-06 -1.47472e-06 0)
(4.67889e-06 -1.49854e-06 0)
(4.73371e-06 -1.52975e-06 0)
(4.79933e-06 -1.56686e-06 0)
(8.08508e-06 -3.77765e-08 0)
(8.20517e-06 -3.8105e-08 0)
(8.33297e-06 -3.85245e-08 0)
(8.46807e-06 -3.88053e-08 0)
(8.60959e-06 -3.89137e-08 0)
(8.75696e-06 -3.88329e-08 0)
(8.90952e-06 -3.8492e-08 0)
(9.06671e-06 -3.78993e-08 0)
(9.22801e-06 -3.70549e-08 0)
(9.39289e-06 -3.59386e-08 0)
(9.56083e-06 -3.45162e-08 0)
(9.73134e-06 -3.2762e-08 0)
(9.90393e-06 -3.06429e-08 0)
(1.00781e-05 -2.81276e-08 0)
(1.02533e-05 -2.51775e-08 0)
(1.04288e-05 -2.17434e-08 0)
(1.06044e-05 -1.77545e-08 0)
(1.07788e-05 -1.31307e-08 0)
(1.09522e-05 -7.75633e-09 0)
(1.11217e-05 -1.58541e-09 0)
(8.00046e-06 -1.17335e-07 0)
(8.12765e-06 -1.17753e-07 0)
(8.26181e-06 -1.18529e-07 0)
(8.40243e-06 -1.18985e-07 0)
(8.54886e-06 -1.18933e-07 0)
(8.70055e-06 -1.18365e-07 0)
(8.85701e-06 -1.17131e-07 0)
(9.01772e-06 -1.15219e-07 0)
(9.18222e-06 -1.12553e-07 0)
(9.35001e-06 -1.09062e-07 0)
(9.52063e-06 -1.04671e-07 0)
(9.69362e-06 -9.93199e-08 0)
(9.86854e-06 -9.29143e-08 0)
(1.00449e-05 -8.53436e-08 0)
(1.02221e-05 -7.64723e-08 0)
(1.03997e-05 -6.61467e-08 0)
(1.05771e-05 -5.41581e-08 0)
(1.07533e-05 -4.02796e-08 0)
(1.09286e-05 -2.41586e-08 0)
(1.10998e-05 -5.65962e-09 0)
(7.83408e-06 -2.07885e-07 0)
(7.97522e-06 -2.06819e-07 0)
(8.12182e-06 -2.06513e-07 0)
(8.27319e-06 -2.06048e-07 0)
(8.42924e-06 -2.04949e-07 0)
(8.58945e-06 -2.03207e-07 0)
(8.75357e-06 -2.00493e-07 0)
(8.92116e-06 -1.96764e-07 0)
(9.09191e-06 -1.91865e-07 0)
(9.2654e-06 -1.85688e-07 0)
(9.44129e-06 -1.78103e-07 0)
(9.61916e-06 -1.6899e-07 0)
(9.79862e-06 -1.58171e-07 0)
(9.9792e-06 -1.4545e-07 0)
(1.01605e-05 -1.30599e-07 0)
(1.03419e-05 -1.13356e-07 0)
(1.05231e-05 -9.33649e-08 0)
(1.0703e-05 -7.02506e-08 0)
(1.08818e-05 -4.3411e-08 0)
(1.10566e-05 -1.2624e-08 0)
(7.59098e-06 -3.15684e-07 0)
(7.75211e-06 -3.10682e-07 0)
(7.91671e-06 -3.07047e-07 0)
(8.08371e-06 -3.03928e-07 0)
(8.25378e-06 -3.00313e-07 0)
(8.42639e-06 -2.96223e-07 0)
(8.6017e-06 -2.91074e-07 0)
(8.77936e-06 -2.84781e-07 0)
(8.95931e-06 -2.77071e-07 0)
(9.1412e-06 -2.67758e-07 0)
(9.32483e-06 -2.56616e-07 0)
(9.50986e-06 -2.43449e-07 0)
(9.696e-06 -2.28001e-07 0)
(9.88286e-06 -2.09991e-07 0)
(1.00701e-05 -1.89093e-07 0)
(1.02572e-05 -1.64914e-07 0)
(1.04439e-05 -1.36948e-07 0)
(1.0629e-05 -1.04658e-07 0)
(1.0813e-05 -6.71801e-08 0)
(1.09931e-05 -2.42128e-08 0)
(7.27851e-06 -4.46306e-07 0)
(7.46472e-06 -4.34183e-07 0)
(7.65214e-06 -4.24305e-07 0)
(7.83896e-06 -4.16287e-07 0)
(8.02692e-06 -4.0827e-07 0)
(8.21542e-06 -4.00319e-07 0)
(8.40511e-06 -3.91515e-07 0)
(8.59576e-06 -3.81673e-07 0)
(8.78752e-06 -3.70347e-07 0)
(8.98024e-06 -3.57241e-07 0)
(9.17384e-06 -3.42036e-07 0)
(9.36813e-06 -3.24439e-07 0)
(9.56292e-06 -3.04089e-07 0)
(9.75791e-06 -2.80601e-07 0)
(9.95287e-06 -2.53531e-07 0)
(1.01473e-05 -2.22354e-07 0)
(1.0341e-05 -1.86407e-07 0)
(1.0533e-05 -1.4499e-07 0)
(1.07238e-05 -9.69811e-08 0)
(1.09107e-05 -4.19768e-08 0)
(6.9056e-06 -6.03735e-07 0)
(7.12067e-06 -5.80806e-07 0)
(7.33477e-06 -5.61252e-07 0)
(7.5449e-06 -5.45616e-07 0)
(7.75407e-06 -5.30955e-07 0)
(7.96149e-06 -5.17298e-07 0)
(8.16833e-06 -5.03332e-07 0)
(8.37453e-06 -4.88711e-07 0)
(8.58049e-06 -4.72805e-07 0)
(8.78623e-06 -4.55157e-07 0)
(8.99185e-06 -4.35322e-07 0)
(9.19729e-06 -4.12871e-07 0)
(9.40248e-06 -3.8732e-07 0)
(9.60724e-06 -3.58162e-07 0)
(9.81144e-06 -3.24813e-07 0)
(1.00147e-05 -2.86618e-07 0)
(1.02169e-05 -2.42735e-07 0)
(1.04172e-05 -1.92308e-07 0)
(1.06161e-05 -1.33957e-07 0)
(1.08111e-05 -6.7126e-08 0)
(6.48267e-06 -7.90435e-07 0)
(6.72905e-06 -7.52966e-07 0)
(6.97256e-06 -7.20319e-07 0)
(7.20861e-06 -6.94157e-07 0)
(7.44147e-06 -6.70487e-07 0)
(7.67022e-06 -6.49107e-07 0)
(7.89647e-06 -6.28376e-07 0)
(8.12034e-06 -6.07644e-07 0)
(8.34249e-06 -5.8608e-07 0)
(8.56312e-06 -5.63027e-07 0)
(8.78249e-06 -5.37871e-07 0)
(9.00071e-06 -5.10025e-07 0)
(9.21783e-06 -4.78865e-07 0)
(9.4338e-06 -4.43753e-07 0)
(9.64861e-06 -4.03958e-07 0)
(9.86195e-06 -3.58677e-07 0)
(1.00739e-05 -3.0689e-07 0)
(1.02836e-05 -2.47567e-07 0)
(1.04918e-05 -1.79087e-07 0)
(1.06961e-05 -1.00729e-07 0)
(6.02032e-06 -1.00692e-06 0)
(6.29894e-06 -9.50798e-07 0)
(6.5733e-06 -9.01628e-07 0)
(6.83709e-06 -8.61702e-07 0)
(7.09546e-06 -8.26538e-07 0)
(7.34746e-06 -7.95254e-07 0)
(7.59498e-06 -7.6605e-07 0)
(7.83834e-06 -7.37824e-07 0)
(8.07836e-06 -7.09517e-07 0)
(8.31545e-06 -6.80221e-07 0)
(8.55005e-06 -6.49117e-07 0)
(8.78241e-06 -6.15428e-07 0)
(9.01274e-06 -5.78364e-07 0)
(9.24113e-06 -5.37131e-07 0)
(9.46768e-06 -4.90838e-07 0)
(9.69222e-06 -4.38519e-07 0)
(9.9149e-06 -3.78975e-07 0)
(1.01351e-05 -3.10994e-07 0)
(1.03535e-05 -2.32716e-07 0)
(1.05681e-05 -1.43254e-07 0)
(5.53003e-06 -1.25278e-06 0)
(5.84081e-06 -1.17461e-06 0)
(6.14591e-06 -1.10679e-06 0)
(6.4383e-06 -1.05035e-06 0)
(6.72292e-06 -1.00151e-06 0)
(6.99931e-06 -9.58317e-07 0)
(7.26919e-06 -9.1891e-07 0)
(7.53322e-06 -8.81702e-07 0)
(7.7923e-06 -8.45389e-07 0)
(8.04704e-06 -8.08794e-07 0)
(8.29802e-06 -7.70874e-07 0)
(8.54565e-06 -7.30652e-07 0)
(8.79027e-06 -6.8716e-07 0)
(9.0321e-06 -6.3943e-07 0)
(9.27135e-06 -5.864e-07 0)
(9.50798e-06 -5.26927e-07 0)
(9.74225e-06 -4.59644e-07 0)
(9.97371e-06 -3.8315e-07 0)
(1.02031e-05 -2.95388e-07 0)
(1.04289e-05 -1.95311e-07 0)
(5.021e-06 -1.52348e-06 0)
(5.36369e-06 -1.4183e-06 0)
(5.698e-06 -1.32952e-06 0)
(6.01961e-06 -1.25394e-06 0)
(6.33102e-06 -1.18921e-06 0)
(6.63278e-06 -1.13237e-06 0)
(6.92605e-06 -1.08133e-06 0)
(7.21178e-06 -1.03408e-06 0)
(7.4909e-06 -9.88993e-07 0)
(7.7642e-06 -9.44565e-07 0)
(8.03239e-06 -8.99486e-07 0)
(8.29603e-06 -8.52545e-07 0)
(8.55563e-06 -8.02562e-07 0)
(8.81152e-06 -7.48385e-07 0)
(9.06404e-06 -6.88766e-07 0)
(9.3133e-06 -6.22393e-07 0)
(9.55967e-06 -5.47737e-07 0)
(9.8029e-06 -4.632e-07 0)
(1.00439e-05 -3.66539e-07 0)
(1.02813e-05 -2.56512e-07 0)
(4.64605e-06 -1.78071e-06 0)
(5.00872e-06 -1.65435e-06 0)
(5.35968e-06 -1.5503e-06 0)
(5.69866e-06 -1.45979e-06 0)
(6.02658e-06 -1.38128e-06 0)
(6.3442e-06 -1.31183e-06 0)
(6.65251e-06 -1.24924e-06 0)
(6.95241e-06 -1.19148e-06 0)
(7.24479e-06 -1.13676e-06 0)
(7.53045e-06 -1.08349e-06 0)
(7.8101e-06 -1.0302e-06 0)
(8.08437e-06 -9.75553e-07 0)
(8.35381e-06 -9.18241e-07 0)
(8.61884e-06 -8.56989e-07 0)
(8.87988e-06 -7.90441e-07 0)
(9.13717e-06 -7.17178e-07 0)
(9.39117e-06 -6.35617e-07 0)
(9.64185e-06 -5.44062e-07 0)
(9.89013e-06 -4.4023e-07 0)
(1.01351e-05 -3.22822e-07 0)
(4.43033e-06 -1.98814e-06 0)
(4.79544e-06 -1.8571e-06 0)
(5.14919e-06 -1.74474e-06 0)
(5.49251e-06 -1.64529e-06 0)
(5.82543e-06 -1.55732e-06 0)
(6.14848e-06 -1.47839e-06 0)
(6.46238e-06 -1.40648e-06 0)
(6.76781e-06 -1.33972e-06 0)
(7.0655e-06 -1.27637e-06 0)
(7.35615e-06 -1.21486e-06 0)
(7.64042e-06 -1.15374e-06 0)
(7.91891e-06 -1.09164e-06 0)
(8.19215e-06 -1.02725e-06 0)
(8.4606e-06 -9.59248e-07 0)
(8.72471e-06 -8.8628e-07 0)
(8.98481e-06 -8.06918e-07 0)
(9.2414e-06 -7.19624e-07 0)
(9.49463e-06 -6.22731e-07 0)
(9.74543e-06 -5.14051e-07 0)
(9.9933e-06 -3.9237e-07 0)
(4.24446e-06 -2.18807e-06 0)
(4.60619e-06 -2.05376e-06 0)
(4.95936e-06 -1.93576e-06 0)
(5.30334e-06 -1.82938e-06 0)
(5.63814e-06 -1.73355e-06 0)
(5.96382e-06 -1.64633e-06 0)
(6.28085e-06 -1.56598e-06 0)
(6.58965e-06 -1.49081e-06 0)
(6.89083e-06 -1.41923e-06 0)
(7.18492e-06 -1.34975e-06 0)
(7.47252e-06 -1.28098e-06 0)
(7.75415e-06 -1.21156e-06 0)
(8.03033e-06 -1.14018e-06 0)
(8.30151e-06 -1.06556e-06 0)
(8.56815e-06 -9.86345e-07 0)
(8.83065e-06 -9.01134e-07 0)
(9.08953e-06 -8.08451e-07 0)
(9.34509e-06 -7.0671e-07 0)
(9.59824e-06 -5.93845e-07 0)
(9.84882e-06 -4.68771e-07 0)
(4.07994e-06 -2.38091e-06 0)
(4.4366e-06 -2.2449e-06 0)
(4.78674e-06 -2.12261e-06 0)
(5.12901e-06 -2.01047e-06 0)
(5.46334e-06 -1.90785e-06 0)
(5.78948e-06 -1.81326e-06 0)
(6.10767e-06 -1.72523e-06 0)
(6.41811e-06 -1.6423e-06 0)
(6.72125e-06 -1.56301e-06 0)
(7.01748e-06 -1.48601e-06 0)
(7.30729e-06 -1.40995e-06 0)
(7.59114e-06 -1.33355e-06 0)
(7.86948e-06 -1.25551e-06 0)
(8.14276e-06 -1.17461e-06 0)
(8.41143e-06 -1.08951e-06 0)
(8.67594e-06 -9.98891e-07 0)
(8.93682e-06 -9.01335e-07 0)
(9.19447e-06 -7.95363e-07 0)
(9.44975e-06 -6.79077e-07 0)
(9.70286e-06 -5.51527e-07 0)
(3.93464e-06 -2.56563e-06 0)
(4.28465e-06 -2.42904e-06 0)
(4.62998e-06 -2.30387e-06 0)
(4.96867e-06 -2.18737e-06 0)
(5.30072e-06 -2.07925e-06 0)
(5.62556e-06 -1.97839e-06 0)
(5.94326e-06 -1.88362e-06 0)
(6.25385e-06 -1.7937e-06 0)
(6.5576e-06 -1.70735e-06 0)
(6.85478e-06 -1.62335e-06 0)
(7.14578e-06 -1.54046e-06 0)
(7.43096e-06 -1.45746e-06 0)
(7.71074e-06 -1.37313e-06 0)
(7.98552e-06 -1.2863e-06 0)
(8.25574e-06 -1.19569e-06 0)
(8.52187e-06 -1.10008e-06 0)
(8.78443e-06 -9.9811e-07 0)
(9.04389e-06 -8.88445e-07 0)
(9.3011e-06 -7.69386e-07 0)
(9.55651e-06 -6.40123e-07 0)
(3.80526e-06 -2.74236e-06 0)
(4.14781e-06 -2.60608e-06 0)
(4.48719e-06 -2.47907e-06 0)
(4.82103e-06 -2.35926e-06 0)
(5.14944e-06 -2.24668e-06 0)
(5.4716e-06 -2.14052e-06 0)
(5.78749e-06 -2.03989e-06 0)
(6.09697e-06 -1.94376e-06 0)
(6.40019e-06 -1.85105e-06 0)
(6.6973e-06 -1.76066e-06 0)
(6.98858e-06 -1.67148e-06 0)
(7.27431e-06 -1.58238e-06 0)
(7.55485e-06 -1.49222e-06 0)
(7.83057e-06 -1.39991e-06 0)
(8.10189e-06 -1.30424e-06 0)
(8.36925e-06 -1.2041e-06 0)
(8.63318e-06 -1.09824e-06 0)
(8.8942e-06 -9.85436e-07 0)
(9.15313e-06 -8.64228e-07 0)
(9.41058e-06 -7.33925e-07 0)
(3.68921e-06 -2.91127e-06 0)
(4.02386e-06 -2.77592e-06 0)
(4.3565e-06 -2.64791e-06 0)
(4.68464e-06 -2.52573e-06 0)
(5.00842e-06 -2.40965e-06 0)
(5.32688e-06 -2.29911e-06 0)
(5.63993e-06 -2.19348e-06 0)
(5.94732e-06 -2.09194e-06 0)
(6.24908e-06 -1.99357e-06 0)
(6.54525e-06 -1.89744e-06 0)
(6.83603e-06 -1.80256e-06 0)
(7.12163e-06 -1.70788e-06 0)
(7.40235e-06 -1.61238e-06 0)
(7.67851e-06 -1.51507e-06 0)
(7.9505e-06 -1.41482e-06 0)
(8.21874e-06 -1.31062e-06 0)
(8.48375e-06 -1.20134e-06 0)
(8.74607e-06 -1.08592e-06 0)
(9.00648e-06 -9.63104e-07 0)
(9.2657e-06 -8.32313e-07 0)
(3.58408e-06 -3.07271e-06 0)
(3.91066e-06 -2.93874e-06 0)
(4.23614e-06 -2.81036e-06 0)
(4.55804e-06 -2.68655e-06 0)
(4.8765e-06 -2.56775e-06 0)
(5.19053e-06 -2.45365e-06 0)
(5.49998e-06 -2.34381e-06 0)
(5.8045e-06 -2.23761e-06 0)
(6.10404e-06 -2.13429e-06 0)
(6.39858e-06 -2.03307e-06 0)
(6.68822e-06 -1.93309e-06 0)
(6.97312e-06 -1.83341e-06 0)
(7.25352e-06 -1.73311e-06 0)
(7.52969e-06 -1.63131e-06 0)
(7.80198e-06 -1.52696e-06 0)
(8.07079e-06 -1.41919e-06 0)
(8.33661e-06 -1.30698e-06 0)
(8.6e-06 -1.18943e-06 0)
(8.86166e-06 -1.06546e-06 0)
(9.12237e-06 -9.34647e-07 0)
(3.48773e-06 -3.22718e-06 0)
(3.80625e-06 -3.09483e-06 0)
(4.12437e-06 -2.96654e-06 0)
(4.43974e-06 -2.8417e-06 0)
(4.75246e-06 -2.72086e-06 0)
(5.06156e-06 -2.6039e-06 0)
(5.36685e-06 -2.49057e-06 0)
(5.66793e-06 -2.38042e-06 0)
(5.9647e-06 -2.27283e-06 0)
(6.25706e-06 -2.16717e-06 0)
(6.54508e-06 -2.0627e-06 0)
(6.82882e-06 -1.9586e-06 0)
(7.1085e-06 -1.85405e-06 0)
(7.38433e-06 -1.74827e-06 0)
(7.65661e-06 -1.64033e-06 0)
(7.92573e-06 -1.52945e-06 0)
(8.19212e-06 -1.41476e-06 0)
(8.45637e-06 -1.2955e-06 0)
(8.71904e-06 -1.17079e-06 0)
(8.98102e-06 -1.04032e-06 0)
(3.39825e-06 -3.37516e-06 0)
(3.70885e-06 -3.24456e-06 0)
(4.01962e-06 -3.1167e-06 0)
(4.32831e-06 -2.99127e-06 0)
(4.63507e-06 -2.86894e-06 0)
(4.93894e-06 -2.74973e-06 0)
(5.23972e-06 -2.63357e-06 0)
(5.53699e-06 -2.52011e-06 0)
(5.83058e-06 -2.4089e-06 0)
(6.12039e-06 -2.29943e-06 0)
(6.4064e-06 -2.19107e-06 0)
(6.68865e-06 -2.08312e-06 0)
(6.96728e-06 -1.97486e-06 0)
(7.24248e-06 -1.86562e-06 0)
(7.51451e-06 -1.75456e-06 0)
(7.78371e-06 -1.64103e-06 0)
(8.05047e-06 -1.5243e-06 0)
(8.31534e-06 -1.4037e-06 0)
(8.57882e-06 -1.27859e-06 0)
(8.84184e-06 -1.14875e-06 0)
(3.31394e-06 -3.51719e-06 0)
(3.61685e-06 -3.38837e-06 0)
(3.92036e-06 -3.26113e-06 0)
(4.22241e-06 -3.13547e-06 0)
(4.52314e-06 -3.0121e-06 0)
(4.82166e-06 -2.89118e-06 0)
(5.11773e-06 -2.77274e-06 0)
(5.41095e-06 -2.65657e-06 0)
(5.70112e-06 -2.54233e-06 0)
(5.98811e-06 -2.42964e-06 0)
(6.27185e-06 -2.31798e-06 0)
(6.55236e-06 -2.20673e-06 0)
(6.82971e-06 -2.09529e-06 0)
(7.10407e-06 -1.98308e-06 0)
(7.37563e-06 -1.86937e-06 0)
(7.64472e-06 -1.75362e-06 0)
(7.91166e-06 -1.63522e-06 0)
(8.17696e-06 -1.51363e-06 0)
(8.44109e-06 -1.38839e-06 0)
(8.70492e-06 -1.25938e-06 0)
(3.23328e-06 -3.65376e-06 0)
(3.52879e-06 -3.52666e-06 0)
(3.82523e-06 -3.40019e-06 0)
(4.12077e-06 -3.27456e-06 0)
(4.41552e-06 -3.15052e-06 0)
(4.70866e-06 -3.02832e-06 0)
(4.99996e-06 -2.9081e-06 0)
(5.28902e-06 -2.78975e-06 0)
(5.57565e-06 -2.67304e-06 0)
(5.85967e-06 -2.55768e-06 0)
(6.141e-06 -2.44326e-06 0)
(6.4196e-06 -2.32924e-06 0)
(6.69553e-06 -2.21513e-06 0)
(6.96889e-06 -2.10042e-06 0)
(7.23986e-06 -1.9845e-06 0)
(7.50869e-06 -1.86694e-06 0)
(7.77567e-06 -1.74721e-06 0)
(8.04125e-06 -1.62492e-06 0)
(8.30587e-06 -1.49976e-06 0)
(8.57029e-06 -1.37168e-06 0)
(3.15489e-06 -3.78533e-06 0)
(3.44331e-06 -3.65987e-06 0)
(3.73293e-06 -3.53424e-06 0)
(4.02214e-06 -3.40884e-06 0)
(4.31105e-06 -3.28442e-06 0)
(4.5989e-06 -3.16131e-06 0)
(4.88549e-06 -3.03975e-06 0)
(5.17042e-06 -2.9197e-06 0)
(5.45349e-06 -2.80103e-06 0)
(5.73451e-06 -2.68352e-06 0)
(6.01337e-06 -2.56685e-06 0)
(6.29001e-06 -2.45056e-06 0)
(6.56443e-06 -2.33425e-06 0)
(6.83671e-06 -2.2175e-06 0)
(7.10698e-06 -2.09978e-06 0)
(7.37545e-06 -1.98074e-06 0)
(7.64233e-06 -1.85999e-06 0)
(7.90809e-06 -1.73724e-06 0)
(8.17303e-06 -1.61232e-06 0)
(8.4379e-06 -1.48523e-06 0)
(3.07746e-06 -3.9123e-06 0)
(3.3591e-06 -3.7884e-06 0)
(3.64219e-06 -3.66364e-06 0)
(3.92534e-06 -3.5386e-06 0)
(4.20862e-06 -3.41405e-06 0)
(4.49138e-06 -3.29037e-06 0)
(4.77341e-06 -3.16786e-06 0)
(5.05433e-06 -3.04655e-06 0)
(5.33394e-06 -2.92637e-06 0)
(5.61201e-06 -2.80718e-06 0)
(5.88842e-06 -2.68872e-06 0)
(6.16309e-06 -2.57063e-06 0)
(6.43599e-06 -2.45255e-06 0)
(6.70716e-06 -2.33416e-06 0)
(6.97667e-06 -2.215e-06 0)
(7.24471e-06 -2.09482e-06 0)
(7.51144e-06 -1.97331e-06 0)
(7.77726e-06 -1.85029e-06 0)
(8.04239e-06 -1.7257e-06 0)
(8.30756e-06 -1.59964e-06 0)
(2.99968e-06 -4.03509e-06 0)
(3.27488e-06 -3.91261e-06 0)
(3.55177e-06 -3.78875e-06 0)
(3.82916e-06 -3.66421e-06 0)
(4.10714e-06 -3.53974e-06 0)
(4.38509e-06 -3.41578e-06 0)
(4.66281e-06 -3.29266e-06 0)
(4.93993e-06 -3.17047e-06 0)
(5.21624e-06 -3.04919e-06 0)
(5.49151e-06 -2.92874e-06 0)
(5.76559e-06 -2.80894e-06 0)
(6.03838e-06 -2.68945e-06 0)
(6.30982e-06 -2.57002e-06 0)
(6.57991e-06 -2.45036e-06 0)
(6.84867e-06 -2.33009e-06 0)
(7.11625e-06 -2.20903e-06 0)
(7.38279e-06 -2.08699e-06 0)
(7.64859e-06 -1.96385e-06 0)
(7.91385e-06 -1.83966e-06 0)
(8.17917e-06 -1.71457e-06 0)
(2.92033e-06 -4.15398e-06 0)
(3.1894e-06 -4.03298e-06 0)
(3.46038e-06 -3.90993e-06 0)
(3.73245e-06 -3.78597e-06 0)
(4.00551e-06 -3.6618e-06 0)
(4.27903e-06 -3.53781e-06 0)
(4.55278e-06 -3.4144e-06 0)
(4.82641e-06 -3.29167e-06 0)
(5.09969e-06 -3.16967e-06 0)
(5.37239e-06 -3.04835e-06 0)
(5.64433e-06 -2.92759e-06 0)
(5.91539e-06 -2.8071e-06 0)
(6.18547e-06 -2.68666e-06 0)
(6.45454e-06 -2.56605e-06 0)
(6.72259e-06 -2.44495e-06 0)
(6.98973e-06 -2.32327e-06 0)
(7.25607e-06 -2.20086e-06 0)
(7.52179e-06 -2.0777e-06 0)
(7.78711e-06 -1.95392e-06 0)
(8.0525e-06 -1.82974e-06 0)
(2.83811e-06 -4.2695e-06 0)
(3.10121e-06 -4.14953e-06 0)
(3.3666e-06 -4.02756e-06 0)
(3.63401e-06 -3.90443e-06 0)
(3.90259e-06 -3.7807e-06 0)
(4.17218e-06 -3.65692e-06 0)
(4.4424e-06 -3.53346e-06 0)
(4.71295e-06 -3.4105e-06 0)
(4.98357e-06 -3.28809e-06 0)
(5.25402e-06 -3.16624e-06 0)
(5.52409e-06 -3.04486e-06 0)
(5.79362e-06 -2.92369e-06 0)
(6.06251e-06 -2.80254e-06 0)
(6.33068e-06 -2.68126e-06 0)
(6.59811e-06 -2.55959e-06 0)
(6.86488e-06 -2.43747e-06 0)
(7.13099e-06 -2.31482e-06 0)
(7.39665e-06 -2.19168e-06 0)
(7.66195e-06 -2.0683e-06 0)
(7.92735e-06 -1.94492e-06 0)
(2.75105e-06 -4.38151e-06 0)
(3.0091e-06 -4.26274e-06 0)
(3.26991e-06 -4.14208e-06 0)
(3.5328e-06 -4.01983e-06 0)
(3.79752e-06 -3.89673e-06 0)
(4.06366e-06 -3.77337e-06 0)
(4.33089e-06 -3.65013e-06 0)
(4.59887e-06 -3.52721e-06 0)
(4.86729e-06 -3.4047e-06 0)
(5.13588e-06 -3.28263e-06 0)
(5.40442e-06 -3.1609e-06 0)
(5.67269e-06 -3.03933e-06 0)
(5.94059e-06 -2.91775e-06 0)
(6.20803e-06 -2.79605e-06 0)
(6.47495e-06 -2.67401e-06 0)
(6.74138e-06 -2.55159e-06 0)
(7.0073e-06 -2.42877e-06 0)
(7.27293e-06 -2.30568e-06 0)
(7.53822e-06 -2.18264e-06 0)
(7.80355e-06 -2.05994e-06 0)
(2.65803e-06 -4.49122e-06 0)
(2.91143e-06 -4.37389e-06 0)
(3.16807e-06 -4.25427e-06 0)
(3.42731e-06 -4.13297e-06 0)
(3.68889e-06 -4.01066e-06 0)
(3.95234e-06 -3.88789e-06 0)
(4.21729e-06 -3.76507e-06 0)
(4.48336e-06 -3.64241e-06 0)
(4.75018e-06 -3.52001e-06 0)
(5.01742e-06 -3.39791e-06 0)
(5.28483e-06 -3.27606e-06 0)
(5.55221e-06 -3.15429e-06 0)
(5.81938e-06 -3.03249e-06 0)
(6.08625e-06 -2.91055e-06 0)
(6.35276e-06 -2.78824e-06 0)
(6.61893e-06 -2.66562e-06 0)
(6.88475e-06 -2.54272e-06 0)
(7.15032e-06 -2.41964e-06 0)
(7.41565e-06 -2.29681e-06 0)
(7.68094e-06 -2.17464e-06 0)
(2.55784e-06 -4.59777e-06 0)
(2.80719e-06 -4.48204e-06 0)
(3.06037e-06 -4.36388e-06 0)
(3.31681e-06 -4.24383e-06 0)
(3.5761e-06 -4.12257e-06 0)
(3.83773e-06 -4.00066e-06 0)
(4.10123e-06 -3.87851e-06 0)
(4.36613e-06 -3.75633e-06 0)
(4.632e-06 -3.63422e-06 0)
(4.89849e-06 -3.51228e-06 0)
(5.16527e-06 -3.3905e-06 0)
(5.43208e-06 -3.26871e-06 0)
(5.69878e-06 -3.14679e-06 0)
(5.96525e-06 -3.02471e-06 0)
(6.23143e-06 -2.90231e-06 0)
(6.49737e-06 -2.77957e-06 0)
(6.76311e-06 -2.6566e-06 0)
(7.02868e-06 -2.53349e-06 0)
(7.29415e-06 -2.41073e-06 0)
(7.55954e-06 -2.28887e-06 0)
(1.91213e-07 -4.01047e-06 0)
(5.76372e-07 -3.95106e-06 0)
(9.69761e-07 -3.83462e-06 0)
(1.37603e-06 -3.6658e-06 0)
(1.79899e-06 -3.45112e-06 0)
(2.24102e-06 -3.19856e-06 0)
(2.70304e-06 -2.91741e-06 0)
(3.18424e-06 -2.61729e-06 0)
(3.68273e-06 -2.30806e-06 0)
(4.19476e-06 -1.99763e-06 0)
(1.85673e-07 -4.07402e-06 0)
(5.59343e-07 -4.01973e-06 0)
(9.39889e-07 -3.91326e-06 0)
(1.33125e-06 -3.75853e-06 0)
(1.73665e-06 -3.5611e-06 0)
(2.15817e-06 -3.32777e-06 0)
(2.59666e-06 -3.0664e-06 0)
(3.05127e-06 -2.78534e-06 0)
(3.51975e-06 -2.49353e-06 0)
(3.99922e-06 -2.19736e-06 0)
(1.80815e-07 -4.1391e-06 0)
(5.44368e-07 -4.08944e-06 0)
(9.13556e-07 -3.99199e-06 0)
(1.29156e-06 -3.85014e-06 0)
(1.68109e-06 -3.66871e-06 0)
(2.08388e-06 -3.45357e-06 0)
(2.50082e-06 -3.21148e-06 0)
(2.93163e-06 -2.94944e-06 0)
(3.37471e-06 -2.67517e-06 0)
(3.82818e-06 -2.3927e-06 0)
(1.76508e-07 -4.20583e-06 0)
(5.3111e-07 -4.16012e-06 0)
(8.90436e-07 -4.07038e-06 0)
(1.25706e-06 -3.93955e-06 0)
(1.63327e-06 -3.77188e-06 0)
(2.02046e-06 -3.57251e-06 0)
(2.4193e-06 -3.3474e-06 0)
(2.82954e-06 -3.10271e-06 0)
(3.24983e-06 -2.8456e-06 0)
(3.67856e-06 -2.57917e-06 0)
(1.72547e-07 -4.27419e-06 0)
(5.18919e-07 -4.23202e-06 0)
(8.69232e-07 -4.14917e-06 0)
(1.22558e-06 -4.02825e-06 0)
(1.58988e-06 -3.87304e-06 0)
(1.96327e-06 -3.68811e-06 0)
(2.34639e-06 -3.47871e-06 0)
(2.73899e-06 -3.2501e-06 0)
(3.14015e-06 -3.00878e-06 0)
(3.54765e-06 -2.75751e-06 0)
(1.68854e-07 -4.34409e-06 0)
(5.07643e-07 -4.30497e-06 0)
(8.4973e-07 -4.22811e-06 0)
(1.19687e-06 -4.11586e-06 0)
(1.55066e-06 -3.97157e-06 0)
(1.912e-06 -3.79939e-06 0)
(2.28139e-06 -3.60407e-06 0)
(2.65849e-06 -3.39026e-06 0)
(3.04289e-06 -3.16382e-06 0)
(3.43186e-06 -2.92755e-06 0)
(1.65326e-07 -4.41543e-06 0)
(4.96912e-07 -4.37905e-06 0)
(8.31278e-07 -4.30752e-06 0)
(1.16992e-06 -4.20302e-06 0)
(1.51414e-06 -4.06854e-06 0)
(1.86472e-06 -3.90784e-06 0)
(2.22206e-06 -3.72525e-06 0)
(2.58568e-06 -3.5249e-06 0)
(2.95558e-06 -3.31203e-06 0)
(3.32858e-06 -3.08972e-06 0)
(1.61941e-07 -4.48805e-06 0)
(4.86596e-07 -4.4541e-06 0)
(8.13645e-07 -4.38728e-06 0)
(1.14435e-06 -4.28963e-06 0)
(1.47981e-06 -4.16387e-06 0)
(1.82063e-06 -4.01342e-06 0)
(2.16721e-06 -3.84228e-06 0)
(2.51891e-06 -3.65423e-06 0)
(2.87607e-06 -3.45386e-06 0)
(3.23528e-06 -3.24455e-06 0)
(1.58615e-07 -4.56185e-06 0)
(4.76492e-07 -4.53004e-06 0)
(7.96473e-07 -4.46745e-06 0)
(1.11962e-06 -4.37594e-06 0)
(1.44689e-06 -4.25799e-06 0)
(1.77878e-06 -4.11678e-06 0)
(2.11562e-06 -3.95595e-06 0)
(2.45673e-06 -3.77902e-06 0)
(2.80261e-06 -3.59006e-06 0)
(3.14983e-06 -3.39263e-06 0)
(1.55293e-07 -4.63661e-06 0)
(4.66479e-07 -4.60675e-06 0)
(7.79534e-07 -4.54792e-06 0)
(1.09538e-06 -4.46189e-06 0)
(1.41488e-06 -4.35098e-06 0)
(1.73842e-06 -4.21806e-06 0)
(2.06633e-06 -4.06653e-06 0)
(2.39788e-06 -3.8997e-06 0)
(2.73366e-06 -3.72116e-06 0)
(3.07038e-06 -3.53456e-06 0)
(1.51946e-07 -4.71218e-06 0)
(4.56428e-07 -4.68408e-06 0)
(7.62581e-07 -4.62864e-06 0)
(1.07128e-06 -4.54756e-06 0)
(1.38326e-06 -4.44297e-06 0)
(1.6989e-06 -4.31755e-06 0)
(2.01849e-06 -4.17443e-06 0)
(2.34129e-06 -4.01675e-06 0)
(2.66792e-06 -3.8477e-06 0)
(2.99531e-06 -3.67093e-06 0)
(1.48551e-07 -4.78835e-06 0)
(4.46219e-07 -4.76185e-06 0)
(7.45407e-07 -4.70948e-06 0)
(1.04699e-06 -4.63286e-06 0)
(1.35162e-06 -4.53401e-06 0)
(1.65963e-06 -4.41538e-06 0)
(1.97133e-06 -4.27987e-06 0)
(2.28601e-06 -4.13049e-06 0)
(2.60423e-06 -3.97009e-06 0)
(2.92322e-06 -3.80224e-06 0)
(1.45061e-07 -4.86494e-06 0)
(4.35707e-07 -4.83988e-06 0)
(7.27786e-07 -4.79032e-06 0)
(1.02218e-06 -4.71776e-06 0)
(1.31948e-06 -4.62411e-06 0)
(1.62003e-06 -4.51165e-06 0)
(1.92413e-06 -4.38309e-06 0)
(2.23112e-06 -4.24124e-06 0)
(2.54149e-06 -4.08872e-06 0)
(2.85282e-06 -3.92897e-06 0)
(1.4142e-07 -4.94168e-06 0)
(4.24753e-07 -4.91792e-06 0)
(7.09495e-07 -4.87092e-06 0)
(9.96524e-07 -4.80208e-06 0)
(1.28642e-06 -4.71319e-06 0)
(1.57953e-06 -4.60639e-06 0)
(1.87617e-06 -4.48416e-06 0)
(2.17575e-06 -4.3492e-06 0)
(2.47868e-06 -4.20389e-06 0)
(2.78288e-06 -4.0515e-06 0)
(1.37577e-07 -5.01834e-06 0)
(4.13221e-07 -4.99576e-06 0)
(6.90295e-07 -4.95115e-06 0)
(9.69674e-07 -4.88575e-06 0)
(1.25197e-06 -4.80124e-06 0)
(1.53754e-06 -4.69964e-06 0)
(1.82672e-06 -4.58325e-06 0)
(2.11901e-06 -4.4546e-06 0)
(2.41476e-06 -4.3159e-06 0)
(2.71217e-06 -4.17021e-06 0)
(1.33487e-07 -5.0945e-06 0)
(4.00973e-07 -5.07302e-06 0)
(6.69937e-07 -5.03064e-06 0)
(9.4127e-07 -4.96844e-06 0)
(1.21564e-06 -4.88801e-06 0)
(1.49344e-06 -4.79123e-06 0)
(1.77501e-06 -4.68026e-06 0)
(2.06001e-06 -4.55745e-06 0)
(2.34866e-06 -4.42485e-06 0)
(2.6395e-06 -4.28531e-06 0)
(1.29096e-07 -5.17002e-06 0)
(3.87825e-07 -5.1496e-06 0)
(6.48104e-07 -5.10931e-06 0)
(9.10864e-07 -5.05012e-06 0)
(1.17685e-06 -4.97353e-06 0)
(1.4465e-06 -4.88128e-06 0)
(1.72019e-06 -4.77539e-06 0)
(1.9977e-06 -4.65803e-06 0)
(2.27923e-06 -4.53112e-06 0)
(2.56353e-06 -4.39732e-06 0)
(1.24337e-07 -5.24407e-06 0)
(3.73575e-07 -5.22464e-06 0)
(6.2446e-07 -5.18635e-06 0)
(8.77984e-07 -5.13005e-06 0)
(1.13497e-06 -5.05712e-06 0)
(1.39594e-06 -4.9692e-06 0)
(1.66133e-06 -4.86812e-06 0)
(1.931e-06 -4.75595e-06 0)
(2.20517e-06 -4.63442e-06 0)
(2.48286e-06 -4.50603e-06 0)
(1.19107e-07 -5.31701e-06 0)
(3.57916e-07 -5.29856e-06 0)
(5.98502e-07 -5.26219e-06 0)
(8.41936e-07 -5.20869e-06 0)
(1.08913e-06 -5.13932e-06 0)
(1.3407e-06 -5.05559e-06 0)
(1.59716e-06 -4.95916e-06 0)
(1.85852e-06 -4.85196e-06 0)
(2.12497e-06 -4.73562e-06 0)
(2.39584e-06 -4.61242e-06 0)
(1.1336e-07 -5.38653e-06 0)
(3.40726e-07 -5.36906e-06 0)
(5.70017e-07 -5.33461e-06 0)
(8.02392e-07 -5.28391e-06 0)
(1.03887e-06 -5.2181e-06 0)
(1.28021e-06 -5.13854e-06 0)
(1.527e-06 -5.04678e-06 0)
(1.77944e-06 -4.94456e-06 0)
(2.03773e-06 -4.83344e-06 0)
(2.30146e-06 -4.71547e-06 0)
)


// ************************************************************************* //
