/*--------------------------------*- C++ -*----------------------------------*\
| =========                 |                                                 |
| \\      /  F ield         | foam-extend: Open Source CFD                    |
|  \\    /   O peration     | Version:     4.1                                |
|   \\  /    A nd           | Web:         http://www.foam-extend.org         |
|    \\/     M anipulation  |                                                 |
\*---------------------------------------------------------------------------*/
FoamFile
{
    version     2.0;
    format      ascii;
    class       vectorField;
    location    "9";
    object      solidsCellD_iteration1;
}
// * * * * * * * * * * * * * * * * * * * * * * * * * * * * * * * * * * * * * //


1000
(
(4.50851e-06 -1.89637e-06 0)
(4.25881e-06 -1.76392e-06 0)
(4.09976e-06 -1.67933e-06 0)
(4.00931e-06 -1.6391e-06 0)
(3.96607e-06 -1.6241e-06 0)
(3.95732e-06 -1.62871e-06 0)
(3.97392e-06 -1.64605e-06 0)
(4.00966e-06 -1.67292e-06 0)
(4.05911e-06 -1.7065e-06 0)
(4.11926e-06 -1.74534e-06 0)
(4.0771e-06 -2.07129e-06 0)
(3.81092e-06 -1.97848e-06 0)
(3.6414e-06 -1.91902e-06 0)
(3.54314e-06 -1.89588e-06 0)
(3.49373e-06 -1.89221e-06 0)
(3.47925e-06 -1.90488e-06 0)
(3.49021e-06 -1.92807e-06 0)
(3.5199e-06 -1.95925e-06 0)
(3.56289e-06 -1.99643e-06 0)
(3.61562e-06 -2.03671e-06 0)
(3.62868e-06 -2.23713e-06 0)
(3.35658e-06 -2.18865e-06 0)
(3.18332e-06 -2.15721e-06 0)
(3.08148e-06 -2.15297e-06 0)
(3.02851e-06 -2.16166e-06 0)
(3.00994e-06 -2.18288e-06 0)
(3.01622e-06 -2.212e-06 0)
(3.04061e-06 -2.24736e-06 0)
(3.07779e-06 -2.28774e-06 0)
(3.12432e-06 -2.33e-06 0)
(3.16662e-06 -2.39093e-06 0)
(2.89998e-06 -2.38898e-06 0)
(2.73019e-06 -2.38697e-06 0)
(2.62937e-06 -2.4024e-06 0)
(2.57568e-06 -2.4239e-06 0)
(2.55481e-06 -2.45387e-06 0)
(2.55757e-06 -2.48893e-06 0)
(2.57732e-06 -2.52845e-06 0)
(2.60924e-06 -2.5719e-06 0)
(2.64966e-06 -2.61642e-06 0)
(2.69395e-06 -2.52967e-06 0)
(2.44425e-06 -2.57385e-06 0)
(2.28522e-06 -2.60105e-06 0)
(2.19007e-06 -2.6359e-06 0)
(2.13859e-06 -2.66996e-06 0)
(2.11722e-06 -2.70846e-06 0)
(2.1175e-06 -2.74926e-06 0)
(2.1332e-06 -2.79283e-06 0)
(2.16008e-06 -2.83921e-06 0)
(2.19447e-06 -2.88614e-06 0)
(2.21326e-06 -2.65046e-06 0)
(1.99146e-06 -2.73782e-06 0)
(1.85022e-06 -2.79232e-06 0)
(1.76526e-06 -2.84532e-06 0)
(1.71876e-06 -2.89111e-06 0)
(1.69858e-06 -2.93757e-06 0)
(1.69736e-06 -2.98365e-06 0)
(1.7095e-06 -3.03099e-06 0)
(1.73146e-06 -3.08005e-06 0)
(1.75972e-06 -3.12938e-06 0)
(1.72671e-06 -2.75063e-06 0)
(1.54274e-06 -2.8758e-06 0)
(1.42562e-06 -2.95426e-06 0)
(1.35488e-06 -3.02312e-06 0)
(1.31584e-06 -3.07917e-06 0)
(1.2984e-06 -3.13257e-06 0)
(1.2965e-06 -3.18327e-06 0)
(1.3055e-06 -3.23393e-06 0)
(1.32258e-06 -3.28534e-06 0)
(1.34463e-06 -3.33688e-06 0)
(1.23609e-06 -2.82787e-06 0)
(1.0983e-06 -2.98342e-06 0)
(1.01059e-06 -3.08114e-06 0)
(9.57477e-07 -3.16273e-06 0)
(9.27985e-07 -3.227e-06 0)
(9.1454e-07 -3.28597e-06 0)
(9.12666e-07 -3.34038e-06 0)
(9.18847e-07 -3.39373e-06 0)
(9.31048e-07 -3.44701e-06 0)
(9.46818e-07 -3.50037e-06 0)
(7.42829e-07 -2.88038e-06 0)
(6.57507e-07 -3.05717e-06 0)
(6.03184e-07 -3.16837e-06 0)
(5.70212e-07 -3.25889e-06 0)
(5.51822e-07 -3.3289e-06 0)
(5.4334e-07 -3.39175e-06 0)
(5.42e-07 -3.44877e-06 0)
(5.45602e-07 -3.50403e-06 0)
(5.52909e-07 -3.55864e-06 0)
(5.62371e-07 -3.61336e-06 0)
(2.48092e-07 -2.90682e-06 0)
(2.19156e-07 -3.09456e-06 0)
(2.00713e-07 -3.21273e-06 0)
(1.89505e-07 -3.30786e-06 0)
(1.83234e-07 -3.38084e-06 0)
(1.80302e-07 -3.4457e-06 0)
(1.79785e-07 -3.50405e-06 0)
(1.80949e-07 -3.56027e-06 0)
(1.83374e-07 -3.61556e-06 0)
(1.86517e-07 -3.67096e-06 0)
(7.02933e-06 -8.66051e-08 0)
(7.09357e-06 -6.24722e-08 0)
(7.13335e-06 -4.71317e-08 0)
(7.17663e-06 -3.80705e-08 0)
(7.22364e-06 -3.29845e-08 0)
(7.28103e-06 -3.05705e-08 0)
(7.34849e-06 -2.9949e-08 0)
(7.4268e-06 -3.05056e-08 0)
(7.51566e-06 -3.1903e-08 0)
(7.61392e-06 -3.35893e-08 0)
(6.97741e-06 -2.59771e-07 0)
(7.03121e-06 -1.88796e-07 0)
(7.06443e-06 -1.43774e-07 0)
(7.10336e-06 -1.1726e-07 0)
(7.14753e-06 -1.02446e-07 0)
(7.20289e-06 -9.54809e-08 0)
(7.26888e-06 -9.3784e-08 0)
(7.34599e-06 -9.55536e-08 0)
(7.43385e-06 -9.97796e-08 0)
(7.53098e-06 -1.04866e-07 0)
(6.8737e-06 -4.34437e-07 0)
(6.90766e-06 -3.20472e-07 0)
(6.92829e-06 -2.48235e-07 0)
(6.95889e-06 -2.05807e-07 0)
(6.99758e-06 -1.82209e-07 0)
(7.04908e-06 -1.71272e-07 0)
(7.11227e-06 -1.6881e-07 0)
(7.18711e-06 -1.71944e-07 0)
(7.27311e-06 -1.7901e-07 0)
(7.36819e-06 -1.87527e-07 0)
(6.72003e-06 -6.11284e-07 0)
(6.72576e-06 -4.60522e-07 0)
(6.72848e-06 -3.64959e-07 0)
(6.74723e-06 -3.09071e-07 0)
(6.77808e-06 -2.7817e-07 0)
(6.82402e-06 -2.64149e-07 0)
(6.88319e-06 -2.614e-07 0)
(6.95478e-06 -2.66144e-07 0)
(7.03812e-06 -2.76082e-07 0)
(7.13028e-06 -2.88081e-07 0)
(6.51878e-06 -7.90804e-07 0)
(6.48958e-06 -6.11453e-07 0)
(6.47015e-06 -4.97738e-07 0)
(6.47418e-06 -4.31653e-07 0)
(6.49534e-06 -3.9543e-07 0)
(6.53442e-06 -3.79514e-07 0)
(6.58861e-06 -3.77122e-07 0)
(6.65617e-06 -3.83802e-07 0)
(6.73619e-06 -3.96665e-07 0)
(6.82483e-06 -4.12203e-07 0)
(6.27299e-06 -9.73058e-07 0)
(6.20419e-06 -7.74862e-07 0)
(6.15971e-06 -6.49129e-07 0)
(6.14708e-06 -5.76718e-07 0)
(6.15719e-06 -5.37526e-07 0)
(6.18843e-06 -5.21133e-07 0)
(6.23689e-06 -5.19861e-07 0)
(6.29983e-06 -5.28861e-07 0)
(6.376e-06 -5.44712e-07 0)
(6.46075e-06 -5.63837e-07 0)
(5.98617e-06 -1.1577e-06 0)
(5.87554e-06 -9.51404e-07 0)
(5.80461e-06 -8.20429e-07 0)
(5.77434e-06 -7.45976e-07 0)
(5.77269e-06 -7.06436e-07 0)
(5.79553e-06 -6.91141e-07 0)
(5.83779e-06 -6.91866e-07 0)
(5.89574e-06 -7.03629e-07 0)
(5.96771e-06 -7.22616e-07 0)
(6.04846e-06 -7.45383e-07 0)
(5.66219e-06 -1.34388e-06 0)
(5.51006e-06 -1.14064e-06 0)
(5.41285e-06 -1.01147e-06 0)
(5.36496e-06 -9.39407e-07 0)
(5.35148e-06 -9.02241e-07 0)
(5.36574e-06 -8.89683e-07 0)
(5.40154e-06 -8.93299e-07 0)
(5.4543e-06 -9.08295e-07 0)
(5.52178e-06 -9.30556e-07 0)
(5.59861e-06 -9.57113e-07 0)
(5.30515e-06 -1.5303e-06 0)
(5.11443e-06 -1.34103e-06 0)
(4.99277e-06 -1.22058e-06 0)
(4.92835e-06 -1.15529e-06 0)
(4.90362e-06 -1.12317e-06 0)
(4.90957e-06 -1.11496e-06 0)
(4.9389e-06 -1.12243e-06 0)
(4.98637e-06 -1.14109e-06 0)
(5.049e-06 -1.16704e-06 0)
(5.12215e-06 -1.19746e-06 0)
(4.91923e-06 -1.71517e-06 0)
(4.69526e-06 -1.54998e-06 0)
(4.5525e-06 -1.44469e-06 0)
(4.47356e-06 -1.3902e-06 0)
(4.43869e-06 -1.36559e-06 0)
(4.43678e-06 -1.36322e-06 0)
(4.45962e-06 -1.37532e-06 0)
(4.50144e-06 -1.39815e-06 0)
(4.55862e-06 -1.4279e-06 0)
(4.62791e-06 -1.46341e-06 0)
(7.72174e-06 -3.5304e-08 0)
(7.83925e-06 -3.56106e-08 0)
(7.96429e-06 -3.60284e-08 0)
(8.09642e-06 -3.63253e-08 0)
(8.23481e-06 -3.64565e-08 0)
(8.37893e-06 -3.64005e-08 0)
(8.52818e-06 -3.61158e-08 0)
(8.68198e-06 -3.56095e-08 0)
(8.83978e-06 -3.48639e-08 0)
(9.00108e-06 -3.38587e-08 0)
(9.16539e-06 -3.25583e-08 0)
(9.33222e-06 -3.09382e-08 0)
(9.50108e-06 -2.89757e-08 0)
(9.67145e-06 -2.6643e-08 0)
(9.84285e-06 -2.38977e-08 0)
(1.00146e-05 -2.06901e-08 0)
(1.01863e-05 -1.69555e-08 0)
(1.03569e-05 -1.26267e-08 0)
(1.05265e-05 -7.59669e-09 0)
(1.06923e-05 -1.82838e-09 0)
(7.64243e-06 -1.09642e-07 0)
(7.76649e-06 -1.10065e-07 0)
(7.89742e-06 -1.10861e-07 0)
(8.03468e-06 -1.11369e-07 0)
(8.1777e-06 -1.11431e-07 0)
(8.32594e-06 -1.11003e-07 0)
(8.4789e-06 -1.09947e-07 0)
(8.63606e-06 -1.08255e-07 0)
(8.79693e-06 -1.0585e-07 0)
(8.96102e-06 -1.02684e-07 0)
(9.1279e-06 -9.86688e-08 0)
(9.2971e-06 -9.37331e-08 0)
(9.4682e-06 -8.77949e-08 0)
(9.64067e-06 -8.07591e-08 0)
(9.81407e-06 -7.24962e-08 0)
(9.9877e-06 -6.28573e-08 0)
(1.01613e-05 -5.16478e-08 0)
(1.03335e-05 -3.8667e-08 0)
(1.05049e-05 -2.35931e-08 0)
(1.06724e-05 -6.31103e-09 0)
(7.48679e-06 -1.94225e-07 0)
(7.62375e-06 -1.93303e-07 0)
(7.76625e-06 -1.93154e-07 0)
(7.91356e-06 -1.92861e-07 0)
(8.06555e-06 -1.92e-07 0)
(8.22175e-06 -1.90527e-07 0)
(8.38192e-06 -1.88145e-07 0)
(8.54557e-06 -1.84819e-07 0)
(8.71236e-06 -1.80388e-07 0)
(8.88188e-06 -1.74759e-07 0)
(9.05379e-06 -1.67791e-07 0)
(9.22769e-06 -1.5936e-07 0)
(9.40318e-06 -1.49314e-07 0)
(9.57976e-06 -1.3748e-07 0)
(9.75707e-06 -1.23635e-07 0)
(9.93447e-06 -1.07523e-07 0)
(1.01116e-05 -8.88189e-08 0)
(1.02874e-05 -6.71885e-08 0)
(1.04622e-05 -4.20954e-08 0)
(1.06332e-05 -1.33392e-08 0)
(7.25907e-06 -2.9493e-07 0)
(7.41455e-06 -2.90371e-07 0)
(7.57382e-06 -2.8717e-07 0)
(7.73576e-06 -2.8447e-07 0)
(7.90094e-06 -2.81336e-07 0)
(8.06885e-06 -2.77738e-07 0)
(8.23959e-06 -2.73149e-07 0)
(8.41278e-06 -2.67478e-07 0)
(8.58828e-06 -2.60454e-07 0)
(8.76579e-06 -2.51918e-07 0)
(8.9451e-06 -2.41648e-07 0)
(9.12587e-06 -2.29451e-07 0)
(9.30778e-06 -2.15094e-07 0)
(9.4904e-06 -1.98315e-07 0)
(9.67343e-06 -1.7879e-07 0)
(9.8563e-06 -1.56158e-07 0)
(1.00387e-05 -1.2995e-07 0)
(1.02197e-05 -9.97001e-08 0)
(1.03995e-05 -6.46447e-08 0)
(1.05755e-05 -2.44814e-08 0)
(6.96628e-06 -4.16966e-07 0)
(7.14502e-06 -4.05838e-07 0)
(7.32558e-06 -3.96866e-07 0)
(7.5061e-06 -3.89661e-07 0)
(7.68811e-06 -3.82493e-07 0)
(7.871e-06 -3.75353e-07 0)
(8.05536e-06 -3.67405e-07 0)
(8.24087e-06 -3.58454e-07 0)
(8.42763e-06 -3.48085e-07 0)
(8.61547e-06 -3.36036e-07 0)
(8.80431e-06 -3.21982e-07 0)
(8.99392e-06 -3.05638e-07 0)
(9.18409e-06 -2.86675e-07 0)
(9.37452e-06 -2.64735e-07 0)
(9.56498e-06 -2.39388e-07 0)
(9.75491e-06 -2.10159e-07 0)
(9.94417e-06 -1.76437e-07 0)
(1.01317e-05 -1.37606e-07 0)
(1.03181e-05 -9.26734e-08 0)
(1.05006e-05 -4.12082e-08 0)
(6.61659e-06 -5.64009e-07 0)
(6.82221e-06 -5.42945e-07 0)
(7.02776e-06 -5.25047e-07 0)
(7.2302e-06 -5.10819e-07 0)
(7.43222e-06 -4.97524e-07 0)
(7.63302e-06 -4.85114e-07 0)
(7.83366e-06 -4.72409e-07 0)
(8.03395e-06 -4.59038e-07 0)
(8.23422e-06 -4.44409e-07 0)
(8.43446e-06 -4.28114e-07 0)
(8.63477e-06 -4.09709e-07 0)
(8.83503e-06 -3.88786e-07 0)
(9.03514e-06 -3.64903e-07 0)
(9.23492e-06 -3.37591e-07 0)
(9.43424e-06 -3.06301e-07 0)
(9.63262e-06 -2.70432e-07 0)
(9.83003e-06 -2.29223e-07 0)
(1.00255e-05 -1.81898e-07 0)
(1.02197e-05 -1.27222e-07 0)
(1.041e-05 -6.46105e-08 0)
(6.21963e-06 -7.38491e-07 0)
(6.45455e-06 -7.04039e-07 0)
(6.68779e-06 -6.74046e-07 0)
(6.91475e-06 -6.50093e-07 0)
(7.13927e-06 -6.28471e-07 0)
(7.36036e-06 -6.08908e-07 0)
(7.57945e-06 -5.89917e-07 0)
(7.79653e-06 -5.70852e-07 0)
(8.01218e-06 -5.50926e-07 0)
(8.22659e-06 -5.29533e-07 0)
(8.43998e-06 -5.0609e-07 0)
(8.6524e-06 -4.8005e-07 0)
(8.86388e-06 -4.50843e-07 0)
(9.07436e-06 -4.17873e-07 0)
(9.28378e-06 -3.8046e-07 0)
(9.4918e-06 -3.37865e-07 0)
(9.6985e-06 -2.89169e-07 0)
(9.90304e-06 -2.33425e-07 0)
(1.01061e-05 -1.6915e-07 0)
(1.03053e-05 -9.56107e-08 0)
(5.7852e-06 -9.40843e-07 0)
(6.05067e-06 -8.89313e-07 0)
(6.3132e-06 -8.44097e-07 0)
(6.56661e-06 -8.0741e-07 0)
(6.81542e-06 -7.75087e-07 0)
(7.0587e-06 -7.46281e-07 0)
(7.29802e-06 -7.19326e-07 0)
(7.53363e-06 -6.93197e-07 0)
(7.76627e-06 -6.66897e-07 0)
(7.99632e-06 -6.39578e-07 0)
(8.22416e-06 -6.10476e-07 0)
(8.44997e-06 -5.78871e-07 0)
(8.67395e-06 -5.44041e-07 0)
(8.89617e-06 -5.05241e-07 0)
(9.11668e-06 -4.6164e-07 0)
(9.3353e-06 -4.12352e-07 0)
(9.55219e-06 -3.5628e-07 0)
(9.76667e-06 -2.92303e-07 0)
(9.97949e-06 -2.1869e-07 0)
(1.01886e-05 -1.34566e-07 0)
(5.32386e-06 -1.1709e-06 0)
(5.6205e-06 -1.09909e-06 0)
(5.91273e-06 -1.03656e-06 0)
(6.19371e-06 -9.84509e-07 0)
(6.4677e-06 -9.39416e-07 0)
(6.73425e-06 -8.99462e-07 0)
(6.99484e-06 -8.62907e-07 0)
(7.25004e-06 -8.28296e-07 0)
(7.50072e-06 -7.94403e-07 0)
(7.74744e-06 -7.60132e-07 0)
(7.99071e-06 -7.24523e-07 0)
(8.23088e-06 -6.86675e-07 0)
(8.46826e-06 -6.45699e-07 0)
(8.70309e-06 -6.00688e-07 0)
(8.93548e-06 -5.50651e-07 0)
(9.16544e-06 -4.94541e-07 0)
(9.39325e-06 -4.31082e-07 0)
(9.61838e-06 -3.5898e-07 0)
(9.84168e-06 -2.76286e-07 0)
(1.00614e-05 -1.82006e-07 0)
(4.84397e-06 -1.42493e-06 0)
(5.17236e-06 -1.32842e-06 0)
(5.49334e-06 -1.24627e-06 0)
(5.80267e-06 -1.17615e-06 0)
(6.10249e-06 -1.11594e-06 0)
(6.39326e-06 -1.06299e-06 0)
(6.67608e-06 -1.01536e-06 0)
(6.95181e-06 -9.71184e-07 0)
(7.22138e-06 -9.28908e-07 0)
(7.48554e-06 -8.87146e-07 0)
(7.74496e-06 -8.44682e-07 0)
(8.0001e-06 -8.00394e-07 0)
(8.25147e-06 -7.53197e-07 0)
(8.49939e-06 -7.02007e-07 0)
(8.74414e-06 -6.45658e-07 0)
(8.98587e-06 -5.82944e-07 0)
(9.22495e-06 -5.12414e-07 0)
(9.4611e-06 -4.32614e-07 0)
(9.69523e-06 -3.41392e-07 0)
(9.92608e-06 -2.37593e-07 0)
(4.48717e-06 -1.66667e-06 0)
(4.83847e-06 -1.54985e-06 0)
(5.17681e-06 -1.45324e-06 0)
(5.50311e-06 -1.36916e-06 0)
(5.81875e-06 -1.296e-06 0)
(6.12456e-06 -1.23116e-06 0)
(6.42159e-06 -1.1726e-06 0)
(6.71068e-06 -1.11843e-06 0)
(6.99273e-06 -1.067e-06 0)
(7.2685e-06 -1.01681e-06 0)
(7.53865e-06 -9.66509e-07 0)
(7.80374e-06 -9.14862e-07 0)
(8.06431e-06 -8.60659e-07 0)
(8.32077e-06 -8.02698e-07 0)
(8.57348e-06 -7.39712e-07 0)
(8.82274e-06 -6.70399e-07 0)
(9.06896e-06 -5.93235e-07 0)
(9.31209e-06 -5.06711e-07 0)
(9.55307e-06 -4.08632e-07 0)
(9.79107e-06 -2.97795e-07 0)
(4.28309e-06 -1.86106e-06 0)
(4.63643e-06 -1.73951e-06 0)
(4.978e-06 -1.6349e-06 0)
(5.3089e-06 -1.54231e-06 0)
(5.62965e-06 -1.46023e-06 0)
(5.94089e-06 -1.38646e-06 0)
(6.24339e-06 -1.31912e-06 0)
(6.53785e-06 -1.25645e-06 0)
(6.82503e-06 -1.19685e-06 0)
(7.10563e-06 -1.13886e-06 0)
(7.38023e-06 -1.08114e-06 0)
(7.64936e-06 -1.02242e-06 0)
(7.9136e-06 -9.61483e-07 0)
(8.17337e-06 -8.971e-07 0)
(8.42906e-06 -8.27996e-07 0)
(8.68106e-06 -7.52872e-07 0)
(8.92982e-06 -6.70233e-07 0)
(9.17545e-06 -5.78624e-07 0)
(9.41888e-06 -4.75945e-07 0)
(9.65964e-06 -3.61035e-07 0)
(4.10848e-06 -2.04815e-06 0)
(4.45815e-06 -1.92357e-06 0)
(4.79909e-06 -1.8136e-06 0)
(5.13075e-06 -1.71436e-06 0)
(5.45345e-06 -1.62482e-06 0)
(5.76734e-06 -1.5432e-06 0)
(6.07296e-06 -1.46787e-06 0)
(6.37076e-06 -1.39724e-06 0)
(6.66136e-06 -1.32986e-06 0)
(6.94532e-06 -1.26433e-06 0)
(7.22316e-06 -1.19935e-06 0)
(7.49535e-06 -1.13367e-06 0)
(7.76246e-06 -1.06609e-06 0)
(8.0249e-06 -9.95391e-07 0)
(8.28307e-06 -9.20318e-07 0)
(8.53743e-06 -8.39605e-07 0)
(8.78844e-06 -7.51818e-07 0)
(9.03634e-06 -6.5557e-07 0)
(9.28204e-06 -5.48878e-07 0)
(9.5254e-06 -4.30657e-07 0)
(3.95448e-06 -2.22808e-06 0)
(4.2989e-06 -2.10191e-06 0)
(4.63686e-06 -1.98797e-06 0)
(4.96689e-06 -1.88335e-06 0)
(5.28925e-06 -1.78743e-06 0)
(5.60369e-06 -1.69888e-06 0)
(5.91053e-06 -1.6163e-06 0)
(6.20999e-06 -1.53835e-06 0)
(6.50253e-06 -1.46369e-06 0)
(6.7886e-06 -1.39104e-06 0)
(7.06861e-06 -1.31915e-06 0)
(7.34295e-06 -1.24684e-06 0)
(7.61217e-06 -1.17292e-06 0)
(7.87666e-06 -1.09623e-06 0)
(8.13683e-06 -1.01555e-06 0)
(8.39314e-06 -9.29664e-07 0)
(8.64608e-06 -8.37218e-07 0)
(8.89599e-06 -7.36903e-07 0)
(9.14375e-06 -6.26874e-07 0)
(9.38948e-06 -5.06194e-07 0)
(3.81851e-06 -2.40048e-06 0)
(4.15639e-06 -2.2737e-06 0)
(4.48969e-06 -2.15707e-06 0)
(4.81633e-06 -2.04836e-06 0)
(5.13657e-06 -1.94727e-06 0)
(5.44985e-06 -1.85281e-06 0)
(5.75632e-06 -1.76388e-06 0)
(6.05598e-06 -1.67933e-06 0)
(6.34918e-06 -1.59801e-06 0)
(6.63621e-06 -1.51874e-06 0)
(6.91739e-06 -1.44038e-06 0)
(7.19306e-06 -1.3618e-06 0)
(7.46369e-06 -1.28191e-06 0)
(7.72965e-06 -1.19958e-06 0)
(7.99134e-06 -1.11365e-06 0)
(8.24923e-06 -1.02297e-06 0)
(8.50378e-06 -9.26297e-07 0)
(8.75544e-06 -8.22397e-07 0)
(9.00503e-06 -7.09621e-07 0)
(9.2529e-06 -5.87235e-07 0)
(3.69739e-06 -2.56536e-06 0)
(4.02807e-06 -2.43879e-06 0)
(4.35565e-06 -2.32041e-06 0)
(4.67771e-06 -2.2086e-06 0)
(4.99452e-06 -2.10332e-06 0)
(5.30533e-06 -2.00388e-06 0)
(5.61015e-06 -1.90943e-06 0)
(5.90882e-06 -1.81905e-06 0)
(6.20156e-06 -1.73171e-06 0)
(6.48858e-06 -1.64641e-06 0)
(6.77007e-06 -1.5621e-06 0)
(7.0463e-06 -1.47774e-06 0)
(7.31771e-06 -1.39232e-06 0)
(7.58461e-06 -1.30478e-06 0)
(7.84737e-06 -1.21403e-06 0)
(8.10646e-06 -1.11901e-06 0)
(8.36234e-06 -1.01856e-06 0)
(8.61549e-06 -9.11587e-07 0)
(8.86669e-06 -7.96665e-07 0)
(9.11645e-06 -6.73225e-07 0)
(3.58866e-06 -2.72293e-06 0)
(3.91175e-06 -2.59714e-06 0)
(4.23292e-06 -2.47779e-06 0)
(4.54958e-06 -2.36373e-06 0)
(4.86203e-06 -2.25517e-06 0)
(5.16939e-06 -2.15162e-06 0)
(5.47158e-06 -2.05248e-06 0)
(5.76831e-06 -1.95701e-06 0)
(6.05971e-06 -1.86435e-06 0)
(6.34588e-06 -1.77363e-06 0)
(6.62695e-06 -1.68393e-06 0)
(6.90311e-06 -1.5943e-06 0)
(7.17474e-06 -1.50381e-06 0)
(7.44209e-06 -1.4115e-06 0)
(7.70553e-06 -1.31637e-06 0)
(7.96549e-06 -1.21744e-06 0)
(8.2224e-06 -1.11366e-06 0)
(8.4768e-06 -1.00408e-06 0)
(8.72938e-06 -8.87542e-07 0)
(8.9808e-06 -7.63517e-07 0)
(3.49003e-06 -2.87349e-06 0)
(3.80542e-06 -2.74889e-06 0)
(4.11981e-06 -2.62914e-06 0)
(4.43056e-06 -2.51354e-06 0)
(4.738e-06 -2.40244e-06 0)
(5.0412e-06 -2.29554e-06 0)
(5.34002e-06 -2.19246e-06 0)
(5.63408e-06 -2.09259e-06 0)
(5.92342e-06 -1.99528e-06 0)
(6.20809e-06 -1.89977e-06 0)
(6.48813e-06 -1.80525e-06 0)
(6.76368e-06 -1.7109e-06 0)
(7.03506e-06 -1.61586e-06 0)
(7.30245e-06 -1.51926e-06 0)
(7.56622e-06 -1.4202e-06 0)
(7.82674e-06 -1.3178e-06 0)
(8.08443e-06 -1.21114e-06 0)
(8.33983e-06 -1.09943e-06 0)
(8.59357e-06 -9.81707e-07 0)
(8.8464e-06 -8.57464e-07 0)
(3.39951e-06 -3.01748e-06 0)
(3.70726e-06 -2.89431e-06 0)
(4.01467e-06 -2.77461e-06 0)
(4.31923e-06 -2.65802e-06 0)
(4.62126e-06 -2.54499e-06 0)
(4.91983e-06 -2.4354e-06 0)
(5.21475e-06 -2.32903e-06 0)
(5.50559e-06 -2.22545e-06 0)
(5.79235e-06 -2.12412e-06 0)
(6.07501e-06 -2.02444e-06 0)
(6.35355e-06 -1.9257e-06 0)
(6.62805e-06 -1.82718e-06 0)
(6.89878e-06 -1.72812e-06 0)
(7.16588e-06 -1.62772e-06 0)
(7.42966e-06 -1.52519e-06 0)
(7.69048e-06 -1.41977e-06 0)
(7.94872e-06 -1.31068e-06 0)
(8.2049e-06 -1.19726e-06 0)
(8.45961e-06 -1.07867e-06 0)
(8.71362e-06 -9.54571e-07 0)
(3.31532e-06 -3.15537e-06 0)
(3.61558e-06 -3.03377e-06 0)
(3.91601e-06 -2.91441e-06 0)
(4.21426e-06 -2.79724e-06 0)
(4.51066e-06 -2.68279e-06 0)
(4.8043e-06 -2.57108e-06 0)
(5.09498e-06 -2.46202e-06 0)
(5.38224e-06 -2.35534e-06 0)
(5.66604e-06 -2.25061e-06 0)
(5.94631e-06 -2.14736e-06 0)
(6.22298e-06 -2.04499e-06 0)
(6.4961e-06 -1.94285e-06 0)
(6.76587e-06 -1.84028e-06 0)
(7.03239e-06 -1.73657e-06 0)
(7.29593e-06 -1.63104e-06 0)
(7.55683e-06 -1.52304e-06 0)
(7.81541e-06 -1.41192e-06 0)
(8.0722e-06 -1.29712e-06 0)
(8.32768e-06 -1.17794e-06 0)
(8.58264e-06 -1.05431e-06 0)
(3.23589e-06 -3.28766e-06 0)
(3.52887e-06 -3.16766e-06 0)
(3.82241e-06 -3.04884e-06 0)
(4.11438e-06 -2.9314e-06 0)
(4.40506e-06 -2.81595e-06 0)
(4.69364e-06 -2.70261e-06 0)
(4.97988e-06 -2.59142e-06 0)
(5.26332e-06 -2.48221e-06 0)
(5.54391e-06 -2.37465e-06 0)
(5.82154e-06 -2.26839e-06 0)
(6.09609e-06 -2.16291e-06 0)
(6.36758e-06 -2.05767e-06 0)
(6.63616e-06 -1.95208e-06 0)
(6.90189e-06 -1.84553e-06 0)
(7.165e-06 -1.73745e-06 0)
(7.4258e-06 -1.62728e-06 0)
(7.68456e-06 -1.51448e-06 0)
(7.94177e-06 -1.39857e-06 0)
(8.19785e-06 -1.2791e-06 0)
(8.45358e-06 -1.15606e-06 0)
(3.15978e-06 -3.41481e-06 0)
(3.44574e-06 -3.29635e-06 0)
(3.73256e-06 -3.1782e-06 0)
(4.01834e-06 -3.06075e-06 0)
(4.30335e-06 -2.94464e-06 0)
(4.58684e-06 -2.83009e-06 0)
(4.86857e-06 -2.71723e-06 0)
(5.14811e-06 -2.60598e-06 0)
(5.42536e-06 -2.49612e-06 0)
(5.7002e-06 -2.38736e-06 0)
(5.97247e-06 -2.27929e-06 0)
(6.24216e-06 -2.17143e-06 0)
(6.50939e-06 -2.06331e-06 0)
(6.77417e-06 -1.95438e-06 0)
(7.03671e-06 -1.84418e-06 0)
(7.29727e-06 -1.73222e-06 0)
(7.55608e-06 -1.61805e-06 0)
(7.81357e-06 -1.50131e-06 0)
(8.07011e-06 -1.3818e-06 0)
(8.32641e-06 -1.2594e-06 0)
(3.08566e-06 -3.53722e-06 0)
(3.36488e-06 -3.42022e-06 0)
(3.64522e-06 -3.30283e-06 0)
(3.92499e-06 -3.18555e-06 0)
(4.20444e-06 -3.06907e-06 0)
(4.48293e-06 -2.95365e-06 0)
(4.7602e-06 -2.83953e-06 0)
(5.03583e-06 -2.72668e-06 0)
(5.30971e-06 -2.61501e-06 0)
(5.58171e-06 -2.50425e-06 0)
(5.85163e-06 -2.39407e-06 0)
(6.11944e-06 -2.28409e-06 0)
(6.38522e-06 -2.17388e-06 0)
(6.64897e-06 -2.06302e-06 0)
(6.91085e-06 -1.95108e-06 0)
(7.17107e-06 -1.83766e-06 0)
(7.42981e-06 -1.72242e-06 0)
(7.68747e-06 -1.60512e-06 0)
(7.94434e-06 -1.48567e-06 0)
(8.20108e-06 -1.36399e-06 0)
(3.0123e-06 -3.65526e-06 0)
(3.28507e-06 -3.53968e-06 0)
(3.55918e-06 -3.42306e-06 0)
(3.83319e-06 -3.30609e-06 0)
(4.10731e-06 -3.18947e-06 0)
(4.38096e-06 -3.0735e-06 0)
(4.6539e-06 -2.9585e-06 0)
(4.92571e-06 -2.84448e-06 0)
(5.19629e-06 -2.73142e-06 0)
(5.46547e-06 -2.6191e-06 0)
(5.73304e-06 -2.50725e-06 0)
(5.99897e-06 -2.39557e-06 0)
(6.26329e-06 -2.2837e-06 0)
(6.52598e-06 -2.17128e-06 0)
(6.78714e-06 -2.05795e-06 0)
(7.04695e-06 -1.94338e-06 0)
(7.30555e-06 -1.82734e-06 0)
(7.56329e-06 -1.7097e-06 0)
(7.8204e-06 -1.59032e-06 0)
(8.07743e-06 -1.46939e-06 0)
(2.93847e-06 -3.76939e-06 0)
(3.2051e-06 -3.65508e-06 0)
(3.47331e-06 -3.53927e-06 0)
(3.74185e-06 -3.42273e-06 0)
(4.0109e-06 -3.30618e-06 0)
(4.27998e-06 -3.18995e-06 0)
(4.5488e-06 -3.07439e-06 0)
(4.81698e-06 -2.95955e-06 0)
(5.08439e-06 -2.84544e-06 0)
(5.35087e-06 -2.73195e-06 0)
(5.6162e-06 -2.61885e-06 0)
(5.8803e-06 -2.50589e-06 0)
(6.1432e-06 -2.39276e-06 0)
(6.40482e-06 -2.27914e-06 0)
(6.66525e-06 -2.16474e-06 0)
(6.92462e-06 -2.04931e-06 0)
(7.18305e-06 -1.9327e-06 0)
(7.44082e-06 -1.81482e-06 0)
(7.69807e-06 -1.69561e-06 0)
(7.95528e-06 -1.57531e-06 0)
(2.86304e-06 -3.87987e-06 0)
(3.12385e-06 -3.76684e-06 0)
(3.38643e-06 -3.65175e-06 0)
(3.64989e-06 -3.53574e-06 0)
(3.91424e-06 -3.41945e-06 0)
(4.17907e-06 -3.30322e-06 0)
(4.44408e-06 -3.18737e-06 0)
(4.70889e-06 -3.07206e-06 0)
(4.97337e-06 -2.95728e-06 0)
(5.23735e-06 -2.84297e-06 0)
(5.50059e-06 -2.72899e-06 0)
(5.76299e-06 -2.6151e-06 0)
(6.02454e-06 -2.50104e-06 0)
(6.28515e-06 -2.38654e-06 0)
(6.54487e-06 -2.27136e-06 0)
(6.80382e-06 -2.15533e-06 0)
(7.06206e-06 -2.03834e-06 0)
(7.31979e-06 -1.92026e-06 0)
(7.5771e-06 -1.80129e-06 0)
(7.83438e-06 -1.68154e-06 0)
(2.78487e-06 -3.98706e-06 0)
(3.03997e-06 -3.87496e-06 0)
(3.2972e-06 -3.76087e-06 0)
(3.55619e-06 -3.64564e-06 0)
(3.81626e-06 -3.52975e-06 0)
(4.0773e-06 -3.4137e-06 0)
(4.33889e-06 -3.29783e-06 0)
(4.6007e-06 -3.18229e-06 0)
(4.86257e-06 -3.06715e-06 0)
(5.12435e-06 -2.95236e-06 0)
(5.38574e-06 -2.83781e-06 0)
(5.64661e-06 -2.7233e-06 0)
(5.90693e-06 -2.60861e-06 0)
(6.16661e-06 -2.49351e-06 0)
(6.42571e-06 -2.37782e-06 0)
(6.68427e-06 -2.26139e-06 0)
(6.94227e-06 -2.14411e-06 0)
(7.19984e-06 -2.02594e-06 0)
(7.45718e-06 -1.90713e-06 0)
(7.71461e-06 -1.78785e-06 0)
(2.70205e-06 -4.09086e-06 0)
(2.95231e-06 -3.97987e-06 0)
(3.20515e-06 -3.86701e-06 0)
(3.4598e-06 -3.75258e-06 0)
(3.71614e-06 -3.6373e-06 0)
(3.97382e-06 -3.52166e-06 0)
(4.23248e-06 -3.40599e-06 0)
(4.49176e-06 -3.2905e-06 0)
(4.75149e-06 -3.17528e-06 0)
(5.01141e-06 -3.06031e-06 0)
(5.27121e-06 -2.94547e-06 0)
(5.53075e-06 -2.83062e-06 0)
(5.79006e-06 -2.71555e-06 0)
(6.04901e-06 -2.6001e-06 0)
(6.30751e-06 -2.48409e-06 0)
(6.56556e-06 -2.36741e-06 0)
(6.82329e-06 -2.24993e-06 0)
(7.08085e-06 -2.13179e-06 0)
(7.33816e-06 -2.01308e-06 0)
(7.59541e-06 -1.89412e-06 0)
(2.61353e-06 -4.1925e-06 0)
(2.85934e-06 -4.08281e-06 0)
(3.10814e-06 -3.97089e-06 0)
(3.35926e-06 -3.85735e-06 0)
(3.61252e-06 -3.74282e-06 0)
(3.86757e-06 -3.62775e-06 0)
(4.12403e-06 -3.51249e-06 0)
(4.38145e-06 -3.39726e-06 0)
(4.63952e-06 -3.28216e-06 0)
(4.89799e-06 -3.16719e-06 0)
(5.15661e-06 -3.05227e-06 0)
(5.41526e-06 -2.93727e-06 0)
(5.67377e-06 -2.82203e-06 0)
(5.93193e-06 -2.7064e-06 0)
(6.18985e-06 -2.59022e-06 0)
(6.44759e-06 -2.47337e-06 0)
(6.70504e-06 -2.3558e-06 0)
(6.96236e-06 -2.23763e-06 0)
(7.2196e-06 -2.11901e-06 0)
(7.47682e-06 -2.00024e-06 0)
(2.51811e-06 -4.29096e-06 0)
(2.75998e-06 -4.1828e-06 0)
(3.00541e-06 -4.07228e-06 0)
(3.25376e-06 -3.95992e-06 0)
(3.50481e-06 -3.84639e-06 0)
(3.75813e-06 -3.73215e-06 0)
(4.01313e-06 -3.61753e-06 0)
(4.26925e-06 -3.50277e-06 0)
(4.5263e-06 -3.38799e-06 0)
(4.78402e-06 -3.27321e-06 0)
(5.04195e-06 -3.15837e-06 0)
(5.29985e-06 -3.04338e-06 0)
(5.55771e-06 -2.9281e-06 0)
(5.81537e-06 -2.8124e-06 0)
(6.07277e-06 -2.69613e-06 0)
(6.33004e-06 -2.57921e-06 0)
(6.58715e-06 -2.46169e-06 0)
(6.84421e-06 -2.34344e-06 0)
(7.1013e-06 -2.22485e-06 0)
(7.35834e-06 -2.10607e-06 0)
(1.8594e-07 -3.72775e-06 0)
(5.60314e-07 -3.67291e-06 0)
(9.42259e-07 -3.56524e-06 0)
(1.336e-06 -3.40926e-06 0)
(1.74505e-06 -3.21075e-06 0)
(2.17159e-06 -2.97731e-06 0)
(2.61648e-06 -2.71734e-06 0)
(3.07905e-06 -2.43981e-06 0)
(3.55745e-06 -2.15382e-06 0)
(4.04874e-06 -1.86672e-06 0)
(1.8107e-07 -3.7868e-06 0)
(5.45303e-07 -3.73676e-06 0)
(9.15824e-07 -3.63837e-06 0)
(1.29615e-06 -3.49557e-06 0)
(1.68923e-06 -3.31322e-06 0)
(2.09694e-06 -3.09778e-06 0)
(2.51995e-06 -2.85643e-06 0)
(2.95763e-06 -2.59691e-06 0)
(3.40744e-06 -2.32759e-06 0)
(3.86748e-06 -2.054e-06 0)
(1.76778e-07 -3.84755e-06 0)
(5.32045e-07 -3.80187e-06 0)
(8.92379e-07 -3.71192e-06 0)
(1.2606e-06 -3.58119e-06 0)
(1.63911e-06 -3.41385e-06 0)
(2.02946e-06 -3.21546e-06 0)
(2.43229e-06 -2.99221e-06 0)
(2.84747e-06 -2.75051e-06 0)
(3.27304e-06 -2.49773e-06 0)
(3.70806e-06 -2.23684e-06 0)
(1.72909e-07 -3.91008e-06 0)
(5.20146e-07 -3.86812e-06 0)
(8.71531e-07 -3.78536e-06 0)
(1.22935e-06 -3.66494e-06 0)
(1.59555e-06 -3.51049e-06 0)
(1.97137e-06 -3.32681e-06 0)
(2.35721e-06 -3.11944e-06 0)
(2.75296e-06 -2.89395e-06 0)
(3.15703e-06 -2.65719e-06 0)
(3.56852e-06 -2.41116e-06 0)
(1.69301e-07 -3.97431e-06 0)
(5.0905e-07 -3.93567e-06 0)
(8.52187e-07 -3.85933e-06 0)
(1.20054e-06 -3.74813e-06 0)
(1.55568e-06 -3.60533e-06 0)
(1.91861e-06 -3.43508e-06 0)
(2.2897e-06 -3.24235e-06 0)
(2.66881e-06 -3.03185e-06 0)
(3.05491e-06 -2.80975e-06 0)
(3.44628e-06 -2.57782e-06 0)
(1.65913e-07 -4.04012e-06 0)
(4.9866e-07 -4.00434e-06 0)
(8.34202e-07 -3.93359e-06 0)
(1.174e-06 -3.83041e-06 0)
(1.51933e-06 -3.69779e-06 0)
(1.87096e-06 -3.53939e-06 0)
(2.22919e-06 -3.35971e-06 0)
(2.59373e-06 -3.16296e-06 0)
(2.96415e-06 -2.95464e-06 0)
(3.33805e-06 -2.73665e-06 0)
(1.62632e-07 -4.10741e-06 0)
(4.88663e-07 -4.07415e-06 0)
(8.17002e-07 -4.00839e-06 0)
(1.14884e-06 -3.91236e-06 0)
(1.48522e-06 -3.78883e-06 0)
(1.82673e-06 -3.64109e-06 0)
(2.17367e-06 -3.47318e-06 0)
(2.52557e-06 -3.28889e-06 0)
(2.88244e-06 -3.09309e-06 0)
(3.24136e-06 -2.88808e-06 0)
(1.59434e-07 -4.17599e-06 0)
(4.78958e-07 -4.14493e-06 0)
(8.00404e-07 -4.08359e-06 0)
(1.12476e-06 -3.99385e-06 0)
(1.45291e-06 -3.87836e-06 0)
(1.78526e-06 -3.74012e-06 0)
(2.12212e-06 -3.58278e-06 0)
(2.46286e-06 -3.40981e-06 0)
(2.80783e-06 -3.22554e-06 0)
(3.15386e-06 -3.03256e-06 0)
(1.56281e-07 -4.24573e-06 0)
(4.69382e-07 -4.21662e-06 0)
(7.84109e-07 -4.1592e-06 0)
(1.1013e-06 -4.07509e-06 0)
(1.42174e-06 -3.9668e-06 0)
(1.74568e-06 -3.83709e-06 0)
(2.07343e-06 -3.68923e-06 0)
(2.40427e-06 -3.52648e-06 0)
(2.73874e-06 -3.35269e-06 0)
(3.07361e-06 -3.17069e-06 0)
(1.53131e-07 -4.31644e-06 0)
(4.59824e-07 -4.28904e-06 0)
(7.67931e-07 -4.23511e-06 0)
(1.07819e-06 -4.15606e-06 0)
(1.39127e-06 -4.0542e-06 0)
(1.70737e-06 -3.93212e-06 0)
(2.02677e-06 -3.7928e-06 0)
(2.34869e-06 -3.63932e-06 0)
(2.67376e-06 -3.47507e-06 0)
(2.99887e-06 -3.30306e-06 0)
(1.49931e-07 -4.38794e-06 0)
(4.50161e-07 -4.36208e-06 0)
(7.51665e-07 -4.31127e-06 0)
(1.05511e-06 -4.23677e-06 0)
(1.36108e-06 -4.14072e-06 0)
(1.66975e-06 -4.02549e-06 0)
(1.98136e-06 -3.89387e-06 0)
(2.29512e-06 -3.74877e-06 0)
(2.61168e-06 -3.59318e-06 0)
(2.92815e-06 -3.43018e-06 0)
(1.46654e-07 -4.45999e-06 0)
(4.40313e-07 -4.43553e-06 0)
(7.35155e-07 -4.38754e-06 0)
(1.0318e-06 -4.31715e-06 0)
(1.33079e-06 -4.22633e-06 0)
(1.63228e-06 -4.11729e-06 0)
(1.9365e-06 -3.99263e-06 0)
(2.24267e-06 -3.85511e-06 0)
(2.55141e-06 -3.70737e-06 0)
(2.86009e-06 -3.55251e-06 0)
(1.43279e-07 -4.53239e-06 0)
(4.30186e-07 -4.50922e-06 0)
(7.18224e-07 -4.46378e-06 0)
(1.00799e-06 -4.39713e-06 0)
(1.30002e-06 -4.31104e-06 0)
(1.59445e-06 -4.20762e-06 0)
(1.89152e-06 -4.08929e-06 0)
(2.1905e-06 -3.95862e-06 0)
(2.49192e-06 -3.818e-06 0)
(2.79348e-06 -3.67053e-06 0)
(1.39776e-07 -4.60487e-06 0)
(4.19671e-07 -4.58289e-06 0)
(7.00679e-07 -4.53978e-06 0)
(9.83395e-07 -4.47653e-06 0)
(1.26837e-06 -4.39478e-06 0)
(1.55576e-06 -4.2965e-06 0)
(1.84578e-06 -4.18393e-06 0)
(2.1378e-06 -4.05947e-06 0)
(2.43225e-06 -3.92539e-06 0)
(2.72716e-06 -3.78459e-06 0)
(1.36098e-07 -4.67723e-06 0)
(4.08632e-07 -4.65637e-06 0)
(6.82293e-07 -4.6154e-06 0)
(9.57701e-07 -4.55529e-06 0)
(1.23543e-06 -4.47753e-06 0)
(1.51565e-06 -4.38397e-06 0)
(1.7986e-06 -4.27666e-06 0)
(2.08375e-06 -4.15789e-06 0)
(2.37144e-06 -4.0298e-06 0)
(2.66e-06 -3.89503e-06 0)
(1.32191e-07 -4.74907e-06 0)
(3.96923e-07 -4.72926e-06 0)
(6.62831e-07 -4.69028e-06 0)
(9.30568e-07 -4.63309e-06 0)
(1.20073e-06 -4.55902e-06 0)
(1.47356e-06 -4.46981e-06 0)
(1.7493e-06 -4.36736e-06 0)
(2.02753e-06 -4.25388e-06 0)
(2.30853e-06 -4.13128e-06 0)
(2.59092e-06 -4.00207e-06 0)
(1.28e-07 -4.82028e-06 0)
(3.84378e-07 -4.80148e-06 0)
(6.42007e-07 -4.76436e-06 0)
(9.01587e-07 -4.70989e-06 0)
(1.16375e-06 -4.63929e-06 0)
(1.42881e-06 -4.55416e-06 0)
(1.69706e-06 -4.45627e-06 0)
(1.96818e-06 -4.34774e-06 0)
(2.24245e-06 -4.23019e-06 0)
(2.51868e-06 -4.10614e-06 0)
(1.2347e-07 -4.89003e-06 0)
(3.70831e-07 -4.87218e-06 0)
(6.19536e-07 -4.83684e-06 0)
(8.70342e-07 -4.78495e-06 0)
(1.12394e-06 -4.71763e-06 0)
(1.38074e-06 -4.63639e-06 0)
(1.64106e-06 -4.54286e-06 0)
(1.90476e-06 -4.43896e-06 0)
(2.17202e-06 -4.32625e-06 0)
(2.44199e-06 -4.20702e-06 0)
(1.18515e-07 -4.9587e-06 0)
(3.56015e-07 -4.94177e-06 0)
(5.94967e-07 -4.90818e-06 0)
(8.362e-07 -4.85879e-06 0)
(1.08048e-06 -4.79465e-06 0)
(1.32833e-06 -4.71717e-06 0)
(1.58015e-06 -4.62784e-06 0)
(1.83591e-06 -4.52837e-06 0)
(2.0958e-06 -4.42031e-06 0)
(2.35926e-06 -4.30567e-06 0)
(1.13096e-07 -5.02407e-06 0)
(3.39809e-07 -5.00799e-06 0)
(5.68083e-07 -4.97615e-06 0)
(7.98844e-07 -4.92925e-06 0)
(1.03297e-06 -4.86829e-06 0)
(1.27108e-06 -4.79457e-06 0)
(1.51366e-06 -4.70942e-06 0)
(1.76082e-06 -4.61443e-06 0)
(2.01285e-06 -4.511e-06 0)
(2.26944e-06 -4.401e-06 0)
)


// ************************************************************************* //
