/*--------------------------------*- C++ -*----------------------------------*\
| =========                 |                                                 |
| \\      /  F ield         | foam-extend: Open Source CFD                    |
|  \\    /   O peration     | Version:     4.1                                |
|   \\  /    A nd           | Web:         http://www.foam-extend.org         |
|    \\/     M anipulation  |                                                 |
\*---------------------------------------------------------------------------*/
FoamFile
{
    version     2.0;
    format      ascii;
    class       vectorField;
    location    "9";
    object      solidsCellD_iteration2;
}
// * * * * * * * * * * * * * * * * * * * * * * * * * * * * * * * * * * * * * //


1000
(
(4.55726e-06 -1.91075e-06 0)
(4.30486e-06 -1.77882e-06 0)
(4.14411e-06 -1.69523e-06 0)
(4.05273e-06 -1.6563e-06 0)
(4.00905e-06 -1.64284e-06 0)
(4.00024e-06 -1.64914e-06 0)
(4.01706e-06 -1.66829e-06 0)
(4.05321e-06 -1.69711e-06 0)
(4.10331e-06 -1.73267e-06 0)
(4.16389e-06 -1.77368e-06 0)
(4.12139e-06 -2.08705e-06 0)
(3.85236e-06 -1.99524e-06 0)
(3.681e-06 -1.93715e-06 0)
(3.58172e-06 -1.9156e-06 0)
(3.53187e-06 -1.91365e-06 0)
(3.51731e-06 -1.92818e-06 0)
(3.52845e-06 -1.9533e-06 0)
(3.55853e-06 -1.98651e-06 0)
(3.60214e-06 -2.02572e-06 0)
(3.65543e-06 -2.06826e-06 0)
(3.66819e-06 -2.25415e-06 0)
(3.39322e-06 -2.20724e-06 0)
(3.21815e-06 -2.17755e-06 0)
(3.11526e-06 -2.17515e-06 0)
(3.06183e-06 -2.18574e-06 0)
(3.04316e-06 -2.20892e-06 0)
(3.04962e-06 -2.24006e-06 0)
(3.07441e-06 -2.27746e-06 0)
(3.11219e-06 -2.31987e-06 0)
(3.1593e-06 -2.36434e-06 0)
(3.20122e-06 -2.40909e-06 0)
(2.93176e-06 -2.4093e-06 0)
(2.76026e-06 -2.4094e-06 0)
(2.65843e-06 -2.42689e-06 0)
(2.60426e-06 -2.45047e-06 0)
(2.58329e-06 -2.48251e-06 0)
(2.58621e-06 -2.51963e-06 0)
(2.60635e-06 -2.56121e-06 0)
(2.63885e-06 -2.60671e-06 0)
(2.67985e-06 -2.65337e-06 0)
(2.72352e-06 -2.54885e-06 0)
(2.47116e-06 -2.59574e-06 0)
(2.31054e-06 -2.6254e-06 0)
(2.21448e-06 -2.66256e-06 0)
(2.16256e-06 -2.69883e-06 0)
(2.1411e-06 -2.73949e-06 0)
(2.14153e-06 -2.78241e-06 0)
(2.15757e-06 -2.82806e-06 0)
(2.18498e-06 -2.87647e-06 0)
(2.21991e-06 -2.92551e-06 0)
(2.23768e-06 -2.67052e-06 0)
(2.01348e-06 -2.76109e-06 0)
(1.87083e-06 -2.81837e-06 0)
(1.78508e-06 -2.87389e-06 0)
(1.73821e-06 -2.92204e-06 0)
(1.71794e-06 -2.97074e-06 0)
(1.71686e-06 -3.01899e-06 0)
(1.72931e-06 -3.06842e-06 0)
(1.75174e-06 -3.11952e-06 0)
(1.78048e-06 -3.17091e-06 0)
(1.74586e-06 -2.77138e-06 0)
(1.5599e-06 -2.90023e-06 0)
(1.44159e-06 -2.98174e-06 0)
(1.3702e-06 -3.05332e-06 0)
(1.33085e-06 -3.11184e-06 0)
(1.31333e-06 -3.16756e-06 0)
(1.31157e-06 -3.22046e-06 0)
(1.32083e-06 -3.27324e-06 0)
(1.3383e-06 -3.3267e-06 0)
(1.36075e-06 -3.38027e-06 0)
(1.24985e-06 -2.84915e-06 0)
(1.11057e-06 -3.00874e-06 0)
(1.02197e-06 -3.10974e-06 0)
(9.68381e-07 -3.19418e-06 0)
(9.38653e-07 -3.26102e-06 0)
(9.25152e-07 -3.32237e-06 0)
(9.23374e-07 -3.37902e-06 0)
(9.29762e-07 -3.43451e-06 0)
(9.42252e-07 -3.48984e-06 0)
(9.58322e-07 -3.54521e-06 0)
(7.51109e-07 -2.90199e-06 0)
(6.64889e-07 -3.08309e-06 0)
(6.10017e-07 -3.19774e-06 0)
(5.76733e-07 -3.29122e-06 0)
(5.58191e-07 -3.36387e-06 0)
(5.49689e-07 -3.42914e-06 0)
(5.48422e-07 -3.48841e-06 0)
(5.52145e-07 -3.54584e-06 0)
(5.59616e-07 -3.60253e-06 0)
(5.69258e-07 -3.65925e-06 0)
(2.50863e-07 -2.92861e-06 0)
(2.21612e-07 -3.12077e-06 0)
(2.02983e-07 -3.24248e-06 0)
(1.9168e-07 -3.34063e-06 0)
(1.85363e-07 -3.41628e-06 0)
(1.82419e-07 -3.48358e-06 0)
(1.81925e-07 -3.54419e-06 0)
(1.83133e-07 -3.60258e-06 0)
(1.85613e-07 -3.65993e-06 0)
(1.88812e-07 -3.71732e-06 0)
(7.10436e-06 -8.72556e-08 0)
(7.16888e-06 -6.2992e-08 0)
(7.20881e-06 -4.7604e-08 0)
(7.25225e-06 -3.85516e-08 0)
(7.29958e-06 -3.35074e-08 0)
(7.35747e-06 -3.11665e-08 0)
(7.42562e-06 -3.06308e-08 0)
(7.50482e-06 -3.12772e-08 0)
(7.59477e-06 -3.27788e-08 0)
(7.69431e-06 -3.4576e-08 0)
(7.05192e-06 -2.61729e-07 0)
(7.10588e-06 -1.90373e-07 0)
(7.1392e-06 -1.4521e-07 0)
(7.17823e-06 -1.18737e-07 0)
(7.22267e-06 -1.04059e-07 0)
(7.27848e-06 -9.72921e-08 0)
(7.34515e-06 -9.5846e-08 0)
(7.42315e-06 -9.79025e-08 0)
(7.5121e-06 -1.02438e-07 0)
(7.61052e-06 -1.07845e-07 0)
(6.94712e-06 -4.37701e-07 0)
(6.981e-06 -3.23147e-07 0)
(7.00162e-06 -2.50699e-07 0)
(7.03226e-06 -2.08334e-07 0)
(7.07115e-06 -1.84968e-07 0)
(7.12306e-06 -1.74376e-07 0)
(7.18688e-06 -1.72332e-07 0)
(7.26254e-06 -1.75937e-07 0)
(7.34957e-06 -1.83513e-07 0)
(7.4459e-06 -1.92565e-07 0)
(6.79183e-06 -6.15875e-07 0)
(6.7972e-06 -4.6436e-07 0)
(6.79971e-06 -3.68553e-07 0)
(6.8184e-06 -3.12776e-07 0)
(6.84938e-06 -2.82203e-07 0)
(6.89564e-06 -2.68663e-07 0)
(6.95538e-06 -2.66496e-07 0)
(7.02774e-06 -2.71902e-07 0)
(7.11204e-06 -2.8256e-07 0)
(7.20544e-06 -2.95304e-07 0)
(6.58846e-06 -7.96744e-07 0)
(6.55857e-06 -6.16541e-07 0)
(6.5387e-06 -5.02583e-07 0)
(6.54253e-06 -4.36683e-07 0)
(6.56371e-06 -4.00896e-07 0)
(6.60302e-06 -3.85602e-07 0)
(6.65768e-06 -3.83963e-07 0)
(6.72595e-06 -3.91491e-07 0)
(6.80684e-06 -4.05273e-07 0)
(6.89667e-06 -4.21747e-07 0)
(6.34009e-06 -9.80371e-07 0)
(6.27025e-06 -7.81308e-07 0)
(6.22505e-06 -6.55377e-07 0)
(6.21205e-06 -5.83253e-07 0)
(6.22209e-06 -5.44632e-07 0)
(6.25349e-06 -5.29012e-07 0)
(6.30233e-06 -5.28654e-07 0)
(6.36588e-06 -5.38663e-07 0)
(6.44283e-06 -5.55611e-07 0)
(6.52873e-06 -5.75848e-07 0)
(6.05027e-06 -1.16641e-06 0)
(5.93824e-06 -9.59328e-07 0)
(5.86634e-06 -8.28262e-07 0)
(5.83552e-06 -7.54232e-07 0)
(5.83369e-06 -7.15415e-07 0)
(5.85661e-06 -7.01043e-07 0)
(5.89917e-06 -7.02828e-07 0)
(5.95763e-06 -7.15746e-07 0)
(6.03026e-06 -7.35996e-07 0)
(6.11211e-06 -7.60031e-07 0)
(5.7229e-06 -1.354e-06 0)
(5.56901e-06 -1.15017e-06 0)
(5.4706e-06 -1.02108e-06 0)
(5.42201e-06 -9.49612e-07 0)
(5.40824e-06 -9.13334e-07 0)
(5.42253e-06 -9.01852e-07 0)
(5.45859e-06 -9.06668e-07 0)
(5.51179e-06 -9.22948e-07 0)
(5.5798e-06 -9.46613e-07 0)
(5.65763e-06 -9.7456e-07 0)
(5.36214e-06 -1.54182e-06 0)
(5.16929e-06 -1.35227e-06 0)
(5.04628e-06 -1.23217e-06 0)
(4.98105e-06 -1.16767e-06 0)
(4.95596e-06 -1.13662e-06 0)
(4.96189e-06 -1.12966e-06 0)
(4.99145e-06 -1.13847e-06 0)
(5.03932e-06 -1.15854e-06 0)
(5.10235e-06 -1.186e-06 0)
(5.17628e-06 -1.21785e-06 0)
(4.97222e-06 -1.72809e-06 0)
(4.74578e-06 -1.563e-06 0)
(4.60151e-06 -1.45837e-06 0)
(4.5217e-06 -1.40493e-06 0)
(4.48644e-06 -1.38162e-06 0)
(4.48451e-06 -1.38069e-06 0)
(4.50761e-06 -1.39434e-06 0)
(4.54991e-06 -1.41877e-06 0)
(4.60759e-06 -1.45021e-06 0)
(4.67733e-06 -1.48729e-06 0)
(7.80356e-06 -3.63859e-08 0)
(7.92263e-06 -3.67625e-08 0)
(8.04928e-06 -3.72373e-08 0)
(8.18306e-06 -3.75832e-08 0)
(8.32312e-06 -3.7754e-08 0)
(8.46895e-06 -3.77245e-08 0)
(8.61996e-06 -3.74553e-08 0)
(8.77554e-06 -3.69667e-08 0)
(8.93514e-06 -3.62478e-08 0)
(9.09825e-06 -3.52684e-08 0)
(9.26441e-06 -3.39846e-08 0)
(9.43312e-06 -3.23748e-08 0)
(9.6039e-06 -3.04228e-08 0)
(9.77622e-06 -2.81028e-08 0)
(9.94965e-06 -2.53706e-08 0)
(1.01235e-05 -2.21743e-08 0)
(1.02974e-05 -1.84482e-08 0)
(1.04702e-05 -1.41243e-08 0)
(1.06421e-05 -9.09738e-09 0)
(1.08104e-05 -3.33386e-09 0)
(7.72346e-06 -1.12907e-07 0)
(7.84917e-06 -1.13546e-07 0)
(7.98178e-06 -1.14511e-07 0)
(8.12075e-06 -1.15155e-07 0)
(8.2655e-06 -1.1532e-07 0)
(8.41548e-06 -1.14974e-07 0)
(8.57022e-06 -1.13984e-07 0)
(8.72916e-06 -1.12358e-07 0)
(8.89184e-06 -1.10021e-07 0)
(9.05777e-06 -1.0691e-07 0)
(9.22652e-06 -1.02937e-07 0)
(9.39763e-06 -9.80377e-08 0)
(9.57067e-06 -9.21365e-08 0)
(9.74513e-06 -8.51365e-08 0)
(9.92055e-06 -7.69053e-08 0)
(1.00963e-05 -6.72937e-08 0)
(1.0272e-05 -5.61065e-08 0)
(1.04465e-05 -4.31421e-08 0)
(1.06202e-05 -2.80831e-08 0)
(1.07902e-05 -1.08189e-08 0)
(7.56604e-06 -1.99736e-07 0)
(7.70479e-06 -1.99156e-07 0)
(7.84913e-06 -1.99262e-07 0)
(7.99829e-06 -1.99174e-07 0)
(8.15212e-06 -1.98478e-07 0)
(8.31019e-06 -1.97143e-07 0)
(8.47224e-06 -1.94881e-07 0)
(8.6378e-06 -1.91666e-07 0)
(8.80649e-06 -1.87333e-07 0)
(8.97792e-06 -1.81788e-07 0)
(9.15176e-06 -1.74892e-07 0)
(9.32761e-06 -1.6653e-07 0)
(9.50509e-06 -1.5655e-07 0)
(9.68371e-06 -1.44774e-07 0)
(9.86309e-06 -1.30977e-07 0)
(1.00426e-05 -1.14907e-07 0)
(1.0222e-05 -9.62357e-08 0)
(1.04e-05 -7.46346e-08 0)
(1.05772e-05 -4.95736e-08 0)
(1.07506e-05 -2.0856e-08 0)
(7.33587e-06 -3.02782e-07 0)
(7.49335e-06 -2.98647e-07 0)
(7.65466e-06 -2.95754e-07 0)
(7.81861e-06 -2.93312e-07 0)
(7.98579e-06 -2.90397e-07 0)
(8.1557e-06 -2.86987e-07 0)
(8.32845e-06 -2.82558e-07 0)
(8.50365e-06 -2.77035e-07 0)
(8.68117e-06 -2.70147e-07 0)
(8.86071e-06 -2.61731e-07 0)
(9.04206e-06 -2.51572e-07 0)
(9.22487e-06 -2.3948e-07 0)
(9.40884e-06 -2.25214e-07 0)
(9.59354e-06 -2.08512e-07 0)
(9.77868e-06 -1.89056e-07 0)
(9.96373e-06 -1.66483e-07 0)
(1.01484e-05 -1.40326e-07 0)
(1.03317e-05 -1.10123e-07 0)
(1.05139e-05 -7.5122e-08 0)
(1.06924e-05 -3.50261e-08 0)
(7.03988e-06 -4.27262e-07 0)
(7.22089e-06 -4.16601e-07 0)
(7.40378e-06 -4.07964e-07 0)
(7.58654e-06 -4.01048e-07 0)
(7.77076e-06 -3.94133e-07 0)
(7.95585e-06 -3.87217e-07 0)
(8.14238e-06 -3.79469e-07 0)
(8.33005e-06 -3.70708e-07 0)
(8.51897e-06 -3.60517e-07 0)
(8.70897e-06 -3.48629e-07 0)
(8.89997e-06 -3.34726e-07 0)
(9.09174e-06 -3.1852e-07 0)
(9.28406e-06 -2.99676e-07 0)
(9.47666e-06 -2.77837e-07 0)
(9.66931e-06 -2.52583e-07 0)
(9.86147e-06 -2.23434e-07 0)
(1.0053e-05 -1.89785e-07 0)
(1.02429e-05 -1.51025e-07 0)
(1.04317e-05 -1.06174e-07 0)
(1.06167e-05 -5.48109e-08 0)
(6.68648e-06 -5.76864e-07 0)
(6.89466e-06 -5.56265e-07 0)
(7.10281e-06 -5.38684e-07 0)
(7.30774e-06 -5.2475e-07 0)
(7.5122e-06 -5.1173e-07 0)
(7.71541e-06 -4.99575e-07 0)
(7.91844e-06 -4.87115e-07 0)
(8.12108e-06 -4.73979e-07 0)
(8.32366e-06 -4.5957e-07 0)
(8.52621e-06 -4.43481e-07 0)
(8.72881e-06 -4.25271e-07 0)
(8.93135e-06 -4.04525e-07 0)
(9.13374e-06 -3.80795e-07 0)
(9.33579e-06 -3.53616e-07 0)
(9.53741e-06 -3.22446e-07 0)
(9.7381e-06 -2.86682e-07 0)
(9.93788e-06 -2.4557e-07 0)
(1.01358e-05 -1.98343e-07 0)
(1.03324e-05 -1.43777e-07 0)
(1.05252e-05 -8.13001e-08 0)
(6.28537e-06 -7.54031e-07 0)
(6.52318e-06 -7.1998e-07 0)
(6.75935e-06 -6.90237e-07 0)
(6.98907e-06 -6.66556e-07 0)
(7.21627e-06 -6.45213e-07 0)
(7.43997e-06 -6.25935e-07 0)
(7.66163e-06 -6.07233e-07 0)
(7.88125e-06 -5.88454e-07 0)
(8.09941e-06 -5.68804e-07 0)
(8.31629e-06 -5.47673e-07 0)
(8.53214e-06 -5.24477e-07 0)
(8.747e-06 -4.98659e-07 0)
(8.96089e-06 -4.69644e-07 0)
(9.17377e-06 -4.36844e-07 0)
(9.38559e-06 -3.9958e-07 0)
(9.59602e-06 -3.57119e-07 0)
(9.80519e-06 -3.08545e-07 0)
(1.00122e-05 -2.52924e-07 0)
(1.02178e-05 -1.88782e-07 0)
(1.04196e-05 -1.15395e-07 0)
(5.84647e-06 -9.59181e-07 0)
(6.11514e-06 -9.07906e-07 0)
(6.3809e-06 -8.62827e-07 0)
(6.63733e-06 -8.26374e-07 0)
(6.88906e-06 -7.94334e-07 0)
(7.13517e-06 -7.65853e-07 0)
(7.37728e-06 -7.3924e-07 0)
(7.61562e-06 -7.13455e-07 0)
(7.85096e-06 -6.87491e-07 0)
(8.08369e-06 -6.60494e-07 0)
(8.31418e-06 -6.31691e-07 0)
(8.5426e-06 -6.00354e-07 0)
(8.76914e-06 -5.65759e-07 0)
(8.99391e-06 -5.27167e-07 0)
(9.21697e-06 -4.83752e-07 0)
(9.43814e-06 -4.34628e-07 0)
(9.65763e-06 -3.78706e-07 0)
(9.8747e-06 -3.14871e-07 0)
(1.00902e-05 -2.41401e-07 0)
(1.03019e-05 -1.5743e-07 0)
(5.38042e-06 -1.19213e-06 0)
(5.68053e-06 -1.12032e-06 0)
(5.97623e-06 -1.05781e-06 0)
(6.26047e-06 -1.00597e-06 0)
(6.53762e-06 -9.61193e-07 0)
(6.80726e-06 -9.21607e-07 0)
(7.07086e-06 -8.85442e-07 0)
(7.32905e-06 -8.51227e-07 0)
(7.58265e-06 -8.17722e-07 0)
(7.83226e-06 -7.83822e-07 0)
(8.07837e-06 -7.48555e-07 0)
(8.32133e-06 -7.11017e-07 0)
(8.56146e-06 -6.70319e-07 0)
(8.79902e-06 -6.2556e-07 0)
(9.03412e-06 -5.75747e-07 0)
(9.26681e-06 -5.19834e-07 0)
(9.49736e-06 -4.56551e-07 0)
(9.72521e-06 -3.84606e-07 0)
(9.95125e-06 -3.02054e-07 0)
(1.01737e-05 -2.07921e-07 0)
(4.89571e-06 -1.44931e-06 0)
(5.22783e-06 -1.35243e-06 0)
(5.55253e-06 -1.27024e-06 0)
(5.86539e-06 -1.2003e-06 0)
(6.16864e-06 -1.1404e-06 0)
(6.46276e-06 -1.08782e-06 0)
(6.74886e-06 -1.04058e-06 0)
(7.0278e-06 -9.96824e-07 0)
(7.30052e-06 -9.54961e-07 0)
(7.56779e-06 -9.13595e-07 0)
(7.83024e-06 -8.71501e-07 0)
(8.08837e-06 -8.27555e-07 0)
(8.34267e-06 -7.80673e-07 0)
(8.5935e-06 -7.29772e-07 0)
(8.84113e-06 -6.73684e-07 0)
(9.08575e-06 -6.11201e-07 0)
(9.32772e-06 -5.40875e-07 0)
(9.56673e-06 -4.61248e-07 0)
(9.80371e-06 -3.70171e-07 0)
(1.00374e-05 -2.66509e-07 0)
(4.53466e-06 -1.69561e-06 0)
(4.88993e-06 -1.57761e-06 0)
(5.23232e-06 -1.48064e-06 0)
(5.56253e-06 -1.39653e-06 0)
(5.8819e-06 -1.32355e-06 0)
(6.19132e-06 -1.25897e-06 0)
(6.49184e-06 -1.20075e-06 0)
(6.78434e-06 -1.14695e-06 0)
(7.06972e-06 -1.09591e-06 0)
(7.34875e-06 -1.04609e-06 0)
(7.62211e-06 -9.96151e-07 0)
(7.89031e-06 -9.44844e-07 0)
(8.15396e-06 -8.90959e-07 0)
(8.41347e-06 -8.33294e-07 0)
(8.66917e-06 -7.70574e-07 0)
(8.92143e-06 -7.015e-07 0)
(9.17061e-06 -6.24543e-07 0)
(9.41667e-06 -5.38192e-07 0)
(9.66056e-06 -4.40256e-07 0)
(9.90144e-06 -3.29534e-07 0)
(4.32845e-06 -1.89457e-06 0)
(4.68575e-06 -1.77169e-06 0)
(5.03131e-06 -1.6664e-06 0)
(5.36617e-06 -1.5735e-06 0)
(5.69077e-06 -1.49137e-06 0)
(6.00573e-06 -1.41772e-06 0)
(6.31186e-06 -1.35059e-06 0)
(6.60985e-06 -1.2882e-06 0)
(6.90048e-06 -1.2289e-06 0)
(7.18445e-06 -1.17123e-06 0)
(7.46235e-06 -1.11382e-06 0)
(7.7347e-06 -1.0554e-06 0)
(8.0021e-06 -9.94751e-07 0)
(8.265e-06 -9.30634e-07 0)
(8.52375e-06 -8.6177e-07 0)
(8.7788e-06 -7.8686e-07 0)
(9.03054e-06 -7.04406e-07 0)
(9.27912e-06 -6.1295e-07 0)
(9.52547e-06 -5.10395e-07 0)
(9.76912e-06 -3.9555e-07 0)
(4.15232e-06 -2.08567e-06 0)
(4.50588e-06 -1.95991e-06 0)
(4.85075e-06 -1.84917e-06 0)
(5.18633e-06 -1.74948e-06 0)
(5.5129e-06 -1.65973e-06 0)
(5.83057e-06 -1.57809e-06 0)
(6.13988e-06 -1.50285e-06 0)
(6.4413e-06 -1.4324e-06 0)
(6.73543e-06 -1.36523e-06 0)
(7.02285e-06 -1.29994e-06 0)
(7.30406e-06 -1.23521e-06 0)
(7.57955e-06 -1.16978e-06 0)
(7.84989e-06 -1.10244e-06 0)
(8.11552e-06 -1.03197e-06 0)
(8.3768e-06 -9.57098e-07 0)
(8.63423e-06 -8.76565e-07 0)
(8.88824e-06 -7.88932e-07 0)
(9.13911e-06 -6.92813e-07 0)
(9.38774e-06 -5.86212e-07 0)
(9.634e-06 -4.67993e-07 0)
(3.99707e-06 -2.26938e-06 0)
(4.34534e-06 -2.14218e-06 0)
(4.68715e-06 -2.02748e-06 0)
(5.02105e-06 -1.92234e-06 0)
(5.34725e-06 -1.82612e-06 0)
(5.66547e-06 -1.73743e-06 0)
(5.97604e-06 -1.65484e-06 0)
(6.27916e-06 -1.57696e-06 0)
(6.5753e-06 -1.50244e-06 0)
(6.86488e-06 -1.42996e-06 0)
(7.14831e-06 -1.35826e-06 0)
(7.42601e-06 -1.28614e-06 0)
(7.69854e-06 -1.21242e-06 0)
(7.96627e-06 -1.13591e-06 0)
(8.22959e-06 -1.05539e-06 0)
(8.48902e-06 -9.69643e-07 0)
(8.74497e-06 -8.77321e-07 0)
(8.99788e-06 -7.77103e-07 0)
(9.24858e-06 -6.6712e-07 0)
(9.49723e-06 -5.46392e-07 0)
(3.86009e-06 -2.44538e-06 0)
(4.20176e-06 -2.3177e-06 0)
(4.53882e-06 -2.20037e-06 0)
(4.86928e-06 -2.09113e-06 0)
(5.19331e-06 -1.98968e-06 0)
(5.51035e-06 -1.89501e-06 0)
(5.82055e-06 -1.80598e-06 0)
(6.12389e-06 -1.72144e-06 0)
(6.4207e-06 -1.64017e-06 0)
(6.71129e-06 -1.56101e-06 0)
(6.99595e-06 -1.48277e-06 0)
(7.27501e-06 -1.40434e-06 0)
(7.54901e-06 -1.32459e-06 0)
(7.81826e-06 -1.24239e-06 0)
(8.08314e-06 -1.15658e-06 0)
(8.34418e-06 -1.06602e-06 0)
(8.60179e-06 -9.69435e-07 0)
(8.85647e-06 -8.65597e-07 0)
(9.10902e-06 -7.52818e-07 0)
(9.35984e-06 -6.30368e-07 0)
(3.73809e-06 -2.61373e-06 0)
(4.07251e-06 -2.4864e-06 0)
(4.40379e-06 -2.36739e-06 0)
(4.7296e-06 -2.25506e-06 0)
(5.05015e-06 -2.14939e-06 0)
(5.36469e-06 -2.04969e-06 0)
(5.67322e-06 -1.9551e-06 0)
(5.97556e-06 -1.86465e-06 0)
(6.27193e-06 -1.77731e-06 0)
(6.56251e-06 -1.69206e-06 0)
(6.84751e-06 -1.60782e-06 0)
(7.12719e-06 -1.52354e-06 0)
(7.40201e-06 -1.43822e-06 0)
(7.67224e-06 -1.35078e-06 0)
(7.93825e-06 -1.26012e-06 0)
(8.20053e-06 -1.16518e-06 0)
(8.45949e-06 -1.06479e-06 0)
(8.71569e-06 -9.57832e-07 0)
(8.96987e-06 -8.42876e-07 0)
(9.22262e-06 -7.19381e-07 0)
(3.62858e-06 -2.7747e-06 0)
(3.95536e-06 -2.64825e-06 0)
(4.2802e-06 -2.52834e-06 0)
(4.60054e-06 -2.4138e-06 0)
(4.91668e-06 -2.30485e-06 0)
(5.22773e-06 -2.20102e-06 0)
(5.5336e-06 -2.1017e-06 0)
(5.83399e-06 -2.00611e-06 0)
(6.129e-06 -1.9134e-06 0)
(6.41876e-06 -1.82267e-06 0)
(6.70336e-06 -1.73299e-06 0)
(6.983e-06 -1.6434e-06 0)
(7.25807e-06 -1.55298e-06 0)
(7.52879e-06 -1.46073e-06 0)
(7.79551e-06 -1.36566e-06 0)
(8.05869e-06 -1.26676e-06 0)
(8.31872e-06 -1.163e-06 0)
(8.57619e-06 -1.05342e-06 0)
(8.83179e-06 -9.36836e-07 0)
(9.08621e-06 -8.12745e-07 0)
(3.52926e-06 -2.9286e-06 0)
(3.84831e-06 -2.80343e-06 0)
(4.16632e-06 -2.68318e-06 0)
(4.4807e-06 -2.56714e-06 0)
(4.79178e-06 -2.45567e-06 0)
(5.09864e-06 -2.34849e-06 0)
(5.40111e-06 -2.24519e-06 0)
(5.69879e-06 -2.14519e-06 0)
(5.99174e-06 -2.04777e-06 0)
(6.28e-06 -1.95221e-06 0)
(6.56358e-06 -1.85767e-06 0)
(6.84262e-06 -1.76332e-06 0)
(7.11747e-06 -1.66831e-06 0)
(7.38826e-06 -1.57174e-06 0)
(7.65533e-06 -1.4727e-06 0)
(7.9191e-06 -1.3703e-06 0)
(8.17994e-06 -1.26363e-06 0)
(8.43845e-06 -1.1519e-06 0)
(8.69524e-06 -1.03413e-06 0)
(8.95109e-06 -9.09783e-07 0)
(3.43812e-06 -3.07588e-06 0)
(3.7495e-06 -2.95221e-06 0)
(4.0605e-06 -2.83207e-06 0)
(4.36865e-06 -2.71508e-06 0)
(4.67428e-06 -2.60172e-06 0)
(4.97647e-06 -2.49184e-06 0)
(5.27501e-06 -2.38525e-06 0)
(5.56946e-06 -2.28149e-06 0)
(5.85981e-06 -2.18002e-06 0)
(6.14605e-06 -2.08026e-06 0)
(6.42812e-06 -1.98147e-06 0)
(6.70612e-06 -1.88292e-06 0)
(6.98033e-06 -1.78385e-06 0)
(7.25083e-06 -1.68345e-06 0)
(7.51794e-06 -1.58092e-06 0)
(7.78203e-06 -1.47547e-06 0)
(8.04345e-06 -1.36636e-06 0)
(8.30278e-06 -1.2529e-06 0)
(8.56055e-06 -1.13425e-06 0)
(8.81761e-06 -1.01003e-06 0)
(3.35337e-06 -3.21703e-06 0)
(3.65723e-06 -3.095e-06 0)
(3.96123e-06 -2.97525e-06 0)
(4.26305e-06 -2.85772e-06 0)
(4.56301e-06 -2.74296e-06 0)
(4.86024e-06 -2.63096e-06 0)
(5.15451e-06 -2.52167e-06 0)
(5.44536e-06 -2.4148e-06 0)
(5.73273e-06 -2.30991e-06 0)
(6.01657e-06 -2.20655e-06 0)
(6.29676e-06 -2.1041e-06 0)
(6.57337e-06 -2.00191e-06 0)
(6.84662e-06 -1.89931e-06 0)
(7.11654e-06 -1.79557e-06 0)
(7.38343e-06 -1.69001e-06 0)
(7.64762e-06 -1.58197e-06 0)
(7.90941e-06 -1.47082e-06 0)
(8.16937e-06 -1.35597e-06 0)
(8.42794e-06 -1.23671e-06 0)
(8.68597e-06 -1.11297e-06 0)
(3.27342e-06 -3.35257e-06 0)
(3.56999e-06 -3.23219e-06 0)
(3.86708e-06 -3.11303e-06 0)
(4.16259e-06 -2.99527e-06 0)
(4.45682e-06 -2.87952e-06 0)
(4.74896e-06 -2.7659e-06 0)
(5.03877e-06 -2.65447e-06 0)
(5.32579e-06 -2.54506e-06 0)
(5.60994e-06 -2.43734e-06 0)
(5.89111e-06 -2.33095e-06 0)
(6.16917e-06 -2.22537e-06 0)
(6.44414e-06 -2.12006e-06 0)
(6.71617e-06 -2.01441e-06 0)
(6.9853e-06 -1.9078e-06 0)
(7.25177e-06 -1.79967e-06 0)
(7.51588e-06 -1.68945e-06 0)
(7.77788e-06 -1.5766e-06 0)
(8.03828e-06 -1.46063e-06 0)
(8.29747e-06 -1.34105e-06 0)
(8.55627e-06 -1.21793e-06 0)
(3.19685e-06 -3.48296e-06 0)
(3.48638e-06 -3.36417e-06 0)
(3.77674e-06 -3.24571e-06 0)
(4.06604e-06 -3.12795e-06 0)
(4.35458e-06 -3.01157e-06 0)
(4.64162e-06 -2.89676e-06 0)
(4.92692e-06 -2.78367e-06 0)
(5.21001e-06 -2.67222e-06 0)
(5.4908e-06 -2.56219e-06 0)
(5.76917e-06 -2.45328e-06 0)
(6.04493e-06 -2.34508e-06 0)
(6.31808e-06 -2.23712e-06 0)
(6.58874e-06 -2.12891e-06 0)
(6.85692e-06 -2.01992e-06 0)
(7.12283e-06 -1.90964e-06 0)
(7.38672e-06 -1.79763e-06 0)
(7.64877e-06 -1.68339e-06 0)
(7.90947e-06 -1.56657e-06 0)
(8.16913e-06 -1.44697e-06 0)
(8.42852e-06 -1.32446e-06 0)
(3.12232e-06 -3.60859e-06 0)
(3.40509e-06 -3.49129e-06 0)
(3.68895e-06 -3.37362e-06 0)
(3.97224e-06 -3.25607e-06 0)
(4.25522e-06 -3.13933e-06 0)
(4.53725e-06 -3.02366e-06 0)
(4.81807e-06 -2.90932e-06 0)
(5.09724e-06 -2.79627e-06 0)
(5.37465e-06 -2.68442e-06 0)
(5.65015e-06 -2.5735e-06 0)
(5.92354e-06 -2.46318e-06 0)
(6.19479e-06 -2.35308e-06 0)
(6.46401e-06 -2.24277e-06 0)
(6.73116e-06 -2.13183e-06 0)
(6.99641e-06 -2.01981e-06 0)
(7.25996e-06 -1.90632e-06 0)
(7.52195e-06 -1.79099e-06 0)
(7.78282e-06 -1.67361e-06 0)
(8.04282e-06 -1.55409e-06 0)
(8.30265e-06 -1.43229e-06 0)
(3.04861e-06 -3.72984e-06 0)
(3.32492e-06 -3.61399e-06 0)
(3.60254e-06 -3.49713e-06 0)
(3.88006e-06 -3.37991e-06 0)
(4.15769e-06 -3.26305e-06 0)
(4.43488e-06 -3.14684e-06 0)
(4.71136e-06 -3.03164e-06 0)
(4.98671e-06 -2.9174e-06 0)
(5.26079e-06 -2.80417e-06 0)
(5.53346e-06 -2.69168e-06 0)
(5.80449e-06 -2.57968e-06 0)
(6.07385e-06 -2.46786e-06 0)
(6.34161e-06 -2.35587e-06 0)
(6.60769e-06 -2.24335e-06 0)
(6.87222e-06 -2.12993e-06 0)
(7.13535e-06 -2.01526e-06 0)
(7.3972e-06 -1.89912e-06 0)
(7.65816e-06 -1.78142e-06 0)
(7.9184e-06 -1.66195e-06 0)
(8.17854e-06 -1.54092e-06 0)
(2.97449e-06 -3.84718e-06 0)
(3.24465e-06 -3.73264e-06 0)
(3.51636e-06 -3.61661e-06 0)
(3.7884e-06 -3.49984e-06 0)
(4.06096e-06 -3.38307e-06 0)
(4.33357e-06 -3.26662e-06 0)
(4.60593e-06 -3.15086e-06 0)
(4.87763e-06 -3.03581e-06 0)
(5.14853e-06 -2.92151e-06 0)
(5.41849e-06 -2.80783e-06 0)
(5.68727e-06 -2.69457e-06 0)
(5.95481e-06 -2.58146e-06 0)
(6.22115e-06 -2.4682e-06 0)
(6.48616e-06 -2.35446e-06 0)
(6.74994e-06 -2.23995e-06 0)
(7.01262e-06 -2.12441e-06 0)
(7.2743e-06 -2.00771e-06 0)
(7.53528e-06 -1.88976e-06 0)
(7.79567e-06 -1.77044e-06 0)
(8.05598e-06 -1.65004e-06 0)
(2.89884e-06 -3.9609e-06 0)
(3.16315e-06 -3.84766e-06 0)
(3.42923e-06 -3.73236e-06 0)
(3.69618e-06 -3.61615e-06 0)
(3.96404e-06 -3.49965e-06 0)
(4.2324e-06 -3.3832e-06 0)
(4.50093e-06 -3.26715e-06 0)
(4.76924e-06 -3.15163e-06 0)
(5.03721e-06 -3.03666e-06 0)
(5.30467e-06 -2.92216e-06 0)
(5.57138e-06 -2.80799e-06 0)
(5.83723e-06 -2.69394e-06 0)
(6.10221e-06 -2.57974e-06 0)
(6.36618e-06 -2.4651e-06 0)
(6.62924e-06 -2.34979e-06 0)
(6.89151e-06 -2.23365e-06 0)
(7.15299e-06 -2.11657e-06 0)
(7.41393e-06 -1.99839e-06 0)
(7.67436e-06 -1.87934e-06 0)
(7.93473e-06 -1.75949e-06 0)
(2.82048e-06 -4.07132e-06 0)
(3.07908e-06 -3.95903e-06 0)
(3.3398e-06 -3.84477e-06 0)
(3.60229e-06 -3.72934e-06 0)
(3.86587e-06 -3.61324e-06 0)
(4.13042e-06 -3.49699e-06 0)
(4.39551e-06 -3.3809e-06 0)
(4.66082e-06 -3.26516e-06 0)
(4.9262e-06 -3.14981e-06 0)
(5.19147e-06 -3.03482e-06 0)
(5.45633e-06 -2.92008e-06 0)
(5.72064e-06 -2.8054e-06 0)
(5.98437e-06 -2.69053e-06 0)
(6.24742e-06 -2.57528e-06 0)
(6.50986e-06 -2.45945e-06 0)
(6.77173e-06 -2.3429e-06 0)
(7.03296e-06 -2.22552e-06 0)
(7.29371e-06 -2.10723e-06 0)
(7.55415e-06 -1.98834e-06 0)
(7.81471e-06 -1.86899e-06 0)
(2.73754e-06 -4.17836e-06 0)
(2.99129e-06 -4.06723e-06 0)
(3.24762e-06 -3.95419e-06 0)
(3.50576e-06 -3.83957e-06 0)
(3.76559e-06 -3.72409e-06 0)
(4.02677e-06 -3.60824e-06 0)
(4.28894e-06 -3.49235e-06 0)
(4.55173e-06 -3.37665e-06 0)
(4.81497e-06 -3.26122e-06 0)
(5.0784e-06 -3.14603e-06 0)
(5.34165e-06 -3.03099e-06 0)
(5.60462e-06 -2.91594e-06 0)
(5.86735e-06 -2.8007e-06 0)
(6.12968e-06 -2.68507e-06 0)
(6.39152e-06 -2.56892e-06 0)
(6.65284e-06 -2.45211e-06 0)
(6.91376e-06 -2.33449e-06 0)
(7.17453e-06 -2.21626e-06 0)
(7.43494e-06 -2.09745e-06 0)
(7.69527e-06 -1.97843e-06 0)
(2.64894e-06 -4.28331e-06 0)
(2.89825e-06 -4.17347e-06 0)
(3.15054e-06 -4.06138e-06 0)
(3.40513e-06 -3.94765e-06 0)
(3.66187e-06 -3.8329e-06 0)
(3.92042e-06 -3.71761e-06 0)
(4.1804e-06 -3.60213e-06 0)
(4.44134e-06 -3.48667e-06 0)
(4.70292e-06 -3.37133e-06 0)
(4.96487e-06 -3.25613e-06 0)
(5.22695e-06 -3.14099e-06 0)
(5.48906e-06 -3.02579e-06 0)
(5.751e-06 -2.91035e-06 0)
(6.0125e-06 -2.79454e-06 0)
(6.27374e-06 -2.6782e-06 0)
(6.53477e-06 -2.5612e-06 0)
(6.79541e-06 -2.44349e-06 0)
(7.05591e-06 -2.32521e-06 0)
(7.31625e-06 -2.2065e-06 0)
(7.57653e-06 -2.08769e-06 0)
(2.55349e-06 -4.38507e-06 0)
(2.79887e-06 -4.27678e-06 0)
(3.04777e-06 -4.16609e-06 0)
(3.29959e-06 -4.05354e-06 0)
(3.55412e-06 -3.93979e-06 0)
(3.81096e-06 -3.82531e-06 0)
(4.06947e-06 -3.71045e-06 0)
(4.3291e-06 -3.59544e-06 0)
(4.58965e-06 -3.4804e-06 0)
(4.85088e-06 -3.36537e-06 0)
(5.11228e-06 -3.2503e-06 0)
(5.3736e-06 -3.13508e-06 0)
(5.63489e-06 -3.01958e-06 0)
(5.89592e-06 -2.90368e-06 0)
(6.15662e-06 -2.78724e-06 0)
(6.41717e-06 -2.67016e-06 0)
(6.67748e-06 -2.55251e-06 0)
(6.93771e-06 -2.4341e-06 0)
(7.19792e-06 -2.31541e-06 0)
(7.45798e-06 -2.19655e-06 0)
(1.8824e-07 -3.77606e-06 0)
(5.6722e-07 -3.72079e-06 0)
(9.53777e-07 -3.61213e-06 0)
(1.35212e-06 -3.45481e-06 0)
(1.76575e-06 -3.25456e-06 0)
(2.19689e-06 -3.01909e-06 0)
(2.64639e-06 -2.75686e-06 0)
(3.11354e-06 -2.47689e-06 0)
(3.59655e-06 -2.18829e-06 0)
(4.09213e-06 -1.8984e-06 0)
(1.83301e-07 -3.83721e-06 0)
(5.51996e-07 -3.7868e-06 0)
(9.26968e-07 -3.68753e-06 0)
(1.31171e-06 -3.54353e-06 0)
(1.70917e-06 -3.35963e-06 0)
(2.12124e-06 -3.14236e-06 0)
(2.54859e-06 -2.89898e-06 0)
(2.99059e-06 -2.63721e-06 0)
(3.44469e-06 -2.36549e-06 0)
(3.90875e-06 -2.08952e-06 0)
(1.78921e-07 -3.90017e-06 0)
(5.38462e-07 -3.85418e-06 0)
(9.03043e-07 -3.76342e-06 0)
(1.27548e-06 -3.63163e-06 0)
(1.65816e-06 -3.4629e-06 0)
(2.05268e-06 -3.26285e-06 0)
(2.45966e-06 -3.03772e-06 0)
(2.87902e-06 -2.79394e-06 0)
(3.30878e-06 -2.53896e-06 0)
(3.74786e-06 -2.276e-06 0)
(1.74957e-07 -3.96497e-06 0)
(5.2629e-07 -3.92273e-06 0)
(8.81734e-07 -3.83923e-06 0)
(1.24359e-06 -3.71783e-06 0)
(1.61382e-06 -3.5621e-06 0)
(1.99367e-06 -3.37687e-06 0)
(2.38358e-06 -3.16777e-06 0)
(2.78345e-06 -2.94036e-06 0)
(3.19165e-06 -2.70164e-06 0)
(3.60719e-06 -2.4538e-06 0)
(1.71264e-07 -4.03151e-06 0)
(5.14935e-07 -3.99261e-06 0)
(8.6197e-07 -3.91559e-06 0)
(1.21421e-06 -3.80347e-06 0)
(1.57327e-06 -3.6595e-06 0)
(1.94014e-06 -3.4878e-06 0)
(2.31523e-06 -3.29346e-06 0)
(2.69844e-06 -3.08123e-06 0)
(3.08862e-06 -2.85737e-06 0)
(3.484e-06 -2.62386e-06 0)
(1.67807e-07 -4.09966e-06 0)
(5.04318e-07 -4.06363e-06 0)
(8.43619e-07 -3.99226e-06 0)
(1.18718e-06 -3.88821e-06 0)
(1.53632e-06 -3.7545e-06 0)
(1.89184e-06 -3.59476e-06 0)
(2.25403e-06 -3.41361e-06 0)
(2.62263e-06 -3.21529e-06 0)
(2.99708e-06 -3.0054e-06 0)
(3.37494e-06 -2.78602e-06 0)
(1.64459e-07 -4.16932e-06 0)
(4.94126e-07 -4.13581e-06 0)
(8.26104e-07 -4.06949e-06 0)
(1.16159e-06 -3.97263e-06 0)
(1.50171e-06 -3.84809e-06 0)
(1.84706e-06 -3.69912e-06 0)
(2.19792e-06 -3.52987e-06 0)
(2.55384e-06 -3.34417e-06 0)
(2.9147e-06 -3.14697e-06 0)
(3.27752e-06 -2.94072e-06 0)
(1.61201e-07 -4.2403e-06 0)
(4.84259e-07 -4.20898e-06 0)
(8.09239e-07 -4.14714e-06 0)
(1.13715e-06 -4.05662e-06 0)
(1.46897e-06 -3.94019e-06 0)
(1.80511e-06 -3.80084e-06 0)
(2.14584e-06 -3.64227e-06 0)
(2.49055e-06 -3.46803e-06 0)
(2.83948e-06 -3.28251e-06 0)
(3.18937e-06 -3.08842e-06 0)
(1.58009e-07 -4.31245e-06 0)
(4.74551e-07 -4.28308e-06 0)
(7.9272e-07 -4.22522e-06 0)
(1.1134e-06 -4.14038e-06 0)
(1.43744e-06 -4.03123e-06 0)
(1.76512e-06 -3.9005e-06 0)
(2.0967e-06 -3.75154e-06 0)
(2.43146e-06 -3.58765e-06 0)
(2.76983e-06 -3.41273e-06 0)
(3.10853e-06 -3.22975e-06 0)
(1.54833e-07 -4.38561e-06 0)
(4.64882e-07 -4.35795e-06 0)
(7.76357e-07 -4.30362e-06 0)
(1.09005e-06 -4.2239e-06 0)
(1.40667e-06 -4.12126e-06 0)
(1.72646e-06 -3.99825e-06 0)
(2.04965e-06 -3.85795e-06 0)
(2.37543e-06 -3.70343e-06 0)
(2.70435e-06 -3.5382e-06 0)
(3.03326e-06 -3.36531e-06 0)
(1.51603e-07 -4.45957e-06 0)
(4.55128e-07 -4.43345e-06 0)
(7.59948e-07 -4.38229e-06 0)
(1.06678e-06 -4.30719e-06 0)
(1.37624e-06 -4.21043e-06 0)
(1.68853e-06 -4.09437e-06 0)
(2.00389e-06 -3.96186e-06 0)
(2.32146e-06 -3.81586e-06 0)
(2.64182e-06 -3.6594e-06 0)
(2.96204e-06 -3.49562e-06 0)
(1.48297e-07 -4.53411e-06 0)
(4.45214e-07 -4.50938e-06 0)
(7.43337e-07 -4.46108e-06 0)
(1.04332e-06 -4.39016e-06 0)
(1.34574e-06 -4.29872e-06 0)
(1.65081e-06 -4.18894e-06 0)
(1.95872e-06 -4.0635e-06 0)
(2.26865e-06 -3.9252e-06 0)
(2.58113e-06 -3.77667e-06 0)
(2.89354e-06 -3.62112e-06 0)
(1.44905e-07 -4.60899e-06 0)
(4.35049e-07 -4.58557e-06 0)
(7.26338e-07 -4.53988e-06 0)
(1.01939e-06 -4.47275e-06 0)
(1.3148e-06 -4.38611e-06 0)
(1.61275e-06 -4.28205e-06 0)
(1.91346e-06 -4.16305e-06 0)
(2.21614e-06 -4.03169e-06 0)
(2.52127e-06 -3.89038e-06 0)
(2.82654e-06 -3.7423e-06 0)
(1.41396e-07 -4.68397e-06 0)
(4.2451e-07 -4.66177e-06 0)
(7.08735e-07 -4.61844e-06 0)
(9.94688e-07 -4.55479e-06 0)
(1.283e-06 -4.47256e-06 0)
(1.57387e-06 -4.37373e-06 0)
(1.86748e-06 -4.26059e-06 0)
(2.16315e-06 -4.13553e-06 0)
(2.46128e-06 -4.00086e-06 0)
(2.75988e-06 -3.85953e-06 0)
(1.37713e-07 -4.75886e-06 0)
(4.1344e-07 -4.7378e-06 0)
(6.90288e-07 -4.69664e-06 0)
(9.68898e-07 -4.6362e-06 0)
(1.24993e-06 -4.55804e-06 0)
(1.53358e-06 -4.46402e-06 0)
(1.82008e-06 -4.35622e-06 0)
(2.10885e-06 -4.23693e-06 0)
(2.40019e-06 -4.10836e-06 0)
(2.69244e-06 -3.97313e-06 0)
(1.33795e-07 -4.83324e-06 0)
(4.01689e-07 -4.81327e-06 0)
(6.70755e-07 -4.77413e-06 0)
(9.4167e-07 -4.71667e-06 0)
(1.21511e-06 -4.64226e-06 0)
(1.49133e-06 -4.55268e-06 0)
(1.77059e-06 -4.44981e-06 0)
(2.05242e-06 -4.33593e-06 0)
(2.33706e-06 -4.21294e-06 0)
(2.62314e-06 -4.08335e-06 0)
(1.29585e-07 -4.90702e-06 0)
(3.89095e-07 -4.88809e-06 0)
(6.49856e-07 -4.85084e-06 0)
(9.12592e-07 -4.79615e-06 0)
(1.17801e-06 -4.72529e-06 0)
(1.44644e-06 -4.63987e-06 0)
(1.71819e-06 -4.54166e-06 0)
(1.99291e-06 -4.43283e-06 0)
(2.27081e-06 -4.31496e-06 0)
(2.55071e-06 -4.19064e-06 0)
(1.25036e-07 -4.97936e-06 0)
(3.75497e-07 -4.96142e-06 0)
(6.27307e-07 -4.92597e-06 0)
(8.81251e-07 -4.87392e-06 0)
(1.13809e-06 -4.8064e-06 0)
(1.39825e-06 -4.72494e-06 0)
(1.66207e-06 -4.63118e-06 0)
(1.92935e-06 -4.52708e-06 0)
(2.20024e-06 -4.41413e-06 0)
(2.4739e-06 -4.29471e-06 0)
(1.20066e-07 -5.05064e-06 0)
(3.60635e-07 -5.03365e-06 0)
(6.0266e-07 -4.99998e-06 0)
(8.47015e-07 -4.95047e-06 0)
(1.09453e-06 -4.8862e-06 0)
(1.34575e-06 -4.80858e-06 0)
(1.60106e-06 -4.71913e-06 0)
(1.8604e-06 -4.61953e-06 0)
(2.12391e-06 -4.51137e-06 0)
(2.39107e-06 -4.39661e-06 0)
(1.14634e-07 -5.11865e-06 0)
(3.44386e-07 -5.10253e-06 0)
(5.75702e-07 -5.07064e-06 0)
(8.09575e-07 -5.02367e-06 0)
(1.04693e-06 -4.96264e-06 0)
(1.28841e-06 -4.88885e-06 0)
(1.53448e-06 -4.80367e-06 0)
(1.78521e-06 -4.70865e-06 0)
(2.04088e-06 -4.60521e-06 0)
(2.30121e-06 -4.49519e-06 0)
)


// ************************************************************************* //
