/*--------------------------------*- C++ -*----------------------------------*\
| =========                 |                                                 |
| \\      /  F ield         | foam-extend: Open Source CFD                    |
|  \\    /   O peration     | Version:     4.1                                |
|   \\  /    A nd           | Web:         http://www.foam-extend.org         |
|    \\/     M anipulation  |                                                 |
\*---------------------------------------------------------------------------*/
FoamFile
{
    version     2.0;
    format      ascii;
    class       volScalarField;
    location    "1";
    object      epsilonEq;
}
// * * * * * * * * * * * * * * * * * * * * * * * * * * * * * * * * * * * * * //

dimensions      [0 0 0 0 0 0 0];

internalField   nonuniform List<scalar> 
1000
(
4.608550670563644e-07
5.254796773123424e-07
5.77188762866903e-07
6.163503140516843e-07
6.345485291630068e-07
6.416578223093453e-07
6.405853438993888e-07
6.345934127764205e-07
6.265367772043176e-07
6.152413684651673e-07
5.768750706052321e-07
5.862145246170519e-07
6.088109772857099e-07
6.331491739139597e-07
6.433768206955129e-07
6.461259383433415e-07
6.423985992199544e-07
6.351886233340806e-07
6.251902751758723e-07
6.149606078414132e-07
6.899343540396329e-07
6.465140780984266e-07
6.370211651702693e-07
6.435748053779906e-07
6.438981841251908e-07
6.410790260835732e-07
6.340476006496508e-07
6.250179936876801e-07
6.136155287466046e-07
6.030133944032347e-07
7.965608105074921e-07
7.042397733645548e-07
6.617622819232973e-07
6.485643736118767e-07
6.37460919952395e-07
6.281266147038934e-07
6.172923607690835e-07
6.062809700218394e-07
5.936661566804569e-07
5.829639483997967e-07
8.937657597575366e-07
7.574375867648932e-07
6.829307740610022e-07
6.491285163956859e-07
6.25577718778479e-07
6.089707945249487e-07
5.939659165793627e-07
5.807938193604017e-07
5.672425483806234e-07
5.564151247570255e-07
9.789540122786159e-07
8.044366678641557e-07
7.00528377070277e-07
6.465612367080885e-07
6.102417120052851e-07
5.859426096848169e-07
5.664945422088581e-07
5.510055260710476e-07
5.365973090297586e-07
5.255526621025619e-07
1.049892966991942e-06
8.437954001533171e-07
7.14547721346915e-07
6.422086956345872e-07
5.936888653984953e-07
5.617670247864222e-07
5.378397920382163e-07
5.199469827618927e-07
5.047340584340878e-07
4.933183354017129e-07
1.104745737264073e-06
8.743689382675584e-07
7.250504159130034e-07
6.374754336466997e-07
5.783716741106207e-07
5.395771672164874e-07
5.11503687004795e-07
4.913076917912924e-07
4.753428125904604e-07
4.634470164342381e-07
1.142099270365955e-06
8.952478744351052e-07
7.320185505489348e-07
6.335200627053161e-07
5.665404046111795e-07
5.224530236178873e-07
4.911001526485364e-07
4.69022516907115e-07
4.524405987052187e-07
4.40078789788814e-07
1.160824561143838e-06
9.056054814250079e-07
7.351707729362222e-07
6.309103224101136e-07
5.596752010783819e-07
5.1266372375096e-07
4.794643707508931e-07
4.563082682022695e-07
4.393681843269295e-07
4.267321013828573e-07
4.233443432968556e-07
2.804537757571579e-07
2.008374182511579e-07
1.677585036859853e-07
1.558404114990687e-07
1.581311487541359e-07
1.666699560906488e-07
1.789983141482301e-07
1.922977187672198e-07
2.058007562988823e-07
4.055704282079146e-07
2.794241830990326e-07
2.191179682373281e-07
2.016698407161358e-07
1.984131663705675e-07
2.032888821038466e-07
2.108698994765099e-07
2.205252516414553e-07
2.302172700100219e-07
2.409722523587507e-07
3.69870989276563e-07
2.779819448295045e-07
2.503062551000714e-07
2.537665456056998e-07
2.604472610586576e-07
2.684099902061405e-07
2.753039713434958e-07
2.822969084974934e-07
2.87956865192657e-07
2.955316355382318e-07
3.184808041708238e-07
2.790180466384312e-07
2.895879626056071e-07
3.126752397352921e-07
3.27864136170129e-07
3.385940053311045e-07
3.451355512230407e-07
3.500561932874393e-07
3.523436077514504e-07
3.571393693406213e-07
2.54994792143011e-07
2.858363987913986e-07
3.329159887054997e-07
3.720141023888559e-07
3.938467665945384e-07
4.067463163516933e-07
4.130072431180287e-07
4.162306211415729e-07
4.157731179170486e-07
4.181542318410748e-07
1.875821289494508e-07
3.015393046425429e-07
3.775176174286414e-07
4.282735839319569e-07
4.548080386281246e-07
4.691351137295739e-07
4.750069585830001e-07
4.767040865608555e-07
4.739884379165234e-07
4.741681016502419e-07
1.402280727321872e-07
3.28099522802859e-07
4.217112511799921e-07
4.794879322769935e-07
5.087089856041321e-07
5.236276480508995e-07
5.28893513018117e-07
5.291498017248322e-07
5.245800465040026e-07
5.226888146248734e-07
1.593878984074292e-07
3.656069028738589e-07
4.643566227040866e-07
5.243763855927473e-07
5.541601444295674e-07
5.687097578564578e-07
5.730821875571996e-07
5.718832859354053e-07
5.659348752319564e-07
5.619669202822098e-07
2.403854705585652e-07
4.126229284178562e-07
5.047845167855924e-07
5.623184863955386e-07
5.904869160299572e-07
6.036965762793483e-07
6.068062282663987e-07
6.042540039313374e-07
5.972926678943131e-07
5.916992281575022e-07
3.463416966733682e-07
4.667787462461934e-07
5.424739937324984e-07
5.928994943039982e-07
6.1714284695321e-07
6.277667177459196e-07
6.289953545467346e-07
6.24592744172058e-07
6.172528037755027e-07
6.084969925730059e-07
2.196282710518486e-07
2.311425568395072e-07
2.420217998359317e-07
2.519191271576512e-07
2.606318447563433e-07
2.682840097320484e-07
2.747833737775321e-07
2.801826629506941e-07
2.844600063082664e-07
2.876231101259473e-07
2.896454653686119e-07
2.905079208300541e-07
2.901381710480212e-07
2.885110910969007e-07
2.854489257905716e-07
2.810060220117466e-07
2.747159176319656e-07
2.670654856086062e-07
2.566135554199529e-07
2.457704867454296e-07
2.497850823952639e-07
2.556609122497873e-07
2.62373505295265e-07
2.687793238532922e-07
2.746797408761495e-07
2.80036332336298e-07
2.846612825851051e-07
2.885187800193105e-07
2.915247810190774e-07
2.936315691020412e-07
2.94774612097696e-07
2.949010338788672e-07
2.939156126172865e-07
2.917729654987652e-07
2.882834008436973e-07
2.83489115962519e-07
2.769233254037648e-07
2.69064276486823e-07
2.584956971312813e-07
2.476099963575786e-07
2.978354635613616e-07
2.959618299256511e-07
2.96539177785458e-07
2.976299663518793e-07
2.990679264338164e-07
3.00684020196465e-07
3.021808995498489e-07
3.034175874858652e-07
3.042316897998803e-07
3.04496533477503e-07
3.040940640391745e-07
3.029194290120385e-07
3.008425713021778e-07
2.977855618276249e-07
2.935405533224728e-07
2.881295436018608e-07
2.810885080910091e-07
2.728786823236135e-07
2.621356835317381e-07
2.512050825495465e-07
3.534842611667965e-07
3.442230696691396e-07
3.384762564173662e-07
3.339000101182329e-07
3.303428692447263e-07
3.276200780136165e-07
3.253755997947241e-07
3.233894960608796e-07
3.214493732325633e-07
3.193537342275983e-07
3.169395646524835e-07
3.14048784784179e-07
3.105173712707598e-07
3.062324405367141e-07
3.009686089581887e-07
2.94725397259054e-07
2.870481189911761e-07
2.783770090151152e-07
2.674268255997725e-07
2.564756031615406e-07
4.095970428431579e-07
3.943262356923217e-07
3.829373762422942e-07
3.73188609632791e-07
3.648594065956524e-07
3.578319582162063e-07
3.517701316774905e-07
3.463972597928364e-07
3.415016410356223e-07
3.368226076919148e-07
3.321733659741808e-07
3.273519153411854e-07
3.221685095095593e-07
3.164799233251126e-07
3.100485465496947e-07
3.028538248763817e-07
2.944599166765422e-07
2.852855602609135e-07
2.741521689167544e-07
2.632526040363285e-07
4.617972376907103e-07
4.422575339890528e-07
4.263227125929484e-07
4.123025681656758e-07
3.998948605151197e-07
3.890086581599642e-07
3.794441521039538e-07
3.708553855015726e-07
3.630854920413123e-07
3.558329695046363e-07
3.489120044032754e-07
3.420954210943041e-07
3.351819347801603e-07
3.280101389586258e-07
3.203403509312496e-07
3.121392057603833e-07
3.030021719758633e-07
2.933299929401413e-07
2.820800438539356e-07
2.713509162937375e-07
5.075596450956147e-07
4.85514354871045e-07
4.663100510910731e-07
4.489153646360373e-07
4.33263758522208e-07
4.190745541204308e-07
4.064598566273302e-07
3.949840487771661e-07
3.845857158131513e-07
3.749453823273502e-07
3.65888658974463e-07
3.571795574851869e-07
3.486126436808336e-07
3.40018733513147e-07
3.311646599896304e-07
3.220120537212786e-07
3.122000788724395e-07
3.021153425994268e-07
2.908734117023821e-07
2.804609758545861e-07
5.450973973843387e-07
5.222680643184279e-07
5.016142098533631e-07
4.819176442179023e-07
4.641334870116433e-07
4.474560830077863e-07
4.324252049459748e-07
4.185449335257807e-07
4.058479084909824e-07
3.940511783027816e-07
3.830053824272686e-07
3.724979849807567e-07
3.62335282467593e-07
3.52357197670682e-07
3.423491290468009e-07
3.322774093682521e-07
3.218370439150448e-07
3.114071158899761e-07
3.00283566442242e-07
2.903500466139264e-07
5.742866058794485e-07
5.511532234372216e-07
5.307691077934211e-07
5.0951823004037e-07
4.902999952311015e-07
4.71794512392278e-07
4.548608750478958e-07
4.391062116696877e-07
4.245781289232484e-07
4.110627731538077e-07
3.984143986968485e-07
3.864483723701657e-07
3.749837538166211e-07
3.638768174358741e-07
3.52940495156119e-07
3.421554052472781e-07
3.312854913046079e-07
3.207059213673551e-07
3.099044599218071e-07
3.006107998422284e-07
5.94110589906507e-07
5.722242999921161e-07
5.54173574279094e-07
5.334761019443052e-07
5.138471036864833e-07
4.94532943550646e-07
4.762384825321616e-07
4.58971303623452e-07
4.428086819361521e-07
4.276809747850582e-07
4.134876214490472e-07
4.000943463993638e-07
3.873482303464092e-07
3.751281234898435e-07
3.632788599383476e-07
3.517992701299715e-07
3.405293764013525e-07
3.298503528582193e-07
3.19454456217924e-07
3.109521830548792e-07
6.017940691212195e-07
5.795391092633154e-07
5.623574744808356e-07
5.433423597881525e-07
5.2443624752057e-07
5.057733699329272e-07
4.877223949345704e-07
4.704265760376941e-07
4.539909449717565e-07
4.384185008875071e-07
4.236736352175452e-07
4.096846526472225e-07
3.96357329677323e-07
3.836220079624815e-07
3.713824355336282e-07
3.59677737853894e-07
3.484339270387758e-07
3.380371855896508e-07
3.283625668413191e-07
3.208133566808103e-07
5.864963949131027e-07
5.732605615884643e-07
5.578240979876087e-07
5.414359015778917e-07
5.244095219342689e-07
5.073031826713246e-07
4.904315835253421e-07
4.740070479087516e-07
4.581735560088563e-07
4.429911574677926e-07
4.284784428652406e-07
4.146196585954814e-07
4.01377090976992e-07
3.887335482469798e-07
3.766527149363281e-07
3.652196084721424e-07
3.544365885460425e-07
3.447077466001519e-07
3.360590417895231e-07
3.297424192836909e-07
5.739178183810833e-07
5.630109600966279e-07
5.50653449716721e-07
5.365933965345751e-07
5.216429884064101e-07
5.062113851796101e-07
4.907024525484211e-07
4.753490218202545e-07
4.603425929862645e-07
4.457848858466738e-07
4.317431348750276e-07
4.1824853523025e-07
4.053144122378832e-07
3.929694243689913e-07
3.812333946779832e-07
3.702288763827505e-07
3.600306431868077e-07
3.51049239740755e-07
3.434345318814768e-07
3.382486055000912e-07
5.596316976380007e-07
5.51272543995635e-07
5.41225860915075e-07
5.292009083146039e-07
5.161722158348142e-07
5.023818977994354e-07
4.883013036499259e-07
4.741437363328017e-07
4.601364937287371e-07
4.464055233841032e-07
4.330557655974891e-07
4.201553795959158e-07
4.077601985400276e-07
3.95938535079691e-07
3.847568619334502e-07
3.743719361395778e-07
3.649086153712364e-07
3.567819966415361e-07
3.50236091923939e-07
3.461503533588674e-07
5.441881449095657e-07
5.378975805560175e-07
5.299973005526408e-07
5.199401971131559e-07
5.088007429183454e-07
4.966744649896433e-07
4.840793513318004e-07
4.712090332964112e-07
4.583191311076656e-07
4.455531346383855e-07
4.330465571902638e-07
4.208969006447222e-07
4.091959680214665e-07
3.980424724731199e-07
3.875465282739215e-07
3.778783587528591e-07
3.692157930082272e-07
3.619675534332283e-07
3.564421482733951e-07
3.533533530631092e-07
5.283081813747418e-07
5.237965505807964e-07
5.177004333741781e-07
5.093809126812895e-07
4.999540454357868e-07
4.894070119802649e-07
4.782727623164229e-07
4.667201900401524e-07
4.550175129795943e-07
4.433157882413656e-07
4.317709998707672e-07
4.205012375062404e-07
4.096260154705012e-07
3.992698480663735e-07
3.89572105718562e-07
3.807359170980271e-07
3.729139694595832e-07
3.665509772670439e-07
3.619909912554969e-07
3.597899403165333e-07
5.123627440664499e-07
5.093224076082421e-07
5.047680633395756e-07
4.980185715468541e-07
4.901606296364707e-07
4.811103839361061e-07
4.713914336928815e-07
4.611543904319463e-07
4.506668862550418e-07
4.400834173317074e-07
4.295710798592311e-07
4.192627944755919e-07
4.092965577671545e-07
3.998139711668934e-07
3.909891958648232e-07
3.829837307893581e-07
3.760298141508173e-07
3.705402034375689e-07
3.66866665696157e-07
3.654284309593556e-07
4.966851357678527e-07
4.948421488070818e-07
4.915765901357958e-07
4.861989429035103e-07
4.797455394002538e-07
4.72083973403007e-07
4.63707290468566e-07
4.547547481572096e-07
4.454828586793612e-07
4.36042724458198e-07
4.266065699244027e-07
4.173103369537468e-07
4.083087291401601e-07
3.997471064316155e-07
3.918254091071783e-07
3.848329410525578e-07
3.786477736079812e-07
3.739470676438118e-07
3.710673219595729e-07
3.702590127873148e-07
4.814761549665469e-07
4.805828511255936e-07
4.78385376247274e-07
4.742140981896887e-07
4.690190589426224e-07
4.626332829123049e-07
4.555184525949033e-07
4.47808939218361e-07
4.397340068049205e-07
4.314411079384826e-07
4.230965009515849e-07
4.148439884412421e-07
4.068219264880363e-07
3.992226653620651e-07
3.921785407037729e-07
3.859354643425168e-07
3.807488350274093e-07
3.768162039749788e-07
3.746263671805666e-07
3.743132012367779e-07
4.668519402573107e-07
4.6670580388619e-07
4.653906455682282e-07
4.622480780040772e-07
4.581790372435274e-07
4.529853922508913e-07
4.470498681098804e-07
4.405232223348608e-07
4.33613291758661e-07
4.264496593461977e-07
4.192009726461041e-07
4.119896517252806e-07
4.049894411900532e-07
3.982782312875509e-07
3.921795245040567e-07
3.872183238418579e-07
3.823482332501317e-07
3.790937451060187e-07
3.775213611566604e-07
3.776043525322409e-07
4.528574107713294e-07
4.53299888386485e-07
4.527111846874066e-07
4.504971117793405e-07
4.474110914443963e-07
4.432902278167485e-07
4.384636671064581e-07
4.330775107328621e-07
4.272963660529558e-07
4.212355056596889e-07
4.150627874623831e-07
4.088908612166058e-07
4.028931058068015e-07
3.971597067633526e-07
3.919330979745425e-07
3.873134500833715e-07
3.83598119909961e-07
3.810058622827966e-07
3.798423404951963e-07
3.802195940553676e-07
4.395041457719416e-07
4.404381947992188e-07
4.40483591195975e-07
4.390070976286658e-07
4.367888845026971e-07
4.337511141690748e-07
4.299847038036661e-07
4.256317585052546e-07
4.209322035682391e-07
4.159265247112912e-07
4.107907129897155e-07
4.056199590915141e-07
4.005745317408241e-07
3.957596089765399e-07
3.913890771973877e-07
3.877036684370913e-07
3.845410915872232e-07
3.82446090589234e-07
3.816775947368174e-07
3.822119267136715e-07
4.267758325438371e-07
4.280970922224164e-07
4.288824354107236e-07
4.27952403003152e-07
4.275666305766447e-07
4.243705611978812e-07
4.218432363196543e-07
4.183594133091173e-07
4.146901897900697e-07
4.106710162542693e-07
4.065282531685928e-07
4.023195801504644e-07
3.981907970574092e-07
3.942498753821301e-07
3.906488209348652e-07
3.875781798303239e-07
3.851511984406386e-07
3.835282821437194e-07
3.830447571055145e-07
3.836688716047937e-07
4.145435404166056e-07
4.162639437144783e-07
4.17428721488772e-07
4.174543309189459e-07
4.167686429558649e-07
4.154453905272131e-07
4.136480595050793e-07
4.112986062314704e-07
4.085694898487017e-07
4.055475944947093e-07
4.023485143324123e-07
3.990615912030934e-07
3.95804527317438e-07
3.926847263212971e-07
3.898355705670951e-07
3.874135997927988e-07
3.854997327417084e-07
3.842827319029769e-07
3.84015393283827e-07
3.846576076309149e-07
4.028889185623553e-07
4.050395470929952e-07
4.066887765850042e-07
4.074223643636588e-07
4.075718024965416e-07
4.070529476172158e-07
4.060530771809956e-07
4.04615785650599e-07
4.028030391474341e-07
4.006911871598312e-07
3.983783326389374e-07
3.959450128480658e-07
3.934939841671083e-07
3.911226764730747e-07
3.889448797969532e-07
3.870845568480079e-07
3.856591937092716e-07
3.847749224575746e-07
3.846568844779079e-07
3.85259808289059e-07
3.918206331492414e-07
3.944552091389577e-07
3.966696372927349e-07
3.980975627365168e-07
3.989834376561677e-07
3.992556572082078e-07
3.990987377646823e-07
3.984930079861173e-07
3.975179725182269e-07
3.962362384343404e-07
3.947268635725609e-07
3.93065803597084e-07
3.913411519806792e-07
3.89640822739252e-07
3.880627770210399e-07
3.867084635662002e-07
3.856786435942025e-07
3.850641477092009e-07
3.850364906128408e-07
3.855558527604578e-07
3.812839573975127e-07
3.845095172271707e-07
3.873539666635131e-07
3.895146053312577e-07
3.911777934684776e-07
3.922550218583349e-07
3.928719368938522e-07
3.930459350990546e-07
3.928322738355491e-07
3.922890326896057e-07
3.914864200128239e-07
3.904958719170797e-07
3.893979088849717e-07
3.8827246227665e-07
3.872060669768595e-07
3.862811344281814e-07
3.855879792592295e-07
3.851879589866235e-07
3.852081372381226e-07
3.856131877367326e-07
3.715618481800067e-07
3.755107089328949e-07
3.790817352768223e-07
3.820238893924756e-07
3.84449787851852e-07
3.862967738954622e-07
3.876473130596315e-07
3.885132517152485e-07
3.889543916142049e-07
3.890261215650821e-07
3.887993294970684e-07
3.883465747787063e-07
3.877471041288277e-07
3.870782103545692e-07
3.86419318637134e-07
3.858405249698058e-07
3.854151811982515e-07
3.851856700045117e-07
3.852333706339574e-07
3.855199483474982e-07
3.625152391599971e-07
3.674211004347515e-07
3.718884069042009e-07
3.757215051409384e-07
3.789634841027028e-07
3.815684687426983e-07
3.835888428934291e-07
3.850507696747112e-07
3.860157187862419e-07
3.865490918114586e-07
3.86731171610919e-07
3.86645305749635e-07
3.863799950354193e-07
3.86019296494153e-07
3.856454466977051e-07
3.853234065291306e-07
3.85115789683837e-07
3.850393160742003e-07
3.851321352273209e-07
3.853253079669787e-07
3.551090282596107e-07
3.611345288954212e-07
3.665795506546725e-07
3.713127068277743e-07
3.753264393461293e-07
3.785889842115036e-07
3.811456564903958e-07
3.830326371091646e-07
3.843263343961404e-07
3.851080189491167e-07
3.854775981531427e-07
3.855377436315959e-07
3.853965362007873e-07
3.851548551287402e-07
3.84908890132008e-07
3.847293420934376e-07
3.846776670148282e-07
3.847507656489376e-07
3.849530894855083e-07
3.851497453572904e-07
4.176586760107104e-07
4.300841035827568e-07
4.518585803464572e-07
4.798659108399408e-07
5.103261450949017e-07
5.397819307772788e-07
5.654652458518533e-07
5.854230615378856e-07
5.990012167551037e-07
6.042129458562342e-07
4.100770357488344e-07
4.209846553535099e-07
4.402911524821375e-07
4.655547055128026e-07
4.936943462362406e-07
5.21774345957161e-07
5.473099301387687e-07
5.680017686910954e-07
5.831049521524572e-07
5.902619972505397e-07
4.03933566680406e-07
4.134777581809e-07
4.304352318707538e-07
4.528301861941731e-07
4.781095633902277e-07
5.037965365707624e-07
5.279836795751702e-07
5.486975233690251e-07
5.658365979763186e-07
5.770108967099318e-07
3.988504287610695e-07
4.071611246563734e-07
4.220138365847884e-07
4.41835571223444e-07
4.645235536323469e-07
4.879197831924568e-07
5.103794270884129e-07
5.300361941076082e-07
5.468477533754855e-07
5.603184499767576e-07
3.943095209362121e-07
4.015271986779882e-07
4.144818954459245e-07
4.319231459920898e-07
4.521366902394686e-07
4.733174803381677e-07
4.940963400623894e-07
5.129084376524863e-07
5.291661622455712e-07
5.43420206982604e-07
3.901960850909489e-07
3.96458523967408e-07
4.077433137256035e-07
4.230502452093877e-07
4.409555389552031e-07
4.599418396280067e-07
4.787859362591519e-07
4.963508015206783e-07
5.116331085915339e-07
5.261096745882211e-07
3.862412846792248e-07
3.916755309378154e-07
4.015017210290165e-07
4.149261365084081e-07
4.307631643387203e-07
4.477703388102071e-07
4.648062843582306e-07
4.810976268890918e-07
4.952220973059815e-07
5.091506537414145e-07
3.823328956336256e-07
3.870496135831533e-07
3.956020647997348e-07
4.073579448066618e-07
4.213134306824926e-07
4.364640571291258e-07
4.517349029015489e-07
4.666822756408203e-07
4.796608810843957e-07
4.927692540568048e-07
3.783250372002378e-07
3.824259888231516e-07
3.898805204992465e-07
4.00186431855337e-07
4.124861563109612e-07
4.259732402680218e-07
4.396279964784655e-07
4.532302016910456e-07
4.650617240092116e-07
4.771428952887768e-07
3.741154075601848e-07
3.776865620048304e-07
3.84192102854645e-07
3.93231244884664e-07
4.040654355451729e-07
4.160490404634565e-07
4.28232168921064e-07
4.405404428442978e-07
4.513009707732763e-07
4.623167787686189e-07
3.695930238163963e-07
3.727125642941017e-07
3.784079821870415e-07
3.863570350287197e-07
3.959201749358987e-07
4.06574223833247e-07
4.174469165388616e-07
4.285381974780018e-07
4.383016532291802e-07
4.4827134066823e-07
3.646608406206802e-07
3.673961622977575e-07
3.72402249729056e-07
3.79416419449797e-07
3.878834470761649e-07
3.973725689435598e-07
4.070968076523707e-07
4.170837988170342e-07
4.259494490919723e-07
4.349546404858797e-07
3.591944237043508e-07
3.616073349888946e-07
3.660367065821778e-07
3.722638145135404e-07
3.798052139636223e-07
3.882962598708369e-07
3.970368206468378e-07
4.060479362175054e-07
4.141297356882726e-07
4.222698472726857e-07
3.530988428103541e-07
3.552450415751598e-07
3.59200266081013e-07
3.647774106070957e-07
3.715542313344022e-07
3.792128309519611e-07
3.871357593790542e-07
3.953191513023935e-07
4.02735491452802e-07
4.101369521368332e-07
3.461811679777929e-07
3.48114384806203e-07
3.516958116354145e-07
3.567599111530617e-07
3.629358177667009e-07
3.699372361708224e-07
3.772228483689992e-07
3.847535974092309e-07
3.916650668870145e-07
3.984954633377783e-07
3.383827100270633e-07
3.401545800695556e-07
3.434593607119486e-07
3.481451317324944e-07
3.538832437533975e-07
3.604074147448508e-07
3.672430187355986e-07
3.743096662202083e-07
3.80890652038825e-07
3.873310733734444e-07
3.293054243496988e-07
3.309719193398972e-07
3.341069685568862e-07
3.385654970116549e-07
3.440520044952227e-07
3.503109668150789e-07
3.569230351932816e-07
3.637623049542058e-07
3.70242107342979e-07
3.765296368740368e-07
3.191156660256051e-07
3.207342982327739e-07
3.238082318026398e-07
3.281940818427879e-07
3.336208217960644e-07
3.398365396203042e-07
3.464639151854281e-07
3.533299369159459e-07
3.599563715790122e-07
3.663495831016187e-07
3.067352406819141e-07
3.083853351235953e-07
3.115500572404797e-07
3.160815821307903e-07
3.217229900941066e-07
3.282198377216393e-07
3.352158697993746e-07
3.424907480512011e-07
3.49640429570121e-07
3.565291430869231e-07
2.934415112548206e-07
2.952025262377323e-07
2.985996697809929e-07
3.034785756517581e-07
3.09586754353597e-07
3.166656987302578e-07
3.243517813086148e-07
3.323959554093177e-07
3.403927692792991e-07
3.481319192826925e-07
)
;

boundaryField
{
    left
    {
        type            symmetryPlane;
        value           nonuniform List<scalar> 
30
(
4.17369996155486e-07
4.098236783625662e-07
4.037104890937162e-07
3.98655733312788e-07
3.941413847380458e-07
3.900505913696801e-07
3.861159438915948e-07
3.822246906368747e-07
3.782317994411659e-07
3.740351012075683e-07
3.695241187112249e-07
3.646020818186763e-07
3.591448801716886e-07
3.530578414443361e-07
3.461482189936043e-07
3.383575050557709e-07
3.2928760745723e-07
3.191048856207614e-07
3.067303751023618e-07
2.934409654015392e-07
1.158326773650812e-06
9.047872291801562e-07
7.349850699619416e-07
6.309024266299367e-07
5.596522779580053e-07
5.125661633646691e-07
4.792894548163234e-07
4.56073830202064e-07
4.39098905215728e-07
4.264318979982978e-07
)
;
    }
    right
    {
        type            calculated;
        value           nonuniform List<scalar> 
30
(
2.450861448705828e-07
2.469186071030201e-07
2.505103591793507e-07
2.557787142044667e-07
2.625558163127314e-07
2.706666737640928e-07
2.797906606281091e-07
2.897207920334906e-07
3.000008969432329e-07
3.104336408776603e-07
3.203203596037851e-07
3.293461460798657e-07
3.379280410364697e-07
3.459005189329871e-07
3.531688625563339e-07
3.59661674374196e-07
3.653473968382179e-07
3.702191259042886e-07
3.743007114961932e-07
3.776164983372427e-07
3.802413991486739e-07
3.822462996833385e-07
3.837049855925312e-07
3.846952531299535e-07
3.852937921484132e-07
3.855852197111751e-07
3.856353517463617e-07
3.855367654398166e-07
3.85335494339961e-07
3.851745030718013e-07
)
;
    }
    down
    {
        type            symmetryPlane;
        value           nonuniform List<scalar> 
30
(
4.228721036959427e-07
2.803113314995178e-07
1.994362716911098e-07
1.647622014646057e-07
1.518034722708359e-07
1.538532056361663e-07
1.62638284053529e-07
1.754223570127932e-07
1.892359738779815e-07
2.031146289240323e-07
2.174834322598487e-07
2.295148999932255e-07
2.40747364308116e-07
2.509187682518739e-07
2.598392128919836e-07
2.676497895122742e-07
2.742723666951779e-07
2.797676697034324e-07
2.841213519281559e-07
2.873456978873979e-07
2.894181308261263e-07
2.903221927726322e-07
2.899877026087886e-07
2.883911515681944e-07
2.853558766278067e-07
2.809371646628249e-07
2.7466873217182e-07
2.670377583897928e-07
2.566013939118727e-07
2.457691424437745e-07
)
;
    }
    up
    {
        type            calculated;
        value           nonuniform List<scalar> 
30
(
2.930223207584997e-07
2.947810917406237e-07
2.981800297949834e-07
3.030624350280949e-07
3.091762445601671e-07
3.162676493745225e-07
3.239668901598953e-07
3.320377135821193e-07
3.40048989617441e-07
3.47836013442616e-07
3.548351577430883e-07
3.609023852558357e-07
3.663900003548698e-07
3.711557568819604e-07
3.752014967884588e-07
3.784886869374514e-07
3.810660413491067e-07
3.82968501493334e-07
3.842741006108694e-07
3.850643101928102e-07
3.854402657522683e-07
3.855051778560242e-07
3.853681585501768e-07
3.851303540304111e-07
3.848888546560412e-07
3.847136323580797e-07
3.846672064383762e-07
3.847429586318662e-07
3.849487600973673e-07
3.851314380094553e-07
)
;
    }
    hole
    {
        type            calculated;
        value           nonuniform List<scalar> 
20
(
4.467348571828403e-07
5.732970659921872e-07
6.95094749809007e-07
8.091779026013139e-07
9.127651849671509e-07
1.003318615017927e-06
1.078603430876872e-06
1.136755052827028e-06
1.176318873838035e-06
1.196210625575296e-06
4.375147909536358e-07
4.174710662129996e-07
3.773121842348579e-07
3.18296218331071e-07
2.42005675785385e-07
1.503846735895173e-07
4.578534719455901e-08
6.916085701809152e-08
1.915841407275086e-07
3.184759857513134e-07
)
;
    }
    frontAndBack
    {
        type            empty;
    }
}


// ************************************************************************* //
