/*--------------------------------*- C++ -*----------------------------------*\
| =========                 |                                                 |
| \\      /  F ield         | foam-extend: Open Source CFD                    |
|  \\    /   O peration     | Version:     4.1                                |
|   \\  /    A nd           | Web:         http://www.foam-extend.org         |
|    \\/     M anipulation  |                                                 |
\*---------------------------------------------------------------------------*/
FoamFile
{
    version     2.0;
    format      ascii;
    class       volSymmTensorField;
    location    "1";
    object      sigma;
}
// * * * * * * * * * * * * * * * * * * * * * * * * * * * * * * * * * * * * * //

dimensions      [1 -1 -2 0 0 0 0];

internalField   nonuniform List<symmTensor> 
1000
(
(87987.48036339 -54184.67001622561 2.208624655428934e-10 38097.78842376282 -2.265420723038039e-11 37825.58063614585)
(114550.1118767449 -42067.92168562819 1.338715022129285e-10 6148.169886506304 4.262893963152247e-11 36209.48452897535)
(127533.8672190928 -33390.63653877483 -1.095096415513498e-10 -8248.226822659286 5.610154261114989e-11 35785.69211893007)
(134643.7335540155 -27269.91406424867 9.532217613864754e-11 -17910.95671966015 4.262576453625293e-11 35019.8330503066)
(138092.3617370455 -22612.48111605971 9.414454091412166e-11 -22638.64261104389 3.743485112330495e-11 34636.11573780049)
(139279.916310837 -19115.04755378858 -3.296042648222924e-11 -25280.84886466734 -1.988345186495475e-11 34199.72023385091)
(139280.8069730581 -16336.17504482521 -9.158408600685074e-11 -26212.16908278949 -4.827068067505563e-11 33920.59136708059)
(138392.2043770884 -14176.77396651082 -5.272852379696625e-11 -26291.01020999815 -3.105209745828474e-11 33630.35825012708)
(137366.226069879 -12354.87589176942 1.161639961494348e-10 -25722.45610843891 4.256580538361007e-11 33493.13098843202)
(135405.2960582694 -10793.51290095631 1.506632579239866e-11 -25101.3821636582 2.16767792978781e-11 33091.17416838337)
(117309.4552893154 -65114.67293677593 6.534276623153862e-11 44715.36589787713 -9.761099540068839e-11 48607.44635615775)
(136483.4782412781 -44787.8907440727 -2.030339146638074e-10 13271.89643456416 -2.208156353131644e-11 44926.61240275268)
(144877.6559457627 -31631.67781640561 4.87711775267387e-11 -753.0897804343404 2.598884289375354e-11 43237.3698495985)
(148422.486858778 -22951.54393153675 2.621952270396521e-10 -10785.7675196788 1.422982182160688e-10 41291.01580172977)
(149356.7977659749 -16888.9503121847 2.320057355711473e-10 -15871.80605127759 1.521936473042397e-10 40045.49751440918)
(148569.573876538 -12692.6362095512 1.936170943116975e-10 -19075.01991576123 1.175947747061372e-10 38848.36618823302)
(147050.1664920982 -9622.537518874187 1.089453201794862e-10 -20515.15297610877 8.098767986931098e-11 37960.50405479684)
(144963.1048959636 -7457.075278569392 -8.728396839772167e-11 -21196.36735658557 -3.843217574765436e-11 37130.02126181341)
(142801.769072245 -5756.272078598349 1.446113568184065e-10 -20996.13258268355 8.362438704024306e-11 36541.69094686842)
(140152.0178996462 -4542.961024979929 2.271331731178895e-11 -21139.0248687529 -1.438228038197938e-12 35703.89790926799)
(149233.4371720502 -73081.51208403253 -3.289256975477373e-10 47379.81223418641 9.793693739905119e-11 58983.97482187099)
(158744.4392277835 -45990.59704701532 2.016796020170847e-10 18980.53156084107 3.598795299353669e-11 53317.49123658738)
(161313.6112884426 -29202.39660982161 -4.719209901620595e-11 6727.801506667594 -2.573005781205045e-11 50412.42383853305)
(160612.8762649058 -18479.85291574055 6.723280507602622e-11 -2838.018383330294 -8.536403076958924e-13 47332.45736447264)
(158670.8765997355 -11334.07191109577 6.288807978343434e-11 -7796.929690767392 2.965975265881526e-11 45262.18407269042)
(155732.1956420004 -6632.629535883485 1.21827717332868e-10 -11280.81345782865 7.011577284331217e-11 43335.41465525152)
(152641.4642151055 -3392.384009512349 9.169072030499587e-11 -13070.86637132155 3.165968662519693e-11 41871.17935313517)
(149315.8858475844 -1260.966826656915 -5.377171400733014e-12 -14266.54825166881 7.134439387281721e-12 40514.80127877469)
(146179.8077837907 279.0009461123425 3.535345017826908e-12 -14475.08525994805 -3.596323578126085e-12 39511.41675715279)
(142690.7504974057 1399.381871442003 -1.13801373465513e-12 -15250.75891005948 -3.216143867102961e-11 38231.99747620388)
(182428.0671569942 -77139.43781334083 6.173935309772144e-10 46579.25931081646 -8.780852792530706e-11 68702.19794034319)
(180614.4379593325 -45414.74608812989 -6.162214022699115e-11 23299.46468352903 1.529371348871356e-12 61174.17079285847)
(176472.175575984 -26216.76970494924 -3.030090398086168e-11 13953.47745014076 -7.417459352185755e-13 57127.69590783743)
(171071.137011678 -14181.56705502193 1.059206449041494e-10 5543.023639812869 5.035462837526533e-11 52984.24819544727)
(166024.6136068503 -6389.040997553182 -1.477603702333129e-10 1097.855571743217 -8.827009533312316e-11 50136.74075357804)
(160862.7994312859 -1424.794537336061 -5.819691490431988e-11 -2441.349004818141 -3.224028944878694e-11 47526.43512794031)
(156190.39443324 1850.072601351791 -1.074310073934508e-10 -4481.984665157557 -6.719992613187792e-11 45512.52293042473)
(151709.0275662671 3904.243642390958 7.225972808975223e-11 -6115.595486597711 4.56985797843401e-11 43678.0296239008)
(147669.2116035443 5261.924605604859 -7.682938258341423e-11 -6784.510670581003 -6.837755393841846e-11 42265.41027988899)
(143576.7544041461 6255.58285838897 6.268480248876629e-11 -8065.039040093885 3.704771891615454e-11 40653.51460921566)
(215324.0772696923 -76643.22820807427 2.368989518470275e-10 43096.46692418824 -5.27553706159517e-12 77526.16325816415)
(201321.2352488947 -42906.68650393729 -1.613169421555947e-10 26369.75534718307 -5.2904203192468e-11 68307.29717882334)
(190035.8552919941 -22787.92129623868 2.550179190675243e-10 20711.18417760074 1.166448537935996e-10 63224.11184087847)
(179762.6313379851 -10323.627239285 -4.438054830968057e-11 13955.91614681036 -2.811027049965314e-11 58115.56424543865)
(171561.6979984293 -2405.464249754712 8.908251607379821e-12 10314.5914981787 7.546329145526172e-12 54562.8868489824)
(164207.7765986504 2529.335409991732 -9.196395443683789e-11 6902.002323211316 -6.597876617426586e-11 51332.93367655853)
(158030.5638738847 5680.439210644146 -5.009747509892904e-11 4703.785782409563 -4.028001322593939e-11 48820.30489688827)
(152484.7246978723 7589.810206125252 4.197216869946551e-11 2694.538268169563 3.739099689526697e-11 46553.77888981255)
(147677.320317762 8744.457990835444 -1.159606366753753e-10 1548.441208175063 -9.025333159624647e-11 44767.72845778112)
(143084.2797718672 9601.273877095988 6.341185339830981e-11 -182.6895246466374 3.886709684311984e-11 42870.47707416618)
(246226.1716160047 -71318.37408721072 -9.412977002357024e-11 37904.97826984278 1.029369802930249e-11 85239.34496575425)
(220081.844655466 -38440.20526362703 7.410511153784884e-11 28389.5398009957 2.547511905204581e-11 74541.41533693852)
(201735.0390682749 -19020.21924740659 6.79879248632205e-11 26767.45582391189 2.933293965835444e-11 68550.74846765606)
(186732.9916206923 -7082.379047646697 -8.913179408347904e-11 21928.03944407163 -4.661157659114287e-11 62598.30931942919)
(175512.2315466138 403.6741141725609 -1.187331661189109e-11 19247.77032663429 -1.439090364631112e-11 58428.00056197443)
(166108.6952543116 4999.377423804856 -2.203489834664404e-10 16081.74873062879 -1.219723493967076e-10 54657.13319548212)
(158556.6658371521 7862.835081496607 -1.440745850983274e-12 13797.09783386398 2.398056698975683e-11 51706.12910130484)
(152073.551718876 9554.442080965509 -3.764795032751911e-11 11481.70800709157 -4.386944092773592e-11 49066.57791779028)
(146616.8154786666 10492.4307079314 -1.45745258409126e-11 9873.433506054214 -2.208057956535989e-11 46947.07469541624)
(141632.6499064075 11201.27924950298 3.938740655301873e-11 7767.271946391331 4.323764498794113e-11 44819.97655583965)
(273438.5686548038 -61297.54183824841 -4.201037080366443e-10 32065.93140576588 9.92637165720592e-12 91651.3500181709)
(236142.5871293163 -32129.10936143171 2.045306850270986e-10 29599.37912685535 9.341738454595637e-11 79722.5898768515)
(211345.3423265122 -15009.53139550352 -2.175902100253112e-11 31909.99192318771 -1.61220046974263e-11 72976.60027490999)
(192078.7761252939 -4540.672756978187 -9.473112302409248e-11 28995.88767398708 -3.148219035356208e-11 66322.39913978431)
(178163.0372319987 1966.137401022994 -1.028606498308644e-10 27297.79761246763 -6.180145868074409e-11 61638.2504533399)
(166960.7882929149 5919.395895560544 1.783138397734758e-10 24432.27811864792 6.454250722458544e-11 57417.91992346886)
(158226.6921126162 8338.369437165564 -5.492132374955064e-13 22111.34304179511 1.986825623138547e-11 54101.41054632341)
(150954.8504753568 9742.101036247466 -6.32234463038767e-11 19555.25444694814 -2.54690758873894e-11 51153.03147669147)
(144977.1491559818 10461.54770139927 7.125647597030903e-11 17529.12535131223 4.758319504484571e-11 48751.88235218822)
(139687.0975355668 11019.73402738026 -2.168039752107144e-11 15122.72694073832 2.304029198709698e-11 46442.94734289155)
(295403.4404196189 -47115.08953365895 3.895049138624689e-10 26608.82826611605 4.016147271023143e-11 96603.68060572047)
(248841.6937936944 -24216.7715753805 -5.760845678221201e-11 30242.31338347807 3.204114251555174e-11 83725.20215315174)
(218704.9077862153 -10832.29794989165 -5.163265803199721e-11 35948.97957113654 -6.267795968966357e-11 76396.16620720555)
(195939.1346410345 -2674.94175745503 -5.79706996907346e-11 34729.17785144198 -4.958926963067599e-11 69200.49374774293)
(179827.6239088029 2365.25131832668 -4.210296655175745e-11 33903.82906143899 2.165805023863104e-11 64119.43589107258)
(167177.2796387227 5406.432050048499 1.542638818053881e-10 31330.38426813315 7.463469677412126e-11 59552.29917205674)
(157504.8803263784 7243.653268745471 2.245165578858945e-11 29003.50487066163 -1.851197288147487e-11 55952.51555911202)
(149617.5915896692 8297.102774014016 7.944117835604948e-11 26271.31979116693 2.934795052958628e-11 52766.67341425084)
(143247.7399188181 8803.067571321882 5.390498511451526e-11 23900.28169175075 2.04228086034583e-11 50144.40648317067)
(137733.0264075842 9206.74643267087 -1.141016682344516e-10 21270.88408747139 -5.575106905017486e-11 47701.17314851669)
(310817.4691717185 -29673.20624029683 1.227996150070358e-10 22416.58892322733 -2.260987842653744e-11 99970.21742848374)
(257621.2239807808 -15072.30159133426 -3.629214089098546e-10 30526.27769127489 -2.13544265375068e-11 86444.25050161671)
(223669.0653964148 -6553.349751111465 -2.968405364759923e-10 38723.6088577081 -5.966557421223803e-11 78717.80227623688)
(198416.7851605832 -1370.037424990926 2.366495875076737e-10 38759.62061827163 4.688695418368371e-11 71152.92173365643)
(180752.4070780895 1821.334213277574 4.83469448429027e-12 38585.07364338585 2.170499294714744e-11 65801.24421644262)
(167086.3041124145 3739.285211601437 -9.827283863153028e-11 36239.98030865188 -2.892190633847967e-11 60997.88532631993)
(156762.6728683552 4888.741466556762 -3.033812165142353e-14 33919.79360811997 1.109793099657529e-11 57204.73994294256)
(148452.8517044312 5543.167356706484 1.329242576288971e-10 31072.13019424392 5.001047311015943e-11 53857.49456960255)
(141821.9425652139 5843.846959453689 4.171076444230834e-11 28454.6967163634 -4.166065831658452e-11 51082.99178447318)
(136159.2526324514 6089.223763242539 -1.163169733566303e-10 25676.14290472065 -2.818409692252777e-11 48550.6186611516)
(318747.5693660938 -10140.50452027924 1.358057513560126e-10 20178.16493199376 -3.349848152505535e-11 101677.7202894263)
(262121.9490258197 -5127.991231880664 3.626305588542052e-10 30702.06152429208 -6.691696978822722e-11 87847.20316503353)
(226192.8062675079 -2201.447799625265 -4.449203095200718e-10 40259.72951245632 4.851450994122521e-11 79935.76073398927)
(199652.4638374597 -420.5447880697617 5.70220421183804e-10 40987.26515997927 5.681477192213974e-11 72191.91869923168)
(181184.6716618423 674.8895839057527 -3.09433816335441e-10 41174.61388326199 -5.15703775749577e-11 66707.78566353128)
(166994.4946061996 1332.492151629645 -3.836100370484855e-10 38960.51972529484 -1.184541797014214e-11 61786.50429944833)
(156336.3890714411 1725.38301084307 2.108958986183731e-11 36649.08816878161 3.683404713690078e-11 57895.6431720668)
(147810.6009300961 1948.586354105456 2.637795827724731e-10 33742.55750308304 3.34352805608086e-11 54465.94752995374)
(141048.6215617497 2049.185884348436 -6.450578642296755e-11 30994.5798953234 -9.039330983326124e-11 51612.96043712192)
(135313.0218071252 2132.265734679309 5.995411403373801e-12 28134.64648010099 1.159808924252657e-11 49034.30048616786)
(-8082.932464520276 2663.417246664704 -3.241192811238313e-12 -116999.8658445108 -5.397158423930804e-11 -37524.83949270934)
(-4959.993155278498 -1190.776456549232 0 -77204.03049664022 0 -24649.20709557561)
(-1158.309962826102 -3155.277640632229 -2.733805783688305e-11 -52819.29157815561 -5.494964163933544e-11 -16193.28046229452)
(7202.373176713005 -4205.517355541966 1.757681297073072e-11 -36188.3856350827 2.966242344053949e-11 -8695.803737510907)
(15105.66294998944 -4695.345163251606 2.332822668643259e-12 -25277.05032415154 -2.05126225398309e-11 -3051.41621224863)
(23515.89238827439 -4867.446486386671 3.445374995399709e-12 -17457.39001262551 -4.217504819143163e-12 1817.550712694664)
(31159.1450627979 -4854.686304314367 -1.126663058627479e-11 -11951.36159749605 -7.618507785186276e-12 5762.335039590555)
(38436.40973978928 -4743.216510305215 -3.448496684300458e-11 -7768.618225864768 -3.082776495148135e-12 9200.337454177352)
(44900.79661738213 -4553.739928975408 2.140667679313618e-11 -4661.091732916471 6.111401617082745e-12 12071.9114653397)
(50961.12364319961 -4415.677041196784 1.464568499254901e-11 -1966.795768421183 -9.684314365857078e-12 14698.29836243353)
(-7896.823945366763 7406.898685680982 -5.020911907019244e-12 -111346.2612929369 -1.796729058284121e-11 -35772.9255714911)
(-2732.972643222751 -3736.167875951837 1.342120938027203e-11 -74628.49478823852 1.861182533854086e-11 -23208.44022943838)
(2150.539054537672 -9384.815193524912 -5.604522336578079e-12 -51930.18696129859 -6.163938641110331e-12 -14933.89437202827)
(10961.45094260676 -12384.54317380307 -3.836970641187084e-11 -36366.47239737165 -2.823862891818611e-11 -7621.506436429468)
(19027.46036609511 -13771.21060171565 1.923044186663903e-11 -26073.67851911121 8.650542104337347e-12 -2113.865445904832)
(27402.35573161612 -14243.00896372413 7.233778829822281e-12 -18628.70026797224 1.324677500111051e-11 2632.096639093163)
(34913.55292568771 -14185.51480615524 3.60093407125541e-11 -13331.65843590675 1.716477528054918e-11 6474.56834693429)
(42014.26034982164 -13844.39914323063 4.533661445992074e-13 -9261.803685471757 -1.469944866939912e-14 9825.736999304965)
(48241.88471326093 -13282.84729470119 -1.764791597178696e-11 -6194.159792662742 -1.07596571941411e-11 12614.31747617946)
(54145.96532411105 -12870.12320142668 2.176721015326143e-11 -3506.612858741508 1.309236556575922e-11 15191.80573961086)
(-7445.008533695629 10575.77991187284 -8.89490295905731e-14 -100428.4524633844 -3.051576841476066e-12 -32362.038299124)
(1476.636923619619 -6625.928287608762 0 -69679.59381362805 0 -20460.88706700253)
(8246.202559410172 -15295.01668440809 9.184104858230104e-11 -50226.09319917471 6.541419358097689e-11 -12593.96719192936)
(17843.07336317015 -19862.33831072667 -4.876815171045744e-11 -36705.75533842813 -2.647877012931136e-11 -5658.804592577395)
(26169.39635937011 -21941.69492574183 1.632595250316136e-11 -27595.53719715364 8.107144372784058e-12 -427.842251335059)
(34455.7674966982 -22611.08272899441 -1.149039319005292e-11 -20867.40037522429 -1.730085724712989e-12 4076.510136442175)
(41706.29137070377 -22470.54841909722 -1.187767844214218e-11 -15971.04481167106 -1.024832975873835e-11 7720.573967709811)
(48470.23151841205 -21892.50884032854 5.554155336952927e-11 -12118.25961558411 1.269069290430103e-11 10905.59157084838)
(54251.10569683472 -20987.77179337906 -2.692933845703698e-11 -9130.474200042287 -2.875282838327978e-12 13536.18944903773)
(59868.15740983313 -20309.93958244157 7.207769262620323e-13 -6460.420301844826 6.520975454435594e-12 16022.32113239649)
(-6060.505425882282 11370.04816964165 -6.227657491378316e-12 -85067.6067024198 4.539813305674499e-11 -27338.43363849062)
(7895.657282576198 -9979.492111616009 -5.332017177662716e-11 -62601.93717514978 -6.522319922115599e-11 -16411.88396777208)
(17165.21288304674 -20646.44447709217 4.98804532785206e-11 -47642.18975193328 3.611213064148832e-11 -9143.093060665962)
(27763.70218571388 -26206.97843863246 2.146086784792595e-12 -36968.12414536142 4.74037734883237e-12 -2761.326587894263)
(36387.88456007395 -28670.22421480046 -2.33713059466264e-11 -29508.4145986617 -1.105301239967519e-11 2063.840988423674)
(44500.87114016325 -29385.75527619823 -8.511019733950408e-11 -23789.45648140023 -3.572869548849447e-11 6213.424397628907)
(51353.52166312069 -29106.49918882986 -1.251189208220134e-10 -19464.07496687031 -4.533537614416288e-11 9566.834008875116)
(57617.06061603822 -28283.36856698189 -8.216083961741158e-12 -15925.57626334691 7.156239035625417e-13 12507.44530580739)
(62761.13893333696 -27081.91277772735 1.68137332378743e-11 -13065.41581116715 -2.05979282492906e-12 14908.71693665094)
(67952.75789869628 -26156.79269244232 6.423778290606935e-11 -10427.73878488344 9.954693065394686e-12 17257.50573414385)
(-3035.006539426246 9209.804940967731 4.290139842448934e-11 -66440.5056376751 1.354724151224418e-10 -20842.6536531304)
(16572.28194471072 -13888.43377833317 -6.043386217840881e-11 -53825.07850171193 -7.075485772370557e-11 -11175.83896710036)
(28608.80045704982 -25267.23680750531 -5.934034027871806e-11 -44213.46789956778 -4.313098273922581e-11 -4681.400232755387)
(40235.72807250539 -31096.74522521033 3.008724680723873e-11 -36953.7993927663 2.952853233450423e-11 984.5786039217243)
(49099.21584188502 -33556.93376062588 2.996394315885981e-11 -31481.66083730839 1.648015777616453e-11 5285.266501372986)
(56912.95597094909 -34130.59657029624 -4.546990875437792e-12 -26992.13126570417 -4.319406051576312e-12 8976.247411573475)
(63225.81281530492 -33644.57222196766 2.418772246333058e-11 -23372.66422430803 1.624735279475588e-11 11955.94457729907)
(68831.68968771702 -32570.28392493559 -8.146097556484116e-11 -20232.13976831147 -1.834729307911621e-11 14579.86497582167)
(73186.43165714943 -31130.08607766786 1.729025525782169e-11 -17550.46955362035 2.514184761821477e-11 16690.78863105873)
(77815.06812260588 -29985.43554078642 9.208562948670077e-12 -14966.53659077708 2.159229112100539e-11 18854.55945954864)
(2443.133291263122 3862.033959352088 -3.360505530710267e-11 -45910.35597130675 -4.326431726894075e-11 -13040.16680401309)
(27554.52720783225 -18346.25785223518 2.820070433346553e-10 -43830.42682473017 2.51664027506651e-10 -4882.769885069375)
(42219.08581892764 -29023.92084572572 -2.41934192166199e-10 -39938.7026068417 -1.446250940540079e-10 684.1149636257823)
(54682.8420417059 -34328.00047950506 1.329792695296829e-12 -36379.04508080113 -1.269715879226708e-11 5491.139088271432)
(63616.24153574748 -36362.18011294722 2.028956149448994e-10 -33074.06693483381 9.195332652552777e-11 9162.652380274101)
(70957.88030780182 -36590.97849018018 7.704688637645005e-11 -29949.2198124792 3.307998164691765e-11 12302.59814859679)
(76582.44621680601 -35825.51638083616 1.610778702925963e-10 -27133.00972542622 6.878968664782602e-11 14834.83094741394)
(81381.98121202513 -34498.31266078799 2.935046731274004e-11 -24460.00587850287 1.982762821089275e-11 17076.59260005668)
(84834.58723846909 -32880.10233537804 -2.394636999715589e-11 -22019.05305925759 5.233660987028418e-12 18844.66025376345)
(88768.37447720781 -31552.1880039586 -6.033571400450416e-11 -19521.70816513746 -4.260946625050171e-11 20773.9998936211)
(11168.82335446311 -4534.80885051196 -2.445013674767858e-11 -24940.46993360069 -1.810028681439552e-10 -4131.493973741274)
(40852.12294805934 -23249.93486540565 3.226214413168434e-10 -33163.73051302186 2.375218900950795e-10 2306.517730511243)
(57587.05035469052 -31833.40655736185 1.166858528019865e-10 -34861.37755108449 1.616508172408257e-10 6817.701841081808)
(70473.46367379454 -35831.28014886363 9.551095547435937e-11 -34988.36361471948 -3.412008139443953e-11 10645.53001772252)
(79197.08777375356 -37026.88848049587 -9.661202218098546e-11 -33858.93023758692 -4.91586176719724e-11 13601.44726085)
(85849.85987556749 -36718.57503380062 -7.534659892780397e-11 -32141.50685096363 -3.535083008070985e-11 16112.50590738116)
(90638.0164638698 -35608.06716050793 -6.099947051137439e-11 -30174.44909104599 -2.240860491975637e-11 18139.07021184715)
(94495.46094784857 -34036.88247040183 8.659274688208504e-11 -28027.84730756586 2.75201665237131e-11 19940.28409208481)
(96984.05427756727 -32302.16573012481 7.163955892181178e-11 -25883.23695777369 1.077416623337579e-11 21330.24519593807)
(100096.5856896171 -30830.41847197669 -1.177132664618844e-10 -23533.4166848756 -4.893109539692549e-11 22968.95070142245)
(23808.29627001883 -15476.83087455996 1.901393736365045e-10 -4945.206804677591 -6.878877317763707e-11 5658.926839602371)
(56402.61777892723 -28394.52178101904 -1.348716094115326e-10 -22365.81185952212 -1.755254034649785e-10 10211.04177582154)
(74257.84942302572 -33655.2458528962 2.720507815247781e-10 -29042.98296165513 1.940024339099894e-10 13564.45993841118)
(86943.32063380248 -35661.18392617131 9.732024839558218e-11 -32555.19572814977 8.715108653339595e-11 16316.43747169581)
(95067.66011193363 -35659.60777382038 -1.414937936577591e-10 -33448.96642198871 -4.890303059608974e-11 18485.60810698347)
(100769.9044826412 -34651.97111100359 -3.215877144848906e-11 -33088.81886072096 -1.560635950478482e-11 20304.32568657608)
(104562.3725748819 -33145.40991786694 -1.049057357633355e-10 -31982.74009614308 -3.61316221750675e-11 21773.88974362166)
(107354.6287862963 -31350.35656469754 -8.230150093256026e-11 -30396.11750052384 -1.389459105133757e-11 23087.55338573175)
(108851.974141158 -29553.36782974644 9.881657700384695e-11 -28644.29198870041 2.18868127625341e-11 24062.30464573728)
(111024.839563669 -27973.87934245935 2.073406239366772e-11 -26499.55799098427 -2.448694578823e-11 25357.5844718054)
(40802.85053835809 -28137.45032519602 1.120980729507512e-10 12823.3888202194 -1.292249492174341e-10 16087.87180757325)
(74066.01302269968 -33488.36015798393 -3.072365672240868e-10 -11943.26449280806 -1.575876934749475e-10 18636.82455896749)
(91785.70829074801 -34491.69244902982 -1.808585970129054e-10 -22576.27205908606 -9.649273442072485e-11 20762.83086949859)
(103495.2661577181 -33991.62969951556 -8.073006206646404e-11 -28920.31411108318 -4.268140615059222e-11 22372.48561399047)
(110567.0872719928 -32531.32198277256 -4.352253145040514e-12 -31530.28300636897 6.427651421359925e-12 23711.04127968715)
(115042.8266571576 -30722.6027643711 3.523883455096255e-11 -32396.21283623265 1.771771326121392e-11 24793.98414627749)
(117704.9292922096 -28797.8687704021 1.117619171653422e-10 -32085.31696776976 6.136947902690327e-11 25685.88369733197)
(119323.6459585329 -26837.37184911919 -1.404083770883492e-11 -31108.64591052516 6.017443452773096e-12 26464.50001440232)
(119880.338982157 -25033.12965802331 -1.282389038676129e-10 -29759.82499805663 -7.935425611611759e-11 27036.15419523011)
(120952.3376913753 -23401.21868299363 1.249926108511629e-10 -28075.20291121953 1.913603559924875e-11 27863.14043404675)
(62274.44700564997 -41446.40545815892 -2.787454406784344e-10 27383.10986638693 1.357234896379904e-11 26897.26706161107)
(93570.26261565613 -38177.73202452485 -3.401409619256981e-12 -2329.635729899204 2.539589722426196e-12 27372.18806572707)
(109682.1106440145 -34384.72275101266 -2.376168735302911e-10 -15594.01646106686 -1.245291622366817e-10 28226.4282548843)
(119528.1895179096 -31090.6696164488 -3.390928088486757e-10 -24025.77133639773 -1.777007593693291e-10 28650.72545445356)
(125019.4899294747 -28036.22779283873 -1.188958427809351e-10 -27941.10812002631 -5.540433053195452e-11 29123.51454283452)
(127957.0629218837 -25378.86149041904 3.087017997462975e-11 -29817.38254915611 1.924284947058163e-11 29441.90411181828)
(129292.5805495389 -23041.87641288076 -4.279299449351595e-11 -30223.16006406646 -8.347983205329384e-12 29720.82614564174)
(129630.2239820031 -20958.72993144615 6.949522616365833e-11 -29780.39371157092 1.980023464762137e-11 29954.94908112965)
(129225.351949059 -19239.56159610186 -7.773412724983185e-11 -29005.50229809012 -6.323970539979367e-11 30065.95489529067)
(129006.1440327663 -17612.58092734947 -6.277772885844862e-11 -27522.35484299851 -8.6197112089084e-12 30445.13675693034)
(56295.18072650982 -4079.536472320788 -3.357906792534471e-14 -190.5057302078421 2.076252762491709e-13 16831.40249889059)
(61146.91936025937 -3648.276556894023 -2.601013123054866e-11 1737.482864356043 -6.052775250682508e-12 18865.32066738463)
(65503.78374102502 -3304.806006854564 -1.569446106342898e-11 3354.147055118618 1.859531781062753e-11 20657.37923884309)
(69510.5155090435 -2988.196800971381 4.2481458733903e-11 4894.002971516282 6.231241264833122e-12 22321.35554416793)
(73136.56320789945 -2706.146668013407 1.573359710873485e-11 6376.753871512556 3.161321806200725e-12 23853.9951238236)
(76455.6829894767 -2456.364942895017 -4.346346132442878e-11 7843.719339044819 -3.258478463205705e-12 25289.82069855646)
(79485.06957317839 -2231.716133205488 -3.951416475976944e-11 9337.564916907937 1.247895045478228e-11 26646.7903470259)
(82258.22225982885 -2031.012253174755 3.429385381038175e-11 10879.04595491834 1.268261320417923e-11 27941.18046442416)
(84798.21790372946 -1848.808511638891 4.624464048289787e-11 12499.90583433318 3.165879414603726e-13 29189.43712141879)
(87124.97379378983 -1682.682685477879 2.811407132650809e-10 14220.93911798107 -3.585616112424528e-12 30403.77387353127)
(89253.20670157771 -1528.667813755036 -3.367086654710864e-10 16068.14203028577 -1.103078081035404e-10 31596.40461955905)
(91198.16359475657 -1383.82316240944 -2.976392167702413e-10 18067.24614214937 8.429001187868901e-11 32779.62292107178)
(92959.17761226755 -1244.804360244024 5.226384878427119e-10 20243.02788721672 7.54046608892946e-12 33960.66164984528)
(94556.9817308456 -1108.280157275115 -1.51195954453758e-10 22632.91260242659 -6.394207348458518e-11 35156.96829998166)
(95956.26894904424 -970.9957278795208 -2.481451627239406e-10 25257.98731760686 4.142380323563974e-11 36364.27687999533)
(97218.47526648264 -828.778791612417 1.325303090729181e-10 28186.21383752414 4.793102350042099e-12 37621.40673120203)
(98201.35123471101 -678.3590647090928 2.594781156115689e-12 31411.19856478603 5.762209980083779e-12 38883.76493984911)
(99142.38985780161 -512.7232811115385 4.80709101284751e-11 35092.75843658341 4.887872608874132e-13 40270.54448831551)
(99518.95672034763 -332.859257884188 5.004917375678176e-11 39099.32717363099 3.193150105608296e-12 41585.48516819359)
(100275.8388370219 -108.3041031754653 1.607018910864493e-11 43878.69363955996 1.217780850143036e-12 43246.35974297456)
(59096.54705125254 -11890.83292373566 -1.128949380633472e-11 -1637.227281807511 3.926633017564794e-13 17237.79593083351)
(63448.99728547921 -10654.82052804625 -3.067848423167905e-11 446.7648783567347 1.328830671424317e-11 19168.72864915078)
(67453.32291557416 -9666.176055855945 -2.687239046522479e-11 2219.910273147925 9.23160447523582e-14 20901.96995661662)
(71130.84220336327 -8755.241095480205 1.726712124903209e-11 3877.999788984518 -6.578576485240883e-12 22502.65259770433)
(74498.91559655461 -7940.197636763482 3.024307543728548e-11 5477.131444366649 3.493202689425519e-12 23992.81411227638)
(77589.90625478115 -7217.846852629219 1.073903224819968e-11 7035.116164515373 9.983216264024953e-12 25387.50672578896)
(80433.0987848778 -6565.947074444985 -4.741928428416575e-11 8610.835014081877 -1.688399216498949e-11 26713.1801396879)
(83044.46914941887 -5982.579806591877 2.034667869544348e-11 10217.96553335799 -9.296839788440528e-12 27978.73040483306)
(85448.9785510965 -5451.601085067945 4.023590130836651e-11 11894.17951840226 -5.430583644375457e-12 29202.94742084963)
(87658.58193192196 -4966.519616340489 3.033025179174058e-10 13658.91955728215 1.091539174847197e-11 30395.25044676123)
(89687.02166729329 -4515.809236143295 -1.832940435364727e-10 15540.32891309442 5.27680789360686e-11 31568.20517411631)
(91545.66292037716 -4091.069894826724 -3.173737439203851e-10 17564.13386393117 -5.604066067932119e-11 32732.9390352925)
(93232.53605527098 -3682.590569616566 4.219821022336375e-10 19755.83500718205 1.300523047429702e-11 33896.51131873591)
(94766.27452255046 -3280.652571269894 -2.047325763572105e-10 22152.80127412091 1.570850305196651e-11 35075.72273900141)
(96110.83594281727 -2875.744883464534 -2.002714039508343e-10 24776.15778443481 -2.834611607881374e-11 36266.09811817562)
(97326.22104592086 -2455.548017034757 1.742098228098161e-10 27693.21307325956 1.879321411991231e-11 37505.83023575413)
(98270.75502064216 -2010.501743393118 3.283717091405187e-11 30897.19739966322 2.565691347467652e-12 38750.38572609161)
(99179.87052717833 -1519.753583235717 -3.196384965602657e-11 34546.00032659369 -2.906874748185715e-12 40117.76125613161)
(99535.35844312565 -986.5522790916987 -7.533474788109661e-11 38507.37358131829 -6.840086015050069e-12 41412.81960733318)
(100274.4825701126 -320.9847596190509 8.124312516372729e-11 43223.76290947971 1.97322770300491e-11 43049.4736438777)
(64093.52331014561 -18799.06031030935 -3.52655502507632e-11 -4427.733228915826 -1.674844081441776e-11 17899.73702436894)
(67543.78176618458 -16933.51793260381 -2.747223583959112e-11 -2054.610771401589 -1.797181123997138e-13 19646.75129843489)
(70912.19151127819 -15412.16911715497 4.90931319146789e-12 21.81049100071687 -2.581714946883192e-11 21280.20060068367)