/*--------------------------------*- C++ -*----------------------------------*\
| =========                 |                                                 |
| \\      /  F ield         | foam-extend: Open Source CFD                    |
|  \\    /   O peration     | Version:     4.1                                |
|   \\  /    A nd           | Web:         http://www.foam-extend.org         |
|    \\/     M anipulation  |                                                 |
\*---------------------------------------------------------------------------*/
FoamFile
{
    version     2.0;
    format      ascii;
    class       vectorField;
    location    "1";
    object      solidsCellD_iteration14;
}
// * * * * * * * * * * * * * * * * * * * * * * * * * * * * * * * * * * * * * //


1000
(
(4.52975269242256e-07 -1.472296071711387e-07 0)
(4.317030716801954e-07 -1.392538422427795e-07 0)
(4.190037275444852e-07 -1.351690050319259e-07 0)
(4.124934703145887e-07 -1.345966496984707e-07 0)
(4.104246234324627e-07 -1.361793875393165e-07 0)
(4.116166797883222e-07 -1.393583933716997e-07 0)
(4.152531014940157e-07 -1.436403323664578e-07 0)
(4.205679745979173e-07 -1.488131109897003e-07 0)
(4.275330680583308e-07 -1.54497293273711e-07 0)
(4.347498008707939e-07 -1.604732298740183e-07 0)
(4.101367382736565e-07 -1.61080518126904e-07 0)
(3.875681706097997e-07 -1.566177167202054e-07 0)
(3.739441153798928e-07 -1.547979929236195e-07 0)
(3.666893201236623e-07 -1.557863918171009e-07 0)
(3.638942580711002e-07 -1.584448664260249e-07 0)
(3.643736344040711e-07 -1.623799236477313e-07 0)
(3.672788768440442e-07 -1.671635355318433e-07 0)
(3.718696384726594e-07 -1.72741482604284e-07 0)
(3.779963814267567e-07 -1.786092949583694e-07 0)
(3.844826630047867e-07 -1.850428554554053e-07 0)
(3.654811745389336e-07 -1.741756626369527e-07 0)
(3.424331433823458e-07 -1.736235739652902e-07 0)
(3.283711003003718e-07 -1.743290292927111e-07 0)
(3.207318106491161e-07 -1.769839425028934e-07 0)
(3.175400832966175e-07 -1.807521611571423e-07 0)
(3.175460086175253e-07 -1.85428576365835e-07 0)
(3.199257296471642e-07 -1.907168777591258e-07 0)
(3.239962307043931e-07 -1.966195379398441e-07 0)
(3.295322095796552e-07 -2.026818853116815e-07 0)
(3.356074646419048e-07 -2.091810763975038e-07 0)
(3.192523982053994e-07 -1.862843857521889e-07 0)
(2.968026875735291e-07 -1.897805437609656e-07 0)
(2.829730132967414e-07 -1.931024445138335e-07 0)
(2.753078367304434e-07 -1.974618743860241e-07 0)
(2.719580058827913e-07 -2.023472643417933e-07 0)
(2.716667421497549e-07 -2.077466840221061e-07 0)
(2.735704502760609e-07 -2.135038234206825e-07 0)
(2.771607224495513e-07 -2.196941359604385e-07 0)
(2.821050098253713e-07 -2.259489343986399e-07 0)
(2.877083490788911e-07 -2.325666892483472e-07 0)
(2.719726800300223e-07 -1.971457426705127e-07 0)
(2.509391769229759e-07 -2.046372148403336e-07 0)
(2.379273457560889e-07 -2.105139011203157e-07 0)
(2.306887500981705e-07 -2.165347855518847e-07 0)
(2.274180133686964e-07 -2.224986294926287e-07 0)
(2.269091326285438e-07 -2.286208352500636e-07 0)
(2.284245587904616e-07 -2.348504138041498e-07 0)
(2.315314060939899e-07 -2.413289660089555e-07 0)
(2.358906216172681e-07 -2.478098538735209e-07 0)
(2.408798103769076e-07 -2.545505563381231e-07 0)
(2.23608599832586e-07 -2.066036289835268e-07 0)
(2.050348304313805e-07 -2.178081276787128e-07 0)
(1.935195682734622e-07 -2.260736519414095e-07 0)
(1.870076941251365e-07 -2.336595458130341e-07 0)
(1.839717493053523e-07 -2.406329558591798e-07 0)
(1.83355420991987e-07 -2.474137111584986e-07 0)
(1.845791534052562e-07 -2.540724933157299e-07 0)
(1.87201286499549e-07 -2.608116121264571e-07 0)
(1.908919455253236e-07 -2.675221595881483e-07 0)
(1.951263651638777e-07 -2.744175961444051e-07 0)
(1.746352683809102e-07 -2.143874392359318e-07 0)
(1.592372441671662e-07 -2.288437199101494e-07 0)
(1.496692875165109e-07 -2.392168215461968e-07 0)
(1.442090433913694e-07 -2.481932070677935e-07 0)
(1.416365352686458e-07 -2.560455703921281e-07 0)
(1.410690407558293e-07 -2.633969216802397e-07 0)
(1.420241259439673e-07 -2.704297464735665e-07 0)
(1.441036564150455e-07 -2.774093303847802e-07 0)
(1.470325231266167e-07 -2.843310358060716e-07 0)
(1.504046542710705e-07 -2.91360881037131e-07 0)
(1.251241537638331e-07 -2.204001953721869e-07 0)
(1.135535562586037e-07 -2.374781385321707e-07 0)
(1.063830252775951e-07 -2.495106163653638e-07 0)
(1.02301629390578e-07 -2.595615599744524e-07 0)
(1.003782855351141e-07 -2.681315390306249e-07 0)
(9.992975306610642e-08 -2.759601657431027e-07 0)
(1.005872840954773e-07 -2.833291283251114e-07 0)
(1.020669174897317e-07 -2.905096660098451e-07 0)
(1.041810187603982e-07 -2.97607962364381e-07 0)
(1.066307539069266e-07 -3.047569212333104e-07 0)
(7.52150252650257e-08 -2.244882087630814e-07 0)
(6.805451576912956e-08 -2.433702144119227e-07 0)
(6.365929363806566e-08 -2.565477972681935e-07 0)
(6.111919472143795e-08 -2.673918983609158e-07 0)
(5.988160005684209e-08 -2.764641991859803e-07 0)
(5.956504078972716e-08 -2.846023457493401e-07 0)
(5.997646501570864e-08 -2.922114068118059e-07 0)
(6.090265415834715e-08 -2.995720903017275e-07 0)
(6.217885445077921e-08 -3.068128046871888e-07 0)
(6.365456962649345e-08 -3.140495834910254e-07 0)
(2.512357148864906e-08 -2.265489310233319e-07 0)
(2.271791735843217e-08 -2.463857231485223e-07 0)
(2.117800728167385e-08 -2.601428542205131e-07 0)
(2.030513759487418e-08 -2.713652937948144e-07 0)
(1.992937211254308e-08 -2.806952941202556e-07 0)
(1.982405344057645e-08 -2.890179778769705e-07 0)
(1.991651984384536e-08 -2.967210985352885e-07 0)
(2.021745674968483e-08 -3.04141956194833e-07 0)
(2.066401522849882e-08 -3.114612326349306e-07 0)
(2.11587741044675e-08 -3.187602766094572e-07 0)
(6.985751832348609e-07 -6.611875296952185e-09 0)
(7.036366554257367e-07 -4.778627327259581e-09 0)
(7.076564457353029e-07 -3.671755818382014e-09 0)
(7.124245381724502e-07 -3.07524105322151e-09 0)
(7.181839867685949e-07 -2.802823340132012e-09 0)
(7.251344507281506e-07 -2.772564755380698e-09 0)
(7.333894708547288e-07 -2.921048857171168e-09 0)
(7.428255802746815e-07 -3.130470700096446e-09 0)
(7.535153702166873e-07 -3.441529574490659e-09 0)
(7.65268612587496e-07 -3.827450580917686e-09 0)
(6.935775268580353e-07 -1.990177155225681e-08 0)
(6.977949434891523e-07 -1.450662195230596e-08 0)
(7.012940772238053e-07 -1.11985342489285e-08 0)
(7.05671274913111e-07 -9.481583295738213e-09 0)
(7.111560299403654e-07 -8.780989597622995e-09 0)
(7.178925561091602e-07 -8.655625915853282e-09 0)
(7.260255142357418e-07 -9.042688211274345e-09 0)
(7.353671821995148e-07 -9.773017559096077e-09 0)
(7.459313975746111e-07 -1.074346668853351e-08 0)
(7.576052488723808e-07 -1.182101558754807e-08 0)
(6.836723821400911e-07 -3.326047759260448e-08 0)
(6.862078427553238e-07 -2.466525954198863e-08 0)
(6.886636940118725e-07 -1.941377340362288e-08 0)
(6.923445950505082e-07 -1.657970887711589e-08 0)
(6.973605445217302e-07 -1.543181686528168e-08 0)
(7.037945332645535e-07 -1.535040100343988e-08 0)
(7.116312390871471e-07 -1.605113348263985e-08 0)
(7.208074063722403e-07 -1.723995147368653e-08 0)
(7.311381855535518e-07 -1.881848745696633e-08 0)
(7.426491029452646e-07 -2.061029061629304e-08 0)
(6.689707578063357e-07 -4.685320975514232e-08 0)
(6.691146107482118e-07 -3.548747917279715e-08 0)
(6.700371738196757e-07 -2.865038583245398e-08 0)
(6.727361564375143e-07 -2.500279354735627e-08 0)
(6.770652001089685e-07 -2.351990505363833e-08 0)
(6.830687036581836e-07 -2.344443001677332e-08 0)
(6.905368851386806e-07 -2.440976920584365e-08 0)
(6.994686873682862e-07 -2.605419152711026e-08 0)
(7.094989065326208e-07 -2.821505015179242e-08 0)
(7.208039976799114e-07 -3.069187887459681e-08 0)
(6.496295267210702e-07 -6.068330296839115e-08 0)
(6.468758087006527e-07 -4.719219856975501e-08 0)
(6.459031703906407e-07 -3.914861478226559e-08 0)
(6.473590107591426e-07 -3.494730353540875e-08 0)
(6.508566766723543e-07 -3.330135340781885e-08 0)
(6.562883172858889e-07 -3.332954847678113e-08 0)
(6.63304323323982e-07 -3.458767962049396e-08 0)
(6.718988296680686e-07 -3.667417737684342e-08 0)
(6.815867466100063e-07 -3.93739345991528e-08 0)
(6.926775914084297e-07 -4.246501089882046e-08 0)
(6.258610778537874e-07 -7.481490771617965e-08 0)
(6.198196835624675e-07 -5.999512377914222e-08 0)
(6.167692823655625e-07 -5.121142196659633e-08 0)
(6.168518013000904e-07 -4.67471757904146e-08 0)
(6.194029773822797e-07 -4.512647406869772e-08 0)
(6.241704903490636e-07 -4.535379955212682e-08 0)
(6.307120861033913e-07 -4.693177062198516e-08 0)
(6.389261914101709e-07 -4.942343844891623e-08 0)
(6.482424190338955e-07 -5.262831856039075e-08 0)
(6.590742164628091e-07 -5.626620273456923e-08 0)
(5.980632013958463e-07 -8.92025958132739e-08 0)
(5.88494728866399e-07 -7.39663859321991e-08 0)
(5.832063417705744e-07 -6.499140354139532e-08 0)
(5.818425008872537e-07 -6.058342690361613e-08 0)
(5.834045903012005e-07 -5.915697335194785e-08 0)
(5.874943421025982e-07 -5.968647156510728e-08 0)
(5.935419837766334e-07 -6.161655564307059e-08 0)
(6.013600158711423e-07 -6.445967458053839e-08 0)
(6.103027108690513e-07 -6.809328408421523e-08 0)
(6.208732686634439e-07 -7.216247939308655e-08 0)
(5.664733349085377e-07 -1.037416573364942e-07 0)
(5.534360608813958e-07 -8.905195126625664e-08 0)
(5.459654270797018e-07 -8.047732057277422e-08 0)
(5.431511612614717e-07 -7.650204481307687e-08 0)
(5.437744626050981e-07 -7.548127315789459e-08 0)
(5.471876595372434e-07 -7.644469728912498e-08 0)
(5.527282265579529e-07 -7.879428222165317e-08 0)
(5.601330141173263e-07 -8.199830653536858e-08 0)
(5.687192268197366e-07 -8.601654297793694e-08 0)
(5.789531860959622e-07 -9.04019753458822e-08 0)
(5.315003733641407e-07 -1.183677708052308e-07 0)
(5.152373180862122e-07 -1.051052162848004e-07 0)
(5.057126892714737e-07 -9.75457052970214e-08 0)
(5.015008911945407e-07 -9.436839698479245e-08 0)
(5.011861025276483e-07 -9.397739341061774e-08 0)
(5.038467455542042e-07 -9.548573665492122e-08 0)
(5.088166624073398e-07 -9.830810350716287e-08 0)
(5.157320066572416e-07 -1.018809692176434e-07 0)
(5.239809754377226e-07 -1.062239408469911e-07 0)
(5.338211419838433e-07 -1.106680722727593e-07 0)
(4.935482948649296e-07 -1.329425258107704e-07 0)
(4.745407625034338e-07 -1.219357254868253e-07 0)
(4.632265857714226e-07 -1.158932377480172e-07 0)
(4.577820485282384e-07 -1.138819139651017e-07 0)
(4.565833949247846e-07 -1.143719768126321e-07 0)
(4.585947820269636e-07 -1.165954441686475e-07 0)
(4.631419892998879e-07 -1.200535471059962e-07 0)
(4.695886926280812e-07 -1.242291347483421e-07 0)
(4.776643579270577e-07 -1.290558383953235e-07 0)
(4.867439716521005e-07 -1.340230553883481e-07 0)
(7.780668510488484e-07 -4.164706430655679e-09 0)
(7.919295968075435e-07 -4.331336211615425e-09 0)
(8.065954290195301e-07 -4.469652582801413e-09 0)
(8.219987659197522e-07 -4.589443412055151e-09 0)
(8.380659190339321e-07 -4.696884860223007e-09 0)
(8.547733353197131e-07 -4.786462607051099e-09 0)
(8.720326177558768e-07 -4.832944256432581e-09 0)
(8.897705624393912e-07 -4.862119825211536e-09 0)
(9.079918344494399e-07 -4.900002516741906e-09 0)
(9.266692976446922e-07 -4.925971868310615e-09 0)
(9.457344307776463e-07 -4.923675592983824e-09 0)
(9.651477019930195e-07 -4.891795918990525e-09 0)
(9.848724787714348e-07 -4.831146319525349e-09 0)
(1.004873868304174e-06 -4.748315917525271e-09 0)
(1.025122342765514e-06 -4.64715631212047e-09 0)
(1.045589287081207e-06 -4.520284974058583e-09 0)
(1.066235092808499e-06 -4.356479507215801e-09 0)
(1.087023146350522e-06 -4.145896766162505e-09 0)
(1.107901116238276e-06 -3.889414678131837e-09 0)
(1.128812975684961e-06 -3.587526325597648e-09 0)
(7.707126032551694e-07 -1.276136049289094e-08 0)
(7.851609365571107e-07 -1.321837873738825e-08 0)
(8.003504075617354e-07 -1.361362824434478e-08 0)
(8.162389357110482e-07 -1.395052136610218e-08 0)
(8.327459713687004e-07 -1.420608175598891e-08 0)
(8.498192455225638e-07 -1.442053333654587e-08 0)
(8.674238230703148e-07 -1.459274395697521e-08 0)
(8.855126471895937e-07 -1.473321474030504e-08 0)
(9.040593673644504e-07 -1.483504681785461e-08 0)
(9.230092180167418e-07 -1.485979475868542e-08 0)
(9.423175016777366e-07 -1.481381856562233e-08 0)
(9.619702260960229e-07 -1.471590027488132e-08 0)
(9.819396631248186e-07 -1.45584478462238e-08 0)
(1.002183568990877e-06 -1.432796496473374e-08 0)
(1.022663507162885e-06 -1.401400711395032e-08 0)
(1.043349537219491e-06 -1.36067269030145e-08 0)
(1.064202389094427e-06 -1.309289016305137e-08 0)
(1.085176078282094e-06 -1.24572286610014e-08 0)
(1.106247010961631e-06 -1.169129196826773e-08 0)
(1.127303319242321e-06 -1.078975760851217e-08 0)
(7.563649375098842e-07 -2.21063398053708e-08 0)
(7.719967043095021e-07 -2.273699351187803e-08 0)
(7.882262822889006e-07 -2.326422962957185e-08 0)
(8.049856921311651e-07 -2.373539096151452e-08 0)
(8.223004271309258e-07 -2.411426958711083e-08 0)
(8.401445717183524e-07 -2.444259433803964e-08 0)
(8.584630759823866e-07 -2.469509149719871e-08 0)
(8.771737234620081e-07 -2.487305545157286e-08 0)
(8.962863396095503e-07 -2.497614667651228e-08 0)
(9.15756057335445e-07 -2.49793334373853e-08 0)
(9.355643435136208e-07 -2.490036928131397e-08 0)
(9.556923555443427e-07 -2.474748460094862e-08 0)
(9.760966374107706e-07 -2.448904749579144e-08 0)
(9.967349420289338e-07 -2.409801303607498e-08 0)
(1.017584323982771e-06 -2.356610561322411e-08 0)
(1.038638238823492e-06 -2.288484677854704e-08 0)
(1.059859330645493e-06 -2.203149884463686e-08 0)
(1.08121845086246e-06 -2.098339865402122e-08 0)
(1.102672308289426e-06 -1.971705270119621e-08 0)
(1.124128965773598e-06 -1.82215121526396e-08 0)
(7.353768626664899e-07 -3.259043668468766e-08 0)
(7.526419157618762e-07 -3.320318220372099e-08 0)
(7.703708743468657e-07 -3.37020898687708e-08 0)
(7.884801358207994e-07 -3.41786148758891e-08 0)
(8.070334597088982e-07 -3.457579008319847e-08 0)
(8.25967759766405e-07 -3.49316922490687e-08 0)
(8.452847985776584e-07 -3.51916863710839e-08 0)
(8.649151424352524e-07 -3.536939206734471e-08 0)
(8.849106959653325e-07 -3.545993080539703e-08 0)
(9.052107049575964e-07 -3.543286962689416e-08 0)
(9.257866234044624e-07 -3.529501483024405e-08 0)
(9.466153966025168e-07 -3.504173632118267e-08 0)
(9.6766575873413e-07 -3.463944403039805e-08 0)
(9.889166729152554e-07 -3.406775599947923e-08 0)
(1.010355451329184e-06 -3.332702977097019e-08 0)
(1.03197190979145e-06 -3.238975044539475e-08 0)
(1.05373038131127e-06 -3.122653604026424e-08 0)
(1.075621844486987e-06 -2.979601139439601e-08 0)
(1.097565920205761e-06 -2.805383195380355e-08 0)
(1.119547699194031e-06 -2.601548111012704e-08 0)
(7.083769374408463e-07 -4.454581036452011e-08 0)
(7.277600434996707e-07 -4.488999163041692e-08 0)
(7.474121870050584e-07 -4.51825388365349e-08 0)
(7.671934073822157e-07 -4.55360355095231e-08 0)
(7.872926046210168e-07 -4.582753094858051e-08 0)
(8.076284783842966e-07 -4.611067101048495e-08 0)
(8.282447722263337e-07 -4.630024996642308e-08 0)
(8.490890327483118e-07 -4.64247620085113e-08 0)
(8.701797510736271e-07 -4.644658081805746e-08 0)
(8.914866956349333e-07 -4.63302945711412e-08 0)
(9.130164789421925e-07 -4.609019176499297e-08 0)
(9.347589324628585e-07 -4.571568483811478e-08 0)
(9.56682821903328e-07 -4.516460041817e-08 0)
(9.787646938671434e-07 -4.441144956635672e-08 0)
(1.001004303322143e-06 -4.345365708709148e-08 0)
(1.023364337724084e-06 -4.225249338286825e-08 0)
(1.04585249813765e-06 -4.077635843304916e-08 0)
(1.068422413291651e-06 -3.897703078295334e-08 0)
(1.091067984378278e-06 -3.678472029145302e-08 0)
(1.113723816501316e-06 -3.42475750541502e-08 0)
(6.760376435317386e-07 -5.828117569190282e-08 0)
(6.978372355488651e-07 -5.80448175960283e-08 0)
(7.197844671419752e-07 -5.786820199044373e-08 0)
(7.416177764503212e-07 -5.791507343824069e-08 0)
(7.636117192640816e-07 -5.796413419055791e-08 0)
(7.856767823951268e-07 -5.806919564478188e-08 0)
(8.078073061247785e-07 -5.808555483501182e-08 0)
(8.300868379221382e-07 -5.805288986440331e-08 0)
(8.525112481215e-07 -5.79372256591841e-08 0)
(8.750724835182355e-07 -5.769548775914656e-08 0)
(8.977836281888741e-07 -5.733163431525732e-08 0)
(9.206343919692807e-07 -5.681962778375188e-08 0)
(9.435984028187796e-07 -5.610493745067853e-08 0)
(9.666552400303251e-07 -5.516136297971979e-08 0)
(9.898240952026271e-07 -5.397635974156842e-08 0)
(1.013074729117776e-06 -5.251545258112815e-08 0)
(1.03644204149576e-06 -5.073298118237177e-08 0)
(1.059837152157144e-06 -4.858964792609706e-08 0)
(1.083332113295938e-06 -4.599581422692282e-08 0)
(1.106814304682506e-06 -4.299120098513646e-08 0)
(6.392953353212865e-07 -7.387434011163577e-08 0)
(6.63794101677897e-07 -7.277938519440731e-08 0)
(6.883034222957722e-07 -7.190094720526137e-08 0)
(7.124211813589183e-07 -7.143431543123629e-08 0)
(7.364745406757279e-07 -7.105965993412805e-08 0)
(7.604509134986382e-07 -7.081848134107485e-08 0)
(7.843368032316451e-07 -7.057178732346139e-08 0)
(8.082388245098119e-07 -7.031368248407627e-08 0)
(8.321855892240744e-07 -7.000708636046839e-08 0)
(8.561943907664367e-07 -6.96037256117565e-08 0)
(8.802684955917829e-07 -6.908101465364792e-08 0)
(9.043898002000839e-07 -6.839573831924833e-08 0)
(9.285468453021438e-07 -6.748933250966392e-08 0)
(9.527442490804844e-07 -6.634070779503862e-08 0)
(9.770028687481416e-07 -6.492939275537655e-08 0)
(1.001312090345087e-06 -6.322269331990659e-08 0)
(1.025704694598849e-06 -6.115705832331761e-08 0)
(1.050102018564867e-06 -5.869069015746497e-08 0)
(1.074558546457666e-06 -5.572771951662365e-08 0)
(1.098989976260369e-06 -5.229147853730436e-08 0)
(5.9887192714734e-07 -9.147475742987311e-08 0)
(6.261787022499706e-07 -8.910403155364026e-08 0)
(6.53437429100469e-07 -8.722221217961766e-08 0)
(6.800353203628686e-07 -8.599302785779397e-08 0)
(7.064162674487662e-07 -8.504702296145277e-08 0)
(7.32463290664772e-07 -8.43325126474743e-08 0)
(7.583448393798242e-07 -8.372735212053584e-08 0)
(7.840790471239544e-07 -8.317835650563912e-08 0)
(8.097249862509165e-07 -8.26264839583098e-08 0)
(8.353175535166637e-07 -8.201324719730916e-08 0)
(8.608693427062057e-07 -8.129192746746783e-08 0)
(8.863794750224361e-07 -8.040710411889512e-08 0)
(9.118569693465763e-07 -7.930082854504744e-08 0)
(9.373338601964269e-07 -7.795066879327844e-08 0)
(9.628299150704e-07 -7.632729476561717e-08 0)
(9.883447779681733e-07 -7.438957573274863e-08 0)
(1.013882214576106e-06 -7.206352065727939e-08 0)
(1.039410289069451e-06 -6.929623372699742e-08 0)
(1.064951525182508e-06 -6.59852103916157e-08 0)
(1.090446811699939e-06 -6.214671249582149e-08 0)
(5.555621989529575e-07 -1.109840796916989e-07 0)
(5.857802703193221e-07 -1.071311683968162e-07 0)
(6.15913254073757e-07 -1.041034055274387e-07 0)
(6.451196711155503e-07 -1.018803918820666e-07 0)
(6.739401374212088e-07 -1.001440432511111e-07 0)
(7.022379442673719e-07 -9.878135197432308e-08 0)
(7.30212278798236e-07 -9.766459604490103e-08 0)
(7.578941449060388e-07 -9.670059251851555e-08 0)
(7.853648340335166e-07 -9.581563846853237e-08 0)
(8.126631782208237e-07 -9.492612187961833e-08 0)
(8.398107343607785e-07 -9.396264335912354e-08 0)
(8.668352566147753e-07 -9.285928666246316e-08 0)
(8.937689823060073e-07 -9.155497156570406e-08 0)
(9.206565694756509e-07 -9.00160321052111e-08 0)
(9.47514183826474e-07 -8.819833344572713e-08 0)
(9.743510340201814e-07 -8.604387655559404e-08 0)
(1.001158924874085e-06 -8.347331579073919e-08 0)
(1.027914110625453e-06 -8.04197077847671e-08 0)
(1.054660031875826e-06 -7.67900881874274e-08 0)
(1.081344321155692e-06 -7.258441047140604e-08 0)
(5.103676121909149e-07 -1.322844682413066e-07 0)
(5.442523582914685e-07 -1.259372624363536e-07 0)
(5.775099735679952e-07 -1.214595117283573e-07 0)
(6.095462551862395e-07 -1.181065836477425e-07 0)
(6.407895553207745e-07 -1.155622712141288e-07 0)
(6.713851554455915e-07 -1.135489645911858e-07 0)
(7.014348798879488e-07 -1.119062507701155e-07 0)
(7.310588201436968e-07 -1.105100904443099e-07 0)
(7.603536178869854e-07 -1.09275083228275e-07 0)
(7.893663941987518e-07 -1.080958637231735e-07 0)
(8.181327311309981e-07 -1.068887590609183e-07 0)
(8.467013003740826e-07 -1.055783061277472e-07 0)
(8.751200278377155e-07 -1.040944205093602e-07 0)
(9.034371743510227e-07 -1.023896706393427e-07 0)
(9.316685135113309e-07 -1.004055879424992e-07 0)
(9.5983452594161e-07 -9.806836892002857e-08 0)
(9.879423502889577e-07 -9.530103500640589e-08 0)
(1.015970844424862e-06 -9.200055688730842e-08 0)
(1.043977045207891e-06 -8.809961610276534e-08 0)
(1.071927437661787e-06 -8.355702943618373e-08 0)
(4.742218165408284e-07 -1.555831590543333e-07 0)
(5.114999774511487e-07 -1.464005483824385e-07 0)
(5.472713829031251e-07 -1.403272323494262e-07 0)
(5.817645561611744e-07 -1.355758899136892e-07 0)
(6.150937491730523e-07 -1.31972185944425e-07 0)
(6.475477242066369e-07 -1.291123179249856e-07 0)
(6.792465999716775e-07 -1.267806844056707e-07 0)
(7.103698114523215e-07 -1.248241381169735e-07 0)
(7.410236844657036e-07 -1.231174041290522e-07 0)
(7.712729045793977e-07 -1.215307836998258e-07 0)
(8.011810457438949e-07 -1.199714300934138e-07 0)
(8.308179996695904e-07 -1.183586360369756e-07 0)
(8.602421963289845e-07 -1.166117025866758e-07 0)
(8.895020760923572e-07 -1.14670286993277e-07 0)
(9.186113110941132e-07 -1.124679162298599e-07 0)
(9.476073812484764e-07 -1.0991071977541e-07 0)
(9.764938276537193e-07 -1.069425114023629e-07 0)
(1.005299803522561e-06 -1.03417460150562e-07 0)
(1.034060693284712e-06 -9.928412615953965e-08 0)
(1.062748730822287e-06 -9.444984011480872e-08 0)
(4.550438020232627e-07 -1.759229291867465e-07 0)
(4.928780642195248e-07 -1.663213789680198e-07 0)
(5.291085911078956e-07 -1.592297105558489e-07 0)
(5.64379373985024e-07 -1.535070333287701e-07 0)
(5.985771677436107e-07 -1.48990973373422e-07 0)
(6.318868378023696e-07 -1.453268967952374e-07 0)
(6.644267143304503e-07 -1.422943869521119e-07 0)
(6.963343371854618e-07 -1.39726102136752e-07 0)
(7.276961421133739e-07 -1.37470446798988e-07 0)
(7.585833373426541e-07 -1.353929272644968e-07 0)
(7.890731797951395e-07 -1.334001684327986e-07 0)
(8.192403948276146e-07 -1.314039388191165e-07 0)
(8.491410714111017e-07 -1.293128324849304e-07 0)
(8.788198432979122e-07 -1.270588948445076e-07 0)
(9.082920757847785e-07 -1.245725314819753e-07 0)
(9.376206899246229e-07 -1.217425795218483e-07 0)
(9.667822659003432e-07 -1.185384690211475e-07 0)
(9.958509853800214e-07 -1.147911838685438e-07 0)
(1.024837585615819e-06 -1.104440981483885e-07 0)
(1.053713081295578e-06 -1.053781119501699e-07 0)
(4.401165052792028e-07 -1.946094211068385e-07 0)
(4.775120274947621e-07 -1.850342674333272e-07 0)
(5.138551592822995e-07 -1.775226715677245e-07 0)
(5.494246711906764e-07 -1.712406631848688e-07 0)
(5.840762183771793e-07 -1.660760398529598e-07 0)
(6.179058930480844e-07 -1.617587683897475e-07 0)
(6.509995142669845e-07 -1.581078159463649e-07 0)
(6.834393081348276e-07 -1.549590366075469e-07 0)
(7.152995283670966e-07 -1.521654796557395e-07 0)
(7.466522998321956e-07 -1.496007719838831e-07 0)
(7.775749644035739e-07 -1.471727887550223e-07 0)
(8.081388901106679e-07 -1.447862934528809e-07 0)
(8.383959075807549e-07 -1.423410924439893e-07 0)
(8.68388922163693e-07 -1.397682387274728e-07 0)
(8.981337532628332e-07 -1.369977560442161e-07 0)
(9.277084344152994e-07 -1.339063742091709e-07 0)
(9.570901079967735e-07 -1.304747829173541e-07 0)
(9.863574669237873e-07 -1.265319893257383e-07 0)
(1.015505649375312e-06 -1.220077950109476e-07 0)
(1.044548811867733e-06 -1.167833302656773e-07 0)
(4.274347126561477e-07 -2.128262430817319e-07 0)
(4.643357779517371e-07 -2.033988914393686e-07 0)
(5.004563935193584e-07 -1.956176975145535e-07 0)
(5.360284561918376e-07 -1.888893844118836e-07 0)
(5.708120829479177e-07 -1.83177431237421e-07 0)
(6.049077194860566e-07 -1.782883870411382e-07 0)
(6.38323684977457e-07 -1.740724760871641e-07 0)
(6.711104711069374e-07 -1.703776561256169e-07 0)
(7.033285488070097e-07 -1.670707935018834e-07 0)
(7.350385421380761e-07 -1.640362611492858e-07 0)
(7.663061423603766e-07 -1.611854612950039e-07 0)
(7.971933380319399e-07 -1.584172300197348e-07 0)
(8.277482787013175e-07 -1.556248124128754e-07 0)
(8.580128081723594e-07 -1.527428820189149e-07 0)
(8.880052479187912e-07 -1.49696134966447e-07 0)
(9.177983103343309e-07 -1.463635893174922e-07 0)
(9.473830057308779e-07 -1.427257078887212e-07 0)
(9.768382442037755e-07 -1.38613446184497e-07 0)
(1.006139891895541e-06 -1.339544635549202e-07 0)
(1.035379386785039e-06 -1.286474285755267e-07 0)
(4.166359074540291e-07 -2.301704197219299e-07 0)
(4.529692406096188e-07 -2.210058262963983e-07 0)
(4.887287514327736e-07 -2.131714080303838e-07 0)
(5.241025103563823e-07 -2.061963451940432e-07 0)
(5.5884231185003e-07 -2.001046984513594e-07 0)
(5.930146396419975e-07 -1.947735884122018e-07 0)
(6.265733077734963e-07 -1.90078963172454e-07 0)
(6.595559419871218e-07 -1.859018114765808e-07 0)
(6.920067865424383e-07 -1.821286986211952e-07 0)
(7.239696674848047e-07 -1.786569517377058e-07 0)
(7.554944097522785e-07 -1.754046060521692e-07 0)
(7.866284596398756e-07 -1.722682153047078e-07 0)
(8.174165461894528e-07 -1.691392870487739e-07 0)
(8.478983413840051e-07 -1.659624872786547e-07 0)
(8.780942791355604e-07 -1.626525664953716e-07 0)
(9.080754197829079e-07 -1.591009752961387e-07 0)
(9.378314520280244e-07 -1.552782925253947e-07 0)
(9.674471936632817e-07 -1.510227079327254e-07 0)
(9.969045752886421e-07 -1.462729317971911e-07 0)
(1.026336227756642e-06 -1.409488839325225e-07 0)
(4.072697703682519e-07 -2.469249402590555e-07 0)
(4.430410328783335e-07 -2.380416654321887e-07 0)
(4.784116871017922e-07 -2.302354813857874e-07 0)
(5.134736926399946e-07 -2.231216553746641e-07 0)
(5.480632096969234e-07 -2.167672795716438e-07 0)
(5.821690782290612e-07 -2.110894775908297e-07 0)
(6.15740895590055e-07 -2.059984513982107e-07 0)
(6.488056109837506e-07 -2.014114194998897e-07 0)
(6.813872336393656e-07 -1.972294543997233e-07 0)
(7.135106394179545e-07 -1.93363766331289e-07 0)
(7.452105298358523e-07 -1.897418744612841e-07 0)
(7.765184117457463e-07 -1.862617060894382e-07 0)
(8.074761820653422e-07 -1.828173178863832e-07 0)
(8.381211938172602e-07 -1.793659984491312e-07 0)
(8.684713585507246e-07 -1.758096408524083e-07 0)
(8.985998969235364e-07 -1.720653444388232e-07 0)
(9.284970883920812e-07 -1.680845438928806e-07 0)
(9.582458515789464e-07 -1.637200190639936e-07 0)
(9.878642177610962e-07 -1.58927686962796e-07 0)
(1.01744229452228e-06 -1.53631879805621e-07 0)
(3.991189861462937e-07 -2.631222591955398e-07 0)
(4.343531339715135e-07 -2.545329872519989e-07 0)
(4.693046228771154e-07 -2.46815893252235e-07 0)
(5.040232234346747e-07 -2.3965029384965e-07 0)
(5.383775921118375e-07 -2.33127184905321e-07 0)
(5.723198447194815e-07 -2.271859797543391e-07 0)
(6.058131709399483e-07 -2.217801072612723e-07 0)
(6.388688503150934e-07 -2.168541441292155e-07 0)
(6.714903376273484e-07 -2.123191663192321e-07 0)
(7.036870451031145e-07 -2.081028177032908e-07 0)
(7.354820213379444e-07 -2.041447745642932e-07 0)
(7.668921423125924e-07 -2.003473560138354e-07 0)
(7.979565048210216e-07 -1.966121029462431e-07 0)
(8.287091971077618e-07 -1.929122704000597e-07 0)
(8.591703558914163e-07 -1.891322681192554e-07 0)
(8.894062080936972e-07 -1.852183873091069e-07 0)
(9.194151245427589e-07 -1.811088526444883e-07 0)
(9.492785754668323e-07 -1.766744592810554e-07 0)
(9.790386366876938e-07 -1.71881111840686e-07 0)
(1.008710363325892e-06 -1.66641085365761e-07 0)
(3.919839189290678e-07 -2.78855286120629e-07 0)
(4.267377280076509e-07 -2.70546150051433e-07 0)
(4.612503822435919e-07 -2.629473329483779e-07 0)
(4.956101268590347e-07 -2.557854396950384e-07 0)
(5.296628550981906e-07 -2.491548057099697e-07 0)
(5.633809048438345e-07 -2.430208377800379e-07 0)
(5.967277837762587e-07 -2.373720983160945e-07 0)
(6.296990006822142e-07 -2.3217021671496e-07 0)
(6.622808088032318e-07 -2.273346408108381e-07 0)
(6.944747902187154e-07 -2.228116344783204e-07 0)
(7.262962053909843e-07 -2.185546218859281e-07 0)
(7.577501296352575e-07 -2.14471545314326e-07 0)
(7.888726652769726e-07 -2.104730377620712e-07 0)
(8.196900208786967e-07 -2.065502033307289e-07 0)
(8.502285058794098e-07 -2.025766480275332e-07 0)
(8.805472601422387e-07 -1.985179474072845e-07 0)
(9.106494582835447e-07 -1.943134553635018e-07 0)
(9.40619088558107e-07 -1.898475620562207e-07 0)
(9.704744585461839e-07 -1.850839060973412e-07 0)
(1.000238093780012e-06 -1.799285890894359e-07 0)
(3.856805476901878e-07 -2.941821989871037e-07 0)
(4.199713476086241e-07 -2.861332443730042e-07 0)
(4.540654706766397e-07 -2.786643148869599e-07 0)
(4.880456495618229e-07 -2.71537546438634e-07 0)
(5.217734533655052e-07 -2.648442994575954e-07 0)
(5.552403872705079e-07 -2.585770972115888e-07 0)
(5.883992653796503e-07 -2.527437523386094e-07 0)
(6.212368704864232e-07 -2.473189573242187e-07 0)
(6.537250876270536e-07 -2.422311569807968e-07 0)
(6.858652192117675e-07 -2.374451830988237e-07 0)
(7.176652188601555e-07 -2.329277647627739e-07 0)
(7.491219129453068e-07 -2.285936905638048e-07 0)
(7.802683244371523e-07 -2.243650725469725e-07 0)
(8.111217212572593e-07 -2.202467516389479e-07 0)
(8.417117132016172e-07 -2.161100812264455e-07 0)
(8.720934926825983e-07 -2.119416629114537e-07 0)
(9.022739706179099e-07 -2.076717003839269e-07 0)
(9.323310894902552e-07 -2.032023925256996e-07 0)
(9.622395583567811e-07 -1.984902802236225e-07 0)
(9.921216646029013e-07 -1.934606762481087e-07 0)
(3.80065525858213e-07 -3.091502826322561e-07 0)
(4.138994580364973e-07 -3.013439563778166e-07 0)
(4.476009495205979e-07 -2.940054705844119e-07 0)
(4.811993681931099e-07 -2.869297731401209e-07 0)
(5.146138899497322e-07 -2.802114222394457e-07 0)
(5.478234045784239e-07 -2.73856156541996e-07 0)
(5.807730559107327e-07 -2.678828244202736e-07 0)
(6.134500110469798e-07 -2.622789156091971e-07 0)
(6.45811501903547e-07 -2.569828242146241e-07 0)
(6.77864196271966e-07 -2.519751423934415e-07 0)
(7.096063091989128e-07 -2.472347920099547e-07 0)
(7.410325666940283e-07 -2.426827303969275e-07 0)
(7.721717176842974e-07 -2.382562078780266e-07 0)
(8.030366735276002e-07 -2.339697748852735e-07 0)
(8.336452645359284e-07 -2.297036475461847e-07 0)
(8.640783228453464e-07 -2.254419744329978e-07 0)
(8.943147245343543e-07 -2.211425424186045e-07 0)
(9.244095305593045e-07 -2.166933017668504e-07 0)