/*--------------------------------*- C++ -*----------------------------------*\
| =========                 |                                                 |
| \\      /  F ield         | foam-extend: Open Source CFD                    |
|  \\    /   O peration     | Version:     4.1                                |
|   \\  /    A nd           | Web:         http://www.foam-extend.org         |
|    \\/     M anipulation  |                                                 |
\*---------------------------------------------------------------------------*/
FoamFile
{
    version     2.0;
    format      ascii;
    class       vectorField;
    location    "1";
    object      solidsCellD_iteration3;
}
// * * * * * * * * * * * * * * * * * * * * * * * * * * * * * * * * * * * * * //


1000
(
(3.306353704798236e-07 -4.494916629944818e-08 0)
(3.242934920533102e-07 -4.704406918044842e-08 0)
(3.222238574787239e-07 -5.050519418777098e-08 0)
(3.23328440315566e-07 -5.485748367737179e-08 0)
(3.267339649241542e-07 -5.988305709630224e-08 0)
(3.319071791191946e-07 -6.540275184481764e-08 0)
(3.383991063488115e-07 -7.135504715673961e-08 0)
(3.457827409986948e-07 -7.77853969173597e-08 0)
(3.538080916032943e-07 -8.4569942443233e-08 0)
(3.604532097579671e-07 -9.234012536693041e-08 0)
(3.00898008055179e-07 -4.932781528244581e-08 0)
(2.93932628389639e-07 -5.293130244194483e-08 0)
(2.911653740476474e-07 -5.754474687197839e-08 0)
(2.916218610653042e-07 -6.276929833697141e-08 0)
(2.943235423200465e-07 -6.845817391236003e-08 0)
(2.985467793966539e-07 -7.453226043413471e-08 0)
(3.038944028997769e-07 -8.09303144855312e-08 0)
(3.099463345015519e-07 -8.7664471355941e-08 0)
(3.164866079734632e-07 -9.453237063363824e-08 0)
(3.223028945586132e-07 -1.021466059434317e-07 0)
(2.692629465656596e-07 -5.342442578685332e-08 0)
(2.619980166119754e-07 -5.8702882001174e-08 0)
(2.588926190968948e-07 -6.44178688109295e-08 0)
(2.587689214963455e-07 -7.045123257829872e-08 0)
(2.607920151225199e-07 -7.670266214900436e-08 0)
(2.642396576609287e-07 -8.315308484052414e-08 0)
(2.686958280724051e-07 -8.977032233476998e-08 0)
(2.738689732037114e-07 -9.651362984211009e-08 0)
(2.79530475473094e-07 -1.032088085999719e-07 0)
(2.848858891038907e-07 -1.103884345738421e-07 0)
(2.361896898643298e-07 -5.716291068140629e-08 0)
(2.289700896023543e-07 -6.412849120097639e-08 0)
(2.257365650760439e-07 -7.091083170491293e-08 0)
(2.252162252143972e-07 -7.766526605682867e-08 0)
(2.26629179847112e-07 -8.441540794005125e-08 0)
(2.294301670709717e-07 -9.114716776809073e-08 0)
(2.331712840388312e-07 -9.787509553818215e-08 0)
(2.376386423013006e-07 -1.045821796456004e-07 0)
(2.426215399315045e-07 -1.111655068333211e-07 0)
(2.475554436822529e-07 -1.180095615552219e-07 0)
(2.019119206002407e-07 -6.045567181796174e-08 0)
(1.9508033942894e-07 -6.903832604689128e-08 0)
(1.918475411786311e-07 -7.687010321960702e-08 0)
(1.911073623904839e-07 -8.42996671154216e-08 0)
(1.921305777042206e-07 -9.144514308861234e-08 0)
(1.943832131425189e-07 -9.840085860303199e-08 0)
(1.975033465084088e-07 -1.05232658176986e-07 0)
(2.012734347480266e-07 -1.119170381448887e-07 0)
(2.056010960718063e-07 -1.184115004494465e-07 0)
(2.10014141734755e-07 -1.250073450133717e-07 0)
(1.666201550838899e-07 -6.325810312093001e-08 0)
(1.604423125354147e-07 -7.332283392513552e-08 0)
(1.57449524351743e-07 -8.20776513225073e-08 0)
(1.566488522231496e-07 -9.012014054153084e-08 0)
(1.573867172175218e-07 -9.766249269623799e-08 0)
(1.591192764407079e-07 -1.048433435470108e-07 0)
(1.616574314199355e-07 -1.11740808518304e-07 0)
(1.647979902636081e-07 -1.184126707693418e-07 0)
(1.684487970084445e-07 -1.24863266037226e-07 0)
(1.722346954757343e-07 -1.312982951455388e-07 0)
(1.304785064901517e-07 -6.550843473370842e-08 0)
(1.253188995478452e-07 -7.684871974332311e-08 0)
(1.227650161032105e-07 -8.642596873728645e-08 0)
(1.219942375108168e-07 -9.500098485479493e-08 0)
(1.224684791647465e-07 -1.028719837033584e-07 0)
(1.237716970214753e-07 -1.102521348405989e-07 0)
(1.257596890518609e-07 -1.172292329626621e-07 0)
(1.282564260680933e-07 -1.239203105611001e-07 0)
(1.311716202940189e-07 -1.303614743592514e-07 0)
(1.342246614722072e-07 -1.366966444187272e-07 0)
(9.366638205360363e-08 -6.720537235917392e-08 0)
(8.978944699634639e-08 -7.95679120921179e-08 0)
(8.784468148407267e-08 -8.980928829349646e-08 0)
(8.724984969828974e-08 -9.878505328989143e-08 0)
(8.752071180929214e-08 -1.069207544515747e-07 0)
(8.842026863737207e-08 -1.144480002986905e-07 0)
(8.984638063662457e-08 -1.215144911852417e-07 0)
(9.166661386581607e-08 -1.282324998080507e-07 0)
(9.379382850541184e-08 -1.346591553272405e-07 0)
(9.602000723394318e-08 -1.408966840123754e-07 0)
(5.639852113205703e-08 -6.834551240514528e-08 0)
(5.401878196495249e-08 -8.141098523382617e-08 0)
(5.280382362325161e-08 -9.210897927301091e-08 0)
(5.237706428635108e-08 -1.014037835498496e-07 0)
(5.249285854160245e-08 -1.09726860109046e-07 0)
(5.305311743735667e-08 -1.173565464828964e-07 0)
(5.394817743557069e-08 -1.244922370179763e-07 0)
(5.504345889156897e-08 -1.312535054258884e-07 0)
(5.630304493131059e-08 -1.377183528959673e-07 0)
(5.764803066400734e-08 -1.439401651577666e-07 0)
(1.885590928130281e-08 -6.892429895058327e-08 0)
(1.80132775851824e-08 -8.233572134324422e-08 0)
(1.759069099773405e-08 -9.327898664484908e-08 0)
(1.747367404676997e-08 -1.027273888305927e-07 0)
(1.752853375394136e-08 -1.11126411695018e-07 0)
(1.769409250642499e-08 -1.187970733539394e-07 0)
(1.797827819245123e-08 -1.259460738979745e-07 0)
(1.835386379433498e-08 -1.326979223673792e-07 0)
(1.877891065030105e-08 -1.391489663734099e-07 0)
(1.922046367146011e-08 -1.453283892552037e-07 0)
(4.925900560807565e-07 -1.942189952293371e-09 0)
(4.952751845310018e-07 -1.583206662163151e-09 0)
(4.994274628545381e-07 -1.458952782688461e-09 0)
(5.049838259523918e-07 -1.502690040954501e-09 0)
(5.119628849495081e-07 -1.660358387413009e-09 0)
(5.201816063389517e-07 -1.883025847917828e-09 0)
(5.295569952857913e-07 -2.138336499650334e-09 0)
(5.398681213740411e-07 -2.442969063338565e-09 0)
(5.511085431856412e-07 -2.770421166851624e-09 0)
(5.631496975405127e-07 -3.097433600073299e-09 0)
(4.895297146938734e-07 -5.843566400269593e-09 0)
(4.918801042057134e-07 -4.802074782113865e-09 0)
(4.958578564119542e-07 -4.462781843417187e-09 0)
(5.012819653497131e-07 -4.608030171566733e-09 0)
(5.081654683384135e-07 -5.063764660358685e-09 0)
(5.162869393020395e-07 -5.73162315203428e-09 0)
(5.256162944415221e-07 -6.523912600938171e-09 0)
(5.359118846054755e-07 -7.422624527443177e-09 0)
(5.471188360492192e-07 -8.372741632244392e-09 0)
(5.591453789153116e-07 -9.353944554178882e-09 0)
(4.832816758863132e-07 -9.793652163204708e-09 0)
(4.850543803301927e-07 -8.179991740437418e-09 0)
(4.886934794693657e-07 -7.690960275261627e-09 0)
(4.939219321076998e-07 -7.957898621147516e-09 0)
(5.006515970565587e-07 -8.727581181487955e-09 0)
(5.086918287801508e-07 -9.844839751841606e-09 0)
(5.179395736828749e-07 -1.115799531739653e-08 0)
(5.281421603800133e-07 -1.262992103652752e-08 0)
(5.392708869150404e-07 -1.420635086921065e-08 0)
(5.512855506177823e-07 -1.584745485658658e-08 0)
(4.73972495372651e-07 -1.38266200895046e-08 0)
(4.749716419389881e-07 -1.178126735454988e-08 0)
(4.780677012691691e-07 -1.125916109161033e-08 0)
(4.830155457298399e-07 -1.171378910312181e-08 0)
(4.89516577463491e-07 -1.28078093277449e-08 0)
(4.973409301107526e-07 -1.435949521938738e-08 0)
(5.064468284808208e-07 -1.619711979353585e-08 0)
(5.166026979879642e-07 -1.825511677023328e-08 0)
(5.276537754404716e-07 -2.046856336139639e-08 0)
(5.396925946448966e-07 -2.274324958592161e-08 0)
(4.616204270234585e-07 -1.799357830166204e-08 0)
(4.617075678203875e-07 -1.570413855515233e-08 0)
(4.641534630550157e-07 -1.525492723002932e-08 0)
(4.686513282163878e-07 -1.596968829692624e-08 0)
(4.748834877790746e-07 -1.742175595780821e-08 0)
(4.825239213947771e-07 -1.941934445314119e-08 0)
(4.914592001329621e-07 -2.178618354407433e-08 0)
(5.015314735696418e-07 -2.441106294054445e-08 0)
(5.124831018580731e-07 -2.723449489605815e-08 0)
(5.245603877226041e-07 -3.010567475081611e-08 0)
(4.463728392779057e-07 -2.230277982633838e-08 0)
(4.453614827848996e-07 -2.001955718313226e-08 0)
(4.470675910881476e-07 -1.976063033173027e-08 0)
(4.510710612888676e-07 -2.082246223953023e-08 0)
(4.570004527494273e-07 -2.269699689257038e-08 0)
(4.644343366589735e-07 -2.516192190704818e-08 0)
(4.732021459077356e-07 -2.802943946327845e-08 0)
(4.831653247910378e-07 -3.117241622508094e-08 0)
(4.94045337856564e-07 -3.456494973864731e-08 0)
(5.062679916024825e-07 -3.799678324323614e-08 0)
(4.283028654830167e-07 -2.671761561401499e-08 0)
(4.261315718497967e-07 -2.47461669882636e-08 0)
(4.270730362738685e-07 -2.484853495977708e-08 0)
(4.305473860364274e-07 -2.635661395882095e-08 0)
(4.361072123570188e-07 -2.870944288384879e-08 0)
(4.433076673072685e-07 -3.165091254191767e-08 0)
(4.51900531229141e-07 -3.499411215680266e-08 0)
(4.617290898914262e-07 -3.862535416190035e-08 0)
(4.72553731215305e-07 -4.256485527930569e-08 0)
(4.850281153676008e-07 -4.652162734666829e-08 0)
(4.07534621243629e-07 -3.121784670309418e-08 0)
(4.041795576558404e-07 -2.98795664188782e-08 0)
(4.04323029881317e-07 -3.054684625834692e-08 0)
(4.072386377424528e-07 -3.259684296463546e-08 0)
(4.12371783330459e-07 -3.54919345874913e-08 0)
(4.193129762407294e-07 -3.89361446361497e-08 0)
(4.277354812534932e-07 -4.275113651422693e-08 0)
(4.374801652530842e-07 -4.684324154090439e-08 0)
(4.483103206357522e-07 -5.128628740753804e-08 0)
(4.610996130929174e-07 -5.570515397803687e-08 0)
(3.842210170852847e-07 -3.577992955118178e-08 0)
(3.797111640752843e-07 -3.537435205258288e-08 0)
(3.791317338591742e-07 -3.680509786226896e-08 0)
(3.814804670655247e-07 -3.951623276235002e-08 0)
(3.861614914957891e-07 -4.303086837230545e-08 0)
(3.927361697724585e-07 -4.704825172788008e-08 0)
(4.008819458519449e-07 -5.138723717297044e-08 0)
(4.104348114414426e-07 -5.594839582838268e-08 0)
(4.211278678198112e-07 -6.084324473673493e-08 0)
(4.341130815415273e-07 -6.559537909785642e-08 0)
(3.585550656890144e-07 -4.034266808764432e-08 0)
(3.529827780275806e-07 -4.110650123079807e-08 0)
(3.516606039123953e-07 -4.349817284365009e-08 0)
(3.53435897713486e-07 -4.701143759871568e-08 0)
(3.575909789641293e-07 -5.124905226982864e-08 0)
(3.636300451175182e-07 -5.596218485688889e-08 0)
(3.713134739578486e-07 -6.100571960484549e-08 0)
(3.805264795503125e-07 -6.6291804072306e-08 0)
(3.910761127230631e-07 -7.194058272623938e-08 0)
(4.037287242622814e-07 -7.744902704408949e-08 0)
(5.757303495346139e-07 -3.395569264569541e-09 0)
(5.892806602168486e-07 -3.63755943013962e-09 0)
(6.035506765631949e-07 -3.843705089792907e-09 0)
(6.18451925908729e-07 -4.029233675883921e-09 0)
(6.339082506291591e-07 -4.192378097009703e-09 0)
(6.499214248935291e-07 -4.332925089227129e-09 0)
(6.66497578636586e-07 -4.46390370830711e-09 0)
(6.835500548750218e-07 -4.600522385142358e-09 0)
(7.009936219574032e-07 -4.74064328027731e-09 0)
(7.188305507461697e-07 -4.86833745548699e-09 0)
(7.370593115296423e-07 -4.973159057897267e-09 0)
(7.556358712137343e-07 -5.060438639154949e-09 0)
(7.745265793099748e-07 -5.141102687055776e-09 0)
(7.937239502687979e-07 -5.218541222614705e-09 0)
(8.132147574744357e-07 -5.288026269070337e-09 0)
(8.329725322751246e-07 -5.345347268193769e-09 0)
(8.529826513095131e-07 -5.389794392542813e-09 0)
(8.732288470371848e-07 -5.420035863669736e-09 0)
(8.936565141101598e-07 -5.441334096828679e-09 0)
(9.143160814336312e-07 -5.463943519782319e-09 0)
(5.718460257772104e-07 -1.026216862251561e-08 0)
(5.856440515879625e-07 -1.09913874902251e-08 0)
(6.001460387595784e-07 -1.159987522959278e-08 0)
(6.152734952084742e-07 -1.213598976933406e-08 0)
(6.309923447635043e-07 -1.261266280960453e-08 0)
(6.472598292692058e-07 -1.304273919658698e-08 0)
(6.640450748284715e-07 -1.344774050352738e-08 0)
(6.812964343958466e-07 -1.38411095805837e-08 0)
(6.989536144053724e-07 -1.421530239620529e-08 0)
(7.169966754746726e-07 -1.455674383169241e-08 0)
(7.354019974100649e-07 -1.485982116390411e-08 0)
(7.541496003764925e-07 -1.513232021499264e-08 0)
(7.732303527467462e-07 -1.538291027111771e-08 0)
(7.926185235541561e-07 -1.560975044669388e-08 0)
(8.122710933823726e-07 -1.5805177665038e-08 0)
(8.321624240944807e-07 -1.596793164227415e-08 0)
(8.522866860886061e-07 -1.609827817803093e-08 0)
(8.726284239323537e-07 -1.619559428968103e-08 0)
(8.931946969650947e-07 -1.627408088658091e-08 0)
(9.140264838870953e-07 -1.63515123605524e-08 0)
(5.641961098204474e-07 -1.733501622341216e-08 0)
(5.784838012937202e-07 -1.849011128302728e-08 0)
(5.935248313815267e-07 -1.944349318558474e-08 0)
(6.09133019036096e-07 -2.029391514674034e-08 0)
(6.25277707009566e-07 -2.106616617879118e-08 0)
(6.419743713663815e-07 -2.17773989209507e-08 0)
(6.592237479276218e-07 -2.244848217041623e-08 0)
(6.769370230128291e-07 -2.308509339547369e-08 0)
(6.950061942448808e-07 -2.367726559138052e-08 0)
(7.134286096435525e-07 -2.422146232620719e-08 0)
(7.322167449060129e-07 -2.471963119103651e-08 0)
(7.513576807164874e-07 -2.517670916380713e-08 0)
(7.708169473575179e-07 -2.559242585174292e-08 0)
(7.90545097487366e-07 -2.595950567968672e-08 0)
(8.105176725056383e-07 -2.627213176374592e-08 0)
(8.307428934245324e-07 -2.653059523172727e-08 0)
(8.511669449529053e-07 -2.673545145851438e-08 0)
(8.717933337940717e-07 -2.689886984812978e-08 0)
(8.926177574560295e-07 -2.704738171221772e-08 0)
(9.136724931516649e-07 -2.720019128433076e-08 0)
(5.529531431417574e-07 -2.472531142101499e-08 0)
(5.679379366941484e-07 -2.620092124044888e-08 0)
(5.83707575159942e-07 -2.742635565074821e-08 0)
(6.000294077133729e-07 -2.855492519634829e-08 0)
(6.169047820175583e-07 -2.960092684522225e-08 0)
(6.343055148665075e-07 -3.057012778271251e-08 0)
(6.521909629210244e-07 -3.148141634896713e-08 0)
(6.704979757684222e-07 -3.233828089873709e-08 0)
(6.891759018848436e-07 -3.313775846691285e-08 0)
(7.082186984869226e-07 -3.388153747097973e-08 0)
(7.276133247387475e-07 -3.456930743661593e-08 0)
(7.473226452803125e-07 -3.519735942437057e-08 0)
(7.672989293945143e-07 -3.575872120532354e-08 0)
(7.875035056858974e-07 -3.624959708451387e-08 0)
(8.079387119528483e-07 -3.667275593852877e-08 0)
(8.286240151591474e-07 -3.702235222088919e-08 0)
(8.494903593494897e-07 -3.730140899732339e-08 0)
(8.705678908217929e-07 -3.753577434644285e-08 0)
(8.918226142522226e-07 -3.776053654387561e-08 0)
(9.132258718579836e-07 -3.800834778769637e-08 0)
(5.382855923342534e-07 -3.250525097013389e-08 0)
(5.542175049001749e-07 -3.420597512937381e-08 0)
(5.71019351444181e-07 -3.563252448952648e-08 0)
(5.883097505522499e-07 -3.699104820830435e-08 0)
(6.061083568559095e-07 -3.826881140685164e-08 0)
(6.243978079685183e-07 -3.94620302487938e-08 0)
(6.431657291576873e-07 -4.059446312828547e-08 0)
(6.623057061372691e-07 -4.166050004906382e-08 0)
(6.818025173928464e-07 -4.266277533407486e-08 0)
(7.016366130404486e-07 -4.35982211987981e-08 0)
(7.217700824382029e-07 -4.445766921011473e-08 0)
(7.421656385233818e-07 -4.523238800331563e-08 0)
(7.627933369125267e-07 -4.591691480188496e-08 0)
(7.836496428239581e-07 -4.651385142271121e-08 0)
(8.047392420282938e-07 -4.703031811399556e-08 0)
(8.259986467609043e-07 -4.74601809937238e-08 0)
(8.474595842358179e-07 -4.781487140849975e-08 0)
(8.690413512917707e-07 -4.812740387541158e-08 0)
(8.908325001949008e-07 -4.844109436028645e-08 0)
(9.127196278565983e-07 -4.879357146638177e-08 0)
(5.206358759523819e-07 -4.074080948130607e-08 0)
(5.377207234339125e-07 -4.25625741053146e-08 0)
(5.557538796208368e-07 -4.410138104602856e-08 0)
(5.742116602217577e-07 -4.562963755119421e-08 0)
(5.931859220969559e-07 -4.710190354144102e-08 0)
(6.126043329843481e-07 -4.850327485854464e-08 0)
(6.324797982289751e-07 -4.984547515005534e-08 0)
(6.526591388284624e-07 -5.110347160131678e-08 0)
(6.731083681832986e-07 -5.228127538432587e-08 0)
(6.938409077923323e-07 -5.337939358865664e-08 0)
(7.148474014642235e-07 -5.438649665557116e-08 0)
(7.360913747682376e-07 -5.52889107850628e-08 0)
(7.575264046349075e-07 -5.608237837902846e-08 0)
(7.791519753367367e-07 -5.677576793118425e-08 0)
(8.009911309919222e-07 -5.737162990358873e-08 0)
(8.229342954715213e-07 -5.786960876101385e-08 0)
(8.450741857067719e-07 -5.829546094920069e-08 0)
(8.672922115836131e-07 -5.868636179017585e-08 0)
(8.89720394075124e-07 -5.908965481335702e-08 0)
(9.122092620687031e-07 -5.95317226655057e-08 0)
(5.002746133682332e-07 -4.952303737434648e-08 0)
(5.188011665672566e-07 -5.133793092568652e-08 0)
(5.38387759296159e-07 -5.288799288929539e-08 0)
(5.583041279426683e-07 -5.451468556038247e-08 0)
(5.786798585707838e-07 -5.612058341222347e-08 0)
(5.994204809458169e-07 -5.76888765464693e-08 0)
(6.204692713199567e-07 -5.91966860375081e-08 0)
(6.417821035632918e-07 -6.062167477816333e-08 0)
(6.633290956989194e-07 -6.195813105145808e-08 0)
(6.851116387881896e-07 -6.319913760195671e-08 0)
(7.071159186370928e-07 -6.433240285638074e-08 0)
(7.293012280663944e-07 -6.534388346385077e-08 0)
(7.516346314906902e-07 -6.623082920326551e-08 0)
(7.741220381493167e-07 -6.700607018277679e-08 0)
(7.967493183438889e-07 -6.767041995299814e-08 0)
(8.194730299635928e-07 -6.823187492880756e-08 0)
(8.423931845905304e-07 -6.872568681446309e-08 0)
(8.653720655115249e-07 -6.918431634368834e-08 0)
(8.885357945679143e-07 -6.964600787916635e-08 0)
(9.117161839526566e-07 -7.013307250137732e-08 0)
(4.775178416581401e-07 -5.888466770544403e-08 0)
(4.978341153003043e-07 -6.054084340280669e-08 0)
(5.19273112336152e-07 -6.199813362435868e-08 0)
(5.409305558595933e-07 -6.364749599489784e-08 0)
(5.628949833497287e-07 -6.531755339147594e-08 0)
(5.851476556110763e-07 -6.698797921416568e-08 0)
(6.075685895702922e-07 -6.860287049116215e-08 0)
(6.301509836621297e-07 -7.014767980947564e-08 0)
(6.528991417785495e-07 -7.160616737559577e-08 0)
(6.758238257826839e-07 -7.295962200188522e-08 0)
(6.989022158572617e-07 -7.41917389548184e-08 0)
(7.220705554348687e-07 -7.529082927900032e-08 0)
(7.45311578162064e-07 -7.62601596741877e-08 0)
(7.686863387216556e-07 -7.711284685660846e-08 0)
(7.921605986167465e-07 -7.784778551377093e-08 0)
(8.157463433192316e-07 -7.847727339423724e-08 0)
(8.395150673232552e-07 -7.90317503965005e-08 0)
(8.633072438972321e-07 -7.953290002989822e-08 0)
(8.872747934455296e-07 -8.000781166233915e-08 0)
(9.112443791125969e-07 -8.04894344461358e-08 0)
(4.524305452305512e-07 -6.893038441079074e-08 0)
(4.751888489046524e-07 -7.021538792978705e-08 0)
(4.989311122922569e-07 -7.145648717892795e-08 0)
(5.22644024410539e-07 -7.301383186546073e-08 0)
(5.464755551832421e-07 -7.466941858391757e-08 0)
(5.703702058217175e-07 -7.634944918833419e-08 0)
(5.942885017452333e-07 -7.799776130859458e-08 0)
(6.182350540951344e-07 -7.959469459534862e-08 0)
(6.422313307608584e-07 -8.111335410391809e-08 0)
(6.662969337895616e-07 -8.25286067515983e-08 0)
(6.904209501800984e-07 -8.382323070644497e-08 0)
(7.145638055129269e-07 -8.498936333995179e-08 0)
(7.387425955461571e-07 -8.603586526421138e-08 0)
(7.630292191170648e-07 -8.697007886544958e-08 0)
(7.873667612765888e-07 -8.778249345990288e-08 0)
(8.118199607575362e-07 -8.848562188426999e-08 0)
(8.364456723913259e-07 -8.909800761663578e-08 0)
(8.610902906260742e-07 -8.962440278644387e-08 0)
(8.858894851265865e-07 -9.008436354721292e-08 0)
(9.107116143993079e-07 -9.053053349462863e-08 0)
(4.25519233819495e-07 -8.033997770395916e-08 0)
(4.521229042126979e-07 -8.062208207836749e-08 0)
(4.788772785311924e-07 -8.143695527840586e-08 0)
(5.050268239663453e-07 -8.270703738580691e-08 0)
(5.308585937066436e-07 -8.41606513883742e-08 0)
(5.56421470558863e-07 -8.56979087991467e-08 0)
(5.8177755446231e-07 -8.72658967533057e-08 0)
(6.069903867133164e-07 -8.882302835918568e-08 0)
(6.32130816007001e-07 -9.032865846359396e-08 0)
(6.572486480844073e-07 -9.175325449846214e-08 0)
(6.823418332713947e-07 -9.307883744471718e-08 0)
(7.073827779504686e-07 -9.429638557519472e-08 0)
(7.324237232596064e-07 -9.54118512442974e-08 0)
(7.575379218692706e-07 -9.642415493537435e-08 0)
(7.826674976548737e-07 -9.731720608677623e-08 0)
(8.079239580782255e-07 -9.810107381955873e-08 0)
(8.333059659817631e-07 -9.877851710907313e-08 0)
(8.587378131076497e-07 -9.934021120002312e-08 0)
(8.843196158974966e-07 -9.980210237913139e-08 0)
(9.099958941706854e-07 -1.002170285274809e-07 0)
(3.993151066646904e-07 -9.633839073443067e-08 0)
(4.320216125717771e-07 -9.355710061271858e-08 0)
(4.622738639468868e-07 -9.310738504394942e-08 0)
(4.909833667785701e-07 -9.353219029657749e-08 0)
(5.186682038080225e-07 -9.441982788456053e-08 0)
(5.45697135578081e-07 -9.557375670319642e-08 0)
(5.722614096074188e-07 -9.687416573662152e-08 0)
(5.985070374515337e-07 -9.823472821826493e-08 0)
(6.245540341741173e-07 -9.959405752603478e-08 0)
(6.504845369250736e-07 -1.009134014518659e-07 0)
(6.763070324451561e-07 -1.02169029646302e-07 0)
(7.020072385240598e-07 -1.033470480796555e-07 0)
(7.276780775807226e-07 -1.044463211176483e-07 0)
(7.533832350372477e-07 -1.054569156873018e-07 0)
(7.790485859231542e-07 -1.063580359068159e-07 0)
(8.048370419333531e-07 -1.071549002438368e-07 0)
(8.306781451556893e-07 -1.078380187729838e-07 0)
(8.565856215630115e-07 -1.083997975711446e-07 0)
(8.826100378675876e-07 -1.088550335901566e-07 0)
(9.087644365682237e-07 -1.092163694730013e-07 0)
(3.87184837585783e-07 -1.11408287407978e-07 0)
(4.200385329635779e-07 -1.079598007945998e-07 0)
(4.510210824929939e-07 -1.063493531000827e-07 0)
(4.808041368023708e-07 -1.058143365995593e-07 0)
(5.095564867780566e-07 -1.059781042016536e-07 0)
(5.375647105046304e-07 -1.065917624739257e-07 0)
(5.650108615870261e-07 -1.074707801309196e-07 0)
(5.920476846714039e-07 -1.084947906412639e-07 0)
(6.187983493071666e-07 -1.095854996746715e-07 0)
(6.453538558093712e-07 -1.106918322303333e-07 0)
(6.717294667952669e-07 -1.117771668112103e-07 0)
(6.979288214127365e-07 -1.128178864680511e-07 0)
(7.240705186881195e-07 -1.138054041608636e-07 0)
(7.501941220144775e-07 -1.147207863523584e-07 0)
(7.762201809272168e-07 -1.155409793830583e-07 0)
(8.023427725764494e-07 -1.162693310553155e-07 0)
(8.284431466973912e-07 -1.168909584946193e-07 0)
(8.546024749153844e-07 -1.174066779615974e-07 0)
(8.808172678402922e-07 -1.178189798143427e-07 0)
(9.071203506354789e-07 -1.180610295506901e-07 0)
(3.796550111891936e-07 -1.243904562536023e-07 0)
(4.117286585017835e-07 -1.213301030587909e-07 0)
(4.426702376558948e-07 -1.193950754226267e-07 0)
(4.727585602136176e-07 -1.183371411684018e-07 0)
(5.020379127005904e-07 -1.179742662227588e-07 0)
(5.306379818805873e-07 -1.181134246162136e-07 0)
(5.587002265619475e-07 -1.185821141073961e-07 0)
(5.863314733220357e-07 -1.192594818782706e-07 0)
(6.136327045548811e-07 -1.20061436605631e-07 0)
(6.406911838957265e-07 -1.209285068049883e-07 0)
(6.675172188862613e-07 -1.218119233287694e-07 0)
(6.941250158066742e-07 -1.226790329580193e-07 0)
(7.206525204898963e-07 -1.235173679769695e-07 0)
(7.471143885997485e-07 -1.243024099138319e-07 0)
(7.734351589256305e-07 -1.250110392583816e-07 0)
(7.998165916109823e-07 -1.256464951951044e-07 0)
(8.261207662557066e-07 -1.261945905958001e-07 0)
(8.524670557295843e-07 -1.266550278206921e-07 0)
(8.788069896870971e-07 -1.269935260628045e-07 0)
(9.051984800983425e-07 -1.270798102140744e-07 0)
(3.740932314769851e-07 -1.364840374675204e-07 0)
(4.054464495139405e-07 -1.338358403048231e-07 0)
(4.360898058930909e-07 -1.319033632214382e-07 0)
(4.661622691725442e-07 -1.306189093700285e-07 0)
(4.956393918173944e-07 -1.299277969231892e-07 0)
(5.245687259669491e-07 -1.297109537471035e-07 0)
(5.53034156443225e-07 -1.298416788474359e-07 0)
(5.81082089872053e-07 -1.302135932954904e-07 0)
(6.087921572035996e-07 -1.307454649969983e-07 0)
(6.362459947072004e-07 -1.313767650556898e-07 0)
(6.634397248974137e-07 -1.320521200011366e-07 0)
(6.903890292896346e-07 -1.327351374685484e-07 0)
(7.172443945554154e-07 -1.334148265929599e-07 0)
(7.439947724123635e-07 -1.34062921057138e-07 0)
(7.70578766865111e-07 -1.346555877897492e-07 0)
(7.971894930240342e-07 -1.351951581358324e-07 0)
(8.236759010861001e-07 -1.356664665075953e-07 0)
(8.501801113401209e-07 -1.360548755885995e-07 0)
(8.766253400703988e-07 -1.362799958088816e-07 0)
(9.031019271119885e-07 -1.362283717828119e-07 0)
(3.697064901981673e-07 -1.479895296870953e-07 0)
(4.005042310316502e-07 -1.457230390198928e-07 0)
(4.307938441669698e-07 -1.439407790574064e-07 0)
(4.607343575838801e-07 -1.426018480572671e-07 0)
(4.902240265507476e-07 -1.417253102722649e-07 0)
(5.193077781368093e-07 -1.412628717489575e-07 0)
(5.480049622523537e-07 -1.411341827840477e-07 0)
(5.763141878737177e-07 -1.412509372591176e-07 0)
(6.04304544359303e-07 -1.415411881443979e-07 0)
(6.320536057999724e-07 -1.419513361564639e-07 0)
(6.595382699074977e-07 -1.424255014186684e-07 0)
(6.867694661853027e-07 -1.429290066632521e-07 0)
(7.139035003216751e-07 -1.434564642785514e-07 0)
(7.409002175640617e-07 -1.439758037572537e-07 0)
(7.677157450893467e-07 -1.444598224032304e-07 0)
(7.945268276762997e-07 -1.449061753493585e-07 0)
(8.211781702796208e-07 -1.45291655548409e-07 0)
(8.478160338818095e-07 -1.455813125265205e-07 0)
(8.743577819832122e-07 -1.456753895697062e-07 0)
(9.00922244099977e-07 -1.45560371502791e-07 0)
(3.660497982379457e-07 -1.591274510350238e-07 0)
(3.964158889275681e-07 -1.5719219977735e-07 0)
(4.26416070393281e-07 -1.555828789444921e-07 0)
(4.561717462500436e-07 -1.542737047167333e-07 0)
(4.855937806529119e-07 -1.533115405429342e-07 0)
(5.147295380077567e-07 -1.526969693811743e-07 0)
(5.435425332937492e-07 -1.523837584437704e-07 0)
(5.720021195417085e-07 -1.523013797180794e-07 0)
(6.00175970490093e-07 -1.523897947363546e-07 0)
(6.281392225064474e-07 -1.526082575255613e-07 0)
(6.558489456365991e-07 -1.529043676742409e-07 0)
(6.833102395773326e-07 -1.5324837374034e-07 0)
(7.106795989310723e-07 -1.536411112848634e-07 0)
(7.378863585851535e-07 -1.54045893281554e-07 0)
(7.649088642896004e-07 -1.544301875004365e-07 0)
(7.918843858884184e-07 -1.547816991068899e-07 0)
(8.186779443009574e-07 -1.550665456760655e-07 0)
(8.45429567150049e-07 -1.552404964215215e-07 0)
(8.720667632998986e-07 -1.552374066910316e-07 0)
(8.987115312477729e-07 -1.551230347684012e-07 0)
(3.62922959348065e-07 -1.700252663833685e-07 0)
(3.929461571501745e-07 -1.683554832488355e-07 0)
(4.227293312287412e-07 -1.669073684665599e-07 0)
(4.522868258350043e-07 -1.656736537280702e-07 0)
(4.81614692321795e-07 -1.647012674542352e-07 0)
(5.107401321026334e-07 -1.640100709724544e-07 0)
(5.395951121968665e-07 -1.635767956014639e-07 0)
(5.681331166013465e-07 -1.633481324745933e-07 0)
(5.964228027043877e-07 -1.632761329259701e-07 0)
(6.245367905849136e-07 -1.633375614641112e-07 0)
(6.524148351027509e-07 -1.634849865097893e-07 0)
(6.800589288331615e-07 -1.636940346864593e-07 0)
(7.076186912241701e-07 -1.639676219129179e-07 0)
(7.34990313008265e-07 -1.642640598950351e-07 0)
(7.621868765810995e-07 -1.645470042155801e-07 0)
(7.892959795424084e-07 -1.647934788068386e-07 0)
(8.162066433154767e-07 -1.649666567696028e-07 0)
(8.430599424518113e-07 -1.650367457946208e-07 0)
(8.697888342113369e-07 -1.649973399424834e-07 0)
(8.964962403401922e-07 -1.648619386342596e-07 0)
(3.602411364455191e-07 -1.807420750428904e-07 0)
(3.90011051685238e-07 -1.79278189671348e-07 0)
(4.196043329573817e-07 -1.779885430087434e-07 0)
(4.489865690327908e-07 -1.768588652539814e-07 0)
(4.782079730437455e-07 -1.759260147068523e-07 0)
(5.072807763561057e-07 -1.75208257477039e-07 0)
(5.361291019023684e-07 -1.746993833376084e-07 0)
(5.646970898839082e-07 -1.743632913934776e-07 0)
(5.930529736204401e-07 -1.741629454922409e-07 0)
(6.21265597586501e-07 -1.740967764042804e-07 0)
(6.492602395431183e-07 -1.741218257929145e-07 0)
(6.770402644826849e-07 -1.742182274717618e-07 0)
(7.047452857653209e-07 -1.743835180367807e-07 0)
(7.322401807928813e-07 -1.745706095609641e-07 0)
(7.595661104026365e-07 -1.747446088021241e-07 0)
(7.867808916468752e-07 -1.74880444785041e-07 0)
(8.137899134796616e-07 -1.749523350258281e-07 0)
(8.407374728344001e-07 -1.749574567416873e-07 0)
(8.675425053579742e-07 -1.749067052047803e-07 0)
(8.943000231675694e-07 -1.746858819152766e-07 0)
(3.579209829604545e-07 -1.913189142795237e-07 0)
(3.875129016609007e-07 -1.900284309505149e-07 0)
(4.169404306066451e-07 -1.88891814486774e-07 0)
(4.461818434009961e-07 -1.878713571230979e-07 0)
(4.752904130379349e-07 -1.869932587619052e-07 0)
(5.042881524606293e-07 -1.86268795562683e-07 0)
(5.331023986462473e-07 -1.857068254534675e-07 0)
(5.616705918503122e-07 -1.852892699747658e-07 0)
(5.900596690805228e-07 -1.849870095386053e-07 0)
(6.18333131294779e-07 -1.848210537706903e-07 0)
(6.464029964526138e-07 -1.847499774928775e-07 0)
(6.742743573401385e-07 -1.847568270046259e-07 0)
(7.020736406459287e-07 -1.848279359256857e-07 0)
(7.29652604315715e-07 -1.849112947106015e-07 0)
(7.570671629795687e-07 -1.849799118096183e-07 0)
(7.843648607265956e-07 -1.85020573022016e-07 0)
(8.11459096912247e-07 -1.850239689469273e-07 0)
(8.384874828777396e-07 -1.849980750146886e-07 0)
(8.653474606228099e-07 -1.848967001905663e-07 0)
(8.921493497037406e-07 -1.846042802159909e-07 0)
(3.559011162989126e-07 -2.018048753914326e-07 0)
(3.853552090542269e-07 -2.006756618261046e-07 0)
(4.146544180549268e-07 -1.996668955383153e-07 0)
(4.437766309140039e-07 -1.987346946729697e-07 0)
(4.727765244719333e-07 -1.979009390936784e-07 0)
(5.016973330729967e-07 -1.971738093571251e-07 0)
(5.304692019775311e-07 -1.965752146757827e-07 0)
(5.590236928179111e-07 -1.961044308641761e-07 0)
(5.874268053670426e-07 -1.957343129520871e-07 0)
(6.15733860151841e-07 -1.955005301873071e-07 0)
(6.438447763963126e-07 -1.95360317526512e-07 0)
(6.717684760389735e-07 -1.952974882899778e-07 0)
(6.996158248934584e-07 -1.952881846201014e-07 0)
(7.272428752984456e-07 -1.952804195250234e-07 0)
(7.547148246893474e-07 -1.952603375371904e-07 0)
(7.82079977295799e-07 -1.952309811519041e-07 0)
(8.092453235240402e-07 -1.951931636442719e-07 0)
(8.363308669376423e-07 -1.951290547582017e-07 0)