/*--------------------------------*- C++ -*----------------------------------*\
| =========                 |                                                 |
| \\      /  F ield         | foam-extend: Open Source CFD                    |
|  \\    /   O peration     | Version:     4.1                                |
|   \\  /    A nd           | Web:         http://www.foam-extend.org         |
|    \\/     M anipulation  |                                                 |
\*---------------------------------------------------------------------------*/
FoamFile
{
    version     2.0;
    format      ascii;
    class       volSymmTensorField;
    location    "1";
    object      epsilon;
}
// * * * * * * * * * * * * * * * * * * * * * * * * * * * * * * * * * * * * * //

dimensions      [0 0 0 0 0 0 0];

internalField   nonuniform List<symmTensor> 
1000
(
(3.26052348227087e-07 -3.522003551054665e-07 1.435606026028807e-21 1.769350619510335e-09 -1.472523469974725e-22 1.617928135305545e-36)
(5.092140777605018e-07 -2.734414909565833e-07 8.701647643840355e-22 -1.953985451760488e-07 2.770881076048961e-22 0)
(5.963631381510581e-07 -2.170391375020364e-07 -7.118126700837739e-22 -2.862204731203308e-07 3.646600269724743e-22 0)
(6.475553532741078e-07 -1.772544414176164e-07 6.195941449012091e-22 -3.440501335047839e-07 2.770674694856441e-22 0)
(6.724655989950927e-07 -1.469811272543881e-07 6.119395159417908e-22 -3.722859292674885e-07 2.433265323014822e-22 0)
(6.830212745004099e-07 -1.242478090996257e-07 -2.1424277213449e-22 -3.866236991403686e-07 -1.292424371222059e-22 0)
(6.848414014388539e-07 -1.061851377913639e-07 -5.952965590445299e-22 -3.908629429241555e-07 -3.137594243878616e-22 0)
(6.809519998252487e-07 -9.214903078232036e-08 -3.427354046802806e-22 -3.89488894990814e-07 -2.018386334788508e-22 0)
(6.751751180294052e-07 -8.030669329650127e-08 7.550659749713262e-22 -3.849013161296611e-07 2.766777349934655e-22 0)
(6.650417922842594e-07 -7.015783385621599e-08 9.793111765059127e-23 -3.782516161582702e-07 1.408990654362077e-22 0)
(4.465630580655245e-07 -4.232453740890436e-07 4.247279805050011e-22 -2.5298522978824e-08 -6.344714701044746e-22 -1.201862138946456e-36)
(5.951196279504153e-07 -2.911212898364726e-07 -1.319720445314748e-21 -2.057556537932254e-07 -1.435301629535569e-22 0)
(6.606618596250671e-07 -2.056059058066365e-07 3.170126539238015e-22 -2.859379875952135e-07 1.68927478809398e-22 0)
(6.963545618708136e-07 -1.491850355549889e-07 1.704268975757739e-21 -3.384990915891557e-07 9.249384184044474e-22 0)
(7.105234516351769e-07 -1.097781770292005e-07 1.508037281212457e-21 -3.634624731769641e-07 9.892587074775578e-22 0)
(7.131878499739821e-07 -8.250213536208283e-08 1.258511113026034e-21 -3.765020096759626e-07 7.643660355898918e-22 0)
(7.090828058424591e-07 -6.254649387268221e-08 7.081445811666603e-22 -3.800917707008865e-07 5.264199191505214e-22 0)
(7.009150436219763e-07 -4.847098931070105e-08 -5.673457945851909e-22 -3.791215260195934e-07 -2.498091423597534e-22 0)
(6.906905078149475e-07 -3.741576851088927e-08 9.399738193196421e-22 -3.739958529420879e-07 5.435585157615799e-22 0)
(6.789127799374584e-07 -2.952924666236954e-08 1.476365625266282e-22 -3.694789980571358e-07 -9.348482248286598e-24 0)
(5.866215052761649e-07 -4.750298285462115e-07 -2.138017034060293e-21 -7.542705681994975e-08 6.365900930938328e-22 4.722600492135077e-36)
(6.85275161942775e-07 -2.989388808055996e-07 1.310917413111051e-21 -2.231902378923511e-07 2.339216944579885e-22 0)
(7.208577184244119e-07 -1.898155779638405e-07 -3.067486436053387e-22 -2.839500451571255e-07 -1.672453757783279e-22 0)
(7.363227228528153e-07 -1.201190439523135e-07 4.370132329941704e-22 -3.261080923607191e-07 -5.5486620000233e-24 0)
(7.371565014257927e-07 -7.367146742212249e-08 4.087725185923232e-22 -3.448842394624758e-07 1.927883922822992e-22 0)
(7.305790764138677e-07 -4.311209198324266e-08 7.91880162663642e-22 -3.550054827350211e-07 4.557525234815291e-22 0)
(7.200068516028068e-07 -2.205049606183027e-08 5.959896819824732e-22 -3.571232972089687e-07 2.0578796306378e-22 0)
(7.072070496972634e-07 -8.19628437326995e-09 -3.495161410476459e-23 -3.560787719478827e-07 4.637385601733119e-23 0)
(6.933445416731464e-07 1.813506149730226e-09 2.29797426158749e-23 -3.509122631111555e-07 -2.337610325781956e-23 0)
(6.78981894637812e-07 9.095982164373022e-09 -7.397089275258348e-24 -3.476379165107118e-07 -2.090493513616925e-22 0)
(7.392181499082314e-07 -5.014063457867154e-07 4.013057951351894e-21 -1.437991010919237e-07 -5.707554315144959e-22 1.332407216006871e-35)
(7.763617365820815e-07 -2.951958495728443e-07 -4.005439114754425e-22 -2.461855897106414e-07 9.940913767663818e-24 0)
(7.757391178429526e-07 -1.704090030821701e-07 -1.969558758756009e-22 -2.806324199750283e-07 -4.821348578920741e-24 0)
(7.675647773054999e-07 -9.218018585764252e-08 6.884841918769713e-22 -3.083679596116236e-07 3.273050844392247e-22 0)
(7.532711735462694e-07 -4.152876648409569e-08 -9.604424065165341e-22 -3.187527536819264e-07 -5.737556196653006e-22 0)
(7.36686367971746e-07 -9.261164492684395e-09 -3.782799468780793e-22 -3.2479059686293e-07 -2.095618814171151e-22 0)
(7.194061647682992e-07 1.202547190878664e-08 -6.983015480574302e-22 -3.249642993712849e-07 -4.367995198572065e-22 0)
(7.022014866253806e-07 2.537758367554123e-08 4.696882325833895e-22 -3.236585632182404e-07 2.970407685982106e-22 0)
(6.851247086037596e-07 3.420250993643158e-08 -4.993909867921926e-22 -3.18824486178055e-07 -4.444541005997199e-22 0)
(6.690010586670479e-07 4.06612885795283e-08 4.074512161769809e-22 -3.166705987205121e-07 2.408101729550045e-22 0)
(8.956864410749328e-07 -4.981809833524828e-07 1.539843187005679e-21 -2.237930261708434e-07 -3.429099090036861e-23 -1.293472762892255e-37)
(8.645905974554641e-07 -2.788934622755924e-07 -1.048560124011366e-21 -2.725940219056618e-07 -3.43877320751042e-22 0)
(8.242763324322519e-07 -1.481214884255514e-07 1.657616473938908e-21 -2.763340298113052e-07 7.581915496583975e-22 0)
(7.907059361015521e-07 -6.710357705535251e-08 -2.884735640129237e-22 -2.870377126410838e-07 -1.827167582477455e-22 0)
(7.604922724714048e-07 -1.563551762340562e-08 5.790363544796884e-23 -2.876139197802241e-07 4.905113944592012e-23 0)
(7.336864789935975e-07 1.644068016494626e-08 -5.977657038394463e-22 -2.888010537967569e-07 -4.288619801327281e-22 0)
(7.098666833504766e-07 3.692285486918695e-08 -3.256335881430388e-22 -2.867573742441116e-07 -2.61820085968606e-22 0)
(6.885511477523882e-07 4.933376633981414e-08 2.728190965465258e-22 -2.850850640406795e-07 2.430414798192353e-22 0)
(6.689123470898757e-07 5.683897694043039e-08 -7.537441383899397e-22 -2.809253671224393e-07 -5.86646655375602e-22 0)
(6.513897175350568e-07 6.240828020112392e-08 4.121770470890138e-22 -2.798455828922833e-07 2.52636129480279e-22 0)
(1.046414373226628e-06 -4.635694315668697e-07 -6.118435051532066e-22 -3.076733835234246e-07 6.690903719046622e-23 -1.729153620524922e-36)
(9.460127905704288e-07 -2.498613342135757e-07 4.816832249960175e-22 -2.999871909836283e-07 1.655882738382978e-22 0)
(8.656978889040228e-07 -1.236314251081429e-07 4.419215116109333e-22 -2.715914021843371e-07 1.906641077793039e-22 0)
(8.068754349582104e-07 -4.603546380970353e-08 -5.793566615426138e-22 -2.643567541898241e-07 -3.029752478424287e-22 0)
(7.61047501400156e-07 2.623881742121646e-09 -7.71765579772921e-23 -2.546714965297109e-07 -9.354087370102231e-23 0)
(7.244351533823917e-07 3.249595325473157e-08 -1.432268392531863e-21 -2.507399990215466e-07 -7.928202710785992e-22 0)
(6.945284887830075e-07 5.110842802972795e-08 -9.364848031391284e-24 -2.464087032383656e-07 1.558736854334194e-22 0)
(6.695453297070574e-07 6.210387352627581e-08 -2.447116771288742e-22 -2.443016544195416e-07 -2.851513660302835e-22 0)
(6.478533150911272e-07 6.820079960155411e-08 -9.473441796593194e-23 -2.409786677308532e-07 -1.435237671748393e-22 0)
(6.29282376778691e-07 7.280831512176937e-08 2.560181425946218e-22 -2.408425799614141e-07 2.810446924216173e-22 0)
(1.181616921138114e-06 -3.984340219486147e-07 -2.730674102238188e-21 -3.873052209806326e-07 6.452141577183848e-23 4.029268809663733e-37)
(1.016729982141021e-06 -2.088392108493061e-07 1.329449452676141e-21 -3.25800869874975e-07 6.072129995487164e-22 0)
(8.993968233354146e-07 -9.756195407077286e-08 -1.414336365164523e-22 -2.669329542861948e-07 -1.047930305332709e-22 0)
(8.174164504058126e-07 -2.951437292035822e-08 -6.157522996566011e-22 -2.42622324527682e-07 -2.046342372981535e-22 0)
(7.574111140612821e-07 1.277989310664946e-08 -6.685942239006187e-22 -2.232129434656697e-07 -4.017094814248366e-22 0)
(7.120286444013994e-07 3.847607332114354e-08 1.159039958527593e-21 -2.144066717313361e-07 4.195262969598054e-22 0)
(6.768143301809035e-07 5.419940134157617e-08 -3.569886043720792e-24 -2.079354387794339e-07 1.291436655040055e-22 0)
(6.487118234913245e-07 6.332365673560853e-08 -4.109524009751986e-22 -2.053855506933317e-07 -1.655489932680311e-22 0)
(6.254642342246586e-07 6.800006005909523e-08 4.631670938070087e-22 -2.02947920505694e-07 3.092907677914971e-22 0)
(6.060869762523894e-07 7.162827117797167e-08 -1.409225838869644e-22 -2.03581432613996e-07 1.497618979161304e-22 0)
(1.292198438790339e-06 -3.062480819687831e-07 2.531781940106048e-21 -4.549665402074288e-07 2.610495726165043e-22 5.143240507850976e-36)
(1.073257195663527e-06 -1.574090152399732e-07 -3.744549690843781e-22 -3.476387770028789e-07 2.082674263510863e-22 0)
(9.250068202635633e-07 -7.040993667429572e-08 -3.356122772079819e-22 -2.629067131344485e-07 -4.074067379828132e-22 0)
(8.23801165806395e-07 -1.73871214234577e-08 -3.768095479897749e-22 -2.240635533259562e-07 -3.22330252599394e-22 0)
(7.521032221152473e-07 1.537413356912342e-08 -2.736692825864234e-22 -1.964014443926183e-07 1.407773265511018e-22 0)
(6.995623730333284e-07 3.514180832531525e-08 1.002715231735023e-21 -1.834424468755034e-07 4.851255290317882e-22 0)
(6.600903709872317e-07 4.708374624684556e-08 1.459357626258314e-22 -1.751685694749276e-07 -1.203278237295867e-22 0)
(6.295309681402193e-07 5.393116803109111e-08 5.163676593143216e-22 -1.722197985500454e-07 1.907616784423108e-22 0)
(6.051716673317087e-07 5.721993921359224e-08 3.503824032443492e-22 -1.705868111442295e-07 1.327482559224789e-22 0)
(5.852070461839391e-07 5.984385181236066e-08 -7.416608435239351e-22 -1.717968788967945e-07 -3.623819488261366e-22 0)
(1.370507136331026e-06 -1.928758405619294e-07 7.98197497545733e-22 -5.040985852841667e-07 -1.469642097724933e-22 1.172825076229636e-37)
(1.112650327614567e-06 -9.796996034367272e-08 -2.358989157914055e-21 -3.634668232672219e-07 -1.388037724937942e-22 0)
(9.421832102811566e-07 -4.259677338222452e-08 -1.92946348709395e-21 -2.59962257220437e-07 -3.878262323795472e-22 0)
(8.272151122750236e-07 -8.905243262441016e-09 1.538222318799879e-21 -2.105564572500012e-07 3.047652021939441e-22 0)
(7.471825586007049e-07 1.183867238630423e-08 3.142551414788676e-23 -1.769051087248689e-07 1.410824541564584e-22 0)
(6.89574722109615e-07 2.430535387540934e-08 -6.387734511049469e-22 -1.609263826148423e-07 -1.879923912001178e-22 0)
(6.471265640151824e-07 3.177681953261896e-08 -1.971977907342529e-25 -1.513521511763468e-07 7.213655147773939e-23 0)
(6.148698213763865e-07 3.603058781859215e-08 8.640076745878313e-22 -1.481048684398311e-07 3.250680752160363e-22 0)
(5.898031800748146e-07 3.798500523644898e-08 2.711199688750042e-22 -1.470839179427136e-07 -2.707942790577994e-22 0)
(5.694561208134484e-07 3.957995446107651e-08 -7.560603268180971e-22 -1.486840924168012e-07 -1.831966299964305e-22 0)
(1.410954018998339e-06 -6.591327938181509e-08 8.827373838140822e-22 -5.297471098233112e-07 -2.177401299128598e-22 5.892615243882045e-37)
(1.13278584809511e-06 -3.333194300722431e-08 2.357098632552334e-21 -3.714434206648194e-07 -4.34960303623477e-22 0)
(9.506707959678712e-07 -1.430941069756422e-08 -2.891982011880467e-21 -2.578942029399641e-07 3.153443146179639e-22 0)
(8.284935433984818e-07 -2.733541122453451e-09 3.706432737694726e-21 -2.028302480051406e-07 3.692960174939083e-22 0)
(7.440997589890215e-07 4.386782295387393e-09 -2.011319806180366e-21 -1.659656165717504e-07 -3.352074542372251e-22 0)
(6.838519369938832e-07 8.661198985592695e-09 -2.493465240815156e-21 -1.483688997319977e-07 -7.699521680592389e-23 0)
(6.398648483459327e-07 1.121498957047995e-08 1.370823341019425e-22 -1.381026075213537e-07 2.394213063898551e-22 0)
(6.067402471009253e-07 1.266581130168547e-08 1.714567288021075e-21 -1.347020351746596e-07 2.173293236452559e-22 0)
(5.813317973100803e-07 1.331970824826483e-08 -4.192876117492891e-22 -1.340194735216904e-07 -5.875565139161981e-22 0)
(5.608116885862229e-07 1.385972727541551e-08 3.897017412192971e-23 -1.358477510394347e-07 7.538758007642271e-23 0)
(1.913723956832289e-07 1.731221210332057e-08 -2.106775327304904e-23 -5.165876712867099e-07 -3.508152975555023e-22 -3.6746598252347e-39)
(1.279798906119313e-07 -7.740046967570007e-09 0 -3.416063521069199e-07 0 0)
(9.772730824654468e-08 -2.050930466410949e-08 -1.776973759397398e-22 -2.380690722530971e-07 -3.571726706556804e-22 0)
(1.033381499424554e-07 -2.733586281102278e-08 1.142492843097496e-22 -1.787017823342166e-07 1.928057523635067e-22 0)
(1.180210145545475e-07 -3.051974356113544e-08 1.516334734618118e-23 -1.444666217273689e-07 -1.333320465089008e-22 0)
(1.410392208912682e-07 -3.163840216151336e-08 2.239493747009811e-23 -1.252871147145811e-07 -2.741378132443056e-23 0)
(1.650792651508478e-07 -3.155546097804338e-08 -7.323309881078615e-23 -1.151390281410629e-07 -4.952030060371079e-23 0)
(1.900344698564775e-07 -3.08309073169839e-08 -2.241522844795297e-22 -1.102982119202738e-07 -2.003804721846288e-23 0)
(2.133877534882758e-07 -2.959930953834016e-08 1.391433991553852e-22 -1.087645207886651e-07 3.972411051103784e-23 0)
(2.357083643249795e-07 -2.870190076777909e-08 9.519695245156853e-23 -1.083231118505556e-07 -6.294804337807102e-23 0)
(1.811946605698082e-07 4.814484145692638e-08 -3.263592739562509e-23 -4.912266821893977e-07 -1.167873887884679e-22 -9.255202461443485e-38)
(1.330905393104016e-07 -2.428509119368694e-08 8.723786097176819e-23 -3.342303546322009e-07 1.209768647005156e-22 0)
(1.110488172726787e-07 -6.100129875791193e-08 -3.642939518775751e-23 -2.40475901830257e-07 -4.006560116721715e-23 0)
(1.207892229637355e-07 -8.049953062971995e-08 -2.494030916771605e-22 -1.868422787461242e-07 -1.835510879682097e-22 0)
(1.374186177779996e-07 -8.95128689111517e-08 1.249978721331537e-22 -1.557387849758415e-07 5.622852367819276e-23 0)
(1.610066841013992e-07 -9.257955826420687e-08 4.701956239384483e-23 -1.381951798959252e-07 8.610403750721832e-23 0)
(1.848533997618973e-07 -9.220584624000906e-08 2.340607146316017e-22 -1.287404740884668e-07 1.115710393235697e-22 0)
(2.092254017783584e-07 -8.998859443099911e-08 2.946879939894848e-24 -1.240690144510487e-07 -9.554641635109426e-26 0)
(2.315791870410296e-07 -8.633850741555773e-08 -1.147114538166152e-22 -1.222551022474743e-07 -6.993777176191714e-23 0)
(2.532020372992512e-07 -8.365580080927339e-08 1.414868659961993e-22 -1.215397208892904e-07 8.510037617743494e-23 0)
(1.619606934752844e-07 6.874256942717345e-08 -5.781686923387251e-25 -4.424316920676924e-07 -1.983524946959443e-23 -9.094462856203814e-40)
(1.42593905939044e-07 -4.306853386945695e-08 0 -3.199215938530659e-07 0 0)
(1.35461103383707e-07 -9.941760844865262e-08 5.969668157849568e-22 -2.446088190470948e-07 4.251922582763498e-22 0)
(1.527622067123591e-07 -1.291051990197234e-07 -3.169929861179733e-22 -2.018051798480298e-07 -1.721120058405239e-22 0)
(1.728820509695836e-07 -1.426210170173219e-07 1.061186912705488e-22 -1.765900171478208e-07 5.269643842309637e-23 0)
(1.974651728416642e-07 -1.469720377384637e-07 -7.468755573534395e-23 -1.62135418325832e-07 -1.124555721063443e-23 0)
(2.209071631194607e-07 -1.46058564724132e-07 -7.720490987392417e-23 -1.539955220659757e-07 -6.66141434317993e-23 0)
(2.441701596591638e-07 -1.423013074621355e-07 3.610200969019403e-22 -1.496550327118112e-07 8.248950387795668e-23 0)
(2.646469556106804e-07 -1.364205166569639e-07 -1.750406999707403e-22 -1.473333137190201e-07 -1.868933844913186e-23 0)
(2.849979358033382e-07 -1.320146072858702e-07 4.68505002070321e-24 -1.461378193225686e-07 4.238634045383137e-23 0)
(1.383065333819542e-07 7.390531310267071e-08 -4.047977369395906e-23 -3.752396249155396e-07 2.950878648688425e-22 -9.689915008081379e-38)
(1.579990181272638e-07 -6.486669872550406e-08 -3.465811165480765e-22 -3.002353458479551e-07 -4.239507949375139e-22 0)
(1.710039886341326e-07 -1.342018891010991e-07 3.242229463103839e-22 -2.502441284932376e-07 2.347288491696741e-22 0)
(1.984126870284529e-07 -1.70345359851111e-07 1.394956410115186e-23 -2.223441841235365e-07 3.081245276741041e-23 0)
(2.231062832157268e-07 -1.86356457396203e-07 -1.519134886530716e-22 -2.05219661316055e-07 -7.184458059788871e-23 0)
(2.488684038264732e-07 -1.910074092952885e-07 -5.532162827067765e-22 -1.950187257136894e-07 -2.32236520675214e-22 0)
(2.716134697525963e-07 -1.891922447273941e-07 -8.132729853430872e-22 -1.887009083423453e-07 -2.946799449370587e-22 0)
(2.932124995165004e-07 -1.838418956853823e-07 -5.340454575131753e-23 -1.84814640199503e-07 4.651555373156521e-24 0)
(3.110407429784591e-07 -1.760324330552278e-07 1.092892660461829e-22 -1.818318628608176e-07 -1.338865336203889e-23 0)
(3.295191390695908e-07 -1.700191525008751e-07 4.175455888894508e-22 -1.799540893736774e-07 6.470550492506546e-23 0)
(1.15749706239077e-07 5.986373211629026e-08 2.788590897591807e-22 -2.963860378995405e-07 8.805706982958718e-22 -1.255638431938284e-36)
(1.803627859267721e-07 -9.027481955916561e-08 -3.928201041596573e-22 -2.772200569749752e-07 -4.599065752040862e-22 0)
(2.163863044837339e-07 -1.642370392487845e-07 -3.857122118116674e-22 -2.569584398342805e-07 -2.803513878049678e-22 0)
(2.551324715457938e-07 -2.021288439638672e-07 1.955671042470518e-22 -2.465994569784722e-07 1.919354601742775e-22 0)
(2.847906707133282e-07 -2.181200694440682e-07 1.947656305325888e-22 -2.38985027701429e-07 1.071210255450695e-22 0)
(3.115886056359415e-07 -2.218488777069256e-07 -2.955544069034565e-23 -2.337944614023047e-07 -2.807613933524603e-23 0)
(3.332541435470381e-07 -2.186897194427898e-07 1.572201960116488e-22 -2.296359572104461e-07 1.056077931659132e-22 0)
(3.526368606273198e-07 -2.117068455120814e-07 -5.294963411714676e-22 -2.262780308368654e-07 -1.192574050142554e-22 0)
(3.672216796695896e-07 -2.023455595048411e-07 1.12386659175841e-22 -2.22568178200414e-07 1.63422009518396e-22 0)
(3.83243306309872e-07 -1.949053310151117e-07 5.98556591663555e-23 -2.198371243271171e-07 1.40349892286535e-22 0)
(1.006414506192954e-07 2.510322073578858e-08 -2.184328594961674e-22 -2.136562295874088e-07 -2.812180622481149e-22 -7.711256506069943e-38)
(2.108424311038606e-07 -1.192506760395287e-07 1.83304578167526e-21 -2.531597701077951e-07 1.635816178793231e-21 0)
(2.699773105594621e-07 -1.886554854972172e-07 -1.572572249080294e-21 -2.640483142080387e-07 -9.400631113510512e-22 0)
(3.197460691973241e-07 -2.231320031167829e-07 8.643652519429386e-24 -2.721561970989717e-07 -8.253153214973605e-23 0)
(3.53948329510577e-07 -2.363541707341569e-07 1.318821497141846e-21 -2.745386755482015e-07 5.976966224159306e-22 0)
(3.812593340348328e-07 -2.378413601861711e-07 5.008047614469254e-22 -2.746368167469939e-07 2.150198807049648e-22 0)
(4.013594992510485e-07 -2.32865856475435e-07 1.047006156901876e-21 -2.727909643734611e-07 4.471329632108692e-22 0)
(4.17985025977795e-07 -2.242390322951219e-07 1.907780375328103e-22 -2.699878901106371e-07 1.288795833708029e-22 0)
(4.289345254005867e-07 -2.137206651799573e-07 -1.556514049815133e-22 -2.656141365346368e-07 3.401879641568472e-23 0)
(4.419634347933136e-07 -2.050892220257309e-07 -3.92182141029277e-22 -2.619221023819307e-07 -2.769615306282612e-22 0)
(9.945206263332852e-08 -2.947625752832775e-08 -1.589258888599108e-22 -1.352583437390862e-07 -1.176518642935709e-21 -3.06476077979762e-36)
(2.505464339140626e-07 -1.511245766251368e-07 2.097039368559483e-21 -2.305566135829652e-07 1.543892285618017e-21 0)
(3.300007653384566e-07 -2.06917142622852e-07 7.584580432129123e-22 -2.709140160490809e-07 1.050730312065367e-21 0)
(3.888815687644681e-07 -2.329033209676136e-07 6.208212105833359e-22 -2.96620308610873e-07 -2.217805290638569e-22 0)
(4.263716633338733e-07 -2.406747751232231e-07 -6.279781441764055e-22 -3.0849245373984e-07 -3.195310148678206e-22 0)
(4.532928007932112e-07 -2.38670737719704e-07 -4.897528930307258e-22 -3.136510829292412e-07 -2.29780395524614e-22 0)
(4.712431506381473e-07 -2.314524365433015e-07 -3.964965583239336e-22 -3.140378754688054e-07 -1.456559319784164e-22 0)
(4.846086495624644e-07 -2.212397360576119e-07 5.628528547335528e-22 -3.117928540977294e-07 1.788810824041351e-22 0)
(4.917497590305898e-07 -2.099640772458113e-07 4.656571329917766e-22 -3.068876339991265e-07 7.003208051694261e-23 0)
(5.013296274232652e-07 -2.003977200678485e-07 -7.651362320022484e-22 -3.022653880109373e-07 -3.180521200800157e-22 0)
(1.17970901297707e-07 -1.005994006846398e-07 1.235905928637279e-21 -6.892686868781975e-08 -4.47127025654641e-22 3.346831179910563e-36)
(3.002452440201871e-07 -1.845643915766238e-07 -8.76665461174962e-22 -2.117495486297338e-07 -1.14091512252236e-21 0)
(3.945070316499945e-07 -2.187590980438253e-07 1.768330079911057e-21 -2.76948378850431e-07 1.261015820414931e-21 0)
(4.590747405536933e-07 -2.317976955201135e-07 6.325816145712842e-22 -3.176656157989963e-07 5.664820624670737e-22 0)
(4.97783338032176e-07 -2.317874505298325e-07 -9.19709658775434e-22 -3.375747344383192e-07 -3.178696988745833e-22 0)
(5.230262621744234e-07 -2.252378122215233e-07 -2.090320144151789e-22 -3.470554395574308e-07 -1.014413367811014e-22 0)
(5.381251384031918e-07 -2.154451644661351e-07 -6.818872824616805e-22 -3.494180939584708e-07 -2.348555441379388e-22 0)
(5.477359901036698e-07 -2.03777317670534e-07 -5.349597560616417e-22 -3.476438607606613e-07 -9.03148418336942e-23 0)
(5.511328517202348e-07 -1.920968908933519e-07 6.423077505250053e-22 -3.42592878123845e-07 1.422642829564717e-22 0)
(5.568371580971131e-07 -1.818302157259858e-07 1.347714055588402e-22 -3.370714260081329e-07 -1.59165147623495e-22 0)
(1.606473617501015e-07 -1.828934271137741e-07 7.286374741798829e-22 -2.121913941779998e-08 -8.39962169913322e-22 2.496521404180017e-37)
(3.602897250142593e-07 -2.176743410268956e-07 -1.997037686956564e-21 -1.987705788365411e-07 -1.024320007587159e-21 0)
(4.616487032381213e-07 -2.241960009186938e-07 -1.175580880583885e-21 -2.817041690358002e-07 -6.272027737347116e-22 0)
(5.272980735342295e-07 -2.209455930468512e-07 -5.247454034320163e-22 -3.334031982129788e-07 -2.774291399788494e-22 0)
(5.645642989499868e-07 -2.114535928880217e-07 -2.828964544276334e-23 -3.590686078593648e-07 4.177973423883952e-23 0)
(5.866174763207209e-07 -1.996969179684121e-07 2.290524245812566e-22 -3.717362803863159e-07 1.151651361978905e-22 0)
(5.981237963667049e-07 -1.871861470076137e-07 7.264524615747242e-22 -3.755128043231612e-07 3.989016136748712e-22 0)
(6.035844486368488e-07 -1.744429170192747e-07 -9.126544510742697e-23 -3.742254485120287e-07 3.911338244302512e-23 0)
(6.034872011150248e-07 -1.627153427771515e-07 -8.335528751394837e-22 -3.691738647563638e-07 -5.158026647547643e-22 0)
(6.05079782172636e-07 -1.521079214394586e-07 8.124519705325588e-22 -3.635992317442309e-07 1.243842313951168e-22 0)
(2.299516696362529e-07 -2.69401635478033e-07 -1.811845364409823e-21 3.157978231043067e-09 8.822026826469376e-23 2.858809472183124e-36)
(4.302874845745388e-07 -2.481552581594115e-07 -2.210916252517038e-23 -1.930618546715708e-07 1.650733319577027e-23 0)
(5.294619355293465e-07 -2.235006978815823e-07 -1.544509677946892e-21 -2.848328906536826e-07 -8.094395545384311e-22 0)
(5.907035164124642e-07 -2.020893525069172e-07 -2.204103257516392e-21 -3.423972291405334e-07 -1.155054935900639e-21 0)
(6.233238400131613e-07 -1.822354806534518e-07 -7.728229780760778e-22 -3.709200473085954e-07 -3.601281484577044e-22 0)
(6.403485322654253e-07 -1.649625996877238e-07 2.006561698350934e-22 -3.851853632963336e-07 1.250785215587806e-22 0)
(6.472164036253317e-07 -1.497721966837249e-07 -2.781544642078537e-22 -3.896359103631033e-07 -5.4261890834641e-23 0)
(6.478892868556773e-07 -1.362317445544e-07 4.517189700637792e-22 -3.882797281525537e-07 1.287015252095389e-22 0)
(6.445360808494943e-07 -1.250571503746621e-07 -5.05271827123907e-22 -3.839644717569752e-07 -4.110580850986589e-22 0)
(6.406465472929339e-07 -1.144817760277716e-07 -4.08055237579916e-22 -3.767886953995376e-07 -5.602812285790461e-23 0)
(2.56514558479525e-07 -2.651698707008512e-08 -2.182639415147406e-25 -1.106424034891398e-07 1.349564295619611e-24 0)
(2.748303915036859e-07 -2.371379761981115e-08 -1.690658529985663e-22 -1.113309457196858e-07 -3.93430391294363e-23 0)
(2.915016292641826e-07 -2.148123904455467e-08 -1.020139969122884e-22 -1.124710091942091e-07 1.208695657690789e-22 0)
(3.067295397716912e-07 -1.942327920631397e-08 2.761294817703695e-22 -1.132777917222357e-07 4.05030682214153e-23 0)
(3.20336692546493e-07 -1.758995334208715e-08 1.022683812067765e-22 -1.136020681400218e-07 2.054859174030471e-23 0)
(3.325781048909816e-07 -1.596637212881761e-08 -2.825124986087871e-22 -1.133996588368257e-07 -2.118011001083708e-23 0)
(3.434488149699912e-07 -1.450615486583567e-08 -2.568420709385014e-22 -1.125099652957667e-07 8.111317795608482e-23 0)
(3.530607716701305e-07 -1.320157964563591e-08 2.229100497674814e-22 -1.109038743117878e-07 8.243698582716499e-23 0)
(3.614570750850193e-07 -1.201725532565279e-08 3.005901631388361e-22 -1.084819533660565e-07 2.057821619492422e-24 0)
(3.686877994816806e-07 -1.093743745560621e-08 1.827414636223026e-21 -1.051884259110763e-07 -2.330650473075943e-23 0)
(3.747692135331213e-07 -9.936340789407737e-09 -2.188606325562062e-21 -1.009337068302763e-07 -7.170007526730124e-22 0)
(3.797205143789511e-07 -8.994850555661363e-09 -1.934654909006569e-21 -9.563044906299566e-08 5.478850772114785e-22 0)
(3.834903537557447e-07 -8.091228341586159e-09 3.397150170977627e-21 -8.916461945708565e-08 4.901302957804149e-23 0)
(3.861000873006156e-07 -7.203821022288247e-09 -9.827737039494271e-22 -8.140636203410798e-08 -4.156234776498037e-22 0)
(3.873479484488179e-07 -6.311472231216886e-09 -1.612943557705614e-21 -7.219088215552505e-08 2.692547210316584e-22 0)
(3.873809454793239e-07 -5.387062145480711e-09 8.614470089739679e-22 -6.132875380890631e-08 3.115516527527364e-23 0)
(3.855643109166023e-07 -4.409333920609103e-09 1.686607751475198e-23 -4.857168143791005e-08 3.745436487054457e-23 0)
(3.826669949016597e-07 -3.332701327225e-09 3.124609158350881e-22 -3.365560933625861e-08 3.177117195768186e-24 0)
(3.765675650890013e-07 -2.163585176247222e-09 3.253196294190815e-22 -1.616002696465691e-08 2.075547568645392e-23 0)
(3.706916141113077e-07 -7.039766706405246e-10 1.044562292061921e-22 4.11017032780511e-09 7.915575525929736e-24 -2.315513640632913e-37)
(2.720818822827237e-07 -7.729041400428177e-08 -7.338170974117569e-23 -1.226876508821666e-07 2.552311461417116e-24 0)
(2.878217461361348e-07 -6.925633343230063e-08 -1.994101475059138e-22 -1.216927645101613e-07 8.637399364258058e-23 0)
(3.02583794233224e-07 -6.283014436306365e-08 -1.746705380239612e-22 -1.214333879425466e-07 6.000542908903283e-25 0)
(3.160832324367831e-07 -5.690906712062133e-08 1.122362881187086e-22 -1.210602432566788e-07 -4.276074715406574e-23 0)
(3.282896596478085e-07 -5.161128463896263e-08 1.965799903423556e-22 -1.203519373414133e-07 2.270581748126587e-23 0)
(3.393155969384493e-07 -4.691600454208993e-08 6.980370961329791e-23 -1.192905386482783e-07 6.48909057161622e-23 0)
(3.491794711937343e-07 -4.26786559838924e-08 -3.082253478470774e-22 -1.176652433164392e-07 -1.097459490724317e-22 0)
(3.579273018398078e-07 -3.88867687428472e-08 1.322534115203826e-22 -1.154449716645879e-07 -6.042945862486343e-23 0)
(3.655992023466047e-07 -3.543540705294164e-08 2.615333585043823e-22 -1.125069913659079e-07 -3.529879368844047e-23 0)
(3.722116546535448e-07 -3.228237750621318e-08 1.971466366463138e-21 -1.08786150781614e-07 7.095004636506781e-23 0)
(3.777723072056504e-07 -2.935276003493142e-08 -1.191411282987072e-21 -1.041811956966423e-07 3.42992513084446e-22 0)
(3.822827052530503e-07 -2.65919543163737e-08 -2.062929335482503e-21 -9.859723361384867e-08 -3.642642944155878e-22 0)
(3.85684160787478e-07 -2.393683870250768e-08 2.742883664518644e-21 -9.191439602510008e-08 8.453399808293064e-23 0)
(3.879885865930688e-07 -2.132424171325431e-08 -1.330761746321868e-21 -8.399898952172327e-08 1.021052698377823e-22 0)
(3.889907958601707e-07 -1.869234174251947e-08 -1.301764125680423e-21 -7.468461216931527e-08 -1.842497545122893e-22 0)
(3.888325402660838e-07 -1.596106211072592e-08 1.132363848263805e-21 -6.378201155621469e-08 1.2215589177943e-22 0)
(3.868824004145785e-07 -1.306826133205527e-08 2.134416109413372e-22 -5.104572412178454e-08 1.667699375853974e-23 0)
(3.839037102618037e-07 -9.878398291032162e-09 -2.077650227641727e-22 -3.621644604199645e-08 -1.889468586320715e-23 0)
(3.77796502432651e-07 -6.412589814096042e-09 -4.89675861227128e-22 -1.88853991690968e-08 -4.446055909782545e-23 0)
(3.719625580205271e-07 -2.086400937523831e-09 5.280803135642275e-22 1.132880226413046e-09 1.282598006953192e-22 -5.812766620368453e-36)
(3.002596108575484e-07 -1.221938920170108e-07 -2.292260766299608e-22 -1.45128556646351e-07 -1.088648652937154e-22 0)
(3.113306980403729e-07 -1.100678665619248e-07 -1.785695329573423e-22 -1.410588534539371e-07 -1.16816773059814e-24 0)
(3.226079409188644e-07 -1.001790992615073e-07 3.191053574454129e-23 -1.381795357129392e-07 -1.678114715474075e-22 0)
(3.329715936038837e-07 -9.108094365871001e-08 6.489945849658526e-23 -1.356289437442307e-07 -7.125586735638777e-23 0)
(3.426428749675961e-07 -8.282729016032896e-08 -4.518239067588004e-22 -1.329966043535966e-07 -5.274422504691622e-23 0)
(3.51464730662782e-07 -7.549779191491917e-08 2.818989875547043e-22 -1.303381127882925e-07 5.247325187996775e-24 0)
(3.595082076133466e-07 -6.882886007245829e-08 3.130011826844493e-22 -1.273420809238729e-07 6.661176802035753e-24 0)