/*--------------------------------*- C++ -*----------------------------------*\
| =========                 |                                                 |
| \\      /  F ield         | foam-extend: Open Source CFD                    |
|  \\    /   O peration     | Version:     4.1                                |
|   \\  /    A nd           | Web:         http://www.foam-extend.org         |
|    \\/     M anipulation  |                                                 |
\*---------------------------------------------------------------------------*/
FoamFile
{
    version     2.0;
    format      ascii;
    class       vectorField;
    location    "1";
    object      solidsCellD_iteration7;
}
// * * * * * * * * * * * * * * * * * * * * * * * * * * * * * * * * * * * * * //


1000
(
(4.003539646198426e-07 -9.30560551563165e-08 0)
(3.86461655569513e-07 -9.116590744913785e-08 0)
(3.792348834757216e-07 -9.1922544206279e-08 0)
(3.767174579678244e-07 -9.475411031827402e-08 0)
(3.776178212076175e-07 -9.900035465639139e-08 0)
(3.811111858151858e-07 -1.042598496075212e-07 0)
(3.865164249213376e-07 -1.102698635164281e-07 0)
(3.932278301138996e-07 -1.169901364885895e-07 0)
(4.01240273178723e-07 -1.240269588892054e-07 0)
(4.08434815574296e-07 -1.315984031432793e-07 0)
(3.6331859286291e-07 -1.019129050931188e-07 0)
(3.484774871349933e-07 -1.025887086140213e-07 0)
(3.40444570205952e-07 -1.050879972647507e-07 0)
(3.372423872758445e-07 -1.09187916895371e-07 0)
(3.373829602675058e-07 -1.143576675300612e-07 0)
(3.399940074730436e-07 -1.203059420188774e-07 0)
(3.444338883322062e-07 -1.26806703908219e-07 0)
(3.501030608066341e-07 -1.338878033189224e-07 0)
(3.569011879795278e-07 -1.410523080483525e-07 0)
(3.633973422497198e-07 -1.48964255057619e-07 0)
(3.243832496023504e-07 -1.102490339223166e-07 0)
(3.091408262778132e-07 -1.137674058934622e-07 0)
(3.006916673354748e-07 -1.181240142629742e-07 0)
(2.970198546846001e-07 -1.234832217500794e-07 0)
(2.966399993679044e-07 -1.294918256823663e-07 0)
(2.986113194579554e-07 -1.360067321161403e-07 0)
(3.023373394875898e-07 -1.428935952895538e-07 0)
(3.073229645139043e-07 -1.501508885315739e-07 0)
(3.133921697673068e-07 -1.573561992779192e-07 0)
(3.194774990616438e-07 -1.651210196243353e-07 0)
(2.838895127964993e-07 -1.179308466454957e-07 0)
(2.689950741508616e-07 -1.243591107132534e-07 0)
(2.605708764704177e-07 -1.305840308866388e-07 0)
(2.566606364108209e-07 -1.37165330746513e-07 0)
(2.559141666024205e-07 -1.439922132354459e-07 0)
(2.574202438086144e-07 -1.51023103421384e-07 0)
(2.605392023245763e-07 -1.582156042628969e-07 0)
(2.649379603166049e-07 -1.6559639719302e-07 0)
(2.703548302133841e-07 -1.728695963291252e-07 0)
(2.760195812749908e-07 -1.805381466054896e-07 0)
(2.422377571631471e-07 -1.247868864452199e-07 0)
(2.282757243630669e-07 -1.340467267976229e-07 0)
(2.202479443032635e-07 -1.420951153810778e-07 0)
(2.164181250618156e-07 -1.498563516343429e-07 0)
(2.155048895684722e-07 -1.574289607699024e-07 0)
(2.166104287121109e-07 -1.649416060879001e-07 0)
(2.192021787330069e-07 -1.724235899088492e-07 0)
(2.229891197238258e-07 -1.799316973612906e-07 0)
(2.277589009305969e-07 -1.872964385141058e-07 0)
(2.328433948677199e-07 -1.949163640258292e-07 0)
(1.994635668645356e-07 -1.307282581925805e-07 0)
(1.871058563274258e-07 -1.425930125817676e-07 0)
(1.799641148008055e-07 -1.523147656754005e-07 0)
(1.764444310908756e-07 -1.611854070027179e-07 0)
(1.754608371918721e-07 -1.694675559868403e-07 0)
(1.762113846535405e-07 -1.774230561819542e-07 0)
(1.783490384505498e-07 -1.851513368980105e-07 0)
(1.815508212110304e-07 -1.927867443565534e-07 0)
(1.85600645133211e-07 -2.002628328456541e-07 0)
(1.899509419961812e-07 -2.078792462807959e-07 0)
(1.559561921390503e-07 -1.355786651517637e-07 0)
(1.457019712354589e-07 -1.497350135098662e-07 0)
(1.397440075399707e-07 -1.609330358485514e-07 0)
(1.367369124320613e-07 -1.707653726822103e-07 0)
(1.358199300816606e-07 -1.796486696464204e-07 0)
(1.363577824972566e-07 -1.87995220245327e-07 0)
(1.380549050729662e-07 -1.959532817164665e-07 0)
(1.406057859947231e-07 -2.037246693402604e-07 0)
(1.438293382764522e-07 -2.113210208372342e-07 0)
(1.473175258149343e-07 -2.189481921236629e-07 0)
(1.118400084540563e-07 -1.393052538488606e-07 0)
(1.04109399194429e-07 -1.55302647555729e-07 0)
(9.963053449482868e-08 -1.676547055635825e-07 0)
(9.738576408833421e-08 -1.782184040057231e-07 0)
(9.667388651741579e-08 -1.876106519091061e-07 0)
(9.70362596657689e-08 -1.962751744092596e-07 0)
(9.824433720483079e-08 -2.044434203810926e-07 0)
(1.000838172623479e-07 -2.123250918565174e-07 0)
(1.024228395590176e-07 -2.200184858835296e-07 0)
(1.049637401072227e-07 -2.276571177801687e-07 0)
(6.727011648138243e-08 -1.418258552317158e-07 0)
(6.249707528497176e-08 -1.590862615590986e-07 0)
(5.975365326190124e-08 -1.722364461274467e-07 0)
(5.832694775663295e-08 -1.833659064365315e-07 0)
(5.78320873046146e-08 -1.931113154179696e-07 0)
(5.803232475470403e-08 -2.019711736425759e-07 0)
(5.878862639956566e-08 -2.102942019119465e-07 0)
(5.992304819667817e-08 -2.183001894551512e-07 0)
(6.132738127023044e-08 -2.26094694021966e-07 0)
(6.28628155109433e-08 -2.337558409473071e-07 0)
(2.247245199831256e-08 -1.430998397314348e-07 0)
(2.085656258815354e-08 -1.6102292572576e-07 0)
(1.988847675314945e-08 -1.745794090173014e-07 0)
(1.9411865500799e-08 -1.859659138909509e-07 0)
(1.928215388485111e-08 -1.958797711611437e-07 0)
(1.933746640066326e-08 -2.048604825903454e-07 0)
(1.955212447422457e-08 -2.132440247401753e-07 0)
(1.993105776496089e-08 -2.212817647621467e-07 0)
(2.041721659097509e-08 -2.291190102306118e-07 0)
(2.092884115307885e-08 -2.367934431319724e-07 0)
(6.07930626541407e-07 -4.149844605045292e-09 0)
(6.116427408284692e-07 -3.118111916785037e-09 0)
(6.157847729154348e-07 -2.565034847429181e-09 0)
(6.210768413362872e-07 -2.34343638078686e-09 0)
(6.276879129684988e-07 -2.33563579879978e-09 0)
(6.355696546761516e-07 -2.487901534126377e-09 0)
(6.447554600995208e-07 -2.739675934276807e-09 0)
(6.550369783387819e-07 -3.030278791821475e-09 0)
(6.664805127131605e-07 -3.412490036348436e-09 0)
(6.789100407855293e-07 -3.841044275400642e-09 0)
(6.038548653078811e-07 -1.249357362188772e-08 0)
(6.069791923163782e-07 -9.462029068611844e-09 0)
(6.10765853586668e-07 -7.819649062769645e-09 0)
(6.157832816174601e-07 -7.209325742598049e-09 0)
(6.222057085485663e-07 -7.242703666478938e-09 0)
(6.299158544197677e-07 -7.646351442035873e-09 0)
(6.390245622782789e-07 -8.39726866151797e-09 0)
(6.492502700843521e-07 -9.373433701600368e-09 0)
(6.605872862834184e-07 -1.051008781537951e-08 0)
(6.729801617444146e-07 -1.171499348883425e-08 0)
(5.956412801650027e-07 -2.087604368120642e-08 0)
(5.976432725359197e-07 -1.608722611261549e-08 0)
(6.007391108066302e-07 -1.351725367968827e-08 0)
(6.052936986309596e-07 -1.248815528239425e-08 0)
(6.114073765657554e-07 -1.256693455276298e-08 0)
(6.18927472315671e-07 -1.334051478283335e-08 0)
(6.278195104182378e-07 -1.461604558400083e-08 0)
(6.379086134614899e-07 -1.621146439850898e-08 0)
(6.490704886225017e-07 -1.805977327095587e-08 0)
(6.613788549686265e-07 -2.00553916724387e-08 0)
(5.834298480217701e-07 -2.94163886166841e-08 0)
(5.838529773919844e-07 -2.313484079764311e-08 0)
(5.859145279709974e-07 -1.988591252341856e-08 0)
(5.898303127499242e-07 -1.864637217504647e-08 0)
(5.954580180783728e-07 -1.880849544631193e-08 0)
(6.026618020867166e-07 -1.989303417479027e-08 0)
(6.113047048822232e-07 -2.163423423635235e-08 0)
(6.212509501744823e-07 -2.384173110729493e-08 0)
(6.322017308995975e-07 -2.641621200615453e-08 0)
(6.444316836834629e-07 -2.919094716504566e-08 0)
(5.672948457163337e-07 -3.812311142269691e-08 0)
(5.658281302904568e-07 -3.07667516455055e-08 0)
(5.666217511153043e-07 -2.706459670286649e-08 0)
(5.696927248613687e-07 -2.577972575216658e-08 0)
(5.747562340375188e-07 -2.611683393915339e-08 0)
(5.815780438351734e-07 -2.75511752703017e-08 0)
(5.898972640654014e-07 -2.978732867487858e-08 0)
(5.996152874953141e-07 -3.25966262350918e-08 0)
(6.103175208124474e-07 -3.584887698445893e-08 0)
(6.224902152508701e-07 -3.932396871589659e-08 0)
(5.474197242135e-07 -4.703431759091736e-08 0)
(5.437667237933625e-07 -3.91174075966332e-08 0)
(5.431788262481281e-07 -3.52412885662003e-08 0)
(5.453382447308302e-07 -3.40883475719513e-08 0)
(5.49763094895791e-07 -3.474085763291062e-08 0)
(5.561377861081853e-07 -3.659339660457236e-08 0)
(5.641406455182407e-07 -3.932088926882025e-08 0)
(5.736140484431784e-07 -4.2657198182682e-08 0)
(5.840690371729819e-07 -4.651764042045925e-08 0)
(5.961964312280538e-07 -5.062225364014318e-08 0)
(5.240734853077377e-07 -5.613511492006892e-08 0)
(5.180697932955248e-07 -4.82477763556551e-08 0)
(5.159904888975067e-07 -4.455360937949475e-08 0)
(5.171965308990446e-07 -4.374647930431408e-08 0)
(5.209490501805793e-07 -4.481795535733949e-08 0)
(5.268639981652993e-07 -4.71345287501479e-08 0)
(5.345397377409144e-07 -5.033871767879523e-08 0)
(5.437578353940622e-07 -5.413537746358775e-08 0)
(5.539661881782938e-07 -5.853968707237361e-08 0)
(5.66083434796448e-07 -6.317990811309817e-08 0)
(4.97411219890382e-07 -6.535285202726057e-08 0)
(4.890832869505312e-07 -5.814022364479196e-08 0)
(4.855155456527556e-07 -5.501667755143702e-08 0)
(4.857479140296305e-07 -5.477749817214672e-08 0)
(4.888517660499523e-07 -5.639443978210327e-08 0)
(4.943078999664826e-07 -5.924669672384082e-08 0)
(5.016376818096243e-07 -6.294627266318485e-08 0)
(5.106184281905949e-07 -6.718210515813464e-08 0)
(5.206338322802546e-07 -7.207151207661941e-08 0)
(5.327152175176427e-07 -7.712204720561802e-08 0)
(4.677231181162342e-07 -7.46476446801583e-08 0)
(4.572215041296276e-07 -6.869570851901174e-08 0)
(4.522724764254516e-07 -6.654878515063729e-08 0)
(4.515358628539592e-07 -6.711194892408797e-08 0)
(4.539835368803187e-07 -6.943041632565473e-08 0)
(4.58899238489297e-07 -7.290690897138735e-08 0)
(4.657958557419842e-07 -7.714922373230726e-08 0)
(4.744291142728827e-07 -8.181863658302962e-08 0)
(4.841733839687502e-07 -8.708664498017112e-08 0)
(4.960316643943911e-07 -9.228142167074886e-08 0)
(4.352998444445643e-07 -8.391851238361958e-08 0)
(4.229233918003755e-07 -7.975635323881672e-08 0)
(4.167296836357099e-07 -7.892778324710914e-08 0)
(4.150815965850166e-07 -8.055777521648842e-08 0)
(4.168299301850518e-07 -8.376893743465204e-08 0)
(4.211957438194113e-07 -8.802961694952793e-08 0)
(4.27714866226397e-07 -9.302804266138308e-08 0)
(4.360232952641394e-07 -9.844037689249113e-08 0)
(4.45742359267476e-07 -1.043913990255441e-07 0)
(4.568291818242042e-07 -1.101968575213047e-07 0)
(6.921725848850177e-07 -4.201181636229349e-09 0)
(7.064944723688577e-07 -4.433401543971799e-09 0)
(7.215670870656871e-07 -4.625047880359268e-09 0)
(7.373140994673948e-07 -4.790202699300411e-09 0)
(7.536817879967479e-07 -4.930582845291236e-09 0)
(7.706618696362097e-07 -5.047909837340904e-09 0)
(7.881767617094106e-07 -5.136738373984648e-09 0)
(8.061372628872232e-07 -5.224145253773122e-09 0)
(8.245471639868178e-07 -5.326458898887489e-09 0)
(8.434148717289557e-07 -5.416690823298161e-09 0)
(8.626828813965569e-07 -5.477649252892974e-09 0)
(8.823010694045399e-07 -5.514766135241638e-09 0)
(9.022486901776229e-07 -5.540395266410053e-09 0)
(9.225141311264688e-07 -5.565197069953176e-09 0)
(9.430817640016098e-07 -5.588434411553426e-09 0)
(9.639326464197578e-07 -5.598236821192567e-09 0)
(9.850521059520927e-07 -5.583269280195728e-09 0)
(1.00643420962475e-06 -5.537224847768557e-09 0)
(1.028030737109561e-06 -5.466479533996478e-09 0)
(1.049857511802169e-06 -5.382379980837599e-09 0)
(6.864752387415626e-07 -1.276401030468204e-08 0)
(7.012220281118778e-07 -1.344817647385015e-08 0)
(7.166796207903302e-07 -1.400215992906731e-08 0)
(7.327979356229868e-07 -1.446931618585612e-08 0)
(7.4952225915234e-07 -1.484593954195859e-08 0)
(7.667957953870704e-07 -1.517407054458397e-08 0)
(7.845789881009428e-07 -1.547651978831899e-08 0)
(8.028298632530816e-07 -1.577118586005304e-08 0)
(8.215283049475942e-07 -1.604370102090332e-08 0)
(8.40646057598584e-07 -1.625211800730914e-08 0)
(8.601369746958595e-07 -1.64060837738528e-08 0)
(8.799809178517819e-07 -1.653370845073979e-08 0)
(9.001620691578941e-07 -1.664193739924771e-08 0)
(9.206508902677794e-07 -1.672383205106777e-08 0)
(9.414164002903494e-07 -1.67676278219865e-08 0)
(9.624447650773955e-07 -1.676502433121393e-08 0)
(9.83734034081031e-07 -1.670652465091008e-08 0)
(1.005270200813566e-06 -1.658462614187606e-08 0)
(1.02702153550865e-06 -1.64098560532404e-08 0)
(1.048983726906445e-06 -1.618680743978548e-08 0)
(6.753032484769893e-07 -2.17697249061898e-08 0)
(6.909314281184366e-07 -2.282219938372671e-08 0)
(7.072074764873574e-07 -2.363987994653594e-08 0)
(7.240058271999029e-07 -2.434596185474817e-08 0)
(7.413648021993905e-07 -2.494819514380442e-08 0)
(7.592734096028894e-07 -2.549554040976959e-08 0)
(7.776687380395126e-07 -2.599823513843589e-08 0)
(7.964626757649553e-07 -2.645726735802587e-08 0)
(8.156488099688112e-07 -2.685341955844505e-08 0)
(8.352228081320916e-07 -2.716547211566182e-08 0)
(8.551618668050799e-07 -2.742796068678378e-08 0)
(8.754438289881556e-07 -2.766492183697708e-08 0)
(8.960325284720676e-07 -2.785700816104965e-08 0)
(9.168904565143149e-07 -2.797962138203419e-08 0)
(9.380058961648107e-07 -2.802563536883594e-08 0)
(9.593971079162398e-07 -2.79974837115339e-08 0)
(9.810378254256488e-07 -2.78876861304646e-08 0)
(1.002922673340521e-06 -2.769524198463198e-08 0)
(1.025004045659478e-06 -2.743870551122402e-08 0)
(1.047292757664659e-06 -2.710388040035631e-08 0)
(6.589678864195414e-07 -3.144782483910717e-08 0)
(6.757905111095295e-07 -3.270196378305208e-08 0)
(6.932148816479588e-07 -3.365955180424611e-08 0)
(7.110706713170334e-07 -3.453058987963317e-08 0)
(7.294294707680265e-07 -3.531605126142119e-08 0)
(7.482348751894053e-07 -3.604997098235247e-08 0)
(7.674593920332357e-07 -3.671388519101706e-08 0)
(7.870431325022755e-07 -3.731048203080817e-08 0)
(8.0701739072529e-07 -3.782242800191758e-08 0)
(8.273446861942123e-07 -3.824742870575619e-08 0)
(8.479785738093247e-07 -3.861687100265918e-08 0)
(8.688957088425885e-07 -3.8933193974485e-08 0)
(8.900735438267659e-07 -3.916596806253608e-08 0)
(9.114910999329366e-07 -3.93026153985372e-08 0)
(9.331481331927019e-07 -3.935609657260682e-08 0)
(9.550664324416556e-07 -3.931413559568393e-08 0)
(9.772041973466779e-07 -3.91674204194929e-08 0)
(9.995788736311523e-07 -3.891466520537667e-08 0)
(1.022109638643918e-06 -3.857234636747236e-08 0)
(1.044840331046419e-06 -3.814685626717079e-08 0)
(6.37864455245741e-07 -4.195652505877388e-08 0)
(6.562851113713261e-07 -4.323305389147441e-08 0)
(6.752279327601845e-07 -4.422835372024143e-08 0)
(6.944041362483694e-07 -4.52063254913897e-08 0)
(7.140023283822581e-07 -4.610458790509351e-08 0)
(7.339586238090973e-07 -4.695235823338188e-08 0)
(7.54293703031107e-07 -4.772163027507786e-08 0)
(7.749261934849008e-07 -4.843281383384908e-08 0)
(7.958763541936996e-07 -4.90470745482545e-08 0)
(8.171154682244788e-07 -4.956019201659927e-08 0)
(8.386194443050722e-07 -5.000389940609972e-08 0)
(8.603732511066015e-07 -5.037273117398828e-08 0)
(8.823530292109415e-07 -5.063334769862065e-08 0)
(9.045414811197562e-07 -5.077996607453121e-08 0)
(9.269475955821542e-07 -5.083160836632176e-08 0)
(9.49541226216177e-07 -5.076741141820008e-08 0)
(9.723522477002045e-07 -5.058170074653385e-08 0)
(9.953189430508807e-07 -5.027841113335704e-08 0)
(1.0184779395432e-06 -4.986448107189342e-08 0)
(1.041789493866007e-06 -4.937118539212072e-08 0)
(6.125358266786482e-07 -5.346676417681307e-08 0)
(6.327751078605624e-07 -5.455449569325997e-08 0)
(6.535291450870786e-07 -5.541473716271023e-08 0)
(6.743450699697445e-07 -5.638468829007533e-08 0)
(6.955134275781499e-07 -5.731966742783742e-08 0)
(7.169154899961131e-07 -5.823936644533616e-08 0)
(7.385568609051728e-07 -5.9076217320234e-08 0)
(7.60437687116198e-07 -5.984046233033589e-08 0)
(7.82557411062717e-07 -6.051003888235002e-08 0)
(8.049016693290815e-07 -6.108621449122803e-08 0)
(8.274667268805326e-07 -6.159138000271783e-08 0)
(8.502371821753575e-07 -6.2005276479924e-08 0)
(8.731771928759312e-07 -6.228880805337644e-08 0)
(8.962692100707029e-07 -6.244180983885644e-08 0)
(9.195495950501815e-07 -6.247326920895251e-08 0)
(9.429627551026519e-07 -6.237187450588103e-08 0)
(9.665865157431235e-07 -6.21406150475572e-08 0)
(9.903071780381153e-07 -6.179522355132499e-08 0)
(1.014231874411941e-06 -6.13363650667178e-08 0)
(1.038264433265563e-06 -6.078660199590703e-08 0)
(5.836200340222599e-07 -6.605071093802804e-08 0)
(6.05972357838042e-07 -6.671462868460065e-08 0)
(6.288193303107969e-07 -6.726992445512821e-08 0)
(6.515144151965505e-07 -6.810967456684092e-08 0)
(6.744064834324219e-07 -6.897331642135735e-08 0)
(6.974407115944841e-07 -6.98632651319004e-08 0)
(7.205630800974258e-07 -7.071184354475342e-08 0)
(7.438492903701955e-07 -7.149519377589482e-08 0)
(7.673127598424068e-07 -7.220503619979678e-08 0)
(7.909461429895263e-07 -7.283869119219582e-08 0)
(8.147343107913284e-07 -7.339362233212112e-08 0)
(8.386540500570886e-07 -7.383247341872942e-08 0)
(8.626822905994635e-07 -7.411653442210848e-08 0)
(8.868222704670674e-07 -7.425729142908252e-08 0)
(9.110997145801174e-07 -7.426039271471974e-08 0)
(9.354881399581576e-07 -7.412724805493762e-08 0)
(9.60065060154628e-07 -7.38657798388034e-08 0)
(9.847094533789093e-07 -7.348597101231288e-08 0)
(1.009509339403192e-06 -7.297951628578128e-08 0)
(1.034365590845996e-06 -7.23594685597604e-08 0)
(5.516122772986844e-07 -7.980344852139306e-08 0)
(5.762749878888101e-07 -7.975322562290568e-08 0)
(6.014155228804084e-07 -7.982289481065504e-08 0)
(6.262269832578273e-07 -8.037276736644546e-08 0)
(6.510848458194295e-07 -8.10469692733536e-08 0)
(6.759265392202761e-07 -8.182025472327206e-08 0)
(7.007750242494928e-07 -8.261275865042794e-08 0)
(7.256653275198516e-07 -8.337844654829939e-08 0)
(7.506234021442586e-07 -8.410052861076757e-08 0)
(7.756612219676266e-07 -8.475990483932756e-08 0)
(8.007683927476904e-07 -8.533015737691807e-08 0)
(8.259235440265503e-07 -8.576692207037974e-08 0)
(8.511251826260242e-07 -8.604241494334592e-08 0)
(8.764231213822265e-07 -8.617465186085291e-08 0)
(9.018248557951909e-07 -8.616741002237141e-08 0)
(9.273197007711276e-07 -8.602476080241706e-08 0)
(9.529575299383108e-07 -8.574448720481439e-08 0)
(9.786268592095214e-07 -8.532689131358881e-08 0)
(1.004406162975561e-06 -8.475225150401474e-08 0)
(1.030189204785862e-06 -8.403122521657202e-08 0)
(5.168468965425057e-07 -9.470290384368528e-08 0)
(5.441929819463334e-07 -9.3664058733632e-08 0)
(5.71928124470109e-07 -9.308511120146032e-08 0)
(5.990965000617255e-07 -9.315688474394727e-08 0)
(6.261471427642402e-07 -9.351282453987905e-08 0)
(6.529683627218742e-07 -9.40726033045921e-08 0)
(6.796647555213637e-07 -9.472588456384978e-08 0)
(7.062659105645987e-07 -9.541259228573676e-08 0)
(7.328131249899182e-07 -9.609777736042956e-08 0)
(7.593264841346522e-07 -9.673895419822237e-08 0)
(7.85813879772682e-07 -9.72943366787197e-08 0)
(8.122824083777348e-07 -9.772117638593785e-08 0)
(8.387568316457643e-07 -9.800331796058773e-08 0)
(8.65303741283892e-07 -9.815329070784332e-08 0)
(8.919091535541092e-07 -9.816293301723455e-08 0)
(9.185813166645735e-07 -9.803232843847924e-08 0)
(9.45355924510871e-07 -9.774156654367666e-08 0)
(9.721179360969254e-07 -9.727835211594487e-08 0)
(9.989603695519737e-07 -9.66202885131877e-08 0)
(1.025776708591609e-06 -9.577670303223864e-08 0)
(4.802042789785689e-07 -1.109429600439511e-07 0)
(5.113621386078758e-07 -1.080014560681022e-07 0)
(5.422100657332158e-07 -1.065960775187949e-07 0)
(5.720631998609552e-07 -1.060874972416505e-07 0)
(6.013725540004529e-07 -1.060750281127412e-07 0)
(6.302344111402367e-07 -1.063625475501766e-07 0)
(6.587548213236614e-07 -1.06820601544775e-07 0)
(6.870257977260171e-07 -1.073777516767465e-07 0)
(7.15119110822488e-07 -1.079834996034545e-07 0)
(7.430715883759774e-07 -1.085778018807558e-07 0)
(7.709116606842782e-07 -1.091119425177588e-07 0)
(7.98667579551365e-07 -1.095417793087348e-07 0)
(8.263873496188605e-07 -1.098503646094364e-07 0)
(8.541401790571104e-07 -1.100396710586424e-07 0)
(8.818973704299398e-07 -1.100904258439921e-07 0)
(9.096963683685903e-07 -1.099956274366474e-07 0)
(9.375552913748696e-07 -1.097222744984788e-07 0)
(9.65390314726564e-07 -1.092313862662167e-07 0)
(9.932940663807315e-07 -1.085045643972196e-07 0)
(1.021192368839428e-06 -1.075282064668894e-07 0)
(4.479315933388526e-07 -1.312357439457117e-07 0)
(4.839411950909244e-07 -1.251592691218303e-07 0)
(5.180356427874687e-07 -1.222764874423936e-07 0)
(5.506673607776072e-07 -1.206216091875154e-07 0)
(5.82132048316976e-07 -1.198217074712273e-07 0)
(6.127963498529096e-07 -1.195345869521597e-07 0)
(6.428503412795405e-07 -1.195725858772877e-07 0)
(6.724709947965046e-07 -1.198209165372915e-07 0)
(7.017622021363066e-07 -1.201899299353825e-07 0)
(7.307932349486292e-07 -1.205968234251112e-07 0)
(7.596255777473242e-07 -1.209868185587711e-07 0)
(7.883040406638179e-07 -1.213143220499605e-07 0)
(8.16894853557263e-07 -1.215538320804692e-07 0)
(8.454660497891338e-07 -1.216938648302375e-07 0)
(8.739688110124682e-07 -1.217079369465186e-07 0)
(9.024773717495898e-07 -1.215732399584892e-07 0)
(9.309743322641076e-07 -1.212583647663502e-07 0)
(9.594515048023563e-07 -1.206999120216871e-07 0)
(9.879651148983007e-07 -1.198846888861222e-07 0)
(1.016476472980167e-06 -1.187448315361372e-07 0)
(4.31959324874117e-07 -1.503109106537956e-07 0)
(4.683634708137335e-07 -1.436547152786648e-07 0)
(5.030338298762392e-07 -1.39526196066556e-07 0)
(5.366369352846124e-07 -1.36787183964368e-07 0)
(5.691639298172459e-07 -1.350932052382749e-07 0)
(6.008484935317701e-07 -1.340956367010491e-07 0)
(6.318611084833391e-07 -1.33564042728246e-07 0)
(6.623536873713155e-07 -1.333486786802451e-07 0)
(6.924185971943531e-07 -1.333304968912328e-07 0)
(7.221399613595412e-07 -1.33414157630862e-07 0)
(7.515977152893602e-07 -1.335364153635658e-07 0)
(7.808430701670618e-07 -1.336429737139202e-07 0)
(8.099482357702637e-07 -1.336968692439938e-07 0)
(8.389698096950101e-07 -1.336728250749303e-07 0)
(8.678529999138057e-07 -1.335408488032312e-07 0)
(8.967085905129586e-07 -1.332634615738493e-07 0)
(9.25476847862808e-07 -1.328171011611271e-07 0)
(9.542164009239746e-07 -1.321279192976325e-07 0)
(9.829350799370639e-07 -1.311791600213452e-07 0)
(1.011605921664734e-06 -1.298386234169282e-07 0)
(4.207916068365489e-07 -1.671590701194832e-07 0)
(4.565566826079435e-07 -1.608340254639909e-07 0)
(4.912797905618395e-07 -1.563541650917374e-07 0)
(5.252202062020636e-07 -1.530526735162599e-07 0)
(5.58291223600381e-07 -1.507372717187799e-07 0)
(5.905905835633149e-07 -1.49148910212502e-07 0)
(6.222505049046429e-07 -1.480879821633931e-07 0)
(6.53360719700677e-07 -1.474060074018016e-07 0)
(6.839963034450978e-07 -1.469808237610494e-07 0)
(7.142461324300135e-07 -1.467161155515342e-07 0)
(7.441899039574699e-07 -1.465418913044552e-07 0)
(7.738727913799651e-07 -1.463952234772788e-07 0)
(8.03370832900724e-07 -1.462297181449376e-07 0)
(8.327308890340381e-07 -1.460097306945405e-07 0)
(8.618991594913916e-07 -1.45702400556162e-07 0)
(8.91007572531646e-07 -1.452606969155625e-07 0)
(9.199837598746654e-07 -1.446664616660346e-07 0)
(9.489160511970798e-07 -1.438446933185668e-07 0)
(9.777704931850375e-07 -1.427567422146731e-07 0)
(1.006554099698472e-06 -1.412303485850832e-07 0)
(4.118470174575079e-07 -1.833229110305657e-07 0)
(4.469773377229957e-07 -1.773639931959399e-07 0)
(4.814327661969832e-07 -1.727585725854087e-07 0)
(5.15388512362358e-07 -1.691133415762476e-07 0)
(5.486552960464647e-07 -1.663477470583095e-07 0)
(5.812927452090131e-07 -1.642829259948006e-07 0)
(6.133593785946729e-07 -1.627662278247886e-07 0)
(6.44893258500013e-07 -1.616602539265615e-07 0)
(6.75953441653339e-07 -1.608502512647279e-07 0)
(7.066216773462482e-07 -1.602466040843197e-07 0)
(7.369628494194743e-07 -1.597776405497087e-07 0)
(7.670081795170284e-07 -1.593748511827072e-07 0)
(7.968369293056243e-07 -1.589857821601041e-07 0)
(8.264874197000051e-07 -1.585675210537424e-07 0)
(8.559146773962479e-07 -1.580815552791417e-07 0)
(8.852515464903999e-07 -1.57477804298525e-07 0)
(9.144200124599686e-07 -1.567414176906285e-07 0)
(9.435285749808881e-07 -1.557928104088495e-07 0)
(9.725060668744289e-07 -1.545669899071235e-07 0)
(1.001415339558549e-06 -1.529078514814944e-07 0)
(4.044695463961421e-07 -1.987335278724478e-07 0)
(4.390382268797833e-07 -1.931980859155126e-07 0)
(4.731364784681634e-07 -1.886777576604297e-07 0)
(5.069341590122126e-07 -1.848897229439489e-07 0)
(5.401987100261803e-07 -1.818384131583187e-07 0)
(5.72977137891419e-07 -1.794235496672411e-07 0)
(6.052588787836621e-07 -1.775358505794765e-07 0)
(6.370564346956255e-07 -1.760618233243094e-07 0)
(6.684125955459261e-07 -1.749034592307995e-07 0)
(6.993942056080899e-07 -1.739829700207695e-07 0)
(7.300454218711937e-07 -1.732302651161138e-07 0)
(7.603808269405295e-07 -1.72575104833656e-07 0)
(7.904819015848e-07 -1.719635931223358e-07 0)
(8.203748581306141e-07 -1.713497421708997e-07 0)
(8.500266966577293e-07 -1.706889664128439e-07 0)
(8.795694841020059e-07 -1.699303727787765e-07 0)
(9.089094313509326e-07 -1.690551038632217e-07 0)
(9.381665294953682e-07 -1.679778797041685e-07 0)
(9.672624898402618e-07 -1.666236068326894e-07 0)
(9.963027651003345e-07 -1.649059096869971e-07 0)
(3.981972894148512e-07 -2.136329536457827e-07 0)
(4.322835310618368e-07 -2.084904314507546e-07 0)
(4.660513163412847e-07 -2.041262346191564e-07 0)
(4.995975892333197e-07 -2.003145840933825e-07 0)
(5.327635764758249e-07 -1.971026072602795e-07 0)
(5.6555046023311e-07 -1.944464651269406e-07 0)
(5.979177679738699e-07 -1.922735724346619e-07 0)
(6.29865346415939e-07 -1.905003554006582e-07 0)
(6.614169588781435e-07 -1.89045735605022e-07 0)
(6.926217352193767e-07 -1.878462386229829e-07 0)
(7.235037124576182e-07 -1.868357367239071e-07 0)
(7.540630423801084e-07 -1.859458531076003e-07 0)
(7.843839360598465e-07 -1.851242804426368e-07 0)
(8.144759996135822e-07 -1.843240761559537e-07 0)
(8.443163987186332e-07 -1.834943023405202e-07 0)
(8.740280029506644e-07 -1.8259068179485e-07 0)
(9.035147573843192e-07 -1.815804397717361e-07 0)
(9.328941373882165e-07 -1.803796174171258e-07 0)
(9.621137176106209e-07 -1.789343171750475e-07 0)
(9.912693484528887e-07 -1.772114585135421e-07 0)
(3.928199213161798e-07 -2.281430328552099e-07 0)
(4.264925500936438e-07 -2.233520507518896e-07 0)
(4.599494319657271e-07 -2.191679262324332e-07 0)
(4.93227860365497e-07 -2.154044038951963e-07 0)
(5.262403096288444e-07 -2.121258216427781e-07 0)
(5.589494344915564e-07 -2.09315267637546e-07 0)
(5.913184047524089e-07 -2.069344568671965e-07 0)
(6.233325672996074e-07 -2.049280178938149e-07 0)
(6.549955067273319e-07 -2.03228510200114e-07 0)
(6.863420091480261e-07 -2.017895473015361e-07 0)
(7.173805746377337e-07 -2.0055046872486e-07 0)
(7.481004949081934e-07 -1.994469791386077e-07 0)
(7.785874403909814e-07 -1.984296326351756e-07 0)
(8.088307627804539e-07 -1.974549261220808e-07 0)
(8.388232095726738e-07 -1.964616543455504e-07 0)
(8.686648133224063e-07 -1.954163252505705e-07 0)
(8.982704338183707e-07 -1.9427833640156e-07 0)
(9.277582841311405e-07 -1.929748866530179e-07 0)
(9.570987668876216e-07 -1.914892983130371e-07 0)
(9.863402885090323e-07 -1.897534502353697e-07 0)
(3.881856013254344e-07 -2.42351296168514e-07 0)
(4.215245436516625e-07 -2.37862045388303e-07 0)
(4.546801379507735e-07 -2.338667520291579e-07 0)
(4.877083861606198e-07 -2.301944341377703e-07 0)
(5.205295462767056e-07 -2.269112909103023e-07 0)
(5.531120418668338e-07 -2.240100350019934e-07 0)
(5.8542572767929e-07 -2.214834507612625e-07 0)
(6.174389020545016e-07 -2.192983068972973e-07 0)
(6.491392288201306e-07 -2.173975665665262e-07 0)
(6.805542590087081e-07 -2.157551994689636e-07 0)
(7.116824425740348e-07 -2.143166134123262e-07 0)
(7.42506730296011e-07 -2.130222014295305e-07 0)
(7.731113696381939e-07 -2.118226204683732e-07 0)
(8.034628570870976e-07 -2.106828171614664e-07 0)
(8.335688068642549e-07 -2.095359177879669e-07 0)
(8.635108699326723e-07 -2.083563659118919e-07 0)
(8.932162664750316e-07 -2.07110412455993e-07 0)
(9.228092050124108e-07 -2.057400507201194e-07 0)
(9.522455574547517e-07 -2.042425779222238e-07 0)
(9.815586688552532e-07 -2.024666396914097e-07 0)
(3.841474483609971e-07 -2.563177940226555e-07 0)
(4.172012793583363e-07 -2.520921382367163e-07 0)
(4.500943227271751e-07 -2.482832601458616e-07 0)
(4.828890212413243e-07 -2.447203819327487e-07 0)
(5.155092264994341e-07 -2.414637331645145e-07 0)
(5.479482332928808e-07 -2.385130329966935e-07 0)
(5.801714095508009e-07 -2.358850605769778e-07 0)
(6.121351760936288e-07 -2.335637794003103e-07 0)
(6.438192579302719e-07 -2.314997831384347e-07 0)
(6.752496944261486e-07 -2.296878493397798e-07 0)
(7.064165292526602e-07 -2.280785714120306e-07 0)
(7.372994880590747e-07 -2.266180342240034e-07 0)
(7.67977679805154e-07 -2.252555916490194e-07 0)
(7.984015577318299e-07 -2.239636862324965e-07 0)
(8.285869527173106e-07 -2.226792817862089e-07 0)
(8.586083882630889e-07 -2.213892608659404e-07 0)
(8.884024091621998e-07 -2.200658080953151e-07 0)
(9.180879835140467e-07 -2.186615154361769e-07 0)
(9.475850752574668e-07 -2.171402876638986e-07 0)
(9.769703932540192e-07 -2.153578713048163e-07 0)
(3.806042373560206e-07 -2.700880465564847e-07 0)
(4.133973474003565e-07 -2.661074467699381e-07 0)
(4.460691651079372e-07 -2.624685331566242e-07 0)
(4.786440531310906e-07 -2.590118327895985e-07 0)
(5.110797005213211e-07 -2.557936753918646e-07 0)
(5.433756281928801e-07 -2.528200965848276e-07 0)
(5.754897351390165e-07 -2.501241977576972e-07 0)
(6.073755790388001e-07 -2.477039579288087e-07 0)
(6.390114709194829e-07 -2.455147556712318e-07 0)
(6.704240214129921e-07 -2.43566177766867e-07 0)
(7.015928912710857e-07 -2.418137741644977e-07 0)
(7.32497922953526e-07 -2.402090909684725e-07 0)
(7.632105748826604e-07 -2.387038608552421e-07 0)
(7.936759584430725e-07 -2.372776044116166e-07 0)
(8.239107042216722e-07 -2.358779537921109e-07 0)
(8.539992084903711e-07 -2.344990286439509e-07 0)
(8.83866186272371e-07 -2.331294879257008e-07 0)
(9.136074441250072e-07 -2.317023124602686e-07 0)
(9.431487013161123e-07 -2.301433066327795e-07 0)