/*--------------------------------*- C++ -*----------------------------------*\
| =========                 |                                                 |
| \\      /  F ield         | foam-extend: Open Source CFD                    |
|  \\    /   O peration     | Version:     4.1                                |
|   \\  /    A nd           | Web:         http://www.foam-extend.org         |
|    \\/     M anipulation  |                                                 |
\*---------------------------------------------------------------------------*/
FoamFile
{
    version     2.0;
    format      ascii;
    class       vectorField;
    location    "1";
    object      solidsCellD_iteration10;
}
// * * * * * * * * * * * * * * * * * * * * * * * * * * * * * * * * * * * * * //


1000
(
(4.277968593023327e-07 -1.200557047696256e-07 0)
(4.100915340645899e-07 -1.15162251631245e-07 0)
(4.000809684125858e-07 -1.135496844610586e-07 0)
(3.955320198148499e-07 -1.147345666439289e-07 0)
(3.949287598809733e-07 -1.177189860775857e-07 0)
(3.972725276441634e-07 -1.220142384629255e-07 0)
(4.018034745194157e-07 -1.272356116573746e-07 0)
(4.078258324533425e-07 -1.332650612855118e-07 0)
(4.153767168832298e-07 -1.396831165543872e-07 0)
(4.226321622512833e-07 -1.464515310946294e-07 0)
(3.87729051788668e-07 -1.314357228105596e-07 0)
(3.689097254417332e-07 -1.295873943936023e-07 0)
(3.580398598665001e-07 -1.299762537523754e-07 0)
(3.527783457426471e-07 -1.325807266800564e-07 0)
(3.514219844890726e-07 -1.365701279893807e-07 0)
(3.529684019160007e-07 -1.415831651765496e-07 0)
(3.566596226749369e-07 -1.472913242435603e-07 0)
(3.618175686429976e-07 -1.53701762636603e-07 0)
(3.683451971281947e-07 -1.602696449470126e-07 0)
(3.74894213111633e-07 -1.67488454273868e-07 0)
(3.458077829902711e-07 -1.421598191521941e-07 0)
(3.265542752339136e-07 -1.436987207147555e-07 0)
(3.152480322386556e-07 -1.462930877800378e-07 0)
(3.095668266952808e-07 -1.503617069235713e-07 0)
(3.077637201455746e-07 -1.553225355043993e-07 0)
(3.08761519164613e-07 -1.60984296740638e-07 0)
(3.118468829007984e-07 -1.671406378664613e-07 0)
(3.16420213631187e-07 -1.738048156469489e-07 0)
(3.223037753789218e-07 -1.804976131039569e-07 0)
(3.284563184042111e-07 -1.876870227002788e-07 0)
(3.023130486519684e-07 -1.520629323400677e-07 0)
(2.835519227459414e-07 -1.570973012482041e-07 0)
(2.723762446933451e-07 -1.619449547551635e-07 0)
(2.66565041029327e-07 -1.67473506984655e-07 0)
(2.64513991789787e-07 -1.734004899825583e-07 0)
(2.651397926159257e-07 -1.796819821274004e-07 0)
(2.676855949789811e-07 -1.862287874045116e-07 0)
(2.717360993336804e-07 -1.930981127898669e-07 0)
(2.769995979712646e-07 -1.999255109326128e-07 0)
(2.827180376012951e-07 -2.071424324580833e-07 0)
(2.577316306817767e-07 -1.609293798452801e-07 0)
(2.401513753710455e-07 -1.693898539774043e-07 0)
(2.295881677055782e-07 -1.764290924305065e-07 0)
(2.240408413453612e-07 -1.833769040888714e-07 0)
(2.219518154787987e-07 -1.902185215714231e-07 0)
(2.222682633262455e-07 -1.971071182048364e-07 0)
(2.243553401626931e-07 -2.040352760375781e-07 0)
(2.278633403699327e-07 -2.111125073834735e-07 0)
(2.325128205027089e-07 -2.181099354044537e-07 0)
(2.376342521064336e-07 -2.253809485523863e-07 0)
(2.120328420267875e-07 -1.686381944923433e-07 0)
(1.96512351114013e-07 -1.802600300489091e-07 0)
(1.87153978751e-07 -1.893396927505677e-07 0)
(1.821251572270833e-07 -1.976334342993449e-07 0)
(1.801147834798357e-07 -2.053358262394062e-07 0)
(1.801986561867685e-07 -2.127762979353805e-07 0)
(1.819182122906345e-07 -2.200445410553312e-07 0)
(1.848926120525736e-07 -2.273164961943968e-07 0)
(1.888418789859011e-07 -2.344927829813307e-07 0)
(1.932090783926477e-07 -2.41848628542969e-07 0)
(1.656794718614962e-07 -1.749575069909903e-07 0)
(1.528108497908603e-07 -1.893626893291707e-07 0)
(1.450242013935816e-07 -2.002447728655667e-07 0)
(1.407773835229089e-07 -2.097201258505208e-07 0)
(1.390349207322598e-07 -2.181619998805695e-07 0)
(1.390395027157134e-07 -2.260829894361407e-07 0)
(1.404037763944248e-07 -2.336539521994646e-07 0)
(1.427722213541817e-07 -2.411175671704234e-07 0)
(1.459119819456652e-07 -2.484690228051128e-07 0)
(1.494019487863652e-07 -2.559028612622253e-07 0)
(1.187588781221969e-07 -1.798335479138717e-07 0)
(1.090695956918411e-07 -1.964826476267743e-07 0)
(1.03227956504243e-07 -2.087708613086736e-07 0)
(1.000570750130938e-07 -2.191437334645561e-07 0)
(9.874812994312092e-08 -2.282031311337243e-07 0)
(9.872337998091952e-08 -2.365271192210442e-07 0)
(9.968409830762636e-08 -2.443771784343939e-07 0)
(1.013802175168006e-07 -2.519978240239981e-07 0)
(1.036518576850656e-07 -2.594914272486326e-07 0)
(1.061920705941016e-07 -2.669948549001024e-07 0)
(7.14063929646838e-08 -1.831422169957172e-07 0)
(6.54151561969791e-08 -2.013278218061915e-07 0)
(6.184108533963685e-08 -2.14586227920105e-07 0)
(5.985520071570488e-08 -2.25643854727286e-07 0)
(5.899253776597991e-08 -2.351363855574563e-07 0)
(5.894089359703103e-08 -2.437092361636988e-07 0)
(5.954275958571253e-08 -2.517576567388102e-07 0)
(6.060118604416602e-08 -2.595355515773669e-07 0)
(6.197057887980947e-08 -2.671538561160163e-07 0)
(6.350231981375598e-08 -2.74709968259173e-07 0)
(2.385115433670109e-08 -1.848093238175411e-07 0)
(2.183768239312272e-08 -2.038078251037648e-07 0)
(2.05769908083681e-08 -2.175588766804976e-07 0)
(1.989824113620231e-08 -2.289345917757747e-07 0)
(1.965132260146958e-08 -2.386428642254118e-07 0)
(1.96308511367353e-08 -2.473759705771076e-07 0)
(1.978651913708465e-08 -2.555035619752054e-07 0)
(2.013442084498531e-08 -2.633250628291861e-07 0)
(2.061295202811375e-08 -2.710062303913139e-07 0)
(2.112572469169594e-08 -2.786055955911273e-07 0)
(6.551118848783345e-07 -5.369636241425933e-09 0)
(6.59466542637803e-07 -3.936395366387315e-09 0)
(6.635258610482273e-07 -3.107747812062871e-09 0)
(6.685378659013829e-07 -2.696979851284069e-09 0)
(6.747215543629557e-07 -2.555825117190493e-09 0)
(6.821363852992268e-07 -2.625195486645426e-09 0)
(6.908686434054644e-07 -2.834306832919951e-09 0)
(7.007436223104563e-07 -3.078462739789823e-09 0)
(7.118419409598119e-07 -3.438119479383874e-09 0)
(7.239721640388809e-07 -3.865258013506277e-09 0)
(6.505564998118826e-07 -1.617107251317457e-08 0)
(6.541976343483341e-07 -1.195196563248315e-08 0)
(6.578204583111209e-07 -9.473179137976213e-09 0)
(6.624961603138629e-07 -8.319656603717238e-09 0)
(6.684439789977872e-07 -7.996404891028226e-09 0)
(6.756607176212357e-07 -8.131007132782859e-09 0)
(6.842957294289948e-07 -8.722370696887368e-09 0)
(6.94096430314405e-07 -9.601208222737041e-09 0)
(7.050719040450282e-07 -1.069058918829753e-08 0)
(7.17145218862137e-07 -1.186142028371091e-08 0)
(6.414693827138812e-07 -2.70161575247348e-08 0)
(6.437022048546887e-07 -2.032054169301495e-08 0)
(6.464576700303031e-07 -1.640575107269323e-08 0)
(6.505497704337444e-07 -1.446815503638653e-08 0)
(6.561085298078434e-07 -1.395339181410326e-08 0)
(6.630784320682118e-07 -1.431899581011742e-08 0)
(6.71447184013577e-07 -1.534998583257254e-08 0)
(6.811011659552865e-07 -1.678147071547579e-08 0)
(6.918663796828735e-07 -1.853810230966434e-08 0)
(7.038142807348815e-07 -2.04770140294223e-08 0)
(6.279746601717346e-07 -3.80710889028425e-08 0)
(6.282090101283723e-07 -2.92332079444461e-08 0)
(6.29675924036111e-07 -2.419183116165283e-08 0)
(6.329546137339507e-07 -2.174740267120262e-08 0)
(6.379209428086647e-07 -2.111067133371265e-08 0)
(6.445252802582451e-07 -2.163935888033546e-08 0)
(6.525852067951103e-07 -2.303379953261376e-08 0)
(6.620459938049052e-07 -2.501120947978277e-08 0)
(6.725473396192367e-07 -2.743979371342889e-08 0)
(6.84352197812227e-07 -3.013498304948002e-08 0)
(6.101840580115376e-07 -4.932328409269296e-08 0)
(6.080155922432571e-07 -3.888448264368276e-08 0)
(6.078906110837728e-07 -3.301396514317494e-08 0)
(6.101232474966333e-07 -3.027530560948105e-08 0)
(6.143873896230156e-07 -2.964736745298784e-08 0)
(6.205136973282779e-07 -3.040760499465641e-08 0)
(6.281823188160705e-07 -3.220105282020258e-08 0)
(6.373571231316712e-07 -3.471375109572707e-08 0)
(6.475582913310804e-07 -3.77624461597761e-08 0)
(6.592324921503885e-07 -4.112860642752577e-08 0)
(5.882874964516897e-07 -6.082867027754659e-08 0)
(5.83374112159544e-07 -4.944751772834704e-08 0)
(5.815190212498037e-07 -4.312285544932988e-08 0)
(5.826096861598187e-07 -4.03214796997525e-08 0)
(5.860731124721481e-07 -3.98725916131028e-08 0)
(5.91639420234849e-07 -4.095200617881525e-08 0)
(5.989139241461841e-07 -4.315912113333297e-08 0)
(6.077761214995784e-07 -4.613872587819841e-08 0)
(6.176621931200693e-07 -4.974723686812868e-08 0)
(6.291812561106565e-07 -5.371058063879844e-08 0)
(5.62635672857496e-07 -7.257023235842911e-08 0)
(5.547680694705443e-07 -6.099418743629931e-08 0)
(5.51039478464301e-07 -5.467098979776986e-08 0)
(5.509314143697247e-07 -5.207979535951841e-08 0)
(5.535627543272161e-07 -5.194192065251856e-08 0)
(5.585604111074147e-07 -5.341255394623307e-08 0)
(5.654271638082817e-07 -5.603859500905878e-08 0)
(5.739660723377346e-07 -5.94163761225686e-08 0)
(5.835347924150776e-07 -6.350683912554901e-08 0)
(5.94909734887726e-07 -6.795345141057052e-08 0)
(5.334109014698957e-07 -8.444826991402973e-08 0)
(5.226374522274802e-07 -7.349220880915915e-08 0)
(5.170712565677814e-07 -6.766020847963022e-08 0)
(5.157507862811716e-07 -6.557719215362242e-08 0)
(5.175946825030881e-07 -6.591611089805523e-08 0)
(5.220258782030705e-07 -6.787904169383951e-08 0)
(5.284659685324525e-07 -7.096627786190441e-08 0)
(5.366814782684043e-07 -7.473842885120807e-08 0)
(5.459714697782271e-07 -7.926048778163853e-08 0)
(5.571416438262801e-07 -8.406081662455495e-08 0)
(5.009734263359975e-07 -9.641355923980986e-08 0)
(4.874929917778461e-07 -8.680936889353072e-08 0)
(4.802040034783249e-07 -8.198924399339266e-08 0)
(4.776979662767022e-07 -8.071315627866665e-08 0)
(4.787482507308448e-07 -8.172422472995142e-08 0)
(4.825287725542834e-07 -8.427340449389108e-08 0)
(4.884594895493008e-07 -8.786590438516941e-08 0)
(4.962506666524467e-07 -9.203084881487713e-08 0)
(5.05241991992945e-07 -9.68895790811918e-08 0)
(5.160803376217039e-07 -1.017571160530974e-07 0)
(4.656728637476083e-07 -1.083449797556642e-07 0)
(4.498796201196373e-07 -1.0077550555041e-07 0)
(4.410733864539499e-07 -9.738217392530036e-08 0)
(4.374916833426023e-07 -9.723645038105172e-08 0)
(4.377498498730729e-07 -9.914728116263837e-08 0)
(4.409411441111259e-07 -1.024481571182731e-07 0)
(4.464894322227827e-07 -1.067400031430839e-07 0)
(4.53888912468276e-07 -1.115792799433031e-07 0)
(4.628103123188618e-07 -1.170167285147475e-07 0)
(4.728379375737581e-07 -1.224379694001109e-07 0)
(7.370546481373445e-07 -4.220361852289405e-09 0)
(7.51199849681177e-07 -4.42059880311751e-09 0)
(7.661176025811742e-07 -4.587596845793979e-09 0)
(7.817379409713696e-07 -4.732050570248774e-09 0)
(7.979994194963451e-07 -4.857227344480634e-09 0)
(8.148889261297827e-07 -4.960103077547163e-09 0)
(8.323152165924655e-07 -5.023274129928455e-09 0)
(8.501966899538445e-07 -5.079584148235561e-09 0)
(8.685495384358394e-07 -5.153512720752862e-09 0)
(8.873645384780847e-07 -5.214973973742519e-09 0)
(9.065727395742334e-07 -5.245072191227734e-09 0)
(9.261315447120361e-07 -5.247600219329089e-09 0)
(9.460146476654399e-07 -5.231046881003226e-09 0)
(9.661982117626464e-07 -5.206801740952924e-09 0)
(9.866613907468846e-07 -5.177132321633847e-09 0)
(1.007383425666573e-06 -5.12914929601114e-09 0)
(1.02833773230189e-06 -5.048531997680325e-09 0)
(1.049505744463281e-06 -4.928072752716595e-09 0)
(1.070838061730402e-06 -4.77327955975914e-09 0)
(1.092324755925123e-06 -4.59072559071969e-09 0)
(7.305005609612272e-07 -1.286922197440369e-08 0)
(7.451525988947013e-07 -1.344802211423608e-08 0)
(7.605268449016882e-07 -1.3929375663835e-08 0)
(7.765804207709864e-07 -1.433287011102522e-08 0)
(7.932409742031925e-07 -1.464363204180609e-08 0)
(8.104548510496013e-07 -1.491158576265143e-08 0)
(8.281875442628359e-07 -1.515017536238773e-08 0)
(8.463962232492949e-07 -1.537465102996763e-08 0)
(8.650608888847303e-07 -1.556922612185959e-08 0)
(8.841360418433342e-07 -1.568501705651068e-08 0)
(9.035752275144564e-07 -1.573728799964049e-08 0)
(9.233670931168208e-07 -1.575724263259918e-08 0)
(9.434916487684668e-07 -1.574459390080683e-08 0)
(9.639124373424958e-07 -1.568756979061379e-08 0)
(9.845966585101284e-07 -1.557354237960465e-08 0)
(1.00552399321692e-06 -1.539099549334364e-08 0)
(1.026672340937927e-06 -1.512744043438474e-08 0)
(1.048014532821845e-06 -1.477424949347049e-08 0)
(1.069522072862645e-06 -1.433596815209701e-08 0)
(1.091141472191914e-06 -1.381009778737536e-08 0)
(7.176943712909581e-07 -2.211474960531051e-08 0)
(7.333909379665122e-07 -2.29747669958203e-08 0)
(7.496959277520408e-07 -2.365439125936532e-08 0)
(7.665180590886696e-07 -2.424417481112288e-08 0)
(7.838999448970042e-07 -2.473106433734891e-08 0)
(8.018247139924658e-07 -2.516888984615351e-08 0)
(8.202267631804755e-07 -2.554933042758214e-08 0)
(8.390183643591734e-07 -2.587299681194106e-08 0)
(8.582102888811424e-07 -2.612702375483379e-08 0)
(8.777742892856636e-07 -2.628439815217874e-08 0)
(8.976887097447493e-07 -2.638221739564589e-08 0)
(9.179383681436637e-07 -2.644150183335525e-08 0)
(9.384833555787396e-07 -2.643183168417939e-08 0)
(9.592834372006861e-07 -2.63239500675515e-08 0)
(9.803235356896829e-07 -2.611048057002405e-08 0)
(1.001612162366174e-06 -2.578911959613402e-08 0)
(1.023119729426744e-06 -2.534476102123988e-08 0)
(1.044832703266652e-06 -2.476731407448667e-08 0)
(1.066703730832928e-06 -2.406081445768223e-08 0)
(1.088697500730199e-06 -2.320552649241244e-08 0)
(6.98967699539521e-07 -3.226409934747566e-08 0)
(7.160824617050377e-07 -3.322014760623779e-08 0)
(7.337138787089922e-07 -3.395278676108226e-08 0)
(7.517438025157156e-07 -3.46283103404758e-08 0)
(7.702492626094745e-07 -3.522242270053133e-08 0)
(7.891670638374151e-07 -3.577522813522904e-08 0)
(8.084845847336102e-07 -3.624347653203008e-08 0)
(8.281338891586563e-07 -3.663813291832223e-08 0)
(8.481652629093478e-07 -3.694411749696814e-08 0)
(8.68525276057769e-07 -3.714594241036098e-08 0)
(8.891747572849952e-07 -3.727399429936303e-08 0)
(9.100945298254387e-07 -3.732914131087759e-08 0)
(9.312587777870191e-07 -3.72733318558298e-08 0)
(9.526481794295642e-07 -3.708885228543844e-08 0)
(9.74257178662114e-07 -3.678532759764823e-08 0)
(9.960922743217908e-07 -3.63429965070916e-08 0)
(1.018117684573417e-06 -3.574291078525019e-08 0)
(1.040341512344818e-06 -3.496310267192859e-08 0)
(1.062676261617516e-06 -3.39975492059013e-08 0)
(1.085156661916172e-06 -3.2850321272871e-08 0)
(6.748397893340576e-07 -4.354831927687296e-08 0)
(6.938249898906854e-07 -4.438558023165136e-08 0)
(7.13176966996971e-07 -4.504137116418281e-08 0)
(7.326967345539995e-07 -4.571905209847865e-08 0)
(7.525958470716446e-07 -4.632483666426967e-08 0)
(7.727911724632092e-07 -4.690395342600489e-08 0)
(7.933152255618244e-07 -4.738843103266761e-08 0)
(8.141009909759804e-07 -4.781551845965612e-08 0)
(8.351672219996808e-07 -4.813811598969933e-08 0)
(8.564837414606668e-07 -4.83403065325239e-08 0)
(8.780475614867248e-07 -4.845909150289317e-08 0)
(8.998492392124432e-07 -4.848746599913059e-08 0)
(9.218590529860578e-07 -4.837935262658755e-08 0)
(9.440554478058413e-07 -4.811753085539031e-08 0)
(9.664444179309172e-07 -4.771464315857771e-08 0)
(9.889936362583431e-07 -4.714146649586763e-08 0)
(1.011723537686889e-06 -4.638184187866136e-08 0)
(1.034585006667185e-06 -4.541415672565028e-08 0)
(1.057588294089135e-06 -4.421152727349586e-08 0)
(1.080697873569955e-06 -4.281187542544425e-08 0)
(6.459027207162138e-07 -5.621199304496692e-08 0)
(6.670113207168082e-07 -5.666641397701999e-08 0)
(6.884227861194022e-07 -5.702801827633552e-08 0)
(7.097941064999552e-07 -5.755965750030253e-08 0)
(7.314318615447372e-07 -5.806917936968077e-08 0)
(7.532189358616677e-07 -5.86005919132586e-08 0)
(7.751441564090105e-07 -5.903180160610406e-08 0)
(7.972688355144825e-07 -5.940422833578237e-08 0)
(8.195898573793123e-07 -5.968901463280371e-08 0)
(8.42092290344608e-07 -5.986970414154974e-08 0)
(8.647847675321236e-07 -5.996927253463075e-08 0)
(8.876559224790089e-07 -5.996165383261944e-08 0)
(9.106728651377068e-07 -5.979039267085773e-08 0)
(9.338140703152714e-07 -5.944246611784638e-08 0)
(9.571093907399113e-07 -5.892307499060741e-08 0)
(9.80519590951691e-07 -5.821331127680666e-08 0)
(1.004102051297845e-06 -5.729434096051363e-08 0)
(1.027756518462564e-06 -5.615805988957347e-08 0)
(1.051574711302638e-06 -5.476078015607459e-08 0)
(1.07546255472457e-06 -5.313240492627603e-08 0)
(6.129636893872567e-07 -7.032055075820429e-08 0)
(6.364859960431111e-07 -7.013292629728799e-08 0)
(6.602253102766175e-07 -7.000005443000115e-08 0)
(6.836793208267399e-07 -7.022018613422507e-08 0)
(7.072014328305347e-07 -7.048796545394705e-08 0)
(7.307569880011591e-07 -7.083001607927005e-08 0)
(7.543012843068088e-07 -7.114470793075546e-08 0)
(7.779382508842141e-07 -7.142171425315394e-08 0)
(8.016929675862353e-07 -7.164268055816833e-08 0)
(8.255718565205958e-07 -7.17858349265506e-08 0)
(8.495683601024205e-07 -7.184291403169983e-08 0)
(8.736592861760575e-07 -7.176804902913435e-08 0)
(8.978254062783039e-07 -7.150528382433668e-08 0)
(9.220698820022432e-07 -7.105422291430424e-08 0)
(9.464199000328409e-07 -7.04168859510551e-08 0)
(9.708581952416563e-07 -6.958447125287505e-08 0)
(9.954402621723335e-07 -6.852981548949524e-08 0)
(1.02006834972195e-06 -6.724114629299011e-08 0)
(1.044812388672868e-06 -6.566600931253986e-08 0)
(1.06959217003963e-06 -6.381939447571145e-08 0)
(5.766189715423964e-07 -8.600794407710012e-08 0)
(6.026959617215214e-07 -8.4816985564358e-08 0)
(6.289475899334087e-07 -8.39514238399899e-08 0)
(6.546949594576587e-07 -8.365560122948702e-08 0)
(6.803628727603105e-07 -8.355579006110496e-08 0)
(7.058483100860001e-07 -8.361107474079009e-08 0)
(7.312597701260787e-07 -8.372961483360823e-08 0)
(7.566233824707859e-07 -8.38634214577142e-08 0)
(7.819823542690302e-07 -8.398000997753605e-08 0)
(8.073638634212553e-07 -8.404246423586086e-08 0)
(8.32767509312224e-07 -8.401537187671694e-08 0)
(8.581809815917018e-07 -8.384420690348585e-08 0)
(8.836068103626667e-07 -8.348275983366832e-08 0)
(9.090850446928451e-07 -8.293613410037594e-08 0)
(9.346337908215119e-07 -8.220177706065065e-08 0)
(9.602452167593094e-07 -8.126836298706218e-08 0)
(9.859444778579587e-07 -8.009626084577955e-08 0)
(1.011667203130563e-06 -7.866460897684595e-08 0)
(1.037455973673619e-06 -7.690874030904111e-08 0)
(1.063237767858111e-06 -7.483824505953717e-08 0)
(5.374296946654023e-07 -1.031957115004937e-07 0)
(5.662849885034088e-07 -1.007689870911405e-07 0)
(5.952595898349893e-07 -9.901753022028175e-08 0)
(6.234826674482618e-07 -9.79944460898932e-08 0)
(6.51463315521248e-07 -9.734686578168961e-08 0)
(6.790625816137432e-07 -9.698705163204497e-08 0)
(7.064460916860733e-07 -9.67946602249102e-08 0)
(7.336439389327683e-07 -9.66967665331157e-08 0)
(7.6072054586228e-07 -9.664385220246926e-08 0)
(7.877060976506679e-07 -9.657287288798884e-08 0)
(8.146120943830887e-07 -9.64280941912264e-08 0)
(8.414557041334807e-07 -9.615282044706016e-08 0)
(8.682644096630287e-07 -9.570804718595864e-08 0)
(8.950935065134778e-07 -9.509120369070937e-08 0)
(9.219486496472991e-07 -9.428620078107748e-08 0)
(9.488334125827892e-07 -9.327060077247263e-08 0)
(9.757581253085729e-07 -9.199069687826184e-08 0)
(1.002658698222412e-06 -9.041547379785789e-08 0)
(1.029600096021398e-06 -8.848141512854514e-08 0)
(1.056504963487933e-06 -8.618867584310462e-08 0)
(4.963498921349334e-07 -1.218974687395009e-07 0)
(5.289408354684996e-07 -1.172312426185302e-07 0)
(5.61033816638655e-07 -1.143501379712842e-07 0)
(5.9200700258146e-07 -1.124930413904558e-07 0)
(6.223172287716707e-07 -1.112870578798089e-07 0)
(6.520889975120015e-07 -1.104961321873153e-07 0)
(6.814267724077828e-07 -1.099684894299931e-07 0)
(7.10439503095554e-07 -1.096134363105772e-07 0)
(7.392147942260207e-07 -1.093681662241868e-07 0)
(7.67791467228386e-07 -1.091486242996995e-07 0)
(7.961985984646797e-07 -1.088888646945276e-07 0)
(8.244760146859727e-07 -1.0852882355434e-07 0)
(8.526699020910331e-07 -1.080261040798684e-07 0)
(8.808384552764039e-07 -1.073655001780081e-07 0)
(9.089779927457958e-07 -1.065177810307169e-07 0)
(9.371108856188954e-07 -1.054477772090791e-07 0)
(9.65250391437508e-07 -1.040968684707673e-07 0)
(9.933422793809122e-07 -1.02402581151886e-07 0)
(1.021463085084729e-06 -1.003174711261292e-07 0)
(1.04955528285907e-06 -9.780516257457113e-08 0)
(4.619754006304664e-07 -1.436672963321112e-07 0)
(4.986391550830953e-07 -1.360255266857417e-07 0)
(5.336225466626057e-07 -1.316055718327975e-07 0)
(5.672527786342772e-07 -1.284731906648532e-07 0)
(5.997177491475503e-07 -1.263569546403483e-07 0)
(6.313477339688101e-07 -1.248700731754697e-07 0)
(6.622983350242765e-07 -1.238066124126157e-07 0)
(6.927554052279989e-07 -1.230381105765789e-07 0)
(7.228261968846332e-07 -1.224594890598426e-07 0)
(7.525738206991862e-07 -1.219614947521468e-07 0)
(7.820610053014686e-07 -1.21471690692168e-07 0)
(8.113482537934056e-07 -1.209284880872399e-07 0)
(8.404940513849492e-07 -1.202795656500076e-07 0)
(8.695564564715249e-07 -1.194946253628487e-07 0)
(8.985198836562798e-07 -1.185371793225703e-07 0)
(9.274318707087677e-07 -1.173517361033215e-07 0)
(9.562885298255698e-07 -1.158946321828851e-07 0)
(9.850981140501842e-07 -1.140645411767602e-07 0)
(1.013907898984931e-06 -1.118299423154721e-07 0)
(1.042676960306594e-06 -1.090937622520959e-07 0)
(4.443459132652462e-07 -1.634623443166393e-07 0)
(4.815236591792622e-07 -1.553359367420597e-07 0)
(5.17020093401561e-07 -1.497801381193878e-07 0)
(5.515244333888755e-07 -1.456173754929205e-07 0)
(5.849665895788983e-07 -1.425974231594498e-07 0)
(6.175466387636928e-07 -1.403559639708184e-07 0)
(6.494126749872771e-07 -1.386657272876472e-07 0)
(6.807126354988841e-07 -1.373705914039849e-07 0)
(7.115354541673755e-07 -1.363348004043831e-07 0)
(7.41955678586537e-07 -1.354411521147656e-07 0)
(7.720545856562914e-07 -1.346138944135193e-07 0)
(8.018982419309385e-07 -1.337835328412593e-07 0)
(8.315450876033231e-07 -1.328850977068186e-07 0)
(8.610461584919854e-07 -1.318756169467105e-07 0)
(8.903837826296612e-07 -1.307153579220375e-07 0)
(9.196374702133231e-07 -1.293288880067759e-07 0)
(9.487670478172075e-07 -1.276946684760485e-07 0)
(9.778377796937135e-07 -1.256886228362733e-07 0)
(1.006859496878677e-06 -1.232809840032787e-07 0)
(1.035794024731626e-06 -1.203258573280039e-07 0)
(4.312895319104224e-07 -1.812658254387191e-07 0)
(4.679396210417174e-07 -1.733313999310763e-07 0)
(5.035435807685079e-07 -1.674071092537789e-07 0)
(5.383831800926696e-07 -1.627004145888487e-07 0)
(5.723365559516081e-07 -1.590553502933309e-07 0)
(6.054955218879489e-07 -1.562007964794528e-07 0)
(6.379735310171799e-07 -1.539454141024649e-07 0)
(6.698568217221834e-07 -1.521350388070618e-07 0)
(7.012199739053112e-07 -1.506354842672079e-07 0)
(7.32141521802391e-07 -1.493343720240341e-07 0)
(7.627040151343828e-07 -1.481537648011592e-07 0)
(7.929680439547958e-07 -1.470163497793828e-07 0)
(8.229906229707953e-07 -1.458459338992353e-07 0)
(8.528180289615461e-07 -1.445920247400464e-07 0)
(8.824328010558028e-07 -1.432131298195429e-07 0)
(9.119339602584805e-07 -1.416194056821126e-07 0)
(9.412754671862454e-07 -1.398015669505827e-07 0)
(9.705374509024998e-07 -1.376308758510396e-07 0)
(9.997014266069843e-07 -1.350649028951753e-07 0)
(1.028768791004291e-06 -1.319381176343287e-07 0)
(4.204765898807939e-07 -1.985451163042084e-07 0)
(4.565734589844807e-07 -1.908710978560971e-07 0)
(4.919448778011722e-07 -1.847466508987995e-07 0)
(5.268082997632699e-07 -1.796476185261505e-07 0)
(5.609352921012831e-07 -1.75507369212566e-07 0)
(5.944084196131825e-07 -1.72134241989822e-07 0)
(6.272610975606704e-07 -1.693748217081144e-07 0)
(6.595380373140659e-07 -1.670862072423074e-07 0)
(6.912997725667342e-07 -1.651459414386275e-07 0)
(7.226153816019755e-07 -1.634510911066556e-07 0)
(7.535545696752304e-07 -1.619248914070813e-07 0)
(7.841655196422508e-07 -1.604835451026303e-07 0)
(8.145045484282207e-07 -1.590418300012886e-07 0)
(8.446145124738652e-07 -1.575461178843938e-07 0)
(8.744828913825232e-07 -1.559491696279648e-07 0)
(9.042063046542422e-07 -1.541585303564594e-07 0)
(9.337442024993108e-07 -1.521707018128931e-07 0)
(9.631855585124105e-07 -1.498524538661981e-07 0)
(9.924827348373948e-07 -1.471511832663858e-07 0)
(1.021708074063119e-06 -1.43919002378057e-07 0)
(4.113956075678455e-07 -2.150101456783497e-07 0)
(4.469385608890148e-07 -2.076941339329492e-07 0)
(4.81963020760549e-07 -2.015918705299895e-07 0)
(5.166580865330703e-07 -1.963003210988342e-07 0)
(5.507732257840497e-07 -1.918309722302591e-07 0)
(5.843662412304979e-07 -1.880652328886589e-07 0)
(6.174061725450639e-07 -1.848841618946871e-07 0)
(6.499215462741205e-07 -1.821752275353743e-07 0)
(6.819562667578435e-07 -1.798354665275913e-07 0)
(7.135625802399639e-07 -1.777739765804766e-07 0)
(7.447919530450904e-07 -1.759176770017519e-07 0)
(7.75676146862477e-07 -1.741792514061202e-07 0)
(8.062706994779127e-07 -1.724691760775306e-07 0)
(8.366126786312507e-07 -1.707373620937521e-07 0)
(8.666959601911321e-07 -1.689284966018704e-07 0)
(8.966166421153204e-07 -1.669539088094193e-07 0)
(9.263242728896015e-07 -1.648071905805054e-07 0)
(9.559177391917792e-07 -1.623541676613028e-07 0)
(9.85348794117318e-07 -1.595441071574338e-07 0)
(1.014734348901044e-06 -1.562742971859581e-07 0)
(4.035923067091127e-07 -2.309269806918146e-07 0)
(4.386229146442764e-07 -2.239596420518893e-07 0)
(4.73299913942761e-07 -2.179570640990027e-07 0)
(5.077211177226391e-07 -2.125896004317925e-07 0)
(5.417243656228423e-07 -2.079136864083237e-07 0)
(5.752975402509829e-07 -2.038571166983134e-07 0)
(6.083950233305523e-07 -2.003382337027753e-07 0)
(6.410362377484753e-07 -1.972807014858432e-07 0)
(6.732437302034307e-07 -1.945969151820365e-07 0)
(7.050501817507782e-07 -1.922089809879434e-07 0)
(7.364895247758371e-07 -1.900502175566169e-07 0)
(7.67577421745889e-07 -1.880334145268806e-07 0)
(7.983696623667175e-07 -1.860686618093153e-07 0)
(8.288950027619673e-07 -1.841129411032108e-07 0)
(8.59149439165233e-07 -1.821011450446342e-07 0)
(8.892286187279051e-07 -1.799613232660998e-07 0)
(9.190786666313282e-07 -1.776705090810656e-07 0)
(9.487975718645266e-07 -1.751031143355775e-07 0)
(9.783698460266372e-07 -1.722265937926112e-07 0)
(1.007883529363183e-06 -1.689658083344599e-07 0)
(3.96858857733959e-07 -2.463806142436616e-07 0)
(4.314259650696113e-07 -2.397483213447033e-07 0)
(4.657464099059958e-07 -2.338870919490858e-07 0)
(4.998727233114276e-07 -2.285234245134686e-07 0)
(5.336916272929331e-07 -2.237334324839862e-07 0)
(5.671511280150409e-07 -2.194697103212561e-07 0)
(6.002184698303108e-07 -2.156924318518459e-07 0)
(6.328980419596573e-07 -2.123551292868382e-07 0)
(6.651900083827142e-07 -2.093800489581052e-07 0)
(6.971113090081809e-07 -2.067049357653656e-07 0)
(7.286825810027712e-07 -2.042719822227786e-07 0)
(7.599056657082714e-07 -2.019972409651944e-07 0)
(7.908364852155499e-07 -1.997944774143236e-07 0)
(8.214933893324908e-07 -1.97632780234028e-07 0)
(8.518787685069932e-07 -1.954306257124828e-07 0)
(8.820763708219514e-07 -1.931391569579826e-07 0)
(9.120407373902468e-07 -1.907235098019862e-07 0)
(9.418700092157236e-07 -1.880718946774309e-07 0)
(9.715737120312374e-07 -1.851742482828797e-07 0)
(1.001172889872663e-06 -1.819314839040318e-07 0)
(3.910179197381151e-07 -2.61462594780165e-07 0)
(4.251914770097304e-07 -2.55132797914419e-07 0)
(4.591498855204598e-07 -2.494313839797483e-07 0)
(4.929830224485737e-07 -2.441202512652811e-07 0)
(5.265625094412599e-07 -2.392771633452221e-07 0)
(5.598536563094953e-07 -2.348737821207446e-07 0)
(5.928285553371688e-07 -2.309063091885912e-07 0)
(6.254737375172377e-07 -2.273480475615472e-07 0)
(6.577715330987095e-07 -2.241281887826862e-07 0)
(6.897312601909882e-07 -2.212032515365979e-07 0)
(7.21365289363125e-07 -2.185257670061723e-07 0)
(7.526652989822597e-07 -2.160164400612909e-07 0)
(7.836857737947197e-07 -2.13593146549839e-07 0)
(8.144307358189336e-07 -2.112418996933494e-07 0)
(8.44911667055248e-07 -2.088694993330203e-07 0)
(8.752008438807153e-07 -2.06442537587305e-07 0)
(9.052616168590399e-07 -2.039293688969404e-07 0)
(9.351964863971065e-07 -2.012300561217956e-07 0)
(9.649949167882438e-07 -1.983402815175544e-07 0)
(9.946725798710361e-07 -1.951179705518502e-07 0)
(3.858996450856001e-07 -2.762344453703522e-07 0)
(4.197098122046429e-07 -2.701756235050305e-07 0)
(4.533394453160231e-07 -2.646379188492424e-07 0)
(4.868747764065851e-07 -2.594032390549086e-07 0)
(5.201983102311928e-07 -2.545455684062346e-07 0)
(5.53300680825724e-07 -2.500541954479418e-07 0)
(5.861446392234236e-07 -2.459484847424434e-07 0)
(6.18705406845065e-07 -2.422161699738051e-07 0)
(6.509538120153605e-07 -2.387925905342002e-07 0)
(6.828986292406369e-07 -2.35653508737362e-07 0)
(7.145451276061537e-07 -2.327615453402966e-07 0)
(7.458785214391575e-07 -2.300439379330425e-07 0)
(7.76949873868255e-07 -2.274241360937731e-07 0)
(8.077507482069615e-07 -2.249017396623797e-07 0)
(8.382980155155272e-07 -2.223823681690667e-07 0)
(8.686591351106294e-07 -2.198489486735146e-07 0)
(8.988040449652078e-07 -2.172675181271205e-07 0)
(9.288289249512651e-07 -2.145508410791222e-07 0)
(9.586816731441482e-07 -2.116739184731161e-07 0)
(9.884532943293054e-07 -2.085102980989619e-07 0)
(3.81380996586268e-07 -2.907384275673739e-07 0)
(4.148410581879707e-07 -2.849310390858346e-07 0)
(4.481758686560367e-07 -2.795486996973392e-07 0)
(4.814176808370191e-07 -2.743976810187398e-07 0)
(5.145012291941562e-07 -2.69551683358225e-07 0)
(5.474125155076618e-07 -2.650089083319436e-07 0)
(5.801049287199685e-07 -2.608029615098942e-07 0)
(6.125524579547268e-07 -2.569348852460911e-07 0)
(6.44718180849758e-07 -2.53345900470738e-07 0)
(6.766144854571577e-07 -2.500267337558952e-07 0)
(7.082368949348511e-07 -2.469497751286145e-07 0)
(7.395690191072289e-07 -2.440489341901363e-07 0)
(7.706569008985044e-07 -2.412577906580626e-07 0)
(8.014864524838805e-07 -2.385857936392293e-07 0)
(8.32069543945258e-07 -2.359467797459049e-07 0)
(8.624908486893147e-07 -2.333257542713897e-07 0)
(8.927006375265482e-07 -2.307091016138052e-07 0)
(9.227708174723055e-07 -2.279929104180547e-07 0)