/*--------------------------------*- C++ -*----------------------------------*\
| =========                 |                                                 |
| \\      /  F ield         | foam-extend: Open Source CFD                    |
|  \\    /   O peration     | Version:     4.1                                |
|   \\  /    A nd           | Web:         http://www.foam-extend.org         |
|    \\/     M anipulation  |                                                 |
\*---------------------------------------------------------------------------*/
FoamFile
{
    version     2.0;
    format      ascii;
    class       vectorField;
    location    "1";
    object      solidsCellD_iteration9;
}
// * * * * * * * * * * * * * * * * * * * * * * * * * * * * * * * * * * * * * //


1000
(
(4.197770748066656e-07 -1.117873079715314e-07 0)
(4.032093627313845e-07 -1.078311542449397e-07 0)
(3.940412811660995e-07 -1.069652271625614e-07 0)
(3.901084757037663e-07 -1.086749895021848e-07 0)
(3.899637718943055e-07 -1.120699670569942e-07 0)
(3.92663043648124e-07 -1.166859803257363e-07 0)
(3.974673679913319e-07 -1.221745460675461e-07 0)
(4.037074682582647e-07 -1.284429821390061e-07 0)
(4.114185210522104e-07 -1.350716489253728e-07 0)
(4.186681044052061e-07 -1.42093416456621e-07 0)
(3.805973328087276e-07 -1.224002478861958e-07 0)
(3.629678360150934e-07 -1.213449502887914e-07 0)
(3.52957891343884e-07 -1.224019512784441e-07 0)
(3.483212992294021e-07 -1.254871035738753e-07 0)
(3.474184554873591e-07 -1.298644426666368e-07 0)
(3.492934742840204e-07 -1.351895579103295e-07 0)
(3.532208446691049e-07 -1.411652113396492e-07 0)
(3.585447122469254e-07 -1.478082891901843e-07 0)
(3.65173074830409e-07 -1.545790958414251e-07 0)
(3.717213397300051e-07 -1.620303611257203e-07 0)
(3.395504249677131e-07 -1.323963118101009e-07 0)
(3.214975406704788e-07 -1.345655816915306e-07 0)
(3.110549464004335e-07 -1.377248024556046e-07 0)
(3.059850350026165e-07 -1.4221227888249e-07 0)
(3.046153604797476e-07 -1.475204207899432e-07 0)
(3.059147761693413e-07 -1.53468453562105e-07 0)
(3.092055096313292e-07 -1.598741063276961e-07 0)
(3.139176878648468e-07 -1.667484937904396e-07 0)
(3.198787592852261e-07 -1.736207367641919e-07 0)
(3.260284437506372e-07 -1.81010050469929e-07 0)
(2.969322068208753e-07 -1.416221772285483e-07 0)
(2.793312897913726e-07 -1.471114025275478e-07 0)
(2.689867915611459e-07 -1.524094146521673e-07 0)
(2.63753712658159e-07 -1.582845860186761e-07 0)
(2.621029849559711e-07 -1.645140408387876e-07 0)
(2.630035382518574e-07 -1.710510800194453e-07 0)
(2.657341673158644e-07 -1.778222043455136e-07 0)
(2.699059480155214e-07 -1.848771582383081e-07 0)
(2.752371517556176e-07 -1.918648143557742e-07 0)
(2.809593079505833e-07 -1.992466845401249e-07 0)
(2.532082168760592e-07 -1.498755107477717e-07 0)
(2.367142240049758e-07 -1.586122631647643e-07 0)
(2.269171743551458e-07 -1.659911774494545e-07 0)
(2.218933357228498e-07 -1.732130350524111e-07 0)
(2.201661059568151e-07 -1.803062346365542e-07 0)
(2.207292179434342e-07 -1.874132662215056e-07 0)
(2.229795919122953e-07 -1.945380268018504e-07 0)
(2.265882544909733e-07 -2.017763233845111e-07 0)
(2.312951949444009e-07 -2.089122056670724e-07 0)
(2.364251477328903e-07 -2.16319578671073e-07 0)
(2.08361647900075e-07 -1.570461239209485e-07 0)
(1.937946819124887e-07 -1.687757512995992e-07 0)
(1.851080376675881e-07 -1.78085206315561e-07 0)
(1.805387724187195e-07 -1.865825535456135e-07 0)
(1.788432898477505e-07 -1.944909842901713e-07 0)
(1.791357594467793e-07 -2.021166071215665e-07 0)
(1.809930266056068e-07 -2.095533086326249e-07 0)
(1.840520999565753e-07 -2.16965707112103e-07 0)
(1.880509387623887e-07 -2.242615955331657e-07 0)
(1.924303545949661e-07 -2.317286721017585e-07 0)
(1.628397898352963e-07 -1.629170589787203e-07 0)
(1.507600408057336e-07 -1.772824502797851e-07 0)
(1.43527875573857e-07 -1.882970370527078e-07 0)
(1.396579888584047e-07 -1.979099383675443e-07 0)
(1.381691416864213e-07 -2.065156831568622e-07 0)
(1.38341958956218e-07 -2.14594751795269e-07 0)
(1.398174365425635e-07 -2.223123037368692e-07 0)
(1.422542814024339e-07 -2.298997270999478e-07 0)
(1.454345723105578e-07 -2.373555766115126e-07 0)
(1.489378302263411e-07 -2.448807482830615e-07 0)
(1.167393305147931e-07 -1.674429461006027e-07 0)
(1.076393241902889e-07 -1.839314316780194e-07 0)
(1.022110548366857e-07 -1.96275183000324e-07 0)
(9.932217734784533e-08 -2.067350119501798e-07 0)
(9.819828855086682e-08 -2.159262495870799e-07 0)
(9.829672192676211e-08 -2.243831310413207e-07 0)
(9.933998167536716e-08 -2.323591215230301e-07 0)
(1.010885714676352e-07 -2.400893275668038e-07 0)
(1.03391296727448e-07 -2.476750823651773e-07 0)
(1.059420240460897e-07 -2.552531746935818e-07 0)
(7.019882920887621e-08 -1.705114699344898e-07 0)
(6.457395284853096e-08 -1.884538592136609e-07 0)
(6.1253094927624e-08 -2.017153446241556e-07 0)
(5.943798737054176e-08 -2.128245689521968e-07 0)
(5.868899109920667e-08 -2.224252229916573e-07 0)
(5.871617570269633e-08 -2.311139115270089e-07 0)
(5.936949292458847e-08 -2.392754319259145e-07 0)
(6.045767386872901e-08 -2.471539209146001e-07 0)
(6.184463684673651e-08 -2.548575893279014e-07 0)
(6.338360670223978e-08 -2.62478506923544e-07 0)
(2.344822586910441e-08 -1.720588489684597e-07 0)
(2.155558351253739e-08 -1.907702531276925e-07 0)
(2.038309194740518e-08 -2.04496607449257e-07 0)
(1.976536093819355e-08 -2.159046980476086e-07 0)
(1.955557709256472e-08 -2.257075056578663e-07 0)
(1.955934344058377e-08 -2.345455743640717e-07 0)
(1.973365575776597e-08 -2.427806225390084e-07 0)
(2.009289273957207e-08 -2.506990672963181e-07 0)
(2.057654899112892e-08 -2.584605179012128e-07 0)
(2.109122306397858e-08 -2.661168628467914e-07 0)
(6.412703885459378e-07 -4.994884076370394e-09 0)
(6.454223053930303e-07 -3.68463174866256e-09 0)
(6.49505255590417e-07 -2.94112197279694e-09 0)
(6.546028599393243e-07 -2.589106247573491e-09 0)
(6.609215691832099e-07 -2.489168576669731e-09 0)
(6.684846933584328e-07 -2.585236891909084e-09 0)
(6.773644249033982e-07 -2.810040623038402e-09 0)
(6.873737573526094e-07 -3.068725139293746e-09 0)
(6.985914794474062e-07 -3.437391137785183e-09 0)
(7.108289044368978e-07 -3.868909941904332e-09 0)
(6.368570407540299e-07 -1.504234186919459e-08 0)
(6.403340577471881e-07 -1.118663912393632e-08 0)
(6.44005240368102e-07 -8.964372756051325e-09 0)
(6.487846179750673e-07 -7.980227509915554e-09 0)
(6.548810759696464e-07 -7.771007328142001e-09 0)
(6.622528526525077e-07 -7.989828967803668e-09 0)
(6.710420044743655e-07 -8.635325623758883e-09 0)
(6.809826723924288e-07 -9.550210405113515e-09 0)
(6.920805273564766e-07 -1.066204332370848e-08 0)
(7.042675983705853e-07 -1.185111868547575e-08 0)
(6.280286279579797e-07 -2.51302377537367e-08 0)
(6.301835017681692e-07 -1.901917994326096e-08 0)
(6.330409757047647e-07 -1.551851142426476e-08 0)
(6.3727250738029e-07 -1.386046136109079e-08 0)
(6.430044805243969e-07 -1.353387583493528e-08 0)
(6.501464740735932e-07 -1.403144616601443e-08 0)
(6.586820090717669e-07 -1.514773697695761e-08 0)
(6.68479734913408e-07 -1.663962595288221e-08 0)
(6.793768290019593e-07 -1.843544253425448e-08 0)
(6.914508308748867e-07 -2.040337332434801e-08 0)
(6.149144945335405e-07 -3.541440127219094e-08 0)
(6.151962697746444e-07 -2.735893579276157e-08 0)
(6.168417737428332e-07 -2.287131163467009e-08 0)
(6.203121993145434e-07 -2.079958823224482e-08 0)
(6.254824103247798e-07 -2.041541816468243e-08 0)
(6.32275469094702e-07 -2.112337399283982e-08 0)
(6.405205911724378e-07 -2.263558498755853e-08 0)
(6.501404271572998e-07 -2.469617110306138e-08 0)
(6.607880019854031e-07 -2.718460630325047e-08 0)
(6.727386727769144e-07 -2.992121153335209e-08 0)
(5.97614043130747e-07 -4.588587231305639e-08 0)
(5.956477134999181e-07 -3.63903046604129e-08 0)
(5.957980720421717e-07 -3.119045953411196e-08 0)
(5.982833762759663e-07 -2.89035177314135e-08 0)
(6.027922208158293e-07 -2.858101356214231e-08 0)
(6.091362168845883e-07 -2.955814815433095e-08 0)
(6.170099040495897e-07 -3.150023667805445e-08 0)
(6.263602665737437e-07 -3.411980903945439e-08 0)
(6.367222208000922e-07 -3.724961124185987e-08 0)
(6.485662442571272e-07 -4.067000628392637e-08 0)
(5.763137302253312e-07 -5.659646209891624e-08 0)
(5.717711811044682e-07 -4.62757006393208e-08 0)
(5.702980386929611e-07 -4.070908612050039e-08 0)
(5.717120344288689e-07 -3.842082850315776e-08 0)
(5.754675290502754e-07 -3.83219547310218e-08 0)
(5.812847194869806e-07 -3.965115850613611e-08 0)
(5.887883357805933e-07 -4.203266340108687e-08 0)
(5.978466845611437e-07 -4.513900205862389e-08 0)
(6.079128045227209e-07 -4.884539355366753e-08 0)
(6.196347566745506e-07 -5.287554562946171e-08 0)
(5.513433101843164e-07 -6.753103436269059e-08 0)
(5.440272376073653e-07 -5.708525600295129e-08 0)
(5.407954680802291e-07 -5.157694230934801e-08 0)
(5.410862497082456e-07 -4.954212881971737e-08 0)
(5.44058075171625e-07 -4.978903515031437e-08 0)
(5.493394243413695e-07 -5.153410203926195e-08 0)
(5.564605720605649e-07 -5.435412107185709e-08 0)
(5.652170847953305e-07 -5.787755067028386e-08 0)
(5.749854275127748e-07 -6.208532333972505e-08 0)
(5.866022617313464e-07 -6.661573060547166e-08 0)
(5.228738922727365e-07 -7.859561223879571e-08 0)
(5.128272864598316e-07 -6.878989957185232e-08 0)
(5.078636943107817e-07 -6.379896387394879e-08 0)
(5.07015148684808e-07 -6.229265185947489e-08 0)
(5.092434688080965e-07 -6.303840537216522e-08 0)
(5.139910298311057e-07 -6.529127844202935e-08 0)
(5.207096070345427e-07 -6.858452491953763e-08 0)
(5.291694518820908e-07 -7.251545544345773e-08 0)
(5.386840270261839e-07 -7.717103538856267e-08 0)
(5.501440207179496e-07 -8.207128184587273e-08 0)
(4.912462490552371e-07 -8.974472697152482e-08 0)
(4.786538546803099e-07 -8.126631952777191e-08 0)
(4.72070481761264e-07 -7.728023358885556e-08 0)
(4.701019700931048e-07 -7.658160868867004e-08 0)
(4.71579869159112e-07 -7.801027173185918e-08 0)
(4.757098112646225e-07 -8.086240437006447e-08 0)
(4.819404244185408e-07 -8.467290753263855e-08 0)
(4.899983191954751e-07 -8.900792678636999e-08 0)
(4.992227665808144e-07 -9.401007727537303e-08 0)
(5.103775217036455e-07 -9.89948760372752e-08 0)
(4.567924122007254e-07 -1.008636089713228e-07 0)
(4.420203046627297e-07 -9.434846255043338e-08 0)
(4.340029679911561e-07 -9.175913659683617e-08 0)
(4.310075810213443e-07 -9.217511914570262e-08 0)
(4.317213539907657e-07 -9.45049610502375e-08 0)
(4.352765149208202e-07 -9.812049179257029e-08 0)
(4.41129857781662e-07 -1.026497900250245e-07 0)
(4.488186380395629e-07 -1.076816389625126e-07 0)
(4.579939679353362e-07 -1.132950034635308e-07 0)
(4.683382139217494e-07 -1.188483341380894e-07 0)
(7.239850015853017e-07 -4.227548225404415e-09 0)
(7.382036506533681e-07 -4.438032774287904e-09 0)
(7.531869668364122e-07 -4.61279122963315e-09 0)
(7.688631763921746e-07 -4.763802585292215e-09 0)
(7.85174245946099e-07 -4.89384676185445e-09 0)
(8.021090681723182e-07 -5.001344407590567e-09 0)
(8.195781682823268e-07 -5.071687620813849e-09 0)
(8.374974611452538e-07 -5.136654888698182e-09 0)
(8.558826453087799e-07 -5.219460486210048e-09 0)
(8.747302947198367e-07 -5.290315918831545e-09 0)
(8.939732351341264e-07 -5.330335385218355e-09 0)
(9.135668119543575e-07 -5.343934581889438e-09 0)
(9.334872856267976e-07 -5.340960930847791e-09 0)
(9.537145637475664e-07 -5.332886880910193e-09 0)
(9.742295773811248e-07 -5.321260443902712e-09 0)
(9.950126240236782e-07 -5.293210930199453e-09 0)
(1.016041007587761e-06 -5.234936762578371e-09 0)
(1.037300779765196e-06 -5.139485241993852e-09 0)
(1.058743441792442e-06 -5.012696852743322e-09 0)
(1.080368671806434e-06 -4.862738173369007e-09 0)
(7.176850829004743e-07 -1.28755526826329e-08 0)
(7.323859645265864e-07 -1.348820766033416e-08 0)
(7.478045974732697e-07 -1.399257551448008e-08 0)
(7.638965091954249e-07 -1.441602032093204e-08 0)
(7.805938127249214e-07 -1.474620841687414e-08 0)
(7.978420479910973e-07 -1.503180457363747e-08 0)
(8.156057568872564e-07 -1.528960396688335e-08 0)
(8.338429036274749e-07 -1.553622051609274e-08 0)
(8.525344009313417e-07 -1.575624702364062e-08 0)
(8.716392985061546e-07 -1.590109566334639e-08 0)
(8.911107900375778e-07 -1.598485481687016e-08 0)
(9.109359123694725e-07 -1.603907334956511e-08 0)
(9.310963544786642e-07 -1.606591733329593e-08 0)
(9.515576311158573e-07 -1.605502026155154e-08 0)
(9.722878563642377e-07 -1.599401200197454e-08 0)
(9.932690393917033e-07 -1.587221379186039e-08 0)
(1.014485309579695e-06 -1.567778192299317e-08 0)
(1.035914216950258e-06 -1.540244400945942e-08 0)
(1.057525660947924e-06 -1.505288170540475e-08 0)
(1.079282253603987e-06 -1.462835254735541e-08 0)
(7.05365819467996e-07 -2.207247471050745e-08 0)
(7.210648309460053e-07 -2.299517720804382e-08 0)
(7.373807640987696e-07 -2.371801650005005e-08 0)
(7.542128420505217e-07 -2.434384113917878e-08 0)
(7.716053176744962e-07 -2.48655597005533e-08 0)
(7.895434872826442e-07 -2.533678280232862e-08 0)
(8.079605840983765e-07 -2.575499436583417e-08 0)
(8.267683207162139e-07 -2.612103106460997e-08 0)
(8.459748234538472e-07 -2.64200351034589e-08 0)
(8.655587349661557e-07 -2.66254802794887e-08 0)
(8.854973325310265e-07 -2.67751224877748e-08 0)
(9.057742569373188e-07 -2.689218337386502e-08 0)
(9.263508798728025e-07 -2.694913437654809e-08 0)
(9.471877997237743e-07 -2.691761069755197e-08 0)
(9.682714438127173e-07 -2.679053621745273e-08 0)
(9.896138756885913e-07 -2.656751769078649e-08 0)
(1.011187245887874e-06 -2.623571896486556e-08 0)
(1.032981208038688e-06 -2.578759218076754e-08 0)
(1.054947726111971e-06 -2.523255261136248e-08 0)
(1.077066800979984e-06 -2.455154953888109e-08 0)
(6.873518071118837e-07 -3.210172998073162e-08 0)
(7.044022312384226e-07 -3.315437976950438e-08 0)
(7.219915899081021e-07 -3.395672183442111e-08 0)
(7.399869500419068e-07 -3.469259469987442e-08 0)
(7.584662972950905e-07 -3.534557935691629e-08 0)
(7.77368050456144e-07 -3.595485284715931e-08 0)
(7.9667497793314e-07 -3.648397798986081e-08 0)
(8.163211127287431e-07 -3.694187812818975e-08 0)
(8.363529474692148e-07 -3.731265640967715e-08 0)
(8.567209736042959e-07 -3.758428430628726e-08 0)
(8.773830187571201e-07 -3.778895772788715e-08 0)
(8.983197138967732e-07 -3.792892963206807e-08 0)
(9.195068650363504e-07 -3.796786964718368e-08 0)
(9.409249339818346e-07 -3.788948285361123e-08 0)
(9.625700001667561e-07 -3.770511149294039e-08 0)
(9.844534566993345e-07 -3.739745221555806e-08 0)
(1.006538333592446e-06 -3.695036378742834e-08 0)
(1.028836386385931e-06 -3.634787237789529e-08 0)
(1.051260734172444e-06 -3.559183971836365e-08 0)
(1.073853570969872e-06 -3.468638000154412e-08 0)
(6.641271545551755e-07 -4.317001969643711e-08 0)
(6.829685310271325e-07 -4.414797058987606e-08 0)
(7.022172873137161e-07 -4.490975214300727e-08 0)
(7.216493001825233e-07 -4.568173769460894e-08 0)
(7.414754472015752e-07 -4.637885637262048e-08 0)
(7.616165753246386e-07 -4.70423401914874e-08 0)
(7.821014928133325e-07 -4.761532449482427e-08 0)
(8.028586631356563e-07 -4.813173136082532e-08 0)
(8.239073463439544e-07 -4.854569369767922e-08 0)
(8.452177445537079e-07 -4.884486676355509e-08 0)
(8.667815149741685e-07 -4.906679476751126e-08 0)
(8.885883551945936e-07 -4.920576226796206e-08 0)
(9.106099941729204e-07 -4.921865714068645e-08 0)
(9.328256775528642e-07 -4.909167162595126e-08 0)
(9.552425103912952e-07 -4.884050808482577e-08 0)
(9.778294104490686e-07 -4.843857144546084e-08 0)
(1.000609951041083e-06 -4.787270769812098e-08 0)
(1.023532226732281e-06 -4.712921584419251e-08 0)
(1.046613503191062e-06 -4.619218680813354e-08 0)
(1.069821133407107e-06 -4.509737093934672e-08 0)
(6.362645766029552e-07 -5.54992508530577e-08 0)
(6.571382502286849e-07 -5.615408218940188e-08 0)
(6.783730252903379e-07 -5.667182061607878e-08 0)
(6.995937457285049e-07 -5.734227103834178e-08 0)
(7.211091411621611e-07 -5.798551304855571e-08 0)
(7.427985983186851e-07 -5.863935303998656e-08 0)
(7.646538098630015e-07 -5.919648372631132e-08 0)
(7.86721698210217e-07 -5.969136168746717e-08 0)
(8.090001252211349e-07 -6.00967071919541e-08 0)
(8.314733730030155e-07 -6.040173486341244e-08 0)
(8.541471077105032e-07 -6.063116116257169e-08 0)
(8.770092311447689e-07 -6.0761083635077e-08 0)
(9.000255212590291e-07 -6.073914406163203e-08 0)
(9.231749208052701e-07 -6.055633362137546e-08 0)
(9.464897377946769e-07 -6.022032245311925e-08 0)
(9.699265840891294e-07 -5.971503716557325e-08 0)
(9.935493242271836e-07 -5.902825757747458e-08 0)
(1.017253779141104e-06 -5.815976255550997e-08 0)
(1.041136657051858e-06 -5.707994132247424e-08 0)
(1.06510598371459e-06 -5.5816161070216e-08 0)
(6.045246503937981e-07 -6.915500643902364e-08 0)
(6.27722727813835e-07 -6.923343571869837e-08 0)
(6.512145266779593e-07 -6.931596825822216e-08 0)
(6.744561449191399e-07 -6.973298267482699e-08 0)
(6.978055359388544e-07 -7.018834891374681e-08 0)
(7.21221633187207e-07 -7.070264167309035e-08 0)
(7.446542821980543e-07 -7.118448891943597e-08 0)
(7.682018653770775e-07 -7.162049279214033e-08 0)
(7.918871252034258e-07 -7.199612319551749e-08 0)
(8.157123623987926e-07 -7.229566736645248e-08 0)
(8.396682474841457e-07 -7.251360100327395e-08 0)
(8.637312489938485e-07 -7.260653882130394e-08 0)
(8.878804376323825e-07 -7.25228733055463e-08 0)
(9.121186411766058e-07 -7.226663905381258e-08 0)
(9.364735964804972e-07 -7.184247676982024e-08 0)
(9.609252855035765e-07 -7.124547200029602e-08 0)
(9.855361435356423e-07 -7.045934453334152e-08 0)
(1.01020154671386e-06 -6.947962171157815e-08 0)
(1.034996603485314e-06 -6.82678752735304e-08 0)
(1.059837961602105e-06 -6.68377610200683e-08 0)
(5.694703692446723e-07 -8.42604843639044e-08 0)
(5.951481502119988e-07 -8.342239666131724e-08 0)
(6.210836697599239e-07 -8.285058720008593e-08 0)
(6.465640423493121e-07 -8.282365202861911e-08 0)
(6.720045484300197e-07 -8.296813508280916e-08 0)
(6.973120514864545e-07 -8.324961670315783e-08 0)
(7.225708205291755e-07 -8.358096872633208e-08 0)
(7.478101693898458e-07 -8.391464730875055e-08 0)
(7.730683086981266e-07 -8.422415228841638e-08 0)
(7.983684741192206e-07 -8.447826877266032e-08 0)
(8.237069602280546e-07 -8.464482471845319e-08 0)
(8.490686211718503e-07 -8.467218106194835e-08 0)
(8.744544359889744e-07 -8.451931398522595e-08 0)
(8.999071586422511e-07 -8.419656331034472e-08 0)
(9.254426092043466e-07 -8.370491281453481e-08 0)
(9.5105110655284e-07 -8.303846653282491e-08 0)
(9.767654742650515e-07 -8.21691555257573e-08 0)
(1.002508022660706e-06 -8.108342542771958e-08 0)
(1.028330701331413e-06 -7.973092167474369e-08 0)
(1.054152197208869e-06 -7.812021695313873e-08 0)
(5.315909077901172e-07 -1.007525961663681e-07 0)
(5.600151727836526e-07 -9.875231205664938e-08 0)
(5.886328764070175e-07 -9.736881982611754e-08 0)
(6.16552437796815e-07 -9.669209428337516e-08 0)
(6.442694795395255e-07 -9.636107243872909e-08 0)
(6.716503634298128e-07 -9.629264062293174e-08 0)
(6.988446065642173e-07 -9.636941450098784e-08 0)
(7.258825174123036e-07 -9.652225340955457e-08 0)
(7.52822054191289e-07 -9.670688309664594e-08 0)
(7.796904773657733e-07 -9.686659133513695e-08 0)
(8.064977025263871e-07 -9.695021905031657e-08 0)
(8.332579044210341e-07 -9.690529698428902e-08 0)
(8.599973690653286e-07 -9.669980986240916e-08 0)
(8.867748251819893e-07 -9.633720666141105e-08 0)
(9.135908041800082e-07 -9.580527116830048e-08 0)
(9.404485768019984e-07 -9.508919808810184e-08 0)
(9.673661144412126e-07 -9.414569400607756e-08 0)
(9.942643082900629e-07 -9.295049166083328e-08 0)
(1.021216273202118e-06 -9.145347504196557e-08 0)
(1.048135663255109e-06 -8.965565347092432e-08 0)
(4.918223091543388e-07 -1.186920167541994e-07 0)
(5.240052707719069e-07 -1.145448459880516e-07 0)
(5.557404220597307e-07 -1.121274958863864e-07 0)
(5.863903606086737e-07 -1.10699215584886e-07 0)
(6.164147968796412e-07 -1.098748157764158e-07 0)
(6.45929946641706e-07 -1.094305889470131e-07 0)
(6.750411641080112e-07 -1.09220610053348e-07 0)
(7.038529161032789e-07 -1.09160810834283e-07 0)
(7.324484702321982e-07 -1.091929503515334e-07 0)
(7.608653584098749e-07 -1.09240192482298e-07 0)
(7.891322019433151e-07 -1.092421618629005e-07 0)
(8.172857958434944e-07 -1.091436993363532e-07 0)
(8.453723435205161e-07 -1.089103516401143e-07 0)
(8.734533948393873e-07 -1.085335495615145e-07 0)
(9.015179178652545e-07 -1.079884435463088e-07 0)
(9.295909663842108e-07 -1.072493214914792e-07 0)
(9.576880922788889e-07 -1.062658488495394e-07 0)
(9.857450030191828e-07 -1.04983288442218e-07 0)
(1.013844085702013e-06 -1.033642417448165e-07 0)
(1.041921140001326e-06 -1.013764002638867e-07 0)
(4.580382493615787e-07 -1.400167270381276e-07 0)
(4.945248027429815e-07 -1.328452766678029e-07 0)
(5.292655965579375e-07 -1.289067273869343e-07 0)
(5.626212328474003e-07 -1.262417109146967e-07 0)
(5.948096230974786e-07 -1.245469197938162e-07 0)
(6.261729502261017e-07 -1.234469645241171e-07 0)
(6.568782604006556e-07 -1.227404920176784e-07 0)
(6.871103882417067e-07 -1.223037315741574e-07 0)
(7.169757779183373e-07 -1.22036678370484e-07 0)
(7.465386945425946e-07 -1.218377545287815e-07 0)
(7.758620520166824e-07 -1.216402788208306e-07 0)
(8.050023024578493e-07 -1.213876089110895e-07 0)
(8.340192027004007e-07 -1.210356720997597e-07 0)
(8.629740752343445e-07 -1.205611904831231e-07 0)
(8.918411439199405e-07 -1.19932085213988e-07 0)
(9.206739146997684e-07 -1.191035555447874e-07 0)
(9.494658308661289e-07 -1.1803674335438e-07 0)
(9.782188750428846e-07 -1.166415859614554e-07 0)
(1.0069841369012e-06 -1.148937647687861e-07 0)
(1.035718835355045e-06 -1.12700888846184e-07 0)
(4.408966844440859e-07 -1.596306284618198e-07 0)
(4.778676841997081e-07 -1.519468901005403e-07 0)
(5.131396407658402e-07 -1.468354021234965e-07 0)
(5.473996252064769e-07 -1.43121039066551e-07 0)
(5.805947948019822e-07 -1.405240379061183e-07 0)
(6.129335068470543e-07 -1.386828399642422e-07 0)
(6.445718230163785e-07 -1.373682421976692e-07 0)
(6.756596833641346e-07 -1.364260438345198e-07 0)
(7.062867646726968e-07 -1.357254089786469e-07 0)
(7.365300990209273e-07 -1.351554257158783e-07 0)
(7.664717246103982e-07 -1.346445655002577e-07 0)
(7.961737559338946e-07 -1.341278715208502e-07 0)
(8.256972835269568e-07 -1.335487573409707e-07 0)
(8.550954942506249e-07 -1.328707157101232e-07 0)
(8.843393071460826e-07 -1.320582626341187e-07 0)
(9.135159303916451e-07 -1.310480185468439e-07 0)
(9.425803646268784e-07 -1.298192869616556e-07 0)
(9.715948456737281e-07 -1.282623881091085e-07 0)
(1.000569390904637e-06 -1.263534563720648e-07 0)
(1.029466166441119e-06 -1.239457999619375e-07 0)
(4.284132054169061e-07 -1.77165637775992e-07 0)
(4.648238925353587e-07 -1.697208031314666e-07 0)
(5.001910017770044e-07 -1.642498321201463e-07 0)
(5.347903118602739e-07 -1.599881192095512e-07 0)
(5.68509463152898e-07 -1.567683293404461e-07 0)
(6.014408824468528e-07 -1.543218605872119e-07 0)
(6.337048807992632e-07 -1.524542581638098e-07 0)
(6.6538882971694e-07 -1.510129955324597e-07 0)
(6.965672167537338e-07 -1.498674058420794e-07 0)
(7.273216090302842e-07 -1.489098874969271e-07 0)
(7.577351144242953e-07 -1.480653043004391e-07 0)
(7.87863835117255e-07 -1.472604459365823e-07 0)
(8.177687807274295e-07 -1.464278764189936e-07 0)
(8.474971739570953e-07 -1.455224759065634e-07 0)
(8.770202755559475e-07 -1.44506380959997e-07 0)
(9.064457721902935e-07 -1.433031679971562e-07 0)
(9.357205972250559e-07 -1.419024076891846e-07 0)
(9.649260974844442e-07 -1.40190718647277e-07 0)
(9.940397133686994e-07 -1.381287730258146e-07 0)
(1.023061568167702e-06 -1.355440822620601e-07 0)
(4.181706886049615e-07 -1.941357636475188e-07 0)
(4.54004330821436e-07 -1.869856699433402e-07 0)
(4.891299535892365e-07 -1.813371783170857e-07 0)
(5.237534328289996e-07 -1.766985880057231e-07 0)
(5.57655102919613e-07 -1.729980983299651e-07 0)
(5.909106636906216e-07 -1.700468005719767e-07 0)
(6.235614707770314e-07 -1.676910337066189e-07 0)
(6.556502631156231e-07 -1.657892715877514e-07 0)
(6.872370496436814e-07 -1.642213864138129e-07 0)
(7.183946342523238e-07 -1.628886483966316e-07 0)
(7.491927056408453e-07 -1.617161571574993e-07 0)
(7.796741593899997e-07 -1.606242625521994e-07 0)
(8.099004408228701e-07 -1.595372543844354e-07 0)
(8.399141996844462e-07 -1.584054251321838e-07 0)
(8.696926615231916e-07 -1.571848554009065e-07 0)
(8.993422573949115e-07 -1.55796393241914e-07 0)
(9.288120144673069e-07 -1.542346884195058e-07 0)
(9.581955110097154e-07 -1.523819144488187e-07 0)
(9.874382147521369e-07 -1.501835259441631e-07 0)
(1.016607400375685e-06 -1.474847025010509e-07 0)
(4.096113549970312e-07 -2.103105398068442e-07 0)
(4.448903370184896e-07 -2.035426709473651e-07 0)
(4.796678274035622e-07 -1.979371551211225e-07 0)
(5.141276807457358e-07 -1.931220895176559e-07 0)
(5.48022453545985e-07 -1.891063181480335e-07 0)
(5.814065083097723e-07 -1.857759750389147e-07 0)
(6.142548279103191e-07 -1.830146579615945e-07 0)
(6.465917609140415e-07 -1.807092540658102e-07 0)
(6.784606252230652e-07 -1.787585418588572e-07 0)
(7.099176877143725e-07 -1.770759049436568e-07 0)
(7.410136176249652e-07 -1.755892845090657e-07 0)
(7.717745798635926e-07 -1.742157455465055e-07 0)
(8.022621692106031e-07 -1.728760643256938e-07 0)
(8.325116611784308e-07 -1.715219824455661e-07 0)
(8.625082551246028e-07 -1.701019203910686e-07 0)
(8.923580629338527e-07 -1.685391629360111e-07 0)
(9.219978048349626e-07 -1.668249443818011e-07 0)
(9.515318848716777e-07 -1.648392980830387e-07 0)
(9.809030714181647e-07 -1.62525662256966e-07 0)
(1.010223374589346e-06 -1.597824219033991e-07 0)
(4.022790147738018e-07 -2.259477911442354e-07 0)
(4.370565117153497e-07 -2.195458020446499e-07 0)
(4.714937313039109e-07 -2.140596855233611e-07 0)
(5.056875876304268e-07 -2.09186264873401e-07 0)
(5.39476640530341e-07 -2.049790533482284e-07 0)
(5.728511220781621e-07 -2.013738913918024e-07 0)
(6.057671518835695e-07 -1.982915416846191e-07 0)
(6.382394685199625e-07 -1.95653481889355e-07 0)
(6.702902313368399e-07 -1.933744217312464e-07 0)
(7.019563483750659e-07 -1.913812013304312e-07 0)
(7.332701747791236e-07 -1.896072339651658e-07 0)
(7.642421050765955e-07 -1.879699530940396e-07 0)
(7.949348911013755e-07 -1.863903418091462e-07 0)
(8.25373135604221e-07 -1.848247835429285e-07 0)
(8.55546233401011e-07 -1.832128046355749e-07 0)
(8.855580082287769e-07 -1.814916385091732e-07 0)
(9.153412762801959e-07 -1.796362376168071e-07 0)
(9.449994541108196e-07 -1.77533312217399e-07 0)
(9.74506310106631e-07 -1.751451771363077e-07 0)
(1.003950711502275e-06 -1.724057195656498e-07 0)
(3.959664056720216e-07 -2.411458230042802e-07 0)
(4.302978431007395e-07 -2.350872261855946e-07 0)
(4.643935008660803e-07 -2.297566489758901e-07 0)
(4.983023072009342e-07 -2.249020972156719e-07 0)
(5.319180515121232e-07 -2.205964762808398e-07 0)
(5.651909636243067e-07 -2.168011611700827e-07 0)
(5.98088179845104e-07 -2.134766420043781e-07 0)
(6.306095464192841e-07 -2.105740046821405e-07 0)
(6.627549241752104e-07 -2.080187880346901e-07 0)
(6.945456876274566e-07 -2.057539859025621e-07 0)
(7.260002867349222e-07 -2.03720761062562e-07 0)
(7.571160020014273e-07 -2.018398891465831e-07 0)
(7.879564132331745e-07 -2.000358534267281e-07 0)
(8.185328670798739e-07 -1.982746675536841e-07 0)
(8.488433119670251e-07 -1.964809532913506e-07 0)
(8.789771521246675e-07 -1.946116284939285e-07 0)
(9.08876035369969e-07 -1.926306417335315e-07 0)
(9.386439109673314e-07 -1.904376277477839e-07 0)
(9.682792719591352e-07 -1.880219102479042e-07 0)
(9.978089811471049e-07 -1.8528948813106e-07 0)
(3.905033315179247e-07 -2.559953401286325e-07 0)
(4.244619041796026e-07 -2.502418520210596e-07 0)
(4.582151800629167e-07 -2.450819512534277e-07 0)
(4.918458683218793e-07 -2.402932834295919e-07 0)
(5.252380569848846e-07 -2.359506581083195e-07 0)
(5.583565598704635e-07 -2.320315946068349e-07 0)
(5.911743301374672e-07 -2.285314671925308e-07 0)
(6.236732142367868e-07 -2.254218240332327e-07 0)
(6.558354648110436e-07 -2.226358873205129e-07 0)
(6.876749434525054e-07 -2.201360905346019e-07 0)
(7.192014508419622e-07 -2.178726343672266e-07 0)
(7.504030668240818e-07 -2.157708950813367e-07 0)
(7.813421901748575e-07 -2.137583299510181e-07 0)
(8.120133394500443e-07 -2.11815579727899e-07 0)
(8.424249151726563e-07 -2.098570600587772e-07 0)
(8.726531000343419e-07 -2.078529186838377e-07 0)
(9.026495255878403e-07 -2.057713228605154e-07 0)
(9.325230663141902e-07 -2.035242865715169e-07 0)
(9.622537579724488e-07 -2.011095928764798e-07 0)
(9.918595013891754e-07 -1.983777188501148e-07 0)
(3.857257156502158e-07 -2.705577652404518e-07 0)
(4.193466871866736e-07 -2.650752810043322e-07 0)
(4.527935730746038e-07 -2.600877200439657e-07 0)
(4.861477388020504e-07 -2.553870947921131e-07 0)
(5.193019982752442e-07 -2.510437334566509e-07 0)
(5.522471099487247e-07 -2.470495403755742e-07 0)
(5.849478267975403e-07 -2.43423591121167e-07 0)
(6.173742358532629e-07 -2.40152498062915e-07 0)
(6.494981668290715e-07 -2.371757646971339e-07 0)
(6.813327315658255e-07 -2.344757866461499e-07 0)
(7.128803945949487e-07 -2.320113861121709e-07 0)
(7.441236229267559e-07 -2.297142927236437e-07 0)
(7.751210636258721e-07 -2.275155706889433e-07 0)
(8.058535794491913e-07 -2.254077048720359e-07 0)
(8.363357535141003e-07 -2.233053369393505e-07 0)
(8.666384079345027e-07 -2.211936038863573e-07 0)
(8.967206912333895e-07 -2.190407965637996e-07 0)
(9.266853081144512e-07 -2.167708059317197e-07 0)
(9.564721050454459e-07 -2.14356651452906e-07 0)
(9.861648459927779e-07 -2.116628333394488e-07 0)
(3.815169914096908e-07 -2.848759115994464e-07 0)
(4.148168284270878e-07 -2.796449036926187e-07 0)
(4.479937200552819e-07 -2.748187847566041e-07 0)
(4.810783026372419e-07 -2.702102763530057e-07 0)
(5.140111263365503e-07 -2.658881582363947e-07 0)
(5.467814567825671e-07 -2.618524433892814e-07 0)
(5.793448584261393e-07 -2.581371732844289e-07 0)
(6.116696725537756e-07 -2.547423665596426e-07 0)
(6.437221856178411e-07 -2.516128453971349e-07 0)
(6.755183155172539e-07 -2.487461302477078e-07 0)
(7.070506068529477e-07 -2.461093903396453e-07 0)
(7.383002735541844e-07 -2.436407981149542e-07 0)
(7.693203699769002e-07 -2.412793661653968e-07 0)
(8.000859834132013e-07 -2.390265295050668e-07 0)
(8.306086383990347e-07 -2.368057804794487e-07 0)
(8.609739924779211e-07 -2.346059385206594e-07 0)
(8.911239743642293e-07 -2.32414222981684e-07 0)
(9.211370554469901e-07 -2.301370570278032e-07 0)