/*--------------------------------*- C++ -*----------------------------------*\
| =========                 |                                                 |
| \\      /  F ield         | foam-extend: Open Source CFD                    |
|  \\    /   O peration     | Version:     4.1                                |
|   \\  /    A nd           | Web:         http://www.foam-extend.org         |
|    \\/     M anipulation  |                                                 |
\*---------------------------------------------------------------------------*/
FoamFile
{
    version     2.0;
    format      ascii;
    class       vectorField;
    location    "1";
    object      solidsCellD_iteration16;
}
// * * * * * * * * * * * * * * * * * * * * * * * * * * * * * * * * * * * * * //


1000
(
(4.626923977180077e-07 -1.579749175586403e-07 0)
(4.400997237695865e-07 -1.488032986726649e-07 0)
(4.263697866959372e-07 -1.437614962104127e-07 0)
(4.191119818756781e-07 -1.425062849483595e-07 0)
(4.164891930814245e-07 -1.435415922016395e-07 0)
(4.172325092215967e-07 -1.462797057353321e-07 0)
(4.20519259046868e-07 -1.501907999999659e-07 0)
(4.255558653166891e-07 -1.550203948343944e-07 0)
(4.322579542776265e-07 -1.604179142012622e-07 0)
(4.394319626823427e-07 -1.661120592272635e-07 0)
(4.188007767810874e-07 -1.72781884398601e-07 0)
(3.948306385347794e-07 -1.673055848899454e-07 0)
(3.801457558331769e-07 -1.646390633979367e-07 0)
(3.721188893669819e-07 -1.65001208606089e-07 0)
(3.687885512913201e-07 -1.671409276887672e-07 0)
(3.688595063533514e-07 -1.706549379845457e-07 0)
(3.714509974251991e-07 -1.750809432296867e-07 0)
(3.758026563486471e-07 -1.803261684611924e-07 0)
(3.817371435960503e-07 -1.859235421910798e-07 0)
(3.881760772681093e-07 -1.92058820889463e-07 0)
(3.730965626199959e-07 -1.86809582706109e-07 0)
(3.486236063935002e-07 -1.854490200057378e-07 0)
(3.335230472598817e-07 -1.854254935885196e-07 0)
(3.251220130667359e-07 -1.875348024559306e-07 0)
(3.213957545051634e-07 -1.908390376632577e-07 0)
(3.210148147778277e-07 -1.951334308514541e-07 0)
(3.231028100604828e-07 -2.000851645853473e-07 0)
(3.269445311894449e-07 -2.056843044826071e-07 0)
(3.323037663594139e-07 -2.11501684565485e-07 0)
(3.383127843553525e-07 -2.177395343156391e-07 0)
(3.258345773937887e-07 -1.997837233907425e-07 0)
(3.019657366911419e-07 -2.026806955000729e-07 0)
(2.871390200184521e-07 -2.054126738314484e-07 0)
(2.78760317033697e-07 -2.093261427305933e-07 0)
(2.74900824084564e-07 -2.138073454353943e-07 0)
(2.742358279274382e-07 -2.188690375529083e-07 0)
(2.758737388956898e-07 -2.243194498351767e-07 0)
(2.792482484272196e-07 -2.302401238661283e-07 0)
(2.840302044167072e-07 -2.362729649701025e-07 0)
(2.895439179952725e-07 -2.426593063250915e-07 0)
(2.775020271854821e-07 -2.114264605682448e-07 0)
(2.551378314598519e-07 -2.18538238518175e-07 0)
(2.412137930141658e-07 -2.239681903269054e-07 0)
(2.333156605069259e-07 -2.296398840915666e-07 0)
(2.295725150094761e-07 -2.352635800822238e-07 0)
(2.287289894344272e-07 -2.410920690003227e-07 0)
(2.300092651360331e-07 -2.470510213358337e-07 0)
(2.329233307675004e-07 -2.53291180769107e-07 0)
(2.371270771655135e-07 -2.595686037668223e-07 0)
(2.420166091241142e-07 -2.660978424229126e-07 0)
(2.281300846066671e-07 -2.215678876058399e-07 0)
(2.083526866230854e-07 -2.326110225787043e-07 0)
(1.960177461583044e-07 -2.405617279118126e-07 0)
(1.889341473891252e-07 -2.478793918439119e-07 0)
(1.854954845223833e-07 -2.545727238883586e-07 0)
(1.84600972304447e-07 -2.610994004000617e-07 0)
(1.856111483657895e-07 -2.675224395025768e-07 0)
(1.880558185510578e-07 -2.740505502502059e-07 0)
(1.916025703011926e-07 -2.805769538462546e-07 0)
(1.957419997780067e-07 -2.872853621402401e-07 0)
(1.781415101385274e-07 -2.299262536336512e-07 0)
(1.617485319664575e-07 -2.44400081652662e-07 0)
(1.51500006998763e-07 -2.545738854450848e-07 0)
(1.455762588226049e-07 -2.633592874353159e-07 0)
(1.426763677712766e-07 -2.709864856639676e-07 0)
(1.418791222576221e-07 -2.781208595863174e-07 0)
(1.426514069256741e-07 -2.849487630657499e-07 0)
(1.445811502915676e-07 -2.917363679859206e-07 0)
(1.473917085531156e-07 -2.984845620535004e-07 0)
(1.506836159540773e-07 -3.05345826517209e-07 0)
(1.27614800616866e-07 -2.363807428826115e-07 0)
(1.153183570907109e-07 -2.536173839274019e-07 0)
(1.076398504306363e-07 -2.655501241063041e-07 0)
(1.03207357139502e-07 -2.754875814935599e-07 0)
(1.010351180775401e-07 -2.838697690601369e-07 0)
(1.004112750375967e-07 -2.915079911084241e-07 0)
(1.009334128534128e-07 -2.98689591113894e-07 0)
(1.023062022600859e-07 -3.056957339468887e-07 0)
(1.043368972677181e-07 -3.126342587696215e-07 0)
(1.067280224589334e-07 -3.196324852973999e-07 0)
(7.671169837701919e-08 -2.407718082884521e-07 0)
(6.910114438625034e-08 -2.599171144716283e-07 0)
(6.438467660117778e-08 -2.730656434946931e-07 0)
(6.16299813044583e-08 -2.838348385597326e-07 0)
(6.024494098210143e-08 -2.927432554251478e-07 0)
(5.98236302665814e-08 -3.007192861471555e-07 0)
(6.014584375722541e-08 -3.081591828574326e-07 0)
(6.10000573546361e-08 -3.153520943082309e-07 0)
(6.222756480989553e-08 -3.224372693954003e-07 0)
(6.366955377706994e-08 -3.295372804786456e-07 0)
(2.562336172110834e-08 -2.429894297279974e-07 0)
(2.306234965572329e-08 -2.631470677699037e-07 0)
(2.142246916913227e-08 -2.76903570441504e-07 0)
(2.047657074344664e-08 -2.880731240401343e-07 0)
(2.004099436594104e-08 -2.972558357899784e-07 0)
(1.990180940566469e-08 -3.054202747311193e-07 0)
(1.997272445478866e-08 -3.129589669759273e-07 0)
(2.02487500551575e-08 -3.202219644842316e-07 0)
(2.067451185565742e-08 -3.273921942523593e-07 0)
(2.115724841954989e-08 -3.345591843984377e-07 0)
(7.152511777139183e-07 -7.108843395814953e-09 0)
(7.205844337607731e-07 -5.120076485870905e-09 0)
(7.246351966619217e-07 -3.905672574402689e-09 0)
(7.293263604921349e-07 -3.242020714074674e-09 0)
(7.349346206471988e-07 -2.919539604602386e-09 0)
(7.417273661500797e-07 -2.840656165455335e-09 0)
(7.498087993299702e-07 -2.961690361781547e-09 0)
(7.590983339908521e-07 -3.168367808894982e-09 0)
(7.696265491939024e-07 -3.450498208133787e-09 0)
(7.812321581479373e-07 -3.80767784302726e-09 0)
(7.101062025754952e-07 -2.138583794933577e-08 0)
(7.145285079133245e-07 -1.553723104124123e-08 0)
(7.180136292928549e-07 -1.191199566135266e-08 0)
(7.223027086829723e-07 -9.968342389783393e-09 0)
(7.276281208152116e-07 -9.120630608011017e-09 0)
(7.342109364137054e-07 -8.906021553990167e-09 0)
(7.421555413037533e-07 -9.199762237937138e-09 0)
(7.513358467658373e-07 -9.85974357587335e-09 0)
(7.617453512910691e-07 -1.07645670506762e-08 0)
(7.732676891640693e-07 -1.17953389523089e-08 0)
(6.998790935701321e-07 -3.575041458641801e-08 0)
(7.02524324852479e-07 -2.641515345300373e-08 0)
(7.048893967305029e-07 -2.065575329746227e-08 0)
(7.084431324574456e-07 -1.748243636184459e-08 0)
(7.132699055448148e-07 -1.607955997700233e-08 0)
(7.195192500580629e-07 -1.582046550652176e-08 0)
(7.271629318662731e-07 -1.637001962988735e-08 0)
(7.361619458700871e-07 -1.744843260111524e-08 0)
(7.463373485524411e-07 -1.893864558654563e-08 0)
(7.576886096670031e-07 -2.065426974274549e-08 0)
(6.846991082152863e-07 -5.034772060867581e-08 0)
(6.848189133470636e-07 -3.800525224573154e-08 0)
(6.85558321380063e-07 -3.047920629324986e-08 0)
(6.880608741104308e-07 -2.637257031997118e-08 0)
(6.921699471696328e-07 -2.455267337024296e-08 0)
(6.979579103140558e-07 -2.424042357470676e-08 0)
(7.052113846405482e-07 -2.502225282014099e-08 0)
(7.139355643353778e-07 -2.651236881353333e-08 0)
(7.237991697722662e-07 -2.854224631561484e-08 0)
(7.349216072375493e-07 -3.090398489382e-08 0)
(6.647528990879842e-07 -6.520127924814738e-08 0)
(6.617875328532888e-07 -5.052845753221208e-08 0)
(6.605216906565949e-07 -4.165320587560289e-08 0)
(6.617085060378015e-07 -3.689275762072735e-08 0)
(6.649362409696532e-07 -3.484477059910765e-08 0)
(6.701147154847508e-07 -3.458401457667498e-08 0)
(6.76897120570013e-07 -3.561737793255222e-08 0)
(6.852644639049655e-07 -3.750977156139454e-08 0)
(6.947682903680851e-07 -4.004665490052935e-08 0)
(7.056372124611972e-07 -4.299678690428538e-08 0)
(6.402724061101597e-07 -8.037606565158525e-08 0)
(6.338125583509231e-07 -6.422270860065967e-08 0)
(6.303281669327174e-07 -5.449667744991394e-08 0)
(6.300487848801094e-07 -4.939812900340842e-08 0)
(6.322779176427007e-07 -4.731493192994783e-08 0)
(6.367533786972869e-07 -4.720408219511009e-08 0)
(6.430256543318419e-07 -4.852002195584711e-08 0)
(6.509875655793248e-07 -5.079851040718062e-08 0)
(6.600968586558163e-07 -5.382049656800951e-08 0)
(6.7066351480127e-07 -5.729376679518308e-08 0)
(6.116487273294317e-07 -9.580500193128501e-08 0)
(6.014556280164827e-07 -7.915595882046768e-08 0)
(5.9559976703731e-07 -6.916124611562755e-08 0)
(5.937706658696455e-07 -6.405550402603228e-08 0)
(5.949486013605129e-07 -6.212511922227925e-08 0)
(5.986978900649929e-07 -6.228213431908557e-08 0)
(6.044341069317254e-07 -6.392616920812644e-08 0)
(6.119705836057185e-07 -6.654641578726893e-08 0)
(6.206849712946616e-07 -6.998223286135243e-08 0)
(6.309442588562909e-07 -7.387011769020824e-08 0)
(5.791697087868657e-07 -1.113904646870248e-07 0)
(5.652932733215992e-07 -9.525816945162028e-08 0)
(5.571189679481502e-07 -8.562972738924031e-08 0)
(5.537427681123093e-07 -8.092695988676703e-08 0)
(5.539115919145222e-07 -7.937923118816861e-08 0)
(5.569356881195033e-07 -7.994664492559475e-08 0)
(5.621304688036838e-07 -8.199419564968771e-08 0)
(5.692184907283954e-07 -8.496692367449895e-08 0)
(5.775439938965117e-07 -8.877316610976817e-08 0)
(5.874216285757637e-07 -9.297166642545611e-08 0)
(5.432453258433906e-07 -1.270599273492762e-07 0)
(5.259423465333655e-07 -1.123871126147927e-07 0)
(5.155831972702178e-07 -1.037679513967093e-07 0)
(5.107257531685331e-07 -9.985978394759429e-08 0)
(5.09892001096885e-07 -9.892479368167143e-08 0)
(5.121288460928518e-07 -1.000250849905203e-07 0)
(5.167323195804891e-07 -1.025379254982334e-07 0)
(5.233060674597146e-07 -1.05877515171287e-07 0)
(5.312691163242165e-07 -1.100132591354333e-07 0)
(5.40736527259131e-07 -1.142898711658309e-07 0)
(5.042956785631949e-07 -1.426681458836348e-07 0)
(4.840715021828733e-07 -1.303341965996943e-07 0)
(4.718126249533554e-07 -1.232685358253326e-07 0)
(4.656628092426316e-07 -1.205362122329983e-07 0)
(4.639119910882639e-07 -1.204723629674113e-07 0)
(4.654722857915998e-07 -1.222771487563027e-07 0)
(4.696252669757294e-07 -1.254038023195631e-07 0)
(4.757021554716476e-07 -1.293221503305685e-07 0)
(4.834388316429973e-07 -1.339137328017964e-07 0)
(4.921800633271102e-07 -1.387094526494382e-07 0)
(7.939120349332414e-07 -4.136487134837097e-09 0)
(8.076578536462193e-07 -4.290202191847624e-09 0)
(8.222166143378136e-07 -4.415185789299555e-09 0)
(8.375307590931132e-07 -4.523513479145844e-09 0)
(8.535210499863342e-07 -4.622786584067209e-09 0)
(8.701427944288616e-07 -4.708608032000442e-09 0)
(8.873188166651626e-07 -4.752574925642136e-09 0)
(9.049943054997231e-07 -4.771080506685104e-09 0)
(9.231592911828449e-07 -4.790295613376763e-09 0)
(9.417720727539103e-07 -4.799175194415603e-09 0)
(9.607702158953403e-07 -4.783799580375888e-09 0)
(9.801162335082435e-07 -4.73956559041035e-09 0)
(9.997713091044323e-07 -4.662829400143859e-09 0)
(1.019696957852868e-06 -4.555721081351211e-09 0)
(1.039856810172268e-06 -4.422097730621975e-09 0)
(1.060215873271151e-06 -4.259598858148456e-09 0)
(1.080730860636844e-06 -4.060726233010805e-09 0)
(1.101357922088288e-06 -3.813446430541213e-09 0)
(1.122042719315192e-06 -3.514300741487416e-09 0)
(1.142703608877242e-06 -3.161259563921371e-09 0)
(7.862697779093628e-07 -1.2705408770956e-08 0)
(8.006322344976858e-07 -1.310850930589578e-08 0)
(8.15744940397163e-07 -1.346397624446586e-08 0)
(8.315596699852616e-07 -1.377540095151983e-08 0)
(8.479966744903591e-07 -1.401310961078181e-08 0)
(8.649994812461662e-07 -1.420667761026563e-08 0)
(8.82535017178035e-07 -1.434946780465493e-08 0)
(9.00563099200058e-07 -1.445083500217614e-08 0)
(9.190527714066337e-07 -1.451308282356946e-08 0)
(9.379462458135225e-07 -1.450540986608197e-08 0)
(9.572005026994657e-07 -1.442282461125339e-08 0)
(9.767935486569937e-07 -1.427483609985517e-08 0)
(9.966924821634833e-07 -1.405348917308925e-08 0)
(1.016855557082399e-06 -1.374712169272825e-08 0)
(1.037241830419085e-06 -1.334744528094165e-08 0)
(1.057815282862884e-06 -1.284668876905425e-08 0)
(1.078533419594515e-06 -1.223088977191425e-08 0)
(1.099342712944318e-06 -1.147838971617274e-08 0)
(1.120219127536165e-06 -1.05722581510733e-08 0)
(1.141037777047955e-06 -9.507993947783226e-09 0)
(7.713300428149278e-07 -2.207950283191826e-08 0)
(7.869219402206427e-07 -2.260941436509911e-08 0)
(8.031183346716893e-07 -2.307011009147004e-08 0)
(8.198586351917757e-07 -2.349379325797052e-08 0)
(8.371474628529636e-07 -2.383155015044324e-08 0)
(8.549409648298057e-07 -2.411569679930902e-08 0)
(8.731998166610833e-07 -2.431701177219188e-08 0)
(8.918656184231934e-07 -2.443592626001444e-08 0)
(9.109392457917503e-07 -2.447948474900179e-08 0)
(9.303695423466769e-07 -2.44239006986086e-08 0)
(9.501346269971885e-07 -2.427091545645041e-08 0)
(9.702078887400365e-07 -2.402341497941632e-08 0)
(9.905476004559184e-07 -2.365512627591505e-08 0)
(1.011116182553284e-06 -2.31423322925263e-08 0)
(1.031886572470039e-06 -2.247577768506775e-08 0)
(1.052839660396187e-06 -2.164446677119033e-08 0)
(1.07392960102102e-06 -2.062184355970523e-08 0)
(1.095119204382268e-06 -1.937694434934692e-08 0)
(1.116371395388248e-06 -1.787034438919122e-08 0)
(1.137580520552691e-06 -1.610180035517314e-08 0)
(7.494692859269783e-07 -3.26885196034619e-08 0)
(7.667860210512935e-07 -3.3155699665338e-08 0)
(7.845557960887382e-07 -3.355838269305687e-08 0)
(8.026973385297758e-07 -3.395534089431712e-08 0)
(8.212613920208059e-07 -3.42720718287179e-08 0)
(8.401839627535667e-07 -3.454471365102131e-08 0)
(8.594784090393338e-07 -3.47199730364177e-08 0)
(8.790956843216595e-07 -3.480777502227768e-08 0)
(8.990670561081098e-07 -3.481239194484284e-08 0)
(9.193318953851206e-07 -3.469519151820492e-08 0)
(9.398692946312931e-07 -3.444521487517132e-08 0)
(9.606538629696125e-07 -3.405773469824481e-08 0)
(9.816536731520151e-07 -3.350717807079433e-08 0)
(1.002846174357041e-06 -3.277242187748532e-08 0)
(1.024213211937914e-06 -3.184767199449796e-08 0)
(1.045735244320395e-06 -3.07019796075991e-08 0)
(1.06736712577111e-06 -2.930023702893901e-08 0)
(1.089095453121926e-06 -2.759390064351945e-08 0)
(1.110855275168963e-06 -2.551637012411091e-08 0)
(1.132604213178312e-06 -2.309556379988386e-08 0)
(7.213559656638998e-07 -4.491473921477757e-08 0)
(7.408805005744338e-07 -4.505005606673572e-08 0)
(7.606543850057534e-07 -4.518890423235952e-08 0)
(7.805454252305824e-07 -4.540789569293965e-08 0)
(8.007179270286066e-07 -4.556953686951596e-08 0)
(8.210961208000513e-07 -4.57278256408403e-08 0)
(8.41730473386756e-07 -4.580171597228341e-08 0)
(8.625893687149043e-07 -4.580195135296622e-08 0)
(8.836845139617671e-07 -4.570406072005347e-08 0)
(9.04985420369079e-07 -4.546199277672046e-08 0)
(9.264968903284903e-07 -4.507141347409973e-08 0)
(9.482052494737333e-07 -4.452263200464935e-08 0)
(9.700835862145958e-07 -4.3782157253394e-08 0)
(9.921105279822922e-07 -4.28216828559465e-08 0)
(1.014280432611893e-06 -4.16299467673839e-08 0)
(1.036551410286481e-06 -4.0163601242105e-08 0)
(1.058920534739014e-06 -3.838062281863007e-08 0)
(1.081343785026393e-06 -3.622344001973175e-08 0)
(1.1038150551345e-06 -3.360240258041857e-08 0)
(1.126257619580799e-06 -3.057039167920065e-08 0)
(6.877086767196083e-07 -5.908371339637622e-08 0)
(7.097687789219369e-07 -5.856030446798173e-08 0)
(7.319286478944675e-07 -5.81575185667639e-08 0)
(7.539398929837222e-07 -5.800033186293254e-08 0)
(7.760579863510841e-07 -5.785887697693237e-08 0)
(7.982101133080826e-07 -5.778326198538824e-08 0)
(8.204215230004048e-07 -5.763611020743392e-08 0)
(8.427597625421995e-07 -5.744180796745069e-08 0)
(8.652176947065625e-07 -5.716546158040718e-08 0)
(8.87794914217467e-07 -5.675104317810477e-08 0)
(9.10503011517708e-07 -5.618965053896976e-08 0)
(9.333310629465827e-07 -5.545988405444401e-08 0)
(9.562607540046729e-07 -5.451486678878166e-08 0)
(9.792775010840982e-07 -5.332198458476174e-08 0)
(1.002393158871939e-06 -5.18568776606961e-08 0)
(1.025568259340631e-06 -5.007591274681903e-08 0)
(1.048827847710971e-06 -4.792046136993599e-08 0)
(1.072094193640827e-06 -4.533681315219677e-08 0)
(1.095425946125275e-06 -4.221989676377334e-08 0)
(1.118708887798213e-06 -3.861091385019398e-08 0)
(6.494928349079824e-07 -7.528859823302396e-08 0)
(6.743572319361507e-07 -7.38180688578361e-08 0)
(6.991721146065245e-07 -7.262426910508914e-08 0)
(7.235442718112612e-07 -7.186843404832603e-08 0)
(7.478025153401441e-07 -7.122798999377781e-08 0)
(7.719242190583707e-07 -7.074894620058964e-08 0)
(7.959498526759149e-07 -7.027371004501468e-08 0)
(8.199624277799276e-07 -6.979788038516165e-08 0)
(8.439796959758968e-07 -6.927582662382289e-08 0)
(8.680235098115993e-07 -6.864572845199549e-08 0)
(8.921061851372129e-07 -6.787615310767528e-08 0)
(9.16220396544382e-07 -6.692997431681482e-08 0)
(9.403633344869496e-07 -6.575267926989128e-08 0)
(9.645398163726996e-07 -6.431231814408851e-08 0)
(9.887618461987913e-07 -6.257347949042264e-08 0)
(1.013007264841977e-06 -6.048842111492941e-08 0)
(1.037301759496343e-06 -5.798115212416458e-08 0)
(1.061576238160187e-06 -5.49939936500177e-08 0)
(1.085883665497716e-06 -5.14177990401112e-08 0)
(1.110132470938805e-06 -4.727648212174951e-08 0)
(6.075069785803969e-07 -9.367043400612123e-08 0)
(6.352860411071045e-07 -9.08211334132724e-08 0)
(6.629523445350389e-07 -8.851168360942764e-08 0)
(6.898826485444222e-07 -8.68933488136635e-08 0)
(7.165373637138817e-07 -8.559060061501672e-08 0)
(7.428028752549271e-07 -8.456055132289297e-08 0)
(7.688642217897242e-07 -8.365974848363483e-08 0)
(7.947382825065098e-07 -8.283021849855781e-08 0)
(8.204840553729198e-07 -8.200163068867338e-08 0)
(8.46137503415181e-07 -8.110582557923231e-08 0)
(8.717236986949474e-07 -8.009010374438617e-08 0)
(8.972544865463618e-07 -7.890227651490222e-08 0)
(9.227441427877012e-07 -7.748241180364057e-08 0)
(9.482183378884647e-07 -7.579383347664104e-08 0)
(9.736870606909499e-07 -7.379062682089864e-08 0)
(9.991420020509672e-07 -7.141331097849904e-08 0)
(1.024589370327284e-06 -6.857855738420303e-08 0)
(1.049998374392575e-06 -6.521377110405189e-08 0)
(1.07539882254106e-06 -6.12104507141697e-08 0)
(1.100728122903768e-06 -5.658236736576459e-08 0)
(5.62623308653698e-07 -1.141398526579761e-07 0)
(5.933733683376966e-07 -1.097032482119719e-07 0)
(6.239708732018998e-07 -1.06136737727523e-07 0)
(6.53570248662511e-07 -1.03411858035601e-07 0)
(6.827152410392268e-07 -1.012232824092456e-07 0)
(7.112952394456893e-07 -9.9444818947497e-08 0)
(7.395015706285432e-07 -9.794849926979076e-08 0)
(7.673679600126905e-07 -9.662714214586075e-08 0)
(7.949757514484241e-07 -9.539530181467823e-08 0)
(8.223701603195625e-07 -9.416107135727925e-08 0)
(8.495888116301523e-07 -9.284941603293565e-08 0)
(8.7666839477943e-07 -9.139306682228498e-08 0)
(9.036402602479855e-07 -8.97239830585688e-08 0)
(9.305406054351458e-07 -8.779315365749455e-08 0)
(9.573780898931651e-07 -8.55384628105072e-08 0)
(9.84156741119566e-07 -8.288143965022516e-08 0)
(1.010879141142199e-06 -7.973956189840661e-08 0)
(1.037526613858979e-06 -7.601926944513891e-08 0)
(1.064140954742815e-06 -7.162936984842257e-08 0)
(1.09067497893497e-06 -6.656378294185923e-08 0)
(5.158617768339418e-07 -1.365194914804397e-07 0)
(5.502567830899032e-07 -1.295044026534325e-07 0)
(5.839776465205425e-07 -1.24365203026234e-07 0)
(6.164400796011577e-07 -1.203856486369181e-07 0)
(6.480616573154551e-07 -1.172774844809907e-07 0)
(6.789870379938519e-07 -1.147471156927603e-07 0)
(7.093214376835248e-07 -1.126362414060725e-07 0)
(7.391821352269571e-07 -1.108021749532781e-07 0)
(7.686598869295983e-07 -1.091471343243912e-07 0)
(7.978133967705048e-07 -1.075580232303006e-07 0)
(8.266945054077152e-07 -1.059443547583518e-07 0)
(8.553562910395399e-07 -1.042251638623046e-07 0)
(8.838419320155863e-07 -1.02320225636564e-07 0)
(9.12192987886265e-07 -1.001669290116765e-07 0)
(9.404224521240167e-07 -9.768733059801075e-08 0)
(9.685476133939497e-07 -9.47874468605138e-08 0)
(9.965866790198817e-07 -9.139024741953312e-08 0)
(1.02452842751924e-06 -8.736250638077253e-08 0)
(1.05242564997541e-06 -8.26412571258443e-08 0)
(1.080252791121629e-06 -7.718175253275692e-08 0)
(4.790335051616846e-07 -1.60473675312802e-07 0)
(5.165990058598659e-07 -1.506708305118567e-07 0)
(5.526945206878267e-07 -1.439149657205762e-07 0)
(5.875296258562141e-07 -1.384909931779245e-07 0)
(6.212046338401853e-07 -1.342560747263838e-07 0)
(6.539797908171904e-07 -1.308120723605071e-07 0)
(6.859708866751099e-07 -1.279419605140581e-07 0)
(7.173417320028722e-07 -1.254782135979291e-07 0)
(7.481930670644397e-07 -1.23285389537921e-07 0)
(7.786034308009737e-07 -1.212282864516261e-07 0)
(8.086476357084373e-07 -1.192060312680192e-07 0)
(8.383943169417916e-07 -1.171284295159618e-07 0)
(8.67895839103276e-07 -1.149038848605345e-07 0)
(8.971975047868297e-07 -1.124597293308315e-07 0)
(9.263143882928143e-07 -1.097080115926944e-07 0)
(9.552831255938919e-07 -1.065380254800122e-07 0)
(9.841207521829895e-07 -1.028922402972871e-07 0)
(1.012858158638259e-06 -9.859840377193154e-08 0)
(1.041535473408032e-06 -9.36026970596414e-08 0)
(1.070133815618746e-06 -8.781952112728668e-08 0)
(4.592551383692549e-07 -1.810570988261794e-07 0)
(4.973597778642305e-07 -1.70848380104562e-07 0)
(5.338985799645578e-07 -1.631121700117479e-07 0)
(5.69478250143954e-07 -1.567347597711313e-07 0)
(6.039721675464231e-07 -1.515804114878255e-07 0)
(6.375665533331007e-07 -1.473094671625928e-07 0)
(6.70364317094832e-07 -1.437034400001188e-07 0)
(7.02490128915618e-07 -1.405873639067471e-07 0)
(7.340298534634557e-07 -1.378029107396185e-07 0)
(7.650661461944995e-07 -1.352112198786611e-07 0)
(7.95680754581416e-07 -1.327108159439359e-07 0)
(8.259434745672067e-07 -1.302028761151319e-07 0)
(8.559057486848952e-07 -1.275869851117758e-07 0)
(8.856135057039902e-07 -1.247863919259258e-07 0)
(9.15084782832749e-07 -1.217085536198385e-07 0)
(9.443809091269333e-07 -1.182326013498608e-07 0)
(9.734971109298024e-07 -1.143205221044851e-07 0)
(1.002503172204534e-06 -1.097843656620945e-07 0)
(1.031421511349043e-06 -1.04555259182395e-07 0)
(1.0602292906326e-06 -9.853226804174924e-08 0)
(4.435769880820728e-07 -2.001310184037767e-07 0)
(4.812689989724577e-07 -1.8988215813188e-07 0)
(5.179059556985565e-07 -1.816984622256281e-07 0)
(5.537632422217223e-07 -1.747424838491623e-07 0)
(5.886843431355111e-07 -1.68922918065348e-07 0)
(6.227733914335977e-07 -1.639760540420113e-07 0)
(6.560973457388698e-07 -1.597244783305049e-07 0)
(6.88734536476388e-07 -1.559964456554469e-07 0)
(7.207606893725426e-07 -1.526387413297884e-07 0)
(7.522543397488549e-07 -1.495218171259188e-07 0)
(7.832926459704885e-07 -1.465458676630946e-07 0)
(8.139408707221604e-07 -1.436043181091214e-07 0)
(8.442480379280828e-07 -1.405913047939657e-07 0)
(8.742619825200639e-07 -1.374329285363906e-07 0)
(9.040030033268158e-07 -1.340347104263681e-07 0)
(9.335471887360979e-07 -1.302708200837642e-07 0)
(9.628878480275985e-07 -1.261076897502282e-07 0)
(9.921029150082254e-07 -1.213622666076754e-07 0)
(1.021200771786459e-06 -1.159445040300308e-07 0)
(1.050190971752881e-06 -1.097619512580349e-07 0)
(4.301408823766956e-07 -2.18721126499633e-07 0)
(4.673539294820194e-07 -2.085770393096582e-07 0)
(5.037671553547298e-07 -2.000982510341203e-07 0)
(5.396096146703215e-07 -1.926733602810019e-07 0)
(5.746478988429351e-07 -1.862842880296851e-07 0)
(6.089797771084571e-07 -1.807414595721896e-07 0)
(6.426029647201856e-07 -1.758977278864017e-07 0)
(6.75570437376387e-07 -1.71592803280643e-07 0)
(7.079416726653334e-07 -1.676874371565727e-07 0)
(7.397801814459099e-07 -1.640637313726075e-07 0)
(7.711501826997047e-07 -1.606255303157802e-07 0)
(8.021085504855213e-07 -1.572602884510875e-07 0)
(8.327016883738578e-07 -1.538599519681169e-07 0)
(8.629780867662463e-07 -1.503573861562851e-07 0)
(8.92961308213043e-07 -1.466510650943686e-07 0)
(9.227253572615628e-07 -1.426242192622983e-07 0)
(9.522733207438415e-07 -1.382336936540874e-07 0)
(9.816838138433271e-07 -1.33307805194826e-07 0)
(1.010944685125734e-06 -1.277503343407699e-07 0)
(1.040133537409828e-06 -1.214876279824263e-07 0)
(4.186479469240297e-07 -2.364201930823683e-07 0)
(4.552784223863735e-07 -2.264966304098519e-07 0)
(4.913236528111164e-07 -2.179309719685095e-07 0)
(5.269521684277278e-07 -2.102371246336958e-07 0)
(5.619292016153269e-07 -2.034451867478643e-07 0)
(5.963147474793884e-07 -1.974385721359867e-07 0)
(6.300619883812136e-07 -1.920923621768315e-07 0)
(6.632096364342044e-07 -1.872773804020903e-07 0)
(6.957976490001262e-07 -1.828735999149241e-07 0)
(7.27871428380774e-07 -1.787777951816931e-07 0)
(7.594802812090872e-07 -1.749009922771955e-07 0)
(7.906696322230066e-07 -1.711291413244606e-07 0)
(8.214834105614516e-07 -1.673572054218826e-07 0)
(8.519685813234828e-07 -1.635293360919776e-07 0)
(8.821497112702509e-07 -1.595322352785689e-07 0)
(9.120998059367786e-07 -1.552694483178695e-07 0)
(9.418226151529592e-07 -1.506781340711621e-07 0)
(9.713983767894548e-07 -1.456021037127837e-07 0)
(1.000816112883393e-06 -1.39955499990058e-07 0)
(1.030200080873682e-06 -1.336800456650105e-07 0)
(4.086540637193713e-07 -2.535069455488886e-07 0)
(4.446972706932056e-07 -2.438358489877621e-07 0)
(4.803275989614942e-07 -2.352685428251471e-07 0)
(5.156254877959929e-07 -2.274091610529793e-07 0)
(5.504259731755486e-07 -2.203293674110425e-07 0)
(5.847218031686368e-07 -2.139534749192223e-07 0)
(6.18464091712888e-07 -2.081870138255342e-07 0)
(6.516750391214461e-07 -2.029338993665004e-07 0)
(6.84373543342376e-07 -1.980892800420984e-07 0)
(7.165865192616558e-07 -1.935661280717641e-07 0)
(7.483497753842669e-07 -1.89285302009689e-07 0)
(7.796966395736332e-07 -1.851349955630645e-07 0)
(8.106687232328556e-07 -1.810176978919251e-07 0)
(8.413101335226774e-07 -1.768896727284541e-07 0)
(8.716422981123395e-07 -1.726234939923061e-07 0)
(9.017381900393529e-07 -1.681527664472919e-07 0)
(9.316034959327069e-07 -1.633924279923386e-07 0)
(9.613135174937336e-07 -1.582046579507327e-07 0)
(9.908911545355745e-07 -1.525198390429137e-07 0)
(1.020437197854669e-06 -1.462787518629992e-07 0)
(3.999278023461107e-07 -2.699937122572036e-07 0)
(4.35400206205746e-07 -2.605950919239583e-07 0)
(4.705755982254434e-07 -2.520955343286124e-07 0)
(5.055005390953327e-07 -2.441598708671654e-07 0)
(5.400376247301275e-07 -2.368888948563132e-07 0)
(5.741489801806216e-07 -2.302284409428901e-07 0)
(6.077931761379497e-07 -2.241243381091505e-07 0)
(6.409730905907883e-07 -2.185047383306435e-07 0)
(6.736890741140144e-07 -2.132769648349565e-07 0)
(7.059535528393813e-07 -2.083728209334468e-07 0)
(7.377917963182553e-07 -2.037254851106558e-07 0)
(7.692261941248235e-07 -1.992281357117408e-07 0)
(8.002957993097891e-07 -1.947950961674196e-07 0)
(8.310393000500537e-07 -1.903962675949862e-07 0)
(8.614790357126092e-07 -1.858894842255136e-07 0)
(8.916808111369647e-07 -1.812367858213935e-07 0)
(9.216563410296629e-07 -1.763398686869963e-07 0)
(9.514791986114579e-07 -1.71082191678091e-07 0)
(9.812017468327797e-07 -1.654007051937289e-07 0)
(1.010862044780992e-06 -1.592284050739954e-07 0)
(3.922567299589175e-07 -2.85974422794545e-07 0)
(4.272015892853325e-07 -2.768418028680521e-07 0)
(4.619016203903574e-07 -2.684431664520931e-07 0)
(4.964331161744117e-07 -2.604902924502612e-07 0)
(5.306434499677746e-07 -2.530905561059204e-07 0)
(5.64509075336677e-07 -2.462170320934128e-07 0)
(5.979830394528084e-07 -2.398477909599135e-07 0)
(6.310534659995528e-07 -2.339260765763498e-07 0)
(6.637070453229049e-07 -2.283704966636877e-07 0)
(6.959487956554986e-07 -2.231333892681353e-07 0)
(7.277957792227888e-07 -2.181616753044913e-07 0)
(7.592608703388319e-07 -2.133547457291881e-07 0)
(7.903802912028899e-07 -2.086395955347858e-07 0)
(8.211832350506283e-07 -2.039991404551335e-07 0)
(8.516953119889893e-07 -1.992852391739813e-07 0)
(8.819763139971596e-07 -1.944782565168441e-07 0)
(9.120406599468665e-07 -1.894806398337917e-07 0)
(9.419678607246653e-07 -1.84192406880848e-07 0)
(9.717940739360317e-07 -1.785465504739923e-07 0)
(1.001552302459455e-06 -1.724806533040383e-07 0)
(3.854533730601674e-07 -3.015030582953628e-07 0)
(4.198848730813384e-07 -2.926233983878383e-07 0)
(4.541258330347113e-07 -2.843405804360962e-07 0)
(4.882439105446793e-07 -2.764062038721102e-07 0)
(5.221025063178037e-07 -2.689246578223976e-07 0)
(5.556882817809857e-07 -2.618994738172048e-07 0)
(5.889440972814451e-07 -2.553251527689356e-07 0)
(6.218520475564553e-07 -2.491570470919367e-07 0)
(6.543885865645707e-07 -2.433260758652087e-07 0)
(6.865581597977147e-07 -2.37804704573206e-07 0)
(7.183691574675382e-07 -2.325526185550955e-07 0)
(7.498260962223805e-07 -2.274761693840851e-07 0)
(7.809612121541325e-07 -2.225167114635169e-07 0)
(8.117944761938872e-07 -2.176666783439875e-07 0)
(8.423531242649148e-07 -2.127783916456681e-07 0)
(8.726920919537851e-07 -2.078548681114459e-07 0)
(9.028309034792732e-07 -2.027865830093054e-07 0)
(9.328473274178134e-07 -1.974958592093366e-07 0)
(9.627339158464199e-07 -1.919134704044738e-07 0)
(9.926035982781776e-07 -1.859969132728588e-07 0)
(3.79366474019735e-07 -3.166303286570689e-07 0)
(4.132964720849367e-07 -3.079885977080337e-07 0)
(4.471013655194331e-07 -2.998263682328835e-07 0)
(4.80802574625963e-07 -2.919293465572779e-07 0)
(5.143121793669129e-07 -2.844064260701109e-07 0)
(5.476030414953273e-07 -2.772773335085758e-07 0)
(5.806154244111286e-07 -2.705455260765857e-07 0)
(6.133323015589843e-07 -2.641783095706009e-07 0)
(6.4571986734049e-07 -2.581199128809972e-07 0)
(6.77786291966166e-07 -2.523603667084869e-07 0)
(7.095289309213013e-07 -2.468704947203248e-07 0)
(7.409480250593877e-07 -2.415623649595917e-07 0)
(7.720690481938581e-07 -2.363937907168725e-07 0)
(8.029085179201451e-07 -2.313642819059178e-07 0)
(8.334805813786948e-07 -2.263376023620119e-07 0)
(8.63869178210132e-07 -2.213125632670431e-07 0)
(8.940646061381674e-07 -2.162121975163513e-07 0)
(9.241216692238175e-07 -2.109450099278206e-07 0)