/*--------------------------------*- C++ -*----------------------------------*\
| =========                 |                                                 |
| \\      /  F ield         | foam-extend: Open Source CFD                    |
|  \\    /   O peration     | Version:     4.1                                |
|   \\  /    A nd           | Web:         http://www.foam-extend.org         |
|    \\/     M anipulation  |                                                 |
\*---------------------------------------------------------------------------*/
FoamFile
{
    version     2.0;
    format      ascii;
    class       vectorField;
    location    "1";
    object      solidsCellD_iteration15;
}
// * * * * * * * * * * * * * * * * * * * * * * * * * * * * * * * * * * * * * //


1000
(
(4.580178890334959e-07 -1.528105585021504e-07 0)
(4.360466412826432e-07 -1.442114069510808e-07 0)
(4.22813964536116e-07 -1.396265906299006e-07 0)
(4.159162710458234e-07 -1.386967172533248e-07 0)
(4.135567917691308e-07 -1.399927378665862e-07 0)
(4.145183045601428e-07 -1.429405302860761e-07 0)
(4.179738710300898e-07 -1.470282693541376e-07 0)
(4.231476006003987e-07 -1.520213480974537e-07 0)
(4.299853265934412e-07 -1.575555626948987e-07 0)
(4.371832236188969e-07 -1.633827554372595e-07 0)
(4.146324139834543e-07 -1.671580201837489e-07 0)
(3.913245299023432e-07 -1.621671453766769e-07 0)
(3.77151450954055e-07 -1.599050733772141e-07 0)
(3.695014774762023e-07 -1.605648906800906e-07 0)
(3.664222736981955e-07 -1.629515149102293e-07 0)
(3.666868924232833e-07 -1.666658974647066e-07 0)
(3.694306889197893e-07 -1.712621750507324e-07 0)
(3.739025240657947e-07 -1.766659261559305e-07 0)
(3.799361497553025e-07 -1.823920070706273e-07 0)
(3.863987564082525e-07 -1.8866950496506e-07 0)
(3.694330110476606e-07 -1.807388804302454e-07 0)
(3.456339939859653e-07 -1.797659555742457e-07 0)
(3.310247006429578e-07 -1.800899652553169e-07 0)
(3.229954149107373e-07 -1.824579281998557e-07 0)
(3.195264453273735e-07 -1.859833343920198e-07 0)
(3.193295180389549e-07 -1.904596839071828e-07 0)
(3.21559829019437e-07 -1.955712751314799e-07 0)
(3.255199366720046e-07 -2.013153191557615e-07 0)
(3.309695562274916e-07 -2.072495739984331e-07 0)
(3.370137392000945e-07 -2.136121282789052e-07 0)
(3.226608822986941e-07 -1.932988563641122e-07 0)
(2.994759999532617e-07 -1.96481730596618e-07 0)
(2.851187080272782e-07 -1.994948606571678e-07 0)
(2.770833663364624e-07 -2.036203726763149e-07 0)
(2.734710541756902e-07 -2.082945829108254e-07 0)
(2.729892533410412e-07 -2.13516852924802e-07 0)
(2.747557655890212e-07 -2.19112484787941e-07 0)
(2.782416006952303e-07 -2.251620918314945e-07 0)
(2.831046198654444e-07 -2.313005485955268e-07 0)
(2.886664389824629e-07 -2.377967884678598e-07 0)
(2.748391506019206e-07 -2.045667667715063e-07 0)
(2.53117574481814e-07 -2.118588356476922e-07 0)
(2.3961796492306e-07 -2.175022083804665e-07 0)
(2.32038620365833e-07 -2.233398668140049e-07 0)
(2.285274224835927e-07 -2.291256873360716e-07 0)
(2.278468947724479e-07 -2.350935389510427e-07 0)
(2.292395142356779e-07 -2.411807530198943e-07 0)
(2.322523365259066e-07 -2.475349712655052e-07 0)
(2.365351749745635e-07 -2.539085795382596e-07 0)
(2.414790320091939e-07 -2.60537031812989e-07 0)
(2.259422278715212e-07 -2.143806526562577e-07 0)
(2.067554008123275e-07 -2.25499994357884e-07 0)
(1.948084047294952e-07 -2.33601023026511e-07 0)
(1.879984874832706e-07 -2.410452496997545e-07 0)
(1.84754399286786e-07 -2.478718637135939e-07 0)
(1.839920400479506e-07 -2.545187524093872e-07 0)
(1.851069244916694e-07 -2.610534492078593e-07 0)
(1.876444242235965e-07 -2.676820012064315e-07 0)
(1.912663701983183e-07 -2.742949106689511e-07 0)
(1.954577480921992e-07 -2.810908037381204e-07 0)
(1.764404839110321e-07 -2.224639757446986e-07 0)
(1.605342421791563e-07 -2.369277426525644e-07 0)
(1.506104324700162e-07 -2.471963516622133e-07 0)
(1.449068543065183e-07 -2.560715424148449e-07 0)
(1.421645234670872e-07 -2.638059951243417e-07 0)
(1.414765042981132e-07 -2.710426901422899e-07 0)
(1.423406307953316e-07 -2.779674072870762e-07 0)
(1.443504408885529e-07 -2.8484552395796e-07 0)
(1.472235180636365e-07 -2.916743896378097e-07 0)
(1.505590087717245e-07 -2.986141590678729e-07 0)
(1.264066701245257e-07 -2.28706886955492e-07 0)
(1.144594151423276e-07 -2.458649653991669e-07 0)
(1.070231489141036e-07 -2.578451407588799e-07 0)
(1.027583857398336e-07 -2.678364404477267e-07 0)
(1.007078111665095e-07 -2.763077503006817e-07 0)
(1.001694428831088e-07 -2.840349687700092e-07 0)
(1.007599429525679e-07 -2.913044982081931e-07 0)
(1.021884487981303e-07 -2.98392359488528e-07 0)
(1.042616837196324e-07 -3.054051229989672e-07 0)
(1.066835666477907e-07 -3.124736455890326e-07 0)
(7.598353916682472e-08 -2.329528246605008e-07 0)
(6.858844983698015e-08 -2.519694372580363e-07 0)
(6.402684687433686e-08 -2.651316622229461e-07 0)
(6.137471295955026e-08 -2.759359312992686e-07 0)
(6.006039744605073e-08 -2.849213924524324e-07 0)
(5.968900267614935e-08 -2.929730907984728e-07 0)
(6.00582655250168e-08 -3.004925663434854e-07 0)
(6.095202631989306e-08 -3.077637480321273e-07 0)
(6.220369268426384e-08 -3.149210454250398e-07 0)
(6.366259955351845e-08 -3.22085131574333e-07 0)
(2.538062503749858e-08 -2.350957118296652e-07 0)
(2.289484431678381e-08 -2.550976270175584e-07 0)
(2.129960692905396e-08 -2.688533276819622e-07 0)
(2.038842306932988e-08 -2.800469644133859e-07 0)
(1.998494467488906e-08 -2.892989728725663e-07 0)
(1.986133568185228e-08 -2.975367369313214e-07 0)
(1.994112936929316e-08 -3.051521211995617e-07 0)
(2.02312171794977e-08 -3.124888349105752e-07 0)
(2.066867938870927e-08 -3.19728688905951e-07 0)
(2.11576971504954e-08 -3.269577634765588e-07 0)
(7.072344448389241e-07 -6.869285833310487e-09 0)
(7.12449305782037e-07 -4.955082990255996e-09 0)
(7.16472025677156e-07 -3.792259182116209e-09 0)
(7.212015229335782e-07 -3.161238676398107e-09 0)
(7.268831672516026e-07 -2.863050180859649e-09 0)
(7.337500478870703e-07 -2.806966716001971e-09 0)
(7.419154909703556e-07 -2.941668823727015e-09 0)
(7.512687994768107e-07 -3.150819857327811e-09 0)
(7.618777082461265e-07 -3.445992678091305e-09 0)
(7.735538987768737e-07 -3.816485391788635e-09 0)
(7.021504610596709e-07 -2.067079852943313e-08 0)
(7.064935010909294e-07 -1.503978158660159e-08 0)
(7.09977586125804e-07 -1.156618483299409e-08 0)
(7.143067955335598e-07 -9.730768288956702e-09 0)
(7.197072849317337e-07 -8.954999612043933e-09 0)
(7.263577281899954e-07 -8.784483659138528e-09 0)
(7.343956011832401e-07 -9.122659220901748e-09 0)
(7.436483965974658e-07 -9.816517760629098e-09 0)
(7.541307504764248e-07 -1.07525458262457e-08 0)
(7.657240288103149e-07 -1.180667805346836e-08 0)
(6.920817253953881e-07 -3.455123243273909e-08 0)
(6.946885458882062e-07 -2.557121891661215e-08 0)
(6.970933301397462e-07 -2.005566684016088e-08 0)
(7.007045368963815e-07 -1.704487322568827e-08 0)
(7.056210669542984e-07 -1.576425468806895e-08 0)
(7.119562995567922e-07 -1.55908531639864e-08 0)
(7.196922835567706e-07 -1.62125529444093e-08 0)
(7.287744903786953e-07 -1.734420018867448e-08 0)
(7.390208971316381e-07 -1.887790212169895e-08 0)
(7.504441199728128e-07 -2.063191738395185e-08 0)
(6.771391754423392e-07 -4.866461966031274e-08 0)
(6.772774118418603e-07 -3.679134360999028e-08 0)
(6.781000197932471e-07 -2.959639747700981e-08 0)
(6.806944003040783e-07 -2.571004976820437e-08 0)
(6.849046291957548e-07 -2.405136213989724e-08 0)
(6.907941402103366e-07 -2.385298728992675e-08 0)
(6.981497879410979e-07 -2.472355214414904e-08 0)
(7.069766744446129e-07 -2.628764244094987e-08 0)
(7.169165094281203e-07 -2.838066267202049e-08 0)
(7.281208718660809e-07 -3.07989602803378e-08 0)
(6.574889496203813e-07 -6.302606015204383e-08 0)
(6.546311953550835e-07 -4.891960163147295e-08 0)
(6.534990172332618e-07 -4.04442638791741e-08 0)
(6.548100928955738e-07 -3.59526793231927e-08 0)
(6.581624639529119e-07 -3.40979263338467e-08 0)
(6.634606064248931e-07 -3.397617067849941e-08 0)
(6.703511618559333e-07 -3.511754254047002e-08 0)
(6.788291441844689e-07 -3.71019934523593e-08 0)
(6.884187557855258e-07 -3.971676625720187e-08 0)
(6.993917275413744e-07 -4.273594622908694e-08 0)
(6.333499763086847e-07 -7.770067028957837e-08 0)
(6.27095645995283e-07 -6.21852250786216e-08 0)
(6.238158467522536e-07 -5.291203406466885e-08 0)
(6.237064920743855e-07 -4.811849025781326e-08 0)
(6.260830987143657e-07 -4.62573504884571e-08 0)
(6.306951702556195e-07 -4.630817899945612e-08 0)
(6.37093504243528e-07 -4.774881326957003e-08 0)
(6.451766598999601e-07 -5.01286335768904e-08 0)
(6.54384211451658e-07 -5.323875048446482e-08 0)
(6.650780288274526e-07 -5.679254046495958e-08 0)
(6.051268088628325e-07 -9.262985289217609e-08 0)
(5.952315602402435e-07 -7.665720162739549e-08 0)
(5.896418394434979e-07 -6.715164565521429e-08 0)
(5.880354689411144e-07 -6.237974453390535e-08 0)
(5.893905329748557e-07 -6.069057557711981e-08 0)
(5.933010903555091e-07 -6.102505324304108e-08 0)
(5.99187078137015e-07 -6.280498849410224e-08 0)
(6.068592839925853e-07 -6.553154951434689e-08 0)
(6.15682590949498e-07 -6.906268462654243e-08 0)
(6.260925110756135e-07 -7.303858569697267e-08 0)
(5.730721744996023e-07 -1.077123860333288e-07 0)
(5.595945819207302e-07 -9.227107749224479e-08 0)
(5.517516232858904e-07 -8.314751778103504e-08 0)
(5.486461348181871e-07 -7.879207152345871e-08 0)
(5.490297856310371e-07 -7.749623352521587e-08 0)
(5.52240012972422e-07 -7.825198830569953e-08 0)
(5.576019954822979e-07 -8.044312845041627e-08 0)
(5.648428416043814e-07 -8.352594174357678e-08 0)
(5.732938991086405e-07 -8.743364926586921e-08 0)
(5.833442570998856e-07 -9.172186148316487e-08 0)
(5.376005816784438e-07 -1.228803702629236e-07 0)
(5.207926419705166e-07 -1.088832181237277e-07 0)
(5.108287043549628e-07 -1.007711341824979e-07 0)
(5.062823125866179e-07 -9.721171427385862e-08 0)
(5.056980062954367e-07 -9.653589535541266e-08 0)
(5.08136356716803e-07 -9.782997191875185e-08 0)
(5.129165073278478e-07 -1.004901457766216e-07 0)
(5.196561583628546e-07 -1.03940451189674e-07 0)
(5.277586824727606e-07 -1.081743950611739e-07 0)
(5.374047969644182e-07 -1.125296161943723e-07 0)
(4.991254147189519e-07 -1.379927255129023e-07 0)
(4.794851773043814e-07 -1.262941302340085e-07 0)
(4.676761397372899e-07 -1.197177208331809e-07 0)
(4.618646618197081e-07 -1.173290799674529e-07 0)
(4.603776219844809e-07 -1.175287007739627e-07 0)
(4.621526816452226e-07 -1.195323591588048e-07 0)
(4.664975177487673e-07 -1.228168229470775e-07 0)
(4.727532790975082e-07 -1.268569845420744e-07 0)
(4.806559758961049e-07 -1.315595565894491e-07 0)
(4.895579569475732e-07 -1.364356103672797e-07 0)
(7.862910640954682e-07 -4.149893478924524e-09 0)
(8.000939405648474e-07 -4.310087260340567e-09 0)
(8.14705201260586e-07 -4.441116629261734e-09 0)
(8.300603177924732e-07 -4.554631546798062e-09 0)
(8.460844986569359e-07 -4.657858008837628e-09 0)
(8.627515925649293e-07 -4.745935906081267e-09 0)
(8.799746894440593e-07 -4.791474121266715e-09 0)
(8.97681503442814e-07 -4.814857475586519e-09 0)
(9.158720931250473e-07 -4.842590130097408e-09 0)
(9.345170977323685e-07 -4.859689375922916e-09 0)
(9.535499306482047e-07 -4.851120017775296e-09 0)
(9.729307631092075e-07 -4.813555956721651e-09 0)
(9.926202303166857e-07 -4.745094335130932e-09 0)
(1.01258095774092e-06 -4.649694426311751e-09 0)
(1.032780810103742e-06 -4.531350119341945e-09 0)
(1.05318910604768e-06 -4.385774607064709e-09 0)
(1.073764586335772e-06 -4.203992198945628e-09 0)
(1.094467086154069e-06 -3.974923283287477e-09 0)
(1.115244056801821e-06 -3.696937445721718e-09 0)
(1.136026218038888e-06 -3.368937974683923e-09 0)
(7.7877875615071e-07 -1.273226228946253e-08 0)
(7.931824597041514e-07 -1.316087067823499e-08 0)
(8.083303948783368e-07 -1.353446025396618e-08 0)
(8.241810346596889e-07 -1.385806395750833e-08 0)
(8.406539098378292e-07 -1.410490720421003e-08 0)
(8.57696108030826e-07 -1.430906406830648e-08 0)
(8.752714071294497e-07 -1.446604875612284e-08 0)
(8.933319708199058e-07 -1.458581483358604e-08 0)
(9.118506474024467e-07 -1.466718611330816e-08 0)
(9.307726653401595e-07 -1.467616774731569e-08 0)
(9.500532310987949e-07 -1.461252322503307e-08 0)
(9.696753671847223e-07 -1.448957784491025e-08 0)
(9.896090559288434e-07 -1.429935948869556e-08 0)
(1.009811401765413e-06 -1.40294054785266e-08 0)
(1.030243015006205e-06 -1.367077657361282e-08 0)
(1.050872034014349e-06 -1.321524347890299e-08 0)
(1.071656810681239e-06 -1.264941911866918e-08 0)
(1.092546986756908e-06 -1.195439025244823e-08 0)
(1.113519289187152e-06 -1.111696797849755e-08 0)
(1.134448907605387e-06 -1.013193834758081e-08 0)
(7.641229117506302e-07 -2.209172289998727e-08 0)
(7.797359419658886e-07 -2.266899480182179e-08 0)
(7.959473353305327e-07 -2.316077977487372e-08 0)
(8.126929115640957e-07 -2.360774729870557e-08 0)
(8.299921474883475e-07 -2.396607696460506e-08 0)
(8.478159261247054e-07 -2.427198854821735e-08 0)
(8.661125443553476e-07 -2.449797047861504e-08 0)
(8.848028415127734e-07 -2.46452047002868e-08 0)
(9.038958983121193e-07 -2.471814614157529e-08 0)
(9.233447773750165e-07 -2.469235261314572e-08 0)
(9.431298488811999e-07 -2.457621999571657e-08 0)
(9.632294854660956e-07 -2.437486286180937e-08 0)
(9.836003226008645e-07 -2.405970190471887e-08 0)
(1.004200775341362e-06 -2.360572674796879e-08 0)
(1.025006366650109e-06 -2.300444485214037e-08 0)
(1.0460069149481e-06 -2.224638858510558e-08 0)
(1.067163040953201e-06 -2.13069076012863e-08 0)
(1.088441068635703e-06 -2.015853640752581e-08 0)
(1.10979855500159e-06 -1.876906191103633e-08 0)
(1.131130906628569e-06 -1.713327330170047e-08 0)
(7.426813993082362e-07 -3.263893381687381e-08 0)
(7.59972156347097e-07 -3.317575075311796e-08 0)
(7.777197295844903e-07 -3.362476580194945e-08 0)
(7.958441111354052e-07 -3.406067069310601e-08 0)
(8.144040972748046e-07 -3.441618725076293e-08 0)
(8.333374321130723e-07 -3.472857260472315e-08 0)
(8.526497047228122e-07 -3.494432843660566e-08 0)
(8.722734942898884e-07 -3.50753968967482e-08 0)
(8.922590456736543e-07 -3.512267742057033e-08 0)
(9.125446418237337e-07 -3.505075460018793e-08 0)
(9.331025473108042e-07 -3.485593834383223e-08 0)
(9.539082390604796e-07 -3.453364625928328e-08 0)
(9.74930585152391e-07 -3.405508697025341e-08 0)
(9.961485711237515e-07 -3.339972391247697e-08 0)
(1.017547942257405e-06 -3.256481699181318e-08 0)
(1.039114982169857e-06 -3.152124698804585e-08 0)
(1.060812760585439e-06 -3.023668677086602e-08 0)
(1.082627155004891e-06 -2.866564010853106e-08 0)
(1.104480988348198e-06 -2.67514610291362e-08 0)
(1.126344842200375e-06 -2.451660031557773e-08 0)
(7.151060099902885e-07 -4.473330288000661e-08 0)
(7.345646062927853e-07 -4.49690909104144e-08 0)
(7.542775831464161e-07 -4.518214334823543e-08 0)
(7.741114978896366e-07 -4.546620334065447e-08 0)
(7.942474032599274e-07 -4.568992260043256e-08 0)
(8.146076425518229e-07 -4.59078702778947e-08 0)
(8.352390903557258e-07 -4.603779407186026e-08 0)
(8.560928955958706e-07 -4.609850217322831e-08 0)
(8.771874070978167e-07 -4.606007659321352e-08 0)
(8.984913925053405e-07 -4.588063575461698e-08 0)
(9.200108788423563e-07 -4.556361555173099e-08 0)
(9.417357030457847e-07 -4.509928715792388e-08 0)
(9.636364101969874e-07 -4.445081656193459e-08 0)
(9.856899869719265e-07 -4.359147010458957e-08 0)
(1.00789443624563e-06 -4.25142723320242e-08 0)
(1.030211063993259e-06 -4.117819196818114e-08 0)
(1.052643503568277e-06 -3.954590810589983e-08 0)
(1.075143826557433e-06 -3.756401507158181e-08 0)
(1.097703940629676e-06 -3.515181511633595e-08 0)
(1.120249270423555e-06 -3.236025516312641e-08 0)
(6.820877619945668e-07 -5.869185511215178e-08 0)
(7.040221979885215e-07 -5.830660796188611e-08 0)
(7.260776916671787e-07 -5.80132697631527e-08 0)
(7.480032243805775e-07 -5.795472121762917e-08 0)
(7.700649745716687e-07 -5.790476030667933e-08 0)
(7.921823725376413e-07 -5.791615158756675e-08 0)
(8.143546923293465e-07 -5.784845383737721e-08 0)
(8.366648657755316e-07 -5.77332361991264e-08 0)
(8.591088349985755e-07 -5.753624519448861e-08 0)
(8.816791825145227e-07 -5.720651980425377e-08 0)
(9.043886561691883e-07 -5.674077296511296e-08 0)
(9.272286593723254e-07 -5.611628626998796e-08 0)
(9.501761159858978e-07 -5.528338651572535e-08 0)
(9.732116167657382e-07 -5.421259761091839e-08 0)
(9.963512531301316e-07 -5.2885150980369e-08 0)
(1.019564539078444e-06 -5.1261674090335e-08 0)
(1.042880498008882e-06 -4.928922528129252e-08 0)
(1.066211630265882e-06 -4.692073301749032e-08 0)
(1.089625334077354e-06 -4.405843363828288e-08 0)
(1.113004080031948e-06 -4.074297050836164e-08 0)
(6.445856941530235e-07 -7.459946883180206e-08 0)
(6.692763942710622e-07 -7.331005989564993e-08 0)
(6.939423307356331e-07 -7.226916847912462e-08 0)
(7.181932223672967e-07 -7.165312213547538e-08 0)
(7.423524914844333e-07 -7.114057876674073e-08 0)
(7.664122505825571e-07 -7.077699078291437e-08 0)
(7.903682604727898e-07 -7.041260819440663e-08 0)
(8.14324072948441e-07 -7.004290849086438e-08 0)
(8.383080120842846e-07 -6.962635632720988e-08 0)
(8.623381791303074e-07 -6.910655840647835e-08 0)
(8.864206783885943e-07 -6.845629220381246e-08 0)
(9.105412405079599e-07 -6.763665380967303e-08 0)
(9.346913693804437e-07 -6.659186862513466e-08 0)
(9.588754904906638e-07 -6.529503597987603e-08 0)
(9.831114577914633e-07 -6.371757240641713e-08 0)
(1.007387731044387e-06 -6.181847922137125e-08 0)
(1.031731771646969e-06 -5.952735134760947e-08 0)
(1.056067774213915e-06 -5.679404809692488e-08 0)
(1.080447807037611e-06 -5.351614383536105e-08 0)
(1.104784942283548e-06 -4.971740689533226e-08 0)
(6.033508917025192e-07 -9.260135648683858e-08 0)
(6.309027244856864e-07 -8.998280933496109e-08 0)
(6.583683962956218e-07 -8.788082426970749e-08 0)
(6.851391733100149e-07 -8.645075516941663e-08 0)
(7.116636254747422e-07 -8.532004173018629e-08 0)
(7.378259988893748e-07 -8.444308164167235e-08 0)
(7.638025342797531e-07 -8.368574196488277e-08 0)
(7.896105524360979e-07 -8.29927936647682e-08 0)
(8.153114791740717e-07 -8.229906375383536e-08 0)
(8.409406373377997e-07 -8.154053492936244e-08 0)
(8.665149951786201e-07 -8.066770770332509e-08 0)
(8.920380657725128e-07 -7.962776330805771e-08 0)
(9.175205683638563e-07 -7.836197984430692e-08 0)
(9.429919648265668e-07 -7.684018969967251e-08 0)
(9.684699981789198e-07 -7.5023989022495e-08 0)
(9.939541847748382e-07 -7.286206232621009e-08 0)
(1.019445067073174e-06 -7.027559200542758e-08 0)
(1.044914806995103e-06 -6.720144775046448e-08 0)
(1.070384706976724e-06 -6.353509949286628e-08 0)
(1.095796469295448e-06 -5.929140008991946e-08 0)
(5.592229925501712e-07 -1.126044118718223e-07 0)
(5.897188449628238e-07 -1.084504328154216e-07 0)
(6.200923964845599e-07 -1.051455544975844e-07 0)
(6.495017655192867e-07 -1.026628613906983e-07 0)
(6.784939273381542e-07 -1.006925707678218e-07 0)
(7.069364479450145e-07 -9.911497876290958e-08 0)
(7.350312465170111e-07 -9.780270760457167e-08 0)
(7.628101945156265e-07 -9.665523776157345e-08 0)
(7.903564371430172e-07 -9.559230435571554e-08 0)
(8.17710784753872e-07 -9.452588599382205e-08 0)
(8.448991322276554e-07 -9.338403270134703e-08 0)
(8.719523680774535e-07 -9.210069944575495e-08 0)
(8.989031221539333e-07 -9.061114485668271e-08 0)
(9.257929335811284e-07 -8.887336142624932e-08 0)
(9.526377250076462e-07 -8.683332788069261e-08 0)
(9.794472137948944e-07 -8.442180809741083e-08 0)
(1.006212027627906e-06 -8.155844984877431e-08 0)
(1.032914794046818e-06 -7.816223548851339e-08 0)
(1.059596410870696e-06 -7.414315871691906e-08 0)
(1.086208433736724e-06 -6.949728409111317e-08 0)
(5.132118052882527e-07 -1.344609133461141e-07 0)
(5.473607231639775e-07 -1.277678165609689e-07 0)
(5.80860474385397e-07 -1.229485995453728e-07 0)
(6.131199043648498e-07 -1.192715851966513e-07 0)
(6.445595125818345e-07 -1.164360910580168e-07 0)
(6.753267327874539e-07 -1.14155984853233e-07 0)
(7.055235312068816e-07 -1.122726785063461e-07 0)
(7.352709902434095e-07 -1.106519168878408e-07 0)
(7.646660771549912e-07 -1.092016383791673e-07 0)
(7.937589757477827e-07 -1.078125915851444e-07 0)
(8.22588648878733e-07 -1.063978722749698e-07 0)
(8.512055002256971e-07 -1.04879439638599e-07 0)
(8.796570060305995e-07 -1.031817379751214e-07 0)
(9.079889222772966e-07 -1.012491453621823e-07 0)
(9.362191590208928e-07 -9.90125171656947e-08 0)
(9.643684393487629e-07 -9.63871964050156e-08 0)
(9.924445271802281e-07 -9.329731477169304e-08 0)
(1.020433114452316e-06 -8.962348466722951e-08 0)
(1.04838804391499e-06 -8.530330057171702e-08 0)
(1.076280007178125e-06 -8.029248276250375e-08 0)
(4.767161372602828e-07 -1.580972151103465e-07 0)
(5.141356389456357e-07 -1.485924032489717e-07 0)
(5.500766403997397e-07 -1.421660365108291e-07 0)
(5.84748431501868e-07 -1.370664111834092e-07 0)
(6.182551348911627e-07 -1.331364368213777e-07 0)
(6.508763262290565e-07 -1.299756490082442e-07 0)
(6.827263103933544e-07 -1.273675911905105e-07 0)
(7.139809349828091e-07 -1.251511308106441e-07 0)
(7.447456267912664e-07 -1.231956699514591e-07 0)
(7.750869431747082e-07 -1.213687843480409e-07 0)
(8.050695700686128e-07 -1.19573603031952e-07 0)
(8.347640028699345e-07 -1.177245277993357e-07 0)
(8.642281045217725e-07 -1.157350175843053e-07 0)
(8.935085838304981e-07 -1.135382041493981e-07 0)
(9.226236670448208e-07 -1.110558794176336e-07 0)
(9.516106073850648e-07 -1.081852333848745e-07 0)
(9.804757372725588e-07 -1.048707171163784e-07 0)
(1.009252556693731e-06 -1.00951949067169e-07 0)
(1.037975021256417e-06 -9.637860902046642e-08 0)
(1.066617921411904e-06 -9.106058066388987e-08 0)
(4.572208446422295e-07 -1.78559313899441e-07 0)
(4.951942233909053e-07 -1.686433114089492e-07 0)
(5.315845437902866e-07 -1.612190049017282e-07 0)
(5.670151667111608e-07 -1.551577938248006e-07 0)
(6.013673884286023e-07 -1.503120076370828e-07 0)
(6.348247446472023e-07 -1.463355069394757e-07 0)
(6.674988718443217e-07 -1.43008680135977e-07 0)
(6.995245510572963e-07 -1.401599627771172e-07 0)
(7.309876852202462e-07 -1.376341464475835e-07 0)
(7.619599206361341e-07 -1.352944667716974e-07 0)
(7.925176986593801e-07 -1.330433889010448e-07 0)
(8.22735747178931e-07 -1.307870710007294e-07 0)
(8.526696757778123e-07 -1.284293380084931e-07 0)
(8.823635157940074e-07 -1.25897734333467e-07 0)
(9.118381447925472e-07 -1.231101305212331e-07 0)
(9.411552926880443e-07 -1.199503860791596e-07 0)
(9.702965650552246e-07 -1.16385199552943e-07 0)
(9.99337634111495e-07 -1.122350499167023e-07 0)
(1.028290562152504e-06 -1.074384502842663e-07 0)
(1.057128459939892e-06 -1.018850132158994e-07 0)
(4.419062264252235e-07 -1.974417602239492e-07 0)
(4.794550865956253e-07 -1.875176090916893e-07 0)
(5.159523357688064e-07 -1.796596874828541e-07 0)
(5.516701799768404e-07 -1.730299100610115e-07 0)
(5.864620038864029e-07 -1.675278319995175e-07 0)
(6.204255974118682e-07 -1.628869563547567e-07 0)
(6.536402352718844e-07 -1.589283411447084e-07 0)
(6.861874842445912e-07 -1.554836000710347e-07 0)
(7.181410141173195e-07 -1.524022861058434e-07 0)
(7.495721624455361e-07 -1.495563969671194e-07 0)
(7.805566292619226e-07 -1.468498175590299e-07 0)
(8.111660393869013e-07 -1.441811476372742e-07 0)
(8.414517476264354e-07 -1.414473198089447e-07 0)
(8.714569590281989e-07 -1.385771377001461e-07 0)
(9.012033919708523e-07 -1.354872259116458e-07 0)
(9.307671085529889e-07 -1.320533576503881e-07 0)
(9.601310526345034e-07 -1.282495285365242e-07 0)
(9.893738849925493e-07 -1.238980289469301e-07 0)
(1.018494318756392e-06 -1.189190944737439e-07 0)
(1.04750856157162e-06 -1.132071196038637e-07 0)
(4.288388481793523e-07 -2.158490818250191e-07 0)
(4.659003753612178e-07 -2.060506235957724e-07 0)
(5.021729963277915e-07 -1.979101295571936e-07 0)
(5.37885482480268e-07 -1.908226894687186e-07 0)
(5.727992928630221e-07 -1.847622855575364e-07 0)
(6.070167745698601e-07 -1.795376691556877e-07 0)
(6.405419023324276e-07 -1.750007047917088e-07 0)
(6.734261863476462e-07 -1.709945928097087e-07 0)
(7.057288932322068e-07 -1.673827225372291e-07 0)
(7.375092634101076e-07 -1.640483701804677e-07 0)
(7.688313803148131e-07 -1.608989268528618e-07 0)
(7.997581296847526e-07 -1.578269270098715e-07 0)
(8.303370985116762e-07 -1.547252790774895e-07 0)
(8.60610971166407e-07 -1.515282886767331e-07 0)
(8.906037241817314e-07 -1.481462308514776e-07 0)
(9.203858495328518e-07 -1.444610128081244e-07 0)
(9.499548424422866e-07 -1.404408287062221e-07 0)
(9.793880974712121e-07 -1.359152583472239e-07 0)
(1.008666987358632e-06 -1.307997999787189e-07 0)
(1.037884801631995e-06 -1.25006997217208e-07 0)
(4.176842789312814e-07 -2.333737638165537e-07 0)
(4.541716669548584e-07 -2.238167627763514e-07 0)
(4.900766469746328e-07 -2.1560620863825e-07 0)
(5.25581889821857e-07 -2.082613654892256e-07 0)
(5.604423339331077e-07 -2.018098219779756e-07 0)
(5.947251369503552e-07 -1.961325961953291e-07 0)
(6.283825869691585e-07 -1.911052948730957e-07 0)
(6.614529382861444e-07 -1.866029762183969e-07 0)
(6.939789004548844e-07 -1.825084876702708e-07 0)
(7.260029723776666e-07 -1.787190546918179e-07 0)
(7.575739151012884e-07 -1.751489365898349e-07 0)
(7.887407926972346e-07 -1.716887777072202e-07 0)
(8.195476593919212e-07 -1.682325480822069e-07 0)
(8.500355588617932e-07 -1.647253730261332e-07 0)
(8.802298798520262e-07 -1.610664203817311e-07 0)
(9.101989385139508e-07 -1.571545700086848e-07 0)
(9.399403911820493e-07 -1.529421305179597e-07 0)
(9.69536428635759e-07 -1.482706552421479e-07 0)
(9.989753367169566e-07 -1.430660432950367e-07 0)
(1.028390912360276e-06 -1.372587459412134e-07 0)
(4.079929237386827e-07 -2.502975486164722e-07 0)
(4.439052180084194e-07 -2.410076327660253e-07 0)
(4.79409128351743e-07 -2.328104047862577e-07 0)
(5.145921881886789e-07 -2.25313487187364e-07 0)
(5.492905366759425e-07 -2.185867728962714e-07 0)
(5.834948920731337e-07 -2.125518958962334e-07 0)
(6.171545489874267e-07 -2.071164650322945e-07 0)
(6.5029592016451e-07 -2.021899763410319e-07 0)
(6.829417925084716e-07 -1.976701665237195e-07 0)
(7.151161069806366e-07 -1.934694935446017e-07 0)
(7.468531768827932e-07 -1.895118742241608e-07 0)
(7.781867000896818e-07 -1.856898302230462e-07 0)
(8.091575046135448e-07 -1.819028124019904e-07 0)
(8.398049112851852e-07 -1.781083509478332e-07 0)
(8.701512007615841e-07 -1.741918182117514e-07 0)
(9.002664301931689e-07 -1.700803550684018e-07 0)
(9.301495846081599e-07 -1.657050023938604e-07 0)
(9.598805950995343e-07 -1.609239662024554e-07 0)
(9.894837207439357e-07 -1.556796657523792e-07 0)
(1.019049873315863e-06 -1.49903956723907e-07 0)
(3.995443160314032e-07 -2.666420405073542e-07 0)
(4.349013628018326e-07 -2.576356352907997e-07 0)
(4.699699277516789e-07 -2.495171538539775e-07 0)
(5.047958133293442e-07 -2.419561850546273e-07 0)
(5.392452978197302e-07 -2.350497352107285e-07 0)
(5.73273521255127e-07 -2.287411680790733e-07 0)
(6.068423358275799e-07 -2.229796234376583e-07 0)
(6.399622254086039e-07 -2.177001852400117e-07 0)
(6.726361629765995e-07 -2.128117702835144e-07 0)
(7.048730208421847e-07 -2.082446952449298e-07 0)
(7.366959769301805e-07 -2.039351416082215e-07 0)
(7.681245339897169e-07 -1.997803890339011e-07 0)
(7.991961938125163e-07 -1.956899074731285e-07 0)
(8.299474907453335e-07 -1.916359098614416e-07 0)
(8.604022386397805e-07 -1.874876267603014e-07 0)
(8.906237722958208e-07 -1.832009187262451e-07 0)
(9.206188203483111e-07 -1.786934774872097e-07 0)
(9.504655752989392e-07 -1.738431640566661e-07 0)
(9.802119774918797e-07 -1.686004622947725e-07 0)
(1.009875011854286e-06 -1.628875439090494e-07 0)
(3.921340285808336e-07 -2.825004876136583e-07 0)
(4.269891276967419e-07 -2.737673329744703e-07 0)
(4.616002146945169e-07 -2.657586582451653e-07 0)
(4.960501342606089e-07 -2.581910487768051e-07 0)
(5.301828804192687e-07 -2.511666347371195e-07 0)
(5.639728800109236e-07 -2.446553741856712e-07 0)
(5.973812059972048e-07 -2.386399429111335e-07 0)
(6.304033349547956e-07 -2.330712952264616e-07 0)
(6.63025615893392e-07 -2.278682949652609e-07 0)
(6.952493060459289e-07 -2.22981057316621e-07 0)
(7.270899912926843e-07 -2.183595475642008e-07 0)
(7.58555527249542e-07 -2.139070304178174e-07 0)
(7.896799989115384e-07 -2.095440815780038e-07 0)
(8.204925529870279e-07 -2.052579597277671e-07 0)
(8.510222464911305e-07 -2.009097255876835e-07 0)
(8.813258594926998e-07 -1.964738908643386e-07 0)
(9.114139541431227e-07 -1.918689928121664e-07 0)
(9.413670125539451e-07 -1.869879935728051e-07 0)
(9.712093443087612e-07 -1.817782324259781e-07 0)
(1.000967850840785e-06 -1.761616957164344e-07 0)
(3.85575397559312e-07 -2.979289252652459e-07 0)
(4.199440342704753e-07 -2.894524929980678e-07 0)
(4.541150363976534e-07 -2.815667164705984e-07 0)
(4.881662193401802e-07 -2.740260705356825e-07 0)
(5.219574942278344e-07 -2.669295030515825e-07 0)
(5.554803934130703e-07 -2.602760013289231e-07 0)
(5.886856187114558e-07 -2.540658968121624e-07 0)
(6.215607590862614e-07 -2.482625359474765e-07 0)
(6.540777649279976e-07 -2.427956051310152e-07 0)
(6.862377924665353e-07 -2.376347652867018e-07 0)
(7.18049107218424e-07 -2.327430090410208e-07 0)
(7.495111852800225e-07 -2.280305057338946e-07 0)
(7.806547454065788e-07 -2.234308791571249e-07 0)
(8.115002626531299e-07 -2.189425535193112e-07 0)
(8.420793633981479e-07 -2.144258599096522e-07 0)
(8.724446514148951e-07 -2.098770962413972e-07 0)
(9.026100511681994e-07 -2.052042423850623e-07 0)
(9.326503202876844e-07 -2.003203624604443e-07 0)
(9.625466434588051e-07 -1.951684899489407e-07 0)
(9.924280609367028e-07 -1.896902151702604e-07 0)
(3.79720541087693e-07 -3.129768703038983e-07 0)
(4.136086037809351e-07 -3.047406681909599e-07 0)
(4.473640544189732e-07 -2.969804422669567e-07 0)
(4.810134544456495e-07 -2.8948402153879e-07 0)
(5.144732497296796e-07 -2.823542394615831e-07 0)
(5.477215341434185e-07 -2.756049911832878e-07 0)
(5.807022027050799e-07 -2.692463872894643e-07 0)
(6.134036410422683e-07 -2.632539906598771e-07 0)
(6.457824765637282e-07 -2.57569339139805e-07 0)
(6.778455132843416e-07 -2.521789337883279e-07 0)
(7.095912345394288e-07 -2.470573566313932e-07 0)
(7.41016885108376e-07 -2.421205979001978e-07 0)
(7.721485279923204e-07 -2.373180836528403e-07 0)
(8.03002483852953e-07 -2.326563176229991e-07 0)
(8.335970282441797e-07 -2.280058623410231e-07 0)
(8.640122131002374e-07 -2.233597101542857e-07 0)
(8.942320781635232e-07 -2.186559010151483e-07 0)
(9.243092523952e-07 -2.137937627762715e-07 0)