/*--------------------------------*- C++ -*----------------------------------*\
| =========                 |                                                 |
| \\      /  F ield         | foam-extend: Open Source CFD                    |
|  \\    /   O peration     | Version:     4.1                                |
|   \\  /    A nd           | Web:         http://www.foam-extend.org         |
|    \\/     M anipulation  |                                                 |
\*---------------------------------------------------------------------------*/
FoamFile
{
    version     2.0;
    format      ascii;
    class       pointVectorField;
    location    "6";
    object      pointD;
}
// * * * * * * * * * * * * * * * * * * * * * * * * * * * * * * * * * * * * * //

dimensions      [0 1 0 0 0 0 0];

internalField   nonuniform List<vector> 
2142
(
(3.48831e-06 -1.44874e-06 -1.91476e-22)
(3.25123e-06 -1.28468e-06 0)
(3.106e-06 -1.19209e-06 0)
(3.01628e-06 -1.13737e-06 0)
(2.96723e-06 -1.11056e-06 0)
(2.94693e-06 -1.10176e-06 0)
(2.94785e-06 -1.10574e-06 0)
(2.96459e-06 -1.11847e-06 0)
(2.99332e-06 -1.13735e-06 0)
(3.03126e-06 -1.16057e-06 0)
(3.07752e-06 -1.18777e-06 0)
(3.20078e-06 -1.56038e-06 -8.37227e-23)
(2.9435e-06 -1.43047e-06 0)
(2.78566e-06 -1.35958e-06 0)
(2.68768e-06 -1.31897e-06 0)
(2.63275e-06 -1.30163e-06 0)
(2.60795e-06 -1.29929e-06 0)
(2.60503e-06 -1.30788e-06 0)
(2.61827e-06 -1.32395e-06 0)
(2.64346e-06 -1.34548e-06 0)
(2.67785e-06 -1.37062e-06 0)
(2.7187e-06 -1.39918e-06 0)
(2.89422e-06 -1.66275e-06 1.31228e-22)
(2.62648e-06 -1.57275e-06 0)
(2.46207e-06 -1.5271e-06 0)
(2.35965e-06 -1.50283e-06 0)
(2.30121e-06 -1.49638e-06 0)
(2.27332e-06 -1.50137e-06 0)
(2.26731e-06 -1.51511e-06 0)
(2.27729e-06 -1.53487e-06 0)
(2.2989e-06 -1.55928e-06 0)
(2.32914e-06 -1.58652e-06 0)
(2.36537e-06 -1.61735e-06 0)
(2.57058e-06 -1.75513e-06 3.02554e-22)
(2.30311e-06 -1.70851e-06 0)
(2.13874e-06 -1.69019e-06 0)
(2.03611e-06 -1.68359e-06 0)
(1.97681e-06 -1.68883e-06 0)
(1.94741e-06 -1.70162e-06 0)
(1.93924e-06 -1.72073e-06 0)
(1.94641e-06 -1.74428e-06 0)
(1.96466e-06 -1.77154e-06 0)
(1.99095e-06 -1.80096e-06 0)
(2.02306e-06 -1.83363e-06 0)
(2.23183e-06 -1.8368e-06 1.02802e-23)
(1.9758e-06 -1.83457e-06 0)
(1.81839e-06 -1.84417e-06 0)
(1.71992e-06 -1.85558e-06 0)
(1.6625e-06 -1.8727e-06 0)
(1.63328e-06 -1.89336e-06 0)
(1.62392e-06 -1.91786e-06 0)
(1.62882e-06 -1.94516e-06 0)
(1.64397e-06 -1.97516e-06 0)
(1.66641e-06 -2.00674e-06 0)
(1.69442e-06 -2.04114e-06 0)
(1.88004e-06 -1.90712e-06 -1.86247e-22)
(1.64645e-06 -1.94778e-06 0)
(1.5028e-06 -1.9843e-06 0)
(1.41282e-06 -2.01307e-06 0)
(1.36e-06 -2.04161e-06 0)
(1.3326e-06 -2.06982e-06 0)
(1.32303e-06 -2.09944e-06 0)
(1.32618e-06 -2.1303e-06 0)
(1.33845e-06 -2.16288e-06 0)
(1.35712e-06 -2.19652e-06 0)
(1.38087e-06 -2.23251e-06 0)
(1.5173e-06 -1.9655e-06 2.35192e-23)
(1.31643e-06 -2.04513e-06 0)
(1.19287e-06 -2.10608e-06 0)
(1.11539e-06 -2.15061e-06 0)
(1.06969e-06 -2.18948e-06 0)
(1.04567e-06 -2.22451e-06 0)
(1.03679e-06 -2.25874e-06 0)
(1.03867e-06 -2.29281e-06 0)
(1.04825e-06 -2.3277e-06 0)
(1.06317e-06 -2.36322e-06 0)
(1.08247e-06 -2.4006e-06 0)
(1.14577e-06 -2.01144e-06 2.57122e-23)
(9.86578e-07 -2.12393e-06 0)
(8.88637e-07 -2.20546e-06 0)
(8.27179e-07 -2.26325e-06 0)
(7.908e-07 -2.31082e-06 0)
(7.715e-07 -2.35158e-06 0)
(7.64088e-07 -2.38968e-06 0)
(7.65106e-07 -2.42644e-06 0)
(7.7216e-07 -2.46328e-06 0)
(7.83332e-07 -2.5004e-06 0)
(7.98001e-07 -2.53893e-06 0)
(7.67615e-07 -2.04452e-06 6.91195e-23)
(6.573e-07 -2.1819e-06 0)
(5.89401e-07 -2.27901e-06 0)
(5.46768e-07 -2.34685e-06 0)
(5.21467e-07 -2.401e-06 0)
(5.07958e-07 -2.44609e-06 0)
(5.02642e-07 -2.48713e-06 0)
(5.03123e-07 -2.52592e-06 0)
(5.07755e-07 -2.56423e-06 0)
(5.15194e-07 -2.60259e-06 0)
(5.25069e-07 -2.642e-06 0)
(3.85057e-07 -2.06443e-06 1.05986e-22)
(3.28626e-07 -2.21733e-06 0)
(2.93857e-07 -2.32417e-06 0)
(2.72008e-07 -2.39829e-06 0)
(2.59016e-07 -2.45654e-06 0)
(2.52047e-07 -2.50435e-06 0)
(2.49261e-07 -2.54721e-06 0)
(2.4943e-07 -2.58728e-06 0)
(2.51716e-07 -2.62651e-06 0)
(2.55427e-07 -2.66565e-06 0)
(2.60389e-07 -2.70561e-06 0)
(0 -2.07089e-06 7.4324e-23)
(0 -2.22919e-06 -3.01502e-25)
(0 -2.33948e-06 0)
(0 -2.41564e-06 0)
(0 -2.47534e-06 0)
(0 -2.52404e-06 0)
(0 -2.56755e-06 0)
(0 -2.60804e-06 0)
(0 -2.64759e-06 0)
(0 -2.68699e-06 0)
(0 -2.72713e-06 0)
(3.48831e-06 -1.44874e-06 -1.91476e-22)
(3.25123e-06 -1.28468e-06 0)
(3.106e-06 -1.19209e-06 0)
(3.01628e-06 -1.13737e-06 0)
(2.96723e-06 -1.11056e-06 0)
(2.94693e-06 -1.10176e-06 0)
(2.94785e-06 -1.10574e-06 0)
(2.96459e-06 -1.11847e-06 0)
(2.99332e-06 -1.13735e-06 0)
(3.03126e-06 -1.16057e-06 0)
(3.07752e-06 -1.18777e-06 0)
(3.20078e-06 -1.56038e-06 -8.37227e-23)
(2.9435e-06 -1.43047e-06 0)
(2.78566e-06 -1.35958e-06 0)
(2.68768e-06 -1.31897e-06 0)
(2.63275e-06 -1.30163e-06 0)
(2.60795e-06 -1.29929e-06 0)
(2.60503e-06 -1.30788e-06 0)
(2.61827e-06 -1.32395e-06 0)
(2.64346e-06 -1.34548e-06 0)
(2.67785e-06 -1.37062e-06 0)
(2.7187e-06 -1.39918e-06 0)
(2.89422e-06 -1.66275e-06 1.31228e-22)
(2.62648e-06 -1.57275e-06 0)
(2.46207e-06 -1.5271e-06 0)
(2.35965e-06 -1.50283e-06 0)
(2.30121e-06 -1.49638e-06 0)
(2.27332e-06 -1.50137e-06 0)
(2.26731e-06 -1.51511e-06 0)
(2.27729e-06 -1.53487e-06 0)
(2.2989e-06 -1.55928e-06 0)
(2.32914e-06 -1.58652e-06 0)
(2.36537e-06 -1.61735e-06 0)
(2.57058e-06 -1.75513e-06 3.02554e-22)
(2.30311e-06 -1.70851e-06 0)
(2.13874e-06 -1.69019e-06 0)
(2.03611e-06 -1.68359e-06 0)
(1.97681e-06 -1.68883e-06 0)
(1.94741e-06 -1.70162e-06 0)
(1.93924e-06 -1.72073e-06 0)
(1.94641e-06 -1.74428e-06 0)
(1.96466e-06 -1.77154e-06 0)
(1.99095e-06 -1.80096e-06 0)
(2.02306e-06 -1.83363e-06 0)
(2.23183e-06 -1.8368e-06 1.02802e-23)
(1.9758e-06 -1.83457e-06 0)
(1.81839e-06 -1.84417e-06 0)
(1.71992e-06 -1.85558e-06 0)
(1.6625e-06 -1.8727e-06 0)
(1.63328e-06 -1.89336e-06 0)
(1.62392e-06 -1.91786e-06 0)
(1.62882e-06 -1.94516e-06 0)
(1.64397e-06 -1.97516e-06 0)
(1.66641e-06 -2.00674e-06 0)
(1.69442e-06 -2.04114e-06 0)
(1.88004e-06 -1.90712e-06 -1.86247e-22)
(1.64645e-06 -1.94778e-06 0)
(1.5028e-06 -1.9843e-06 0)
(1.41282e-06 -2.01307e-06 0)
(1.36e-06 -2.04161e-06 0)
(1.3326e-06 -2.06982e-06 0)
(1.32303e-06 -2.09944e-06 0)
(1.32618e-06 -2.1303e-06 0)
(1.33845e-06 -2.16288e-06 0)
(1.35712e-06 -2.19652e-06 0)
(1.38087e-06 -2.23251e-06 0)
(1.5173e-06 -1.9655e-06 2.35192e-23)
(1.31643e-06 -2.04513e-06 0)
(1.19287e-06 -2.10608e-06 0)
(1.11539e-06 -2.15061e-06 0)
(1.06969e-06 -2.18948e-06 0)
(1.04567e-06 -2.22451e-06 0)
(1.03679e-06 -2.25874e-06 0)
(1.03867e-06 -2.29281e-06 0)
(1.04825e-06 -2.3277e-06 0)
(1.06317e-06 -2.36322e-06 0)
(1.08247e-06 -2.4006e-06 0)
(1.14577e-06 -2.01144e-06 2.57122e-23)
(9.86578e-07 -2.12393e-06 0)
(8.88637e-07 -2.20546e-06 0)
(8.27179e-07 -2.26325e-06 0)
(7.908e-07 -2.31082e-06 0)
(7.715e-07 -2.35158e-06 0)
(7.64088e-07 -2.38968e-06 0)
(7.65106e-07 -2.42644e-06 0)
(7.7216e-07 -2.46328e-06 0)
(7.83332e-07 -2.5004e-06 0)
(7.98001e-07 -2.53893e-06 0)
(7.67615e-07 -2.04452e-06 6.91195e-23)
(6.573e-07 -2.1819e-06 0)
(5.89401e-07 -2.27901e-06 0)
(5.46768e-07 -2.34685e-06 0)
(5.21467e-07 -2.401e-06 0)
(5.07958e-07 -2.44609e-06 0)
(5.02642e-07 -2.48713e-06 0)
(5.03123e-07 -2.52592e-06 0)
(5.07755e-07 -2.56423e-06 0)
(5.15194e-07 -2.60259e-06 0)
(5.25069e-07 -2.642e-06 0)
(3.85057e-07 -2.06443e-06 1.05986e-22)
(3.28626e-07 -2.21733e-06 0)
(2.93857e-07 -2.32417e-06 0)
(2.72008e-07 -2.39829e-06 0)
(2.59016e-07 -2.45654e-06 0)
(2.52047e-07 -2.50435e-06 0)
(2.49261e-07 -2.54721e-06 0)
(2.4943e-07 -2.58728e-06 0)
(2.51716e-07 -2.62651e-06 0)
(2.55427e-07 -2.66565e-06 0)
(2.60389e-07 -2.70561e-06 0)
(0 -2.07089e-06 7.4324e-23)
(0 -2.22919e-06 -3.01502e-25)
(0 -2.33948e-06 0)
(0 -2.41564e-06 0)
(0 -2.47534e-06 0)
(0 -2.52404e-06 0)
(0 -2.56755e-06 0)
(0 -2.60804e-06 0)
(0 -2.64759e-06 0)
(0 -2.68699e-06 0)
(0 -2.72713e-06 0)
(4.96623e-06 0 -6.06044e-23)
(5.02215e-06 0 2.45847e-25)
(5.05884e-06 0 0)
(5.08653e-06 0 0)
(5.11603e-06 0 0)
(5.15007e-06 0 0)
(5.19114e-06 0 0)
(5.23953e-06 0 0)
(5.29551e-06 0 0)
(5.35857e-06 0 0)
(5.42859e-06 0 0)
(4.95068e-06 -1.59359e-07 -2.72021e-23)
(5.00151e-06 -1.10704e-07 0)
(5.03498e-06 -8.16583e-08 0)
(5.0607e-06 -6.3685e-08 0)
(5.08885e-06 -5.32213e-08 0)
(5.122e-06 -4.76209e-08 0)
(5.16241e-06 -4.5283e-08 0)
(5.21031e-06 -4.51139e-08 0)
(5.26589e-06 -4.64192e-08 0)
(5.32856e-06 -4.85391e-08 0)
(5.39826e-06 -5.15721e-08 0)
(4.90375e-06 -3.1779e-07 -5.29596e-23)
(4.93985e-06 -2.22936e-07 0)
(4.96416e-06 -1.66465e-07 0)
(4.98398e-06 -1.31572e-07 0)
(5.00823e-06 -1.11313e-07 0)
(5.03873e-06 -1.00527e-07 0)
(5.07726e-06 -9.60978e-08 0)
(5.12371e-06 -9.5896e-08 0)
(5.17809e-06 -9.85635e-08 0)
(5.23962e-06 -1.02826e-07 0)
(5.30838e-06 -1.08846e-07 0)
(4.82571e-06 -4.74505e-07 -1.58675e-22)
(4.83827e-06 -3.38425e-07 0)
(4.84802e-06 -2.57567e-07 0)
(4.85845e-06 -2.07672e-07 0)
(4.87649e-06 -1.78808e-07 0)
(4.90277e-06 -1.6356e-07 0)
(4.93828e-06 -1.57454e-07 0)
(4.98241e-06 -1.57438e-07 0)
(5.0349e-06 -1.61546e-07 0)
(5.0946e-06 -1.67974e-07 0)
(5.16186e-06 -1.76875e-07 0)
(4.71723e-06 -6.28545e-07 -1.12012e-22)
(4.69889e-06 -4.58425e-07 0)
(4.68949e-06 -3.57532e-07 0)
(4.68759e-06 -2.95371e-07 0)
(4.69746e-06 -2.59604e-07 0)
(4.7182e-06 -2.40922e-07 0)
(4.74972e-06 -2.33735e-07 0)
(4.7908e-06 -2.34216e-07 0)
(4.84077e-06 -2.39882e-07 0)
(4.89808e-06 -2.4851e-07 0)
(4.96335e-06 -2.60156e-07 0)
(4.57916e-06 -7.79053e-07 -8.82418e-24)
(4.52441e-06 -5.83808e-07 0)
(4.49246e-06 -4.68309e-07 0)
(4.47601e-06 -3.97301e-07 0)
(4.47626e-06 -3.56753e-07 0)
(4.49042e-06 -3.35926e-07 0)
(4.51721e-06 -3.28402e-07 0)
(4.55466e-06 -3.29777e-07 0)
(4.60162e-06 -3.37152e-07 0)
(4.65609e-06 -3.48022e-07 0)
(4.71895e-06 -3.6224e-07 0)
(4.41258e-06 -9.25159e-07 -2.75952e-24)
(4.31814e-06 -7.14941e-07 0)
(4.26158e-06 -5.91034e-07 0)
(4.22926e-06 -5.15084e-07 0)
(4.21896e-06 -4.72185e-07 0)
(4.2259e-06 -4.50687e-07 0)
(4.24747e-06 -4.43687e-07 0)
(4.28087e-06 -4.46413e-07 0)
(4.32446e-06 -4.55688e-07 0)
(4.37577e-06 -4.68857e-07 0)
(4.4359e-06 -4.85481e-07 0)
(4.21872e-06 -1.06601e-06 -4.68606e-24)
(4.08375e-06 -8.51647e-07 0)
(4.00202e-06 -7.2595e-07 0)
(3.95346e-06 -6.49235e-07 0)
(3.93232e-06 -6.06585e-07 0)
(3.93181e-06 -5.85995e-07 0)
(3.9479e-06 -5.80439e-07 0)
(3.97703e-06 -5.85016e-07 0)
(4.017e-06 -5.96411e-07 0)
(4.06496e-06 -6.11967e-07 0)
(4.12204e-06 -6.30828e-07 0)
(3.999e-06 -1.20077e-06 2.27335e-22)
(3.82515e-06 -9.93156e-07 0)
(3.71928e-06 -8.72346e-07 0)
(3.65509e-06 -7.99082e-07 0)
(3.62348e-06 -7.59303e-07 0)
(3.61567e-06 -7.41208e-07 0)
(3.62632e-06 -7.38028e-07 0)
(3.65115e-06 -7.44954e-07 0)
(3.68736e-06 -7.5873e-07 0)
(3.73187e-06 -7.76807e-07 0)
(3.78572e-06 -7.97962e-07 0)
(3.75497e-06 -1.32861e-06 1.44186e-22)
(3.54634e-06 -1.13813e-06 0)
(3.41883e-06 -1.02857e-06 0)
(3.34063e-06 -9.62783e-07 0)
(3.29951e-06 -9.28372e-07 0)
(3.28497e-06 -9.14272e-07 0)
(3.29046e-06 -9.14323e-07 0)
(3.31105e-06 -9.24039e-07 0)
(3.34343e-06 -9.40393e-07 0)
(3.3845e-06 -9.61236e-07 0)
(3.43459e-06 -9.84703e-07 0)
(4.96623e-06 0 -6.06044e-23)
(5.02215e-06 0 2.45847e-25)
(5.05884e-06 0 0)
(5.08653e-06 0 0)
(5.11603e-06 0 0)
(5.15007e-06 0 0)
(5.19114e-06 0 0)
(5.23953e-06 0 0)
(5.29551e-06 0 0)
(5.35857e-06 0 0)
(5.42859e-06 0 0)
(4.95068e-06 -1.59359e-07 -2.72021e-23)
(5.00151e-06 -1.10704e-07 0)
(5.03498e-06 -8.16583e-08 0)
(5.0607e-06 -6.3685e-08 0)
(5.08885e-06 -5.32213e-08 0)
(5.122e-06 -4.76209e-08 0)
(5.16241e-06 -4.5283e-08 0)
(5.21031e-06 -4.51139e-08 0)
(5.26589e-06 -4.64192e-08 0)
(5.32856e-06 -4.85391e-08 0)
(5.39826e-06 -5.15721e-08 0)
(4.90375e-06 -3.1779e-07 -5.29596e-23)
(4.93985e-06 -2.22936e-07 0)
(4.96416e-06 -1.66465e-07 0)
(4.98398e-06 -1.31572e-07 0)
(5.00823e-06 -1.11313e-07 0)
(5.03873e-06 -1.00527e-07 0)
(5.07726e-06 -9.60978e-08 0)
(5.12371e-06 -9.5896e-08 0)
(5.17809e-06 -9.85635e-08 0)
(5.23962e-06 -1.02826e-07 0)
(5.30838e-06 -1.08846e-07 0)
(4.82571e-06 -4.74505e-07 -1.58675e-22)
(4.83827e-06 -3.38425e-07 0)
(4.84802e-06 -2.57567e-07 0)
(4.85845e-06 -2.07672e-07 0)
(4.87649e-06 -1.78808e-07 0)
(4.90277e-06 -1.6356e-07 0)
(4.93828e-06 -1.57454e-07 0)
(4.98241e-06 -1.57438e-07 0)
(5.0349e-06 -1.61546e-07 0)
(5.0946e-06 -1.67974e-07 0)
(5.16186e-06 -1.76875e-07 0)
(4.71723e-06 -6.28545e-07 -1.12012e-22)
(4.69889e-06 -4.58425e-07 0)
(4.68949e-06 -3.57532e-07 0)
(4.68759e-06 -2.95371e-07 0)
(4.69746e-06 -2.59604e-07 0)
(4.7182e-06 -2.40922e-07 0)
(4.74972e-06 -2.33735e-07 0)
(4.7908e-06 -2.34216e-07 0)
(4.84077e-06 -2.39882e-07 0)
(4.89808e-06 -2.4851e-07 0)
(4.96335e-06 -2.60156e-07 0)
(4.57916e-06 -7.79053e-07 -8.82418e-24)
(4.52441e-06 -5.83808e-07 0)
(4.49246e-06 -4.68309e-07 0)
(4.47601e-06 -3.97301e-07 0)
(4.47626e-06 -3.56753e-07 0)
(4.49042e-06 -3.35926e-07 0)
(4.51721e-06 -3.28402e-07 0)
(4.55466e-06 -3.29777e-07 0)
(4.60162e-06 -3.37152e-07 0)
(4.65609e-06 -3.48022e-07 0)
(4.71895e-06 -3.6224e-07 0)
(4.41258e-06 -9.25159e-07 -2.75952e-24)
(4.31814e-06 -7.14941e-07 0)
(4.26158e-06 -5.91034e-07 0)
(4.22926e-06 -5.15084e-07 0)
(4.21896e-06 -4.72185e-07 0)
(4.2259e-06 -4.50687e-07 0)
(4.24747e-06 -4.43687e-07 0)
(4.28087e-06 -4.46413e-07 0)
(4.32446e-06 -4.55688e-07 0)
(4.37577e-06 -4.68857e-07 0)
(4.4359e-06 -4.85481e-07 0)
(4.21872e-06 -1.06601e-06 -4.68606e-24)
(4.08375e-06 -8.51647e-07 0)
(4.00202e-06 -7.2595e-07 0)
(3.95346e-06 -6.49235e-07 0)
(3.93232e-06 -6.06585e-07 0)
(3.93181e-06 -5.85995e-07 0)
(3.9479e-06 -5.80439e-07 0)
(3.97703e-06 -5.85016e-07 0)
(4.017e-06 -5.96411e-07 0)
(4.06496e-06 -6.11967e-07 0)
(4.12204e-06 -6.30828e-07 0)
(3.999e-06 -1.20077e-06 2.27335e-22)
(3.82515e-06 -9.93156e-07 0)
(3.71928e-06 -8.72346e-07 0)
(3.65509e-06 -7.99082e-07 0)
(3.62348e-06 -7.59303e-07 0)
(3.61567e-06 -7.41208e-07 0)
(3.62632e-06 -7.38028e-07 0)
(3.65115e-06 -7.44954e-07 0)
(3.68736e-06 -7.5873e-07 0)
(3.73187e-06 -7.76807e-07 0)
(3.78572e-06 -7.97962e-07 0)
(3.75497e-06 -1.32861e-06 1.44186e-22)
(3.54634e-06 -1.13813e-06 0)
(3.41883e-06 -1.02857e-06 0)
(3.34063e-06 -9.62783e-07 0)
(3.29951e-06 -9.28372e-07 0)
(3.28497e-06 -9.14272e-07 0)
(3.29046e-06 -9.14323e-07 0)
(3.31105e-06 -9.24039e-07 0)
(3.34343e-06 -9.40393e-07 0)
(3.3845e-06 -9.61236e-07 0)
(3.43459e-06 -9.84703e-07 0)
(5.50531e-06 0 0)
(5.58771e-06 0 0)
(5.67513e-06 0 0)
(5.76712e-06 0 0)
(5.86319e-06 0 0)
(5.96294e-06 0 0)
(6.06596e-06 0 0)
(6.17186e-06 0 0)
(6.28028e-06 0 0)
(6.39087e-06 0 0)
(6.50328e-06 0 0)
(6.61718e-06 0 0)
(6.73222e-06 0 0)
(6.84804e-06 0 0)
(6.96423e-06 0 0)
(7.08044e-06 0 0)
(7.19611e-06 0 0)
(7.31091e-06 0 0)
(7.42389e-06 0 -1.81581e-26)
(7.53512e-06 0 -2.96896e-23)
(5.47771e-06 -5.19689e-08 0)
(5.56241e-06 -5.2149e-08 0)
(5.65185e-06 -5.23404e-08 0)
(5.74561e-06 -5.23422e-08 0)
(5.84326e-06 -5.21105e-08 0)
(5.94441e-06 -5.16006e-08 0)
(6.04868e-06 -5.07746e-08 0)
(6.15571e-06 -4.96076e-08 0)
(6.26516e-06 -4.80702e-08 0)
(6.3767e-06 -4.61355e-08 0)
(6.48999e-06 -4.37708e-08 0)
(6.6047e-06 -4.09382e-08 0)
(6.72049e-06 -3.75917e-08 0)
(6.83702e-06 -3.36753e-08 0)
(6.9539e-06 -2.91214e-08 0)
(7.07076e-06 -2.38456e-08 0)
(7.18705e-06 -1.77498e-08 0)
(7.30248e-06 -1.07009e-08 0)
(7.41606e-06 -2.58404e-09 0)
(7.5279e-06 6.92972e-09 -6.14791e-23)
(5.39582e-06 -1.08763e-07 0)
(5.48732e-06 -1.08424e-07 0)
(5.58273e-06 -1.08219e-07 0)
(5.68174e-06 -1.07747e-07 0)
(5.78404e-06 -1.06893e-07 0)
(5.88934e-06 -1.05558e-07 0)
(5.99733e-06 -1.03649e-07 0)
(6.10773e-06 -1.01108e-07 0)
(6.22024e-06 -9.78679e-08 0)
(6.33458e-06 -9.38678e-08 0)
(6.45045e-06 -8.90364e-08 0)
(6.56757e-06 -8.32937e-08 0)
(6.68561e-06 -7.6544e-08 0)
(6.80427e-06 -6.8672e-08 0)
(6.92316e-06 -5.95397e-08 0)
(7.04196e-06 -4.89763e-08 0)
(7.16013e-06 -3.67836e-08 0)
(7.27738e-06 -2.26938e-08 0)
(7.39278e-06 -6.47542e-09 0)
(7.50643e-06 1.25233e-08 -1.03997e-22)
(5.26214e-06 -1.7465e-07 0)
(5.36462e-06 -1.7246e-07 0)
(5.46972e-06 -1.70741e-07 0)
(5.57725e-06 -1.68902e-07 0)
(5.68713e-06 -1.66693e-07 0)
(5.79918e-06 -1.63943e-07 0)
(5.91324e-06 -1.60475e-07 0)
(6.02913e-06 -1.5618e-07 0)
(6.14664e-06 -1.50935e-07 0)
(6.26557e-06 -1.44632e-07 0)
(6.38567e-06 -1.37152e-07 0)
(6.50672e-06 -1.28363e-07 0)
(6.62844e-06 -1.18112e-07 0)
(6.75057e-06 -1.0622e-07 0)
(6.87277e-06 -9.24718e-08 0)
(6.99472e-06 -7.66064e-08 0)
(7.11596e-06 -5.83208e-08 0)
(7.2362e-06 -3.72093e-08 0)
(7.35457e-06 -1.29177e-08 0)
(7.4712e-06 1.55241e-08 -1.66996e-23)
(5.08061e-06 -2.53475e-07 0)
(5.19775e-06 -2.47566e-07 0)
(5.31583e-06 -2.42754e-07 0)
(5.43483e-06 -2.38282e-07 0)
(5.55494e-06 -2.33678e-07 0)
(5.67614e-06 -2.28673e-07 0)
(5.79845e-06 -2.22967e-07 0)
(5.9218e-06 -2.16373e-07 0)
(6.04612e-06 -2.08688e-07 0)
(6.17129e-06 -1.99742e-07 0)
(6.29716e-06 -1.89349e-07 0)
(6.42357e-06 -1.77316e-07 0)
(6.55031e-06 -1.63423e-07 0)
(6.67717e-06 -1.47417e-07 0)
(6.80385e-06 -1.29e-07 0)
(6.93012e-06 -1.07814e-07 0)
(7.05552e-06 -8.34473e-08 0)
(7.17984e-06 -5.53495e-08 0)
(7.30224e-06 -2.30369e-08 0)
(7.42292e-06 1.47739e-08 2.60855e-23)
(4.85641e-06 -3.48338e-07 0)
(4.99118e-06 -3.36438e-07 0)
(5.12502e-06 -3.26583e-07 0)
(5.25801e-06 -3.17898e-07 0)
(5.39068e-06 -3.09596e-07 0)
(5.52314e-06 -3.0128e-07 0)
(5.65564e-06 -2.9248e-07 0)
(5.78823e-06 -2.829e-07 0)
(5.92099e-06 -2.7223e-07 0)
(6.0539e-06 -2.60213e-07 0)
(6.18693e-06 -2.4658e-07 0)
(6.32e-06 -2.31059e-07 0)
(6.45296e-06 -2.13352e-07 0)
(6.58569e-06 -1.9312e-07 0)
(6.71795e-06 -1.69978e-07 0)
(6.84955e-06 -1.43461e-07 0)
(6.98011e-06 -1.13042e-07 0)
(7.10948e-06 -7.8022e-08 0)
(7.23689e-06 -3.77797e-08 0)
(7.36259e-06 9.27222e-09 5.81345e-23)
(4.59567e-06 -4.61397e-07 0)
(4.75025e-06 -4.4105e-07 0)
(4.90199e-06 -4.24e-07 0)
(5.05099e-06 -4.09336e-07 0)
(5.19811e-06 -3.95873e-07 0)
(5.34361e-06 -3.83041e-07 0)
(5.48794e-06 -3.70168e-07 0)
(5.63131e-06 -3.56805e-07 0)
(5.77393e-06 -3.42514e-07 0)
(5.91591e-06 -3.26919e-07 0)
(6.05732e-06 -3.09654e-07 0)
(6.19818e-06 -2.90351e-07 0)
(6.33845e-06 -2.6862e-07 0)
(6.47804e-06 -2.44028e-07 0)
(6.61682e-06 -2.1609e-07 0)
(6.75467e-06 -1.8423e-07 0)
(6.89126e-06 -1.478e-07 0)
(7.02652e-06 -1.0595e-07 0)
(7.15979e-06 -5.79157e-08 0)
(7.29137e-06 -1.8251e-09 1.04402e-22)
(4.30511e-06 -5.93615e-07 0)
(4.48075e-06 -5.62315e-07 0)
(4.65183e-06 -5.3584e-07 0)
(4.8183e-06 -5.13306e-07 0)
(4.98135e-06 -4.93116e-07 0)
(5.14131e-06 -4.74465e-07 0)
(5.29883e-06 -4.56462e-07 0)
(5.45426e-06 -4.38462e-07 0)
(5.60794e-06 -4.1987e-07 0)
(5.76011e-06 -4.00167e-07 0)
(5.91096e-06 -3.78865e-07 0)
(6.06059e-06 -3.55482e-07 0)
(6.20906e-06 -3.29521e-07 0)
(6.35639e-06 -3.00445e-07 0)
(6.50249e-06 -2.6766e-07 0)
(6.64734e-06 -2.30475e-07 0)
(6.79069e-06 -1.88114e-07 0)
(6.93256e-06 -1.39578e-07 0)
(7.07239e-06 -8.39541e-08 0)
(7.21058e-06 -1.91097e-08 2.60982e-24)
(3.99192e-06 -7.45068e-07 0)
(4.18895e-06 -7.00595e-07 0)
(4.38002e-06 -6.6271e-07 0)
(4.56482e-06 -6.30486e-07 0)
(4.74472e-06 -6.02054e-07 0)
(4.92014e-06 -5.76275e-07 0)
(5.09185e-06 -5.52052e-07 0)
(5.26031e-06 -5.28508e-07 0)
(5.42601e-06 -5.04874e-07 0)
(5.58928e-06 -4.80467e-07 0)
(5.75042e-06 -4.5466e-07 0)
(5.90964e-06 -4.26843e-07 0)
(6.06708e-06 -3.96401e-07 0)
(6.22284e-06 -3.6268e-07 0)
(6.37694e-06 -3.24973e-07 0)
(6.52942e-06 -2.82466e-07 0)
(6.68015e-06 -2.34258e-07 0)
(6.82921e-06 -1.79202e-07 0)
(6.9762e-06 -1.16244e-07 0)
(7.12159e-06 -4.30411e-08 -3.01155e-23)
(3.66278e-06 -9.13914e-07 0)
(3.88065e-06 -8.54209e-07 0)
(4.09161e-06 -8.03224e-07 0)
(4.29519e-06 -7.59608e-07 0)
(4.49253e-06 -7.21499e-07 0)
(4.68416e-06 -6.87379e-07 0)
(4.87082e-06 -6.55942e-07 0)
(5.0531e-06 -6.26054e-07 0)
(5.23155e-06 -5.96742e-07 0)
(5.40663e-06 -5.67139e-07 0)
(5.57872e-06 -5.36455e-07 0)
(5.74814e-06 -5.03937e-07 0)
(5.91512e-06 -4.68839e-07 0)
(6.07986e-06 -4.30386e-07 0)
(6.24245e-06 -3.8775e-07 0)
(6.40304e-06 -3.39996e-07 0)
(6.56158e-06 -2.861e-07 0)
(6.71827e-06 -2.24773e-07 0)
(6.87286e-06 -1.54824e-07 0)
(7.02591e-06 -7.37166e-08 1.84905e-23)
(3.32666e-06 -1.0979e-06 0)
(3.56384e-06 -1.02128e-06 0)
(3.79368e-06 -9.56393e-07 0)
(4.01543e-06 -9.00318e-07 0)
(4.22996e-06 -8.51479e-07 0)
(4.43775e-06 -8.08028e-07 0)
(4.63952e-06 -7.68481e-07 0)
(4.83588e-06 -7.31479e-07 0)
(5.02743e-06 -6.95842e-07 0)
(5.2147e-06 -6.60515e-07 0)
(5.39815e-06 -6.24535e-07 0)
(5.57818e-06 -5.86997e-07 0)
(5.75511e-06 -5.47015e-07 0)
(5.9292e-06 -5.03687e-07 0)
(6.10067e-06 -4.56062e-07 0)
(6.26971e-06 -4.03091e-07 0)
(6.43643e-06 -3.43627e-07 0)
(6.60108e-06 -2.76267e-07 0)
(6.76362e-06 -1.99677e-07 0)
(6.92467e-06 -1.112e-07 5.38595e-23)
(5.50531e-06 0 0)
(5.58771e-06 0 0)
(5.67513e-06 0 0)
(5.76712e-06 0 0)
(5.86319e-06 0 0)
(5.96294e-06 0 0)
(6.06596e-06 0 0)
(6.17186e-06 0 0)
(6.28028e-06 0 0)
(6.39087e-06 0 0)
(6.50328e-06 0 0)
(6.61718e-06 0 0)
(6.73222e-06 0 0)
(6.84804e-06 0 0)
(6.96423e-06 0 0)
(7.08044e-06 0 0)
(7.19611e-06 0 0)
(7.31091e-06 0 0)
(7.42389e-06 0 -1.81581e-26)
(7.53512e-06 0 -2.96896e-23)
(5.47771e-06 -5.19689e-08 0)
(5.56241e-06 -5.2149e-08 0)
(5.65185e-06 -5.23404e-08 0)
(5.74561e-06 -5.23422e-08 0)
(5.84326e-06 -5.21105e-08 0)
(5.94441e-06 -5.16006e-08 0)
(6.04868e-06 -5.07746e-08 0)
(6.15571e-06 -4.96076e-08 0)
(6.26516e-06 -4.80702e-08 0)
(6.3767e-06 -4.61355e-08 0)
(6.48999e-06 -4.37708e-08 0)
(6.6047e-06 -4.09382e-08 0)
(6.72049e-06 -3.75917e-08 0)
(6.83702e-06 -3.36753e-08 0)
(6.9539e-06 -2.91214e-08 0)
(7.07076e-06 -2.38456e-08 0)
(7.18705e-06 -1.77498e-08 0)
(7.30248e-06 -1.07009e-08 0)
(7.41606e-06 -2.58404e-09 0)
(7.5279e-06 6.92972e-09 -6.14791e-23)
(5.39582e-06 -1.08763e-07 0)
(5.48732e-06 -1.08424e-07 0)
(5.58273e-06 -1.08219e-07 0)
(5.68174e-06 -1.07747e-07 0)
(5.78404e-06 -1.06893e-07 0)
(5.88934e-06 -1.05558e-07 0)
(5.99733e-06 -1.03649e-07 0)
(6.10773e-06 -1.01108e-07 0)
(6.22024e-06 -9.78679e-08 0)
(6.33458e-06 -9.38678e-08 0)
(6.45045e-06 -8.90364e-08 0)
(6.56757e-06 -8.32937e-08 0)
(6.68561e-06 -7.6544e-08 0)
(6.80427e-06 -6.8672e-08 0)
(6.92316e-06 -5.95397e-08 0)
(7.04196e-06 -4.89763e-08 0)
(7.16013e-06 -3.67836e-08 0)
(7.27738e-06 -2.26938e-08 0)
(7.39278e-06 -6.47542e-09 0)
(7.50643e-06 1.25233e-08 -1.03997e-22)
(5.26214e-06 -1.7465e-07 0)
(5.36462e-06 -1.7246e-07 0)
(5.46972e-06 -1.70741e-07 0)
(5.57725e-06 -1.68902e-07 0)
(5.68713e-06 -1.66693e-07 0)
(5.79918e-06 -1.63943e-07 0)
(5.91324e-06 -1.60475e-07 0)
(6.02913e-06 -1.5618e-07 0)
(6.14664e-06 -1.50935e-07 0)
(6.26557e-06 -1.44632e-07 0)
(6.38567e-06 -1.37152e-07 0)
(6.50672e-06 -1.28363e-07 0)
(6.62844e-06 -1.18112e-07 0)
(6.75057e-06 -1.0622e-07 0)
(6.87277e-06 -9.24718e-08 0)
(6.99472e-06 -7.66064e-08 0)
(7.11596e-06 -5.83208e-08 0)
(7.2362e-06 -3.72093e-08 0)
(7.35457e-06 -1.29177e-08 0)
(7.4712e-06 1.55241e-08 -1.66996e-23)
(5.08061e-06 -2.53475e-07 0)
(5.19775e-06 -2.47566e-07 0)
(5.31583e-06 -2.42754e-07 0)
(5.43483e-06 -2.38282e-07 0)
(5.55494e-06 -2.33678e-07 0)
(5.67614e-06 -2.28673e-07 0)
(5.79845e-06 -2.22967e-07 0)
(5.9218e-06 -2.16373e-07 0)
(6.04612e-06 -2.08688e-07 0)
(6.17129e-06 -1.99742e-07 0)
(6.29716e-06 -1.89349e-07 0)
(6.42357e-06 -1.77316e-07 0)
(6.55031e-06 -1.63423e-07 0)
(6.67717e-06 -1.47417e-07 0)
(6.80385e-06 -1.29e-07 0)
(6.93012e-06 -1.07814e-07 0)
(7.05552e-06 -8.34473e-08 0)
(7.17984e-06 -5.53495e-08 0)
(7.30224e-06 -2.30369e-08 0)
(7.42292e-06 1.47739e-08 2.60855e-23)
(4.85641e-06 -3.48338e-07 0)
(4.99118e-06 -3.36438e-07 0)
(5.12502e-06 -3.26583e-07 0)
(5.25801e-06 -3.17898e-07 0)
(5.39068e-06 -3.09596e-07 0)
(5.52314e-06 -3.0128e-07 0)
(5.65564e-06 -2.9248e-07 0)
(5.78823e-06 -2.829e-07 0)
(5.92099e-06 -2.7223e-07 0)
(6.0539e-06 -2.60213e-07 0)
(6.18693e-06 -2.4658e-07 0)
(6.32e-06 -2.31059e-07 0)
(6.45296e-06 -2.13352e-07 0)
(6.58569e-06 -1.9312e-07 0)
(6.71795e-06 -1.69978e-07 0)
(6.84955e-06 -1.43461e-07 0)
(6.98011e-06 -1.13042e-07 0)
(7.10948e-06 -7.8022e-08 0)
(7.23689e-06 -3.77797e-08 0)
(7.36259e-06 9.27222e-09 5.81345e-23)
(4.59567e-06 -4.61397e-07 0)
(4.75025e-06 -4.4105e-07 0)
(4.90199e-06 -4.24e-07 0)
(5.05099e-06 -4.09336e-07 0)
(5.19811e-06 -3.95873e-07 0)
(5.34361e-06 -3.83041e-07 0)
(5.48794e-06 -3.70168e-07 0)
(5.63131e-06 -3.56805e-07 0)
(5.77393e-06 -3.42514e-07 0)
(5.91591e-06 -3.26919e-07 0)
(6.05732e-06 -3.09654e-07 0)
(6.19818e-06 -2.90351e-07 0)
(6.33845e-06 -2.6862e-07 0)
(6.47804e-06 -2.44028e-07 0)
(6.61682e-06 -2.1609e-07 0)
(6.75467e-06 -1.8423e-07 0)
(6.89126e-06 -1.478e-07 0)
(7.02652e-06 -1.0595e-07 0)
(7.15979e-06 -5.79157e-08 0)
(7.29137e-06 -1.8251e-09 1.04402e-22)
(4.30511e-06 -5.93615e-07 0)
(4.48075e-06 -5.62315e-07 0)
(4.65183e-06 -5.3584e-07 0)
(4.8183e-06 -5.13306e-07 0)
(4.98135e-06 -4.93116e-07 0)
(5.14131e-06 -4.74465e-07 0)
(5.29883e-06 -4.56462e-07 0)
(5.45426e-06 -4.38462e-07 0)
(5.60794e-06 -4.1987e-07 0)
(5.76011e-06 -4.00167e-07 0)
(5.91096e-06 -3.78865e-07 0)
(6.06059e-06 -3.55482e-07 0)
(6.20906e-06 -3.29521e-07 0)
(6.35639e-06 -3.00445e-07 0)
(6.50249e-06 -2.6766e-07 0)
(6.64734e-06 -2.30475e-07 0)
(6.79069e-06 -1.88114e-07 0)
(6.93256e-06 -1.39578e-07 0)
(7.07239e-06 -8.39541e-08 0)
(7.21058e-06 -1.91097e-08 2.60982e-24)
(3.99192e-06 -7.45068e-07 0)
(4.18895e-06 -7.00595e-07 0)
(4.38002e-06 -6.6271e-07 0)
(4.56482e-06 -6.30486e-07 0)
(4.74472e-06 -6.02054e-07 0)
(4.92014e-06 -5.76275e-07 0)
(5.09185e-06 -5.52052e-07 0)
(5.26031e-06 -5.28508e-07 0)
(5.42601e-06 -5.04874e-07 0)
(5.58928e-06 -4.80467e-07 0)
(5.75042e-06 -4.5466e-07 0)
(5.90964e-06 -4.26843e-07 0)
(6.06708e-06 -3.96401e-07 0)
(6.22284e-06 -3.6268e-07 0)
(6.37694e-06 -3.24973e-07 0)
(6.52942e-06 -2.82466e-07 0)
(6.68015e-06 -2.34258e-07 0)
(6.82921e-06 -1.79202e-07 0)
(6.9762e-06 -1.16244e-07 0)
(7.12159e-06 -4.30411e-08 -3.01155e-23)
(3.66278e-06 -9.13914e-07 0)
(3.88065e-06 -8.54209e-07 0)
(4.09161e-06 -8.03224e-07 0)
(4.29519e-06 -7.59608e-07 0)
(4.49253e-06 -7.21499e-07 0)
(4.68416e-06 -6.87379e-07 0)
(4.87082e-06 -6.55942e-07 0)
(5.0531e-06 -6.26054e-07 0)
(5.23155e-06 -5.96742e-07 0)
(5.40663e-06 -5.67139e-07 0)
(5.57872e-06 -5.36455e-07 0)
(5.74814e-06 -5.03937e-07 0)
(5.91512e-06 -4.68839e-07 0)
(6.07986e-06 -4.30386e-07 0)
(6.24245e-06 -3.8775e-07 0)
(6.40304e-06 -3.39996e-07 0)
(6.56158e-06 -2.861e-07 0)
(6.71827e-06 -2.24773e-07 0)
(6.87286e-06 -1.54824e-07 0)
(7.02591e-06 -7.37166e-08 1.84905e-23)
(3.32666e-06 -1.0979e-06 0)
(3.56384e-06 -1.02128e-06 0)
(3.79368e-06 -9.56393e-07 0)
(4.01543e-06 -9.00318e-07 0)
(4.22996e-06 -8.51479e-07 0)
(4.43775e-06 -8.08028e-07 0)
(4.63952e-06 -7.68481e-07 0)
(4.83588e-06 -7.31479e-07 0)
(5.02743e-06 -6.95842e-07 0)
(5.2147e-06 -6.60515e-07 0)
(5.39815e-06 -6.24535e-07 0)
(5.57818e-06 -5.86997e-07 0)
(5.75511e-06 -5.47015e-07 0)
(5.9292e-06 -5.03687e-07 0)
(6.10067e-06 -4.56062e-07 0)
(6.26971e-06 -4.03091e-07 0)
(6.43643e-06 -3.43627e-07 0)
(6.60108e-06 -2.76267e-07 0)
(6.76362e-06 -1.99677e-07 0)
(6.92467e-06 -1.112e-07 5.38595e-23)
(2.92227e-06 -1.33202e-06 0)
(3.17244e-06 -1.23911e-06 0)
(3.41312e-06 -1.15696e-06 0)
(3.64625e-06 -1.08592e-06 0)
(3.87198e-06 -1.02328e-06 0)
(4.09068e-06 -9.6766e-07 0)
(4.30278e-06 -9.17479e-07 0)
(4.5088e-06 -8.71362e-07 0)
(4.70926e-06 -8.28036e-07 0)
(4.90468e-06 -7.86357e-07 0)
(5.09552e-06 -7.45275e-07 0)
(5.28224e-06 -7.03814e-07 0)
(5.4652e-06 -6.61048e-07 0)
(5.64475e-06 -6.16066e-07 0)
(5.8212e-06 -5.67944e-07 0)
(5.99477e-06 -5.15719e-07 0)
(6.16574e-06 -4.58338e-07 0)
(6.33429e-06 -3.94676e-07 0)
(6.50075e-06 -3.23359e-07 0)
(6.66522e-06 -2.43136e-07 0)
(6.82838e-06 -1.5145e-07 5.61909e-23)
(2.78685e-06 -1.46984e-06 0)
(3.03517e-06 -1.37548e-06 0)
(3.27596e-06 -1.28958e-06 0)
(3.51016e-06 -1.21351e-06 0)
(3.73771e-06 -1.14523e-06 0)
(3.95874e-06 -1.08362e-06 0)
(4.1735e-06 -1.02733e-06 0)
(4.38234e-06 -9.75124e-07 0)
(4.58567e-06 -9.25843e-07 0)
(4.7839e-06 -8.78394e-07 0)
(4.97743e-06 -8.31762e-07 0)
(5.16666e-06 -7.84985e-07 0)
(5.35196e-06 -7.37137e-07 0)
(5.53365e-06 -6.87308e-07 0)
(5.71204e-06 -6.34574e-07 0)
(5.88742e-06 -5.77978e-07 0)
(6.06008e-06 -5.16491e-07 0)
(6.23027e-06 -4.49024e-07 0)
(6.39839e-06 -3.74274e-07 0)
(6.56465e-06 -2.91079e-07 0)
(6.72979e-06 -1.971e-07 1.14398e-22)
(2.66852e-06 -1.60327e-06 0)
(2.91352e-06 -1.50758e-06 0)
(3.15225e-06 -1.41902e-06 0)
(3.38555e-06 -1.33905e-06 0)
(3.61302e-06 -1.26609e-06 0)
(3.83466e-06 -1.19927e-06 0)
(4.05052e-06 -1.1375e-06 0)
(4.26081e-06 -1.07971e-06 0)
(4.46579e-06 -1.02485e-06 0)
(4.66578e-06 -9.71927e-07 0)
(4.86111e-06 -9.19973e-07 0)
(5.05212e-06 -8.68064e-07 0)
(5.23913e-06 -8.15299e-07 0)
(5.42245e-06 -7.60785e-07 0)
(5.60241e-06 -7.03619e-07 0)
(5.77928e-06 -6.42871e-07 0)
(5.95341e-06 -5.77551e-07 0)
(6.12507e-06 -5.06627e-07 0)
(6.29472e-06 -4.28889e-07 0)
(6.46266e-06 -3.43276e-07 0)
(6.62965e-06 -2.47688e-07 1.65094e-22)
(2.5644e-06 -1.73106e-06 0)
(2.80494e-06 -1.63495e-06 0)
(3.0403e-06 -1.54464e-06 0)
(3.2713e-06 -1.46165e-06 0)
(3.49731e-06 -1.38481e-06 0)
(3.71822e-06 -1.31352e-06 0)
(3.93391e-06 -1.2469e-06 0)
(4.14449e-06 -1.18406e-06 0)
(4.35009e-06 -1.12408e-06 0)
(4.55094e-06 -1.06606e-06 0)
(4.74728e-06 -1.0091e-06 0)
(4.93938e-06 -9.52337e-07 0)
(5.12754e-06 -8.94908e-07 0)
(5.31204e-06 -8.35956e-07 0)
(5.49317e-06 -7.74614e-07 0)
(5.67124e-06 -7.09995e-07 0)
(5.84659e-06 -6.41164e-07 0)
(6.01953e-06 -5.67162e-07 0)
(6.19054e-06 -4.86885e-07 0)
(6.36002e-06 -3.99387e-07 0)
(6.52869e-06 -3.02823e-07 1.44844e-22)
(2.47259e-06 -1.85317e-06 0)
(2.70779e-06 -1.75719e-06 0)
(2.93887e-06 -1.66589e-06 0)
(3.16652e-06 -1.58069e-06 0)
(3.38999e-06 -1.50076e-06 0)
(3.6091e-06 -1.42573e-06 0)
(3.82361e-06 -1.35492e-06 0)
(4.03352e-06 -1.2876e-06 0)
(4.23886e-06 -1.22299e-06 0)
(4.43976e-06 -1.1603e-06 0)
(4.6364e-06 -1.09871e-06 0)
(4.82899e-06 -1.03742e-06 0)
(5.01778e-06 -9.75631e-07 0)
(5.20301e-06 -9.12531e-07 0)
(5.38497e-06 -8.47301e-07 0)
(5.56394e-06 -7.79112e-07 0)
(5.74027e-06 -7.07096e-07 0)
(5.9143e-06 -6.30379e-07 0)
(6.08651e-06 -5.47973e-07 0)
(6.25736e-06 -4.59055e-07 0)
(6.42755e-06 -3.62047e-07 1.46145e-22)
(2.3909e-06 -1.96958e-06 0)
(2.62032e-06 -1.87425e-06 0)
(2.84653e-06 -1.78255e-06 0)
(3.07013e-06 -1.69578e-06 0)
(3.2903e-06 -1.61345e-06 0)
(3.5068e-06 -1.53533e-06 0)
(3.71933e-06 -1.46094e-06 0)
(3.92778e-06 -1.38971e-06 0)
(4.13212e-06 -1.32098e-06 0)
(4.33241e-06 -1.25408e-06 0)
(4.52875e-06 -1.18827e-06 0)