/*--------------------------------*- C++ -*----------------------------------*\
| =========                 |                                                 |
| \\      /  F ield         | foam-extend: Open Source CFD                    |
|  \\    /   O peration     | Version:     4.1                                |
|   \\  /    A nd           | Web:         http://www.foam-extend.org         |
|    \\/     M anipulation  |                                                 |
\*---------------------------------------------------------------------------*/
FoamFile
{
    version     2.0;
    format      ascii;
    class       volScalarField;
    location    "6";
    object      sigmaHyd;
}
// * * * * * * * * * * * * * * * * * * * * * * * * * * * * * * * * * * * * * //

dimensions      [1 -1 -2 0 0 0 0];

internalField   nonuniform List<scalar> 
1000
(
-327821
-313815
-310142
-303505
-300179
-296397
-293978
-291462
-290273
-286790
-421265
-389364
-374724
-357855
-347061
-336686
-328991
-321793
-316694
-309433
-511196
-462086
-436908
-410215
-392272
-375574
-362883
-351128
-342432
-331343
-595422
-530178
-495108
-459198
-434519
-411896
-394442
-378543
-366300
-352330
-671897
-591999
-547944
-503669
-472879
-444886
-423109
-403466
-387986
-371543
-738745
-646029
-594109
-542520
-506377
-473696
-448120
-425244
-406874
-388439
-794316
-690932
-632466
-574796
-534200
-497623
-468879
-443326
-422516
-402505
-837237
-725622
-662103
-599740
-555703
-516121
-484922
-457311
-434585
-413410
-866414
-749187
-682224
-616661
-570279
-528649
-495775
-466765
-442719
-420772
-881212
-761346
-692780
-625666
-578136
-535484
-501763
-472039
-447312
-424964
325222
213632
140346
75367.3
26448.7
-15749.5
-49938.1
-79734.5
-104622
-127384
310038
201145
129431
66056.7
18323.2
-22808.9
-56110.8
-85154.6
-109323
-131661
280477
177333
109152
49046.5
3710.94
-35327.3
-66909.6
-94513.5
-117312
-138859
236939
142241
79244.1
23934.8
-17883.8
-53847.3
-82910.6
-108396
-129208
-149564
180642
96861.6
40575.8
-8529.95
-45803
-77792
-103616
-126357
-144652
-163405
113020
42321.2
-5925.69
-47587.1
-79407.3
-106621
-128567
-147996
-163319
-180041
35810.5
-19986.5
-59083.9
-92258.9
-117877
-139640
-157204
-172815
-184861
-199064
-49040.6
-88492.9
-117556
-141407
-160207
-175969
-188706
-200091
-208539
-219765
-139426
-161517
-179943
-193893
-205494
-214880
-222610
-229358
-234313
-241480
-233108
-237224
-244628
-248305
-252403
-255162
-257580
-259609
-260571
-263857
-145871
-163499
-179030
-193452
-206735
-219179
-230939
-242158
-252976
-263500
-273837
-284091
-294327
-304695
-315159
-326054
-336995
-349014
-360410
-374804
-149393
-166128
-181150
-195023
-207938
-220025
-231515
-242483
-253093
-263427
-273592
-283687
-293771
-303991
-314308
-325052
-335839
-347689
-358913
-373098
-155130
-170271
-184428
-197343
-209646
-221127
-232167
-242715
-252978
-262989
-272867
-282688
-292511
-302473
-312531
-323007
-333517
-345062
-355976
-369771
-163793
-176461
-189393
-200849
-212253
-222822
-233191
-243114
-252860
-262398
-271851
-281272
-290716
-300302
-309986
-320072
-330180
-341278
-351739
-364962
-175200
-184540
-196001
-205557
-215825
-225230
-234740
-243867
-252946
-261874
-270776
-279677
-288623
-297717
-306907
-316478
-326056
-336563
-346427
-358887
-189176
-194306
-204058
-211281
-220140
-228134
-236577
-244747
-253020
-261227
-269481
-277780
-286151
-294679
-303301
-312277
-321239
-331050
-340206
-351749
-205581
-205861
-213757
-218453
-225686
-232157
-239369
-246468
-253800
-261168
-268649
-276223
-283899
-291741
-299675
-307932
-316153
-325128
-333443
-343890
-223592
-218518
-223995
-226042
-231229
-236042
-241818
-247759
-254079
-260585
-267292
-274159
-281163
-288343
-295609
-303155
-310634
-318753
-326193
-335473
-243522
-233939
-236359
-236239
-239158
-242369
-246581
-251236
-256361
-261804
-267522
-273469
-279591
-285909
-292317
-298971
-305537
-312623
-319034
-326965
-260211
-249314
-246487
-244195
-244200
-245513
-248057
-251474
-255600
-260246
-265292
-270645
-276213
-281980
-287819
-293844
-299733
-305997
-311577
-318359
-276202
-267694
-260745
-256534
-254497
-254038
-254957
-256894
-259669
-263078
-266986
-271278
-275845
-280642
-285534
-290586
-295496
-300652
-305116
-310431
-282863
-274591
-268057
-263751
-261307
-260282
-260488
-261640
-263580
-266129
-269161
-272563
-276226
-280094
-284033
-288076
-291949
-295951
-299278
-303186
-289593
-280885
-274369
-269516
-266486
-264756
-264240
-264647
-265843
-267649
-269941
-272605
-275529
-278643
-281818
-285054
-288107
-291189
-293626
-296388
-293327
-284759
-278719
-273826
-270635
-268548
-267578
-267446
-268052
-269230
-270869
-272856
-275085
-277479
-279915
-282370
-284629
-286831
-288425
-290126
-295051
-286912
-281403
-276588
-273356
-271044
-269760
-269229
-269383
-270066
-271178
-272611
-274264
-276056
-277872
-279671
-281267
-282733
-283633
-284453
-295177
-287619
-282721
-278175
-275077
-272717
-271278
-270491
-270318
-270616
-271299
-272266
-273424
-274692
-275965
-277188
-278202
-279031
-279341
-279421
-293990
-287152
-282876
-278696
-275814
-273513
-272022
-271087
-270694
-270710
-271064
-271663
-272421
-273262
-274088
-274838
-275379
-275692
-275534
-275034
-291812
-285753
-282105
-278371
-275783
-273638
-272192
-271205
-270684
-270507
-270618
-270931
-271371
-271864
-272327
-272691
-272850
-272752
-272234
-271293
-288844
-283601
-280572
-277331
-275084
-273161
-271830
-270869
-270296
-270005
-269950
-270054
-270254
-270481
-270663
-270730
-270598
-270193
-269419
-268172
-285283
-280864
-278443
-275728
-273858
-272213
-271054
-270181
-269622
-269283
-269128
-269092
-269120
-269151
-269123
-268970
-268629
-268010
-267071
-265637
-281271
-277672
-275848
-273676
-272210
-270880
-269938
-269204
-268711
-268379
-268182
-268063
-267979
-267877
-267706
-267404
-266926
-266176
-265153
-263637
-276923
-274141
-272902
-271286
-270241
-269258
-268568
-268013
-267629
-267349
-267156
-267004
-266859
-266676
-266418
-266028
-265476
-264667
-263629
-262119
-272348
-270359
-269710
-268659
-268050
-267436
-267022
-266676
-266434
-266241
-266088
-265940
-265775
-265556
-265257
-264830
-264257
-263448
-262452
-261021
-267594
-266425
-266350
-265870
-265708
-265480
-265365
-265251
-265174
-265094
-265009
-264896
-264741
-264520
-264216
-263792
-263242
-262482
-261574
-260281
-262793
-262339
-262926
-263038
-263327
-263499
-263688
-263819
-263919
-263966
-263964
-263902
-263777
-263576
-263294
-262903
-262406
-261734
-260949
-259839
-257879
-258359
-259479
-260165
-260924
-261504
-262016
-262402
-262691
-262874
-262963
-262961
-262877
-262710
-262467
-262131
-261713
-261157
-260523
-259630
-253180
-254640
-256169
-257595
-258703
-259701
-260508
-261140
-261603
-261910
-262079
-262129
-262079
-261944
-261741
-261467
-261141
-260720
-260257
-259604
-248292
-250473
-252806
-254761
-256492
-257912
-259069
-259953
-260597
-261022
-261263
-261354
-261330
-261220
-261057
-260851
-260627
-260357
-260084
-259687
-244053
-247057
-250117
-252651
-254851
-256651
-258088
-259171
-259939
-260430
-260693
-260778
-260736
-260616
-260463
-260305
-260177
-260059
-259991
-259848
-239083
-243269
-247021
-250273
-253053
-255313
-257090
-258403
-259307
-259856
-260122
-260175
-260090
-259936
-259781
-259671
-259649
-259706
-259852
-259947
-406168
-402628
-396510
-387338
-375335
-360681
-343723
-325065
-305399
-286648
-389085
-386496
-382172
-375734
-367389
-357250
-345493
-332108
-317187
-297597
-373744
-371585
-368018
-362646
-355611
-346988
-337049
-325961
-314583
-300607
-359783
-358158
-355561
-351647
-346514
-340159
-332698
-324022
-314583
-302968
-346880
-345579
-343541
-340448
-336374
-331332
-325449
-318783
-311482
-303224
-334947
-333979
-332529
-330309
-327349
-323639
-319168
-314082
-308082
-302122
-323718
-322990
-321951
-320345
-318175
-315462
-312116
-308451
-303746
-299800
-313124
-312622
-311972
-310943
-309499
-307672
-305265
-302719
-299023
-296579
-302993
-302673
-302333
-301768
-300915
-299827
-298232
-296661
-293907
-292648
-293248
-293095
-293039
-292896
-292574
-292131
-291240
-290474
-288547
-288201
-283780
-283773
-283965
-284191
-284337
-284465
-284211
-284148
-282989
-283368
-274500
-274628
-275052
-275620
-276201
-276845
-277176
-277731
-277283
-278254
-265347
-265602
-266243
-267130
-268118
-269244
-270130
-271251
-271479
-272956
-256194
-256571
-257424
-258621
-260007
-261596
-263023
-264683
-265567
-267510
-247069
-247566
-248629
-250131
-251912
-253960
-255922
-258115
-259645
-262039
-237691
-238310
-239589
-241406
-243596
-246116
-248637
-251377
-253582
-256443
-228383
-229127
-230629
-232769
-235378
-238387
-241479
-244805
-247678
-251157
-218281
-219161
-220909
-223407
-226484
-230037
-233773
-237732
-241385
-245334
-208813
-209833
-211831
-214694
-218247
-222359
-226748
-231375
-235798
-240332
-196948
-198140
-200453
-203776
-207936
-212769
-218007
-223519
-228956
-234309
)
;

boundaryField
{
    left
    {
        type            symmetryPlane;
        value           nonuniform List<scalar> 
30
(
-406168
-389085
-373744
-359783
-346880
-334947
-323718
-313124
-302993
-293248
-283780
-274500
-265347
-256194
-247069
-237691
-228383
-218281
-208813
-196948
-881212
-761346
-692780
-625666
-578136
-535484
-501763
-472039
-447312
-424964
)
;
    }
    right
    {
        type            zeroGradient;
    }
    down
    {
        type            symmetryPlane;
        value           nonuniform List<scalar> 
30
(
325222
213632
140346
75367.3
26448.7
-15749.5
-49938.1
-79734.5
-104622
-127384
-145871
-163499
-179030
-193452
-206735
-219179
-230939
-242158
-252976
-263500
-273837
-284091
-294327
-304695
-315159
-326054
-336995
-349014
-360410
-374804
)
;
    }
    up
    {
        type            zeroGradient;
    }
    hole
    {
        type            zeroGradient;
    }
    frontAndBack
    {
        type            empty;
    }
}


// ************************************************************************* //
