/*--------------------------------*- C++ -*----------------------------------*\
| =========                 |                                                 |
| \\      /  F ield         | foam-extend: Open Source CFD                    |
|  \\    /   O peration     | Version:     4.1                                |
|   \\  /    A nd           | Web:         http://www.foam-extend.org         |
|    \\/     M anipulation  |                                                 |
\*---------------------------------------------------------------------------*/
FoamFile
{
    version     2.0;
    format      ascii;
    class       vectorField;
    location    "6";
    object      solidsCellD_iteration13;
}
// * * * * * * * * * * * * * * * * * * * * * * * * * * * * * * * * * * * * * //


1000
(
(3.11002e-06 -1.3157e-06 0)
(2.9342e-06 -1.22443e-06 0)
(2.82189e-06 -1.16656e-06 0)
(2.75737e-06 -1.13963e-06 0)
(2.72581e-06 -1.1304e-06 0)
(2.71833e-06 -1.13483e-06 0)
(2.72857e-06 -1.14817e-06 0)
(2.75207e-06 -1.16818e-06 0)
(2.78568e-06 -1.19265e-06 0)
(2.82683e-06 -1.2202e-06 0)
(2.81195e-06 -1.43723e-06 0)
(2.62478e-06 -1.37377e-06 0)
(2.5053e-06 -1.33349e-06 0)
(2.43549e-06 -1.31851e-06 0)
(2.39978e-06 -1.31722e-06 0)
(2.38856e-06 -1.32725e-06 0)
(2.39522e-06 -1.34458e-06 0)
(2.41503e-06 -1.36756e-06 0)
(2.44466e-06 -1.39445e-06 0)
(2.4811e-06 -1.4236e-06 0)
(2.50231e-06 -1.55238e-06 0)
(2.31112e-06 -1.52003e-06 0)
(2.18911e-06 -1.49944e-06 0)
(2.117e-06 -1.49766e-06 0)
(2.07908e-06 -1.50501e-06 0)
(2.0653e-06 -1.521e-06 0)
(2.06907e-06 -1.54248e-06 0)
(2.08562e-06 -1.56841e-06 0)
(2.11156e-06 -1.59762e-06 0)
(2.14403e-06 -1.62835e-06 0)
(2.18334e-06 -1.65915e-06 0)
(1.99618e-06 -1.65941e-06 0)
(1.87675e-06 -1.6595e-06 0)
(1.80553e-06 -1.67147e-06 0)
(1.76736e-06 -1.68778e-06 0)
(1.75226e-06 -1.70988e-06 0)
(1.75378e-06 -1.73553e-06 0)
(1.7674e-06 -1.7644e-06 0)
(1.78985e-06 -1.79582e-06 0)
(1.8183e-06 -1.82825e-06 0)
(1.85733e-06 -1.75543e-06 0)
(1.68208e-06 -1.78801e-06 0)
(1.5703e-06 -1.80857e-06 0)
(1.50327e-06 -1.83414e-06 0)
(1.46685e-06 -1.85926e-06 0)
(1.45156e-06 -1.88736e-06 0)
(1.45153e-06 -1.91705e-06 0)
(1.46251e-06 -1.94878e-06 0)
(1.48158e-06 -1.98234e-06 0)
(1.50593e-06 -2.01654e-06 0)
(1.52574e-06 -1.83926e-06 0)
(1.37022e-06 -1.90207e-06 0)
(1.27106e-06 -1.94182e-06 0)
(1.21127e-06 -1.98011e-06 0)
(1.17844e-06 -2.01345e-06 0)
(1.1641e-06 -2.04713e-06 0)
(1.16318e-06 -2.08055e-06 0)
(1.17181e-06 -2.11493e-06 0)
(1.18749e-06 -2.15046e-06 0)
(1.20758e-06 -2.18639e-06 0)
(1.19029e-06 -1.90875e-06 0)
(1.06133e-06 -1.99806e-06 0)
(9.79123e-07 -2.05463e-06 0)
(9.29372e-07 -2.10407e-06 0)
(9.0187e-07 -2.1446e-06 0)
(8.89565e-07 -2.18314e-06 0)
(8.88278e-07 -2.21982e-06 0)
(8.94749e-07 -2.25653e-06 0)
(9.06983e-07 -2.29377e-06 0)
(9.22689e-07 -2.33126e-06 0)
(8.52076e-07 -1.96236e-06 0)
(7.55463e-07 -2.07297e-06 0)
(6.93911e-07 -2.14303e-06 0)
(6.56601e-07 -2.20137e-06 0)
(6.35893e-07 -2.24769e-06 0)
(6.26464e-07 -2.29015e-06 0)
(6.25199e-07 -2.32947e-06 0)
(6.29657e-07 -2.36808e-06 0)
(6.38406e-07 -2.40668e-06 0)
(6.49663e-07 -2.44548e-06 0)
(5.12021e-07 -1.99881e-06 0)
(4.52209e-07 -2.12428e-06 0)
(4.14141e-07 -2.20377e-06 0)
(3.90991e-07 -2.26839e-06 0)
(3.78064e-07 -2.31875e-06 0)
(3.72104e-07 -2.36393e-06 0)
(3.71222e-07 -2.4051e-06 0)
(3.73864e-07 -2.44508e-06 0)
(3.79113e-07 -2.48466e-06 0)
(3.85867e-07 -2.5244e-06 0)
(1.71002e-07 -2.01717e-06 0)
(1.5075e-07 -2.15033e-06 0)
(1.37783e-07 -2.23468e-06 0)
(1.29902e-07 -2.30252e-06 0)
(1.25539e-07 -2.35497e-06 0)
(1.23491e-07 -2.40158e-06 0)
(1.23113e-07 -2.44369e-06 0)
(1.23963e-07 -2.48434e-06 0)
(1.25725e-07 -2.52443e-06 0)
(1.27971e-07 -2.56468e-06 0)
(4.85448e-06 -6.00203e-08 0)
(4.89822e-06 -4.32322e-08 0)
(4.92464e-06 -3.25889e-08 0)
(4.95316e-06 -2.63232e-08 0)
(4.9843e-06 -2.28376e-08 0)
(5.02251e-06 -2.12511e-08 0)
(5.0678e-06 -2.09417e-08 0)
(5.12064e-06 -2.14075e-08 0)
(5.18096e-06 -2.25205e-08 0)
(5.2479e-06 -2.38864e-08 0)
(4.81847e-06 -1.80094e-07 0)
(4.85493e-06 -1.30705e-07 0)
(4.8768e-06 -9.94081e-08 0)
(4.90224e-06 -8.11178e-08 0)
(4.93134e-06 -7.10483e-08 0)
(4.96808e-06 -6.63903e-08 0)
(5.01235e-06 -6.55235e-08 0)
(5.06436e-06 -6.7133e-08 0)
(5.12394e-06 -7.05125e-08 0)
(5.19012e-06 -7.45179e-08 0)
(4.74663e-06 -3.01147e-07 0)
(4.76916e-06 -2.21895e-07 0)
(4.78224e-06 -1.71713e-07 0)
(4.80184e-06 -1.42332e-07 0)
(4.82708e-06 -1.26263e-07 0)
(4.86111e-06 -1.19063e-07 0)
(4.90334e-06 -1.17898e-07 0)
(4.95375e-06 -1.20667e-07 0)
(5.01192e-06 -1.26261e-07 0)
(5.07663e-06 -1.32959e-07 0)
(4.64021e-06 -4.23771e-07 0)
(4.64293e-06 -3.18896e-07 0)
(4.64344e-06 -2.52591e-07 0)
(4.65474e-06 -2.13946e-07 0)
(4.67446e-06 -1.92894e-07 0)
(4.70464e-06 -1.83652e-07 0)
(4.74401e-06 -1.82418e-07 0)
(4.79214e-06 -1.86498e-07 0)
(4.84833e-06 -1.94314e-07 0)
(4.91098e-06 -2.03717e-07 0)
(4.50082e-06 -5.48253e-07 0)
(4.4791e-06 -4.23478e-07 0)
(4.46407e-06 -3.44614e-07 0)
(4.46507e-06 -2.98977e-07 0)
(4.47798e-06 -2.74332e-07 0)
(4.50334e-06 -2.63885e-07 0)
(4.53915e-06 -2.63023e-07 0)
(4.58441e-06 -2.68607e-07 0)
(4.63815e-06 -2.78626e-07 0)
(4.69832e-06 -2.90689e-07 0)
(4.33057e-06 -6.74688e-07 0)
(4.28116e-06 -5.36821e-07 0)
(4.24862e-06 -4.49654e-07 0)
(4.238e-06 -3.99704e-07 0)
(4.24316e-06 -3.73117e-07 0)
(4.26301e-06 -3.62446e-07 0)
(4.29479e-06 -3.62463e-07 0)
(4.33678e-06 -3.69742e-07 0)
(4.38769e-06 -3.81961e-07 0)
(4.44505e-06 -3.96646e-07 0)
(4.132e-06 -8.02832e-07 0)
(4.05333e-06 -6.59396e-07 0)
(4.00227e-06 -5.68664e-07 0)
(3.97936e-06 -5.17375e-07 0)
(3.97631e-06 -4.9063e-07 0)
(3.99032e-06 -4.80809e-07 0)
(4.01777e-06 -4.82275e-07 0)
(4.05622e-06 -4.91465e-07 0)
(4.10404e-06 -5.05894e-07 0)
(4.15844e-06 -5.23116e-07 0)
(3.90774e-06 -9.32059e-07 0)
(3.80008e-06 -7.9089e-07 0)
(3.7307e-06 -7.01522e-07 0)
(3.69554e-06 -6.52002e-07 0)
(3.68433e-06 -6.26976e-07 0)
(3.69243e-06 -6.19142e-07 0)
(3.7154e-06 -6.22675e-07 0)
(3.75019e-06 -6.34084e-07 0)
(3.79474e-06 -6.50769e-07 0)
(3.84605e-06 -6.70496e-07 0)
(3.66071e-06 -1.06149e-06 0)
(3.5261e-06 -9.302e-07 0)
(3.43971e-06 -8.4708e-07 0)
(3.39308e-06 -8.02378e-07 0)
(3.37413e-06 -7.80948e-07 0)
(3.37647e-06 -7.76186e-07 0)
(3.39497e-06 -7.8241e-07 0)
(3.42605e-06 -7.96297e-07 0)
(3.46718e-06 -8.15411e-07 0)
(3.51543e-06 -8.37414e-07 0)
(3.39385e-06 -1.18991e-06 0)
(3.23607e-06 -1.07555e-06 0)
(3.13504e-06 -1.00312e-06 0)
(3.07841e-06 -9.661e-07 0)
(3.05255e-06 -9.50021e-07 0)
(3.04966e-06 -9.49387e-07 0)
(3.06402e-06 -9.58908e-07 0)
(3.09142e-06 -9.75742e-07 0)
(3.1292e-06 -9.97409e-07 0)
(3.17411e-06 -1.02272e-06 0)
(5.32168e-06 -2.52107e-08 0)
(5.40209e-06 -2.54971e-08 0)
(5.48762e-06 -2.58318e-08 0)
(5.57796e-06 -2.60698e-08 0)
(5.67255e-06 -2.619e-08 0)
(5.77104e-06 -2.6178e-08 0)
(5.87297e-06 -2.59857e-08 0)
(5.97795e-06 -2.56428e-08 0)
(6.08567e-06 -2.51581e-08 0)
(6.19581e-06 -2.44956e-08 0)
(6.30802e-06 -2.36238e-08 0)
(6.42196e-06 -2.25317e-08 0)
(6.53733e-06 -2.12066e-08 0)
(6.65377e-06 -1.96387e-08 0)
(6.77099e-06 -1.78051e-08 0)
(6.88855e-06 -1.56638e-08 0)
(7.00622e-06 -1.31601e-08 0)
(7.12323e-06 -1.02438e-08 0)
(7.23972e-06 -6.85015e-09 0)
(7.35386e-06 -2.95465e-09 0)
(5.26646e-06 -7.81926e-08 0)
(5.35149e-06 -7.87065e-08 0)
(5.44115e-06 -7.94011e-08 0)
(5.53509e-06 -7.98512e-08 0)
(5.6329e-06 -7.99399e-08 0)
(5.7342e-06 -7.96956e-08 0)
(5.83868e-06 -7.90326e-08 0)
(5.94599e-06 -7.79501e-08 0)
(6.05583e-06 -7.63809e-08 0)
(6.16788e-06 -7.42547e-08 0)
(6.28184e-06 -7.15435e-08 0)
(6.39741e-06 -6.82333e-08 0)
(6.51432e-06 -6.42632e-08 0)
(6.63223e-06 -5.95565e-08 0)
(6.75084e-06 -5.40203e-08 0)
(6.86972e-06 -4.75501e-08 0)
(6.98865e-06 -4.00111e-08 0)
(7.10688e-06 -3.12664e-08 0)
(7.22458e-06 -2.11059e-08 0)
(7.33987e-06 -9.44268e-09 0)
(5.15796e-06 -1.38245e-07 0)
(5.25208e-06 -1.37966e-07 0)
(5.34984e-06 -1.38074e-07 0)
(5.45076e-06 -1.3803e-07 0)
(5.55482e-06 -1.37545e-07 0)
(5.6617e-06 -1.36645e-07 0)
(5.77122e-06 -1.35121e-07 0)
(5.88303e-06 -1.32946e-07 0)
(5.99697e-06 -1.30009e-07 0)
(6.11276e-06 -1.26233e-07 0)
(6.23018e-06 -1.21568e-07 0)
(6.34898e-06 -1.15953e-07 0)
(6.46888e-06 -1.09255e-07 0)
(6.58958e-06 -1.01336e-07 0)
(6.71084e-06 -9.20511e-08 0)
(6.83226e-06 -8.12355e-08 0)
(6.95366e-06 -6.86641e-08 0)
(7.07431e-06 -5.41077e-08 0)
(7.19439e-06 -3.72055e-08 0)
(7.31208e-06 -1.7799e-08 0)
(4.99943e-06 -2.09367e-07 0)
(5.10653e-06 -2.06687e-07 0)
(5.21599e-06 -2.04745e-07 0)
(5.32711e-06 -2.03091e-07 0)
(5.44034e-06 -2.01101e-07 0)
(5.55532e-06 -1.98805e-07 0)
(5.67216e-06 -1.95812e-07 0)
(5.79057e-06 -1.92079e-07 0)
(5.91056e-06 -1.87418e-07 0)
(6.03191e-06 -1.81715e-07 0)
(6.15444e-06 -1.74862e-07 0)
(6.27796e-06 -1.66734e-07 0)
(6.40226e-06 -1.57145e-07 0)
(6.5271e-06 -1.45912e-07 0)
(6.65228e-06 -1.3284e-07 0)
(6.77745e-06 -1.17677e-07 0)
(6.90245e-06 -1.00105e-07 0)
(7.02661e-06 -7.97841e-08 0)
(7.15012e-06 -5.61925e-08 0)
(7.27126e-06 -2.91283e-08 0)
(4.79564e-06 -2.95094e-07 0)
(4.91907e-06 -2.87954e-07 0)
(5.0434e-06 -2.82116e-07 0)
(5.16742e-06 -2.77436e-07 0)
(5.29232e-06 -2.7273e-07 0)
(5.41769e-06 -2.68056e-07 0)
(5.54394e-06 -2.62797e-07 0)
(5.67088e-06 -2.56874e-07 0)
(5.79863e-06 -2.49975e-07 0)
(5.92707e-06 -2.41921e-07 0)
(6.05617e-06 -2.32547e-07 0)
(6.1858e-06 -2.21665e-07 0)
(6.31583e-06 -2.09017e-07 0)
(6.44606e-06 -1.94356e-07 0)
(6.57635e-06 -1.77416e-07 0)
(6.70637e-06 -1.57862e-07 0)
(6.83605e-06 -1.35283e-07 0)
(6.96474e-06 -1.09238e-07 0)
(7.09272e-06 -7.90305e-08 0)
(7.21832e-06 -4.44194e-08 0)
(4.55236e-06 -3.98006e-07 0)
(4.69457e-06 -3.8401e-07 0)
(4.8363e-06 -3.72055e-07 0)
(4.97555e-06 -3.62602e-07 0)
(5.11434e-06 -3.53741e-07 0)
(5.25211e-06 -3.45514e-07 0)
(5.38956e-06 -3.37031e-07 0)
(5.5267e-06 -3.28116e-07 0)
(5.66378e-06 -3.18362e-07 0)
(5.8008e-06 -3.07493e-07 0)
(5.93783e-06 -2.95251e-07 0)
(6.07483e-06 -2.81349e-07 0)
(6.21173e-06 -2.65449e-07 0)
(6.3484e-06 -2.47232e-07 0)
(6.4848e-06 -2.26348e-07 0)
(6.62064e-06 -2.02388e-07 0)
(6.75595e-06 -1.7483e-07 0)
(6.89007e-06 -1.43145e-07 0)
(7.02343e-06 -1.06461e-07 0)
(7.15439e-06 -6.44425e-08 0)
(4.27641e-06 -5.19655e-07 0)
(4.43904e-06 -4.96379e-07 0)
(4.59998e-06 -4.76108e-07 0)
(4.75617e-06 -4.60007e-07 0)
(4.91042e-06 -4.45466e-07 0)
(5.06216e-06 -4.32362e-07 0)
(5.21231e-06 -4.19647e-07 0)
(5.36104e-06 -4.0691e-07 0)
(5.50875e-06 -3.93631e-07 0)
(5.65559e-06 -3.79405e-07 0)
(5.8017e-06 -3.63851e-07 0)
(5.94713e-06 -3.46575e-07 0)
(6.09191e-06 -3.27153e-07 0)
(6.236e-06 -3.05197e-07 0)
(6.37941e-06 -2.80266e-07 0)
(6.52196e-06 -2.5187e-07 0)
(6.66371e-06 -2.19367e-07 0)
(6.80411e-06 -1.8212e-07 0)
(6.9436e-06 -1.391e-07 0)
(7.08072e-06 -8.98628e-08 0)
(3.97457e-06 -6.6043e-07 0)
(4.15826e-06 -6.25166e-07 0)
(4.33936e-06 -5.94354e-07 0)
(4.51371e-06 -5.6951e-07 0)
(4.68467e-06 -5.47703e-07 0)
(4.85161e-06 -5.28344e-07 0)
(5.01575e-06 -5.10297e-07 0)
(5.17729e-06 -4.9286e-07 0)
(5.33676e-06 -4.75366e-07 0)
(5.49444e-06 -4.57242e-07 0)
(5.65058e-06 -4.37964e-07 0)
(5.80534e-06 -4.17018e-07 0)
(5.95883e-06 -3.9389e-07 0)
(6.11114e-06 -3.68098e-07 0)
(6.26234e-06 -3.39102e-07 0)
(6.41233e-06 -3.06312e-07 0)
(6.56121e-06 -2.68964e-07 0)
(6.70856e-06 -2.26308e-07 0)
(6.85482e-06 -1.77149e-07 0)
(6.99875e-06 -1.20944e-07 0)
(3.65422e-06 -8.20014e-07 0)
(3.859e-06 -7.70572e-07 0)
(4.0603e-06 -7.27831e-07 0)
(4.25342e-06 -6.92459e-07 0)
(4.44163e-06 -6.61947e-07 0)
(4.62456e-06 -6.35052e-07 0)
(4.80339e-06 -6.10558e-07 0)
(4.97851e-06 -5.87464e-07 0)
(5.15052e-06 -5.64944e-07 0)
(5.31982e-06 -5.42243e-07 0)
(5.48675e-06 -5.18689e-07 0)
(5.65157e-06 -4.93646e-07 0)
(5.8145e-06 -4.66498e-07 0)
(5.97571e-06 -4.36654e-07 0)
(6.13535e-06 -4.03459e-07 0)
(6.29338e-06 -3.66211e-07 0)
(6.44998e-06 -3.24028e-07 0)
(6.60481e-06 -2.76047e-07 0)
(6.75842e-06 -2.20939e-07 0)
(6.90973e-06 -1.58062e-07 0)
(3.32143e-06 -9.95624e-07 0)
(3.54756e-06 -9.28489e-07 0)
(3.76829e-06 -8.7229e-07 0)
(3.98068e-06 -8.24714e-07 0)
(4.18647e-06 -7.84127e-07 0)
(4.38606e-06 -7.48604e-07 0)
(4.5802e-06 -7.1677e-07 0)
(4.76953e-06 -6.87357e-07 0)
(4.95469e-06 -6.59324e-07 0)
(5.13616e-06 -6.31711e-07 0)
(5.31439e-06 -6.03673e-07 0)
(5.48974e-06 -5.74431e-07 0)
(5.66255e-06 -5.43242e-07 0)
(5.83305e-06 -5.09389e-07 0)
(6.00146e-06 -4.72102e-07 0)
(6.16786e-06 -4.30562e-07 0)
(6.33247e-06 -3.83782e-07 0)
(6.49511e-06 -3.30769e-07 0)
(6.65638e-06 -2.70084e-07 0)
(6.81544e-06 -2.00942e-07 0)
(3.07453e-06 -1.16418e-06 0)
(3.31476e-06 -1.08267e-06 0)
(3.54704e-06 -1.01637e-06 0)
(3.77133e-06 -9.59004e-07 0)
(3.98826e-06 -9.09511e-07 0)
(4.19847e-06 -8.65883e-07 0)
(4.40262e-06 -8.26673e-07 0)
(4.60136e-06 -7.90575e-07 0)
(4.79529e-06 -7.56445e-07 0)
(4.98492e-06 -7.23234e-07 0)
(5.17071e-06 -6.90013e-07 0)
(5.35308e-06 -6.55924e-07 0)
(5.53239e-06 -6.20138e-07 0)
(5.70895e-06 -5.81854e-07 0)
(5.88299e-06 -5.40233e-07 0)
(6.0547e-06 -4.94376e-07 0)
(6.22434e-06 -4.43274e-07 0)
(6.3919e-06 -3.85848e-07 0)
(6.55798e-06 -3.20652e-07 0)
(6.722e-06 -2.46831e-07 0)
(2.93339e-06 -1.30111e-06 0)
(3.17537e-06 -1.2165e-06 0)
(3.4096e-06 -1.14456e-06 0)
(3.63694e-06 -1.08122e-06 0)
(3.8574e-06 -1.02548e-06 0)
(4.07138e-06 -9.75656e-07 0)
(4.27938e-06 -9.30414e-07 0)
(4.48191e-06 -8.8852e-07 0)
(4.67946e-06 -8.48847e-07 0)
(4.87246e-06 -8.10366e-07 0)
(5.06137e-06 -7.7215e-07 0)
(5.2466e-06 -7.33331e-07 0)
(5.42849e-06 -6.93055e-07 0)
(5.60735e-06 -6.50501e-07 0)
(5.78346e-06 -6.04822e-07 0)
(5.95706e-06 -5.55097e-07 0)
(6.12842e-06 -5.00364e-07 0)
(6.29767e-06 -4.39545e-07 0)
(6.46539e-06 -3.71264e-07 0)
(6.63123e-06 -2.94697e-07 0)
(2.81272e-06 -1.43253e-06 0)
(3.05238e-06 -1.34598e-06 0)
(3.2863e-06 -1.27039e-06 0)
(3.51421e-06 -1.20253e-06 0)
(3.73605e-06 -1.14166e-06 0)
(3.9519e-06 -1.08645e-06 0)
(4.16211e-06 -1.03573e-06 0)
(4.36698e-06 -9.88412e-07 0)
(4.56691e-06 -9.43443e-07 0)
(4.76226e-06 -8.99854e-07 0)
(4.95343e-06 -8.56749e-07 0)
(5.14078e-06 -8.1327e-07 0)
(5.32466e-06 -7.68561e-07 0)
(5.50535e-06 -7.21804e-07 0)
(5.68315e-06 -6.72165e-07 0)
(5.85833e-06 -6.18722e-07 0)
(6.0312e-06 -5.60567e-07 0)
(6.20197e-06 -4.9666e-07 0)
(6.37119e-06 -4.25713e-07 0)
(6.53877e-06 -3.46966e-07 0)
(2.70624e-06 -1.55935e-06 0)
(2.94252e-06 -1.47186e-06 0)
(3.17447e-06 -1.39352e-06 0)
(3.40132e-06 -1.32193e-06 0)
(3.62295e-06 -1.25664e-06 0)
(3.83922e-06 -1.19663e-06 0)
(4.05031e-06 -1.14095e-06 0)
(4.25636e-06 -1.08861e-06 0)
(4.45767e-06 -1.03869e-06 0)
(4.65451e-06 -9.90271e-07 0)
(4.84721e-06 -9.42516e-07 0)
(5.03609e-06 -8.94588e-07 0)
(5.22144e-06 -8.45648e-07 0)
(5.40356e-06 -7.94897e-07 0)
(5.58273e-06 -7.41525e-07 0)
(5.75925e-06 -6.8464e-07 0)
(5.93344e-06 -6.23389e-07 0)
(6.10557e-06 -5.56787e-07 0)
(6.27617e-06 -4.83656e-07 0)
(6.4454e-06 -4.03327e-07 0)
(2.61239e-06 -1.68079e-06 0)
(2.84432e-06 -1.59309e-06 0)
(3.07314e-06 -1.51299e-06 0)
(3.29771e-06 -1.43861e-06 0)
(3.51792e-06 -1.36977e-06 0)
(3.73344e-06 -1.30572e-06 0)
(3.9443e-06 -1.24567e-06 0)
(4.15054e-06 -1.18883e-06 0)
(4.35235e-06 -1.13436e-06 0)
(4.5499e-06 -1.08146e-06 0)
(4.74347e-06 -1.02934e-06 0)
(4.93329e-06 -9.77205e-07 0)
(5.11965e-06 -9.24255e-07 0)
(5.3028e-06 -8.69734e-07 0)
(5.48302e-06 -8.12858e-07 0)
(5.66063e-06 -7.5279e-07 0)
(5.83592e-06 -6.88734e-07 0)
(6.00925e-06 -6.19778e-07 0)
(6.18111e-06 -5.44876e-07 0)
(6.35183e-06 -4.63464e-07 0)
(2.52892e-06 -1.79705e-06 0)
(2.75603e-06 -1.7097e-06 0)
(2.98102e-06 -1.62849e-06 0)
(3.20246e-06 -1.55203e-06 0)
(3.42038e-06 -1.48034e-06 0)
(3.63423e-06 -1.41288e-06 0)
(3.844e-06 -1.34905e-06 0)
(4.04961e-06 -1.28821e-06 0)
(4.25116e-06 -1.22966e-06 0)
(4.44876e-06 -1.17267e-06 0)
(4.64259e-06 -1.11653e-06 0)
(4.83285e-06 -1.06051e-06 0)
(5.01976e-06 -1.00384e-06 0)
(5.20357e-06 -9.45833e-07 0)
(5.38454e-06 -8.85735e-07 0)
(5.56298e-06 -8.22786e-07 0)
(5.73918e-06 -7.56247e-07 0)
(5.91353e-06 -6.85294e-07 0)
(6.08651e-06 -6.09026e-07 0)
(6.25855e-06 -5.26964e-07 0)
(2.45418e-06 -1.90828e-06 0)
(2.67619e-06 -1.82165e-06 0)
(2.89686e-06 -1.73989e-06 0)
(3.11466e-06 -1.66196e-06 0)
(3.32963e-06 -1.58804e-06 0)
(3.54114e-06 -1.51777e-06 0)
(3.74914e-06 -1.45074e-06 0)
(3.95347e-06 -1.38643e-06 0)
(4.15415e-06 -1.32426e-06 0)
(4.35122e-06 -1.26359e-06 0)
(4.54481e-06 -1.2038e-06 0)
(4.73504e-06 -1.14423e-06 0)
(4.92212e-06 -1.08415e-06 0)
(5.10626e-06 -1.02296e-06 0)
(5.28769e-06 -9.59928e-07 0)
(5.46673e-06 -8.94397e-07 0)
(5.64365e-06 -8.25687e-07 0)
(5.81885e-06 -7.53069e-07 0)
(5.99281e-06 -6.75786e-07 0)
(6.16596e-06 -5.9342e-07 0)
(2.38658e-06 -2.01474e-06 0)
(2.60343e-06 -1.92908e-06 0)
(2.81951e-06 -1.84716e-06 0)
(3.03333e-06 -1.76824e-06 0)
(3.2449e-06 -1.69262e-06 0)
(3.45359e-06 -1.62007e-06 0)
(3.65932e-06 -1.55035e-06 0)
(3.86185e-06 -1.48307e-06 0)
(4.06117e-06 -1.41773e-06 0)
(4.25725e-06 -1.3538e-06 0)
(4.45016e-06 -1.29076e-06 0)
(4.63999e-06 -1.22798e-06 0)
(4.82691e-06 -1.16483e-06 0)
(5.01109e-06 -1.10077e-06 0)
(5.19275e-06 -1.03513e-06 0)
(5.37217e-06 -9.67325e-07 0)
(5.54964e-06 -8.96756e-07 0)
(5.72555e-06 -8.22789e-07 0)
(5.90032e-06 -7.44793e-07 0)
(6.07443e-06 -6.62411e-07 0)
(2.32472e-06 -2.11674e-06 0)
(2.53644e-06 -2.03222e-06 0)
(2.74783e-06 -1.95042e-06 0)
(2.95746e-06 -1.87089e-06 0)
(3.16536e-06 -1.79399e-06 0)
(3.37092e-06 -1.71964e-06 0)
(3.57402e-06 -1.64769e-06 0)
(3.7744e-06 -1.57789e-06 0)
(3.97198e-06 -1.50982e-06 0)
(4.16671e-06 -1.44306e-06 0)
(4.35861e-06 -1.37714e-06 0)
(4.54774e-06 -1.31153e-06 0)
(4.73423e-06 -1.24565e-06 0)
(4.91822e-06 -1.17905e-06 0)
(5.0999e-06 -1.11111e-06 0)
(5.27955e-06 -1.04134e-06 0)
(5.45741e-06 -9.69205e-07 0)
(5.63389e-06 -8.94166e-07 0)
(5.8093e-06 -8.15706e-07 0)
(5.98425e-06 -7.33554e-07 0)
(2.26738e-06 -2.21463e-06 0)
(2.47404e-06 -2.13129e-06 0)
(2.68074e-06 -2.04981e-06 0)
(2.88612e-06 -1.96996e-06 0)
(3.09023e-06 -1.89215e-06 0)
(3.29248e-06 -1.81638e-06 0)
(3.49272e-06 -1.74263e-06 0)
(3.6907e-06 -1.67072e-06 0)
(3.88628e-06 -1.60034e-06 0)
(4.0794e-06 -1.53113e-06 0)
(4.27005e-06 -1.46272e-06 0)
(4.45824e-06 -1.39464e-06 0)
(4.64409e-06 -1.32639e-06 0)
(4.8277e-06 -1.25757e-06 0)
(5.00924e-06 -1.18765e-06 0)
(5.18896e-06 -1.1162e-06 0)
(5.36707e-06 -1.04278e-06 0)
(5.54395e-06 -9.66911e-07 0)
(5.71989e-06 -8.88201e-07 0)
(5.89552e-06 -8.06478e-07 0)
(2.21343e-06 -2.30873e-06 0)
(2.41519e-06 -2.22658e-06 0)
(2.61729e-06 -2.14556e-06 0)
(2.81844e-06 -2.0656e-06 0)
(3.01873e-06 -1.98716e-06 0)
(3.21759e-06 -1.91032e-06 0)
(3.41486e-06 -1.83513e-06 0)
(3.61027e-06 -1.76149e-06 0)
(3.80369e-06 -1.68917e-06 0)
(3.99502e-06 -1.6179e-06 0)
(4.18424e-06 -1.54736e-06 0)
(4.37134e-06 -1.47716e-06 0)
(4.55639e-06 -1.40687e-06 0)
(4.73947e-06 -1.33616e-06 0)
(4.92074e-06 -1.26456e-06 0)
(5.1004e-06 -1.1917e-06 0)
(5.27864e-06 -1.11724e-06 0)
(5.45579e-06 -1.04075e-06 0)
(5.63216e-06 -9.61975e-07 0)
(5.80828e-06 -8.80806e-07 0)
(2.16191e-06 -2.39935e-06 0)
(2.35897e-06 -2.31837e-06 0)
(2.55658e-06 -2.23788e-06 0)
(2.75361e-06 -2.15798e-06 0)
(2.95013e-06 -2.07915e-06 0)
(3.14558e-06 -2.0015e-06 0)
(3.33982e-06 -1.92519e-06 0)
(3.5326e-06 -1.85017e-06 0)
(3.72377e-06 -1.77626e-06 0)
(3.91323e-06 -1.70327e-06 0)
(4.10092e-06 -1.63096e-06 0)
(4.28682e-06 -1.55897e-06 0)
(4.47098e-06 -1.48697e-06 0)
(4.65346e-06 -1.41467e-06 0)
(4.83436e-06 -1.34166e-06 0)
(5.01387e-06 -1.26766e-06 0)
(5.19213e-06 -1.19236e-06 0)
(5.36947e-06 -1.11544e-06 0)
(5.54616e-06 -1.03675e-06 0)
(5.72265e-06 -9.56197e-07 0)
(2.11197e-06 -2.48682e-06 0)
(2.30453e-06 -2.40693e-06 0)
(2.49783e-06 -2.32702e-06 0)
(2.69086e-06 -2.24731e-06 0)
(2.88367e-06 -2.16826e-06 0)
(3.07577e-06 -2.09005e-06 0)
(3.26701e-06 -2.01289e-06 0)
(3.45718e-06 -1.93678e-06 0)
(3.6461e-06 -1.86161e-06 0)
(3.83368e-06 -1.78723e-06 0)
(4.01982e-06 -1.71347e-06 0)
(4.20448e-06 -1.64002e-06 0)
(4.38769e-06 -1.56661e-06 0)
(4.56949e-06 -1.493e-06 0)
(4.74995e-06 -1.41886e-06 0)
(4.92923e-06 -1.34392e-06 0)
(5.10744e-06 -1.26798e-06 0)
(5.28489e-06 -1.19079e-06 0)
(5.46176e-06 -1.11228e-06 0)
(5.63854e-06 -1.03238e-06 0)
(2.06279e-06 -2.57137e-06 0)
(2.25106e-06 -2.49253e-06 0)
(2.44022e-06 -2.41321e-06 0)
(2.62941e-06 -2.33376e-06 0)
(2.81865e-06 -2.25464e-06 0)
(3.00753e-06 -2.17608e-06 0)
(3.1959e-06 -2.09832e-06 0)
(3.38352e-06 -2.0214e-06 0)
(3.57026e-06 -1.94528e-06 0)
(3.75596e-06 -1.86981e-06 0)
(3.94056e-06 -1.79489e-06 0)
(4.12398e-06 -1.72027e-06 0)
(4.30623e-06 -1.64572e-06 0)
(4.48733e-06 -1.57106e-06 0)
(4.66732e-06 -1.496e-06 0)
(4.84632e-06 -1.42034e-06 0)
(5.02442e-06 -1.34392e-06 0)
(5.20191e-06 -1.26658e-06 0)
(5.37888e-06 -1.18829e-06 0)
(5.55584e-06 -1.1091e-06 0)
(2.01353e-06 -2.65328e-06 0)
(2.19772e-06 -2.5754e-06 0)
(2.38296e-06 -2.49669e-06 0)
(2.56849e-06 -2.41756e-06 0)
(2.75438e-06 -2.33851e-06 0)
(2.94021e-06 -2.25978e-06 0)
(3.12587e-06 -2.18164e-06 0)
(3.31108e-06 -2.10416e-06 0)
(3.49573e-06 -2.02732e-06 0)
(3.67967e-06 -1.95103e-06 0)
(3.86281e-06 -1.87523e-06 0)
(4.04505e-06 -1.79972e-06 0)
(4.22639e-06 -1.72429e-06 0)
(4.40681e-06 -1.64881e-06 0)
(4.58632e-06 -1.57304e-06 0)
(4.76503e-06 -1.49682e-06 0)
(4.94301e-06 -1.42007e-06 0)
(5.12045e-06 -1.34266e-06 0)
(5.29751e-06 -1.26465e-06 0)
(5.47455e-06 -1.18612e-06 0)
(1.96339e-06 -2.73275e-06 0)
(2.14371e-06 -2.65584e-06 0)
(2.3252e-06 -2.57766e-06 0)
(2.50737e-06 -2.49892e-06 0)
(2.69015e-06 -2.42007e-06 0)
(2.87318e-06 -2.34133e-06 0)
(3.05633e-06 -2.263e-06 0)
(3.23936e-06 -2.18519e-06 0)
(3.4221e-06 -2.10788e-06 0)
(3.60441e-06 -2.03102e-06 0)
(3.7862e-06 -1.95458e-06 0)
(3.96735e-06 -1.87841e-06 0)
(4.14784e-06 -1.80232e-06 0)
(4.32761e-06 -1.72622e-06 0)
(4.50666e-06 -1.6499e-06 0)
(4.68509e-06 -1.57328e-06 0)
(4.86293e-06 -1.49631e-06 0)
(5.04031e-06 -1.41889e-06 0)
(5.2174e-06 -1.34117e-06 0)
(5.39448e-06 -1.26325e-06 0)
(1.91154e-06 -2.8101e-06 0)
(2.08809e-06 -2.73387e-06 0)
(2.26606e-06 -2.65638e-06 0)
(2.44527e-06 -2.57818e-06 0)
(2.62523e-06 -2.49962e-06 0)
(2.80579e-06 -2.42101e-06 0)
(2.9867e-06 -2.34266e-06 0)
(3.16779e-06 -2.26468e-06 0)
(3.34885e-06 -2.18709e-06 0)
(3.52976e-06 -2.10988e-06 0)
(3.71037e-06 -2.03303e-06 0)
(3.89058e-06 -1.9564e-06 0)
(4.07031e-06 -1.87984e-06 0)
(4.24951e-06 -1.8033e-06 0)
(4.42818e-06 -1.7266e-06 0)
(4.60637e-06 -1.64969e-06 0)
(4.78406e-06 -1.57254e-06 0)
(4.96141e-06 -1.49515e-06 0)
(5.13843e-06 -1.41772e-06 0)
(5.31553e-06 -1.34035e-06 0)
(1.85677e-06 -2.88525e-06 0)
(2.03012e-06 -2.8098e-06 0)
(2.20518e-06 -2.73314e-06 0)
(2.38157e-06 -2.6555e-06 0)
(2.55909e-06 -2.57735e-06 0)
(2.73748e-06 -2.49901e-06 0)
(2.91651e-06 -2.42079e-06 0)
(3.09596e-06 -2.34283e-06 0)
(3.27565e-06 -2.26516e-06 0)
(3.45539e-06 -2.18777e-06 0)
(3.63505e-06 -2.11068e-06 0)
(3.81446e-06 -2.03378e-06 0)
(3.99357e-06 -1.95692e-06 0)
(4.17233e-06 -1.88008e-06 0)
(4.35069e-06 -1.80311e-06 0)
(4.52866e-06 -1.72601e-06 0)
(4.70621e-06 -1.64875e-06 0)
(4.88355e-06 -1.57138e-06 0)
(5.06059e-06 -1.49419e-06 0)
(5.2376e-06 -1.41733e-06 0)
(1.79834e-06 -2.95897e-06 0)
(1.96874e-06 -2.88443e-06 0)
(2.1412e-06 -2.80842e-06 0)
(2.31528e-06 -2.73139e-06 0)
(2.49082e-06 -2.65374e-06 0)
(2.6675e-06 -2.57578e-06 0)
(2.8451e-06 -2.4978e-06 0)
(3.02336e-06 -2.41998e-06 0)
(3.20204e-06 -2.34235e-06 0)
(3.38094e-06 -2.26494e-06 0)
(3.55988e-06 -2.18776e-06 0)
(3.73874e-06 -2.11068e-06 0)
(3.91743e-06 -2.03364e-06 0)
(4.09583e-06 -1.95665e-06 0)
(4.27392e-06 -1.8795e-06 0)
(4.45176e-06 -1.80221e-06 0)
(4.62928e-06 -1.72489e-06 0)
(4.80656e-06 -1.64754e-06 0)
(4.98364e-06 -1.57047e-06 0)
(5.16063e-06 -1.494e-06 0)
(1.73551e-06 -3.0307e-06 0)
(1.90336e-06 -2.95718e-06 0)
(2.07365e-06 -2.88211e-06 0)
(2.24596e-06 -2.80586e-06 0)
(2.42004e-06 -2.72885e-06 0)
(2.59558e-06 -2.6514e-06 0)
(2.77227e-06 -2.57383e-06 0)
(2.94979e-06 -2.49631e-06 0)
(3.12788e-06 -2.41886e-06 0)
(3.30631e-06 -2.3415e-06 0)
(3.48488e-06 -2.26432e-06 0)
(3.6634e-06 -2.18724e-06 0)
(3.84179e-06 -2.1101e-06 0)
(4.01998e-06 -2.03296e-06 0)
(4.19789e-06 -1.95574e-06 0)
(4.37559e-06 -1.87836e-06 0)
(4.55311e-06 -1.80096e-06 0)
(4.73041e-06 -1.72357e-06 0)
(4.90761e-06 -1.64655e-06 0)
(5.08464e-06 -1.57027e-06 0)
(1.27516e-07 -2.60588e-06 0)
(3.84289e-07 -2.56751e-06 0)
(6.46251e-07 -2.49226e-06 0)
(9.16371e-07 -2.3832e-06 0)
(1.19699e-06 -2.2445e-06 0)
(1.48957e-06 -2.08136e-06 0)
(1.79468e-06 -1.89976e-06 0)
(2.11177e-06 -1.70593e-06 0)
(2.43981e-06 -1.50615e-06 0)
(2.77616e-06 -1.30537e-06 0)
(1.23941e-07 -2.6487e-06 0)
(3.73313e-07 -2.61362e-06 0)
(6.26983e-07 -2.54481e-06 0)
(8.87473e-07 -2.44485e-06 0)
(1.15676e-06 -2.3173e-06 0)
(1.43608e-06 -2.16656e-06 0)
(1.72597e-06 -1.99772e-06 0)
(2.02579e-06 -1.8162e-06 0)
(2.33426e-06 -1.62767e-06 0)
(2.64909e-06 -1.4365e-06 0)
(1.20765e-07 -2.69252e-06 0)
(3.6354e-07 -2.66044e-06 0)
(6.09823e-07 -2.59745e-06 0)
(8.61619e-07 -2.50579e-06 0)
(1.12062e-06 -2.38855e-06 0)
(1.38783e-06 -2.24954e-06 0)
(1.6638e-06 -2.09314e-06 0)
(1.94827e-06 -1.9239e-06 0)
(2.24032e-06 -1.74673e-06 0)
(2.53836e-06 -1.56463e-06 0)
(1.17947e-07 -2.73742e-06 0)
(3.54859e-07 -2.70789e-06 0)
(5.94736e-07 -2.64986e-06 0)
(8.3913e-07 -2.56531e-06 0)
(1.0895e-06 -2.45694e-06 0)
(1.34663e-06 -2.3281e-06 0)
(1.61093e-06 -2.18267e-06 0)
(1.88216e-06 -2.02466e-06 0)
(2.15951e-06 -1.85863e-06 0)
(2.44167e-06 -1.68702e-06 0)
(1.15369e-07 -2.78338e-06 0)
(3.46882e-07 -2.75614e-06 0)
(5.80888e-07 -2.70257e-06 0)
(8.18593e-07 -2.62441e-06 0)
(1.06124e-06 -2.52408e-06 0)
(1.30946e-06 -2.40457e-06 0)
(1.56363e-06 -2.26931e-06 0)
(1.82353e-06 -2.1217e-06 0)
(2.08858e-06 -1.96591e-06 0)
(2.35714e-06 -1.80415e-06 0)
(1.12951e-07 -2.83036e-06 0)
(3.3951e-07 -2.80509e-06 0)
(5.68145e-07 -2.75539e-06 0)
(7.9987e-07 -2.68284e-06 0)
(1.0357e-06 -2.58957e-06 0)
(1.27615e-06 -2.47831e-06 0)
(1.52147e-06 -2.35216e-06 0)
(1.77142e-06 -2.21413e-06 0)
(2.0257e-06 -2.068e-06 0)
(2.28243e-06 -1.91596e-06 0)
(1.10637e-07 -2.87828e-06 0)
(3.32499e-07 -2.85478e-06 0)
(5.56093e-07 -2.80854e-06 0)
(7.8231e-07 -2.741e-06 0)
(1.01193e-06 -2.65408e-06 0)
(1.24544e-06 -2.55026e-06 0)
(1.48302e-06 -2.43236e-06 0)
(1.72432e-06 -2.30306e-06 0)
(1.96931e-06 -2.16575e-06 0)
(2.21585e-06 -2.02276e-06 0)
(1.0844e-07 -2.92704e-06 0)
(3.25772e-07 -2.90511e-06 0)
(5.44594e-07 -2.86193e-06 0)
(7.65675e-07 -2.79884e-06 0)
(9.89627e-07 -2.71758e-06 0)
(1.21684e-06 -2.62041e-06 0)
(1.4475e-06 -2.50994e-06 0)
(1.68118e-06 -2.38863e-06 0)
(1.91802e-06 -2.25946e-06 0)
(2.15579e-06 -2.12488e-06 0)
(1.0629e-07 -2.97657e-06 0)
(3.19198e-07 -2.95605e-06 0)
(5.33428e-07 -2.91561e-06 0)
(7.49613e-07 -2.8565e-06 0)
(9.6828e-07 -2.78034e-06 0)
(1.18974e-06 -2.68916e-06 0)
(1.41416e-06 -2.5854e-06 0)
(1.64106e-06 -2.47135e-06 0)
(1.8707e-06 -2.3496e-06 0)
(2.10087e-06 -2.22271e-06 0)
(1.04129e-07 -3.02675e-06 0)
(3.12698e-07 -3.00749e-06 0)
(5.22449e-07 -2.96951e-06 0)
(7.33919e-07 -2.91397e-06 0)
(9.47564e-07 -2.84239e-06 0)
(1.16368e-06 -2.75661e-06 0)
(1.38236e-06 -2.65892e-06 0)
(1.60315e-06 -2.55146e-06 0)
(1.82637e-06 -2.43651e-06 0)
(2.04987e-06 -2.31665e-06 0)
(1.01947e-07 -3.07748e-06 0)
(3.06205e-07 -3.05936e-06 0)
(5.11498e-07 -3.0236e-06 0)
(7.18363e-07 -2.97129e-06 0)
(9.27168e-07 -2.90385e-06 0)
(1.13822e-06 -2.82296e-06 0)
(1.35158e-06 -2.73075e-06 0)
(1.56679e-06 -2.62926e-06 0)
(1.78417e-06 -2.52052e-06 0)
(2.00175e-06 -2.40704e-06 0)
(9.9754e-08 -3.12862e-06 0)
(2.99651e-07 -3.11155e-06 0)
(5.00447e-07 -3.0778e-06 0)
(7.02743e-07 -3.02841e-06 0)
(9.06826e-07 -2.96471e-06 0)
(1.11299e-06 -2.88827e-06 0)
(1.32131e-06 -2.80105e-06 0)
(1.53134e-06 -2.70499e-06 0)
(1.74338e-06 -2.6019e-06 0)
(1.95565e-06 -2.49423e-06 0)
(9.75219e-08 -3.18007e-06 0)
(2.92927e-07 -3.16395e-06 0)
(4.89146e-07 -3.13203e-06 0)
(6.86836e-07 -3.0853e-06 0)
(8.86242e-07 -3.02501e-06 0)
(1.08762e-06 -2.95262e-06 0)
(1.2911e-06 -2.86994e-06 0)
(1.49623e-06 -2.77882e-06 0)
(1.7033e-06 -2.6809e-06 0)
(1.91075e-06 -2.57852e-06 0)
(9.51989e-08 -3.23167e-06 0)
(2.85923e-07 -3.21639e-06 0)
(4.77441e-07 -3.18617e-06 0)
(6.70419e-07 -3.14188e-06 0)
(8.65111e-07 -3.08471e-06 0)
(1.06175e-06 -3.01603e-06 0)
(1.26047e-06 -2.93751e-06 0)
(1.46091e-06 -2.8509e-06 0)
(1.6633e-06 -2.75772e-06 0)
(1.86629e-06 -2.66016e-06 0)
(9.27407e-08 -3.28327e-06 0)
(2.78545e-07 -3.26878e-06 0)
(4.65178e-07 -3.24013e-06 0)
(6.53274e-07 -3.19809e-06 0)
(8.43134e-07 -3.1438e-06 0)
(1.03497e-06 -3.07854e-06 0)
(1.22897e-06 -3.00385e-06 0)
(1.42482e-06 -2.92139e-06 0)
(1.6227e-06 -2.83256e-06 0)
(1.82145e-06 -2.73941e-06 0)
(9.01246e-08 -3.33463e-06 0)
(2.70723e-07 -3.32086e-06 0)
(4.52209e-07 -3.29367e-06 0)
(6.35181e-07 -3.25374e-06 0)
(8.20006e-07 -3.20212e-06 0)
(1.00692e-06 -3.14003e-06 0)
(1.19612e-06 -3.0689e-06 0)
(1.3874e-06 -2.99029e-06 0)
(1.58083e-06 -2.9055e-06 0)
(1.77549e-06 -2.81639e-06 0)
(8.73278e-08 -3.38565e-06 0)
(2.62358e-07 -3.37257e-06 0)
(4.38336e-07 -3.34675e-06 0)
(6.15857e-07 -3.3088e-06 0)
(7.95365e-07 -3.25971e-06 0)
(9.77124e-07 -3.20059e-06 0)
(1.16138e-06 -3.1328e-06 0)
(1.34796e-06 -3.05779e-06 0)
(1.53694e-06 -2.97676e-06 0)
(1.72754e-06 -2.89143e-06 0)
(8.43108e-08 -3.4358e-06 0)
(2.53317e-07 -3.42338e-06 0)
(4.23338e-07 -3.39887e-06 0)
(5.94997e-07 -3.36282e-06 0)
(7.68813e-07 -3.31612e-06 0)
(9.45107e-07 -3.25985e-06 0)
(1.12415e-06 -3.19524e-06 0)
(1.30581e-06 -3.12365e-06 0)
(1.49023e-06 -3.04618e-06 0)
(1.67673e-06 -2.96442e-06 0)
(8.10031e-08 -3.48531e-06 0)
(2.43394e-07 -3.47354e-06 0)
(4.0689e-07 -3.45028e-06 0)
(5.7217e-07 -3.41607e-06 0)
(7.39806e-07 -3.37171e-06 0)
(9.10196e-07 -3.31818e-06 0)
(1.08364e-06 -3.25663e-06 0)
(1.26012e-06 -3.18832e-06 0)
(1.43972e-06 -3.11429e-06 0)
(1.62201e-06 -3.03595e-06 0)
(7.73701e-08 -3.53275e-06 0)
(2.32514e-07 -3.52161e-06 0)
(3.88859e-07 -3.49962e-06 0)
(5.47155e-07 -3.46723e-06 0)
(7.08058e-07 -3.42519e-06 0)
(8.72036e-07 -3.37441e-06 0)
(1.03942e-06 -3.31593e-06 0)
(1.21038e-06 -3.2509e-06 0)
(1.38491e-06 -3.18031e-06 0)
(1.56283e-06 -3.1054e-06 0)
)


// ************************************************************************* //
