/*--------------------------------*- C++ -*----------------------------------*\
| =========                 |                                                 |
| \\      /  F ield         | foam-extend: Open Source CFD                    |
|  \\    /   O peration     | Version:     4.1                                |
|   \\  /    A nd           | Web:         http://www.foam-extend.org         |
|    \\/     M anipulation  |                                                 |
\*---------------------------------------------------------------------------*/
FoamFile
{
    version     2.0;
    format      ascii;
    class       vectorField;
    location    "6";
    object      solidsCellD_iteration7;
}
// * * * * * * * * * * * * * * * * * * * * * * * * * * * * * * * * * * * * * //


1000
(
(3.06287e-06 -1.26757e-06 0)
(2.89367e-06 -1.1817e-06 0)
(2.78625e-06 -1.12813e-06 0)
(2.72529e-06 -1.1042e-06 0)
(2.69639e-06 -1.09732e-06 0)
(2.69096e-06 -1.10357e-06 0)
(2.70277e-06 -1.11843e-06 0)
(2.72752e-06 -1.13979e-06 0)
(2.76204e-06 -1.16544e-06 0)
(2.80316e-06 -1.19442e-06 0)
(2.77001e-06 -1.38464e-06 0)
(2.58976e-06 -1.32574e-06 0)
(2.47527e-06 -1.28929e-06 0)
(2.40908e-06 -1.27706e-06 0)
(2.376e-06 -1.27798e-06 0)
(2.36667e-06 -1.28978e-06 0)
(2.3747e-06 -1.30862e-06 0)
(2.39546e-06 -1.33291e-06 0)
(2.42566e-06 -1.36094e-06 0)
(2.46209e-06 -1.3914e-06 0)
(2.4655e-06 -1.49556e-06 0)
(2.28129e-06 -1.46681e-06 0)
(2.1643e-06 -1.44946e-06 0)
(2.09573e-06 -1.45006e-06 0)
(2.06032e-06 -1.45938e-06 0)
(2.04829e-06 -1.47699e-06 0)
(2.05325e-06 -1.49987e-06 0)
(2.0706e-06 -1.52699e-06 0)
(2.09698e-06 -1.5572e-06 0)
(2.12943e-06 -1.58904e-06 0)
(2.15167e-06 -1.59839e-06 0)
(1.97127e-06 -1.60124e-06 0)
(1.85667e-06 -1.60388e-06 0)
(1.78879e-06 -1.61783e-06 0)
(1.75294e-06 -1.63585e-06 0)
(1.73943e-06 -1.65938e-06 0)
(1.74203e-06 -1.68628e-06 0)
(1.75635e-06 -1.71619e-06 0)
(1.77919e-06 -1.7485e-06 0)
(1.80767e-06 -1.78185e-06 0)
(1.8307e-06 -1.6911e-06 0)
(1.66177e-06 -1.72523e-06 0)
(1.55444e-06 -1.74771e-06 0)
(1.49045e-06 -1.77481e-06 0)
(1.45613e-06 -1.80135e-06 0)
(1.44227e-06 -1.83067e-06 0)
(1.44319e-06 -1.86146e-06 0)
(1.45475e-06 -1.89408e-06 0)
(1.47416e-06 -1.9284e-06 0)
(1.49856e-06 -1.96335e-06 0)
(1.50412e-06 -1.77181e-06 0)
(1.35415e-06 -1.83518e-06 0)
(1.25889e-06 -1.8762e-06 0)
(1.20178e-06 -1.91562e-06 0)
(1.17077e-06 -1.95011e-06 0)
(1.15764e-06 -1.98482e-06 0)
(1.15752e-06 -2.01917e-06 0)
(1.16664e-06 -2.05433e-06 0)
(1.18262e-06 -2.0905e-06 0)
(1.20278e-06 -2.12703e-06 0)
(1.17357e-06 -1.83868e-06 0)
(1.0492e-06 -1.9277e-06 0)
(9.70214e-07 -1.98498e-06 0)
(9.22652e-07 -2.03517e-06 0)
(8.96622e-07 -2.0766e-06 0)
(8.85294e-07 -2.116e-06 0)
(8.84653e-07 -2.15348e-06 0)
(8.91524e-07 -2.19088e-06 0)
(9.03996e-07 -2.22867e-06 0)
(9.19784e-07 -2.26666e-06 0)
(8.40182e-07 -1.89026e-06 0)
(7.46999e-07 -1.99987e-06 0)
(6.87849e-07 -2.0702e-06 0)
(6.52177e-07 -2.12899e-06 0)
(6.32544e-07 -2.17601e-06 0)
(6.23831e-07 -2.21919e-06 0)
(6.23046e-07 -2.2592e-06 0)
(6.27809e-07 -2.2984e-06 0)
(6.36743e-07 -2.3375e-06 0)
(6.48064e-07 -2.37669e-06 0)
(5.04908e-07 -1.92532e-06 0)
(4.47229e-07 -2.0493e-06 0)
(4.10633e-07 -2.12875e-06 0)
(3.88475e-07 -2.19361e-06 0)
(3.76208e-07 -2.24455e-06 0)
(3.70705e-07 -2.29035e-06 0)
(3.70124e-07 -2.33213e-06 0)
(3.72941e-07 -2.37265e-06 0)
(3.78292e-07 -2.41268e-06 0)
(3.8509e-07 -2.45276e-06 0)
(1.68629e-07 -1.94298e-06 0)
(1.4908e-07 -2.0744e-06 0)
(1.36625e-07 -2.15855e-06 0)
(1.29099e-07 -2.22652e-06 0)
(1.24952e-07 -2.27947e-06 0)
(1.23045e-07 -2.32664e-06 0)
(1.22776e-07 -2.36932e-06 0)
(1.23692e-07 -2.41049e-06 0)
(1.25484e-07 -2.45101e-06 0)
(1.27742e-07 -2.49155e-06 0)
(4.77328e-06 -5.78359e-08 0)
(4.81582e-06 -4.17615e-08 0)
(4.84237e-06 -3.16115e-08 0)
(4.87136e-06 -2.56844e-08 0)
(4.90326e-06 -2.24367e-08 0)
(4.94231e-06 -2.10043e-08 0)
(4.98842e-06 -2.07847e-08 0)
(5.04202e-06 -2.1334e-08 0)
(5.103e-06 -2.24988e-08 0)
(5.17054e-06 -2.38893e-08 0)
(4.73809e-06 -1.73516e-07 0)
(4.77359e-06 -1.26236e-07 0)
(4.79573e-06 -9.64245e-08 0)
(4.82175e-06 -7.91122e-08 0)
(4.85169e-06 -6.96994e-08 0)
(4.8893e-06 -6.55254e-08 0)
(4.93444e-06 -6.49694e-08 0)
(4.98723e-06 -6.67855e-08 0)
(5.0475e-06 -7.02928e-08 0)
(5.11431e-06 -7.4402e-08 0)
(4.66777e-06 -2.90159e-07 0)
(4.68983e-06 -2.14297e-07 0)
(4.70349e-06 -1.66512e-07 0)
(4.72388e-06 -1.38745e-07 0)
(4.7501e-06 -1.2376e-07 0)
(4.78511e-06 -1.17318e-07 0)
(4.82828e-06 -1.16641e-07 0)
(4.8795e-06 -1.19755e-07 0)
(4.93841e-06 -1.25573e-07 0)
(5.00382e-06 -1.32437e-07 0)
(4.56357e-06 -4.08293e-07 0)
(4.56655e-06 -3.07954e-07 0)
(4.56809e-06 -2.44852e-07 0)
(4.58049e-06 -2.0836e-07 0)
(4.60137e-06 -1.88763e-07 0)
(4.63263e-06 -1.80549e-07 0)
(4.67304e-06 -1.79989e-07 0)
(4.72207e-06 -1.84545e-07 0)
(4.77909e-06 -1.92701e-07 0)
(4.84255e-06 -2.0234e-07 0)
(4.42705e-06 -5.28229e-07 0)
(4.40649e-06 -4.08921e-07 0)
(4.39305e-06 -3.33935e-07 0)
(4.39551e-06 -2.90903e-07 0)
(4.40982e-06 -2.68018e-07 0)
(4.43642e-06 -2.58816e-07 0)
(4.4734e-06 -2.58805e-07 0)
(4.51966e-06 -2.64997e-07 0)
(4.5743e-06 -2.75474e-07 0)
(4.63543e-06 -2.87845e-07 0)
(4.26028e-06 -6.50035e-07 0)
(4.21303e-06 -5.18314e-07 0)
(4.1827e-06 -4.35528e-07 0)
(4.17394e-06 -3.88536e-07 0)
(4.18078e-06 -3.63963e-07 0)
(4.20207e-06 -3.54724e-07 0)
(4.23515e-06 -3.55738e-07 0)
(4.27825e-06 -3.63736e-07 0)
(4.33018e-06 -3.76506e-07 0)
(4.38869e-06 -3.91569e-07 0)
(4.06571e-06 -7.73481e-07 0)
(3.99024e-06 -6.36594e-07 0)
(3.94205e-06 -5.50569e-07 0)
(3.92144e-06 -5.02485e-07 0)
(3.92036e-06 -4.77951e-07 0)
(3.93599e-06 -4.69701e-07 0)
(3.96489e-06 -4.72273e-07 0)
(4.00459e-06 -4.82286e-07 0)
(4.05354e-06 -4.97375e-07 0)
(4.10931e-06 -5.15068e-07 0)
(3.84586e-06 -8.97974e-07 0)
(3.74242e-06 -7.63465e-07 0)
(3.67654e-06 -6.78953e-07 0)
(3.64411e-06 -6.32752e-07 0)
(3.63511e-06 -6.10062e-07 0)
(3.64503e-06 -6.03885e-07 0)
(3.6696e-06 -6.08591e-07 0)
(3.70579e-06 -6.20896e-07 0)
(3.75161e-06 -6.38331e-07 0)
(3.80457e-06 -6.58617e-07 0)
(3.60357e-06 -1.02266e-06 0)
(3.47412e-06 -8.9788e-07 0)
(3.39183e-06 -8.1957e-07 0)
(3.3483e-06 -7.78189e-07 0)
(3.33182e-06 -7.59152e-07 0)
(3.33617e-06 -7.56119e-07 0)
(3.35639e-06 -7.63582e-07 0)
(3.389e-06 -7.78428e-07 0)
(3.43146e-06 -7.98344e-07 0)
(3.48152e-06 -8.20995e-07 0)
(3.34166e-06 -1.14635e-06 0)
(3.18982e-06 -1.03808e-06 0)
(3.09336e-06 -9.70286e-07 0)
(3.04014e-06 -9.3649e-07 0)
(3.0169e-06 -9.2281e-07 0)
(3.01611e-06 -9.23968e-07 0)
(3.03223e-06 -9.34836e-07 0)
(3.06128e-06 -9.52753e-07 0)
(3.10052e-06 -9.75404e-07 0)
(3.14724e-06 -1.00145e-06 0)
(5.24472e-06 -2.52334e-08 0)
(5.32553e-06 -2.55789e-08 0)
(5.41141e-06 -2.59577e-08 0)
(5.50204e-06 -2.6233e-08 0)
(5.59688e-06 -2.63814e-08 0)
(5.6956e-06 -2.63966e-08 0)
(5.79775e-06 -2.62463e-08 0)
(5.90292e-06 -2.59543e-08 0)
(6.01081e-06 -2.55216e-08 0)
(6.12111e-06 -2.49137e-08 0)
(6.23349e-06 -2.40998e-08 0)
(6.3476e-06 -2.30726e-08 0)
(6.46315e-06 -2.18268e-08 0)
(6.57981e-06 -2.0353e-08 0)
(6.6973e-06 -1.86242e-08 0)
(6.81519e-06 -1.65987e-08 0)
(6.93326e-06 -1.4225e-08 0)
(7.05077e-06 -1.14549e-08 0)
(7.16788e-06 -8.22562e-09 0)
(7.28279e-06 -4.52102e-09 0)
(5.19098e-06 -7.81713e-08 0)
(5.27627e-06 -7.88798e-08 0)
(5.36615e-06 -7.9706e-08 0)
(5.46029e-06 -8.02706e-08 0)
(5.55828e-06 -8.04717e-08 0)
(5.65975e-06 -8.0331e-08 0)
(5.76437e-06 -7.97813e-08 0)
(5.87182e-06 -7.88285e-08 0)
(5.98179e-06 -7.74072e-08 0)
(6.09398e-06 -7.545e-08 0)
(6.20809e-06 -7.29234e-08 0)
(6.32382e-06 -6.98145e-08 0)
(6.44091e-06 -6.60757e-08 0)
(6.55901e-06 -6.16381e-08 0)
(6.67786e-06 -5.64104e-08 0)
(6.79702e-06 -5.02932e-08 0)
(6.91633e-06 -4.3156e-08 0)
(7.03503e-06 -3.48649e-08 0)
(7.1533e-06 -2.52225e-08 0)
(7.26937e-06 -1.41508e-08 0)
(5.08532e-06 -1.37902e-07 0)
(5.17943e-06 -1.37984e-07 0)
(5.27721e-06 -1.3834e-07 0)
(5.37816e-06 -1.38505e-07 0)
(5.48224e-06 -1.38221e-07 0)
(5.58918e-06 -1.37516e-07 0)
(5.69875e-06 -1.36212e-07 0)
(5.81063e-06 -1.34283e-07 0)
(5.92462e-06 -1.31607e-07 0)
(6.0405e-06 -1.28113e-07 0)
(6.15802e-06 -1.23753e-07 0)
(6.27694e-06 -1.18477e-07 0)
(6.397e-06 -1.12168e-07 0)
(6.51788e-06 -1.04695e-07 0)
(6.63936e-06 -9.59139e-08 0)
(6.76106e-06 -8.56715e-08 0)
(6.88281e-06 -7.37558e-08 0)
(7.0039e-06 -5.99528e-08 0)
(7.12451e-06 -4.39329e-08 0)
(7.2429e-06 -2.55404e-08 0)
(4.93095e-06 -2.08285e-07 0)
(5.03764e-06 -2.06161e-07 0)
(5.14682e-06 -2.04622e-07 0)
(5.2577e-06 -2.0332e-07 0)
(5.37075e-06 -2.01671e-07 0)
(5.4856e-06 -1.99703e-07 0)
(5.60234e-06 -1.97063e-07 0)
(5.72071e-06 -1.93697e-07 0)
(5.84067e-06 -1.89414e-07 0)
(5.96203e-06 -1.84119e-07 0)
(6.0846e-06 -1.77714e-07 0)
(6.20818e-06 -1.70082e-07 0)
(6.33259e-06 -1.61047e-07 0)
(6.45756e-06 -1.50433e-07 0)
(6.58292e-06 -1.38057e-07 0)
(6.70834e-06 -1.2368e-07 0)
(6.83365e-06 -1.07002e-07 0)
(6.95822e-06 -8.77153e-08 0)
(7.08221e-06 -6.5345e-08 0)
(7.20398e-06 -3.96876e-08 0)
(4.73244e-06 -2.92712e-07 0)
(4.85499e-06 -2.86386e-07 0)
(4.97868e-06 -2.81164e-07 0)
(5.10215e-06 -2.77032e-07 0)
(5.22659e-06 -2.72856e-07 0)
(5.35161e-06 -2.68671e-07 0)
(5.4776e-06 -2.63926e-07 0)
(5.60434e-06 -2.58522e-07 0)
(5.73196e-06 -2.52155e-07 0)
(5.86033e-06 -2.44667e-07 0)
(5.98939e-06 -2.35896e-07 0)
(6.11902e-06 -2.25659e-07 0)
(6.24908e-06 -2.13719e-07 0)
(6.37938e-06 -1.99846e-07 0)
(6.5098e-06 -1.83793e-07 0)
(6.64001e-06 -1.65238e-07 0)
(6.76996e-06 -1.43791e-07 0)
(6.89897e-06 -1.19055e-07 0)
(7.02737e-06 -9.03969e-08 0)
(7.15351e-06 -5.75623e-08 0)
(4.49543e-06 -3.93636e-07 0)
(4.63622e-06 -3.80801e-07 0)
(4.77688e-06 -3.69756e-07 0)
(4.91522e-06 -3.6111e-07 0)
(5.05325e-06 -3.53024e-07 0)
(5.19043e-06 -3.45508e-07 0)
(5.32743e-06 -3.37756e-07 0)
(5.46421e-06 -3.29551e-07 0)
(5.60101e-06 -3.20499e-07 0)
(5.73782e-06 -3.10356e-07 0)
(5.8747e-06 -2.98871e-07 0)
(6.01161e-06 -2.85773e-07 0)
(6.14847e-06 -2.70745e-07 0)
(6.28516e-06 -2.53493e-07 0)
(6.42164e-06 -2.33681e-07 0)
(6.55761e-06 -2.10915e-07 0)
(6.69311e-06 -1.84715e-07 0)
(6.8275e-06 -1.54595e-07 0)
(6.9612e-06 -1.19765e-07 0)
(7.09261e-06 -7.98738e-08 0)
(4.22648e-06 -5.12604e-07 0)
(4.38717e-06 -4.90875e-07 0)
(4.54662e-06 -4.71863e-07 0)
(4.70154e-06 -4.56906e-07 0)
(4.85474e-06 -4.43452e-07 0)
(5.00562e-06 -4.31347e-07 0)
(5.15509e-06 -4.19602e-07 0)
(5.30326e-06 -4.07788e-07 0)
(5.45054e-06 -3.95409e-07 0)
(5.59702e-06 -3.82095e-07 0)
(5.74286e-06 -3.67479e-07 0)
(5.88809e-06 -3.51182e-07 0)
(6.03274e-06 -3.32807e-07 0)
(6.17675e-06 -3.1199e-07 0)
(6.32016e-06 -2.88305e-07 0)
(6.46275e-06 -2.61287e-07 0)
(6.60464e-06 -2.30355e-07 0)
(6.74523e-06 -1.94916e-07 0)
(6.88498e-06 -1.5402e-07 0)
(7.02243e-06 -1.07217e-07 0)
(3.93217e-06 -6.4995e-07 0)
(4.11348e-06 -6.16738e-07 0)
(4.29269e-06 -5.87641e-07 0)
(4.46544e-06 -5.6436e-07 0)
(4.63504e-06 -5.43972e-07 0)
(4.8009e-06 -5.25927e-07 0)
(4.96411e-06 -5.09114e-07 0)
(5.12488e-06 -4.92839e-07 0)
(5.28373e-06 -4.76467e-07 0)
(5.4409e-06 -4.59459e-07 0)
(5.59663e-06 -4.4131e-07 0)
(5.75104e-06 -4.21523e-07 0)
(5.90426e-06 -3.99614e-07 0)
(6.05639e-06 -3.75131e-07 0)
(6.20747e-06 -3.47555e-07 0)
(6.35741e-06 -3.16328e-07 0)
(6.50635e-06 -2.80753e-07 0)
(6.65378e-06 -2.40123e-07 0)
(6.80022e-06 -1.93326e-07 0)
(6.94435e-06 -1.39812e-07 0)
(3.61947e-06 -8.05441e-07 0)
(3.82168e-06 -7.58489e-07 0)
(4.02084e-06 -7.17901e-07 0)
(4.21214e-06 -6.84544e-07 0)
(4.39877e-06 -6.55871e-07 0)
(4.58039e-06 -6.30666e-07 0)
(4.75806e-06 -6.07733e-07 0)
(4.93221e-06 -5.86094e-07 0)
(5.10338e-06 -5.64954e-07 0)
(5.27196e-06 -5.43596e-07 0)
(5.43828e-06 -5.21373e-07 0)
(5.60257e-06 -4.97676e-07 0)
(5.76507e-06 -4.71926e-07 0)
(5.92594e-06 -4.43568e-07 0)
(6.08531e-06 -4.11972e-07 0)
(6.24316e-06 -3.76478e-07 0)
(6.39968e-06 -3.36266e-07 0)
(6.55448e-06 -2.90512e-07 0)
(6.70812e-06 -2.37967e-07 0)
(6.85949e-06 -1.77992e-07 0)
(3.29434e-06 -9.76576e-07 0)
(3.51803e-06 -9.12471e-07 0)
(3.73661e-06 -8.58978e-07 0)
(3.94706e-06 -8.13896e-07 0)
(4.15113e-06 -7.75527e-07 0)
(4.34917e-06 -7.42019e-07 0)
(4.54194e-06 -7.1203e-07 0)
(4.73005e-06 -6.84334e-07 0)
(4.91412e-06 -6.57914e-07 0)
(5.09462e-06 -6.31854e-07 0)
(5.27199e-06 -6.05342e-07 0)
(5.44659e-06 -5.77628e-07 0)
(5.61873e-06 -5.48013e-07 0)
(5.78869e-06 -5.1582e-07 0)
(5.95663e-06 -4.80305e-07 0)
(6.12266e-06 -4.40704e-07 0)
(6.287e-06 -3.96078e-07 0)
(6.44941e-06 -3.4548e-07 0)
(6.61053e-06 -2.87531e-07 0)
(6.76949e-06 -2.21469e-07 0)
(3.05093e-06 -1.14248e-06 0)
(3.29004e-06 -1.06373e-06 0)
(3.52083e-06 -1.00023e-06 0)
(3.74345e-06 -9.45586e-07 0)
(3.95871e-06 -8.98546e-07 0)
(4.16731e-06 -8.5717e-07 0)
(4.36998e-06 -8.20037e-07 0)
(4.56736e-06 -7.8587e-07 0)
(4.76005e-06 -7.53556e-07 0)
(4.94856e-06 -7.22089e-07 0)
(5.13336e-06 -6.90574e-07 0)
(5.31484e-06 -6.58183e-07 0)
(5.49337e-06 -6.24135e-07 0)
(5.66926e-06 -5.87669e-07 0)
(5.84272e-06 -5.47973e-07 0)
(6.01394e-06 -5.0421e-07 0)
(6.18318e-06 -4.55397e-07 0)
(6.35039e-06 -4.00525e-07 0)
(6.51619e-06 -3.3819e-07 0)
(6.67999e-06 -2.67563e-07 0)
(2.91266e-06 -1.27826e-06 0)
(3.15336e-06 -1.19626e-06 0)
(3.3862e-06 -1.12692e-06 0)
(3.61205e-06 -1.0662e-06 0)
(3.831e-06 -1.01293e-06 0)
(4.04352e-06 -9.65438e-07 0)
(4.25014e-06 -9.22387e-07 0)
(4.45138e-06 -8.82551e-07 0)
(4.64774e-06 -8.44834e-07 0)
(4.83967e-06 -8.08243e-07 0)
(5.02763e-06 -7.71877e-07 0)
(5.21199e-06 -7.34893e-07 0)
(5.39313e-06 -6.96489e-07 0)
(5.57136e-06 -6.55878e-07 0)
(5.7469e-06 -6.1224e-07 0)
(5.92002e-06 -5.64724e-07 0)
(6.09097e-06 -5.12373e-07 0)
(6.25987e-06 -4.54193e-07 0)
(6.42729e-06 -3.88846e-07 0)
(6.5929e-06 -3.15501e-07 0)
(2.79534e-06 -1.40803e-06 0)
(3.03354e-06 -1.32436e-06 0)
(3.26601e-06 -1.25144e-06 0)
(3.49244e-06 -1.18618e-06 0)
(3.71285e-06 -1.1278e-06 0)
(3.92732e-06 -1.07497e-06 0)
(4.13623e-06 -1.02652e-06 0)
(4.33989e-06 -9.81361e-07 0)
(4.53869e-06 -9.38462e-07 0)
(4.73302e-06 -8.96882e-07 0)
(4.92328e-06 -8.55745e-07 0)
(5.10981e-06 -8.14216e-07 0)
(5.29296e-06 -7.71489e-07 0)
(5.47305e-06 -7.26779e-07 0)
(5.65028e-06 -6.79272e-07 0)
(5.825e-06 -6.28125e-07 0)
(5.99745e-06 -5.72422e-07 0)
(6.16787e-06 -5.11215e-07 0)
(6.33677e-06 -4.43236e-07 0)
(6.50407e-06 -3.67684e-07 0)
(2.69218e-06 -1.53299e-06 0)
(2.92687e-06 -1.44857e-06 0)
(3.15732e-06 -1.37303e-06 0)
(3.38271e-06 -1.30414e-06 0)
(3.60296e-06 -1.24142e-06 0)
(3.81791e-06 -1.18389e-06 0)
(4.02777e-06 -1.13057e-06 0)
(4.23267e-06 -1.0805e-06 0)
(4.43291e-06 -1.03275e-06 0)
(4.62879e-06 -9.86456e-07 0)
(4.82063e-06 -9.40775e-07 0)
(5.00871e-06 -8.94899e-07 0)
(5.19337e-06 -8.48042e-07 0)
(5.37489e-06 -7.99431e-07 0)
(5.55351e-06 -7.48274e-07 0)
(5.72957e-06 -6.93755e-07 0)
(5.90333e-06 -6.35013e-07 0)
(6.07511e-06 -5.71152e-07 0)
(6.24536e-06 -5.00987e-07 0)
(6.41424e-06 -4.23806e-07 0)
(2.60137e-06 -1.65268e-06 0)
(2.83171e-06 -1.5682e-06 0)
(3.05903e-06 -1.49101e-06 0)
(3.28217e-06 -1.41943e-06 0)
(3.50103e-06 -1.35324e-06 0)
(3.71528e-06 -1.29174e-06 0)
(3.92498e-06 -1.23416e-06 0)
(4.13012e-06 -1.17968e-06 0)
(4.33092e-06 -1.12749e-06 0)
(4.52756e-06 -1.07681e-06 0)
(4.7203e-06 -1.02686e-06 0)
(4.90937e-06 -9.76876e-07 0)
(5.09507e-06 -9.26105e-07 0)
(5.27764e-06 -8.73806e-07 0)
(5.45733e-06 -8.19221e-07 0)
(5.63449e-06 -7.61578e-07 0)
(5.80937e-06 -7.00071e-07 0)
(5.98232e-06 -6.3387e-07 0)
(6.1538e-06 -5.619e-07 0)
(6.32413e-06 -4.83599e-07 0)
(2.52065e-06 -1.76727e-06 0)
(2.74623e-06 -1.68322e-06 0)
(2.96976e-06 -1.60504e-06 0)
(3.18983e-06 -1.53148e-06 0)
(3.40644e-06 -1.46254e-06 0)
(3.61909e-06 -1.39772e-06 0)
(3.82775e-06 -1.33646e-06 0)
(4.03232e-06 -1.27808e-06 0)
(4.23291e-06 -1.2219e-06 0)
(4.42965e-06 -1.16723e-06 0)
(4.62271e-06 -1.11335e-06 0)
(4.81225e-06 -1.05957e-06 0)
(4.99855e-06 -1.00516e-06 0)
(5.18182e-06 -9.49452e-07 0)
(5.36228e-06 -8.91711e-07 0)
(5.5403e-06 -8.31231e-07 0)
(5.71608e-06 -7.67262e-07 0)
(5.89005e-06 -6.9905e-07 0)
(6.06263e-06 -6.2567e-07 0)
(6.23424e-06 -5.4669e-07 0)
(2.44836e-06 -1.87695e-06 0)
(2.66895e-06 -1.79368e-06 0)
(2.88826e-06 -1.71502e-06 0)
(3.10474e-06 -1.64008e-06 0)
(3.31847e-06 -1.56901e-06 0)
(3.52885e-06 -1.50149e-06 0)
(3.73581e-06 -1.43711e-06 0)
(3.93917e-06 -1.37536e-06 0)
(4.13895e-06 -1.31565e-06 0)
(4.33522e-06 -1.25739e-06 0)
(4.52809e-06 -1.19996e-06 0)
(4.71765e-06 -1.1427e-06 0)
(4.90417e-06 -1.08497e-06 0)
(5.0878e-06 -1.02614e-06 0)
(5.26877e-06 -9.6552e-07 0)
(5.4474e-06 -9.02481e-07 0)
(5.62391e-06 -8.3634e-07 0)
(5.79873e-06 -7.66433e-07 0)
(5.97227e-06 -6.92001e-07 0)
(6.14498e-06 -6.12656e-07 0)
(2.38297e-06 -1.982e-06 0)
(2.59853e-06 -1.89972e-06 0)
(2.81336e-06 -1.82097e-06 0)
(3.02595e-06 -1.74512e-06 0)
(3.23638e-06 -1.67244e-06 0)
(3.44402e-06 -1.60273e-06 0)
(3.64878e-06 -1.53575e-06 0)
(3.85042e-06 -1.4711e-06 0)
(4.04891e-06 -1.40831e-06 0)
(4.24424e-06 -1.34689e-06 0)
(4.43649e-06 -1.28628e-06 0)
(4.62571e-06 -1.2259e-06 0)
(4.81211e-06 -1.16518e-06 0)
(4.99582e-06 -1.10353e-06 0)
(5.17705e-06 -1.04033e-06 0)
(5.35609e-06 -9.75023e-07 0)
(5.53315e-06 -9.07007e-07 0)
(5.70868e-06 -8.35718e-07 0)
(5.88302e-06 -7.60536e-07 0)
(6.05669e-06 -6.81063e-07 0)
(2.32311e-06 -2.08275e-06 0)
(2.53368e-06 -2.00159e-06 0)
(2.74396e-06 -1.92301e-06 0)
(2.95249e-06 -1.84662e-06 0)
(3.15936e-06 -1.77274e-06 0)
(3.36396e-06 -1.7013e-06 0)
(3.56618e-06 -1.63217e-06 0)
(3.76573e-06 -1.56508e-06 0)
(3.96254e-06 -1.49964e-06 0)
(4.15659e-06 -1.43546e-06 0)
(4.34788e-06 -1.37206e-06 0)
(4.53645e-06 -1.30892e-06 0)
(4.72247e-06 -1.24553e-06 0)
(4.90602e-06 -1.18138e-06 0)
(5.08729e-06 -1.11591e-06 0)
(5.26657e-06 -1.04863e-06 0)
(5.44404e-06 -9.79033e-07 0)
(5.62013e-06 -9.06642e-07 0)
(5.79513e-06 -8.30928e-07 0)
(5.96959e-06 -7.51567e-07 0)
(2.26758e-06 -2.1795e-06 0)
(2.47327e-06 -2.09954e-06 0)
(2.67901e-06 -2.02132e-06 0)
(2.88342e-06 -1.94465e-06 0)
(3.08661e-06 -1.86991e-06 0)
(3.288e-06 -1.79712e-06 0)
(3.48745e-06 -1.72625e-06 0)
(3.68467e-06 -1.65712e-06 0)
(3.87955e-06 -1.58944e-06 0)
(4.07205e-06 -1.52289e-06 0)
(4.26214e-06 -1.45707e-06 0)
(4.44982e-06 -1.39154e-06 0)
(4.63523e-06 -1.32583e-06 0)
(4.81843e-06 -1.25949e-06 0)
(4.99958e-06 -1.19205e-06 0)
(5.17895e-06 -1.12309e-06 0)
(5.35668e-06 -1.05218e-06 0)
(5.53319e-06 -9.78922e-07 0)
(5.70871e-06 -9.0285e-07 0)
(5.88383e-06 -8.23828e-07 0)
(2.21533e-06 -2.27262e-06 0)
(2.41629e-06 -2.19385e-06 0)
(2.61757e-06 -2.1161e-06 0)
(2.8179e-06 -2.03935e-06 0)
(3.01739e-06 -1.96402e-06 0)
(3.21548e-06 -1.8902e-06 0)
(3.41205e-06 -1.81795e-06 0)
(3.60678e-06 -1.74717e-06 0)
(3.79957e-06 -1.67763e-06 0)
(3.99035e-06 -1.60908e-06 0)
(4.17905e-06 -1.5412e-06 0)
(4.36567e-06 -1.4736e-06 0)
(4.55032e-06 -1.40588e-06 0)
(4.73302e-06 -1.33767e-06 0)
(4.91392e-06 -1.26855e-06 0)
(5.09325e-06 -1.19818e-06 0)
(5.27113e-06 -1.12621e-06 0)
(5.44792e-06 -1.05226e-06 0)
(5.62386e-06 -9.76016e-07 0)
(5.79948e-06 -8.97446e-07 0)
(2.16543e-06 -2.3624e-06 0)
(2.36184e-06 -2.28478e-06 0)
(2.55879e-06 -2.20757e-06 0)
(2.75512e-06 -2.13088e-06 0)
(2.95095e-06 -2.05519e-06 0)
(3.14575e-06 -1.98063e-06 0)
(3.33938e-06 -1.90731e-06 0)
(3.53157e-06 -1.83519e-06 0)
(3.72218e-06 -1.76413e-06 0)
(3.91114e-06 -1.69393e-06 0)
(4.09837e-06 -1.62431e-06 0)
(4.28382e-06 -1.55496e-06 0)
(4.46759e-06 -1.48555e-06 0)
(4.6497e-06 -1.41577e-06 0)
(4.83024e-06 -1.34526e-06 0)
(5.00944e-06 -1.27374e-06 0)
(5.18736e-06 -1.20089e-06 0)
(5.36433e-06 -1.12642e-06 0)
(5.54058e-06 -1.05019e-06 0)
(5.71658e-06 -9.72093e-07 0)
(2.11706e-06 -2.44913e-06 0)
(2.30911e-06 -2.37257e-06 0)
(2.50188e-06 -2.29595e-06 0)
(2.69435e-06 -2.21946e-06 0)
(2.8866e-06 -2.14358e-06 0)
(3.07816e-06 -2.06849e-06 0)
(3.2689e-06 -1.99437e-06 0)
(3.45854e-06 -1.92121e-06 0)
(3.64697e-06 -1.84894e-06 0)
(3.83409e-06 -1.77739e-06 0)
(4.01978e-06 -1.70635e-06 0)
(4.20402e-06 -1.63558e-06 0)
(4.38687e-06 -1.56479e-06 0)
(4.56831e-06 -1.49372e-06 0)
(4.74844e-06 -1.42207e-06 0)
(4.92741e-06 -1.3496e-06 0)
(5.10527e-06 -1.27606e-06 0)
(5.28236e-06 -1.20124e-06 0)
(5.45881e-06 -1.12511e-06 0)
(5.63509e-06 -1.04755e-06 0)
(2.06943e-06 -2.53304e-06 0)
(2.25733e-06 -2.45751e-06 0)
(2.4461e-06 -2.38148e-06 0)
(2.63486e-06 -2.30526e-06 0)
(2.82365e-06 -2.22933e-06 0)
(3.01209e-06 -2.15391e-06 0)
(3.20003e-06 -2.07923e-06 0)
(3.38722e-06 -2.0053e-06 0)
(3.5735e-06 -1.9321e-06 0)
(3.75879e-06 -1.8595e-06 0)
(3.94297e-06 -1.78734e-06 0)
(4.12599e-06 -1.71542e-06 0)
(4.3079e-06 -1.64351e-06 0)
(4.48866e-06 -1.5714e-06 0)
(4.66832e-06 -1.49884e-06 0)
(4.84701e-06 -1.4256e-06 0)
(5.02476e-06 -1.35153e-06 0)
(5.20189e-06 -1.27652e-06 0)
(5.37846e-06 -1.2005e-06 0)
(5.55492e-06 -1.12351e-06 0)
(2.02175e-06 -2.61443e-06 0)
(2.20571e-06 -2.53983e-06 0)
(2.39068e-06 -2.46439e-06 0)
(2.5759e-06 -2.3885e-06 0)
(2.76143e-06 -2.31265e-06 0)
(2.94692e-06 -2.23709e-06 0)
(3.13222e-06 -2.16205e-06 0)
(3.31706e-06 -2.08758e-06 0)
(3.50131e-06 -2.01368e-06 0)
(3.68486e-06 -1.94027e-06 0)
(3.86759e-06 -1.86727e-06 0)
(4.04945e-06 -1.79448e-06 0)
(4.23045e-06 -1.72171e-06 0)
(4.41052e-06 -1.6488e-06 0)
(4.58968e-06 -1.5755e-06 0)
(4.76806e-06 -1.50168e-06 0)
(4.94569e-06 -1.42725e-06 0)
(5.1228e-06 -1.35212e-06 0)
(5.29945e-06 -1.27625e-06 0)
(5.476e-06 -1.19976e-06 0)
(1.97327e-06 -2.69347e-06 0)
(2.15349e-06 -2.6198e-06 0)
(2.33482e-06 -2.54487e-06 0)
(2.51677e-06 -2.46937e-06 0)
(2.69928e-06 -2.39373e-06 0)
(2.88205e-06 -2.31818e-06 0)
(3.0649e-06 -2.24295e-06 0)
(3.24758e-06 -2.16816e-06 0)
(3.42995e-06 -2.0938e-06 0)
(3.6119e-06 -2.01984e-06 0)
(3.79331e-06 -1.94622e-06 0)
(3.97408e-06 -1.87279e-06 0)
(4.15422e-06 -1.79938e-06 0)
(4.33362e-06 -1.72584e-06 0)
(4.5123e-06 -1.652e-06 0)
(4.69039e-06 -1.57777e-06 0)
(4.86788e-06 -1.50309e-06 0)
(5.04493e-06 -1.42784e-06 0)
(5.22158e-06 -1.35216e-06 0)
(5.39816e-06 -1.27615e-06 0)
(1.9232e-06 -2.77045e-06 0)
(2.09975e-06 -2.69743e-06 0)
(2.27766e-06 -2.62319e-06 0)
(2.45674e-06 -2.54822e-06 0)
(2.63651e-06 -2.47286e-06 0)
(2.81686e-06 -2.39743e-06 0)
(2.99752e-06 -2.32218e-06 0)
(3.17828e-06 -2.24723e-06 0)
(3.35899e-06 -2.17261e-06 0)
(3.53955e-06 -2.09831e-06 0)
(3.71979e-06 -2.02429e-06 0)
(3.89959e-06 -1.95041e-06 0)
(4.07893e-06 -1.87652e-06 0)
(4.25773e-06 -1.80254e-06 0)
(4.436e-06 -1.72834e-06 0)
(4.61384e-06 -1.65382e-06 0)
(4.79114e-06 -1.57892e-06 0)
(4.96808e-06 -1.50362e-06 0)
(5.1447e-06 -1.42813e-06 0)
(5.32135e-06 -1.35252e-06 0)
(1.87035e-06 -2.84528e-06 0)
(2.04379e-06 -2.77304e-06 0)
(2.21888e-06 -2.69961e-06 0)
(2.3952e-06 -2.62517e-06 0)
(2.5726e-06 -2.55022e-06 0)
(2.7508e-06 -2.47504e-06 0)
(2.92959e-06 -2.39991e-06 0)
(3.10874e-06 -2.32498e-06 0)
(3.28809e-06 -2.25028e-06 0)
(3.46749e-06 -2.17582e-06 0)
(3.64674e-06 -2.10155e-06 0)
(3.82569e-06 -2.02739e-06 0)
(4.00437e-06 -1.95322e-06 0)
(4.1827e-06 -1.87896e-06 0)
(4.36062e-06 -1.80449e-06 0)
(4.53813e-06 -1.72977e-06 0)
(4.71522e-06 -1.65472e-06 0)
(4.89215e-06 -1.57942e-06 0)
(5.06877e-06 -1.50407e-06 0)
(5.24527e-06 -1.42879e-06 0)
(1.81402e-06 -2.91877e-06 0)
(1.98461e-06 -2.84742e-06 0)
(2.15716e-06 -2.77459e-06 0)
(2.33124e-06 -2.70074e-06 0)
(2.50666e-06 -2.62624e-06 0)
(2.68317e-06 -2.55143e-06 0)
(2.86055e-06 -2.47655e-06 0)
(3.03853e-06 -2.40175e-06 0)
(3.21686e-06 -2.32708e-06 0)
(3.39534e-06 -2.25257e-06 0)
(3.57383e-06 -2.17821e-06 0)
(3.75223e-06 -2.10389e-06 0)
(3.93044e-06 -2.02955e-06 0)
(4.1083e-06 -1.95512e-06 0)
(4.28584e-06 -1.88047e-06 0)
(4.46317e-06 -1.80556e-06 0)
(4.64014e-06 -1.73044e-06 0)
(4.81691e-06 -1.65514e-06 0)
(4.99351e-06 -1.57984e-06 0)
(5.16998e-06 -1.5048e-06 0)
(1.75347e-06 -2.99029e-06 0)
(1.92158e-06 -2.91995e-06 0)
(2.09199e-06 -2.84802e-06 0)
(2.2643e-06 -2.77491e-06 0)
(2.4383e-06 -2.70104e-06 0)
(2.61369e-06 -2.62672e-06 0)
(2.79016e-06 -2.55222e-06 0)
(2.96734e-06 -2.47768e-06 0)
(3.14501e-06 -2.40316e-06 0)
(3.32303e-06 -2.32871e-06 0)
(3.50112e-06 -2.25434e-06 0)
(3.67907e-06 -2.18e-06 0)
(3.85689e-06 -2.10554e-06 0)
(4.03448e-06 -2.03098e-06 0)
(4.21173e-06 -1.95625e-06 0)
(4.38879e-06 -1.88124e-06 0)
(4.56562e-06 -1.80608e-06 0)
(4.74227e-06 -1.73071e-06 0)
(4.91886e-06 -1.65542e-06 0)
(5.09525e-06 -1.58043e-06 0)
(1.27407e-07 -2.53294e-06 0)
(3.83877e-07 -2.49602e-06 0)
(6.45269e-07 -2.42352e-06 0)
(9.14359e-07 -2.31852e-06 0)
(1.19337e-06 -2.18492e-06 0)
(1.48368e-06 -2.0278e-06 0)
(1.78581e-06 -1.85286e-06 0)
(2.09923e-06 -1.66608e-06 0)
(2.42307e-06 -1.47341e-06 0)
(2.7545e-06 -1.27954e-06 0)
(1.24039e-07 -2.57607e-06 0)
(3.73515e-07 -2.54236e-06 0)
(6.27046e-07 -2.47609e-06 0)
(8.86955e-07 -2.37994e-06 0)
(1.1551e-06 -2.25716e-06 0)
(1.43263e-06 -2.11208e-06 0)
(1.71998e-06 -1.94957e-06 0)
(2.01659e-06 -1.77478e-06 0)
(2.32113e-06 -1.59317e-06 0)
(2.63128e-06 -1.40897e-06 0)
(1.21001e-07 -2.62033e-06 0)
(3.6416e-07 -2.58954e-06 0)
(6.10582e-07 -2.52891e-06 0)
(8.62123e-07 -2.44079e-06 0)
(1.12033e-06 -2.32802e-06 0)
(1.38614e-06 -2.19431e-06 0)
(1.65999e-06 -2.04384e-06 0)
(1.94169e-06 -1.88095e-06 0)
(2.23021e-06 -1.71043e-06 0)
(2.52406e-06 -1.53521e-06 0)
(1.18267e-07 -2.66571e-06 0)
(3.55765e-07 -2.63739e-06 0)
(5.95983e-07 -2.58154e-06 0)
(8.40368e-07 -2.50028e-06 0)
(1.09024e-06 -2.39608e-06 0)
(1.34631e-06 -2.27216e-06 0)
(1.60888e-06 -2.13231e-06 0)
(1.87779e-06 -1.9803e-06 0)
(2.15209e-06 -1.82067e-06 0)
(2.43058e-06 -1.65572e-06 0)
(1.15755e-07 -2.71217e-06 0)
(3.47991e-07 -2.68606e-06 0)
(5.82507e-07 -2.63449e-06 0)
(8.20407e-07 -2.55939e-06 0)
(1.0628e-06 -2.46295e-06 0)
(1.31027e-06 -2.34803e-06 0)
(1.56306e-06 -2.218e-06 0)
(1.82104e-06 -2.07609e-06 0)
(2.08349e-06 -1.92645e-06 0)
(2.34886e-06 -1.77114e-06 0)
(1.13404e-07 -2.75965e-06 0)
(3.40777e-07 -2.73544e-06 0)
(5.70057e-07 -2.68761e-06 0)
(8.02133e-07 -2.61789e-06 0)
(1.03791e-06 -2.52827e-06 0)
(1.27787e-06 -2.42131e-06 0)
(1.52214e-06 -2.30009e-06 0)
(1.77055e-06 -2.16747e-06 0)
(2.02265e-06 -2.02722e-06 0)
(2.27662e-06 -1.88137e-06 0)
(1.11132e-07 -2.80807e-06 0)
(3.33898e-07 -2.78556e-06 0)
(5.58242e-07 -2.74109e-06 0)
(7.84941e-07 -2.67617e-06 0)
(1.0147e-06 -2.59267e-06 0)
(1.24794e-06 -2.4929e-06 0)
(1.48476e-06 -2.37965e-06 0)
(1.72484e-06 -2.25549e-06 0)
(1.96804e-06 -2.12379e-06 0)
(2.21222e-06 -1.98673e-06 0)
(1.08962e-07 -2.85733e-06 0)
(3.27287e-07 -2.83631e-06 0)
(5.4694e-07 -2.79482e-06 0)
(7.68618e-07 -2.73416e-06 0)
(9.92877e-07 -2.65612e-06 0)
(1.22002e-06 -2.56279e-06 0)
(1.45019e-06 -2.45673e-06 0)
(1.68293e-06 -2.3403e-06 0)
(1.91831e-06 -2.21647e-06 0)
(2.15408e-06 -2.08755e-06 0)
(1.06855e-07 -2.90733e-06 0)
(3.20824e-07 -2.88765e-06 0)
(5.35957e-07 -2.84883e-06 0)
(7.52853e-07 -2.79201e-06 0)
(9.71969e-07 -2.7189e-06 0)
(1.19355e-06 -2.63137e-06 0)
(1.4177e-06 -2.53179e-06 0)
(1.64391e-06 -2.42238e-06 0)
(1.87239e-06 -2.30572e-06 0)
(2.10089e-06 -2.18424e-06 0)
(1.04745e-07 -2.95799e-06 0)
(3.14427e-07 -2.93949e-06 0)
(5.25159e-07 -2.90306e-06 0)
(7.37453e-07 -2.8497e-06 0)
(9.5168e-07 -2.78103e-06 0)
(1.16808e-06 -2.69873e-06 0)
(1.3867e-06 -2.60502e-06 0)
(1.60703e-06 -2.50197e-06 0)
(1.82933e-06 -2.39188e-06 0)
(2.05147e-06 -2.27719e-06 0)
(1.02602e-07 -3.00919e-06 0)
(3.08035e-07 -2.99175e-06 0)
(5.14405e-07 -2.95749e-06 0)
(7.22198e-07 -2.90727e-06 0)
(9.31712e-07 -2.8426e-06 0)
(1.14319e-06 -2.76504e-06 0)
(1.35667e-06 -2.67665e-06 0)
(1.57162e-06 -2.57938e-06 0)
(1.78834e-06 -2.47528e-06 0)
(2.00483e-06 -2.36674e-06 0)
(1.00438e-07 -3.06079e-06 0)
(3.01598e-07 -3.04432e-06 0)
(5.03579e-07 -3.01203e-06 0)
(7.06898e-07 -2.96466e-06 0)
(9.11815e-07 -2.90361e-06 0)
(1.11855e-06 -2.83037e-06 0)
(1.32715e-06 -2.74681e-06 0)
(1.53711e-06 -2.65481e-06 0)
(1.74869e-06 -2.55615e-06 0)
(1.96012e-06 -2.45319e-06 0)
(9.82454e-08 -3.11266e-06 0)
(2.95025e-07 -3.0971e-06 0)
(4.92542e-07 -3.06661e-06 0)
(6.91352e-07 -3.02183e-06 0)
(8.91715e-07 -2.9641e-06 0)
(1.0938e-06 -2.89479e-06 0)
(1.29771e-06 -2.81565e-06 0)
(1.50295e-06 -2.72842e-06 0)
(1.70975e-06 -2.63473e-06 0)
(1.91659e-06 -2.53686e-06 0)
(9.59801e-08 -3.16468e-06 0)
(2.88199e-07 -3.14995e-06 0)
(4.81138e-07 -3.1211e-06 0)
(6.7535e-07 -3.0787e-06 0)
(8.71125e-07 -3.024e-06 0)
(1.0686e-06 -2.95831e-06 0)
(1.2679e-06 -2.88321e-06 0)
(1.46861e-06 -2.80034e-06 0)
(1.67091e-06 -2.71122e-06 0)
(1.87349e-06 -2.61799e-06 0)
(9.359e-08 -3.21672e-06 0)
(2.8102e-07 -3.20277e-06 0)
(4.69211e-07 -3.17541e-06 0)
(6.58681e-07 -3.13523e-06 0)
(8.49755e-07 -3.08334e-06 0)
(1.04257e-06 -3.02098e-06 0)
(1.23729e-06 -2.94958e-06 0)
(1.43356e-06 -2.87072e-06 0)
(1.63153e-06 -2.78582e-06 0)
(1.83006e-06 -2.69682e-06 0)
(9.10464e-08 -3.26853e-06 0)
(2.73418e-07 -3.2553e-06 0)
(4.56621e-07 -3.22934e-06 0)
(6.41125e-07 -3.19122e-06 0)
(8.27307e-07 -3.14193e-06 0)
(1.01534e-06 -3.08265e-06 0)
(1.20542e-06 -3.0147e-06 0)
(1.39728e-06 -2.93958e-06 0)
(1.59098e-06 -2.85858e-06 0)
(1.78562e-06 -2.77346e-06 0)
(8.83314e-08 -3.32003e-06 0)
(2.65309e-07 -3.30749e-06 0)
(4.43183e-07 -3.28285e-06 0)
(6.22414e-07 -3.24666e-06 0)
(8.03441e-07 -3.19983e-06 0)
(9.86491e-07 -3.14344e-06 0)
(1.17178e-06 -3.07873e-06 0)
(1.35912e-06 -3.00712e-06 0)
(1.54856e-06 -2.92972e-06 0)
(1.73929e-06 -2.84824e-06 0)
(8.54145e-08 -3.3707e-06 0)
(2.56576e-07 -3.35883e-06 0)
(4.28695e-07 -3.33544e-06 0)
(6.0227e-07 -3.30109e-06 0)
(7.77799e-07 -3.25658e-06 0)
(9.55574e-07 -3.20294e-06 0)
(1.13584e-06 -3.14133e-06 0)
(1.31845e-06 -3.07304e-06 0)
(1.50345e-06 -2.99908e-06 0)
(1.69027e-06 -2.92102e-06 0)
(8.22319e-08 -3.4208e-06 0)
(2.4703e-07 -3.40956e-06 0)
(4.12856e-07 -3.3874e-06 0)
(5.80283e-07 -3.35481e-06 0)
(7.49855e-07 -3.31256e-06 0)
(9.21943e-07 -3.26159e-06 0)
(1.09682e-06 -3.20297e-06 0)
(1.27441e-06 -3.13784e-06 0)
(1.45477e-06 -3.06721e-06 0)
(1.63754e-06 -2.99241e-06 0)
(7.87473e-08 -3.46892e-06 0)
(2.36588e-07 -3.4583e-06 0)
(3.95534e-07 -3.43734e-06 0)
(5.56258e-07 -3.40651e-06 0)
(7.19369e-07 -3.36649e-06 0)
(8.85288e-07 -3.31819e-06 0)
(1.05432e-06 -3.26252e-06 0)
(1.22653e-06 -3.20056e-06 0)
(1.40198e-06 -3.13326e-06 0)
(1.58053e-06 -3.06175e-06 0)
)


// ************************************************************************* //
