/*--------------------------------*- C++ -*----------------------------------*\
| =========                 |                                                 |
| \\      /  F ield         | foam-extend: Open Source CFD                    |
|  \\    /   O peration     | Version:     4.1                                |
|   \\  /    A nd           | Web:         http://www.foam-extend.org         |
|    \\/     M anipulation  |                                                 |
\*---------------------------------------------------------------------------*/
FoamFile
{
    version     2.0;
    format      ascii;
    class       vectorField;
    location    "6";
    object      solidsCellD_iteration263;
}
// * * * * * * * * * * * * * * * * * * * * * * * * * * * * * * * * * * * * * //


1000
(
(3.19502e-06 -1.40942e-06 0)
(3.00865e-06 -1.30865e-06 0)
(2.88842e-06 -1.24345e-06 0)
(2.81829e-06 -1.21134e-06 0)
(2.78253e-06 -1.19798e-06 0)
(2.77182e-06 -1.19918e-06 0)
(2.77951e-06 -1.20979e-06 0)
(2.80115e-06 -1.22735e-06 0)
(2.83296e-06 -1.2497e-06 0)
(2.87366e-06 -1.27538e-06 0)
(2.88803e-06 -1.53927e-06 0)
(2.68953e-06 -1.46779e-06 0)
(2.5618e-06 -1.42105e-06 0)
(2.4862e-06 -1.40145e-06 0)
(2.44634e-06 -1.39635e-06 0)
(2.43201e-06 -1.40337e-06 0)
(2.43632e-06 -1.41817e-06 0)
(2.45443e-06 -1.43883e-06 0)
(2.48251e-06 -1.46386e-06 0)
(2.51843e-06 -1.49092e-06 0)
(2.56934e-06 -1.66237e-06 0)
(2.36658e-06 -1.62366e-06 0)
(2.23633e-06 -1.5976e-06 0)
(2.15845e-06 -1.5919e-06 0)
(2.11641e-06 -1.59587e-06 0)
(2.09961e-06 -1.60918e-06 0)
(2.10109e-06 -1.62837e-06 0)
(2.11593e-06 -1.6522e-06 0)
(2.14031e-06 -1.67981e-06 0)
(2.17194e-06 -1.7087e-06 0)
(2.24134e-06 -1.77655e-06 0)
(2.04273e-06 -1.77225e-06 0)
(1.91531e-06 -1.76796e-06 0)
(1.83856e-06 -1.77679e-06 0)
(1.79644e-06 -1.79023e-06 0)
(1.77842e-06 -1.81003e-06 0)
(1.77779e-06 -1.83368e-06 0)
(1.78969e-06 -1.86071e-06 0)
(1.81061e-06 -1.89076e-06 0)
(1.83798e-06 -1.92157e-06 0)
(1.90615e-06 -1.87957e-06 0)
(1.7202e-06 -1.90942e-06 0)
(1.60103e-06 -1.92673e-06 0)
(1.52884e-06 -1.94995e-06 0)
(1.48875e-06 -1.9727e-06 0)
(1.47079e-06 -1.99887e-06 0)
(1.46878e-06 -2.02684e-06 0)
(1.47811e-06 -2.05698e-06 0)
(1.49568e-06 -2.08933e-06 0)
(1.51887e-06 -2.12212e-06 0)
(1.56559e-06 -1.96929e-06 0)
(1.40046e-06 -2.03111e-06 0)
(1.29472e-06 -2.06866e-06 0)
(1.2304e-06 -2.10532e-06 0)
(1.19437e-06 -2.13677e-06 0)
(1.17772e-06 -2.16887e-06 0)
(1.175e-06 -2.20082e-06 0)
(1.18211e-06 -2.23385e-06 0)
(1.19642e-06 -2.26828e-06 0)
(1.2154e-06 -2.30298e-06 0)
(1.22113e-06 -2.04373e-06 0)
(1.0842e-06 -2.13355e-06 0)
(9.96564e-07 -2.18886e-06 0)
(9.43098e-07 -2.23728e-06 0)
(9.12963e-07 -2.27634e-06 0)
(8.98723e-07 -2.31361e-06 0)
(8.95918e-07 -2.34904e-06 0)
(9.01102e-07 -2.38458e-06 0)
(9.12201e-07 -2.42082e-06 0)
(9.2696e-07 -2.45726e-06 0)
(8.7401e-07 -2.10115e-06 0)
(7.71468e-07 -2.21348e-06 0)
(7.05862e-07 -2.28305e-06 0)
(6.6575e-07 -2.34092e-06 0)
(6.43044e-07 -2.38608e-06 0)
(6.32153e-07 -2.4275e-06 0)
(6.29761e-07 -2.46571e-06 0)
(6.33271e-07 -2.50329e-06 0)
(6.41184e-07 -2.54097e-06 0)
(6.5172e-07 -2.57884e-06 0)
(5.25165e-07 -2.14019e-06 0)
(4.61678e-07 -2.26826e-06 0)
(4.21056e-07 -2.34781e-06 0)
(3.96178e-07 -2.41229e-06 0)
(3.82051e-07 -2.46173e-06 0)
(3.75207e-07 -2.50605e-06 0)
(3.73603e-07 -2.5462e-06 0)
(3.75621e-07 -2.58522e-06 0)
(3.80358e-07 -2.62391e-06 0)
(3.86673e-07 -2.66281e-06 0)
(1.75388e-07 -2.15986e-06 0)
(1.53869e-07 -2.29605e-06 0)
(1.40084e-07 -2.38076e-06 0)
(1.31624e-07 -2.44866e-06 0)
(1.26804e-07 -2.5003e-06 0)
(1.24449e-07 -2.54613e-06 0)
(1.23869e-07 -2.58729e-06 0)
(1.24513e-07 -2.62705e-06 0)
(1.2608e-07 -2.66626e-06 0)
(1.28176e-07 -2.70571e-06 0)
(4.99842e-06 -6.44233e-08 0)
(5.04501e-06 -4.6372e-08 0)
(5.0719e-06 -3.48557e-08 0)
(5.10034e-06 -2.80092e-08 0)
(5.13069e-06 -2.41213e-08 0)
(5.16808e-06 -2.22197e-08 0)
(5.2124e-06 -2.1654e-08 0)
(5.26438e-06 -2.19645e-08 0)
(5.32382e-06 -2.29035e-08 0)
(5.38996e-06 -2.40578e-08 0)
(4.96109e-06 -1.93227e-07 0)
(4.99993e-06 -1.40129e-07 0)
(5.02196e-06 -1.06326e-07 0)
(5.04716e-06 -8.62834e-08 0)
(5.07538e-06 -7.4948e-08 0)
(5.11126e-06 -6.94548e-08 0)
(5.15449e-06 -6.78865e-08 0)
(5.20558e-06 -6.88944e-08 0)
(5.26429e-06 -7.17393e-08 0)
(5.3296e-06 -7.52244e-08 0)
(4.88655e-06 -3.23139e-07 0)
(4.91063e-06 -2.37851e-07 0)
(4.9233e-06 -1.83594e-07 0)
(4.9423e-06 -1.51509e-07 0)
(4.96643e-06 -1.33432e-07 0)
(4.99942e-06 -1.24772e-07 0)
(5.04055e-06 -1.2243e-07 0)
(5.08991e-06 -1.24252e-07 0)
(5.14721e-06 -1.29016e-07 0)
(5.21093e-06 -1.34858e-07 0)
(4.77616e-06 -4.54652e-07 0)
(4.77924e-06 -3.41783e-07 0)
(4.77861e-06 -2.6996e-07 0)
(4.78879e-06 -2.27656e-07 0)
(4.8071e-06 -2.03945e-07 0)
(4.83596e-06 -1.92787e-07 0)
(4.87409e-06 -1.90026e-07 0)
(4.92099e-06 -1.92844e-07 0)
(4.97626e-06 -1.99542e-07 0)
(5.03774e-06 -2.07779e-07 0)
(4.63171e-06 -5.88126e-07 0)
(4.6088e-06 -4.53785e-07 0)
(4.59171e-06 -3.68244e-07 0)
(4.59098e-06 -3.18148e-07 0)
(4.60207e-06 -2.90281e-07 0)
(4.62581e-06 -2.77517e-07 0)
(4.6602e-06 -2.74821e-07 0)
(4.70405e-06 -2.7888e-07 0)
(4.75678e-06 -2.8755e-07 0)
(4.81553e-06 -2.98226e-07 0)
(4.45544e-06 -7.236e-07 0)
(4.40312e-06 -5.75036e-07 0)
(4.36742e-06 -4.80344e-07 0)
(4.35432e-06 -4.25338e-07 0)
(4.35722e-06 -3.95067e-07 0)
(4.37511e-06 -3.81757e-07 0)
(4.40522e-06 -3.797e-07 0)
(4.44557e-06 -3.85294e-07 0)
(4.49534e-06 -3.95986e-07 0)
(4.55099e-06 -4.09136e-07 0)
(4.24996e-06 -8.60815e-07 0)
(4.1666e-06 -7.06015e-07 0)
(4.11127e-06 -6.07218e-07 0)
(4.08509e-06 -5.50486e-07 0)
(4.07929e-06 -5.1976e-07 0)
(4.09095e-06 -5.0708e-07 0)
(4.11642e-06 -5.06321e-07 0)
(4.153e-06 -5.13781e-07 0)
(4.19949e-06 -5.26602e-07 0)
(4.25188e-06 -5.42266e-07 0)
(4.01814e-06 -9.99146e-07 0)
(3.90401e-06 -8.4639e-07 0)
(3.82923e-06 -7.48723e-07 0)
(3.79003e-06 -6.93569e-07 0)
(3.77552e-06 -6.64401e-07 0)
(3.78087e-06 -6.53566e-07 0)
(3.80155e-06 -6.54773e-07 0)
(3.83421e-06 -6.64456e-07 0)
(3.87718e-06 -6.79512e-07 0)
(3.92623e-06 -6.97794e-07 0)
(3.76301e-06 -1.13762e-06 0)
(3.62028e-06 -9.95021e-07 0)
(3.52746e-06 -9.03625e-07 0)
(3.47612e-06 -8.53293e-07 0)
(3.4534e-06 -8.27666e-07 0)
(3.45272e-06 -8.19854e-07 0)
(3.46872e-06 -8.23719e-07 0)
(3.49748e-06 -8.35931e-07 0)
(3.53675e-06 -8.53509e-07 0)
(3.58259e-06 -8.74457e-07 0)
(3.48763e-06 -1.27492e-06 0)
(3.32028e-06 -1.14999e-06 0)
(3.21196e-06 -1.06963e-06 0)
(3.15006e-06 -1.02712e-06 0)
(3.12009e-06 -1.00685e-06 0)
(3.1139e-06 -1.00313e-06 0)
(3.12542e-06 -1.01017e-06 0)
(3.15031e-06 -1.02518e-06 0)
(3.18574e-06 -1.04521e-06 0)
(3.2285e-06 -1.06951e-06 0)
(5.46305e-06 -2.52386e-08 0)
(5.54284e-06 -2.53746e-08 0)
(5.62781e-06 -2.55992e-08 0)
(5.71767e-06 -2.57314e-08 0)
(5.81184e-06 -2.5741e-08 0)
(5.90993e-06 -2.56184e-08 0)
(6.01149e-06 -2.53315e-08 0)
(6.11614e-06 -2.48762e-08 0)
(6.22351e-06 -2.42342e-08 0)
(6.33323e-06 -2.33964e-08 0)
(6.44497e-06 -2.23466e-08 0)
(6.55836e-06 -2.10695e-08 0)
(6.67308e-06 -1.95438e-08 0)
(6.78876e-06 -1.77454e-08 0)
(6.90507e-06 -1.5643e-08 0)
(7.02151e-06 -1.32006e-08 0)
(7.13785e-06 -1.03701e-08 0)
(7.2532e-06 -7.10124e-09 0)
(7.36782e-06 -3.31099e-09 0)
(7.47952e-06 1.03361e-09 0)
(5.40541e-06 -7.84887e-08 0)
(5.49005e-06 -7.8518e-08 0)
(5.57936e-06 -7.88446e-08 0)
(5.67299e-06 -7.89615e-08 0)
(5.7705e-06 -7.87509e-08 0)
(5.87154e-06 -7.81883e-08 0)
(5.97576e-06 -7.71657e-08 0)
(6.08278e-06 -7.56688e-08 0)
(6.19231e-06 -7.36362e-08 0)
(6.304e-06 -7.10375e-08 0)
(6.41754e-06 -6.78208e-08 0)
(6.53261e-06 -6.3937e-08 0)
(6.6489e-06 -5.93206e-08 0)
(6.76604e-06 -5.38972e-08 0)
(6.88373e-06 -4.75714e-08 0)
(7.00149e-06 -4.02338e-08 0)
(7.11911e-06 -3.17394e-08 0)
(7.23571e-06 -2.19363e-08 0)
(7.35154e-06 -1.05752e-08 0)
(7.46446e-06 2.44314e-09 0)
(5.29202e-06 -1.39359e-07 0)
(5.38619e-06 -1.38194e-07 0)
(5.484e-06 -1.3764e-07 0)
(5.58498e-06 -1.3699e-07 0)
(5.68906e-06 -1.35928e-07 0)
(5.79588e-06 -1.34425e-07 0)
(5.9053e-06 -1.32257e-07 0)
(6.017e-06 -1.29391e-07 0)
(6.13077e-06 -1.25705e-07 0)
(6.24633e-06 -1.21137e-07 0)
(6.36343e-06 -1.1559e-07 0)
(6.4818e-06 -1.08974e-07 0)
(6.60116e-06 -1.01174e-07 0)
(6.72119e-06 -9.20589e-08 0)
(6.84162e-06 -8.1466e-08 0)
(6.962e-06 -6.92088e-08 0)
(7.08213e-06 -5.50418e-08 0)
(7.20117e-06 -3.87092e-08 0)
(7.31941e-06 -1.97931e-08 0)
(7.43473e-06 1.87608e-09 0)
(5.12638e-06 -2.12204e-07 0)
(5.23422e-06 -2.08151e-07 0)
(5.34433e-06 -2.05155e-07 0)
(5.45596e-06 -2.02547e-07 0)
(5.56958e-06 -1.99626e-07 0)
(5.68484e-06 -1.96383e-07 0)
(5.80186e-06 -1.92419e-07 0)
(5.9204e-06 -1.87664e-07 0)
(6.04038e-06 -1.81909e-07 0)
(6.16162e-06 -1.75046e-07 0)
(6.28394e-06 -1.66917e-07 0)
(6.40715e-06 -1.57379e-07 0)
(6.53102e-06 -1.46257e-07 0)
(6.65528e-06 -1.33357e-07 0)
(6.77972e-06 -1.18441e-07 0)
(6.90392e-06 -1.0124e-07 0)
(7.02774e-06 -8.14012e-08 0)
(7.15037e-06 -5.85609e-08 0)
(7.27212e-06 -3.21273e-08 0)
(7.39097e-06 -1.84908e-09 0)
(4.91349e-06 -3.00907e-07 0)
(5.03845e-06 -2.91784e-07 0)
(5.16414e-06 -2.84323e-07 0)
(5.28929e-06 -2.78191e-07 0)
(5.41511e-06 -2.72102e-07 0)
(5.54118e-06 -2.66063e-07 0)
(5.66796e-06 -2.59446e-07 0)
(5.7953e-06 -2.52107e-07 0)
(5.9233e-06 -2.4373e-07 0)
(6.05185e-06 -2.34128e-07 0)
(6.18093e-06 -2.2307e-07 0)
(6.31037e-06 -2.10344e-07 0)
(6.44007e-06 -1.95702e-07 0)
(6.56981e-06 -1.7888e-07 0)
(6.69943e-06 -1.59553e-07 0)
(6.82857e-06 -1.37365e-07 0)
(6.95713e-06 -1.11851e-07 0)
(7.08438e-06 -8.25317e-08 0)
(7.21068e-06 -4.8639e-08 0)
(7.33407e-06 -9.82945e-09 0)
(4.65947e-06 -4.08203e-07 0)
(4.80414e-06 -3.91496e-07 0)
(4.94802e-06 -3.77209e-07 0)
(5.08905e-06 -3.6567e-07 0)
(5.22929e-06 -3.54845e-07 0)
(5.36821e-06 -3.44722e-07 0)
(5.50665e-06 -3.34415e-07 0)
(5.64452e-06 -3.23652e-07 0)
(5.78214e-06 -3.11987e-07 0)
(5.9195e-06 -2.99123e-07 0)
(6.05669e-06 -2.84736e-07 0)
(6.19365e-06 -2.68521e-07 0)
(6.33036e-06 -2.50148e-07 0)
(6.46667e-06 -2.29262e-07 0)
(6.60251e-06 -2.05449e-07 0)
(6.73757e-06 -1.78252e-07 0)
(6.87183e-06 -1.47089e-07 0)
(7.00463e-06 -1.1136e-07 0)
(7.13636e-06 -7.01146e-08 0)
(7.26522e-06 -2.29048e-08 0)
(4.37143e-06 -5.35864e-07 0)
(4.53744e-06 -5.08993e-07 0)
(4.70136e-06 -4.85512e-07 0)
(4.86003e-06 -4.66556e-07 0)
(5.0164e-06 -4.49374e-07 0)
(5.16982e-06 -4.33781e-07 0)
(5.32144e-06 -4.18668e-07 0)
(5.4713e-06 -4.03551e-07 0)
(5.61987e-06 -3.87845e-07 0)
(5.76729e-06 -3.71108e-07 0)
(5.91375e-06 -3.52903e-07 0)
(6.05933e-06 -3.3282e-07 0)
(6.20406e-06 -3.10429e-07 0)
(6.34792e-06 -2.85279e-07 0)
(6.49087e-06 -2.56854e-07 0)
(6.63272e-06 -2.24592e-07 0)
(6.77349e-06 -1.87787e-07 0)
(6.91262e-06 -1.45716e-07 0)
(7.05057e-06 -9.7249e-08 0)
(7.18568e-06 -4.18292e-08 0)
(4.05667e-06 -6.84176e-07 0)
(4.24465e-06 -6.44381e-07 0)
(4.42953e-06 -6.09382e-07 0)
(4.60705e-06 -5.80784e-07 0)
(4.78074e-06 -5.5551e-07 0)
(4.94997e-06 -5.32928e-07 0)
(5.116e-06 -5.11802e-07 0)
(5.27906e-06 -4.91352e-07 0)
(5.43973e-06 -4.7084e-07 0)
(5.59828e-06 -4.49639e-07 0)
(5.75503e-06 -4.27176e-07 0)
(5.91014e-06 -4.02907e-07 0)
(6.06377e-06 -3.76286e-07 0)
(6.21596e-06 -3.46748e-07 0)
(6.36678e-06 -3.13665e-07 0)
(6.51611e-06 -2.76364e-07 0)
(6.66407e-06 -2.34011e-07 0)
(6.81018e-06 -1.85755e-07 0)
(6.95497e-06 -1.30289e-07 0)
(7.09699e-06 -6.69371e-08 0)
(3.72315e-06 -8.52885e-07 0)
(3.93299e-06 -7.9779e-07 0)
(4.1387e-06 -7.49779e-07 0)
(4.33566e-06 -7.09664e-07 0)
(4.52715e-06 -6.74829e-07 0)
(4.7129e-06 -6.43912e-07 0)
(4.89408e-06 -6.15609e-07 0)
(5.07113e-06 -5.88817e-07 0)
(5.24469e-06 -5.62628e-07 0)
(5.41517e-06 -5.36228e-07 0)
(5.58296e-06 -5.08895e-07 0)
(5.74835e-06 -4.79946e-07 0)
(5.91157e-06 -4.48707e-07 0)
(6.07276e-06 -4.14498e-07 0)
(6.23208e-06 -3.76571e-07 0)
(6.3895e-06 -3.34136e-07 0)
(6.54519e-06 -2.8623e-07 0)
(6.69883e-06 -2.3188e-07 0)
(6.85099e-06 -1.69616e-07 0)
(7.00046e-06 -9.86583e-08 0)
(3.37696e-06 -1.03876e-06 0)
(3.608e-06 -9.65364e-07 0)
(3.83328e-06 -9.02858e-07 0)
(4.05e-06 -8.4937e-07 0)
(4.25971e-06 -8.03343e-07 0)
(4.46272e-06 -7.62788e-07 0)
(4.65982e-06 -7.26252e-07 0)
(4.85163e-06 -6.92347e-07 0)
(5.0388e-06 -6.59917e-07 0)
(5.22186e-06 -6.27932e-07 0)
(5.4013e-06 -5.95476e-07 0)
(5.57751e-06 -5.61704e-07 0)
(5.75082e-06 -5.25795e-07 0)
(5.92146e-06 -4.86937e-07 0)
(6.08968e-06 -4.44258e-07 0)
(6.25555e-06 -3.9685e-07 0)
(6.41933e-06 -3.43627e-07 0)
(6.58083e-06 -2.83498e-07 0)
(6.74068e-06 -2.14832e-07 0)
(6.89795e-06 -1.36729e-07 0)
(3.1236e-06 -1.21349e-06 0)
(3.36732e-06 -1.12628e-06 0)
(3.60335e-06 -1.05355e-06 0)
(3.83134e-06 -9.89957e-07 0)
(4.0519e-06 -9.34469e-07 0)
(4.26542e-06 -8.85162e-07 0)
(4.47256e-06 -8.40558e-07 0)
(4.67387e-06 -7.99259e-07 0)
(4.86995e-06 -7.60039e-07 0)
(5.06132e-06 -7.21791e-07 0)
(5.24848e-06 -6.83505e-07 0)
(5.43184e-06 -6.44243e-07 0)
(5.61177e-06 -6.03097e-07 0)
(5.78856e-06 -5.59171e-07 0)
(5.9625e-06 -5.11518e-07 0)
(6.13375e-06 -4.59164e-07 0)
(6.30265e-06 -4.00967e-07 0)
(6.46913e-06 -3.3579e-07 0)
(6.63387e-06 -2.61967e-07 0)
(6.79622e-06 -1.78583e-07 0)
(2.97684e-06 -1.35354e-06 0)
(3.222e-06 -1.26312e-06 0)
(3.4598e-06 -1.18488e-06 0)
(3.69049e-06 -1.1153e-06 0)
(3.9142e-06 -1.0534e-06 0)
(4.1312e-06 -9.97611e-07 0)
(4.34194e-06 -9.46587e-07 0)
(4.54684e-06 -8.99042e-07 0)
(4.74639e-06 -8.53805e-07 0)
(4.94104e-06 -8.09795e-07 0)
(5.13124e-06 -7.66009e-07 0)
(5.31738e-06 -7.21501e-07 0)
(5.49982e-06 -6.7535e-07 0)
(5.67887e-06 -6.26647e-07 0)
(5.85485e-06 -5.7444e-07 0)
(6.02797e-06 -5.17753e-07 0)
(6.1986e-06 -4.55468e-07 0)
(6.36679e-06 -3.86478e-07 0)
(6.53323e-06 -3.092e-07 0)
(6.69756e-06 -2.22795e-07 0)
(2.84945e-06 -1.48905e-06 0)
(3.09238e-06 -1.39623e-06 0)
(3.32967e-06 -1.3141e-06 0)
(3.56067e-06 -1.23976e-06 0)
(3.78548e-06 -1.17247e-06 0)
(4.00408e-06 -1.11099e-06 0)
(4.21677e-06 -1.05412e-06 0)
(4.42383e-06 -1.00075e-06 0)
(4.62563e-06 -9.49777e-07 0)
(4.82253e-06 -9.00199e-07 0)
(5.01491e-06 -8.51044e-07 0)
(5.20312e-06 -8.01385e-07 0)
(5.38751e-06 -7.50312e-07 0)
(5.56838e-06 -6.96924e-07 0)
(5.74605e-06 -6.40284e-07 0)
(5.92079e-06 -5.79437e-07 0)
(6.09296e-06 -5.13308e-07 0)
(6.26274e-06 -4.40844e-07 0)
(6.4308e-06 -3.60575e-07 0)
(6.59702e-06 -2.71745e-07 0)
(2.7364e-06 -1.6196e-06 0)
(2.97587e-06 -1.52545e-06 0)
(3.21107e-06 -1.44033e-06 0)
(3.44079e-06 -1.36203e-06 0)
(3.66517e-06 -1.29009e-06 0)
(3.88394e-06 -1.22353e-06 0)
(4.09729e-06 -1.16136e-06 0)
(4.30533e-06 -1.1026e-06 0)
(4.50835e-06 -1.04628e-06 0)
(4.7066e-06 -9.91451e-07 0)
(4.9004e-06 -9.37197e-07 0)
(5.09004e-06 -8.8263e-07 0)
(5.27584e-06 -8.26868e-07 0)
(5.45809e-06 -7.69037e-07 0)
(5.63711e-06 -7.08231e-07 0)
(5.81318e-06 -6.43533e-07 0)
(5.9867e-06 -5.73927e-07 0)
(6.15789e-06 -4.98431e-07 0)
(6.32743e-06 -4.15704e-07 0)
(6.49539e-06 -3.25078e-07 0)
(2.63628e-06 -1.74474e-06 0)
(2.87121e-06 -1.65e-06 0)
(3.10307e-06 -1.5628e-06 0)
(3.33028e-06 -1.48144e-06 0)
(3.553e-06 -1.40569e-06 0)
(3.77076e-06 -1.33478e-06 0)
(3.98366e-06 -1.26795e-06 0)
(4.19168e-06 -1.20434e-06 0)
(4.395e-06 -1.14311e-06 0)
(4.5938e-06 -1.08339e-06 0)
(4.78831e-06 -1.02436e-06 0)
(4.97879e-06 -9.65162e-07 0)
(5.1655e-06 -9.0497e-07 0)
(5.34872e-06 -8.42949e-07 0)
(5.52876e-06 -7.78239e-07 0)
(5.70591e-06 -7.09977e-07 0)
(5.88055e-06 -6.3722e-07 0)
(6.05299e-06 -5.59071e-07 0)
(6.22385e-06 -4.74333e-07 0)
(6.39339e-06 -3.82432e-07 0)
(2.54695e-06 -1.86436e-06 0)
(2.77674e-06 -1.76967e-06 0)
(3.00445e-06 -1.6811e-06 0)
(3.22828e-06 -1.5974e-06 0)
(3.44841e-06 -1.51852e-06 0)
(3.66424e-06 -1.44393e-06 0)
(3.87579e-06 -1.37302e-06 0)
(4.08295e-06 -1.3051e-06 0)
(4.2858e-06 -1.23943e-06 0)
(4.48444e-06 -1.17526e-06 0)
(4.67905e-06 -1.11182e-06 0)
(4.86983e-06 -1.04834e-06 0)
(5.057e-06 -9.84049e-07 0)
(5.24081e-06 -9.18154e-07 0)
(5.42156e-06 -8.49861e-07 0)
(5.59952e-06 -7.78369e-07 0)
(5.77509e-06 -7.02818e-07 0)
(5.94859e-06 -6.22405e-07 0)
(6.12062e-06 -5.36083e-07 0)
(6.29156e-06 -4.43374e-07 0)
(2.46665e-06 -1.97857e-06 0)
(2.69095e-06 -1.88439e-06 0)
(2.91397e-06 -1.79503e-06 0)
(3.13381e-06 -1.70961e-06 0)
(3.35068e-06 -1.62826e-06 0)
(3.56388e-06 -1.55061e-06 0)
(3.77339e-06 -1.47621e-06 0)
(3.979e-06 -1.40451e-06 0)
(4.18075e-06 -1.3349e-06 0)
(4.37866e-06 -1.26672e-06 0)
(4.57285e-06 -1.19929e-06 0)
(4.76346e-06 -1.1319e-06 0)
(4.9507e-06 -1.06385e-06 0)
(5.13477e-06 -9.9442e-07 0)
(5.31594e-06 -9.22871e-07 0)
(5.49448e-06 -8.48479e-07 0)
(5.67077e-06 -7.70474e-07 0)
(5.84516e-06 -6.8815e-07 0)
(6.0182e-06 -6.00615e-07 0)
(6.19037e-06 -5.07483e-07 0)
(2.39374e-06 -2.08758e-06 0)
(2.6124e-06 -1.99423e-06 0)
(2.83042e-06 -1.90453e-06 0)
(3.04589e-06 -1.81791e-06 0)
(3.25902e-06 -1.73463e-06 0)
(3.46909e-06 -1.65447e-06 0)
(3.67603e-06 -1.57712e-06 0)
(3.87958e-06 -1.50216e-06 0)
(4.07972e-06 -1.4291e-06 0)
(4.27643e-06 -1.35736e-06 0)
(4.46977e-06 -1.28636e-06 0)
(4.65984e-06 -1.21546e-06 0)
(4.8468e-06 -1.14403e-06 0)
(5.03083e-06 -1.07141e-06 0)
(5.21218e-06 -9.96955e-07 0)
(5.39109e-06 -9.20001e-07 0)
(5.56793e-06 -8.39877e-07 0)
(5.74304e-06 -7.55973e-07 0)
(5.91694e-06 -6.67552e-07 0)
(6.09015e-06 -5.74316e-07 0)
(2.32675e-06 -2.19171e-06 0)
(2.53977e-06 -2.0994e-06 0)
(2.75263e-06 -2.00968e-06 0)
(2.96352e-06 -1.92228e-06 0)
(3.17262e-06 -1.83753e-06 0)
(3.37922e-06 -1.75535e-06 0)
(3.58321e-06 -1.67555e-06 0)
(3.78432e-06 -1.59782e-06 0)
(3.98247e-06 -1.52177e-06 0)
(4.17761e-06 -1.44692e-06 0)
(4.36976e-06 -1.37277e-06 0)
(4.55898e-06 -1.29877e-06 0)
(4.74539e-06 -1.22434e-06 0)
(4.92914e-06 -1.1489e-06 0)
(5.11045e-06 -1.07188e-06 0)
(5.28955e-06 -9.92691e-07 0)
(5.46676e-06 -9.10762e-07 0)
(5.64245e-06 -8.25577e-07 0)
(5.81705e-06 -7.36545e-07 0)
(5.99114e-06 -6.4345e-07 0)
(2.26437e-06 -2.2913e-06 0)
(2.47184e-06 -2.20012e-06 0)
(2.67953e-06 -2.11062e-06 0)
(2.88574e-06 -2.02276e-06 0)
(3.09064e-06 -1.93694e-06 0)
(3.29356e-06 -1.85315e-06 0)
(3.49436e-06 -1.77135e-06 0)
(3.69276e-06 -1.6913e-06 0)
(3.88865e-06 -1.61271e-06 0)
(4.08195e-06 -1.53519e-06 0)
(4.27265e-06 -1.45831e-06 0)
(4.46078e-06 -1.3816e-06 0)
(4.64642e-06 -1.30455e-06 0)
(4.82971e-06 -1.22665e-06 0)
(5.0108e-06 -1.1474e-06 0)
(5.18994e-06 -1.0663e-06 0)
(5.36739e-06 -9.82863e-07 0)
(5.54351e-06 -8.96663e-07 0)
(5.71868e-06 -8.07248e-07 0)
(5.89349e-06 -7.14478e-07 0)
(2.20543e-06 -2.38669e-06 0)
(2.4075e-06 -2.29668e-06 0)
(2.61008e-06 -2.20757e-06 0)
(2.81161e-06 -2.1195e-06 0)
(3.01226e-06 -2.03291e-06 0)
(3.21139e-06 -1.9479e-06 0)
(3.40887e-06 -1.86448e-06 0)
(3.60439e-06 -1.78253e-06 0)
(3.79786e-06 -1.70181e-06 0)
(3.98914e-06 -1.62203e-06 0)
(4.17822e-06 -1.54283e-06 0)
(4.36509e-06 -1.46379e-06 0)
(4.5498e-06 -1.38449e-06 0)
(4.73246e-06 -1.30449e-06 0)
(4.91321e-06 -1.22334e-06 0)
(5.09225e-06 -1.14063e-06 0)
(5.26982e-06 -1.05595e-06 0)
(5.44625e-06 -9.68963e-07 0)
(5.62187e-06 -8.79346e-07 0)
(5.79724e-06 -7.87023e-07 0)
(2.14888e-06 -2.47823e-06 0)
(2.34574e-06 -2.38936e-06 0)
(2.54332e-06 -2.30075e-06 0)
(2.74025e-06 -2.21265e-06 0)
(2.93668e-06 -2.12555e-06 0)
(3.13201e-06 -2.03963e-06 0)
(3.32611e-06 -1.95495e-06 0)
(3.51869e-06 -1.87146e-06 0)
(3.70963e-06 -1.78901e-06 0)
(3.8988e-06 -1.70736e-06 0)
(4.08614e-06 -1.62622e-06 0)
(4.27164e-06 -1.54523e-06 0)
(4.45532e-06 -1.46404e-06 0)
(4.63725e-06 -1.38226e-06 0)
(4.81756e-06 -1.29953e-06 0)
(4.99641e-06 -1.21548e-06 0)
(5.174e-06 -1.1298e-06 0)
(5.35063e-06 -1.04223e-06 0)
(5.52659e-06 -9.52547e-07 0)
(5.70239e-06 -8.60744e-07 0)
(2.09374e-06 -2.56623e-06 0)
(2.28559e-06 -2.47846e-06 0)
(2.47835e-06 -2.39039e-06 0)
(2.67081e-06 -2.30241e-06 0)
(2.8631e-06 -2.21503e-06 0)
(3.05469e-06 -2.12845e-06 0)
(3.24545e-06 -2.04283e-06 0)
(3.43509e-06 -1.95814e-06 0)
(3.62349e-06 -1.87431e-06 0)
(3.81051e-06 -1.79115e-06 0)
(3.99608e-06 -1.70842e-06 0)
(4.18015e-06 -1.62584e-06 0)
(4.36274e-06 -1.54309e-06 0)
(4.54389e-06 -1.45986e-06 0)
(4.72368e-06 -1.37582e-06 0)
(4.90226e-06 -1.2907e-06 0)
(5.0798e-06 -1.20423e-06 0)
(5.25656e-06 -1.11624e-06 0)
(5.43275e-06 -1.0266e-06 0)
(5.60887e-06 -9.35338e-07 0)
(2.03911e-06 -2.65098e-06 0)
(2.22615e-06 -2.56424e-06 0)
(2.41428e-06 -2.47674e-06 0)
(2.60244e-06 -2.38899e-06 0)
(2.79075e-06 -2.3015e-06 0)
(2.97873e-06 -2.21451e-06 0)
(3.16624e-06 -2.12821e-06 0)
(3.35302e-06 -2.04264e-06 0)
(3.53894e-06 -1.95775e-06 0)
(3.72384e-06 -1.87342e-06 0)
(3.90765e-06 -1.78944e-06 0)
(4.0903e-06 -1.70559e-06 0)
(4.27178e-06 -1.6216e-06 0)
(4.45212e-06 -1.5372e-06 0)
(4.63137e-06 -1.45213e-06 0)
(4.80964e-06 -1.36616e-06 0)
(4.98707e-06 -1.2791e-06 0)
(5.16388e-06 -1.19081e-06 0)
(5.34024e-06 -1.10127e-06 0)
(5.51657e-06 -1.01054e-06 0)
(1.98406e-06 -2.73275e-06 0)
(2.16653e-06 -2.64695e-06 0)
(2.35025e-06 -2.56006e-06 0)
(2.53434e-06 -2.47264e-06 0)
(2.71887e-06 -2.38519e-06 0)
(2.90342e-06 -2.298e-06 0)
(3.08785e-06 -2.21127e-06 0)
(3.27191e-06 -2.12508e-06 0)
(3.45546e-06 -2.03943e-06 0)
(3.63834e-06 -1.95422e-06 0)
(3.82046e-06 -1.8693e-06 0)
(4.00174e-06 -1.78449e-06 0)
(4.18215e-06 -1.69954e-06 0)
(4.36168e-06 -1.61425e-06 0)
(4.54038e-06 -1.52839e-06 0)
(4.71833e-06 -1.44177e-06 0)
(4.89561e-06 -1.35426e-06 0)
(5.07242e-06 -1.26579e-06 0)
(5.24888e-06 -1.17638e-06 0)
(5.42535e-06 -1.08614e-06 0)
(1.92775e-06 -2.81173e-06 0)
(2.10588e-06 -2.72694e-06 0)
(2.28539e-06 -2.64059e-06 0)
(2.46568e-06 -2.55355e-06 0)
(2.64669e-06 -2.46631e-06 0)
(2.82807e-06 -2.37909e-06 0)
(3.00965e-06 -2.29215e-06 0)
(3.1912e-06 -2.2056e-06 0)
(3.37256e-06 -2.11945e-06 0)
(3.55358e-06 -2.03365e-06 0)
(3.73413e-06 -1.94807e-06 0)
(3.91413e-06 -1.86256e-06 0)
(4.09353e-06 -1.77693e-06 0)
(4.27231e-06 -1.69098e-06 0)
(4.45048e-06 -1.60453e-06 0)
(4.62809e-06 -1.51745e-06 0)
(4.80521e-06 -1.42963e-06 0)
(4.98197e-06 -1.34104e-06 0)
(5.15849e-06 -1.25177e-06 0)
(5.33502e-06 -1.16196e-06 0)
(1.8693e-06 -2.88828e-06 0)
(2.04316e-06 -2.80418e-06 0)
(2.21869e-06 -2.71858e-06 0)
(2.39564e-06 -2.63212e-06 0)
(2.57344e-06 -2.54518e-06 0)
(2.75199e-06 -2.4581e-06 0)
(2.93103e-06 -2.37114e-06 0)
(3.11035e-06 -2.28444e-06 0)
(3.28977e-06 -2.19802e-06 0)
(3.46913e-06 -2.11186e-06 0)
(3.64829e-06 -2.02587e-06 0)
(3.82716e-06 -1.9399e-06 0)
(4.00565e-06 -1.8538e-06 0)
(4.18374e-06 -1.7674e-06 0)
(4.36141e-06 -1.68056e-06 0)
(4.53869e-06 -1.59315e-06 0)
(4.71563e-06 -1.50512e-06 0)
(4.89233e-06 -1.41648e-06 0)
(5.06885e-06 -1.32734e-06 0)
(5.24541e-06 -1.23785e-06 0)
(1.80729e-06 -2.96231e-06 0)
(1.97754e-06 -2.87901e-06 0)
(2.14978e-06 -2.79434e-06 0)
(2.32349e-06 -2.70848e-06 0)
(2.49851e-06 -2.62198e-06 0)
(2.67457e-06 -2.53521e-06 0)
(2.85143e-06 -2.44842e-06 0)
(3.02886e-06 -2.36177e-06 0)
(3.20666e-06 -2.2753e-06 0)
(3.38464e-06 -2.189e-06 0)
(3.56264e-06 -2.10279e-06 0)
(3.74054e-06 -2.01658e-06 0)
(3.91825e-06 -1.9302e-06 0)
(4.09573e-06 -1.84353e-06 0)
(4.27295e-06 -1.75644e-06 0)
(4.44992e-06 -1.66884e-06 0)
(4.62666e-06 -1.58069e-06 0)
(4.80326e-06 -1.49202e-06 0)
(4.97976e-06 -1.40297e-06 0)
(5.15631e-06 -1.31372e-06 0)
(1.74093e-06 -3.03466e-06 0)
(1.90788e-06 -2.95237e-06 0)
(2.0771e-06 -2.86841e-06 0)
(2.24817e-06 -2.78322e-06 0)
(2.42092e-06 -2.69729e-06 0)
(2.59502e-06 -2.61095e-06 0)
(2.77022e-06 -2.52447e-06 0)
(2.94623e-06 -2.43801e-06 0)
(3.12282e-06 -2.35164e-06 0)
(3.29976e-06 -2.26535e-06 0)
(3.47689e-06 -2.1791e-06 0)
(3.65405e-06 -2.09278e-06 0)
(3.83114e-06 -2.00627e-06 0)
(4.0081e-06 -1.91946e-06 0)
(4.1849e-06 -1.83223e-06 0)
(4.36156e-06 -1.74452e-06 0)
(4.53808e-06 -1.65629e-06 0)
(4.71455e-06 -1.56761e-06 0)
(4.89098e-06 -1.47862e-06 0)
(5.06749e-06 -1.38951e-06 0)
(1.66935e-06 -3.10469e-06 0)
(1.83337e-06 -3.02353e-06 0)
(2.0001e-06 -2.94061e-06 0)
(2.16914e-06 -2.85631e-06 0)
(2.34022e-06 -2.77114e-06 0)
(2.51297e-06 -2.68542e-06 0)
(2.68707e-06 -2.59942e-06 0)
(2.86218e-06 -2.51332e-06 0)
(3.03803e-06 -2.42718e-06 0)
(3.21434e-06 -2.34104e-06 0)
(3.39092e-06 -2.25485e-06 0)
(3.56757e-06 -2.16853e-06 0)
(3.7442e-06 -2.08199e-06 0)
(3.92073e-06 -1.99513e-06 0)
(4.09714e-06 -1.90785e-06 0)
(4.27345e-06 -1.82009e-06 0)
(4.4497e-06 -1.73185e-06 0)
(4.62597e-06 -1.64318e-06 0)
(4.80228e-06 -1.55422e-06 0)
(4.97874e-06 -1.46517e-06 0)
(1.27507e-07 -2.74624e-06 0)
(3.8443e-07 -2.70538e-06 0)
(6.47167e-07 -2.62535e-06 0)
(9.18967e-07 -2.50927e-06 0)
(1.20255e-06 -2.36162e-06 0)
(1.49962e-06 -2.18792e-06 0)
(1.81088e-06 -1.99446e-06 0)
(2.1358e-06 -1.78795e-06 0)
(2.47289e-06 -1.57518e-06 0)
(2.81981e-06 -1.36171e-06 0)
(1.23712e-07 -2.78828e-06 0)
(3.72755e-07 -2.75095e-06 0)
(6.26682e-07 -2.67778e-06 0)
(8.88239e-07 -2.57143e-06 0)
(1.15975e-06 -2.43567e-06 0)
(1.44271e-06 -2.27522e-06 0)
(1.73775e-06 -2.09544e-06 0)
(2.04445e-06 -1.90208e-06 0)
(2.36098e-06 -1.70135e-06 0)
(2.68597e-06 -1.49729e-06 0)
(1.20411e-07 -2.83136e-06 0)
(3.62577e-07 -2.79723e-06 0)
(6.08751e-07 -2.73028e-06 0)
(8.61178e-07 -2.63281e-06 0)
(1.12179e-06 -2.50811e-06 0)
(1.39188e-06 -2.36021e-06 0)
(1.67206e-06 -2.19371e-06 0)
(1.96235e-06 -2.01342e-06 0)
(2.26136e-06 -1.82477e-06 0)
(2.56842e-06 -1.62993e-06 0)
(1.17476e-07 -2.87557e-06 0)
(3.53557e-07 -2.84417e-06 0)
(5.92985e-07 -2.78253e-06 0)
(8.37628e-07 -2.69266e-06 0)
(1.08909e-06 -2.57743e-06 0)
(1.34844e-06 -2.44038e-06 0)
(1.61614e-06 -2.2856e-06 0)
(1.89221e-06 -2.11723e-06 0)
(2.17553e-06 -1.94038e-06 0)
(2.46543e-06 -1.75647e-06 0)
(1.14769e-07 -2.92089e-06 0)
(3.45249e-07 -2.89192e-06 0)
(5.78518e-07 -2.83502e-06 0)
(8.16122e-07 -2.75197e-06 0)
(1.0594e-06 -2.64533e-06 0)
(1.30925e-06 -2.51821e-06 0)
(1.5661e-06 -2.37423e-06 0)
(1.82995e-06 -2.21693e-06 0)
(2.10006e-06 -2.05091e-06 0)
(2.37517e-06 -1.87743e-06 0)
(1.12251e-07 -2.96725e-06 0)
(3.37548e-07 -2.94039e-06 0)
(5.65194e-07 -2.88761e-06 0)
(7.96482e-07 -2.8105e-06 0)
(1.03253e-06 -2.71137e-06 0)
(1.27406e-06 -2.59301e-06 0)
(1.52143e-06 -2.45869e-06 0)
(1.77454e-06 -2.31156e-06 0)
(2.03306e-06 -2.15575e-06 0)
(2.29525e-06 -1.99261e-06 0)
(1.09842e-07 -3.01459e-06 0)
(3.30201e-07 -2.9896e-06 0)
(5.52556e-07 -2.94049e-06 0)
(7.77991e-07 -2.86868e-06 0)
(1.00746e-06 -2.77628e-06 0)
(1.24154e-06 -2.6658e-06 0)
(1.48058e-06 -2.54021e-06 0)
(1.72433e-06 -2.40232e-06 0)
(1.9728e-06 -2.2558e-06 0)
(2.22385e-06 -2.10229e-06 0)
(1.07513e-07 -3.06279e-06 0)
(3.23117e-07 -3.03945e-06 0)
(5.4044e-07 -2.99357e-06 0)
(7.60403e-07 -2.92644e-06 0)
(9.83825e-07 -2.84001e-06 0)
(1.21116e-06 -2.73656e-06 0)
(1.44274e-06 -2.6188e-06 0)
(1.6782e-06 -2.48933e-06 0)
(1.91781e-06 -2.35138e-06 0)
(2.15921e-06 -2.20682e-06 0)
(1.05218e-07 -3.11175e-06 0)
(3.16155e-07 -3.08989e-06 0)
(5.28596e-07 -3.04689e-06 0)
(7.43336e-07 -2.98396e-06 0)
(9.61094e-07 -2.90287e-06 0)
(1.18222e-06 -2.80573e-06 0)
(1.40706e-06 -2.69501e-06 0)
(1.63513e-06 -2.57316e-06 0)
(1.86687e-06 -2.44299e-06 0)
(2.09987e-06 -2.30661e-06 0)
(1.0293e-07 -3.16134e-06 0)
(3.09231e-07 -3.1408e-06 0)
(5.16874e-07 -3.10037e-06 0)
(7.26557e-07 -3.04119e-06 0)
(9.38924e-07 -2.96488e-06 0)
(1.15425e-06 -2.8734e-06 0)
(1.37287e-06 -2.76904e-06 0)
(1.59426e-06 -2.65408e-06 0)
(1.81894e-06 -2.53101e-06 0)
(2.04456e-06 -2.40207e-06 0)
(1.00618e-07 -3.21145e-06 0)
(3.02249e-07 -3.19209e-06 0)
(5.05104e-07 -3.15398e-06 0)
(7.09811e-07 -3.09816e-06 0)
(9.16961e-07 -3.02616e-06 0)
(1.12678e-06 -2.93979e-06 0)
(1.33959e-06 -2.84116e-06 0)
(1.55486e-06 -2.73243e-06 0)
(1.77311e-06 -2.61581e-06 0)
(1.99216e-06 -2.4936e-06 0)
(9.82542e-08 -3.26191e-06 0)
(2.95128e-07 -3.24362e-06 0)
(4.93143e-07 -3.2076e-06 0)
(6.92885e-07 -3.15483e-06 0)
(8.94904e-07 -3.08672e-06 0)
(1.0994e-06 -3.00497e-06 0)
(1.30668e-06 -2.91152e-06 0)
(1.51624e-06 -2.80843e-06 0)
(1.72856e-06 -2.69768e-06 0)
(1.94168e-06 -2.58156e-06 0)
(9.58117e-08 -3.3126e-06 0)
(2.87781e-07 -3.29527e-06 0)
(4.80841e-07 -3.26116e-06 0)
(6.75554e-07 -3.21116e-06 0)
(8.72448e-07 -3.14658e-06 0)
(1.07172e-06 -3.06902e-06 0)
(1.27365e-06 -2.98028e-06 0)
(1.47779e-06 -2.8823e-06 0)
(1.68455e-06 -2.77689e-06 0)
(1.89222e-06 -2.66628e-06 0)
(9.32614e-08 -3.3633e-06 0)
(2.80122e-07 -3.34686e-06 0)
(4.68049e-07 -3.31449e-06 0)
(6.57601e-07 -3.26702e-06 0)
(8.49295e-07 -3.20567e-06 0)
(1.04333e-06 -3.13195e-06 0)
(1.24e-06 -3.0475e-06 0)
(1.43889e-06 -2.95418e-06 0)
(1.64036e-06 -2.85363e-06 0)
(1.84292e-06 -2.74801e-06 0)
(9.05711e-08 -3.41387e-06 0)
(2.7205e-07 -3.39826e-06 0)
(4.54598e-07 -3.36749e-06 0)
(6.38781e-07 -3.32236e-06 0)
(8.2512e-07 -3.26399e-06 0)
(1.01384e-06 -3.19378e-06 0)
(1.20522e-06 -3.11327e-06 0)
(1.39893e-06 -3.02421e-06 0)
(1.59526e-06 -2.92811e-06 0)
(1.79293e-06 -2.82702e-06 0)
(8.77058e-08 -3.46401e-06 0)
(2.63463e-07 -3.44917e-06 0)
(4.40309e-07 -3.4199e-06 0)
(6.18838e-07 -3.37694e-06 0)
(7.99583e-07 -3.32133e-06 0)
(9.82807e-07 -3.25438e-06 0)
(1.16879e-06 -3.17753e-06 0)
(1.35729e-06 -3.09239e-06 0)
(1.54853e-06 -3.00039e-06 0)
(1.74145e-06 -2.90344e-06 0)
(8.46226e-08 -3.51364e-06 0)
(2.54228e-07 -3.49951e-06 0)
(4.24964e-07 -3.47165e-06 0)
(5.97459e-07 -3.43074e-06 0)
(7.72274e-07 -3.37773e-06 0)
(9.49721e-07 -3.31384e-06 0)
(1.1301e-06 -3.2404e-06 0)
(1.31324e-06 -3.15893e-06 0)
(1.49934e-06 -3.07074e-06 0)
(1.68751e-06 -2.97763e-06 0)
(8.1277e-08 -3.56212e-06 0)
(2.44214e-07 -3.54868e-06 0)
(4.08338e-07 -3.52217e-06 0)
(5.74327e-07 -3.48321e-06 0)
(7.42778e-07 -3.43268e-06 0)
(9.14063e-07 -3.37171e-06 0)
(1.0885e-06 -3.30151e-06 0)
(1.26603e-06 -3.22352e-06 0)
(1.4468e-06 -3.13893e-06 0)
(1.63015e-06 -3.04945e-06 0)
(7.76004e-08 -3.60976e-06 0)
(2.33213e-07 -3.59699e-06 0)
(3.90088e-07 -3.57179e-06 0)
(5.48955e-07 -3.53472e-06 0)
(7.10468e-07 -3.48659e-06 0)
(8.75067e-07 -3.42843e-06 0)
(1.04312e-06 -3.36137e-06 0)
(1.21467e-06 -3.28672e-06 0)
(1.38985e-06 -3.2056e-06 0)
(1.56819e-06 -3.11956e-06 0)
(7.35608e-08 -3.65487e-06 0)
(2.21131e-07 -3.64276e-06 0)
(3.70049e-07 -3.61886e-06 0)
(5.21107e-07 -3.58368e-06 0)
(6.75024e-07 -3.53795e-06 0)
(8.32322e-07 -3.48261e-06 0)
(9.93449e-07 -3.4187e-06 0)
(1.15853e-06 -3.34741e-06 0)
(1.32777e-06 -3.26978e-06 0)
(1.50084e-06 -3.18723e-06 0)
)


// ************************************************************************* //
