/*--------------------------------*- C++ -*----------------------------------*\
| =========                 |                                                 |
| \\      /  F ield         | foam-extend: Open Source CFD                    |
|  \\    /   O peration     | Version:     4.1                                |
|   \\  /    A nd           | Web:         http://www.foam-extend.org         |
|    \\/     M anipulation  |                                                 |
\*---------------------------------------------------------------------------*/
FoamFile
{
    version     2.0;
    format      ascii;
    class       vectorField;
    location    "6";
    object      solidsCellD_iteration17;
}
// * * * * * * * * * * * * * * * * * * * * * * * * * * * * * * * * * * * * * //


1000
(
(3.12955e-06 -1.33728e-06 0)
(2.95107e-06 -1.2436e-06 0)
(2.8367e-06 -1.18381e-06 0)
(2.77067e-06 -1.1555e-06 0)
(2.73801e-06 -1.14517e-06 0)
(2.72963e-06 -1.14871e-06 0)
(2.73917e-06 -1.16131e-06 0)
(2.76212e-06 -1.18062e-06 0)
(2.79521e-06 -1.20451e-06 0)
(2.83629e-06 -1.23149e-06 0)
(2.82937e-06 -1.46071e-06 0)
(2.63937e-06 -1.39523e-06 0)
(2.51777e-06 -1.35324e-06 0)
(2.44641e-06 -1.337e-06 0)
(2.40962e-06 -1.33466e-06 0)
(2.39758e-06 -1.34385e-06 0)
(2.40362e-06 -1.36046e-06 0)
(2.42295e-06 -1.38277e-06 0)
(2.4522e-06 -1.40911e-06 0)
(2.48855e-06 -1.43766e-06 0)
(2.51762e-06 -1.57774e-06 0)
(2.32355e-06 -1.54376e-06 0)
(2.19946e-06 -1.52171e-06 0)
(2.12582e-06 -1.51883e-06 0)
(2.08683e-06 -1.52524e-06 0)
(2.07228e-06 -1.54046e-06 0)
(2.07547e-06 -1.56127e-06 0)
(2.09157e-06 -1.58659e-06 0)
(2.11716e-06 -1.6153e-06 0)
(2.1495e-06 -1.64551e-06 0)
(2.19657e-06 -1.68624e-06 0)
(2.00656e-06 -1.6853e-06 0)
(1.88512e-06 -1.6842e-06 0)
(1.81246e-06 -1.69528e-06 0)
(1.77328e-06 -1.71078e-06 0)
(1.75743e-06 -1.7322e-06 0)
(1.75843e-06 -1.75723e-06 0)
(1.77162e-06 -1.78555e-06 0)
(1.79375e-06 -1.81653e-06 0)
(1.82203e-06 -1.8485e-06 0)
(1.86844e-06 -1.78409e-06 0)
(1.69053e-06 -1.81591e-06 0)
(1.5769e-06 -1.83557e-06 0)
(1.50855e-06 -1.86044e-06 0)
(1.47119e-06 -1.88487e-06 0)
(1.45523e-06 -1.91239e-06 0)
(1.45473e-06 -1.94154e-06 0)
(1.46533e-06 -1.97279e-06 0)
(1.4841e-06 -2.00593e-06 0)
(1.50825e-06 -2.0397e-06 0)
(1.53482e-06 -1.8693e-06 0)
(1.37689e-06 -1.93178e-06 0)
(1.27608e-06 -1.9709e-06 0)
(1.21515e-06 -2.00865e-06 0)
(1.18151e-06 -2.04143e-06 0)
(1.16661e-06 -2.0746e-06 0)
(1.16526e-06 -2.10755e-06 0)
(1.17354e-06 -2.1415e-06 0)
(1.18895e-06 -2.17665e-06 0)
(1.20885e-06 -2.21219e-06 0)
(1.19733e-06 -1.93994e-06 0)
(1.06638e-06 -2.02928e-06 0)
(9.82801e-07 -2.08545e-06 0)
(9.32118e-07 -2.13451e-06 0)
(9.03959e-07 -2.17459e-06 0)
(8.91194e-07 -2.21269e-06 0)
(8.89544e-07 -2.24896e-06 0)
(8.95721e-07 -2.28529e-06 0)
(9.07722e-07 -2.32216e-06 0)
(9.23273e-07 -2.35931e-06 0)
(8.57071e-07 -1.99444e-06 0)
(7.59001e-07 -2.10536e-06 0)
(6.96429e-07 -2.17522e-06 0)
(6.58415e-07 -2.23334e-06 0)
(6.37209e-07 -2.27928e-06 0)
(6.2743e-07 -2.32135e-06 0)
(6.25896e-07 -2.3603e-06 0)
(6.30143e-07 -2.39855e-06 0)
(6.38727e-07 -2.43682e-06 0)
(6.49869e-07 -2.47531e-06 0)
(5.1502e-07 -2.03149e-06 0)
(4.54303e-07 -2.15749e-06 0)
(4.15592e-07 -2.23692e-06 0)
(3.92011e-07 -2.30139e-06 0)
(3.78789e-07 -2.35143e-06 0)
(3.72618e-07 -2.39627e-06 0)
(3.71561e-07 -2.4371e-06 0)
(3.74061e-07 -2.47674e-06 0)
(3.79213e-07 -2.516e-06 0)
(3.85901e-07 -2.55546e-06 0)
(1.72003e-07 -2.05017e-06 0)
(1.51439e-07 -2.18397e-06 0)
(1.3827e-07 -2.26832e-06 0)
(1.30243e-07 -2.33606e-06 0)
(1.25762e-07 -2.38821e-06 0)
(1.23645e-07 -2.43451e-06 0)
(1.23224e-07 -2.47628e-06 0)
(1.24025e-07 -2.51661e-06 0)
(1.25746e-07 -2.55639e-06 0)
(1.27969e-07 -2.59637e-06 0)
(4.88802e-06 -6.1018e-08 0)
(4.9323e-06 -4.39184e-08 0)
(4.95879e-06 -3.30589e-08 0)
(4.98714e-06 -2.66586e-08 0)
(5.01798e-06 -2.30734e-08 0)
(5.05588e-06 -2.13903e-08 0)
(5.10082e-06 -2.1027e-08 0)
(5.15337e-06 -2.14878e-08 0)
(5.21336e-06 -2.25415e-08 0)
(5.28001e-06 -2.38494e-08 0)
(4.85171e-06 -1.83074e-07 0)
(4.88859e-06 -1.32776e-07 0)
(4.91043e-06 -1.00842e-07 0)
(4.93568e-06 -8.20974e-08 0)
(4.96446e-06 -7.17356e-08 0)
(5.00089e-06 -6.69014e-08 0)
(5.04478e-06 -6.58484e-08 0)
(5.09647e-06 -6.73163e-08 0)
(5.15574e-06 -7.05629e-08 0)
(5.22162e-06 -7.44753e-08 0)
(4.77922e-06 -3.06148e-07 0)
(4.80198e-06 -2.25411e-07 0)
(4.81487e-06 -1.74212e-07 0)
(4.83421e-06 -1.44153e-07 0)
(4.85907e-06 -1.27574e-07 0)
(4.89273e-06 -1.2002e-07 0)
(4.93457e-06 -1.18552e-07 0)
(4.98463e-06 -1.211e-07 0)
(5.04249e-06 -1.26517e-07 0)
(5.10688e-06 -1.33063e-07 0)
(4.67184e-06 -4.3079e-07 0)
(4.67451e-06 -3.23955e-07 0)
(4.67465e-06 -2.56271e-07 0)
(4.68555e-06 -2.1671e-07 0)
(4.70483e-06 -1.94984e-07 0)
(4.73458e-06 -1.85269e-07 0)
(4.77352e-06 -1.83668e-07 0)
(4.82124e-06 -1.87438e-07 0)
(4.8771e-06 -1.94991e-07 0)
(4.93938e-06 -2.04163e-07 0)
(4.53124e-06 -5.5733e-07 0)
(4.50909e-06 -4.30184e-07 0)
(4.49347e-06 -3.49655e-07 0)
(4.49393e-06 -3.02901e-07 0)
(4.50629e-06 -2.77452e-07 0)
(4.53114e-06 -2.66427e-07 0)
(4.56649e-06 -2.65114e-07 0)
(4.6113e-06 -2.70306e-07 0)
(4.66467e-06 -2.79997e-07 0)
(4.7244e-06 -2.91777e-07 0)
(4.35955e-06 -6.85862e-07 0)
(4.30931e-06 -5.45319e-07 0)
(4.2759e-06 -4.56267e-07 0)
(4.26454e-06 -4.05049e-07 0)
(4.26905e-06 -3.77536e-07 0)
(4.28832e-06 -3.66185e-07 0)
(4.31956e-06 -3.65673e-07 0)
(4.36104e-06 -3.72521e-07 0)
(4.41154e-06 -3.84371e-07 0)
(4.46838e-06 -3.98726e-07 0)
(4.15933e-06 -8.161e-07 0)
(4.0794e-06 -6.69829e-07 0)
(4.0272e-06 -5.77055e-07 0)
(4.00335e-06 -5.24367e-07 0)
(3.99953e-06 -4.9661e-07 0)
(4.01285e-06 -4.86039e-07 0)
(4.03968e-06 -4.86926e-07 0)
(4.07758e-06 -4.95665e-07 0)
(4.12494e-06 -5.09697e-07 0)
(4.17872e-06 -5.26554e-07 0)
(3.93328e-06 -9.47426e-07 0)
(3.82392e-06 -8.03363e-07 0)
(3.75313e-06 -7.11882e-07 0)
(3.71685e-06 -6.60901e-07 0)
(3.70472e-06 -6.34816e-07 0)
(3.71204e-06 -6.26183e-07 0)
(3.73432e-06 -6.29105e-07 0)
(3.76849e-06 -6.40047e-07 0)
(3.81251e-06 -6.56305e-07 0)
(3.86311e-06 -6.75654e-07 0)
(3.68433e-06 -1.07895e-06 0)
(3.54763e-06 -9.44829e-07 0)
(3.45956e-06 -8.59582e-07 0)
(3.41163e-06 -8.13412e-07 0)
(3.39164e-06 -7.90885e-07 0)
(3.39313e-06 -7.853e-07 0)
(3.4109e-06 -7.90899e-07 0)
(3.4413e-06 -8.04313e-07 0)
(3.48186e-06 -8.23008e-07 0)
(3.52937e-06 -8.4467e-07 0)
(3.41545e-06 -1.20943e-06 0)
(3.25523e-06 -1.09241e-06 0)
(3.1523e-06 -1.01793e-06 0)
(3.09426e-06 -9.7946e-07 0)
(3.06729e-06 -9.62265e-07 0)
(3.0635e-06 -9.60787e-07 0)
(3.07708e-06 -9.69638e-07 0)
(3.10374e-06 -9.85951e-07 0)
(3.14085e-06 -1.00714e-06 0)
(3.18508e-06 -1.03211e-06 0)
(5.35356e-06 -2.51572e-08 0)
(5.43375e-06 -2.54177e-08 0)
(5.51907e-06 -2.5725e-08 0)
(5.60923e-06 -2.59396e-08 0)
(5.70367e-06 -2.60432e-08 0)
(5.802e-06 -2.60237e-08 0)
(5.90378e-06 -2.58263e-08 0)
(6.00864e-06 -2.54612e-08 0)
(6.11625e-06 -2.49378e-08 0)
(6.22627e-06 -2.42404e-08 0)
(6.33835e-06 -2.33429e-08 0)
(6.45216e-06 -2.22273e-08 0)
(6.56739e-06 -2.08711e-08 0)
(6.68368e-06 -1.92549e-08 0)
(6.80072e-06 -1.7356e-08 0)
(6.91807e-06 -1.51431e-08 0)
(7.03547e-06 -1.25695e-08 0)
(7.15216e-06 -9.58007e-09 0)
(7.26827e-06 -6.10084e-09 0)
(7.3819e-06 -2.10222e-09 0)
(5.29776e-06 -7.80903e-08 0)
(5.38262e-06 -7.84945e-08 0)
(5.47213e-06 -7.91065e-08 0)
(5.56593e-06 -7.95043e-08 0)
(5.66361e-06 -7.95574e-08 0)
(5.76478e-06 -7.92712e-08 0)
(5.86913e-06 -7.8548e-08 0)
(5.97633e-06 -7.73848e-08 0)
(6.08607e-06 -7.57346e-08 0)
(6.19801e-06 -7.35435e-08 0)
(6.31186e-06 -7.07604e-08 0)
(6.42732e-06 -6.73514e-08 0)
(6.54409e-06 -6.3254e-08 0)
(6.66184e-06 -5.8395e-08 0)
(6.78026e-06 -5.26866e-08 0)
(6.89892e-06 -4.60298e-08 0)
(7.01759e-06 -3.82884e-08 0)
(7.13549e-06 -2.93114e-08 0)
(7.2528e-06 -1.8871e-08 0)
(7.36761e-06 -6.8812e-09 0)
(5.18807e-06 -1.38206e-07 0)
(5.28212e-06 -1.37722e-07 0)
(5.37982e-06 -1.37693e-07 0)
(5.4807e-06 -1.37553e-07 0)
(5.58471e-06 -1.36985e-07 0)
(5.69151e-06 -1.35994e-07 0)
(5.80092e-06 -1.34365e-07 0)
(5.91266e-06 -1.32069e-07 0)
(6.02653e-06 -1.29012e-07 0)
(6.14224e-06 -1.2512e-07 0)
(6.25957e-06 -1.20308e-07 0)
(6.37826e-06 -1.14503e-07 0)
(6.49804e-06 -1.07584e-07 0)
(6.61861e-06 -9.94209e-08 0)
(6.7397e-06 -8.9866e-08 0)
(6.86092e-06 -7.87516e-08 0)
(6.98206e-06 -6.58439e-08 0)
(7.10238e-06 -5.0896e-08 0)
(7.22207e-06 -3.35144e-08 0)
(7.33926e-06 -1.35621e-08 0)
(5.02779e-06 -2.09582e-07 0)
(5.135e-06 -2.06606e-07 0)
(5.24455e-06 -2.04469e-07 0)
(5.35573e-06 -2.02655e-07 0)
(5.46899e-06 -2.005e-07 0)
(5.58396e-06 -1.98032e-07 0)
(5.70077e-06 -1.94865e-07 0)
(5.81916e-06 -1.90949e-07 0)
(5.93912e-06 -1.86117e-07 0)
(6.06039e-06 -1.80235e-07 0)
(6.18285e-06 -1.73157e-07 0)
(6.30629e-06 -1.6476e-07 0)
(6.43049e-06 -1.54872e-07 0)
(6.55522e-06 -1.43313e-07 0)
(6.68025e-06 -1.29873e-07 0)
(6.80523e-06 -1.14294e-07 0)
(6.92998e-06 -9.62475e-08 0)
(7.05383e-06 -7.53771e-08 0)
(7.17697e-06 -5.11165e-08 0)
(7.29765e-06 -2.32883e-08 0)
(4.82177e-06 -2.95853e-07 0)
(4.94549e-06 -2.88291e-07 0)
(5.07007e-06 -2.82143e-07 0)
(5.19431e-06 -2.77191e-07 0)
(5.31937e-06 -2.72219e-07 0)
(5.44483e-06 -2.67288e-07 0)
(5.57113e-06 -2.61792e-07 0)
(5.69811e-06 -2.55619e-07 0)
(5.82588e-06 -2.48482e-07 0)
(5.95431e-06 -2.40177e-07 0)
(6.08338e-06 -2.30501e-07 0)
(6.21294e-06 -2.19267e-07 0)
(6.34288e-06 -2.06238e-07 0)
(6.473e-06 -1.91162e-07 0)
(6.60315e-06 -1.73755e-07 0)
(6.733e-06 -1.53672e-07 0)
(6.86245e-06 -1.30482e-07 0)
(6.99085e-06 -1.03724e-07 0)
(7.11849e-06 -7.26616e-08 0)
(7.24366e-06 -3.70621e-08 0)
(4.57586e-06 -3.99633e-07 0)
(4.7186e-06 -3.85058e-07 0)
(4.86076e-06 -3.72647e-07 0)
(5.00038e-06 -3.62781e-07 0)
(5.13942e-06 -3.53532e-07 0)
(5.27739e-06 -3.44937e-07 0)
(5.415e-06 -3.36124e-07 0)
(5.55227e-06 -3.26885e-07 0)
(5.68942e-06 -3.16811e-07 0)
(5.82648e-06 -3.05596e-07 0)
(5.96351e-06 -2.92954e-07 0)
(6.10047e-06 -2.78611e-07 0)
(6.23731e-06 -2.62246e-07 0)
(6.3739e-06 -2.43531e-07 0)
(6.51019e-06 -2.22089e-07 0)
(6.64588e-06 -1.97491e-07 0)
(6.78098e-06 -1.69191e-07 0)
(6.91485e-06 -1.36628e-07 0)
(7.04788e-06 -9.88996e-08 0)
(7.17846e-06 -5.56736e-08 0)
(4.29696e-06 -5.22503e-07 0)
(4.46033e-06 -4.98469e-07 0)
(4.62188e-06 -4.77563e-07 0)
(4.7786e-06 -4.6088e-07 0)
(4.93327e-06 -4.458e-07 0)
(5.08531e-06 -4.32216e-07 0)
(5.23575e-06 -4.19043e-07 0)
(5.3847e-06 -4.05869e-07 0)
(5.53256e-06 -3.92157e-07 0)
(5.67947e-06 -3.77474e-07 0)
(5.82562e-06 -3.61419e-07 0)
(5.97104e-06 -3.43615e-07 0)
(6.11579e-06 -3.2365e-07 0)
(6.25984e-06 -3.01113e-07 0)
(6.40317e-06 -2.75531e-07 0)
(6.54559e-06 -2.46381e-07 0)
(6.68715e-06 -2.12997e-07 0)
(6.82732e-06 -1.74709e-07 0)
(6.96651e-06 -1.30462e-07 0)
(7.10327e-06 -7.98149e-08 0)
(3.99198e-06 -6.64834e-07 0)
(4.17662e-06 -6.28607e-07 0)
(4.35854e-06 -5.96937e-07 0)
(4.53356e-06 -5.7131e-07 0)
(4.70509e-06 -5.48783e-07 0)
(4.87248e-06 -5.28789e-07 0)
(5.03698e-06 -5.10149e-07 0)
(5.19881e-06 -4.92148e-07 0)
(5.35849e-06 -4.74097e-07 0)
(5.51631e-06 -4.55401e-07 0)
(5.67253e-06 -4.35529e-07 0)
(5.82734e-06 -4.13974e-07 0)
(5.98085e-06 -3.90221e-07 0)
(6.13315e-06 -3.63757e-07 0)
(6.28429e-06 -3.34005e-07 0)
(6.43417e-06 -3.00337e-07 0)
(6.58287e-06 -2.6197e-07 0)
(6.72998e-06 -2.18117e-07 0)
(6.87598e-06 -1.67572e-07 0)
(7.01958e-06 -1.09786e-07 0)
(3.66846e-06 -8.26334e-07 0)
(3.87432e-06 -7.75719e-07 0)
(4.07656e-06 -7.31896e-07 0)
(4.27047e-06 -6.95515e-07 0)
(4.45935e-06 -6.64092e-07 0)
(4.64285e-06 -6.36361e-07 0)
(4.82215e-06 -6.11105e-07 0)
(4.99765e-06 -5.87293e-07 0)
(5.16995e-06 -5.64075e-07 0)
(5.33946e-06 -5.4068e-07 0)
(5.50654e-06 -5.16427e-07 0)
(5.67147e-06 -4.9068e-07 0)
(5.83448e-06 -4.62806e-07 0)
(5.99571e-06 -4.32182e-07 0)
(6.1553e-06 -3.98114e-07 0)
(6.31323e-06 -3.59859e-07 0)
(6.46966e-06 -3.16529e-07 0)
(6.62429e-06 -2.6721e-07 0)
(6.77764e-06 -2.1058e-07 0)
(6.92866e-06 -1.45981e-07 0)
(3.33252e-06 -1.0041e-06 0)
(3.55968e-06 -9.35619e-07 0)
(3.78135e-06 -8.78092e-07 0)
(3.99461e-06 -8.29256e-07 0)
(4.20117e-06 -7.87535e-07 0)
(4.40142e-06 -7.50974e-07 0)
(4.59614e-06 -7.18201e-07 0)
(4.78596e-06 -6.87911e-07 0)
(4.9715e-06 -6.59035e-07 0)
(5.15327e-06 -6.30599e-07 0)
(5.33174e-06 -6.01748e-07 0)
(5.50728e-06 -5.71693e-07 0)
(5.68022e-06 -5.39664e-07 0)
(5.85079e-06 -5.04916e-07 0)
(6.0192e-06 -4.66637e-07 0)
(6.18552e-06 -4.23968e-07 0)
(6.35001e-06 -3.75923e-07 0)
(6.51249e-06 -3.21451e-07 0)
(6.67354e-06 -2.59123e-07 0)
(6.83236e-06 -1.88148e-07 0)
(3.08425e-06 -1.17396e-06 0)
(3.32506e-06 -1.0912e-06 0)
(3.558e-06 -1.02353e-06 0)
(3.78299e-06 -9.64809e-07 0)
(4.00063e-06 -9.14049e-07 0)
(4.21149e-06 -8.6925e-07 0)
(4.41623e-06 -8.28961e-07 0)
(4.61547e-06 -7.91847e-07 0)
(4.80982e-06 -7.56744e-07 0)
(4.99978e-06 -7.22592e-07 0)
(5.18586e-06 -6.88447e-07 0)
(5.36845e-06 -6.53431e-07 0)
(5.54792e-06 -6.16693e-07 0)
(5.72456e-06 -5.77404e-07 0)
(5.89863e-06 -5.34682e-07 0)
(6.07029e-06 -4.87596e-07 0)
(6.23985e-06 -4.35134e-07 0)
(6.40728e-06 -3.76167e-07 0)
(6.5732e-06 -3.09247e-07 0)
(6.73704e-06 -2.33531e-07 0)
(2.9419e-06 -1.31137e-06 0)
(3.18444e-06 -1.22554e-06 0)
(3.41929e-06 -1.1523e-06 0)
(3.64726e-06 -1.08765e-06 0)
(3.86832e-06 -1.03062e-06 0)
(4.08288e-06 -9.79582e-07 0)
(4.29142e-06 -9.33191e-07 0)
(4.49439e-06 -8.902e-07 0)
(4.69231e-06 -8.4947e-07 0)
(4.88563e-06 -8.09961e-07 0)
(5.0748e-06 -7.70734e-07 0)
(5.26022e-06 -7.30895e-07 0)
(5.44224e-06 -6.89571e-07 0)
(5.62117e-06 -6.45924e-07 0)
(5.79728e-06 -5.9906e-07 0)
(5.97083e-06 -5.48041e-07 0)
(6.14211e-06 -4.9189e-07 0)
(6.31124e-06 -4.29492e-07 0)
(6.47882e-06 -3.5945e-07 0)
(6.64452e-06 -2.80973e-07 0)
(2.81973e-06 -1.44355e-06 0)
(3.06e-06 -1.35565e-06 0)
(3.29452e-06 -1.27871e-06 0)
(3.52301e-06 -1.2095e-06 0)
(3.7454e-06 -1.14731e-06 0)
(3.96178e-06 -1.09084e-06 0)
(4.17246e-06 -1.03892e-06 0)
(4.37774e-06 -9.90439e-07 0)
(4.57801e-06 -9.44343e-07 0)
(4.77365e-06 -8.99652e-07 0)
(4.96506e-06 -8.55455e-07 0)
(5.15259e-06 -8.10869e-07 0)
(5.33658e-06 -7.65027e-07 0)
(5.51732e-06 -7.17099e-07 0)
(5.69512e-06 -6.66203e-07 0)
(5.87025e-06 -6.11416e-07 0)
(6.04305e-06 -5.51798e-07 0)
(6.21372e-06 -4.86287e-07 0)
(6.38284e-06 -4.13558e-07 0)
(6.55031e-06 -3.32898e-07 0)
(2.71174e-06 -1.57111e-06 0)
(2.94866e-06 -1.48218e-06 0)
(3.18121e-06 -1.40244e-06 0)
(3.40861e-06 -1.32945e-06 0)
(3.63076e-06 -1.2628e-06 0)
(3.84751e-06 -1.20149e-06 0)
(4.05902e-06 -1.14455e-06 0)
(4.26545e-06 -1.091e-06 0)
(4.46707e-06 -1.03987e-06 0)
(4.66418e-06 -9.9028e-07 0)
(4.85709e-06 -9.41353e-07 0)
(5.04612e-06 -8.92234e-07 0)
(5.23156e-06 -8.42079e-07 0)
(5.41372e-06 -7.90088e-07 0)
(5.59288e-06 -7.35397e-07 0)
(5.76935e-06 -6.77125e-07 0)
(5.94347e-06 -6.14371e-07 0)
(6.11552e-06 -5.46147e-07 0)
(6.28603e-06 -4.71225e-07 0)
(6.45516e-06 -3.88988e-07 0)
(2.6165e-06 -1.69326e-06 0)
(2.84905e-06 -1.60404e-06 0)
(3.07845e-06 -1.52247e-06 0)
(3.30353e-06 -1.44665e-06 0)
(3.52422e-06 -1.3764e-06 0)
(3.74018e-06 -1.311e-06 0)
(3.95143e-06 -1.24965e-06 0)
(4.15801e-06 -1.19153e-06 0)
(4.3601e-06 -1.1358e-06 0)
(4.55788e-06 -1.08165e-06 0)
(4.75163e-06 -1.02828e-06 0)
(4.94157e-06 -9.74882e-07 0)
(5.12799e-06 -9.20646e-07 0)
(5.31116e-06 -8.64824e-07 0)
(5.49136e-06 -8.06575e-07 0)
(5.66891e-06 -7.45088e-07 0)
(5.84415e-06 -6.795e-07 0)
(6.0174e-06 -6.08909e-07 0)
(6.18918e-06 -5.3222e-07 0)
(6.35982e-06 -4.48908e-07 0)
(2.53178e-06 -1.81018e-06 0)
(2.75944e-06 -1.72125e-06 0)
(2.98496e-06 -1.63852e-06 0)
(3.20689e-06 -1.56056e-06 0)
(3.42523e-06 -1.48742e-06 0)
(3.63948e-06 -1.41856e-06 0)
(3.84959e-06 -1.35338e-06 0)
(4.0555e-06 -1.29121e-06 0)
(4.25729e-06 -1.23133e-06 0)
(4.45508e-06 -1.17303e-06 0)
(4.64905e-06 -1.11557e-06 0)
(4.8394e-06 -1.05821e-06 0)
(5.02635e-06 -1.00019e-06 0)
(5.21017e-06 -9.40828e-07 0)
(5.39111e-06 -8.79313e-07 0)
(5.56949e-06 -8.14917e-07 0)
(5.74564e-06 -7.46826e-07 0)
(5.91991e-06 -6.74233e-07 0)
(6.09282e-06 -5.96186e-07 0)
(6.2648e-06 -5.12238e-07 0)
(2.45589e-06 -1.92198e-06 0)
(2.67838e-06 -1.83373e-06 0)
(2.89951e-06 -1.7504e-06 0)
(3.11774e-06 -1.67093e-06 0)
(3.33308e-06 -1.59552e-06 0)
(3.54494e-06 -1.52381e-06 0)
(3.75324e-06 -1.45538e-06 0)
(3.95782e-06 -1.38968e-06 0)
(4.1587e-06 -1.32612e-06 0)
(4.35592e-06 -1.26408e-06 0)
(4.54961e-06 -1.20291e-06 0)
(4.7399e-06 -1.14193e-06 0)
(4.927e-06 -1.08046e-06 0)
(5.11113e-06 -1.01786e-06 0)
(5.29253e-06 -9.53387e-07 0)
(5.4715e-06 -8.86385e-07 0)
(5.64836e-06 -8.16107e-07 0)
(5.82349e-06 -7.4185e-07 0)
(5.99738e-06 -6.62797e-07 0)
(6.17051e-06 -5.78572e-07 0)
(2.38721e-06 -2.02892e-06 0)
(2.60446e-06 -1.94162e-06 0)
(2.82093e-06 -1.8581e-06 0)
(3.0351e-06 -1.7776e-06 0)
(3.24699e-06 -1.70044e-06 0)
(3.45598e-06 -1.62641e-06 0)
(3.66196e-06 -1.55525e-06 0)
(3.86471e-06 -1.48653e-06 0)
(4.06418e-06 -1.41974e-06 0)
(4.26036e-06 -1.35439e-06 0)
(4.45334e-06 -1.28991e-06 0)
(4.6432e-06 -1.22568e-06 0)
(4.83012e-06 -1.1611e-06 0)
(5.01427e-06 -1.0956e-06 0)
(5.19589e-06 -1.02849e-06 0)
(5.37525e-06 -9.59191e-07 0)
(5.55265e-06 -8.87044e-07 0)
(5.72848e-06 -8.11439e-07 0)
(5.9032e-06 -7.31687e-07 0)
(6.0773e-06 -6.47489e-07 0)
(2.32435e-06 -2.13132e-06 0)
(2.53636e-06 -2.04513e-06 0)
(2.74806e-06 -1.9617e-06 0)
(2.95798e-06 -1.88056e-06 0)
(3.16615e-06 -1.80209e-06 0)
(3.37195e-06 -1.72622e-06 0)
(3.57524e-06 -1.6528e-06 0)
(3.77577e-06 -1.58151e-06 0)
(3.97346e-06 -1.51195e-06 0)
(4.16826e-06 -1.44371e-06 0)
(4.3602e-06 -1.37632e-06 0)
(4.54934e-06 -1.30922e-06 0)
(4.73581e-06 -1.24189e-06 0)
(4.91976e-06 -1.17382e-06 0)
(5.10139e-06 -1.10439e-06 0)
(5.28096e-06 -1.0331e-06 0)
(5.45874e-06 -9.59384e-07 0)
(5.63514e-06 -8.8271e-07 0)
(5.81051e-06 -8.02518e-07 0)
(5.98545e-06 -7.18597e-07 0)
(2.26606e-06 -2.22951e-06 0)
(2.47293e-06 -2.14451e-06 0)
(2.67985e-06 -2.06138e-06 0)
(2.88544e-06 -1.97989e-06 0)
(3.08975e-06 -1.90047e-06 0)
(3.29217e-06 -1.82316e-06 0)
(3.49254e-06 -1.74789e-06 0)
(3.69061e-06 -1.67446e-06 0)
(3.88626e-06 -1.60255e-06 0)
(4.07941e-06 -1.53183e-06 0)
(4.27007e-06 -1.46192e-06 0)
(4.45826e-06 -1.39232e-06 0)
(4.64407e-06 -1.32259e-06 0)
(4.82763e-06 -1.25229e-06 0)
(5.00911e-06 -1.18085e-06 0)
(5.18874e-06 -1.10788e-06 0)
(5.36677e-06 -1.03287e-06 0)
(5.54358e-06 -9.5537e-07 0)
(5.71948e-06 -8.74963e-07 0)
(5.8951e-06 -7.91513e-07 0)
(2.21122e-06 -2.32385e-06 0)
(2.4131e-06 -2.24003e-06 0)
(2.61532e-06 -2.15735e-06 0)
(2.8166e-06 -2.07572e-06 0)
(3.01701e-06 -1.99565e-06 0)
(3.21596e-06 -1.91723e-06 0)
(3.4133e-06 -1.8405e-06 0)
(3.60875e-06 -1.7653e-06 0)
(3.80219e-06 -1.69143e-06 0)
(3.99354e-06 -1.61862e-06 0)
(4.18274e-06 -1.54657e-06 0)
(4.36981e-06 -1.47483e-06 0)
(4.55481e-06 -1.40304e-06 0)
(4.73784e-06 -1.33083e-06 0)
(4.91902e-06 -1.2577e-06 0)
(5.09859e-06 -1.18331e-06 0)
(5.27675e-06 -1.10725e-06 0)
(5.45383e-06 -1.02915e-06 0)
(5.63016e-06 -9.48714e-07 0)
(5.8063e-06 -8.65867e-07 0)
(2.15884e-06 -2.41465e-06 0)
(2.35592e-06 -2.33198e-06 0)
(2.55357e-06 -2.24982e-06 0)
(2.75064e-06 -2.16824e-06 0)
(2.94718e-06 -2.08775e-06 0)
(3.14265e-06 -2.00851e-06 0)
(3.3369e-06 -1.93063e-06 0)
(3.52968e-06 -1.85402e-06 0)
(3.72083e-06 -1.77854e-06 0)
(3.91027e-06 -1.704e-06 0)
(4.09793e-06 -1.63015e-06 0)
(4.28378e-06 -1.55663e-06 0)
(4.46787e-06 -1.48311e-06 0)
(4.65027e-06 -1.40929e-06 0)
(4.83108e-06 -1.33474e-06 0)
(5.01049e-06 -1.2592e-06 0)
(5.18867e-06 -1.18231e-06 0)
(5.36593e-06 -1.1038e-06 0)
(5.54258e-06 -1.02348e-06 0)
(5.7191e-06 -9.4131e-07 0)
(2.10801e-06 -2.50221e-06 0)
(2.30051e-06 -2.42064e-06 0)
(2.49376e-06 -2.33905e-06 0)
(2.68674e-06 -2.25763e-06 0)
(2.8795e-06 -2.17691e-06 0)
(3.07155e-06 -2.09709e-06 0)
(3.26276e-06 -2.01834e-06 0)
(3.45287e-06 -1.94063e-06 0)
(3.64174e-06 -1.86387e-06 0)
(3.82926e-06 -1.78794e-06 0)
(4.01533e-06 -1.71264e-06 0)
(4.19993e-06 -1.63764e-06 0)
(4.38306e-06 -1.5627e-06 0)
(4.56477e-06 -1.48757e-06 0)
(4.74514e-06 -1.41186e-06 0)
(4.92431e-06 -1.33539e-06 0)
(5.10243e-06 -1.25787e-06 0)
(5.27981e-06 -1.17912e-06 0)
(5.45666e-06 -1.09902e-06 0)
(5.63346e-06 -1.01756e-06 0)
(2.05791e-06 -2.58681e-06 0)
(2.24603e-06 -2.50628e-06 0)
(2.43505e-06 -2.42527e-06 0)
(2.62412e-06 -2.3441e-06 0)
(2.81325e-06 -2.2633e-06 0)
(3.00201e-06 -2.18311e-06 0)
(3.19029e-06 -2.10375e-06 0)
(3.37782e-06 -2.02523e-06 0)
(3.56447e-06 -1.94749e-06 0)
(3.75009e-06 -1.87047e-06 0)
(3.9346e-06 -1.794e-06 0)
(4.11794e-06 -1.71783e-06 0)
(4.3001e-06 -1.64175e-06 0)
(4.4811e-06 -1.56556e-06 0)
(4.66099e-06 -1.48894e-06 0)
(4.83989e-06 -1.41174e-06 0)
(5.0179e-06 -1.33376e-06 0)
(5.19532e-06 -1.25489e-06 0)
(5.37227e-06 -1.17507e-06 0)
(5.54927e-06 -1.09437e-06 0)
(2.00766e-06 -2.66872e-06 0)
(2.19162e-06 -2.58913e-06 0)
(2.37664e-06 -2.50872e-06 0)
(2.56199e-06 -2.42789e-06 0)
(2.7477e-06 -2.34715e-06 0)
(2.93338e-06 -2.26678e-06 0)
(3.11889e-06 -2.18703e-06 0)
(3.30397e-06 -2.10793e-06 0)
(3.48851e-06 -2.02948e-06 0)
(3.67234e-06 -1.95163e-06 0)
(3.85537e-06 -1.87428e-06 0)
(4.03751e-06 -1.79721e-06 0)
(4.21875e-06 -1.72025e-06 0)
(4.39907e-06 -1.64324e-06 0)
(4.57848e-06 -1.5659e-06 0)
(4.75709e-06 -1.48815e-06 0)
(4.93499e-06 -1.40986e-06 0)
(5.11238e-06 -1.33095e-06 0)
(5.28941e-06 -1.25147e-06 0)
(5.4665e-06 -1.1715e-06 0)
(1.95645e-06 -2.74812e-06 0)
(2.13646e-06 -2.66951e-06 0)
(2.31769e-06 -2.58963e-06 0)
(2.49961e-06 -2.50919e-06 0)
(2.68216e-06 -2.42865e-06 0)
(2.86499e-06 -2.34827e-06 0)
(3.04795e-06 -2.26832e-06 0)
(3.23081e-06 -2.18887e-06 0)
(3.41341e-06 -2.10995e-06 0)
(3.5956e-06 -2.03153e-06 0)
(3.77727e-06 -1.95355e-06 0)
(3.95832e-06 -1.87582e-06 0)
(4.1387e-06 -1.7982e-06 0)
(4.31838e-06 -1.72056e-06 0)
(4.49735e-06 -1.64269e-06 0)
(4.67569e-06 -1.56455e-06 0)
(4.85346e-06 -1.48605e-06 0)
(5.0308e-06 -1.40718e-06 0)
(5.20787e-06 -1.32804e-06 0)
(5.38499e-06 -1.24876e-06 0)
(1.90346e-06 -2.82536e-06 0)
(2.07963e-06 -2.74744e-06 0)
(2.25726e-06 -2.66827e-06 0)
(2.43619e-06 -2.58837e-06 0)
(2.61587e-06 -2.50812e-06 0)
(2.79619e-06 -2.42787e-06 0)
(2.97688e-06 -2.34789e-06 0)
(3.15778e-06 -2.26828e-06 0)
(3.33869e-06 -2.18908e-06 0)
(3.51945e-06 -2.11031e-06 0)
(3.69994e-06 -2.03192e-06 0)
(3.88005e-06 -1.95374e-06 0)
(4.05968e-06 -1.87564e-06 0)
(4.23881e-06 -1.79756e-06 0)
(4.4174e-06 -1.71931e-06 0)
(4.59553e-06 -1.64089e-06 0)
(4.77318e-06 -1.56226e-06 0)
(4.95049e-06 -1.48344e-06 0)
(5.12753e-06 -1.40463e-06 0)
(5.30465e-06 -1.32599e-06 0)
(1.84741e-06 -2.90035e-06 0)
(2.02033e-06 -2.82323e-06 0)
(2.19502e-06 -2.74491e-06 0)
(2.37106e-06 -2.66558e-06 0)
(2.54827e-06 -2.58574e-06 0)
(2.72638e-06 -2.50577e-06 0)
(2.90518e-06 -2.42591e-06 0)
(3.08444e-06 -2.34633e-06 0)
(3.26396e-06 -2.26706e-06 0)
(3.44356e-06 -2.18813e-06 0)
(3.6231e-06 -2.10951e-06 0)
(3.80242e-06 -2.03104e-06 0)
(3.98146e-06 -1.95265e-06 0)
(4.16016e-06 -1.87428e-06 0)
(4.33848e-06 -1.79578e-06 0)
(4.51642e-06 -1.71717e-06 0)
(4.69397e-06 -1.63843e-06 0)
(4.8713e-06 -1.55967e-06 0)
(5.04834e-06 -1.48116e-06 0)
(5.2254e-06 -1.40309e-06 0)
(1.78756e-06 -2.97389e-06 0)
(1.95749e-06 -2.89771e-06 0)
(2.12952e-06 -2.82006e-06 0)
(2.30322e-06 -2.74136e-06 0)
(2.47843e-06 -2.66202e-06 0)
(2.65483e-06 -2.58241e-06 0)
(2.83219e-06 -2.50283e-06 0)
(3.01024e-06 -2.42341e-06 0)
(3.18877e-06 -2.34419e-06 0)
(3.36754e-06 -2.26524e-06 0)
(3.54639e-06 -2.18651e-06 0)
(3.72518e-06 -2.1079e-06 0)
(3.90381e-06 -2.02936e-06 0)
(4.0822e-06 -1.95082e-06 0)
(4.26031e-06 -1.87213e-06 0)
(4.43815e-06 -1.79336e-06 0)
(4.6157e-06 -1.71457e-06 0)
(4.79305e-06 -1.63584e-06 0)
(4.97016e-06 -1.5575e-06 0)
(5.1472e-06 -1.47988e-06 0)
(1.72316e-06 -3.04542e-06 0)
(1.8905e-06 -2.97027e-06 0)
(2.06033e-06 -2.89358e-06 0)
(2.23224e-06 -2.81567e-06 0)
(2.40599e-06 -2.73701e-06 0)
(2.58124e-06 -2.65795e-06 0)
(2.7577e-06 -2.5788e-06 0)
(2.93504e-06 -2.49967e-06 0)
(3.11299e-06 -2.42063e-06 0)
(3.29132e-06 -2.34176e-06 0)
(3.46981e-06 -2.26308e-06 0)
(3.6483e-06 -2.18444e-06 0)
(3.82668e-06 -2.10579e-06 0)
(4.00488e-06 -2.02715e-06 0)
(4.18286e-06 -1.94839e-06 0)
(4.36064e-06 -1.86952e-06 0)
(4.53826e-06 -1.79067e-06 0)
(4.71569e-06 -1.7119e-06 0)
(4.89301e-06 -1.63362e-06 0)
(5.07018e-06 -1.55629e-06 0)
(1.2746e-07 -2.63735e-06 0)
(3.84157e-07 -2.59837e-06 0)
(6.46177e-07 -2.52194e-06 0)
(9.1655e-07 -2.41116e-06 0)
(1.19772e-06 -2.2703e-06 0)
(1.49121e-06 -2.1046e-06 0)
(1.7976e-06 -1.92018e-06 0)
(2.11634e-06 -1.72331e-06 0)
(2.44628e-06 -1.52047e-06 0)
(2.78486e-06 -1.31677e-06 0)
(1.23818e-07 -2.67989e-06 0)
(3.72965e-07 -2.64425e-06 0)
(6.26549e-07 -2.57436e-06 0)
(8.87127e-07 -2.47281e-06 0)
(1.15678e-06 -2.34326e-06 0)
(1.43682e-06 -2.19015e-06 0)
(1.72778e-06 -2.01868e-06 0)
(2.02905e-06 -1.83431e-06 0)
(2.33926e-06 -1.64286e-06 0)
(2.65623e-06 -1.44872e-06 0)
(1.20609e-07 -2.72342e-06 0)
(3.6308e-07 -2.69083e-06 0)
(6.09181e-07 -2.62685e-06 0)
(8.60967e-07 -2.53373e-06 0)
(1.1202e-06 -2.41465e-06 0)
(1.38794e-06 -2.27347e-06 0)
(1.66479e-06 -2.11462e-06 0)
(1.95046e-06 -1.94273e-06 0)
(2.24403e-06 -1.76278e-06 0)
(2.54397e-06 -1.57774e-06 0)
(1.1777e-07 -2.76804e-06 0)
(3.54331e-07 -2.73804e-06 0)
(5.93943e-07 -2.67911e-06 0)
(8.38247e-07 -2.59322e-06 0)
(1.08873e-06 -2.48316e-06 0)
(1.34624e-06 -2.35232e-06 0)
(1.61123e-06 -2.2046e-06 0)
(1.88343e-06 -2.04409e-06 0)
(2.16206e-06 -1.87541e-06 0)
(2.44584e-06 -1.70093e-06 0)
(1.15163e-07 -2.81374e-06 0)
(3.46294e-07 -2.78606e-06 0)
(5.79972e-07 -2.73166e-06 0)
(8.17518e-07 -2.65227e-06 0)
(1.06018e-06 -2.55038e-06 0)
(1.30865e-06 -2.42901e-06 0)
(1.56334e-06 -2.29159e-06 0)
(1.82401e-06 -2.14164e-06 0)
(2.09012e-06 -1.98332e-06 0)
(2.36006e-06 -1.81879e-06 0)
(1.12728e-07 -2.86046e-06 0)
(3.38869e-07 -2.83478e-06 0)
(5.67133e-07 -2.78431e-06 0)
(7.98633e-07 -2.71061e-06 0)
(1.03439e-06 -2.61589e-06 0)
(1.27497e-06 -2.50289e-06 0)
(1.52067e-06 -2.37472e-06 0)
(1.77122e-06 -2.23448e-06 0)
(2.02636e-06 -2.08595e-06 0)
(2.28423e-06 -1.93125e-06 0)
(1.10405e-07 -2.90813e-06 0)
(3.31811e-07 -2.88425e-06 0)
(5.55e-07 -2.83728e-06 0)
(7.80925e-07 -2.76868e-06 0)
(1.01041e-06 -2.6804e-06 0)
(1.24395e-06 -2.57494e-06 0)
(1.48176e-06 -2.45514e-06 0)
(1.72351e-06 -2.32374e-06 0)
(1.96918e-06 -2.18413e-06 0)
(2.21666e-06 -2.03858e-06 0)
(1.08185e-07 -2.95666e-06 0)
(3.25037e-07 -2.93437e-06 0)
(5.43425e-07 -2.8905e-06 0)
(7.64151e-07 -2.82641e-06 0)
(9.879e-07 -2.74386e-06 0)
(1.21506e-06 -2.64515e-06 0)
(1.44584e-06 -2.53288e-06 0)
(1.67982e-06 -2.40956e-06 0)
(1.91717e-06 -2.27817e-06 0)
(2.15568e-06 -2.14114e-06 0)
(1.06006e-07 -3.00597e-06 0)
(3.18414e-07 -2.9851e-06 0)
(5.32175e-07 -2.944e-06 0)
(7.47949e-07 -2.88396e-06 0)
(9.66346e-07 -2.80656e-06 0)
(1.18766e-06 -2.71391e-06 0)
(1.41209e-06 -2.60844e-06 0)
(1.63916e-06 -2.49244e-06 0)
(1.86917e-06 -2.36857e-06 0)
(2.0999e-06 -2.23932e-06 0)
(1.03828e-07 -3.05594e-06 0)
(3.11863e-07 -3.03634e-06 0)
(5.21097e-07 -2.99773e-06 0)
(7.32103e-07 -2.9413e-06 0)
(9.45417e-07 -2.86854e-06 0)
(1.1613e-06 -2.78136e-06 0)
(1.3799e-06 -2.68201e-06 0)
(1.60075e-06 -2.57266e-06 0)
(1.82419e-06 -2.45566e-06 0)
(2.0481e-06 -2.33353e-06 0)
(1.01637e-07 -3.10645e-06 0)
(3.05303e-07 -3.08803e-06 0)
(5.10029e-07 -3.05166e-06 0)
(7.16372e-07 -2.99847e-06 0)
(9.24784e-07 -2.92989e-06 0)
(1.13551e-06 -2.84766e-06 0)
(1.34869e-06 -2.75385e-06 0)
(1.56386e-06 -2.65054e-06 0)
(1.78137e-06 -2.53979e-06 0)
(1.99923e-06 -2.42413e-06 0)
(9.94237e-08 -3.15739e-06 0)
(2.98655e-07 -3.14004e-06 0)
(4.98835e-07 -3.10568e-06 0)
(7.00547e-07 -3.05544e-06 0)
(9.04164e-07 -2.99065e-06 0)
(1.10993e-06 -2.91289e-06 0)
(1.31799e-06 -2.82411e-06 0)
(1.52789e-06 -2.72628e-06 0)
(1.73995e-06 -2.62125e-06 0)
(1.95238e-06 -2.51146e-06 0)
(9.71548e-08 -3.20865e-06 0)
(2.91816e-07 -3.19224e-06 0)
(4.87365e-07 -3.15974e-06 0)
(6.84404e-07 -3.11218e-06 0)
(8.83261e-07 -3.05082e-06 0)
(1.08417e-06 -2.97714e-06 0)
(1.2873e-06 -2.89295e-06 0)
(1.49222e-06 -2.80009e-06 0)
(1.69921e-06 -2.70027e-06 0)
(1.90671e-06 -2.59583e-06 0)
(9.47891e-08 -3.26003e-06 0)
(2.84692e-07 -3.24448e-06 0)
(4.75471e-07 -3.21368e-06 0)
(6.67723e-07 -3.16857e-06 0)
(8.61776e-07 -3.11036e-06 0)
(1.05787e-06 -3.04041e-06 0)
(1.25617e-06 -2.96041e-06 0)
(1.4563e-06 -2.87211e-06 0)
(1.6585e-06 -2.77707e-06 0)
(1.86142e-06 -2.67749e-06 0)
(9.22912e-08 -3.31141e-06 0)
(2.77196e-07 -3.29663e-06 0)
(4.62996e-07 -3.26741e-06 0)
(6.50283e-07 -3.22457e-06 0)
(8.39412e-07 -3.16925e-06 0)
(1.03062e-06 -3.10275e-06 0)
(1.2241e-06 -3.02662e-06 0)
(1.41954e-06 -2.9425e-06 0)
(1.61713e-06 -2.85185e-06 0)
(1.8157e-06 -2.75671e-06 0)
(8.96343e-08 -3.36249e-06 0)
(2.69241e-07 -3.34844e-06 0)
(4.49782e-07 -3.32069e-06 0)
(6.31851e-07 -3.27997e-06 0)
(8.15852e-07 -3.22734e-06 0)
(1.00204e-06 -3.16404e-06 0)
(1.19062e-06 -3.09149e-06 0)
(1.38137e-06 -3.01125e-06 0)
(1.5744e-06 -2.92466e-06 0)
(1.76878e-06 -2.83359e-06 0)
(8.67849e-08 -3.4132e-06 0)
(2.60711e-07 -3.39984e-06 0)
(4.35622e-07 -3.37348e-06 0)
(6.12134e-07 -3.33475e-06 0)
(7.90712e-07 -3.28466e-06 0)
(9.71635e-07 -3.22436e-06 0)
(1.15514e-06 -3.15519e-06 0)
(1.34108e-06 -3.07857e-06 0)
(1.52956e-06 -2.99575e-06 0)
(1.71977e-06 -2.9085e-06 0)
(8.3699e-08 -3.463e-06 0)
(2.51468e-07 -3.4503e-06 0)
(4.20291e-07 -3.42526e-06 0)
(5.90821e-07 -3.38844e-06 0)
(7.63583e-07 -3.34078e-06 0)
(9.38909e-07 -3.28335e-06 0)
(1.11708e-06 -3.21737e-06 0)
(1.29799e-06 -3.14419e-06 0)
(1.48177e-06 -3.06495e-06 0)
(1.66778e-06 -2.98131e-06 0)
(8.03069e-08 -3.51213e-06 0)
(2.41309e-07 -3.50007e-06 0)
(4.03458e-07 -3.4763e-06 0)
(5.67459e-07 -3.44134e-06 0)
(7.33892e-07 -3.39603e-06 0)
(9.03165e-07 -3.34137e-06 0)
(1.0756e-06 -3.27847e-06 0)
(1.25118e-06 -3.2086e-06 0)
(1.43005e-06 -3.13283e-06 0)
(1.61175e-06 -3.05264e-06 0)
(7.65799e-08 -3.55909e-06 0)
(2.30161e-07 -3.54769e-06 0)
(3.84992e-07 -3.52519e-06 0)
(5.41838e-07 -3.49207e-06 0)
(7.0136e-07 -3.44912e-06 0)
(8.6405e-07 -3.39723e-06 0)
(1.03027e-06 -3.33743e-06 0)
(1.20017e-06 -3.27086e-06 0)
(1.37384e-06 -3.19855e-06 0)
(1.55104e-06 -3.12186e-06 0)
)


// ************************************************************************* //
