/*--------------------------------*- C++ -*----------------------------------*\
| =========                 |                                                 |
| \\      /  F ield         | foam-extend: Open Source CFD                    |
|  \\    /   O peration     | Version:     4.1                                |
|   \\  /    A nd           | Web:         http://www.foam-extend.org         |
|    \\/     M anipulation  |                                                 |
\*---------------------------------------------------------------------------*/
FoamFile
{
    version     2.0;
    format      ascii;
    class       volScalarField;
    location    "1";
    object      epsilonEq;
}
// * * * * * * * * * * * * * * * * * * * * * * * * * * * * * * * * * * * * * //

dimensions      [0 0 0 0 0 0 0];

internalField   nonuniform List<scalar> 
100000
(
4.139888243035287e-07
4.09646691766682e-07
4.077704527625031e-07
4.087472548764181e-07
4.116978625508836e-07
4.164229710067883e-07
4.224524192386897e-07
4.295163783790481e-07
4.373175813040838e-07
4.456411868036425e-07
4.542939736188551e-07
4.63127508724841e-07
4.720186147890074e-07
4.808717560955972e-07
4.896110391310035e-07
4.981783226511159e-07
5.065291066300131e-07
5.146303734495283e-07
5.22458153209736e-07
5.299958601178362e-07
5.372327701410855e-07
5.441628628365114e-07
5.507838290708854e-07
5.57096306219843e-07
5.63103233333308e-07
5.68809339280311e-07
5.74220720943486e-07
5.793445093594868e-07
5.8418859890052e-07
5.88761422699139e-07
5.930717769704192e-07
5.971286779834439e-07
6.009412479553285e-07
6.045186270569998e-07
6.078698966486389e-07
6.11004021313073e-07
6.139298102419893e-07
6.166558808545211e-07
6.191906296011903e-07
6.215422175794528e-07
6.237185582144506e-07
6.257273042049667e-07
6.275758435857471e-07
6.292713010515472e-07
6.308205364997045e-07
6.322301448351128e-07
6.335064618138458e-07
6.346555702354841e-07
6.356833038849834e-07
6.365952529200718e-07
6.373967727021836e-07
6.380929919626795e-07
6.386888192659331e-07
6.391889496677808e-07
6.395978731197358e-07
6.399198827592944e-07
6.401590822013527e-07
6.403193926446723e-07
6.404045601997574e-07
6.404181637431348e-07
6.403636219937871e-07
6.40244200071937e-07
6.400630157681646e-07
6.398230458346991e-07
6.395271325121434e-07
6.391779897011583e-07
6.38778208344408e-07
6.383302614307009e-07
6.378365095020355e-07
6.372992062319442e-07
6.367205033070727e-07
6.361024546610756e-07
6.354470206891971e-07
6.347560727862954e-07
6.340313976806927e-07
6.332747010930591e-07
6.324876113064912e-07
6.316716827931329e-07
6.308283999331694e-07
6.299591794936695e-07
6.290653745859048e-07
6.281482764407779e-07
6.272091203454436e-07
6.262490809830376e-07
6.252692879781144e-07
6.242708027802457e-07
6.232546704001725e-07
6.222218194545181e-07
6.211732655197094e-07
6.201097116925744e-07
6.190323553612665e-07
6.179412884429996e-07
6.168387839446779e-07
6.15722798079111e-07
6.146005641429809e-07
6.134615949682374e-07
6.123356634509985e-07
6.111739304753732e-07
6.101229999973547e-07
6.088739414743107e-07
4.289219451555585e-07
4.239224083887722e-07
4.213066198932159e-07
4.215284681060382e-07
4.237086835479852e-07
4.276781520889733e-07
4.32974543753516e-07
4.393410609595975e-07
4.464847783155174e-07
4.541947430935106e-07
4.622780811937707e-07
4.70585808408163e-07
4.78992837468469e-07
4.874012817893862e-07
4.957324970457165e-07
5.039255321144329e-07
5.119330767484185e-07
5.197194229160523e-07
5.272580689475424e-07
5.345300847992598e-07
5.415225876706904e-07
5.482275915378469e-07
5.546410060367963e-07
5.607618566645229e-07
5.665916278661223e-07
5.721337376492424e-07
5.773931040603136e-07
5.82375796175225e-07
5.870887524382979e-07
5.91539544046384e-07
5.957361898874696e-07
5.996870082019294e-07
6.034004880750064e-07
6.068851944205484e-07
6.101496927636666e-07
6.132024799815107e-07
6.16051936254526e-07
6.187062917509714e-07
6.211735931597557e-07
6.234616796352031e-07
6.255781703436447e-07
6.275304522107518e-07
6.293256697544672e-07
6.309707223181335e-07
6.324722640977785e-07
6.338367030680713e-07
6.35070202390831e-07
6.361786848159098e-07
6.371678375545074e-07
6.380431165833415e-07
6.388097528226665e-07
6.394727594887049e-07
6.400369387435275e-07
6.405068874985832e-07
6.408870046200878e-07
6.411814986545784e-07
6.413943947829135e-07
6.4152954153436e-07
6.415906174496568e-07
6.415811384709331e-07
6.415044647389545e-07
6.413638066924785e-07
6.411622311483567e-07
6.409026674942899e-07
6.405879138138344e-07
6.402206425875301e-07
6.398034059522082e-07
6.393386407321341e-07
6.388286737352839e-07
6.382757270257258e-07
6.376819225958019e-07
6.370492865616286e-07
6.363797533557186e-07
6.356751700720905e-07
6.349373005936387e-07
6.341678292719108e-07
6.333683645871514e-07
6.325404427016769e-07
6.316855310626936e-07
6.308050312006941e-07
6.299002827426327e-07
6.28972565665928e-07
6.280231062985015e-07
6.27053075349467e-07
6.260636019186973e-07
6.250557593731549e-07
6.240306088044603e-07
6.229891340302851e-07
6.219323943841865e-07
6.208612721773854e-07
6.19777016747642e-07
6.186802924823901e-07
6.175731128523552e-07
6.164553876641593e-07
6.153315469561538e-07
6.141987741696316e-07
6.130676103693517e-07
6.119282002912156e-07
6.107932381546739e-07
6.0964906226491e-07
4.438482460998862e-07
4.381977233738941e-07
4.348520711022526e-07
4.343302664213867e-07
4.357509647393689e-07
4.389740891096038e-07
4.43544385672975e-07
4.49217862998713e-07
4.557059952625923e-07
4.628020007765922e-07
4.703137054712458e-07
4.78091949547417e-07
4.860100872515933e-07
4.939682039261343e-07
5.018851663053896e-07
5.096974219598598e-07
5.173550232602263e-07
5.248197085622976e-07
5.320625392363802e-07
5.390623119184519e-07
5.458040409493503e-07
5.52277811463291e-07
5.584777744598962e-07
5.644013566218183e-07
5.700485952996193e-07
5.75421599753547e-07
5.805241071455639e-07
5.853611179678553e-07
5.899386060841617e-07
5.942632755544572e-07
5.983423580815213e-07
6.021834589218956e-07
6.057944268853029e-07
6.091832452193693e-07
6.123579485471242e-07
6.153265547199265e-07
6.180970102797667e-07
6.206771482024841e-07
6.230746528399299e-07
6.252970352271574e-07
6.273516149021367e-07
6.29245502683092e-07
6.309855907326545e-07
6.325785489592155e-07
6.340308205814382e-07
6.353486184732427e-07
6.365379269278027e-07
6.376045050298655e-07
6.385538887726155e-07
6.393913940146138e-07
6.401221225168088e-07
6.407509685165134e-07
6.412826240163509e-07
6.417215836610774e-07
6.420721516028479e-07
6.423384487492211e-07
6.425244188414156e-07
6.426338347065578e-07
6.426703045411222e-07
6.426372786660793e-07
6.425380560301247e-07
6.423757902496476e-07
6.42153495286742e-07
6.41874051008025e-07
6.415402090652391e-07
6.411545986908519e-07
6.407197318152457e-07
6.402380076289365e-07
6.397117174995758e-07
6.391430502423085e-07
6.385340969140668e-07
6.378868547916155e-07
6.372032311797032e-07
6.364850477212237e-07
6.357340446583306e-07
6.349518843556985e-07
6.341401547284769e-07
6.33300372966221e-07
6.324339892191996e-07
6.315423892383157e-07
6.306268982220142e-07
6.296887839137276e-07
6.287292619834711e-07
6.277494952764563e-07
6.267506056169628e-07
6.257336656878494e-07
6.246997306016328e-07
6.236497938628077e-07
6.225848949603175e-07
6.215059478684405e-07
6.20414103808382e-07
6.193101137419961e-07
6.181955683610498e-07
6.170706483516725e-07
6.159381650202909e-07
6.147963094040354e-07
6.136498739122836e-07
6.124935417926488e-07
6.113187248236982e-07
6.101405395162442e-07
4.587641454828367e-07
4.524685462733581e-07
4.484020512387589e-07
4.471471851848651e-07
4.478187093990126e-07
4.503044845249197e-07
4.541555983682109e-07
4.591406164667239e-07
4.649754213055056e-07
4.714576131487613e-07
4.783960180196889e-07
4.856416457802377e-07
4.930666181198461e-07
5.005692813783705e-07
5.080662699950385e-07
5.154916433713625e-07
5.227929812648694e-07
5.299296002706265e-07
5.368702290731244e-07
5.435914671294055e-07
5.500762819955881e-07
5.563128697283717e-07
5.62293649597038e-07
5.680144678547437e-07
5.734739250160244e-07
5.786728240639014e-07
5.836137204888317e-07
5.883005464720711e-07
5.927383039810081e-07
5.969328186770863e-07
6.008905314001918e-07
6.046183276868307e-07
6.081234014067592e-07
6.114131449841517e-07
6.144950571358846e-07
6.173766656006869e-07
6.200654713621897e-07
6.225689040041763e-07
6.248942789676847e-07
6.270487684854986e-07
6.290393837384658e-07
6.308729546164044e-07
6.32556114595125e-07
6.340952956111842e-07
6.354967234968869e-07
6.367664116819197e-07
6.379101600662039e-07
6.389335577803431e-07
6.398419846910279e-07
6.406406125822502e-07
6.413344097154026e-07
6.419281468227762e-07
6.424264018698128e-07
6.428335638717789e-07
6.431538387187986e-07
6.433912561978703e-07
6.435496756599147e-07
6.436327913854686e-07
6.436441383188839e-07
6.435870986261461e-07
6.434649078452915e-07
6.432806604114935e-07
6.430373150277135e-07
6.427377000062849e-07
6.423845188562315e-07
6.41980355794673e-07
6.415276806250775e-07
6.410288530877248e-07
6.404861276581389e-07
6.399016587237343e-07
6.392775051140217e-07
6.386156338136858e-07
6.379179237644871e-07
6.371861702021828e-07
6.364220887205754e-07
6.356273186159321e-07
6.348034263698769e-07
6.339519094819209e-07
6.330741999937975e-07
6.321716671594932e-07
6.312456211954354e-07
6.30297316807414e-07
6.293279577094835e-07
6.283386975499678e-07
6.273306482004568e-07
6.263048776151265e-07
6.252624265793806e-07
6.242042891724354e-07
6.231314605179292e-07
6.220448655316669e-07
6.209454844832578e-07
6.198341311107633e-07
6.187117662487452e-07
6.175789497461838e-07
6.164363252669926e-07
6.152841668333699e-07
6.141203214229114e-07
6.129496063225081e-07
6.117437267267413e-07
6.105568879727153e-07
4.736658912854423e-07
4.667307964700765e-07
4.619519404969949e-07
4.599739975970639e-07
4.599061994612169e-07
4.61663333173613e-07
4.648021253875943e-07
4.691034143321895e-07
4.742874547797941e-07
4.801563963668285e-07
4.865203195963625e-07
4.932307049592583e-07
5.001587403939663e-07
5.072013105422437e-07
5.142730576463292e-07
5.213058577679294e-07
5.282449848471173e-07
5.350474653371276e-07
5.416798000009905e-07
5.481164702731949e-07
5.543384562242358e-07
5.603321091039441e-07
5.660881470397775e-07
5.716008539675838e-07
5.768674072475594e-07
5.818873142120575e-07
5.866619466383185e-07
5.911941640366206e-07
5.954879985634714e-07
5.995483921868353e-07
6.033809825694249e-07
6.069919295541459e-07
6.103877675015485e-07
6.135752865518562e-07
6.165614386297583e-07
6.193532559967899e-07
6.219577868268903e-07
6.243820459519278e-07
6.266329715203396e-07
6.287173919915778e-07
6.306420026811872e-07
6.324133434507611e-07
6.340377828851888e-07
6.355215101059e-07
6.368705269529996e-07
6.380906407187341e-07
6.391874620744321e-07
6.40166405751913e-07
6.410326902373241e-07
6.417913382142686e-07
6.424471804944015e-07
6.430048606267058e-07
6.434688383703015e-07
6.438433932018813e-07
6.441326296492542e-07
6.443404833214555e-07
6.444707258972851e-07
6.445269701694963e-07
6.445126752755184e-07
6.444311526548696e-07
6.442855718922895e-07
6.440789659822121e-07
6.438142362892688e-07
6.43494157513995e-07
6.431213830120582e-07
6.426984500883866e-07
6.422277846947426e-07
6.417117055861519e-07
6.41152428833296e-07
6.405520727609147e-07
6.399126624267867e-07
6.392361332581249e-07
6.385243346254468e-07
6.377790340030834e-07
6.370019209781691e-07
6.361946105224687e-07
6.353586463133586e-07
6.344955044695501e-07
6.336065969715024e-07
6.326932742843848e-07
6.31756828716471e-07
6.307984979739928e-07
6.29819468687353e-07
6.288208778042049e-07
6.278038176962641e-07
6.267693366636635e-07
6.257184453477627e-07
6.246521091104865e-07
6.235712627118161e-07
6.224767864529227e-07
6.21369525347981e-07
6.202502405322748e-07
6.191195901253643e-07
6.179781693146023e-07
6.16826003369056e-07
6.1566392757291e-07
6.144887268397542e-07
6.133079993798632e-07
6.12091138146145e-07
6.109049354378827e-07
4.885498387319651e-07
4.809805179966691e-07
4.754972780801562e-07
4.728056908291798e-07
4.7200797968956e-07
4.730449121018835e-07
4.754781746245793e-07
4.791005839911629e-07
4.836366952130056e-07
4.888933282931002e-07
4.946820324271549e-07
5.008550245541266e-07
5.072828298474205e-07
5.138611305662028e-07
5.205028054265929e-07
5.271377435840091e-07
5.337090771725716e-07
5.401716743357594e-07
5.464899135223529e-07
5.526362414571675e-07
5.585897119330026e-07
5.643348745346804e-07
5.698607824512648e-07
5.751601847241581e-07
5.802288453270988e-07
5.850649830339433e-07
5.896687962873422e-07
5.940420714393799e-07
5.981878640362594e-07
6.021102311420049e-07
6.058140043780853e-07
6.093046076418805e-07
6.125879069709451e-07
6.156700860159286e-07
6.18557542707956e-07
6.212568028486677e-07
6.237744538677786e-07
6.261170905309884e-07
6.282912657161543e-07
6.303034549529794e-07
6.321600313001232e-07
6.33867239189094e-07
6.354311751736268e-07
6.368577785264164e-07
6.381528219081008e-07
6.393219015683811e-07
6.40370433172147e-07
6.413036515475176e-07
6.421266095177584e-07
6.428441766559199e-07
6.434610417081183e-07
6.439817167028082e-07
6.444105397383474e-07
6.447516773786387e-07
6.450091292143714e-07
6.451867334538131e-07
6.452881712323725e-07
6.453169709497057e-07
6.452765131171843e-07
6.451700359579871e-07
6.450006407942362e-07
6.447712968947866e-07
6.444848460643016e-07
6.441440072765735e-07
6.437513817775839e-07
6.433094581991768e-07
6.428206169515126e-07
6.422871340555102e-07
6.417111854967538e-07
6.410948520666748e-07
6.404401236347635e-07
6.397489025594057e-07
6.390230071454625e-07
6.382641757237556e-07
6.37474070521086e-07
6.366542807716348e-07
6.358063258853389e-07
6.349316590669947e-07
6.340316704983182e-07
6.331076898062546e-07
6.321609890227375e-07
6.311927860651442e-07
6.302042472329904e-07
6.29196489009642e-07
6.281705801784502e-07
6.271275448781975e-07
6.260683598684052e-07
6.249939586600239e-07
6.239052169144829e-07
6.228029759536676e-07
6.216879665651277e-07
6.205609353614137e-07
6.194223136096875e-07
6.182728575425621e-07
6.171121378274469e-07
6.159418642616051e-07
6.147578088270712e-07
6.135710054436097e-07
6.123466201653408e-07
6.111658931327045e-07
5.034123173170756e-07
4.952137882424174e-07
4.890337219623981e-07
4.856374363125299e-07
4.841188173276082e-07
4.844437346509107e-07
4.861781890023576e-07
4.891266674939374e-07
4.930179278110203e-07
4.976635396921925e-07
5.028766970745307e-07
5.085105891086373e-07
5.144353242671993e-07
5.205456226057733e-07
5.267528158200623e-07
5.329849933086646e-07
5.391833073167828e-07
5.453006012881895e-07
5.512992347236467e-07
5.571496995248869e-07
5.628291920458449e-07
5.683205125507604e-07
5.736110791506363e-07
5.786921318055911e-07
5.835580446122141e-07
5.882057562821781e-07
5.926342945263452e-07
5.968443789939352e-07
6.008380900993124e-07
6.046185934085108e-07
6.081899092550084e-07
6.115567233889134e-07
6.147242273794402e-07
6.176979888361958e-07
6.204838449270223e-07
6.230878097829789e-07
6.255160020039749e-07
6.277745874868748e-07
6.29869727620358e-07
6.318075391758971e-07
6.335940653427089e-07
6.352352478977642e-07
6.367369059350393e-07
6.381047235492361e-07
6.393442379851793e-07
6.404608285371394e-07
6.414597112160447e-07
6.423459365443181e-07
6.431243866837478e-07
6.437997734305375e-07
6.44376639628561e-07
6.448593619720308e-07
6.452521529795619e-07
6.455590628222244e-07
6.457839829930706e-07
6.459306510689911e-07
6.460026545275036e-07
6.460034346085512e-07
6.459362906270423e-07
6.458043850821471e-07
6.456107485916513e-07
6.453582843330226e-07
6.450497723544601e-07
6.446878739621158e-07
6.442751364380118e-07
6.438139977945528e-07
6.433067910043225e-07
6.42755747697248e-07
6.421630022391472e-07
6.415305963058902e-07
6.408604830155957e-07
6.401545302030324e-07
6.39414523676679e-07
6.386421711040977e-07
6.378391057465776e-07
6.370068894562502e-07
6.361470156824522e-07
6.352609129359212e-07
6.343499477187621e-07
6.334154267301535e-07
6.324585993975277e-07
6.314806612024568e-07
6.304827553331131e-07
6.29465974499281e-07
6.284313611682781e-07
6.273799121728057e-07
6.26312571065572e-07
6.252302394131231e-07
6.24133748347166e-07
6.230239077588014e-07
6.219013885778299e-07
6.207669336102832e-07
6.196209018436101e-07
6.184641650288652e-07
6.172962119407044e-07
6.161192473274989e-07
6.149287600292754e-07
6.137377281266061e-07
6.125077881241873e-07
6.113319623269874e-07
5.182496844487557e-07
5.094267534381166e-07
5.025570420869238e-07
4.984645727429421e-07
4.962336859931709e-07
4.958545393595963e-07
4.96896836456501e-07
4.991764139796538e-07
5.02426112969648e-07
5.064623032387386e-07
5.110999665629971e-07
5.161934696681893e-07
5.216127255637446e-07
5.272517100348746e-07
5.330204156009404e-07
5.388453166099673e-07
5.446657373310535e-07
5.504326227588562e-07
5.561064240892814e-07
5.616557649613658e-07
5.670560446134408e-07
5.722883672145406e-07
5.773385591698821e-07
5.821963755991701e-07
5.868548183026426e-07
5.913095637337534e-07
5.955584782197602e-07
5.996012153253136e-07
6.034388812491952e-07
6.070737516618849e-07
6.105090321163368e-07
6.137486635578039e-07
6.167971586257976e-07
6.196594646424514e-07
6.223408504967165e-07
6.248468106948765e-07
6.271829893444111e-07
6.293551176615589e-07
6.313689578810624e-07
6.332302607548753e-07
6.349447339650159e-07
6.365180110590936e-07
6.379556272123527e-07
6.39263005100724e-07
6.404454414905647e-07
6.415080939291714e-07
6.424559734898002e-07
6.432939414476309e-07
6.440267050461463e-07
6.446588140247595e-07
6.451946610758326e-07
6.456384838265439e-07
6.459943657571586e-07
6.462662370992709e-07
6.464578778218426e-07
6.4657292177567e-07
6.46614859916069e-07
6.465870436009651e-07
6.464926883164035e-07
6.463348782362738e-07
6.461165708153638e-07
6.458406009571099e-07
6.455096848956467e-07
6.451264241636225e-07
6.446933100600211e-07
6.442127281815029e-07
6.436869623408979e-07
6.431181979992462e-07
6.42508526176427e-07
6.41859947853038e-07
6.411743778808807e-07
6.404536480444477e-07
6.39699510177496e-07
6.389136399070445e-07
6.380976401669677e-07
6.372530439646846e-07
6.363813172192533e-07
6.354838621163657e-07
6.345620198293719e-07
6.33617072494969e-07
6.326502453736758e-07
6.316627100854411e-07
6.306555856880828e-07
6.296299406442764e-07
6.285867916462606e-07
6.275271098281858e-07
6.264518095679264e-07
6.253617663267061e-07
6.242577778527699e-07
6.231406362276659e-07
6.220109766755838e-07
6.20869560551704e-07
6.197167094436187e-07
6.185534258483173e-07
6.173791286966751e-07
6.16196471576161e-07
6.150005219285062e-07
6.138060217045924e-07
6.125705316397005e-07
6.11398678709391e-07
5.330582995167977e-07
5.236156043279226e-07
5.160631078286227e-07
5.112825863951268e-07
5.083477440954342e-07
5.072722671990162e-07
5.076289825713646e-07
5.092447551420822e-07
5.118563718021327e-07
5.152850278806082e-07
5.193476048995203e-07
5.238998188414825e-07
5.288115904707646e-07
5.339763583437889e-07
5.393029640960851e-07
5.447164383059325e-07
5.501544331457243e-07
5.555661219397302e-07
5.609101472971846e-07
5.661533540200727e-07
5.712694155998487e-07
5.762377884885017e-07
5.810427469723114e-07
5.856725960053666e-07
5.901189874918619e-07
5.943763480880975e-07
5.984413934853739e-07
6.023127195876349e-07
6.059904600307446e-07
6.094759987146157e-07
6.127717258813512e-07
6.158808359393539e-07
6.188071569205133e-07
6.215550095690948e-07
6.241290900137978e-07
6.26534368006569e-07
6.287760060102698e-07
6.308592936155028e-07
6.327895883131946e-07
6.345722692536982e-07
6.362127021515745e-07
6.377162059556038e-07
6.390880265470315e-07
6.403333200132815e-07
6.414571371174472e-07
6.424644085526039e-07
6.433599358711401e-07
6.441483863893467e-07
6.448342878368386e-07
6.454220238666446e-07
6.459158332450677e-07
6.463198106978213e-07
6.466379069648512e-07
6.468739289184866e-07
6.47031541815293e-07
6.471142728108155e-07
6.471255134942694e-07
6.470685224846713e-07
6.469464287039777e-07
6.467622355808073e-07
6.465188251660934e-07
6.462189618137285e-07
6.458652957215132e-07
6.454603666240681e-07
6.450066079278556e-07
6.445063509412937e-07
6.43961828545894e-07
6.433751783870353e-07
6.427484465332449e-07
6.420835916547474e-07
6.413824887472751e-07
6.406469320013217e-07
6.398786377391011e-07
6.390792480254337e-07
6.382503340420489e-07
6.373933986404182e-07
6.365098789479787e-07
6.356011495638465e-07
6.346685250786433e-07
6.337132618437381e-07
6.327365598725339e-07
6.317395660127385e-07
6.307233746456993e-07
6.29689029905925e-07
6.286375238812426e-07
6.275698041614715e-07
6.264867608845612e-07
6.253892492786867e-07
6.242780449015385e-07
6.231539305312198e-07
6.220175251888747e-07
6.208696129412145e-07
6.197105058105376e-07
6.185413084690448e-07
6.173613943720277e-07
6.161737419941894e-07
6.14972990283066e-07
6.137753515459152e-07
6.125343111167347e-07
6.113656557691721e-07
5.478345373944026e-07
5.377765763520068e-07
5.295478723266881e-07
5.240870901455582e-07
5.2045631351402e-07
5.186920378709555e-07
5.183696727323648e-07
5.19326794819095e-07
5.21303982766036e-07
5.241272515852996e-07
5.276154745165535e-07
5.316258690933159e-07
5.360285389199891e-07
5.407165721184682e-07
5.455978442862891e-07
5.505961042410009e-07
5.556474728652298e-07
5.606994818806413e-07
5.657090713062796e-07
5.706413882415249e-07
5.75468449753131e-07
5.801681227958641e-07
5.847231713477448e-07
5.8912048025841e-07
5.933503770966639e-07
5.974060584060569e-07
6.01283099791507e-07
6.049790453246215e-07
6.084930618371342e-07
6.118256443415763e-07
6.149783657177268e-07
6.179536705888987e-07
6.207547001594486e-07
6.233851451315896e-07
6.258491231154106e-07
6.281510731308863e-07
6.302956708869484e-07
6.322877591163087e-07
6.341322844789508e-07
6.358342483561766e-07
6.373986690094412e-07
6.388305453565619e-07
6.401348283411609e-07
6.413164023156651e-07
6.423800672354686e-07
6.433305218798047e-07
6.441723533697253e-07
6.449100307263444e-07
6.455478980929477e-07
6.460901689671459e-07
6.465409242401261e-07
6.469041119712963e-07
6.471835466097031e-07
6.473829084357734e-07
6.475057449531924e-07
6.475554735466584e-07
6.47535383447333e-07
6.474486378457142e-07
6.472982766077515e-07
6.470872199298692e-07
6.468182720650639e-07
6.464941246387493e-07
6.461173597426645e-07
6.456904532561138e-07
6.452157787054994e-07
6.446956112504379e-07
6.44132131080947e-07
6.435274263330411e-07
6.428834964996269e-07
6.42202256408467e-07
6.414855397541749e-07
6.40735101758444e-07
6.399526218769051e-07
6.391397071963457e-07
6.382978956794049e-07
6.374286586344069e-07
6.365334031698358e-07
6.35613475192618e-07
6.346701617417194e-07
6.337046926323e-07
6.327182421762112e-07
6.317119323386458e-07
6.306868332428543e-07
6.296439656204872e-07
6.285842985651282e-07
6.27508758366995e-07
6.264182143023222e-07
6.253135053284531e-07
6.241953905557441e-07
6.230646485984328e-07
6.219218878594457e-07
6.20767915553088e-07
6.196030321070201e-07
6.184284291248084e-07
6.172434102104451e-07
6.160512328196633e-07
6.148460511773824e-07
6.136454645525709e-07
6.123989159595039e-07
6.11233033662712e-07
5.625747771705716e-07
5.519059412040683e-07
5.430073716670337e-07
5.368738213401251e-07
5.325548647462327e-07
5.301091406120225e-07
5.291141269849045e-07
5.294177967407089e-07
5.307643624894118e-07
5.329846345828762e-07
5.358995402913636e-07
5.393679277948603e-07
5.43260246417926e-07
5.474694016084967e-07
5.51902467293378e-07
5.564820723044842e-07
5.611429456964952e-07
5.65831095261545e-07
5.705018630033774e-07
5.751187865493336e-07
5.796522948336647e-07
5.840787194649695e-07
5.883793602347888e-07
5.925397182733262e-07
5.965488211307709e-07
6.003986528693641e-07
6.040836644779434e-07
6.076003587440421e-07
6.109469399507775e-07
6.141230160935457e-07
6.171293442968778e-07
6.199676190090545e-07
6.226402915554281e-07
6.251504186079043e-07
6.275015353524469e-07
6.296975457821724e-07
6.317426337081774e-07
6.336411895808373e-07
6.353977440526393e-07
6.370169152913254e-07
6.385033684793186e-07
6.398617774448498e-07
6.410967933555317e-07
6.422130236319257e-07
6.432150123221232e-07
6.441072216645707e-07
6.448940199681668e-07
6.455796736863383e-07
6.461683392578495e-07
6.466640559910016e-07
6.470707430062318e-07
6.473921981580458e-07
6.476320963246255e-07
6.477939879064456e-07
6.478812994341633e-07
6.478973355707711e-07
6.478452804325561e-07
6.477281990684867e-07
6.475490397074113e-07
6.473106369450326e-07
6.470157149526232e-07
6.466668903652088e-07
6.462666750359414e-07
6.458174790424782e-07
6.453216141966565e-07
6.447812976955145e-07
6.441986552433678e-07
6.435757237481506e-07
6.429144544874002e-07
6.422167168559899e-07
6.414843017148832e-07
6.407189238870385e-07
6.399222246806893e-07
6.390957750674623e-07
6.382410786953083e-07
6.373595742037846e-07
6.364526375991532e-07
6.355215851381666e-07
6.345676754590713e-07
6.33592111135372e-07
6.325960403336709e-07
6.315805600047815e-07
6.305467162776302e-07
6.29495507272895e-07
6.284278805586444e-07
6.273447431286483e-07
6.262469461854152e-07
6.251353149603719e-07
6.240105949499429e-07
6.228735621990832e-07
6.217248159828863e-07
6.205651826297229e-07
6.193949469785191e-07
6.182153693724043e-07
6.17025669583488e-07
6.158293455366289e-07
6.146200503732009e-07
6.134167038476371e-07
6.121648168885615e-07
6.110015108584526e-07
5.772754201301781e-07
5.66000012119232e-07
5.564377125601199e-07
5.496386211430838e-07
5.446390025537642e-07
5.415190123840555e-07
5.398577169840395e-07
5.395131753207965e-07
5.402330636055339e-07
5.418529484993329e-07
5.441958602079542e-07
5.471223806722966e-07
5.50503443770198e-07
5.542319329078227e-07
5.582142742881721e-07
5.62372121493427e-07
5.666389482156394e-07
5.709593584254927e-07
5.752871951804459e-07
5.795844699086089e-07
5.838200957645019e-07
5.879689282975568e-07
5.920108471233873e-07
5.959300041261863e-07
5.997141562551722e-07
6.033540972646851e-07
6.068431677052473e-07
6.101768390070033e-07
6.13352360659743e-07
6.163684583798313e-07
6.192250750593407e-07
6.219231545364767e-07
6.244644567918363e-07
6.268514020249367e-07
6.290869395107533e-07
6.311744342417651e-07
6.331175739535742e-07
6.349202918817931e-07
6.365866973857319e-07
6.381210206530213e-07
6.39527569140597e-07
6.408106865364522e-07
6.419747191748829e-07
6.430239927372702e-07
6.439627907224445e-07
6.447953344151414e-07
6.455257691195867e-07
6.461581545054142e-07
6.466964551098767e-07
6.471445322048536e-07
6.475061396105191e-07
6.477849214845032e-07
6.479844097108341e-07
6.481080216325747e-07
6.481590598061594e-07
6.481407132091403e-07
6.48056058022359e-07
6.47908058573305e-07
6.476995690022744e-07
6.474333358955789e-07
6.471120010241627e-07
6.467381038398046e-07
6.463140838748084e-07
6.458422834181143e-07
6.45324950683738e-07
6.447642431367051e-07
6.441622303178918e-07
6.435208963087351e-07
6.428421426604947e-07
6.421277918822761e-07
6.413795905470778e-07
6.40599211609592e-07
6.397882567885845e-07
6.389482596219031e-07
6.380806883416496e-07
6.371869479957681e-07
6.362683826286533e-07
6.353262780662082e-07
6.343618639715701e-07
6.333763152876971e-07
6.323707538209754e-07
6.313462515041768e-07
6.303038307509849e-07
6.29244467517438e-07
6.281690885841054e-07
6.27078582418848e-07
6.259737831873809e-07
6.248555035706411e-07
6.237244761317485e-07
6.225814736245604e-07
6.214270849920904e-07
6.202621504326863e-07
6.190869330216266e-07
6.17902750432354e-07
6.167087254750457e-07
6.155085788801001e-07
6.14295453935166e-07
6.130895552048573e-07
6.118325793540912e-07
6.106717881837404e-07
5.919328716250363e-07
5.800551289356211e-07
5.698350637561825e-07
5.623774255818376e-07
5.56704453508369e-07
5.529172310758212e-07
5.505959581699099e-07
5.49608479628388e-07
5.497057650121358e-07
5.507280773216205e-07
5.52500580304792e-07
5.54885682175193e-07
5.577549199821097e-07
5.610012941172389e-07
5.64530730381247e-07
5.68264048412478e-07
5.721335922009999e-07
5.760826741042165e-07
5.80063739430664e-07
5.840373598437048e-07
5.879710015543373e-07
5.918381006001846e-07
5.95617164796517e-07
5.99291035334489e-07
6.028462271730565e-07
6.062723656862e-07
6.095616981079874e-07
6.127086770830307e-07
6.157096057515167e-07
6.185623328999125e-07
6.21265990132394e-07
6.238207715016961e-07
6.262277448334502e-07
6.284886922996628e-07
6.306059750562718e-07
6.325824155343696e-07
6.344212010740443e-07
6.361258035990448e-07
6.376999070184193e-07
6.391473489779912e-07
6.40472074542215e-07
6.41678092553497e-07
6.427694397844178e-07
6.437501556926106e-07
6.44624259003777e-07
6.453957257617091e-07
6.460684739298148e-07
6.466463523465633e-07
6.471331298772874e-07
6.475324860293654e-07
6.478480056965453e-07
6.480831759796713e-07
6.482413825631886e-07
6.483259065326267e-07
6.48339923411062e-07
6.48286503693033e-07
6.481686129776038e-07
6.479891122710481e-07
6.477507591073849e-07
6.474562096919773e-07
6.471080211891369e-07
6.467086537827087e-07
6.462604726605099e-07
6.457657503363807e-07
6.452266695034219e-07
6.446453260791105e-07
6.440237317377841e-07
6.433638160962917e-07
6.426674294094234e-07
6.419363458790463e-07
6.41172266539434e-07
6.403768213061848e-07
6.395515711275099e-07
6.386980109101627e-07
6.378175723109841e-07
6.369116257445685e-07
6.359814824068673e-07
6.350283969378745e-07
6.340535693921936e-07
6.330581466307453e-07
6.320432238319308e-07
6.310098478735881e-07
6.299590176030603e-07
6.288916870457468e-07
6.278087626655596e-07
6.267111149486107e-07
6.255995611860363e-07
6.24474900963984e-07
6.233378540174093e-07
6.221891872532057e-07
6.210294773107538e-07
6.198595735977324e-07
6.186797118228835e-07
6.174912589558801e-07
6.162932333012907e-07
6.150895675811732e-07
6.13872896090515e-07
6.126646771182238e-07
6.114029141888374e-07
6.102446483645314e-07
6.06543557152604e-07
5.940676669383857e-07
5.831956563845751e-07
5.750862640952594e-07
5.687470553385327e-07
5.642994990189586e-07
5.613244996122051e-07
5.596993882819889e-07
5.591782595744492e-07
5.596060077329717e-07
5.608099382555906e-07
5.626543566504169e-07
5.650115124523475e-07
5.677746522303544e-07
5.708493329130936e-07
5.741556685708213e-07
5.77624996991034e-07
5.811994510752068e-07
5.848301740633614e-07
5.884763800787379e-07
5.921041595517763e-07
5.95685588187023e-07
5.991978498457673e-07
6.026225136339245e-07
6.059448832097626e-07
6.09153439419577e-07
6.122393544885349e-07
6.151960762344932e-07
6.180189714315232e-07
6.207050182126155e-07
6.23252540462641e-07