/*--------------------------------*- C++ -*----------------------------------*\
| =========                 |                                                 |
| \\      /  F ield         | foam-extend: Open Source CFD                    |
|  \\    /   O peration     | Version:     4.1                                |
|   \\  /    A nd           | Web:         http://www.foam-extend.org         |
|    \\/     M anipulation  |                                                 |
\*---------------------------------------------------------------------------*/
FoamFile
{
    version     2.0;
    format      ascii;
    class       volSymmTensorField;
    location    "10";
    object      epsilon;
}
// * * * * * * * * * * * * * * * * * * * * * * * * * * * * * * * * * * * * * //

dimensions      [0 0 0 0 0 0 0];

internalField   nonuniform List<symmTensor> 
1000
(
(3.26054e-06 -3.522e-06 -1.74636e-21 1.76766e-08 -3.31572e-21 -6.88072e-36)
(5.09217e-06 -2.73441e-06 9.87324e-21 -1.95402e-06 2.13601e-21 0)
(5.96367e-06 -2.17038e-06 -1.07325e-20 -2.86225e-06 -7.65584e-21 0)
(6.4756e-06 -1.77253e-06 -4.11474e-21 -3.44056e-06 -9.4666e-22 0)
(6.72471e-06 -1.4698e-06 -6.90665e-22 -3.72292e-06 1.84296e-22 0)
(6.83027e-06 -1.24247e-06 4.33245e-21 -3.8663e-06 2.76254e-21 0)
(6.84847e-06 -1.06184e-06 -7.75546e-21 -3.90869e-06 -4.35712e-21 0)
(6.80957e-06 -9.21478e-07 1.69958e-21 -3.89495e-06 1.01969e-21 0)
(6.7518e-06 -8.03053e-07 -3.10474e-21 -3.84907e-06 -1.82558e-21 0)
(6.65047e-06 -7.01562e-07 -3.83257e-21 -3.78258e-06 -2.41336e-21 0)
(4.46565e-06 -4.23246e-06 4.90242e-21 -2.52998e-07 -2.87097e-21 1.89466e-36)
(5.95123e-06 -2.91121e-06 -9.91419e-21 -2.05759e-06 -2.62423e-21 0)
(6.60666e-06 -2.05605e-06 -9.16663e-21 -2.85942e-06 -2.45733e-21 0)
(6.9636e-06 -1.49184e-06 -7.14339e-21 -3.38504e-06 -4.91931e-21 0)
(7.10529e-06 -1.09777e-06 -1.56255e-21 -3.63468e-06 -1.39283e-21 0)
(7.13193e-06 -8.25009e-07 6.21293e-21 -3.76508e-06 3.65281e-21 0)
(7.09088e-06 -6.25452e-07 -7.2681e-21 -3.80098e-06 -4.96631e-21 0)
(7.0092e-06 -4.84697e-07 2.94764e-21 -3.79127e-06 2.49421e-21 0)
(6.90696e-06 -3.74145e-07 -5.48999e-21 -3.74002e-06 -4.25747e-21 0)
(6.78918e-06 -2.95279e-07 -2.0301e-21 -3.69485e-06 -2.27014e-21 0)
(5.86624e-06 -4.75031e-06 6.05402e-21 -7.54282e-07 3.69541e-22 -1.16081e-36)
(6.85279e-06 -2.98939e-06 -7.74318e-21 -2.23193e-06 -3.37796e-21 0)
(7.20862e-06 -1.89815e-06 7.09927e-21 -2.83954e-06 3.19909e-21 0)
(7.36328e-06 -1.20118e-06 -6.40787e-21 -3.26113e-06 -3.07886e-21 0)
(7.37162e-06 -7.36702e-07 -1.56518e-21 -3.44889e-06 -1.1837e-21 0)
(7.30584e-06 -4.31108e-07 -5.97661e-21 -3.55011e-06 -3.49626e-21 0)
(7.20012e-06 -2.20492e-07 1.10088e-26 -3.57129e-06 -2.97709e-26 0)
(7.07212e-06 -8.19513e-08 -2.05717e-23 -3.56084e-06 2.72952e-23 0)
(6.9335e-06 1.81453e-08 -4.22972e-22 -3.50918e-06 -2.00663e-21 0)
(6.78987e-06 9.09688e-08 6.56559e-22 -3.47644e-06 -4.97789e-22 0)
(7.39222e-06 -5.01408e-06 2.09211e-20 -1.438e-06 -4.16756e-21 4.49699e-35)
(7.76366e-06 -2.95196e-06 4.44674e-21 -2.46188e-06 3.31517e-21 0)
(7.75744e-06 -1.70408e-06 3.33992e-21 -2.80636e-06 3.0948e-21 0)
(7.6757e-06 -9.2179e-07 1.93928e-21 -3.08372e-06 1.35042e-21 0)
(7.53276e-06 -4.15275e-07 1.40104e-20 -3.18757e-06 8.38628e-21 0)
(7.36691e-06 -9.25988e-08 -1.05412e-22 -3.24795e-06 -2.42203e-22 0)
(7.19411e-06 1.20266e-07 -5.01838e-23 -3.24969e-06 2.36264e-22 0)
(7.02206e-06 2.53786e-07 -1.32817e-22 -3.23663e-06 2.35447e-22 0)
(6.85129e-06 3.42032e-07 3.05104e-21 -3.1883e-06 1.51421e-21 0)
(6.69006e-06 4.06617e-07 -2.86869e-22 -3.16676e-06 -6.128e-22 0)
(8.95691e-06 -4.98183e-06 -1.57904e-20 -2.23795e-06 4.05038e-22 -4.76994e-43)
(8.64595e-06 -2.78894e-06 7.16703e-21 -2.72596e-06 2.91879e-21 0)
(8.24281e-06 -1.48121e-06 5.89213e-21 -2.76337e-06 2.8741e-21 0)
(7.9071e-06 -6.71025e-07 6.13151e-21 -2.87041e-06 3.17047e-21 0)
(7.60497e-06 -1.56343e-07 -3.68396e-21 -2.87617e-06 -1.95313e-21 0)
(7.33691e-06 1.64419e-07 5.26354e-21 -2.88805e-06 2.37568e-21 0)
(7.09871e-06 3.69239e-07 1.66378e-21 -2.86761e-06 1.00451e-21 0)
(6.88555e-06 4.93345e-07 -3.24601e-21 -2.85089e-06 -1.19662e-21 0)
(6.68916e-06 5.68394e-07 7.5012e-21 -2.80929e-06 2.9022e-21 0)
(6.51393e-06 6.24084e-07 6.99421e-22 -2.7985e-06 -8.5159e-23 0)
(1.04642e-05 -4.63572e-06 -2.29073e-22 -3.07675e-06 -1.7964e-24 1.03045e-38)
(9.46018e-06 -2.49862e-06 -1.86995e-21 -2.99989e-06 -5.6634e-22 0)
(8.65703e-06 -1.23631e-06 9.24914e-21 -2.71594e-06 3.99433e-21 0)
(8.0688e-06 -4.60345e-07 2.42429e-21 -2.64359e-06 7.23281e-22 0)
(7.61051e-06 2.62498e-08 -3.44262e-21 -2.54674e-06 -1.3567e-21 0)
(7.24439e-06 3.2497e-07 -8.74231e-21 -2.50743e-06 -4.26988e-21 0)
(6.94532e-06 5.11093e-07 7.20154e-23 -2.46412e-06 -1.19907e-21 0)
(6.69548e-06 6.21045e-07 -4.63529e-22 -2.44305e-06 1.50626e-21 0)
(6.47856e-06 6.82011e-07 2.38416e-21 -2.40982e-06 1.83075e-21 0)
(6.29285e-06 7.28082e-07 6.1193e-21 -2.40846e-06 2.50988e-21 0)
(1.18162e-05 -3.98436e-06 5.95899e-21 -3.87308e-06 -7.74462e-22 -1.84147e-36)
(1.01674e-05 -2.0884e-06 -3.24718e-21 -3.25803e-06 4.60573e-22 0)
(8.99401e-06 -9.75616e-07 2.72416e-21 -2.66935e-06 2.0184e-21 0)
(8.1742e-06 -2.95136e-07 8.42833e-22 -2.42624e-06 -5.93227e-22 0)
(7.57414e-06 1.27808e-07 4.89202e-21 -2.23215e-06 9.1753e-22 0)
(7.12031e-06 3.84769e-07 -1.87554e-22 -2.14409e-06 -7.92237e-22 0)
(6.76817e-06 5.42001e-07 1.45892e-21 -2.07937e-06 2.36515e-21 0)
(6.48714e-06 6.33241e-07 5.08112e-21 -2.05387e-06 4.02768e-21 0)
(6.25466e-06 6.80002e-07 -2.43068e-21 -2.0295e-06 -1.21529e-21 0)
(6.06088e-06 7.16281e-07 6.98983e-22 -2.03583e-06 -1.29369e-21 0)
(1.29221e-05 -3.0625e-06 0 -4.54969e-06 0 0)
(1.07326e-05 -1.57409e-06 1.56902e-20 -3.47641e-06 4.75296e-21 0)
(9.25011e-06 -7.04097e-07 -1.65502e-20 -2.62908e-06 -4.53422e-21 0)
(8.23805e-06 -1.73866e-07 -6.27656e-22 -2.24065e-06 -1.03666e-21 0)
(7.52106e-06 1.53748e-07 -1.57674e-21 -1.96403e-06 1.64469e-22 0)
(6.99565e-06 3.51425e-07 8.19192e-21 -1.83444e-06 3.06783e-21 0)
(6.60092e-06 4.70843e-07 2.88142e-21 -1.7517e-06 1.1093e-21 0)
(6.29532e-06 5.39315e-07 -3.9736e-21 -1.72221e-06 -7.3942e-22 0)
(6.05172e-06 5.722e-07 1.68221e-22 -1.70588e-06 -7.08595e-22 0)
(5.85207e-06 5.98437e-07 -1.89984e-21 -1.71798e-06 -1.55657e-21 0)
(1.37052e-05 -1.92877e-06 1.07252e-20 -5.04102e-06 1.09141e-21 4.95024e-36)
(1.11266e-05 -9.79702e-07 -8.81254e-22 -3.63469e-06 -1.76592e-21 0)
(9.42188e-06 -4.25966e-07 -5.50932e-21 -2.59964e-06 -1.10044e-21 0)
(8.27218e-06 -8.9049e-08 4.59563e-21 -2.10558e-06 1.46074e-21 0)
(7.47185e-06 1.18391e-07 -1.84707e-21 -1.76906e-06 -4.23156e-22 0)
(6.89577e-06 2.43058e-07 -4.71689e-21 -1.60927e-06 -6.77187e-22 0)
(6.47128e-06 3.17771e-07 3.04188e-24 -1.51353e-06 -1.11594e-21 0)
(6.14871e-06 3.60308e-07 -5.55944e-23 -1.48105e-06 6.6735e-22 0)
(5.89803e-06 3.79851e-07 -5.03356e-23 -1.47084e-06 3.64198e-22 0)
(5.69456e-06 3.95799e-07 -1.93402e-21 -1.48684e-06 -1.22328e-21 0)
(1.41096e-05 -6.59136e-07 -9.01926e-21 -5.2975e-06 1.60534e-21 2.94382e-36)
(1.13279e-05 -3.3332e-07 -7.32077e-21 -3.71445e-06 -2.46e-21 0)
(9.50675e-06 -1.43094e-07 5.60105e-21 -2.57895e-06 1.79567e-21 0)
(8.28497e-06 -2.73343e-08 -8.75105e-21 -2.02831e-06 -1.13268e-21 0)
(7.44102e-06 4.38692e-08 3.53181e-21 -1.65966e-06 -1.09862e-21 0)
(6.83854e-06 8.66133e-08 -1.54757e-21 -1.48369e-06 2.36165e-22 0)
(6.39866e-06 1.12151e-07 -3.04639e-25 -1.38103e-06 1.13473e-21 0)
(6.06741e-06 1.26659e-07 -1.24818e-21 -1.34702e-06 6.74393e-22 0)
(5.81332e-06 1.33197e-07 -4.37763e-21 -1.34019e-06 -1.83493e-21 0)
(5.60811e-06 1.38597e-07 2.16846e-21 -1.35847e-06 1.61093e-22 0)
(1.91376e-06 1.73127e-07 -1.24072e-21 -5.16598e-06 5.61643e-21 -7.06213e-36)
(1.27982e-06 -7.73981e-08 1.84486e-21 -3.41614e-06 2.6411e-21 0)
(9.77288e-07 -2.05092e-07 2.43524e-23 -2.38075e-06 -1.18978e-21 0)
(1.03339e-06 -2.73359e-07 -9.78025e-23 -1.78706e-06 8.43543e-22 0)
(1.18022e-06 -3.05198e-07 -1.11084e-21 -1.4447e-06 -7.66853e-22 0)
(1.41039e-06 -3.16385e-07 1.47056e-21 -1.2529e-06 6.06751e-22 0)
(1.65079e-06 -3.15555e-07 2.06079e-22 -1.15141e-06 2.46856e-22 0)
(1.90034e-06 -3.0831e-07 -2.72347e-22 -1.103e-06 4.51679e-22 0)
(2.13387e-06 -2.95994e-07 1.46468e-21 -1.08766e-06 3.95891e-22 0)
(2.35708e-06 -2.8702e-07 -1.36026e-22 -1.08324e-06 -1.95763e-22 0)
(1.81198e-06 4.81463e-07 6.8599e-23 -4.91237e-06 2.45477e-22 -4.08901e-38)
(1.33093e-06 -2.42844e-07 -3.24418e-21 -3.34238e-06 -4.6442e-21 0)
(1.1105e-06 -6.10011e-07 2.47303e-21 -2.40482e-06 2.43758e-21 0)
(1.2079e-06 -8.04995e-07 1.79542e-21 -1.86847e-06 1.29959e-21 0)
(1.37419e-06 -8.9513e-07 -4.57197e-22 -1.55743e-06 -5.95221e-22 0)
(1.61007e-06 -9.25798e-07 -4.89472e-21 -1.38198e-06 -1.80721e-21 0)
(1.84854e-06 -9.22061e-07 -8.0787e-23 -1.28743e-06 -6.83383e-25 0)
(2.09225e-06 -8.99888e-07 -8.26274e-22 -1.24071e-06 -5.02667e-22 0)
(2.31579e-06 -8.63387e-07 5.18343e-22 -1.22256e-06 -2.51874e-23 0)
(2.53202e-06 -8.3656e-07 1.28629e-21 -1.21541e-06 -1.05572e-22 0)
(1.61964e-06 6.87448e-07 -1.00502e-21 -4.42441e-06 -4.65222e-21 -2.82278e-36)
(1.42596e-06 -4.30675e-07 -2.47368e-21 -3.19929e-06 -2.17581e-21 0)
(1.35463e-06 -9.94172e-07 3.85084e-21 -2.44615e-06 1.00841e-21 0)
(1.52763e-06 -1.29105e-06 8.32177e-22 -2.0181e-06 9.36528e-22 0)
(1.72883e-06 -1.42621e-06 2.25487e-21 -1.76594e-06 1.05886e-21 0)
(1.97466e-06 -1.46972e-06 -2.1968e-21 -1.62139e-06 -1.09856e-21 0)
(2.20908e-06 -1.46059e-06 -3.56046e-21 -1.53998e-06 -1.02311e-21 0)
(2.44171e-06 -1.42302e-06 -1.21294e-21 -1.49657e-06 -2.74427e-22 0)
(2.64647e-06 -1.36421e-06 6.12482e-23 -1.47335e-06 -5.12478e-24 0)
(2.84998e-06 -1.32015e-06 1.74886e-21 -1.46139e-06 7.82022e-22 0)
(1.38309e-06 7.39082e-07 -3.61047e-21 -3.75248e-06 -5.12144e-23 1.66873e-35)
(1.58001e-06 -6.48653e-07 1.63534e-21 -3.00242e-06 -2.23996e-21 0)
(1.71006e-06 -1.34201e-06 -9.77048e-21 -2.5025e-06 -7.48807e-21 0)
(1.98414e-06 -1.70345e-06 -2.20746e-21 -2.22349e-06 1.44795e-22 0)
(2.23108e-06 -1.86357e-06 -1.34012e-22 -2.05224e-06 2.87882e-22 0)
(2.4887e-06 -1.91008e-06 2.89996e-21 -1.95022e-06 1.30492e-21 0)
(2.71615e-06 -1.89193e-06 -8.00479e-22 -1.88704e-06 -4.29665e-24 0)
(2.93213e-06 -1.83842e-06 2.42961e-21 -1.84817e-06 1.63493e-21 0)
(3.11041e-06 -1.76033e-06 -4.31315e-21 -1.81834e-06 -8.30299e-22 0)
(3.2952e-06 -1.70019e-06 3.88048e-21 -1.79956e-06 5.91526e-22 0)
(1.15752e-06 5.98671e-07 9.75653e-22 -2.96394e-06 -3.54641e-21 -7.31479e-37)
(1.80365e-06 -9.02732e-07 8.15077e-21 -2.77227e-06 7.51288e-21 0)
(2.16388e-06 -1.64236e-06 -7.7627e-21 -2.56964e-06 -5.2035e-21 0)
(2.55134e-06 -2.02129e-06 -3.6302e-21 -2.46604e-06 -1.96567e-21 0)
(2.84793e-06 -2.1812e-06 3.20181e-21 -2.38989e-06 1.35197e-21 0)
(3.1159e-06 -2.21849e-06 4.29476e-21 -2.33798e-06 1.76478e-21 0)
(3.33256e-06 -2.1869e-06 2.44198e-21 -2.29639e-06 1.58332e-21 0)
(3.52638e-06 -2.11707e-06 4.31232e-21 -2.26281e-06 1.31472e-21 0)
(3.67223e-06 -2.02346e-06 -9.55812e-22 -2.22571e-06 -1.055e-21 0)
(3.83245e-06 -1.94905e-06 -5.88601e-21 -2.19839e-06 -5.87484e-22 0)
(1.00643e-06 2.51067e-07 -9.53754e-23 -2.13663e-06 2.33746e-22 -1.55795e-39)
(2.10845e-06 -1.19249e-06 5.12378e-21 -2.53166e-06 2.56828e-21 0)
(2.6998e-06 -1.88655e-06 4.15851e-21 -2.64054e-06 3.74396e-21 0)
(3.19749e-06 -2.23132e-06 -2.0408e-21 -2.72161e-06 -1.36982e-21 0)
(3.53951e-06 -2.36354e-06 -3.74107e-21 -2.74543e-06 -1.65321e-21 0)
(3.81262e-06 -2.37842e-06 -2.36066e-21 -2.74641e-06 -9.42786e-22 0)
(4.01362e-06 -2.32866e-06 3.80833e-21 -2.72795e-06 1.94366e-21 0)
(4.17987e-06 -2.24239e-06 -4.56248e-21 -2.69991e-06 -2.44924e-21 0)
(4.28937e-06 -2.13721e-06 7.57858e-21 -2.65617e-06 2.30331e-21 0)
(4.41965e-06 -2.05089e-06 2.5862e-22 -2.61925e-06 -1.04761e-21 0)
(9.94533e-07 -2.94729e-07 4.46514e-21 -1.35264e-06 -8.18822e-21 -4.79385e-37)
(2.50549e-06 -1.51123e-06 -1.41348e-20 -2.30562e-06 -7.75084e-21 0)
(3.30003e-06 -2.06916e-06 4.82839e-21 -2.7092e-06 3.24389e-21 0)
(3.88885e-06 -2.32903e-06 -4.41632e-22 -2.96626e-06 1.25426e-21 0)
(4.26375e-06 -2.40675e-06 2.08285e-21 -3.08498e-06 9.97077e-22 0)
(4.53296e-06 -2.38671e-06 -8.67487e-22 -3.13656e-06 -3.22641e-22 0)
(4.71246e-06 -2.31452e-06 -5.31296e-21 -3.14042e-06 -2.2459e-21 0)
(4.84612e-06 -2.2124e-06 3.06515e-21 -3.11797e-06 1.35368e-21 0)
(4.91753e-06 -2.09964e-06 -2.78798e-21 -3.06891e-06 -1.22353e-21 0)
(5.01332e-06 -2.00397e-06 5.81243e-21 -3.02269e-06 1.45298e-21 0)
(1.17972e-06 -1.00596e-06 -1.66349e-21 -6.89311e-07 2.3922e-21 7.13723e-38)
(3.00248e-06 -1.84563e-06 -4.61071e-21 -2.11755e-06 -5.4014e-21 0)
(3.9451e-06 -2.18758e-06 -6.779e-21 -2.76954e-06 -6.48785e-21 0)
(4.59078e-06 -2.31797e-06 2.51775e-21 -3.17671e-06 1.23287e-21 0)
(4.97787e-06 -2.31787e-06 6.70989e-21 -3.3758e-06 3.27947e-21 0)
(5.2303e-06 -2.25238e-06 6.11196e-21 -3.47061e-06 2.98198e-21 0)
(5.38129e-06 -2.15445e-06 -9.52336e-22 -3.49423e-06 1.81502e-22 0)
(5.4774e-06 -2.03777e-06 3.50718e-21 -3.47649e-06 1.48753e-21 0)
(5.51136e-06 -1.92096e-06 -3.44921e-21 -3.42597e-06 -2.47611e-21 0)
(5.56841e-06 -1.81829e-06 1.22491e-21 -3.37076e-06 1.18537e-21 0)
(1.60648e-06 -1.82891e-06 4.7963e-21 -2.12223e-07 6.4586e-21 -1.72141e-35)
(3.60292e-06 -2.17673e-06 6.62749e-21 -1.98775e-06 8.47127e-21 0)
(4.61652e-06 -2.24195e-06 7.04851e-21 -2.81709e-06 1.97725e-21 0)
(5.27302e-06 -2.20945e-06 1.02257e-21 -3.33409e-06 -1.06241e-21 0)
(5.64569e-06 -2.11453e-06 2.13075e-22 -3.59074e-06 -3.14688e-22 0)
(5.86622e-06 -1.99696e-06 -1.54334e-22 -3.71742e-06 -4.42994e-23 0)
(5.98128e-06 -1.87185e-06 5.57649e-21 -3.75518e-06 2.94765e-21 0)
(6.03589e-06 -1.74442e-06 -7.44637e-21 -3.74231e-06 -4.82594e-21 0)
(6.03492e-06 -1.62714e-06 6.88156e-21 -3.69179e-06 2.8486e-21 0)
(6.05084e-06 -1.52107e-06 7.40656e-22 -3.63604e-06 3.92443e-22 0)
(2.29952e-06 -2.694e-06 7.18847e-21 3.15564e-08 -1.2011e-20 -1.96101e-35)
(4.3029e-06 -2.48154e-06 7.05253e-21 -1.93066e-06 3.47724e-21 0)
(5.29466e-06 -2.235e-06 9.43066e-21 -2.84838e-06 4.73816e-21 0)
(5.90708e-06 -2.02089e-06 4.53967e-21 -3.42403e-06 3.55658e-21 0)
(6.23329e-06 -1.82235e-06 -7.17055e-21 -3.70926e-06 -3.97924e-21 0)
(6.40353e-06 -1.64962e-06 -6.43443e-21 -3.85191e-06 -3.53046e-21 0)
(6.47221e-06 -1.49771e-06 1.6889e-22 -3.89642e-06 -1.00207e-22 0)
(6.47894e-06 -1.36231e-06 -3.38349e-21 -3.88285e-06 -1.93824e-21 0)
(6.44541e-06 -1.25056e-06 3.51802e-21 -3.8397e-06 3.23565e-21 0)
(6.40651e-06 -1.1448e-06 4.79112e-21 -3.76794e-06 1.09456e-21 0)
(2.56514e-06 -2.6517e-07 7.11418e-22 -1.10643e-06 -2.59587e-24 0)
(2.7483e-06 -2.37138e-07 1.32269e-21 -1.11331e-06 -3.9897e-22 0)
(2.91501e-06 -2.14813e-07 7.12644e-23 -1.1247e-06 -9.348e-25 0)
(3.06729e-06 -1.94233e-07 -1.1297e-21 -1.13277e-06 -6.09842e-22 0)
(3.20336e-06 -1.759e-07 -4.5043e-21 -1.13601e-06 -2.08273e-22 0)
(3.32577e-06 -1.59664e-07 -6.85518e-22 -1.13398e-06 8.21826e-22 0)
(3.43447e-06 -1.45062e-07 3.98603e-21 -1.12508e-06 4.24722e-22 0)
(3.53059e-06 -1.32016e-07 -3.99895e-21 -1.10902e-06 -2.24031e-22 0)
(3.61456e-06 -1.20173e-07 3.54578e-22 -1.08479e-06 1.20071e-21 0)
(3.68686e-06 -1.09375e-07 2.1945e-21 -1.05186e-06 4.08071e-22 0)
(3.74768e-06 -9.9364e-08 3.7295e-22 -1.00931e-06 1.12991e-21 0)
(3.79719e-06 -8.99492e-08 4.34411e-21 -9.56274e-07 4.10887e-22 0)
(3.83489e-06 -8.0913e-08 3.98076e-21 -8.91614e-07 -7.79422e-22 0)
(3.86098e-06 -7.2039e-08 -4.32217e-21 -8.1403e-07 -3.79252e-22 0)
(3.87346e-06 -6.31155e-08 -6.41938e-21 -7.21874e-07 1.1115e-23 0)
(3.87379e-06 -5.38713e-08 3.3993e-21 -6.13252e-07 5.43204e-22 0)
(3.85563e-06 -4.4094e-08 -8.43313e-23 -4.85679e-07 -1.87257e-22 0)
(3.82665e-06 -3.33275e-08 2.36729e-21 -3.36517e-07 4.5689e-22 0)
(3.76566e-06 -2.16362e-08 1.98076e-21 -1.61559e-07 -1.93428e-23 0)
(3.7069e-06 -7.03988e-09 4.94221e-22 4.11454e-08 5.14105e-23 -5.45273e-37)
(2.72081e-06 -7.72905e-07 2.02233e-23 -1.22688e-06 2.22639e-23 0)
(2.87821e-06 -6.92564e-07 -1.90999e-21 -1.21693e-06 -2.12463e-22 0)
(3.02583e-06 -6.28302e-07 9.87392e-22 -1.21433e-06 2.20115e-22 0)
(3.16082e-06 -5.69091e-07 3.16658e-21 -1.21059e-06 1.08071e-21 0)
(3.28289e-06 -5.16113e-07 -1.85079e-21 -1.20351e-06 -6.97465e-24 0)
(3.39314e-06 -4.69161e-07 -2.71079e-21 -1.19289e-06 -8.81909e-22 0)
(3.49178e-06 -4.26787e-07 1.81798e-21 -1.17663e-06 8.71399e-22 0)
(3.57926e-06 -3.88869e-07 4.69356e-22 -1.15443e-06 4.2467e-22 0)
(3.65598e-06 -3.54355e-07 -4.20165e-21 -1.12505e-06 -1.31384e-21 0)
(3.7221e-06 -3.22825e-07 -2.50491e-21 -1.08783e-06 -4.60494e-22 0)
(3.77771e-06 -2.93529e-07 -5.56333e-23 -1.04178e-06 -1.56609e-24 0)
(3.82281e-06 -2.65921e-07 7.68284e-21 -9.85942e-07 6.43231e-22 0)
(3.85682e-06 -2.3937e-07 3.53823e-22 -9.19112e-07 3.51468e-22 0)
(3.87987e-06 -2.13245e-07 -1.79364e-21 -8.39957e-07 3.69787e-22 0)
(3.88989e-06 -1.86926e-07 -3.8981e-22 -7.46812e-07 -4.29691e-22 0)
(3.88831e-06 -1.59613e-07 -4.15677e-22 -6.37784e-07 -3.72473e-22 0)
(3.86881e-06 -1.30685e-07 -1.48495e-21 -5.1042e-07 3.33707e-22 0)
(3.83902e-06 -9.87856e-08 -1.07506e-21 -3.62126e-07 -9.79975e-23 0)
(3.77795e-06 -6.4127e-08 5.98408e-21 -1.88813e-07 8.18171e-22 0)
(3.71961e-06 -2.08644e-08 1.53917e-21 1.1372e-08 3.86943e-22 -5.08584e-36)
(3.0026e-06 -1.22194e-06 1.11352e-21 -1.45129e-06 -2.35935e-22 0)
(3.1133e-06 -1.10068e-06 2.41006e-21 -1.41059e-06 7.43646e-22 0)
(3.22607e-06 -1.00179e-06 -6.15896e-21 -1.38179e-06 -5.31182e-22 0)
(3.32971e-06 -9.1081e-07 6.65345e-22 -1.35628e-06 4.93177e-22 0)
(3.42642e-06 -8.28273e-07 3.38219e-21 -1.32995e-06 -1.91238e-22 0)
(3.51464e-06 -7.54979e-07 -5.20887e-21 -1.30337e-06 -3.20067e-22 0)
(3.59507e-06 -6.8829e-07 -2.77756e-21 -1.2734e-06 -5.10231e-22 0)
(3.66689e-06 -6.28401e-07 6.27119e-21 -1.23974e-06 4.05459e-22 0)
(3.73052e-06 -5.73608e-07 3.55323e-21 -1.20074e-06 -2.97298e-22 0)
(3.78547e-06 -5.23367e-07 -4.64503e-21 -1.15558e-06 -6.12003e-22 0)
(3.83169e-06 -4.7651e-07 -5.31843e-21 -1.10302e-06 -1.05307e-21 0)
(3.86887e-06 -4.32206e-07 2.11539e-21 -1.042e-06 1.28528e-22 0)
(3.89631e-06 -3.89467e-07 3.65547e-21 -9.71198e-07 5.96757e-22 0)
(3.91394e-06 -3.47288e-07 1.26806e-22 -8.89216e-07 -6.01511e-22 0)
(3.91968e-06 -3.04682e-07 2.37344e-22 -7.94366e-07 1.56574e-22 0)
(3.91483e-06 -2.60351e-07 -5.3034e-21 -6.8476e-07 -5.82302e-22 0)
(3.89318e-06 -2.13294e-07 -2.61705e-21 -5.58006e-07 -7.90053e-23 0)
(3.86221e-06 -1.61295e-07 -9.68393e-22 -4.11592e-07 -4.14431e-22 0)
(3.80141e-06 -1.04717e-07 2.05695e-21 -2.41647e-07 3.57377e-22 0)
(3.74414e-06 -3.41092e-08 1.8746e-21 -4.64314e-08 8.17642e-22 -8.1466e-36)
(3.3988e-06 -1.57868e-06 1.17639e-21 -1.76088e-06 3.8747e-22 0)
(3.44536e-06 -1.43457e-06 -1.0776e-21 -1.68075e-06 -1.52467e-23 0)
(3.51041e-06 -1.31236e-06 5.9698e-22 -1.61648e-06 -5.10589e-22 0)
(3.57026e-06 -1.20045e-06 -8.21086e-23 -1.56177e-06 -5.37887e-22 0)
(3.63169e-06 -1.09633e-06 4.21281e-22 -1.50916e-06 -2.42295e-22 0)
(3.68882e-06 -1.00358e-06 -1.49258e-21 -1.46061e-06 -2.97122e-22 0)
(3.74358e-06 -9.18049e-07 -1.87149e-21 -1.41167e-06 -5.57287e-22 0)
(3.79317e-06 -8.40793e-07 -8.78833e-22 -1.36203e-06 -5.0529e-22 0)
(3.83813e-06 -7.69543e-07 3.82574e-22 -1.30954e-06 2.44516e-22 0)
(3.87709e-06 -7.03826e-07 1.63865e-21 -1.25312e-06 9.51932e-22 0)
(3.90983e-06 -6.42178e-07 -2.85593e-21 -1.19132e-06 -6.07789e-22 0)
(3.9356e-06 -5.83582e-07 1.82487e-21 -1.12287e-06 5.27174e-22 0)
(3.95351e-06 -5.26782e-07 4.28394e-21 -1.04635e-06 4.15435e-22 0)
(3.9633e-06 -4.70468e-07 -1.73131e-21 -9.60277e-07 -5.00261e-22 0)
(3.9628e-06 -4.13349e-07 -3.96176e-21 -8.62937e-07 -3.80005e-22 0)
(3.95319e-06 -3.53677e-07 -2.47929e-21 -7.52473e-07 -4.7893e-22 0)
(3.92839e-06 -2.90119e-07 1.75826e-21 -6.26595e-07 -9.1342e-23 0)
(3.8957e-06 -2.19647e-07 2.1221e-21 -4.82921e-07 4.28171e-22 0)
(3.8353e-06 -1.42749e-07 5.76992e-22 -3.1791e-07 9.18915e-23 0)
(3.7796e-06 -4.66463e-08 -1.29224e-21 -1.29989e-07 -7.91218e-22 -4.12235e-36)
(3.87972e-06 -1.81788e-06 2.26346e-21 -2.12772e-06 -3.9453e-22 0)
(3.85155e-06 -1.67334e-06 1.07288e-21 -2.00615e-06 -1.41695e-21 0)
(3.86099e-06 -1.54204e-06 -2.43288e-21 -1.90098e-06 4.23284e-22 0)
(3.8683e-06 -1.42287e-06 -1.10349e-21 -1.81273e-06 -4.4429e-23 0)
(3.88745e-06 -1.3074e-06 3.83819e-21 -1.7292e-06 4.59593e-22 0)
(3.90665e-06 -1.20387e-06 -2.16381e-21 -1.65435e-06 6.90752e-22 0)
(3.92997e-06 -1.10652e-06 -2.3667e-21 -1.58257e-06 -6.40867e-22 0)
(3.95209e-06 -1.01768e-06 1.95539e-21 -1.51343e-06 -3.72215e-22 0)
(3.9739e-06 -9.34812e-07 -9.45856e-22 -1.44444e-06 4.0284e-22 0)
(3.99293e-06 -8.57678e-07 -5.55889e-23 -1.37419e-06 4.42177e-22 0)
(4.00879e-06 -7.84736e-07 -2.11878e-21 -1.30102e-06 -1.95442e-22 0)
(4.0202e-06 -7.14891e-07 -2.45069e-21 -1.22343e-06 -1.22374e-21 0)
(4.02611e-06 -6.46747e-07 7.4149e-21 -1.13988e-06 9.00063e-22 0)
(4.02595e-06 -5.78769e-07 8.81499e-22 -1.04879e-06 4.32415e-22 0)
(4.01751e-06 -5.09439e-07 -1.46586e-21 -9.48444e-07 -3.66451e-22 0)
(4.00182e-06 -4.36631e-07 1.11886e-21 -8.37036e-07 2.08457e-22 0)
(3.97299e-06 -3.58735e-07 -4.87344e-21 -7.12422e-07 -1.19075e-21 0)
(3.93804e-06 -2.71992e-07 2.02325e-21 -5.7241e-07 6.17068e-22 0)
(3.87816e-06 -1.76992e-07 -9.32323e-22 -4.13893e-07 -2.60853e-22 0)
(3.82442e-06 -5.80616e-08 4.35112e-22 -2.35552e-07 1.41589e-22 6.64327e-40)
(4.40921e-06 -1.92393e-06 -1.05425e-21 -2.51745e-06 -1.35767e-21 0)
(4.30381e-06 -1.80297e-06 -1.63879e-21 -2.36075e-06 1.04286e-21 0)
(4.25592e-06 -1.67782e-06 -1.64503e-21 -2.21534e-06 5.03303e-22 0)
(4.20662e-06 -1.56643e-06 -1.23907e-21 -2.0938e-06 -1.32442e-21 0)
(4.1802e-06 -1.45138e-06 2.71519e-21 -1.9788e-06 1.98498e-21 0)
(4.15753e-06 -1.347e-06 2.81978e-21 -1.87619e-06 5.08758e-22 0)
(4.14581e-06 -1.24618e-06 4.43554e-21 -1.78004e-06 3.2849e-22 0)
(4.13701e-06 -1.15265e-06 -5.60462e-21 -1.68954e-06 -9.89528e-22 0)
(4.13242e-06 -1.06405e-06 -3.70246e-21 -1.60222e-06 -7.82415e-23 0)
(4.12859e-06 -9.80438e-07 -4.05446e-22 -1.51632e-06 -9.79888e-22 0)
(4.12488e-06 -9.00452e-07 5.31154e-21 -1.43007e-06 5.94481e-22 0)
(4.11959e-06 -8.23021e-07 -1.01468e-21 -1.3418e-06 -9.30099e-22 0)
(4.1114e-06 -7.46764e-07 -3.14667e-21 -1.2499e-06 -4.52663e-22 0)
(4.09954e-06 -6.70025e-07 1.46284e-21 -1.15274e-06 7.11701e-22 0)
(4.08169e-06 -5.91163e-07 -2.07852e-21 -1.04867e-06 -3.911e-22 0)
(4.05873e-06 -5.07758e-07 -1.10953e-21 -9.35961e-07 -2.42095e-22 0)
(4.02508e-06 -4.18003e-07 -4.40165e-22 -8.12685e-07 -1.79224e-22 0)
(3.98742e-06 -3.175e-07 2.2739e-21 -6.76914e-07 6.00931e-22 0)
(3.9282e-06 -2.06932e-07 2.7677e-21 -5.26133e-07 9.12996e-22 0)
(3.87689e-06 -6.81971e-08 -2.17955e-21 -3.59402e-07 -1.47881e-21 -6.65815e-36)
(4.94968e-06 -1.89445e-06 -4.61646e-22 -2.89387e-06 4.30562e-22 0)
(4.7724e-06 -1.82085e-06 9.36539e-22 -2.71379e-06 5.2159e-22 0)
(4.67142e-06 -1.71718e-06 4.7994e-21 -2.53385e-06 6.06642e-22 0)
(4.56604e-06 -1.62778e-06 -7.63238e-21 -2.3815e-06 -1.53393e-21 0)
(4.49409e-06 -1.52535e-06 -5.29094e-22 -2.23723e-06 5.90426e-22 0)
(4.42864e-06 -1.42957e-06 5.12919e-22 -2.10708e-06 -5.60854e-22 0)
(4.38033e-06 -1.33364e-06 5.42493e-21 -1.98664e-06 1.72425e-21 0)
(4.3391e-06 -1.24206e-06 2.16954e-21 -1.87441e-06 2.2528e-22 0)
(4.30636e-06 -1.15349e-06 -2.98583e-21 -1.76836e-06 -1.38484e-21 0)
(4.27807e-06 -1.06824e-06 -1.31171e-21 -1.66639e-06 -6.54326e-22 0)
(4.25321e-06 -9.85466e-07 -2.12237e-21 -1.56672e-06 -2.78852e-22 0)
(4.22975e-06 -9.04214e-07 5.62008e-22 -1.46752e-06 2.91028e-22 0)
(4.20612e-06 -8.23249e-07 1.83196e-21 -1.36713e-06 8.62632e-22 0)
(4.18132e-06 -7.40888e-07 0 -1.26391e-06 0 0)
(4.15302e-06 -6.55451e-07 3.88325e-22 -1.15627e-06 -3.18972e-22 0)
(4.12193e-06 -5.64314e-07 2.12294e-21 -1.04261e-06 5.20906e-22 0)
(4.08284e-06 -4.65542e-07 -1.02956e-21 -9.21313e-07 -1.57817e-22 0)
(4.04205e-06 -3.54244e-07 -3.81723e-21 -7.90768e-07 -1.34817e-21 0)
(3.98356e-06 -2.31191e-07 3.23683e-21 -6.49136e-07 1.17014e-21 0)
(3.93484e-06 -7.65291e-08 -9.84309e-22 -4.95931e-07 -8.72466e-22 -1.93153e-36)
(5.4612e-06 -1.73343e-06 4.60277e-21 -3.22527e-06 5.73859e-22 0)
(5.22556e-06 -1.72572e-06 -3.66062e-21 -3.04038e-06 -7.98273e-22 0)
(5.08269e-06 -1.65837e-06 3.3104e-21 -2.84273e-06 1.58727e-21 0)
(4.92812e-06 -1.60266e-06 1.08638e-21 -2.6677e-06 4.92198e-22 0)
(4.81435e-06 -1.52593e-06 -8.46386e-21 -2.50206e-06 -3.13398e-21 0)
(4.70916e-06 -1.44861e-06 1.97703e-21 -2.34874e-06 8.88912e-22 0)
(4.62497e-06 -1.36703e-06 2.2277e-21 -2.20679e-06 2.83295e-22 0)
(4.55169e-06 -1.28514e-06 7.97414e-21 -2.0741e-06 2.18627e-21 0)
(4.49025e-06 -1.2033e-06 -2.08285e-21 -1.94946e-06 -2.77524e-22 0)
(4.43674e-06 -1.12202e-06 -5.81966e-22 -1.83089e-06 4.44358e-22 0)
(4.38972e-06 -1.04118e-06 5.6515e-22 -1.71681e-06 -3.9997e-22 0)
(4.34708e-06 -9.60125e-07 -5.58156e-22 -1.60549e-06 3.50158e-22 0)
(4.30699e-06 -8.77929e-07 6.47653e-22 -1.49536e-06 9.03824e-22 0)
(4.26833e-06 -7.9304e-07 7.4616e-21 -1.3849e-06 1.88181e-21 0)
(4.22876e-06 -7.03864e-07 -3.17713e-21 -1.27267e-06 -1.01975e-21 0)
(4.18885e-06 -6.07699e-07 -6.10685e-21 -1.1573e-06 -1.6392e-21 0)
(4.14385e-06 -5.02578e-07 5.00816e-21 -1.03751e-06 1.67432e-21 0)
(4.09964e-06 -3.83225e-07 9.75713e-22 -9.12113e-07 3.01462e-22 0)
(4.04203e-06 -2.50514e-07 -2.87765e-21 -7.80102e-07 -1.144e-21 0)
(3.99639e-06 -8.33003e-08 8.59663e-22 -6.41655e-07 5.18096e-22 -1.01729e-38)
(5.91634e-06 -1.47085e-06 -4.24409e-21 -3.48113e-06 -1.6751e-21 0)
(5.63743e-06 -1.53827e-06 -1.50217e-21 -3.29804e-06 3.08362e-22 0)
(5.46471e-06 -1.52314e-06 1.3511e-21 -3.10112e-06 -3.4003e-22 0)
(5.27266e-06 -1.50518e-06 4.8309e-21 -2.91027e-06 9.49384e-22 0)
(5.12175e-06 -1.46279e-06 -3.38841e-21 -2.73018e-06 -6.33769e-22 0)
(4.98268e-06 -1.40909e-06 -2.53284e-21 -2.55899e-06 2.48722e-22 0)
(4.86557e-06 -1.347e-06 0 -2.39976e-06 0 0)
(4.76304e-06 -1.27942e-06 3.99154e-21 -2.25069e-06 1.22838e-21 0)
(4.67465e-06 -1.20865e-06 5.8153e-21 -2.11104e-06 2.0559e-21 0)
(4.5972e-06 -1.13557e-06 2.11881e-21 -1.97916e-06 3.37241e-22 0)
(4.52877e-06 -1.06068e-06 -3.70624e-21 -1.85354e-06 -1.13497e-21 0)
(4.4673e-06 -9.83658e-07 -6.31244e-21 -1.73261e-06 -1.15951e-21 0)
(4.41083e-06 -9.03855e-07 -3.10415e-21 -1.61492e-06 -1.45188e-21 0)
(4.35817e-06 -8.19893e-07 5.96644e-21 -1.49909e-06 1.34156e-21 0)
(4.3071e-06 -7.30294e-07 6.6208e-21 -1.38393e-06 2.25762e-21 0)
(4.25807e-06 -6.32372e-07 -3.14955e-21 -1.26836e-06 -1.12349e-21 0)
(4.20694e-06 -5.24196e-07 -1.1523e-21 -1.15157e-06 -5.17459e-22 0)
(4.1591e-06 -4.00313e-07 4.11097e-21 -1.03287e-06 1.66556e-21 0)
(4.10242e-06 -2.61751e-07 -3.76504e-21 -9.12073e-07 -1.66319e-21 0)
(4.05948e-06 -8.72714e-08 7.73589e-24 -7.89829e-07 5.32489e-24 -6.65961e-43)
(6.26841e-06 -1.11094e-06 3.43356e-21 -3.66629e-06 9.22798e-22 0)
(5.99303e-06 -1.22943e-06 -2.59718e-21 -3.4999e-06 -5.21658e-22 0)
(5.80022e-06 -1.28934e-06 9.18282e-23 -3.33535e-06 -6.52608e-22 0)
(5.592e-06 -1.31991e-06 -1.30798e-21 -3.15005e-06 2.51845e-22 0)
(5.4096e-06 -1.3273e-06 -2.40611e-21 -2.9676e-06 1.80921e-23 0)
(5.24231e-06 -1.31215e-06 -2.1083e-21 -2.78719e-06 -1.24926e-21 0)
(5.09452e-06 -1.28152e-06 -1.75696e-21 -2.61396e-06 -1.93951e-21 0)
(4.96393e-06 -1.23835e-06 -1.24554e-22 -2.44919e-06 9.53388e-23 0)
(4.84934e-06 -1.18617e-06 1.33655e-22 -2.29334e-06 -7.37018e-23 0)
(4.74849e-06 -1.12704e-06 4.17649e-21 -2.14603e-06 7.33763e-22 0)
(4.65927e-06 -1.06238e-06 5.28195e-21 -2.00635e-06 2.18416e-21 0)
(4.57964e-06 -9.92655e-07 -3.33038e-21 -1.87318e-06 -1.64602e-21 0)
(4.5075e-06 -9.17793e-07 -5.25833e-21 -1.74537e-06 -1.97646e-21 0)
(4.44156e-06 -8.36852e-07 -3.44534e-21 -1.62176e-06 -1.2023e-21 0)
(4.37966e-06 -7.4863e-07 1.4069e-21 -1.50146e-06 6.85979e-22 0)
(4.32214e-06 -6.50627e-07 6.60374e-23 -1.3837e-06 7.30682e-24 0)
(4.26553e-06 -5.41017e-07 -1.87544e-21 -1.2682e-06 -6.52974e-22 0)
(4.21477e-06 -4.14311e-07 3.6191e-23 -1.1548e-06 8.99163e-24 0)
(4.16e-06 -2.71562e-07 1.82112e-21 -1.04423e-06 8.44418e-22 0)
(4.1214e-06 -9.09843e-08 -4.90013e-22 -9.37811e-07 -3.80045e-22 -5.84762e-39)
(6.46684e-06 -8.12913e-07 1.24736e-21 -3.70482e-06 7.24065e-22 0)
(6.21287e-06 -9.12875e-07 2.48372e-21 -3.53594e-06 1.70012e-21 0)
(6.00387e-06 -1.02994e-06 2.5778e-21 -3.39643e-06 7.55378e-22 0)
(5.79871e-06 -1.09487e-06 6.96047e-22 -3.23337e-06 1.13696e-22 0)
(5.60785e-06 -1.13686e-06 9.15653e-22 -3.06289e-06 1.22197e-21 0)
(5.43145e-06 -1.15397e-06 2.34915e-22 -2.89108e-06 -8.00668e-22 0)
(5.27126e-06 -1.15196e-06 -4.79855e-21 -2.72168e-06 -1.7804e-21 0)
(5.12655e-06 -1.13405e-06 -1.71478e-21 -2.55761e-06 -3.83034e-22 0)
(4.99681e-06 -1.10339e-06 1.70676e-21 -2.40012e-06 3.70593e-22 0)
(4.88056e-06 -1.06233e-06 -2.0955e-21 -2.24978e-06 -4.22711e-22 0)
(4.77632e-06 -1.01249e-06 5.34077e-21 -2.10646e-06 2.3413e-21 0)
(4.68251e-06 -9.54768e-07 3.27455e-21 -1.96973e-06 1.28993e-21 0)
(4.59746e-06 -8.89424e-07 -4.80363e-22 -1.83901e-06 3.67451e-22 0)
(4.52012e-06 -8.15917e-07 1.20677e-21 -1.7137e-06 7.35788e-22 0)
(4.44875e-06 -7.33365e-07 1.9101e-21 -1.5934e-06 5.52828e-22 0)
(4.38372e-06 -6.39668e-07 -1.34014e-22 -1.47786e-06 -3.63038e-23 0)
(4.32235e-06 -5.3328e-07 1.14022e-21 -1.3674e-06 5.87099e-22 0)
(4.26902e-06 -4.09149e-07 6.05588e-22 -1.2625e-06 1.86478e-22 0)
(4.21605e-06 -2.68602e-07 -1.82456e-21 -1.16489e-06 -8.77681e-22 0)
(4.18043e-06 -9.02317e-08 -8.97472e-22 -1.07613e-06 -9.95483e-22 -1.54125e-36)
(6.39448e-06 -5.74484e-07 -8.53647e-21 -3.56585e-06 -2.76606e-21 0)
(6.22578e-06 -6.85032e-07 -4.19485e-21 -3.47987e-06 -2.42763e-21 0)
(6.03934e-06 -8.11181e-07 3.67128e-21 -3.35877e-06 1.94297e-22 0)
(5.8577e-06 -8.9722e-07 -2.03377e-21 -3.22018e-06 1.30981e-21 0)
(5.68117e-06 -9.58681e-07 -3.91385e-21 -3.0681e-06 -1.96868e-21 0)
(5.51391e-06 -9.96023e-07 4.73486e-21 -2.91109e-06 1.18237e-21 0)
(5.35793e-06 -1.01334e-06 -4.37997e-35 -2.75304e-06 -1.76758e-35 0)
(5.21376e-06 -1.01358e-06 -5.00637e-21 -2.59736e-06 -2.74391e-21 0)
(5.08171e-06 -9.995e-07 -9.45014e-36 -2.44591e-06 -7.35115e-36 0)
(4.96116e-06 -9.7324e-07 -1.32167e-21 -2.29987e-06 -9.87462e-22 0)
(4.85136e-06 -9.3638e-07 -1.29277e-21 -2.15975e-06 -9.27301e-22 0)
(4.75134e-06 -8.89855e-07 2.04002e-21 -2.02571e-06 5.01778e-22 0)
(4.66001e-06 -8.34074e-07 -2.0008e-21 -1.89774e-06 -5.25001e-22 0)
(4.57671e-06 -7.68735e-07 -5.83342e-35 -1.77577e-06 -1.80136e-35 0)
(4.50025e-06 -6.93224e-07 1.93221e-21 -1.65991e-06 6.02708e-22 0)