/*--------------------------------*- C++ -*----------------------------------*\
| =========                 |                                                 |
| \\      /  F ield         | foam-extend: Open Source CFD                    |
|  \\    /   O peration     | Version:     4.1                                |
|   \\  /    A nd           | Web:         http://www.foam-extend.org         |
|    \\/     M anipulation  |                                                 |
\*---------------------------------------------------------------------------*/
FoamFile
{
    version     2.0;
    format      ascii;
    class       vectorField;
    location    "10";
    object      solidsCellD_iteration14;
}
// * * * * * * * * * * * * * * * * * * * * * * * * * * * * * * * * * * * * * //


1000
(
(5.24551e-06 -2.26136e-06 0)
(4.94467e-06 -2.10222e-06 0)
(4.75163e-06 -2.00034e-06 0)
(4.63993e-06 -1.95161e-06 0)
(4.58421e-06 -1.93315e-06 0)
(4.56934e-06 -1.93812e-06 0)
(4.58452e-06 -1.95833e-06 0)
(4.6223e-06 -1.98984e-06 0)
(4.67697e-06 -2.02904e-06 0)
(4.74525e-06 -2.07355e-06 0)
(4.74219e-06 -2.46998e-06 0)
(4.42187e-06 -2.3583e-06 0)
(4.21664e-06 -2.28637e-06 0)
(4.096e-06 -2.25796e-06 0)
(4.0334e-06 -2.25296e-06 0)
(4.0124e-06 -2.26743e-06 0)
(4.02175e-06 -2.29443e-06 0)
(4.05351e-06 -2.33099e-06 0)
(4.10176e-06 -2.3744e-06 0)
(4.16213e-06 -2.42143e-06 0)
(4.21948e-06 -2.66773e-06 0)
(3.8923e-06 -2.60911e-06 0)
(3.68286e-06 -2.57073e-06 0)
(3.55841e-06 -2.56483e-06 0)
(3.49216e-06 -2.57456e-06 0)
(3.46697e-06 -2.5992e-06 0)
(3.47156e-06 -2.63328e-06 0)
(3.49789e-06 -2.67492e-06 0)
(3.54e-06 -2.7224e-06 0)
(3.59352e-06 -2.77224e-06 0)
(3.68126e-06 -2.85111e-06 0)
(3.36089e-06 -2.84816e-06 0)
(3.15594e-06 -2.84504e-06 0)
(3.03315e-06 -2.86265e-06 0)
(2.96661e-06 -2.88769e-06 0)
(2.93929e-06 -2.9228e-06 0)
(2.94026e-06 -2.96403e-06 0)
(2.9617e-06 -3.01076e-06 0)
(2.99802e-06 -3.06209e-06 0)
(3.04467e-06 -3.11493e-06 0)
(3.1312e-06 -3.01651e-06 0)
(2.83124e-06 -3.06877e-06 0)
(2.63947e-06 -3.10061e-06 0)
(2.52395e-06 -3.14145e-06 0)
(2.46054e-06 -3.18155e-06 0)
(2.4331e-06 -3.22693e-06 0)
(2.4316e-06 -3.27511e-06 0)
(2.4487e-06 -3.32679e-06 0)
(2.47941e-06 -3.3818e-06 0)
(2.51918e-06 -3.43773e-06 0)
(2.57199e-06 -3.16054e-06 0)
(2.30572e-06 -3.26447e-06 0)
(2.13559e-06 -3.32907e-06 0)
(2.03261e-06 -3.39164e-06 0)
(1.97553e-06 -3.44579e-06 0)
(1.94993e-06 -3.50072e-06 0)
(1.94709e-06 -3.55531e-06 0)
(1.96037e-06 -3.61158e-06 0)
(1.98552e-06 -3.66995e-06 0)
(2.01822e-06 -3.7289e-06 0)
(2.00634e-06 -3.27998e-06 0)
(1.78554e-06 -3.42918e-06 0)
(1.64452e-06 -3.52251e-06 0)
(1.55886e-06 -3.60412e-06 0)
(1.51108e-06 -3.67056e-06 0)
(1.48915e-06 -3.73381e-06 0)
(1.4859e-06 -3.79399e-06 0)
(1.49576e-06 -3.85429e-06 0)
(1.51533e-06 -3.91557e-06 0)
(1.54084e-06 -3.97725e-06 0)
(1.43614e-06 -3.37212e-06 0)
(1.27076e-06 -3.5577e-06 0)
(1.16518e-06 -3.67408e-06 0)
(1.10093e-06 -3.77094e-06 0)
(1.06494e-06 -3.84726e-06 0)
(1.04816e-06 -3.91722e-06 0)
(1.04523e-06 -3.9819e-06 0)
(1.05197e-06 -4.04545e-06 0)
(1.06596e-06 -4.10907e-06 0)
(1.08421e-06 -4.17302e-06 0)
(8.62963e-07 -3.43477e-06 0)
(7.60572e-07 -3.64576e-06 0)
(6.95243e-07 -3.77827e-06 0)
(6.55386e-07 -3.88583e-06 0)
(6.32958e-07 -3.96905e-06 0)
(6.22376e-07 -4.04368e-06 0)
(6.2038e-07 -4.11152e-06 0)
(6.24334e-07 -4.1774e-06 0)
(6.32716e-07 -4.24267e-06 0)
(6.43664e-07 -4.30826e-06 0)
(2.88205e-07 -3.46633e-06 0)
(2.53521e-07 -3.69047e-06 0)
(2.31303e-07 -3.83129e-06 0)
(2.17741e-07 -3.94436e-06 0)
(2.10136e-07 -4.03115e-06 0)
(2.06498e-07 -4.10822e-06 0)
(2.05719e-07 -4.17766e-06 0)
(2.06987e-07 -4.24472e-06 0)
(2.09784e-07 -4.31086e-06 0)
(2.13423e-07 -4.37732e-06 0)
(8.1962e-06 -1.03247e-07 0)
(8.27116e-06 -7.43367e-08 0)
(8.3155e-06 -5.59554e-08 0)
(8.36293e-06 -4.5089e-08 0)
(8.41421e-06 -3.89847e-08 0)
(8.47726e-06 -3.61021e-08 0)
(8.55199e-06 -3.54021e-08 0)
(8.6394e-06 -3.60772e-08 0)
(8.73925e-06 -3.77968e-08 0)
(8.8502e-06 -3.99142e-08 0)
(8.13521e-06 -3.09743e-07 0)
(8.19769e-06 -2.247e-07 0)
(8.23423e-06 -1.70687e-07 0)
(8.2764e-06 -1.38907e-07 0)
(8.32422e-06 -1.21203e-07 0)
(8.38479e-06 -1.12838e-07 0)
(8.45777e-06 -1.10873e-07 0)
(8.54374e-06 -1.13115e-07 0)
(8.64237e-06 -1.18352e-07 0)
(8.752e-06 -1.24658e-07 0)
(8.0135e-06 -5.1797e-07 0)
(8.05215e-06 -3.81442e-07 0)
(8.07362e-06 -2.94804e-07 0)
(8.1058e-06 -2.43843e-07 0)
(8.14701e-06 -2.1558e-07 0)
(8.20293e-06 -2.02509e-07 0)
(8.27246e-06 -1.99696e-07 0)
(8.35568e-06 -2.03618e-07 0)
(8.45195e-06 -2.12342e-07 0)
(8.55904e-06 -2.22897e-07 0)
(7.83322e-06 -7.28831e-07 0)
(7.83798e-06 -5.48162e-07 0)
(7.83795e-06 -4.3359e-07 0)
(7.85592e-06 -3.66487e-07 0)
(7.88771e-06 -3.29437e-07 0)
(7.93701e-06 -3.12625e-07 0)
(8.00167e-06 -3.09449e-07 0)
(8.08095e-06 -3.1532e-07 0)
(8.17389e-06 -3.27528e-07 0)
(8.27742e-06 -3.4236e-07 0)
(7.5972e-06 -9.42873e-07 0)
(7.56007e-06 -7.2787e-07 0)
(7.53348e-06 -5.91515e-07 0)
(7.53383e-06 -5.1217e-07 0)
(7.55397e-06 -4.68723e-07 0)
(7.595e-06 -4.49606e-07 0)
(7.65361e-06 -4.46819e-07 0)
(7.72798e-06 -4.54995e-07 0)
(7.81676e-06 -4.707e-07 0)
(7.91597e-06 -4.89803e-07 0)
(7.30902e-06 -1.16022e-06 0)
(7.2245e-06 -9.22549e-07 0)
(7.1679e-06 -7.71728e-07 0)
(7.14833e-06 -6.84754e-07 0)
(7.15523e-06 -6.37727e-07 0)
(7.18684e-06 -6.17989e-07 0)
(7.23854e-06 -6.16482e-07 0)
(7.30728e-06 -6.27365e-07 0)
(7.39125e-06 -6.46608e-07 0)
(7.48557e-06 -6.69971e-07 0)
(6.973e-06 -1.38043e-06 0)
(6.83839e-06 -1.13299e-06 0)
(6.75012e-06 -9.75819e-07 0)
(6.70948e-06 -8.86313e-07 0)
(6.70234e-06 -8.38797e-07 0)
(6.72393e-06 -8.20306e-07 0)
(6.76818e-06 -8.21098e-07 0)
(6.83086e-06 -8.35131e-07 0)
(6.90954e-06 -8.57997e-07 0)
(6.99869e-06 -8.85561e-07 0)
(6.59368e-06 -1.60246e-06 0)
(6.40944e-06 -1.35864e-06 0)
(6.28981e-06 -1.20356e-06 0)
(6.2282e-06 -1.11686e-06 0)
(6.20705e-06 -1.07208e-06 0)
(6.21849e-06 -1.05679e-06 0)
(6.25506e-06 -1.06095e-06 0)
(6.31144e-06 -1.07868e-06 0)
(6.38448e-06 -1.10528e-06 0)
(6.46829e-06 -1.13709e-06 0)
(6.17602e-06 -1.82479e-06 0)
(5.94566e-06 -1.59764e-06 0)
(5.79691e-06 -1.45298e-06 0)
(5.71568e-06 -1.37431e-06 0)
(5.68129e-06 -1.33548e-06 0)
(5.68293e-06 -1.32527e-06 0)
(5.71189e-06 -1.33389e-06 0)
(5.76196e-06 -1.35578e-06 0)
(5.8291e-06 -1.38649e-06 0)
(5.90771e-06 -1.42235e-06 0)
(5.72499e-06 -2.04532e-06 0)
(5.45496e-06 -1.84692e-06 0)
(5.28117e-06 -1.72034e-06 0)
(5.18288e-06 -1.65456e-06 0)
(5.13671e-06 -1.62465e-06 0)
(5.12944e-06 -1.62128e-06 0)
(5.15127e-06 -1.63531e-06 0)
(5.19505e-06 -1.66199e-06 0)
(5.25627e-06 -1.69688e-06 0)
(5.32949e-06 -1.73828e-06 0)
(8.97265e-06 -4.20226e-08 0)
(9.10619e-06 -4.23933e-08 0)
(9.24831e-06 -4.28684e-08 0)
(9.39851e-06 -4.31865e-08 0)
(9.55583e-06 -4.33084e-08 0)
(9.71967e-06 -4.32141e-08 0)
(9.88927e-06 -4.28301e-08 0)
(1.0064e-05 -4.21764e-08 0)
(1.02433e-05 -4.12513e-08 0)
(1.04265e-05 -4.00205e-08 0)
(1.06132e-05 -3.84436e-08 0)
(1.08027e-05 -3.6496e-08 0)
(1.09945e-05 -3.41468e-08 0)
(1.1188e-05 -3.13663e-08 0)
(1.13827e-05 -2.81116e-08 0)
(1.15778e-05 -2.43211e-08 0)
(1.1773e-05 -1.99116e-08 0)
(1.19668e-05 -1.47977e-08 0)
(1.21596e-05 -8.85586e-09 0)
(1.23481e-05 -2.03708e-09 0)
(8.87882e-06 -1.30495e-07 0)
(9.02024e-06 -1.30995e-07 0)
(9.1694e-06 -1.31881e-07 0)
(9.32572e-06 -1.32393e-07 0)
(9.4885e-06 -1.32332e-07 0)
(9.65713e-06 -1.31703e-07 0)
(9.83106e-06 -1.30341e-07 0)
(1.00097e-05 -1.28236e-07 0)
(1.01925e-05 -1.25289e-07 0)
(1.0379e-05 -1.21416e-07 0)
(1.05686e-05 -1.16545e-07 0)
(1.07609e-05 -1.10621e-07 0)
(1.09553e-05 -1.03539e-07 0)
(1.11512e-05 -9.51737e-08 0)
(1.13483e-05 -8.5371e-08 0)
(1.15456e-05 -7.39574e-08 0)
(1.17429e-05 -6.07019e-08 0)
(1.19387e-05 -4.53616e-08 0)
(1.21336e-05 -2.7554e-08 0)
(1.2324e-05 -7.12495e-09 0)
(8.6944e-06 -2.31145e-07 0)
(8.85129e-06 -2.30028e-07 0)
(9.01423e-06 -2.29724e-07 0)
(9.18246e-06 -2.29221e-07 0)
(9.35588e-06 -2.28006e-07 0)
(9.53397e-06 -2.26079e-07 0)
(9.71641e-06 -2.2308e-07 0)
(9.90267e-06 -2.18959e-07 0)
(1.00924e-05 -2.13533e-07 0)
(1.02852e-05 -2.06685e-07 0)
(1.04807e-05 -1.98286e-07 0)
(1.06784e-05 -1.88209e-07 0)
(1.08778e-05 -1.7625e-07 0)
(1.10785e-05 -1.62186e-07 0)
(1.128e-05 -1.45765e-07 0)
(1.14816e-05 -1.26698e-07 0)
(1.16831e-05 -1.04594e-07 0)
(1.1883e-05 -7.9047e-08 0)
(1.20818e-05 -4.94065e-08 0)
(1.22762e-05 -1.54072e-08 0)
(8.42495e-06 -3.50897e-07 0)
(8.60397e-06 -3.4543e-07 0)
(8.78687e-06 -3.41435e-07 0)
(8.97242e-06 -3.37999e-07 0)
(9.1614e-06 -3.34015e-07 0)
(9.35323e-06 -3.29506e-07 0)
(9.54808e-06 -3.23821e-07 0)
(9.74551e-06 -3.16865e-07 0)
(9.94549e-06 -3.08324e-07 0)
(1.01476e-05 -2.98002e-07 0)
(1.03517e-05 -2.8567e-07 0)
(1.05573e-05 -2.7111e-07 0)
(1.07642e-05 -2.54025e-07 0)
(1.09718e-05 -2.34103e-07 0)
(1.11799e-05 -2.10988e-07 0)
(1.13879e-05 -1.84249e-07 0)
(1.15953e-05 -1.53328e-07 0)
(1.18012e-05 -1.17637e-07 0)
(1.20057e-05 -7.62445e-08 0)
(1.2206e-05 -2.87889e-08 0)
(8.07861e-06 -4.95906e-07 0)
(8.28543e-06 -4.82566e-07 0)
(8.49362e-06 -4.71667e-07 0)
(8.70113e-06 -4.62823e-07 0)
(8.90996e-06 -4.5398e-07 0)
(9.1194e-06 -4.45205e-07 0)
(9.33019e-06 -4.35469e-07 0)
(9.54203e-06 -4.24585e-07 0)
(9.75512e-06 -4.12041e-07 0)
(9.96927e-06 -3.97522e-07 0)
(1.01844e-05 -3.80695e-07 0)
(1.04003e-05 -3.61231e-07 0)
(1.06168e-05 -3.38718e-07 0)
(1.08335e-05 -3.12731e-07 0)
(1.10501e-05 -2.82783e-07 0)
(1.12662e-05 -2.483e-07 0)
(1.14815e-05 -2.08552e-07 0)
(1.1695e-05 -1.62774e-07 0)
(1.19071e-05 -1.09743e-07 0)
(1.21148e-05 -4.89915e-08 0)
(7.66525e-06 -6.70585e-07 0)
(7.90404e-06 -6.45289e-07 0)
(8.14182e-06 -6.23682e-07 0)
(8.37519e-06 -6.0642e-07 0)
(8.60755e-06 -5.90232e-07 0)
(8.838e-06 -5.75153e-07 0)
(9.06778e-06 -5.59708e-07 0)
(9.29687e-06 -5.43531e-07 0)
(9.52572e-06 -5.25918e-07 0)
(9.75432e-06 -5.0638e-07 0)
(9.98281e-06 -4.84435e-07 0)
(1.02111e-05 -4.59601e-07 0)
(1.04391e-05 -4.31326e-07 0)
(1.06667e-05 -3.99054e-07 0)
(1.08936e-05 -3.6215e-07 0)
(1.11194e-05 -3.19894e-07 0)
(1.13442e-05 -2.71367e-07 0)
(1.15668e-05 -2.1563e-07 0)
(1.17879e-05 -1.51167e-07 0)
(1.20046e-05 -7.73481e-08 0)
(7.19645e-06 -8.77671e-07 0)
(7.46996e-06 -8.36269e-07 0)
(7.74034e-06 -8.00168e-07 0)
(8.00246e-06 -7.71268e-07 0)
(8.26108e-06 -7.4512e-07 0)
(8.51518e-06 -7.2149e-07 0)
(8.76649e-06 -6.98573e-07 0)
(9.01518e-06 -6.7564e-07 0)
(9.26199e-06 -6.51774e-07 0)
(9.50713e-06 -6.26265e-07 0)
(9.7509e-06 -5.98435e-07 0)
(9.99338e-06 -5.67625e-07 0)
(1.02346e-05 -5.33133e-07 0)
(1.04746e-05 -4.94259e-07 0)
(1.07133e-05 -4.5021e-07 0)
(1.09504e-05 -4.0011e-07 0)
(1.11859e-05 -3.42837e-07 0)
(1.1419e-05 -2.77264e-07 0)
(1.16504e-05 -2.01601e-07 0)
(1.18775e-05 -1.15035e-07 0)
(6.68388e-06 -1.11774e-06 0)
(6.99315e-06 -1.05568e-06 0)
(7.29773e-06 -1.0013e-06 0)
(7.59061e-06 -9.5717e-07 0)
(7.87753e-06 -9.18312e-07 0)
(8.15741e-06 -8.83725e-07 0)
(8.43234e-06 -8.5143e-07 0)
(8.70267e-06 -8.20206e-07 0)
(8.96932e-06 -7.88886e-07 0)
(9.23274e-06 -7.56472e-07 0)
(9.49341e-06 -7.22056e-07 0)
(9.75159e-06 -6.84768e-07 0)
(1.00075e-05 -6.43729e-07 0)
(1.02613e-05 -5.98072e-07 0)
(1.0513e-05 -5.46825e-07 0)
(1.07625e-05 -4.88936e-07 0)
(1.101e-05 -4.23079e-07 0)
(1.12547e-05 -3.47929e-07 0)
(1.14974e-05 -2.61418e-07 0)
(1.17359e-05 -1.62552e-07 0)
(6.14028e-06 -1.39031e-06 0)
(6.48526e-06 -1.30382e-06 0)
(6.82396e-06 -1.22877e-06 0)
(7.1486e-06 -1.16638e-06 0)
(7.46466e-06 -1.11239e-06 0)
(7.77159e-06 -1.06465e-06 0)
(8.07133e-06 -1.02108e-06 0)
(8.36459e-06 -9.79927e-07 0)
(8.65239e-06 -9.39758e-07 0)
(8.93541e-06 -8.99269e-07 0)
(9.21425e-06 -8.57305e-07 0)
(9.48936e-06 -8.12778e-07 0)
(9.76112e-06 -7.64616e-07 0)
(1.00298e-05 -7.11763e-07 0)
(1.02956e-05 -6.53054e-07 0)
(1.05586e-05 -5.87247e-07 0)
(1.08189e-05 -5.12817e-07 0)
(1.10762e-05 -4.2824e-07 0)
(1.13311e-05 -3.31214e-07 0)
(1.1582e-05 -2.20571e-07 0)
(5.57581e-06 -1.69042e-06 0)
(5.95626e-06 -1.57398e-06 0)
(6.32744e-06 -1.47575e-06 0)
(6.68455e-06 -1.39216e-06 0)
(7.03035e-06 -1.32058e-06 0)
(7.36546e-06 -1.25773e-06 0)
(7.69116e-06 -1.20128e-06 0)
(8.00851e-06 -1.14903e-06 0)
(8.31855e-06 -1.09915e-06 0)
(8.62216e-06 -1.04999e-06 0)
(8.92008e-06 -1.0001e-06 0)
(9.21296e-06 -9.48134e-07 0)
(9.50135e-06 -8.92787e-07 0)
(9.78563e-06 -8.32794e-07 0)
(1.00662e-05 -7.66792e-07 0)
(1.03432e-05 -6.93343e-07 0)
(1.06169e-05 -6.10741e-07 0)
(1.08872e-05 -5.17248e-07 0)
(1.1155e-05 -4.10348e-07 0)
(1.14189e-05 -2.8865e-07 0)
(5.15963e-06 -1.97583e-06 0)
(5.56248e-06 -1.83582e-06 0)
(5.9523e-06 -1.72065e-06 0)
(6.32878e-06 -1.62051e-06 0)
(6.69294e-06 -1.53368e-06 0)
(7.04568e-06 -1.45686e-06 0)
(7.38808e-06 -1.38762e-06 0)
(7.72117e-06 -1.32371e-06 0)
(8.04595e-06 -1.26318e-06 0)
(8.36326e-06 -1.20422e-06 0)
(8.67391e-06 -1.14523e-06 0)
(8.97858e-06 -1.08472e-06 0)
(9.2779e-06 -1.02126e-06 0)
(9.57234e-06 -9.53426e-07 0)
(9.86236e-06 -8.79745e-07 0)
(1.01482e-05 -7.98656e-07 0)
(1.04305e-05 -7.08392e-07 0)
(1.0709e-05 -6.07102e-07 0)
(1.09849e-05 -4.92234e-07 0)
(1.12571e-05 -3.62323e-07 0)
(4.92031e-06 -2.20623e-06 0)
(5.32588e-06 -2.06101e-06 0)
(5.71881e-06 -1.93654e-06 0)
(6.10012e-06 -1.82645e-06 0)
(6.46988e-06 -1.72909e-06 0)
(6.82869e-06 -1.64174e-06 0)
(7.17733e-06 -1.56217e-06 0)
(7.51659e-06 -1.48829e-06 0)
(7.84728e-06 -1.41818e-06 0)
(8.17015e-06 -1.35008e-06 0)
(8.48594e-06 -1.28241e-06 0)
(8.79531e-06 -1.21365e-06 0)
(9.09887e-06 -1.14234e-06 0)
(9.39713e-06 -1.06703e-06 0)
(9.69057e-06 -9.86231e-07 0)
(9.97958e-06 -8.98372e-07 0)
(1.02647e-05 -8.01739e-07 0)
(1.0546e-05 -6.94508e-07 0)
(1.08247e-05 -5.74244e-07 0)
(1.11e-05 -4.3957e-07 0)
(4.7143e-06 -2.42818e-06 0)
(5.11608e-06 -2.27938e-06 0)
(5.50836e-06 -2.14867e-06 0)
(5.89042e-06 -2.03088e-06 0)
(6.26229e-06 -1.92479e-06 0)
(6.62402e-06 -1.82824e-06 0)
(6.97616e-06 -1.73929e-06 0)
(7.31919e-06 -1.65608e-06 0)
(7.65375e-06 -1.57683e-06 0)
(7.98045e-06 -1.4999e-06 0)
(8.29994e-06 -1.42374e-06 0)
(8.61282e-06 -1.34686e-06 0)
(8.91966e-06 -1.26781e-06 0)
(9.22096e-06 -1.18515e-06 0)
(9.51721e-06 -1.09742e-06 0)
(9.80889e-06 -1.00306e-06 0)
(1.00965e-05 -9.00436e-07 0)
(1.03805e-05 -7.87798e-07 0)
(1.06617e-05 -6.6287e-07 0)
(1.09401e-05 -5.24401e-07 0)
(4.53203e-06 -2.64223e-06 0)
(4.92814e-06 -2.49157e-06 0)
(5.31705e-06 -2.35611e-06 0)
(5.69721e-06 -2.23193e-06 0)
(6.06856e-06 -2.11831e-06 0)
(6.43082e-06 -2.01358e-06 0)
(6.78426e-06 -1.91611e-06 0)
(7.12911e-06 -1.82428e-06 0)
(7.46585e-06 -1.73649e-06 0)
(7.79494e-06 -1.65121e-06 0)
(8.1169e-06 -1.56698e-06 0)
(8.43225e-06 -1.48236e-06 0)
(8.74151e-06 -1.39593e-06 0)
(9.04515e-06 -1.3063e-06 0)
(9.34368e-06 -1.21204e-06 0)
(9.63757e-06 -1.11166e-06 0)
(9.92743e-06 -1.00362e-06 0)
(1.02137e-05 -8.8626e-07 0)
(1.04973e-05 -7.5751e-07 0)
(1.07785e-05 -6.16264e-07 0)
(4.37106e-06 -2.84728e-06 0)
(4.75978e-06 -2.696e-06 0)
(5.14333e-06 -2.55737e-06 0)
(5.51952e-06 -2.42836e-06 0)
(5.88834e-06 -2.30863e-06 0)
(6.24916e-06 -2.19695e-06 0)
(6.60207e-06 -2.092e-06 0)
(6.94708e-06 -1.99241e-06 0)
(7.28451e-06 -1.89679e-06 0)
(7.61467e-06 -1.80375e-06 0)
(7.93796e-06 -1.71194e-06 0)
(8.25481e-06 -1.62001e-06 0)
(8.56567e-06 -1.52659e-06 0)
(8.87098e-06 -1.43038e-06 0)
(9.17124e-06 -1.33001e-06 0)
(9.46694e-06 -1.22407e-06 0)
(9.75866e-06 -1.11111e-06 0)
(1.00469e-05 -9.89629e-07 0)
(1.03327e-05 -8.57771e-07 0)
(1.06164e-05 -7.14596e-07 0)
(4.22769e-06 -3.04346e-06 0)
(4.60814e-06 -2.89255e-06 0)
(4.98509e-06 -2.75189e-06 0)
(5.35589e-06 -2.61922e-06 0)
(5.72068e-06 -2.49455e-06 0)
(6.07853e-06 -2.37699e-06 0)
(6.42943e-06 -2.26553e-06 0)
(6.77322e-06 -2.15906e-06 0)
(7.11008e-06 -2.05637e-06 0)
(7.44017e-06 -1.95625e-06 0)
(7.76379e-06 -1.85747e-06 0)
(8.08126e-06 -1.75878e-06 0)
(8.39297e-06 -1.65889e-06 0)
(8.69934e-06 -1.5566e-06 0)
(9.00081e-06 -1.4506e-06 0)
(9.29788e-06 -1.33962e-06 0)
(9.59112e-06 -1.22231e-06 0)
(9.88113e-06 -1.09733e-06 0)
(1.01688e-05 -9.63052e-07 0)
(1.04548e-05 -8.18692e-07 0)
(4.0991e-06 -3.23098e-06 0)
(4.47078e-06 -3.08112e-06 0)
(4.84026e-06 -2.93936e-06 0)
(5.20474e-06 -2.80407e-06 0)
(5.5644e-06 -2.67552e-06 0)
(5.91814e-06 -2.5531e-06 0)
(6.26589e-06 -2.43609e-06 0)
(6.60737e-06 -2.32362e-06 0)
(6.94261e-06 -2.21467e-06 0)
(7.27167e-06 -2.10819e-06 0)
(7.59475e-06 -2.00308e-06 0)
(7.91209e-06 -1.8982e-06 0)
(8.22401e-06 -1.79239e-06 0)
(8.53086e-06 -1.68454e-06 0)
(8.83308e-06 -1.57344e-06 0)
(9.13113e-06 -1.45793e-06 0)
(9.42557e-06 -1.33682e-06 0)
(9.71702e-06 -1.2089e-06 0)
(1.00063e-05 -1.0728e-06 0)
(1.02943e-05 -9.27866e-07 0)
(3.9826e-06 -3.41023e-06 0)
(4.34534e-06 -3.2619e-06 0)
(4.70688e-06 -3.11974e-06 0)
(5.06445e-06 -2.98265e-06 0)
(5.4182e-06 -2.8511e-06 0)
(5.76702e-06 -2.72472e-06 0)
(6.11077e-06 -2.60305e-06 0)
(6.44907e-06 -2.48542e-06 0)
(6.78186e-06 -2.37098e-06 0)
(7.10912e-06 -2.25885e-06 0)
(7.43095e-06 -2.14809e-06 0)
(7.74751e-06 -2.03766e-06 0)
(8.05907e-06 -1.92651e-06 0)
(8.36594e-06 -1.81367e-06 0)
(8.66849e-06 -1.69801e-06 0)
(8.96719e-06 -1.57852e-06 0)
(9.26254e-06 -1.45413e-06 0)
(9.55518e-06 -1.32381e-06 0)
(9.84588e-06 -1.18641e-06 0)
(1.01355e-05 -1.0414e-06 0)
(3.87581e-06 -3.58175e-06 0)
(4.22963e-06 -3.43523e-06 0)
(4.58302e-06 -3.29318e-06 0)
(4.93332e-06 -3.15495e-06 0)
(5.2807e-06 -3.02114e-06 0)
(5.62407e-06 -2.8916e-06 0)
(5.96321e-06 -2.76607e-06 0)
(6.29771e-06 -2.64405e-06 0)
(6.62743e-06 -2.52489e-06 0)
(6.95228e-06 -2.40783e-06 0)
(7.2723e-06 -2.29209e-06 0)
(7.58759e-06 -2.17674e-06 0)
(7.89835e-06 -2.06087e-06 0)
(8.20483e-06 -1.9436e-06 0)
(8.50738e-06 -1.82392e-06 0)
(8.80642e-06 -1.70097e-06 0)
(9.10242e-06 -1.57381e-06 0)
(9.39601e-06 -1.44157e-06 0)
(9.68781e-06 -1.30331e-06 0)
(9.97884e-06 -1.15864e-06 0)
(3.77662e-06 -3.7461e-06 0)
(4.12166e-06 -3.60152e-06 0)
(4.46689e-06 -3.45994e-06 0)
(4.8098e-06 -3.32107e-06 0)
(5.15058e-06 -3.18562e-06 0)
(5.48816e-06 -3.05359e-06 0)
(5.82231e-06 -2.92491e-06 0)
(6.15258e-06 -2.79923e-06 0)
(6.47879e-06 -2.67605e-06 0)
(6.8008e-06 -2.55476e-06 0)
(7.11859e-06 -2.4347e-06 0)
(7.43221e-06 -2.31508e-06 0)
(7.74181e-06 -2.19507e-06 0)
(8.0476e-06 -2.07395e-06 0)
(8.34986e-06 -1.9508e-06 0)
(8.64898e-06 -1.8249e-06 0)
(8.94539e-06 -1.69544e-06 0)
(9.23967e-06 -1.56169e-06 0)
(9.53238e-06 -1.42293e-06 0)
(9.82456e-06 -1.27892e-06 0)
(3.68314e-06 -3.90385e-06 0)
(4.01966e-06 -3.76124e-06 0)
(4.35685e-06 -3.62037e-06 0)
(4.6924e-06 -3.48125e-06 0)
(5.0265e-06 -3.34465e-06 0)
(5.35814e-06 -3.21072e-06 0)
(5.68709e-06 -3.07951e-06 0)
(6.01287e-06 -2.95083e-06 0)
(6.33528e-06 -2.8243e-06 0)
(6.65415e-06 -2.69943e-06 0)
(6.96942e-06 -2.5757e-06 0)
(7.28109e-06 -2.4524e-06 0)
(7.58927e-06 -2.32886e-06 0)
(7.89412e-06 -2.20443e-06 0)
(8.19587e-06 -2.07833e-06 0)
(8.49487e-06 -1.94994e-06 0)
(8.79148e-06 -1.81861e-06 0)
(9.08623e-06 -1.68372e-06 0)
(9.37969e-06 -1.54478e-06 0)
(9.67273e-06 -1.40163e-06 0)
(3.59369e-06 -4.05555e-06 0)
(3.922e-06 -3.91486e-06 0)
(4.25136e-06 -3.77484e-06 0)
(4.57969e-06 -3.63576e-06 0)
(4.90718e-06 -3.49842e-06 0)
(5.23287e-06 -3.36307e-06 0)
(5.55652e-06 -3.2299e-06 0)
(5.8777e-06 -3.09881e-06 0)
(6.19617e-06 -2.96953e-06 0)
(6.51174e-06 -2.8417e-06 0)
(6.82432e-06 -2.71489e-06 0)
(7.13387e-06 -2.58851e-06 0)
(7.44047e-06 -2.46199e-06 0)
(7.74422e-06 -2.33478e-06 0)
(8.04531e-06 -2.20622e-06 0)
(8.34403e-06 -2.07579e-06 0)
(8.64067e-06 -1.94296e-06 0)
(8.93575e-06 -1.80726e-06 0)
(9.22975e-06 -1.66836e-06 0)
(9.52346e-06 -1.52619e-06 0)
(3.50674e-06 -4.2017e-06 0)
(3.8272e-06 -4.06284e-06 0)
(4.149e-06 -3.92377e-06 0)
(4.47034e-06 -3.78494e-06 0)
(4.79134e-06 -3.64719e-06 0)
(5.11117e-06 -3.51084e-06 0)
(5.42958e-06 -3.37618e-06 0)
(5.74618e-06 -3.2432e-06 0)
(6.0607e-06 -3.11174e-06 0)
(6.37294e-06 -2.98152e-06 0)
(6.68278e-06 -2.8522e-06 0)
(6.99015e-06 -2.72331e-06 0)
(7.29507e-06 -2.59433e-06 0)
(7.59761e-06 -2.46485e-06 0)
(7.89792e-06 -2.33428e-06 0)
(8.19623e-06 -2.2022e-06 0)
(8.49278e-06 -2.0682e-06 0)
(8.78806e-06 -1.93195e-06 0)
(9.08239e-06 -1.79327e-06 0)
(9.37661e-06 -1.65214e-06 0)
(3.42089e-06 -4.34276e-06 0)
(3.73383e-06 -4.20564e-06 0)
(4.04839e-06 -4.06753e-06 0)
(4.363e-06 -3.92911e-06 0)
(4.67777e-06 -3.79122e-06 0)
(4.99195e-06 -3.65424e-06 0)
(5.30531e-06 -3.51853e-06 0)
(5.61744e-06 -3.38415e-06 0)
(5.92811e-06 -3.25102e-06 0)
(6.23707e-06 -3.11893e-06 0)
(6.54418e-06 -2.98763e-06 0)
(6.84935e-06 -2.85671e-06 0)
(7.15257e-06 -2.72578e-06 0)
(7.45388e-06 -2.59446e-06 0)
(7.75334e-06 -2.46228e-06 0)
(8.05117e-06 -2.32891e-06 0)
(8.34754e-06 -2.19405e-06 0)
(8.6429e-06 -2.05746e-06 0)
(8.93744e-06 -1.91908e-06 0)
(9.23197e-06 -1.77902e-06 0)
(3.33467e-06 -4.47919e-06 0)
(3.64047e-06 -4.34364e-06 0)
(3.94814e-06 -4.20655e-06 0)
(4.25636e-06 -4.06868e-06 0)
(4.56524e-06 -3.93088e-06 0)
(4.87407e-06 -3.79359e-06 0)
(5.18266e-06 -3.65721e-06 0)
(5.49055e-06 -3.52186e-06 0)
(5.79755e-06 -3.3875e-06 0)
(6.10339e-06 -3.254e-06 0)
(6.40792e-06 -3.1212e-06 0)
(6.711e-06 -2.98875e-06 0)
(7.01259e-06 -2.85629e-06 0)
(7.31268e-06 -2.72357e-06 0)
(7.6113e-06 -2.59014e-06 0)
(7.90862e-06 -2.45578e-06 0)
(8.20478e-06 -2.3203e-06 0)
(8.50008e-06 -2.18353e-06 0)
(8.79479e-06 -2.04553e-06 0)
(9.08949e-06 -1.90648e-06 0)
(3.24671e-06 -4.6113e-06 0)
(3.54571e-06 -4.4774e-06 0)
(3.84683e-06 -4.34119e-06 0)
(4.14914e-06 -4.20397e-06 0)
(4.45255e-06 -4.0665e-06 0)
(4.75645e-06 -3.92919e-06 0)
(5.06063e-06 -3.79248e-06 0)
(5.36465e-06 -3.65654e-06 0)
(5.66827e-06 -3.52138e-06 0)
(5.97124e-06 -3.38692e-06 0)
(6.27337e-06 -3.25304e-06 0)
(6.57451e-06 -3.11947e-06 0)
(6.87457e-06 -2.9859e-06 0)
(7.17351e-06 -2.85211e-06 0)
(7.47133e-06 -2.71775e-06 0)
(7.76815e-06 -2.58268e-06 0)
(8.06406e-06 -2.44677e-06 0)
(8.35928e-06 -2.30992e-06 0)
(8.65404e-06 -2.17233e-06 0)
(8.94884e-06 -2.0342e-06 0)
(3.1556e-06 -4.73967e-06 0)
(3.44797e-06 -4.6069e-06 0)
(3.74288e-06 -4.47189e-06 0)
(4.04e-06 -4.33559e-06 0)
(4.33842e-06 -4.19861e-06 0)
(4.63797e-06 -4.06153e-06 0)
(4.9382e-06 -3.92478e-06 0)
(5.23879e-06 -3.78857e-06 0)
(5.53945e-06 -3.65296e-06 0)
(5.8399e-06 -3.51791e-06 0)
(6.13993e-06 -3.38334e-06 0)
(6.43936e-06 -3.249e-06 0)
(6.73808e-06 -3.11465e-06 0)
(7.036e-06 -2.98012e-06 0)
(7.3331e-06 -2.84512e-06 0)
(7.62947e-06 -2.70955e-06 0)
(7.92511e-06 -2.57333e-06 0)
(8.22026e-06 -2.43648e-06 0)
(8.51497e-06 -2.29928e-06 0)
(8.80979e-06 -2.16194e-06 0)
(3.05916e-06 -4.86413e-06 0)
(3.34591e-06 -4.73269e-06 0)
(3.63571e-06 -4.59914e-06 0)
(3.92781e-06 -4.4638e-06 0)
(4.22195e-06 -4.32753e-06 0)
(4.51765e-06 -4.19092e-06 0)
(4.81455e-06 -4.05441e-06 0)
(5.11225e-06 -3.91825e-06 0)
(5.41044e-06 -3.78252e-06 0)
(5.70881e-06 -3.6472e-06 0)
(6.00711e-06 -3.51226e-06 0)
(6.30511e-06 -3.37748e-06 0)
(6.60269e-06 -3.24265e-06 0)
(6.89977e-06 -3.10763e-06 0)
(7.19627e-06 -2.97221e-06 0)
(7.49222e-06 -2.83632e-06 0)
(7.78761e-06 -2.69991e-06 0)
(8.08269e-06 -2.56307e-06 0)
(8.3774e-06 -2.42618e-06 0)
(8.67213e-06 -2.28953e-06 0)
(2.95612e-06 -4.98605e-06 0)
(3.2377e-06 -4.8562e-06 0)
(3.52287e-06 -4.72378e-06 0)
(3.81091e-06 -4.5895e-06 0)
(4.10155e-06 -4.4541e-06 0)
(4.39424e-06 -4.31815e-06 0)
(4.68859e-06 -4.1821e-06 0)
(4.98415e-06 -4.04622e-06 0)
(5.28053e-06 -3.9106e-06 0)
(5.57737e-06 -3.77527e-06 0)
(5.87438e-06 -3.64019e-06 0)
(6.17135e-06 -3.50518e-06 0)
(6.46809e-06 -3.37008e-06 0)
(6.76448e-06 -3.23481e-06 0)
(7.06046e-06 -3.09912e-06 0)
(7.35607e-06 -2.96297e-06 0)
(7.6513e-06 -2.82646e-06 0)
(7.94624e-06 -2.68964e-06 0)
(8.24096e-06 -2.55293e-06 0)
(8.53564e-06 -2.41677e-06 0)
(2.84517e-06 -5.10442e-06 0)
(3.12224e-06 -4.97635e-06 0)
(3.40356e-06 -4.84556e-06 0)
(3.68847e-06 -4.71267e-06 0)
(3.97654e-06 -4.57843e-06 0)
(4.26718e-06 -4.44341e-06 0)
(4.55989e-06 -4.30809e-06 0)
(4.85412e-06 -4.17275e-06 0)
(5.14942e-06 -4.03746e-06 0)
(5.44538e-06 -3.90228e-06 0)
(5.74166e-06 -3.76726e-06 0)
(6.03796e-06 -3.63224e-06 0)
(6.33412e-06 -3.49702e-06 0)
(6.63002e-06 -3.36158e-06 0)
(6.92556e-06 -3.22578e-06 0)
(7.22083e-06 -3.08951e-06 0)
(7.5159e-06 -2.95292e-06 0)
(7.81075e-06 -2.81607e-06 0)
(8.10552e-06 -2.67942e-06 0)
(8.40023e-06 -2.54352e-06 0)
(2.12506e-07 -4.44548e-06 0)
(6.40545e-07 -4.37969e-06 0)
(1.07768e-06 -4.25076e-06 0)
(1.52909e-06 -4.06383e-06 0)
(1.99891e-06 -3.82609e-06 0)
(2.4898e-06 -3.54643e-06 0)
(3.00277e-06 -3.23506e-06 0)
(3.53692e-06 -2.9027e-06 0)
(4.09021e-06 -2.56021e-06 0)
(4.65846e-06 -2.21629e-06 0)
(2.06381e-07 -4.51623e-06 0)
(6.21722e-07 -4.45611e-06 0)
(1.04465e-06 -4.33822e-06 0)
(1.47955e-06 -4.1669e-06 0)
(1.92995e-06 -3.94828e-06 0)
(2.39811e-06 -3.68991e-06 0)
(2.88499e-06 -3.40047e-06 0)
(3.38967e-06 -3.08924e-06 0)
(3.90963e-06 -2.76606e-06 0)
(4.44172e-06 -2.43801e-06 0)
(2.00994e-07 -4.58868e-06 0)
(6.0513e-07 -4.53371e-06 0)
(1.01548e-06 -4.4258e-06 0)
(1.43556e-06 -4.26875e-06 0)
(1.86837e-06 -4.06785e-06 0)
(2.31578e-06 -3.82963e-06 0)
(2.77879e-06 -3.56153e-06 0)
(3.25711e-06 -3.27135e-06 0)
(3.74892e-06 -2.96763e-06 0)
(4.2522e-06 -2.6548e-06 0)
(1.96213e-07 -4.66297e-06 0)
(5.90413e-07 -4.61237e-06 0)
(9.89838e-07 -4.51299e-06 0)
(1.3973e-06 -4.36814e-06 0)
(1.81535e-06 -4.18248e-06 0)
(2.24548e-06 -3.96171e-06 0)
(2.68844e-06 -3.71243e-06 0)
(3.14399e-06 -3.44147e-06 0)
(3.61057e-06 -3.15679e-06 0)
(4.08645e-06 -2.86176e-06 0)
(1.91823e-07 -4.73907e-06 0)
(5.76881e-07 -4.69238e-06 0)
(9.66312e-07 -4.60064e-06 0)
(1.36237e-06 -4.46676e-06 0)
(1.76721e-06 -4.2949e-06 0)
(2.18206e-06 -4.09011e-06 0)
(2.60761e-06 -3.85825e-06 0)
(3.04363e-06 -3.6051e-06 0)
(3.48905e-06 -3.33791e-06 0)
(3.94141e-06 -3.05972e-06 0)
(1.87721e-07 -4.81686e-06 0)
(5.6436e-07 -4.77357e-06 0)
(9.44659e-07 -4.68846e-06 0)
(1.33051e-06 -4.56417e-06 0)
(1.72369e-06 -4.4044e-06 0)
(2.12519e-06 -4.21373e-06 0)
(2.53554e-06 -3.99747e-06 0)
(2.95439e-06 -3.76072e-06 0)
(3.38126e-06 -3.51003e-06 0)
(3.8131e-06 -3.24848e-06 0)
(1.83798e-07 -4.89626e-06 0)
(5.52439e-07 -4.856e-06 0)
(9.24158e-07 -4.7768e-06 0)
(1.30058e-06 -4.66108e-06 0)
(1.68315e-06 -4.51218e-06 0)
(2.07272e-06 -4.33423e-06 0)
(2.46972e-06 -4.13206e-06 0)
(2.87365e-06 -3.91024e-06 0)
(3.28448e-06 -3.67459e-06 0)
(3.69864e-06 -3.42853e-06 0)
(1.80043e-07 -4.97708e-06 0)
(5.40976e-07 -4.93949e-06 0)
(9.0456e-07 -4.86552e-06 0)
(1.27219e-06 -4.75739e-06 0)
(1.64503e-06 -4.61814e-06 0)
(2.02378e-06 -4.45156e-06 0)
(2.40886e-06 -4.26207e-06 0)
(2.79959e-06 -4.05387e-06 0)
(3.19632e-06 -3.83209e-06 0)
(3.59524e-06 -3.60044e-06 0)
(1.76357e-07 -5.05918e-06 0)
(5.29747e-07 -5.02398e-06 0)
(8.85474e-07 -4.95468e-06 0)
(1.24471e-06 -4.85335e-06 0)
(1.60847e-06 -4.72278e-06 0)
(1.97731e-06 -4.56641e-06 0)
(2.35161e-06 -4.38836e-06 0)
(2.73061e-06 -4.1925e-06 0)
(3.11486e-06 -3.98337e-06 0)
(3.50053e-06 -3.76488e-06 0)
(1.72665e-07 -5.14236e-06 0)
(5.18616e-07 -5.1093e-06 0)
(8.66653e-07 -5.04418e-06 0)
(1.21779e-06 -4.94894e-06 0)
(1.57291e-06 -4.82614e-06 0)
(1.93252e-06 -4.67898e-06 0)
(2.29692e-06 -4.51123e-06 0)
(2.66533e-06 -4.32658e-06 0)
(3.0384e-06 -4.129e-06 0)
(3.41244e-06 -3.92252e-06 0)
(1.68937e-07 -5.22642e-06 0)
(5.0745e-07 -5.19531e-06 0)
(8.47823e-07 -5.13396e-06 0)
(1.19102e-06 -5.04419e-06 0)
(1.53781e-06 -4.92842e-06 0)
(1.88865e-06 -4.78957e-06 0)
(2.24384e-06 -4.63114e-06 0)
(2.60256e-06 -4.45663e-06 0)
(2.96548e-06 -4.26956e-06 0)
(3.32918e-06 -4.07399e-06 0)
(1.65162e-07 -5.31115e-06 0)
(4.96126e-07 -5.2818e-06 0)
(8.2876e-07 -5.22386e-06 0)
(1.16406e-06 -5.13905e-06 0)
(1.50269e-06 -5.02962e-06 0)
(1.84508e-06 -4.8983e-06 0)
(2.19152e-06 -4.74833e-06 0)
(2.54122e-06 -4.58302e-06 0)
(2.89482e-06 -4.40554e-06 0)
(3.24922e-06 -4.21985e-06 0)
(1.61293e-07 -5.39633e-06 0)
(4.84477e-07 -5.36858e-06 0)
(8.09215e-07 -5.31375e-06 0)
(1.13654e-06 -5.23344e-06 0)
(1.46706e-06 -5.12979e-06 0)
(1.80116e-06 -5.00533e-06 0)
(2.13916e-06 -4.86305e-06 0)
(2.48033e-06 -4.7061e-06 0)
(2.82522e-06 -4.53735e-06 0)
(3.17114e-06 -4.36064e-06 0)
(1.5726e-07 -5.48167e-06 0)
(4.72337e-07 -5.45537e-06 0)
(7.88932e-07 -5.40339e-06 0)
(1.10809e-06 -5.32721e-06 0)
(1.4304e-06 -5.22884e-06 0)
(1.75625e-06 -5.11064e-06 0)
(2.08597e-06 -4.9754e-06 0)
(2.41892e-06 -4.82608e-06 0)
(2.75558e-06 -4.66533e-06 0)
(3.09359e-06 -4.49677e-06 0)
(1.52998e-07 -5.56693e-06 0)
(4.59546e-07 -5.54195e-06 0)
(7.67645e-07 -5.49261e-06 0)
(1.07831e-06 -5.42025e-06 0)
(1.3922e-06 -5.32674e-06 0)
(1.70969e-06 -5.21432e-06 0)
(2.03113e-06 -5.08554e-06 0)
(2.35602e-06 -4.94323e-06 0)
(2.68471e-06 -4.78981e-06 0)
(3.0152e-06 -4.62869e-06 0)
(1.4846e-07 -5.65163e-06 0)
(4.45963e-07 -5.62788e-06 0)
(7.45086e-07 -5.58101e-06 0)
(1.04684e-06 -5.5122e-06 0)
(1.35194e-06 -5.42323e-06 0)
(1.6608e-06 -5.31615e-06 0)
(1.97383e-06 -5.19338e-06 0)
(2.29064e-06 -5.05754e-06 0)
(2.61145e-06 -4.9109e-06 0)
(2.93467e-06 -4.75659e-06 0)
(1.43593e-07 -5.73564e-06 0)
(4.31397e-07 -5.71306e-06 0)
(7.20907e-07 -5.66851e-06 0)
(1.01315e-06 -5.60305e-06 0)
(1.30896e-06 -5.51833e-06 0)
(1.60879e-06 -5.41628e-06 0)
(1.9131e-06 -5.29914e-06 0)
(2.2216e-06 -5.16936e-06 0)
(2.53453e-06 -5.02902e-06 0)
(2.85047e-06 -4.88107e-06 0)
(1.38328e-07 -5.81801e-06 0)
(4.15626e-07 -5.79654e-06 0)
(6.94739e-07 -5.7542e-06 0)
(9.76752e-07 -5.69195e-06 0)
(1.26259e-06 -5.61129e-06 0)
(1.55281e-06 -5.51404e-06 0)
(1.84792e-06 -5.40225e-06 0)
(2.14774e-06 -5.27821e-06 0)
(2.45251e-06 -5.14384e-06 0)
(2.76112e-06 -5.00189e-06 0)
(1.32548e-07 -5.89917e-06 0)
(3.98308e-07 -5.87879e-06 0)
(6.66022e-07 -5.83859e-06 0)
(9.3687e-07 -5.77944e-06 0)
(1.21186e-06 -5.70272e-06 0)
(1.49169e-06 -5.61011e-06 0)
(1.7769e-06 -5.50347e-06 0)
(2.06751e-06 -5.38495e-06 0)
(2.36371e-06 -5.25634e-06 0)
(2.66475e-06 -5.12012e-06 0)
(1.26198e-07 -5.97655e-06 0)
(3.79302e-07 -5.95726e-06 0)
(6.34516e-07 -5.91918e-06 0)
(8.93126e-07 -5.86313e-06 0)
(1.15627e-06 -5.79034e-06 0)
(1.42478e-06 -5.70236e-06 0)
(1.69928e-06 -5.6009e-06 0)
(1.98003e-06 -5.4879e-06 0)
(2.26716e-06 -5.36507e-06 0)
(2.56028e-06 -5.23463e-06 0)
)


// ************************************************************************* //
