/*--------------------------------*- C++ -*----------------------------------*\
| =========                 |                                                 |
| \\      /  F ield         | foam-extend: Open Source CFD                    |
|  \\    /   O peration     | Version:     4.1                                |
|   \\  /    A nd           | Web:         http://www.foam-extend.org         |
|    \\/     M anipulation  |                                                 |
\*---------------------------------------------------------------------------*/
FoamFile
{
    version     2.0;
    format      ascii;
    class       vectorField;
    location    "10";
    object      solidsCellD_iteration4;
}
// * * * * * * * * * * * * * * * * * * * * * * * * * * * * * * * * * * * * * //


1000
(
(5.14739e-06 -2.1727e-06 0)
(4.8593e-06 -2.02282e-06 0)
(4.67541e-06 -1.92808e-06 0)
(4.57032e-06 -1.88419e-06 0)
(4.51944e-06 -1.8693e-06 0)
(4.50816e-06 -1.87686e-06 0)
(4.52599e-06 -1.89909e-06 0)
(4.56577e-06 -1.93228e-06 0)
(4.62166e-06 -1.97295e-06 0)
(4.68962e-06 -2.01953e-06 0)
(4.65476e-06 -2.37306e-06 0)
(4.34773e-06 -2.26899e-06 0)
(4.1518e-06 -2.20331e-06 0)
(4.03786e-06 -2.17919e-06 0)
(3.98012e-06 -2.17745e-06 0)
(3.96248e-06 -2.19437e-06 0)
(3.97411e-06 -2.22336e-06 0)
(4.00732e-06 -2.26152e-06 0)
(4.05621e-06 -2.30633e-06 0)
(4.11622e-06 -2.35499e-06 0)
(4.14258e-06 -2.56299e-06 0)
(3.82882e-06 -2.51011e-06 0)
(3.62881e-06 -2.4768e-06 0)
(3.51087e-06 -2.47448e-06 0)
(3.44922e-06 -2.487e-06 0)
(3.42712e-06 -2.51382e-06 0)
(3.43366e-06 -2.54968e-06 0)
(3.46115e-06 -2.59265e-06 0)
(3.50363e-06 -2.64123e-06 0)
(3.55676e-06 -2.69229e-06 0)
(3.61498e-06 -2.7391e-06 0)
(3.30756e-06 -2.73992e-06 0)
(3.11173e-06 -2.74055e-06 0)
(2.99512e-06 -2.76093e-06 0)
(2.93277e-06 -2.78826e-06 0)
(2.90824e-06 -2.82517e-06 0)
(2.91096e-06 -2.86787e-06 0)
(2.93335e-06 -2.91566e-06 0)
(2.96995e-06 -2.96786e-06 0)
(3.01626e-06 -3.02153e-06 0)
(3.07536e-06 -2.89792e-06 0)
(2.78749e-06 -2.95195e-06 0)
(2.60413e-06 -2.98629e-06 0)
(2.49424e-06 -3.02908e-06 0)
(2.43461e-06 -3.07089e-06 0)
(2.40967e-06 -3.11765e-06 0)
(2.4097e-06 -3.16699e-06 0)
(2.42755e-06 -3.21946e-06 0)
(2.45846e-06 -3.27507e-06 0)
(2.49795e-06 -3.3315e-06 0)
(2.52665e-06 -3.03617e-06 0)
(2.2709e-06 -3.13999e-06 0)
(2.1081e-06 -3.20585e-06 0)
(2.01007e-06 -3.26956e-06 0)
(1.95633e-06 -3.32491e-06 0)
(1.93285e-06 -3.38085e-06 0)
(1.93127e-06 -3.4363e-06 0)
(1.94516e-06 -3.49313e-06 0)
(1.97048e-06 -3.55186e-06 0)
(2.00299e-06 -3.61101e-06 0)
(1.97124e-06 -3.1508e-06 0)
(1.75914e-06 -3.29824e-06 0)
(1.62415e-06 -3.39174e-06 0)
(1.54256e-06 -3.47376e-06 0)
(1.49747e-06 -3.54092e-06 0)
(1.47723e-06 -3.60487e-06 0)
(1.47498e-06 -3.66564e-06 0)
(1.48533e-06 -3.72632e-06 0)
(1.50506e-06 -3.78779e-06 0)
(1.53046e-06 -3.84946e-06 0)
(1.41115e-06 -3.2392e-06 0)
(1.25231e-06 -3.42167e-06 0)
(1.15123e-06 -3.53737e-06 0)
(1.09001e-06 -3.63407e-06 0)
(1.05596e-06 -3.71072e-06 0)
(1.04038e-06 -3.78109e-06 0)
(1.0382e-06 -3.84615e-06 0)
(1.04535e-06 -3.90994e-06 0)
(1.05947e-06 -3.97358e-06 0)
(1.07765e-06 -4.03734e-06 0)
(8.4803e-07 -3.29929e-06 0)
(7.4971e-07 -3.50625e-06 0)
(6.87111e-07 -3.63748e-06 0)
(6.49082e-07 -3.74447e-06 0)
(6.27838e-07 -3.82776e-06 0)
(6.18058e-07 -3.90263e-06 0)
(6.16542e-07 -3.9707e-06 0)
(6.20698e-07 -4.03668e-06 0)
(6.29133e-07 -4.1019e-06 0)
(6.40039e-07 -4.16721e-06 0)
(2.83236e-07 -3.32957e-06 0)
(2.49866e-07 -3.54914e-06 0)
(2.28612e-07 -3.68842e-06 0)
(2.15719e-07 -3.80072e-06 0)
(2.0849e-07 -3.88743e-06 0)
(2.05091e-07 -3.96461e-06 0)
(2.045e-07 -4.03423e-06 0)
(2.05858e-07 -4.10133e-06 0)
(2.08657e-07 -4.16733e-06 0)
(2.1227e-07 -4.23341e-06 0)
(8.02948e-06 -9.924e-08 0)
(8.10231e-06 -7.1634e-08 0)
(8.14679e-06 -5.4133e-08 0)
(8.19496e-06 -4.3838e-08 0)
(8.24745e-06 -3.81384e-08 0)
(8.31177e-06 -3.55096e-08 0)
(8.38772e-06 -3.49144e-08 0)
(8.47615e-06 -3.57062e-08 0)
(8.5768e-06 -3.74828e-08 0)
(8.68837e-06 -3.95737e-08 0)
(7.9701e-06 -2.97668e-07 0)
(8.03089e-06 -2.16462e-07 0)
(8.06787e-06 -1.65137e-07 0)
(8.111e-06 -1.35041e-07 0)
(8.16017e-06 -1.18383e-07 0)
(8.22211e-06 -1.10796e-07 0)
(8.29636e-06 -1.09274e-07 0)
(8.38344e-06 -1.11749e-07 0)
(8.48295e-06 -1.17054e-07 0)
(8.59326e-06 -1.2337e-07 0)
(7.85141e-06 -4.9782e-07 0)
(7.8893e-06 -3.6742e-07 0)
(7.91182e-06 -2.8506e-07 0)
(7.94539e-06 -2.36943e-07 0)
(7.98822e-06 -2.1047e-07 0)
(8.04571e-06 -1.98565e-07 0)
(8.1167e-06 -1.96406e-07 0)
(8.20106e-06 -2.00716e-07 0)
(8.29833e-06 -2.09591e-07 0)
(8.40622e-06 -2.20183e-07 0)
(7.67557e-06 -7.00435e-07 0)
(7.68096e-06 -5.27963e-07 0)
(7.68283e-06 -4.19048e-07 0)
(7.70281e-06 -3.55699e-07 0)
(7.73661e-06 -3.21076e-07 0)
(7.78763e-06 -3.05863e-07 0)
(7.85393e-06 -3.03624e-07 0)
(7.93453e-06 -3.1006e-07 0)
(8.02865e-06 -3.22538e-07 0)
(8.13319e-06 -3.37423e-07 0)
(7.4453e-06 -9.0611e-07 0)
(7.41052e-06 -7.01004e-07 0)
(7.38689e-06 -5.7146e-07 0)
(7.38992e-06 -4.96608e-07 0)
(7.41255e-06 -4.56083e-07 0)
(7.45564e-06 -4.38925e-07 0)
(7.51611e-06 -4.37347e-07 0)
(7.59201e-06 -4.46244e-07 0)
(7.68216e-06 -4.62337e-07 0)
(7.78259e-06 -4.81532e-07 0)
(7.16414e-06 -1.1149e-06 0)
(7.08384e-06 -8.88361e-07 0)
(7.03135e-06 -7.45222e-07 0)
(7.0152e-06 -6.63319e-07 0)
(7.02515e-06 -6.19601e-07 0)
(7.05922e-06 -6.02102e-07 0)
(7.11304e-06 -6.02012e-07 0)
(7.18354e-06 -6.13757e-07 0)
(7.26911e-06 -6.33499e-07 0)
(7.36501e-06 -6.57016e-07 0)
(6.83612e-06 -1.32641e-06 0)
(6.70777e-06 -1.09078e-06 0)
(6.62487e-06 -9.41847e-07 0)
(6.58844e-06 -8.57819e-07 0)
(6.58488e-06 -8.13911e-07 0)
(6.60931e-06 -7.97848e-07 0)
(6.65595e-06 -8.00199e-07 0)
(6.72059e-06 -8.15253e-07 0)
(6.80112e-06 -8.38768e-07 0)
(6.89229e-06 -8.66608e-07 0)
(6.46569e-06 -1.5397e-06 0)
(6.28966e-06 -1.30779e-06 0)
(6.17658e-06 -1.16116e-06 0)
(6.11995e-06 -1.08009e-06 0)
(6.10281e-06 -1.0391e-06 0)
(6.11745e-06 -1.02634e-06 0)
(6.15671e-06 -1.03214e-06 0)
(6.21535e-06 -1.05101e-06 0)
(6.29054e-06 -1.0784e-06 0)
(6.37693e-06 -1.11063e-06 0)
(6.05758e-06 -1.75328e-06 0)
(5.83721e-06 -1.53766e-06 0)
(5.69616e-06 -1.40127e-06 0)
(5.62065e-06 -1.32817e-06 0)
(5.59068e-06 -1.29318e-06 0)
(5.59587e-06 -1.28558e-06 0)
(5.62777e-06 -1.29592e-06 0)
(5.68035e-06 -1.31906e-06 0)
(5.74978e-06 -1.35067e-06 0)
(5.83141e-06 -1.38718e-06 0)
(5.61659e-06 -1.96508e-06 0)
(5.35798e-06 -1.77735e-06 0)
(5.1928e-06 -1.65861e-06 0)
(5.1008e-06 -1.59814e-06 0)
(5.05939e-06 -1.57199e-06 0)
(5.05576e-06 -1.57128e-06 0)
(5.08051e-06 -1.58715e-06 0)
(5.12697e-06 -1.61524e-06 0)
(5.19057e-06 -1.65131e-06 0)
(5.26707e-06 -1.69353e-06 0)
(8.81101e-06 -4.16681e-08 0)
(8.94472e-06 -4.21256e-08 0)
(9.08693e-06 -4.26686e-08 0)
(9.23715e-06 -4.30427e-08 0)
(9.39439e-06 -4.32071e-08 0)
(9.55806e-06 -4.31529e-08 0)
(9.72752e-06 -4.28518e-08 0)
(9.9021e-06 -4.23073e-08 0)
(1.00812e-05 -4.14736e-08 0)
(1.02641e-05 -4.03224e-08 0)
(1.04505e-05 -3.8831e-08 0)
(1.06398e-05 -3.69864e-08 0)
(1.08314e-05 -3.47675e-08 0)
(1.10247e-05 -3.21398e-08 0)
(1.12193e-05 -2.9048e-08 0)
(1.14144e-05 -2.54322e-08 0)
(1.16096e-05 -2.12211e-08 0)
(1.18035e-05 -1.63384e-08 0)
(1.19966e-05 -1.0664e-08 0)
(1.21855e-05 -4.15599e-09 0)
(8.72013e-06 -1.29266e-07 0)
(8.86144e-06 -1.30065e-07 0)
(9.01045e-06 -1.31153e-07 0)
(9.16656e-06 -1.31839e-07 0)
(9.32911e-06 -1.31976e-07 0)
(9.4975e-06 -1.31542e-07 0)
(9.67116e-06 -1.30395e-07 0)
(9.84952e-06 -1.28516e-07 0)
(1.0032e-05 -1.25794e-07 0)
(1.02182e-05 -1.22186e-07 0)
(1.04075e-05 -1.17625e-07 0)
(1.05994e-05 -1.12043e-07 0)
(1.07935e-05 -1.05342e-07 0)
(1.09892e-05 -9.74065e-08 0)
(1.11861e-05 -8.80836e-08 0)
(1.13833e-05 -7.72094e-08 0)
(1.15805e-05 -6.45698e-08 0)
(1.17764e-05 -4.99362e-08 0)
(1.19715e-05 -3.29438e-08 0)
(1.21624e-05 -1.34512e-08 0)
(8.5413e-06 -2.28561e-07 0)
(8.69749e-06 -2.27987e-07 0)
(8.8599e-06 -2.28086e-07 0)
(9.0276e-06 -2.2793e-07 0)
(9.20048e-06 -2.27071e-07 0)
(9.37802e-06 -2.25487e-07 0)
(9.56e-06 -2.22864e-07 0)
(9.74587e-06 -2.19153e-07 0)
(9.9352e-06 -2.14152e-07 0)
(1.01276e-05 -2.07783e-07 0)
(1.03226e-05 -1.99911e-07 0)
(1.05199e-05 -1.90395e-07 0)
(1.07191e-05 -1.79059e-07 0)
(1.09195e-05 -1.65701e-07 0)
(1.11208e-05 -1.50071e-07 0)
(1.13222e-05 -1.31893e-07 0)
(1.15235e-05 -1.10799e-07 0)
(1.17234e-05 -8.64191e-08 0)
(1.19223e-05 -5.81445e-08 0)
(1.21171e-05 -2.57233e-08 0)
(8.28003e-06 -3.46209e-07 0)
(8.4576e-06 -3.41603e-07 0)
(8.63931e-06 -3.38292e-07 0)
(8.8238e-06 -3.35467e-07 0)
(9.01181e-06 -3.32086e-07 0)
(9.20279e-06 -3.28136e-07 0)
(9.39687e-06 -3.23043e-07 0)
(9.59363e-06 -3.16698e-07 0)
(9.79293e-06 -3.08784e-07 0)
(9.99447e-06 -2.99158e-07 0)
(1.0198e-05 -2.87588e-07 0)
(1.04032e-05 -2.73841e-07 0)
(1.06096e-05 -2.57642e-07 0)
(1.08169e-05 -2.38706e-07 0)
(1.10247e-05 -2.16679e-07 0)
(1.12324e-05 -1.91153e-07 0)
(1.14397e-05 -1.61602e-07 0)
(1.16454e-05 -1.27504e-07 0)
(1.185e-05 -8.79984e-08 0)
(1.20505e-05 -4.27265e-08 0)
(7.94398e-06 -4.88131e-07 0)
(8.14839e-06 -4.76104e-07 0)
(8.35468e-06 -4.66264e-07 0)
(8.56056e-06 -4.58362e-07 0)
(8.7679e-06 -4.50433e-07 0)
(8.97607e-06 -4.42487e-07 0)
(9.18576e-06 -4.33617e-07 0)
(9.39661e-06 -4.23592e-07 0)
(9.60882e-06 -4.11935e-07 0)
(9.8222e-06 -3.98382e-07 0)
(1.00366e-05 -3.82571e-07 0)
(1.02519e-05 -3.64163e-07 0)
(1.04678e-05 -3.42786e-07 0)
(1.0684e-05 -3.18051e-07 0)
(1.09002e-05 -2.89482e-07 0)
(1.11159e-05 -2.56532e-07 0)
(1.1331e-05 -2.18519e-07 0)
(1.15442e-05 -1.74752e-07 0)
(1.17562e-05 -1.24117e-07 0)
(1.1964e-05 -6.61242e-08 0)
(7.54293e-06 -6.58521e-07 0)
(7.77826e-06 -6.35162e-07 0)
(8.01325e-06 -6.15129e-07 0)
(8.24424e-06 -5.99238e-07 0)
(8.47451e-06 -5.84361e-07 0)
(8.70318e-06 -5.70469e-07 0)
(8.93156e-06 -5.56257e-07 0)
(9.15935e-06 -5.41272e-07 0)
(9.38701e-06 -5.24847e-07 0)
(9.61456e-06 -5.06549e-07 0)
(9.84211e-06 -4.8587e-07 0)
(1.00696e-05 -4.62334e-07 0)
(1.02968e-05 -4.35447e-07 0)
(1.05237e-05 -4.04696e-07 0)
(1.07501e-05 -3.69459e-07 0)
(1.09754e-05 -3.29043e-07 0)
(1.11997e-05 -2.82605e-07 0)
(1.14219e-05 -2.29281e-07 0)
(1.16428e-05 -1.67686e-07 0)
(1.18594e-05 -9.7166e-08 0)
(7.08782e-06 -8.60116e-07 0)
(7.35682e-06 -8.21383e-07 0)
(7.62361e-06 -7.87482e-07 0)
(7.88266e-06 -7.60507e-07 0)
(8.13865e-06 -7.36187e-07 0)
(8.39051e-06 -7.14227e-07 0)
(8.63992e-06 -6.92943e-07 0)
(8.88692e-06 -6.71569e-07 0)
(9.1322e-06 -6.49222e-07 0)
(9.37598e-06 -6.25238e-07 0)
(9.61852e-06 -5.98942e-07 0)
(9.85991e-06 -5.69697e-07 0)
(1.01002e-05 -5.36862e-07 0)
(1.03393e-05 -4.99783e-07 0)
(1.05772e-05 -4.5768e-07 0)
(1.08135e-05 -4.09715e-07 0)
(1.10484e-05 -3.54872e-07 0)
(1.1281e-05 -2.92091e-07 0)
(1.15119e-05 -2.19714e-07 0)
(1.17386e-05 -1.36917e-07 0)
(6.59004e-06 -1.09339e-06 0)
(6.89395e-06 -1.03494e-06 0)
(7.19417e-06 -9.83556e-07 0)
(7.48338e-06 -9.42066e-07 0)
(7.76706e-06 -9.05616e-07 0)
(8.04425e-06 -8.73239e-07 0)
(8.31676e-06 -8.43014e-07 0)
(8.58495e-06 -8.13745e-07 0)
(8.84968e-06 -7.84298e-07 0)
(9.11141e-06 -7.53715e-07 0)
(9.37055e-06 -7.21118e-07 0)
(9.62732e-06 -6.85671e-07 0)
(9.88194e-06 -6.46564e-07 0)
(1.01345e-05 -6.02972e-07 0)
(1.03851e-05 -5.53946e-07 0)
(1.06336e-05 -4.98487e-07 0)
(1.08803e-05 -4.35377e-07 0)
(1.11241e-05 -3.6336e-07 0)
(1.13662e-05 -2.80493e-07 0)
(1.16041e-05 -1.85784e-07 0)
(6.06161e-06 -1.35804e-06 0)
(6.40085e-06 -1.27606e-06 0)
(6.73472e-06 -1.20482e-06 0)
(7.05523e-06 -1.14586e-06 0)
(7.36761e-06 -1.095e-06 0)
(7.67136e-06 -1.05009e-06 0)
(7.96822e-06 -1.00911e-06 0)
(8.2589e-06 -9.70369e-07 0)
(8.54434e-06 -9.32458e-07 0)
(8.82521e-06 -8.94133e-07 0)
(9.1021e-06 -8.54289e-07 0)
(9.37537e-06 -8.11888e-07 0)
(9.64543e-06 -7.65934e-07 0)
(9.91253e-06 -7.15415e-07 0)
(1.01769e-05 -6.592e-07 0)
(1.04385e-05 -5.96116e-07 0)
(1.06976e-05 -5.24736e-07 0)
(1.09537e-05 -4.436e-07 0)
(1.12078e-05 -3.50508e-07 0)
(1.14578e-05 -2.4433e-07 0)
(5.51234e-06 -1.64978e-06 0)
(5.88726e-06 -1.53905e-06 0)
(6.25355e-06 -1.44554e-06 0)
(6.60625e-06 -1.36619e-06 0)
(6.94807e-06 -1.29831e-06 0)
(7.27951e-06 -1.23879e-06 0)
(7.60184e-06 -1.18536e-06 0)
(7.91606e-06 -1.1359e-06 0)
(8.2232e-06 -1.08861e-06 0)
(8.52413e-06 -1.04192e-06 0)
(8.81958e-06 -9.94428e-07 0)
(9.11011e-06 -9.44851e-07 0)
(9.39627e-06 -8.91967e-07 0)
(9.6785e-06 -8.3456e-07 0)
(9.95709e-06 -7.71305e-07 0)
(1.02323e-05 -7.00852e-07 0)
(1.05044e-05 -6.21561e-07 0)
(1.07732e-05 -5.31781e-07 0)
(1.10397e-05 -4.29062e-07 0)
(1.13023e-05 -3.12097e-07 0)
(5.10397e-06 -1.92957e-06 0)
(5.50372e-06 -1.79489e-06 0)
(5.88964e-06 -1.68469e-06 0)
(6.26195e-06 -1.58924e-06 0)
(6.62202e-06 -1.50653e-06 0)
(6.97082e-06 -1.43343e-06 0)
(7.30954e-06 -1.3676e-06 0)
(7.63915e-06 -1.30682e-06 0)
(7.96067e-06 -1.24917e-06 0)
(8.27498e-06 -1.19297e-06 0)
(8.58283e-06 -1.13665e-06 0)
(8.88483e-06 -1.07879e-06 0)
(9.18163e-06 -1.01803e-06 0)
(9.47373e-06 -9.53022e-07 0)
(9.76152e-06 -8.82316e-07 0)
(1.00454e-05 -8.04453e-07 0)
(1.03257e-05 -7.17694e-07 0)
(1.06025e-05 -6.20318e-07 0)
(1.08768e-05 -5.0982e-07 0)
(1.11475e-05 -3.84846e-07 0)
(4.87047e-06 -2.15645e-06 0)
(5.27257e-06 -2.01632e-06 0)
(5.66182e-06 -1.89659e-06 0)
(6.03925e-06 -1.7911e-06 0)
(6.40513e-06 -1.69796e-06 0)
(6.76017e-06 -1.61453e-06 0)
(7.1052e-06 -1.53858e-06 0)
(7.44103e-06 -1.46804e-06 0)
(7.76851e-06 -1.40106e-06 0)
(8.08841e-06 -1.33597e-06 0)
(8.40141e-06 -1.2712e-06 0)
(8.70811e-06 -1.20532e-06 0)
(9.00918e-06 -1.13692e-06 0)
(9.30512e-06 -1.06464e-06 0)
(9.59634e-06 -9.87007e-07 0)
(9.88334e-06 -9.02559e-07 0)
(1.01666e-05 -8.09576e-07 0)
(1.04462e-05 -7.06398e-07 0)
(1.07232e-05 -5.90641e-07 0)
(1.0997e-05 -4.61002e-07 0)
(4.6708e-06 -2.37432e-06 0)
(5.06878e-06 -2.23099e-06 0)
(5.45724e-06 -2.10509e-06 0)
(5.83542e-06 -1.9919e-06 0)
(6.20349e-06 -1.89009e-06 0)
(6.56154e-06 -1.79757e-06 0)
(6.91015e-06 -1.71238e-06 0)
(7.24984e-06 -1.6327e-06 0)
(7.58127e-06 -1.5568e-06 0)
(7.90506e-06 -1.48308e-06 0)
(8.2218e-06 -1.41003e-06 0)
(8.53204e-06 -1.33622e-06 0)
(8.83643e-06 -1.26028e-06 0)
(9.13545e-06 -1.18082e-06 0)
(9.42951e-06 -1.09641e-06 0)
(9.7192e-06 -1.0056e-06 0)
(1.00049e-05 -9.0675e-07 0)
(1.02871e-05 -7.98275e-07 0)
(1.05667e-05 -6.77944e-07 0)
(1.08435e-05 -5.44514e-07 0)
(4.4947e-06 -2.58386e-06 0)
(4.8868e-06 -2.43897e-06 0)
(5.2718e-06 -2.30855e-06 0)
(5.64805e-06 -2.18915e-06 0)
(6.01568e-06 -2.07999e-06 0)
(6.37431e-06 -1.97945e-06 0)
(6.72432e-06 -1.88593e-06 0)
(7.06592e-06 -1.79783e-06 0)
(7.3996e-06 -1.71359e-06 0)
(7.72582e-06 -1.63172e-06 0)
(8.04507e-06 -1.55078e-06 0)
(8.35781e-06 -1.4694e-06 0)
(8.66466e-06 -1.38625e-06 0)
(8.96605e-06 -1.29996e-06 0)
(9.2624e-06 -1.20917e-06 0)
(9.55433e-06 -1.11246e-06 0)
(9.84226e-06 -1.0083e-06 0)
(1.01267e-05 -8.95186e-07 0)
(1.04086e-05 -7.71058e-07 0)
(1.06881e-05 -6.34789e-07 0)
(4.33934e-06 -2.78462e-06 0)
(4.72405e-06 -2.63928e-06 0)
(5.10368e-06 -2.50589e-06 0)
(5.47602e-06 -2.38183e-06 0)
(5.84115e-06 -2.26671e-06 0)
(6.19842e-06 -2.15938e-06 0)
(6.54798e-06 -2.05856e-06 0)
(6.88981e-06 -1.96289e-06 0)
(7.22422e-06 -1.871e-06 0)
(7.55157e-06 -1.78155e-06 0)
(7.87219e-06 -1.69321e-06 0)
(8.18647e-06 -1.60469e-06 0)
(8.49498e-06 -1.51471e-06 0)
(8.79808e-06 -1.42199e-06 0)
(9.0962e-06 -1.3252e-06 0)
(9.38994e-06 -1.22303e-06 0)
(9.67973e-06 -1.11404e-06 0)
(9.96619e-06 -9.96853e-07 0)
(1.02501e-05 -8.69578e-07 0)
(1.05321e-05 -7.31305e-07 0)
(4.20098e-06 -2.97666e-06 0)
(4.57754e-06 -2.83179e-06 0)
(4.95064e-06 -2.69653e-06 0)
(5.3177e-06 -2.56897e-06 0)
(5.67886e-06 -2.44908e-06 0)
(6.03327e-06 -2.33604e-06 0)
(6.38091e-06 -2.22888e-06 0)
(6.72158e-06 -2.1265e-06 0)
(7.05547e-06 -2.02773e-06 0)
(7.3828e-06 -1.93137e-06 0)
(7.7038e-06 -1.83622e-06 0)
(8.01876e-06 -1.74109e-06 0)
(8.3282e-06 -1.64479e-06 0)
(8.6324e-06 -1.54612e-06 0)
(8.93179e-06 -1.44383e-06 0)
(9.22693e-06 -1.33671e-06 0)
(9.51825e-06 -1.22342e-06 0)
(9.80642e-06 -1.10272e-06 0)
(1.00922e-05 -9.72964e-07 0)
(1.03764e-05 -8.33459e-07 0)
(4.07681e-06 -3.16031e-06 0)
(4.44476e-06 -3.01651e-06 0)
(4.81058e-06 -2.88026e-06 0)
(5.17143e-06 -2.75021e-06 0)
(5.52758e-06 -2.62658e-06 0)
(5.87801e-06 -2.50885e-06 0)
(6.22261e-06 -2.39632e-06 0)
(6.56103e-06 -2.2881e-06 0)
(6.89338e-06 -2.18322e-06 0)
(7.21976e-06 -2.08066e-06 0)
(7.54029e-06 -1.97934e-06 0)
(7.8552e-06 -1.87818e-06 0)
(8.16493e-06 -1.77611e-06 0)
(8.46968e-06 -1.672e-06 0)
(8.76987e-06 -1.56471e-06 0)
(9.06602e-06 -1.45312e-06 0)
(9.35855e-06 -1.33604e-06 0)
(9.64816e-06 -1.21237e-06 0)
(9.93558e-06 -1.08073e-06 0)
(1.02217e-05 -9.40587e-07 0)
(3.96423e-06 -3.33594e-06 0)
(4.32346e-06 -3.19364e-06 0)
(4.68155e-06 -3.05706e-06 0)
(5.03564e-06 -2.92532e-06 0)
(5.38607e-06 -2.79884e-06 0)
(5.73172e-06 -2.6773e-06 0)
(6.07244e-06 -2.56025e-06 0)
(6.40778e-06 -2.44702e-06 0)
(6.73778e-06 -2.3368e-06 0)
(7.06244e-06 -2.22876e-06 0)
(7.38181e-06 -2.12192e-06 0)
(7.69604e-06 -2.01536e-06 0)
(8.00549e-06 -1.90809e-06 0)
(8.31031e-06 -1.79908e-06 0)
(8.61089e-06 -1.68731e-06 0)
(8.90771e-06 -1.57176e-06 0)
(9.20115e-06 -1.45139e-06 0)
(9.49194e-06 -1.32527e-06 0)
(9.78073e-06 -1.19229e-06 0)
(1.00684e-05 -1.05192e-06 0)
(3.86097e-06 -3.50407e-06 0)
(4.21154e-06 -3.36354e-06 0)
(4.56171e-06 -3.22712e-06 0)
(4.90875e-06 -3.09433e-06 0)
(5.25299e-06 -2.9657e-06 0)
(5.59334e-06 -2.84113e-06 0)
(5.92958e-06 -2.72034e-06 0)
(6.26124e-06 -2.60286e-06 0)
(6.58828e-06 -2.48805e-06 0)
(6.91064e-06 -2.37522e-06 0)
(7.22829e-06 -2.26355e-06 0)
(7.54132e-06 -2.1522e-06 0)
(7.85003e-06 -2.04032e-06 0)
(8.15451e-06 -1.92695e-06 0)
(8.45512e-06 -1.81122e-06 0)
(8.7523e-06 -1.69221e-06 0)
(9.04639e-06 -1.56905e-06 0)
(9.33813e-06 -1.44096e-06 0)
(9.62803e-06 -1.30703e-06 0)
(9.9171e-06 -1.16681e-06 0)
(3.76499e-06 -3.66527e-06 0)
(4.10707e-06 -3.52664e-06 0)
(4.44932e-06 -3.39071e-06 0)
(4.78921e-06 -3.25734e-06 0)
(5.12702e-06 -3.12715e-06 0)
(5.46174e-06 -3.00018e-06 0)
(5.79313e-06 -2.87634e-06 0)
(6.1207e-06 -2.75531e-06 0)
(6.44435e-06 -2.63662e-06 0)
(6.76398e-06 -2.51969e-06 0)
(7.07948e-06 -2.40384e-06 0)
(7.39092e-06 -2.28834e-06 0)
(7.69851e-06 -2.17242e-06 0)
(8.00232e-06 -2.05526e-06 0)
(8.30267e-06 -1.93608e-06 0)
(8.59995e-06 -1.81412e-06 0)
(8.89448e-06 -1.68864e-06 0)
(9.18692e-06 -1.559e-06 0)
(9.47772e-06 -1.42442e-06 0)
(9.76789e-06 -1.28468e-06 0)
(3.67448e-06 -3.82011e-06 0)
(4.00832e-06 -3.6834e-06 0)
(4.34278e-06 -3.54817e-06 0)
(4.67552e-06 -3.41456e-06 0)
(5.00683e-06 -3.28327e-06 0)
(5.33579e-06 -3.15447e-06 0)
(5.66214e-06 -3.02821e-06 0)
(5.98536e-06 -2.90428e-06 0)
(6.30535e-06 -2.78236e-06 0)
(6.62195e-06 -2.66199e-06 0)
(6.93501e-06 -2.54258e-06 0)
(7.24456e-06 -2.42351e-06 0)
(7.55077e-06 -2.30413e-06 0)
(7.85365e-06 -2.18371e-06 0)
(8.15352e-06 -2.0616e-06 0)
(8.4507e-06 -1.93716e-06 0)
(8.74545e-06 -1.80978e-06 0)
(9.03839e-06 -1.67891e-06 0)
(9.3299e-06 -1.54396e-06 0)
(9.62095e-06 -1.40494e-06 0)
(3.58784e-06 -3.96912e-06 0)
(3.91372e-06 -3.83426e-06 0)
(4.24057e-06 -3.69986e-06 0)
(4.5663e-06 -3.56628e-06 0)
(4.89118e-06 -3.43429e-06 0)
(5.21437e-06 -3.30414e-06 0)
(5.53561e-06 -3.176e-06 0)
(5.85438e-06 -3.04976e-06 0)
(6.17055e-06 -2.9252e-06 0)
(6.48396e-06 -2.80197e-06 0)
(6.7944e-06 -2.67957e-06 0)
(7.10187e-06 -2.5575e-06 0)
(7.40651e-06 -2.43519e-06 0)
(7.70831e-06 -2.31203e-06 0)
(8.00753e-06 -2.18748e-06 0)
(8.30445e-06 -2.061e-06 0)
(8.59925e-06 -1.93207e-06 0)
(8.89252e-06 -1.80025e-06 0)
(9.18455e-06 -1.66522e-06 0)
(9.47629e-06 -1.52698e-06 0)
(3.50355e-06 -4.11279e-06 0)
(3.8218e-06 -3.97966e-06 0)
(4.1413e-06 -3.84617e-06 0)
(4.46023e-06 -3.71284e-06 0)
(4.77885e-06 -3.58046e-06 0)
(5.09637e-06 -3.44938e-06 0)
(5.41254e-06 -3.31982e-06 0)
(5.72688e-06 -3.19176e-06 0)
(6.03921e-06 -3.06511e-06 0)
(6.34935e-06 -2.93956e-06 0)
(6.65709e-06 -2.81473e-06 0)
(6.9624e-06 -2.6902e-06 0)
(7.26539e-06 -2.56549e-06 0)
(7.56602e-06 -2.4401e-06 0)
(7.86447e-06 -2.31356e-06 0)
(8.161e-06 -2.18541e-06 0)
(8.45572e-06 -2.05524e-06 0)
(8.74918e-06 -1.92275e-06 0)
(9.04159e-06 -1.78783e-06 0)
(9.33383e-06 -1.6504e-06 0)
(3.42024e-06 -4.25152e-06 0)
(3.73119e-06 -4.12004e-06 0)
(4.04366e-06 -3.98749e-06 0)
(4.35607e-06 -3.85456e-06 0)
(4.66864e-06 -3.72206e-06 0)
(4.9807e-06 -3.59037e-06 0)
(5.29196e-06 -3.45982e-06 0)
(5.60197e-06 -3.33043e-06 0)
(5.91053e-06 -3.20217e-06 0)
(6.21745e-06 -3.07482e-06 0)
(6.52252e-06 -2.94807e-06 0)
(6.82567e-06 -2.82158e-06 0)
(7.12701e-06 -2.69496e-06 0)
(7.42641e-06 -2.56777e-06 0)
(7.72405e-06 -2.43964e-06 0)
(8.02009e-06 -2.31016e-06 0)
(8.31463e-06 -2.17904e-06 0)
(8.60819e-06 -2.04614e-06 0)
(8.90088e-06 -1.91136e-06 0)
(9.19344e-06 -1.77478e-06 0)
(3.33653e-06 -4.38577e-06 0)
(3.64055e-06 -4.25581e-06 0)
(3.94634e-06 -4.12423e-06 0)
(4.25257e-06 -3.99184e-06 0)
(4.55941e-06 -3.85944e-06 0)
(4.86628e-06 -3.72748e-06 0)
(5.17288e-06 -3.59628e-06 0)
(5.47877e-06 -3.46597e-06 0)
(5.78373e-06 -3.33652e-06 0)
(6.08759e-06 -3.20781e-06 0)
(6.39009e-06 -3.07961e-06 0)
(6.69119e-06 -2.95163e-06 0)
(6.99091e-06 -2.82354e-06 0)
(7.2891e-06 -2.69496e-06 0)
(7.58587e-06 -2.56558e-06 0)
(7.8814e-06 -2.43508e-06 0)
(8.17574e-06 -2.30329e-06 0)
(8.46931e-06 -2.17015e-06 0)
(8.76215e-06 -2.03554e-06 0)
(9.0549e-06 -1.89973e-06 0)
(3.25116e-06 -4.51589e-06 0)
(3.54858e-06 -4.38749e-06 0)
(3.84801e-06 -4.25675e-06 0)
(4.14849e-06 -4.12499e-06 0)
(4.45002e-06 -3.99292e-06 0)
(4.75209e-06 -3.86095e-06 0)
(5.05437e-06 -3.72944e-06 0)
(5.35642e-06 -3.59855e-06 0)
(5.65806e-06 -3.46833e-06 0)
(5.95909e-06 -3.33869e-06 0)
(6.25926e-06 -3.20946e-06 0)
(6.55844e-06 -3.08041e-06 0)
(6.85662e-06 -2.95123e-06 0)
(7.15363e-06 -2.82161e-06 0)
(7.44958e-06 -2.6913e-06 0)
(7.74462e-06 -2.56009e-06 0)
(8.03874e-06 -2.42786e-06 0)
(8.33224e-06 -2.2945e-06 0)
(8.62512e-06 -2.16012e-06 0)
(8.91794e-06 -2.02497e-06 0)
(3.16278e-06 -4.64238e-06 0)
(3.45375e-06 -4.51504e-06 0)
(3.74714e-06 -4.38547e-06 0)
(4.04258e-06 -4.25461e-06 0)
(4.33926e-06 -4.12302e-06 0)
(4.63704e-06 -3.99125e-06 0)
(4.93544e-06 -3.85971e-06 0)
(5.2341e-06 -3.72856e-06 0)
(5.53281e-06 -3.59791e-06 0)
(5.83137e-06 -3.46771e-06 0)
(6.12945e-06 -3.33782e-06 0)
(6.42689e-06 -3.20803e-06 0)
(6.72366e-06 -3.07809e-06 0)
(7.01962e-06 -2.94775e-06 0)
(7.31486e-06 -2.81683e-06 0)
(7.60946e-06 -2.68513e-06 0)
(7.90326e-06 -2.55255e-06 0)
(8.19656e-06 -2.41904e-06 0)
(8.48944e-06 -2.28491e-06 0)
(8.78245e-06 -2.15031e-06 0)
(3.06927e-06 -4.76503e-06 0)
(3.35479e-06 -4.63899e-06 0)
(3.64321e-06 -4.51085e-06 0)
(3.93375e-06 -4.3809e-06 0)
(4.2262e-06 -4.24999e-06 0)
(4.52018e-06 -4.11867e-06 0)
(4.81527e-06 -3.98735e-06 0)
(5.11109e-06 -3.85626e-06 0)
(5.40738e-06 -3.72551e-06 0)
(5.70385e-06 -3.59506e-06 0)
(6.00013e-06 -3.4648e-06 0)
(6.29607e-06 -3.33458e-06 0)
(6.5917e-06 -3.2042e-06 0)
(6.88683e-06 -3.07343e-06 0)
(7.1814e-06 -2.94209e-06 0)
(7.47538e-06 -2.81006e-06 0)
(7.76884e-06 -2.67724e-06 0)
(8.06212e-06 -2.54372e-06 0)
(8.35495e-06 -2.40973e-06 0)
(8.64771e-06 -2.27552e-06 0)
(2.96943e-06 -4.88525e-06 0)
(3.24994e-06 -4.76075e-06 0)
(3.53381e-06 -4.63368e-06 0)
(3.82034e-06 -4.50474e-06 0)
(4.10931e-06 -4.37465e-06 0)
(4.40031e-06 -4.24399e-06 0)
(4.69293e-06 -4.11313e-06 0)
(4.98664e-06 -3.98231e-06 0)
(5.28107e-06 -3.85165e-06 0)
(5.5759e-06 -3.72117e-06 0)
(5.87085e-06 -3.5908e-06 0)
(6.1658e-06 -3.46039e-06 0)
(6.46054e-06 -3.32976e-06 0)
(6.75476e-06 -3.19872e-06 0)
(7.04866e-06 -3.06714e-06 0)
(7.34229e-06 -2.93489e-06 0)
(7.63542e-06 -2.80193e-06 0)
(7.92842e-06 -2.66841e-06 0)
(8.22118e-06 -2.53449e-06 0)
(8.51387e-06 -2.40053e-06 0)
(2.86191e-06 -5.002e-06 0)
(3.13799e-06 -4.87921e-06 0)
(3.41804e-06 -4.75371e-06 0)
(3.70145e-06 -4.62608e-06 0)
(3.98793e-06 -4.49714e-06 0)
(4.27697e-06 -4.36739e-06 0)
(4.56792e-06 -4.23721e-06 0)
(4.86017e-06 -4.10688e-06 0)
(5.15344e-06 -3.97655e-06 0)
(5.44744e-06 -3.84625e-06 0)
(5.74162e-06 -3.71593e-06 0)
(6.0357e-06 -3.58549e-06 0)
(6.32972e-06 -3.45475e-06 0)
(6.62341e-06 -3.32358e-06 0)
(6.91669e-06 -3.19189e-06 0)
(7.20979e-06 -3.05952e-06 0)
(7.50258e-06 -2.92652e-06 0)
(7.79527e-06 -2.79295e-06 0)
(8.08792e-06 -2.65906e-06 0)
(8.38038e-06 -2.52518e-06 0)
(2.11558e-07 -4.30104e-06 0)
(6.37543e-07 -4.23802e-06 0)
(1.07218e-06 -4.11425e-06 0)
(1.52025e-06 -3.93499e-06 0)
(1.98574e-06 -3.70687e-06 0)
(2.47118e-06 -3.43861e-06 0)
(2.97752e-06 -3.13985e-06 0)
(3.50393e-06 -2.82084e-06 0)
(4.04848e-06 -2.49194e-06 0)
(4.607e-06 -2.1614e-06 0)
(2.05843e-07 -4.37141e-06 0)
(6.19929e-07 -4.31391e-06 0)
(1.04121e-06 -4.20082e-06 0)
(1.47365e-06 -4.03669e-06 0)
(1.92062e-06 -3.8271e-06 0)
(2.38427e-06 -3.57948e-06 0)
(2.86539e-06 -3.30205e-06 0)
(3.36322e-06 -3.00363e-06 0)
(3.87506e-06 -2.69373e-06 0)
(4.39801e-06 -2.37906e-06 0)
(2.00767e-07 -4.44377e-06 0)
(6.04253e-07 -4.39126e-06 0)
(1.01353e-06 -4.28783e-06 0)
(1.43185e-06 -4.13752e-06 0)
(1.86192e-06 -3.94512e-06 0)
(2.30559e-06 -3.71698e-06 0)
(2.76359e-06 -3.46022e-06 0)
(3.23585e-06 -3.18219e-06 0)
(3.72024e-06 -2.89126e-06 0)
(4.21515e-06 -2.59147e-06 0)
(1.96182e-07 -4.51811e-06 0)
(5.90208e-07 -4.46982e-06 0)
(9.88982e-07 -4.37462e-06 0)
(1.39519e-06 -4.23607e-06 0)
(1.81107e-06 -4.05836e-06 0)
(2.23808e-06 -3.84704e-06 0)
(2.67676e-06 -3.60845e-06 0)
(3.127e-06 -3.349e-06 0)
(3.58701e-06 -3.07657e-06 0)
(4.05541e-06 -2.79407e-06 0)
(1.91938e-07 -4.59433e-06 0)
(5.77153e-07 -4.54981e-06 0)
(9.66299e-07 -4.46194e-06 0)
(1.36152e-06 -4.33392e-06 0)
(1.7647e-06 -4.16953e-06 0)
(2.17699e-06 -3.97357e-06 0)
(2.59887e-06 -3.75174e-06 0)
(3.03029e-06 -3.50952e-06 0)
(3.4699e-06 -3.25407e-06 0)
(3.91557e-06 -2.98793e-06 0)
(1.87994e-07 -4.67229e-06 0)
(5.65005e-07 -4.63102e-06 0)
(9.45324e-07 -4.54956e-06 0)
(1.33066e-06 -4.43071e-06 0)
(1.72256e-06 -4.27795e-06 0)
(2.12198e-06 -4.09556e-06 0)
(2.52924e-06 -3.88873e-06 0)
(2.94413e-06 -3.66235e-06 0)
(3.36594e-06 -3.42285e-06 0)
(3.79181e-06 -3.17283e-06 0)
(1.84176e-07 -4.75189e-06 0)
(5.53396e-07 -4.71349e-06 0)
(9.25379e-07 -4.63775e-06 0)
(1.30153e-06 -4.52707e-06 0)
(1.68318e-06 -4.38475e-06 0)
(2.07107e-06 -4.2146e-06 0)
(2.4655e-06 -4.02131e-06 0)
(2.86603e-06 -3.80934e-06 0)
(3.27244e-06 -3.58435e-06 0)
(3.68129e-06 -3.34929e-06 0)
(1.80471e-07 -4.83293e-06 0)
(5.42195e-07 -4.79706e-06 0)
(9.06228e-07 -4.72636e-06 0)
(1.27378e-06 -4.62292e-06 0)
(1.64603e-06 -4.48986e-06 0)
(2.02347e-06 -4.33065e-06 0)
(2.40643e-06 -4.14956e-06 0)
(2.79425e-06 -3.95069e-06 0)
(3.18715e-06 -3.73901e-06 0)
(3.58135e-06 -3.51783e-06 0)
(1.76867e-07 -4.91524e-06 0)
(5.31209e-07 -4.88164e-06 0)
(8.87521e-07 -4.81544e-06 0)
(1.24688e-06 -4.71851e-06 0)
(1.61031e-06 -4.59376e-06 0)
(1.97817e-06 -4.44438e-06 0)
(2.35076e-06 -4.27427e-06 0)
(2.72729e-06 -4.08723e-06 0)
(3.10822e-06 -3.88767e-06 0)
(3.48974e-06 -3.67915e-06 0)
(1.7329e-07 -4.99864e-06 0)
(5.20284e-07 -4.96704e-06 0)
(8.69028e-07 -4.90486e-06 0)
(1.22051e-06 -4.81378e-06 0)
(1.57553e-06 -4.69647e-06 0)
(1.93445e-06 -4.55594e-06 0)
(2.29753e-06 -4.39573e-06 0)
(2.66387e-06 -4.21941e-06 0)
(3.03407e-06 -4.03091e-06 0)
(3.40447e-06 -3.83392e-06 0)
(1.69642e-07 -5.08291e-06 0)
(5.09278e-07 -5.05309e-06 0)
(8.50522e-07 -4.99455e-06 0)
(1.19426e-06 -4.90876e-06 0)
(1.54119e-06 -4.79818e-06 0)
(1.89162e-06 -4.66563e-06 0)
(2.24581e-06 -4.51436e-06 0)
(2.60284e-06 -4.34776e-06 0)
(2.96331e-06 -4.16932e-06 0)
(3.32384e-06 -3.98276e-06 0)
(1.65905e-07 -5.16778e-06 0)
(4.98116e-07 -5.1396e-06 0)
(8.31827e-07 -5.08436e-06 0)
(1.16784e-06 -5.00336e-06 0)
(1.50682e-06 -4.89889e-06 0)
(1.84905e-06 -4.77357e-06 0)
(2.19481e-06 -4.6304e-06 0)
(2.54316e-06 -4.47263e-06 0)
(2.89467e-06 -4.30333e-06 0)
(3.24633e-06 -4.1262e-06 0)
(1.62085e-07 -5.25307e-06 0)
(4.86695e-07 -5.22641e-06 0)
(8.1272e-07 -5.17417e-06 0)
(1.1409e-06 -5.09754e-06 0)
(1.47197e-06 -4.99862e-06 0)
(1.80616e-06 -4.87986e-06 0)
(2.14375e-06 -4.74408e-06 0)
(2.48387e-06 -4.59431e-06 0)
(2.82702e-06 -4.43332e-06 0)
(3.17056e-06 -4.26474e-06 0)
(1.58149e-07 -5.33849e-06 0)
(4.74858e-07 -5.31324e-06 0)
(7.92937e-07 -5.26373e-06 0)
(1.11312e-06 -5.1911e-06 0)
(1.43619e-06 -5.09725e-06 0)
(1.76236e-06 -4.98452e-06 0)
(2.09191e-06 -4.8555e-06 0)
(2.42407e-06 -4.71301e-06 0)
(2.75928e-06 -4.55963e-06 0)
(3.09525e-06 -4.39881e-06 0)
(1.54015e-07 -5.42384e-06 0)
(4.6241e-07 -5.3999e-06 0)
(7.72189e-07 -5.35289e-06 0)
(1.0841e-06 -5.28394e-06 0)
(1.39895e-06 -5.19478e-06 0)
(1.71699e-06 -5.0876e-06 0)
(2.03848e-06 -4.96477e-06 0)
(2.36282e-06 -4.82896e-06 0)
(2.69033e-06 -4.68257e-06 0)
(3.01909e-06 -4.52881e-06 0)
(1.49606e-07 -5.50864e-06 0)
(4.49181e-07 -5.48592e-06 0)
(7.50204e-07 -5.44125e-06 0)
(1.05345e-06 -5.37572e-06 0)
(1.35974e-06 -5.29091e-06 0)
(1.66938e-06 -5.18887e-06 0)
(1.98269e-06 -5.07177e-06 0)
(2.29919e-06 -4.94215e-06 0)
(2.61913e-06 -4.80223e-06 0)
(2.94089e-06 -4.65492e-06 0)
(1.44862e-07 -5.59276e-06 0)
(4.34995e-07 -5.57122e-06 0)
(7.26668e-07 -5.52874e-06 0)
(1.02071e-06 -5.46641e-06 0)
(1.31794e-06 -5.38569e-06 0)
(1.6188e-06 -5.28848e-06 0)
(1.92364e-06 -5.17676e-06 0)
(2.23212e-06 -5.05296e-06 0)
(2.54443e-06 -4.91901e-06 0)
(2.85922e-06 -4.77774e-06 0)
(1.39735e-07 -5.67528e-06 0)
(4.19675e-07 -5.65485e-06 0)
(7.0126e-07 -5.61446e-06 0)
(9.85393e-07 -5.55519e-06 0)
(1.27296e-06 -5.47836e-06 0)
(1.5645e-06 -5.38573e-06 0)
(1.86041e-06 -5.27916e-06 0)
(2.1605e-06 -5.16086e-06 0)
(2.46489e-06 -5.03258e-06 0)
(2.77262e-06 -4.89699e-06 0)
(1.34134e-07 -5.75664e-06 0)
(4.02924e-07 -5.73727e-06 0)
(6.73473e-07 -5.69892e-06 0)
(9.46794e-07 -5.6426e-06 0)
(1.22386e-06 -5.56954e-06 0)
(1.50532e-06 -5.48135e-06 0)
(1.79166e-06 -5.37975e-06 0)
(2.0828e-06 -5.26669e-06 0)
(2.37887e-06 -5.14391e-06 0)
(2.67928e-06 -5.01371e-06 0)
(1.2801e-07 -5.83434e-06 0)
(3.84595e-07 -5.81596e-06 0)
(6.43058e-07 -5.77966e-06 0)
(9.04565e-07 -5.72629e-06 0)
(1.1702e-06 -5.65699e-06 0)
(1.44069e-06 -5.57323e-06 0)
(1.71662e-06 -5.47656e-06 0)
(1.99808e-06 -5.36875e-06 0)
(2.28534e-06 -5.25149e-06 0)
(2.57806e-06 -5.12678e-06 0)
)


// ************************************************************************* //
