/*--------------------------------*- C++ -*----------------------------------*\
| =========                 |                                                 |
| \\      /  F ield         | foam-extend: Open Source CFD                    |
|  \\    /   O peration     | Version:     4.1                                |
|   \\  /    A nd           | Web:         http://www.foam-extend.org         |
|    \\/     M anipulation  |                                                 |
\*---------------------------------------------------------------------------*/
FoamFile
{
    version     2.0;
    format      ascii;
    class       vectorField;
    location    "10";
    object      solidsCellD_iteration16;
}
// * * * * * * * * * * * * * * * * * * * * * * * * * * * * * * * * * * * * * //


1000
(
(5.25523e-06 -2.2721e-06 0)
(4.95307e-06 -2.11177e-06 0)
(4.759e-06 -2.00893e-06 0)
(4.64655e-06 -1.95952e-06 0)
(4.59028e-06 -1.94051e-06 0)
(4.57496e-06 -1.94504e-06 0)
(4.58978e-06 -1.96488e-06 0)
(4.62728e-06 -1.99605e-06 0)
(4.6817e-06 -2.03497e-06 0)
(4.74993e-06 -2.07919e-06 0)
(4.75085e-06 -2.48168e-06 0)
(4.42913e-06 -2.36898e-06 0)
(4.22284e-06 -2.29621e-06 0)
(4.10143e-06 -2.26718e-06 0)
(4.03829e-06 -2.26166e-06 0)
(4.01688e-06 -2.27571e-06 0)
(4.02593e-06 -2.30234e-06 0)
(4.05744e-06 -2.33857e-06 0)
(4.1055e-06 -2.38172e-06 0)
(4.16582e-06 -2.42845e-06 0)
(4.2271e-06 -2.68037e-06 0)
(3.89849e-06 -2.62093e-06 0)
(3.68801e-06 -2.58183e-06 0)
(3.5628e-06 -2.57538e-06 0)
(3.49601e-06 -2.58465e-06 0)
(3.47044e-06 -2.6089e-06 0)
(3.47474e-06 -2.64265e-06 0)
(3.50084e-06 -2.68399e-06 0)
(3.54277e-06 -2.73122e-06 0)
(3.59623e-06 -2.7808e-06 0)
(3.68784e-06 -2.86461e-06 0)
(3.36605e-06 -2.86106e-06 0)
(3.16011e-06 -2.85735e-06 0)
(3.0366e-06 -2.87452e-06 0)
(2.96956e-06 -2.89915e-06 0)
(2.94186e-06 -2.93392e-06 0)
(2.94256e-06 -2.97484e-06 0)
(2.96379e-06 -3.02131e-06 0)
(2.99994e-06 -3.07241e-06 0)
(3.04651e-06 -3.12502e-06 0)
(3.13673e-06 -3.03079e-06 0)
(2.83544e-06 -3.08267e-06 0)
(2.64276e-06 -3.11407e-06 0)
(2.52658e-06 -3.15456e-06 0)
(2.4627e-06 -3.19431e-06 0)
(2.43492e-06 -3.2394e-06 0)
(2.43318e-06 -3.28731e-06 0)
(2.45009e-06 -3.33876e-06 0)
(2.48065e-06 -3.39356e-06 0)
(2.52032e-06 -3.44928e-06 0)
(2.57651e-06 -3.17551e-06 0)
(2.30904e-06 -3.27927e-06 0)
(2.13809e-06 -3.34356e-06 0)
(2.03453e-06 -3.40586e-06 0)
(1.97705e-06 -3.45973e-06 0)
(1.95118e-06 -3.51441e-06 0)
(1.94812e-06 -3.56876e-06 0)
(1.96122e-06 -3.62482e-06 0)
(1.98624e-06 -3.683e-06 0)
(2.01884e-06 -3.74176e-06 0)
(2.00984e-06 -3.29552e-06 0)
(1.78805e-06 -3.44473e-06 0)
(1.64635e-06 -3.53787e-06 0)
(1.56022e-06 -3.61929e-06 0)
(1.51212e-06 -3.6855e-06 0)
(1.48996e-06 -3.74854e-06 0)
(1.48653e-06 -3.8085e-06 0)
(1.49623e-06 -3.86861e-06 0)
(1.51569e-06 -3.92972e-06 0)
(1.54112e-06 -3.99123e-06 0)
(1.43863e-06 -3.3881e-06 0)
(1.27252e-06 -3.57383e-06 0)
(1.16643e-06 -3.69012e-06 0)
(1.10183e-06 -3.78687e-06 0)
(1.0656e-06 -3.86299e-06 0)
(1.04864e-06 -3.93276e-06 0)
(1.04558e-06 -3.99726e-06 0)
(1.05221e-06 -4.06064e-06 0)
(1.06611e-06 -4.1241e-06 0)
(1.08431e-06 -4.1879e-06 0)
(8.6446e-07 -3.45106e-06 0)
(7.61619e-07 -3.66231e-06 0)
(6.95968e-07 -3.79479e-06 0)
(6.55897e-07 -3.90228e-06 0)
(6.33322e-07 -3.98533e-06 0)
(6.22635e-07 -4.05979e-06 0)
(6.2055e-07 -4.12746e-06 0)
(6.24432e-07 -4.19318e-06 0)
(6.32765e-07 -4.2583e-06 0)
(6.43679e-07 -4.32375e-06 0)
(2.88705e-07 -3.48278e-06 0)
(2.53865e-07 -3.70723e-06 0)
(2.31548e-07 -3.84805e-06 0)
(2.17913e-07 -3.96107e-06 0)
(2.10247e-07 -4.04771e-06 0)
(2.06576e-07 -4.12462e-06 0)
(2.05775e-07 -4.1939e-06 0)
(2.07018e-07 -4.2608e-06 0)
(2.09795e-07 -4.32679e-06 0)
(2.13422e-07 -4.39312e-06 0)
(8.21288e-06 -1.03744e-07 0)
(8.28811e-06 -7.46782e-08 0)
(8.33248e-06 -5.61893e-08 0)
(8.37983e-06 -4.52558e-08 0)
(8.43096e-06 -3.91015e-08 0)
(8.49385e-06 -3.61702e-08 0)
(8.56841e-06 -3.54428e-08 0)
(8.65567e-06 -3.61151e-08 0)
(8.75536e-06 -3.78058e-08 0)
(8.86617e-06 -3.98945e-08 0)
(8.15174e-06 -3.11227e-07 0)
(8.21443e-06 -2.2573e-07 0)
(8.25095e-06 -1.71401e-07 0)
(8.29304e-06 -1.39394e-07 0)
(8.34069e-06 -1.21543e-07 0)
(8.40111e-06 -1.13088e-07 0)
(8.4739e-06 -1.1103e-07 0)
(8.55971e-06 -1.13201e-07 0)
(8.65818e-06 -1.18374e-07 0)
(8.76767e-06 -1.24632e-07 0)
(8.02971e-06 -5.2046e-07 0)
(8.06847e-06 -3.83192e-07 0)
(8.08984e-06 -2.96046e-07 0)
(8.1219e-06 -2.44746e-07 0)
(8.16292e-06 -2.16228e-07 0)
(8.21866e-06 -2.02979e-07 0)
(8.28799e-06 -2.00015e-07 0)
(8.37103e-06 -2.03827e-07 0)
(8.46715e-06 -2.12462e-07 0)
(8.57408e-06 -2.22941e-07 0)
(7.84895e-06 -7.32326e-07 0)
(7.85368e-06 -5.5068e-07 0)
(7.85347e-06 -4.35419e-07 0)
(7.87124e-06 -3.67857e-07 0)
(7.90282e-06 -3.3047e-07 0)
(7.9519e-06 -3.13421e-07 0)
(8.01634e-06 -3.10062e-07 0)
(8.09542e-06 -3.15779e-07 0)
(8.18819e-06 -3.27855e-07 0)
(8.29154e-06 -3.42572e-07 0)
(7.61232e-06 -9.47391e-07 0)
(7.57499e-06 -7.31206e-07 0)
(7.54809e-06 -5.94019e-07 0)
(7.54818e-06 -5.14116e-07 0)
(7.56805e-06 -4.70266e-07 0)
(7.60883e-06 -4.5086e-07 0)
(7.6672e-06 -4.47849e-07 0)
(7.74134e-06 -4.55831e-07 0)
(7.82994e-06 -4.71372e-07 0)
(7.92893e-06 -4.90335e-07 0)
(7.32343e-06 -1.16578e-06 0)
(7.23849e-06 -9.26777e-07 0)
(7.18146e-06 -7.75013e-07 0)
(7.16153e-06 -6.87405e-07 0)
(7.16811e-06 -6.39916e-07 0)
(7.19943e-06 -6.1984e-07 0)
(7.25085e-06 -6.1807e-07 0)
(7.31934e-06 -6.2874e-07 0)
(7.4031e-06 -6.478e-07 0)
(7.49715e-06 -6.70999e-07 0)
(6.98659e-06 -1.38703e-06 0)
(6.85136e-06 -1.13818e-06 0)
(6.76251e-06 -9.79989e-07 0)
(6.72141e-06 -8.89786e-07 0)
(6.71388e-06 -8.41765e-07 0)
(6.73513e-06 -8.22902e-07 0)
(6.77907e-06 -8.23408e-07 0)
(6.84147e-06 -8.37218e-07 0)
(6.91992e-06 -8.59886e-07 0)
(7.00876e-06 -8.87269e-07 0)
(6.60638e-06 -1.61011e-06 0)
(6.4213e-06 -1.36484e-06 0)
(6.30097e-06 -1.20871e-06 0)
(6.23879e-06 -1.12128e-06 0)
(6.21719e-06 -1.07598e-06 0)
(6.22823e-06 -1.0603e-06 0)
(6.26446e-06 -1.06415e-06 0)
(6.32053e-06 -1.08165e-06 0)
(6.39331e-06 -1.10804e-06 0)
(6.47676e-06 -1.13966e-06 0)
(6.18776e-06 -1.83349e-06 0)
(5.95637e-06 -1.60492e-06 0)
(5.80678e-06 -1.45921e-06 0)
(5.72491e-06 -1.3798e-06 0)
(5.68999e-06 -1.34042e-06 0)
(5.69121e-06 -1.32981e-06 0)
(5.71981e-06 -1.33812e-06 0)
(5.76953e-06 -1.35977e-06 0)
(5.83639e-06 -1.39028e-06 0)
(5.91462e-06 -1.42598e-06 0)
(5.73574e-06 -2.05504e-06 0)
(5.46449e-06 -1.85532e-06 0)
(5.28975e-06 -1.72771e-06 0)
(5.19076e-06 -1.66122e-06 0)
(5.14404e-06 -1.63075e-06 0)
(5.13632e-06 -1.62697e-06 0)
(5.15775e-06 -1.64066e-06 0)
(5.20117e-06 -1.66709e-06 0)
(5.26204e-06 -1.70174e-06 0)
(5.33493e-06 -1.74297e-06 0)
(8.98849e-06 -4.19944e-08 0)
(9.12192e-06 -4.23521e-08 0)
(9.26393e-06 -4.28139e-08 0)
(9.41404e-06 -4.31206e-08 0)
(9.57129e-06 -4.32343e-08 0)
(9.73504e-06 -4.31362e-08 0)
(9.90456e-06 -4.27497e-08 0)
(1.00792e-05 -4.20854e-08 0)
(1.02584e-05 -4.11416e-08 0)
(1.04416e-05 -3.98937e-08 0)
(1.06282e-05 -3.83037e-08 0)
(1.08177e-05 -3.63437e-08 0)
(1.10094e-05 -3.39784e-08 0)
(1.12028e-05 -3.11737e-08 0)
(1.13975e-05 -2.78865e-08 0)
(1.15925e-05 -2.40604e-08 0)
(1.17875e-05 -1.96159e-08 0)
(1.19812e-05 -1.44653e-08 0)
(1.21738e-05 -8.48074e-09 0)
(1.2362e-05 -1.61081e-09 0)
(8.89438e-06 -1.30439e-07 0)
(9.03571e-06 -1.30885e-07 0)
(9.18479e-06 -1.31731e-07 0)
(9.34104e-06 -1.32218e-07 0)
(9.50375e-06 -1.3214e-07 0)
(9.67231e-06 -1.31489e-07 0)
(9.84617e-06 -1.30098e-07 0)
(1.00247e-05 -1.27954e-07 0)
(1.02075e-05 -1.24967e-07 0)
(1.03939e-05 -1.21062e-07 0)
(1.05835e-05 -1.16154e-07 0)
(1.07757e-05 -1.1018e-07 0)
(1.097e-05 -1.03034e-07 0)
(1.11659e-05 -9.45928e-08 0)
(1.13628e-05 -8.47044e-08 0)
(1.15601e-05 -7.31974e-08 0)
(1.17572e-05 -5.98399e-08 0)
(1.19529e-05 -4.43828e-08 0)
(1.21475e-05 -2.6435e-08 0)
(1.23377e-05 -5.84317e-09 0)
(8.70937e-06 -2.31118e-07 0)
(8.86621e-06 -2.299e-07 0)
(9.02912e-06 -2.2953e-07 0)
(9.19733e-06 -2.28979e-07 0)
(9.37073e-06 -2.27723e-07 0)
(9.54877e-06 -2.25752e-07 0)
(9.73115e-06 -2.22702e-07 0)
(9.91737e-06 -2.18522e-07 0)
(1.01071e-05 -2.13037e-07 0)
(1.02999e-05 -2.06129e-07 0)
(1.04953e-05 -1.97656e-07 0)
(1.06929e-05 -1.87485e-07 0)
(1.08923e-05 -1.75416e-07 0)
(1.10929e-05 -1.61231e-07 0)
(1.12943e-05 -1.44675e-07 0)
(1.14958e-05 -1.25458e-07 0)
(1.16971e-05 -1.03184e-07 0)
(1.18969e-05 -7.74405e-08 0)
(1.20955e-05 -4.75598e-08 0)
(1.22897e-05 -1.32875e-08 0)
(8.43904e-06 -3.50995e-07 0)
(8.61811e-06 -3.45383e-07 0)
(8.80105e-06 -3.41292e-07 0)
(8.98664e-06 -3.37776e-07 0)
(9.17563e-06 -3.33712e-07 0)
(9.36745e-06 -3.29119e-07 0)
(9.56227e-06 -3.23349e-07 0)
(9.75969e-06 -3.16303e-07 0)
(9.95964e-06 -3.07676e-07 0)
(1.01618e-05 -2.97264e-07 0)
(1.03658e-05 -2.84821e-07 0)
(1.05714e-05 -2.70126e-07 0)
(1.07782e-05 -2.52892e-07 0)
(1.09858e-05 -2.32808e-07 0)
(1.11938e-05 -2.09509e-07 0)
(1.14016e-05 -1.82561e-07 0)
(1.1609e-05 -1.51402e-07 0)
(1.18146e-05 -1.15435e-07 0)
(1.2019e-05 -7.3707e-08 0)
(1.22191e-05 -2.58689e-08 0)
(8.09159e-06 -4.96275e-07 0)
(8.29855e-06 -4.82726e-07 0)
(8.50686e-06 -4.71673e-07 0)
(8.71449e-06 -4.62695e-07 0)
(8.92338e-06 -4.53722e-07 0)
(9.13287e-06 -4.44822e-07 0)
(9.34368e-06 -4.3497e-07 0)
(9.55553e-06 -4.23962e-07 0)
(9.76863e-06 -4.11298e-07 0)
(9.98277e-06 -3.96654e-07 0)
(1.01979e-05 -3.79676e-07 0)
(1.04138e-05 -3.60038e-07 0)
(1.06302e-05 -3.37336e-07 0)
(1.08468e-05 -3.11141e-07 0)
(1.10634e-05 -2.8096e-07 0)
(1.12794e-05 -2.46211e-07 0)
(1.14946e-05 -2.06157e-07 0)
(1.17079e-05 -1.60021e-07 0)
(1.19198e-05 -1.06561e-07 0)
(1.21274e-05 -4.53142e-08 0)
(7.67692e-06 -6.71388e-07 0)
(7.91598e-06 -6.45804e-07 0)
(8.15396e-06 -6.23971e-07 0)
(8.38752e-06 -6.06505e-07 0)
(8.61999e-06 -5.90127e-07 0)
(8.85053e-06 -5.74867e-07 0)
(9.08039e-06 -5.59259e-07 0)
(9.30954e-06 -5.4292e-07 0)
(9.53843e-06 -5.25146e-07 0)
(9.76705e-06 -5.05436e-07 0)
(9.99553e-06 -4.83293e-07 0)
(1.02238e-05 -4.58241e-07 0)
(1.04518e-05 -4.29736e-07 0)
(1.06793e-05 -3.97215e-07 0)
(1.09062e-05 -3.6003e-07 0)
(1.11319e-05 -3.17454e-07 0)
(1.13566e-05 -2.68554e-07 0)
(1.1579e-05 -2.12377e-07 0)
(1.18e-05 -1.47391e-07 0)
(1.20165e-05 -7.29678e-08 0)
(7.20664e-06 -8.79085e-07 0)
(7.48052e-06 -8.37307e-07 0)
(7.75121e-06 -8.00892e-07 0)
(8.01359e-06 -7.71702e-07 0)
(8.27241e-06 -7.45289e-07 0)
(8.52666e-06 -7.2142e-07 0)
(8.77811e-06 -6.98275e-07 0)
(9.02691e-06 -6.75124e-07 0)
(9.27378e-06 -6.51043e-07 0)
(9.51896e-06 -6.25307e-07 0)
(9.76274e-06 -5.97231e-07 0)
(1.00052e-05 -5.6616e-07 0)
(1.02465e-05 -5.31396e-07 0)
(1.04864e-05 -4.92231e-07 0)
(1.07251e-05 -4.47854e-07 0)
(1.09621e-05 -3.97376e-07 0)
(1.11975e-05 -3.39661e-07 0)
(1.14305e-05 -2.73567e-07 0)
(1.16617e-05 -1.97291e-07 0)
(1.18887e-05 -1.1002e-07 0)
(6.69252e-06 -1.11993e-06 0)
(7.00226e-06 -1.05739e-06 0)
(7.30724e-06 -1.00258e-06 0)
(7.60046e-06 -9.5807e-07 0)
(7.88766e-06 -9.18855e-07 0)
(8.16775e-06 -8.83953e-07 0)
(8.44286e-06 -8.51363e-07 0)
(8.71333e-06 -8.19858e-07 0)
(8.98007e-06 -7.88261e-07 0)
(9.24356e-06 -7.55564e-07 0)
(9.50427e-06 -7.20854e-07 0)
(9.76246e-06 -6.83263e-07 0)
(1.00184e-05 -6.4191e-07 0)
(1.02722e-05 -5.95915e-07 0)
(1.05239e-05 -5.44288e-07 0)
(1.07733e-05 -4.8596e-07 0)
(1.10207e-05 -4.19594e-07 0)
(1.12653e-05 -3.43846e-07 0)
(1.15079e-05 -2.56643e-07 0)
(1.17462e-05 -1.56987e-07 0)
(6.14734e-06 -1.39347e-06 0)
(6.49285e-06 -1.30639e-06 0)
(6.83202e-06 -1.23081e-06 0)
(7.15705e-06 -1.16791e-06 0)
(7.47344e-06 -1.11347e-06 0)
(7.78065e-06 -1.06531e-06 0)
(8.08062e-06 -1.02136e-06 0)
(8.37406e-06 -9.79853e-07 0)
(8.66201e-06 -9.39337e-07 0)
(8.94512e-06 -8.98503e-07 0)
(9.22403e-06 -8.56192e-07 0)
(9.49919e-06 -8.11311e-07 0)
(9.771e-06 -7.62785e-07 0)
(1.00397e-05 -7.0954e-07 0)
(1.03055e-05 -6.50394e-07 0)
(1.05684e-05 -5.84084e-07 0)
(1.08287e-05 -5.09083e-07 0)
(1.10858e-05 -4.23839e-07 0)
(1.13406e-05 -3.26053e-07 0)
(1.15914e-05 -2.14551e-07 0)
(5.5813e-06 -1.69466e-06 0)
(5.96226e-06 -1.57755e-06 0)
(6.33391e-06 -1.47865e-06 0)
(6.69144e-06 -1.39444e-06 0)
(7.03763e-06 -1.32229e-06 0)
(7.37307e-06 -1.25893e-06 0)
(7.69905e-06 -1.20201e-06 0)
(8.01663e-06 -1.14932e-06 0)
(8.32686e-06 -1.09902e-06 0)
(8.6306e-06 -1.04946e-06 0)
(8.92864e-06 -9.99158e-07 0)
(9.22162e-06 -9.46781e-07 0)
(9.51007e-06 -8.91013e-07 0)
(9.79439e-06 -8.30571e-07 0)
(1.00749e-05 -7.64074e-07 0)
(1.03519e-05 -6.90062e-07 0)
(1.06256e-05 -6.0683e-07 0)
(1.08958e-05 -5.12609e-07 0)
(1.11634e-05 -4.04889e-07 0)
(1.14272e-05 -2.82275e-07 0)
(5.16444e-06 -1.98072e-06 0)
(5.56758e-06 -1.84009e-06 0)
(5.95772e-06 -1.72423e-06 0)
(6.33454e-06 -1.62343e-06 0)
(6.69905e-06 -1.53596e-06 0)
(7.05211e-06 -1.45856e-06 0)
(7.39481e-06 -1.38878e-06 0)
(7.72814e-06 -1.32437e-06 0)
(8.05312e-06 -1.26334e-06 0)
(8.37059e-06 -1.20391e-06 0)
(8.68137e-06 -1.14446e-06 0)
(8.98615e-06 -1.08349e-06 0)
(9.28555e-06 -1.01955e-06 0)
(9.58003e-06 -9.51215e-07 0)
(9.87006e-06 -8.76985e-07 0)
(1.01559e-05 -7.95284e-07 0)
(1.04381e-05 -7.04342e-07 0)
(1.07165e-05 -6.02283e-07 0)
(1.09923e-05 -4.86552e-07 0)
(1.12645e-05 -3.55693e-07 0)
(4.92452e-06 -2.21137e-06 0)
(5.33036e-06 -2.06554e-06 0)
(5.7236e-06 -1.94043e-06 0)
(6.10522e-06 -1.82968e-06 0)
(6.47528e-06 -1.73168e-06 0)
(6.83437e-06 -1.64373e-06 0)
(7.18327e-06 -1.56358e-06 0)
(7.52274e-06 -1.48915e-06 0)
(7.85361e-06 -1.41851e-06 0)
(8.17663e-06 -1.3499e-06 0)
(8.49254e-06 -1.28172e-06 0)
(8.80201e-06 -1.21245e-06 0)
(9.10564e-06 -1.14061e-06 0)
(9.40392e-06 -1.06476e-06 0)
(9.69736e-06 -9.83367e-07 0)
(9.98634e-06 -8.94862e-07 0)
(1.02714e-05 -7.97521e-07 0)
(1.05527e-05 -6.89501e-07 0)
(1.08313e-05 -5.68355e-07 0)
(1.11066e-05 -4.32724e-07 0)
(4.71776e-06 -2.4337e-06 0)
(5.11983e-06 -2.28422e-06 0)
(5.51241e-06 -2.15284e-06 0)
(5.89476e-06 -2.03438e-06 0)
(6.2669e-06 -1.92763e-06 0)
(6.62889e-06 -1.83046e-06 0)
(6.98126e-06 -1.74091e-06 0)
(7.32448e-06 -1.65711e-06 0)
(7.65921e-06 -1.5773e-06 0)
(7.98605e-06 -1.49982e-06 0)
(8.30566e-06 -1.42311e-06 0)
(8.61863e-06 -1.34568e-06 0)
(8.92551e-06 -1.26606e-06 0)
(9.22683e-06 -1.18282e-06 0)
(9.52308e-06 -1.09446e-06 0)
(9.81473e-06 -9.99426e-07 0)
(1.01023e-05 -8.96068e-07 0)
(1.03862e-05 -7.82628e-07 0)
(1.06674e-05 -6.56806e-07 0)
(1.09457e-05 -5.17379e-07 0)
(4.53473e-06 -2.64813e-06 0)
(4.93116e-06 -2.49675e-06 0)
(5.32037e-06 -2.36059e-06 0)
(5.70079e-06 -2.23572e-06 0)
(6.0724e-06 -2.12142e-06 0)
(6.43489e-06 -2.01603e-06 0)
(6.78854e-06 -1.91794e-06 0)
(7.13357e-06 -1.8255e-06 0)
(7.47047e-06 -1.73711e-06 0)
(7.79968e-06 -1.65124e-06 0)
(8.12175e-06 -1.56642e-06 0)
(8.43717e-06 -1.4812e-06 0)
(8.74646e-06 -1.39416e-06 0)
(9.05011e-06 -1.30391e-06 0)
(9.34863e-06 -1.209e-06 0)
(9.6425e-06 -1.10792e-06 0)
(9.93232e-06 -9.99123e-07 0)
(1.02185e-05 -8.80954e-07 0)
(1.05021e-05 -7.51306e-07 0)
(1.07832e-05 -6.09104e-07 0)
(4.37307e-06 -2.85353e-06 0)
(4.76209e-06 -2.7015e-06 0)
(5.14593e-06 -2.56213e-06 0)
(5.52237e-06 -2.4324e-06 0)
(5.89143e-06 -2.31197e-06 0)
(6.25246e-06 -2.19962e-06 0)
(6.60555e-06 -2.09401e-06 0)
(6.95073e-06 -1.99379e-06 0)
(7.2883e-06 -1.89753e-06 0)
(7.61857e-06 -1.80387e-06 0)
(7.94195e-06 -1.71144e-06 0)
(8.25885e-06 -1.61887e-06 0)
(8.56973e-06 -1.52481e-06 0)
(8.87505e-06 -1.42795e-06 0)
(9.1753e-06 -1.32689e-06 0)
(9.47096e-06 -1.22023e-06 0)
(9.76265e-06 -1.10651e-06 0)
(1.00509e-05 -9.84208e-07 0)
(1.03366e-05 -8.51454e-07 0)
(1.06203e-05 -7.07327e-07 0)
(4.22907e-06 -3.05005e-06 0)
(4.6098e-06 -2.89834e-06 0)
(4.98701e-06 -2.75692e-06 0)
(5.35804e-06 -2.62351e-06 0)
(5.72304e-06 -2.49811e-06 0)
(6.08109e-06 -2.37985e-06 0)
(6.43215e-06 -2.26771e-06 0)
(6.77609e-06 -2.16058e-06 0)
(7.11307e-06 -2.05723e-06 0)
(7.44324e-06 -1.95645e-06 0)
(7.76693e-06 -1.85702e-06 0)
(8.08444e-06 -1.75765e-06 0)
(8.39617e-06 -1.65709e-06 0)
(8.70253e-06 -1.55412e-06 0)
(9.00398e-06 -1.44741e-06 0)
(9.30102e-06 -1.3357e-06 0)
(9.59423e-06 -1.21762e-06 0)
(9.88419e-06 -1.09181e-06 0)
(1.01718e-05 -9.56644e-07 0)
(1.04578e-05 -8.11339e-07 0)
(4.09991e-06 -3.23785e-06 0)
(4.47182e-06 -3.08718e-06 0)
(4.84153e-06 -2.94464e-06 0)
(5.20622e-06 -2.80858e-06 0)
(5.56606e-06 -2.67928e-06 0)
(5.91997e-06 -2.55614e-06 0)
(6.26787e-06 -2.43844e-06 0)
(6.60947e-06 -2.32527e-06 0)
(6.94481e-06 -2.21563e-06 0)
(7.27394e-06 -2.10846e-06 0)
(7.59706e-06 -2.00266e-06 0)
(7.91442e-06 -1.89708e-06 0)
(8.22634e-06 -1.79057e-06 0)
(8.53319e-06 -1.68202e-06 0)
(8.83538e-06 -1.57019e-06 0)
(9.13341e-06 -1.45395e-06 0)
(9.42781e-06 -1.33205e-06 0)
(9.71922e-06 -1.20331e-06 0)
(1.00085e-05 -1.06632e-06 0)
(1.02964e-05 -9.20453e-07 0)
(3.98287e-06 -3.41735e-06 0)
(4.34581e-06 -3.26819e-06 0)
(4.70753e-06 -3.12523e-06 0)
(5.06527e-06 -2.98736e-06 0)
(5.41918e-06 -2.85504e-06 0)
(5.76815e-06 -2.72792e-06 0)
(6.11203e-06 -2.60553e-06 0)
(6.45043e-06 -2.48717e-06 0)
(6.78329e-06 -2.37202e-06 0)
(7.11059e-06 -2.25917e-06 0)
(7.43245e-06 -2.14769e-06 0)
(7.74902e-06 -2.03654e-06 0)
(8.06058e-06 -1.92468e-06 0)
(8.36744e-06 -1.81112e-06 0)
(8.66996e-06 -1.69472e-06 0)
(8.96862e-06 -1.57448e-06 0)
(9.26393e-06 -1.4493e-06 0)
(9.55653e-06 -1.31815e-06 0)
(9.8472e-06 -1.17987e-06 0)
(1.01368e-05 -1.03395e-06 0)
(3.87558e-06 -3.58907e-06 0)
(4.22954e-06 -3.44172e-06 0)
(4.58308e-06 -3.29886e-06 0)
(4.93352e-06 -3.15982e-06 0)
(5.28103e-06 -3.02522e-06 0)
(5.62451e-06 -2.89492e-06 0)
(5.96376e-06 -2.76865e-06 0)
(6.29833e-06 -2.64589e-06 0)
(6.6281e-06 -2.52598e-06 0)
(6.95297e-06 -2.40819e-06 0)
(7.273e-06 -2.29171e-06 0)
(7.58829e-06 -2.17562e-06 0)
(7.89904e-06 -2.05902e-06 0)
(8.20551e-06 -1.94102e-06 0)
(8.50803e-06 -1.82059e-06 0)
(8.80702e-06 -1.69688e-06 0)
(9.10297e-06 -1.56893e-06 0)
(9.39652e-06 -1.43586e-06 0)
(9.68831e-06 -1.29673e-06 0)
(9.97932e-06 -1.15117e-06 0)
(3.77592e-06 -3.75358e-06 0)
(4.12106e-06 -3.60817e-06 0)
(4.46639e-06 -3.46576e-06 0)
(4.80941e-06 -3.32607e-06 0)
(5.15027e-06 -3.18981e-06 0)
(5.48794e-06 -3.05701e-06 0)
(5.82215e-06 -2.92757e-06 0)
(6.15246e-06 -2.80113e-06 0)
(6.4787e-06 -2.67719e-06 0)
(6.80072e-06 -2.55515e-06 0)
(7.11851e-06 -2.43434e-06 0)
(7.43212e-06 -2.31396e-06 0)
(7.74171e-06 -2.19321e-06 0)
(8.04747e-06 -2.07134e-06 0)
(8.34969e-06 -1.94744e-06 0)
(8.64878e-06 -1.82077e-06 0)
(8.94513e-06 -1.69051e-06 0)
(9.23938e-06 -1.55594e-06 0)
(9.53207e-06 -1.41633e-06 0)
(9.82424e-06 -1.27145e-06 0)
(3.682e-06 -3.91145e-06 0)
(4.01857e-06 -3.768e-06 0)
(4.35582e-06 -3.6263e-06 0)
(4.69142e-06 -3.48635e-06 0)
(5.02558e-06 -3.34893e-06 0)
(5.35727e-06 -3.21421e-06 0)
(5.68624e-06 -3.08224e-06 0)
(6.01204e-06 -2.95278e-06 0)
(6.33445e-06 -2.82546e-06 0)
(6.65332e-06 -2.69983e-06 0)
(6.96858e-06 -2.57534e-06 0)
(7.28024e-06 -2.45128e-06 0)
(7.5884e-06 -2.32698e-06 0)
(7.89321e-06 -2.2018e-06 0)
(8.19492e-06 -2.07493e-06 0)
(8.49388e-06 -1.94578e-06 0)
(8.79044e-06 -1.81364e-06 0)
(9.08516e-06 -1.67794e-06 0)
(9.37858e-06 -1.53817e-06 0)
(9.67163e-06 -1.39418e-06 0)
(3.59211e-06 -4.06324e-06 0)
(3.92043e-06 -3.92171e-06 0)
(4.2498e-06 -3.78085e-06 0)
(4.57815e-06 -3.64093e-06 0)
(4.90565e-06 -3.50276e-06 0)
(5.23134e-06 -3.36662e-06 0)
(5.55499e-06 -3.23266e-06 0)
(5.87616e-06 -3.10077e-06 0)
(6.19462e-06 -2.9707e-06 0)
(6.51017e-06 -2.8421e-06 0)
(6.82274e-06 -2.71452e-06 0)
(7.13227e-06 -2.58737e-06 0)
(7.43883e-06 -2.46009e-06 0)
(7.74254e-06 -2.33213e-06 0)
(8.04358e-06 -2.20279e-06 0)
(8.34225e-06 -2.07159e-06 0)
(8.63885e-06 -1.93796e-06 0)
(8.93389e-06 -1.80146e-06 0)
(9.22786e-06 -1.66175e-06 0)
(9.52158e-06 -1.51877e-06 0)
(3.50473e-06 -4.20945e-06 0)
(3.82515e-06 -4.06974e-06 0)
(4.14692e-06 -3.92983e-06 0)
(4.46823e-06 -3.79015e-06 0)
(4.7892e-06 -3.65156e-06 0)
(5.109e-06 -3.5144e-06 0)
(5.42739e-06 -3.37895e-06 0)
(5.74395e-06 -3.24517e-06 0)
(6.05844e-06 -3.11291e-06 0)
(6.37065e-06 -2.98191e-06 0)
(6.68045e-06 -2.85182e-06 0)
(6.98779e-06 -2.72215e-06 0)
(7.29266e-06 -2.59241e-06 0)
(7.59516e-06 -2.46216e-06 0)
(7.89542e-06 -2.33081e-06 0)
(8.19368e-06 -2.19796e-06 0)
(8.49018e-06 -2.06317e-06 0)
(8.78542e-06 -1.92614e-06 0)
(9.07974e-06 -1.78666e-06 0)
(9.37396e-06 -1.64475e-06 0)
(3.41842e-06 -4.35053e-06 0)
(3.73128e-06 -4.21257e-06 0)
(4.04576e-06 -4.07361e-06 0)
(4.3603e-06 -3.93434e-06 0)
(4.67501e-06 -3.7956e-06 0)
(4.98913e-06 -3.6578e-06 0)
(5.30244e-06 -3.52129e-06 0)
(5.61452e-06 -3.38611e-06 0)
(5.92513e-06 -3.25217e-06 0)
(6.23405e-06 -3.11929e-06 0)
(6.54112e-06 -2.98722e-06 0)
(6.84625e-06 -2.85552e-06 0)
(7.14942e-06 -2.72382e-06 0)
(7.45068e-06 -2.59174e-06 0)
(7.75009e-06 -2.45878e-06 0)
(8.04787e-06 -2.32464e-06 0)
(8.34419e-06 -2.189e-06 0)
(8.63951e-06 -2.05164e-06 0)
(8.93404e-06 -1.91249e-06 0)
(9.22859e-06 -1.77168e-06 0)
(3.3317e-06 -4.48696e-06 0)
(3.63738e-06 -4.35056e-06 0)
(3.94494e-06 -4.21261e-06 0)
(4.25306e-06 -4.07389e-06 0)
(4.56184e-06 -3.93525e-06 0)
(4.87059e-06 -3.79714e-06 0)
(5.1791e-06 -3.65995e-06 0)
(5.48692e-06 -3.52378e-06 0)
(5.79386e-06 -3.38861e-06 0)
(6.09964e-06 -3.25434e-06 0)
(6.40412e-06 -3.12076e-06 0)
(6.70715e-06 -2.98752e-06 0)
(7.00869e-06 -2.8543e-06 0)
(7.30872e-06 -2.7208e-06 0)
(7.60729e-06 -2.5866e-06 0)
(7.90456e-06 -2.45148e-06 0)
(8.20067e-06 -2.31522e-06 0)
(8.49595e-06 -2.1777e-06 0)
(8.79064e-06 -2.03897e-06 0)
(9.08536e-06 -1.8992e-06 0)
(3.24321e-06 -4.61904e-06 0)
(3.54205e-06 -4.48428e-06 0)
(3.84303e-06 -4.34723e-06 0)
(4.14521e-06 -4.20916e-06 0)
(4.4485e-06 -4.07085e-06 0)
(4.7523e-06 -3.93271e-06 0)
(5.05637e-06 -3.79519e-06 0)
(5.36031e-06 -3.65842e-06 0)
(5.66385e-06 -3.52245e-06 0)
(5.96676e-06 -3.38721e-06 0)
(6.26883e-06 -3.25257e-06 0)
(6.56991e-06 -3.11821e-06 0)
(6.86992e-06 -2.98387e-06 0)
(7.16881e-06 -2.84931e-06 0)
(7.46659e-06 -2.71417e-06 0)
(7.76336e-06 -2.57835e-06 0)
(8.05923e-06 -2.44167e-06 0)
(8.35442e-06 -2.3041e-06 0)
(8.64918e-06 -2.16579e-06 0)
(8.94399e-06 -2.02698e-06 0)
(3.15152e-06 -4.74735e-06 0)
(3.4437e-06 -4.61374e-06 0)
(3.73844e-06 -4.47789e-06 0)
(4.03541e-06 -4.34074e-06 0)
(4.33369e-06 -4.20292e-06 0)
(4.63311e-06 -4.06501e-06 0)
(4.93322e-06 -3.92744e-06 0)
(5.23372e-06 -3.79041e-06 0)
(5.53429e-06 -3.65399e-06 0)
(5.83467e-06 -3.51816e-06 0)
(6.13464e-06 -3.38282e-06 0)
(6.43402e-06 -3.2477e-06 0)
(6.73268e-06 -3.11258e-06 0)
(7.03056e-06 -2.97728e-06 0)
(7.32762e-06 -2.84151e-06 0)
(7.62395e-06 -2.70518e-06 0)
(7.91957e-06 -2.56822e-06 0)
(8.2147e-06 -2.43066e-06 0)
(8.50942e-06 -2.29276e-06 0)
(8.80424e-06 -2.15479e-06 0)
(3.05444e-06 -4.87173e-06 0)
(3.34097e-06 -4.73946e-06 0)
(3.63058e-06 -4.60507e-06 0)
(3.92251e-06 -4.4689e-06 0)
(4.21649e-06 -4.33178e-06 0)
(4.51205e-06 -4.19434e-06 0)
(4.80882e-06 -4.05702e-06 0)
(5.10642e-06 -3.92005e-06 0)
(5.40452e-06 -3.78351e-06 0)
(5.70282e-06 -3.64742e-06 0)
(6.00106e-06 -3.51171e-06 0)
(6.29902e-06 -3.37614e-06 0)
(6.59656e-06 -3.24054e-06 0)
(6.8936e-06 -3.10477e-06 0)
(7.19007e-06 -2.96858e-06 0)
(7.48601e-06 -2.83193e-06 0)
(7.78139e-06 -2.69478e-06 0)
(8.07647e-06 -2.55725e-06 0)
(8.37118e-06 -2.4197e-06 0)
(8.66592e-06 -2.28243e-06 0)
(2.95069e-06 -4.99356e-06 0)
(3.23204e-06 -4.86288e-06 0)
(3.51699e-06 -4.72965e-06 0)
(3.80484e-06 -4.59453e-06 0)
(4.0953e-06 -4.45829e-06 0)
(4.38785e-06 -4.32152e-06 0)
(4.68207e-06 -4.18466e-06 0)
(4.97752e-06 -4.04798e-06 0)
(5.27382e-06 -3.91157e-06 0)
(5.57059e-06 -3.77546e-06 0)
(5.86756e-06 -3.6396e-06 0)
(6.16449e-06 -3.50382e-06 0)
(6.4612e-06 -3.36797e-06 0)
(6.75757e-06 -3.23193e-06 0)
(7.05355e-06 -3.09546e-06 0)
(7.34917e-06 -2.95858e-06 0)
(7.64441e-06 -2.82133e-06 0)
(7.93938e-06 -2.68382e-06 0)
(8.23412e-06 -2.54647e-06 0)
(8.52882e-06 -2.40974e-06 0)
(2.83895e-06 -5.11183e-06 0)
(3.11577e-06 -4.98294e-06 0)
(3.39686e-06 -4.85134e-06 0)
(3.68157e-06 -4.71762e-06 0)
(3.96946e-06 -4.58255e-06 0)
(4.25996e-06 -4.44673e-06 0)
(4.55254e-06 -4.31062e-06 0)
(4.84668e-06 -4.17447e-06 0)
(5.14191e-06 -4.03839e-06 0)
(5.43781e-06 -3.90245e-06 0)
(5.73405e-06 -3.76668e-06 0)
(6.03033e-06 -3.63088e-06 0)
(6.32648e-06 -3.4949e-06 0)
(6.62238e-06 -3.35871e-06 0)
(6.91795e-06 -3.22213e-06 0)
(7.21326e-06 -3.08512e-06 0)
(7.50837e-06 -2.9478e-06 0)
(7.80328e-06 -2.81026e-06 0)
(8.09812e-06 -2.67299e-06 0)
(8.3929e-06 -2.53656e-06 0)
(2.12478e-07 -4.46117e-06 0)
(6.40477e-07 -4.39508e-06 0)
(1.07764e-06 -4.26556e-06 0)
(1.52916e-06 -4.07777e-06 0)
(1.99926e-06 -3.83896e-06 0)
(2.49059e-06 -3.55802e-06 0)
(3.0042e-06 -3.24524e-06 0)
(3.53918e-06 -2.91137e-06 0)
(4.09341e-06 -2.56736e-06 0)
(4.66276e-06 -2.22198e-06 0)
(2.06319e-07 -4.53179e-06 0)
(6.21546e-07 -4.47139e-06 0)
(1.04443e-06 -4.35296e-06 0)
(1.47936e-06 -4.18085e-06 0)
(1.92994e-06 -3.96124e-06 0)
(2.39845e-06 -3.70168e-06 0)
(2.88587e-06 -3.41093e-06 0)
(3.39127e-06 -3.09828e-06 0)
(3.9121e-06 -2.77365e-06 0)
(4.44525e-06 -2.44413e-06 0)
(2.00916e-07 -4.6041e-06 0)
(6.04898e-07 -4.54887e-06 0)
(1.01515e-06 -4.44047e-06 0)
(1.43522e-06 -4.28269e-06 0)
(1.86814e-06 -4.08088e-06 0)
(2.31582e-06 -3.84157e-06 0)
(2.77926e-06 -3.57226e-06 0)
(3.25818e-06 -3.28076e-06 0)
(3.75075e-06 -2.97565e-06 0)
(4.25496e-06 -2.66136e-06 0)
(1.96125e-07 -4.67825e-06 0)
(5.90148e-07 -4.62742e-06 0)
(9.89436e-07 -4.5276e-06 0)
(1.39685e-06 -4.38208e-06 0)
(1.81494e-06 -4.19557e-06 0)
(2.24527e-06 -3.9738e-06 0)
(2.68857e-06 -3.72339e-06 0)
(3.1446e-06 -3.45118e-06 0)
(3.61182e-06 -3.16518e-06 0)
(4.0885e-06 -2.86872e-06 0)
(1.9172e-07 -4.75422e-06 0)
(5.76585e-07 -4.70732e-06 0)
(9.65848e-07 -4.61517e-06 0)
(1.36183e-06 -4.48067e-06 0)
(1.76666e-06 -4.30803e-06 0)
(2.18164e-06 -4.10232e-06 0)
(2.60745e-06 -3.86938e-06 0)
(3.04385e-06 -3.61507e-06 0)
(3.48979e-06 -3.34663e-06 0)
(3.94283e-06 -3.06705e-06 0)
(1.87609e-07 -4.8319e-06 0)
(5.64038e-07 -4.7884e-06 0)
(9.44146e-07 -4.7029e-06 0)
(1.32988e-06 -4.57805e-06 0)
(1.72302e-06 -4.41755e-06 0)
(2.12459e-06 -4.22602e-06 0)
(2.53512e-06 -4.00875e-06 0)
(2.95426e-06 -3.7709e-06 0)
(3.38156e-06 -3.51901e-06 0)
(3.81397e-06 -3.25613e-06 0)
(1.83682e-07 -4.91118e-06 0)
(5.52092e-07 -4.87072e-06 0)
(9.23605e-07 -4.79116e-06 0)
(1.29988e-06 -4.67492e-06 0)
(1.68238e-06 -4.52533e-06 0)
(2.07196e-06 -4.34657e-06 0)
(2.46908e-06 -4.14346e-06 0)
(2.87322e-06 -3.92059e-06 0)
(3.28439e-06 -3.68379e-06 0)
(3.69901e-06 -3.43646e-06 0)
(1.79915e-07 -4.99188e-06 0)
(5.40606e-07 -4.95412e-06 0)
(9.03969e-07 -4.8798e-06 0)
(1.27141e-06 -4.77117e-06 0)
(1.64415e-06 -4.63128e-06 0)
(2.02287e-06 -4.46393e-06 0)
(2.40802e-06 -4.27355e-06 0)
(2.79889e-06 -4.06435e-06 0)
(3.19587e-06 -3.84147e-06 0)
(3.59515e-06 -3.60859e-06 0)
(1.76214e-07 -5.07388e-06 0)
(5.29353e-07 -5.03851e-06 0)
(8.84842e-07 -4.96888e-06 0)
(1.24387e-06 -4.86709e-06 0)
(1.60749e-06 -4.73589e-06 0)
(1.97626e-06 -4.5788e-06 0)
(2.35057e-06 -4.39989e-06 0)
(2.72965e-06 -4.20307e-06 0)
(3.11407e-06 -3.99287e-06 0)
(3.50001e-06 -3.77322e-06 0)
(1.72514e-07 -5.15696e-06 0)
(5.18197e-07 -5.12373e-06 0)
(8.65973e-07 -5.0583e-06 0)
(1.21687e-06 -4.96261e-06 0)
(1.57183e-06 -4.83922e-06 0)
(1.93132e-06 -4.69136e-06 0)
(2.29568e-06 -4.52279e-06 0)
(2.66411e-06 -4.33721e-06 0)
(3.03728e-06 -4.1386e-06 0)
(3.41152e-06 -3.93099e-06 0)
(1.68782e-07 -5.24092e-06 0)
(5.06999e-07 -5.20965e-06 0)
(8.47085e-07 -5.148e-06 0)
(1.19002e-06 -5.05779e-06 0)
(1.53661e-06 -4.94145e-06 0)
(1.88729e-06 -4.80193e-06 0)
(2.24238e-06 -4.64271e-06 0)
(2.60107e-06 -4.4673e-06 0)
(2.96405e-06 -4.27924e-06 0)
(3.32789e-06 -4.08257e-06 0)
(1.64997e-07 -5.32554e-06 0)
(4.95627e-07 -5.29605e-06 0)
(8.27952e-07 -5.23781e-06 0)
(1.16296e-06 -5.15257e-06 0)
(1.50135e-06 -5.0426e-06 0)
(1.84354e-06 -4.91063e-06 0)
(2.18985e-06 -4.75989e-06 0)
(2.53948e-06 -4.5937e-06 0)
(2.89308e-06 -4.41525e-06 0)
(3.24756e-06 -4.22851e-06 0)
(1.61109e-07 -5.41062e-06 0)
(4.8392e-07 -5.38274e-06 0)
(8.08321e-07 -5.32761e-06 0)
(1.13532e-06 -5.24689e-06 0)
(1.46556e-06 -5.14271e-06 0)
(1.79942e-06 -5.01761e-06 0)
(2.13725e-06 -4.87457e-06 0)
(2.4783e-06 -4.71677e-06 0)
(2.82316e-06 -4.54708e-06 0)
(3.16909e-06 -4.36934e-06 0)
(1.57054e-07 -5.49586e-06 0)
(4.71718e-07 -5.46942e-06 0)
(7.87943e-07 -5.41715e-06 0)
(1.10673e-06 -5.34057e-06 0)
(1.42872e-06 -5.24168e-06 0)
(1.75429e-06 -5.12286e-06 0)
(2.0838e-06 -4.98687e-06 0)
(2.41659e-06 -4.83672e-06 0)
(2.75316e-06 -4.67504e-06 0)
(3.09113e-06 -4.50549e-06 0)
(1.52772e-07 -5.581e-06 0)
(4.58868e-07 -5.55588e-06 0)
(7.6655e-07 -5.50626e-06 0)
(1.07681e-06 -5.4335e-06 0)
(1.39033e-06 -5.33949e-06 0)
(1.7075e-06 -5.22645e-06 0)
(2.02868e-06 -5.09695e-06 0)
(2.35335e-06 -4.95382e-06 0)
(2.6819e-06 -4.79949e-06 0)
(3.01229e-06 -4.63739e-06 0)
(1.48214e-07 -5.66557e-06 0)
(4.45219e-07 -5.64168e-06 0)
(7.43868e-07 -5.59454e-06 0)
(1.04516e-06 -5.52534e-06 0)
(1.34985e-06 -5.43586e-06 0)
(1.65835e-06 -5.32819e-06 0)
(1.97106e-06 -5.20471e-06 0)
(2.2876e-06 -5.06806e-06 0)
(2.60821e-06 -4.92052e-06 0)
(2.93128e-06 -4.76524e-06 0)
(1.43321e-07 -5.74943e-06 0)
(4.3057e-07 -5.72671e-06 0)
(7.19545e-07 -5.68189e-06 0)
(1.01128e-06 -5.61605e-06 0)
(1.30662e-06 -5.53083e-06 0)
(1.60603e-06 -5.4282e-06 0)
(1.90996e-06 -5.31036e-06 0)
(2.21814e-06 -5.17978e-06 0)
(2.53081e-06 -5.03855e-06 0)
(2.84656e-06 -4.88965e-06 0)
(1.38021e-07 -5.83163e-06 0)
(4.14698e-07 -5.81003e-06 0)
(6.93208e-07 -5.76742e-06 0)
(9.74655e-07 -5.70479e-06 0)
(1.25996e-06 -5.62365e-06 0)
(1.5497e-06 -5.52582e-06 0)
(1.84436e-06 -5.41334e-06 0)
(2.1438e-06 -5.28852e-06 0)
(2.44825e-06 -5.15327e-06 0)
(2.75661e-06 -5.01038e-06 0)
(1.32198e-07 -5.9126e-06 0)
(3.97261e-07 -5.89208e-06 0)
(6.64299e-07 -5.85162e-06 0)
(9.34504e-07 -5.7921e-06 0)
(1.20889e-06 -5.71491e-06 0)
(1.48815e-06 -5.62173e-06 0)
(1.77286e-06 -5.51443e-06 0)
(2.06302e-06 -5.39513e-06 0)
(2.35885e-06 -5.26565e-06 0)
(2.65958e-06 -5.1285e-06 0)
(1.25801e-07 -5.98974e-06 0)
(3.7812e-07 -5.97032e-06 0)
(6.32575e-07 -5.93199e-06 0)
(8.90458e-07 -5.87558e-06 0)
(1.15291e-06 -5.80234e-06 0)
(1.42077e-06 -5.71381e-06 0)
(1.69468e-06 -5.61168e-06 0)
(1.97489e-06 -5.49792e-06 0)
(2.26159e-06 -5.37423e-06 0)
(2.55435e-06 -5.2429e-06 0)
)


// ************************************************************************* //
