/*--------------------------------*- C++ -*----------------------------------*\
| =========                 |                                                 |
| \\      /  F ield         | foam-extend: Open Source CFD                    |
|  \\    /   O peration     | Version:     4.1                                |
|   \\  /    A nd           | Web:         http://www.foam-extend.org         |
|    \\/     M anipulation  |                                                 |
\*---------------------------------------------------------------------------*/
FoamFile
{
    version     2.0;
    format      ascii;
    class       vectorField;
    location    "10";
    object      solidsCellD_iteration13;
}
// * * * * * * * * * * * * * * * * * * * * * * * * * * * * * * * * * * * * * //


1000
(
(5.24003e-06 -2.25532e-06 0)
(4.93996e-06 -2.09686e-06 0)
(4.74751e-06 -1.99553e-06 0)
(4.63622e-06 -1.94719e-06 0)
(4.58083e-06 -1.92905e-06 0)
(4.56621e-06 -1.93428e-06 0)
(4.58158e-06 -1.9547e-06 0)
(4.61951e-06 -1.98642e-06 0)
(4.67432e-06 -2.02578e-06 0)
(4.74261e-06 -2.07045e-06 0)
(4.73731e-06 -2.46341e-06 0)
(4.4178e-06 -2.3523e-06 0)
(4.21317e-06 -2.28085e-06 0)
(4.09296e-06 -2.25281e-06 0)
(4.03067e-06 -2.24812e-06 0)
(4.0099e-06 -2.26283e-06 0)
(4.01943e-06 -2.29003e-06 0)
(4.05131e-06 -2.32678e-06 0)
(4.09966e-06 -2.37035e-06 0)
(4.16005e-06 -2.41755e-06 0)
(4.2152e-06 -2.66063e-06 0)
(3.88883e-06 -2.60246e-06 0)
(3.68e-06 -2.56451e-06 0)
(3.55597e-06 -2.55893e-06 0)
(3.49002e-06 -2.56892e-06 0)
(3.46504e-06 -2.59378e-06 0)
(3.4698e-06 -2.62806e-06 0)
(3.49624e-06 -2.66988e-06 0)
(3.53844e-06 -2.71749e-06 0)
(3.59199e-06 -2.76748e-06 0)
(3.67756e-06 -2.84352e-06 0)
(3.358e-06 -2.84091e-06 0)
(3.15363e-06 -2.83814e-06 0)
(3.03124e-06 -2.856e-06 0)
(2.96498e-06 -2.88127e-06 0)
(2.93787e-06 -2.91657e-06 0)
(2.93898e-06 -2.95798e-06 0)
(2.96053e-06 -3.00487e-06 0)
(2.99692e-06 -3.05632e-06 0)
(3.04362e-06 -3.1093e-06 0)
(3.12809e-06 -3.00847e-06 0)
(2.82888e-06 -3.06096e-06 0)
(2.63765e-06 -3.09306e-06 0)
(2.5225e-06 -3.1341e-06 0)
(2.45935e-06 -3.17439e-06 0)
(2.43209e-06 -3.21994e-06 0)
(2.43071e-06 -3.26828e-06 0)
(2.44792e-06 -3.3201e-06 0)
(2.4787e-06 -3.37522e-06 0)
(2.51851e-06 -3.43129e-06 0)
(2.56946e-06 -3.15213e-06 0)
(2.30386e-06 -3.25615e-06 0)
(2.1342e-06 -3.32093e-06 0)
(2.03154e-06 -3.38366e-06 0)
(1.97469e-06 -3.43797e-06 0)
(1.94924e-06 -3.49304e-06 0)
(1.94651e-06 -3.54777e-06 0)
(1.95988e-06 -3.60417e-06 0)
(1.98511e-06 -3.66264e-06 0)
(2.01785e-06 -3.72171e-06 0)
(2.00438e-06 -3.27123e-06 0)
(1.78413e-06 -3.42043e-06 0)
(1.6435e-06 -3.51387e-06 0)
(1.5581e-06 -3.5956e-06 0)
(1.51051e-06 -3.66216e-06 0)
(1.48871e-06 -3.72555e-06 0)
(1.48556e-06 -3.78584e-06 0)
(1.49548e-06 -3.84626e-06 0)
(1.51512e-06 -3.90765e-06 0)
(1.54066e-06 -3.96943e-06 0)
(1.43475e-06 -3.36313e-06 0)
(1.26977e-06 -3.54862e-06 0)
(1.16449e-06 -3.66506e-06 0)
(1.10043e-06 -3.76199e-06 0)
(1.06459e-06 -3.83841e-06 0)
(1.0479e-06 -3.90848e-06 0)
(1.04504e-06 -3.97328e-06 0)
(1.05184e-06 -4.03694e-06 0)
(1.06586e-06 -4.10066e-06 0)
(1.08414e-06 -4.16471e-06 0)
(8.62131e-07 -3.42561e-06 0)
(7.59994e-07 -3.63645e-06 0)
(6.94845e-07 -3.76898e-06 0)
(6.5511e-07 -3.87659e-06 0)
(6.32765e-07 -3.9599e-06 0)
(6.22242e-07 -4.03462e-06 0)
(6.20291e-07 -4.10257e-06 0)
(6.24278e-07 -4.16856e-06 0)
(6.32685e-07 -4.23393e-06 0)
(6.43649e-07 -4.2996e-06 0)
(2.87927e-07 -3.45708e-06 0)
(2.53329e-07 -3.68103e-06 0)
(2.31172e-07 -3.82185e-06 0)
(2.17651e-07 -3.93496e-06 0)
(2.10075e-07 -4.02184e-06 0)
(2.06457e-07 -4.099e-06 0)
(2.05692e-07 -4.16855e-06 0)
(2.06972e-07 -4.23571e-06 0)
(2.09778e-07 -4.30194e-06 0)
(2.13422e-07 -4.36849e-06 0)
(8.18676e-06 -1.02969e-07 0)
(8.26156e-06 -7.41469e-08 0)
(8.30591e-06 -5.58261e-08 0)
(8.35338e-06 -4.4996e-08 0)
(8.40475e-06 -3.89185e-08 0)
(8.4679e-06 -3.60642e-08 0)
(8.54273e-06 -3.53777e-08 0)
(8.63023e-06 -3.60505e-08 0)
(8.73017e-06 -3.77895e-08 0)
(8.8412e-06 -3.9925e-08 0)
(8.12587e-06 -3.08912e-07 0)
(8.18822e-06 -2.24124e-07 0)
(8.22478e-06 -1.70292e-07 0)
(8.26701e-06 -1.3864e-07 0)
(8.31492e-06 -1.21014e-07 0)
(8.37559e-06 -1.12694e-07 0)
(8.44868e-06 -1.10781e-07 0)
(8.53474e-06 -1.13063e-07 0)
(8.63346e-06 -1.18339e-07 0)
(8.74319e-06 -1.24667e-07 0)
(8.00433e-06 -5.16574e-07 0)
(8.04292e-06 -3.80462e-07 0)
(8.06444e-06 -2.94109e-07 0)
(8.0967e-06 -2.43338e-07 0)
(8.13803e-06 -2.15218e-07 0)
(8.19406e-06 -2.02245e-07 0)
(8.26371e-06 -1.99518e-07 0)
(8.34702e-06 -2.03502e-07 0)
(8.44339e-06 -2.12272e-07 0)
(8.55058e-06 -2.22864e-07 0)
(7.82432e-06 -7.26872e-07 0)
(7.82909e-06 -5.46751e-07 0)
(7.82918e-06 -4.32564e-07 0)
(7.84726e-06 -3.65717e-07 0)
(7.87919e-06 -3.28858e-07 0)
(7.92861e-06 -3.12177e-07 0)
(7.9934e-06 -3.09102e-07 0)
(8.0728e-06 -3.15061e-07 0)
(8.16584e-06 -3.27342e-07 0)
(8.26947e-06 -3.42236e-07 0)
(7.58863e-06 -9.40338e-07 0)
(7.55163e-06 -7.26001e-07 0)
(7.52521e-06 -5.9011e-07 0)
(7.52572e-06 -5.11076e-07 0)
(7.54603e-06 -4.67852e-07 0)
(7.58721e-06 -4.48896e-07 0)
(7.64595e-06 -4.46237e-07 0)
(7.72045e-06 -4.54527e-07 0)
(7.80934e-06 -4.70327e-07 0)
(7.90868e-06 -4.89506e-07 0)
(7.30086e-06 -1.15709e-06 0)
(7.21658e-06 -9.20178e-07 0)
(7.16024e-06 -7.69883e-07 0)
(7.14088e-06 -6.83262e-07 0)
(7.14797e-06 -6.36495e-07 0)
(7.17976e-06 -6.1695e-07 0)
(7.23161e-06 -6.15597e-07 0)
(7.30049e-06 -6.26605e-07 0)
(7.38458e-06 -6.45951e-07 0)
(7.47905e-06 -6.69403e-07 0)
(6.96531e-06 -1.37671e-06 0)
(6.83106e-06 -1.13007e-06 0)
(6.74312e-06 -9.73476e-07 0)
(6.70275e-06 -8.84366e-07 0)
(6.69584e-06 -8.37137e-07 0)
(6.71762e-06 -8.18862e-07 0)
(6.76205e-06 -8.19822e-07 0)
(6.82489e-06 -8.33985e-07 0)
(6.9037e-06 -8.56962e-07 0)
(6.99302e-06 -8.84626e-07 0)
(6.5865e-06 -1.59816e-06 0)
(6.40275e-06 -1.35515e-06 0)
(6.28352e-06 -1.20067e-06 0)
(6.22223e-06 -1.11438e-06 0)
(6.20134e-06 -1.06991e-06 0)
(6.213e-06 -1.05485e-06 0)
(6.24977e-06 -1.05919e-06 0)
(6.30633e-06 -1.07705e-06 0)
(6.37952e-06 -1.10378e-06 0)
(6.46353e-06 -1.13569e-06 0)
(6.16938e-06 -1.81991e-06 0)
(5.93962e-06 -1.59355e-06 0)
(5.79136e-06 -1.4495e-06 0)
(5.7105e-06 -1.37124e-06 0)
(5.6764e-06 -1.33273e-06 0)
(5.67828e-06 -1.32276e-06 0)
(5.70745e-06 -1.33156e-06 0)
(5.7577e-06 -1.35358e-06 0)
(5.82501e-06 -1.38442e-06 0)
(5.90383e-06 -1.42038e-06 0)
(5.71893e-06 -2.03985e-06 0)
(5.44959e-06 -1.8422e-06 0)
(5.27634e-06 -1.71621e-06 0)
(5.17846e-06 -1.65085e-06 0)
(5.13261e-06 -1.62125e-06 0)
(5.12559e-06 -1.61814e-06 0)
(5.14764e-06 -1.63235e-06 0)
(5.19163e-06 -1.65919e-06 0)
(5.25303e-06 -1.69422e-06 0)
(5.32645e-06 -1.73573e-06 0)
(8.96371e-06 -4.20364e-08 0)
(9.09732e-06 -4.24135e-08 0)
(9.23949e-06 -4.28979e-08 0)
(9.38974e-06 -4.3224e-08 0)
(9.54711e-06 -4.33507e-08 0)
(9.71099e-06 -4.3257e-08 0)
(9.88063e-06 -4.28733e-08 0)
(1.00554e-05 -4.22269e-08 0)
(1.02347e-05 -4.13143e-08 0)
(1.0418e-05 -4.00932e-08 0)
(1.06047e-05 -3.85216e-08 0)
(1.07942e-05 -3.6578e-08 0)
(1.09861e-05 -3.42357e-08 0)
(1.11796e-05 -3.14689e-08 0)
(1.13744e-05 -2.82338e-08 0)
(1.15696e-05 -2.44642e-08 0)
(1.17648e-05 -2.00735e-08 0)
(1.19587e-05 -1.4978e-08 0)
(1.21516e-05 -9.05748e-09 0)
(1.23402e-05 -2.26558e-09 0)
(8.87006e-06 -1.30518e-07 0)
(9.01153e-06 -1.31052e-07 0)
(9.16073e-06 -1.31964e-07 0)
(9.31709e-06 -1.32492e-07 0)
(9.4799e-06 -1.3244e-07 0)
(9.64856e-06 -1.31821e-07 0)
(9.82252e-06 -1.30476e-07 0)
(1.00012e-05 -1.28396e-07 0)
(1.0184e-05 -1.25472e-07 0)
(1.03705e-05 -1.21613e-07 0)
(1.05602e-05 -1.16757e-07 0)
(1.07525e-05 -1.10858e-07 0)
(1.09469e-05 -1.0381e-07 0)
(1.11429e-05 -9.54879e-08 0)
(1.134e-05 -8.57345e-08 0)
(1.15374e-05 -7.43726e-08 0)
(1.17347e-05 -6.11707e-08 0)
(1.19307e-05 -4.58906e-08 0)
(1.21256e-05 -2.8156e-08 0)
(1.23162e-05 -7.8139e-09 0)
(8.68598e-06 -2.31151e-07 0)
(8.84288e-06 -2.30096e-07 0)
(9.00584e-06 -2.29834e-07 0)
(9.17408e-06 -2.29357e-07 0)
(9.34752e-06 -2.28163e-07 0)
(9.52563e-06 -2.26261e-07 0)
(9.70809e-06 -2.23293e-07 0)
(9.89437e-06 -2.19207e-07 0)
(1.00842e-05 -2.13812e-07 0)
(1.0277e-05 -2.06991e-07 0)
(1.04725e-05 -1.98628e-07 0)
(1.06702e-05 -1.88603e-07 0)
(1.08697e-05 -1.76704e-07 0)
(1.10704e-05 -1.62709e-07 0)
(1.12719e-05 -1.46362e-07 0)
(1.14736e-05 -1.27375e-07 0)
(1.16751e-05 -1.05359e-07 0)
(1.18751e-05 -7.99138e-08 0)
(1.2074e-05 -5.04009e-08 0)
(1.22686e-05 -1.65483e-08 0)
(8.41701e-06 -3.50836e-07 0)
(8.59601e-06 -3.45455e-07 0)
(8.77888e-06 -3.41515e-07 0)
(8.96442e-06 -3.38122e-07 0)
(9.15339e-06 -3.34185e-07 0)
(9.34522e-06 -3.29727e-07 0)
(9.54006e-06 -3.24092e-07 0)
(9.7375e-06 -3.17188e-07 0)
(9.93749e-06 -3.08691e-07 0)
(1.01397e-05 -2.98413e-07 0)
(1.03437e-05 -2.8614e-07 0)
(1.05494e-05 -2.71653e-07 0)
(1.07563e-05 -2.54649e-07 0)
(1.0964e-05 -2.34817e-07 0)
(1.11721e-05 -2.118e-07 0)
(1.13801e-05 -1.8517e-07 0)
(1.15876e-05 -1.54372e-07 0)
(1.17935e-05 -1.18825e-07 0)
(1.19982e-05 -7.76107e-08 0)
(1.21986e-05 -3.0361e-08 0)
(8.0713e-06 -4.95698e-07 0)
(8.27804e-06 -4.82476e-07 0)
(8.48616e-06 -4.71665e-07 0)
(8.69362e-06 -4.62897e-07 0)
(8.9024e-06 -4.54131e-07 0)
(9.11181e-06 -4.45431e-07 0)
(9.32258e-06 -4.35761e-07 0)
(9.53441e-06 -4.24945e-07 0)
(9.7475e-06 -4.12462e-07 0)
(9.96164e-06 -3.98006e-07 0)
(1.01768e-05 -3.81261e-07 0)
(1.03927e-05 -3.61894e-07 0)
(1.06092e-05 -3.39485e-07 0)
(1.08259e-05 -3.13609e-07 0)
(1.10426e-05 -2.83785e-07 0)
(1.12587e-05 -2.49439e-07 0)
(1.14741e-05 -2.0985e-07 0)
(1.16877e-05 -1.64259e-07 0)
(1.18998e-05 -1.11457e-07 0)
(1.21077e-05 -5.09724e-08 0)
(7.65868e-06 -6.70141e-07 0)
(7.89733e-06 -6.45007e-07 0)
(8.13498e-06 -6.23528e-07 0)
(8.36825e-06 -6.06382e-07 0)
(8.60053e-06 -5.90304e-07 0)
(8.83092e-06 -5.75329e-07 0)
(9.06066e-06 -5.59975e-07 0)
(9.28971e-06 -5.43884e-07 0)
(9.51854e-06 -5.26354e-07 0)
(9.74714e-06 -5.06909e-07 0)
(9.97562e-06 -4.85075e-07 0)
(1.02039e-05 -4.60363e-07 0)
(1.0432e-05 -4.32214e-07 0)
(1.06595e-05 -4.00074e-07 0)
(1.08865e-05 -3.63314e-07 0)
(1.11124e-05 -3.21223e-07 0)
(1.13372e-05 -2.72889e-07 0)
(1.15598e-05 -2.17385e-07 0)
(1.1781e-05 -1.53204e-07 0)
(1.19979e-05 -7.97124e-08 0)
(7.1907e-06 -8.76898e-07 0)
(7.464e-06 -8.35707e-07 0)
(7.73422e-06 -7.99782e-07 0)
(7.99619e-06 -7.71045e-07 0)
(8.25469e-06 -7.45048e-07 0)
(8.5087e-06 -7.21549e-07 0)
(8.75994e-06 -6.98759e-07 0)
(9.00857e-06 -6.75944e-07 0)
(9.25533e-06 -6.52194e-07 0)
(9.50045e-06 -6.2681e-07 0)
(9.7442e-06 -5.9912e-07 0)
(9.98668e-06 -5.68455e-07 0)
(1.02279e-05 -5.34106e-07 0)
(1.04679e-05 -4.95383e-07 0)
(1.07067e-05 -4.51502e-07 0)
(1.09438e-05 -4.01598e-07 0)
(1.11794e-05 -3.44558e-07 0)
(1.14125e-05 -2.79264e-07 0)
(1.1644e-05 -2.03932e-07 0)
(1.18712e-05 -1.17749e-07 0)
(6.67902e-06 -1.11655e-06 0)
(6.98802e-06 -1.05475e-06 0)
(7.29238e-06 -1.00061e-06 0)
(7.58507e-06 -9.567e-07 0)
(7.87184e-06 -9.18043e-07 0)
(8.15159e-06 -8.8363e-07 0)
(8.42641e-06 -8.51498e-07 0)
(8.69666e-06 -8.20428e-07 0)
(8.96325e-06 -7.89259e-07 0)
(9.22663e-06 -7.57001e-07 0)
(9.48727e-06 -7.22748e-07 0)
(9.74543e-06 -6.85623e-07 0)
(1.00013e-05 -6.44747e-07 0)
(1.02551e-05 -5.99264e-07 0)
(1.05069e-05 -5.48213e-07 0)
(1.07564e-05 -4.90555e-07 0)
(1.10039e-05 -4.24971e-07 0)
(1.12487e-05 -3.50145e-07 0)
(1.14915e-05 -2.64009e-07 0)
(1.17301e-05 -1.65569e-07 0)
(6.13631e-06 -1.3886e-06 0)
(6.48099e-06 -1.30243e-06 0)
(6.81943e-06 -1.22768e-06 0)
(7.14386e-06 -1.16557e-06 0)
(7.45973e-06 -1.11183e-06 0)
(7.7665e-06 -1.06433e-06 0)
(8.06611e-06 -1.02096e-06 0)
(8.35926e-06 -9.80009e-07 0)
(8.64698e-06 -9.40029e-07 0)
(8.92993e-06 -8.99728e-07 0)
(9.20872e-06 -8.57952e-07 0)
(9.4838e-06 -8.1361e-07 0)
(9.75555e-06 -7.65637e-07 0)
(1.00242e-05 -7.12986e-07 0)
(1.02901e-05 -6.54506e-07 0)
(1.0553e-05 -5.88968e-07 0)
(1.08134e-05 -5.14848e-07 0)
(1.10707e-05 -4.30634e-07 0)
(1.13257e-05 -3.34016e-07 0)
(1.15767e-05 -2.23834e-07 0)
(5.57273e-06 -1.68813e-06 0)
(5.9529e-06 -1.57206e-06 0)
(6.32381e-06 -1.4742e-06 0)
(6.68068e-06 -1.39096e-06 0)
(7.02628e-06 -1.31969e-06 0)
(7.3612e-06 -1.25713e-06 0)
(7.68674e-06 -1.20094e-06 0)
(8.00395e-06 -1.14892e-06 0)
(8.31389e-06 -1.09927e-06 0)
(8.6174e-06 -1.05033e-06 0)
(8.91526e-06 -1.00066e-06 0)
(9.20808e-06 -9.48901e-07 0)
(9.49643e-06 -8.93772e-07 0)
(9.78069e-06 -8.34013e-07 0)
(1.00612e-05 -7.68273e-07 0)
(1.03382e-05 -6.95129e-07 0)
(1.0612e-05 -6.12867e-07 0)
(1.08823e-05 -5.19768e-07 0)
(1.11502e-05 -4.13305e-07 0)
(1.14141e-05 -2.92094e-07 0)
(5.15693e-06 -1.97318e-06 0)
(5.55964e-06 -1.83353e-06 0)
(5.94927e-06 -1.71873e-06 0)
(6.32556e-06 -1.61898e-06 0)
(6.68953e-06 -1.53249e-06 0)
(7.04208e-06 -1.45599e-06 0)
(7.38433e-06 -1.38704e-06 0)
(7.71727e-06 -1.32341e-06 0)
(8.04192e-06 -1.26314e-06 0)
(8.35913e-06 -1.20443e-06 0)
(8.6697e-06 -1.14568e-06 0)
(8.9743e-06 -1.08542e-06 0)
(9.27357e-06 -1.0222e-06 0)
(9.56798e-06 -9.54634e-07 0)
(9.85799e-06 -8.81245e-07 0)
(1.01439e-05 -8.00486e-07 0)
(1.04261e-05 -7.10585e-07 0)
(1.07047e-05 -6.09707e-07 0)
(1.09806e-05 -4.95296e-07 0)
(1.12528e-05 -3.65886e-07 0)
(4.91795e-06 -2.20347e-06 0)
(5.32337e-06 -2.05859e-06 0)
(5.71613e-06 -1.93448e-06 0)
(6.09727e-06 -1.82475e-06 0)
(6.46687e-06 -1.72774e-06 0)
(6.82551e-06 -1.64073e-06 0)
(7.17401e-06 -1.56147e-06 0)
(7.51314e-06 -1.48788e-06 0)
(7.84371e-06 -1.41805e-06 0)
(8.16649e-06 -1.35023e-06 0)
(8.4822e-06 -1.28282e-06 0)
(8.79152e-06 -1.21433e-06 0)
(9.09504e-06 -1.14329e-06 0)
(9.39327e-06 -1.06827e-06 0)
(9.6867e-06 -9.87781e-07 0)
(9.97571e-06 -9.00266e-07 0)
(1.02608e-05 -8.04009e-07 0)
(1.05422e-05 -6.97197e-07 0)
(1.08209e-05 -5.77398e-07 0)
(1.10963e-05 -4.43227e-07 0)
(4.71236e-06 -2.42522e-06 0)
(5.11397e-06 -2.2768e-06 0)
(5.50609e-06 -2.14646e-06 0)
(5.88799e-06 -2.02904e-06 0)
(6.2597e-06 -1.92331e-06 0)
(6.62129e-06 -1.8271e-06 0)
(6.97329e-06 -1.73848e-06 0)
(7.3162e-06 -1.65558e-06 0)
(7.65066e-06 -1.57663e-06 0)
(7.97728e-06 -1.49999e-06 0)
(8.2967e-06 -1.42411e-06 0)
(8.60953e-06 -1.34753e-06 0)
(8.91633e-06 -1.26877e-06 0)
(9.2176e-06 -1.18642e-06 0)
(9.51385e-06 -1.09902e-06 0)
(9.80552e-06 -1.00501e-06 0)
(1.00932e-05 -9.02772e-07 0)
(1.03771e-05 -7.90556e-07 0)
(1.06584e-05 -6.66096e-07 0)
(1.09368e-05 -5.28129e-07 0)
(4.5305e-06 -2.63908e-06 0)
(4.92643e-06 -2.48882e-06 0)
(5.31518e-06 -2.35374e-06 0)
(5.69518e-06 -2.22995e-06 0)
(6.0664e-06 -2.11669e-06 0)
(6.42852e-06 -2.01232e-06 0)
(6.78184e-06 -1.91519e-06 0)
(7.12659e-06 -1.82368e-06 0)
(7.46324e-06 -1.73621e-06 0)
(7.79225e-06 -1.65124e-06 0)
(8.11415e-06 -1.56731e-06 0)
(8.42945e-06 -1.48301e-06 0)
(8.73867e-06 -1.39689e-06 0)
(9.04229e-06 -1.30759e-06 0)
(9.34081e-06 -1.21368e-06 0)
(9.63471e-06 -1.11366e-06 0)
(9.92457e-06 -1.00601e-06 0)
(1.02108e-05 -8.89075e-07 0)
(1.04945e-05 -7.60792e-07 0)
(1.07757e-05 -6.20046e-07 0)
(4.36991e-06 -2.84395e-06 0)
(4.75846e-06 -2.69309e-06 0)
(5.14186e-06 -2.55486e-06 0)
(5.51789e-06 -2.42624e-06 0)
(5.88658e-06 -2.30689e-06 0)
(6.24728e-06 -2.19557e-06 0)
(6.60008e-06 -2.09097e-06 0)
(6.945e-06 -1.99172e-06 0)
(7.28235e-06 -1.89643e-06 0)
(7.61244e-06 -1.80372e-06 0)
(7.93568e-06 -1.71224e-06 0)
(8.25248e-06 -1.62065e-06 0)
(8.56331e-06 -1.52757e-06 0)
(8.86861e-06 -1.4317e-06 0)
(9.16886e-06 -1.33168e-06 0)
(9.46457e-06 -1.22611e-06 0)
(9.75629e-06 -1.11355e-06 0)
(1.00446e-05 -9.92492e-07 0)
(1.03303e-05 -8.61098e-07 0)
(1.06141e-05 -7.18418e-07 0)
(4.22689e-06 -3.03996e-06 0)
(4.60719e-06 -2.88948e-06 0)
(4.98398e-06 -2.74923e-06 0)
(5.35465e-06 -2.61696e-06 0)
(5.71932e-06 -2.49269e-06 0)
(6.07706e-06 -2.3755e-06 0)
(6.42786e-06 -2.2644e-06 0)
(6.77157e-06 -2.15828e-06 0)
(7.10836e-06 -2.05595e-06 0)
(7.43839e-06 -1.95618e-06 0)
(7.76196e-06 -1.85775e-06 0)
(8.0794e-06 -1.75941e-06 0)
(8.39109e-06 -1.65988e-06 0)
(8.69745e-06 -1.55794e-06 0)
(8.99891e-06 -1.45231e-06 0)
(9.29599e-06 -1.3417e-06 0)
(9.58924e-06 -1.22479e-06 0)
(9.87926e-06 -1.10023e-06 0)
(1.01669e-05 -9.66415e-07 0)
(1.04529e-05 -8.22547e-07 0)
(4.09862e-06 -3.22733e-06 0)
(4.47016e-06 -3.07791e-06 0)
(4.83951e-06 -2.93657e-06 0)
(5.20387e-06 -2.8017e-06 0)
(5.56341e-06 -2.67355e-06 0)
(5.91706e-06 -2.55151e-06 0)
(6.26473e-06 -2.43488e-06 0)
(6.60613e-06 -2.32277e-06 0)
(6.94131e-06 -2.21419e-06 0)
(7.27033e-06 -2.10807e-06 0)
(7.59337e-06 -2.00333e-06 0)
(7.91068e-06 -1.89883e-06 0)
(8.22259e-06 -1.79339e-06 0)
(8.52944e-06 -1.6859e-06 0)
(8.83165e-06 -1.57518e-06 0)
(9.12972e-06 -1.46005e-06 0)
(9.42416e-06 -1.33934e-06 0)
(9.71562e-06 -1.21184e-06 0)
(1.00049e-05 -1.0762e-06 0)
(1.02929e-05 -9.31742e-07 0)
(3.98241e-06 -3.40646e-06 0)
(4.34504e-06 -3.25857e-06 0)
(4.70646e-06 -3.11684e-06 0)
(5.06392e-06 -2.98018e-06 0)
(5.41758e-06 -2.84904e-06 0)
(5.76632e-06 -2.72305e-06 0)
(6.11e-06 -2.60176e-06 0)
(6.44824e-06 -2.48451e-06 0)
(6.78099e-06 -2.37046e-06 0)
(7.1082e-06 -2.25871e-06 0)
(7.43001e-06 -2.14833e-06 0)
(7.74655e-06 -2.03829e-06 0)
(8.05811e-06 -1.92752e-06 0)
(8.36498e-06 -1.81505e-06 0)
(8.66753e-06 -1.69977e-06 0)
(8.96624e-06 -1.58066e-06 0)
(9.26159e-06 -1.45667e-06 0)
(9.55425e-06 -1.32677e-06 0)
(9.84495e-06 -1.18983e-06 0)
(1.01345e-05 -1.04529e-06 0)
(3.87589e-06 -3.57789e-06 0)
(4.22962e-06 -3.43181e-06 0)
(4.58292e-06 -3.2902e-06 0)
(4.93314e-06 -3.1524e-06 0)
(5.28044e-06 -3.01901e-06 0)
(5.62374e-06 -2.88987e-06 0)
(5.96283e-06 -2.76472e-06 0)
(6.29728e-06 -2.6431e-06 0)
(6.62696e-06 -2.52433e-06 0)
(6.95178e-06 -2.40767e-06 0)
(7.27178e-06 -2.29232e-06 0)
(7.58706e-06 -2.17737e-06 0)
(7.89782e-06 -2.06188e-06 0)
(8.20431e-06 -1.94499e-06 0)
(8.50687e-06 -1.8257e-06 0)
(8.80592e-06 -1.70313e-06 0)
(9.10192e-06 -1.57638e-06 0)
(9.39552e-06 -1.44455e-06 0)
(9.68734e-06 -1.30674e-06 0)
(9.97835e-06 -1.16252e-06 0)
(3.77696e-06 -3.74216e-06 0)
(4.12193e-06 -3.59804e-06 0)
(4.4671e-06 -3.4569e-06 0)
(4.80994e-06 -3.31847e-06 0)
(5.15065e-06 -3.18344e-06 0)
(5.48818e-06 -3.05181e-06 0)
(5.8223e-06 -2.92353e-06 0)
(6.15253e-06 -2.79826e-06 0)
(6.47871e-06 -2.67548e-06 0)
(6.8007e-06 -2.55459e-06 0)
(7.11849e-06 -2.43493e-06 0)
(7.4321e-06 -2.3157e-06 0)
(7.74171e-06 -2.19608e-06 0)
(8.0475e-06 -2.07534e-06 0)
(8.34977e-06 -1.95259e-06 0)
(8.64892e-06 -1.82707e-06 0)
(8.94533e-06 -1.69802e-06 0)
(9.23962e-06 -1.56469e-06 0)
(9.53234e-06 -1.42637e-06 0)
(9.82451e-06 -1.2828e-06 0)
(3.68372e-06 -3.89986e-06 0)
(4.0202e-06 -3.7577e-06 0)
(4.35734e-06 -3.61728e-06 0)
(4.69284e-06 -3.4786e-06 0)
(5.02691e-06 -3.34243e-06 0)
(5.35852e-06 -3.20891e-06 0)
(5.68743e-06 -3.07811e-06 0)
(6.0132e-06 -2.94984e-06 0)
(6.33559e-06 -2.82371e-06 0)
(6.65445e-06 -2.69925e-06 0)
(6.96972e-06 -2.57591e-06 0)
(7.28139e-06 -2.45302e-06 0)
(7.58958e-06 -2.32986e-06 0)
(7.89445e-06 -2.20582e-06 0)
(8.19621e-06 -2.08012e-06 0)
(8.49523e-06 -1.95212e-06 0)
(8.79185e-06 -1.8212e-06 0)
(9.08662e-06 -1.68672e-06 0)
(9.38008e-06 -1.54821e-06 0)
(9.6731e-06 -1.40549e-06 0)
(3.5945e-06 -4.05151e-06 0)
(3.9228e-06 -3.91128e-06 0)
(4.25213e-06 -3.77171e-06 0)
(4.58045e-06 -3.63308e-06 0)
(4.90791e-06 -3.49618e-06 0)
(5.23358e-06 -3.36125e-06 0)
(5.55722e-06 -3.22849e-06 0)
(5.8784e-06 -3.09781e-06 0)
(6.19686e-06 -2.96894e-06 0)
(6.51243e-06 -2.84151e-06 0)
(6.82502e-06 -2.7151e-06 0)
(7.13458e-06 -2.58913e-06 0)
(7.44119e-06 -2.46299e-06 0)
(7.74496e-06 -2.33617e-06 0)
(8.04606e-06 -2.20801e-06 0)
(8.3448e-06 -2.07798e-06 0)
(8.64146e-06 -1.94556e-06 0)
(8.93655e-06 -1.81026e-06 0)
(9.23055e-06 -1.67178e-06 0)
(9.52424e-06 -1.53003e-06 0)
(3.50779e-06 -4.19764e-06 0)
(3.82826e-06 -4.05923e-06 0)
(4.15006e-06 -3.92062e-06 0)
(4.4714e-06 -3.78225e-06 0)
(4.7924e-06 -3.64494e-06 0)
(5.11223e-06 -3.50902e-06 0)
(5.43065e-06 -3.37477e-06 0)
(5.74724e-06 -3.24221e-06 0)
(6.06177e-06 -3.11116e-06 0)
(6.37402e-06 -2.98134e-06 0)
(6.68387e-06 -2.85242e-06 0)
(6.99125e-06 -2.72392e-06 0)
(7.29618e-06 -2.59534e-06 0)
(7.59875e-06 -2.46624e-06 0)
(7.89907e-06 -2.33607e-06 0)
(8.19741e-06 -2.20439e-06 0)
(8.49397e-06 -2.0708e-06 0)
(8.78927e-06 -1.93495e-06 0)
(9.08359e-06 -1.79668e-06 0)
(9.37779e-06 -1.65594e-06 0)
(3.42219e-06 -4.33868e-06 0)
(3.73516e-06 -4.20202e-06 0)
(4.04974e-06 -4.06438e-06 0)
(4.36437e-06 -3.92642e-06 0)
(4.67915e-06 -3.78897e-06 0)
(4.99335e-06 -3.65242e-06 0)
(5.30673e-06 -3.51713e-06 0)
(5.61887e-06 -3.38316e-06 0)
(5.92955e-06 -3.25044e-06 0)
(6.23853e-06 -3.11875e-06 0)
(6.54565e-06 -2.98785e-06 0)
(6.85084e-06 -2.85733e-06 0)
(7.15409e-06 -2.72678e-06 0)
(7.45541e-06 -2.59586e-06 0)
(7.7549e-06 -2.46409e-06 0)
(8.05275e-06 -2.33111e-06 0)
(8.34913e-06 -2.19665e-06 0)
(8.64449e-06 -2.06046e-06 0)
(8.93904e-06 -1.92247e-06 0)
(9.23355e-06 -1.78279e-06 0)
(3.33623e-06 -4.47511e-06 0)
(3.64208e-06 -4.34003e-06 0)
(3.94979e-06 -4.20339e-06 0)
(4.25805e-06 -4.06599e-06 0)
(4.56696e-06 -3.92864e-06 0)
(4.87582e-06 -3.79178e-06 0)
(5.18443e-06 -3.65582e-06 0)
(5.49235e-06 -3.52088e-06 0)
(5.79937e-06 -3.38694e-06 0)
(6.10523e-06 -3.25385e-06 0)
(6.40978e-06 -3.12144e-06 0)
(6.71288e-06 -2.98938e-06 0)
(7.01449e-06 -2.85732e-06 0)
(7.3146e-06 -2.72498e-06 0)
(7.61324e-06 -2.59196e-06 0)
(7.91058e-06 -2.458e-06 0)
(8.20675e-06 -2.32291e-06 0)
(8.50206e-06 -2.18652e-06 0)
(8.79677e-06 -2.0489e-06 0)
(9.09145e-06 -1.91021e-06 0)
(3.24855e-06 -4.60724e-06 0)
(3.54762e-06 -4.47379e-06 0)
(3.8488e-06 -4.33805e-06 0)
(4.15116e-06 -4.20129e-06 0)
(4.45461e-06 -4.06428e-06 0)
(4.75856e-06 -3.92739e-06 0)
(5.06277e-06 -3.7911e-06 0)
(5.36683e-06 -3.65559e-06 0)
(5.67047e-06 -3.52084e-06 0)
(5.97346e-06 -3.38678e-06 0)
(6.27561e-06 -3.2533e-06 0)
(6.57677e-06 -3.12012e-06 0)
(6.87686e-06 -2.98694e-06 0)
(7.17582e-06 -2.85354e-06 0)
(7.47365e-06 -2.71959e-06 0)
(7.77049e-06 -2.58491e-06 0)
(8.0664e-06 -2.44939e-06 0)
(8.36162e-06 -2.31291e-06 0)
(8.65639e-06 -2.17568e-06 0)
(8.95116e-06 -2.03789e-06 0)
(3.15774e-06 -4.73563e-06 0)
(3.4502e-06 -4.60332e-06 0)
(3.74518e-06 -4.46877e-06 0)
(4.04236e-06 -4.33293e-06 0)
(4.34085e-06 -4.1964e-06 0)
(4.64045e-06 -4.05975e-06 0)
(4.94072e-06 -3.92342e-06 0)
(5.24135e-06 -3.78764e-06 0)
(5.54203e-06 -3.65244e-06 0)
(5.84251e-06 -3.51779e-06 0)
(6.14257e-06 -3.38361e-06 0)
(6.44201e-06 -3.24967e-06 0)
(6.74074e-06 -3.11571e-06 0)
(7.03867e-06 -2.98157e-06 0)
(7.33578e-06 -2.84697e-06 0)
(7.63217e-06 -2.71179e-06 0)
(7.92781e-06 -2.57596e-06 0)
(8.22296e-06 -2.43947e-06 0)
(8.51767e-06 -2.30261e-06 0)
(8.81247e-06 -2.16558e-06 0)
(3.06163e-06 -4.86012e-06 0)
(3.34848e-06 -4.72914e-06 0)
(3.63837e-06 -4.59603e-06 0)
(3.93056e-06 -4.46115e-06 0)
(4.22476e-06 -4.32533e-06 0)
(4.52052e-06 -4.18916e-06 0)
(4.81746e-06 -4.05307e-06 0)
(5.1152e-06 -3.91734e-06 0)
(5.41342e-06 -3.78202e-06 0)
(5.71182e-06 -3.6471e-06 0)
(6.01014e-06 -3.51255e-06 0)
(6.30815e-06 -3.37816e-06 0)
(6.60574e-06 -3.24372e-06 0)
(6.90282e-06 -3.1091e-06 0)
(7.19932e-06 -2.97407e-06 0)
(7.49527e-06 -2.83857e-06 0)
(7.79065e-06 -2.70255e-06 0)
(8.08573e-06 -2.56606e-06 0)
(8.38043e-06 -2.4295e-06 0)
(8.67514e-06 -2.29314e-06 0)
(2.95897e-06 -4.98207e-06 0)
(3.24066e-06 -4.85268e-06 0)
(3.52593e-06 -4.7207e-06 0)
(3.81406e-06 -4.58687e-06 0)
(4.10477e-06 -4.45193e-06 0)
(4.39752e-06 -4.31641e-06 0)
(4.69191e-06 -4.18078e-06 0)
(4.98751e-06 -4.04532e-06 0)
(5.28392e-06 -3.91011e-06 0)
(5.58078e-06 -3.77518e-06 0)
(5.8778e-06 -3.64049e-06 0)
(6.17477e-06 -3.50587e-06 0)
(6.47152e-06 -3.37116e-06 0)
(6.7679e-06 -3.23629e-06 0)
(7.06386e-06 -3.10099e-06 0)
(7.35946e-06 -2.96522e-06 0)
(7.65467e-06 -2.82909e-06 0)
(7.94959e-06 -2.69262e-06 0)
(8.2443e-06 -2.55622e-06 0)
(8.53895e-06 -2.42034e-06 0)
(2.84842e-06 -5.10049e-06 0)
(3.12561e-06 -4.97286e-06 0)
(3.40704e-06 -4.84251e-06 0)
(3.69205e-06 -4.71007e-06 0)
(3.98019e-06 -4.57628e-06 0)
(4.27089e-06 -4.44168e-06 0)
(4.56365e-06 -4.30678e-06 0)
(4.85791e-06 -4.17186e-06 0)
(5.15323e-06 -4.03698e-06 0)
(5.44921e-06 -3.90219e-06 0)
(5.74549e-06 -3.76755e-06 0)
(6.04178e-06 -3.63293e-06 0)
(6.33793e-06 -3.4981e-06 0)
(6.6338e-06 -3.36305e-06 0)
(6.92932e-06 -3.22764e-06 0)
(7.22456e-06 -3.09175e-06 0)
(7.51958e-06 -2.95553e-06 0)
(7.81439e-06 -2.81902e-06 0)
(8.10913e-06 -2.68269e-06 0)
(8.4038e-06 -2.54705e-06 0)
(2.1252e-07 -4.43671e-06 0)
(6.40576e-07 -4.37109e-06 0)
(1.0777e-06 -4.24249e-06 0)
(1.52902e-06 -4.05605e-06 0)
(1.99868e-06 -3.81892e-06 0)
(2.48932e-06 -3.53998e-06 0)
(3.00194e-06 -3.2294e-06 0)
(3.53564e-06 -2.8979e-06 0)
(4.08841e-06 -2.55627e-06 0)
(4.65604e-06 -2.21317e-06 0)
(2.06415e-07 -4.50755e-06 0)
(6.21816e-07 -4.44759e-06 0)
(1.04477e-06 -4.33e-06 0)
(1.47963e-06 -4.15914e-06 0)
(1.92992e-06 -3.94108e-06 0)
(2.39789e-06 -3.68337e-06 0)
(2.88447e-06 -3.39468e-06 0)
(3.38876e-06 -3.08425e-06 0)
(3.90824e-06 -2.7619e-06 0)
(4.43974e-06 -2.43469e-06 0)
(2.01039e-07 -4.58009e-06 0)
(6.05258e-07 -4.52526e-06 0)
(1.01566e-06 -4.41764e-06 0)
(1.43574e-06 -4.261e-06 0)
(1.86848e-06 -4.06062e-06 0)
(2.31574e-06 -3.82301e-06 0)
(2.77851e-06 -3.55561e-06 0)
(3.2565e-06 -3.26618e-06 0)
(3.74789e-06 -2.96325e-06 0)
(4.25064e-06 -2.65125e-06 0)
(1.96265e-07 -4.65446e-06 0)
(5.90564e-07 -4.604e-06 0)
(9.9006e-07 -4.50488e-06 0)
(1.39755e-06 -4.36041e-06 0)
(1.81556e-06 -4.17523e-06 0)
(2.24558e-06 -3.95502e-06 0)
(2.68836e-06 -3.7064e-06 0)
(3.14364e-06 -3.43615e-06 0)
(3.60986e-06 -3.15222e-06 0)
(4.08528e-06 -2.858e-06 0)
(1.91881e-07 -4.73064e-06 0)
(5.77048e-07 -4.68409e-06 0)
(9.66567e-07 -4.59258e-06 0)
(1.36267e-06 -4.45906e-06 0)
(1.7675e-06 -4.28764e-06 0)
(2.18229e-06 -4.08338e-06 0)
(2.6077e-06 -3.85213e-06 0)
(3.0435e-06 -3.59965e-06 0)
(3.48862e-06 -3.33319e-06 0)
(3.94059e-06 -3.05578e-06 0)
(1.87785e-07 -4.80852e-06 0)
(5.64542e-07 -4.76535e-06 0)
(9.44941e-07 -4.68046e-06 0)
(1.33086e-06 -4.5565e-06 0)
(1.72405e-06 -4.39715e-06 0)
(2.12552e-06 -4.20698e-06 0)
(2.53576e-06 -3.99129e-06 0)
(2.95445e-06 -3.75517e-06 0)
(3.38108e-06 -3.50517e-06 0)
(3.8126e-06 -3.24437e-06 0)
(1.83866e-07 -4.888e-06 0)
(5.52633e-07 -4.84785e-06 0)
(9.24464e-07 -4.76886e-06 0)
(1.30097e-06 -4.65345e-06 0)
(1.68357e-06 -4.50494e-06 0)
(2.07314e-06 -4.32746e-06 0)
(2.47008e-06 -4.12583e-06 0)
(2.87387e-06 -3.9046e-06 0)
(3.28451e-06 -3.66962e-06 0)
(3.69841e-06 -3.42429e-06 0)
(1.80115e-07 -4.9689e-06 0)
(5.41184e-07 -4.93142e-06 0)
(9.04887e-07 -4.85764e-06 0)
(1.27261e-06 -4.7498e-06 0)
(1.64551e-06 -4.61092e-06 0)
(2.02428e-06 -4.44478e-06 0)
(2.40933e-06 -4.25581e-06 0)
(2.79998e-06 -4.04819e-06 0)
(3.19656e-06 -3.82705e-06 0)
(3.59526e-06 -3.59609e-06 0)
(1.76436e-07 -5.05107e-06 0)
(5.29968e-07 -5.01597e-06 0)
(8.85826e-07 -4.94687e-06 0)
(1.24517e-06 -4.84581e-06 0)
(1.60901e-06 -4.71558e-06 0)
(1.97789e-06 -4.55964e-06 0)
(2.35219e-06 -4.38208e-06 0)
(2.73114e-06 -4.18678e-06 0)
(3.11529e-06 -3.97826e-06 0)
(3.50078e-06 -3.76045e-06 0)
(1.72749e-07 -5.13431e-06 0)
(5.18853e-07 -5.10136e-06 0)
(8.67032e-07 -5.03642e-06 0)
(1.21829e-06 -4.94143e-06 0)
(1.57351e-06 -4.81898e-06 0)
(1.93318e-06 -4.67222e-06 0)
(2.29761e-06 -4.50495e-06 0)
(2.666e-06 -4.32084e-06 0)
(3.039e-06 -4.12385e-06 0)
(3.41291e-06 -3.91802e-06 0)
(1.69026e-07 -5.21844e-06 0)
(5.07705e-07 -5.18742e-06 0)
(8.48233e-07 -5.12625e-06 0)
(1.19157e-06 -5.03673e-06 0)
(1.53848e-06 -4.92129e-06 0)
(1.8894e-06 -4.78282e-06 0)
(2.24464e-06 -4.62486e-06 0)
(2.60336e-06 -4.45088e-06 0)
(2.96625e-06 -4.26439e-06 0)
(3.32986e-06 -4.06944e-06 0)
(1.65257e-07 -5.30323e-06 0)
(4.96403e-07 -5.27396e-06 0)
(8.29209e-07 -5.2162e-06 0)
(1.16467e-06 -5.13163e-06 0)
(1.50343e-06 -5.02252e-06 0)
(1.84592e-06 -4.89158e-06 0)
(2.19244e-06 -4.74206e-06 0)
(2.54217e-06 -4.57727e-06 0)
(2.89575e-06 -4.40035e-06 0)
(3.2501e-06 -4.21527e-06 0)
(1.61396e-07 -5.38847e-06 0)
(4.84781e-07 -5.36079e-06 0)
(8.09707e-07 -5.30614e-06 0)
(1.13721e-06 -5.22607e-06 0)
(1.46787e-06 -5.12273e-06 0)
(1.8021e-06 -4.99864e-06 0)
(2.1402e-06 -4.8568e-06 0)
(2.48142e-06 -4.70035e-06 0)
(2.82634e-06 -4.53216e-06 0)
(3.17223e-06 -4.35604e-06 0)
(1.57373e-07 -5.47387e-06 0)
(4.7267e-07 -5.44764e-06 0)
(7.89474e-07 -5.39583e-06 0)
(1.10882e-06 -5.31989e-06 0)
(1.43131e-06 -5.22182e-06 0)
(1.7573e-06 -5.10399e-06 0)
(2.08714e-06 -4.96918e-06 0)
(2.42017e-06 -4.82035e-06 0)
(2.75688e-06 -4.66014e-06 0)
(3.0949e-06 -4.49216e-06 0)
(1.53121e-07 -5.55919e-06 0)
(4.59912e-07 -5.53429e-06 0)
(7.68243e-07 -5.48512e-06 0)
(1.07913e-06 -5.41299e-06 0)
(1.39321e-06 -5.31979e-06 0)
(1.71087e-06 -5.20772e-06 0)
(2.03245e-06 -5.07936e-06 0)
(2.35744e-06 -4.93753e-06 0)
(2.68621e-06 -4.78464e-06 0)
(3.01673e-06 -4.62409e-06 0)
(1.48595e-07 -5.64397e-06 0)
(4.46365e-07 -5.62031e-06 0)
(7.45748e-07 -5.5736e-06 0)
(1.04774e-06 -5.50503e-06 0)
(1.35306e-06 -5.41634e-06 0)
(1.66212e-06 -5.30962e-06 0)
(1.97531e-06 -5.18725e-06 0)
(2.29226e-06 -5.05188e-06 0)
(2.61318e-06 -4.90576e-06 0)
(2.93646e-06 -4.75201e-06 0)
(1.43743e-07 -5.72807e-06 0)
(4.31844e-07 -5.70558e-06 0)
(7.21645e-07 -5.66119e-06 0)
(1.01416e-06 -5.59596e-06 0)
(1.31021e-06 -5.51153e-06 0)
(1.61027e-06 -5.40982e-06 0)
(1.91477e-06 -5.29307e-06 0)
(2.22345e-06 -5.16375e-06 0)
(2.5365e-06 -5.02392e-06 0)
(2.85254e-06 -4.87652e-06 0)
(1.38496e-07 -5.81055e-06 0)
(4.16126e-07 -5.78917e-06 0)
(6.95564e-07 -5.74698e-06 0)
(9.77882e-07 -5.68495e-06 0)
(1.264e-06 -5.60457e-06 0)
(1.55448e-06 -5.50765e-06 0)
(1.84982e-06 -5.39625e-06 0)
(2.14984e-06 -5.27266e-06 0)
(2.45476e-06 -5.1388e-06 0)
(2.7635e-06 -4.99739e-06 0)
(1.32737e-07 -5.89182e-06 0)
(3.9887e-07 -5.87153e-06 0)
(6.66949e-07 -5.83147e-06 0)
(9.3814e-07 -5.77254e-06 0)
(1.21345e-06 -5.6961e-06 0)
(1.49357e-06 -5.6038e-06 0)
(1.77906e-06 -5.49755e-06 0)
(2.0699e-06 -5.37947e-06 0)
(2.36628e-06 -5.25136e-06 0)
(2.66748e-06 -5.11566e-06 0)
(1.26411e-07 -5.96933e-06 0)
(3.79935e-07 -5.95012e-06 0)
(6.35559e-07 -5.91219e-06 0)
(8.94559e-07 -5.85635e-06 0)
(1.15807e-06 -5.78382e-06 0)
(1.42692e-06 -5.69615e-06 0)
(1.70172e-06 -5.59506e-06 0)
(1.98273e-06 -5.48251e-06 0)
(2.27009e-06 -5.36016e-06 0)
(2.56339e-06 -5.23022e-06 0)
)


// ************************************************************************* //
