/*--------------------------------*- C++ -*----------------------------------*\
| =========                 |                                                 |
| \\      /  F ield         | foam-extend: Open Source CFD                    |
|  \\    /   O peration     | Version:     4.1                                |
|   \\  /    A nd           | Web:         http://www.foam-extend.org         |
|    \\/     M anipulation  |                                                 |
\*---------------------------------------------------------------------------*/
FoamFile
{
    version     2.0;
    format      ascii;
    class       vectorField;
    location    "10";
    object      solidsCellD_iteration5;
}
// * * * * * * * * * * * * * * * * * * * * * * * * * * * * * * * * * * * * * //


1000
(
(5.16594e-06 -2.18515e-06 0)
(4.87584e-06 -2.03428e-06 0)
(4.69061e-06 -1.93887e-06 0)
(4.58458e-06 -1.8946e-06 0)
(4.53305e-06 -1.87954e-06 0)
(4.52135e-06 -1.88707e-06 0)
(4.53892e-06 -1.90933e-06 0)
(4.57854e-06 -1.94263e-06 0)
(4.63445e-06 -1.98341e-06 0)
(4.70254e-06 -2.02996e-06 0)
(4.67134e-06 -2.38669e-06 0)
(4.36224e-06 -2.2819e-06 0)
(4.16497e-06 -2.21569e-06 0)
(4.05008e-06 -2.19131e-06 0)
(3.99166e-06 -2.18945e-06 0)
(3.9736e-06 -2.20638e-06 0)
(3.98502e-06 -2.23541e-06 0)
(4.01815e-06 -2.2737e-06 0)
(4.06712e-06 -2.31862e-06 0)
(4.12731e-06 -2.36739e-06 0)
(4.15724e-06 -2.57772e-06 0)
(3.84138e-06 -2.52442e-06 0)
(3.63997e-06 -2.49079e-06 0)
(3.52113e-06 -2.48832e-06 0)
(3.45885e-06 -2.50081e-06 0)
(3.43637e-06 -2.52766e-06 0)
(3.44274e-06 -2.56361e-06 0)
(3.47019e-06 -2.60676e-06 0)
(3.51279e-06 -2.6555e-06 0)
(3.56612e-06 -2.70675e-06 0)
(3.62767e-06 -2.75484e-06 0)
(3.31823e-06 -2.75557e-06 0)
(3.12103e-06 -2.75609e-06 0)
(3.00356e-06 -2.77645e-06 0)
(2.94066e-06 -2.80381e-06 0)
(2.9158e-06 -2.84083e-06 0)
(2.91836e-06 -2.88369e-06 0)
(2.94075e-06 -2.93169e-06 0)
(2.97748e-06 -2.98409e-06 0)
(3.02399e-06 -3.03801e-06 0)
(3.0861e-06 -2.91458e-06 0)
(2.79635e-06 -2.96884e-06 0)
(2.61173e-06 -3.00326e-06 0)
(2.50104e-06 -3.04616e-06 0)
(2.44092e-06 -3.08811e-06 0)
(2.41568e-06 -3.13504e-06 0)
(2.41558e-06 -3.18459e-06 0)
(2.43346e-06 -3.23731e-06 0)
(2.4645e-06 -3.29317e-06 0)
(2.50417e-06 -3.34991e-06 0)
(2.53538e-06 -3.05364e-06 0)
(2.27804e-06 -3.15798e-06 0)
(2.11415e-06 -3.22412e-06 0)
(2.01541e-06 -3.28808e-06 0)
(1.96121e-06 -3.34365e-06 0)
(1.93748e-06 -3.39982e-06 0)
(1.93581e-06 -3.45551e-06 0)
(1.94973e-06 -3.51263e-06 0)
(1.97517e-06 -3.57167e-06 0)
(2.00783e-06 -3.63118e-06 0)
(1.97801e-06 -3.16894e-06 0)
(1.76459e-06 -3.31716e-06 0)
(1.62871e-06 -3.41111e-06 0)
(1.54654e-06 -3.49349e-06 0)
(1.50108e-06 -3.56095e-06 0)
(1.48065e-06 -3.62519e-06 0)
(1.47833e-06 -3.68625e-06 0)
(1.48871e-06 -3.74725e-06 0)
(1.50853e-06 -3.80905e-06 0)
(1.53404e-06 -3.87112e-06 0)
(1.41598e-06 -3.25786e-06 0)
(1.25613e-06 -3.44132e-06 0)
(1.15438e-06 -3.55761e-06 0)
(1.09274e-06 -3.65475e-06 0)
(1.05843e-06 -3.73177e-06 0)
(1.04273e-06 -3.80247e-06 0)
(1.0405e-06 -3.86786e-06 0)
(1.04765e-06 -3.93198e-06 0)
(1.06183e-06 -3.996e-06 0)
(1.08009e-06 -4.06017e-06 0)
(8.50908e-07 -3.3183e-06 0)
(7.5196e-07 -3.52639e-06 0)
(6.8897e-07 -3.65831e-06 0)
(6.50686e-07 -3.76582e-06 0)
(6.29289e-07 -3.84952e-06 0)
(6.19414e-07 -3.92474e-06 0)
(6.17858e-07 -3.99316e-06 0)
(6.2203e-07 -4.05951e-06 0)
(6.30511e-07 -4.12512e-06 0)
(6.41472e-07 -4.19085e-06 0)
(2.84189e-07 -3.34875e-06 0)
(2.50627e-07 -3.56955e-06 0)
(2.2923e-07 -3.70955e-06 0)
(2.16237e-07 -3.8224e-06 0)
(2.08964e-07 -3.90954e-06 0)
(2.0554e-07 -3.9871e-06 0)
(2.04927e-07 -4.05707e-06 0)
(2.06284e-07 -4.12456e-06 0)
(2.09105e-07 -4.19096e-06 0)
(2.1274e-07 -4.25749e-06 0)
(8.06009e-06 -9.97968e-08 0)
(8.1332e-06 -7.20127e-08 0)
(8.1777e-06 -5.43998e-08 0)
(8.22583e-06 -4.4045e-08 0)
(8.27823e-06 -3.83038e-08 0)
(8.34249e-06 -3.56576e-08 0)
(8.41839e-06 -3.507e-08 0)
(8.50683e-06 -3.58555e-08 0)
(8.60754e-06 -3.76461e-08 0)
(8.71922e-06 -3.97728e-08 0)
(8.00045e-06 -2.9935e-07 0)
(8.06145e-06 -2.17627e-07 0)
(8.09839e-06 -1.65949e-07 0)
(8.14144e-06 -1.35673e-07 0)
(8.1905e-06 -1.18931e-07 0)
(8.25236e-06 -1.11278e-07 0)
(8.32656e-06 -1.09752e-07 0)
(8.41362e-06 -1.12257e-07 0)
(8.51317e-06 -1.17626e-07 0)
(8.62359e-06 -1.24012e-07 0)
(7.88124e-06 -5.00616e-07 0)
(7.91921e-06 -3.69411e-07 0)
(7.94158e-06 -2.86507e-07 0)
(7.97499e-06 -2.38052e-07 0)
(8.01768e-06 -2.11419e-07 0)
(8.07505e-06 -1.99446e-07 0)
(8.14595e-06 -1.973e-07 0)
(8.23029e-06 -2.0166e-07 0)
(8.32757e-06 -2.1062e-07 0)
(8.43556e-06 -2.21316e-07 0)
(7.70463e-06 -7.04381e-07 0)
(7.70989e-06 -5.30833e-07 0)
(7.71149e-06 -4.21226e-07 0)
(7.73119e-06 -3.57443e-07 0)
(7.76477e-06 -3.22591e-07 0)
(7.81565e-06 -3.07277e-07 0)
(7.88185e-06 -3.05035e-07 0)
(7.96241e-06 -3.11526e-07 0)
(8.0565e-06 -3.24117e-07 0)
(8.1611e-06 -3.39151e-07 0)
(7.47336e-06 -9.11229e-07 0)
(7.43818e-06 -7.04824e-07 0)
(7.41412e-06 -5.74461e-07 0)
(7.41677e-06 -4.99108e-07 0)
(7.4391e-06 -4.58307e-07 0)
(7.482e-06 -4.41016e-07 0)
(7.54233e-06 -4.39423e-07 0)
(7.61814e-06 -4.48393e-07 0)
(7.70823e-06 -4.64624e-07 0)
(7.80871e-06 -4.84001e-07 0)
(7.19097e-06 -1.12123e-06 0)
(7.10998e-06 -8.93233e-07 0)
(7.0569e-06 -7.49176e-07 0)
(7.04028e-06 -6.66721e-07 0)
(7.04982e-06 -6.22707e-07 0)
(7.08363e-06 -6.05064e-07 0)
(7.13727e-06 -6.04958e-07 0)
(7.20764e-06 -6.16782e-07 0)
(7.29311e-06 -6.36669e-07 0)
(7.389e-06 -6.60387e-07 0)
(6.86156e-06 -1.33397e-06 0)
(6.73219e-06 -1.09682e-06 0)
(6.64851e-06 -9.46915e-07 0)
(6.6115e-06 -8.62305e-07 0)
(6.60746e-06 -8.18087e-07 0)
(6.63156e-06 -8.01884e-07 0)
(6.67799e-06 -8.04222e-07 0)
(6.74249e-06 -8.19345e-07 0)
(6.82287e-06 -8.43004e-07 0)
(6.91396e-06 -8.71049e-07 0)
(6.48957e-06 -1.54851e-06 0)
(6.31222e-06 -1.3151e-06 0)
(6.19817e-06 -1.16749e-06 0)
(6.14087e-06 -1.08584e-06 0)
(6.1232e-06 -1.04454e-06 0)
(6.13746e-06 -1.03165e-06 0)
(6.17645e-06 -1.03745e-06 0)
(6.2349e-06 -1.05638e-06 0)
(6.30988e-06 -1.08391e-06 0)
(6.39611e-06 -1.11633e-06 0)
(6.07977e-06 -1.76332e-06 0)
(5.85781e-06 -1.54629e-06 0)
(5.71562e-06 -1.409e-06 0)
(5.63932e-06 -1.33536e-06 0)
(5.60878e-06 -1.30007e-06 0)
(5.61355e-06 -1.29235e-06 0)
(5.64514e-06 -1.30269e-06 0)
(5.69749e-06 -1.32588e-06 0)
(5.76668e-06 -1.35762e-06 0)
(5.84801e-06 -1.39427e-06 0)
(5.637e-06 -1.97636e-06 0)
(5.37659e-06 -1.78738e-06 0)
(5.21013e-06 -1.66784e-06 0)
(5.11724e-06 -1.6069e-06 0)
(5.07521e-06 -1.5805e-06 0)
(5.07117e-06 -1.5797e-06 0)
(5.09564e-06 -1.59557e-06 0)
(5.14188e-06 -1.62373e-06 0)
(5.20527e-06 -1.6599e-06 0)
(5.28134e-06 -1.70225e-06 0)
(8.84206e-06 -4.18882e-08 0)
(8.97597e-06 -4.23431e-08 0)
(9.1184e-06 -4.28853e-08 0)
(9.26884e-06 -4.32591e-08 0)
(9.42632e-06 -4.34221e-08 0)
(9.59027e-06 -4.33645e-08 0)
(9.75999e-06 -4.30488e-08 0)
(9.9348e-06 -4.24861e-08 0)
(1.01141e-05 -4.16455e-08 0)
(1.02974e-05 -4.04935e-08 0)
(1.04841e-05 -3.8998e-08 0)
(1.06736e-05 -3.71431e-08 0)
(1.08654e-05 -3.49099e-08 0)
(1.1059e-05 -3.22685e-08 0)
(1.12539e-05 -2.9167e-08 0)
(1.14493e-05 -2.55423e-08 0)
(1.16447e-05 -2.13176e-08 0)
(1.1839e-05 -1.64139e-08 0)
(1.20324e-05 -1.07126e-08 0)
(1.22217e-05 -4.17549e-09 0)
(8.75068e-06 -1.29948e-07 0)
(8.89223e-06 -1.30737e-07 0)
(9.0415e-06 -1.31821e-07 0)
(9.19787e-06 -1.325e-07 0)
(9.3607e-06 -1.32613e-07 0)
(9.52936e-06 -1.32152e-07 0)
(9.70329e-06 -1.30975e-07 0)
(9.88191e-06 -1.29075e-07 0)
(1.00647e-05 -1.26342e-07 0)
(1.02512e-05 -1.22714e-07 0)
(1.04408e-05 -1.18119e-07 0)
(1.0633e-05 -1.125e-07 0)
(1.08274e-05 -1.05764e-07 0)
(1.10234e-05 -9.77963e-08 0)
(1.12205e-05 -8.84418e-08 0)
(1.1418e-05 -7.75331e-08 0)
(1.16156e-05 -6.48497e-08 0)
(1.18118e-05 -5.01598e-08 0)
(1.20072e-05 -3.31012e-08 0)
(1.21984e-05 -1.35338e-08 0)
(8.57091e-06 -2.29763e-07 0)
(8.72747e-06 -2.29173e-07 0)
(8.89019e-06 -2.29247e-07 0)
(9.05821e-06 -2.29059e-07 0)
(9.23142e-06 -2.28158e-07 0)
(9.40931e-06 -2.26535e-07 0)
(9.5916e-06 -2.23874e-07 0)
(9.77774e-06 -2.20128e-07 0)
(9.96736e-06 -2.1509e-07 0)
(1.01601e-05 -2.08667e-07 0)
(1.03554e-05 -2.00734e-07 0)
(1.0553e-05 -1.91167e-07 0)
(1.07525e-05 -1.79783e-07 0)
(1.09532e-05 -1.66374e-07 0)
(1.11547e-05 -1.50687e-07 0)
(1.13565e-05 -1.32444e-07 0)
(1.15581e-05 -1.11278e-07 0)
(1.17584e-05 -8.68125e-08 0)
(1.19576e-05 -5.84424e-08 0)
(1.21528e-05 -2.59086e-08 0)
(8.30828e-06 -3.48027e-07 0)
(8.48633e-06 -3.43376e-07 0)
(8.66848e-06 -3.4e-07 0)
(8.85339e-06 -3.37105e-07 0)
(9.04181e-06 -3.33655e-07 0)
(9.23317e-06 -3.29652e-07 0)
(9.42761e-06 -3.24507e-07 0)
(9.62471e-06 -3.18109e-07 0)
(9.82438e-06 -3.10133e-07 0)
(1.00263e-05 -3.00429e-07 0)
(1.02301e-05 -2.8878e-07 0)
(1.04356e-05 -2.74962e-07 0)
(1.06424e-05 -2.58694e-07 0)
(1.085e-05 -2.3968e-07 0)
(1.10581e-05 -2.17574e-07 0)
(1.12661e-05 -1.91963e-07 0)
(1.14737e-05 -1.62319e-07 0)
(1.16798e-05 -1.28111e-07 0)
(1.18848e-05 -8.8478e-08 0)
(1.20856e-05 -4.30549e-08 0)
(7.97055e-06 -4.90679e-07 0)
(8.17562e-06 -4.78553e-07 0)
(8.38247e-06 -4.68602e-07 0)
(8.58885e-06 -4.606e-07 0)
(8.79667e-06 -4.52575e-07 0)
(9.00529e-06 -4.44552e-07 0)
(9.2154e-06 -4.35598e-07 0)
(9.42666e-06 -4.25497e-07 0)
(9.63926e-06 -4.13752e-07 0)
(9.85302e-06 -4.00094e-07 0)
(1.00678e-05 -3.84182e-07 0)
(1.02835e-05 -3.65685e-07 0)
(1.04997e-05 -3.44218e-07 0)
(1.07162e-05 -3.19385e-07 0)
(1.09328e-05 -2.90719e-07 0)
(1.11488e-05 -2.57665e-07 0)
(1.13642e-05 -2.19536e-07 0)
(1.15779e-05 -1.75635e-07 0)
(1.17902e-05 -1.24837e-07 0)
(1.19984e-05 -6.66532e-08 0)
(7.56746e-06 -6.61939e-07 0)
(7.80363e-06 -6.38401e-07 0)
(8.03934e-06 -6.18197e-07 0)
(8.27097e-06 -6.02167e-07 0)
(8.50184e-06 -5.87163e-07 0)
(8.73104e-06 -5.73165e-07 0)
(8.95987e-06 -5.58834e-07 0)
(9.18811e-06 -5.43733e-07 0)
(9.41623e-06 -5.27183e-07 0)
(9.64422e-06 -5.08753e-07 0)
(9.87219e-06 -4.87957e-07 0)
(1.01e-05 -4.64319e-07 0)
(1.03277e-05 -4.37328e-07 0)
(1.05549e-05 -4.06463e-07 0)
(1.07817e-05 -3.71106e-07 0)
(1.10074e-05 -3.30563e-07 0)
(1.12321e-05 -2.83982e-07 0)
(1.14547e-05 -2.30493e-07 0)
(1.1676e-05 -1.68703e-07 0)
(1.1893e-05 -9.79546e-08 0)
(7.1101e-06 -8.64548e-07 0)
(7.38012e-06 -8.25529e-07 0)
(7.64777e-06 -7.91377e-07 0)
(7.90756e-06 -7.64213e-07 0)
(8.16422e-06 -7.3972e-07 0)
(8.41669e-06 -7.17604e-07 0)
(8.66664e-06 -6.96162e-07 0)
(8.91416e-06 -6.74632e-07 0)
(9.15997e-06 -6.5213e-07 0)
(9.40424e-06 -6.27998e-07 0)
(9.64727e-06 -6.01576e-07 0)
(9.88911e-06 -5.72215e-07 0)
(1.01298e-05 -5.39257e-07 0)
(1.03694e-05 -5.02041e-07 0)
(1.06077e-05 -4.59794e-07 0)
(1.08445e-05 -4.11675e-07 0)
(1.10798e-05 -3.56661e-07 0)
(1.13128e-05 -2.93688e-07 0)
(1.15442e-05 -2.21085e-07 0)
(1.17714e-05 -1.38029e-07 0)
(6.60988e-06 -1.09899e-06 0)
(6.91494e-06 -1.04012e-06 0)
(7.21614e-06 -9.88392e-07 0)
(7.50619e-06 -9.46637e-07 0)
(7.79063e-06 -9.09947e-07 0)
(8.0685e-06 -8.77355e-07 0)
(8.34165e-06 -8.4693e-07 0)
(8.61046e-06 -8.17466e-07 0)
(8.87579e-06 -7.87838e-07 0)
(9.13808e-06 -7.57097e-07 0)
(9.39775e-06 -7.24359e-07 0)
(9.65504e-06 -6.88777e-07 0)
(9.91016e-06 -6.49522e-07 0)
(1.01633e-05 -6.0577e-07 0)
(1.04144e-05 -5.56576e-07 0)
(1.06634e-05 -5.0094e-07 0)
(1.09106e-05 -4.37637e-07 0)
(1.1155e-05 -3.65405e-07 0)
(1.13976e-05 -2.82289e-07 0)
(1.1636e-05 -1.87298e-07 0)
(6.07888e-06 -1.36494e-06 0)
(6.41935e-06 -1.28237e-06 0)
(6.75428e-06 -1.21067e-06 0)
(7.07572e-06 -1.15135e-06 0)
(7.38894e-06 -1.10017e-06 0)
(7.69346e-06 -1.05499e-06 0)
(7.99105e-06 -1.01377e-06 0)
(8.28243e-06 -9.748e-07 0)
(8.56855e-06 -9.36691e-07 0)
(8.85006e-06 -8.98194e-07 0)
(9.12756e-06 -8.58192e-07 0)
(9.40144e-06 -8.15634e-07 0)
(9.67211e-06 -7.69511e-07 0)
(9.93983e-06 -7.18815e-07 0)
(1.02048e-05 -6.62415e-07 0)
(1.0467e-05 -5.99139e-07 0)
(1.07268e-05 -5.27547e-07 0)
(1.09835e-05 -4.46179e-07 0)
(1.12381e-05 -3.52828e-07 0)
(1.14886e-05 -2.46354e-07 0)
(5.52705e-06 -1.65794e-06 0)
(5.90318e-06 -1.54638e-06 0)
(6.27056e-06 -1.45232e-06 0)
(6.62424e-06 -1.37253e-06 0)
(6.96697e-06 -1.3043e-06 0)
(7.29928e-06 -1.24447e-06 0)
(7.62244e-06 -1.19078e-06 0)
(7.93747e-06 -1.14108e-06 0)
(8.2454e-06 -1.09358e-06 0)
(8.54707e-06 -1.0467e-06 0)
(8.84323e-06 -9.99041e-07 0)
(9.13448e-06 -9.49291e-07 0)
(9.42136e-06 -8.96226e-07 0)
(9.70431e-06 -8.38632e-07 0)
(9.98364e-06 -7.75185e-07 0)
(1.02595e-05 -7.0453e-07 0)
(1.05324e-05 -6.2502e-07 0)
(1.08018e-05 -5.35001e-07 0)
(1.10689e-05 -4.32017e-07 0)
(1.13321e-05 -3.14741e-07 0)
(5.11702e-06 -1.93887e-06 0)
(5.51766e-06 -1.80336e-06 0)
(5.90461e-06 -1.69255e-06 0)
(6.27798e-06 -1.59658e-06 0)
(6.63905e-06 -1.51345e-06 0)
(6.98882e-06 -1.44001e-06 0)
(7.32846e-06 -1.37387e-06 0)
(7.65897e-06 -1.31282e-06 0)
(7.98135e-06 -1.25495e-06 0)
(8.29647e-06 -1.19854e-06 0)
(8.6051e-06 -1.14203e-06 0)
(8.90789e-06 -1.08398e-06 0)
(9.20548e-06 -1.02303e-06 0)
(9.49838e-06 -9.5782e-07 0)
(9.78695e-06 -8.86912e-07 0)
(1.00716e-05 -8.08836e-07 0)
(1.03526e-05 -7.21854e-07 0)
(1.06301e-05 -6.24232e-07 0)
(1.09051e-05 -5.13459e-07 0)
(1.11765e-05 -3.88148e-07 0)
(4.88248e-06 -2.16687e-06 0)
(5.28554e-06 -2.02591e-06 0)
(5.67579e-06 -1.90554e-06 0)
(6.05424e-06 -1.7995e-06 0)
(6.42114e-06 -1.70591e-06 0)
(6.77716e-06 -1.62208e-06 0)
(7.12315e-06 -1.54579e-06 0)
(7.4599e-06 -1.47496e-06 0)
(7.78826e-06 -1.40772e-06 0)
(8.10898e-06 -1.34239e-06 0)
(8.42278e-06 -1.2774e-06 0)
(8.7303e-06 -1.21131e-06 0)
(9.03217e-06 -1.1427e-06 0)
(9.32891e-06 -1.07019e-06 0)
(9.62092e-06 -9.92343e-07 0)
(9.90868e-06 -9.07665e-07 0)
(1.01926e-05 -8.14448e-07 0)
(1.04729e-05 -7.11009e-07 0)
(1.07506e-05 -5.94956e-07 0)
(1.10251e-05 -4.64948e-07 0)
(4.68184e-06 -2.38579e-06 0)
(5.08082e-06 -2.24162e-06 0)
(5.47031e-06 -2.11508e-06 0)
(5.84953e-06 -2.00132e-06 0)
(6.21863e-06 -1.89904e-06 0)
(6.57767e-06 -1.8061e-06 0)
(6.92725e-06 -1.72054e-06 0)
(7.26787e-06 -1.64054e-06 0)
(7.60018e-06 -1.56434e-06 0)
(7.9248e-06 -1.49036e-06 0)
(8.24236e-06 -1.41706e-06 0)
(8.55343e-06 -1.34301e-06 0)
(8.85862e-06 -1.26683e-06 0)
(9.15843e-06 -1.18714e-06 0)
(9.45328e-06 -1.10249e-06 0)
(9.74371e-06 -1.01144e-06 0)
(1.00302e-05 -9.12335e-07 0)
(1.03131e-05 -8.03581e-07 0)
(1.05933e-05 -6.82928e-07 0)
(1.08708e-05 -5.49106e-07 0)
(4.50485e-06 -2.59644e-06 0)
(4.89797e-06 -2.45069e-06 0)
(5.28401e-06 -2.3196e-06 0)
(5.66132e-06 -2.19961e-06 0)
(6.02997e-06 -2.08993e-06 0)
(6.38961e-06 -1.98894e-06 0)
(6.74059e-06 -1.89502e-06 0)
(7.08312e-06 -1.80656e-06 0)
(7.41768e-06 -1.722e-06 0)
(7.74474e-06 -1.63983e-06 0)
(8.06483e-06 -1.55863e-06 0)
(8.3784e-06 -1.47699e-06 0)
(8.68605e-06 -1.39358e-06 0)
(8.98823e-06 -1.30705e-06 0)
(9.28537e-06 -1.216e-06 0)
(9.57804e-06 -1.11903e-06 0)
(9.86671e-06 -1.0146e-06 0)
(1.01519e-05 -9.0119e-07 0)
(1.04345e-05 -7.76723e-07 0)
(1.07146e-05 -6.40061e-07 0)
(4.3487e-06 -2.79826e-06 0)
(4.73443e-06 -2.65208e-06 0)
(5.1151e-06 -2.518e-06 0)
(5.48848e-06 -2.39332e-06 0)
(5.85464e-06 -2.27766e-06 0)
(6.21292e-06 -2.16985e-06 0)
(6.56344e-06 -2.0686e-06 0)
(6.90621e-06 -1.97254e-06 0)
(7.24152e-06 -1.8803e-06 0)
(7.56972e-06 -1.79053e-06 0)
(7.89119e-06 -1.7019e-06 0)
(8.20631e-06 -1.6131e-06 0)
(8.51561e-06 -1.52285e-06 0)
(8.8195e-06 -1.42986e-06 0)
(9.11839e-06 -1.33281e-06 0)
(9.41287e-06 -1.23036e-06 0)
(9.70341e-06 -1.12108e-06 0)
(9.9906e-06 -1.00358e-06 0)
(1.02753e-05 -8.75961e-07 0)
(1.05579e-05 -7.37309e-07 0)
(4.20966e-06 -2.99134e-06 0)
(4.58722e-06 -2.84564e-06 0)
(4.96135e-06 -2.70968e-06 0)
(5.32943e-06 -2.58149e-06 0)
(5.69162e-06 -2.46103e-06 0)
(6.04701e-06 -2.34748e-06 0)
(6.39562e-06 -2.23987e-06 0)
(6.73723e-06 -2.13708e-06 0)
(7.07203e-06 -2.03793e-06 0)
(7.40023e-06 -1.94123e-06 0)
(7.72208e-06 -1.84577e-06 0)
(8.03788e-06 -1.75034e-06 0)
(8.34811e-06 -1.65376e-06 0)
(8.65309e-06 -1.5548e-06 0)
(8.95324e-06 -1.45223e-06 0)
(9.24913e-06 -1.34481e-06 0)
(9.5412e-06 -1.23122e-06 0)
(9.8301e-06 -1.1102e-06 0)
(1.01166e-05 -9.80103e-07 0)
(1.04015e-05 -8.40226e-07 0)
(4.08491e-06 -3.17598e-06 0)
(4.45384e-06 -3.03137e-06 0)
(4.82066e-06 -2.89442e-06 0)
(5.18252e-06 -2.76373e-06 0)
(5.53967e-06 -2.63953e-06 0)
(5.89107e-06 -2.52128e-06 0)
(6.23663e-06 -2.40826e-06 0)
(6.57601e-06 -2.29961e-06 0)
(6.90927e-06 -2.19434e-06 0)
(7.23652e-06 -2.09142e-06 0)
(7.55791e-06 -1.98976e-06 0)
(7.87365e-06 -1.88829e-06 0)
(8.18415e-06 -1.78591e-06 0)
(8.48968e-06 -1.6815e-06 0)
(8.79063e-06 -1.57391e-06 0)
(9.08752e-06 -1.46201e-06 0)
(9.3808e-06 -1.34462e-06 0)
(9.67114e-06 -1.22062e-06 0)
(9.95929e-06 -1.08865e-06 0)
(1.02461e-05 -9.48117e-07 0)
(3.97183e-06 -3.35257e-06 0)
(4.33202e-06 -3.20949e-06 0)
(4.69107e-06 -3.07222e-06 0)
(5.04616e-06 -2.93984e-06 0)
(5.39756e-06 -2.81276e-06 0)
(5.74417e-06 -2.69068e-06 0)
(6.08583e-06 -2.57314e-06 0)
(6.42213e-06 -2.45945e-06 0)
(6.75304e-06 -2.34882e-06 0)
(7.07857e-06 -2.2404e-06 0)
(7.39879e-06 -2.13322e-06 0)
(7.71383e-06 -2.02632e-06 0)
(8.02406e-06 -1.91873e-06 0)
(8.32965e-06 -1.8094e-06 0)
(8.63099e-06 -1.6973e-06 0)
(8.92855e-06 -1.58144e-06 0)
(9.22274e-06 -1.46075e-06 0)
(9.51426e-06 -1.3343e-06 0)
(9.80379e-06 -1.20099e-06 0)
(1.00922e-05 -1.06023e-06 0)
(3.86813e-06 -3.52164e-06 0)
(4.21962e-06 -3.38035e-06 0)
(4.57073e-06 -3.24325e-06 0)
(4.91874e-06 -3.10981e-06 0)
(5.26393e-06 -2.98059e-06 0)
(5.60522e-06 -2.85545e-06 0)
(5.94241e-06 -2.73415e-06 0)
(6.27501e-06 -2.6162e-06 0)
(6.60295e-06 -2.50096e-06 0)
(6.92616e-06 -2.38774e-06 0)
(7.24465e-06 -2.27571e-06 0)
(7.55849e-06 -2.16401e-06 0)
(7.86797e-06 -2.05178e-06 0)
(8.17323e-06 -1.93809e-06 0)
(8.4746e-06 -1.82202e-06 0)
(8.77252e-06 -1.70269e-06 0)
(9.06737e-06 -1.57922e-06 0)
(9.35984e-06 -1.45081e-06 0)
(9.65048e-06 -1.31654e-06 0)
(9.94026e-06 -1.17594e-06 0)
(3.77174e-06 -3.68375e-06 0)
(4.11472e-06 -3.54438e-06 0)
(4.45789e-06 -3.40778e-06 0)
(4.79872e-06 -3.27377e-06 0)
(5.13747e-06 -3.14298e-06 0)
(5.47311e-06 -3.01544e-06 0)
(5.80544e-06 -2.89108e-06 0)
(6.13393e-06 -2.76957e-06 0)
(6.45846e-06 -2.65043e-06 0)
(6.77892e-06 -2.53309e-06 0)
(7.09526e-06 -2.41686e-06 0)
(7.4075e-06 -2.30099e-06 0)
(7.71587e-06 -2.18472e-06 0)
(8.02046e-06 -2.06721e-06 0)
(8.32157e-06 -1.9477e-06 0)
(8.6196e-06 -1.82541e-06 0)
(8.91488e-06 -1.69962e-06 0)
(9.20806e-06 -1.56966e-06 0)
(9.4996e-06 -1.43474e-06 0)
(9.79049e-06 -1.29467e-06 0)
(3.68087e-06 -3.83947e-06 0)
(4.01557e-06 -3.70205e-06 0)
(4.35093e-06 -3.56617e-06 0)
(4.68459e-06 -3.43192e-06 0)
(5.01684e-06 -3.30004e-06 0)
(5.34671e-06 -3.17067e-06 0)
(5.67396e-06 -3.04387e-06 0)
(5.99808e-06 -2.91946e-06 0)
(6.31893e-06 -2.79708e-06 0)
(6.63635e-06 -2.67627e-06 0)
(6.95024e-06 -2.55646e-06 0)
(7.26059e-06 -2.43701e-06 0)
(7.56758e-06 -2.31725e-06 0)
(7.87126e-06 -2.19648e-06 0)
(8.17188e-06 -2.07403e-06 0)
(8.46982e-06 -1.94927e-06 0)
(8.76533e-06 -1.82157e-06 0)
(9.059e-06 -1.69037e-06 0)
(9.35125e-06 -1.55511e-06 0)
(9.64303e-06 -1.41576e-06 0)
(3.59388e-06 -3.98934e-06 0)
(3.92062e-06 -3.8538e-06 0)
(4.24834e-06 -3.71876e-06 0)
(4.57499e-06 -3.58456e-06 0)
(4.90079e-06 -3.45198e-06 0)
(5.22487e-06 -3.32126e-06 0)
(5.54698e-06 -3.19258e-06 0)
(5.86663e-06 -3.06583e-06 0)
(6.18365e-06 -2.9408e-06 0)
(6.49786e-06 -2.81711e-06 0)
(6.80912e-06 -2.6943e-06 0)
(7.1174e-06 -2.57183e-06 0)
(7.42283e-06 -2.44913e-06 0)
(7.72543e-06 -2.32562e-06 0)
(8.02541e-06 -2.20073e-06 0)
(8.32309e-06 -2.07392e-06 0)
(8.61864e-06 -1.94467e-06 0)
(8.91264e-06 -1.81254e-06 0)
(9.20543e-06 -1.67722e-06 0)
(9.49788e-06 -1.53865e-06 0)
(3.5093e-06 -4.13384e-06 0)
(3.82838e-06 -4.00006e-06 0)
(4.14876e-06 -3.86595e-06 0)
(4.4686e-06 -3.73202e-06 0)
(4.78811e-06 -3.59905e-06 0)
(5.1065e-06 -3.46739e-06 0)
(5.42352e-06 -3.33729e-06 0)
(5.73871e-06 -3.20872e-06 0)
(6.05187e-06 -3.08158e-06 0)
(6.36282e-06 -2.95556e-06 0)
(6.67138e-06 -2.8303e-06 0)
(6.97749e-06 -2.70536e-06 0)
(7.28127e-06 -2.58026e-06 0)
(7.58269e-06 -2.4545e-06 0)
(7.88191e-06 -2.32762e-06 0)
(8.1792e-06 -2.19914e-06 0)
(8.47467e-06 -2.06866e-06 0)
(8.76886e-06 -1.93587e-06 0)
(9.06201e-06 -1.80067e-06 0)
(9.35496e-06 -1.66294e-06 0)
(3.42575e-06 -4.27338e-06 0)
(3.73751e-06 -4.14129e-06 0)
(4.05084e-06 -4.00813e-06 0)
(4.36415e-06 -3.87461e-06 0)
(4.67759e-06 -3.74153e-06 0)
(4.99049e-06 -3.60927e-06 0)
(5.30259e-06 -3.47817e-06 0)
(5.61343e-06 -3.34825e-06 0)
(5.92281e-06 -3.2195e-06 0)
(6.23054e-06 -3.09167e-06 0)
(6.53641e-06 -2.96447e-06 0)
(6.84038e-06 -2.83756e-06 0)
(7.14249e-06 -2.71053e-06 0)
(7.44268e-06 -2.58297e-06 0)
(7.74108e-06 -2.45448e-06 0)
(8.03788e-06 -2.32467e-06 0)
(8.33317e-06 -2.19325e-06 0)
(8.62745e-06 -2.06007e-06 0)
(8.92086e-06 -1.92501e-06 0)
(9.21413e-06 -1.78816e-06 0)
(3.34183e-06 -4.40844e-06 0)
(3.64665e-06 -4.27788e-06 0)
(3.95328e-06 -4.14571e-06 0)
(4.26037e-06 -4.01274e-06 0)
(4.56807e-06 -3.87976e-06 0)
(4.87577e-06 -3.74723e-06 0)
(5.18319e-06 -3.61549e-06 0)
(5.48991e-06 -3.48464e-06 0)
(5.79569e-06 -3.35469e-06 0)
(6.10034e-06 -3.22548e-06 0)
(6.40365e-06 -3.09682e-06 0)
(6.70554e-06 -2.96842e-06 0)
(7.00604e-06 -2.83991e-06 0)
(7.30501e-06 -2.71096e-06 0)
(7.60255e-06 -2.58121e-06 0)
(7.89882e-06 -2.45039e-06 0)
(8.1939e-06 -2.31831e-06 0)
(8.48817e-06 -2.18487e-06 0)
(8.78174e-06 -2.05e-06 0)
(9.0752e-06 -1.91395e-06 0)
(3.25626e-06 -4.53935e-06 0)
(3.55447e-06 -4.41036e-06 0)
(3.85471e-06 -4.27904e-06 0)
(4.15604e-06 -4.14671e-06 0)
(4.45841e-06 -4.01407e-06 0)
(4.7613e-06 -3.88154e-06 0)
(5.0644e-06 -3.74948e-06 0)
(5.36728e-06 -3.61806e-06 0)
(5.66973e-06 -3.48733e-06 0)
(5.97155e-06 -3.35719e-06 0)
(6.27251e-06 -3.22749e-06 0)
(6.57248e-06 -3.09799e-06 0)
(6.87143e-06 -2.96839e-06 0)
(7.16923e-06 -2.83839e-06 0)
(7.46593e-06 -2.70771e-06 0)
(7.7617e-06 -2.57617e-06 0)
(8.05654e-06 -2.44364e-06 0)
(8.35074e-06 -2.31e-06 0)
(8.64435e-06 -2.17538e-06 0)
(8.93788e-06 -2.04001e-06 0)
(3.16769e-06 -4.66659e-06 0)
(3.45943e-06 -4.53869e-06 0)
(3.75361e-06 -4.40856e-06 0)
(4.04988e-06 -4.27713e-06 0)
(4.3474e-06 -4.14497e-06 0)
(4.64599e-06 -4.01265e-06 0)
(4.94521e-06 -3.88055e-06 0)
(5.2447e-06 -3.74888e-06 0)
(5.54421e-06 -3.61772e-06 0)
(5.84355e-06 -3.48702e-06 0)
(6.14242e-06 -3.35665e-06 0)
(6.44066e-06 -3.2264e-06 0)
(6.73821e-06 -3.09603e-06 0)
(7.03494e-06 -2.9653e-06 0)
(7.33091e-06 -2.83401e-06 0)
(7.62621e-06 -2.70197e-06 0)
(7.92075e-06 -2.56909e-06 0)
(8.21477e-06 -2.43531e-06 0)
(8.50835e-06 -2.30095e-06 0)
(8.80203e-06 -2.16615e-06 0)
(3.07398e-06 -4.79001e-06 0)
(3.36024e-06 -4.66342e-06 0)
(3.64945e-06 -4.53471e-06 0)
(3.94081e-06 -4.4042e-06 0)
(4.23411e-06 -4.27273e-06 0)
(4.5289e-06 -4.14086e-06 0)
(4.82481e-06 -4.009e-06 0)
(5.12144e-06 -3.87738e-06 0)
(5.41853e-06 -3.74612e-06 0)
(5.71579e-06 -3.61516e-06 0)
(6.01287e-06 -3.48442e-06 0)
(6.3096e-06 -3.35373e-06 0)
(6.60598e-06 -3.22292e-06 0)
(6.90186e-06 -3.09174e-06 0)
(7.19717e-06 -2.96003e-06 0)
(7.49189e-06 -2.82765e-06 0)
(7.78607e-06 -2.69452e-06 0)
(8.08004e-06 -2.56074e-06 0)
(8.3736e-06 -2.42653e-06 0)
(8.66707e-06 -2.29216e-06 0)
(2.97393e-06 -4.911e-06 0)
(3.25517e-06 -4.78595e-06 0)
(3.53983e-06 -4.65831e-06 0)
(3.8272e-06 -4.52881e-06 0)
(4.11701e-06 -4.39818e-06 0)
(4.40882e-06 -4.26696e-06 0)
(4.70223e-06 -4.13556e-06 0)
(4.99676e-06 -4.00421e-06 0)
(5.292e-06 -3.87303e-06 0)
(5.58763e-06 -3.74204e-06 0)
(5.88337e-06 -3.61118e-06 0)
(6.17908e-06 -3.4803e-06 0)
(6.47458e-06 -3.34922e-06 0)
(6.76958e-06 -3.21778e-06 0)
(7.06421e-06 -3.08581e-06 0)
(7.35856e-06 -2.95321e-06 0)
(7.65243e-06 -2.81994e-06 0)
(7.94613e-06 -2.68614e-06 0)
(8.23962e-06 -2.55201e-06 0)
(8.53303e-06 -2.41791e-06 0)
(2.8662e-06 -5.02849e-06 0)
(3.14302e-06 -4.90518e-06 0)
(3.42388e-06 -4.77911e-06 0)
(3.70813e-06 -4.65094e-06 0)
(3.99542e-06 -4.52144e-06 0)
(4.28524e-06 -4.39114e-06 0)
(4.577e-06 -4.26042e-06 0)
(4.8701e-06 -4.12956e-06 0)
(5.16418e-06 -3.9987e-06 0)
(5.45895e-06 -3.86788e-06 0)
(5.75392e-06 -3.73708e-06 0)
(6.0488e-06 -3.60616e-06 0)
(6.34357e-06 -3.47496e-06 0)
(6.63803e-06 -3.34337e-06 0)
(6.93207e-06 -3.21129e-06 0)
(7.22589e-06 -3.07855e-06 0)
(7.51941e-06 -2.94525e-06 0)
(7.81281e-06 -2.81138e-06 0)
(8.10619e-06 -2.67727e-06 0)
(8.39943e-06 -2.54324e-06 0)
(2.12006e-07 -4.32556e-06 0)
(6.38908e-07 -4.26212e-06 0)
(1.07451e-06 -4.13758e-06 0)
(1.52365e-06 -3.95718e-06 0)
(1.99034e-06 -3.72762e-06 0)
(2.47709e-06 -3.45764e-06 0)
(2.98485e-06 -3.15698e-06 0)
(3.51278e-06 -2.83596e-06 0)
(4.05898e-06 -2.50497e-06 0)
(4.61915e-06 -2.17231e-06 0)
(2.06224e-07 -4.39638e-06 0)
(6.21099e-07 -4.33849e-06 0)
(1.0432e-06 -4.22468e-06 0)
(1.47658e-06 -4.05947e-06 0)
(1.92459e-06 -3.84853e-06 0)
(2.3894e-06 -3.59928e-06 0)
(2.8718e-06 -3.32003e-06 0)
(3.371e-06 -3.01966e-06 0)
(3.88436e-06 -2.70771e-06 0)
(4.40883e-06 -2.39097e-06 0)
(2.01083e-07 -4.46914e-06 0)
(6.0524e-07 -4.41626e-06 0)
(1.01524e-06 -4.31215e-06 0)
(1.43436e-06 -4.16082e-06 0)
(1.86536e-06 -3.96713e-06 0)
(2.31007e-06 -3.73745e-06 0)
(2.76924e-06 -3.47896e-06 0)
(3.24277e-06 -3.19905e-06 0)
(3.72859e-06 -2.90614e-06 0)
(4.22495e-06 -2.6044e-06 0)
(1.96455e-07 -4.54384e-06 0)
(5.91048e-07 -4.49521e-06 0)
(9.90464e-07 -4.39935e-06 0)
(1.39738e-06 -4.25983e-06 0)
(1.81411e-06 -4.08091e-06 0)
(2.24206e-06 -3.86812e-06 0)
(2.68181e-06 -3.62789e-06 0)
(3.13324e-06 -3.36666e-06 0)
(3.59458e-06 -3.09236e-06 0)
(4.06433e-06 -2.80802e-06 0)
(1.92182e-07 -4.62039e-06 0)
(5.77887e-07 -4.57555e-06 0)
(9.67604e-07 -4.48706e-06 0)
(1.36347e-06 -4.35814e-06 0)
(1.76739e-06 -4.19259e-06 0)
(2.18055e-06 -3.99526e-06 0)
(2.60344e-06 -3.77189e-06 0)
(3.03595e-06 -3.52799e-06 0)
(3.4768e-06 -3.27076e-06 0)
(3.92375e-06 -3.00288e-06 0)
(1.88202e-07 -4.69866e-06 0)
(5.65656e-07 -4.65709e-06 0)
(9.4648e-07 -4.57505e-06 0)
(1.33239e-06 -4.45535e-06 0)
(1.72499e-06 -4.30151e-06 0)
(2.12521e-06 -4.11784e-06 0)
(2.5334e-06 -3.90956e-06 0)
(2.94932e-06 -3.68159e-06 0)
(3.37228e-06 -3.44041e-06 0)
(3.79936e-06 -3.18874e-06 0)
(1.84358e-07 -4.77856e-06 0)
(5.53975e-07 -4.73989e-06 0)
(9.2641e-07 -4.6636e-06 0)
(1.30311e-06 -4.55214e-06 0)
(1.68539e-06 -4.40879e-06 0)
(2.07403e-06 -4.23743e-06 0)
(2.46933e-06 -4.0428e-06 0)
(2.87082e-06 -3.82932e-06 0)
(3.27832e-06 -3.60273e-06 0)
(3.68832e-06 -3.36612e-06 0)
(1.80645e-07 -4.85987e-06 0)
(5.42716e-07 -4.82376e-06 0)
(9.07161e-07 -4.75255e-06 0)
(1.27524e-06 -4.64838e-06 0)
(1.64807e-06 -4.51436e-06 0)
(2.02621e-06 -4.35402e-06 0)
(2.40999e-06 -4.17166e-06 0)
(2.79872e-06 -3.97137e-06 0)
(3.19263e-06 -3.75821e-06 0)
(3.58792e-06 -3.53556e-06 0)
(1.77027e-07 -4.94246e-06 0)
(5.31678e-07 -4.90863e-06 0)
(8.88383e-07 -4.84196e-06 0)
(1.24824e-06 -4.74434e-06 0)
(1.61222e-06 -4.61871e-06 0)
(1.98074e-06 -4.46826e-06 0)
(2.3541e-06 -4.29696e-06 0)
(2.73149e-06 -4.10861e-06 0)
(3.11336e-06 -3.90765e-06 0)
(3.4959e-06 -3.69777e-06 0)
(1.73424e-07 -5.02613e-06 0)
(5.20716e-07 -4.99431e-06 0)
(8.69845e-07 -4.9317e-06 0)
(1.22179e-06 -4.83997e-06 0)
(1.57734e-06 -4.72186e-06 0)
(1.93688e-06 -4.58032e-06 0)
(2.30066e-06 -4.419e-06 0)
(2.6678e-06 -4.24147e-06 0)
(3.03889e-06 -4.05167e-06 0)
(3.41026e-06 -3.8534e-06 0)
(1.69761e-07 -5.11068e-06 0)
(5.09696e-07 -5.08065e-06 0)
(8.51307e-07 -5.02172e-06 0)
(1.19548e-06 -4.93532e-06 0)
(1.5429e-06 -4.82399e-06 0)
(1.89391e-06 -4.69051e-06 0)
(2.24876e-06 -4.5382e-06 0)
(2.60653e-06 -4.37048e-06 0)
(2.96784e-06 -4.19083e-06 0)
(3.32929e-06 -4.00307e-06 0)
(1.66025e-07 -5.19584e-06 0)
(4.98531e-07 -5.16746e-06 0)
(8.32578e-07 -5.11186e-06 0)
(1.169e-06 -5.03029e-06 0)
(1.50845e-06 -4.92511e-06 0)
(1.85122e-06 -4.79892e-06 0)
(2.19758e-06 -4.6548e-06 0)
(2.54663e-06 -4.49599e-06 0)
(2.89894e-06 -4.32556e-06 0)
(3.25147e-06 -4.14731e-06 0)
(1.62207e-07 -5.28141e-06 0)
(4.87095e-07 -5.25456e-06 0)
(8.13424e-07 -5.20199e-06 0)
(1.14201e-06 -5.12482e-06 0)
(1.47353e-06 -5.02524e-06 0)
(1.80822e-06 -4.90569e-06 0)
(2.14637e-06 -4.76903e-06 0)
(2.48715e-06 -4.61829e-06 0)
(2.83106e-06 -4.45626e-06 0)
(3.17544e-06 -4.28663e-06 0)
(1.58259e-07 -5.36713e-06 0)
(4.75222e-07 -5.3417e-06 0)
(7.93587e-07 -5.29189e-06 0)
(1.11416e-06 -5.21874e-06 0)
(1.43766e-06 -5.12429e-06 0)
(1.7643e-06 -5.01082e-06 0)
(2.09439e-06 -4.88098e-06 0)
(2.42719e-06 -4.73759e-06 0)
(2.76313e-06 -4.58325e-06 0)
(3.09991e-06 -4.42147e-06 0)
(1.54105e-07 -5.45278e-06 0)
(4.62731e-07 -5.42866e-06 0)
(7.7279e-07 -5.38138e-06 0)
(1.08508e-06 -5.31195e-06 0)
(1.40034e-06 -5.22223e-06 0)
(1.71882e-06 -5.11438e-06 0)
(2.04084e-06 -4.99078e-06 0)
(2.3658e-06 -4.85413e-06 0)
(2.69403e-06 -4.70687e-06 0)
(3.02357e-06 -4.55221e-06 0)
(1.49678e-07 -5.5379e-06 0)
(4.49468e-07 -5.51501e-06 0)
(7.50767e-07 -5.47008e-06 0)
(1.05437e-06 -5.40412e-06 0)
(1.36105e-06 -5.31879e-06 0)
(1.67112e-06 -5.21611e-06 0)
(1.98493e-06 -5.09831e-06 0)
(2.30205e-06 -4.96792e-06 0)
(2.62267e-06 -4.82719e-06 0)
(2.9452e-06 -4.67907e-06 0)
(1.44928e-07 -5.62236e-06 0)
(4.35261e-07 -5.60064e-06 0)
(7.27196e-07 -5.55792e-06 0)
(1.02156e-06 -5.49521e-06 0)
(1.31917e-06 -5.41401e-06 0)
(1.62044e-06 -5.3162e-06 0)
(1.92578e-06 -5.20384e-06 0)
(2.23484e-06 -5.07933e-06 0)
(2.54783e-06 -4.94463e-06 0)
(2.86334e-06 -4.80261e-06 0)
(1.39799e-07 -5.70522e-06 0)
(4.19922e-07 -5.68462e-06 0)
(7.01744e-07 -5.64402e-06 0)
(9.86172e-07 -5.5844e-06 0)
(1.27409e-06 -5.50712e-06 0)
(1.56603e-06 -5.41395e-06 0)
(1.86242e-06 -5.30677e-06 0)
(2.16307e-06 -5.18782e-06 0)
(2.46811e-06 -5.05886e-06 0)
(2.77655e-06 -4.92257e-06 0)
(1.34192e-07 -5.78694e-06 0)
(4.03136e-07 -5.76741e-06 0)
(6.73894e-07 -5.72887e-06 0)
(9.47485e-07 -5.67223e-06 0)
(1.22488e-06 -5.59876e-06 0)
(1.50672e-06 -5.51007e-06 0)
(1.79352e-06 -5.40791e-06 0)
(2.08521e-06 -5.29425e-06 0)
(2.38191e-06 -5.17085e-06 0)
(2.68301e-06 -5.04003e-06 0)
(1.28054e-07 -5.865e-06 0)
(3.8476e-07 -5.8465e-06 0)
(6.43402e-07 -5.81001e-06 0)
(9.05152e-07 -5.75634e-06 0)
(1.17108e-06 -5.68666e-06 0)
(1.44195e-06 -5.60244e-06 0)
(1.71833e-06 -5.50527e-06 0)
(2.00034e-06 -5.39694e-06 0)
(2.28821e-06 -5.27911e-06 0)
(2.5816e-06 -5.15382e-06 0)
)


// ************************************************************************* //
