/*--------------------------------*- C++ -*----------------------------------*\
| =========                 |                                                 |
| \\      /  F ield         | foam-extend: Open Source CFD                    |
|  \\    /   O peration     | Version:     4.1                                |
|   \\  /    A nd           | Web:         http://www.foam-extend.org         |
|    \\/     M anipulation  |                                                 |
\*---------------------------------------------------------------------------*/
FoamFile
{
    version     2.0;
    format      ascii;
    class       vectorField;
    location    "10";
    object      solidsCellD_iteration2;
}
// * * * * * * * * * * * * * * * * * * * * * * * * * * * * * * * * * * * * * //


1000
(
(5.08976e-06 -2.14566e-06 0)
(4.8063e-06 -1.99692e-06 0)
(4.62551e-06 -1.90247e-06 0)
(4.52244e-06 -1.85819e-06 0)
(4.4728e-06 -1.84251e-06 0)
(4.46221e-06 -1.849e-06 0)
(4.48031e-06 -1.86992e-06 0)
(4.52007e-06 -1.90166e-06 0)
(4.57547e-06 -1.94096e-06 0)
(4.64284e-06 -1.98625e-06 0)
(4.60273e-06 -2.3436e-06 0)
(4.30062e-06 -2.23987e-06 0)
(4.10796e-06 -2.174e-06 0)
(3.99609e-06 -2.14917e-06 0)
(3.93959e-06 -2.14638e-06 0)
(3.92264e-06 -2.16208e-06 0)
(3.9345e-06 -2.18967e-06 0)
(3.9676e-06 -2.22632e-06 0)
(4.01589e-06 -2.2697e-06 0)
(4.07517e-06 -2.31674e-06 0)
(4.09642e-06 -2.53121e-06 0)
(3.78765e-06 -2.47785e-06 0)
(3.59087e-06 -2.44381e-06 0)
(3.47501e-06 -2.44047e-06 0)
(3.41456e-06 -2.45172e-06 0)
(3.39309e-06 -2.47712e-06 0)
(3.3998e-06 -2.51145e-06 0)
(3.42706e-06 -2.55283e-06 0)
(3.46891e-06 -2.59983e-06 0)
(3.52129e-06 -2.64912e-06 0)
(3.57477e-06 -2.70518e-06 0)
(3.27221e-06 -2.70468e-06 0)
(3.07948e-06 -2.70406e-06 0)
(2.96486e-06 -2.72303e-06 0)
(2.90367e-06 -2.74884e-06 0)
(2.87969e-06 -2.78418e-06 0)
(2.88251e-06 -2.82524e-06 0)
(2.90464e-06 -2.87133e-06 0)
(2.94062e-06 -2.92183e-06 0)
(2.98618e-06 -2.97363e-06 0)
(3.04121e-06 -2.86212e-06 0)
(2.75786e-06 -2.91398e-06 0)
(2.57738e-06 -2.94652e-06 0)
(2.46929e-06 -2.98755e-06 0)
(2.41069e-06 -3.02761e-06 0)
(2.38623e-06 -3.07263e-06 0)
(2.38633e-06 -3.12021e-06 0)
(2.40393e-06 -3.17089e-06 0)
(2.43426e-06 -3.22469e-06 0)
(2.47306e-06 -3.27919e-06 0)
(2.49861e-06 -2.99874e-06 0)
(2.24689e-06 -3.09961e-06 0)
(2.08661e-06 -3.16315e-06 0)
(1.99014e-06 -3.22478e-06 0)
(1.93727e-06 -3.27817e-06 0)
(1.91423e-06 -3.33222e-06 0)
(1.91269e-06 -3.38579e-06 0)
(1.92633e-06 -3.44073e-06 0)
(1.95114e-06 -3.49757e-06 0)
(1.98304e-06 -3.55474e-06 0)
(1.94938e-06 -3.112e-06 0)
(1.7406e-06 -3.25582e-06 0)
(1.60769e-06 -3.34655e-06 0)
(1.52738e-06 -3.4262e-06 0)
(1.48302e-06 -3.49123e-06 0)
(1.46312e-06 -3.55317e-06 0)
(1.46089e-06 -3.61197e-06 0)
(1.47102e-06 -3.67067e-06 0)
(1.49033e-06 -3.73017e-06 0)
(1.51524e-06 -3.78981e-06 0)
(1.39551e-06 -3.19934e-06 0)
(1.23915e-06 -3.37766e-06 0)
(1.13962e-06 -3.49025e-06 0)
(1.07934e-06 -3.58433e-06 0)
(1.04583e-06 -3.6587e-06 0)
(1.03051e-06 -3.72696e-06 0)
(1.02833e-06 -3.78997e-06 0)
(1.03531e-06 -3.85172e-06 0)
(1.04912e-06 -3.91333e-06 0)
(1.06694e-06 -3.97502e-06 0)
(8.38637e-07 -3.25869e-06 0)
(7.41835e-07 -3.46113e-06 0)
(6.80193e-07 -3.58904e-06 0)
(6.42762e-07 -3.69326e-06 0)
(6.21866e-07 -3.77416e-06 0)
(6.12223e-07 -3.84681e-06 0)
(6.10689e-07 -3.91278e-06 0)
(6.14748e-07 -3.97671e-06 0)
(6.2301e-07 -4.03984e-06 0)
(6.33704e-07 -4.10305e-06 0)
(2.80094e-07 -3.28858e-06 0)
(2.47257e-07 -3.50345e-06 0)
(2.2633e-07 -3.63927e-06 0)
(2.13618e-07 -3.74874e-06 0)
(2.06498e-07 -3.833e-06 0)
(2.0316e-07 -3.90794e-06 0)
(2.02569e-07 -3.97541e-06 0)
(2.03886e-07 -4.04042e-06 0)
(2.06626e-07 -4.10431e-06 0)
(2.10175e-07 -4.16827e-06 0)
(7.93743e-06 -9.79928e-08 0)
(8.00972e-06 -7.07207e-08 0)
(8.05413e-06 -5.34132e-08 0)
(8.1023e-06 -4.32198e-08 0)
(8.15469e-06 -3.75276e-08 0)
(8.21881e-06 -3.48698e-08 0)
(8.29435e-06 -3.42398e-08 0)
(8.38222e-06 -3.4938e-08 0)
(8.48208e-06 -3.65961e-08 0)
(8.59264e-06 -3.85856e-08 0)
(7.87877e-06 -2.93933e-07 0)
(7.9392e-06 -2.13728e-07 0)
(7.97619e-06 -1.62931e-07 0)
(8.01942e-06 -1.33118e-07 0)
(8.06857e-06 -1.1655e-07 0)
(8.13036e-06 -1.08868e-07 0)
(8.20424e-06 -1.0716e-07 0)
(8.29075e-06 -1.09385e-07 0)
(8.38948e-06 -1.14394e-07 0)
(8.49879e-06 -1.20382e-07 0)
(7.76154e-06 -4.91558e-07 0)
(7.79944e-06 -3.62789e-07 0)
(7.82217e-06 -2.81298e-07 0)
(7.85598e-06 -2.33585e-07 0)
(7.89889e-06 -2.07206e-07 0)
(7.9563e-06 -1.95171e-07 0)
(8.02698e-06 -1.92737e-07 0)
(8.11086e-06 -1.96646e-07 0)
(8.20744e-06 -2.05016e-07 0)
(8.31439e-06 -2.15041e-07 0)
(7.58786e-06 -6.91651e-07 0)
(7.59374e-06 -5.21324e-07 0)
(7.59615e-06 -4.13546e-07 0)
(7.61653e-06 -3.50718e-07 0)
(7.65056e-06 -3.16194e-07 0)
(7.70163e-06 -3.00795e-07 0)
(7.76772e-06 -2.98167e-07 0)
(7.8479e-06 -3.04042e-07 0)
(7.94142e-06 -3.15817e-07 0)
(8.04506e-06 -3.29933e-07 0)
(7.36041e-06 -8.94765e-07 0)
(7.32671e-06 -6.92172e-07 0)
(7.30398e-06 -5.63957e-07 0)
(7.30769e-06 -4.89707e-07 0)
(7.33072e-06 -4.49276e-07 0)
(7.37399e-06 -4.31855e-07 0)
(7.43438e-06 -4.29767e-07 0)
(7.50996e-06 -4.37971e-07 0)
(7.59964e-06 -4.53198e-07 0)
(7.69926e-06 -4.71451e-07 0)
(7.08267e-06 -1.10097e-06 0)
(7.0041e-06 -8.77147e-07 0)
(6.95296e-06 -7.35434e-07 0)
(6.93777e-06 -6.54142e-07 0)
(6.9483e-06 -6.10477e-07 0)
(6.98267e-06 -5.92638e-07 0)
(7.03653e-06 -5.91938e-07 0)
(7.10681e-06 -6.02879e-07 0)
(7.19206e-06 -6.21609e-07 0)
(7.28723e-06 -6.44038e-07 0)
(6.7586e-06 -1.30988e-06 0)
(6.63267e-06 -1.077e-06 0)
(6.55155e-06 -9.29465e-07 0)
(6.51636e-06 -8.4598e-07 0)
(6.51358e-06 -8.02042e-07 0)
(6.53844e-06 -7.85556e-07 0)
(6.58524e-06 -7.87215e-07 0)
(6.6498e-06 -8.01376e-07 0)
(6.73018e-06 -8.23763e-07 0)
(6.82076e-06 -8.50409e-07 0)
(6.39259e-06 -1.52052e-06 0)
(6.21967e-06 -1.29123e-06 0)
(6.10881e-06 -1.14587e-06 0)
(6.05368e-06 -1.06521e-06 0)
(6.03749e-06 -1.02407e-06 0)
(6.05267e-06 -1.01078e-06 0)
(6.09218e-06 -1.0158e-06 0)
(6.15082e-06 -1.03369e-06 0)
(6.226e-06 -1.05986e-06 0)
(6.312e-06 -1.09086e-06 0)
(5.98931e-06 -1.73142e-06 0)
(5.77267e-06 -1.51811e-06 0)
(5.6342e-06 -1.38277e-06 0)
(5.5604e-06 -1.30988e-06 0)
(5.53152e-06 -1.27457e-06 0)
(5.53735e-06 -1.2663e-06 0)
(5.56957e-06 -1.27575e-06 0)
(5.62223e-06 -1.29786e-06 0)
(5.69181e-06 -1.32825e-06 0)
(5.77338e-06 -1.3636e-06 0)
(5.55349e-06 -1.94058e-06 0)
(5.29916e-06 -1.75466e-06 0)
(5.13683e-06 -1.63664e-06 0)
(5.04671e-06 -1.57612e-06 0)
(5.00646e-06 -1.54943e-06 0)
(5.00349e-06 -1.54788e-06 0)
(5.02851e-06 -1.5627e-06 0)
(5.07496e-06 -1.58964e-06 0)
(5.13855e-06 -1.62441e-06 0)
(5.21542e-06 -1.66554e-06 0)
(8.71407e-06 -4.05923e-08 0)
(8.84643e-06 -4.09917e-08 0)
(8.98724e-06 -4.15038e-08 0)
(9.136e-06 -4.18717e-08 0)
(9.29176e-06 -4.20442e-08 0)
(9.45394e-06 -4.19942e-08 0)
(9.62187e-06 -4.16772e-08 0)
(9.7949e-06 -4.11127e-08 0)
(9.97239e-06 -4.02868e-08 0)
(1.01538e-05 -3.91678e-08 0)
(1.03386e-05 -3.77091e-08 0)
(1.05262e-05 -3.58864e-08 0)
(1.07161e-05 -3.36801e-08 0)
(1.09077e-05 -3.10603e-08 0)
(1.11005e-05 -2.79777e-08 0)
(1.12937e-05 -2.43743e-08 0)
(1.1487e-05 -2.01765e-08 0)
(1.16791e-05 -1.53078e-08 0)
(1.18701e-05 -9.64921e-09 0)
(1.2057e-05 -3.1616e-09 0)
(8.62436e-06 -1.25988e-07 0)
(8.76417e-06 -1.26632e-07 0)
(8.91167e-06 -1.27652e-07 0)
(9.06625e-06 -1.28315e-07 0)
(9.22725e-06 -1.28445e-07 0)
(9.39407e-06 -1.28005e-07 0)
(9.56618e-06 -1.26845e-07 0)
(9.74296e-06 -1.2497e-07 0)
(9.92389e-06 -1.22294e-07 0)
(1.01084e-05 -1.1875e-07 0)
(1.02961e-05 -1.1424e-07 0)
(1.04864e-05 -1.08694e-07 0)
(1.06788e-05 -1.02023e-07 0)
(1.08728e-05 -9.41194e-08 0)
(1.10678e-05 -8.48339e-08 0)
(1.12632e-05 -7.39994e-08 0)
(1.14585e-05 -6.13964e-08 0)
(1.16525e-05 -4.67981e-08 0)
(1.18455e-05 -2.98456e-08 0)
(1.20343e-05 -1.04117e-08 0)
(8.44804e-06 -2.22963e-07 0)
(8.60249e-06 -2.22188e-07 0)
(8.76313e-06 -2.22202e-07 0)
(8.92912e-06 -2.22006e-07 0)
(9.1003e-06 -2.21133e-07 0)
(9.27617e-06 -2.19547e-07 0)
(9.45646e-06 -2.16924e-07 0)
(9.64064e-06 -2.13231e-07 0)
(9.82829e-06 -2.08284e-07 0)
(1.0019e-05 -2.01978e-07 0)
(1.02123e-05 -1.94157e-07 0)
(1.04079e-05 -1.84693e-07 0)
(1.06053e-05 -1.73413e-07 0)
(1.08039e-05 -1.60117e-07 0)
(1.10034e-05 -1.44554e-07 0)
(1.12029e-05 -1.26441e-07 0)
(1.14023e-05 -1.05409e-07 0)
(1.16002e-05 -8.10861e-08 0)
(1.17971e-05 -5.28725e-08 0)
(1.19898e-05 -2.05433e-08 0)
(8.19027e-06 -3.3815e-07 0)
(8.36572e-06 -3.33338e-07 0)
(8.54538e-06 -3.29946e-07 0)
(8.72794e-06 -3.2707e-07 0)
(8.91405e-06 -3.23668e-07 0)
(9.10317e-06 -3.19717e-07 0)
(9.29543e-06 -3.14628e-07 0)
(9.49039e-06 -3.08313e-07 0)
(9.6879e-06 -3.00465e-07 0)
(9.88765e-06 -2.90905e-07 0)
(1.00894e-05 -2.79392e-07 0)
(1.02927e-05 -2.65709e-07 0)
(1.04973e-05 -2.4959e-07 0)
(1.07028e-05 -2.30738e-07 0)
(1.09086e-05 -2.08796e-07 0)
(1.11144e-05 -1.83356e-07 0)
(1.13197e-05 -1.53893e-07 0)
(1.15234e-05 -1.19884e-07 0)
(1.17259e-05 -8.04766e-08 0)
(1.19242e-05 -3.53343e-08 0)
(7.8588e-06 -4.77413e-07 0)
(8.06063e-06 -4.65231e-07 0)
(8.26446e-06 -4.55351e-07 0)
(8.46809e-06 -4.47414e-07 0)
(8.67328e-06 -4.39484e-07 0)
(8.87938e-06 -4.31561e-07 0)
(9.08704e-06 -4.2271e-07 0)
(9.29593e-06 -4.12726e-07 0)
(9.50619e-06 -4.01138e-07 0)
(9.71762e-06 -3.8765e-07 0)
(9.93013e-06 -3.71904e-07 0)
(1.01435e-05 -3.53577e-07 0)
(1.03574e-05 -3.32293e-07 0)
(1.05716e-05 -3.0765e-07 0)
(1.07859e-05 -2.79175e-07 0)
(1.09996e-05 -2.46328e-07 0)
(1.12125e-05 -2.08427e-07 0)
(1.14237e-05 -1.6478e-07 0)
(1.16335e-05 -1.1428e-07 0)
(1.18391e-05 -5.64492e-08 0)
(7.46306e-06 -6.44898e-07 0)
(7.69535e-06 -6.21514e-07 0)
(7.92748e-06 -6.01552e-07 0)
(8.15592e-06 -5.85695e-07 0)
(8.38375e-06 -5.7087e-07 0)
(8.61011e-06 -5.57029e-07 0)
(8.83622e-06 -5.42851e-07 0)
(9.06183e-06 -5.27921e-07 0)
(9.28735e-06 -5.11568e-07 0)
(9.51279e-06 -4.93335e-07 0)
(9.73826e-06 -4.72727e-07 0)
(9.96362e-06 -4.49279e-07 0)
(1.01888e-05 -4.22486e-07 0)
(1.04136e-05 -3.91827e-07 0)
(1.06378e-05 -3.56688e-07 0)
(1.0861e-05 -3.16391e-07 0)
(1.10832e-05 -2.70085e-07 0)
(1.13032e-05 -2.16903e-07 0)
(1.15218e-05 -1.55463e-07 0)
(1.17361e-05 -8.51175e-08 0)
(7.01394e-06 -8.43342e-07 0)
(7.27942e-06 -8.04812e-07 0)
(7.54291e-06 -7.71155e-07 0)
(7.79907e-06 -7.44315e-07 0)
(8.05234e-06 -7.20109e-07 0)
(8.30161e-06 -6.98231e-07 0)
(8.54854e-06 -6.7701e-07 0)
(8.79313e-06 -6.55713e-07 0)
(9.03605e-06 -6.33444e-07 0)
(9.27751e-06 -6.09524e-07 0)
(9.51777e-06 -5.83294e-07 0)
(9.75688e-06 -5.54129e-07 0)
(9.9949e-06 -5.21383e-07 0)
(1.02318e-05 -4.8439e-07 0)
(1.04674e-05 -4.42389e-07 0)
(1.07015e-05 -3.94551e-07 0)
(1.09341e-05 -3.39843e-07 0)
(1.11643e-05 -2.7721e-07 0)
(1.13929e-05 -2.04991e-07 0)
(1.16173e-05 -1.22367e-07 0)
(6.52258e-06 -1.07321e-06 0)
(6.82258e-06 -1.0153e-06 0)
(7.11916e-06 -9.64391e-07 0)
(7.40517e-06 -9.23171e-07 0)
(7.68585e-06 -8.86919e-07 0)
(7.96017e-06 -8.54675e-07 0)
(8.22994e-06 -8.2454e-07 0)
(8.49546e-06 -7.95347e-07 0)
(8.75758e-06 -7.65965e-07 0)
(9.01674e-06 -7.35433e-07 0)
(9.27335e-06 -7.02887e-07 0)
(9.52763e-06 -6.67505e-07 0)
(9.77977e-06 -6.28473e-07 0)
(1.00299e-05 -5.84959e-07 0)
(1.02781e-05 -5.3603e-07 0)
(1.05242e-05 -4.80689e-07 0)
(1.07683e-05 -4.17707e-07 0)
(1.10097e-05 -3.4583e-07 0)
(1.12493e-05 -2.63116e-07 0)
(1.14848e-05 -1.68586e-07 0)
(6.00094e-06 -1.33428e-06 0)
(6.33603e-06 -1.25329e-06 0)
(6.66602e-06 -1.18278e-06 0)
(6.98308e-06 -1.12425e-06 0)
(7.29215e-06 -1.07366e-06 0)
(7.59274e-06 -1.02893e-06 0)
(7.88654e-06 -9.88044e-07 0)
(8.17423e-06 -9.49363e-07 0)
(8.45676e-06 -9.11494e-07 0)
(8.73478e-06 -8.73193e-07 0)
(9.00887e-06 -8.33371e-07 0)
(9.27939e-06 -7.91008e-07 0)
(9.54672e-06 -7.45103e-07 0)
(9.81114e-06 -6.94643e-07 0)
(1.00728e-05 -6.38509e-07 0)
(1.03317e-05 -5.75523e-07 0)
(1.05882e-05 -5.04256e-07 0)
(1.08417e-05 -4.23252e-07 0)
(1.10931e-05 -3.30323e-07 0)
(1.13405e-05 -2.24364e-07 0)
(5.45854e-06 -1.62244e-06 0)
(5.82917e-06 -1.51333e-06 0)
(6.19141e-06 -1.42071e-06 0)
(6.54039e-06 -1.34186e-06 0)
(6.87859e-06 -1.27429e-06 0)
(7.20655e-06 -1.21495e-06 0)
(7.52549e-06 -1.16163e-06 0)
(7.83641e-06 -1.11221e-06 0)
(8.14032e-06 -1.06495e-06 0)
(8.4381e-06 -1.01825e-06 0)
(8.73046e-06 -9.70747e-07 0)
(9.01795e-06 -9.21172e-07 0)
(9.30113e-06 -8.68306e-07 0)
(9.58041e-06 -8.10929e-07 0)
(9.85608e-06 -7.47727e-07 0)
(1.01283e-05 -6.77342e-07 0)
(1.03976e-05 -5.98146e-07 0)
(1.06635e-05 -5.08497e-07 0)
(1.09272e-05 -4.05976e-07 0)
(1.1187e-05 -2.89297e-07 0)
(5.05526e-06 -1.89786e-06 0)
(5.45115e-06 -1.76532e-06 0)
(5.83288e-06 -1.65623e-06 0)
(6.20109e-06 -1.56153e-06 0)
(6.55721e-06 -1.47929e-06 0)
(6.90222e-06 -1.4065e-06 0)
(7.23727e-06 -1.34084e-06 0)
(7.56332e-06 -1.28016e-06 0)
(7.88137e-06 -1.22258e-06 0)
(8.19231e-06 -1.16639e-06 0)
(8.49685e-06 -1.11007e-06 0)
(8.79562e-06 -1.05222e-06 0)
(9.08925e-06 -9.91475e-07 0)
(9.37823e-06 -9.26489e-07 0)
(9.66292e-06 -8.55827e-07 0)
(9.94372e-06 -7.78027e-07 0)
(1.02211e-05 -6.91371e-07 0)
(1.04949e-05 -5.94157e-07 0)
(1.07662e-05 -4.83917e-07 0)
(1.10341e-05 -3.59298e-07 0)
(4.82459e-06 -2.12016e-06 0)
(5.22275e-06 -1.98221e-06 0)
(5.60794e-06 -1.86388e-06 0)
(5.98125e-06 -1.75939e-06 0)
(6.34313e-06 -1.66694e-06 0)
(6.69427e-06 -1.58398e-06 0)
(7.03551e-06 -1.50836e-06 0)
(7.36765e-06 -1.43804e-06 0)
(7.69155e-06 -1.3712e-06 0)
(8.00795e-06 -1.3062e-06 0)
(8.31755e-06 -1.24149e-06 0)
(8.62093e-06 -1.17565e-06 0)
(8.91874e-06 -1.10731e-06 0)
(9.21148e-06 -1.03508e-06 0)
(9.49956e-06 -9.5751e-07 0)
(9.78346e-06 -8.73152e-07 0)
(1.00636e-05 -7.80317e-07 0)
(1.03403e-05 -6.77363e-07 0)
(1.06143e-05 -5.61929e-07 0)
(1.08854e-05 -4.32683e-07 0)
(4.62723e-06 -2.33385e-06 0)
(5.02127e-06 -2.19261e-06 0)
(5.40569e-06 -2.06819e-06 0)
(5.77978e-06 -1.95611e-06 0)
(6.14382e-06 -1.85514e-06 0)
(6.49792e-06 -1.76326e-06 0)
(6.84268e-06 -1.67853e-06 0)
(7.1786e-06 -1.59919e-06 0)
(7.50637e-06 -1.52352e-06 0)
(7.8266e-06 -1.44997e-06 0)
(8.13988e-06 -1.37705e-06 0)
(8.44673e-06 -1.30335e-06 0)
(8.74781e-06 -1.2275e-06 0)
(9.04358e-06 -1.14812e-06 0)
(9.33447e-06 -1.06381e-06 0)
(9.62103e-06 -9.73138e-07 0)
(9.90373e-06 -8.74484e-07 0)
(1.01829e-05 -7.66287e-07 0)
(1.04595e-05 -6.46308e-07 0)
(1.07335e-05 -5.13284e-07 0)
(4.45314e-06 -2.53931e-06 0)
(4.84132e-06 -2.39642e-06 0)
(5.22233e-06 -2.26753e-06 0)
(5.59451e-06 -2.14934e-06 0)
(5.95811e-06 -2.04113e-06 0)
(6.3128e-06 -1.94135e-06 0)
(6.65892e-06 -1.8484e-06 0)
(6.99672e-06 -1.76073e-06 0)
(7.32669e-06 -1.67682e-06 0)
(7.64931e-06 -1.5952e-06 0)
(7.96504e-06 -1.51446e-06 0)
(8.27435e-06 -1.43325e-06 0)
(8.57784e-06 -1.35023e-06 0)
(8.87595e-06 -1.26408e-06 0)
(9.1691e-06 -1.17342e-06 0)
(9.45788e-06 -1.0769e-06 0)
(9.74276e-06 -9.72975e-07 0)
(1.00242e-05 -8.60175e-07 0)
(1.03031e-05 -7.36404e-07 0)
(1.05798e-05 -6.00571e-07 0)
(4.29947e-06 -2.73617e-06 0)
(4.6803e-06 -2.5927e-06 0)
(5.056e-06 -2.46084e-06 0)
(5.42432e-06 -2.33803e-06 0)
(5.78548e-06 -2.22396e-06 0)
(6.13881e-06 -2.11747e-06 0)
(6.48449e-06 -2.01731e-06 0)
(6.82251e-06 -1.92216e-06 0)
(7.1532e-06 -1.83069e-06 0)
(7.47692e-06 -1.74157e-06 0)
(7.794e-06 -1.6535e-06 0)
(8.10481e-06 -1.5652e-06 0)
(8.40993e-06 -1.47542e-06 0)
(8.70971e-06 -1.38288e-06 0)
(9.0046e-06 -1.28629e-06 0)
(9.29517e-06 -1.18435e-06 0)
(9.58188e-06 -1.07564e-06 0)
(9.86531e-06 -9.58775e-07 0)
(1.01463e-05 -8.31874e-07 0)
(1.04254e-05 -6.94106e-07 0)
(4.16258e-06 -2.92446e-06 0)
(4.5353e-06 -2.78134e-06 0)
(4.90454e-06 -2.64757e-06 0)
(5.26764e-06 -2.52129e-06 0)
(5.62488e-06 -2.40248e-06 0)
(5.97539e-06 -2.29035e-06 0)
(6.31919e-06 -2.18394e-06 0)
(6.65606e-06 -2.08217e-06 0)
(6.98623e-06 -1.98389e-06 0)
(7.30992e-06 -1.88794e-06 0)
(7.62736e-06 -1.79312e-06 0)
(7.93883e-06 -1.69827e-06 0)
(8.24485e-06 -1.60223e-06 0)
(8.54571e-06 -1.5038e-06 0)
(8.84184e-06 -1.40176e-06 0)
(9.13378e-06 -1.29491e-06 0)
(9.422e-06 -1.18192e-06 0)
(9.70712e-06 -1.06157e-06 0)
(9.98997e-06 -9.32224e-07 0)
(1.02712e-05 -7.93277e-07 0)
(4.03969e-06 -3.10446e-06 0)
(4.40385e-06 -2.96232e-06 0)
(4.76586e-06 -2.82751e-06 0)
(5.12284e-06 -2.69873e-06 0)
(5.47512e-06 -2.57622e-06 0)
(5.82171e-06 -2.45945e-06 0)
(6.1625e-06 -2.34773e-06 0)
(6.49715e-06 -2.2402e-06 0)
(6.82579e-06 -2.13588e-06 0)
(7.14853e-06 -2.03379e-06 0)
(7.4655e-06 -1.93287e-06 0)
(7.77691e-06 -1.83205e-06 0)
(8.08319e-06 -1.73028e-06 0)
(8.38459e-06 -1.62647e-06 0)
(8.6815e-06 -1.51947e-06 0)
(8.97444e-06 -1.40818e-06 0)
(9.26385e-06 -1.29142e-06 0)
(9.55039e-06 -1.16811e-06 0)
(9.83482e-06 -1.03694e-06 0)
(1.01179e-05 -8.97326e-07 0)
(3.92822e-06 -3.27653e-06 0)
(4.28371e-06 -3.1358e-06 0)
(4.63805e-06 -3.0006e-06 0)
(4.98834e-06 -2.87013e-06 0)
(5.33495e-06 -2.74477e-06 0)
(5.67682e-06 -2.62423e-06 0)
(6.01378e-06 -2.50805e-06 0)
(6.34539e-06 -2.39555e-06 0)
(6.6717e-06 -2.28595e-06 0)
(6.99274e-06 -2.17844e-06 0)
(7.30854e-06 -2.07207e-06 0)
(7.61926e-06 -1.9659e-06 0)
(7.92527e-06 -1.85898e-06 0)
(8.22673e-06 -1.75031e-06 0)
(8.52403e-06 -1.63886e-06 0)
(8.81761e-06 -1.52363e-06 0)
(9.10793e-06 -1.40361e-06 0)
(9.39562e-06 -1.27789e-06 0)
(9.68139e-06 -1.14539e-06 0)
(9.96612e-06 -1.0055e-06 0)
(3.82591e-06 -3.44117e-06 0)
(4.17279e-06 -3.30211e-06 0)
(4.51927e-06 -3.16702e-06 0)
(4.86257e-06 -3.03546e-06 0)
(5.20305e-06 -2.90797e-06 0)
(5.53967e-06 -2.7844e-06 0)
(5.87221e-06 -2.66451e-06 0)
(6.20018e-06 -2.5478e-06 0)
(6.52356e-06 -2.43365e-06 0)
(6.84232e-06 -2.32142e-06 0)
(7.15641e-06 -2.21027e-06 0)
(7.46595e-06 -2.09938e-06 0)
(7.77123e-06 -1.98791e-06 0)
(8.07235e-06 -1.87493e-06 0)
(8.36968e-06 -1.75956e-06 0)
(8.66362e-06 -1.64092e-06 0)
(8.95458e-06 -1.51815e-06 0)
(9.24319e-06 -1.39049e-06 0)
(9.53006e-06 -1.25701e-06 0)
(9.81613e-06 -1.11727e-06 0)
(3.73076e-06 -3.59891e-06 0)
(4.0692e-06 -3.46168e-06 0)
(4.40781e-06 -3.32703e-06 0)
(4.74401e-06 -3.19485e-06 0)
(5.07812e-06 -3.06578e-06 0)
(5.40917e-06 -2.93982e-06 0)
(5.73691e-06 -2.8169e-06 0)
(6.06082e-06 -2.69668e-06 0)
(6.38084e-06 -2.5787e-06 0)
(6.69689e-06 -2.46242e-06 0)
(7.00887e-06 -2.34715e-06 0)
(7.31684e-06 -2.23218e-06 0)
(7.62102e-06 -2.11673e-06 0)
(7.92149e-06 -2.00001e-06 0)
(8.21856e-06 -1.88124e-06 0)
(8.51261e-06 -1.75969e-06 0)
(8.80398e-06 -1.63463e-06 0)
(9.09329e-06 -1.50541e-06 0)
(9.38105e-06 -1.37125e-06 0)
(9.66821e-06 -1.23205e-06 0)
(3.64099e-06 -3.75035e-06 0)
(3.97124e-06 -3.61497e-06 0)
(4.30209e-06 -3.48096e-06 0)
(4.63119e-06 -3.34852e-06 0)
(4.95886e-06 -3.21833e-06 0)
(5.28419e-06 -3.09055e-06 0)
(5.60692e-06 -2.96522e-06 0)
(5.92652e-06 -2.84215e-06 0)
(6.24291e-06 -2.72097e-06 0)
(6.55597e-06 -2.60129e-06 0)
(6.86554e-06 -2.48251e-06 0)
(7.17165e-06 -2.36402e-06 0)
(7.47447e-06 -2.24515e-06 0)
(7.77404e-06 -2.12522e-06 0)
(8.07064e-06 -2.00356e-06 0)
(8.36459e-06 -1.87955e-06 0)
(8.65618e-06 -1.75259e-06 0)
(8.94599e-06 -1.62212e-06 0)
(9.23445e-06 -1.48761e-06 0)
(9.52248e-06 -1.3491e-06 0)
(3.555e-06 -3.896e-06 0)
(3.87733e-06 -3.76239e-06 0)
(4.20062e-06 -3.62917e-06 0)
(4.52275e-06 -3.49673e-06 0)
(4.84403e-06 -3.36583e-06 0)
(5.16362e-06 -3.23669e-06 0)
(5.48127e-06 -3.1095e-06 0)
(5.79645e-06 -2.98413e-06 0)
(6.10907e-06 -2.86035e-06 0)
(6.41897e-06 -2.73784e-06 0)
(6.72595e-06 -2.61611e-06 0)
(7.03002e-06 -2.49466e-06 0)
(7.3313e-06 -2.37292e-06 0)
(7.6298e-06 -2.25029e-06 0)
(7.92576e-06 -2.12623e-06 0)
(8.21945e-06 -2.00021e-06 0)
(8.5111e-06 -1.87169e-06 0)
(8.80124e-06 -1.74027e-06 0)
(9.09022e-06 -1.60573e-06 0)
(9.37892e-06 -1.46792e-06 0)
(3.47128e-06 -4.0363e-06 0)
(3.78602e-06 -3.90436e-06 0)
(4.10201e-06 -3.77202e-06 0)
(4.41738e-06 -3.6398e-06 0)
(4.73241e-06 -3.5085e-06 0)
(5.04636e-06 -3.3784e-06 0)
(5.35898e-06 -3.2498e-06 0)
(5.66975e-06 -3.12262e-06 0)
(5.97856e-06 -2.9968e-06 0)
(6.28524e-06 -2.87202e-06 0)
(6.58955e-06 -2.74791e-06 0)
(6.89148e-06 -2.62405e-06 0)
(7.19114e-06 -2.49996e-06 0)
(7.48848e-06 -2.37514e-06 0)
(7.78369e-06 -2.24911e-06 0)
(8.077e-06 -2.12144e-06 0)
(8.36858e-06 -1.9917e-06 0)
(8.65891e-06 -1.85965e-06 0)
(8.94827e-06 -1.72519e-06 0)
(9.23746e-06 -1.58818e-06 0)
(3.38847e-06 -4.17167e-06 0)
(3.69594e-06 -4.04136e-06 0)
(4.00492e-06 -3.90992e-06 0)
(4.3138e-06 -3.77808e-06 0)
(4.62282e-06 -3.64663e-06 0)
(4.93134e-06 -3.51592e-06 0)
(5.23907e-06 -3.38634e-06 0)
(5.54555e-06 -3.25784e-06 0)
(5.85062e-06 -3.13046e-06 0)
(6.1541e-06 -3.00392e-06 0)
(6.45576e-06 -2.87792e-06 0)
(6.75557e-06 -2.75213e-06 0)
(7.05358e-06 -2.62614e-06 0)
(7.34971e-06 -2.49955e-06 0)
(7.64411e-06 -2.37195e-06 0)
(7.93696e-06 -2.24296e-06 0)
(8.22838e-06 -2.11231e-06 0)
(8.5188e-06 -1.97988e-06 0)
(8.80844e-06 -1.84549e-06 0)
(9.09797e-06 -1.70934e-06 0)
(3.30517e-06 -4.30264e-06 0)
(3.60574e-06 -4.1738e-06 0)
(3.90807e-06 -4.04329e-06 0)
(4.21079e-06 -3.91195e-06 0)
(4.51411e-06 -3.7806e-06 0)
(4.81747e-06 -3.64962e-06 0)
(5.12057e-06 -3.5194e-06 0)
(5.42294e-06 -3.38999e-06 0)
(5.72444e-06 -3.26141e-06 0)
(6.02488e-06 -3.13353e-06 0)
(6.32401e-06 -3.00612e-06 0)
(6.62177e-06 -2.87887e-06 0)
(6.91818e-06 -2.75145e-06 0)
(7.21311e-06 -2.6235e-06 0)
(7.50667e-06 -2.49468e-06 0)
(7.79901e-06 -2.3647e-06 0)
(8.09023e-06 -2.23342e-06 0)
(8.38068e-06 -2.10072e-06 0)
(8.67049e-06 -1.96651e-06 0)
(8.9602e-06 -1.83107e-06 0)
(3.22013e-06 -4.42953e-06 0)
(3.51413e-06 -4.30215e-06 0)
(3.81012e-06 -4.17246e-06 0)
(4.10713e-06 -4.04174e-06 0)
(4.40516e-06 -3.9107e-06 0)
(4.70375e-06 -3.77972e-06 0)
(5.00254e-06 -3.64917e-06 0)
(5.30111e-06 -3.51923e-06 0)
(5.5993e-06 -3.3899e-06 0)
(5.89694e-06 -3.2611e-06 0)
(6.19373e-06 -3.13267e-06 0)
(6.48958e-06 -3.00437e-06 0)
(6.78447e-06 -2.87589e-06 0)
(7.07823e-06 -2.74693e-06 0)
(7.37099e-06 -2.61721e-06 0)
(7.66286e-06 -2.48656e-06 0)
(7.95386e-06 -2.35484e-06 0)
(8.24425e-06 -2.22189e-06 0)
(8.53411e-06 -2.08797e-06 0)
(8.8239e-06 -1.95315e-06 0)
(3.13203e-06 -4.5527e-06 0)
(3.41961e-06 -4.4264e-06 0)
(3.70958e-06 -4.29786e-06 0)
(4.00156e-06 -4.16803e-06 0)
(4.29477e-06 -4.03744e-06 0)
(4.58908e-06 -3.90667e-06 0)
(4.88402e-06 -3.77609e-06 0)
(5.17921e-06 -3.6459e-06 0)
(5.47449e-06 -3.51615e-06 0)
(5.76966e-06 -3.3868e-06 0)
(6.06438e-06 -3.25773e-06 0)
(6.3585e-06 -3.12871e-06 0)
(6.65198e-06 -2.9995e-06 0)
(6.94471e-06 -2.86984e-06 0)
(7.23676e-06 -2.73954e-06 0)
(7.52818e-06 -2.60843e-06 0)
(7.81889e-06 -2.47638e-06 0)
(8.10909e-06 -2.34331e-06 0)
(8.39896e-06 -2.20956e-06 0)
(8.68894e-06 -2.0753e-06 0)
(3.03875e-06 -4.67208e-06 0)
(3.32088e-06 -4.54707e-06 0)
(3.60591e-06 -4.41992e-06 0)
(3.89301e-06 -4.29098e-06 0)
(4.18201e-06 -4.16109e-06 0)
(4.47253e-06 -4.03077e-06 0)
(4.76418e-06 -3.90043e-06 0)
(5.05654e-06 -3.77028e-06 0)
(5.34941e-06 -3.64043e-06 0)
(5.6425e-06 -3.51086e-06 0)
(5.93542e-06 -3.38145e-06 0)
(6.22805e-06 -3.25203e-06 0)
(6.52039e-06 -3.1224e-06 0)
(6.8123e-06 -2.99233e-06 0)
(7.10368e-06 -2.86166e-06 0)
(7.39449e-06 -2.73025e-06 0)
(7.68488e-06 -2.59794e-06 0)
(7.97508e-06 -2.46493e-06 0)
(8.2649e-06 -2.33128e-06 0)
(8.55465e-06 -2.19738e-06 0)
(2.9391e-06 -4.78909e-06 0)
(3.21623e-06 -4.66553e-06 0)
(3.49672e-06 -4.53945e-06 0)
(3.77983e-06 -4.41152e-06 0)
(4.06536e-06 -4.28245e-06 0)
(4.35292e-06 -4.15277e-06 0)
(4.6421e-06 -4.02288e-06 0)
(4.93237e-06 -3.893e-06 0)
(5.22339e-06 -3.76327e-06 0)
(5.51483e-06 -3.63369e-06 0)
(5.80643e-06 -3.50418e-06 0)
(6.09807e-06 -3.37458e-06 0)
(6.38952e-06 -3.24473e-06 0)
(6.68052e-06 -3.11445e-06 0)
(6.97122e-06 -2.98357e-06 0)
(7.2617e-06 -2.85195e-06 0)
(7.55176e-06 -2.71954e-06 0)
(7.84167e-06 -2.58648e-06 0)
(8.13141e-06 -2.45293e-06 0)
(8.42111e-06 -2.31927e-06 0)
(2.83171e-06 -4.90252e-06 0)
(3.10443e-06 -4.7807e-06 0)
(3.38112e-06 -4.65619e-06 0)
(3.66111e-06 -4.52959e-06 0)
(3.94416e-06 -4.40165e-06 0)
(4.22979e-06 -4.27288e-06 0)
(4.51732e-06 -4.14369e-06 0)
(4.80613e-06 -4.01432e-06 0)
(5.09599e-06 -3.88493e-06 0)
(5.3866e-06 -3.75554e-06 0)
(5.67743e-06 -3.62611e-06 0)
(5.9682e-06 -3.4965e-06 0)
(6.25893e-06 -3.36658e-06 0)
(6.54937e-06 -3.23621e-06 0)
(6.83947e-06 -3.10522e-06 0)
(7.12941e-06 -2.97351e-06 0)
(7.4191e-06 -2.84116e-06 0)
(7.70871e-06 -2.70797e-06 0)
(7.9983e-06 -2.57445e-06 0)
(8.28777e-06 -2.44075e-06 0)
(2.09491e-07 -4.23377e-06 0)
(6.31292e-07 -4.17169e-06 0)
(1.06164e-06 -4.04969e-06 0)
(1.50528e-06 -3.87302e-06 0)
(1.96617e-06 -3.64816e-06 0)
(2.44683e-06 -3.38374e-06 0)
(2.9482e-06 -3.08927e-06 0)
(3.4695e-06 -2.77489e-06 0)
(4.0087e-06 -2.45082e-06 0)
(4.5621e-06 -2.12535e-06 0)
(2.0392e-07 -4.30192e-06 0)
(6.14121e-07 -4.24529e-06 0)
(1.03142e-06 -4.13382e-06 0)
(1.45975e-06 -3.97211e-06 0)
(1.90246e-06 -3.76557e-06 0)
(2.36169e-06 -3.52157e-06 0)
(2.83822e-06 -3.24822e-06 0)
(3.33133e-06 -2.95422e-06 0)
(3.83819e-06 -2.64905e-06 0)
(4.35642e-06 -2.33906e-06 0)
(1.9899e-07 -4.37206e-06 0)
(5.98891e-07 -4.32038e-06 0)
(1.0045e-06 -4.21847e-06 0)
(1.41901e-06 -4.07043e-06 0)
(1.84513e-06 -3.88092e-06 0)
(2.28466e-06 -3.65621e-06 0)
(2.73834e-06 -3.40333e-06 0)
(3.20608e-06 -3.12951e-06 0)
(3.68568e-06 -2.84309e-06 0)
(4.17593e-06 -2.54765e-06 0)
(1.94536e-07 -4.44423e-06 0)
(5.85216e-07 -4.39676e-06 0)
(9.80565e-07 -4.30299e-06 0)
(1.3832e-06 -4.1666e-06 0)
(1.79534e-06 -3.99168e-06 0)
(2.21841e-06 -3.7836e-06 0)
(2.65294e-06 -3.5487e-06 0)
(3.09882e-06 -3.29324e-06 0)
(3.55424e-06 -3.02503e-06 0)
(4.01809e-06 -2.74654e-06 0)
(1.90392e-07 -4.51833e-06 0)
(5.72476e-07 -4.4746e-06 0)
(9.5839e-07 -4.38809e-06 0)
(1.35023e-06 -4.26213e-06 0)
(1.74983e-06 -4.10038e-06 0)
(2.15835e-06 -3.9075e-06 0)
(2.57625e-06 -3.68916e-06 0)
(3.00343e-06 -3.45071e-06 0)
(3.43863e-06 -3.19919e-06 0)
(3.87986e-06 -2.93677e-06 0)
(1.86516e-07 -4.5942e-06 0)
(5.60576e-07 -4.5537e-06 0)
(9.37818e-07 -4.47352e-06 0)
(1.31993e-06 -4.35662e-06 0)
(1.70841e-06 -4.20639e-06 0)
(2.10419e-06 -4.02693e-06 0)
(2.5076e-06 -3.82339e-06 0)
(2.91839e-06 -3.60055e-06 0)
(3.33592e-06 -3.36469e-06 0)
(3.75748e-06 -3.11812e-06 0)
(1.82767e-07 -4.67175e-06 0)
(5.4916e-07 -4.63408e-06 0)
(9.18197e-07 -4.55957e-06 0)
(1.29126e-06 -4.45075e-06 0)
(1.66962e-06 -4.31081e-06 0)
(2.05398e-06 -4.14342e-06 0)
(2.44468e-06 -3.95323e-06 0)
(2.84122e-06 -3.74455e-06 0)
(3.2435e-06 -3.52294e-06 0)
(3.64816e-06 -3.2911e-06 0)
(1.7912e-07 -4.75076e-06 0)
(5.38112e-07 -4.71556e-06 0)
(8.99312e-07 -4.64607e-06 0)
(1.26389e-06 -4.54436e-06 0)
(1.63294e-06 -4.41353e-06 0)
(2.00697e-06 -4.25693e-06 0)
(2.3863e-06 -4.07874e-06 0)
(2.77025e-06 -3.88292e-06 0)
(3.15911e-06 -3.6744e-06 0)
(3.54924e-06 -3.45622e-06 0)
(1.75546e-07 -4.83108e-06 0)
(5.27244e-07 -4.79806e-06 0)
(8.80819e-07 -4.73303e-06 0)
(1.23729e-06 -4.63771e-06 0)
(1.59762e-06 -4.51504e-06 0)
(1.96216e-06 -4.36812e-06 0)
(2.33121e-06 -4.20071e-06 0)
(2.70398e-06 -4.0165e-06 0)
(3.08098e-06 -3.8199e-06 0)
(3.45851e-06 -3.61419e-06 0)
(1.71988e-07 -4.9125e-06 0)
(5.16421e-07 -4.88142e-06 0)
(8.62503e-07 -4.82035e-06 0)
(1.21114e-06 -4.73076e-06 0)
(1.56316e-06 -4.61541e-06 0)
(1.91884e-06 -4.47715e-06 0)
(2.27846e-06 -4.31945e-06 0)
(2.64114e-06 -4.14578e-06 0)
(3.00751e-06 -3.96003e-06 0)
(3.37402e-06 -3.76565e-06 0)
(1.68373e-07 -4.99481e-06 0)
(5.05502e-07 -4.96546e-06 0)
(8.44132e-07 -4.90795e-06 0)
(1.18508e-06 -4.82355e-06 0)
(1.52906e-06 -4.71479e-06 0)
(1.87633e-06 -4.58433e-06 0)
(2.22716e-06 -4.43539e-06 0)
(2.58061e-06 -4.27127e-06 0)
(2.93734e-06 -4.09536e-06 0)
(3.29406e-06 -3.91122e-06 0)
(1.64673e-07 -5.07776e-06 0)
(4.94402e-07 -5.04999e-06 0)
(8.25528e-07 -4.99568e-06 0)
(1.1588e-06 -4.91597e-06 0)
(1.49489e-06 -4.81317e-06 0)
(1.83404e-06 -4.68976e-06 0)
(2.1765e-06 -4.54875e-06 0)
(2.52135e-06 -4.39327e-06 0)
(2.86922e-06 -4.22628e-06 0)
(3.21715e-06 -4.05138e-06 0)
(1.60873e-07 -5.16109e-06 0)
(4.83013e-07 -5.13479e-06 0)
(8.06478e-07 -5.0834e-06 0)
(1.13198e-06 -5.00795e-06 0)
(1.46021e-06 -4.91054e-06 0)
(1.79137e-06 -4.79356e-06 0)
(2.12574e-06 -4.65976e-06 0)
(2.46244e-06 -4.51207e-06 0)
(2.80203e-06 -4.35319e-06 0)
(3.14191e-06 -4.18668e-06 0)
(1.5694e-07 -5.24452e-06 0)
(4.71197e-07 -5.21958e-06 0)
(7.86743e-07 -5.17085e-06 0)
(1.10429e-06 -5.09929e-06 0)
(1.42455e-06 -5.00684e-06 0)
(1.74776e-06 -4.89572e-06 0)
(2.07414e-06 -4.7685e-06 0)
(2.40297e-06 -4.62789e-06 0)
(2.73467e-06 -4.47646e-06 0)
(3.06703e-06 -4.31754e-06 0)
(1.52808e-07 -5.32784e-06 0)
(4.58782e-07 -5.30418e-06 0)
(7.66054e-07 -5.25789e-06 0)
(1.07536e-06 -5.18992e-06 0)
(1.38745e-06 -5.10203e-06 0)
(1.70256e-06 -4.99632e-06 0)
(2.02095e-06 -4.87509e-06 0)
(2.342e-06 -4.74097e-06 0)
(2.66607e-06 -4.59637e-06 0)
(2.99126e-06 -4.4443e-06 0)
(1.48413e-07 -5.41058e-06 0)
(4.45599e-07 -5.38813e-06 0)
(7.4414e-07 -5.34411e-06 0)
(1.04481e-06 -5.27949e-06 0)
(1.34837e-06 -5.19581e-06 0)
(1.65513e-06 -5.09507e-06 0)
(1.96538e-06 -4.9794e-06 0)
(2.27864e-06 -4.85132e-06 0)
(2.59515e-06 -4.713e-06 0)
(2.91338e-06 -4.56726e-06 0)
(1.43689e-07 -5.49263e-06 0)
(4.31466e-07 -5.47135e-06 0)
(7.20684e-07 -5.42945e-06 0)
(1.01217e-06 -5.36794e-06 0)
(1.30672e-06 -5.28824e-06 0)
(1.60473e-06 -5.19218e-06 0)
(1.90654e-06 -5.08173e-06 0)
(2.21178e-06 -4.95931e-06 0)
(2.5207e-06 -4.82675e-06 0)
(2.83197e-06 -4.68691e-06 0)
(1.38583e-07 -5.57305e-06 0)
(4.162e-07 -5.55286e-06 0)
(6.95363e-07 -5.513e-06 0)
(9.76972e-07 -5.45445e-06 0)
(1.26188e-06 -5.37852e-06 0)
(1.5506e-06 -5.28689e-06 0)
(1.84349e-06 -5.18143e-06 0)
(2.14036e-06 -5.06433e-06 0)
(2.44137e-06 -4.93729e-06 0)
(2.74559e-06 -4.80295e-06 0)
(1.32999e-07 -5.65227e-06 0)
(3.99504e-07 -5.63314e-06 0)
(6.67675e-07 -5.59527e-06 0)
(9.38507e-07 -5.53959e-06 0)
(1.21294e-06 -5.4673e-06 0)
(1.49159e-06 -5.37999e-06 0)
(1.77491e-06 -5.27936e-06 0)
(2.06284e-06 -5.16732e-06 0)
(2.35555e-06 -5.04563e-06 0)
(2.65243e-06 -4.91654e-06 0)
(1.26894e-07 -5.7278e-06 0)
(3.81242e-07 -5.70966e-06 0)
(6.37377e-07 -5.67378e-06 0)
(8.96426e-07 -5.62095e-06 0)
(1.15944e-06 -5.55229e-06 0)
(1.42713e-06 -5.46929e-06 0)
(1.70005e-06 -5.37345e-06 0)
(1.9783e-06 -5.26655e-06 0)
(2.26218e-06 -5.15018e-06 0)
(2.55135e-06 -5.0264e-06 0)
)


// ************************************************************************* //
