/*--------------------------------*- C++ -*----------------------------------*\
| =========                 |                                                 |
| \\      /  F ield         | foam-extend: Open Source CFD                    |
|  \\    /   O peration     | Version:     4.1                                |
|   \\  /    A nd           | Web:         http://www.foam-extend.org         |
|    \\/     M anipulation  |                                                 |
\*---------------------------------------------------------------------------*/
FoamFile
{
    version     2.0;
    format      ascii;
    class       vectorField;
    location    "10";
    object      solidsCellD_iteration3;
}
// * * * * * * * * * * * * * * * * * * * * * * * * * * * * * * * * * * * * * //


1000
(
(5.12317e-06 -2.15908e-06 0)
(4.83726e-06 -2.01001e-06 0)
(4.65485e-06 -1.91568e-06 0)
(4.55076e-06 -1.87187e-06 0)
(4.50052e-06 -1.85685e-06 0)
(4.48963e-06 -1.86417e-06 0)
(4.50766e-06 -1.88605e-06 0)
(4.54751e-06 -1.91882e-06 0)
(4.60325e-06 -1.95912e-06 0)
(4.67095e-06 -2.00541e-06 0)
(4.63295e-06 -2.35823e-06 0)
(4.32823e-06 -2.25461e-06 0)
(4.13386e-06 -2.18911e-06 0)
(4.02093e-06 -2.16495e-06 0)
(3.96383e-06 -2.16298e-06 0)
(3.94657e-06 -2.17959e-06 0)
(3.95837e-06 -2.20819e-06 0)
(3.99158e-06 -2.24591e-06 0)
(4.04025e-06 -2.29033e-06 0)
(4.09995e-06 -2.33853e-06 0)
(4.12327e-06 -2.54698e-06 0)
(3.81186e-06 -2.49419e-06 0)
(3.61338e-06 -2.46082e-06 0)
(3.49645e-06 -2.4583e-06 0)
(3.43541e-06 -2.47051e-06 0)
(3.41366e-06 -2.49692e-06 0)
(3.42033e-06 -2.53233e-06 0)
(3.44776e-06 -2.57482e-06 0)
(3.48999e-06 -2.62292e-06 0)
(3.5428e-06 -2.67344e-06 0)
(3.59819e-06 -2.72199e-06 0)
(3.29306e-06 -2.72251e-06 0)
(3.09871e-06 -2.72285e-06 0)
(2.98306e-06 -2.74286e-06 0)
(2.92128e-06 -2.76975e-06 0)
(2.89706e-06 -2.8062e-06 0)
(2.89986e-06 -2.8484e-06 0)
(2.92218e-06 -2.89565e-06 0)
(2.95853e-06 -2.9473e-06 0)
(3.00452e-06 -3.00037e-06 0)
(3.06114e-06 -2.87982e-06 0)
(2.77538e-06 -2.93317e-06 0)
(2.59339e-06 -2.96697e-06 0)
(2.48437e-06 -3.00922e-06 0)
(2.42526e-06 -3.05049e-06 0)
(2.40058e-06 -3.09671e-06 0)
(2.40068e-06 -3.14549e-06 0)
(2.41844e-06 -3.19738e-06 0)
(2.44912e-06 -3.2524e-06 0)
(2.48831e-06 -3.30819e-06 0)
(2.515e-06 -3.0172e-06 0)
(2.26113e-06 -3.11998e-06 0)
(2.09952e-06 -3.18508e-06 0)
(2.00225e-06 -3.2481e-06 0)
(1.94894e-06 -3.30282e-06 0)
(1.9257e-06 -3.35815e-06 0)
(1.92416e-06 -3.41298e-06 0)
(1.93797e-06 -3.46918e-06 0)
(1.96308e-06 -3.52729e-06 0)
(1.99533e-06 -3.58578e-06 0)
(1.96218e-06 -3.1311e-06 0)
(1.75162e-06 -3.27718e-06 0)
(1.61761e-06 -3.36972e-06 0)
(1.53664e-06 -3.45093e-06 0)
(1.49191e-06 -3.51738e-06 0)
(1.47186e-06 -3.58067e-06 0)
(1.46964e-06 -3.64078e-06 0)
(1.47991e-06 -3.7008e-06 0)
(1.49947e-06 -3.7616e-06 0)
(1.52466e-06 -3.82258e-06 0)
(1.40468e-06 -3.21893e-06 0)
(1.24699e-06 -3.39978e-06 0)
(1.14664e-06 -3.51438e-06 0)
(1.08587e-06 -3.61017e-06 0)
(1.05209e-06 -3.68604e-06 0)
(1.03665e-06 -3.7557e-06 0)
(1.03449e-06 -3.82008e-06 0)
(1.04157e-06 -3.88317e-06 0)
(1.05557e-06 -3.94612e-06 0)
(1.0736e-06 -4.00916e-06 0)
(8.44146e-07 -3.27863e-06 0)
(7.46536e-07 -3.4838e-06 0)
(6.84387e-07 -3.61383e-06 0)
(6.46644e-07 -3.71985e-06 0)
(6.2557e-07 -3.80232e-06 0)
(6.15864e-07 -3.87643e-06 0)
(6.14352e-07 -3.9438e-06 0)
(6.18475e-07 -4.00908e-06 0)
(6.2684e-07 -4.07358e-06 0)
(6.37658e-07 -4.13815e-06 0)
(2.81937e-07 -3.30871e-06 0)
(2.48816e-07 -3.52642e-06 0)
(2.27716e-07 -3.66442e-06 0)
(2.1491e-07 -3.77572e-06 0)
(2.07735e-07 -3.86158e-06 0)
(2.04368e-07 -3.93799e-06 0)
(2.03781e-07 -4.00688e-06 0)
(2.05123e-07 -4.07328e-06 0)
(2.07899e-07 -4.13855e-06 0)
(2.11485e-07 -4.20389e-06 0)
(7.99021e-06 -9.85771e-08 0)
(8.0628e-06 -7.11413e-08 0)
(8.10727e-06 -5.37426e-08 0)
(8.15549e-06 -4.35165e-08 0)
(8.20799e-06 -3.78422e-08 0)
(8.27231e-06 -3.52125e-08 0)
(8.34816e-06 -3.46194e-08 0)
(8.43644e-06 -3.53897e-08 0)
(8.53685e-06 -3.71257e-08 0)
(8.64808e-06 -3.91842e-08 0)
(7.93116e-06 -2.95684e-07 0)
(7.99178e-06 -2.14995e-07 0)
(8.02879e-06 -1.63952e-07 0)
(8.07201e-06 -1.34033e-07 0)
(8.12123e-06 -1.17486e-07 0)
(8.18318e-06 -1.09914e-07 0)
(8.25736e-06 -1.08354e-07 0)
(8.34428e-06 -1.10764e-07 0)
(8.44355e-06 -1.15982e-07 0)
(8.55354e-06 -1.2219e-07 0)
(7.81311e-06 -4.94503e-07 0)
(7.851e-06 -3.64957e-07 0)
(7.87365e-06 -2.83081e-07 0)
(7.90737e-06 -2.35221e-07 0)
(7.9503e-06 -2.08875e-07 0)
(8.00783e-06 -1.97004e-07 0)
(8.07877e-06 -1.94803e-07 0)
(8.16301e-06 -1.99008e-07 0)
(8.26008e-06 -2.0773e-07 0)
(8.36768e-06 -2.18134e-07 0)
(7.63822e-06 -6.95804e-07 0)
(7.64383e-06 -5.24455e-07 0)
(7.64598e-06 -4.16199e-07 0)
(7.6662e-06 -3.53198e-07 0)
(7.70016e-06 -3.18725e-07 0)
(7.75128e-06 -3.0354e-07 0)
(7.81758e-06 -3.01236e-07 0)
(7.89808e-06 -3.07521e-07 0)
(7.99204e-06 -3.19781e-07 0)
(8.09631e-06 -3.34412e-07 0)
(7.40919e-06 -9.00183e-07 0)
(7.37491e-06 -6.96381e-07 0)
(7.35173e-06 -5.67621e-07 0)
(7.35512e-06 -4.93192e-07 0)
(7.37799e-06 -4.52843e-07 0)
(7.42124e-06 -4.35695e-07 0)
(7.48176e-06 -4.34018e-07 0)
(7.55761e-06 -4.42732e-07 0)
(7.64766e-06 -4.5856e-07 0)
(7.74785e-06 -4.77444e-07 0)
(7.12953e-06 -1.1077e-06 0)
(7.05004e-06 -8.82573e-07 0)
(6.9982e-06 -7.40277e-07 0)
(6.98255e-06 -6.58829e-07 0)
(6.99283e-06 -6.15298e-07 0)
(7.02711e-06 -5.97797e-07 0)
(7.08103e-06 -5.9758e-07 0)
(7.15151e-06 -6.09113e-07 0)
(7.23705e-06 -6.28544e-07 0)
(7.33276e-06 -6.51701e-07 0)
(6.80324e-06 -1.31794e-06 0)
(6.67603e-06 -1.08377e-06 0)
(6.59398e-06 -9.35676e-07 0)
(6.55818e-06 -8.52086e-07 0)
(6.55504e-06 -8.08349e-07 0)
(6.57974e-06 -7.9227e-07 0)
(6.62654e-06 -7.94475e-07 0)
(6.69123e-06 -8.09297e-07 0)
(6.77179e-06 -8.32468e-07 0)
(6.86284e-06 -8.5992e-07 0)
(6.43474e-06 -1.52994e-06 0)
(6.26019e-06 -1.29946e-06 0)
(6.14817e-06 -1.15363e-06 0)
(6.09228e-06 -1.07295e-06 0)
(6.07564e-06 -1.03209e-06 0)
(6.09061e-06 -1.01929e-06 0)
(6.13007e-06 -1.02491e-06 0)
(6.18879e-06 -1.04353e-06 0)
(6.26407e-06 -1.07055e-06 0)
(6.35044e-06 -1.1024e-06 0)
(6.02874e-06 -1.74221e-06 0)
(5.81013e-06 -1.52791e-06 0)
(5.67033e-06 -1.39224e-06 0)
(5.59566e-06 -1.31946e-06 0)
(5.56626e-06 -1.28453e-06 0)
(5.57182e-06 -1.27683e-06 0)
(5.60396e-06 -1.28697e-06 0)
(5.65666e-06 -1.30984e-06 0)
(5.72625e-06 -1.34111e-06 0)
(5.808e-06 -1.37728e-06 0)
(5.59e-06 -1.95272e-06 0)
(5.3334e-06 -1.76609e-06 0)
(5.1696e-06 -1.64794e-06 0)
(5.07853e-06 -1.58769e-06 0)
(5.03772e-06 -1.56152e-06 0)
(5.03448e-06 -1.56065e-06 0)
(5.05944e-06 -1.57626e-06 0)
(5.10599e-06 -1.60405e-06 0)
(5.16968e-06 -1.63976e-06 0)
(5.24647e-06 -1.68171e-06 0)
(8.77031e-06 -4.12535e-08 0)
(8.90354e-06 -4.16995e-08 0)
(9.04526e-06 -4.22425e-08 0)
(9.19496e-06 -4.26263e-08 0)
(9.35167e-06 -4.28039e-08 0)
(9.51482e-06 -4.27605e-08 0)
(9.68374e-06 -4.24611e-08 0)
(9.85777e-06 -4.19148e-08 0)
(1.00363e-05 -4.10919e-08 0)
(1.02187e-05 -3.99629e-08 0)
(1.04045e-05 -3.84931e-08 0)
(1.05932e-05 -3.66646e-08 0)
(1.07842e-05 -3.44567e-08 0)
(1.09769e-05 -3.18366e-08 0)
(1.11708e-05 -2.87525e-08 0)
(1.13652e-05 -2.51462e-08 0)
(1.15598e-05 -2.0945e-08 0)
(1.1753e-05 -1.60719e-08 0)
(1.19454e-05 -1.04078e-08 0)
(1.21336e-05 -3.91353e-09 0)
(8.67996e-06 -1.27995e-07 0)
(8.82072e-06 -1.28768e-07 0)
(8.96919e-06 -1.29867e-07 0)
(9.12475e-06 -1.30578e-07 0)
(9.28675e-06 -1.30739e-07 0)
(9.45457e-06 -1.30325e-07 0)
(9.62768e-06 -1.29196e-07 0)
(9.80547e-06 -1.27344e-07 0)
(9.98742e-06 -1.2467e-07 0)
(1.0173e-05 -1.21113e-07 0)
(1.03617e-05 -1.16591e-07 0)
(1.05531e-05 -1.11038e-07 0)
(1.07466e-05 -1.04364e-07 0)
(1.09417e-05 -9.64555e-08 0)
(1.11379e-05 -8.71623e-08 0)
(1.13344e-05 -7.63187e-08 0)
(1.1531e-05 -6.37074e-08 0)
(1.17262e-05 -4.91001e-08 0)
(1.19205e-05 -3.21369e-08 0)
(1.21107e-05 -1.26868e-08 0)
(8.50223e-06 -2.26373e-07 0)
(8.65777e-06 -2.25781e-07 0)
(8.81953e-06 -2.25903e-07 0)
(8.9866e-06 -2.25779e-07 0)
(9.15886e-06 -2.24958e-07 0)
(9.3358e-06 -2.23414e-07 0)
(9.51717e-06 -2.20834e-07 0)
(9.70244e-06 -2.17172e-07 0)
(9.89116e-06 -2.12235e-07 0)
(1.00829e-05 -2.05927e-07 0)
(1.02774e-05 -1.98105e-07 0)
(1.04741e-05 -1.88638e-07 0)
(1.06726e-05 -1.77353e-07 0)
(1.08723e-05 -1.64048e-07 0)
(1.1073e-05 -1.48471e-07 0)
(1.12737e-05 -1.30344e-07 0)
(1.14744e-05 -1.09298e-07 0)
(1.16736e-05 -8.49626e-08 0)
(1.18717e-05 -5.6737e-08 0)
(1.20658e-05 -2.43861e-08 0)
(8.24252e-06 -3.43032e-07 0)
(8.41927e-06 -3.38428e-07 0)
(8.6002e-06 -3.3516e-07 0)
(8.78397e-06 -3.32375e-07 0)
(8.97127e-06 -3.2904e-07 0)
(9.16157e-06 -3.25145e-07 0)
(9.35498e-06 -3.2011e-07 0)
(9.55109e-06 -3.13834e-07 0)
(9.74975e-06 -3.06002e-07 0)
(9.95064e-06 -2.9645e-07 0)
(1.01535e-05 -2.84945e-07 0)
(1.0358e-05 -2.71266e-07 0)
(1.05638e-05 -2.55144e-07 0)
(1.07704e-05 -2.36285e-07 0)
(1.09775e-05 -2.14334e-07 0)
(1.11845e-05 -1.88882e-07 0)
(1.13911e-05 -1.59403e-07 0)
(1.15961e-05 -1.25377e-07 0)
(1.18e-05 -8.59514e-08 0)
(1.19997e-05 -4.07819e-08 0)
(7.90852e-06 -4.83865e-07 0)
(8.11189e-06 -4.71882e-07 0)
(8.31723e-06 -4.62117e-07 0)
(8.52225e-06 -4.54278e-07 0)
(8.72877e-06 -4.46421e-07 0)
(8.93617e-06 -4.38556e-07 0)
(9.14511e-06 -4.29763e-07 0)
(9.35525e-06 -4.19821e-07 0)
(9.56675e-06 -4.08257e-07 0)
(9.77942e-06 -3.9479e-07 0)
(9.99316e-06 -3.79063e-07 0)
(1.02077e-05 -3.60748e-07 0)
(1.04229e-05 -3.39471e-07 0)
(1.06384e-05 -3.14833e-07 0)
(1.08539e-05 -2.8636e-07 0)
(1.10688e-05 -2.53507e-07 0)
(1.12832e-05 -2.15591e-07 0)
(1.14956e-05 -1.71925e-07 0)
(1.17068e-05 -1.214e-07 0)
(1.19138e-05 -6.35377e-08 0)
(7.50985e-06 -6.53045e-07 0)
(7.74393e-06 -6.29806e-07 0)
(7.97779e-06 -6.09915e-07 0)
(8.20779e-06 -5.94134e-07 0)
(8.43712e-06 -5.7937e-07 0)
(8.66492e-06 -5.65587e-07 0)
(8.89245e-06 -5.51468e-07 0)
(9.11944e-06 -5.36582e-07 0)
(9.34632e-06 -5.20262e-07 0)
(9.57309e-06 -5.02064e-07 0)
(9.79988e-06 -4.8149e-07 0)
(1.00266e-05 -4.58071e-07 0)
(1.02531e-05 -4.31304e-07 0)
(1.04792e-05 -4.00669e-07 0)
(1.07048e-05 -3.65545e-07 0)
(1.09293e-05 -3.25248e-07 0)
(1.11528e-05 -2.78929e-07 0)
(1.13742e-05 -2.25727e-07 0)
(1.15943e-05 -1.64261e-07 0)
(1.181e-05 -9.38889e-08 0)
(7.05743e-06 -8.53319e-07 0)
(7.32496e-06 -8.14827e-07 0)
(7.59042e-06 -7.81155e-07 0)
(7.84835e-06 -7.54348e-07 0)
(8.10328e-06 -7.30181e-07 0)
(8.35415e-06 -7.0836e-07 0)
(8.60263e-06 -6.87198e-07 0)
(8.84873e-06 -6.65948e-07 0)
(9.09313e-06 -6.43726e-07 0)
(9.33605e-06 -6.1986e-07 0)
(9.57775e-06 -5.93687e-07 0)
(9.81829e-06 -5.64574e-07 0)
(1.00577e-05 -5.31874e-07 0)
(1.0296e-05 -4.94925e-07 0)
(1.05331e-05 -4.52951e-07 0)
(1.07685e-05 -4.0512e-07 0)
(1.10026e-05 -3.50406e-07 0)
(1.12343e-05 -2.87758e-07 0)
(1.14644e-05 -2.15519e-07 0)
(1.16902e-05 -1.32877e-07 0)
(6.56253e-06 -1.08515e-06 0)
(6.86481e-06 -1.02711e-06 0)
(7.16356e-06 -9.76071e-07 0)
(7.45151e-06 -9.34824e-07 0)
(7.73401e-06 -8.98582e-07 0)
(8.0101e-06 -8.6638e-07 0)
(8.28156e-06 -8.36306e-07 0)
(8.54874e-06 -8.07176e-07 0)
(8.81249e-06 -7.77866e-07 0)
(9.07325e-06 -7.47418e-07 0)
(9.33144e-06 -7.14956e-07 0)
(9.58728e-06 -6.79652e-07 0)
(9.84096e-06 -6.40689e-07 0)
(1.00926e-05 -5.97234e-07 0)
(1.03423e-05 -5.48346e-07 0)
(1.05899e-05 -4.93024e-07 0)
(1.08356e-05 -4.30048e-07 0)
(1.10786e-05 -3.58166e-07 0)
(1.13197e-05 -2.75441e-07 0)
(1.15567e-05 -1.80895e-07 0)
(6.03715e-06 -1.34826e-06 0)
(6.37467e-06 -1.2669e-06 0)
(6.70698e-06 -1.19613e-06 0)
(7.02613e-06 -1.13751e-06 0)
(7.3372e-06 -1.08691e-06 0)
(7.63972e-06 -1.04222e-06 0)
(7.9354e-06 -1.00141e-06 0)
(8.22493e-06 -9.62821e-07 0)
(8.50926e-06 -9.25055e-07 0)
(8.78904e-06 -8.86871e-07 0)
(9.06486e-06 -8.47166e-07 0)
(9.33708e-06 -8.04908e-07 0)
(9.6061e-06 -7.59097e-07 0)
(9.87218e-06 -7.08717e-07 0)
(1.01355e-05 -6.52639e-07 0)
(1.03961e-05 -5.89689e-07 0)
(1.06542e-05 -5.18442e-07 0)
(1.09093e-05 -4.37445e-07 0)
(1.11624e-05 -3.44509e-07 0)
(1.14114e-05 -2.38518e-07 0)
(5.49096e-06 -1.63848e-06 0)
(5.86413e-06 -1.52867e-06 0)
(6.2288e-06 -1.43572e-06 0)
(6.58003e-06 -1.35676e-06 0)
(6.92042e-06 -1.28917e-06 0)
(7.2505e-06 -1.22988e-06 0)
(7.57151e-06 -1.17664e-06 0)
(7.88444e-06 -1.12734e-06 0)
(8.19033e-06 -1.0802e-06 0)
(8.49004e-06 -1.03365e-06 0)
(8.78429e-06 -9.86293e-07 0)
(9.07364e-06 -9.36852e-07 0)
(9.35865e-06 -8.84105e-07 0)
(9.63973e-06 -8.26829e-07 0)
(9.91719e-06 -7.63704e-07 0)
(1.01913e-05 -6.93377e-07 0)
(1.04623e-05 -6.14219e-07 0)
(1.073e-05 -5.24588e-07 0)
(1.09953e-05 -4.22051e-07 0)
(1.12569e-05 -3.05311e-07 0)
(5.08472e-06 -1.91658e-06 0)
(5.48301e-06 -1.78298e-06 0)
(5.8673e-06 -1.67343e-06 0)
(6.238e-06 -1.57847e-06 0)
(6.59651e-06 -1.49612e-06 0)
(6.94383e-06 -1.42332e-06 0)
(7.2811e-06 -1.35771e-06 0)
(7.60931e-06 -1.29712e-06 0)
(7.92948e-06 -1.23965e-06 0)
(8.24247e-06 -1.1836e-06 0)
(8.54903e-06 -1.12743e-06 0)
(8.84977e-06 -1.06971e-06 0)
(9.14533e-06 -1.00909e-06 0)
(9.43622e-06 -9.44213e-07 0)
(9.7228e-06 -8.73636e-07 0)
(1.00055e-05 -7.95901e-07 0)
(1.02846e-05 -7.09288e-07 0)
(1.05603e-05 -6.12085e-07 0)
(1.08334e-05 -5.01805e-07 0)
(1.11031e-05 -3.7709e-07 0)
(4.85245e-06 -2.14172e-06 0)
(5.25304e-06 -2.00265e-06 0)
(5.64072e-06 -1.88366e-06 0)
(6.01654e-06 -1.77876e-06 0)
(6.38086e-06 -1.68608e-06 0)
(6.73437e-06 -1.60301e-06 0)
(7.07792e-06 -1.52735e-06 0)
(7.4123e-06 -1.45706e-06 0)
(7.73838e-06 -1.39029e-06 0)
(8.05692e-06 -1.32538e-06 0)
(8.36859e-06 -1.26079e-06 0)
(8.674e-06 -1.19507e-06 0)
(8.9738e-06 -1.12683e-06 0)
(9.2685e-06 -1.05469e-06 0)
(9.5585e-06 -9.772e-07 0)
(9.8443e-06 -8.92899e-07 0)
(1.01263e-05 -8.00092e-07 0)
(1.04048e-05 -6.97124e-07 0)
(1.06807e-05 -5.8162e-07 0)
(1.09535e-05 -4.52253e-07 0)
(4.65384e-06 -2.35796e-06 0)
(5.05029e-06 -2.21567e-06 0)
(5.43718e-06 -2.09054e-06 0)
(5.81376e-06 -1.97797e-06 0)
(6.18025e-06 -1.87668e-06 0)
(6.53675e-06 -1.78459e-06 0)
(6.88386e-06 -1.69976e-06 0)
(7.22208e-06 -1.62038e-06 0)
(7.55208e-06 -1.54473e-06 0)
(7.87449e-06 -1.47123e-06 0)
(8.18989e-06 -1.39838e-06 0)
(8.49881e-06 -1.32476e-06 0)
(8.80192e-06 -1.24899e-06 0)
(9.09968e-06 -1.16969e-06 0)
(9.39252e-06 -1.08544e-06 0)
(9.681e-06 -9.94802e-07 0)
(9.96556e-06 -8.96156e-07 0)
(1.02466e-05 -7.87922e-07 0)
(1.0525e-05 -6.67856e-07 0)
(1.08007e-05 -5.34698e-07 0)
(4.47869e-06 -2.56589e-06 0)
(4.86925e-06 -2.42201e-06 0)
(5.25269e-06 -2.29239e-06 0)
(5.62734e-06 -2.17366e-06 0)
(5.99339e-06 -2.06506e-06 0)
(6.35048e-06 -1.965e-06 0)
(6.69897e-06 -1.87188e-06 0)
(7.03908e-06 -1.78412e-06 0)
(7.37132e-06 -1.70017e-06 0)
(7.69615e-06 -1.61855e-06 0)
(8.01403e-06 -1.53785e-06 0)
(8.32545e-06 -1.45668e-06 0)
(8.631e-06 -1.37372e-06 0)
(8.93113e-06 -1.28762e-06 0)
(9.22625e-06 -1.197e-06 0)
(9.51697e-06 -1.1005e-06 0)
(9.80372e-06 -9.96557e-07 0)
(1.0087e-05 -8.83702e-07 0)
(1.03678e-05 -7.59836e-07 0)
(1.06462e-05 -6.23846e-07 0)
(4.32413e-06 -2.7651e-06 0)
(4.70732e-06 -2.62072e-06 0)
(5.0854e-06 -2.48814e-06 0)
(5.45615e-06 -2.36477e-06 0)
(5.81972e-06 -2.25025e-06 0)
(6.17545e-06 -2.14344e-06 0)
(6.5235e-06 -2.04305e-06 0)
(6.86384e-06 -1.94776e-06 0)
(7.19681e-06 -1.8562e-06 0)
(7.52275e-06 -1.76704e-06 0)
(7.84201e-06 -1.67896e-06 0)
(8.15495e-06 -1.59067e-06 0)
(8.46215e-06 -1.50091e-06 0)
(8.76398e-06 -1.4084e-06 0)
(9.06086e-06 -1.31182e-06 0)
(9.35339e-06 -1.20987e-06 0)
(9.642e-06 -1.10112e-06 0)
(9.9273e-06 -9.84188e-07 0)
(1.02101e-05 -8.57174e-07 0)
(1.0491e-05 -7.19208e-07 0)
(4.18647e-06 -2.95567e-06 0)
(4.56152e-06 -2.8117e-06 0)
(4.9331e-06 -2.67723e-06 0)
(5.29859e-06 -2.55037e-06 0)
(5.65821e-06 -2.43109e-06 0)
(6.01109e-06 -2.31859e-06 0)
(6.35723e-06 -2.21191e-06 0)
(6.69642e-06 -2.10995e-06 0)
(7.02887e-06 -2.01153e-06 0)
(7.3548e-06 -1.9155e-06 0)
(7.67442e-06 -1.82064e-06 0)
(7.98805e-06 -1.72577e-06 0)
(8.29618e-06 -1.62971e-06 0)
(8.59911e-06 -1.53128e-06 0)
(8.89725e-06 -1.42922e-06 0)
(9.19117e-06 -1.32233e-06 0)
(9.48131e-06 -1.20929e-06 0)
(9.76831e-06 -1.08885e-06 0)
(1.0053e-05 -9.59362e-07 0)
(1.03361e-05 -8.20184e-07 0)
(4.0629e-06 -3.13788e-06 0)
(4.42937e-06 -2.99494e-06 0)
(4.79369e-06 -2.85945e-06 0)
(5.15301e-06 -2.73009e-06 0)
(5.50763e-06 -2.60709e-06 0)
(5.85656e-06 -2.48992e-06 0)
(6.19968e-06 -2.37789e-06 0)
(6.53663e-06 -2.27012e-06 0)
(6.86754e-06 -2.16563e-06 0)
(7.19252e-06 -2.06342e-06 0)
(7.51168e-06 -1.96242e-06 0)
(7.82525e-06 -1.86155e-06 0)
(8.13367e-06 -1.75975e-06 0)
(8.43714e-06 -1.65589e-06 0)
(8.73609e-06 -1.54885e-06 0)
(9.03102e-06 -1.43751e-06 0)
(9.32236e-06 -1.32068e-06 0)
(9.6108e-06 -1.19726e-06 0)
(9.89709e-06 -1.06592e-06 0)
(1.01821e-05 -9.26087e-07 0)
(3.95085e-06 -3.31212e-06 0)
(4.30862e-06 -3.17063e-06 0)
(4.66523e-06 -3.03478e-06 0)
(5.01782e-06 -2.90373e-06 0)
(5.36674e-06 -2.77787e-06 0)
(5.71092e-06 -2.65691e-06 0)
(6.05017e-06 -2.54038e-06 0)
(6.38407e-06 -2.42761e-06 0)
(6.71264e-06 -2.31781e-06 0)
(7.03591e-06 -2.21014e-06 0)
(7.35391e-06 -2.10365e-06 0)
(7.6668e-06 -1.99741e-06 0)
(7.97495e-06 -1.89042e-06 0)
(8.27849e-06 -1.78169e-06 0)
(8.57783e-06 -1.67018e-06 0)
(8.87342e-06 -1.55488e-06 0)
(9.16568e-06 -1.43477e-06 0)
(9.4553e-06 -1.30892e-06 0)
(9.74295e-06 -1.17624e-06 0)
(1.00295e-05 -1.03616e-06 0)
(3.84805e-06 -3.47889e-06 0)
(4.19717e-06 -3.33912e-06 0)
(4.54589e-06 -3.20341e-06 0)
(4.89146e-06 -3.07129e-06 0)
(5.23422e-06 -2.94329e-06 0)
(5.57311e-06 -2.81929e-06 0)
(5.90792e-06 -2.69903e-06 0)
(6.23814e-06 -2.58202e-06 0)
(6.56377e-06 -2.46764e-06 0)
(6.88475e-06 -2.35521e-06 0)
(7.20104e-06 -2.24391e-06 0)
(7.51274e-06 -2.13291e-06 0)
(7.82015e-06 -2.02133e-06 0)
(8.12336e-06 -1.90826e-06 0)
(8.42274e-06 -1.7928e-06 0)
(8.71869e-06 -1.67406e-06 0)
(9.0116e-06 -1.55117e-06 0)
(9.30216e-06 -1.42336e-06 0)
(9.59092e-06 -1.28971e-06 0)
(9.87887e-06 -1.14978e-06 0)
(3.75246e-06 -3.63875e-06 0)
(4.09312e-06 -3.50085e-06 0)
(4.43395e-06 -3.3656e-06 0)
(4.77238e-06 -3.23288e-06 0)
(5.10874e-06 -3.1033e-06 0)
(5.44203e-06 -2.9769e-06 0)
(5.77201e-06 -2.8536e-06 0)
(6.09816e-06 -2.73306e-06 0)
(6.42041e-06 -2.6148e-06 0)
(6.73867e-06 -2.49829e-06 0)
(7.05283e-06 -2.38283e-06 0)
(7.36294e-06 -2.26769e-06 0)
(7.66925e-06 -2.15211e-06 0)
(7.9718e-06 -2.03526e-06 0)
(8.27092e-06 -1.91637e-06 0)
(8.56699e-06 -1.79469e-06 0)
(8.86033e-06 -1.66949e-06 0)
(9.15159e-06 -1.54012e-06 0)
(9.44125e-06 -1.4058e-06 0)
(9.7303e-06 -1.26637e-06 0)
(3.6623e-06 -3.79229e-06 0)
(3.99474e-06 -3.65628e-06 0)
(4.3278e-06 -3.5217e-06 0)
(4.65911e-06 -3.38872e-06 0)
(4.989e-06 -3.25804e-06 0)
(5.31654e-06 -3.1298e-06 0)
(5.64149e-06 -3.00407e-06 0)
(5.96331e-06 -2.88064e-06 0)
(6.28192e-06 -2.75917e-06 0)
(6.59716e-06 -2.63922e-06 0)
(6.9089e-06 -2.52021e-06 0)
(7.21714e-06 -2.40152e-06 0)
(7.52207e-06 -2.28248e-06 0)
(7.82371e-06 -2.16239e-06 0)
(8.12235e-06 -2.04058e-06 0)
(8.41833e-06 -1.91643e-06 0)
(8.71189e-06 -1.78933e-06 0)
(9.00366e-06 -1.65871e-06 0)
(9.29403e-06 -1.52403e-06 0)
(9.58395e-06 -1.38529e-06 0)
(3.57596e-06 -3.94003e-06 0)
(3.90047e-06 -3.80583e-06 0)
(4.22594e-06 -3.67206e-06 0)
(4.55026e-06 -3.53909e-06 0)
(4.87374e-06 -3.4077e-06 0)
(5.19553e-06 -3.2781e-06 0)
(5.51538e-06 -3.15048e-06 0)
(5.83277e-06 -3.02474e-06 0)
(6.14758e-06 -2.90064e-06 0)
(6.45965e-06 -2.77783e-06 0)
(6.76877e-06 -2.65585e-06 0)
(7.07495e-06 -2.53416e-06 0)
(7.37833e-06 -2.41221e-06 0)
(7.6789e-06 -2.28939e-06 0)
(7.97689e-06 -2.16516e-06 0)
(8.27261e-06 -2.03897e-06 0)
(8.56624e-06 -1.91031e-06 0)
(8.85833e-06 -1.77874e-06 0)
(9.14923e-06 -1.644e-06 0)
(9.43983e-06 -1.50601e-06 0)
(3.49195e-06 -4.08243e-06 0)
(3.80885e-06 -3.94993e-06 0)
(4.12699e-06 -3.81706e-06 0)
(4.44453e-06 -3.68433e-06 0)
(4.76175e-06 -3.55254e-06 0)
(5.0779e-06 -3.42199e-06 0)
(5.3927e-06 -3.29294e-06 0)
(5.70566e-06 -3.16537e-06 0)
(6.01665e-06 -3.03919e-06 0)
(6.32547e-06 -2.91407e-06 0)
(6.63191e-06 -2.78967e-06 0)
(6.93594e-06 -2.66553e-06 0)
(7.23768e-06 -2.54119e-06 0)
(7.53707e-06 -2.41615e-06 0)
(7.83432e-06 -2.28992e-06 0)
(8.12965e-06 -2.16207e-06 0)
(8.42319e-06 -2.03217e-06 0)
(8.71549e-06 -1.89995e-06 0)
(9.00677e-06 -1.76529e-06 0)
(9.29786e-06 -1.62812e-06 0)
(3.40888e-06 -4.21991e-06 0)
(3.71849e-06 -4.08905e-06 0)
(4.02961e-06 -3.9571e-06 0)
(4.34066e-06 -3.82475e-06 0)
(4.65185e-06 -3.69282e-06 0)
(4.96254e-06 -3.56166e-06 0)
(5.27246e-06 -3.43162e-06 0)
(5.58111e-06 -3.3027e-06 0)
(5.88833e-06 -3.17491e-06 0)
(6.19395e-06 -3.04801e-06 0)
(6.49772e-06 -2.92168e-06 0)
(6.79961e-06 -2.79558e-06 0)
(7.0997e-06 -2.66933e-06 0)
(7.39788e-06 -2.54249e-06 0)
(7.69431e-06 -2.41467e-06 0)
(7.98916e-06 -2.28549e-06 0)
(8.28254e-06 -2.15464e-06 0)
(8.57493e-06 -2.02203e-06 0)
(8.86648e-06 -1.88749e-06 0)
(9.15791e-06 -1.75115e-06 0)
(3.32537e-06 -4.35294e-06 0)
(3.62807e-06 -4.22358e-06 0)
(3.93253e-06 -4.09258e-06 0)
(4.2374e-06 -3.96075e-06 0)
(4.54288e-06 -3.8289e-06 0)
(4.84841e-06 -3.69746e-06 0)
(5.15368e-06 -3.56678e-06 0)
(5.45821e-06 -3.43693e-06 0)
(5.76186e-06 -3.30794e-06 0)
(6.06441e-06 -3.17967e-06 0)
(6.36564e-06 -3.0519e-06 0)
(6.66548e-06 -2.92432e-06 0)
(6.96396e-06 -2.7966e-06 0)
(7.26092e-06 -2.66838e-06 0)
(7.55649e-06 -2.53931e-06 0)
(7.85084e-06 -2.40912e-06 0)
(8.14402e-06 -2.27763e-06 0)
(8.43643e-06 -2.14475e-06 0)
(8.72814e-06 -2.01038e-06 0)
(9.01975e-06 -1.87478e-06 0)
(3.24017e-06 -4.48185e-06 0)
(3.53628e-06 -4.35401e-06 0)
(3.8344e-06 -4.22384e-06 0)
(4.13354e-06 -4.09263e-06 0)
(4.43373e-06 -3.9611e-06 0)
(4.73447e-06 -3.82965e-06 0)
(5.03542e-06 -3.69865e-06 0)
(5.33614e-06 -3.56824e-06 0)
(5.63646e-06 -3.43847e-06 0)
(5.93621e-06 -3.30926e-06 0)
(6.2351e-06 -3.18044e-06 0)
(6.53303e-06 -3.05178e-06 0)
(6.82997e-06 -2.92298e-06 0)
(7.12576e-06 -2.79372e-06 0)
(7.42052e-06 -2.66374e-06 0)
(7.71438e-06 -2.53284e-06 0)
(8.00734e-06 -2.4009e-06 0)
(8.29968e-06 -2.26779e-06 0)
(8.59143e-06 -2.13366e-06 0)
(8.88311e-06 -1.99872e-06 0)
(3.15194e-06 -4.60709e-06 0)
(3.44162e-06 -4.48032e-06 0)
(3.73371e-06 -4.35131e-06 0)
(4.02782e-06 -4.22099e-06 0)
(4.32318e-06 -4.08992e-06 0)
(4.61964e-06 -3.95867e-06 0)
(4.91671e-06 -3.82762e-06 0)
(5.21405e-06 -3.69696e-06 0)
(5.51145e-06 -3.56676e-06 0)
(5.80873e-06 -3.43699e-06 0)
(6.10554e-06 -3.30752e-06 0)
(6.40173e-06 -3.17812e-06 0)
(6.69727e-06 -3.04855e-06 0)
(6.99201e-06 -2.91858e-06 0)
(7.28606e-06 -2.78799e-06 0)
(7.57947e-06 -2.65661e-06 0)
(7.87212e-06 -2.52434e-06 0)
(8.16425e-06 -2.39108e-06 0)
(8.45601e-06 -2.25717e-06 0)
(8.74789e-06 -2.12275e-06 0)
(3.05857e-06 -4.72852e-06 0)
(3.3428e-06 -4.60303e-06 0)
(3.62993e-06 -4.47542e-06 0)
(3.91916e-06 -4.34601e-06 0)
(4.21029e-06 -4.21564e-06 0)
(4.50295e-06 -4.08483e-06 0)
(4.79673e-06 -3.954e-06 0)
(5.09124e-06 -3.82338e-06 0)
(5.38623e-06 -3.69308e-06 0)
(5.68143e-06 -3.56306e-06 0)
(5.97644e-06 -3.43322e-06 0)
(6.27112e-06 -3.3034e-06 0)
(6.56552e-06 -3.1734e-06 0)
(6.85944e-06 -3.04299e-06 0)
(7.15281e-06 -2.91201e-06 0)
(7.4456e-06 -2.78032e-06 0)
(7.73791e-06 -2.64779e-06 0)
(8.03004e-06 -2.51454e-06 0)
(8.32174e-06 -2.38076e-06 0)
(8.61336e-06 -2.24672e-06 0)
(2.95884e-06 -4.84751e-06 0)
(3.23807e-06 -4.72354e-06 0)
(3.52067e-06 -4.59699e-06 0)
(3.80589e-06 -4.46858e-06 0)
(4.09355e-06 -4.33904e-06 0)
(4.38325e-06 -4.20888e-06 0)
(4.67456e-06 -4.07851e-06 0)
(4.96697e-06 -3.94816e-06 0)
(5.2601e-06 -3.81795e-06 0)
(5.55365e-06 -3.68791e-06 0)
(5.84733e-06 -3.55796e-06 0)
(6.14103e-06 -3.42795e-06 0)
(6.43454e-06 -3.29771e-06 0)
(6.72754e-06 -3.16706e-06 0)
(7.02023e-06 -3.03584e-06 0)
(7.31268e-06 -2.90394e-06 0)
(7.60466e-06 -2.77128e-06 0)
(7.8965e-06 -2.63802e-06 0)
(8.18812e-06 -2.5043e-06 0)
(8.47968e-06 -2.3705e-06 0)
(2.85142e-06 -4.96301e-06 0)
(3.12624e-06 -4.84076e-06 0)
(3.40502e-06 -4.71578e-06 0)
(3.68712e-06 -4.58868e-06 0)
(3.9723e-06 -4.46026e-06 0)
(4.26005e-06 -4.33102e-06 0)
(4.54971e-06 -4.20133e-06 0)
(4.84065e-06 -4.07148e-06 0)
(5.13262e-06 -3.9416e-06 0)
(5.42535e-06 -3.81175e-06 0)
(5.71826e-06 -3.68186e-06 0)
(6.01108e-06 -3.55183e-06 0)
(6.30386e-06 -3.4215e-06 0)
(6.59632e-06 -3.29073e-06 0)
(6.8884e-06 -3.1594e-06 0)
(7.18031e-06 -3.02738e-06 0)
(7.47193e-06 -2.89474e-06 0)
(7.76346e-06 -2.7614e-06 0)
(8.05495e-06 -2.62772e-06 0)
(8.34626e-06 -2.49395e-06 0)
(2.1079e-07 -4.27076e-06 0)
(6.35214e-07 -4.20819e-06 0)
(1.06823e-06 -4.08528e-06 0)
(1.5146e-06 -3.90728e-06 0)
(1.97829e-06 -3.68075e-06 0)
(2.46183e-06 -3.41435e-06 0)
(2.96617e-06 -3.1177e-06 0)
(3.49049e-06 -2.80097e-06 0)
(4.03282e-06 -2.47443e-06 0)
(4.58918e-06 -2.14635e-06 0)
(2.05145e-07 -4.34037e-06 0)
(6.17815e-07 -4.28329e-06 0)
(1.03762e-06 -4.17098e-06 0)
(1.46852e-06 -4.00803e-06 0)
(1.91384e-06 -3.79995e-06 0)
(2.37576e-06 -3.55408e-06 0)
(2.85505e-06 -3.27866e-06 0)
(3.35097e-06 -2.98242e-06 0)
(3.86073e-06 -2.67486e-06 0)
(4.3817e-06 -2.3625e-06 0)
(2.00136e-07 -4.41198e-06 0)
(6.02343e-07 -4.35989e-06 0)
(1.01029e-06 -4.25719e-06 0)
(1.42719e-06 -4.108e-06 0)
(1.85576e-06 -3.91702e-06 0)
(2.29783e-06 -3.69056e-06 0)
(2.75412e-06 -3.4357e-06 0)
(3.22456e-06 -3.15974e-06 0)
(3.70697e-06 -2.87105e-06 0)
(4.19995e-06 -2.57343e-06 0)
(1.95609e-07 -4.48562e-06 0)
(5.88458e-07 -4.43776e-06 0)
(9.86006e-07 -4.34324e-06 0)
(1.3909e-06 -4.20575e-06 0)
(1.80538e-06 -4.02941e-06 0)
(2.23088e-06 -3.81966e-06 0)
(2.66793e-06 -3.58288e-06 0)
(3.11645e-06 -3.32538e-06 0)
(3.57458e-06 -3.05506e-06 0)
(4.04111e-06 -2.77458e-06 0)
(1.91407e-07 -4.56117e-06 0)
(5.75537e-07 -4.51706e-06 0)
(9.63539e-07 -4.42984e-06 0)
(1.35754e-06 -4.30283e-06 0)
(1.75939e-06 -4.13972e-06 0)
(2.17025e-06 -3.94526e-06 0)
(2.59059e-06 -3.72513e-06 0)
(3.02035e-06 -3.48476e-06 0)
(3.45818e-06 -3.23127e-06 0)
(3.90204e-06 -2.96702e-06 0)
(1.87491e-07 -4.63849e-06 0)
(5.63492e-07 -4.59762e-06 0)
(9.42732e-07 -4.51676e-06 0)
(1.32691e-06 -4.39886e-06 0)
(1.71756e-06 -4.24732e-06 0)
(2.11562e-06 -4.06635e-06 0)
(2.52141e-06 -3.86111e-06 0)
(2.93471e-06 -3.63647e-06 0)
(3.35481e-06 -3.3988e-06 0)
(3.77893e-06 -3.15054e-06 0)
(1.83701e-07 -4.71745e-06 0)
(5.51962e-07 -4.67944e-06 0)
(9.22922e-07 -4.60428e-06 0)
(1.29797e-06 -4.49449e-06 0)
(1.67843e-06 -4.35331e-06 0)
(2.06502e-06 -4.18449e-06 0)
(2.45804e-06 -3.99272e-06 0)
(2.85704e-06 -3.78236e-06 0)
(3.26182e-06 -3.55906e-06 0)
(3.66898e-06 -3.32565e-06 0)
(1.8002e-07 -4.79786e-06 0)
(5.40823e-07 -4.76235e-06 0)
(9.03882e-07 -4.69222e-06 0)
(1.27038e-06 -4.58961e-06 0)
(1.64149e-06 -4.45762e-06 0)
(2.01768e-06 -4.29966e-06 0)
(2.39928e-06 -4.11998e-06 0)
(2.78563e-06 -3.92262e-06 0)
(3.17694e-06 -3.71252e-06 0)
(3.56953e-06 -3.49287e-06 0)
(1.76428e-07 -4.87958e-06 0)
(5.29886e-07 -4.84628e-06 0)
(8.85264e-07 -4.78064e-06 0)
(1.24361e-06 -4.68447e-06 0)
(1.60593e-06 -4.56071e-06 0)
(1.97259e-06 -4.41251e-06 0)
(2.34388e-06 -4.24372e-06 0)
(2.71898e-06 -4.05807e-06 0)
(3.09839e-06 -3.85998e-06 0)
(3.47833e-06 -3.6529e-06 0)
(1.72859e-07 -4.96238e-06 0)
(5.19005e-07 -4.93103e-06 0)
(8.66846e-07 -4.8694e-06 0)
(1.21734e-06 -4.77901e-06 0)
(1.5713e-06 -4.66264e-06 0)
(1.92905e-06 -4.5232e-06 0)
(2.29086e-06 -4.3642e-06 0)
(2.65583e-06 -4.18918e-06 0)
(3.02456e-06 -4.00206e-06 0)
(3.39343e-06 -3.80641e-06 0)
(1.69226e-07 -5.04606e-06 0)
(5.08037e-07 -5.01645e-06 0)
(8.48399e-07 -4.95842e-06 0)
(1.19117e-06 -4.87327e-06 0)
(1.53706e-06 -4.76357e-06 0)
(1.88637e-06 -4.63201e-06 0)
(2.23933e-06 -4.48187e-06 0)
(2.59503e-06 -4.31649e-06 0)
(2.95407e-06 -4.13933e-06 0)
(3.31312e-06 -3.95402e-06 0)
(1.65507e-07 -5.13034e-06 0)
(4.96904e-07 -5.10233e-06 0)
(8.29748e-07 -5.04756e-06 0)
(1.16481e-06 -4.96715e-06 0)
(1.50279e-06 -4.86349e-06 0)
(1.84392e-06 -4.73908e-06 0)
(2.18848e-06 -4.59697e-06 0)
(2.53554e-06 -4.44033e-06 0)
(2.88567e-06 -4.27221e-06 0)
(3.23589e-06 -4.09622e-06 0)
(1.61697e-07 -5.21501e-06 0)
(4.85502e-07 -5.18849e-06 0)
(8.10672e-07 -5.13669e-06 0)
(1.13794e-06 -5.0606e-06 0)
(1.46801e-06 -4.96242e-06 0)
(1.80114e-06 -4.84451e-06 0)
(2.13756e-06 -4.70971e-06 0)
(2.47643e-06 -4.56098e-06 0)
(2.81823e-06 -4.40107e-06 0)
(3.16036e-06 -4.23356e-06 0)
(1.57764e-07 -5.2998e-06 0)
(4.73679e-07 -5.27467e-06 0)
(7.90916e-07 -5.22556e-06 0)
(1.1102e-06 -5.15342e-06 0)
(1.43229e-06 -5.06026e-06 0)
(1.75742e-06 -4.94831e-06 0)
(2.08584e-06 -4.82018e-06 0)
(2.41678e-06 -4.67865e-06 0)
(2.75066e-06 -4.52627e-06 0)
(3.08525e-06 -4.36644e-06 0)
(1.53632e-07 -5.38448e-06 0)
(4.6125e-07 -5.36064e-06 0)
(7.702e-07 -5.31401e-06 0)
(1.08123e-06 -5.24553e-06 0)
(1.39512e-06 -5.157e-06 0)
(1.71213e-06 -5.05054e-06 0)
(2.03252e-06 -4.92852e-06 0)
(2.35566e-06 -4.79357e-06 0)
(2.68188e-06 -4.64811e-06 0)
(3.00929e-06 -4.49525e-06 0)
(1.4923e-07 -5.4686e-06 0)
(4.48044e-07 -5.44598e-06 0)
(7.48251e-07 -5.40166e-06 0)
(1.05063e-06 -5.33658e-06 0)
(1.35598e-06 -5.25234e-06 0)
(1.66462e-06 -5.15095e-06 0)
(1.97684e-06 -5.03458e-06 0)
(2.29216e-06 -4.90575e-06 0)
(2.61082e-06 -4.76667e-06 0)
(2.93125e-06 -4.6202e-06 0)
(1.44496e-07 -5.55204e-06 0)
(4.33884e-07 -5.5306e-06 0)
(7.24755e-07 -5.48844e-06 0)
(1.01794e-06 -5.42652e-06 0)
(1.31426e-06 -5.34633e-06 0)
(1.61413e-06 -5.24969e-06 0)
(1.9179e-06 -5.13863e-06 0)
(2.2252e-06 -5.01554e-06 0)
(2.53625e-06 -4.88233e-06 0)
(2.84971e-06 -4.74182e-06 0)
(1.39379e-07 -5.63386e-06 0)
(4.1859e-07 -5.61353e-06 0)
(6.99391e-07 -5.57343e-06 0)
(9.82685e-07 -5.51455e-06 0)
(1.26935e-06 -5.43818e-06 0)
(1.55991e-06 -5.34607e-06 0)
(1.85477e-06 -5.24008e-06 0)
(2.15369e-06 -5.12241e-06 0)
(2.45683e-06 -4.99479e-06 0)
(2.76324e-06 -4.85987e-06 0)
(1.33787e-07 -5.71451e-06 0)
(4.01867e-07 -5.69525e-06 0)
(6.71654e-07 -5.65717e-06 0)
(9.44157e-07 -5.60119e-06 0)
(1.22034e-06 -5.52854e-06 0)
(1.50084e-06 -5.4408e-06 0)
(1.78611e-06 -5.33971e-06 0)
(2.0761e-06 -5.2272e-06 0)
(2.37093e-06 -5.10501e-06 0)
(2.67002e-06 -4.97541e-06 0)
(1.27673e-07 -5.79146e-06 0)
(3.83575e-07 -5.77321e-06 0)
(6.41302e-07 -5.73714e-06 0)
(9.0201e-07 -5.68406e-06 0)
(1.16677e-06 -5.61511e-06 0)
(1.43631e-06 -5.53175e-06 0)
(1.71119e-06 -5.43554e-06 0)
(1.99149e-06 -5.32824e-06 0)
(2.2775e-06 -5.21148e-06 0)
(2.56889e-06 -5.08728e-06 0)
)


// ************************************************************************* //
