/*--------------------------------*- C++ -*----------------------------------*\
| =========                 |                                                 |
| \\      /  F ield         | foam-extend: Open Source CFD                    |
|  \\    /   O peration     | Version:     4.1                                |
|   \\  /    A nd           | Web:         http://www.foam-extend.org         |
|    \\/     M anipulation  |                                                 |
\*---------------------------------------------------------------------------*/
FoamFile
{
    version     2.0;
    format      ascii;
    class       volScalarField;
    location    "6";
    object      epsilonEq;
}
// * * * * * * * * * * * * * * * * * * * * * * * * * * * * * * * * * * * * * //

dimensions      [0 0 0 0 0 0 0];

internalField   nonuniform List<scalar> 
100000
(
7.59818e-05
5.64593e-05
4.81815e-05
6.55214e-05
8.3241e-05
8.948e-06
0.000198977
0.000244126
9.75844e-05
8.91411e-05
7.60226e-05
7.12896e-05
9.35253e-05
0.000109694
0.000117575
0.000124326
0.000120073
0.000112003
9.8652e-05
8.80688e-05
8.47252e-05
8.81655e-05
9.09224e-05
9.31724e-05
9.80747e-05
0.000103033
0.000106716
0.000111382
0.000103546
9.20469e-05
8.14636e-05
7.16835e-05
6.22375e-05
5.33218e-05
4.1606e-05
3.36553e-05
2.73933e-05
2.10841e-05
1.55495e-05
1.09684e-05
8.05832e-06
8.38376e-06
8.7927e-06
9.28829e-06
9.7679e-06
1.02264e-05
1.06606e-05
1.10681e-05
1.14484e-05
1.18003e-05
1.21245e-05
1.24195e-05
1.29851e-05
1.35432e-05
1.41095e-05
1.44124e-05
1.46312e-05
1.48256e-05
1.4995e-05
1.51413e-05
1.52648e-05
1.5378e-05
1.58315e-05
1.57621e-05
1.64183e-05
1.97714e-05
2.32709e-05
2.69015e-05
3.06698e-05
3.4439e-05
3.94201e-05
4.43144e-05
4.83953e-05
5.23066e-05
5.63555e-05
6.07364e-05
6.52783e-05
6.98818e-05
7.45407e-05
7.92507e-05
8.40069e-05
8.48488e-05
8.26066e-05
8.03824e-05
7.81757e-05
7.599e-05
7.38261e-05
7.16843e-05
6.95668e-05
6.75247e-05
6.56229e-05
6.37125e-05
6.18171e-05
5.99955e-05
5.8191e-05
5.64026e-05
5.44815e-05
5.37123e-05
5.47095e-05
5.61122e-05
6.23973e-05
3.84767e-05
6.13111e-05
8.21586e-05
6.90912e-05
1.77343e-05
0.000151181
0.000271337
0.000237049
0.000132128
7.40879e-05
5.27469e-05
3.86199e-05
1.36053e-05
1.55445e-05
2.91315e-05
3.34123e-05
3.69214e-05
3.64507e-05
3.48741e-05
3.87789e-05
4.23488e-05
4.35042e-05
4.31801e-05
3.88966e-05
3.87689e-05
3.95676e-05
4.04342e-05
4.14357e-05
4.45191e-05
4.82086e-05
5.36781e-05
5.6086e-05
6.35309e-05
6.7153e-05
6.05749e-05
5.47922e-05
4.96554e-05
4.48199e-05
3.94751e-05
3.39711e-05
3.32713e-05
3.29774e-05
3.27387e-05
3.25529e-05
3.24157e-05
3.23248e-05
3.22765e-05
3.22699e-05
3.23007e-05
3.2369e-05
3.24701e-05
3.26037e-05
3.30257e-05
3.3519e-05
3.40393e-05
3.45903e-05
3.51633e-05
3.5753e-05
3.63592e-05
3.69805e-05
3.74376e-05
3.78656e-05
3.82302e-05
3.87807e-05
3.97226e-05
4.1975e-05
4.57022e-05
4.95508e-05
5.36999e-05
5.48468e-05
5.35005e-05
5.21475e-05
5.07911e-05
5.01406e-05
4.97488e-05
4.8762e-05
4.77938e-05
4.68443e-05
4.59134e-05
4.49995e-05
4.41031e-05
4.3225e-05
4.23643e-05
4.15203e-05
4.06927e-05
3.98803e-05
3.90832e-05
3.82998e-05
3.75281e-05
3.54516e-05
3.36067e-05
3.19183e-05
3.02262e-05
2.85184e-05
2.69285e-05
2.53674e-05
2.44549e-05
2.39356e-05
2.71256e-05
3.68162e-05
6.894e-05
9.43602e-05
7.57856e-05
0.000104392
3.83131e-05
0.000107255
0.000161131
0.000226751
0.000265125
0.000203339
9.9981e-05
6.97161e-05
8.22461e-05
8.61525e-05
9.06448e-05
8.91367e-05
8.85541e-05
8.56746e-05
8.11233e-05
7.4181e-05
6.4248e-05
5.40173e-05
4.66825e-05
4.29903e-05
3.74613e-05
3.24695e-05
2.79997e-05
2.40464e-05
2.05448e-05
1.75107e-05
1.51495e-05
1.3479e-05
1.25038e-05
1.21642e-05
1.22918e-05
1.49226e-05
2.14368e-05
2.80883e-05
3.43483e-05
3.84131e-05
3.89302e-05
3.93284e-05
3.95764e-05
4.00372e-05
4.04074e-05
4.06839e-05
4.08701e-05
4.09747e-05
4.09984e-05
4.09531e-05
4.08351e-05
4.06556e-05
4.04145e-05
4.01196e-05
4.00222e-05
3.99314e-05
3.97948e-05
3.96117e-05
3.93888e-05
3.91127e-05
3.8412e-05
3.66325e-05
3.53805e-05
3.33271e-05
2.85703e-05
2.43925e-05
2.03782e-05
1.61024e-05
1.25321e-05
1.05946e-05
1.13535e-05
1.31835e-05
1.46622e-05
1.61917e-05
1.73065e-05
1.86591e-05
2.05356e-05
2.24304e-05
2.43341e-05
2.62398e-05
2.81428e-05
3.00404e-05
3.19294e-05
3.38088e-05
3.56762e-05
3.75282e-05
3.93643e-05
4.11834e-05
4.24078e-05
4.38007e-05
4.57284e-05
4.75485e-05
4.93205e-05
5.10906e-05
5.28615e-05
5.45741e-05
5.61627e-05
5.76769e-05
6.07109e-05
5.52347e-05
0.00010106
8.03192e-05
0.00014332
4.38725e-05
0.000156632
0.000133793
3.1629e-05
4.7089e-05
0.000108064
0.000166374
0.000141735
7.14288e-05
7.18872e-05
9.08992e-05
0.000111699
0.00011835
0.000126482
0.00012679
0.000126995
0.000128046
0.000130357
0.00013154
0.000131532
0.000125076
0.000119114
0.000113614
0.000108552
0.0001039
9.96317e-05
9.57274e-05
9.21621e-05
8.89142e-05
8.14258e-05
7.14705e-05
6.222e-05
5.4177e-05
4.72406e-05
4.07194e-05
3.49413e-05
2.93713e-05
2.78497e-05
2.70233e-05
2.64185e-05
2.596e-05
2.55718e-05
2.53101e-05
2.51731e-05
2.49736e-05
2.4805e-05
2.4745e-05
2.47943e-05
2.49421e-05
2.51835e-05
2.55121e-05
2.59887e-05
2.66049e-05
2.72845e-05
2.8025e-05
2.88196e-05
2.96633e-05
3.1869e-05
3.38514e-05
3.54463e-05
3.70603e-05
3.86906e-05
4.21256e-05
4.70619e-05
5.21254e-05
5.73066e-05
6.25917e-05
6.77806e-05
7.32342e-05
7.88724e-05
8.44984e-05
9.01084e-05
9.51053e-05
9.61368e-05
9.71737e-05
9.82137e-05
9.92559e-05
0.0001003
0.000101344
0.000102441
0.000103574
0.000104705
0.00010583
0.00010695
0.000108136
0.000109368
0.000109145
0.000109125
0.000108619
0.000106639
0.000104577
0.000102512
0.000100454
9.78895e-05
9.52674e-05
9.19398e-05
5.3308e-05
9.86895e-05
0.000156311
3.57623e-05
0.000186564
0.000135384
7.45237e-05
7.33235e-05
8.15987e-05
7.58255e-05
8.07701e-05
9.46273e-05
7.06548e-05
2.8254e-05
3.7601e-05
4.33474e-05
5.15389e-05
6.21959e-05
6.69399e-05
6.73286e-05
7.32636e-05
7.88733e-05
8.70193e-05
9.61304e-05
0.000100248
0.000101828
0.000102644
0.00010335
0.000103953
0.00010446
0.000104876
0.000105209
0.000105195
9.90315e-05
9.1627e-05
8.45635e-05
8.10719e-05
8.07984e-05
8.0515e-05
8.02225e-05
7.99228e-05
7.96156e-05
7.92988e-05
7.89768e-05
7.89569e-05
7.90358e-05
7.92029e-05
7.93535e-05
7.94819e-05
7.95785e-05
7.96514e-05
7.9702e-05
7.97374e-05
7.9612e-05
7.93748e-05
7.91313e-05
7.88852e-05
7.86372e-05
7.83849e-05
7.81309e-05
7.86131e-05
7.9792e-05
7.95717e-05
7.93271e-05
7.90815e-05
7.88354e-05
7.85889e-05
7.83424e-05
7.80964e-05
7.78492e-05
7.7602e-05
7.72733e-05
7.91865e-05
8.2566e-05
8.59925e-05
8.8158e-05
8.94987e-05
9.11163e-05
9.26523e-05
9.14753e-05
8.90097e-05
8.70133e-05
8.51711e-05
8.26649e-05
7.86351e-05
7.45986e-05
7.05831e-05
6.65832e-05
6.25921e-05
5.86355e-05
5.47129e-05
5.04739e-05
4.66018e-05
4.28537e-05
3.86618e-05
3.50367e-05
3.19589e-05
3.05274e-05
3.0449e-05
3.75771e-05
6.7709e-05
0.000169091
0.000142813
0.000122063
8.55152e-05
3.59855e-05
4.05718e-05
4.7913e-05
5.2269e-05
4.73932e-05
4.44146e-05
7.93628e-05
9.65704e-05
6.72812e-05
3.39012e-05
2.23901e-05
3.76732e-05
4.76932e-05
4.90987e-05
4.83394e-05
4.77223e-05
4.12098e-05
3.67017e-05
3.05818e-05
2.67428e-05
3.18481e-05
3.84427e-05
4.2726e-05
4.59596e-05
4.89445e-05
5.312e-05
5.7318e-05
6.0403e-05
6.87687e-05
7.17172e-05
7.18007e-05
7.18261e-05
7.16023e-05
7.1523e-05
7.15461e-05
7.15494e-05
7.15614e-05
7.15622e-05
7.15447e-05
7.15018e-05
7.14402e-05
7.13694e-05
7.12888e-05
7.1373e-05
7.15239e-05
7.16539e-05
7.17181e-05
7.17324e-05
7.1685e-05
7.15955e-05
7.14161e-05
7.11527e-05
7.08799e-05
7.05944e-05
7.02261e-05
7.08038e-05
7.05762e-05
7.00002e-05
6.94198e-05
6.8837e-05
6.88682e-05
6.94945e-05
6.89732e-05
6.75923e-05
6.60769e-05
6.456e-05
6.30384e-05
5.61077e-05
4.80931e-05
3.9757e-05
3.12932e-05
2.29891e-05
1.86727e-05
1.48285e-05
1.39185e-05
1.38033e-05
1.24176e-05
1.27125e-05
1.55359e-05
1.78038e-05
1.80443e-05
1.84023e-05
1.85664e-05
1.8932e-05
1.94226e-05
2.07522e-05
2.36814e-05
2.74517e-05
3.29513e-05
3.86937e-05
4.63773e-05
5.47074e-05
6.38217e-05
7.32686e-05
9.53894e-05
0.000111515
0.00017878
5.20884e-05
9.02225e-05
9.71473e-05
8.69798e-05
8.16131e-05
6.91455e-05
6.65347e-05
7.58115e-05
7.05853e-05
8.75143e-05
0.000108132
0.000114198
9.06165e-05
7.21365e-05
5.23452e-05
2.42625e-05
1.47927e-05
3.37483e-05
4.79413e-05
6.1533e-05
7.05788e-05
7.12925e-05
6.81115e-05
6.22674e-05
5.26325e-05
4.36194e-05
3.66208e-05
2.916e-05
2.44874e-05
2.06473e-05
1.78207e-05
1.33589e-05
2.39761e-05
3.60186e-05
4.65323e-05
5.59565e-05
6.43069e-05
7.16786e-05
7.2262e-05
7.2094e-05
7.19646e-05
7.18743e-05
7.18188e-05
7.16937e-05
7.14935e-05
7.13312e-05
7.12057e-05
7.1113e-05
7.10554e-05
7.10265e-05
7.10279e-05
7.11966e-05
7.14877e-05
7.15064e-05
7.12083e-05
7.00915e-05
6.87708e-05
6.75073e-05
6.58606e-05
6.42791e-05
6.15228e-05
5.69287e-05
5.24118e-05
4.78567e-05
4.28676e-05
3.79654e-05
3.31057e-05
2.82143e-05
2.32236e-05
1.85048e-05
2.0371e-05
2.0991e-05
2.07174e-05
2.12247e-05
2.153e-05
2.18644e-05
2.21525e-05
5.68646e-06
2.24466e-05
2.8236e-05
3.42871e-05
4.12734e-05
3.79625e-05
3.67935e-05
6.7236e-05
7.38887e-05
7.80216e-05
8.1376e-05
8.47679e-05
8.87239e-05
9.24554e-05
9.5897e-05
9.89775e-05
0.000101809
0.000104184
0.000104709
0.000104528
0.000101673
7.15579e-05
0.000133827
3.79671e-05
0.000123053
0.00011542
0.000112332
0.000110521
0.000131399
0.000156295
0.000162643
0.0001279
0.000128624
0.000130813
0.000146345
0.000161199
0.000153605
0.000143352
0.000130322
0.000117402
9.10363e-05
6.11613e-05
3.08359e-05
2.06051e-05
3.13159e-05
3.87283e-05
4.68302e-05
5.36059e-05
5.19057e-05
4.90772e-05
4.59668e-05
4.15563e-05
3.85102e-05
3.66019e-05
3.44625e-05
2.64007e-05
1.92715e-05
1.64975e-05
1.87145e-05
2.35487e-05
2.71522e-05
3.30568e-05
3.85313e-05
4.32519e-05
4.73326e-05
5.08029e-05
5.36876e-05
5.60206e-05
5.78244e-05
5.91322e-05
5.99629e-05
6.03465e-05
6.03413e-05
5.99651e-05
5.9247e-05
5.93848e-05
5.91816e-05
5.89648e-05
5.87477e-05
5.84852e-05
5.82659e-05
5.71366e-05
5.67835e-05
5.65661e-05
5.63879e-05
5.55122e-05
5.40234e-05
5.1833e-05
4.99662e-05
4.81589e-05
4.53965e-05
3.95455e-05
3.30689e-05
3.20726e-05
3.261e-05
3.30542e-05
3.35154e-05
3.49351e-05
3.77087e-05
4.05606e-05
4.34772e-05
4.41996e-05
4.527e-05
4.53066e-05
4.53379e-05
4.53752e-05
4.50954e-05
4.38997e-05
3.85381e-05
3.48499e-05
3.10383e-05
2.63587e-05
2.02067e-05
1.56128e-05
1.25173e-05
1.14986e-05
1.29887e-05
1.82393e-05
2.38035e-05
2.93209e-05
4.17862e-05
8.80275e-05
0.000130424
0.000109112
4.22523e-05
4.53457e-05
7.03844e-05
0.000107257
0.000158892
0.000188758
0.000162065
0.000154806
0.000156501
0.00015886
0.000173314
0.000185944
0.000195432
0.000198079
0.000200887
0.000203535
0.000201087
0.000193233
0.000184872
0.000172879
0.000153872
0.00013722
0.000122233
0.000108635
9.87391e-05
9.06265e-05
7.98422e-05
7.16696e-05
6.53089e-05
5.96242e-05
5.40174e-05
4.90115e-05
4.4895e-05
4.16823e-05
4.10456e-05
4.07978e-05
4.09181e-05
4.7108e-05
4.74078e-05
4.66792e-05
4.57646e-05
4.46759e-05
4.30353e-05
4.10239e-05
3.88504e-05
3.65306e-05
3.40725e-05
3.14895e-05
2.87944e-05
2.6e-05
2.27458e-05
1.78758e-05
1.31173e-05
8.64464e-06
5.27567e-06
3.98912e-06
6.38423e-06
1.08822e-05
1.58855e-05
1.92687e-05
2.08845e-05
2.26564e-05
2.28078e-05
2.27148e-05
2.30221e-05
2.34705e-05
2.4936e-05
2.6834e-05
2.70085e-05
2.93285e-05
3.32934e-05
3.7241e-05
4.0299e-05
4.29833e-05
4.60756e-05
4.94757e-05
5.28162e-05
5.62056e-05
6.28133e-05
6.92e-05
7.40431e-05
7.90078e-05
8.39394e-05
8.93178e-05
9.21145e-05
9.21099e-05
8.99567e-05
8.7433e-05
8.45273e-05
8.18069e-05
7.90726e-05
7.57736e-05
7.24813e-05
6.90091e-05
6.55706e-05
6.22497e-05
5.84059e-05
8.16366e-05
0.000168171
0.000160167
0.000143889
0.000106506
5.72877e-05
5.01645e-05
5.82196e-05
4.95322e-05
6.50506e-05
7.19517e-05
7.39613e-05
7.89212e-05
8.32891e-05
8.19155e-05
8.55877e-05
8.82202e-05
9.42357e-05
0.000101201
0.00010708
0.000112658
0.000120988
0.000124875
0.000119404
0.000117597
0.000112012
0.000106691
9.62366e-05
8.37863e-05
7.1705e-05
6.03681e-05
4.96684e-05
3.97102e-05
3.03715e-05
2.22357e-05
1.58613e-05
1.40861e-05
1.61027e-05
1.86249e-05
2.27206e-05
2.49927e-05
3.01014e-05
3.54978e-05
4.04803e-05
4.51911e-05
4.96256e-05
5.3732e-05
5.75384e-05
6.10827e-05
6.40302e-05
6.67155e-05
6.91543e-05
7.13915e-05
7.3604e-05
7.6839e-05
7.96431e-05
8.25641e-05
8.55819e-05
8.86731e-05
9.18542e-05
9.47786e-05
9.77252e-05
0.000101001
0.000104339
0.000106996
0.000110174
0.000113949
0.000116965
0.000119146
0.000120267
0.000118251
0.000116225
0.000114191
0.000111385
0.000107716
0.000104164
0.000101506
9.99677e-05
9.84264e-05
9.65657e-05
9.35557e-05
9.05177e-05
8.72401e-05
8.40259e-05
8.09914e-05
7.69988e-05
7.2697e-05
6.84256e-05
6.40728e-05
5.97722e-05
5.54279e-05
5.22929e-05
5.16109e-05
5.09308e-05
5.02493e-05
4.95405e-05
4.8824e-05
4.95223e-05
5.0505e-05
5.10122e-05
7.09923e-05
0.000131319
0.000119178
0.000105333
9.40023e-05
9.48267e-05
9.64106e-05
9.38696e-05
0.000103711
9.15783e-05
7.5384e-05
6.33661e-05
5.18506e-05
4.59756e-05
4.62714e-05
4.67244e-05
4.74675e-05
4.86105e-05
5.3821e-05
5.80621e-05
5.51597e-05
5.21383e-05
4.97254e-05
4.91741e-05
5.00853e-05
5.03521e-05
5.08269e-05
5.39082e-05
5.94416e-05
6.52327e-05
6.9491e-05
7.38179e-05
7.88392e-05
8.41653e-05
8.95472e-05
9.49704e-05
0.00010044
0.000107917
0.000115091
0.000121971
0.000128571
0.000128652
0.000128025
0.000127538
0.000127182
0.00012656
0.000125838
0.00012521
0.000124652
0.000124177
0.000124033
0.000124309
0.000124694
0.00012487
0.000123564
0.000122216
0.000117526
0.000119393
0.000117928
0.000116379
0.000113051
0.000110896
0.000108004
0.000104953
0.000101882
0.000100504
9.91019e-05
9.76458e-05
9.61786e-05
9.38639e-05
9.10554e-05
8.8227e-05
8.52678e-05
8.21941e-05
7.92093e-05
7.68207e-05
7.45004e-05
7.21643e-05
6.97825e-05
6.72843e-05
6.48462e-05
6.2472e-05
6.02739e-05
5.95904e-05
5.89146e-05
5.82977e-05
5.7681e-05
5.70653e-05
5.64258e-05
5.73008e-05
5.82299e-05
5.92375e-05
6.02675e-05
6.11779e-05
6.20118e-05
6.28357e-05
6.36624e-05
6.44933e-05
6.54127e-05
6.6985e-05
1.81696e-05
4.87509e-05
8.66825e-05
9.01603e-05
9.12411e-05
0.000106812
0.000109389
0.000105516
0.000114292
0.000115604
0.00011019
0.000103408
0.000101738
0.00010006
9.57342e-05
9.17014e-05
8.79428e-05
8.44483e-05
8.13058e-05
7.74874e-05
7.33875e-05
7.35775e-05
7.54124e-05
7.53958e-05
7.93425e-05
8.31904e-05
8.68213e-05
9.00467e-05
9.2902e-05
9.58417e-05
9.89098e-05
0.000101578
0.000103917
0.00010594
0.000107084
0.000107544
0.000107876
0.000108089
0.000108185
0.000108177
0.000108065
0.000107861
0.000107568
0.000107191
0.000106737
0.000106208
0.000105611
0.000104949
0.000104227
0.00010381
0.000103394
0.000102931
0.000102404
0.000101848
0.000101257
0.000100312
9.95459e-05
9.87369e-05
9.79016e-05
9.52265e-05
9.25898e-05
9.14198e-05
9.02223e-05
8.908e-05
8.79192e-05
8.62818e-05
8.42175e-05
8.21231e-05
7.99336e-05
7.77032e-05
7.55026e-05
7.32982e-05
7.10742e-05
6.95989e-05
6.89115e-05
6.82762e-05
6.76733e-05
6.69854e-05
6.6295e-05
6.59224e-05
6.67053e-05
6.74911e-05
6.82792e-05
6.9069e-05
6.986e-05
7.06516e-05
7.14439e-05
7.2236e-05
7.30286e-05
7.38038e-05
7.45956e-05
7.52508e-05
7.49511e-05
7.46533e-05
7.43579e-05
7.40819e-05
7.41811e-05
7.42458e-05
7.42814e-05
7.43433e-05
1.03797e-05
1.14255e-05
3.7376e-05
6.57349e-05
8.49313e-05
9.87041e-05
0.000108393
0.000103944
0.000114641
0.000110453
0.000102876
0.000101346
0.000101707
0.000102009
0.000102258
0.000102456
0.000102604
0.000102705
0.000102028
9.75309e-05
9.46084e-05
9.20547e-05
8.9689e-05
8.74997e-05
8.54787e-05
8.43284e-05
8.58693e-05
8.73115e-05
8.81785e-05
8.89245e-05
9.16193e-05
9.41132e-05
9.58136e-05
9.70699e-05
9.81512e-05
9.91265e-05
9.99831e-05
0.000100709
0.000101307
0.000101787
0.000102154
0.000102413
0.000102574
0.000102638
0.000102615
0.000102506
0.000102318
0.000102054
0.000101719
0.000101318
0.000100624
9.95306e-05
9.83458e-05
9.70726e-05
9.56881e-05
9.42463e-05
9.27647e-05
9.11896e-05
8.81064e-05
8.46103e-05
8.28336e-05
8.10159e-05
8.02876e-05
7.96506e-05
7.9005e-05
7.8352e-05
7.76916e-05
7.70247e-05
7.63517e-05
7.65137e-05
7.71588e-05
7.78132e-05
7.84763e-05
7.9147e-05
7.98246e-05
8.05086e-05
8.01752e-05
7.98312e-05
7.94901e-05
7.9152e-05
7.88168e-05
7.84845e-05
7.81551e-05
7.78286e-05
7.75053e-05
7.71854e-05
7.68688e-05
7.65548e-05
7.62464e-05
7.59204e-05
7.56164e-05
7.5312e-05
7.50097e-05
7.49307e-05
7.50097e-05
7.51256e-05
7.52408e-05
7.52949e-05
7.52173e-05
7.24583e-05
1.04184e-05
9.87279e-06
6.11037e-06
2.09742e-05
3.81578e-05
6.00708e-05
9.11504e-05
0.000104543
0.000110592
0.000102838
0.000100794
0.000101316
0.000101669
0.000101978
0.000102232
0.000102436
0.000102589
0.000102655
0.000101127
0.000100574
0.000100589
0.000100571
0.000100522
0.000100443
0.000100543
0.000100711
0.000100835
0.00010071
0.0001005
9.96249e-05
9.83821e-05
9.72501e-05
9.62204e-05
9.52908e-05
9.50267e-05
9.52498e-05
9.54108e-05
9.55185e-05
9.55729e-05
9.55772e-05
9.55365e-05
9.54492e-05
9.53224e-05
9.51554e-05
9.49525e-05
9.47143e-05
9.44434e-05
9.41428e-05
9.38106e-05
9.34541e-05
9.30705e-05
9.26614e-05
9.22334e-05
9.17817e-05
9.13093e-05
9.11544e-05
9.07593e-05
8.92933e-05
8.70213e-05
8.64785e-05
8.60956e-05
8.57133e-05
8.53329e-05
8.49547e-05
8.45781e-05
8.42035e-05
8.38307e-05
8.34602e-05
8.30919e-05
8.27266e-05
8.23635e-05
8.20027e-05
8.16442e-05
8.1288e-05
8.09344e-05
8.05835e-05
8.02353e-05
7.98899e-05
7.95474e-05
7.92081e-05
7.8872e-05
7.85391e-05
7.8209e-05
7.78814e-05
7.75564e-05
7.72344e-05
7.69153e-05
7.57537e-05
7.33576e-05
7.07936e-05
6.68303e-05
6.30216e-05
5.92624e-05
5.55563e-05
5.18371e-05
4.8102e-05
4.4038e-05
3.99908e-05
3.54129e-05
3.09051e-05
1.04517e-05
8.33323e-06
8.30939e-06
9.95766e-06
9.64236e-06
1.48924e-05
3.40624e-05
6.13539e-05
7.06415e-05
8.12184e-05
9.43579e-05
0.000101284
0.000101624
0.000101941
0.0001022
0.000102407
0.000102563
0.000101484
0.000100476
0.000100535
0.000100557
0.000100543
0.000100499
0.000100698
0.000100912
0.000100947
0.00010088
0.000100708
0.000100499
0.000100273
0.000100028
9.97695e-05
9.94941e-05
9.92081e-05
9.89069e-05
9.85965e-05
9.82749e-05
9.79436e-05
9.76058e-05
9.72578e-05
9.69052e-05
9.6545e-05
9.61802e-05
9.58096e-05
9.54352e-05
9.50577e-05
9.46745e-05
9.42911e-05
9.3903e-05
9.3512e-05
9.31223e-05
9.27279e-05
9.2333e-05
9.19397e-05
9.15436e-05
9.11464e-05
9.01193e-05
8.77991e-05
8.69064e-05
8.65217e-05
8.61384e-05
8.57564e-05
8.53759e-05
8.49973e-05
8.46206e-05
8.42458e-05
8.38726e-05
8.35018e-05
8.21145e-05
7.9737e-05
7.736e-05
7.49845e-05
7.26117e-05
7.02427e-05
6.7879e-05
6.55214e-05
6.31706e-05
6.08274e-05
5.84927e-05
5.61674e-05
5.38522e-05
5.11891e-05
4.83773e-05
4.55828e-05
4.28065e-05
4.00497e-05
3.71365e-05
3.41232e-05
3.14481e-05
2.90134e-05
2.57012e-05
2.21227e-05
1.86421e-05
1.50503e-05
1.15151e-05
8.42937e-06
6.44206e-06
6.58402e-06
8.69815e-06
9.64904e-06
1.02622e-05
5.36341e-06
1.02276e-05
9.87981e-06
9.56606e-06
9.27404e-06
1.01471e-05
2.25189e-05
3.65674e-05
4.60738e-05
5.37126e-05
6.13478e-05
7.13671e-05
8.12911e-05
9.03688e-05
9.86525e-05
0.000101848
0.000100324
0.00010042
0.000100484
0.00010051
0.000100501
0.00010079
0.000101053
0.000101053
0.000100921
0.000100867
0.000100684
0.000100477
0.000100253
0.000100009
9.97509e-05
9.94758e-05
9.91894e-05
9.88898e-05
9.85783e-05
9.82583e-05
9.79263e-05
9.75882e-05
9.72408e-05
9.68873e-05
9.65267e-05
9.61613e-05
9.57912e-05
9.54147e-05
9.50378e-05
9.46547e-05
9.42681e-05
9.20451e-05
8.91715e-05
8.62838e-05
8.33846e-05
8.04726e-05
7.75533e-05
7.46298e-05
7.15903e-05
6.75266e-05
6.45114e-05
6.24285e-05
6.0328e-05
5.82126e-05
5.6084e-05
5.39443e-05
5.17946e-05
4.96378e-05
4.74757e-05
4.53104e-05
4.30043e-05
4.06633e-05
3.84544e-05
3.62604e-05
3.40676e-05
3.15262e-05
2.88213e-05
2.61257e-05
2.34416e-05
2.07722e-05
1.81222e-05
1.54981e-05
1.29111e-05
1.04118e-05
8.11428e-06
6.04857e-06
4.54391e-06
4.31874e-06
5.51358e-06
7.31891e-06
8.6181e-06
8.84626e-06
9.35253e-06
9.71916e-06
9.73499e-06
9.73541e-06
9.73538e-06
9.73588e-06
9.73508e-06
9.73573e-06
9.73813e-06
9.72719e-06
9.68449e-06
9.61826e-06
5.39689e-06
1.01418e-05
9.79947e-06
9.49053e-06
8.65252e-06
1.35088e-05
2.51881e-05
3.27035e-05
3.04189e-05
2.89522e-05
2.84635e-05
3.32368e-05
4.04666e-05
4.78326e-05
5.36099e-05
5.75607e-05
6.35673e-05
6.97707e-05
7.5365e-05
8.03845e-05
8.48266e-05
8.87624e-05
9.19355e-05
9.46162e-05
9.59866e-05
9.47567e-05
9.3336e-05
9.17991e-05
9.01556e-05
8.8411e-05
8.65741e-05
8.46516e-05
8.26487e-05
8.05742e-05
7.843e-05
7.62253e-05
7.39626e-05
7.16477e-05
6.92853e-05
6.6879e-05
6.44336e-05
6.1951e-05
5.94403e-05
5.68985e-05
5.43334e-05
5.1749e-05
4.88309e-05
4.58918e-05
4.31599e-05
4.04566e-05
3.77439e-05
3.50231e-05
3.22935e-05
2.95583e-05
2.60652e-05
2.29431e-05
2.10897e-05
1.9221e-05
1.73417e-05
1.54574e-05
1.35737e-05
1.15965e-05
9.28748e-06
7.09233e-06
5.17434e-06
3.97554e-06
4.18157e-06
4.95e-06
5.27867e-06
5.63283e-06
6.05396e-06
6.57371e-06
7.02769e-06
7.43476e-06
7.85074e-06
8.27382e-06
8.70252e-06
9.1356e-06
9.57197e-06
1.00108e-05
1.01211e-05
1.0081e-05
9.97808e-06
9.77658e-06
9.53009e-06
9.29262e-06
9.10283e-06
9.00498e-06
9.2904e-06
9.64877e-06
9.77162e-06
9.77129e-06
9.77046e-06
9.77037e-06
9.76894e-06
9.76889e-06
9.77067e-06
9.75916e-06
9.71608e-06
8.01201e-06
7.77066e-06
1.00546e-05
9.71633e-06
9.20437e-06
7.85683e-06
1.38334e-05
3.24108e-05
3.76493e-05
3.01989e-05
2.87942e-05
2.60513e-05
2.35498e-05
2.25934e-05
2.16189e-05
1.90479e-05
1.83182e-05
2.20448e-05
2.64419e-05
3.08927e-05
3.50701e-05
3.89336e-05
4.21419e-05
4.49642e-05
4.72292e-05
4.68808e-05
4.5396e-05
4.40506e-05
4.26011e-05
4.10548e-05
3.94187e-05
3.76977e-05
3.59017e-05
3.40319e-05
3.2099e-05
3.01049e-05
2.8057e-05
2.59606e-05
2.38207e-05
2.16436e-05
1.94347e-05
1.72057e-05
1.49609e-05
1.27225e-05
1.05156e-05
8.38898e-06
6.46045e-06
4.99933e-06
4.74267e-06
4.72022e-06
4.69837e-06
4.67725e-06
4.55952e-06
4.45425e-06
4.08116e-06
4.24467e-06
4.46439e-06
4.71744e-06
5.00476e-06
5.32113e-06
5.66184e-06
6.03089e-06
6.48465e-06
6.97435e-06
7.37282e-06
7.78104e-06
8.19733e-06
8.62036e-06
9.04892e-06
9.48189e-06
9.91843e-06
1.03579e-05
1.04748e-05
1.04349e-05
1.03948e-05
1.03547e-05
1.03145e-05
1.02742e-05
1.02339e-05
1.01937e-05
1.01536e-05
9.99209e-06
9.7676e-06
9.51929e-06
9.29536e-06
9.102e-06
9.07017e-06
9.03852e-06
9.00706e-06
9.23453e-06
9.59018e-06
9.80416e-06
9.80321e-06
9.8019e-06
9.80118e-06
9.79898e-06
9.79821e-06
9.79929e-06
9.78711e-06
9.74373e-06
5.63978e-06
9.22825e-06
9.57146e-06
9.5733e-06
7.48171e-06
7.64345e-06
1.51847e-05
3.79949e-05
4.20758e-05
3.13864e-05
2.86253e-05
2.59108e-05
2.33912e-05
2.24403e-05
2.0383e-05
1.76945e-05
1.659e-05
1.59199e-05
1.52774e-05
1.46007e-05
1.39557e-05
1.34005e-05
1.28693e-05
1.23609e-05
1.01639e-05
6.52782e-06
5.59162e-06
5.52892e-06
5.46922e-06
5.41221e-06
5.35809e-06
5.30725e-06
5.25954e-06
5.21459e-06
5.1715e-06
5.13024e-06
5.09074e-06
5.05325e-06
5.01698e-06
4.91392e-06
4.79836e-06
4.71137e-06
4.65717e-06
4.64064e-06
4.66027e-06
4.71921e-06
4.8198e-06
4.95618e-06
5.12897e-06
5.33761e-06
5.57577e-06
5.69327e-06
5.85596e-06
6.20053e-06
7.37471e-06
8.0503e-06
8.44985e-06
8.85631e-06
9.26887e-06
9.6866e-06
1.01089e-05
1.05351e-05
1.08627e-05
1.08236e-05
1.07842e-05
1.07449e-05
1.07054e-05
1.06657e-05
1.06259e-05
1.05859e-05
1.05459e-05
1.05059e-05
1.04658e-05
1.04257e-05
1.03857e-05
1.03456e-05
1.03054e-05
1.02651e-05
1.02233e-05
1.00095e-05
9.76448e-06
9.51411e-06
9.3009e-06
9.16616e-06
9.13388e-06
9.1018e-06
9.06994e-06
9.03825e-06
9.00672e-06
9.18622e-06
9.54091e-06
9.8324e-06
9.83099e-06
9.82916e-06
9.82787e-06
9.82516e-06
9.82385e-06
9.82427e-06
9.81143e-06
9.76774e-06
6.76577e-06
9.88602e-06
9.75823e-06
7.22832e-06
5.47223e-06
5.4691e-06
1.68871e-05
4.07252e-05
4.55915e-05
3.42704e-05
2.74266e-05
2.47588e-05
2.22579e-05
2.08966e-05
1.82598e-05
1.65332e-05
1.58766e-05
1.52423e-05
1.45684e-05
1.39175e-05
1.33477e-05
1.27965e-05
1.22635e-05
1.17474e-05
8.29393e-06
5.43783e-06
5.35095e-06
5.31501e-06
5.29212e-06
5.28523e-06
5.2947e-06
5.32513e-06
5.37664e-06
5.45086e-06
5.54739e-06
5.66752e-06
5.81018e-06
5.97472e-06
6.04651e-06
6.10656e-06
6.29977e-06
6.5588e-06
6.83317e-06
7.12597e-06
7.43614e-06
7.75713e-06
8.09259e-06
8.4412e-06
8.7987e-06
9.16632e-06
9.54424e-06
9.92852e-06
9.974e-06
1.06223e-05
1.11564e-05
1.11197e-05
1.10825e-05
1.1045e-05
1.10072e-05
1.0969e-05
1.09306e-05
1.08918e-05
1.08528e-05
1.08135e-05
1.07741e-05
1.07346e-05
1.06949e-05
1.06551e-05
1.06152e-05
1.05752e-05
1.0535e-05
1.04948e-05
1.04546e-05
1.04143e-05
1.0374e-05
1.03336e-05
1.02496e-05
1.00309e-05
9.76817e-06
9.51535e-06
9.30938e-06
9.22876e-06
9.19612e-06
9.16362e-06
9.13132e-06
9.09923e-06
9.06729e-06
9.03548e-06
9.00387e-06
9.14387e-06
9.49942e-06
9.85653e-06
9.85452e-06
9.85214e-06
9.85032e-06
9.84714e-06
9.84529e-06
9.84511e-06
9.8318e-06
9.78791e-06
7.00781e-06
1.00528e-05
8.46576e-06
5.4456e-06
4.73114e-06
4.67484e-06
1.86949e-05
4.25703e-05
4.48785e-05
3.3711e-05
2.71759e-05
2.43844e-05
2.17506e-05
1.93225e-05
1.70803e-05
1.63418e-05
1.564e-05
1.49329e-05
1.42662e-05
1.368e-05
1.31291e-05
1.26146e-05
1.21379e-05
1.0726e-05
9.10378e-06
7.96316e-06
8.03061e-06
8.12249e-06
8.23454e-06
8.36919e-06
8.52264e-06
8.69595e-06
8.88806e-06
9.0986e-06
9.32562e-06
9.56777e-06
9.82686e-06
1.00969e-05
1.0381e-05
1.04582e-05
1.04223e-05
1.03881e-05
1.03543e-05
1.03177e-05
1.02827e-05
1.02477e-05
1.02106e-05
1.01743e-05
1.01389e-05
1.01022e-05
1.00658e-05
1.00304e-05
1.03389e-05
1.1152e-05
1.11448e-05
1.11078e-05
1.10706e-05
1.1033e-05
1.09951e-05
1.09568e-05
1.09181e-05
1.08792e-05
1.084e-05
1.08006e-05
1.07611e-05
1.07214e-05
1.06815e-05
1.06416e-05
1.06015e-05
1.05614e-05
1.05212e-05
1.04811e-05
1.04408e-05
1.04005e-05
1.02806e-05
1.0045e-05
9.77865e-06
9.5317e-06
9.32278e-06
9.2897e-06
9.25673e-06
9.22384e-06
9.19107e-06
9.15854e-06
9.12626e-06
9.09417e-06
9.0622e-06
9.03036e-06
8.99871e-06
9.10617e-06
9.46389e-06
9.87651e-06
9.87408e-06
9.87123e-06
9.86891e-06
9.86519e-06
9.86266e-06
9.86188e-06
9.8481e-06
9.80405e-06
7.19424e-06
9.60503e-06
6.12203e-06
4.86379e-06
4.79672e-06
5.26175e-06
2.1131e-05
4.35273e-05
4.3113e-05
3.21089e-05
2.66718e-05
2.39537e-05
2.05153e-05
1.85223e-05
1.73336e-05
1.67201e-05
1.61156e-05
1.55557e-05
1.50621e-05
1.46049e-05
1.41774e-05
1.37788e-05
1.34093e-05
1.15381e-05
1.12428e-05
1.08611e-05
1.08341e-05
1.08082e-05
1.07807e-05
1.07532e-05
1.07249e-05
1.06963e-05
1.06669e-05
1.06367e-05
1.06081e-05
1.05763e-05
1.05455e-05
1.05151e-05
1.04812e-05
1.0449e-05
1.04168e-05
1.0382e-05
1.03488e-05
1.03151e-05
1.02795e-05
1.02447e-05
1.02102e-05
1.01741e-05
1.01387e-05
1.01037e-05
1.00678e-05
1.0043e-05
1.09433e-05
1.11665e-05
1.11299e-05
1.10929e-05
1.10555e-05
1.10179e-05
1.09798e-05
1.09414e-05
1.09027e-05
1.08636e-05
1.08243e-05
1.07848e-05
1.07452e-05
1.07054e-05
1.06655e-05
1.06254e-05
1.05852e-05
1.05449e-05
1.05046e-05
1.04643e-05
1.03178e-05
1.00677e-05
9.79727e-06
9.55349e-06
9.38163e-06
9.34824e-06
9.31501e-06
9.28196e-06
9.24902e-06
9.21621e-06
9.18348e-06
9.15093e-06
9.11856e-06
9.0864e-06
9.05443e-06
9.02266e-06
8.99106e-06
9.07184e-06
9.43299e-06
9.89236e-06
9.88949e-06
9.88621e-06
9.88349e-06
9.87929e-06
9.87623e-06
9.87494e-06
9.86062e-06
9.81642e-06
7.27568e-06
7.02503e-06
5.09144e-06
4.93162e-06
4.86223e-06
6.31808e-06
2.37245e-05
4.39766e-05
4.1276e-05
3.04552e-05
2.61579e-05
2.3049e-05
1.93207e-05
1.76399e-05
1.70022e-05
1.6376e-05
1.57902e-05
1.52721e-05
1.47975e-05
1.43566e-05
1.39448e-05
1.35607e-05
1.30083e-05
1.14955e-05
1.08428e-05
1.08224e-05
1.07993e-05
1.07754e-05
1.07509e-05
1.07254e-05
1.06992e-05
1.06721e-05
1.06461e-05
1.06167e-05
1.05887e-05
1.05613e-05
1.05301e-05
1.05005e-05
1.04702e-05
1.04371e-05
1.0406e-05
1.03743e-05
1.03406e-05
1.03078e-05
1.02748e-05
1.02398e-05
1.0205e-05
1.01707e-05
1.01358e-05
1.01007e-05
1.00603e-05
1.0601e-05
1.11849e-05
1.11487e-05
1.11121e-05
1.10751e-05
1.10376e-05
1.09997e-05
1.09615e-05
1.09231e-05
1.08843e-05
1.08451e-05
1.08058e-05
1.07663e-05
1.07266e-05
1.06868e-05
1.06469e-05
1.06068e-05
1.05666e-05
1.05263e-05
1.03616e-05
1.00993e-05
9.82398e-06
9.58018e-06
9.43879e-06
9.40522e-06
9.37171e-06
9.33826e-06
9.30492e-06
9.27175e-06
9.23878e-06
9.20598e-06
9.17331e-06
9.14082e-06
9.10847e-06
9.07628e-06
9.04424e-06
9.01238e-06
8.98071e-06
9.03975e-06
9.40514e-06
9.90383e-06
9.90053e-06
9.89687e-06
9.89371e-06
9.88904e-06
9.88554e-06
9.88385e-06
9.86918e-06
9.82494e-06
5.49197e-06
5.60572e-06
5.08972e-06
4.99986e-06
5.11978e-06
7.68836e-06
2.59752e-05
4.45381e-05
3.93782e-05
2.87435e-05
2.563e-05
2.16483e-05
1.80831e-05
1.72861e-05
1.66354e-05
1.60254e-05
1.54821e-05
1.49866e-05
1.45272e-05
1.41023e-05
1.37065e-05
1.33383e-05
1.18521e-05
1.15327e-05
1.07977e-05
1.07797e-05
1.07611e-05
1.07403e-05
1.07183e-05
1.06949e-05
1.06719e-05
1.06454e-05
1.06207e-05
1.05954e-05
1.05667e-05
1.0541e-05
1.05139e-05
1.0483e-05
1.04545e-05
1.04243e-05
1.03923e-05
1.03619e-05
1.03305e-05
1.02972e-05
1.02648e-05
1.02323e-05
1.01982e-05
1.01636e-05
1.01296e-05
1.00953e-05
1.02492e-05
1.11534e-05
1.11645e-05
1.11283e-05
1.10916e-05
1.10545e-05
1.1017e-05
1.09792e-05
1.09408e-05
1.09022e-05
1.08634e-05
1.08242e-05
1.07848e-05
1.07451e-05
1.07053e-05
1.06654e-05
1.06255e-05
1.05853e-05
1.04134e-05
1.01412e-05
9.86026e-06
9.61381e-06
9.49328e-06
9.45944e-06
9.42575e-06
9.39218e-06
9.35876e-06
9.32542e-06
9.29219e-06
9.25904e-06
9.22601e-06
9.19315e-06
9.16046e-06
9.128e-06
9.09573e-06
9.06363e-06
9.03164e-06
8.99977e-06
8.96807e-06
9.0092e-06
9.37915e-06
9.91099e-06
9.90735e-06
9.90334e-06
9.89973e-06
9.89456e-06
9.89061e-06
9.88851e-06
9.87346e-06
9.82926e-06
4.71974e-06
5.25125e-06
5.16222e-06
5.06851e-06
6.24642e-06
9.55491e-06
2.70289e-05
4.52199e-05
3.73277e-05
2.69656e-05
2.42169e-05
2.03007e-05
1.75714e-05
1.68987e-05
1.62596e-05
1.56899e-05
1.51748e-05
1.46961e-05
1.42517e-05
1.38423e-05
1.34622e-05
1.31105e-05
1.12971e-05
1.09381e-05
1.07512e-05
1.07354e-05
1.07194e-05
1.07018e-05
1.06837e-05
1.06616e-05
1.06406e-05
1.06179e-05
1.05922e-05
1.05695e-05
1.05442e-05
1.05175e-05
1.04924e-05
1.04637e-05
1.04346e-05
1.04067e-05
1.03771e-05
1.03461e-05
1.0316e-05
1.02848e-05
1.02522e-05
1.02197e-05
1.01874e-05
1.01538e-05
1.012e-05
1.00621e-05