/*--------------------------------*- C++ -*----------------------------------*\
| =========                 |                                                 |
| \\      /  F ield         | foam-extend: Open Source CFD                    |
|  \\    /   O peration     | Version:     4.1                                |
|   \\  /    A nd           | Web:         http://www.foam-extend.org         |
|    \\/     M anipulation  |                                                 |
\*---------------------------------------------------------------------------*/
FoamFile
{
    version     2.0;
    format      ascii;
    class       vectorField;
    location    "4";
    object      solidsCellD_iteration19;
}
// * * * * * * * * * * * * * * * * * * * * * * * * * * * * * * * * * * * * * //


1000
(
(2.07231e-06 -8.76042e-07 0)
(1.95495e-06 -8.15036e-07 0)
(1.87986e-06 -7.7625e-07 0)
(1.83664e-06 -7.58124e-07 0)
(1.81547e-06 -7.51825e-07 0)
(1.81032e-06 -7.54641e-07 0)
(1.81704e-06 -7.63418e-07 0)
(1.83258e-06 -7.76616e-07 0)
(1.85486e-06 -7.92835e-07 0)
(1.88233e-06 -8.11045e-07 0)
(1.87364e-06 -9.56968e-07 0)
(1.74872e-06 -9.14517e-07 0)
(1.66887e-06 -8.87463e-07 0)
(1.62213e-06 -8.77287e-07 0)
(1.59822e-06 -8.76257e-07 0)
(1.59064e-06 -8.82785e-07 0)
(1.595e-06 -8.94185e-07 0)
(1.60812e-06 -9.09358e-07 0)
(1.62785e-06 -9.27148e-07 0)
(1.65219e-06 -9.46455e-07 0)
(1.66729e-06 -1.03368e-06 0)
(1.5397e-06 -1.01197e-06 0)
(1.45822e-06 -9.98057e-07 0)
(1.40996e-06 -9.96679e-07 0)
(1.38457e-06 -1.00141e-06 0)
(1.37532e-06 -1.01191e-06 0)
(1.37778e-06 -1.02607e-06 0)
(1.38876e-06 -1.04321e-06 0)
(1.40607e-06 -1.06254e-06 0)
(1.4278e-06 -1.0829e-06 0)
(1.45476e-06 -1.1048e-06 0)
(1.32984e-06 -1.10483e-06 0)
(1.25009e-06 -1.10472e-06 0)
(1.20247e-06 -1.11252e-06 0)
(1.17693e-06 -1.12323e-06 0)
(1.1668e-06 -1.1378e-06 0)
(1.16779e-06 -1.15472e-06 0)
(1.17684e-06 -1.17383e-06 0)
(1.19186e-06 -1.19462e-06 0)
(1.21092e-06 -1.21614e-06 0)
(1.23751e-06 -1.16891e-06 0)
(1.12055e-06 -1.19051e-06 0)
(1.04593e-06 -1.20406e-06 0)
(1.00113e-06 -1.22094e-06 0)
(9.7676e-07 -1.23753e-06 0)
(9.66526e-07 -1.2561e-06 0)
(9.66506e-07 -1.27573e-06 0)
(9.73831e-07 -1.29675e-06 0)
(9.86604e-07 -1.31896e-06 0)
(1.00294e-06 -1.34164e-06 0)
(1.0166e-06 -1.22475e-06 0)
(9.12778e-07 -1.26652e-06 0)
(8.46576e-07 -1.29288e-06 0)
(8.06632e-07 -1.31823e-06 0)
(7.84685e-07 -1.34032e-06 0)
(7.75119e-07 -1.3626e-06 0)
(7.74502e-07 -1.38473e-06 0)
(7.80263e-07 -1.40751e-06 0)
(7.90766e-07 -1.43104e-06 0)
(8.04252e-07 -1.45489e-06 0)
(7.93099e-07 -1.27103e-06 0)
(7.07017e-07 -1.33047e-06 0)
(6.52128e-07 -1.36805e-06 0)
(6.18904e-07 -1.40085e-06 0)
(6.00532e-07 -1.42774e-06 0)
(5.92327e-07 -1.45326e-06 0)
(5.91462e-07 -1.47757e-06 0)
(5.95783e-07 -1.50191e-06 0)
(6.03979e-07 -1.52659e-06 0)
(6.14533e-07 -1.55148e-06 0)
(5.67732e-07 -1.30673e-06 0)
(5.03272e-07 -1.38037e-06 0)
(4.62177e-07 -1.42697e-06 0)
(4.37259e-07 -1.46571e-06 0)
(4.23423e-07 -1.49646e-06 0)
(4.17133e-07 -1.5246e-06 0)
(4.16286e-07 -1.55068e-06 0)
(4.19271e-07 -1.57628e-06 0)
(4.25143e-07 -1.60189e-06 0)
(4.32715e-07 -1.62765e-06 0)
(3.41165e-07 -1.331e-06 0)
(3.01256e-07 -1.41456e-06 0)
(2.75833e-07 -1.46745e-06 0)
(2.60377e-07 -1.51038e-06 0)
(2.51747e-07 -1.54382e-06 0)
(2.47774e-07 -1.57379e-06 0)
(2.47179e-07 -1.60111e-06 0)
(2.48944e-07 -1.62763e-06 0)
(2.52472e-07 -1.65389e-06 0)
(2.57021e-07 -1.68028e-06 0)
(1.1394e-07 -1.34323e-06 0)
(1.00425e-07 -1.43192e-06 0)
(9.17743e-08 -1.48805e-06 0)
(8.65118e-08 -1.53313e-06 0)
(8.35881e-08 -1.56797e-06 0)
(8.22277e-08 -1.59889e-06 0)
(8.19836e-08 -1.62683e-06 0)
(8.25496e-08 -1.6538e-06 0)
(8.37292e-08 -1.68041e-06 0)
(8.52417e-08 -1.70714e-06 0)
(3.23512e-06 -3.9949e-08 0)
(3.2641e-06 -2.87465e-08 0)
(3.28167e-06 -2.16411e-08 0)
(3.3005e-06 -1.74611e-08 0)
(3.32113e-06 -1.51285e-08 0)
(3.34645e-06 -1.40539e-08 0)
(3.3765e-06 -1.38547e-08 0)
(3.41163e-06 -1.41898e-08 0)
(3.4517e-06 -1.4918e-08 0)
(3.49621e-06 -1.58276e-08 0)
(3.21114e-06 -1.19874e-07 0)
(3.23525e-06 -8.69175e-08 0)
(3.24976e-06 -6.60115e-08 0)
(3.26656e-06 -5.37793e-08 0)
(3.28582e-06 -4.70627e-08 0)
(3.31019e-06 -4.39706e-08 0)
(3.33955e-06 -4.33757e-08 0)
(3.3741e-06 -4.44495e-08 0)
(3.41369e-06 -4.67e-08 0)
(3.4577e-06 -4.94043e-08 0)
(3.16324e-06 -2.00458e-07 0)
(3.17808e-06 -1.47561e-07 0)
(3.1867e-06 -1.14051e-07 0)
(3.19961e-06 -9.44289e-08 0)
(3.2163e-06 -8.36811e-08 0)
(3.23885e-06 -7.88663e-08 0)
(3.26685e-06 -7.80691e-08 0)
(3.30033e-06 -7.99184e-08 0)
(3.33899e-06 -8.3663e-08 0)
(3.38202e-06 -8.8178e-08 0)
(3.09228e-06 -2.82086e-07 0)
(3.09393e-06 -2.12092e-07 0)
(3.09415e-06 -1.678e-07 0)
(3.10152e-06 -1.41985e-07 0)
(3.11454e-06 -1.27911e-07 0)
(3.13452e-06 -1.21725e-07 0)
(3.16061e-06 -1.20893e-07 0)
(3.19255e-06 -1.23604e-07 0)
(3.22987e-06 -1.28817e-07 0)
(3.27153e-06 -1.35135e-07 0)
(2.99936e-06 -3.64956e-07 0)
(2.9847e-06 -2.81672e-07 0)
(2.97456e-06 -2.28988e-07 0)
(2.97507e-06 -1.9849e-07 0)
(2.98354e-06 -1.82016e-07 0)
(3.0003e-06 -1.75015e-07 0)
(3.02402e-06 -1.74418e-07 0)
(3.05406e-06 -1.78114e-07 0)
(3.08973e-06 -1.84788e-07 0)
(3.12972e-06 -1.92883e-07 0)
(2.88587e-06 -4.49144e-07 0)
(2.85275e-06 -3.57109e-07 0)
(2.83092e-06 -2.98872e-07 0)
(2.82366e-06 -2.65485e-07 0)
(2.82697e-06 -2.47698e-07 0)
(2.84006e-06 -2.40522e-07 0)
(2.86108e-06 -2.40494e-07 0)
(2.88893e-06 -2.45313e-07 0)
(2.9227e-06 -2.5345e-07 0)
(2.9608e-06 -2.63276e-07 0)
(2.75349e-06 -5.34466e-07 0)
(2.70087e-06 -4.38712e-07 0)
(2.66669e-06 -3.78075e-07 0)
(2.65122e-06 -3.43762e-07 0)
(2.64905e-06 -3.25853e-07 0)
(2.65824e-06 -3.19223e-07 0)
(2.67635e-06 -3.20147e-07 0)
(2.70185e-06 -3.26224e-07 0)
(2.73356e-06 -3.35818e-07 0)
(2.76965e-06 -3.47298e-07 0)
(2.60401e-06 -6.20519e-07 0)
(2.53206e-06 -5.2626e-07 0)
(2.48566e-06 -4.66516e-07 0)
(2.46202e-06 -4.33366e-07 0)
(2.4544e-06 -4.16593e-07 0)
(2.45964e-06 -4.11271e-07 0)
(2.47478e-06 -4.13563e-07 0)
(2.49782e-06 -4.21098e-07 0)
(2.52734e-06 -4.32168e-07 0)
(2.56134e-06 -4.45272e-07 0)
(2.43936e-06 -7.06718e-07 0)
(2.34944e-06 -6.19034e-07 0)
(2.29167e-06 -5.63433e-07 0)
(2.26038e-06 -5.33482e-07 0)
(2.24757e-06 -5.19083e-07 0)
(2.24897e-06 -5.15794e-07 0)
(2.26114e-06 -5.19867e-07 0)
(2.2817e-06 -5.29033e-07 0)
(2.30896e-06 -5.4171e-07 0)
(2.34093e-06 -5.56272e-07 0)
(2.2615e-06 -7.92243e-07 0)
(2.15612e-06 -7.1584e-07 0)
(2.08857e-06 -6.67356e-07 0)
(2.05063e-06 -6.42504e-07 0)
(2.03323e-06 -6.3165e-07 0)
(2.03116e-06 -6.31099e-07 0)
(2.0406e-06 -6.37349e-07 0)
(2.0587e-06 -6.48465e-07 0)
(2.08374e-06 -6.62802e-07 0)
(2.11349e-06 -6.79553e-07 0)
(3.54531e-06 -1.67287e-08 0)
(3.59882e-06 -1.69281e-08 0)
(3.65575e-06 -1.71536e-08 0)
(3.7159e-06 -1.73202e-08 0)
(3.7789e-06 -1.74143e-08 0)
(3.84448e-06 -1.74254e-08 0)
(3.91236e-06 -1.73147e-08 0)
(3.9823e-06 -1.70948e-08 0)
(4.05409e-06 -1.67765e-08 0)
(4.12749e-06 -1.63459e-08 0)
(4.20227e-06 -1.57829e-08 0)
(4.27824e-06 -1.50752e-08 0)
(4.35517e-06 -1.42091e-08 0)
(4.43284e-06 -1.31736e-08 0)
(4.51104e-06 -1.19554e-08 0)
(4.58948e-06 -1.05332e-08 0)
(4.668e-06 -8.87424e-09 0)
(4.74609e-06 -6.93946e-09 0)
(4.82384e-06 -4.68129e-09 0)
(4.90002e-06 -2.08349e-09 0)
(3.5085e-06 -5.18947e-08 0)
(3.5651e-06 -5.22482e-08 0)
(3.62478e-06 -5.27283e-08 0)
(3.68733e-06 -5.30651e-08 0)
(3.75246e-06 -5.3167e-08 0)
(3.81991e-06 -5.30444e-08 0)
(3.8895e-06 -5.26367e-08 0)
(3.96098e-06 -5.19461e-08 0)
(4.03417e-06 -5.09414e-08 0)
(4.10885e-06 -4.95789e-08 0)
(4.18481e-06 -4.78245e-08 0)
(4.26187e-06 -4.56604e-08 0)
(4.33982e-06 -4.30473e-08 0)
(4.41845e-06 -3.99381e-08 0)
(4.49757e-06 -3.62754e-08 0)
(4.57688e-06 -3.1992e-08 0)
(4.65623e-06 -2.69957e-08 0)
(4.73513e-06 -2.11834e-08 0)
(4.81367e-06 -1.44062e-08 0)
(4.89064e-06 -6.61592e-09 0)
(3.43614e-06 -9.17547e-08 0)
(3.49879e-06 -9.15879e-08 0)
(3.56387e-06 -9.16997e-08 0)
(3.63109e-06 -9.17317e-08 0)
(3.7004e-06 -9.14724e-08 0)
(3.77157e-06 -9.09354e-08 0)
(3.84449e-06 -8.99807e-08 0)
(3.91897e-06 -8.85932e-08 0)
(3.99489e-06 -8.67132e-08 0)
(4.07206e-06 -8.42831e-08 0)
(4.15033e-06 -8.12493e-08 0)
(4.22952e-06 -7.75675e-08 0)
(4.30946e-06 -7.31584e-08 0)
(4.38996e-06 -6.79358e-08 0)
(4.47085e-06 -6.18044e-08 0)
(4.55186e-06 -5.46519e-08 0)
(4.63285e-06 -4.63208e-08 0)
(4.71335e-06 -3.6646e-08 0)
(4.79346e-06 -2.53681e-08 0)
(4.87201e-06 -1.24091e-08 0)
(3.33039e-06 -1.38976e-07 0)
(3.40171e-06 -1.37233e-07 0)
(3.47461e-06 -1.36014e-07 0)
(3.54862e-06 -1.34994e-07 0)
(3.62403e-06 -1.33742e-07 0)
(3.70059e-06 -1.32285e-07 0)
(3.77839e-06 -1.30371e-07 0)
(3.85728e-06 -1.27973e-07 0)
(3.93723e-06 -1.2498e-07 0)
(4.01807e-06 -1.21294e-07 0)
(4.09973e-06 -1.16823e-07 0)
(4.18207e-06 -1.11491e-07 0)
(4.26494e-06 -1.05186e-07 0)
(4.3482e-06 -9.77896e-08 0)
(4.43169e-06 -8.91672e-08 0)
(4.5152e-06 -7.91447e-08 0)
(4.59858e-06 -6.75018e-08 0)
(4.68142e-06 -5.40027e-08 0)
(4.76382e-06 -3.82727e-08 0)
(4.84469e-06 -2.02173e-08 0)
(3.19446e-06 -1.95919e-07 0)
(3.27667e-06 -1.91227e-07 0)
(3.35946e-06 -1.87436e-07 0)
(3.44208e-06 -1.8441e-07 0)
(3.52527e-06 -1.81361e-07 0)
(3.60877e-06 -1.78341e-07 0)
(3.69284e-06 -1.7495e-07 0)
(3.77741e-06 -1.71122e-07 0)
(3.86252e-06 -1.66664e-07 0)
(3.94811e-06 -1.61435e-07 0)
(4.03414e-06 -1.55311e-07 0)
(4.12054e-06 -1.48172e-07 0)
(4.20721e-06 -1.39863e-07 0)
(4.29404e-06 -1.30219e-07 0)
(4.38093e-06 -1.19055e-07 0)
(4.46765e-06 -1.06138e-07 0)
(4.55416e-06 -9.11839e-08 0)
(4.64002e-06 -7.3888e-08 0)
(4.72541e-06 -5.3763e-08 0)
(4.80927e-06 -3.06895e-08 0)
(3.03221e-06 -2.643e-07 0)
(3.12694e-06 -2.5506e-07 0)
(3.22133e-06 -2.47219e-07 0)
(3.31409e-06 -2.41025e-07 0)
(3.40651e-06 -2.35226e-07 0)
(3.49826e-06 -2.29856e-07 0)
(3.58982e-06 -2.24337e-07 0)
(3.68118e-06 -2.18546e-07 0)
(3.7725e-06 -2.12212e-07 0)
(3.86379e-06 -2.05126e-07 0)
(3.9551e-06 -1.97112e-07 0)
(4.04639e-06 -1.87992e-07 0)
(4.13764e-06 -1.77556e-07 0)
(4.22877e-06 -1.65587e-07 0)
(4.31973e-06 -1.51839e-07 0)
(4.41034e-06 -1.36026e-07 0)
(4.5006e-06 -1.17787e-07 0)
(4.5901e-06 -9.67557e-08 0)
(4.67909e-06 -7.23366e-08 0)
(4.76653e-06 -4.43479e-08 0)
(2.84816e-06 -3.45128e-07 0)
(2.9565e-06 -3.29743e-07 0)
(3.06368e-06 -3.16398e-07 0)
(3.16772e-06 -3.05792e-07 0)
(3.27045e-06 -2.96221e-07 0)
(3.37149e-06 -2.87629e-07 0)
(3.47152e-06 -2.79303e-07 0)
(3.57062e-06 -2.70983e-07 0)
(3.66903e-06 -2.62313e-07 0)
(3.76684e-06 -2.53008e-07 0)
(3.86418e-06 -2.42813e-07 0)
(3.96109e-06 -2.31483e-07 0)
(4.05759e-06 -2.18748e-07 0)
(4.15366e-06 -2.04338e-07 0)
(4.24931e-06 -1.87941e-07 0)
(4.3444e-06 -1.69212e-07 0)
(4.43895e-06 -1.47713e-07 0)
(4.53264e-06 -1.23006e-07 0)
(4.62573e-06 -9.43998e-08 0)
(4.71729e-06 -6.16414e-08 0)
(2.64688e-06 -4.3868e-07 0)
(2.76925e-06 -4.15327e-07 0)
(2.88989e-06 -3.94964e-07 0)
(3.00602e-06 -3.78546e-07 0)
(3.11989e-06 -3.64153e-07 0)
(3.23107e-06 -3.51418e-07 0)
(3.3404e-06 -3.3957e-07 0)
(3.448e-06 -3.28144e-07 0)
(3.55422e-06 -3.16686e-07 0)
(3.65925e-06 -3.04811e-07 0)
(3.76327e-06 -2.92174e-07 0)
(3.86639e-06 -2.78448e-07 0)
(3.96871e-06 -2.63293e-07 0)
(4.07027e-06 -2.46376e-07 0)
(4.17111e-06 -2.27314e-07 0)
(4.27115e-06 -2.05696e-07 0)
(4.37046e-06 -1.81009e-07 0)
(4.46877e-06 -1.52738e-07 0)
(4.56639e-06 -1.20097e-07 0)
(4.6625e-06 -8.27641e-08 0)
(2.4333e-06 -5.44747e-07 0)
(2.56966e-06 -5.12011e-07 0)
(2.70372e-06 -4.83738e-07 0)
(2.83232e-06 -4.60318e-07 0)
(2.95765e-06 -4.40135e-07 0)
(3.07949e-06 -4.22369e-07 0)
(3.19861e-06 -4.06229e-07 0)
(3.31525e-06 -3.9104e-07 0)
(3.42984e-06 -3.76249e-07 0)
(3.54261e-06 -3.61352e-07 0)
(3.65383e-06 -3.45907e-07 0)
(3.76368e-06 -3.29501e-07 0)
(3.87231e-06 -3.11718e-07 0)
(3.97981e-06 -2.92148e-07 0)
(4.08627e-06 -2.70336e-07 0)
(4.19167e-06 -2.45793e-07 0)
(4.29612e-06 -2.1794e-07 0)
(4.39945e-06 -1.86181e-07 0)
(4.50197e-06 -1.49653e-07 0)
(4.60302e-06 -1.07971e-07 0)
(2.21151e-06 -6.61446e-07 0)
(2.3621e-06 -6.16891e-07 0)
(2.50908e-06 -5.7965e-07 0)
(2.65047e-06 -5.4813e-07 0)
(2.78746e-06 -5.21285e-07 0)
(2.92034e-06 -4.97815e-07 0)
(3.04962e-06 -4.76823e-07 0)
(3.17571e-06 -4.57457e-07 0)
(3.29902e-06 -4.39025e-07 0)
(3.41991e-06 -4.20891e-07 0)
(3.53866e-06 -4.02501e-07 0)
(3.65555e-06 -3.83343e-07 0)
(3.77076e-06 -3.62911e-07 0)
(3.88446e-06 -3.40716e-07 0)
(3.99678e-06 -3.16226e-07 0)
(4.10777e-06 -2.88876e-07 0)
(4.2176e-06 -2.58029e-07 0)
(4.32616e-06 -2.2299e-07 0)
(4.43382e-06 -1.82838e-07 0)
(4.54009e-06 -1.371e-07 0)
(2.04715e-06 -7.73602e-07 0)
(2.20699e-06 -7.19424e-07 0)
(2.36157e-06 -6.75431e-07 0)
(2.51087e-06 -6.37365e-07 0)
(2.65529e-06 -6.04584e-07 0)
(2.79526e-06 -5.75731e-07 0)
(2.93122e-06 -5.4985e-07 0)
(3.06358e-06 -5.26063e-07 0)
(3.19274e-06 -5.03607e-07 0)
(3.31906e-06 -4.81789e-07 0)
(3.44286e-06 -4.59996e-07 0)
(3.56442e-06 -4.37656e-07 0)
(3.68397e-06 -4.14208e-07 0)
(3.8017e-06 -3.89111e-07 0)
(3.91778e-06 -3.61789e-07 0)
(4.03232e-06 -3.31626e-07 0)
(4.14552e-06 -2.97973e-07 0)
(4.25739e-06 -2.60079e-07 0)
(4.36829e-06 -2.17014e-07 0)
(4.47791e-06 -1.68261e-07 0)
(1.95324e-06 -8.64558e-07 0)
(2.1143e-06 -8.08375e-07 0)
(2.27018e-06 -7.60684e-07 0)
(2.42154e-06 -7.18685e-07 0)
(2.5683e-06 -6.81768e-07 0)
(2.71078e-06 -6.48814e-07 0)
(2.84929e-06 -6.18938e-07 0)
(2.98417e-06 -5.91317e-07 0)
(3.11573e-06 -5.652e-07 0)
(3.2443e-06 -5.39906e-07 0)
(3.37018e-06 -5.14824e-07 0)
(3.49362e-06 -4.89367e-07 0)
(3.61487e-06 -4.62961e-07 0)
(3.73413e-06 -4.35058e-07 0)
(3.85157e-06 -4.05074e-07 0)
(3.96737e-06 -3.72389e-07 0)
(4.08172e-06 -3.36377e-07 0)
(4.19472e-06 -2.96295e-07 0)
(4.30673e-06 -2.51241e-07 0)
(4.41757e-06 -2.00725e-07 0)
(1.87292e-06 -9.51918e-07 0)
(2.03248e-06 -8.94411e-07 0)
(2.18818e-06 -8.44293e-07 0)
(2.33993e-06 -7.99304e-07 0)
(2.48763e-06 -7.58995e-07 0)
(2.63137e-06 -7.22481e-07 0)
(2.77135e-06 -6.88995e-07 0)
(2.90779e-06 -6.57798e-07 0)
(3.04095e-06 -6.28191e-07 0)
(3.17109e-06 -5.99535e-07 0)
(3.29847e-06 -5.71235e-07 0)
(3.42333e-06 -5.4271e-07 0)
(3.54589e-06 -5.13388e-07 0)
(3.66635e-06 -4.8273e-07 0)
(3.78492e-06 -4.50158e-07 0)
(3.90177e-06 -4.1506e-07 0)
(4.01713e-06 -3.76837e-07 0)
(4.13113e-06 -3.34776e-07 0)
(4.24416e-06 -2.88018e-07 0)
(4.35616e-06 -2.36122e-07 0)
(1.80201e-06 -1.03628e-06 0)
(1.95938e-06 -9.78157e-07 0)
(2.1138e-06 -9.26213e-07 0)
(2.26487e-06 -8.78746e-07 0)
(2.41245e-06 -8.35507e-07 0)
(2.55648e-06 -7.95823e-07 0)
(2.69706e-06 -7.59052e-07 0)
(2.8343e-06 -7.24542e-07 0)
(2.9684e-06 -6.91664e-07 0)
(3.09954e-06 -6.59823e-07 0)
(3.22794e-06 -6.28455e-07 0)
(3.35381e-06 -5.96996e-07 0)
(3.47735e-06 -5.64889e-07 0)
(3.59876e-06 -5.31613e-07 0)
(3.71823e-06 -4.96605e-07 0)
(3.83598e-06 -4.59278e-07 0)
(3.95221e-06 -4.19057e-07 0)
(4.06713e-06 -3.75274e-07 0)
(4.18108e-06 -3.27131e-07 0)
(4.29415e-06 -2.7425e-07 0)
(1.73959e-06 -1.11703e-06 0)
(1.89408e-06 -1.05878e-06 0)
(2.04645e-06 -1.00566e-06 0)
(2.19602e-06 -9.56358e-07 0)
(2.34268e-06 -9.10773e-07 0)
(2.48623e-06 -8.68418e-07 0)
(2.62669e-06 -8.2877e-07 0)
(2.76407e-06 -7.91287e-07 0)
(2.89851e-06 -7.55413e-07 0)
(3.03013e-06 -7.20612e-07 0)
(3.15911e-06 -6.86364e-07 0)
(3.28561e-06 -6.52134e-07 0)
(3.40981e-06 -6.17391e-07 0)
(3.5319e-06 -5.8165e-07 0)
(3.65207e-06 -5.44359e-07 0)
(3.77054e-06 -5.04977e-07 0)
(3.88751e-06 -4.62954e-07 0)
(4.00323e-06 -4.17674e-07 0)
(4.118e-06 -3.68425e-07 0)
(4.23205e-06 -3.14894e-07 0)
(1.68413e-06 -1.19438e-06 0)
(1.83543e-06 -1.13636e-06 0)
(1.98527e-06 -1.08251e-06 0)
(2.1328e-06 -1.03183e-06 0)
(2.27795e-06 -9.8436e-07 0)
(2.42041e-06 -9.39754e-07 0)
(2.56015e-06 -8.97613e-07 0)
(2.69714e-06 -8.57496e-07 0)
(2.83142e-06 -8.18922e-07 0)
(2.96307e-06 -7.81421e-07 0)
(3.09223e-06 -7.44523e-07 0)
(3.21901e-06 -7.0773e-07 0)
(3.34359e-06 -6.70547e-07 0)
(3.46612e-06 -6.3253e-07 0)
(3.58679e-06 -5.93144e-07 0)
(3.70581e-06 -5.51908e-07 0)
(3.8234e-06 -5.08296e-07 0)
(3.93978e-06 -4.61756e-07 0)
(4.05529e-06 -4.11671e-07 0)
(4.17023e-06 -3.57778e-07 0)
(1.63452e-06 -1.26836e-06 0)
(1.78246e-06 -1.21084e-06 0)
(1.92945e-06 -1.15663e-06 0)
(2.07456e-06 -1.10498e-06 0)
(2.21777e-06 -1.05604e-06 0)
(2.3587e-06 -1.00959e-06 0)
(2.4973e-06 -9.65333e-07 0)
(2.63345e-06 -9.22925e-07 0)
(2.76716e-06 -8.81958e-07 0)
(2.89847e-06 -8.4203e-07 0)
(3.02747e-06 -8.02728e-07 0)
(3.15424e-06 -7.63596e-07 0)
(3.27893e-06 -7.24185e-07 0)
(3.40169e-06 -6.84093e-07 0)
(3.52267e-06 -6.4281e-07 0)
(3.64209e-06 -5.99916e-07 0)
(3.76015e-06 -5.54921e-07 0)
(3.87709e-06 -5.07344e-07 0)
(3.99325e-06 -4.56658e-07 0)
(4.10895e-06 -4.02639e-07 0)
(1.58971e-06 -1.33918e-06 0)
(1.73423e-06 -1.28232e-06 0)
(1.87819e-06 -1.22801e-06 0)
(2.02068e-06 -1.17571e-06 0)
(2.16165e-06 -1.12566e-06 0)
(2.30074e-06 -1.0777e-06 0)
(2.43784e-06 -1.03168e-06 0)
(2.57282e-06 -9.87299e-07 0)
(2.70564e-06 -9.44239e-07 0)
(2.8363e-06 -9.02163e-07 0)
(2.96485e-06 -8.60716e-07 0)
(3.09137e-06 -8.19487e-07 0)
(3.21596e-06 -7.78074e-07 0)
(3.33875e-06 -7.36121e-07 0)
(3.45989e-06 -6.93151e-07 0)
(3.57956e-06 -6.48801e-07 0)
(3.69797e-06 -6.02631e-07 0)
(3.81538e-06 -5.54229e-07 0)
(3.93209e-06 -5.03143e-07 0)
(4.04842e-06 -4.49199e-07 0)
(1.54875e-06 -1.40706e-06 0)
(1.68987e-06 -1.35095e-06 0)
(1.83074e-06 -1.29673e-06 0)
(1.97047e-06 -1.24403e-06 0)
(2.10905e-06 -1.19314e-06 0)
(2.24607e-06 -1.144e-06 0)
(2.38145e-06 -1.09651e-06 0)
(2.515e-06 -1.05046e-06 0)
(2.64668e-06 -1.0056e-06 0)
(2.77645e-06 -9.61654e-07 0)
(2.90435e-06 -9.18323e-07 0)
(3.03041e-06 -8.75242e-07 0)
(3.15473e-06 -8.32058e-07 0)
(3.27741e-06 -7.88461e-07 0)
(3.39856e-06 -7.44012e-07 0)
(3.51839e-06 -6.98406e-07 0)
(3.63705e-06 -6.51259e-07 0)
(3.75483e-06 -6.02214e-07 0)
(3.87197e-06 -5.509e-07 0)
(3.98884e-06 -4.97201e-07 0)
(1.51085e-06 -1.47219e-06 0)
(1.64863e-06 -1.41688e-06 0)
(1.78641e-06 -1.36289e-06 0)
(1.92334e-06 -1.30998e-06 0)
(2.05942e-06 -1.25849e-06 0)
(2.19426e-06 -1.20842e-06 0)
(2.32775e-06 -1.15974e-06 0)
(2.45971e-06 -1.1123e-06 0)
(2.59008e-06 -1.06592e-06 0)
(2.71881e-06 -1.02036e-06 0)
(2.8459e-06 -9.75405e-07 0)
(2.97137e-06 -9.30714e-07 0)
(3.09528e-06 -8.85989e-07 0)
(3.21771e-06 -8.40961e-07 0)
(3.33878e-06 -7.95241e-07 0)
(3.45865e-06 -7.48573e-07 0)
(3.57748e-06 -7.0063e-07 0)
(3.69554e-06 -6.51105e-07 0)
(3.81301e-06 -5.99714e-07 0)
(3.93033e-06 -5.46391e-07 0)
(1.47526e-06 -1.53483e-06 0)
(1.60982e-06 -1.48032e-06 0)
(1.74457e-06 -1.42663e-06 0)
(1.87871e-06 -1.37366e-06 0)
(2.01226e-06 -1.32176e-06 0)
(2.14486e-06 -1.27097e-06 0)
(2.27639e-06 -1.22134e-06 0)
(2.40667e-06 -1.17277e-06 0)
(2.53563e-06 -1.12511e-06 0)
(2.66321e-06 -1.07821e-06 0)
(2.78937e-06 -1.03187e-06 0)
(2.91413e-06 -9.85798e-07 0)
(3.03753e-06 -9.39752e-07 0)
(3.15962e-06 -8.93502e-07 0)
(3.28051e-06 -8.46705e-07 0)
(3.40035e-06 -7.99158e-07 0)
(3.51927e-06 -7.50582e-07 0)
(3.6375e-06 -7.00721e-07 0)
(3.75524e-06 -6.49382e-07 0)
(3.87291e-06 -5.9653e-07 0)
(1.44135e-06 -1.59518e-06 0)
(1.57281e-06 -1.54145e-06 0)
(1.7046e-06 -1.48811e-06 0)
(1.83602e-06 -1.43519e-06 0)
(1.96708e-06 -1.38302e-06 0)
(2.09744e-06 -1.33171e-06 0)
(2.22698e-06 -1.28134e-06 0)
(2.35555e-06 -1.23185e-06 0)
(2.48304e-06 -1.18315e-06 0)
(2.6094e-06 -1.13513e-06 0)
(2.73457e-06 -1.08763e-06 0)
(2.85856e-06 -1.04041e-06 0)
(2.98138e-06 -9.93251e-07 0)
(3.10308e-06 -9.45979e-07 0)
(3.22373e-06 -8.98291e-07 0)
(3.34347e-06 -8.5003e-07 0)
(3.46241e-06 -8.00963e-07 0)
(3.58075e-06 -7.509e-07 0)
(3.6987e-06 -6.99713e-07 0)
(3.81662e-06 -6.47384e-07 0)
(1.40852e-06 -1.65345e-06 0)
(1.53702e-06 -1.60044e-06 0)
(1.66597e-06 -1.54749e-06 0)
(1.79476e-06 -1.49469e-06 0)
(1.92338e-06 -1.44238e-06 0)
(2.05154e-06 -1.3907e-06 0)
(2.17913e-06 -1.33976e-06 0)
(2.30598e-06 -1.28957e-06 0)
(2.43202e-06 -1.24004e-06 0)
(2.55715e-06 -1.19112e-06 0)
(2.68132e-06 -1.14268e-06 0)
(2.80452e-06 -1.09451e-06 0)
(2.92673e-06 -1.04644e-06 0)
(3.048e-06 -9.98327e-07 0)
(3.16838e-06 -9.49915e-07 0)
(3.28797e-06 -9.01086e-07 0)
(3.40686e-06 -8.51658e-07 0)
(3.52527e-06 -8.01503e-07 0)
(3.64336e-06 -7.50537e-07 0)
(3.76145e-06 -6.98766e-07 0)
(1.37621e-06 -1.70981e-06 0)
(1.50189e-06 -1.65749e-06 0)
(1.62812e-06 -1.60493e-06 0)
(1.75439e-06 -1.5523e-06 0)
(1.88069e-06 -1.49995e-06 0)
(2.00673e-06 -1.44803e-06 0)
(2.13245e-06 -1.3967e-06 0)
(2.25766e-06 -1.34598e-06 0)
(2.38228e-06 -1.29582e-06 0)
(2.5062e-06 -1.24619e-06 0)
(2.62939e-06 -1.197e-06 0)
(2.75179e-06 -1.14806e-06 0)
(2.8734e-06 -1.09926e-06 0)
(2.99422e-06 -1.05048e-06 0)
(3.1143e-06 -1.00149e-06 0)
(3.23372e-06 -9.52222e-07 0)
(3.35254e-06 -9.02549e-07 0)
(3.47098e-06 -8.5238e-07 0)
(3.58912e-06 -8.01682e-07 0)
(3.70734e-06 -7.5051e-07 0)
(1.34385e-06 -1.76444e-06 0)
(1.46687e-06 -1.71275e-06 0)
(1.59054e-06 -1.66059e-06 0)
(1.71442e-06 -1.60818e-06 0)
(1.83853e-06 -1.55587e-06 0)
(1.9626e-06 -1.50384e-06 0)
(2.08655e-06 -1.45226e-06 0)
(2.2102e-06 -1.40117e-06 0)
(2.33348e-06 -1.35054e-06 0)
(2.45628e-06 -1.30038e-06 0)
(2.57853e-06 -1.25061e-06 0)
(2.70018e-06 -1.20109e-06 0)
(2.82122e-06 -1.15172e-06 0)
(2.94162e-06 -1.10241e-06 0)
(3.06141e-06 -1.05298e-06 0)
(3.18064e-06 -1.00338e-06 0)
(3.2994e-06 -9.53548e-07 0)
(3.41783e-06 -9.03425e-07 0)
(3.536e-06 -8.53035e-07 0)
(3.65428e-06 -8.02457e-07 0)
(1.31094e-06 -1.81747e-06 0)
(1.43142e-06 -1.76643e-06 0)
(1.55266e-06 -1.71462e-06 0)
(1.67436e-06 -1.66247e-06 0)
(1.79644e-06 -1.61029e-06 0)
(1.9187e-06 -1.55825e-06 0)
(2.04103e-06 -1.50655e-06 0)
(2.16327e-06 -1.45522e-06 0)
(2.28534e-06 -1.40429e-06 0)
(2.40711e-06 -1.35375e-06 0)
(2.52852e-06 -1.30357e-06 0)
(2.6495e-06 -1.25362e-06 0)
(2.77001e-06 -1.20382e-06 0)
(2.89003e-06 -1.15411e-06 0)
(3.00955e-06 -1.10433e-06 0)
(3.12864e-06 -1.0545e-06 0)
(3.24733e-06 -1.00458e-06 0)
(3.36572e-06 -9.54541e-07 0)
(3.48392e-06 -9.04475e-07 0)
(3.60219e-06 -8.54473e-07 0)
(1.27692e-06 -1.86913e-06 0)
(1.39493e-06 -1.81855e-06 0)
(1.51388e-06 -1.7672e-06 0)
(1.63367e-06 -1.7154e-06 0)
(1.75394e-06 -1.66341e-06 0)
(1.87461e-06 -1.61146e-06 0)
(1.9955e-06 -1.55973e-06 0)
(2.11652e-06 -1.5083e-06 0)
(2.23752e-06 -1.45718e-06 0)
(2.35841e-06 -1.4064e-06 0)
(2.4791e-06 -1.35595e-06 0)
(2.5995e-06 -1.3057e-06 0)
(2.71958e-06 -1.25559e-06 0)
(2.83928e-06 -1.20559e-06 0)
(2.95861e-06 -1.15557e-06 0)
(3.07759e-06 -1.10558e-06 0)
(3.19622e-06 -1.05559e-06 0)
(3.3146e-06 -1.00565e-06 0)
(3.43279e-06 -9.55889e-07 0)
(3.55105e-06 -9.06437e-07 0)
(1.24095e-06 -1.91937e-06 0)
(1.3569e-06 -1.86932e-06 0)
(1.47399e-06 -1.81851e-06 0)
(1.59194e-06 -1.76709e-06 0)
(1.71064e-06 -1.71537e-06 0)
(1.82992e-06 -1.66358e-06 0)
(1.94963e-06 -1.61193e-06 0)
(2.06963e-06 -1.56051e-06 0)
(2.18977e-06 -1.50933e-06 0)
(2.30996e-06 -1.45845e-06 0)
(2.43008e-06 -1.40784e-06 0)
(2.55004e-06 -1.3574e-06 0)
(2.66978e-06 -1.30708e-06 0)
(2.78927e-06 -1.25688e-06 0)
(2.90847e-06 -1.20671e-06 0)
(3.0274e-06 -1.1566e-06 0)
(3.14601e-06 -1.10655e-06 0)
(3.26445e-06 -1.05668e-06 0)
(3.38264e-06 -1.0072e-06 0)
(3.50085e-06 -9.5828e-07 0)
(1.20257e-06 -1.96869e-06 0)
(1.31662e-06 -1.91924e-06 0)
(1.43202e-06 -1.86888e-06 0)
(1.5485e-06 -1.81787e-06 0)
(1.66594e-06 -1.76647e-06 0)
(1.78415e-06 -1.71492e-06 0)
(1.90297e-06 -1.66343e-06 0)
(2.02224e-06 -1.61211e-06 0)
(2.14179e-06 -1.56097e-06 0)
(2.26149e-06 -1.51006e-06 0)
(2.38123e-06 -1.45938e-06 0)
(2.5009e-06 -1.40883e-06 0)
(2.62045e-06 -1.3584e-06 0)
(2.73981e-06 -1.30809e-06 0)
(2.85896e-06 -1.25778e-06 0)
(2.97791e-06 -1.20754e-06 0)
(3.09661e-06 -1.15748e-06 0)
(3.21514e-06 -1.10764e-06 0)
(3.33344e-06 -1.05832e-06 0)
(3.45164e-06 -1.00984e-06 0)
(1.16131e-06 -2.01676e-06 0)
(1.27373e-06 -1.96798e-06 0)
(1.38773e-06 -1.91824e-06 0)
(1.50309e-06 -1.86774e-06 0)
(1.61963e-06 -1.81676e-06 0)
(1.73714e-06 -1.76556e-06 0)
(1.85543e-06 -1.71435e-06 0)
(1.97428e-06 -1.66322e-06 0)
(2.09352e-06 -1.61219e-06 0)
(2.21299e-06 -1.56132e-06 0)
(2.33256e-06 -1.51066e-06 0)
(2.45211e-06 -1.46009e-06 0)
(2.57158e-06 -1.40958e-06 0)
(2.69091e-06 -1.35919e-06 0)
(2.81008e-06 -1.30883e-06 0)
(2.9291e-06 -1.25852e-06 0)
(3.04797e-06 -1.20839e-06 0)
(3.16669e-06 -1.15852e-06 0)
(3.28526e-06 -1.10925e-06 0)
(3.40365e-06 -1.06106e-06 0)
(8.49347e-08 -1.73452e-06 0)
(2.5596e-07 -1.70893e-06 0)
(4.30433e-07 -1.65873e-06 0)
(6.10316e-07 -1.58597e-06 0)
(7.97189e-07 -1.49348e-06 0)
(9.92035e-07 -1.38468e-06 0)
(1.19521e-06 -1.26362e-06 0)
(1.40633e-06 -1.13441e-06 0)
(1.6247e-06 -1.0013e-06 0)
(1.84856e-06 -8.67623e-07 0)
(8.25352e-08 -1.76295e-06 0)
(2.48586e-07 -1.73955e-06 0)
(4.17507e-07 -1.69364e-06 0)
(5.90952e-07 -1.62693e-06 0)
(7.70264e-07 -1.54185e-06 0)
(9.56278e-07 -1.4413e-06 0)
(1.14935e-06 -1.32872e-06 0)
(1.34898e-06 -1.20769e-06 0)
(1.55442e-06 -1.08202e-06 0)
(1.76395e-06 -9.5474e-07 0)
(8.04176e-08 -1.79203e-06 0)
(2.42058e-07 -1.77062e-06 0)
(4.06048e-07 -1.72858e-06 0)
(5.73708e-07 -1.66741e-06 0)
(7.46172e-07 -1.58918e-06 0)
(9.24116e-07 -1.49645e-06 0)
(1.10793e-06 -1.39215e-06 0)
(1.29734e-06 -1.27932e-06 0)
(1.49186e-06 -1.16119e-06 0)
(1.69025e-06 -1.03994e-06 0)
(7.85487e-08 -1.82182e-06 0)
(2.36295e-07 -1.80211e-06 0)
(3.96011e-07 -1.76339e-06 0)
(5.58754e-07 -1.70696e-06 0)
(7.25475e-07 -1.63465e-06 0)
(8.96703e-07 -1.54871e-06 0)
(1.07275e-06 -1.4517e-06 0)
(1.25333e-06 -1.34635e-06 0)
(1.43806e-06 -1.23561e-06 0)
(1.62588e-06 -1.12132e-06 0)
(7.68322e-08 -1.85233e-06 0)
(2.31006e-07 -1.83414e-06 0)
(3.86818e-07 -1.79839e-06 0)
(5.45122e-07 -1.74623e-06 0)
(7.06711e-07 -1.67929e-06 0)
(8.72011e-07 -1.59956e-06 0)
(1.0413e-06 -1.50932e-06 0)
(1.21435e-06 -1.4109e-06 0)
(1.39086e-06 -1.30696e-06 0)
(1.56968e-06 -1.19919e-06 0)
(7.52314e-08 -1.88351e-06 0)
(2.26127e-07 -1.86663e-06 0)
(3.78383e-07 -1.83346e-06 0)
(5.32719e-07 -1.78505e-06 0)
(6.89787e-07 -1.72282e-06 0)
(8.4992e-07 -1.64859e-06 0)
(1.01332e-06 -1.56443e-06 0)
(1.17976e-06 -1.47239e-06 0)
(1.34908e-06 -1.37488e-06 0)
(1.52004e-06 -1.27354e-06 0)
(7.37073e-08 -1.91532e-06 0)
(2.21499e-07 -1.89963e-06 0)
(3.70429e-07 -1.86876e-06 0)
(5.21111e-07 -1.8237e-06 0)
(6.74072e-07 -1.76571e-06 0)
(8.29599e-07 -1.69644e-06 0)
(9.87842e-07 -1.61779e-06 0)
(1.14854e-06 -1.53155e-06 0)
(1.31167e-06 -1.43992e-06 0)
(1.47585e-06 -1.34456e-06 0)
(7.22531e-08 -1.9477e-06 0)
(2.17066e-07 -1.93306e-06 0)
(3.62858e-07 -1.90424e-06 0)
(5.10137e-07 -1.86214e-06 0)
(6.59346e-07 -1.80792e-06 0)
(8.10711e-07 -1.7431e-06 0)
(9.64355e-07 -1.66941e-06 0)
(1.11999e-06 -1.58848e-06 0)
(1.27769e-06 -1.50227e-06 0)
(1.43604e-06 -1.41248e-06 0)
(7.08269e-08 -1.98061e-06 0)
(2.1274e-07 -1.9669e-06 0)
(3.55515e-07 -1.93991e-06 0)
(4.9956e-07 -1.90048e-06 0)
(6.45276e-07 -1.84966e-06 0)
(7.92835e-07 -1.78884e-06 0)
(9.42332e-07 -1.71961e-06 0)
(1.09347e-06 -1.64351e-06 0)
(1.24638e-06 -1.56224e-06 0)
(1.39967e-06 -1.47757e-06 0)
(6.94053e-08 -2.01397e-06 0)
(2.08471e-07 -2.00111e-06 0)
(3.48297e-07 -1.97576e-06 0)
(4.89235e-07 -1.93871e-06 0)
(6.31638e-07 -1.89094e-06 0)
(7.75658e-07 -1.83372e-06 0)
(9.21359e-07 -1.76853e-06 0)
(1.06845e-06 -1.69681e-06 0)
(1.2171e-06 -1.62008e-06 0)
(1.36597e-06 -1.54008e-06 0)
(6.79807e-08 -2.04771e-06 0)
(2.04205e-07 -2.03562e-06 0)
(3.41097e-07 -2.01175e-06 0)
(4.79004e-07 -1.97684e-06 0)
(6.18217e-07 -1.93184e-06 0)
(7.58886e-07 -1.87787e-06 0)
(9.01069e-07 -1.81634e-06 0)
(1.04447e-06 -1.7486e-06 0)
(1.18928e-06 -1.67601e-06 0)
(1.33424e-06 -1.60025e-06 0)
(6.65447e-08 -2.08176e-06 0)
(1.99885e-07 -2.07037e-06 0)
(3.33823e-07 -2.04783e-06 0)
(4.68725e-07 -2.01487e-06 0)
(6.04823e-07 -1.97236e-06 0)
(7.42272e-07 -1.92135e-06 0)
(8.81138e-07 -1.86314e-06 0)
(1.02114e-06 -1.79902e-06 0)
(1.16243e-06 -1.7302e-06 0)
(1.30389e-06 -1.65832e-06 0)
(6.50732e-08 -2.11604e-06 0)
(1.95444e-07 -2.10528e-06 0)
(3.26376e-07 -2.08396e-06 0)
(4.5825e-07 -2.05276e-06 0)
(5.91261e-07 -2.01252e-06 0)
(7.25568e-07 -1.96421e-06 0)
(8.61252e-07 -1.90903e-06 0)
(9.9804e-07 -1.8482e-06 0)
(1.13607e-06 -1.78283e-06 0)
(1.27436e-06 -1.71447e-06 0)
(6.35389e-08 -2.15043e-06 0)
(1.90821e-07 -2.14023e-06 0)
(3.18661e-07 -2.12004e-06 0)
(4.47436e-07 -2.09047e-06 0)
(5.77337e-07 -2.0523e-06 0)
(7.0853e-07 -2.00646e-06 0)
(8.41105e-07 -1.95405e-06 0)
(9.74812e-07 -1.89623e-06 0)
(1.10977e-06 -1.83403e-06 0)
(1.24514e-06 -1.76889e-06 0)
(6.19202e-08 -2.18485e-06 0)
(1.85962e-07 -2.17517e-06 0)
(3.10576e-07 -2.15601e-06 0)
(4.36138e-07 -2.12794e-06 0)
(5.62859e-07 -2.09169e-06 0)
(6.90906e-07 -2.04812e-06 0)
(8.20379e-07 -1.99827e-06 0)
(9.5107e-07 -1.94323e-06 0)
(1.08309e-06 -1.88393e-06 0)
(1.21568e-06 -1.82174e-06 0)
(6.01996e-08 -2.21911e-06 0)
(1.8081e-07 -2.20991e-06 0)
(3.02017e-07 -2.19174e-06 0)
(4.24204e-07 -2.16506e-06 0)
(5.47617e-07 -2.13059e-06 0)
(6.72427e-07 -2.08914e-06 0)
(7.98745e-07 -2.04166e-06 0)
(9.26436e-07 -1.98919e-06 0)
(1.05555e-06 -1.93259e-06 0)
(1.18549e-06 -1.8731e-06 0)
(5.83539e-08 -2.25316e-06 0)
(1.75285e-07 -2.24442e-06 0)
(2.92845e-07 -2.22716e-06 0)
(4.11439e-07 -2.2018e-06 0)
(5.31356e-07 -2.16902e-06 0)
(6.52777e-07 -2.12955e-06 0)
(7.75843e-07 -2.08431e-06 0)
(9.00462e-07 -2.03424e-06 0)
(1.02668e-06 -1.98015e-06 0)
(1.15399e-06 -1.92321e-06 0)
(5.63527e-08 -2.28667e-06 0)
(1.69292e-07 -2.27836e-06 0)
(2.8291e-07 -2.26198e-06 0)
(3.97637e-07 -2.23788e-06 0)
(5.13804e-07 -2.2067e-06 0)
(6.31624e-07 -2.16913e-06 0)
(7.5127e-07 -2.12601e-06 0)
(8.72678e-07 -2.07823e-06 0)
(9.95913e-07 -2.02653e-06 0)
(1.12059e-06 -1.97199e-06 0)
(5.41499e-08 -2.31975e-06 0)
(1.62699e-07 -2.31187e-06 0)
(2.71994e-07 -2.29633e-06 0)
(3.82497e-07 -2.27346e-06 0)
(4.94581e-07 -2.24384e-06 0)
(6.08509e-07 -2.20811e-06 0)
(7.24487e-07 -2.16704e-06 0)
(8.42502e-07 -2.12146e-06 0)
(9.62638e-07 -2.07206e-06 0)
(1.0846e-06 -2.01984e-06 0)
(5.17296e-08 -2.35148e-06 0)
(1.55464e-07 -2.34404e-06 0)
(2.60021e-07 -2.32934e-06 0)
(3.65899e-07 -2.3077e-06 0)
(4.73525e-07 -2.27963e-06 0)
(5.83226e-07 -2.24575e-06 0)
(6.95232e-07 -2.20673e-06 0)
(8.0963e-07 -2.16335e-06 0)
(9.26488e-07 -2.11626e-06 0)
(1.04565e-06 -2.06638e-06 0)
)


// ************************************************************************* //
