/*--------------------------------*- C++ -*----------------------------------*\
| =========                 |                                                 |
| \\      /  F ield         | foam-extend: Open Source CFD                    |
|  \\    /   O peration     | Version:     4.1                                |
|   \\  /    A nd           | Web:         http://www.foam-extend.org         |
|    \\/     M anipulation  |                                                 |
\*---------------------------------------------------------------------------*/
FoamFile
{
    version     2.0;
    format      ascii;
    class       vectorField;
    location    "4";
    object      solidsCellD_iteration12;
}
// * * * * * * * * * * * * * * * * * * * * * * * * * * * * * * * * * * * * * //


1000
(
(2.03904e-06 -8.39409e-07 0)
(1.9262e-06 -7.82462e-07 0)
(1.8546e-06 -7.46916e-07 0)
(1.81392e-06 -7.31102e-07 0)
(1.79463e-06 -7.26658e-07 0)
(1.79099e-06 -7.30958e-07 0)
(1.79889e-06 -7.4099e-07 0)
(1.81534e-06 -7.55347e-07 0)
(1.83849e-06 -7.72545e-07 0)
(1.86609e-06 -7.91717e-07 0)
(1.84397e-06 -9.17059e-07 0)
(1.72384e-06 -8.78056e-07 0)
(1.6476e-06 -8.53879e-07 0)
(1.60346e-06 -8.45818e-07 0)
(1.58138e-06 -8.46544e-07 0)
(1.57519e-06 -8.54493e-07 0)
(1.5806e-06 -8.67108e-07 0)
(1.59451e-06 -8.83405e-07 0)
(1.61488e-06 -9.02114e-07 0)
(1.63936e-06 -9.22439e-07 0)
(1.6412e-06 -9.90617e-07 0)
(1.51849e-06 -9.71666e-07 0)
(1.44056e-06 -9.60215e-07 0)
(1.39487e-06 -9.60673e-07 0)
(1.37129e-06 -9.66981e-07 0)
(1.36335e-06 -9.78769e-07 0)
(1.3668e-06 -9.94058e-07 0)
(1.37853e-06 -1.01223e-06 0)
(1.39643e-06 -1.03239e-06 0)
(1.41837e-06 -1.05366e-06 0)
(1.43221e-06 -1.0588e-06 0)
(1.31213e-06 -1.06086e-06 0)
(1.2358e-06 -1.06274e-06 0)
(1.1906e-06 -1.07205e-06 0)
(1.16679e-06 -1.08414e-06 0)
(1.15791e-06 -1.09985e-06 0)
(1.1598e-06 -1.1178e-06 0)
(1.16956e-06 -1.13782e-06 0)
(1.18513e-06 -1.15937e-06 0)
(1.20449e-06 -1.18167e-06 0)
(1.21856e-06 -1.12026e-06 0)
(1.10612e-06 -1.14313e-06 0)
(1.03464e-06 -1.15819e-06 0)
(9.92082e-07 -1.17625e-06 0)
(9.69307e-07 -1.19399e-06 0)
(9.60202e-07 -1.21356e-06 0)
(9.60979e-07 -1.2341e-06 0)
(9.68949e-07 -1.25592e-06 0)
(9.82243e-07 -1.27883e-06 0)
(9.98904e-07 -1.30222e-06 0)
(1.00113e-06 -1.17377e-06 0)
(9.01381e-07 -1.21608e-06 0)
(8.37978e-07 -1.2435e-06 0)
(7.99985e-07 -1.26974e-06 0)
(7.79405e-07 -1.29278e-06 0)
(7.70786e-07 -1.31592e-06 0)
(7.70888e-07 -1.33884e-06 0)
(7.77239e-07 -1.36234e-06 0)
(7.88221e-07 -1.38649e-06 0)
(8.02021e-07 -1.41097e-06 0)
(7.81122e-07 -1.2181e-06 0)
(6.9841e-07 -1.27745e-06 0)
(6.45836e-07 -1.31572e-06 0)
(6.14196e-07 -1.34914e-06 0)
(5.96937e-07 -1.37679e-06 0)
(5.89516e-07 -1.40305e-06 0)
(5.89264e-07 -1.42804e-06 0)
(5.9408e-07 -1.45303e-06 0)
(6.02669e-07 -1.47828e-06 0)
(6.13488e-07 -1.50373e-06 0)
(5.59229e-07 -1.2523e-06 0)
(4.97244e-07 -1.32536e-06 0)
(4.57876e-07 -1.3723e-06 0)
(4.34155e-07 -1.41143e-06 0)
(4.21162e-07 -1.44281e-06 0)
(4.15466e-07 -1.47158e-06 0)
(4.15073e-07 -1.49829e-06 0)
(4.18415e-07 -1.52447e-06 0)
(4.24567e-07 -1.55061e-06 0)
(4.32337e-07 -1.57687e-06 0)
(3.36062e-07 -1.27555e-06 0)
(2.9769e-07 -1.35816e-06 0)
(2.73359e-07 -1.41116e-06 0)
(2.58634e-07 -1.45434e-06 0)
(2.50506e-07 -1.48833e-06 0)
(2.4689e-07 -1.51883e-06 0)
(2.4659e-07 -1.54673e-06 0)
(2.48593e-07 -1.5738e-06 0)
(2.52287e-07 -1.60058e-06 0)
(2.56951e-07 -1.62743e-06 0)
(1.12237e-07 -1.28726e-06 0)
(9.92518e-08 -1.37483e-06 0)
(9.09458e-08 -1.43094e-06 0)
(8.59312e-08 -1.47619e-06 0)
(8.32061e-08 -1.51152e-06 0)
(8.19633e-08 -1.54295e-06 0)
(8.17947e-08 -1.57144e-06 0)
(8.24413e-08 -1.59893e-06 0)
(8.36889e-08 -1.62604e-06 0)
(8.52421e-08 -1.65322e-06 0)
(3.17805e-06 -3.82485e-08 0)
(3.20608e-06 -2.75729e-08 0)
(3.22355e-06 -2.0835e-08 0)
(3.24264e-06 -1.68971e-08 0)
(3.26376e-06 -1.47393e-08 0)
(3.28962e-06 -1.38088e-08 0)
(3.32025e-06 -1.37033e-08 0)
(3.35587e-06 -1.4077e-08 0)
(3.39647e-06 -1.48867e-08 0)
(3.44146e-06 -1.58766e-08 0)
(3.15459e-06 -1.14792e-07 0)
(3.17796e-06 -8.33837e-08 0)
(3.19252e-06 -6.35519e-08 0)
(3.20962e-06 -5.20756e-08 0)
(3.22942e-06 -4.58775e-08 0)
(3.25431e-06 -4.31161e-08 0)
(3.28429e-06 -4.282e-08 0)
(3.31938e-06 -4.41292e-08 0)
(3.35949e-06 -4.65882e-08 0)
(3.404e-06 -4.94564e-08 0)
(3.10779e-06 -1.91941e-07 0)
(3.12221e-06 -1.41571e-07 0)
(3.13114e-06 -1.09796e-07 0)
(3.14449e-06 -9.13248e-08 0)
(3.16182e-06 -8.14323e-08 0)
(3.18499e-06 -7.72271e-08 0)
(3.21362e-06 -7.69208e-08 0)
(3.2477e-06 -7.91412e-08 0)
(3.28687e-06 -8.31923e-08 0)
(3.33044e-06 -8.79809e-08 0)
(3.03844e-06 -2.7012e-07 0)
(3.04015e-06 -2.03471e-07 0)
(3.041e-06 -1.61538e-07 0)
(3.04904e-06 -1.37284e-07 0)
(3.06281e-06 -1.24337e-07 0)
(3.08352e-06 -1.18961e-07 0)
(3.11031e-06 -1.1875e-07 0)
(3.14294e-06 -1.21971e-07 0)
(3.18082e-06 -1.27619e-07 0)
(3.22309e-06 -1.34331e-07 0)
(2.94758e-06 -3.49495e-07 0)
(2.93362e-06 -2.70227e-07 0)
(2.92449e-06 -2.20399e-07 0)
(2.92592e-06 -1.91812e-07 0)
(2.93531e-06 -1.76701e-07 0)
(2.95292e-06 -1.70685e-07 0)
(2.97743e-06 -1.7085e-07 0)
(3.00821e-06 -1.75181e-07 0)
(3.04449e-06 -1.82394e-07 0)
(3.08522e-06 -1.90968e-07 0)
(2.83652e-06 -4.30147e-07 0)
(2.80482e-06 -3.42619e-07 0)
(2.78446e-06 -2.87606e-07 0)
(2.77844e-06 -2.56391e-07 0)
(2.78285e-06 -2.40176e-07 0)
(2.79693e-06 -2.34145e-07 0)
(2.81885e-06 -2.34997e-07 0)
(2.84754e-06 -2.40527e-07 0)
(2.88199e-06 -2.49279e-07 0)
(2.92097e-06 -2.59662e-07 0)
(2.70696e-06 -5.11922e-07 0)
(2.65647e-06 -4.20958e-07 0)
(2.62423e-06 -3.63793e-07 0)
(2.61033e-06 -3.31848e-07 0)
(2.60948e-06 -3.15653e-07 0)
(2.61981e-06 -3.10283e-07 0)
(2.63896e-06 -3.12167e-07 0)
(2.6654e-06 -3.18997e-07 0)
(2.69787e-06 -3.29264e-07 0)
(2.735e-06 -3.41357e-07 0)
(2.56053e-06 -5.94403e-07 0)
(2.49145e-06 -5.05042e-07 0)
(2.44745e-06 -4.48885e-07 0)
(2.42571e-06 -4.18201e-07 0)
(2.41963e-06 -4.03223e-07 0)
(2.42618e-06 -3.99238e-07 0)
(2.44247e-06 -4.02543e-07 0)
(2.46657e-06 -4.10859e-07 0)
(2.49696e-06 -4.22648e-07 0)
(2.53214e-06 -4.36381e-07 0)
(2.39914e-06 -6.77045e-07 0)
(2.31277e-06 -5.94155e-07 0)
(2.25785e-06 -5.42154e-07 0)
(2.22874e-06 -5.14683e-07 0)
(2.21768e-06 -5.02128e-07 0)
(2.22051e-06 -5.00218e-07 0)
(2.23391e-06 -5.05337e-07 0)
(2.25561e-06 -5.15293e-07 0)
(2.28383e-06 -5.28671e-07 0)
(2.31703e-06 -5.4379e-07 0)
(2.2247e-06 -7.59058e-07 0)
(2.12347e-06 -6.8716e-07 0)
(2.05913e-06 -6.42154e-07 0)
(2.02359e-06 -6.19747e-07 0)
(2.00806e-06 -6.10763e-07 0)
(2.00751e-06 -6.11627e-07 0)
(2.01828e-06 -6.18999e-07 0)
(2.03761e-06 -6.30988e-07 0)
(2.06378e-06 -6.4612e-07 0)
(2.09466e-06 -6.63443e-07 0)
(3.49094e-06 -1.68126e-08 0)
(3.54483e-06 -1.70621e-08 0)
(3.6021e-06 -1.73278e-08 0)
(3.66254e-06 -1.75268e-08 0)
(3.72578e-06 -1.76479e-08 0)
(3.79162e-06 -1.76809e-08 0)
(3.85974e-06 -1.7589e-08 0)
(3.92986e-06 -1.74036e-08 0)
(4.00183e-06 -1.71404e-08 0)
(4.07543e-06 -1.67654e-08 0)
(4.15043e-06 -1.62522e-08 0)
(4.22661e-06 -1.55954e-08 0)
(4.30378e-06 -1.47906e-08 0)
(4.3817e-06 -1.38364e-08 0)
(4.46021e-06 -1.27204e-08 0)
(4.53902e-06 -1.1412e-08 0)
(4.61798e-06 -9.87253e-09 0)
(4.69664e-06 -8.06898e-09 0)
(4.77504e-06 -5.96464e-09 0)
(4.85209e-06 -3.54702e-09 0)
(3.45513e-06 -5.20607e-08 0)
(3.51199e-06 -5.25926e-08 0)
(3.57193e-06 -5.31964e-08 0)
(3.63471e-06 -5.36231e-08 0)
(3.70004e-06 -5.37959e-08 0)
(3.7677e-06 -5.37524e-08 0)
(3.83747e-06 -5.34457e-08 0)
(3.90913e-06 -5.28809e-08 0)
(3.9825e-06 -5.20115e-08 0)
(4.05735e-06 -5.07754e-08 0)
(4.13349e-06 -4.91624e-08 0)
(4.21074e-06 -4.71765e-08 0)
(4.28893e-06 -4.47805e-08 0)
(4.36783e-06 -4.19234e-08 0)
(4.44726e-06 -3.85441e-08 0)
(4.52695e-06 -3.45753e-08 0)
(4.60675e-06 -2.99309e-08 0)
(4.68621e-06 -2.45252e-08 0)
(4.76541e-06 -1.82338e-08 0)
(4.8432e-06 -1.10027e-08 0)
(3.38479e-06 -9.18011e-08 0)
(3.44754e-06 -9.19634e-08 0)
(3.51271e-06 -9.22894e-08 0)
(3.57999e-06 -9.24905e-08 0)
(3.64937e-06 -9.23857e-08 0)
(3.72067e-06 -9.20131e-08 0)
(3.79374e-06 -9.12425e-08 0)
(3.86834e-06 -9.00569e-08 0)
(3.94437e-06 -8.83858e-08 0)
(4.02167e-06 -8.61722e-08 0)
(4.10008e-06 -8.34009e-08 0)
(4.17945e-06 -8.00426e-08 0)
(4.2596e-06 -7.60051e-08 0)
(4.34033e-06 -7.11936e-08 0)
(4.42149e-06 -6.55176e-08 0)
(4.50285e-06 -5.88776e-08 0)
(4.58427e-06 -5.11318e-08 0)
(4.66533e-06 -4.21378e-08 0)
(4.74611e-06 -3.16798e-08 0)
(4.82549e-06 -1.96543e-08 0)
(3.28201e-06 -1.38562e-07 0)
(3.35313e-06 -1.37314e-07 0)
(3.42587e-06 -1.36425e-07 0)
(3.49976e-06 -1.35688e-07 0)
(3.5751e-06 -1.34718e-07 0)
(3.65166e-06 -1.33548e-07 0)
(3.72949e-06 -1.31926e-07 0)
(3.8084e-06 -1.29829e-07 0)
(3.88841e-06 -1.2714e-07 0)
(3.96935e-06 -1.23783e-07 0)
(4.05113e-06 -1.19705e-07 0)
(4.1336e-06 -1.14831e-07 0)
(4.21665e-06 -1.09034e-07 0)
(4.3001e-06 -1.02197e-07 0)
(4.38384e-06 -9.42052e-08 0)
(4.46766e-06 -8.49006e-08 0)
(4.55146e-06 -7.40834e-08 0)
(4.63483e-06 -6.15393e-08 0)
(4.71785e-06 -4.6951e-08 0)
(4.7995e-06 -3.01989e-08 0)
(3.14987e-06 -1.94561e-07 0)
(3.23155e-06 -1.90579e-07 0)
(3.31392e-06 -1.87314e-07 0)
(3.39615e-06 -1.84755e-07 0)
(3.47907e-06 -1.82153e-07 0)
(3.56238e-06 -1.7956e-07 0)
(3.64635e-06 -1.76578e-07 0)
(3.73083e-06 -1.73174e-07 0)
(3.81592e-06 -1.69143e-07 0)
(3.90151e-06 -1.64368e-07 0)
(3.98759e-06 -1.58768e-07 0)
(4.07409e-06 -1.52225e-07 0)
(4.16091e-06 -1.44566e-07 0)
(4.24791e-06 -1.35635e-07 0)
(4.33504e-06 -1.25276e-07 0)
(4.42206e-06 -1.13276e-07 0)
(4.50895e-06 -9.93813e-08 0)
(4.5953e-06 -8.33173e-08 0)
(4.68127e-06 -6.46523e-08 0)
(4.76585e-06 -4.32574e-08 0)
(2.99207e-06 -2.61452e-07 0)
(3.08589e-06 -2.53189e-07 0)
(3.17953e-06 -2.46124e-07 0)
(3.27167e-06 -2.40633e-07 0)
(3.36362e-06 -2.35489e-07 0)
(3.45502e-06 -2.30736e-07 0)
(3.54628e-06 -2.2579e-07 0)
(3.63742e-06 -2.20561e-07 0)
(3.72861e-06 -2.14795e-07 0)
(3.81983e-06 -2.08317e-07 0)
(3.91113e-06 -2.00981e-07 0)
(4.00248e-06 -1.92606e-07 0)
(4.09382e-06 -1.82964e-07 0)
(4.18508e-06 -1.71858e-07 0)
(4.27623e-06 -1.59079e-07 0)
(4.3671e-06 -1.44373e-07 0)
(4.45771e-06 -1.2742e-07 0)
(4.54763e-06 -1.07895e-07 0)
(4.63716e-06 -8.52549e-08 0)
(4.72528e-06 -5.93112e-08 0)
(2.81303e-06 -3.40189e-07 0)
(2.9201e-06 -3.26086e-07 0)
(3.02621e-06 -3.13821e-07 0)
(3.12936e-06 -3.04203e-07 0)
(3.23136e-06 -2.95541e-07 0)
(3.33185e-06 -2.87775e-07 0)
(3.43139e-06 -2.80233e-07 0)
(3.5301e-06 -2.72664e-07 0)
(3.62824e-06 -2.64749e-07 0)
(3.72591e-06 -2.56235e-07 0)
(3.82319e-06 -2.46889e-07 0)
(3.92009e-06 -2.36456e-07 0)
(4.01662e-06 -2.24657e-07 0)
(4.11277e-06 -2.1126e-07 0)
(4.20856e-06 -1.95998e-07 0)
(4.30386e-06 -1.78576e-07 0)
(4.39874e-06 -1.58593e-07 0)
(4.49283e-06 -1.35661e-07 0)
(4.58641e-06 -1.09139e-07 0)
(4.67858e-06 -7.87656e-08 0)
(2.61708e-06 -4.31064e-07 0)
(2.73782e-06 -4.09347e-07 0)
(2.85705e-06 -3.90445e-07 0)
(2.97202e-06 -3.75358e-07 0)
(3.08492e-06 -3.62177e-07 0)
(3.19532e-06 -3.50531e-07 0)
(3.304e-06 -3.397e-07 0)
(3.4111e-06 -3.29245e-07 0)
(3.51695e-06 -3.18751e-07 0)
(3.62173e-06 -3.07857e-07 0)
(3.72559e-06 -2.96236e-07 0)
(3.82862e-06 -2.83555e-07 0)
(3.9309e-06 -2.69487e-07 0)
(4.03248e-06 -2.53743e-07 0)
(4.13342e-06 -2.35998e-07 0)
(4.23366e-06 -2.15892e-07 0)
(4.33327e-06 -1.92947e-07 0)
(4.43196e-06 -1.66705e-07 0)
(4.53003e-06 -1.36419e-07 0)
(4.62669e-06 -1.01767e-07 0)
(2.40888e-06 -5.33851e-07 0)
(2.54339e-06 -5.03116e-07 0)
(2.67584e-06 -4.76686e-07 0)
(2.80307e-06 -4.54973e-07 0)
(2.92725e-06 -4.36333e-07 0)
(3.0481e-06 -4.19984e-07 0)
(3.16639e-06 -4.05148e-07 0)
(3.28238e-06 -3.91193e-07 0)
(3.39645e-06 -3.77605e-07 0)
(3.50885e-06 -3.63904e-07 0)
(3.6198e-06 -3.49662e-07 0)
(3.72944e-06 -3.34474e-07 0)
(3.83794e-06 -3.17954e-07 0)
(3.94542e-06 -2.99744e-07 0)
(4.05195e-06 -2.79445e-07 0)
(4.15754e-06 -2.56624e-07 0)
(4.26226e-06 -2.30729e-07 0)
(4.36593e-06 -2.01227e-07 0)
(4.46887e-06 -1.67293e-07 0)
(4.57042e-06 -1.28542e-07 0)
(2.19245e-06 -6.46874e-07 0)
(2.34127e-06 -6.04603e-07 0)
(2.48662e-06 -5.69624e-07 0)
(2.62652e-06 -5.40236e-07 0)
(2.76218e-06 -5.15313e-07 0)
(2.8939e-06 -4.93603e-07 0)
(3.02217e-06 -4.74218e-07 0)
(3.14742e-06 -4.56361e-07 0)
(3.27007e-06 -4.39379e-07 0)
(3.39042e-06 -4.22663e-07 0)
(3.50876e-06 -4.05677e-07 0)
(3.62531e-06 -3.8793e-07 0)
(3.7403e-06 -3.68955e-07 0)
(3.85389e-06 -3.48316e-07 0)
(3.96621e-06 -3.25538e-07 0)
(4.07732e-06 -3.00114e-07 0)
(4.18736e-06 -2.71426e-07 0)
(4.29619e-06 -2.3885e-07 0)
(4.40421e-06 -2.01505e-07 0)
(4.51089e-06 -1.58901e-07 0)
(2.03042e-06 -7.56819e-07 0)
(2.18926e-06 -7.04746e-07 0)
(2.34268e-06 -6.63082e-07 0)
(2.49077e-06 -6.27301e-07 0)
(2.63398e-06 -5.96662e-07 0)
(2.77281e-06 -5.69802e-07 0)
(2.90774e-06 -5.45768e-07 0)
(3.03922e-06 -5.23726e-07 0)
(3.16766e-06 -5.02947e-07 0)
(3.29338e-06 -4.82754e-07 0)
(3.41669e-06 -4.62559e-07 0)
(3.53786e-06 -4.41824e-07 0)
(3.65714e-06 -4.20027e-07 0)
(3.77473e-06 -3.96675e-07 0)
(3.89077e-06 -3.71247e-07 0)
(4.00538e-06 -3.43181e-07 0)
(4.11872e-06 -3.11852e-07 0)
(4.2308e-06 -2.76571e-07 0)
(4.34199e-06 -2.36455e-07 0)
(4.45192e-06 -1.9095e-07 0)
(1.93857e-06 -8.46932e-07 0)
(2.09868e-06 -7.92813e-07 0)
(2.25346e-06 -7.47324e-07 0)
(2.40372e-06 -7.07551e-07 0)
(2.54943e-06 -6.728e-07 0)
(2.69091e-06 -6.41918e-07 0)
(2.82851e-06 -6.14012e-07 0)
(2.9626e-06 -5.88277e-07 0)
(3.0935e-06 -5.63984e-07 0)
(3.22151e-06 -5.40465e-07 0)
(3.34694e-06 -5.17135e-07 0)
(3.47005e-06 -4.93442e-07 0)
(3.59107e-06 -4.68846e-07 0)
(3.71022e-06 -4.42838e-07 0)
(3.82765e-06 -4.1489e-07 0)
(3.94353e-06 -3.84419e-07 0)
(4.05802e-06 -3.50838e-07 0)
(4.17121e-06 -3.13447e-07 0)
(4.28347e-06 -2.71409e-07 0)
(4.39456e-06 -2.24168e-07 0)
(1.86081e-06 -9.3296e-07 0)
(2.01933e-06 -8.77744e-07 0)
(2.17397e-06 -8.2992e-07 0)
(2.32471e-06 -7.87221e-07 0)
(2.47145e-06 -7.49141e-07 0)
(2.61427e-06 -7.14779e-07 0)
(2.75344e-06 -6.8336e-07 0)
(2.88916e-06 -6.54161e-07 0)
(3.02171e-06 -6.265e-07 0)
(3.15133e-06 -5.9975e-07 0)
(3.27829e-06 -5.73341e-07 0)
(3.40284e-06 -5.46725e-07 0)
(3.52521e-06 -5.19358e-07 0)
(3.64558e-06 -4.90726e-07 0)
(3.76413e-06 -4.60312e-07 0)
(3.88106e-06 -4.27525e-07 0)
(3.99654e-06 -3.91815e-07 0)
(4.11073e-06 -3.52504e-07 0)
(4.22394e-06 -3.08801e-07 0)
(4.33613e-06 -2.60186e-07 0)
(1.79246e-06 -1.01604e-06 0)
(1.94873e-06 -9.6035e-07 0)
(2.10211e-06 -9.10791e-07 0)
(2.25222e-06 -8.65691e-07 0)
(2.3989e-06 -8.24759e-07 0)
(2.5421e-06 -7.87314e-07 0)
(2.68194e-06 -7.52708e-07 0)
(2.81853e-06 -7.20305e-07 0)
(2.95206e-06 -6.8949e-07 0)
(3.08273e-06 -6.59681e-07 0)
(3.21076e-06 -6.3034e-07 0)
(3.33637e-06 -6.00931e-07 0)
(3.45974e-06 -5.70913e-07 0)
(3.58109e-06 -5.39785e-07 0)
(3.70056e-06 -5.07042e-07 0)
(3.81838e-06 -4.72108e-07 0)
(3.93473e-06 -4.34471e-07 0)
(4.04981e-06 -3.93483e-07 0)
(4.1639e-06 -3.48417e-07 0)
(4.27714e-06 -2.98812e-07 0)
(1.7324e-06 -1.09556e-06 0)
(1.88584e-06 -1.03988e-06 0)
(2.0372e-06 -9.89269e-07 0)
(2.18587e-06 -9.42415e-07 0)
(2.33169e-06 -8.99219e-07 0)
(2.47449e-06 -8.59184e-07 0)
(2.61427e-06 -8.21789e-07 0)
(2.75107e-06 -7.86509e-07 0)
(2.885e-06 -7.52805e-07 0)
(3.01622e-06 -7.20156e-07 0)
(3.14488e-06 -6.8806e-07 0)
(3.27116e-06 -6.56007e-07 0)
(3.39524e-06 -6.23474e-07 0)
(3.51729e-06 -5.89987e-07 0)
(3.63748e-06 -5.55054e-07 0)
(3.75603e-06 -5.18135e-07 0)
(3.87311e-06 -4.7875e-07 0)
(3.98897e-06 -4.36295e-07 0)
(4.10387e-06 -3.90125e-07 0)
(4.21808e-06 -3.39858e-07 0)
(1.67909e-06 -1.17175e-06 0)
(1.82942e-06 -1.11641e-06 0)
(1.97834e-06 -1.06517e-06 0)
(2.12503e-06 -1.01704e-06 0)
(2.26943e-06 -9.72044e-07 0)
(2.41122e-06 -9.29843e-07 0)
(2.55037e-06 -8.90041e-07 0)
(2.68683e-06 -8.52223e-07 0)
(2.82068e-06 -8.15928e-07 0)
(2.952e-06 -7.80691e-07 0)
(3.08091e-06 -7.46062e-07 0)
(3.20752e-06 -7.1156e-07 0)
(3.33202e-06 -6.7669e-07 0)
(3.45454e-06 -6.41018e-07 0)
(3.57524e-06 -6.04069e-07 0)
(3.69436e-06 -5.65354e-07 0)
(3.81204e-06 -5.24422e-07 0)
(3.92855e-06 -4.80724e-07 0)
(4.04419e-06 -4.3371e-07 0)
(4.15924e-06 -3.83058e-07 0)
(1.63145e-06 -1.24472e-06 0)
(1.77854e-06 -1.18996e-06 0)
(1.92472e-06 -1.13844e-06 0)
(2.0691e-06 -1.08942e-06 0)
(2.21166e-06 -1.04304e-06 0)
(2.352e-06 -9.99071e-07 0)
(2.49007e-06 -9.57236e-07 0)
(2.62577e-06 -9.17221e-07 0)
(2.75914e-06 -8.78634e-07 0)
(2.89018e-06 -8.41074e-07 0)
(3.01899e-06 -8.04143e-07 0)
(3.14565e-06 -7.67401e-07 0)
(3.27029e-06 -7.30389e-07 0)
(3.39306e-06 -6.9272e-07 0)
(3.5141e-06 -6.53936e-07 0)
(3.63362e-06 -6.13611e-07 0)
(3.75177e-06 -5.71327e-07 0)
(3.86884e-06 -5.26598e-07 0)
(3.98512e-06 -4.78968e-07 0)
(4.10087e-06 -4.28143e-07 0)
(1.58847e-06 -1.31468e-06 0)
(1.7323e-06 -1.26063e-06 0)
(1.87558e-06 -1.20907e-06 0)
(2.01745e-06 -1.15948e-06 0)
(2.15787e-06 -1.11205e-06 0)
(2.29645e-06 -1.06666e-06 0)
(2.43311e-06 -1.02313e-06 0)
(2.56773e-06 -9.81236e-07 0)
(2.70027e-06 -9.40648e-07 0)
(2.83073e-06 -9.01032e-07 0)
(2.95916e-06 -8.62043e-07 0)
(3.08561e-06 -8.23285e-07 0)
(3.21019e-06 -7.8434e-07 0)
(3.33301e-06 -7.44874e-07 0)
(3.45422e-06 -7.04453e-07 0)
(3.57401e-06 -6.62709e-07 0)
(3.69253e-06 -6.19272e-07 0)
(3.81007e-06 -5.73716e-07 0)
(3.92687e-06 -5.25663e-07 0)
(4.04323e-06 -4.74842e-07 0)
(1.54923e-06 -1.38185e-06 0)
(1.68982e-06 -1.32858e-06 0)
(1.83015e-06 -1.27715e-06 0)
(1.96939e-06 -1.22722e-06 0)
(2.10751e-06 -1.17903e-06 0)
(2.24412e-06 -1.13251e-06 0)
(2.37916e-06 -1.08759e-06 0)
(2.51244e-06 -1.04411e-06 0)
(2.64392e-06 -1.0018e-06 0)
(2.77356e-06 -9.60392e-07 0)
(2.90139e-06 -9.19591e-07 0)
(3.02743e-06 -8.79047e-07 0)
(3.15177e-06 -8.38385e-07 0)
(3.2745e-06 -7.97326e-07 0)
(3.39575e-06 -7.55467e-07 0)
(3.5157e-06 -7.12497e-07 0)
(3.6345e-06 -6.68098e-07 0)
(3.75241e-06 -6.21894e-07 0)
(3.86962e-06 -5.73571e-07 0)
(3.98652e-06 -5.22917e-07 0)
(1.51294e-06 -1.44643e-06 0)
(1.65036e-06 -1.39397e-06 0)
(1.78776e-06 -1.3428e-06 0)
(1.92432e-06 -1.29271e-06 0)
(2.06006e-06 -1.24396e-06 0)
(2.19461e-06 -1.19657e-06 0)
(2.32786e-06 -1.15053e-06 0)
(2.45966e-06 -1.10573e-06 0)
(2.58991e-06 -1.06197e-06 0)
(2.71856e-06 -1.01901e-06 0)
(2.84563e-06 -9.76641e-07 0)
(2.9711e-06 -9.34537e-07 0)
(3.09506e-06 -8.92379e-07 0)
(3.21758e-06 -8.49931e-07 0)
(3.33875e-06 -8.06834e-07 0)
(3.45877e-06 -7.62827e-07 0)
(3.57773e-06 -7.17641e-07 0)
(3.69591e-06 -6.70942e-07 0)
(3.81345e-06 -6.22482e-07 0)
(3.93079e-06 -5.72135e-07 0)
(1.47889e-06 -1.50863e-06 0)
(1.61324e-06 -1.45699e-06 0)
(1.74776e-06 -1.40615e-06 0)
(1.88167e-06 -1.35602e-06 0)
(2.01503e-06 -1.30691e-06 0)
(2.14747e-06 -1.25886e-06 0)
(2.27887e-06 -1.21193e-06 0)
(2.40908e-06 -1.16605e-06 0)
(2.53798e-06 -1.12107e-06 0)
(2.66554e-06 -1.07681e-06 0)
(2.79172e-06 -1.0331e-06 0)
(2.91652e-06 -9.89656e-07 0)
(3.04e-06 -9.46212e-07 0)
(3.1622e-06 -9.02576e-07 0)
(3.28322e-06 -8.58432e-07 0)
(3.40321e-06 -8.13561e-07 0)
(3.52227e-06 -7.67739e-07 0)
(3.64061e-06 -7.20672e-07 0)
(3.75844e-06 -6.722e-07 0)
(3.87608e-06 -6.22243e-07 0)
(1.44647e-06 -1.56868e-06 0)
(1.57788e-06 -1.51781e-06 0)
(1.7096e-06 -1.46735e-06 0)
(1.84095e-06 -1.41729e-06 0)
(1.97196e-06 -1.36796e-06 0)
(2.10227e-06 -1.31943e-06 0)
(2.23179e-06 -1.27179e-06 0)
(2.36035e-06 -1.22505e-06 0)
(2.48786e-06 -1.17907e-06 0)
(2.61426e-06 -1.13373e-06 0)
(2.7395e-06 -1.08889e-06 0)
(2.86356e-06 -1.04432e-06 0)
(2.9865e-06 -9.99794e-07 0)
(3.10834e-06 -9.55162e-07 0)
(3.22915e-06 -9.10149e-07 0)
(3.34906e-06 -8.64572e-07 0)
(3.46813e-06 -8.18244e-07 0)
(3.58659e-06 -7.70929e-07 0)
(3.70462e-06 -7.22553e-07 0)
(3.82249e-06 -6.73014e-07 0)
(1.41515e-06 -1.62676e-06 0)
(1.54376e-06 -1.57662e-06 0)
(1.67279e-06 -1.52656e-06 0)
(1.80166e-06 -1.47665e-06 0)
(1.93036e-06 -1.42721e-06 0)
(2.05858e-06 -1.37833e-06 0)
(2.18624e-06 -1.33017e-06 0)
(2.31318e-06 -1.28274e-06 0)
(2.4393e-06 -1.23597e-06 0)
(2.56453e-06 -1.18975e-06 0)
(2.68881e-06 -1.14399e-06 0)
(2.81212e-06 -1.0985e-06 0)
(2.93448e-06 -1.05309e-06 0)
(3.05591e-06 -1.00764e-06 0)
(3.17645e-06 -9.61914e-07 0)
(3.29622e-06 -9.15766e-07 0)
(3.41525e-06 -8.69051e-07 0)
(3.53379e-06 -8.21593e-07 0)
(3.65191e-06 -7.73369e-07 0)
(3.76997e-06 -7.24291e-07 0)
(1.38444e-06 -1.68303e-06 0)
(1.51038e-06 -1.63359e-06 0)
(1.63684e-06 -1.58393e-06 0)
(1.76331e-06 -1.53421e-06 0)
(1.8898e-06 -1.48474e-06 0)
(2.01602e-06 -1.43565e-06 0)
(2.14189e-06 -1.38712e-06 0)
(2.26726e-06 -1.33919e-06 0)
(2.39202e-06 -1.29181e-06 0)
(2.5161e-06 -1.2449e-06 0)
(2.63943e-06 -1.19841e-06 0)
(2.76197e-06 -1.15217e-06 0)
(2.88375e-06 -1.10603e-06 0)
(3.00475e-06 -1.05992e-06 0)
(3.12499e-06 -1.01363e-06 0)
(3.24458e-06 -9.67025e-07 0)
(3.36354e-06 -9.20028e-07 0)
(3.4821e-06 -8.7251e-07 0)
(3.60027e-06 -8.24457e-07 0)
(3.71843e-06 -7.75883e-07 0)
(1.35379e-06 -1.73767e-06 0)
(1.4772e-06 -1.68887e-06 0)
(1.60123e-06 -1.63961e-06 0)
(1.72543e-06 -1.59011e-06 0)
(1.84983e-06 -1.54069e-06 0)
(1.97416e-06 -1.49151e-06 0)
(2.09835e-06 -1.44275e-06 0)
(2.22222e-06 -1.39446e-06 0)
(2.34571e-06 -1.34662e-06 0)
(2.4687e-06 -1.29919e-06 0)
(2.59113e-06 -1.25213e-06 0)
(2.71296e-06 -1.20532e-06 0)
(2.83418e-06 -1.15863e-06 0)
(2.95477e-06 -1.112e-06 0)
(3.07471e-06 -1.06525e-06 0)
(3.19412e-06 -1.0183e-06 0)
(3.313e-06 -9.71113e-07 0)
(3.43152e-06 -9.23586e-07 0)
(3.54975e-06 -8.75745e-07 0)
(3.66794e-06 -8.27646e-07 0)
(1.3227e-06 -1.79081e-06 0)
(1.44371e-06 -1.74264e-06 0)
(1.56542e-06 -1.69373e-06 0)
(1.68753e-06 -1.64449e-06 0)
(1.81e-06 -1.59521e-06 0)
(1.93261e-06 -1.54602e-06 0)
(2.05526e-06 -1.49714e-06 0)
(2.17778e-06 -1.44864e-06 0)
(2.30009e-06 -1.4005e-06 0)
(2.42208e-06 -1.3527e-06 0)
(2.54369e-06 -1.30523e-06 0)
(2.66485e-06 -1.25799e-06 0)
(2.78555e-06 -1.21087e-06 0)
(2.90574e-06 -1.16384e-06 0)
(3.02541e-06 -1.11674e-06 0)
(3.14464e-06 -1.06954e-06 0)
(3.26344e-06 -1.02223e-06 0)
(3.3819e-06 -9.74705e-07 0)
(3.50013e-06 -9.27097e-07 0)
(3.61835e-06 -8.79459e-07 0)
(1.29065e-06 -1.84265e-06 0)
(1.40932e-06 -1.79493e-06 0)
(1.52885e-06 -1.74646e-06 0)
(1.64913e-06 -1.69757e-06 0)
(1.76987e-06 -1.64846e-06 0)
(1.89095e-06 -1.59937e-06 0)
(2.01222e-06 -1.55047e-06 0)
(2.13355e-06 -1.50186e-06 0)
(2.25483e-06 -1.45353e-06 0)
(2.37597e-06 -1.40549e-06 0)
(2.49687e-06 -1.35775e-06 0)
(2.61746e-06 -1.31021e-06 0)
(2.7377e-06 -1.26277e-06 0)
(2.85754e-06 -1.21544e-06 0)
(2.97698e-06 -1.1681e-06 0)
(3.09608e-06 -1.12072e-06 0)
(3.21479e-06 -1.07329e-06 0)
(3.33323e-06 -1.0258e-06 0)
(3.4514e-06 -9.78429e-07 0)
(3.56962e-06 -9.312e-07 0)
(1.25689e-06 -1.89314e-06 0)
(1.37357e-06 -1.84593e-06 0)
(1.49131e-06 -1.79798e-06 0)
(1.60985e-06 -1.74944e-06 0)
(1.72909e-06 -1.7006e-06 0)
(1.84884e-06 -1.65167e-06 0)
(1.96895e-06 -1.60284e-06 0)
(2.08929e-06 -1.55423e-06 0)
(2.20973e-06 -1.50584e-06 0)
(2.33016e-06 -1.45767e-06 0)
(2.45049e-06 -1.40976e-06 0)
(2.5706e-06 -1.36203e-06 0)
(2.69047e-06 -1.31439e-06 0)
(2.81006e-06 -1.26684e-06 0)
(2.92934e-06 -1.21932e-06 0)
(3.04831e-06 -1.17181e-06 0)
(3.16693e-06 -1.12431e-06 0)
(3.28539e-06 -1.07684e-06 0)
(3.40359e-06 -1.02966e-06 0)
(3.52172e-06 -9.82833e-07 0)
(1.22094e-06 -1.94277e-06 0)
(1.3358e-06 -1.89614e-06 0)
(1.45194e-06 -1.84859e-06 0)
(1.56908e-06 -1.80043e-06 0)
(1.6871e-06 -1.7519e-06 0)
(1.80579e-06 -1.70319e-06 0)
(1.92503e-06 -1.65451e-06 0)
(2.04465e-06 -1.60597e-06 0)
(2.16449e-06 -1.55759e-06 0)
(2.2844e-06 -1.50939e-06 0)
(2.4043e-06 -1.46139e-06 0)
(2.52411e-06 -1.41352e-06 0)
(2.64375e-06 -1.36574e-06 0)
(2.76314e-06 -1.3181e-06 0)
(2.88228e-06 -1.27043e-06 0)
(3.00121e-06 -1.22277e-06 0)
(3.11986e-06 -1.17523e-06 0)
(3.23829e-06 -1.12779e-06 0)
(3.35654e-06 -1.0807e-06 0)
(3.47466e-06 -1.03419e-06 0)
(1.18238e-06 -1.99119e-06 0)
(1.29568e-06 -1.9452e-06 0)
(1.41048e-06 -1.89824e-06 0)
(1.52653e-06 -1.85056e-06 0)
(1.64365e-06 -1.80241e-06 0)
(1.76165e-06 -1.75401e-06 0)
(1.88034e-06 -1.70556e-06 0)
(1.99952e-06 -1.6572e-06 0)
(2.119e-06 -1.60891e-06 0)
(2.23866e-06 -1.5607e-06 0)
(2.35836e-06 -1.51269e-06 0)
(2.47797e-06 -1.46481e-06 0)
(2.59747e-06 -1.41694e-06 0)
(2.71678e-06 -1.36917e-06 0)
(2.83585e-06 -1.32144e-06 0)
(2.95473e-06 -1.2737e-06 0)
(3.07346e-06 -1.22609e-06 0)
(3.19195e-06 -1.17861e-06 0)
(3.31033e-06 -1.13154e-06 0)
(3.42849e-06 -1.0852e-06 0)
(8.50258e-08 -1.68097e-06 0)
(2.56171e-07 -1.6564e-06 0)
(4.30527e-07 -1.60819e-06 0)
(6.09957e-07 -1.53835e-06 0)
(7.9587e-07 -1.44953e-06 0)
(9.89156e-07 -1.34508e-06 0)
(1.19014e-06 -1.22884e-06 0)
(1.39844e-06 -1.10476e-06 0)
(1.61356e-06 -9.76834e-07 0)
(1.83361e-06 -8.48099e-07 0)
(8.27395e-08 -1.70985e-06 0)
(2.49158e-07 -1.68739e-06 0)
(4.18209e-07 -1.6433e-06 0)
(5.91476e-07 -1.57928e-06 0)
(7.70143e-07 -1.49759e-06 0)
(9.54929e-07 -1.40107e-06 0)
(1.14616e-06 -1.29298e-06 0)
(1.34332e-06 -1.17679e-06 0)
(1.54576e-06 -1.05605e-06 0)
(1.75162e-06 -9.33803e-07 0)
(8.06763e-08 -1.73939e-06 0)
(2.42819e-07 -1.71886e-06 0)
(4.07098e-07 -1.67848e-06 0)
(5.74751e-07 -1.61976e-06 0)
(7.46811e-07 -1.54466e-06 0)
(9.23825e-07 -1.45564e-06 0)
(1.10615e-06 -1.35549e-06 0)
(1.2935e-06 -1.24717e-06 0)
(1.48542e-06 -1.13373e-06 0)
(1.68055e-06 -1.01747e-06 0)
(7.88451e-08 -1.76964e-06 0)
(2.37171e-07 -1.75073e-06 0)
(3.97316e-07 -1.71353e-06 0)
(5.6019e-07 -1.65935e-06 0)
(7.26705e-07 -1.58992e-06 0)
(8.97264e-07 -1.50738e-06 0)
(1.07213e-06 -1.41426e-06 0)
(1.25105e-06 -1.31314e-06 0)
(1.43357e-06 -1.20688e-06 0)
(1.61861e-06 -1.09744e-06 0)
(7.71765e-08 -1.80058e-06 0)
(2.31983e-07 -1.78314e-06 0)
(3.88329e-07 -1.74879e-06 0)
(5.46885e-07 -1.6987e-06 0)
(7.08433e-07 -1.63441e-06 0)
(8.73291e-07 -1.55785e-06 0)
(1.04169e-06 -1.47124e-06 0)
(1.21341e-06 -1.37679e-06 0)
(1.38809e-06 -1.27712e-06 0)
(1.56454e-06 -1.17403e-06 0)
(7.56051e-08 -1.83218e-06 0)
(2.27195e-07 -1.816e-06 0)
(3.80058e-07 -1.78413e-06 0)
(5.34758e-07 -1.73764e-06 0)
(6.91925e-07 -1.67787e-06 0)
(8.51828e-07 -1.6066e-06 0)
(1.01458e-06 -1.52585e-06 0)
(1.17998e-06 -1.43755e-06 0)
(1.34782e-06 -1.3441e-06 0)
(1.5168e-06 -1.24726e-06 0)
(7.40979e-08 -1.8644e-06 0)
(2.22647e-07 -1.84935e-06 0)
(3.72245e-07 -1.81971e-06 0)
(5.23405e-07 -1.77643e-06 0)
(6.76583e-07 -1.72075e-06 0)
(8.32058e-07 -1.65426e-06 0)
(9.89883e-07 -1.57881e-06 0)
(1.1498e-06 -1.49613e-06 0)
(1.31175e-06 -1.40837e-06 0)
(1.47433e-06 -1.31732e-06 0)
(7.26811e-08 -1.89717e-06 0)
(2.18296e-07 -1.88314e-06 0)
(3.64808e-07 -1.85546e-06 0)
(5.12673e-07 -1.81505e-06 0)
(6.62216e-07 -1.76301e-06 0)
(8.13674e-07 -1.7008e-06 0)
(9.67105e-07 -1.63015e-06 0)
(1.1222e-06 -1.55261e-06 0)
(1.27901e-06 -1.47011e-06 0)
(1.43608e-06 -1.38445e-06 0)
(7.13029e-08 -1.93045e-06 0)
(2.14057e-07 -1.91732e-06 0)
(3.57615e-07 -1.89142e-06 0)
(5.02341e-07 -1.85358e-06 0)
(6.48507e-07 -1.80483e-06 0)
(7.96306e-07 -1.74649e-06 0)
(9.45769e-07 -1.68017e-06 0)
(1.09659e-06 -1.60733e-06 0)
(1.24887e-06 -1.52963e-06 0)
(1.40118e-06 -1.44891e-06 0)
(6.99108e-08 -1.96417e-06 0)
(2.0988e-07 -1.95186e-06 0)
(3.50571e-07 -1.92754e-06 0)
(4.92284e-07 -1.89202e-06 0)
(6.35244e-07 -1.84624e-06 0)
(7.79653e-07 -1.7914e-06 0)
(9.25488e-07 -1.729e-06 0)
(1.07245e-06 -1.66042e-06 0)
(1.2207e-06 -1.58713e-06 0)
(1.36885e-06 -1.51092e-06 0)
(6.85052e-08 -1.99826e-06 0)
(2.05732e-07 -1.98669e-06 0)
(3.43576e-07 -1.96382e-06 0)
(4.82357e-07 -1.93039e-06 0)
(6.22235e-07 -1.8873e-06 0)
(7.63435e-07 -1.83563e-06 0)
(9.0591e-07 -1.77679e-06 0)
(1.04936e-06 -1.71209e-06 0)
(1.19396e-06 -1.64282e-06 0)
(1.33842e-06 -1.57073e-06 0)
(6.71055e-08 -2.03265e-06 0)
(2.01573e-07 -2.02177e-06 0)
(3.36549e-07 -2.00021e-06 0)
(4.72433e-07 -1.96866e-06 0)
(6.09318e-07 -1.92801e-06 0)
(7.47426e-07 -1.87923e-06 0)
(8.86732e-07 -1.82364e-06 0)
(1.02693e-06 -1.76247e-06 0)
(1.16818e-06 -1.69688e-06 0)
(1.30935e-06 -1.62855e-06 0)
(6.56958e-08 -2.06728e-06 0)
(1.97326e-07 -2.057e-06 0)
(3.29394e-07 -2.03665e-06 0)
(4.62364e-07 -2.00683e-06 0)
(5.96301e-07 -1.9684e-06 0)
(7.31391e-07 -1.92227e-06 0)
(8.67654e-07 -1.86963e-06 0)
(1.0048e-06 -1.81168e-06 0)
(1.14296e-06 -1.74945e-06 0)
(1.28116e-06 -1.68455e-06 0)
(6.42328e-08 -2.10204e-06 0)
(1.92905e-07 -2.09232e-06 0)
(3.22003e-07 -2.07307e-06 0)
(4.52001e-07 -2.04485e-06 0)
(5.8298e-07 -2.00845e-06 0)
(7.15088e-07 -1.96474e-06 0)
(8.48383e-07 -1.91482e-06 0)
(9.82606e-07 -1.85981e-06 0)
(1.11788e-06 -1.80069e-06 0)
(1.25335e-06 -1.73893e-06 0)
(6.26822e-08 -2.13686e-06 0)
(1.8825e-07 -2.12765e-06 0)
(3.14281e-07 -2.10942e-06 0)
(4.4121e-07 -2.08267e-06 0)
(5.69165e-07 -2.04815e-06 0)
(6.98274e-07 -2.00668e-06 0)
(8.28623e-07 -1.95927e-06 0)
(9.60013e-07 -1.90698e-06 0)
(1.09252e-06 -1.85072e-06 0)
(1.22541e-06 -1.79183e-06 0)
(6.1033e-08 -2.17158e-06 0)
(1.83329e-07 -2.16284e-06 0)
(3.0614e-07 -2.14556e-06 0)
(4.29857e-07 -2.12019e-06 0)
(5.54666e-07 -2.08743e-06 0)
(6.80705e-07 -2.04802e-06 0)
(8.08085e-07 -2.00294e-06 0)
(9.36669e-07 -1.95318e-06 0)
(1.06645e-06 -1.89958e-06 0)
(1.19688e-06 -1.84335e-06 0)
(5.92783e-08 -2.20614e-06 0)
(1.78087e-07 -2.19785e-06 0)
(2.97459e-07 -2.18148e-06 0)
(4.17766e-07 -2.1574e-06 0)
(5.39264e-07 -2.12628e-06 0)
(6.62106e-07 -2.08883e-06 0)
(7.86435e-07 -2.04594e-06 0)
(9.12137e-07 -1.99856e-06 0)
(1.03921e-06 -1.94743e-06 0)
(1.16718e-06 -1.89368e-06 0)
(5.73946e-08 -2.24023e-06 0)
(1.72437e-07 -2.23237e-06 0)
(2.88093e-07 -2.21685e-06 0)
(4.04741e-07 -2.19401e-06 0)
(5.22701e-07 -2.16446e-06 0)
(6.42166e-07 -2.12886e-06 0)
(7.63293e-07 -2.08807e-06 0)
(8.85981e-07 -2.04293e-06 0)
(1.01029e-06 -1.99416e-06 0)
(1.1358e-06 -1.94276e-06 0)
(5.53342e-08 -2.27397e-06 0)
(1.66246e-07 -2.26653e-06 0)
(2.77832e-07 -2.25183e-06 0)
(3.90515e-07 -2.23019e-06 0)
(5.04647e-07 -2.20216e-06 0)
(6.20475e-07 -2.16837e-06 0)
(7.38169e-07 -2.12958e-06 0)
(8.57697e-07 -2.08661e-06 0)
(9.79092e-07 -2.04011e-06 0)
(1.10209e-06 -1.99096e-06 0)
(5.30727e-08 -2.3065e-06 0)
(1.59466e-07 -2.29947e-06 0)
(2.666e-07 -2.28559e-06 0)
(3.7495e-07 -2.26515e-06 0)
(4.84928e-07 -2.23863e-06 0)
(5.9682e-07 -2.20663e-06 0)
(7.10809e-07 -2.16985e-06 0)
(8.26998e-07 -2.12903e-06 0)
(9.45332e-07 -2.08479e-06 0)
(1.06574e-06 -2.0379e-06 0)
)


// ************************************************************************* //
