/*--------------------------------*- C++ -*----------------------------------*\
| =========                 |                                                 |
| \\      /  F ield         | foam-extend: Open Source CFD                    |
|  \\    /   O peration     | Version:     4.1                                |
|   \\  /    A nd           | Web:         http://www.foam-extend.org         |
|    \\/     M anipulation  |                                                 |
\*---------------------------------------------------------------------------*/
FoamFile
{
    version     2.0;
    format      ascii;
    class       vectorField;
    location    "4";
    object      solidsCellD_iteration4;
}
// * * * * * * * * * * * * * * * * * * * * * * * * * * * * * * * * * * * * * //


1000
(
(1.95237e-06 -7.63277e-07 0)
(1.85066e-06 -7.1417e-07 0)
(1.78699e-06 -6.84633e-07 0)
(1.75203e-06 -6.72848e-07 0)
(1.73692e-06 -6.71321e-07 0)
(1.73635e-06 -6.77689e-07 0)
(1.74649e-06 -6.89297e-07 0)
(1.76462e-06 -7.04925e-07 0)
(1.7887e-06 -7.23255e-07 0)
(1.81596e-06 -7.44151e-07 0)
(1.76672e-06 -8.33791e-07 0)
(1.6582e-06 -8.01206e-07 0)
(1.59e-06 -7.82264e-07 0)
(1.55165e-06 -7.7774e-07 0)
(1.53379e-06 -7.811e-07 0)
(1.53046e-06 -7.91003e-07 0)
(1.53779e-06 -8.05184e-07 0)
(1.5529e-06 -8.22687e-07 0)
(1.5737e-06 -8.42465e-07 0)
(1.59779e-06 -8.64066e-07 0)
(1.57324e-06 -9.00617e-07 0)
(1.46225e-06 -8.86455e-07 0)
(1.39248e-06 -8.79197e-07 0)
(1.35241e-06 -8.82577e-07 0)
(1.3328e-06 -8.91133e-07 0)
(1.32751e-06 -9.04644e-07 0)
(1.33257e-06 -9.21304e-07 0)
(1.34522e-06 -9.40452e-07 0)
(1.36332e-06 -9.6142e-07 0)
(1.38481e-06 -9.8359e-07 0)
(1.37364e-06 -9.62553e-07 0)
(1.26483e-06 -9.67668e-07 0)
(1.19642e-06 -9.72589e-07 0)
(1.15656e-06 -9.84139e-07 0)
(1.13634e-06 -9.9803e-07 0)
(1.12982e-06 -1.01513e-06 0)
(1.13316e-06 -1.03419e-06 0)
(1.14366e-06 -1.05495e-06 0)
(1.15935e-06 -1.0771e-06 0)
(1.17828e-06 -1.09995e-06 0)
(1.16921e-06 -1.01834e-06 0)
(1.06729e-06 -1.04254e-06 0)
(1.0031e-06 -1.05956e-06 0)
(9.65396e-07 -1.07913e-06 0)
(9.4586e-07 -1.09819e-06 0)
(9.38872e-07 -1.11878e-06 0)
(9.4092e-07 -1.14015e-06 0)
(9.49441e-07 -1.16248e-06 0)
(9.62783e-07 -1.18574e-06 0)
(9.7908e-07 -1.20938e-06 0)
(9.61066e-07 -1.06687e-06 0)
(8.70446e-07 -1.10889e-06 0)
(8.13386e-07 -1.13719e-06 0)
(7.79673e-07 -1.16424e-06 0)
(7.61959e-07 -1.18814e-06 0)
(7.55135e-07 -1.21198e-06 0)
(7.56267e-07 -1.23547e-06 0)
(7.63044e-07 -1.25928e-06 0)
(7.74058e-07 -1.28358e-06 0)
(7.87588e-07 -1.30803e-06 0)
(7.5011e-07 -1.10708e-06 0)
(6.74938e-07 -1.16469e-06 0)
(6.27585e-07 -1.20288e-06 0)
(5.99465e-07 -1.23647e-06 0)
(5.8451e-07 -1.26458e-06 0)
(5.7851e-07 -1.29126e-06 0)
(5.79064e-07 -1.31661e-06 0)
(5.84226e-07 -1.34174e-06 0)
(5.92859e-07 -1.36697e-06 0)
(6.03498e-07 -1.39221e-06 0)
(5.37144e-07 -1.13805e-06 0)
(4.8084e-07 -1.20819e-06 0)
(4.45364e-07 -1.25432e-06 0)
(4.24264e-07 -1.29315e-06 0)
(4.12912e-07 -1.32464e-06 0)
(4.0823e-07 -1.35358e-06 0)
(4.0844e-07 -1.38044e-06 0)
(4.12075e-07 -1.40664e-06 0)
(4.18285e-07 -1.4326e-06 0)
(4.25926e-07 -1.45849e-06 0)
(3.22865e-07 -1.1591e-06 0)
(2.88032e-07 -1.23799e-06 0)
(2.66055e-07 -1.28967e-06 0)
(2.52904e-07 -1.33217e-06 0)
(2.45786e-07 -1.36604e-06 0)
(2.42851e-07 -1.39658e-06 0)
(2.4294e-07 -1.4245e-06 0)
(2.45077e-07 -1.45147e-06 0)
(2.48775e-07 -1.47799e-06 0)
(2.53366e-07 -1.5044e-06 0)
(1.07848e-07 -1.16971e-06 0)
(9.59975e-08 -1.25308e-06 0)
(8.85288e-08 -1.30765e-06 0)
(8.40952e-08 -1.35206e-06 0)
(8.16857e-08 -1.38712e-06 0)
(8.06414e-08 -1.41848e-06 0)
(8.06318e-08 -1.44694e-06 0)
(8.1345e-08 -1.47428e-06 0)
(8.2577e-08 -1.50106e-06 0)
(8.40939e-08 -1.52771e-06 0)
(3.03106e-06 -3.48167e-08 0)
(3.0573e-06 -2.5262e-08 0)
(3.07489e-06 -1.92772e-08 0)
(3.09463e-06 -1.58288e-08 0)
(3.11676e-06 -1.40172e-08 0)
(3.14369e-06 -1.32899e-08 0)
(3.17531e-06 -1.32603e-08 0)
(3.21177e-06 -1.37417e-08 0)
(3.25297e-06 -1.45793e-08 0)
(3.29841e-06 -1.55159e-08 0)
(3.00902e-06 -1.0444e-07 0)
(3.03096e-06 -7.63337e-08 0)
(3.04591e-06 -5.88109e-08 0)
(3.06385e-06 -4.87574e-08 0)
(3.08479e-06 -4.34348e-08 0)
(3.11085e-06 -4.13409e-08 0)
(3.14187e-06 -4.13879e-08 0)
(3.17786e-06 -4.28546e-08 0)
(3.21866e-06 -4.53149e-08 0)
(3.26366e-06 -4.81455e-08 0)
(2.96486e-06 -1.74681e-07 0)
(2.97867e-06 -1.29569e-07 0)
(2.98851e-06 -1.01466e-07 0)
(3.00309e-06 -8.54343e-08 0)
(3.02179e-06 -7.70376e-08 0)
(3.04628e-06 -7.37925e-08 0)
(3.07615e-06 -7.39762e-08 0)
(3.11114e-06 -7.64634e-08 0)
(3.15112e-06 -8.05751e-08 0)
(3.1953e-06 -8.53252e-08 0)
(2.89941e-06 -2.45783e-07 0)
(2.90172e-06 -1.8618e-07 0)
(2.90422e-06 -1.49088e-07 0)
(2.91402e-06 -1.28043e-07 0)
(2.92951e-06 -1.17131e-07 0)
(2.95167e-06 -1.13076e-07 0)
(2.97985e-06 -1.13598e-07 0)
(3.01354e-06 -1.17216e-07 0)
(3.05239e-06 -1.22996e-07 0)
(3.09545e-06 -1.29644e-07 0)
(2.81359e-06 -3.17984e-07 0)
(2.80172e-06 -2.47219e-07 0)
(2.79517e-06 -2.03216e-07 0)
(2.79894e-06 -1.7846e-07 0)
(2.81047e-06 -1.65802e-07 0)
(2.82983e-06 -1.61408e-07 0)
(2.85591e-06 -1.62526e-07 0)
(2.88796e-06 -1.67363e-07 0)
(2.92538e-06 -1.74787e-07 0)
(2.96707e-06 -1.83307e-07 0)
(2.7087e-06 -3.91299e-07 0)
(2.68072e-06 -3.13325e-07 0)
(2.66393e-06 -2.64878e-07 0)
(2.66089e-06 -2.37981e-07 0)
(2.66794e-06 -2.24534e-07 0)
(2.6841e-06 -2.20345e-07 0)
(2.70782e-06 -2.22311e-07 0)
(2.73797e-06 -2.28463e-07 0)
(2.77377e-06 -2.37513e-07 0)
(2.81401e-06 -2.4788e-07 0)
(2.58616e-06 -4.65591e-07 0)
(2.54117e-06 -3.84765e-07 0)
(2.51359e-06 -3.34628e-07 0)
(2.50335e-06 -3.07333e-07 0)
(2.50559e-06 -2.94151e-07 0)
(2.51835e-06 -2.90769e-07 0)
(2.53952e-06 -2.93878e-07 0)
(2.56759e-06 -3.01472e-07 0)
(2.60163e-06 -3.12166e-07 0)
(2.64042e-06 -3.24342e-07 0)
(2.44755e-06 -5.40555e-07 0)
(2.38566e-06 -4.61404e-07 0)
(2.34735e-06 -4.1244e-07 0)
(2.32992e-06 -3.86519e-07 0)
(2.3273e-06 -3.74699e-07 0)
(2.33659e-06 -3.72775e-07 0)
(2.35516e-06 -3.77366e-07 0)
(2.38115e-06 -3.86557e-07 0)
(2.41336e-06 -3.98892e-07 0)
(2.4507e-06 -4.12831e-07 0)
(2.29456e-06 -6.15658e-07 0)
(2.21692e-06 -5.42637e-07 0)
(2.1687e-06 -4.9765e-07 0)
(2.14453e-06 -4.74876e-07 0)
(2.13728e-06 -4.65512e-07 0)
(2.14315e-06 -4.65721e-07 0)
(2.15905e-06 -4.72198e-07 0)
(2.18286e-06 -4.83131e-07 0)
(2.21303e-06 -4.97165e-07 0)
(2.24882e-06 -5.1272e-07 0)
(2.12896e-06 -6.90166e-07 0)
(2.0377e-06 -6.27359e-07 0)
(1.98084e-06 -5.88981e-07 0)
(1.95074e-06 -5.71023e-07 0)
(1.9393e-06 -5.65142e-07 0)
(1.94187e-06 -5.68157e-07 0)
(1.95509e-06 -5.76978e-07 0)
(1.97666e-06 -5.90068e-07 0)
(2.00484e-06 -6.06091e-07 0)
(2.03857e-06 -6.24029e-07 0)
(3.34796e-06 -1.64295e-08 0)
(3.40188e-06 -1.6751e-08 0)
(3.45913e-06 -1.70694e-08 0)
(3.51948e-06 -1.73113e-08 0)
(3.58254e-06 -1.7466e-08 0)
(3.64813e-06 -1.75345e-08 0)
(3.71603e-06 -1.75204e-08 0)
(3.78596e-06 -1.74311e-08 0)
(3.85764e-06 -1.72394e-08 0)
(3.93091e-06 -1.6926e-08 0)
(4.00558e-06 -1.64843e-08 0)
(4.08145e-06 -1.59169e-08 0)
(4.1583e-06 -1.52238e-08 0)
(4.23595e-06 -1.43944e-08 0)
(4.31423e-06 -1.3405e-08 0)
(4.39286e-06 -1.22317e-08 0)
(4.47171e-06 -1.08509e-08 0)
(4.55031e-06 -9.23713e-09 0)
(4.62875e-06 -7.35306e-09 0)
(4.70598e-06 -5.1896e-09 0)
(3.31473e-06 -5.0777e-08 0)
(3.37139e-06 -5.15469e-08 0)
(3.43109e-06 -5.23086e-08 0)
(3.49357e-06 -5.28776e-08 0)
(3.55861e-06 -5.32247e-08 0)
(3.62596e-06 -5.33539e-08 0)
(3.69541e-06 -5.32294e-08 0)
(3.76673e-06 -5.28474e-08 0)
(3.83972e-06 -5.21582e-08 0)
(3.91417e-06 -5.11489e-08 0)
(3.98993e-06 -4.98046e-08 0)
(4.0668e-06 -4.81056e-08 0)
(4.14462e-06 -4.60212e-08 0)
(4.2232e-06 -4.35093e-08 0)
(4.30234e-06 -4.05122e-08 0)
(4.38177e-06 -3.69756e-08 0)
(4.46138e-06 -3.28304e-08 0)
(4.54072e-06 -2.79999e-08 0)
(4.61992e-06 -2.23686e-08 0)
(4.69795e-06 -1.58944e-08 0)
(3.24927e-06 -8.92023e-08 0)
(3.3113e-06 -8.97935e-08 0)
(3.3759e-06 -9.04461e-08 0)
(3.44262e-06 -9.09392e-08 0)
(3.51142e-06 -9.11438e-08 0)
(3.58214e-06 -9.10629e-08 0)
(3.6547e-06 -9.0607e-08 0)
(3.72887e-06 -8.97618e-08 0)
(3.80443e-06 -8.84471e-08 0)
(3.88124e-06 -8.66462e-08 0)
(3.95919e-06 -8.43206e-08 0)
(4.03813e-06 -8.14211e-08 0)
(4.1179e-06 -7.78851e-08 0)
(4.19829e-06 -7.36421e-08 0)
(4.27913e-06 -6.86051e-08 0)
(4.36021e-06 -6.26837e-08 0)
(4.44139e-06 -5.57576e-08 0)
(4.52224e-06 -4.77099e-08 0)
(4.60291e-06 -3.83515e-08 0)
(4.68237e-06 -2.75994e-08 0)
(3.15365e-06 -1.34005e-07 0)
(3.22338e-06 -1.33452e-07 0)
(3.29498e-06 -1.33137e-07 0)
(3.36784e-06 -1.3292e-07 0)
(3.44223e-06 -1.32459e-07 0)
(3.51794e-06 -1.31753e-07 0)
(3.595e-06 -1.30623e-07 0)
(3.67323e-06 -1.29035e-07 0)
(3.75254e-06 -1.26874e-07 0)
(3.83285e-06 -1.24112e-07 0)
(3.91405e-06 -1.20671e-07 0)
(3.99602e-06 -1.16462e-07 0)
(4.07859e-06 -1.11385e-07 0)
(4.16161e-06 -1.05348e-07 0)
(4.24495e-06 -9.82382e-08 0)
(4.32843e-06 -8.9913e-08 0)
(4.41192e-06 -8.02009e-08 0)
(4.49505e-06 -6.89429e-08 0)
(4.57793e-06 -5.58712e-08 0)
(4.65952e-06 -4.08774e-08 0)
(3.03049e-06 -1.87224e-07 0)
(3.10994e-06 -1.84321e-07 0)
(3.19054e-06 -1.81941e-07 0)
(3.27127e-06 -1.8017e-07 0)
(3.35279e-06 -1.78331e-07 0)
(3.43489e-06 -1.76424e-07 0)
(3.51779e-06 -1.74171e-07 0)
(3.60132e-06 -1.71485e-07 0)
(3.68553e-06 -1.68206e-07 0)
(3.77034e-06 -1.64254e-07 0)
(3.85571e-06 -1.59501e-07 0)
(3.94153e-06 -1.53819e-07 0)
(4.02771e-06 -1.47084e-07 0)
(4.11415e-06 -1.39171e-07 0)
(4.20077e-06 -1.29929e-07 0)
(4.28733e-06 -1.19167e-07 0)
(4.37382e-06 -1.06668e-07 0)
(4.45979e-06 -9.22207e-08 0)
(4.54551e-06 -7.54784e-08 0)
(4.62989e-06 -5.62948e-08 0)
(2.88345e-06 -2.50318e-07 0)
(2.97412e-06 -2.43666e-07 0)
(3.06523e-06 -2.3792e-07 0)
(3.15519e-06 -2.33568e-07 0)
(3.24522e-06 -2.29516e-07 0)
(3.33497e-06 -2.25746e-07 0)
(3.42491e-06 -2.21842e-07 0)
(3.51483e-06 -2.1762e-07 0)
(3.60487e-06 -2.1286e-07 0)
(3.69506e-06 -2.07425e-07 0)
(3.78542e-06 -2.01134e-07 0)
(3.87591e-06 -1.93813e-07 0)
(3.96647e-06 -1.85299e-07 0)
(4.05702e-06 -1.75434e-07 0)
(4.14755e-06 -1.6401e-07 0)
(4.2378e-06 -1.50791e-07 0)
(4.32786e-06 -1.35516e-07 0)
(4.41728e-06 -1.1792e-07 0)
(4.50639e-06 -9.75719e-08 0)
(4.59414e-06 -7.42612e-08 0)
(2.71639e-06 -3.24252e-07 0)
(2.81938e-06 -3.1239e-07 0)
(2.92225e-06 -3.0197e-07 0)
(3.02263e-06 -2.93952e-07 0)
(3.12225e-06 -2.86813e-07 0)
(3.22069e-06 -2.80446e-07 0)
(3.31848e-06 -2.74275e-07 0)
(3.41562e-06 -2.68018e-07 0)
(3.51234e-06 -2.61377e-07 0)
(3.60869e-06 -2.5413e-07 0)
(3.70477e-06 -2.46039e-07 0)
(3.80058e-06 -2.36877e-07 0)
(3.89612e-06 -2.26433e-07 0)
(3.99137e-06 -2.14504e-07 0)
(4.08631e-06 -2.00826e-07 0)
(4.1808e-06 -1.85123e-07 0)
(4.27495e-06 -1.67085e-07 0)
(4.36835e-06 -1.46376e-07 0)
(4.46135e-06 -1.22466e-07 0)
(4.55296e-06 -9.50883e-08 0)
(2.53337e-06 -4.09211e-07 0)
(2.6493e-06 -3.90558e-07 0)
(2.76465e-06 -3.74174e-07 0)
(2.87633e-06 -3.61282e-07 0)
(2.98631e-06 -3.50106e-07 0)
(3.09428e-06 -3.40311e-07 0)
(3.20076e-06 -3.31212e-07 0)
(3.30589e-06 -3.22392e-07 0)
(3.40996e-06 -3.13458e-07 0)
(3.51312e-06 -3.04076e-07 0)
(3.61552e-06 -2.93941e-07 0)
(3.71718e-06 -2.82764e-07 0)
(3.81817e-06 -2.70279e-07 0)
(3.91856e-06 -2.56224e-07 0)
(4.01836e-06 -2.40281e-07 0)
(4.11753e-06 -2.22122e-07 0)
(4.2162e-06 -2.01367e-07 0)
(4.31397e-06 -1.77605e-07 0)
(4.41126e-06 -1.50204e-07 0)
(4.50715e-06 -1.18847e-07 0)
(2.33846e-06 -5.05159e-07 0)
(2.46786e-06 -4.78274e-07 0)
(2.59602e-06 -4.55037e-07 0)
(2.71958e-06 -4.36196e-07 0)
(2.84046e-06 -4.2017e-07 0)
(2.95846e-06 -4.06181e-07 0)
(3.07414e-06 -3.93503e-07 0)
(3.18776e-06 -3.81552e-07 0)
(3.29965e-06 -3.6983e-07 0)
(3.41005e-06 -3.57904e-07 0)
(3.51914e-06 -3.45394e-07 0)
(3.62703e-06 -3.31942e-07 0)
(3.73386e-06 -3.17226e-07 0)
(3.83976e-06 -3.00917e-07 0)
(3.94478e-06 -2.82629e-07 0)
(4.04896e-06 -2.6198e-07 0)
(4.15245e-06 -2.38506e-07 0)
(4.25492e-06 -2.11719e-07 0)
(4.35679e-06 -1.80892e-07 0)
(4.45732e-06 -1.45672e-07 0)
(2.13538e-06 -6.1102e-07 0)
(2.27926e-06 -5.73685e-07 0)
(2.42027e-06 -5.42684e-07 0)
(2.55625e-06 -5.16821e-07 0)
(2.68836e-06 -4.94966e-07 0)
(2.81679e-06 -4.75999e-07 0)
(2.94202e-06 -4.59112e-07 0)
(3.06442e-06 -4.43556e-07 0)
(3.1844e-06 -4.28695e-07 0)
(3.30227e-06 -4.13987e-07 0)
(3.41828e-06 -3.98952e-07 0)
(3.5326e-06 -3.83147e-07 0)
(3.64546e-06 -3.66171e-07 0)
(3.75703e-06 -3.47623e-07 0)
(3.86741e-06 -3.27047e-07 0)
(3.97672e-06 -3.04001e-07 0)
(4.08511e-06 -2.77933e-07 0)
(4.19239e-06 -2.48283e-07 0)
(4.29898e-06 -2.1423e-07 0)
(4.40433e-06 -1.75368e-07 0)
(1.98037e-06 -7.16072e-07 0)
(2.13639e-06 -6.68613e-07 0)
(2.28628e-06 -6.31149e-07 0)
(2.43061e-06 -5.99284e-07 0)
(2.57012e-06 -5.72057e-07 0)
(2.7054e-06 -5.48272e-07 0)
(2.83698e-06 -5.2704e-07 0)
(2.96528e-06 -5.07558e-07 0)
(3.09072e-06 -4.89135e-07 0)
(3.21366e-06 -4.71175e-07 0)
(3.33435e-06 -4.53144e-07 0)
(3.45299e-06 -4.34549e-07 0)
(3.56986e-06 -4.14935e-07 0)
(3.68518e-06 -3.93852e-07 0)
(3.79902e-06 -3.70798e-07 0)
(3.91162e-06 -3.45289e-07 0)
(4.02308e-06 -3.16727e-07 0)
(4.13338e-06 -2.84528e-07 0)
(4.2429e-06 -2.47854e-07 0)
(4.35131e-06 -2.06263e-07 0)
(1.89363e-06 -8.02914e-07 0)
(2.05057e-06 -7.53196e-07 0)
(2.20202e-06 -7.11718e-07 0)
(2.34876e-06 -6.75807e-07 0)
(2.49093e-06 -6.44564e-07 0)
(2.62897e-06 -6.16919e-07 0)
(2.76326e-06 -5.91989e-07 0)
(2.89419e-06 -5.68996e-07 0)
(3.02212e-06 -5.47256e-07 0)
(3.14737e-06 -5.26171e-07 0)
(3.27017e-06 -5.05193e-07 0)
(3.39073e-06 -4.83815e-07 0)
(3.50936e-06 -4.61572e-07 0)
(3.62625e-06 -4.37992e-07 0)
(3.74148e-06 -4.12567e-07 0)
(3.85537e-06 -3.84805e-07 0)
(3.96796e-06 -3.54109e-07 0)
(4.07937e-06 -3.1992e-07 0)
(4.18992e-06 -2.81441e-07 0)
(4.29947e-06 -2.38207e-07 0)
(1.82134e-06 -8.85273e-07 0)
(1.9764e-06 -8.34765e-07 0)
(2.12756e-06 -7.9099e-07 0)
(2.27475e-06 -7.52139e-07 0)
(2.41802e-06 -7.17619e-07 0)
(2.55746e-06 -6.86584e-07 0)
(2.69338e-06 -6.58264e-07 0)
(2.82601e-06 -6.31959e-07 0)
(2.95564e-06 -6.07025e-07 0)
(3.08253e-06 -5.82882e-07 0)
(3.20689e-06 -5.58986e-07 0)
(3.32892e-06 -5.34836e-07 0)
(3.44892e-06 -5.09965e-07 0)
(3.56707e-06 -4.83895e-07 0)
(3.68346e-06 -4.56124e-07 0)
(3.79841e-06 -4.26166e-07 0)
(3.91198e-06 -3.93443e-07 0)
(4.02437e-06 -3.57431e-07 0)
(4.13585e-06 -3.17369e-07 0)
(4.24645e-06 -2.72769e-07 0)
(1.75831e-06 -9.6426e-07 0)
(1.91093e-06 -9.13522e-07 0)
(2.06074e-06 -8.68224e-07 0)
(2.20727e-06 -8.27127e-07 0)
(2.35051e-06 -7.899e-07 0)
(2.49038e-06 -7.55921e-07 0)
(2.62703e-06 -7.24565e-07 0)
(2.76058e-06 -6.95223e-07 0)
(2.89125e-06 -6.67304e-07 0)
(3.01922e-06 -6.40264e-07 0)
(3.14467e-06 -6.13582e-07 0)
(3.26777e-06 -5.86771e-07 0)
(3.38882e-06 -5.59378e-07 0)
(3.50796e-06 -5.30927e-07 0)
(3.62529e-06 -5.00935e-07 0)
(3.74115e-06 -4.6893e-07 0)
(3.85557e-06 -4.34369e-07 0)
(3.96883e-06 -3.96755e-07 0)
(4.08116e-06 -3.55354e-07 0)
(4.19271e-06 -3.09711e-07 0)
(1.70306e-06 -1.03987e-06 0)
(1.85285e-06 -9.89279e-07 0)
(2.00061e-06 -9.4309e-07 0)
(2.14574e-06 -9.00383e-07 0)
(2.28815e-06 -8.61029e-07 0)
(2.42766e-06 -8.24598e-07 0)
(2.56432e-06 -7.90609e-07 0)
(2.69812e-06 -7.58548e-07 0)
(2.82922e-06 -7.27896e-07 0)
(2.95777e-06 -6.9816e-07 0)
(3.08388e-06 -6.68855e-07 0)
(3.20769e-06 -6.39526e-07 0)
(3.32948e-06 -6.0974e-07 0)
(3.44936e-06 -5.79039e-07 0)
(3.56743e-06 -5.4696e-07 0)
(3.68403e-06 -5.13056e-07 0)
(3.79918e-06 -4.76821e-07 0)
(3.9132e-06 -4.37782e-07 0)
(4.0263e-06 -3.95245e-07 0)
(4.13873e-06 -3.48873e-07 0)
(1.65404e-06 -1.1123e-06 0)
(1.80081e-06 -1.06212e-06 0)
(1.94619e-06 -1.01543e-06 0)
(2.08942e-06 -9.71575e-07 0)
(2.23045e-06 -9.30557e-07 0)
(2.36903e-06 -8.92105e-07 0)
(2.50512e-06 -8.55862e-07 0)
(2.63863e-06 -8.21409e-07 0)
(2.76967e-06 -7.88303e-07 0)
(2.89836e-06 -7.56113e-07 0)
(3.02474e-06 -7.24398e-07 0)
(3.14894e-06 -6.9274e-07 0)
(3.2712e-06 -6.60742e-07 0)
(3.39159e-06 -6.27963e-07 0)
(3.51023e-06 -5.93969e-07 0)
(3.62741e-06 -5.58339e-07 0)
(3.74316e-06 -5.20604e-07 0)
(3.85783e-06 -4.8032e-07 0)
(3.97161e-06 -4.3688e-07 0)
(4.08484e-06 -3.90085e-07 0)
(1.61016e-06 -1.18174e-06 0)
(1.75382e-06 -1.13212e-06 0)
(1.89661e-06 -1.08523e-06 0)
(2.03762e-06 -1.0406e-06 0)
(2.1769e-06 -9.98321e-07 0)
(2.31413e-06 -9.58241e-07 0)
(2.44922e-06 -9.20107e-07 0)
(2.58203e-06 -8.83588e-07 0)
(2.71263e-06 -8.48321e-07 0)
(2.8411e-06 -8.13939e-07 0)
(2.96744e-06 -7.80046e-07 0)
(3.09174e-06 -7.46273e-07 0)
(3.21423e-06 -7.12255e-07 0)
(3.33491e-06 -6.77576e-07 0)
(3.45394e-06 -6.41837e-07 0)
(3.57154e-06 -6.04644e-07 0)
(3.68778e-06 -5.6557e-07 0)
(3.803e-06 -5.24221e-07 0)
(3.91738e-06 -4.80119e-07 0)
(4.03129e-06 -4.33104e-07 0)
(1.57049e-06 -1.24836e-06 0)
(1.71106e-06 -1.19941e-06 0)
(1.85113e-06 -1.15253e-06 0)
(1.98975e-06 -1.10741e-06 0)
(2.12704e-06 -1.0642e-06 0)
(2.26263e-06 -1.02283e-06 0)
(2.39641e-06 -9.83129e-07 0)
(2.5282e-06 -9.44852e-07 0)
(2.65805e-06 -9.07708e-07 0)
(2.78601e-06 -8.71396e-07 0)
(2.91204e-06 -8.35568e-07 0)
(3.0362e-06 -7.999e-07 0)
(3.15869e-06 -7.64062e-07 0)
(3.27947e-06 -7.27666e-07 0)
(3.39872e-06 -6.90352e-07 0)
(3.51661e-06 -6.51759e-07 0)
(3.63322e-06 -6.11515e-07 0)
(3.7489e-06 -5.69297e-07 0)
(3.86379e-06 -5.24736e-07 0)
(3.97828e-06 -4.77608e-07 0)
(1.53422e-06 -1.31236e-06 0)
(1.67176e-06 -1.26414e-06 0)
(1.80907e-06 -1.21744e-06 0)
(1.94524e-06 -1.17205e-06 0)
(2.08037e-06 -1.12817e-06 0)
(2.21412e-06 -1.08578e-06 0)
(2.34637e-06 -1.04479e-06 0)
(2.47692e-06 -1.00503e-06 0)
(2.60581e-06 -9.66283e-07 0)
(2.73303e-06 -9.28298e-07 0)
(2.85853e-06 -8.90776e-07 0)
(2.98234e-06 -8.53437e-07 0)
(3.10465e-06 -8.15981e-07 0)
(3.22537e-06 -7.78053e-07 0)
(3.34468e-06 -7.39338e-07 0)
(3.46274e-06 -6.99518e-07 0)
(3.57963e-06 -6.58288e-07 0)
(3.69568e-06 -6.15387e-07 0)
(3.81098e-06 -5.70489e-07 0)
(3.92595e-06 -5.23359e-07 0)
(1.50062e-06 -1.37397e-06 0)
(1.63522e-06 -1.32652e-06 0)
(1.76979e-06 -1.28009e-06 0)
(1.90347e-06 -1.23457e-06 0)
(2.03637e-06 -1.19021e-06 0)
(2.16818e-06 -1.14702e-06 0)
(2.29877e-06 -1.10499e-06 0)
(2.42794e-06 -1.06401e-06 0)
(2.5557e-06 -1.02391e-06 0)
(2.68202e-06 -9.84499e-07 0)
(2.80683e-06 -9.45524e-07 0)
(2.93013e-06 -9.06738e-07 0)
(3.05209e-06 -8.6787e-07 0)
(3.17262e-06 -8.28605e-07 0)
(3.29187e-06 -7.88674e-07 0)
(3.41001e-06 -7.47814e-07 0)
(3.52709e-06 -7.05778e-07 0)
(3.64341e-06 -6.62339e-07 0)
(3.75904e-06 -6.17175e-07 0)
(3.87441e-06 -5.70206e-07 0)
(1.46905e-06 -1.43342e-06 0)
(1.60082e-06 -1.38672e-06 0)
(1.7327e-06 -1.3406e-06 0)
(1.86391e-06 -1.29506e-06 0)
(1.99457e-06 -1.25037e-06 0)
(2.1244e-06 -1.20657e-06 0)
(2.25327e-06 -1.16373e-06 0)
(2.38097e-06 -1.12176e-06 0)
(2.50749e-06 -1.08055e-06 0)
(2.6328e-06 -1.03995e-06 0)
(2.75679e-06 -9.99747e-07 0)
(2.87947e-06 -9.59721e-07 0)
(3.00097e-06 -9.19634e-07 0)
(3.1212e-06 -8.79217e-07 0)
(3.24031e-06 -8.38255e-07 0)
(3.35845e-06 -7.9653e-07 0)
(3.47563e-06 -7.53832e-07 0)
(3.59214e-06 -7.09946e-07 0)
(3.70803e-06 -6.64617e-07 0)
(3.82371e-06 -6.17917e-07 0)
(1.43896e-06 -1.49089e-06 0)
(1.56798e-06 -1.4449e-06 0)
(1.69725e-06 -1.39912e-06 0)
(1.82604e-06 -1.35364e-06 0)
(1.9545e-06 -1.30874e-06 0)
(2.08236e-06 -1.26452e-06 0)
(2.2095e-06 -1.22105e-06 0)
(2.33569e-06 -1.17829e-06 0)
(2.46092e-06 -1.13619e-06 0)
(2.58515e-06 -1.0946e-06 0)
(2.70825e-06 -1.05336e-06 0)
(2.83023e-06 -1.01227e-06 0)
(2.95119e-06 -9.71153e-07 0)
(3.07106e-06 -9.29771e-07 0)
(3.18997e-06 -8.87956e-07 0)
(3.30804e-06 -8.45522e-07 0)
(3.42525e-06 -8.02273e-07 0)
(3.54188e-06 -7.58023e-07 0)
(3.65797e-06 -7.12677e-07 0)
(3.7739e-06 -6.66239e-07 0)
(1.40981e-06 -1.54656e-06 0)
(1.53621e-06 -1.5012e-06 0)
(1.66295e-06 -1.45578e-06 0)
(1.78942e-06 -1.41043e-06 0)
(1.91574e-06 -1.36544e-06 0)
(2.04168e-06 -1.32092e-06 0)
(2.1671e-06 -1.27699e-06 0)
(2.29178e-06 -1.23362e-06 0)
(2.41571e-06 -1.1908e-06 0)
(2.53884e-06 -1.14841e-06 0)
(2.66101e-06 -1.10631e-06 0)
(2.78225e-06 -1.06436e-06 0)
(2.90266e-06 -1.0224e-06 0)
(3.02213e-06 -9.80239e-07 0)
(3.14079e-06 -9.37734e-07 0)
(3.25874e-06 -8.94715e-07 0)
(3.37592e-06 -8.51009e-07 0)
(3.49262e-06 -8.06511e-07 0)
(3.60884e-06 -7.61235e-07 0)
(3.72495e-06 -7.15062e-07 0)
(1.38114e-06 -1.60054e-06 0)
(1.50504e-06 -1.5558e-06 0)
(1.62938e-06 -1.51075e-06 0)
(1.75363e-06 -1.46557e-06 0)
(1.87789e-06 -1.42056e-06 0)
(2.00197e-06 -1.37586e-06 0)
(2.12572e-06 -1.33161e-06 0)
(2.24894e-06 -1.28779e-06 0)
(2.37159e-06 -1.24442e-06 0)
(2.49361e-06 -1.2014e-06 0)
(2.61487e-06 -1.15863e-06 0)
(2.73538e-06 -1.11599e-06 0)
(2.85523e-06 -1.07336e-06 0)
(2.9743e-06 -1.03057e-06 0)
(3.09268e-06 -9.87501e-07 0)
(3.21045e-06 -9.43997e-07 0)
(3.32756e-06 -8.99943e-07 0)
(3.44431e-06 -8.55327e-07 0)
(3.56064e-06 -8.10093e-07 0)
(3.67686e-06 -7.64238e-07 0)
(1.35248e-06 -1.65302e-06 0)
(1.47401e-06 -1.60886e-06 0)
(1.59609e-06 -1.56417e-06 0)
(1.71823e-06 -1.5192e-06 0)
(1.84054e-06 -1.47424e-06 0)
(1.96287e-06 -1.42948e-06 0)
(2.08504e-06 -1.38502e-06 0)
(2.20685e-06 -1.34089e-06 0)
(2.32827e-06 -1.2971e-06 0)
(2.44925e-06 -1.25359e-06 0)
(2.56963e-06 -1.2103e-06 0)
(2.68945e-06 -1.16714e-06 0)
(2.80876e-06 -1.12399e-06 0)
(2.92741e-06 -1.08071e-06 0)
(3.04548e-06 -1.03719e-06 0)
(3.16307e-06 -9.93313e-07 0)
(3.28013e-06 -9.49033e-07 0)
(3.39689e-06 -9.04358e-07 0)
(3.51327e-06 -8.59156e-07 0)
(3.62956e-06 -8.13589e-07 0)
(1.32341e-06 -1.70417e-06 0)
(1.4427e-06 -1.66055e-06 0)
(1.56262e-06 -1.61616e-06 0)
(1.68281e-06 -1.57143e-06 0)
(1.80332e-06 -1.52661e-06 0)
(1.92402e-06 -1.48187e-06 0)
(2.04472e-06 -1.43729e-06 0)
(2.16522e-06 -1.39296e-06 0)
(2.28549e-06 -1.34888e-06 0)
(2.40552e-06 -1.30505e-06 0)
(2.52513e-06 -1.26139e-06 0)
(2.64431e-06 -1.21785e-06 0)
(2.76309e-06 -1.1743e-06 0)
(2.88132e-06 -1.13064e-06 0)
(2.9991e-06 -1.08677e-06 0)
(3.11654e-06 -1.04264e-06 0)
(3.23354e-06 -9.98229e-07 0)
(3.35027e-06 -9.53455e-07 0)
(3.46663e-06 -9.08341e-07 0)
(3.58292e-06 -8.63008e-07 0)
(1.29349e-06 -1.7541e-06 0)
(1.41058e-06 -1.71086e-06 0)
(1.52846e-06 -1.66689e-06 0)
(1.64694e-06 -1.62249e-06 0)
(1.76582e-06 -1.57784e-06 0)
(1.88505e-06 -1.53316e-06 0)
(2.00441e-06 -1.48856e-06 0)
(2.12375e-06 -1.44413e-06 0)
(2.24304e-06 -1.39989e-06 0)
(2.36224e-06 -1.35585e-06 0)
(2.48116e-06 -1.31195e-06 0)
(2.59973e-06 -1.26813e-06 0)
(2.71801e-06 -1.22429e-06 0)
(2.83588e-06 -1.18035e-06 0)
(2.95345e-06 -1.13627e-06 0)
(3.07077e-06 -1.09198e-06 0)
(3.18763e-06 -1.04743e-06 0)
(3.30423e-06 -1.00256e-06 0)
(3.42059e-06 -9.57574e-07 0)
(3.53704e-06 -9.12452e-07 0)
(1.26199e-06 -1.80273e-06 0)
(1.37724e-06 -1.75998e-06 0)
(1.49343e-06 -1.71651e-06 0)
(1.61026e-06 -1.67241e-06 0)
(1.72769e-06 -1.62801e-06 0)
(1.84561e-06 -1.58346e-06 0)
(1.96384e-06 -1.53893e-06 0)
(2.08222e-06 -1.4945e-06 0)
(2.20072e-06 -1.45022e-06 0)
(2.31922e-06 -1.40607e-06 0)
(2.43749e-06 -1.362e-06 0)
(2.55553e-06 -1.318e-06 0)
(2.67345e-06 -1.274e-06 0)
(2.7911e-06 -1.2299e-06 0)
(2.90845e-06 -1.18565e-06 0)
(3.02546e-06 -1.14122e-06 0)
(3.14217e-06 -1.09656e-06 0)
(3.25886e-06 -1.0517e-06 0)
(3.37519e-06 -1.00677e-06 0)
(3.49141e-06 -9.618e-07 0)
(1.2285e-06 -1.85059e-06 0)
(1.34206e-06 -1.80838e-06 0)
(1.45671e-06 -1.76527e-06 0)
(1.57217e-06 -1.72152e-06 0)
(1.68839e-06 -1.67737e-06 0)
(1.80529e-06 -1.63304e-06 0)
(1.92271e-06 -1.58866e-06 0)
(2.04041e-06 -1.5443e-06 0)
(2.15826e-06 -1.50001e-06 0)
(2.27614e-06 -1.45582e-06 0)
(2.39396e-06 -1.4117e-06 0)
(2.51175e-06 -1.36761e-06 0)
(2.6294e-06 -1.32349e-06 0)
(2.74666e-06 -1.27926e-06 0)
(2.86375e-06 -1.23491e-06 0)
(2.98073e-06 -1.19038e-06 0)
(3.09734e-06 -1.14563e-06 0)
(3.21387e-06 -1.1008e-06 0)
(3.3302e-06 -1.05587e-06 0)
(3.44638e-06 -1.01102e-06 0)
(1.19256e-06 -1.89731e-06 0)
(1.30462e-06 -1.85569e-06 0)
(1.41795e-06 -1.8131e-06 0)
(1.53231e-06 -1.76977e-06 0)
(1.64771e-06 -1.726e-06 0)
(1.764e-06 -1.68197e-06 0)
(1.88086e-06 -1.63779e-06 0)
(1.99799e-06 -1.59356e-06 0)
(2.11541e-06 -1.54936e-06 0)
(2.23309e-06 -1.50521e-06 0)
(2.3507e-06 -1.46108e-06 0)
(2.46813e-06 -1.41695e-06 0)
(2.58552e-06 -1.37275e-06 0)
(2.70267e-06 -1.32845e-06 0)
(2.81955e-06 -1.28404e-06 0)
(2.93634e-06 -1.23943e-06 0)
(3.05288e-06 -1.19467e-06 0)
(3.16931e-06 -1.14977e-06 0)
(3.28564e-06 -1.10484e-06 0)
(3.40164e-06 -1.06001e-06 0)
(8.40511e-08 -1.5548e-06 0)
(2.53112e-07 -1.53264e-06 0)
(4.25015e-07 -1.4889e-06 0)
(6.01283e-07 -1.42572e-06 0)
(7.83193e-07 -1.34525e-06 0)
(9.7156e-07 -1.25069e-06 0)
(1.16664e-06 -1.14539e-06 0)
(1.36813e-06 -1.03289e-06 0)
(1.57559e-06 -9.16753e-07 0)
(1.78719e-06 -7.99695e-07 0)
(8.21316e-08 -1.58314e-06 0)
(2.47174e-07 -1.56297e-06 0)
(4.14528e-07 -1.52304e-06 0)
(5.85416e-07 -1.46526e-06 0)
(7.60868e-07 -1.39143e-06 0)
(9.41558e-07 -1.30425e-06 0)
(1.12764e-06 -1.20661e-06 0)
(1.31878e-06 -1.10155e-06 0)
(1.51408e-06 -9.92384e-07 0)
(1.71204e-06 -8.81764e-07 0)
(8.03554e-08 -1.61242e-06 0)
(2.41676e-07 -1.59403e-06 0)
(4.04784e-07 -1.55755e-06 0)
(5.70669e-07 -1.5047e-06 0)
(7.40134e-07 -1.43701e-06 0)
(9.13711e-07 -1.35678e-06 0)
(1.09153e-06 -1.26651e-06 0)
(1.2735e-06 -1.16877e-06 0)
(1.45887e-06 -1.06649e-06 0)
(1.64673e-06 -9.61544e-07 0)
(7.87058e-08 -1.64254e-06 0)
(2.36651e-07 -1.62566e-06 0)
(3.95996e-07 -1.59209e-06 0)
(5.57559e-07 -1.54341e-06 0)
(7.21987e-07 -1.48093e-06 0)
(8.89641e-07 -1.40665e-06 0)
(1.06062e-06 -1.32285e-06 0)
(1.23479e-06 -1.23177e-06 0)
(1.41148e-06 -1.13619e-06 0)
(1.58998e-06 -1.0376e-06 0)
(7.71692e-08 -1.67343e-06 0)
(2.31903e-07 -1.65789e-06 0)
(3.87781e-07 -1.62691e-06 0)
(5.45401e-07 -1.58195e-06 0)
(7.05299e-07 -1.5242e-06 0)
(8.67735e-07 -1.45536e-06 0)
(1.03277e-06 -1.37751e-06 0)
(1.20034e-06 -1.29259e-06 0)
(1.36984e-06 -1.20315e-06 0)
(1.5404e-06 -1.1105e-06 0)
(7.57431e-08 -1.70504e-06 0)
(2.27458e-07 -1.69063e-06 0)
(3.8013e-07 -1.66195e-06 0)
(5.34174e-07 -1.62021e-06 0)
(6.90031e-07 -1.56658e-06 0)
(8.47922e-07 -1.50256e-06 0)
(1.00781e-06 -1.43004e-06 0)
(1.1696e-06 -1.3508e-06 0)
(1.33288e-06 -1.2671e-06 0)
(1.49656e-06 -1.18023e-06 0)
(7.43339e-08 -1.7373e-06 0)
(2.23195e-07 -1.72389e-06 0)
(3.72824e-07 -1.69726e-06 0)
(5.23538e-07 -1.6584e-06 0)
(6.75722e-07 -1.60847e-06 0)
(8.29527e-07 -1.5488e-06 0)
(9.84919e-07 -1.48111e-06 0)
(1.1417e-06 -1.40703e-06 0)
(1.29964e-06 -1.32854e-06 0)
(1.45745e-06 -1.24699e-06 0)
(7.29576e-08 -1.77014e-06 0)
(2.19079e-07 -1.75761e-06 0)
(3.65789e-07 -1.73279e-06 0)
(5.13378e-07 -1.69648e-06 0)
(6.62203e-07 -1.64985e-06 0)
(8.12313e-07 -1.59409e-06 0)
(9.63684e-07 -1.53076e-06 0)
(1.11606e-06 -1.46136e-06 0)
(1.26934e-06 -1.38764e-06 0)
(1.42214e-06 -1.31101e-06 0)
(7.16486e-08 -1.80349e-06 0)
(2.15054e-07 -1.79175e-06 0)
(3.58924e-07 -1.76855e-06 0)
(5.03548e-07 -1.73455e-06 0)
(6.49212e-07 -1.69089e-06 0)
(7.95949e-07 -1.63866e-06 0)
(9.43705e-07 -1.57926e-06 0)
(1.09217e-06 -1.51407e-06 0)
(1.24135e-06 -1.44468e-06 0)
(1.38986e-06 -1.37254e-06 0)
(7.03592e-08 -1.8373e-06 0)
(2.11053e-07 -1.82624e-06 0)
(3.52154e-07 -1.80449e-06 0)
(4.93948e-07 -1.77259e-06 0)
(6.36606e-07 -1.73159e-06 0)
(7.80202e-07 -1.68254e-06 0)
(9.24657e-07 -1.62669e-06 0)
(1.06961e-06 -1.56533e-06 0)
(1.21513e-06 -1.4999e-06 0)
(1.35991e-06 -1.43185e-06 0)
(6.90244e-08 -1.87146e-06 0)
(2.07028e-07 -1.861e-06 0)
(3.45418e-07 -1.84057e-06 0)
(4.84449e-07 -1.81059e-06 0)
(6.24224e-07 -1.77202e-06 0)
(7.64837e-07 -1.72584e-06 0)
(9.06223e-07 -1.6732e-06 0)
(1.04798e-06 -1.61533e-06 0)
(1.1902e-06 -1.55351e-06 0)
(1.33168e-06 -1.48916e-06 0)
(6.76511e-08 -1.90587e-06 0)
(2.02987e-07 -1.89598e-06 0)
(3.38684e-07 -1.87676e-06 0)
(4.74951e-07 -1.84853e-06 0)
(6.11916e-07 -1.81217e-06 0)
(7.49652e-07 -1.7686e-06 0)
(8.88123e-07 -1.71888e-06 0)
(1.02691e-06 -1.6642e-06 0)
(1.16611e-06 -1.60565e-06 0)
(1.30465e-06 -1.54464e-06 0)
(6.62738e-08 -1.94047e-06 0)
(1.98914e-07 -1.93113e-06 0)
(3.31879e-07 -1.91301e-06 0)
(4.65348e-07 -1.88638e-06 0)
(5.99524e-07 -1.85204e-06 0)
(7.34449e-07 -1.81084e-06 0)
(8.70104e-07 -1.76381e-06 0)
(1.00609e-06 -1.71201e-06 0)
(1.14247e-06 -1.65644e-06 0)
(1.27835e-06 -1.59846e-06 0)
(6.48873e-08 -1.97519e-06 0)
(1.94736e-07 -1.96638e-06 0)
(3.24889e-07 -1.94924e-06 0)
(4.55518e-07 -1.92407e-06 0)
(5.86891e-07 -1.89158e-06 0)
(7.19026e-07 -1.85257e-06 0)
(8.51911e-07 -1.808e-06 0)
(9.85183e-07 -1.75884e-06 0)
(1.11891e-06 -1.706e-06 0)
(1.25233e-06 -1.65081e-06 0)
(6.34436e-08 -2.00997e-06 0)
(1.9036e-07 -2.00164e-06 0)
(3.17591e-07 -1.9854e-06 0)
(4.45322e-07 -1.96158e-06 0)
(5.73832e-07 -1.93079e-06 0)
(7.03145e-07 -1.89382e-06 0)
(8.33262e-07 -1.8515e-06 0)
(9.63888e-07 -1.80475e-06 0)
(1.09507e-06 -1.75447e-06 0)
(1.22616e-06 -1.70179e-06 0)
(6.18998e-08 -2.04462e-06 0)
(1.85718e-07 -2.03676e-06 0)
(3.09895e-07 -2.02135e-06 0)
(4.34615e-07 -1.99879e-06 0)
(5.60156e-07 -1.96958e-06 0)
(6.86575e-07 -1.93448e-06 0)
(8.13899e-07 -1.89424e-06 0)
(9.41904e-07 -1.84976e-06 0)
(1.0706e-06 -1.80185e-06 0)
(1.19945e-06 -1.75149e-06 0)
(6.02394e-08 -2.07912e-06 0)
(1.80766e-07 -2.07171e-06 0)
(3.01704e-07 -2.05708e-06 0)
(4.23246e-07 -2.03567e-06 0)
(5.4567e-07 -2.00797e-06 0)
(6.69081e-07 -1.97463e-06 0)
(7.93546e-07 -1.93636e-06 0)
(9.18883e-07 -1.89403e-06 0)
(1.04509e-06 -1.84828e-06 0)
(1.17171e-06 -1.80011e-06 0)
(5.84581e-08 -2.11316e-06 0)
(1.75461e-07 -2.10616e-06 0)
(2.92922e-07 -2.09229e-06 0)
(4.11066e-07 -2.07198e-06 0)
(5.30184e-07 -2.04568e-06 0)
(6.50433e-07 -2.01402e-06 0)
(7.71906e-07 -1.97765e-06 0)
(8.94465e-07 -1.93734e-06 0)
(1.01809e-06 -1.89365e-06 0)
(1.14247e-06 -1.84754e-06 0)
(5.65336e-08 -2.14688e-06 0)
(1.6971e-07 -2.14028e-06 0)
(2.83386e-07 -2.12714e-06 0)
(3.97839e-07 -2.10789e-06 0)
(5.13389e-07 -2.08296e-06 0)
(6.30251e-07 -2.05292e-06 0)
(7.4853e-07 -2.01837e-06 0)
(8.68129e-07 -1.97997e-06 0)
(9.89029e-07 -1.93831e-06 0)
(1.11109e-06 -1.89415e-06 0)
(5.44487e-08 -2.17947e-06 0)
(1.63465e-07 -2.17321e-06 0)
(2.73009e-07 -2.16081e-06 0)
(3.83458e-07 -2.14262e-06 0)
(4.95171e-07 -2.11904e-06 0)
(6.08372e-07 -2.09061e-06 0)
(7.23173e-07 -2.05786e-06 0)
(8.39552e-07 -2.02134e-06 0)
(9.57575e-07 -1.98172e-06 0)
(1.07722e-06 -1.93955e-06 0)
)


// ************************************************************************* //
