/*--------------------------------*- C++ -*----------------------------------*\
| =========                 |                                                 |
| \\      /  F ield         | foam-extend: Open Source CFD                    |
|  \\    /   O peration     | Version:     4.1                                |
|   \\  /    A nd           | Web:         http://www.foam-extend.org         |
|    \\/     M anipulation  |                                                 |
\*---------------------------------------------------------------------------*/
FoamFile
{
    version     2.0;
    format      ascii;
    class       vectorField;
    location    "4";
    object      solidsCellD_iteration13;
}
// * * * * * * * * * * * * * * * * * * * * * * * * * * * * * * * * * * * * * //


1000
(
(2.04501e-06 -8.45897e-07 0)
(1.93132e-06 -7.88215e-07 0)
(1.85909e-06 -7.52079e-07 0)
(1.81794e-06 -7.35848e-07 0)
(1.7983e-06 -7.31069e-07 0)
(1.79439e-06 -7.35103e-07 0)
(1.80207e-06 -7.44909e-07 0)
(1.81836e-06 -7.59061e-07 0)
(1.84136e-06 -7.76083e-07 0)
(1.86895e-06 -7.9507e-07 0)
(1.84928e-06 -9.24138e-07 0)
(1.72827e-06 -8.8451e-07 0)
(1.65137e-06 -8.59806e-07 0)
(1.60675e-06 -8.51362e-07 0)
(1.58433e-06 -8.51769e-07 0)
(1.57789e-06 -8.5946e-07 0)
(1.58312e-06 -8.71854e-07 0)
(1.59689e-06 -8.87951e-07 0)
(1.61715e-06 -9.06492e-07 0)
(1.64162e-06 -9.2663e-07 0)
(1.64586e-06 -9.9826e-07 0)
(1.52226e-06 -9.78808e-07 0)
(1.44367e-06 -9.66907e-07 0)
(1.39752e-06 -9.67029e-07 0)
(1.37361e-06 -9.73051e-07 0)
(1.36543e-06 -9.84603e-07 0)
(1.36871e-06 -9.99684e-07 0)
(1.38031e-06 -1.01767e-06 0)
(1.39813e-06 -1.03768e-06 0)
(1.42005e-06 -1.05878e-06 0)
(1.43623e-06 -1.06697e-06 0)
(1.31527e-06 -1.06866e-06 0)
(1.23831e-06 -1.07018e-06 0)
(1.19267e-06 -1.07921e-06 0)
(1.16855e-06 -1.09104e-06 0)
(1.15945e-06 -1.10654e-06 0)
(1.16119e-06 -1.1243e-06 0)
(1.17083e-06 -1.14416e-06 0)
(1.18632e-06 -1.16557e-06 0)
(1.20564e-06 -1.18773e-06 0)
(1.22194e-06 -1.1289e-06 0)
(1.10868e-06 -1.15154e-06 0)
(1.03662e-06 -1.16632e-06 0)
(9.93655e-07 -1.18415e-06 0)
(9.70598e-07 -1.20169e-06 0)
(9.61295e-07 -1.22107e-06 0)
(9.61933e-07 -1.24144e-06 0)
(9.69803e-07 -1.26312e-06 0)
(9.83022e-07 -1.2859e-06 0)
(9.99645e-07 -1.30917e-06 0)
(1.00387e-06 -1.18283e-06 0)
(9.03401e-07 -1.22504e-06 0)
(8.39486e-07 -1.25226e-06 0)
(8.01139e-07 -1.27833e-06 0)
(7.80314e-07 -1.30119e-06 0)
(7.71527e-07 -1.32417e-06 0)
(7.71509e-07 -1.34695e-06 0)
(7.77771e-07 -1.37032e-06 0)
(7.88685e-07 -1.39436e-06 0)
(8.02449e-07 -1.41872e-06 0)
(7.83247e-07 -1.22751e-06 0)
(6.99934e-07 -1.28687e-06 0)
(6.46935e-07 -1.32501e-06 0)
(6.15007e-07 -1.35831e-06 0)
(5.97549e-07 -1.38582e-06 0)
(5.8999e-07 -1.41194e-06 0)
(5.89638e-07 -1.4368e-06 0)
(5.94382e-07 -1.46167e-06 0)
(6.02916e-07 -1.48682e-06 0)
(6.13703e-07 -1.51218e-06 0)
(5.60739e-07 -1.26198e-06 0)
(4.98307e-07 -1.33514e-06 0)
(4.58623e-07 -1.38201e-06 0)
(4.34685e-07 -1.42107e-06 0)
(4.21545e-07 -1.45233e-06 0)
(4.15747e-07 -1.48098e-06 0)
(4.15279e-07 -1.50757e-06 0)
(4.18566e-07 -1.53365e-06 0)
(4.24678e-07 -1.55969e-06 0)
(4.32423e-07 -1.58587e-06 0)
(3.36966e-07 -1.28542e-06 0)
(2.98316e-07 -1.36819e-06 0)
(2.7379e-07 -1.42116e-06 0)
(2.58932e-07 -1.46429e-06 0)
(2.50714e-07 -1.49818e-06 0)
(2.47034e-07 -1.52858e-06 0)
(2.46688e-07 -1.55636e-06 0)
(2.48657e-07 -1.58334e-06 0)
(2.52327e-07 -1.61002e-06 0)
(2.56976e-07 -1.6368e-06 0)
(1.12539e-07 -1.29722e-06 0)
(9.94603e-08 -1.38498e-06 0)
(9.10881e-08 -1.44109e-06 0)
(8.60274e-08 -1.4863e-06 0)
(8.32711e-08 -1.52154e-06 0)
(8.20077e-08 -1.55287e-06 0)
(8.18239e-08 -1.58126e-06 0)
(8.24587e-08 -1.60866e-06 0)
(8.36978e-08 -1.63568e-06 0)
(8.5246e-08 -1.66278e-06 0)
(3.18835e-06 -3.85458e-08 0)
(3.21654e-06 -2.77748e-08 0)
(3.23401e-06 -2.09703e-08 0)
(3.25304e-06 -1.69868e-08 0)
(3.27407e-06 -1.47972e-08 0)
(3.29981e-06 -1.38446e-08 0)
(3.33033e-06 -1.37236e-08 0)
(3.36585e-06 -1.4086e-08 0)
(3.40635e-06 -1.4886e-08 0)
(3.45125e-06 -1.58671e-08 0)
(3.16478e-06 -1.15685e-07 0)
(3.18829e-06 -8.39958e-08 0)
(3.20282e-06 -6.39662e-08 0)
(3.21985e-06 -5.23567e-08 0)
(3.23955e-06 -4.60656e-08 0)
(3.26433e-06 -4.32387e-08 0)
(3.29418e-06 -4.28947e-08 0)
(3.32916e-06 -4.41682e-08 0)
(3.36917e-06 -4.65994e-08 0)
(3.41359e-06 -4.94431e-08 0)
(3.11778e-06 -1.93434e-07 0)
(3.13229e-06 -1.42611e-07 0)
(3.14114e-06 -1.10516e-07 0)
(3.1544e-06 -9.18295e-08 0)
(3.1716e-06 -8.17858e-08 0)
(3.19464e-06 -7.74725e-08 0)
(3.22315e-06 -7.70881e-08 0)
(3.25711e-06 -7.92496e-08 0)
(3.29618e-06 -8.32561e-08 0)
(3.33965e-06 -8.80062e-08 0)
(3.04815e-06 -2.7222e-07 0)
(3.04985e-06 -2.04968e-07 0)
(3.05057e-06 -1.62604e-07 0)
(3.05847e-06 -1.38061e-07 0)
(3.07209e-06 -1.24913e-07 0)
(3.09265e-06 -1.1939e-07 0)
(3.11931e-06 -1.19076e-07 0)
(3.15181e-06 -1.22217e-07 0)
(3.18957e-06 -1.278e-07 0)
(3.23173e-06 -1.34458e-07 0)
(2.95692e-06 -3.52211e-07 0)
(2.94283e-06 -2.72216e-07 0)
(2.93349e-06 -2.21866e-07 0)
(2.93475e-06 -1.92928e-07 0)
(2.94395e-06 -1.77571e-07 0)
(2.9614e-06 -1.71379e-07 0)
(2.98575e-06 -1.71416e-07 0)
(3.0164e-06 -1.75647e-07 0)
(3.05256e-06 -1.82776e-07 0)
(3.09315e-06 -1.91281e-07 0)
(2.84542e-06 -4.33487e-07 0)
(2.81346e-06 -3.45142e-07 0)
(2.79282e-06 -2.89539e-07 0)
(2.78656e-06 -2.57925e-07 0)
(2.79075e-06 -2.41428e-07 0)
(2.80464e-06 -2.35194e-07 0)
(2.82639e-06 -2.35897e-07 0)
(2.85492e-06 -2.41311e-07 0)
(2.88924e-06 -2.49965e-07 0)
(2.92805e-06 -2.60267e-07 0)
(2.71535e-06 -5.15894e-07 0)
(2.66446e-06 -4.24058e-07 0)
(2.63185e-06 -3.66258e-07 0)
(2.61766e-06 -3.33879e-07 0)
(2.61655e-06 -3.17377e-07 0)
(2.62667e-06 -3.11782e-07 0)
(2.64562e-06 -3.13502e-07 0)
(2.67189e-06 -3.20205e-07 0)
(2.70421e-06 -3.3036e-07 0)
(2.74115e-06 -3.4236e-07 0)
(2.56836e-06 -5.99011e-07 0)
(2.49874e-06 -5.0876e-07 0)
(2.45429e-06 -4.51947e-07 0)
(2.4322e-06 -4.20812e-07 0)
(2.42583e-06 -4.05509e-07 0)
(2.43214e-06 -4.01287e-07 0)
(2.44822e-06 -4.04418e-07 0)
(2.47212e-06 -4.12598e-07 0)
(2.50234e-06 -4.24265e-07 0)
(2.5373e-06 -4.37898e-07 0)
(2.40637e-06 -6.82289e-07 0)
(2.31934e-06 -5.98526e-07 0)
(2.26389e-06 -5.45871e-07 0)
(2.23438e-06 -5.17948e-07 0)
(2.223e-06 -5.05059e-07 0)
(2.22556e-06 -5.02901e-07 0)
(2.23873e-06 -5.07837e-07 0)
(2.26022e-06 -5.17653e-07 0)
(2.28826e-06 -5.30908e-07 0)
(2.32124e-06 -5.45928e-07 0)
(2.2313e-06 -7.64933e-07 0)
(2.12931e-06 -6.92215e-07 0)
(2.06438e-06 -6.46577e-07 0)
(2.02839e-06 -6.23727e-07 0)
(2.01252e-06 -6.14405e-07 0)
(2.01169e-06 -6.15012e-07 0)
(2.02222e-06 -6.22185e-07 0)
(2.04132e-06 -6.34017e-07 0)
(2.06729e-06 -6.49004e-07 0)
(2.09795e-06 -6.66221e-07 0)
(3.50066e-06 -1.67978e-08 0)
(3.55448e-06 -1.70389e-08 0)
(3.61169e-06 -1.72987e-08 0)
(3.67207e-06 -1.74926e-08 0)
(3.73527e-06 -1.76096e-08 0)
(3.80106e-06 -1.76386e-08 0)
(3.86914e-06 -1.75419e-08 0)
(3.93923e-06 -1.73507e-08 0)
(4.01117e-06 -1.70801e-08 0)
(4.08473e-06 -1.66968e-08 0)
(4.1597e-06 -1.6175e-08 0)
(4.23584e-06 -1.55085e-08 0)
(4.31297e-06 -1.4692e-08 0)
(4.39085e-06 -1.37235e-08 0)
(4.4693e-06 -1.25908e-08 0)
(4.54805e-06 -1.12636e-08 0)
(4.62693e-06 -9.70342e-09 0)
(4.70549e-06 -7.87676e-09 0)
(4.78378e-06 -5.74649e-09 0)
(4.86069e-06 -3.29919e-09 0)
(3.46466e-06 -5.20297e-08 0)
(3.52147e-06 -5.25338e-08 0)
(3.58136e-06 -5.31196e-08 0)
(3.6441e-06 -5.35307e-08 0)
(3.7094e-06 -5.36896e-08 0)
(3.77702e-06 -5.36328e-08 0)
(3.84676e-06 -5.33107e-08 0)
(3.91839e-06 -5.27272e-08 0)
(3.99173e-06 -5.18355e-08 0)
(4.06655e-06 -5.05756e-08 0)
(4.14266e-06 -4.89366e-08 0)
(4.21988e-06 -4.6921e-08 0)
(4.29803e-06 -4.44896e-08 0)
(4.37688e-06 -4.15907e-08 0)
(4.45626e-06 -3.81631e-08 0)
(4.53588e-06 -3.41388e-08 0)
(4.61562e-06 -2.94313e-08 0)
(4.69498e-06 -2.39543e-08 0)
(4.77407e-06 -1.75808e-08 0)
(4.85172e-06 -1.02571e-08 0)
(3.39395e-06 -9.17917e-08 0)
(3.45668e-06 -9.19018e-08 0)
(3.52184e-06 -9.21941e-08 0)
(3.5891e-06 -9.23667e-08 0)
(3.65847e-06 -9.22354e-08 0)
(3.72974e-06 -9.18365e-08 0)
(3.80279e-06 -9.10357e-08 0)
(3.87737e-06 -8.98157e-08 0)
(3.95338e-06 -8.81072e-08 0)
(4.03065e-06 -8.58539e-08 0)
(4.10904e-06 -8.30383e-08 0)
(4.18838e-06 -7.96283e-08 0)
(4.2685e-06 -7.55306e-08 0)
(4.34919e-06 -7.06501e-08 0)
(4.4303e-06 -6.48957e-08 0)
(4.51159e-06 -5.81659e-08 0)
(4.59295e-06 -5.03169e-08 0)
(4.67392e-06 -4.12047e-08 0)
(4.75459e-06 -3.06078e-08 0)
(4.83384e-06 -1.84244e-08 0)
(3.29063e-06 -1.38632e-07 0)
(3.36179e-06 -1.37303e-07 0)
(3.43455e-06 -1.36359e-07 0)
(3.50846e-06 -1.35575e-07 0)
(3.58381e-06 -1.34559e-07 0)
(3.66037e-06 -1.33344e-07 0)
(3.7382e-06 -1.31673e-07 0)
(3.8171e-06 -1.29524e-07 0)
(3.8971e-06 -1.26782e-07 0)
(3.97803e-06 -1.23367e-07 0)
(4.05979e-06 -1.19223e-07 0)
(4.14224e-06 -1.14274e-07 0)
(4.22525e-06 -1.08393e-07 0)
(4.30867e-06 -1.0146e-07 0)
(4.39237e-06 -9.33592e-08 0)
(4.47614e-06 -8.39304e-08 0)
(4.55987e-06 -7.29713e-08 0)
(4.64316e-06 -6.02638e-08 0)
(4.72607e-06 -4.54834e-08 0)
(4.8076e-06 -2.85119e-08 0)
(3.15781e-06 -1.94791e-07 0)
(3.23959e-06 -1.90693e-07 0)
(3.32202e-06 -1.87342e-07 0)
(3.40432e-06 -1.84706e-07 0)
(3.48729e-06 -1.8203e-07 0)
(3.57063e-06 -1.79368e-07 0)
(3.65462e-06 -1.76315e-07 0)
(3.73911e-06 -1.72839e-07 0)
(3.8242e-06 -1.68732e-07 0)
(3.90979e-06 -1.63878e-07 0)
(3.99586e-06 -1.58191e-07 0)
(4.08235e-06 -1.5155e-07 0)
(4.16914e-06 -1.43783e-07 0)
(4.25612e-06 -1.3473e-07 0)
(4.3432e-06 -1.24232e-07 0)
(4.43018e-06 -1.12074e-07 0)
(4.51701e-06 -9.79993e-08 0)
(4.60328e-06 -8.17274e-08 0)
(4.68916e-06 -6.28175e-08 0)
(4.77363e-06 -4.1143e-08 0)
(2.9992e-06 -2.61939e-07 0)
(3.09319e-06 -2.53511e-07 0)
(3.18696e-06 -2.46319e-07 0)
(3.2792e-06 -2.40712e-07 0)
(3.37124e-06 -2.35459e-07 0)
(3.46271e-06 -2.30606e-07 0)
(3.55401e-06 -2.25559e-07 0)
(3.64519e-06 -2.20232e-07 0)
(3.7364e-06 -2.14367e-07 0)
(3.82763e-06 -2.07785e-07 0)
(3.91894e-06 -2.00339e-07 0)
(4.01028e-06 -1.91842e-07 0)
(4.10161e-06 -1.82066e-07 0)
(4.19285e-06 -1.70812e-07 0)
(4.28396e-06 -1.57865e-07 0)
(4.37479e-06 -1.4297e-07 0)
(4.46534e-06 -1.258e-07 0)
(4.5552e-06 -1.06025e-07 0)
(4.64464e-06 -8.30894e-08 0)
(4.73265e-06 -5.68076e-08 0)
(2.81927e-06 -3.41033e-07 0)
(2.92656e-06 -3.26714e-07 0)
(3.03286e-06 -3.14271e-07 0)
(3.13616e-06 -3.04489e-07 0)
(3.23829e-06 -2.95675e-07 0)
(3.33888e-06 -2.87769e-07 0)
(3.4385e-06 -2.80091e-07 0)
(3.53727e-06 -2.72393e-07 0)
(3.63546e-06 -2.64349e-07 0)
(3.73316e-06 -2.55702e-07 0)
(3.83045e-06 -2.46217e-07 0)
(3.92735e-06 -2.35635e-07 0)
(4.02388e-06 -2.23677e-07 0)
(4.12002e-06 -2.10104e-07 0)
(4.21578e-06 -1.94648e-07 0)
(4.31105e-06 -1.77006e-07 0)
(4.40588e-06 -1.56771e-07 0)
(4.49991e-06 -1.33548e-07 0)
(4.59341e-06 -1.06683e-07 0)
(4.68549e-06 -7.59197e-08 0)
(2.62235e-06 -4.32371e-07 0)
(2.74338e-06 -4.10372e-07 0)
(2.86285e-06 -3.91227e-07 0)
(2.97802e-06 -3.75916e-07 0)
(3.09109e-06 -3.62533e-07 0)
(3.20162e-06 -3.50702e-07 0)
(3.31042e-06 -3.39696e-07 0)
(3.4176e-06 -3.29076e-07 0)
(3.52352e-06 -3.18419e-07 0)
(3.62835e-06 -3.07362e-07 0)
(3.73224e-06 -2.95572e-07 0)
(3.83529e-06 -2.82716e-07 0)
(3.93758e-06 -2.68462e-07 0)
(4.03916e-06 -2.52516e-07 0)
(4.14008e-06 -2.34547e-07 0)
(4.24029e-06 -2.14191e-07 0)
(4.33985e-06 -1.90961e-07 0)
(4.43849e-06 -1.6439e-07 0)
(4.5365e-06 -1.3372e-07 0)
(4.63308e-06 -9.86316e-08 0)
(2.41317e-06 -5.35719e-07 0)
(2.54801e-06 -5.04642e-07 0)
(2.68074e-06 -4.77904e-07 0)
(2.8082e-06 -4.55905e-07 0)
(2.93258e-06 -4.37004e-07 0)
(3.0536e-06 -4.20415e-07 0)
(3.17203e-06 -4.05356e-07 0)
(3.28813e-06 -3.91191e-07 0)
(3.40229e-06 -3.77401e-07 0)
(3.51477e-06 -3.635e-07 0)
(3.62576e-06 -3.49057e-07 0)
(3.73545e-06 -3.33665e-07 0)
(3.84398e-06 -3.16929e-07 0)
(3.95146e-06 -2.98488e-07 0)
(4.05798e-06 -2.77935e-07 0)
(4.16355e-06 -2.54833e-07 0)
(4.26825e-06 -2.28618e-07 0)
(4.37187e-06 -1.98753e-07 0)
(4.47475e-06 -1.644e-07 0)
(4.57624e-06 -1.25176e-07 0)
(2.19577e-06 -6.49371e-07 0)
(2.34489e-06 -6.06701e-07 0)
(2.49053e-06 -5.71337e-07 0)
(2.63068e-06 -5.41591e-07 0)
(2.76657e-06 -5.16346e-07 0)
(2.89848e-06 -4.94341e-07 0)
(3.02692e-06 -4.74686e-07 0)
(3.15232e-06 -4.56575e-07 0)
(3.27509e-06 -4.39352e-07 0)
(3.39554e-06 -4.224e-07 0)
(3.51396e-06 -4.05181e-07 0)
(3.63057e-06 -3.87197e-07 0)
(3.74561e-06 -3.67977e-07 0)
(3.85923e-06 -3.47076e-07 0)
(3.97156e-06 -3.24016e-07 0)
(4.08267e-06 -2.98278e-07 0)
(4.19269e-06 -2.6924e-07 0)
(4.3015e-06 -2.36269e-07 0)
(4.40948e-06 -1.98473e-07 0)
(4.51612e-06 -1.55365e-07 0)
(2.03333e-06 -7.59686e-07 0)
(2.19232e-06 -7.07248e-07 0)
(2.34592e-06 -6.65188e-07 0)
(2.49422e-06 -6.29018e-07 0)
(2.63763e-06 -5.98022e-07 0)
(2.77666e-06 -5.70829e-07 0)
(2.91177e-06 -5.46487e-07 0)
(3.0434e-06 -5.24155e-07 0)
(3.17197e-06 -5.03099e-07 0)
(3.29781e-06 -4.82638e-07 0)
(3.42121e-06 -4.62178e-07 0)
(3.54246e-06 -4.41177e-07 0)
(3.6618e-06 -4.19105e-07 0)
(3.77943e-06 -3.95464e-07 0)
(3.89549e-06 -3.69727e-07 0)
(4.01012e-06 -3.41322e-07 0)
(4.12346e-06 -3.09618e-07 0)
(4.23553e-06 -2.73918e-07 0)
(4.34669e-06 -2.3333e-07 0)
(4.45659e-06 -1.87304e-07 0)
(1.94111e-06 -8.49931e-07 0)
(2.10137e-06 -7.95462e-07 0)
(2.25633e-06 -7.49602e-07 0)
(2.40678e-06 -7.09455e-07 0)
(2.55266e-06 -6.74344e-07 0)
(2.69431e-06 -6.43119e-07 0)
(2.83207e-06 -6.14885e-07 0)
(2.9663e-06 -5.88839e-07 0)
(3.09733e-06 -5.64246e-07 0)
(3.22545e-06 -5.40434e-07 0)
(3.35096e-06 -5.16814e-07 0)
(3.47414e-06 -4.92831e-07 0)
(3.59522e-06 -4.67938e-07 0)
(3.7144e-06 -4.41619e-07 0)
(3.83185e-06 -4.13342e-07 0)
(3.94774e-06 -3.82513e-07 0)
(4.06222e-06 -3.48541e-07 0)
(4.17541e-06 -3.10719e-07 0)
(4.28764e-06 -2.68198e-07 0)
(4.39871e-06 -2.20432e-07 0)
(1.8629e-06 -9.36176e-07 0)
(2.02159e-06 -8.80568e-07 0)
(2.17641e-06 -8.32361e-07 0)
(2.32732e-06 -7.89282e-07 0)
(2.47422e-06 -7.50835e-07 0)
(2.61721e-06 -7.16117e-07 0)
(2.75652e-06 -6.84357e-07 0)
(2.89237e-06 -6.5483e-07 0)
(3.02503e-06 -6.26851e-07 0)
(3.15475e-06 -5.99787e-07 0)
(3.28179e-06 -5.73068e-07 0)
(3.40641e-06 -5.46142e-07 0)
(3.52882e-06 -5.18457e-07 0)
(3.64922e-06 -4.89497e-07 0)
(3.76779e-06 -4.58737e-07 0)
(3.88474e-06 -4.25577e-07 0)
(4.00021e-06 -3.89464e-07 0)
(4.11439e-06 -3.49712e-07 0)
(4.22759e-06 -3.05521e-07 0)
(4.33977e-06 -2.56384e-07 0)
(1.7941e-06 -1.01948e-06 0)
(1.95056e-06 -9.63372e-07 0)
(2.10412e-06 -9.13412e-07 0)
(2.2544e-06 -8.67919e-07 0)
(2.40123e-06 -8.26607e-07 0)
(2.54458e-06 -7.88792e-07 0)
(2.68455e-06 -7.53829e-07 0)
(2.82125e-06 -7.2108e-07 0)
(2.95489e-06 -6.89928e-07 0)
(3.08564e-06 -6.59787e-07 0)
(3.21375e-06 -6.30117e-07 0)
(3.33941e-06 -6.00378e-07 0)
(3.46283e-06 -5.70025e-07 0)
(3.5842e-06 -5.38552e-07 0)
(3.7037e-06 -5.05448e-07 0)
(3.82153e-06 -4.70129e-07 0)
(3.93787e-06 -4.3208e-07 0)
(4.05294e-06 -3.90643e-07 0)
(4.16703e-06 -3.45088e-07 0)
(4.28027e-06 -2.94967e-07 0)
(1.73363e-06 -1.09921e-06 0)
(1.88725e-06 -1.04309e-06 0)
(2.03878e-06 -9.92058e-07 0)
(2.18762e-06 -9.44797e-07 0)
(2.33358e-06 -9.01207e-07 0)
(2.47652e-06 -8.60789e-07 0)
(2.61642e-06 -8.23022e-07 0)
(2.75332e-06 -7.87379e-07 0)
(2.88735e-06 -7.53322e-07 0)
(3.01864e-06 -7.20324e-07 0)
(3.14737e-06 -6.87882e-07 0)
(3.2737e-06 -6.55484e-07 0)
(3.39781e-06 -6.22599e-07 0)
(3.51989e-06 -5.88751e-07 0)
(3.6401e-06 -5.53445e-07 0)
(3.75866e-06 -5.16131e-07 0)
(3.87574e-06 -4.76327e-07 0)
(3.99159e-06 -4.33421e-07 0)
(4.10649e-06 -3.86765e-07 0)
(4.2207e-06 -3.35986e-07 0)
(1.67994e-06 -1.1756e-06 0)
(1.83045e-06 -1.11981e-06 0)
(1.97953e-06 -1.06813e-06 0)
(2.12637e-06 -1.01957e-06 0)
(2.27091e-06 -9.74166e-07 0)
(2.41282e-06 -9.31567e-07 0)
(2.55207e-06 -8.91377e-07 0)
(2.68863e-06 -8.53182e-07 0)
(2.82256e-06 -8.16517e-07 0)
(2.95395e-06 -7.80916e-07 0)
(3.08291e-06 -7.45925e-07 0)
(3.20957e-06 -7.11063e-07 0)
(3.33409e-06 -6.75827e-07 0)
(3.45664e-06 -6.39781e-07 0)
(3.57735e-06 -6.02448e-07 0)
(3.69647e-06 -5.6333e-07 0)
(3.81416e-06 -5.21975e-07 0)
(3.93067e-06 -4.77826e-07 0)
(4.04631e-06 -4.30332e-07 0)
(4.16136e-06 -3.79173e-07 0)
(1.63196e-06 -1.24876e-06 0)
(1.77921e-06 -1.19352e-06 0)
(1.92554e-06 -1.14154e-06 0)
(2.07005e-06 -1.09209e-06 0)
(2.21273e-06 -1.04529e-06 0)
(2.35318e-06 -1.0009e-06 0)
(2.49134e-06 -9.58667e-07 0)
(2.62713e-06 -9.1826e-07 0)
(2.76057e-06 -8.79288e-07 0)
(2.89167e-06 -8.41348e-07 0)
(3.02053e-06 -8.04042e-07 0)
(3.14722e-06 -7.66926e-07 0)
(3.27189e-06 -7.29535e-07 0)
(3.39467e-06 -6.91483e-07 0)
(3.51572e-06 -6.52305e-07 0)
(3.63523e-06 -6.11571e-07 0)
(3.75339e-06 -5.68862e-07 0)
(3.87046e-06 -5.23686e-07 0)
(3.98675e-06 -4.75581e-07 0)
(4.1025e-06 -4.24258e-07 0)
(1.58867e-06 -1.31888e-06 0)
(1.73263e-06 -1.26434e-06 0)
(1.87604e-06 -1.21232e-06 0)
(2.01803e-06 -1.16227e-06 0)
(2.15856e-06 -1.11441e-06 0)
(2.29723e-06 -1.06859e-06 0)
(2.43397e-06 -1.02464e-06 0)
(2.56866e-06 -9.82345e-07 0)
(2.70126e-06 -9.4136e-07 0)
(2.83177e-06 -9.0135e-07 0)
(2.96024e-06 -8.61972e-07 0)
(3.08671e-06 -8.22828e-07 0)
(3.21131e-06 -7.83492e-07 0)
(3.33414e-06 -7.43634e-07 0)
(3.45536e-06 -7.02813e-07 0)
(3.57514e-06 -6.60658e-07 0)
(3.69367e-06 -6.16797e-07 0)
(3.8112e-06 -5.70798e-07 0)
(3.92801e-06 -5.22275e-07 0)
(4.04438e-06 -4.70972e-07 0)
(1.54914e-06 -1.38617e-06 0)
(1.68985e-06 -1.33242e-06 0)
(1.83028e-06 -1.28052e-06 0)
(1.96962e-06 -1.23013e-06 0)
(2.10782e-06 -1.18148e-06 0)
(2.24452e-06 -1.13452e-06 0)
(2.37962e-06 -1.08918e-06 0)
(2.51296e-06 -1.04528e-06 0)
(2.64449e-06 -1.00256e-06 0)
(2.77417e-06 -9.60747e-07 0)
(2.90203e-06 -9.19545e-07 0)
(3.02808e-06 -8.78603e-07 0)
(3.15243e-06 -8.37542e-07 0)
(3.27517e-06 -7.96084e-07 0)
(3.39642e-06 -7.53822e-07 0)
(3.51637e-06 -7.10439e-07 0)
(3.63516e-06 -6.65617e-07 0)
(3.75307e-06 -6.18974e-07 0)
(3.87028e-06 -5.70191e-07 0)
(3.9872e-06 -5.19071e-07 0)
(1.51259e-06 -1.45086e-06 0)
(1.65009e-06 -1.39792e-06 0)
(1.78757e-06 -1.34627e-06 0)
(1.9242e-06 -1.2957e-06 0)
(2.06001e-06 -1.2465e-06 0)
(2.19463e-06 -1.19866e-06 0)
(2.32794e-06 -1.15218e-06 0)
(2.45978e-06 -1.10696e-06 0)
(2.59006e-06 -1.06277e-06 0)
(2.71875e-06 -1.0194e-06 0)
(2.84583e-06 -9.76614e-07 0)
(2.97132e-06 -9.34104e-07 0)
(3.09528e-06 -8.91538e-07 0)
(3.2178e-06 -8.48686e-07 0)
(3.33897e-06 -8.05184e-07 0)
(3.45898e-06 -7.60764e-07 0)
(3.57794e-06 -7.15157e-07 0)
(3.69611e-06 -6.68023e-07 0)
(3.81366e-06 -6.19118e-07 0)
(3.93102e-06 -5.68319e-07 0)
(1.47829e-06 -1.51316e-06 0)
(1.61269e-06 -1.46103e-06 0)
(1.74726e-06 -1.4097e-06 0)
(1.88123e-06 -1.3591e-06 0)
(2.01465e-06 -1.30952e-06 0)
(2.14713e-06 -1.26102e-06 0)
(2.27857e-06 -1.21363e-06 0)
(2.40881e-06 -1.16731e-06 0)
(2.53773e-06 -1.1219e-06 0)
(2.66531e-06 -1.07722e-06 0)
(2.7915e-06 -1.03308e-06 0)
(2.91631e-06 -9.89228e-07 0)
(3.03979e-06 -9.45372e-07 0)
(3.16199e-06 -9.01329e-07 0)
(3.283e-06 -8.56776e-07 0)
(3.40298e-06 -8.11493e-07 0)
(3.52203e-06 -7.65254e-07 0)
(3.64037e-06 -7.17762e-07 0)
(3.75821e-06 -6.6886e-07 0)
(3.87587e-06 -6.18465e-07 0)
(1.44562e-06 -1.57328e-06 0)
(1.57706e-06 -1.52192e-06 0)
(1.70881e-06 -1.47097e-06 0)
(1.84019e-06 -1.42043e-06 0)
(1.97123e-06 -1.37063e-06 0)
(2.10157e-06 -1.32163e-06 0)
(2.23111e-06 -1.27354e-06 0)
(2.3597e-06 -1.22634e-06 0)
(2.48722e-06 -1.17993e-06 0)
(2.61363e-06 -1.13415e-06 0)
(2.73887e-06 -1.08888e-06 0)
(2.86294e-06 -1.0439e-06 0)
(2.98587e-06 -9.98953e-07 0)
(3.1077e-06 -9.53912e-07 0)
(3.2285e-06 -9.08488e-07 0)
(3.3484e-06 -8.62501e-07 0)
(3.46747e-06 -8.15761e-07 0)
(3.58592e-06 -7.68033e-07 0)
(3.70397e-06 -7.19237e-07 0)
(3.82185e-06 -6.69282e-07 0)
(1.41405e-06 -1.6314e-06 0)
(1.54267e-06 -1.58077e-06 0)
(1.67171e-06 -1.53023e-06 0)
(1.80059e-06 -1.47984e-06 0)
(1.9293e-06 -1.42991e-06 0)
(2.05754e-06 -1.38056e-06 0)
(2.1852e-06 -1.33194e-06 0)
(2.31215e-06 -1.28406e-06 0)
(2.43827e-06 -1.23684e-06 0)
(2.56351e-06 -1.19018e-06 0)
(2.68779e-06 -1.14399e-06 0)
(2.81109e-06 -1.09808e-06 0)
(2.93345e-06 -1.05224e-06 0)
(3.05486e-06 -1.00638e-06 0)
(3.17539e-06 -9.60247e-07 0)
(3.29514e-06 -9.13691e-07 0)
(3.41417e-06 -8.66572e-07 0)
(3.53271e-06 -8.18712e-07 0)
(3.65084e-06 -7.70082e-07 0)
(3.76892e-06 -7.20605e-07 0)
(1.38308e-06 -1.68771e-06 0)
(1.50901e-06 -1.63778e-06 0)
(1.63546e-06 -1.58763e-06 0)
(1.76192e-06 -1.53743e-06 0)
(1.8884e-06 -1.48747e-06 0)
(2.01462e-06 -1.43791e-06 0)
(2.14049e-06 -1.38891e-06 0)
(2.26585e-06 -1.34052e-06 0)
(2.39061e-06 -1.29269e-06 0)
(2.51468e-06 -1.24534e-06 0)
(2.63801e-06 -1.19841e-06 0)
(2.76054e-06 -1.15174e-06 0)
(2.88231e-06 -1.10518e-06 0)
(3.00329e-06 -1.05866e-06 0)
(3.12353e-06 -1.01195e-06 0)
(3.2431e-06 -9.64948e-07 0)
(3.36206e-06 -9.17556e-07 0)
(3.48062e-06 -8.69644e-07 0)
(3.5988e-06 -8.21204e-07 0)
(3.71698e-06 -7.72249e-07 0)
(1.35217e-06 -1.74237e-06 0)
(1.47554e-06 -1.69308e-06 0)
(1.59954e-06 -1.64333e-06 0)
(1.72371e-06 -1.59335e-06 0)
(1.84809e-06 -1.54345e-06 0)
(1.9724e-06 -1.49378e-06 0)
(2.09658e-06 -1.44455e-06 0)
(2.22044e-06 -1.3958e-06 0)
(2.34391e-06 -1.34751e-06 0)
(2.46689e-06 -1.29963e-06 0)
(2.58932e-06 -1.25213e-06 0)
(2.71114e-06 -1.20489e-06 0)
(2.83235e-06 -1.15777e-06 0)
(2.95292e-06 -1.11073e-06 0)
(3.07286e-06 -1.06357e-06 0)
(3.19225e-06 -1.01623e-06 0)
(3.31114e-06 -9.68646e-07 0)
(3.42965e-06 -9.20734e-07 0)
(3.54789e-06 -8.72523e-07 0)
(3.6661e-06 -8.24068e-07 0)
(1.3208e-06 -1.79551e-06 0)
(1.44175e-06 -1.74686e-06 0)
(1.56341e-06 -1.69746e-06 0)
(1.68548e-06 -1.64773e-06 0)
(1.80792e-06 -1.59797e-06 0)
(1.93049e-06 -1.54831e-06 0)
(2.05312e-06 -1.49895e-06 0)
(2.17562e-06 -1.44999e-06 0)
(2.29791e-06 -1.40139e-06 0)
(2.41989e-06 -1.35313e-06 0)
(2.54149e-06 -1.30523e-06 0)
(2.66264e-06 -1.25756e-06 0)
(2.78333e-06 -1.21001e-06 0)
(2.90351e-06 -1.16257e-06 0)
(3.02317e-06 -1.11506e-06 0)
(3.1424e-06 -1.06746e-06 0)
(3.26119e-06 -1.01976e-06 0)
(3.37965e-06 -9.71871e-07 0)
(3.4979e-06 -9.23909e-07 0)
(3.61614e-06 -8.75935e-07 0)
(1.28844e-06 -1.84734e-06 0)
(1.40704e-06 -1.79914e-06 0)
(1.5265e-06 -1.75019e-06 0)
(1.64673e-06 -1.70081e-06 0)
(1.76741e-06 -1.65122e-06 0)
(1.88846e-06 -1.60165e-06 0)
(2.00969e-06 -1.55228e-06 0)
(2.131e-06 -1.50321e-06 0)
(2.25227e-06 -1.45442e-06 0)
(2.37338e-06 -1.40592e-06 0)
(2.49428e-06 -1.35774e-06 0)
(2.61486e-06 -1.30977e-06 0)
(2.73509e-06 -1.26191e-06 0)
(2.85493e-06 -1.21417e-06 0)
(2.97437e-06 -1.16642e-06 0)
(3.09347e-06 -1.11864e-06 0)
(3.21218e-06 -1.07083e-06 0)
(3.33063e-06 -1.02299e-06 0)
(3.44882e-06 -9.75275e-07 0)
(3.56706e-06 -9.27731e-07 0)
(1.25434e-06 -1.89781e-06 0)
(1.37094e-06 -1.85013e-06 0)
(1.48859e-06 -1.80169e-06 0)
(1.60707e-06 -1.75267e-06 0)
(1.72625e-06 -1.70335e-06 0)
(1.84595e-06 -1.65394e-06 0)
(1.96603e-06 -1.60465e-06 0)
(2.08634e-06 -1.55557e-06 0)
(2.20676e-06 -1.50672e-06 0)
(2.32718e-06 -1.4581e-06 0)
(2.4475e-06 -1.40975e-06 0)
(2.56761e-06 -1.36159e-06 0)
(2.68748e-06 -1.31352e-06 0)
(2.80708e-06 -1.26557e-06 0)
(2.92637e-06 -1.21763e-06 0)
(3.04535e-06 -1.16973e-06 0)
(3.16398e-06 -1.12186e-06 0)
(3.28246e-06 -1.07404e-06 0)
(3.40067e-06 -1.02653e-06 0)
(3.51883e-06 -9.7942e-07 0)
(1.21803e-06 -1.94742e-06 0)
(1.33278e-06 -1.90031e-06 0)
(1.44883e-06 -1.85229e-06 0)
(1.56589e-06 -1.80365e-06 0)
(1.68385e-06 -1.75464e-06 0)
(1.8025e-06 -1.70546e-06 0)
(1.92169e-06 -1.65631e-06 0)
(2.04128e-06 -1.60731e-06 0)
(2.16111e-06 -1.55847e-06 0)
(2.28102e-06 -1.50983e-06 0)
(2.40092e-06 -1.46139e-06 0)
(2.52073e-06 -1.41309e-06 0)
(2.64038e-06 -1.36489e-06 0)
(2.75979e-06 -1.31683e-06 0)
(2.87896e-06 -1.26876e-06 0)
(2.99791e-06 -1.2207e-06 0)
(3.11659e-06 -1.17279e-06 0)
(3.23505e-06 -1.12501e-06 0)
(3.35331e-06 -1.0776e-06 0)
(3.47146e-06 -1.03083e-06 0)
(1.17906e-06 -1.9958e-06 0)
(1.29224e-06 -1.94934e-06 0)
(1.40695e-06 -1.9019e-06 0)
(1.52291e-06 -1.85376e-06 0)
(1.63997e-06 -1.80514e-06 0)
(1.75792e-06 -1.75626e-06 0)
(1.87658e-06 -1.70736e-06 0)
(1.99573e-06 -1.65854e-06 0)
(2.1152e-06 -1.6098e-06 0)
(2.23486e-06 -1.56115e-06 0)
(2.35457e-06 -1.5127e-06 0)
(2.4742e-06 -1.46439e-06 0)
(2.59372e-06 -1.4161e-06 0)
(2.71307e-06 -1.36792e-06 0)
(2.83218e-06 -1.31979e-06 0)
(2.9511e-06 -1.27166e-06 0)
(3.06988e-06 -1.22368e-06 0)
(3.18842e-06 -1.17585e-06 0)
(3.30685e-06 -1.12847e-06 0)
(3.42506e-06 -1.08188e-06 0)
(8.50134e-08 -1.69047e-06 0)
(2.56146e-07 -1.66571e-06 0)
(4.30529e-07 -1.61714e-06 0)
(6.10049e-07 -1.54678e-06 0)
(7.96136e-07 -1.45729e-06 0)
(9.89695e-07 -1.35205e-06 0)
(1.19106e-06 -1.23494e-06 0)
(1.39984e-06 -1.10994e-06 0)
(1.61552e-06 -9.81089e-07 0)
(1.83623e-06 -8.51465e-07 0)
(8.27037e-08 -1.71927e-06 0)
(2.49061e-07 -1.69664e-06 0)
(4.18089e-07 -1.65222e-06 0)
(5.91393e-07 -1.58771e-06 0)
(7.70177e-07 -1.5054e-06 0)
(9.55175e-07 -1.40815e-06 0)
(1.14673e-06 -1.29924e-06 0)
(1.34431e-06 -1.18217e-06 0)
(1.54727e-06 -1.06055e-06 0)
(1.75376e-06 -9.37398e-07 0)
(8.06275e-08 -1.74873e-06 0)
(2.42681e-07 -1.72803e-06 0)
(4.06906e-07 -1.68735e-06 0)
(5.7456e-07 -1.62818e-06 0)
(7.46694e-07 -1.55251e-06 0)
(9.23867e-07 -1.46281e-06 0)
(1.10645e-06 -1.3619e-06 0)
(1.29416e-06 -1.25276e-06 0)
(1.48653e-06 -1.13847e-06 0)
(1.68222e-06 -1.02132e-06 0)
(7.87885e-08 -1.77889e-06 0)
(2.37007e-07 -1.75983e-06 0)
(3.97074e-07 -1.72235e-06 0)
(5.5992e-07 -1.66776e-06 0)
(7.26473e-07 -1.5978e-06 0)
(8.97146e-07 -1.51464e-06 0)
(1.07222e-06 -1.4208e-06 0)
(1.25143e-06 -1.31892e-06 0)
(1.43434e-06 -1.21184e-06 0)
(1.61986e-06 -1.10153e-06 0)
(7.71124e-08 -1.80975e-06 0)
(2.31799e-07 -1.79217e-06 0)
(3.88048e-07 -1.75756e-06 0)
(5.46553e-07 -1.70709e-06 0)
(7.08107e-07 -1.64231e-06 0)
(8.73039e-07 -1.56517e-06 0)
(1.04159e-06 -1.4779e-06 0)
(1.21355e-06 -1.38272e-06 0)
(1.38856e-06 -1.28227e-06 0)
(1.56542e-06 -1.17834e-06 0)
(7.55345e-08 -1.84127e-06 0)
(2.26994e-07 -1.82496e-06 0)
(3.79747e-07 -1.79285e-06 0)
(5.34376e-07 -1.746e-06 0)
(6.91523e-07 -1.68578e-06 0)
(8.51464e-07 -1.61397e-06 0)
(1.01433e-06 -1.5326e-06 0)
(1.17991e-06 -1.44361e-06 0)
(1.34802e-06 -1.34942e-06 0)
(1.51734e-06 -1.25176e-06 0)
(7.40232e-08 -1.87341e-06 0)
(2.22432e-07 -1.85824e-06 0)
(3.71908e-07 -1.82838e-06 0)
(5.2298e-07 -1.78477e-06 0)
(6.76114e-07 -1.72866e-06 0)
(8.31596e-07 -1.66166e-06 0)
(9.89493e-07 -1.58562e-06 0)
(1.14955e-06 -1.50229e-06 0)
(1.31171e-06 -1.41382e-06 0)
(1.47457e-06 -1.32199e-06 0)
(7.26018e-08 -1.90611e-06 0)
(2.18067e-07 -1.89196e-06 0)
(3.64447e-07 -1.86408e-06 0)
(5.12207e-07 -1.82336e-06 0)
(6.61685e-07 -1.77091e-06 0)
(8.13124e-07 -1.70822e-06 0)
(9.6659e-07 -1.63701e-06 0)
(1.12178e-06 -1.55885e-06 0)
(1.27875e-06 -1.47567e-06 0)
(1.43605e-06 -1.38927e-06 0)
(7.1217e-08 -1.93932e-06 0)
(2.13814e-07 -1.92608e-06 0)
(3.5723e-07 -1.89998e-06 0)
(5.01835e-07 -1.86185e-06 0)
(6.47915e-07 -1.81272e-06 0)
(7.95669e-07 -1.75392e-06 0)
(9.45136e-07 -1.68706e-06 0)
(1.09601e-06 -1.61363e-06 0)
(1.24841e-06 -1.53528e-06 0)
(1.40091e-06 -1.45384e-06 0)
(6.98188e-08 -1.97297e-06 0)
(2.09621e-07 -1.96056e-06 0)
(3.50158e-07 -1.93605e-06 0)
(4.91734e-07 -1.90025e-06 0)
(6.3459e-07 -1.8541e-06 0)
(7.7893e-07 -1.79881e-06 0)
(9.24741e-07 -1.73591e-06 0)
(1.07173e-06 -1.66676e-06 0)
(1.22006e-06 -1.59284e-06 0)
(1.36835e-06 -1.51596e-06 0)
(6.84081e-08 -2.00699e-06 0)
(2.05455e-07 -1.99533e-06 0)
(3.4313e-07 -1.97227e-06 0)
(4.81759e-07 -1.93857e-06 0)
(6.21514e-07 -1.89513e-06 0)
(7.62624e-07 -1.84303e-06 0)
(9.05049e-07 -1.7837e-06 0)
(1.0485e-06 -1.71845e-06 0)
(1.19314e-06 -1.64859e-06 0)
(1.3377e-06 -1.57584e-06 0)
(6.70025e-08 -2.04132e-06 0)
(2.01274e-07 -2.03034e-06 0)
(3.36066e-07 -2.0086e-06 0)
(4.71781e-07 -1.9768e-06 0)
(6.08525e-07 -1.9358e-06 0)
(7.46522e-07 -1.88661e-06 0)
(8.85754e-07 -1.83054e-06 0)
(1.02592e-06 -1.76884e-06 0)
(1.16719e-06 -1.70267e-06 0)
(1.30842e-06 -1.63371e-06 0)
(6.55847e-08 -2.07587e-06 0)
(1.97e-07 -2.06552e-06 0)
(3.28866e-07 -2.04498e-06 0)
(4.61651e-07 -2.01491e-06 0)
(5.95426e-07 -1.97615e-06 0)
(7.30384e-07 -1.92961e-06 0)
(8.6655e-07 -1.87652e-06 0)
(1.00363e-06 -1.81805e-06 0)
(1.14178e-06 -1.75527e-06 0)
(1.28001e-06 -1.68976e-06 0)
(6.41117e-08 -2.11057e-06 0)
(1.92549e-07 -2.10077e-06 0)
(3.21425e-07 -2.08134e-06 0)
(4.51219e-07 -2.05287e-06 0)
(5.82013e-07 -2.01615e-06 0)
(7.13967e-07 -1.97205e-06 0)
(8.47141e-07 -1.92168e-06 0)
(9.81281e-07 -1.86617e-06 0)
(1.11652e-06 -1.80651e-06 0)
(1.25198e-06 -1.74416e-06 0)
(6.25503e-08 -2.14532e-06 0)
(1.87862e-07 -2.13603e-06 0)
(3.13645e-07 -2.11763e-06 0)
(4.40347e-07 -2.09063e-06 0)
(5.68094e-07 -2.0558e-06 0)
(6.97026e-07 -2.01394e-06 0)
(8.2723e-07 -1.96609e-06 0)
(9.5851e-07 -1.91332e-06 0)
(1.09095e-06 -1.85653e-06 0)
(1.2238e-06 -1.79707e-06 0)
(6.08894e-08 -2.17996e-06 0)
(1.82903e-07 -2.17114e-06 0)
(3.05439e-07 -2.1537e-06 0)
(4.28902e-07 -2.12809e-06 0)
(5.53478e-07 -2.09501e-06 0)
(6.79313e-07 -2.05524e-06 0)
(8.06521e-07 -2.00972e-06 0)
(9.34968e-07 -1.95949e-06 0)
(1.06465e-06 -1.90537e-06 0)
(1.19501e-06 -1.84857e-06 0)
(5.91202e-08 -2.21443e-06 0)
(1.77616e-07 -2.20607e-06 0)
(2.96681e-07 -2.18953e-06 0)
(4.16703e-07 -2.16522e-06 0)
(5.3794e-07 -2.1338e-06 0)
(6.6055e-07 -2.09598e-06 0)
(7.84678e-07 -2.05267e-06 0)
(9.10211e-07 -2.00482e-06 0)
(1.03716e-06 -1.95318e-06 0)
(1.16504e-06 -1.89889e-06 0)
(5.72185e-08 -2.24842e-06 0)
(1.71912e-07 -2.24049e-06 0)
(2.87225e-07 -2.22481e-06 0)
(4.03555e-07 -2.20175e-06 0)
(5.2122e-07 -2.1719e-06 0)
(6.4042e-07 -2.13594e-06 0)
(7.61313e-07 -2.09473e-06 0)
(8.83801e-07 -2.04914e-06 0)
(1.00796e-06 -1.99987e-06 0)
(1.13335e-06 -1.94794e-06 0)
(5.51363e-08 -2.28206e-06 0)
(1.65657e-07 -2.27454e-06 0)
(2.76861e-07 -2.25969e-06 0)
(3.89185e-07 -2.23783e-06 0)
(5.02984e-07 -2.20951e-06 0)
(6.18507e-07 -2.17537e-06 0)
(7.35931e-07 -2.13617e-06 0)
(8.55227e-07 -2.09275e-06 0)
(9.76436e-07 -2.04576e-06 0)
(1.09928e-06 -1.9961e-06 0)
(5.28499e-08 -2.31446e-06 0)
(1.58804e-07 -2.30736e-06 0)
(2.65509e-07 -2.29334e-06 0)
(3.73453e-07 -2.27267e-06 0)
(4.8305e-07 -2.24587e-06 0)
(5.94595e-07 -2.21354e-06 0)
(7.08274e-07 -2.17636e-06 0)
(8.24202e-07 -2.1351e-06 0)
(9.42318e-07 -2.09038e-06 0)
(1.06255e-06 -2.04299e-06 0)
)


// ************************************************************************* //
