/*--------------------------------*- C++ -*----------------------------------*\
| =========                 |                                                 |
| \\      /  F ield         | foam-extend: Open Source CFD                    |
|  \\    /   O peration     | Version:     4.1                                |
|   \\  /    A nd           | Web:         http://www.foam-extend.org         |
|    \\/     M anipulation  |                                                 |
\*---------------------------------------------------------------------------*/
FoamFile
{
    version     2.0;
    format      ascii;
    class       vectorField;
    location    "2";
    object      residualD_iteration3;
}
// * * * * * * * * * * * * * * * * * * * * * * * * * * * * * * * * * * * * * //


1000
(
(0.0360486 -0.0144812 0)
(0.0334051 -0.014124 0)
(0.0316575 -0.0142533 0)
(0.0305593 -0.0147532 0)
(0.0299098 -0.0154801 0)
(0.0295881 -0.0163618 0)
(0.0295111 -0.0173958 0)
(0.0296057 -0.0185078 0)
(0.029974 -0.0195956 0)
(0.0303332 -0.0206809 0)
(0.032603 -0.0157889 0)
(0.0298008 -0.0159038 0)
(0.0279397 -0.0163127 0)
(0.0267989 -0.017021 0)
(0.0261518 -0.0179135 0)
(0.0258187 -0.0188899 0)
(0.0257491 -0.0199884 0)
(0.0258837 -0.0211408 0)
(0.0262857 -0.0222568 0)
(0.0267395 -0.0235127 0)
(0.0289722 -0.0170206 0)
(0.0261265 -0.0176308 0)
(0.0242902 -0.0183516 0)
(0.0231368 -0.0192412 0)
(0.0224965 -0.0202767 0)
(0.0221913 -0.0213727 0)
(0.0221518 -0.0225291 0)
(0.0223394 -0.0237232 0)
(0.0227521 -0.0249127 0)
(0.0232138 -0.0262467 0)
(0.0252718 -0.0181328 0)
(0.0224933 -0.0192405 0)
(0.0207422 -0.0202809 0)
(0.0196356 -0.0213961 0)
(0.0190104 -0.0225633 0)
(0.0187372 -0.0237512 0)
(0.0187206 -0.0249827 0)
(0.0189272 -0.0262352 0)
(0.0193311 -0.0274831 0)
(0.0197869 -0.0288496 0)
(0.0215033 -0.0190981 0)
(0.0189073 -0.0207079 0)
(0.0172819 -0.0220628 0)
(0.016276 -0.02338 0)
(0.0157205 -0.0246913 0)
(0.0154797 -0.0259821 0)
(0.0154791 -0.0272764 0)
(0.0156656 -0.0285877 0)
(0.0160359 -0.0298945 0)
(0.0164604 -0.0312842 0)
(0.0176864 -0.0199178 0)
(0.0153648 -0.0219827 0)
(0.0139302 -0.0236562 0)
(0.0130622 -0.025166 0)
(0.0125917 -0.0265972 0)
(0.0123742 -0.0279794 0)
(0.0123805 -0.0293355 0)
(0.0125555 -0.0307056 0)
(0.0128843 -0.0320701 0)
(0.0132587 -0.033488 0)
(0.0138123 -0.0206009 0)
(0.0118947 -0.0230482 0)
(0.0107077 -0.0249963 0)
(0.00999223 -0.0266813 0)
(0.0096002 -0.0282236 0)
(0.00942583 -0.0296749 0)
(0.00944264 -0.031093 0)
(0.00959501 -0.0325085 0)
(0.00986472 -0.0339146 0)
(0.0101703 -0.0353578 0)
(0.0098917 -0.0211381 0)
(0.00846151 -0.0238762 0)
(0.00757438 -0.0260408 0)
(0.00705221 -0.0278749 0)
(0.00675445 -0.0295072 0)
(0.00662384 -0.0310177 0)
(0.00664059 -0.0324849 0)
(0.0067611 -0.0339356 0)
(0.00696344 -0.0353773 0)
(0.00718425 -0.0368418 0)
(0.00594485 -0.0215137 0)
(0.0050723 -0.0244623 0)
(0.00452536 -0.0267479 0)
(0.00418816 -0.0286819 0)
(0.00399592 -0.0303811 0)
(0.00392857 -0.0319564 0)
(0.00395231 -0.0334646 0)
(0.00402138 -0.0349329 0)
(0.00413339 -0.0363995 0)
(0.00426629 -0.0378786 0)
(0.00198909 -0.0217158 0)
(0.00168267 -0.0247857 0)
(0.00149548 -0.0271365 0)
(0.00139404 -0.0291139 0)
(0.00133502 -0.0308412 0)
(0.00130336 -0.0324331 0)
(0.00130739 -0.0339616 0)
(0.00133563 -0.0354542 0)
(0.00137361 -0.0369426 0)
(0.00141398 -0.0384277 0)
(0.0569583 -0.000630476 0)
(0.0572715 -0.00045382 0)
(0.0573458 -0.000355328 0)
(0.0573896 -0.000320142 0)
(0.0575127 -0.000339472 0)
(0.0577208 -0.000369879 0)
(0.0580581 -0.000409527 0)
(0.0585072 -0.000487372 0)
(0.0590958 -0.000571466 0)
(0.0598257 -0.000645904 0)
(0.0565284 -0.00188967 0)
(0.0567337 -0.00136757 0)
(0.0567605 -0.00110078 0)
(0.0567466 -0.000987673 0)
(0.0568259 -0.00100949 0)
(0.0569977 -0.00112862 0)
(0.0573174 -0.00128755 0)
(0.0577631 -0.00148838 0)
(0.0583487 -0.00171279 0)
(0.059079 -0.00195128 0)
(0.0556416 -0.00317782 0)
(0.0556315 -0.00233882 0)
(0.0555459 -0.00192435 0)
(0.0554596 -0.00176487 0)
(0.0554732 -0.00180092 0)
(0.0556046 -0.00197723 0)
(0.0558857 -0.00222905 0)
(0.0562771 -0.00254923 0)
(0.0568083 -0.0029286 0)
(0.0575034 -0.00333768 0)
(0.0543399 -0.00448174 0)
(0.0540469 -0.00337925 0)
(0.0537734 -0.00286226 0)
(0.0535866 -0.00267547 0)
(0.053518 -0.00273174 0)
(0.0535688 -0.00296265 0)
(0.0537919 -0.00331147 0)
(0.0541478 -0.00375378 0)
(0.0546245 -0.00427737 0)
(0.0552969 -0.00483201 0)
(0.0526326 -0.00584613 0)
(0.0520096 -0.00454165 0)
(0.0515131 -0.00395295 0)
(0.0511745 -0.00376023 0)
(0.051008 -0.00384863 0)
(0.0509801 -0.00414355 0)
(0.0511211 -0.00458685 0)
(0.0514168 -0.00513688 0)
(0.0518113 -0.00578608 0)
(0.052435 -0.00646627 0)
(0.0505671 -0.0072641 0)
(0.0495687 -0.00585474 0)
(0.0488196 -0.00522502 0)
(0.0483181 -0.00505688 0)
(0.0480501 -0.00520154 0)
(0.0479457 -0.00556631 0)
(0.0480122 -0.0060879 0)
(0.04824 -0.00672685 0)
(0.0485472 -0.00748321 0)
(0.049122 -0.00826944 0)
(0.0481696 -0.00870037 0)
(0.0467881 -0.00730705 0)
(0.0457885 -0.00670214 0)
(0.0451223 -0.00658904 0)
(0.0447434 -0.00680573 0)
(0.0445662 -0.00724488 0)
(0.0445598 -0.007834 0)
(0.0447035 -0.00854676 0)
(0.0449037 -0.00939353 0)
(0.0454101 -0.010263 0)
(0.0454808 -0.0101584 0)
(0.0437161 -0.00888301 0)
(0.0424724 -0.00837661 0)
(0.0416542 -0.00835566 0)
(0.0411704 -0.00866016 0)
(0.0409372 -0.00917712 0)
(0.0408808 -0.0098343 0)
(0.0409712 -0.0106149 0)
(0.0410818 -0.011534 0)
(0.041474 -0.0124489 0)
(0.042542 -0.0116337 0)
(0.0404194 -0.0105695 0)
(0.0389873 -0.0102171 0)
(0.0380459 -0.0103308 0)
(0.037484 -0.0107494 0)
(0.0371986 -0.0113623 0)
(0.0371022 -0.0120982 0)
(0.0371468 -0.0129303 0)
(0.0371598 -0.0138744 0)
(0.0373517 -0.0147664 0)
(0.0393894 -0.0130986 0)
(0.0369511 -0.0123317 0)
(0.0353562 -0.0121992 0)
(0.034335 -0.012489 0)
(0.0337341 -0.0130504 0)
(0.0334337 -0.0137832 0)
(0.0333685 -0.0146282 0)
(0.0334787 -0.0155567 0)
(0.0335887 -0.0165628 0)
(0.033512 -0.0174479 0)
(0.0606796 -0.000713404 0)
(0.0616195 -0.000763763 0)
(0.0626035 -0.000797044 0)
(0.0636189 -0.000814227 0)
(0.0646455 -0.000819814 0)
(0.0656869 -0.000826884 0)
(0.0667563 -0.000845774 0)
(0.0678387 -0.000865484 0)
(0.0689205 -0.000868756 0)
(0.0700182 -0.000857928 0)
(0.071142 -0.000846041 0)
(0.0722868 -0.000839708 0)
(0.0734525 -0.000837984 0)
(0.0746481 -0.000837621 0)
(0.0758817 -0.000836011 0)
(0.0771551 -0.000832849 0)
(0.0784684 -0.000829199 0)
(0.0798256 -0.000824475 0)
(0.0812247 -0.000818547 0)
(0.0826787 -0.000811354 0)
(0.0599866 -0.00216594 0)
(0.0610166 -0.00230513 0)
(0.0620654 -0.00239018 0)
(0.0631258 -0.00244221 0)
(0.0642004 -0.0024751 0)
(0.0652793 -0.00250369 0)
(0.0663626 -0.00253709 0)
(0.0674523 -0.00256247 0)
(0.0685485 -0.00256376 0)
(0.0696609 -0.00254967 0)
(0.0707895 -0.00253633 0)
(0.0719354 -0.00252912 0)
(0.0731083 -0.00252544 0)
(0.0743159 -0.00252075 0)
(0.0755592 -0.00251238 0)
(0.0768381 -0.00250261 0)
(0.0781583 -0.00249358 0)
(0.0795276 -0.00248386 0)
(0.0809443 -0.00247234 0)
(0.0824271 -0.00245491 0)
(0.0584737 -0.00368007 0)
(0.0596557 -0.00387658 0)
(0.060854 -0.00399315 0)
(0.0620295 -0.00407195 0)
(0.0631883 -0.00412698 0)
(0.0643436 -0.00417267 0)
(0.0655113 -0.00421858 0)
(0.0666823 -0.00425209 0)
(0.0678407 -0.00426254 0)
(0.0690019 -0.00426141 0)
(0.0701761 -0.00425948 0)
(0.0713687 -0.00425717 0)
(0.0725855 -0.00425188 0)
(0.0738272 -0.00424154 0)
(0.0750927 -0.00422652 0)
(0.0763899 -0.00421079 0)
(0.0777254 -0.00419612 0)
(0.0791085 -0.00418284 0)
(0.0805309 -0.0041699 0)
(0.0820175 -0.00414638 0)
(0.0563844 -0.00526776 0)
(0.0577786 -0.00549176 0)
(0.0591501 -0.00562515 0)
(0.0604605 -0.00572492 0)
(0.0617459 -0.00579695 0)
(0.0630114 -0.00585639 0)
(0.0642635 -0.00591583 0)
(0.0655037 -0.00595725 0)
(0.0667373 -0.00597424 0)
(0.0679753 -0.00598345 0)
(0.0692195 -0.00599186 0)
(0.0704722 -0.00599566 0)
(0.0717397 -0.00599304 0)
(0.0730247 -0.00598555 0)
(0.0743295 -0.00597589 0)
(0.0756677 -0.00596242 0)
(0.077044 -0.00594571 0)
(0.0784624 -0.00592769 0)
(0.0799216 -0.00590747 0)
(0.0814274 -0.0058781 0)
(0.0536505 -0.00696234 0)
(0.0553122 -0.00717602 0)
(0.0569327 -0.00730051 0)
(0.0584371 -0.00740694 0)
(0.0598817 -0.00748565 0)
(0.0612808 -0.00754857 0)
(0.0626589 -0.00761059 0)
(0.0640058 -0.00765521 0)
(0.0653463 -0.00768151 0)
(0.0666845 -0.00770419 0)
(0.0680134 -0.00772413 0)
(0.0693385 -0.0077372 0)
(0.0706709 -0.0077451 0)
(0.0720154 -0.0077505 0)
(0.0733769 -0.00775314 0)
(0.0747613 -0.00774622 0)
(0.0761846 -0.0077307 0)
(0.0776315 -0.0077094 0)
(0.0791323 -0.0076817 0)
(0.0806694 -0.00764871 0)
(0.050481 -0.00879079 0)
(0.0524157 -0.00894772 0)
(0.0542768 -0.00902368 0)
(0.0559661 -0.00910605 0)
(0.0575879 -0.00917082 0)
(0.0591449 -0.00923448 0)
(0.0606784 -0.00929849 0)
(0.062164 -0.00934495 0)
(0.0636206 -0.00938066 0)
(0.0650615 -0.00941896 0)
(0.0664905 -0.00945585 0)
(0.0679165 -0.00948654 0)
(0.0693442 -0.00951428 0)
(0.070772 -0.00954061 0)
(0.0722087 -0.00955762 0)
(0.0736564 -0.00955695 0)
(0.0751398 -0.00954309 0)
(0.0766394 -0.00952102 0)
(0.0781887 -0.00949368 0)
(0.0797666 -0.00946454 0)
(0.0469238 -0.0107663 0)
(0.0491451 -0.0108066 0)
(0.0512722 -0.0107902 0)
(0.0531664 -0.0108265 0)
(0.0549713 -0.0108684 0)
(0.0566962 -0.0109292 0)
(0.0583625 -0.010993 0)
(0.0599896 -0.0110439 0)
(0.061588 -0.0110935 0)
(0.0631628 -0.0111529 0)
(0.0647181 -0.0112141 0)
(0.0662616 -0.0112697 0)
(0.0677955 -0.0113208 0)
(0.0693191 -0.011367 0)
(0.0708429 -0.0113967 0)
(0.0723744 -0.0114042 0)
(0.0739365 -0.0113977 0)
(0.0755113 -0.0113812 0)
(0.0771234 -0.0113609 0)
(0.0787472 -0.0113405 0)
(0.0431044 -0.012881 0)
(0.0455654 -0.0127428 0)
(0.0479115 -0.0126035 0)
(0.0499968 -0.0125739 0)
(0.0519711 -0.0125847 0)
(0.0538721 -0.0126306 0)
(0.0557003 -0.0126951 0)
(0.0574879 -0.0127641 0)
(0.0592464 -0.0128418 0)
(0.0609784 -0.012932 0)
(0.062685 -0.0130233 0)
(0.0643678 -0.0131064 0)
(0.0660271 -0.013181 0)
(0.0676702 -0.0132458 0)
(0.0693085 -0.0132893 0)
(0.0709539 -0.0133097 0)
(0.0726226 -0.0133156 0)
(0.0742857 -0.0133102 0)
(0.0759718 -0.0132993 0)
(0.0776483 -0.0132814 0)
(0.0390691 -0.0150848 0)
(0.0416967 -0.0146865 0)
(0.044198 -0.0144048 0)
(0.0464471 -0.014306 0)
(0.0486126 -0.014296 0)
(0.0506968 -0.0143429 0)
(0.0527215 -0.0144237 0)
(0.0547024 -0.0145214 0)
(0.0566442 -0.0146334 0)
(0.0585486 -0.0147588 0)
(0.0604184 -0.0148845 0)
(0.0622566 -0.0149984 0)
(0.0640653 -0.0150996 0)
(0.0658568 -0.0151859 0)
(0.0676386 -0.0152469 0)
(0.0694238 -0.0152852 0)
(0.0712225 -0.0153071 0)
(0.0729957 -0.0153142 0)
(0.0747682 -0.015306 0)
(0.076512 -0.0152725 0)
(0.0349847 -0.0173095 0)
(0.0377229 -0.0165522 0)
(0.040346 -0.0161966 0)
(0.0427755 -0.0160797 0)
(0.0451381 -0.0160616 0)
(0.0474228 -0.0161109 0)
(0.04965 -0.0162051 0)
(0.051827 -0.0163243 0)
(0.0539584 -0.0164624 0)
(0.0560449 -0.0166173 0)
(0.0580877 -0.016775 0)
(0.0600906 -0.0169195 0)
(0.0620598 -0.0170475 0)
(0.0640098 -0.017157 0)
(0.0659438 -0.0172398 0)
(0.0678757 -0.0173013 0)
(0.0698016 -0.0173436 0)
(0.0716975 -0.0173617 0)
(0.0735709 -0.0173448 0)
(0.0754022 -0.0172788 0)
(0.031785 -0.0202009 0)
(0.0343772 -0.0190547 0)
(0.037138 -0.0185495 0)
(0.039829 -0.01828 0)
(0.0424062 -0.0181639 0)
(0.0448898 -0.018149 0)
(0.0472917 -0.0182029 0)
(0.0496266 -0.0182988 0)
(0.0519043 -0.0184235 0)
(0.0541275 -0.0185719 0)
(0.0562995 -0.0187287 0)
(0.058425 -0.0188762 0)
(0.0605117 -0.019009 0)
(0.0625727 -0.0191246 0)
(0.0646048 -0.0192157 0)
(0.066628 -0.0192863 0)
(0.068621 -0.0193334 0)
(0.0705853 -0.0193442 0)
(0.0725132 -0.0193015 0)
(0.074396 -0.0191985 0)
(0.0300668 -0.0232572 0)
(0.0326811 -0.0220535 0)
(0.0353697 -0.0213473 0)
(0.0380796 -0.0209029 0)
(0.0407095 -0.0206498 0)
(0.0432692 -0.0205268 0)
(0.0457541 -0.0204961 0)
(0.0481744 -0.020526 0)
(0.0505333 -0.0205984 0)
(0.0528305 -0.020705 0)
(0.0550714 -0.0208285 0)
(0.0572623 -0.0209505 0)
(0.0594111 -0.0210641 0)
(0.0615257 -0.0211654 0)
(0.0635968 -0.0212468 0)
(0.0656504 -0.021307 0)
(0.0676555 -0.0213379 0)
(0.0696331 -0.0213224 0)
(0.0715634 -0.0212471 0)
(0.0734513 -0.021117 0)
(0.0287136 -0.0260189 0)
(0.0313127 -0.0248825 0)
(0.0339721 -0.0241163 0)
(0.0366647 -0.0235907 0)
(0.0393143 -0.0232403 0)
(0.041904 -0.0230207 0)
(0.0444344 -0.022906 0)
(0.0469085 -0.0228657 0)
(0.0493208 -0.022878 0)
(0.0516677 -0.0229323 0)
(0.0539558 -0.0230121 0)
(0.0561917 -0.0230996 0)
(0.058383 -0.0231866 0)
(0.0605333 -0.0232674 0)
(0.06263 -0.0233331 0)
(0.0647025 -0.0233767 0)
(0.0667158 -0.0233847 0)
(0.0687044 -0.0233441 0)
(0.0706369 -0.0232506 0)
(0.0725331 -0.0231056 0)
(0.0275649 -0.0286812 0)
(0.0301432 -0.0276092 0)
(0.0327615 -0.026823 0)
(0.0354226 -0.0262432 0)
(0.0380637 -0.0258195 0)
(0.0406583 -0.0255242 0)
(0.0432095 -0.0253399 0)
(0.0457127 -0.0252376 0)
(0.0481572 -0.0251939 0)
(0.050538 -0.0251974 0)
(0.0528616 -0.0252333 0)
(0.0551326 -0.0252844 0)
(0.0573585 -0.0253413 0)
(0.0595381 -0.0253967 0)
(0.0616594 -0.0254405 0)
(0.0637545 -0.0254616 0)
(0.0657829 -0.0254448 0)
(0.0677871 -0.0253856 0)
(0.069727 -0.0252831 0)
(0.0716414 -0.0251135 0)
(0.0266029 -0.0312209 0)
(0.0291526 -0.0302323 0)
(0.0317197 -0.029458 0)
(0.0343439 -0.0288469 0)
(0.0369535 -0.0283735 0)
(0.039535 -0.0280214 0)
(0.0420851 -0.0277792 0)
(0.0445951 -0.0276219 0)
(0.047053 -0.0275267 0)
(0.0494535 -0.0274818 0)
(0.0518018 -0.0274742 0)
(0.0540999 -0.0274874 0)
(0.0563548 -0.0275096 0)
(0.0585606 -0.0275325 0)
(0.0607058 -0.0275462 0)
(0.0628241 -0.0275389 0)
(0.0648719 -0.0274969 0)
(0.0668925 -0.0274208 0)
(0.0688458 -0.0272997 0)
(0.0707867 -0.0270848 0)
(0.0257735 -0.0336749 0)
(0.0282916 -0.0327572 0)
(0.0308155 -0.0320028 0)
(0.0333911 -0.0313779 0)
(0.0359619 -0.0308717 0)
(0.0385194 -0.0304753 0)
(0.0410531 -0.0301822 0)
(0.043555 -0.029974 0)
(0.0460135 -0.0298308 0)
(0.0484235 -0.0297404 0)
(0.0507883 -0.0296925 0)
(0.0531069 -0.0296701 0)
(0.0553862 -0.0296587 0)
(0.0576156 -0.0296478 0)
(0.0597853 -0.0296299 0)
(0.0619229 -0.029596 0)
(0.063989 -0.0295329 0)
(0.0660262 -0.0294375 0)
(0.0680014 -0.0292834 0)
(0.0699696 -0.0290339 0)
(0.0250497 -0.0360605 0)
(0.0275322 -0.0351978 0)
(0.0300214 -0.0344666 0)
(0.0325454 -0.0338389 0)
(0.0350793 -0.0333105 0)
(0.0376053 -0.0328781 0)
(0.0401134 -0.0325403 0)
(0.0425985 -0.0322863 0)
(0.04505 -0.0320998 0)
(0.0474618 -0.0319682 0)
(0.0498355 -0.0318839 0)
(0.052168 -0.0318308 0)
(0.0544653 -0.0317908 0)
(0.0567111 -0.0317514 0)
(0.0589016 -0.0317072 0)
(0.0610543 -0.0316533 0)
(0.0631363 -0.0315731 0)
(0.0651928 -0.031456 0)
(0.0671944 -0.0312711 0)
(0.0691839 -0.0310338 0)
(0.0244252 -0.038396 0)
(0.0268747 -0.0375827 0)
(0.0293269 -0.0368789 0)
(0.0318088 -0.0362553 0)
(0.0343059 -0.0357146 0)
(0.0367949 -0.035258 0)
(0.0392719 -0.0348869 0)
(0.0417353 -0.0345967 0)
(0.0441736 -0.0343743 0)
(0.0465797 -0.0342043 0)
(0.0489535 -0.0340839 0)
(0.0512913 -0.0339988 0)
(0.0535985 -0.0339295 0)
(0.0558518 -0.0338625 0)
(0.0580546 -0.033793 0)
(0.0602184 -0.0337176 0)
(0.0623158 -0.0336159 0)
(0.064395 -0.0334769 0)
(0.0664187 -0.0332843 0)
(0.0684249 -0.0330807 0)
(0.0238843 -0.0407023 0)
(0.0263066 -0.0399364 0)
(0.0287237 -0.0392639 0)
(0.031173 -0.0386516 0)
(0.0336315 -0.0381097 0)
(0.0360824 -0.0376419 0)
(0.0385277 -0.0372483 0)
(0.0409675 -0.0369288 0)
(0.0433889 -0.0366741 0)
(0.0457836 -0.0364635 0)
(0.0481496 -0.0362994 0)
(0.050483 -0.0361722 0)
(0.0527895 -0.0360642 0)
(0.0550419 -0.0359624 0)
(0.057249 -0.0358608 0)
(0.0594216 -0.0357545 0)
(0.0615345 -0.0356244 0)
(0.0636345 -0.0354696 0)
(0.0656713 -0.0352919 0)
(0.0676922 -0.0350802 0)
(0.02341 -0.0429885 0)
(0.0258065 -0.0422658 0)
(0.0281979 -0.0416261 0)
(0.0306163 -0.0410298 0)
(0.0330383 -0.0404915 0)
(0.035456 -0.0400158 0)
(0.0378738 -0.0396 0)
(0.0402913 -0.0392491 0)
(0.0426949 -0.0389602 0)
(0.0450749 -0.0387074 0)
(0.0474268 -0.038496 0)
(0.0497473 -0.0383217 0)
(0.052043 -0.0381714 0)
(0.0542878 -0.0380331 0)
(0.0564945 -0.0378985 0)
(0.0586743 -0.0377616 0)
(0.0608005 -0.0376101 0)
(0.062912 -0.0374535 0)
(0.064958 -0.0372869 0)
(0.0669906 -0.0370344 0)
(0.0229924 -0.0452553 0)
(0.0253636 -0.0445728 0)
(0.0277332 -0.0439627 0)
(0.0301211 -0.0433802 0)
(0.0325144 -0.0428417 0)
(0.0349075 -0.0423553 0)
(0.0373041 -0.0419141 0)
(0.0397016 -0.0415317 0)
(0.0420864 -0.0412104 0)
(0.0444486 -0.0409245 0)
(0.0467812 -0.0406762 0)
(0.0490829 -0.0404632 0)
(0.0513619 -0.0402773 0)
(0.0535958 -0.0401077 0)
(0.0558002 -0.0399464 0)
(0.0579852 -0.0397903 0)
(0.0601182 -0.0396334 0)
(0.0622325 -0.0394821 0)
(0.0642892 -0.0392966 0)
(0.066333 -0.0390538 0)
(0.0226239 -0.0475144 0)
(0.0249709 -0.0468728 0)
(0.0273173 -0.0462852 0)
(0.0296817 -0.0457129 0)
(0.0320562 -0.0451745 0)
(0.034432 -0.0446831 0)
(0.0368113 -0.044223 0)
(0.0391897 -0.0438185 0)
(0.0415536 -0.0434665 0)
(0.0438952 -0.0431516 0)
(0.0462061 -0.0428706 0)
(0.0484879 -0.0426197 0)
(0.0507509 -0.0423959 0)
(0.0529751 -0.0421912 0)
(0.0551761 -0.0420017 0)
(0.0573611 -0.0418308 0)
(0.0594922 -0.04167 0)
(0.0616078 -0.0415088 0)
(0.0636721 -0.0412914 0)
(0.065727 -0.0411049 0)
(0.0223011 -0.0497826 0)
(0.0246251 -0.0491746 0)
(0.0269519 -0.0486048 0)
(0.0293013 -0.0480457 0)
(0.0316622 -0.0475145 0)
(0.0340231 -0.0470293 0)
(0.0363864 -0.0465527 0)
(0.0387475 -0.0461265 0)
(0.0410915 -0.0457322 0)
(0.0434125 -0.045374 0)
(0.0457035 -0.0450506 0)
(0.0479681 -0.0447564 0)
(0.0502187 -0.0444914 0)
(0.0524348 -0.0442505 0)
(0.0546298 -0.0440341 0)
(0.0568073 -0.0438464 0)
(0.0589305 -0.0436689 0)
(0.0610492 -0.0434803 0)
(0.0631146 -0.0432734 0)
(0.0651714 -0.0430913 0)
(0.0220244 -0.0520503 0)
(0.0243315 -0.0514579 0)
(0.0266451 -0.0509077 0)
(0.0289816 -0.0503658 0)
(0.0313281 -0.0498388 0)
(0.0336758 -0.0493554 0)
(0.0360258 -0.0488571 0)
(0.0383729 -0.0484028 0)
(0.0406997 -0.0479693 0)
(0.0430004 -0.047571 0)
(0.0452738 -0.0472127 0)
(0.047526 -0.0468886 0)
(0.0497682 -0.0465969 0)
(0.0519765 -0.0463321 0)
(0.0541612 -0.0460962 0)
(0.0563266 -0.0458886 0)
(0.0584432 -0.0456843 0)
(0.0605623 -0.0454751 0)
(0.0626278 -0.0453162 0)
(0.0646795 -0.0451085 0)
(0.0217996 -0.0542755 0)
(0.0240945 -0.053712 0)
(0.0263952 -0.0531831 0)
(0.0287177 -0.052652 0)
(0.0310506 -0.0521191 0)
(0.0333872 -0.0516258 0)
(0.0357249 -0.0511259 0)
(0.0380575 -0.0506545 0)
(0.0403702 -0.050206 0)
(0.0426565 -0.0497846 0)
(0.0449183 -0.0493941 0)
(0.047163 -0.0490364 0)
(0.049398 -0.0487144 0)
(0.051595 -0.0484236 0)
(0.0537656 -0.0481638 0)
(0.0559216 -0.0479297 0)
(0.0580369 -0.0477023 0)
(0.0601471 -0.0475025 0)
(0.0622053 -0.0473389 0)
(0.0642563 -0.0471696 0)
(0.0216228 -0.0564624 0)
(0.0239032 -0.0559559 0)
(0.0261927 -0.0554372 0)
(0.0285041 -0.0549092 0)
(0.0308269 -0.0543859 0)
(0.0331526 -0.0538767 0)
(0.0354783 -0.0533835 0)
(0.0377962 -0.0528862 0)
(0.0400967 -0.0524095 0)
(0.0423775 -0.0519644 0)
(0.0446367 -0.0515469 0)
(0.0468756 -0.0511588 0)
(0.0491002 -0.0508062 0)
(0.0512846 -0.0504865 0)
(0.0534445 -0.0501978 0)
(0.0555951 -0.0499374 0)
(0.0577047 -0.0497015 0)
(0.0598029 -0.0495249 0)
(0.0618456 -0.0493071 0)
(0.0638905 -0.0491678 0)
(0.0214824 -0.0586849 0)
(0.0237512 -0.0581794 0)
(0.0260333 -0.0576665 0)
(0.0283363 -0.0571456 0)
(0.0306512 -0.0566344 0)
(0.0329658 -0.0561033 0)
(0.0352798 -0.0555968 0)
(0.0375897 -0.0550965 0)
(0.0398848 -0.0546153 0)
(0.0421632 -0.0541594 0)
(0.0444192 -0.0537227 0)
(0.0466512 -0.0533094 0)
(0.048866 -0.052931 0)
(0.0510417 -0.0525873 0)
(0.0531981 -0.0522753 0)
(0.0553445 -0.0519946 0)
(0.0574369 -0.05175 0)
(0.0595202 -0.0515539 0)
(0.0615535 -0.0513653 0)
(0.0636016 -0.051205 0)
(0.0213797 -0.0608964 0)
(0.0236445 -0.0603805 0)
(0.0259187 -0.0598842 0)
(0.0282137 -0.0593764 0)
(0.0305186 -0.058857 0)
(0.0328227 -0.0583315 0)
(0.0351291 -0.0578081 0)
(0.037435 -0.0572963 0)
(0.0397288 -0.0568036 0)
(0.0420048 -0.0563258 0)
(0.0442533 -0.0558616 0)
(0.0464767 -0.0554269 0)
(0.0486889 -0.0550335 0)
(0.0508665 -0.0546667 0)
(0.0530195 -0.0543234 0)
(0.0551468 -0.0540269 0)
(0.0572219 -0.0537838 0)
(0.0593081 -0.0535373 0)
(0.0613334 -0.0533905 0)
(0.0633535 -0.0532368 0)
(0.0213089 -0.0630463 0)
(0.0235723 -0.0625911 0)
(0.02584 -0.0620841 0)
(0.0281272 -0.0615729 0)
(0.0304217 -0.0610579 0)
(0.0327178 -0.0605449 0)
(0.035023 -0.060029 0)
(0.0373287 -0.0595141 0)
(0.0396171 -0.0590044 0)
(0.0418839 -0.0585072 0)
(0.0441289 -0.0580317 0)
(0.0463583 -0.057585 0)
(0.0485733 -0.0571657 0)
(0.0507384 -0.0567692 0)
(0.0528814 -0.0564063 0)
(0.0550126 -0.0560958 0)
(0.0570849 -0.0558344 0)
(0.0591601 -0.0556094 0)
(0.06119 -0.0554294 0)
(0.0631891 -0.0552777 0)
(0.0212699 -0.0652776 0)
(0.0235322 -0.0648004 0)
(0.0257904 -0.0642915 0)
(0.0280688 -0.0637622 0)
(0.0303604 -0.0632432 0)
(0.0326551 -0.0627257 0)
(0.0349534 -0.0621996 0)
(0.0372487 -0.0616702 0)
(0.0395322 -0.0611509 0)
(0.0418047 -0.0606475 0)
(0.0440537 -0.060161 0)
(0.0462743 -0.0596957 0)
(0.0484875 -0.0592517 0)
(0.0506624 -0.058836 0)
(0.0527963 -0.0584654 0)
(0.0549251 -0.0581313 0)
(0.0570096 -0.0578162 0)
(0.0590779 -0.0576585 0)
(0.0611258 -0.0574815 0)
(0.0631099 -0.0574087 0)
(0.00140184 -0.0399143 0)
(0.00423182 -0.0393881 0)
(0.00711439 -0.0383983 0)
(0.0100574 -0.0369677 0)
(0.0130783 -0.0351631 0)
(0.0161916 -0.0330321 0)
(0.0193888 -0.0306749 0)
(0.0226443 -0.0281398 0)
(0.0260272 -0.0254702 0)
(0.0292205 -0.0226655 0)
(0.00132241 -0.0414778 0)
(0.00398536 -0.0409997 0)
(0.00669564 -0.0400966 0)
(0.00945734 -0.0387677 0)
(0.0122787 -0.0370901 0)
(0.0151817 -0.0350865 0)
(0.0181569 -0.032853 0)
(0.0211889 -0.0304285 0)
(0.024329 -0.0278469 0)
(0.0272861 -0.0252861 0)
(0.00123705 -0.0430781 0)
(0.00372398 -0.0426282 0)
(0.00624729 -0.0417859 0)
(0.00882981 -0.0405394 0)
(0.0114766 -0.0389542 0)
(0.0142104 -0.0370553 0)
(0.0170286 -0.0349262 0)
(0.0199447 -0.0326135 0)
(0.0229763 -0.030165 0)
(0.0259178 -0.0278122 0)
(0.00115719 -0.04466 0)
(0.00349839 -0.0442345 0)
(0.00587068 -0.0434293 0)
(0.00831265 -0.0422405 0)
(0.0108382 -0.0407127 0)
(0.0134563 -0.0389087 0)
(0.0161794 -0.0368791 0)
(0.0190182 -0.0346851 0)
(0.0219457 -0.032399 0)
(0.0248361 -0.0302509 0)
(0.00109501 -0.0462298 0)
(0.00330249 -0.0458212 0)
(0.00555604 -0.045048 0)
(0.0078829 -0.0439162 0)
(0.010309 -0.0424493 0)
(0.012837 -0.0407378 0)
(0.0154762 -0.0388082 0)
(0.018251 -0.0367349 0)
(0.0210936 -0.0346112 0)
(0.0239281 -0.0326401 0)
(0.001052 -0.047782 0)
(0.00314668 -0.0473913 0)
(0.00530275 -0.0466532 0)
(0.00753274 -0.0455697 0)
(0.00987053 -0.0441643 0)
(0.012332 -0.0425309 0)
(0.0149012 -0.0407072 0)
(0.0176101 -0.0387656 0)
(0.020379 -0.036799 0)
(0.0231457 -0.0349819 0)
(0.00100869 -0.0493104 0)
(0.00302334 -0.0489454 0)
(0.00509837 -0.0482339 0)
(0.00724815 -0.0471992 0)
(0.0095125 -0.0458677 0)
(0.011908 -0.0443125 0)
(0.0144174 -0.0426015 0)
(0.0170631 -0.0407989 0)
(0.0197677 -0.0389707 0)
(0.0224689 -0.0372794 0)
(0.000970954 -0.0508222 0)
(0.00292627 -0.05049 0)
(0.00493047 -0.0498021 0)
(0.00701161 -0.0488241 0)
(0.00921789 -0.0475759 0)
(0.0115557 -0.0461059 0)
(0.0140063 -0.0445021 0)
(0.0165907 -0.0428322 0)
(0.0192395 -0.0411236 0)
(0.0218867 -0.0395392 0)
(0.000952219 -0.0523306 0)
(0.00285172 -0.0520256 0)
(0.00479536 -0.0513707 0)
(0.00682367 -0.0504507 0)
(0.00897394 -0.0492797 0)
(0.0112636 -0.0479014 0)
(0.0136632 -0.0463998 0)
(0.0161883 -0.044848 0)
(0.018784 -0.0432489 0)
(0.0213847 -0.0417677 0)
(0.000940588 -0.0538248 0)
(0.00278838 -0.0535369 0)
(0.00468602 -0.0529269 0)
(0.00668055 -0.0520618 0)
(0.0087806 -0.0509618 0)
(0.0110234 -0.0496818 0)
(0.0133782 -0.0482845 0)
(0.0158489 -0.0468336 0)
(0.018392 -0.0453465 0)
(0.0209464 -0.0439749 0)
(0.000921342 -0.0552899 0)
(0.00273504 -0.0550181 0)
(0.0046044 -0.0544594 0)
(0.00657238 -0.053651 0)
(0.00863185 -0.0526264 0)
(0.0108266 -0.0514468 0)
(0.0131381 -0.0501573 0)
(0.0155596 -0.0488022 0)
(0.0180498 -0.0474418 0)
(0.0205566 -0.0461809 0)
(0.000899929 -0.0567349 0)
(0.00270015 -0.0564837 0)
(0.00455347 -0.055976 0)
(0.00649077 -0.0552303 0)
(0.00851642 -0.0542935 0)
(0.0106655 -0.0532111 0)
(0.0129348 -0.0520281 0)
(0.0153087 -0.0507836 0)
(0.0177466 -0.0495568 0)
(0.0202119 -0.0483899 0)
(0.000888918 -0.0581812 0)
(0.00268522 -0.0579531 0)
(0.00452513 -0.057495 0)
(0.00642886 -0.056814 0)
(0.00842529 -0.0559704 0)
(0.0105356 -0.0549822 0)
(0.0127641 -0.0538979 0)
(0.0150901 -0.0527788 0)
(0.0174818 -0.0516645 0)
(0.0199163 -0.050581 0)
(0.000888776 -0.0596423 0)
(0.00267784 -0.0594354 0)
(0.00450256 -0.0590262 0)
(0.00637826 -0.0584053 0)
(0.00835019 -0.0576417 0)
(0.0104293 -0.0567469 0)
(0.0126186 -0.0557647 0)
(0.0148999 -0.0547675 0)
(0.0172558 -0.0537396 0)
(0.0196635 -0.0527669 0)
(0.000888978 -0.061121 0)
(0.00266307 -0.0609269 0)
(0.00447332 -0.0605605 0)
(0.00633133 -0.0599983 0)
(0.00828176 -0.0593077 0)
(0.0103321 -0.0585086 0)
(0.0124844 -0.0576462 0)
(0.0147334 -0.0567562 0)
(0.0170636 -0.0558199 0)
(0.0194492 -0.0549702 0)
(0.000882363 -0.0626125 0)
(0.00263815 -0.0624236 0)
(0.00443612 -0.0620953 0)
(0.00628056 -0.061598 0)
(0.00820936 -0.0609921 0)
(0.010234 -0.0602898 0)
(0.0123604 -0.0595344 0)
(0.0145933 -0.0587248 0)
(0.016906 -0.0579039 0)
(0.0192795 -0.0571212 0)
(0.00087099 -0.0641103 0)
(0.00260887 -0.0639339 0)
(0.00439331 -0.0636518 0)
(0.00622484 -0.0632165 0)
(0.0081344 -0.0626766 0)
(0.0101395 -0.0620626 0)
(0.0122548 -0.061397 0)
(0.0144784 -0.0606738 0)
(0.0167794 -0.0599759 0)
(0.0191472 -0.0592475 0)
(0.000859357 -0.0656209 0)
(0.00257913 -0.0654626 0)
(0.00434601 -0.0652127 0)
(0.00616425 -0.0648425 0)
(0.00806002 -0.064382 0)
(0.0100549 -0.0638562 0)
(0.0121673 -0.0632783 0)
(0.0143841 -0.0626666 0)
(0.0166773 -0.0620469 0)
(0.0190457 -0.061424 0)
(0.000849906 -0.0671538 0)
(0.00254971 -0.0670086 0)
(0.00429408 -0.0667834 0)
(0.00609638 -0.066465 0)
(0.00798205 -0.0660754 0)
(0.00997604 -0.0656205 0)
(0.012088 -0.0651225 0)
(0.0143029 -0.0646145 0)
(0.016594 -0.0640676 0)
(0.0189719 -0.0635195 0)
(0.000841068 -0.0686941 0)
(0.00251748 -0.0685664 0)
(0.00423489 -0.0683596 0)
(0.00602511 -0.0680972 0)
(0.00791028 -0.06778 0)
(0.00990546 -0.0673981 0)
(0.0120132 -0.0669911 0)
(0.0142302 -0.066567 0)
(0.0165339 -0.0661494 0)
(0.0189324 -0.0656913 0)
)


// ************************************************************************* //
