/*--------------------------------*- C++ -*----------------------------------*\
| =========                 |                                                 |
| \\      /  F ield         | foam-extend: Open Source CFD                    |
|  \\    /   O peration     | Version:     4.1                                |
|   \\  /    A nd           | Web:         http://www.foam-extend.org         |
|    \\/     M anipulation  |                                                 |
\*---------------------------------------------------------------------------*/
FoamFile
{
    version     2.0;
    format      ascii;
    class       vectorField;
    location    "2";
    object      residualD_iteration15;
}
// * * * * * * * * * * * * * * * * * * * * * * * * * * * * * * * * * * * * * //


1000
(
(0.00443885 -0.00491274 0)
(0.0038235 -0.004364 0)
(0.00335403 -0.00392388 0)
(0.00301299 -0.00360917 0)
(0.00275715 -0.00335679 0)
(0.00255422 -0.00315326 0)
(0.00239502 -0.00298231 0)
(0.00227078 -0.00282413 0)
(0.00215866 -0.00269212 0)
(0.00214208 -0.00256119 0)
(0.00395739 -0.00534983 0)
(0.0033066 -0.00488499 0)
(0.00282332 -0.00449561 0)
(0.00247546 -0.00420637 0)
(0.00222534 -0.00396707 0)
(0.0020363 -0.00377282 0)
(0.00189418 -0.00360792 0)
(0.0017895 -0.00345459 0)
(0.00170753 -0.00332983 0)
(0.00168669 -0.00319245 0)
(0.00347867 -0.00577739 0)
(0.00281761 -0.00540695 0)
(0.00233588 -0.00507118 0)
(0.00199258 -0.00481859 0)
(0.00174854 -0.00460485 0)
(0.00156998 -0.00442874 0)
(0.00143846 -0.00427319 0)
(0.00134128 -0.00413357 0)
(0.00126526 -0.00402082 0)
(0.00123791 -0.00390054 0)
(0.00300038 -0.00617462 0)
(0.00235323 -0.00589885 0)
(0.00188879 -0.00562705 0)
(0.00156295 -0.00542114 0)
(0.00133189 -0.00523525 0)
(0.00116417 -0.00507931 0)
(0.0010434 -0.00493715 0)
(0.000951472 -0.00481329 0)
(0.000879934 -0.00471088 0)
(0.000843383 -0.00460392 0)
(0.00252326 -0.00653249 0)
(0.00191757 -0.00635697 0)
(0.0014882 -0.00615159 0)
(0.00118825 -0.0059903 0)
(0.000976583 -0.0058336 0)
(0.000825489 -0.00569773 0)
(0.000717386 -0.00557242 0)
(0.000634619 -0.00546297 0)
(0.000567386 -0.00536854 0)
(0.00052748 -0.00526973 0)
(0.00205422 -0.00684587 0)
(0.00151456 -0.00677091 0)
(0.00113453 -0.00662611 0)
(0.000872168 -0.00650141 0)
(0.000688947 -0.00637219 0)
(0.000560401 -0.00625435 0)
(0.000464585 -0.00614513 0)
(0.000390085 -0.0060478 0)
(0.000329598 -0.00596186 0)
(0.000291708 -0.00587424 0)
(0.00158907 -0.00710952 0)
(0.00114171 -0.00711611 0)
(0.000828463 -0.00702413 0)
(0.000614264 -0.00693506 0)
(0.000464775 -0.00683126 0)
(0.000358681 -0.00673034 0)
(0.000278613 -0.00663518 0)
(0.00021724 -0.00654586 0)
(0.000168129 -0.00646414 0)
(0.000135875 -0.00638485 0)
(0.00112896 -0.00731212 0)
(0.0007974 -0.00738266 0)
(0.000563483 -0.00733662 0)
(0.000402071 -0.00728412 0)
(0.000290073 -0.00719727 0)
(0.000210993 -0.007108 0)
(0.000151988 -0.00702048 0)
(0.000106982 -0.0069389 0)
(7.10082e-05 -0.00686361 0)
(4.64897e-05 -0.0067928 0)
(0.000676498 -0.00745114 0)
(0.000470006 -0.00756963 0)
(0.000323547 -0.00755611 0)
(0.000224926 -0.00752105 0)
(0.000157391 -0.00744461 0)
(0.000109121 -0.00736851 0)
(7.20074e-05 -0.00728965 0)
(4.34618e-05 -0.00721087 0)
(2.1865e-05 -0.00713744 0)
(7.06851e-06 -0.00707345 0)
(0.000226276 -0.00752346 0)
(0.000155743 -0.00766882 0)
(0.000107041 -0.00766756 0)
(7.33139e-05 -0.0076422 0)
(4.8919e-05 -0.00757355 0)
(3.28186e-05 -0.0074988 0)
(2.16633e-05 -0.00742157 0)
(1.21132e-05 -0.0073475 0)
(4.10588e-06 -0.00727759 0)
(-9.48081e-07 -0.007216 0)
(0.00762245 -0.00022659 0)
(0.00775748 -0.000155329 0)
(0.00776006 -0.000106075 0)
(0.00772608 -7.57017e-05 0)
(0.0076576 -5.30186e-05 0)
(0.00758402 -3.02838e-05 0)
(0.00750517 -1.81495e-05 0)
(0.00743229 -1.79126e-05 0)
(0.00736109 -3.9296e-06 0)
(0.00729326 9.65195e-06 0)
(0.00754646 -0.000676949 0)
(0.00765705 -0.000469324 0)
(0.0076438 -0.000323633 0)
(0.00760156 -0.000219351 0)
(0.00752738 -0.000153178 0)
(0.00745161 -0.000113432 0)
(0.00736791 -7.03964e-05 0)
(0.00728968 -3.82927e-05 0)
(0.00721762 -7.99252e-06 0)
(0.0071467 1.26214e-05 0)
(0.00740246 -0.00113621 0)
(0.00746528 -0.000797489 0)
(0.00742033 -0.000565042 0)
(0.00735898 -0.000409473 0)
(0.00727146 -0.000292638 0)
(0.00718453 -0.000211666 0)
(0.00709587 -0.000142094 0)
(0.00701316 -9.1768e-05 0)
(0.00693889 -5.23013e-05 0)
(0.0068617 -1.90372e-05 0)
(0.00719038 -0.00159453 0)
(0.00718544 -0.00114775 0)
(0.00709745 -0.000832749 0)
(0.00700538 -0.00062258 0)
(0.00690079 -0.000467831 0)
(0.00680045 -0.000359645 0)
(0.00670139 -0.000276217 0)
(0.00660904 -0.000205502 0)
(0.00652948 -0.000145785 0)
(0.00644081 -9.42613e-05 0)
(0.00691839 -0.00206225 0)
(0.00682681 -0.00152058 0)
(0.00668637 -0.00114052 0)
(0.00655894 -0.000885007 0)
(0.00643105 -0.000701205 0)
(0.00631353 -0.000569207 0)
(0.00620311 -0.000466427 0)
(0.00610053 -0.000376597 0)
(0.006014 -0.000301787 0)
(0.00591024 -0.000238498 0)
(0.00659223 -0.00254024 0)
(0.00640479 -0.00192788 0)
(0.00620286 -0.001497 0)
(0.00603396 -0.00120713 0)
(0.0058803 -0.000995483 0)
(0.00574347 -0.000840117 0)
(0.00561736 -0.000719224 0)
(0.00550209 -0.000620767 0)
(0.00540643 -0.000537349 0)
(0.00528497 -0.000463323 0)
(0.00621786 -0.00301691 0)
(0.00593021 -0.00236864 0)
(0.00566496 -0.0019016 0)
(0.00545147 -0.00158125 0)
(0.00526924 -0.00134999 0)
(0.0051115 -0.00117832 0)
(0.0049692 -0.00104615 0)
(0.00484084 -0.000943546 0)
(0.00473575 -0.000853341 0)
(0.00459435 -0.000771216 0)
(0.00580874 -0.00349531 0)
(0.00542114 -0.0028337 0)
(0.0050934 -0.0023505 0)
(0.00483705 -0.00201585 0)
(0.0046261 -0.00177372 0)
(0.00444743 -0.00159091 0)
(0.00429023 -0.00145144 0)
(0.00414592 -0.00134474 0)
(0.00402695 -0.00124744 0)
(0.00386534 -0.00116186 0)
(0.00536981 -0.0039723 0)
(0.00489017 -0.00332566 0)
(0.00450346 -0.00283925 0)
(0.00420894 -0.00250289 0)
(0.00397169 -0.00225218 0)
(0.00377602 -0.00206357 0)
(0.00360897 -0.0019208 0)
(0.00345432 -0.00181291 0)
(0.00332541 -0.00171694 0)
(0.0031546 -0.00163867 0)
(0.00490935 -0.00444553 0)
(0.00435241 -0.00383657 0)
(0.0039168 -0.00336658 0)
(0.0035938 -0.00303444 0)
(0.00333994 -0.00277878 0)
(0.00313191 -0.00258529 0)
(0.00295378 -0.00243244 0)
(0.0027857 -0.00231323 0)
(0.00263345 -0.00220396 0)
(0.00247708 -0.00212371 0)
(0.0072395 1.30396e-05 0)
(0.0071868 1.87053e-05 0)
(0.00713877 2.51199e-05 0)
(0.00709632 3.06445e-05 0)
(0.00705849 3.4355e-05 0)
(0.007023 3.56753e-05 0)
(0.00699114 3.6505e-05 0)
(0.00696374 4.16031e-05 0)
(0.00693673 5.05378e-05 0)
(0.00690816 5.83464e-05 0)
(0.00687972 6.38691e-05 0)
(0.00685117 6.88733e-05 0)
(0.00682009 7.57501e-05 0)
(0.00678429 8.68144e-05 0)
(0.00674149 0.000101942 0)
(0.00668987 0.000118406 0)
(0.00662796 0.000134231 0)
(0.00655265 0.000150503 0)
(0.00646375 0.000169432 0)
(0.00634958 0.000192416 0)
(0.00710037 2.56153e-05 0)
(0.00706108 5.06238e-05 0)
(0.00702452 6.96907e-05 0)
(0.00699117 8.13891e-05 0)
(0.0069611 8.90631e-05 0)
(0.00693374 9.81258e-05 0)
(0.00690797 0.000111529 0)
(0.00688309 0.000129754 0)
(0.0068584 0.000147764 0)
(0.0068339 0.000161642 0)
(0.0068095 0.000177195 0)
(0.00678258 0.000199226 0)
(0.00675111 0.000228069 0)
(0.00671453 0.000262814 0)
(0.00667199 0.000302137 0)
(0.0066218 0.000344613 0)
(0.00656188 0.000390375 0)
(0.00648837 0.000442634 0)
(0.00640154 0.000505559 0)
(0.00629002 0.000579056 0)
(0.00682909 1.28674e-05 0)
(0.0068126 5.98582e-05 0)
(0.00679659 9.10658e-05 0)
(0.00678441 0.000112364 0)
(0.00677077 0.000130453 0)
(0.00675284 0.000150183 0)
(0.00673358 0.000173523 0)
(0.00671566 0.000200573 0)
(0.00669844 0.000227112 0)
(0.0066801 0.000252621 0)
(0.00665966 0.00028534 0)
(0.00663469 0.000328009 0)
(0.00660525 0.000377942 0)
(0.00657193 0.000433347 0)
(0.00653338 0.000494415 0)
(0.0064864 0.000562017 0)
(0.00642922 0.000637837 0)
(0.00635783 0.000726101 0)
(0.006273 0.000834486 0)
(0.00616358 0.00095794 0)
(0.00642995 -4.26909e-05 0)
(0.00645258 2.41474e-05 0)
(0.00646896 6.80676e-05 0)
(0.00648227 0.000103825 0)
(0.00648813 0.000140497 0)
(0.00648728 0.000178804 0)
(0.00648309 0.000217745 0)
(0.00647732 0.000258798 0)
(0.00646851 0.000296877 0)
(0.00645582 0.000336366 0)
(0.00643997 0.000386508 0)
(0.00641965 0.000447259 0)
(0.00639499 0.000514394 0)
(0.006366 0.000588051 0)
(0.00633131 0.000670955 0)
(0.00628781 0.000764519 0)
(0.00623439 0.000871335 0)
(0.00616655 0.00099503 0)
(0.00608711 0.00114643 0)
(0.0059833 0.00131941 0)
(0.00592339 -0.000165046 0)
(0.00598984 -6.96292e-05 0)
(0.00604339 3.49186e-07 0)
(0.00608978 6.14732e-05 0)
(0.00612209 0.000121136 0)
(0.00614354 0.000178524 0)
(0.00615687 0.000231036 0)
(0.00616528 0.000287201 0)
(0.00616861 0.000340232 0)
(0.00616601 0.000395825 0)
(0.00615694 0.000463532 0)
(0.00614142 0.000542599 0)
(0.00612102 0.000628325 0)
(0.00609611 0.000721804 0)
(0.00606516 0.000826912 0)
(0.00602695 0.000945675 0)
(0.0059779 0.00108313 0)
(0.00591664 0.00124383 0)
(0.00584142 0.00143739 0)
(0.00574415 0.00166134 0)
(0.00532573 -0.000361512 0)
(0.00544443 -0.000230448 0)
(0.00553973 -0.000127698 0)
(0.00562091 -3.48987e-05 0)
(0.0056806 5.22686e-05 0)
(0.00572667 0.000134725 0)
(0.00576346 0.000208718 0)
(0.00579043 0.000281387 0)
(0.00580765 0.000352976 0)
(0.00581567 0.000430429 0)
(0.00581419 0.000520122 0)
(0.00580472 0.000619134 0)
(0.00579015 0.000723189 0)
(0.00577137 0.00083517 0)
(0.00574565 0.000960558 0)
(0.00571277 0.00110366 0)
(0.00566757 0.00127089 0)
(0.00561125 0.00146909 0)
(0.00553972 0.00170541 0)
(0.00544866 0.00197904 0)
(0.00465695 -0.000638314 0)
(0.0048259 -0.000467139 0)
(0.00496376 -0.000324134 0)
(0.00508096 -0.000192606 0)
(0.00517418 -7.12253e-05 0)
(0.00524758 3.65288e-05 0)
(0.00530931 0.000140127 0)
(0.00535666 0.000238362 0)
(0.00538938 0.000335153 0)
(0.00540819 0.000437648 0)
(0.00541557 0.000549931 0)
(0.00541492 0.000668205 0)
(0.00540883 0.000790015 0)
(0.00539714 0.000920476 0)
(0.0053772 0.00106673 0)
(0.00534819 0.00123609 0)
(0.00530545 0.00143458 0)
(0.00525147 0.00166955 0)
(0.00518413 0.00194677 0)
(0.00510113 0.00226587 0)
(0.00394271 -0.000991718 0)
(0.00415842 -0.000773565 0)
(0.00434059 -0.000579756 0)
(0.00449278 -0.000402921 0)
(0.0046191 -0.000240324 0)
(0.00472064 -9.73232e-05 0)
(0.00480425 3.66363e-05 0)
(0.00486922 0.000163355 0)
(0.00491762 0.000288229 0)
(0.00494983 0.000416125 0)
(0.0049697 0.000549492 0)
(0.00498109 0.00068604 0)
(0.00498549 0.000826449 0)
(0.00498066 0.000977528 0)
(0.00496479 0.00114727 0)
(0.00493779 0.00134463 0)
(0.00489681 0.00157386 0)
(0.00484546 0.00184397 0)
(0.00478266 0.00215675 0)
(0.00470914 0.00251344 0)
(0.0032225 -0.00142634 0)
(0.00346702 -0.00116131 0)
(0.00367879 -0.000917373 0)
(0.00385744 -0.000688782 0)
(0.00400858 -0.000482846 0)
(0.00413597 -0.000293673 0)
(0.00424201 -0.000121565 0)
(0.00432746 3.99374e-05 0)
(0.00439397 0.00019661 0)
(0.00444327 0.000352332 0)
(0.00447917 0.00050935 0)
(0.00450445 0.000667777 0)
(0.00451943 0.000830837 0)
(0.00452139 0.00100587 0)
(0.0045101 0.00120158 0)
(0.00448601 0.00142787 0)
(0.0044481 0.0016856 0)
(0.00440195 0.00198718 0)
(0.00434535 0.00233001 0)
(0.00428174 0.0027175 0)
(0.00250368 -0.00191587 0)
(0.00273622 -0.00161139 0)
(0.00294937 -0.0013108 0)
(0.0031458 -0.00102551 0)
(0.0033186 -0.000769191 0)
(0.00346967 -0.000534332 0)
(0.00359914 -0.000322543 0)
(0.00370787 -0.000124829 0)
(0.00379615 6.46719e-05 0)
(0.00386667 0.000249379 0)
(0.00392243 0.000432136 0)
(0.00396493 0.000615213 0)
(0.00399378 0.000803428 0)
(0.00400678 0.00100399 0)
(0.00400581 0.00122629 0)
(0.00399107 0.0014799 0)
(0.00396314 0.00176382 0)
(0.00392801 0.00209247 0)
(0.00388288 0.00246151 0)
(0.00383145 0.00287367 0)
(0.00219569 -0.00221306 0)
(0.00232012 -0.00192943 0)
(0.00246941 -0.00161865 0)
(0.00262664 -0.00131206 0)
(0.0027829 -0.00102485 0)
(0.0029301 -0.000759953 0)
(0.00306311 -0.00051662 0)
(0.00317879 -0.00028782 0)
(0.00327634 -6.88693e-05 0)
(0.00335741 0.000142631 0)
(0.00342297 0.000350224 0)
(0.00347357 0.000558213 0)
(0.00350869 0.000771745 0)
(0.00352682 0.000996562 0)
(0.00353197 0.00124299 0)
(0.00352393 0.00151891 0)
(0.00350517 0.00182374 0)
(0.00347951 0.00217032 0)
(0.00344568 0.00255764 0)
(0.00340595 0.00298345 0)
(0.0019164 -0.00232075 0)
(0.00203887 -0.00204394 0)
(0.00217953 -0.00175112 0)
(0.00232024 -0.00145311 0)
(0.00245618 -0.00116286 0)
(0.00258618 -0.000887836 0)
(0.00270436 -0.000628751 0)
(0.00280828 -0.000381888 0)
(0.00289748 -0.00014407 0)
(0.00297233 8.67041e-05 0)
(0.00303213 0.000314096 0)
(0.00307688 0.000543041 0)
(0.00310615 0.000777744 0)
(0.00311941 0.00102216 0)
(0.00312152 0.00128733 0)
(0.00311142 0.00157763 0)
(0.00309355 0.00189547 0)
(0.00306921 0.00225009 0)
(0.00303957 0.00264578 0)
(0.00300648 0.00307486 0)
(0.00157546 -0.00249324 0)
(0.00171044 -0.00218603 0)
(0.00184611 -0.00188116 0)
(0.00197669 -0.00157502 0)
(0.00210017 -0.00127796 0)
(0.00221806 -0.000993094 0)
(0.00232459 -0.00072226 0)
(0.00241918 -0.000461727 0)
(0.00250131 -0.00020842 0)
(0.0025703 3.90985e-05 0)
(0.00262471 0.000284341 0)
(0.00266474 0.000532729 0)
(0.00268999 0.000786799 0)
(0.00270073 0.00104853 0)
(0.00270213 0.0013297 0)
(0.00269248 0.00163117 0)
(0.00267688 0.00195883 0)
(0.00265529 0.0023186 0)
(0.00263086 0.00271889 0)
(0.00260541 0.00314803 0)
(0.00123604 -0.00266094 0)
(0.00137729 -0.00233426 0)
(0.00151111 -0.00201797 0)
(0.00163472 -0.00170183 0)
(0.00174932 -0.00139509 0)
(0.00185658 -0.00109969 0)
(0.00195268 -0.000817064 0)
(0.0020385 -0.000543036 0)
(0.002113 -0.000274543 0)
(0.00217495 -1.06175e-05 0)
(0.00222293 0.000252274 0)
(0.00225775 0.00051967 0)
(0.0022789 0.000791878 0)
(0.00228712 0.00106921 0)
(0.00228739 0.00136436 0)
(0.00227776 0.0016748 0)
(0.00226394 0.00201131 0)
(0.00224459 0.00237513 0)
(0.00222456 0.00277695 0)
(0.00220547 0.00320456 0)
(0.000922868 -0.00281984 0)
(0.00105849 -0.00247441 0)
(0.00118655 -0.0021433 0)
(0.00130229 -0.00181778 0)
(0.0014085 -0.00150096 0)
(0.00150575 -0.00119627 0)
(0.0015927 -0.000903416 0)
(0.00166992 -0.000617174 0)
(0.00173605 -0.000334273 0)
(0.00178991 -5.46209e-05 0)
(0.00183058 0.000225109 0)
(0.00185948 0.000510111 0)
(0.001876 0.000798229 0)
(0.00188137 0.00108905 0)
(0.00187994 0.00139628 0)
(0.0018693 0.00171339 0)
(0.00185647 0.00205645 0)
(0.00183913 0.00242255 0)
(0.00182286 0.00282292 0)
(0.00180871 0.00324832 0)
(0.000636583 -0.00296885 0)
(0.000760739 -0.00261089 0)
(0.00087805 -0.00226665 0)
(0.000984619 -0.00192941 0)
(0.00108043 -0.00160163 0)
(0.00116712 -0.0012873 0)
(0.00124445 -0.000984117 0)
(0.00131193 -0.000685296 0)
(0.00136849 -0.000387899 0)
(0.00141331 -9.30182e-05 0)
(0.00144604 0.000202518 0)
(0.00146862 0.000503463 0)
(0.00148009 0.000805077 0)
(0.00148218 0.00110714 0)
(0.00147876 0.00142418 0)
(0.00146703 0.00174736 0)
(0.00145467 0.00209462 0)
(0.00143906 0.00246127 0)
(0.00142563 0.00285912 0)
(0.00141514 0.00328158 0)
(0.00037441 -0.00309841 0)
(0.000482606 -0.00273122 0)
(0.000585678 -0.00237787 0)
(0.000680128 -0.00202982 0)
(0.000763863 -0.00169235 0)
(0.000839544 -0.00136895 0)
(0.000905997 -0.00105586 0)
(0.000962525 -0.000744698 0)
(0.0010087 -0.000433575 0)
(0.00104405 -0.000124833 0)
(0.00106868 0.000184592 0)
(0.00108492 0.000499148 0)
(0.00109135 0.000811854 0)
(0.00109011 0.00112364 0)
(0.00108445 0.00144782 0)
(0.00107182 0.001776 0)
(0.00105961 0.00212617 0)
(0.00104493 0.00249231 0)
(0.00103289 0.00288784 0)
(0.00102524 0.00330412 0)
(0.00013213 -0.00320883 0)
(0.000221306 -0.00283558 0)
(0.00030797 -0.00247477 0)
(0.000387363 -0.0021176 0)
(0.000457812 -0.00177094 0)
(0.000521153 -0.00143879 0)
(0.000575244 -0.001116 0)
(0.00062007 -0.000793141 0)
(0.000655701 -0.000469711 0)
(0.000681867 -0.000149086 0)
(0.000698845 0.000171769 0)
(0.000709071 0.000496988 0)
(0.000710797 0.000817809 0)
(0.000706557 0.00113763 0)
(0.000698841 0.00146748 0)
(0.000685448 0.00179938 0)
(0.000672943 0.0021517 0)
(0.000658405 0.00251716 0)
(0.000646886 0.00290984 0)
(0.000642389 0.00331588 0)
(-9.25855e-05 -0.00329822 0)
(-2.40555e-05 -0.00292192 0)
(4.36391e-05 -0.00255497 0)
(0.000106162 -0.0021906 0)
(0.000162056 -0.00183552 0)
(0.000211333 -0.00149544 0)
(0.000252128 -0.00116379 0)
(0.000285183 -0.000830556 0)
(0.000310533 -0.000496825 0)
(0.000328057 -0.000166839 0)
(0.000338031 0.000162684 0)
(0.000342784 0.000495818 0)
(0.000340301 0.000822415 0)
(0.000333391 0.0011482 0)
(0.00032379 0.0014827 0)
(0.000309353 0.00181777 0)
(0.000295843 0.00217199 0)
(0.000281073 0.002537 0)
(0.000270288 0.00292405 0)
(0.000269697 0.00331901 0)
(-0.000303731 -0.00336854 0)
(-0.000256073 -0.00299014 0)
(-0.00020855 -0.00261888 0)
(-0.000163645 -0.00224848 0)
(-0.000123758 -0.00188625 0)
(-8.96113e-05 -0.00153937 0)
(-6.23046e-05 -0.00120025 0)
(-4.07287e-05 -0.000858282 0)
(-2.54538e-05 -0.00051625 0)
(-1.63425e-05 -0.000179357 0)
(-1.31501e-05 0.000156223 0)
(-1.36797e-05 0.00049486 0)
(-2.02005e-05 0.000825835 0)
(-2.99565e-05 0.00115626 0)
(-4.18529e-05 0.00149478 0)
(-5.8185e-05 0.00183293 0)
(-7.33406e-05 0.0021886 0)
(-8.83958e-05 0.00255227 0)
(-9.77287e-05 0.00293058 0)
(-9.51829e-05 0.00331585 0)
(-0.000505843 -0.00342314 0)
(-0.000479217 -0.00304284 0)
(-0.000451344 -0.00266855 0)
(-0.000424657 -0.00229288 0)
(-0.000401772 -0.00192482 0)
(-0.00038288 -0.00157216 0)
(-0.00036901 -0.00122677 0)
(-0.000358803 -0.000877507 0)
(-0.000353585 -0.000528804 0)
(-0.000352913 -0.000187047 0)
(-0.000356504 0.000152664 0)
(-0.000362293 0.000495032 0)
(-0.000372849 0.000829354 0)
(-0.000385796 0.0011635 0)
(-0.000400443 0.00150556 0)
(-0.000419232 0.00184639 0)
(-0.000435863 0.00220234 0)
(-0.000451003 0.00256188 0)
(-0.000458537 0.00293136 0)
(-0.000454981 0.00330533 0)
(-0.000704411 -0.00346333 0)
(-0.000698348 -0.00308193 0)
(-0.000689659 -0.0027046 0)
(-0.000681824 -0.00232434 0)
(-0.000676016 -0.00195131 0)
(-0.000672 -0.00159354 0)
(-0.000671338 -0.00124284 0)
(-0.000672384 -0.000887886 0)
(-0.000676609 -0.000534039 0)
(-0.000683852 -0.000189435 0)
(-0.000693677 0.000152677 0)
(-0.0007043 0.000497277 0)
(-0.000718606 0.000833985 0)
(-0.000734713 0.00117111 0)
(-0.000751992 0.00151638 0)
(-0.000772741 0.00185897 0)
(-0.000789893 0.00221373 0)
(-0.000804342 0.00256692 0)
(-0.000810635 0.00292944 0)
(-0.000806014 0.00328919 0)
(-0.000906306 -0.00348918 0)
(-0.000919624 -0.00310712 0)
(-0.000930388 -0.00272624 0)
(-0.000940899 -0.00234218 0)
(-0.000950902 -0.00196508 0)
(-0.000960691 -0.0016031 0)
(-0.000971966 -0.00124836 0)
(-0.000983672 -0.000890145 0)
(-0.000996115 -0.000532911 0)
(-0.00101031 -0.00018677 0)
(-0.00102563 0.00015696 0)
(-0.00104065 0.000503345 0)
(-0.00105854 0.000841996 0)
(-0.00107777 0.00118148 0)
(-0.00109748 0.00152897 0)
(-0.00111941 0.00187183 0)
(-0.00113661 0.0022234 0)
(-0.00114999 0.00257048 0)
(-0.00115638 0.0029242 0)
(-0.00114842 0.00327047 0)
(-0.00111713 -0.00350082 0)
(-0.00114951 -0.00311794 0)
(-0.00117905 -0.0027342 0)
(-0.00120565 -0.00234789 0)
(-0.00122912 -0.00196841 0)
(-0.00125132 -0.00160365 0)
(-0.00127283 -0.00124552 0)
(-0.0012946 -0.000885041 0)
(-0.00131477 -0.000525388 0)
(-0.00133527 -0.000177835 0)
(-0.00135558 0.000166608 0)
(-0.00137465 0.00051358 0)
(-0.00139586 0.000853107 0)
(-0.00141772 0.001194 0)
(-0.00143898 0.0015421 0)
(-0.00146092 0.00188377 0)
(-0.00147754 0.0022308 0)
(-0.00149047 0.00257259 0)
(-0.00149695 0.00291253 0)
(-0.0014868 0.00324474 0)
(-0.00134176 -0.00349969 0)
(-0.00139293 -0.00311589 0)
(-0.00143826 -0.00273141 0)
(-0.00147836 -0.00234486 0)
(-0.00151361 -0.00196421 0)
(-0.00154725 -0.00159737 0)
(-0.00157808 -0.00123617 0)
(-0.00160829 -0.000873244 0)
(-0.00163519 -0.000513087 0)
(-0.00166052 -0.00016511 0)
(-0.00168411 0.000179698 0)
(-0.00170564 0.000527149 0)
(-0.0017287 0.000867541 0)
(-0.00175136 0.00120961 0)
(-0.00177189 0.00155758 0)
(-0.00179243 0.00189709 0)
(-0.00180792 0.00223952 0)
(-0.00182089 0.00257363 0)
(-0.00182493 0.00290014 0)
(-0.00181503 0.00321575 0)
(-0.00158352 -0.00348677 0)
(-0.00165117 -0.0031033 0)
(-0.00170989 -0.00272049 0)
(-0.00176204 -0.00233486 0)
(-0.00180866 -0.00195381 0)
(-0.00185183 -0.00158519 0)
(-0.00189093 -0.00122232 0)
(-0.0019268 -0.000856414 0)
(-0.00195813 -0.000495456 0)
(-0.00198692 -0.000148359 0)
(-0.00201333 0.000195163 0)
(-0.00203675 0.000542217 0)
(-0.00206014 0.000883294 0)
(-0.00208135 0.00122577 0)
(-0.00209923 0.00157284 0)
(-0.00211759 0.00190969 0)
(-0.00213169 0.00224786 0)
(-0.00214285 0.00257053 0)
(-0.00214434 0.00288502 0)
(-0.00213373 0.00318471 0)
(-0.00184544 -0.00346374 0)
(-0.00192718 -0.00308158 0)
(-0.00199902 -0.00270196 0)
(-0.00206132 -0.00231845 0)
(-0.00211862 -0.00193847 0)
(-0.00216954 -0.00156896 0)
(-0.00221536 -0.00120457 0)
(-0.0022549 -0.00083784 0)
(-0.00228843 -0.000477345 0)
(-0.0023187 -0.000131555 0)
(-0.00234583 0.000210978 0)
(-0.00236833 0.000557809 0)
(-0.00238889 0.000899189 0)
(-0.00240611 0.00124132 0)
(-0.00242016 0.00158701 0)
(-0.0024351 0.00192059 0)
(-0.00244571 0.00225216 0)
(-0.00245107 0.00256799 0)
(-0.00245199 0.00287321 0)
(-0.00244362 0.00315108 0)
(-0.00213348 -0.00343121 0)
(-0.00222655 -0.00305276 0)
(-0.00230928 -0.00267816 0)
(-0.00238189 -0.00229786 0)
(-0.00244655 -0.0019174 0)
(-0.00250312 -0.00154721 0)
(-0.00255217 -0.00118307 0)
(-0.00259352 -0.000818313 0)
(-0.00262795 -0.000460474 0)
(-0.00265803 -0.00011706 0)
(-0.00268289 0.000224925 0)
(-0.00270084 0.000573087 0)
(-0.00271627 0.000914575 0)
(-0.002729 0.00125249 0)
(-0.00273781 0.00159339 0)
(-0.00274395 0.00192995 0)
(-0.00274474 0.00226073 0)
(-0.0027458 0.00256609 0)
(-0.00274601 0.00285611 0)
(-0.00273384 0.00312268 0)
(-0.00245332 -0.00339257 0)
(-0.00255746 -0.00301874 0)
(-0.00264942 -0.00264978 0)
(-0.00273088 -0.0022724 0)
(-0.00279965 -0.00189313 0)
(-0.00285762 -0.00152309 0)
(-0.00290686 -0.00116278 0)
(-0.0029484 -0.000804374 0)
(-0.00298149 -0.000449614 0)
(-0.003007 -0.000104039 0)
(-0.00302601 0.000238778 0)
(-0.00303982 0.000580166 0)
(-0.0030505 0.000914906 0)
(-0.00305337 0.00125775 0)
(-0.00305005 0.00160319 0)
(-0.00304808 0.0019304 0)
(-0.00303848 0.00225554 0)
(-0.00302826 0.00256367 0)
(-0.00302032 0.002843 0)
(-0.00300596 0.00309235 0)
(-0.00280554 -0.00334869 0)
(-0.00291713 -0.00298034 0)
(-0.00301612 -0.00261467 0)
(-0.00310034 -0.00223847 0)
(-0.00317061 -0.00186511 0)
(-0.00322877 -0.00150523 0)
(-0.00327622 -0.00115118 0)
(-0.00331264 -0.000791098 0)
(-0.00333933 -0.000435737 0)
(-0.0033605 -9.94779e-05 0)
(-0.00337533 0.000234861 0)
(-0.00338023 0.000580914 0)
(-0.00338048 0.000918422 0)
(-0.00337647 0.00125171 0)
(-0.00336189 0.00159497 0)
(-0.00334339 0.00192486 0)
(-0.003318 0.00224815 0)
(-0.00328923 0.00255414 0)
(-0.0032616 0.00282959 0)
(-0.00323218 0.00306205 0)
(-1.30205e-05 -0.00716579 0)
(-3.03428e-05 -0.00702809 0)
(-1.68589e-05 -0.00675809 0)
(4.44883e-05 -0.00636472 0)
(0.000170375 -0.00587258 0)
(0.000374731 -0.00528697 0)
(0.000661966 -0.00464146 0)
(0.00103318 -0.0039505 0)
(0.00146088 -0.00325088 0)
(0.00196725 -0.00258604 0)
(-2.87106e-05 -0.00710271 0)
(-7.9072e-05 -0.00697555 0)
(-9.97676e-05 -0.0067285 0)
(-7.61108e-05 -0.0063641 0)
(8.01161e-06 -0.00590969 0)
(0.000167037 -0.00536718 0)
(0.000407994 -0.00476457 0)
(0.000733464 -0.00411263 0)
(0.00112593 -0.00344557 0)
(0.0016124 -0.00276934 0)
(-3.65785e-05 -0.00703783 0)
(-0.000104899 -0.00691948 0)
(-0.000146227 -0.00669295 0)
(-0.000147149 -0.00635942 0)
(-9.45165e-05 -0.00594001 0)
(2.50975e-05 -0.00544158 0)
(0.000220452 -0.00488213 0)
(0.000491249 -0.00427502 0)
(0.000832333 -0.00364082 0)
(0.00126186 -0.0029685 0)
(-4.1557e-05 -0.0069739 0)
(-0.000121495 -0.00686646 0)
(-0.000179576 -0.00665887 0)
(-0.000200367 -0.00635158 0)
(-0.000174156 -0.0059644 0)
(-8.9013e-05 -0.00550737 0)
(6.40634e-05 -0.00498324 0)
(0.000283293 -0.00441178 0)
(0.000571542 -0.00380561 0)
(0.000938847 -0.0031514 0)
(-4.70307e-05 -0.00691419 0)
(-0.000134675 -0.00681219 0)
(-0.000206163 -0.00662215 0)
(-0.000243779 -0.00633949 0)
(-0.000239922 -0.00598126 0)
(-0.000185334 -0.00555591 0)
(-6.98346e-05 -0.00506382 0)
(0.000104217 -0.00452686 0)
(0.000344084 -0.00394819 0)
(0.000654719 -0.00331543 0)
(-5.13636e-05 -0.00685632 0)
(-0.000146104 -0.00676125 0)
(-0.000227936 -0.00658401 0)
(-0.000280338 -0.00632048 0)
(-0.000295704 -0.0059868 0)
(-0.000268906 -0.00558884 0)
(-0.000186334 -0.00512735 0)
(-5.16439e-05 -0.00462132 0)
(0.000142419 -0.00406924 0)
(0.000400545 -0.00346033 0)
(-5.42138e-05 -0.00679907 0)
(-0.000156953 -0.00671133 0)
(-0.000247658 -0.00654338 0)
(-0.000314141 -0.0062991 0)
(-0.000346456 -0.00598627 0)
(-0.000342969 -0.00561207 0)
(-0.000290656 -0.00517775 0)
(-0.000190614 -0.00469633 0)
(-3.78437e-05 -0.00416699 0)
(0.000172615 -0.00358166 0)
(-5.82863e-05 -0.00674599 0)
(-0.000168109 -0.00666235 0)
(-0.000266716 -0.00650212 0)
(-0.00034634 -0.00627496 0)
(-0.00039513 -0.00597876 0)
(-0.000411476 -0.00562494 0)
(-0.000386325 -0.00521291 0)
(-0.000318483 -0.00475101 0)
(-0.000203393 -0.00424237 0)
(-3.54196e-05 -0.00368126 0)
(-6.38541e-05 -0.00669701 0)
(-0.000180276 -0.00661539 0)
(-0.000287481 -0.0064633 0)
(-0.000379465 -0.00624848 0)
(-0.000444157 -0.00596528 0)
(-0.00047981 -0.00562915 0)
(-0.000478688 -0.0052354 0)
(-0.000439249 -0.00478962 0)
(-0.000357366 -0.00429935 0)
(-0.0002272 -0.00376071 0)
(-6.88007e-05 -0.0066483 0)
(-0.000193633 -0.0065705 0)
(-0.00031124 -0.00642552 0)
(-0.000415916 -0.00621891 0)
(-0.000495357 -0.00594728 0)
(-0.000549692 -0.00562616 0)
(-0.000570503 -0.00524731 0)
(-0.000556254 -0.0048159 0)
(-0.000503376 -0.00434206 0)
(-0.000407007 -0.00382301 0)
(-7.31075e-05 -0.00659931 0)
(-0.000209725 -0.00652816 0)
(-0.000338994 -0.00638734 0)
(-0.000456835 -0.0061869 0)
(-0.000550869 -0.00592625 0)
(-0.000622796 -0.0056172 0)
(-0.000664346 -0.00525036 0)
(-0.000673324 -0.00483187 0)
(-0.000646178 -0.00437229 0)
(-0.000579881 -0.00387037 0)
(-7.84045e-05 -0.00655212 0)
(-0.000229683 -0.0064874 0)
(-0.000371666 -0.00634817 0)
(-0.000503213 -0.00615325 0)
(-0.000613131 -0.00590201 0)
(-0.000702081 -0.00560173 0)
(-0.000763544 -0.00524474 0)
(-0.000794317 -0.00483757 0)
(-0.000790566 -0.0043902 0)
(-0.000751579 -0.00390403 0)
(-8.55784e-05 -0.00650692 0)
(-0.000253126 -0.00644532 0)
(-0.000409713 -0.00630726 0)
(-0.000556148 -0.00611725 0)
(-0.00068375 -0.00587293 0)
(-0.000790116 -0.00557869 0)
(-0.000870976 -0.0052307 0)
(-0.000922442 -0.00483381 0)
(-0.000941123 -0.00439723 0)
(-0.000928266 -0.0039248 0)
(-9.40814e-05 -0.0064604 0)
(-0.000278965 -0.00639828 0)
(-0.000453066 -0.00626267 0)
(-0.000616417 -0.00607645 0)
(-0.000763317 -0.0058373 0)
(-0.000888444 -0.00554829 0)
(-0.000988887 -0.00520887 0)
(-0.00106091 -0.00482138 0)
(-0.00110232 -0.00439425 0)
(-0.00111491 -0.00393166 0)
(-0.000103258 -0.00640807 0)
(-0.000307236 -0.00634403 0)
(-0.000502391 -0.00621258 0)
(-0.000685432 -0.00602894 0)
(-0.000853005 -0.00579361 0)
(-0.000998398 -0.00551033 0)
(-0.0011193 -0.00517875 0)
(-0.00121334 -0.0047995 0)
(-0.0012783 -0.00437977 0)
(-0.00131627 -0.00392424 0)
(-0.000113615 -0.00634759 0)
(-0.00033985 -0.00628227 0)
(-0.000559446 -0.00615544 0)
(-0.000764902 -0.00597371 0)
(-0.000954631 -0.00574144 0)
(-0.00112217 -0.00546412 0)
(-0.0012656 -0.00513966 0)
(-0.00138374 -0.00476683 0)
(-0.00147343 -0.00435275 0)
(-0.00153599 -0.00390461 0)
(-0.000126371 -0.00627894 0)
(-0.000378881 -0.00621313 0)
(-0.000625587 -0.00608933 0)
(-0.000856443 -0.00590956 0)
(-0.0010707 -0.00568122 0)
(-0.00126285 -0.00540993 0)
(-0.00143145 -0.0050925 0)
(-0.00157543 -0.0047248 0)
(-0.00169018 -0.00431561 0)
(-0.00177648 -0.003876 0)
(-0.000142059 -0.00620112 0)
(-0.000424963 -0.00613529 0)
(-0.000701518 -0.00601341 0)
(-0.000961584 -0.00583722 0)
(-0.00120413 -0.00561465 0)
(-0.00142457 -0.00534902 0)
(-0.00162113 -0.00503646 0)
(-0.00179259 -0.00467338 0)
(-0.00193239 -0.00426868 0)
(-0.00204412 -0.00383717 0)
(-0.00016075 -0.00611286 0)
(-0.000478691 -0.00604771 0)
(-0.000789048 -0.00592814 0)
(-0.00108303 -0.00575671 0)
(-0.00135829 -0.00553974 0)
(-0.00161123 -0.00527991 0)
(-0.00183972 -0.00497222 0)
(-0.00204111 -0.00461442 0)
(-0.00220851 -0.00421507 0)
(-0.00234556 -0.00379254 0)
(-0.000181674 -0.00600653 0)
(-0.000539654 -0.00594486 0)
(-0.000888503 -0.00582714 0)
(-0.00122162 -0.00566109 0)
(-0.00153575 -0.0054524 0)
(-0.00182632 -0.00519936 0)
(-0.00209038 -0.00489682 0)
(-0.00232258 -0.0045429 0)
(-0.00251924 -0.00415009 0)
(-0.00268301 -0.00374282 0)
)


// ************************************************************************* //
