/*--------------------------------*- C++ -*----------------------------------*\
| =========                 |                                                 |
| \\      /  F ield         | foam-extend: Open Source CFD                    |
|  \\    /   O peration     | Version:     4.1                                |
|   \\  /    A nd           | Web:         http://www.foam-extend.org         |
|    \\/     M anipulation  |                                                 |
\*---------------------------------------------------------------------------*/
FoamFile
{
    version     2.0;
    format      ascii;
    class       vectorField;
    location    "2";
    object      solidsCellD_iteration7;
}
// * * * * * * * * * * * * * * * * * * * * * * * * * * * * * * * * * * * * * //


1000
(
(9.32857e-07 -3.27959e-07 0)
(8.87903e-07 -3.09274e-07 0)
(8.60638e-07 -2.99164e-07 0)
(8.46432e-07 -2.96644e-07 0)
(8.41372e-07 -2.98664e-07 0)
(8.43081e-07 -3.04123e-07 0)
(8.49768e-07 -3.11902e-07 0)
(8.60086e-07 -3.21549e-07 0)
(8.734e-07 -3.3231e-07 0)
(8.87379e-07 -3.44162e-07 0)
(8.44657e-07 -3.58458e-07 0)
(7.96733e-07 -3.4722e-07 0)
(7.6741e-07 -3.41929e-07 0)
(7.5161e-07 -3.42763e-07 0)
(7.45106e-07 -3.47082e-07 0)
(7.4533e-07 -3.54201e-07 0)
(7.50486e-07 -3.63169e-07 0)
(7.59174e-07 -3.73693e-07 0)
(7.70653e-07 -3.85029e-07 0)
(7.83136e-07 -3.97452e-07 0)
(7.52606e-07 -3.87311e-07 0)
(7.0357e-07 -3.84377e-07 0)
(6.73413e-07 -3.84391e-07 0)
(6.56762e-07 -3.888e-07 0)
(6.49375e-07 -3.9547e-07 0)
(6.48547e-07 -4.04204e-07 0)
(6.52519e-07 -4.1429e-07 0)
(6.59978e-07 -4.25518e-07 0)
(6.7011e-07 -4.37324e-07 0)
(6.81468e-07 -4.49905e-07 0)
(6.57445e-07 -4.14023e-07 0)
(6.09449e-07 -4.19735e-07 0)
(5.7979e-07 -4.25244e-07 0)
(5.63087e-07 -4.33298e-07 0)
(5.5532e-07 -4.42363e-07 0)
(5.53823e-07 -4.52695e-07 0)
(5.56838e-07 -4.63829e-07 0)
(5.6322e-07 -4.75715e-07 0)
(5.72122e-07 -4.87996e-07 0)
(5.82349e-07 -5.00801e-07 0)
(5.59929e-07 -4.38049e-07 0)
(5.14975e-07 -4.52283e-07 0)
(4.87086e-07 -4.63217e-07 0)
(4.71225e-07 -4.74847e-07 0)
(4.6363e-07 -4.86212e-07 0)
(4.61743e-07 -4.98087e-07 0)
(4.63999e-07 -5.1023e-07 0)
(4.69341e-07 -5.22761e-07 0)
(4.77039e-07 -5.35517e-07 0)
(4.85988e-07 -5.48603e-07 0)
(4.60395e-07 -4.58944e-07 0)
(4.20515e-07 -4.81111e-07 0)
(3.9575e-07 -4.97092e-07 0)
(3.81511e-07 -5.12072e-07 0)
(3.74523e-07 -5.25597e-07 0)
(3.72497e-07 -5.38902e-07 0)
(3.74183e-07 -5.51956e-07 0)
(3.78569e-07 -5.65095e-07 0)
(3.85004e-07 -5.7831e-07 0)
(3.92517e-07 -5.9171e-07 0)
(3.59478e-07 -4.762e-07 0)
(3.26402e-07 -5.05328e-07 0)
(3.05838e-07 -5.25743e-07 0)
(2.9392e-07 -5.43646e-07 0)
(2.8798e-07 -5.59039e-07 0)
(2.86145e-07 -5.73597e-07 0)
(2.87374e-07 -5.8746e-07 0)
(2.90789e-07 -6.01156e-07 0)
(2.95863e-07 -6.14792e-07 0)
(3.01811e-07 -6.28491e-07 0)
(2.57508e-07 -4.89497e-07 0)
(2.32687e-07 -5.24216e-07 0)
(2.17274e-07 -5.48163e-07 0)
(2.08344e-07 -5.68372e-07 0)
(2.03848e-07 -5.85291e-07 0)
(2.02395e-07 -6.00859e-07 0)
(2.03205e-07 -6.15395e-07 0)
(2.05629e-07 -6.29541e-07 0)
(2.09287e-07 -6.43514e-07 0)
(2.13584e-07 -6.57464e-07 0)
(1.54798e-07 -4.98524e-07 0)
(1.39443e-07 -5.3713e-07 0)
(1.2993e-07 -5.63539e-07 0)
(1.24357e-07 -5.85415e-07 0)
(1.21507e-07 -6.03399e-07 0)
(1.20567e-07 -6.19646e-07 0)
(1.21056e-07 -6.34661e-07 0)
(1.22527e-07 -6.4917e-07 0)
(1.2472e-07 -6.63413e-07 0)
(1.27308e-07 -6.77557e-07 0)
(5.17037e-08 -5.03076e-07 0)
(4.65013e-08 -5.43699e-07 0)
(4.32357e-08 -5.71373e-07 0)
(4.13492e-08 -5.94077e-07 0)
(4.04162e-08 -6.12597e-07 0)
(4.0079e-08 -6.29216e-07 0)
(4.01969e-08 -6.4446e-07 0)
(4.06832e-08 -6.59124e-07 0)
(4.14306e-08 -6.73497e-07 0)
(4.22916e-08 -6.87745e-07 0)
(1.441e-06 -1.48871e-08 0)
(1.45248e-06 -1.08468e-08 0)
(1.4611e-06 -8.37433e-09 0)
(1.47113e-06 -7.01164e-09 0)
(1.4828e-06 -6.35585e-09 0)
(1.49692e-06 -6.19119e-09 0)
(1.51349e-06 -6.34869e-09 0)
(1.53243e-06 -6.69103e-09 0)
(1.55378e-06 -7.22974e-09 0)
(1.57724e-06 -7.85069e-09 0)
(1.4307e-06 -4.46981e-08 0)
(1.4403e-06 -3.28168e-08 0)
(1.44776e-06 -2.55406e-08 0)
(1.45698e-06 -2.15899e-08 0)
(1.4681e-06 -1.97341e-08 0)
(1.48179e-06 -1.92222e-08 0)
(1.49811e-06 -1.97117e-08 0)
(1.51685e-06 -2.08559e-08 0)
(1.53797e-06 -2.24666e-08 0)
(1.56125e-06 -2.42524e-08 0)
(1.41007e-06 -7.47326e-08 0)
(1.41608e-06 -5.57291e-08 0)
(1.42129e-06 -4.41162e-08 0)
(1.42901e-06 -3.77396e-08 0)
(1.43915e-06 -3.48056e-08 0)
(1.45216e-06 -3.4136e-08 0)
(1.46791e-06 -3.50211e-08 0)
(1.48623e-06 -3.69202e-08 0)
(1.50694e-06 -3.95624e-08 0)
(1.52987e-06 -4.25317e-08 0)
(1.37946e-06 -1.05192e-07 0)
(1.38039e-06 -8.00987e-08 0)
(1.38235e-06 -6.48793e-08 0)
(1.38796e-06 -5.65891e-08 0)
(1.39664e-06 -5.27994e-08 0)
(1.40865e-06 -5.20243e-08 0)
(1.42365e-06 -5.33053e-08 0)
(1.44142e-06 -5.59824e-08 0)
(1.46158e-06 -5.96732e-08 0)
(1.48406e-06 -6.38208e-08 0)
(1.33925e-06 -1.36144e-07 0)
(1.33396e-06 -1.06398e-07 0)
(1.33191e-06 -8.84386e-08 0)
(1.33486e-06 -7.88045e-08 0)
(1.34177e-06 -7.4497e-08 0)
(1.35255e-06 -7.38041e-08 0)
(1.3666e-06 -7.55909e-08 0)
(1.38362e-06 -7.90768e-08 0)
(1.40311e-06 -8.3774e-08 0)
(1.42508e-06 -8.90283e-08 0)
(1.28999e-06 -1.67634e-07 0)
(1.27762e-06 -1.34957e-07 0)
(1.27108e-06 -1.15299e-07 0)
(1.27106e-06 -1.04978e-07 0)
(1.27597e-06 -1.00585e-07 0)
(1.28532e-06 -1.0022e-07 0)
(1.29834e-06 -1.02604e-07 0)
(1.31454e-06 -1.06873e-07 0)
(1.33329e-06 -1.12515e-07 0)
(1.3547e-06 -1.18812e-07 0)
(1.2324e-06 -1.99604e-07 0)
(1.2125e-06 -1.65917e-07 0)
(1.2012e-06 -1.45757e-07 0)
(1.19804e-06 -1.35494e-07 0)
(1.20083e-06 -1.31445e-07 0)
(1.20869e-06 -1.31648e-07 0)
(1.22061e-06 -1.34726e-07 0)
(1.23592e-06 -1.39766e-07 0)
(1.25388e-06 -1.46307e-07 0)
(1.27473e-06 -1.53558e-07 0)
(1.1671e-06 -2.31877e-07 0)
(1.13975e-06 -1.99205e-07 0)
(1.12372e-06 -1.79804e-07 0)
(1.11742e-06 -1.70373e-07 0)
(1.1181e-06 -1.67128e-07 0)
(1.12445e-06 -1.68174e-07 0)
(1.13523e-06 -1.72075e-07 0)
(1.14965e-06 -1.77925e-07 0)
(1.16683e-06 -1.85324e-07 0)
(1.18709e-06 -1.93421e-07 0)
(1.09489e-06 -2.64251e-07 0)
(1.0606e-06 -2.34533e-07 0)
(1.04018e-06 -2.17153e-07 0)
(1.03089e-06 -2.09328e-07 0)
(1.02955e-06 -2.07375e-07 0)
(1.03435e-06 -2.09549e-07 0)
(1.04392e-06 -2.14436e-07 0)
(1.05734e-06 -2.21141e-07 0)
(1.07363e-06 -2.29338e-07 0)
(1.09313e-06 -2.38024e-07 0)
(1.01657e-06 -2.96405e-07 0)
(9.76303e-07 -2.71421e-07 0)
(9.52056e-07 -2.57199e-07 0)
(9.40092e-07 -2.51744e-07 0)
(9.36844e-07 -2.51577e-07 0)
(9.40179e-07 -2.55217e-07 0)
(9.48617e-07 -2.6139e-07 0)
(9.61075e-07 -2.69303e-07 0)
(9.76698e-07 -2.78594e-07 0)
(9.94912e-07 -2.88448e-07 0)
(1.60268e-06 -8.40762e-09 0)
(1.6303e-06 -8.66251e-09 0)
(1.65953e-06 -8.89158e-09 0)
(1.69026e-06 -9.07877e-09 0)
(1.72232e-06 -9.22076e-09 0)
(1.75565e-06 -9.31764e-09 0)
(1.79009e-06 -9.35864e-09 0)
(1.82549e-06 -9.37017e-09 0)
(1.8618e-06 -9.36548e-09 0)
(1.89895e-06 -9.31608e-09 0)
(1.93684e-06 -9.20208e-09 0)
(1.97536e-06 -9.02633e-09 0)
(2.01443e-06 -8.79768e-09 0)
(2.05397e-06 -8.52275e-09 0)
(2.09393e-06 -8.19558e-09 0)
(2.13418e-06 -7.79832e-09 0)
(2.17469e-06 -7.31161e-09 0)
(2.2153e-06 -6.72075e-09 0)
(2.256e-06 -6.01829e-09 0)
(2.29644e-06 -5.2101e-09 0)
(1.58738e-06 -2.58455e-08 0)
(1.61623e-06 -2.65345e-08 0)
(1.64657e-06 -2.71429e-08 0)
(1.6783e-06 -2.76296e-08 0)
(1.71127e-06 -2.79711e-08 0)
(1.74539e-06 -2.82055e-08 0)
(1.78054e-06 -2.83375e-08 0)
(1.81663e-06 -2.83826e-08 0)
(1.85358e-06 -2.83164e-08 0)
(1.89131e-06 -2.80917e-08 0)
(1.92973e-06 -2.77095e-08 0)
(1.96875e-06 -2.71898e-08 0)
(2.00831e-06 -2.65287e-08 0)
(2.04832e-06 -2.57067e-08 0)
(2.0887e-06 -2.46962e-08 0)
(2.12936e-06 -2.34706e-08 0)
(2.17025e-06 -2.19964e-08 0)
(2.21122e-06 -2.02406e-08 0)
(2.25228e-06 -1.81723e-08 0)
(2.29306e-06 -1.57796e-08 0)
(1.55731e-06 -4.49962e-08 0)
(1.58863e-06 -4.58545e-08 0)
(1.62121e-06 -4.65798e-08 0)
(1.65484e-06 -4.71777e-08 0)
(1.68954e-06 -4.76028e-08 0)
(1.72525e-06 -4.78996e-08 0)
(1.76188e-06 -4.8041e-08 0)
(1.7993e-06 -4.80224e-08 0)
(1.83744e-06 -4.78042e-08 0)
(1.87628e-06 -4.73549e-08 0)
(1.91573e-06 -4.66929e-08 0)
(1.95574e-06 -4.58273e-08 0)
(1.99623e-06 -4.47193e-08 0)
(2.03709e-06 -4.33227e-08 0)
(2.07828e-06 -4.16032e-08 0)
(2.11973e-06 -3.95322e-08 0)
(2.16139e-06 -3.70613e-08 0)
(2.20312e-06 -3.41467e-08 0)
(2.24491e-06 -3.07375e-08 0)
(2.28641e-06 -2.67911e-08 0)
(1.51336e-06 -6.68152e-08 0)
(1.54816e-06 -6.73939e-08 0)
(1.58394e-06 -6.78521e-08 0)
(1.6204e-06 -6.82884e-08 0)
(1.65769e-06 -6.85871e-08 0)
(1.69571e-06 -6.87805e-08 0)
(1.73444e-06 -6.87837e-08 0)
(1.77378e-06 -6.85877e-08 0)
(1.81375e-06 -6.81406e-08 0)
(1.85428e-06 -6.74217e-08 0)
(1.8953e-06 -6.64363e-08 0)
(1.93675e-06 -6.5163e-08 0)
(1.97858e-06 -6.3542e-08 0)
(2.0207e-06 -6.15287e-08 0)
(2.0631e-06 -5.90962e-08 0)
(2.10572e-06 -5.61873e-08 0)
(2.14849e-06 -5.27342e-08 0)
(2.19131e-06 -4.86747e-08 0)
(2.23413e-06 -4.39268e-08 0)
(2.27667e-06 -3.84549e-08 0)
(1.45678e-06 -9.21077e-08 0)
(1.49603e-06 -9.18637e-08 0)
(1.53592e-06 -9.16155e-08 0)
(1.57595e-06 -9.15716e-08 0)
(1.61652e-06 -9.14548e-08 0)
(1.65749e-06 -9.12962e-08 0)
(1.69895e-06 -9.09625e-08 0)
(1.74081e-06 -9.04506e-08 0)
(1.78309e-06 -8.96686e-08 0)
(1.82576e-06 -8.85814e-08 0)
(1.86877e-06 -8.71822e-08 0)
(1.9121e-06 -8.54299e-08 0)
(1.9557e-06 -8.32503e-08 0)
(1.99951e-06 -8.05931e-08 0)
(2.04352e-06 -7.74237e-08 0)
(2.08764e-06 -7.36614e-08 0)
(2.13187e-06 -6.92234e-08 0)
(2.17605e-06 -6.40336e-08 0)
(2.22026e-06 -5.79709e-08 0)
(2.26413e-06 -5.10093e-08 0)
(1.38911e-06 -1.21501e-07 0)
(1.43346e-06 -1.19804e-07 0)
(1.4782e-06 -1.18283e-07 0)
(1.52252e-06 -1.1733e-07 0)
(1.56706e-06 -1.16461e-07 0)
(1.61162e-06 -1.15693e-07 0)
(1.65633e-06 -1.14812e-07 0)
(1.70119e-06 -1.13782e-07 0)
(1.74625e-06 -1.12508e-07 0)
(1.79148e-06 -1.1094e-07 0)
(1.83691e-06 -1.09047e-07 0)
(1.88251e-06 -1.06759e-07 0)
(1.92824e-06 -1.0398e-07 0)
(1.97405e-06 -1.00652e-07 0)
(2.01997e-06 -9.67147e-08 0)
(2.06589e-06 -9.20805e-08 0)
(2.11189e-06 -8.66554e-08 0)
(2.15774e-06 -8.03551e-08 0)
(2.20362e-06 -7.3022e-08 0)
(2.24913e-06 -6.46039e-08 0)
(1.31219e-06 -1.55361e-07 0)
(1.36221e-06 -1.51547e-07 0)
(1.41238e-06 -1.48189e-07 0)
(1.46152e-06 -1.45869e-07 0)
(1.51047e-06 -1.43869e-07 0)
(1.55908e-06 -1.4216e-07 0)
(1.60747e-06 -1.4049e-07 0)
(1.65573e-06 -1.38754e-07 0)
(1.70396e-06 -1.36846e-07 0)
(1.75216e-06 -1.3469e-07 0)
(1.80036e-06 -1.32211e-07 0)
(1.84854e-06 -1.29302e-07 0)
(1.89669e-06 -1.25855e-07 0)
(1.94481e-06 -1.21804e-07 0)
(1.99291e-06 -1.17069e-07 0)
(2.04094e-06 -1.11559e-07 0)
(2.08898e-06 -1.05163e-07 0)
(2.13681e-06 -9.77718e-08 0)
(2.1846e-06 -8.91875e-08 0)
(2.23198e-06 -7.93308e-08 0)
(1.22772e-06 -1.93833e-07 0)
(1.28372e-06 -1.8715e-07 0)
(1.33967e-06 -1.81387e-07 0)
(1.39407e-06 -1.7717e-07 0)
(1.44788e-06 -1.73632e-07 0)
(1.50092e-06 -1.70642e-07 0)
(1.55344e-06 -1.67913e-07 0)
(1.60551e-06 -1.6527e-07 0)
(1.65724e-06 -1.62574e-07 0)
(1.70871e-06 -1.597e-07 0)
(1.75994e-06 -1.56526e-07 0)
(1.81095e-06 -1.52918e-07 0)
(1.86175e-06 -1.48757e-07 0)
(1.91242e-06 -1.43966e-07 0)
(1.96295e-06 -1.38445e-07 0)
(2.01334e-06 -1.32085e-07 0)
(2.06363e-06 -1.24746e-07 0)
(2.11366e-06 -1.16286e-07 0)
(2.16357e-06 -1.06467e-07 0)
(2.21302e-06 -9.51872e-08 0)
(1.13737e-06 -2.36851e-07 0)
(1.19969e-06 -2.26629e-07 0)
(1.26171e-06 -2.18048e-07 0)
(1.32171e-06 -2.11434e-07 0)
(1.38067e-06 -2.05984e-07 0)
(1.43845e-06 -2.01391e-07 0)
(1.49534e-06 -1.97327e-07 0)
(1.55145e-06 -1.93549e-07 0)
(1.60693e-06 -1.89869e-07 0)
(1.66185e-06 -1.8611e-07 0)
(1.71631e-06 -1.8211e-07 0)
(1.77034e-06 -1.77712e-07 0)
(1.82402e-06 -1.72788e-07 0)
(1.87743e-06 -1.67236e-07 0)
(1.93059e-06 -1.60925e-07 0)
(1.9835e-06 -1.53721e-07 0)
(2.03622e-06 -1.45446e-07 0)
(2.08859e-06 -1.35925e-07 0)
(2.14079e-06 -1.24889e-07 0)
(2.19252e-06 -1.1222e-07 0)
(1.04303e-06 -2.8407e-07 0)
(1.1127e-06 -2.68895e-07 0)
(1.18109e-06 -2.57072e-07 0)
(1.24706e-06 -2.47649e-07 0)
(1.31132e-06 -2.39966e-07 0)
(1.37402e-06 -2.33494e-07 0)
(1.43539e-06 -2.27863e-07 0)
(1.49563e-06 -2.22769e-07 0)
(1.55492e-06 -2.1797e-07 0)
(1.61338e-06 -2.13233e-07 0)
(1.67113e-06 -2.08358e-07 0)
(1.72825e-06 -2.03159e-07 0)
(1.78486e-06 -1.97483e-07 0)
(1.84105e-06 -1.91196e-07 0)
(1.89684e-06 -1.84133e-07 0)
(1.95229e-06 -1.76137e-07 0)
(2.00744e-06 -1.66993e-07 0)
(2.06219e-06 -1.56481e-07 0)
(2.11674e-06 -1.4431e-07 0)
(2.17085e-06 -1.30316e-07 0)
(9.68532e-07 -3.33485e-07 0)
(1.04516e-06 -3.12873e-07 0)
(1.11859e-06 -2.97867e-07 0)
(1.18922e-06 -2.85614e-07 0)
(1.25745e-06 -2.75567e-07 0)
(1.3237e-06 -2.67062e-07 0)
(1.38828e-06 -2.59665e-07 0)
(1.45145e-06 -2.53031e-07 0)
(1.51342e-06 -2.46863e-07 0)
(1.57435e-06 -2.40895e-07 0)
(1.63437e-06 -2.34904e-07 0)
(1.69361e-06 -2.28688e-07 0)
(1.75219e-06 -2.2207e-07 0)
(1.81022e-06 -2.14889e-07 0)
(1.86772e-06 -2.06961e-07 0)
(1.92477e-06 -1.981e-07 0)
(1.98141e-06 -1.88086e-07 0)
(2.03764e-06 -1.76665e-07 0)
(2.09361e-06 -1.63546e-07 0)
(2.14918e-06 -1.48508e-07 0)
(9.281e-07 -3.75901e-07 0)
(1.00536e-06 -3.54176e-07 0)
(1.07967e-06 -3.37006e-07 0)
(1.15172e-06 -3.2267e-07 0)
(1.22153e-06 -3.1066e-07 0)
(1.28938e-06 -3.00364e-07 0)
(1.35552e-06 -2.91329e-07 0)
(1.42016e-06 -2.83189e-07 0)
(1.48348e-06 -2.75631e-07 0)
(1.54565e-06 -2.6838e-07 0)
(1.6068e-06 -2.61204e-07 0)
(1.66707e-06 -2.53893e-07 0)
(1.72658e-06 -2.46255e-07 0)
(1.78545e-06 -2.38114e-07 0)
(1.84366e-06 -2.29281e-07 0)
(1.90137e-06 -2.19555e-07 0)
(1.95858e-06 -2.08728e-07 0)
(2.01535e-06 -1.96541e-07 0)
(2.07181e-06 -1.82712e-07 0)
(2.12786e-06 -1.66971e-07 0)
(8.957e-07 -4.15334e-07 0)
(9.71953e-07 -3.93539e-07 0)
(1.04622e-06 -3.7537e-07 0)
(1.11866e-06 -3.59679e-07 0)
(1.1892e-06 -3.46149e-07 0)
(1.25794e-06 -3.34313e-07 0)
(1.32505e-06 -3.23775e-07 0)
(1.39067e-06 -3.14197e-07 0)
(1.45493e-06 -3.05277e-07 0)
(1.518e-06 -2.96749e-07 0)
(1.58001e-06 -2.88382e-07 0)
(1.64106e-06 -2.79959e-07 0)
(1.70129e-06 -2.71281e-07 0)
(1.76079e-06 -2.62163e-07 0)
(1.81957e-06 -2.52416e-07 0)
(1.8778e-06 -2.41833e-07 0)
(1.93548e-06 -2.30217e-07 0)
(1.99271e-06 -2.17318e-07 0)
(2.04957e-06 -2.02852e-07 0)
(2.10606e-06 -1.86521e-07 0)
(8.67913e-07 -4.53257e-07 0)
(9.42955e-07 -4.31606e-07 0)
(1.01661e-06 -4.12813e-07 0)
(1.08885e-06 -3.96118e-07 0)
(1.15952e-06 -3.81362e-07 0)
(1.22862e-06 -3.68204e-07 0)
(1.29624e-06 -3.56326e-07 0)
(1.36245e-06 -3.45428e-07 0)
(1.42734e-06 -3.3523e-07 0)
(1.49105e-06 -3.25488e-07 0)
(1.5537e-06 -3.15977e-07 0)
(1.61535e-06 -3.06479e-07 0)
(1.67614e-06 -2.96797e-07 0)
(1.73617e-06 -2.8674e-07 0)
(1.79543e-06 -2.7612e-07 0)
(1.85411e-06 -2.64733e-07 0)
(1.9122e-06 -2.52396e-07 0)
(1.96984e-06 -2.38864e-07 0)
(2.02708e-06 -2.23851e-07 0)
(2.08398e-06 -2.07087e-07 0)
(8.43849e-07 -4.89524e-07 0)
(9.17573e-07 -4.68198e-07 0)
(9.90315e-07 -4.49145e-07 0)
(1.06198e-06 -4.31797e-07 0)
(1.13236e-06 -4.16119e-07 0)
(1.20144e-06 -4.01888e-07 0)
(1.2692e-06 -3.8886e-07 0)
(1.33567e-06 -3.76785e-07 0)
(1.40091e-06 -3.65421e-07 0)
(1.46503e-06 -3.54548e-07 0)
(1.5281e-06 -3.43956e-07 0)
(1.59018e-06 -3.33435e-07 0)
(1.6514e-06 -3.22791e-07 0)
(1.71183e-06 -3.11841e-07 0)
(1.77149e-06 -3.00395e-07 0)
(1.83055e-06 -2.88259e-07 0)
(1.889e-06 -2.75258e-07 0)
(1.947e-06 -2.61156e-07 0)
(2.00457e-06 -2.45679e-07 0)
(2.06187e-06 -2.28644e-07 0)
(8.22688e-07 -5.2436e-07 0)
(8.95072e-07 -5.03436e-07 0)
(9.66793e-07 -4.8431e-07 0)
(1.03764e-06 -4.66548e-07 0)
(1.1075e-06 -4.50189e-07 0)
(1.17626e-06 -4.35102e-07 0)
(1.24388e-06 -4.2111e-07 0)
(1.31036e-06 -4.08016e-07 0)
(1.37572e-06 -3.95617e-07 0)
(1.44003e-06 -3.83723e-07 0)
(1.50335e-06 -3.72139e-07 0)
(1.5657e-06 -3.6067e-07 0)
(1.62722e-06 -3.49132e-07 0)
(1.68794e-06 -3.37349e-07 0)
(1.74791e-06 -3.25137e-07 0)
(1.80728e-06 -3.12318e-07 0)
(1.86603e-06 -2.98716e-07 0)
(1.92432e-06 -2.84114e-07 0)
(1.98222e-06 -2.68281e-07 0)
(2.03986e-06 -2.51107e-07 0)
(8.03929e-07 -5.57905e-07 0)
(8.74984e-07 -5.37417e-07 0)
(9.45611e-07 -5.18339e-07 0)
(1.01553e-06 -5.0034e-07 0)
(1.08469e-06 -4.83503e-07 0)
(1.15293e-06 -4.6775e-07 0)
(1.22022e-06 -4.52969e-07 0)
(1.2865e-06 -4.39013e-07 0)
(1.35179e-06 -4.25712e-07 0)
(1.41612e-06 -4.1291e-07 0)
(1.47952e-06 -4.00432e-07 0)
(1.54201e-06 -3.88097e-07 0)
(1.6037e-06 -3.75738e-07 0)
(1.66463e-06 -3.63191e-07 0)
(1.72481e-06 -3.50273e-07 0)
(1.78441e-06 -3.36829e-07 0)
(1.8434e-06 -3.2269e-07 0)
(1.90195e-06 -3.07666e-07 0)
(1.96013e-06 -2.91592e-07 0)
(2.01807e-06 -2.74334e-07 0)
(7.87142e-07 -5.90282e-07 0)
(8.56925e-07 -5.70235e-07 0)
(9.26416e-07 -5.51288e-07 0)
(9.95356e-07 -5.3318e-07 0)
(1.0637e-06 -5.16017e-07 0)
(1.13129e-06 -4.99755e-07 0)
(1.1981e-06 -4.84337e-07 0)
(1.26404e-06 -4.69659e-07 0)
(1.32909e-06 -4.5558e-07 0)
(1.39329e-06 -4.41982e-07 0)
(1.45664e-06 -4.28709e-07 0)
(1.51915e-06 -4.15598e-07 0)
(1.58091e-06 -4.02493e-07 0)
(1.64194e-06 -3.89251e-07 0)
(1.70226e-06 -3.75694e-07 0)
(1.76203e-06 -3.61689e-07 0)
(1.8212e-06 -3.4709e-07 0)
(1.87998e-06 -3.31736e-07 0)
(1.9384e-06 -3.15501e-07 0)
(1.99658e-06 -2.98186e-07 0)
(7.71939e-07 -6.21604e-07 0)
(8.40496e-07 -6.01992e-07 0)
(9.08866e-07 -5.8323e-07 0)
(9.76808e-07 -5.651e-07 0)
(1.04428e-06 -5.47719e-07 0)
(1.11115e-06 -5.31071e-07 0)
(1.17737e-06 -5.15143e-07 0)
(1.24285e-06 -4.99867e-07 0)
(1.30756e-06 -4.85128e-07 0)
(1.37152e-06 -4.70842e-07 0)
(1.43471e-06 -4.56874e-07 0)
(1.49713e-06 -4.43079e-07 0)
(1.55888e-06 -4.29311e-07 0)
(1.61993e-06 -4.15446e-07 0)
(1.68033e-06 -4.01324e-07 0)
(1.7402e-06 -3.86834e-07 0)
(1.79953e-06 -3.71859e-07 0)
(1.85849e-06 -3.56258e-07 0)
(1.91709e-06 -3.39898e-07 0)
(1.97549e-06 -3.226e-07 0)
(7.57999e-07 -6.51971e-07 0)
(8.25371e-07 -6.32794e-07 0)
(8.92657e-07 -6.14239e-07 0)
(9.59599e-07 -5.96139e-07 0)
(1.02619e-06 -5.78617e-07 0)
(1.0923e-06 -5.61679e-07 0)
(1.15788e-06 -5.45349e-07 0)
(1.22283e-06 -5.29588e-07 0)
(1.28712e-06 -5.143e-07 0)
(1.35075e-06 -4.99432e-07 0)
(1.4137e-06 -4.84866e-07 0)
(1.47596e-06 -4.70475e-07 0)
(1.53761e-06 -4.56128e-07 0)
(1.59863e-06 -4.41719e-07 0)
(1.65905e-06 -4.2711e-07 0)
(1.71899e-06 -4.12216e-07 0)
(1.77842e-06 -3.96942e-07 0)
(1.83752e-06 -3.81147e-07 0)
(1.89626e-06 -3.64685e-07 0)
(1.95484e-06 -3.47509e-07 0)
(7.45044e-07 -6.81489e-07 0)
(8.11287e-07 -6.62731e-07 0)
(8.7752e-07 -6.44387e-07 0)
(9.43491e-07 -6.26348e-07 0)
(1.00921e-06 -6.08746e-07 0)
(1.07456e-06 -5.91602e-07 0)
(1.13947e-06 -5.74965e-07 0)
(1.20385e-06 -5.58818e-07 0)
(1.26766e-06 -5.43085e-07 0)
(1.33092e-06 -5.27726e-07 0)
(1.39358e-06 -5.12648e-07 0)
(1.45562e-06 -4.97739e-07 0)
(1.51712e-06 -4.82887e-07 0)
(1.57805e-06 -4.6801e-07 0)
(1.63844e-06 -4.5299e-07 0)
(1.69841e-06 -4.37766e-07 0)
(1.75792e-06 -4.22243e-07 0)
(1.81709e-06 -4.06282e-07 0)
(1.87595e-06 -3.89785e-07 0)
(1.93465e-06 -3.72763e-07 0)
(7.32844e-07 -7.10246e-07 0)
(7.98019e-07 -6.91868e-07 0)
(8.63237e-07 -6.73735e-07 0)
(9.28285e-07 -6.55787e-07 0)
(9.9316e-07 -6.38158e-07 0)
(1.05774e-06 -6.20876e-07 0)
(1.12198e-06 -6.04008e-07 0)
(1.18577e-06 -5.87552e-07 0)
(1.24909e-06 -5.71459e-07 0)
(1.31194e-06 -5.55684e-07 0)
(1.37427e-06 -5.40165e-07 0)
(1.43606e-06 -5.24809e-07 0)
(1.49738e-06 -5.09527e-07 0)
(1.5582e-06 -4.9426e-07 0)
(1.61854e-06 -4.7891e-07 0)
(1.6785e-06 -4.63417e-07 0)
(1.73803e-06 -4.47687e-07 0)
(1.79725e-06 -4.31598e-07 0)
(1.85619e-06 -4.15158e-07 0)
(1.91499e-06 -3.98264e-07 0)
(7.21226e-07 -7.38307e-07 0)
(7.85386e-07 -7.20269e-07 0)
(8.49647e-07 -7.02355e-07 0)
(9.13813e-07 -6.8452e-07 0)
(9.77864e-07 -6.66898e-07 0)
(1.0417e-06 -6.49522e-07 0)
(1.10526e-06 -6.32483e-07 0)
(1.16848e-06 -6.15776e-07 0)
(1.23131e-06 -5.99396e-07 0)
(1.29374e-06 -5.83283e-07 0)
(1.35573e-06 -5.67404e-07 0)
(1.41725e-06 -5.51687e-07 0)
(1.47837e-06 -5.36058e-07 0)
(1.53906e-06 -5.20478e-07 0)
(1.59932e-06 -5.04857e-07 0)
(1.65924e-06 -4.89136e-07 0)
(1.71874e-06 -4.73235e-07 0)
(1.77799e-06 -4.57082e-07 0)
(1.83697e-06 -4.40717e-07 0)
(1.89584e-06 -4.2399e-07 0)
(7.10022e-07 -7.65727e-07 0)
(7.73227e-07 -7.4802e-07 0)
(8.36584e-07 -7.30317e-07 0)
(8.99896e-07 -7.12599e-07 0)
(9.63151e-07 -6.95e-07 0)
(1.02627e-06 -6.77571e-07 0)
(1.0892e-06 -6.60421e-07 0)
(1.15187e-06 -6.43537e-07 0)
(1.21421e-06 -6.26934e-07 0)
(1.27623e-06 -6.10555e-07 0)
(1.33787e-06 -5.9438e-07 0)
(1.39912e-06 -5.7836e-07 0)
(1.46004e-06 -5.62442e-07 0)
(1.52058e-06 -5.46601e-07 0)
(1.58074e-06 -5.30747e-07 0)
(1.64058e-06 -5.14828e-07 0)
(1.70004e-06 -4.98801e-07 0)
(1.7593e-06 -4.82649e-07 0)
(1.8183e-06 -4.66317e-07 0)
(1.8772e-06 -4.4981e-07 0)
(6.99045e-07 -7.92595e-07 0)
(7.61359e-07 -7.75195e-07 0)
(8.23848e-07 -7.57678e-07 0)
(8.86343e-07 -7.40074e-07 0)
(9.48855e-07 -7.22524e-07 0)
(1.01131e-06 -7.05092e-07 0)
(1.07365e-06 -6.87873e-07 0)
(1.13578e-06 -6.70861e-07 0)
(1.19767e-06 -6.54061e-07 0)
(1.2593e-06 -6.37461e-07 0)
(1.32062e-06 -6.21063e-07 0)
(1.38162e-06 -6.0482e-07 0)
(1.44235e-06 -5.88682e-07 0)
(1.50273e-06 -5.72628e-07 0)
(1.56276e-06 -5.56577e-07 0)
(1.62251e-06 -5.40505e-07 0)
(1.68195e-06 -5.24407e-07 0)
(1.74119e-06 -5.08261e-07 0)
(1.8002e-06 -4.91992e-07 0)
(1.8591e-06 -4.75667e-07 0)
(6.88108e-07 -8.18986e-07 0)
(7.4957e-07 -8.01842e-07 0)
(8.11229e-07 -7.84477e-07 0)
(8.7298e-07 -7.66999e-07 0)
(9.34821e-07 -7.49525e-07 0)
(9.96668e-07 -7.32119e-07 0)
(1.05847e-06 -7.14849e-07 0)
(1.12011e-06 -6.97761e-07 0)
(1.18157e-06 -6.80834e-07 0)
(1.24285e-06 -6.64075e-07 0)
(1.30389e-06 -6.47505e-07 0)
(1.36466e-06 -6.31083e-07 0)
(1.4252e-06 -6.1476e-07 0)
(1.48541e-06 -5.9852e-07 0)
(1.54532e-06 -5.82308e-07 0)
(1.605e-06 -5.66137e-07 0)
(1.66441e-06 -5.50005e-07 0)
(1.72361e-06 -5.33816e-07 0)
(1.78259e-06 -5.17648e-07 0)
(1.84148e-06 -5.01512e-07 0)
(6.77006e-07 -8.44925e-07 0)
(7.37643e-07 -8.27981e-07 0)
(7.98533e-07 -8.10799e-07 0)
(8.59647e-07 -7.93475e-07 0)
(9.20885e-07 -7.76076e-07 0)
(9.822e-07 -7.587e-07 0)
(1.0435e-06 -7.41419e-07 0)
(1.10472e-06 -7.24273e-07 0)
(1.16581e-06 -7.07262e-07 0)
(1.2268e-06 -6.90401e-07 0)
(1.2876e-06 -6.7371e-07 0)
(1.34816e-06 -6.5714e-07 0)
(1.4085e-06 -6.40653e-07 0)
(1.46857e-06 -6.24272e-07 0)
(1.52839e-06 -6.07965e-07 0)
(1.58804e-06 -5.91718e-07 0)
(1.64739e-06 -5.75508e-07 0)
(1.70653e-06 -5.59297e-07 0)
(1.76546e-06 -5.43243e-07 0)
(1.82441e-06 -5.27287e-07 0)
(6.65492e-07 -8.70404e-07 0)
(7.25423e-07 -8.53703e-07 0)
(7.85696e-07 -8.36713e-07 0)
(8.46215e-07 -8.19514e-07 0)
(9.06927e-07 -8.02232e-07 0)
(9.67756e-07 -7.84902e-07 0)
(1.02864e-06 -7.67627e-07 0)
(1.0895e-06 -7.50465e-07 0)
(1.15032e-06 -7.33419e-07 0)
(1.21107e-06 -7.16488e-07 0)
(1.27165e-06 -6.99688e-07 0)
(1.332e-06 -6.83005e-07 0)
(1.3922e-06 -6.66423e-07 0)
(1.45221e-06 -6.4994e-07 0)
(1.51199e-06 -6.33528e-07 0)
(1.57152e-06 -6.17207e-07 0)
(1.63077e-06 -6.00926e-07 0)
(1.68997e-06 -5.84746e-07 0)
(1.74892e-06 -5.68759e-07 0)
(1.80774e-06 -5.52974e-07 0)
(6.53393e-07 -8.95664e-07 0)
(7.12691e-07 -8.79169e-07 0)
(7.72424e-07 -8.6232e-07 0)
(8.32456e-07 -8.45256e-07 0)
(8.92717e-07 -8.28052e-07 0)
(9.53153e-07 -8.10799e-07 0)
(1.01374e-06 -7.93568e-07 0)
(1.07438e-06 -7.76405e-07 0)
(1.13498e-06 -7.59319e-07 0)
(1.1955e-06 -7.42333e-07 0)
(1.25591e-06 -7.25473e-07 0)
(1.3162e-06 -7.08709e-07 0)
(1.37635e-06 -6.92031e-07 0)
(1.43623e-06 -6.75477e-07 0)
(1.4959e-06 -6.58978e-07 0)
(1.55547e-06 -6.42552e-07 0)
(1.61475e-06 -6.2624e-07 0)
(1.67388e-06 -6.10064e-07 0)
(1.73286e-06 -5.94093e-07 0)
(1.79166e-06 -5.78455e-07 0)
(6.40568e-07 -9.20499e-07 0)
(6.99331e-07 -9.04265e-07 0)
(7.58595e-07 -8.87619e-07 0)
(8.18213e-07 -8.70699e-07 0)
(8.78158e-07 -8.53615e-07 0)
(9.38382e-07 -8.36446e-07 0)
(9.98779e-07 -8.19271e-07 0)
(1.05922e-06 -8.02135e-07 0)
(1.11966e-06 -7.85041e-07 0)
(1.18013e-06 -7.68012e-07 0)
(1.24051e-06 -7.51112e-07 0)
(1.30068e-06 -7.34311e-07 0)
(1.36075e-06 -7.17547e-07 0)
(1.42066e-06 -7.00895e-07 0)
(1.4803e-06 -6.84351e-07 0)
(1.53982e-06 -6.67851e-07 0)
(1.59916e-06 -6.51515e-07 0)
(1.65829e-06 -6.3526e-07 0)
(1.71733e-06 -6.19274e-07 0)
(1.7761e-06 -6.03653e-07 0)
(4.24027e-08 -7.02115e-07 0)
(1.2759e-07 -6.92432e-07 0)
(2.13825e-07 -6.73288e-07 0)
(3.01715e-07 -6.45672e-07 0)
(3.91671e-07 -6.10501e-07 0)
(4.83934e-07 -5.69184e-07 0)
(5.78563e-07 -5.23223e-07 0)
(6.75363e-07 -4.74109e-07 0)
(7.74471e-07 -4.23291e-07 0)
(8.74623e-07 -3.71734e-07 0)
(4.15649e-08 -7.17214e-07 0)
(1.25012e-07 -7.08397e-07 0)
(2.09258e-07 -6.90905e-07 0)
(2.94796e-07 -6.65654e-07 0)
(3.81933e-07 -6.33375e-07 0)
(4.7082e-07 -5.95268e-07 0)
(5.61485e-07 -5.52612e-07 0)
(6.53621e-07 -5.06733e-07 0)
(7.47141e-07 -4.58937e-07 0)
(8.40633e-07 -4.10777e-07 0)
(4.0727e-08 -7.32756e-07 0)
(1.22442e-07 -7.24727e-07 0)
(2.04748e-07 -7.08717e-07 0)
(2.88004e-07 -6.85583e-07 0)
(3.72475e-07 -6.55951e-07 0)
(4.58225e-07 -6.20838e-07 0)
(5.45283e-07 -5.81366e-07 0)
(6.33458e-07 -5.38673e-07 0)
(7.22636e-07 -4.93916e-07 0)
(8.11781e-07 -4.48586e-07 0)
(3.99492e-08 -7.48661e-07 0)
(1.20061e-07 -7.41279e-07 0)
(2.00659e-07 -7.26517e-07 0)
(2.81949e-07 -7.05171e-07 0)
(3.64181e-07 -6.77791e-07 0)
(4.47347e-07 -6.45239e-07 0)
(5.31454e-07 -6.08574e-07 0)
(6.16318e-07 -5.68813e-07 0)
(7.01743e-07 -5.27083e-07 0)
(7.86961e-07 -4.84739e-07 0)
(3.92423e-08 -7.64909e-07 0)
(1.17825e-07 -7.58116e-07 0)
(1.96829e-07 -7.44479e-07 0)
(2.76326e-07 -7.24739e-07 0)
(3.56539e-07 -6.99395e-07 0)
(4.3743e-07 -6.69221e-07 0)
(5.18992e-07 -6.35181e-07 0)
(6.01077e-07 -5.98141e-07 0)
(6.83446e-07 -5.59174e-07 0)
(7.6541e-07 -5.19515e-07 0)
(3.85703e-08 -7.81478e-07 0)
(1.15746e-07 -7.75181e-07 0)
(1.9326e-07 -7.62542e-07 0)
(2.71145e-07 -7.44224e-07 0)
(3.49563e-07 -7.20687e-07 0)
(4.285e-07 -6.92639e-07 0)
(5.07856e-07 -6.60963e-07 0)
(5.87521e-07 -6.26432e-07 0)
(6.67277e-07 -5.90048e-07 0)
(7.46453e-07 -5.52965e-07 0)
(3.7904e-08 -7.98345e-07 0)
(1.13764e-07 -7.92486e-07 0)
(1.89872e-07 -7.80765e-07 0)
(2.6628e-07 -7.63713e-07 0)
(3.43063e-07 -7.41813e-07 0)
(4.20248e-07 -7.157e-07 0)
(4.97709e-07 -6.86177e-07 0)
(5.75292e-07 -6.5395e-07 0)
(6.52832e-07 -6.19922e-07 0)
(7.29655e-07 -5.85202e-07 0)
(3.72861e-08 -8.15468e-07 0)
(1.11875e-07 -8.10004e-07 0)
(1.86646e-07 -7.9911e-07 0)
(2.61683e-07 -7.83193e-07 0)
(3.36994e-07 -7.62776e-07 0)
(4.12586e-07 -7.38416e-07 0)
(4.88362e-07 -7.1086e-07 0)
(5.64134e-07 -6.80748e-07 0)
(6.39772e-07 -6.48888e-07 0)
(7.14614e-07 -6.16339e-07 0)
(3.67098e-08 -8.32833e-07 0)
(1.10054e-07 -8.27725e-07 0)
(1.83559e-07 -8.17572e-07 0)
(2.57295e-07 -8.02702e-07 0)
(3.3124e-07 -7.83651e-07 0)
(4.05401e-07 -7.60884e-07 0)
(4.79657e-07 -7.35118e-07 0)
(5.53827e-07 -7.06938e-07 0)
(6.27809e-07 -6.77065e-07 0)
(7.00975e-07 -6.46504e-07 0)
(3.61252e-08 -8.50431e-07 0)
(1.08273e-07 -8.45628e-07 0)
(1.80577e-07 -8.36147e-07 0)
(2.53082e-07 -8.22244e-07 0)
(3.2573e-07 -8.0444e-07 0)
(3.98577e-07 -7.83128e-07 0)
(4.71451e-07 -7.58993e-07 0)
(5.44183e-07 -7.32586e-07 0)
(6.16704e-07 -7.04544e-07 0)
(6.88428e-07 -6.75809e-07 0)
(3.55233e-08 -8.68227e-07 0)
(1.06535e-07 -8.63693e-07 0)
(1.77669e-07 -8.54836e-07 0)
(2.4899e-07 -8.41825e-07 0)
(3.20405e-07 -8.25156e-07 0)
(3.92006e-07 -8.05179e-07 0)
(4.6361e-07 -7.8254e-07 0)
(5.35046e-07 -7.57766e-07 0)
(6.06263e-07 -7.31403e-07 0)
(6.76723e-07 -7.04337e-07 0)
(3.4935e-08 -8.86178e-07 0)
(1.04846e-07 -8.81904e-07 0)
(1.74817e-07 -8.73627e-07 0)
(2.44975e-07 -8.61434e-07 0)
(3.15213e-07 -8.45799e-07 0)
(3.85614e-07 -8.27056e-07 0)
(4.56029e-07 -8.05797e-07 0)
(5.26281e-07 -7.82521e-07 0)
(5.96316e-07 -7.57693e-07 0)
(6.6567e-07 -7.32152e-07 0)
(3.4371e-08 -9.04266e-07 0)
(1.0317e-07 -9.00252e-07 0)
(1.71982e-07 -8.92503e-07 0)
(2.40982e-07 -8.81061e-07 0)
(3.10082e-07 -8.66378e-07 0)
(3.79323e-07 -8.48776e-07 0)
(4.48608e-07 -8.28794e-07 0)
(5.17755e-07 -8.06884e-07 0)
(5.86719e-07 -7.83467e-07 0)
(6.55113e-07 -7.59339e-07 0)
(3.38058e-08 -9.22479e-07 0)
(1.01451e-07 -9.18712e-07 0)
(1.69106e-07 -9.11438e-07 0)
(2.36949e-07 -9.0069e-07 0)
(3.04929e-07 -8.86889e-07 0)
(3.73043e-07 -8.70345e-07 0)
(4.41238e-07 -8.51541e-07 0)
(5.09347e-07 -8.30889e-07 0)
(5.77339e-07 -8.08803e-07 0)
(6.44878e-07 -7.85989e-07 0)
(3.32092e-08 -9.40803e-07 0)
(9.96527e-08 -9.37262e-07 0)
(1.66146e-07 -9.30417e-07 0)
(2.32827e-07 -9.20319e-07 0)
(2.99676e-07 -9.07347e-07 0)
(3.66679e-07 -8.91791e-07 0)
(4.33808e-07 -8.74067e-07 0)
(5.00937e-07 -8.5458e-07 0)
(5.68024e-07 -8.33749e-07 0)
(6.34775e-07 -8.12135e-07 0)
(3.25759e-08 -9.59183e-07 0)
(9.77759e-08 -9.55854e-07 0)
(1.63082e-07 -9.49413e-07 0)
(2.28566e-07 -9.39929e-07 0)
(2.94252e-07 -9.27714e-07 0)
(3.60139e-07 -9.13059e-07 0)
(4.26223e-07 -8.96347e-07 0)
(4.92417e-07 -8.77982e-07 0)
(5.58633e-07 -8.58318e-07 0)
(6.24651e-07 -8.37832e-07 0)
(3.19163e-08 -9.776e-07 0)
(9.58232e-08 -9.74484e-07 0)
(1.59874e-07 -9.68419e-07 0)
(2.24108e-07 -9.59499e-07 0)
(2.88592e-07 -9.48009e-07 0)
(3.53344e-07 -9.34207e-07 0)
(4.18385e-07 -9.18463e-07 0)
(4.83633e-07 -9.0117e-07 0)
(5.48993e-07 -8.82568e-07 0)
(6.14286e-07 -8.63157e-07 0)
(3.12298e-08 -9.95956e-07 0)
(9.37665e-08 -9.93041e-07 0)
(1.5647e-07 -9.8733e-07 0)
(2.19385e-07 -9.78948e-07 0)
(2.82614e-07 -9.68129e-07 0)
(3.46199e-07 -9.55137e-07 0)
(4.10167e-07 -9.40321e-07 0)
(4.74427e-07 -9.24028e-07 0)
(5.38921e-07 -9.06462e-07 0)
(6.03505e-07 -8.88055e-07 0)
(3.04983e-08 -1.01429e-06 0)
(9.1554e-08 -1.01157e-06 0)
(1.52798e-07 -1.0062e-06 0)
(2.14313e-07 -9.98328e-07 0)
(2.7621e-07 -9.88166e-07 0)
(3.38565e-07 -9.75967e-07 0)
(4.01399e-07 -9.62052e-07 0)
(4.64636e-07 -9.46693e-07 0)
(5.28211e-07 -9.30148e-07 0)
(5.92082e-07 -9.12709e-07 0)
(2.97068e-08 -1.03234e-06 0)
(8.9167e-08 -1.02979e-06 0)
(1.48835e-07 -1.02477e-06 0)
(2.08853e-07 -1.01739e-06 0)
(2.69353e-07 -1.00786e-06 0)
(3.30407e-07 -9.96443e-07 0)
(3.92017e-07 -9.83393e-07 0)
(4.54173e-07 -9.68958e-07 0)
(5.168e-07 -9.53405e-07 0)
(5.79973e-07 -9.3693e-07 0)
)


// ************************************************************************* //
