/*--------------------------------*- C++ -*----------------------------------*\
| =========                 |                                                 |
| \\      /  F ield         | foam-extend: Open Source CFD                    |
|  \\    /   O peration     | Version:     4.1                                |
|   \\  /    A nd           | Web:         http://www.foam-extend.org         |
|    \\/     M anipulation  |                                                 |
\*---------------------------------------------------------------------------*/
FoamFile
{
    version     2.0;
    format      ascii;
    class       vectorField;
    location    "2";
    object      solidsCellD_iteration5;
}
// * * * * * * * * * * * * * * * * * * * * * * * * * * * * * * * * * * * * * //


1000
(
(9.05909e-07 -3.05924e-07 0)
(8.64313e-07 -2.89417e-07 0)
(8.39386e-07 -2.80941e-07 0)
(8.26864e-07 -2.79485e-07 0)
(8.23016e-07 -2.82231e-07 0)
(8.25595e-07 -2.88164e-07 0)
(8.32904e-07 -2.96274e-07 0)
(8.43671e-07 -3.06157e-07 0)
(8.57167e-07 -3.17142e-07 0)
(8.70987e-07 -3.29448e-07 0)
(8.20633e-07 -3.34332e-07 0)
(7.76194e-07 -3.24848e-07 0)
(7.4924e-07 -3.20964e-07 0)
(7.35139e-07 -3.22708e-07 0)
(7.29874e-07 -3.27659e-07 0)
(7.30917e-07 -3.35217e-07 0)
(7.36595e-07 -3.44516e-07 0)
(7.45583e-07 -3.55258e-07 0)
(7.57105e-07 -3.66804e-07 0)
(7.69404e-07 -3.79494e-07 0)
(7.3146e-07 -3.61221e-07 0)
(6.85941e-07 -3.59548e-07 0)
(6.58199e-07 -3.6065e-07 0)
(6.43192e-07 -3.65787e-07 0)
(6.36964e-07 -3.72978e-07 0)
(6.36884e-07 -3.82088e-07 0)
(6.41283e-07 -3.92446e-07 0)
(6.4895e-07 -4.0382e-07 0)
(6.59046e-07 -4.15751e-07 0)
(6.70196e-07 -4.28476e-07 0)
(6.39222e-07 -3.86111e-07 0)
(5.94598e-07 -3.92565e-07 0)
(5.67281e-07 -3.9881e-07 0)
(5.52143e-07 -4.0739e-07 0)
(5.45411e-07 -4.16848e-07 0)
(5.44575e-07 -4.27454e-07 0)
(5.47967e-07 -4.38779e-07 0)
(5.54496e-07 -4.50739e-07 0)
(5.63342e-07 -4.63082e-07 0)
(5.73357e-07 -4.75915e-07 0)
(5.44566e-07 -4.08484e-07 0)
(5.02756e-07 -4.22944e-07 0)
(4.77027e-07 -4.34288e-07 0)
(4.62582e-07 -4.46235e-07 0)
(4.55916e-07 -4.57844e-07 0)
(4.54619e-07 -4.6988e-07 0)
(4.57205e-07 -4.82134e-07 0)
(4.62639e-07 -4.9467e-07 0)
(4.70259e-07 -5.07406e-07 0)
(4.79016e-07 -5.2042e-07 0)
(4.47929e-07 -4.27919e-07 0)
(4.10762e-07 -4.49835e-07 0)
(3.87866e-07 -4.65904e-07 0)
(3.74878e-07 -4.80986e-07 0)
(3.68717e-07 -4.94618e-07 0)
(3.67192e-07 -5.07994e-07 0)
(3.69133e-07 -5.21079e-07 0)
(3.73577e-07 -5.34168e-07 0)
(3.79939e-07 -5.47292e-07 0)
(3.87298e-07 -5.60534e-07 0)
(3.49827e-07 -4.43975e-07 0)
(3.18988e-07 -4.72419e-07 0)
(2.99962e-07 -4.92632e-07 0)
(2.89076e-07 -5.10445e-07 0)
(2.838e-07 -5.25829e-07 0)
(2.82354e-07 -5.40375e-07 0)
(2.83777e-07 -5.54202e-07 0)
(2.87237e-07 -5.67799e-07 0)
(2.92258e-07 -5.81288e-07 0)
(2.98094e-07 -5.94774e-07 0)
(2.50629e-07 -4.56329e-07 0)
(2.27502e-07 -4.90012e-07 0)
(2.13235e-07 -5.13546e-07 0)
(2.05072e-07 -5.33521e-07 0)
(2.01041e-07 -5.50327e-07 0)
(1.99862e-07 -5.65804e-07 0)
(2.00817e-07 -5.80248e-07 0)
(2.03288e-07 -5.94255e-07 0)
(2.06917e-07 -6.0803e-07 0)
(2.11132e-07 -6.21715e-07 0)
(1.50687e-07 -4.64713e-07 0)
(1.36389e-07 -5.02047e-07 0)
(1.27563e-07 -5.27893e-07 0)
(1.22448e-07 -5.49425e-07 0)
(1.19888e-07 -5.67222e-07 0)
(1.19137e-07 -5.83343e-07 0)
(1.19721e-07 -5.98225e-07 0)
(1.21202e-07 -6.12554e-07 0)
(1.23367e-07 -6.26575e-07 0)
(1.25907e-07 -6.4044e-07 0)
(5.03384e-08 -4.68941e-07 0)
(4.5469e-08 -5.08145e-07 0)
(4.24521e-08 -5.35201e-07 0)
(4.07381e-08 -5.57516e-07 0)
(3.98916e-08 -5.75803e-07 0)
(3.96077e-08 -5.92255e-07 0)
(3.97691e-08 -6.0735e-07 0)
(4.02668e-08 -6.21821e-07 0)
(4.09975e-08 -6.35945e-07 0)
(4.18381e-08 -6.4988e-07 0)
(1.39553e-06 -1.38991e-08 0)
(1.40651e-06 -1.01833e-08 0)
(1.41517e-06 -7.92552e-09 0)
(1.42538e-06 -6.69943e-09 0)
(1.43732e-06 -6.14212e-09 0)
(1.45171e-06 -6.03137e-09 0)
(1.46852e-06 -6.19792e-09 0)
(1.48766e-06 -6.56953e-09 0)
(1.50911e-06 -7.10808e-09 0)
(1.53261e-06 -7.69568e-09 0)
(1.38567e-06 -4.17133e-08 0)
(1.39487e-06 -3.07883e-08 0)
(1.40245e-06 -2.41809e-08 0)
(1.4119e-06 -2.0628e-08 0)
(1.42334e-06 -1.90001e-08 0)
(1.43734e-06 -1.86717e-08 0)
(1.4539e-06 -1.9237e-08 0)
(1.47285e-06 -2.03981e-08 0)
(1.49411e-06 -2.19732e-08 0)
(1.51745e-06 -2.37128e-08 0)
(1.36584e-06 -6.97631e-08 0)
(1.3717e-06 -5.22759e-08 0)
(1.37718e-06 -4.17156e-08 0)
(1.38526e-06 -3.60409e-08 0)
(1.39577e-06 -3.35096e-08 0)
(1.40915e-06 -3.30827e-08 0)
(1.42521e-06 -3.40606e-08 0)
(1.44374e-06 -3.59899e-08 0)
(1.46463e-06 -3.85992e-08 0)
(1.48765e-06 -4.15055e-08 0)
(1.33642e-06 -9.81784e-08 0)
(1.33757e-06 -7.5123e-08 0)
(1.34001e-06 -6.12801e-08 0)
(1.34614e-06 -5.39021e-08 0)
(1.35531e-06 -5.06645e-08 0)
(1.36771e-06 -5.02278e-08 0)
(1.38307e-06 -5.16663e-08 0)
(1.40109e-06 -5.4401e-08 0)
(1.42149e-06 -5.80609e-08 0)
(1.44411e-06 -6.21128e-08 0)
(1.29775e-06 -1.2706e-07 0)
(1.29312e-06 -9.97774e-08 0)
(1.29183e-06 -8.34689e-08 0)
(1.29547e-06 -7.49105e-08 0)
(1.303e-06 -7.12663e-08 0)
(1.31425e-06 -7.09934e-08 0)
(1.32873e-06 -7.29951e-08 0)
(1.34607e-06 -7.65528e-08 0)
(1.36585e-06 -8.12236e-08 0)
(1.388e-06 -8.63668e-08 0)
(1.25039e-06 -1.56426e-07 0)
(1.23915e-06 -1.26518e-07 0)
(1.23367e-06 -1.08718e-07 0)
(1.23452e-06 -9.96039e-08 0)
(1.2402e-06 -9.59505e-08 0)
(1.25014e-06 -9.60554e-08 0)
(1.26365e-06 -9.86914e-08 0)
(1.28022e-06 -1.03056e-07 0)
(1.29933e-06 -1.08687e-07 0)
(1.32101e-06 -1.14871e-07 0)
(1.19495e-06 -1.86219e-07 0)
(1.17672e-06 -1.55465e-07 0)
(1.16681e-06 -1.3729e-07 0)
(1.16472e-06 -1.28323e-07 0)
(1.16841e-06 -1.25074e-07 0)
(1.17695e-06 -1.25777e-07 0)
(1.18942e-06 -1.29128e-07 0)
(1.20516e-06 -1.34304e-07 0)
(1.22354e-06 -1.40867e-07 0)
(1.2448e-06 -1.48028e-07 0)
(1.13205e-06 -2.16311e-07 0)
(1.10688e-06 -1.86575e-07 0)
(1.09253e-06 -1.69197e-07 0)
(1.08749e-06 -1.61084e-07 0)
(1.08918e-06 -1.58676e-07 0)
(1.09631e-06 -1.60233e-07 0)
(1.10771e-06 -1.64416e-07 0)
(1.12263e-06 -1.70436e-07 0)
(1.14032e-06 -1.77891e-07 0)
(1.16114e-06 -1.85937e-07 0)
(1.06242e-06 -2.46495e-07 0)
(1.03077e-06 -2.19596e-07 0)
(1.01234e-06 -2.0417e-07 0)
(1.00449e-06 -1.97632e-07 0)
(1.00425e-06 -1.96518e-07 0)
(1.00992e-06 -1.99212e-07 0)
(1.02018e-06 -2.04399e-07 0)
(1.03417e-06 -2.11307e-07 0)
(1.05101e-06 -2.19605e-07 0)
(1.07122e-06 -2.2833e-07 0)
(9.86824e-07 -2.76467e-07 0)
(9.49555e-07 -2.5406e-07 0)
(9.27521e-07 -2.41663e-07 0)
(9.17157e-07 -2.37406e-07 0)
(9.15093e-07 -2.38034e-07 0)
(9.19306e-07 -2.42195e-07 0)
(9.28419e-07 -2.48683e-07 0)
(9.41468e-07 -2.56828e-07 0)
(9.57621e-07 -2.66282e-07 0)
(9.76682e-07 -2.76239e-07 0)
(1.55799e-06 -8.23665e-09 0)
(1.58552e-06 -8.51029e-09 0)
(1.61466e-06 -8.75304e-09 0)
(1.64527e-06 -8.95061e-09 0)
(1.6772e-06 -9.10072e-09 0)
(1.71036e-06 -9.20664e-09 0)
(1.74466e-06 -9.27357e-09 0)
(1.77994e-06 -9.31781e-09 0)
(1.81609e-06 -9.3332e-09 0)
(1.85306e-06 -9.29835e-09 0)
(1.89077e-06 -9.20251e-09 0)
(1.92911e-06 -9.05051e-09 0)
(1.968e-06 -8.85153e-09 0)
(2.00737e-06 -8.60803e-09 0)
(2.04715e-06 -8.30965e-09 0)
(2.08725e-06 -7.94153e-09 0)
(2.1276e-06 -7.4908e-09 0)
(2.16807e-06 -6.94556e-09 0)
(2.20864e-06 -6.29796e-09 0)
(2.24897e-06 -5.55364e-09 0)
(1.54347e-06 -2.52959e-08 0)
(1.57216e-06 -2.60464e-08 0)
(1.60235e-06 -2.66949e-08 0)
(1.63389e-06 -2.7218e-08 0)
(1.6667e-06 -2.76122e-08 0)
(1.70064e-06 -2.79005e-08 0)
(1.73562e-06 -2.80877e-08 0)
(1.77153e-06 -2.81832e-08 0)
(1.80829e-06 -2.81605e-08 0)
(1.84582e-06 -2.79969e-08 0)
(1.88404e-06 -2.76914e-08 0)
(1.92286e-06 -2.72506e-08 0)
(1.96222e-06 -2.66701e-08 0)
(2.00204e-06 -2.59334e-08 0)
(2.04223e-06 -2.50133e-08 0)
(2.0827e-06 -2.3888e-08 0)
(2.12341e-06 -2.25304e-08 0)
(2.16421e-06 -2.09114e-08 0)
(2.20513e-06 -1.9001e-08 0)
(2.24583e-06 -1.67914e-08 0)
(1.51488e-06 -4.39507e-08 0)
(1.54588e-06 -4.49144e-08 0)
(1.57819e-06 -4.57273e-08 0)
(1.61157e-06 -4.64056e-08 0)
(1.64602e-06 -4.69211e-08 0)
(1.68147e-06 -4.73019e-08 0)
(1.71787e-06 -4.75318e-08 0)
(1.75508e-06 -4.76066e-08 0)
(1.79301e-06 -4.74835e-08 0)
(1.83161e-06 -4.71507e-08 0)
(1.87085e-06 -4.66136e-08 0)
(1.91064e-06 -4.58678e-08 0)
(1.95092e-06 -4.4885e-08 0)
(1.99158e-06 -4.3629e-08 0)
(2.03258e-06 -4.20654e-08 0)
(2.07384e-06 -4.0166e-08 0)
(2.1153e-06 -3.78892e-08 0)
(2.15683e-06 -3.52003e-08 0)
(2.19844e-06 -3.20516e-08 0)
(2.23981e-06 -2.841e-08 0)
(1.4731e-06 -6.50881e-08 0)
(1.50737e-06 -6.58409e-08 0)
(1.54271e-06 -6.64591e-08 0)
(1.57878e-06 -6.70426e-08 0)
(1.6157e-06 -6.74868e-08 0)
(1.65338e-06 -6.78081e-08 0)
(1.6918e-06 -6.79477e-08 0)
(1.73085e-06 -6.78907e-08 0)
(1.77053e-06 -6.75871e-08 0)
(1.81079e-06 -6.70342e-08 0)
(1.85155e-06 -6.62237e-08 0)
(1.89276e-06 -6.51233e-08 0)
(1.93436e-06 -6.36846e-08 0)
(1.97625e-06 -6.1871e-08 0)
(2.01843e-06 -5.96526e-08 0)
(2.06083e-06 -5.69764e-08 0)
(2.10339e-06 -5.37835e-08 0)
(2.146e-06 -5.00294e-08 0)
(2.18864e-06 -4.56416e-08 0)
(2.231e-06 -4.05895e-08 0)
(1.41923e-06 -8.94702e-08 0)
(1.45768e-06 -8.95077e-08 0)
(1.49695e-06 -8.9505e-08 0)
(1.53646e-06 -8.96778e-08 0)
(1.57653e-06 -8.9773e-08 0)
(1.61705e-06 -8.98011e-08 0)
(1.65811e-06 -8.96707e-08 0)
(1.6996e-06 -8.93543e-08 0)
(1.74153e-06 -8.87794e-08 0)
(1.78388e-06 -8.79231e-08 0)
(1.8266e-06 -8.67553e-08 0)
(1.86963e-06 -8.52269e-08 0)
(1.91293e-06 -8.32816e-08 0)
(1.95647e-06 -8.08794e-08 0)
(2.00022e-06 -7.7981e-08 0)
(2.04408e-06 -7.45121e-08 0)
(2.08808e-06 -7.04019e-08 0)
(2.13201e-06 -6.55928e-08 0)
(2.176e-06 -5.99854e-08 0)
(2.21965e-06 -5.35473e-08 0)
(1.35483e-06 -1.17669e-07 0)
(1.39811e-06 -1.16407e-07 0)
(1.44198e-06 -1.15252e-07 0)
(1.48557e-06 -1.14607e-07 0)
(1.52945e-06 -1.14036e-07 0)
(1.57342e-06 -1.13535e-07 0)
(1.61767e-06 -1.12947e-07 0)
(1.66208e-06 -1.12196e-07 0)
(1.70671e-06 -1.112e-07 0)
(1.75155e-06 -1.09922e-07 0)
(1.7966e-06 -1.08309e-07 0)
(1.84184e-06 -1.06291e-07 0)
(1.88722e-06 -1.03797e-07 0)
(1.93271e-06 -1.00781e-07 0)
(1.97833e-06 -9.71741e-08 0)
(2.02395e-06 -9.28932e-08 0)
(2.06966e-06 -8.78629e-08 0)
(2.11522e-06 -8.20133e-08 0)
(2.16083e-06 -7.52167e-08 0)
(2.20606e-06 -6.74149e-08 0)
(1.28153e-06 -1.50062e-07 0)
(1.3302e-06 -1.46872e-07 0)
(1.37929e-06 -1.44028e-07 0)
(1.42753e-06 -1.42139e-07 0)
(1.47569e-06 -1.40555e-07 0)
(1.52359e-06 -1.39229e-07 0)
(1.57139e-06 -1.37939e-07 0)
(1.6191e-06 -1.36564e-07 0)
(1.66681e-06 -1.35003e-07 0)
(1.71452e-06 -1.33188e-07 0)
(1.76226e-06 -1.31038e-07 0)
(1.81e-06 -1.28455e-07 0)
(1.85774e-06 -1.25351e-07 0)
(1.90546e-06 -1.21669e-07 0)
(1.95319e-06 -1.17322e-07 0)
(2.00084e-06 -1.12219e-07 0)
(2.04852e-06 -1.06278e-07 0)
(2.09601e-06 -9.94003e-08 0)
(2.14347e-06 -9.14198e-08 0)
(2.19051e-06 -8.2257e-08 0)
(1.20098e-06 -1.86759e-07 0)
(1.25541e-06 -1.80947e-07 0)
(1.31011e-06 -1.75883e-07 0)
(1.36345e-06 -1.72258e-07 0)
(1.41631e-06 -1.69267e-07 0)
(1.46855e-06 -1.66784e-07 0)
(1.52033e-06 -1.64527e-07 0)
(1.57172e-06 -1.62329e-07 0)
(1.62282e-06 -1.60052e-07 0)
(1.6737e-06 -1.57578e-07 0)
(1.72438e-06 -1.54791e-07 0)
(1.77485e-06 -1.51567e-07 0)
(1.82514e-06 -1.47808e-07 0)
(1.87531e-06 -1.4344e-07 0)
(1.92537e-06 -1.38355e-07 0)
(1.97529e-06 -1.32454e-07 0)
(2.02515e-06 -1.25623e-07 0)
(2.07474e-06 -1.17731e-07 0)
(2.12426e-06 -1.08571e-07 0)
(2.17331e-06 -9.80488e-08 0)
(1.11469e-06 -2.2776e-07 0)
(1.17536e-06 -2.18651e-07 0)
(1.23602e-06 -2.10961e-07 0)
(1.29484e-06 -2.05129e-07 0)
(1.35274e-06 -2.00395e-07 0)
(1.40959e-06 -1.96441e-07 0)
(1.46561e-06 -1.92955e-07 0)
(1.52092e-06 -1.8971e-07 0)
(1.57564e-06 -1.86521e-07 0)
(1.62984e-06 -1.83223e-07 0)
(1.68361e-06 -1.79666e-07 0)
(1.73698e-06 -1.75706e-07 0)
(1.79001e-06 -1.71234e-07 0)
(1.84281e-06 -1.66151e-07 0)
(1.89535e-06 -1.60321e-07 0)
(1.94767e-06 -1.53625e-07 0)
(1.99986e-06 -1.45908e-07 0)
(2.0517e-06 -1.37006e-07 0)
(2.10341e-06 -1.26674e-07 0)
(2.15465e-06 -1.1481e-07 0)
(1.02443e-06 -2.72933e-07 0)
(1.0925e-06 -2.59232e-07 0)
(1.15951e-06 -2.48512e-07 0)
(1.22424e-06 -2.4004e-07 0)
(1.28736e-06 -2.33174e-07 0)
(1.34898e-06 -2.27424e-07 0)
(1.40935e-06 -2.22445e-07 0)
(1.46863e-06 -2.17949e-07 0)
(1.527e-06 -2.13691e-07 0)
(1.58459e-06 -2.09461e-07 0)
(1.6415e-06 -2.05072e-07 0)
(1.6978e-06 -2.00352e-07 0)
(1.7536e-06 -1.95166e-07 0)
(1.80903e-06 -1.89384e-07 0)
(1.86406e-06 -1.82841e-07 0)
(1.91879e-06 -1.75396e-07 0)
(1.97327e-06 -1.66851e-07 0)
(2.02737e-06 -1.57003e-07 0)
(2.0813e-06 -1.45574e-07 0)
(2.13483e-06 -1.32436e-07 0)
(9.52213e-07 -3.20882e-07 0)
(1.02789e-06 -3.01651e-07 0)
(1.10014e-06 -2.87818e-07 0)
(1.16952e-06 -2.76635e-07 0)
(1.23652e-06 -2.67495e-07 0)
(1.30159e-06 -2.59796e-07 0)
(1.36505e-06 -2.53126e-07 0)
(1.42715e-06 -2.47144e-07 0)
(1.48809e-06 -2.41567e-07 0)
(1.54804e-06 -2.36152e-07 0)
(1.60712e-06 -2.3069e-07 0)
(1.66544e-06 -2.24992e-07 0)
(1.72313e-06 -2.189e-07 0)
(1.7803e-06 -2.12259e-07 0)
(1.83695e-06 -2.04887e-07 0)
(1.89322e-06 -1.96618e-07 0)
(1.94911e-06 -1.87232e-07 0)
(2.00462e-06 -1.76512e-07 0)
(2.0599e-06 -1.64169e-07 0)
(2.11483e-06 -1.50038e-07 0)
(9.13356e-07 -3.62151e-07 0)
(9.89541e-07 -3.41742e-07 0)
(1.06272e-06 -3.2571e-07 0)
(1.13359e-06 -3.12442e-07 0)
(1.20221e-06 -3.01376e-07 0)
(1.26889e-06 -2.91935e-07 0)
(1.3339e-06 -2.83673e-07 0)
(1.39746e-06 -2.76232e-07 0)
(1.45974e-06 -2.69313e-07 0)
(1.52092e-06 -2.62663e-07 0)
(1.58113e-06 -2.56059e-07 0)
(1.64046e-06 -2.49304e-07 0)
(1.69908e-06 -2.42229e-07 0)
(1.75708e-06 -2.34665e-07 0)
(1.81445e-06 -2.26423e-07 0)
(1.87138e-06 -2.17327e-07 0)
(1.92783e-06 -2.07158e-07 0)
(1.98388e-06 -1.95705e-07 0)
(2.03964e-06 -1.82689e-07 0)
(2.09506e-06 -1.67888e-07 0)
(8.82568e-07 -4.0039e-07 0)
(9.57655e-07 -3.79982e-07 0)
(1.03075e-06 -3.62946e-07 0)
(1.10198e-06 -3.48312e-07 0)
(1.17133e-06 -3.3574e-07 0)
(1.2389e-06 -3.24783e-07 0)
(1.30489e-06 -3.15049e-07 0)
(1.36943e-06 -3.0621e-07 0)
(1.43267e-06 -2.97974e-07 0)
(1.49476e-06 -2.9009e-07 0)
(1.55581e-06 -2.82333e-07 0)
(1.61593e-06 -2.74499e-07 0)
(1.67527e-06 -2.66417e-07 0)
(1.73393e-06 -2.57905e-07 0)
(1.79188e-06 -2.48777e-07 0)
(1.84933e-06 -2.38855e-07 0)
(1.90624e-06 -2.27925e-07 0)
(1.96275e-06 -2.15788e-07 0)
(2.01891e-06 -2.02162e-07 0)
(2.07475e-06 -1.86779e-07 0)
(8.56327e-07 -4.36969e-07 0)
(9.30147e-07 -4.16763e-07 0)
(1.00259e-06 -3.99165e-07 0)
(1.0736e-06 -3.83572e-07 0)
(1.14308e-06 -3.69813e-07 0)
(1.21102e-06 -3.57572e-07 0)
(1.27754e-06 -3.4654e-07 0)
(1.34267e-06 -3.36425e-07 0)
(1.40654e-06 -3.26956e-07 0)
(1.46928e-06 -3.17898e-07 0)
(1.53097e-06 -3.09029e-07 0)
(1.59169e-06 -3.00151e-07 0)
(1.6516e-06 -2.91092e-07 0)
(1.71078e-06 -2.81666e-07 0)
(1.76922e-06 -2.71691e-07 0)
(1.82713e-06 -2.6099e-07 0)
(1.88445e-06 -2.49363e-07 0)
(1.94136e-06 -2.36615e-07 0)
(1.99789e-06 -2.22451e-07 0)
(2.05412e-06 -2.06623e-07 0)
(8.33659e-07 -4.71942e-07 0)
(9.06152e-07 -4.52081e-07 0)
(9.7767e-07 -4.34265e-07 0)
(1.04811e-06 -4.18057e-07 0)
(1.11731e-06 -4.03415e-07 0)
(1.18523e-06 -3.9014e-07 0)
(1.25189e-06 -3.78001e-07 0)
(1.3173e-06 -3.66754e-07 0)
(1.38151e-06 -3.5616e-07 0)
(1.44465e-06 -3.46007e-07 0)
(1.50677e-06 -3.36089e-07 0)
(1.56793e-06 -3.26215e-07 0)
(1.62828e-06 -3.16224e-07 0)
(1.68786e-06 -3.05931e-07 0)
(1.7467e-06 -2.95155e-07 0)
(1.805e-06 -2.83727e-07 0)
(1.86268e-06 -2.71457e-07 0)
(1.91995e-06 -2.58152e-07 0)
(1.9768e-06 -2.43518e-07 0)
(2.0334e-06 -2.27401e-07 0)
(8.13732e-07 -5.0553e-07 0)
(8.84905e-07 -4.86077e-07 0)
(9.5541e-07 -4.68214e-07 0)
(1.02506e-06 -4.51624e-07 0)
(1.09373e-06 -4.36336e-07 0)
(1.16136e-06 -4.22244e-07 0)
(1.22789e-06 -4.09183e-07 0)
(1.2933e-06 -3.96956e-07 0)
(1.35764e-06 -3.85363e-07 0)
(1.42098e-06 -3.74222e-07 0)
(1.48335e-06 -3.63341e-07 0)
(1.54478e-06 -3.5255e-07 0)
(1.60544e-06 -3.41696e-07 0)
(1.66534e-06 -3.30598e-07 0)
(1.72449e-06 -3.19083e-07 0)
(1.7831e-06 -3.0699e-07 0)
(1.84108e-06 -2.94134e-07 0)
(1.89865e-06 -2.80329e-07 0)
(1.9558e-06 -2.65325e-07 0)
(2.01274e-06 -2.4906e-07 0)
(7.96036e-07 -5.37888e-07 0)
(8.65911e-07 -5.18855e-07 0)
(9.35363e-07 -5.01053e-07 0)
(1.0041e-06 -4.84251e-07 0)
(1.0721e-06 -4.68516e-07 0)
(1.13923e-06 -4.53796e-07 0)
(1.20545e-06 -4.39984e-07 0)
(1.27067e-06 -4.26929e-07 0)
(1.33494e-06 -4.14468e-07 0)
(1.39831e-06 -4.02452e-07 0)
(1.46078e-06 -3.9071e-07 0)
(1.52236e-06 -3.79086e-07 0)
(1.58322e-06 -3.67444e-07 0)
(1.64332e-06 -3.55607e-07 0)
(1.70271e-06 -3.43412e-07 0)
(1.76155e-06 -3.30706e-07 0)
(1.81977e-06 -3.17318e-07 0)
(1.87759e-06 -3.03084e-07 0)
(1.93502e-06 -2.87826e-07 0)
(1.99224e-06 -2.71473e-07 0)
(7.80175e-07 -5.69126e-07 0)
(8.48815e-07 -5.50512e-07 0)
(9.17182e-07 -5.32848e-07 0)
(9.84969e-07 -5.15955e-07 0)
(1.05219e-06 -4.99923e-07 0)
(1.11871e-06 -4.84727e-07 0)
(1.18446e-06 -4.7031e-07 0)
(1.24936e-06 -4.56564e-07 0)
(1.31341e-06 -4.43359e-07 0)
(1.37666e-06 -4.30581e-07 0)
(1.4391e-06 -4.18077e-07 0)
(1.50071e-06 -4.05712e-07 0)
(1.56166e-06 -3.93357e-07 0)
(1.62187e-06 -3.80846e-07 0)
(1.68142e-06 -3.6803e-07 0)
(1.74042e-06 -3.54767e-07 0)
(1.79884e-06 -3.40914e-07 0)
(1.85687e-06 -3.2634e-07 0)
(1.91454e-06 -3.10916e-07 0)
(1.97199e-06 -2.9448e-07 0)
(7.65789e-07 -5.99356e-07 0)
(8.33259e-07 -5.81153e-07 0)
(9.00549e-07 -5.63677e-07 0)
(9.67385e-07 -5.46776e-07 0)
(1.03377e-06 -5.30549e-07 0)
(1.0996e-06 -5.14993e-07 0)
(1.16479e-06 -5.00091e-07 0)
(1.22925e-06 -4.85772e-07 0)
(1.29298e-06 -4.71937e-07 0)
(1.35601e-06 -4.58506e-07 0)
(1.41831e-06 -4.45341e-07 0)
(1.47986e-06 -4.32326e-07 0)
(1.54079e-06 -4.19336e-07 0)
(1.60104e-06 -4.06221e-07 0)
(1.66067e-06 -3.9285e-07 0)
(1.71978e-06 -3.79103e-07 0)
(1.77835e-06 -3.64868e-07 0)
(1.83657e-06 -3.50039e-07 0)
(1.89441e-06 -3.34477e-07 0)
(1.95207e-06 -3.18011e-07 0)
(7.52578e-07 -6.28682e-07 0)
(8.18927e-07 -6.10889e-07 0)
(8.85181e-07 -5.93618e-07 0)
(9.51069e-07 -5.76751e-07 0)
(1.01661e-06 -5.60394e-07 0)
(1.08171e-06 -5.44565e-07 0)
(1.14629e-06 -5.2928e-07 0)
(1.21025e-06 -5.14499e-07 0)
(1.27359e-06 -5.00146e-07 0)
(1.33631e-06 -4.86168e-07 0)
(1.39838e-06 -4.72441e-07 0)
(1.45979e-06 -4.58864e-07 0)
(1.52064e-06 -4.4532e-07 0)
(1.58085e-06 -4.31677e-07 0)
(1.6405e-06 -4.17827e-07 0)
(1.69968e-06 -4.03677e-07 0)
(1.75836e-06 -3.89139e-07 0)
(1.81671e-06 -3.74108e-07 0)
(1.8747e-06 -3.58413e-07 0)
(1.93251e-06 -3.42029e-07 0)
(7.4029e-07 -6.57211e-07 0)
(8.05569e-07 -6.39813e-07 0)
(8.70821e-07 -6.2274e-07 0)
(9.3578e-07 -6.05928e-07 0)
(1.00049e-06 -5.89494e-07 0)
(1.06485e-06 -5.73471e-07 0)
(1.1288e-06 -5.57898e-07 0)
(1.19222e-06 -5.42756e-07 0)
(1.25512e-06 -5.2799e-07 0)
(1.31749e-06 -5.13556e-07 0)
(1.37928e-06 -4.9935e-07 0)
(1.44048e-06 -4.85286e-07 0)
(1.50118e-06 -4.71259e-07 0)
(1.56131e-06 -4.5716e-07 0)
(1.62094e-06 -4.42907e-07 0)
(1.68015e-06 -4.28428e-07 0)
(1.7389e-06 -4.13638e-07 0)
(1.79734e-06 -3.98422e-07 0)
(1.85543e-06 -3.82651e-07 0)
(1.91338e-06 -3.66395e-07 0)
(7.28707e-07 -6.85032e-07 0)
(7.92966e-07 -6.67983e-07 0)
(8.57247e-07 -6.51102e-07 0)
(9.21318e-07 -6.34368e-07 0)
(9.85217e-07 -6.17906e-07 0)
(1.04886e-06 -6.01758e-07 0)
(1.11217e-06 -5.85976e-07 0)
(1.17504e-06 -5.7055e-07 0)
(1.23747e-06 -5.55452e-07 0)
(1.29946e-06 -5.40631e-07 0)
(1.36093e-06 -5.26011e-07 0)
(1.42188e-06 -5.11523e-07 0)
(1.48241e-06 -4.97082e-07 0)
(1.54242e-06 -4.82605e-07 0)
(1.602e-06 -4.68027e-07 0)
(1.66121e-06 -4.53281e-07 0)
(1.71998e-06 -4.38275e-07 0)
(1.77847e-06 -4.22902e-07 0)
(1.83665e-06 -4.07158e-07 0)
(1.89469e-06 -3.90996e-07 0)
(7.17644e-07 -7.12198e-07 0)
(7.80931e-07 -6.9545e-07 0)
(8.44291e-07 -6.78768e-07 0)
(9.07519e-07 -6.62135e-07 0)
(9.70638e-07 -6.45683e-07 0)
(1.03357e-06 -6.29455e-07 0)
(1.09626e-06 -6.13518e-07 0)
(1.15859e-06 -5.97861e-07 0)
(1.22054e-06 -5.82497e-07 0)
(1.28213e-06 -5.6736e-07 0)
(1.34327e-06 -5.52402e-07 0)
(1.40396e-06 -5.37572e-07 0)
(1.46429e-06 -5.228e-07 0)
(1.52417e-06 -5.08023e-07 0)
(1.58367e-06 -4.93183e-07 0)
(1.64285e-06 -4.78208e-07 0)
(1.7016e-06 -4.63015e-07 0)
(1.76012e-06 -4.47554e-07 0)
(1.81834e-06 -4.31871e-07 0)
(1.87646e-06 -4.15823e-07 0)
(7.06937e-07 -7.3875e-07 0)
(7.69308e-07 -7.223e-07 0)
(8.31802e-07 -7.05811e-07 0)
(8.94221e-07 -6.89289e-07 0)
(9.56588e-07 -6.72862e-07 0)
(1.01885e-06 -6.5659e-07 0)
(1.08093e-06 -6.40552e-07 0)
(1.14273e-06 -6.24734e-07 0)
(1.20423e-06 -6.09165e-07 0)
(1.26542e-06 -5.93782e-07 0)
(1.32622e-06 -5.78549e-07 0)
(1.38664e-06 -5.63436e-07 0)
(1.44678e-06 -5.48394e-07 0)
(1.50653e-06 -5.33368e-07 0)
(1.56593e-06 -5.18301e-07 0)
(1.62502e-06 -5.03124e-07 0)
(1.68374e-06 -4.87792e-07 0)
(1.74228e-06 -4.7232e-07 0)
(1.80054e-06 -4.56647e-07 0)
(1.8587e-06 -4.40768e-07 0)
(6.9642e-07 -7.6478e-07 0)
(7.57937e-07 -7.48615e-07 0)
(8.19608e-07 -7.32297e-07 0)
(8.81255e-07 -7.15882e-07 0)
(9.42915e-07 -6.99503e-07 0)
(1.00454e-06 -6.83235e-07 0)
(1.06606e-06 -6.67136e-07 0)
(1.12736e-06 -6.51204e-07 0)
(1.18841e-06 -6.3545e-07 0)
(1.24922e-06 -6.1986e-07 0)
(1.30971e-06 -6.0442e-07 0)
(1.36989e-06 -5.89101e-07 0)
(1.42984e-06 -5.73852e-07 0)
(1.48944e-06 -5.58623e-07 0)
(1.54871e-06 -5.43362e-07 0)
(1.60772e-06 -5.2803e-07 0)
(1.66642e-06 -5.12623e-07 0)
(1.72495e-06 -4.97153e-07 0)
(1.78324e-06 -4.81493e-07 0)
(1.8414e-06 -4.65753e-07 0)
(6.85933e-07 -7.90378e-07 0)
(7.46637e-07 -7.74441e-07 0)
(8.07522e-07 -7.5826e-07 0)
(8.68462e-07 -7.41966e-07 0)
(9.29483e-07 -7.25663e-07 0)
(9.90535e-07 -7.09422e-07 0)
(1.05153e-06 -6.93274e-07 0)
(1.11234e-06 -6.77266e-07 0)
(1.17298e-06 -6.61394e-07 0)
(1.23344e-06 -6.4566e-07 0)
(1.29367e-06 -6.30065e-07 0)
(1.35364e-06 -6.1458e-07 0)
(1.41339e-06 -5.99156e-07 0)
(1.47282e-06 -5.83752e-07 0)
(1.53196e-06 -5.68339e-07 0)
(1.59092e-06 -5.52913e-07 0)
(1.6496e-06 -5.37475e-07 0)
(1.70812e-06 -5.2194e-07 0)
(1.76637e-06 -5.06345e-07 0)
(1.82451e-06 -4.90732e-07 0)
(6.75296e-07 -8.15548e-07 0)
(7.35209e-07 -7.99783e-07 0)
(7.95361e-07 -7.83782e-07 0)
(8.55695e-07 -7.67635e-07 0)
(9.16142e-07 -7.51405e-07 0)
(9.76673e-07 -7.35183e-07 0)
(1.03718e-06 -7.19026e-07 0)
(1.09757e-06 -7.02967e-07 0)
(1.15785e-06 -6.87021e-07 0)
(1.21804e-06 -6.71199e-07 0)
(1.27803e-06 -6.55492e-07 0)
(1.33778e-06 -6.39868e-07 0)
(1.39734e-06 -6.24294e-07 0)
(1.45662e-06 -6.08762e-07 0)
(1.5157e-06 -5.93264e-07 0)
(1.57463e-06 -5.77772e-07 0)
(1.63325e-06 -5.62255e-07 0)
(1.69166e-06 -5.46665e-07 0)
(1.74988e-06 -5.31163e-07 0)
(1.80815e-06 -5.15678e-07 0)
(6.64268e-07 -8.40267e-07 0)
(7.23514e-07 -8.24736e-07 0)
(7.83075e-07 -8.08923e-07 0)
(8.42832e-07 -7.92887e-07 0)
(9.02762e-07 -7.76763e-07 0)
(9.62812e-07 -7.60582e-07 0)
(1.0229e-06 -7.44432e-07 0)
(1.08296e-06 -7.28362e-07 0)
(1.14298e-06 -7.12389e-07 0)
(1.20294e-06 -6.965e-07 0)
(1.26269e-06 -6.80691e-07 0)
(1.32222e-06 -6.64966e-07 0)
(1.38165e-06 -6.49313e-07 0)
(1.44089e-06 -6.33697e-07 0)
(1.4999e-06 -6.18102e-07 0)
(1.55867e-06 -6.02535e-07 0)
(1.61718e-06 -5.86943e-07 0)
(1.67569e-06 -5.71383e-07 0)
(1.73391e-06 -5.55911e-07 0)
(1.792e-06 -5.40534e-07 0)
(6.52686e-07 -8.64787e-07 0)
(7.11334e-07 -8.49454e-07 0)
(7.70363e-07 -8.33765e-07 0)
(8.29639e-07 -8.17853e-07 0)
(8.89118e-07 -8.01797e-07 0)
(9.48786e-07 -7.85695e-07 0)
(1.0086e-06 -7.69596e-07 0)
(1.06845e-06 -7.53528e-07 0)
(1.12824e-06 -7.37514e-07 0)
(1.18794e-06 -7.21571e-07 0)
(1.24753e-06 -7.05717e-07 0)
(1.30702e-06 -6.89933e-07 0)
(1.36639e-06 -6.74194e-07 0)
(1.42545e-06 -6.58504e-07 0)
(1.48434e-06 -6.42837e-07 0)
(1.54315e-06 -6.27184e-07 0)
(1.60166e-06 -6.11543e-07 0)
(1.66006e-06 -5.9599e-07 0)
(1.71831e-06 -5.80514e-07 0)
(1.77638e-06 -5.65226e-07 0)
(6.40399e-07 -8.88905e-07 0)
(6.98527e-07 -8.73809e-07 0)
(7.57085e-07 -8.58303e-07 0)
(8.15944e-07 -8.42519e-07 0)
(8.75133e-07 -8.26591e-07 0)
(9.34619e-07 -8.1058e-07 0)
(9.94246e-07 -7.94526e-07 0)
(1.05385e-06 -7.78474e-07 0)
(1.11347e-06 -7.6246e-07 0)
(1.17315e-06 -7.46497e-07 0)
(1.2327e-06 -7.3061e-07 0)
(1.29203e-06 -7.14783e-07 0)
(1.3513e-06 -6.98969e-07 0)
(1.41038e-06 -6.83203e-07 0)
(1.46921e-06 -6.6749e-07 0)
(1.52795e-06 -6.51768e-07 0)
(1.58648e-06 -6.36117e-07 0)
(1.64486e-06 -6.20478e-07 0)
(1.70315e-06 -6.04976e-07 0)
(1.76112e-06 -5.89681e-07 0)
(4.19973e-08 -6.63907e-07 0)
(1.26334e-07 -6.5495e-07 0)
(2.11622e-07 -6.37119e-07 0)
(2.98365e-07 -6.1148e-07 0)
(3.86944e-07 -5.78784e-07 0)
(4.77592e-07 -5.40407e-07 0)
(5.70345e-07 -4.97697e-07 0)
(6.65041e-07 -4.52026e-07 0)
(7.61791e-07 -4.04728e-07 0)
(8.59407e-07 -3.56703e-07 0)
(4.12752e-08 -6.78682e-07 0)
(1.24093e-07 -6.70561e-07 0)
(2.07628e-07 -6.54298e-07 0)
(2.92262e-07 -6.30904e-07 0)
(3.78263e-07 -6.00964e-07 0)
(4.65785e-07 -5.65643e-07 0)
(5.54802e-07 -5.2611e-07 0)
(6.45071e-07 -4.83558e-07 0)
(7.36394e-07 -4.39242e-07 0)
(8.27531e-07 -3.9458e-07 0)
(4.05348e-08 -6.94001e-07 0)
(1.21804e-07 -6.86628e-07 0)
(2.03571e-07 -6.71775e-07 0)
(2.86121e-07 -6.504e-07 0)
(3.69649e-07 -6.22988e-07 0)
(4.54231e-07 -5.90512e-07 0)
(5.39826e-07 -5.54011e-07 0)
(6.26307e-07 -5.14494e-07 0)
(7.13441e-07 -4.73112e-07 0)
(8.00394e-07 -4.31161e-07 0)
(3.98202e-08 -7.09742e-07 0)
(1.19638e-07 -7.02983e-07 0)
(1.99816e-07 -6.89309e-07 0)
(2.80546e-07 -6.69622e-07 0)
(3.61991e-07 -6.44335e-07 0)
(4.44143e-07 -6.14274e-07 0)
(5.2696e-07 -5.80423e-07 0)
(6.10298e-07 -5.43685e-07 0)
(6.93877e-07 -5.05182e-07 0)
(7.77093e-07 -4.66061e-07 0)
(3.91566e-08 -7.25861e-07 0)
(1.17555e-07 -7.19651e-07 0)
(1.96246e-07 -7.07032e-07 0)
(2.75303e-07 -6.88844e-07 0)
(3.54863e-07 -6.65478e-07 0)
(4.34882e-07 -6.37639e-07 0)
(5.15303e-07 -6.06243e-07 0)
(5.96018e-07 -5.72084e-07 0)
(6.76721e-07 -5.36202e-07 0)
(7.5685e-07 -4.99631e-07 0)
(3.8534e-08 -7.42325e-07 0)
(1.15592e-07 -7.36572e-07 0)
(1.92887e-07 -7.24902e-07 0)
(2.70418e-07 -7.08023e-07 0)
(3.48287e-07 -6.86351e-07 0)
(4.26468e-07 -6.60495e-07 0)
(5.04823e-07 -6.31305e-07 0)
(5.83268e-07 -5.99517e-07 0)
(6.61529e-07 -5.66072e-07 0)
(7.39023e-07 -5.31931e-07 0)
(3.79016e-08 -7.59106e-07 0)
(1.13707e-07 -7.53747e-07 0)
(1.89669e-07 -7.42949e-07 0)
(2.65784e-07 -7.2723e-07 0)
(3.42114e-07 -7.07084e-07 0)
(4.1864e-07 -6.83034e-07 0)
(4.9522e-07 -6.55854e-07 0)
(5.71716e-07 -6.26229e-07 0)
(6.47911e-07 -5.94991e-07 0)
(7.2319e-07 -5.63065e-07 0)
(3.72939e-08 -7.76157e-07 0)
(1.11893e-07 -7.71152e-07 0)
(1.86575e-07 -7.6113e-07 0)
(2.61365e-07 -7.46454e-07 0)
(3.36306e-07 -7.27682e-07 0)
(4.11335e-07 -7.05272e-07 0)
(4.86332e-07 -6.79923e-07 0)
(5.61129e-07 -6.52264e-07 0)
(6.35551e-07 -6.23039e-07 0)
(7.0898e-07 -5.93138e-07 0)
(3.67361e-08 -7.93462e-07 0)
(1.10138e-07 -7.88771e-07 0)
(1.83588e-07 -7.79443e-07 0)
(2.57129e-07 -7.65732e-07 0)
(3.30764e-07 -7.48215e-07 0)
(4.04444e-07 -7.27295e-07 0)
(4.78023e-07 -7.03608e-07 0)
(5.51316e-07 -6.77728e-07 0)
(6.24198e-07 -6.50337e-07 0)
(6.96071e-07 -6.22289e-07 0)
(3.61839e-08 -8.11006e-07 0)
(1.08408e-07 -8.06573e-07 0)
(1.8068e-07 -7.97872e-07 0)
(2.53044e-07 -7.85058e-07 0)
(3.25441e-07 -7.68687e-07 0)
(3.97876e-07 -7.49119e-07 0)
(4.70166e-07 -7.26945e-07 0)
(5.42116e-07 -7.02695e-07 0)
(6.13639e-07 -6.76992e-07 0)
(6.84182e-07 -6.50637e-07 0)
(3.56038e-08 -8.28742e-07 0)
(1.06697e-07 -8.2453e-07 0)
(1.77836e-07 -8.16412e-07 0)
(2.49064e-07 -8.04432e-07 0)
(3.20285e-07 -7.89112e-07 0)
(3.91536e-07 -7.7078e-07 0)
(4.62637e-07 -7.49989e-07 0)
(5.33377e-07 -7.27245e-07 0)
(6.0369e-07 -7.03086e-07 0)
(6.73076e-07 -6.78265e-07 0)
(3.50191e-08 -8.46618e-07 0)
(1.05027e-07 -8.42629e-07 0)
(1.75054e-07 -8.35053e-07 0)
(2.45153e-07 -8.23843e-07 0)
(3.15245e-07 -8.09485e-07 0)
(3.85356e-07 -7.92291e-07 0)
(4.55336e-07 -7.72775e-07 0)
(5.24969e-07 -7.51415e-07 0)
(5.94187e-07 -7.28656e-07 0)
(6.62564e-07 -7.05224e-07 0)
(3.44581e-08 -8.64617e-07 0)
(1.03386e-07 -8.60866e-07 0)
(1.72302e-07 -8.53782e-07 0)
(2.4127e-07 -8.43279e-07 0)
(3.10262e-07 -8.29803e-07 0)
(3.79266e-07 -8.13661e-07 0)
(4.48174e-07 -7.95325e-07 0)
(5.1677e-07 -7.7522e-07 0)
(5.84993e-07 -7.5374e-07 0)
(6.52491e-07 -7.31593e-07 0)
(3.39108e-08 -8.82732e-07 0)
(1.01726e-07 -8.79215e-07 0)
(1.69522e-07 -8.72566e-07 0)
(2.37362e-07 -8.62713e-07 0)
(3.05266e-07 -8.50055e-07 0)
(3.73191e-07 -8.34889e-07 0)
(4.41058e-07 -8.17645e-07 0)
(5.08668e-07 -7.98689e-07 0)
(5.75979e-07 -7.78415e-07 0)
(6.42688e-07 -7.57461e-07 0)
(3.33433e-08 -9.0095e-07 0)
(9.99969e-08 -8.9765e-07 0)
(1.6666e-07 -8.91386e-07 0)
(2.33375e-07 -8.8214e-07 0)
(3.00181e-07 -8.70251e-07 0)
(3.67035e-07 -8.56003e-07 0)
(4.33877e-07 -8.3975e-07 0)
(5.00551e-07 -8.21852e-07 0)
(5.67011e-07 -8.02723e-07 0)
(6.32994e-07 -7.82851e-07 0)
(3.27372e-08 -9.19212e-07 0)
(9.81843e-08 -9.16119e-07 0)
(1.63688e-07 -9.10218e-07 0)
(2.29254e-07 -9.01542e-07 0)
(2.94935e-07 -8.90352e-07 0)
(3.6071e-07 -8.76935e-07 0)
(4.26545e-07 -8.61606e-07 0)
(4.92325e-07 -8.44735e-07 0)
(5.57968e-07 -8.26673e-07 0)
(6.23272e-07 -8.07815e-07 0)
(3.20974e-08 -9.375e-07 0)
(9.62904e-08 -9.34621e-07 0)
(1.60578e-07 -9.29053e-07 0)
(2.24947e-07 -9.20892e-07 0)
(2.89468e-07 -9.10374e-07 0)
(3.54148e-07 -8.97747e-07 0)
(4.18981e-07 -8.83304e-07 0)
(4.83862e-07 -8.67423e-07 0)
(5.48701e-07 -8.50315e-07 0)
(6.13335e-07 -8.32434e-07 0)
(3.14295e-08 -9.55722e-07 0)
(9.43029e-08 -9.53039e-07 0)
(1.57293e-07 -9.47789e-07 0)
(2.20403e-07 -9.40123e-07 0)
(2.83719e-07 -9.3022e-07 0)
(3.47277e-07 -9.18336e-07 0)
(4.11082e-07 -9.04753e-07 0)
(4.75029e-07 -8.89791e-07 0)
(5.39041e-07 -8.73615e-07 0)
(6.03016e-07 -8.5664e-07 0)
(3.07249e-08 -9.73918e-07 0)
(9.21854e-08 -9.71422e-07 0)
(1.53777e-07 -9.66487e-07 0)
(2.15545e-07 -9.59278e-07 0)
(2.77585e-07 -9.49978e-07 0)
(3.39966e-07 -9.38824e-07 0)
(4.02687e-07 -9.26078e-07 0)
(4.65652e-07 -9.11961e-07 0)
(5.28786e-07 -8.96724e-07 0)
(5.92089e-07 -8.80617e-07 0)
(2.99726e-08 -9.91837e-07 0)
(8.99192e-08 -9.8949e-07 0)
(1.50003e-07 -9.84865e-07 0)
(2.10343e-07 -9.7811e-07 0)
(2.71053e-07 -9.69399e-07 0)
(3.32188e-07 -9.58959e-07 0)
(3.93729e-07 -9.47008e-07 0)
(4.55627e-07 -9.33728e-07 0)
(5.17848e-07 -9.19406e-07 0)
(5.80484e-07 -9.04175e-07 0)
)


// ************************************************************************* //
