/*--------------------------------*- C++ -*----------------------------------*\
| =========                 |                                                 |
| \\      /  F ield         | foam-extend: Open Source CFD                    |
|  \\    /   O peration     | Version:     4.1                                |
|   \\  /    A nd           | Web:         http://www.foam-extend.org         |
|    \\/     M anipulation  |                                                 |
\*---------------------------------------------------------------------------*/
FoamFile
{
    version     2.0;
    format      ascii;
    class       vectorField;
    location    "2";
    object      solidsCellD_iteration19;
}
// * * * * * * * * * * * * * * * * * * * * * * * * * * * * * * * * * * * * * //


1000
(
(1.00731e-06 -4.06236e-07 0)
(9.52063e-07 -3.78821e-07 0)
(9.17055e-07 -3.61767e-07 0)
(8.97213e-07 -3.54344e-07 0)
(8.87965e-07 -3.52499e-07 0)
(8.86385e-07 -3.54916e-07 0)
(8.90538e-07 -3.60153e-07 0)
(8.98859e-07 -3.67498e-07 0)
(9.10541e-07 -3.76269e-07 0)
(9.24443e-07 -3.85918e-07 0)
(9.10964e-07 -4.43879e-07 0)
(8.52207e-07 -4.25255e-07 0)
(8.14941e-07 -4.13781e-07 0)
(7.93391e-07 -4.10137e-07 0)
(7.82778e-07 -4.10808e-07 0)
(7.79966e-07 -4.14995e-07 0)
(7.82897e-07 -4.2146e-07 0)
(7.89977e-07 -4.29748e-07 0)
(8.00346e-07 -4.39194e-07 0)
(8.12708e-07 -4.4948e-07 0)
(8.10849e-07 -4.79558e-07 0)
(7.50846e-07 -4.70756e-07 0)
(7.12773e-07 -4.65523e-07 0)
(6.90474e-07 -4.66047e-07 0)
(6.79101e-07 -4.69458e-07 0)
(6.75446e-07 -4.75519e-07 0)
(6.7742e-07 -4.83276e-07 0)
(6.83448e-07 -4.92479e-07 0)
(6.92636e-07 -5.02601e-07 0)
(7.03816e-07 -5.13333e-07 0)
(7.0765e-07 -5.12614e-07 0)
(6.48934e-07 -5.14083e-07 0)
(6.11656e-07 -5.15397e-07 0)
(5.89617e-07 -5.20258e-07 0)
(5.78121e-07 -5.26491e-07 0)
(5.7399e-07 -5.34457e-07 0)
(5.75193e-07 -5.43497e-07 0)
(5.80274e-07 -5.53594e-07 0)
(5.88324e-07 -5.6437e-07 0)
(5.98264e-07 -5.75612e-07 0)
(6.0213e-07 -5.42389e-07 0)
(5.47147e-07 -5.54039e-07 0)
(5.12255e-07 -5.61818e-07 0)
(4.91513e-07 -5.70953e-07 0)
(4.8051e-07 -5.79964e-07 0)
(4.76261e-07 -5.89812e-07 0)
(4.76912e-07 -6.00118e-07 0)
(4.81126e-07 -6.11088e-07 0)
(4.88044e-07 -6.22518e-07 0)
(4.96647e-07 -6.34271e-07 0)
(4.94737e-07 -5.68322e-07 0)
(4.45959e-07 -5.89489e-07 0)
(4.15004e-07 -6.03321e-07 0)
(3.96498e-07 -6.16454e-07 0)
(3.86561e-07 -6.28059e-07 0)
(3.82546e-07 -6.39645e-07 0)
(3.82834e-07 -6.51121e-07 0)
(3.86226e-07 -6.62896e-07 0)
(3.91959e-07 -6.74949e-07 0)
(3.9912e-07 -6.87225e-07 0)
(3.86054e-07 -5.89785e-07 0)
(3.45617e-07 -6.19282e-07 0)
(3.1994e-07 -6.38433e-07 0)
(3.04538e-07 -6.55086e-07 0)
(2.96211e-07 -6.68956e-07 0)
(2.92753e-07 -6.8206e-07 0)
(2.92823e-07 -6.94559e-07 0)
(2.95415e-07 -7.0705e-07 0)
(2.99912e-07 -7.19649e-07 0)
(3.05546e-07 -7.32392e-07 0)
(2.76395e-07 -6.06346e-07 0)
(2.46116e-07 -6.42544e-07 0)
(2.2689e-07 -6.65949e-07 0)
(2.15343e-07 -6.85403e-07 0)
(2.09075e-07 -7.01096e-07 0)
(2.06415e-07 -7.15435e-07 0)
(2.06365e-07 -7.28777e-07 0)
(2.08181e-07 -7.41851e-07 0)
(2.11415e-07 -7.54895e-07 0)
(2.15475e-07 -7.68034e-07 0)
(1.6611e-07 -6.17607e-07 0)
(1.47363e-07 -6.58468e-07 0)
(1.35481e-07 -6.84843e-07 0)
(1.28318e-07 -7.0628e-07 0)
(1.24396e-07 -7.23249e-07 0)
(1.22705e-07 -7.3844e-07 0)
(1.22644e-07 -7.52378e-07 0)
(1.23737e-07 -7.65886e-07 0)
(1.25686e-07 -7.7925e-07 0)
(1.2813e-07 -7.92676e-07 0)
(5.54779e-08 -6.23282e-07 0)
(4.91357e-08 -6.66569e-07 0)
(4.50797e-08 -6.94464e-07 0)
(4.26371e-08 -7.16909e-07 0)
(4.13201e-08 -7.34538e-07 0)
(4.07446e-08 -7.50181e-07 0)
(4.06941e-08 -7.64403e-07 0)
(4.10452e-08 -7.78116e-07 0)
(4.17025e-08 -7.91651e-07 0)
(4.25162e-08 -8.05236e-07 0)
(1.56898e-06 -1.84745e-08 0)
(1.58243e-06 -1.32891e-08 0)
(1.59104e-06 -1.00225e-08 0)
(1.60039e-06 -8.12471e-09 0)
(1.6109e-06 -7.08809e-09 0)
(1.62376e-06 -6.64734e-09 0)
(1.63904e-06 -6.63674e-09 0)
(1.65683e-06 -6.86827e-09 0)
(1.67709e-06 -7.28349e-09 0)
(1.69956e-06 -7.80837e-09 0)
(1.55744e-06 -5.54652e-08 0)
(1.5686e-06 -4.02079e-08 0)
(1.57578e-06 -3.05696e-08 0)
(1.58418e-06 -2.50182e-08 0)
(1.59403e-06 -2.20801e-08 0)
(1.60644e-06 -2.0819e-08 0)
(1.62138e-06 -2.07468e-08 0)
(1.63891e-06 -2.14847e-08 0)
(1.65893e-06 -2.27869e-08 0)
(1.68117e-06 -2.43295e-08 0)
(1.53439e-06 -9.2745e-08 0)
(1.5412e-06 -6.82769e-08 0)
(1.5456e-06 -5.28528e-08 0)
(1.55218e-06 -4.3926e-08 0)
(1.56082e-06 -3.92038e-08 0)
(1.57237e-06 -3.72755e-08 0)
(1.58666e-06 -3.72592e-08 0)
(1.6037e-06 -3.8501e-08 0)
(1.62325e-06 -4.06578e-08 0)
(1.64505e-06 -4.32254e-08 0)
(1.50022e-06 -1.30535e-07 0)
(1.50084e-06 -9.81648e-08 0)
(1.50128e-06 -7.78133e-08 0)
(1.50526e-06 -6.60996e-08 0)
(1.51218e-06 -5.9929e-08 0)
(1.52253e-06 -5.74631e-08 0)
(1.53591e-06 -5.75508e-08 0)
(1.55222e-06 -5.93229e-08 0)
(1.57112e-06 -6.23027e-08 0)
(1.59229e-06 -6.58749e-08 0)
(1.45545e-06 -1.68914e-07 0)
(1.44843e-06 -1.3041e-07 0)
(1.44399e-06 -1.0624e-07 0)
(1.44474e-06 -9.24403e-08 0)
(1.44951e-06 -8.52562e-08 0)
(1.45836e-06 -8.25094e-08 0)
(1.47062e-06 -8.28107e-08 0)
(1.48604e-06 -8.51535e-08 0)
(1.50413e-06 -8.89381e-08 0)
(1.52454e-06 -9.34742e-08 0)
(1.40072e-06 -2.07944e-07 0)
(1.38505e-06 -1.6543e-07 0)
(1.37511e-06 -1.38758e-07 0)
(1.37222e-06 -1.23705e-07 0)
(1.37457e-06 -1.16008e-07 0)
(1.38169e-06 -1.1327e-07 0)
(1.39268e-06 -1.13927e-07 0)
(1.40708e-06 -1.16882e-07 0)
(1.42426e-06 -1.21455e-07 0)
(1.4438e-06 -1.26897e-07 0)
(1.33683e-06 -2.47527e-07 0)
(1.312e-06 -2.03373e-07 0)
(1.29626e-06 -1.75669e-07 0)
(1.28952e-06 -1.60267e-07 0)
(1.28929e-06 -1.526e-07 0)
(1.29459e-06 -1.50197e-07 0)
(1.30421e-06 -1.51373e-07 0)
(1.31752e-06 -1.54964e-07 0)
(1.33373e-06 -1.60284e-07 0)
(1.35236e-06 -1.66543e-07 0)
(1.26463e-06 -2.8747e-07 0)
(1.23073e-06 -2.4413e-07 0)
(1.20925e-06 -2.16942e-07 0)
(1.19868e-06 -2.02176e-07 0)
(1.19589e-06 -1.95126e-07 0)
(1.19935e-06 -1.93415e-07 0)
(1.20759e-06 -1.95305e-07 0)
(1.21975e-06 -1.99613e-07 0)
(1.23495e-06 -2.05664e-07 0)
(1.25259e-06 -2.12674e-07 0)
(1.18502e-06 -3.27512e-07 0)
(1.14268e-06 -2.8736e-07 0)
(1.11585e-06 -2.62225e-07 0)
(1.10167e-06 -2.49051e-07 0)
(1.09643e-06 -2.43194e-07 0)
(1.09806e-06 -2.42509e-07 0)
(1.1049e-06 -2.45294e-07 0)
(1.11587e-06 -2.50389e-07 0)
(1.13005e-06 -2.57207e-07 0)
(1.14673e-06 -2.64786e-07 0)
(1.09895e-06 -3.6727e-07 0)
(1.04936e-06 -3.3251e-07 0)
(1.01792e-06 -3.10813e-07 0)
(1.00061e-06 -3.00131e-07 0)
(9.93205e-07 -2.96034e-07 0)
(9.93198e-07 -2.96724e-07 0)
(9.98798e-07 -3.00626e-07 0)
(1.00859e-06 -3.0674e-07 0)
(1.02183e-06 -3.14397e-07 0)
(1.03732e-06 -3.23052e-07 0)
(1.72429e-06 -8.31578e-09 0)
(1.75121e-06 -8.4699e-09 0)
(1.77981e-06 -8.62057e-09 0)
(1.81001e-06 -8.74302e-09 0)
(1.84162e-06 -8.83399e-09 0)
(1.8745e-06 -8.88594e-09 0)
(1.90853e-06 -8.87092e-09 0)
(1.94359e-06 -8.80271e-09 0)
(1.97959e-06 -8.69844e-09 0)
(2.01641e-06 -8.54709e-09 0)
(2.05395e-06 -8.33397e-09 0)
(2.09212e-06 -8.05208e-09 0)
(2.13081e-06 -7.69449e-09 0)
(2.16992e-06 -7.25844e-09 0)
(2.20935e-06 -6.74109e-09 0)
(2.24898e-06 -6.13297e-09 0)
(2.28871e-06 -5.41753e-09 0)
(2.32836e-06 -4.57238e-09 0)
(2.3679e-06 -3.57763e-09 0)
(2.40684e-06 -2.42803e-09 0)
(1.7067e-06 -2.57318e-08 0)
(1.73508e-06 -2.60755e-08 0)
(1.765e-06 -2.64468e-08 0)
(1.79634e-06 -2.67446e-08 0)
(1.82895e-06 -2.69167e-08 0)
(1.86273e-06 -2.69816e-08 0)
(1.89758e-06 -2.69148e-08 0)
(1.93339e-06 -2.67232e-08 0)
(1.97007e-06 -2.6396e-08 0)
(2.00752e-06 -2.58998e-08 0)
(2.04563e-06 -2.52176e-08 0)
(2.08433e-06 -2.43481e-08 0)
(2.12352e-06 -2.32738e-08 0)
(2.16311e-06 -2.19724e-08 0)
(2.20299e-06 -2.04183e-08 0)
(2.24305e-06 -1.85808e-08 0)
(2.28319e-06 -1.64159e-08 0)
(2.32323e-06 -1.38713e-08 0)
(2.36316e-06 -1.08811e-08 0)
(2.40248e-06 -7.43031e-09 0)
(1.67213e-06 -4.53018e-08 0)
(1.70339e-06 -4.55232e-08 0)
(1.73587e-06 -4.58198e-08 0)
(1.76943e-06 -4.60682e-08 0)
(1.80405e-06 -4.61632e-08 0)
(1.83961e-06 -4.61272e-08 0)
(1.87605e-06 -4.58951e-08 0)
(1.9133e-06 -4.54629e-08 0)
(1.9513e-06 -4.48115e-08 0)
(1.98995e-06 -4.39042e-08 0)
(2.02918e-06 -4.27193e-08 0)
(2.06892e-06 -4.12428e-08 0)
(2.10907e-06 -3.94338e-08 0)
(2.14956e-06 -3.72495e-08 0)
(2.1903e-06 -3.46491e-08 0)
(2.23119e-06 -3.15823e-08 0)
(2.27214e-06 -2.79735e-08 0)
(2.31295e-06 -2.37429e-08 0)
(2.35365e-06 -1.87704e-08 0)
(2.39376e-06 -1.30345e-08 0)
(1.6216e-06 -6.82408e-08 0)
(1.65697e-06 -6.78496e-08 0)
(1.69316e-06 -6.7629e-08 0)
(1.72997e-06 -6.74787e-08 0)
(1.7675e-06 -6.72001e-08 0)
(1.80564e-06 -6.68238e-08 0)
(1.84444e-06 -6.62315e-08 0)
(1.88382e-06 -6.54186e-08 0)
(1.92377e-06 -6.43438e-08 0)
(1.9642e-06 -6.29457e-08 0)
(2.00509e-06 -6.11845e-08 0)
(2.04635e-06 -5.90311e-08 0)
(2.08794e-06 -5.64337e-08 0)
(2.12977e-06 -5.33372e-08 0)
(2.17178e-06 -4.96868e-08 0)
(2.21389e-06 -4.53981e-08 0)
(2.256e-06 -4.03681e-08 0)
(2.29796e-06 -3.44824e-08 0)
(2.33978e-06 -2.75636e-08 0)
(2.38103e-06 -1.9601e-08 0)
(1.55663e-06 -9.56172e-08 0)
(1.59718e-06 -9.39657e-08 0)
(1.63808e-06 -9.26618e-08 0)
(1.67898e-06 -9.16799e-08 0)
(1.72024e-06 -9.0661e-08 0)
(1.76171e-06 -8.96532e-08 0)
(1.80352e-06 -8.84685e-08 0)
(1.84564e-06 -8.70862e-08 0)
(1.88809e-06 -8.54209e-08 0)
(1.93082e-06 -8.33925e-08 0)
(1.97383e-06 -8.09538e-08 0)
(2.01708e-06 -7.8057e-08 0)
(2.06052e-06 -7.46288e-08 0)
(2.1041e-06 -7.05923e-08 0)
(2.14778e-06 -6.58704e-08 0)
(2.19147e-06 -6.03497e-08 0)
(2.23511e-06 -5.39003e-08 0)
(2.27856e-06 -4.63774e-08 0)
(2.32186e-06 -3.755e-08 0)
(2.36458e-06 -2.7413e-08 0)
(1.47905e-06 -1.28233e-07 0)
(1.52556e-06 -1.24561e-07 0)
(1.57199e-06 -1.21483e-07 0)
(1.61774e-06 -1.19135e-07 0)
(1.66341e-06 -1.16944e-07 0)
(1.70885e-06 -1.14948e-07 0)
(1.75427e-06 -1.12866e-07 0)
(1.79967e-06 -1.10662e-07 0)
(1.84512e-06 -1.08216e-07 0)
(1.89063e-06 -1.05418e-07 0)
(1.93621e-06 -1.022e-07 0)
(1.98184e-06 -9.84852e-08 0)
(2.02752e-06 -9.41732e-08 0)
(2.07321e-06 -8.9166e-08 0)
(2.1189e-06 -8.33557e-08 0)
(2.16449e-06 -7.66084e-08 0)
(2.20999e-06 -6.87573e-08 0)
(2.25522e-06 -5.96356e-08 0)
(2.3003e-06 -4.89651e-08 0)
(2.34479e-06 -3.6713e-08 0)
(1.39101e-06 -1.66507e-07 0)
(1.44402e-06 -1.60079e-07 0)
(1.49656e-06 -1.54561e-07 0)
(1.54771e-06 -1.50273e-07 0)
(1.59832e-06 -1.4643e-07 0)
(1.64821e-06 -1.43035e-07 0)
(1.69771e-06 -1.39747e-07 0)
(1.74685e-06 -1.36466e-07 0)
(1.79574e-06 -1.33031e-07 0)
(1.84441e-06 -1.29305e-07 0)
(1.89293e-06 -1.25179e-07 0)
(1.94131e-06 -1.20543e-07 0)
(1.98957e-06 -1.15271e-07 0)
(2.03769e-06 -1.09244e-07 0)
(2.08569e-06 -1.02323e-07 0)
(2.13349e-06 -9.43485e-08 0)
(2.18112e-06 -8.51169e-08 0)
(2.22843e-06 -7.44339e-08 0)
(2.27554e-06 -6.19834e-08 0)
(2.32206e-06 -4.76984e-08 0)
(1.29465e-06 -2.10621e-07 0)
(1.35437e-06 -2.00533e-07 0)
(1.41338e-06 -1.91836e-07 0)
(1.47034e-06 -1.84951e-07 0)
(1.52631e-06 -1.78983e-07 0)
(1.58109e-06 -1.73775e-07 0)
(1.63507e-06 -1.68969e-07 0)
(1.68831e-06 -1.6436e-07 0)
(1.74098e-06 -1.5974e-07 0)
(1.79316e-06 -1.54931e-07 0)
(1.84493e-06 -1.49782e-07 0)
(1.89635e-06 -1.44145e-07 0)
(1.94746e-06 -1.37865e-07 0)
(1.99829e-06 -1.30793e-07 0)
(2.04885e-06 -1.22759e-07 0)
(2.09911e-06 -1.13575e-07 0)
(2.1491e-06 -1.03005e-07 0)
(2.19871e-06 -9.08201e-08 0)
(2.24806e-06 -7.66675e-08 0)
(2.29684e-06 -6.04518e-08 0)
(1.19225e-06 -2.60451e-07 0)
(1.25866e-06 -2.46081e-07 0)
(1.32415e-06 -2.33811e-07 0)
(1.3871e-06 -2.23764e-07 0)
(1.4486e-06 -2.15192e-07 0)
(1.50853e-06 -2.07732e-07 0)
(1.56725e-06 -2.01026e-07 0)
(1.62488e-06 -1.94767e-07 0)
(1.68161e-06 -1.88706e-07 0)
(1.73756e-06 -1.82609e-07 0)
(1.79285e-06 -1.76276e-07 0)
(1.84757e-06 -1.69519e-07 0)
(1.90178e-06 -1.62149e-07 0)
(1.95555e-06 -1.53982e-07 0)
(2.00891e-06 -1.44813e-07 0)
(2.06184e-06 -1.34415e-07 0)
(2.11439e-06 -1.22531e-07 0)
(2.1665e-06 -1.08887e-07 0)
(2.2183e-06 -9.3114e-08 0)
(2.26953e-06 -7.50849e-08 0)
(1.08586e-06 -3.15193e-07 0)
(1.15943e-06 -2.95103e-07 0)
(1.23131e-06 -2.78698e-07 0)
(1.30047e-06 -2.65007e-07 0)
(1.36756e-06 -2.53504e-07 0)
(1.43277e-06 -2.43552e-07 0)
(1.49634e-06 -2.34739e-07 0)
(1.5585e-06 -2.26675e-07 0)
(1.61943e-06 -2.19052e-07 0)
(1.67929e-06 -2.1158e-07 0)
(1.73823e-06 -2.04009e-07 0)
(1.79638e-06 -1.96108e-07 0)
(1.85382e-06 -1.87646e-07 0)
(1.91064e-06 -1.78404e-07 0)
(1.96688e-06 -1.6814e-07 0)
(2.02258e-06 -1.56593e-07 0)
(2.07782e-06 -1.43486e-07 0)
(2.13255e-06 -1.28491e-07 0)
(2.18693e-06 -1.11228e-07 0)
(2.24077e-06 -9.15238e-08 0)
(1.00595e-06 -3.69103e-07 0)
(1.08455e-06 -3.43997e-07 0)
(1.16045e-06 -3.2425e-07 0)
(1.23376e-06 -3.07379e-07 0)
(1.30466e-06 -2.93094e-07 0)
(1.37346e-06 -2.80677e-07 0)
(1.44036e-06 -2.69665e-07 0)
(1.50562e-06 -2.59643e-07 0)
(1.56943e-06 -2.5026e-07 0)
(1.63195e-06 -2.41192e-07 0)
(1.69337e-06 -2.32161e-07 0)
(1.75381e-06 -2.22909e-07 0)
(1.81338e-06 -2.13176e-07 0)
(1.87218e-06 -2.02721e-07 0)
(1.93028e-06 -1.91283e-07 0)
(1.98774e-06 -1.78572e-07 0)
(2.04464e-06 -1.64317e-07 0)
(2.10101e-06 -1.48149e-07 0)
(2.157e-06 -1.29691e-07 0)
(2.2125e-06 -1.08734e-07 0)
(9.60956e-07 -4.13378e-07 0)
(1.0403e-06 -3.87334e-07 0)
(1.11692e-06 -3.65726e-07 0)
(1.19138e-06 -3.4692e-07 0)
(1.26356e-06 -3.30635e-07 0)
(1.33371e-06 -3.16277e-07 0)
(1.40198e-06 -3.03409e-07 0)
(1.46855e-06 -2.91636e-07 0)
(1.5336e-06 -2.80598e-07 0)
(1.59728e-06 -2.69975e-07 0)
(1.65976e-06 -2.59487e-07 0)
(1.72117e-06 -2.48867e-07 0)
(1.7816e-06 -2.37845e-07 0)
(1.84117e-06 -2.26176e-07 0)
(1.89996e-06 -2.13594e-07 0)
(1.95805e-06 -1.99805e-07 0)
(2.01552e-06 -1.84554e-07 0)
(2.07245e-06 -1.67469e-07 0)
(2.12899e-06 -1.48174e-07 0)
(2.18505e-06 -1.2646e-07 0)
(9.23104e-07 -4.55569e-07 0)
(1.00169e-06 -4.29002e-07 0)
(1.07829e-06 -4.0626e-07 0)
(1.15304e-06 -3.86051e-07 0)
(1.2258e-06 -3.68171e-07 0)
(1.29668e-06 -3.52152e-07 0)
(1.36576e-06 -3.37622e-07 0)
(1.43318e-06 -3.24216e-07 0)
(1.49908e-06 -3.11599e-07 0)
(1.56358e-06 -2.99469e-07 0)
(1.62684e-06 -2.87553e-07 0)
(1.68896e-06 -2.75582e-07 0)
(1.75005e-06 -2.63284e-07 0)
(1.81023e-06 -2.50422e-07 0)
(1.86956e-06 -2.3673e-07 0)
(1.92818e-06 -2.21915e-07 0)
(1.98614e-06 -2.05735e-07 0)
(2.04355e-06 -1.87828e-07 0)
(2.10056e-06 -1.67826e-07 0)
(2.15715e-06 -1.45541e-07 0)
(8.89881e-07 -4.96415e-07 0)
(9.67426e-07 -4.69674e-07 0)
(1.04344e-06 -4.46104e-07 0)
(1.11794e-06 -4.24736e-07 0)
(1.19072e-06 -4.05478e-07 0)
(1.26184e-06 -3.8798e-07 0)
(1.3313e-06 -3.71931e-07 0)
(1.39919e-06 -3.57007e-07 0)
(1.46561e-06 -3.42903e-07 0)
(1.53067e-06 -3.29339e-07 0)
(1.59448e-06 -3.16056e-07 0)
(1.65713e-06 -3.02787e-07 0)
(1.71874e-06 -2.89266e-07 0)
(1.7794e-06 -2.75268e-07 0)
(1.83919e-06 -2.60528e-07 0)
(1.89825e-06 -2.44767e-07 0)
(1.95665e-06 -2.27748e-07 0)
(2.0145e-06 -2.0913e-07 0)
(2.07193e-06 -1.88563e-07 0)
(2.12901e-06 -1.65891e-07 0)
(8.60828e-07 -5.35451e-07 0)
(9.3701e-07 -5.08777e-07 0)
(1.01209e-06 -4.84728e-07 0)
(1.08593e-06 -4.62543e-07 0)
(1.15835e-06 -4.42211e-07 0)
(1.22931e-06 -4.2349e-07 0)
(1.2988e-06 -4.06122e-07 0)
(1.36684e-06 -3.8984e-07 0)
(1.43351e-06 -3.74377e-07 0)
(1.49887e-06 -3.5948e-07 0)
(1.56301e-06 -3.44911e-07 0)
(1.62601e-06 -3.30413e-07 0)
(1.68797e-06 -3.15734e-07 0)
(1.74899e-06 -3.00667e-07 0)
(1.80915e-06 -2.84946e-07 0)
(1.86857e-06 -2.68318e-07 0)
(1.92733e-06 -2.50547e-07 0)
(1.98556e-06 -2.31317e-07 0)
(2.04338e-06 -2.10314e-07 0)
(2.10092e-06 -1.87416e-07 0)
(8.35149e-07 -5.72923e-07 0)
(9.09854e-07 -5.46467e-07 0)
(9.83788e-07 -5.22146e-07 0)
(1.05671e-06 -4.99365e-07 0)
(1.12848e-06 -4.78187e-07 0)
(1.19899e-06 -4.58444e-07 0)
(1.26822e-06 -4.3994e-07 0)
(1.33615e-06 -4.22464e-07 0)
(1.40282e-06 -4.05779e-07 0)
(1.46826e-06 -3.89668e-07 0)
(1.53255e-06 -3.73916e-07 0)
(1.59574e-06 -3.58282e-07 0)
(1.65792e-06 -3.42531e-07 0)
(1.71919e-06 -3.26478e-07 0)
(1.77961e-06 -3.09857e-07 0)
(1.83931e-06 -2.92452e-07 0)
(1.89837e-06 -2.74023e-07 0)
(1.95692e-06 -2.54287e-07 0)
(2.01508e-06 -2.32977e-07 0)
(2.07304e-06 -2.09987e-07 0)
(8.12305e-07 -6.08838e-07 0)
(8.85477e-07 -5.82706e-07 0)
(9.58122e-07 -5.58284e-07 0)
(1.02996e-06 -5.35107e-07 0)
(1.10088e-06 -5.1329e-07 0)
(1.17074e-06 -4.92719e-07 0)
(1.2395e-06 -4.73264e-07 0)
(1.30711e-06 -4.54754e-07 0)
(1.37358e-06 -4.36991e-07 0)
(1.43892e-06 -4.19789e-07 0)
(1.50318e-06 -4.02965e-07 0)
(1.56642e-06 -3.86295e-07 0)
(1.6287e-06 -3.69567e-07 0)
(1.6901e-06 -3.5262e-07 0)
(1.7507e-06 -3.35187e-07 0)
(1.8106e-06 -3.17089e-07 0)
(1.86989e-06 -2.98096e-07 0)
(1.9287e-06 -2.77961e-07 0)
(1.98718e-06 -2.56453e-07 0)
(2.0455e-06 -2.33477e-07 0)
(7.91791e-07 -6.43324e-07 0)
(8.63428e-07 -6.17575e-07 0)
(9.34713e-07 -5.93167e-07 0)
(1.00538e-06 -5.69742e-07 0)
(1.07531e-06 -5.47446e-07 0)
(1.14437e-06 -5.26214e-07 0)
(1.2125e-06 -5.05969e-07 0)
(1.27962e-06 -4.86578e-07 0)
(1.34573e-06 -4.67874e-07 0)
(1.41082e-06 -4.49709e-07 0)
(1.47493e-06 -4.31931e-07 0)
(1.53809e-06 -4.14334e-07 0)
(1.60036e-06 -3.96731e-07 0)
(1.66181e-06 -3.78983e-07 0)
(1.72249e-06 -3.60833e-07 0)
(1.78253e-06 -3.42134e-07 0)
(1.842e-06 -3.22672e-07 0)
(1.90103e-06 -3.02237e-07 0)
(1.95977e-06 -2.80626e-07 0)
(2.01837e-06 -2.57761e-07 0)
(7.7317e-07 -6.76484e-07 0)
(8.43283e-07 -6.51147e-07 0)
(9.13194e-07 -6.26834e-07 0)
(9.82634e-07 -6.03274e-07 0)
(1.05151e-06 -5.80628e-07 0)
(1.11967e-06 -5.5888e-07 0)
(1.18704e-06 -5.3799e-07 0)
(1.25356e-06 -5.17856e-07 0)
(1.31919e-06 -4.98345e-07 0)
(1.38392e-06 -4.79346e-07 0)
(1.44777e-06 -4.60732e-07 0)
(1.51076e-06 -4.4232e-07 0)
(1.57294e-06 -4.23946e-07 0)
(1.63436e-06 -4.05494e-07 0)
(1.69508e-06 -3.8672e-07 0)
(1.7552e-06 -3.67509e-07 0)
(1.8148e-06 -3.47671e-07 0)
(1.87402e-06 -3.27022e-07 0)
(1.93295e-06 -3.05385e-07 0)
(1.99179e-06 -2.82717e-07 0)
(7.5606e-07 -7.08427e-07 0)
(8.24686e-07 -6.83512e-07 0)
(8.93238e-07 -6.59346e-07 0)
(9.61433e-07 -6.35731e-07 0)
(1.02921e-06 -6.12843e-07 0)
(1.09641e-06 -5.90698e-07 0)
(1.16296e-06 -5.69286e-07 0)
(1.22879e-06 -5.48535e-07 0)
(1.29386e-06 -5.28344e-07 0)
(1.35816e-06 -5.08633e-07 0)
(1.42168e-06 -4.89301e-07 0)
(1.48444e-06 -4.70182e-07 0)
(1.54647e-06 -4.5114e-07 0)
(1.60781e-06 -4.32077e-07 0)
(1.66851e-06 -4.12773e-07 0)
(1.72867e-06 -3.93138e-07 0)
(1.78835e-06 -3.73009e-07 0)
(1.8477e-06 -3.52217e-07 0)
(1.90678e-06 -3.30631e-07 0)
(1.96584e-06 -3.08232e-07 0)
(7.4012e-07 -7.39267e-07 0)
(8.07322e-07 -7.14762e-07 0)
(8.74539e-07 -6.90773e-07 0)
(9.41506e-07 -6.67163e-07 0)
(1.00818e-06 -6.4412e-07 0)
(1.0744e-06 -6.21675e-07 0)
(1.1401e-06 -5.99848e-07 0)
(1.20521e-06 -5.78594e-07 0)
(1.26968e-06 -5.5784e-07 0)
(1.33349e-06 -5.37531e-07 0)
(1.39663e-06 -5.1759e-07 0)
(1.4591e-06 -4.97867e-07 0)
(1.52093e-06 -4.78254e-07 0)
(1.58214e-06 -4.58673e-07 0)
(1.64278e-06 -4.38925e-07 0)
(1.70293e-06 -4.18949e-07 0)
(1.76266e-06 -3.986e-07 0)
(1.82208e-06 -3.77733e-07 0)
(1.88129e-06 -3.56267e-07 0)
(1.9405e-06 -3.34189e-07 0)
(7.25055e-07 -7.69107e-07 0)
(7.90899e-07 -7.44991e-07 0)
(8.56825e-07 -7.21196e-07 0)
(9.22605e-07 -6.97637e-07 0)
(9.88187e-07 -6.74502e-07 0)
(1.05343e-06 -6.51835e-07 0)
(1.11828e-06 -6.29686e-07 0)
(1.18265e-06 -6.08029e-07 0)
(1.24649e-06 -5.86815e-07 0)
(1.3098e-06 -5.66012e-07 0)
(1.37253e-06 -5.45561e-07 0)
(1.43468e-06 -5.25332e-07 0)
(1.49628e-06 -5.05239e-07 0)
(1.55733e-06 -4.85225e-07 0)
(1.61788e-06 -4.65115e-07 0)
(1.678e-06 -4.4487e-07 0)
(1.73774e-06 -4.24364e-07 0)
(1.7972e-06 -4.03491e-07 0)
(1.85651e-06 -3.82198e-07 0)
(1.91582e-06 -3.60469e-07 0)
(7.10602e-07 -7.9804e-07 0)
(7.75153e-07 -7.74289e-07 0)
(8.3985e-07 -7.50697e-07 0)
(9.04488e-07 -7.2722e-07 0)
(9.69015e-07 -7.04037e-07 0)
(1.03331e-06 -6.81213e-07 0)
(1.09731e-06 -6.58822e-07 0)
(1.16095e-06 -6.36852e-07 0)
(1.22419e-06 -6.15273e-07 0)
(1.28698e-06 -5.94071e-07 0)
(1.3493e-06 -5.73205e-07 0)
(1.41113e-06 -5.52561e-07 0)
(1.47249e-06 -5.32073e-07 0)
(1.53337e-06 -5.11707e-07 0)
(1.59382e-06 -4.91306e-07 0)
(1.65388e-06 -4.70853e-07 0)
(1.71359e-06 -4.50248e-07 0)
(1.77309e-06 -4.29423e-07 0)
(1.83244e-06 -4.08338e-07 0)
(1.89182e-06 -3.86986e-07 0)
(6.96504e-07 -8.26148e-07 0)
(7.59835e-07 -8.02745e-07 0)
(8.23366e-07 -7.79352e-07 0)
(8.86913e-07 -7.5597e-07 0)
(9.50436e-07 -7.32779e-07 0)
(1.01382e-06 -7.09858e-07 0)
(1.07703e-06 -6.87299e-07 0)
(1.13998e-06 -6.651e-07 0)
(1.20263e-06 -6.4324e-07 0)
(1.26492e-06 -6.21721e-07 0)
(1.32684e-06 -6.00518e-07 0)
(1.38836e-06 -5.79535e-07 0)
(1.44947e-06 -5.58726e-07 0)
(1.51019e-06 -5.38075e-07 0)
(1.57051e-06 -5.17444e-07 0)
(1.6305e-06 -4.96834e-07 0)
(1.69018e-06 -4.76184e-07 0)
(1.74969e-06 -4.55442e-07 0)
(1.80904e-06 -4.34593e-07 0)
(1.86848e-06 -4.13662e-07 0)
(6.82503e-07 -8.53523e-07 0)
(7.44689e-07 -8.30436e-07 0)
(8.07118e-07 -8.07235e-07 0)
(8.69643e-07 -7.83966e-07 0)
(9.32237e-07 -7.60803e-07 0)
(9.9479e-07 -7.37841e-07 0)
(1.05726e-06 -7.15172e-07 0)
(1.11956e-06 -6.92807e-07 0)
(1.18166e-06 -6.70735e-07 0)
(1.2435e-06 -6.48969e-07 0)
(1.30504e-06 -6.27507e-07 0)
(1.36627e-06 -6.06261e-07 0)
(1.42717e-06 -5.85201e-07 0)
(1.48773e-06 -5.64325e-07 0)
(1.54795e-06 -5.43513e-07 0)
(1.60787e-06 -5.2279e-07 0)
(1.66753e-06 -5.02127e-07 0)
(1.72702e-06 -4.81494e-07 0)
(1.78638e-06 -4.60908e-07 0)
(1.84583e-06 -4.40409e-07 0)
(6.68361e-07 -8.8023e-07 0)
(7.29461e-07 -8.57451e-07 0)
(7.90858e-07 -8.34425e-07 0)
(8.5246e-07 -8.11284e-07 0)
(9.1421e-07 -7.88185e-07 0)
(9.76013e-07 -7.65224e-07 0)
(1.03781e-06 -7.42495e-07 0)
(1.09954e-06 -7.20024e-07 0)
(1.16115e-06 -6.97808e-07 0)
(1.22258e-06 -6.75866e-07 0)
(1.28381e-06 -6.54209e-07 0)
(1.34479e-06 -6.32764e-07 0)
(1.4055e-06 -6.11509e-07 0)
(1.46593e-06 -5.9045e-07 0)
(1.52606e-06 -5.6949e-07 0)
(1.58594e-06 -5.4869e-07 0)
(1.64559e-06 -5.28038e-07 0)
(1.70506e-06 -5.07527e-07 0)
(1.76442e-06 -4.87217e-07 0)
(1.82385e-06 -4.67154e-07 0)
(6.53818e-07 -9.06371e-07 0)
(7.13878e-07 -8.83823e-07 0)
(7.74321e-07 -8.61002e-07 0)
(8.35128e-07 -8.38029e-07 0)
(8.96122e-07 -8.15017e-07 0)
(9.57275e-07 -7.92091e-07 0)
(1.0185e-06 -7.69349e-07 0)
(1.07973e-06 -7.46818e-07 0)
(1.14093e-06 -7.24503e-07 0)
(1.20203e-06 -7.02444e-07 0)
(1.263e-06 -6.80658e-07 0)
(1.32379e-06 -6.59066e-07 0)
(1.38436e-06 -6.37653e-07 0)
(1.44471e-06 -6.16451e-07 0)
(1.5048e-06 -5.95385e-07 0)
(1.56469e-06 -5.74527e-07 0)
(1.62435e-06 -5.53883e-07 0)
(1.68382e-06 -5.33486e-07 0)
(1.74317e-06 -5.13443e-07 0)
(1.80258e-06 -4.93819e-07 0)
(6.38518e-07 -9.31934e-07 0)
(6.9772e-07 -9.09647e-07 0)
(7.57392e-07 -8.87067e-07 0)
(8.1744e-07 -8.64262e-07 0)
(8.77804e-07 -8.41373e-07 0)
(9.38397e-07 -8.18514e-07 0)
(9.99154e-07 -7.95792e-07 0)
(1.06e-06 -7.73252e-07 0)
(1.12089e-06 -7.50903e-07 0)
(1.18175e-06 -7.28783e-07 0)
(1.24254e-06 -7.06909e-07 0)
(1.3032e-06 -6.85209e-07 0)
(1.3637e-06 -6.63682e-07 0)
(1.42403e-06 -6.42373e-07 0)
(1.48416e-06 -6.2123e-07 0)
(1.54409e-06 -6.00317e-07 0)
(1.60379e-06 -5.79659e-07 0)
(1.66336e-06 -5.59342e-07 0)
(1.72272e-06 -5.39549e-07 0)
(1.78208e-06 -5.20374e-07 0)
(6.22256e-07 -9.5714e-07 0)
(6.80659e-07 -9.35119e-07 0)
(7.39651e-07 -9.12747e-07 0)
(7.99107e-07 -8.90127e-07 0)
(8.58964e-07 -8.6737e-07 0)
(9.19137e-07 -8.44603e-07 0)
(9.79563e-07 -8.21941e-07 0)
(1.04016e-06 -7.99436e-07 0)
(1.10085e-06 -7.77093e-07 0)
(1.16157e-06 -7.54944e-07 0)
(1.22227e-06 -7.33009e-07 0)
(1.28289e-06 -7.11234e-07 0)
(1.34341e-06 -6.89641e-07 0)
(1.40378e-06 -6.68266e-07 0)
(1.464e-06 -6.47031e-07 0)
(1.52406e-06 -6.26036e-07 0)
(1.58391e-06 -6.05379e-07 0)
(1.64362e-06 -5.851e-07 0)
(1.70311e-06 -5.65448e-07 0)
(1.76247e-06 -5.4667e-07 0)
(6.04859e-07 -9.81861e-07 0)
(6.62603e-07 -9.60143e-07 0)
(7.21036e-07 -9.38038e-07 0)
(7.80044e-07 -9.1563e-07 0)
(8.39556e-07 -8.93047e-07 0)
(8.99485e-07 -8.7042e-07 0)
(9.59738e-07 -8.47878e-07 0)
(1.02022e-06 -8.25452e-07 0)
(1.08084e-06 -8.03132e-07 0)
(1.14154e-06 -7.80977e-07 0)
(1.20225e-06 -7.59041e-07 0)
(1.26291e-06 -7.37247e-07 0)
(1.32351e-06 -7.15585e-07 0)
(1.384e-06 -6.94148e-07 0)
(1.44436e-06 -6.72879e-07 0)
(1.50461e-06 -6.51824e-07 0)
(1.56474e-06 -6.3111e-07 0)
(1.6247e-06 -6.10793e-07 0)
(1.6845e-06 -5.91178e-07 0)
(1.74407e-06 -5.72668e-07 0)
(4.24325e-08 -8.19108e-07 0)
(1.27817e-07 -8.07132e-07 0)
(2.14711e-07 -7.83613e-07 0)
(3.03994e-07 -7.49549e-07 0)
(3.9634e-07 -7.06268e-07 0)
(4.92161e-07 -6.55372e-07 0)
(5.91585e-07 -5.98798e-07 0)
(6.94392e-07 -5.38428e-07 0)
(8.004e-07 -4.76238e-07 0)
(9.08625e-07 -4.13721e-07 0)
(4.1298e-08 -8.33529e-07 0)
(1.24335e-07 -8.22568e-07 0)
(2.08614e-07 -8.01043e-07 0)
(2.94873e-07 -7.69792e-07 0)
(3.83681e-07 -7.29958e-07 0)
(4.75373e-07 -6.82894e-07 0)
(5.70096e-07 -6.30238e-07 0)
(6.67499e-07 -5.73665e-07 0)
(7.67424e-07 -5.14904e-07 0)
(8.68621e-07 -4.55642e-07 0)
(4.02804e-08 -8.48245e-07 0)
(1.21199e-07 -8.38213e-07 0)
(2.03131e-07 -8.18486e-07 0)
(2.86649e-07 -7.89801e-07 0)
(3.72243e-07 -7.53147e-07 0)
(4.60157e-07 -7.09719e-07 0)
(5.50576e-07 -6.60913e-07 0)
(6.43222e-07 -6.08183e-07 0)
(7.38077e-07 -5.52933e-07 0)
(8.34105e-07 -4.96634e-07 0)
(3.93899e-08 -8.63301e-07 0)
(1.18443e-07 -8.54058e-07 0)
(1.9835e-07 -8.35878e-07 0)
(2.79545e-07 -8.09405e-07 0)
(3.62446e-07 -7.75511e-07 0)
(4.47224e-07 -7.35248e-07 0)
(5.34032e-07 -6.89836e-07 0)
(6.22595e-07 -6.40607e-07 0)
(7.12881e-07 -5.88815e-07 0)
(8.0407e-07 -5.35831e-07 0)
(3.8576e-08 -8.78698e-07 0)
(1.15923e-07 -8.70167e-07 0)
(1.93978e-07 -8.53383e-07 0)
(2.73081e-07 -8.28905e-07 0)
(3.53579e-07 -7.97509e-07 0)
(4.35594e-07 -7.60155e-07 0)
(5.19268e-07 -7.17911e-07 0)
(6.04369e-07 -6.71921e-07 0)
(6.90844e-07 -6.23318e-07 0)
(7.77952e-07 -5.73376e-07 0)
(3.78145e-08 -8.94422e-07 0)
(1.13612e-07 -8.86504e-07 0)
(1.89985e-07 -8.70929e-07 0)
(2.67225e-07 -8.48214e-07 0)
(3.45611e-07 -8.19028e-07 0)
(4.25234e-07 -7.84257e-07 0)
(5.06174e-07 -7.4487e-07 0)
(5.88243e-07 -7.01872e-07 0)
(6.71396e-07 -6.56296e-07 0)
(7.54952e-07 -6.09338e-07 0)
(3.70932e-08 -9.10452e-07 0)
(1.11432e-07 -9.03095e-07 0)
(1.86244e-07 -8.88601e-07 0)
(2.61781e-07 -8.67472e-07 0)
(3.38253e-07 -8.40279e-07 0)
(4.15752e-07 -8.07844e-07 0)
(4.94314e-07 -7.7105e-07 0)
(5.73762e-07 -7.30782e-07 0)
(6.54067e-07 -6.87981e-07 0)
(7.34571e-07 -6.43796e-07 0)
(3.64153e-08 -9.26771e-07 0)
(1.0936e-07 -9.19909e-07 0)
(1.82711e-07 -9.0638e-07 0)
(2.56669e-07 -8.8666e-07 0)
(3.31405e-07 -8.61254e-07 0)
(4.06991e-07 -8.30917e-07 0)
(4.83441e-07 -7.96471e-07 0)
(5.60587e-07 -7.58706e-07 0)
(6.38417e-07 -7.18474e-07 0)
(7.163e-07 -6.76878e-07 0)
(3.57541e-08 -9.43361e-07 0)
(1.07355e-07 -9.36941e-07 0)
(1.79316e-07 -9.24283e-07 0)
(2.51781e-07 -9.05829e-07 0)
(3.24911e-07 -8.82039e-07 0)
(3.98761e-07 -8.53595e-07 0)
(4.73313e-07 -8.21274e-07 0)
(5.48424e-07 -7.85792e-07 0)
(6.24088e-07 -7.47915e-07 0)
(6.99715e-07 -7.08702e-07 0)
(3.50952e-08 -9.60189e-07 0)
(1.05394e-07 -9.54175e-07 0)
(1.76006e-07 -9.42298e-07 0)
(2.47049e-07 -9.24978e-07 0)
(3.18663e-07 -9.0265e-07 0)
(3.90907e-07 -8.75918e-07 0)
(4.63736e-07 -8.45518e-07 0)
(5.37025e-07 -8.12121e-07 0)
(6.10782e-07 -7.76412e-07 0)
(6.84449e-07 -7.39388e-07 0)
(3.44415e-08 -9.77228e-07 0)
(1.03456e-07 -9.71595e-07 0)
(1.72729e-07 -9.6042e-07 0)
(2.424e-07 -9.44122e-07 0)
(3.12563e-07 -9.23119e-07 0)
(3.83293e-07 -8.97941e-07 0)
(4.54539e-07 -8.69285e-07 0)
(5.26186e-07 -8.37791e-07 0)
(5.98245e-07 -8.0407e-07 0)
(6.70189e-07 -7.69054e-07 0)
(3.37933e-08 -9.94454e-07 0)
(1.01509e-07 -9.89165e-07 0)
(1.69442e-07 -9.78629e-07 0)
(2.37763e-07 -9.63257e-07 0)
(3.06522e-07 -9.43454e-07 0)
(3.75805e-07 -9.19693e-07 0)
(4.45577e-07 -8.9263e-07 0)
(5.15721e-07 -8.62874e-07 0)
(5.86243e-07 -8.30972e-07 0)
(6.56663e-07 -7.97798e-07 0)
(3.3136e-08 -1.01184e-06 0)
(9.95167e-08 -1.00685e-06 0)
(1.66096e-07 -9.96902e-07 0)
(2.33065e-07 -9.82378e-07 0)
(3.00445e-07 -9.63665e-07 0)
(3.68329e-07 -9.41202e-07 0)
(4.36703e-07 -9.15599e-07 0)
(5.05444e-07 -8.87431e-07 0)
(5.74556e-07 -8.57197e-07 0)
(6.43624e-07 -8.25714e-07 0)
(3.24517e-08 -1.02933e-06 0)
(9.7447e-08 -1.02461e-06 0)
(1.62645e-07 -1.01521e-06 0)
(2.28235e-07 -1.00146e-06 0)
(2.94239e-07 -9.83745e-07 0)
(3.60752e-07 -9.62474e-07 0)
(4.27772e-07 -9.38215e-07 0)
(4.95181e-07 -9.11508e-07 0)
(5.62988e-07 -8.82816e-07 0)
(6.30836e-07 -8.52887e-07 0)
(3.17298e-08 -1.04689e-06 0)
(9.52785e-08 -1.04241e-06 0)
(1.59044e-07 -1.03352e-06 0)
(2.23211e-07 -1.02049e-06 0)
(2.87819e-07 -1.00369e-06 0)
(3.52959e-07 -9.83532e-07 0)
(4.18638e-07 -9.60515e-07 0)
(4.84759e-07 -9.35158e-07 0)
(5.51334e-07 -9.07896e-07 0)
(6.18039e-07 -8.79398e-07 0)
(3.09643e-08 -1.06444e-06 0)
(9.2989e-08 -1.06019e-06 0)
(1.55247e-07 -1.05177e-06 0)
(2.17925e-07 -1.03941e-06 0)
(2.81089e-07 -1.02348e-06 0)
(3.44825e-07 -1.00435e-06 0)
(4.09148e-07 -9.82489e-07 0)
(4.74005e-07 -9.5839e-07 0)
(5.39378e-07 -9.32457e-07 0)
(6.05006e-07 -9.05289e-07 0)
(3.01463e-08 -1.08195e-06 0)
(9.05419e-08 -1.07792e-06 0)
(1.51191e-07 -1.06995e-06 0)
(2.12286e-07 -1.05822e-06 0)
(2.73931e-07 -1.04311e-06 0)
(3.36204e-07 -1.02494e-06 0)
(3.99144e-07 -1.00418e-06 0)
(4.62717e-07 -9.81263e-07 0)
(5.26896e-07 -9.56575e-07 0)
(5.91485e-07 -9.3067e-07 0)
(2.92603e-08 -1.0993e-06 0)
(8.78874e-08 -1.09547e-06 0)
(1.46798e-07 -1.08792e-06 0)
(2.06195e-07 -1.07681e-06 0)
(2.66211e-07 -1.06247e-06 0)
(3.26936e-07 -1.04523e-06 0)
(3.88435e-07 -1.02551e-06 0)
(4.50667e-07 -1.00372e-06 0)
(5.13646e-07 -9.80215e-07 0)
(5.77201e-07 -9.5551e-07 0)
(2.82831e-08 -1.1165e-06 0)
(8.49617e-08 -1.11287e-06 0)
(1.41965e-07 -1.10573e-06 0)
(1.99512e-07 -1.09522e-06 0)
(2.57758e-07 -1.08164e-06 0)
(3.1682e-07 -1.0653e-06 0)
(3.76779e-07 -1.04658e-06 0)
(4.37612e-07 -1.02588e-06 0)
(4.99356e-07 -1.00353e-06 0)
(5.61869e-07 -9.79987e-07 0)
(2.72093e-08 -1.13319e-06 0)
(8.1754e-08 -1.12978e-06 0)
(1.36671e-07 -1.12305e-06 0)
(1.92197e-07 -1.11314e-06 0)
(2.48517e-07 -1.10032e-06 0)
(3.05786e-07 -1.08488e-06 0)
(3.64083e-07 -1.06717e-06 0)
(4.23453e-07 -1.04755e-06 0)
(4.83899e-07 -1.02634e-06 0)
(5.45373e-07 -1.00397e-06 0)
)


// ************************************************************************* //
