/*--------------------------------*- C++ -*----------------------------------*\
| =========                 |                                                 |
| \\      /  F ield         | foam-extend: Open Source CFD                    |
|  \\    /   O peration     | Version:     4.1                                |
|   \\  /    A nd           | Web:         http://www.foam-extend.org         |
|    \\/     M anipulation  |                                                 |
\*---------------------------------------------------------------------------*/
FoamFile
{
    version     2.0;
    format      ascii;
    class       volSymmTensorField;
    location    "4";
    object      epsilon;
}
// * * * * * * * * * * * * * * * * * * * * * * * * * * * * * * * * * * * * * //

dimensions      [0 0 0 0 0 0 0];

internalField   nonuniform List<symmTensor> 
1000
(
(1.30421e-06 -1.4088e-06 -6.98546e-22 7.07064e-09 -1.32629e-21 -2.75229e-36)
(2.03687e-06 -1.09376e-06 3.9493e-21 -7.81609e-07 8.54404e-22 0)
(2.38547e-06 -8.68153e-07 -4.29299e-21 -1.1449e-06 -3.06233e-21 0)
(2.59024e-06 -7.09014e-07 -1.6459e-21 -1.37622e-06 -3.78664e-22 0)
(2.68988e-06 -5.8792e-07 -2.76266e-22 -1.48917e-06 7.37185e-23 0)
(2.73211e-06 -4.96987e-07 1.73298e-21 -1.54652e-06 1.10502e-21 0)
(2.73939e-06 -4.24736e-07 -3.10218e-21 -1.56348e-06 -1.74285e-21 0)
(2.72383e-06 -3.68591e-07 6.79833e-22 -1.55798e-06 4.07876e-22 0)
(2.70072e-06 -3.21221e-07 -1.2419e-21 -1.53963e-06 -7.30231e-22 0)
(2.66019e-06 -2.80625e-07 -1.53303e-21 -1.51303e-06 -9.65343e-22 0)
(1.78626e-06 -1.69298e-06 1.96097e-21 -1.01199e-07 -1.14839e-21 7.57865e-37)
(2.38049e-06 -1.16448e-06 -3.96568e-21 -8.23036e-07 -1.04969e-21 0)
(2.64267e-06 -8.2242e-07 -3.66665e-21 -1.14377e-06 -9.82934e-22 0)
(2.78544e-06 -5.96736e-07 -2.85735e-21 -1.35402e-06 -1.96772e-21 0)
(2.84211e-06 -4.39108e-07 -6.25021e-22 -1.45387e-06 -5.57132e-22 0)
(2.85277e-06 -3.30004e-07 2.48517e-21 -1.50603e-06 1.46112e-21 0)
(2.83635e-06 -2.50181e-07 -2.90724e-21 -1.52039e-06 -1.98652e-21 0)
(2.80368e-06 -1.93879e-07 1.17906e-21 -1.51651e-06 9.97682e-22 0)
(2.76278e-06 -1.49658e-07 -2.19599e-21 -1.49601e-06 -1.70299e-21 0)
(2.71567e-06 -1.18112e-07 -8.12039e-22 -1.47794e-06 -9.08057e-22 0)
(2.3465e-06 -1.90012e-06 2.42161e-21 -3.01713e-07 1.47816e-22 -4.64324e-37)
(2.74112e-06 -1.19575e-06 -3.09727e-21 -8.92773e-07 -1.35118e-21 0)
(2.88345e-06 -7.59259e-07 2.83971e-21 -1.13582e-06 1.27964e-21 0)
(2.94531e-06 -4.80472e-07 -2.56315e-21 -1.30445e-06 -1.23154e-21 0)
(2.94865e-06 -2.94681e-07 -6.26073e-22 -1.37956e-06 -4.73479e-22 0)
(2.92234e-06 -1.72443e-07 -2.39065e-21 -1.42004e-06 -1.3985e-21 0)
(2.88005e-06 -8.8197e-08 4.40351e-27 -1.42851e-06 -1.19084e-26 0)
(2.82885e-06 -3.27805e-08 -8.22867e-24 -1.42434e-06 1.09181e-23 0)
(2.7734e-06 7.25813e-09 -1.69189e-22 -1.40367e-06 -8.02651e-22 0)
(2.71595e-06 3.63875e-08 2.62624e-22 -1.39058e-06 -1.99116e-22 0)
(2.95689e-06 -2.00563e-06 8.36845e-21 -5.75201e-07 -1.66702e-21 1.79879e-35)
(3.10546e-06 -1.18078e-06 1.7787e-21 -9.84753e-07 1.32607e-21 0)
(3.10298e-06 -6.81633e-07 1.33597e-21 -1.12254e-06 1.23792e-21 0)
(3.07028e-06 -3.68716e-07 7.75711e-22 -1.23349e-06 5.40169e-22 0)
(3.0131e-06 -1.6611e-07 5.60416e-21 -1.27503e-06 3.35451e-21 0)
(2.94676e-06 -3.70395e-08 -4.21648e-23 -1.29918e-06 -9.68813e-23 0)
(2.87764e-06 4.81065e-08 -2.00735e-23 -1.29988e-06 9.45054e-23 0)
(2.80882e-06 1.01514e-07 -5.31268e-23 -1.29465e-06 9.41788e-23 0)
(2.74052e-06 1.36813e-07 1.22042e-21 -1.27532e-06 6.05685e-22 0)
(2.67602e-06 1.62647e-07 -1.14748e-22 -1.2667e-06 -2.4512e-22 0)
(3.58277e-06 -1.99273e-06 -6.31615e-21 -8.95178e-07 1.62015e-22 -1.90798e-43)
(3.45838e-06 -1.11557e-06 2.86681e-21 -1.09039e-06 1.16752e-21 0)
(3.29712e-06 -5.92483e-07 2.35685e-21 -1.10535e-06 1.14964e-21 0)
(3.16284e-06 -2.6841e-07 2.4526e-21 -1.14816e-06 1.26819e-21 0)
(3.04199e-06 -6.25371e-08 -1.47358e-21 -1.15047e-06 -7.81251e-22 0)
(2.93476e-06 6.57675e-08 2.10542e-21 -1.15522e-06 9.5027e-22 0)
(2.83948e-06 1.47696e-07 6.65513e-22 -1.14704e-06 4.01805e-22 0)
(2.75422e-06 1.97338e-07 -1.2984e-21 -1.14036e-06 -4.78649e-22 0)
(2.67566e-06 2.27358e-07 3.00048e-21 -1.12372e-06 1.16088e-21 0)
(2.60557e-06 2.49633e-07 2.79768e-22 -1.1194e-06 -3.40636e-23 0)
(4.18568e-06 -1.85429e-06 -9.1629e-23 -1.2307e-06 -7.1856e-25 4.1218e-39)
(3.78407e-06 -9.99447e-07 -7.47981e-22 -1.19996e-06 -2.26536e-22 0)
(3.46281e-06 -4.94524e-07 3.69965e-21 -1.08638e-06 1.59773e-21 0)
(3.22752e-06 -1.84138e-07 9.69714e-22 -1.05744e-06 2.89312e-22 0)
(3.04421e-06 1.04999e-08 -1.37705e-21 -1.0187e-06 -5.42681e-22 0)
(2.89775e-06 1.29988e-07 -3.49693e-21 -1.00297e-06 -1.70795e-21 0)
(2.77813e-06 2.04437e-07 2.88062e-23 -9.85646e-07 -4.79629e-22 0)
(2.67819e-06 2.48418e-07 -1.85412e-22 -9.77218e-07 6.02506e-22 0)
(2.59142e-06 2.72804e-07 9.53665e-22 -9.63926e-07 7.32301e-22 0)
(2.51714e-06 2.91233e-07 2.44772e-21 -9.63382e-07 1.00395e-21 0)
(4.7265e-06 -1.59374e-06 2.3836e-21 -1.54923e-06 -3.09785e-22 -7.36587e-37)
(4.06694e-06 -8.35359e-07 -1.29887e-21 -1.30321e-06 1.84229e-22 0)
(3.59761e-06 -3.90246e-07 1.08967e-21 -1.06774e-06 8.07362e-22 0)
(3.26968e-06 -1.18054e-07 3.37133e-22 -9.70497e-07 -2.37291e-22 0)
(3.02966e-06 5.11232e-08 1.95681e-21 -8.9286e-07 3.67012e-22 0)
(2.84813e-06 1.53908e-07 -7.50215e-23 -8.57635e-07 -3.16895e-22 0)
(2.70727e-06 2.168e-07 5.83568e-22 -8.3175e-07 9.4606e-22 0)
(2.59486e-06 2.53297e-07 2.03245e-21 -8.2155e-07 1.61107e-21 0)
(2.50186e-06 2.72001e-07 -9.72274e-22 -8.11799e-07 -4.86116e-22 0)
(2.42435e-06 2.86512e-07 2.79593e-22 -8.14333e-07 -5.17477e-22 0)
(5.16882e-06 -1.225e-06 0 -1.81988e-06 0 0)
(4.29305e-06 -6.29638e-07 6.27607e-21 -1.39056e-06 1.90118e-21 0)
(3.70005e-06 -2.81639e-07 -6.62007e-21 -1.05163e-06 -1.81369e-21 0)
(3.29522e-06 -6.95462e-08 -2.51062e-22 -8.9626e-07 -4.14664e-22 0)
(3.00842e-06 6.14992e-08 -6.30696e-22 -7.85611e-07 6.57874e-23 0)
(2.79826e-06 1.4057e-07 3.27677e-21 -7.33775e-07 1.22713e-21 0)
(2.64037e-06 1.88337e-07 1.15257e-21 -7.00679e-07 4.43722e-22 0)
(2.51813e-06 2.15726e-07 -1.58944e-21 -6.88884e-07 -2.95768e-22 0)
(2.42069e-06 2.2888e-07 6.72886e-23 -6.82351e-07 -2.83438e-22 0)
(2.34083e-06 2.39375e-07 -7.59935e-22 -6.87191e-07 -6.22629e-22 0)
(5.48206e-06 -7.71508e-07 4.29009e-21 -2.01641e-06 4.36564e-22 1.9801e-36)
(4.45063e-06 -3.91881e-07 -3.52502e-22 -1.45388e-06 -7.0637e-22 0)
(3.76875e-06 -1.70387e-07 -2.20373e-21 -1.03985e-06 -4.40177e-22 0)
(3.30887e-06 -3.56196e-08 1.83825e-21 -8.4223e-07 5.84297e-22 0)
(2.98874e-06 4.73563e-08 -7.38826e-22 -7.07624e-07 -1.69263e-22 0)
(2.75831e-06 9.7223e-08 -1.88675e-21 -6.43709e-07 -2.70875e-22 0)
(2.58851e-06 1.27109e-07 1.21675e-24 -6.05411e-07 -4.46375e-22 0)
(2.45948e-06 1.44123e-07 -2.22377e-23 -5.92422e-07 2.6694e-22 0)
(2.35921e-06 1.5194e-07 -2.01342e-23 -5.88337e-07 1.45679e-22 0)
(2.27782e-06 1.5832e-07 -7.73607e-22 -5.94737e-07 -4.89311e-22 0)
(5.64385e-06 -2.63655e-07 -3.6077e-21 -2.119e-06 6.42136e-22 1.17753e-36)
(4.53117e-06 -1.33328e-07 -2.92831e-21 -1.48578e-06 -9.83999e-22 0)
(3.8027e-06 -5.72375e-08 2.24042e-21 -1.03158e-06 7.18269e-22 0)
(3.31399e-06 -1.09337e-08 -3.50042e-21 -8.11325e-07 -4.53073e-22 0)
(2.97641e-06 1.75477e-08 1.41272e-21 -6.63865e-07 -4.39446e-22 0)
(2.73541e-06 3.46453e-08 -6.19027e-22 -5.93478e-07 9.44659e-23 0)
(2.55946e-06 4.48604e-08 -1.21855e-25 -5.52412e-07 4.53891e-22 0)
(2.42696e-06 5.06635e-08 -4.9927e-22 -5.38809e-07 2.69757e-22 0)
(2.32533e-06 5.32789e-08 -1.75105e-21 -5.36078e-07 -7.33971e-22 0)
(2.24324e-06 5.54388e-08 8.67382e-22 -5.4339e-07 6.44372e-23 0)
(7.65505e-07 6.92508e-08 -4.96287e-22 -2.06639e-06 2.24657e-21 -2.82485e-36)
(5.11929e-07 -3.09593e-08 7.37943e-22 -1.36646e-06 1.05644e-21 0)
(3.90915e-07 -8.20369e-08 9.74095e-24 -9.523e-07 -4.75911e-22 0)
(4.13356e-07 -1.09343e-07 -3.9121e-23 -7.14826e-07 3.37417e-22 0)
(4.72086e-07 -1.22079e-07 -4.44338e-22 -5.77881e-07 -3.06741e-22 0)
(5.64158e-07 -1.26554e-07 5.88224e-22 -5.0116e-07 2.427e-22 0)
(6.60317e-07 -1.26222e-07 8.24318e-23 -4.60565e-07 9.87425e-23 0)
(7.60137e-07 -1.23324e-07 -1.08939e-22 -4.412e-07 1.80672e-22 0)
(8.5355e-07 -1.18398e-07 5.85873e-22 -4.35063e-07 1.58356e-22 0)
(9.42832e-07 -1.14808e-07 -5.44104e-23 -4.33295e-07 -7.83053e-23 0)
(7.24793e-07 1.92585e-07 2.74396e-23 -1.96495e-06 9.81909e-23 -1.6356e-38)
(5.32372e-07 -9.71376e-08 -1.29767e-21 -1.33695e-06 -1.85768e-21 0)
(4.44201e-07 -2.44004e-07 9.89211e-22 -9.61927e-07 9.75033e-22 0)
(4.83161e-07 -3.21998e-07 7.18169e-22 -7.47388e-07 5.19834e-22 0)
(5.49677e-07 -3.58052e-07 -1.82879e-22 -6.2297e-07 -2.38088e-22 0)
(6.44029e-07 -3.70319e-07 -1.95789e-21 -5.52793e-07 -7.22885e-22 0)
(7.39415e-07 -3.68824e-07 -3.23148e-23 -5.14971e-07 -2.73353e-25 0)
(8.36902e-07 -3.59955e-07 -3.3051e-22 -4.96283e-07 -2.01067e-22 0)
(9.26316e-07 -3.45355e-07 2.07337e-22 -4.89026e-07 -1.0075e-23 0)
(1.01281e-06 -3.34624e-07 5.14515e-22 -4.86162e-07 -4.22288e-23 0)
(6.47856e-07 2.74979e-07 -4.02009e-22 -1.76976e-06 -1.86089e-21 -1.12911e-36)
(5.70385e-07 -1.7227e-07 -9.89473e-22 -1.27972e-06 -8.70324e-22 0)
(5.41851e-07 -3.97669e-07 1.54034e-21 -9.78459e-07 4.03365e-22 0)
(6.11054e-07 -5.16421e-07 3.32871e-22 -8.0724e-07 3.74611e-22 0)
(6.91532e-07 -5.70485e-07 9.01947e-22 -7.06376e-07 4.23546e-22 0)
(7.89864e-07 -5.87889e-07 -8.7872e-22 -6.48555e-07 -4.39424e-22 0)
(8.83631e-07 -5.84236e-07 -1.42419e-21 -6.15993e-07 -4.09244e-22 0)
(9.76682e-07 -5.69206e-07 -4.85177e-22 -5.98629e-07 -1.09771e-22 0)
(1.05859e-06 -5.45683e-07 2.44993e-23 -5.8934e-07 -2.04991e-24 0)
(1.13999e-06 -5.28059e-07 6.99546e-22 -5.84556e-07 3.12809e-22 0)
(5.53237e-07 2.95633e-07 -1.44419e-21 -1.50099e-06 -2.04858e-23 6.6749e-36)
(6.32005e-07 -2.59461e-07 6.54137e-22 -1.20097e-06 -8.95986e-22 0)
(6.84023e-07 -5.36806e-07 -3.90819e-21 -1.001e-06 -2.99523e-21 0)
(7.93657e-07 -6.81381e-07 -8.82986e-22 -8.89396e-07 5.79179e-23 0)
(8.92431e-07 -7.45427e-07 -5.36046e-23 -8.20895e-07 1.15153e-22 0)
(9.95478e-07 -7.64031e-07 1.15998e-21 -7.80089e-07 5.2197e-22 0)
(1.08646e-06 -7.5677e-07 -3.20192e-22 -7.54816e-07 -1.71866e-24 0)
(1.17285e-06 -7.35369e-07 9.71843e-22 -7.39269e-07 6.53972e-22 0)
(1.24417e-06 -7.04131e-07 -1.72526e-21 -7.27335e-07 -3.3212e-22 0)
(1.31808e-06 -6.80077e-07 1.55219e-21 -7.19822e-07 2.3661e-22 0)
(4.63008e-07 2.39468e-07 3.90261e-22 -1.18557e-06 -1.41856e-21 -2.92591e-37)
(7.2146e-07 -3.61093e-07 3.26031e-21 -1.10891e-06 3.00515e-21 0)
(8.65553e-07 -6.56946e-07 -3.10508e-21 -1.02786e-06 -2.0814e-21 0)
(1.02054e-06 -8.08515e-07 -1.45208e-21 -9.86418e-07 -7.86267e-22 0)
(1.13917e-06 -8.72481e-07 1.28072e-21 -9.55958e-07 5.40789e-22 0)
(1.24636e-06 -8.87397e-07 1.7179e-21 -9.35194e-07 7.05913e-22 0)
(1.33302e-06 -8.7476e-07 9.76792e-22 -9.18558e-07 6.3333e-22 0)
(1.41055e-06 -8.46828e-07 1.72493e-21 -9.05124e-07 5.25889e-22 0)
(1.46889e-06 -8.09383e-07 -3.82325e-22 -8.90283e-07 -4.22002e-22 0)
(1.53298e-06 -7.79622e-07 -2.3544e-21 -8.79357e-07 -2.34994e-22 0)
(4.02573e-07 1.00427e-07 -3.81502e-23 -8.54651e-07 9.34985e-23 -6.23182e-40)
(8.43378e-07 -4.76996e-07 2.04951e-21 -1.01266e-06 1.02731e-21 0)
(1.07992e-06 -7.54619e-07 1.6634e-21 -1.05622e-06 1.49759e-21 0)
(1.27899e-06 -8.92528e-07 -8.16319e-22 -1.08865e-06 -5.47927e-22 0)
(1.4158e-06 -9.45417e-07 -1.49643e-21 -1.09817e-06 -6.61284e-22 0)
(1.52505e-06 -9.51366e-07 -9.44266e-22 -1.09856e-06 -3.77114e-22 0)
(1.60545e-06 -9.31464e-07 1.52333e-21 -1.09118e-06 7.77464e-22 0)
(1.67195e-06 -8.96956e-07 -1.82499e-21 -1.07997e-06 -9.79697e-22 0)
(1.71575e-06 -8.54882e-07 3.03143e-21 -1.06247e-06 9.21324e-22 0)
(1.76786e-06 -8.20356e-07 1.03448e-22 -1.0477e-06 -4.19044e-22 0)
(3.97813e-07 -1.17891e-07 1.78606e-21 -5.41055e-07 -3.27529e-21 -1.91754e-37)
(1.00219e-06 -6.04492e-07 -5.65392e-21 -9.22249e-07 -3.10034e-21 0)
(1.32001e-06 -8.27666e-07 1.93136e-21 -1.08368e-06 1.29756e-21 0)
(1.55554e-06 -9.31612e-07 -1.76653e-22 -1.1865e-06 5.01704e-22 0)
(1.7055e-06 -9.62699e-07 8.33141e-22 -1.23399e-06 3.98831e-22 0)
(1.81318e-06 -9.54683e-07 -3.46995e-22 -1.25462e-06 -1.29056e-22 0)
(1.88499e-06 -9.2581e-07 -2.12518e-21 -1.25617e-06 -8.9836e-22 0)
(1.93845e-06 -8.84958e-07 1.22606e-21 -1.24719e-06 5.4147e-22 0)
(1.96701e-06 -8.39855e-07 -1.11519e-21 -1.22757e-06 -4.89413e-22 0)
(2.00533e-06 -8.01589e-07 2.32497e-21 -1.20908e-06 5.81194e-22 0)
(4.71887e-07 -4.02386e-07 -6.65394e-22 -2.75724e-07 9.5688e-22 2.85489e-38)
(1.20099e-06 -7.38251e-07 -1.84428e-21 -8.47019e-07 -2.16056e-21 0)
(1.57804e-06 -8.75033e-07 -2.7116e-21 -1.10782e-06 -2.59514e-21 0)
(1.83631e-06 -9.27189e-07 1.0071e-21 -1.27068e-06 4.93147e-22 0)
(1.99115e-06 -9.27149e-07 2.68396e-21 -1.35032e-06 1.31179e-21 0)
(2.09212e-06 -9.0095e-07 2.44478e-21 -1.38824e-06 1.19279e-21 0)
(2.15252e-06 -8.61779e-07 -3.80934e-22 -1.39769e-06 7.26006e-23 0)
(2.19096e-06 -8.15107e-07 1.40287e-21 -1.39059e-06 5.95011e-22 0)
(2.20455e-06 -7.68385e-07 -1.37968e-21 -1.37039e-06 -9.90445e-22 0)
(2.22736e-06 -7.27317e-07 4.89964e-22 -1.3483e-06 4.74149e-22 0)
(6.42592e-07 -7.31564e-07 1.91852e-21 -8.48894e-08 2.58344e-21 -6.88564e-36)
(1.44117e-06 -8.70692e-07 2.65099e-21 -7.95101e-07 3.38851e-21 0)
(1.84661e-06 -8.96781e-07 2.8194e-21 -1.12684e-06 7.909e-22 0)
(2.10921e-06 -8.8378e-07 4.09028e-22 -1.33364e-06 -4.24964e-22 0)
(2.25827e-06 -8.45812e-07 8.52299e-23 -1.4363e-06 -1.25875e-22 0)
(2.34649e-06 -7.98786e-07 -6.17337e-23 -1.48697e-06 -1.77198e-23 0)
(2.39251e-06 -7.48742e-07 2.2306e-21 -1.50207e-06 1.17906e-21 0)
(2.41436e-06 -6.97768e-07 -2.97855e-21 -1.49692e-06 -1.93038e-21 0)
(2.41397e-06 -6.50857e-07 2.75262e-21 -1.47672e-06 1.13944e-21 0)
(2.42034e-06 -6.08427e-07 2.96263e-22 -1.45442e-06 1.56977e-22 0)
(9.1981e-07 -1.0776e-06 2.87539e-21 1.26226e-08 -4.80441e-21 -7.84404e-36)
(1.72116e-06 -9.92617e-07 2.82101e-21 -7.72264e-07 1.3909e-21 0)
(2.11786e-06 -8.93999e-07 3.77226e-21 -1.13935e-06 1.89526e-21 0)
(2.36283e-06 -8.08354e-07 1.81587e-21 -1.36961e-06 1.42263e-21 0)
(2.49331e-06 -7.28939e-07 -2.86822e-21 -1.4837e-06 -1.5917e-21 0)
(2.56141e-06 -6.59847e-07 -2.57377e-21 -1.54076e-06 -1.41218e-21 0)
(2.58889e-06 -5.99085e-07 6.7556e-23 -1.55857e-06 -4.00828e-23 0)
(2.59158e-06 -5.44923e-07 -1.3534e-21 -1.55314e-06 -7.75296e-22 0)
(2.57816e-06 -5.00223e-07 1.40721e-21 -1.53588e-06 1.29426e-21 0)
(2.56261e-06 -4.57921e-07 1.91645e-21 -1.50718e-06 4.37826e-22 0)
(1.02606e-06 -1.06068e-07 2.84567e-22 -4.42571e-07 -1.03835e-24 0)
(1.09932e-06 -9.48553e-08 5.29077e-22 -4.45323e-07 -1.59588e-22 0)
(1.166e-06 -8.59251e-08 2.85058e-23 -4.49882e-07 -3.7392e-25 0)
(1.22691e-06 -7.76932e-08 -4.51881e-22 -4.53107e-07 -2.43937e-22 0)
(1.28134e-06 -7.03599e-08 -1.80172e-21 -4.54403e-07 -8.33094e-23 0)
(1.33031e-06 -6.38656e-08 -2.74207e-22 -4.53592e-07 3.2873e-22 0)
(1.37379e-06 -5.80247e-08 1.59441e-21 -4.50032e-07 1.69889e-22 0)
(1.41224e-06 -5.28065e-08 -1.59958e-21 -4.43607e-07 -8.96126e-23 0)
(1.44582e-06 -4.80692e-08 1.41831e-22 -4.33918e-07 4.80284e-22 0)
(1.47474e-06 -4.37499e-08 8.77799e-22 -4.20743e-07 1.63228e-22 0)
(1.49907e-06 -3.97456e-08 1.4918e-22 -4.03723e-07 4.51963e-22 0)
(1.51888e-06 -3.59797e-08 1.73764e-21 -3.8251e-07 1.64355e-22 0)
(1.53395e-06 -3.23652e-08 1.5923e-21 -3.56646e-07 -3.11769e-22 0)
(1.54439e-06 -2.88156e-08 -1.72887e-21 -3.25612e-07 -1.51701e-22 0)
(1.54939e-06 -2.52462e-08 -2.56775e-21 -2.8875e-07 4.44598e-24 0)
(1.54952e-06 -2.15485e-08 1.35972e-21 -2.45301e-07 2.17282e-22 0)
(1.54225e-06 -1.76376e-08 -3.37325e-23 -1.94272e-07 -7.4903e-23 0)
(1.53066e-06 -1.3331e-08 9.46916e-22 -1.34607e-07 1.82756e-22 0)
(1.50626e-06 -8.65448e-09 7.92305e-22 -6.46236e-08 -7.73713e-24 0)
(1.48276e-06 -2.81595e-09 1.97688e-22 1.64582e-08 2.05642e-23 -2.18109e-37)
(1.08833e-06 -3.09162e-07 8.08931e-24 -4.90752e-07 8.90557e-24 0)
(1.15128e-06 -2.77026e-07 -7.63998e-22 -4.86771e-07 -8.49852e-23 0)
(1.21033e-06 -2.51321e-07 3.94957e-22 -4.85732e-07 8.80458e-23 0)
(1.26433e-06 -2.27637e-07 1.26663e-21 -4.84237e-07 4.32284e-22 0)
(1.31315e-06 -2.06445e-07 -7.40316e-22 -4.81403e-07 -2.78986e-24 0)
(1.35726e-06 -1.87664e-07 -1.08431e-21 -4.77156e-07 -3.52764e-22 0)
(1.39671e-06 -1.70715e-07 7.27193e-22 -4.70653e-07 3.4856e-22 0)
(1.4317e-06 -1.55547e-07 1.87743e-22 -4.61771e-07 1.69868e-22 0)
(1.46239e-06 -1.41742e-07 -1.68066e-21 -4.50018e-07 -5.25537e-22 0)
(1.48884e-06 -1.2913e-07 -1.00196e-21 -4.35134e-07 -1.84198e-22 0)
(1.51108e-06 -1.17412e-07 -2.22533e-23 -4.16713e-07 -6.26436e-25 0)
(1.52912e-06 -1.06369e-07 3.07313e-21 -3.94377e-07 2.57292e-22 0)
(1.54273e-06 -9.57482e-08 1.41529e-22 -3.67645e-07 1.40587e-22 0)
(1.55195e-06 -8.52979e-08 -7.17457e-22 -3.35983e-07 1.47915e-22 0)
(1.55596e-06 -7.47703e-08 -1.55924e-22 -2.98725e-07 -1.71876e-22 0)
(1.55532e-06 -6.38451e-08 -1.66271e-22 -2.55114e-07 -1.48989e-22 0)
(1.54752e-06 -5.22738e-08 -5.93982e-22 -2.04168e-07 1.33483e-22 0)
(1.53561e-06 -3.95142e-08 -4.30025e-22 -1.4485e-07 -3.9199e-23 0)
(1.51118e-06 -2.56508e-08 2.39363e-21 -7.55253e-08 3.27268e-22 0)
(1.48784e-06 -8.34574e-09 6.15667e-22 4.54882e-09 1.54777e-22 -2.03433e-36)
(1.20104e-06 -4.88776e-07 4.45409e-22 -5.80517e-07 -9.43739e-23 0)
(1.24532e-06 -4.40272e-07 9.64026e-22 -5.64236e-07 2.97458e-22 0)
(1.29043e-06 -4.00717e-07 -2.46358e-21 -5.52717e-07 -2.12473e-22 0)
(1.33188e-06 -3.64324e-07 2.66138e-22 -5.42513e-07 1.97271e-22 0)
(1.37057e-06 -3.31309e-07 1.35287e-21 -5.31982e-07 -7.6495e-23 0)
(1.40585e-06 -3.01991e-07 -2.08355e-21 -5.21346e-07 -1.28027e-22 0)
(1.43803e-06 -2.75316e-07 -1.11102e-21 -5.09361e-07 -2.04092e-22 0)
(1.46676e-06 -2.51361e-07 2.50848e-21 -4.95897e-07 1.62183e-22 0)
(1.49221e-06 -2.29443e-07 1.42129e-21 -4.80298e-07 -1.18919e-22 0)
(1.51419e-06 -2.09347e-07 -1.85801e-21 -4.62231e-07 -2.44801e-22 0)
(1.53268e-06 -1.90604e-07 -2.12737e-21 -4.4121e-07 -4.21228e-22 0)
(1.54755e-06 -1.72883e-07 8.46155e-22 -4.16799e-07 5.14114e-23 0)
(1.55852e-06 -1.55787e-07 1.46219e-21 -3.88479e-07 2.38703e-22 0)
(1.56558e-06 -1.38915e-07 5.07223e-23 -3.55686e-07 -2.40604e-22 0)
(1.56787e-06 -1.21873e-07 9.49378e-23 -3.17746e-07 6.26297e-23 0)
(1.56593e-06 -1.0414e-07 -2.12136e-21 -2.73904e-07 -2.32921e-22 0)
(1.55727e-06 -8.53178e-08 -1.04682e-21 -2.23202e-07 -3.16021e-23 0)
(1.54489e-06 -6.4518e-08 -3.87357e-22 -1.64637e-07 -1.65772e-22 0)
(1.52056e-06 -4.18868e-08 8.22781e-22 -9.66588e-08 1.42951e-22 0)
(1.49766e-06 -1.36437e-08 7.4984e-22 -1.85726e-08 3.27057e-22 -3.25864e-36)
(1.35952e-06 -6.31473e-07 4.70558e-22 -7.0435e-07 1.54988e-22 0)
(1.37814e-06 -5.73826e-07 -4.3104e-22 -6.72302e-07 -6.0987e-24 0)
(1.40416e-06 -5.24945e-07 2.38792e-22 -6.46591e-07 -2.04236e-22 0)
(1.4281e-06 -4.80179e-07 -3.28434e-23 -6.24707e-07 -2.15155e-22 0)
(1.45267e-06 -4.38532e-07 1.68512e-22 -6.03663e-07 -9.69179e-23 0)
(1.47553e-06 -4.0143e-07 -5.97032e-22 -5.84242e-07 -1.18849e-22 0)
(1.49743e-06 -3.6722e-07 -7.48597e-22 -5.6467e-07 -2.22915e-22 0)
(1.51727e-06 -3.36317e-07 -3.51533e-22 -5.44811e-07 -2.02116e-22 0)
(1.53525e-06 -3.07817e-07 1.5303e-22 -5.23814e-07 9.78062e-23 0)
(1.55084e-06 -2.8153e-07 6.55459e-22 -5.01247e-07 3.80773e-22 0)
(1.56393e-06 -2.56871e-07 -1.14237e-21 -4.76529e-07 -2.43116e-22 0)
(1.57424e-06 -2.33433e-07 7.29947e-22 -4.4915e-07 2.1087e-22 0)
(1.58141e-06 -2.10713e-07 1.71358e-21 -4.18542e-07 1.66174e-22 0)
(1.58532e-06 -1.88187e-07 -6.92526e-22 -3.84111e-07 -2.00104e-22 0)
(1.58512e-06 -1.6534e-07 -1.58471e-21 -3.45175e-07 -1.52002e-22 0)
(1.58128e-06 -1.41471e-07 -9.91715e-22 -3.00989e-07 -1.91572e-22 0)
(1.57136e-06 -1.16048e-07 7.03304e-22 -2.50638e-07 -3.65368e-23 0)
(1.55828e-06 -8.78589e-08 8.48839e-22 -1.93169e-07 1.71269e-22 0)
(1.53412e-06 -5.70994e-08 2.30797e-22 -1.27164e-07 3.67566e-23 0)
(1.51184e-06 -1.86585e-08 -5.16895e-22 -5.19956e-08 -3.16487e-22 -1.64894e-36)
(1.55189e-06 -7.27153e-07 9.05383e-22 -8.51087e-07 -1.57812e-22 0)
(1.54062e-06 -6.69337e-07 4.29152e-22 -8.02461e-07 -5.66779e-22 0)
(1.5444e-06 -6.16815e-07 -9.73152e-22 -7.60392e-07 1.69314e-22 0)
(1.54732e-06 -5.69148e-07 -4.41394e-22 -7.25094e-07 -1.77716e-23 0)
(1.55498e-06 -5.22958e-07 1.53528e-21 -6.9168e-07 1.83837e-22 0)
(1.56266e-06 -4.81549e-07 -8.65522e-22 -6.6174e-07 2.76301e-22 0)
(1.57199e-06 -4.42607e-07 -9.46678e-22 -6.33029e-07 -2.56347e-22 0)
(1.58084e-06 -4.07072e-07 7.82156e-22 -6.05371e-07 -1.48886e-22 0)
(1.58956e-06 -3.73925e-07 -3.78342e-22 -5.77776e-07 1.61136e-22 0)
(1.59717e-06 -3.43071e-07 -2.22356e-23 -5.49677e-07 1.76871e-22 0)
(1.60351e-06 -3.13894e-07 -8.47512e-22 -5.20409e-07 -7.81766e-23 0)
(1.60808e-06 -2.85957e-07 -9.80278e-22 -4.89373e-07 -4.89497e-22 0)
(1.61044e-06 -2.58699e-07 2.96596e-21 -4.55952e-07 3.60025e-22 0)
(1.61038e-06 -2.31507e-07 3.526e-22 -4.19515e-07 1.72966e-22 0)
(1.60701e-06 -2.03776e-07 -5.86342e-22 -3.79378e-07 -1.4658e-22 0)
(1.60073e-06 -1.74652e-07 4.47545e-22 -3.34814e-07 8.33828e-23 0)
(1.58919e-06 -1.43494e-07 -1.94938e-21 -2.84969e-07 -4.76301e-22 0)
(1.57522e-06 -1.08797e-07 8.093e-22 -2.28964e-07 2.46827e-22 0)
(1.55126e-06 -7.07969e-08 -3.72929e-22 -1.65557e-07 -1.04341e-22 0)
(1.52977e-06 -2.32247e-08 1.74045e-22 -9.42209e-08 5.66357e-23 2.65731e-40)
(1.76368e-06 -7.69571e-07 -4.217e-22 -1.00698e-06 -5.43069e-22 0)
(1.72153e-06 -7.2119e-07 -6.55515e-22 -9.443e-07 4.17144e-22 0)
(1.70237e-06 -6.71128e-07 -6.58011e-22 -8.86135e-07 2.01321e-22 0)
(1.68265e-06 -6.26571e-07 -4.95627e-22 -8.37521e-07 -5.29766e-22 0)
(1.67208e-06 -5.80552e-07 1.08607e-21 -7.91519e-07 7.93991e-22 0)
(1.66301e-06 -5.38798e-07 1.12791e-21 -7.50474e-07 2.03503e-22 0)
(1.65832e-06 -4.98473e-07 1.77422e-21 -7.12014e-07 1.31396e-22 0)
(1.6548e-06 -4.6106e-07 -2.24185e-21 -6.75816e-07 -3.95811e-22 0)
(1.65297e-06 -4.25621e-07 -1.48099e-21 -6.40889e-07 -3.12966e-23 0)
(1.65144e-06 -3.92175e-07 -1.62178e-22 -6.06527e-07 -3.91955e-22 0)
(1.64995e-06 -3.60181e-07 2.12462e-21 -5.72028e-07 2.37792e-22 0)
(1.64784e-06 -3.29209e-07 -4.05873e-22 -5.36719e-07 -3.72039e-22 0)
(1.64456e-06 -2.98706e-07 -1.25867e-21 -4.99959e-07 -1.81065e-22 0)
(1.63981e-06 -2.6801e-07 5.85137e-22 -4.61098e-07 2.8468e-22 0)
(1.63268e-06 -2.36465e-07 -8.31406e-22 -4.1947e-07 -1.5644e-22 0)
(1.62349e-06 -2.03103e-07 -4.43814e-22 -3.74384e-07 -9.68382e-23 0)
(1.61003e-06 -1.67201e-07 -1.76066e-22 -3.25074e-07 -7.16896e-23 0)
(1.59497e-06 -1.27e-07 9.0956e-22 -2.70766e-07 2.40372e-22 0)
(1.57128e-06 -8.27728e-08 1.10708e-21 -2.10453e-07 3.65198e-22 0)
(1.55076e-06 -2.72788e-08 -8.71822e-22 -1.43761e-07 -5.91524e-22 -2.66326e-36)
(1.97987e-06 -7.57779e-07 -1.84658e-22 -1.15755e-06 1.72225e-22 0)
(1.90896e-06 -7.28341e-07 3.74615e-22 -1.08552e-06 2.08636e-22 0)
(1.86857e-06 -6.86871e-07 1.91976e-21 -1.01354e-06 2.42657e-22 0)
(1.82641e-06 -6.5111e-07 -3.05295e-21 -9.52601e-07 -6.13572e-22 0)
(1.79764e-06 -6.10138e-07 -2.11638e-22 -8.94892e-07 2.3617e-22 0)
(1.77146e-06 -5.71828e-07 2.05168e-22 -8.42831e-07 -2.24341e-22 0)
(1.75213e-06 -5.33458e-07 2.16997e-21 -7.94655e-07 6.89699e-22 0)
(1.73564e-06 -4.96822e-07 8.67818e-22 -7.49765e-07 9.01121e-23 0)
(1.72254e-06 -4.61395e-07 -1.19433e-21 -7.07343e-07 -5.53935e-22 0)
(1.71123e-06 -4.27296e-07 -5.24685e-22 -6.66556e-07 -2.6173e-22 0)
(1.70128e-06 -3.94186e-07 -8.48949e-22 -6.26688e-07 -1.11541e-22 0)
(1.6919e-06 -3.61685e-07 2.24803e-22 -5.87008e-07 1.16411e-22 0)
(1.68245e-06 -3.29299e-07 7.32783e-22 -5.46853e-07 3.45053e-22 0)
(1.67253e-06 -2.96355e-07 0 -5.05564e-07 0 0)
(1.66121e-06 -2.6218e-07 1.5533e-22 -4.62506e-07 -1.27589e-22 0)
(1.64877e-06 -2.25726e-07 8.49178e-22 -4.17045e-07 2.08362e-22 0)
(1.63314e-06 -1.86217e-07 -4.11825e-22 -3.68525e-07 -6.31269e-23 0)
(1.61682e-06 -1.41698e-07 -1.52689e-21 -3.16307e-07 -5.3927e-22 0)
(1.59342e-06 -9.24766e-08 1.29473e-21 -2.59654e-07 4.68057e-22 0)
(1.57393e-06 -3.06117e-08 -3.93724e-22 -1.98372e-07 -3.48986e-22 -7.72613e-37)
(2.18448e-06 -6.93371e-07 1.84111e-21 -1.29011e-06 2.29543e-22 0)
(2.09022e-06 -6.90287e-07 -1.46425e-21 -1.21615e-06 -3.19309e-22 0)
(2.03307e-06 -6.63348e-07 1.32416e-21 -1.13709e-06 6.3491e-22 0)
(1.97125e-06 -6.41064e-07 4.34553e-22 -1.06708e-06 1.96879e-22 0)
(1.92574e-06 -6.10373e-07 -3.38554e-21 -1.00082e-06 -1.25359e-21 0)
(1.88366e-06 -5.79445e-07 7.90812e-22 -9.39495e-07 3.55565e-22 0)
(1.84999e-06 -5.46813e-07 8.91078e-22 -8.82717e-07 1.13318e-22 0)
(1.82068e-06 -5.14055e-07 3.18966e-21 -8.29642e-07 8.7451e-22 0)
(1.7961e-06 -4.81318e-07 -8.33141e-22 -7.79784e-07 -1.11009e-22 0)
(1.7747e-06 -4.48807e-07 -2.32786e-22 -7.32357e-07 1.77743e-22 0)
(1.75589e-06 -4.16472e-07 2.2606e-22 -6.86722e-07 -1.59988e-22 0)
(1.73883e-06 -3.8405e-07 -2.23262e-22 -6.42194e-07 1.40063e-22 0)
(1.7228e-06 -3.51172e-07 2.59061e-22 -5.98145e-07 3.61529e-22 0)
(1.70733e-06 -3.17216e-07 2.98464e-21 -5.53961e-07 7.52724e-22 0)
(1.6915e-06 -2.81546e-07 -1.27085e-21 -5.09069e-07 -4.079e-22 0)
(1.67554e-06 -2.4308e-07 -2.44274e-21 -4.6292e-07 -6.55682e-22 0)
(1.65754e-06 -2.01031e-07 2.00326e-21 -4.15004e-07 6.69728e-22 0)
(1.63986e-06 -1.5329e-07 3.90285e-22 -3.64845e-07 1.20585e-22 0)
(1.61681e-06 -1.00206e-07 -1.15106e-21 -3.12041e-07 -4.57599e-22 0)
(1.59855e-06 -3.33201e-08 3.43865e-22 -2.56662e-07 2.07238e-22 -4.06916e-39)
(2.36654e-06 -5.8834e-07 -1.69764e-21 -1.39245e-06 -6.70039e-22 0)
(2.25497e-06 -6.15308e-07 -6.00867e-22 -1.31922e-06 1.23345e-22 0)
(2.18588e-06 -6.09255e-07 5.40439e-22 -1.24045e-06 -1.36012e-22 0)
(2.10907e-06 -6.02073e-07 1.93236e-21 -1.16411e-06 3.79754e-22 0)
(2.0487e-06 -5.85117e-07 -1.35536e-21 -1.09207e-06 -2.53508e-22 0)
(1.99307e-06 -5.63636e-07 -1.01313e-21 -1.0236e-06 9.94888e-23 0)
(1.94623e-06 -5.388e-07 0 -9.59904e-07 0 0)
(1.90522e-06 -5.11769e-07 1.59662e-21 -9.00274e-07 4.91353e-22 0)
(1.86986e-06 -4.83462e-07 2.32612e-21 -8.44415e-07 8.22359e-22 0)
(1.83888e-06 -4.54229e-07 8.47525e-22 -7.91664e-07 1.34896e-22 0)
(1.81151e-06 -4.24272e-07 -1.4825e-21 -7.41417e-07 -4.53988e-22 0)
(1.78692e-06 -3.93463e-07 -2.52498e-21 -6.93045e-07 -4.63806e-22 0)
(1.76433e-06 -3.61542e-07 -1.24166e-21 -6.45967e-07 -5.80752e-22 0)
(1.74327e-06 -3.27957e-07 2.38658e-21 -5.99635e-07 5.36624e-22 0)
(1.72284e-06 -2.92118e-07 2.64832e-21 -5.53572e-07 9.03049e-22 0)
(1.70323e-06 -2.52949e-07 -1.25982e-21 -5.07344e-07 -4.49396e-22 0)
(1.68278e-06 -2.09678e-07 -4.6092e-22 -4.60628e-07 -2.06984e-22 0)
(1.66364e-06 -1.60125e-07 1.64439e-21 -4.13146e-07 6.66223e-22 0)
(1.64097e-06 -1.047e-07 -1.50602e-21 -3.64829e-07 -6.65275e-22 0)
(1.62379e-06 -3.49085e-08 3.09435e-24 -3.15932e-07 2.12996e-24 -2.66384e-43)
(2.50736e-06 -4.44377e-07 1.37342e-21 -1.46652e-06 3.69119e-22 0)
(2.39721e-06 -4.91773e-07 -1.03887e-21 -1.39996e-06 -2.08663e-22 0)
(2.32009e-06 -5.15735e-07 3.67313e-23 -1.33414e-06 -2.61043e-22 0)
(2.2368e-06 -5.27965e-07 -5.23191e-22 -1.26002e-06 1.00738e-22 0)
(2.16384e-06 -5.3092e-07 -9.62444e-22 -1.18704e-06 7.23686e-24 0)
(2.09692e-06 -5.2486e-07 -8.43321e-22 -1.11487e-06 -4.99704e-22 0)
(2.03781e-06 -5.12608e-07 -7.02785e-22 -1.04558e-06 -7.75803e-22 0)
(1.98557e-06 -4.95338e-07 -4.98217e-23 -9.79674e-07 3.81355e-23 0)
(1.93974e-06 -4.74468e-07 5.3462e-23 -9.17336e-07 -2.94807e-23 0)
(1.8994e-06 -4.50818e-07 1.6706e-21 -8.58412e-07 2.93505e-22 0)
(1.86371e-06 -4.2495e-07 2.11278e-21 -8.02541e-07 8.73663e-22 0)
(1.83185e-06 -3.97062e-07 -1.33215e-21 -7.49274e-07 -6.58407e-22 0)
(1.803e-06 -3.67117e-07 -2.10333e-21 -6.98146e-07 -7.90586e-22 0)
(1.77662e-06 -3.34741e-07 -1.37813e-21 -6.48703e-07 -4.80919e-22 0)
(1.75186e-06 -2.99452e-07 5.6276e-22 -6.00585e-07 2.74392e-22 0)
(1.72886e-06 -2.60251e-07 2.6415e-23 -5.53482e-07 2.92273e-24 0)
(1.70621e-06 -2.16407e-07 -7.50177e-22 -5.07279e-07 -2.6119e-22 0)
(1.68591e-06 -1.65724e-07 1.44764e-23 -4.61919e-07 3.59665e-24 0)
(1.664e-06 -1.08625e-07 7.28449e-22 -4.17693e-07 3.37767e-22 0)
(1.64856e-06 -3.63937e-08 -1.96005e-22 -3.75124e-07 -1.52018e-22 -2.33905e-39)
(2.58674e-06 -3.25165e-07 4.98946e-22 -1.48193e-06 2.89626e-22 0)
(2.48515e-06 -3.6515e-07 9.9349e-22 -1.41437e-06 6.8005e-22 0)
(2.40155e-06 -4.11977e-07 1.03112e-21 -1.35857e-06 3.02151e-22 0)
(2.31948e-06 -4.37949e-07 2.78419e-22 -1.29335e-06 4.54784e-23 0)
(2.24314e-06 -4.54744e-07 3.66261e-22 -1.22515e-06 4.8879e-22 0)
(2.17258e-06 -4.61588e-07 9.39661e-23 -1.15643e-06 -3.20267e-22 0)
(2.1085e-06 -4.60784e-07 -1.91942e-21 -1.08867e-06 -7.12159e-22 0)
(2.05062e-06 -4.5362e-07 -6.85911e-22 -1.02304e-06 -1.53213e-22 0)
(1.99872e-06 -4.41358e-07 6.82704e-22 -9.60049e-07 1.48237e-22 0)
(1.95222e-06 -4.2493e-07 -8.382e-22 -8.99911e-07 -1.69085e-22 0)
(1.91053e-06 -4.04997e-07 2.13631e-21 -8.42585e-07 9.36522e-22 0)
(1.87301e-06 -3.81907e-07 1.30982e-21 -7.87893e-07 5.15971e-22 0)
(1.83899e-06 -3.5577e-07 -1.92145e-22 -7.35606e-07 1.4698e-22 0)
(1.80805e-06 -3.26367e-07 4.82709e-22 -6.85481e-07 2.94315e-22 0)
(1.7795e-06 -2.93346e-07 7.64038e-22 -6.37361e-07 2.21131e-22 0)
(1.75349e-06 -2.55867e-07 -5.36055e-23 -5.91145e-07 -1.45215e-23 0)
(1.72894e-06 -2.13312e-07 4.56087e-22 -5.46958e-07 2.3484e-22 0)
(1.70761e-06 -1.63659e-07 2.42235e-22 -5.05e-07 7.45911e-23 0)
(1.68642e-06 -1.07441e-07 -7.29824e-22 -4.65958e-07 -3.51072e-22 0)
(1.67217e-06 -3.60927e-08 -3.58989e-22 -4.3045e-07 -3.98193e-22 -6.16502e-37)
(2.55779e-06 -2.29794e-07 -3.41459e-21 -1.42634e-06 -1.10642e-21 0)
(2.49031e-06 -2.74013e-07 -1.67794e-21 -1.39195e-06 -9.71054e-22 0)
(2.41574e-06 -3.24472e-07 1.46851e-21 -1.34351e-06 7.7719e-23 0)
(2.34308e-06 -3.58888e-07 -8.13507e-22 -1.28807e-06 5.23924e-22 0)
(2.27247e-06 -3.83472e-07 -1.56554e-21 -1.22724e-06 -7.87471e-22 0)
(2.20556e-06 -3.98409e-07 1.89395e-21 -1.16444e-06 4.72947e-22 0)
(2.14317e-06 -4.05336e-07 -1.75199e-35 -1.10122e-06 -7.07032e-36 0)
(2.0855e-06 -4.05432e-07 -2.00255e-21 -1.03894e-06 -1.09757e-21 0)
(2.03268e-06 -3.998e-07 -3.78006e-36 -9.78363e-07 -2.94046e-36 0)
(1.98446e-06 -3.89296e-07 -5.28668e-22 -9.19947e-07 -3.94985e-22 0)
(1.94054e-06 -3.74552e-07 -5.17109e-22 -8.63899e-07 -3.70921e-22 0)
(1.90054e-06 -3.55942e-07 8.16007e-22 -8.10285e-07 2.00711e-22 0)
(1.864e-06 -3.3363e-07 -8.00321e-22 -7.59097e-07 -2.1e-22 0)
(1.83069e-06 -3.07494e-07 -2.33337e-35 -7.10309e-07 -7.20545e-36 0)
(1.8001e-06 -2.7729e-07 7.72883e-22 -6.63965e-07 2.41083e-22 0)