/*--------------------------------*- C++ -*----------------------------------*\
| =========                 |                                                 |
| \\      /  F ield         | foam-extend: Open Source CFD                    |
|  \\    /   O peration     | Version:     4.1                                |
|   \\  /    A nd           | Web:         http://www.foam-extend.org         |
|    \\/     M anipulation  |                                                 |
\*---------------------------------------------------------------------------*/
FoamFile
{
    version     2.0;
    format      ascii;
    class       volScalarField;
    location    "4";
    object      epsilonEq;
}
// * * * * * * * * * * * * * * * * * * * * * * * * * * * * * * * * * * * * * //

dimensions      [0 0 0 0 0 0 0];

internalField   nonuniform List<scalar> 
1000
(
1.84342e-06
2.10193e-06
2.30877e-06
2.46542e-06
2.53822e-06
2.56665e-06
2.56237e-06
2.5384e-06
2.50617e-06
2.46099e-06
2.3075e-06
2.34487e-06
2.43526e-06
2.53262e-06
2.57353e-06
2.58453e-06
2.56962e-06
2.54078e-06
2.50079e-06
2.45987e-06
2.75975e-06
2.58607e-06
2.5481e-06
2.57432e-06
2.57561e-06
2.56434e-06
2.53621e-06
2.5001e-06
2.45449e-06
2.41208e-06
3.18626e-06
2.81697e-06
2.64707e-06
2.59428e-06
2.54986e-06
2.51253e-06
2.46919e-06
2.42515e-06
2.37469e-06
2.33188e-06
3.57508e-06
3.02977e-06
2.73174e-06
2.59653e-06
2.50233e-06
2.4359e-06
2.37588e-06
2.32319e-06
2.26899e-06
2.22568e-06
3.91584e-06
3.21776e-06
2.80213e-06
2.58626e-06
2.44098e-06
2.34378e-06
2.26599e-06
2.20404e-06
2.1464e-06
2.10222e-06
4.1996e-06
3.3752e-06
2.85821e-06
2.56885e-06
2.37477e-06
2.24708e-06
2.15137e-06
2.0798e-06
2.01894e-06
1.97328e-06
4.41901e-06
3.49749e-06
2.90022e-06
2.54991e-06
2.3135e-06
2.15832e-06
2.04602e-06
1.96524e-06
1.90138e-06
1.85379e-06
4.56842e-06
3.58101e-06
2.92809e-06
2.53409e-06
2.26617e-06
2.08982e-06
1.96441e-06
1.87609e-06
1.80976e-06
1.76031e-06
4.64333e-06
3.62244e-06
2.9407e-06
2.52365e-06
2.23871e-06
2.05066e-06
1.91786e-06
1.82523e-06
1.75747e-06
1.70693e-06
1.69341e-06
1.12184e-06
8.03367e-07
6.71047e-07
6.23371e-07
6.32532e-07
6.66685e-07
7.15996e-07
7.69193e-07
8.23203e-07
1.62231e-06
1.11772e-06
8.76488e-07
8.06692e-07
7.93662e-07
8.13163e-07
8.43485e-07
8.82105e-07
9.20872e-07
9.6389e-07
1.47952e-06
1.11195e-06
1.00124e-06
1.01508e-06
1.0418e-06
1.07365e-06
1.10122e-06
1.12919e-06
1.15183e-06
1.18213e-06
1.27395e-06
1.11609e-06
1.15837e-06
1.25071e-06
1.31147e-06
1.35439e-06
1.38055e-06
1.40023e-06
1.40938e-06
1.42856e-06
1.02001e-06
1.14336e-06
1.33168e-06
1.48807e-06
1.5754e-06
1.627e-06
1.65204e-06
1.66493e-06
1.6631e-06
1.67262e-06
7.50351e-07
1.20617e-06
1.51008e-06
1.71311e-06
1.81925e-06
1.87655e-06
1.90004e-06
1.90683e-06
1.89596e-06
1.89668e-06
5.60924e-07
1.31241e-06
1.68686e-06
1.91797e-06
2.03485e-06
2.09453e-06
2.11559e-06
2.11661e-06
2.09833e-06
2.09077e-06
6.37549e-07
1.46244e-06
1.85744e-06
2.09752e-06
2.21666e-06
2.27486e-06
2.29235e-06
2.28755e-06
2.26376e-06
2.24788e-06
9.61535e-07
1.6505e-06
2.01915e-06
2.24929e-06
2.36197e-06
2.41481e-06
2.42725e-06
2.41704e-06
2.38919e-06
2.36681e-06
1.38536e-06
1.86712e-06
2.16991e-06
2.37162e-06
2.46859e-06
2.51109e-06
2.516e-06
2.49839e-06
2.46903e-06
2.43401e-06
8.78512e-07
9.24568e-07
9.68084e-07
1.00767e-06
1.04252e-06
1.07313e-06
1.09913e-06
1.12072e-06
1.13783e-06
1.15048e-06
1.15857e-06
1.16202e-06
1.16054e-06
1.15403e-06
1.14179e-06
1.12401e-06
1.09885e-06
1.06825e-06
1.02644e-06
9.83071e-07
9.9914e-07
1.02264e-06
1.04949e-06
1.07511e-06
1.09871e-06
1.12014e-06
1.13864e-06
1.15407e-06
1.16609e-06
1.17452e-06
1.17909e-06
1.17959e-06
1.17565e-06
1.16708e-06
1.15312e-06
1.13395e-06
1.10768e-06
1.07625e-06
1.03397e-06
9.90429e-07
1.19134e-06
1.18385e-06
1.18616e-06
1.19052e-06
1.19627e-06
1.20273e-06
1.20872e-06
1.21366e-06
1.21692e-06
1.21798e-06
1.21637e-06
1.21167e-06
1.20336e-06
1.19113e-06
1.17415e-06
1.15251e-06
1.12434e-06
1.0915e-06
1.04853e-06
1.00481e-06
1.41394e-06
1.37689e-06
1.3539e-06
1.3356e-06
1.32137e-06
1.31048e-06
1.3015e-06
1.29355e-06
1.28579e-06
1.27741e-06
1.26775e-06
1.25619e-06
1.24206e-06
1.22492e-06
1.20386e-06
1.17889e-06
1.14818e-06
1.1135e-06
1.0697e-06
1.02589e-06
1.63839e-06
1.57731e-06
1.53175e-06
1.49275e-06
1.45944e-06
1.43132e-06
1.40708e-06
1.38558e-06
1.366e-06
1.34728e-06
1.32868e-06
1.3094e-06
1.28866e-06
1.26591e-06
1.24018e-06
1.21141e-06
1.17783e-06
1.14113e-06
1.0966e-06
1.053e-06
1.8472e-06
1.76903e-06
1.70529e-06
1.64921e-06
1.59958e-06
1.55603e-06
1.51777e-06
1.48342e-06
1.45233e-06
1.42332e-06
1.39564e-06
1.36837e-06
1.34072e-06
1.31203e-06
1.28135e-06
1.24855e-06
1.212e-06
1.17331e-06
1.12831e-06
1.08539e-06
2.03025e-06
1.94206e-06
1.86524e-06
1.79566e-06
1.73305e-06
1.6763e-06
1.62584e-06
1.57993e-06
1.53834e-06
1.49977e-06
1.46355e-06
1.42871e-06
1.39444e-06
1.36006e-06
1.32465e-06
1.28804e-06
1.24879e-06
1.20845e-06
1.16348e-06
1.12184e-06
2.1804e-06
2.08908e-06
2.00646e-06
1.92767e-06
1.85654e-06
1.78982e-06
1.7297e-06
1.67417e-06
1.62339e-06
1.5762e-06
1.53201e-06
1.48998e-06
1.44933e-06
1.40942e-06
1.36939e-06
1.3291e-06
1.28734e-06
1.24562e-06
1.20113e-06
1.16139e-06
2.29716e-06
2.20462e-06
2.12309e-06
2.03808e-06
1.9612e-06
1.88718e-06
1.81944e-06
1.75642e-06
1.69831e-06
1.64424e-06
1.59365e-06
1.54578e-06
1.49992e-06
1.45549e-06
1.41175e-06
1.36861e-06
1.32513e-06
1.28282e-06
1.23961e-06
1.20244e-06
2.37646e-06
2.28891e-06
2.21671e-06
2.13391e-06
2.05539e-06
1.97813e-06
1.90495e-06
1.83588e-06
1.77123e-06
1.71072e-06
1.65394e-06
1.60037e-06
1.54938e-06
1.5005e-06
1.4531e-06
1.40718e-06
1.36211e-06
1.31939e-06
1.27781e-06
1.2438e-06
2.4072e-06
2.31818e-06
2.24944e-06
2.17338e-06
2.09775e-06
2.0231e-06
1.95089e-06
1.88171e-06
1.81596e-06
1.75367e-06
1.69469e-06
1.63873e-06
1.58542e-06
1.53447e-06
1.48551e-06
1.4387e-06
1.39373e-06
1.35214e-06
1.31345e-06
1.28325e-06
2.34601e-06
2.29306e-06
2.23131e-06
2.16575e-06
2.09764e-06
2.02922e-06
1.96173e-06
1.89603e-06
1.83269e-06
1.77196e-06
1.71391e-06
1.65847e-06
1.60549e-06
1.55491e-06
1.50659e-06
1.46086e-06
1.41774e-06
1.37882e-06
1.34423e-06
1.31897e-06
2.2957e-06
2.25207e-06
2.20263e-06
2.14639e-06
2.08658e-06
2.02485e-06
1.96281e-06
1.9014e-06
1.84137e-06
1.78314e-06
1.72697e-06
1.67299e-06
1.62124e-06
1.57186e-06
1.52491e-06
1.48089e-06
1.44012e-06
1.40419e-06
1.37374e-06
1.353e-06
2.23856e-06
2.20512e-06
2.16492e-06
2.11682e-06
2.06469e-06
2.00953e-06
1.95321e-06
1.89658e-06
1.84055e-06
1.78563e-06
1.73222e-06
1.68062e-06
1.63103e-06
1.58373e-06
1.53899e-06
1.49744e-06
1.45963e-06
1.42712e-06
1.40095e-06
1.38461e-06
2.17679e-06
2.15162e-06
2.12001e-06
2.07977e-06
2.0352e-06
1.9867e-06
1.93632e-06
1.88484e-06
1.83329e-06
1.78222e-06
1.73219e-06
1.68359e-06
1.63677e-06
1.59215e-06
1.55014e-06
1.51147e-06
1.47688e-06
1.44788e-06
1.42578e-06
1.41342e-06
2.11327e-06
2.09522e-06
2.07083e-06
2.03754e-06
1.99981e-06
1.95762e-06
1.91309e-06
1.86689e-06
1.82008e-06
1.77328e-06
1.7271e-06
1.68202e-06
1.63851e-06
1.59706e-06
1.55823e-06
1.5228e-06
1.49165e-06
1.46621e-06
1.44797e-06
1.43917e-06
2.04949e-06
2.03734e-06
2.01911e-06
1.99209e-06
1.96063e-06
1.92443e-06
1.88557e-06
1.84463e-06
1.80269e-06
1.76036e-06
1.71831e-06
1.67708e-06
1.63721e-06
1.59925e-06
1.56387e-06
1.53186e-06
1.5042e-06
1.4822e-06
1.46748e-06
1.46173e-06
1.98679e-06
1.97942e-06
1.96636e-06
1.94483e-06
1.91896e-06
1.8883e-06
1.85483e-06
1.81902e-06
1.78195e-06
1.7442e-06
1.70646e-06
1.6693e-06
1.63329e-06
1.59905e-06
1.56728e-06
1.53878e-06
1.51457e-06
1.49585e-06
1.48428e-06
1.48106e-06
1.92596e-06
1.9224e-06
1.91362e-06
1.8969e-06
1.87603e-06
1.85049e-06
1.82209e-06
1.79125e-06
1.75896e-06
1.72579e-06
1.69242e-06
1.65943e-06
1.6274e-06
1.59697e-06
1.56886e-06
1.54385e-06
1.52298e-06
1.50729e-06
1.49845e-06
1.49726e-06
1.86744e-06
1.86689e-06
1.86166e-06
1.84911e-06
1.8327e-06
1.81185e-06
1.7882e-06
1.76209e-06
1.73445e-06
1.7058e-06
1.6768e-06
1.64799e-06
1.61997e-06
1.59337e-06
1.56889e-06
1.54729e-06
1.52956e-06
1.51665e-06
1.51012e-06
1.51047e-06
1.81144e-06
1.81327e-06
1.81098e-06
1.80209e-06
1.78967e-06
1.77313e-06
1.75392e-06
1.73232e-06
1.70916e-06
1.68492e-06
1.6602e-06
1.63552e-06
1.61147e-06
1.58862e-06
1.56768e-06
1.54934e-06
1.53454e-06
1.5241e-06
1.51948e-06
1.52094e-06
1.75797e-06
1.76172e-06
1.76194e-06
1.75629e-06
1.74748e-06
1.73492e-06
1.71987e-06
1.70254e-06
1.68367e-06
1.66368e-06
1.64312e-06
1.62246e-06
1.60226e-06
1.58306e-06
1.5655e-06
1.55023e-06
1.53812e-06
1.52984e-06
1.52676e-06
1.52892e-06
1.70691e-06
1.71239e-06
1.71476e-06
1.71204e-06
1.70657e-06
1.69772e-06
1.68658e-06
1.6733e-06
1.65851e-06
1.64259e-06
1.62602e-06
1.60923e-06
1.59273e-06
1.577e-06
1.56263e-06
1.55021e-06
1.54051e-06
1.5341e-06
1.5322e-06
1.53472e-06
1.65816e-06
1.66516e-06
1.66962e-06
1.66972e-06
1.66738e-06
1.66204e-06
1.65458e-06
1.64512e-06
1.6342e-06
1.62214e-06
1.60935e-06
1.59622e-06
1.58319e-06
1.57071e-06
1.55931e-06
1.54948e-06
1.54192e-06
1.5371e-06
1.53607e-06
1.53866e-06
1.61157e-06
1.62045e-06
1.62674e-06
1.62952e-06
1.63027e-06
1.62829e-06
1.62433e-06
1.6185e-06
1.61121e-06
1.60276e-06
1.59349e-06
1.58377e-06
1.57396e-06
1.56448e-06
1.55577e-06
1.54828e-06
1.54258e-06
1.53907e-06
1.53862e-06
1.54105e-06
1.56739e-06
1.57746e-06
1.58629e-06
1.59225e-06
1.5959e-06
1.59717e-06
1.5965e-06
1.59404e-06
1.59011e-06
1.58496e-06
1.57891e-06
1.57226e-06
1.56536e-06
1.55855e-06
1.55223e-06
1.54678e-06
1.54268e-06
1.54023e-06
1.54014e-06
1.54223e-06
1.5248e-06
1.54175e-06
1.54908e-06
1.55851e-06
1.56476e-06
1.56924e-06
1.57162e-06
1.57229e-06
1.5714e-06
1.5692e-06
1.56597e-06
1.562e-06
1.5576e-06
1.55309e-06
1.54882e-06
1.5451e-06
1.54233e-06
1.54074e-06
1.54083e-06
1.54246e-06
1.48586e-06
1.50163e-06
1.51638e-06
1.52809e-06
1.5378e-06
1.54527e-06
1.55066e-06
1.55412e-06
1.55587e-06
1.55614e-06
1.55523e-06
1.55341e-06
1.551e-06
1.54832e-06
1.54568e-06
1.54335e-06
1.54165e-06
1.54074e-06
1.54093e-06
1.54208e-06
1.44998e-06
1.46989e-06
1.48754e-06
1.50276e-06
1.51582e-06
1.52628e-06
1.53439e-06
1.54025e-06
1.54411e-06
1.54624e-06
1.54696e-06
1.54661e-06
1.54554e-06
1.54409e-06
1.54259e-06
1.54129e-06
1.54046e-06
1.54015e-06
1.54053e-06
1.5413e-06
1.42036e-06
1.44452e-06
1.46634e-06
1.48521e-06
1.50128e-06
1.51435e-06
1.5246e-06
1.53216e-06
1.53734e-06
1.54047e-06
1.54195e-06
1.54218e-06
1.54161e-06
1.54064e-06
1.53965e-06
1.53892e-06
1.53871e-06
1.539e-06
1.53981e-06
1.5406e-06
1.67063e-06
1.72033e-06
1.80743e-06
1.91947e-06
2.04131e-06
2.15914e-06
2.26188e-06
2.34172e-06
2.39603e-06
2.41688e-06
1.6403e-06
1.68393e-06
1.76116e-06
1.86222e-06
1.97478e-06
2.08711e-06
2.18926e-06
2.27203e-06
2.33245e-06
2.36107e-06
1.61573e-06
1.6539e-06
1.72174e-06
1.81132e-06
1.91244e-06
2.01519e-06
2.11195e-06
2.19481e-06
2.26337e-06
2.30807e-06
1.59539e-06
1.62863e-06
1.68805e-06
1.76734e-06
1.85809e-06
1.95168e-06
2.04153e-06
2.12017e-06
2.18742e-06
2.2413e-06
1.57723e-06
1.6061e-06
1.65792e-06
1.72768e-06
1.80854e-06
1.89327e-06
1.97639e-06
2.05165e-06
2.11669e-06
2.17371e-06
1.56077e-06
1.58582e-06
1.63096e-06
1.69219e-06
1.76381e-06
1.83976e-06
1.91515e-06
1.98542e-06
2.04656e-06
2.10447e-06
1.54495e-06
1.56669e-06
1.60599e-06
1.65969e-06
1.72304e-06
1.79107e-06
1.85922e-06
1.9244e-06
1.98091e-06
2.03664e-06
1.52932e-06
1.54818e-06
1.58239e-06
1.62941e-06
1.68524e-06
1.74584e-06
1.80693e-06
1.86672e-06
1.91866e-06
1.97111e-06
1.51329e-06
1.52969e-06
1.55951e-06
1.60073e-06
1.64992e-06
1.70387e-06
1.75849e-06
1.8129e-06
1.86025e-06
1.9086e-06
1.49645e-06
1.51073e-06
1.53675e-06
1.57291e-06
1.61624e-06
1.66417e-06
1.7129e-06
1.76213e-06
1.80518e-06
1.84927e-06
1.47836e-06
1.49084e-06
1.51362e-06
1.54541e-06
1.58366e-06
1.62627e-06
1.66975e-06
1.71411e-06
1.75316e-06
1.79306e-06
1.45864e-06
1.46958e-06
1.4896e-06
1.51766e-06
1.55152e-06
1.58947e-06
1.62836e-06
1.66829e-06
1.70373e-06
1.73975e-06
1.43677e-06
1.44643e-06
1.46414e-06
1.48905e-06
1.51922e-06
1.55318e-06
1.58812e-06
1.62415e-06
1.65644e-06
1.68898e-06
1.41239e-06
1.42098e-06
1.4368e-06
1.45911e-06
1.48622e-06
1.51686e-06
1.54855e-06
1.58127e-06
1.61092e-06
1.64052e-06
1.38473e-06
1.39246e-06
1.40679e-06
1.42705e-06
1.45176e-06
1.47977e-06
1.50891e-06
1.53903e-06
1.56665e-06
1.59389e-06
1.35353e-06
1.36062e-06
1.37384e-06
1.39259e-06
1.41555e-06
1.44167e-06
1.46903e-06
1.49731e-06
1.52365e-06
1.54938e-06
1.31723e-06
1.32389e-06
1.33644e-06
1.35428e-06
1.37623e-06
1.40129e-06
1.42775e-06
1.45522e-06
1.48105e-06
1.50664e-06
1.27647e-06
1.28294e-06
1.29524e-06
1.31278e-06
1.33449e-06
1.35936e-06
1.38586e-06
1.41335e-06
1.43978e-06
1.46536e-06
1.22695e-06
1.23355e-06
1.2462e-06
1.26433e-06
1.28689e-06
1.31288e-06
1.34085e-06
1.36994e-06
1.3985e-06
1.42598e-06
1.17377e-06
1.18082e-06
1.1944e-06
1.21392e-06
1.23834e-06
1.26665e-06
1.29738e-06
1.32954e-06
1.36151e-06
1.39244e-06
)
;

boundaryField
{
    left
    {
        type            symmetryPlane;
        value           nonuniform List<scalar> 
30
(
1.66948e-06
1.63929e-06
1.61483e-06
1.59461e-06
1.57655e-06
1.56019e-06
1.54445e-06
1.52888e-06
1.51291e-06
1.49613e-06
1.47809e-06
1.4584e-06
1.43657e-06
1.41223e-06
1.38459e-06
1.35343e-06
1.31715e-06
1.27642e-06
1.22693e-06
1.17377e-06
4.63333e-06
3.61917e-06
2.93995e-06
2.52362e-06
2.23862e-06
2.05027e-06
1.91716e-06
1.8243e-06
1.7564e-06
1.70573e-06
)
;
    }
    right
    {
        type            calculated;
        value           nonuniform List<scalar> 
30
(
9.80334e-07
9.87664e-07
1.00203e-06
1.0231e-06
1.05021e-06
1.08266e-06
1.11915e-06
1.15888e-06
1.2e-06
1.24173e-06
1.28128e-06
1.31738e-06
1.35171e-06
1.3836e-06
1.41268e-06
1.43865e-06
1.4614e-06
1.48088e-06
1.4972e-06
1.5105e-06
1.52103e-06
1.52904e-06
1.53486e-06
1.53881e-06
1.54119e-06
1.54235e-06
1.54255e-06
1.54215e-06
1.54134e-06
1.5407e-06
)
;
    }
    down
    {
        type            symmetryPlane;
        value           nonuniform List<scalar> 
30
(
1.69152e-06
1.12127e-06
7.97763e-07
6.59062e-07
6.07224e-07
6.1542e-07
6.50558e-07
7.01693e-07
7.56946e-07
8.12459e-07
8.69933e-07
9.18057e-07
9.62986e-07
1.00367e-06
1.03935e-06
1.07059e-06
1.09708e-06
1.11906e-06
1.13648e-06
1.14937e-06
1.15766e-06
1.16128e-06
1.15994e-06
1.15355e-06
1.14141e-06
1.12374e-06
1.09866e-06
1.06814e-06
1.02639e-06
9.83066e-07
)
;
    }
    up
    {
        type            calculated;
        value           nonuniform List<scalar> 
30
(
1.1721e-06
1.17913e-06
1.19272e-06
1.21225e-06
1.2367e-06
1.26506e-06
1.29584e-06
1.32811e-06
1.36013e-06
1.39126e-06
1.41928e-06
1.44364e-06
1.46559e-06
1.48459e-06
1.50078e-06
1.51395e-06
1.52428e-06
1.5319e-06
1.53713e-06
1.5403e-06
1.5418e-06
1.54205e-06
1.5415e-06
1.54054e-06
1.53957e-06
1.53886e-06
1.53867e-06
1.53897e-06
1.53979e-06
1.54053e-06
)
;
    }
    hole
    {
        type            calculated;
        value           nonuniform List<scalar> 
20
(
1.78694e-06
2.29319e-06
2.78039e-06
3.23673e-06
3.65108e-06
4.0133e-06
4.31444e-06
4.54705e-06
4.7053e-06
4.78487e-06
1.75009e-06
1.66992e-06
1.50928e-06
1.27322e-06
9.68052e-07
6.01565e-07
1.83164e-07
2.76625e-07
7.66323e-07
1.2739e-06
)
;
    }
    frontAndBack
    {
        type            empty;
    }
}


// ************************************************************************* //
