/*--------------------------------*- C++ -*----------------------------------*\
| =========                 |                                                 |
| \\      /  F ield         | foam-extend: Open Source CFD                    |
|  \\    /   O peration     | Version:     4.1                                |
|   \\  /    A nd           | Web:         http://www.foam-extend.org         |
|    \\/     M anipulation  |                                                 |
\*---------------------------------------------------------------------------*/
FoamFile
{
    version     2.0;
    format      ascii;
    class       volSymmTensorField;
    location    "4";
    object      sigma;
}
// * * * * * * * * * * * * * * * * * * * * * * * * * * * * * * * * * * * * * //

dimensions      [1 -1 -2 0 0 0 0];

internalField   nonuniform List<symmTensor> 
1000
(
(351950 -216738 -1.07469e-10 152390 -2.04045e-10 151302)
(458202 -168271 6.07584e-10 24590.1 1.31447e-10 144838)
(510138 -133562 -6.6046e-10 -32996.1 -4.71128e-10 143143)
(538578 -109079 -2.53215e-10 -71647.4 -5.8256e-11 140079)
(552372 -90449.3 -4.25025e-11 -90558.3 1.13413e-11 138544)
(557123 -76459.5 2.66612e-10 -101127 1.70003e-10 136799)
(557126 -65344 -4.77259e-10 -104853 -2.6813e-10 135682)
(553572 -56706.3 1.0459e-10 -105168 6.27502e-11 134521)
(549468 -49418.6 -1.91061e-10 -102894 -1.12343e-10 133972)
(541624 -43173.1 -2.3585e-10 -100409 -1.48514e-10 132364)
(469239 -260459 3.01687e-10 178861 -1.76675e-10 194430)
(545936 -179151 -6.10104e-10 53085.6 -1.61491e-10 179707)
(579513 -126526 -5.641e-10 -3015.03 -1.51221e-10 172950)
(593693 -91805.5 -4.39593e-10 -43146.2 -3.02727e-10 165164)
(597430 -67555.1 -9.6157e-11 -63490.6 -8.57125e-11 160182)
(594281 -50769.8 3.82334e-10 -76303.7 2.24788e-10 155393)
(588204 -38489.4 -4.47268e-10 -82064.4 -3.05619e-10 151842)
(579856 -29827.5 1.81394e-10 -84789.4 1.5349e-10 148520)
(571210 -23024.3 -3.37845e-10 -83988.6 -2.61998e-10 146166)
(560611 -18171 -1.24929e-10 -84560.2 -1.39701e-10 142815)
(596936 -292327 3.72555e-10 189519 2.2741e-11 235937)
(634981 -183962 -4.76503e-10 75920.7 -2.07874e-10 213270)
(645258 -116809 4.36878e-10 26909.1 1.96867e-10 201650)
(642455 -73918.7 -3.94331e-10 -11354.7 -1.89468e-10 189330)
(634687 -45335.5 -9.63188e-11 -31190.7 -7.28429e-11 181049)
(622932 -26529.7 -3.67792e-10 -45126.5 -2.15154e-10 173342)
(610569 -13568.8 6.77463e-16 -52286.9 -1.83205e-15 167485)
(597266 -5043.16 -1.26595e-12 -57069.8 1.67971e-12 162059)
(584722 1116.64 -2.6029e-11 -57904.2 -1.23485e-10 158045)
(570766 5598.08 4.04036e-11 -61007.1 -3.06332e-11 152928)
(729716 -308559 1.28745e-09 186317 -2.56465e-10 274810)
(722461 -181659 2.73646e-10 93197 2.0401e-10 244697)
(705892 -104867 2.05534e-10 55812.4 1.9045e-10 228511)
(684288 -56725.6 1.1934e-10 22170.1 8.31029e-11 211937)
(664102 -25555.4 8.62179e-10 4389.03 5.16079e-10 200547)
(643454 -5698.39 -6.4869e-12 -9768.09 -1.49048e-11 190106)
(624764 7401.01 -3.08823e-12 -17930.9 1.45393e-11 182050)
(606839 15617.6 -8.17335e-12 -24465.6 1.4489e-11 174712)
(590679 21048.1 1.87756e-10 -27141.4 9.31823e-11 169061)
(574309 25022.6 -1.76535e-11 -32263.8 -3.77108e-11 162614)
(861301 -306574 -9.71715e-10 172386 2.49254e-11 310106)
(805289 -171627 4.41048e-10 105479 1.79618e-10 273230)
(760147 -91151.3 3.62592e-10 82843.8 1.76868e-10 252897)
(719054 -41293.8 3.77324e-10 55822.2 1.95106e-10 232463)
(686250 -9621.1 -2.26705e-10 41256.6 -1.20192e-10 218252)
(656834 10118.1 3.2391e-10 27605.9 1.46195e-10 205332)
(632125 22722.4 1.02387e-10 18812.8 6.18162e-11 195281)
(609941 30359.7 -1.99754e-10 10775.6 -7.36383e-11 186215)
(590711 34978.1 4.61612e-10 6191.02 1.78597e-10 179071)
(572339 38405.1 4.30413e-11 -733.768 -5.24055e-12 171482)
(984910 -285275 -1.40968e-11 151621 -1.10548e-13 340959)
(880332 -153761 -1.15074e-10 113558 -3.48517e-11 298167)
(806944 -76080.6 5.69178e-10 107069 2.45805e-10 274204)
(746935 -28328.9 1.49187e-10 87711.3 4.45096e-11 250394)
(702052 1615.37 -2.11853e-10 76989.9 -8.34893e-11 233713)
(664437 19998.2 -5.37989e-10 64325.6 -2.62762e-10 218629)
(634229 31451.9 4.43172e-12 55186.7 -7.37891e-11 206825)
(608296 38218.1 -2.85249e-11 45925 9.26932e-11 196266)
(586469 41969.9 1.46718e-10 39491.7 1.12662e-10 187788)
(566532 44805.1 3.76572e-10 31066.9 1.54454e-10 179280)
(1.09376e+06 -245191 3.66707e-10 128264 -4.76592e-11 366607)
(944575 -128517 -1.99827e-10 118398 2.8343e-11 318892)
(845385 -60037.9 1.67641e-10 127640 1.2421e-10 291908)
(768318 -18162.2 5.18666e-11 115983 -3.65063e-11 265290)
(712655 7865.11 3.01048e-10 109191 5.64634e-11 246554)
(667845 23678.1 -1.15418e-11 97728.3 -4.8753e-11 229672)
(632908 33353.9 8.97797e-11 88444.4 1.45548e-10 216406)
(603821 38968.7 3.12684e-10 78219.8 2.47857e-10 204612)
(579909 41846.3 -1.49581e-10 70115.2 -7.4787e-11 195007)
(558749 44078.8 4.30143e-11 60489.5 -7.96118e-11 185771)
(1.18162e+06 -188461 0 106436 0 386417)
(995372 -96867.3 9.65549e-10 120970 2.9249e-10 334903)
(874824 -43329 -1.01847e-09 143796 -2.79029e-10 305586)
(783760 -10699.4 -3.8625e-11 138917 -6.37944e-11 276803)
(719313 9461.42 -9.70301e-11 135615 1.01211e-11 256478)
(668711 21626.1 5.04118e-10 125321 1.88789e-10 238210)
(630021 28974.9 1.77318e-10 116014 6.82649e-11 223810)
(598471 33188.6 -2.44529e-10 105085 -4.55028e-11 211067)
(572991 35212.3 1.03521e-11 95600.5 -4.36058e-11 200578)
(550932 36826.9 -1.16913e-10 85082.8 -9.5789e-11 190804)
(1.24328e+06 -118693 6.60014e-10 89666.9 6.71636e-11 399883)
(1.03049e+06 -60289.4 -5.4231e-11 122106 -1.08672e-10 345779)
(894680 -26213.3 -3.39035e-10 154895 -6.77195e-11 314873)
(793670 -5479.94 2.82808e-10 155039 8.98919e-11 284613)
(723012 7285.59 -1.13666e-10 154341 -2.60404e-11 263206)
(668347 14957.4 -2.9027e-10 144960 -4.16731e-11 243992)
(627052 19555.2 1.87193e-13 135679 -6.86731e-11 228819)
(593812 22172.8 -3.42119e-12 124288 4.10677e-11 215430)
(567288 23375.4 -3.09757e-12 113819 2.24122e-11 204332)
(544637 24356.8 -1.19017e-10 102704 -7.52786e-11 194202)
(1.275e+06 -40562.2 -5.55031e-10 80713.2 9.87901e-11 406713)
(1.04849e+06 -20512 -4.50509e-10 122809 -1.51384e-10 351391)
(904775 -8805.77 3.4468e-10 161040 1.10503e-10 319745)
(798613 -1682.11 -5.38526e-10 163950 -6.97035e-11 288769)
(724741 2699.64 2.17342e-10 164699 -6.76071e-11 266832)
(667980 5330.05 -9.52349e-11 155842 1.45332e-11 247147)
(625347 6901.6 -1.8747e-14 146596 6.98294e-11 231583)
(591243 7794.39 -7.68108e-11 134970 4.15011e-11 217864)
(564194 8196.76 -2.69393e-10 123978 -1.12919e-10 206452)
(541252 8529.05 1.33443e-10 112539 9.91341e-12 196137)
(-32332.4 10654 -7.63519e-11 -468009 3.45626e-10 -150102)
(-19840.9 -4762.96 1.1353e-10 -308823 1.62529e-10 -98599.2)
(-4634.4 -12621.1 1.49861e-12 -211283 -7.3217e-11 -64775.2)
(28808.4 -16822.1 -6.01861e-12 -144758 5.19103e-11 -34784.9)
(60421.5 -18781.4 -6.83597e-11 -101112 -4.71909e-11 -12207.1)
(94062.5 -19469.8 9.0496e-11 -69832.6 3.73385e-11 7268.99)
(124636 -19418.8 1.26818e-11 -47807.8 1.51912e-11 23048.3)
(153745 -18972.9 -1.67598e-11 -31076.3 2.77956e-11 36800.5)
(179602 -18215 9.01343e-11 -18645.7 2.43625e-11 48287)
(203844 -17662.7 -8.37084e-12 -7868.12 -1.2047e-11 58792.7)
(-31588 29628.5 4.22148e-12 -445394 1.51063e-11 -143095)
(-10932.8 -14944.3 -1.99642e-10 -298521 -2.85797e-10 -92836.1)
(8601.07 -37539.1 1.52186e-10 -207726 1.50005e-10 -59737.6)
(43844.8 -49538.2 1.10487e-10 -145470 7.99745e-11 -30487.7)
(76108.8 -55084.9 -2.81352e-11 -104298 -3.6629e-11 -8456.88)
(109609 -56972.2 -3.01213e-10 -74517.8 -1.11213e-10 10527.2)
(139653 -56742.2 -4.97151e-12 -53329.1 -4.20543e-14 25897.3)
(168056 -55377.7 -5.08476e-11 -37049.1 -3.09333e-11 39302.1)
(192967 -53131.5 3.1898e-11 -24778.1 -1.54999e-12 50456.6)
(216583 -51480.6 7.91562e-11 -14027.5 -6.49673e-12 60766.7)
(-29780.8 42304.5 -6.18475e-11 -401722 -2.86291e-10 -129451)
(5905.71 -26503.1 -1.52227e-10 -278725 -1.33896e-10 -81845.8)
(32983.9 -61179.8 2.36975e-10 -200910 6.20561e-11 -50377.8)
(71371.4 -79449.4 5.12109e-11 -146828 5.76325e-11 -22636.8)
(104677 -87766.9 1.38761e-10 -110386 6.51609e-11 -1712.74)
(137822 -90444.5 -1.35188e-10 -83472.7 -6.76038e-11 16304.9)
(166825 -89882.4 -2.19105e-10 -63886.8 -6.29606e-11 30881.3)
(193880 -87570.2 -7.46426e-11 -48475.1 -1.68878e-11 43621.6)
(217004 -83951.2 3.76912e-12 -36523.5 -3.15371e-13 54144.1)
(239472 -81239.9 1.07622e-10 -25842.8 4.81244e-11 64088.8)
(-24243 45482 -2.22183e-10 -340278 -3.15166e-12 -109356)
(31581.9 -39917.1 1.00636e-10 -250414 -1.37844e-10 -65649.7)
(68660.1 -82585.5 -6.0126e-10 -190574 -4.60804e-10 -36574.2)
(111054 -104828 -1.35844e-10 -147877 8.91045e-12 -11046.8)
(145551 -114681 -8.24686e-12 -118038 1.77158e-11 8254.07)
(178003 -117543 1.78459e-10 -95161.1 8.03031e-11 24852.6)
(205414 -116426 -4.92603e-11 -77859 -2.64409e-13 38266.4)
(230468 -113134 1.49514e-10 -63704.6 1.00611e-10 50029.1)
(251044 -108328 -2.65425e-10 -52263.5 -5.10953e-11 59634.3)
(271811 -104627 2.38799e-10 -41712.3 3.64016e-11 69029.6)
(-12141.1 36841.3 6.00402e-11 -265769 -2.1824e-10 -83373.1)
(66288.5 -55552.8 5.01586e-10 -215306 4.62331e-10 -44705.4)
(114435 -101069 -4.77705e-10 -176859 -3.20215e-10 -18727.3)
(160943 -124387 -2.23397e-10 -147820 -1.20964e-10 3936.9)
(196397 -134228 1.97035e-10 -125931 8.31983e-11 21139.9)
(227652 -136523 2.64293e-10 -107972 1.08602e-10 35904)
(252903 -134578 1.50276e-10 -93493.6 9.74354e-11 47823)
(275327 -130281 2.65373e-10 -80931.1 8.0906e-11 58318.8)
(292746 -124520 -5.88192e-11 -70204 -6.49234e-11 66762.6)
(311261 -119942 -3.62216e-10 -59867.8 -3.61529e-11 75417.8)
(9771.34 15450.3 -5.86925e-12 -183648 1.43844e-11 -52162.9)
(110218 -73384 3.1531e-10 -175327 1.58048e-10 -19532.9)
(168876 -116095 2.55908e-10 -159760 2.30398e-10 2734.93)
(218732 -137312 -1.25588e-10 -145521 -8.42965e-11 21963.3)
(254465 -145449 -2.3022e-10 -132300 -1.01736e-10 36649.5)
(283832 -146364 -1.45272e-10 -119800 -5.80176e-11 49209.5)
(306330 -143302 2.34359e-10 -108535 1.1961e-10 59338.6)
(325529 -137993 -2.80768e-10 -97842.8 -1.50723e-10 68305.8)
(339339 -131520 4.66374e-10 -88078.6 1.41742e-10 75378.2)
(355074 -126209 1.59151e-11 -78088.8 -6.44683e-11 83095.7)
(44674.1 -18137.1 2.74778e-10 -99767.1 -5.0389e-10 -16527.9)
(163408 -92998.7 -8.69833e-10 -132660 -4.76975e-10 9224.52)
(230349 -127333 2.97132e-10 -139450 1.99624e-10 27269.5)
(281895 -143325 -2.71773e-11 -139958 7.71852e-11 42581)
(316789 -148108 1.28176e-10 -135440 6.13586e-11 54404.9)
(343401 -146874 -5.33838e-11 -128570 -1.98548e-11 64449.2)
(362553 -142432 -3.26951e-10 -120701 -1.38209e-10 72555.6)
(377983 -136147 1.88625e-10 -112114 8.33031e-11 79760.6)
(387938 -129208 -1.71568e-10 -103536 -7.52944e-11 85320.6)
(400388 -123321 3.57688e-10 -94136 8.94144e-11 91875.5)
(95232.1 -61905.5 -1.02368e-10 -19785 1.47212e-10 22634.1)
(225611 -113577 -2.83736e-10 -89467.7 -3.32394e-10 40842.9)
(297032 -134621 -4.17169e-10 -116176 -3.99252e-10 54256.8)
(347775 -142644 1.54938e-10 -130225 7.58688e-11 65264.8)
(380272 -142638 4.12916e-10 -133800 2.01814e-10 73941.6)
(403081 -138608 3.76121e-10 -132359 1.83506e-10 81216.6)
(418251 -132581 -5.86053e-11 -127935 1.11693e-11 87095)
(429420 -125401 2.15826e-10 -121588 9.15402e-11 92349.8)
(435410 -118213 -2.12259e-10 -114580 -1.52376e-10 96248.8)
(444101 -111895 7.53791e-11 -106001 7.2946e-11 101430)
(163211 -112548 2.95157e-10 51290.4 3.97453e-10 64350.3)
(296265 -133953 4.07845e-10 -47776.9 5.21309e-10 74546.3)
(367144 -137966 4.33754e-10 -90309.2 1.21677e-10 83050.5)
(413983 -135966 6.29274e-11 -115685 -6.53791e-11 89489.2)
(442270 -130125 1.31123e-11 -126125 -1.93654e-11 94843.5)
(460174 -122890 -9.4975e-12 -129589 -2.72612e-12 99175.4)
(470822 -115191 3.43169e-10 -128345 1.81394e-10 102743)
(477297 -107349 -4.58238e-10 -124438 -2.96981e-10 105858)
(479524 -100132 4.23481e-10 -119043 1.75298e-10 108144)
(483812 -93604.1 4.55788e-11 -112304 2.41504e-11 111452)
(249098 -165785 4.42367e-10 109530 -7.3914e-10 107588)
(374282 -152710 4.34002e-10 -9321.76 2.13984e-10 109488)
(438730 -137538 5.80348e-10 -62379.7 2.91579e-10 112905)
(478115 -124362 2.79364e-10 -96107 2.18866e-10 114602)
(500080 -112144 -4.41264e-10 -111768 -2.44876e-10 116494)
(511831 -101515 -3.95965e-10 -119274 -2.17259e-10 117767)
(517173 -92166.9 1.03932e-11 -120897 -6.16659e-12 118883)
(518524 -83834.2 -2.08215e-10 -119125 -1.19276e-10 119819)
(516904 -76957.4 2.16494e-10 -116026 1.99117e-10 120264)
(516027 -70449.4 2.94838e-10 -110093 6.73578e-11 121780)
(225180 -16318.2 4.37796e-11 -762.544 -1.59746e-13 67325.2)
(244587 -14593.1 8.13965e-11 6949.8 -2.4552e-11 75461)
(262014 -13219.2 4.3855e-12 13416.8 -5.75262e-14 82629.4)
(278041 -11952.8 -6.95201e-11 19576.6 -3.75287e-11 89285.4)
(292546 -10824.6 -2.77188e-10 25507.9 -1.28168e-11 95416.1)
(305822 -9825.48 -4.21857e-11 31376.1 5.05739e-11 101159)
(317940 -8926.88 2.45294e-10 37351.7 2.61368e-11 106587)
(329032 -8124.07 -2.46089e-10 43517.9 -1.37866e-11 111765)
(339192 -7395.26 2.18202e-11 50001.5 7.38898e-11 116758)
(348499 -6730.76 1.35046e-10 56885.9 2.51121e-11 121616)
(357012 -6114.71 2.29508e-11 64274.9 6.95327e-11 126386)
(364792 -5535.33 2.6733e-10 72271.5 2.52853e-11 131119)
(371836 -4979.26 2.4497e-10 80974.8 -4.79644e-11 135843)
(378228 -4433.17 -2.65979e-10 90534.4 -2.33386e-11 140629)
(383825 -3884.03 -3.95039e-10 101035 6.83997e-13 145458)
(388874 -3315.16 2.09188e-10 112748 3.34279e-11 150486)
(392805 -2713.48 -5.18962e-12 125648 -1.15235e-11 155536)
(396570 -2050.93 1.45679e-10 140374 2.81163e-11 161083)
(398076 -1331.46 1.21893e-10 156401 -1.19033e-12 166343)
(401103 -433.224 3.04136e-11 175519 3.16372e-12 172987)
(236386 -47563.4 1.24451e-12 -6549.5 1.37009e-12 68950.8)
(253795 -42619.3 -1.17538e-10 1786.86 -1.30747e-11 76674.7)
(269813 -38664.8 6.07626e-11 8879.82 1.35455e-11 83607.8)
(284523 -35021 1.94866e-10 15512.5 6.65053e-11 90010.6)
(297995 -31760.8 -1.13895e-10 21909.4 -4.29209e-13 95971.3)
(310359 -28871.4 -1.66818e-10 28141.6 -5.42713e-11 101550)
(321732 -26263.8 1.11876e-10 34444.8 5.36246e-11 106853)
(332177 -23930.4 2.88835e-11 40873.6 2.61335e-11 111915)
(341795 -21806.5 -2.58563e-10 47578.6 -8.08518e-11 116812)
(350634 -19866.2 -1.54148e-10 54637.8 -2.83381e-11 121581)
(358748 -18063.3 -3.42359e-12 62163.6 -9.63747e-14 126273)
(366182 -16364.4 4.7279e-10 70259 3.95834e-11 130932)
(372930 -14730.5 2.17737e-11 79026 2.16288e-11 135587)
(379065 -13122.7 -1.10378e-10 88614 2.27561e-11 140304)
(384443 -11503.1 -2.39883e-11 99107.6 -2.64425e-11 145065)
(389305 -9822.33 -2.55801e-11 110776 -2.29214e-11 150024)
(393083 -8042.13 -9.13818e-11 123592 2.05358e-11 155002)
(396719 -6079.11 -6.61576e-11 138187 -6.03062e-12 160472)
(398141 -3946.27 3.68251e-10 154033 5.0349e-11 165652)
(401098 -1283.96 9.47181e-11 172899 2.38119e-11 172199)
(256374 -75196.3 6.85244e-11 -17711.7 -1.45191e-11 71598.6)
(270175 -67734.1 1.48312e-10 -8218.76 4.57628e-11 78586.8)
(283648 -61648.7 -3.79013e-10 87.3237 -3.26881e-11 85120.7)
(295986 -56049.9 4.09443e-11 7617.71 3.03493e-11 91081.2)
(307616 -50970.7 2.08135e-10 14916.5 -1.17685e-11 96759.9)
(318344 -46460.2 -3.20546e-10 21851.5 -1.96964e-11 102059)
(328389 -42356.3 -1.70927e-10 28790.6 -3.13988e-11 107154)
(337677 -38670.9 3.85919e-10 35730.5 2.49513e-11 112022)
(346329 -35298.9 2.1866e-10 42866.9 -1.82953e-11 116759)
(354332 -32207.2 -2.85848e-10 50267.4 -3.76617e-11 121380)
(361735 -29323.7 -3.27288e-10 58060.1 -6.48042e-11 125938)
(368556 -26597.3 1.30178e-10 66348.2 7.90944e-12 130471)
(374778 -23967.2 2.24952e-10 75239.1 3.67235e-11 135005)
(380461 -21371.5 7.80343e-12 84881.8 -3.70161e-11 139603)
(385456 -18749.7 1.46058e-11 95361.1 9.63534e-12 144245)
(389993 -16021.6 -3.26363e-10 106941 -3.5834e-11 149080)
(393511 -13125.8 -1.61049e-10 119592 -4.86186e-12 153931)
(396934 -9925.85 -5.95934e-11 133931 -2.55034e-11 159260)
(398229 -6444.13 1.26582e-10 149426 2.19924e-11 164297)
(401072 -2099.03 1.1536e-10 167806 5.03164e-11 170664)
(284754 -97149.6 7.23935e-11 -32765 2.38443e-11 75596.6)
(293466 -88281 -6.63138e-11 -21987.6 -9.38261e-13 81443.4)
(303437 -80760.8 3.67372e-11 -12063.3 -3.14209e-11 87412.2)
(312408 -73873.7 -5.05284e-12 -3409.15 -3.31008e-11 92699.6)
(321451 -67466.4 2.5925e-11 5091.61 -1.49104e-11 97962.9)
(329845 -61758.5 -9.18511e-11 12957.3 -1.82845e-11 102841)
(338001 -56495.4 -1.15169e-10 20754.1 -3.42946e-11 107626)
(345632 -51741.1 -5.4082e-11 28389.4 -3.10947e-11 112206)
(352897 -47356.5 2.3543e-11 36117.7 1.50471e-11 116704)
(359697 -43312.4 1.0084e-10 43991.7 5.85804e-11 121107)
(366075 -39518.6 -1.7575e-10 52157.6 -3.74024e-11 125470)
(372009 -35912.8 1.12299e-10 60718.1 3.24415e-11 129818)
(377470 -32417.4 2.63627e-10 69785.5 2.55652e-11 134177)
(382497 -28951.9 -1.06542e-10 79507.2 -3.07853e-11 138601)
(386935 -25436.9 -2.43801e-10 89966.7 -2.33849e-11 143070)
(390999 -21764.7 -1.52572e-10 101419 -2.94726e-11 147725)
(394138 -17853.5 1.08201e-10 113831 -5.62105e-12 152391)
(397249 -13516.8 1.30591e-10 127795 2.6349e-11 157513)
(398360 -8784.53 3.55072e-11 142778 5.65486e-12 162341)
(401035 -2870.54 -7.95223e-11 160444 -4.86903e-11 168444)
(319613 -111870 1.3929e-10 -50074.8 -2.42787e-11 80861.5)
(322190 -102975 6.60234e-11 -38283.4 -8.71968e-11 85172.1)
(328061 -94894.6 -1.49716e-10 -26521.5 2.60482e-11 90461.9)
(332922 -87561.3 -6.79068e-11 -16680.5 -2.73409e-12 94872.4)
(338839 -80455.1 2.36196e-10 -6800.63 2.82826e-11 99611.6)
(344361 -74084.5 -1.33157e-10 2146 4.25078e-11 103952)
(350185 -68093.5 -1.45643e-10 10952.2 -3.9438e-11 108341)
(355760 -62626.4 1.20332e-10 19419.7 -2.29055e-11 112554)
(361292 -57526.9 -5.82065e-11 27855.8 2.47901e-11 116744)
(366584 -52780.2 -3.42086e-12 36299.4 2.72109e-11 120865)
(371668 -48291.4 -1.30387e-10 44910.6 -1.20272e-11 124974)
(376479 -43993.3 -1.50812e-10 53793.6 -7.53073e-11 129082)
(380971 -39799.8 4.56302e-10 63064 5.53885e-11 133210)
(385159 -35616.5 5.42461e-11 72867 2.66102e-11 137408)
(388881 -31350.1 -9.02065e-11 83283.5 -2.25508e-11 141649)
(392332 -26869.6 6.88531e-11 94556.9 1.28281e-11 146067)
(394979 -22076 -2.99904e-10 106646 -7.32771e-11 150488)
(397678 -16737.9 1.24508e-10 120112 3.79734e-11 155337)
(398545 -10891.8 -5.73738e-11 134419 -1.60525e-11 159889)
(400989 -3573.02 2.67761e-11 151145 8.71319e-12 165640)
(358648 -118396 -6.48769e-11 -67607.6 -8.35491e-11 87312.1)
(354530 -110952 -1.00848e-10 -55597.1 6.4176e-11 89679.8)
(356083 -103251 -1.01232e-10 -42147.9 3.09725e-11 94180.6)
(356383 -96395.5 -7.62503e-11 -31334.8 -8.15025e-11 97514.5)
(358846 -89315.7 1.67088e-10 -20169 1.22152e-10 101603)
(361141 -82892 1.73525e-10 -10164.8 3.13082e-11 105293)
(364316 -76688.2 2.72956e-10 -351.21 2.02148e-11 109189)
(367545 -70932.2 -3.449e-10 8988.41 -6.0894e-11 112960)
(371081 -65480.2 -2.27844e-10 18179.9 -4.81486e-12 116778)
(374634 -60334.7 -2.49505e-11 27254.6 -6.03008e-11 120566)
(378215 -55412.4 3.26864e-10 36371.7 3.65834e-11 124376)
(381719 -50647.5 -6.24421e-11 45633.9 -5.72368e-11 128206)
(385079 -45954.7 -1.93641e-10 55152.8 -2.78562e-11 132070)
(388285 -41232.3 9.00211e-11 65067.6 4.3797e-11 136006)
(391166 -36379.3 -1.27909e-10 75451.5 -2.40677e-11 139985)
(393896 -31246.6 -6.8279e-11 86530.4 -1.48982e-11 144128)
(395961 -25723.2 -2.70871e-11 98252.8 -1.10292e-11 148264)
(398172 -19538.5 1.39932e-10 111136 3.69804e-11 152792)
(398753 -12734.3 1.7032e-10 124641 5.61844e-11 157018)
(400923 -4196.74 -1.34126e-10 140229 -9.10037e-11 162346)
(399479 -116581 -2.8409e-11 -83200.5 2.64961e-11 94883.7)
(388699 -112052 5.76331e-11 -71990.1 3.20979e-11 95012.6)
(386129 -105672 2.95347e-10 -57272 3.73318e-11 98657.2)
(381811 -100171 -4.69685e-10 -45729.3 -9.43958e-11 100825)
(380722 -93867.4 -3.25596e-11 -33512.8 3.63339e-11 104163)
(379681 -87973.5 3.15643e-11 -22517.1 -3.45141e-11 107149)
(380037 -82070.4 3.33842e-10 -11776.6 1.06108e-10 110478)
(380776 -76434.2 1.3351e-10 -1593.75 1.38634e-11 113755)
(382145 -70983.8 -1.83743e-10 8316.52 -8.52208e-11 117139)
(383805 -65737.8 -8.07207e-11 17991.9 -4.02662e-11 120539)
(385727 -60644.1 -1.30608e-10 27578 -1.71601e-11 123992)
(387780 -55643.9 3.45851e-11 37178.7 1.79094e-11 127488)
(389868 -50661.5 1.12736e-10 46899 5.30851e-11 131030)
(391962 -45593.1 0 56870.6 0 134650)
(393882 -40335.4 2.38969e-11 67157 -1.96291e-11 138312)
(395780 -34727 1.30643e-10 77961.7 3.20558e-11 142122)
(397168 -28648.8 -6.33577e-11 89220.5 -9.71183e-12 145917)
(398801 -21799.6 -2.34906e-10 101397 -8.29646e-11 150059)
(399039 -14227.2 1.99189e-10 113950 7.20087e-11 153897)
(400862 -4709.48 -6.05729e-11 128200 -5.36902e-11 158719)
(439270 -106672 2.83247e-10 -95281.9 3.53144e-11 103197)
(422427 -106198 -2.25269e-10 -86246.1 -4.91245e-11 100854)
(416163 -102054 2.03717e-10 -71555.1 9.76784e-11 103382)
(407596 -98625.3 6.68543e-11 -59839.2 3.02891e-11 104327)
(402989 -93903.6 -5.20853e-10 -47251.8 -1.9286e-10 106721)
(398737 -89145.4 1.21663e-10 -35595.2 5.47023e-11 108943)
(396222 -84125.1 1.37089e-10 -24194.4 1.74335e-11 111608)
(394455 -79085.3 4.90717e-10 -13286.9 1.3454e-10 114350)
(393590 -74049 -1.28176e-10 -2699.81 -1.70784e-11 117267)
(393300 -69047.3 -3.58133e-11 7599.73 2.73451e-11 120270)
(393502 -64072.6 3.47785e-11 17715.7 -2.46136e-11 123365)
(394048 -59084.6 -3.43481e-11 27736 2.15482e-11 126535)
(394813 -54026.4 3.98556e-11 37745.1 5.56199e-11 129767)
(395748 -48802.5 4.59176e-10 47856.6 1.15804e-10 133081)
(396666 -43314.7 -1.95516e-10 58116.5 -6.27539e-11 136435)
(397693 -37396.9 -3.75806e-10 68699.3 -1.00874e-10 139918)
(398376 -30927.9 3.08194e-10 79522.9 1.03035e-10 143370)
(399402 -23583.1 6.00438e-11 90986.7 1.85515e-11 147117)
(399291 -15416.2 -1.77086e-10 102544 -7.03998e-11 150551)
(400765 -5126.17 5.29024e-11 115347 3.18828e-11 154834)
(476477 -90513.9 -2.61175e-10 -101829 -1.03083e-10 112395)
(454890 -94662.8 -9.24411e-11 -94984.6 1.89761e-11 107972)
(445379 -93731.5 8.31445e-11 -81749.3 -2.09249e-11 109089)
(433505 -92626.6 2.97286e-10 -70060.2 5.84236e-11 109033)
(425565 -90017.9 -2.08518e-10 -57630.4 -3.90012e-11 110381)
(418489 -86713.2 -1.55867e-10 -45613.5 1.5306e-11 111863)
(413226 -82892.4 0 -33870.8 0 113807)
(409065 -78733.7 2.45633e-10 -22548.9 7.55928e-11 115955)
(405991 -74378.7 3.57864e-10 -11589.5 1.26517e-10 118321)
(403737 -69881.3 1.30388e-10 -961.987 2.07533e-11 120833)
(402165 -65272.6 -2.28076e-10 9407.72 -6.98443e-11 123472)
(401127 -60532.8 -3.88458e-10 19593.9 -7.13547e-11 126216)
(400478 -55621.8 -1.91025e-10 29662.5 -8.93464e-11 129042)
(400153 -50455 3.67165e-10 39706.4 8.25576e-11 131958)
(399968 -44941.2 4.07434e-10 49750.8 1.38931e-10 134916)
(400022 -38915.2 -1.93818e-10 59933.9 -6.91379e-11 137987)
(399906 -32258.2 -7.09108e-11 70151.5 -3.18436e-11 141017)
(400232 -24634.7 2.52983e-10 80726.8 1.02496e-10 144288)
(399703 -16107.8 -2.31695e-10 91119 -1.0235e-10 147247)
(400721 -5370.55 4.76054e-13 102302 3.27685e-13 150907)
(505845 -68365.7 2.11296e-10 -105521 5.67875e-11 120097)
(483870 -75657.3 -1.59826e-10 -100310 -3.2102e-11 115068)
(470700 -79343.9 5.65096e-12 -91489.1 -4.01605e-11 113763)
(456828 -81225.3 -8.04909e-11 -81143.9 1.54982e-11 112705)
(445606 -81680.1 -1.48068e-10 -69913.6 1.11336e-12 112708)
(435917 -80747.8 -1.29742e-10 -58205.5 -7.68775e-11 113314)
(427997 -78862.7 -1.08121e-10 -46371.2 -1.19354e-10 114488)
(421538 -76205.9 -7.66488e-12 -34654 5.86701e-12 116065)
(416390 -72995.1 8.22493e-12 -23159.4 -4.53549e-12 117969)
(412328 -69356.6 2.57015e-10 -11950 4.51547e-11 120113)
(409167 -65377 3.25043e-10 -1025.48 1.3441e-10 122442)
(406737 -61086.5 -2.04947e-10 9640.24 -1.01293e-10 124913)
(404868 -56479.5 -3.2359e-10 20076 -1.21629e-10 127483)
(403471 -51498.6 -2.12021e-10 30344 -7.39875e-11 130145)
(402357 -46069.5 8.65785e-11 40441.9 4.22141e-11 132840)
(401598 -40038.6 4.06384e-12 50469.3 4.49651e-13 135620)
(400832 -33293.4 -1.15412e-10 60295.3 -4.0183e-11 138338)
(400599 -25496 2.22714e-12 70164.7 5.53331e-13 141229)
(399805 -16711.5 1.12069e-10 79544.2 5.19642e-11 143805)
(400559 -5599.04 -3.01546e-11 89223.5 -2.33874e-11 146935)
(525437 -50025.4 7.67608e-11 -100511 4.45579e-11 127478)
(505882 -56176.9 1.52845e-10 -94045.1 1.04623e-10 123551)
(489813 -63381.1 1.58634e-10 -88667 4.64848e-11 120344)
(475244 -67376.7 4.28337e-11 -80576.3 6.99668e-12 118400)
(462559 -69960.6 5.63479e-11 -71025.3 7.51984e-11 117460)
(451491 -71013.5 1.44563e-11 -60664.1 -4.92719e-11 117248)
(442058 -70889.9 -2.95296e-10 -49815.6 -1.09563e-10 117673)
(434046 -69787.7 -1.05525e-10 -38824.6 -2.35713e-11 118566)
(427343 -67901.2 1.05031e-10 -27852.8 2.28057e-11 119847)
(421763 -65373.9 -1.28954e-10 -17027.1 -2.6013e-11 121421)
(417152 -62307.2 3.28663e-10 -6404.29 1.4408e-10 123224)
(413360 -58755 2.01511e-10 3990.95 7.93802e-11 125205)
(410234 -54733.8 -2.95608e-11 14143 2.26124e-11 127313)
(407689 -50210.3 7.4263e-11 24068.6 4.52793e-11 129527)
(405554 -45130.2 1.17544e-10 33729.4 3.40202e-11 131785)
(403884 -39364.2 -8.24701e-12 43171.2 -2.23408e-12 134117)
(402373 -32817.2 7.01672e-11 52235.2 3.61292e-11 136383)
(401471 -25178.4 3.7267e-11 61070 1.14756e-11 138762)
(400272 -16529.4 -1.12281e-10 69137 -5.40111e-11 140823)
(400533 -5552.72 -5.52291e-11 77052.6 -6.12605e-11 143276)
(524059 -35352.9 -5.25321e-10 -88884.9 -1.70219e-10 130552)
(509860 -42155.8 -2.58145e-10 -87411.3 -1.49393e-10 126734)
(495371 -49918.8 2.25925e-10 -82974.6 1.19568e-11 123719)
(482205 -55213.5 -1.25155e-10 -76433.6 8.06037e-11 121731)
(470214 -58995.7 -2.40852e-10 -68202.6 -1.21149e-10 120603)
(459448 -61293.7 2.91376e-10 -59014.2 7.27611e-11 120130)
(449944 -62359.4 -2.69537e-24 -49192.6 -1.08774e-24 120225)
(441604 -62374.2 -3.08084e-10 -39080.3 -1.68856e-10 120757)
(434373 -61507.7 -5.81547e-25 -28865 -4.52378e-25 121652)
(428131 -59891.7 -8.13335e-11 -18701.4 -6.07669e-11 122829)
(422773 -57623.4 -7.95552e-11 -8679.63 -5.70647e-11 124228)
(418188 -54760.3 1.2554e-10 1138.88 3.08786e-11 125798)
(414259 -51327.6 -1.23126e-10 10704.9 -3.23077e-11 127489)
(410918 -47306.8 -3.58979e-24 19995.7 -1.10853e-24 129274)
(408031 -42659.9 1.18905e-10 28943.9 3.70897e-11 131092)
(405647 -37282.5 -1.17081e-10 37546.4 -4.05224e-11 132958)
(403526 -31101.1 -7.14198e-11 45626.8 -3.82638e-11 134746)
(402055 -23846 1.13978e-10 53253.8 4.98193e-11 136593)
(400524 -15621.3 -1.3992e-24 59903.4 -6.90195e-25 138128)
(400413 -5233.28 -3.3924e-11 66026.8 -3.17317e-11 139932)
(523579 -20450.1 -1.05634e-10 -78051.1 -7.13923e-11 133658)
(510591 -28233.3 2.43295e-10 -78460 2.98288e-11 129639)
(498121 -36597 -3.19002e-10 -76014.3 -1.06588e-10 126632)
(485978 -42870.6 8.50514e-11 -71338.3 8.40379e-11 124392)
(474748 -47702.2 4.75881e-11 -64769.7 -1.54131e-10 122994)
(464340 -51131.9 -1.81e-24 -57022.7 -8.66529e-25 122195)
(454944 -53312.3 5.96418e-11 -48421 -3.56044e-11 121957)
(446489 -54402.8 -1.39259e-10 -39339.4 -3.55399e-11 122145)
(438982 -54535.1 -8.10764e-11 -29993.8 -6.55585e-11 122697)
(432344 -53828 -1.90863e-24 -20576.7 -7.66067e-25 123530)
(426508 -52369.5 -7.8627e-11 -11214 -5.83076e-11 124588)
(421397 -50218.8 -1.32872e-24 -2004.38 -3.59221e-25 125818)
(416921 -47407.6 -2.76987e-10 6969.27 -1.38795e-10 127167)
(413034 -43930.3 -1.50399e-10 15647.4 -9.69976e-11 128604)
(409631 -39764.8 4.58686e-11 23934.2 -5.55352e-12 130070)
(406762 -34830.1 4.50004e-11 31783 4.07348e-13 131563)
(404242 -29076.4 -7.21736e-11 39000 -4.03477e-11 132973)
(402400 -22276.3 -3.5752e-26 45583.5 1.39793e-26 134395)
(400700 -14557.7 -7.00968e-11 51031.2 -3.62756e-11 135519)
(400328 -4859.79 -1.47579e-10 55654.1 -1.64208e-10 136795)
(519165 -8967.29 4.24811e-11 -67892.7 -6.18923e-11 135382)
(507978 -16615.5 -1.61674e-10 -69887.7 -6.10631e-11 131427)
(497454 -25060.1 -6.67997e-25 -68654.7 -3.27372e-25 128640)
(486617 -31791.1 7.61983e-11 -65346.6 -3.11477e-11 126381)
(476458 -37275 7.91825e-11 -60097.3 7.94333e-11 124908)
(466743 -41484.1 1.28449e-24 -53592.4 3.82645e-25 123945)
(457787 -44499.1 1.70735e-25 -46128.1 -4.66704e-25 123498)
(449528 -46435.2 -6.09387e-11 -38072.6 3.01487e-11 123437)
(442038 -47389 0 -29649.3 0 123716)
(435267 -47457.7 -3.22373e-24 -21066.8 -1.38328e-24 124260)
(429194 -46716.6 0 -12472.1 0 125017)
(423768 -45220.7 2.55754e-10 -3989.45 7.5157e-11 125934)
(418934 -43003.5 4.97423e-11 4273.29 -1.39871e-11 126962)
(414664 -40068.4 -1.97868e-10 12226.9 -9.01452e-11 128067)
(410885 -36406.7 -7.401e-11 19752.7 -4.69882e-11 129191)
(407647 -31959 -1.1907e-10 26768.3 -4.57447e-11 130325)
(404823 -26697.7 -4.50616e-11 33068.6 -7.21726e-12 131367)
(402683 -20438.8 1.16055e-10 38595.1 5.38914e-11 132383)
(400855 -13326.2 1.14954e-10 42876.4 5.90449e-11 133119)
(400250 -4437.71 -1.14357e-10 46097.8 -1.31091e-10 133904)
(512209 652.514 -3.19303e-11 -58284.4 1.01666e-10 136178)
(502723 -6819.79 -6.7826e-11 -61319 -8.31835e-11 132421)
(494054 -15095.4 -2.26734e-10 -61126.9 -1.3942e-10 129878)
(484580 -21970.8 -8.08669e-11 -59060.9 2.66537e-11 127656)
(475597 -27803.4 2.23859e-10 -55049 1.27758e-10 126165)
(466738 -32508.1 1.46686e-10 -49747 4.69146e-11 125097)
(458417 -36114.5 -1.76519e-24 -43401.2 -1.04899e-24 124505)
(450574 -38692 -1.40105e-10 -36375.1 -4.25212e-11 124260)
(443326 -40302.8 1.36963e-10 -28890.4 4.11945e-11 124331)
(436653 -41019.1 -7.56694e-11 -21167.8 -6.26059e-11 124646)
(430566 -40899.6 -7.53914e-11 -13369.5 -5.94781e-11 125159)
(425041 -39991.2 5.34672e-11 -5639.99 -1.57792e-11 125820)
(420051 -38326.2 7.45376e-11 1893.22 5.35364e-11 126583)
(415584 -35913.9 0 9116.97 0 127410)
(411601 -32756.2 0 15894.9 0 128249)
(408148 -28813.6 -1.1982e-10 22115.3 -4.80317e-11 129079)
(405151 -24079.1 2.11058e-24 27566.9 1.00396e-24 129815)
(402829 -18411.9 4.56387e-11 32144.6 1.32542e-11 130492)
(400947 -11967.8 0 35411.4 0 130907)
(400177 -3971.82 -1.1545e-10 37443.1 -1.32029e-10 131286)
(503571 8252.05 2.08002e-10 -49452.3 1.25475e-10 136236)
(495683 1189.82 2.50261e-10 -53193 4.50028e-11 132747)
(488692 -6674.08 -3.07596e-10 -53737.4 -1.17354e-10 130486)
(480578 -13440.3 -1.51215e-10 -52615.7 -5.53757e-11 128389)
(472805 -19377.7 2.17402e-10 -49609.6 1.28082e-10 126959)
(464908 -24345.8 7.51033e-11 -45342.2 -2.39522e-11 125870)