/*--------------------------------*- C++ -*----------------------------------*\
| =========                 |                                                 |
| \\      /  F ield         | foam-extend: Open Source CFD                    |
|  \\    /   O peration     | Version:     4.1                                |
|   \\  /    A nd           | Web:         http://www.foam-extend.org         |
|    \\/     M anipulation  |                                                 |
\*---------------------------------------------------------------------------*/
FoamFile
{
    version     2.0;
    format      ascii;
    class       volScalarField;
    location    "4";
    object      sigmaHyd;
}
// * * * * * * * * * * * * * * * * * * * * * * * * * * * * * * * * * * * * * //

dimensions      [1 -1 -2 0 0 0 0];

internalField   nonuniform List<scalar> 
1000
(
-218547
-209210
-206761
-202336
-200119
-197598
-195985
-194308
-193515
-191193
-280843
-259576
-249816
-238570
-231374
-224457
-219327
-214529
-211129
-206289
-340797
-308057
-291272
-273477
-261515
-250382
-241922
-234085
-228288
-220895
-396948
-353452
-330072
-306132
-289679
-274597
-262961
-252362
-244200
-234886
-447931
-394666
-365296
-335780
-315253
-296591
-282073
-268977
-258658
-247696
-492497
-430686
-396072
-361680
-337585
-315797
-298747
-283496
-271249
-258959
-529544
-460622
-421644
-383197
-356133
-331749
-312586
-295551
-281677
-268337
-558158
-483748
-441402
-399827
-370469
-344081
-323282
-304874
-289723
-275606
-577609
-499458
-454816
-411107
-380186
-352433
-330517
-311177
-295146
-280514
-587475
-507564
-461853
-417110
-385424
-356989
-334509
-314692
-298208
-283309
216814
142421
93564.1
50244.9
17632.5
-10499.7
-33292
-53156.3
-69747.9
-84922.8
206692
134097
86287.6
44037.8
12215.5
-15206
-37407.2
-56769.8
-72881.8
-87774.2
186985
118222
72768
32697.7
2473.96
-23551.5
-44606.4
-63009
-78208.2
-92572.7
157959
94827.3
52829.4
15956.5
-11922.5
-35898.2
-55273.7
-72264.2
-86138.4
-99709.4
120428
64574.4
27050.5
-5686.63
-30535.4
-51861.3
-69077.6
-84238.3
-96434.9
-108937
75346.4
28214.2
-3950.46
-31724.7
-52938.2
-71080.4
-85711.3
-98663.9
-108880
-120027
23873.6
-13324.3
-39389.3
-61505.9
-78584.8
-93093.3
-104803
-115210
-123241
-132709
-32693.8
-58995.3
-78370.9
-94271.4
-106805
-117313
-125804
-133394
-139026
-146510
-92950.5
-107678
-119962
-129262
-136996
-143253
-148407
-152905
-156208
-160987
-155405
-158150
-163085
-165537
-168269
-170108
-171720
-173073
-173714
-175905
-97247.6
-108999
-119354
-128968
-137823
-146119
-153960
-161438
-168651
-175667
-182558
-189394
-196218
-203130
-210106
-217369
-224663
-232676
-240273
-249870
-99595.6
-110752
-120767
-130015
-138625
-146684
-154343
-161655
-168729
-175618
-182395
-189125
-195847
-202661
-209539
-216702
-223892
-231793
-239276
-248732
-103420
-113514
-122952
-131562
-139764
-147418
-154778
-161810
-168652
-175326
-181911
-188458
-195007
-201648
-208354
-215338
-222345
-230042
-237317
-246514
-109195
-117640
-126262
-133899
-141502
-148548
-155460
-162076
-168573
-174932
-181234
-187515
-193811
-200202
-206657
-213381
-220120
-227519
-234493
-243308
-116800
-123026
-130667
-137038
-143883
-150153
-156493
-162578
-168631
-174583
-180517
-186451
-192415
-198478
-204605
-210985
-217371
-224376
-230951
-239258
-126118
-129538
-136039
-140854
-146760
-152090
-157718
-163165
-168680
-174152
-179654
-185186
-190767
-196453
-202201
-208185
-214159
-220700
-226804
-234499
-137054
-137240
-142505
-145636
-150458
-154771
-159579
-164312
-169200
-174112
-179099
-184149
-189266
-194494
-199784
-205288
-210769
-216752
-222295
-229260
-149062
-145679
-149330
-150694
-154153
-157361
-161212
-165173
-169386
-173723
-178194
-182773
-187442
-192229
-197073
-202103
-207089
-212502
-217462
-223649
-162348
-155959
-157573
-157493
-159439
-161580
-164387
-167490
-170907
-174536
-178348
-182312
-186394
-190606
-194878
-199314
-203692
-208416
-212689
-217976
-173474
-166209
-164325
-162796
-162800
-163675
-165371
-167650
-170400
-173497
-176861
-180430
-184142
-187987
-191879
-195896
-199822
-203998
-207718
-212239
-184135
-178463
-173830
-171023
-169665
-169359
-169972
-171263
-173112
-175386
-177990
-180852
-183897
-187095
-190356
-193724
-196997
-200435
-203411
-206954
-188575
-183061
-178705
-175834
-174205
-173521
-173659
-174427
-175720
-177420
-179440
-181708
-184151
-186729
-189356
-192051
-194633
-197301
-199519
-202124
-193062
-187257
-182913
-179677
-177657
-176504
-176160
-176431
-177228
-178432
-179961
-181737
-183686
-185762
-187878
-190036
-192072
-194126
-195750
-197592
-195552
-189839
-185813
-182550
-180423
-179032
-178385
-178298
-178702
-179487
-180579
-181904
-183390
-184986
-186610
-188247
-189753
-191221
-192283
-193417
-196701
-191275
-187602
-184392
-182238
-180696
-179840
-179486
-179589
-180044
-180785
-181740
-182842
-184037
-185248
-186448
-187511
-188488
-189089
-189636
-196785
-191746
-188480
-185450
-183385
-181812
-180852
-180327
-180212
-180411
-180866
-181511
-182283
-183128
-183977
-184792
-185468
-186020
-186227
-186281
-195993
-191435
-188584
-185797
-183876
-182342
-181348
-180725
-180463
-180473
-180710
-181108
-181614
-182174
-182725
-183225
-183586
-183794
-183689
-183356
-194541
-190502
-188070
-185581
-183855
-182425
-181461
-180803
-180456
-180338
-180412
-180620
-180914
-181243
-181551
-181794
-181900
-181835
-181490
-180862
-192563
-189067
-187048
-184888
-183389
-182108
-181220
-180579
-180197
-180003
-179967
-180036
-180170
-180321
-180442
-180486
-180399
-180129
-179613
-178781
-190189
-187243
-185629
-183818
-182572
-181475
-180703
-180121
-179748
-179522
-179419
-179394
-179413
-179434
-179415
-179314
-179086
-178673
-178047
-177091
-187514
-185115
-183899
-182451
-181473
-180587
-179959
-179469
-179141
-178919
-178788
-178709
-178653
-178585
-178471
-178270
-177951
-177451
-176769
-175758
-184615
-182761
-181935
-180858
-180161
-179505
-179045
-178675
-178419
-178233
-178104
-178002
-177906
-177784
-177612
-177352
-176984
-176444
-175752
-174746
-181565
-180239
-179807
-179106
-178700
-178291
-178015
-177784
-177622
-177494
-177392
-177294
-177183
-177037
-176838
-176553
-176171
-175632
-174968
-174014
-178396
-177617
-177567
-177247
-177139
-176987
-176910
-176834
-176782
-176729
-176673
-176597
-176494
-176346
-176144
-175862
-175494
-174988
-174383
-173521
-175196
-174893
-175284
-175359
-175551
-175666
-175792
-175879
-175946
-175977
-175976
-175934
-175851
-175717
-175529
-175269
-174938
-174489
-173966
-173226
-171920
-172240
-172986
-173444
-173949
-174336
-174678
-174935
-175127
-175249
-175309
-175307
-175251
-175140
-174978
-174754
-174475
-174104
-173682
-173087
-168786
-169760
-170779
-171730
-172468
-173134
-173672
-174093
-174402
-174606
-174719
-174752
-174719
-174629
-174494
-174311
-174094
-173813
-173505
-173069
-165528
-166982
-168537
-169841
-170995
-171941
-172713
-173302
-173731
-174015
-174176
-174236
-174220
-174147
-174038
-173900
-173752
-173571
-173389
-173125
-162702
-164705
-166744
-168434
-169900
-171101
-172058
-172781
-173293
-173620
-173796
-173852
-173824
-173744
-173642
-173537
-173451
-173373
-173327
-173232
-159389
-162180
-164680
-166849
-168702
-170209
-171393
-172269
-172871
-173238
-173415
-173450
-173393
-173291
-173187
-173114
-173100
-173137
-173235
-173298
-270778
-268418
-264340
-258225
-250223
-240454
-229149
-216710
-203599
-191099
-259390
-257664
-254781
-250489
-244926
-238167
-230329
-221405
-211458
-198398
-249163
-247724
-245345
-241764
-237074
-231325
-224700
-217308
-209722
-200405
-239856
-238772
-237041
-234431
-231009
-226773
-221799
-216015
-209722
-201978
-231253
-230386
-229028
-226965
-224249
-220888
-216966
-212522
-207654
-202149
-223298
-222653
-221686
-220206
-218233
-215759
-212779
-209388
-205388
-201415
-215812
-215327
-214634
-213564
-212117
-210308
-208078
-205634
-202497
-199866
-208749
-208414
-207981
-207295
-206333
-205115
-203510
-201813
-199349
-197719
-201995
-201782
-201555
-201179
-200610
-199884
-198821
-197774
-195938
-195099
-195499
-195397
-195359
-195264
-195049
-194754
-194160
-193649
-192365
-192134
-189187
-189182
-189310
-189461
-189558
-189643
-189474
-189432
-188659
-188912
-183000
-183086
-183368
-183747
-184134
-184563
-184784
-185154
-184855
-185503
-176898
-177068
-177495
-178086
-178745
-179496
-180087
-180834
-180986
-181971
-170796
-171047
-171616
-172414
-173338
-174398
-175349
-176455
-177045
-178340
-164713
-165044
-165753
-166754
-167942
-169307
-170615
-172077
-173096
-174693
-158460
-158873
-159726
-160938
-162398
-164077
-165758
-167584
-169054
-170962
-152255
-152751
-153752
-155179
-156919
-158925
-160986
-163203
-165119
-167438
-145521
-146107
-147273
-148938
-150989
-153358
-155848
-158488
-160923
-163556
-139209
-139889
-141221
-143129
-145498
-148239
-151165
-154250
-157199
-160221
-131299
-132093
-133635
-135851
-138624
-141846
-145338
-149013
-152637
-156206
)
;

boundaryField
{
    left
    {
        type            symmetryPlane;
        value           nonuniform List<scalar> 
30
(
-270778
-259390
-249163
-239856
-231253
-223298
-215812
-208749
-201995
-195499
-189187
-183000
-176898
-170796
-164713
-158460
-152255
-145521
-139209
-131299
-587475
-507564
-461853
-417110
-385424
-356989
-334509
-314692
-298208
-283309
)
;
    }
    right
    {
        type            zeroGradient;
    }
    down
    {
        type            symmetryPlane;
        value           nonuniform List<scalar> 
30
(
216814
142421
93564.1
50244.9
17632.5
-10499.7
-33292
-53156.3
-69747.9
-84922.8
-97247.6
-108999
-119354
-128968
-137823
-146119
-153960
-161438
-168651
-175667
-182558
-189394
-196218
-203130
-210106
-217369
-224663
-232676
-240273
-249870
)
;
    }
    up
    {
        type            zeroGradient;
    }
    hole
    {
        type            zeroGradient;
    }
    frontAndBack
    {
        type            empty;
    }
}


// ************************************************************************* //
