/*--------------------------------*- C++ -*----------------------------------*\
| =========                 |                                                 |
| \\      /  F ield         | foam-extend: Open Source CFD                    |
|  \\    /   O peration     | Version:     4.1                                |
|   \\  /    A nd           | Web:         http://www.foam-extend.org         |
|    \\/     M anipulation  |                                                 |
\*---------------------------------------------------------------------------*/
FoamFile
{
    version     2.0;
    format      ascii;
    class       vectorField;
    location    "4";
    object      solidsCellD_iteration18;
}
// * * * * * * * * * * * * * * * * * * * * * * * * * * * * * * * * * * * * * //


1000
(
(2.06857e-06 -8.71913e-07 0)
(1.95169e-06 -8.11349e-07 0)
(1.87698e-06 -7.7291e-07 0)
(1.83403e-06 -7.55033e-07 0)
(1.81307e-06 -7.48935e-07 0)
(1.80808e-06 -7.51908e-07 0)
(1.81492e-06 -7.60819e-07 0)
(1.83055e-06 -7.74143e-07 0)
(1.85293e-06 -7.90471e-07 0)
(1.88042e-06 -8.08781e-07 0)
(1.87029e-06 -9.52464e-07 0)
(1.74589e-06 -9.10393e-07 0)
(1.66644e-06 -8.83651e-07 0)
(1.61997e-06 -8.73697e-07 0)
(1.59626e-06 -8.72856e-07 0)
(1.58883e-06 -8.79535e-07 0)
(1.59331e-06 -8.91067e-07 0)
(1.60651e-06 -9.06362e-07 0)
(1.62632e-06 -9.24251e-07 0)
(1.65067e-06 -9.4367e-07 0)
(1.66434e-06 -1.02883e-06 0)
(1.53729e-06 -1.00743e-06 0)
(1.45619e-06 -9.9378e-07 0)
(1.40821e-06 -9.92589e-07 0)
(1.38301e-06 -9.97494e-07 0)
(1.3739e-06 -1.00813e-06 0)
(1.37648e-06 -1.0224e-06 0)
(1.38754e-06 -1.03966e-06 0)
(1.40493e-06 -1.05908e-06 0)
(1.42668e-06 -1.07954e-06 0)
(1.4522e-06 -1.09963e-06 0)
(1.32782e-06 -1.09988e-06 0)
(1.24844e-06 -1.09998e-06 0)
(1.20108e-06 -1.10794e-06 0)
(1.17573e-06 -1.1188e-06 0)
(1.16574e-06 -1.13349e-06 0)
(1.16683e-06 -1.15052e-06 0)
(1.17596e-06 -1.16973e-06 0)
(1.19106e-06 -1.1906e-06 0)
(1.21016e-06 -1.2122e-06 0)
(1.23536e-06 -1.16345e-06 0)
(1.11889e-06 -1.18517e-06 0)
(1.04462e-06 -1.19889e-06 0)
(1.00006e-06 -1.21589e-06 0)
(9.75871e-07 -1.23261e-06 0)
(9.65763e-07 -1.25128e-06 0)
(9.65834e-07 -1.271e-06 0)
(9.73238e-07 -1.29211e-06 0)
(9.86079e-07 -1.3144e-06 0)
(1.00246e-06 -1.33715e-06 0)
(1.01484e-06 -1.21903e-06 0)
(9.1147e-07 -1.26085e-06 0)
(8.45574e-07 -1.28732e-06 0)
(8.05845e-07 -1.31276e-06 0)
(7.84049e-07 -1.33495e-06 0)
(7.74589e-07 -1.35732e-06 0)
(7.74056e-07 -1.37953e-06 0)
(7.7989e-07 -1.40239e-06 0)
(7.90456e-07 -1.42599e-06 0)
(8.03987e-07 -1.4499e-06 0)
(7.91741e-07 -1.2651e-06 0)
(7.06031e-07 -1.32451e-06 0)
(6.51393e-07 -1.36217e-06 0)
(6.18344e-07 -1.39502e-06 0)
(6.00095e-07 -1.42199e-06 0)
(5.9198e-07 -1.44759e-06 0)
(5.91187e-07 -1.47197e-06 0)
(5.95569e-07 -1.49638e-06 0)
(6.03817e-07 -1.52111e-06 0)
(6.14409e-07 -1.54605e-06 0)
(5.66769e-07 -1.30063e-06 0)
(5.02582e-07 -1.37419e-06 0)
(4.61675e-07 -1.42082e-06 0)
(4.36889e-07 -1.45961e-06 0)
(4.23148e-07 -1.49042e-06 0)
(4.16926e-07 -1.51862e-06 0)
(4.16132e-07 -1.54476e-06 0)
(4.19161e-07 -1.57042e-06 0)
(4.2507e-07 -1.59608e-06 0)
(4.32671e-07 -1.62189e-06 0)
(3.40586e-07 -1.3248e-06 0)
(3.00847e-07 -1.40822e-06 0)
(2.75546e-07 -1.46113e-06 0)
(2.6017e-07 -1.50408e-06 0)
(2.51596e-07 -1.53758e-06 0)
(2.47664e-07 -1.5676e-06 0)
(2.47103e-07 -1.59498e-06 0)
(2.48898e-07 -1.62155e-06 0)
(2.52448e-07 -1.64785e-06 0)
(2.57014e-07 -1.67429e-06 0)
(1.13748e-07 -1.33698e-06 0)
(1.00292e-07 -1.42553e-06 0)
(9.16782e-08 -1.48165e-06 0)
(8.64421e-08 -1.52674e-06 0)
(8.35418e-08 -1.56162e-06 0)
(8.21955e-08 -1.59258e-06 0)
(8.19593e-08 -1.62058e-06 0)
(8.25349e-08 -1.64759e-06 0)
(8.37237e-08 -1.67425e-06 0)
(8.52422e-08 -1.70103e-06 0)
(3.22875e-06 -3.97518e-08 0)
(3.25762e-06 -2.86067e-08 0)
(3.27517e-06 -2.15414e-08 0)
(3.29402e-06 -1.73936e-08 0)
(3.31469e-06 -1.50835e-08 0)
(3.34006e-06 -1.40171e-08 0)
(3.37017e-06 -1.38302e-08 0)
(3.40534e-06 -1.41819e-08 0)
(3.44546e-06 -1.49132e-08 0)
(3.49002e-06 -1.58265e-08 0)
(3.20483e-06 -1.19285e-07 0)
(3.22885e-06 -8.65019e-08 0)
(3.24335e-06 -6.57083e-08 0)
(3.26018e-06 -5.3553e-08 0)
(3.27949e-06 -4.69063e-08 0)
(3.30391e-06 -4.38634e-08 0)
(3.33332e-06 -4.32972e-08 0)
(3.36792e-06 -4.43995e-08 0)
(3.40756e-06 -4.66712e-08 0)
(3.45162e-06 -4.94002e-08 0)
(3.15705e-06 -1.99474e-07 0)
(3.17183e-06 -1.46862e-07 0)
(3.18048e-06 -1.13544e-07 0)
(3.19343e-06 -9.40425e-08 0)
(3.21018e-06 -8.33876e-08 0)
(3.23278e-06 -7.86469e-08 0)
(3.26084e-06 -7.79005e-08 0)
(3.29439e-06 -7.97949e-08 0)
(3.33309e-06 -8.3584e-08 0)
(3.37618e-06 -8.81451e-08 0)
(3.08627e-06 -2.807e-07 0)
(3.08791e-06 -2.11085e-07 0)
(3.0882e-06 -1.67062e-07 0)
(3.09563e-06 -1.41416e-07 0)
(3.10873e-06 -1.27459e-07 0)
(3.12877e-06 -1.21368e-07 0)
(3.15493e-06 -1.20611e-07 0)
(3.18694e-06 -1.2338e-07 0)
(3.22431e-06 -1.28646e-07 0)
(3.26604e-06 -1.35021e-07 0)
(2.99357e-06 -3.63174e-07 0)
(2.97898e-06 -2.80327e-07 0)
(2.96895e-06 -2.27972e-07 0)
(2.96955e-06 -1.97688e-07 0)
(2.97811e-06 -1.81366e-07 0)
(2.99495e-06 -1.74478e-07 0)
(3.01875e-06 -1.73971e-07 0)
(3.04886e-06 -1.77735e-07 0)
(3.08459e-06 -1.84471e-07 0)
(3.12466e-06 -1.9263e-07 0)
(2.88035e-06 -4.46977e-07 0)
(2.84739e-06 -3.55417e-07 0)
(2.8257e-06 -2.97545e-07 0)
(2.81858e-06 -2.64404e-07 0)
(2.822e-06 -2.46793e-07 0)
(2.83519e-06 -2.39745e-07 0)
(2.8563e-06 -2.39815e-07 0)
(2.88423e-06 -2.44713e-07 0)
(2.91807e-06 -2.52924e-07 0)
(2.95625e-06 -2.62822e-07 0)
(2.74828e-06 -5.31905e-07 0)
(2.69589e-06 -4.36663e-07 0)
(2.66191e-06 -3.76409e-07 0)
(2.64661e-06 -3.42353e-07 0)
(2.64458e-06 -3.24635e-07 0)
(2.65388e-06 -3.18143e-07 0)
(2.6721e-06 -3.19171e-07 0)
(2.69769e-06 -3.25334e-07 0)
(2.72948e-06 -3.3501e-07 0)
(2.76567e-06 -3.46569e-07 0)
(2.59914e-06 -6.17554e-07 0)
(2.5275e-06 -5.23825e-07 0)
(2.48136e-06 -4.64475e-07 0)
(2.45791e-06 -4.3159e-07 0)
(2.45045e-06 -4.15016e-07 0)
(2.45583e-06 -4.09838e-07 0)
(2.47109e-06 -4.12239e-07 0)
(2.49424e-06 -4.19862e-07 0)
(2.52385e-06 -4.31016e-07 0)
(2.55796e-06 -4.44195e-07 0)
(2.43485e-06 -7.03352e-07 0)
(2.34531e-06 -6.16191e-07 0)
(2.28785e-06 -5.60984e-07 0)
(2.25678e-06 -5.313e-07 0)
(2.24416e-06 -5.171e-07 0)
(2.24571e-06 -5.13959e-07 0)
(2.25801e-06 -5.18147e-07 0)
(2.27869e-06 -5.274e-07 0)
(2.30605e-06 -5.40154e-07 0)
(2.33814e-06 -5.54772e-07 0)
(2.25736e-06 -7.8849e-07 0)
(2.15244e-06 -7.12575e-07 0)
(2.08523e-06 -6.64472e-07 0)
(2.04754e-06 -6.39884e-07 0)
(2.03035e-06 -6.29228e-07 0)
(2.02844e-06 -6.28827e-07 0)
(2.03802e-06 -6.352e-07 0)
(2.05624e-06 -6.4641e-07 0)
(2.08141e-06 -6.60831e-07 0)
(2.11126e-06 -6.77638e-07 0)
(3.53915e-06 -1.67355e-08 0)
(3.5927e-06 -1.69443e-08 0)
(3.64966e-06 -1.71727e-08 0)
(3.70984e-06 -1.73401e-08 0)
(3.77286e-06 -1.74369e-08 0)
(3.83847e-06 -1.74545e-08 0)
(3.90637e-06 -1.73502e-08 0)
(3.97633e-06 -1.7133e-08 0)
(4.04813e-06 -1.68169e-08 0)
(4.12155e-06 -1.63909e-08 0)
(4.19636e-06 -1.58359e-08 0)
(4.27235e-06 -1.51388e-08 0)
(4.3493e-06 -1.42833e-08 0)
(4.427e-06 -1.3257e-08 0)
(4.50524e-06 -1.2047e-08 0)
(4.58372e-06 -1.06345e-08 0)
(4.6623e-06 -8.98896e-09 0)
(4.74046e-06 -7.07172e-09 0)
(4.81828e-06 -4.83493e-09 0)
(4.89457e-06 -2.26041e-09 0)
(3.50245e-06 -5.19117e-08 0)
(3.55907e-06 -5.22848e-08 0)
(3.61878e-06 -5.27743e-08 0)
(3.68135e-06 -5.31225e-08 0)
(3.7465e-06 -5.32366e-08 0)
(3.81397e-06 -5.31272e-08 0)
(3.88357e-06 -5.27317e-08 0)
(3.95507e-06 -5.20516e-08 0)
(4.02828e-06 -5.10609e-08 0)
(4.10297e-06 -4.97178e-08 0)
(4.17895e-06 -4.79869e-08 0)
(4.25603e-06 -4.58489e-08 0)
(4.33401e-06 -4.32628e-08 0)
(4.41267e-06 -4.01806e-08 0)
(4.49183e-06 -3.65463e-08 0)
(4.57118e-06 -3.22965e-08 0)
(4.65059e-06 -2.7342e-08 0)
(4.72955e-06 -2.15804e-08 0)
(4.80817e-06 -1.48637e-08 0)
(4.88524e-06 -7.14082e-09 0)
(3.43031e-06 -9.17563e-08 0)
(3.49297e-06 -9.16216e-08 0)
(3.55805e-06 -9.17518e-08 0)
(3.62527e-06 -9.18069e-08 0)
(3.69459e-06 -9.15729e-08 0)
(3.76577e-06 -9.1062e-08 0)
(3.83869e-06 -9.01316e-08 0)
(3.91318e-06 -8.87653e-08 0)
(3.98912e-06 -8.69097e-08 0)
(4.0663e-06 -8.451e-08 0)
(4.14458e-06 -8.15115e-08 0)
(4.22379e-06 -7.78695e-08 0)
(4.30376e-06 -7.35037e-08 0)
(4.38428e-06 -6.8327e-08 0)
(4.4652e-06 -6.22456e-08 0)
(4.54625e-06 -5.51517e-08 0)
(4.62729e-06 -4.68913e-08 0)
(4.70786e-06 -3.72999e-08 0)
(4.78805e-06 -2.6119e-08 0)
(4.8667e-06 -1.32716e-08 0)
(3.32489e-06 -1.38914e-07 0)
(3.39618e-06 -1.37228e-07 0)
(3.46906e-06 -1.36049e-07 0)
(3.54305e-06 -1.35068e-07 0)
(3.61844e-06 -1.33851e-07 0)
(3.695e-06 -1.32427e-07 0)
(3.7728e-06 -1.30545e-07 0)
(3.85169e-06 -1.28176e-07 0)
(3.93164e-06 -1.25221e-07 0)
(4.01249e-06 -1.21583e-07 0)
(4.09416e-06 -1.17163e-07 0)
(4.17651e-06 -1.11886e-07 0)
(4.25941e-06 -1.05642e-07 0)
(4.34268e-06 -9.8311e-08 0)
(4.42621e-06 -8.97617e-08 0)
(4.50975e-06 -7.98241e-08 0)
(4.59318e-06 -6.82819e-08 0)
(4.67608e-06 -5.49012e-08 0)
(4.75855e-06 -3.9306e-08 0)
(4.83952e-06 -2.14061e-08 0)
(3.18938e-06 -1.95739e-07 0)
(3.27152e-06 -1.9113e-07 0)
(3.35426e-06 -1.87404e-07 0)
(3.43683e-06 -1.84437e-07 0)
(3.51999e-06 -1.81441e-07 0)
(3.60345e-06 -1.78467e-07 0)
(3.68751e-06 -1.75125e-07 0)
(3.77206e-06 -1.71344e-07 0)
(3.85717e-06 -1.66942e-07 0)
(3.94275e-06 -1.61777e-07 0)
(4.02879e-06 -1.5572e-07 0)
(4.11519e-06 -1.48653e-07 0)
(4.20188e-06 -1.4042e-07 0)
(4.28873e-06 -1.30859e-07 0)
(4.37565e-06 -1.19789e-07 0)
(4.46241e-06 -1.06983e-07 0)
(4.54896e-06 -9.21582e-08 0)
(4.63488e-06 -7.50143e-08 0)
(4.72034e-06 -5.50639e-08 0)
(4.80429e-06 -3.2189e-08 0)
(3.02762e-06 -2.63942e-07 0)
(3.12224e-06 -2.54816e-07 0)
(3.21654e-06 -2.47071e-07 0)
(3.30923e-06 -2.40963e-07 0)
(3.40159e-06 -2.35241e-07 0)
(3.49329e-06 -2.29941e-07 0)
(3.5848e-06 -2.2449e-07 0)
(3.67614e-06 -2.18768e-07 0)
(3.76744e-06 -2.12508e-07 0)
(3.85872e-06 -2.05502e-07 0)
(3.95003e-06 -1.97569e-07 0)
(4.04132e-06 -1.88535e-07 0)
(4.13258e-06 -1.78192e-07 0)
(4.22372e-06 -1.66325e-07 0)
(4.31471e-06 -1.52693e-07 0)
(4.40535e-06 -1.37016e-07 0)
(4.49564e-06 -1.18936e-07 0)
(4.5852e-06 -9.80887e-08 0)
(4.67425e-06 -7.38831e-08 0)
(4.76178e-06 -4.61354e-08 0)
(2.84412e-06 -3.44522e-07 0)
(2.95231e-06 -3.29287e-07 0)
(3.05936e-06 -3.16072e-07 0)
(3.1633e-06 -3.05584e-07 0)
(3.26594e-06 -2.96119e-07 0)
(3.36691e-06 -2.87629e-07 0)
(3.46688e-06 -2.79394e-07 0)
(3.56593e-06 -2.71164e-07 0)
(3.6643e-06 -2.6259e-07 0)
(3.7621e-06 -2.53384e-07 0)
(3.85943e-06 -2.43289e-07 0)
(3.95633e-06 -2.32064e-07 0)
(4.05283e-06 -2.1944e-07 0)
(4.14892e-06 -2.05152e-07 0)
(4.24458e-06 -1.88895e-07 0)
(4.33969e-06 -1.70328e-07 0)
(4.43429e-06 -1.49015e-07 0)
(4.52802e-06 -1.24524e-07 0)
(4.62117e-06 -9.61669e-08 0)
(4.71281e-06 -6.36895e-08 0)
(2.64343e-06 -4.37754e-07 0)
(2.76561e-06 -4.14591e-07 0)
(2.88608e-06 -3.94403e-07 0)
(3.00208e-06 -3.78143e-07 0)
(3.11583e-06 -3.63889e-07 0)
(3.22691e-06 -3.51286e-07 0)
(3.33616e-06 -3.3956e-07 0)
(3.44369e-06 -3.28253e-07 0)
(3.54987e-06 -3.16916e-07 0)
(3.65487e-06 -3.05161e-07 0)
(3.75887e-06 -2.92645e-07 0)
(3.86198e-06 -2.79043e-07 0)
(3.96429e-06 -2.64021e-07 0)
(4.06586e-06 -2.47249e-07 0)
(4.16671e-06 -2.28351e-07 0)
(4.26677e-06 -2.06919e-07 0)
(4.36612e-06 -1.82444e-07 0)
(4.46448e-06 -1.54415e-07 0)
(4.56215e-06 -1.22058e-07 0)
(4.65834e-06 -8.50441e-08 0)
(2.43044e-06 -5.4343e-07 0)
(2.56658e-06 -5.10932e-07 0)
(2.70045e-06 -4.82881e-07 0)
(2.82889e-06 -4.59659e-07 0)
(2.95408e-06 -4.39655e-07 0)
(3.0758e-06 -4.22053e-07 0)
(3.19481e-06 -4.06069e-07 0)
(3.31138e-06 -3.91031e-07 0)
(3.42589e-06 -3.76389e-07 0)
(3.53862e-06 -3.6164e-07 0)
(3.64981e-06 -3.46342e-07 0)
(3.75963e-06 -3.30085e-07 0)
(3.86825e-06 -3.12458e-07 0)
(3.97575e-06 -2.93058e-07 0)
(4.08222e-06 -2.71434e-07 0)
(4.18765e-06 -2.471e-07 0)
(4.29214e-06 -2.19485e-07 0)
(4.39551e-06 -1.87991e-07 0)
(4.49809e-06 -1.51779e-07 0)
(4.59921e-06 -1.10453e-07 0)
(2.20925e-06 -6.59697e-07 0)
(2.35962e-06 -6.15405e-07 0)
(2.50641e-06 -5.78431e-07 0)
(2.64762e-06 -5.47158e-07 0)
(2.78445e-06 -5.2054e-07 0)
(2.91718e-06 -4.97276e-07 0)
(3.04633e-06 -4.7648e-07 0)
(3.17232e-06 -4.57299e-07 0)
(3.29555e-06 -4.39047e-07 0)
(3.41637e-06 -4.21089e-07 0)
(3.53508e-06 -4.02874e-07 0)
(3.65192e-06 -3.83891e-07 0)
(3.76711e-06 -3.6364e-07 0)
(3.88081e-06 -3.4164e-07 0)
(3.99314e-06 -3.17362e-07 0)
(4.10415e-06 -2.90244e-07 0)
(4.21401e-06 -2.5966e-07 0)
(4.32261e-06 -2.2491e-07 0)
(4.43033e-06 -1.85105e-07 0)
(4.53666e-06 -1.39754e-07 0)
(2.04515e-06 -7.71596e-07 0)
(2.20486e-06 -7.17654e-07 0)
(2.35928e-06 -6.73933e-07 0)
(2.50843e-06 -6.36129e-07 0)
(2.65271e-06 -6.03597e-07 0)
(2.79254e-06 -5.74982e-07 0)
(2.92837e-06 -5.49328e-07 0)
(3.06062e-06 -5.25757e-07 0)
(3.1897e-06 -5.0351e-07 0)
(3.31594e-06 -4.81896e-07 0)
(3.43969e-06 -4.60304e-07 0)
(3.56121e-06 -4.38165e-07 0)
(3.68073e-06 -4.14924e-07 0)
(3.79845e-06 -3.90047e-07 0)
(3.91454e-06 -3.62959e-07 0)
(4.0291e-06 -3.33049e-07 0)
(4.14233e-06 -2.99682e-07 0)
(4.25423e-06 -2.62099e-07 0)
(4.36518e-06 -2.19399e-07 0)
(4.47485e-06 -1.71052e-07 0)
(1.95147e-06 -8.62439e-07 0)
(2.11241e-06 -8.06493e-07 0)
(2.26815e-06 -7.59062e-07 0)
(2.41937e-06 -7.17321e-07 0)
(2.566e-06 -6.80657e-07 0)
(2.70835e-06 -6.47952e-07 0)
(2.84676e-06 -6.18319e-07 0)
(2.98153e-06 -5.90933e-07 0)
(3.11302e-06 -5.65045e-07 0)
(3.24152e-06 -5.39976e-07 0)
(3.36735e-06 -5.15114e-07 0)
(3.49076e-06 -4.89879e-07 0)
(3.61199e-06 -4.637e-07 0)
(3.73124e-06 -4.36037e-07 0)
(3.84869e-06 -4.06306e-07 0)
(3.96451e-06 -3.7389e-07 0)
(4.07888e-06 -3.38181e-07 0)
(4.19191e-06 -2.98426e-07 0)
(4.30397e-06 -2.53746e-07 0)
(4.41486e-06 -2.03641e-07 0)
(1.87145e-06 -9.49628e-07 0)
(2.03088e-06 -8.92383e-07 0)
(2.18644e-06 -8.42537e-07 0)
(2.33807e-06 -7.97816e-07 0)
(2.48564e-06 -7.57772e-07 0)
(2.62927e-06 -7.21519e-07 0)
(2.76916e-06 -6.8829e-07 0)
(2.90551e-06 -6.57344e-07 0)
(3.03859e-06 -6.27984e-07 0)
(3.16867e-06 -5.9957e-07 0)
(3.296e-06 -5.7151e-07 0)
(3.42083e-06 -5.43226e-07 0)
(3.54337e-06 -5.1415e-07 0)
(3.66383e-06 -4.8375e-07 0)
(3.7824e-06 -4.51447e-07 0)
(3.89927e-06 -4.16635e-07 0)
(4.01465e-06 -3.78727e-07 0)
(4.12869e-06 -3.37008e-07 0)
(4.24176e-06 -2.90632e-07 0)
(4.35379e-06 -2.3915e-07 0)
(1.80083e-06 -1.03383e-06 0)
(1.95807e-06 -9.75987e-07 0)
(2.11235e-06 -9.24327e-07 0)
(2.26331e-06 -8.77137e-07 0)
(2.41077e-06 -8.34174e-07 0)
(2.55471e-06 -7.94763e-07 0)
(2.6952e-06 -7.58263e-07 0)
(2.83236e-06 -7.2402e-07 0)
(2.96638e-06 -6.91403e-07 0)
(3.09747e-06 -6.59821e-07 0)
(3.22583e-06 -6.28713e-07 0)
(3.35167e-06 -5.97513e-07 0)
(3.47519e-06 -5.65668e-07 0)
(3.5966e-06 -5.32669e-07 0)
(3.71608e-06 -4.97944e-07 0)
(3.83384e-06 -4.60919e-07 0)
(3.9501e-06 -4.21024e-07 0)
(4.06506e-06 -3.77594e-07 0)
(4.17903e-06 -3.2984e-07 0)
(4.29214e-06 -2.77376e-07 0)
(1.73868e-06 -1.11443e-06 0)
(1.89304e-06 -1.05647e-06 0)
(2.04529e-06 -1.00365e-06 0)
(2.19475e-06 -9.5464e-07 0)
(2.34131e-06 -9.09341e-07 0)
(2.48477e-06 -8.67272e-07 0)
(2.62514e-06 -8.27909e-07 0)
(2.76245e-06 -7.90704e-07 0)
(2.89683e-06 -7.55104e-07 0)
(3.02841e-06 -7.20578e-07 0)
(3.15735e-06 -6.86606e-07 0)
(3.28382e-06 -6.52649e-07 0)
(3.40801e-06 -6.18185e-07 0)
(3.53011e-06 -5.82736e-07 0)
(3.65029e-06 -5.45743e-07 0)
(3.76877e-06 -5.0668e-07 0)
(3.88577e-06 -4.64991e-07 0)
(4.00152e-06 -4.20074e-07 0)
(4.11631e-06 -3.7122e-07 0)
(4.2304e-06 -3.18106e-07 0)
(1.68347e-06 -1.19163e-06 0)
(1.83465e-06 -1.13392e-06 0)
(1.98438e-06 -1.08039e-06 0)
(2.13181e-06 -1.03001e-06 0)
(2.27687e-06 -9.82839e-07 0)
(2.41925e-06 -9.38531e-07 0)
(2.55892e-06 -8.96686e-07 0)
(2.69585e-06 -8.56859e-07 0)
(2.83008e-06 -8.18572e-07 0)
(2.9617e-06 -7.81359e-07 0)
(3.09082e-06 -7.44751e-07 0)
(3.21759e-06 -7.08244e-07 0)
(3.34216e-06 -6.71355e-07 0)
(3.4647e-06 -6.33644e-07 0)
(3.58538e-06 -5.94567e-07 0)
(3.70442e-06 -5.53664e-07 0)
(3.82203e-06 -5.10396e-07 0)
(3.93844e-06 -4.64227e-07 0)
(4.05398e-06 -4.1454e-07 0)
(4.16895e-06 -3.61063e-07 0)
(1.63409e-06 -1.26549e-06 0)
(1.78193e-06 -1.20829e-06 0)
(1.92882e-06 -1.1544e-06 0)
(2.07385e-06 -1.10307e-06 0)
(2.21698e-06 -1.05444e-06 0)
(2.35785e-06 -1.0083e-06 0)
(2.49638e-06 -9.6435e-07 0)
(2.63248e-06 -9.22243e-07 0)
(2.76616e-06 -8.81574e-07 0)
(2.89744e-06 -8.41946e-07 0)
(3.02641e-06 -8.02945e-07 0)
(3.15318e-06 -7.6411e-07 0)
(3.27786e-06 -7.25004e-07 0)
(3.40063e-06 -6.85231e-07 0)
(3.52163e-06 -6.44268e-07 0)
(3.64106e-06 -6.01717e-07 0)
(3.75914e-06 -5.57076e-07 0)
(3.87611e-06 -5.09876e-07 0)
(3.9923e-06 -4.59589e-07 0)
(4.10802e-06 -4.05981e-07 0)
(1.58949e-06 -1.3362e-06 0)
(1.73394e-06 -1.27967e-06 0)
(1.87781e-06 -1.2257e-06 0)
(2.02023e-06 -1.17372e-06 0)
(2.16115e-06 -1.12399e-06 0)
(2.30018e-06 -1.07635e-06 0)
(2.43723e-06 -1.03064e-06 0)
(2.57217e-06 -9.86578e-07 0)
(2.70496e-06 -9.43826e-07 0)
(2.8356e-06 -9.02061e-07 0)
(2.96414e-06 -8.60926e-07 0)
(3.09065e-06 -8.20003e-07 0)
(3.21524e-06 -7.78905e-07 0)
(3.33805e-06 -7.37281e-07 0)
(3.4592e-06 -6.9464e-07 0)
(3.5789e-06 -6.50644e-07 0)
(3.69733e-06 -6.04834e-07 0)
(3.81476e-06 -5.56812e-07 0)
(3.9315e-06 -5.06124e-07 0)
(4.04785e-06 -4.52586e-07 0)
(1.54875e-06 -1.40399e-06 0)
(1.68981e-06 -1.34821e-06 0)
(1.83061e-06 -1.29434e-06 0)
(1.97029e-06 -1.24197e-06 0)
(2.10882e-06 -1.19141e-06 0)
(2.2458e-06 -1.14259e-06 0)
(2.38114e-06 -1.09543e-06 0)
(2.51466e-06 -1.04971e-06 0)
(2.64632e-06 -1.00517e-06 0)
(2.77609e-06 -9.61539e-07 0)
(2.90398e-06 -9.18529e-07 0)
(3.03005e-06 -8.75763e-07 0)
(3.15437e-06 -8.32904e-07 0)
(3.27706e-06 -7.89643e-07 0)
(3.39824e-06 -7.45533e-07 0)
(3.51808e-06 -7.00288e-07 0)
(3.63677e-06 -6.53505e-07 0)
(3.75458e-06 -6.04842e-07 0)
(3.87174e-06 -5.53923e-07 0)
(3.98862e-06 -5.00622e-07 0)
(1.51104e-06 -1.46906e-06 0)
(1.64879e-06 -1.41408e-06 0)
(1.78653e-06 -1.36043e-06 0)
(1.92342e-06 -1.30787e-06 0)
(2.05946e-06 -1.2567e-06 0)
(2.19428e-06 -1.20697e-06 0)
(2.32774e-06 -1.15863e-06 0)
(2.45969e-06 -1.11152e-06 0)
(2.59005e-06 -1.06546e-06 0)
(2.71878e-06 -1.02024e-06 0)
(2.84587e-06 -9.75613e-07 0)
(2.97134e-06 -9.31245e-07 0)
(3.09526e-06 -8.86853e-07 0)
(3.21771e-06 -8.4217e-07 0)
(3.3388e-06 -7.96794e-07 0)
(3.4587e-06 -7.50493e-07 0)
(3.57756e-06 -7.02918e-07 0)
(3.69564e-06 -6.53772e-07 0)
(3.81313e-06 -6.02772e-07 0)
(3.93047e-06 -5.49841e-07 0)
(1.47565e-06 -1.53165e-06 0)
(1.61019e-06 -1.47747e-06 0)
(1.74491e-06 -1.42413e-06 0)
(1.87904e-06 -1.3715e-06 0)
(2.01257e-06 -1.31993e-06 0)
(2.14516e-06 -1.2695e-06 0)
(2.27668e-06 -1.22021e-06 0)
(2.40696e-06 -1.17198e-06 0)
(2.53592e-06 -1.12465e-06 0)
(2.6635e-06 -1.07809e-06 0)
(2.78967e-06 -1.03208e-06 0)
(2.91445e-06 -9.86344e-07 0)
(3.03786e-06 -9.40639e-07 0)
(3.15998e-06 -8.9474e-07 0)
(3.28089e-06 -8.48293e-07 0)
(3.40075e-06 -8.01115e-07 0)
(3.5197e-06 -7.52906e-07 0)
(3.63795e-06 -7.03421e-07 0)
(3.75571e-06 -6.52467e-07 0)
(3.87339e-06 -6e-07 0)
(1.44192e-06 -1.59197e-06 0)
(1.57339e-06 -1.53857e-06 0)
(1.70517e-06 -1.48558e-06 0)
(1.8366e-06 -1.433e-06 0)
(1.96766e-06 -1.38117e-06 0)
(2.09802e-06 -1.33021e-06 0)
(2.22757e-06 -1.2802e-06 0)
(2.35614e-06 -1.23105e-06 0)
(2.48364e-06 -1.18269e-06 0)
(2.61001e-06 -1.13502e-06 0)
(2.73521e-06 -1.08786e-06 0)
(2.85921e-06 -1.04098e-06 0)
(2.98206e-06 -9.94165e-07 0)
(3.10378e-06 -9.4725e-07 0)
(3.22446e-06 -8.99913e-07 0)
(3.34423e-06 -8.52022e-07 0)
(3.46319e-06 -8.03319e-07 0)
(3.58155e-06 -7.53628e-07 0)
(3.69953e-06 -7.02818e-07 0)
(3.81745e-06 -6.50862e-07 0)
(1.40928e-06 -1.65023e-06 0)
(1.5378e-06 -1.59755e-06 0)
(1.66677e-06 -1.54495e-06 0)
(1.79559e-06 -1.49249e-06 0)
(1.92423e-06 -1.44052e-06 0)
(2.0524e-06 -1.3892e-06 0)
(2.18001e-06 -1.33862e-06 0)
(2.30689e-06 -1.28877e-06 0)
(2.43294e-06 -1.23959e-06 0)
(2.55809e-06 -1.19102e-06 0)
(2.68229e-06 -1.14293e-06 0)
(2.80551e-06 -1.0951e-06 0)
(2.92775e-06 -1.04738e-06 0)
(3.04905e-06 -9.99633e-07 0)
(3.16946e-06 -9.51574e-07 0)
(3.28908e-06 -9.03112e-07 0)
(3.40799e-06 -8.54044e-07 0)
(3.52643e-06 -8.04253e-07 0)
(3.64453e-06 -7.53656e-07 0)
(3.76263e-06 -7.02248e-07 0)
(1.37717e-06 -1.70658e-06 0)
(1.5029e-06 -1.6546e-06 0)
(1.62918e-06 -1.60239e-06 0)
(1.75548e-06 -1.5501e-06 0)
(1.88181e-06 -1.49809e-06 0)
(2.00789e-06 -1.44653e-06 0)
(2.13363e-06 -1.39557e-06 0)
(2.25887e-06 -1.3452e-06 0)
(2.38352e-06 -1.29539e-06 0)
(2.50748e-06 -1.24611e-06 0)
(2.63069e-06 -1.19727e-06 0)
(2.75312e-06 -1.14869e-06 0)
(2.87476e-06 -1.10024e-06 0)
(2.99562e-06 -1.05182e-06 0)
(3.11573e-06 -1.00318e-06 0)
(3.23517e-06 -9.54277e-07 0)
(3.35402e-06 -9.04958e-07 0)
(3.47248e-06 -8.55146e-07 0)
(3.59064e-06 -8.04808e-07 0)
(3.70886e-06 -7.53991e-07 0)
(1.34504e-06 -1.76122e-06 0)
(1.46812e-06 -1.70988e-06 0)
(1.59184e-06 -1.65806e-06 0)
(1.71578e-06 -1.60599e-06 0)
(1.83993e-06 -1.55403e-06 0)
(1.96405e-06 -1.50236e-06 0)
(2.08804e-06 -1.45115e-06 0)
(2.21173e-06 -1.4004e-06 0)
(2.33505e-06 -1.35013e-06 0)
(2.45788e-06 -1.30032e-06 0)
(2.58017e-06 -1.25091e-06 0)
(2.70186e-06 -1.20174e-06 0)
(2.82293e-06 -1.15273e-06 0)
(2.94337e-06 -1.10378e-06 0)
(3.06319e-06 -1.0547e-06 0)
(3.18245e-06 -1.00546e-06 0)
(3.30123e-06 -9.55976e-07 0)
(3.41967e-06 -9.06204e-07 0)
(3.53787e-06 -8.56163e-07 0)
(3.65614e-06 -8.05929e-07 0)
(1.31237e-06 -1.81428e-06 0)
(1.43292e-06 -1.76358e-06 0)
(1.55423e-06 -1.71211e-06 0)
(1.676e-06 -1.66031e-06 0)
(1.79815e-06 -1.60848e-06 0)
(1.92046e-06 -1.5568e-06 0)
(2.04284e-06 -1.50546e-06 0)
(2.16514e-06 -1.45449e-06 0)
(2.28724e-06 -1.4039e-06 0)
(2.40905e-06 -1.35372e-06 0)
(2.5305e-06 -1.3039e-06 0)
(2.65152e-06 -1.25431e-06 0)
(2.77207e-06 -1.20486e-06 0)
(2.89212e-06 -1.15551e-06 0)
(3.01167e-06 -1.10608e-06 0)
(3.13078e-06 -1.05661e-06 0)
(3.2495e-06 -1.00703e-06 0)
(3.3679e-06 -9.5733e-07 0)
(3.48612e-06 -9.07601e-07 0)
(3.60439e-06 -8.57931e-07 0)
(1.27859e-06 -1.86597e-06 0)
(1.39671e-06 -1.81573e-06 0)
(1.51575e-06 -1.76472e-06 0)
(1.63561e-06 -1.71327e-06 0)
(1.75595e-06 -1.66163e-06 0)
(1.87669e-06 -1.61004e-06 0)
(1.99765e-06 -1.55867e-06 0)
(2.11871e-06 -1.50759e-06 0)
(2.23976e-06 -1.45682e-06 0)
(2.3607e-06 -1.40641e-06 0)
(2.48143e-06 -1.35632e-06 0)
(2.60188e-06 -1.30642e-06 0)
(2.72199e-06 -1.25666e-06 0)
(2.84172e-06 -1.20701e-06 0)
(2.96107e-06 -1.15734e-06 0)
(3.08008e-06 -1.1077e-06 0)
(3.19873e-06 -1.05805e-06 0)
(3.31712e-06 -1.00844e-06 0)
(3.43532e-06 -9.59007e-07 0)
(3.55358e-06 -9.09878e-07 0)
(1.24291e-06 -1.91625e-06 0)
(1.35897e-06 -1.86654e-06 0)
(1.47616e-06 -1.81608e-06 0)
(1.5942e-06 -1.765e-06 0)
(1.71299e-06 -1.71362e-06 0)
(1.83234e-06 -1.6622e-06 0)
(1.95212e-06 -1.6109e-06 0)
(2.07217e-06 -1.55983e-06 0)
(2.19238e-06 -1.50901e-06 0)
(2.31261e-06 -1.45849e-06 0)
(2.43277e-06 -1.40823e-06 0)
(2.55277e-06 -1.35814e-06 0)
(2.67254e-06 -1.30817e-06 0)
(2.79206e-06 -1.25833e-06 0)
(2.91128e-06 -1.2085e-06 0)
(3.03022e-06 -1.15873e-06 0)
(3.14885e-06 -1.10902e-06 0)
(3.26729e-06 -1.05948e-06 0)
(3.3855e-06 -1.01033e-06 0)
(3.50371e-06 -9.61698e-07 0)
(1.20485e-06 -1.96562e-06 0)
(1.31902e-06 -1.91651e-06 0)
(1.43453e-06 -1.86649e-06 0)
(1.55111e-06 -1.81582e-06 0)
(1.66864e-06 -1.76476e-06 0)
(1.78693e-06 -1.71356e-06 0)
(1.90582e-06 -1.66244e-06 0)
(2.02515e-06 -1.61147e-06 0)
(2.14476e-06 -1.56068e-06 0)
(2.26451e-06 -1.51012e-06 0)
(2.38428e-06 -1.45979e-06 0)
(2.50399e-06 -1.40959e-06 0)
(2.62357e-06 -1.35951e-06 0)
(2.74294e-06 -1.30955e-06 0)
(2.86211e-06 -1.25957e-06 0)
(2.98106e-06 -1.20969e-06 0)
(3.09977e-06 -1.15996e-06 0)
(3.2183e-06 -1.11044e-06 0)
(3.33661e-06 -1.06145e-06 0)
(3.4548e-06 -1.01325e-06 0)
(1.16395e-06 -2.01375e-06 0)
(1.27649e-06 -1.96531e-06 0)
(1.39062e-06 -1.9159e-06 0)
(1.50608e-06 -1.86572e-06 0)
(1.62271e-06 -1.81509e-06 0)
(1.7403e-06 -1.76425e-06 0)
(1.85866e-06 -1.7134e-06 0)
(1.97757e-06 -1.66261e-06 0)
(2.09686e-06 -1.61192e-06 0)
(2.21638e-06 -1.5614e-06 0)
(2.33598e-06 -1.51109e-06 0)
(2.45556e-06 -1.46086e-06 0)
(2.57505e-06 -1.4107e-06 0)
(2.6944e-06 -1.36066e-06 0)
(2.81357e-06 -1.31063e-06 0)
(2.93259e-06 -1.26066e-06 0)
(3.05146e-06 -1.21087e-06 0)
(3.17016e-06 -1.16132e-06 0)
(3.28872e-06 -1.11238e-06 0)
(3.40709e-06 -1.06445e-06 0)
(8.4945e-08 -1.72845e-06 0)
(2.55984e-07 -1.70297e-06 0)
(4.3044e-07 -1.65299e-06 0)
(6.10267e-07 -1.58055e-06 0)
(7.97026e-07 -1.48847e-06 0)
(9.91688e-07 -1.38015e-06 0)
(1.19461e-06 -1.25963e-06 0)
(1.40539e-06 -1.131e-06 0)
(1.62337e-06 -9.98456e-07 0)
(1.84679e-06 -8.65327e-07 0)
(8.25561e-08 -1.75693e-06 0)
(2.48645e-07 -1.73363e-06 0)
(4.17574e-07 -1.68791e-06 0)
(5.90991e-07 -1.6215e-06 0)
(7.70222e-07 -1.5368e-06 0)
(9.56089e-07 -1.43669e-06 0)
(1.14894e-06 -1.32461e-06 0)
(1.34828e-06 -1.20412e-06 0)
(1.55337e-06 -1.07899e-06 0)
(1.76246e-06 -9.52264e-07 0)
(8.0443e-08 -1.78605e-06 0)
(2.42133e-07 -1.76473e-06 0)
(4.06146e-07 -1.72287e-06 0)
(5.73796e-07 -1.66196e-06 0)
(7.46207e-07 -1.58408e-06 0)
(9.24039e-07 -1.49176e-06 0)
(1.10768e-06 -1.38792e-06 0)
(1.29684e-06 -1.27559e-06 0)
(1.49106e-06 -1.15797e-06 0)
(1.68906e-06 -1.03727e-06 0)
(7.85781e-08 -1.81588e-06 0)
(2.3638e-07 -1.79626e-06 0)
(3.96135e-07 -1.7577e-06 0)
(5.58882e-07 -1.7015e-06 0)
(7.25572e-07 -1.62952e-06 0)
(8.96717e-07 -1.54395e-06 0)
(1.07262e-06 -1.44737e-06 0)
(1.25301e-06 -1.34248e-06 0)
(1.43748e-06 -1.23223e-06 0)
(1.62497e-06 -1.11847e-06 0)
(7.6867e-08 -1.84643e-06 0)
(2.31101e-07 -1.82832e-06 0)
(3.86963e-07 -1.79272e-06 0)
(5.45284e-07 -1.74077e-06 0)
(7.06861e-07 -1.67412e-06 0)
(8.72104e-07 -1.59475e-06 0)
(1.04129e-06 -1.50491e-06 0)
(1.21418e-06 -1.40692e-06 0)
(1.39048e-06 -1.30344e-06 0)
(1.56901e-06 -1.19618e-06 0)
(7.52689e-08 -1.87765e-06 0)
(2.26233e-07 -1.86085e-06 0)
(3.78546e-07 -1.82782e-06 0)
(5.32913e-07 -1.7796e-06 0)
(6.89984e-07 -1.71764e-06 0)
(8.50085e-07 -1.64374e-06 0)
(1.0134e-06 -1.55995e-06 0)
(1.17972e-06 -1.46832e-06 0)
(1.34887e-06 -1.37124e-06 0)
(1.51959e-06 -1.27039e-06 0)
(7.37467e-08 -1.9095e-06 0)
(2.21614e-07 -1.89388e-06 0)
(3.70609e-07 -1.86314e-06 0)
(5.21336e-07 -1.81826e-06 0)
(6.74314e-07 -1.76052e-06 0)
(8.29829e-07 -1.69156e-06 0)
(9.88019e-07 -1.61325e-06 0)
(1.14862e-06 -1.5274e-06 0)
(1.31161e-06 -1.43618e-06 0)
(1.47561e-06 -1.34128e-06 0)
(7.22973e-08 -1.94193e-06 0)
(2.17191e-07 -1.92734e-06 0)
(3.63055e-07 -1.89863e-06 0)
(5.10393e-07 -1.85673e-06 0)
(6.59633e-07 -1.80274e-06 0)
(8.11003e-07 -1.7382e-06 0)
(9.64618e-07 -1.66484e-06 0)
(1.12018e-06 -1.58427e-06 0)
(1.27777e-06 -1.49844e-06 0)
(1.43597e-06 -1.4091e-06 0)
(7.08769e-08 -1.97488e-06 0)
(2.12877e-07 -1.96123e-06 0)
(3.55733e-07 -1.93434e-06 0)
(4.99848e-07 -1.89509e-06 0)
(6.45609e-07 -1.84448e-06 0)
(7.93191e-07 -1.78393e-06 0)
(9.42679e-07 -1.71502e-06 0)
(1.09377e-06 -1.63926e-06 0)
(1.24661e-06 -1.55836e-06 0)
(1.39979e-06 -1.47411e-06 0)
(6.94587e-08 -2.00828e-06 0)
(2.08621e-07 -1.99547e-06 0)
(3.4854e-07 -1.97021e-06 0)
(4.89559e-07 -1.93333e-06 0)
(6.32021e-07 -1.88578e-06 0)
(7.76081e-07 -1.82881e-06 0)
(9.21792e-07 -1.76393e-06 0)
(1.06886e-06 -1.69254e-06 0)
(1.21746e-06 -1.61616e-06 0)
(1.36625e-06 -1.53656e-06 0)
(6.80369e-08 -2.04206e-06 0)
(2.04372e-07 -2.03003e-06 0)
(3.41367e-07 -2.00624e-06 0)
(4.79369e-07 -1.97149e-06 0)
(6.18653e-07 -1.92669e-06 0)
(7.5938e-07 -1.87298e-06 0)
(9.01591e-07 -1.81173e-06 0)
(1.045e-06 -1.74431e-06 0)
(1.18978e-06 -1.67206e-06 0)
(1.33468e-06 -1.59669e-06 0)
(6.66062e-08 -2.07614e-06 0)
(2.00074e-07 -2.06482e-06 0)
(3.34126e-07 -2.04236e-06 0)
(4.69138e-07 -2.00954e-06 0)
(6.05322e-07 -1.96724e-06 0)
(7.42843e-07 -1.91647e-06 0)
(8.81756e-07 -1.85854e-06 0)
(1.02178e-06 -1.79473e-06 0)
(1.16307e-06 -1.72624e-06 0)
(1.30449e-06 -1.65474e-06 0)
(6.51428e-08 -2.11046e-06 0)
(1.95658e-07 -2.09977e-06 0)
(3.26718e-07 -2.07852e-06 0)
(4.58716e-07 -2.04747e-06 0)
(5.9183e-07 -2.00743e-06 0)
(7.26225e-07 -1.95935e-06 0)
(8.61975e-07 -1.90444e-06 0)
(9.98803e-07 -1.84391e-06 0)
(1.13685e-06 -1.77887e-06 0)
(1.27514e-06 -1.71088e-06 0)
(6.36175e-08 -2.1449e-06 0)
(1.9106e-07 -2.13477e-06 0)
(3.19044e-07 -2.11465e-06 0)
(4.4796e-07 -2.08521e-06 0)
(5.77984e-07 -2.04724e-06 0)
(7.09281e-07 -2.00162e-06 0)
(8.41941e-07 -1.94949e-06 0)
(9.75709e-07 -1.89197e-06 0)
(1.11071e-06 -1.83008e-06 0)
(1.2461e-06 -1.76531e-06 0)
(6.20074e-08 -2.17937e-06 0)
(1.86228e-07 -2.16974e-06 0)
(3.11005e-07 -2.15067e-06 0)
(4.36727e-07 -2.12272e-06 0)
(5.6359e-07 -2.08666e-06 0)
(6.91762e-07 -2.04332e-06 0)
(8.21339e-07 -1.99374e-06 0)
(9.52116e-07 -1.93899e-06 0)
(1.0842e-06 -1.88001e-06 0)
(1.21683e-06 -1.81817e-06 0)
(6.02963e-08 -2.21368e-06 0)
(1.81105e-07 -2.20453e-06 0)
(3.02499e-07 -2.18644e-06 0)
(4.24866e-07 -2.15988e-06 0)
(5.48443e-07 -2.1256e-06 0)
(6.73401e-07 -2.08437e-06 0)
(7.99847e-07 -2.03716e-06 0)
(9.27648e-07 -1.98498e-06 0)
(1.05685e-06 -1.9287e-06 0)
(1.18685e-06 -1.86956e-06 0)
(5.84625e-08 -2.24779e-06 0)
(1.75616e-07 -2.23909e-06 0)
(2.93389e-07 -2.22192e-06 0)
(4.12187e-07 -2.19668e-06 0)
(5.32293e-07 -2.16407e-06 0)
(6.53886e-07 -2.12483e-06 0)
(7.77105e-07 -2.07985e-06 0)
(9.01859e-07 -2.03007e-06 0)
(1.02818e-06 -1.9763e-06 0)
(1.15558e-06 -1.9197e-06 0)
(5.64761e-08 -2.28137e-06 0)
(1.69666e-07 -2.27309e-06 0)
(2.83526e-07 -2.25679e-06 0)
(3.98482e-07 -2.23281e-06 0)
(5.14865e-07 -2.2018e-06 0)
(6.32886e-07 -2.16446e-06 0)
(7.52715e-07 -2.12161e-06 0)
(8.74281e-07 -2.07411e-06 0)
(9.97658e-07 -2.02272e-06 0)
(1.12244e-06 -1.96853e-06 0)
(5.42908e-08 -2.31453e-06 0)
(1.63123e-07 -2.30668e-06 0)
(2.7269e-07 -2.29121e-06 0)
(3.83457e-07 -2.26846e-06 0)
(4.95789e-07 -2.23901e-06 0)
(6.09951e-07 -2.20351e-06 0)
(7.26141e-07 -2.1627e-06 0)
(8.44347e-07 -2.1174e-06 0)
(9.6465e-07 -2.06831e-06 0)
(1.08675e-06 -2.01643e-06 0)
(5.18896e-08 -2.34636e-06 0)
(1.55943e-07 -2.33894e-06 0)
(2.60808e-07 -2.32431e-06 0)
(3.66986e-07 -2.30279e-06 0)
(4.74898e-07 -2.2749e-06 0)
(5.8487e-07 -2.24123e-06 0)
(6.97124e-07 -2.20246e-06 0)
(8.11754e-07 -2.15935e-06 0)
(9.28809e-07 -2.11258e-06 0)
(1.04815e-06 -2.06303e-06 0)
)


// ************************************************************************* //
