/*--------------------------------*- C++ -*----------------------------------*\
| =========                 |                                                 |
| \\      /  F ield         | foam-extend: Open Source CFD                    |
|  \\    /   O peration     | Version:     4.1                                |
|   \\  /    A nd           | Web:         http://www.foam-extend.org         |
|    \\/     M anipulation  |                                                 |
\*---------------------------------------------------------------------------*/
FoamFile
{
    version     2.0;
    format      ascii;
    class       vectorField;
    location    "4";
    object      solidsCellD_iteration271;
}
// * * * * * * * * * * * * * * * * * * * * * * * * * * * * * * * * * * * * * //


1000
(
(2.13001e-06 -9.39612e-07 0)
(2.00576e-06 -8.72431e-07 0)
(1.92561e-06 -8.28965e-07 0)
(1.87886e-06 -8.0756e-07 0)
(1.85502e-06 -7.98653e-07 0)
(1.84788e-06 -7.99451e-07 0)
(1.85301e-06 -8.06529e-07 0)
(1.86743e-06 -8.18236e-07 0)
(1.88864e-06 -8.33132e-07 0)
(1.91578e-06 -8.50255e-07 0)
(1.92536e-06 -1.02618e-06 0)
(1.79302e-06 -9.78523e-07 0)
(1.70786e-06 -9.47364e-07 0)
(1.65747e-06 -9.34301e-07 0)
(1.63089e-06 -9.30898e-07 0)
(1.62134e-06 -9.35579e-07 0)
(1.62421e-06 -9.45449e-07 0)
(1.63628e-06 -9.59219e-07 0)
(1.65501e-06 -9.75908e-07 0)
(1.67895e-06 -9.9395e-07 0)
(1.71289e-06 -1.10825e-06 0)
(1.57772e-06 -1.08244e-06 0)
(1.49088e-06 -1.06507e-06 0)
(1.43897e-06 -1.06127e-06 0)
(1.41094e-06 -1.06391e-06 0)
(1.39974e-06 -1.07279e-06 0)
(1.40073e-06 -1.08558e-06 0)
(1.41062e-06 -1.10147e-06 0)
(1.42687e-06 -1.11987e-06 0)
(1.44796e-06 -1.13914e-06 0)
(1.49422e-06 -1.18437e-06 0)
(1.36182e-06 -1.1815e-06 0)
(1.27688e-06 -1.17864e-06 0)
(1.22571e-06 -1.18453e-06 0)
(1.19762e-06 -1.19348e-06 0)
(1.18561e-06 -1.20669e-06 0)
(1.1852e-06 -1.22245e-06 0)
(1.19313e-06 -1.24047e-06 0)
(1.20707e-06 -1.2605e-06 0)
(1.22532e-06 -1.28105e-06 0)
(1.27077e-06 -1.25305e-06 0)
(1.1468e-06 -1.27295e-06 0)
(1.06735e-06 -1.28449e-06 0)
(1.01923e-06 -1.29996e-06 0)
(9.925e-07 -1.31513e-06 0)
(9.8053e-07 -1.33258e-06 0)
(9.79187e-07 -1.35123e-06 0)
(9.85409e-07 -1.37132e-06 0)
(9.97121e-07 -1.39288e-06 0)
(1.01258e-06 -1.41475e-06 0)
(1.04372e-06 -1.31286e-06 0)
(9.33638e-07 -1.35407e-06 0)
(8.63144e-07 -1.37911e-06 0)
(8.20266e-07 -1.40355e-06 0)
(7.96248e-07 -1.42452e-06 0)
(7.85145e-07 -1.44591e-06 0)
(7.83336e-07 -1.46722e-06 0)
(7.88075e-07 -1.48923e-06 0)
(7.97614e-07 -1.51219e-06 0)
(8.10265e-07 -1.53532e-06 0)
(8.1409e-07 -1.36248e-06 0)
(7.228e-07 -1.42237e-06 0)
(6.64376e-07 -1.45924e-06 0)
(6.28732e-07 -1.49152e-06 0)
(6.08642e-07 -1.51756e-06 0)
(5.99149e-07 -1.54241e-06 0)
(5.97279e-07 -1.56602e-06 0)
(6.00735e-07 -1.58972e-06 0)
(6.08134e-07 -1.61388e-06 0)
(6.17973e-07 -1.63817e-06 0)
(5.82673e-07 -1.40076e-06 0)
(5.14312e-07 -1.47565e-06 0)
(4.70575e-07 -1.52203e-06 0)
(4.43833e-07 -1.56061e-06 0)
(4.28696e-07 -1.59072e-06 0)
(4.21435e-07 -1.61834e-06 0)
(4.19841e-07 -1.64381e-06 0)
(4.22181e-07 -1.66886e-06 0)
(4.27456e-07 -1.69398e-06 0)
(4.3448e-07 -1.71923e-06 0)
(3.5011e-07 -1.42679e-06 0)
(3.07785e-07 -1.51217e-06 0)
(2.80704e-07 -1.56521e-06 0)
(2.64119e-07 -1.6082e-06 0)
(2.54701e-07 -1.64115e-06 0)
(2.50138e-07 -1.6707e-06 0)
(2.49068e-07 -1.69747e-06 0)
(2.50414e-07 -1.72348e-06 0)
(2.53572e-07 -1.74927e-06 0)
(2.57782e-07 -1.77521e-06 0)
(1.16925e-07 -1.4399e-06 0)
(1.02579e-07 -1.5307e-06 0)
(9.33891e-08 -1.58717e-06 0)
(8.77493e-08 -1.63244e-06 0)
(8.45361e-08 -1.66687e-06 0)
(8.29662e-08 -1.69742e-06 0)
(8.2579e-08 -1.72486e-06 0)
(8.30087e-08 -1.75137e-06 0)
(8.40535e-08 -1.77751e-06 0)
(8.54509e-08 -1.8038e-06 0)
(3.33228e-06 -4.29488e-08 0)
(3.36334e-06 -3.09147e-08 0)
(3.38126e-06 -2.32372e-08 0)
(3.40022e-06 -1.86728e-08 0)
(3.42046e-06 -1.60808e-08 0)
(3.44539e-06 -1.48131e-08 0)
(3.47494e-06 -1.4436e-08 0)
(3.50959e-06 -1.4643e-08 0)
(3.54922e-06 -1.5269e-08 0)
(3.5933e-06 -1.60386e-08 0)
(3.30739e-06 -1.28818e-07 0)
(3.33329e-06 -9.34191e-08 0)
(3.34797e-06 -7.08839e-08 0)
(3.36477e-06 -5.75223e-08 0)
(3.38358e-06 -4.99653e-08 0)
(3.40751e-06 -4.63032e-08 0)
(3.43633e-06 -4.52577e-08 0)
(3.47039e-06 -4.59296e-08 0)
(3.50953e-06 -4.78262e-08 0)
(3.55307e-06 -5.01496e-08 0)
(3.2577e-06 -2.15426e-07 0)
(3.27375e-06 -1.58567e-07 0)
(3.2822e-06 -1.22396e-07 0)
(3.29487e-06 -1.01006e-07 0)
(3.31096e-06 -8.89546e-08 0)
(3.33295e-06 -8.31817e-08 0)
(3.36037e-06 -8.16199e-08 0)
(3.39328e-06 -8.28348e-08 0)
(3.43147e-06 -8.60104e-08 0)
(3.47395e-06 -8.99051e-08 0)
(3.18411e-06 -3.03101e-07 0)
(3.18616e-06 -2.27855e-07 0)
(3.18574e-06 -1.79973e-07 0)
(3.19252e-06 -1.51771e-07 0)
(3.20473e-06 -1.35963e-07 0)
(3.22397e-06 -1.28525e-07 0)
(3.24939e-06 -1.26684e-07 0)
(3.28066e-06 -1.28563e-07 0)
(3.31751e-06 -1.33028e-07 0)
(3.3585e-06 -1.38519e-07 0)
(3.08781e-06 -3.92084e-07 0)
(3.07253e-06 -3.02523e-07 0)
(3.06114e-06 -2.45496e-07 0)
(3.06065e-06 -2.12099e-07 0)
(3.06805e-06 -1.93521e-07 0)
(3.08387e-06 -1.85011e-07 0)
(3.1068e-06 -1.83214e-07 0)
(3.13603e-06 -1.8592e-07 0)
(3.17119e-06 -1.917e-07 0)
(3.21035e-06 -1.98817e-07 0)
(2.97029e-06 -4.824e-07 0)
(2.93541e-06 -3.83357e-07 0)
(2.91162e-06 -3.20229e-07 0)
(2.90288e-06 -2.83558e-07 0)
(2.90481e-06 -2.63378e-07 0)
(2.91674e-06 -2.54505e-07 0)
(2.93681e-06 -2.53133e-07 0)
(2.96371e-06 -2.56863e-07 0)
(2.99689e-06 -2.63991e-07 0)
(3.034e-06 -2.72758e-07 0)
(2.83331e-06 -5.73877e-07 0)
(2.77773e-06 -4.70677e-07 0)
(2.74085e-06 -4.04812e-07 0)
(2.72339e-06 -3.66991e-07 0)
(2.71953e-06 -3.46507e-07 0)
(2.7273e-06 -3.38053e-07 0)
(2.74428e-06 -3.37547e-07 0)
(2.76867e-06 -3.42521e-07 0)
(2.79966e-06 -3.51068e-07 0)
(2.83458e-06 -3.61511e-07 0)
(2.67876e-06 -6.66097e-07 0)
(2.60267e-06 -5.6426e-07 0)
(2.55282e-06 -4.99149e-07 0)
(2.52669e-06 -4.6238e-07 0)
(2.51701e-06 -4.42934e-07 0)
(2.52058e-06 -4.35711e-07 0)
(2.53437e-06 -4.36516e-07 0)
(2.55614e-06 -4.42971e-07 0)
(2.58478e-06 -4.53008e-07 0)
(2.61748e-06 -4.65196e-07 0)
(2.50867e-06 -7.58411e-07 0)
(2.41352e-06 -6.63347e-07 0)
(2.35164e-06 -6.02417e-07 0)
(2.31741e-06 -5.68862e-07 0)
(2.30227e-06 -5.51778e-07 0)
(2.30182e-06 -5.46569e-07 0)
(2.31248e-06 -5.49146e-07 0)
(2.33166e-06 -5.57287e-07 0)
(2.35783e-06 -5.69006e-07 0)
(2.38839e-06 -5.82971e-07 0)
(2.32509e-06 -8.49945e-07 0)
(2.21352e-06 -7.66659e-07 0)
(2.14131e-06 -7.13086e-07 0)
(2.10004e-06 -6.84746e-07 0)
(2.08006e-06 -6.71233e-07 0)
(2.07593e-06 -6.6875e-07 0)
(2.08361e-06 -6.73446e-07 0)
(2.10021e-06 -6.8345e-07 0)
(2.12382e-06 -6.9681e-07 0)
(2.15233e-06 -7.13004e-07 0)
(3.64203e-06 -1.68257e-08 0)
(3.69523e-06 -1.69164e-08 0)
(3.75187e-06 -1.70661e-08 0)
(3.81178e-06 -1.71543e-08 0)
(3.87456e-06 -1.71607e-08 0)
(3.93995e-06 -1.70789e-08 0)
(4.00766e-06 -1.68876e-08 0)
(4.07743e-06 -1.65841e-08 0)
(4.14901e-06 -1.61561e-08 0)
(4.22215e-06 -1.55976e-08 0)
(4.29664e-06 -1.48978e-08 0)
(4.37224e-06 -1.40463e-08 0)
(4.44872e-06 -1.30292e-08 0)
(4.52584e-06 -1.18302e-08 0)
(4.60338e-06 -1.04287e-08 0)
(4.681e-06 -8.80038e-09 0)
(4.75856e-06 -6.91342e-09 0)
(4.83547e-06 -4.73416e-09 0)
(4.91188e-06 -2.20732e-09 0)
(4.98635e-06 6.89071e-10 0)
(3.6036e-06 -5.23258e-08 0)
(3.66003e-06 -5.23453e-08 0)
(3.71958e-06 -5.25631e-08 0)
(3.78199e-06 -5.2641e-08 0)
(3.847e-06 -5.25006e-08 0)
(3.91436e-06 -5.21256e-08 0)
(3.98384e-06 -5.14438e-08 0)
(4.05519e-06 -5.04459e-08 0)
(4.12821e-06 -4.90908e-08 0)
(4.20267e-06 -4.73583e-08 0)
(4.27836e-06 -4.52138e-08 0)
(4.35507e-06 -4.26246e-08 0)
(4.4326e-06 -3.9547e-08 0)
(4.51069e-06 -3.59315e-08 0)
(4.58915e-06 -3.17143e-08 0)
(4.66766e-06 -2.68226e-08 0)
(4.74607e-06 -2.11596e-08 0)
(4.82381e-06 -1.46242e-08 0)
(4.90103e-06 -7.05015e-09 0)
(4.97631e-06 1.62876e-09 0)
(3.52802e-06 -9.29059e-08 0)
(3.59079e-06 -9.21293e-08 0)
(3.656e-06 -9.17598e-08 0)
(3.72332e-06 -9.13269e-08 0)
(3.7927e-06 -9.06184e-08 0)
(3.86392e-06 -8.96164e-08 0)
(3.93687e-06 -8.81713e-08 0)
(4.01133e-06 -8.62606e-08 0)
(4.08718e-06 -8.38033e-08 0)
(4.16422e-06 -8.0758e-08 0)
(4.24229e-06 -7.70601e-08 0)
(4.3212e-06 -7.26496e-08 0)
(4.40077e-06 -6.74492e-08 0)
(4.48079e-06 -6.13726e-08 0)
(4.56108e-06 -5.43107e-08 0)
(4.64133e-06 -4.61392e-08 0)
(4.72142e-06 -3.66946e-08 0)
(4.80078e-06 -2.58061e-08 0)
(4.87961e-06 -1.31954e-08 0)
(4.95649e-06 1.25072e-09 0)
(3.41759e-06 -1.41469e-07 0)
(3.48948e-06 -1.38768e-07 0)
(3.56289e-06 -1.3677e-07 0)
(3.63731e-06 -1.35031e-07 0)
(3.71305e-06 -1.33084e-07 0)
(3.7899e-06 -1.30922e-07 0)
(3.86791e-06 -1.2828e-07 0)
(3.94693e-06 -1.25109e-07 0)
(4.02692e-06 -1.21273e-07 0)
(4.10774e-06 -1.16697e-07 0)
(4.1893e-06 -1.11278e-07 0)
(4.27143e-06 -1.04919e-07 0)
(4.35401e-06 -9.75046e-08 0)
(4.43686e-06 -8.89047e-08 0)
(4.51982e-06 -7.89607e-08 0)
(4.60262e-06 -6.74931e-08 0)
(4.68516e-06 -5.42675e-08 0)
(4.76691e-06 -3.90406e-08 0)
(4.84808e-06 -2.14182e-08 0)
(4.92731e-06 -1.23272e-09 0)
(3.27566e-06 -2.00604e-07 0)
(3.35897e-06 -1.94523e-07 0)
(3.44276e-06 -1.89549e-07 0)
(3.5262e-06 -1.85461e-07 0)
(3.61007e-06 -1.81401e-07 0)
(3.69412e-06 -1.77375e-07 0)
(3.77864e-06 -1.72964e-07 0)
(3.86353e-06 -1.68071e-07 0)
(3.94886e-06 -1.62486e-07 0)
(4.03457e-06 -1.56085e-07 0)
(4.12062e-06 -1.48713e-07 0)
(4.20692e-06 -1.40229e-07 0)
(4.29338e-06 -1.30468e-07 0)
(4.37987e-06 -1.19253e-07 0)
(4.46628e-06 -1.06369e-07 0)
(4.55238e-06 -9.15766e-08 0)
(4.63809e-06 -7.45672e-08 0)
(4.72292e-06 -5.50212e-08 0)
(4.80712e-06 -3.2426e-08 0)
(4.88938e-06 -6.55296e-09 0)
(3.10632e-06 -2.72135e-07 0)
(3.20276e-06 -2.60997e-07 0)
(3.29868e-06 -2.51473e-07 0)
(3.3927e-06 -2.4378e-07 0)
(3.48619e-06 -2.36563e-07 0)
(3.57881e-06 -2.29815e-07 0)
(3.6711e-06 -2.22944e-07 0)
(3.76301e-06 -2.15768e-07 0)
(3.85476e-06 -2.07991e-07 0)
(3.94633e-06 -1.99416e-07 0)
(4.03779e-06 -1.89824e-07 0)
(4.1291e-06 -1.79014e-07 0)
(4.22024e-06 -1.66765e-07 0)
(4.31112e-06 -1.52841e-07 0)
(4.40167e-06 -1.36966e-07 0)
(4.49171e-06 -1.18835e-07 0)
(4.58122e-06 -9.80595e-08 0)
(4.66975e-06 -7.42401e-08 0)
(4.75757e-06 -4.67431e-08 0)
(4.84348e-06 -1.52699e-08 0)
(2.91429e-06 -3.57243e-07 0)
(3.02496e-06 -3.39329e-07 0)
(3.13424e-06 -3.23674e-07 0)
(3.24002e-06 -3.11037e-07 0)
(3.34427e-06 -2.99583e-07 0)
(3.44655e-06 -2.89187e-07 0)
(3.54762e-06 -2.79112e-07 0)
(3.64753e-06 -2.69034e-07 0)
(3.74658e-06 -2.58563e-07 0)
(3.84486e-06 -2.47405e-07 0)
(3.9425e-06 -2.35269e-07 0)
(4.03955e-06 -2.2188e-07 0)
(4.13604e-06 -2.06953e-07 0)
(4.23194e-06 -1.90186e-07 0)
(4.32725e-06 -1.71236e-07 0)
(4.42181e-06 -1.49728e-07 0)
(4.51566e-06 -1.25191e-07 0)
(4.60841e-06 -9.71439e-08 0)
(4.70038e-06 -6.48326e-08 0)
(4.79045e-06 -2.78861e-08 0)
(2.70445e-06 -4.56117e-07 0)
(2.82977e-06 -4.29587e-07 0)
(2.95302e-06 -4.06255e-07 0)
(3.07137e-06 -3.8719e-07 0)
(3.18716e-06 -3.7034e-07 0)
(3.29998e-06 -3.55285e-07 0)
(3.41066e-06 -3.41201e-07 0)
(3.51937e-06 -3.27568e-07 0)
(3.62648e-06 -3.13893e-07 0)
(3.73219e-06 -2.99759e-07 0)
(3.83669e-06 -2.84784e-07 0)
(3.94009e-06 -2.68605e-07 0)
(4.04251e-06 -2.50857e-07 0)
(4.14397e-06 -2.31165e-07 0)
(4.24452e-06 -2.0911e-07 0)
(4.34408e-06 -1.84243e-07 0)
(4.44271e-06 -1.56007e-07 0)
(4.54012e-06 -1.23837e-07 0)
(4.63665e-06 -8.68592e-08 0)
(4.73133e-06 -4.46247e-08 0)
(2.4821e-06 -5.6859e-07 0)
(2.62199e-06 -5.3186e-07 0)
(2.75913e-06 -4.99853e-07 0)
(2.89044e-06 -4.73109e-07 0)
(3.0181e-06 -4.49886e-07 0)
(3.14193e-06 -4.29275e-07 0)
(3.26272e-06 -4.10406e-07 0)
(3.38075e-06 -3.92545e-07 0)
(3.49646e-06 -3.75085e-07 0)
(3.61011e-06 -3.57486e-07 0)
(3.72197e-06 -3.39263e-07 0)
(3.83223e-06 -3.19964e-07 0)
(3.94105e-06 -2.99138e-07 0)
(4.04851e-06 -2.76332e-07 0)
(4.15472e-06 -2.51047e-07 0)
(4.25966e-06 -2.22757e-07 0)
(4.36346e-06 -1.9082e-07 0)
(4.46589e-06 -1.54587e-07 0)
(4.56733e-06 -1.13077e-07 0)
(4.66697e-06 -6.57722e-08 0)
(2.25131e-06 -6.92506e-07 0)
(2.40534e-06 -6.43576e-07 0)
(2.55552e-06 -6.01905e-07 0)
(2.7e-06 -5.66247e-07 0)
(2.83981e-06 -5.35562e-07 0)
(2.97515e-06 -5.08525e-07 0)
(3.10655e-06 -4.84168e-07 0)
(3.23442e-06 -4.61565e-07 0)
(3.3592e-06 -4.39944e-07 0)
(3.48124e-06 -4.18621e-07 0)
(3.60087e-06 -3.96984e-07 0)
(3.71834e-06 -3.74469e-07 0)
(3.83388e-06 -3.5053e-07 0)
(3.94764e-06 -3.24624e-07 0)
(4.05979e-06 -2.96172e-07 0)
(4.17037e-06 -2.64567e-07 0)
(4.27955e-06 -2.29085e-07 0)
(4.38722e-06 -1.88999e-07 0)
(4.49379e-06 -1.43222e-07 0)
(4.59863e-06 -9.11527e-08 0)
(2.0824e-06 -8.08996e-07 0)
(2.24488e-06 -7.50854e-07 0)
(2.40223e-06 -7.02364e-07 0)
(2.55423e-06 -6.59971e-07 0)
(2.70127e-06 -6.22979e-07 0)
(2.84361e-06 -5.90108e-07 0)
(2.98171e-06 -5.60372e-07 0)
(3.11591e-06 -5.32839e-07 0)
(3.24663e-06 -5.06693e-07 0)
(3.37422e-06 -4.81194e-07 0)
(3.49899e-06 -4.5567e-07 0)
(3.62123e-06 -4.29495e-07 0)
(3.74118e-06 -4.02065e-07 0)
(3.85904e-06 -3.7278e-07 0)
(3.975e-06 -3.41012e-07 0)
(4.08917e-06 -3.06109e-07 0)
(4.20176e-06 -2.67311e-07 0)
(4.31275e-06 -2.2386e-07 0)
(4.42258e-06 -1.74645e-07 0)
(4.53081e-06 -1.19055e-07 0)
(1.98456e-06 -9.0236e-07 0)
(2.148e-06 -8.42083e-07 0)
(2.30653e-06 -7.89917e-07 0)
(2.46033e-06 -7.43531e-07 0)
(2.60947e-06 -7.02266e-07 0)
(2.75413e-06 -6.65074e-07 0)
(2.89462e-06 -6.31058e-07 0)
(3.03122e-06 -5.99362e-07 0)
(3.16426e-06 -5.69203e-07 0)
(3.29403e-06 -5.39863e-07 0)
(3.42083e-06 -5.10672e-07 0)
(3.54492e-06 -4.81001e-07 0)
(3.66655e-06 -4.50234e-07 0)
(3.78591e-06 -4.17765e-07 0)
(3.90324e-06 -3.8296e-07 0)
(4.01865e-06 -3.45169e-07 0)
(4.1324e-06 -3.03645e-07 0)
(4.24453e-06 -2.57652e-07 0)
(4.35549e-06 -2.06134e-07 0)
(4.46504e-06 -1.4853e-07 0)
(1.89964e-06 -9.92698e-07 0)
(2.06158e-06 -9.30818e-07 0)
(2.21978e-06 -8.76065e-07 0)
(2.37378e-06 -8.26505e-07 0)
(2.52365e-06 -7.81648e-07 0)
(2.66938e-06 -7.40657e-07 0)
(2.81118e-06 -7.02747e-07 0)
(2.94922e-06 -6.67164e-07 0)
(3.08375e-06 -6.33185e-07 0)
(3.21502e-06 -6.00133e-07 0)
(3.34327e-06 -5.67363e-07 0)
(3.46875e-06 -5.34257e-07 0)
(3.59167e-06 -5.00208e-07 0)
(3.71225e-06 -4.64616e-07 0)
(3.8307e-06 -4.26856e-07 0)
(3.94719e-06 -3.86292e-07 0)
(4.06197e-06 -3.42205e-07 0)
(4.17516e-06 -2.93896e-07 0)
(4.2872e-06 -2.40383e-07 0)
(4.39801e-06 -1.81164e-07 0)
(1.82426e-06 -1.07974e-06 0)
(1.98391e-06 -1.01697e-06 0)
(2.14071e-06 -9.60217e-07 0)
(2.29386e-06 -9.08019e-07 0)
(2.44345e-06 -8.60058e-07 0)
(2.58929e-06 -8.15685e-07 0)
(2.73153e-06 -7.7424e-07 0)
(2.87022e-06 -7.3507e-07 0)
(3.00557e-06 -6.97521e-07 0)
(3.13773e-06 -6.60968e-07 0)
(3.26693e-06 -6.24798e-07 0)
(3.39336e-06 -5.8842e-07 0)
(3.51723e-06 -5.51246e-07 0)
(3.63873e-06 -5.12691e-07 0)
(3.75808e-06 -4.72154e-07 0)
(3.87546e-06 -4.29022e-07 0)
(3.99113e-06 -3.82618e-07 0)
(4.10526e-06 -3.32288e-07 0)
(4.21829e-06 -2.77136e-07 0)
(4.33026e-06 -2.16719e-07 0)
(1.75752e-06 -1.16316e-06 0)
(1.91414e-06 -1.1e-06 0)
(2.06871e-06 -1.04187e-06 0)
(2.22019e-06 -9.87629e-07 0)
(2.36867e-06 -9.37123e-07 0)
(2.51384e-06 -8.89857e-07 0)
(2.65577e-06 -8.45297e-07 0)
(2.79446e-06 -8.02893e-07 0)
(2.93e-06 -7.6207e-07 0)
(3.06253e-06 -7.22263e-07 0)
(3.19221e-06 -6.82906e-07 0)
(3.31919e-06 -6.43441e-07 0)
(3.44367e-06 -6.03313e-07 0)
(3.56582e-06 -5.61966e-07 0)
(3.68584e-06 -5.18826e-07 0)
(3.80394e-06 -4.73318e-07 0)
(3.92037e-06 -4.24813e-07 0)
(4.03533e-06 -3.72714e-07 0)
(4.14923e-06 -3.16222e-07 0)
(4.26226e-06 -2.54954e-07 0)
(1.69796e-06 -1.24291e-06 0)
(1.85116e-06 -1.17978e-06 0)
(2.00297e-06 -1.12073e-06 0)
(2.15219e-06 -1.06493e-06 0)
(2.29894e-06 -1.01235e-06 0)
(2.44283e-06 -9.62621e-07 0)
(2.58386e-06 -9.15345e-07 0)
(2.72196e-06 -8.70064e-07 0)
(2.8572e-06 -8.26285e-07 0)
(2.98963e-06 -7.83506e-07 0)
(3.11937e-06 -7.41215e-07 0)
(3.24655e-06 -6.98896e-07 0)
(3.37133e-06 -6.56033e-07 0)
(3.49388e-06 -6.12103e-07 0)
(3.61437e-06 -5.66574e-07 0)
(3.73301e-06 -5.18913e-07 0)
(3.85006e-06 -4.68545e-07 0)
(3.96573e-06 -4.14937e-07 0)
(4.08041e-06 -3.57389e-07 0)
(4.19438e-06 -2.95583e-07 0)
(1.64444e-06 -1.31905e-06 0)
(1.79397e-06 -1.25626e-06 0)
(1.94265e-06 -1.19669e-06 0)
(2.08921e-06 -1.13974e-06 0)
(2.23379e-06 -1.08551e-06 0)
(2.37592e-06 -1.03374e-06 0)
(2.51559e-06 -9.8414e-07 0)
(2.65267e-06 -9.36342e-07 0)
(2.78716e-06 -8.89935e-07 0)
(2.9191e-06 -8.44482e-07 0)
(3.04856e-06 -7.99526e-07 0)
(3.17564e-06 -7.54602e-07 0)
(3.30047e-06 -7.09235e-07 0)
(3.42318e-06 -6.62947e-07 0)
(3.54396e-06 -6.15248e-07 0)
(3.66299e-06 -5.65653e-07 0)
(3.78051e-06 -5.13649e-07 0)
(3.89678e-06 -4.58766e-07 0)
(4.01214e-06 -4.0041e-07 0)
(4.12692e-06 -3.38322e-07 0)
(1.59583e-06 -1.39172e-06 0)
(1.7416e-06 -1.32949e-06 0)
(1.88695e-06 -1.26968e-06 0)
(2.03059e-06 -1.21194e-06 0)
(2.17268e-06 -1.15642e-06 0)
(2.31273e-06 -1.10298e-06 0)
(2.45069e-06 -1.05141e-06 0)
(2.58639e-06 -1.00144e-06 0)
(2.71982e-06 -9.52731e-07 0)
(2.85095e-06 -9.04907e-07 0)
(2.97984e-06 -8.5757e-07 0)
(3.10656e-06 -8.10306e-07 0)
(3.2312e-06 -7.62685e-07 0)
(3.35389e-06 -7.14276e-07 0)
(3.47478e-06 -6.64637e-07 0)
(3.59406e-06 -6.13334e-07 0)
(3.71195e-06 -5.59918e-07 0)
(3.82869e-06 -5.03982e-07 0)
(3.94462e-06 -4.45035e-07 0)
(4.0601e-06 -3.82877e-07 0)
(1.55117e-06 -1.46114e-06 0)
(1.69318e-06 -1.3996e-06 0)
(1.83509e-06 -1.33978e-06 0)
(1.97568e-06 -1.28152e-06 0)
(2.11508e-06 -1.22502e-06 0)
(2.25281e-06 -1.17023e-06 0)
(2.38881e-06 -1.11703e-06 0)
(2.52288e-06 -1.06521e-06 0)
(2.65498e-06 -1.01451e-06 0)
(2.78507e-06 -9.64617e-07 0)
(2.91317e-06 -9.15182e-07 0)
(3.03932e-06 -8.65844e-07 0)
(3.16359e-06 -8.16224e-07 0)
(3.28609e-06 -7.65934e-07 0)
(3.40696e-06 -7.14585e-07 0)
(3.52637e-06 -6.61794e-07 0)
(3.64451e-06 -6.07174e-07 0)
(3.76163e-06 -5.50385e-07 0)
(3.87803e-06 -4.9103e-07 0)
(3.9941e-06 -4.28967e-07 0)
(1.50958e-06 -1.52753e-06 0)
(1.64789e-06 -1.46675e-06 0)
(1.78635e-06 -1.40708e-06 0)
(1.92382e-06 -1.34851e-06 0)
(2.06043e-06 -1.29129e-06 0)
(2.1957e-06 -1.23544e-06 0)
(2.32957e-06 -1.1809e-06 0)
(2.46184e-06 -1.12754e-06 0)
(2.59244e-06 -1.07514e-06 0)
(2.7213e-06 -1.02346e-06 0)
(2.84844e-06 -9.72209e-07 0)
(2.97386e-06 -9.21064e-07 0)
(3.09762e-06 -8.69697e-07 0)
(3.2198e-06 -8.17768e-07 0)
(3.34053e-06 -7.64936e-07 0)
(3.45996e-06 -7.10869e-07 0)
(3.57826e-06 -6.55242e-07 0)
(3.69567e-06 -5.97776e-07 0)
(3.81245e-06 -5.38165e-07 0)
(3.92899e-06 -4.76319e-07 0)
(1.47029e-06 -1.59113e-06 0)
(1.605e-06 -1.53112e-06 0)
(1.74005e-06 -1.47171e-06 0)
(1.87441e-06 -1.413e-06 0)
(2.00818e-06 -1.35527e-06 0)
(2.14093e-06 -1.2986e-06 0)
(2.27258e-06 -1.24299e-06 0)
(2.40293e-06 -1.18835e-06 0)
(2.53191e-06 -1.13454e-06 0)
(2.65943e-06 -1.08136e-06 0)
(2.78548e-06 -1.02855e-06 0)
(2.91006e-06 -9.75861e-07 0)
(3.0332e-06 -9.22995e-07 0)
(3.15497e-06 -8.6966e-07 0)
(3.27547e-06 -8.15561e-07 0)
(3.39483e-06 -7.60419e-07 0)
(3.51321e-06 -7.03964e-07 0)
(3.63083e-06 -6.45975e-07 0)
(3.74791e-06 -5.8623e-07 0)
(3.86482e-06 -5.24682e-07 0)
(1.43259e-06 -1.65215e-06 0)
(1.56383e-06 -1.59291e-06 0)
(1.69555e-06 -1.53383e-06 0)
(1.82684e-06 -1.4751e-06 0)
(1.95779e-06 -1.41704e-06 0)
(2.08801e-06 -1.35975e-06 0)
(2.21741e-06 -1.3033e-06 0)
(2.3458e-06 -1.24764e-06 0)
(2.47309e-06 -1.19268e-06 0)
(2.5992e-06 -1.13824e-06 0)
(2.7241e-06 -1.08414e-06 0)
(2.84776e-06 -1.03015e-06 0)
(2.97021e-06 -9.76025e-07 0)
(3.0915e-06 -9.21508e-07 0)
(3.21171e-06 -8.66351e-07 0)
(3.33094e-06 -8.10319e-07 0)
(3.44933e-06 -7.53198e-07 0)
(3.56709e-06 -6.94818e-07 0)
(3.68439e-06 -6.35032e-07 0)
(3.80159e-06 -5.73829e-07 0)
(1.39583e-06 -1.71082e-06 0)
(1.52373e-06 -1.6523e-06 0)
(1.65223e-06 -1.59359e-06 0)
(1.78054e-06 -1.53494e-06 0)
(1.90874e-06 -1.47669e-06 0)
(2.03646e-06 -1.41897e-06 0)
(2.16363e-06 -1.36188e-06 0)
(2.29006e-06 -1.30543e-06 0)
(2.41566e-06 -1.24954e-06 0)
(2.54034e-06 -1.1941e-06 0)
(2.66405e-06 -1.13895e-06 0)
(2.78677e-06 -1.08389e-06 0)
(2.90849e-06 -1.02873e-06 0)
(3.02926e-06 -9.7324e-07 0)
(3.14912e-06 -9.17217e-07 0)
(3.26818e-06 -8.60466e-07 0)
(3.38653e-06 -8.02822e-07 0)
(3.50437e-06 -7.4416e-07 0)
(3.62184e-06 -6.84398e-07 0)
(3.73925e-06 -6.23559e-07 0)
(1.35941e-06 -1.76732e-06 0)
(1.4841e-06 -1.70949e-06 0)
(1.60952e-06 -1.65116e-06 0)
(1.73496e-06 -1.59266e-06 0)
(1.8605e-06 -1.53433e-06 0)
(1.98582e-06 -1.47634e-06 0)
(2.11083e-06 -1.41881e-06 0)
(2.23535e-06 -1.36176e-06 0)
(2.35929e-06 -1.30517e-06 0)
(2.48256e-06 -1.24894e-06 0)
(2.6051e-06 -1.19296e-06 0)
(2.72687e-06 -1.13706e-06 0)
(2.84785e-06 -1.08107e-06 0)
(2.96808e-06 -1.0248e-06 0)
(3.08758e-06 -9.6809e-07 0)
(3.20643e-06 -9.10775e-07 0)
(3.32471e-06 -8.5273e-07 0)
(3.44258e-06 -7.93875e-07 0)
(3.56016e-06 -7.3418e-07 0)
(3.67772e-06 -6.73696e-07 0)
(1.3227e-06 -1.82183e-06 0)
(1.44436e-06 -1.76463e-06 0)
(1.56684e-06 -1.70671e-06 0)
(1.68956e-06 -1.64843e-06 0)
(1.81258e-06 -1.59013e-06 0)
(1.93561e-06 -1.532e-06 0)
(2.05857e-06 -1.47418e-06 0)
(2.18127e-06 -1.41672e-06 0)
(2.30364e-06 -1.35962e-06 0)
(2.42556e-06 -1.30281e-06 0)
(2.54697e-06 -1.2462e-06 0)
(2.66783e-06 -1.18966e-06 0)
(2.7881e-06 -1.13303e-06 0)
(2.90779e-06 -1.07617e-06 0)
(3.02692e-06 -1.01892e-06 0)
(3.14555e-06 -9.6118e-07 0)
(3.26374e-06 -9.02841e-07 0)
(3.38161e-06 -8.4386e-07 0)
(3.49925e-06 -7.84254e-07 0)
(3.6169e-06 -7.24096e-07 0)
(1.28516e-06 -1.87448e-06 0)
(1.40392e-06 -1.81796e-06 0)
(1.5236e-06 -1.76039e-06 0)
(1.64379e-06 -1.70237e-06 0)
(1.76446e-06 -1.64421e-06 0)
(1.88538e-06 -1.58606e-06 0)
(2.00644e-06 -1.5281e-06 0)
(2.12747e-06 -1.4704e-06 0)
(2.24838e-06 -1.41297e-06 0)
(2.36905e-06 -1.35576e-06 0)
(2.48942e-06 -1.29871e-06 0)
(2.60942e-06 -1.24171e-06 0)
(2.72902e-06 -1.18462e-06 0)
(2.84821e-06 -1.12732e-06 0)
(2.96699e-06 -1.06969e-06 0)
(3.08539e-06 -1.01163e-06 0)
(3.20347e-06 -9.53084e-07 0)
(3.32131e-06 -8.94029e-07 0)
(3.43899e-06 -8.34516e-07 0)
(3.55668e-06 -7.74639e-07 0)
(1.2462e-06 -1.92552e-06 0)
(1.36211e-06 -1.86945e-06 0)
(1.47912e-06 -1.81239e-06 0)
(1.59709e-06 -1.75475e-06 0)
(1.71563e-06 -1.69678e-06 0)
(1.83466e-06 -1.63873e-06 0)
(1.95402e-06 -1.58076e-06 0)
(2.07357e-06 -1.52296e-06 0)
(2.19318e-06 -1.46535e-06 0)
(2.31275e-06 -1.40791e-06 0)
(2.43219e-06 -1.35058e-06 0)
(2.55144e-06 -1.29327e-06 0)
(2.67043e-06 -1.23587e-06 0)
(2.78916e-06 -1.17827e-06 0)
(2.9076e-06 -1.12037e-06 0)
(3.02579e-06 -1.0621e-06 0)
(3.14375e-06 -1.00342e-06 0)
(3.26155e-06 -9.44321e-07 0)
(3.37923e-06 -8.84891e-07 0)
(3.49694e-06 -8.25235e-07 0)
(1.20486e-06 -1.97487e-06 0)
(1.31836e-06 -1.91934e-06 0)
(1.43319e-06 -1.86289e-06 0)
(1.54899e-06 -1.80566e-06 0)
(1.66567e-06 -1.74799e-06 0)
(1.78304e-06 -1.69014e-06 0)
(1.90095e-06 -1.63228e-06 0)
(2.01924e-06 -1.57451e-06 0)
(2.13777e-06 -1.51686e-06 0)
(2.25642e-06 -1.45933e-06 0)
(2.37509e-06 -1.40186e-06 0)
(2.49369e-06 -1.34438e-06 0)
(2.61217e-06 -1.2868e-06 0)
(2.73049e-06 -1.22902e-06 0)
(2.84863e-06 -1.17096e-06 0)
(2.96661e-06 -1.11256e-06 0)
(3.08444e-06 -1.05379e-06 0)
(3.20218e-06 -9.94677e-07 0)
(3.31984e-06 -9.35311e-07 0)
(3.43754e-06 -8.75811e-07 0)
(1.16062e-06 -2.0231e-06 0)
(1.27192e-06 -1.96825e-06 0)
(1.38473e-06 -1.91227e-06 0)
(1.49878e-06 -1.85548e-06 0)
(1.61395e-06 -1.79819e-06 0)
(1.73002e-06 -1.74063e-06 0)
(1.84681e-06 -1.68298e-06 0)
(1.96415e-06 -1.62534e-06 0)
(2.08188e-06 -1.56776e-06 0)
(2.19984e-06 -1.51024e-06 0)
(2.31792e-06 -1.45273e-06 0)
(2.43603e-06 -1.39519e-06 0)
(2.55409e-06 -1.33752e-06 0)
(2.67207e-06 -1.27964e-06 0)
(2.78994e-06 -1.22149e-06 0)
(2.9077e-06 -1.16301e-06 0)
(3.02539e-06 -1.1042e-06 0)
(3.14303e-06 -1.04508e-06 0)
(3.26065e-06 -9.85748e-07 0)
(3.37833e-06 -9.26341e-07 0)
(1.1129e-06 -2.06979e-06 0)
(1.22224e-06 -2.01568e-06 0)
(1.3334e-06 -1.96041e-06 0)
(1.44609e-06 -1.90421e-06 0)
(1.56015e-06 -1.84742e-06 0)
(1.67531e-06 -1.79028e-06 0)
(1.79138e-06 -1.73295e-06 0)
(1.90812e-06 -1.67554e-06 0)
(2.02535e-06 -1.61812e-06 0)
(2.1429e-06 -1.56069e-06 0)
(2.26061e-06 -1.50323e-06 0)
(2.37838e-06 -1.44569e-06 0)
(2.49614e-06 -1.388e-06 0)
(2.61382e-06 -1.33009e-06 0)
(2.73143e-06 -1.2719e-06 0)
(2.84897e-06 -1.21339e-06 0)
(2.96647e-06 -1.15457e-06 0)
(3.08398e-06 -1.09545e-06 0)
(3.20152e-06 -1.03615e-06 0)
(3.31916e-06 -9.7678e-07 0)
(8.50044e-08 -1.83083e-06 0)
(2.56287e-07 -1.80359e-06 0)
(4.31444e-07 -1.75023e-06 0)
(6.12645e-07 -1.67285e-06 0)
(8.01699e-07 -1.57442e-06 0)
(9.99749e-07 -1.45861e-06 0)
(1.20725e-06 -1.32964e-06 0)
(1.42387e-06 -1.19197e-06 0)
(1.64859e-06 -1.05012e-06 0)
(1.87987e-06 -9.07804e-07 0)
(8.24744e-08 -1.85885e-06 0)
(2.48503e-07 -1.83396e-06 0)
(4.17788e-07 -1.78519e-06 0)
(5.92159e-07 -1.71428e-06 0)
(7.73165e-07 -1.62378e-06 0)
(9.6181e-07 -1.51682e-06 0)
(1.1585e-06 -1.39696e-06 0)
(1.36297e-06 -1.26805e-06 0)
(1.57398e-06 -1.13423e-06 0)
(1.79065e-06 -9.98196e-07 0)
(8.02743e-08 -1.88757e-06 0)
(2.41718e-07 -1.86482e-06 0)
(4.05834e-07 -1.82019e-06 0)
(5.74119e-07 -1.75521e-06 0)
(7.47857e-07 -1.67207e-06 0)
(9.27918e-07 -1.57347e-06 0)
(1.11471e-06 -1.46247e-06 0)
(1.30823e-06 -1.34228e-06 0)
(1.50757e-06 -1.21652e-06 0)
(1.71228e-06 -1.08662e-06 0)
(7.83175e-08 -1.91705e-06 0)
(2.35705e-07 -1.89611e-06 0)
(3.95324e-07 -1.85502e-06 0)
(5.58419e-07 -1.7951e-06 0)
(7.26057e-07 -1.71829e-06 0)
(8.98959e-07 -1.62692e-06 0)
(1.07743e-06 -1.52373e-06 0)
(1.26147e-06 -1.41149e-06 0)
(1.45035e-06 -1.29359e-06 0)
(1.64362e-06 -1.17098e-06 0)
(7.65125e-08 -1.94726e-06 0)
(2.30166e-07 -1.92795e-06 0)
(3.85679e-07 -1.89001e-06 0)
(5.44081e-07 -1.83465e-06 0)
(7.06265e-07 -1.76355e-06 0)
(8.72835e-07 -1.67881e-06 0)
(1.04407e-06 -1.58282e-06 0)
(1.21997e-06 -1.47795e-06 0)
(1.40004e-06 -1.36728e-06 0)
(1.58345e-06 -1.25162e-06 0)
(7.48338e-08 -1.97817e-06 0)
(2.25032e-07 -1.96026e-06 0)
(3.76796e-07 -1.92507e-06 0)
(5.30988e-07 -1.87366e-06 0)
(6.88351e-07 -1.80758e-06 0)
(8.49372e-07 -1.72867e-06 0)
(1.01429e-06 -1.63913e-06 0)
(1.18302e-06 -1.54104e-06 0)
(1.35537e-06 -1.43717e-06 0)
(1.53017e-06 -1.3284e-06 0)
(7.32283e-08 -2.00973e-06 0)
(2.20134e-07 -1.99307e-06 0)
(3.6837e-07 -1.96032e-06 0)
(5.18661e-07 -1.91245e-06 0)
(6.71639e-07 -1.85085e-06 0)
(8.27694e-07 -1.7772e-06 0)
(9.87055e-07 -1.69347e-06 0)
(1.14955e-06 -1.60154e-06 0)
(1.3152e-06 -1.50387e-06 0)
(1.48256e-06 -1.40153e-06 0)
(7.16756e-08 -2.04186e-06 0)
(2.15411e-07 -2.0263e-06 0)
(3.60293e-07 -1.99571e-06 0)
(5.06935e-07 -1.95096e-06 0)
(6.55883e-07 -1.89334e-06 0)
(8.07438e-07 -1.82437e-06 0)
(9.61828e-07 -1.74587e-06 0)
(1.1188e-06 -1.65956e-06 0)
(1.27854e-06 -1.56758e-06 0)
(1.43947e-06 -1.47121e-06 0)
(7.01457e-08 -2.0745e-06 0)
(2.1077e-07 -2.05993e-06 0)
(3.52397e-07 -2.03126e-06 0)
(4.95557e-07 -1.98931e-06 0)
(6.40729e-07 -1.93525e-06 0)
(7.88148e-07 -1.87048e-06 0)
(9.38038e-07 -1.79668e-06 0)
(1.09008e-06 -1.71544e-06 0)
(1.24458e-06 -1.62866e-06 0)
(1.39991e-06 -1.53774e-06 0)
(6.86202e-08 -2.10756e-06 0)
(2.06154e-07 -2.09387e-06 0)
(3.44583e-07 -2.06692e-06 0)
(4.84371e-07 -2.02746e-06 0)
(6.25949e-07 -1.97659e-06 0)
(7.69501e-07 -1.9156e-06 0)
(9.15248e-07 -1.84603e-06 0)
(1.06284e-06 -1.76939e-06 0)
(1.21263e-06 -1.68734e-06 0)
(1.36304e-06 -1.60138e-06 0)
(6.70784e-08 -2.14097e-06 0)
(2.015e-07 -2.12806e-06 0)
(3.36736e-07 -2.10265e-06 0)
(4.73207e-07 -2.06544e-06 0)
(6.11307e-07 -2.01744e-06 0)
(7.51187e-07 -1.95986e-06 0)
(8.9306e-07 -1.89411e-06 0)
(1.03657e-06 -1.82162e-06 0)
(1.18207e-06 -1.74387e-06 0)
(1.32811e-06 -1.6624e-06 0)
(6.55028e-08 -2.17461e-06 0)
(1.96752e-07 -2.16241e-06 0)
(3.28762e-07 -2.1384e-06 0)
(4.61923e-07 -2.10322e-06 0)
(5.96603e-07 -2.05781e-06 0)
(7.32934e-07 -2.00331e-06 0)
(8.71122e-07 -1.94101e-06 0)
(1.01083e-06 -1.87229e-06 0)
(1.15238e-06 -1.79845e-06 0)
(1.29445e-06 -1.72104e-06 0)
(6.38744e-08 -2.2084e-06 0)
(1.91854e-07 -2.19685e-06 0)
(3.20561e-07 -2.1741e-06 0)
(4.5037e-07 -2.14077e-06 0)
(5.81632e-07 -2.09772e-06 0)
(7.14477e-07 -2.04602e-06 0)
(8.49099e-07 -1.98685e-06 0)
(9.85192e-07 -1.92153e-06 0)
(1.12304e-06 -1.85126e-06 0)
(1.26148e-06 -1.77752e-06 0)
(6.21743e-08 -2.2422e-06 0)
(1.86748e-07 -2.23124e-06 0)
(3.12033e-07 -2.20966e-06 0)
(4.38401e-07 -2.17801e-06 0)
(5.66197e-07 -2.13712e-06 0)
(6.95556e-07 -2.08797e-06 0)
(8.26665e-07 -2.03167e-06 0)
(9.5926e-07 -1.96945e-06 0)
(1.09357e-06 -1.90242e-06 0)
(1.22861e-06 -1.832e-06 0)
(6.03807e-08 -2.27592e-06 0)
(1.81367e-07 -2.26551e-06 0)
(3.03065e-07 -2.245e-06 0)
(4.25854e-07 -2.21491e-06 0)
(5.5008e-07 -2.17599e-06 0)
(6.75894e-07 -2.12919e-06 0)
(8.03481e-07 -2.07551e-06 0)
(9.32622e-07 -2.01614e-06 0)
(1.06351e-06 -1.95207e-06 0)
(1.19529e-06 -1.88468e-06 0)
(5.84706e-08 -2.30934e-06 0)
(1.75642e-07 -2.29944e-06 0)
(2.93539e-07 -2.27993e-06 0)
(4.12559e-07 -2.25129e-06 0)
(5.33055e-07 -2.21422e-06 0)
(6.55205e-07 -2.16959e-06 0)
(7.79195e-07 -2.11835e-06 0)
(9.04861e-07 -2.06159e-06 0)
(1.03235e-06 -2.00026e-06 0)
(1.16096e-06 -1.93562e-06 0)
(5.64151e-08 -2.34243e-06 0)
(1.69486e-07 -2.33301e-06 0)
(2.83309e-07 -2.31444e-06 0)
(3.98306e-07 -2.28716e-06 0)
(5.1485e-07 -2.25182e-06 0)
(6.33147e-07 -2.20923e-06 0)
(7.53398e-07 -2.16027e-06 0)
(8.7549e-07 -2.10595e-06 0)
(9.99562e-07 -2.04716e-06 0)
(1.125e-06 -1.98509e-06 0)
(5.41847e-08 -2.37475e-06 0)
(1.62809e-07 -2.36579e-06 0)
(2.72226e-07 -2.34811e-06 0)
(3.82884e-07 -2.32214e-06 0)
(4.95185e-07 -2.28845e-06 0)
(6.09375e-07 -2.24781e-06 0)
(7.2567e-07 -2.20101e-06 0)
(8.44023e-07 -2.14901e-06 0)
(9.64534e-07 -2.09262e-06 0)
(1.08677e-06 -2.03297e-06 0)
(5.17336e-08 -2.40651e-06 0)
(1.55476e-07 -2.39799e-06 0)
(2.60058e-07 -2.38119e-06 0)
(3.6597e-07 -2.35648e-06 0)
(4.73645e-07 -2.32439e-06 0)
(5.83378e-07 -2.28562e-06 0)
(6.95417e-07 -2.24091e-06 0)
(8.09779e-07 -2.19115e-06 0)
(9.26563e-07 -2.13706e-06 0)
(1.04546e-06 -2.07971e-06 0)
(4.90405e-08 -2.43658e-06 0)
(1.47421e-07 -2.42851e-06 0)
(2.467e-07 -2.41257e-06 0)
(3.47404e-07 -2.38912e-06 0)
(4.50016e-07 -2.35863e-06 0)
(5.54881e-07 -2.32174e-06 0)
(6.62299e-07 -2.27913e-06 0)
(7.72355e-07 -2.2316e-06 0)
(8.85179e-07 -2.17985e-06 0)
(1.00056e-06 -2.12482e-06 0)
)


// ************************************************************************* //
