/*--------------------------------*- C++ -*----------------------------------*\
| =========                 |                                                 |
| \\      /  F ield         | foam-extend: Open Source CFD                    |
|  \\    /   O peration     | Version:     4.1                                |
|   \\  /    A nd           | Web:         http://www.foam-extend.org         |
|    \\/     M anipulation  |                                                 |
\*---------------------------------------------------------------------------*/
FoamFile
{
    version     2.0;
    format      ascii;
    class       vectorField;
    location    "4";
    object      solidsCellD_iteration0;
}
// * * * * * * * * * * * * * * * * * * * * * * * * * * * * * * * * * * * * * //


1000
(
(1.769e-06 -7.04709e-07 0)
(1.67735e-06 -6.54323e-07 0)
(1.61995e-06 -6.21724e-07 0)
(1.58855e-06 -6.0567e-07 0)
(1.57511e-06 -5.9899e-07 0)
(1.57485e-06 -5.99588e-07 0)
(1.58432e-06 -6.04897e-07 0)
(1.60115e-06 -6.13677e-07 0)
(1.62317e-06 -6.24849e-07 0)
(1.64915e-06 -6.37691e-07 0)
(1.6003e-06 -7.69633e-07 0)
(1.50241e-06 -7.33893e-07 0)
(1.44091e-06 -7.10523e-07 0)
(1.4063e-06 -7.00725e-07 0)
(1.39019e-06 -6.98173e-07 0)
(1.38733e-06 -7.01684e-07 0)
(1.3941e-06 -7.09087e-07 0)
(1.40789e-06 -7.19414e-07 0)
(1.42658e-06 -7.31931e-07 0)
(1.44881e-06 -7.45462e-07 0)
(1.42475e-06 -8.31186e-07 0)
(1.32455e-06 -8.11828e-07 0)
(1.26146e-06 -7.98801e-07 0)
(1.22524e-06 -7.95949e-07 0)
(1.20744e-06 -7.97935e-07 0)
(1.20262e-06 -8.0459e-07 0)
(1.20715e-06 -8.14187e-07 0)
(1.21843e-06 -8.26101e-07 0)
(1.23441e-06 -8.39904e-07 0)
(1.25385e-06 -8.54352e-07 0)
(1.24371e-06 -8.88275e-07 0)
(1.14539e-06 -8.86126e-07 0)
(1.0834e-06 -8.8398e-07 0)
(1.04729e-06 -8.88397e-07 0)
(1.02891e-06 -8.95113e-07 0)
(1.02286e-06 -9.05016e-07 0)
(1.02567e-06 -9.1684e-07 0)
(1.03481e-06 -9.30355e-07 0)
(1.04845e-06 -9.45379e-07 0)
(1.06527e-06 -9.60787e-07 0)
(1.05834e-06 -9.39787e-07 0)
(9.66176e-07 -9.5471e-07 0)
(9.08001e-07 -9.63366e-07 0)
(8.7377e-07 -9.74973e-07 0)
(8.55916e-07 -9.8635e-07 0)
(8.49356e-07 -9.99437e-07 0)
(8.50907e-07 -1.01342e-06 0)
(8.58208e-07 -1.02849e-06 0)
(8.6966e-07 -1.04466e-06 0)
(8.83931e-07 -1.06106e-06 0)
(8.69687e-07 -9.84646e-07 0)
(7.87765e-07 -1.01555e-06 0)
(7.36021e-07 -1.03433e-06 0)
(7.0535e-07 -1.05266e-06 0)
(6.89086e-07 -1.06839e-06 0)
(6.8269e-07 -1.08444e-06 0)
(6.83385e-07 -1.10041e-06 0)
(6.89069e-07 -1.11692e-06 0)
(6.98409e-07 -1.13414e-06 0)
(7.10122e-07 -1.15149e-06 0)
(6.78612e-07 -1.02186e-06 0)
(6.10634e-07 -1.06678e-06 0)
(5.67677e-07 -1.09443e-06 0)
(5.42083e-07 -1.11864e-06 0)
(5.28354e-07 -1.13817e-06 0)
(5.22712e-07 -1.15681e-06 0)
(5.22886e-07 -1.17452e-06 0)
(5.27127e-07 -1.19229e-06 0)
(5.34384e-07 -1.21041e-06 0)
(5.43522e-07 -1.22863e-06 0)
(4.85846e-07 -1.05057e-06 0)
(4.34919e-07 -1.10674e-06 0)
(4.02728e-07 -1.14152e-06 0)
(3.83478e-07 -1.17046e-06 0)
(3.7307e-07 -1.19304e-06 0)
(3.68669e-07 -1.21375e-06 0)
(3.68591e-07 -1.23286e-06 0)
(3.71522e-07 -1.25165e-06 0)
(3.76705e-07 -1.27049e-06 0)
(3.83246e-07 -1.28942e-06 0)
(2.91978e-07 -1.07009e-06 0)
(2.60442e-07 -1.13413e-06 0)
(2.40498e-07 -1.17391e-06 0)
(2.2854e-07 -1.20615e-06 0)
(2.22039e-07 -1.23086e-06 0)
(2.19239e-07 -1.25302e-06 0)
(2.19103e-07 -1.2731e-06 0)
(2.20818e-07 -1.29261e-06 0)
(2.23926e-07 -1.31195e-06 0)
(2.27856e-07 -1.3314e-06 0)
(9.75059e-08 -1.07993e-06 0)
(8.68172e-08 -1.14803e-06 0)
(8.00474e-08 -1.19038e-06 0)
(7.59775e-08 -1.22433e-06 0)
(7.37537e-08 -1.25015e-06 0)
(7.27818e-08 -1.27307e-06 0)
(7.27123e-08 -1.29365e-06 0)
(7.3269e-08 -1.31353e-06 0)
(7.43e-08 -1.33313e-06 0)
(7.56079e-08 -1.35285e-06 0)
(2.7497e-06 -3.22116e-08 0)
(2.77504e-06 -2.3186e-08 0)
(2.79208e-06 -1.74279e-08 0)
(2.81109e-06 -1.40046e-08 0)
(2.83197e-06 -1.20606e-08 0)
(2.85708e-06 -1.11098e-08 0)
(2.88619e-06 -1.0827e-08 0)
(2.91953e-06 -1.09822e-08 0)
(2.95688e-06 -1.14518e-08 0)
(2.99777e-06 -1.20289e-08 0)
(2.72959e-06 -9.66136e-08 0)
(2.75106e-06 -7.00643e-08 0)
(2.76567e-06 -5.31629e-08 0)
(2.78307e-06 -4.31417e-08 0)
(2.80291e-06 -3.7474e-08 0)
(2.82729e-06 -3.47274e-08 0)
(2.85587e-06 -3.39433e-08 0)
(2.88877e-06 -3.44472e-08 0)
(2.92576e-06 -3.58696e-08 0)
(2.96624e-06 -3.76122e-08 0)
(2.68944e-06 -1.6157e-07 0)
(2.70354e-06 -1.18926e-07 0)
(2.7135e-06 -9.17968e-08 0)
(2.72781e-06 -7.57543e-08 0)
(2.74564e-06 -6.6716e-08 0)
(2.76861e-06 -6.23862e-08 0)
(2.79619e-06 -6.12149e-08 0)
(2.82829e-06 -6.21261e-08 0)
(2.86464e-06 -6.45078e-08 0)
(2.9044e-06 -6.74289e-08 0)
(2.62994e-06 -2.27326e-07 0)
(2.63354e-06 -1.70891e-07 0)
(2.63685e-06 -1.3498e-07 0)
(2.64678e-06 -1.13828e-07 0)
(2.66172e-06 -1.01972e-07 0)
(2.68267e-06 -9.63936e-08 0)
(2.70881e-06 -9.50131e-08 0)
(2.73975e-06 -9.6422e-08 0)
(2.77517e-06 -9.9771e-08 0)
(2.8139e-06 -1.03889e-07 0)
(2.55194e-06 -2.94063e-07 0)
(2.54254e-06 -2.26892e-07 0)
(2.53763e-06 -1.84122e-07 0)
(2.54211e-06 -1.59074e-07 0)
(2.55348e-06 -1.4514e-07 0)
(2.57194e-06 -1.38759e-07 0)
(2.59632e-06 -1.3741e-07 0)
(2.62586e-06 -1.3944e-07 0)
(2.66016e-06 -1.43775e-07 0)
(2.69768e-06 -1.49113e-07 0)
(2.45656e-06 -3.618e-07 0)
(2.43245e-06 -2.87518e-07 0)
(2.4182e-06 -2.40172e-07 0)
(2.41649e-06 -2.12669e-07 0)
(2.42378e-06 -1.97533e-07 0)
(2.43937e-06 -1.90878e-07 0)
(2.46171e-06 -1.8985e-07 0)
(2.48967e-06 -1.92647e-07 0)
(2.52271e-06 -1.97993e-07 0)
(2.55896e-06 -2.04568e-07 0)
(2.34511e-06 -4.30408e-07 0)
(2.30544e-06 -3.53008e-07 0)
(2.28133e-06 -3.03609e-07 0)
(2.27303e-06 -2.75243e-07 0)
(2.27594e-06 -2.5988e-07 0)
(2.28844e-06 -2.5354e-07 0)
(2.30856e-06 -2.5316e-07 0)
(2.33483e-06 -2.5689e-07 0)
(2.36654e-06 -2.63301e-07 0)
(2.40155e-06 -2.71133e-07 0)
(2.21906e-06 -4.99573e-07 0)
(2.16393e-06 -4.23195e-07 0)
(2.12998e-06 -3.74361e-07 0)
(2.11505e-06 -3.46785e-07 0)
(2.11349e-06 -3.32201e-07 0)
(2.12277e-06 -3.26783e-07 0)
(2.14053e-06 -3.27387e-07 0)
(2.16501e-06 -3.32228e-07 0)
(2.19535e-06 -3.39756e-07 0)
(2.22932e-06 -3.48897e-07 0)
(2.07995e-06 -5.68809e-07 0)
(2.01042e-06 -4.9751e-07 0)
(1.96728e-06 -4.51813e-07 0)
(1.94605e-06 -4.26646e-07 0)
(1.94014e-06 -4.13833e-07 0)
(1.94616e-06 -4.09927e-07 0)
(1.9614e-06 -4.1186e-07 0)
(1.98394e-06 -4.17965e-07 0)
(2.01276e-06 -4.26755e-07 0)
(2.04603e-06 -4.37228e-07 0)
(1.9294e-06 -6.37459e-07 0)
(1.84742e-06 -5.74994e-07 0)
(1.79628e-06 -5.34815e-07 0)
(1.76943e-06 -5.13559e-07 0)
(1.75947e-06 -5.03424e-07 0)
(1.76224e-06 -5.01563e-07 0)
(1.77467e-06 -5.05084e-07 0)
(1.79471e-06 -5.12588e-07 0)
(1.8213e-06 -5.22607e-07 0)
(1.85377e-06 -5.34753e-07 0)
(3.04226e-06 -1.26193e-08 0)
(3.0907e-06 -1.26873e-08 0)
(3.14229e-06 -1.27996e-08 0)
(3.19687e-06 -1.28657e-08 0)
(3.25411e-06 -1.28705e-08 0)
(3.31379e-06 -1.28092e-08 0)
(3.37562e-06 -1.26657e-08 0)
(3.43939e-06 -1.24381e-08 0)
(3.50487e-06 -1.21171e-08 0)
(3.57184e-06 -1.16982e-08 0)
(3.64009e-06 -1.11733e-08 0)
(3.7094e-06 -1.05347e-08 0)
(3.77955e-06 -9.77188e-09 0)
(3.85033e-06 -8.87268e-09 0)
(3.92155e-06 -7.82149e-09 0)
(3.99292e-06 -6.60029e-09 0)
(4.0643e-06 -5.18506e-09 0)
(4.13522e-06 -3.55062e-09 0)
(4.20574e-06 -1.65549e-09 0)
(4.27472e-06 5.16803e-10 0)
(3.01208e-06 -3.92444e-08 0)
(3.06296e-06 -3.9259e-08 0)
(3.11678e-06 -3.94223e-08 0)
(3.17332e-06 -3.94807e-08 0)
(3.23236e-06 -3.93755e-08 0)
(3.29364e-06 -3.90942e-08 0)
(3.35695e-06 -3.85829e-08 0)
(3.42205e-06 -3.78344e-08 0)
(3.48873e-06 -3.68181e-08 0)
(3.55677e-06 -3.55187e-08 0)
(3.62599e-06 -3.39104e-08 0)
(3.69619e-06 -3.19685e-08 0)
(3.76721e-06 -2.96603e-08 0)
(3.83882e-06 -2.69486e-08 0)
(3.91083e-06 -2.37857e-08 0)
(3.98297e-06 -2.01169e-08 0)
(4.05508e-06 -1.58697e-08 0)
(4.12669e-06 -1.09682e-08 0)
(4.1979e-06 -5.28761e-09 0)
(4.26759e-06 1.22157e-09 0)
(2.95293e-06 -6.96794e-08 0)
(3.00866e-06 -6.9097e-08 0)
(3.06684e-06 -6.88199e-08 0)
(3.1272e-06 -6.84951e-08 0)
(3.18966e-06 -6.79638e-08 0)
(3.25399e-06 -6.72123e-08 0)
(3.32007e-06 -6.61285e-08 0)
(3.3877e-06 -6.46955e-08 0)
(3.45672e-06 -6.28525e-08 0)
(3.52692e-06 -6.05685e-08 0)
(3.59813e-06 -5.77951e-08 0)
(3.67018e-06 -5.44872e-08 0)
(3.74292e-06 -5.05869e-08 0)
(3.81615e-06 -4.60295e-08 0)
(3.88971e-06 -4.0733e-08 0)
(3.96334e-06 -3.46044e-08 0)
(4.0369e-06 -2.75209e-08 0)
(4.10991e-06 -1.93546e-08 0)
(4.1825e-06 -9.89655e-09 0)
(4.25355e-06 9.38036e-10 0)
(2.86629e-06 -1.06102e-07 0)
(2.92901e-06 -1.04076e-07 0)
(2.99356e-06 -1.02578e-07 0)
(3.05952e-06 -1.01273e-07 0)
(3.12704e-06 -9.98132e-08 0)
(3.19589e-06 -9.81916e-08 0)
(3.26607e-06 -9.62096e-08 0)
(3.3374e-06 -9.38318e-08 0)
(3.4098e-06 -9.09547e-08 0)
(3.48311e-06 -8.7523e-08 0)
(3.55723e-06 -8.34585e-08 0)
(3.63201e-06 -7.86895e-08 0)
(3.70729e-06 -7.31284e-08 0)
(3.78291e-06 -6.66786e-08 0)
(3.85874e-06 -5.92205e-08 0)
(3.93453e-06 -5.06198e-08 0)
(4.01018e-06 -4.07006e-08 0)
(4.08524e-06 -2.92805e-08 0)
(4.15984e-06 -1.60636e-08 0)
(4.23288e-06 -9.2454e-10 0)
(2.75485e-06 -1.50453e-07 0)
(2.82635e-06 -1.45892e-07 0)
(2.89899e-06 -1.42161e-07 0)
(2.97206e-06 -1.39096e-07 0)
(3.04608e-06 -1.36051e-07 0)
(3.12075e-06 -1.33031e-07 0)
(3.19624e-06 -1.29723e-07 0)
(3.27238e-06 -1.26053e-07 0)
(3.34917e-06 -1.21865e-07 0)
(3.42651e-06 -1.17064e-07 0)
(3.50434e-06 -1.11535e-07 0)
(3.58258e-06 -1.05172e-07 0)
(3.66111e-06 -9.78512e-08 0)
(3.73981e-06 -8.94398e-08 0)
(3.81856e-06 -7.97767e-08 0)
(3.89714e-06 -6.86824e-08 0)
(3.97549e-06 -5.59254e-08 0)
(4.05317e-06 -4.12659e-08 0)
(4.13037e-06 -2.43195e-08 0)
(4.20602e-06 -4.91473e-09 0)
(2.62164e-06 -2.04101e-07 0)
(2.70336e-06 -1.95748e-07 0)
(2.78557e-06 -1.88604e-07 0)
(2.86709e-06 -1.82835e-07 0)
(2.94884e-06 -1.77423e-07 0)
(3.03046e-06 -1.72361e-07 0)
(3.11227e-06 -1.67208e-07 0)
(3.19418e-06 -1.61826e-07 0)
(3.27626e-06 -1.55994e-07 0)
(3.35846e-06 -1.49562e-07 0)
(3.44078e-06 -1.42368e-07 0)
(3.52317e-06 -1.34261e-07 0)
(3.60559e-06 -1.25074e-07 0)
(3.68793e-06 -1.14631e-07 0)
(3.77016e-06 -1.02725e-07 0)
(3.85206e-06 -8.91262e-08 0)
(3.93361e-06 -7.35447e-08 0)
(4.01442e-06 -5.56801e-08 0)
(4.09471e-06 -3.50573e-08 0)
(4.17348e-06 -1.14524e-08 0)
(2.47018e-06 -2.67932e-07 0)
(2.56315e-06 -2.54496e-07 0)
(2.65606e-06 -2.42756e-07 0)
(2.74714e-06 -2.33278e-07 0)
(2.83767e-06 -2.24687e-07 0)
(2.92719e-06 -2.1689e-07 0)
(3.0162e-06 -2.09334e-07 0)
(3.10464e-06 -2.01775e-07 0)
(3.1927e-06 -1.93922e-07 0)
(3.2804e-06 -1.85554e-07 0)
(3.36781e-06 -1.76452e-07 0)
(3.45493e-06 -1.6641e-07 0)
(3.54176e-06 -1.55215e-07 0)
(3.62828e-06 -1.4264e-07 0)
(3.71444e-06 -1.28427e-07 0)
(3.80012e-06 -1.12296e-07 0)
(3.8853e-06 -9.38935e-08 0)
(3.96968e-06 -7.28579e-08 0)
(4.05349e-06 -4.86245e-08 0)
(4.13582e-06 -2.09146e-08 0)
(2.30412e-06 -3.42088e-07 0)
(2.40902e-06 -3.22191e-07 0)
(2.51344e-06 -3.04691e-07 0)
(2.61492e-06 -2.90392e-07 0)
(2.71499e-06 -2.77755e-07 0)
(2.8132e-06 -2.66464e-07 0)
(2.91011e-06 -2.55901e-07 0)
(3.00576e-06 -2.45676e-07 0)
(3.10039e-06 -2.3542e-07 0)
(3.19412e-06 -2.2482e-07 0)
(3.28711e-06 -2.13588e-07 0)
(3.3794e-06 -2.01454e-07 0)
(3.47106e-06 -1.88143e-07 0)
(3.56211e-06 -1.73374e-07 0)
(3.65257e-06 -1.56833e-07 0)
(3.74236e-06 -1.38182e-07 0)
(3.83151e-06 -1.17005e-07 0)
(3.91979e-06 -9.28776e-08 0)
(4.00744e-06 -6.51444e-08 0)
(4.09372e-06 -3.34686e-08 0)
(2.12733e-06 -4.26443e-07 0)
(2.24484e-06 -3.98895e-07 0)
(2.3612e-06 -3.7489e-07 0)
(2.47365e-06 -3.54832e-07 0)
(2.58362e-06 -3.37415e-07 0)
(2.69091e-06 -3.21956e-07 0)
(2.79607e-06 -3.07804e-07 0)
(2.89929e-06 -2.94409e-07 0)
(3.00088e-06 -2.81314e-07 0)
(3.10103e-06 -2.68114e-07 0)
(3.19995e-06 -2.54448e-07 0)
(3.29774e-06 -2.39973e-07 0)
(3.39455e-06 -2.24354e-07 0)
(3.49045e-06 -2.07249e-07 0)
(3.58547e-06 -1.88285e-07 0)
(3.67963e-06 -1.67068e-07 0)
(3.77299e-06 -1.43115e-07 0)
(3.86541e-06 -1.1594e-07 0)
(3.95716e-06 -8.48081e-08 0)
(4.04766e-06 -4.93291e-08 0)
(1.94292e-06 -5.1938e-07 0)
(2.07402e-06 -4.82682e-07 0)
(2.20223e-06 -4.51429e-07 0)
(2.32598e-06 -4.24685e-07 0)
(2.44609e-06 -4.01671e-07 0)
(2.56279e-06 -3.81394e-07 0)
(2.67651e-06 -3.63126e-07 0)
(2.7876e-06 -3.46174e-07 0)
(2.89641e-06 -3.29958e-07 0)
(3.00322e-06 -3.13966e-07 0)
(3.10829e-06 -2.97738e-07 0)
(3.2118e-06 -2.80852e-07 0)
(3.31394e-06 -2.62898e-07 0)
(3.41484e-06 -2.43468e-07 0)
(3.51457e-06 -2.22129e-07 0)
(3.61324e-06 -1.98425e-07 0)
(3.7109e-06 -1.71814e-07 0)
(3.80757e-06 -1.41749e-07 0)
(3.90353e-06 -1.07416e-07 0)
(3.99838e-06 -6.83645e-08 0)
(1.80428e-06 -6.06747e-07 0)
(1.94656e-06 -5.63141e-07 0)
(2.08233e-06 -5.26773e-07 0)
(2.21296e-06 -4.94978e-07 0)
(2.33933e-06 -4.67235e-07 0)
(2.4619e-06 -4.42581e-07 0)
(2.58113e-06 -4.20279e-07 0)
(2.69738e-06 -3.9963e-07 0)
(2.81099e-06 -3.8002e-07 0)
(2.92225e-06 -3.60895e-07 0)
(3.03142e-06 -3.41752e-07 0)
(3.13872e-06 -3.22121e-07 0)
(3.24438e-06 -3.01549e-07 0)
(3.34854e-06 -2.79585e-07 0)
(3.45132e-06 -2.55759e-07 0)
(3.55286e-06 -2.29582e-07 0)
(3.65327e-06 -2.00483e-07 0)
(3.75262e-06 -1.67895e-07 0)
(3.85124e-06 -1.30983e-07 0)
(3.94889e-06 -8.92913e-08 0)
(1.72618e-06 -6.7677e-07 0)
(1.8691e-06 -6.31562e-07 0)
(2.00652e-06 -5.92438e-07 0)
(2.13926e-06 -5.57648e-07 0)
(2.26784e-06 -5.26699e-07 0)
(2.39267e-06 -4.98805e-07 0)
(2.51413e-06 -4.73293e-07 0)
(2.63254e-06 -4.49521e-07 0)
(2.74819e-06 -4.26902e-07 0)
(2.86136e-06 -4.04897e-07 0)
(2.9723e-06 -3.83004e-07 0)
(3.08121e-06 -3.6075e-07 0)
(3.18833e-06 -3.37675e-07 0)
(3.29379e-06 -3.13323e-07 0)
(3.39775e-06 -2.8722e-07 0)
(3.50039e-06 -2.58877e-07 0)
(3.60182e-06 -2.27734e-07 0)
(3.70217e-06 -1.93239e-07 0)
(3.80179e-06 -1.546e-07 0)
(3.90053e-06 -1.11397e-07 0)
(1.66025e-06 -7.44523e-07 0)
(1.80132e-06 -6.98114e-07 0)
(1.93853e-06 -6.57048e-07 0)
(2.07173e-06 -6.19879e-07 0)
(2.20123e-06 -5.86236e-07 0)
(2.32724e-06 -5.55493e-07 0)
(2.45003e-06 -5.2706e-07 0)
(2.56981e-06 -5.00373e-07 0)
(2.68685e-06 -4.74889e-07 0)
(2.80138e-06 -4.501e-07 0)
(2.91363e-06 -4.25522e-07 0)
(3.02378e-06 -4.00692e-07 0)
(3.13206e-06 -3.75156e-07 0)
(3.23858e-06 -3.48462e-07 0)
(3.34355e-06 -3.20142e-07 0)
(3.44713e-06 -2.89719e-07 0)
(3.54947e-06 -2.56654e-07 0)
(3.65072e-06 -2.20422e-07 0)
(3.75126e-06 -1.80287e-07 0)
(3.85101e-06 -1.35873e-07 0)
(1.60245e-06 -8.09802e-07 0)
(1.74116e-06 -7.62724e-07 0)
(1.87713e-06 -7.20163e-07 0)
(2.00976e-06 -6.81014e-07 0)
(2.13925e-06 -6.45044e-07 0)
(2.26558e-06 -6.11764e-07 0)
(2.38894e-06 -5.8068e-07 0)
(2.50946e-06 -5.51302e-07 0)
(2.62733e-06 -5.23141e-07 0)
(2.74274e-06 -4.95726e-07 0)
(2.85588e-06 -4.68599e-07 0)
(2.96692e-06 -4.41315e-07 0)
(3.07607e-06 -4.13434e-07 0)
(3.18343e-06 -3.84519e-07 0)
(3.2892e-06 -3.54116e-07 0)
(3.39356e-06 -3.21767e-07 0)
(3.4967e-06 -2.86963e-07 0)
(3.59875e-06 -2.49216e-07 0)
(3.7001e-06 -2.07852e-07 0)
(3.80077e-06 -1.62539e-07 0)
(1.55158e-06 -8.72371e-07 0)
(1.68756e-06 -8.24999e-07 0)
(1.82164e-06 -7.814e-07 0)
(1.95297e-06 -7.40722e-07 0)
(2.0817e-06 -7.02843e-07 0)
(2.20767e-06 -6.67392e-07 0)
(2.33099e-06 -6.33973e-07 0)
(2.45166e-06 -6.0217e-07 0)
(2.56986e-06 -5.71553e-07 0)
(2.68573e-06 -5.41697e-07 0)
(2.79938e-06 -5.12179e-07 0)
(2.91099e-06 -4.82581e-07 0)
(3.02074e-06 -4.52485e-07 0)
(3.1287e-06 -4.21474e-07 0)
(3.2351e-06 -3.89119e-07 0)
(3.34009e-06 -3.54989e-07 0)
(3.44389e-06 -3.1861e-07 0)
(3.54665e-06 -2.79536e-07 0)
(3.64872e-06 -2.37166e-07 0)
(3.75021e-06 -1.91216e-07 0)
(1.50636e-06 -9.32179e-07 0)
(1.63943e-06 -8.84836e-07 0)
(1.77124e-06 -8.4055e-07 0)
(1.90081e-06 -7.98699e-07 0)
(2.02826e-06 -7.5926e-07 0)
(2.15334e-06 -7.21966e-07 0)
(2.27609e-06 -6.86509e-07 0)
(2.39646e-06 -6.52548e-07 0)
(2.51456e-06 -6.19714e-07 0)
(2.63049e-06 -5.8763e-07 0)
(2.74433e-06 -5.55911e-07 0)
(2.85621e-06 -5.24172e-07 0)
(2.96631e-06 -4.92024e-07 0)
(3.07466e-06 -4.59077e-07 0)
(3.18153e-06 -4.2493e-07 0)
(3.28701e-06 -3.89184e-07 0)
(3.39136e-06 -3.51409e-07 0)
(3.49471e-06 -3.11203e-07 0)
(3.59742e-06 -2.68042e-07 0)
(3.69963e-06 -2.21687e-07 0)
(1.46582e-06 -9.89285e-07 0)
(1.5959e-06 -9.42195e-07 0)
(1.7252e-06 -8.97514e-07 0)
(1.85269e-06 -8.54806e-07 0)
(1.97849e-06 -8.14131e-07 0)
(2.1023e-06 -7.75305e-07 0)
(2.2241e-06 -7.38105e-07 0)
(2.34378e-06 -7.02256e-07 0)
(2.46143e-06 -6.67451e-07 0)
(2.5771e-06 -6.33361e-07 0)
(2.69083e-06 -5.99645e-07 0)
(2.80274e-06 -5.65952e-07 0)
(2.91297e-06 -5.31927e-07 0)
(3.02154e-06 -4.9721e-07 0)
(3.12871e-06 -4.61436e-07 0)
(3.23456e-06 -4.24239e-07 0)
(3.33935e-06 -3.85237e-07 0)
(3.4432e-06 -3.44075e-07 0)
(3.54644e-06 -3.00307e-07 0)
(3.64928e-06 -2.53742e-07 0)
(1.4291e-06 -1.04379e-06 0)
(1.55617e-06 -9.97117e-07 0)
(1.68284e-06 -9.52263e-07 0)
(1.80806e-06 -9.08955e-07 0)
(1.93197e-06 -8.67315e-07 0)
(2.05423e-06 -8.27233e-07 0)
(2.17478e-06 -7.88559e-07 0)
(2.29348e-06 -7.51082e-07 0)
(2.4104e-06 -7.14549e-07 0)
(2.52554e-06 -6.7868e-07 0)
(2.63892e-06 -6.43178e-07 0)
(2.75065e-06 -6.07729e-07 0)
(2.86082e-06 -5.72014e-07 0)
(2.96946e-06 -5.35707e-07 0)
(3.0768e-06 -4.98478e-07 0)
(3.1829e-06 -4.6e-07 0)
(3.28802e-06 -4.19938e-07 0)
(3.39228e-06 -3.77987e-07 0)
(3.49597e-06 -3.33776e-07 0)
(3.59935e-06 -2.87158e-07 0)
(1.39543e-06 -1.09586e-06 0)
(1.51954e-06 -1.0497e-06 0)
(1.64352e-06 -1.00484e-06 0)
(1.76637e-06 -9.61138e-07 0)
(1.88823e-06 -9.18765e-07 0)
(2.00875e-06 -8.77673e-07 0)
(2.12785e-06 -8.37774e-07 0)
(2.24536e-06 -7.98911e-07 0)
(2.36132e-06 -7.60885e-07 0)
(2.47573e-06 -7.23462e-07 0)
(2.58858e-06 -6.86387e-07 0)
(2.69995e-06 -6.49383e-07 0)
(2.80991e-06 -6.12168e-07 0)
(2.91849e-06 -5.74451e-07 0)
(3.02588e-06 -5.35939e-07 0)
(3.13214e-06 -4.96346e-07 0)
(3.23749e-06 -4.55381e-07 0)
(3.34207e-06 -4.12789e-07 0)
(3.44614e-06 -3.68272e-07 0)
(3.54996e-06 -3.21725e-07 0)
(1.36413e-06 -1.14565e-06 0)
(1.48537e-06 -1.10006e-06 0)
(1.60667e-06 -1.05531e-06 0)
(1.72712e-06 -1.01138e-06 0)
(1.84684e-06 -9.68468e-07 0)
(1.96551e-06 -9.26577e-07 0)
(2.083e-06 -8.85675e-07 0)
(2.19917e-06 -8.45652e-07 0)
(2.31402e-06 -8.06356e-07 0)
(2.42755e-06 -7.67597e-07 0)
(2.53973e-06 -7.29157e-07 0)
(2.65061e-06 -6.90798e-07 0)
(2.76024e-06 -6.52273e-07 0)
(2.86865e-06 -6.13326e-07 0)
(2.97599e-06 -5.73702e-07 0)
(3.0823e-06 -5.33152e-07 0)
(3.18781e-06 -4.91431e-07 0)
(3.29263e-06 -4.48332e-07 0)
(3.39701e-06 -4.03624e-07 0)
(3.5012e-06 -3.57239e-07 0)
(1.33461e-06 -1.19335e-06 0)
(1.45306e-06 -1.14834e-06 0)
(1.57174e-06 -1.10379e-06 0)
(1.6898e-06 -1.05975e-06 0)
(1.80736e-06 -1.01645e-06 0)
(1.92411e-06 -9.73948e-07 0)
(2.03992e-06 -9.32241e-07 0)
(2.15465e-06 -8.91264e-07 0)
(2.2683e-06 -8.50907e-07 0)
(2.38085e-06 -8.11017e-07 0)
(2.49225e-06 -7.71415e-07 0)
(2.60255e-06 -7.31896e-07 0)
(2.71176e-06 -6.92246e-07 0)
(2.81989e-06 -6.52245e-07 0)
(2.9271e-06 -6.11671e-07 0)
(3.0334e-06 -5.70314e-07 0)
(3.13901e-06 -5.27973e-07 0)
(3.24401e-06 -4.84481e-07 0)
(3.34863e-06 -4.39673e-07 0)
(3.45311e-06 -3.93512e-07 0)
(1.30632e-06 -1.23912e-06 0)
(1.42211e-06 -1.19468e-06 0)
(1.53824e-06 -1.15037e-06 0)
(1.65395e-06 -1.10632e-06 0)
(1.76935e-06 -1.06278e-06 0)
(1.88416e-06 -1.01981e-06 0)
(1.99827e-06 -9.77475e-07 0)
(2.11152e-06 -9.35732e-07 0)
(2.22392e-06 -8.94507e-07 0)
(2.33543e-06 -8.53681e-07 0)
(2.44599e-06 -8.13108e-07 0)
(2.55563e-06 -7.72615e-07 0)
(2.66435e-06 -7.32019e-07 0)
(2.77215e-06 -6.91131e-07 0)
(2.87917e-06 -6.49763e-07 0)
(2.98541e-06 -6.07739e-07 0)
(3.09105e-06 -5.64899e-07 0)
(3.19618e-06 -5.21114e-07 0)
(3.30098e-06 -4.76274e-07 0)
(3.40568e-06 -4.30372e-07 0)
(1.27878e-06 -1.28312e-06 0)
(1.39201e-06 -1.23923e-06 0)
(1.50568e-06 -1.19519e-06 0)
(1.6191e-06 -1.1512e-06 0)
(1.73239e-06 -1.10751e-06 0)
(1.84529e-06 -1.06423e-06 0)
(1.9577e-06 -1.02141e-06 0)
(2.06948e-06 -9.79072e-07 0)
(2.18064e-06 -9.37157e-07 0)
(2.29109e-06 -8.95576e-07 0)
(2.40077e-06 -8.54212e-07 0)
(2.50971e-06 -8.12921e-07 0)
(2.61789e-06 -7.71547e-07 0)
(2.72532e-06 -7.2993e-07 0)
(2.83212e-06 -6.87912e-07 0)
(2.93826e-06 -6.4535e-07 0)
(3.0439e-06 -6.02116e-07 0)
(3.1491e-06 -5.5812e-07 0)
(3.25403e-06 -5.13298e-07 0)
(3.35889e-06 -4.67669e-07 0)
(1.25153e-06 -1.32549e-06 0)
(1.36231e-06 -1.28212e-06 0)
(1.4736e-06 -1.23837e-06 0)
(1.58482e-06 -1.1945e-06 0)
(1.69606e-06 -1.15075e-06 0)
(1.80712e-06 -1.10726e-06 0)
(1.9179e-06 -1.06411e-06 0)
(2.02826e-06 -1.02132e-06 0)
(2.13818e-06 -9.78876e-07 0)
(2.24759e-06 -9.36708e-07 0)
(2.35638e-06 -8.9472e-07 0)
(2.46461e-06 -8.52795e-07 0)
(2.57226e-06 -8.108e-07 0)
(2.6793e-06 -7.68602e-07 0)
(2.78586e-06 -7.26067e-07 0)
(2.89187e-06 -6.83081e-07 0)
(2.99746e-06 -6.39548e-07 0)
(3.10269e-06 -5.95406e-07 0)
(3.20771e-06 -5.50635e-07 0)
(3.31269e-06 -5.05272e-07 0)
(1.22409e-06 -1.36637e-06 0)
(1.33254e-06 -1.32348e-06 0)
(1.44157e-06 -1.28003e-06 0)
(1.55068e-06 -1.23632e-06 0)
(1.65997e-06 -1.1926e-06 0)
(1.7693e-06 -1.149e-06 0)
(1.87854e-06 -1.10563e-06 0)
(1.98755e-06 -1.06254e-06 0)
(2.0963e-06 -1.01971e-06 0)
(2.20468e-06 -9.77109e-07 0)
(2.31262e-06 -9.34652e-07 0)
(2.42018e-06 -8.92243e-07 0)
(2.52731e-06 -8.49772e-07 0)
(2.63398e-06 -8.07125e-07 0)
(2.74028e-06 -7.64194e-07 0)
(2.84612e-06 -7.20885e-07 0)
(2.95164e-06 -6.77131e-07 0)
(3.05689e-06 -6.32895e-07 0)
(3.16198e-06 -5.88191e-07 0)
(3.26703e-06 -5.43072e-07 0)
(1.19604e-06 -1.40586e-06 0)
(1.30226e-06 -1.36347e-06 0)
(1.40911e-06 -1.32029e-06 0)
(1.51626e-06 -1.27678e-06 0)
(1.62377e-06 -1.23315e-06 0)
(1.73151e-06 -1.18954e-06 0)
(1.83933e-06 -1.14608e-06 0)
(1.94708e-06 -1.1028e-06 0)
(2.05471e-06 -1.05972e-06 0)
(2.16215e-06 -1.01682e-06 0)
(2.26932e-06 -9.74035e-07 0)
(2.37627e-06 -9.3128e-07 0)
(2.48291e-06 -8.88463e-07 0)
(2.5892e-06 -8.45488e-07 0)
(2.69522e-06 -8.02266e-07 0)
(2.8009e-06 -7.58723e-07 0)
(2.90637e-06 -7.14813e-07 0)
(3.01162e-06 -6.70522e-07 0)
(3.11674e-06 -6.25887e-07 0)
(3.22179e-06 -5.80979e-07 0)
(1.16691e-06 -1.44414e-06 0)
(1.27094e-06 -1.40209e-06 0)
(1.37573e-06 -1.35929e-06 0)
(1.48118e-06 -1.31606e-06 0)
(1.58709e-06 -1.27259e-06 0)
(1.69341e-06 -1.22905e-06 0)
(1.79994e-06 -1.18557e-06 0)
(1.90654e-06 -1.14222e-06 0)
(2.01318e-06 -1.09901e-06 0)
(2.11981e-06 -1.05593e-06 0)
(2.22632e-06 -1.01293e-06 0)
(2.3327e-06 -9.6995e-07 0)
(2.43888e-06 -9.269e-07 0)
(2.5448e-06 -8.83701e-07 0)
(2.65059e-06 -8.40279e-07 0)
(2.75615e-06 -7.96576e-07 0)
(2.86154e-06 -7.52562e-07 0)
(2.96671e-06 -7.08241e-07 0)
(3.07184e-06 -6.63668e-07 0)
(3.177e-06 -6.18927e-07 0)
(1.13598e-06 -1.48115e-06 0)
(1.23815e-06 -1.43951e-06 0)
(1.34127e-06 -1.39717e-06 0)
(1.44509e-06 -1.35424e-06 0)
(1.5496e-06 -1.31099e-06 0)
(1.65465e-06 -1.26761e-06 0)
(1.76005e-06 -1.22421e-06 0)
(1.86569e-06 -1.18088e-06 0)
(1.97155e-06 -1.13765e-06 0)
(2.07751e-06 -1.0945e-06 0)
(2.18344e-06 -1.0514e-06 0)
(2.2893e-06 -1.00829e-06 0)
(2.39509e-06 -9.65101e-07 0)
(2.50076e-06 -9.21767e-07 0)
(2.60633e-06 -8.78221e-07 0)
(2.71168e-06 -8.34419e-07 0)
(2.81698e-06 -7.90343e-07 0)
(2.92215e-06 -7.46008e-07 0)
(3.02723e-06 -7.01483e-07 0)
(3.13234e-06 -6.56859e-07 0)
(1.10286e-06 -1.51733e-06 0)
(1.20333e-06 -1.47619e-06 0)
(1.30493e-06 -1.43421e-06 0)
(1.40744e-06 -1.39161e-06 0)
(1.51079e-06 -1.34864e-06 0)
(1.61482e-06 -1.30547e-06 0)
(1.71938e-06 -1.26224e-06 0)
(1.82434e-06 -1.21901e-06 0)
(1.9296e-06 -1.17582e-06 0)
(2.03501e-06 -1.13268e-06 0)
(2.14049e-06 -1.08955e-06 0)
(2.24603e-06 -1.04639e-06 0)
(2.35152e-06 -1.00314e-06 0)
(2.45688e-06 -9.5973e-07 0)
(2.56226e-06 -9.16116e-07 0)
(2.66749e-06 -8.72258e-07 0)
(2.77264e-06 -8.28147e-07 0)
(2.87775e-06 -7.83806e-07 0)
(2.98279e-06 -7.39311e-07 0)
(3.08789e-06 -6.94756e-07 0)
(1.0671e-06 -1.55234e-06 0)
(1.16609e-06 -1.51176e-06 0)
(1.26645e-06 -1.4703e-06 0)
(1.3679e-06 -1.42816e-06 0)
(1.4704e-06 -1.38557e-06 0)
(1.57379e-06 -1.34271e-06 0)
(1.67782e-06 -1.29971e-06 0)
(1.78229e-06 -1.25666e-06 0)
(1.88717e-06 -1.21359e-06 0)
(1.99231e-06 -1.17052e-06 0)
(2.0975e-06 -1.12742e-06 0)
(2.20276e-06 -1.08427e-06 0)
(2.30803e-06 -1.041e-06 0)
(2.4132e-06 -9.97564e-07 0)
(2.51837e-06 -9.53923e-07 0)
(2.62346e-06 -9.10044e-07 0)
(2.72848e-06 -8.65925e-07 0)
(2.83348e-06 -8.21589e-07 0)
(2.93845e-06 -7.77111e-07 0)
(3.04344e-06 -7.32585e-07 0)
(7.55433e-08 -1.37312e-06 0)
(2.27534e-07 -1.35269e-06 0)
(3.8228e-07 -1.31267e-06 0)
(5.41318e-07 -1.25464e-06 0)
(7.05936e-07 -1.18081e-06 0)
(8.76956e-07 -1.09396e-06 0)
(1.05473e-06 -9.9723e-07 0)
(1.2391e-06 -8.93975e-07 0)
(1.42957e-06 -7.87591e-07 0)
(1.62558e-06 -6.80853e-07 0)
(7.38744e-08 -1.39414e-06 0)
(2.22378e-07 -1.37547e-06 0)
(3.73151e-07 -1.33889e-06 0)
(5.27459e-07 -1.28571e-06 0)
(6.86381e-07 -1.21784e-06 0)
(8.50619e-07 -1.13761e-06 0)
(1.02045e-06 -1.04772e-06 0)
(1.1957e-06 -9.51038e-07 0)
(1.37548e-06 -8.50675e-07 0)
(1.55908e-06 -7.48647e-07 0)
(7.24179e-08 -1.41568e-06 0)
(2.17861e-07 -1.39861e-06 0)
(3.65108e-07 -1.36514e-06 0)
(5.15157e-07 -1.31641e-06 0)
(6.68875e-07 -1.25405e-06 0)
(8.26839e-07 -1.1801e-06 0)
(9.89283e-07 -1.09686e-06 0)
(1.15614e-06 -1.00671e-06 0)
(1.32662e-06 -9.12387e-07 0)
(1.5001e-06 -8.14965e-07 0)
(7.11099e-08 -1.43779e-06 0)
(2.13817e-07 -1.42208e-06 0)
(3.57968e-07 -1.39127e-06 0)
(5.04353e-07 -1.34633e-06 0)
(6.53662e-07 -1.28871e-06 0)
(8.06336e-07 -1.22019e-06 0)
(9.62495e-07 -1.1428e-06 0)
(1.12202e-06 -1.05862e-06 0)
(1.28416e-06 -9.70192e-07 0)
(1.44832e-06 -8.78236e-07 0)
(6.98832e-08 -1.46045e-06 0)
(2.1003e-07 -1.44596e-06 0)
(3.51309e-07 -1.41751e-06 0)
(4.94336e-07 -1.37599e-06 0)
(6.39656e-07 -1.32267e-06 0)
(7.87607e-07 -1.25911e-06 0)
(9.38258e-07 -1.18712e-06 0)
(1.09145e-06 -1.10847e-06 0)
(1.24662e-06 -1.02546e-06 0)
(1.40292e-06 -9.38717e-07 0)
(6.87205e-08 -1.48363e-06 0)
(2.06453e-07 -1.4702e-06 0)
(3.45068e-07 -1.4438e-06 0)
(4.85043e-07 -1.40525e-06 0)
(6.26804e-07 -1.35568e-06 0)
(7.70587e-07 -1.2965e-06 0)
(9.16414e-07 -1.22935e-06 0)
(1.06405e-06 -1.15578e-06 0)
(1.21317e-06 -1.07788e-06 0)
(1.36273e-06 -9.96303e-07 0)
(6.75842e-08 -1.5073e-06 0)
(2.02969e-07 -1.4948e-06 0)
(3.39034e-07 -1.47024e-06 0)
(4.76145e-07 -1.43434e-06 0)
(6.14643e-07 -1.38814e-06 0)
(7.5468e-07 -1.3329e-06 0)
(8.96265e-07 -1.2701e-06 0)
(1.03909e-06 -1.20116e-06 0)
(1.18302e-06 -1.1279e-06 0)
(1.32684e-06 -1.05115e-06 0)
(6.64622e-08 -1.53139e-06 0)
(1.99543e-07 -1.51973e-06 0)
(3.33144e-07 -1.49678e-06 0)
(4.67549e-07 -1.46322e-06 0)
(6.0303e-07 -1.42001e-06 0)
(7.39669e-07 -1.36828e-06 0)
(8.77465e-07 -1.3094e-06 0)
(1.01605e-06 -1.24467e-06 0)
(1.15545e-06 -1.17569e-06 0)
(1.29438e-06 -1.10341e-06 0)
(6.53352e-08 -1.55588e-06 0)
(1.96115e-07 -1.54495e-06 0)
(3.27294e-07 -1.52344e-06 0)
(4.59095e-07 -1.49198e-06 0)
(5.9174e-07 -1.45143e-06 0)
(7.25256e-07 -1.40286e-06 0)
(8.59636e-07 -1.34751e-06 0)
(9.94477e-07 -1.28658e-06 0)
(1.12989e-06 -1.22149e-06 0)
(1.26461e-06 -1.1533e-06 0)
(6.41932e-08 -1.58067e-06 0)
(1.92655e-07 -1.5704e-06 0)
(3.21429e-07 -1.55019e-06 0)
(4.50696e-07 -1.52059e-06 0)
(5.80637e-07 -1.48244e-06 0)
(7.11238e-07 -1.4367e-06 0)
(8.42486e-07 -1.38452e-06 0)
(9.7396e-07 -1.32704e-06 0)
(1.10582e-06 -1.2655e-06 0)
(1.23689e-06 -1.20103e-06 0)
(6.30244e-08 -1.60573e-06 0)
(1.89125e-07 -1.59604e-06 0)
(3.15483e-07 -1.57699e-06 0)
(4.42247e-07 -1.54908e-06 0)
(5.69571e-07 -1.51308e-06 0)
(6.97407e-07 -1.4699e-06 0)
(8.25736e-07 -1.42058e-06 0)
(9.54142e-07 -1.36621e-06 0)
(1.08281e-06 -1.3079e-06 0)
(1.21064e-06 -1.2468e-06 0)
(6.18196e-08 -1.63096e-06 0)
(1.85499e-07 -1.62181e-06 0)
(3.09403e-07 -1.6038e-06 0)
(4.33665e-07 -1.57742e-06 0)
(5.58412e-07 -1.54336e-06 0)
(6.83576e-07 -1.50249e-06 0)
(8.09135e-07 -1.45576e-06 0)
(9.34693e-07 -1.40421e-06 0)
(1.06043e-06 -1.34884e-06 0)
(1.18538e-06 -1.29078e-06 0)
(6.05683e-08 -1.6563e-06 0)
(1.81743e-07 -1.64764e-06 0)
(3.03133e-07 -1.63058e-06 0)
(4.24859e-07 -1.60558e-06 0)
(5.47027e-07 -1.57329e-06 0)
(6.6956e-07 -1.53451e-06 0)
(7.92439e-07 -1.49014e-06 0)
(9.15304e-07 -1.44115e-06 0)
(1.03832e-06 -1.38844e-06 0)
(1.16064e-06 -1.33314e-06 0)
(5.92599e-08 -1.68165e-06 0)
(1.77826e-07 -1.67343e-06 0)
(2.96615e-07 -1.65724e-06 0)
(4.15738e-07 -1.63351e-06 0)
(5.35282e-07 -1.60284e-06 0)
(6.55178e-07 -1.56597e-06 0)
(7.75414e-07 -1.52375e-06 0)
(8.95684e-07 -1.47709e-06 0)
(1.01613e-06 -1.42681e-06 0)
(1.13602e-06 -1.374e-06 0)
(5.78815e-08 -1.70694e-06 0)
(1.73709e-07 -1.69913e-06 0)
(2.89777e-07 -1.68375e-06 0)
(4.0619e-07 -1.66118e-06 0)
(5.23024e-07 -1.63199e-06 0)
(6.4023e-07 -1.59689e-06 0)
(7.57817e-07 -1.55664e-06 0)
(8.75534e-07 -1.5121e-06 0)
(9.93494e-07 -1.46405e-06 0)
(1.11108e-06 -1.41351e-06 0)
(5.64194e-08 -1.73201e-06 0)
(1.69346e-07 -1.72458e-06 0)
(2.82537e-07 -1.70995e-06 0)
(3.96092e-07 -1.68847e-06 0)
(5.10087e-07 -1.66066e-06 0)
(6.24509e-07 -1.62719e-06 0)
(7.39394e-07 -1.58876e-06 0)
(8.54551e-07 -1.54619e-06 0)
(9.7006e-07 -1.50019e-06 0)
(1.0854e-06 -1.45172e-06 0)
(5.48556e-08 -1.75682e-06 0)
(1.64677e-07 -1.74976e-06 0)
(2.74787e-07 -1.73583e-06 0)
(3.85288e-07 -1.71537e-06 0)
(4.96269e-07 -1.68886e-06 0)
(6.07764e-07 -1.65692e-06 0)
(7.19849e-07 -1.6202e-06 0)
(8.32379e-07 -1.57946e-06 0)
(9.45415e-07 -1.53537e-06 0)
(1.05849e-06 -1.48881e-06 0)
(5.31697e-08 -1.78106e-06 0)
(1.59636e-07 -1.77434e-06 0)
(2.66415e-07 -1.76108e-06 0)
(3.73616e-07 -1.7416e-06 0)
(4.81362e-07 -1.71634e-06 0)
(5.89748e-07 -1.68585e-06 0)
(6.9888e-07 -1.65076e-06 0)
(8.08658e-07 -1.61176e-06 0)
(9.19094e-07 -1.56947e-06 0)
(1.02985e-06 -1.52472e-06 0)
(5.13267e-08 -1.80488e-06 0)
(1.54118e-07 -1.79849e-06 0)
(2.57241e-07 -1.78589e-06 0)
(3.60833e-07 -1.76736e-06 0)
(4.65066e-07 -1.74329e-06 0)
(5.70099e-07 -1.71422e-06 0)
(6.76065e-07 -1.68069e-06 0)
(7.82887e-07 -1.64336e-06 0)
(8.90564e-07 -1.6028e-06 0)
(9.9888e-07 -1.55978e-06 0)
(4.93076e-08 -1.82743e-06 0)
(1.48069e-07 -1.82138e-06 0)
(2.47183e-07 -1.80943e-06 0)
(3.46828e-07 -1.79184e-06 0)
(4.47248e-07 -1.76897e-06 0)
(5.48651e-07 -1.74131e-06 0)
(6.51173e-07 -1.70935e-06 0)
(7.54759e-07 -1.6737e-06 0)
(8.59463e-07 -1.63489e-06 0)
(9.65215e-07 -1.59362e-06 0)
)


// ************************************************************************* //
