/*--------------------------------*- C++ -*----------------------------------*\
| =========                 |                                                 |
| \\      /  F ield         | foam-extend: Open Source CFD                    |
|  \\    /   O peration     | Version:     4.1                                |
|   \\  /    A nd           | Web:         http://www.foam-extend.org         |
|    \\/     M anipulation  |                                                 |
\*---------------------------------------------------------------------------*/
FoamFile
{
    version     2.0;
    format      ascii;
    class       vectorField;
    location    "4";
    object      solidsCellD_iteration8;
}
// * * * * * * * * * * * * * * * * * * * * * * * * * * * * * * * * * * * * * //


1000
(
(2.00824e-06 -8.07517e-07 0)
(1.89975e-06 -7.54179e-07 0)
(1.8314e-06 -7.21508e-07 0)
(1.79307e-06 -7.07717e-07 0)
(1.77555e-06 -7.04858e-07 0)
(1.77328e-06 -7.10399e-07 0)
(1.78222e-06 -7.21465e-07 0)
(1.79951e-06 -7.36749e-07 0)
(1.82329e-06 -7.54761e-07 0)
(1.85087e-06 -7.74897e-07 0)
(1.81657e-06 -8.82215e-07 0)
(1.70101e-06 -8.46265e-07 0)
(1.62807e-06 -8.24661e-07 0)
(1.58633e-06 -8.18452e-07 0)
(1.56599e-06 -8.20676e-07 0)
(1.56106e-06 -8.2983e-07 0)
(1.56739e-06 -8.43478e-07 0)
(1.58194e-06 -8.60678e-07 0)
(1.6027e-06 -8.80169e-07 0)
(1.6272e-06 -9.01388e-07 0)
(1.61716e-06 -9.5297e-07 0)
(1.49906e-06 -9.36447e-07 0)
(1.42444e-06 -9.27172e-07 0)
(1.3811e-06 -9.29243e-07 0)
(1.35918e-06 -9.36893e-07 0)
(1.35241e-06 -9.49785e-07 0)
(1.35665e-06 -9.66038e-07 0)
(1.36892e-06 -9.8503e-07 0)
(1.38714e-06 -1.00588e-06 0)
(1.40909e-06 -1.02792e-06 0)
(1.41153e-06 -1.01855e-06 0)
(1.29591e-06 -1.02236e-06 0)
(1.22277e-06 -1.02598e-06 0)
(1.17979e-06 -1.03662e-06 0)
(1.15752e-06 -1.04988e-06 0)
(1.1497e-06 -1.06657e-06 0)
(1.15231e-06 -1.08539e-06 0)
(1.16255e-06 -1.10613e-06 0)
(1.17839e-06 -1.1283e-06 0)
(1.19779e-06 -1.15125e-06 0)
(1.20118e-06 -1.07764e-06 0)
(1.09291e-06 -1.10158e-06 0)
(1.02437e-06 -1.11796e-06 0)
(9.83825e-07 -1.13706e-06 0)
(9.62444e-07 -1.15578e-06 0)
(9.54292e-07 -1.17619e-06 0)
(9.55705e-07 -1.19749e-06 0)
(9.64075e-07 -1.21995e-06 0)
(9.77608e-07 -1.24338e-06 0)
(9.9432e-07 -1.26731e-06 0)
(9.87015e-07 -1.12909e-06 0)
(8.90933e-07 -1.17181e-06 0)
(8.30113e-07 -1.20012e-06 0)
(7.93887e-07 -1.22715e-06 0)
(7.74519e-07 -1.25098e-06 0)
(7.66707e-07 -1.27483e-06 0)
(7.67348e-07 -1.29841e-06 0)
(7.74039e-07 -1.32246e-06 0)
(7.85228e-07 -1.34708e-06 0)
(7.99092e-07 -1.37199e-06 0)
(7.70205e-07 -1.17168e-06 0)
(6.90526e-07 -1.23089e-06 0)
(6.40083e-07 -1.26967e-06 0)
(6.09892e-07 -1.30362e-06 0)
(5.93611e-07 -1.33191e-06 0)
(5.86842e-07 -1.35877e-06 0)
(5.87027e-07 -1.38434e-06 0)
(5.92118e-07 -1.40981e-06 0)
(6.00877e-07 -1.43547e-06 0)
(6.11761e-07 -1.46129e-06 0)
(5.51466e-07 -1.20454e-06 0)
(4.91745e-07 -1.27698e-06 0)
(4.53966e-07 -1.32414e-06 0)
(4.31329e-07 -1.36361e-06 0)
(4.19051e-07 -1.3955e-06 0)
(4.13834e-07 -1.42479e-06 0)
(4.13764e-07 -1.45198e-06 0)
(4.17316e-07 -1.4786e-06 0)
(4.23599e-07 -1.5051e-06 0)
(4.3142e-07 -1.53166e-06 0)
(3.31419e-07 -1.22687e-06 0)
(2.94455e-07 -1.30855e-06 0)
(2.71099e-07 -1.36156e-06 0)
(2.57031e-07 -1.40494e-06 0)
(2.49341e-07 -1.43935e-06 0)
(2.46031e-07 -1.4703e-06 0)
(2.45933e-07 -1.49864e-06 0)
(2.48057e-07 -1.5261e-06 0)
(2.51825e-07 -1.55322e-06 0)
(2.56523e-07 -1.58033e-06 0)
(1.10688e-07 -1.23812e-06 0)
(9.81679e-08 -1.32458e-06 0)
(9.02001e-08 -1.3806e-06 0)
(8.54197e-08 -1.42597e-06 0)
(8.28391e-08 -1.46167e-06 0)
(8.16908e-08 -1.49351e-06 0)
(8.15944e-08 -1.52242e-06 0)
(8.22864e-08 -1.5503e-06 0)
(8.35565e-08 -1.57773e-06 0)
(8.51191e-08 -1.60513e-06 0)
(3.12491e-06 -3.68008e-08 0)
(3.15215e-06 -2.65986e-08 0)
(3.1697e-06 -2.01888e-08 0)
(3.18911e-06 -1.64768e-08 0)
(3.21075e-06 -1.44774e-08 0)
(3.23717e-06 -1.36505e-08 0)
(3.26836e-06 -1.36071e-08 0)
(3.3045e-06 -1.40366e-08 0)
(3.34556e-06 -1.48826e-08 0)
(3.39096e-06 -1.58923e-08 0)
(3.10199e-06 -1.10433e-07 0)
(3.12472e-06 -8.04233e-08 0)
(3.13946e-06 -6.15782e-08 0)
(3.15695e-06 -5.07544e-08 0)
(3.17732e-06 -4.49972e-08 0)
(3.2028e-06 -4.25596e-08 0)
(3.23337e-06 -4.24749e-08 0)
(3.26899e-06 -4.39272e-08 0)
(3.30957e-06 -4.64784e-08 0)
(3.35452e-06 -4.94225e-08 0)
(3.05618e-06 -1.84658e-07 0)
(3.0703e-06 -1.36538e-07 0)
(3.07961e-06 -1.06356e-07 0)
(3.0935e-06 -8.89589e-08 0)
(3.11148e-06 -7.97929e-08 0)
(3.1353e-06 -7.60981e-08 0)
(3.16458e-06 -7.61263e-08 0)
(3.1992e-06 -7.85856e-08 0)
(3.23888e-06 -8.27954e-08 0)
(3.28294e-06 -8.7705e-08 0)
(2.9883e-06 -2.59862e-07 0)
(2.99018e-06 -1.96223e-07 0)
(2.99171e-06 -1.56422e-07 0)
(3.00048e-06 -1.33601e-07 0)
(3.01503e-06 -1.21628e-07 0)
(3.03646e-06 -1.16945e-07 0)
(3.06396e-06 -1.17194e-07 0)
(3.0972e-06 -1.20742e-07 0)
(3.13563e-06 -1.26631e-07 0)
(3.17847e-06 -1.33515e-07 0)
(2.89932e-06 -3.36224e-07 0)
(2.88613e-06 -2.60584e-07 0)
(2.87805e-06 -2.13337e-07 0)
(2.88044e-06 -1.86488e-07 0)
(2.89077e-06 -1.72556e-07 0)
(2.90921e-06 -1.67377e-07 0)
(2.9345e-06 -1.68121e-07 0)
(2.96596e-06 -1.72872e-07 0)
(3.00285e-06 -1.80408e-07 0)
(3.04424e-06 -1.89206e-07 0)
(2.79055e-06 -4.13809e-07 0)
(2.76027e-06 -3.30359e-07 0)
(2.74137e-06 -2.78264e-07 0)
(2.73659e-06 -2.49024e-07 0)
(2.74211e-06 -2.34159e-07 0)
(2.75715e-06 -2.29093e-07 0)
(2.77995e-06 -2.30623e-07 0)
(2.80939e-06 -2.36648e-07 0)
(2.84453e-06 -2.45788e-07 0)
(2.88429e-06 -2.56445e-07 0)
(2.66361e-06 -4.92473e-07 0)
(2.61523e-06 -4.05856e-07 0)
(2.58488e-06 -3.51827e-07 0)
(2.57252e-06 -3.22023e-07 0)
(2.57296e-06 -3.07312e-07 0)
(2.58438e-06 -3.03002e-07 0)
(2.60451e-06 -3.05639e-07 0)
(2.63178e-06 -3.13036e-07 0)
(2.66501e-06 -3.23763e-07 0)
(2.70307e-06 -3.36194e-07 0)
(2.52007e-06 -5.71818e-07 0)
(2.45377e-06 -4.86882e-07 0)
(2.41208e-06 -4.33962e-07 0)
(2.39215e-06 -4.05497e-07 0)
(2.38754e-06 -3.92087e-07 0)
(2.39531e-06 -3.89223e-07 0)
(2.41267e-06 -3.93327e-07 0)
(2.43771e-06 -4.02258e-07 0)
(2.46895e-06 -4.14568e-07 0)
(2.50525e-06 -4.28697e-07 0)
(2.36179e-06 -6.51315e-07 0)
(2.27882e-06 -5.72756e-07 0)
(2.22661e-06 -5.23966e-07 0)
(2.19955e-06 -4.98717e-07 0)
(2.19014e-06 -4.87772e-07 0)
(2.19431e-06 -4.87032e-07 0)
(2.20886e-06 -4.92995e-07 0)
(2.23158e-06 -5.03608e-07 0)
(2.26069e-06 -5.1754e-07 0)
(2.29511e-06 -5.33112e-07 0)
(2.1906e-06 -7.30199e-07 0)
(2.09328e-06 -6.62357e-07 0)
(2.03197e-06 -6.20446e-07 0)
(1.99867e-06 -6.00203e-07 0)
(1.98489e-06 -5.92835e-07 0)
(1.98575e-06 -5.94914e-07 0)
(1.99769e-06 -6.03205e-07 0)
(2.01813e-06 -6.15935e-07 0)
(2.04528e-06 -6.31744e-07 0)
(2.07736e-06 -6.49575e-07 0)
(3.44073e-06 -1.68434e-08 0)
(3.49491e-06 -1.71326e-08 0)
(3.55243e-06 -1.7428e-08 0)
(3.61309e-06 -1.76521e-08 0)
(3.67652e-06 -1.77921e-08 0)
(3.74254e-06 -1.78431e-08 0)
(3.81082e-06 -1.77784e-08 0)
(3.88109e-06 -1.7626e-08 0)
(3.95319e-06 -1.73972e-08 0)
(4.02692e-06 -1.70589e-08 0)
(4.10205e-06 -1.65844e-08 0)
(4.17836e-06 -1.5971e-08 0)
(4.25567e-06 -1.52192e-08 0)
(4.33377e-06 -1.43284e-08 0)
(4.41248e-06 -1.32834e-08 0)
(4.49153e-06 -1.20537e-08 0)
(4.57079e-06 -1.06023e-08 0)
(4.6498e-06 -8.89736e-09 0)
(4.72865e-06 -6.90356e-09 0)
(4.80624e-06 -4.61426e-09 0)
(3.40589e-06 -5.20936e-08 0)
(3.46295e-06 -5.27563e-08 0)
(3.52306e-06 -5.34485e-08 0)
(3.58599e-06 -5.39519e-08 0)
(3.65147e-06 -5.41987e-08 0)
(3.71926e-06 -5.42229e-08 0)
(3.78915e-06 -5.39905e-08 0)
(3.86092e-06 -5.35121e-08 0)
(3.93439e-06 -5.2742e-08 0)
(4.00936e-06 -5.16186e-08 0)
(4.08563e-06 -5.01278e-08 0)
(4.16301e-06 -4.8276e-08 0)
(4.24133e-06 -4.60351e-08 0)
(4.32039e-06 -4.33591e-08 0)
(4.4e-06 -4.01883e-08 0)
(4.4799e-06 -3.64583e-08 0)
(4.55998e-06 -3.20857e-08 0)
(4.63978e-06 -2.69865e-08 0)
(4.71939e-06 -2.10449e-08 0)
(4.79773e-06 -1.42128e-08 0)
(3.33742e-06 -9.16514e-08 0)
(3.40019e-06 -9.20566e-08 0)
(3.46541e-06 -9.25487e-08 0)
(3.53272e-06 -9.28888e-08 0)
(3.60215e-06 -9.29176e-08 0)
(3.6735e-06 -9.26738e-08 0)
(3.74663e-06 -9.2049e-08 0)
(3.82129e-06 -9.10273e-08 0)
(3.89739e-06 -8.95309e-08 0)
(3.97476e-06 -8.75039e-08 0)
(4.05326e-06 -8.49349e-08 0)
(4.13274e-06 -8.18035e-08 0)
(4.21301e-06 -7.80278e-08 0)
(4.29389e-06 -7.35162e-08 0)
(4.37522e-06 -6.81798e-08 0)
(4.45679e-06 -6.19267e-08 0)
(4.53848e-06 -5.46239e-08 0)
(4.61986e-06 -4.61388e-08 0)
(4.70102e-06 -3.6277e-08 0)
(4.7809e-06 -2.49363e-08 0)
(3.23738e-06 -1.37952e-07 0)
(3.30826e-06 -1.37079e-07 0)
(3.38084e-06 -1.36459e-07 0)
(3.4546e-06 -1.35955e-07 0)
(3.52984e-06 -1.35212e-07 0)
(3.60634e-06 -1.3426e-07 0)
(3.68413e-06 -1.32873e-07 0)
(3.76303e-06 -1.3102e-07 0)
(3.84304e-06 -1.28583e-07 0)
(3.92402e-06 -1.25497e-07 0)
(4.00584e-06 -1.21718e-07 0)
(4.08838e-06 -1.17176e-07 0)
(4.17152e-06 -1.11751e-07 0)
(4.25508e-06 -1.0533e-07 0)
(4.33897e-06 -9.78079e-08 0)
(4.42298e-06 -8.9034e-08 0)
(4.50702e-06 -7.88201e-08 0)
(4.59069e-06 -6.69745e-08 0)
(4.67406e-06 -5.32111e-08 0)
(4.75617e-06 -3.74092e-08 0)
(3.10871e-06 -1.93119e-07 0)
(3.18985e-06 -1.89683e-07 0)
(3.27181e-06 -1.86828e-07 0)
(3.35371e-06 -1.84635e-07 0)
(3.43635e-06 -1.82385e-07 0)
(3.51946e-06 -1.80119e-07 0)
(3.60327e-06 -1.77478e-07 0)
(3.68765e-06 -1.7442e-07 0)
(3.77267e-06 -1.70743e-07 0)
(3.85823e-06 -1.66345e-07 0)
(3.94432e-06 -1.61147e-07 0)
(4.03084e-06 -1.55036e-07 0)
(4.1177e-06 -1.47852e-07 0)
(4.20479e-06 -1.39451e-07 0)
(4.29203e-06 -1.29689e-07 0)
(4.3792e-06 -1.18364e-07 0)
(4.4663e-06 -1.05234e-07 0)
(4.55289e-06 -9.00541e-08 0)
(4.63917e-06 -7.24358e-08 0)
(4.72415e-06 -5.22408e-08 0)
(2.95504e-06 -2.58718e-07 0)
(3.04796e-06 -2.51232e-07 0)
(3.14092e-06 -2.44772e-07 0)
(3.23248e-06 -2.3982e-07 0)
(3.32396e-06 -2.35193e-07 0)
(3.41499e-06 -2.30915e-07 0)
(3.50597e-06 -2.26455e-07 0)
(3.5969e-06 -2.21699e-07 0)
(3.68793e-06 -2.164e-07 0)
(3.77903e-06 -2.10405e-07 0)
(3.87026e-06 -2.03577e-07 0)
(3.96158e-06 -1.9574e-07 0)
(4.05293e-06 -1.86684e-07 0)
(4.14423e-06 -1.76226e-07 0)
(4.23546e-06 -1.64169e-07 0)
(4.32643e-06 -1.5027e-07 0)
(4.41721e-06 -1.34232e-07 0)
(4.50734e-06 -1.15765e-07 0)
(4.59713e-06 -9.43778e-08 0)
(4.68558e-06 -6.98718e-08 0)
(2.78061e-06 -3.35702e-07 0)
(2.88643e-06 -3.22629e-07 0)
(2.99159e-06 -3.11201e-07 0)
(3.09392e-06 -3.02347e-07 0)
(3.19525e-06 -2.94411e-07 0)
(3.29521e-06 -2.87312e-07 0)
(3.39431e-06 -2.80416e-07 0)
(3.49268e-06 -2.73463e-07 0)
(3.59056e-06 -2.66149e-07 0)
(3.68802e-06 -2.58244e-07 0)
(3.78514e-06 -2.49526e-07 0)
(3.88194e-06 -2.3975e-07 0)
(3.97842e-06 -2.28654e-07 0)
(4.07455e-06 -2.16021e-07 0)
(4.17037e-06 -2.01599e-07 0)
(4.26573e-06 -1.85106e-07 0)
(4.36073e-06 -1.66184e-07 0)
(4.45498e-06 -1.44474e-07 0)
(4.54877e-06 -1.19388e-07 0)
(4.6412e-06 -9.06602e-08 0)
(2.58961e-06 -4.24324e-07 0)
(2.70881e-06 -4.0397e-07 0)
(2.82682e-06 -3.8621e-07 0)
(2.94076e-06 -3.72167e-07 0)
(3.05279e-06 -3.59933e-07 0)
(3.16249e-06 -3.49164e-07 0)
(3.27059e-06 -3.39157e-07 0)
(3.37721e-06 -3.29478e-07 0)
(3.48267e-06 -3.19733e-07 0)
(3.58714e-06 -3.09587e-07 0)
(3.69076e-06 -2.98722e-07 0)
(3.7936e-06 -2.86819e-07 0)
(3.89573e-06 -2.73569e-07 0)
(3.99722e-06 -2.58704e-07 0)
(4.09813e-06 -2.41916e-07 0)
(4.19837e-06 -2.22864e-07 0)
(4.29805e-06 -2.01118e-07 0)
(4.39683e-06 -1.76245e-07 0)
(4.49506e-06 -1.47557e-07 0)
(4.59189e-06 -1.14724e-07 0)
(2.38643e-06 -5.24414e-07 0)
(2.51928e-06 -4.95328e-07 0)
(2.65035e-06 -4.70329e-07 0)
(2.7764e-06 -4.49961e-07 0)
(2.89956e-06 -4.32548e-07 0)
(3.01957e-06 -4.17329e-07 0)
(3.13713e-06 -4.03537e-07 0)
(3.2525e-06 -3.90557e-07 0)
(3.36605e-06 -3.77894e-07 0)
(3.478e-06 -3.65092e-07 0)
(3.58858e-06 -3.51744e-07 0)
(3.69791e-06 -3.3746e-07 0)
(3.80616e-06 -3.21879e-07 0)
(3.91345e-06 -3.04669e-07 0)
(4.01985e-06 -2.85447e-07 0)
(4.12535e-06 -2.6381e-07 0)
(4.23007e-06 -2.39246e-07 0)
(4.33375e-06 -2.11251e-07 0)
(4.43675e-06 -1.7905e-07 0)
(4.53838e-06 -1.42261e-07 0)
(2.17504e-06 -6.34473e-07 0)
(2.32227e-06 -5.94201e-07 0)
(2.46624e-06 -5.61023e-07 0)
(2.60488e-06 -5.33301e-07 0)
(2.73944e-06 -5.09863e-07 0)
(2.87016e-06 -4.89502e-07 0)
(2.99756e-06 -4.71354e-07 0)
(3.12204e-06 -4.54648e-07 0)
(3.24399e-06 -4.3875e-07 0)
(3.36374e-06 -4.23078e-07 0)
(3.48155e-06 -4.07119e-07 0)
(3.59764e-06 -3.90399e-07 0)
(3.71223e-06 -3.72483e-07 0)
(3.8255e-06 -3.52963e-07 0)
(3.93756e-06 -3.3138e-07 0)
(4.04846e-06 -3.07265e-07 0)
(4.15836e-06 -2.80032e-07 0)
(4.26709e-06 -2.4909e-07 0)
(4.37505e-06 -2.13594e-07 0)
(4.4817e-06 -1.73071e-07 0)
(2.01526e-06 -7.4268e-07 0)
(2.1734e-06 -6.92421e-07 0)
(2.32587e-06 -6.52626e-07 0)
(2.4729e-06 -6.18661e-07 0)
(2.61504e-06 -5.89662e-07 0)
(2.75285e-06 -5.64311e-07 0)
(2.88683e-06 -5.41671e-07 0)
(3.01745e-06 -5.20926e-07 0)
(3.1451e-06 -5.01367e-07 0)
(3.27012e-06 -4.82347e-07 0)
(3.39281e-06 -4.63302e-07 0)
(3.51344e-06 -4.43711e-07 0)
(3.63224e-06 -4.23084e-07 0)
(3.74944e-06 -4.00957e-07 0)
(3.86513e-06 -3.76828e-07 0)
(3.97946e-06 -3.50175e-07 0)
(4.09259e-06 -3.20394e-07 0)
(4.20448e-06 -2.86838e-07 0)
(4.31552e-06 -2.48655e-07 0)
(4.42536e-06 -2.05306e-07 0)
(1.92529e-06 -8.32089e-07 0)
(2.08459e-06 -7.79684e-07 0)
(2.2385e-06 -7.35922e-07 0)
(2.38781e-06 -6.97893e-07 0)
(2.53257e-06 -6.6479e-07 0)
(2.67311e-06 -6.35471e-07 0)
(2.80984e-06 -6.09032e-07 0)
(2.94312e-06 -5.84679e-07 0)
(3.07328e-06 -5.61701e-07 0)
(3.20063e-06 -5.39454e-07 0)
(3.32546e-06 -5.17369e-07 0)
(3.44804e-06 -4.94913e-07 0)
(3.56861e-06 -4.71578e-07 0)
(3.68739e-06 -4.46879e-07 0)
(3.80448e-06 -4.20308e-07 0)
(3.92009e-06 -3.91327e-07 0)
(4.03435e-06 -3.59355e-07 0)
(4.14736e-06 -3.23746e-07 0)
(4.25946e-06 -2.83688e-07 0)
(4.37044e-06 -2.38619e-07 0)
(1.84974e-06 -9.17068e-07 0)
(2.00732e-06 -8.63747e-07 0)
(2.16105e-06 -8.17691e-07 0)
(2.31086e-06 -7.76728e-07 0)
(2.4567e-06 -7.40309e-07 0)
(2.59866e-06 -7.07543e-07 0)
(2.737e-06 -6.77642e-07 0)
(2.87197e-06 -6.49891e-07 0)
(3.00381e-06 -6.23621e-07 0)
(3.1328e-06 -5.98222e-07 0)
(3.25921e-06 -5.73138e-07 0)
(3.38326e-06 -5.47836e-07 0)
(3.50519e-06 -5.21804e-07 0)
(3.6252e-06 -4.94551e-07 0)
(3.74342e-06 -4.65575e-07 0)
(3.86009e-06 -4.34335e-07 0)
(3.97534e-06 -4.00281e-07 0)
(4.08933e-06 -3.6279e-07 0)
(4.20238e-06 -3.2109e-07 0)
(4.31443e-06 -2.74627e-07 0)
(1.78359e-06 -9.98954e-07 0)
(1.93884e-06 -9.45295e-07 0)
(2.09127e-06 -8.97591e-07 0)
(2.24046e-06 -8.54288e-07 0)
(2.38628e-06 -8.15076e-07 0)
(2.52865e-06 -7.79281e-07 0)
(2.66772e-06 -7.46257e-07 0)
(2.8036e-06 -7.15373e-07 0)
(2.93647e-06 -6.86023e-07 0)
(3.06654e-06 -6.5764e-07 0)
(3.19405e-06 -6.29695e-07 0)
(3.31917e-06 -6.01668e-07 0)
(3.44213e-06 -5.73053e-07 0)
(3.56313e-06 -5.43367e-07 0)
(3.68228e-06 -5.12117e-07 0)
(3.79985e-06 -4.78778e-07 0)
(3.91596e-06 -4.42833e-07 0)
(4.03084e-06 -4.03692e-07 0)
(4.14475e-06 -3.60625e-07 0)
(4.2578e-06 -3.13141e-07 0)
(1.72553e-06 -1.07736e-06 0)
(1.87796e-06 -1.02381e-06 0)
(2.02837e-06 -9.75129e-07 0)
(2.17615e-06 -9.30137e-07 0)
(2.32113e-06 -8.88715e-07 0)
(2.46313e-06 -8.50385e-07 0)
(2.60219e-06 -8.14636e-07 0)
(2.7383e-06 -7.80941e-07 0)
(2.87162e-06 -7.48768e-07 0)
(3.00227e-06 -7.17612e-07 0)
(3.13044e-06 -6.86978e-07 0)
(3.25627e-06 -6.56369e-07 0)
(3.37995e-06 -6.25302e-07 0)
(3.50167e-06 -5.93312e-07 0)
(3.62155e-06 -5.59922e-07 0)
(3.73986e-06 -5.24637e-07 0)
(3.85671e-06 -4.86971e-07 0)
(3.97235e-06 -4.46372e-07 0)
(4.08705e-06 -4.02178e-07 0)
(4.20104e-06 -3.54004e-07 0)
(1.67405e-06 -1.15247e-06 0)
(1.82341e-06 -1.09933e-06 0)
(1.97141e-06 -1.05011e-06 0)
(2.11724e-06 -1.0039e-06 0)
(2.26083e-06 -9.60741e-07 0)
(2.40186e-06 -9.20309e-07 0)
(2.54032e-06 -8.8222e-07 0)
(2.67615e-06 -8.4605e-07 0)
(2.80941e-06 -8.11348e-07 0)
(2.94021e-06 -7.77669e-07 0)
(3.06865e-06 -7.44561e-07 0)
(3.19485e-06 -7.11563e-07 0)
(3.31898e-06 -6.78218e-07 0)
(3.44119e-06 -6.44093e-07 0)
(3.5616e-06 -6.08731e-07 0)
(3.68048e-06 -5.71678e-07 0)
(3.79793e-06 -5.32477e-07 0)
(3.91424e-06 -4.90626e-07 0)
(4.02965e-06 -4.45557e-07 0)
(4.14445e-06 -3.96978e-07 0)
(1.62804e-06 -1.22447e-06 0)
(1.77423e-06 -1.17193e-06 0)
(1.91956e-06 -1.12248e-06 0)
(2.06311e-06 -1.07545e-06 0)
(2.2049e-06 -1.03097e-06 0)
(2.34454e-06 -9.88837e-07 0)
(2.48196e-06 -9.48779e-07 0)
(2.61708e-06 -9.10473e-07 0)
(2.7499e-06 -8.73539e-07 0)
(2.88046e-06 -8.37598e-07 0)
(3.00884e-06 -8.02248e-07 0)
(3.13511e-06 -7.67067e-07 0)
(3.25943e-06 -7.31635e-07 0)
(3.38191e-06 -6.95555e-07 0)
(3.50268e-06 -6.58392e-07 0)
(3.62198e-06 -6.19744e-07 0)
(3.73991e-06 -5.7919e-07 0)
(3.85677e-06 -5.36287e-07 0)
(3.97281e-06 -4.90577e-07 0)
(4.08831e-06 -4.41783e-07 0)
(1.58652e-06 -1.29354e-06 0)
(1.72954e-06 -1.24173e-06 0)
(1.87204e-06 -1.19228e-06 0)
(2.01315e-06 -1.14473e-06 0)
(2.15287e-06 -1.09927e-06 0)
(2.29079e-06 -1.05577e-06 0)
(2.42687e-06 -1.01408e-06 0)
(2.56094e-06 -9.73948e-07 0)
(2.69299e-06 -9.3507e-07 0)
(2.82301e-06 -8.97131e-07 0)
(2.95104e-06 -8.5978e-07 0)
(3.07713e-06 -8.22637e-07 0)
(3.20142e-06 -7.85318e-07 0)
(3.32399e-06 -7.47474e-07 0)
(3.44495e-06 -7.08697e-07 0)
(3.56453e-06 -6.68634e-07 0)
(3.68283e-06 -6.26916e-07 0)
(3.80016e-06 -5.83163e-07 0)
(3.91672e-06 -5.37004e-07 0)
(4.03283e-06 -4.88138e-07 0)
(1.54861e-06 -1.35991e-06 0)
(1.6885e-06 -1.30888e-06 0)
(1.82814e-06 -1.25961e-06 0)
(1.9667e-06 -1.21176e-06 0)
(2.10418e-06 -1.16558e-06 0)
(2.24021e-06 -1.12101e-06 0)
(2.37471e-06 -1.07798e-06 0)
(2.5075e-06 -1.03632e-06 0)
(2.63852e-06 -9.95768e-07 0)
(2.76776e-06 -9.5609e-07 0)
(2.89523e-06 -9.16979e-07 0)
(3.02095e-06 -8.78099e-07 0)
(3.14503e-06 -8.39106e-07 0)
(3.26752e-06 -7.99693e-07 0)
(3.38854e-06 -7.59492e-07 0)
(3.50829e-06 -7.182e-07 0)
(3.62687e-06 -6.75509e-07 0)
(3.74458e-06 -6.31086e-07 0)
(3.86155e-06 -5.8461e-07 0)
(3.97817e-06 -5.35832e-07 0)
(1.51353e-06 -1.42379e-06 0)
(1.65036e-06 -1.37357e-06 0)
(1.78716e-06 -1.32458e-06 0)
(1.92314e-06 -1.27661e-06 0)
(2.05832e-06 -1.22991e-06 0)
(2.19235e-06 -1.18451e-06 0)
(2.32513e-06 -1.1404e-06 0)
(2.45648e-06 -1.09746e-06 0)
(2.58631e-06 -1.05551e-06 0)
(2.71461e-06 -1.01434e-06 0)
(2.84135e-06 -9.73705e-07 0)
(2.96653e-06 -9.33313e-07 0)
(3.09025e-06 -8.92856e-07 0)
(3.21255e-06 -8.52073e-07 0)
(3.33352e-06 -8.10641e-07 0)
(3.45334e-06 -7.6831e-07 0)
(3.5721e-06 -7.24818e-07 0)
(3.69008e-06 -6.79871e-07 0)
(3.80739e-06 -6.33185e-07 0)
(3.92442e-06 -5.84653e-07 0)
(1.48062e-06 -1.48539e-06 0)
(1.61448e-06 -1.43599e-06 0)
(1.74851e-06 -1.38733e-06 0)
(1.88193e-06 -1.33935e-06 0)
(2.01481e-06 -1.29232e-06 0)
(2.14679e-06 -1.24629e-06 0)
(2.27778e-06 -1.20132e-06 0)
(2.40759e-06 -1.15735e-06 0)
(2.53612e-06 -1.11423e-06 0)
(2.66336e-06 -1.07181e-06 0)
(2.78926e-06 -1.02987e-06 0)
(2.91379e-06 -9.88175e-07 0)
(3.03705e-06 -9.46457e-07 0)
(3.15905e-06 -9.04498e-07 0)
(3.27988e-06 -8.62022e-07 0)
(3.3997e-06 -8.18822e-07 0)
(3.51856e-06 -7.74674e-07 0)
(3.63671e-06 -7.29312e-07 0)
(3.75429e-06 -6.82544e-07 0)
(3.87164e-06 -6.34331e-07 0)
(1.44928e-06 -1.54492e-06 0)
(1.58031e-06 -1.49629e-06 0)
(1.71163e-06 -1.44801e-06 0)
(1.84258e-06 -1.40011e-06 0)
(1.97318e-06 -1.35288e-06 0)
(2.10312e-06 -1.3064e-06 0)
(2.23228e-06 -1.26077e-06 0)
(2.36051e-06 -1.21597e-06 0)
(2.4877e-06 -1.1719e-06 0)
(2.61381e-06 -1.12842e-06 0)
(2.73879e-06 -1.08539e-06 0)
(2.86262e-06 -1.04259e-06 0)
(2.98535e-06 -9.99805e-07 0)
(3.10699e-06 -9.56862e-07 0)
(3.22761e-06 -9.13523e-07 0)
(3.34736e-06 -8.69611e-07 0)
(3.46625e-06 -8.24929e-07 0)
(3.58452e-06 -7.7926e-07 0)
(3.7023e-06 -7.32539e-07 0)
(3.81988e-06 -6.84651e-07 0)
(1.41901e-06 -1.60255e-06 0)
(1.54733e-06 -1.55464e-06 0)
(1.67607e-06 -1.50677e-06 0)
(1.80462e-06 -1.45902e-06 0)
(1.933e-06 -1.4117e-06 0)
(2.06092e-06 -1.3649e-06 0)
(2.18828e-06 -1.31878e-06 0)
(2.31494e-06 -1.27332e-06 0)
(2.44078e-06 -1.22849e-06 0)
(2.56575e-06 -1.18416e-06 0)
(2.6898e-06 -1.14023e-06 0)
(2.81288e-06 -1.09653e-06 0)
(2.93504e-06 -1.05288e-06 0)
(3.05629e-06 -1.00913e-06 0)
(3.17665e-06 -9.65085e-07 0)
(3.29626e-06 -9.20588e-07 0)
(3.41511e-06 -8.75482e-07 0)
(3.53345e-06 -8.29621e-07 0)
(3.65134e-06 -7.82998e-07 0)
(3.7691e-06 -7.35484e-07 0)
(1.38933e-06 -1.65845e-06 0)
(1.51508e-06 -1.61122e-06 0)
(1.64134e-06 -1.56375e-06 0)
(1.76759e-06 -1.5162e-06 0)
(1.89382e-06 -1.46886e-06 0)
(2.0198e-06 -1.42187e-06 0)
(2.14544e-06 -1.3754e-06 0)
(2.27057e-06 -1.32946e-06 0)
(2.39509e-06 -1.28405e-06 0)
(2.51894e-06 -1.23905e-06 0)
(2.64205e-06 -1.19441e-06 0)
(2.76438e-06 -1.14998e-06 0)
(2.88597e-06 -1.10561e-06 0)
(3.0068e-06 -1.06121e-06 0)
(3.12688e-06 -1.01659e-06 0)
(3.24631e-06 -9.71619e-07 0)
(3.36508e-06 -9.26196e-07 0)
(3.48344e-06 -8.80243e-07 0)
(3.6014e-06 -8.33708e-07 0)
(3.71926e-06 -7.86613e-07 0)
(1.35975e-06 -1.71278e-06 0)
(1.48307e-06 -1.66618e-06 0)
(1.60697e-06 -1.61911e-06 0)
(1.73102e-06 -1.57178e-06 0)
(1.85523e-06 -1.5245e-06 0)
(1.97939e-06 -1.47743e-06 0)
(2.1034e-06 -1.43075e-06 0)
(2.22707e-06 -1.38447e-06 0)
(2.35034e-06 -1.3386e-06 0)
(2.47312e-06 -1.29309e-06 0)
(2.59535e-06 -1.24791e-06 0)
(2.71696e-06 -1.20292e-06 0)
(2.83801e-06 -1.15801e-06 0)
(2.95841e-06 -1.1131e-06 0)
(3.07818e-06 -1.06802e-06 0)
(3.19741e-06 -1.02268e-06 0)
(3.31611e-06 -9.7704e-07 0)
(3.43444e-06 -9.31039e-07 0)
(3.55245e-06 -8.84633e-07 0)
(3.67035e-06 -8.37911e-07 0)
(1.32979e-06 -1.76569e-06 0)
(1.45078e-06 -1.71969e-06 0)
(1.57244e-06 -1.67295e-06 0)
(1.69446e-06 -1.62588e-06 0)
(1.81681e-06 -1.57874e-06 0)
(1.93929e-06 -1.53169e-06 0)
(2.06179e-06 -1.48489e-06 0)
(2.18415e-06 -1.43841e-06 0)
(2.30625e-06 -1.39224e-06 0)
(2.42805e-06 -1.34637e-06 0)
(2.54946e-06 -1.30079e-06 0)
(2.67043e-06 -1.25539e-06 0)
(2.79094e-06 -1.21006e-06 0)
(2.91093e-06 -1.16474e-06 0)
(3.0304e-06 -1.1193e-06 0)
(3.14945e-06 -1.07371e-06 0)
(3.26806e-06 -1.02793e-06 0)
(3.38634e-06 -9.81869e-07 0)
(3.50434e-06 -9.35628e-07 0)
(3.62225e-06 -8.89263e-07 0)
(1.29894e-06 -1.81733e-06 0)
(1.41766e-06 -1.77176e-06 0)
(1.5372e-06 -1.72546e-06 0)
(1.65745e-06 -1.67873e-06 0)
(1.77812e-06 -1.63177e-06 0)
(1.89912e-06 -1.5848e-06 0)
(2.02027e-06 -1.53798e-06 0)
(2.14145e-06 -1.49139e-06 0)
(2.26254e-06 -1.44505e-06 0)
(2.38349e-06 -1.39895e-06 0)
(2.5042e-06 -1.35311e-06 0)
(2.62457e-06 -1.3074e-06 0)
(2.74459e-06 -1.26176e-06 0)
(2.86421e-06 -1.21614e-06 0)
(2.98343e-06 -1.17047e-06 0)
(3.10234e-06 -1.12469e-06 0)
(3.22084e-06 -1.07877e-06 0)
(3.33905e-06 -1.03268e-06 0)
(3.45699e-06 -9.86612e-07 0)
(3.57496e-06 -9.40562e-07 0)
(1.26647e-06 -1.86766e-06 0)
(1.38327e-06 -1.82261e-06 0)
(1.50108e-06 -1.77681e-06 0)
(1.61964e-06 -1.73041e-06 0)
(1.73885e-06 -1.68372e-06 0)
(1.85853e-06 -1.6369e-06 0)
(1.97853e-06 -1.59014e-06 0)
(2.09872e-06 -1.54355e-06 0)
(2.21898e-06 -1.49715e-06 0)
(2.33924e-06 -1.45093e-06 0)
(2.45935e-06 -1.4049e-06 0)
(2.5792e-06 -1.35901e-06 0)
(2.69883e-06 -1.31317e-06 0)
(2.81818e-06 -1.26735e-06 0)
(2.93721e-06 -1.22149e-06 0)
(3.05592e-06 -1.17558e-06 0)
(3.17427e-06 -1.12955e-06 0)
(3.2925e-06 -1.08348e-06 0)
(3.41046e-06 -1.03753e-06 0)
(3.5283e-06 -9.91762e-07 0)
(1.23194e-06 -1.91719e-06 0)
(1.34699e-06 -1.87269e-06 0)
(1.46324e-06 -1.82727e-06 0)
(1.58044e-06 -1.78124e-06 0)
(1.69843e-06 -1.73482e-06 0)
(1.81706e-06 -1.68822e-06 0)
(1.93621e-06 -1.6416e-06 0)
(2.05569e-06 -1.59508e-06 0)
(2.17534e-06 -1.54868e-06 0)
(2.29504e-06 -1.50241e-06 0)
(2.41469e-06 -1.45631e-06 0)
(2.53422e-06 -1.41028e-06 0)
(2.6536e-06 -1.3643e-06 0)
(2.77267e-06 -1.31837e-06 0)
(2.89148e-06 -1.27238e-06 0)
(3.01012e-06 -1.22631e-06 0)
(3.12844e-06 -1.18024e-06 0)
(3.24657e-06 -1.13417e-06 0)
(3.36454e-06 -1.08827e-06 0)
(3.48236e-06 -1.04272e-06 0)
(1.19493e-06 -1.96552e-06 0)
(1.30845e-06 -1.92166e-06 0)
(1.4234e-06 -1.8768e-06 0)
(1.5395e-06 -1.83122e-06 0)
(1.65662e-06 -1.78517e-06 0)
(1.77458e-06 -1.73886e-06 0)
(1.89317e-06 -1.69247e-06 0)
(2.01217e-06 -1.64609e-06 0)
(2.13142e-06 -1.59976e-06 0)
(2.25085e-06 -1.5535e-06 0)
(2.37029e-06 -1.50737e-06 0)
(2.48956e-06 -1.46132e-06 0)
(2.60872e-06 -1.41524e-06 0)
(2.72768e-06 -1.36919e-06 0)
(2.84635e-06 -1.32313e-06 0)
(2.96484e-06 -1.27698e-06 0)
(3.08315e-06 -1.23086e-06 0)
(3.20125e-06 -1.18473e-06 0)
(3.31925e-06 -1.13883e-06 0)
(3.43704e-06 -1.09334e-06 0)
(8.49834e-08 -1.63305e-06 0)
(2.55986e-07 -1.60944e-06 0)
(4.30022e-07 -1.56305e-06 0)
(6.08825e-07 -1.49589e-06 0)
(7.93729e-07 -1.41044e-06 0)
(9.85559e-07 -1.30996e-06 0)
(1.18461e-06 -1.19812e-06 0)
(1.39051e-06 -1.0787e-06 0)
(1.60289e-06 -9.55462e-07 0)
(1.8197e-06 -8.31272e-07 0)
(8.28328e-08 -1.66217e-06 0)
(2.49377e-07 -1.64062e-06 0)
(4.1839e-07 -1.59821e-06 0)
(5.91326e-07 -1.5367e-06 0)
(7.69287e-07 -1.45817e-06 0)
(9.52934e-07 -1.36539e-06 0)
(1.14252e-06 -1.26147e-06 0)
(1.33759e-06 -1.14972e-06 0)
(1.53746e-06 -1.03355e-06 0)
(1.74025e-06 -9.1589e-07 0)
(8.08587e-08 -1.69205e-06 0)
(2.43308e-07 -1.67236e-06 0)
(4.0773e-07 -1.63354e-06 0)
(5.75264e-07 -1.57717e-06 0)
(7.46847e-07 -1.50502e-06 0)
(9.22982e-07 -1.41948e-06 0)
(1.10393e-06 -1.32325e-06 0)
(1.28948e-06 -1.21911e-06 0)
(1.47911e-06 -1.11005e-06 0)
(1.67148e-06 -9.9833e-07 0)
(7.90802e-08 -1.72265e-06 0)
(2.37843e-07 -1.70453e-06 0)
(3.98262e-07 -1.66876e-06 0)
(5.61178e-07 -1.61675e-06 0)
(7.27408e-07 -1.55007e-06 0)
(8.97311e-07 -1.47079e-06 0)
(1.07107e-06 -1.38134e-06 0)
(1.24849e-06 -1.28418e-06 0)
(1.42903e-06 -1.18213e-06 0)
(1.61167e-06 -1.07709e-06 0)
(7.74547e-08 -1.75395e-06 0)
(2.32785e-07 -1.73725e-06 0)
(3.89515e-07 -1.70422e-06 0)
(5.48244e-07 -1.65614e-06 0)
(7.09672e-07 -1.59441e-06 0)
(8.74074e-07 -1.52088e-06 0)
(1.0416e-06 -1.43773e-06 0)
(1.21209e-06 -1.34703e-06 0)
(1.38509e-06 -1.25141e-06 0)
(1.55946e-06 -1.15258e-06 0)
(7.59259e-08 -1.78591e-06 0)
(2.28097e-07 -1.77043e-06 0)
(3.81431e-07 -1.73979e-06 0)
(5.36407e-07 -1.69516e-06 0)
(6.93587e-07 -1.63779e-06 0)
(8.53207e-07 -1.56937e-06 0)
(1.01531e-06 -1.49186e-06 0)
(1.17972e-06 -1.40713e-06 0)
(1.34617e-06 -1.31755e-06 0)
(1.51336e-06 -1.2248e-06 0)
(7.44455e-08 -1.81849e-06 0)
(2.23634e-07 -1.80409e-06 0)
(3.73769e-07 -1.77561e-06 0)
(5.25292e-07 -1.73406e-06 0)
(6.78605e-07 -1.68062e-06 0)
(8.33945e-07 -1.61681e-06 0)
(9.91315e-07 -1.54443e-06 0)
(1.15047e-06 -1.46513e-06 0)
(1.31128e-06 -1.38107e-06 0)
(1.47233e-06 -1.29395e-06 0)
(7.30467e-08 -1.85162e-06 0)
(2.19356e-07 -1.83818e-06 0)
(3.66459e-07 -1.81162e-06 0)
(5.14763e-07 -1.77281e-06 0)
(6.64552e-07 -1.72288e-06 0)
(8.16009e-07 -1.66321e-06 0)
(9.69157e-07 -1.59546e-06 0)
(1.12368e-06 -1.52115e-06 0)
(1.27957e-06 -1.44217e-06 0)
(1.43536e-06 -1.36026e-06 0)
(7.16973e-08 -1.88524e-06 0)
(2.15189e-07 -1.87266e-06 0)
(3.59385e-07 -1.84782e-06 0)
(5.04625e-07 -1.81149e-06 0)
(6.51132e-07 -1.76475e-06 0)
(7.99052e-07 -1.70882e-06 0)
(9.48386e-07 -1.64526e-06 0)
(1.0988e-06 -1.57548e-06 0)
(1.25035e-06 -1.50114e-06 0)
(1.40161e-06 -1.424e-06 0)
(7.03383e-08 -1.9193e-06 0)
(2.1108e-07 -1.90749e-06 0)
(3.52461e-07 -1.8842e-06 0)
(4.94762e-07 -1.8501e-06 0)
(6.38151e-07 -1.80624e-06 0)
(7.82791e-07 -1.7537e-06 0)
(9.2863e-07 -1.69393e-06 0)
(1.07534e-06 -1.62827e-06 0)
(1.22303e-06 -1.55818e-06 0)
(1.37032e-06 -1.4854e-06 0)
(6.89574e-08 -1.95373e-06 0)
(2.07e-07 -1.9426e-06 0)
(3.45597e-07 -1.92072e-06 0)
(4.85036e-07 -1.88866e-06 0)
(6.25426e-07 -1.84741e-06 0)
(7.66957e-07 -1.79793e-06 0)
(9.09554e-07 -1.74161e-06 0)
(1.05289e-06 -1.67971e-06 0)
(1.19708e-06 -1.6135e-06 0)
(1.34088e-06 -1.54469e-06 0)
(6.75776e-08 -1.98844e-06 0)
(2.02922e-07 -1.97795e-06 0)
(3.38723e-07 -1.95736e-06 0)
(4.75327e-07 -1.92715e-06 0)
(6.12807e-07 -1.88825e-06 0)
(7.51338e-07 -1.84158e-06 0)
(8.90874e-07 -1.78841e-06 0)
(1.03108e-06 -1.72992e-06 0)
(1.17208e-06 -1.66726e-06 0)
(1.31274e-06 -1.60206e-06 0)
(6.61951e-08 -2.02337e-06 0)
(1.98776e-07 -2.01347e-06 0)
(3.31743e-07 -1.99405e-06 0)
(4.65499e-07 -1.96553e-06 0)
(6.00114e-07 -1.92879e-06 0)
(7.35717e-07 -1.8847e-06 0)
(8.72313e-07 -1.8344e-06 0)
(1.00958e-06 -1.77903e-06 0)
(1.14762e-06 -1.7196e-06 0)
(1.28546e-06 -1.6577e-06 0)
(6.47709e-08 -2.05843e-06 0)
(1.94475e-07 -2.04908e-06 0)
(3.24555e-07 -2.03073e-06 0)
(4.55416e-07 -2.00377e-06 0)
(5.87158e-07 -1.96901e-06 0)
(7.19869e-07 -1.92727e-06 0)
(8.53596e-07 -1.87962e-06 0)
(9.88047e-07 -1.82709e-06 0)
(1.12332e-06 -1.77067e-06 0)
(1.25857e-06 -1.71179e-06 0)
(6.32654e-08 -2.09357e-06 0)
(1.89953e-07 -2.08472e-06 0)
(3.17059e-07 -2.06735e-06 0)
(4.44946e-07 -2.04183e-06 0)
(5.73753e-07 -2.00891e-06 0)
(7.03559e-07 -1.96935e-06 0)
(8.34435e-07 -1.92413e-06 0)
(9.66156e-07 -1.87423e-06 0)
(1.09878e-06 -1.82058e-06 0)
(1.23158e-06 -1.76445e-06 0)
(6.16646e-08 -2.12861e-06 0)
(1.85179e-07 -2.12023e-06 0)
(3.09176e-07 -2.10378e-06 0)
(4.33956e-07 -2.07961e-06 0)
(5.59715e-07 -2.04839e-06 0)
(6.86551e-07 -2.01085e-06 0)
(8.1456e-07 -1.96788e-06 0)
(9.43584e-07 -1.92044e-06 0)
(1.07361e-06 -1.86937e-06 0)
(1.20406e-06 -1.81579e-06 0)
(5.99653e-08 -2.16352e-06 0)
(1.80111e-07 -2.1556e-06 0)
(3.0079e-07 -2.14001e-06 0)
(4.2228e-07 -2.11709e-06 0)
(5.44837e-07 -2.08748e-06 0)
(6.68588e-07 -2.05184e-06 0)
(7.9366e-07 -2.011e-06 0)
(9.19923e-07 -1.96589e-06 0)
(1.04736e-06 -1.91718e-06 0)
(1.17547e-06 -1.866e-06 0)
(5.81498e-08 -2.19799e-06 0)
(1.74672e-07 -2.19049e-06 0)
(2.9177e-07 -2.17572e-06 0)
(4.09741e-07 -2.15401e-06 0)
(5.28891e-07 -2.12592e-06 0)
(6.49393e-07 -2.09208e-06 0)
(7.71387e-07 -2.05328e-06 0)
(8.94763e-07 -2.01035e-06 0)
(1.01953e-06 -1.96392e-06 0)
(1.1453e-06 -1.91499e-06 0)
(5.61746e-08 -2.23214e-06 0)
(1.68735e-07 -2.22507e-06 0)
(2.81922e-07 -2.21109e-06 0)
(3.96085e-07 -2.19053e-06 0)
(5.11558e-07 -2.16391e-06 0)
(6.28569e-07 -2.13183e-06 0)
(7.47269e-07 -2.095e-06 0)
(8.67603e-07 -2.05415e-06 0)
(9.89562e-07 -2.00992e-06 0)
(1.11293e-06 -1.96315e-06 0)
(5.40134e-08 -2.26517e-06 0)
(1.62252e-07 -2.25848e-06 0)
(2.7117e-07 -2.2453e-06 0)
(3.81191e-07 -2.22588e-06 0)
(4.92694e-07 -2.20072e-06 0)
(6.05935e-07 -2.17038e-06 0)
(7.21073e-07 -2.13548e-06 0)
(8.38158e-07 -2.09671e-06 0)
(9.57169e-07 -2.05467e-06 0)
(1.07806e-06 -2.01006e-06 0)
)


// ************************************************************************* //
