/*--------------------------------*- C++ -*----------------------------------*\
| =========                 |                                                 |
| \\      /  F ield         | foam-extend: Open Source CFD                    |
|  \\    /   O peration     | Version:     4.1                                |
|   \\  /    A nd           | Web:         http://www.foam-extend.org         |
|    \\/     M anipulation  |                                                 |
\*---------------------------------------------------------------------------*/
FoamFile
{
    version     2.0;
    format      ascii;
    class       vectorField;
    location    "4";
    object      solidsCellD_iteration5;
}
// * * * * * * * * * * * * * * * * * * * * * * * * * * * * * * * * * * * * * //


1000
(
(1.97092e-06 -7.7573e-07 0)
(1.8672e-06 -7.25632e-07 0)
(1.80219e-06 -6.95424e-07 0)
(1.76629e-06 -6.83265e-07 0)
(1.75053e-06 -6.81558e-07 0)
(1.74953e-06 -6.87889e-07 0)
(1.75941e-06 -6.99539e-07 0)
(1.77739e-06 -7.15275e-07 0)
(1.80149e-06 -7.33708e-07 0)
(1.82888e-06 -7.54575e-07 0)
(1.78331e-06 -8.47421e-07 0)
(1.67271e-06 -8.1411e-07 0)
(1.60317e-06 -7.94646e-07 0)
(1.56387e-06 -7.89858e-07 0)
(1.54532e-06 -7.93108e-07 0)
(1.54159e-06 -8.03007e-07 0)
(1.5487e-06 -8.17241e-07 0)
(1.56372e-06 -8.34867e-07 0)
(1.58461e-06 -8.54758e-07 0)
(1.60888e-06 -8.76469e-07 0)
(1.58791e-06 -9.15345e-07 0)
(1.4748e-06 -9.00767e-07 0)
(1.40364e-06 -8.93185e-07 0)
(1.36268e-06 -8.96419e-07 0)
(1.34243e-06 -9.04935e-07 0)
(1.33675e-06 -9.18482e-07 0)
(1.34165e-06 -9.35238e-07 0)
(1.35426e-06 -9.54554e-07 0)
(1.37248e-06 -9.75687e-07 0)
(1.39418e-06 -9.98044e-07 0)
(1.38633e-06 -9.78294e-07 0)
(1.27551e-06 -9.83316e-07 0)
(1.20572e-06 -9.8813e-07 0)
(1.165e-06 -9.99655e-07 0)
(1.14422e-06 -1.01359e-06 0)
(1.13738e-06 -1.0308e-06 0)
(1.14056e-06 -1.05001e-06 0)
(1.15106e-06 -1.07098e-06 0)
(1.16688e-06 -1.09333e-06 0)
(1.18602e-06 -1.11644e-06 0)
(1.17995e-06 -1.03501e-06 0)
(1.07616e-06 -1.05942e-06 0)
(1.0107e-06 -1.07653e-06 0)
(9.72196e-07 -1.09622e-06 0)
(9.52166e-07 -1.11541e-06 0)
(9.44884e-07 -1.13617e-06 0)
(9.46798e-07 -1.15775e-06 0)
(9.55343e-07 -1.18033e-06 0)
(9.6882e-07 -1.20385e-06 0)
(9.85304e-07 -1.22779e-06 0)
(9.69791e-07 -1.08435e-06 0)
(8.77581e-07 -1.12687e-06 0)
(8.19438e-07 -1.15546e-06 0)
(7.85011e-07 -1.18276e-06 0)
(7.66841e-07 -1.20688e-06 0)
(7.59765e-07 -1.23095e-06 0)
(7.60801e-07 -1.25469e-06 0)
(7.67614e-07 -1.27878e-06 0)
(7.78746e-07 -1.30339e-06 0)
(7.9243e-07 -1.3282e-06 0)
(7.56871e-07 -1.12522e-06 0)
(6.80388e-07 -1.1836e-06 0)
(6.3215e-07 -1.22225e-06 0)
(6.03441e-07 -1.25621e-06 0)
(5.88121e-07 -1.28461e-06 0)
(5.81929e-07 -1.31158e-06 0)
(5.82416e-07 -1.33721e-06 0)
(5.87605e-07 -1.36266e-06 0)
(5.96325e-07 -1.38823e-06 0)
(6.0708e-07 -1.41386e-06 0)
(5.41966e-07 -1.15671e-06 0)
(4.84658e-07 -1.22784e-06 0)
(4.48522e-07 -1.27456e-06 0)
(4.26988e-07 -1.31383e-06 0)
(4.15389e-07 -1.34569e-06 0)
(4.1058e-07 -1.37497e-06 0)
(4.10737e-07 -1.40215e-06 0)
(4.14379e-07 -1.42869e-06 0)
(4.20645e-07 -1.45502e-06 0)
(4.28372e-07 -1.48133e-06 0)
(3.25742e-07 -1.17811e-06 0)
(2.90281e-07 -1.25813e-06 0)
(2.67914e-07 -1.3105e-06 0)
(2.54508e-07 -1.35352e-06 0)
(2.47238e-07 -1.3878e-06 0)
(2.44206e-07 -1.41869e-06 0)
(2.44255e-07 -1.44696e-06 0)
(2.46409e-07 -1.47429e-06 0)
(2.50153e-07 -1.50121e-06 0)
(2.54798e-07 -1.52804e-06 0)
(1.08801e-07 -1.18889e-06 0)
(9.67585e-08 -1.2735e-06 0)
(8.91466e-08 -1.32879e-06 0)
(8.46128e-08 -1.37374e-06 0)
(8.21596e-08 -1.40924e-06 0)
(8.10908e-08 -1.44097e-06 0)
(8.10586e-08 -1.46978e-06 0)
(8.17712e-08 -1.4975e-06 0)
(8.30243e-08 -1.5247e-06 0)
(8.45635e-08 -1.55178e-06 0)
(3.06167e-06 -3.53735e-08 0)
(3.08818e-06 -2.56407e-08 0)
(3.1058e-06 -1.95441e-08 0)
(3.1255e-06 -1.60358e-08 0)
(3.14755e-06 -1.41825e-08 0)
(3.1744e-06 -1.34379e-08 0)
(3.20599e-06 -1.34159e-08 0)
(3.24245e-06 -1.3891e-08 0)
(3.28372e-06 -1.47426e-08 0)
(3.32927e-06 -1.5715e-08 0)
(3.03936e-06 -1.06122e-07 0)
(3.06152e-06 -7.74979e-08 0)
(3.07643e-06 -5.96228e-08 0)
(3.09429e-06 -4.93891e-08 0)
(3.11513e-06 -4.39827e-08 0)
(3.14109e-06 -4.18233e-08 0)
(3.17207e-06 -4.18659e-08 0)
(3.20804e-06 -4.33629e-08 0)
(3.24888e-06 -4.58863e-08 0)
(3.29399e-06 -4.87876e-08 0)
(2.99469e-06 -1.77476e-07 0)
(3.00858e-06 -1.3156e-07 0)
(3.01828e-06 -1.02913e-07 0)
(3.03269e-06 -8.65438e-08 0)
(3.05125e-06 -7.79869e-08 0)
(3.07562e-06 -7.46735e-08 0)
(3.10539e-06 -7.48706e-08 0)
(3.14038e-06 -7.74073e-08 0)
(3.18036e-06 -8.16044e-08 0)
(3.22463e-06 -8.64581e-08 0)
(2.92847e-06 -2.49729e-07 0)
(2.93065e-06 -1.89051e-07 0)
(2.93288e-06 -1.51267e-07 0)
(2.9424e-06 -1.29787e-07 0)
(2.95767e-06 -1.18646e-07 0)
(2.9797e-06 -1.1449e-07 0)
(3.00777e-06 -1.15008e-07 0)
(3.04142e-06 -1.18682e-07 0)
(3.08024e-06 -1.24575e-07 0)
(3.12336e-06 -1.31372e-07 0)
(2.84165e-06 -3.23102e-07 0)
(2.82938e-06 -2.51039e-07 0)
(2.82241e-06 -2.06217e-07 0)
(2.8258e-06 -1.8096e-07 0)
(2.83702e-06 -1.68027e-07 0)
(2.85619e-06 -1.63499e-07 0)
(2.88213e-06 -1.64602e-07 0)
(2.91409e-06 -1.69513e-07 0)
(2.95144e-06 -1.77074e-07 0)
(2.99318e-06 -1.85775e-07 0)
(2.73554e-06 -3.97626e-07 0)
(2.70686e-06 -3.18197e-07 0)
(2.68948e-06 -2.68832e-07 0)
(2.68596e-06 -2.41383e-07 0)
(2.69261e-06 -2.2764e-07 0)
(2.70851e-06 -2.23308e-07 0)
(2.73205e-06 -2.25258e-07 0)
(2.76208e-06 -2.31488e-07 0)
(2.79777e-06 -2.40683e-07 0)
(2.83801e-06 -2.5125e-07 0)
(2.6116e-06 -4.73158e-07 0)
(2.56559e-06 -3.90803e-07 0)
(2.53723e-06 -3.39696e-07 0)
(2.52641e-06 -3.11818e-07 0)
(2.52817e-06 -2.98327e-07 0)
(2.5406e-06 -2.94804e-07 0)
(2.56156e-06 -2.97901e-07 0)
(2.58949e-06 -3.05564e-07 0)
(2.62337e-06 -3.16402e-07 0)
(2.66209e-06 -3.28784e-07 0)
(2.47143e-06 -5.49359e-07 0)
(2.40821e-06 -4.68705e-07 0)
(2.36894e-06 -4.18771e-07 0)
(2.35084e-06 -3.92274e-07 0)
(2.34769e-06 -3.80143e-07 0)
(2.3566e-06 -3.78088e-07 0)
(2.37489e-06 -3.82674e-07 0)
(2.4007e-06 -3.91922e-07 0)
(2.43271e-06 -4.04395e-07 0)
(2.46988e-06 -4.18535e-07 0)
(2.31676e-06 -6.25701e-07 0)
(2.23753e-06 -5.5127e-07 0)
(2.18816e-06 -5.05378e-07 0)
(2.16319e-06 -4.82063e-07 0)
(2.15538e-06 -4.72407e-07 0)
(2.16083e-06 -4.72497e-07 0)
(2.17642e-06 -4.78972e-07 0)
(2.2e-06 -4.89951e-07 0)
(2.22993e-06 -5.04108e-07 0)
(2.26542e-06 -5.19815e-07 0)
(2.14937e-06 -7.0144e-07 0)
(2.05631e-06 -6.37389e-07 0)
(1.99817e-06 -5.98206e-07 0)
(1.96718e-06 -5.79779e-07 0)
(1.95512e-06 -5.73651e-07 0)
(1.95727e-06 -5.7657e-07 0)
(1.97022e-06 -5.85406e-07 0)
(1.99157e-06 -5.98553e-07 0)
(2.01953e-06 -6.14687e-07 0)
(2.05285e-06 -6.32741e-07 0)
(3.37901e-06 -1.66495e-08 0)
(3.43313e-06 -1.69685e-08 0)
(3.49059e-06 -1.72861e-08 0)
(3.55116e-06 -1.75277e-08 0)
(3.61448e-06 -1.76811e-08 0)
(3.68034e-06 -1.77461e-08 0)
(3.7485e-06 -1.77174e-08 0)
(3.81865e-06 -1.76099e-08 0)
(3.89059e-06 -1.74113e-08 0)
(3.96414e-06 -1.70971e-08 0)
(4.03909e-06 -1.66514e-08 0)
(4.11523e-06 -1.60737e-08 0)
(4.19236e-06 -1.53661e-08 0)
(4.27029e-06 -1.45232e-08 0)
(4.34884e-06 -1.3524e-08 0)
(4.42775e-06 -1.23417e-08 0)
(4.50689e-06 -1.09475e-08 0)
(4.58581e-06 -9.31264e-09 0)
(4.66458e-06 -7.40163e-09 0)
(4.74215e-06 -5.2091e-09 0)
(3.34527e-06 -5.14588e-08 0)
(3.40218e-06 -5.2219e-08 0)
(3.46213e-06 -5.29764e-08 0)
(3.52489e-06 -5.35385e-08 0)
(3.5902e-06 -5.38625e-08 0)
(3.65782e-06 -5.39633e-08 0)
(3.72754e-06 -5.38096e-08 0)
(3.79913e-06 -5.34062e-08 0)
(3.87239e-06 -5.27059e-08 0)
(3.94716e-06 -5.16761e-08 0)
(4.02322e-06 -5.02983e-08 0)
(4.1004e-06 -4.85629e-08 0)
(4.17852e-06 -4.64436e-08 0)
(4.25738e-06 -4.38991e-08 0)
(4.33681e-06 -4.08705e-08 0)
(4.41653e-06 -3.72992e-08 0)
(4.49644e-06 -3.31103e-08 0)
(4.57611e-06 -2.82235e-08 0)
(4.65564e-06 -2.2526e-08 0)
(4.73398e-06 -1.5977e-08 0)
(3.27889e-06 -9.04037e-08 0)
(3.34127e-06 -9.09791e-08 0)
(3.40619e-06 -9.16072e-08 0)
(3.47323e-06 -9.2069e-08 0)
(3.54237e-06 -9.22303e-08 0)
(3.61343e-06 -9.21101e-08 0)
(3.6863e-06 -9.16174e-08 0)
(3.76075e-06 -9.07369e-08 0)
(3.8366e-06 -8.93852e-08 0)
(3.91372e-06 -8.75297e-08 0)
(3.99199e-06 -8.51437e-08 0)
(4.07124e-06 -8.21926e-08 0)
(4.15131e-06 -7.86096e-08 0)
(4.23198e-06 -7.43153e-08 0)
(4.31312e-06 -6.92207e-08 0)
(4.3945e-06 -6.32356e-08 0)
(4.47601e-06 -5.62365e-08 0)
(4.55722e-06 -4.81033e-08 0)
(4.63824e-06 -3.86493e-08 0)
(4.71805e-06 -2.77846e-08 0)
(3.1819e-06 -1.35823e-07 0)
(3.25211e-06 -1.35225e-07 0)
(3.32415e-06 -1.34844e-07 0)
(3.39743e-06 -1.34558e-07 0)
(3.47223e-06 -1.34029e-07 0)
(3.54833e-06 -1.33269e-07 0)
(3.62575e-06 -1.32087e-07 0)
(3.70432e-06 -1.30445e-07 0)
(3.78399e-06 -1.28224e-07 0)
(3.86466e-06 -1.25383e-07 0)
(3.9462e-06 -1.21863e-07 0)
(4.02848e-06 -1.17583e-07 0)
(4.11136e-06 -1.12437e-07 0)
(4.19468e-06 -1.06323e-07 0)
(4.27833e-06 -9.9133e-08 0)
(4.36214e-06 -9.0723e-08 0)
(4.44597e-06 -8.09173e-08 0)
(4.52946e-06 -6.95497e-08 0)
(4.61268e-06 -5.63507e-08 0)
(4.69465e-06 -4.12058e-08 0)
(3.05706e-06 -1.89772e-07 0)
(3.13717e-06 -1.86769e-07 0)
(3.21833e-06 -1.84279e-07 0)
(3.29956e-06 -1.82408e-07 0)
(3.38156e-06 -1.80474e-07 0)
(3.46411e-06 -1.78489e-07 0)
(3.54743e-06 -1.76153e-07 0)
(3.63136e-06 -1.7339e-07 0)
(3.71597e-06 -1.70023e-07 0)
(3.80117e-06 -1.65966e-07 0)
(3.88691e-06 -1.61112e-07 0)
(3.97309e-06 -1.55341e-07 0)
(4.05962e-06 -1.48516e-07 0)
(4.1464e-06 -1.40506e-07 0)
(4.23336e-06 -1.31165e-07 0)
(4.32027e-06 -1.203e-07 0)
(4.40712e-06 -1.07685e-07 0)
(4.49347e-06 -9.31034e-08 0)
(4.57956e-06 -7.61984e-08 0)
(4.66434e-06 -5.68237e-08 0)
(2.90798e-06 -2.53736e-07 0)
(2.99949e-06 -2.46905e-07 0)
(3.09132e-06 -2.40988e-07 0)
(3.18192e-06 -2.36497e-07 0)
(3.27255e-06 -2.32318e-07 0)
(3.36283e-06 -2.28442e-07 0)
(3.45322e-06 -2.24419e-07 0)
(3.54359e-06 -2.2008e-07 0)
(3.63409e-06 -2.15196e-07 0)
(3.72472e-06 -2.0963e-07 0)
(3.8155e-06 -2.03221e-07 0)
(3.90639e-06 -1.95798e-07 0)
(3.99734e-06 -1.8718e-07 0)
(4.08827e-06 -1.77201e-07 0)
(4.17916e-06 -1.65657e-07 0)
(4.2698e-06 -1.52311e-07 0)
(4.36027e-06 -1.36893e-07 0)
(4.4501e-06 -1.19133e-07 0)
(4.53962e-06 -9.85882e-08 0)
(4.6278e-06 -7.50498e-08 0)
(2.73867e-06 -3.28684e-07 0)
(2.84268e-06 -3.16536e-07 0)
(2.94641e-06 -3.05865e-07 0)
(3.04753e-06 -2.97658e-07 0)
(3.14782e-06 -2.90346e-07 0)
(3.24687e-06 -2.83823e-07 0)
(3.3452e-06 -2.77494e-07 0)
(3.44287e-06 -2.71081e-07 0)
(3.5401e-06 -2.64285e-07 0)
(3.63695e-06 -2.56891e-07 0)
(3.73351e-06 -2.48672e-07 0)
(3.82978e-06 -2.39395e-07 0)
(3.92576e-06 -2.28828e-07 0)
(4.02143e-06 -2.16762e-07 0)
(4.11681e-06 -2.0294e-07 0)
(4.21175e-06 -1.87083e-07 0)
(4.30635e-06 -1.68874e-07 0)
(4.40022e-06 -1.47972e-07 0)
(4.49366e-06 -1.23836e-07 0)
(4.58574e-06 -9.62001e-08 0)
(2.5532e-06 -4.14818e-07 0)
(2.67029e-06 -3.9574e-07 0)
(2.78662e-06 -3.7901e-07 0)
(2.89914e-06 -3.65852e-07 0)
(3.00989e-06 -3.54437e-07 0)
(3.11853e-06 -3.44427e-07 0)
(3.22566e-06 -3.35128e-07 0)
(3.3314e-06 -3.26114e-07 0)
(3.43607e-06 -3.16999e-07 0)
(3.53979e-06 -3.07458e-07 0)
(3.64272e-06 -2.97183e-07 0)
(3.7449e-06 -2.8587e-07 0)
(3.8464e-06 -2.73237e-07 0)
(3.9473e-06 -2.59022e-07 0)
(4.04763e-06 -2.42911e-07 0)
(4.14732e-06 -2.24576e-07 0)
(4.24651e-06 -2.03626e-07 0)
(4.3448e-06 -1.79649e-07 0)
(4.44258e-06 -1.52001e-07 0)
(4.53897e-06 -1.20361e-07 0)
(2.35574e-06 -5.12056e-07 0)
(2.48636e-06 -4.84581e-07 0)
(2.61558e-06 -4.60887e-07 0)
(2.74006e-06 -4.41684e-07 0)
(2.86179e-06 -4.25338e-07 0)
(2.98055e-06 -4.11079e-07 0)
(3.09697e-06 -3.98158e-07 0)
(3.2113e-06 -3.85982e-07 0)
(3.32386e-06 -3.74063e-07 0)
(3.4349e-06 -3.61966e-07 0)
(3.5446e-06 -3.49297e-07 0)
(3.6531e-06 -3.35688e-07 0)
(3.76054e-06 -3.20803e-07 0)
(3.86706e-06 -3.04317e-07 0)
(3.97271e-06 -2.85844e-07 0)
(4.07751e-06 -2.65003e-07 0)
(4.18159e-06 -2.41318e-07 0)
(4.28464e-06 -2.14299e-07 0)
(4.38707e-06 -1.83212e-07 0)
(4.48814e-06 -1.47696e-07 0)
(2.15009e-06 -6.19186e-07 0)
(2.29517e-06 -5.81019e-07 0)
(2.43727e-06 -5.49465e-07 0)
(2.57424e-06 -5.23163e-07 0)
(2.70726e-06 -5.00955e-07 0)
(2.83656e-06 -4.81686e-07 0)
(2.96262e-06 -4.64529e-07 0)
(3.08584e-06 -4.48731e-07 0)
(3.2066e-06 -4.33663e-07 0)
(3.32521e-06 -4.18772e-07 0)
(3.44193e-06 -4.03564e-07 0)
(3.55697e-06 -3.87587e-07 0)
(3.67054e-06 -3.70431e-07 0)
(3.78285e-06 -3.51696e-07 0)
(3.89396e-06 -3.30927e-07 0)
(4.00398e-06 -3.07679e-07 0)
(4.11305e-06 -2.81393e-07 0)
(4.22098e-06 -2.51502e-07 0)
(4.3282e-06 -2.17184e-07 0)
(4.43415e-06 -1.78012e-07 0)
(1.99341e-06 -7.2538e-07 0)
(2.15033e-06 -6.77078e-07 0)
(2.30126e-06 -6.39e-07 0)
(2.44663e-06 -6.06621e-07 0)
(2.58715e-06 -5.78985e-07 0)
(2.7234e-06 -5.5485e-07 0)
(2.8559e-06 -5.33311e-07 0)
(2.9851e-06 -5.13564e-07 0)
(3.1114e-06 -4.94914e-07 0)
(3.23514e-06 -4.76749e-07 0)
(3.35662e-06 -4.58525e-07 0)
(3.47605e-06 -4.39739e-07 0)
(3.59372e-06 -4.19932e-07 0)
(3.70982e-06 -3.9865e-07 0)
(3.82445e-06 -3.75393e-07 0)
(3.93781e-06 -3.49672e-07 0)
(4.05e-06 -3.20888e-07 0)
(4.161e-06 -2.88442e-07 0)
(4.27119e-06 -2.51492e-07 0)
(4.38023e-06 -2.09565e-07 0)
(1.90564e-06 -8.13331e-07 0)
(2.06354e-06 -7.62784e-07 0)
(2.21599e-06 -7.20668e-07 0)
(2.36375e-06 -6.84208e-07 0)
(2.50694e-06 -6.52509e-07 0)
(2.64596e-06 -6.24472e-07 0)
(2.78122e-06 -5.99202e-07 0)
(2.91307e-06 -5.75913e-07 0)
(3.04187e-06 -5.53915e-07 0)
(3.16793e-06 -5.32594e-07 0)
(3.29154e-06 -5.11395e-07 0)
(3.41292e-06 -4.89804e-07 0)
(3.53235e-06 -4.67346e-07 0)
(3.65004e-06 -4.43547e-07 0)
(3.76607e-06 -4.17903e-07 0)
(3.8807e-06 -3.89912e-07 0)
(3.99403e-06 -3.58981e-07 0)
(4.10614e-06 -3.24531e-07 0)
(4.21738e-06 -2.85756e-07 0)
(4.32758e-06 -2.42153e-07 0)
(1.83239e-06 -8.96739e-07 0)
(1.98845e-06 -8.45391e-07 0)
(2.14064e-06 -8.00978e-07 0)
(2.28887e-06 -7.61565e-07 0)
(2.43315e-06 -7.26564e-07 0)
(2.5736e-06 -6.95111e-07 0)
(2.71048e-06 -6.66423e-07 0)
(2.84404e-06 -6.39792e-07 0)
(2.97454e-06 -6.14567e-07 0)
(3.10227e-06 -5.90157e-07 0)
(3.22745e-06 -5.66014e-07 0)
(3.35031e-06 -5.41628e-07 0)
(3.47111e-06 -5.16521e-07 0)
(3.59005e-06 -4.90213e-07 0)
(3.70723e-06 -4.62205e-07 0)
(3.82292e-06 -4.32001e-07 0)
(3.93723e-06 -3.99028e-07 0)
(4.05033e-06 -3.62736e-07 0)
(4.16251e-06 -3.22353e-07 0)
(4.27375e-06 -2.77361e-07 0)
(1.76846e-06 -9.76837e-07 0)
(1.9221e-06 -9.25246e-07 0)
(2.07295e-06 -8.79274e-07 0)
(2.22053e-06 -8.37581e-07 0)
(2.36481e-06 -7.99842e-07 0)
(2.50567e-06 -7.65415e-07 0)
(2.6433e-06 -7.3366e-07 0)
(2.77778e-06 -7.03959e-07 0)
(2.90933e-06 -6.75717e-07 0)
(3.03814e-06 -6.48381e-07 0)
(3.16443e-06 -6.21428e-07 0)
(3.28837e-06 -5.94361e-07 0)
(3.41022e-06 -5.66714e-07 0)
(3.53015e-06 -5.38012e-07 0)
(3.64826e-06 -5.07768e-07 0)
(3.76486e-06 -4.75501e-07 0)
(3.88002e-06 -4.40672e-07 0)
(3.994e-06 -4.02759e-07 0)
(4.10703e-06 -3.61019e-07 0)
(4.21925e-06 -3.14982e-07 0)
(1.71242e-06 -1.05352e-06 0)
(1.86322e-06 -1.00208e-06 0)
(2.01203e-06 -9.55198e-07 0)
(2.1582e-06 -9.11872e-07 0)
(2.30164e-06 -8.71977e-07 0)
(2.44215e-06 -8.35068e-07 0)
(2.57978e-06 -8.0065e-07 0)
(2.71452e-06 -7.682e-07 0)
(2.84651e-06 -7.37195e-07 0)
(2.97592e-06 -7.07139e-07 0)
(3.10288e-06 -6.77541e-07 0)
(3.22752e-06 -6.47936e-07 0)
(3.35011e-06 -6.17881e-07 0)
(3.47077e-06 -5.86913e-07 0)
(3.58962e-06 -5.54568e-07 0)
(3.70697e-06 -5.20386e-07 0)
(3.82286e-06 -4.83864e-07 0)
(3.93761e-06 -4.44509e-07 0)
(4.05142e-06 -4.01629e-07 0)
(4.16453e-06 -3.54878e-07 0)
(1.66271e-06 -1.12698e-06 0)
(1.81048e-06 -1.07597e-06 0)
(1.95689e-06 -1.02858e-06 0)
(2.10115e-06 -9.8409e-07 0)
(2.2432e-06 -9.4251e-07 0)
(2.38277e-06 -9.03554e-07 0)
(2.51982e-06 -8.66856e-07 0)
(2.65428e-06 -8.31988e-07 0)
(2.78623e-06 -7.98506e-07 0)
(2.91579e-06 -7.65975e-07 0)
(3.04303e-06 -7.33949e-07 0)
(3.16806e-06 -7.01998e-07 0)
(3.29111e-06 -6.69712e-07 0)
(3.41228e-06 -6.36649e-07 0)
(3.53168e-06 -6.0237e-07 0)
(3.6496e-06 -5.66446e-07 0)
(3.76611e-06 -5.28407e-07 0)
(3.88151e-06 -4.87797e-07 0)
(3.99601e-06 -4.44019e-07 0)
(4.10992e-06 -3.96852e-07 0)
(1.61825e-06 -1.19741e-06 0)
(1.76289e-06 -1.14699e-06 0)
(1.90669e-06 -1.0994e-06 0)
(2.0487e-06 -1.05412e-06 0)
(2.18899e-06 -1.01127e-06 0)
(2.32719e-06 -9.70666e-07 0)
(2.46324e-06 -9.32054e-07 0)
(2.59701e-06 -8.951e-07 0)
(2.72852e-06 -8.59436e-07 0)
(2.85786e-06 -8.24693e-07 0)
(2.98506e-06 -7.90473e-07 0)
(3.11018e-06 -7.56388e-07 0)
(3.23345e-06 -7.22062e-07 0)
(3.35491e-06 -6.87081e-07 0)
(3.47469e-06 -6.51036e-07 0)
(3.59304e-06 -6.13532e-07 0)
(3.71003e-06 -5.74142e-07 0)
(3.82598e-06 -5.32467e-07 0)
(3.94109e-06 -4.88031e-07 0)
(4.0557e-06 -4.40634e-07 0)
(1.57809e-06 -1.26499e-06 0)
(1.71962e-06 -1.21526e-06 0)
(1.86065e-06 -1.16769e-06 0)
(2.00027e-06 -1.12193e-06 0)
(2.13853e-06 -1.07813e-06 0)
(2.27507e-06 -1.03622e-06 0)
(2.4098e-06 -9.96017e-07 0)
(2.54255e-06 -9.57285e-07 0)
(2.67332e-06 -9.19724e-07 0)
(2.80214e-06 -8.83035e-07 0)
(2.92902e-06 -8.46862e-07 0)
(3.05399e-06 -8.10865e-07 0)
(3.17726e-06 -7.74699e-07 0)
(3.29882e-06 -7.37984e-07 0)
(3.41881e-06 -7.00348e-07 0)
(3.53745e-06 -6.61434e-07 0)
(3.65481e-06 -6.20873e-07 0)
(3.77122e-06 -5.78331e-07 0)
(3.88685e-06 -5.33434e-07 0)
(4.00205e-06 -4.85919e-07 0)
(1.54137e-06 -1.32993e-06 0)
(1.67985e-06 -1.28095e-06 0)
(1.81809e-06 -1.23357e-06 0)
(1.95522e-06 -1.18753e-06 0)
(2.09131e-06 -1.14306e-06 0)
(2.226e-06 -1.10011e-06 0)
(2.3592e-06 -1.05861e-06 0)
(2.49069e-06 -1.01838e-06 0)
(2.62048e-06 -9.79194e-07 0)
(2.74855e-06 -9.40815e-07 0)
(2.87489e-06 -9.02932e-07 0)
(2.99951e-06 -8.65248e-07 0)
(3.12259e-06 -8.27448e-07 0)
(3.24409e-06 -7.89188e-07 0)
(3.36415e-06 -7.50142e-07 0)
(3.48297e-06 -7.1e-07 0)
(3.6006e-06 -6.68455e-07 0)
(3.71739e-06 -6.25231e-07 0)
(3.83343e-06 -5.79992e-07 0)
(3.94912e-06 -5.32495e-07 0)
(1.50737e-06 -1.39245e-06 0)
(1.64287e-06 -1.34426e-06 0)
(1.77836e-06 -1.29716e-06 0)
(1.91298e-06 -1.251e-06 0)
(2.04682e-06 -1.20604e-06 0)
(2.17956e-06 -1.16228e-06 0)
(2.31108e-06 -1.11973e-06 0)
(2.44117e-06 -1.07827e-06 0)
(2.5698e-06 -1.03772e-06 0)
(2.69697e-06 -9.97899e-07 0)
(2.8226e-06 -9.58545e-07 0)
(2.94672e-06 -9.19396e-07 0)
(3.06945e-06 -8.80169e-07 0)
(3.19075e-06 -8.40562e-07 0)
(3.31077e-06 -8.00295e-07 0)
(3.42966e-06 -7.59112e-07 0)
(3.54749e-06 -7.1676e-07 0)
(3.66455e-06 -6.72996e-07 0)
(3.78092e-06 -6.27496e-07 0)
(3.89701e-06 -5.80188e-07 0)
(1.47543e-06 -1.45278e-06 0)
(1.60807e-06 -1.40537e-06 0)
(1.74085e-06 -1.3586e-06 0)
(1.87298e-06 -1.31243e-06 0)
(2.00457e-06 -1.26713e-06 0)
(2.13531e-06 -1.22277e-06 0)
(2.26509e-06 -1.17939e-06 0)
(2.39369e-06 -1.13693e-06 0)
(2.52107e-06 -1.09526e-06 0)
(2.64721e-06 -1.05423e-06 0)
(2.77202e-06 -1.01363e-06 0)
(2.89551e-06 -9.73216e-07 0)
(3.01778e-06 -9.32756e-07 0)
(3.1388e-06 -8.9199e-07 0)
(3.25867e-06 -8.50687e-07 0)
(3.37757e-06 -8.08637e-07 0)
(3.49551e-06 -7.6562e-07 0)
(3.61275e-06 -7.2141e-07 0)
(3.72939e-06 -6.75766e-07 0)
(3.84579e-06 -6.28736e-07 0)
(1.445e-06 -1.51111e-06 0)
(1.57488e-06 -1.46444e-06 0)
(1.70502e-06 -1.41802e-06 0)
(1.83474e-06 -1.37192e-06 0)
(1.96411e-06 -1.32642e-06 0)
(2.09286e-06 -1.28163e-06 0)
(2.22087e-06 -1.23763e-06 0)
(2.34794e-06 -1.19437e-06 0)
(2.47401e-06 -1.15179e-06 0)
(2.59906e-06 -1.10975e-06 0)
(2.72298e-06 -1.06808e-06 0)
(2.84576e-06 -1.0266e-06 0)
(2.96751e-06 -9.85095e-07 0)
(3.08817e-06 -9.43359e-07 0)
(3.20785e-06 -9.01202e-07 0)
(3.32668e-06 -8.58441e-07 0)
(3.44465e-06 -8.14874e-07 0)
(3.56201e-06 -7.70311e-07 0)
(3.67884e-06 -7.24674e-07 0)
(3.79549e-06 -6.7791e-07 0)
(1.41556e-06 -1.56761e-06 0)
(1.54279e-06 -1.5216e-06 0)
(1.67041e-06 -1.47556e-06 0)
(1.79779e-06 -1.42961e-06 0)
(1.92501e-06 -1.38403e-06 0)
(2.0518e-06 -1.33894e-06 0)
(2.17807e-06 -1.29446e-06 0)
(2.30362e-06 -1.25058e-06 0)
(2.42837e-06 -1.20727e-06 0)
(2.55231e-06 -1.16441e-06 0)
(2.6753e-06 -1.12188e-06 0)
(2.79734e-06 -1.07952e-06 0)
(2.91853e-06 -1.03716e-06 0)
(3.0388e-06 -9.94643e-07 0)
(3.15823e-06 -9.51791e-07 0)
(3.27693e-06 -9.08442e-07 0)
(3.39487e-06 -8.64426e-07 0)
(3.5123e-06 -8.19634e-07 0)
(3.62926e-06 -7.7407e-07 0)
(3.74608e-06 -7.27602e-07 0)
(1.38664e-06 -1.62241e-06 0)
(1.51136e-06 -1.57705e-06 0)
(1.63656e-06 -1.53139e-06 0)
(1.7617e-06 -1.48562e-06 0)
(1.88684e-06 -1.44003e-06 0)
(2.01176e-06 -1.39476e-06 0)
(2.13635e-06 -1.34996e-06 0)
(2.26041e-06 -1.30561e-06 0)
(2.38387e-06 -1.26175e-06 0)
(2.5067e-06 -1.21825e-06 0)
(2.62877e-06 -1.17503e-06 0)
(2.75008e-06 -1.13197e-06 0)
(2.87071e-06 -1.08893e-06 0)
(2.99057e-06 -1.04577e-06 0)
(3.10971e-06 -1.00235e-06 0)
(3.22824e-06 -9.58512e-07 0)
(3.3461e-06 -9.14157e-07 0)
(3.46357e-06 -8.69258e-07 0)
(3.58062e-06 -8.23737e-07 0)
(3.69756e-06 -7.77616e-07 0)
(1.35777e-06 -1.6757e-06 0)
(1.48011e-06 -1.63093e-06 0)
(1.60303e-06 -1.58565e-06 0)
(1.72603e-06 -1.5401e-06 0)
(1.8492e-06 -1.49457e-06 0)
(1.97235e-06 -1.44923e-06 0)
(2.09535e-06 -1.40423e-06 0)
(2.218e-06 -1.35956e-06 0)
(2.34023e-06 -1.31526e-06 0)
(2.462e-06 -1.27127e-06 0)
(2.58319e-06 -1.22752e-06 0)
(2.7038e-06 -1.18393e-06 0)
(2.82389e-06 -1.14037e-06 0)
(2.94333e-06 -1.09671e-06 0)
(3.06217e-06 -1.05282e-06 0)
(3.18049e-06 -1.00862e-06 0)
(3.29829e-06 -9.64044e-07 0)
(3.41576e-06 -9.19083e-07 0)
(3.53286e-06 -8.7362e-07 0)
(3.64985e-06 -8.27801e-07 0)
(1.32852e-06 -1.72762e-06 0)
(1.4486e-06 -1.68342e-06 0)
(1.56932e-06 -1.63846e-06 0)
(1.69036e-06 -1.59315e-06 0)
(1.81171e-06 -1.54777e-06 0)
(1.93323e-06 -1.50245e-06 0)
(2.05475e-06 -1.45733e-06 0)
(2.17608e-06 -1.41247e-06 0)
(2.29716e-06 -1.36788e-06 0)
(2.41797e-06 -1.32354e-06 0)
(2.53838e-06 -1.27942e-06 0)
(2.65835e-06 -1.23543e-06 0)
(2.7779e-06 -1.19146e-06 0)
(2.89692e-06 -1.14741e-06 0)
(3.01545e-06 -1.10318e-06 0)
(3.13361e-06 -1.05873e-06 0)
(3.25134e-06 -1.01402e-06 0)
(3.36877e-06 -9.68955e-07 0)
(3.48586e-06 -9.23603e-07 0)
(3.60286e-06 -8.78052e-07 0)
(1.2984e-06 -1.77831e-06 0)
(1.41626e-06 -1.73451e-06 0)
(1.53492e-06 -1.68998e-06 0)
(1.65424e-06 -1.64501e-06 0)
(1.77396e-06 -1.5998e-06 0)
(1.894e-06 -1.55455e-06 0)
(2.01419e-06 -1.50941e-06 0)
(2.13435e-06 -1.46445e-06 0)
(2.25444e-06 -1.4197e-06 0)
(2.37442e-06 -1.37515e-06 0)
(2.49413e-06 -1.33078e-06 0)
(2.6135e-06 -1.2865e-06 0)
(2.73256e-06 -1.24223e-06 0)
(2.8512e-06 -1.1979e-06 0)
(2.9695e-06 -1.15345e-06 0)
(3.08752e-06 -1.10882e-06 0)
(3.20512e-06 -1.06396e-06 0)
(3.32244e-06 -1.01883e-06 0)
(3.4395e-06 -9.73608e-07 0)
(3.55662e-06 -9.28296e-07 0)
(1.2667e-06 -1.8277e-06 0)
(1.3827e-06 -1.78441e-06 0)
(1.49967e-06 -1.74037e-06 0)
(1.61733e-06 -1.69572e-06 0)
(1.7356e-06 -1.65076e-06 0)
(1.85433e-06 -1.60565e-06 0)
(1.97338e-06 -1.56057e-06 0)
(2.09258e-06 -1.51562e-06 0)
(2.21186e-06 -1.47082e-06 0)
(2.33115e-06 -1.42617e-06 0)
(2.45023e-06 -1.38162e-06 0)
(2.56906e-06 -1.33716e-06 0)
(2.68773e-06 -1.29271e-06 0)
(2.80613e-06 -1.24821e-06 0)
(2.92422e-06 -1.20358e-06 0)
(3.04198e-06 -1.15881e-06 0)
(3.15941e-06 -1.11384e-06 0)
(3.27678e-06 -1.06872e-06 0)
(3.39383e-06 -1.02357e-06 0)
(3.51077e-06 -9.78439e-07 0)
(1.233e-06 -1.87634e-06 0)
(1.34729e-06 -1.83358e-06 0)
(1.46273e-06 -1.7899e-06 0)
(1.57903e-06 -1.74559e-06 0)
(1.69609e-06 -1.70089e-06 0)
(1.81379e-06 -1.65601e-06 0)
(1.93201e-06 -1.61109e-06 0)
(2.05053e-06 -1.5662e-06 0)
(2.16918e-06 -1.52139e-06 0)
(2.28787e-06 -1.47669e-06 0)
(2.40649e-06 -1.43208e-06 0)
(2.52503e-06 -1.38753e-06 0)
(2.64344e-06 -1.34295e-06 0)
(2.76148e-06 -1.29832e-06 0)
(2.87931e-06 -1.25358e-06 0)
(2.997e-06 -1.20869e-06 0)
(3.11435e-06 -1.16364e-06 0)
(3.23158e-06 -1.11853e-06 0)
(3.34864e-06 -1.07339e-06 0)
(3.46555e-06 -1.0284e-06 0)
(1.19685e-06 -1.9238e-06 0)
(1.30965e-06 -1.88165e-06 0)
(1.42378e-06 -1.83851e-06 0)
(1.53899e-06 -1.79462e-06 0)
(1.65521e-06 -1.7503e-06 0)
(1.77228e-06 -1.70572e-06 0)
(1.88994e-06 -1.661e-06 0)
(2.00791e-06 -1.61625e-06 0)
(2.12615e-06 -1.57152e-06 0)
(2.2446e-06 -1.52684e-06 0)
(2.36301e-06 -1.48223e-06 0)
(2.48123e-06 -1.43763e-06 0)
(2.59937e-06 -1.39297e-06 0)
(2.71729e-06 -1.34825e-06 0)
(2.83493e-06 -1.30344e-06 0)
(2.95243e-06 -1.25846e-06 0)
(3.06972e-06 -1.2134e-06 0)
(3.18685e-06 -1.1682e-06 0)
(3.30391e-06 -1.12305e-06 0)
(3.4207e-06 -1.07807e-06 0)
(8.44995e-08 -1.57932e-06 0)
(2.54478e-07 -1.55674e-06 0)
(4.27344e-07 -1.51224e-06 0)
(6.04687e-07 -1.4479e-06 0)
(7.87794e-07 -1.36599e-06 0)
(9.77466e-07 -1.26971e-06 0)
(1.17397e-06 -1.16252e-06 0)
(1.37697e-06 -1.04801e-06 0)
(1.58609e-06 -9.29789e-07 0)
(1.79934e-06 -8.10605e-07 0)
(8.25124e-08 -1.60811e-06 0)
(2.48344e-07 -1.58754e-06 0)
(4.16522e-07 -1.54689e-06 0)
(5.88342e-07 -1.48805e-06 0)
(7.64846e-07 -1.41286e-06 0)
(9.4669e-07 -1.32405e-06 0)
(1.13405e-06 -1.22459e-06 0)
(1.32655e-06 -1.11758e-06 0)
(1.52339e-06 -1.00636e-06 0)
(1.72286e-06 -8.93678e-07 0)
(8.0672e-08 -1.63779e-06 0)
(2.42663e-07 -1.61904e-06 0)
(4.06488e-07 -1.58187e-06 0)
(5.73181e-07 -1.52801e-06 0)
(7.43578e-07 -1.45902e-06 0)
(9.1819e-07 -1.37725e-06 0)
(1.09718e-06 -1.28525e-06 0)
(1.28042e-06 -1.18563e-06 0)
(1.46723e-06 -1.08137e-06 0)
(1.65653e-06 -9.74471e-07 0)
(7.8979e-08 -1.66827e-06 0)
(2.37491e-07 -1.65104e-06 0)
(3.97478e-07 -1.61682e-06 0)
(5.59756e-07 -1.56717e-06 0)
(7.25019e-07 -1.50348e-06 0)
(8.93622e-07 -1.42774e-06 0)
(1.06567e-06 -1.34229e-06 0)
(1.24103e-06 -1.24943e-06 0)
(1.41905e-06 -1.15198e-06 0)
(1.5989e-06 -1.05155e-06 0)
(7.74129e-08 -1.69949e-06 0)
(2.32638e-07 -1.68362e-06 0)
(3.89086e-07 -1.65204e-06 0)
(5.47343e-07 -1.60617e-06 0)
(7.07995e-07 -1.54726e-06 0)
(8.71299e-07 -1.47704e-06 0)
(1.03734e-06 -1.39765e-06 0)
(1.206e-06 -1.31106e-06 0)
(1.37674e-06 -1.21984e-06 0)
(1.54858e-06 -1.12544e-06 0)
(7.59509e-08 -1.73141e-06 0)
(2.28108e-07 -1.7167e-06 0)
(3.81286e-07 -1.68744e-06 0)
(5.35912e-07 -1.64486e-06 0)
(6.92462e-07 -1.59014e-06 0)
(8.51154e-07 -1.52483e-06 0)
(1.01197e-06 -1.45087e-06 0)
(1.17478e-06 -1.37004e-06 0)
(1.33922e-06 -1.28466e-06 0)
(1.50411e-06 -1.19613e-06 0)
(7.45157e-08 -1.76397e-06 0)
(2.23774e-07 -1.75028e-06 0)
(3.73854e-07 -1.72311e-06 0)
(5.25114e-07 -1.68346e-06 0)
(6.77934e-07 -1.63251e-06 0)
(8.32487e-07 -1.57163e-06 0)
(9.88748e-07 -1.50259e-06 0)
(1.14649e-06 -1.427e-06 0)
(1.30551e-06 -1.34693e-06 0)
(1.46447e-06 -1.26383e-06 0)
(7.31317e-08 -1.79709e-06 0)
(2.19599e-07 -1.7843e-06 0)
(3.66721e-07 -1.75899e-06 0)
(5.14833e-07 -1.72194e-06 0)
(6.64247e-07 -1.67435e-06 0)
(8.15054e-07 -1.61746e-06 0)
(9.67246e-07 -1.55286e-06 0)
(1.12053e-06 -1.48204e-06 0)
(1.27482e-06 -1.40683e-06 0)
(1.42872e-06 -1.32874e-06 0)
(7.18089e-08 -1.83071e-06 0)
(2.15523e-07 -1.81874e-06 0)
(3.59787e-07 -1.79507e-06 0)
(5.04907e-07 -1.76038e-06 0)
(6.51129e-07 -1.71584e-06 0)
(7.98518e-07 -1.66254e-06 0)
(9.47041e-07 -1.60195e-06 0)
(1.09636e-06 -1.53545e-06 0)
(1.24649e-06 -1.46467e-06 0)
(1.39603e-06 -1.39116e-06 0)
(7.04941e-08 -1.86479e-06 0)
(2.11485e-07 -1.85351e-06 0)
(3.52971e-07 -1.83133e-06 0)
(4.9523e-07 -1.79879e-06 0)
(6.38416e-07 -1.75698e-06 0)
(7.82626e-07 -1.70692e-06 0)
(9.2779e-07 -1.64996e-06 0)
(1.07354e-06 -1.58739e-06 0)
(1.21995e-06 -1.52066e-06 0)
(1.3657e-06 -1.45133e-06 0)
(6.91431e-08 -1.89923e-06 0)
(2.07447e-07 -1.88856e-06 0)
(3.46204e-07 -1.86774e-06 0)
(4.85668e-07 -1.83715e-06 0)
(6.25938e-07 -1.79783e-06 0)
(7.6713e-07 -1.75071e-06 0)
(9.09167e-07 -1.69704e-06 0)
(1.05166e-06 -1.63805e-06 0)
(1.19473e-06 -1.57502e-06 0)
(1.33713e-06 -1.50947e-06 0)
(6.77705e-08 -1.93392e-06 0)
(2.03403e-07 -1.92384e-06 0)
(3.39435e-07 -1.90425e-06 0)
(4.76115e-07 -1.87545e-06 0)
(6.13546e-07 -1.83839e-06 0)
(7.51823e-07 -1.79395e-06 0)
(8.90897e-07 -1.74328e-06 0)
(1.03038e-06 -1.68756e-06 0)
(1.17038e-06 -1.62788e-06 0)
(1.30979e-06 -1.56574e-06 0)
(6.63953e-08 -1.96882e-06 0)
(1.99313e-07 -1.95929e-06 0)
(3.32583e-07 -1.94083e-06 0)
(4.66455e-07 -1.91366e-06 0)
(6.01078e-07 -1.87866e-06 0)
(7.36505e-07 -1.83667e-06 0)
(8.72724e-07 -1.78875e-06 0)
(1.00937e-06 -1.73599e-06 0)
(1.14651e-06 -1.67937e-06 0)
(1.28323e-06 -1.62035e-06 0)
(6.49979e-08 -2.00383e-06 0)
(1.951e-07 -1.99484e-06 0)
(3.25539e-07 -1.9774e-06 0)
(4.56563e-07 -1.95172e-06 0)
(5.88364e-07 -1.91861e-06 0)
(7.20969e-07 -1.87887e-06 0)
(8.54391e-07 -1.83348e-06 0)
(9.88299e-07 -1.78341e-06 0)
(1.12277e-06 -1.72962e-06 0)
(1.25699e-06 -1.67346e-06 0)
(6.35336e-08 -2.03891e-06 0)
(1.9068e-07 -2.0304e-06 0)
(3.18193e-07 -2.01388e-06 0)
(4.46302e-07 -1.98959e-06 0)
(5.75221e-07 -1.95825e-06 0)
(7.04982e-07 -1.9206e-06 0)
(8.35617e-07 -1.87751e-06 0)
(9.66862e-07 -1.82992e-06 0)
(1.09876e-06 -1.77876e-06 0)
(1.23064e-06 -1.72519e-06 0)
(6.19725e-08 -2.07388e-06 0)
(1.86005e-07 -2.06584e-06 0)
(3.10458e-07 -2.05018e-06 0)
(4.35533e-07 -2.02719e-06 0)
(5.61462e-07 -1.99746e-06 0)
(6.88313e-07 -1.96173e-06 0)
(8.16143e-07 -1.92078e-06 0)
(9.44755e-07 -1.87553e-06 0)
(1.07414e-06 -1.8268e-06 0)
(1.20375e-06 -1.77563e-06 0)
(6.03049e-08 -2.10871e-06 0)
(1.81033e-07 -2.10112e-06 0)
(3.02232e-07 -2.08627e-06 0)
(4.241e-07 -2.06447e-06 0)
(5.46893e-07 -2.03628e-06 0)
(6.70721e-07 -2.00236e-06 0)
(7.9568e-07 -1.96344e-06 0)
(9.21607e-07 -1.9204e-06 0)
(1.04848e-06 -1.87389e-06 0)
(1.17584e-06 -1.82498e-06 0)
(5.85218e-08 -2.1431e-06 0)
(1.75708e-07 -2.13593e-06 0)
(2.93406e-07 -2.12185e-06 0)
(4.11846e-07 -2.10119e-06 0)
(5.31312e-07 -2.07445e-06 0)
(6.51964e-07 -2.04224e-06 0)
(7.73916e-07 -2.00526e-06 0)
(8.9704e-07 -1.9643e-06 0)
(1.02131e-06 -1.91993e-06 0)
(1.1464e-06 -1.87312e-06 0)
(5.65917e-08 -2.17717e-06 0)
(1.69923e-07 -2.17042e-06 0)
(2.83806e-07 -2.15708e-06 0)
(3.9853e-07 -2.13752e-06 0)
(5.14407e-07 -2.11217e-06 0)
(6.31655e-07 -2.08164e-06 0)
(7.50395e-07 -2.04654e-06 0)
(8.70542e-07 -2.00753e-06 0)
(9.92068e-07 -1.96526e-06 0)
(1.11482e-06 -1.92047e-06 0)
(5.44929e-08 -2.21013e-06 0)
(1.6363e-07 -2.20374e-06 0)
(2.73353e-07 -2.19115e-06 0)
(3.84045e-07 -2.17267e-06 0)
(4.96061e-07 -2.14871e-06 0)
(6.09629e-07 -2.11983e-06 0)
(7.24879e-07 -2.08657e-06 0)
(8.41804e-07 -2.04953e-06 0)
(9.60438e-07 -2.00933e-06 0)
(1.08076e-06 -1.96659e-06 0)
)


// ************************************************************************* //
