/*--------------------------------*- C++ -*----------------------------------*\
| =========                 |                                                 |
| \\      /  F ield         | foam-extend: Open Source CFD                    |
|  \\    /   O peration     | Version:     4.1                                |
|   \\  /    A nd           | Web:         http://www.foam-extend.org         |
|    \\/     M anipulation  |                                                 |
\*---------------------------------------------------------------------------*/
FoamFile
{
    version     2.0;
    format      ascii;
    class       vectorField;
    location    "4";
    object      solidsCellD_iteration14;
}
// * * * * * * * * * * * * * * * * * * * * * * * * * * * * * * * * * * * * * //


1000
(
(2.05049e-06 -8.51939e-07 0)
(1.93603e-06 -7.93577e-07 0)
(1.86321e-06 -7.56893e-07 0)
(1.82164e-06 -7.40267e-07 0)
(1.80169e-06 -7.3517e-07 0)
(1.79753e-06 -7.38947e-07 0)
(1.80501e-06 -7.48538e-07 0)
(1.82114e-06 -7.62491e-07 0)
(1.84401e-06 -7.79347e-07 0)
(1.87158e-06 -7.98165e-07 0)
(1.85415e-06 -9.30714e-07 0)
(1.73234e-06 -8.90511e-07 0)
(1.65484e-06 -8.65322e-07 0)
(1.60979e-06 -8.56512e-07 0)
(1.58706e-06 -8.56619e-07 0)
(1.58038e-06 -8.64065e-07 0)
(1.58544e-06 -8.76251e-07 0)
(1.59908e-06 -8.92156e-07 0)
(1.61925e-06 -9.10541e-07 0)
(1.6437e-06 -9.30506e-07 0)
(1.65015e-06 -1.00536e-06 0)
(1.52572e-06 -9.85452e-07 0)
(1.44653e-06 -9.73131e-07 0)
(1.39996e-06 -9.72933e-07 0)
(1.37575e-06 -9.78688e-07 0)
(1.36735e-06 -9.90019e-07 0)
(1.37047e-06 -1.0049e-06 0)
(1.38196e-06 -1.02272e-06 0)
(1.39969e-06 -1.04259e-06 0)
(1.42158e-06 -1.06353e-06 0)
(1.43992e-06 -1.07456e-06 0)
(1.31817e-06 -1.07591e-06 0)
(1.24063e-06 -1.07708e-06 0)
(1.19459e-06 -1.08586e-06 0)
(1.17018e-06 -1.09746e-06 0)
(1.16088e-06 -1.11276e-06 0)
(1.16247e-06 -1.13034e-06 0)
(1.17201e-06 -1.15005e-06 0)
(1.18741e-06 -1.17133e-06 0)
(1.2067e-06 -1.19335e-06 0)
(1.22505e-06 -1.13693e-06 0)
(1.11104e-06 -1.15935e-06 0)
(1.03844e-06 -1.17388e-06 0)
(9.9511e-07 -1.19151e-06 0)
(9.71793e-07 -1.20885e-06 0)
(9.62307e-07 -1.22806e-06 0)
(9.62815e-07 -1.24827e-06 0)
(9.70588e-07 -1.26982e-06 0)
(9.83731e-07 -1.29247e-06 0)
(1.00031e-06 -1.31561e-06 0)
(1.0064e-06 -1.19125e-06 0)
(9.05263e-07 -1.23336e-06 0)
(8.40878e-07 -1.26041e-06 0)
(8.02207e-07 -1.28632e-06 0)
(7.81157e-07 -1.30902e-06 0)
(7.72214e-07 -1.33185e-06 0)
(7.72081e-07 -1.35449e-06 0)
(7.78257e-07 -1.37774e-06 0)
(7.89103e-07 -1.40166e-06 0)
(8.02825e-07 -1.42591e-06 0)
(7.85202e-07 -1.23625e-06 0)
(7.01338e-07 -1.29562e-06 0)
(6.47951e-07 -1.33365e-06 0)
(6.15758e-07 -1.36684e-06 0)
(5.98118e-07 -1.39422e-06 0)
(5.90431e-07 -1.4202e-06 0)
(5.89983e-07 -1.44495e-06 0)
(5.94655e-07 -1.4697e-06 0)
(6.03133e-07 -1.49474e-06 0)
(6.13885e-07 -1.51999e-06 0)
(5.62129e-07 -1.27097e-06 0)
(4.99287e-07 -1.34422e-06 0)
(4.59314e-07 -1.39104e-06 0)
(4.35177e-07 -1.43002e-06 0)
(4.219e-07 -1.46117e-06 0)
(4.16006e-07 -1.48971e-06 0)
(4.15468e-07 -1.51618e-06 0)
(4.18702e-07 -1.54216e-06 0)
(4.24773e-07 -1.5681e-06 0)
(4.32491e-07 -1.59418e-06 0)
(3.37798e-07 -1.29458e-06 0)
(2.98894e-07 -1.3775e-06 0)
(2.74187e-07 -1.43046e-06 0)
(2.59208e-07 -1.47354e-06 0)
(2.50907e-07 -1.50733e-06 0)
(2.47169e-07 -1.53763e-06 0)
(2.46778e-07 -1.56531e-06 0)
(2.48713e-07 -1.59218e-06 0)
(2.52358e-07 -1.61877e-06 0)
(2.56991e-07 -1.64545e-06 0)
(1.12817e-07 -1.30648e-06 0)
(9.96522e-08 -1.39441e-06 0)
(9.12198e-08 -1.45052e-06 0)
(8.61171e-08 -1.4957e-06 0)
(8.33314e-08 -1.53085e-06 0)
(8.20487e-08 -1.56208e-06 0)
(8.18508e-08 -1.59037e-06 0)
(8.2474e-08 -1.61767e-06 0)
(8.37041e-08 -1.64459e-06 0)
(8.52469e-08 -1.67161e-06 0)
(3.19778e-06 -3.88235e-08 0)
(3.22614e-06 -2.79647e-08 0)
(3.24361e-06 -2.10996e-08 0)
(3.26259e-06 -1.70798e-08 0)
(3.28353e-06 -1.48635e-08 0)
(3.30918e-06 -1.38824e-08 0)
(3.33959e-06 -1.37481e-08 0)
(3.37502e-06 -1.41127e-08 0)
(3.41543e-06 -1.48933e-08 0)
(3.46025e-06 -1.58564e-08 0)
(3.17412e-06 -1.16515e-07 0)
(3.19776e-06 -8.4571e-08 0)
(3.21227e-06 -6.43615e-08 0)
(3.22925e-06 -5.26234e-08 0)
(3.24884e-06 -4.6255e-08 0)
(3.27352e-06 -4.33831e-08 0)
(3.30327e-06 -4.2986e-08 0)
(3.33816e-06 -4.42203e-08 0)
(3.37808e-06 -4.66131e-08 0)
(3.4224e-06 -4.94332e-08 0)
(3.12695e-06 -1.9483e-07 0)
(3.14152e-06 -1.43591e-07 0)
(3.15031e-06 -1.11211e-07 0)
(3.1635e-06 -9.23341e-08 0)
(3.18058e-06 -8.21479e-08 0)
(3.20351e-06 -7.77367e-08 0)
(3.23191e-06 -7.72662e-08 0)
(3.26576e-06 -7.93661e-08 0)
(3.30474e-06 -8.33263e-08 0)
(3.34811e-06 -8.80392e-08 0)
(3.05705e-06 -2.74179e-07 0)
(3.05874e-06 -2.06379e-07 0)
(3.05934e-06 -1.6363e-07 0)
(3.06713e-06 -1.38831e-07 0)
(3.08061e-06 -1.25493e-07 0)
(3.10105e-06 -1.19838e-07 0)
(3.12758e-06 -1.19423e-07 0)
(3.15996e-06 -1.22476e-07 0)
(3.19763e-06 -1.27986e-07 0)
(3.23968e-06 -1.34581e-07 0)
(2.96548e-06 -3.54747e-07 0)
(2.95128e-06 -2.74085e-07 0)
(2.94176e-06 -2.23271e-07 0)
(2.94285e-06 -1.94022e-07 0)
(2.95189e-06 -1.78442e-07 0)
(2.96919e-06 -1.72088e-07 0)
(2.99341e-06 -1.71998e-07 0)
(3.02392e-06 -1.76115e-07 0)
(3.05998e-06 -1.83149e-07 0)
(3.10044e-06 -1.91578e-07 0)
(2.85358e-06 -4.36615e-07 0)
(2.82138e-06 -3.47513e-07 0)
(2.80048e-06 -2.91384e-07 0)
(2.79401e-06 -2.59416e-07 0)
(2.79801e-06 -2.4266e-07 0)
(2.81173e-06 -2.36232e-07 0)
(2.83332e-06 -2.36782e-07 0)
(2.86171e-06 -2.42071e-07 0)
(2.89591e-06 -2.50621e-07 0)
(2.93457e-06 -2.60835e-07 0)
(2.72304e-06 -5.19611e-07 0)
(2.67179e-06 -4.26974e-07 0)
(2.63884e-06 -3.68601e-07 0)
(2.62439e-06 -3.35827e-07 0)
(2.62305e-06 -3.19037e-07 0)
(2.63297e-06 -3.13227e-07 0)
(2.65175e-06 -3.14777e-07 0)
(2.67786e-06 -3.2135e-07 0)
(2.71005e-06 -3.31395e-07 0)
(2.74681e-06 -3.43296e-07 0)
(2.57554e-06 -6.03315e-07 0)
(2.50544e-06 -5.12247e-07 0)
(2.46058e-06 -4.54839e-07 0)
(2.43817e-06 -4.23287e-07 0)
(2.43153e-06 -4.07682e-07 0)
(2.43762e-06 -4.03228e-07 0)
(2.45351e-06 -4.06181e-07 0)
(2.47724e-06 -4.14227e-07 0)
(2.50731e-06 -4.25773e-07 0)
(2.54207e-06 -4.39299e-07 0)
(2.41301e-06 -6.87177e-07 0)
(2.32538e-06 -6.02616e-07 0)
(2.26944e-06 -5.49359e-07 0)
(2.23956e-06 -5.21015e-07 0)
(2.22789e-06 -5.07811e-07 0)
(2.23021e-06 -5.05413e-07 0)
(2.24318e-06 -5.10168e-07 0)
(2.26447e-06 -5.19847e-07 0)
(2.29236e-06 -5.32979e-07 0)
(2.32512e-06 -5.47897e-07 0)
(2.23736e-06 -7.70402e-07 0)
(2.13468e-06 -6.96931e-07 0)
(2.06921e-06 -6.50708e-07 0)
(2.03281e-06 -6.27442e-07 0)
(2.01663e-06 -6.17797e-07 0)
(2.01554e-06 -6.18159e-07 0)
(2.02585e-06 -6.25138e-07 0)
(2.04474e-06 -6.36817e-07 0)
(2.07053e-06 -6.51664e-07 0)
(2.10099e-06 -6.68776e-07 0)
(3.50959e-06 -1.6784e-08 0)
(3.56335e-06 -1.70186e-08 0)
(3.6205e-06 -1.72692e-08 0)
(3.68084e-06 -1.74551e-08 0)
(3.74399e-06 -1.75674e-08 0)
(3.80974e-06 -1.75957e-08 0)
(3.87778e-06 -1.74987e-08 0)
(3.94784e-06 -1.73002e-08 0)
(4.01975e-06 -1.70171e-08 0)
(4.09329e-06 -1.66242e-08 0)
(4.16822e-06 -1.6097e-08 0)
(4.24433e-06 -1.54265e-08 0)
(4.32141e-06 -1.4603e-08 0)
(4.39925e-06 -1.3621e-08 0)
(4.47766e-06 -1.24686e-08 0)
(4.55634e-06 -1.11205e-08 0)
(4.63516e-06 -9.54152e-09 0)
(4.71363e-06 -7.69649e-09 0)
(4.79181e-06 -5.54488e-09 0)
(4.86857e-06 -3.0707e-09 0)
(3.47342e-06 -5.20058e-08 0)
(3.53019e-06 -5.24774e-08 0)
(3.59003e-06 -5.30359e-08 0)
(3.65273e-06 -5.34313e-08 0)
(3.718e-06 -5.35815e-08 0)
(3.78559e-06 -5.35147e-08 0)
(3.8553e-06 -5.31756e-08 0)
(3.9269e-06 -5.25676e-08 0)
(4.00021e-06 -5.16531e-08 0)
(4.07501e-06 -5.03785e-08 0)
(4.15109e-06 -4.87242e-08 0)
(4.22827e-06 -4.66843e-08 0)
(4.30639e-06 -4.42187e-08 0)
(4.3852e-06 -4.12765e-08 0)
(4.46453e-06 -3.77996e-08 0)
(4.5441e-06 -3.37236e-08 0)
(4.62376e-06 -2.89625e-08 0)
(4.70303e-06 -2.34253e-08 0)
(4.78202e-06 -1.69788e-08 0)
(4.85953e-06 -9.56811e-09 0)
(3.40238e-06 -9.17858e-08 0)
(3.46509e-06 -9.1834e-08 0)
(3.53023e-06 -9.20841e-08 0)
(3.59748e-06 -9.22305e-08 0)
(3.66683e-06 -9.20781e-08 0)
(3.73809e-06 -9.16548e-08 0)
(3.81111e-06 -9.08235e-08 0)
(3.88567e-06 -8.95685e-08 0)
(3.96167e-06 -8.78285e-08 0)
(4.03892e-06 -8.55478e-08 0)
(4.11728e-06 -8.26954e-08 0)
(4.19659e-06 -7.92346e-08 0)
(4.27668e-06 -7.50758e-08 0)
(4.35733e-06 -7.01274e-08 0)
(4.4384e-06 -6.4299e-08 0)
(4.51964e-06 -5.74891e-08 0)
(4.60092e-06 -4.95523e-08 0)
(4.68181e-06 -4.03379e-08 0)
(4.76238e-06 -2.96135e-08 0)
(4.8415e-06 -1.72833e-08 0)
(3.29857e-06 -1.38693e-07 0)
(3.36975e-06 -1.37279e-07 0)
(3.44254e-06 -1.3628e-07 0)
(3.51646e-06 -1.35452e-07 0)
(3.59182e-06 -1.34389e-07 0)
(3.66839e-06 -1.33123e-07 0)
(3.74622e-06 -1.31401e-07 0)
(3.82511e-06 -1.29201e-07 0)
(3.9051e-06 -1.26415e-07 0)
(3.98602e-06 -1.22956e-07 0)
(4.06776e-06 -1.18753e-07 0)
(4.15019e-06 -1.13731e-07 0)
(4.23317e-06 -1.07768e-07 0)
(4.31656e-06 -1.00746e-07 0)
(4.40022e-06 -9.25474e-08 0)
(4.48393e-06 -8.30094e-08 0)
(4.5676e-06 -7.1927e-08 0)
(4.65081e-06 -5.90763e-08 0)
(4.73363e-06 -4.41173e-08 0)
(4.81503e-06 -2.69398e-08 0)
(3.16512e-06 -1.94999e-07 0)
(3.24698e-06 -1.90782e-07 0)
(3.32948e-06 -1.87344e-07 0)
(3.41184e-06 -1.84632e-07 0)
(3.49485e-06 -1.81878e-07 0)
(3.57822e-06 -1.79142e-07 0)
(3.66223e-06 -1.76023e-07 0)
(3.74674e-06 -1.72478e-07 0)
(3.83183e-06 -1.68311e-07 0)
(3.91741e-06 -1.63394e-07 0)
(4.00348e-06 -1.57625e-07 0)
(4.08995e-06 -1.50887e-07 0)
(4.17672e-06 -1.43016e-07 0)
(4.26367e-06 -1.33851e-07 0)
(4.35072e-06 -1.2323e-07 0)
(4.43765e-06 -1.10935e-07 0)
(4.52442e-06 -9.67016e-08 0)
(4.61061e-06 -8.02427e-08 0)
(4.69641e-06 -6.1104e-08 0)
(4.78076e-06 -3.9162e-08 0)
(3.00577e-06 -2.62383e-07 0)
(3.09991e-06 -2.53793e-07 0)
(3.1938e-06 -2.46473e-07 0)
(3.28614e-06 -2.4075e-07 0)
(3.37826e-06 -2.35387e-07 0)
(3.46978e-06 -2.3043e-07 0)
(3.56113e-06 -2.25293e-07 0)
(3.65235e-06 -2.19879e-07 0)
(3.74358e-06 -2.13931e-07 0)
(3.83482e-06 -2.07257e-07 0)
(3.92613e-06 -1.99699e-07 0)
(4.01746e-06 -1.9108e-07 0)
(4.10878e-06 -1.81179e-07 0)
(4.19999e-06 -1.69792e-07 0)
(4.29108e-06 -1.56701e-07 0)
(4.38186e-06 -1.41641e-07 0)
(4.47236e-06 -1.24277e-07 0)
(4.56215e-06 -1.04269e-07 0)
(4.65151e-06 -8.10528e-08 0)
(4.73942e-06 -5.44433e-08 0)
(2.82501e-06 -3.41807e-07 0)
(2.93252e-06 -3.27276e-07 0)
(3.03898e-06 -3.14657e-07 0)
(3.14244e-06 -3.04712e-07 0)
(3.24468e-06 -2.95747e-07 0)
(3.34536e-06 -2.87709e-07 0)
(3.44506e-06 -2.79906e-07 0)
(3.54389e-06 -2.72089e-07 0)
(3.64212e-06 -2.63929e-07 0)
(3.73984e-06 -2.55157e-07 0)
(3.83715e-06 -2.45532e-07 0)
(3.93405e-06 -2.34805e-07 0)
(4.03058e-06 -2.22704e-07 0)
(4.1267e-06 -2.0898e-07 0)
(4.22244e-06 -1.93356e-07 0)
(4.31767e-06 -1.75518e-07 0)
(4.41245e-06 -1.5505e-07 0)
(4.50641e-06 -1.31548e-07 0)
(4.59984e-06 -1.04352e-07 0)
(4.69183e-06 -7.32057e-08 0)
(2.62721e-06 -4.33563e-07 0)
(2.7485e-06 -4.11295e-07 0)
(2.8682e-06 -3.91913e-07 0)
(2.98356e-06 -3.76385e-07 0)
(3.09679e-06 -3.62802e-07 0)
(3.20745e-06 -3.50797e-07 0)
(3.31634e-06 -3.39628e-07 0)
(3.42361e-06 -3.28854e-07 0)
(3.52959e-06 -3.18046e-07 0)
(3.63446e-06 -3.06833e-07 0)
(3.73838e-06 -2.9488e-07 0)
(3.84145e-06 -2.81861e-07 0)
(3.94374e-06 -2.67443e-07 0)
(4.04531e-06 -2.51324e-07 0)
(4.14622e-06 -2.3316e-07 0)
(4.2464e-06 -2.12572e-07 0)
(4.34592e-06 -1.89069e-07 0)
(4.4445e-06 -1.62173e-07 0)
(4.54244e-06 -1.31129e-07 0)
(4.63894e-06 -9.56149e-08 0)
(2.41714e-06 -5.37427e-07 0)
(2.55227e-06 -5.06026e-07 0)
(2.68526e-06 -4.78993e-07 0)
(2.81295e-06 -4.56712e-07 0)
(2.93751e-06 -4.37559e-07 0)
(3.05869e-06 -4.20737e-07 0)
(3.17725e-06 -4.05469e-07 0)
(3.29346e-06 -3.91109e-07 0)
(3.40771e-06 -3.77129e-07 0)
(3.52025e-06 -3.6304e-07 0)
(3.63129e-06 -3.4841e-07 0)
(3.74101e-06 -3.32832e-07 0)
(3.84955e-06 -3.15908e-07 0)
(3.95704e-06 -2.97265e-07 0)
(4.06356e-06 -2.76483e-07 0)
(4.1691e-06 -2.53111e-07 0)
(4.27375e-06 -2.26588e-07 0)
(4.37733e-06 -1.9636e-07 0)
(4.48016e-06 -1.61598e-07 0)
(4.58157e-06 -1.21913e-07 0)
(2.19885e-06 -6.51664e-07 0)
(2.34825e-06 -6.08619e-07 0)
(2.49415e-06 -5.72889e-07 0)
(2.63455e-06 -5.42792e-07 0)
(2.77064e-06 -5.17234e-07 0)
(2.90275e-06 -4.94943e-07 0)
(3.03134e-06 -4.75032e-07 0)
(3.15687e-06 -4.56684e-07 0)
(3.27975e-06 -4.39233e-07 0)
(3.4003e-06 -4.22061e-07 0)
(3.51878e-06 -4.04627e-07 0)
(3.63545e-06 -3.8643e-07 0)
(3.75053e-06 -3.66992e-07 0)
(3.86417e-06 -3.45858e-07 0)
(3.97651e-06 -3.22534e-07 0)
(4.08761e-06 -2.96493e-07 0)
(4.19761e-06 -2.67114e-07 0)
(4.30638e-06 -2.33749e-07 0)
(4.41432e-06 -1.95515e-07 0)
(4.5209e-06 -1.51921e-07 0)
(2.03602e-06 -7.62331e-07 0)
(2.19516e-06 -7.09542e-07 0)
(2.34895e-06 -6.671e-07 0)
(2.49744e-06 -6.30554e-07 0)
(2.64104e-06 -5.99207e-07 0)
(2.78026e-06 -5.71693e-07 0)
(2.91553e-06 -5.47059e-07 0)
(3.0473e-06 -5.24454e-07 0)
(3.176e-06 -5.03137e-07 0)
(3.30193e-06 -4.82426e-07 0)
(3.42542e-06 -4.61723e-07 0)
(3.54674e-06 -4.4048e-07 0)
(3.66613e-06 -4.1816e-07 0)
(3.78378e-06 -3.94255e-07 0)
(3.89986e-06 -3.68227e-07 0)
(4.01448e-06 -3.39492e-07 0)
(4.12782e-06 -3.07425e-07 0)
(4.23986e-06 -2.71312e-07 0)
(4.35099e-06 -2.30267e-07 0)
(4.46086e-06 -1.83741e-07 0)
(1.94347e-06 -8.52694e-07 0)
(2.10388e-06 -7.97884e-07 0)
(2.25901e-06 -7.51668e-07 0)
(2.40963e-06 -7.11156e-07 0)
(2.55568e-06 -6.7569e-07 0)
(2.69749e-06 -6.44132e-07 0)
(2.8354e-06 -6.15588e-07 0)
(2.96975e-06 -5.89247e-07 0)
(3.10089e-06 -5.64373e-07 0)
(3.2291e-06 -5.4029e-07 0)
(3.35469e-06 -5.16404e-07 0)
(3.47793e-06 -4.92154e-07 0)
(3.59905e-06 -4.66987e-07 0)
(3.71826e-06 -4.40382e-07 0)
(3.83572e-06 -4.11792e-07 0)
(3.95161e-06 -3.80619e-07 0)
(4.06608e-06 -3.46272e-07 0)
(4.17924e-06 -3.0803e-07 0)
(4.29145e-06 -2.65044e-07 0)
(4.40249e-06 -2.16775e-07 0)
(1.86484e-06 -9.39133e-07 0)
(2.0237e-06 -8.83148e-07 0)
(2.17869e-06 -8.34572e-07 0)
(2.32976e-06 -7.9112e-07 0)
(2.47681e-06 -7.52313e-07 0)
(2.61994e-06 -7.17252e-07 0)
(2.75939e-06 -6.85168e-07 0)
(2.89535e-06 -6.55332e-07 0)
(3.02812e-06 -6.27054e-07 0)
(3.15792e-06 -5.997e-07 0)
(3.28503e-06 -5.72694e-07 0)
(3.4097e-06 -5.45478e-07 0)
(3.53215e-06 -5.17496e-07 0)
(3.65258e-06 -4.88229e-07 0)
(3.77116e-06 -4.57139e-07 0)
(3.8881e-06 -4.23624e-07 0)
(4.00357e-06 -3.87128e-07 0)
(4.11773e-06 -3.46954e-07 0)
(4.23091e-06 -3.02295e-07 0)
(4.34306e-06 -2.52655e-07 0)
(1.79563e-06 -1.02263e-06 0)
(1.95227e-06 -9.66124e-07 0)
(2.10599e-06 -9.15781e-07 0)
(2.25642e-06 -8.69904e-07 0)
(2.4034e-06 -8.28221e-07 0)
(2.54688e-06 -7.90052e-07 0)
(2.68697e-06 -7.54753e-07 0)
(2.82378e-06 -7.2168e-07 0)
(2.9575e-06 -6.90211e-07 0)
(3.08834e-06 -6.59761e-07 0)
(3.2165e-06 -6.29783e-07 0)
(3.34221e-06 -5.99731e-07 0)
(3.46567e-06 -5.69058e-07 0)
(3.58706e-06 -5.37261e-07 0)
(3.70656e-06 -5.03811e-07 0)
(3.82439e-06 -4.6813e-07 0)
(3.94073e-06 -4.29689e-07 0)
(4.05578e-06 -3.87829e-07 0)
(4.16985e-06 -3.41806e-07 0)
(4.28308e-06 -2.91186e-07 0)
(1.73478e-06 -1.10254e-06 0)
(1.88857e-06 -1.04601e-06 0)
(2.04026e-06 -9.94572e-07 0)
(2.18924e-06 -9.46919e-07 0)
(2.33534e-06 -9.02948e-07 0)
(2.4784e-06 -8.62166e-07 0)
(2.6184e-06 -8.24052e-07 0)
(2.7554e-06 -7.88071e-07 0)
(2.88951e-06 -7.53681e-07 0)
(3.02087e-06 -7.20354e-07 0)
(3.14965e-06 -6.87583e-07 0)
(3.27602e-06 -6.54848e-07 0)
(3.40017e-06 -6.21623e-07 0)
(3.52226e-06 -5.87436e-07 0)
(3.64248e-06 -5.51771e-07 0)
(3.76103e-06 -5.14089e-07 0)
(3.87811e-06 -4.73888e-07 0)
(3.99394e-06 -4.30558e-07 0)
(4.10883e-06 -3.83439e-07 0)
(4.22303e-06 -3.32164e-07 0)
(1.68074e-06 -1.17911e-06 0)
(1.83141e-06 -1.12288e-06 0)
(1.98064e-06 -1.07079e-06 0)
(2.12761e-06 -1.02182e-06 0)
(2.27227e-06 -9.76028e-07 0)
(2.41429e-06 -9.33055e-07 0)
(2.55364e-06 -8.92507e-07 0)
(2.69028e-06 -8.53959e-07 0)
(2.82429e-06 -8.16943e-07 0)
(2.95573e-06 -7.80993e-07 0)
(3.08474e-06 -7.45652e-07 0)
(3.21143e-06 -7.10433e-07 0)
(3.33598e-06 -6.74841e-07 0)
(3.45853e-06 -6.38442e-07 0)
(3.57925e-06 -6.00739e-07 0)
(3.69836e-06 -5.61249e-07 0)
(3.81604e-06 -5.19493e-07 0)
(3.93254e-06 -4.74922e-07 0)
(4.04817e-06 -4.26969e-07 0)
(4.16322e-06 -3.75318e-07 0)
(1.63245e-06 -1.25241e-06 0)
(1.77983e-06 -1.19673e-06 0)
(1.92629e-06 -1.14433e-06 0)
(2.07093e-06 -1.09446e-06 0)
(2.21372e-06 -1.04726e-06 0)
(2.35426e-06 -1.00249e-06 0)
(2.49251e-06 -9.59885e-07 0)
(2.62837e-06 -9.1911e-07 0)
(2.76186e-06 -8.7977e-07 0)
(2.89302e-06 -8.41463e-07 0)
(3.02191e-06 -8.03789e-07 0)
(3.14862e-06 -7.66298e-07 0)
(3.27331e-06 -7.28537e-07 0)
(3.39609e-06 -6.90121e-07 0)
(3.51714e-06 -6.50566e-07 0)
(3.63665e-06 -6.09456e-07 0)
(3.7548e-06 -5.66346e-07 0)
(3.87186e-06 -5.20749e-07 0)
(3.98814e-06 -4.72188e-07 0)
(4.1039e-06 -4.20382e-07 0)
(1.58885e-06 -1.32265e-06 0)
(1.73294e-06 -1.26766e-06 0)
(1.87646e-06 -1.21521e-06 0)
(2.01856e-06 -1.16474e-06 0)
(2.15917e-06 -1.11647e-06 0)
(2.29793e-06 -1.07025e-06 0)
(2.43474e-06 -1.02593e-06 0)
(2.56949e-06 -9.83252e-07 0)
(2.70214e-06 -9.41883e-07 0)
(2.83269e-06 -9.01491e-07 0)
(2.96118e-06 -8.61731e-07 0)
(3.08767e-06 -8.222e-07 0)
(3.21227e-06 -7.82485e-07 0)
(3.33511e-06 -7.42255e-07 0)
(3.45632e-06 -7.01052e-07 0)
(3.57609e-06 -6.58517e-07 0)
(3.69461e-06 -6.14253e-07 0)
(3.81214e-06 -5.67834e-07 0)
(3.92894e-06 -5.1886e-07 0)
(4.04531e-06 -4.67086e-07 0)
(1.54906e-06 -1.39004e-06 0)
(1.68986e-06 -1.33583e-06 0)
(1.83038e-06 -1.2835e-06 0)
(1.9698e-06 -1.23268e-06 0)
(2.10808e-06 -1.18361e-06 0)
(2.24485e-06 -1.13625e-06 0)
(2.38e-06 -1.09052e-06 0)
(2.51339e-06 -1.04623e-06 0)
(2.64496e-06 -1.00312e-06 0)
(2.77467e-06 -9.60907e-07 0)
(2.90254e-06 -9.19313e-07 0)
(3.02861e-06 -8.77976e-07 0)
(3.15296e-06 -8.36531e-07 0)
(3.27569e-06 -7.94695e-07 0)
(3.39694e-06 -7.52046e-07 0)
(3.51687e-06 -7.0828e-07 0)
(3.63565e-06 -6.63053e-07 0)
(3.75355e-06 -6.1599e-07 0)
(3.87076e-06 -5.66763e-07 0)
(3.98769e-06 -5.15185e-07 0)
(1.51225e-06 -1.4548e-06 0)
(1.64982e-06 -1.4014e-06 0)
(1.78736e-06 -1.34932e-06 0)
(1.92407e-06 -1.29831e-06 0)
(2.05993e-06 -1.24868e-06 0)
(2.1946e-06 -1.20043e-06 0)
(2.32795e-06 -1.15356e-06 0)
(2.45983e-06 -1.10793e-06 0)
(2.59014e-06 -1.06334e-06 0)
(2.71884e-06 -1.01957e-06 0)
(2.84593e-06 -9.76391e-07 0)
(2.97142e-06 -9.3348e-07 0)
(3.09539e-06 -8.90528e-07 0)
(3.21789e-06 -8.47295e-07 0)
(3.33906e-06 -8.03401e-07 0)
(3.45905e-06 -7.58593e-07 0)
(3.578e-06 -7.12578e-07 0)
(3.69616e-06 -6.65026e-07 0)
(3.8137e-06 -6.15686e-07 0)
(3.93108e-06 -5.64441e-07 0)
(1.47771e-06 -1.51716e-06 0)
(1.61216e-06 -1.46456e-06 0)
(1.74677e-06 -1.4128e-06 0)
(1.88079e-06 -1.36175e-06 0)
(2.01424e-06 -1.31174e-06 0)
(2.14675e-06 -1.26282e-06 0)
(2.27822e-06 -1.21503e-06 0)
(2.40848e-06 -1.16831e-06 0)
(2.53742e-06 -1.12248e-06 0)
(2.66501e-06 -1.0774e-06 0)
(2.7912e-06 -1.03287e-06 0)
(2.91601e-06 -9.88611e-07 0)
(3.03947e-06 -9.44366e-07 0)
(3.16166e-06 -8.99938e-07 0)
(3.28266e-06 -8.54989e-07 0)
(3.40262e-06 -8.09315e-07 0)
(3.52166e-06 -7.62665e-07 0)
(3.63999e-06 -7.14759e-07 0)
(3.75782e-06 -6.65432e-07 0)
(3.8755e-06 -6.14606e-07 0)
(1.4448e-06 -1.57731e-06 0)
(1.57626e-06 -1.5255e-06 0)
(1.70803e-06 -1.4741e-06 0)
(1.83944e-06 -1.42311e-06 0)
(1.9705e-06 -1.37287e-06 0)
(2.10086e-06 -1.32345e-06 0)
(2.23041e-06 -1.27495e-06 0)
(2.35901e-06 -1.22734e-06 0)
(2.48653e-06 -1.18051e-06 0)
(2.61294e-06 -1.13434e-06 0)
(2.73818e-06 -1.08867e-06 0)
(2.86224e-06 -1.04328e-06 0)
(2.98515e-06 -9.97952e-07 0)
(3.10697e-06 -9.52522e-07 0)
(3.22775e-06 -9.06699e-07 0)
(3.34762e-06 -8.60316e-07 0)
(3.46668e-06 -8.13166e-07 0)
(3.58512e-06 -7.6503e-07 0)
(3.70317e-06 -7.15816e-07 0)
(3.82107e-06 -6.65447e-07 0)
(1.413e-06 -1.63547e-06 0)
(1.54161e-06 -1.58438e-06 0)
(1.67065e-06 -1.53338e-06 0)
(1.79953e-06 -1.48253e-06 0)
(1.92824e-06 -1.43216e-06 0)
(2.05648e-06 -1.38239e-06 0)
(2.18414e-06 -1.33336e-06 0)
(2.31109e-06 -1.28506e-06 0)
(2.43721e-06 -1.23743e-06 0)
(2.56243e-06 -1.19037e-06 0)
(2.6867e-06 -1.14378e-06 0)
(2.80999e-06 -1.09747e-06 0)
(2.93233e-06 -1.05124e-06 0)
(3.05373e-06 -1.00499e-06 0)
(3.17423e-06 -9.58452e-07 0)
(3.29396e-06 -9.11499e-07 0)
(3.41298e-06 -8.63971e-07 0)
(3.53151e-06 -8.1571e-07 0)
(3.64964e-06 -7.66671e-07 0)
(3.76773e-06 -7.16797e-07 0)
(1.38178e-06 -1.69179e-06 0)
(1.50768e-06 -1.6414e-06 0)
(1.63411e-06 -1.59079e-06 0)
(1.76055e-06 -1.54012e-06 0)
(1.88701e-06 -1.48972e-06 0)
(2.01322e-06 -1.43973e-06 0)
(2.13907e-06 -1.39032e-06 0)
(2.26442e-06 -1.34151e-06 0)
(2.38917e-06 -1.29326e-06 0)
(2.51322e-06 -1.24551e-06 0)
(2.63653e-06 -1.19819e-06 0)
(2.75905e-06 -1.15112e-06 0)
(2.88079e-06 -1.10417e-06 0)
(3.00176e-06 -1.05726e-06 0)
(3.12197e-06 -1.01015e-06 0)
(3.24153e-06 -9.62748e-07 0)
(3.36047e-06 -9.14952e-07 0)
(3.47902e-06 -8.66644e-07 0)
(3.5972e-06 -8.17812e-07 0)
(3.7154e-06 -7.68477e-07 0)
(1.35061e-06 -1.74645e-06 0)
(1.47393e-06 -1.69669e-06 0)
(1.59788e-06 -1.64648e-06 0)
(1.72202e-06 -1.59604e-06 0)
(1.84637e-06 -1.54569e-06 0)
(1.97065e-06 -1.49559e-06 0)
(2.09481e-06 -1.44594e-06 0)
(2.21864e-06 -1.39678e-06 0)
(2.34209e-06 -1.34807e-06 0)
(2.46505e-06 -1.29979e-06 0)
(2.58746e-06 -1.2519e-06 0)
(2.70926e-06 -1.20426e-06 0)
(2.83045e-06 -1.15675e-06 0)
(2.951e-06 -1.10932e-06 0)
(3.07092e-06 -1.06175e-06 0)
(3.19029e-06 -1.01401e-06 0)
(3.30917e-06 -9.66035e-07 0)
(3.42767e-06 -9.17736e-07 0)
(3.54591e-06 -8.69151e-07 0)
(3.66414e-06 -8.20335e-07 0)
(1.31896e-06 -1.79958e-06 0)
(1.43984e-06 -1.75046e-06 0)
(1.56144e-06 -1.7006e-06 0)
(1.68345e-06 -1.65041e-06 0)
(1.80585e-06 -1.6002e-06 0)
(1.92838e-06 -1.5501e-06 0)
(2.05097e-06 -1.50033e-06 0)
(2.17345e-06 -1.45094e-06 0)
(2.29571e-06 -1.40193e-06 0)
(2.41766e-06 -1.35327e-06 0)
(2.53924e-06 -1.30497e-06 0)
(2.66038e-06 -1.25691e-06 0)
(2.78104e-06 -1.20897e-06 0)
(2.9012e-06 -1.16113e-06 0)
(3.02086e-06 -1.11322e-06 0)
(3.14007e-06 -1.06524e-06 0)
(3.25885e-06 -1.01714e-06 0)
(3.3773e-06 -9.68878e-07 0)
(3.49556e-06 -9.20557e-07 0)
(3.61381e-06 -8.72244e-07 0)
(1.2863e-06 -1.85139e-06 0)
(1.40481e-06 -1.80272e-06 0)
(1.52419e-06 -1.75331e-06 0)
(1.64436e-06 -1.70347e-06 0)
(1.76498e-06 -1.65344e-06 0)
(1.88598e-06 -1.60343e-06 0)
(2.00717e-06 -1.55364e-06 0)
(2.12845e-06 -1.50414e-06 0)
(2.24968e-06 -1.45493e-06 0)
(2.37077e-06 -1.40604e-06 0)
(2.49164e-06 -1.35747e-06 0)
(2.61221e-06 -1.3091e-06 0)
(2.73243e-06 -1.26085e-06 0)
(2.85226e-06 -1.21271e-06 0)
(2.97169e-06 -1.16456e-06 0)
(3.09078e-06 -1.1164e-06 0)
(3.20948e-06 -1.06821e-06 0)
(3.32793e-06 -1.02e-06 0)
(3.44612e-06 -9.71939e-07 0)
(3.56438e-06 -9.24084e-07 0)
(1.25187e-06 -1.90182e-06 0)
(1.36836e-06 -1.85368e-06 0)
(1.48593e-06 -1.8048e-06 0)
(1.60433e-06 -1.75532e-06 0)
(1.72344e-06 -1.70555e-06 0)
(1.84309e-06 -1.65571e-06 0)
(1.96312e-06 -1.60598e-06 0)
(2.08339e-06 -1.55648e-06 0)
(2.20378e-06 -1.50722e-06 0)
(2.32417e-06 -1.45821e-06 0)
(2.44447e-06 -1.40947e-06 0)
(2.56458e-06 -1.3609e-06 0)
(2.68444e-06 -1.31244e-06 0)
(2.80404e-06 -1.2641e-06 0)
(2.92332e-06 -1.21577e-06 0)
(3.04231e-06 -1.16748e-06 0)
(3.16094e-06 -1.11923e-06 0)
(3.27943e-06 -1.07106e-06 0)
(3.39764e-06 -1.02322e-06 0)
(3.51582e-06 -9.75809e-07 0)
(1.21519e-06 -1.95139e-06 0)
(1.32982e-06 -1.90383e-06 0)
(1.44577e-06 -1.85537e-06 0)
(1.56274e-06 -1.80628e-06 0)
(1.68063e-06 -1.75682e-06 0)
(1.79922e-06 -1.7072e-06 0)
(1.91837e-06 -1.65763e-06 0)
(2.03792e-06 -1.60821e-06 0)
(2.15771e-06 -1.55896e-06 0)
(2.27761e-06 -1.50992e-06 0)
(2.3975e-06 -1.46109e-06 0)
(2.5173e-06 -1.4124e-06 0)
(2.63695e-06 -1.36381e-06 0)
(2.75637e-06 -1.31535e-06 0)
(2.87555e-06 -1.26689e-06 0)
(2.99451e-06 -1.21845e-06 0)
(3.11322e-06 -1.17017e-06 0)
(3.23169e-06 -1.12203e-06 0)
(3.34998e-06 -1.07431e-06 0)
(3.46815e-06 -1.02726e-06 0)
(1.17582e-06 -1.99973e-06 0)
(1.28887e-06 -1.95282e-06 0)
(1.40347e-06 -1.90495e-06 0)
(1.51934e-06 -1.85635e-06 0)
(1.63632e-06 -1.80729e-06 0)
(1.75422e-06 -1.75799e-06 0)
(1.87282e-06 -1.70867e-06 0)
(1.99194e-06 -1.65943e-06 0)
(2.11139e-06 -1.61028e-06 0)
(2.23104e-06 -1.56124e-06 0)
(2.35075e-06 -1.51241e-06 0)
(2.47038e-06 -1.4637e-06 0)
(2.58992e-06 -1.41502e-06 0)
(2.70928e-06 -1.36645e-06 0)
(2.82842e-06 -1.31793e-06 0)
(2.94738e-06 -1.26942e-06 0)
(3.0662e-06 -1.22107e-06 0)
(3.18478e-06 -1.17289e-06 0)
(3.30324e-06 -1.1252e-06 0)
(3.4215e-06 -1.07836e-06 0)
(8.49994e-08 -1.69924e-06 0)
(2.56114e-07 -1.67431e-06 0)
(4.30518e-07 -1.62541e-06 0)
(6.10118e-07 -1.55455e-06 0)
(7.96364e-07 -1.46447e-06 0)
(9.90175e-07 -1.3585e-06 0)
(1.19189e-06 -1.2406e-06 0)
(1.40112e-06 -1.11475e-06 0)
(1.61732e-06 -9.85028e-07 0)
(1.83865e-06 -8.5458e-07 0)
(8.26693e-08 -1.72796e-06 0)
(2.48967e-07 -1.70517e-06 0)
(4.17972e-07 -1.66043e-06 0)
(5.91308e-07 -1.59548e-06 0)
(7.70198e-07 -1.51261e-06 0)
(9.55392e-07 -1.41468e-06 0)
(1.14724e-06 -1.30503e-06 0)
(1.34522e-06 -1.18716e-06 0)
(1.54866e-06 -1.06471e-06 0)
(1.75575e-06 -9.4072e-07 0)
(8.05825e-08 -1.75732e-06 0)
(2.42553e-07 -1.73648e-06 0)
(4.06728e-07 -1.69552e-06 0)
(5.74382e-07 -1.63593e-06 0)
(7.46583e-07 -1.55974e-06 0)
(9.23903e-07 -1.46942e-06 0)
(1.10673e-06 -1.36782e-06 0)
(1.29477e-06 -1.25793e-06 0)
(1.48756e-06 -1.14285e-06 0)
(1.68378e-06 -1.02487e-06 0)
(7.87369e-08 -1.7874e-06 0)
(2.36856e-07 -1.7682e-06 0)
(3.96853e-07 -1.73046e-06 0)
(5.59674e-07 -1.67548e-06 0)
(7.26261e-07 -1.60505e-06 0)
(8.97039e-07 -1.52132e-06 0)
(1.0723e-06 -1.42683e-06 0)
(1.25178e-06 -1.32424e-06 0)
(1.43505e-06 -1.21641e-06 0)
(1.62102e-06 -1.10529e-06 0)
(7.7054e-08 -1.81817e-06 0)
(2.31631e-07 -1.80046e-06 0)
(3.87793e-07 -1.76562e-06 0)
(5.46252e-07 -1.71479e-06 0)
(7.07812e-07 -1.64956e-06 0)
(8.72812e-07 -1.5719e-06 0)
(1.04151e-06 -1.48401e-06 0)
(1.21368e-06 -1.38817e-06 0)
(1.38899e-06 -1.287e-06 0)
(1.56623e-06 -1.18229e-06 0)
(7.54706e-08 -1.84961e-06 0)
(2.26813e-07 -1.83318e-06 0)
(3.79465e-07 -1.80085e-06 0)
(5.3403e-07 -1.75367e-06 0)
(6.91159e-07 -1.69303e-06 0)
(8.51135e-07 -1.62073e-06 0)
(1.0141e-06 -1.53878e-06 0)
(1.17985e-06 -1.44916e-06 0)
(1.3482e-06 -1.35428e-06 0)
(1.51785e-06 -1.25587e-06 0)
(7.39557e-08 -1.88167e-06 0)
(2.22238e-07 -1.86639e-06 0)
(3.71603e-07 -1.83631e-06 0)
(5.22593e-07 -1.7924e-06 0)
(6.75689e-07 -1.7359e-06 0)
(8.31178e-07 -1.66843e-06 0)
(9.8914e-07 -1.59185e-06 0)
(1.14932e-06 -1.50792e-06 0)
(1.31167e-06 -1.41879e-06 0)
(1.4748e-06 -1.32624e-06 0)
(7.25298e-08 -1.91429e-06 0)
(2.17859e-07 -1.90004e-06 0)
(3.6412e-07 -1.87195e-06 0)
(5.11783e-07 -1.83094e-06 0)
(6.61202e-07 -1.77813e-06 0)
(8.12622e-07 -1.715e-06 0)
(9.6612e-07 -1.64327e-06 0)
(1.1214e-06 -1.56454e-06 0)
(1.27852e-06 -1.48072e-06 0)
(1.43603e-06 -1.39362e-06 0)
(7.11386e-08 -1.94743e-06 0)
(2.13592e-07 -1.93409e-06 0)
(3.56878e-07 -1.9078e-06 0)
(5.01372e-07 -1.8694e-06 0)
(6.47374e-07 -1.81991e-06 0)
(7.95086e-07 -1.76069e-06 0)
(9.44556e-07 -1.69334e-06 0)
(1.09549e-06 -1.61934e-06 0)
(1.24799e-06 -1.54038e-06 0)
(1.40066e-06 -1.45828e-06 0)
(6.97348e-08 -1.98101e-06 0)
(2.09385e-07 -1.9685e-06 0)
(3.49779e-07 -1.94381e-06 0)
(4.91228e-07 -1.90775e-06 0)
(6.33989e-07 -1.86126e-06 0)
(7.78264e-07 -1.80557e-06 0)
(9.24052e-07 -1.74219e-06 0)
(1.07107e-06 -1.6725e-06 0)
(1.21946e-06 -1.59799e-06 0)
(1.36788e-06 -1.52045e-06 0)
(6.83193e-08 -2.01497e-06 0)
(2.05201e-07 -2.00322e-06 0)
(3.42719e-07 -1.97998e-06 0)
(4.81207e-07 -1.94603e-06 0)
(6.20849e-07 -1.90226e-06 0)
(7.61873e-07 -1.84977e-06 0)
(9.04251e-07 -1.78998e-06 0)
(1.0477e-06 -1.72421e-06 0)
(1.19237e-06 -1.65376e-06 0)
(1.33702e-06 -1.58039e-06 0)
(6.69077e-08 -2.04923e-06 0)
(2.00997e-07 -2.03818e-06 0)
(3.35617e-07 -2.01626e-06 0)
(4.71176e-07 -1.98421e-06 0)
(6.07788e-07 -1.9429e-06 0)
(7.4568e-07 -1.89333e-06 0)
(8.84841e-07 -1.83681e-06 0)
(1.02498e-06 -1.7746e-06 0)
(1.16625e-06 -1.70786e-06 0)
(1.30754e-06 -1.63829e-06 0)
(6.54814e-08 -2.08374e-06 0)
(1.96696e-07 -2.07331e-06 0)
(3.28374e-07 -2.05259e-06 0)
(4.60985e-07 -2.02228e-06 0)
(5.94609e-07 -1.98321e-06 0)
(7.29442e-07 -1.9363e-06 0)
(8.65514e-07 -1.88277e-06 0)
(1.00254e-06 -1.8238e-06 0)
(1.14067e-06 -1.76046e-06 0)
(1.27892e-06 -1.69436e-06 0)
(6.39985e-08 -2.11837e-06 0)
(1.92215e-07 -2.1085e-06 0)
(3.20883e-07 -2.0889e-06 0)
(4.50484e-07 -2.06019e-06 0)
(5.81105e-07 -2.02316e-06 0)
(7.12913e-07 -1.9787e-06 0)
(8.45971e-07 -1.9279e-06 0)
(9.80028e-07 -1.8719e-06 0)
(1.11522e-06 -1.8117e-06 0)
(1.25067e-06 -1.74877e-06 0)
(6.24266e-08 -2.15306e-06 0)
(1.87496e-07 -2.14369e-06 0)
(3.13048e-07 -2.12512e-06 0)
(4.39534e-07 -2.09789e-06 0)
(5.67084e-07 -2.06276e-06 0)
(6.95847e-07 -2.02054e-06 0)
(8.2591e-07 -1.97227e-06 0)
(9.57082e-07 -1.91902e-06 0)
(1.08945e-06 -1.8617e-06 0)
(1.22226e-06 -1.80167e-06 0)
(6.07541e-08 -2.18761e-06 0)
(1.825e-07 -2.17871e-06 0)
(3.04777e-07 -2.16111e-06 0)
(4.27998e-07 -2.13527e-06 0)
(5.52353e-07 -2.1019e-06 0)
(6.77993e-07 -2.06177e-06 0)
(8.05034e-07 -2.01585e-06 0)
(9.33344e-07 -1.96515e-06 0)
(1.06293e-06 -1.91051e-06 0)
(1.19322e-06 -1.85315e-06 0)
(5.89707e-08 -2.22199e-06 0)
(1.77168e-07 -2.21355e-06 0)
(2.95943e-07 -2.19685e-06 0)
(4.15695e-07 -2.17231e-06 0)
(5.36682e-07 -2.1406e-06 0)
(6.59068e-07 -2.10244e-06 0)
(7.82999e-07 -2.05874e-06 0)
(9.08367e-07 -2.01043e-06 0)
(1.03518e-06 -1.95828e-06 0)
(1.16297e-06 -1.90344e-06 0)
(5.70512e-08 -2.25588e-06 0)
(1.71412e-07 -2.24786e-06 0)
(2.864e-07 -2.23203e-06 0)
(4.02425e-07 -2.20874e-06 0)
(5.19807e-07 -2.17861e-06 0)
(6.3875e-07 -2.14233e-06 0)
(7.59415e-07 -2.10073e-06 0)
(8.81706e-07 -2.05469e-06 0)
(1.00571e-06 -2.00491e-06 0)
(1.13097e-06 -1.95244e-06 0)
(5.49476e-08 -2.28941e-06 0)
(1.65095e-07 -2.2818e-06 0)
(2.75935e-07 -2.2668e-06 0)
(3.87915e-07 -2.24472e-06 0)
(5.01391e-07 -2.21614e-06 0)
(6.1662e-07 -2.18167e-06 0)
(7.3378e-07 -2.1421e-06 0)
(8.52846e-07 -2.09823e-06 0)
(9.73866e-07 -2.05074e-06 0)
(1.09656e-06 -2.00056e-06 0)
(5.2637e-08 -2.32168e-06 0)
(1.58171e-07 -2.3145e-06 0)
(2.64467e-07 -2.30032e-06 0)
(3.7202e-07 -2.27945e-06 0)
(4.8125e-07 -2.2524e-06 0)
(5.92457e-07 -2.21975e-06 0)
(7.05833e-07 -2.1822e-06 0)
(8.21498e-07 -2.1405e-06 0)
(9.39393e-07 -2.09529e-06 0)
(1.05944e-06 -2.0474e-06 0)
)


// ************************************************************************* //
