/*--------------------------------*- C++ -*----------------------------------*\
| =========                 |                                                 |
| \\      /  F ield         | foam-extend: Open Source CFD                    |
|  \\    /   O peration     | Version:     4.1                                |
|   \\  /    A nd           | Web:         http://www.foam-extend.org         |
|    \\/     M anipulation  |                                                 |
\*---------------------------------------------------------------------------*/
FoamFile
{
    version     2.0;
    format      ascii;
    class       vectorField;
    location    "4";
    object      solidsCellD_iteration7;
}
// * * * * * * * * * * * * * * * * * * * * * * * * * * * * * * * * * * * * * //


1000
(
(1.99786e-06 -7.97765e-07 0)
(1.89078e-06 -7.45489e-07 0)
(1.82344e-06 -7.13646e-07 0)
(1.78586e-06 -7.00424e-07 0)
(1.76888e-06 -6.97991e-07 0)
(1.76702e-06 -7.03848e-07 0)
(1.77627e-06 -7.15167e-07 0)
(1.7938e-06 -7.30667e-07 0)
(1.81772e-06 -7.48876e-07 0)
(1.84527e-06 -7.6929e-07 0)
(1.80733e-06 -8.71546e-07 0)
(1.69324e-06 -8.36481e-07 0)
(1.62134e-06 -8.15611e-07 0)
(1.58034e-06 -8.09914e-07 0)
(1.56055e-06 -8.12531e-07 0)
(1.556e-06 -8.21991e-07 0)
(1.56259e-06 -8.35894e-07 0)
(1.57732e-06 -8.53302e-07 0)
(1.59816e-06 -8.72983e-07 0)
(1.62261e-06 -8.94427e-07 0)
(1.60905e-06 -9.41435e-07 0)
(1.49243e-06 -9.25596e-07 0)
(1.41886e-06 -9.16926e-07 0)
(1.37625e-06 -9.19432e-07 0)
(1.35485e-06 -9.27427e-07 0)
(1.34842e-06 -9.40597e-07 0)
(1.35288e-06 -9.57081e-07 0)
(1.36529e-06 -9.76252e-07 0)
(1.38355e-06 -9.97261e-07 0)
(1.40545e-06 -1.01947e-06 0)
(1.40456e-06 -1.00621e-06 0)
(1.29036e-06 -1.01049e-06 0)
(1.21823e-06 -1.01456e-06 0)
(1.17594e-06 -1.02556e-06 0)
(1.15413e-06 -1.03911e-06 0)
(1.14663e-06 -1.05604e-06 0)
(1.14944e-06 -1.07506e-06 0)
(1.15978e-06 -1.09595e-06 0)
(1.17566e-06 -1.11825e-06 0)
(1.19501e-06 -1.14133e-06 0)
(1.19531e-06 -1.06457e-06 0)
(1.08837e-06 -1.08876e-06 0)
(1.02076e-06 -1.10546e-06 0)
(9.8084e-07 -1.12483e-06 0)
(9.5988e-07 -1.14378e-06 0)
(9.52008e-07 -1.16438e-06 0)
(9.53593e-07 -1.18584e-06 0)
(9.62046e-07 -1.20842e-06 0)
(9.75599e-07 -1.23196e-06 0)
(9.92276e-07 -1.25598e-06 0)
(9.82257e-07 -1.11537e-06 0)
(8.87334e-07 -1.15815e-06 0)
(8.27322e-07 -1.18665e-06 0)
(7.91644e-07 -1.21385e-06 0)
(7.72646e-07 -1.23785e-06 0)
(7.6507e-07 -1.26186e-06 0)
(7.65851e-07 -1.28556e-06 0)
(7.72607e-07 -1.30971e-06 0)
(7.83811e-07 -1.3344e-06 0)
(7.9765e-07 -1.35937e-06 0)
(7.66523e-07 -1.15744e-06 0)
(6.87802e-07 -1.21651e-06 0)
(6.38026e-07 -1.25536e-06 0)
(6.08286e-07 -1.28941e-06 0)
(5.92301e-07 -1.31782e-06 0)
(5.85719e-07 -1.3448e-06 0)
(5.86014e-07 -1.37047e-06 0)
(5.91157e-07 -1.39602e-06 0)
(5.9993e-07 -1.42173e-06 0)
(6.10797e-07 -1.44758e-06 0)
(5.48845e-07 -1.18988e-06 0)
(4.89843e-07 -1.26204e-06 0)
(4.52561e-07 -1.30918e-06 0)
(4.30261e-07 -1.34868e-06 0)
(4.18196e-07 -1.38065e-06 0)
(4.13113e-07 -1.41003e-06 0)
(4.13125e-07 -1.4373e-06 0)
(4.16719e-07 -1.46397e-06 0)
(4.23015e-07 -1.49051e-06 0)
(4.30824e-07 -1.51708e-06 0)
(3.29853e-07 -1.21192e-06 0)
(2.93336e-07 -1.29322e-06 0)
(2.70281e-07 -1.34614e-06 0)
(2.56416e-07 -1.38951e-06 0)
(2.48858e-07 -1.42397e-06 0)
(2.45636e-07 -1.455e-06 0)
(2.4559e-07 -1.4834e-06 0)
(2.47734e-07 -1.51091e-06 0)
(2.51506e-07 -1.53805e-06 0)
(2.56199e-07 -1.56516e-06 0)
(1.10166e-07 -1.22303e-06 0)
(9.77908e-08 -1.30905e-06 0)
(8.99303e-08 -1.36496e-06 0)
(8.52238e-08 -1.4103e-06 0)
(8.26842e-08 -1.44603e-06 0)
(8.15621e-08 -1.47793e-06 0)
(8.14864e-08 -1.50689e-06 0)
(8.21876e-08 -1.53481e-06 0)
(8.34573e-08 -1.56225e-06 0)
(8.5017e-08 -1.58965e-06 0)
(3.10714e-06 -3.63615e-08 0)
(3.13415e-06 -2.63041e-08 0)
(3.15173e-06 -1.99929e-08 0)
(3.17125e-06 -1.6348e-08 0)
(3.19303e-06 -1.43963e-08 0)
(3.21961e-06 -1.35977e-08 0)
(3.25096e-06 -1.35667e-08 0)
(3.28723e-06 -1.40125e-08 0)
(3.32839e-06 -1.48642e-08 0)
(3.37389e-06 -1.587e-08 0)
(3.0844e-06 -1.09107e-07 0)
(3.10694e-06 -7.95264e-08 0)
(3.12174e-06 -6.09826e-08 0)
(3.13936e-06 -5.03511e-08 0)
(3.15989e-06 -4.47167e-08 0)
(3.18555e-06 -4.23738e-08 0)
(3.21627e-06 -4.23406e-08 0)
(3.25204e-06 -4.38207e-08 0)
(3.29273e-06 -4.63797e-08 0)
(3.33778e-06 -4.93272e-08 0)
(3.03892e-06 -1.82446e-07 0)
(3.05296e-06 -1.35013e-07 0)
(3.06239e-06 -1.05314e-07 0)
(3.07644e-06 -8.82425e-08 0)
(3.09462e-06 -7.92829e-08 0)
(3.11864e-06 -7.57268e-08 0)
(3.1481e-06 -7.5831e-08 0)
(3.18286e-06 -7.83376e-08 0)
(3.22267e-06 -8.25676e-08 0)
(3.26684e-06 -8.74843e-08 0)
(2.97151e-06 -2.56742e-07 0)
(2.97347e-06 -1.94026e-07 0)
(2.97522e-06 -1.54866e-07 0)
(2.98422e-06 -1.32474e-07 0)
(2.99901e-06 -1.20781e-07 0)
(3.02064e-06 -1.16287e-07 0)
(3.04835e-06 -1.16647e-07 0)
(3.08174e-06 -1.20264e-07 0)
(3.12033e-06 -1.26187e-07 0)
(3.1633e-06 -1.3308e-07 0)
(2.88315e-06 -3.32186e-07 0)
(2.87023e-06 -2.57659e-07 0)
(2.86248e-06 -2.11187e-07 0)
(2.86518e-06 -1.84854e-07 0)
(2.87579e-06 -1.71257e-07 0)
(2.89448e-06 -1.6631e-07 0)
(2.92e-06 -1.67198e-07 0)
(2.95164e-06 -1.72037e-07 0)
(2.98871e-06 -1.79624e-07 0)
(3.03025e-06 -1.88437e-07 0)
(2.77514e-06 -4.08835e-07 0)
(2.74533e-06 -3.26635e-07 0)
(2.72689e-06 -2.75413e-07 0)
(2.7225e-06 -2.46757e-07 0)
(2.72837e-06 -2.32274e-07 0)
(2.74369e-06 -2.27472e-07 0)
(2.76675e-06 -2.29171e-07 0)
(2.7964e-06 -2.35304e-07 0)
(2.83174e-06 -2.44511e-07 0)
(2.87169e-06 -2.55191e-07 0)
(2.64905e-06 -4.86543e-07 0)
(2.60137e-06 -4.01256e-07 0)
(2.57163e-06 -3.48163e-07 0)
(2.55974e-06 -3.1899e-07 0)
(2.56059e-06 -3.04698e-07 0)
(2.57234e-06 -3.00674e-07 0)
(2.59275e-06 -3.03499e-07 0)
(2.62026e-06 -3.11026e-07 0)
(2.65371e-06 -3.21841e-07 0)
(2.69202e-06 -3.34313e-07 0)
(2.50648e-06 -5.64926e-07 0)
(2.44109e-06 -4.81335e-07 0)
(2.40013e-06 -4.29378e-07 0)
(2.38076e-06 -4.01562e-07 0)
(2.37661e-06 -3.88595e-07 0)
(2.38474e-06 -3.8603e-07 0)
(2.40241e-06 -3.90333e-07 0)
(2.42772e-06 -3.9941e-07 0)
(2.45922e-06 -4.11827e-07 0)
(2.49583e-06 -4.26019e-07 0)
(2.34923e-06 -6.43456e-07 0)
(2.26736e-06 -5.66206e-07 0)
(2.216e-06 -5.18362e-07 0)
(2.1896e-06 -4.93758e-07 0)
(2.18068e-06 -4.83264e-07 0)
(2.18526e-06 -4.82834e-07 0)
(2.20015e-06 -4.89009e-07 0)
(2.22317e-06 -4.99784e-07 0)
(2.25255e-06 -5.13841e-07 0)
(2.28733e-06 -5.2951e-07 0)
(2.17911e-06 -7.21377e-07 0)
(2.08306e-06 -6.54751e-07 0)
(2.02271e-06 -6.13743e-07 0)
(1.99011e-06 -5.94117e-07 0)
(1.97687e-06 -5.87194e-07 0)
(1.97814e-06 -5.89592e-07 0)
(1.99042e-06 -5.98113e-07 0)
(2.01118e-06 -6.11028e-07 0)
(2.03861e-06 -6.26999e-07 0)
(2.07108e-06 -6.4495e-07 0)
(3.4237e-06 -1.68205e-08 0)
(3.47791e-06 -1.71207e-08 0)
(3.53547e-06 -1.74246e-08 0)
(3.59615e-06 -1.76559e-08 0)
(3.6596e-06 -1.78011e-08 0)
(3.72563e-06 -1.78571e-08 0)
(3.79392e-06 -1.78025e-08 0)
(3.86421e-06 -1.76622e-08 0)
(3.9363e-06 -1.74435e-08 0)
(4.01003e-06 -1.71149e-08 0)
(4.08517e-06 -1.6651e-08 0)
(4.16148e-06 -1.60495e-08 0)
(4.23879e-06 -1.53123e-08 0)
(4.31689e-06 -1.44379e-08 0)
(4.39562e-06 -1.34099e-08 0)
(4.47469e-06 -1.21985e-08 0)
(4.55397e-06 -1.07683e-08 0)
(4.63304e-06 -9.08783e-09 0)
(4.71194e-06 -7.12196e-09 0)
(4.78962e-06 -4.86556e-09 0)
(3.38918e-06 -5.20084e-08 0)
(3.44625e-06 -5.27072e-08 0)
(3.50636e-06 -5.34245e-08 0)
(3.56929e-06 -5.39501e-08 0)
(3.63477e-06 -5.42214e-08 0)
(3.70257e-06 -5.42682e-08 0)
(3.77246e-06 -5.40594e-08 0)
(3.84422e-06 -5.36056e-08 0)
(3.91768e-06 -5.28618e-08 0)
(3.99264e-06 -5.17708e-08 0)
(4.06891e-06 -5.03164e-08 0)
(4.14628e-06 -4.85022e-08 0)
(4.22461e-06 -4.63022e-08 0)
(4.30367e-06 -4.36724e-08 0)
(4.38328e-06 -4.05533e-08 0)
(4.46319e-06 -3.68819e-08 0)
(4.54329e-06 -3.25762e-08 0)
(4.62312e-06 -2.75527e-08 0)
(4.70279e-06 -2.16974e-08 0)
(4.78121e-06 -1.49652e-08 0)
(3.32132e-06 -9.14492e-08 0)
(3.38403e-06 -9.19192e-08 0)
(3.44921e-06 -9.24598e-08 0)
(3.5165e-06 -9.28411e-08 0)
(3.58589e-06 -9.2912e-08 0)
(3.65721e-06 -9.27078e-08 0)
(3.73032e-06 -9.21267e-08 0)
(3.80496e-06 -9.11527e-08 0)
(3.88103e-06 -8.97058e-08 0)
(3.95839e-06 -8.77339e-08 0)
(4.03688e-06 -8.5223e-08 0)
(4.11634e-06 -8.21521e-08 0)
(4.19661e-06 -7.84438e-08 0)
(4.27749e-06 -7.4009e-08 0)
(4.35882e-06 -6.87586e-08 0)
(4.4404e-06 -6.26018e-08 0)
(4.5221e-06 -5.54085e-08 0)
(4.60351e-06 -4.70498e-08 0)
(4.68471e-06 -3.73352e-08 0)
(4.76466e-06 -2.61658e-08 0)
(3.22216e-06 -1.3755e-07 0)
(3.2929e-06 -1.36778e-07 0)
(3.36538e-06 -1.36237e-07 0)
(3.43905e-06 -1.35804e-07 0)
(3.51422e-06 -1.35129e-07 0)
(3.59066e-06 -1.34242e-07 0)
(3.66839e-06 -1.32924e-07 0)
(3.74724e-06 -1.31142e-07 0)
(3.82721e-06 -1.28777e-07 0)
(3.90815e-06 -1.2577e-07 0)
(3.98995e-06 -1.22075e-07 0)
(4.07247e-06 -1.17623e-07 0)
(4.15558e-06 -1.12294e-07 0)
(4.23913e-06 -1.05981e-07 0)
(4.32301e-06 -9.85765e-08 0)
(4.40703e-06 -8.99339e-08 0)
(4.49107e-06 -7.9868e-08 0)
(4.57476e-06 -6.8195e-08 0)
(4.65817e-06 -5.46359e-08 0)
(4.74032e-06 -3.90713e-08 0)
(3.09461e-06 -1.9241e-07 0)
(3.17551e-06 -1.89125e-07 0)
(3.2573e-06 -1.8639e-07 0)
(3.33905e-06 -1.84302e-07 0)
(3.42156e-06 -1.82155e-07 0)
(3.50455e-06 -1.79984e-07 0)
(3.58827e-06 -1.77444e-07 0)
(3.67257e-06 -1.74486e-07 0)
(3.75752e-06 -1.70912e-07 0)
(3.84304e-06 -1.66624e-07 0)
(3.92908e-06 -1.61539e-07 0)
(4.01556e-06 -1.55545e-07 0)
(4.10239e-06 -1.48484e-07 0)
(4.18945e-06 -1.4022e-07 0)
(4.27666e-06 -1.30608e-07 0)
(4.36382e-06 -1.1945e-07 0)
(4.45092e-06 -1.06507e-07 0)
(4.53751e-06 -9.15442e-08 0)
(4.62382e-06 -7.41839e-08 0)
(4.70882e-06 -5.42858e-08 0)
(2.94227e-06 -2.57568e-07 0)
(3.03484e-06 -2.50302e-07 0)
(3.12754e-06 -2.44019e-07 0)
(3.21887e-06 -2.3922e-07 0)
(3.31016e-06 -2.34742e-07 0)
(3.40102e-06 -2.30601e-07 0)
(3.49188e-06 -2.26284e-07 0)
(3.5827e-06 -2.21667e-07 0)
(3.67363e-06 -2.16504e-07 0)
(3.76465e-06 -2.10648e-07 0)
(3.85581e-06 -2.03959e-07 0)
(3.94706e-06 -1.96266e-07 0)
(4.03836e-06 -1.87363e-07 0)
(4.12961e-06 -1.77073e-07 0)
(4.2208e-06 -1.65198e-07 0)
(4.31175e-06 -1.51498e-07 0)
(4.4025e-06 -1.35685e-07 0)
(4.49262e-06 -1.17475e-07 0)
(4.58241e-06 -9.63935e-08 0)
(4.67087e-06 -7.22389e-08 0)
(2.76934e-06 -3.33983e-07 0)
(2.87469e-06 -3.21211e-07 0)
(2.9795e-06 -3.10026e-07 0)
(3.08153e-06 -3.01388e-07 0)
(3.18261e-06 -2.9366e-07 0)
(3.28235e-06 -2.86754e-07 0)
(3.38128e-06 -2.80046e-07 0)
(3.4795e-06 -2.73271e-07 0)
(3.57725e-06 -2.66127e-07 0)
(3.67459e-06 -2.58392e-07 0)
(3.77161e-06 -2.49845e-07 0)
(3.86832e-06 -2.40242e-07 0)
(3.96471e-06 -2.29331e-07 0)
(4.06078e-06 -2.16897e-07 0)
(4.15653e-06 -2.02687e-07 0)
(4.25185e-06 -1.86423e-07 0)
(4.34681e-06 -1.67759e-07 0)
(4.44102e-06 -1.46344e-07 0)
(4.53479e-06 -1.21604e-07 0)
(4.6272e-06 -9.32739e-08 0)
(2.57995e-06 -4.21891e-07 0)
(2.6986e-06 -4.01944e-07 0)
(2.81618e-06 -3.84514e-07 0)
(2.92975e-06 -3.70765e-07 0)
(3.04146e-06 -3.58802e-07 0)
(3.15091e-06 -3.48284e-07 0)
(3.25877e-06 -3.38514e-07 0)
(3.36519e-06 -3.29054e-07 0)
(3.47049e-06 -3.1952e-07 0)
(3.5748e-06 -3.09579e-07 0)
(3.67828e-06 -2.98918e-07 0)
(3.78099e-06 -2.8722e-07 0)
(3.88301e-06 -2.74185e-07 0)
(3.9844e-06 -2.59548e-07 0)
(4.08521e-06 -2.43e-07 0)
(4.18538e-06 -2.24207e-07 0)
(4.28499e-06 -2.0275e-07 0)
(4.38372e-06 -1.78204e-07 0)
(4.48189e-06 -1.49896e-07 0)
(4.57868e-06 -1.175e-07 0)
(2.37842e-06 -5.21146e-07 0)
(2.51069e-06 -4.92559e-07 0)
(2.64128e-06 -4.67975e-07 0)
(2.76692e-06 -4.47989e-07 0)
(2.88972e-06 -4.30927e-07 0)
(3.00942e-06 -4.16029e-07 0)
(3.1267e-06 -4.0253e-07 0)
(3.24183e-06 -3.89821e-07 0)
(3.35516e-06 -3.77412e-07 0)
(3.46691e-06 -3.64853e-07 0)
(3.57729e-06 -3.51742e-07 0)
(3.68646e-06 -3.37694e-07 0)
(3.79454e-06 -3.22357e-07 0)
(3.90169e-06 -3.05402e-07 0)
(4.00795e-06 -2.86448e-07 0)
(4.11333e-06 -2.651e-07 0)
(4.21795e-06 -2.40856e-07 0)
(4.32153e-06 -2.13218e-07 0)
(4.42446e-06 -1.81428e-07 0)
(4.52601e-06 -1.45106e-07 0)
(2.16868e-06 -6.30323e-07 0)
(2.31536e-06 -5.90683e-07 0)
(2.45885e-06 -5.58025e-07 0)
(2.59706e-06 -5.30773e-07 0)
(2.73123e-06 -5.07746e-07 0)
(2.86159e-06 -4.87757e-07 0)
(2.98866e-06 -4.69946e-07 0)
(3.11284e-06 -4.53551e-07 0)
(3.23452e-06 -4.37942e-07 0)
(3.354e-06 -4.22544e-07 0)
(3.47156e-06 -4.0685e-07 0)
(3.58742e-06 -3.90394e-07 0)
(3.7018e-06 -3.72748e-07 0)
(3.81487e-06 -3.53508e-07 0)
(3.92674e-06 -3.32219e-07 0)
(4.03747e-06 -3.08421e-07 0)
(4.14722e-06 -2.81536e-07 0)
(4.2558e-06 -2.5098e-07 0)
(4.36363e-06 -2.1592e-07 0)
(4.47017e-06 -1.75892e-07 0)
(2.00973e-06 -7.37983e-07 0)
(2.1676e-06 -6.883e-07 0)
(2.31971e-06 -6.49049e-07 0)
(2.46634e-06 -6.156e-07 0)
(2.60808e-06 -5.87056e-07 0)
(2.74551e-06 -5.62116e-07 0)
(2.87913e-06 -5.39851e-07 0)
(3.0094e-06 -5.1945e-07 0)
(3.13674e-06 -5.0021e-07 0)
(3.26145e-06 -4.81492e-07 0)
(3.38387e-06 -4.62739e-07 0)
(3.50422e-06 -4.43436e-07 0)
(3.62278e-06 -4.23102e-07 0)
(3.73974e-06 -4.01279e-07 0)
(3.85522e-06 -3.77467e-07 0)
(3.96935e-06 -3.51155e-07 0)
(4.0823e-06 -3.21742e-07 0)
(4.19401e-06 -2.88595e-07 0)
(4.3049e-06 -2.50868e-07 0)
(4.41459e-06 -2.08036e-07 0)
(1.92038e-06 -8.27081e-07 0)
(2.07936e-06 -7.75217e-07 0)
(2.23293e-06 -7.31964e-07 0)
(2.38188e-06 -6.94436e-07 0)
(2.52627e-06 -6.61793e-07 0)
(2.66645e-06 -6.32901e-07 0)
(2.80283e-06 -6.06858e-07 0)
(2.93577e-06 -5.8287e-07 0)
(3.06561e-06 -5.60233e-07 0)
(3.19266e-06 -5.38311e-07 0)
(3.31722e-06 -5.16541e-07 0)
(3.43953e-06 -4.94393e-07 0)
(3.55986e-06 -4.71372e-07 0)
(3.67841e-06 -4.46996e-07 0)
(3.79528e-06 -4.2076e-07 0)
(3.91069e-06 -3.9214e-07 0)
(4.02477e-06 -3.60551e-07 0)
(4.13761e-06 -3.25367e-07 0)
(4.24955e-06 -2.85779e-07 0)
(4.36038e-06 -2.41236e-07 0)
(1.84552e-06 -9.11683e-07 0)
(2.00274e-06 -8.58948e-07 0)
(2.15611e-06 -8.13403e-07 0)
(2.30555e-06 -7.72932e-07 0)
(2.45103e-06 -7.36974e-07 0)
(2.59263e-06 -7.04642e-07 0)
(2.73064e-06 -6.75148e-07 0)
(2.86528e-06 -6.47779e-07 0)
(2.99681e-06 -6.21869e-07 0)
(3.12551e-06 -5.96816e-07 0)
(3.25165e-06 -5.72064e-07 0)
(3.37543e-06 -5.47087e-07 0)
(3.49713e-06 -5.21385e-07 0)
(3.61692e-06 -4.94471e-07 0)
(3.73493e-06 -4.65844e-07 0)
(3.8514e-06 -4.34979e-07 0)
(3.96646e-06 -4.0132e-07 0)
(4.08029e-06 -3.64267e-07 0)
(4.19317e-06 -3.23044e-07 0)
(4.30506e-06 -2.77103e-07 0)
(1.78004e-06 -9.93125e-07 0)
(1.93491e-06 -9.40088e-07 0)
(2.08696e-06 -8.92921e-07 0)
(2.23578e-06 -8.50128e-07 0)
(2.38124e-06 -8.11392e-07 0)
(2.52326e-06 -7.76047e-07 0)
(2.662e-06 -7.43446e-07 0)
(2.79756e-06 -7.12963e-07 0)
(2.93013e-06 -6.83991e-07 0)
(3.05992e-06 -6.55972e-07 0)
(3.18716e-06 -6.28376e-07 0)
(3.31203e-06 -6.00689e-07 0)
(3.43476e-06 -5.7242e-07 0)
(3.55553e-06 -5.43086e-07 0)
(3.67447e-06 -5.12197e-07 0)
(3.79184e-06 -4.79244e-07 0)
(3.90777e-06 -4.43704e-07 0)
(4.02247e-06 -4.05008e-07 0)
(4.13622e-06 -3.62419e-07 0)
(4.24911e-06 -3.15447e-07 0)
(1.72261e-06 -1.0711e-06 0)
(1.87464e-06 -1.0182e-06 0)
(2.02467e-06 -9.70078e-07 0)
(2.17207e-06 -9.25612e-07 0)
(2.3167e-06 -8.84681e-07 0)
(2.45836e-06 -8.46816e-07 0)
(2.59709e-06 -8.11509e-07 0)
(2.7329e-06 -7.78231e-07 0)
(2.86591e-06 -7.46456e-07 0)
(2.99629e-06 -7.1568e-07 0)
(3.1242e-06 -6.85409e-07 0)
(3.24977e-06 -6.55156e-07 0)
(3.37323e-06 -6.24448e-07 0)
(3.49474e-06 -5.92824e-07 0)
(3.61441e-06 -5.59808e-07 0)
(3.73252e-06 -5.24919e-07 0)
(3.84918e-06 -4.87665e-07 0)
(3.96466e-06 -4.47513e-07 0)
(4.07919e-06 -4.0379e-07 0)
(4.193e-06 -3.56121e-07 0)
(1.67167e-06 -1.14581e-06 0)
(1.82065e-06 -1.09333e-06 0)
(1.96828e-06 -1.04468e-06 0)
(2.11374e-06 -9.99014e-07 0)
(2.25697e-06 -9.56363e-07 0)
(2.39767e-06 -9.16412e-07 0)
(2.53581e-06 -8.78783e-07 0)
(2.67134e-06 -8.43048e-07 0)
(2.80431e-06 -8.0876e-07 0)
(2.93484e-06 -7.75476e-07 0)
(3.06303e-06 -7.42747e-07 0)
(3.18898e-06 -7.10118e-07 0)
(3.31288e-06 -6.77148e-07 0)
(3.43488e-06 -6.43401e-07 0)
(3.5551e-06 -6.08424e-07 0)
(3.67379e-06 -5.71774e-07 0)
(3.79106e-06 -5.32989e-07 0)
(3.90719e-06 -4.91582e-07 0)
(4.02242e-06 -4.46976e-07 0)
(4.13705e-06 -3.98898e-07 0)
(1.62615e-06 -1.21743e-06 0)
(1.77197e-06 -1.16555e-06 0)
(1.91693e-06 -1.11668e-06 0)
(2.06013e-06 -1.07021e-06 0)
(2.20158e-06 -1.02626e-06 0)
(2.34089e-06 -9.8462e-07 0)
(2.47801e-06 -9.45039e-07 0)
(2.61283e-06 -9.07184e-07 0)
(2.74537e-06 -8.7068e-07 0)
(2.87567e-06 -8.35151e-07 0)
(3.0038e-06 -8.00195e-07 0)
(3.12983e-06 -7.65398e-07 0)
(3.25394e-06 -7.30356e-07 0)
(3.37622e-06 -6.94664e-07 0)
(3.49679e-06 -6.57896e-07 0)
(3.61591e-06 -6.19655e-07 0)
(3.73365e-06 -5.79515e-07 0)
(3.85034e-06 -5.3705e-07 0)
(3.9662e-06 -4.91797e-07 0)
(4.08153e-06 -4.43495e-07 0)
(1.58506e-06 -1.28614e-06 0)
(1.72773e-06 -1.23498e-06 0)
(1.86989e-06 -1.18613e-06 0)
(2.01065e-06 -1.13915e-06 0)
(2.15004e-06 -1.09423e-06 0)
(2.28766e-06 -1.05124e-06 0)
(2.42344e-06 -1.01004e-06 0)
(2.55723e-06 -9.7038e-07 0)
(2.689e-06 -9.31946e-07 0)
(2.81877e-06 -8.94435e-07 0)
(2.94657e-06 -8.57494e-07 0)
(3.07243e-06 -8.20751e-07 0)
(3.19651e-06 -7.83836e-07 0)
(3.31888e-06 -7.46389e-07 0)
(3.43966e-06 -7.08012e-07 0)
(3.55906e-06 -6.68356e-07 0)
(3.67718e-06 -6.27049e-07 0)
(3.79433e-06 -5.83727e-07 0)
(3.91071e-06 -5.38019e-07 0)
(4.02663e-06 -4.89625e-07 0)
(1.54752e-06 -1.35217e-06 0)
(1.68709e-06 -1.30179e-06 0)
(1.82641e-06 -1.25312e-06 0)
(1.96465e-06 -1.20586e-06 0)
(2.10182e-06 -1.16023e-06 0)
(2.23756e-06 -1.11619e-06 0)
(2.37178e-06 -1.07366e-06 0)
(2.50429e-06 -1.03247e-06 0)
(2.63505e-06 -9.92385e-07 0)
(2.76405e-06 -9.5315e-07 0)
(2.89129e-06 -9.14465e-07 0)
(3.01679e-06 -8.76001e-07 0)
(3.14067e-06 -8.37423e-07 0)
(3.26297e-06 -7.98413e-07 0)
(3.38381e-06 -7.58616e-07 0)
(3.50338e-06 -7.17731e-07 0)
(3.62178e-06 -6.75446e-07 0)
(3.73931e-06 -6.3145e-07 0)
(3.85611e-06 -5.85413e-07 0)
(3.97254e-06 -5.37083e-07 0)
(1.51279e-06 -1.41574e-06 0)
(1.64932e-06 -1.36617e-06 0)
(1.78583e-06 -1.31778e-06 0)
(1.92151e-06 -1.27039e-06 0)
(2.0564e-06 -1.22426e-06 0)
(2.19015e-06 -1.1794e-06 0)
(2.32267e-06 -1.1358e-06 0)
(2.45375e-06 -1.09336e-06 0)
(2.58334e-06 -1.05187e-06 0)
(2.7114e-06 -1.01116e-06 0)
(2.83792e-06 -9.7097e-07 0)
(2.96289e-06 -9.31007e-07 0)
(3.08642e-06 -8.90977e-07 0)
(3.20853e-06 -8.50603e-07 0)
(3.32932e-06 -8.09578e-07 0)
(3.44897e-06 -7.67651e-07 0)
(3.56755e-06 -7.24563e-07 0)
(3.68536e-06 -6.80035e-07 0)
(3.80249e-06 -6.33768e-07 0)
(3.91933e-06 -5.85668e-07 0)
(1.48019e-06 -1.47705e-06 0)
(1.61379e-06 -1.42829e-06 0)
(1.74755e-06 -1.38024e-06 0)
(1.88069e-06 -1.33285e-06 0)
(2.0133e-06 -1.28638e-06 0)
(2.14502e-06 -1.2409e-06 0)
(2.27576e-06 -1.19646e-06 0)
(2.40532e-06 -1.15299e-06 0)
(2.53362e-06 -1.11036e-06 0)
(2.66063e-06 -1.0684e-06 0)
(2.78632e-06 -1.02692e-06 0)
(2.91065e-06 -9.8567e-07 0)
(3.03372e-06 -9.44385e-07 0)
(3.15553e-06 -9.0284e-07 0)
(3.27618e-06 -8.60771e-07 0)
(3.39583e-06 -8.17975e-07 0)
(3.51452e-06 -7.74225e-07 0)
(3.63251e-06 -7.2927e-07 0)
(3.74991e-06 -6.82901e-07 0)
(3.86706e-06 -6.35104e-07 0)
(1.44914e-06 -1.53632e-06 0)
(1.57993e-06 -1.48832e-06 0)
(1.71101e-06 -1.44065e-06 0)
(1.8417e-06 -1.39334e-06 0)
(1.97205e-06 -1.34668e-06 0)
(2.10175e-06 -1.30075e-06 0)
(2.23068e-06 -1.25566e-06 0)
(2.35867e-06 -1.21137e-06 0)
(2.48564e-06 -1.1678e-06 0)
(2.61154e-06 -1.12481e-06 0)
(2.73632e-06 -1.08224e-06 0)
(2.85994e-06 -1.03989e-06 0)
(2.98249e-06 -9.9754e-07 0)
(3.10395e-06 -9.55014e-07 0)
(3.22439e-06 -9.12086e-07 0)
(3.34397e-06 -8.68576e-07 0)
(3.46269e-06 -8.24286e-07 0)
(3.58079e-06 -7.79007e-07 0)
(3.69839e-06 -7.32674e-07 0)
(3.81579e-06 -6.85179e-07 0)
(1.41914e-06 -1.59372e-06 0)
(1.54725e-06 -1.54642e-06 0)
(1.67576e-06 -1.49915e-06 0)
(1.80408e-06 -1.45199e-06 0)
(1.93223e-06 -1.40524e-06 0)
(2.05993e-06 -1.35901e-06 0)
(2.18708e-06 -1.31343e-06 0)
(2.31351e-06 -1.26849e-06 0)
(2.43914e-06 -1.22417e-06 0)
(2.56391e-06 -1.18033e-06 0)
(2.68776e-06 -1.13688e-06 0)
(2.81064e-06 -1.09363e-06 0)
(2.93262e-06 -1.05042e-06 0)
(3.05368e-06 -1.0071e-06 0)
(3.17388e-06 -9.63466e-07 0)
(3.29333e-06 -9.19369e-07 0)
(3.41201e-06 -8.74646e-07 0)
(3.53018e-06 -8.29162e-07 0)
(3.64789e-06 -7.82916e-07 0)
(3.76546e-06 -7.35769e-07 0)
(1.38972e-06 -1.64939e-06 0)
(1.51528e-06 -1.60277e-06 0)
(1.64134e-06 -1.5559e-06 0)
(1.76738e-06 -1.50893e-06 0)
(1.8934e-06 -1.46217e-06 0)
(2.01918e-06 -1.41574e-06 0)
(2.14462e-06 -1.36983e-06 0)
(2.26954e-06 -1.32442e-06 0)
(2.39386e-06 -1.27952e-06 0)
(2.51751e-06 -1.23503e-06 0)
(2.64042e-06 -1.19086e-06 0)
(2.76256e-06 -1.14689e-06 0)
(2.88397e-06 -1.10298e-06 0)
(3.00462e-06 -1.059e-06 0)
(3.12453e-06 -1.01479e-06 0)
(3.24379e-06 -9.70215e-07 0)
(3.3624e-06 -9.25166e-07 0)
(3.4806e-06 -8.79587e-07 0)
(3.59838e-06 -8.33407e-07 0)
(3.71606e-06 -7.86658e-07 0)
(1.3604e-06 -1.70351e-06 0)
(1.48354e-06 -1.65751e-06 0)
(1.60727e-06 -1.61103e-06 0)
(1.73112e-06 -1.56429e-06 0)
(1.85514e-06 -1.51759e-06 0)
(1.97911e-06 -1.47109e-06 0)
(2.10293e-06 -1.42496e-06 0)
(2.22642e-06 -1.37922e-06 0)
(2.34949e-06 -1.33387e-06 0)
(2.47208e-06 -1.28887e-06 0)
(2.59411e-06 -1.24416e-06 0)
(2.71553e-06 -1.19965e-06 0)
(2.8364e-06 -1.1552e-06 0)
(2.95663e-06 -1.11071e-06 0)
(3.07622e-06 -1.06604e-06 0)
(3.19529e-06 -1.02109e-06 0)
(3.31382e-06 -9.75827e-07 0)
(3.43199e-06 -9.30191e-07 0)
(3.54983e-06 -8.84119e-07 0)
(3.66755e-06 -8.37715e-07 0)
(1.33069e-06 -1.75623e-06 0)
(1.45153e-06 -1.71082e-06 0)
(1.57303e-06 -1.66467e-06 0)
(1.69488e-06 -1.61818e-06 0)
(1.81705e-06 -1.57163e-06 0)
(1.93936e-06 -1.52515e-06 0)
(2.06169e-06 -1.4789e-06 0)
(2.18385e-06 -1.43296e-06 0)
(2.30576e-06 -1.38732e-06 0)
(2.42737e-06 -1.34196e-06 0)
(2.5486e-06 -1.29686e-06 0)
(2.66937e-06 -1.25194e-06 0)
(2.78971e-06 -1.20707e-06 0)
(2.90952e-06 -1.16218e-06 0)
(3.02881e-06 -1.11715e-06 0)
(3.1477e-06 -1.07195e-06 0)
(3.26614e-06 -1.02655e-06 0)
(3.38427e-06 -9.8083e-07 0)
(3.50209e-06 -9.34906e-07 0)
(3.61982e-06 -8.88832e-07 0)
(1.30011e-06 -1.80769e-06 0)
(1.4187e-06 -1.76271e-06 0)
(1.53809e-06 -1.71699e-06 0)
(1.65819e-06 -1.67085e-06 0)
(1.7787e-06 -1.62447e-06 0)
(1.89953e-06 -1.57807e-06 0)
(2.02051e-06 -1.5318e-06 0)
(2.1415e-06 -1.48575e-06 0)
(2.2624e-06 -1.43994e-06 0)
(2.38317e-06 -1.39436e-06 0)
(2.50369e-06 -1.349e-06 0)
(2.62388e-06 -1.30377e-06 0)
(2.74372e-06 -1.25859e-06 0)
(2.86315e-06 -1.21341e-06 0)
(2.98219e-06 -1.16815e-06 0)
(3.10094e-06 -1.12277e-06 0)
(3.21926e-06 -1.07722e-06 0)
(3.33731e-06 -1.03146e-06 0)
(3.45508e-06 -9.85688e-07 0)
(3.57288e-06 -9.39904e-07 0)
(1.26792e-06 -1.85784e-06 0)
(1.3846e-06 -1.81337e-06 0)
(1.50229e-06 -1.76816e-06 0)
(1.62071e-06 -1.72234e-06 0)
(1.73976e-06 -1.67623e-06 0)
(1.85928e-06 -1.62997e-06 0)
(1.97911e-06 -1.58377e-06 0)
(2.09912e-06 -1.53772e-06 0)
(2.21921e-06 -1.49185e-06 0)
(2.33928e-06 -1.44615e-06 0)
(2.45919e-06 -1.40062e-06 0)
(2.57885e-06 -1.3552e-06 0)
(2.69829e-06 -1.30982e-06 0)
(2.81746e-06 -1.26445e-06 0)
(2.9363e-06 -1.21901e-06 0)
(3.05483e-06 -1.17349e-06 0)
(3.173e-06 -1.12782e-06 0)
(3.29106e-06 -1.08209e-06 0)
(3.40885e-06 -1.03641e-06 0)
(3.5265e-06 -9.90879e-07 0)
(1.2337e-06 -1.90722e-06 0)
(1.34865e-06 -1.86329e-06 0)
(1.46479e-06 -1.81846e-06 0)
(1.58185e-06 -1.773e-06 0)
(1.69969e-06 -1.72715e-06 0)
(1.81816e-06 -1.68111e-06 0)
(1.93714e-06 -1.63506e-06 0)
(2.05645e-06 -1.58908e-06 0)
(2.17592e-06 -1.5432e-06 0)
(2.29542e-06 -1.49745e-06 0)
(2.41487e-06 -1.45184e-06 0)
(2.53421e-06 -1.4063e-06 0)
(2.6534e-06 -1.36079e-06 0)
(2.77227e-06 -1.3153e-06 0)
(2.89087e-06 -1.26972e-06 0)
(3.00932e-06 -1.22406e-06 0)
(3.12744e-06 -1.17834e-06 0)
(3.24539e-06 -1.1326e-06 0)
(3.36318e-06 -1.08697e-06 0)
(3.48082e-06 -1.04163e-06 0)
(1.19702e-06 -1.9554e-06 0)
(1.31045e-06 -1.91211e-06 0)
(1.42529e-06 -1.86782e-06 0)
(1.54126e-06 -1.8228e-06 0)
(1.65823e-06 -1.77733e-06 0)
(1.77604e-06 -1.73159e-06 0)
(1.89447e-06 -1.68574e-06 0)
(2.01328e-06 -1.63991e-06 0)
(2.13234e-06 -1.5941e-06 0)
(2.25158e-06 -1.54836e-06 0)
(2.37081e-06 -1.50273e-06 0)
(2.48987e-06 -1.45716e-06 0)
(2.60882e-06 -1.41155e-06 0)
(2.72757e-06 -1.36594e-06 0)
(2.84602e-06 -1.3203e-06 0)
(2.9643e-06 -1.27455e-06 0)
(3.08239e-06 -1.2288e-06 0)
(3.20028e-06 -1.18299e-06 0)
(3.31809e-06 -1.13735e-06 0)
(3.43568e-06 -1.09204e-06 0)
(8.49049e-08 -1.61753e-06 0)
(2.55733e-07 -1.59423e-06 0)
(4.29547e-07 -1.5484e-06 0)
(6.08037e-07 -1.4821e-06 0)
(7.9252e-07 -1.39771e-06 0)
(9.83808e-07 -1.29849e-06 0)
(1.18219e-06 -1.18804e-06 0)
(1.3873e-06 -1.07009e-06 0)
(1.59877e-06 -9.48352e-07 0)
(1.81456e-06 -8.25636e-07 0)
(8.28021e-08 -1.64664e-06 0)
(2.49264e-07 -1.62538e-06 0)
(4.18152e-07 -1.5835e-06 0)
(5.90876e-07 -1.5228e-06 0)
(7.68516e-07 -1.44527e-06 0)
(9.51725e-07 -1.35368e-06 0)
(1.14073e-06 -1.25109e-06 0)
(1.3351e-06 -1.14076e-06 0)
(1.53413e-06 -1.02605e-06 0)
(1.73596e-06 -9.09875e-07 0)
(8.08641e-08 -1.67654e-06 0)
(2.43301e-07 -1.65714e-06 0)
(4.07665e-07 -1.61881e-06 0)
(5.75064e-07 -1.56319e-06 0)
(7.46404e-07 -1.49199e-06 0)
(9.22184e-07 -1.40757e-06 0)
(1.10264e-06 -1.3126e-06 0)
(1.28757e-06 -1.20981e-06 0)
(1.47642e-06 -1.10217e-06 0)
(1.66792e-06 -9.91896e-07 0)
(7.9108e-08 -1.70718e-06 0)
(2.37913e-07 -1.68933e-06 0)
(3.98321e-07 -1.65403e-06 0)
(5.61159e-07 -1.60272e-06 0)
(7.2721e-07 -1.53693e-06 0)
(8.96826e-07 -1.4587e-06 0)
(1.07017e-06 -1.37044e-06 0)
(1.24705e-06 -1.27456e-06 0)
(1.42692e-06 -1.17388e-06 0)
(1.60877e-06 -1.07023e-06 0)
(7.74985e-08 -1.73854e-06 0)
(2.32908e-07 -1.72209e-06 0)
(3.89668e-07 -1.68949e-06 0)
(5.48367e-07 -1.64206e-06 0)
(7.09671e-07 -1.58117e-06 0)
(8.73848e-07 -1.50863e-06 0)
(1.04103e-06 -1.42659e-06 0)
(1.21106e-06 -1.33712e-06 0)
(1.38347e-06 -1.24281e-06 0)
(1.55713e-06 -1.14533e-06 0)
(7.59872e-08 -1.77056e-06 0)
(2.28261e-07 -1.75531e-06 0)
(3.81658e-07 -1.72508e-06 0)
(5.36639e-07 -1.68106e-06 0)
(6.93739e-07 -1.62448e-06 0)
(8.53186e-07 -1.55697e-06 0)
(1.015e-06 -1.48053e-06 0)
(1.17903e-06 -1.39695e-06 0)
(1.34496e-06 -1.30863e-06 0)
(1.51154e-06 -1.21717e-06 0)
(7.45182e-08 -1.80321e-06 0)
(2.23831e-07 -1.78902e-06 0)
(3.74057e-07 -1.76093e-06 0)
(5.2561e-07 -1.71994e-06 0)
(6.78883e-07 -1.66724e-06 0)
(8.34095e-07 -1.6043e-06 0)
(9.91237e-07 -1.53291e-06 0)
(1.15007e-06 -1.45472e-06 0)
(1.31043e-06 -1.37186e-06 0)
(1.47094e-06 -1.28597e-06 0)
(7.31239e-08 -1.8364e-06 0)
(2.19581e-07 -1.82316e-06 0)
(3.66793e-07 -1.79696e-06 0)
(5.15151e-07 -1.75867e-06 0)
(6.64935e-07 -1.70945e-06 0)
(8.16305e-07 -1.6506e-06 0)
(9.69276e-07 -1.58379e-06 0)
(1.12353e-06 -1.51053e-06 0)
(1.27904e-06 -1.43268e-06 0)
(1.43435e-06 -1.35195e-06 0)
(7.17826e-08 -1.87008e-06 0)
(2.15439e-07 -1.85769e-06 0)
(3.59758e-07 -1.8332e-06 0)
(5.05074e-07 -1.79735e-06 0)
(6.51604e-07 -1.75127e-06 0)
(7.99475e-07 -1.69613e-06 0)
(9.48676e-07 -1.63346e-06 0)
(1.09887e-06 -1.56466e-06 0)
(1.2501e-06 -1.49139e-06 0)
(1.40093e-06 -1.41537e-06 0)
(7.04353e-08 -1.90421e-06 0)
(2.1135e-07 -1.89256e-06 0)
(3.52868e-07 -1.8696e-06 0)
(4.95268e-07 -1.83597e-06 0)
(6.38705e-07 -1.79273e-06 0)
(7.83327e-07 -1.74093e-06 0)
(9.29075e-07 -1.68201e-06 0)
(1.0756e-06 -1.61728e-06 0)
(1.22302e-06 -1.54821e-06 0)
(1.36995e-06 -1.4765e-06 0)
(6.90626e-08 -1.93871e-06 0)
(2.07285e-07 -1.92772e-06 0)
(3.46037e-07 -1.90616e-06 0)
(4.85594e-07 -1.87455e-06 0)
(6.26058e-07 -1.83388e-06 0)
(7.67599e-07 -1.78511e-06 0)
(9.1014e-07 -1.72959e-06 0)
(1.05333e-06 -1.66857e-06 0)
(1.1973e-06 -1.60334e-06 0)
(1.34078e-06 -1.53554e-06 0)
(6.76864e-08 -1.97348e-06 0)
(2.03222e-07 -1.96311e-06 0)
(3.39198e-07 -1.94283e-06 0)
(4.75937e-07 -1.91304e-06 0)
(6.13514e-07 -1.87471e-06 0)
(7.52081e-07 -1.82871e-06 0)
(8.9159e-07 -1.7763e-06 0)
(1.0317e-06 -1.71866e-06 0)
(1.1725e-06 -1.65692e-06 0)
(1.3129e-06 -1.59267e-06 0)
(6.63082e-08 -2.00846e-06 0)
(1.99098e-07 -1.99868e-06 0)
(3.32262e-07 -1.97956e-06 0)
(4.66167e-07 -1.95145e-06 0)
(6.00898e-07 -1.91524e-06 0)
(7.36561e-07 -1.87178e-06 0)
(8.73157e-07 -1.82222e-06 0)
(1.01035e-06 -1.76765e-06 0)
(1.14824e-06 -1.7091e-06 0)
(1.28585e-06 -1.6481e-06 0)
(6.48929e-08 -2.04358e-06 0)
(1.94825e-07 -2.03433e-06 0)
(3.25122e-07 -2.01627e-06 0)
(4.5615e-07 -1.9897e-06 0)
(5.88027e-07 -1.95545e-06 0)
(7.20821e-07 -1.91433e-06 0)
(8.54571e-07 -1.86737e-06 0)
(9.88977e-07 -1.81561e-06 0)
(1.12413e-06 -1.76001e-06 0)
(1.25918e-06 -1.70199e-06 0)
(6.33996e-08 -2.07876e-06 0)
(1.90336e-07 -2.07002e-06 0)
(3.17679e-07 -2.05291e-06 0)
(4.45754e-07 -2.02777e-06 0)
(5.74715e-07 -1.99534e-06 0)
(7.04626e-07 -1.95638e-06 0)
(8.35548e-07 -1.91182e-06 0)
(9.67248e-07 -1.86265e-06 0)
(1.09978e-06 -1.80978e-06 0)
(1.23242e-06 -1.75448e-06 0)
(6.18112e-08 -2.11386e-06 0)
(1.85597e-07 -2.10558e-06 0)
(3.09851e-07 -2.08938e-06 0)
(4.34846e-07 -2.06557e-06 0)
(5.6078e-07 -2.03482e-06 0)
(6.87741e-07 -1.99785e-06 0)
(8.1582e-07 -1.95552e-06 0)
(9.44847e-07 -1.90878e-06 0)
(1.07481e-06 -1.85845e-06 0)
(1.20513e-06 -1.80564e-06 0)
(6.01238e-08 -2.14881e-06 0)
(1.80566e-07 -2.14099e-06 0)
(3.01528e-07 -2.12564e-06 0)
(4.23261e-07 -2.10308e-06 0)
(5.46016e-07 -2.07392e-06 0)
(6.69917e-07 -2.03882e-06 0)
(7.95084e-07 -1.9986e-06 0)
(9.21378e-07 -1.95415e-06 0)
(1.04877e-06 -1.90615e-06 0)
(1.17679e-06 -1.8557e-06 0)
(5.83221e-08 -2.18333e-06 0)
(1.75171e-07 -2.17593e-06 0)
(2.92583e-07 -2.16139e-06 0)
(4.10828e-07 -2.14002e-06 0)
(5.30207e-07 -2.11236e-06 0)
(6.50887e-07 -2.07904e-06 0)
(7.73002e-07 -2.04083e-06 0)
(8.96438e-07 -1.99854e-06 0)
(1.02119e-06 -1.95277e-06 0)
(1.14689e-06 -1.90454e-06 0)
(5.63651e-08 -2.21754e-06 0)
(1.69292e-07 -2.21057e-06 0)
(2.82827e-07 -2.1968e-06 0)
(3.97298e-07 -2.17657e-06 0)
(5.13033e-07 -2.15036e-06 0)
(6.30254e-07 -2.11878e-06 0)
(7.49107e-07 -2.08251e-06 0)
(8.69525e-07 -2.04227e-06 0)
(9.91492e-07 -1.99868e-06 0)
(1.11481e-06 -1.95256e-06 0)
(5.4227e-08 -2.25063e-06 0)
(1.62877e-07 -2.24404e-06 0)
(2.72185e-07 -2.23106e-06 0)
(3.82556e-07 -2.21195e-06 0)
(4.94361e-07 -2.18718e-06 0)
(6.07848e-07 -2.15731e-06 0)
(7.23166e-07 -2.12296e-06 0)
(8.4035e-07 -2.08476e-06 0)
(9.5939e-07 -2.04333e-06 0)
(1.08025e-06 -1.99934e-06 0)
)


// ************************************************************************* //
