# Time dispX dispY dispZ forceX forceY forceZ
0 0 0 0 0 0 0
1 1.06677e-06 -8.21802e-08 0.0677267 100001 -3.03268 -3.51823e-10
