# Time Dx Dy Dz magD
1 0 -3.41231e-07 0.0741966 0.0741966
