/*--------------------------------*- C++ -*----------------------------------*\
| =========                 |                                                 |
| \\      /  F ield         | foam-extend: Open Source CFD                    |
|  \\    /   O peration     | Version:     4.1                                |
|   \\  /    A nd           | Web:         http://www.foam-extend.org         |
|    \\/     M anipulation  |                                                 |
\*---------------------------------------------------------------------------*/
FoamFile
{
    version     2.0;
    format      ascii;
    class       volScalarField;
    location    "8";
    object      sigmaEq;
}
// * * * * * * * * * * * * * * * * * * * * * * * * * * * * * * * * * * * * * //

dimensions      [1 -1 -2 0 0 0 0];

internalField   nonuniform List<scalar> 
1000
(
850809
970121
1.06559e+06
1.13789e+06
1.17148e+06
1.18461e+06
1.18263e+06
1.17157e+06
1.15669e+06
1.13584e+06
1.065e+06
1.08225e+06
1.12397e+06
1.1689e+06
1.18778e+06
1.19286e+06
1.18598e+06
1.17267e+06
1.15421e+06
1.13532e+06
1.27373e+06
1.19357e+06
1.17605e+06
1.18815e+06
1.18875e+06
1.18354e+06
1.17056e+06
1.15389e+06
1.13284e+06
1.11327e+06
1.47058e+06
1.30014e+06
1.22172e+06
1.19736e+06
1.17686e+06
1.15963e+06
1.13963e+06
1.1193e+06
1.09601e+06
1.07625e+06
1.65004e+06
1.39835e+06
1.2608e+06
1.1984e+06
1.15492e+06
1.12426e+06
1.09656e+06
1.07224e+06
1.04722e+06
1.02724e+06
1.80731e+06
1.48512e+06
1.29329e+06
1.19366e+06
1.12661e+06
1.08175e+06
1.04584e+06
1.01725e+06
990647
970256
1.93827e+06
1.55778e+06
1.31917e+06
1.18562e+06
1.09605e+06
1.03711e+06
992940
959906
931820
910744
2.03954e+06
1.61423e+06
1.33856e+06
1.17688e+06
1.06777e+06
996146
944318
907032
877558
855595
2.1085e+06
1.65277e+06
1.35143e+06
1.16958e+06
1.04592e+06
964532
906649
865889
835275
812453
2.14307e+06
1.6719e+06
1.35724e+06
1.16476e+06
1.03325e+06
946459
885167
842416
811141
787812
781574
517772
370785
309714
287710
291938
307701
330460
355012
379940
748761
515871
404533
372319
366305
375306
389301
407125
425018
444872
682853
513208
462111
468497
480830
495530
508256
521166
531614
545598
587978
515119
534630
577252
605292
625101
637177
646261
650483
659336
470772
527706
614620
686801
727107
750921
762480
768430
767585
771980
346316
556694
696962
790665
839652
866102
876942
880074
875060
875391
258888
605727
778550
885215
939162
966704
976426
976898
968461
964969
294253
674971
857280
968087
1.02307e+06
1.04993e+06
1.05801e+06
1.05579e+06
1.04481e+06
1.03748e+06
443786
761770
931917
1.03813e+06
1.09014e+06
1.11453e+06
1.12027e+06
1.11555e+06
1.1027e+06
1.09238e+06
639398
861750
1.0015e+06
1.09459e+06
1.13935e+06
1.15896e+06
1.16123e+06
1.1531e+06
1.13955e+06
1.12339e+06
405467
426724
446808
465079
481164
495291
507289
517257
525153
530992
534726
536318
535635
532631
526978
518776
507163
493039
473743
453725
461142
471989
484381
496206
507099
516987
525525
532647
538196
542085
544195
544428
542609
538653
532211
523360
511238
496729
477218
457121
549851
546391
547456
549469
552123
555106
557869
560152
561655
562143
561400
559232
555397
549753
541916
531927
518928
503771
483938
463758
652588
635489
624879
616430
609862
604835
600691
597024
593441
589572
585115
579778
573258
565348
555630
544104
529930
513922
493706
473489
756181
727988
706962
688963
673585
660611
649419
639500
630461
621823
613239
604338
594768
584266
572393
559110
543614
526677
506123
486000
852552
816477
787058
761174
738267
718168
700510
684653
670308
656919
644141
631556
618793
605553
591393
576252
559384
541528
520759
500951
937037
896337
860882
828768
799871
773675
750386
729199
710001
692203
675483
659404
643588
627722
611376
594479
576365
557747
536993
517770
1.00634e+06
964191
926060
889696
856862
826072
798322
772696
749255
727475
707083
687684
668922
650500
632024
613430
594156
574901
554366
536027
1.06023e+06
1.01752e+06
979885
940652
905170
871005
839742
810656
783834
758882
735530
713438
692272
671767
651577
631666
611600
592069
572128
554971
1.09683e+06
1.05642e+06
1.0231e+06
984883
948643
912985
879209
847331
817491
789562
763358
738631
715098
692537
670662
649469
628665
608951
589759
574063
1.11101e+06
1.06993e+06
1.03821e+06
1.0031e+06
968193
933737
900411
868479
838136
809386
782163
756336
731730
708218
685621
664013
643258
624065
606206
592270
1.08277e+06
1.05834e+06
1.02984e+06
999579
968143
936561
905413
875090
845858
817828
791034
765447
740997
717653
695349
674242
654340
636380
620415
608755
1.05955e+06
1.03942e+06
1.0166e+06
990639
963036
934545
905913
877568
849864
822987
797063
772147
748265
725472
703803
683488
664669
648089
634034
624460
1.03318e+06
1.01775e+06
999196
976992
952935
927475
901480
875344
849485
824135
799488
775669
752781
730951
710304
691127
673674
658672
646591
639049
1.00467e+06
993056
978468
959896
939325
916937
893686
869927
846132
822564
799474
777042
755434
734836
715448
697601
681635
668252
658052
652350
975356
967026
955769
940403
922990
903517
882965
861640
840039
818437
797124
776318
756234
737104
719183
702833
688456
676713
668295
664233
945921
940309
931898
919428
904906
888197
870262
851366
832009
812473
793068
774038
755633
738117
721784
707013
694245
684092
677299
674645
916979
913580
907551
897615
885674
871524
856074
839550
822439
805016
787599
770445
753827
738025
723358
710207
699034
690394
685051
683567
888903
887261
883211
875493
865861
854073
840964
826729
811826
796518
781119
765889
751109
737065
724087
712548
702912
695673
691591
691042
861898
861641
859228
853437
845862
836239
825322
813274
800517
787294
773908
760610
747681
735402
724101
714134
705953
699991
696978
697141
836051
836893
835839
831735
826001
818369
809502
799533
788844
777654
766245
754856
743754
733212
723543
715080
708251
703429
701299
701970
811369
813101
813202
810596
806530
800735
793786
785789
777079
767851
758361
748830
739507
730644
722539
715493
709901
706081
704657
705653
787803
790332
791426
790174
787647
783565
778420
772292
765468
758119
750471
742724
735104
727844
721213
715480
711002
708046
707168
708331
765307
768537
770593
770639
769558
767095
763650
759288
754248
748678
742775
736716
730704
724945
719681
715147
711657
709433
708953
710150
743799
747901
750804
752087
752431
751520
749692
746999
743636
739733
735459
730969
726445
722067
718047
714589
711961
710342
710134
711256
723412
728060
732134
734883
736570
737156
736847
735711
733897
731522
728729
725660
722474
719331
716415
713898
712005
710878
710835
711799
703755
711578
714958
719315
722196
724264
725365
725673
725260
724246
722755
720922
718892
716810
714839
713124
711845
711110
711152
711903
685783
693062
699868
705274
709755
713201
715690
717287
718094
718221
717796
716957
715847
714608
713389
712315
711531
711109
711199
711730
669221
678412
686555
693583
699608
704438
708180
710884
712664
713647
713980
713819
713326
712657
711964
711366
710982
710841
711013
711370
655549
666702
676770
685482
692898
698932
703660
707152
709543
710987
711668
711776
711513
711063
710605
710271
710174
710308
710682
711046
771060
794000
834200
885908
942145
996528
1.04395e+06
1.08079e+06
1.10586e+06
1.11548e+06
757062
777200
812844
859486
911438
963281
1.01043e+06
1.04863e+06
1.07651e+06
1.08973e+06
745720
763340
794647
835993
882665
930090
974747
1.01299e+06
1.04463e+06
1.06526e+06
736335
751678
779099
815694
857581
900777
942245
978538
1.00958e+06
1.03445e+06
727950
741276
765192
797392
834711
873817
912182
946916
976935
1.00325e+06
720356
731917
752751
781010
814067
849121
883913
916346
944565
971295
713054
723087
741227
766011
795248
826647
858101
888183
914266
939987
705839
714546
730335
752038
777801
805772
833966
861565
885533
909742
698440
706011
719772
738798
761504
786402
811610
836725
858575
880890
690669
697261
709271
725958
745957
768079
790568
813291
833161
853509
682321
688080
698594
713268
730921
750587
770655
791128
809152
827568
673216
678266
687508
700457
716087
733602
751548
769978
786338
802961
663126
667581
675758
687255
701177
716850
732981
749607
764510
779531
651874
655837
663139
673437
685949
700089
714714
729818
743501
757164
639104
642674
649287
658638
670042
682972
696421
710321
723070
735640
624708
627980
634082
642736
653333
665385
678012
691068
703223
715100
607950
611028
616816
625051
635183
646750
658960
671638
683562
695373
589139
592127
597802
605901
615919
627398
639629
652314
664512
676318
566283
569329
575171
583537
593951
605945
618854
632279
645463
658143
541741
544992
551263
560269
571543
584608
598790
613634
628389
642665
)
;

boundaryField
{
    left
    {
        type            symmetryPlane;
        value           nonuniform List<scalar> 
30
(
770527
756595
745308
735975
727640
720087
712823
705639
698268
690520
682193
673108
663034
651798
639043
624661
607918
589119
566274
541740
2.13846e+06
1.67039e+06
1.3569e+06
1.16475e+06
1.03321e+06
946278
884844
841983
810644
787258
)
;
    }
    right
    {
        type            calculated;
        value           nonuniform List<scalar> 
30
(
452462
455845
462476
472202
484714
499688
516533
534865
553845
573106
591359
608023
623868
638587
652008
663993
674493
683485
691016
697156
702012
705713
708398
710219
711319
711853
711944
711761
711389
711091
)
;
    }
    down
    {
        type            symmetryPlane;
        value           nonuniform List<scalar> 
30
(
780702
517509
368198
304183
280257
284040
300258
323858
349359
374981
401507
423719
444455
463233
479701
494120
506346
516491
524528
530480
534306
535975
535357
532410
526806
518648
507076
492988
473721
453723
)
;
    }
    up
    {
        type            calculated;
        value           nonuniform List<scalar> 
30
(
540967
544214
550488
559501
570784
583873
598079
612972
627754
642119
655054
666294
676424
685194
692666
698745
703512
707032
709446
710906
711599
711717
711460
711018
710569
710242
710155
710294
710674
711012
)
;
    }
    hole
    {
        type            calculated;
        value           nonuniform List<scalar> 
20
(
824740
1.0584e+06
1.28326e+06
1.49387e+06
1.68511e+06
1.85229e+06
1.99128e+06
2.09864e+06
2.17168e+06
2.2084e+06
807735
770731
696592
587638
446793
277645
84537.3
127673
353687
587952
)
;
    }
    frontAndBack
    {
        type            empty;
    }
}


// ************************************************************************* //
