/*--------------------------------*- C++ -*----------------------------------*\
| =========                 |                                                 |
| \\      /  F ield         | foam-extend: Open Source CFD                    |
|  \\    /   O peration     | Version:     4.1                                |
|   \\  /    A nd           | Web:         http://www.foam-extend.org         |
|    \\/     M anipulation  |                                                 |
\*---------------------------------------------------------------------------*/
FoamFile
{
    version     2.0;
    format      ascii;
    class       vectorField;
    location    "8";
    object      solidsCellD_iteration15;
}
// * * * * * * * * * * * * * * * * * * * * * * * * * * * * * * * * * * * * * //


1000
(
(4.18554e-06 -1.79713e-06 0)
(3.94613e-06 -1.67097e-06 0)
(3.79264e-06 -1.59032e-06 0)
(3.70392e-06 -1.55193e-06 0)
(3.65984e-06 -1.53764e-06 0)
(3.64831e-06 -1.54198e-06 0)
(3.66073e-06 -1.55846e-06 0)
(3.69116e-06 -1.58394e-06 0)
(3.73511e-06 -1.61554e-06 0)
(3.78979e-06 -1.65133e-06 0)
(3.784e-06 -1.96297e-06 0)
(3.52911e-06 -1.87458e-06 0)
(3.36591e-06 -1.81779e-06 0)
(3.27007e-06 -1.79559e-06 0)
(3.22048e-06 -1.79202e-06 0)
(3.20404e-06 -1.80393e-06 0)
(3.2118e-06 -1.8258e-06 0)
(3.2374e-06 -1.8553e-06 0)
(3.2762e-06 -1.89023e-06 0)
(3.32457e-06 -1.92808e-06 0)
(3.36699e-06 -2.12017e-06 0)
(3.10664e-06 -2.07403e-06 0)
(2.94007e-06 -2.04396e-06 0)
(2.84119e-06 -2.03967e-06 0)
(2.78867e-06 -2.04783e-06 0)
(2.76888e-06 -2.06784e-06 0)
(2.77283e-06 -2.09534e-06 0)
(2.7941e-06 -2.12889e-06 0)
(2.828e-06 -2.16703e-06 0)
(2.87095e-06 -2.2071e-06 0)
(2.93755e-06 -2.26594e-06 0)
(2.68266e-06 -2.26411e-06 0)
(2.51965e-06 -2.26212e-06 0)
(2.42207e-06 -2.27655e-06 0)
(2.36931e-06 -2.29689e-06 0)
(2.34781e-06 -2.32522e-06 0)
(2.34885e-06 -2.35841e-06 0)
(2.36622e-06 -2.39599e-06 0)
(2.39548e-06 -2.43719e-06 0)
(2.43297e-06 -2.47963e-06 0)
(2.49868e-06 -2.3974e-06 0)
(2.26002e-06 -2.43952e-06 0)
(2.10749e-06 -2.46536e-06 0)
(2.01569e-06 -2.49828e-06 0)
(1.9654e-06 -2.53061e-06 0)
(1.94377e-06 -2.56711e-06 0)
(1.94282e-06 -2.60583e-06 0)
(1.95672e-06 -2.64734e-06 0)
(1.9815e-06 -2.69146e-06 0)
(2.01349e-06 -2.73634e-06 0)
(2.05246e-06 -2.51189e-06 0)
(1.84062e-06 -2.59513e-06 0)
(1.70531e-06 -2.64704e-06 0)
(1.62346e-06 -2.69725e-06 0)
(1.57819e-06 -2.74078e-06 0)
(1.558e-06 -2.78487e-06 0)
(1.55595e-06 -2.82868e-06 0)
(1.56677e-06 -2.87384e-06 0)
(1.58709e-06 -2.92063e-06 0)
(1.61342e-06 -2.96791e-06 0)
(1.6011e-06 -2.60681e-06 0)
(1.42544e-06 -2.72608e-06 0)
(1.31327e-06 -2.80087e-06 0)
(1.24519e-06 -2.86624e-06 0)
(1.20729e-06 -2.91954e-06 0)
(1.18999e-06 -2.97026e-06 0)
(1.18758e-06 -3.01851e-06 0)
(1.19564e-06 -3.06686e-06 0)
(1.21146e-06 -3.11597e-06 0)
(1.23201e-06 -3.16541e-06 0)
(1.14608e-06 -2.68005e-06 0)
(1.01451e-06 -2.82826e-06 0)
(9.30529e-07 -2.9214e-06 0)
(8.79467e-07 -2.99891e-06 0)
(8.50926e-07 -3.06007e-06 0)
(8.37681e-07 -3.11612e-06 0)
(8.35482e-07 -3.16797e-06 0)
(8.41004e-07 -3.2189e-06 0)
(8.52309e-07 -3.26988e-06 0)
(8.67023e-07 -3.32112e-06 0)
(6.88676e-07 -2.72984e-06 0)
(6.07213e-07 -2.89827e-06 0)
(5.55258e-07 -3.00425e-06 0)
(5.23582e-07 -3.09028e-06 0)
(5.05787e-07 -3.15694e-06 0)
(4.97431e-07 -3.2167e-06 0)
(4.95928e-07 -3.27106e-06 0)
(4.99177e-07 -3.32385e-06 0)
(5.05955e-07 -3.37615e-06 0)
(5.14781e-07 -3.4287e-06 0)
(2.3e-07 -2.75493e-06 0)
(2.02408e-07 -2.93383e-06 0)
(1.8473e-07 -3.04641e-06 0)
(1.7395e-07 -3.13682e-06 0)
(1.67923e-07 -3.20632e-06 0)
(1.65052e-07 -3.26802e-06 0)
(1.64454e-07 -3.32366e-06 0)
(1.65496e-07 -3.37738e-06 0)
(1.67762e-07 -3.43037e-06 0)
(1.70697e-07 -3.48362e-06 0)
(6.53872e-06 -8.20298e-08 0)
(6.5983e-06 -5.90558e-08 0)
(6.63369e-06 -4.44573e-08 0)
(6.6716e-06 -3.58386e-08 0)
(6.71268e-06 -3.10045e-08 0)
(6.76318e-06 -2.87299e-08 0)
(6.82305e-06 -2.82047e-08 0)
(6.89305e-06 -2.8776e-08 0)
(6.97301e-06 -3.01668e-08 0)
(7.06184e-06 -3.1884e-08 0)
(6.49008e-06 -2.46103e-07 0)
(6.53975e-06 -1.78523e-07 0)
(6.56893e-06 -1.35613e-07 0)
(6.60265e-06 -1.10395e-07 0)
(6.64098e-06 -9.63944e-08 0)
(6.6895e-06 -8.98152e-08 0)
(6.74797e-06 -8.83237e-08 0)
(6.81682e-06 -9.01934e-08 0)
(6.8958e-06 -9.44484e-08 0)
(6.98359e-06 -9.95685e-08 0)
(6.39306e-06 -4.11547e-07 0)
(6.42376e-06 -3.03064e-07 0)
(6.44095e-06 -2.34248e-07 0)
(6.46672e-06 -1.93805e-07 0)
(6.49979e-06 -1.71435e-07 0)
(6.54462e-06 -1.61159e-07 0)
(6.60034e-06 -1.59048e-07 0)
(6.66701e-06 -1.62305e-07 0)
(6.7441e-06 -1.69396e-07 0)
(6.82986e-06 -1.77966e-07 0)
(6.24933e-06 -5.79092e-07 0)
(6.25306e-06 -4.35538e-07 0)
(6.25315e-06 -3.4455e-07 0)
(6.26761e-06 -2.91309e-07 0)
(6.29319e-06 -2.61987e-07 0)
(6.33275e-06 -2.48772e-07 0)
(6.38458e-06 -2.46421e-07 0)
(6.44813e-06 -2.51272e-07 0)
(6.52255e-06 -2.6118e-07 0)
(6.60549e-06 -2.73208e-07 0)
(6.06115e-06 -7.49174e-07 0)
(6.03156e-06 -5.78335e-07 0)
(6.0105e-06 -4.70062e-07 0)
(6.01095e-06 -4.07126e-07 0)
(6.02725e-06 -3.72759e-07 0)
(6.06024e-06 -3.57746e-07 0)
(6.10725e-06 -3.55742e-07 0)
(6.16689e-06 -3.62463e-07 0)
(6.238e-06 -3.75192e-07 0)
(6.31751e-06 -3.90666e-07 0)
(5.83136e-06 -9.21901e-07 0)
(5.76407e-06 -7.3306e-07 0)
(5.71914e-06 -6.13314e-07 0)
(5.70374e-06 -5.44346e-07 0)
(5.7095e-06 -5.07169e-07 0)
(5.735e-06 -4.91691e-07 0)
(5.77651e-06 -4.90732e-07 0)
(5.83167e-06 -4.99638e-07 0)
(5.89894e-06 -5.15223e-07 0)
(5.97457e-06 -5.34119e-07 0)
(5.56341e-06 -1.09691e-06 0)
(5.45627e-06 -9.00342e-07 0)
(5.38613e-06 -7.75574e-07 0)
(5.35397e-06 -7.04614e-07 0)
(5.34856e-06 -6.67077e-07 0)
(5.36608e-06 -6.52618e-07 0)
(5.40168e-06 -6.53513e-07 0)
(5.45203e-06 -6.64943e-07 0)
(5.51509e-06 -6.83432e-07 0)
(5.58662e-06 -7.05682e-07 0)
(5.2609e-06 -1.27338e-06 0)
(5.11427e-06 -1.07973e-06 0)
(5.01919e-06 -9.56658e-07 0)
(4.97035e-06 -8.87957e-07 0)
(4.9538e-06 -8.52631e-07 0)
(4.96325e-06 -8.40746e-07 0)
(4.99275e-06 -8.44346e-07 0)
(5.03808e-06 -8.58725e-07 0)
(5.09667e-06 -8.80198e-07 0)
(5.16394e-06 -9.05815e-07 0)
(4.92778e-06 -1.4501e-06 0)
(4.74446e-06 -1.26974e-06 0)
(4.6262e-06 -1.155e-06 0)
(4.56176e-06 -1.09272e-06 0)
(4.53467e-06 -1.06215e-06 0)
(4.53631e-06 -1.05433e-06 0)
(4.55975e-06 -1.0615e-06 0)
(4.60005e-06 -1.07919e-06 0)
(4.65397e-06 -1.10394e-06 0)
(4.71709e-06 -1.13273e-06 0)
(4.56803e-06 -1.6254e-06 0)
(4.35314e-06 -1.46795e-06 0)
(4.21496e-06 -1.36762e-06 0)
(4.13694e-06 -1.31564e-06 0)
(4.10048e-06 -1.29219e-06 0)
(4.09503e-06 -1.28985e-06 0)
(4.11282e-06 -1.30135e-06 0)
(4.14812e-06 -1.3229e-06 0)
(4.19735e-06 -1.35098e-06 0)
(4.25614e-06 -1.38419e-06 0)
(7.15985e-06 -3.3595e-08 0)
(7.26674e-06 -3.39138e-08 0)
(7.38048e-06 -3.43068e-08 0)
(7.50068e-06 -3.45746e-08 0)
(7.62657e-06 -3.46891e-08 0)
(7.75767e-06 -3.46341e-08 0)
(7.89338e-06 -3.43448e-08 0)
(8.03318e-06 -3.38371e-08 0)
(8.17664e-06 -3.31158e-08 0)
(8.32329e-06 -3.21555e-08 0)
(8.47268e-06 -3.09222e-08 0)
(8.62435e-06 -2.93946e-08 0)
(8.77789e-06 -2.75461e-08 0)
(8.9328e-06 -2.53526e-08 0)
(9.08869e-06 -2.27815e-08 0)
(9.24495e-06 -1.97864e-08 0)
(9.40125e-06 -1.63024e-08 0)
(9.55654e-06 -1.22597e-08 0)
(9.71103e-06 -7.55972e-09 0)
(9.86213e-06 -2.16303e-09 0)
(7.08509e-06 -1.04302e-07 0)
(7.19824e-06 -1.04765e-07 0)
(7.31759e-06 -1.0552e-07 0)
(7.44267e-06 -1.0598e-07 0)
(7.57291e-06 -1.05981e-07 0)
(7.70783e-06 -1.05529e-07 0)
(7.84699e-06 -1.04493e-07 0)
(7.98991e-06 -1.02866e-07 0)
(8.13621e-06 -1.00576e-07 0)
(8.28544e-06 -9.75532e-08 0)
(8.43718e-06 -9.37367e-08 0)
(8.59105e-06 -8.90826e-08 0)
(8.74665e-06 -8.35066e-08 0)
(8.90352e-06 -7.69094e-08 0)
(9.06126e-06 -6.91707e-08 0)
(9.21928e-06 -6.01546e-08 0)
(9.37729e-06 -4.96786e-08 0)
(9.53421e-06 -3.75467e-08 0)
(9.69032e-06 -2.34546e-08 0)
(9.84299e-06 -7.28151e-09 0)
(6.93815e-06 -1.84677e-07 0)
(7.06363e-06 -1.83895e-07 0)
(7.19395e-06 -1.8374e-07 0)
(7.3285e-06 -1.8343e-07 0)
(7.46722e-06 -1.82548e-07 0)
(7.60968e-06 -1.81101e-07 0)
(7.75563e-06 -1.78798e-07 0)
(7.90464e-06 -1.75601e-07 0)
(8.05646e-06 -1.71374e-07 0)
(8.21073e-06 -1.66019e-07 0)
(8.36714e-06 -1.59431e-07 0)
(8.52533e-06 -1.51512e-07 0)
(8.68495e-06 -1.42096e-07 0)
(8.84559e-06 -1.31008e-07 0)
(9.0069e-06 -1.18048e-07 0)
(9.16834e-06 -1.0299e-07 0)
(9.32965e-06 -8.55222e-08 0)
(9.48981e-06 -6.53191e-08 0)
(9.64911e-06 -4.18608e-08 0)
(9.80499e-06 -1.49444e-08 0)
(6.72346e-06 -2.80211e-07 0)
(6.86656e-06 -2.76019e-07 0)
(7.01277e-06 -2.72973e-07 0)
(7.16113e-06 -2.70365e-07 0)
(7.31225e-06 -2.67314e-07 0)
(7.46566e-06 -2.63842e-07 0)
(7.62149e-06 -2.59433e-07 0)
(7.7794e-06 -2.54016e-07 0)
(7.93937e-06 -2.4735e-07 0)
(8.1011e-06 -2.39271e-07 0)
(8.26437e-06 -2.29592e-07 0)
(8.42891e-06 -2.18142e-07 0)
(8.59445e-06 -2.04688e-07 0)
(8.76065e-06 -1.88983e-07 0)
(8.92723e-06 -1.70746e-07 0)
(9.09369e-06 -1.49634e-07 0)
(9.25984e-06 -1.25205e-07 0)
(9.42472e-06 -9.69865e-08 0)
(9.58862e-06 -6.42331e-08 0)
(9.74914e-06 -2.66736e-08 0)
(6.44751e-06 -3.95791e-07 0)
(6.61276e-06 -3.85384e-07 0)
(6.77911e-06 -3.76892e-07 0)
(6.94495e-06 -3.70023e-07 0)
(7.11187e-06 -3.63142e-07 0)
(7.27932e-06 -3.56315e-07 0)
(7.44786e-06 -3.48724e-07 0)
(7.61727e-06 -3.40223e-07 0)
(7.7877e-06 -3.30411e-07 0)
(7.95899e-06 -3.1903e-07 0)
(8.13109e-06 -3.05812e-07 0)
(8.30384e-06 -2.905e-07 0)
(8.47705e-06 -2.7277e-07 0)
(8.65047e-06 -2.52284e-07 0)
(8.82389e-06 -2.2866e-07 0)
(8.99687e-06 -2.01437e-07 0)
(9.16929e-06 -1.70038e-07 0)
(9.34026e-06 -1.33851e-07 0)
(9.51016e-06 -9.18971e-08 0)
(9.67667e-06 -4.38276e-08 0)
(6.11814e-06 -5.34928e-07 0)
(6.30885e-06 -5.15052e-07 0)
(6.49877e-06 -4.9809e-07 0)
(6.68523e-06 -4.8457e-07 0)
(6.8709e-06 -4.71891e-07 0)
(7.0551e-06 -4.60092e-07 0)
(7.23878e-06 -4.48e-07 0)
(7.42194e-06 -4.35328e-07 0)
(7.60494e-06 -4.21521e-07 0)
(7.78776e-06 -4.06184e-07 0)
(7.97052e-06 -3.88932e-07 0)
(8.15315e-06 -3.69391e-07 0)
(8.33559e-06 -3.47122e-07 0)
(8.51766e-06 -3.21685e-07 0)
(8.69928e-06 -2.92576e-07 0)
(8.88007e-06 -2.59223e-07 0)
(9.06002e-06 -2.20893e-07 0)
(9.23828e-06 -1.76841e-07 0)
(9.41538e-06 -1.25858e-07 0)
(9.58909e-06 -6.74649e-08 0)
(5.74459e-06 -6.99775e-07 0)
(5.96296e-06 -6.67135e-07 0)
(6.17886e-06 -6.38699e-07 0)
(6.38823e-06 -6.15968e-07 0)
(6.59482e-06 -5.9541e-07 0)
(6.79787e-06 -5.76855e-07 0)
(6.99871e-06 -5.58858e-07 0)
(7.1975e-06 -5.40852e-07 0)
(7.39482e-06 -5.22112e-07 0)
(7.59084e-06 -5.02065e-07 0)
(7.7858e-06 -4.80176e-07 0)
(7.97976e-06 -4.55926e-07 0)
(8.17277e-06 -4.28759e-07 0)
(8.36478e-06 -3.9812e-07 0)
(8.55579e-06 -3.6338e-07 0)
(8.74556e-06 -3.23842e-07 0)
(8.93414e-06 -2.78612e-07 0)
(9.12079e-06 -2.26795e-07 0)
(9.30611e-06 -1.66973e-07 0)
(9.48808e-06 -9.85177e-08 0)
(5.33614e-06 -8.90807e-07 0)
(5.58299e-06 -8.41761e-07 0)
(5.82615e-06 -7.98827e-07 0)
(6.06003e-06 -7.64033e-07 0)
(6.2892e-06 -7.33415e-07 0)
(6.51279e-06 -7.06193e-07 0)
(6.73247e-06 -6.80788e-07 0)
(6.94851e-06 -6.56237e-07 0)
(7.16166e-06 -6.31612e-07 0)
(7.37227e-06 -6.06119e-07 0)
(7.58072e-06 -5.7904e-07 0)
(7.7872e-06 -5.49686e-07 0)
(7.99192e-06 -5.17362e-07 0)
(8.19494e-06 -4.81379e-07 0)
(8.39638e-06 -4.40967e-07 0)
(8.59609e-06 -3.95287e-07 0)
(8.79419e-06 -3.43288e-07 0)
(8.99013e-06 -2.83915e-07 0)
(9.18452e-06 -2.15538e-07 0)
(9.37562e-06 -1.37384e-07 0)
(4.90289e-06 -1.10764e-06 0)
(5.1782e-06 -1.03921e-06 0)
(5.44857e-06 -9.79888e-07 0)
(5.70777e-06 -9.30604e-07 0)
(5.96017e-06 -8.87993e-07 0)
(6.20532e-06 -8.50346e-07 0)
(6.44479e-06 -8.16013e-07 0)
(6.67913e-06 -7.83609e-07 0)
(6.90916e-06 -7.51992e-07 0)
(7.1354e-06 -7.20125e-07 0)
(7.35835e-06 -6.87095e-07 0)
(7.57836e-06 -6.52037e-07 0)
(7.79574e-06 -6.14103e-07 0)
(8.01069e-06 -5.72454e-07 0)
(8.2234e-06 -5.26166e-07 0)
(8.43386e-06 -4.74246e-07 0)
(8.64227e-06 -4.15493e-07 0)
(8.84822e-06 -3.48689e-07 0)
(9.05242e-06 -2.72028e-07 0)
(9.25341e-06 -1.84598e-07 0)
(4.453e-06 -1.34635e-06 0)
(4.7567e-06 -1.25403e-06 0)
(5.05303e-06 -1.17628e-06 0)
(5.33812e-06 -1.1102e-06 0)
(5.61422e-06 -1.05367e-06 0)
(5.88183e-06 -1.00408e-06 0)
(6.14198e-06 -9.59566e-07 0)
(6.39551e-06 -9.1839e-07 0)
(6.64326e-06 -8.79104e-07 0)
(6.88593e-06 -8.40399e-07 0)
(7.12411e-06 -8.0112e-07 0)
(7.3583e-06 -7.602e-07 0)
(7.58894e-06 -7.16609e-07 0)
(7.81636e-06 -6.69341e-07 0)
(8.04085e-06 -6.17313e-07 0)
(8.26251e-06 -5.59379e-07 0)
(8.48166e-06 -4.94195e-07 0)
(8.69806e-06 -4.20371e-07 0)
(8.91252e-06 -3.3594e-07 0)
(9.12389e-06 -2.39809e-07 0)
(4.12092e-06 -1.57384e-06 0)
(4.44268e-06 -1.46259e-06 0)
(4.75399e-06 -1.3713e-06 0)
(5.05465e-06 -1.29202e-06 0)
(5.34547e-06 -1.22335e-06 0)
(5.6272e-06 -1.16266e-06 0)
(5.90071e-06 -1.10802e-06 0)
(6.16683e-06 -1.05762e-06 0)
(6.42635e-06 -1.00991e-06 0)
(6.67996e-06 -9.63457e-07 0)
(6.9283e-06 -9.16995e-07 0)
(7.17191e-06 -8.69341e-07 0)
(7.41129e-06 -8.19348e-07 0)
(7.64682e-06 -7.65903e-07 0)
(7.87887e-06 -7.07827e-07 0)
(8.10766e-06 -6.43876e-07 0)
(8.33356e-06 -5.72665e-07 0)
(8.55657e-06 -4.92706e-07 0)
(8.77749e-06 -4.02006e-07 0)
(8.99554e-06 -2.99406e-07 0)
(3.93021e-06 -1.75769e-06 0)
(4.25419e-06 -1.64229e-06 0)
(4.56802e-06 -1.54357e-06 0)
(4.87259e-06 -1.45634e-06 0)
(5.16794e-06 -1.37928e-06 0)
(5.45456e-06 -1.31021e-06 0)
(5.73309e-06 -1.24736e-06 0)
(6.00417e-06 -1.18904e-06 0)
(6.26844e-06 -1.13374e-06 0)
(6.52651e-06 -1.08005e-06 0)
(6.77897e-06 -1.02672e-06 0)
(7.02634e-06 -9.72538e-07 0)
(7.26913e-06 -9.16337e-07 0)
(7.50771e-06 -8.56985e-07 0)
(7.7425e-06 -7.93289e-07 0)
(7.97379e-06 -7.23995e-07 0)
(8.20199e-06 -6.47764e-07 0)
(8.42726e-06 -5.63126e-07 0)
(8.65039e-06 -4.68172e-07 0)
(8.87094e-06 -3.61812e-07 0)
(3.76627e-06 -1.93466e-06 0)
(4.08723e-06 -1.81645e-06 0)
(4.40057e-06 -1.71277e-06 0)
(4.70578e-06 -1.61941e-06 0)
(5.00285e-06 -1.53541e-06 0)
(5.29185e-06 -1.45904e-06 0)
(5.57321e-06 -1.38874e-06 0)
(5.84732e-06 -1.32302e-06 0)
(6.11471e-06 -1.26048e-06 0)
(6.37586e-06 -1.19979e-06 0)
(6.63129e-06 -1.13973e-06 0)
(6.88148e-06 -1.07913e-06 0)
(7.12688e-06 -1.01681e-06 0)
(7.3679e-06 -9.51654e-07 0)
(7.60493e-06 -8.82484e-07 0)
(7.83835e-06 -8.08063e-07 0)
(8.06859e-06 -7.27108e-07 0)
(8.2959e-06 -6.38216e-07 0)
(8.52109e-06 -5.39589e-07 0)
(8.74403e-06 -4.30243e-07 0)
(3.6213e-06 -2.10539e-06 0)
(3.93775e-06 -1.98574e-06 0)
(4.24842e-06 -1.87829e-06 0)
(4.55214e-06 -1.77986e-06 0)
(4.84883e-06 -1.68986e-06 0)
(5.13828e-06 -1.60699e-06 0)
(5.42071e-06 -1.52992e-06 0)
(5.69632e-06 -1.45737e-06 0)
(5.96547e-06 -1.38804e-06 0)
(6.22854e-06 -1.32074e-06 0)
(6.48596e-06 -1.25429e-06 0)
(6.73814e-06 -1.18756e-06 0)
(6.98548e-06 -1.1194e-06 0)
(7.22838e-06 -1.04874e-06 0)
(7.46724e-06 -9.74415e-07 0)
(7.70243e-06 -8.95249e-07 0)
(7.93444e-06 -8.10022e-07 0)
(8.1636e-06 -7.17418e-07 0)
(8.39067e-06 -6.15787e-07 0)
(8.61584e-06 -5.04264e-07 0)
(3.49334e-06 -2.26891e-06 0)
(3.80391e-06 -2.14882e-06 0)
(4.11033e-06 -2.03887e-06 0)
(4.41091e-06 -1.93661e-06 0)
(4.70561e-06 -1.84178e-06 0)
(4.99395e-06 -1.75338e-06 0)
(5.27599e-06 -1.67038e-06 0)
(5.55175e-06 -1.59167e-06 0)
(5.82148e-06 -1.51613e-06 0)
(6.08544e-06 -1.44268e-06 0)
(6.34394e-06 -1.37023e-06 0)
(6.59733e-06 -1.29771e-06 0)
(6.84596e-06 -1.22403e-06 0)
(7.09021e-06 -1.14816e-06 0)
(7.33045e-06 -1.06901e-06 0)
(7.56709e-06 -9.85461e-07 0)
(7.80058e-06 -8.96365e-07 0)
(8.03136e-06 -8.0052e-07 0)
(8.26013e-06 -6.96453e-07 0)
(8.48735e-06 -5.83428e-07 0)
(3.37943e-06 -2.42538e-06 0)
(3.68343e-06 -2.30562e-06 0)
(3.9846e-06 -2.1941e-06 0)
(4.28092e-06 -2.08894e-06 0)
(4.57244e-06 -1.99019e-06 0)
(4.85844e-06 -1.89714e-06 0)
(5.13891e-06 -1.80897e-06 0)
(5.41373e-06 -1.7248e-06 0)
(5.68304e-06 -1.64367e-06 0)
(5.94696e-06 -1.56461e-06 0)
(6.20575e-06 -1.48664e-06 0)
(6.45965e-06 -1.40876e-06 0)
(6.70899e-06 -1.32996e-06 0)
(6.95409e-06 -1.24929e-06 0)
(7.1953e-06 -1.16569e-06 0)
(7.43304e-06 -1.07818e-06 0)
(7.66775e-06 -9.85659e-07 0)
(7.8999e-06 -8.87063e-07 0)
(8.1302e-06 -7.8111e-07 0)
(8.35921e-06 -6.67173e-07 0)
(3.27731e-06 -2.57498e-06 0)
(3.57434e-06 -2.45609e-06 0)
(3.8696e-06 -2.34372e-06 0)
(4.16091e-06 -2.23651e-06 0)
(4.44837e-06 -2.13469e-06 0)
(4.73113e-06 -2.03779e-06 0)
(5.00913e-06 -1.94522e-06 0)
(5.28213e-06 -1.8563e-06 0)
(5.55017e-06 -1.7702e-06 0)
(5.81331e-06 -1.68609e-06 0)
(6.07168e-06 -1.60311e-06 0)
(6.3255e-06 -1.52033e-06 0)
(6.57501e-06 -1.43685e-06 0)
(6.82051e-06 -1.35179e-06 0)
(7.06233e-06 -1.26417e-06 0)
(7.30085e-06 -1.17309e-06 0)
(7.53652e-06 -1.07758e-06 0)
(7.76982e-06 -9.76684e-07 0)
(8.00145e-06 -8.69317e-07 0)
(8.23198e-06 -7.54951e-07 0)
(3.18483e-06 -2.71801e-06 0)
(3.47479e-06 -2.60038e-06 0)
(3.76375e-06 -2.48771e-06 0)
(4.04959e-06 -2.37909e-06 0)
(4.33238e-06 -2.2749e-06 0)
(4.61125e-06 -2.17487e-06 0)
(4.88608e-06 -2.07861e-06 0)
(5.15658e-06 -1.9856e-06 0)
(5.4227e-06 -1.89515e-06 0)
(5.68442e-06 -1.80657e-06 0)
(5.94182e-06 -1.71911e-06 0)
(6.19504e-06 -1.63194e-06 0)
(6.44428e-06 -1.54424e-06 0)
(6.6898e-06 -1.45524e-06 0)
(6.9319e-06 -1.36402e-06 0)
(7.17094e-06 -1.26981e-06 0)
(7.40732e-06 -1.17173e-06 0)
(7.64158e-06 -1.06896e-06 0)
(7.8743e-06 -9.60589e-07 0)
(8.10615e-06 -8.46197e-07 0)
(3.10012e-06 -2.85493e-06 0)
(3.38301e-06 -2.73875e-06 0)
(3.66552e-06 -2.62619e-06 0)
(3.94561e-06 -2.51668e-06 0)
(4.22335e-06 -2.41072e-06 0)
(4.4979e-06 -2.30818e-06 0)
(4.7691e-06 -2.20887e-06 0)
(5.0366e-06 -2.11239e-06 0)
(5.30029e-06 -2.01819e-06 0)
(5.56012e-06 -1.92571e-06 0)
(5.8161e-06 -1.83431e-06 0)
(6.06832e-06 -1.74326e-06 0)
(6.31694e-06 -1.65182e-06 0)
(6.56217e-06 -1.55933e-06 0)
(6.80427e-06 -1.46495e-06 0)
(7.04359e-06 -1.36801e-06 0)
(7.2805e-06 -1.26776e-06 0)
(7.51551e-06 -1.16349e-06 0)
(7.7491e-06 -1.05447e-06 0)
(7.98209e-06 -9.40382e-07 0)
(3.02149e-06 -2.98616e-06 0)
(3.29742e-06 -2.87155e-06 0)
(3.57348e-06 -2.75938e-06 0)
(3.8477e-06 -2.64937e-06 0)
(4.12022e-06 -2.54211e-06 0)
(4.3902e-06 -2.43762e-06 0)
(4.65745e-06 -2.33582e-06 0)
(4.92162e-06 -2.23644e-06 0)
(5.18254e-06 -2.13907e-06 0)
(5.44013e-06 -2.04324e-06 0)
(5.69436e-06 -1.94842e-06 0)
(5.94526e-06 -1.85398e-06 0)
(6.19298e-06 -1.75929e-06 0)
(6.43766e-06 -1.66375e-06 0)
(6.67954e-06 -1.56664e-06 0)
(6.91894e-06 -1.46738e-06 0)
(7.15617e-06 -1.36533e-06 0)
(7.39173e-06 -1.2599e-06 0)
(7.62604e-06 -1.15052e-06 0)
(7.85996e-06 -1.03699e-06 0)
(2.94742e-06 -3.11217e-06 0)
(3.21662e-06 -2.99914e-06 0)
(3.48631e-06 -2.88754e-06 0)
(3.75471e-06 -2.77735e-06 0)
(4.02196e-06 -2.6692e-06 0)
(4.28725e-06 -2.5632e-06 0)
(4.55038e-06 -2.45941e-06 0)
(4.811e-06 -2.35765e-06 0)
(5.06893e-06 -2.25763e-06 0)
(5.32404e-06 -2.15897e-06 0)
(5.57628e-06 -2.06125e-06 0)
(5.82565e-06 -1.96391e-06 0)
(6.07225e-06 -1.86642e-06 0)
(6.31619e-06 -1.76828e-06 0)
(6.55768e-06 -1.66884e-06 0)
(6.79698e-06 -1.56764e-06 0)
(7.03438e-06 -1.46413e-06 0)
(7.27031e-06 -1.35782e-06 0)
(7.50521e-06 -1.24833e-06 0)
(7.7398e-06 -1.13553e-06 0)
(2.87659e-06 -3.2334e-06 0)
(3.1393e-06 -3.1219e-06 0)
(3.4028e-06 -3.011e-06 0)
(3.6655e-06 -2.90085e-06 0)
(3.92752e-06 -2.79212e-06 0)
(4.1881e-06 -2.68501e-06 0)
(4.44705e-06 -2.57966e-06 0)
(4.70404e-06 -2.47599e-06 0)
(4.95885e-06 -2.37379e-06 0)
(5.21136e-06 -2.27279e-06 0)
(5.46148e-06 -2.17264e-06 0)
(5.70919e-06 -2.07287e-06 0)
(5.95455e-06 -1.97303e-06 0)
(6.19764e-06 -1.8727e-06 0)
(6.4386e-06 -1.77133e-06 0)
(6.67768e-06 -1.66852e-06 0)
(6.91511e-06 -1.56385e-06 0)
(7.1513e-06 -1.45693e-06 0)
(7.38664e-06 -1.34752e-06 0)
(7.62175e-06 -1.23554e-06 0)
(2.8078e-06 -3.35026e-06 0)
(3.06429e-06 -3.24021e-06 0)
(3.32183e-06 -3.13007e-06 0)
(3.579e-06 -3.02013e-06 0)
(3.8359e-06 -2.91108e-06 0)
(4.09185e-06 -2.80318e-06 0)
(4.34666e-06 -2.69666e-06 0)
(4.60003e-06 -2.5915e-06 0)
(4.85174e-06 -2.48757e-06 0)
(5.10162e-06 -2.38468e-06 0)
(5.34959e-06 -2.28255e-06 0)
(5.59558e-06 -2.18079e-06 0)
(5.83962e-06 -2.07901e-06 0)
(6.08176e-06 -1.97689e-06 0)
(6.32211e-06 -1.87393e-06 0)
(6.56087e-06 -1.76984e-06 0)
(6.79822e-06 -1.66427e-06 0)
(7.03457e-06 -1.55695e-06 0)
(7.27016e-06 -1.44775e-06 0)
(7.50568e-06 -1.33664e-06 0)
(2.73992e-06 -3.46308e-06 0)
(2.99048e-06 -3.35443e-06 0)
(3.24229e-06 -3.24506e-06 0)
(3.49415e-06 -3.13545e-06 0)
(3.74612e-06 -3.02629e-06 0)
(3.99761e-06 -2.91789e-06 0)
(4.24845e-06 -2.81054e-06 0)
(4.4983e-06 -2.70428e-06 0)
(4.74697e-06 -2.59903e-06 0)
(4.99427e-06 -2.49466e-06 0)
(5.24009e-06 -2.39096e-06 0)
(5.48436e-06 -2.2876e-06 0)
(5.72706e-06 -2.18427e-06 0)
(5.96823e-06 -2.0807e-06 0)
(6.20792e-06 -1.97649e-06 0)
(6.4463e-06 -1.87138e-06 0)
(6.68351e-06 -1.76515e-06 0)
(6.91991e-06 -1.6576e-06 0)
(7.15566e-06 -1.54868e-06 0)
(7.39143e-06 -1.43849e-06 0)
(2.67179e-06 -3.57225e-06 0)
(2.91671e-06 -3.46487e-06 0)
(3.16309e-06 -3.35629e-06 0)
(3.4099e-06 -3.24713e-06 0)
(3.65723e-06 -3.13805e-06 0)
(3.90451e-06 -3.02941e-06 0)
(4.15158e-06 -2.92153e-06 0)
(4.39809e-06 -2.81449e-06 0)
(4.64387e-06 -2.70827e-06 0)
(4.88873e-06 -2.60279e-06 0)
(5.13252e-06 -2.4979e-06 0)
(5.37515e-06 -2.39332e-06 0)
(5.61658e-06 -2.28879e-06 0)
(5.8568e-06 -2.18411e-06 0)
(6.09583e-06 -2.07891e-06 0)
(6.33381e-06 -1.97304e-06 0)
(6.57085e-06 -1.86633e-06 0)
(6.80721e-06 -1.75867e-06 0)
(7.04309e-06 -1.65011e-06 0)
(7.27898e-06 -1.54078e-06 0)
(2.60233e-06 -3.67802e-06 0)
(2.84188e-06 -3.57194e-06 0)
(3.08309e-06 -3.46408e-06 0)
(3.32524e-06 -3.35544e-06 0)
(3.56826e-06 -3.24662e-06 0)
(3.81166e-06 -3.13796e-06 0)
(4.05526e-06 -3.02982e-06 0)
(4.29873e-06 -2.92231e-06 0)
(4.54186e-06 -2.81546e-06 0)
(4.78446e-06 -2.70921e-06 0)
(5.02637e-06 -2.60347e-06 0)
(5.26748e-06 -2.498e-06 0)
(5.50772e-06 -2.39259e-06 0)
(5.74705e-06 -2.28706e-06 0)
(5.98546e-06 -2.18112e-06 0)
(6.22305e-06 -2.0747e-06 0)
(6.4599e-06 -1.96767e-06 0)
(6.69618e-06 -1.85999e-06 0)
(6.93211e-06 -1.7518e-06 0)
(7.16807e-06 -1.64327e-06 0)
(2.5304e-06 -3.78084e-06 0)
(2.76473e-06 -3.67568e-06 0)
(3.00105e-06 -3.56877e-06 0)
(3.23911e-06 -3.46085e-06 0)
(3.4782e-06 -3.35242e-06 0)
(3.71818e-06 -3.24395e-06 0)
(3.95867e-06 -3.13577e-06 0)
(4.19945e-06 -3.02805e-06 0)
(4.44026e-06 -2.92082e-06 0)
(4.68089e-06 -2.8141e-06 0)
(4.92117e-06 -2.70781e-06 0)
(5.16095e-06 -2.60173e-06 0)
(5.40015e-06 -2.49569e-06 0)
(5.63868e-06 -2.38957e-06 0)
(5.87654e-06 -2.28313e-06 0)
(6.11381e-06 -2.17632e-06 0)
(6.35045e-06 -2.06907e-06 0)
(6.5867e-06 -1.9614e-06 0)
(6.82257e-06 -1.85357e-06 0)
(7.05854e-06 -1.74574e-06 0)
(2.45431e-06 -3.88059e-06 0)
(2.68419e-06 -3.77649e-06 0)
(2.91649e-06 -3.67073e-06 0)
(3.15061e-06 -3.56359e-06 0)
(3.38634e-06 -3.45571e-06 0)
(3.62329e-06 -3.3476e-06 0)
(3.86117e-06 -3.23961e-06 0)
(4.09968e-06 -3.13193e-06 0)
(4.33857e-06 -3.02461e-06 0)
(4.57758e-06 -2.91767e-06 0)
(4.81652e-06 -2.81107e-06 0)
(5.0552e-06 -2.70463e-06 0)
(5.29352e-06 -2.59821e-06 0)
(5.53142e-06 -2.4917e-06 0)
(5.76884e-06 -2.38492e-06 0)
(6.0058e-06 -2.27785e-06 0)
(6.24227e-06 -2.17045e-06 0)
(6.47848e-06 -2.06282e-06 0)
(6.71436e-06 -1.95529e-06 0)
(6.95025e-06 -1.84807e-06 0)
(2.37303e-06 -3.97835e-06 0)
(2.59884e-06 -3.8755e-06 0)
(2.82749e-06 -3.77065e-06 0)
(3.05842e-06 -3.66434e-06 0)
(3.2914e-06 -3.55716e-06 0)
(3.52599e-06 -3.44956e-06 0)
(3.76188e-06 -3.34193e-06 0)
(3.99872e-06 -3.23446e-06 0)
(4.2362e-06 -3.12723e-06 0)
(4.47403e-06 -3.02027e-06 0)
(4.71198e-06 -2.91355e-06 0)
(4.94988e-06 -2.80693e-06 0)
(5.18758e-06 -2.70029e-06 0)
(5.42497e-06 -2.59357e-06 0)
(5.66202e-06 -2.48655e-06 0)
(5.89875e-06 -2.37927e-06 0)
(6.13515e-06 -2.2718e-06 0)
(6.37128e-06 -2.16419e-06 0)
(6.6072e-06 -2.05683e-06 0)
(6.84306e-06 -1.95009e-06 0)
(2.28553e-06 -4.07333e-06 0)
(2.5078e-06 -3.97189e-06 0)
(2.73344e-06 -3.86833e-06 0)
(2.96191e-06 -3.76311e-06 0)
(3.19287e-06 -3.65683e-06 0)
(3.42586e-06 -3.54998e-06 0)
(3.66048e-06 -3.44293e-06 0)
(3.8963e-06 -3.33588e-06 0)
(4.13295e-06 -3.22889e-06 0)
(4.37012e-06 -3.12205e-06 0)
(4.60752e-06 -3.01538e-06 0)
(4.84493e-06 -2.90873e-06 0)
(5.08221e-06 -2.80198e-06 0)
(5.31927e-06 -2.69512e-06 0)
(5.55603e-06 -2.58801e-06 0)
(5.79255e-06 -2.48062e-06 0)
(6.02889e-06 -2.37308e-06 0)
(6.26502e-06 -2.26544e-06 0)
(6.50106e-06 -2.15814e-06 0)
(6.73698e-06 -2.05166e-06 0)
(1.69989e-07 -3.5382e-06 0)
(5.12367e-07 -3.48588e-06 0)
(8.61943e-07 -3.38332e-06 0)
(1.22281e-06 -3.23463e-06 0)
(1.59826e-06 -3.04555e-06 0)
(1.99035e-06 -2.82313e-06 0)
(2.39989e-06 -2.57552e-06 0)
(2.82616e-06 -2.3112e-06 0)
(3.26757e-06 -2.03884e-06 0)
(3.72076e-06 -1.76532e-06 0)
(1.65111e-07 -3.59488e-06 0)
(4.97381e-07 -3.54705e-06 0)
(8.35646e-07 -3.45327e-06 0)
(1.18338e-06 -3.31699e-06 0)
(1.54337e-06 -3.14311e-06 0)
(1.91739e-06 -2.9376e-06 0)
(2.3062e-06 -2.7074e-06 0)
(2.70902e-06 -2.45988e-06 0)
(3.12392e-06 -2.20286e-06 0)
(3.54823e-06 -1.94206e-06 0)
(1.60815e-07 -3.65289e-06 0)
(4.84152e-07 -3.60916e-06 0)
(8.12396e-07 -3.52331e-06 0)
(1.14833e-06 -3.39837e-06 0)
(1.49433e-06 -3.23856e-06 0)
(1.85185e-06 -3.04907e-06 0)
(2.22169e-06 -2.83584e-06 0)
(2.60356e-06 -2.60507e-06 0)
(2.99608e-06 -2.3635e-06 0)
(3.3975e-06 -2.11486e-06 0)
(1.57007e-07 -3.71237e-06 0)
(4.72423e-07 -3.67211e-06 0)
(7.91972e-07 -3.59305e-06 0)
(1.11786e-06 -3.47781e-06 0)
(1.45212e-06 -3.33011e-06 0)
(1.7959e-06 -3.1545e-06 0)
(2.1498e-06 -2.95623e-06 0)
(2.51358e-06 -2.74074e-06 0)
(2.88605e-06 -2.51432e-06 0)
(3.2657e-06 -2.27985e-06 0)
(1.53513e-07 -3.77329e-06 0)
(4.61644e-07 -3.73615e-06 0)
(7.73238e-07 -3.66316e-06 0)
(1.09006e-06 -3.55664e-06 0)
(1.4138e-06 -3.41991e-06 0)
(1.74544e-06 -3.25702e-06 0)
(2.0855e-06 -3.07259e-06 0)
(2.43377e-06 -2.87127e-06 0)
(2.78942e-06 -2.65876e-06 0)
(3.15043e-06 -2.43768e-06 0)
(1.50246e-07 -3.83557e-06 0)
(4.51679e-07 -3.80112e-06 0)
(7.56002e-07 -3.7334e-06 0)
(1.0647e-06 -3.63452e-06 0)
(1.37917e-06 -3.50741e-06 0)
(1.7002e-06 -3.35575e-06 0)
(2.02818e-06 -3.18373e-06 0)
(2.36282e-06 -2.99545e-06 0)
(2.70374e-06 -2.79607e-06 0)
(3.04847e-06 -2.5882e-06 0)
(1.47122e-07 -3.89912e-06 0)
(4.42193e-07 -3.86709e-06 0)
(7.39692e-07 -3.80407e-06 0)
(1.0409e-06 -3.71201e-06 0)
(1.34693e-06 -3.59355e-06 0)
(1.65848e-06 -3.45201e-06 0)
(1.97587e-06 -3.29121e-06 0)
(2.29865e-06 -3.1148e-06 0)
(2.62683e-06 -2.92739e-06 0)
(2.95756e-06 -2.73183e-06 0)
(1.44139e-07 -3.96381e-06 0)
(4.3308e-07 -3.93391e-06 0)
(7.2411e-07 -3.87505e-06 0)
(1.01833e-06 -3.78904e-06 0)
(1.31664e-06 -3.67826e-06 0)
(1.61959e-06 -3.54576e-06 0)
(1.92751e-06 -3.39506e-06 0)
(2.23983e-06 -3.22949e-06 0)
(2.55682e-06 -3.05312e-06 0)
(2.87546e-06 -2.86901e-06 0)
(1.41212e-07 -4.02954e-06 0)
(4.24157e-07 -4.00153e-06 0)
(7.08949e-07 -3.9464e-06 0)
(9.96498e-07 -3.8658e-06 0)
(1.2876e-06 -3.76193e-06 0)
(1.58269e-06 -3.63757e-06 0)
(1.88205e-06 -3.49597e-06 0)
(2.18507e-06 -3.34023e-06 0)
(2.49217e-06 -3.17392e-06 0)
(2.80031e-06 -3.00029e-06 0)
(1.38277e-07 -4.09613e-06 0)
(4.15319e-07 -4.06983e-06 0)
(6.94008e-07 -4.01803e-06 0)
(9.75127e-07 -3.94227e-06 0)
(1.25938e-06 -3.84461e-06 0)
(1.54714e-06 -3.72757e-06 0)
(1.83865e-06 -3.59418e-06 0)
(2.13328e-06 -3.44736e-06 0)
(2.43152e-06 -3.29026e-06 0)
(2.73046e-06 -3.12617e-06 0)
(1.35315e-07 -4.16344e-06 0)
(4.06462e-07 -4.1387e-06 0)
(6.7907e-07 -4.08989e-06 0)
(9.53895e-07 -4.0185e-06 0)
(1.23153e-06 -3.92643e-06 0)
(1.51235e-06 -3.81601e-06 0)
(1.79656e-06 -3.69005e-06 0)
(2.0835e-06 -3.55131e-06 0)
(2.37371e-06 -3.4026e-06 0)
(2.66447e-06 -3.24718e-06 0)
(1.32321e-07 -4.23129e-06 0)
(3.97489e-07 -4.20797e-06 0)
(6.63957e-07 -4.16187e-06 0)
(9.32527e-07 -4.09442e-06 0)
(1.20369e-06 -4.00742e-06 0)
(1.47782e-06 -3.90301e-06 0)
(1.7551e-06 -3.78378e-06 0)
(2.03491e-06 -3.65238e-06 0)
(2.31773e-06 -3.5113e-06 0)
(2.60114e-06 -3.36377e-06 0)
(1.29259e-07 -4.29953e-06 0)
(3.88263e-07 -4.27748e-06 0)
(6.48469e-07 -4.23386e-06 0)
(9.10723e-07 -4.17001e-06 0)
(1.17546e-06 -4.0876e-06 0)
(1.44302e-06 -3.98866e-06 0)
(1.71362e-06 -3.87556e-06 0)
(1.98668e-06 -3.75082e-06 0)
(2.26264e-06 -3.61672e-06 0)
(2.53934e-06 -3.47634e-06 0)
(1.26066e-07 -4.36791e-06 0)
(3.78646e-07 -4.34701e-06 0)
(6.32401e-07 -4.30567e-06 0)
(8.88184e-07 -4.24511e-06 0)
(1.14643e-06 -4.16691e-06 0)
(1.40746e-06 -4.07296e-06 0)
(1.67151e-06 -3.96548e-06 0)
(1.93808e-06 -3.84683e-06 0)
(2.20754e-06 -3.71911e-06 0)
(2.47802e-06 -3.58524e-06 0)
(1.2269e-07 -4.43625e-06 0)
(3.68514e-07 -4.4164e-06 0)
(6.15542e-07 -4.37717e-06 0)
(8.64609e-07 -4.31964e-06 0)
(1.11619e-06 -4.24533e-06 0)
(1.37061e-06 -4.15599e-06 0)
(1.62812e-06 -4.05367e-06 0)
(1.88833e-06 -3.94061e-06 0)
(2.1515e-06 -3.81875e-06 0)
(2.41606e-06 -3.69081e-06 0)
(1.19096e-07 -4.50417e-06 0)
(3.57756e-07 -4.48529e-06 0)
(5.9768e-07 -4.44803e-06 0)
(8.39687e-07 -4.39335e-06 0)
(1.08432e-06 -4.32264e-06 0)
(1.33192e-06 -4.23757e-06 0)
(1.58279e-06 -4.14004e-06 0)
(1.83663e-06 -4.03216e-06 0)
(2.0936e-06 -3.91571e-06 0)
(2.35244e-06 -3.79321e-06 0)
(1.15242e-07 -4.57156e-06 0)
(3.46224e-07 -4.55361e-06 0)
(5.78541e-07 -4.51821e-06 0)
(8.13028e-07 -4.46619e-06 0)
(1.05032e-06 -4.39887e-06 0)
(1.29078e-06 -4.31782e-06 0)
(1.53477e-06 -4.22479e-06 0)
(1.78207e-06 -4.12175e-06 0)
(2.03283e-06 -4.01034e-06 0)
(2.28595e-06 -3.89293e-06 0)
(1.11074e-07 -4.63768e-06 0)
(3.33739e-07 -4.62062e-06 0)
(5.57829e-07 -4.58698e-06 0)
(7.84217e-07 -4.53751e-06 0)
(1.01362e-06 -4.47344e-06 0)
(1.24651e-06 -4.39621e-06 0)
(1.48324e-06 -4.30746e-06 0)
(1.72369e-06 -4.20901e-06 0)
(1.96805e-06 -4.10238e-06 0)
(2.21542e-06 -3.98977e-06 0)
(1.06499e-07 -4.70286e-06 0)
(3.20026e-07 -4.68667e-06 0)
(5.35097e-07 -4.65473e-06 0)
(7.52654e-07 -4.60774e-06 0)
(9.73494e-07 -4.54682e-06 0)
(1.19817e-06 -4.4733e-06 0)
(1.42711e-06 -4.38866e-06 0)
(1.66031e-06 -4.29462e-06 0)
(1.89792e-06 -4.1926e-06 0)
(2.13936e-06 -4.08457e-06 0)
(1.01471e-07 -4.76509e-06 0)
(3.04979e-07 -4.74976e-06 0)
(5.10157e-07 -4.71952e-06 0)
(7.18036e-07 -4.675e-06 0)
(9.29521e-07 -4.61722e-06 0)
(1.14526e-06 -4.5474e-06 0)
(1.36576e-06 -4.46689e-06 0)
(1.59121e-06 -4.37726e-06 0)
(1.82171e-06 -4.27986e-06 0)
(2.05695e-06 -4.17647e-06 0)
)


// ************************************************************************* //
