/*--------------------------------*- C++ -*----------------------------------*\
| =========                 |                                                 |
| \\      /  F ield         | foam-extend: Open Source CFD                    |
|  \\    /   O peration     | Version:     4.1                                |
|   \\  /    A nd           | Web:         http://www.foam-extend.org         |
|    \\/     M anipulation  |                                                 |
\*---------------------------------------------------------------------------*/
FoamFile
{
    version     2.0;
    format      ascii;
    class       vectorField;
    location    "8";
    object      solidsCellD_iteration17;
}
// * * * * * * * * * * * * * * * * * * * * * * * * * * * * * * * * * * * * * //


1000
(
(4.19456e-06 -1.80708e-06 0)
(3.95395e-06 -1.67982e-06 0)
(3.79951e-06 -1.59829e-06 0)
(3.7101e-06 -1.55928e-06 0)
(3.66552e-06 -1.54449e-06 0)
(3.65357e-06 -1.54844e-06 0)
(3.66567e-06 -1.56457e-06 0)
(3.69584e-06 -1.58974e-06 0)
(3.73953e-06 -1.62108e-06 0)
(3.79418e-06 -1.65662e-06 0)
(3.79205e-06 -1.9738e-06 0)
(3.53588e-06 -1.88449e-06 0)
(3.3717e-06 -1.82692e-06 0)
(3.27514e-06 -1.80415e-06 0)
(3.22507e-06 -1.80011e-06 0)
(3.20825e-06 -1.81164e-06 0)
(3.21572e-06 -1.83318e-06 0)
(3.2411e-06 -1.86238e-06 0)
(3.27971e-06 -1.89706e-06 0)
(3.32803e-06 -1.93464e-06 0)
(3.37406e-06 -2.13186e-06 0)
(3.11241e-06 -2.08498e-06 0)
(2.9449e-06 -2.05425e-06 0)
(2.84531e-06 -2.04946e-06 0)
(2.7923e-06 -2.0572e-06 0)
(2.77215e-06 -2.07686e-06 0)
(2.77583e-06 -2.10406e-06 0)
(2.79688e-06 -2.13732e-06 0)
(2.8306e-06 -2.17524e-06 0)
(2.87348e-06 -2.21507e-06 0)
(2.94368e-06 -2.27843e-06 0)
(2.68747e-06 -2.27605e-06 0)
(2.52356e-06 -2.27352e-06 0)
(2.42532e-06 -2.28755e-06 0)
(2.37209e-06 -2.30752e-06 0)
(2.35023e-06 -2.33555e-06 0)
(2.35102e-06 -2.36846e-06 0)
(2.36818e-06 -2.40579e-06 0)
(2.39729e-06 -2.44678e-06 0)
(2.43469e-06 -2.48902e-06 0)
(2.50382e-06 -2.41061e-06 0)
(2.26392e-06 -2.45238e-06 0)
(2.11058e-06 -2.47781e-06 0)
(2.01816e-06 -2.51042e-06 0)
(1.96744e-06 -2.54244e-06 0)
(1.94549e-06 -2.57868e-06 0)
(1.94432e-06 -2.61715e-06 0)
(1.95803e-06 -2.65844e-06 0)
(1.98266e-06 -2.70237e-06 0)
(2.01454e-06 -2.74707e-06 0)
(2.05668e-06 -2.52573e-06 0)
(1.84371e-06 -2.60882e-06 0)
(1.70765e-06 -2.66045e-06 0)
(1.62528e-06 -2.71042e-06 0)
(1.57963e-06 -2.75369e-06 0)
(1.55918e-06 -2.79755e-06 0)
(1.55693e-06 -2.84116e-06 0)
(1.56758e-06 -2.88612e-06 0)
(1.58775e-06 -2.93274e-06 0)
(1.61398e-06 -2.97986e-06 0)
(1.60437e-06 -2.62118e-06 0)
(1.42778e-06 -2.74046e-06 0)
(1.31499e-06 -2.81508e-06 0)
(1.24648e-06 -2.88028e-06 0)
(1.20828e-06 -2.93337e-06 0)
(1.19077e-06 -2.9839e-06 0)
(1.18818e-06 -3.03197e-06 0)
(1.19609e-06 -3.08015e-06 0)
(1.21179e-06 -3.1291e-06 0)
(1.23226e-06 -3.1784e-06 0)
(1.14841e-06 -2.69482e-06 0)
(1.01616e-06 -2.84318e-06 0)
(9.31716e-07 -2.93624e-06 0)
(8.80331e-07 -3.01365e-06 0)
(8.51557e-07 -3.07464e-06 0)
(8.38148e-07 -3.13052e-06 0)
(8.35817e-07 -3.1822e-06 0)
(8.41233e-07 -3.23298e-06 0)
(8.52455e-07 -3.28381e-06 0)
(8.67109e-07 -3.33493e-06 0)
(6.90075e-07 -2.74489e-06 0)
(6.08196e-07 -2.91358e-06 0)
(5.55944e-07 -3.01952e-06 0)
(5.24071e-07 -3.10549e-06 0)
(5.06139e-07 -3.172e-06 0)
(4.97687e-07 -3.23162e-06 0)
(4.96095e-07 -3.28584e-06 0)
(4.99268e-07 -3.33848e-06 0)
(5.05999e-07 -3.39064e-06 0)
(5.14792e-07 -3.44306e-06 0)
(2.30466e-07 -2.77012e-06 0)
(2.02729e-07 -2.94932e-06 0)
(1.84964e-07 -3.06191e-06 0)
(1.74117e-07 -3.15228e-06 0)
(1.6803e-07 -3.22165e-06 0)
(1.65128e-07 -3.28322e-06 0)
(1.64513e-07 -3.33871e-06 0)
(1.65529e-07 -3.39229e-06 0)
(1.67773e-07 -3.44515e-06 0)
(1.70695e-07 -3.49827e-06 0)
(6.55416e-06 -8.24924e-08 0)
(6.61398e-06 -5.93757e-08 0)
(6.64942e-06 -4.46775e-08 0)
(6.68726e-06 -3.59949e-08 0)
(6.72821e-06 -3.11139e-08 0)
(6.77857e-06 -2.87968e-08 0)
(6.83828e-06 -2.8245e-08 0)
(6.90816e-06 -2.88093e-08 0)
(6.98797e-06 -3.0176e-08 0)
(7.07667e-06 -3.18687e-08 0)
(6.5054e-06 -2.47483e-07 0)
(6.55523e-06 -1.79485e-07 0)
(6.58442e-06 -1.36284e-07 0)
(6.61807e-06 -1.10859e-07 0)
(6.65625e-06 -9.67183e-08 0)
(6.70465e-06 -9.0053e-08 0)
(6.76295e-06 -8.84772e-08 0)
(6.83166e-06 -9.02812e-08 0)
(6.9105e-06 -9.4476e-08 0)
(6.99816e-06 -9.95501e-08 0)
(6.40807e-06 -4.13861e-07 0)
(6.43886e-06 -3.04694e-07 0)
(6.45597e-06 -2.3541e-07 0)
(6.48164e-06 -1.94656e-07 0)
(6.51455e-06 -1.72051e-07 0)
(6.55921e-06 -1.61611e-07 0)
(6.61476e-06 -1.59362e-07 0)
(6.68127e-06 -1.62517e-07 0)
(6.75823e-06 -1.69522e-07 0)
(6.84385e-06 -1.78015e-07 0)
(6.26389e-06 -5.82341e-07 0)
(6.26759e-06 -4.37883e-07 0)
(6.26752e-06 -3.46258e-07 0)
(6.28182e-06 -2.92595e-07 0)
(6.3072e-06 -2.62965e-07 0)
(6.34657e-06 -2.49531e-07 0)
(6.39822e-06 -2.4701e-07 0)
(6.46157e-06 -2.5172e-07 0)
(6.53585e-06 -2.61505e-07 0)
(6.61863e-06 -2.73422e-07 0)
(6.07515e-06 -7.53372e-07 0)
(6.04536e-06 -5.81445e-07 0)
(6.02404e-06 -4.72403e-07 0)
(6.02425e-06 -4.0895e-07 0)
(6.04031e-06 -3.74213e-07 0)
(6.07308e-06 -3.58933e-07 0)
(6.11989e-06 -3.56721e-07 0)
(6.17932e-06 -3.63266e-07 0)
(6.25027e-06 -3.75847e-07 0)
(6.32958e-06 -3.91186e-07 0)
(5.8447e-06 -9.27063e-07 0)
(5.77702e-06 -7.36998e-07 0)
(5.7317e-06 -6.16381e-07 0)
(5.71598e-06 -5.46828e-07 0)
(5.72146e-06 -5.09225e-07 0)
(5.74669e-06 -4.93437e-07 0)
(5.78797e-06 -4.9224e-07 0)
(5.8429e-06 -5.00952e-07 0)
(5.90999e-06 -5.16366e-07 0)
(5.98538e-06 -5.35105e-07 0)
(5.57598e-06 -1.10304e-06 0)
(5.46827e-06 -9.05168e-07 0)
(5.39762e-06 -7.79461e-07 0)
(5.36504e-06 -7.07863e-07 0)
(5.35929e-06 -6.69864e-07 0)
(5.3765e-06 -6.55065e-07 0)
(5.41182e-06 -6.557e-07 0)
(5.46191e-06 -6.66926e-07 0)
(5.52477e-06 -6.85231e-07 0)
(5.59601e-06 -7.0731e-07 0)
(5.27265e-06 -1.28048e-06 0)
(5.12526e-06 -1.08549e-06 0)
(5.02954e-06 -9.61456e-07 0)
(4.98019e-06 -8.92091e-07 0)
(4.96323e-06 -8.56283e-07 0)
(4.97233e-06 -8.44038e-07 0)
(5.00151e-06 -8.47363e-07 0)
(5.04655e-06 -8.61532e-07 0)
(5.1049e-06 -8.82809e-07 0)
(5.17185e-06 -9.08252e-07 0)
(4.93866e-06 -1.45816e-06 0)
(4.75439e-06 -1.2765e-06 0)
(4.63538e-06 -1.16079e-06 0)
(4.57034e-06 -1.09784e-06 0)
(4.54278e-06 -1.06677e-06 0)
(4.54404e-06 -1.05858e-06 0)
(4.56714e-06 -1.06547e-06 0)
(4.60713e-06 -1.08296e-06 0)
(4.66078e-06 -1.10751e-06 0)
(4.72357e-06 -1.13616e-06 0)
(4.57799e-06 -1.63441e-06 0)
(4.36199e-06 -1.47574e-06 0)
(4.22295e-06 -1.37447e-06 0)
(4.14428e-06 -1.32183e-06 0)
(4.10732e-06 -1.29788e-06 0)
(4.10146e-06 -1.29516e-06 0)
(4.11888e-06 -1.30636e-06 0)
(4.15384e-06 -1.32768e-06 0)
(4.20276e-06 -1.35555e-06 0)
(4.26125e-06 -1.38861e-06 0)
(7.17458e-06 -3.35701e-08 0)
(7.28136e-06 -3.38759e-08 0)
(7.395e-06 -3.4258e-08 0)
(7.51512e-06 -3.45168e-08 0)
(7.64095e-06 -3.46236e-08 0)
(7.77197e-06 -3.45632e-08 0)
(7.90761e-06 -3.42701e-08 0)
(8.04735e-06 -3.37532e-08 0)
(8.19076e-06 -3.30159e-08 0)
(8.33735e-06 -3.20392e-08 0)
(8.48667e-06 -3.07918e-08 0)
(8.63828e-06 -2.92504e-08 0)
(8.79175e-06 -2.73856e-08 0)
(8.9466e-06 -2.517e-08 0)
(9.10241e-06 -2.25704e-08 0)
(9.25857e-06 -1.95433e-08 0)
(9.41476e-06 -1.60262e-08 0)
(9.5699e-06 -1.19472e-08 0)
(9.72421e-06 -7.2045e-09 0)
(9.87507e-06 -1.75768e-09 0)
(7.09956e-06 -1.04253e-07 0)
(7.21264e-06 -1.04667e-07 0)
(7.33192e-06 -1.05388e-07 0)
(7.45693e-06 -1.05825e-07 0)
(7.58711e-06 -1.05808e-07 0)
(7.72196e-06 -1.05334e-07 0)
(7.86105e-06 -1.0427e-07 0)
(8.00392e-06 -1.02608e-07 0)
(8.15017e-06 -1.0028e-07 0)
(8.29934e-06 -9.72226e-08 0)
(8.45104e-06 -9.33673e-08 0)
(8.60486e-06 -8.86638e-08 0)
(8.76039e-06 -8.30275e-08 0)
(8.91718e-06 -7.63607e-08 0)
(9.07484e-06 -6.85438e-08 0)
(9.23275e-06 -5.94411e-08 0)
(9.39062e-06 -4.88682e-08 0)
(9.54739e-06 -3.66235e-08 0)
(9.70331e-06 -2.2396e-08 0)
(9.85577e-06 -6.06681e-09 0)
(6.95208e-06 -1.84659e-07 0)
(7.07752e-06 -1.83787e-07 0)
(7.20782e-06 -1.83573e-07 0)
(7.34236e-06 -1.83217e-07 0)
(7.48106e-06 -1.82294e-07 0)
(7.62347e-06 -1.80803e-07 0)
(7.76936e-06 -1.78451e-07 0)
(7.91832e-06 -1.75199e-07 0)
(8.07012e-06 -1.70914e-07 0)
(8.22435e-06 -1.65499e-07 0)
(8.38072e-06 -1.58838e-07 0)
(8.53886e-06 -1.50828e-07 0)
(8.69843e-06 -1.41309e-07 0)
(8.859e-06 -1.30107e-07 0)
(9.02024e-06 -1.17021e-07 0)
(9.18159e-06 -1.01821e-07 0)
(9.34277e-06 -8.41912e-08 0)
(9.50277e-06 -6.3799e-08 0)
(9.66187e-06 -4.01121e-08 0)
(9.81751e-06 -1.29367e-08 0)
(6.73658e-06 -2.80316e-07 0)
(6.87974e-06 -2.7599e-07 0)
(7.02599e-06 -2.72854e-07 0)
(7.17438e-06 -2.7017e-07 0)
(7.32552e-06 -2.67042e-07 0)
(7.47891e-06 -2.63493e-07 0)
(7.63472e-06 -2.59005e-07 0)
(7.79263e-06 -2.53503e-07 0)
(7.95258e-06 -2.46753e-07 0)
(8.11427e-06 -2.38583e-07 0)
(8.2775e-06 -2.28796e-07 0)
(8.442e-06 -2.17219e-07 0)
(8.6075e-06 -2.03625e-07 0)
(8.77364e-06 -1.87765e-07 0)
(8.94016e-06 -1.69353e-07 0)
(9.10654e-06 -1.48041e-07 0)
(9.27256e-06 -1.23381e-07 0)
(9.43729e-06 -9.48974e-08 0)
(9.60101e-06 -6.18255e-08 0)
(9.7613e-06 -2.39046e-08 0)
(6.4596e-06 -3.96155e-07 0)
(6.62498e-06 -3.85553e-07 0)
(6.79145e-06 -3.76917e-07 0)
(6.95741e-06 -3.69922e-07 0)
(7.1244e-06 -3.6292e-07 0)
(7.29189e-06 -3.55975e-07 0)
(7.46045e-06 -3.48274e-07 0)
(7.62987e-06 -3.39655e-07 0)
(7.80031e-06 -3.29725e-07 0)
(7.97159e-06 -3.1822e-07 0)
(8.14368e-06 -3.04858e-07 0)
(8.3164e-06 -2.89382e-07 0)
(8.48957e-06 -2.71472e-07 0)
(8.66294e-06 -2.50788e-07 0)
(8.83629e-06 -2.26939e-07 0)
(9.00919e-06 -1.9946e-07 0)
(9.18149e-06 -1.67765e-07 0)
(9.35231e-06 -1.31235e-07 0)
(9.52204e-06 -8.88746e-08 0)
(9.68835e-06 -4.03385e-08 0)
(6.12902e-06 -5.35701e-07 0)
(6.31998e-06 -5.15557e-07 0)
(6.5101e-06 -4.98383e-07 0)
(6.69673e-06 -4.84671e-07 0)
(6.88252e-06 -4.71814e-07 0)
(7.06679e-06 -4.59844e-07 0)
(7.25055e-06 -4.47596e-07 0)
(7.43377e-06 -4.34769e-07 0)
(7.6168e-06 -4.20807e-07 0)
(7.79965e-06 -4.05303e-07 0)
(7.98241e-06 -3.87866e-07 0)
(8.16502e-06 -3.68118e-07 0)
(8.34743e-06 -3.45629e-07 0)
(8.52946e-06 -3.19951e-07 0)
(8.71102e-06 -2.90572e-07 0)
(8.89174e-06 -2.56909e-07 0)
(9.07159e-06 -2.18221e-07 0)
(9.24973e-06 -1.73748e-07 0)
(9.42667e-06 -1.22271e-07 0)
(9.60019e-06 -6.33085e-08 0)
(5.7541e-06 -7.01124e-07 0)
(5.97281e-06 -6.68133e-07 0)
(6.189e-06 -6.39401e-07 0)
(6.39861e-06 -6.16398e-07 0)
(6.6054e-06 -5.95591e-07 0)
(6.80858e-06 -5.7681e-07 0)
(7.00956e-06 -5.58598e-07 0)
(7.20846e-06 -5.40386e-07 0)
(7.40585e-06 -5.21439e-07 0)
(7.6019e-06 -5.01176e-07 0)
(7.79687e-06 -4.79054e-07 0)
(7.99082e-06 -4.54555e-07 0)
(8.18381e-06 -4.27127e-07 0)
(8.37581e-06 -3.96206e-07 0)
(8.56679e-06 -3.61149e-07 0)
(8.7565e-06 -3.21245e-07 0)
(8.94498e-06 -2.75592e-07 0)
(9.13153e-06 -2.23281e-07 0)
(9.3167e-06 -1.62879e-07 0)
(9.4985e-06 -9.3758e-08 0)
(5.3442e-06 -8.92893e-07 0)
(5.5915e-06 -8.43401e-07 0)
(5.83505e-06 -8.00064e-07 0)
(6.06925e-06 -7.64905e-07 0)
(6.29867e-06 -7.33953e-07 0)
(6.52247e-06 -7.06432e-07 0)
(6.74232e-06 -6.80749e-07 0)
(6.9585e-06 -6.55932e-07 0)
(7.17174e-06 -6.31043e-07 0)
(7.3824e-06 -6.05281e-07 0)
(7.59088e-06 -5.77921e-07 0)
(7.79738e-06 -5.48277e-07 0)
(8.00211e-06 -5.1565e-07 0)
(8.20514e-06 -4.7934e-07 0)
(8.40655e-06 -4.3856e-07 0)
(8.6062e-06 -3.92458e-07 0)
(8.80422e-06 -3.39974e-07 0)
(9.00004e-06 -2.80035e-07 0)
(9.1943e-06 -2.11001e-07 0)
(9.38524e-06 -1.32098e-07 0)
(4.90951e-06 -1.11063e-06 0)
(5.18532e-06 -1.04165e-06 0)
(5.45612e-06 -9.81823e-07 0)
(5.71569e-06 -9.32069e-07 0)
(5.9684e-06 -8.89035e-07 0)
(6.21382e-06 -8.50998e-07 0)
(6.45351e-06 -8.16308e-07 0)
(6.68803e-06 -7.83566e-07 0)
(6.91818e-06 -7.51618e-07 0)
(7.14452e-06 -7.19423e-07 0)
(7.36753e-06 -6.86059e-07 0)
(7.58759e-06 -6.50661e-07 0)
(7.805e-06 -6.12375e-07 0)
(8.01997e-06 -5.70347e-07 0)
(8.23267e-06 -5.23638e-07 0)
(8.44306e-06 -4.71238e-07 0)
(8.65139e-06 -4.11939e-07 0)
(8.85723e-06 -3.44504e-07 0)
(9.06131e-06 -2.67118e-07 0)
(9.26215e-06 -1.78867e-07 0)
(4.45817e-06 -1.35035e-06 0)
(4.76235e-06 -1.25741e-06 0)
(5.05911e-06 -1.17904e-06 0)
(5.34461e-06 -1.11238e-06 0)
(5.62107e-06 -1.05532e-06 0)
(5.889e-06 -1.00524e-06 0)
(6.14942e-06 -9.60285e-07 0)
(6.40317e-06 -9.18694e-07 0)
(6.6511e-06 -8.79007e-07 0)
(6.89389e-06 -8.3991e-07 0)
(7.13217e-06 -8.0024e-07 0)
(7.36645e-06 -7.58927e-07 0)
(7.59716e-06 -7.14929e-07 0)
(7.82461e-06 -6.67229e-07 0)
(8.04909e-06 -6.14723e-07 0)
(8.27071e-06 -5.56251e-07 0)
(8.48979e-06 -4.90466e-07 0)
(8.70609e-06 -4.1595e-07 0)
(8.92043e-06 -3.30734e-07 0)
(9.13168e-06 -2.33724e-07 0)
(4.12545e-06 -1.57846e-06 0)
(4.4475e-06 -1.46663e-06 0)
(4.75912e-06 -1.37471e-06 0)
(5.06011e-06 -1.29479e-06 0)
(5.35126e-06 -1.22554e-06 0)
(5.63329e-06 -1.1643e-06 0)
(5.90708e-06 -1.10915e-06 0)
(6.17343e-06 -1.05827e-06 0)
(6.43314e-06 -1.01009e-06 0)
(6.68689e-06 -9.63189e-07 0)
(6.93535e-06 -9.16281e-07 0)
(7.17906e-06 -8.68179e-07 0)
(7.41851e-06 -8.17725e-07 0)
(7.65408e-06 -7.63794e-07 0)
(7.88613e-06 -7.05188e-07 0)
(8.11488e-06 -6.4065e-07 0)
(8.34073e-06 -5.68789e-07 0)
(8.56366e-06 -4.88097e-07 0)
(8.78449e-06 -3.96569e-07 0)
(9.00244e-06 -2.93058e-07 0)
(3.93419e-06 -1.76255e-06 0)
(4.25844e-06 -1.64658e-06 0)
(4.57256e-06 -1.54726e-06 0)
(4.87743e-06 -1.45941e-06 0)
(5.17306e-06 -1.38175e-06 0)
(5.45995e-06 -1.31212e-06 0)
(5.73873e-06 -1.24872e-06 0)
(6.01e-06 -1.18988e-06 0)
(6.27444e-06 -1.13407e-06 0)
(6.53264e-06 -1.07989e-06 0)
(6.78521e-06 -1.02607e-06 0)
(7.03268e-06 -9.71395e-07 0)
(7.27551e-06 -9.14688e-07 0)
(7.51412e-06 -8.54807e-07 0)
(7.7489e-06 -7.9054e-07 0)
(7.98015e-06 -7.20626e-07 0)
(8.2083e-06 -6.43713e-07 0)
(8.4335e-06 -5.58318e-07 0)
(8.65656e-06 -4.62517e-07 0)
(8.87704e-06 -3.55238e-07 0)
(3.76955e-06 -1.9399e-06 0)
(4.09079e-06 -1.82106e-06 0)
(4.40441e-06 -1.71675e-06 0)
(4.7099e-06 -1.62275e-06 0)
(5.00723e-06 -1.53814e-06 0)
(5.29647e-06 -1.46116e-06 0)
(5.57805e-06 -1.39029e-06 0)
(5.85235e-06 -1.32402e-06 0)
(6.11989e-06 -1.26094e-06 0)
(6.38116e-06 -1.19972e-06 0)
(6.6367e-06 -1.13914e-06 0)
(6.88697e-06 -1.078e-06 0)
(7.13241e-06 -1.01513e-06 0)
(7.37345e-06 -9.49407e-07 0)
(7.61047e-06 -8.79631e-07 0)
(7.84385e-06 -8.04561e-07 0)
(8.07404e-06 -7.229e-07 0)
(8.3013e-06 -6.33236e-07 0)
(8.52644e-06 -5.33749e-07 0)
(8.74932e-06 -4.2348e-07 0)
(3.62387e-06 -2.11098e-06 0)
(3.94062e-06 -1.99066e-06 0)
(4.25156e-06 -1.88255e-06 0)
(4.55554e-06 -1.78346e-06 0)
(4.85248e-06 -1.69283e-06 0)
(5.14216e-06 -1.60933e-06 0)
(5.42478e-06 -1.53167e-06 0)
(5.70056e-06 -1.45853e-06 0)
(5.96985e-06 -1.38863e-06 0)
(6.23305e-06 -1.32076e-06 0)
(6.49056e-06 -1.25375e-06 0)
(6.7428e-06 -1.18644e-06 0)
(6.99017e-06 -1.1177e-06 0)
(7.23308e-06 -1.04643e-06 0)
(7.47192e-06 -9.71474e-07 0)
(7.70708e-06 -8.91636e-07 0)
(7.93904e-06 -8.0568e-07 0)
(8.16815e-06 -7.12291e-07 0)
(8.39518e-06 -6.09793e-07 0)
(8.62029e-06 -4.97347e-07 0)
(3.49526e-06 -2.27484e-06 0)
(3.80612e-06 -2.15404e-06 0)
(4.1128e-06 -2.0434e-06 0)
(4.41363e-06 -1.94046e-06 0)
(4.70856e-06 -1.84496e-06 0)
(4.9971e-06 -1.75593e-06 0)
(5.27932e-06 -1.6723e-06 0)
(5.55524e-06 -1.59297e-06 0)
(5.8251e-06 -1.51683e-06 0)
(6.08915e-06 -1.44278e-06 0)
(6.34773e-06 -1.36974e-06 0)
(6.60117e-06 -1.2966e-06 0)
(6.84982e-06 -1.2223e-06 0)
(7.09407e-06 -1.14581e-06 0)
(7.33428e-06 -1.06599e-06 0)
(7.57088e-06 -9.81747e-07 0)
(7.80433e-06 -8.91906e-07 0)
(8.03506e-06 -7.95266e-07 0)
(8.2638e-06 -6.90331e-07 0)
(8.49095e-06 -5.76385e-07 0)
(3.38076e-06 -2.43163e-06 0)
(3.68502e-06 -2.31114e-06 0)
(3.98645e-06 -2.19889e-06 0)
(4.28298e-06 -2.09303e-06 0)
(4.57471e-06 -1.99359e-06 0)
(4.86089e-06 -1.89987e-06 0)
(5.14152e-06 -1.81105e-06 0)
(5.41648e-06 -1.72624e-06 0)
(5.68589e-06 -1.64447e-06 0)
(5.9499e-06 -1.56478e-06 0)
(6.20874e-06 -1.48618e-06 0)
(6.46267e-06 -1.40765e-06 0)
(6.71202e-06 -1.32821e-06 0)
(6.95711e-06 -1.24688e-06 0)
(7.19829e-06 -1.1626e-06 0)
(7.436e-06 -1.07437e-06 0)
(7.67066e-06 -9.81099e-07 0)
(7.90277e-06 -8.81702e-07 0)
(8.13302e-06 -7.74881e-07 0)
(8.36198e-06 -6.60029e-07 0)
(3.2781e-06 -2.5815e-06 0)
(3.57537e-06 -2.46186e-06 0)
(3.87084e-06 -2.34874e-06 0)
(4.16234e-06 -2.2408e-06 0)
(4.44997e-06 -2.13827e-06 0)
(4.7329e-06 -2.04068e-06 0)
(5.01103e-06 -1.94745e-06 0)
(5.28415e-06 -1.85785e-06 0)
(5.55229e-06 -1.77109e-06 0)
(5.81548e-06 -1.68632e-06 0)
(6.07389e-06 -1.60267e-06 0)
(6.32772e-06 -1.51923e-06 0)
(6.57723e-06 -1.43508e-06 0)
(6.82272e-06 -1.34934e-06 0)
(7.06451e-06 -1.26101e-06 0)
(7.30299e-06 -1.16921e-06 0)
(7.53862e-06 -1.07293e-06 0)
(7.77187e-06 -9.71233e-07 0)
(8.00345e-06 -8.63002e-07 0)
(8.23397e-06 -7.47733e-07 0)
(3.18513e-06 -2.72478e-06 0)
(3.47526e-06 -2.60637e-06 0)
(3.7644e-06 -2.49294e-06 0)
(4.05039e-06 -2.38357e-06 0)
(4.33333e-06 -2.27865e-06 0)
(4.61235e-06 -2.1779e-06 0)
(4.88731e-06 -2.08096e-06 0)
(5.1579e-06 -1.98725e-06 0)
(5.42408e-06 -1.89611e-06 0)
(5.68584e-06 -1.80684e-06 0)
(5.94326e-06 -1.71869e-06 0)
(6.19648e-06 -1.63083e-06 0)
(6.44572e-06 -1.54244e-06 0)
(6.69122e-06 -1.45274e-06 0)
(6.93328e-06 -1.36081e-06 0)
(7.17228e-06 -1.26586e-06 0)
(7.40862e-06 -1.167e-06 0)
(7.64283e-06 -1.06343e-06 0)
(7.87551e-06 -9.54204e-07 0)
(8.10735e-06 -8.38928e-07 0)
(3.09994e-06 -2.86189e-06 0)
(3.38295e-06 -2.74493e-06 0)
(3.6656e-06 -2.6316e-06 0)
(3.94582e-06 -2.52132e-06 0)
(4.22369e-06 -2.4146e-06 0)
(4.49836e-06 -2.31134e-06 0)
(4.76965e-06 -2.21132e-06 0)
(5.03721e-06 -2.11412e-06 0)
(5.30095e-06 -2.01921e-06 0)
(5.5608e-06 -1.92602e-06 0)
(5.81678e-06 -1.83391e-06 0)
(6.069e-06 -1.74214e-06 0)
(6.3176e-06 -1.65e-06 0)
(6.5628e-06 -1.55679e-06 0)
(6.80487e-06 -1.46168e-06 0)
(7.04414e-06 -1.364e-06 0)
(7.281e-06 -1.26297e-06 0)
(7.51596e-06 -1.1579e-06 0)
(7.74953e-06 -1.04803e-06 0)
(7.9825e-06 -9.33081e-07 0)
(3.02085e-06 -2.99328e-06 0)
(3.29687e-06 -2.87788e-06 0)
(3.57303e-06 -2.76493e-06 0)
(3.84735e-06 -2.65414e-06 0)
(4.11996e-06 -2.54612e-06 0)
(4.39002e-06 -2.44088e-06 0)
(4.65733e-06 -2.33834e-06 0)
(4.92153e-06 -2.23823e-06 0)
(5.18247e-06 -2.14012e-06 0)
(5.44006e-06 -2.04356e-06 0)
(5.69429e-06 -1.94802e-06 0)
(5.94519e-06 -1.85285e-06 0)
(6.19288e-06 -1.75744e-06 0)
(6.43753e-06 -1.66118e-06 0)
(6.67937e-06 -1.56332e-06 0)
(6.91872e-06 -1.46331e-06 0)
(7.1559e-06 -1.36049e-06 0)
(7.39142e-06 -1.25426e-06 0)
(7.62571e-06 -1.14405e-06 0)
(7.8596e-06 -1.02967e-06 0)
(2.94637e-06 -3.11941e-06 0)
(3.2156e-06 -3.00559e-06 0)
(3.48535e-06 -2.8932e-06 0)
(3.75381e-06 -2.78222e-06 0)
(4.0211e-06 -2.67329e-06 0)
(4.28643e-06 -2.56653e-06 0)
(4.54958e-06 -2.46199e-06 0)
(4.81021e-06 -2.35948e-06 0)
(5.06814e-06 -2.2587e-06 0)
(5.32325e-06 -2.1593e-06 0)
(5.57548e-06 -2.06084e-06 0)
(5.82484e-06 -1.96276e-06 0)
(6.07141e-06 -1.86454e-06 0)
(6.31532e-06 -1.76566e-06 0)
(6.55676e-06 -1.66548e-06 0)
(6.79601e-06 -1.56352e-06 0)
(7.03336e-06 -1.45923e-06 0)
(7.26925e-06 -1.35214e-06 0)
(7.50411e-06 -1.24183e-06 0)
(7.73871e-06 -1.12821e-06 0)
(2.87513e-06 -3.24072e-06 0)
(3.13784e-06 -3.12843e-06 0)
(3.40134e-06 -3.01673e-06 0)
(3.66406e-06 -2.90579e-06 0)
(3.92607e-06 -2.79627e-06 0)
(4.18665e-06 -2.68838e-06 0)
(4.44561e-06 -2.58228e-06 0)
(4.70258e-06 -2.47784e-06 0)
(4.95738e-06 -2.37487e-06 0)
(5.20987e-06 -2.27312e-06 0)
(5.45997e-06 -2.17222e-06 0)
(5.70766e-06 -2.0717e-06 0)
(5.95298e-06 -1.97112e-06 0)
(6.19602e-06 -1.87005e-06 0)
(6.43693e-06 -1.76792e-06 0)
(6.67596e-06 -1.66436e-06 0)
(6.91334e-06 -1.55891e-06 0)
(7.14948e-06 -1.45121e-06 0)
(7.38478e-06 -1.341e-06 0)
(7.6199e-06 -1.22822e-06 0)
(2.80593e-06 -3.35763e-06 0)
(3.06237e-06 -3.24679e-06 0)
(3.31987e-06 -3.13585e-06 0)
(3.57701e-06 -3.0251e-06 0)
(3.83387e-06 -2.91525e-06 0)
(4.08978e-06 -2.80657e-06 0)
(4.34458e-06 -2.69928e-06 0)
(4.5979e-06 -2.59335e-06 0)
(4.84957e-06 -2.48864e-06 0)
(5.09943e-06 -2.38499e-06 0)
(5.34736e-06 -2.28211e-06 0)
(5.59331e-06 -2.17959e-06 0)
(5.83731e-06 -2.07707e-06 0)
(6.0794e-06 -1.97419e-06 0)
(6.3197e-06 -1.87047e-06 0)
(6.5584e-06 -1.76562e-06 0)
(6.7957e-06 -1.65928e-06 0)
(7.032e-06 -1.5512e-06 0)
(7.26757e-06 -1.44122e-06 0)
(7.50309e-06 -1.32934e-06 0)
(2.73761e-06 -3.47047e-06 0)
(2.98808e-06 -3.36103e-06 0)
(3.23981e-06 -3.25085e-06 0)
(3.4916e-06 -3.14043e-06 0)
(3.7435e-06 -3.03047e-06 0)
(3.99492e-06 -2.92128e-06 0)
(4.24571e-06 -2.81316e-06 0)
(4.4955e-06 -2.70611e-06 0)
(4.74412e-06 -2.60008e-06 0)
(4.99137e-06 -2.49494e-06 0)
(5.23715e-06 -2.39048e-06 0)
(5.48137e-06 -2.28636e-06 0)
(5.72403e-06 -2.18229e-06 0)
(5.96514e-06 -2.07796e-06 0)
(6.20478e-06 -1.97298e-06 0)
(6.4431e-06 -1.86712e-06 0)
(6.68026e-06 -1.76013e-06 0)
(6.91662e-06 -1.65183e-06 0)
(7.15235e-06 -1.54216e-06 0)
(7.38813e-06 -1.43122e-06 0)
(2.66901e-06 -3.57963e-06 0)
(2.91379e-06 -3.47145e-06 0)
(3.16006e-06 -3.36207e-06 0)
(3.40677e-06 -3.2521e-06 0)
(3.65399e-06 -3.14221e-06 0)
(3.90118e-06 -3.03278e-06 0)
(4.14817e-06 -2.92412e-06 0)
(4.39461e-06 -2.81629e-06 0)
(4.64033e-06 -2.70929e-06 0)
(4.88512e-06 -2.60304e-06 0)
(5.12885e-06 -2.49739e-06 0)
(5.37143e-06 -2.39204e-06 0)
(5.6128e-06 -2.28676e-06 0)
(5.85296e-06 -2.18132e-06 0)
(6.09194e-06 -2.07536e-06 0)
(6.32986e-06 -1.96874e-06 0)
(6.56686e-06 -1.86128e-06 0)
(6.80319e-06 -1.75288e-06 0)
(7.03904e-06 -1.64359e-06 0)
(7.27495e-06 -1.53355e-06 0)
(2.59904e-06 -3.68536e-06 0)
(2.83842e-06 -3.57849e-06 0)
(3.07948e-06 -3.46983e-06 0)
(3.32151e-06 -3.36037e-06 0)
(3.56439e-06 -3.25075e-06 0)
(3.80768e-06 -3.1413e-06 0)
(4.05117e-06 -3.03237e-06 0)
(4.29454e-06 -2.92407e-06 0)
(4.5376e-06 -2.81643e-06 0)
(4.78013e-06 -2.70941e-06 0)
(5.02198e-06 -2.60291e-06 0)
(5.26303e-06 -2.49668e-06 0)
(5.50322e-06 -2.39051e-06 0)
(5.74248e-06 -2.28422e-06 0)
(5.98084e-06 -2.17753e-06 0)
(6.21839e-06 -2.07036e-06 0)
(6.4552e-06 -1.96259e-06 0)
(6.69146e-06 -1.85419e-06 0)
(6.92737e-06 -1.74529e-06 0)
(7.16333e-06 -1.63608e-06 0)
(2.52656e-06 -3.78812e-06 0)
(2.76068e-06 -3.68217e-06 0)
(2.99682e-06 -3.57446e-06 0)
(3.23474e-06 -3.46574e-06 0)
(3.47368e-06 -3.35651e-06 0)
(3.71352e-06 -3.24724e-06 0)
(3.95389e-06 -3.13827e-06 0)
(4.19456e-06 -3.02976e-06 0)
(4.43528e-06 -2.92175e-06 0)
(4.67583e-06 -2.81426e-06 0)
(4.91604e-06 -2.70721e-06 0)
(5.15576e-06 -2.60037e-06 0)
(5.3949e-06 -2.49357e-06 0)
(5.63339e-06 -2.3867e-06 0)
(5.87121e-06 -2.2795e-06 0)
(6.10843e-06 -2.17194e-06 0)
(6.34505e-06 -2.06396e-06 0)
(6.58126e-06 -1.9556e-06 0)
(6.81714e-06 -1.84708e-06 0)
(7.05312e-06 -1.73861e-06 0)
(2.44984e-06 -3.88779e-06 0)
(2.67951e-06 -3.7829e-06 0)
(2.91161e-06 -3.67636e-06 0)
(3.14555e-06 -3.56841e-06 0)
(3.3811e-06 -3.45974e-06 0)
(3.6179e-06 -3.35084e-06 0)
(3.85566e-06 -3.24205e-06 0)
(4.09406e-06 -3.13358e-06 0)
(4.33284e-06 -3.02549e-06 0)
(4.57177e-06 -2.91779e-06 0)
(4.81064e-06 -2.81044e-06 0)
(5.04927e-06 -2.70323e-06 0)
(5.28755e-06 -2.59605e-06 0)
(5.52541e-06 -2.48879e-06 0)
(5.76279e-06 -2.38126e-06 0)
(5.99973e-06 -2.27345e-06 0)
(6.23619e-06 -2.16532e-06 0)
(6.47239e-06 -2.05701e-06 0)
(6.70826e-06 -1.94881e-06 0)
(6.94416e-06 -1.84099e-06 0)
(2.36787e-06 -3.98545e-06 0)
(2.59345e-06 -3.88183e-06 0)
(2.82189e-06 -3.7762e-06 0)
(3.05261e-06 -3.6691e-06 0)
(3.2854e-06 -3.56111e-06 0)
(3.51983e-06 -3.45273e-06 0)
(3.75559e-06 -3.34432e-06 0)
(3.99232e-06 -3.23608e-06 0)
(4.22971e-06 -3.12807e-06 0)
(4.46746e-06 -3.02035e-06 0)
(4.70535e-06 -2.91288e-06 0)
(4.9432e-06 -2.8055e-06 0)
(5.18086e-06 -2.69811e-06 0)
(5.41823e-06 -2.59064e-06 0)
(5.65527e-06 -2.48287e-06 0)
(5.892e-06 -2.37486e-06 0)
(6.1284e-06 -2.26667e-06 0)
(6.36456e-06 -2.15837e-06 0)
(6.60049e-06 -2.05037e-06 0)
(6.83636e-06 -1.94305e-06 0)
(2.27961e-06 -4.08032e-06 0)
(2.50163e-06 -3.97812e-06 0)
(2.72703e-06 -3.87378e-06 0)
(2.95529e-06 -3.76777e-06 0)
(3.18606e-06 -3.66072e-06 0)
(3.4189e-06 -3.55309e-06 0)
(3.65339e-06 -3.44527e-06 0)
(3.8891e-06 -3.33745e-06 0)
(4.12567e-06 -3.22969e-06 0)
(4.36277e-06 -3.12211e-06 0)
(4.60012e-06 -3.0147e-06 0)
(4.83749e-06 -2.90729e-06 0)
(5.07475e-06 -2.79979e-06 0)
(5.3118e-06 -2.69219e-06 0)
(5.54858e-06 -2.58434e-06 0)
(5.78513e-06 -2.47622e-06 0)
(6.02149e-06 -2.36796e-06 0)
(6.25768e-06 -2.25963e-06 0)
(6.49377e-06 -2.1517e-06 0)
(6.72975e-06 -2.04468e-06 0)
(1.69962e-07 -3.55276e-06 0)
(5.123e-07 -3.50016e-06 0)
(8.619e-07 -3.39706e-06 0)
(1.22287e-06 -3.24759e-06 0)
(1.59857e-06 -3.05751e-06 0)
(1.99108e-06 -2.83391e-06 0)
(2.40123e-06 -2.585e-06 0)
(2.82827e-06 -2.3193e-06 0)
(3.27058e-06 -2.04553e-06 0)
(3.72479e-06 -1.77068e-06 0)
(1.65055e-07 -3.60931e-06 0)
(4.97217e-07 -3.56124e-06 0)
(8.35442e-07 -3.46696e-06 0)
(1.18321e-06 -3.32996e-06 0)
(1.54336e-06 -3.15516e-06 0)
(1.91772e-06 -2.94856e-06 0)
(2.30703e-06 -2.71716e-06 0)
(2.71053e-06 -2.46833e-06 0)
(3.12626e-06 -2.20997e-06 0)
(3.55156e-06 -1.94782e-06 0)
(1.60746e-07 -3.6672e-06 0)
(4.83939e-07 -3.62324e-06 0)
(8.12098e-07 -3.53694e-06 0)
(1.14803e-06 -3.41133e-06 0)
(1.49412e-06 -3.25069e-06 0)
(1.8519e-06 -3.06021e-06 0)
(2.22214e-06 -2.84586e-06 0)
(2.60457e-06 -2.61387e-06 0)
(2.99781e-06 -2.37104e-06 0)
(3.40011e-06 -2.12105e-06 0)
(1.56929e-07 -3.72656e-06 0)
(4.72184e-07 -3.6861e-06 0)
(7.91605e-07 -3.60662e-06 0)
(1.11746e-06 -3.49077e-06 0)
(1.45176e-06 -3.3423e-06 0)
(1.79572e-06 -3.16578e-06 0)
(2.14994e-06 -2.96646e-06 0)
(2.51417e-06 -2.74984e-06 0)
(2.88724e-06 -2.52221e-06 0)
(3.26765e-06 -2.28642e-06 0)
(1.53419e-07 -3.78737e-06 0)
(4.61377e-07 -3.75003e-06 0)
(7.72812e-07 -3.67666e-06 0)
(1.08956e-06 -3.56959e-06 0)
(1.41331e-06 -3.43215e-06 0)
(1.74506e-06 -3.26841e-06 0)
(2.08537e-06 -3.083e-06 0)
(2.43399e-06 -2.88061e-06 0)
(2.79014e-06 -2.66696e-06 0)
(3.15179e-06 -2.4446e-06 0)
(1.50145e-07 -3.84955e-06 0)
(4.51385e-07 -3.81491e-06 0)
(7.55531e-07 -3.74684e-06 0)
(1.06413e-06 -3.64744e-06 0)
(1.37857e-06 -3.51968e-06 0)
(1.69966e-06 -3.36722e-06 0)
(2.02781e-06 -3.19429e-06 0)
(2.36273e-06 -3.005e-06 0)
(2.70405e-06 -2.80453e-06 0)
(3.04932e-06 -2.59545e-06 0)
(1.47019e-07 -3.91299e-06 0)
(4.41878e-07 -3.88079e-06 0)
(7.39185e-07 -3.81744e-06 0)
(1.04026e-06 -3.7249e-06 0)
(1.34623e-06 -3.60583e-06 0)
(1.65779e-06 -3.46354e-06 0)
(1.97529e-06 -3.30188e-06 0)
(2.29829e-06 -3.12452e-06 0)
(2.62678e-06 -2.93606e-06 0)
(2.95794e-06 -2.73934e-06 0)
(1.44022e-07 -3.97759e-06 0)
(4.32743e-07 -3.94752e-06 0)
(7.23571e-07 -3.88835e-06 0)
(1.01762e-06 -3.80189e-06 0)
(1.31584e-06 -3.69053e-06 0)
(1.61878e-06 -3.55733e-06 0)
(1.92675e-06 -3.40582e-06 0)
(2.23921e-06 -3.23934e-06 0)
(2.55644e-06 -3.06197e-06 0)
(2.87541e-06 -2.87674e-06 0)
(1.41078e-07 -4.04322e-06 0)
(4.23799e-07 -4.01506e-06 0)
(7.08373e-07 -3.95963e-06 0)
(9.95728e-07 -3.87861e-06 0)
(1.28671e-06 -3.77418e-06 0)
(1.58174e-06 -3.64916e-06 0)
(1.88111e-06 -3.50678e-06 0)
(2.18421e-06 -3.35016e-06 0)
(2.49146e-06 -3.1829e-06 0)
(2.79985e-06 -3.00819e-06 0)
(1.38138e-07 -4.10972e-06 0)
(4.1494e-07 -4.08328e-06 0)
(6.93389e-07 -4.03119e-06 0)
(9.74289e-07 -3.95503e-06 0)
(1.25839e-06 -3.85683e-06 0)
(1.54605e-06 -3.73916e-06 0)
(1.83752e-06 -3.60502e-06 0)
(2.13217e-06 -3.45736e-06 0)
(2.4305e-06 -3.29933e-06 0)
(2.72962e-06 -3.13421e-06 0)
(1.35176e-07 -4.17694e-06 0)
(4.06053e-07 -4.15206e-06 0)
(6.78397e-07 -4.10298e-06 0)
(9.52976e-07 -4.0312e-06 0)
(1.23044e-06 -3.93861e-06 0)
(1.51111e-06 -3.82759e-06 0)
(1.79522e-06 -3.7009e-06 0)
(2.08215e-06 -3.56134e-06 0)
(2.3724e-06 -3.41173e-06 0)
(2.66329e-06 -3.25533e-06 0)
(1.32175e-07 -4.2447e-06 0)
(3.97031e-07 -4.22124e-06 0)
(6.63216e-07 -4.17488e-06 0)
(9.31509e-07 -4.10705e-06 0)
(1.20247e-06 -4.01955e-06 0)
(1.4764e-06 -3.91455e-06 0)
(1.75355e-06 -3.79462e-06 0)
(2.0333e-06 -3.66242e-06 0)
(2.31613e-06 -3.52047e-06 0)
(2.59961e-06 -3.37198e-06 0)
(1.29092e-07 -4.31285e-06 0)
(3.87743e-07 -4.29067e-06 0)
(6.47646e-07 -4.24679e-06 0)
(9.09589e-07 -4.18256e-06 0)
(1.17408e-06 -4.09968e-06 0)
(1.44141e-06 -4.00015e-06 0)
(1.71185e-06 -3.88637e-06 0)
(1.98482e-06 -3.76086e-06 0)
(2.26073e-06 -3.6259e-06 0)
(2.53745e-06 -3.48459e-06 0)
(1.25876e-07 -4.38113e-06 0)
(3.78066e-07 -4.36011e-06 0)
(6.31487e-07 -4.31851e-06 0)
(8.86924e-07 -4.25758e-06 0)
(1.14487e-06 -4.17891e-06 0)
(1.40564e-06 -4.0844e-06 0)
(1.6695e-06 -3.97625e-06 0)
(1.93593e-06 -3.85684e-06 0)
(2.20529e-06 -3.72828e-06 0)
(2.47573e-06 -3.59349e-06 0)
(1.22482e-07 -4.44936e-06 0)
(3.67879e-07 -4.42939e-06 0)
(6.14529e-07 -4.3899e-06 0)
(8.6321e-07 -4.33202e-06 0)
(1.11445e-06 -4.25725e-06 0)
(1.36857e-06 -4.16735e-06 0)
(1.62585e-06 -4.06437e-06 0)
(1.88585e-06 -3.95057e-06 0)
(2.14888e-06 -3.82788e-06 0)
(2.41335e-06 -3.69904e-06 0)
(1.1887e-07 -4.51716e-06 0)
(3.57062e-07 -4.49816e-06 0)
(5.96552e-07 -4.46066e-06 0)
(8.3813e-07 -4.40562e-06 0)
(1.08238e-06 -4.33445e-06 0)
(1.32964e-06 -4.24884e-06 0)
(1.58021e-06 -4.15067e-06 0)
(1.8338e-06 -4.04205e-06 0)
(2.09058e-06 -3.92479e-06 0)
(2.34926e-06 -3.8014e-06 0)
(1.14992e-07 -4.58441e-06 0)
(3.45454e-07 -4.56635e-06 0)
(5.77277e-07 -4.5307e-06 0)
(8.11287e-07 -4.47833e-06 0)
(1.04814e-06 -4.41057e-06 0)
(1.28821e-06 -4.32898e-06 0)
(1.53184e-06 -4.23532e-06 0)
(1.77883e-06 -4.13155e-06 0)
(2.02934e-06 -4.01933e-06 0)
(2.28228e-06 -3.90104e-06 0)
(1.10791e-07 -4.65038e-06 0)
(3.32873e-07 -4.6332e-06 0)
(5.56404e-07 -4.59932e-06 0)
(7.82263e-07 -4.54951e-06 0)
(1.01118e-06 -4.48501e-06 0)
(1.2436e-06 -4.40725e-06 0)
(1.47991e-06 -4.31787e-06 0)
(1.72e-06 -4.2187e-06 0)
(1.96403e-06 -4.11126e-06 0)
(2.21117e-06 -3.99779e-06 0)
(1.06174e-07 -4.71538e-06 0)
(3.19047e-07 -4.69907e-06 0)
(5.33487e-07 -4.66689e-06 0)
(7.50444e-07 -4.61957e-06 0)
(9.70714e-07 -4.55823e-06 0)
(1.19485e-06 -4.48418e-06 0)
(1.42331e-06 -4.39893e-06 0)
(1.65607e-06 -4.30418e-06 0)
(1.89333e-06 -4.20136e-06 0)
(2.13448e-06 -4.09249e-06 0)
(1.011e-07 -4.77738e-06 0)
(3.03871e-07 -4.76194e-06 0)
(5.08342e-07 -4.73147e-06 0)
(7.15541e-07 -4.68663e-06 0)
(9.26368e-07 -4.62844e-06 0)
(1.14149e-06 -4.55811e-06 0)
(1.36142e-06 -4.47699e-06 0)
(1.58635e-06 -4.38666e-06 0)
(1.81643e-06 -4.28847e-06 0)
(2.05132e-06 -4.18427e-06 0)
)


// ************************************************************************* //
