/*--------------------------------*- C++ -*----------------------------------*\
| =========                 |                                                 |
| \\      /  F ield         | foam-extend: Open Source CFD                    |
|  \\    /   O peration     | Version:     4.1                                |
|   \\  /    A nd           | Web:         http://www.foam-extend.org         |
|    \\/     M anipulation  |                                                 |
\*---------------------------------------------------------------------------*/
FoamFile
{
    version     2.0;
    format      ascii;
    class       vectorField;
    location    "8";
    object      solidsCellD_iteration0;
}
// * * * * * * * * * * * * * * * * * * * * * * * * * * * * * * * * * * * * * //


1000
(
(3.89901e-06 -1.64432e-06 0)
(3.68312e-06 -1.52675e-06 0)
(3.54557e-06 -1.45069e-06 0)
(3.46741e-06 -1.41323e-06 0)
(3.43013e-06 -1.39764e-06 0)
(3.42273e-06 -1.39904e-06 0)
(3.43733e-06 -1.41143e-06 0)
(3.46858e-06 -1.43191e-06 0)
(3.51181e-06 -1.45798e-06 0)
(3.56493e-06 -1.48795e-06 0)
(3.52566e-06 -1.79581e-06 0)
(3.29543e-06 -1.71242e-06 0)
(3.14878e-06 -1.65789e-06 0)
(3.06377e-06 -1.63503e-06 0)
(3.02108e-06 -1.62907e-06 0)
(3.00868e-06 -1.63726e-06 0)
(3.01831e-06 -1.65454e-06 0)
(3.04418e-06 -1.67863e-06 0)
(3.08159e-06 -1.70784e-06 0)
(3.12776e-06 -1.73941e-06 0)
(3.13764e-06 -1.93943e-06 0)
(2.90226e-06 -1.89427e-06 0)
(2.75235e-06 -1.86387e-06 0)
(2.66421e-06 -1.85721e-06 0)
(2.61838e-06 -1.86185e-06 0)
(2.60237e-06 -1.87738e-06 0)
(2.60788e-06 -1.89977e-06 0)
(2.62905e-06 -1.92757e-06 0)
(2.66128e-06 -1.95978e-06 0)
(2.70181e-06 -1.99349e-06 0)
(2.73793e-06 -2.07264e-06 0)
(2.50721e-06 -2.06763e-06 0)
(2.36027e-06 -2.06262e-06 0)
(2.273e-06 -2.07293e-06 0)
(2.22654e-06 -2.0886e-06 0)
(2.20847e-06 -2.1117e-06 0)
(2.21087e-06 -2.13929e-06 0)
(2.22794e-06 -2.17083e-06 0)
(2.25552e-06 -2.20588e-06 0)
(2.29059e-06 -2.24184e-06 0)
(2.32911e-06 -2.19284e-06 0)
(2.11297e-06 -2.22766e-06 0)
(1.97535e-06 -2.24785e-06 0)
(1.893e-06 -2.27494e-06 0)
(1.84842e-06 -2.30148e-06 0)
(1.82989e-06 -2.33202e-06 0)
(1.83009e-06 -2.36465e-06 0)
(1.84362e-06 -2.39981e-06 0)
(1.86678e-06 -2.43755e-06 0)
(1.89651e-06 -2.47581e-06 0)
(1.91341e-06 -2.29751e-06 0)
(1.7214e-06 -2.36963e-06 0)
(1.59916e-06 -2.41344e-06 0)
(1.52562e-06 -2.45621e-06 0)
(1.48533e-06 -2.4929e-06 0)
(1.46784e-06 -2.53035e-06 0)
(1.46672e-06 -2.56763e-06 0)
(1.47714e-06 -2.60615e-06 0)
(1.49602e-06 -2.64633e-06 0)
(1.52039e-06 -2.68682e-06 0)
(1.4927e-06 -2.38435e-06 0)
(1.33343e-06 -2.48915e-06 0)
(1.23205e-06 -2.55367e-06 0)
(1.17081e-06 -2.61016e-06 0)
(1.137e-06 -2.65573e-06 0)
(1.12186e-06 -2.69921e-06 0)
(1.12016e-06 -2.74054e-06 0)
(1.12786e-06 -2.78202e-06 0)
(1.14252e-06 -2.82429e-06 0)
(1.1615e-06 -2.8668e-06 0)
(1.06852e-06 -2.45134e-06 0)
(9.49231e-07 -2.58239e-06 0)
(8.73302e-07 -2.66356e-06 0)
(8.27311e-07 -2.73107e-06 0)
(8.01766e-07 -2.78376e-06 0)
(7.90105e-07 -2.83209e-06 0)
(7.88432e-07 -2.87666e-06 0)
(7.93703e-07 -2.92051e-06 0)
(8.04161e-07 -2.96447e-06 0)
(8.17726e-07 -3.00865e-06 0)
(6.42088e-07 -2.49689e-06 0)
(5.68228e-07 -2.6463e-06 0)
(5.21201e-07 -2.73912e-06 0)
(4.92658e-07 -2.81434e-06 0)
(4.7674e-07 -2.87201e-06 0)
(4.69377e-07 -2.92372e-06 0)
(4.68172e-07 -2.97057e-06 0)
(4.71232e-07 -3.01609e-06 0)
(4.77498e-07 -3.06122e-06 0)
(4.85638e-07 -3.10661e-06 0)
(2.14431e-07 -2.51983e-06 0)
(1.89396e-07 -2.67873e-06 0)
(1.73437e-07 -2.77756e-06 0)
(1.63727e-07 -2.85677e-06 0)
(1.5829e-07 -2.91702e-06 0)
(1.55748e-07 -2.97049e-06 0)
(1.55291e-07 -3.01851e-06 0)
(1.56278e-07 -3.06489e-06 0)
(1.58354e-07 -3.11064e-06 0)
(1.61059e-07 -3.15666e-06 0)
(6.08198e-06 -7.51605e-08 0)
(6.13838e-06 -5.41007e-08 0)
(6.17335e-06 -4.0665e-08 0)
(6.21132e-06 -3.26774e-08 0)
(6.25243e-06 -2.81415e-08 0)
(6.30247e-06 -2.5923e-08 0)
(6.36113e-06 -2.5263e-08 0)
(6.42911e-06 -2.56252e-08 0)
(6.50609e-06 -2.67208e-08 0)
(6.59108e-06 -2.80675e-08 0)
(6.03698e-06 -2.25432e-07 0)
(6.08434e-06 -1.63483e-07 0)
(6.11365e-06 -1.24047e-07 0)
(6.14784e-06 -1.00664e-07 0)
(6.18649e-06 -8.74393e-08 0)
(6.2348e-06 -8.10306e-08 0)
(6.2922e-06 -7.92009e-08 0)
(6.35915e-06 -8.03768e-08 0)
(6.43528e-06 -8.36958e-08 0)
(6.5193e-06 -8.77618e-08 0)
(5.94714e-06 -3.76996e-07 0)
(5.97729e-06 -2.77493e-07 0)
(5.9957e-06 -2.14193e-07 0)
(6.02268e-06 -1.7676e-07 0)
(6.05659e-06 -1.55671e-07 0)
(6.10156e-06 -1.45568e-07 0)
(6.15656e-06 -1.42835e-07 0)
(6.22157e-06 -1.44961e-07 0)
(6.29612e-06 -1.50518e-07 0)
(6.37835e-06 -1.57334e-07 0)
(5.81405e-06 -5.30427e-07 0)
(5.8197e-06 -3.98747e-07 0)
(5.82259e-06 -3.14953e-07 0)
(5.8393e-06 -2.65599e-07 0)
(5.86645e-06 -2.37936e-07 0)
(5.90664e-06 -2.24918e-07 0)
(5.95821e-06 -2.21697e-07 0)
(6.02041e-06 -2.24985e-07 0)
(6.09268e-06 -2.32799e-07 0)
(6.1724e-06 -2.42409e-07 0)
(5.63974e-06 -6.86147e-07 0)
(5.61508e-06 -5.29416e-07 0)
(5.59877e-06 -4.29618e-07 0)
(5.60276e-06 -3.71173e-07 0)
(5.62153e-06 -3.38661e-07 0)
(5.65581e-06 -3.2377e-07 0)
(5.70312e-06 -3.20624e-07 0)
(5.76189e-06 -3.2536e-07 0)
(5.83134e-06 -3.35475e-07 0)
(5.90803e-06 -3.4793e-07 0)
(5.42685e-06 -8.442e-07 0)
(5.36786e-06 -6.70875e-07 0)
(5.32982e-06 -5.60401e-07 0)
(5.31937e-06 -4.96227e-07 0)
(5.32859e-06 -4.60911e-07 0)
(5.35612e-06 -4.45383e-07 0)
(5.39852e-06 -4.42983e-07 0)
(5.45338e-06 -4.4951e-07 0)
(5.5196e-06 -4.61984e-07 0)
(5.59295e-06 -4.77326e-07 0)
(5.17842e-06 -1.00428e-06 0)
(5.08318e-06 -8.23685e-07 0)
(5.02218e-06 -7.08422e-07 0)
(4.99642e-06 -6.42234e-07 0)
(4.99547e-06 -6.06387e-07 0)
(5.01575e-06 -5.91593e-07 0)
(5.05285e-06 -5.90707e-07 0)
(5.10349e-06 -5.99411e-07 0)
(5.1662e-06 -6.14369e-07 0)
(5.23613e-06 -6.32643e-07 0)
(4.89782e-06 -1.16567e-06 0)
(4.7666e-06 -9.87455e-07 0)
(4.6828e-06 -8.7351e-07 0)
(4.64174e-06 -8.09164e-07 0)
(4.6305e-06 -7.75135e-07 0)
(4.64335e-06 -7.62494e-07 0)
(4.6749e-06 -7.63902e-07 0)
(4.72115e-06 -7.75199e-07 0)
(4.78013e-06 -7.92764e-07 0)
(4.8468e-06 -8.14093e-07 0)
(4.58863e-06 -1.32722e-06 0)
(4.42395e-06 -1.16086e-06 0)
(4.31892e-06 -1.05423e-06 0)
(4.26346e-06 -9.95508e-07 0)
(4.24241e-06 -9.65611e-07 0)
(4.24798e-06 -9.56497e-07 0)
(4.27388e-06 -9.61006e-07 0)
(4.31559e-06 -9.75252e-07 0)
(4.37059e-06 -9.95761e-07 0)
(4.43442e-06 -1.0202e-06 0)
(4.25449e-06 -1.4874e-06 0)
(4.06094e-06 -1.34165e-06 0)
(3.93758e-06 -1.2479e-06 0)
(3.86947e-06 -1.19831e-06 0)
(3.83953e-06 -1.17466e-06 0)
(3.83817e-06 -1.17031e-06 0)
(3.85828e-06 -1.17853e-06 0)
(3.89491e-06 -1.19604e-06 0)
(3.94512e-06 -1.21942e-06 0)
(4.0061e-06 -1.24776e-06 0)
(6.6843e-06 -2.94451e-08 0)
(6.78593e-06 -2.96037e-08 0)
(6.89416e-06 -2.98657e-08 0)
(7.00865e-06 -3.002e-08 0)
(7.12868e-06 -3.00312e-08 0)
(7.25374e-06 -2.98881e-08 0)
(7.38329e-06 -2.95534e-08 0)
(7.51682e-06 -2.90222e-08 0)
(7.65388e-06 -2.82732e-08 0)
(7.794e-06 -2.72958e-08 0)
(7.93673e-06 -2.60711e-08 0)
(8.08163e-06 -2.4581e-08 0)
(8.22827e-06 -2.2801e-08 0)
(8.37617e-06 -2.07029e-08 0)
(8.52493e-06 -1.82501e-08 0)
(8.67393e-06 -1.54007e-08 0)
(8.82287e-06 -1.20985e-08 0)
(8.97069e-06 -8.28479e-09 0)
(9.11761e-06 -3.86282e-09 0)
(9.26107e-06 1.20587e-09 0)
(6.61568e-06 -9.15702e-08 0)
(6.723e-06 -9.16043e-08 0)
(6.83636e-06 -9.19853e-08 0)
(6.95532e-06 -9.21217e-08 0)
(7.07936e-06 -9.18761e-08 0)
(7.208e-06 -9.12197e-08 0)
(7.34079e-06 -9.00267e-08 0)
(7.47724e-06 -8.82803e-08 0)
(7.61693e-06 -8.59089e-08 0)
(7.75944e-06 -8.2877e-08 0)
(7.90435e-06 -7.91242e-08 0)
(8.05126e-06 -7.45931e-08 0)
(8.1998e-06 -6.92073e-08 0)
(8.34951e-06 -6.28801e-08 0)
(8.49999e-06 -5.55e-08 0)
(8.65063e-06 -4.69395e-08 0)
(8.80115e-06 -3.70293e-08 0)
(8.9505e-06 -2.55924e-08 0)
(9.09893e-06 -1.23378e-08 0)
(9.2439e-06 2.85034e-09 0)
(6.48095e-06 -1.62585e-07 0)
(6.59946e-06 -1.61226e-07 0)
(6.72285e-06 -1.6058e-07 0)
(6.85052e-06 -1.59822e-07 0)
(6.98236e-06 -1.58582e-07 0)
(7.11791e-06 -1.56829e-07 0)
(7.25694e-06 -1.543e-07 0)
(7.39903e-06 -1.50956e-07 0)
(7.5439e-06 -1.46656e-07 0)
(7.69114e-06 -1.41326e-07 0)
(7.84042e-06 -1.34855e-07 0)
(7.99138e-06 -1.27137e-07 0)
(8.1437e-06 -1.18036e-07 0)
(8.29695e-06 -1.07402e-07 0)
(8.45079e-06 -9.50437e-08 0)
(8.60467e-06 -8.07436e-08 0)
(8.75832e-06 -6.42155e-08 0)
(8.9107e-06 -4.51607e-08 0)
(9.06211e-06 -2.30919e-08 0)
(9.21003e-06 2.18876e-09 0)
(6.28387e-06 -2.47572e-07 0)
(6.41849e-06 -2.42843e-07 0)
(6.55645e-06 -2.39348e-07 0)
(6.69682e-06 -2.36305e-07 0)
(6.84009e-06 -2.32897e-07 0)
(6.98579e-06 -2.29114e-07 0)
(7.13398e-06 -2.24489e-07 0)
(7.28433e-06 -2.18941e-07 0)
(7.43672e-06 -2.12228e-07 0)
(7.59086e-06 -2.0422e-07 0)
(7.74653e-06 -1.94736e-07 0)
(7.90344e-06 -1.83609e-07 0)
(8.0613e-06 -1.70633e-07 0)
(8.21977e-06 -1.55583e-07 0)
(8.37855e-06 -1.38181e-07 0)
(8.53715e-06 -1.18113e-07 0)
(8.69534e-06 -9.49681e-08 0)
(8.85215e-06 -6.83211e-08 0)
(9.00792e-06 -3.74818e-08 0)
(9.1602e-06 -2.15725e-09 0)
(6.03051e-06 -3.51058e-07 0)
(6.18532e-06 -3.40414e-07 0)
(6.34175e-06 -3.3171e-07 0)
(6.49826e-06 -3.24557e-07 0)
(6.65615e-06 -3.17452e-07 0)
(6.81487e-06 -3.10407e-07 0)
(6.97488e-06 -3.02687e-07 0)
(7.13591e-06 -2.94125e-07 0)
(7.29803e-06 -2.84351e-07 0)
(7.46108e-06 -2.73149e-07 0)
(7.62496e-06 -2.60248e-07 0)
(7.7895e-06 -2.45401e-07 0)
(7.95449e-06 -2.2832e-07 0)
(8.11968e-06 -2.08693e-07 0)
(8.28485e-06 -1.86146e-07 0)
(8.44952e-06 -1.60259e-07 0)
(8.61358e-06 -1.30493e-07 0)
(8.77609e-06 -9.6287e-08 0)
(8.93749e-06 -5.67455e-08 0)
(9.0954e-06 -1.14677e-08 0)
(5.72796e-06 -4.76236e-07 0)
(5.90612e-06 -4.56745e-07 0)
(6.08425e-06 -4.40077e-07 0)
(6.25979e-06 -4.26615e-07 0)
(6.43503e-06 -4.13986e-07 0)
(6.60926e-06 -4.02176e-07 0)
(6.78337e-06 -3.90151e-07 0)
(6.9572e-06 -3.77594e-07 0)
(7.13102e-06 -3.63985e-07 0)
(7.3048e-06 -3.48977e-07 0)
(7.47857e-06 -3.32192e-07 0)
(7.65227e-06 -3.13275e-07 0)
(7.82582e-06 -2.91839e-07 0)
(7.99905e-06 -2.67472e-07 0)
(8.17183e-06 -2.39691e-07 0)
(8.34377e-06 -2.07961e-07 0)
(8.51483e-06 -1.71604e-07 0)
(8.68417e-06 -1.2992e-07 0)
(8.85228e-06 -8.18003e-08 0)
(9.01695e-06 -2.67223e-08 0)
(5.38447e-06 -6.25175e-07 0)
(5.58811e-06 -5.93825e-07 0)
(5.7903e-06 -5.6643e-07 0)
(5.98716e-06 -5.44315e-07 0)
(6.18193e-06 -5.2427e-07 0)
(6.37374e-06 -5.06078e-07 0)
(6.56383e-06 -4.88446e-07 0)
(6.75217e-06 -4.70809e-07 0)
(6.93928e-06 -4.52486e-07 0)
(7.12526e-06 -4.32959e-07 0)
(7.31031e-06 -4.1172e-07 0)
(7.49448e-06 -3.8829e-07 0)
(7.67781e-06 -3.62167e-07 0)
(7.86022e-06 -3.32826e-07 0)
(8.04169e-06 -2.99663e-07 0)
(8.22193e-06 -2.62024e-07 0)
(8.40096e-06 -2.19085e-07 0)
(8.5781e-06 -1.70002e-07 0)
(8.75386e-06 -1.13457e-07 0)
(8.92628e-06 -4.88007e-08 0)
(5.00856e-06 -7.98205e-07 0)
(5.23879e-06 -7.51778e-07 0)
(5.46646e-06 -7.10946e-07 0)
(5.68628e-06 -6.77582e-07 0)
(5.90215e-06 -6.48095e-07 0)
(6.11318e-06 -6.21749e-07 0)
(6.32078e-06 -5.97102e-07 0)
(6.52513e-06 -5.73244e-07 0)
(6.72687e-06 -5.49313e-07 0)
(6.92631e-06 -5.24579e-07 0)
(7.12379e-06 -4.98372e-07 0)
(7.31949e-06 -4.70059e-07 0)
(7.51357e-06 -4.39e-07 0)
(7.70609e-06 -4.04539e-07 0)
(7.89709e-06 -3.65943e-07 0)
(8.08644e-06 -3.22425e-07 0)
(8.27422e-06 -2.73013e-07 0)
(8.45991e-06 -2.16714e-07 0)
(8.64409e-06 -1.52004e-07 0)
(8.82505e-06 -7.80933e-08 0)
(4.60943e-06 -9.95033e-07 0)
(4.86683e-06 -9.30755e-07 0)
(5.12033e-06 -8.74742e-07 0)
(5.36408e-06 -8.27941e-07 0)
(5.60172e-06 -7.87301e-07 0)
(5.83285e-06 -7.51231e-07 0)
(6.05878e-06 -7.1821e-07 0)
(6.28004e-06 -6.86954e-07 0)
(6.49733e-06 -6.56399e-07 0)
(6.71114e-06 -6.256e-07 0)
(6.92192e-06 -5.93711e-07 0)
(7.12998e-06 -5.59937e-07 0)
(7.3356e-06 -5.23492e-07 0)
(7.53896e-06 -4.83581e-07 0)
(7.74019e-06 -4.39333e-07 0)
(7.9393e-06 -3.89825e-07 0)
(8.13645e-06 -3.33935e-07 0)
(8.3313e-06 -2.70527e-07 0)
(8.52449e-06 -1.97885e-07 0)
(8.71463e-06 -1.15101e-07 0)
(4.19422e-06 -1.21189e-06 0)
(4.47936e-06 -1.12626e-06 0)
(4.75776e-06 -1.05333e-06 0)
(5.02598e-06 -9.90932e-07 0)
(5.2859e-06 -9.37233e-07 0)
(5.53793e-06 -8.8992e-07 0)
(5.78306e-06 -8.47294e-07 0)
(6.02202e-06 -8.07738e-07 0)
(6.25561e-06 -7.69903e-07 0)
(6.48446e-06 -7.32587e-07 0)
(6.70916e-06 -6.94722e-07 0)
(6.93014e-06 -6.55321e-07 0)
(7.14782e-06 -6.13428e-07 0)
(7.36248e-06 -5.68093e-07 0)
(7.57436e-06 -5.18301e-07 0)
(7.78361e-06 -4.62992e-07 0)
(7.99046e-06 -4.00898e-07 0)
(8.19479e-06 -3.30748e-07 0)
(8.39732e-06 -2.50638e-07 0)
(8.59701e-06 -1.59517e-07 0)
(3.88668e-06 -1.41574e-06 0)
(4.19144e-06 -1.31399e-06 0)
(4.48456e-06 -1.22914e-06 0)
(4.76719e-06 -1.15495e-06 0)
(5.04059e-06 -1.09021e-06 0)
(5.30551e-06 -1.03269e-06 0)
(5.56284e-06 -9.8065e-07 0)
(5.8133e-06 -9.32469e-07 0)
(6.05762e-06 -8.86713e-07 0)
(6.29646e-06 -8.42089e-07 0)
(6.53041e-06 -7.97422e-07 0)
(6.75995e-06 -7.51617e-07 0)
(6.98556e-06 -7.03614e-07 0)
(7.20757e-06 -6.52366e-07 0)
(7.42632e-06 -5.96771e-07 0)
(7.64203e-06 -5.35691e-07 0)
(7.85503e-06 -4.67795e-07 0)
(8.06537e-06 -3.91755e-07 0)
(8.27382e-06 -3.05628e-07 0)
(8.4797e-06 -2.08346e-07 0)
(3.71074e-06 -1.57913e-06 0)
(4.0171e-06 -1.47365e-06 0)
(4.31305e-06 -1.38235e-06 0)
(4.59959e-06 -1.30118e-06 0)
(4.87731e-06 -1.22897e-06 0)
(5.1468e-06 -1.16388e-06 0)
(5.40876e-06 -1.10435e-06 0)
(5.66376e-06 -1.04888e-06 0)
(5.91245e-06 -9.96106e-07 0)
(6.15539e-06 -9.4476e-07 0)
(6.39313e-06 -8.93677e-07 0)
(6.62613e-06 -8.41751e-07 0)
(6.85488e-06 -7.87909e-07 0)
(7.0797e-06 -7.31088e-07 0)
(7.30099e-06 -6.7018e-07 0)
(7.51904e-06 -6.04045e-07 0)
(7.73422e-06 -5.31379e-07 0)
(7.9467e-06 -4.50891e-07 0)
(8.15728e-06 -3.60734e-07 0)
(8.36557e-06 -2.59927e-07 0)
(3.55988e-06 -1.73722e-06 0)
(3.86291e-06 -1.62893e-06 0)
(4.15831e-06 -1.53311e-06 0)
(4.4455e-06 -1.44638e-06 0)
(4.72488e-06 -1.36788e-06 0)
(4.99662e-06 -1.29615e-06 0)
(5.26121e-06 -1.22981e-06 0)
(5.51903e-06 -1.16754e-06 0)
(5.7706e-06 -1.10807e-06 0)
(6.01641e-06 -1.05023e-06 0)
(6.2569e-06 -9.92885e-07 0)
(6.49253e-06 -9.34949e-07 0)
(6.72373e-06 -8.75364e-07 0)
(6.95084e-06 -8.13078e-07 0)
(7.17425e-06 -7.46998e-07 0)
(7.39432e-06 -6.7601e-07 0)
(7.61144e-06 -5.98859e-07 0)
(7.82588e-06 -5.14318e-07 0)
(8.03846e-06 -4.20671e-07 0)
(8.24902e-06 -3.17036e-07 0)
(3.42671e-06 -1.88954e-06 0)
(3.72508e-06 -1.77969e-06 0)
(4.01784e-06 -1.68038e-06 0)
(4.30362e-06 -1.58903e-06 0)
(4.58269e-06 -1.5051e-06 0)
(4.85487e-06 -1.42745e-06 0)
(5.12047e-06 -1.35492e-06 0)
(5.37968e-06 -1.28637e-06 0)
(5.63289e-06 -1.22066e-06 0)
(5.88048e-06 -1.15669e-06 0)
(6.12281e-06 -1.0934e-06 0)
(6.36028e-06 -1.02973e-06 0)
(6.5933e-06 -9.6468e-07 0)
(6.82216e-06 -8.9721e-07 0)
(7.04728e-06 -8.2627e-07 0)
(7.26902e-06 -7.50789e-07 0)
(7.48783e-06 -6.69581e-07 0)
(7.70402e-06 -5.81503e-07 0)
(7.91839e-06 -4.84988e-07 0)
(8.13103e-06 -3.79258e-07 0)
(3.3091e-06 -2.03553e-06 0)
(3.6017e-06 -1.925e-06 0)
(3.89035e-06 -1.82327e-06 0)
(4.17316e-06 -1.72835e-06 0)
(4.45037e-06 -1.63997e-06 0)
(4.72151e-06 -1.55725e-06 0)
(4.98676e-06 -1.47927e-06 0)
(5.24612e-06 -1.40506e-06 0)
(5.49987e-06 -1.33362e-06 0)
(5.74826e-06 -1.26396e-06 0)
(5.99159e-06 -1.19508e-06 0)
(6.23018e-06 -1.12602e-06 0)
(6.4644e-06 -1.0558e-06 0)
(6.69452e-06 -9.8344e-07 0)
(6.92095e-06 -9.07945e-07 0)
(7.14403e-06 -8.28307e-07 0)
(7.36426e-06 -7.43423e-07 0)
(7.58197e-06 -6.5225e-07 0)
(7.79795e-06 -5.53388e-07 0)
(8.01247e-06 -4.4617e-07 0)
(3.20432e-06 -2.17509e-06 0)
(3.49059e-06 -2.06462e-06 0)
(3.77421e-06 -1.96128e-06 0)
(4.053e-06 -1.86363e-06 0)
(4.3272e-06 -1.77161e-06 0)
(4.59617e-06 -1.68459e-06 0)
(4.85995e-06 -1.60185e-06 0)
(5.11842e-06 -1.52261e-06 0)
(5.37176e-06 -1.446e-06 0)
(5.62011e-06 -1.37114e-06 0)
(5.86369e-06 -1.29713e-06 0)
(6.10276e-06 -1.22307e-06 0)
(6.33764e-06 -1.14806e-06 0)
(6.56854e-06 -1.07118e-06 0)
(6.7959e-06 -9.91504e-07 0)
(7.02003e-06 -9.08097e-07 0)
(7.24142e-06 -8.19955e-07 0)
(7.46044e-06 -7.26139e-07 0)
(7.67783e-06 -6.25431e-07 0)
(7.894e-06 -5.1727e-07 0)
(3.11025e-06 -2.30833e-06 0)
(3.38987e-06 -2.19845e-06 0)
(3.66784e-06 -2.0942e-06 0)
(3.9419e-06 -1.99455e-06 0)
(4.21228e-06 -1.89964e-06 0)
(4.47822e-06 -1.80904e-06 0)
(4.73969e-06 -1.72224e-06 0)
(4.99645e-06 -1.6386e-06 0)
(5.24859e-06 -1.55739e-06 0)
(5.4962e-06 -1.47784e-06 0)
(5.7394e-06 -1.39917e-06 0)
(5.97838e-06 -1.32055e-06 0)
(6.21343e-06 -1.24116e-06 0)
(6.44472e-06 -1.16016e-06 0)
(6.67267e-06 -1.07668e-06 0)
(6.89755e-06 -9.89892e-07 0)
(7.11986e-06 -8.98886e-07 0)
(7.33997e-06 -8.02841e-07 0)
(7.55858e-06 -7.00717e-07 0)
(7.7762e-06 -5.92064e-07 0)
(3.02493e-06 -2.43551e-06 0)
(3.29777e-06 -2.32661e-06 0)
(3.56978e-06 -2.22195e-06 0)
(3.83865e-06 -2.1209e-06 0)
(4.10465e-06 -2.02374e-06 0)
(4.36696e-06 -1.93021e-06 0)
(4.62546e-06 -1.83997e-06 0)
(4.87987e-06 -1.75252e-06 0)
(5.13021e-06 -1.66728e-06 0)
(5.37649e-06 -1.58359e-06 0)
(5.61877e-06 -1.50075e-06 0)
(5.85721e-06 -1.41803e-06 0)
(6.09202e-06 -1.3347e-06 0)
(6.32335e-06 -1.24998e-06 0)
(6.55158e-06 -1.16311e-06 0)
(6.77697e-06 -1.07333e-06 0)
(6.99997e-06 -9.79856e-07 0)
(7.22097e-06 -8.81969e-07 0)
(7.4406e-06 -7.78811e-07 0)
(7.65945e-06 -6.70035e-07 0)
(2.9466e-06 -2.557e-06 0)
(3.21273e-06 -2.4493e-06 0)
(3.47861e-06 -2.34462e-06 0)
(3.74205e-06 -2.24266e-06 0)
(4.00331e-06 -2.14379e-06 0)
(4.26157e-06 -2.0479e-06 0)
(4.51665e-06 -1.95481e-06 0)
(4.76823e-06 -1.86413e-06 0)
(5.0163e-06 -1.7754e-06 0)
(5.26081e-06 -1.68808e-06 0)
(5.50175e-06 -1.60157e-06 0)
(5.73927e-06 -1.51523e-06 0)
(5.9735e-06 -1.42839e-06 0)
(6.20458e-06 -1.34039e-06 0)
(6.43285e-06 -1.25052e-06 0)
(6.65851e-06 -1.15814e-06 0)
(6.882e-06 -1.06256e-06 0)
(7.1037e-06 -9.63173e-07 0)
(7.32417e-06 -8.59302e-07 0)
(7.54406e-06 -7.50692e-07 0)
(2.87372e-06 -2.67318e-06 0)
(3.13326e-06 -2.5668e-06 0)
(3.39302e-06 -2.46239e-06 0)
(3.65094e-06 -2.35989e-06 0)
(3.90727e-06 -2.25976e-06 0)
(4.16121e-06 -2.16201e-06 0)
(4.41258e-06 -2.06657e-06 0)
(4.661e-06 -1.97319e-06 0)
(4.90646e-06 -1.8815e-06 0)
(5.14886e-06 -1.79106e-06 0)
(5.38816e-06 -1.70137e-06 0)
(5.62446e-06 -1.61186e-06 0)
(5.85786e-06 -1.52197e-06 0)
(6.08845e-06 -1.43109e-06 0)
(6.31653e-06 -1.33864e-06 0)
(6.54226e-06 -1.24402e-06 0)
(6.76607e-06 -1.14667e-06 0)
(6.98831e-06 -1.04611e-06 0)
(7.20946e-06 -9.41789e-07 0)
(7.43019e-06 -8.33557e-07 0)
(2.8049e-06 -2.78448e-06 0)
(3.05807e-06 -2.67946e-06 0)
(3.31179e-06 -2.5755e-06 0)
(3.56421e-06 -2.47275e-06 0)
(3.81554e-06 -2.37173e-06 0)
(4.06503e-06 -2.27255e-06 0)
(4.3125e-06 -2.17523e-06 0)
(4.55758e-06 -2.07962e-06 0)
(4.80021e-06 -1.98545e-06 0)
(5.04028e-06 -1.89237e-06 0)
(5.27773e-06 -1.79997e-06 0)
(5.5126e-06 -1.70776e-06 0)
(5.74496e-06 -1.61524e-06 0)
(5.97486e-06 -1.5219e-06 0)
(6.20257e-06 -1.42723e-06 0)
(6.42824e-06 -1.33073e-06 0)
(6.65222e-06 -1.23194e-06 0)
(6.87484e-06 -1.13046e-06 0)
(7.09654e-06 -1.0259e-06 0)
(7.31793e-06 -9.18194e-07 0)
(2.73891e-06 -2.89127e-06 0)
(2.98593e-06 -2.78759e-06 0)
(3.23378e-06 -2.6842e-06 0)
(3.48079e-06 -2.58142e-06 0)
(3.72714e-06 -2.47981e-06 0)
(3.97217e-06 -2.37956e-06 0)
(4.21568e-06 -2.28078e-06 0)
(4.45731e-06 -2.18337e-06 0)
(4.69701e-06 -2.08718e-06 0)
(4.93464e-06 -1.99192e-06 0)
(5.17009e-06 -1.89725e-06 0)
(5.40339e-06 -1.80277e-06 0)
(5.63456e-06 -1.70804e-06 0)
(5.86365e-06 -1.61264e-06 0)
(6.09087e-06 -1.51611e-06 0)
(6.31634e-06 -1.41806e-06 0)
(6.54038e-06 -1.3181e-06 0)
(6.76327e-06 -1.21593e-06 0)
(6.98537e-06 -1.11131e-06 0)
(7.20727e-06 -1.0042e-06 0)
(2.67461e-06 -2.99394e-06 0)
(2.91574e-06 -2.89153e-06 0)
(3.15791e-06 -2.78879e-06 0)
(3.39964e-06 -2.68614e-06 0)
(3.64112e-06 -2.5842e-06 0)
(3.88175e-06 -2.48319e-06 0)
(4.12133e-06 -2.3833e-06 0)
(4.35955e-06 -2.2845e-06 0)
(4.5963e-06 -2.1867e-06 0)
(4.83143e-06 -2.08968e-06 0)
(5.06482e-06 -1.99316e-06 0)
(5.29648e-06 -1.89681e-06 0)
(5.52638e-06 -1.80028e-06 0)
(5.75457e-06 -1.70317e-06 0)
(5.98124e-06 -1.60513e-06 0)
(6.20644e-06 -1.50582e-06 0)
(6.43044e-06 -1.40494e-06 0)
(6.65347e-06 -1.30228e-06 0)
(6.87586e-06 -1.1977e-06 0)
(7.09813e-06 -1.09123e-06 0)
(2.61093e-06 -3.0928e-06 0)
(2.84641e-06 -2.99162e-06 0)
(3.08312e-06 -2.88953e-06 0)
(3.31978e-06 -2.78716e-06 0)
(3.55656e-06 -2.68508e-06 0)
(3.79294e-06 -2.5836e-06 0)
(4.02873e-06 -2.48291e-06 0)
(4.26361e-06 -2.38308e-06 0)
(4.49748e-06 -2.28404e-06 0)
(4.73015e-06 -2.18565e-06 0)
(4.96148e-06 -2.08768e-06 0)
(5.19148e-06 -1.98985e-06 0)
(5.42011e-06 -1.89187e-06 0)
(5.64738e-06 -1.7934e-06 0)
(5.87344e-06 -1.69416e-06 0)
(6.0983e-06 -1.59386e-06 0)
(6.32218e-06 -1.49228e-06 0)
(6.54528e-06 -1.38928e-06 0)
(6.76787e-06 -1.28481e-06 0)
(6.99041e-06 -1.17897e-06 0)
(2.54679e-06 -3.1882e-06 0)
(2.77689e-06 -3.08811e-06 0)
(3.0084e-06 -2.98674e-06 0)
(3.24023e-06 -2.88475e-06 0)
(3.47255e-06 -2.78273e-06 0)
(3.70491e-06 -2.681e-06 0)
(3.93711e-06 -2.57981e-06 0)
(4.16883e-06 -2.47926e-06 0)
(4.39994e-06 -2.37933e-06 0)
(4.63024e-06 -2.27992e-06 0)
(4.8596e-06 -2.18085e-06 0)
(5.08801e-06 -2.0819e-06 0)
(5.31541e-06 -1.9828e-06 0)
(5.54177e-06 -1.88329e-06 0)
(5.7672e-06 -1.78312e-06 0)
(5.99167e-06 -1.68206e-06 0)
(6.21538e-06 -1.57997e-06 0)
(6.4385e-06 -1.47676e-06 0)
(6.66123e-06 -1.37244e-06 0)
(6.88392e-06 -1.26717e-06 0)
(2.4812e-06 -3.28035e-06 0)
(2.70618e-06 -3.18142e-06 0)
(2.9327e-06 -3.08069e-06 0)
(3.16005e-06 -2.97915e-06 0)
(3.38824e-06 -2.87736e-06 0)
(3.61689e-06 -2.7756e-06 0)
(3.84577e-06 -2.67418e-06 0)
(4.07455e-06 -2.5732e-06 0)
(4.30309e-06 -2.47269e-06 0)
(4.5312e-06 -2.37259e-06 0)
(4.75874e-06 -2.27275e-06 0)
(4.98569e-06 -2.17299e-06 0)
(5.21193e-06 -2.07308e-06 0)
(5.43741e-06 -1.9728e-06 0)
(5.6622e-06 -1.87195e-06 0)
(5.88629e-06 -1.77035e-06 0)
(6.10984e-06 -1.6679e-06 0)
(6.33294e-06 -1.56455e-06 0)
(6.55573e-06 -1.4604e-06 0)
(6.77847e-06 -1.35562e-06 0)
(2.41311e-06 -3.36966e-06 0)
(2.63305e-06 -3.27154e-06 0)
(2.85485e-06 -3.17168e-06 0)
(3.07827e-06 -3.07081e-06 0)
(3.30271e-06 -2.96937e-06 0)
(3.52807e-06 -2.86778e-06 0)
(3.75395e-06 -2.76633e-06 0)
(3.9801e-06 -2.66517e-06 0)
(4.20636e-06 -2.56436e-06 0)
(4.43256e-06 -2.46384e-06 0)
(4.65851e-06 -2.36351e-06 0)
(4.88414e-06 -2.26322e-06 0)
(5.10931e-06 -2.16277e-06 0)
(5.33396e-06 -2.06197e-06 0)
(5.55819e-06 -1.96065e-06 0)
(5.78195e-06 -1.85868e-06 0)
(6.0053e-06 -1.75598e-06 0)
(6.22826e-06 -1.65256e-06 0)
(6.45108e-06 -1.54856e-06 0)
(6.67394e-06 -1.44416e-06 0)
(2.34084e-06 -3.45602e-06 0)
(2.55651e-06 -3.35885e-06 0)
(2.77445e-06 -3.26006e-06 0)
(2.99408e-06 -3.1599e-06 0)
(3.21527e-06 -3.05898e-06 0)
(3.4377e-06 -2.95775e-06 0)
(3.66101e-06 -2.8565e-06 0)
(3.88493e-06 -2.75539e-06 0)
(4.10932e-06 -2.65451e-06 0)
(4.33394e-06 -2.55383e-06 0)
(4.55853e-06 -2.45326e-06 0)
(4.783e-06 -2.35267e-06 0)
(5.00725e-06 -2.2519e-06 0)
(5.23125e-06 -2.15079e-06 0)
(5.45496e-06 -2.04918e-06 0)
(5.67829e-06 -1.94698e-06 0)
(5.90142e-06 -1.84413e-06 0)
(6.12433e-06 -1.74069e-06 0)
(6.34707e-06 -1.63679e-06 0)
(6.56988e-06 -1.53267e-06 0)
(2.26348e-06 -3.54043e-06 0)
(2.47524e-06 -3.44443e-06 0)
(2.68967e-06 -3.34648e-06 0)
(2.90622e-06 -3.24709e-06 0)
(3.12473e-06 -3.14683e-06 0)
(3.34483e-06 -3.04611e-06 0)
(3.56619e-06 -2.94522e-06 0)
(3.7885e-06 -2.84435e-06 0)
(4.01148e-06 -2.74358e-06 0)
(4.23486e-06 -2.64291e-06 0)
(4.45841e-06 -2.54228e-06 0)
(4.68206e-06 -2.44157e-06 0)
(4.90561e-06 -2.34065e-06 0)
(5.12895e-06 -2.23937e-06 0)
(5.3522e-06 -2.1376e-06 0)
(5.57519e-06 -2.03527e-06 0)
(5.79803e-06 -1.93234e-06 0)
(6.02078e-06 -1.82888e-06 0)
(6.24344e-06 -1.72506e-06 0)
(6.46622e-06 -1.6211e-06 0)
(2.18e-06 -3.62214e-06 0)
(2.38833e-06 -3.52745e-06 0)
(2.59984e-06 -3.43071e-06 0)
(2.81399e-06 -3.33237e-06 0)
(3.03054e-06 -3.23299e-06 0)
(3.2491e-06 -3.13299e-06 0)
(3.46919e-06 -3.03266e-06 0)
(3.69041e-06 -2.9322e-06 0)
(3.91252e-06 -2.83171e-06 0)
(4.1352e-06 -2.73121e-06 0)
(4.35811e-06 -2.63066e-06 0)
(4.58114e-06 -2.52996e-06 0)
(4.80417e-06 -2.42899e-06 0)
(5.02703e-06 -2.32765e-06 0)
(5.2498e-06 -2.22582e-06 0)
(5.47242e-06 -2.12344e-06 0)
(5.69494e-06 -2.02049e-06 0)
(5.91746e-06 -1.91704e-06 0)
(6.13997e-06 -1.81326e-06 0)
(6.36259e-06 -1.70936e-06 0)
(1.60548e-07 -3.20395e-06 0)
(4.83821e-07 -3.15628e-06 0)
(8.13724e-07 -3.06291e-06 0)
(1.15396e-06 -2.92749e-06 0)
(1.50764e-06 -2.75523e-06 0)
(1.8767e-06 -2.55258e-06 0)
(2.26198e-06 -2.32687e-06 0)
(2.66297e-06 -2.08594e-06 0)
(3.07816e-06 -1.83771e-06 0)
(3.50545e-06 -1.58866e-06 0)
(1.56349e-07 -3.25299e-06 0)
(4.70881e-07 -3.20944e-06 0)
(7.90938e-07 -3.12408e-06 0)
(1.11962e-06 -3e-06 0)
(1.45955e-06 -2.84162e-06 0)
(1.81243e-06 -2.65443e-06 0)
(2.17895e-06 -2.44468e-06 0)
(2.55866e-06 -2.21909e-06 0)
(2.94946e-06 -1.98491e-06 0)
(3.34973e-06 -1.74684e-06 0)
(1.52692e-07 -3.30325e-06 0)
(4.59579e-07 -3.26343e-06 0)
(7.70942e-07 -3.18533e-06 0)
(1.08928e-06 -3.07162e-06 0)
(1.41673e-06 -2.92612e-06 0)
(1.75476e-06 -2.75357e-06 0)
(2.10399e-06 -2.55933e-06 0)
(2.46437e-06 -2.34899e-06 0)
(2.83419e-06 -2.1289e-06 0)
(3.21238e-06 -1.90159e-06 0)
(1.49427e-07 -3.35483e-06 0)
(4.49522e-07 -3.31819e-06 0)
(7.53292e-07 -3.24629e-06 0)
(1.06277e-06 -3.14143e-06 0)
(1.37972e-06 -3.007e-06 0)
(1.70529e-06 -2.84712e-06 0)
(2.03992e-06 -2.66653e-06 0)
(2.38349e-06 -2.47011e-06 0)
(2.73451e-06 -2.26378e-06 0)
(3.09194e-06 -2.04922e-06 0)
(1.46396e-07 -3.40771e-06 0)
(4.40196e-07 -3.37391e-06 0)
(7.36988e-07 -3.30752e-06 0)
(1.03842e-06 -3.21063e-06 0)
(1.34592e-06 -3.08622e-06 0)
(1.66044e-06 -2.93792e-06 0)
(1.98233e-06 -2.76994e-06 0)
(2.31142e-06 -2.58642e-06 0)
(2.64666e-06 -2.39273e-06 0)
(2.98637e-06 -2.19034e-06 0)
(1.43554e-07 -3.46179e-06 0)
(4.31485e-07 -3.43046e-06 0)
(7.21864e-07 -3.36888e-06 0)
(1.01603e-06 -3.27891e-06 0)
(1.31516e-06 -3.16326e-06 0)
(1.61996e-06 -3.02517e-06 0)
(1.9307e-06 -2.86847e-06 0)
(2.24708e-06 -2.69682e-06 0)
(2.56855e-06 -2.51504e-06 0)
(2.8929e-06 -2.32471e-06 0)
(1.40813e-07 -3.51702e-06 0)
(4.23103e-07 -3.48787e-06 0)
(7.07404e-07 -3.43057e-06 0)
(9.94806e-07 -3.34679e-06 0)
(1.28628e-06 -3.23899e-06 0)
(1.58237e-06 -3.1101e-06 0)
(1.88332e-06 -2.96357e-06 0)
(2.18864e-06 -2.8027e-06 0)
(2.49822e-06 -2.63177e-06 0)
(2.80941e-06 -2.45268e-06 0)
(1.38138e-07 -3.57325e-06 0)
(4.14954e-07 -3.54603e-06 0)
(6.93437e-07 -3.49249e-06 0)
(9.74484e-07 -3.41418e-06 0)
(1.25891e-06 -3.31335e-06 0)
(1.54711e-06 -3.19265e-06 0)
(1.83929e-06 -3.05527e-06 0)
(2.13485e-06 -2.90422e-06 0)
(2.43399e-06 -2.74327e-06 0)
(2.73385e-06 -2.57462e-06 0)
(1.35481e-07 -3.63038e-06 0)
(4.06885e-07 -3.60487e-06 0)
(6.79692e-07 -3.5547e-06 0)
(9.54652e-07 -3.48128e-06 0)
(1.23247e-06 -3.38668e-06 0)
(1.5134e-06 -3.27335e-06 0)
(1.79767e-06 -3.14418e-06 0)
(2.08456e-06 -3.00202e-06 0)
(2.37447e-06 -2.85015e-06 0)
(2.66453e-06 -2.69104e-06 0)
(1.32813e-07 -3.68824e-06 0)
(3.98809e-07 -3.66427e-06 0)
(6.66012e-07 -3.6171e-06 0)
(9.35067e-07 -3.54805e-06 0)
(1.20659e-06 -3.45902e-06 0)
(1.48074e-06 -3.3523e-06 0)
(1.75773e-06 -3.23055e-06 0)
(2.0368e-06 -3.09643e-06 0)
(2.31845e-06 -2.95284e-06 0)
(2.59993e-06 -2.80241e-06 0)
(1.30103e-07 -3.74669e-06 0)
(3.90625e-07 -3.7241e-06 0)
(6.52218e-07 -3.67964e-06 0)
(9.15455e-07 -3.61453e-06 0)
(1.18088e-06 -3.53052e-06 0)
(1.44859e-06 -3.42976e-06 0)
(1.7188e-06 -3.31468e-06 0)
(1.99072e-06 -3.18783e-06 0)
(2.26488e-06 -3.05178e-06 0)
(2.53875e-06 -2.9092e-06 0)
(1.27322e-07 -3.80557e-06 0)
(3.82251e-07 -3.78422e-06 0)
(6.38165e-07 -3.7422e-06 0)
(8.95588e-07 -3.68064e-06 0)
(1.15502e-06 -3.60117e-06 0)
(1.41651e-06 -3.5058e-06 0)
(1.68026e-06 -3.39677e-06 0)
(1.94552e-06 -3.2765e-06 0)
(2.2128e-06 -3.14729e-06 0)
(2.47983e-06 -3.01182e-06 0)
(1.24443e-07 -3.86469e-06 0)
(3.73597e-07 -3.84449e-06 0)
(6.23694e-07 -3.80468e-06 0)
(8.75229e-07 -3.74635e-06 0)
(1.12866e-06 -3.67101e-06 0)
(1.38404e-06 -3.58053e-06 0)
(1.64154e-06 -3.47699e-06 0)
(1.9005e-06 -3.36268e-06 0)
(2.16135e-06 -3.2397e-06 0)
(2.42212e-06 -3.11066e-06 0)
(1.21434e-07 -3.92385e-06 0)
(3.64574e-07 -3.90467e-06 0)
(6.08648e-07 -3.8669e-06 0)
(8.54138e-07 -3.81153e-06 0)
(1.10148e-06 -3.73995e-06 0)
(1.35073e-06 -3.65394e-06 0)
(1.60208e-06 -3.55541e-06 0)
(1.85494e-06 -3.44654e-06 0)
(2.1097e-06 -3.32923e-06 0)
(2.36463e-06 -3.20601e-06 0)
(1.18262e-07 -3.98285e-06 0)
(3.55076e-07 -3.96464e-06 0)
(5.92842e-07 -3.92874e-06 0)
(8.32044e-07 -3.87609e-06 0)
(1.0731e-06 -3.80798e-06 0)
(1.31612e-06 -3.72608e-06 0)
(1.5613e-06 -3.63215e-06 0)
(1.80816e-06 -3.52824e-06 0)
(2.057e-06 -3.41612e-06 0)
(2.30637e-06 -3.29819e-06 0)
(1.1489e-07 -4.04135e-06 0)
(3.44988e-07 -4.02403e-06 0)
(5.76076e-07 -3.98988e-06 0)
(8.08651e-07 -3.93976e-06 0)
(1.04314e-06 -3.87488e-06 0)
(1.27971e-06 -3.79678e-06 0)
(1.51859e-06 -3.70711e-06 0)
(1.75941e-06 -3.60779e-06 0)
(2.00241e-06 -3.50045e-06 0)
(2.24637e-06 -3.38734e-06 0)
(1.11271e-07 -4.09925e-06 0)
(3.34162e-07 -4.08277e-06 0)
(5.58097e-07 -4.05026e-06 0)
(7.83594e-07 -4.00253e-06 0)
(1.01112e-06 -3.94068e-06 0)
(1.24091e-06 -3.86615e-06 0)
(1.47325e-06 -3.78046e-06 0)
(1.70787e-06 -3.68541e-06 0)
(1.94498e-06 -3.58252e-06 0)
(2.1835e-06 -3.4739e-06 0)
(1.07354e-07 -4.15581e-06 0)
(3.22445e-07 -4.14013e-06 0)
(5.3864e-07 -4.1092e-06 0)
(7.565e-07 -4.06374e-06 0)
(9.76547e-07 -4.00479e-06 0)
(1.19912e-06 -3.93366e-06 0)
(1.42455e-06 -3.85177e-06 0)
(1.65268e-06 -3.76077e-06 0)
(1.88363e-06 -3.66209e-06 0)
(2.11662e-06 -3.55769e-06 0)
(1.0306e-07 -4.21139e-06 0)
(3.09593e-07 -4.19649e-06 0)
(5.17299e-07 -4.16708e-06 0)
(7.26803e-07 -4.12383e-06 0)
(9.38711e-07 -4.06769e-06 0)
(1.15348e-06 -3.99984e-06 0)
(1.37148e-06 -3.9216e-06 0)
(1.59267e-06 -3.83451e-06 0)
(1.81713e-06 -3.73986e-06 0)
(2.04434e-06 -3.63948e-06 0)
(9.83482e-08 -4.26401e-06 0)
(2.9549e-07 -4.24988e-06 0)
(4.93883e-07 -4.222e-06 0)
(6.94232e-07 -4.18095e-06 0)
(8.97264e-07 -4.1276e-06 0)
(1.10353e-06 -4.06305e-06 0)
(1.31347e-06 -3.98848e-06 0)
(1.52711e-06 -3.90531e-06 0)
(1.74464e-06 -3.81474e-06 0)
(1.96577e-06 -3.71844e-06 0)
)


// ************************************************************************* //
