/*--------------------------------*- C++ -*----------------------------------*\
| =========                 |                                                 |
| \\      /  F ield         | foam-extend: Open Source CFD                    |
|  \\    /   O peration     | Version:     4.1                                |
|   \\  /    A nd           | Web:         http://www.foam-extend.org         |
|    \\/     M anipulation  |                                                 |
\*---------------------------------------------------------------------------*/
FoamFile
{
    version     2.0;
    format      ascii;
    class       vectorField;
    location    "8";
    object      solidsCellD_iteration16;
}
// * * * * * * * * * * * * * * * * * * * * * * * * * * * * * * * * * * * * * //


1000
(
(4.19022e-06 -1.8023e-06 0)
(3.95019e-06 -1.67556e-06 0)
(3.79619e-06 -1.59445e-06 0)
(3.70712e-06 -1.55574e-06 0)
(3.66277e-06 -1.54119e-06 0)
(3.65102e-06 -1.54532e-06 0)
(3.66328e-06 -1.56162e-06 0)
(3.69357e-06 -1.58693e-06 0)
(3.73738e-06 -1.6184e-06 0)
(3.79204e-06 -1.65406e-06 0)
(3.78817e-06 -1.96859e-06 0)
(3.53262e-06 -1.87972e-06 0)
(3.36891e-06 -1.82253e-06 0)
(3.27269e-06 -1.80003e-06 0)
(3.22285e-06 -1.79621e-06 0)
(3.20621e-06 -1.80792e-06 0)
(3.21382e-06 -1.82962e-06 0)
(3.2393e-06 -1.85896e-06 0)
(3.278e-06 -1.89376e-06 0)
(3.32635e-06 -1.93147e-06 0)
(3.37066e-06 -2.12624e-06 0)
(3.10963e-06 -2.07972e-06 0)
(2.94257e-06 -2.0493e-06 0)
(2.84332e-06 -2.04475e-06 0)
(2.79054e-06 -2.05269e-06 0)
(2.77056e-06 -2.07251e-06 0)
(2.77437e-06 -2.09986e-06 0)
(2.79553e-06 -2.13325e-06 0)
(2.82933e-06 -2.17128e-06 0)
(2.87225e-06 -2.21123e-06 0)
(2.94073e-06 -2.27243e-06 0)
(2.68515e-06 -2.27031e-06 0)
(2.52167e-06 -2.26803e-06 0)
(2.42375e-06 -2.28225e-06 0)
(2.37074e-06 -2.3024e-06 0)
(2.34906e-06 -2.33057e-06 0)
(2.34997e-06 -2.36361e-06 0)
(2.36722e-06 -2.40107e-06 0)
(2.3964e-06 -2.44216e-06 0)
(2.43385e-06 -2.4845e-06 0)
(2.50134e-06 -2.40426e-06 0)
(2.26204e-06 -2.44619e-06 0)
(2.10908e-06 -2.47182e-06 0)
(2.01697e-06 -2.50458e-06 0)
(1.96645e-06 -2.53675e-06 0)
(1.94466e-06 -2.57311e-06 0)
(1.94359e-06 -2.6117e-06 0)
(1.95739e-06 -2.6531e-06 0)
(1.98209e-06 -2.69712e-06 0)
(2.01403e-06 -2.74191e-06 0)
(2.05465e-06 -2.51908e-06 0)
(1.84222e-06 -2.60224e-06 0)
(1.70652e-06 -2.65401e-06 0)
(1.6244e-06 -2.70409e-06 0)
(1.57893e-06 -2.74748e-06 0)
(1.5586e-06 -2.79145e-06 0)
(1.55645e-06 -2.83515e-06 0)
(1.56719e-06 -2.88021e-06 0)
(1.58743e-06 -2.92691e-06 0)
(1.61371e-06 -2.9741e-06 0)
(1.6028e-06 -2.61427e-06 0)
(1.42665e-06 -2.73355e-06 0)
(1.31416e-06 -2.80825e-06 0)
(1.24586e-06 -2.87352e-06 0)
(1.2078e-06 -2.92672e-06 0)
(1.19039e-06 -2.97733e-06 0)
(1.18789e-06 -3.02549e-06 0)
(1.19587e-06 -3.07375e-06 0)
(1.21163e-06 -3.12278e-06 0)
(1.23214e-06 -3.17215e-06 0)
(1.14729e-06 -2.68772e-06 0)
(1.01536e-06 -2.83601e-06 0)
(9.31145e-07 -2.92911e-06 0)
(8.79916e-07 -3.00656e-06 0)
(8.51253e-07 -3.06763e-06 0)
(8.37923e-07 -3.1236e-06 0)
(8.35655e-07 -3.17535e-06 0)
(8.41122e-07 -3.22621e-06 0)
(8.52385e-07 -3.27711e-06 0)
(8.67068e-07 -3.32828e-06 0)
(6.89405e-07 -2.73766e-06 0)
(6.07726e-07 -2.90622e-06 0)
(5.55616e-07 -3.01218e-06 0)
(5.23837e-07 -3.09818e-06 0)
(5.05971e-07 -3.16476e-06 0)
(4.97566e-07 -3.22444e-06 0)
(4.96016e-07 -3.27873e-06 0)
(4.99225e-07 -3.33144e-06 0)
(5.05979e-07 -3.38366e-06 0)
(5.14788e-07 -3.43615e-06 0)
(2.30242e-07 -2.76282e-06 0)
(2.02576e-07 -2.94188e-06 0)
(1.84853e-07 -3.05446e-06 0)
(1.74038e-07 -3.14485e-06 0)
(1.67979e-07 -3.21428e-06 0)
(1.65093e-07 -3.27591e-06 0)
(1.64486e-07 -3.33147e-06 0)
(1.65514e-07 -3.38512e-06 0)
(1.67768e-07 -3.43804e-06 0)
(1.70696e-07 -3.49122e-06 0)
(6.54674e-06 -8.22693e-08 0)
(6.60643e-06 -5.92208e-08 0)
(6.64185e-06 -4.45707e-08 0)
(6.67972e-06 -3.59194e-08 0)
(6.72074e-06 -3.1061e-08 0)
(6.77116e-06 -2.87636e-08 0)
(6.83095e-06 -2.82247e-08 0)
(6.90088e-06 -2.87936e-08 0)
(6.98076e-06 -3.01713e-08 0)
(7.06951e-06 -3.18752e-08 0)
(6.49804e-06 -2.46818e-07 0)
(6.54778e-06 -1.79021e-07 0)
(6.57696e-06 -1.35959e-07 0)
(6.61065e-06 -1.10632e-07 0)
(6.6489e-06 -9.656e-08 0)
(6.69735e-06 -8.99367e-08 0)
(6.75573e-06 -8.84008e-08 0)
(6.82451e-06 -9.02366e-08 0)
(6.90342e-06 -9.44604e-08 0)
(6.99113e-06 -9.95571e-08 0)
(6.40086e-06 -4.12746e-07 0)
(6.43159e-06 -3.03908e-07 0)
(6.44874e-06 -2.34849e-07 0)
(6.47446e-06 -1.94243e-07 0)
(6.50744e-06 -1.7175e-07 0)
(6.55218e-06 -1.61388e-07 0)
(6.60781e-06 -1.59205e-07 0)
(6.67439e-06 -1.62409e-07 0)
(6.75142e-06 -1.69457e-07 0)
(6.83711e-06 -1.77988e-07 0)
(6.25689e-06 -5.80775e-07 0)
(6.2606e-06 -4.36752e-07 0)
(6.2606e-06 -3.45432e-07 0)
(6.27498e-06 -2.91972e-07 0)
(6.30045e-06 -2.62489e-07 0)
(6.33991e-06 -2.49159e-07 0)
(6.39165e-06 -2.4672e-07 0)
(6.45509e-06 -2.51497e-07 0)
(6.52944e-06 -2.61341e-07 0)
(6.61229e-06 -2.73313e-07 0)
(6.06842e-06 -7.51349e-07 0)
(6.03872e-06 -5.79944e-07 0)
(6.01752e-06 -4.71271e-07 0)
(6.01785e-06 -4.08066e-07 0)
(6.03402e-06 -3.73506e-07 0)
(6.06689e-06 -3.58354e-07 0)
(6.1138e-06 -3.56242e-07 0)
(6.17332e-06 -3.6287e-07 0)
(6.24435e-06 -3.75522e-07 0)
(6.32375e-06 -3.90927e-07 0)
(5.83828e-06 -9.24577e-07 0)
(5.77078e-06 -7.35098e-07 0)
(5.72566e-06 -6.14898e-07 0)
(5.71009e-06 -5.45626e-07 0)
(5.7157e-06 -5.08227e-07 0)
(5.74105e-06 -4.92587e-07 0)
(5.78244e-06 -4.91504e-07 0)
(5.83748e-06 -5.00308e-07 0)
(5.90466e-06 -5.15804e-07 0)
(5.98016e-06 -5.3462e-07 0)
(5.56993e-06 -1.10009e-06 0)
(5.46249e-06 -9.02841e-07 0)
(5.39209e-06 -7.77583e-07 0)
(5.35971e-06 -7.0629e-07 0)
(5.35412e-06 -6.68512e-07 0)
(5.37148e-06 -6.53875e-07 0)
(5.40693e-06 -6.54634e-07 0)
(5.45714e-06 -6.65958e-07 0)
(5.52009e-06 -6.84352e-07 0)
(5.59147e-06 -7.06514e-07 0)
(5.267e-06 -1.27706e-06 0)
(5.11997e-06 -1.08271e-06 0)
(5.02456e-06 -9.5914e-07 0)
(4.97545e-06 -8.90092e-07 0)
(4.95868e-06 -8.54514e-07 0)
(4.96795e-06 -8.42441e-07 0)
(4.99728e-06 -8.45897e-07 0)
(5.04246e-06 -8.60166e-07 0)
(5.10092e-06 -8.81537e-07 0)
(5.16802e-06 -9.07065e-07 0)
(4.93343e-06 -1.45428e-06 0)
(4.7496e-06 -1.27325e-06 0)
(4.63096e-06 -1.158e-06 0)
(4.5662e-06 -1.09537e-06 0)
(4.53886e-06 -1.06454e-06 0)
(4.54031e-06 -1.05652e-06 0)
(4.56357e-06 -1.06354e-06 0)
(4.6037e-06 -1.08113e-06 0)
(4.65748e-06 -1.10577e-06 0)
(4.72042e-06 -1.13449e-06 0)
(4.5732e-06 -1.63007e-06 0)
(4.35773e-06 -1.47199e-06 0)
(4.2191e-06 -1.37117e-06 0)
(4.14074e-06 -1.31884e-06 0)
(4.10401e-06 -1.29513e-06 0)
(4.09835e-06 -1.29259e-06 0)
(4.11595e-06 -1.30393e-06 0)
(4.15106e-06 -1.32536e-06 0)
(4.20013e-06 -1.35333e-06 0)
(4.25876e-06 -1.38647e-06 0)
(7.16747e-06 -3.35816e-08 0)
(7.2743e-06 -3.38939e-08 0)
(7.38799e-06 -3.42809e-08 0)
(7.50815e-06 -3.45435e-08 0)
(7.63401e-06 -3.4654e-08 0)
(7.76506e-06 -3.45967e-08 0)
(7.90073e-06 -3.43059e-08 0)
(8.0405e-06 -3.37933e-08 0)
(8.18392e-06 -3.30635e-08 0)
(8.33054e-06 -3.20949e-08 0)
(8.4799e-06 -3.08549e-08 0)
(8.63154e-06 -2.93206e-08 0)
(8.78504e-06 -2.74639e-08 0)
(8.93992e-06 -2.52586e-08 0)
(9.09577e-06 -2.26722e-08 0)
(9.25197e-06 -1.96602e-08 0)
(9.40822e-06 -1.61592e-08 0)
(9.56343e-06 -1.20982e-08 0)
(9.71783e-06 -7.37708e-09 0)
(9.86881e-06 -1.95535e-09 0)
(7.09258e-06 -1.04276e-07 0)
(7.20569e-06 -1.04713e-07 0)
(7.325e-06 -1.05449e-07 0)
(7.45005e-06 -1.05897e-07 0)
(7.58025e-06 -1.05889e-07 0)
(7.71513e-06 -1.05426e-07 0)
(7.85425e-06 -1.04376e-07 0)
(7.99714e-06 -1.02731e-07 0)
(8.14341e-06 -1.00422e-07 0)
(8.29261e-06 -9.73824e-08 0)
(8.44433e-06 -9.3547e-08 0)
(8.59817e-06 -8.88679e-08 0)
(8.75374e-06 -8.32607e-08 0)
(8.91056e-06 -7.66271e-08 0)
(9.06826e-06 -6.88473e-08 0)
(9.22623e-06 -5.97861e-08 0)
(9.38416e-06 -4.92601e-08 0)
(9.541e-06 -3.70707e-08 0)
(9.69702e-06 -2.29099e-08 0)
(9.84958e-06 -6.65755e-09 0)
(6.94536e-06 -1.84665e-07 0)
(7.07081e-06 -1.83836e-07 0)
(7.20112e-06 -1.8365e-07 0)
(7.33567e-06 -1.83316e-07 0)
(7.47438e-06 -1.82414e-07 0)
(7.61681e-06 -1.80944e-07 0)
(7.76272e-06 -1.78617e-07 0)
(7.9117e-06 -1.75392e-07 0)
(8.0635e-06 -1.71135e-07 0)
(8.21775e-06 -1.6575e-07 0)
(8.37414e-06 -1.59126e-07 0)
(8.53231e-06 -1.5116e-07 0)
(8.6919e-06 -1.41691e-07 0)
(8.85251e-06 -1.30544e-07 0)
(9.01378e-06 -1.17519e-07 0)
(9.17517e-06 -1.02388e-07 0)
(9.33641e-06 -8.48372e-08 0)
(9.49649e-06 -6.45375e-08 0)
(9.65568e-06 -4.09621e-08 0)
(9.81144e-06 -1.39129e-08 0)
(6.73025e-06 -2.8026e-07 0)
(6.87338e-06 -2.75999e-07 0)
(7.01961e-06 -2.72906e-07 0)
(7.16798e-06 -2.7026e-07 0)
(7.31911e-06 -2.67169e-07 0)
(7.4725e-06 -2.63658e-07 0)
(7.62832e-06 -2.59209e-07 0)
(7.78623e-06 -2.53749e-07 0)
(7.94618e-06 -2.4704e-07 0)
(8.10789e-06 -2.38915e-07 0)
(8.27114e-06 -2.29182e-07 0)
(8.43566e-06 -2.17667e-07 0)
(8.60117e-06 -2.0414e-07 0)
(8.76734e-06 -1.88356e-07 0)
(8.93389e-06 -1.70029e-07 0)
(9.10031e-06 -1.48815e-07 0)
(9.26639e-06 -1.24268e-07 0)
(9.43119e-06 -9.59147e-08 0)
(9.595e-06 -6.2998e-08 0)
(9.7554e-06 -2.52526e-08 0)
(6.45376e-06 -3.95973e-07 0)
(6.61907e-06 -3.85465e-07 0)
(6.78548e-06 -3.76899e-07 0)
(6.95139e-06 -3.69965e-07 0)
(7.11835e-06 -3.63021e-07 0)
(7.28581e-06 -3.56135e-07 0)
(7.45435e-06 -3.48488e-07 0)
(7.62377e-06 -3.39927e-07 0)
(7.7942e-06 -3.30055e-07 0)
(7.96548e-06 -3.18611e-07 0)
(8.13758e-06 -3.0532e-07 0)
(8.31031e-06 -2.89923e-07 0)
(8.4835e-06 -2.72101e-07 0)
(8.65689e-06 -2.51514e-07 0)
(8.83028e-06 -2.27775e-07 0)
(9.00321e-06 -2.00422e-07 0)
(9.17557e-06 -1.68873e-07 0)
(9.34646e-06 -1.3251e-07 0)
(9.51627e-06 -9.03476e-08 0)
(9.68267e-06 -4.20378e-08 0)
(6.12376e-06 -5.3532e-07 0)
(6.3146e-06 -5.15306e-07 0)
(6.50462e-06 -4.98235e-07 0)
(6.69117e-06 -4.84615e-07 0)
(6.8769e-06 -4.71845e-07 0)
(7.06113e-06 -4.59959e-07 0)
(7.24485e-06 -4.47787e-07 0)
(7.42804e-06 -4.35036e-07 0)
(7.61105e-06 -4.2115e-07 0)
(7.79388e-06 -4.05728e-07 0)
(7.97664e-06 -3.88381e-07 0)
(8.15926e-06 -3.68734e-07 0)
(8.34168e-06 -3.46354e-07 0)
(8.52373e-06 -3.20794e-07 0)
(8.70532e-06 -2.91547e-07 0)
(8.88607e-06 -2.58037e-07 0)
(9.06596e-06 -2.19524e-07 0)
(9.24416e-06 -1.75257e-07 0)
(9.42118e-06 -1.2402e-07 0)
(9.5948e-06 -6.53328e-08 0)
(5.7495e-06 -7.00464e-07 0)
(5.96804e-06 -6.67643e-07 0)
(6.18409e-06 -6.39055e-07 0)
(6.39358e-06 -6.16184e-07 0)
(6.60027e-06 -5.95498e-07 0)
(6.80338e-06 -5.76827e-07 0)
(7.00429e-06 -5.58719e-07 0)
(7.20314e-06 -5.40607e-07 0)
(7.40049e-06 -5.21761e-07 0)
(7.59653e-06 -5.01604e-07 0)
(7.79149e-06 -4.79596e-07 0)
(7.98544e-06 -4.5522e-07 0)
(8.17844e-06 -4.2792e-07 0)
(8.37044e-06 -3.97138e-07 0)
(8.56144e-06 -3.62236e-07 0)
(8.75118e-06 -3.22512e-07 0)
(8.93971e-06 -2.77066e-07 0)
(9.1263e-06 -2.24995e-07 0)
(9.31155e-06 -1.64875e-07 0)
(9.49342e-06 -9.60767e-08 0)
(5.34029e-06 -8.91876e-07 0)
(5.58738e-06 -8.42599e-07 0)
(5.83073e-06 -7.99458e-07 0)
(6.06478e-06 -7.64475e-07 0)
(6.29407e-06 -7.33686e-07 0)
(6.51776e-06 -7.0631e-07 0)
(6.73753e-06 -6.80762e-07 0)
(6.95364e-06 -6.56074e-07 0)
(7.16683e-06 -6.31315e-07 0)
(7.37747e-06 -6.05685e-07 0)
(7.58592e-06 -5.78462e-07 0)
(7.79242e-06 -5.48961e-07 0)
(7.99714e-06 -5.16482e-07 0)
(8.20017e-06 -4.80333e-07 0)
(8.4016e-06 -4.39733e-07 0)
(8.60128e-06 -3.93838e-07 0)
(8.79933e-06 -3.41591e-07 0)
(8.99521e-06 -2.81928e-07 0)
(9.18953e-06 -2.13214e-07 0)
(9.38055e-06 -1.34675e-07 0)
(4.90629e-06 -1.10917e-06 0)
(5.18186e-06 -1.04046e-06 0)
(5.45245e-06 -9.80879e-07 0)
(5.71184e-06 -9.31353e-07 0)
(5.96439e-06 -8.88524e-07 0)
(6.20968e-06 -8.50676e-07 0)
(6.44926e-06 -8.16159e-07 0)
(6.68369e-06 -7.83581e-07 0)
(6.91378e-06 -7.51795e-07 0)
(7.14006e-06 -7.19761e-07 0)
(7.36304e-06 -6.8656e-07 0)
(7.58307e-06 -6.51329e-07 0)
(7.80047e-06 -6.13216e-07 0)
(8.01543e-06 -5.71374e-07 0)
(8.22814e-06 -5.24871e-07 0)
(8.43857e-06 -4.72706e-07 0)
(8.64693e-06 -4.13674e-07 0)
(8.85283e-06 -3.46546e-07 0)
(9.05697e-06 -2.69514e-07 0)
(9.25788e-06 -1.81665e-07 0)
(4.45565e-06 -1.34841e-06 0)
(4.7596e-06 -1.25576e-06 0)
(5.05614e-06 -1.1777e-06 0)
(5.34144e-06 -1.11132e-06 0)
(5.61772e-06 -1.05451e-06 0)
(5.88549e-06 -1.00467e-06 0)
(6.14578e-06 -9.5993e-07 0)
(6.39942e-06 -9.1854e-07 0)
(6.64726e-06 -8.7905e-07 0)
(6.88998e-06 -8.40145e-07 0)
(7.12821e-06 -8.00666e-07 0)
(7.36245e-06 -7.59546e-07 0)
(7.59313e-06 -7.15747e-07 0)
(7.82057e-06 -6.68259e-07 0)
(8.04505e-06 -6.15988e-07 0)
(8.26669e-06 -5.57779e-07 0)
(8.48581e-06 -4.92288e-07 0)
(8.70216e-06 -4.1811e-07 0)
(8.91655e-06 -3.33278e-07 0)
(9.12786e-06 -2.36698e-07 0)
(4.12324e-06 -1.57622e-06 0)
(4.44514e-06 -1.46467e-06 0)
(4.7566e-06 -1.37305e-06 0)
(5.05743e-06 -1.29344e-06 0)
(5.34842e-06 -1.22447e-06 0)
(5.6303e-06 -1.1635e-06 0)
(5.90396e-06 -1.10859e-06 0)
(6.17019e-06 -1.05795e-06 0)
(6.4298e-06 -1.01e-06 0)
(6.68348e-06 -9.63317e-07 0)
(6.93188e-06 -9.16628e-07 0)
(7.17554e-06 -8.68745e-07 0)
(7.41496e-06 -8.18517e-07 0)
(7.65051e-06 -7.64825e-07 0)
(7.88256e-06 -7.06479e-07 0)
(8.11133e-06 -6.42229e-07 0)
(8.33721e-06 -5.70686e-07 0)
(8.56017e-06 -4.90353e-07 0)
(8.78105e-06 -3.9923e-07 0)
(8.99906e-06 -2.96165e-07 0)
(3.93224e-06 -1.76019e-06 0)
(4.25636e-06 -1.64449e-06 0)
(4.57033e-06 -1.54547e-06 0)
(4.87505e-06 -1.45791e-06 0)
(5.17054e-06 -1.38055e-06 0)
(5.4573e-06 -1.31119e-06 0)
(5.73596e-06 -1.24805e-06 0)
(6.00713e-06 -1.18947e-06 0)
(6.27148e-06 -1.13391e-06 0)
(6.52962e-06 -1.07997e-06 0)
(6.78213e-06 -1.02639e-06 0)
(7.02955e-06 -9.71953e-07 0)
(7.27236e-06 -9.15495e-07 0)
(7.51096e-06 -8.55874e-07 0)
(7.74575e-06 -7.91888e-07 0)
(7.97702e-06 -7.22277e-07 0)
(8.20519e-06 -6.45699e-07 0)
(8.43042e-06 -5.60675e-07 0)
(8.65352e-06 -4.65289e-07 0)
(8.87405e-06 -3.58459e-07 0)
(3.76794e-06 -1.93735e-06 0)
(4.08904e-06 -1.81881e-06 0)
(4.40252e-06 -1.71481e-06 0)
(4.70787e-06 -1.62113e-06 0)
(5.00507e-06 -1.53681e-06 0)
(5.2942e-06 -1.46013e-06 0)
(5.57567e-06 -1.38953e-06 0)
(5.84987e-06 -1.32353e-06 0)
(6.11733e-06 -1.26071e-06 0)
(6.37854e-06 -1.19975e-06 0)
(6.63402e-06 -1.13943e-06 0)
(6.88425e-06 -1.07855e-06 0)
(7.12968e-06 -1.01595e-06 0)
(7.3707e-06 -9.5051e-07 0)
(7.60773e-06 -8.81032e-07 0)
(7.84113e-06 -8.0628e-07 0)
(8.07134e-06 -7.24966e-07 0)
(8.29863e-06 -6.3568e-07 0)
(8.5238e-06 -5.36615e-07 0)
(8.74671e-06 -4.26797e-07 0)
(3.6226e-06 -2.10826e-06 0)
(3.9392e-06 -1.98827e-06 0)
(4.25001e-06 -1.88048e-06 0)
(4.55386e-06 -1.78171e-06 0)
(4.85068e-06 -1.69139e-06 0)
(5.14024e-06 -1.60819e-06 0)
(5.42277e-06 -1.53082e-06 0)
(5.69846e-06 -1.45796e-06 0)
(5.96768e-06 -1.38835e-06 0)
(6.23081e-06 -1.32076e-06 0)
(6.48828e-06 -1.25402e-06 0)
(6.74049e-06 -1.18699e-06 0)
(6.98785e-06 -1.11854e-06 0)
(7.23075e-06 -1.04757e-06 0)
(7.46959e-06 -9.7292e-07 0)
(7.70477e-06 -8.93412e-07 0)
(7.93675e-06 -8.07814e-07 0)
(8.16589e-06 -7.1481e-07 0)
(8.39295e-06 -6.12738e-07 0)
(8.61809e-06 -5.00745e-07 0)
(3.49431e-06 -2.27195e-06 0)
(3.80502e-06 -2.1515e-06 0)
(4.11157e-06 -2.0412e-06 0)
(4.41228e-06 -1.93859e-06 0)
(4.7071e-06 -1.84341e-06 0)
(4.99554e-06 -1.75469e-06 0)
(5.27767e-06 -1.67136e-06 0)
(5.55351e-06 -1.59234e-06 0)
(5.8233e-06 -1.5165e-06 0)
(6.0873e-06 -1.44274e-06 0)
(6.34584e-06 -1.36998e-06 0)
(6.59925e-06 -1.29715e-06 0)
(6.8479e-06 -1.22315e-06 0)
(7.09215e-06 -1.14697e-06 0)
(7.33237e-06 -1.06748e-06 0)
(7.56899e-06 -9.83575e-07 0)
(7.80246e-06 -8.94101e-07 0)
(8.03322e-06 -7.97851e-07 0)
(8.26197e-06 -6.93343e-07 0)
(8.48916e-06 -5.7985e-07 0)
(3.38009e-06 -2.42859e-06 0)
(3.68422e-06 -2.30845e-06 0)
(3.98552e-06 -2.19655e-06 0)
(4.28195e-06 -2.09104e-06 0)
(4.57357e-06 -1.99194e-06 0)
(4.85967e-06 -1.89854e-06 0)
(5.14022e-06 -1.81004e-06 0)
(5.41511e-06 -1.72555e-06 0)
(5.68447e-06 -1.64409e-06 0)
(5.94843e-06 -1.5647e-06 0)
(6.20724e-06 -1.48641e-06 0)
(6.46116e-06 -1.4082e-06 0)
(6.7105e-06 -1.32907e-06 0)
(6.95559e-06 -1.24807e-06 0)
(7.19679e-06 -1.16413e-06 0)
(7.43451e-06 -1.07625e-06 0)
(7.6692e-06 -9.83347e-07 0)
(7.90133e-06 -8.84344e-07 0)
(8.13161e-06 -7.7795e-07 0)
(8.36059e-06 -6.63548e-07 0)
(3.27769e-06 -2.57833e-06 0)
(3.57484e-06 -2.45905e-06 0)
(3.87021e-06 -2.3463e-06 0)
(4.16161e-06 -2.23871e-06 0)
(4.44916e-06 -2.13653e-06 0)
(4.73201e-06 -2.03927e-06 0)
(5.01008e-06 -1.94637e-06 0)
(5.28314e-06 -1.8571e-06 0)
(5.55123e-06 -1.77066e-06 0)
(5.81439e-06 -1.68622e-06 0)
(6.07278e-06 -1.6029e-06 0)
(6.3266e-06 -1.51978e-06 0)
(6.57611e-06 -1.43596e-06 0)
(6.8216e-06 -1.35055e-06 0)
(7.06341e-06 -1.26257e-06 0)
(7.30191e-06 -1.17113e-06 0)
(7.53755e-06 -1.07523e-06 0)
(7.77084e-06 -9.73923e-07 0)
(8.00244e-06 -8.66118e-07 0)
(8.23296e-06 -7.51292e-07 0)
(3.18496e-06 -2.72149e-06 0)
(3.475e-06 -2.60345e-06 0)
(3.76406e-06 -2.49039e-06 0)
(4.04997e-06 -2.38139e-06 0)
(4.33284e-06 -2.27683e-06 0)
(4.61179e-06 -2.17643e-06 0)
(4.88669e-06 -2.07982e-06 0)
(5.15723e-06 -1.98645e-06 0)
(5.42338e-06 -1.89565e-06 0)
(5.68511e-06 -1.80672e-06 0)
(5.94252e-06 -1.71891e-06 0)
(6.19574e-06 -1.63139e-06 0)
(6.44498e-06 -1.54334e-06 0)
(6.69049e-06 -1.45398e-06 0)
(6.93257e-06 -1.3624e-06 0)
(7.17159e-06 -1.26781e-06 0)
(7.40795e-06 -1.16934e-06 0)
(7.64218e-06 -1.06616e-06 0)
(7.87488e-06 -9.57357e-07 0)
(8.10673e-06 -8.42515e-07 0)
(3.1e-06 -2.8585e-06 0)
(3.38295e-06 -2.74192e-06 0)
(3.66553e-06 -2.62897e-06 0)
(3.94568e-06 -2.51906e-06 0)
(4.22349e-06 -2.41271e-06 0)
(4.49811e-06 -2.3098e-06 0)
(4.76936e-06 -2.21013e-06 0)
(5.03689e-06 -2.11328e-06 0)
(5.30061e-06 -2.01872e-06 0)
(5.56044e-06 -1.92588e-06 0)
(5.81642e-06 -1.83412e-06 0)
(6.06863e-06 -1.7427e-06 0)
(6.31725e-06 -1.65091e-06 0)
(6.56246e-06 -1.55805e-06 0)
(6.80454e-06 -1.4633e-06 0)
(7.04384e-06 -1.36599e-06 0)
(7.28072e-06 -1.26534e-06 0)
(7.51571e-06 -1.16067e-06 0)
(7.74929e-06 -1.05122e-06 0)
(7.98227e-06 -9.36688e-07 0)
(3.02113e-06 -2.98981e-06 0)
(3.29711e-06 -2.87479e-06 0)
(3.57322e-06 -2.76222e-06 0)
(3.84749e-06 -2.65182e-06 0)
(4.12006e-06 -2.54417e-06 0)
(4.39008e-06 -2.43929e-06 0)
(4.65737e-06 -2.33712e-06 0)
(4.92155e-06 -2.23736e-06 0)
(5.18248e-06 -2.13962e-06 0)
(5.44007e-06 -2.04342e-06 0)
(5.69429e-06 -1.94824e-06 0)
(5.9452e-06 -1.85342e-06 0)
(6.1929e-06 -1.75836e-06 0)
(6.43757e-06 -1.66246e-06 0)
(6.67943e-06 -1.56497e-06 0)
(6.9188e-06 -1.46533e-06 0)
(7.15601e-06 -1.36289e-06 0)
(7.39154e-06 -1.25705e-06 0)
(7.62584e-06 -1.14725e-06 0)
(7.85975e-06 -1.03329e-06 0)
(2.94685e-06 -3.11589e-06 0)
(3.21607e-06 -3.00245e-06 0)
(3.48579e-06 -2.89045e-06 0)
(3.75422e-06 -2.77985e-06 0)
(4.02149e-06 -2.67129e-06 0)
(4.2868e-06 -2.56491e-06 0)
(4.54995e-06 -2.46074e-06 0)
(4.81057e-06 -2.3586e-06 0)
(5.0685e-06 -2.25819e-06 0)
(5.32361e-06 -2.15916e-06 0)
(5.57584e-06 -2.06106e-06 0)
(5.82521e-06 -1.96334e-06 0)
(6.0718e-06 -1.86548e-06 0)
(6.31572e-06 -1.76697e-06 0)
(6.55718e-06 -1.66715e-06 0)
(6.79646e-06 -1.56557e-06 0)
(7.03383e-06 -1.46166e-06 0)
(7.26974e-06 -1.35496e-06 0)
(7.50463e-06 -1.24505e-06 0)
(7.73922e-06 -1.13184e-06 0)
(2.87582e-06 -3.23716e-06 0)
(3.13852e-06 -3.12525e-06 0)
(3.40203e-06 -3.01394e-06 0)
(3.66474e-06 -2.90338e-06 0)
(3.92675e-06 -2.79425e-06 0)
(4.18734e-06 -2.68674e-06 0)
(4.44629e-06 -2.58101e-06 0)
(4.70326e-06 -2.47695e-06 0)
(4.95807e-06 -2.37436e-06 0)
(5.21057e-06 -2.27298e-06 0)
(5.46069e-06 -2.17245e-06 0)
(5.70839e-06 -2.0723e-06 0)
(5.95372e-06 -1.97208e-06 0)
(6.19679e-06 -1.87137e-06 0)
(6.43773e-06 -1.76962e-06 0)
(6.67678e-06 -1.66643e-06 0)
(6.91418e-06 -1.56136e-06 0)
(7.15034e-06 -1.45405e-06 0)
(7.38567e-06 -1.34424e-06 0)
(7.62078e-06 -1.23185e-06 0)
(2.80682e-06 -3.35404e-06 0)
(3.06328e-06 -3.24359e-06 0)
(3.3208e-06 -3.13303e-06 0)
(3.57796e-06 -3.02268e-06 0)
(3.83483e-06 -2.91322e-06 0)
(4.09077e-06 -2.80492e-06 0)
(4.34557e-06 -2.69801e-06 0)
(4.59892e-06 -2.59246e-06 0)
(4.85061e-06 -2.48814e-06 0)
(5.10048e-06 -2.38486e-06 0)
(5.34843e-06 -2.28235e-06 0)
(5.5944e-06 -2.1802e-06 0)
(5.83842e-06 -2.07805e-06 0)
(6.08054e-06 -1.97554e-06 0)
(6.32086e-06 -1.8722e-06 0)
(6.55959e-06 -1.76773e-06 0)
(6.79692e-06 -1.66176e-06 0)
(7.03324e-06 -1.55406e-06 0)
(7.26882e-06 -1.44446e-06 0)
(7.50434e-06 -1.33297e-06 0)
(2.73872e-06 -3.46688e-06 0)
(2.98923e-06 -3.35782e-06 0)
(3.241e-06 -3.24803e-06 0)
(3.49282e-06 -3.138e-06 0)
(3.74476e-06 -3.02843e-06 0)
(3.99622e-06 -2.91963e-06 0)
(4.24703e-06 -2.81189e-06 0)
(4.49684e-06 -2.70523e-06 0)
(4.74549e-06 -2.59958e-06 0)
(4.99277e-06 -2.49482e-06 0)
(5.23857e-06 -2.39074e-06 0)
(5.48282e-06 -2.28699e-06 0)
(5.7255e-06 -2.18329e-06 0)
(5.96664e-06 -2.07934e-06 0)
(6.2063e-06 -1.97473e-06 0)
(6.44465e-06 -1.86925e-06 0)
(6.68183e-06 -1.76263e-06 0)
(6.91822e-06 -1.6547e-06 0)
(7.15396e-06 -1.5454e-06 0)
(7.38973e-06 -1.43483e-06 0)
(2.67035e-06 -3.57604e-06 0)
(2.9152e-06 -3.46825e-06 0)
(3.16152e-06 -3.35926e-06 0)
(3.40828e-06 -3.24968e-06 0)
(3.65555e-06 -3.14019e-06 0)
(3.90279e-06 -3.03114e-06 0)
(4.14982e-06 -2.92286e-06 0)
(4.39629e-06 -2.81542e-06 0)
(4.64204e-06 -2.70881e-06 0)
(4.88686e-06 -2.60293e-06 0)
(5.13063e-06 -2.49766e-06 0)
(5.37323e-06 -2.39269e-06 0)
(5.61464e-06 -2.28779e-06 0)
(5.85483e-06 -2.18272e-06 0)
(6.09383e-06 -2.07714e-06 0)
(6.33178e-06 -1.97089e-06 0)
(6.5688e-06 -1.8638e-06 0)
(6.80515e-06 -1.75577e-06 0)
(7.04101e-06 -1.64684e-06 0)
(7.27691e-06 -1.53715e-06 0)
(2.60063e-06 -3.6818e-06 0)
(2.84009e-06 -3.57531e-06 0)
(3.08123e-06 -3.46703e-06 0)
(3.32332e-06 -3.35797e-06 0)
(3.56627e-06 -3.24874e-06 0)
(3.80961e-06 -3.13968e-06 0)
(4.05315e-06 -3.03113e-06 0)
(4.29657e-06 -2.92322e-06 0)
(4.53967e-06 -2.81597e-06 0)
(4.78223e-06 -2.70933e-06 0)
(5.02412e-06 -2.60321e-06 0)
(5.2652e-06 -2.49735e-06 0)
(5.50541e-06 -2.39156e-06 0)
(5.74471e-06 -2.28565e-06 0)
(5.98309e-06 -2.17933e-06 0)
(6.22066e-06 -2.07253e-06 0)
(6.45749e-06 -1.96513e-06 0)
(6.69377e-06 -1.85708e-06 0)
(6.92968e-06 -1.74854e-06 0)
(7.16564e-06 -1.63966e-06 0)
(2.52842e-06 -3.78459e-06 0)
(2.76265e-06 -3.67901e-06 0)
(2.99887e-06 -3.57169e-06 0)
(3.23686e-06 -3.46337e-06 0)
(3.47588e-06 -3.35453e-06 0)
(3.71578e-06 -3.24564e-06 0)
(3.95621e-06 -3.13706e-06 0)
(4.19694e-06 -3.02894e-06 0)
(4.4377e-06 -2.92132e-06 0)
(4.67829e-06 -2.81421e-06 0)
(4.91854e-06 -2.70753e-06 0)
(5.1583e-06 -2.60107e-06 0)
(5.39746e-06 -2.49465e-06 0)
(5.63598e-06 -2.38814e-06 0)
(5.87382e-06 -2.28132e-06 0)
(6.11106e-06 -2.17413e-06 0)
(6.3477e-06 -2.06651e-06 0)
(6.58392e-06 -1.9585e-06 0)
(6.8198e-06 -1.85031e-06 0)
(7.05577e-06 -1.74217e-06 0)
(2.45201e-06 -3.88429e-06 0)
(2.68179e-06 -3.77979e-06 0)
(2.91399e-06 -3.67363e-06 0)
(3.14802e-06 -3.56607e-06 0)
(3.38365e-06 -3.45779e-06 0)
(3.62053e-06 -3.34927e-06 0)
(3.85834e-06 -3.24088e-06 0)
(4.0968e-06 -3.13279e-06 0)
(4.33563e-06 -3.02508e-06 0)
(4.57461e-06 -2.91776e-06 0)
(4.81351e-06 -2.81078e-06 0)
(5.05217e-06 -2.70395e-06 0)
(5.29047e-06 -2.59714e-06 0)
(5.52835e-06 -2.49025e-06 0)
(5.76576e-06 -2.3831e-06 0)
(6.0027e-06 -2.27565e-06 0)
(6.23917e-06 -2.16788e-06 0)
(6.47538e-06 -2.05991e-06 0)
(6.71126e-06 -1.95205e-06 0)
(6.94715e-06 -1.84453e-06 0)
(2.37038e-06 -3.982e-06 0)
(2.59608e-06 -3.87876e-06 0)
(2.82462e-06 -3.77351e-06 0)
(3.05545e-06 -3.66679e-06 0)
(3.28833e-06 -3.5592e-06 0)
(3.52284e-06 -3.4512e-06 0)
(3.75866e-06 -3.34317e-06 0)
(3.99545e-06 -3.23531e-06 0)
(4.23288e-06 -3.12769e-06 0)
(4.47067e-06 -3.02034e-06 0)
(4.7086e-06 -2.91324e-06 0)
(4.94647e-06 -2.80623e-06 0)
(5.18415e-06 -2.69922e-06 0)
(5.42154e-06 -2.59211e-06 0)
(5.65859e-06 -2.48472e-06 0)
(5.89532e-06 -2.37707e-06 0)
(6.13171e-06 -2.26924e-06 0)
(6.36787e-06 -2.16128e-06 0)
(6.60379e-06 -2.0536e-06 0)
(6.83965e-06 -1.94657e-06 0)
(2.2825e-06 -4.07693e-06 0)
(2.50464e-06 -3.9751e-06 0)
(2.73016e-06 -3.87114e-06 0)
(2.95852e-06 -3.76551e-06 0)
(3.18939e-06 -3.65884e-06 0)
(3.4223e-06 -3.55159e-06 0)
(3.65685e-06 -3.44415e-06 0)
(3.89262e-06 -3.3367e-06 0)
(4.12923e-06 -3.22933e-06 0)
(4.36637e-06 -3.12211e-06 0)
(4.60374e-06 -3.01506e-06 0)
(4.84114e-06 -2.90803e-06 0)
(5.07841e-06 -2.8009e-06 0)
(5.31547e-06 -2.69367e-06 0)
(5.55224e-06 -2.58618e-06 0)
(5.78878e-06 -2.47843e-06 0)
(6.02513e-06 -2.37052e-06 0)
(6.26129e-06 -2.26253e-06 0)
(6.49736e-06 -2.15492e-06 0)
(6.73332e-06 -2.04817e-06 0)
(1.69975e-07 -3.54575e-06 0)
(5.12333e-07 -3.49329e-06 0)
(8.6192e-07 -3.39044e-06 0)
(1.22284e-06 -3.24135e-06 0)
(1.59841e-06 -3.05175e-06 0)
(1.99072e-06 -2.82871e-06 0)
(2.40057e-06 -2.58042e-06 0)
(2.82724e-06 -2.31539e-06 0)
(3.26911e-06 -2.0423e-06 0)
(3.72282e-06 -1.76808e-06 0)
(1.65082e-07 -3.60236e-06 0)
(4.97295e-07 -3.55441e-06 0)
(8.35537e-07 -3.46037e-06 0)
(1.18328e-06 -3.32371e-06 0)
(1.54336e-06 -3.14935e-06 0)
(1.91755e-06 -2.94328e-06 0)
(2.30662e-06 -2.71245e-06 0)
(2.70979e-06 -2.46425e-06 0)
(3.12511e-06 -2.20653e-06 0)
(3.54993e-06 -1.94503e-06 0)
(1.60779e-07 -3.66031e-06 0)
(4.84039e-07 -3.61646e-06 0)
(8.12236e-07 -3.53038e-06 0)
(1.14816e-06 -3.40509e-06 0)
(1.49421e-06 -3.24484e-06 0)
(1.85186e-06 -3.05484e-06 0)
(2.22191e-06 -2.84102e-06 0)
(2.60406e-06 -2.60962e-06 0)
(2.99696e-06 -2.36739e-06 0)
(3.39882e-06 -2.11805e-06 0)
(1.56966e-07 -3.71973e-06 0)
(4.72296e-07 -3.67936e-06 0)
(7.91774e-07 -3.60008e-06 0)
(1.11764e-06 -3.48452e-06 0)
(1.45192e-06 -3.33643e-06 0)
(1.79579e-06 -3.16034e-06 0)
(2.14986e-06 -2.96152e-06 0)
(2.51386e-06 -2.74544e-06 0)
(2.88664e-06 -2.51839e-06 0)
(3.26669e-06 -2.28323e-06 0)
(1.53463e-07 -3.78059e-06 0)
(4.61502e-07 -3.74334e-06 0)
(7.73008e-07 -3.67016e-06 0)
(1.08979e-06 -3.56335e-06 0)
(1.41353e-06 -3.42625e-06 0)
(1.74523e-06 -3.26291e-06 0)
(2.08542e-06 -3.07797e-06 0)
(2.43386e-06 -2.8761e-06 0)
(2.78977e-06 -2.66299e-06 0)
(3.15111e-06 -2.44124e-06 0)
(1.50193e-07 -3.84282e-06 0)
(4.51522e-07 -3.80827e-06 0)
(7.55748e-07 -3.74037e-06 0)
(1.06439e-06 -3.64121e-06 0)
(1.37885e-06 -3.51376e-06 0)
(1.6999e-06 -3.36168e-06 0)
(2.02797e-06 -3.18919e-06 0)
(2.36275e-06 -3.00038e-06 0)
(2.70387e-06 -2.80043e-06 0)
(3.04889e-06 -2.59193e-06 0)
(1.47068e-07 -3.90631e-06 0)
(4.42025e-07 -3.87419e-06 0)
(7.3942e-07 -3.811e-06 0)
(1.04055e-06 -3.71869e-06 0)
(1.34656e-06 -3.59991e-06 0)
(1.65811e-06 -3.45797e-06 0)
(1.97555e-06 -3.29672e-06 0)
(2.29845e-06 -3.11981e-06 0)
(2.62679e-06 -2.93186e-06 0)
(2.95773e-06 -2.73569e-06 0)
(1.44077e-07 -3.97095e-06 0)
(4.329e-07 -3.94096e-06 0)
(7.23822e-07 -3.88194e-06 0)
(1.01795e-06 -3.79569e-06 0)
(1.31621e-06 -3.68461e-06 0)
(1.61916e-06 -3.55174e-06 0)
(1.9271e-06 -3.40062e-06 0)
(2.23949e-06 -3.23457e-06 0)
(2.5566e-06 -3.05768e-06 0)
(2.87541e-06 -2.87299e-06 0)
(1.41141e-07 -4.03663e-06 0)
(4.23968e-07 -4.00855e-06 0)
(7.08644e-07 -3.95325e-06 0)
(9.96089e-07 -3.87243e-06 0)
(1.28713e-06 -3.76827e-06 0)
(1.58218e-06 -3.64356e-06 0)
(1.88155e-06 -3.50155e-06 0)
(2.18461e-06 -3.34535e-06 0)
(2.49178e-06 -3.17854e-06 0)
(2.80005e-06 -3.00435e-06 0)
(1.38204e-07 -4.10318e-06 0)
(4.1512e-07 -4.0768e-06 0)
(6.93682e-07 -4.02484e-06 0)
(9.74684e-07 -3.94888e-06 0)
(1.25886e-06 -3.85093e-06 0)
(1.54657e-06 -3.73356e-06 0)
(1.83805e-06 -3.59978e-06 0)
(2.13269e-06 -3.45252e-06 0)
(2.43097e-06 -3.29493e-06 0)
(2.73e-06 -3.13031e-06 0)
(1.35243e-07 -4.17043e-06 0)
(4.06249e-07 -4.14562e-06 0)
(6.78717e-07 -4.09667e-06 0)
(9.53412e-07 -4.02507e-06 0)
(1.23096e-06 -3.93273e-06 0)
(1.5117e-06 -3.822e-06 0)
(1.79585e-06 -3.69566e-06 0)
(2.08279e-06 -3.55649e-06 0)
(2.37302e-06 -3.4073e-06 0)
(2.66384e-06 -3.25137e-06 0)
(1.32246e-07 -4.23823e-06 0)
(3.97251e-07 -4.21485e-06 0)
(6.63571e-07 -4.16861e-06 0)
(9.31995e-07 -4.10096e-06 0)
(1.20305e-06 -4.0137e-06 0)
(1.47707e-06 -3.90898e-06 0)
(1.75428e-06 -3.78938e-06 0)
(2.03406e-06 -3.65756e-06 0)
(2.31689e-06 -3.51602e-06 0)
(2.60033e-06 -3.36799e-06 0)
(1.29172e-07 -4.30643e-06 0)
(3.87992e-07 -4.28431e-06 0)
(6.48041e-07 -4.24056e-06 0)
(9.10132e-07 -4.17651e-06 0)
(1.17474e-06 -4.09385e-06 0)
(1.44218e-06 -3.9946e-06 0)
(1.7127e-06 -3.88115e-06 0)
(1.98571e-06 -3.756e-06 0)
(2.26164e-06 -3.62145e-06 0)
(2.53835e-06 -3.48058e-06 0)
(1.25967e-07 -4.37476e-06 0)
(3.78344e-07 -4.3538e-06 0)
(6.31927e-07 -4.31232e-06 0)
(8.87529e-07 -4.25156e-06 0)
(1.14562e-06 -4.17312e-06 0)
(1.40651e-06 -4.07888e-06 0)
(1.67047e-06 -3.97104e-06 0)
(1.93696e-06 -3.852e-06 0)
(2.20637e-06 -3.72383e-06 0)
(2.47682e-06 -3.58948e-06 0)
(1.22582e-07 -4.44305e-06 0)
(3.68185e-07 -4.42313e-06 0)
(6.15018e-07 -4.38376e-06 0)
(8.63884e-07 -4.32605e-06 0)
(1.11529e-06 -4.2515e-06 0)
(1.36955e-06 -4.16186e-06 0)
(1.62694e-06 -4.0592e-06 0)
(1.88704e-06 -3.94575e-06 0)
(2.15014e-06 -3.82346e-06 0)
(2.41465e-06 -3.69505e-06 0)
(1.18979e-07 -4.5109e-06 0)
(3.57398e-07 -4.49196e-06 0)
(5.97098e-07 -4.45457e-06 0)
(8.38883e-07 -4.3997e-06 0)
(1.08332e-06 -4.32875e-06 0)
(1.33074e-06 -4.24339e-06 0)
(1.58146e-06 -4.14553e-06 0)
(1.83517e-06 -4.03726e-06 0)
(2.09204e-06 -3.92039e-06 0)
(2.3508e-06 -3.79743e-06 0)
(1.15114e-07 -4.57822e-06 0)
(3.45827e-07 -4.56021e-06 0)
(5.7789e-07 -4.52467e-06 0)
(8.12131e-07 -4.47247e-06 0)
(1.04919e-06 -4.40492e-06 0)
(1.28946e-06 -4.32359e-06 0)
(1.53326e-06 -4.23023e-06 0)
(1.7804e-06 -4.1268e-06 0)
(2.03103e-06 -4.01498e-06 0)
(2.28406e-06 -3.89711e-06 0)
(1.10929e-07 -4.64426e-06 0)
(3.33293e-07 -4.62713e-06 0)
(5.57096e-07 -4.59336e-06 0)
(7.83212e-07 -4.54372e-06 0)
(1.01237e-06 -4.47942e-06 0)
(1.24501e-06 -4.40192e-06 0)
(1.48153e-06 -4.31284e-06 0)
(1.72179e-06 -4.21401e-06 0)
(1.96598e-06 -4.10696e-06 0)
(2.21323e-06 -3.9939e-06 0)
(1.06332e-07 -4.70934e-06 0)
(3.19523e-07 -4.69309e-06 0)
(5.3427e-07 -4.66102e-06 0)
(7.51519e-07 -4.61386e-06 0)
(9.72067e-07 -4.55272e-06 0)
(1.19647e-06 -4.47892e-06 0)
(1.42515e-06 -4.39397e-06 0)
(1.65813e-06 -4.29955e-06 0)
(1.89556e-06 -4.19712e-06 0)
(2.13685e-06 -4.08865e-06 0)
(1.0128e-07 -4.77146e-06 0)
(3.04409e-07 -4.75607e-06 0)
(5.09225e-07 -4.7257e-06 0)
(7.16756e-07 -4.68102e-06 0)
(9.27903e-07 -4.62302e-06 0)
(1.14333e-06 -4.55294e-06 0)
(1.36353e-06 -4.47211e-06 0)
(1.58872e-06 -4.38212e-06 0)
(1.819e-06 -4.2843e-06 0)
(2.05407e-06 -4.18049e-06 0)
)


// ************************************************************************* //
