/*--------------------------------*- C++ -*----------------------------------*\
| =========                 |                                                 |
| \\      /  F ield         | foam-extend: Open Source CFD                    |
|  \\    /   O peration     | Version:     4.1                                |
|   \\  /    A nd           | Web:         http://www.foam-extend.org         |
|    \\/     M anipulation  |                                                 |
\*---------------------------------------------------------------------------*/
FoamFile
{
    version     2.0;
    format      ascii;
    class       volSymmTensorField;
    location    "7";
    object      epsilon;
}
// * * * * * * * * * * * * * * * * * * * * * * * * * * * * * * * * * * * * * //

dimensions      [0 0 0 0 0 0 0];

internalField   nonuniform List<symmTensor> 
1000
(
(2.28237e-06 -2.4654e-06 -1.22245e-21 1.23736e-08 -2.32101e-21 -4.8165e-36)
(3.56452e-06 -1.91408e-06 6.91127e-21 -1.36782e-06 1.49521e-21 0)
(4.17457e-06 -1.51927e-06 -7.51273e-21 -2.00358e-06 -5.35908e-21 0)
(4.53292e-06 -1.24077e-06 -2.88032e-21 -2.40839e-06 -6.62662e-22 0)
(4.70729e-06 -1.02886e-06 -4.83466e-22 -2.60604e-06 1.29007e-22 0)
(4.78119e-06 -8.69727e-07 3.03271e-21 -2.70641e-06 1.93378e-21 0)
(4.79393e-06 -7.43288e-07 -5.42882e-21 -2.73608e-06 -3.04998e-21 0)
(4.7667e-06 -6.45034e-07 1.18971e-21 -2.72646e-06 7.13784e-22 0)
(4.72626e-06 -5.62137e-07 -2.17332e-21 -2.69435e-06 -1.2779e-21 0)
(4.65533e-06 -4.91094e-07 -2.6828e-21 -2.6478e-06 -1.68935e-21 0)
(3.12595e-06 -2.96272e-06 3.43169e-21 -1.77099e-07 -2.00968e-21 1.32626e-36)
(4.16586e-06 -2.03785e-06 -6.93994e-21 -1.44031e-06 -1.83696e-21 0)
(4.62466e-06 -1.43924e-06 -6.41664e-21 -2.0016e-06 -1.72013e-21 0)
(4.87452e-06 -1.04429e-06 -5.00037e-21 -2.36953e-06 -3.44352e-21 0)
(4.9737e-06 -7.68439e-07 -1.09379e-21 -2.54428e-06 -9.7498e-22 0)
(4.99235e-06 -5.77506e-07 4.34905e-21 -2.63555e-06 2.55697e-21 0)
(4.96362e-06 -4.37817e-07 -5.08767e-21 -2.66068e-06 -3.47642e-21 0)
(4.90644e-06 -3.39288e-07 2.06335e-21 -2.65389e-06 1.74594e-21 0)
(4.83487e-06 -2.61901e-07 -3.84299e-21 -2.61801e-06 -2.98023e-21 0)
(4.75243e-06 -2.06695e-07 -1.42107e-21 -2.5864e-06 -1.5891e-21 0)
(4.10637e-06 -3.32522e-06 4.23782e-21 -5.27998e-07 2.58678e-22 -8.12567e-37)
(4.79695e-06 -2.09257e-06 -5.42022e-21 -1.56235e-06 -2.36457e-21 0)
(5.04604e-06 -1.3287e-06 4.96949e-21 -1.98768e-06 2.23937e-21 0)
(5.15429e-06 -8.40825e-07 -4.48551e-21 -2.28279e-06 -2.1552e-21 0)
(5.16013e-06 -5.15691e-07 -1.09563e-21 -2.41422e-06 -8.28588e-22 0)
(5.11409e-06 -3.01776e-07 -4.18363e-21 -2.48507e-06 -2.44738e-21 0)
(5.04008e-06 -1.54345e-07 7.70614e-27 -2.4999e-06 -2.08396e-26 0)
(4.95049e-06 -5.73659e-08 -1.44002e-23 -2.49259e-06 1.91067e-23 0)
(4.85345e-06 1.27017e-08 -2.9608e-22 -2.45643e-06 -1.40464e-21 0)
(4.75291e-06 6.36782e-08 4.59591e-22 -2.43351e-06 -3.48452e-22 0)
(5.17455e-06 -3.50986e-06 1.46448e-20 -1.0066e-06 -2.91729e-21 3.14789e-35)
(5.43456e-06 -2.06637e-06 3.11272e-21 -1.72332e-06 2.32062e-21 0)
(5.43021e-06 -1.19286e-06 2.33795e-21 -1.96445e-06 2.16636e-21 0)
(5.37299e-06 -6.45253e-07 1.35749e-21 -2.1586e-06 9.45296e-22 0)
(5.27293e-06 -2.90692e-07 9.80729e-21 -2.2313e-06 5.8704e-21 0)
(5.15684e-06 -6.48192e-08 -7.37884e-23 -2.27357e-06 -1.69542e-22 0)
(5.03588e-06 8.41865e-08 -3.51287e-23 -2.27478e-06 1.65385e-22 0)
(4.91544e-06 1.7765e-07 -9.29719e-23 -2.26564e-06 1.64813e-22 0)
(4.7959e-06 2.39423e-07 2.13573e-21 -2.23181e-06 1.05995e-21 0)
(4.68304e-06 2.84632e-07 -2.00808e-22 -2.21673e-06 -4.2896e-22 0)
(6.26984e-06 -3.48728e-06 -1.10533e-20 -1.56656e-06 2.83526e-22 -3.33896e-43)
(6.05217e-06 -1.95226e-06 5.01692e-21 -1.90818e-06 2.04316e-21 0)
(5.76997e-06 -1.03685e-06 4.12449e-21 -1.93436e-06 2.01187e-21 0)
(5.53497e-06 -4.69717e-07 4.29206e-21 -2.00929e-06 2.21933e-21 0)
(5.32348e-06 -1.0944e-07 -2.57877e-21 -2.01332e-06 -1.36719e-21 0)
(5.13583e-06 1.15093e-07 3.68448e-21 -2.02163e-06 1.66297e-21 0)
(4.96909e-06 2.58467e-07 1.16465e-21 -2.00733e-06 7.03159e-22 0)
(4.81988e-06 3.45342e-07 -2.2722e-21 -1.99562e-06 -8.37636e-22 0)
(4.68241e-06 3.97876e-07 5.25084e-21 -1.96651e-06 2.03154e-21 0)
(4.55975e-06 4.36859e-07 4.89594e-22 -1.95895e-06 -5.96113e-23 0)
(7.32494e-06 -3.245e-06 -1.60351e-22 -2.15373e-06 -1.25748e-24 7.21315e-39)
(6.62213e-06 -1.74903e-06 -1.30897e-21 -2.09993e-06 -3.96438e-22 0)
(6.05992e-06 -8.65416e-07 6.47439e-21 -1.90116e-06 2.79603e-21 0)
(5.64816e-06 -3.22242e-07 1.697e-21 -1.85052e-06 5.06297e-22 0)
(5.32736e-06 1.83749e-08 -2.40983e-21 -1.78272e-06 -9.49691e-22 0)
(5.07107e-06 2.27479e-07 -6.11962e-21 -1.7552e-06 -2.98891e-21 0)
(4.86172e-06 3.57765e-07 5.04108e-23 -1.72488e-06 -8.39351e-22 0)
(4.68684e-06 4.34731e-07 -3.2447e-22 -1.71013e-06 1.05439e-21 0)
(4.53499e-06 4.77407e-07 1.66891e-21 -1.68687e-06 1.28153e-21 0)
(4.40499e-06 5.09657e-07 4.28351e-21 -1.68592e-06 1.75692e-21 0)
(8.27137e-06 -2.78905e-06 4.17129e-21 -2.71115e-06 -5.42123e-22 -1.28903e-36)
(7.11715e-06 -1.46188e-06 -2.27303e-21 -2.28062e-06 3.22401e-22 0)
(6.29581e-06 -6.82931e-07 1.90691e-21 -1.86854e-06 1.41288e-21 0)
(5.72194e-06 -2.06595e-07 5.89983e-22 -1.69837e-06 -4.15259e-22 0)
(5.3019e-06 8.94656e-08 3.42442e-21 -1.5625e-06 6.42271e-22 0)
(4.98422e-06 2.69339e-07 -1.31288e-22 -1.50086e-06 -5.54566e-22 0)
(4.73772e-06 3.79401e-07 1.02124e-21 -1.45556e-06 1.6556e-21 0)
(4.541e-06 4.43269e-07 3.55678e-21 -1.43771e-06 2.81937e-21 0)
(4.37826e-06 4.76002e-07 -1.70148e-21 -1.42065e-06 -8.50702e-22 0)
(4.24262e-06 5.01397e-07 4.89288e-22 -1.42508e-06 -9.05585e-22 0)
(9.04544e-06 -2.14375e-06 0 -3.18478e-06 0 0)
(7.51284e-06 -1.10187e-06 1.09831e-20 -2.43349e-06 3.32707e-21 0)
(6.47508e-06 -4.92868e-07 -1.15851e-20 -1.84036e-06 -3.17396e-21 0)
(5.76663e-06 -1.21706e-07 -4.39359e-22 -1.56845e-06 -7.25662e-22 0)
(5.26474e-06 1.07624e-07 -1.10372e-21 -1.37482e-06 1.15128e-22 0)
(4.89695e-06 2.45997e-07 5.73435e-21 -1.28411e-06 2.14748e-21 0)
(4.62065e-06 3.2959e-07 2.017e-21 -1.22619e-06 7.76513e-22 0)
(4.40673e-06 3.77521e-07 -2.78152e-21 -1.20555e-06 -5.17594e-22 0)
(4.23621e-06 4.0054e-07 1.17755e-22 -1.19411e-06 -4.96016e-22 0)
(4.09645e-06 4.18906e-07 -1.32989e-21 -1.20258e-06 -1.0896e-21 0)
(9.59361e-06 -1.35014e-06 7.50766e-21 -3.52871e-06 7.63986e-22 3.46517e-36)
(7.78859e-06 -6.85792e-07 -6.16878e-22 -2.54428e-06 -1.23615e-21 0)
(6.59531e-06 -2.98176e-07 -3.85653e-21 -1.81975e-06 -7.70309e-22 0)
(5.79053e-06 -6.23343e-08 3.21694e-21 -1.4739e-06 1.02252e-21 0)
(5.2303e-06 8.28736e-08 -1.29295e-21 -1.23834e-06 -2.9621e-22 0)
(4.82704e-06 1.7014e-07 -3.30182e-21 -1.12649e-06 -4.74031e-22 0)
(4.5299e-06 2.2244e-07 2.12932e-24 -1.05947e-06 -7.81156e-22 0)
(4.30409e-06 2.52216e-07 -3.89161e-23 -1.03674e-06 4.67145e-22 0)
(4.12862e-06 2.65896e-07 -3.52349e-23 -1.02959e-06 2.54939e-22 0)
(3.98619e-06 2.77059e-07 -1.35381e-21 -1.04079e-06 -8.56294e-22 0)
(9.87674e-06 -4.61396e-07 -6.31348e-21 -3.70825e-06 1.12374e-21 2.06067e-36)
(7.92954e-06 -2.33324e-07 -5.12454e-21 -2.60012e-06 -1.722e-21 0)
(6.65473e-06 -1.00166e-07 3.92073e-21 -1.80527e-06 1.25697e-21 0)
(5.79948e-06 -1.9134e-08 -6.12573e-21 -1.41982e-06 -7.92878e-22 0)
(5.20872e-06 3.07085e-08 2.47227e-21 -1.16176e-06 -7.69031e-22 0)
(4.78698e-06 6.06293e-08 -1.0833e-21 -1.03859e-06 1.65315e-22 0)
(4.47906e-06 7.85057e-08 -2.13247e-25 -9.66721e-07 7.9431e-22 0)
(4.24719e-06 8.86612e-08 -8.73723e-22 -9.42916e-07 4.72075e-22 0)
(4.06932e-06 9.32381e-08 -3.06434e-21 -9.38136e-07 -1.28445e-21 0)
(3.92568e-06 9.70179e-08 1.51792e-21 -9.50932e-07 1.12765e-22 0)
(1.33963e-06 1.21189e-07 -8.68503e-22 -3.61618e-06 3.9315e-21 -4.94349e-36)
(8.95876e-07 -5.41787e-08 1.2914e-21 -2.3913e-06 1.84877e-21 0)
(6.84101e-07 -1.43565e-07 1.70467e-23 -1.66652e-06 -8.32843e-22 0)
(7.23374e-07 -1.91351e-07 -6.84617e-23 -1.25094e-06 5.9048e-22 0)
(8.26151e-07 -2.13639e-07 -7.77591e-22 -1.01129e-06 -5.36797e-22 0)
(9.87276e-07 -2.21469e-07 1.02939e-21 -8.7703e-07 4.24726e-22 0)
(1.15556e-06 -2.20889e-07 1.44256e-22 -8.05989e-07 1.72799e-22 0)
(1.33024e-06 -2.15817e-07 -1.90643e-22 -7.72099e-07 3.16175e-22 0)
(1.49371e-06 -2.07196e-07 1.02528e-21 -7.6136e-07 2.77124e-22 0)
(1.64996e-06 -2.00914e-07 -9.52183e-23 -7.58267e-07 -1.37034e-22 0)
(1.26839e-06 3.37024e-07 4.80193e-23 -3.43866e-06 1.71834e-22 -2.86231e-38)
(9.31651e-07 -1.69991e-07 -2.27092e-21 -2.33967e-06 -3.25094e-21 0)
(7.77352e-07 -4.27007e-07 1.73112e-21 -1.68337e-06 1.70631e-21 0)
(8.45532e-07 -5.63497e-07 1.2568e-21 -1.30793e-06 9.0971e-22 0)
(9.61935e-07 -6.26591e-07 -3.20038e-22 -1.0902e-06 -4.16655e-22 0)
(1.12705e-06 -6.48058e-07 -3.4263e-21 -9.67387e-07 -1.26505e-21 0)
(1.29398e-06 -6.45442e-07 -5.65509e-23 -9.012e-07 -4.78368e-25 0)
(1.46458e-06 -6.29922e-07 -5.78392e-22 -8.68496e-07 -3.51867e-22 0)
(1.62105e-06 -6.04371e-07 3.6284e-22 -8.55795e-07 -1.76312e-23 0)
(1.77241e-06 -5.85592e-07 9.00401e-22 -8.50784e-07 -7.39003e-23 0)
(1.13375e-06 4.81214e-07 -7.03516e-22 -3.09709e-06 -3.25656e-21 -1.97594e-36)
(9.98174e-07 -3.01472e-07 -1.73158e-21 -2.2395e-06 -1.52307e-21 0)
(9.48239e-07 -6.95921e-07 2.69559e-21 -1.7123e-06 7.05888e-22 0)
(1.06934e-06 -9.03736e-07 5.82524e-22 -1.41267e-06 6.5557e-22 0)
(1.21018e-06 -9.98349e-07 1.57841e-21 -1.23616e-06 7.41205e-22 0)
(1.38226e-06 -1.02881e-06 -1.53776e-21 -1.13497e-06 -7.68993e-22 0)
(1.54635e-06 -1.02241e-06 -2.49232e-21 -1.07799e-06 -7.16176e-22 0)
(1.70919e-06 -9.96111e-07 -8.4906e-22 -1.0476e-06 -1.92099e-22 0)
(1.85253e-06 -9.54945e-07 4.28737e-23 -1.03134e-06 -3.58735e-24 0)
(1.99499e-06 -9.24104e-07 1.22421e-21 -1.02297e-06 5.47415e-22 0)
(9.68165e-07 5.17357e-07 -2.52733e-21 -2.62674e-06 -3.58501e-23 1.16811e-35)
(1.10601e-06 -4.54057e-07 1.14474e-21 -2.1017e-06 -1.56797e-21 0)
(1.19704e-06 -9.3941e-07 -6.83934e-21 -1.75175e-06 -5.24165e-21 0)
(1.3889e-06 -1.19242e-06 -1.54523e-21 -1.55644e-06 1.01356e-22 0)
(1.56175e-06 -1.3045e-06 -9.38081e-23 -1.43657e-06 2.01517e-22 0)
(1.74209e-06 -1.33705e-06 2.02997e-21 -1.36516e-06 9.13447e-22 0)
(1.9013e-06 -1.32435e-06 -5.60336e-22 -1.32093e-06 -3.00766e-24 0)
(2.05249e-06 -1.2869e-06 1.70073e-21 -1.29372e-06 1.14445e-21 0)
(2.17729e-06 -1.23223e-06 -3.01921e-21 -1.27284e-06 -5.81209e-22 0)
(2.30664e-06 -1.19014e-06 2.71634e-21 -1.25969e-06 4.14068e-22 0)
(8.10264e-07 4.19069e-07 6.82957e-22 -2.07476e-06 -2.48248e-21 -5.12035e-37)
(1.26255e-06 -6.31913e-07 5.70554e-21 -1.94059e-06 5.25901e-21 0)
(1.51472e-06 -1.14966e-06 -5.43389e-21 -1.79875e-06 -3.64245e-21 0)
(1.78594e-06 -1.4149e-06 -2.54114e-21 -1.72623e-06 -1.37597e-21 0)
(1.99355e-06 -1.52684e-06 2.24127e-21 -1.67293e-06 9.4638e-22 0)
(2.18113e-06 -1.55294e-06 3.00633e-21 -1.63659e-06 1.23535e-21 0)
(2.33279e-06 -1.53083e-06 1.70939e-21 -1.60748e-06 1.10833e-21 0)
(2.46847e-06 -1.48195e-06 3.01862e-21 -1.58397e-06 9.20305e-22 0)
(2.57056e-06 -1.41642e-06 -6.69068e-22 -1.55799e-06 -7.38503e-22 0)
(2.68271e-06 -1.36434e-06 -4.12021e-21 -1.53887e-06 -4.11239e-22 0)
(7.04502e-07 1.75747e-07 -6.67628e-23 -1.49564e-06 1.63622e-22 -1.09057e-39)
(1.47591e-06 -8.34743e-07 3.58665e-21 -1.77216e-06 1.79779e-21 0)
(1.88986e-06 -1.32058e-06 2.91096e-21 -1.84838e-06 2.62077e-21 0)
(2.23824e-06 -1.56192e-06 -1.42856e-21 -1.90513e-06 -9.58873e-22 0)
(2.47766e-06 -1.65448e-06 -2.61875e-21 -1.9218e-06 -1.15725e-21 0)
(2.66883e-06 -1.66489e-06 -1.65247e-21 -1.92249e-06 -6.5995e-22 0)
(2.80953e-06 -1.63006e-06 2.66583e-21 -1.90956e-06 1.36056e-21 0)
(2.92591e-06 -1.56967e-06 -3.19374e-21 -1.88994e-06 -1.71447e-21 0)
(3.00256e-06 -1.49604e-06 5.30501e-21 -1.85932e-06 1.61232e-21 0)
(3.09376e-06 -1.43562e-06 1.81034e-22 -1.83347e-06 -7.33327e-22 0)
(6.96173e-07 -2.0631e-07 3.1256e-21 -9.46846e-07 -5.73175e-21 -3.35569e-37)
(1.75384e-06 -1.05786e-06 -9.89435e-21 -1.61394e-06 -5.42559e-21 0)
(2.31002e-06 -1.44841e-06 3.37987e-21 -1.89644e-06 2.27072e-21 0)
(2.72219e-06 -1.63032e-06 -3.09142e-22 -2.07638e-06 8.77982e-22 0)
(2.98462e-06 -1.68472e-06 1.458e-21 -2.15948e-06 6.97954e-22 0)
(3.17307e-06 -1.6707e-06 -6.07241e-22 -2.19559e-06 -2.25849e-22 0)
(3.29872e-06 -1.62017e-06 -3.71907e-21 -2.1983e-06 -1.57213e-21 0)
(3.39228e-06 -1.54868e-06 2.1456e-21 -2.18258e-06 9.47573e-22 0)
(3.44227e-06 -1.46975e-06 -1.95158e-21 -2.14824e-06 -8.56473e-22 0)
(3.50933e-06 -1.40278e-06 4.0687e-21 -2.11588e-06 1.01709e-21 0)
(8.25802e-07 -7.04175e-07 -1.16444e-21 -4.82518e-07 1.67454e-21 4.99606e-38)
(2.10173e-06 -1.29194e-06 -3.2275e-21 -1.48228e-06 -3.78098e-21 0)
(2.76157e-06 -1.53131e-06 -4.7453e-21 -1.93868e-06 -4.54149e-21 0)
(3.21355e-06 -1.62258e-06 1.76242e-21 -2.2237e-06 8.63007e-22 0)
(3.48451e-06 -1.62251e-06 4.69692e-21 -2.36306e-06 2.29563e-21 0)
(3.66121e-06 -1.57666e-06 4.27837e-21 -2.42943e-06 2.08738e-21 0)
(3.7669e-06 -1.50811e-06 -6.66635e-22 -2.44596e-06 1.27051e-22 0)
(3.83418e-06 -1.42644e-06 2.45502e-21 -2.43354e-06 1.04127e-21 0)
(3.85796e-06 -1.34467e-06 -2.41445e-21 -2.39818e-06 -1.73328e-21 0)
(3.89788e-06 -1.27281e-06 8.57438e-22 -2.35953e-06 8.29761e-22 0)
(1.12454e-06 -1.28024e-06 3.35741e-21 -1.48556e-07 4.52102e-21 -1.20499e-35)
(2.52205e-06 -1.52371e-06 4.63924e-21 -1.39143e-06 5.92989e-21 0)
(3.23157e-06 -1.56937e-06 4.93396e-21 -1.97197e-06 1.38407e-21 0)
(3.69112e-06 -1.54662e-06 7.15799e-22 -2.33386e-06 -7.43687e-22 0)
(3.95198e-06 -1.48017e-06 1.49152e-22 -2.51352e-06 -2.20282e-22 0)
(4.10635e-06 -1.39787e-06 -1.08034e-22 -2.60219e-06 -3.10096e-23 0)
(4.1869e-06 -1.3103e-06 3.90354e-21 -2.62863e-06 2.06336e-21 0)
(4.22512e-06 -1.22109e-06 -5.21246e-21 -2.61962e-06 -3.37816e-21 0)
(4.22444e-06 -1.139e-06 4.81709e-21 -2.58425e-06 1.99402e-21 0)
(4.23559e-06 -1.06475e-06 5.18459e-22 -2.54523e-06 2.7471e-22 0)
(1.60967e-06 -1.8858e-06 5.03193e-21 2.20895e-08 -8.40772e-21 -1.37271e-35)
(3.01203e-06 -1.73708e-06 4.93677e-21 -1.35146e-06 2.43407e-21 0)
(3.70626e-06 -1.5645e-06 6.60146e-21 -1.99387e-06 3.31671e-21 0)
(4.13496e-06 -1.41462e-06 3.17777e-21 -2.39682e-06 2.4896e-21 0)
(4.3633e-06 -1.27564e-06 -5.01938e-21 -2.59648e-06 -2.78547e-21 0)
(4.48247e-06 -1.15473e-06 -4.5041e-21 -2.69634e-06 -2.47132e-21 0)
(4.53055e-06 -1.0484e-06 1.18223e-22 -2.72749e-06 -7.0145e-23 0)
(4.53526e-06 -9.53615e-07 -2.36844e-21 -2.718e-06 -1.35677e-21 0)
(4.51179e-06 -8.75391e-07 2.46261e-21 -2.68779e-06 2.26496e-21 0)
(4.48456e-06 -8.01361e-07 3.35378e-21 -2.63756e-06 7.66195e-22 0)
(1.7956e-06 -1.85619e-07 4.97993e-22 -7.74498e-07 -1.81711e-24 0)
(1.92381e-06 -1.65997e-07 9.25885e-22 -7.79315e-07 -2.79279e-22 0)
(2.04051e-06 -1.50369e-07 4.98851e-23 -7.87293e-07 -6.5436e-25 0)
(2.1471e-06 -1.35963e-07 -7.90791e-22 -7.92938e-07 -4.26889e-22 0)
(2.24235e-06 -1.2313e-07 -3.15301e-21 -7.95205e-07 -1.45791e-22 0)
(2.32804e-06 -1.11765e-07 -4.79863e-22 -7.93786e-07 5.75278e-22 0)
(2.40413e-06 -1.01543e-07 2.79022e-21 -7.87556e-07 2.97306e-22 0)
(2.47142e-06 -9.24113e-08 -2.79926e-21 -7.76312e-07 -1.56822e-22 0)
(2.53019e-06 -8.41211e-08 2.48204e-22 -7.59356e-07 8.40497e-22 0)
(2.5808e-06 -7.65624e-08 1.53615e-21 -7.363e-07 2.8565e-22 0)
(2.62337e-06 -6.95548e-08 2.61065e-22 -7.06516e-07 7.90934e-22 0)
(2.65803e-06 -6.29644e-08 3.04088e-21 -6.69392e-07 2.87621e-22 0)
(2.68442e-06 -5.66391e-08 2.78653e-21 -6.2413e-07 -5.45595e-22 0)
(2.70269e-06 -5.04273e-08 -3.02552e-21 -5.69821e-07 -2.65476e-22 0)
(2.71142e-06 -4.41808e-08 -4.49356e-21 -5.05312e-07 7.78047e-24 0)
(2.71165e-06 -3.77099e-08 2.37951e-21 -4.29276e-07 3.80243e-22 0)
(2.69894e-06 -3.08658e-08 -5.90319e-23 -3.39976e-07 -1.3108e-22 0)
(2.67866e-06 -2.33293e-08 1.6571e-21 -2.35562e-07 3.19823e-22 0)
(2.63596e-06 -1.51453e-08 1.38653e-21 -1.13091e-07 -1.354e-23 0)
(2.59483e-06 -4.92792e-09 3.45955e-22 2.88018e-08 3.59873e-23 -3.81691e-37)
(1.90457e-06 -5.41034e-07 1.41563e-23 -8.58816e-07 1.55848e-23 0)
(2.01475e-06 -4.84795e-07 -1.337e-21 -8.51849e-07 -1.48724e-22 0)
(2.11808e-06 -4.39812e-07 6.91175e-22 -8.5003e-07 1.5408e-22 0)
(2.21258e-06 -3.98364e-07 2.2166e-21 -8.47415e-07 7.56498e-22 0)
(2.29802e-06 -3.61279e-07 -1.29555e-21 -8.42455e-07 -4.88225e-24 0)
(2.3752e-06 -3.28412e-07 -1.89755e-21 -8.35023e-07 -6.17337e-22 0)
(2.44425e-06 -2.98751e-07 1.27259e-21 -8.23643e-07 6.09979e-22 0)
(2.50548e-06 -2.72208e-07 3.2855e-22 -8.08099e-07 2.97269e-22 0)
(2.55918e-06 -2.48049e-07 -2.94116e-21 -7.87532e-07 -9.19689e-22 0)
(2.60547e-06 -2.25978e-07 -1.75344e-21 -7.61484e-07 -3.22346e-22 0)
(2.64439e-06 -2.0547e-07 -3.89433e-23 -7.29248e-07 -1.09626e-24 0)
(2.67597e-06 -1.86145e-07 5.37799e-21 -6.90159e-07 4.50262e-22 0)
(2.69978e-06 -1.67559e-07 2.47676e-22 -6.43378e-07 2.46028e-22 0)
(2.71591e-06 -1.49271e-07 -1.25555e-21 -5.8797e-07 2.58851e-22 0)
(2.72292e-06 -1.30848e-07 -2.72867e-22 -5.22768e-07 -3.00783e-22 0)
(2.72182e-06 -1.11729e-07 -2.90974e-22 -4.46449e-07 -2.60731e-22 0)
(2.70816e-06 -9.14792e-08 -1.03947e-21 -3.57294e-07 2.33595e-22 0)
(2.68731e-06 -6.91499e-08 -7.52543e-22 -2.53488e-07 -6.85983e-23 0)
(2.64456e-06 -4.48889e-08 4.18885e-21 -1.32169e-07 5.7272e-22 0)
(2.60373e-06 -1.46051e-08 1.07742e-21 7.96043e-09 2.7086e-22 -3.56009e-36)
(2.10182e-06 -8.55358e-07 7.79465e-22 -1.0159e-06 -1.65154e-22 0)
(2.17931e-06 -7.70476e-07 1.68705e-21 -9.87413e-07 5.20552e-22 0)
(2.25825e-06 -7.01254e-07 -4.31127e-21 -9.67255e-07 -3.71827e-22 0)
(2.3308e-06 -6.37567e-07 4.65741e-22 -9.49397e-07 3.45224e-22 0)
(2.39849e-06 -5.79791e-07 2.36753e-21 -9.30968e-07 -1.33866e-22 0)
(2.46025e-06 -5.28485e-07 -3.64621e-21 -9.12356e-07 -2.24047e-22 0)
(2.51655e-06 -4.81803e-07 -1.94429e-21 -8.91382e-07 -3.57162e-22 0)
(2.56683e-06 -4.39881e-07 4.38983e-21 -8.6782e-07 2.83821e-22 0)
(2.61136e-06 -4.01525e-07 2.48726e-21 -8.40521e-07 -2.08109e-22 0)
(2.64983e-06 -3.66357e-07 -3.25152e-21 -8.08903e-07 -4.28402e-22 0)
(2.68218e-06 -3.33557e-07 -3.7229e-21 -7.72117e-07 -7.37148e-22 0)
(2.70821e-06 -3.02544e-07 1.48077e-21 -7.29399e-07 8.99699e-23 0)
(2.72742e-06 -2.72627e-07 2.55883e-21 -6.79838e-07 4.1773e-22 0)
(2.73976e-06 -2.43101e-07 8.8764e-23 -6.22451e-07 -4.21058e-22 0)
(2.74377e-06 -2.13277e-07 1.66141e-22 -5.56056e-07 1.09602e-22 0)
(2.74038e-06 -1.82245e-07 -3.71238e-21 -4.79332e-07 -4.07611e-22 0)
(2.72522e-06 -1.49306e-07 -1.83194e-21 -3.90604e-07 -5.53037e-23 0)
(2.70355e-06 -1.12906e-07 -6.77875e-22 -2.88114e-07 -2.90102e-22 0)
(2.66099e-06 -7.3302e-08 1.43987e-21 -1.69153e-07 2.50164e-22 0)
(2.6209e-06 -2.38765e-08 1.31222e-21 -3.2502e-08 5.72349e-22 -5.70262e-36)
(2.37916e-06 -1.10508e-06 8.23476e-22 -1.23261e-06 2.71229e-22 0)
(2.41175e-06 -1.0042e-06 -7.54319e-22 -1.17653e-06 -1.06727e-23 0)
(2.45729e-06 -9.18655e-07 4.17886e-22 -1.13153e-06 -3.57412e-22 0)
(2.49918e-06 -8.40313e-07 -5.7476e-23 -1.09324e-06 -3.76521e-22 0)
(2.54218e-06 -7.67431e-07 2.94896e-22 -1.05641e-06 -1.69606e-22 0)
(2.58218e-06 -7.02503e-07 -1.04481e-21 -1.02242e-06 -2.07986e-22 0)
(2.62051e-06 -6.42635e-07 -1.31005e-21 -9.88172e-07 -3.90101e-22 0)
(2.65522e-06 -5.88555e-07 -6.15183e-22 -9.53419e-07 -3.53703e-22 0)
(2.68669e-06 -5.3868e-07 2.67802e-22 -9.16675e-07 1.71161e-22 0)
(2.71397e-06 -4.92678e-07 1.14705e-21 -8.77182e-07 6.66352e-22 0)
(2.73688e-06 -4.49524e-07 -1.99915e-21 -8.33926e-07 -4.25452e-22 0)
(2.75492e-06 -4.08508e-07 1.27741e-21 -7.86012e-07 3.69022e-22 0)
(2.76746e-06 -3.68748e-07 2.99876e-21 -7.32448e-07 2.90805e-22 0)
(2.77431e-06 -3.29328e-07 -1.21192e-21 -6.72194e-07 -3.50183e-22 0)
(2.77396e-06 -2.89344e-07 -2.77324e-21 -6.04056e-07 -2.66004e-22 0)
(2.76723e-06 -2.47574e-07 -1.7355e-21 -5.26731e-07 -3.35251e-22 0)
(2.74988e-06 -2.03084e-07 1.23078e-21 -4.38616e-07 -6.39394e-23 0)
(2.72699e-06 -1.53753e-07 1.48547e-21 -3.38045e-07 2.9972e-22 0)
(2.68471e-06 -9.9924e-08 4.03894e-22 -2.22537e-07 6.43241e-23 0)
(2.64572e-06 -3.26524e-08 -9.04566e-22 -9.09924e-08 -5.53852e-22 -2.88564e-36)
(2.7158e-06 -1.27252e-06 1.58442e-21 -1.4894e-06 -2.76171e-22 0)
(2.69608e-06 -1.17134e-06 7.51017e-22 -1.40431e-06 -9.91863e-22 0)
(2.70269e-06 -1.07943e-06 -1.70302e-21 -1.33069e-06 2.96299e-22 0)
(2.70781e-06 -9.9601e-07 -7.7244e-22 -1.26891e-06 -3.11003e-23 0)
(2.72122e-06 -9.15177e-07 2.68673e-21 -1.21044e-06 3.21715e-22 0)
(2.73465e-06 -8.42712e-07 -1.51466e-21 -1.15805e-06 4.83526e-22 0)
(2.75098e-06 -7.74563e-07 -1.65669e-21 -1.1078e-06 -4.48607e-22 0)
(2.76647e-06 -7.12376e-07 1.36877e-21 -1.0594e-06 -2.6055e-22 0)
(2.78173e-06 -6.54368e-07 -6.62099e-22 -1.01111e-06 2.81988e-22 0)
(2.79505e-06 -6.00374e-07 -3.89122e-23 -9.61934e-07 3.09524e-22 0)
(2.80615e-06 -5.49315e-07 -1.48315e-21 -9.10716e-07 -1.36809e-22 0)
(2.81414e-06 -5.00424e-07 -1.71549e-21 -8.56403e-07 -8.56621e-22 0)
(2.81827e-06 -4.52723e-07 5.19043e-21 -7.97916e-07 6.30044e-22 0)
(2.81817e-06 -4.05138e-07 6.17049e-22 -7.34151e-07 3.02691e-22 0)
(2.81226e-06 -3.56608e-07 -1.0261e-21 -6.63911e-07 -2.56516e-22 0)
(2.80127e-06 -3.05642e-07 7.83205e-22 -5.85925e-07 1.4592e-22 0)
(2.78109e-06 -2.51115e-07 -3.41141e-21 -4.98696e-07 -8.33527e-22 0)
(2.75663e-06 -1.90394e-07 1.41628e-21 -4.00687e-07 4.31948e-22 0)
(2.71471e-06 -1.23895e-07 -6.52626e-22 -2.89725e-07 -1.82597e-22 0)
(2.67709e-06 -4.06431e-08 3.04579e-22 -1.64887e-07 9.91126e-23 4.65029e-40)
(3.08645e-06 -1.34675e-06 -7.37974e-22 -1.76221e-06 -9.50371e-22 0)
(3.01267e-06 -1.26208e-06 -1.14715e-21 -1.65253e-06 7.30002e-22 0)
(2.97914e-06 -1.17447e-06 -1.15152e-21 -1.55074e-06 3.52312e-22 0)
(2.94463e-06 -1.0965e-06 -8.67347e-22 -1.46566e-06 -9.27091e-22 0)
(2.92614e-06 -1.01597e-06 1.90063e-21 -1.38516e-06 1.38948e-21 0)
(2.91027e-06 -9.42897e-07 1.97384e-21 -1.31333e-06 3.5613e-22 0)
(2.90206e-06 -8.72328e-07 3.10488e-21 -1.24602e-06 2.29943e-22 0)
(2.89591e-06 -8.06854e-07 -3.92324e-21 -1.18268e-06 -6.92669e-22 0)
(2.89269e-06 -7.44837e-07 -2.59172e-21 -1.12156e-06 -5.4769e-23 0)
(2.89001e-06 -6.86307e-07 -2.83812e-22 -1.06142e-06 -6.85922e-22 0)
(2.88742e-06 -6.30316e-07 3.71808e-21 -1.00105e-06 4.16136e-22 0)
(2.88372e-06 -5.76115e-07 -7.10278e-22 -9.39258e-07 -6.51069e-22 0)
(2.87798e-06 -5.22735e-07 -2.20267e-21 -8.74928e-07 -3.16864e-22 0)
(2.86967e-06 -4.69017e-07 1.02399e-21 -8.06921e-07 4.98191e-22 0)
(2.85718e-06 -4.13814e-07 -1.45496e-21 -7.34072e-07 -2.7377e-22 0)
(2.84111e-06 -3.55431e-07 -7.76674e-22 -6.55172e-07 -1.69467e-22 0)
(2.81755e-06 -2.92602e-07 -3.08115e-22 -5.6888e-07 -1.25457e-22 0)
(2.79119e-06 -2.2225e-07 1.59173e-21 -4.7384e-07 4.20652e-22 0)
(2.74974e-06 -1.44852e-07 1.93739e-21 -3.68293e-07 6.39097e-22 0)
(2.71382e-06 -4.7738e-08 -1.52569e-21 -2.51581e-07 -1.03517e-21 -4.66071e-36)
(3.46478e-06 -1.32611e-06 -3.23152e-22 -2.02571e-06 3.01393e-22 0)
(3.34068e-06 -1.2746e-06 6.55577e-22 -1.89966e-06 3.65113e-22 0)
(3.27e-06 -1.20202e-06 3.35958e-21 -1.77369e-06 4.24649e-22 0)
(3.19622e-06 -1.13944e-06 -5.34267e-21 -1.66705e-06 -1.07375e-21 0)
(3.14586e-06 -1.06774e-06 -3.70366e-22 -1.56606e-06 4.13298e-22 0)
(3.10005e-06 -1.0007e-06 3.59044e-22 -1.47495e-06 -3.92598e-22 0)
(3.06623e-06 -9.33551e-07 3.79745e-21 -1.39065e-06 1.20697e-21 0)
(3.03737e-06 -8.69439e-07 1.51868e-21 -1.31209e-06 1.57696e-22 0)
(3.01445e-06 -8.07441e-07 -2.09008e-21 -1.23785e-06 -9.69387e-22 0)
(2.99465e-06 -7.47768e-07 -9.18198e-22 -1.16647e-06 -4.58028e-22 0)
(2.97724e-06 -6.89826e-07 -1.48566e-21 -1.0967e-06 -1.95196e-22 0)
(2.96083e-06 -6.3295e-07 3.93406e-22 -1.02726e-06 2.03719e-22 0)
(2.94428e-06 -5.76274e-07 1.28237e-21 -9.56992e-07 6.03842e-22 0)
(2.92692e-06 -5.18622e-07 0 -8.84737e-07 0 0)
(2.90711e-06 -4.58816e-07 2.71827e-22 -8.09386e-07 -2.23281e-22 0)
(2.88535e-06 -3.9502e-07 1.48606e-21 -7.29829e-07 3.64634e-22 0)
(2.85799e-06 -3.2588e-07 -7.20694e-22 -6.44919e-07 -1.10472e-22 0)
(2.82943e-06 -2.47971e-07 -2.67206e-21 -5.53538e-07 -9.43722e-22 0)
(2.78849e-06 -1.61834e-07 2.26578e-21 -4.54395e-07 8.19099e-22 0)
(2.75438e-06 -5.35704e-08 -6.89016e-22 -3.47151e-07 -6.10726e-22 -1.35207e-36)
(3.82284e-06 -1.2134e-06 3.22194e-21 -2.25769e-06 4.01701e-22 0)
(3.65789e-06 -1.208e-06 -2.56243e-21 -2.12827e-06 -5.58791e-22 0)
(3.55788e-06 -1.16086e-06 2.31728e-21 -1.98991e-06 1.11109e-21 0)
(3.44968e-06 -1.12186e-06 7.60467e-22 -1.86739e-06 3.44538e-22 0)
(3.37005e-06 -1.06815e-06 -5.9247e-21 -1.75144e-06 -2.19379e-21 0)
(3.29641e-06 -1.01403e-06 1.38392e-21 -1.64412e-06 6.22239e-22 0)
(3.23748e-06 -9.56923e-07 1.55939e-21 -1.54475e-06 1.98306e-22 0)
(3.18619e-06 -8.99596e-07 5.5819e-21 -1.45187e-06 1.53039e-21 0)
(3.14317e-06 -8.42307e-07 -1.458e-21 -1.36462e-06 -1.94266e-22 0)
(3.10572e-06 -7.85413e-07 -4.07376e-22 -1.28162e-06 3.11051e-22 0)
(3.07281e-06 -7.28826e-07 3.95605e-22 -1.20176e-06 -2.79979e-22 0)
(3.04296e-06 -6.72088e-07 -3.90709e-22 -1.12384e-06 2.45111e-22 0)
(3.01489e-06 -6.1455e-07 4.53357e-22 -1.04675e-06 6.32677e-22 0)
(2.98783e-06 -5.55128e-07 5.22312e-21 -9.69431e-07 1.31727e-21 0)
(2.96013e-06 -4.92705e-07 -2.22399e-21 -8.90872e-07 -7.13826e-22 0)
(2.9322e-06 -4.2539e-07 -4.27479e-21 -8.1011e-07 -1.14744e-21 0)
(2.9007e-06 -3.51804e-07 3.50571e-21 -7.26256e-07 1.17202e-21 0)
(2.86975e-06 -2.68258e-07 6.82999e-22 -6.38479e-07 2.11023e-22 0)
(2.82942e-06 -1.7536e-07 -2.01436e-21 -5.46071e-07 -8.00798e-22 0)
(2.79747e-06 -5.83102e-08 6.01764e-22 -4.49158e-07 3.62667e-22 -7.12103e-39)
(4.14144e-06 -1.0296e-06 -2.97087e-21 -2.43679e-06 -1.17257e-21 0)
(3.9462e-06 -1.07679e-06 -1.05152e-21 -2.30863e-06 2.15853e-22 0)
(3.8253e-06 -1.0662e-06 9.45769e-22 -2.17078e-06 -2.38021e-22 0)
(3.69087e-06 -1.05363e-06 3.38163e-21 -2.03719e-06 6.64569e-22 0)
(3.58523e-06 -1.02395e-06 -2.37189e-21 -1.91112e-06 -4.43639e-22 0)
(3.48788e-06 -9.86363e-07 -1.77299e-21 -1.79129e-06 1.74105e-22 0)
(3.4059e-06 -9.42901e-07 0 -1.67983e-06 0 0)
(3.33413e-06 -8.95596e-07 2.79408e-21 -1.57548e-06 8.59868e-22 0)
(3.27225e-06 -8.46058e-07 4.07071e-21 -1.47773e-06 1.43913e-21 0)
(3.21804e-06 -7.949e-07 1.48317e-21 -1.38541e-06 2.36069e-22 0)
(3.17014e-06 -7.42475e-07 -2.59437e-21 -1.29748e-06 -7.94478e-22 0)
(3.12711e-06 -6.8856e-07 -4.41871e-21 -1.21283e-06 -8.1166e-22 0)
(3.08758e-06 -6.32698e-07 -2.1729e-21 -1.13044e-06 -1.01632e-21 0)
(3.05072e-06 -5.73925e-07 4.17651e-21 -1.04936e-06 9.39093e-22 0)
(3.01497e-06 -5.11206e-07 4.63456e-21 -9.6875e-07 1.58034e-21 0)
(2.98065e-06 -4.4266e-07 -2.20468e-21 -8.87852e-07 -7.86444e-22 0)
(2.94486e-06 -3.66937e-07 -8.06611e-22 -8.06099e-07 -3.62222e-22 0)
(2.91137e-06 -2.80219e-07 2.87768e-21 -7.23006e-07 1.16589e-21 0)
(2.87169e-06 -1.83226e-07 -2.63553e-21 -6.38451e-07 -1.16423e-21 0)
(2.84163e-06 -6.109e-08 5.41512e-24 -5.52881e-07 3.72742e-24 -4.66173e-43)
(4.38788e-06 -7.7766e-07 2.40349e-21 -2.5664e-06 6.45958e-22 0)
(4.19512e-06 -8.60602e-07 -1.81802e-21 -2.44993e-06 -3.6516e-22 0)
(4.06016e-06 -9.02537e-07 6.42797e-23 -2.33475e-06 -4.56826e-22 0)
(3.9144e-06 -9.23938e-07 -9.15584e-22 -2.20503e-06 1.76292e-22 0)
(3.78672e-06 -9.29111e-07 -1.68428e-21 -2.07732e-06 1.26645e-23 0)
(3.66962e-06 -9.18506e-07 -1.47581e-21 -1.95103e-06 -8.74481e-22 0)
(3.56617e-06 -8.97063e-07 -1.22987e-21 -1.82977e-06 -1.35766e-21 0)
(3.47475e-06 -8.66842e-07 -8.7188e-23 -1.71443e-06 6.67372e-23 0)
(3.39454e-06 -8.3032e-07 9.35586e-23 -1.60534e-06 -5.15913e-23 0)
(3.32394e-06 -7.88931e-07 2.92354e-21 -1.50222e-06 5.13634e-22 0)
(3.26149e-06 -7.43663e-07 3.69736e-21 -1.40445e-06 1.52891e-21 0)
(3.20575e-06 -6.94859e-07 -2.33127e-21 -1.31123e-06 -1.15221e-21 0)
(3.15525e-06 -6.42455e-07 -3.68083e-21 -1.22176e-06 -1.38352e-21 0)
(3.10909e-06 -5.85797e-07 -2.41174e-21 -1.13523e-06 -8.41608e-22 0)
(3.06576e-06 -5.24041e-07 9.8483e-22 -1.05102e-06 4.80185e-22 0)
(3.0255e-06 -4.55439e-07 4.62262e-23 -9.68593e-07 5.11477e-24 0)
(2.98587e-06 -3.78712e-07 -1.31281e-21 -8.87739e-07 -4.57082e-22 0)
(2.95034e-06 -2.90018e-07 2.53337e-23 -8.08359e-07 6.29414e-24 0)
(2.912e-06 -1.90093e-07 1.27479e-21 -7.30964e-07 5.91092e-22 0)
(2.88498e-06 -6.3689e-08 -3.43009e-22 -6.56467e-07 -2.66031e-22 -4.09334e-39)
(4.52679e-06 -5.69039e-07 8.73155e-22 -2.59337e-06 5.06846e-22 0)
(4.34901e-06 -6.39012e-07 1.73861e-21 -2.47516e-06 1.19009e-21 0)
(4.20271e-06 -7.2096e-07 1.80446e-21 -2.3775e-06 5.28764e-22 0)
(4.0591e-06 -7.6641e-07 4.87233e-22 -2.26336e-06 7.95873e-23 0)
(3.9255e-06 -7.95802e-07 6.40957e-22 -2.14402e-06 8.55382e-22 0)
(3.80202e-06 -8.07779e-07 1.64441e-22 -2.02375e-06 -5.60467e-22 0)
(3.68988e-06 -8.06373e-07 -3.35899e-21 -1.90518e-06 -1.24628e-21 0)
(3.58858e-06 -7.93835e-07 -1.20035e-21 -1.79032e-06 -2.68124e-22 0)
(3.49777e-06 -7.72376e-07 1.19473e-21 -1.68009e-06 2.59415e-22 0)
(3.41639e-06 -7.43628e-07 -1.46685e-21 -1.57484e-06 -2.95898e-22 0)
(3.34342e-06 -7.08744e-07 3.73854e-21 -1.47452e-06 1.63891e-21 0)
(3.27776e-06 -6.68338e-07 2.29218e-21 -1.37881e-06 9.02949e-22 0)
(3.21822e-06 -6.22597e-07 -3.36254e-22 -1.28731e-06 2.57216e-22 0)
(3.16409e-06 -5.71142e-07 8.44741e-22 -1.19959e-06 5.15052e-22 0)
(3.11412e-06 -5.13356e-07 1.33707e-21 -1.11538e-06 3.86979e-22 0)
(3.06861e-06 -4.47768e-07 -9.38097e-23 -1.0345e-06 -2.54126e-23 0)
(3.02565e-06 -3.73296e-07 7.98152e-22 -9.57177e-07 4.1097e-22 0)
(2.98831e-06 -2.86404e-07 4.23912e-22 -8.83751e-07 1.30534e-22 0)
(2.95124e-06 -1.88021e-07 -1.27719e-21 -8.15426e-07 -6.14377e-22 0)
(2.9263e-06 -6.31622e-08 -6.28231e-22 -7.53288e-07 -6.96838e-22 -1.07888e-36)
(4.47614e-06 -4.02139e-07 -5.97553e-21 -2.4961e-06 -1.93624e-21 0)
(4.35805e-06 -4.79523e-07 -2.9364e-21 -2.43591e-06 -1.69934e-21 0)
(4.22754e-06 -5.67827e-07 2.5699e-21 -2.35114e-06 1.36008e-22 0)
(4.10039e-06 -6.28054e-07 -1.42364e-21 -2.25413e-06 9.16867e-22 0)
(3.97682e-06 -6.71077e-07 -2.73969e-21 -2.14767e-06 -1.37807e-21 0)
(3.85974e-06 -6.97216e-07 3.3144e-21 -2.03777e-06 8.27657e-22 0)
(3.75055e-06 -7.09338e-07 -3.06598e-35 -1.92713e-06 -1.23731e-35 0)
(3.64963e-06 -7.09506e-07 -3.50446e-21 -1.81815e-06 -1.92074e-21 0)
(3.5572e-06 -6.9965e-07 -6.6151e-36 -1.71214e-06 -5.14581e-36 0)
(3.47281e-06 -6.81268e-07 -9.25169e-22 -1.60991e-06 -6.91223e-22 0)
(3.39595e-06 -6.55466e-07 -9.0494e-22 -1.51182e-06 -6.49111e-22 0)
(3.32594e-06 -6.22898e-07 1.42801e-21 -1.418e-06 3.51245e-22 0)
(3.262e-06 -5.83852e-07 -1.40056e-21 -1.32842e-06 -3.675e-22 0)
(3.2037e-06 -5.38114e-07 -4.08339e-35 -1.24304e-06 -1.26095e-35 0)
(3.15017e-06 -4.85257e-07 1.35255e-21 -1.16194e-06 4.21895e-22 0)