/*--------------------------------*- C++ -*----------------------------------*\
| =========                 |                                                 |
| \\      /  F ield         | foam-extend: Open Source CFD                    |
|  \\    /   O peration     | Version:     4.1                                |
|   \\  /    A nd           | Web:         http://www.foam-extend.org         |
|    \\/     M anipulation  |                                                 |
\*---------------------------------------------------------------------------*/
FoamFile
{
    version     2.0;
    format      ascii;
    class       pointVectorField;
    location    "7";
    object      pointD;
}
// * * * * * * * * * * * * * * * * * * * * * * * * * * * * * * * * * * * * * //

dimensions      [0 1 0 0 0 0 0];

internalField   nonuniform List<vector> 
2142
(
(4.06969e-06 -1.6902e-06 -2.23388e-22)
(3.7931e-06 -1.4988e-06 0)
(3.62367e-06 -1.39077e-06 0)
(3.519e-06 -1.32694e-06 0)
(3.46177e-06 -1.29565e-06 0)
(3.43809e-06 -1.28539e-06 0)
(3.43916e-06 -1.29003e-06 0)
(3.45869e-06 -1.30488e-06 0)
(3.4922e-06 -1.32691e-06 0)
(3.53646e-06 -1.354e-06 0)
(3.59044e-06 -1.38573e-06 0)
(3.73424e-06 -1.82044e-06 -9.76764e-23)
(3.43408e-06 -1.66888e-06 0)
(3.24994e-06 -1.58618e-06 0)
(3.13563e-06 -1.5388e-06 0)
(3.07154e-06 -1.51857e-06 0)
(3.04261e-06 -1.51584e-06 0)
(3.0392e-06 -1.52586e-06 0)
(3.05465e-06 -1.5446e-06 0)
(3.08403e-06 -1.56973e-06 0)
(3.12416e-06 -1.59906e-06 0)
(3.17182e-06 -1.63238e-06 0)
(3.37659e-06 -1.93988e-06 1.53099e-22)
(3.06423e-06 -1.83488e-06 0)
(2.87241e-06 -1.78162e-06 0)
(2.75292e-06 -1.7533e-06 0)
(2.68475e-06 -1.74578e-06 0)
(2.65221e-06 -1.7516e-06 0)
(2.6452e-06 -1.76762e-06 0)
(2.65684e-06 -1.79068e-06 0)
(2.68205e-06 -1.81917e-06 0)
(2.71733e-06 -1.85094e-06 0)
(2.7596e-06 -1.8869e-06 0)
(2.999e-06 -2.04765e-06 3.52979e-22)
(2.68696e-06 -1.99326e-06 0)
(2.4952e-06 -1.97189e-06 0)
(2.37546e-06 -1.96418e-06 0)
(2.30627e-06 -1.97031e-06 0)
(2.27198e-06 -1.98522e-06 0)
(2.26244e-06 -2.00752e-06 0)
(2.27081e-06 -2.035e-06 0)
(2.2921e-06 -2.06679e-06 0)
(2.32277e-06 -2.10112e-06 0)
(2.36024e-06 -2.13924e-06 0)
(2.6038e-06 -2.14294e-06 1.19935e-23)
(2.3051e-06 -2.14033e-06 0)
(2.12145e-06 -2.15153e-06 0)
(2.00657e-06 -2.16484e-06 0)
(1.93959e-06 -2.18482e-06 0)
(1.9055e-06 -2.20892e-06 0)
(1.89457e-06 -2.2375e-06 0)
(1.90029e-06 -2.26936e-06 0)
(1.91796e-06 -2.30436e-06 0)
(1.94415e-06 -2.34119e-06 0)
(1.97683e-06 -2.38134e-06 0)
(2.19338e-06 -2.22498e-06 -2.17289e-22)
(1.92086e-06 -2.27241e-06 0)
(1.75327e-06 -2.31501e-06 0)
(1.64828e-06 -2.34859e-06 0)
(1.58666e-06 -2.38188e-06 0)
(1.5547e-06 -2.41479e-06 0)
(1.54353e-06 -2.44934e-06 0)
(1.54721e-06 -2.48535e-06 0)
(1.56153e-06 -2.52336e-06 0)
(1.5833e-06 -2.56261e-06 0)
(1.61102e-06 -2.60459e-06 0)
(1.77019e-06 -2.29309e-06 2.74391e-23)
(1.53583e-06 -2.38599e-06 0)
(1.39168e-06 -2.4571e-06 0)
(1.30129e-06 -2.50905e-06 0)
(1.24797e-06 -2.5544e-06 0)
(1.21995e-06 -2.59526e-06 0)
(1.20958e-06 -2.6352e-06 0)
(1.21178e-06 -2.67494e-06 0)
(1.22296e-06 -2.71565e-06 0)
(1.24036e-06 -2.7571e-06 0)
(1.26289e-06 -2.8007e-06 0)
(1.33673e-06 -2.34668e-06 2.99975e-23)
(1.15101e-06 -2.47791e-06 0)
(1.03674e-06 -2.57303e-06 0)
(9.65043e-07 -2.64046e-06 0)
(9.226e-07 -2.69595e-06 0)
(9.00083e-07 -2.74351e-06 0)
(8.91436e-07 -2.78796e-06 0)
(8.92624e-07 -2.83084e-06 0)
(9.00853e-07 -2.87382e-06 0)
(9.13887e-07 -2.91713e-06 0)
(9.31001e-07 -2.96209e-06 0)
(8.9555e-07 -2.38527e-06 8.06394e-23)
(7.6685e-07 -2.54555e-06 0)
(6.87635e-07 -2.65885e-06 0)
(6.37895e-07 -2.738e-06 0)
(6.08379e-07 -2.80116e-06 0)
(5.92618e-07 -2.85378e-06 0)
(5.86416e-07 -2.90165e-06 0)
(5.86977e-07 -2.94691e-06 0)
(5.92381e-07 -2.9916e-06 0)
(6.0106e-07 -3.03636e-06 0)
(6.1258e-07 -3.08233e-06 0)
(4.49233e-07 -2.40851e-06 1.2365e-22)
(3.83397e-07 -2.58689e-06 0)
(3.42833e-07 -2.71154e-06 0)
(3.17342e-07 -2.798e-06 0)
(3.02185e-07 -2.86596e-06 0)
(2.94055e-07 -2.92174e-06 0)
(2.90804e-07 -2.97175e-06 0)
(2.91001e-07 -3.01849e-06 0)
(2.93669e-07 -3.06426e-06 0)
(2.97998e-07 -3.10992e-06 0)
(3.03787e-07 -3.15654e-06 0)
(0 -2.41604e-06 8.67114e-23)
(0 -2.60072e-06 -3.51752e-25)
(0 -2.72939e-06 0)
(0 -2.81825e-06 0)
(0 -2.8879e-06 0)
(0 -2.94472e-06 0)
(0 -2.99547e-06 0)
(0 -3.04272e-06 0)
(0 -3.08885e-06 0)
(0 -3.13483e-06 0)
(0 -3.18166e-06 0)
(4.06969e-06 -1.6902e-06 -2.23388e-22)
(3.7931e-06 -1.4988e-06 0)
(3.62367e-06 -1.39077e-06 0)
(3.519e-06 -1.32694e-06 0)
(3.46177e-06 -1.29565e-06 0)
(3.43809e-06 -1.28539e-06 0)
(3.43916e-06 -1.29003e-06 0)
(3.45869e-06 -1.30488e-06 0)
(3.4922e-06 -1.32691e-06 0)
(3.53646e-06 -1.354e-06 0)
(3.59044e-06 -1.38573e-06 0)
(3.73424e-06 -1.82044e-06 -9.76764e-23)
(3.43408e-06 -1.66888e-06 0)
(3.24994e-06 -1.58618e-06 0)
(3.13563e-06 -1.5388e-06 0)
(3.07154e-06 -1.51857e-06 0)
(3.04261e-06 -1.51584e-06 0)
(3.0392e-06 -1.52586e-06 0)
(3.05465e-06 -1.5446e-06 0)
(3.08403e-06 -1.56973e-06 0)
(3.12416e-06 -1.59906e-06 0)
(3.17182e-06 -1.63238e-06 0)
(3.37659e-06 -1.93988e-06 1.53099e-22)
(3.06423e-06 -1.83488e-06 0)
(2.87241e-06 -1.78162e-06 0)
(2.75292e-06 -1.7533e-06 0)
(2.68475e-06 -1.74578e-06 0)
(2.65221e-06 -1.7516e-06 0)
(2.6452e-06 -1.76762e-06 0)
(2.65684e-06 -1.79068e-06 0)
(2.68205e-06 -1.81917e-06 0)
(2.71733e-06 -1.85094e-06 0)
(2.7596e-06 -1.8869e-06 0)
(2.999e-06 -2.04765e-06 3.52979e-22)
(2.68696e-06 -1.99326e-06 0)
(2.4952e-06 -1.97189e-06 0)
(2.37546e-06 -1.96418e-06 0)
(2.30627e-06 -1.97031e-06 0)
(2.27198e-06 -1.98522e-06 0)
(2.26244e-06 -2.00752e-06 0)
(2.27081e-06 -2.035e-06 0)
(2.2921e-06 -2.06679e-06 0)
(2.32277e-06 -2.10112e-06 0)
(2.36024e-06 -2.13924e-06 0)
(2.6038e-06 -2.14294e-06 1.19935e-23)
(2.3051e-06 -2.14033e-06 0)
(2.12145e-06 -2.15153e-06 0)
(2.00657e-06 -2.16484e-06 0)
(1.93959e-06 -2.18482e-06 0)
(1.9055e-06 -2.20892e-06 0)
(1.89457e-06 -2.2375e-06 0)
(1.90029e-06 -2.26936e-06 0)
(1.91796e-06 -2.30436e-06 0)
(1.94415e-06 -2.34119e-06 0)
(1.97683e-06 -2.38134e-06 0)
(2.19338e-06 -2.22498e-06 -2.17289e-22)
(1.92086e-06 -2.27241e-06 0)
(1.75327e-06 -2.31501e-06 0)
(1.64828e-06 -2.34859e-06 0)
(1.58666e-06 -2.38188e-06 0)
(1.5547e-06 -2.41479e-06 0)
(1.54353e-06 -2.44934e-06 0)
(1.54721e-06 -2.48535e-06 0)
(1.56153e-06 -2.52336e-06 0)
(1.5833e-06 -2.56261e-06 0)
(1.61102e-06 -2.60459e-06 0)
(1.77019e-06 -2.29309e-06 2.74391e-23)
(1.53583e-06 -2.38599e-06 0)
(1.39168e-06 -2.4571e-06 0)
(1.30129e-06 -2.50905e-06 0)
(1.24797e-06 -2.5544e-06 0)
(1.21995e-06 -2.59526e-06 0)
(1.20958e-06 -2.6352e-06 0)
(1.21178e-06 -2.67494e-06 0)
(1.22296e-06 -2.71565e-06 0)
(1.24036e-06 -2.7571e-06 0)
(1.26289e-06 -2.8007e-06 0)
(1.33673e-06 -2.34668e-06 2.99975e-23)
(1.15101e-06 -2.47791e-06 0)
(1.03674e-06 -2.57303e-06 0)
(9.65043e-07 -2.64046e-06 0)
(9.226e-07 -2.69595e-06 0)
(9.00083e-07 -2.74351e-06 0)
(8.91436e-07 -2.78796e-06 0)
(8.92624e-07 -2.83084e-06 0)
(9.00853e-07 -2.87382e-06 0)
(9.13887e-07 -2.91713e-06 0)
(9.31001e-07 -2.96209e-06 0)
(8.9555e-07 -2.38527e-06 8.06394e-23)
(7.6685e-07 -2.54555e-06 0)
(6.87635e-07 -2.65885e-06 0)
(6.37895e-07 -2.738e-06 0)
(6.08379e-07 -2.80116e-06 0)
(5.92618e-07 -2.85378e-06 0)
(5.86416e-07 -2.90165e-06 0)
(5.86977e-07 -2.94691e-06 0)
(5.92381e-07 -2.9916e-06 0)
(6.0106e-07 -3.03636e-06 0)
(6.1258e-07 -3.08233e-06 0)
(4.49233e-07 -2.40851e-06 1.2365e-22)
(3.83397e-07 -2.58689e-06 0)
(3.42833e-07 -2.71154e-06 0)
(3.17342e-07 -2.798e-06 0)
(3.02185e-07 -2.86596e-06 0)
(2.94055e-07 -2.92174e-06 0)
(2.90804e-07 -2.97175e-06 0)
(2.91001e-07 -3.01849e-06 0)
(2.93669e-07 -3.06426e-06 0)
(2.97998e-07 -3.10992e-06 0)
(3.03787e-07 -3.15654e-06 0)
(0 -2.41604e-06 8.67114e-23)
(0 -2.60072e-06 -3.51752e-25)
(0 -2.72939e-06 0)
(0 -2.81825e-06 0)
(0 -2.8879e-06 0)
(0 -2.94472e-06 0)
(0 -2.99547e-06 0)
(0 -3.04272e-06 0)
(0 -3.08885e-06 0)
(0 -3.13483e-06 0)
(0 -3.18166e-06 0)
(5.79394e-06 0 -7.07051e-23)
(5.85918e-06 0 2.86821e-25)
(5.90198e-06 0 0)
(5.93428e-06 0 0)
(5.96871e-06 0 0)
(6.00842e-06 0 0)
(6.05633e-06 0 0)
(6.11279e-06 0 0)
(6.17809e-06 0 0)
(6.25167e-06 0 0)
(6.33335e-06 0 0)
(5.77579e-06 -1.85918e-07 -3.17358e-23)
(5.8351e-06 -1.29154e-07 0)
(5.87415e-06 -9.5268e-08 0)
(5.90415e-06 -7.42991e-08 0)
(5.93699e-06 -6.20915e-08 0)
(5.97566e-06 -5.55577e-08 0)
(6.02282e-06 -5.28301e-08 0)
(6.0787e-06 -5.26329e-08 0)
(6.14354e-06 -5.41558e-08 0)
(6.21665e-06 -5.6629e-08 0)
(6.29797e-06 -6.01675e-08 0)
(5.72104e-06 -3.70755e-07 -6.17862e-23)
(5.76315e-06 -2.60093e-07 0)
(5.79151e-06 -1.94209e-07 0)
(5.81464e-06 -1.53501e-07 0)
(5.84293e-06 -1.29865e-07 0)
(5.87852e-06 -1.17282e-07 0)
(5.92347e-06 -1.12114e-07 0)
(5.97766e-06 -1.11879e-07 0)
(6.04111e-06 -1.14991e-07 0)
(6.11289e-06 -1.19963e-07 0)
(6.19311e-06 -1.26987e-07 0)
(5.62999e-06 -5.5359e-07 -1.85121e-22)
(5.64465e-06 -3.9483e-07 0)
(5.65602e-06 -3.00495e-07 0)
(5.66819e-06 -2.42284e-07 0)
(5.68924e-06 -2.0861e-07 0)
(5.7199e-06 -1.9082e-07 0)
(5.76132e-06 -1.83697e-07 0)
(5.81281e-06 -1.83677e-07 0)
(5.87405e-06 -1.88471e-07 0)
(5.9437e-06 -1.9597e-07 0)
(6.02217e-06 -2.06354e-07 0)
(5.50343e-06 -7.33303e-07 -1.30681e-22)
(5.48203e-06 -5.34829e-07 0)
(5.47107e-06 -4.17121e-07 0)
(5.46885e-06 -3.446e-07 0)
(5.48037e-06 -3.02871e-07 0)
(5.50456e-06 -2.81076e-07 0)
(5.54134e-06 -2.7269e-07 0)
(5.58927e-06 -2.73252e-07 0)
(5.64757e-06 -2.79862e-07 0)
(5.71442e-06 -2.89928e-07 0)
(5.79057e-06 -3.03516e-07 0)
(5.34236e-06 -9.08895e-07 -1.02949e-23)
(5.27848e-06 -6.81109e-07 0)
(5.2412e-06 -5.4636e-07 0)
(5.22202e-06 -4.63518e-07 0)
(5.2223e-06 -4.16212e-07 0)
(5.23882e-06 -3.91914e-07 0)
(5.27008e-06 -3.83136e-07 0)
(5.31377e-06 -3.8474e-07 0)
(5.36856e-06 -3.93344e-07 0)
(5.4321e-06 -4.06025e-07 0)
(5.50544e-06 -4.22614e-07 0)
(5.14801e-06 -1.07935e-06 -3.21944e-24)
(5.03783e-06 -8.34098e-07 0)
(4.97184e-06 -6.89539e-07 0)
(4.93413e-06 -6.00931e-07 0)
(4.92212e-06 -5.50883e-07 0)
(4.93022e-06 -5.25802e-07 0)
(4.95538e-06 -5.17635e-07 0)
(4.99435e-06 -5.20815e-07 0)
(5.04521e-06 -5.31636e-07 0)
(5.10507e-06 -5.47e-07 0)
(5.17521e-06 -5.66395e-07 0)
(4.92185e-06 -1.24368e-06 -5.46707e-24)
(4.76437e-06 -9.93588e-07 0)
(4.66903e-06 -8.46941e-07 0)
(4.61237e-06 -7.57441e-07 0)
(4.58771e-06 -7.07683e-07 0)
(4.58711e-06 -6.8366e-07 0)
(4.60588e-06 -6.77179e-07 0)
(4.63987e-06 -6.82518e-07 0)
(4.68651e-06 -6.95812e-07 0)
(4.74245e-06 -7.13961e-07 0)
(4.80905e-06 -7.35966e-07 0)
(4.66551e-06 -1.4009e-06 2.65224e-22)
(4.46268e-06 -1.15868e-06 0)
(4.33915e-06 -1.01774e-06 0)
(4.26428e-06 -9.32263e-07 0)
(4.22739e-06 -8.85854e-07 0)
(4.21828e-06 -8.64742e-07 0)
(4.23071e-06 -8.61032e-07 0)
(4.25967e-06 -8.69112e-07 0)
(4.30192e-06 -8.85185e-07 0)
(4.35385e-06 -9.06275e-07 0)
(4.41667e-06 -9.30956e-07 0)
(4.3808e-06 -1.55005e-06 1.68217e-22)
(4.1374e-06 -1.32782e-06 0)
(3.98864e-06 -1.2e-06 0)
(3.8974e-06 -1.12325e-06 0)
(3.84942e-06 -1.0831e-06 0)
(3.83246e-06 -1.06665e-06 0)
(3.83887e-06 -1.06671e-06 0)
(3.8629e-06 -1.07805e-06 0)
(3.90067e-06 -1.09713e-06 0)
(3.94858e-06 -1.12144e-06 0)
(4.00702e-06 -1.14882e-06 0)
(5.79394e-06 0 -7.07051e-23)
(5.85918e-06 0 2.86821e-25)
(5.90198e-06 0 0)
(5.93428e-06 0 0)
(5.96871e-06 0 0)
(6.00842e-06 0 0)
(6.05633e-06 0 0)
(6.11279e-06 0 0)
(6.17809e-06 0 0)
(6.25167e-06 0 0)
(6.33335e-06 0 0)
(5.77579e-06 -1.85918e-07 -3.17358e-23)
(5.8351e-06 -1.29154e-07 0)
(5.87415e-06 -9.5268e-08 0)
(5.90415e-06 -7.42991e-08 0)
(5.93699e-06 -6.20915e-08 0)
(5.97566e-06 -5.55577e-08 0)
(6.02282e-06 -5.28301e-08 0)
(6.0787e-06 -5.26329e-08 0)
(6.14354e-06 -5.41558e-08 0)
(6.21665e-06 -5.6629e-08 0)
(6.29797e-06 -6.01675e-08 0)
(5.72104e-06 -3.70755e-07 -6.17862e-23)
(5.76315e-06 -2.60093e-07 0)
(5.79151e-06 -1.94209e-07 0)
(5.81464e-06 -1.53501e-07 0)
(5.84293e-06 -1.29865e-07 0)
(5.87852e-06 -1.17282e-07 0)
(5.92347e-06 -1.12114e-07 0)
(5.97766e-06 -1.11879e-07 0)
(6.04111e-06 -1.14991e-07 0)
(6.11289e-06 -1.19963e-07 0)
(6.19311e-06 -1.26987e-07 0)
(5.62999e-06 -5.5359e-07 -1.85121e-22)
(5.64465e-06 -3.9483e-07 0)
(5.65602e-06 -3.00495e-07 0)
(5.66819e-06 -2.42284e-07 0)
(5.68924e-06 -2.0861e-07 0)
(5.7199e-06 -1.9082e-07 0)
(5.76132e-06 -1.83697e-07 0)
(5.81281e-06 -1.83677e-07 0)
(5.87405e-06 -1.88471e-07 0)
(5.9437e-06 -1.9597e-07 0)
(6.02217e-06 -2.06354e-07 0)
(5.50343e-06 -7.33303e-07 -1.30681e-22)
(5.48203e-06 -5.34829e-07 0)
(5.47107e-06 -4.17121e-07 0)
(5.46885e-06 -3.446e-07 0)
(5.48037e-06 -3.02871e-07 0)
(5.50456e-06 -2.81076e-07 0)
(5.54134e-06 -2.7269e-07 0)
(5.58927e-06 -2.73252e-07 0)
(5.64757e-06 -2.79862e-07 0)
(5.71442e-06 -2.89928e-07 0)
(5.79057e-06 -3.03516e-07 0)
(5.34236e-06 -9.08895e-07 -1.02949e-23)
(5.27848e-06 -6.81109e-07 0)
(5.2412e-06 -5.4636e-07 0)
(5.22202e-06 -4.63518e-07 0)
(5.2223e-06 -4.16212e-07 0)
(5.23882e-06 -3.91914e-07 0)
(5.27008e-06 -3.83136e-07 0)
(5.31377e-06 -3.8474e-07 0)
(5.36856e-06 -3.93344e-07 0)
(5.4321e-06 -4.06025e-07 0)
(5.50544e-06 -4.22614e-07 0)
(5.14801e-06 -1.07935e-06 -3.21944e-24)
(5.03783e-06 -8.34098e-07 0)
(4.97184e-06 -6.89539e-07 0)
(4.93413e-06 -6.00931e-07 0)
(4.92212e-06 -5.50883e-07 0)
(4.93022e-06 -5.25802e-07 0)
(4.95538e-06 -5.17635e-07 0)
(4.99435e-06 -5.20815e-07 0)
(5.04521e-06 -5.31636e-07 0)
(5.10507e-06 -5.47e-07 0)
(5.17521e-06 -5.66395e-07 0)
(4.92185e-06 -1.24368e-06 -5.46707e-24)
(4.76437e-06 -9.93588e-07 0)
(4.66903e-06 -8.46941e-07 0)
(4.61237e-06 -7.57441e-07 0)
(4.58771e-06 -7.07683e-07 0)
(4.58711e-06 -6.8366e-07 0)
(4.60588e-06 -6.77179e-07 0)
(4.63987e-06 -6.82518e-07 0)
(4.68651e-06 -6.95812e-07 0)
(4.74245e-06 -7.13961e-07 0)
(4.80905e-06 -7.35966e-07 0)
(4.66551e-06 -1.4009e-06 2.65224e-22)
(4.46268e-06 -1.15868e-06 0)
(4.33915e-06 -1.01774e-06 0)
(4.26428e-06 -9.32263e-07 0)
(4.22739e-06 -8.85854e-07 0)
(4.21828e-06 -8.64742e-07 0)
(4.23071e-06 -8.61032e-07 0)
(4.25967e-06 -8.69112e-07 0)
(4.30192e-06 -8.85185e-07 0)
(4.35385e-06 -9.06275e-07 0)
(4.41667e-06 -9.30956e-07 0)
(4.3808e-06 -1.55005e-06 1.68217e-22)
(4.1374e-06 -1.32782e-06 0)
(3.98864e-06 -1.2e-06 0)
(3.8974e-06 -1.12325e-06 0)
(3.84942e-06 -1.0831e-06 0)
(3.83246e-06 -1.06665e-06 0)
(3.83887e-06 -1.06671e-06 0)
(3.8629e-06 -1.07805e-06 0)
(3.90067e-06 -1.09713e-06 0)
(3.94858e-06 -1.12144e-06 0)
(4.00702e-06 -1.14882e-06 0)
(6.42286e-06 0 0)
(6.519e-06 0 0)
(6.62098e-06 0 0)
(6.7283e-06 0 0)
(6.84039e-06 0 0)
(6.95677e-06 0 0)
(7.07695e-06 0 0)
(7.2005e-06 0 0)
(7.32699e-06 0 0)
(7.45601e-06 0 0)
(7.58716e-06 0 0)
(7.72005e-06 0 0)
(7.85425e-06 0 0)
(7.98938e-06 0 0)
(8.12494e-06 0 0)
(8.26052e-06 0 0)
(8.39546e-06 0 0)
(8.5294e-06 0 0)
(8.66121e-06 0 -2.11844e-26)
(8.79097e-06 0 -3.46379e-23)
(6.39066e-06 -6.06304e-08 0)
(6.48948e-06 -6.08405e-08 0)
(6.59382e-06 -6.10638e-08 0)
(6.70321e-06 -6.10659e-08 0)
(6.81714e-06 -6.07955e-08 0)
(6.93514e-06 -6.02007e-08 0)
(7.05679e-06 -5.92371e-08 0)
(7.18167e-06 -5.78755e-08 0)
(7.30936e-06 -5.60819e-08 0)
(7.43948e-06 -5.38248e-08 0)
(7.57165e-06 -5.10659e-08 0)
(7.70548e-06 -4.77612e-08 0)
(7.84057e-06 -4.3857e-08 0)
(7.97653e-06 -3.92879e-08 0)
(8.11288e-06 -3.3975e-08 0)
(8.24922e-06 -2.78199e-08 0)
(8.3849e-06 -2.07081e-08 0)
(8.51955e-06 -1.24844e-08 0)
(8.65207e-06 -3.01472e-09 0)
(8.78255e-06 8.08468e-09 -7.17257e-23)
(6.29512e-06 -1.2689e-07 0)
(6.40187e-06 -1.26494e-07 0)
(6.51318e-06 -1.26255e-07 0)
(6.6287e-06 -1.25705e-07 0)
(6.74805e-06 -1.24709e-07 0)
(6.8709e-06 -1.2315e-07 0)
(6.99689e-06 -1.20924e-07 0)
(7.12568e-06 -1.17959e-07 0)
(7.25695e-06 -1.14179e-07 0)
(7.39034e-06 -1.09512e-07 0)
(7.52553e-06 -1.03876e-07 0)
(7.66216e-06 -9.7176e-08 0)
(7.79988e-06 -8.93014e-08 0)
(7.93831e-06 -8.01173e-08 0)
(8.07702e-06 -6.9463e-08 0)
(8.21562e-06 -5.71391e-08 0)
(8.35348e-06 -4.29142e-08 0)
(8.49027e-06 -2.64761e-08 0)
(8.62491e-06 -7.55466e-09 0)
(8.7575e-06 1.46105e-08 -1.2133e-22)
(6.13916e-06 -2.03759e-07 0)
(6.25873e-06 -2.01203e-07 0)
(6.38134e-06 -1.99198e-07 0)
(6.50679e-06 -1.97053e-07 0)
(6.63498e-06 -1.94476e-07 0)
(6.7657e-06 -1.91267e-07 0)
(6.89878e-06 -1.87221e-07 0)
(7.03399e-06 -1.8221e-07 0)
(7.17108e-06 -1.76091e-07 0)
(7.30983e-06 -1.68738e-07 0)
(7.44995e-06 -1.60011e-07 0)
(7.59117e-06 -1.49757e-07 0)
(7.73318e-06 -1.37798e-07 0)
(7.87567e-06 -1.23923e-07 0)
(8.01823e-06 -1.07884e-07 0)
(8.16051e-06 -8.93741e-08 0)
(8.30195e-06 -6.8041e-08 0)
(8.44224e-06 -4.34108e-08 0)
(8.58033e-06 -1.50707e-08 0)
(8.7164e-06 1.81114e-08 -1.94828e-23)
(5.92738e-06 -2.9572e-07 0)
(6.06404e-06 -2.88827e-07 0)
(6.2018e-06 -2.83213e-07 0)
(6.34064e-06 -2.77995e-07 0)
(6.48077e-06 -2.72624e-07 0)
(6.62216e-06 -2.66785e-07 0)
(6.76486e-06 -2.60128e-07 0)
(6.90877e-06 -2.52435e-07 0)
(7.05381e-06 -2.4347e-07 0)
(7.19984e-06 -2.33032e-07 0)
(7.34669e-06 -2.20908e-07 0)
(7.49416e-06 -2.06869e-07 0)
(7.64203e-06 -1.90661e-07 0)
(7.79003e-06 -1.71986e-07 0)
(7.93783e-06 -1.505e-07 0)
(8.08514e-06 -1.25783e-07 0)
(8.23144e-06 -9.73552e-08 0)
(8.37648e-06 -6.45744e-08 0)
(8.51929e-06 -2.68764e-08 0)
(8.66008e-06 1.72363e-08 3.04331e-23)
(5.66581e-06 -4.06394e-07 0)
(5.82304e-06 -3.92511e-07 0)
(5.97919e-06 -3.81013e-07 0)
(6.13435e-06 -3.70881e-07 0)
(6.28913e-06 -3.61195e-07 0)
(6.44366e-06 -3.51493e-07 0)
(6.59824e-06 -3.41227e-07 0)
(6.75293e-06 -3.3005e-07 0)
(6.90782e-06 -3.17602e-07 0)
(7.06289e-06 -3.03581e-07 0)
(7.21809e-06 -2.87676e-07 0)
(7.37333e-06 -2.69569e-07 0)
(7.52846e-06 -2.4891e-07 0)
(7.6833e-06 -2.25307e-07 0)
(7.83761e-06 -1.98308e-07 0)
(7.99114e-06 -1.67372e-07 0)
(8.14346e-06 -1.31882e-07 0)
(8.29439e-06 -9.10257e-08 0)
(8.44304e-06 -4.40763e-08 0)
(8.58969e-06 1.08176e-08 6.78235e-23)
(5.36162e-06 -5.38297e-07 0)
(5.54196e-06 -5.14558e-07 0)
(5.71899e-06 -4.94667e-07 0)
(5.89282e-06 -4.77559e-07 0)
(6.06447e-06 -4.61852e-07 0)
(6.23421e-06 -4.46881e-07 0)
(6.4026e-06 -4.31863e-07 0)
(6.56986e-06 -4.16273e-07 0)
(6.73625e-06 -3.99599e-07 0)
(6.90189e-06 -3.81406e-07 0)
(7.06688e-06 -3.61263e-07 0)
(7.23121e-06 -3.38743e-07 0)
(7.39485e-06 -3.1339e-07 0)
(7.55772e-06 -2.847e-07 0)
(7.71963e-06 -2.52105e-07 0)
(7.88044e-06 -2.14935e-07 0)
(8.0398e-06 -1.72433e-07 0)
(8.1976e-06 -1.23609e-07 0)
(8.35308e-06 -6.75683e-08 0)
(8.50659e-06 -2.12928e-09 1.21803e-22)
(5.02263e-06 -6.92551e-07 0)
(5.22754e-06 -6.56035e-07 0)
(5.42714e-06 -6.25147e-07 0)
(5.62135e-06 -5.98857e-07 0)
(5.81157e-06 -5.75303e-07 0)
(5.9982e-06 -5.53543e-07 0)
(6.18197e-06 -5.3254e-07 0)
(6.3633e-06 -5.11539e-07 0)
(6.5426e-06 -4.89848e-07 0)
(6.72013e-06 -4.66862e-07 0)
(6.89612e-06 -4.42009e-07 0)
(7.07069e-06 -4.14729e-07 0)
(7.24391e-06 -3.84441e-07 0)
(7.41578e-06 -3.50519e-07 0)
(7.58624e-06 -3.1227e-07 0)
(7.75522e-06 -2.68887e-07 0)
(7.92248e-06 -2.19466e-07 0)
(8.08799e-06 -1.62841e-07 0)
(8.25113e-06 -9.79465e-08 0)
(8.41234e-06 -2.22947e-08 3.04479e-24)
(4.65724e-06 -8.69246e-07 0)
(4.88711e-06 -8.17361e-07 0)
(5.11002e-06 -7.73162e-07 0)
(5.32562e-06 -7.35567e-07 0)
(5.5355e-06 -7.02396e-07 0)
(5.74016e-06 -6.7232e-07 0)
(5.94049e-06 -6.44061e-07 0)
(6.13703e-06 -6.16593e-07 0)
(6.33034e-06 -5.89019e-07 0)
(6.52083e-06 -5.60545e-07 0)
(6.70883e-06 -5.30437e-07 0)
(6.89458e-06 -4.97984e-07 0)
(7.07826e-06 -4.62467e-07 0)
(7.25998e-06 -4.23126e-07 0)
(7.43976e-06 -3.79135e-07 0)
(7.61765e-06 -3.29543e-07 0)
(7.7935e-06 -2.73301e-07 0)
(7.96741e-06 -2.09069e-07 0)
(8.1389e-06 -1.35618e-07 0)
(8.30852e-06 -5.02146e-08 -3.51347e-23)
(4.27325e-06 -1.06623e-06 0)
(4.52742e-06 -9.96577e-07 0)
(4.77355e-06 -9.37095e-07 0)
(5.01105e-06 -8.86209e-07 0)
(5.24129e-06 -8.41749e-07 0)
(5.46486e-06 -8.01942e-07 0)
(5.68263e-06 -7.65265e-07 0)
(5.89528e-06 -7.30396e-07 0)
(6.10347e-06 -6.96199e-07 0)
(6.30773e-06 -6.61662e-07 0)
(6.50851e-06 -6.25864e-07 0)
(6.70616e-06 -5.87926e-07 0)
(6.90098e-06 -5.46979e-07 0)
(7.09317e-06 -5.02117e-07 0)
(7.28286e-06 -4.52375e-07 0)
(7.47021e-06 -3.96662e-07 0)
(7.65518e-06 -3.33783e-07 0)
(7.83798e-06 -2.62235e-07 0)
(8.01833e-06 -1.80628e-07 0)
(8.19689e-06 -8.60028e-08 2.15722e-23)
(3.8811e-06 -1.28089e-06 0)
(4.15781e-06 -1.19149e-06 0)
(4.42597e-06 -1.11579e-06 0)
(4.68467e-06 -1.05037e-06 0)
(4.93495e-06 -9.93392e-07 0)
(5.17738e-06 -9.42699e-07 0)
(5.41278e-06 -8.96561e-07 0)
(5.64186e-06 -8.53392e-07 0)
(5.86533e-06 -8.11816e-07 0)
(6.08381e-06 -7.70601e-07 0)
(6.29784e-06 -7.28624e-07 0)
(6.50787e-06 -6.8483e-07 0)
(6.71429e-06 -6.38184e-07 0)
(6.9174e-06 -5.87635e-07 0)
(7.11745e-06 -5.32072e-07 0)
(7.31466e-06 -4.70272e-07 0)
(7.50916e-06 -4.00898e-07 0)
(7.70125e-06 -3.22311e-07 0)
(7.89089e-06 -2.32956e-07 0)
(8.07878e-06 -1.29733e-07 6.28361e-23)
(6.42286e-06 0 0)
(6.519e-06 0 0)
(6.62098e-06 0 0)
(6.7283e-06 0 0)
(6.84039e-06 0 0)
(6.95677e-06 0 0)
(7.07695e-06 0 0)
(7.2005e-06 0 0)
(7.32699e-06 0 0)
(7.45601e-06 0 0)
(7.58716e-06 0 0)
(7.72005e-06 0 0)
(7.85425e-06 0 0)
(7.98938e-06 0 0)
(8.12494e-06 0 0)
(8.26052e-06 0 0)
(8.39546e-06 0 0)
(8.5294e-06 0 0)
(8.66121e-06 0 -2.11844e-26)
(8.79097e-06 0 -3.46379e-23)
(6.39066e-06 -6.06304e-08 0)
(6.48948e-06 -6.08405e-08 0)
(6.59382e-06 -6.10638e-08 0)
(6.70321e-06 -6.10659e-08 0)
(6.81714e-06 -6.07955e-08 0)
(6.93514e-06 -6.02007e-08 0)
(7.05679e-06 -5.92371e-08 0)
(7.18167e-06 -5.78755e-08 0)
(7.30936e-06 -5.60819e-08 0)
(7.43948e-06 -5.38248e-08 0)
(7.57165e-06 -5.10659e-08 0)
(7.70548e-06 -4.77612e-08 0)
(7.84057e-06 -4.3857e-08 0)
(7.97653e-06 -3.92879e-08 0)
(8.11288e-06 -3.3975e-08 0)
(8.24922e-06 -2.78199e-08 0)
(8.3849e-06 -2.07081e-08 0)
(8.51955e-06 -1.24844e-08 0)
(8.65207e-06 -3.01472e-09 0)
(8.78255e-06 8.08468e-09 -7.17257e-23)
(6.29512e-06 -1.2689e-07 0)
(6.40187e-06 -1.26494e-07 0)
(6.51318e-06 -1.26255e-07 0)
(6.6287e-06 -1.25705e-07 0)
(6.74805e-06 -1.24709e-07 0)
(6.8709e-06 -1.2315e-07 0)
(6.99689e-06 -1.20924e-07 0)
(7.12568e-06 -1.17959e-07 0)
(7.25695e-06 -1.14179e-07 0)
(7.39034e-06 -1.09512e-07 0)
(7.52553e-06 -1.03876e-07 0)
(7.66216e-06 -9.7176e-08 0)
(7.79988e-06 -8.93014e-08 0)
(7.93831e-06 -8.01173e-08 0)
(8.07702e-06 -6.9463e-08 0)
(8.21562e-06 -5.71391e-08 0)
(8.35348e-06 -4.29142e-08 0)
(8.49027e-06 -2.64761e-08 0)
(8.62491e-06 -7.55466e-09 0)
(8.7575e-06 1.46105e-08 -1.2133e-22)
(6.13916e-06 -2.03759e-07 0)
(6.25873e-06 -2.01203e-07 0)
(6.38134e-06 -1.99198e-07 0)
(6.50679e-06 -1.97053e-07 0)
(6.63498e-06 -1.94476e-07 0)
(6.7657e-06 -1.91267e-07 0)
(6.89878e-06 -1.87221e-07 0)
(7.03399e-06 -1.8221e-07 0)
(7.17108e-06 -1.76091e-07 0)
(7.30983e-06 -1.68738e-07 0)
(7.44995e-06 -1.60011e-07 0)
(7.59117e-06 -1.49757e-07 0)
(7.73318e-06 -1.37798e-07 0)
(7.87567e-06 -1.23923e-07 0)
(8.01823e-06 -1.07884e-07 0)
(8.16051e-06 -8.93741e-08 0)
(8.30195e-06 -6.8041e-08 0)
(8.44224e-06 -4.34108e-08 0)
(8.58033e-06 -1.50707e-08 0)
(8.7164e-06 1.81114e-08 -1.94828e-23)
(5.92738e-06 -2.9572e-07 0)
(6.06404e-06 -2.88827e-07 0)
(6.2018e-06 -2.83213e-07 0)
(6.34064e-06 -2.77995e-07 0)
(6.48077e-06 -2.72624e-07 0)
(6.62216e-06 -2.66785e-07 0)
(6.76486e-06 -2.60128e-07 0)
(6.90877e-06 -2.52435e-07 0)
(7.05381e-06 -2.4347e-07 0)
(7.19984e-06 -2.33032e-07 0)
(7.34669e-06 -2.20908e-07 0)
(7.49416e-06 -2.06869e-07 0)
(7.64203e-06 -1.90661e-07 0)
(7.79003e-06 -1.71986e-07 0)
(7.93783e-06 -1.505e-07 0)
(8.08514e-06 -1.25783e-07 0)
(8.23144e-06 -9.73552e-08 0)
(8.37648e-06 -6.45744e-08 0)
(8.51929e-06 -2.68764e-08 0)
(8.66008e-06 1.72363e-08 3.04331e-23)
(5.66581e-06 -4.06394e-07 0)
(5.82304e-06 -3.92511e-07 0)
(5.97919e-06 -3.81013e-07 0)
(6.13435e-06 -3.70881e-07 0)
(6.28913e-06 -3.61195e-07 0)
(6.44366e-06 -3.51493e-07 0)
(6.59824e-06 -3.41227e-07 0)
(6.75293e-06 -3.3005e-07 0)
(6.90782e-06 -3.17602e-07 0)
(7.06289e-06 -3.03581e-07 0)
(7.21809e-06 -2.87676e-07 0)
(7.37333e-06 -2.69569e-07 0)
(7.52846e-06 -2.4891e-07 0)
(7.6833e-06 -2.25307e-07 0)
(7.83761e-06 -1.98308e-07 0)
(7.99114e-06 -1.67372e-07 0)
(8.14346e-06 -1.31882e-07 0)
(8.29439e-06 -9.10257e-08 0)
(8.44304e-06 -4.40763e-08 0)
(8.58969e-06 1.08176e-08 6.78235e-23)
(5.36162e-06 -5.38297e-07 0)
(5.54196e-06 -5.14558e-07 0)
(5.71899e-06 -4.94667e-07 0)
(5.89282e-06 -4.77559e-07 0)
(6.06447e-06 -4.61852e-07 0)
(6.23421e-06 -4.46881e-07 0)
(6.4026e-06 -4.31863e-07 0)
(6.56986e-06 -4.16273e-07 0)
(6.73625e-06 -3.99599e-07 0)
(6.90189e-06 -3.81406e-07 0)
(7.06688e-06 -3.61263e-07 0)
(7.23121e-06 -3.38743e-07 0)
(7.39485e-06 -3.1339e-07 0)
(7.55772e-06 -2.847e-07 0)
(7.71963e-06 -2.52105e-07 0)
(7.88044e-06 -2.14935e-07 0)
(8.0398e-06 -1.72433e-07 0)
(8.1976e-06 -1.23609e-07 0)
(8.35308e-06 -6.75683e-08 0)
(8.50659e-06 -2.12928e-09 1.21803e-22)
(5.02263e-06 -6.92551e-07 0)
(5.22754e-06 -6.56035e-07 0)
(5.42714e-06 -6.25147e-07 0)
(5.62135e-06 -5.98857e-07 0)
(5.81157e-06 -5.75303e-07 0)
(5.9982e-06 -5.53543e-07 0)
(6.18197e-06 -5.3254e-07 0)
(6.3633e-06 -5.11539e-07 0)
(6.5426e-06 -4.89848e-07 0)
(6.72013e-06 -4.66862e-07 0)
(6.89612e-06 -4.42009e-07 0)
(7.07069e-06 -4.14729e-07 0)
(7.24391e-06 -3.84441e-07 0)
(7.41578e-06 -3.50519e-07 0)
(7.58624e-06 -3.1227e-07 0)
(7.75522e-06 -2.68887e-07 0)
(7.92248e-06 -2.19466e-07 0)
(8.08799e-06 -1.62841e-07 0)
(8.25113e-06 -9.79465e-08 0)
(8.41234e-06 -2.22947e-08 3.04479e-24)
(4.65724e-06 -8.69246e-07 0)
(4.88711e-06 -8.17361e-07 0)
(5.11002e-06 -7.73162e-07 0)
(5.32562e-06 -7.35567e-07 0)
(5.5355e-06 -7.02396e-07 0)
(5.74016e-06 -6.7232e-07 0)
(5.94049e-06 -6.44061e-07 0)
(6.13703e-06 -6.16593e-07 0)
(6.33034e-06 -5.89019e-07 0)
(6.52083e-06 -5.60545e-07 0)
(6.70883e-06 -5.30437e-07 0)
(6.89458e-06 -4.97984e-07 0)
(7.07826e-06 -4.62467e-07 0)
(7.25998e-06 -4.23126e-07 0)
(7.43976e-06 -3.79135e-07 0)
(7.61765e-06 -3.29543e-07 0)
(7.7935e-06 -2.73301e-07 0)
(7.96741e-06 -2.09069e-07 0)
(8.1389e-06 -1.35618e-07 0)
(8.30852e-06 -5.02146e-08 -3.51347e-23)
(4.27325e-06 -1.06623e-06 0)
(4.52742e-06 -9.96577e-07 0)
(4.77355e-06 -9.37095e-07 0)
(5.01105e-06 -8.86209e-07 0)
(5.24129e-06 -8.41749e-07 0)
(5.46486e-06 -8.01942e-07 0)
(5.68263e-06 -7.65265e-07 0)
(5.89528e-06 -7.30396e-07 0)
(6.10347e-06 -6.96199e-07 0)
(6.30773e-06 -6.61662e-07 0)
(6.50851e-06 -6.25864e-07 0)
(6.70616e-06 -5.87926e-07 0)
(6.90098e-06 -5.46979e-07 0)
(7.09317e-06 -5.02117e-07 0)
(7.28286e-06 -4.52375e-07 0)
(7.47021e-06 -3.96662e-07 0)
(7.65518e-06 -3.33783e-07 0)
(7.83798e-06 -2.62235e-07 0)
(8.01833e-06 -1.80628e-07 0)
(8.19689e-06 -8.60028e-08 2.15722e-23)
(3.8811e-06 -1.28089e-06 0)
(4.15781e-06 -1.19149e-06 0)
(4.42597e-06 -1.11579e-06 0)
(4.68467e-06 -1.05037e-06 0)
(4.93495e-06 -9.93392e-07 0)
(5.17738e-06 -9.42699e-07 0)
(5.41278e-06 -8.96561e-07 0)
(5.64186e-06 -8.53392e-07 0)
(5.86533e-06 -8.11816e-07 0)
(6.08381e-06 -7.70601e-07 0)
(6.29784e-06 -7.28624e-07 0)
(6.50787e-06 -6.8483e-07 0)
(6.71429e-06 -6.38184e-07 0)
(6.9174e-06 -5.87635e-07 0)
(7.11745e-06 -5.32072e-07 0)
(7.31466e-06 -4.70272e-07 0)
(7.50916e-06 -4.00898e-07 0)
(7.70125e-06 -3.22311e-07 0)
(7.89089e-06 -2.32956e-07 0)
(8.07878e-06 -1.29733e-07 6.28361e-23)
(3.40931e-06 -1.55402e-06 0)
(3.70118e-06 -1.44563e-06 0)
(3.98197e-06 -1.34978e-06 0)
(4.25395e-06 -1.2669e-06 0)
(4.51731e-06 -1.19383e-06 0)
(4.77246e-06 -1.12894e-06 0)
(5.01991e-06 -1.07039e-06 0)
(5.26027e-06 -1.01659e-06 0)
(5.49414e-06 -9.66043e-07 0)
(5.72212e-06 -9.17417e-07 0)
(5.94478e-06 -8.69487e-07 0)
(6.16261e-06 -8.21117e-07 0)
(6.37607e-06 -7.71223e-07 0)
(6.58555e-06 -7.18744e-07 0)
(6.79139e-06 -6.62601e-07 0)
(6.9939e-06 -6.01672e-07 0)
(7.19337e-06 -5.34728e-07 0)
(7.39e-06 -4.60455e-07 0)
(7.58421e-06 -3.77252e-07 0)
(7.77609e-06 -2.83659e-07 0)
(7.96645e-06 -1.76691e-07 6.55561e-23)
(3.25132e-06 -1.71481e-06 0)
(3.54103e-06 -1.60473e-06 0)
(3.82196e-06 -1.50451e-06 0)
(4.09518e-06 -1.41576e-06 0)
(4.36066e-06 -1.3361e-06 0)
(4.61853e-06 -1.26422e-06 0)
(4.86908e-06 -1.19855e-06 0)
(5.11273e-06 -1.13764e-06 0)
(5.34995e-06 -1.08015e-06 0)
(5.58121e-06 -1.02479e-06 0)
(5.807e-06 -9.70389e-07 0)
(6.02777e-06 -9.15815e-07 0)
(6.24395e-06 -8.59993e-07 0)
(6.45592e-06 -8.0186e-07 0)
(6.66405e-06 -7.40336e-07 0)
(6.86865e-06 -6.74308e-07 0)
(7.07009e-06 -6.02573e-07 0)
(7.26865e-06 -5.23862e-07 0)
(7.46479e-06 -4.36654e-07 0)
(7.65876e-06 -3.39592e-07 0)
(7.85142e-06 -2.2995e-07 1.33465e-22)
(3.11327e-06 -1.87048e-06 0)
(3.39911e-06 -1.75885e-06 0)
(3.67762e-06 -1.65553e-06 0)
(3.9498e-06 -1.56223e-06 0)
(4.21519e-06 -1.4771e-06 0)
(4.47378e-06 -1.39915e-06 0)
(4.72561e-06 -1.32708e-06 0)
(4.97094e-06 -1.25966e-06 0)
(5.21008e-06 -1.19566e-06 0)
(5.44341e-06 -1.13392e-06 0)
(5.6713e-06 -1.0733e-06 0)
(5.89414e-06 -1.01274e-06 0)
(6.11232e-06 -9.51182e-07 0)
(6.3262e-06 -8.87583e-07 0)
(6.53614e-06 -8.20889e-07 0)
(6.7425e-06 -7.50017e-07 0)
(6.94564e-06 -6.7381e-07 0)
(7.14592e-06 -5.91065e-07 0)
(7.34384e-06 -5.0037e-07 0)
(7.53977e-06 -4.00488e-07 0)
(7.73459e-06 -2.88969e-07 1.9261e-22)
(2.9918e-06 -2.01957e-06 0)
(3.27243e-06 -1.90744e-06 0)
(3.54702e-06 -1.80208e-06 0)
(3.81652e-06 -1.70526e-06 0)
(4.08019e-06 -1.61561e-06 0)
(4.33792e-06 -1.53244e-06 0)
(4.58957e-06 -1.45472e-06 0)
(4.83524e-06 -1.38141e-06 0)
(5.07511e-06 -1.31143e-06 0)
(5.30943e-06 -1.24373e-06 0)
(5.53849e-06 -1.17728e-06 0)
(5.76261e-06 -1.11106e-06 0)
(5.98213e-06 -1.04406e-06 0)
(6.19738e-06 -9.75282e-07 0)
(6.4087e-06 -9.03716e-07 0)
(6.61645e-06 -8.28328e-07 0)
(6.82102e-06 -7.48025e-07 0)
(7.02279e-06 -6.61689e-07 0)
(7.2223e-06 -5.68032e-07 0)
(7.42002e-06 -4.65951e-07 0)
(7.61681e-06 -3.53293e-07 1.68985e-22)
(2.88469e-06 -2.16203e-06 0)
(3.15909e-06 -2.05006e-06 0)
(3.42868e-06 -1.94354e-06 0)
(3.69427e-06 -1.84413e-06 0)
(3.95499e-06 -1.75089e-06 0)
(4.21062e-06 -1.66335e-06 0)
(4.46088e-06 -1.58074e-06 0)
(4.70577e-06 -1.5022e-06 0)
(4.94533e-06 -1.42682e-06 0)
(5.17972e-06 -1.35368e-06 0)
(5.40913e-06 -1.28183e-06 0)
(5.63383e-06 -1.21033e-06 0)
(5.85407e-06 -1.13824e-06 0)
(6.07018e-06 -1.06462e-06 0)
(6.28246e-06 -9.88518e-07 0)
(6.49126e-06 -9.08963e-07 0)
(6.69698e-06 -8.24945e-07 0)
(6.90002e-06 -7.35442e-07 0)
(7.10093e-06 -6.39302e-07 0)
(7.30025e-06 -5.35565e-07 0)
(7.49881e-06 -4.22388e-07 1.70503e-22)
(2.78938e-06 -2.29784e-06 0)
(3.05704e-06 -2.18662e-06 0)
(3.32095e-06 -2.07964e-06 0)
(3.58182e-06 -1.97842e-06 0)
(3.83868e-06 -1.88236e-06 0)
(4.09127e-06 -1.79122e-06 0)
(4.33921e-06 -1.70443e-06 0)
(4.58241e-06 -1.62133e-06 0)
(4.82081e-06 -1.54115e-06 0)
(5.05448e-06 -1.46309e-06 0)
(5.28354e-06 -1.38632e-06 0)