/*--------------------------------*- C++ -*----------------------------------*\
| =========                 |                                                 |
| \\      /  F ield         | foam-extend: Open Source CFD                    |
|  \\    /   O peration     | Version:     4.1                                |
|   \\  /    A nd           | Web:         http://www.foam-extend.org         |
|    \\/     M anipulation  |                                                 |
\*---------------------------------------------------------------------------*/
FoamFile
{
    version     2.0;
    format      ascii;
    class       volScalarField;
    location    "7";
    object      sigmaHyd;
}
// * * * * * * * * * * * * * * * * * * * * * * * * * * * * * * * * * * * * * //

dimensions      [1 -1 -2 0 0 0 0];

internalField   nonuniform List<scalar> 
1000
(
-382458
-366118
-361832
-354089
-350209
-345796
-342974
-340040
-338652
-334588
-491476
-454258
-437178
-417498
-404904
-392800
-383822
-375425
-369476
-361005
-596395
-539100
-509726
-478584
-457651
-438169
-423364
-409649
-399504
-386567
-694658
-618541
-577626
-535731
-506939
-480545
-460182
-441633
-427350
-411051
-783880
-690665
-639268
-587614
-551692
-519034
-493628
-470710
-452651
-433467
-861869
-753700
-693127
-632940
-590773
-552645
-522807
-496118
-474687
-453179
-926702
-806088
-737878
-670595
-623233
-580560
-547026
-517214
-492935
-469589
-976776
-846559
-772454
-699696
-648321
-602141
-565743
-533530
-507015
-482311
-1.01082e+06
-874052
-795928
-719438
-665326
-616758
-578404
-544559
-516506
-490900
-1.02808e+06
-888238
-808243
-729943
-674492
-624732
-585390
-550712
-521864
-495791
379425
249237
163737
87928.6
30856.9
-18374.4
-58261.1
-93023.6
-122059
-148615
361711
234669
151003
77066.1
21377.1
-26610.4
-65462.6
-99347.1
-127543
-153605
327223
206888
127344
57220.9
4329.43
-41215.2
-78061.2
-110266
-136864
-162002
276429
165948
92451.5
27924
-20864.5
-62821.9
-96729.1
-126462
-150742
-174491
210749
113005
47338.5
-9951.61
-53436.9
-90757.3
-120886
-147417
-168761
-190640
131856
49374.8
-6913.3
-55518.3
-92641.9
-124391
-149995
-172662
-190539
-210047
41778.9
-23317.5
-68931.2
-107635
-137523
-162913
-183404
-201617
-215671
-232241
-57214.1
-103242
-137149
-164975
-186908
-205298
-220157
-233440
-243296
-256393
-162663
-188437
-209933
-226209
-239743
-250693
-259712
-267585
-273365
-281727
-271959
-276762
-285399
-289689
-294470
-297689
-300510
-302877
-303999
-307834
-170183
-190749
-208869
-225694
-241191
-255709
-269429
-282517
-295139
-307417
-319476
-331440
-343382
-355478
-367685
-380396
-393160
-407182
-420478
-437272
-174292
-193817
-211342
-227527
-242594
-256696
-270101
-282897
-295275
-307331
-319191
-330968
-342733
-354656
-366693
-379228
-391812
-405638
-418732
-435281
-180985
-198650
-215166
-230233
-244588
-257982
-270861
-283168
-295140
-306821
-318345
-329802
-341263
-352885
-364620
-376842
-389103
-402573
-415305
-431400
-191091
-205871
-220959
-234324
-247628
-259959
-272056
-283633
-295003
-306131
-317160
-328151
-339168
-350353
-361650
-373417
-385210
-398158
-410363
-425788
-204400
-215296
-228668
-239816
-251796
-262768
-273863
-284511
-295104
-305520
-315906
-326290
-336726
-347336
-358058
-369224
-380399
-392657
-404165
-418701
-220706
-226691
-238068
-246495
-256830
-266157
-276007
-285538
-295190
-304765
-314395
-324076
-333842
-343792
-353852
-364323
-374779
-386225
-396907
-410374
-239845
-240171
-249383
-254862
-263301
-270849
-279264
-287547
-296100
-304696
-313423
-322260
-331215
-340364
-349621
-359254
-368845
-379316
-389016
-401206
-260858
-254937
-261328
-263715
-269767
-275382
-282121
-289052
-296425
-304016
-311840
-319853
-328023
-336400
-344877
-353681
-362406
-371878
-380558
-391385
-284108
-272929
-275752
-275612
-279017
-282764
-287678
-293108
-299088
-305438
-312109
-319047
-326190
-333560
-341037
-348800
-356460
-364727
-372207
-381459
-303580
-290866
-287568
-284894
-284900
-286431
-289399
-293387
-298200
-303620
-309507
-315753
-322249
-328977
-335789
-342818
-349688
-356996
-363506
-371419
-322236
-312309
-304202
-299290
-296913
-296377
-297450
-299710
-302947
-306925
-311483
-316491
-321819
-327416
-333123
-339017
-344745
-350760
-355969
-362169
-330007
-320357
-312734
-307710
-304859
-303662
-303903
-305247
-307510
-310484
-314021
-317990
-322264
-326776
-331372
-336089
-340607
-345276
-349158
-353717
-337858
-327699
-320098
-314435
-310900
-308882
-308280
-308755
-310150
-312257
-314932
-318039
-321450
-325083
-328787
-332563
-336125
-339721
-342563
-345786
-342215
-332219
-325173
-319463
-315740
-313306
-312174
-312021
-312728
-314102
-316014
-318332
-320933
-323725
-326567
-329432
-332068
-334636
-336496
-338480
-344227
-334731
-328303
-322685
-318916
-316218
-314720
-314101
-314281
-315077
-316374
-318046
-319974
-322065
-324184
-326283
-328144
-329855
-330905
-331862
-344374
-335555
-329841
-324538
-320923
-318170
-316491
-315572
-315371
-315718
-316516
-317644
-318995
-320474
-321959
-323386
-324569
-325536
-325897
-325991
-342989
-335010
-330021
-325145
-321783
-319098
-317359
-316268
-315810
-315828
-316242
-316940
-317825
-318805
-319770
-320644
-321276
-321640
-321457
-320873
-340447
-333378
-329122
-324766
-321747
-319244
-317557
-316406
-315798
-315592
-315721
-316086
-316599
-317175
-317715
-318140
-318325
-318211
-317607
-316509
-336985
-330867
-327334
-323553
-320931
-318688
-317135
-316013
-315345
-315005
-314941
-315063
-315297
-315561
-315773
-315851
-315698
-315225
-314322
-312868
-332830
-327675
-324850
-321682
-319501
-317581
-316230
-315211
-314559
-314163
-313983
-313940
-313973
-314009
-313977
-313799
-313400
-312678
-311583
-309909
-328150
-323951
-321823
-319289
-317578
-316027
-314928
-314071
-313496
-313109
-312879
-312740
-312643
-312523
-312324
-311972
-311414
-310539
-309346
-307576
-323077
-319831
-318386
-316501
-315281
-314135
-313329
-312681
-312234
-311907
-311682
-311504
-311335
-311122
-310821
-310366
-309722
-308778
-307567
-305805
-317739
-315419
-314662
-313435
-312725
-312009
-311526
-311122
-310839
-310614
-310436
-310264
-310071
-309815
-309467
-308968
-308300
-307355
-306194
-304524
-312193
-310830
-310742
-310182
-309993
-309727
-309592
-309459
-309369
-309276
-309177
-309045
-308864
-308606
-308253
-307758
-307115
-306229
-305169
-303661
-306592
-306062
-306747
-306878
-307214
-307415
-307636
-307788
-307906
-307960
-307958
-307885
-307739
-307505
-307176
-306720
-306141
-305356
-304440
-303145
-300859
-301419
-302726
-303526
-304411
-305088
-305686
-306135
-306473
-306686
-306790
-306788
-306690
-306495
-306211
-305819
-305332
-304683
-303943
-302901
-295376
-297080
-298863
-300528
-301820
-302985
-303927
-304663
-305204
-305561
-305759
-305817
-305759
-305601
-305364
-305045
-304665
-304173
-303633
-302871
-289674
-292219
-294940
-297222
-299240
-300898
-302247
-303279
-304030
-304525
-304807
-304913
-304885
-304757
-304566
-304326
-304065
-303750
-303431
-302968
-284728
-288233
-291803
-294760
-297326
-299426
-301102
-302366
-303262
-303835
-304142
-304241
-304193
-304052
-303873
-303689
-303540
-303402
-303323
-303156
-278930
-283814
-288191
-291985
-295228
-297865
-299938
-301470
-302524
-303166
-303476
-303538
-303438
-303259
-303078
-302949
-302924
-302990
-303161
-303271
-473862
-469732
-462595
-451894
-437890
-420794
-401010
-379242
-356298
-334423
-453933
-450912
-445867
-438356
-428620
-416792
-403075
-387459
-370052
-347197
-436035
-433516
-429354
-423087
-414879
-404819
-393224
-380288
-367014
-350708
-419747
-417850
-414821
-410255
-404266
-396852
-388148
-378025
-367014
-353462
-404693
-403175
-400798
-397189
-392436
-386554
-379690
-371914
-363395
-353761
-390772
-389642
-387951
-385361
-381907
-377579
-372362
-366429
-359429
-352476
-377670
-376821
-375610
-373736
-371204
-368039
-364136
-359859
-354370
-349766
-365311
-364725
-363967
-362767
-361082
-358951
-356142
-353172
-348860
-346008
-353491
-353119
-352722
-352063
-351068
-349798
-347937
-346105
-342891
-341423
-342123
-341944
-341879
-341712
-341336
-340820
-339780
-338886
-336638
-336234
-331076
-331068
-331292
-331556
-331727
-331875
-331580
-331506
-330154
-330595
-320250
-320400
-320894
-321557
-322234
-322985
-323372
-324019
-323497
-324630
-309572
-309869
-310617
-311651
-312804
-314118
-315152
-316460
-316725
-318449
-298893
-299333
-300328
-301724
-303342
-305196
-306860
-308796
-309829
-312095
-288247
-288827
-290067
-291820
-293898
-296286
-298576
-301134
-302919
-305712
-277306
-278028
-279521
-281641
-284196
-287135
-290076
-293273
-295845
-299183
-266446
-267314
-269067
-271564
-274608
-278118
-281725
-285605
-288958
-293016
-254661
-255688
-257727
-260641
-264232
-268376
-272735
-277354
-281616
-286223
-243615
-244805
-247137
-250476
-254622
-259418
-264539
-269937
-275098
-280387
-229773
-231163
-233862
-237739
-242592
-248230
-254342
-260772
-267115
-273360
)
;

boundaryField
{
    left
    {
        type            symmetryPlane;
        value           nonuniform List<scalar> 
30
(
-473862
-453933
-436035
-419747
-404693
-390772
-377670
-365311
-353491
-342123
-331076
-320250
-309572
-298893
-288247
-277306
-266446
-254661
-243615
-229773
-1.02808e+06
-888238
-808243
-729943
-674492
-624732
-585390
-550712
-521864
-495791
)
;
    }
    right
    {
        type            zeroGradient;
    }
    down
    {
        type            symmetryPlane;
        value           nonuniform List<scalar> 
30
(
379425
249237
163737
87928.6
30856.9
-18374.4
-58261.1
-93023.6
-122059
-148615
-170183
-190749
-208869
-225694
-241191
-255709
-269429
-282517
-295139
-307417
-319476
-331440
-343382
-355478
-367685
-380396
-393160
-407182
-420478
-437272
)
;
    }
    up
    {
        type            zeroGradient;
    }
    hole
    {
        type            zeroGradient;
    }
    frontAndBack
    {
        type            empty;
    }
}


// ************************************************************************* //
