/*--------------------------------*- C++ -*----------------------------------*\
| =========                 |                                                 |
| \\      /  F ield         | foam-extend: Open Source CFD                    |
|  \\    /   O peration     | Version:     4.1                                |
|   \\  /    A nd           | Web:         http://www.foam-extend.org         |
|    \\/     M anipulation  |                                                 |
\*---------------------------------------------------------------------------*/
FoamFile
{
    version     2.0;
    format      ascii;
    class       vectorField;
    location    "7";
    object      solidsCellD_iteration6;
}
// * * * * * * * * * * * * * * * * * * * * * * * * * * * * * * * * * * * * * //


1000
(
(3.58319e-06 -1.4919e-06 0)
(3.3845e-06 -1.39033e-06 0)
(3.25816e-06 -1.32672e-06 0)
(3.18632e-06 -1.29801e-06 0)
(3.15204e-06 -1.28929e-06 0)
(3.14526e-06 -1.29603e-06 0)
(3.15867e-06 -1.31286e-06 0)
(3.18726e-06 -1.33731e-06 0)
(3.2272e-06 -1.36685e-06 0)
(3.27504e-06 -1.40036e-06 0)
(3.24049e-06 -1.6296e-06 0)
(3.0288e-06 -1.55969e-06 0)
(2.89416e-06 -1.51618e-06 0)
(2.81618e-06 -1.50118e-06 0)
(2.77705e-06 -1.5016e-06 0)
(2.76574e-06 -1.51484e-06 0)
(2.77475e-06 -1.53635e-06 0)
(2.79869e-06 -1.56425e-06 0)
(2.83362e-06 -1.59659e-06 0)
(2.87597e-06 -1.63175e-06 0)
(2.88417e-06 -1.7601e-06 0)
(2.66783e-06 -1.72557e-06 0)
(2.53028e-06 -1.70446e-06 0)
(2.44952e-06 -1.70452e-06 0)
(2.40766e-06 -1.7148e-06 0)
(2.3932e-06 -1.73486e-06 0)
(2.39862e-06 -1.76113e-06 0)
(2.41857e-06 -1.79234e-06 0)
(2.44903e-06 -1.82726e-06 0)
(2.48667e-06 -1.86404e-06 0)
(2.51701e-06 -1.88108e-06 0)
(2.30509e-06 -1.88364e-06 0)
(2.17037e-06 -1.88599e-06 0)
(2.09046e-06 -1.90172e-06 0)
(2.04809e-06 -1.92222e-06 0)
(2.0319e-06 -1.94925e-06 0)
(2.03459e-06 -1.98024e-06 0)
(2.05098e-06 -2.01474e-06 0)
(2.07731e-06 -2.05214e-06 0)
(2.11026e-06 -2.09069e-06 0)
(2.14147e-06 -1.99017e-06 0)
(1.94304e-06 -2.02946e-06 0)
(1.81687e-06 -2.05509e-06 0)
(1.74153e-06 -2.08627e-06 0)
(1.70097e-06 -2.11678e-06 0)
(1.68441e-06 -2.1506e-06 0)
(1.68516e-06 -2.18615e-06 0)
(1.69834e-06 -2.22386e-06 0)
(1.72067e-06 -2.26362e-06 0)
(1.74887e-06 -2.30405e-06 0)
(1.75944e-06 -2.08513e-06 0)
(1.58323e-06 -2.15877e-06 0)
(1.47124e-06 -2.20616e-06 0)
(1.404e-06 -2.2518e-06 0)
(1.36739e-06 -2.29165e-06 0)
(1.35173e-06 -2.33179e-06 0)
(1.35129e-06 -2.37155e-06 0)
(1.36165e-06 -2.41224e-06 0)
(1.37999e-06 -2.45416e-06 0)
(1.40326e-06 -2.49646e-06 0)
(1.37275e-06 -2.16383e-06 0)
(1.22662e-06 -2.26757e-06 0)
(1.13376e-06 -2.33406e-06 0)
(1.07778e-06 -2.39234e-06 0)
(1.04704e-06 -2.44034e-06 0)
(1.03354e-06 -2.48601e-06 0)
(1.03253e-06 -2.52943e-06 0)
(1.0403e-06 -2.57276e-06 0)
(1.05461e-06 -2.61658e-06 0)
(1.07282e-06 -2.6606e-06 0)
(9.82755e-07 -2.22453e-06 0)
(8.73282e-07 -2.35245e-06 0)
(8.03742e-07 -2.43425e-06 0)
(7.61753e-07 -2.50264e-06 0)
(7.38562e-07 -2.5572e-06 0)
(7.28171e-07 -2.60731e-06 0)
(7.27064e-07 -2.6537e-06 0)
(7.32445e-07 -2.69915e-06 0)
(7.42694e-07 -2.74449e-06 0)
(7.55742e-07 -2.78993e-06 0)
(5.90586e-07 -2.26578e-06 0)
(5.22824e-07 -2.41059e-06 0)
(4.79786e-07 -2.5031e-06 0)
(4.53702e-07 -2.57862e-06 0)
(4.39221e-07 -2.63777e-06 0)
(4.32671e-07 -2.69096e-06 0)
(4.31872e-07 -2.73943e-06 0)
(4.35036e-07 -2.78642e-06 0)
(4.41171e-07 -2.83286e-06 0)
(4.49005e-07 -2.87934e-06 0)
(1.97245e-07 -2.28657e-06 0)
(1.74269e-07 -2.4401e-06 0)
(1.59634e-07 -2.53814e-06 0)
(1.5078e-07 -2.61732e-06 0)
(1.45873e-07 -2.67883e-06 0)
(1.436e-07 -2.73362e-06 0)
(1.43255e-07 -2.78315e-06 0)
(1.44286e-07 -2.83091e-06 0)
(1.46334e-07 -2.8779e-06 0)
(1.48935e-07 -2.92493e-06 0)
(5.58564e-06 -6.80979e-08 0)
(5.63571e-06 -4.91714e-08 0)
(5.66676e-06 -3.72068e-08 0)
(5.70059e-06 -3.02079e-08 0)
(5.7377e-06 -2.63618e-08 0)
(5.78313e-06 -2.46406e-08 0)
(5.83677e-06 -2.43347e-08 0)
(5.89915e-06 -2.49518e-08 0)
(5.97012e-06 -2.62756e-08 0)
(6.04873e-06 -2.78471e-08 0)
(5.54444e-06 -2.04286e-07 0)
(5.58622e-06 -1.48618e-07 0)
(5.61209e-06 -1.13497e-07 0)
(5.64243e-06 -9.30435e-08 0)
(5.67724e-06 -8.18617e-08 0)
(5.721e-06 -7.68677e-08 0)
(5.77349e-06 -7.6095e-08 0)
(5.83492e-06 -7.80966e-08 0)
(5.90506e-06 -8.20715e-08 0)
(5.98283e-06 -8.67501e-08 0)
(5.46206e-06 -3.41624e-07 0)
(5.48807e-06 -2.52284e-07 0)
(5.50397e-06 -1.95971e-07 0)
(5.5277e-06 -1.63202e-07 0)
(5.55814e-06 -1.45412e-07 0)
(5.59884e-06 -1.37658e-07 0)
(5.64904e-06 -1.36651e-07 0)
(5.70861e-06 -1.40099e-07 0)
(5.77718e-06 -1.46711e-07 0)
(5.85329e-06 -1.54534e-07 0)
(5.34001e-06 -4.80694e-07 0)
(5.34361e-06 -3.62534e-07 0)
(5.34528e-06 -2.8814e-07 0)
(5.35962e-06 -2.45048e-07 0)
(5.3838e-06 -2.21781e-07 0)
(5.42008e-06 -2.1189e-07 0)
(5.46704e-06 -2.10965e-07 0)
(5.52404e-06 -2.16038e-07 0)
(5.59039e-06 -2.25318e-07 0)
(5.66421e-06 -2.36307e-07 0)
(5.18013e-06 -6.21881e-07 0)
(5.15606e-06 -4.81379e-07 0)
(5.14014e-06 -3.92951e-07 0)
(5.14281e-06 -3.42108e-07 0)
(5.15927e-06 -3.14917e-07 0)
(5.19008e-06 -3.03811e-07 0)
(5.23301e-06 -3.03478e-07 0)
(5.28675e-06 -3.10407e-07 0)
(5.35034e-06 -3.22346e-07 0)
(5.42139e-06 -3.36472e-07 0)
(4.98486e-06 -7.65248e-07 0)
(4.92942e-06 -6.10111e-07 0)
(4.89364e-06 -5.12462e-07 0)
(4.88312e-06 -4.56908e-07 0)
(4.89082e-06 -4.27671e-07 0)
(4.91539e-06 -4.16466e-07 0)
(4.95374e-06 -4.17285e-07 0)
(5.00377e-06 -4.26292e-07 0)
(5.06418e-06 -4.40872e-07 0)
(5.13214e-06 -4.58106e-07 0)
(4.75702e-06 -9.10523e-07 0)
(4.66844e-06 -7.49262e-07 0)
(4.6117e-06 -6.47754e-07 0)
(4.58724e-06 -5.90866e-07 0)
(4.58563e-06 -5.61627e-07 0)
(4.60355e-06 -5.51534e-07 0)
(4.63698e-06 -5.54143e-07 0)
(4.683e-06 -5.65498e-07 0)
(4.73993e-06 -5.82771e-07 0)
(4.80466e-06 -6.03068e-07 0)
(4.49964e-06 -1.05703e-06 0)
(4.37821e-06 -8.98492e-07 0)
(4.30067e-06 -7.98707e-07 0)
(4.26231e-06 -7.43981e-07 0)
(4.25139e-06 -7.16866e-07 0)
(4.26258e-06 -7.09163e-07 0)
(4.29092e-06 -7.14241e-07 0)
(4.33281e-06 -7.28276e-07 0)
(4.38605e-06 -7.48287e-07 0)
(4.44749e-06 -7.71634e-07 0)
(4.21602e-06 -1.20374e-06 0)
(4.06402e-06 -1.05658e-06 0)
(3.9672e-06 -9.64015e-07 0)
(3.91582e-06 -9.14902e-07 0)
(3.89609e-06 -8.92035e-07 0)
(3.90075e-06 -8.87988e-07 0)
(3.924e-06 -8.96277e-07 0)
(3.96169e-06 -9.13291e-07 0)
(4.01097e-06 -9.36225e-07 0)
(4.06904e-06 -9.62425e-07 0)
(3.90946e-06 -1.34927e-06 0)
(3.73115e-06 -1.22145e-06 0)
(3.61768e-06 -1.14119e-06 0)
(3.55491e-06 -1.10092e-06 0)
(3.52726e-06 -1.08429e-06 0)
(3.52587e-06 -1.08512e-06 0)
(3.54425e-06 -1.09736e-06 0)
(3.57777e-06 -1.11793e-06 0)
(3.62318e-06 -1.14404e-06 0)
(3.67745e-06 -1.17423e-06 0)
(6.13509e-06 -2.93834e-08 0)
(6.2292e-06 -2.9762e-08 0)
(6.32923e-06 -3.01862e-08 0)
(6.43482e-06 -3.049e-08 0)
(6.54533e-06 -3.06447e-08 0)
(6.66036e-06 -3.06443e-08 0)
(6.77941e-06 -3.04582e-08 0)
(6.90199e-06 -3.01052e-08 0)
(7.02773e-06 -2.95758e-08 0)
(7.15627e-06 -2.88369e-08 0)
(7.28723e-06 -2.78583e-08 0)
(7.42019e-06 -2.66303e-08 0)
(7.55482e-06 -2.5145e-08 0)
(7.69072e-06 -2.33875e-08 0)
(7.82755e-06 -2.13239e-08 0)
(7.96481e-06 -1.89074e-08 0)
(8.10224e-06 -1.60813e-08 0)
(8.23897e-06 -1.27898e-08 0)
(8.37517e-06 -8.95639e-09 0)
(8.50871e-06 -4.56013e-09 0)
(6.07211e-06 -9.10659e-08 0)
(6.17147e-06 -9.18134e-08 0)
(6.2762e-06 -9.27173e-08 0)
(6.38589e-06 -9.33223e-08 0)
(6.50009e-06 -9.35148e-08 0)
(6.61835e-06 -9.3306e-08 0)
(6.74031e-06 -9.26121e-08 0)
(6.86554e-06 -9.14352e-08 0)
(6.99371e-06 -8.96994e-08 0)
(7.12446e-06 -8.73416e-08 0)
(7.25744e-06 -8.43172e-08 0)
(7.3923e-06 -8.06001e-08 0)
(7.52871e-06 -7.61328e-08 0)
(7.66629e-06 -7.08357e-08 0)
(7.8047e-06 -6.46019e-08 0)
(7.94345e-06 -5.73157e-08 0)
(8.08231e-06 -4.8825e-08 0)
(8.22042e-06 -3.89715e-08 0)
(8.35799e-06 -2.75178e-08 0)
(8.49289e-06 -1.43718e-08 0)
(5.94824e-06 -1.60753e-07 0)
(6.05793e-06 -1.60701e-07 0)
(6.17193e-06 -1.61012e-07 0)
(6.28962e-06 -1.6111e-07 0)
(6.41097e-06 -1.60695e-07 0)
(6.53563e-06 -1.59781e-07 0)
(6.66337e-06 -1.58161e-07 0)
(6.7938e-06 -1.55802e-07 0)
(6.92669e-06 -1.52562e-07 0)
(7.06175e-06 -1.48364e-07 0)
(7.19873e-06 -1.43141e-07 0)
(7.33732e-06 -1.36823e-07 0)
(7.47721e-06 -1.2928e-07 0)
(7.61805e-06 -1.20361e-07 0)
(7.75954e-06 -1.09896e-07 0)
(7.90126e-06 -9.77016e-08 0)
(8.04299e-06 -8.35276e-08 0)
(8.18388e-06 -6.71215e-08 0)
(8.32417e-06 -4.80871e-08 0)
(8.46177e-06 -2.62446e-08 0)
(5.76727e-06 -2.42999e-07 0)
(5.89173e-06 -2.40296e-07 0)
(6.01909e-06 -2.38339e-07 0)
(6.14843e-06 -2.36675e-07 0)
(6.28028e-06 -2.34612e-07 0)
(6.41423e-06 -2.32168e-07 0)
(6.55036e-06 -2.28939e-07 0)
(6.68839e-06 -2.24852e-07 0)
(6.82825e-06 -2.19683e-07 0)
(6.96972e-06 -2.13327e-07 0)
(7.1126e-06 -2.05655e-07 0)
(7.25665e-06 -1.96522e-07 0)
(7.40163e-06 -1.85727e-07 0)
(7.54724e-06 -1.73068e-07 0)
(7.69327e-06 -1.58318e-07 0)
(7.83934e-06 -1.41197e-07 0)
(7.98524e-06 -1.21351e-07 0)
(8.1302e-06 -9.84199e-08 0)
(8.27445e-06 -7.18357e-08 0)
(8.416e-06 -4.13553e-08 0)
(5.53454e-06 -3.41819e-07 0)
(5.67759e-06 -3.34121e-07 0)
(5.82198e-06 -3.27779e-07 0)
(5.9661e-06 -3.22735e-07 0)
(6.11131e-06 -3.1765e-07 0)
(6.25717e-06 -3.12555e-07 0)
(6.40414e-06 -3.0681e-07 0)
(6.55197e-06 -3.00284e-07 0)
(6.7008e-06 -2.92626e-07 0)
(6.85049e-06 -2.83652e-07 0)
(7.00096e-06 -2.73155e-07 0)
(7.15207e-06 -2.60912e-07 0)
(7.30365e-06 -2.46653e-07 0)
(7.45549e-06 -2.30109e-07 0)
(7.60743e-06 -2.10978e-07 0)
(7.75909e-06 -1.88881e-07 0)
(7.9104e-06 -1.63356e-07 0)
(8.06055e-06 -1.33937e-07 0)
(8.20996e-06 -9.98726e-08 0)
(8.35662e-06 -6.08481e-08 0)
(5.25671e-06 -4.60095e-07 0)
(5.42116e-06 -4.44699e-07 0)
(5.58544e-06 -4.31455e-07 0)
(5.74698e-06 -4.21042e-07 0)
(5.90812e-06 -4.11304e-07 0)
(6.06821e-06 -4.02238e-07 0)
(6.22811e-06 -3.92917e-07 0)
(6.38769e-06 -3.8306e-07 0)
(6.54727e-06 -3.72204e-07 0)
(6.70683e-06 -3.60061e-07 0)
(6.86645e-06 -3.46321e-07 0)
(7.02606e-06 -3.3066e-07 0)
(7.18558e-06 -3.12719e-07 0)
(7.34488e-06 -2.92149e-07 0)
(7.5039e-06 -2.68542e-07 0)
(7.66228e-06 -2.41432e-07 0)
(7.82008e-06 -2.10247e-07 0)
(7.97651e-06 -1.74413e-07 0)
(8.1321e-06 -1.32994e-07 0)
(8.28492e-06 -8.55622e-08 0)
(4.94145e-06 -5.99676e-07 0)
(5.12922e-06 -5.73781e-07 0)
(5.31553e-06 -5.5111e-07 0)
(5.49651e-06 -5.33212e-07 0)
(5.67544e-06 -5.17106e-07 0)
(5.85161e-06 -5.02599e-07 0)
(6.02611e-06 -4.88527e-07 0)
(6.19903e-06 -4.74377e-07 0)
(6.37087e-06 -4.59555e-07 0)
(6.54174e-06 -4.43624e-07 0)
(6.71182e-06 -4.26144e-07 0)
(6.88115e-06 -4.0667e-07 0)
(7.04977e-06 -3.84743e-07 0)
(7.21762e-06 -3.59926e-07 0)
(7.38472e-06 -3.31708e-07 0)
(7.55083e-06 -2.99528e-07 0)
(7.71607e-06 -2.62703e-07 0)
(7.87974e-06 -2.20526e-07 0)
(8.04238e-06 -1.71874e-07 0)
(8.20225e-06 -1.16203e-07 0)
(4.5965e-06 -7.60925e-07 0)
(4.80846e-06 -7.2151e-07 0)
(5.01793e-06 -6.86926e-07 0)
(5.21982e-06 -6.59177e-07 0)
(5.41796e-06 -6.34854e-07 0)
(5.61169e-06 -6.13302e-07 0)
(5.80226e-06 -5.93208e-07 0)
(5.98994e-06 -5.73749e-07 0)
(6.17532e-06 -5.54172e-07 0)
(6.35868e-06 -5.33836e-07 0)
(6.54032e-06 -5.12144e-07 0)
(6.72038e-06 -4.88513e-07 0)
(6.89902e-06 -4.62377e-07 0)
(7.07632e-06 -4.33192e-07 0)
(7.25237e-06 -4.00332e-07 0)
(7.42704e-06 -3.63131e-07 0)
(7.60048e-06 -3.20766e-07 0)
(7.77212e-06 -2.72396e-07 0)
(7.94256e-06 -2.16706e-07 0)
(8.11023e-06 -1.53037e-07 0)
(4.23009e-06 -9.43596e-07 0)
(4.46656e-06 -8.88001e-07 0)
(4.69942e-06 -8.39847e-07 0)
(4.92304e-06 -8.00197e-07 0)
(5.14112e-06 -7.66078e-07 0)
(5.3533e-06 -7.36046e-07 0)
(5.56081e-06 -7.08691e-07 0)
(5.76414e-06 -6.82859e-07 0)
(5.96393e-06 -6.57607e-07 0)
(6.16063e-06 -6.32088e-07 0)
(6.35464e-06 -6.05542e-07 0)
(6.54624e-06 -5.77249e-07 0)
(6.73568e-06 -5.4653e-07 0)
(6.92319e-06 -5.12716e-07 0)
(7.10888e-06 -4.75052e-07 0)
(7.29275e-06 -4.32755e-07 0)
(7.47503e-06 -3.84856e-07 0)
(7.65524e-06 -3.30374e-07 0)
(7.83407e-06 -2.67828e-07 0)
(8.01018e-06 -1.96458e-07 0)
(3.84916e-06 -1.14474e-06 0)
(4.11067e-06 -1.06911e-06 0)
(4.3662e-06 -1.00574e-06 0)
(4.61223e-06 -9.52224e-07 0)
(4.85076e-06 -9.066e-07 0)
(5.08218e-06 -8.66703e-07 0)
(5.30737e-06 -8.3096e-07 0)
(5.52706e-06 -7.9792e-07 0)
(5.74194e-06 -7.66377e-07 0)
(5.95259e-06 -7.35252e-07 0)
(6.15953e-06 -7.03587e-07 0)
(6.36316e-06 -6.70497e-07 0)
(6.56387e-06 -6.35155e-07 0)
(6.76197e-06 -5.96752e-07 0)
(6.95765e-06 -5.544e-07 0)
(7.15104e-06 -5.07192e-07 0)
(7.34242e-06 -4.54017e-07 0)
(7.53151e-06 -3.93753e-07 0)
(7.71904e-06 -3.24759e-07 0)
(7.90399e-06 -2.46137e-07 0)
(3.56454e-06 -1.33913e-06 0)
(3.84389e-06 -1.24648e-06 0)
(4.11353e-06 -1.17144e-06 0)
(4.37362e-06 -1.10673e-06 0)
(4.62513e-06 -1.0509e-06 0)
(4.86881e-06 -1.00172e-06 0)
(5.10554e-06 -9.57522e-07 0)
(5.33601e-06 -9.1681e-07 0)
(5.56096e-06 -8.78268e-07 0)
(5.78095e-06 -8.40716e-07 0)
(5.99656e-06 -8.03099e-07 0)
(6.20822e-06 -7.64439e-07 0)
(6.41638e-06 -7.23811e-07 0)
(6.6214e-06 -6.80311e-07 0)
(6.82351e-06 -6.32969e-07 0)
(7.02296e-06 -5.80796e-07 0)
(7.22006e-06 -5.22622e-07 0)
(7.41474e-06 -4.57263e-07 0)
(7.60773e-06 -3.83043e-07 0)
(7.79835e-06 -2.99e-07 0)
(3.40253e-06 -1.49779e-06 0)
(3.68365e-06 -1.40133e-06 0)
(3.95566e-06 -1.3195e-06 0)
(4.21947e-06 -1.24771e-06 0)
(4.47521e-06 -1.18459e-06 0)
(4.72341e-06 -1.12824e-06 0)
(4.96469e-06 -1.07707e-06 0)
(5.19963e-06 -1.02967e-06 0)
(5.42881e-06 -9.8475e-07 0)
(5.65278e-06 -9.41137e-07 0)
(5.87205e-06 -8.97774e-07 0)
(6.08705e-06 -8.53665e-07 0)
(6.29824e-06 -8.07866e-07 0)
(6.50597e-06 -7.59443e-07 0)
(6.7105e-06 -7.07418e-07 0)
(6.91217e-06 -6.5079e-07 0)
(7.11127e-06 -5.88411e-07 0)
(7.30792e-06 -5.19126e-07 0)
(7.50282e-06 -4.41334e-07 0)
(7.69557e-06 -3.54083e-07 0)
(3.26473e-06 -1.64965e-06 0)
(3.54294e-06 -1.55116e-06 0)
(3.81447e-06 -1.4651e-06 0)
(4.0789e-06 -1.38797e-06 0)
(4.33629e-06 -1.31885e-06 0)
(4.58672e-06 -1.25621e-06 0)
(4.83061e-06 -1.19869e-06 0)
(5.06833e-06 -1.14501e-06 0)
(5.30034e-06 -1.09397e-06 0)
(5.52709e-06 -1.04446e-06 0)
(5.74903e-06 -9.95452e-07 0)
(5.96655e-06 -9.45955e-07 0)
(6.18008e-06 -8.9503e-07 0)
(6.38997e-06 -8.41741e-07 0)
(6.59648e-06 -7.85121e-07 0)
(6.80002e-06 -7.24184e-07 0)
(7.00088e-06 -6.57826e-07 0)
(7.19931e-06 -5.84948e-07 0)
(7.39596e-06 -5.04036e-07 0)
(7.59071e-06 -4.14175e-07 0)
(3.14347e-06 -1.7958e-06 0)
(3.41756e-06 -1.69637e-06 0)
(3.68671e-06 -1.60722e-06 0)
(3.94988e-06 -1.52581e-06 0)
(4.20704e-06 -1.4516e-06 0)
(4.45797e-06 -1.38343e-06 0)
(4.70293e-06 -1.32017e-06 0)
(4.94207e-06 -1.26071e-06 0)
(5.17573e-06 -1.20395e-06 0)
(5.40425e-06 -1.14887e-06 0)
(5.628e-06 -1.09448e-06 0)
(5.84731e-06 -1.03983e-06 0)
(6.06259e-06 -9.8401e-07 0)
(6.27416e-06 -9.26093e-07 0)
(6.48228e-06 -8.65141e-07 0)
(6.68739e-06 -8.00202e-07 0)
(6.88978e-06 -7.30237e-07 0)
(7.0898e-06 -6.54208e-07 0)
(7.28804e-06 -5.70703e-07 0)
(7.48466e-06 -4.78905e-07 0)
(3.03664e-06 -1.9358e-06 0)
(3.30562e-06 -1.83622e-06 0)
(3.57107e-06 -1.7451e-06 0)
(3.83157e-06 -1.66051e-06 0)
(4.08707e-06 -1.58221e-06 0)
(4.33714e-06 -1.50937e-06 0)
(4.58187e-06 -1.44109e-06 0)
(4.82125e-06 -1.37643e-06 0)
(5.05551e-06 -1.31443e-06 0)
(5.2849e-06 -1.25417e-06 0)
(5.50968e-06 -1.19473e-06 0)
(5.73012e-06 -1.13521e-06 0)
(5.94659e-06 -1.07475e-06 0)
(6.15937e-06 -1.01246e-06 0)
(6.36874e-06 -9.47441e-07 0)
(6.57513e-06 -8.78794e-07 0)
(6.77882e-06 -8.05548e-07 0)
(6.98023e-06 -7.26742e-07 0)
(7.17991e-06 -6.41092e-07 0)
(7.37822e-06 -5.47952e-07 0)
(2.94163e-06 -2.06979e-06 0)
(3.205e-06 -1.97067e-06 0)
(3.46598e-06 -1.87834e-06 0)
(3.72285e-06 -1.7914e-06 0)
(3.97567e-06 -1.70984e-06 0)
(4.22382e-06 -1.63309e-06 0)
(4.46729e-06 -1.56046e-06 0)
(4.70596e-06 -1.49121e-06 0)
(4.93995e-06 -1.42449e-06 0)
(5.16941e-06 -1.35951e-06 0)
(5.39452e-06 -1.29543e-06 0)
(5.61549e-06 -1.23141e-06 0)
(5.83265e-06 -1.16665e-06 0)
(6.04623e-06 -1.10031e-06 0)
(6.2565e-06 -1.03156e-06 0)
(6.46387e-06 -9.5954e-07 0)
(6.66863e-06 -8.83371e-07 0)
(6.87123e-06 -8.02176e-07 0)
(7.0722e-06 -7.14844e-07 0)
(7.27202e-06 -6.20887e-07 0)
(2.85648e-06 -2.19801e-06 0)
(3.11395e-06 -2.09974e-06 0)
(3.36994e-06 -2.00682e-06 0)
(3.62258e-06 -1.91822e-06 0)
(3.87198e-06 -1.83414e-06 0)
(4.11744e-06 -1.75418e-06 0)
(4.35888e-06 -1.67789e-06 0)
(4.59608e-06 -1.60464e-06 0)
(4.82908e-06 -1.53375e-06 0)
(5.05795e-06 -1.46454e-06 0)
(5.28281e-06 -1.39624e-06 0)
(5.50379e-06 -1.32812e-06 0)
(5.72118e-06 -1.25943e-06 0)
(5.93517e-06 -1.18939e-06 0)
(6.14602e-06 -1.11722e-06 0)
(6.35412e-06 -1.04217e-06 0)
(6.55972e-06 -9.63421e-07 0)
(6.76332e-06 -8.80206e-07 0)
(6.96541e-06 -7.91615e-07 0)
(7.16654e-06 -6.97217e-07 0)
(2.77938e-06 -2.32076e-06 0)
(3.03091e-06 -2.22361e-06 0)
(3.28161e-06 -2.13054e-06 0)
(3.52964e-06 -2.04084e-06 0)
(3.77514e-06 -1.95484e-06 0)
(4.01735e-06 -1.8723e-06 0)
(4.25618e-06 -1.79293e-06 0)
(4.49133e-06 -1.71625e-06 0)
(4.72277e-06 -1.64173e-06 0)
(4.95051e-06 -1.56877e-06 0)
(5.17461e-06 -1.49672e-06 0)
(5.39516e-06 -1.42491e-06 0)
(5.61241e-06 -1.35267e-06 0)
(5.82648e-06 -1.2793e-06 0)
(6.03763e-06 -1.20407e-06 0)
(6.24619e-06 -1.12633e-06 0)
(6.45244e-06 -1.04535e-06 0)
(6.65686e-06 -9.6048e-07 0)
(6.8599e-06 -8.70986e-07 0)
(7.06215e-06 -7.76426e-07 0)
(2.70875e-06 -2.4384e-06 0)
(2.95438e-06 -2.34254e-06 0)
(3.19969e-06 -2.24964e-06 0)
(3.44292e-06 -2.15928e-06 0)
(3.6842e-06 -2.07185e-06 0)
(3.92281e-06 -1.98726e-06 0)
(4.15862e-06 -1.90534e-06 0)
(4.39128e-06 -1.82577e-06 0)
(4.62073e-06 -1.74812e-06 0)
(4.84694e-06 -1.67189e-06 0)
(5.0699e-06 -1.59655e-06 0)
(5.28966e-06 -1.52148e-06 0)
(5.50643e-06 -1.44609e-06 0)
(5.7203e-06 -1.36975e-06 0)
(5.9315e-06 -1.29183e-06 0)
(6.14033e-06 -1.21174e-06 0)
(6.34705e-06 -1.12887e-06 0)
(6.55213e-06 -1.04269e-06 0)
(6.75594e-06 -9.52549e-07 0)
(6.95913e-06 -8.58101e-07 0)
(2.64319e-06 -2.55133e-06 0)
(2.88303e-06 -2.45684e-06 0)
(3.12297e-06 -2.36434e-06 0)
(3.36133e-06 -2.27363e-06 0)
(3.59825e-06 -2.18516e-06 0)
(3.83305e-06 -2.09895e-06 0)
(4.06557e-06 -2.01498e-06 0)
(4.29546e-06 -1.933e-06 0)
(4.52262e-06 -1.85269e-06 0)
(4.74698e-06 -1.77368e-06 0)
(4.9685e-06 -1.69547e-06 0)
(5.1872e-06 -1.61757e-06 0)
(5.40325e-06 -1.53943e-06 0)
(5.61669e-06 -1.4605e-06 0)
(5.82773e-06 -1.38024e-06 0)
(6.03666e-06 -1.29815e-06 0)
(6.24368e-06 -1.21373e-06 0)
(6.44926e-06 -1.1265e-06 0)
(6.65369e-06 -1.03592e-06 0)
(6.85764e-06 -9.41847e-07 0)
(2.58144e-06 -2.65994e-06 0)
(2.81569e-06 -2.56683e-06 0)
(3.05034e-06 -2.47486e-06 0)
(3.28385e-06 -2.38403e-06 0)
(3.51638e-06 -2.29485e-06 0)
(3.74728e-06 -2.20742e-06 0)
(3.97637e-06 -2.1218e-06 0)
(4.20331e-06 -2.03787e-06 0)
(4.42799e-06 -1.95536e-06 0)
(4.6503e-06 -1.87399e-06 0)
(4.87018e-06 -1.79335e-06 0)
(5.08762e-06 -1.71301e-06 0)
(5.30274e-06 -1.6325e-06 0)
(5.51558e-06 -1.55135e-06 0)
(5.72631e-06 -1.4691e-06 0)
(5.9352e-06 -1.38534e-06 0)
(6.14239e-06 -1.29962e-06 0)
(6.34831e-06 -1.21156e-06 0)
(6.55322e-06 -1.12076e-06 0)
(6.75777e-06 -1.0272e-06 0)
(2.52242e-06 -2.7646e-06 0)
(2.75128e-06 -2.67282e-06 0)
(2.98078e-06 -2.58146e-06 0)
(3.20955e-06 -2.4907e-06 0)
(3.43773e-06 -2.40107e-06 0)
(3.66472e-06 -2.31275e-06 0)
(3.89034e-06 -2.22586e-06 0)
(4.11426e-06 -2.14035e-06 0)
(4.33635e-06 -2.05605e-06 0)
(4.55651e-06 -1.97271e-06 0)
(4.77462e-06 -1.89003e-06 0)
(4.99067e-06 -1.80762e-06 0)
(5.20475e-06 -1.72511e-06 0)
(5.41687e-06 -1.6421e-06 0)
(5.62718e-06 -1.5582e-06 0)
(5.8359e-06 -1.47306e-06 0)
(6.04313e-06 -1.3863e-06 0)
(6.24927e-06 -1.29761e-06 0)
(6.45455e-06 -1.2068e-06 0)
(6.65956e-06 -1.11378e-06 0)
(2.46513e-06 -2.86564e-06 0)
(2.68882e-06 -2.77509e-06 0)
(2.91336e-06 -2.6844e-06 0)
(3.13755e-06 -2.59385e-06 0)
(3.36148e-06 -2.50399e-06 0)
(3.58462e-06 -2.41504e-06 0)
(3.80681e-06 -2.3272e-06 0)
(4.02772e-06 -2.24045e-06 0)
(4.24721e-06 -2.15472e-06 0)
(4.46517e-06 -2.0698e-06 0)
(4.68147e-06 -1.98545e-06 0)
(4.89606e-06 -1.90136e-06 0)
(5.10904e-06 -1.81721e-06 0)
(5.32037e-06 -1.73268e-06 0)
(5.53018e-06 -1.64743e-06 0)
(5.73863e-06 -1.56116e-06 0)
(5.9458e-06 -1.47357e-06 0)
(6.15207e-06 -1.38445e-06 0)
(6.35759e-06 -1.29373e-06 0)
(6.56293e-06 -1.20131e-06 0)
(2.40864e-06 -2.96334e-06 0)
(2.6274e-06 -2.87398e-06 0)
(2.8472e-06 -2.78396e-06 0)
(3.06698e-06 -2.69372e-06 0)
(3.28681e-06 -2.60379e-06 0)
(3.50625e-06 -2.51445e-06 0)
(3.72512e-06 -2.42594e-06 0)
(3.9431e-06 -2.33828e-06 0)
(4.16005e-06 -2.25146e-06 0)
(4.37583e-06 -2.1653e-06 0)
(4.59032e-06 -2.07962e-06 0)
(4.80346e-06 -1.99418e-06 0)
(5.01532e-06 -1.90872e-06 0)
(5.22584e-06 -1.82296e-06 0)
(5.43509e-06 -1.73662e-06 0)
(5.64321e-06 -1.64944e-06 0)
(5.85025e-06 -1.56122e-06 0)
(6.05658e-06 -1.47185e-06 0)
(6.26226e-06 -1.38124e-06 0)
(6.46782e-06 -1.28945e-06 0)
(2.35203e-06 -3.05802e-06 0)
(2.56611e-06 -2.96974e-06 0)
(2.78139e-06 -2.88042e-06 0)
(2.99697e-06 -2.79055e-06 0)
(3.21293e-06 -2.70072e-06 0)
(3.42886e-06 -2.6112e-06 0)
(3.64459e-06 -2.52227e-06 0)
(3.85979e-06 -2.43397e-06 0)
(4.07431e-06 -2.34632e-06 0)
(4.28802e-06 -2.25922e-06 0)
(4.50079e-06 -2.17255e-06 0)
(4.71254e-06 -2.08609e-06 0)
(4.92332e-06 -1.99962e-06 0)
(5.13302e-06 -1.9129e-06 0)
(5.34168e-06 -1.8257e-06 0)
(5.54943e-06 -1.73783e-06 0)
(5.75633e-06 -1.64916e-06 0)
(5.96264e-06 -1.55964e-06 0)
(6.16843e-06 -1.46918e-06 0)
(6.3741e-06 -1.37796e-06 0)
(2.2944e-06 -3.14992e-06 0)
(2.50403e-06 -3.06272e-06 0)
(2.715e-06 -2.974e-06 0)
(2.92669e-06 -2.88458e-06 0)
(3.13906e-06 -2.79499e-06 0)
(3.35176e-06 -2.70548e-06 0)
(3.56458e-06 -2.61633e-06 0)
(3.7772e-06 -2.52765e-06 0)
(3.98948e-06 -2.43946e-06 0)
(4.20129e-06 -2.35172e-06 0)
(4.41247e-06 -2.26432e-06 0)
(4.62294e-06 -2.17711e-06 0)
(4.83268e-06 -2.08988e-06 0)
(5.04158e-06 -2.00244e-06 0)
(5.24967e-06 -1.9146e-06 0)
(5.45708e-06 -1.82624e-06 0)
(5.66381e-06 -1.73728e-06 0)
(5.87006e-06 -1.64761e-06 0)
(6.07586e-06 -1.55735e-06 0)
(6.28158e-06 -1.46664e-06 0)
(2.23484e-06 -3.23936e-06 0)
(2.4401e-06 -3.15292e-06 0)
(2.64699e-06 -3.065e-06 0)
(2.85528e-06 -2.97622e-06 0)
(3.0644e-06 -2.88695e-06 0)
(3.27421e-06 -2.79759e-06 0)
(3.48441e-06 -2.70841e-06 0)
(3.69475e-06 -2.61955e-06 0)
(3.90505e-06 -2.53106e-06 0)
(4.1152e-06 -2.44292e-06 0)
(4.32499e-06 -2.35506e-06 0)
(4.5343e-06 -2.26733e-06 0)
(4.74309e-06 -2.17955e-06 0)
(4.95126e-06 -2.0916e-06 0)
(5.15885e-06 -2.00334e-06 0)
(5.36597e-06 -1.91464e-06 0)
(5.57249e-06 -1.82543e-06 0)
(5.7786e-06 -1.73567e-06 0)
(5.98436e-06 -1.64561e-06 0)
(6.19018e-06 -1.55533e-06 0)
(2.17191e-06 -3.32624e-06 0)
(2.37348e-06 -3.24071e-06 0)
(2.57702e-06 -3.15376e-06 0)
(2.78202e-06 -3.0656e-06 0)
(2.9883e-06 -2.97681e-06 0)
(3.19556e-06 -2.88775e-06 0)
(3.40353e-06 -2.79871e-06 0)
(3.61195e-06 -2.70988e-06 0)
(3.82063e-06 -2.62131e-06 0)
(4.02939e-06 -2.53299e-06 0)
(4.23799e-06 -2.44485e-06 0)
(4.44627e-06 -2.3568e-06 0)
(4.65427e-06 -2.26871e-06 0)
(4.86189e-06 -2.18044e-06 0)
(5.06905e-06 -2.09187e-06 0)
(5.27576e-06 -2.00292e-06 0)
(5.48202e-06 -1.91353e-06 0)
(5.68812e-06 -1.82378e-06 0)
(5.89388e-06 -1.73386e-06 0)
(6.09952e-06 -1.64391e-06 0)
(2.10479e-06 -3.41151e-06 0)
(2.30298e-06 -3.32703e-06 0)
(2.50349e-06 -3.2408e-06 0)
(2.70581e-06 -3.15332e-06 0)
(2.90974e-06 -3.06508e-06 0)
(3.11498e-06 -2.97646e-06 0)
(3.32127e-06 -2.88773e-06 0)
(3.52829e-06 -2.79907e-06 0)
(3.73574e-06 -2.71054e-06 0)
(3.94341e-06 -2.62217e-06 0)
(4.1511e-06 -2.53393e-06 0)
(4.35871e-06 -2.44572e-06 0)
(4.56614e-06 -2.35743e-06 0)
(4.77317e-06 -2.26897e-06 0)
(4.97987e-06 -2.1802e-06 0)
(5.18635e-06 -2.09107e-06 0)
(5.39243e-06 -2.00158e-06 0)
(5.59833e-06 -1.91182e-06 0)
(5.80406e-06 -1.82195e-06 0)
(6.00967e-06 -1.73224e-06 0)
(2.03261e-06 -3.49444e-06 0)
(2.22783e-06 -3.41115e-06 0)
(2.42579e-06 -3.32598e-06 0)
(2.626e-06 -3.23938e-06 0)
(2.82824e-06 -3.1519e-06 0)
(3.03215e-06 -3.06388e-06 0)
(3.23735e-06 -2.9756e-06 0)
(3.4434e-06 -2.88725e-06 0)
(3.65007e-06 -2.79892e-06 0)
(3.85716e-06 -2.71063e-06 0)
(4.06436e-06 -2.62241e-06 0)
(4.27142e-06 -2.53417e-06 0)
(4.47837e-06 -2.44576e-06 0)
(4.68506e-06 -2.35717e-06 0)
(4.89139e-06 -2.26831e-06 0)
(5.09752e-06 -2.17907e-06 0)
(5.30341e-06 -2.08956e-06 0)
(5.50913e-06 -1.99972e-06 0)
(5.71481e-06 -1.90985e-06 0)
(5.92031e-06 -1.82019e-06 0)
(1.48512e-07 -2.97297e-06 0)
(4.47491e-07 -2.92958e-06 0)
(7.52313e-07 -2.84437e-06 0)
(1.06625e-06 -2.72096e-06 0)
(1.39195e-06 -2.56392e-06 0)
(1.73109e-06 -2.37925e-06 0)
(2.08427e-06 -2.17361e-06 0)
(2.4509e-06 -1.95404e-06 0)
(2.82986e-06 -1.72758e-06 0)
(3.21794e-06 -1.49978e-06 0)
(1.44566e-07 -3.023e-06 0)
(4.35342e-07 -2.98341e-06 0)
(7.30945e-07 -2.90553e-06 0)
(1.0341e-06 -2.79253e-06 0)
(1.34704e-06 -2.64823e-06 0)
(1.67116e-06 -2.47774e-06 0)
(2.00697e-06 -2.28674e-06 0)
(2.35386e-06 -2.0813e-06 0)
(2.71017e-06 -1.86788e-06 0)
(3.0734e-06 -1.65132e-06 0)
(1.41022e-07 -3.0744e-06 0)
(4.24418e-07 -3.03824e-06 0)
(7.117e-07 -2.96699e-06 0)
(1.00506e-06 -2.86347e-06 0)
(1.30634e-06 -2.73097e-06 0)
(1.61668e-06 -2.57385e-06 0)
(1.9366e-06 -2.39704e-06 0)
(2.26593e-06 -2.2056e-06 0)
(2.60338e-06 -2.00523e-06 0)
(2.9474e-06 -1.79914e-06 0)
(1.37827e-07 -3.12713e-06 0)
(4.14617e-07 -3.09387e-06 0)
(6.94623e-07 -3.02826e-06 0)
(9.79598e-07 -2.9328e-06 0)
(1.27108e-06 -2.81039e-06 0)
(1.56997e-06 -2.66481e-06 0)
(1.87662e-06 -2.50049e-06 0)
(2.19088e-06 -2.32185e-06 0)
(2.51158e-06 -2.13427e-06 0)
(2.83748e-06 -1.94021e-06 0)
(1.34883e-07 -3.18114e-06 0)
(4.05526e-07 -3.15048e-06 0)
(6.78854e-07 -3.0899e-06 0)
(9.56225e-07 -3.00169e-06 0)
(1.23894e-06 -2.88841e-06 0)
(1.5277e-06 -2.75341e-06 0)
(1.82283e-06 -2.60064e-06 0)
(2.12421e-06 -2.43387e-06 0)
(2.43094e-06 -2.25802e-06 0)
(2.74134e-06 -2.07527e-06 0)
(1.32134e-07 -3.23634e-06 0)
(3.97079e-07 -3.20792e-06 0)
(6.64275e-07 -3.15175e-06 0)
(9.3481e-07 -3.06985e-06 0)
(1.20975e-06 -2.96459e-06 0)
(1.48968e-06 -2.83894e-06 0)
(1.77478e-06 -2.69651e-06 0)
(2.06486e-06 -2.54067e-06 0)
(2.3594e-06 -2.37584e-06 0)
(2.65632e-06 -2.20421e-06 0)
(1.29476e-07 -3.29267e-06 0)
(3.89018e-07 -3.26623e-06 0)
(6.50429e-07 -3.21401e-06 0)
(9.1464e-07 -3.13774e-06 0)
(1.18251e-06 -3.03967e-06 0)
(1.45453e-06 -2.92247e-06 0)
(1.73085e-06 -2.7894e-06 0)
(2.01111e-06 -2.64349e-06 0)
(2.29514e-06 -2.4887e-06 0)
(2.58049e-06 -2.32739e-06 0)
(1.26922e-07 -3.34997e-06 0)
(3.81259e-07 -3.32528e-06 0)
(6.37165e-07 -3.27656e-06 0)
(8.95467e-07 -3.20529e-06 0)
(1.15687e-06 -3.11362e-06 0)
(1.42171e-06 -3.00398e-06 0)
(1.69018e-06 -2.87934e-06 0)
(1.96178e-06 -2.7425e-06 0)
(2.23659e-06 -2.59693e-06 0)
(2.51198e-06 -2.44519e-06 0)
(1.24442e-07 -3.40816e-06 0)
(3.73665e-07 -3.38503e-06 0)
(6.24253e-07 -3.33943e-06 0)
(8.76927e-07 -3.27267e-06 0)
(1.13227e-06 -3.18677e-06 0)
(1.39055e-06 -3.08393e-06 0)
(1.65193e-06 -2.96689e-06 0)
(1.91582e-06 -2.83826e-06 0)
(2.18247e-06 -2.70109e-06 0)
(2.44925e-06 -2.55809e-06 0)
(1.21965e-07 -3.4671e-06 0)
(3.66137e-07 -3.44536e-06 0)
(6.11538e-07 -3.40256e-06 0)
(8.58793e-07 -3.33985e-06 0)
(1.10837e-06 -3.25914e-06 0)
(1.36054e-06 -3.16242e-06 0)
(1.6154e-06 -3.05225e-06 0)
(1.87233e-06 -2.93108e-06 0)
(2.13169e-06 -2.8016e-06 0)
(2.39093e-06 -2.66656e-06 0)
(1.19445e-07 -3.52667e-06 0)
(3.58595e-07 -3.50616e-06 0)
(5.98854e-07 -3.4659e-06 0)
(8.40801e-07 -3.40686e-06 0)
(1.08483e-06 -3.33083e-06 0)
(1.33119e-06 -3.23967e-06 0)
(1.57998e-06 -3.13572e-06 0)
(1.83055e-06 -3.02131e-06 0)
(2.08329e-06 -2.89882e-06 0)
(2.33585e-06 -2.771e-06 0)
(1.1689e-07 -3.58669e-06 0)
(3.50984e-07 -3.5673e-06 0)
(5.86071e-07 -3.52935e-06 0)
(8.22732e-07 -3.47365e-06 0)
(1.06133e-06 -3.40187e-06 0)
(1.30209e-06 -3.31574e-06 0)
(1.54511e-06 -3.21744e-06 0)
(1.78978e-06 -3.10918e-06 0)
(2.03644e-06 -2.99306e-06 0)
(2.283e-06 -2.87178e-06 0)
(1.14293e-07 -3.64702e-06 0)
(3.43205e-07 -3.62869e-06 0)
(5.73025e-07 -3.59283e-06 0)
(8.04353e-07 -3.54017e-06 0)
(1.03756e-06 -3.47226e-06 0)
(1.27282e-06 -3.39073e-06 0)
(1.51029e-06 -3.29759e-06 0)
(1.74937e-06 -3.1949e-06 0)
(1.99036e-06 -3.08458e-06 0)
(2.23146e-06 -2.96924e-06 0)
(1.11611e-07 -3.70748e-06 0)
(3.35131e-07 -3.69014e-06 0)
(5.59537e-07 -3.65619e-06 0)
(7.85422e-07 -3.60631e-06 0)
(1.01319e-06 -3.54194e-06 0)
(1.243e-06 -3.46463e-06 0)
(1.475e-06 -3.37621e-06 0)
(1.7087e-06 -3.27861e-06 0)
(1.94434e-06 -3.17361e-06 0)
(2.18036e-06 -3.06369e-06 0)
(1.08786e-07 -3.76795e-06 0)
(3.2664e-07 -3.75151e-06 0)
(5.45418e-07 -3.71931e-06 0)
(7.65686e-07 -3.67201e-06 0)
(9.87881e-07 -3.61092e-06 0)
(1.21216e-06 -3.5375e-06 0)
(1.43872e-06 -3.4534e-06 0)
(1.66714e-06 -3.36047e-06 0)
(1.89762e-06 -3.26039e-06 0)
(2.12881e-06 -3.15539e-06 0)
(1.05778e-07 -3.82811e-06 0)
(3.17639e-07 -3.81251e-06 0)
(5.30496e-07 -3.78195e-06 0)
(7.4488e-07 -3.73706e-06 0)
(9.6127e-07 -3.67901e-06 0)
(1.17987e-06 -3.60917e-06 0)
(1.40091e-06 -3.52909e-06 0)
(1.62408e-06 -3.44051e-06 0)
(1.84947e-06 -3.34496e-06 0)
(2.076e-06 -3.24449e-06 0)
(1.0256e-07 -3.88787e-06 0)
(3.08023e-07 -3.87309e-06 0)
(5.14554e-07 -3.84406e-06 0)
(7.22687e-07 -3.80141e-06 0)
(9.32955e-07 -3.74623e-06 0)
(1.14563e-06 -3.67977e-06 0)
(1.36097e-06 -3.60346e-06 0)
(1.57875e-06 -3.51897e-06 0)
(1.79904e-06 -3.42761e-06 0)
(2.02091e-06 -3.33138e-06 0)
(9.90965e-08 -3.94662e-06 0)
(2.9766e-07 -3.93261e-06 0)
(4.97361e-07 -3.90504e-06 0)
(6.98783e-07 -3.86454e-06 0)
(9.0252e-07 -3.81207e-06 0)
(1.10892e-06 -3.74882e-06 0)
(1.31827e-06 -3.67612e-06 0)
(1.53041e-06 -3.59549e-06 0)
(1.7454e-06 -3.50813e-06 0)
(1.96257e-06 -3.41587e-06 0)
(9.53166e-08 -4.00464e-06 0)
(2.86332e-07 -3.99139e-06 0)
(4.78563e-07 -3.96523e-06 0)
(6.72682e-07 -3.9268e-06 0)
(8.69334e-07 -3.87696e-06 0)
(1.06896e-06 -3.81682e-06 0)
(1.27188e-06 -3.74761e-06 0)
(1.47804e-06 -3.67066e-06 0)
(1.68747e-06 -3.58716e-06 0)
(1.89978e-06 -3.4987e-06 0)
(9.11798e-08 -4.06028e-06 0)
(2.7394e-07 -4.04774e-06 0)
(4.58001e-07 -4.023e-06 0)
(6.44152e-07 -3.98661e-06 0)
(8.33114e-07 -3.93939e-06 0)
(1.02539e-06 -3.88235e-06 0)
(1.22133e-06 -3.81659e-06 0)
(1.42103e-06 -3.74333e-06 0)
(1.62459e-06 -3.6637e-06 0)
(1.83182e-06 -3.57907e-06 0)
)


// ************************************************************************* //
