# Time Dx Dy Dz magD
1 0 -3.413698875554929e-07 3.806866356989437e-23 3.413698875554929e-07
