/*--------------------------------*- C++ -*----------------------------------*\
| =========                 |                                                 |
| \\      /  F ield         | foam-extend: Open Source CFD                    |
|  \\    /   O peration     | Version:     4.1                                |
|   \\  /    A nd           | Web:         http://www.foam-extend.org         |
|    \\/     M anipulation  |                                                 |
\*---------------------------------------------------------------------------*/
FoamFile
{
    version     2.0;
    format      ascii;
    class       volScalarField;
    location    "5";
    object      epsilonEq;
}
// * * * * * * * * * * * * * * * * * * * * * * * * * * * * * * * * * * * * * //

dimensions      [0 0 0 0 0 0 0];

internalField   nonuniform List<scalar> 
1000
(
2.30428e-06
2.62741e-06
2.88596e-06
3.08178e-06
3.17277e-06
3.20832e-06
3.20296e-06
3.173e-06
3.13271e-06
3.07624e-06
2.88438e-06
2.93109e-06
3.04408e-06
3.16577e-06
3.21691e-06
3.23066e-06
3.21202e-06
3.17597e-06
3.12598e-06
3.07484e-06
3.44968e-06
3.23259e-06
3.18513e-06
3.2179e-06
3.21952e-06
3.20542e-06
3.17027e-06
3.12512e-06
3.06811e-06
3.0151e-06
3.98282e-06
3.52122e-06
3.30883e-06
3.24285e-06
3.18733e-06
3.14066e-06
3.08649e-06
3.03143e-06
2.96836e-06
2.91485e-06
4.46885e-06
3.78721e-06
3.41467e-06
3.24566e-06
3.12791e-06
3.04488e-06
2.96985e-06
2.90399e-06
2.83623e-06
2.7821e-06
4.8948e-06
4.0222e-06
3.50266e-06
3.23283e-06
3.05123e-06
2.92973e-06
2.83249e-06
2.75504e-06
2.683e-06
2.62778e-06
5.24949e-06
4.219e-06
3.57276e-06
3.21106e-06
2.96846e-06
2.80885e-06
2.68921e-06
2.59975e-06
2.52368e-06
2.4666e-06
5.52376e-06
4.37187e-06
3.62527e-06
3.18739e-06
2.89187e-06
2.6979e-06
2.55753e-06
2.45655e-06
2.37672e-06
2.31724e-06
5.71053e-06
4.47626e-06
3.66011e-06
3.16761e-06
2.83271e-06
2.61227e-06
2.45551e-06
2.34512e-06
2.2622e-06
2.20039e-06
5.80416e-06
4.52805e-06
3.67587e-06
3.15456e-06
2.79839e-06
2.56333e-06
2.39733e-06
2.28154e-06
2.19684e-06
2.13366e-06
2.11676e-06
1.4023e-06
1.00421e-06
8.38809e-07
7.79214e-07
7.90665e-07
8.33356e-07
8.94996e-07
9.61491e-07
1.029e-06
2.02789e-06
1.39715e-06
1.09561e-06
1.00836e-06
9.92077e-07
1.01645e-06
1.05436e-06
1.10263e-06
1.15109e-06
1.20486e-06
1.84939e-06
1.38994e-06
1.25155e-06
1.26885e-06
1.30225e-06
1.34206e-06
1.37653e-06
1.41149e-06
1.43979e-06
1.47766e-06
1.59244e-06
1.39511e-06
1.44796e-06
1.56339e-06
1.63933e-06
1.69298e-06
1.72569e-06
1.75029e-06
1.76172e-06
1.7857e-06
1.27501e-06
1.4292e-06
1.6646e-06
1.86009e-06
1.96925e-06
2.03375e-06
2.06505e-06
2.08116e-06
2.07887e-06
2.09078e-06
9.37938e-07
1.50771e-06
1.8876e-06
2.14138e-06
2.27406e-06
2.34569e-06
2.37505e-06
2.38353e-06
2.36995e-06
2.37085e-06
7.01155e-07
1.64051e-06
2.10857e-06
2.39746e-06
2.54356e-06
2.61816e-06
2.64449e-06
2.64577e-06
2.62292e-06
2.61346e-06
7.96936e-07
1.82805e-06
2.3218e-06
2.6219e-06
2.77082e-06
2.84357e-06
2.86543e-06
2.85944e-06
2.82969e-06
2.80985e-06
1.20192e-06
2.06313e-06
2.52394e-06
2.81162e-06
2.95246e-06
3.01851e-06
3.03406e-06
3.02129e-06
2.98649e-06
2.95852e-06
1.7317e-06
2.33391e-06
2.71239e-06
2.96452e-06
3.08574e-06
3.13886e-06
3.145e-06
3.12299e-06
3.08629e-06
3.04251e-06
1.09814e-06
1.15571e-06
1.2101e-06
1.25959e-06
1.30315e-06
1.34141e-06
1.37391e-06
1.4009e-06
1.42229e-06
1.4381e-06
1.44822e-06
1.45253e-06
1.45068e-06
1.44254e-06
1.42723e-06
1.40502e-06
1.37357e-06
1.33531e-06
1.28305e-06
1.22884e-06
1.24893e-06
1.2783e-06
1.31186e-06
1.34389e-06
1.37339e-06
1.40017e-06
1.4233e-06
1.44258e-06
1.45761e-06
1.46815e-06
1.47386e-06
1.47449e-06
1.46957e-06
1.45885e-06
1.4414e-06
1.41743e-06
1.3846e-06
1.34531e-06
1.29247e-06
1.23804e-06
1.48918e-06
1.47981e-06
1.48269e-06
1.48815e-06
1.49533e-06
1.50341e-06
1.5109e-06
1.51708e-06
1.52115e-06
1.52247e-06
1.52046e-06
1.51459e-06
1.5042e-06
1.48892e-06
1.46769e-06
1.44064e-06
1.40543e-06
1.36438e-06
1.31067e-06
1.25601e-06
1.76742e-06
1.72112e-06
1.69238e-06
1.6695e-06
1.65171e-06
1.63809e-06
1.62687e-06
1.61694e-06
1.60724e-06
1.59676e-06
1.58469e-06
1.57023e-06
1.55257e-06
1.53115e-06
1.50483e-06
1.47361e-06
1.43523e-06
1.39187e-06
1.33712e-06
1.28237e-06
2.04799e-06
1.97163e-06
1.91469e-06
1.86594e-06
1.82429e-06
1.78915e-06
1.75884e-06
1.73198e-06
1.7075e-06
1.6841e-06
1.66086e-06
1.63675e-06
1.61083e-06
1.58239e-06
1.55023e-06
1.51426e-06
1.47229e-06
1.42642e-06
1.37075e-06
1.31625e-06
2.30899e-06
2.21129e-06
2.13162e-06
2.06151e-06
1.99947e-06
1.94504e-06
1.89721e-06
1.85427e-06
1.81542e-06
1.77915e-06
1.74455e-06
1.71047e-06
1.6759e-06
1.64004e-06
1.60169e-06
1.56068e-06
1.515e-06
1.46664e-06
1.41039e-06
1.35674e-06
2.53781e-06
2.42758e-06
2.33156e-06
2.24458e-06
2.16632e-06
2.09537e-06
2.03229e-06
1.97491e-06
1.92292e-06
1.87472e-06
1.82943e-06
1.78589e-06
1.74305e-06
1.70008e-06
1.65581e-06
1.61005e-06
1.56099e-06
1.51057e-06
1.45436e-06
1.40229e-06
2.7255e-06
2.61135e-06
2.50808e-06
2.40959e-06
2.32067e-06
2.23728e-06
2.16212e-06
2.09272e-06
2.02923e-06
1.97025e-06
1.91502e-06
1.86248e-06
1.81166e-06
1.76177e-06
1.71173e-06
1.66137e-06
1.60917e-06
1.55702e-06
1.50141e-06
1.45174e-06
2.87145e-06
2.75578e-06
2.65386e-06
2.5476e-06
2.4515e-06
2.35897e-06
2.2743e-06
2.19553e-06
2.12288e-06
2.0553e-06
1.99206e-06
1.93223e-06
1.8749e-06
1.81937e-06
1.76469e-06
1.71076e-06
1.65642e-06
1.60352e-06
1.54951e-06
1.50305e-06
2.97058e-06
2.86114e-06
2.77088e-06
2.66739e-06
2.56924e-06
2.47267e-06
2.38119e-06
2.29485e-06
2.21404e-06
2.1384e-06
2.06743e-06
2.00046e-06
1.93672e-06
1.87562e-06
1.81638e-06
1.75898e-06
1.70263e-06
1.64924e-06
1.59726e-06
1.55475e-06
3.009e-06
2.89772e-06
2.81181e-06
2.71672e-06
2.62219e-06
2.52887e-06
2.43861e-06
2.35213e-06
2.26995e-06
2.19209e-06
2.11836e-06
2.04841e-06
1.98177e-06
1.91809e-06
1.85689e-06
1.79837e-06
1.74216e-06
1.69018e-06
1.64181e-06
1.60406e-06
2.93251e-06
2.86633e-06
2.78914e-06
2.70719e-06
2.62206e-06
2.53652e-06
2.45216e-06
2.37004e-06
2.29087e-06
2.21495e-06
2.14238e-06
2.07309e-06
2.00687e-06
1.94364e-06
1.88324e-06
1.82607e-06
1.77217e-06
1.72353e-06
1.68029e-06
1.64871e-06
2.86962e-06
2.81508e-06
2.75329e-06
2.68298e-06
2.60822e-06
2.53106e-06
2.45351e-06
2.37675e-06
2.30171e-06
2.22892e-06
2.15871e-06
2.09123e-06
2.02655e-06
1.96482e-06
1.90613e-06
1.85111e-06
1.80015e-06
1.75524e-06
1.71717e-06
1.69125e-06
2.7982e-06
2.7564e-06
2.70615e-06
2.64602e-06
2.58087e-06
2.51191e-06
2.44151e-06
2.37072e-06
2.30069e-06
2.23203e-06
2.16528e-06
2.10077e-06
2.03878e-06
1.97966e-06
1.92374e-06
1.8718e-06
1.82453e-06
1.7839e-06
1.75118e-06
1.73076e-06
2.72098e-06
2.68953e-06
2.65002e-06
2.59972e-06
2.544e-06
2.48337e-06
2.4204e-06
2.35605e-06
2.29161e-06
2.22778e-06
2.16524e-06
2.10449e-06
2.04597e-06
1.99018e-06
1.93767e-06
1.88934e-06
1.84609e-06
1.80985e-06
1.78222e-06
1.76678e-06
2.64159e-06
2.61903e-06
2.58854e-06
2.54693e-06
2.49977e-06
2.44703e-06
2.39136e-06
2.33361e-06
2.2751e-06
2.2166e-06
2.15888e-06
2.10253e-06
2.04813e-06
1.99632e-06
1.94779e-06
1.90351e-06
1.86457e-06
1.83276e-06
1.80997e-06
1.79896e-06
2.56187e-06
2.54667e-06
2.52389e-06
2.49012e-06
2.45079e-06
2.40553e-06
2.35696e-06
2.30578e-06
2.25336e-06
2.20045e-06
2.14789e-06
2.09635e-06
2.04651e-06
1.99907e-06
1.95483e-06
1.91483e-06
1.88025e-06
1.85275e-06
1.83435e-06
1.82716e-06
2.48348e-06
2.47428e-06
2.45795e-06
2.43104e-06
2.3987e-06
2.36038e-06
2.31853e-06
2.27378e-06
2.22744e-06
2.18025e-06
2.13308e-06
2.08662e-06
2.04162e-06
1.99882e-06
1.95909e-06
1.92348e-06
1.89322e-06
1.86982e-06
1.85535e-06
1.85133e-06
2.40744e-06
2.403e-06
2.39203e-06
2.37113e-06
2.34504e-06
2.31311e-06
2.27761e-06
2.23906e-06
2.1987e-06
2.15724e-06
2.11553e-06
2.07428e-06
2.03425e-06
1.99622e-06
1.96107e-06
1.92982e-06
1.90372e-06
1.88412e-06
1.87306e-06
1.87157e-06
2.33431e-06
2.33361e-06
2.32708e-06
2.31139e-06
2.29088e-06
2.26481e-06
2.23525e-06
2.20262e-06
2.16807e-06
2.13225e-06
2.096e-06
2.05999e-06
2.02497e-06
1.99171e-06
1.96111e-06
1.93411e-06
1.91196e-06
1.89581e-06
1.88765e-06
1.88809e-06
2.26431e-06
2.26659e-06
2.26373e-06
2.25262e-06
2.23709e-06
2.21642e-06
2.1924e-06
2.1654e-06
2.13645e-06
2.10615e-06
2.07525e-06
2.0444e-06
2.01433e-06
1.98578e-06
1.9596e-06
1.93668e-06
1.91818e-06
1.90512e-06
1.89935e-06
1.90117e-06
2.19746e-06
2.20215e-06
2.20242e-06
2.19536e-06
2.18435e-06
2.16866e-06
2.14984e-06
2.12818e-06
2.10459e-06
2.0796e-06
2.0539e-06
2.02808e-06
2.00283e-06
1.97883e-06
1.95688e-06
1.93779e-06
1.92265e-06
1.9123e-06
1.90845e-06
1.91114e-06
2.13363e-06
2.14048e-06
2.14344e-06
2.14006e-06
2.13321e-06
2.12215e-06
2.10822e-06
2.09163e-06
2.07314e-06
2.05324e-06
2.03253e-06
2.01154e-06
1.99091e-06
1.97124e-06
1.95328e-06
1.93776e-06
1.92563e-06
1.91763e-06
1.91525e-06
1.9184e-06
2.07271e-06
2.08145e-06
2.08702e-06
2.08715e-06
2.08422e-06
2.07755e-06
2.06822e-06
2.05641e-06
2.04276e-06
2.02767e-06
2.01168e-06
1.99527e-06
1.97899e-06
1.96339e-06
1.94914e-06
1.93686e-06
1.92741e-06
1.92138e-06
1.92008e-06
1.92332e-06
2.01446e-06
2.02556e-06
2.03343e-06
2.0369e-06
2.03783e-06
2.03537e-06
2.03042e-06
2.02312e-06
2.01402e-06
2.00344e-06
1.99187e-06
1.97971e-06
1.96745e-06
1.9556e-06
1.94471e-06
1.93534e-06
1.92823e-06
1.92384e-06
1.92328e-06
1.92632e-06
1.95924e-06
1.97183e-06
1.98286e-06
1.99031e-06
1.99488e-06
1.99646e-06
1.99563e-06
1.99255e-06
1.98764e-06
1.9812e-06
1.97364e-06
1.96533e-06
1.9567e-06
1.94819e-06
1.94029e-06
1.93347e-06
1.92835e-06
1.92529e-06
1.92518e-06
1.92779e-06
1.906e-06
1.92719e-06
1.93634e-06
1.94814e-06
1.95595e-06
1.96155e-06
1.96453e-06
1.96536e-06
1.96424e-06
1.9615e-06
1.95746e-06
1.9525e-06
1.947e-06
1.94136e-06
1.93602e-06
1.93138e-06
1.92791e-06
1.92592e-06
1.92604e-06
1.92807e-06
1.85733e-06
1.87704e-06
1.89548e-06
1.91012e-06
1.92225e-06
1.93159e-06
1.93833e-06
1.94265e-06
1.94484e-06
1.94518e-06
1.94403e-06
1.94176e-06
1.93875e-06
1.9354e-06
1.9321e-06
1.92919e-06
1.92706e-06
1.92592e-06
1.92616e-06
1.9276e-06
1.81247e-06
1.83737e-06
1.85942e-06
1.87845e-06
1.89477e-06
1.90785e-06
1.91799e-06
1.92531e-06
1.93013e-06
1.93279e-06
1.9337e-06
1.93326e-06
1.93192e-06
1.93011e-06
1.92824e-06
1.92662e-06
1.92558e-06
1.92519e-06
1.92566e-06
1.92663e-06
1.77545e-06
1.80565e-06
1.83292e-06
1.85651e-06
1.8766e-06
1.89294e-06
1.90575e-06
1.9152e-06
1.92168e-06
1.92559e-06
1.92743e-06
1.92773e-06
1.92701e-06
1.9258e-06
1.92456e-06
1.92365e-06
1.92339e-06
1.92375e-06
1.92476e-06
1.92575e-06
2.08829e-06
2.15042e-06
2.25929e-06
2.39933e-06
2.55164e-06
2.69893e-06
2.82735e-06
2.92715e-06
2.99504e-06
3.0211e-06
2.05038e-06
2.10492e-06
2.20145e-06
2.32777e-06
2.46848e-06
2.60889e-06
2.73657e-06
2.84004e-06
2.91556e-06
2.95134e-06
2.01966e-06
2.06738e-06
2.15217e-06
2.26415e-06
2.39055e-06
2.51899e-06
2.63994e-06
2.74352e-06
2.82922e-06
2.88509e-06
1.99424e-06
2.03579e-06
2.11006e-06
2.20917e-06
2.32262e-06
2.4396e-06
2.55191e-06
2.65021e-06
2.73427e-06
2.80163e-06
1.97153e-06
2.00762e-06
2.0724e-06
2.1596e-06
2.26068e-06
2.36659e-06
2.47049e-06
2.56457e-06
2.64587e-06
2.71714e-06
1.95096e-06
1.98228e-06
2.0387e-06
2.11524e-06
2.20476e-06
2.2997e-06
2.39393e-06
2.48177e-06
2.5582e-06
2.63059e-06
1.93119e-06
1.95836e-06
2.00749e-06
2.07461e-06
2.1538e-06
2.23884e-06
2.32402e-06
2.4055e-06
2.47614e-06
2.5458e-06
1.91165e-06
1.93523e-06
1.97799e-06
2.03677e-06
2.10654e-06
2.1823e-06
2.25866e-06
2.33341e-06
2.39832e-06
2.46389e-06
1.89161e-06
1.91211e-06
1.94938e-06
2.00091e-06
2.06241e-06
2.12984e-06
2.19811e-06
2.26613e-06
2.32531e-06
2.38574e-06
1.87056e-06
1.88842e-06
1.92094e-06
1.96614e-06
2.0203e-06
2.08021e-06
2.14112e-06
2.20266e-06
2.25648e-06
2.31159e-06
1.84795e-06
1.86355e-06
1.89203e-06
1.93177e-06
1.97958e-06
2.03284e-06
2.08719e-06
2.14264e-06
2.19145e-06
2.24133e-06
1.82329e-06
1.83697e-06
1.862e-06
1.89707e-06
1.9394e-06
1.98684e-06
2.03544e-06
2.08536e-06
2.12967e-06
2.17469e-06
1.79597e-06
1.80803e-06
1.83018e-06
1.86132e-06
1.89902e-06
1.94147e-06
1.98516e-06
2.03019e-06
2.07055e-06
2.11123e-06
1.76549e-06
1.77622e-06
1.796e-06
1.82389e-06
1.85778e-06
1.89607e-06
1.93568e-06
1.97659e-06
2.01365e-06
2.05065e-06
1.73091e-06
1.74057e-06
1.75849e-06
1.78381e-06
1.8147e-06
1.84971e-06
1.88614e-06
1.92379e-06
1.95831e-06
1.99236e-06
1.69192e-06
1.70078e-06
1.71731e-06
1.74074e-06
1.76944e-06
1.80208e-06
1.83628e-06
1.87164e-06
1.90456e-06
1.93673e-06
1.64653e-06
1.65487e-06
1.67054e-06
1.69285e-06
1.72029e-06
1.75162e-06
1.78468e-06
1.81902e-06
1.85131e-06
1.8833e-06
1.59558e-06
1.60368e-06
1.61905e-06
1.64098e-06
1.66811e-06
1.6992e-06
1.73233e-06
1.76668e-06
1.79972e-06
1.83169e-06
1.53368e-06
1.54193e-06
1.55776e-06
1.58041e-06
1.60862e-06
1.6411e-06
1.67606e-06
1.71242e-06
1.74813e-06
1.78247e-06
1.46722e-06
1.47602e-06
1.493e-06
1.5174e-06
1.54793e-06
1.58331e-06
1.62172e-06
1.66193e-06
1.70189e-06
1.74055e-06
)
;

boundaryField
{
    left
    {
        type            symmetryPlane;
        value           nonuniform List<scalar> 
30
(
2.08684e-06
2.04911e-06
2.01854e-06
1.99327e-06
1.97069e-06
1.95024e-06
1.93056e-06
1.91111e-06
1.89114e-06
1.87016e-06
1.84761e-06
1.823e-06
1.79572e-06
1.76529e-06
1.73074e-06
1.69179e-06
1.64644e-06
1.59553e-06
1.53366e-06
1.46721e-06
5.79167e-06
4.52396e-06
3.67494e-06
3.15452e-06
2.79827e-06
2.56284e-06
2.39645e-06
2.28037e-06
2.19549e-06
2.13216e-06
)
;
    }
    right
    {
        type            calculated;
        value           nonuniform List<scalar> 
30
(
1.22542e-06
1.23458e-06
1.25254e-06
1.27888e-06
1.31277e-06
1.35332e-06
1.39894e-06
1.44859e-06
1.5e-06
1.55216e-06
1.6016e-06
1.64673e-06
1.68964e-06
1.72951e-06
1.76586e-06
1.79831e-06
1.82675e-06
1.85111e-06
1.8715e-06
1.88813e-06
1.90128e-06
1.91131e-06
1.91858e-06
1.92351e-06
1.92649e-06
1.92793e-06
1.92818e-06
1.92769e-06
1.92668e-06
1.92587e-06
)
;
    }
    down
    {
        type            symmetryPlane;
        value           nonuniform List<scalar> 
30
(
2.1144e-06
1.40159e-06
9.97204e-07
8.23828e-07
7.5903e-07
7.69275e-07
8.13198e-07
8.77116e-07
9.46182e-07
1.01557e-06
1.08742e-06
1.14757e-06
1.20373e-06
1.25459e-06
1.29919e-06
1.33824e-06
1.37135e-06
1.39883e-06
1.4206e-06
1.43672e-06
1.44708e-06
1.4516e-06
1.44993e-06
1.44194e-06
1.42677e-06
1.40467e-06
1.37333e-06
1.33518e-06
1.28299e-06
1.22883e-06
)
;
    }
    up
    {
        type            calculated;
        value           nonuniform List<scalar> 
30
(
1.46512e-06
1.47391e-06
1.49091e-06
1.51531e-06
1.54587e-06
1.58132e-06
1.6198e-06
1.66013e-06
1.70017e-06
1.73907e-06
1.7741e-06
1.80455e-06
1.83198e-06
1.85573e-06
1.87597e-06
1.89243e-06
1.90535e-06
1.91488e-06
1.92142e-06
1.92537e-06
1.92725e-06
1.92757e-06
1.92687e-06
1.92567e-06
1.92446e-06
1.92357e-06
1.92334e-06
1.92371e-06
1.92474e-06
1.92566e-06
)
;
    }
    hole
    {
        type            calculated;
        value           nonuniform List<scalar> 
20
(
2.23367e-06
2.86649e-06
3.47548e-06
4.04591e-06
4.56385e-06
5.01662e-06
5.39305e-06
5.68381e-06
5.88163e-06
5.98109e-06
2.18762e-06
2.0874e-06
1.8866e-06
1.59152e-06
1.21006e-06
7.51956e-07
2.28955e-07
3.45781e-07
9.57904e-07
1.59237e-06
)
;
    }
    frontAndBack
    {
        type            empty;
    }
}


// ************************************************************************* //
