/*--------------------------------*- C++ -*----------------------------------*\
| =========                 |                                                 |
| \\      /  F ield         | foam-extend: Open Source CFD                    |
|  \\    /   O peration     | Version:     4.1                                |
|   \\  /    A nd           | Web:         http://www.foam-extend.org         |
|    \\/     M anipulation  |                                                 |
\*---------------------------------------------------------------------------*/
FoamFile
{
    version     2.0;
    format      ascii;
    class       volSymmTensorField;
    location    "5";
    object      sigma;
}
// * * * * * * * * * * * * * * * * * * * * * * * * * * * * * * * * * * * * * //

dimensions      [1 -1 -2 0 0 0 0];

internalField   nonuniform List<symmTensor> 
1000
(
(439938 -270923 -1.34336e-10 190487 -2.55056e-10 189128)
(572753 -210339 7.5948e-10 30737.6 1.64308e-10 181047)
(637672 -166952 -8.25575e-10 -41245.1 -5.8891e-10 178928)
(673222 -136349 -3.16519e-10 -89559.3 -7.282e-11 175099)
(690465 -113062 -5.31281e-11 -113198 1.41766e-11 173180)
(696403 -95574.4 3.33265e-10 -126409 2.12503e-10 170998)
(696408 -81680 -5.96574e-10 -131066 -3.35163e-10 169603)
(691965 -70882.9 1.30737e-10 -131460 7.84378e-11 168151)
(686835 -61773.3 -2.38826e-10 -128617 -1.40429e-10 167465)
(677030 -53966.3 -2.94813e-10 -125512 -1.85643e-10 165456)
(586549 -325574 3.77109e-10 223576 -2.20844e-10 243038)
(682420 -223939 -7.6263e-10 66357 -2.01864e-10 224633)
(724392 -158158 -7.05125e-10 -3768.79 -1.89026e-10 216187)
(742116 -114757 -5.49491e-10 -53932.8 -3.78409e-10 206455)
(746788 -84443.8 -1.20196e-10 -79363.3 -1.07141e-10 200227)
(742852 -63462.2 4.77918e-10 -95379.6 2.80985e-10 194242)
(735255 -48111.7 -5.59084e-10 -102580 -3.82024e-10 189802)
(724819 -37284.4 2.26742e-10 -105987 1.91862e-10 185650)
(714013 -28780.4 -4.22307e-10 -104986 -3.27498e-10 182708)
(700764 -22713.8 -1.56161e-10 -105700 -1.74626e-10 178519)
(746170 -365408 4.65694e-10 236899 2.84262e-11 294921)
(793726 -229953 -5.95629e-10 94900.9 -2.59843e-10 266588)
(806572 -146011 5.46098e-10 33636.4 2.46084e-10 252063)
(803068 -92398.4 -4.92913e-10 -14193.4 -2.36835e-10 236663)
(793358 -56669.4 -1.20399e-10 -38988.3 -9.10536e-11 226311)
(778665 -33162.1 -4.5974e-10 -56408.1 -2.68943e-10 216677)
(763211 -16961 8.46828e-16 -65358.6 -2.29007e-15 209356)
(746583 -6303.94 -1.58244e-12 -71337.3 2.09963e-12 202574)
(730903 1395.79 -3.25363e-11 -72380.2 -1.54356e-10 197557)
(713457 6997.6 5.05046e-11 -76258.9 -3.82915e-11 191160)
(912145 -385698 1.60932e-09 232897 -3.20581e-10 343512)
(903077 -227074 3.42057e-10 116496 2.55013e-10 305872)
(882365 -131083 2.56917e-10 69765.5 2.38062e-10 285639)
(855360 -70906.9 1.49175e-10 27712.6 1.03879e-10 264922)
(830127 -31944.2 1.07772e-09 5486.29 6.45098e-10 250684)
(804318 -7122.99 -8.10862e-12 -12210.1 -1.8631e-11 237632)
(780955 9251.26 -3.86029e-12 -22413.6 1.81741e-11 227563)
(758548 19522 -1.02167e-11 -30581.9 1.81113e-11 218390)
(738349 26310.2 2.34695e-10 -33926.8 1.16478e-10 211327)
(717887 31278.2 -2.20668e-11 -40329.8 -4.71385e-11 203267)
(1.07663e+06 -383218 -1.21464e-09 215483 3.11567e-11 387633)
(1.00661e+06 -214534 5.5131e-10 131848 2.24523e-10 341538)
(950184 -113939 4.53241e-10 103555 2.21085e-10 316122)
(898817 -51617.3 4.71655e-10 69777.8 2.43882e-10 290579)
(857812 -12026.4 -2.83382e-10 51570.7 -1.50241e-10 272815)
(821042 12647.6 4.04888e-10 34507.4 1.82744e-10 256665)
(790156 28403 1.27983e-10 23516 7.72703e-11 244102)
(762426 37949.6 -2.49693e-10 13469.5 -9.20479e-11 232769)
(738389 43722.6 5.77015e-10 7738.77 2.23246e-10 223838)
(715423 48006.4 5.38016e-11 -917.21 -6.55069e-12 214352)
(1.23114e+06 -356594 -1.7621e-11 189526 -1.38185e-13 426199)
(1.10041e+06 -192201 -1.43843e-10 141948 -4.35646e-11 372709)
(1.00868e+06 -95100.7 7.11472e-10 133837 3.07256e-10 342755)
(933669 -35411.2 1.86484e-10 109639 5.5637e-11 312992)
(877565 2019.22 -2.64817e-10 96237.4 -1.04362e-10 292141)
(830547 24997.7 -6.72486e-10 80407 -3.28452e-10 273286)
(792786 39314.9 5.53965e-12 68983.4 -9.22364e-11 258531)
(760370 47772.7 -3.56561e-11 57406.2 1.15867e-10 245333)
(733086 52462.4 1.83397e-10 49364.7 1.40827e-10 234735)
(708164 56006.3 4.70715e-10 38833.6 1.93068e-10 224099)
(1.3672e+06 -306489 4.58384e-10 160330 -5.9574e-11 458259)
(1.18072e+06 -160646 -2.49783e-10 147997 3.54287e-11 398615)
(1.05673e+06 -75047.4 2.09551e-10 159550 1.55262e-10 364885)
(960398 -22702.8 6.48333e-11 144979 -4.56328e-11 331613)
(890819 9831.38 3.76309e-10 136488 7.05792e-11 308192)
(834807 29597.6 -1.44272e-11 122160 -6.09413e-11 287090)
(791136 41692.4 1.12225e-10 110555 1.81935e-10 270507)
(754776 48710.9 3.90855e-10 97774.8 3.09821e-10 255765)
(724887 52307.9 -1.86976e-10 87644 -9.34838e-11 243759)
(698436 55098.5 5.37679e-11 75611.9 -9.95148e-11 232214)
(1.47703e+06 -235577 0 133045 0 483021)
(1.24422e+06 -121084 1.20694e-09 151212 3.65612e-10 418628)
(1.09353e+06 -54161.3 -1.27309e-09 179745 -3.48786e-10 381983)
(979700 -13374.3 -4.82812e-11 173646 -7.9743e-11 346004)
(899141 11826.8 -1.21288e-10 169519 1.26514e-11 320598)
(835889 27032.7 6.30148e-10 156652 2.35987e-10 297762)
(787526 36218.7 2.21648e-10 145017 8.53311e-11 279763)
(748089 41485.8 -3.05662e-10 131356 -5.68785e-11 263833)
(716239 44015.4 1.29401e-11 119501 -5.45073e-11 250722)
(688665 46033.6 -1.46141e-10 106353 -1.19736e-10 238506)
(1.5541e+06 -148367 8.25017e-10 112084 8.39545e-11 499854)
(1.28811e+06 -75361.7 -6.77888e-11 152632 -1.3584e-10 432224)
(1.11835e+06 -32766.6 -4.23794e-10 193619 -8.46493e-11 393591)
(992088 -6849.92 3.5351e-10 193799 1.12365e-10 355766)
(903765 9106.99 -1.42082e-10 192926 -3.25505e-11 329007)
(835434 18696.7 -3.62837e-10 181200 -5.20913e-11 304990)
(783815 24444 2.33991e-13 169599 -8.58413e-11 286024)
(742265 27716 -4.27649e-12 155360 5.13346e-11 269288)
(709110 29219.3 -3.87197e-12 142273 2.80152e-11 255415)
(680796 30446.1 -1.48771e-10 128380 -9.40983e-11 242753)
(1.59375e+06 -50702.8 -6.93789e-10 100891 1.23488e-10 508392)
(1.31062e+06 -25640 -5.63136e-10 153511 -1.89231e-10 439238)
(1.13097e+06 -11007.2 4.3085e-10 201300 1.38129e-10 399681)
(998266 -2102.64 -6.73158e-10 204937 -8.71294e-11 360961)
(905926 3374.56 2.71678e-10 205874 -8.45089e-11 333540)
(834974 6662.57 -1.19044e-10 194803 1.81665e-11 308933)
(781683 8627 -2.34337e-14 183246 8.72868e-11 289479)
(739054 9742.99 -9.60135e-11 168713 5.18764e-11 272330)
(705243 10245.9 -3.36741e-10 154973 -1.41148e-10 258065)
(676564 10661.3 1.66804e-10 140673 1.23918e-11 245171)
(-40415.4 13317.5 -9.54399e-11 -585011 4.32033e-10 -187628)
(-24801.1 -5953.7 1.41912e-10 -386029 2.03162e-10 -123249)
(-5793 -15776.3 1.87326e-12 -264104 -9.15213e-11 -80969)
(36010.4 -21027.6 -7.52327e-12 -180948 6.48879e-11 -43481.2)
(75526.9 -23476.8 -8.54496e-11 -126390 -5.89887e-11 -15258.9)
(117578 -24337.3 1.1312e-10 -87290.7 4.66732e-11 9086.24)
(155795 -24273.5 1.58523e-11 -59759.8 1.89889e-11 28810.4)
(192181 -23716.1 -2.09498e-11 -38845.4 3.47445e-11 46000.7)
(224503 -22768.8 1.12668e-10 -23307.2 3.04531e-11 60358.7)
(254805 -22078.4 -1.04635e-11 -9835.14 -1.50587e-11 73490.9)
(-39485 37035.6 5.27685e-12 -556743 1.88829e-11 -178868)
(-13665.9 -18680.3 -2.49552e-10 -373151 -3.57246e-10 -116045)
(10751.3 -46923.9 1.90233e-10 -259658 1.87506e-10 -74672)
(54806 -61922.7 1.38109e-10 -181838 9.99681e-11 -38109.6)
(95136 -68856.2 -3.5169e-11 -130373 -4.57862e-11 -10571.1)
(137011 -71215.2 -3.76517e-10 -93147.3 -1.39016e-10 13159)
(174567 -70927.7 -6.21438e-12 -66661.4 -5.25679e-14 32371.6)
(210070 -69222.2 -6.35595e-11 -46311.4 -3.86667e-11 49127.7)
(241209 -66414.4 3.98725e-11 -30972.6 -1.93749e-12 63070.8)
(270729 -64350.7 9.89452e-11 -17534.3 -8.12092e-12 75958.4)
(-37226.1 52880.6 -7.73094e-11 -502153 -3.57863e-10 -161814)
(7382.14 -33128.8 -1.90283e-10 -348406 -1.6737e-10 -102307)
(41229.8 -76474.8 2.96219e-10 -251137 7.75702e-11 -62972.3)
(89214.3 -99311.7 6.40136e-11 -183534 7.20406e-11 -28296)
(130846 -109709 1.73451e-10 -137982 8.14511e-11 -2140.93)
(172278 -113056 -1.68985e-10 -104341 -8.45047e-11 20381.1)
(208531 -112353 -2.73882e-10 -79858.4 -7.87007e-11 38601.7)
(242351 -109463 -9.33033e-11 -60593.9 -2.11098e-11 54527)
(271255 -104939 4.7114e-12 -45654.4 -3.94214e-13 67680.2)
(299340 -101550 1.34528e-10 -32303.5 6.01555e-11 80111)
(-30303.7 56852.5 -2.77728e-10 -425348 -3.93957e-12 -136696)
(39477.3 -49896.4 1.25796e-10 -313018 -1.72305e-10 -82062.1)
(85825.1 -103232 -7.51576e-10 -238218 -5.76005e-10 -45717.8)
(138818 -131035 -1.69805e-10 -184846 1.11381e-11 -13808.5)
(181939 -143351 -1.03086e-11 -147547 2.21448e-11 10317.6)
(222504 -146929 2.23074e-10 -118951 1.00379e-10 31065.8)
(256767 -145533 -6.15753e-11 -97323.8 -3.30512e-13 47833)
(288085 -141417 1.86893e-10 -79630.7 1.25764e-10 62536.3)
(313806 -135410 -3.31781e-10 -65329.3 -6.38692e-11 74542.9)
(339764 -130784 2.98499e-10 -52140.4 4.5502e-11 86287)
(-15176.4 46051.6 7.50502e-11 -332211 -2.728e-10 -104216)
(82860.6 -69441 6.26982e-10 -269133 5.77914e-10 -55881.7)
(143043 -126336 -5.97131e-10 -221074 -4.00269e-10 -23409.1)
(201178 -155484 -2.79246e-10 -184775 -1.51205e-10 4921.12)
(245496 -167785 2.46293e-10 -157413 1.03998e-10 26424.8)
(284565 -170653 3.30366e-10 -134965 1.35753e-10 44880)
(316129 -168223 1.87845e-10 -116867 1.21794e-10 59778.7)
(344159 -162852 3.31717e-10 -101164 1.01132e-10 72898.5)
(365933 -155651 -7.3524e-11 -87754.9 -8.11542e-11 83453.3)
(389076 -149927 -4.5277e-10 -74834.8 -4.51911e-11 94272.3)
(12214.2 19312.9 -7.33657e-12 -229560 1.79805e-11 -65203.6)
(137772 -91730 3.94137e-10 -219159 1.9756e-10 -24416.1)
(211095 -145119 3.19885e-10 -199700 2.87997e-10 3418.66)
(273415 -171640 -1.56984e-10 -181901 -1.05371e-10 27454.1)
(318082 -181811 -2.87775e-10 -165375 -1.2717e-10 45811.9)
(354790 -182955 -1.8159e-10 -149751 -7.2522e-11 61511.9)
(382913 -179128 2.92949e-10 -135669 1.49512e-10 74173.2)
(406911 -172492 -3.5096e-10 -122304 -1.88403e-10 85382.2)
(424174 -164400 5.82968e-10 -110098 1.77178e-10 94222.7)
(443843 -157761 1.98939e-11 -97611 -8.05853e-11 103870)
(55842.6 -22671.4 3.43472e-10 -124709 -6.29863e-10 -20659.9)
(204260 -116248 -1.08729e-09 -165825 -5.96219e-10 11530.6)
(287936 -159166 3.71415e-10 -174313 2.4953e-10 34086.9)
(352368 -179156 -3.39717e-11 -174947 9.64816e-11 53226.3)
(395987 -185134 1.60219e-10 -169300 7.66982e-11 68006.1)
(429251 -183593 -6.67298e-11 -160712 -2.48185e-11 80561.5)
(453192 -178040 -4.08689e-10 -150877 -1.72762e-10 90694.5)
(472479 -170184 2.35781e-10 -140143 1.04129e-10 99700.8)
(484922 -161511 -2.1446e-10 -129420 -9.4118e-11 106651)
(500485 -154152 4.4711e-10 -117670 1.11768e-10 114844)
(119040 -77381.8 -1.2796e-10 -24731.3 1.84015e-10 28292.7)
(282013 -141971 -3.5467e-10 -111835 -4.15492e-10 51053.6)
(371290 -168276 -5.21462e-10 -145220 -4.99065e-10 67820.9)
(434718 -178306 1.93673e-10 -162781 9.4836e-11 81581)
(475340 -178298 5.16145e-10 -167250 2.52267e-10 92427.1)
(503852 -173260 4.70151e-10 -165449 2.29383e-10 101521)
(522814 -165727 -7.32566e-11 -159918 1.39617e-11 108869)
(536775 -156751 2.69783e-10 -151985 1.14425e-10 115437)
(544262 -147766 -2.65324e-10 -143225 -1.9047e-10 120311)
(555127 -139869 9.42239e-11 -132501 9.11825e-11 126788)
(204013 -140685 3.68946e-10 64113 4.96816e-10 80437.9)
(370331 -167441 5.09807e-10 -59721.1 6.51636e-10 93182.9)
(458930 -172458 5.42193e-10 -112886 1.52096e-10 103813)
(517479 -169958 7.86593e-11 -144607 -8.17238e-11 111862)
(552838 -162656 1.63904e-11 -157657 -2.42068e-11 118554)
(575217 -153613 -1.18719e-11 -161986 -3.40765e-12 123969)
(588528 -143989 4.28961e-10 -160431 2.26742e-10 128429)
(596621 -134186 -5.72798e-10 -155548 -3.71227e-10 132322)
(599405 -125165 5.29351e-10 -148803 2.19123e-10 135180)
(604765 -117005 5.69736e-11 -140380 3.0188e-11 139315)
(311372 -207231 5.52959e-10 136913 -9.23925e-10 134485)
(467853 -190888 5.42502e-10 -11652.2 2.6748e-10 136860)
(548413 -171923 7.25435e-10 -77974.7 3.64474e-10 141131)
(597644 -155453 3.49205e-10 -120134 2.73583e-10 143253)
(625101 -140181 -5.5158e-10 -139711 -3.06095e-10 145617)
(639789 -126894 -4.94956e-10 -149092 -2.71574e-10 147209)
(646466 -115209 1.29915e-11 -151121 -7.70824e-12 148604)
(648155 -104793 -2.60268e-10 -148907 -1.49095e-10 149774)
(646130 -96196.8 2.70617e-10 -145032 2.48896e-10 150329)
(645034 -88061.7 3.68548e-10 -137616 8.41973e-11 152225)
(281475 -20397.7 5.47245e-11 -953.18 -1.99682e-13 84156.5)
(305734 -18241.4 1.01746e-10 8687.25 -3.069e-11 94326.3)
(327518 -16524.1 5.48188e-12 16771 -7.19077e-14 103287)
(347552 -14941 -8.69001e-11 24470.7 -4.69109e-11 111607)
(365682 -13530.8 -3.46485e-10 31884.9 -1.6021e-11 119270)
(382278 -12281.8 -5.27322e-11 39220.1 6.32174e-11 126449)
(397425 -11158.6 3.06617e-10 46689.6 3.2671e-11 133234)
(411290 -10155.1 -3.07611e-10 54397.3 -1.72332e-11 139706)
(423990 -9244.07 2.72752e-11 62501.9 9.23623e-11 145948)
(435624 -8413.45 1.68808e-10 71107.4 3.13901e-11 152019)
(446265 -7643.38 2.86885e-11 80343.6 8.69159e-11 157983)
(455990 -6919.17 3.34162e-10 90339.3 3.16067e-11 163899)
(464795 -6224.08 3.06212e-10 101218 -5.99555e-11 169804)
(472785 -5541.46 -3.32474e-10 113168 -2.91732e-11 175786)
(479781 -4855.04 -4.93798e-10 126294 8.54997e-13 181822)
(486092 -4143.95 2.61485e-10 140935 4.17849e-11 188108)
(491007 -3391.85 -6.48703e-12 157060 -1.44044e-11 194420)
(495712 -2563.66 1.82099e-10 175468 3.51454e-11 201354)
(497595 -1664.32 1.52366e-10 195501 -1.48791e-12 207929)
(501379 -541.529 3.8017e-11 219398 3.95465e-12 216233)
(295482 -59454.3 1.55564e-12 -8186.87 1.71261e-12 86188.5)
(317244 -53274.2 -1.46923e-10 2233.58 -1.63433e-11 95843.3)
(337266 -48330.9 7.59532e-11 11099.8 1.69319e-11 104510)
(355653 -43776.3 2.43583e-10 19390.7 8.31316e-11 112513)
(372494 -39701 -1.42368e-10 27386.7 -5.36511e-13 119964)
(387949 -36089.3 -2.08522e-10 35177 -6.78392e-11 126938)
(402165 -32829.8 1.39845e-10 43056 6.70307e-11 133566)
(415222 -29913 3.61043e-11 51091.9 3.26669e-11 139894)
(427244 -27258.1 -3.23204e-10 59473.3 -1.01065e-10 146015)
(438292 -24832.7 -1.92685e-10 68297.3 -3.54226e-11 151977)
(448435 -22579.2 -4.27949e-12 77704.5 -1.20468e-13 157842)
(457728 -20455.5 5.90987e-10 87823.8 4.94793e-11 163665)
(466162 -18413.1 2.72171e-11 98782.5 2.7036e-11 169483)
(473831 -16403.4 -1.37972e-10 110767 2.84452e-11 175380)
(480554 -14378.9 -2.99854e-11 123884 -3.30531e-11 181331)
(486631 -12277.9 -3.19752e-11 138470 -2.86518e-11 187530)
(491354 -10052.7 -1.14227e-10 154490 2.56698e-11 193753)
(495899 -7598.89 -8.2697e-11 172734 -7.53827e-12 200590)
(497677 -4932.84 4.60314e-10 192541 6.29362e-11 207065)
(501372 -1604.95 1.18398e-10 216124 2.97649e-11 215249)
(320467 -93995.4 8.56555e-11 -22139.6 -1.81488e-11 89498.3)
(337718 -84667.7 1.8539e-10 -10273.4 5.72035e-11 98233.5)
(354560 -77060.9 -4.73766e-10 109.154 -4.08601e-11 106401)
(369983 -70062.3 5.11804e-11 9522.13 3.79367e-11 113852)
(384521 -63713.3 2.60168e-10 18645.7 -1.47106e-11 120950)
(397930 -58075.3 -4.00683e-10 27314.4 -2.46205e-11 127573)
(410486 -52945.3 -2.13658e-10 35988.3 -3.92485e-11 133942)
(422097 -48338.6 4.82399e-10 44663.1 3.11891e-11 140028)
(432912 -44123.7 2.73325e-10 53583.7 -2.28691e-11 145949)
(442915 -40259 -3.5731e-10 62834.2 -4.70772e-11 151725)
(452169 -36654.6 -4.0911e-10 72575.1 -8.10053e-11 157423)
(460695 -33246.6 1.62722e-10 82935.3 9.8868e-12 163089)
(468472 -29959 2.8119e-10 94048.8 4.59044e-11 168756)
(475576 -26714.4 9.75429e-12 106102 -4.62701e-11 174503)
(481820 -23437.1 1.82573e-11 119201 1.20442e-11 180306)
(487491 -20027 -4.07953e-10 133676 -4.47924e-11 186350)
(491889 -16407.3 -2.01312e-10 149490 -6.07733e-12 192414)
(496168 -12407.3 -7.44917e-11 167413 -3.18793e-11 199074)
(497787 -8055.16 1.58227e-10 186783 2.74905e-11 205371)
(501341 -2623.79 1.442e-10 209758 6.28955e-11 213330)
(355942 -121437 9.04918e-11 -40956.2 2.98054e-11 94495.8)
(366832 -110351 -8.28922e-11 -27484.5 -1.17283e-12 101804)
(379297 -100951 4.59216e-11 -15079.1 -3.92761e-11 109265)
(390510 -92342.1 -6.31605e-12 -4261.44 -4.13759e-11 115874)
(401814 -84333 3.24062e-11 6364.51 -1.8638e-11 122454)
(412306 -77198.1 -1.14814e-10 16196.6 -2.28556e-11 128551)
(422501 -70619.2 -1.43961e-10 25942.6 -4.28682e-11 134533)
(432040 -64676.4 -6.76025e-11 35486.7 -3.88684e-11 140258)
(441122 -59195.6 2.94288e-11 45147.1 1.88089e-11 145881)
(449621 -54140.4 1.2605e-10 54989.7 7.32255e-11 151383)
(457593 -49398.3 -2.19687e-10 65197 -4.6753e-11 156837)
(465011 -44891 1.40374e-10 75897.6 4.05518e-11 162273)
(471837 -40521.7 3.29534e-10 87231.8 3.19566e-11 167721)
(478121 -36189.9 -1.33178e-10 99384 -3.84816e-11 173251)
(483669 -31796.1 -3.04751e-10 112458 -2.92312e-11 178838)
(488748 -27205.9 -1.90714e-10 126774 -3.68407e-11 184657)
(492673 -22316.9 1.35251e-10 142289 -7.02631e-12 190488)
(496561 -16896 1.63238e-10 159744 3.29363e-11 196891)
(497950 -10980.7 4.4384e-11 178472 7.06858e-12 202927)
(501294 -3588.18 -9.94029e-11 200556 -6.08629e-11 210555)
(399517 -139837 1.74112e-10 -62593.6 -3.03484e-11 101077)
(402738 -128719 8.25293e-11 -47854.3 -1.08996e-10 106465)
(410077 -118618 -1.87145e-10 -33151.9 3.25603e-11 113077)
(416152 -109452 -8.48835e-11 -20850.6 -3.41762e-12 118590)
(423549 -100569 2.95245e-10 -8500.78 3.53533e-11 124515)
(430452 -92605.7 -1.66447e-10 2682.51 5.31348e-11 129940)
(437732 -85116.8 -1.82054e-10 13690.3 -4.92975e-11 135427)
(444699 -78283.1 1.50415e-10 24274.7 -2.86319e-11 140692)
(451615 -71908.6 -7.27581e-11 34819.7 3.09877e-11 145930)
(458230 -65975.2 -4.27607e-12 45374.2 3.40136e-11 151081)
(464585 -60364.3 -1.62983e-10 56138.3 -1.5034e-11 156217)
(470599 -54991.6 -1.88515e-10 67242.1 -9.41341e-11 161352)
(476213 -49749.8 5.70377e-10 78829.9 6.92356e-11 166513)
(481448 -44520.7 6.78076e-11 91083.8 3.32627e-11 171760)
(486101 -39187.6 -1.12758e-10 104104 -2.81885e-11 177062)
(490415 -33587 8.60664e-11 118196 1.60352e-11 182583)
(493724 -27595 -3.7488e-10 133308 -9.15963e-11 188109)
(497098 -20922.4 1.55635e-10 150140 4.74668e-11 194171)
(498182 -13614.8 -7.17172e-11 168024 -2.00656e-11 199862)
(501236 -4466.28 3.34702e-11 188931 1.08915e-11 207050)
(448310 -147994 -8.10961e-11 -84509.6 -1.04436e-10 109140)
(443162 -138690 -1.26061e-10 -69496.4 8.022e-11 112100)
(445104 -129063 -1.26541e-10 -52684.9 3.87156e-11 117726)
(445479 -120494 -9.53129e-11 -39168.5 -1.01878e-10 121893)
(448558 -111645 2.0886e-10 -25211.2 1.5269e-10 127004)
(451426 -103615 2.16906e-10 -12706 3.91352e-11 131616)
(455395 -95860.2 3.41196e-10 -439.012 2.52685e-11 136487)
(459432 -88665.3 -4.31125e-10 11235.5 -7.61175e-11 141200)
(463851 -81850.3 -2.84805e-10 22724.9 -6.01858e-12 145973)
(468292 -75418.3 -3.11881e-11 34068.3 -7.5376e-11 150708)
(472769 -69265.5 4.0858e-10 45464.7 4.57293e-11 155470)
(477149 -63309.3 -7.80526e-11 57042.3 -7.15461e-11 160257)
(481349 -57443.4 -2.42052e-10 68941 -3.48202e-11 165087)
(485356 -51540.4 1.12526e-10 81334.5 5.47462e-11 170007)
(488958 -45474.1 -1.59886e-10 94314.4 -3.00846e-11 174982)
(492370 -39058.3 -8.53488e-11 108163 -1.86227e-11 180160)
(494952 -32154.1 -3.38588e-11 122816 -1.37865e-11 185330)
(497715 -24423.1 1.74915e-10 138920 4.62255e-11 190990)
(498442 -15917.8 2.129e-10 155801 7.02304e-11 196273)
(501154 -5245.93 -1.67658e-10 175286 -1.13755e-10 202932)
(499349 -145727 -3.55112e-11 -104001 3.31201e-11 118605)
(485873 -140066 7.20414e-11 -89987.6 4.01223e-11 118766)
(482662 -132091 3.69184e-10 -71590 4.66647e-11 123322)
(477264 -125214 -5.87106e-10 -57161.7 -1.17995e-10 126031)
(475903 -117334 -4.06995e-11 -41890.9 4.54174e-11 130204)
(474601 -109967 3.94553e-11 -28146.4 -4.31426e-11 133937)
(475046 -102588 4.17302e-10 -14720.7 1.32634e-10 138098)
(475970 -95542.8 1.66888e-10 -1992.18 1.73293e-11 142193)
(477681 -88729.8 -2.29679e-10 10395.7 -1.06526e-10 146423)
(479756 -82172.3 -1.00901e-10 22489.9 -5.03327e-11 150674)
(482159 -75805.1 -1.63259e-10 34472.6 -2.14501e-11 154990)
(484725 -69554.9 4.32314e-11 46473.3 2.23867e-11 159360)
(487335 -63326.8 1.4092e-10 58623.8 6.63563e-11 163788)
(489952 -56991.4 0 71088.3 0 168312)
(492353 -50419.3 2.98711e-11 83946.2 -2.45363e-11 172890)
(494725 -43408.8 1.63303e-10 97452.1 4.00697e-11 177653)
(496461 -35811 -7.91972e-11 111526 -1.21398e-11 182396)
(498501 -27249.5 -2.93633e-10 126746 -1.03706e-10 187574)
(498799 -17784 2.48987e-10 142437 9.00109e-11 192371)
(501078 -5886.86 -7.57161e-11 160250 -6.71127e-11 198398)
(549088 -133341 3.54059e-10 -119102 4.4143e-11 128996)
(528034 -132747 -2.81586e-10 -107808 -6.14056e-11 126068)
(520204 -127567 2.54646e-10 -89443.9 1.22098e-10 129228)
(509494 -123282 8.35678e-11 -74798.9 3.78614e-11 130409)
(503736 -117379 -6.51066e-10 -59064.7 -2.41076e-10 133401)
(498421 -111432 1.52079e-10 -44494 6.83779e-11 136178)
(495277 -105156 1.71361e-10 -30243 2.17919e-11 139510)
(493068 -98856.7 6.13396e-10 -16608.6 1.68175e-10 142938)
(491987 -92561.2 -1.60219e-10 -3374.76 -2.1348e-11 146584)
(491625 -86309.1 -4.47666e-11 9499.66 3.41814e-11 150338)
(491878 -80090.8 4.34731e-11 22144.6 -3.0767e-11 154207)
(492560 -73855.8 -4.29351e-11 34670 2.69353e-11 158169)
(493516 -67533 4.98195e-11 47181.4 6.95249e-11 162209)
(494685 -61003.1 5.7397e-10 59820.8 1.44755e-10 166352)
(495833 -54143.4 -2.44395e-10 72645.6 -7.84424e-11 170544)
(497117 -46746.1 -4.69757e-10 85874.2 -1.26093e-10 174897)
(497970 -38659.8 3.85243e-10 99403.6 1.28794e-10 179212)
(499253 -29478.9 7.50548e-11 113733 2.31894e-11 183896)
(499114 -19270.3 -2.21358e-10 128180 -8.79998e-11 188188)
(500957 -6407.71 6.6128e-11 144184 3.98535e-11 193542)
(595597 -113142 -3.26469e-10 -127286 -1.28854e-10 140493)
(568613 -118328 -1.15551e-10 -118731 2.37201e-11 134965)
(556723 -117164 1.03931e-10 -102187 -2.61561e-11 136361)
(541881 -115783 3.71608e-10 -87575.2 7.30295e-11 136292)
(531957 -112522 -2.60647e-10 -72038 -4.87515e-11 137976)
(523112 -108391 -1.94834e-10 -57016.9 1.91325e-11 139828)
(516533 -103615 0 -42338.5 0 142258)
(511331 -98417.1 3.07042e-10 -28186.1 9.4491e-11 144944)
(507489 -92973.4 4.4733e-10 -14486.8 1.58146e-10 147901)
(504671 -87351.7 1.62986e-10 -1202.48 2.59416e-11 151041)
(502707 -81590.7 -2.85095e-10 11759.6 -8.73053e-11 154340)
(501409 -75666 -4.85572e-10 24492.3 -8.91934e-11 157770)
(500597 -69527.3 -2.38781e-10 37078.1 -1.11683e-10 161303)
(500192 -63068.7 4.58957e-10 49633 1.03197e-10 164947)
(499960 -56176.5 5.09293e-10 62188.5 1.73663e-10 168645)
(500028 -48644 -2.42273e-10 74917.3 -8.64224e-11 172483)
(499883 -40322.8 -8.86385e-11 87689.3 -3.98046e-11 176272)
(500290 -30793.3 3.16228e-10 100909 1.2812e-10 180360)
(499629 -20134.7 -2.89618e-10 113899 -1.27937e-10 184058)
(500901 -6713.18 5.95068e-13 127877 4.09607e-13 188633)
(632307 -85457.1 2.6412e-10 -131901 7.09844e-11 150122)
(604837 -94571.7 -1.99783e-10 -125388 -4.01275e-11 143835)
(588375 -99179.8 7.06371e-12 -114361 -5.02006e-11 142204)
(571035 -101532 -1.00614e-10 -101430 1.93727e-11 140882)
(557007 -102100 -1.85085e-10 -87392 1.3917e-12 140885)
(544897 -100935 -1.62177e-10 -72756.9 -9.60969e-11 141642)
(534996 -98578.4 -1.35151e-10 -57964 -1.49193e-10 143110)
(526922 -95257.4 -9.5811e-12 -43317.6 7.33376e-12 145081)
(520488 -91243.9 1.02812e-11 -28949.2 -5.66937e-12 147461)
(515410 -86695.8 3.21268e-10 -14937.5 5.64433e-11 150142)
(511458 -81721.2 4.06304e-10 -1281.85 1.68012e-10 153053)
(508421 -76358.1 -2.56183e-10 12050.3 -1.26617e-10 156141)
(506085 -70599.4 -4.04487e-10 25095 -1.52036e-10 159354)
(504339 -64373.3 -2.65026e-10 37930 -9.24844e-11 162681)
(502946 -57586.9 1.08223e-10 50552.3 5.27676e-11 166050)
(501998 -50048.2 5.0798e-12 63086.7 5.62063e-13 169525)
(501040 -41616.7 -1.44265e-10 75369.1 -5.02288e-11 172923)
(500749 -31870.1 2.78392e-12 87705.9 6.91664e-13 176537)
(499756 -20889.4 1.40086e-10 99430.2 6.49552e-11 179756)
(500699 -6998.79 -3.76933e-11 111529 -2.92342e-11 183669)
(656796 -62531.8 9.59511e-11 -125639 5.56973e-11 159347)
(632352 -70221.1 1.91056e-10 -117556 1.30779e-10 154439)
(612266 -79226.4 1.98292e-10 -110834 5.8106e-11 150430)
(594055 -84220.9 5.35421e-11 -100720 8.74585e-12 148000)
(578198 -87450.8 7.04348e-11 -88781.6 9.3998e-11 146825)
(564364 -88766.9 1.80704e-11 -75830.1 -6.15898e-11 146560)
(552572 -88612.4 -3.69119e-10 -62269.5 -1.36954e-10 147091)
(542558 -87234.6 -1.31906e-10 -48530.8 -2.94641e-11 148208)
(534179 -84876.5 1.31289e-10 -34816 2.85072e-11 149809)
(527204 -81717.4 -1.61192e-10 -21283.9 -3.25163e-11 151776)
(521439 -77884 4.10828e-10 -8005.37 1.801e-10 154030)
(516700 -73443.7 2.51888e-10 4988.69 9.92252e-11 156507)
(512792 -68417.2 -3.6951e-11 17678.7 2.82655e-11 159141)
(509611 -62762.9 9.28287e-11 30085.8 5.65991e-11 161909)
(506942 -56412.7 1.4693e-10 42161.7 4.25252e-11 164731)
(504855 -49205.3 -1.03088e-11 53964 -2.7926e-12 167646)
(502967 -41021.6 8.7709e-11 65294 4.51615e-11 170478)
(501839 -31473 4.65837e-11 76337.5 1.43444e-11 173453)
(500340 -20661.7 -1.40351e-10 86421.3 -6.75139e-11 176028)
(500666 -6940.9 -6.90363e-11 96315.8 -7.65756e-11 179095)
(655074 -44191.1 -6.56652e-10 -111106 -2.12774e-10 163190)
(637324 -52694.8 -3.22681e-10 -109264 -1.86741e-10 158418)
(619213 -62398.6 2.82406e-10 -103718 1.4946e-11 154649)
(602756 -69016.9 -1.56444e-10 -95542 1.00755e-10 152164)
(587768 -73744.7 -3.01065e-10 -85253.3 -1.51437e-10 150754)
(574310 -76617.2 3.6422e-10 -73767.7 9.09513e-11 150163)
(562430 -77949.2 -3.36921e-24 -61490.8 -1.35968e-24 150282)
(552005 -77967.7 -3.85106e-10 -48850.4 -2.1107e-10 150946)
(542966 -76884.6 -7.26934e-25 -36081.3 -5.65473e-25 152065)
(535164 -74864.6 -1.01667e-10 -23376.7 -7.59586e-11 153536)
(528466 -72029.2 -9.94439e-11 -10849.5 -7.13309e-11 155285)
(522736 -68450.4 1.56924e-10 1423.6 3.85983e-11 157248)
(517823 -64159.6 -1.53908e-10 13381.1 -4.03847e-11 159361)
(513647 -59133.5 -4.48724e-24 24994.7 -1.38566e-24 161593)
(510038 -53324.9 1.48631e-10 36179.9 4.63621e-11 163865)
(507059 -46603.1 -1.46351e-10 46933 -5.06531e-11 166198)
(504407 -38876.4 -8.92747e-11 57033.5 -4.78297e-11 168432)
(502569 -29807.5 1.42472e-10 66567.3 6.22741e-11 170741)
(500656 -19526.6 -1.749e-24 74879.2 -8.62743e-25 172660)
(500517 -6541.6 -4.2405e-11 82533.6 -3.96646e-11 174915)
(654473 -25562.6 -1.32043e-10 -97563.8 -8.92404e-11 167073)
(638238 -35291.7 3.04118e-10 -98074.9 3.7286e-11 162049)
(622651 -45746.2 -3.98753e-10 -95017.8 -1.33235e-10 158290)
(607472 -53588.2 1.06314e-10 -89172.9 1.05047e-10 155490)
(593435 -59627.7 5.94851e-11 -80962.1 -1.92664e-10 153742)
(580424 -63914.9 -2.2625e-24 -71278.4 -1.08316e-24 152744)
(568680 -66640.4 7.45522e-11 -60526.3 -4.45055e-11 152446)
(558111 -68003.5 -1.74074e-10 -49174.3 -4.44249e-11 152681)
(548728 -68168.9 -1.01346e-10 -37492.2 -8.19482e-11 153371)
(540430 -67285 -2.38579e-24 -25720.8 -9.57583e-25 154413)
(533136 -65461.8 -9.82838e-11 -14017.5 -7.28844e-11 155735)
(526746 -62773.5 -1.66091e-24 -2505.47 -4.49027e-25 157272)
(521152 -59259.5 -3.46233e-10 8711.58 -1.73494e-10 158959)
(516292 -54912.8 -1.87999e-10 19559.3 -1.21247e-10 160756)
(512039 -49706 5.73358e-11 29917.7 -6.9419e-12 162587)
(508452 -43537.6 5.62505e-11 39728.7 5.09184e-13 164454)
(505303 -36345.5 -9.0217e-11 48750 -5.04347e-11 166216)
(503000 -27845.4 -4.469e-26 56979.4 1.74742e-26 167994)
(500876 -18197.1 -8.76209e-11 63789 -4.53445e-11 169399)
(500410 -6074.74 -1.84473e-10 69567.6 -2.0526e-10 170993)
(648957 -11209.1 5.31014e-11 -84865.9 -7.73653e-11 169227)
(634973 -20769.4 -2.02093e-10 -87359.6 -7.63289e-11 164284)
(621817 -31325.1 -8.34996e-25 -85818.4 -4.09216e-25 160800)
(608271 -39738.9 9.52479e-11 -81683.2 -3.89347e-11 157976)
(595573 -46593.8 9.89781e-11 -75121.6 9.92916e-11 156135)
(583429 -51855.2 1.60562e-24 -66990.5 4.78307e-25 154931)
(572233 -55623.9 2.13419e-25 -57660.2 -5.8338e-25 154372)
(561911 -58044 -7.61734e-11 -47590.7 3.76859e-11 154296)
(552547 -59236.2 0 -37061.7 0 154646)
(544084 -59322.2 -4.02967e-24 -26333.5 -1.7291e-24 155325)
(536492 -58395.8 0 -15590.1 0 156271)
(529710 -56525.8 3.19693e-10 -4986.81 9.39463e-11 157417)
(523668 -53754.3 6.21778e-11 5341.62 -1.74839e-11 158703)
(518330 -50085.5 -2.47335e-10 15283.6 -1.12681e-10 160084)
(513607 -45508.4 -9.25125e-11 24690.9 -5.87352e-11 161489)
(509559 -39948.8 -1.48838e-10 33460.4 -5.71808e-11 162906)
(506028 -33372.1 -5.6327e-11 41335.8 -9.02158e-12 164209)
(503354 -25548.4 1.45068e-10 48243.9 6.73643e-11 165479)
(501068 -16657.8 1.43692e-10 53595.5 7.38061e-11 166399)
(500312 -5547.14 -1.42946e-10 57622.2 -1.63864e-10 167380)
(640262 815.642 -3.99128e-11 -72855.5 1.27082e-10 170222)
(628403 -8524.74 -8.47825e-11 -76648.8 -1.03979e-10 165526)
(617567 -18869.2 -2.83418e-10 -76408.6 -1.74275e-10 162348)
(605725 -27463.5 -1.01084e-10 -73826.1 3.33172e-11 159570)
(594497 -34754.3 2.79824e-10 -68811.3 1.59697e-10 157706)
(583423 -40635.2 1.83357e-10 -62183.7 5.86432e-11 156372)
(573021 -45143.1 -2.20648e-24 -54251.5 -1.31124e-24 155631)
(563217 -48365 -1.75131e-10 -45468.8 -5.31515e-11 155325)
(554158 -50378.5 1.71203e-10 -36113 5.14931e-11 155413)
(545817 -51273.8 -9.45868e-11 -26459.8 -7.82574e-11 155807)
(538208 -51124.5 -9.42393e-11 -16711.9 -7.43476e-11 156449)
(531301 -49989 6.6834e-11 -7049.98 -1.9724e-11 157275)
(525063 -47907.7 9.3172e-11 2366.53 6.69205e-11 158229)
(519481 -44892.4 0 11396.2 0 159263)
(514501 -40945.2 0 19868.6 0 160311)
(510185 -36017 -1.49775e-10 27644.2 -6.00396e-11 161349)
(506439 -30098.8 2.63822e-24 34458.6 1.25495e-24 162269)
(503536 -23014.8 5.70484e-11 40180.7 1.65677e-11 163115)
(501183 -14959.7 0 44264.3 0 163634)
(500222 -4964.78 -1.44313e-10 46803.8 -1.65036e-10 164108)
(629464 10315.1 2.60003e-10 -61815.4 1.56844e-10 170295)
(619604 1487.27 3.12826e-10 -66491.3 5.62535e-11 165934)
(610865 -8342.6 -3.84495e-10 -67171.7 -1.46693e-10 163108)
(600722 -16800.3 -1.89018e-10 -65769.7 -6.92196e-11 160486)
(591006 -24222.1 2.71753e-10 -62012 1.60103e-10 158698)
(581135 -30432.3 9.38792e-11 -56677.8 -2.99402e-11 157337)
(571699 -35420.1 2.15165e-24 -50010.7 1.72646e-24 156506)
(562617 -39214.9 -2.65112e-10 -42442.4 -1.42102e-10 156052)