/*--------------------------------*- C++ -*----------------------------------*\
| =========                 |                                                 |
| \\      /  F ield         | foam-extend: Open Source CFD                    |
|  \\    /   O peration     | Version:     4.1                                |
|   \\  /    A nd           | Web:         http://www.foam-extend.org         |
|    \\/     M anipulation  |                                                 |
\*---------------------------------------------------------------------------*/
FoamFile
{
    version     2.0;
    format      ascii;
    class       vectorField;
    location    "5";
    object      solidsCellD_iteration16;
}
// * * * * * * * * * * * * * * * * * * * * * * * * * * * * * * * * * * * * * //


1000
(
(2.59271e-06 -1.09759e-06 0)
(2.44586e-06 -1.02123e-06 0)
(2.35198e-06 -9.72727e-07 0)
(2.29797e-06 -9.50067e-07 0)
(2.27151e-06 -9.42196e-07 0)
(2.26511e-06 -9.45731e-07 0)
(2.27353e-06 -9.56721e-07 0)
(2.29299e-06 -9.73257e-07 0)
(2.3209e-06 -9.9355e-07 0)
(2.35521e-06 -1.01637e-06 0)
(2.34416e-06 -1.19896e-06 0)
(2.18785e-06 -1.14583e-06 0)
(2.08801e-06 -1.112e-06 0)
(2.02959e-06 -1.0993e-06 0)
(1.99968e-06 -1.09804e-06 0)
(1.9902e-06 -1.10624e-06 0)
(1.99566e-06 -1.12053e-06 0)
(2.01209e-06 -1.13955e-06 0)
(2.03674e-06 -1.16183e-06 0)
(2.06713e-06 -1.18601e-06 0)
(2.08599e-06 -1.29506e-06 0)
(1.92634e-06 -1.26789e-06 0)
(1.82441e-06 -1.25049e-06 0)
(1.76409e-06 -1.2488e-06 0)
(1.73234e-06 -1.25475e-06 0)
(1.72076e-06 -1.26792e-06 0)
(1.72383e-06 -1.28567e-06 0)
(1.73756e-06 -1.30715e-06 0)
(1.75918e-06 -1.33137e-06 0)
(1.78627e-06 -1.35688e-06 0)
(1.82006e-06 -1.38415e-06 0)
(1.66378e-06 -1.38418e-06 0)
(1.56401e-06 -1.38405e-06 0)
(1.50447e-06 -1.39386e-06 0)
(1.47253e-06 -1.40729e-06 0)
(1.45985e-06 -1.42556e-06 0)
(1.46107e-06 -1.44677e-06 0)
(1.47238e-06 -1.47071e-06 0)
(1.4911e-06 -1.49678e-06 0)
(1.51486e-06 -1.52371e-06 0)
(1.54827e-06 -1.46448e-06 0)
(1.40194e-06 -1.49149e-06 0)
(1.30857e-06 -1.50846e-06 0)
(1.25254e-06 -1.5296e-06 0)
(1.22207e-06 -1.5504e-06 0)
(1.20926e-06 -1.57368e-06 0)
(1.2092e-06 -1.59828e-06 0)
(1.21833e-06 -1.62461e-06 0)
(1.23425e-06 -1.65245e-06 0)
(1.25459e-06 -1.68085e-06 0)
(1.27185e-06 -1.53443e-06 0)
(1.14199e-06 -1.58668e-06 0)
(1.05916e-06 -1.61967e-06 0)
(1.0092e-06 -1.65143e-06 0)
(9.81743e-07 -1.67909e-06 0)
(9.69746e-07 -1.70701e-06 0)
(9.68947e-07 -1.73474e-06 0)
(9.7613e-07 -1.76328e-06 0)
(9.89217e-07 -1.79277e-06 0)
(1.00601e-06 -1.82261e-06 0)
(9.92231e-07 -1.59241e-06 0)
(8.84549e-07 -1.66677e-06 0)
(8.15876e-07 -1.71382e-06 0)
(7.74308e-07 -1.75488e-06 0)
(7.51318e-07 -1.78855e-06 0)
(7.41028e-07 -1.82053e-06 0)
(7.3993e-07 -1.85097e-06 0)
(7.45316e-07 -1.88146e-06 0)
(7.55525e-07 -1.91237e-06 0)
(7.68657e-07 -1.94352e-06 0)
(7.10288e-07 -1.63715e-06 0)
(6.2963e-07 -1.72927e-06 0)
(5.78214e-07 -1.78758e-06 0)
(5.47041e-07 -1.8361e-06 0)
(5.29731e-07 -1.87459e-06 0)
(5.21847e-07 -1.90984e-06 0)
(5.20774e-07 -1.9425e-06 0)
(5.24487e-07 -1.97456e-06 0)
(5.31793e-07 -2.00662e-06 0)
(5.41208e-07 -2.03886e-06 0)
(4.26822e-07 -1.66757e-06 0)
(3.76887e-07 -1.77209e-06 0)
(3.45088e-07 -1.83828e-06 0)
(3.25749e-07 -1.89203e-06 0)
(3.14946e-07 -1.93389e-06 0)
(3.09962e-07 -1.97142e-06 0)
(3.09214e-07 -2.00563e-06 0)
(3.11414e-07 -2.03883e-06 0)
(3.158e-07 -2.07171e-06 0)
(3.21452e-07 -2.10474e-06 0)
(1.42548e-07 -1.68289e-06 0)
(1.25641e-07 -1.79385e-06 0)
(1.14812e-07 -1.86408e-06 0)
(1.08226e-07 -1.92052e-06 0)
(1.04577e-07 -1.96413e-06 0)
(1.02868e-07 -2.00284e-06 0)
(1.02552e-07 -2.03782e-06 0)
(1.03257e-07 -2.07159e-06 0)
(1.04728e-07 -2.1049e-06 0)
(1.06608e-07 -2.13836e-06 0)
(4.04753e-06 -5.00577e-08 0)
(4.08393e-06 -3.60348e-08 0)
(4.1059e-06 -2.71429e-08 0)
(4.12955e-06 -2.19148e-08 0)
(4.15539e-06 -1.90004e-08 0)
(4.18712e-06 -1.76538e-08 0)
(4.22474e-06 -1.73977e-08 0)
(4.26869e-06 -1.78114e-08 0)
(4.31884e-06 -1.87195e-08 0)
(4.37454e-06 -1.98463e-08 0)
(4.0175e-06 -1.50204e-07 0)
(4.04782e-06 -1.08956e-07 0)
(4.06598e-06 -8.2796e-08 0)
(4.08707e-06 -6.74907e-08 0)
(4.11121e-06 -5.9086e-08 0)
(4.14172e-06 -5.52093e-08 0)
(4.17849e-06 -5.44575e-08 0)
(4.22172e-06 -5.57894e-08 0)
(4.27127e-06 -5.85908e-08 0)
(4.32633e-06 -6.19449e-08 0)
(3.95758e-06 -2.51177e-07 0)
(3.97628e-06 -1.84983e-07 0)
(3.98709e-06 -1.43052e-07 0)
(4.00331e-06 -1.18488e-07 0)
(4.02423e-06 -1.05034e-07 0)
(4.05247e-06 -9.90022e-08 0)
(4.08753e-06 -9.799e-08 0)
(4.12944e-06 -1.00283e-07 0)
(4.17781e-06 -1.04949e-07 0)
(4.23164e-06 -1.10559e-07 0)
(3.86881e-06 -3.53449e-07 0)
(3.87098e-06 -2.65861e-07 0)
(3.8713e-06 -2.10453e-07 0)
(3.88059e-06 -1.78143e-07 0)
(3.8969e-06 -1.60516e-07 0)
(3.92193e-06 -1.52765e-07 0)
(3.9546e-06 -1.51706e-07 0)
(3.99459e-06 -1.55075e-07 0)
(4.04131e-06 -1.6157e-07 0)
(4.09342e-06 -1.69423e-07 0)
(3.75256e-06 -4.57286e-07 0)
(3.73432e-06 -3.53052e-07 0)
(3.72167e-06 -2.87149e-07 0)
(3.72236e-06 -2.48992e-07 0)
(3.73299e-06 -2.28366e-07 0)
(3.75399e-06 -2.19596e-07 0)
(3.7837e-06 -2.18832e-07 0)
(3.8213e-06 -2.2343e-07 0)
(3.86596e-06 -2.31747e-07 0)
(3.91599e-06 -2.41814e-07 0)
(3.61056e-06 -5.62777e-07 0)
(3.56923e-06 -4.4758e-07 0)
(3.54194e-06 -3.74726e-07 0)
(3.53293e-06 -3.32957e-07 0)
(3.53709e-06 -3.10693e-07 0)
(3.5535e-06 -3.01709e-07 0)
(3.57984e-06 -3.01654e-07 0)
(3.6147e-06 -3.07661e-07 0)
(3.65699e-06 -3.17811e-07 0)
(3.70466e-06 -3.30052e-07 0)
(3.44496e-06 -6.69682e-07 0)
(3.37919e-06 -5.49833e-07 0)
(3.33645e-06 -4.73974e-07 0)
(3.31716e-06 -4.31047e-07 0)
(3.31448e-06 -4.08632e-07 0)
(3.326e-06 -4.00336e-07 0)
(3.34872e-06 -4.01474e-07 0)
(3.38064e-06 -4.09067e-07 0)
(3.42035e-06 -4.21051e-07 0)
(3.46553e-06 -4.35381e-07 0)
(3.25793e-06 -7.77488e-07 0)
(3.16796e-06 -6.59519e-07 0)
(3.10994e-06 -5.84779e-07 0)
(3.08043e-06 -5.43307e-07 0)
(3.07092e-06 -5.22314e-07 0)
(3.07751e-06 -5.15658e-07 0)
(3.0965e-06 -5.1851e-07 0)
(3.12536e-06 -5.27938e-07 0)
(3.16233e-06 -5.41781e-07 0)
(3.20491e-06 -5.58168e-07 0)
(3.05192e-06 -8.85472e-07 0)
(2.93946e-06 -7.75735e-07 0)
(2.86723e-06 -7.06185e-07 0)
(2.82814e-06 -6.68722e-07 0)
(2.81216e-06 -6.50703e-07 0)
(2.81394e-06 -6.46595e-07 0)
(2.82921e-06 -6.51684e-07 0)
(2.85496e-06 -6.63165e-07 0)
(2.8891e-06 -6.7902e-07 0)
(2.92913e-06 -6.97261e-07 0)
(2.82938e-06 -9.92614e-07 0)
(2.69759e-06 -8.96994e-07 0)
(2.61312e-06 -8.36355e-07 0)
(2.56571e-06 -8.05283e-07 0)
(2.54397e-06 -7.91706e-07 0)
(2.5414e-06 -7.91028e-07 0)
(2.55324e-06 -7.9885e-07 0)
(2.57591e-06 -8.12773e-07 0)
(2.60726e-06 -8.30724e-07 0)
(2.64451e-06 -8.51714e-07 0)
(4.43595e-06 -2.09622e-08 0)
(4.50288e-06 -2.12066e-08 0)
(4.57409e-06 -2.14813e-08 0)
(4.64931e-06 -2.16778e-08 0)
(4.72808e-06 -2.17835e-08 0)
(4.8101e-06 -2.17875e-08 0)
(4.89498e-06 -2.16402e-08 0)
(4.98242e-06 -2.13552e-08 0)
(5.07217e-06 -2.09464e-08 0)
(5.16393e-06 -2.03968e-08 0)
(5.25741e-06 -1.96815e-08 0)
(5.35236e-06 -1.87859e-08 0)
(5.44849e-06 -1.7692e-08 0)
(5.54554e-06 -1.63859e-08 0)
(5.64324e-06 -1.48507e-08 0)
(5.74122e-06 -1.30599e-08 0)
(5.8393e-06 -1.09741e-08 0)
(5.93683e-06 -8.54758e-09 0)
(6.03392e-06 -5.72159e-09 0)
(6.12905e-06 -2.47215e-09 0)
(4.38987e-06 -6.50313e-08 0)
(4.46067e-06 -6.54538e-08 0)
(4.53532e-06 -6.6027e-08 0)
(4.61355e-06 -6.64164e-08 0)
(4.695e-06 -6.65137e-08 0)
(4.77936e-06 -6.63322e-08 0)
(4.86637e-06 -6.57933e-08 0)
(4.95575e-06 -6.48967e-08 0)
(5.04726e-06 -6.36038e-08 0)
(5.14061e-06 -6.18637e-08 0)
(5.23556e-06 -5.96366e-08 0)
(5.33187e-06 -5.68994e-08 0)
(5.42929e-06 -5.36005e-08 0)
(5.52755e-06 -4.96785e-08 0)
(5.6264e-06 -4.50616e-08 0)
(5.72548e-06 -3.96692e-08 0)
(5.82461e-06 -3.33904e-08 0)
(5.92315e-06 -2.61025e-08 0)
(6.02125e-06 -1.76223e-08 0)
(6.11735e-06 -7.87913e-09 0)
(4.29935e-06 -1.14985e-07 0)
(4.37772e-06 -1.14739e-07 0)
(4.45912e-06 -1.1483e-07 0)
(4.54318e-06 -1.14821e-07 0)
(4.62985e-06 -1.1445e-07 0)
(4.71886e-06 -1.13732e-07 0)
(4.81007e-06 -1.12488e-07 0)
(4.9032e-06 -1.10697e-07 0)
(4.99812e-06 -1.08283e-07 0)
(5.09459e-06 -1.05182e-07 0)
(5.19242e-06 -1.01331e-07 0)
(5.29141e-06 -9.66729e-08 0)
(5.39132e-06 -9.11042e-08 0)
(5.49191e-06 -8.45148e-08 0)
(5.59297e-06 -7.67863e-08 0)
(5.69417e-06 -6.77835e-08 0)
(5.79535e-06 -5.73163e-08 0)
(5.8959e-06 -4.51829e-08 0)
(5.99598e-06 -3.10656e-08 0)
(6.09407e-06 -1.48509e-08 0)
(4.16706e-06 -1.74158e-07 0)
(4.25627e-06 -1.71923e-07 0)
(4.34744e-06 -1.70329e-07 0)
(4.44e-06 -1.68987e-07 0)
(4.53432e-06 -1.67356e-07 0)
(4.63008e-06 -1.65467e-07 0)
(4.72739e-06 -1.62999e-07 0)
(4.82603e-06 -1.59917e-07 0)
(4.92599e-06 -1.56085e-07 0)
(5.02708e-06 -1.51392e-07 0)
(5.12917e-06 -1.45723e-07 0)
(5.23208e-06 -1.38977e-07 0)
(5.33567e-06 -1.31012e-07 0)
(5.4397e-06 -1.21677e-07 0)
(5.54403e-06 -1.10808e-07 0)
(5.64835e-06 -9.81949e-08 0)
(5.75253e-06 -8.35675e-08 0)
(5.85601e-06 -6.66343e-08 0)
(5.95894e-06 -4.69343e-08 0)
(6.05992e-06 -2.4328e-08 0)
(3.99702e-06 -2.45519e-07 0)
(4.09985e-06 -2.39573e-07 0)
(4.20341e-06 -2.34738e-07 0)
(4.30674e-06 -2.30869e-07 0)
(4.41079e-06 -2.26971e-07 0)
(4.51522e-06 -2.23103e-07 0)
(4.62037e-06 -2.18765e-07 0)
(4.72612e-06 -2.13873e-07 0)
(4.83255e-06 -2.0819e-07 0)
(4.93955e-06 -2.01547e-07 0)
(5.04711e-06 -1.93785e-07 0)
(5.15512e-06 -1.84752e-07 0)
(5.26347e-06 -1.7425e-07 0)
(5.37198e-06 -1.62075e-07 0)
(5.48057e-06 -1.47999e-07 0)
(5.58893e-06 -1.3174e-07 0)
(5.69701e-06 -1.12948e-07 0)
(5.80427e-06 -9.12443e-08 0)
(5.91093e-06 -6.60281e-08 0)
(6.01564e-06 -3.71231e-08 0)
(3.79402e-06 -3.31219e-07 0)
(3.91253e-06 -3.19558e-07 0)
(4.03061e-06 -3.0963e-07 0)
(4.14664e-06 -3.0178e-07 0)
(4.26225e-06 -2.94422e-07 0)
(4.37702e-06 -2.87598e-07 0)
(4.49152e-06 -2.8058e-07 0)
(4.60577e-06 -2.7321e-07 0)
(4.71998e-06 -2.65157e-07 0)
(4.83413e-06 -2.56166e-07 0)
(4.94829e-06 -2.46013e-07 0)
(5.06243e-06 -2.34474e-07 0)
(5.1765e-06 -2.2128e-07 0)
(5.29039e-06 -2.06163e-07 0)
(5.40406e-06 -1.88823e-07 0)
(5.51728e-06 -1.68911e-07 0)
(5.63005e-06 -1.4598e-07 0)
(5.74185e-06 -1.19577e-07 0)
(5.853e-06 -8.89626e-08 0)
(5.96219e-06 -5.38804e-08 0)
(3.56378e-06 -4.32532e-07 0)
(3.69932e-06 -4.13147e-07 0)
(3.83341e-06 -3.96299e-07 0)
(3.96356e-06 -3.82906e-07 0)
(4.09207e-06 -3.70811e-07 0)
(4.21847e-06 -3.59936e-07 0)
(4.34358e-06 -3.49385e-07 0)
(4.46749e-06 -3.38832e-07 0)
(4.59056e-06 -3.27839e-07 0)
(4.71288e-06 -3.16051e-07 0)
(4.83461e-06 -3.03145e-07 0)
(4.95577e-06 -2.8881e-07 0)
(5.07641e-06 -2.72705e-07 0)
(5.19648e-06 -2.54498e-07 0)
(5.31601e-06 -2.33809e-07 0)
(5.43482e-06 -2.10216e-07 0)
(5.55296e-06 -1.83172e-07 0)
(5.66999e-06 -1.52137e-07 0)
(5.78626e-06 -1.1625e-07 0)
(5.90059e-06 -7.51622e-08 0)
(3.31196e-06 -5.49788e-07 0)
(3.46505e-06 -5.20409e-07 0)
(3.61597e-06 -4.94767e-07 0)
(3.76125e-06 -4.74083e-07 0)
(3.9037e-06 -4.55931e-07 0)
(4.04278e-06 -4.39846e-07 0)
(4.17953e-06 -4.24861e-07 0)
(4.31411e-06 -4.10398e-07 0)
(4.44697e-06 -3.95895e-07 0)
(4.57833e-06 -3.80865e-07 0)
(4.70841e-06 -3.64874e-07 0)
(4.83735e-06 -3.47507e-07 0)
(4.96526e-06 -3.28339e-07 0)
(5.09219e-06 -3.06959e-07 0)
(5.21821e-06 -2.82901e-07 0)
(5.34322e-06 -2.55656e-07 0)
(5.4673e-06 -2.24585e-07 0)
(5.59012e-06 -1.8905e-07 0)
(5.71205e-06 -1.48069e-07 0)
(5.83205e-06 -1.01207e-07 0)
(3.04472e-06 -6.82731e-07 0)
(3.21536e-06 -6.41564e-07 0)
(3.3831e-06 -6.0599e-07 0)
(3.54401e-06 -5.76521e-07 0)
(3.70082e-06 -5.51109e-07 0)
(3.85323e-06 -5.2872e-07 0)
(4.00222e-06 -5.08354e-07 0)
(4.14812e-06 -4.89172e-07 0)
(4.29143e-06 -4.7048e-07 0)
(4.43248e-06 -4.51646e-07 0)
(4.57156e-06 -4.32112e-07 0)
(4.7089e-06 -4.11356e-07 0)
(4.84469e-06 -3.88862e-07 0)
(4.97905e-06 -3.64125e-07 0)
(5.1121e-06 -3.36585e-07 0)
(5.24382e-06 -3.05638e-07 0)
(5.37434e-06 -2.70559e-07 0)
(5.50341e-06 -2.30606e-07 0)
(5.63147e-06 -1.84706e-07 0)
(5.75765e-06 -1.32335e-07 0)
(2.76717e-06 -8.29026e-07 0)
(2.95559e-06 -7.7308e-07 0)
(3.1395e-06 -7.26271e-07 0)
(3.31644e-06 -6.86633e-07 0)
(3.48787e-06 -6.52839e-07 0)
(3.65413e-06 -6.23273e-07 0)
(3.81587e-06 -5.96804e-07 0)
(3.9736e-06 -5.72367e-07 0)
(4.12786e-06 -5.49091e-07 0)
(4.27905e-06 -5.26179e-07 0)
(4.42756e-06 -5.02928e-07 0)
(4.57369e-06 -4.78694e-07 0)
(4.71772e-06 -4.5285e-07 0)
(4.85984e-06 -4.24791e-07 0)
(5.00021e-06 -3.93859e-07 0)
(5.13892e-06 -3.59354e-07 0)
(5.27614e-06 -3.20475e-07 0)
(5.41175e-06 -2.76361e-07 0)
(5.54621e-06 -2.25862e-07 0)
(5.67889e-06 -1.68334e-07 0)
(2.56144e-06 -9.69471e-07 0)
(2.76148e-06 -9.01526e-07 0)
(2.95493e-06 -8.46279e-07 0)
(3.14176e-06 -7.98462e-07 0)
(3.32247e-06 -7.57236e-07 0)
(3.49759e-06 -7.2092e-07 0)
(3.66768e-06 -6.88314e-07 0)
(3.83325e-06 -6.58318e-07 0)
(3.99483e-06 -6.29978e-07 0)
(4.15282e-06 -6.02422e-07 0)
(4.30764e-06 -5.74875e-07 0)
(4.45962e-06 -5.46623e-07 0)
(4.60908e-06 -5.16968e-07 0)
(4.75624e-06 -4.8524e-07 0)
(4.90131e-06 -4.5072e-07 0)
(5.04445e-06 -4.12647e-07 0)
(5.18589e-06 -3.70203e-07 0)
(5.32561e-06 -3.22458e-07 0)
(5.46411e-06 -2.68247e-07 0)
(5.60095e-06 -2.06874e-07 0)
(2.44382e-06 -1.08342e-06 0)
(2.64536e-06 -1.01293e-06 0)
(2.84043e-06 -9.53029e-07 0)
(3.02981e-06 -9.00266e-07 0)
(3.21344e-06 -8.53846e-07 0)
(3.3917e-06 -8.12383e-07 0)
(3.56499e-06 -7.74761e-07 0)
(3.73371e-06 -7.39949e-07 0)
(3.89829e-06 -7.07006e-07 0)
(4.05909e-06 -6.75074e-07 0)
(4.21651e-06 -6.43383e-07 0)
(4.37086e-06 -6.11203e-07 0)
(4.52245e-06 -5.7782e-07 0)
(4.67153e-06 -5.4255e-07 0)
(4.81832e-06 -5.04668e-07 0)
(4.96303e-06 -4.63401e-07 0)
(5.10589e-06 -4.17965e-07 0)
(5.24703e-06 -3.67436e-07 0)
(5.38691e-06 -3.10688e-07 0)
(5.52527e-06 -2.47062e-07 0)
(2.34321e-06 -1.19283e-06 0)
(2.54285e-06 -1.1207e-06 0)
(2.73769e-06 -1.05776e-06 0)
(2.92754e-06 -1.00125e-06 0)
(3.11233e-06 -9.50572e-07 0)
(3.29216e-06 -9.04634e-07 0)
(3.46728e-06 -8.62472e-07 0)
(3.63796e-06 -8.2316e-07 0)
(3.80452e-06 -7.85823e-07 0)
(3.96728e-06 -7.49654e-07 0)
(4.12657e-06 -7.13908e-07 0)
(4.28269e-06 -6.7786e-07 0)
(4.43592e-06 -6.40799e-07 0)
(4.58651e-06 -6.02048e-07 0)
(4.73471e-06 -5.6089e-07 0)
(4.88074e-06 -5.16562e-07 0)
(5.02486e-06 -4.68312e-07 0)
(5.16726e-06 -4.15258e-07 0)
(5.3084e-06 -3.56327e-07 0)
(5.4482e-06 -2.90925e-07 0)
(2.2544e-06 -1.29846e-06 0)
(2.45127e-06 -1.22554e-06 0)
(2.64448e-06 -1.16032e-06 0)
(2.83347e-06 -1.10069e-06 0)
(3.01809e-06 -1.04634e-06 0)
(3.19827e-06 -9.96426e-07 0)
(3.37413e-06 -9.50138e-07 0)
(3.54579e-06 -9.06662e-07 0)
(3.71351e-06 -8.65208e-07 0)
(3.87751e-06 -8.25031e-07 0)
(4.03808e-06 -7.85423e-07 0)
(4.19547e-06 -7.45679e-07 0)
(4.34993e-06 -7.05105e-07 0)
(4.5017e-06 -6.63048e-07 0)
(4.65104e-06 -6.18804e-07 0)
(4.79818e-06 -5.71646e-07 0)
(4.9434e-06 -5.20851e-07 0)
(5.08695e-06 -4.65595e-07 0)
(5.22923e-06 -4.04886e-07 0)
(5.3704e-06 -3.38206e-07 0)
(2.17617e-06 -1.39958e-06 0)
(2.36942e-06 -1.3265e-06 0)
(2.56004e-06 -1.2598e-06 0)
(2.74714e-06 -1.19787e-06 0)
(2.9306e-06 -1.14057e-06 0)
(3.11016e-06 -1.0873e-06 0)
(3.28584e-06 -1.03739e-06 0)
(3.45767e-06 -9.9017e-07 0)
(3.6258e-06 -9.44943e-07 0)
(3.7904e-06 -9.0104e-07 0)
(3.95169e-06 -8.57806e-07 0)
(4.10986e-06 -8.1457e-07 0)
(4.26515e-06 -7.7067e-07 0)
(4.41778e-06 -7.25494e-07 0)
(4.56799e-06 -6.78357e-07 0)
(4.71604e-06 -6.28587e-07 0)
(4.86219e-06 -5.75491e-07 0)
(5.00672e-06 -5.18316e-07 0)
(5.15005e-06 -4.56177e-07 0)
(5.29246e-06 -3.88634e-07 0)
(2.10662e-06 -1.49641e-06 0)
(2.29585e-06 -1.42362e-06 0)
(2.4833e-06 -1.356e-06 0)
(2.66781e-06 -1.29234e-06 0)
(2.84937e-06 -1.23268e-06 0)
(3.02755e-06 -1.17657e-06 0)
(3.20233e-06 -1.12353e-06 0)
(3.37364e-06 -1.073e-06 0)
(3.54157e-06 -1.02437e-06 0)
(3.70621e-06 -9.77072e-07 0)
(3.86772e-06 -9.30499e-07 0)
(4.02625e-06 -8.8403e-07 0)
(4.182e-06 -8.37049e-07 0)
(4.33519e-06 -7.88991e-07 0)
(4.48601e-06 -7.39196e-07 0)
(4.63475e-06 -6.87064e-07 0)
(4.78166e-06 -6.31938e-07 0)
(4.92704e-06 -5.73141e-07 0)
(5.0713e-06 -5.09908e-07 0)
(5.21481e-06 -4.41861e-07 0)
(2.04436e-06 -1.58904e-06 0)
(2.22937e-06 -1.51686e-06 0)
(2.41322e-06 -1.44878e-06 0)
(2.59471e-06 -1.3839e-06 0)
(2.77382e-06 -1.3224e-06 0)
(2.95007e-06 -1.26397e-06 0)
(3.12338e-06 -1.20826e-06 0)
(3.29364e-06 -1.15485e-06 0)
(3.46085e-06 -1.10321e-06 0)
(3.62506e-06 -1.05285e-06 0)
(3.78636e-06 -1.00325e-06 0)
(3.94487e-06 -9.53829e-07 0)
(4.10076e-06 -9.04029e-07 0)
(4.25422e-06 -8.53341e-07 0)
(4.40544e-06 -8.01135e-07 0)
(4.55467e-06 -7.46887e-07 0)
(4.70217e-06 -6.89989e-07 0)
(4.84825e-06 -6.29848e-07 0)
(4.99334e-06 -5.6581e-07 0)
(5.13778e-06 -4.9755e-07 0)
(1.98808e-06 -1.6777e-06 0)
(2.1688e-06 -1.60633e-06 0)
(2.34885e-06 -1.53813e-06 0)
(2.52703e-06 -1.47243e-06 0)
(2.70333e-06 -1.40951e-06 0)
(2.87724e-06 -1.34919e-06 0)
(3.04867e-06 -1.29126e-06 0)
(3.21744e-06 -1.23537e-06 0)
(3.38352e-06 -1.1811e-06 0)
(3.5469e-06 -1.12804e-06 0)
(3.70764e-06 -1.07573e-06 0)
(3.86582e-06 -1.02366e-06 0)
(4.02158e-06 -9.71323e-07 0)
(4.17507e-06 -9.18273e-07 0)
(4.32648e-06 -8.63919e-07 0)
(4.47604e-06 -8.07811e-07 0)
(4.62399e-06 -7.49399e-07 0)
(4.77066e-06 -6.88175e-07 0)
(4.91642e-06 -6.23581e-07 0)
(5.06165e-06 -5.55358e-07 0)
(1.93662e-06 -1.76265e-06 0)
(2.11307e-06 -1.69222e-06 0)
(2.28921e-06 -1.62413e-06 0)
(2.46392e-06 -1.55792e-06 0)
(2.63718e-06 -1.49395e-06 0)
(2.8085e-06 -1.43213e-06 0)
(2.97775e-06 -1.37236e-06 0)
(3.14473e-06 -1.31437e-06 0)
(3.30937e-06 -1.25784e-06 0)
(3.47163e-06 -1.20242e-06 0)
(3.63154e-06 -1.14773e-06 0)
(3.78914e-06 -1.09332e-06 0)
(3.94455e-06 -1.03874e-06 0)
(4.09789e-06 -9.83598e-07 0)
(4.24932e-06 -9.2736e-07 0)
(4.39906e-06 -8.69641e-07 0)
(4.54734e-06 -8.09961e-07 0)
(4.69448e-06 -7.4788e-07 0)
(4.84077e-06 -6.82943e-07 0)
(4.9867e-06 -6.14963e-07 0)
(1.88895e-06 -1.84416e-06 0)
(2.06119e-06 -1.77474e-06 0)
(2.23345e-06 -1.70691e-06 0)
(2.40463e-06 -1.64044e-06 0)
(2.57474e-06 -1.5757e-06 0)
(2.74331e-06 -1.51271e-06 0)
(2.91019e-06 -1.45144e-06 0)
(3.07517e-06 -1.39171e-06 0)
(3.23815e-06 -1.33326e-06 0)
(3.39909e-06 -1.27582e-06 0)
(3.55797e-06 -1.21908e-06 0)
(3.7148e-06 -1.16263e-06 0)
(3.86969e-06 -1.10609e-06 0)
(4.02271e-06 -1.04913e-06 0)
(4.17403e-06 -9.91268e-07 0)
(4.32383e-06 -9.32181e-07 0)
(4.47231e-06 -8.71459e-07 0)
(4.61979e-06 -8.08722e-07 0)
(4.7665e-06 -7.43628e-07 0)
(4.913e-06 -6.76056e-07 0)
(1.84414e-06 -1.92254e-06 0)
(2.01231e-06 -1.85411e-06 0)
(2.18075e-06 -1.78666e-06 0)
(2.34841e-06 -1.7201e-06 0)
(2.51536e-06 -1.65484e-06 0)
(2.6811e-06 -1.59096e-06 0)
(2.84551e-06 -1.5285e-06 0)
(3.00838e-06 -1.46734e-06 0)
(3.16957e-06 -1.40728e-06 0)
(3.32904e-06 -1.34814e-06 0)
(3.48673e-06 -1.28964e-06 0)
(3.64267e-06 -1.23145e-06 0)
(3.7969e-06 -1.17324e-06 0)
(3.94949e-06 -1.11472e-06 0)
(4.10058e-06 -1.05548e-06 0)
(4.25033e-06 -9.95253e-07 0)
(4.39892e-06 -9.33688e-07 0)
(4.54662e-06 -8.70476e-07 0)
(4.69369e-06 -8.0538e-07 0)
(4.8406e-06 -7.38326e-07 0)
(1.80138e-06 -1.99804e-06 0)
(1.96565e-06 -1.93057e-06 0)
(2.13037e-06 -1.86357e-06 0)
(2.29461e-06 -1.79706e-06 0)
(2.45841e-06 -1.73147e-06 0)
(2.62133e-06 -1.66693e-06 0)
(2.78323e-06 -1.60353e-06 0)
(2.94392e-06 -1.54122e-06 0)
(3.10326e-06 -1.47985e-06 0)
(3.26117e-06 -1.4193e-06 0)
(3.41762e-06 -1.35934e-06 0)
(3.57257e-06 -1.29968e-06 0)
(3.72606e-06 -1.24006e-06 0)
(3.87816e-06 -1.18024e-06 0)
(4.02895e-06 -1.11985e-06 0)
(4.17858e-06 -1.05869e-06 0)
(4.32718e-06 -9.96465e-07 0)
(4.47503e-06 -9.32939e-07 0)
(4.62237e-06 -8.67962e-07 0)
(4.76959e-06 -8.01482e-07 0)
(1.75994e-06 -2.07092e-06 0)
(1.92049e-06 -2.00436e-06 0)
(2.08163e-06 -1.93784e-06 0)
(2.24255e-06 -1.87147e-06 0)
(2.40328e-06 -1.8057e-06 0)
(2.56342e-06 -1.74069e-06 0)
(2.72285e-06 -1.6766e-06 0)
(2.88137e-06 -1.61338e-06 0)
(3.03886e-06 -1.55098e-06 0)
(3.19522e-06 -1.48928e-06 0)
(3.35039e-06 -1.42814e-06 0)
(3.50433e-06 -1.36728e-06 0)
(3.65705e-06 -1.3065e-06 0)
(3.80859e-06 -1.24561e-06 0)
(3.95902e-06 -1.18429e-06 0)
(4.10846e-06 -1.12238e-06 0)
(4.25701e-06 -1.05965e-06 0)
(4.40496e-06 -9.95939e-07 0)
(4.55245e-06 -9.31164e-07 0)
(4.6999e-06 -8.65298e-07 0)
(1.71916e-06 -2.14139e-06 0)
(1.87615e-06 -2.0757e-06 0)
(2.03386e-06 -2.00966e-06 0)
(2.1916e-06 -1.94351e-06 0)
(2.34938e-06 -1.87768e-06 0)
(2.50685e-06 -1.81238e-06 0)
(2.66391e-06 -1.74778e-06 0)
(2.82033e-06 -1.68391e-06 0)
(2.97602e-06 -1.62071e-06 0)
(3.13084e-06 -1.55811e-06 0)
(3.28474e-06 -1.49602e-06 0)
(3.43767e-06 -1.4342e-06 0)
(3.58961e-06 -1.37249e-06 0)
(3.74058e-06 -1.31074e-06 0)
(3.89062e-06 -1.24867e-06 0)
(4.03983e-06 -1.18617e-06 0)
(4.1883e-06 -1.12308e-06 0)
(4.33628e-06 -1.05929e-06 0)
(4.48384e-06 -9.94769e-07 0)
(4.63144e-06 -9.29563e-07 0)
(1.67832e-06 -2.20967e-06 0)
(1.83193e-06 -2.14477e-06 0)
(1.98639e-06 -2.07923e-06 0)
(2.14111e-06 -2.01336e-06 0)
(2.29612e-06 -1.94759e-06 0)
(2.45108e-06 -1.88214e-06 0)
(2.60589e-06 -1.81723e-06 0)
(2.76033e-06 -1.75288e-06 0)
(2.91431e-06 -1.68909e-06 0)
(3.06769e-06 -1.62582e-06 0)
(3.2204e-06 -1.56301e-06 0)
(3.37236e-06 -1.50045e-06 0)
(3.52356e-06 -1.43802e-06 0)
(3.67399e-06 -1.37559e-06 0)
(3.82364e-06 -1.31294e-06 0)
(3.97262e-06 -1.25e-06 0)
(4.121e-06 -1.18667e-06 0)
(4.26894e-06 -1.12287e-06 0)
(4.41657e-06 -1.05865e-06 0)
(4.56424e-06 -9.94078e-07 0)
(1.63675e-06 -2.27593e-06 0)
(1.78716e-06 -2.21184e-06 0)
(1.93853e-06 -2.14674e-06 0)
(2.09047e-06 -2.08119e-06 0)
(2.24292e-06 -2.01559e-06 0)
(2.39557e-06 -1.95014e-06 0)
(2.54832e-06 -1.88506e-06 0)
(2.70097e-06 -1.82043e-06 0)
(2.85338e-06 -1.75625e-06 0)
(3.00544e-06 -1.69251e-06 0)
(3.15705e-06 -1.62917e-06 0)
(3.30813e-06 -1.56607e-06 0)
(3.45865e-06 -1.5031e-06 0)
(3.60855e-06 -1.44016e-06 0)
(3.75785e-06 -1.37706e-06 0)
(3.90662e-06 -1.31381e-06 0)
(4.05489e-06 -1.25032e-06 0)
(4.20278e-06 -1.18656e-06 0)
(4.35044e-06 -1.12265e-06 0)
(4.49813e-06 -1.05868e-06 0)
(1.59377e-06 -2.34044e-06 0)
(1.74107e-06 -2.27692e-06 0)
(1.88953e-06 -2.2124e-06 0)
(2.03904e-06 -2.14731e-06 0)
(2.18916e-06 -2.08194e-06 0)
(2.33978e-06 -2.01659e-06 0)
(2.4907e-06 -1.95149e-06 0)
(2.64176e-06 -1.88672e-06 0)
(2.79282e-06 -1.82231e-06 0)
(2.94373e-06 -1.75828e-06 0)
(3.0944e-06 -1.6946e-06 0)
(3.24472e-06 -1.63112e-06 0)
(3.39464e-06 -1.56775e-06 0)
(3.54411e-06 -1.50444e-06 0)
(3.69311e-06 -1.44104e-06 0)
(3.84171e-06 -1.37756e-06 0)
(3.98988e-06 -1.31395e-06 0)
(4.13776e-06 -1.25026e-06 0)
(4.28537e-06 -1.18665e-06 0)
(4.43307e-06 -1.12324e-06 0)
(1.54836e-06 -2.40314e-06 0)
(1.69302e-06 -2.34028e-06 0)
(1.8391e-06 -2.27646e-06 0)
(1.98628e-06 -2.21183e-06 0)
(2.1344e-06 -2.1468e-06 0)
(2.28324e-06 -2.08167e-06 0)
(2.43263e-06 -2.01666e-06 0)
(2.58237e-06 -1.95191e-06 0)
(2.7323e-06 -1.88743e-06 0)
(2.88229e-06 -1.82326e-06 0)
(3.03219e-06 -1.75938e-06 0)
(3.1819e-06 -1.69566e-06 0)
(3.33134e-06 -1.63204e-06 0)
(3.48049e-06 -1.56849e-06 0)
(3.62928e-06 -1.50488e-06 0)
(3.77774e-06 -1.44123e-06 0)
(3.92584e-06 -1.37754e-06 0)
(4.07374e-06 -1.3139e-06 0)
(4.22137e-06 -1.25056e-06 0)
(4.369e-06 -1.18767e-06 0)
(1.49991e-06 -2.46467e-06 0)
(1.64214e-06 -2.40258e-06 0)
(1.78607e-06 -2.3393e-06 0)
(1.93136e-06 -2.27518e-06 0)
(2.07787e-06 -2.21056e-06 0)
(2.22533e-06 -2.14573e-06 0)
(2.37355e-06 -2.08093e-06 0)
(2.52233e-06 -2.0163e-06 0)
(2.67147e-06 -1.95187e-06 0)
(2.82079e-06 -1.88766e-06 0)
(2.97015e-06 -1.82369e-06 0)
(3.11945e-06 -1.75984e-06 0)
(3.26858e-06 -1.69608e-06 0)
(3.41748e-06 -1.63238e-06 0)
(3.56613e-06 -1.5686e-06 0)
(3.71454e-06 -1.50481e-06 0)
(3.86267e-06 -1.44109e-06 0)
(4.01059e-06 -1.37748e-06 0)
(4.1583e-06 -1.31429e-06 0)
(4.30591e-06 -1.25181e-06 0)
(1.44782e-06 -2.52459e-06 0)
(1.58796e-06 -2.46334e-06 0)
(1.73011e-06 -2.40084e-06 0)
(1.87395e-06 -2.33736e-06 0)
(2.01928e-06 -2.27327e-06 0)
(2.16582e-06 -2.20888e-06 0)
(2.31332e-06 -2.14444e-06 0)
(2.46153e-06 -2.08004e-06 0)
(2.61022e-06 -2.01573e-06 0)
(2.75919e-06 -1.95159e-06 0)
(2.90829e-06 -1.88764e-06 0)
(3.05735e-06 -1.82376e-06 0)
(3.20631e-06 -1.7599e-06 0)
(3.3551e-06 -1.6961e-06 0)
(3.50367e-06 -1.63226e-06 0)
(3.65205e-06 -1.56838e-06 0)
(3.80028e-06 -1.50459e-06 0)
(3.94831e-06 -1.44094e-06 0)
(4.09622e-06 -1.37781e-06 0)
(4.24395e-06 -1.31558e-06 0)
(1.06222e-07 -2.17263e-06 0)
(3.20118e-07 -2.1406e-06 0)
(5.38337e-07 -2.07777e-06 0)
(7.63355e-07 -1.98671e-06 0)
(9.97135e-07 -1.87094e-06 0)
(1.24091e-06 -1.73475e-06 0)
(1.49514e-06 -1.58319e-06 0)
(1.75934e-06 -1.42142e-06 0)
(2.03267e-06 -1.25471e-06 0)
(2.31292e-06 -1.08723e-06 0)
(1.03226e-07 -2.20823e-06 0)
(3.10918e-07 -2.17894e-06 0)
(5.22196e-07 -2.12147e-06 0)
(7.39163e-07 -2.038e-06 0)
(9.63482e-07 -1.93151e-06 0)
(1.19619e-06 -1.80566e-06 0)
(1.43774e-06 -1.66473e-06 0)
(1.68756e-06 -1.51321e-06 0)
(1.94462e-06 -1.35586e-06 0)
(2.20694e-06 -1.19638e-06 0)
(1.00574e-07 -2.24464e-06 0)
(3.0275e-07 -2.21785e-06 0)
(5.0786e-07 -2.16524e-06 0)
(7.17575e-07 -2.08868e-06 0)
(9.33318e-07 -1.99079e-06 0)
(1.15592e-06 -1.87473e-06 0)
(1.38588e-06 -1.74417e-06 0)
(1.62289e-06 -1.60291e-06 0)
(1.86628e-06 -1.455e-06 0)
(2.11461e-06 -1.30308e-06 0)
(9.82281e-08 -2.28194e-06 0)
(2.95517e-07 -2.25728e-06 0)
(4.95282e-07 -2.20882e-06 0)
(6.98827e-07 -2.1382e-06 0)
(9.07373e-07 -2.04771e-06 0)
(1.12157e-06 -1.94015e-06 0)
(1.34179e-06 -1.81872e-06 0)
(1.56776e-06 -1.68682e-06 0)
(1.79888e-06 -1.5482e-06 0)
(2.03397e-06 -1.405e-06 0)
(9.60791e-08 -2.32015e-06 0)
(2.88877e-07 -2.29738e-06 0)
(4.83749e-07 -2.25265e-06 0)
(6.81724e-07 -2.18736e-06 0)
(8.83834e-07 -2.10359e-06 0)
(1.0906e-06 -2.00381e-06 0)
(1.30237e-06 -1.89086e-06 0)
(1.51889e-06 -1.76763e-06 0)
(1.73974e-06 -1.63753e-06 0)
(1.96352e-06 -1.50252e-06 0)
(9.40672e-08 -2.35919e-06 0)
(2.82748e-07 -2.33807e-06 0)
(4.73151e-07 -2.29656e-06 0)
(6.66149e-07 -2.23596e-06 0)
(8.62582e-07 -2.15808e-06 0)
(1.06287e-06 -2.06518e-06 0)
(1.26726e-06 -1.95984e-06 0)
(1.47548e-06 -1.8446e-06 0)
(1.68734e-06 -1.72255e-06 0)
(1.90126e-06 -1.59563e-06 0)
(9.21466e-08 -2.39902e-06 0)
(2.76925e-07 -2.37939e-06 0)
(4.63142e-07 -2.34076e-06 0)
(6.51556e-07 -2.28435e-06 0)
(8.42826e-07 -2.21176e-06 0)
(1.03734e-06 -2.12507e-06 0)
(1.23526e-06 -2.02662e-06 0)
(1.43628e-06 -1.91866e-06 0)
(1.64038e-06 -1.80396e-06 0)
(1.84581e-06 -1.68455e-06 0)
(9.03206e-08 -2.43956e-06 0)
(2.71342e-07 -2.42124e-06 0)
(4.53603e-07 -2.38516e-06 0)
(6.37745e-07 -2.33247e-06 0)
(8.24298e-07 -2.26461e-06 0)
(1.01358e-06 -2.18346e-06 0)
(1.20573e-06 -2.09122e-06 0)
(1.4004e-06 -1.9899e-06 0)
(1.5977e-06 -1.88199e-06 0)
(1.79581e-06 -1.76958e-06 0)
(8.85317e-08 -2.48076e-06 0)
(2.6589e-07 -2.4636e-06 0)
(4.44346e-07 -2.42981e-06 0)
(6.24421e-07 -2.38045e-06 0)
(8.06581e-07 -2.31684e-06 0)
(9.91074e-07 -2.2407e-06 0)
(1.17802e-06 -2.15405e-06 0)
(1.36704e-06 -2.05877e-06 0)
(1.55834e-06 -1.95705e-06 0)
(1.75012e-06 -1.85104e-06 0)
(8.67385e-08 -2.5225e-06 0)
(2.60505e-07 -2.5064e-06 0)
(4.35245e-07 -2.47466e-06 0)
(6.11406e-07 -2.42828e-06 0)
(7.89395e-07 -2.36849e-06 0)
(9.6944e-07 -2.29686e-06 0)
(1.15162e-06 -2.21526e-06 0)
(1.33555e-06 -2.12548e-06 0)
(1.5215e-06 -2.02942e-06 0)
(1.70772e-06 -1.92927e-06 0)
(8.4934e-08 -2.56471e-06 0)
(2.55125e-07 -2.54958e-06 0)
(4.26166e-07 -2.51968e-06 0)
(5.98507e-07 -2.47599e-06 0)
(7.72478e-07 -2.41965e-06 0)
(9.48309e-07 -2.3521e-06 0)
(1.12606e-06 -2.27508e-06 0)
(1.30536e-06 -2.19028e-06 0)
(1.48646e-06 -2.0994e-06 0)
(1.66776e-06 -2.00457e-06 0)
(8.31187e-08 -2.60728e-06 0)
(2.49687e-07 -2.59304e-06 0)
(4.16999e-07 -2.56481e-06 0)
(5.85553e-07 -2.52355e-06 0)
(7.556e-07 -2.47034e-06 0)
(9.27373e-07 -2.40649e-06 0)
(1.10094e-06 -2.33362e-06 0)
(1.27594e-06 -2.25334e-06 0)
(1.45261e-06 -2.16719e-06 0)
(1.62949e-06 -2.07721e-06 0)
(8.12664e-08 -2.65013e-06 0)
(2.44102e-07 -2.63668e-06 0)
(4.0762e-07 -2.60998e-06 0)
(5.72355e-07 -2.57093e-06 0)
(7.38516e-07 -2.52056e-06 0)
(9.06322e-07 -2.46009e-06 0)
(1.07587e-06 -2.39101e-06 0)
(1.24681e-06 -2.31485e-06 0)
(1.41936e-06 -2.233e-06 0)
(1.59224e-06 -2.14744e-06 0)
(7.93365e-08 -2.69311e-06 0)
(2.38284e-07 -2.68036e-06 0)
(3.97903e-07 -2.65507e-06 0)
(5.58729e-07 -2.61805e-06 0)
(7.20975e-07 -2.57028e-06 0)
(8.84847e-07 -2.5129e-06 0)
(1.05047e-06 -2.44729e-06 0)
(1.21752e-06 -2.37491e-06 0)
(1.38619e-06 -2.29702e-06 0)
(1.55537e-06 -2.21548e-06 0)
(7.72962e-08 -2.73611e-06 0)
(2.3216e-07 -2.724e-06 0)
(3.87719e-07 -2.70002e-06 0)
(5.44494e-07 -2.66487e-06 0)
(7.02731e-07 -2.6195e-06 0)
(8.6263e-07 -2.56497e-06 0)
(1.02433e-06 -2.50256e-06 0)
(1.18758e-06 -2.43365e-06 0)
(1.35251e-06 -2.3594e-06 0)
(1.51818e-06 -2.28154e-06 0)
(7.5126e-08 -2.77889e-06 0)
(2.25666e-07 -2.76738e-06 0)
(3.76944e-07 -2.74462e-06 0)
(5.29464e-07 -2.71123e-06 0)
(6.83527e-07 -2.66809e-06 0)
(8.3934e-07 -2.6162e-06 0)
(9.97062e-07 -2.55677e-06 0)
(1.15652e-06 -2.49107e-06 0)
(1.31778e-06 -2.4202e-06 0)
(1.48007e-06 -2.34571e-06 0)
(7.28026e-08 -2.8214e-06 0)
(2.18713e-07 -2.81045e-06 0)
(3.65408e-07 -2.78885e-06 0)
(5.13401e-07 -2.7571e-06 0)
(6.63055e-07 -2.71606e-06 0)
(8.14595e-07 -2.66666e-06 0)
(9.68212e-07 -2.61003e-06 0)
(1.12378e-06 -2.54734e-06 0)
(1.28136e-06 -2.47961e-06 0)
(1.4403e-06 -2.40829e-06 0)
(7.02906e-08 -2.86319e-06 0)
(2.11186e-07 -2.85279e-06 0)
(3.52927e-07 -2.83228e-06 0)
(4.96049e-07 -2.80212e-06 0)
(6.40976e-07 -2.76308e-06 0)
(7.87979e-07 -2.71606e-06 0)
(9.37276e-07 -2.66208e-06 0)
(1.08877e-06 -2.60225e-06 0)
(1.24258e-06 -2.53749e-06 0)
(1.39815e-06 -2.46917e-06 0)
(6.75315e-08 -2.90446e-06 0)
(2.02916e-07 -2.89459e-06 0)
(3.39226e-07 -2.87513e-06 0)
(4.77042e-07 -2.8465e-06 0)
(6.16833e-07 -2.80943e-06 0)
(7.58932e-07 -2.76471e-06 0)
(9.0359e-07 -2.71328e-06 0)
(1.0508e-06 -2.65619e-06 0)
(1.20064e-06 -2.59432e-06 0)
(1.35276e-06 -2.52887e-06 0)
(6.45e-08 -2.94402e-06 0)
(1.93844e-07 -2.93469e-06 0)
(3.24201e-07 -2.91628e-06 0)
(4.56203e-07 -2.88918e-06 0)
(5.90391e-07 -2.85405e-06 0)
(7.27165e-07 -2.81163e-06 0)
(8.66806e-07 -2.76277e-06 0)
(1.00945e-06 -2.70841e-06 0)
(1.15512e-06 -2.64941e-06 0)
(1.30365e-06 -2.58688e-06 0)
)


// ************************************************************************* //
