/*--------------------------------*- C++ -*----------------------------------*\
| =========                 |                                                 |
| \\      /  F ield         | foam-extend: Open Source CFD                    |
|  \\    /   O peration     | Version:     4.1                                |
|   \\  /    A nd           | Web:         http://www.foam-extend.org         |
|    \\/     M anipulation  |                                                 |
\*---------------------------------------------------------------------------*/
FoamFile
{
    version     2.0;
    format      ascii;
    class       vectorField;
    location    "5";
    object      solidsCellD_iteration15;
}
// * * * * * * * * * * * * * * * * * * * * * * * * * * * * * * * * * * * * * //


1000
(
(2.58803e-06 -1.09242e-06 0)
(2.44181e-06 -1.01664e-06 0)
(2.34843e-06 -9.68592e-07 0)
(2.29478e-06 -9.46257e-07 0)
(2.26857e-06 -9.38647e-07 0)
(2.2624e-06 -9.42392e-07 0)
(2.27098e-06 -9.53558e-07 0)
(2.29058e-06 -9.70258e-07 0)
(2.31863e-06 -9.90688e-07 0)
(2.35296e-06 -1.01364e-06 0)
(2.33999e-06 -1.19334e-06 0)
(2.18435e-06 -1.14069e-06 0)
(2.08501e-06 -1.10727e-06 0)
(2.02697e-06 -1.09487e-06 0)
(1.99731e-06 -1.09385e-06 0)
(1.98803e-06 -1.10225e-06 0)
(1.99364e-06 -1.11671e-06 0)
(2.01019e-06 -1.13589e-06 0)
(2.03494e-06 -1.1583e-06 0)
(2.06535e-06 -1.18262e-06 0)
(2.08232e-06 -1.28899e-06 0)
(1.92335e-06 -1.2622e-06 0)
(1.82191e-06 -1.24516e-06 0)
(1.76196e-06 -1.24372e-06 0)
(1.73047e-06 -1.2499e-06 0)
(1.71907e-06 -1.26325e-06 0)
(1.72229e-06 -1.28116e-06 0)
(1.73614e-06 -1.30278e-06 0)
(1.75784e-06 -1.32712e-06 0)
(1.78498e-06 -1.35275e-06 0)
(1.81689e-06 -1.37767e-06 0)
(1.66129e-06 -1.37798e-06 0)
(1.56199e-06 -1.37814e-06 0)
(1.50279e-06 -1.38815e-06 0)
(1.4711e-06 -1.40178e-06 0)
(1.4586e-06 -1.42021e-06 0)
(1.45995e-06 -1.44157e-06 0)
(1.47137e-06 -1.46564e-06 0)
(1.49018e-06 -1.49181e-06 0)
(1.51398e-06 -1.51885e-06 0)
(1.54561e-06 -1.45762e-06 0)
(1.39992e-06 -1.48481e-06 0)
(1.30697e-06 -1.50199e-06 0)
(1.25127e-06 -1.5233e-06 0)
(1.22103e-06 -1.54426e-06 0)
(1.20838e-06 -1.56768e-06 0)
(1.20843e-06 -1.59241e-06 0)
(1.21766e-06 -1.61885e-06 0)
(1.23366e-06 -1.64679e-06 0)
(1.25406e-06 -1.67528e-06 0)
(1.26967e-06 -1.52724e-06 0)
(1.14039e-06 -1.57957e-06 0)
(1.05795e-06 -1.61271e-06 0)
(1.00826e-06 -1.64459e-06 0)
(9.81002e-07 -1.67239e-06 0)
(9.69137e-07 -1.70043e-06 0)
(9.68443e-07 -1.72827e-06 0)
(9.75719e-07 -1.75691e-06 0)
(9.88881e-07 -1.78648e-06 0)
(1.00572e-06 -1.81641e-06 0)
(9.9053e-07 -1.58495e-06 0)
(8.83335e-07 -1.6593e-06 0)
(8.14986e-07 -1.70644e-06 0)
(7.73639e-07 -1.7476e-06 0)
(7.50806e-07 -1.78137e-06 0)
(7.40625e-07 -1.81345e-06 0)
(7.39619e-07 -1.84399e-06 0)
(7.45085e-07 -1.87457e-06 0)
(7.55357e-07 -1.90556e-06 0)
(7.68532e-07 -1.93679e-06 0)
(7.0908e-07 -1.62947e-06 0)
(6.28771e-07 -1.72152e-06 0)
(5.77598e-07 -1.77988e-06 0)
(5.46592e-07 -1.82845e-06 0)
(5.29404e-07 -1.86703e-06 0)
(5.21605e-07 -1.90237e-06 0)
(5.20601e-07 -1.93511e-06 0)
(5.24369e-07 -1.96726e-06 0)
(5.31717e-07 -1.99939e-06 0)
(5.41163e-07 -2.0317e-06 0)
(4.26094e-07 -1.65975e-06 0)
(3.76374e-07 -1.76414e-06 0)
(3.44731e-07 -1.83034e-06 0)
(3.25493e-07 -1.88413e-06 0)
(3.14761e-07 -1.92607e-06 0)
(3.09827e-07 -1.96367e-06 0)
(3.09127e-07 -1.99796e-06 0)
(3.11366e-07 -2.03124e-06 0)
(3.15776e-07 -2.06419e-06 0)
(3.21445e-07 -2.09729e-06 0)
(1.42306e-07 -1.675e-06 0)
(1.25474e-07 -1.7858e-06 0)
(1.14689e-07 -1.85603e-06 0)
(1.08138e-07 -1.91249e-06 0)
(1.04521e-07 -1.95617e-06 0)
(1.02828e-07 -1.99496e-06 0)
(1.0252e-07 -2.03001e-06 0)
(1.0324e-07 -2.06386e-06 0)
(1.04722e-07 -2.09724e-06 0)
(1.06609e-07 -2.13076e-06 0)
(4.03951e-06 -4.98182e-08 0)
(4.07579e-06 -3.58698e-08 0)
(4.09774e-06 -2.70294e-08 0)
(4.12143e-06 -2.1834e-08 0)
(4.14734e-06 -1.89439e-08 0)
(4.17914e-06 -1.76201e-08 0)
(4.21685e-06 -1.73777e-08 0)
(4.26086e-06 -1.77938e-08 0)
(4.31109e-06 -1.8715e-08 0)
(4.36686e-06 -1.98551e-08 0)
(4.00954e-06 -1.49489e-07 0)
(4.03978e-06 -1.08459e-07 0)
(4.05795e-06 -8.24501e-08 0)
(4.07908e-06 -6.72531e-08 0)
(4.10329e-06 -5.89204e-08 0)
(4.13387e-06 -5.50878e-08 0)
(4.17073e-06 -5.43804e-08 0)
(4.21404e-06 -5.57462e-08 0)
(4.26366e-06 -5.85788e-08 0)
(4.31879e-06 -6.19563e-08 0)
(3.94978e-06 -2.49978e-07 0)
(3.96844e-06 -1.84139e-07 0)
(3.9793e-06 -1.42452e-07 0)
(3.99557e-06 -1.18051e-07 0)
(4.01658e-06 -1.04719e-07 0)
(4.04491e-06 -9.87726e-08 0)
(4.08006e-06 -9.78326e-08 0)
(4.12205e-06 -1.00179e-07 0)
(4.17049e-06 -1.04888e-07 0)
(4.2244e-06 -1.10537e-07 0)
(3.86125e-06 -3.51766e-07 0)
(3.86344e-06 -2.64647e-07 0)
(3.86384e-06 -2.0957e-07 0)
(3.87322e-06 -1.77481e-07 0)
(3.88964e-06 -1.60015e-07 0)
(3.91477e-06 -1.52378e-07 0)
(3.94754e-06 -1.51408e-07 0)
(3.98764e-06 -1.5485e-07 0)
(4.03442e-06 -1.61409e-07 0)
(4.08662e-06 -1.69318e-07 0)
(3.7453e-06 -4.55111e-07 0)
(3.72716e-06 -3.51443e-07 0)
(3.71464e-06 -2.8594e-07 0)
(3.71546e-06 -2.48052e-07 0)
(3.72621e-06 -2.27619e-07 0)
(3.74733e-06 -2.18988e-07 0)
(3.77715e-06 -2.18332e-07 0)
(3.81486e-06 -2.23022e-07 0)
(3.85961e-06 -2.31417e-07 0)
(3.90974e-06 -2.41553e-07 0)
(3.60364e-06 -5.60101e-07 0)
(3.56251e-06 -4.45543e-07 0)
(3.53543e-06 -3.73142e-07 0)
(3.52659e-06 -3.31677e-07 0)
(3.5309e-06 -3.09636e-07 0)
(3.54744e-06 -3.00813e-07 0)
(3.5739e-06 -3.00882e-07 0)
(3.60889e-06 -3.06991e-07 0)
(3.65127e-06 -3.1723e-07 0)
(3.69907e-06 -3.2955e-07 0)
(3.43843e-06 -6.66507e-07 0)
(3.37297e-06 -5.47334e-07 0)
(3.33049e-06 -4.71964e-07 0)
(3.31143e-06 -4.29371e-07 0)
(3.30892e-06 -4.07198e-07 0)
(3.3206e-06 -3.99078e-07 0)
(3.34347e-06 -4.00352e-07 0)
(3.37553e-06 -4.08052e-07 0)
(3.41534e-06 -4.20131e-07 0)
(3.46068e-06 -4.34549e-07 0)
(3.25183e-06 -7.7381e-07 0)
(3.16227e-06 -6.56532e-07 0)
(3.10457e-06 -5.82297e-07 0)
(3.07533e-06 -5.41172e-07 0)
(3.06604e-06 -5.20431e-07 0)
(3.07282e-06 -5.13963e-07 0)
(3.09197e-06 -5.16959e-07 0)
(3.12098e-06 -5.26497e-07 0)
(3.15808e-06 -5.40442e-07 0)
(3.20083e-06 -5.56918e-07 0)
(3.04628e-06 -8.81292e-07 0)
(2.93431e-06 -7.72231e-07 0)
(2.86247e-06 -7.03189e-07 0)
(2.8237e-06 -6.66074e-07 0)
(2.80797e-06 -6.48314e-07 0)
(2.80995e-06 -6.444e-07 0)
(2.82539e-06 -6.49637e-07 0)
(2.85131e-06 -6.61228e-07 0)
(2.88559e-06 -6.77181e-07 0)
(2.9258e-06 -6.95501e-07 0)
(2.82421e-06 -9.87938e-07 0)
(2.693e-06 -8.92954e-07 0)
(2.60898e-06 -8.32805e-07 0)
(2.56191e-06 -8.02076e-07 0)
(2.54044e-06 -7.88762e-07 0)
(2.53809e-06 -7.88283e-07 0)
(2.55011e-06 -7.96263e-07 0)
(2.57296e-06 -8.10308e-07 0)
(2.60448e-06 -8.2837e-07 0)
(2.64189e-06 -8.4944e-07 0)
(4.42833e-06 -2.09756e-08 0)
(4.49532e-06 -2.12265e-08 0)
(4.56658e-06 -2.15072e-08 0)
(4.64184e-06 -2.17089e-08 0)
(4.72065e-06 -2.18185e-08 0)
(4.80271e-06 -2.18249e-08 0)
(4.88764e-06 -2.16791e-08 0)
(4.97511e-06 -2.1399e-08 0)
(5.06488e-06 -2.09987e-08 0)
(5.15667e-06 -2.04573e-08 0)
(5.25019e-06 -1.97489e-08 0)
(5.34517e-06 -1.88598e-08 0)
(5.44134e-06 -1.77742e-08 0)
(5.53842e-06 -1.64799e-08 0)
(5.63616e-06 -1.496e-08 0)
(5.73419e-06 -1.31861e-08 0)
(5.83233e-06 -1.11174e-08 0)
(5.92994e-06 -8.70905e-09 0)
(6.02712e-06 -5.90423e-09 0)
(6.12237e-06 -2.67984e-09 0)
(4.38238e-06 -6.50581e-08 0)
(4.45322e-06 -6.55062e-08 0)
(4.52791e-06 -6.60975e-08 0)
(4.60617e-06 -6.6499e-08 0)
(4.68766e-06 -6.66055e-08 0)
(4.77206e-06 -6.64346e-08 0)
(4.85911e-06 -6.59098e-08 0)
(4.94852e-06 -6.50316e-08 0)
(5.04006e-06 -6.37579e-08 0)
(5.13344e-06 -6.20344e-08 0)
(5.22841e-06 -5.98263e-08 0)
(5.32475e-06 -5.71142e-08 0)
(5.42221e-06 -5.38463e-08 0)
(5.5205e-06 -4.99608e-08 0)
(5.6194e-06 -4.5385e-08 0)
(5.71854e-06 -4.00377e-08 0)
(5.81773e-06 -3.38089e-08 0)
(5.91635e-06 -2.65785e-08 0)
(6.01455e-06 -1.8167e-08 0)
(6.11076e-06 -8.50309e-09 0)
(4.29214e-06 -1.14998e-07 0)
(4.37053e-06 -1.14798e-07 0)
(4.45195e-06 -1.14921e-07 0)
(4.53601e-06 -1.14935e-07 0)
(4.6227e-06 -1.14584e-07 0)
(4.71174e-06 -1.13888e-07 0)
(4.80298e-06 -1.12669e-07 0)
(4.89614e-06 -1.10906e-07 0)
(4.99108e-06 -1.08521e-07 0)
(5.08756e-06 -1.0545e-07 0)
(5.18542e-06 -1.01636e-07 0)
(5.28443e-06 -9.70243e-08 0)
(5.38437e-06 -9.15088e-08 0)
(5.48499e-06 -8.49782e-08 0)
(5.58609e-06 -7.7315e-08 0)
(5.68734e-06 -6.83855e-08 0)
(5.78858e-06 -5.80013e-08 0)
(5.88922e-06 -4.59645e-08 0)
(5.9894e-06 -3.19643e-08 0)
(6.08762e-06 -1.58824e-08 0)
(4.16027e-06 -1.74108e-07 0)
(4.24945e-06 -1.71943e-07 0)
(4.34061e-06 -1.70395e-07 0)
(4.43315e-06 -1.69092e-07 0)
(4.52746e-06 -1.675e-07 0)
(4.62323e-06 -1.65651e-07 0)
(4.72056e-06 -1.63224e-07 0)
(4.8192e-06 -1.60184e-07 0)
(4.91918e-06 -1.56396e-07 0)
(5.02029e-06 -1.51748e-07 0)
(5.1224e-06 -1.46134e-07 0)
(5.22534e-06 -1.39453e-07 0)
(5.32894e-06 -1.31559e-07 0)
(5.433e-06 -1.22304e-07 0)
(5.53736e-06 -1.11525e-07 0)
(5.64173e-06 -9.90141e-08 0)
(5.74597e-06 -8.4504e-08 0)
(5.84954e-06 -6.77061e-08 0)
(5.95256e-06 -4.81694e-08 0)
(6.05366e-06 -2.57491e-08 0)
(3.99077e-06 -2.45338e-07 0)
(4.09353e-06 -2.39492e-07 0)
(4.19704e-06 -2.34731e-07 0)
(4.30031e-06 -2.30927e-07 0)
(4.40432e-06 -2.27091e-07 0)
(4.50873e-06 -2.23283e-07 0)
(4.61388e-06 -2.19001e-07 0)
(4.71962e-06 -2.1417e-07 0)
(4.82605e-06 -2.08546e-07 0)
(4.93306e-06 -2.01966e-07 0)
(5.04063e-06 -1.94277e-07 0)
(5.14865e-06 -1.85328e-07 0)
(5.25702e-06 -1.74919e-07 0)
(5.36556e-06 -1.62844e-07 0)
(5.47418e-06 -1.48883e-07 0)
(5.58259e-06 -1.32755e-07 0)
(5.69073e-06 -1.14113e-07 0)
(5.79807e-06 -9.25849e-08 0)
(5.90482e-06 -6.75776e-08 0)
(6.00963e-06 -3.89129e-08 0)
(3.7884e-06 -3.30827e-07 0)
(3.90678e-06 -3.19304e-07 0)
(4.02476e-06 -3.09486e-07 0)
(4.1407e-06 -3.01735e-07 0)
(4.25626e-06 -2.94468e-07 0)
(4.37099e-06 -2.87731e-07 0)
(4.48545e-06 -2.80792e-07 0)
(4.59968e-06 -2.73501e-07 0)
(4.71387e-06 -2.65527e-07 0)
(4.82801e-06 -2.56622e-07 0)
(4.94218e-06 -2.46564e-07 0)
(5.05633e-06 -2.3513e-07 0)
(5.17041e-06 -2.22048e-07 0)
(5.28433e-06 -2.07054e-07 0)
(5.39802e-06 -1.89851e-07 0)
(5.51128e-06 -1.70096e-07 0)
(5.6241e-06 -1.47348e-07 0)
(5.73596e-06 -1.21161e-07 0)
(5.8472e-06 -9.08012e-08 0)
(5.95648e-06 -5.60125e-08 0)
(3.55888e-06 -4.31842e-07 0)
(3.69424e-06 -4.12639e-07 0)
(3.82818e-06 -3.95944e-07 0)
(3.95821e-06 -3.8269e-07 0)
(4.08662e-06 -3.70723e-07 0)
(4.21296e-06 -3.59964e-07 0)
(4.33799e-06 -3.49524e-07 0)
(4.46185e-06 -3.39077e-07 0)
(4.58489e-06 -3.28189e-07 0)
(4.7072e-06 -3.16511e-07 0)
(4.82892e-06 -3.03725e-07 0)
(4.95009e-06 -2.89516e-07 0)
(5.07073e-06 -2.73544e-07 0)
(5.19082e-06 -2.55481e-07 0)
(5.31036e-06 -2.34953e-07 0)
(5.4292e-06 -2.11546e-07 0)
(5.54739e-06 -1.84718e-07 0)
(5.66448e-06 -1.53938e-07 0)
(5.78083e-06 -1.18348e-07 0)
(5.89524e-06 -7.76031e-08 0)
(3.3078e-06 -5.48719e-07 0)
(3.46067e-06 -5.1957e-07 0)
(3.61139e-06 -4.94136e-07 0)
(3.75651e-06 -4.7364e-07 0)
(3.89883e-06 -4.5566e-07 0)
(4.0378e-06 -4.39728e-07 0)
(4.17447e-06 -4.24887e-07 0)
(4.30898e-06 -4.10561e-07 0)
(4.4418e-06 -3.96192e-07 0)
(4.57313e-06 -3.813e-07 0)
(4.7032e-06 -3.65452e-07 0)
(4.83213e-06 -3.48232e-07 0)
(4.96003e-06 -3.29219e-07 0)
(5.08696e-06 -3.08005e-07 0)
(5.21299e-06 -2.84134e-07 0)
(5.33803e-06 -2.57105e-07 0)
(5.46216e-06 -2.26282e-07 0)
(5.58504e-06 -1.91038e-07 0)
(5.70703e-06 -1.50394e-07 0)
(5.82712e-06 -1.03916e-07 0)
(3.04132e-06 -6.81195e-07 0)
(3.21171e-06 -6.40311e-07 0)
(3.37922e-06 -6.04999e-07 0)
(3.53994e-06 -5.75772e-07 0)
(3.69659e-06 -5.50579e-07 0)
(3.84887e-06 -5.2839e-07 0)
(3.99775e-06 -5.08208e-07 0)
(4.14356e-06 -4.892e-07 0)
(4.28681e-06 -4.70677e-07 0)
(4.42782e-06 -4.52011e-07 0)
(4.56687e-06 -4.32647e-07 0)
(4.70418e-06 -4.12064e-07 0)
(4.83995e-06 -3.89749e-07 0)
(4.9743e-06 -3.65205e-07 0)
(5.10736e-06 -3.3788e-07 0)
(5.23911e-06 -3.07178e-07 0)
(5.36967e-06 -2.72378e-07 0)
(5.4988e-06 -2.32749e-07 0)
(5.62692e-06 -1.8722e-07 0)
(5.75318e-06 -1.35269e-07 0)
(2.76452e-06 -8.26967e-07 0)
(2.9527e-06 -7.71344e-07 0)
(3.13638e-06 -7.24854e-07 0)
(3.31312e-06 -6.85519e-07 0)
(3.48437e-06 -6.51998e-07 0)
(3.65047e-06 -6.22682e-07 0)
(3.81207e-06 -5.9644e-07 0)
(3.96969e-06 -5.72217e-07 0)
(4.12387e-06 -5.49146e-07 0)
(4.275e-06 -5.26433e-07 0)
(4.42346e-06 -5.03382e-07 0)
(4.56954e-06 -4.79348e-07 0)
(4.71354e-06 -4.53711e-07 0)
(4.85563e-06 -4.25873e-07 0)
(4.99601e-06 -3.95184e-07 0)
(5.13474e-06 -3.60954e-07 0)
(5.272e-06 -3.22382e-07 0)
(5.40765e-06 -2.78622e-07 0)
(5.54218e-06 -2.28524e-07 0)
(5.67491e-06 -1.71445e-07 0)
(2.55912e-06 -9.67094e-07 0)
(2.75902e-06 -8.99447e-07 0)
(2.95231e-06 -8.4453e-07 0)
(3.13898e-06 -7.97038e-07 0)
(3.31952e-06 -7.56116e-07 0)
(3.49449e-06 -7.20084e-07 0)
(3.66443e-06 -6.87739e-07 0)
(3.82989e-06 -6.5799e-07 0)
(3.99138e-06 -6.29888e-07 0)
(4.1493e-06 -6.02562e-07 0)
(4.30406e-06 -5.75243e-07 0)
(4.45599e-06 -5.47219e-07 0)
(4.60541e-06 -5.17799e-07 0)
(4.75255e-06 -4.86318e-07 0)
(4.89762e-06 -4.52068e-07 0)
(5.04078e-06 -4.14294e-07 0)
(5.18224e-06 -3.72181e-07 0)
(5.322e-06 -3.24811e-07 0)
(5.46055e-06 -2.71023e-07 0)
(5.59743e-06 -2.10115e-07 0)
(2.44178e-06 -1.08092e-06 0)
(2.64319e-06 -1.01073e-06 0)
(2.83812e-06 -9.51136e-07 0)
(3.02734e-06 -8.98689e-07 0)
(3.21084e-06 -8.52578e-07 0)
(3.38896e-06 -8.11409e-07 0)
(3.56212e-06 -7.74067e-07 0)
(3.73075e-06 -7.39521e-07 0)
(3.89525e-06 -7.06837e-07 0)
(4.05599e-06 -6.75157e-07 0)
(4.21335e-06 -6.43715e-07 0)
(4.36765e-06 -6.11787e-07 0)
(4.51922e-06 -5.78662e-07 0)
(4.66828e-06 -5.43662e-07 0)
(4.81507e-06 -5.06069e-07 0)
(4.9598e-06 -4.65119e-07 0)
(5.10269e-06 -4.2003e-07 0)
(5.24386e-06 -3.69887e-07 0)
(5.38378e-06 -3.13572e-07 0)
(5.52217e-06 -2.50414e-07 0)
(2.34154e-06 -1.19014e-06 0)
(2.54104e-06 -1.11834e-06 0)
(2.73573e-06 -1.05572e-06 0)
(2.92545e-06 -9.99535e-07 0)
(3.11011e-06 -9.49176e-07 0)
(3.28981e-06 -9.03544e-07 0)
(3.46482e-06 -8.61675e-07 0)
(3.63541e-06 -8.22647e-07 0)
(3.8019e-06 -7.85587e-07 0)
(3.96459e-06 -7.49689e-07 0)
(4.12383e-06 -7.14212e-07 0)
(4.27991e-06 -6.78437e-07 0)
(4.43313e-06 -6.41655e-07 0)
(4.58371e-06 -6.03192e-07 0)
(4.73191e-06 -5.62342e-07 0)
(4.87796e-06 -5.18344e-07 0)
(5.0221e-06 -4.70454e-07 0)
(5.16453e-06 -4.17794e-07 0)
(5.30569e-06 -3.59302e-07 0)
(5.44552e-06 -2.9437e-07 0)
(2.2531e-06 -1.29559e-06 0)
(2.44981e-06 -1.22302e-06 0)
(2.64288e-06 -1.15813e-06 0)
(2.83174e-06 -1.09884e-06 0)
(3.01624e-06 -1.04482e-06 0)
(3.19631e-06 -9.95223e-07 0)
(3.37207e-06 -9.49241e-07 0)
(3.54365e-06 -9.06064e-07 0)
(3.7113e-06 -8.64904e-07 0)
(3.87524e-06 -8.25015e-07 0)
(4.03576e-06 -7.85696e-07 0)
(4.19312e-06 -7.46246e-07 0)
(4.34756e-06 -7.0597e-07 0)
(4.49934e-06 -6.64219e-07 0)
(4.64868e-06 -6.20299e-07 0)
(4.79584e-06 -5.73483e-07 0)
(4.94109e-06 -5.23058e-07 0)
(5.08465e-06 -4.68202e-07 0)
(5.22695e-06 -4.07935e-07 0)
(5.36815e-06 -3.41725e-07 0)
(2.1752e-06 -1.39654e-06 0)
(2.36831e-06 -1.32382e-06 0)
(2.55879e-06 -1.25747e-06 0)
(2.74577e-06 -1.19589e-06 0)
(2.92911e-06 -1.13893e-06 0)
(3.10857e-06 -1.08599e-06 0)
(3.28416e-06 -1.0364e-06 0)
(3.45591e-06 -9.89496e-07 0)
(3.62398e-06 -9.44578e-07 0)
(3.78854e-06 -9.00981e-07 0)
(3.94978e-06 -8.58054e-07 0)
(4.10793e-06 -8.15129e-07 0)
(4.26321e-06 -7.71545e-07 0)
(4.41585e-06 -7.2669e-07 0)
(4.56607e-06 -6.79891e-07 0)
(4.71414e-06 -6.30472e-07 0)
(4.86031e-06 -5.77755e-07 0)
(5.00486e-06 -5.20984e-07 0)
(5.14821e-06 -4.59287e-07 0)
(5.29065e-06 -3.92213e-07 0)
(2.10596e-06 -1.4932e-06 0)
(2.29506e-06 -1.42079e-06 0)
(2.48238e-06 -1.35354e-06 0)
(2.66678e-06 -1.29025e-06 0)
(2.84823e-06 -1.23093e-06 0)
(3.02632e-06 -1.17517e-06 0)
(3.20102e-06 -1.12246e-06 0)
(3.37226e-06 -1.07225e-06 0)
(3.54014e-06 -1.02395e-06 0)
(3.70474e-06 -9.76975e-07 0)
(3.86622e-06 -9.30726e-07 0)
(4.02474e-06 -8.84585e-07 0)
(4.18049e-06 -8.37934e-07 0)
(4.33368e-06 -7.9021e-07 0)
(4.48452e-06 -7.40765e-07 0)
(4.63328e-06 -6.88992e-07 0)
(4.78021e-06 -6.3425e-07 0)
(4.9256e-06 -5.7586e-07 0)
(5.06989e-06 -5.13068e-07 0)
(5.21343e-06 -4.45486e-07 0)
(2.04398e-06 -1.58569e-06 0)
(2.22887e-06 -1.5139e-06 0)
(2.41262e-06 -1.4462e-06 0)
(2.594e-06 -1.3817e-06 0)
(2.77303e-06 -1.32056e-06 0)
(2.94919e-06 -1.26248e-06 0)
(3.12243e-06 -1.20712e-06 0)
(3.29263e-06 -1.15404e-06 0)
(3.4598e-06 -1.10275e-06 0)
(3.62398e-06 -1.05273e-06 0)
(3.78526e-06 -1.00346e-06 0)
(3.94377e-06 -9.54382e-07 0)
(4.09966e-06 -9.04924e-07 0)
(4.25313e-06 -8.54581e-07 0)
(4.40436e-06 -8.02733e-07 0)
(4.55361e-06 -7.48852e-07 0)
(4.70113e-06 -6.92343e-07 0)
(4.84724e-06 -6.32609e-07 0)
(4.99235e-06 -5.6901e-07 0)
(5.13679e-06 -5.01209e-07 0)
(1.98796e-06 -1.67422e-06 0)
(2.16859e-06 -1.60326e-06 0)
(2.34855e-06 -1.53544e-06 0)
(2.52664e-06 -1.47013e-06 0)
(2.70287e-06 -1.40759e-06 0)
(2.8767e-06 -1.34763e-06 0)
(3.04807e-06 -1.29005e-06 0)
(3.21679e-06 -1.23451e-06 0)
(3.38284e-06 -1.1806e-06 0)
(3.5462e-06 -1.12789e-06 0)
(3.70693e-06 -1.07593e-06 0)
(3.86512e-06 -1.02421e-06 0)
(4.02088e-06 -9.72228e-07 0)
(4.17438e-06 -9.19532e-07 0)
(4.32581e-06 -8.65544e-07 0)
(4.47539e-06 -8.09806e-07 0)
(4.62336e-06 -7.51788e-07 0)
(4.77006e-06 -6.9097e-07 0)
(4.91583e-06 -6.26813e-07 0)
(5.06107e-06 -5.59039e-07 0)
(1.93674e-06 -1.75907e-06 0)
(2.11312e-06 -1.68905e-06 0)
(2.2892e-06 -1.62135e-06 0)
(2.46385e-06 -1.55554e-06 0)
(2.63704e-06 -1.49195e-06 0)
(2.80829e-06 -1.43051e-06 0)
(2.97749e-06 -1.3711e-06 0)
(3.14444e-06 -1.31348e-06 0)
(3.30906e-06 -1.25731e-06 0)
(3.47131e-06 -1.20225e-06 0)
(3.63122e-06 -1.14792e-06 0)
(3.78883e-06 -1.09387e-06 0)
(3.94425e-06 -1.03965e-06 0)
(4.0976e-06 -9.84874e-07 0)
(4.24905e-06 -9.29008e-07 0)
(4.39881e-06 -8.71664e-07 0)
(4.54712e-06 -8.12379e-07 0)
(4.69428e-06 -7.50704e-07 0)
(4.84058e-06 -6.86198e-07 0)
(4.98652e-06 -6.18657e-07 0)
(1.8893e-06 -1.84051e-06 0)
(2.0615e-06 -1.77149e-06 0)
(2.23372e-06 -1.70406e-06 0)
(2.40484e-06 -1.63799e-06 0)
(2.5749e-06 -1.57365e-06 0)
(2.74342e-06 -1.51104e-06 0)
(2.91027e-06 -1.45015e-06 0)
(3.07524e-06 -1.39079e-06 0)
(3.23822e-06 -1.33271e-06 0)
(3.39915e-06 -1.27564e-06 0)
(3.55803e-06 -1.21927e-06 0)
(3.71487e-06 -1.16318e-06 0)
(3.86977e-06 -1.10701e-06 0)
(4.02281e-06 -1.05042e-06 0)
(4.17414e-06 -9.92937e-07 0)
(4.32397e-06 -9.34228e-07 0)
(4.47248e-06 -8.73902e-07 0)
(4.61998e-06 -8.1157e-07 0)
(4.7667e-06 -7.46898e-07 0)
(4.91321e-06 -6.79754e-07 0)
(1.84471e-06 -1.91883e-06 0)
(2.01286e-06 -1.8508e-06 0)
(2.18127e-06 -1.78376e-06 0)
(2.3489e-06 -1.7176e-06 0)
(2.51582e-06 -1.65274e-06 0)
(2.68155e-06 -1.58925e-06 0)
(2.84594e-06 -1.52717e-06 0)
(3.00881e-06 -1.46639e-06 0)
(3.17e-06 -1.40672e-06 0)
(3.32946e-06 -1.34795e-06 0)
(3.48717e-06 -1.28983e-06 0)
(3.64311e-06 -1.23201e-06 0)
(3.79735e-06 -1.17417e-06 0)
(3.94997e-06 -1.11603e-06 0)
(4.10107e-06 -1.05717e-06 0)
(4.25086e-06 -9.97323e-07 0)
(4.39947e-06 -9.36154e-07 0)
(4.54718e-06 -8.73342e-07 0)
(4.69428e-06 -8.08659e-07 0)
(4.84119e-06 -7.42021e-07 0)
(1.80215e-06 -1.99429e-06 0)
(1.96643e-06 -1.92722e-06 0)
(2.13114e-06 -1.86063e-06 0)
(2.29537e-06 -1.79453e-06 0)
(2.45918e-06 -1.72934e-06 0)
(2.6221e-06 -1.6652e-06 0)
(2.78399e-06 -1.60219e-06 0)
(2.94469e-06 -1.54026e-06 0)
(3.10404e-06 -1.47929e-06 0)
(3.26196e-06 -1.41911e-06 0)
(3.41841e-06 -1.35953e-06 0)
(3.57338e-06 -1.30026e-06 0)
(3.72689e-06 -1.24101e-06 0)
(3.87901e-06 -1.18157e-06 0)
(4.02982e-06 -1.12156e-06 0)
(4.17948e-06 -1.06078e-06 0)
(4.32811e-06 -9.98951e-07 0)
(4.47598e-06 -9.35819e-07 0)
(4.62335e-06 -8.71246e-07 0)
(4.77055e-06 -8.05168e-07 0)
(1.76092e-06 -2.06714e-06 0)
(1.92149e-06 -2.00099e-06 0)
(2.08265e-06 -1.93487e-06 0)
(2.24359e-06 -1.86892e-06 0)
(2.40434e-06 -1.80356e-06 0)
(2.5645e-06 -1.73895e-06 0)
(2.72394e-06 -1.67525e-06 0)
(2.88248e-06 -1.61243e-06 0)
(3.03999e-06 -1.55042e-06 0)
(3.19637e-06 -1.4891e-06 0)
(3.35155e-06 -1.42834e-06 0)
(3.5055e-06 -1.36787e-06 0)
(3.65825e-06 -1.30747e-06 0)
(3.80982e-06 -1.24696e-06 0)
(3.96027e-06 -1.18602e-06 0)
(4.10974e-06 -1.12449e-06 0)
(4.25832e-06 -1.06215e-06 0)
(4.40629e-06 -9.9883e-07 0)
(4.55378e-06 -9.34449e-07 0)
(4.70124e-06 -8.68972e-07 0)
(1.72037e-06 -2.13759e-06 0)
(1.8774e-06 -2.07231e-06 0)
(2.03515e-06 -2.00669e-06 0)
(2.19292e-06 -1.94095e-06 0)
(2.35074e-06 -1.87554e-06 0)
(2.50825e-06 -1.81063e-06 0)
(2.66533e-06 -1.74644e-06 0)
(2.82179e-06 -1.68296e-06 0)
(2.9775e-06 -1.62015e-06 0)
(3.13235e-06 -1.55795e-06 0)
(3.28627e-06 -1.49624e-06 0)
(3.43921e-06 -1.4348e-06 0)
(3.59117e-06 -1.37347e-06 0)
(3.74217e-06 -1.3121e-06 0)
(3.89223e-06 -1.25042e-06 0)
(4.04147e-06 -1.1883e-06 0)
(4.18997e-06 -1.1256e-06 0)
(4.33797e-06 -1.06219e-06 0)
(4.48554e-06 -9.98048e-07 0)
(4.63314e-06 -9.33215e-07 0)
(1.67977e-06 -2.20588e-06 0)
(1.83344e-06 -2.14139e-06 0)
(1.98796e-06 -2.07626e-06 0)
(2.14273e-06 -2.01081e-06 0)
(2.2978e-06 -1.94545e-06 0)
(2.4528e-06 -1.88041e-06 0)
(2.60766e-06 -1.81589e-06 0)
(2.76213e-06 -1.75195e-06 0)
(2.91614e-06 -1.68856e-06 0)
(3.06956e-06 -1.62568e-06 0)
(3.22229e-06 -1.56325e-06 0)
(3.37428e-06 -1.50108e-06 0)
(3.52551e-06 -1.43902e-06 0)
(3.67596e-06 -1.37698e-06 0)
(3.82564e-06 -1.31472e-06 0)
(3.97465e-06 -1.25215e-06 0)
(4.12305e-06 -1.1892e-06 0)
(4.271e-06 -1.12578e-06 0)
(4.41865e-06 -1.06192e-06 0)
(4.5663e-06 -9.97706e-07 0)
(1.63846e-06 -2.27216e-06 0)
(1.78894e-06 -2.20847e-06 0)
(1.94039e-06 -2.14379e-06 0)
(2.0924e-06 -2.07866e-06 0)
(2.24491e-06 -2.01347e-06 0)
(2.39762e-06 -1.94842e-06 0)
(2.55043e-06 -1.88374e-06 0)
(2.70313e-06 -1.81951e-06 0)
(2.85558e-06 -1.75573e-06 0)
(3.00767e-06 -1.69238e-06 0)
(3.15931e-06 -1.62943e-06 0)
(3.31042e-06 -1.56672e-06 0)
(3.46096e-06 -1.50412e-06 0)
(3.61089e-06 -1.44157e-06 0)
(3.76022e-06 -1.37886e-06 0)
(3.90901e-06 -1.31598e-06 0)
(4.0573e-06 -1.25286e-06 0)
(4.2052e-06 -1.18947e-06 0)
(4.35287e-06 -1.12591e-06 0)
(4.50056e-06 -1.06229e-06 0)
(1.59575e-06 -2.3367e-06 0)
(1.74315e-06 -2.27359e-06 0)
(1.8917e-06 -2.20948e-06 0)
(2.04129e-06 -2.14479e-06 0)
(2.19148e-06 -2.07984e-06 0)
(2.34218e-06 -2.0149e-06 0)
(2.49316e-06 -1.9502e-06 0)
(2.64428e-06 -1.88583e-06 0)
(2.79537e-06 -1.82181e-06 0)
(2.94633e-06 -1.75817e-06 0)
(3.09703e-06 -1.69488e-06 0)
(3.24738e-06 -1.63178e-06 0)
(3.39732e-06 -1.56879e-06 0)
(3.54681e-06 -1.50587e-06 0)
(3.69584e-06 -1.44285e-06 0)
(3.84446e-06 -1.37974e-06 0)
(3.99264e-06 -1.3165e-06 0)
(4.14053e-06 -1.25316e-06 0)
(4.28814e-06 -1.1899e-06 0)
(4.43584e-06 -1.12681e-06 0)
(1.55066e-06 -2.39944e-06 0)
(1.69542e-06 -2.33698e-06 0)
(1.8416e-06 -2.27356e-06 0)
(1.98887e-06 -2.20934e-06 0)
(2.13708e-06 -2.14473e-06 0)
(2.28601e-06 -2.08e-06 0)
(2.43545e-06 -2.0154e-06 0)
(2.58525e-06 -1.95104e-06 0)
(2.73523e-06 -1.88696e-06 0)
(2.88526e-06 -1.82317e-06 0)
(3.0352e-06 -1.75968e-06 0)
(3.18493e-06 -1.69635e-06 0)
(3.3344e-06 -1.63311e-06 0)
(3.48356e-06 -1.56993e-06 0)
(3.63237e-06 -1.5067e-06 0)
(3.78084e-06 -1.44343e-06 0)
(3.92894e-06 -1.3801e-06 0)
(4.07685e-06 -1.31681e-06 0)
(4.22448e-06 -1.2538e-06 0)
(4.3721e-06 -1.19121e-06 0)
(1.50256e-06 -2.46102e-06 0)
(1.6449e-06 -2.39932e-06 0)
(1.78894e-06 -2.33644e-06 0)
(1.93434e-06 -2.27273e-06 0)
(2.08094e-06 -2.20852e-06 0)
(2.22848e-06 -2.14409e-06 0)
(2.37677e-06 -2.07969e-06 0)
(2.52561e-06 -2.01546e-06 0)
(2.67479e-06 -1.95142e-06 0)
(2.82415e-06 -1.8876e-06 0)
(2.97354e-06 -1.824e-06 0)
(3.12285e-06 -1.76054e-06 0)
(3.27201e-06 -1.69715e-06 0)
(3.42092e-06 -1.63384e-06 0)
(3.56957e-06 -1.57044e-06 0)
(3.71798e-06 -1.50701e-06 0)
(3.86611e-06 -1.44365e-06 0)
(4.01401e-06 -1.38039e-06 0)
(4.16171e-06 -1.31752e-06 0)
(4.30931e-06 -1.25533e-06 0)
(1.45085e-06 -2.52098e-06 0)
(1.59112e-06 -2.46013e-06 0)
(1.73339e-06 -2.39802e-06 0)
(1.87734e-06 -2.33495e-06 0)
(2.02276e-06 -2.27127e-06 0)
(2.16938e-06 -2.20727e-06 0)
(2.31695e-06 -2.14322e-06 0)
(2.46521e-06 -2.07922e-06 0)
(2.61394e-06 -2.0153e-06 0)
(2.76295e-06 -1.95153e-06 0)
(2.91206e-06 -1.88796e-06 0)
(3.06114e-06 -1.82447e-06 0)
(3.21011e-06 -1.76098e-06 0)
(3.3589e-06 -1.69755e-06 0)
(3.50746e-06 -1.63409e-06 0)
(3.65582e-06 -1.57058e-06 0)
(3.80404e-06 -1.50715e-06 0)
(3.95204e-06 -1.44385e-06 0)
(4.09992e-06 -1.38103e-06 0)
(4.24761e-06 -1.31907e-06 0)
(1.06236e-07 -2.16508e-06 0)
(3.20152e-07 -2.13319e-06 0)
(5.3836e-07 -2.07064e-06 0)
(7.6333e-07 -1.98e-06 0)
(9.96982e-07 -1.86474e-06 0)
(1.24054e-06 -1.72916e-06 0)
(1.49445e-06 -1.57828e-06 0)
(1.75826e-06 -1.41723e-06 0)
(2.03113e-06 -1.25125e-06 0)
(2.31085e-06 -1.08447e-06 0)
(1.03255e-07 -2.20074e-06 0)
(3.11003e-07 -2.17158e-06 0)
(5.22305e-07 -2.11438e-06 0)
(7.39261e-07 -2.03128e-06 0)
(9.63498e-07 -1.92527e-06 0)
(1.19603e-06 -1.79999e-06 0)
(1.43733e-06 -1.65968e-06 0)
(1.68679e-06 -1.50885e-06 0)
(1.94343e-06 -1.35219e-06 0)
(2.20524e-06 -1.19342e-06 0)
(1.00609e-07 -2.23721e-06 0)
(3.02863e-07 -2.21055e-06 0)
(5.0802e-07 -2.15817e-06 0)
(7.17744e-07 -2.08196e-06 0)
(9.3344e-07 -1.98451e-06 0)
(1.15591e-06 -1.86897e-06 0)
(1.38566e-06 -1.73899e-06 0)
(1.62238e-06 -1.59836e-06 0)
(1.8654e-06 -1.45112e-06 0)
(2.11329e-06 -1.2999e-06 0)
(9.82691e-08 -2.27458e-06 0)
(2.95644e-07 -2.25003e-06 0)
(4.9548e-07 -2.20178e-06 0)
(6.99051e-07 -2.13148e-06 0)
(9.07577e-07 -2.0414e-06 0)
(1.12168e-06 -1.93431e-06 0)
(1.34173e-06 -1.81343e-06 0)
(1.56747e-06 -1.68212e-06 0)
(1.79829e-06 -1.54413e-06 0)
(2.03299e-06 -1.40161e-06 0)
(9.61287e-08 -2.31284e-06 0)
(2.8902e-07 -2.29019e-06 0)
(4.83979e-07 -2.24565e-06 0)
(6.81995e-07 -2.18065e-06 0)
(8.84106e-07 -2.09725e-06 0)
(1.09081e-06 -1.99791e-06 0)
(1.30245e-06 -1.88547e-06 0)
(1.51879e-06 -1.7628e-06 0)
(1.73939e-06 -1.6333e-06 0)
(1.96284e-06 -1.49896e-06 0)
(9.41207e-08 -2.35194e-06 0)
(2.82905e-07 -2.33092e-06 0)
(4.73405e-07 -2.2896e-06 0)
(6.66459e-07 -2.22927e-06 0)
(8.62911e-07 -2.15173e-06 0)
(1.06317e-06 -2.05924e-06 0)
(1.26746e-06 -1.95438e-06 0)
(1.47555e-06 -1.83967e-06 0)
(1.68721e-06 -1.71819e-06 0)
(1.90085e-06 -1.5919e-06 0)
(9.22012e-08 -2.39183e-06 0)
(2.77093e-07 -2.37228e-06 0)
(4.63414e-07 -2.33383e-06 0)
(6.51902e-07 -2.27767e-06 0)
(8.43205e-07 -2.20541e-06 0)
(1.03771e-06 -2.11911e-06 0)
(1.23557e-06 -2.0211e-06 0)
(1.43649e-06 -1.91364e-06 0)
(1.64043e-06 -1.79949e-06 0)
(1.84563e-06 -1.68069e-06 0)
(9.03825e-08 -2.43242e-06 0)
(2.71521e-07 -2.41418e-06 0)
(4.5389e-07 -2.37827e-06 0)
(6.38124e-07 -2.32581e-06 0)
(8.24724e-07 -2.25825e-06 0)
(1.01401e-06 -2.17748e-06 0)
(1.20614e-06 -2.08566e-06 0)
(1.40074e-06 -1.98483e-06 0)
(1.59792e-06 -1.87743e-06 0)
(1.79586e-06 -1.7656e-06 0)
(8.86025e-08 -2.47366e-06 0)
(2.6608e-07 -2.45659e-06 0)
(4.44651e-07 -2.42295e-06 0)
(6.2483e-07 -2.37382e-06 0)
(8.07052e-07 -2.3105e-06 0)
(9.91578e-07 -2.2347e-06 0)
(1.17852e-06 -2.14846e-06 0)
(1.36751e-06 -2.05365e-06 0)
(1.55873e-06 -1.95243e-06 0)
(1.75038e-06 -1.84698e-06 0)
(8.68117e-08 -2.51546e-06 0)
(2.60704e-07 -2.49943e-06 0)
(4.35571e-07 -2.46784e-06 0)
(6.11849e-07 -2.42168e-06 0)
(7.89913e-07 -2.36217e-06 0)
(9.70015e-07 -2.29086e-06 0)
(1.15222e-06 -2.20966e-06 0)
(1.33615e-06 -2.12032e-06 0)
(1.52205e-06 -2.02475e-06 0)
(1.70818e-06 -1.92514e-06 0)
(8.50059e-08 -2.55771e-06 0)
(2.55338e-07 -2.54265e-06 0)
(4.26518e-07 -2.5129e-06 0)
(5.98989e-07 -2.46942e-06 0)
(7.7305e-07 -2.41335e-06 0)
(9.48962e-07 -2.34612e-06 0)
(1.12676e-06 -2.26947e-06 0)
(1.30607e-06 -2.1851e-06 0)
(1.48716e-06 -2.09469e-06 0)
(1.66839e-06 -2.00038e-06 0)
(8.31943e-08 -2.60033e-06 0)
(2.49925e-07 -2.58616e-06 0)
(4.17386e-07 -2.55807e-06 0)
(5.86085e-07 -2.51701e-06 0)
(7.56242e-07 -2.46406e-06 0)
(9.28116e-07 -2.40052e-06 0)
(1.10175e-06 -2.32802e-06 0)
(1.27678e-06 -2.24816e-06 0)
(1.45345e-06 -2.16246e-06 0)
(1.6303e-06 -2.07299e-06 0)
(8.13528e-08 -2.64323e-06 0)
(2.44372e-07 -2.62984e-06 0)
(4.08048e-07 -2.60328e-06 0)
(5.72946e-07 -2.56443e-06 0)
(7.3924e-07 -2.51431e-06 0)
(9.07164e-07 -2.45415e-06 0)
(1.0768e-06 -2.38542e-06 0)
(1.24779e-06 -2.30967e-06 0)
(1.42036e-06 -2.22827e-06 0)
(1.59324e-06 -2.1432e-06 0)
(7.94352e-08 -2.68626e-06 0)
(2.38585e-07 -2.67358e-06 0)
(3.98377e-07 -2.64843e-06 0)
(5.59384e-07 -2.61159e-06 0)
(7.21787e-07 -2.56408e-06 0)
(8.85793e-07 -2.50699e-06 0)
(1.05151e-06 -2.44173e-06 0)
(1.21864e-06 -2.36974e-06 0)
(1.38736e-06 -2.2923e-06 0)
(1.55656e-06 -2.21123e-06 0)
(7.74045e-08 -2.72931e-06 0)
(2.32488e-07 -2.71727e-06 0)
(3.88243e-07 -2.69342e-06 0)
(5.45219e-07 -2.65846e-06 0)
(7.03635e-07 -2.61334e-06 0)
(8.63686e-07 -2.5591e-06 0)
(1.02551e-06 -2.49703e-06 0)
(1.18886e-06 -2.42851e-06 0)
(1.35387e-06 -2.3547e-06 0)
(1.51959e-06 -2.2773e-06 0)
(7.52427e-08 -2.77216e-06 0)
(2.26024e-07 -2.76071e-06 0)
(3.77526e-07 -2.73809e-06 0)
(5.30269e-07 -2.70488e-06 0)
(6.84532e-07 -2.66197e-06 0)
(8.40519e-07 -2.61038e-06 0)
(9.98395e-07 -2.55128e-06 0)
(1.15799e-06 -2.48596e-06 0)
(1.31934e-06 -2.41552e-06 0)
(1.48172e-06 -2.3415e-06 0)
(7.29309e-08 -2.81473e-06 0)
(2.19109e-07 -2.80386e-06 0)
(3.6606e-07 -2.78238e-06 0)
(5.14299e-07 -2.75082e-06 0)
(6.64178e-07 -2.71001e-06 0)
(8.1592e-07 -2.6609e-06 0)
(9.69723e-07 -2.60459e-06 0)
(1.12545e-06 -2.54228e-06 0)
(1.28316e-06 -2.47497e-06 0)
(1.4422e-06 -2.40411e-06 0)
(7.0436e-08 -2.85661e-06 0)
(2.11632e-07 -2.84628e-06 0)
(3.5366e-07 -2.82589e-06 0)
(4.97054e-07 -2.79591e-06 0)
(6.42236e-07 -2.7571e-06 0)
(7.89475e-07 -2.71036e-06 0)
(9.3899e-07 -2.65671e-06 0)
(1.09068e-06 -2.59725e-06 0)
(1.24464e-06 -2.53291e-06 0)
(1.40034e-06 -2.46504e-06 0)
(6.76983e-08 -2.89798e-06 0)
(2.0342e-07 -2.88817e-06 0)
(3.40053e-07 -2.86883e-06 0)
(4.78177e-07 -2.84038e-06 0)
(6.1826e-07 -2.80353e-06 0)
(7.60634e-07 -2.75908e-06 0)
(9.05544e-07 -2.70798e-06 0)
(1.05297e-06 -2.65126e-06 0)
(1.203e-06 -2.5898e-06 0)
(1.35526e-06 -2.52479e-06 0)
(6.46907e-08 -2.93765e-06 0)
(1.94413e-07 -2.92838e-06 0)
(3.25132e-07 -2.91009e-06 0)
(4.57483e-07 -2.88316e-06 0)
(5.92009e-07 -2.84825e-06 0)
(7.29102e-07 -2.80609e-06 0)
(8.69033e-07 -2.75754e-06 0)
(1.01195e-06 -2.70356e-06 0)
(1.15783e-06 -2.64497e-06 0)
(1.30653e-06 -2.58286e-06 0)
)


// ************************************************************************* //
