/*--------------------------------*- C++ -*----------------------------------*\
| =========                 |                                                 |
| \\      /  F ield         | foam-extend: Open Source CFD                    |
|  \\    /   O peration     | Version:     4.1                                |
|   \\  /    A nd           | Web:         http://www.foam-extend.org         |
|    \\/     M anipulation  |                                                 |
\*---------------------------------------------------------------------------*/
FoamFile
{
    version     2.0;
    format      ascii;
    class       vectorField;
    location    "5";
    object      solidsCellD_iteration3;
}
// * * * * * * * * * * * * * * * * * * * * * * * * * * * * * * * * * * * * * //


1000
(
(2.46065e-06 -9.84561e-07 0)
(2.33006e-06 -9.19475e-07 0)
(2.24784e-06 -8.7947e-07 0)
(2.20219e-06 -8.62417e-07 0)
(2.18175e-06 -8.58537e-07 0)
(2.17979e-06 -8.64854e-07 0)
(2.1914e-06 -8.77884e-07 0)
(2.21322e-06 -8.96022e-07 0)
(2.24245e-06 -9.17702e-07 0)
(2.27623e-06 -9.42595e-07 0)
(2.22625e-06 -1.07551e-06 0)
(2.08696e-06 -1.03145e-06 0)
(1.99903e-06 -1.00491e-06 0)
(1.94909e-06 -9.9707e-07 0)
(1.92522e-06 -9.99356e-07 0)
(1.91989e-06 -1.01011e-06 0)
(1.9281e-06 -1.02638e-06 0)
(1.94623e-06 -1.04688e-06 0)
(1.97149e-06 -1.07044e-06 0)
(2.00126e-06 -1.0961e-06 0)
(1.98215e-06 -1.16167e-06 0)
(1.83972e-06 -1.14114e-06 0)
(1.74978e-06 -1.12949e-06 0)
(1.69774e-06 -1.13172e-06 0)
(1.67173e-06 -1.14062e-06 0)
(1.66398e-06 -1.15594e-06 0)
(1.66942e-06 -1.17535e-06 0)
(1.68449e-06 -1.19798e-06 0)
(1.7064e-06 -1.22308e-06 0)
(1.73285e-06 -1.24952e-06 0)
(1.73041e-06 -1.24153e-06 0)
(1.59079e-06 -1.24563e-06 0)
(1.50261e-06 -1.24955e-06 0)
(1.45092e-06 -1.26219e-06 0)
(1.42425e-06 -1.2779e-06 0)
(1.41504e-06 -1.29784e-06 0)
(1.41837e-06 -1.32033e-06 0)
(1.43077e-06 -1.34506e-06 0)
(1.44969e-06 -1.37167e-06 0)
(1.47287e-06 -1.39906e-06 0)
(1.47268e-06 -1.3135e-06 0)
(1.34188e-06 -1.34198e-06 0)
(1.2592e-06 -1.36136e-06 0)
(1.21034e-06 -1.38426e-06 0)
(1.18463e-06 -1.40658e-06 0)
(1.17491e-06 -1.43098e-06 0)
(1.17669e-06 -1.45646e-06 0)
(1.18668e-06 -1.48323e-06 0)
(1.20272e-06 -1.51129e-06 0)
(1.22259e-06 -1.53975e-06 0)
(1.21034e-06 -1.37612e-06 0)
(1.09408e-06 -1.42739e-06 0)
(1.02059e-06 -1.46119e-06 0)
(9.76915e-07 -1.49367e-06 0)
(9.53634e-07 -1.52218e-06 0)
(9.44264e-07 -1.55076e-06 0)
(9.44994e-07 -1.57896e-06 0)
(9.52872e-07 -1.60764e-06 0)
(9.66063e-07 -1.63705e-06 0)
(9.825e-07 -1.66662e-06 0)
(9.44568e-07 -1.42799e-06 0)
(8.48119e-07 -1.49922e-06 0)
(7.87141e-07 -1.54567e-06 0)
(7.50726e-07 -1.58652e-06 0)
(7.3111e-07 -1.62043e-06 0)
(7.22921e-07 -1.65266e-06 0)
(7.23038e-07 -1.68325e-06 0)
(7.28991e-07 -1.71364e-06 0)
(7.39305e-07 -1.74424e-06 0)
(7.52198e-07 -1.77487e-06 0)
(6.7634e-07 -1.46797e-06 0)
(6.04101e-07 -1.55522e-06 0)
(5.58419e-07 -1.61184e-06 0)
(5.31083e-07 -1.6594e-06 0)
(5.16217e-07 -1.69764e-06 0)
(5.09856e-07 -1.73278e-06 0)
(5.09687e-07 -1.76532e-06 0)
(5.13847e-07 -1.7971e-06 0)
(5.2125e-07 -1.82864e-06 0)
(5.305e-07 -1.86012e-06 0)
(4.06509e-07 -1.49514e-06 0)
(3.61804e-07 -1.59359e-06 0)
(3.33508e-07 -1.65732e-06 0)
(3.16496e-07 -1.7096e-06 0)
(3.07194e-07 -1.75088e-06 0)
(3.03191e-07 -1.78806e-06 0)
(3.03017e-07 -1.82196e-06 0)
(3.05458e-07 -1.85473e-06 0)
(3.09875e-07 -1.88699e-06 0)
(3.1543e-07 -1.91915e-06 0)
(1.35781e-07 -1.50883e-06 0)
(1.20592e-07 -1.61304e-06 0)
(1.1098e-07 -1.68045e-06 0)
(1.05223e-07 -1.73517e-06 0)
(1.02065e-07 -1.778e-06 0)
(1.0066e-07 -1.81622e-06 0)
(1.00557e-07 -1.85081e-06 0)
(1.01363e-07 -1.88407e-06 0)
(1.02832e-07 -1.91666e-06 0)
(1.04671e-07 -1.94913e-06 0)
(3.82487e-06 -4.4891e-08 0)
(3.85862e-06 -3.24979e-08 0)
(3.88069e-06 -2.46961e-08 0)
(3.90521e-06 -2.01755e-08 0)
(3.93242e-06 -1.77412e-08 0)
(3.96557e-06 -1.66961e-08 0)
(4.00449e-06 -1.65744e-08 0)
(4.04946e-06 -1.70859e-08 0)
(4.10033e-06 -1.80394e-08 0)
(4.15645e-06 -1.9136e-08 0)
(3.79692e-06 -1.34662e-07 0)
(3.82517e-06 -9.82212e-08 0)
(3.84383e-06 -7.53467e-08 0)
(3.86605e-06 -6.21303e-08 0)
(3.89175e-06 -5.50291e-08 0)
(3.9238e-06 -5.20348e-08 0)
(3.96195e-06 -5.17816e-08 0)
(4.0063e-06 -5.33522e-08 0)
(4.05665e-06 -5.61989e-08 0)
(4.11221e-06 -5.95035e-08 0)
(3.74098e-06 -2.2522e-07 0)
(3.75881e-06 -1.66747e-07 0)
(3.77089e-06 -1.30087e-07 0)
(3.78879e-06 -1.08964e-07 0)
(3.81161e-06 -9.76822e-08 0)
(3.84164e-06 -9.30265e-08 0)
(3.87831e-06 -9.27779e-08 0)
(3.92142e-06 -9.54647e-08 0)
(3.97074e-06 -1.00217e-07 0)
(4.02524e-06 -1.05753e-07 0)
(3.65808e-06 -3.16928e-07 0)
(3.66113e-06 -2.39636e-07 0)
(3.66381e-06 -1.91232e-07 0)
(3.67554e-06 -1.63485e-07 0)
(3.69425e-06 -1.48771e-07 0)
(3.72131e-06 -1.42884e-07 0)
(3.75584e-06 -1.42881e-07 0)
(3.79726e-06 -1.46818e-07 0)
(3.84516e-06 -1.53497e-07 0)
(3.89819e-06 -1.61263e-07 0)
(3.54943e-06 -4.10078e-07 0)
(3.53424e-06 -3.18227e-07 0)
(3.5253e-06 -2.60751e-07 0)
(3.5293e-06 -2.28069e-07 0)
(3.54293e-06 -2.10942e-07 0)
(3.5664e-06 -2.04431e-07 0)
(3.59826e-06 -2.05e-07 0)
(3.63757e-06 -2.10331e-07 0)
(3.68367e-06 -2.18935e-07 0)
(3.73491e-06 -2.28923e-07 0)
(3.41666e-06 -5.04703e-07 0)
(3.38077e-06 -4.03377e-07 0)
(3.35868e-06 -3.3999e-07 0)
(3.35395e-06 -3.04381e-07 0)
(3.36181e-06 -2.86075e-07 0)
(3.38118e-06 -2.79666e-07 0)
(3.41001e-06 -2.81163e-07 0)
(3.44688e-06 -2.88035e-07 0)
(3.49094e-06 -2.98556e-07 0)
(3.54026e-06 -3.10754e-07 0)
(3.26161e-06 -6.00595e-07 0)
(3.20386e-06 -4.95423e-07 0)
(3.16792e-06 -4.29661e-07 0)
(3.15394e-06 -3.93348e-07 0)
(3.15563e-06 -3.75216e-07 0)
(3.17061e-06 -3.69704e-07 0)
(3.19618e-06 -3.72541e-07 0)
(3.23039e-06 -3.81146e-07 0)
(3.27222e-06 -3.93633e-07 0)
(3.31961e-06 -4.08032e-07 0)
(3.08629e-06 -6.97315e-07 0)
(3.00685e-06 -5.9414e-07 0)
(2.95714e-06 -5.29696e-07 0)
(2.93393e-06 -4.94977e-07 0)
(2.92938e-06 -4.78426e-07 0)
(2.93989e-06 -4.74647e-07 0)
(2.96211e-06 -4.79267e-07 0)
(2.99362e-06 -4.89814e-07 0)
(3.03309e-06 -5.04294e-07 0)
(3.07858e-06 -5.20901e-07 0)
(2.8929e-06 -7.94191e-07 0)
(2.79323e-06 -6.98722e-07 0)
(2.73077e-06 -6.39222e-07 0)
(2.69889e-06 -6.08378e-07 0)
(2.68843e-06 -5.94808e-07 0)
(2.69455e-06 -5.93618e-07 0)
(2.71336e-06 -6.00533e-07 0)
(2.74209e-06 -6.13236e-07 0)
(2.77896e-06 -6.29849e-07 0)
(2.82251e-06 -6.48566e-07 0)
(2.68364e-06 -8.90288e-07 0)
(2.5665e-06 -8.07766e-07 0)
(2.49297e-06 -7.56585e-07 0)
(2.45348e-06 -7.31757e-07 0)
(2.43765e-06 -7.22482e-07 0)
(2.43956e-06 -7.24713e-07 0)
(2.45492e-06 -7.34452e-07 0)
(2.48073e-06 -7.49742e-07 0)
(2.5149e-06 -7.68751e-07 0)
(2.55606e-06 -7.90453e-07 0)
(4.21777e-06 -2.02213e-08 0)
(4.28451e-06 -2.0554e-08 0)
(4.35542e-06 -2.09098e-08 0)
(4.43023e-06 -2.11835e-08 0)
(4.50847e-06 -2.13531e-08 0)
(4.58987e-06 -2.14119e-08 0)
(4.67416e-06 -2.13515e-08 0)
(4.76098e-06 -2.11847e-08 0)
(4.85e-06 -2.08968e-08 0)
(4.94099e-06 -2.04659e-08 0)
(5.0337e-06 -1.98709e-08 0)
(5.12788e-06 -1.91067e-08 0)
(5.22325e-06 -1.81703e-08 0)
(5.31956e-06 -1.70488e-08 0)
(5.41659e-06 -1.57167e-08 0)
(5.51398e-06 -1.41457e-08 0)
(5.61155e-06 -1.23032e-08 0)
(5.7087e-06 -1.01542e-08 0)
(5.80553e-06 -7.64865e-09 0)
(5.90066e-06 -4.77487e-09 0)
(4.17545e-06 -6.2588e-08 0)
(4.24568e-06 -6.33367e-08 0)
(4.31972e-06 -6.41629e-08 0)
(4.39726e-06 -6.4777e-08 0)
(4.47799e-06 -6.51133e-08 0)
(4.56162e-06 -6.51683e-08 0)
(4.64788e-06 -6.48916e-08 0)
(4.73649e-06 -6.4287e-08 0)
(4.82716e-06 -6.33061e-08 0)
(4.91966e-06 -6.1915e-08 0)
(5.01376e-06 -6.00737e-08 0)
(5.10922e-06 -5.7757e-08 0)
(5.20583e-06 -5.49299e-08 0)
(5.30331e-06 -5.15412e-08 0)
(5.40143e-06 -4.75194e-08 0)
(5.49983e-06 -4.27905e-08 0)
(5.59836e-06 -3.72579e-08 0)
(5.69643e-06 -3.08198e-08 0)
(5.79422e-06 -2.33242e-08 0)
(5.89033e-06 -1.47227e-08 0)
(4.09221e-06 -1.10241e-07 0)
(4.16928e-06 -1.10619e-07 0)
(4.24953e-06 -1.11203e-07 0)
(4.33245e-06 -1.11621e-07 0)
(4.41798e-06 -1.11685e-07 0)
(4.5059e-06 -1.11394e-07 0)
(4.59609e-06 -1.1062e-07 0)
(4.68827e-06 -1.09346e-07 0)
(4.78219e-06 -1.07481e-07 0)
(4.87765e-06 -1.04979e-07 0)
(4.97451e-06 -1.0178e-07 0)
(5.07256e-06 -9.78263e-08 0)
(5.17159e-06 -9.30416e-08 0)
(5.27134e-06 -8.73321e-08 0)
(5.3716e-06 -8.05828e-08 0)
(5.47207e-06 -7.26698e-08 0)
(5.57259e-06 -6.343e-08 0)
(5.67258e-06 -5.2705e-08 0)
(5.77222e-06 -4.02428e-08 0)
(5.87016e-06 -2.59495e-08 0)
(3.97054e-06 -1.66195e-07 0)
(4.05742e-06 -1.64969e-07 0)
(4.14659e-06 -1.64197e-07 0)
(4.23734e-06 -1.63586e-07 0)
(4.32996e-06 -1.62685e-07 0)
(4.4242e-06 -1.61492e-07 0)
(4.5201e-06 -1.59761e-07 0)
(4.61743e-06 -1.57447e-07 0)
(4.7161e-06 -1.54411e-07 0)
(4.81596e-06 -1.50579e-07 0)
(4.91691e-06 -1.45847e-07 0)
(5.01875e-06 -1.40117e-07 0)
(5.12131e-06 -1.33263e-07 0)
(5.22436e-06 -1.25154e-07 0)
(5.32775e-06 -1.15633e-07 0)
(5.43124e-06 -1.04515e-07 0)
(5.53465e-06 -9.15689e-08 0)
(5.63748e-06 -7.65764e-08 0)
(5.7399e-06 -5.91787e-08 0)
(5.84054e-06 -3.9241e-08 0)
(3.81394e-06 -2.3311e-07 0)
(3.91318e-06 -2.28728e-07 0)
(4.01378e-06 -2.25181e-07 0)
(4.1145e-06 -2.22452e-07 0)
(4.21618e-06 -2.1967e-07 0)
(4.31852e-06 -2.16837e-07 0)
(4.42181e-06 -2.13558e-07 0)
(4.52584e-06 -2.09732e-07 0)
(4.63067e-06 -2.05149e-07 0)
(4.73621e-06 -1.99683e-07 0)
(4.84239e-06 -1.93171e-07 0)
(4.94908e-06 -1.85462e-07 0)
(5.05617e-06 -1.76385e-07 0)
(5.16352e-06 -1.65767e-07 0)
(5.27102e-06 -1.53399e-07 0)
(5.37838e-06 -1.39037e-07 0)
(5.48555e-06 -1.22382e-07 0)
(5.59196e-06 -1.03149e-07 0)
(5.69795e-06 -8.08671e-08 0)
(5.8021e-06 -5.53465e-08 0)
(3.62695e-06 -3.12876e-07 0)
(3.74048e-06 -3.0356e-07 0)
(3.85443e-06 -2.95574e-07 0)
(3.96691e-06 -2.8941e-07 0)
(4.07938e-06 -2.83665e-07 0)
(4.19141e-06 -2.78318e-07 0)
(4.30358e-06 -2.72789e-07 0)
(4.41567e-06 -2.66872e-07 0)
(4.52787e-06 -2.60273e-07 0)
(4.64017e-06 -2.52795e-07 0)
(4.75264e-06 -2.4421e-07 0)
(4.86519e-06 -2.34303e-07 0)
(4.97776e-06 -2.22847e-07 0)
(5.09027e-06 -2.09617e-07 0)
(5.20266e-06 -1.94338e-07 0)
(5.31465e-06 -1.76705e-07 0)
(5.42629e-06 -1.56355e-07 0)
(5.53704e-06 -1.32926e-07 0)
(5.64729e-06 -1.05833e-07 0)
(5.75569e-06 -7.48016e-08 0)
(3.41456e-06 -4.06766e-07 0)
(3.54376e-06 -3.90666e-07 0)
(3.67263e-06 -3.76562e-07 0)
(3.79832e-06 -3.65552e-07 0)
(3.92295e-06 -3.55703e-07 0)
(4.04597e-06 -3.46876e-07 0)
(4.16809e-06 -3.38309e-07 0)
(4.28931e-06 -3.29656e-07 0)
(4.40991e-06 -3.20521e-07 0)
(4.52997e-06 -3.10604e-07 0)
(4.64962e-06 -2.99601e-07 0)
(4.76885e-06 -2.87224e-07 0)
(4.88768e-06 -2.73183e-07 0)
(5.00607e-06 -2.57192e-07 0)
(5.124e-06 -2.38906e-07 0)
(5.24128e-06 -2.1796e-07 0)
(5.35805e-06 -1.93917e-07 0)
(5.47379e-06 -1.66328e-07 0)
(5.58891e-06 -1.34479e-07 0)
(5.70217e-06 -9.80192e-08 0)
(3.18197e-06 -5.15002e-07 0)
(3.3276e-06 -4.90128e-07 0)
(3.47229e-06 -4.68253e-07 0)
(3.6123e-06 -4.50837e-07 0)
(3.75006e-06 -4.35657e-07 0)
(3.88512e-06 -4.22273e-07 0)
(4.01823e-06 -4.09804e-07 0)
(4.14952e-06 -3.97716e-07 0)
(4.27938e-06 -3.85499e-07 0)
(4.40801e-06 -3.72719e-07 0)
(4.53559e-06 -3.58976e-07 0)
(4.66216e-06 -3.43896e-07 0)
(4.78782e-06 -3.27117e-07 0)
(4.91266e-06 -3.08278e-07 0)
(5.03668e-06 -2.86958e-07 0)
(5.15982e-06 -2.6272e-07 0)
(5.28223e-06 -2.35039e-07 0)
(5.40343e-06 -2.0337e-07 0)
(5.52392e-06 -1.66867e-07 0)
(5.64257e-06 -1.25114e-07 0)
(2.93453e-06 -6.37521e-07 0)
(3.09718e-06 -6.02075e-07 0)
(3.25806e-06 -5.71309e-07 0)
(3.41308e-06 -5.46123e-07 0)
(3.56457e-06 -5.24556e-07 0)
(3.7123e-06 -5.05624e-07 0)
(3.85701e-06 -4.88404e-07 0)
(3.99899e-06 -4.7214e-07 0)
(4.13869e-06 -4.56199e-07 0)
(4.27641e-06 -4.40014e-07 0)
(4.41239e-06 -4.23087e-07 0)
(4.5468e-06 -4.04953e-07 0)
(4.67979e-06 -3.85174e-07 0)
(4.81154e-06 -3.63302e-07 0)
(4.94209e-06 -3.3883e-07 0)
(5.07148e-06 -3.11243e-07 0)
(5.19991e-06 -2.79918e-07 0)
(5.32698e-06 -2.44211e-07 0)
(5.45322e-06 -2.03162e-07 0)
(5.57768e-06 -1.56303e-07 0)
(2.67683e-06 -7.72846e-07 0)
(2.85746e-06 -7.24198e-07 0)
(3.0344e-06 -6.83342e-07 0)
(3.20503e-06 -6.48954e-07 0)
(3.37067e-06 -6.19723e-07 0)
(3.53157e-06 -5.94223e-07 0)
(3.68832e-06 -5.71434e-07 0)
(3.84141e-06 -5.50388e-07 0)
(3.99133e-06 -5.30273e-07 0)
(4.13849e-06 -5.10374e-07 0)
(4.28321e-06 -4.90063e-07 0)
(4.42572e-06 -4.68766e-07 0)
(4.5663e-06 -4.45942e-07 0)
(4.70518e-06 -4.21049e-07 0)
(4.84246e-06 -3.93489e-07 0)
(4.97829e-06 -3.62668e-07 0)
(5.11286e-06 -3.27863e-07 0)
(5.24596e-06 -2.88339e-07 0)
(5.37811e-06 -2.43024e-07 0)
(5.50863e-06 -1.9137e-07 0)
(2.48172e-06 -9.05335e-07 0)
(2.6769e-06 -8.44411e-07 0)
(2.86451e-06 -7.95471e-07 0)
(3.04521e-06 -7.53503e-07 0)
(3.21993e-06 -7.17399e-07 0)
(3.38931e-06 -6.85682e-07 0)
(3.55397e-06 -6.57246e-07 0)
(3.71442e-06 -6.31074e-07 0)
(3.87119e-06 -6.06287e-07 0)
(4.0247e-06 -5.82107e-07 0)
(4.1753e-06 -5.57839e-07 0)
(4.32323e-06 -5.32842e-07 0)
(4.46886e-06 -5.06511e-07 0)
(4.61242e-06 -4.78237e-07 0)
(4.75405e-06 -4.4737e-07 0)
(4.89401e-06 -4.13264e-07 0)
(5.03244e-06 -3.75149e-07 0)
(5.16934e-06 -3.3226e-07 0)
(5.30519e-06 -2.835e-07 0)
(5.43958e-06 -2.28271e-07 0)
(2.37175e-06 -1.01377e-06 0)
(2.56804e-06 -9.50043e-07 0)
(2.75755e-06 -8.96266e-07 0)
(2.94113e-06 -8.49345e-07 0)
(3.11903e-06 -8.08244e-07 0)
(3.2917e-06 -7.71666e-07 0)
(3.45964e-06 -7.38529e-07 0)
(3.62327e-06 -7.07856e-07 0)
(3.78306e-06 -6.78789e-07 0)
(3.93938e-06 -6.50555e-07 0)
(4.09256e-06 -6.2245e-07 0)
(4.24285e-06 -5.93818e-07 0)
(4.39062e-06 -5.64039e-07 0)
(4.53611e-06 -5.32485e-07 0)
(4.67945e-06 -4.98501e-07 0)
(4.82099e-06 -4.61438e-07 0)
(4.96084e-06 -4.20536e-07 0)
(5.09913e-06 -3.75059e-07 0)
(5.2363e-06 -3.23953e-07 0)
(5.37216e-06 -2.66591e-07 0)
(2.27929e-06 -1.11709e-06 0)
(2.47331e-06 -1.05215e-06 0)
(2.66245e-06 -9.9546e-07 0)
(2.84654e-06 -9.44842e-07 0)
(3.02569e-06 -8.99623e-07 0)
(3.20002e-06 -8.58771e-07 0)
(3.36988e-06 -8.21329e-07 0)
(3.53555e-06 -7.86423e-07 0)
(3.69739e-06 -7.53246e-07 0)
(3.85571e-06 -7.21061e-07 0)
(4.01079e-06 -6.89175e-07 0)
(4.16287e-06 -6.56936e-07 0)
(4.31233e-06 -6.23725e-07 0)
(4.45937e-06 -5.88918e-07 0)
(4.60414e-06 -5.51867e-07 0)
(4.74701e-06 -5.11938e-07 0)
(4.88809e-06 -4.684e-07 0)
(5.02763e-06 -4.20551e-07 0)
(5.16601e-06 -3.67377e-07 0)
(5.30321e-06 -3.08243e-07 0)
(2.19836e-06 -1.21622e-06 0)
(2.38936e-06 -1.1508e-06 0)
(2.5768e-06 -1.09212e-06 0)
(2.76002e-06 -1.03864e-06 0)
(2.93908e-06 -9.89986e-07 0)
(3.11386e-06 -9.45396e-07 0)
(3.28456e-06 -9.04082e-07 0)
(3.4513e-06 -8.65283e-07 0)
(3.61436e-06 -8.28267e-07 0)
(3.77398e-06 -7.92344e-07 0)
(3.93037e-06 -7.5685e-07 0)
(4.08375e-06 -7.21155e-07 0)
(4.23447e-06 -6.8466e-07 0)
(4.38272e-06 -6.46754e-07 0)
(4.52865e-06 -6.0681e-07 0)
(4.67265e-06 -5.64217e-07 0)
(4.81481e-06 -5.18284e-07 0)
(4.95544e-06 -4.68342e-07 0)
(5.09491e-06 -4.13416e-07 0)
(5.23336e-06 -3.52947e-07 0)
(2.12723e-06 -1.31115e-06 0)
(2.31464e-06 -1.24572e-06 0)
(2.49951e-06 -1.18581e-06 0)
(2.68092e-06 -1.13023e-06 0)
(2.85889e-06 -1.07885e-06 0)
(3.03315e-06 -1.03112e-06 0)
(3.20378e-06 -9.86432e-07 0)
(3.37077e-06 -9.44144e-07 0)
(3.53431e-06 -9.03612e-07 0)
(3.69459e-06 -8.64214e-07 0)
(3.85175e-06 -8.25331e-07 0)
(4.00596e-06 -7.8637e-07 0)
(4.15757e-06 -7.4677e-07 0)
(4.30672e-06 -7.05941e-07 0)
(4.45356e-06 -6.63286e-07 0)
(4.59847e-06 -6.18224e-07 0)
(4.74154e-06 -5.70105e-07 0)
(4.88314e-06 -5.18295e-07 0)
(5.02359e-06 -4.61897e-07 0)
(5.16318e-06 -4.00515e-07 0)
(2.06401e-06 -1.40203e-06 0)
(2.24757e-06 -1.33697e-06 0)
(2.42938e-06 -1.27632e-06 0)
(2.60836e-06 -1.21921e-06 0)
(2.78454e-06 -1.16566e-06 0)
(2.95756e-06 -1.11532e-06 0)
(3.1274e-06 -1.06773e-06 0)
(3.29397e-06 -1.02237e-06 0)
(3.45737e-06 -9.78675e-07 0)
(3.61776e-06 -9.36115e-07 0)
(3.77522e-06 -8.94119e-07 0)
(3.92986e-06 -8.52145e-07 0)
(4.08201e-06 -8.09674e-07 0)
(4.23176e-06 -7.66149e-07 0)
(4.37928e-06 -7.21004e-07 0)
(4.5249e-06 -6.73694e-07 0)
(4.66873e-06 -6.23612e-07 0)
(4.81115e-06 -5.70177e-07 0)
(4.95248e-06 -5.12626e-07 0)
(5.09309e-06 -4.50706e-07 0)
(2.00736e-06 -1.48907e-06 0)
(2.18691e-06 -1.42462e-06 0)
(2.36538e-06 -1.36359e-06 0)
(2.54149e-06 -1.30542e-06 0)
(2.7154e-06 -1.25021e-06 0)
(2.88666e-06 -1.19775e-06 0)
(3.05519e-06 -1.14772e-06 0)
(3.2208e-06 -1.09969e-06 0)
(3.38359e-06 -1.05321e-06 0)
(3.54364e-06 -1.00782e-06 0)
(3.70098e-06 -9.63011e-07 0)
(3.8557e-06 -9.18296e-07 0)
(4.00808e-06 -8.73203e-07 0)
(4.15817e-06 -8.27211e-07 0)
(4.30614e-06 -7.79794e-07 0)
(4.45228e-06 -7.30446e-07 0)
(4.59672e-06 -6.78616e-07 0)
(4.73983e-06 -6.23803e-07 0)
(4.88192e-06 -5.65407e-07 0)
(5.02341e-06 -5.03184e-07 0)
(1.95607e-06 -1.57246e-06 0)
(2.13161e-06 -1.50877e-06 0)
(2.30655e-06 -1.44767e-06 0)
(2.47958e-06 -1.3888e-06 0)
(2.65089e-06 -1.33235e-06 0)
(2.82001e-06 -1.27819e-06 0)
(2.98682e-06 -1.22611e-06 0)
(3.15108e-06 -1.17581e-06 0)
(3.31287e-06 -1.12689e-06 0)
(3.47222e-06 -1.079e-06 0)
(3.6291e-06 -1.03169e-06 0)
(3.7836e-06 -9.84524e-07 0)
(3.93595e-06 -9.37068e-07 0)
(4.08613e-06 -8.88846e-07 0)
(4.23435e-06 -8.39381e-07 0)
(4.38084e-06 -7.88214e-07 0)
(4.52574e-06 -7.3487e-07 0)
(4.66943e-06 -6.7894e-07 0)
(4.81217e-06 -6.19942e-07 0)
(4.9544e-06 -5.57563e-07 0)
(1.90909e-06 -1.65246e-06 0)
(2.08069e-06 -1.58963e-06 0)
(2.25203e-06 -1.52868e-06 0)
(2.42186e-06 -1.46939e-06 0)
(2.59037e-06 -1.41201e-06 0)
(2.7571e-06 -1.3565e-06 0)
(2.92191e-06 -1.30274e-06 0)
(3.08455e-06 -1.2505e-06 0)
(3.24504e-06 -1.1995e-06 0)
(3.40341e-06 -1.14944e-06 0)
(3.55957e-06 -1.09993e-06 0)
(3.71359e-06 -1.0506e-06 0)
(3.86566e-06 -1.00105e-06 0)
(4.01575e-06 -9.50845e-07 0)
(4.16403e-06 -8.99565e-07 0)
(4.31073e-06 -8.46814e-07 0)
(4.45597e-06 -7.92198e-07 0)
(4.60012e-06 -7.35383e-07 0)
(4.74338e-06 -6.75927e-07 0)
(4.88624e-06 -6.13571e-07 0)
(1.86548e-06 -1.72934e-06 0)
(2.03325e-06 -1.66742e-06 0)
(2.20101e-06 -1.60675e-06 0)
(2.3676e-06 -1.54724e-06 0)
(2.5332e-06 -1.48919e-06 0)
(2.6974e-06 -1.43261e-06 0)
(2.86004e-06 -1.37747e-06 0)
(3.02086e-06 -1.32364e-06 0)
(3.17986e-06 -1.27088e-06 0)
(3.33704e-06 -1.21896e-06 0)
(3.49228e-06 -1.16757e-06 0)
(3.64562e-06 -1.11636e-06 0)
(3.79723e-06 -1.06499e-06 0)
(3.94705e-06 -1.01305e-06 0)
(4.09525e-06 -9.60195e-07 0)
(4.24204e-06 -9.061e-07 0)
(4.3875e-06 -8.50436e-07 0)
(4.532e-06 -7.92905e-07 0)
(4.67569e-06 -7.33098e-07 0)
(4.81906e-06 -6.70971e-07 0)
(1.82444e-06 -1.80338e-06 0)
(1.98849e-06 -1.74238e-06 0)
(2.15273e-06 -1.68206e-06 0)
(2.3161e-06 -1.62247e-06 0)
(2.47878e-06 -1.56395e-06 0)
(2.64038e-06 -1.50655e-06 0)
(2.80076e-06 -1.45033e-06 0)
(2.95965e-06 -1.3952e-06 0)
(3.11703e-06 -1.34099e-06 0)
(3.27288e-06 -1.28752e-06 0)
(3.42705e-06 -1.23452e-06 0)
(3.57957e-06 -1.18169e-06 0)
(3.73057e-06 -1.12874e-06 0)
(3.88e-06 -1.07531e-06 0)
(4.02801e-06 -1.02113e-06 0)
(4.17478e-06 -9.65907e-07 0)
(4.32038e-06 -9.0937e-07 0)
(4.46512e-06 -8.51242e-07 0)
(4.60914e-06 -7.91242e-07 0)
(4.75292e-06 -7.29441e-07 0)
(1.78523e-06 -1.87484e-06 0)
(1.94569e-06 -1.8147e-06 0)
(2.10651e-06 -1.75477e-06 0)
(2.26672e-06 -1.69522e-06 0)
(2.4265e-06 -1.6364e-06 0)
(2.58552e-06 -1.57842e-06 0)
(2.74362e-06 -1.52135e-06 0)
(2.90053e-06 -1.46518e-06 0)
(3.05622e-06 -1.40979e-06 0)
(3.21065e-06 -1.35503e-06 0)
(3.36365e-06 -1.30067e-06 0)
(3.51525e-06 -1.24647e-06 0)
(3.66557e-06 -1.19218e-06 0)
(3.81452e-06 -1.13751e-06 0)
(3.96226e-06 -1.08222e-06 0)
(4.10894e-06 -1.02607e-06 0)
(4.25457e-06 -9.68812e-07 0)
(4.39947e-06 -9.10219e-07 0)
(4.54374e-06 -8.50209e-07 0)
(4.68784e-06 -7.88725e-07 0)
(1.74716e-06 -1.94391e-06 0)
(1.90419e-06 -1.88456e-06 0)
(2.0617e-06 -1.82507e-06 0)
(2.21886e-06 -1.76565e-06 0)
(2.37583e-06 -1.70668e-06 0)
(2.53232e-06 -1.64828e-06 0)
(2.68816e-06 -1.59058e-06 0)
(2.84309e-06 -1.53359e-06 0)
(2.99707e-06 -1.47726e-06 0)
(3.15004e-06 -1.42145e-06 0)
(3.30184e-06 -1.36598e-06 0)
(3.45248e-06 -1.31066e-06 0)
(3.60206e-06 -1.25528e-06 0)
(3.7505e-06 -1.1996e-06 0)
(3.89792e-06 -1.1434e-06 0)
(4.04443e-06 -1.08649e-06 0)
(4.19003e-06 -1.02864e-06 0)
(4.33502e-06 -9.69747e-07 0)
(4.47947e-06 -9.09798e-07 0)
(4.6238e-06 -8.48669e-07 0)
(1.70962e-06 -2.01076e-06 0)
(1.86336e-06 -1.95219e-06 0)
(2.01772e-06 -1.89315e-06 0)
(2.17195e-06 -1.83393e-06 0)
(2.32622e-06 -1.7749e-06 0)
(2.48027e-06 -1.71624e-06 0)
(2.63392e-06 -1.65811e-06 0)
(2.78692e-06 -1.6005e-06 0)
(2.93922e-06 -1.54345e-06 0)
(3.09075e-06 -1.48683e-06 0)
(3.24135e-06 -1.43048e-06 0)
(3.39103e-06 -1.37426e-06 0)
(3.53988e-06 -1.31799e-06 0)
(3.68779e-06 -1.26149e-06 0)
(3.83483e-06 -1.20456e-06 0)
(3.98112e-06 -1.14702e-06 0)
(4.12665e-06 -1.08873e-06 0)
(4.2717e-06 -1.02969e-06 0)
(4.41628e-06 -9.69763e-07 0)
(4.56077e-06 -9.09029e-07 0)
(1.67199e-06 -2.07565e-06 0)
(1.82262e-06 -2.01779e-06 0)
(1.97398e-06 -1.95919e-06 0)
(2.12545e-06 -1.90021e-06 0)
(2.27716e-06 -1.84124e-06 0)
(2.4289e-06 -1.78246e-06 0)
(2.58047e-06 -1.72406e-06 0)
(2.73162e-06 -1.66603e-06 0)
(2.88231e-06 -1.60842e-06 0)
(3.03246e-06 -1.55116e-06 0)
(3.18192e-06 -1.49414e-06 0)
(3.3307e-06 -1.43725e-06 0)
(3.47883e-06 -1.38031e-06 0)
(3.62619e-06 -1.32317e-06 0)
(3.77284e-06 -1.26566e-06 0)
(3.9189e-06 -1.20765e-06 0)
(4.06435e-06 -1.14907e-06 0)
(4.20941e-06 -1.08992e-06 0)
(4.35407e-06 -1.03006e-06 0)
(4.49863e-06 -9.69661e-07 0)
(1.63371e-06 -2.13875e-06 0)
(1.78139e-06 -2.08156e-06 0)
(1.9299e-06 -2.02335e-06 0)
(2.07881e-06 -1.96466e-06 0)
(2.22815e-06 -1.90585e-06 0)
(2.37774e-06 -1.84707e-06 0)
(2.52738e-06 -1.78852e-06 0)
(2.6768e-06 -1.73024e-06 0)
(2.82599e-06 -1.67226e-06 0)
(2.9749e-06 -1.61455e-06 0)
(3.12333e-06 -1.55705e-06 0)
(3.27125e-06 -1.49965e-06 0)
(3.41869e-06 -1.44221e-06 0)
(3.5655e-06 -1.38457e-06 0)
(3.71179e-06 -1.32663e-06 0)
(3.85764e-06 -1.2683e-06 0)
(4.003e-06 -1.20955e-06 0)
(4.14803e-06 -1.15026e-06 0)
(4.29269e-06 -1.09052e-06 0)
(4.43726e-06 -1.03042e-06 0)
(1.59419e-06 -2.20019e-06 0)
(1.73898e-06 -2.1435e-06 0)
(1.8848e-06 -2.08582e-06 0)
(2.03146e-06 -2.02755e-06 0)
(2.17864e-06 -1.96894e-06 0)
(2.32631e-06 -1.91025e-06 0)
(2.47419e-06 -1.85166e-06 0)
(2.62209e-06 -1.79326e-06 0)
(2.76998e-06 -1.73508e-06 0)
(2.91779e-06 -1.67711e-06 0)
(3.0653e-06 -1.61929e-06 0)
(3.21243e-06 -1.56153e-06 0)
(3.35923e-06 -1.50372e-06 0)
(3.50557e-06 -1.44574e-06 0)
(3.65155e-06 -1.38752e-06 0)
(3.79723e-06 -1.32899e-06 0)
(3.94243e-06 -1.27007e-06 0)
(4.08732e-06 -1.21068e-06 0)
(4.23197e-06 -1.15105e-06 0)
(4.37671e-06 -1.09121e-06 0)
(1.5525e-06 -2.25993e-06 0)
(1.69484e-06 -2.20385e-06 0)
(1.83845e-06 -2.1468e-06 0)
(1.98292e-06 -2.08894e-06 0)
(2.1282e-06 -2.03065e-06 0)
(2.27415e-06 -1.97216e-06 0)
(2.42054e-06 -1.91365e-06 0)
(2.56718e-06 -1.85524e-06 0)
(2.71401e-06 -1.797e-06 0)
(2.8609e-06 -1.7389e-06 0)
(3.00757e-06 -1.68089e-06 0)
(3.154e-06 -1.62292e-06 0)
(3.30031e-06 -1.5649e-06 0)
(3.44633e-06 -1.50671e-06 0)
(3.59202e-06 -1.44831e-06 0)
(3.73734e-06 -1.38962e-06 0)
(3.88235e-06 -1.33055e-06 0)
(4.02732e-06 -1.2712e-06 0)
(4.17194e-06 -1.21162e-06 0)
(4.31644e-06 -1.15195e-06 0)
(1.50807e-06 -2.31863e-06 0)
(1.64818e-06 -2.26323e-06 0)
(1.78975e-06 -2.20664e-06 0)
(1.93242e-06 -2.14923e-06 0)
(2.07612e-06 -2.0913e-06 0)
(2.22073e-06 -2.03309e-06 0)
(2.36604e-06 -1.97478e-06 0)
(2.51178e-06 -1.91648e-06 0)
(2.65776e-06 -1.85825e-06 0)
(2.80385e-06 -1.80011e-06 0)
(2.94993e-06 -1.74204e-06 0)
(3.09599e-06 -1.68397e-06 0)
(3.24192e-06 -1.62581e-06 0)
(3.38746e-06 -1.56751e-06 0)
(3.53281e-06 -1.50898e-06 0)
(3.67805e-06 -1.45017e-06 0)
(3.82293e-06 -1.39104e-06 0)
(3.96771e-06 -1.33167e-06 0)
(4.11231e-06 -1.27212e-06 0)
(4.25677e-06 -1.21257e-06 0)
(1.4603e-06 -2.37577e-06 0)
(1.59843e-06 -2.32115e-06 0)
(1.73828e-06 -2.26527e-06 0)
(1.87951e-06 -2.20842e-06 0)
(2.02212e-06 -2.15098e-06 0)
(2.16591e-06 -2.09317e-06 0)
(2.31049e-06 -2.03515e-06 0)
(2.4555e-06 -1.97705e-06 0)
(2.60093e-06 -1.91895e-06 0)
(2.74673e-06 -1.86088e-06 0)
(2.8925e-06 -1.80282e-06 0)
(3.03811e-06 -1.74472e-06 0)
(3.18369e-06 -1.6865e-06 0)
(3.32904e-06 -1.62813e-06 0)
(3.47412e-06 -1.56953e-06 0)
(3.6191e-06 -1.51064e-06 0)
(3.76385e-06 -1.45153e-06 0)
(3.90849e-06 -1.39209e-06 0)
(4.05305e-06 -1.33254e-06 0)
(4.19731e-06 -1.27298e-06 0)
(1.04534e-07 -1.98223e-06 0)
(3.14855e-07 -1.95371e-06 0)
(5.28926e-07 -1.89749e-06 0)
(7.48793e-07 -1.81622e-06 0)
(9.76169e-07 -1.71273e-06 0)
(1.21215e-06 -1.59109e-06 0)
(1.4571e-06 -1.45565e-06 0)
(1.71066e-06 -1.31101e-06 0)
(1.97208e-06 -1.16178e-06 0)
(2.23934e-06 -1.0116e-06 0)
(1.02052e-07 -2.0168e-06 0)
(3.07186e-07 -1.99084e-06 0)
(5.15386e-07 -1.9395e-06 0)
(7.28318e-07 -1.86518e-06 0)
(9.47385e-07 -1.77022e-06 0)
(1.1735e-06 -1.65806e-06 0)
(1.40692e-06 -1.53246e-06 0)
(1.64726e-06 -1.39735e-06 0)
(1.89325e-06 -1.25706e-06 0)
(2.14339e-06 -1.11475e-06 0)
(9.97933e-08 -2.05252e-06 0)
(3.00195e-07 -2.02887e-06 0)
(5.02999e-07 -1.98196e-06 0)
(7.09542e-07 -1.91399e-06 0)
(9.20941e-07 -1.82693e-06 0)
(1.13793e-06 -1.72372e-06 0)
(1.36074e-06 -1.60761e-06 0)
(1.58927e-06 -1.48189e-06 0)
(1.8225e-06 -1.3504e-06 0)
(2.0596e-06 -1.21515e-06 0)
(9.7712e-08 -2.08931e-06 0)
(2.93827e-07 -2.06762e-06 0)
(4.91852e-07 -2.02446e-06 0)
(6.92878e-07 -1.96187e-06 0)
(8.97812e-07 -1.88155e-06 0)
(1.10718e-06 -1.78601e-06 0)
(1.32115e-06 -1.67821e-06 0)
(1.5396e-06 -1.56102e-06 0)
(1.76164e-06 -1.43807e-06 0)
(1.98659e-06 -1.31085e-06 0)
(9.57666e-08 -2.12709e-06 0)
(2.87829e-07 -2.10713e-06 0)
(4.8144e-07 -2.06732e-06 0)
(6.77435e-07 -2.00952e-06 0)
(8.76556e-07 -1.93528e-06 0)
(1.0792e-06 -1.84675e-06 0)
(1.28551e-06 -1.7466e-06 0)
(1.49539e-06 -1.63732e-06 0)
(1.70813e-06 -1.52217e-06 0)
(1.92272e-06 -1.40249e-06 0)
(9.39486e-08 -2.16578e-06 0)
(2.82202e-07 -2.14729e-06 0)
(4.71737e-07 -2.11042e-06 0)
(6.63174e-07 -2.05678e-06 0)
(8.57121e-07 -1.98785e-06 0)
(1.0539e-06 -1.90551e-06 0)
(1.25355e-06 -1.81221e-06 0)
(1.45593e-06 -1.71018e-06 0)
(1.66059e-06 -1.60234e-06 0)
(1.86622e-06 -1.49004e-06 0)
(9.21659e-08 -2.20529e-06 0)
(2.76794e-07 -2.1881e-06 0)
(4.62459e-07 -2.15387e-06 0)
(6.49648e-07 -2.10392e-06 0)
(8.38884e-07 -2.03975e-06 0)
(1.0304e-06 -1.96299e-06 0)
(1.22422e-06 -1.87588e-06 0)
(1.4201e-06 -1.78043e-06 0)
(1.61781e-06 -1.67922e-06 0)
(1.81578e-06 -1.57374e-06 0)
(9.04256e-08 -2.24554e-06 0)
(2.7156e-07 -2.22947e-06 0)
(4.53515e-07 -2.19758e-06 0)
(6.36716e-07 -2.1509e-06 0)
(8.21632e-07 -2.09094e-06 0)
(1.00838e-06 -2.01919e-06 0)
(1.197e-06 -1.93765e-06 0)
(1.38713e-06 -1.84817e-06 0)
(1.57877e-06 -1.75304e-06 0)
(1.77019e-06 -1.65385e-06 0)
(8.87462e-08 -2.28645e-06 0)
(2.66424e-07 -2.27137e-06 0)
(4.44767e-07 -2.24157e-06 0)
(6.24168e-07 -2.19783e-06 0)
(8.05023e-07 -2.14166e-06 0)
(9.8741e-07 -2.07441e-06 0)
(1.17133e-06 -1.99787e-06 0)
(1.35638e-06 -1.91377e-06 0)
(1.54266e-06 -1.82416e-06 0)
(1.72844e-06 -1.73072e-06 0)
(8.70841e-08 -2.32792e-06 0)
(2.61312e-07 -2.3137e-06 0)
(4.36117e-07 -2.28575e-06 0)
(6.11871e-07 -2.24469e-06 0)
(7.8886e-07 -2.19191e-06 0)
(9.67177e-07 -2.12869e-06 0)
(1.1468e-06 -2.05667e-06 0)
(1.32728e-06 -1.97745e-06 0)
(1.50877e-06 -1.89288e-06 0)
(1.68963e-06 -1.80469e-06 0)
(8.53785e-08 -2.36985e-06 0)
(2.56163e-07 -2.35638e-06 0)
(4.27479e-07 -2.33011e-06 0)
(5.99663e-07 -2.29147e-06 0)
(7.72929e-07 -2.24177e-06 0)
(9.47382e-07 -2.18219e-06 0)
(1.12301e-06 -2.11424e-06 0)
(1.29931e-06 -2.03947e-06 0)
(1.47647e-06 -1.95949e-06 0)
(1.65298e-06 -1.87601e-06 0)
(8.3628e-08 -2.41208e-06 0)
(2.50964e-07 -2.39931e-06 0)
(4.18795e-07 -2.37456e-06 0)
(5.87411e-07 -2.33813e-06 0)
(7.57034e-07 -2.29122e-06 0)
(9.27756e-07 -2.23494e-06 0)
(1.09958e-06 -2.1707e-06 0)
(1.272e-06 -2.09997e-06 0)
(1.4452e-06 -2.02414e-06 0)
(1.61782e-06 -1.94492e-06 0)
(8.1854e-08 -2.45452e-06 0)
(2.45684e-07 -2.44243e-06 0)
(4.09971e-07 -2.41906e-06 0)
(5.74973e-07 -2.38463e-06 0)
(7.40974e-07 -2.34027e-06 0)
(9.08041e-07 -2.28699e-06 0)
(1.07619e-06 -2.22614e-06 0)
(1.24494e-06 -2.15907e-06 0)
(1.41443e-06 -2.087e-06 0)
(1.58352e-06 -2.01166e-06 0)
(8.00458e-08 -2.49705e-06 0)
(2.40244e-07 -2.48561e-06 0)
(4.00875e-07 -2.46348e-06 0)
(5.62198e-07 -2.4309e-06 0)
(7.24547e-07 -2.38886e-06 0)
(8.87976e-07 -2.33835e-06 0)
(1.05251e-06 -2.2806e-06 0)
(1.2177e-06 -2.21684e-06 0)
(1.3837e-06 -2.14825e-06 0)
(1.54949e-06 -2.07643e-06 0)
(7.81565e-08 -2.53959e-06 0)
(2.34541e-07 -2.52876e-06 0)
(3.91368e-07 -2.50777e-06 0)
(5.48912e-07 -2.47689e-06 0)
(7.07522e-07 -2.43701e-06 0)
(8.67266e-07 -2.38906e-06 0)
(1.02817e-06 -2.33413e-06 0)
(1.18988e-06 -2.27339e-06 0)
(1.3525e-06 -2.20802e-06 0)
(1.51518e-06 -2.1394e-06 0)
(7.61421e-08 -2.58193e-06 0)
(2.28492e-07 -2.57168e-06 0)
(3.81327e-07 -2.55175e-06 0)
(5.34932e-07 -2.52246e-06 0)
(6.89659e-07 -2.48456e-06 0)
(8.45611e-07 -2.43896e-06 0)
(1.00285e-06 -2.38664e-06 0)
(1.16108e-06 -2.32876e-06 0)
(1.32038e-06 -2.26634e-06 0)
(1.48004e-06 -2.20067e-06 0)
(7.39776e-08 -2.62401e-06 0)
(2.22027e-07 -2.61434e-06 0)
(3.70619e-07 -2.59539e-06 0)
(5.20055e-07 -2.56758e-06 0)
(6.70696e-07 -2.53156e-06 0)
(8.22694e-07 -2.48816e-06 0)
(9.7615e-07 -2.4383e-06 0)
(1.13084e-06 -2.3831e-06 0)
(1.2868e-06 -2.32338e-06 0)
(1.44345e-06 -2.26046e-06 0)
(7.16482e-08 -2.66543e-06 0)
(2.15078e-07 -2.6563e-06 0)
(3.59109e-07 -2.63829e-06 0)
(5.04079e-07 -2.61187e-06 0)
(6.50372e-07 -2.57762e-06 0)
(7.98195e-07 -2.53631e-06 0)
(9.47679e-07 -2.48882e-06 0)
(1.09866e-06 -2.43614e-06 0)
(1.25116e-06 -2.37902e-06 0)
(1.40478e-06 -2.31866e-06 0)
(6.91199e-08 -2.70637e-06 0)
(2.07522e-07 -2.69775e-06 0)
(3.46581e-07 -2.68068e-06 0)
(4.86695e-07 -2.6556e-06 0)
(6.2828e-07 -2.62305e-06 0)
(7.71613e-07 -2.58377e-06 0)
(9.16844e-07 -2.53857e-06 0)
(1.06387e-06 -2.48827e-06 0)
(1.21272e-06 -2.43368e-06 0)
(1.36319e-06 -2.37578e-06 0)
(6.63727e-08 -2.74574e-06 0)
(1.99299e-07 -2.73757e-06 0)
(3.32928e-07 -2.72142e-06 0)
(4.67754e-07 -2.69767e-06 0)
(6.04249e-07 -2.66682e-06 0)
(7.42711e-07 -2.62957e-06 0)
(8.83314e-07 -2.58662e-06 0)
(1.02605e-06 -2.53873e-06 0)
(1.17103e-06 -2.48667e-06 0)
(1.3182e-06 -2.43125e-06 0)
)


// ************************************************************************* //
