/*--------------------------------*- C++ -*----------------------------------*\
| =========                 |                                                 |
| \\      /  F ield         | foam-extend: Open Source CFD                    |
|  \\    /   O peration     | Version:     4.1                                |
|   \\  /    A nd           | Web:         http://www.foam-extend.org         |
|    \\/     M anipulation  |                                                 |
\*---------------------------------------------------------------------------*/
FoamFile
{
    version     2.0;
    format      ascii;
    class       vectorField;
    location    "5";
    object      solidsCellD_iteration13;
}
// * * * * * * * * * * * * * * * * * * * * * * * * * * * * * * * * * * * * * //


1000
(
(2.57751e-06 -1.0808e-06 0)
(2.43276e-06 -1.00632e-06 0)
(2.34049e-06 -9.5932e-07 0)
(2.28765e-06 -9.37738e-07 0)
(2.26206e-06 -9.30732e-07 0)
(2.25636e-06 -9.34966e-07 0)
(2.26532e-06 -9.46542e-07 0)
(2.28522e-06 -9.6362e-07 0)
(2.31352e-06 -9.84366e-07 0)
(2.34789e-06 -1.00763e-06 0)
(2.33061e-06 -1.18068e-06 0)
(2.17652e-06 -1.12914e-06 0)
(2.07834e-06 -1.09665e-06 0)
(2.02112e-06 -1.08494e-06 0)
(1.99206e-06 -1.08449e-06 0)
(1.98322e-06 -1.09336e-06 0)
(1.98917e-06 -1.10822e-06 0)
(2.00596e-06 -1.12776e-06 0)
(2.0309e-06 -1.15047e-06 0)
(2.06136e-06 -1.17512e-06 0)
(2.07409e-06 -1.27532e-06 0)
(1.91669e-06 -1.24942e-06 0)
(1.81639e-06 -1.23317e-06 0)
(1.75726e-06 -1.23235e-06 0)
(1.72634e-06 -1.23903e-06 0)
(1.71537e-06 -1.2528e-06 0)
(1.71889e-06 -1.27108e-06 0)
(1.73297e-06 -1.29304e-06 0)
(1.75484e-06 -1.31765e-06 0)
(1.78204e-06 -1.34356e-06 0)
(1.80978e-06 -1.36306e-06 0)
(1.65573e-06 -1.36403e-06 0)
(1.55753e-06 -1.36484e-06 0)
(1.4991e-06 -1.37534e-06 0)
(1.46795e-06 -1.38941e-06 0)
(1.45585e-06 -1.40821e-06 0)
(1.45749e-06 -1.42991e-06 0)
(1.46912e-06 -1.45428e-06 0)
(1.48809e-06 -1.48069e-06 0)
(1.51197e-06 -1.50799e-06 0)
(1.53963e-06 -1.44216e-06 0)
(1.39538e-06 -1.46977e-06 0)
(1.30346e-06 -1.48745e-06 0)
(1.24846e-06 -1.50914e-06 0)
(1.21872e-06 -1.53047e-06 0)
(1.20643e-06 -1.55422e-06 0)
(1.20673e-06 -1.57925e-06 0)
(1.21616e-06 -1.60595e-06 0)
(1.2323e-06 -1.63412e-06 0)
(1.25279e-06 -1.66285e-06 0)
(1.26481e-06 -1.51105e-06 0)
(1.13681e-06 -1.56356e-06 0)
(1.05527e-06 -1.59704e-06 0)
(1.00621e-06 -1.62922e-06 0)
(9.79376e-07 -1.65732e-06 0)
(9.67813e-07 -1.68565e-06 0)
(9.67343e-07 -1.71375e-06 0)
(9.7479e-07 -1.74263e-06 0)
(9.88089e-07 -1.77241e-06 0)
(1.00501e-06 -1.80255e-06 0)
(9.86769e-07 -1.56813e-06 0)
(8.80634e-07 -1.64246e-06 0)
(8.13029e-07 -1.68982e-06 0)
(7.7219e-07 -1.73119e-06 0)
(7.4971e-07 -1.76521e-06 0)
(7.39778e-07 -1.79754e-06 0)
(7.38958e-07 -1.82831e-06 0)
(7.44565e-07 -1.8591e-06 0)
(7.54949e-07 -1.8903e-06 0)
(7.68196e-07 -1.92172e-06 0)
(7.06408e-07 -1.61217e-06 0)
(6.26885e-07 -1.70405e-06 0)
(5.76267e-07 -1.76252e-06 0)
(5.45643e-07 -1.81122e-06 0)
(5.28719e-07 -1.85001e-06 0)
(5.21106e-07 -1.88556e-06 0)
(5.20239e-07 -1.91852e-06 0)
(5.24112e-07 -1.95086e-06 0)
(5.31542e-07 -1.98318e-06 0)
(5.41043e-07 -2.01567e-06 0)
(4.24493e-07 -1.64211e-06 0)
(3.75262e-07 -1.74624e-06 0)
(3.43965e-07 -1.81246e-06 0)
(3.24962e-07 -1.86634e-06 0)
(3.14389e-07 -1.90846e-06 0)
(3.09569e-07 -1.94625e-06 0)
(3.08955e-07 -1.98073e-06 0)
(3.11261e-07 -2.01421e-06 0)
(3.1572e-07 -2.04734e-06 0)
(3.21422e-07 -2.0806e-06 0)
(1.41771e-07 -1.6572e-06 0)
(1.25105e-07 -1.76766e-06 0)
(1.14435e-07 -1.83789e-06 0)
(1.07965e-07 -1.89441e-06 0)
(1.04405e-07 -1.93825e-06 0)
(1.02749e-07 -1.97723e-06 0)
(1.02469e-07 -2.01247e-06 0)
(1.03211e-07 -2.0465e-06 0)
(1.04711e-07 -2.08006e-06 0)
(1.06609e-07 -2.11373e-06 0)
(4.02142e-06 -4.9283e-08 0)
(4.05738e-06 -3.55035e-08 0)
(4.07933e-06 -2.67796e-08 0)
(4.1031e-06 -2.1655e-08 0)
(4.12918e-06 -1.88174e-08 0)
(4.16116e-06 -1.75478e-08 0)
(4.19906e-06 -1.73326e-08 0)
(4.24325e-06 -1.77468e-08 0)
(4.29365e-06 -1.87032e-08 0)
(4.34957e-06 -1.98768e-08 0)
(3.99163e-06 -1.47889e-07 0)
(4.02161e-06 -1.07351e-07 0)
(4.03981e-06 -8.16871e-08 0)
(4.06105e-06 -6.67372e-08 0)
(4.08544e-06 -5.85569e-08 0)
(4.1162e-06 -5.48145e-08 0)
(4.15326e-06 -5.42091e-08 0)
(4.19676e-06 -5.56506e-08 0)
(4.24655e-06 -5.85559e-08 0)
(4.30185e-06 -6.19805e-08 0)
(3.93221e-06 -2.47291e-07 0)
(3.95072e-06 -1.82253e-07 0)
(3.96169e-06 -1.41115e-07 0)
(3.97812e-06 -1.17081e-07 0)
(3.99934e-06 -1.04024e-07 0)
(4.02788e-06 -9.82679e-08 0)
(4.06324e-06 -9.74931e-08 0)
(4.10543e-06 -9.99583e-08 0)
(4.15405e-06 -1.04759e-07 0)
(4.20814e-06 -1.10482e-07 0)
(3.84418e-06 -3.47996e-07 0)
(3.84639e-06 -2.61932e-07 0)
(3.847e-06 -2.07597e-07 0)
(3.85661e-06 -1.76004e-07 0)
(3.87328e-06 -1.58904e-07 0)
(3.89865e-06 -1.51521e-07 0)
(3.93166e-06 -1.50747e-07 0)
(3.97197e-06 -1.54357e-07 0)
(4.01895e-06 -1.61057e-07 0)
(4.07135e-06 -1.69087e-07 0)
(3.72887e-06 -4.50232e-07 0)
(3.71096e-06 -3.47847e-07 0)
(3.69878e-06 -2.8324e-07 0)
(3.69991e-06 -2.45952e-07 0)
(3.71097e-06 -2.25952e-07 0)
(3.73237e-06 -2.17632e-07 0)
(3.76245e-06 -2.17219e-07 0)
(3.8004e-06 -2.22127e-07 0)
(3.84536e-06 -2.30701e-07 0)
(3.89574e-06 -2.40985e-07 0)
(3.58799e-06 -5.54088e-07 0)
(3.54731e-06 -4.40981e-07 0)
(3.52072e-06 -3.69597e-07 0)
(3.51228e-06 -3.28814e-07 0)
(3.51696e-06 -3.07273e-07 0)
(3.53383e-06 -2.9882e-07 0)
(3.56059e-06 -2.9918e-07 0)
(3.59585e-06 -3.05527e-07 0)
(3.63846e-06 -3.15963e-07 0)
(3.68655e-06 -3.28456e-07 0)
(3.42368e-06 -6.59363e-07 0)
(3.3589e-06 -5.41727e-07 0)
(3.31706e-06 -4.67461e-07 0)
(3.29851e-06 -4.25627e-07 0)
(3.29643e-06 -4.04003e-07 0)
(3.30849e-06 -3.96296e-07 0)
(3.3317e-06 -3.97888e-07 0)
(3.36405e-06 -4.05835e-07 0)
(3.40412e-06 -4.18127e-07 0)
(3.44979e-06 -4.32738e-07 0)
(3.23805e-06 -7.65535e-07 0)
(3.14941e-06 -6.49825e-07 0)
(3.0925e-06 -5.76734e-07 0)
(3.06387e-06 -5.36407e-07 0)
(3.05508e-06 -5.16243e-07 0)
(3.06228e-06 -5.10215e-07 0)
(3.08181e-06 -5.13547e-07 0)
(3.11116e-06 -5.23341e-07 0)
(3.14854e-06 -5.37517e-07 0)
(3.19167e-06 -5.54197e-07 0)
(3.03354e-06 -8.71891e-07 0)
(2.92272e-06 -7.64363e-07 0)
(2.8518e-06 -6.96475e-07 0)
(2.81373e-06 -6.60163e-07 0)
(2.79856e-06 -6.43003e-07 0)
(2.80101e-06 -6.39544e-07 0)
(2.81685e-06 -6.45124e-07 0)
(2.84314e-06 -6.56975e-07 0)
(2.87772e-06 -6.7316e-07 0)
(2.91833e-06 -6.91671e-07 0)
(2.81257e-06 -9.77419e-07 0)
(2.68269e-06 -8.8388e-07 0)
(2.59971e-06 -8.24848e-07 0)
(2.5534e-06 -7.94913e-07 0)
(2.53253e-06 -7.82213e-07 0)
(2.53068e-06 -7.822e-07 0)
(2.54312e-06 -7.90547e-07 0)
(2.56637e-06 -8.04879e-07 0)
(2.59825e-06 -8.23206e-07 0)
(2.63603e-06 -8.44472e-07 0)
(4.41117e-06 -2.10042e-08 0)
(4.47829e-06 -2.1268e-08 0)
(4.54965e-06 -2.15652e-08 0)
(4.62502e-06 -2.17812e-08 0)
(4.70391e-06 -2.18998e-08 0)
(4.78605e-06 -2.19083e-08 0)
(4.87105e-06 -2.17638e-08 0)
(4.95859e-06 -2.14967e-08 0)
(5.04842e-06 -2.11191e-08 0)
(5.14027e-06 -2.05962e-08 0)
(5.23386e-06 -1.98994e-08 0)
(5.3289e-06 -1.90201e-08 0)
(5.42515e-06 -1.79493e-08 0)
(5.52231e-06 -1.66811e-08 0)
(5.62014e-06 -1.5198e-08 0)
(5.7183e-06 -1.34637e-08 0)
(5.81658e-06 -1.14318e-08 0)
(5.91436e-06 -9.0603e-09 0)
(6.01175e-06 -6.29832e-09 0)
(6.10727e-06 -3.12692e-09 0)
(4.36556e-06 -6.51111e-08 0)
(4.43648e-06 -6.56201e-08 0)
(4.51125e-06 -6.62603e-08 0)
(4.5896e-06 -6.66909e-08 0)
(4.67115e-06 -6.68147e-08 0)
(4.75561e-06 -6.66642e-08 0)
(4.84272e-06 -6.61717e-08 0)
(4.93219e-06 -6.53386e-08 0)
(5.02378e-06 -6.41082e-08 0)
(5.11722e-06 -6.24152e-08 0)
(5.21225e-06 -6.02401e-08 0)
(5.30864e-06 -5.75771e-08 0)
(5.40617e-06 -5.43764e-08 0)
(5.50455e-06 -5.05736e-08 0)
(5.60355e-06 -4.60917e-08 0)
(5.7028e-06 -4.08444e-08 0)
(5.80213e-06 -3.47212e-08 0)
(5.90093e-06 -2.76103e-08 0)
(5.99933e-06 -1.93433e-08 0)
(6.0958e-06 -9.84987e-09 0)
(4.27596e-06 -1.15018e-07 0)
(4.35438e-06 -1.14934e-07 0)
(4.43584e-06 -1.15134e-07 0)
(4.51993e-06 -1.15198e-07 0)
(4.60664e-06 -1.1489e-07 0)
(4.69572e-06 -1.14241e-07 0)
(4.78701e-06 -1.13078e-07 0)
(4.8802e-06 -1.11381e-07 0)
(4.97518e-06 -1.09058e-07 0)
(5.07171e-06 -1.06043e-07 0)
(5.16961e-06 -1.02303e-07 0)
(5.26868e-06 -9.77907e-08 0)
(5.36869e-06 -9.23929e-08 0)
(5.46939e-06 -8.59933e-08 0)
(5.57057e-06 -7.84734e-08 0)
(5.67193e-06 -6.97007e-08 0)
(5.7733e-06 -5.94905e-08 0)
(5.87411e-06 -4.76562e-08 0)
(5.97449e-06 -3.39066e-08 0)
(6.07296e-06 -1.81117e-08 0)
(4.14503e-06 -1.74e-07 0)
(4.23416e-06 -1.71995e-07 0)
(4.32527e-06 -1.70552e-07 0)
(4.41778e-06 -1.69333e-07 0)
(4.51207e-06 -1.6783e-07 0)
(4.60785e-06 -1.66074e-07 0)
(4.70518e-06 -1.63743e-07 0)
(4.80384e-06 -1.60802e-07 0)
(4.90383e-06 -1.571e-07 0)
(5.00497e-06 -1.52541e-07 0)
(5.10711e-06 -1.47042e-07 0)
(5.2101e-06 -1.40504e-07 0)
(5.31376e-06 -1.32769e-07 0)
(5.41788e-06 -1.23686e-07 0)
(5.52232e-06 -1.13099e-07 0)
(5.62679e-06 -1.00804e-07 0)
(5.73116e-06 -8.65381e-08 0)
(5.83489e-06 -7.0024e-08 0)
(5.93809e-06 -5.0838e-08 0)
(6.03943e-06 -2.88201e-08 0)
(3.97673e-06 -2.44943e-07 0)
(4.07933e-06 -2.39323e-07 0)
(4.18271e-06 -2.34729e-07 0)
(4.28587e-06 -2.31071e-07 0)
(4.3898e-06 -2.2738e-07 0)
(4.49416e-06 -2.23712e-07 0)
(4.59928e-06 -2.19556e-07 0)
(4.705e-06 -2.14856e-07 0)
(4.81142e-06 -2.09354e-07 0)
(4.91843e-06 -2.029e-07 0)
(5.02602e-06 -1.95369e-07 0)
(5.13407e-06 -1.86607e-07 0)
(5.24249e-06 -1.764e-07 0)
(5.35109e-06 -1.64543e-07 0)
(5.45978e-06 -1.50824e-07 0)
(5.56827e-06 -1.34968e-07 0)
(5.67653e-06 -1.16641e-07 0)
(5.78401e-06 -9.54827e-08 0)
(5.89094e-06 -7.0924e-08 0)
(5.99597e-06 -4.27812e-08 0)
(3.77578e-06 -3.29972e-07 0)
(3.89388e-06 -3.18761e-07 0)
(4.01163e-06 -3.09187e-07 0)
(4.12738e-06 -3.01657e-07 0)
(4.24279e-06 -2.946e-07 0)
(4.35741e-06 -2.8806e-07 0)
(4.47178e-06 -2.81295e-07 0)
(4.58595e-06 -2.74174e-07 0)
(4.70009e-06 -2.66364e-07 0)
(4.81422e-06 -2.57639e-07 0)
(4.92838e-06 -2.47795e-07 0)
(5.04255e-06 -2.36595e-07 0)
(5.15667e-06 -2.23758e-07 0)
(5.27062e-06 -2.09022e-07 0)
(5.38438e-06 -1.92107e-07 0)
(5.49772e-06 -1.72679e-07 0)
(5.61064e-06 -1.50315e-07 0)
(5.72264e-06 -1.24585e-07 0)
(5.83403e-06 -9.47751e-08 0)
(5.94352e-06 -6.06251e-08 0)
(3.54784e-06 -4.30344e-07 0)
(3.6828e-06 -4.11546e-07 0)
(3.81642e-06 -3.95189e-07 0)
(3.94617e-06 -3.82248e-07 0)
(4.07435e-06 -3.7057e-07 0)
(4.20052e-06 -3.60065e-07 0)
(4.32541e-06 -3.49869e-07 0)
(4.44915e-06 -3.39651e-07 0)
(4.57211e-06 -3.2899e-07 0)
(4.69437e-06 -3.17554e-07 0)
(4.81607e-06 -3.05034e-07 0)
(4.93724e-06 -2.91105e-07 0)
(5.0579e-06 -2.75415e-07 0)
(5.17801e-06 -2.57651e-07 0)
(5.2976e-06 -2.37457e-07 0)
(5.41651e-06 -2.14438e-07 0)
(5.5348e-06 -1.88069e-07 0)
(5.65201e-06 -1.57834e-07 0)
(5.7685e-06 -1.22892e-07 0)
(5.8831e-06 -8.28913e-08 0)
(3.29846e-06 -5.46401e-07 0)
(3.45082e-06 -5.17769e-07 0)
(3.6011e-06 -4.92791e-07 0)
(3.74586e-06 -4.72713e-07 0)
(3.88788e-06 -4.55118e-07 0)
(4.02662e-06 -4.39523e-07 0)
(4.16308e-06 -4.24997e-07 0)
(4.29744e-06 -4.10968e-07 0)
(4.43014e-06 -3.96892e-07 0)
(4.56139e-06 -3.82302e-07 0)
(4.69141e-06 -3.66768e-07 0)
(4.82031e-06 -3.49867e-07 0)
(4.9482e-06 -3.31176e-07 0)
(5.07515e-06 -3.10307e-07 0)
(5.20121e-06 -2.86825e-07 0)
(5.32631e-06 -2.60251e-07 0)
(5.45053e-06 -2.29962e-07 0)
(5.57352e-06 -1.95349e-07 0)
(5.69566e-06 -1.55435e-07 0)
(5.81591e-06 -1.09788e-07 0)
(3.03369e-06 -6.77867e-07 0)
(3.2035e-06 -6.37607e-07 0)
(3.37052e-06 -6.02867e-07 0)
(3.53081e-06 -5.74182e-07 0)
(3.68711e-06 -5.49476e-07 0)
(3.83908e-06 -5.27733e-07 0)
(3.98771e-06 -5.07957e-07 0)
(4.13332e-06 -4.89327e-07 0)
(4.27641e-06 -4.71172e-07 0)
(4.4173e-06 -4.52871e-07 0)
(4.55626e-06 -4.33873e-07 0)
(4.69351e-06 -4.13655e-07 0)
(4.82924e-06 -3.91714e-07 0)
(4.96358e-06 -3.67571e-07 0)
(5.09667e-06 -3.40697e-07 0)
(5.22847e-06 -3.10522e-07 0)
(5.35911e-06 -2.76323e-07 0)
(5.48834e-06 -2.374e-07 0)
(5.61659e-06 -1.9267e-07 0)
(5.74298e-06 -1.41619e-07 0)
(2.7586e-06 -8.22497e-07 0)
(2.94623e-06 -7.67595e-07 0)
(3.12941e-06 -7.21814e-07 0)
(3.30568e-06 -6.83152e-07 0)
(3.47652e-06 -6.50236e-07 0)
(3.64227e-06 -6.21473e-07 0)
(3.80356e-06 -5.95728e-07 0)
(3.96093e-06 -5.71966e-07 0)
(4.11489e-06 -5.49338e-07 0)
(4.26585e-06 -5.27055e-07 0)
(4.41417e-06 -5.04427e-07 0)
(4.56016e-06 -4.80814e-07 0)
(4.70408e-06 -4.55609e-07 0)
(4.84614e-06 -4.28232e-07 0)
(4.98651e-06 -3.98059e-07 0)
(5.12527e-06 -3.6442e-07 0)
(5.26258e-06 -3.26511e-07 0)
(5.39831e-06 -2.83519e-07 0)
(5.53293e-06 -2.34278e-07 0)
(5.66578e-06 -1.78153e-07 0)
(2.55393e-06 -9.61935e-07 0)
(2.75354e-06 -8.94961e-07 0)
(2.94648e-06 -8.40778e-07 0)
(3.13277e-06 -7.94011e-07 0)
(3.31295e-06 -7.53767e-07 0)
(3.48757e-06 -7.18356e-07 0)
(3.65719e-06 -6.8658e-07 0)
(3.82238e-06 -6.57365e-07 0)
(3.98363e-06 -6.29772e-07 0)
(4.14136e-06 -6.02936e-07 0)
(4.29596e-06 -5.76096e-07 0)
(4.44777e-06 -5.48551e-07 0)
(4.5971e-06 -5.19622e-07 0)
(4.74419e-06 -4.88659e-07 0)
(4.88924e-06 -4.5498e-07 0)
(5.03241e-06 -4.17849e-07 0)
(5.1739e-06 -3.76446e-07 0)
(5.31372e-06 -3.29883e-07 0)
(5.45234e-06 -2.76991e-07 0)
(5.5893e-06 -2.17068e-07 0)
(2.43725e-06 -1.07552e-06 0)
(2.63837e-06 -1.00598e-06 0)
(2.83297e-06 -9.47082e-07 0)
(3.02186e-06 -8.95338e-07 0)
(3.20503e-06 -8.49911e-07 0)
(3.38284e-06 -8.09387e-07 0)
(3.55573e-06 -7.7265e-07 0)
(3.72411e-06 -7.38679e-07 0)
(3.88839e-06 -7.06546e-07 0)
(4.04895e-06 -6.754e-07 0)
(4.20617e-06 -6.44482e-07 0)
(4.36037e-06 -6.13081e-07 0)
(4.51185e-06 -5.80497e-07 0)
(4.66088e-06 -5.4606e-07 0)
(4.80766e-06 -5.09082e-07 0)
(4.9524e-06 -4.68805e-07 0)
(5.09532e-06 -4.24453e-07 0)
(5.23654e-06 -3.75132e-07 0)
(5.37651e-06 -3.19731e-07 0)
(5.51497e-06 -2.57565e-07 0)
(2.33781e-06 -1.18435e-06 0)
(2.53699e-06 -1.11327e-06 0)
(2.73136e-06 -1.05138e-06 0)
(2.92076e-06 -9.95908e-07 0)
(3.10514e-06 -9.46247e-07 0)
(3.28456e-06 -9.01282e-07 0)
(3.45931e-06 -8.60044e-07 0)
(3.62968e-06 -8.21621e-07 0)
(3.79597e-06 -7.85147e-07 0)
(3.9585e-06 -7.4982e-07 0)
(4.11761e-06 -7.14908e-07 0)
(4.27359e-06 -6.79706e-07 0)
(4.42674e-06 -6.43509e-07 0)
(4.57729e-06 -6.05651e-07 0)
(4.72547e-06 -5.65451e-07 0)
(4.87153e-06 -5.2215e-07 0)
(5.01571e-06 -4.75016e-07 0)
(5.15818e-06 -4.23186e-07 0)
(5.29939e-06 -3.65617e-07 0)
(5.43927e-06 -3.01675e-07 0)
(2.25017e-06 -1.28941e-06 0)
(2.44654e-06 -1.21761e-06 0)
(2.63929e-06 -1.15347e-06 0)
(2.82786e-06 -1.09492e-06 0)
(3.01209e-06 -1.04162e-06 0)
(3.1919e-06 -9.92714e-07 0)
(3.36743e-06 -9.47389e-07 0)
(3.53881e-06 -9.04848e-07 0)
(3.70628e-06 -8.64308e-07 0)
(3.87008e-06 -8.25029e-07 0)
(4.03048e-06 -7.86316e-07 0)
(4.18775e-06 -7.47483e-07 0)
(4.34214e-06 -7.07836e-07 0)
(4.49388e-06 -6.66724e-07 0)
(4.64321e-06 -6.23486e-07 0)
(4.79039e-06 -5.77384e-07 0)
(4.93566e-06 -5.27734e-07 0)
(5.07926e-06 -4.73715e-07 0)
(5.2216e-06 -4.14372e-07 0)
(5.36283e-06 -3.49147e-07 0)
(2.17301e-06 -1.39e-06 0)
(2.36579e-06 -1.31809e-06 0)
(2.55596e-06 -1.25253e-06 0)
(2.74266e-06 -1.1917e-06 0)
(2.92575e-06 -1.13549e-06 0)
(3.10498e-06 -1.08325e-06 0)
(3.28036e-06 -1.03435e-06 0)
(3.45193e-06 -9.88103e-07 0)
(3.61985e-06 -9.4384e-07 0)
(3.78427e-06 -9.0089e-07 0)
(3.94542e-06 -8.58609e-07 0)
(4.10349e-06 -8.16345e-07 0)
(4.25873e-06 -7.73427e-07 0)
(4.41134e-06 -7.29243e-07 0)
(4.56156e-06 -6.83152e-07 0)
(4.70964e-06 -6.3446e-07 0)
(4.85583e-06 -5.8253e-07 0)
(5.00042e-06 -5.26599e-07 0)
(5.1438e-06 -4.65821e-07 0)
(5.28627e-06 -3.99725e-07 0)
(2.10443e-06 -1.48633e-06 0)
(2.29324e-06 -1.41475e-06 0)
(2.48027e-06 -1.34831e-06 0)
(2.66442e-06 -1.2858e-06 0)
(2.84564e-06 -1.22725e-06 0)
(3.02352e-06 -1.17222e-06 0)
(3.19803e-06 -1.12021e-06 0)
(3.36912e-06 -1.0707e-06 0)
(3.53686e-06 -1.02309e-06 0)
(3.70136e-06 -9.76792e-07 0)
(3.86275e-06 -9.31229e-07 0)
(4.02121e-06 -8.85787e-07 0)
(4.17693e-06 -8.39835e-07 0)
(4.33011e-06 -7.92807e-07 0)
(4.48095e-06 -7.44091e-07 0)
(4.62972e-06 -6.93058e-07 0)
(4.77667e-06 -6.39111e-07 0)
(4.9221e-06 -5.8156e-07 0)
(5.06641e-06 -5.19679e-07 0)
(5.20996e-06 -4.53068e-07 0)
(2.04307e-06 -1.57852e-06 0)
(2.2277e-06 -1.50758e-06 0)
(2.4112e-06 -1.44071e-06 0)
(2.59236e-06 -1.37702e-06 0)
(2.77118e-06 -1.31667e-06 0)
(2.94716e-06 -1.25934e-06 0)
(3.12024e-06 -1.2047e-06 0)
(3.2903e-06 -1.15235e-06 0)
(3.45736e-06 -1.10177e-06 0)
(3.62145e-06 -1.05247e-06 0)
(3.78267e-06 -1.00392e-06 0)
(3.94113e-06 -9.55577e-07 0)
(4.097e-06 -9.06844e-07 0)
(4.25047e-06 -8.57219e-07 0)
(4.4017e-06 -8.06117e-07 0)
(4.55098e-06 -7.52984e-07 0)
(4.69852e-06 -6.97275e-07 0)
(4.84466e-06 -6.38377e-07 0)
(4.98978e-06 -5.75683e-07 0)
(5.13423e-06 -5.08839e-07 0)
(1.98762e-06 -1.66681e-06 0)
(2.16803e-06 -1.59671e-06 0)
(2.34778e-06 -1.52974e-06 0)
(2.52568e-06 -1.46526e-06 0)
(2.70173e-06 -1.40352e-06 0)
(2.87541e-06 -1.34433e-06 0)
(3.04664e-06 -1.2875e-06 0)
(3.21526e-06 -1.23271e-06 0)
(3.38122e-06 -1.17954e-06 0)
(3.54451e-06 -1.12758e-06 0)
(3.7052e-06 -1.07636e-06 0)
(3.86335e-06 -1.0254e-06 0)
(4.01911e-06 -9.74163e-07 0)
(4.17261e-06 -9.22203e-07 0)
(4.32405e-06 -8.68972e-07 0)
(4.47366e-06 -8.13992e-07 0)
(4.62165e-06 -7.56777e-07 0)
(4.76838e-06 -6.96793e-07 0)
(4.91417e-06 -6.33534e-07 0)
(5.05941e-06 -5.66691e-07 0)
(1.93693e-06 -1.75146e-06 0)
(2.11314e-06 -1.68232e-06 0)
(2.28905e-06 -1.61547e-06 0)
(2.46354e-06 -1.55051e-06 0)
(2.63659e-06 -1.48774e-06 0)
(2.80772e-06 -1.42708e-06 0)
(2.97682e-06 -1.36844e-06 0)
(3.14368e-06 -1.31159e-06 0)
(3.30824e-06 -1.25619e-06 0)
(3.47044e-06 -1.2019e-06 0)
(3.63032e-06 -1.14834e-06 0)
(3.78791e-06 -1.09506e-06 0)
(3.94333e-06 -1.0416e-06 0)
(4.09669e-06 -9.87568e-07 0)
(4.24816e-06 -9.32468e-07 0)
(4.39796e-06 -8.75888e-07 0)
(4.54629e-06 -8.17411e-07 0)
(4.69348e-06 -7.5657e-07 0)
(4.83979e-06 -6.92949e-07 0)
(4.98573e-06 -6.26312e-07 0)
(1.88998e-06 -1.83275e-06 0)
(2.06206e-06 -1.76461e-06 0)
(2.23415e-06 -1.69804e-06 0)
(2.40516e-06 -1.63283e-06 0)
(2.57512e-06 -1.56932e-06 0)
(2.74355e-06 -1.50752e-06 0)
(2.91033e-06 -1.44741e-06 0)
(3.07524e-06 -1.38884e-06 0)
(3.23817e-06 -1.33155e-06 0)
(3.39907e-06 -1.27526e-06 0)
(3.55794e-06 -1.21967e-06 0)
(3.71478e-06 -1.16437e-06 0)
(3.86969e-06 -1.10896e-06 0)
(4.02275e-06 -1.05313e-06 0)
(4.17411e-06 -9.96417e-07 0)
(4.32397e-06 -9.38481e-07 0)
(4.47251e-06 -8.78968e-07 0)
(4.62003e-06 -8.17467e-07 0)
(4.76677e-06 -7.53659e-07 0)
(4.91327e-06 -6.87398e-07 0)
(1.84586e-06 -1.91094e-06 0)
(2.01394e-06 -1.8438e-06 0)
(2.18228e-06 -1.77763e-06 0)
(2.34984e-06 -1.71235e-06 0)
(2.51669e-06 -1.64834e-06 0)
(2.68236e-06 -1.58567e-06 0)
(2.84671e-06 -1.52438e-06 0)
(3.00954e-06 -1.4644e-06 0)
(3.17071e-06 -1.40554e-06 0)
(3.33017e-06 -1.34756e-06 0)
(3.48787e-06 -1.29022e-06 0)
(3.64382e-06 -1.23319e-06 0)
(3.79809e-06 -1.17612e-06 0)
(3.95073e-06 -1.11874e-06 0)
(4.10187e-06 -1.06067e-06 0)
(4.25169e-06 -1.0016e-06 0)
(4.40034e-06 -9.41245e-07 0)
(4.54808e-06 -8.79256e-07 0)
(4.69519e-06 -8.15418e-07 0)
(4.84207e-06 -7.49636e-07 0)
(1.80377e-06 -1.98632e-06 0)
(1.96802e-06 -1.92014e-06 0)
(2.1327e-06 -1.85442e-06 0)
(2.2969e-06 -1.78921e-06 0)
(2.46068e-06 -1.72489e-06 0)
(2.62358e-06 -1.66157e-06 0)
(2.78546e-06 -1.59936e-06 0)
(2.94615e-06 -1.53825e-06 0)
(3.1055e-06 -1.4781e-06 0)
(3.26343e-06 -1.41871e-06 0)
(3.4199e-06 -1.35992e-06 0)
(3.57488e-06 -1.30143e-06 0)
(3.72843e-06 -1.24296e-06 0)
(3.88058e-06 -1.18429e-06 0)
(4.03143e-06 -1.12508e-06 0)
(4.18113e-06 -1.06508e-06 0)
(4.3298e-06 -1.00406e-06 0)
(4.47769e-06 -9.41738e-07 0)
(4.62507e-06 -8.77995e-07 0)
(4.77225e-06 -8.12739e-07 0)
(1.76301e-06 -2.05911e-06 0)
(1.9236e-06 -1.99385e-06 0)
(2.08477e-06 -1.92862e-06 0)
(2.24572e-06 -1.86357e-06 0)
(2.40648e-06 -1.79908e-06 0)
(2.56665e-06 -1.73531e-06 0)
(2.72611e-06 -1.67241e-06 0)
(2.88466e-06 -1.61042e-06 0)
(3.04219e-06 -1.54923e-06 0)
(3.19859e-06 -1.48871e-06 0)
(3.3538e-06 -1.42873e-06 0)
(3.50779e-06 -1.36905e-06 0)
(3.66057e-06 -1.30942e-06 0)
(3.81218e-06 -1.24969e-06 0)
(3.96267e-06 -1.18955e-06 0)
(4.11219e-06 -1.12881e-06 0)
(4.2608e-06 -1.06728e-06 0)
(4.4088e-06 -1.00475e-06 0)
(4.5563e-06 -9.41181e-07 0)
(4.70373e-06 -8.76495e-07 0)
(1.72294e-06 -2.12954e-06 0)
(1.88003e-06 -2.06515e-06 0)
(2.03784e-06 -2.00042e-06 0)
(2.19566e-06 -1.93559e-06 0)
(2.35353e-06 -1.87106e-06 0)
(2.51107e-06 -1.80699e-06 0)
(2.6682e-06 -1.74362e-06 0)
(2.82469e-06 -1.68096e-06 0)
(2.98044e-06 -1.61898e-06 0)
(3.13532e-06 -1.55757e-06 0)
(3.28928e-06 -1.49665e-06 0)
(3.44226e-06 -1.43601e-06 0)
(3.59427e-06 -1.37545e-06 0)
(3.74531e-06 -1.31486e-06 0)
(3.89542e-06 -1.25397e-06 0)
(4.04471e-06 -1.19264e-06 0)
(4.19324e-06 -1.13074e-06 0)
(4.34126e-06 -1.06811e-06 0)
(4.48884e-06 -1.00475e-06 0)
(4.63641e-06 -9.40673e-07 0)
(1.68285e-06 -2.19783e-06 0)
(1.83663e-06 -2.13424e-06 0)
(1.99125e-06 -2.07001e-06 0)
(2.1461e-06 -2.00546e-06 0)
(2.30124e-06 -1.94098e-06 0)
(2.45631e-06 -1.87678e-06 0)
(2.61123e-06 -1.8131e-06 0)
(2.76576e-06 -1.74998e-06 0)
(2.91982e-06 -1.68742e-06 0)
(3.07328e-06 -1.62533e-06 0)
(3.22606e-06 -1.56368e-06 0)
(3.3781e-06 -1.50231e-06 0)
(3.52937e-06 -1.44103e-06 0)
(3.67987e-06 -1.37977e-06 0)
(3.82959e-06 -1.3183e-06 0)
(3.97864e-06 -1.25652e-06 0)
(4.12707e-06 -1.19436e-06 0)
(4.27505e-06 -1.1317e-06 0)
(4.4227e-06 -1.06859e-06 0)
(4.57032e-06 -1.00509e-06 0)
(1.6421e-06 -2.26413e-06 0)
(1.79273e-06 -2.20135e-06 0)
(1.9443e-06 -2.13756e-06 0)
(2.09642e-06 -2.07333e-06 0)
(2.24903e-06 -2.00902e-06 0)
(2.40183e-06 -1.94482e-06 0)
(2.55472e-06 -1.88098e-06 0)
(2.70749e-06 -1.81759e-06 0)
(2.86e-06 -1.75463e-06 0)
(3.01215e-06 -1.69208e-06 0)
(3.16384e-06 -1.6299e-06 0)
(3.315e-06 -1.56798e-06 0)
(3.46558e-06 -1.50617e-06 0)
(3.61556e-06 -1.44439e-06 0)
(3.76492e-06 -1.38248e-06 0)
(3.91375e-06 -1.32037e-06 0)
(4.06206e-06 -1.25803e-06 0)
(4.20998e-06 -1.19538e-06 0)
(4.35765e-06 -1.13254e-06 0)
(4.50531e-06 -1.0696e-06 0)
(1.59999e-06 -2.32872e-06 0)
(1.74757e-06 -2.26651e-06 0)
(1.89628e-06 -2.20328e-06 0)
(2.046e-06 -2.1395e-06 0)
(2.19632e-06 -2.07542e-06 0)
(2.34712e-06 -2.01133e-06 0)
(2.4982e-06 -1.94747e-06 0)
(2.6494e-06 -1.88395e-06 0)
(2.80056e-06 -1.82076e-06 0)
(2.95157e-06 -1.7579e-06 0)
(3.10232e-06 -1.69539e-06 0)
(3.25272e-06 -1.63308e-06 0)
(3.4027e-06 -1.57087e-06 0)
(3.55222e-06 -1.50873e-06 0)
(3.70128e-06 -1.44651e-06 0)
(3.84992e-06 -1.38416e-06 0)
(3.99812e-06 -1.32169e-06 0)
(4.14602e-06 -1.25907e-06 0)
(4.29363e-06 -1.1965e-06 0)
(4.44129e-06 -1.13404e-06 0)
(1.55556e-06 -2.39153e-06 0)
(1.70053e-06 -2.32997e-06 0)
(1.84689e-06 -2.26742e-06 0)
(1.99432e-06 -2.20408e-06 0)
(2.14267e-06 -2.14035e-06 0)
(2.29171e-06 -2.07648e-06 0)
(2.44127e-06 -2.01272e-06 0)
(2.59115e-06 -1.9492e-06 0)
(2.7412e-06 -1.88594e-06 0)
(2.89129e-06 -1.82294e-06 0)
(3.04127e-06 -1.76022e-06 0)
(3.19103e-06 -1.69768e-06 0)
(3.34053e-06 -1.63522e-06 0)
(3.48971e-06 -1.57282e-06 0)
(3.63853e-06 -1.51037e-06 0)
(3.787e-06 -1.44787e-06 0)
(3.93509e-06 -1.38531e-06 0)
(4.08301e-06 -1.32271e-06 0)
(4.23063e-06 -1.26036e-06 0)
(4.37821e-06 -1.19837e-06 0)
(1.50819e-06 -2.45319e-06 0)
(1.65076e-06 -2.39237e-06 0)
(1.79501e-06 -2.33036e-06 0)
(1.94058e-06 -2.26752e-06 0)
(2.08733e-06 -2.20419e-06 0)
(2.235e-06 -2.14062e-06 0)
(2.3834e-06 -2.07705e-06 0)
(2.53232e-06 -2.01364e-06 0)
(2.68157e-06 -1.95041e-06 0)
(2.83098e-06 -1.88739e-06 0)
(2.9804e-06 -1.82458e-06 0)
(3.12974e-06 -1.76189e-06 0)
(3.2789e-06 -1.69927e-06 0)
(3.42781e-06 -1.63674e-06 0)
(3.57644e-06 -1.57413e-06 0)
(3.72483e-06 -1.51146e-06 0)
(3.87294e-06 -1.44884e-06 0)
(4.0208e-06 -1.38628e-06 0)
(4.16848e-06 -1.32404e-06 0)
(4.31605e-06 -1.26241e-06 0)
(1.45729e-06 -2.51325e-06 0)
(1.5978e-06 -2.45326e-06 0)
(1.7403e-06 -2.392e-06 0)
(1.88443e-06 -2.32981e-06 0)
(2.03001e-06 -2.267e-06 0)
(2.17675e-06 -2.20383e-06 0)
(2.32442e-06 -2.14059e-06 0)
(2.47276e-06 -2.07743e-06 0)
(2.62154e-06 -2.01433e-06 0)
(2.77059e-06 -1.95132e-06 0)
(2.91973e-06 -1.88851e-06 0)
(3.0688e-06 -1.82582e-06 0)
(3.21776e-06 -1.7631e-06 0)
(3.36652e-06 -1.70044e-06 0)
(3.51503e-06 -1.63776e-06 0)
(3.66335e-06 -1.57501e-06 0)
(3.8115e-06 -1.51232e-06 0)
(3.95942e-06 -1.44971e-06 0)
(4.10723e-06 -1.38751e-06 0)
(4.25485e-06 -1.32608e-06 0)
(1.06265e-07 -2.14817e-06 0)
(3.20217e-07 -2.11661e-06 0)
(5.3839e-07 -2.0547e-06 0)
(7.6321e-07 -1.96499e-06 0)
(9.96561e-07 -1.8509e-06 0)
(1.23963e-06 -1.71671e-06 0)
(1.49287e-06 -1.56735e-06 0)
(1.7558e-06 -1.40794e-06 0)
(2.02767e-06 -1.24362e-06 0)
(2.3062e-06 -1.07842e-06 0)
(1.03322e-07 -2.18399e-06 0)
(3.11187e-07 -2.15513e-06 0)
(5.22536e-07 -2.09851e-06 0)
(7.39433e-07 -2.01628e-06 0)
(9.63468e-07 -1.91135e-06 0)
(1.19563e-06 -1.78735e-06 0)
(1.43635e-06 -1.64848e-06 0)
(1.68505e-06 -1.49919e-06 0)
(1.94076e-06 -1.34411e-06 0)
(2.20143e-06 -1.18695e-06 0)
(1.00696e-07 -2.22062e-06 0)
(3.03111e-07 -2.19424e-06 0)
(5.08365e-07 -2.1424e-06 0)
(7.18089e-07 -2.06699e-06 0)
(9.33658e-07 -1.97053e-06 0)
(1.15585e-06 -1.85617e-06 0)
(1.38513e-06 -1.72752e-06 0)
(1.62121e-06 -1.58833e-06 0)
(1.86342e-06 -1.4426e-06 0)
(2.11029e-06 -1.29298e-06 0)
(9.83679e-08 -2.25816e-06 0)
(2.95933e-07 -2.23386e-06 0)
(4.95905e-07 -2.18611e-06 0)
(6.99525e-07 -2.11653e-06 0)
(9.07987e-07 -2.02737e-06 0)
(1.12189e-06 -1.92137e-06 0)
(1.34158e-06 -1.80173e-06 0)
(1.5668e-06 -1.67179e-06 0)
(1.79693e-06 -1.53524e-06 0)
(2.03076e-06 -1.39428e-06 0)
(9.62405e-08 -2.29657e-06 0)
(2.8934e-07 -2.27415e-06 0)
(4.84468e-07 -2.23007e-06 0)
(6.82573e-07 -2.16575e-06 0)
(8.84674e-07 -2.0832e-06 0)
(1.09125e-06 -1.98487e-06 0)
(1.30261e-06 -1.8736e-06 0)
(1.51854e-06 -1.75221e-06 0)
(1.73857e-06 -1.62409e-06 0)
(1.96128e-06 -1.49125e-06 0)
(9.42429e-08 -2.33581e-06 0)
(2.83252e-07 -2.31502e-06 0)
(4.73946e-07 -2.27412e-06 0)
(6.67123e-07 -2.21442e-06 0)
(8.63611e-07 -2.13768e-06 0)
(1.06381e-06 -2.04614e-06 0)
(1.2679e-06 -1.94238e-06 0)
(1.47567e-06 -1.82887e-06 0)
(1.68686e-06 -1.70871e-06 0)
(1.89989e-06 -1.58386e-06 0)
(9.23303e-08 -2.37584e-06 0)
(2.77466e-07 -2.35651e-06 0)
(4.64001e-07 -2.31846e-06 0)
(6.52645e-07 -2.26289e-06 0)
(8.44024e-07 -2.19137e-06 0)
(1.03852e-06 -2.10596e-06 0)
(1.23626e-06 -2.00899e-06 0)
(1.43693e-06 -1.90267e-06 0)
(1.64051e-06 -1.78978e-06 0)
(1.84521e-06 -1.67238e-06 0)
(9.05207e-08 -2.41657e-06 0)
(2.7192e-07 -2.39854e-06 0)
(4.54521e-07 -2.36301e-06 0)
(6.38941e-07 -2.3111e-06 0)
(8.25656e-07 -2.24424e-06 0)
(1.01498e-06 -2.16431e-06 0)
(1.20705e-06 -2.07348e-06 0)
(1.40148e-06 -1.97374e-06 0)
(1.59839e-06 -1.86757e-06 0)
(1.79592e-06 -1.75707e-06 0)
(8.87535e-08 -2.45794e-06 0)
(2.66506e-07 -2.44107e-06 0)
(4.45329e-07 -2.40779e-06 0)
(6.25724e-07 -2.35918e-06 0)
(8.08097e-07 -2.29653e-06 0)
(9.92706e-07 -2.22154e-06 0)
(1.17965e-06 -2.13623e-06 0)
(1.36853e-06 -2.04249e-06 0)
(1.55956e-06 -1.94244e-06 0)
(1.75089e-06 -1.83828e-06 0)
(8.69738e-08 -2.49986e-06 0)
(2.6116e-07 -2.48402e-06 0)
(4.36303e-07 -2.45278e-06 0)
(6.12826e-07 -2.40711e-06 0)
(7.91077e-07 -2.34825e-06 0)
(9.71305e-07 -2.27771e-06 0)
(1.15355e-06 -2.19741e-06 0)
(1.33744e-06 -2.10911e-06 0)
(1.52321e-06 -2.01468e-06 0)
(1.70911e-06 -1.9163e-06 0)
(8.51777e-08 -2.54223e-06 0)
(2.5583e-07 -2.52735e-06 0)
(4.27314e-07 -2.49794e-06 0)
(6.00061e-07 -2.45493e-06 0)
(7.74341e-07 -2.39949e-06 0)
(9.5042e-07 -2.33299e-06 0)
(1.12831e-06 -2.25723e-06 0)
(1.30764e-06 -2.17386e-06 0)
(1.48866e-06 -2.08455e-06 0)
(1.66973e-06 -1.99144e-06 0)
(8.33782e-08 -2.58497e-06 0)
(2.50463e-07 -2.57095e-06 0)
(4.18256e-07 -2.5432e-06 0)
(5.87262e-07 -2.5026e-06 0)
(7.57675e-07 -2.45025e-06 0)
(9.29755e-07 -2.38744e-06 0)
(1.10353e-06 -2.31579e-06 0)
(1.27863e-06 -2.23691e-06 0)
(1.45528e-06 -2.15229e-06 0)
(1.63203e-06 -2.06397e-06 0)
(8.15533e-08 -2.62797e-06 0)
(2.44964e-07 -2.61473e-06 0)
(4.09006e-07 -2.58851e-06 0)
(5.74243e-07 -2.55011e-06 0)
(7.40834e-07 -2.50058e-06 0)
(9.09004e-07 -2.44112e-06 0)
(1.07882e-06 -2.37323e-06 0)
(1.24993e-06 -2.29844e-06 0)
(1.42254e-06 -2.21809e-06 0)
(1.59538e-06 -2.13414e-06 0)
(7.96553e-08 -2.67112e-06 0)
(2.39236e-07 -2.65858e-06 0)
(3.99433e-07 -2.63376e-06 0)
(5.60819e-07 -2.59737e-06 0)
(7.23562e-07 -2.55043e-06 0)
(8.87856e-07 -2.49404e-06 0)
(1.05381e-06 -2.42959e-06 0)
(1.2211e-06 -2.35854e-06 0)
(1.38991e-06 -2.28211e-06 0)
(1.55913e-06 -2.20216e-06 0)
(7.76455e-08 -2.7143e-06 0)
(2.33203e-07 -2.70241e-06 0)
(3.89411e-07 -2.67888e-06 0)
(5.46811e-07 -2.64436e-06 0)
(7.05614e-07 -2.5998e-06 0)
(8.66e-07 -2.54624e-06 0)
(1.0281e-06 -2.48497e-06 0)
(1.19167e-06 -2.41735e-06 0)
(1.35682e-06 -2.34455e-06 0)
(1.52262e-06 -2.26824e-06 0)
(7.5507e-08 -2.75729e-06 0)
(2.26813e-07 -2.746e-06 0)
(3.78824e-07 -2.72368e-06 0)
(5.32041e-07 -2.69091e-06 0)
(6.86742e-07 -2.64857e-06 0)
(8.43115e-07 -2.59763e-06 0)
(1.00132e-06 -2.53931e-06 0)
(1.16118e-06 -2.47489e-06 0)
(1.32274e-06 -2.40543e-06 0)
(1.48525e-06 -2.33248e-06 0)
(7.3224e-08 -2.80004e-06 0)
(2.19987e-07 -2.78932e-06 0)
(3.67508e-07 -2.76814e-06 0)
(5.1628e-07 -2.73701e-06 0)
(6.66653e-07 -2.69675e-06 0)
(8.18837e-07 -2.64829e-06 0)
(9.73027e-07 -2.59274e-06 0)
(1.12908e-06 -2.53131e-06 0)
(1.28705e-06 -2.46497e-06 0)
(1.44629e-06 -2.39516e-06 0)
(7.07647e-08 -2.84211e-06 0)
(2.12614e-07 -2.83193e-06 0)
(3.55282e-07 -2.81184e-06 0)
(4.99276e-07 -2.78228e-06 0)
(6.45016e-07 -2.74401e-06 0)
(7.92763e-07 -2.6979e-06 0)
(9.4273e-07 -2.64498e-06 0)
(1.09481e-06 -2.58639e-06 0)
(1.24909e-06 -2.52302e-06 0)
(1.40504e-06 -2.45618e-06 0)
(6.80697e-08 -2.88369e-06 0)
(2.04526e-07 -2.87404e-06 0)
(3.41876e-07 -2.85499e-06 0)
(4.80678e-07 -2.82695e-06 0)
(6.21395e-07 -2.79061e-06 0)
(7.64352e-07 -2.74678e-06 0)
(9.09785e-07 -2.6964e-06 0)
(1.05767e-06 -2.64054e-06 0)
(1.20808e-06 -2.58003e-06 0)
(1.36065e-06 -2.51603e-06 0)
(6.511e-08 -2.92361e-06 0)
(1.95659e-07 -2.91449e-06 0)
(3.27184e-07 -2.89648e-06 0)
(4.60304e-07 -2.86995e-06 0)
(5.95554e-07 -2.83553e-06 0)
(7.33316e-07 -2.79397e-06 0)
(8.73849e-07 -2.74614e-06 0)
(1.01729e-06 -2.693e-06 0)
(1.16361e-06 -2.63535e-06 0)
(1.31269e-06 -2.5742e-06 0)
)


// ************************************************************************* //
