/*--------------------------------*- C++ -*----------------------------------*\
| =========                 |                                                 |
| \\      /  F ield         | foam-extend: Open Source CFD                    |
|  \\    /   O peration     | Version:     4.1                                |
|   \\  /    A nd           | Web:         http://www.foam-extend.org         |
|    \\/     M anipulation  |                                                 |
\*---------------------------------------------------------------------------*/
FoamFile
{
    version     2.0;
    format      ascii;
    class       vectorField;
    location    "5";
    object      solidsCellD_iteration10;
}
// * * * * * * * * * * * * * * * * * * * * * * * * * * * * * * * * * * * * * //


1000
(
(2.55781e-06 -1.05967e-06 0)
(2.41586e-06 -9.87593e-07 0)
(2.32569e-06 -9.42515e-07 0)
(2.27439e-06 -9.22295e-07 0)
(2.24995e-06 -9.16373e-07 0)
(2.24515e-06 -9.21465e-07 0)
(2.25481e-06 -9.33765e-07 0)
(2.27526e-06 -9.51501e-07 0)
(2.30402e-06 -9.72815e-07 0)
(2.33841e-06 -9.96707e-07 0)
(2.31308e-06 -1.15761e-06 0)
(2.16193e-06 -1.10811e-06 0)
(2.0659e-06 -1.07734e-06 0)
(2.01025e-06 -1.06688e-06 0)
(1.98231e-06 -1.06747e-06 0)
(1.97431e-06 -1.07716e-06 0)
(1.98087e-06 -1.09274e-06 0)
(1.9981e-06 -1.11292e-06 0)
(2.02335e-06 -1.13618e-06 0)
(2.05385e-06 -1.16144e-06 0)
(2.0587e-06 -1.25041e-06 0)
(1.90427e-06 -1.22614e-06 0)
(1.80613e-06 -1.21136e-06 0)
(1.74854e-06 -1.21163e-06 0)
(1.7187e-06 -1.21924e-06 0)
(1.7085e-06 -1.23377e-06 0)
(1.71257e-06 -1.25272e-06 0)
(1.72704e-06 -1.27527e-06 0)
(1.74918e-06 -1.30037e-06 0)
(1.77642e-06 -1.32682e-06 0)
(1.79654e-06 -1.33643e-06 0)
(1.64537e-06 -1.3386e-06 0)
(1.54925e-06 -1.34059e-06 0)
(1.49227e-06 -1.352e-06 0)
(1.46214e-06 -1.36688e-06 0)
(1.45075e-06 -1.38637e-06 0)
(1.45288e-06 -1.40868e-06 0)
(1.46486e-06 -1.43357e-06 0)
(1.48407e-06 -1.46043e-06 0)
(1.50804e-06 -1.48819e-06 0)
(1.5285e-06 -1.41398e-06 0)
(1.38695e-06 -1.44234e-06 0)
(1.29694e-06 -1.46092e-06 0)
(1.24327e-06 -1.48334e-06 0)
(1.21445e-06 -1.50535e-06 0)
(1.2028e-06 -1.52969e-06 0)
(1.20354e-06 -1.55526e-06 0)
(1.21327e-06 -1.58243e-06 0)
(1.22963e-06 -1.61099e-06 0)
(1.25021e-06 -1.64013e-06 0)
(1.25576e-06 -1.4815e-06 0)
(1.13015e-06 -1.53433e-06 0)
(1.0503e-06 -1.56845e-06 0)
(1.00239e-06 -1.60118e-06 0)
(9.76362e-07 -1.62985e-06 0)
(9.65343e-07 -1.65869e-06 0)
(9.65254e-07 -1.68726e-06 0)
(9.72967e-07 -1.71655e-06 0)
(9.86456e-07 -1.74668e-06 0)
(1.00347e-06 -1.77717e-06 0)
(9.79769e-07 -1.53744e-06 0)
(8.75611e-07 -1.61173e-06 0)
(8.094e-07 -1.65949e-06 0)
(7.69509e-07 -1.70124e-06 0)
(7.47677e-07 -1.73572e-06 0)
(7.38188e-07 -1.76849e-06 0)
(7.37682e-07 -1.79968e-06 0)
(7.43507e-07 -1.83084e-06 0)
(7.54046e-07 -1.86235e-06 0)
(7.67375e-07 -1.89407e-06 0)
(7.01432e-07 -1.5806e-06 0)
(6.23381e-07 -1.67213e-06 0)
(5.73802e-07 -1.7308e-06 0)
(5.4389e-07 -1.77976e-06 0)
(5.27444e-07 -1.81893e-06 0)
(5.20159e-07 -1.85486e-06 0)
(5.19525e-07 -1.88818e-06 0)
(5.23561e-07 -1.92086e-06 0)
(5.31108e-07 -1.95347e-06 0)
(5.40672e-07 -1.98622e-06 0)
(4.21517e-07 -1.60994e-06 0)
(3.73201e-07 -1.7135e-06 0)
(3.42545e-07 -1.7798e-06 0)
(3.23974e-07 -1.83384e-06 0)
(3.13693e-07 -1.87629e-06 0)
(3.09079e-07 -1.91441e-06 0)
(3.08611e-07 -1.94923e-06 0)
(3.11015e-07 -1.98301e-06 0)
(3.15543e-07 -2.01643e-06 0)
(3.21284e-07 -2.04992e-06 0)
(1.40776e-07 -1.62471e-06 0)
(1.24417e-07 -1.73451e-06 0)
(1.13966e-07 -1.80473e-06 0)
(1.07648e-07 -1.86138e-06 0)
(1.04187e-07 -1.90551e-06 0)
(1.02597e-07 -1.9448e-06 0)
(1.02366e-07 -1.98037e-06 0)
(1.03143e-07 -2.01469e-06 0)
(1.04666e-07 -2.04852e-06 0)
(1.06577e-07 -2.08241e-06 0)
(3.98739e-06 -4.83185e-08 0)
(4.02281e-06 -3.48511e-08 0)
(4.04479e-06 -2.63449e-08 0)
(4.06876e-06 -2.13698e-08 0)
(4.09518e-06 -1.86367e-08 0)
(4.12752e-06 -1.74383e-08 0)
(4.1658e-06 -1.72703e-08 0)
(4.21033e-06 -1.77214e-08 0)
(4.26106e-06 -1.87071e-08 0)
(4.31728e-06 -1.99038e-08 0)
(3.95795e-06 -1.44989e-07 0)
(3.98749e-06 -1.05371e-07 0)
(4.00579e-06 -8.03571e-08 0)
(4.02727e-06 -6.5842e-08 0)
(4.05203e-06 -5.79618e-08 0)
(4.08317e-06 -5.44343e-08 0)
(4.12062e-06 -5.39801e-08 0)
(4.16448e-06 -5.55309e-08 0)
(4.2146e-06 -5.85168e-08 0)
(4.27021e-06 -6.2011e-08 0)
(3.89917e-06 -2.42442e-07 0)
(3.91746e-06 -1.78888e-07 0)
(3.92866e-06 -1.38802e-07 0)
(3.94542e-06 -1.15474e-07 0)
(3.96706e-06 -1.02908e-07 0)
(3.99603e-06 -9.75007e-08 0)
(4.03182e-06 -9.697e-08 0)
(4.07438e-06 -9.96164e-08 0)
(4.12334e-06 -1.04549e-07 0)
(4.17777e-06 -1.10382e-07 0)
(3.81208e-06 -3.41172e-07 0)
(3.81437e-06 -2.57089e-07 0)
(3.81542e-06 -2.04165e-07 0)
(3.82548e-06 -1.73518e-07 0)
(3.84265e-06 -1.57074e-07 0)
(3.8685e-06 -1.50164e-07 0)
(3.90198e-06 -1.49718e-07 0)
(3.9427e-06 -1.53574e-07 0)
(3.99005e-06 -1.60468e-07 0)
(4.04285e-06 -1.68654e-07 0)
(3.69799e-06 -4.41408e-07 0)
(3.68055e-06 -3.41408e-07 0)
(3.66903e-06 -2.7851e-07 0)
(3.67077e-06 -2.42374e-07 0)
(3.68244e-06 -2.23168e-07 0)
(3.70439e-06 -2.15419e-07 0)
(3.73498e-06 -2.15415e-07 0)
(3.77339e-06 -2.20634e-07 0)
(3.81875e-06 -2.29463e-07 0)
(3.86958e-06 -2.39946e-07 0)
(3.55858e-06 -5.43229e-07 0)
(3.51879e-06 -4.32805e-07 0)
(3.49313e-06 -3.63352e-07 0)
(3.48549e-06 -3.2388e-07 0)
(3.49089e-06 -3.03251e-07 0)
(3.50838e-06 -2.95457e-07 0)
(3.53572e-06 -2.96293e-07 0)
(3.57149e-06 -3.03001e-07 0)
(3.61455e-06 -3.13738e-07 0)
(3.66318e-06 -3.26468e-07 0)
(3.39594e-06 -6.46447e-07 0)
(3.3325e-06 -5.31671e-07 0)
(3.29189e-06 -4.59484e-07 0)
(3.27432e-06 -4.19071e-07 0)
(3.27309e-06 -3.98449e-07 0)
(3.28586e-06 -3.91466e-07 0)
(3.30971e-06 -3.93586e-07 0)
(3.34263e-06 -4.01937e-07 0)
(3.3832e-06 -4.14575e-07 0)
(3.42949e-06 -4.29464e-07 0)
(3.21217e-06 -7.50546e-07 0)
(3.12531e-06 -6.37752e-07 0)
(3.06989e-06 -5.66809e-07 0)
(3.04244e-06 -5.27957e-07 0)
(3.0346e-06 -5.0885e-07 0)
(3.0426e-06 -5.0359e-07 0)
(3.06284e-06 -5.07482e-07 0)
(3.09282e-06 -5.1771e-07 0)
(3.13075e-06 -5.32269e-07 0)
(3.17463e-06 -5.49257e-07 0)
(3.00965e-06 -8.54825e-07 0)
(2.90101e-06 -7.50157e-07 0)
(2.83185e-06 -6.84406e-07 0)
(2.79511e-06 -6.49575e-07 0)
(2.78102e-06 -6.33502e-07 0)
(2.78434e-06 -6.30843e-07 0)
(2.80094e-06 -6.37012e-07 0)
(2.82791e-06 -6.49318e-07 0)
(2.86307e-06 -6.65896e-07 0)
(2.90447e-06 -6.84728e-07 0)
(2.79076e-06 -9.5829e-07 0)
(2.6634e-06 -8.67435e-07 0)
(2.58238e-06 -8.10469e-07 0)
(2.53753e-06 -7.81983e-07 0)
(2.51781e-06 -7.7038e-07 0)
(2.51687e-06 -7.71199e-07 0)
(2.5301e-06 -7.80186e-07 0)
(2.5541e-06 -7.9503e-07 0)
(2.58663e-06 -8.13827e-07 0)
(2.62517e-06 -8.35442e-07 0)
(4.37909e-06 -2.10461e-08 0)
(4.44643e-06 -2.1337e-08 0)
(4.51799e-06 -2.16537e-08 0)
(4.59352e-06 -2.18863e-08 0)
(4.67256e-06 -2.20179e-08 0)
(4.75484e-06 -2.2039e-08 0)
(4.83998e-06 -2.19109e-08 0)
(4.92763e-06 -2.16637e-08 0)
(5.01756e-06 -2.13096e-08 0)
(5.10952e-06 -2.08126e-08 0)
(5.20322e-06 -2.01428e-08 0)
(5.29837e-06 -1.92939e-08 0)
(5.39474e-06 -1.82602e-08 0)
(5.49204e-06 -1.7037e-08 0)
(5.59004e-06 -1.56058e-08 0)
(5.68839e-06 -1.39295e-08 0)
(5.7869e-06 -1.19619e-08 0)
(5.88498e-06 -9.66221e-09 0)
(5.98271e-06 -6.98058e-09 0)
(6.07867e-06 -3.90163e-09 0)
(4.3341e-06 -6.51951e-08 0)
(4.40519e-06 -6.57933e-08 0)
(4.4801e-06 -6.64924e-08 0)
(4.55857e-06 -6.69739e-08 0)
(4.64024e-06 -6.71443e-08 0)
(4.72482e-06 -6.70371e-08 0)
(4.81202e-06 -6.6594e-08 0)
(4.90159e-06 -6.58205e-08 0)
(4.99327e-06 -6.466e-08 0)
(5.0868e-06 -6.30433e-08 0)
(5.18194e-06 -6.09511e-08 0)
(5.27844e-06 -5.83818e-08 0)
(5.37609e-06 -5.52916e-08 0)
(5.4746e-06 -5.1619e-08 0)
(5.57375e-06 -4.72877e-08 0)
(5.67319e-06 -4.22135e-08 0)
(5.77275e-06 -3.6287e-08 0)
(5.87182e-06 -2.93984e-08 0)
(5.97055e-06 -2.13861e-08 0)
(6.06745e-06 -1.21813e-08 0)
(4.24571e-06 -1.15021e-07 0)
(4.32419e-06 -1.15104e-07 0)
(4.4057e-06 -1.15414e-07 0)
(4.48984e-06 -1.15571e-07 0)
(4.5766e-06 -1.15349e-07 0)
(4.66575e-06 -1.14785e-07 0)
(4.75709e-06 -1.13721e-07 0)
(4.85035e-06 -1.12134e-07 0)
(4.94539e-06 -1.0993e-07 0)
(5.04199e-06 -1.07042e-07 0)
(5.13998e-06 -1.03442e-07 0)
(5.23914e-06 -9.9091e-08 0)
(5.33926e-06 -9.38809e-08 0)
(5.44008e-06 -8.76965e-08 0)
(5.54141e-06 -8.04211e-08 0)
(5.64294e-06 -7.19283e-08 0)
(5.74454e-06 -6.20392e-08 0)
(5.84562e-06 -5.05733e-08 0)
(5.94631e-06 -3.72561e-08 0)
(6.04519e-06 -2.19547e-08 0)
(4.11656e-06 -1.73734e-07 0)
(4.20556e-06 -1.71988e-07 0)
(4.2966e-06 -1.70723e-07 0)
(4.38905e-06 -1.6966e-07 0)
(4.4833e-06 -1.68307e-07 0)
(4.57906e-06 -1.66697e-07 0)
(4.67639e-06 -1.64523e-07 0)
(4.77506e-06 -1.61747e-07 0)
(4.87509e-06 -1.58217e-07 0)
(4.97627e-06 -1.53843e-07 0)
(5.07847e-06 -1.48552e-07 0)
(5.18152e-06 -1.42248e-07 0)
(5.28527e-06 -1.34778e-07 0)
(5.3895e-06 -1.25993e-07 0)
(5.49407e-06 -1.15746e-07 0)
(5.59871e-06 -1.03836e-07 0)
(5.70328e-06 -9.00103e-08 0)
(5.80725e-06 -7.40036e-08 0)
(5.91076e-06 -5.54156e-08 0)
(6.01247e-06 -3.40829e-08 0)
(3.9505e-06 -2.44153e-07 0)
(4.05279e-06 -2.38908e-07 0)
(4.15594e-06 -2.3459e-07 0)
(4.25889e-06 -2.3118e-07 0)
(4.36267e-06 -2.27726e-07 0)
(4.46691e-06 -2.24279e-07 0)
(4.57196e-06 -2.20352e-07 0)
(4.67763e-06 -2.15887e-07 0)
(4.78403e-06 -2.10624e-07 0)
(4.89105e-06 -2.04425e-07 0)
(4.99867e-06 -1.97172e-07 0)
(5.10677e-06 -1.88717e-07 0)
(5.21524e-06 -1.78848e-07 0)
(5.32393e-06 -1.6737e-07 0)
(5.43273e-06 -1.54083e-07 0)
(5.54137e-06 -1.38718e-07 0)
(5.64981e-06 -1.20949e-07 0)
(5.75751e-06 -1.00435e-07 0)
(5.86471e-06 -7.66374e-08 0)
(5.97008e-06 -4.93646e-08 0)
(3.75222e-06 -3.28347e-07 0)
(3.86977e-06 -3.17664e-07 0)
(3.9871e-06 -3.08501e-07 0)
(4.10249e-06 -3.0134e-07 0)
(4.21763e-06 -2.94633e-07 0)
(4.33203e-06 -2.88415e-07 0)
(4.44624e-06 -2.81975e-07 0)
(4.56028e-06 -2.75172e-07 0)
(4.67435e-06 -2.6768e-07 0)
(4.78843e-06 -2.59285e-07 0)
(4.90258e-06 -2.49793e-07 0)
(5.01676e-06 -2.38976e-07 0)
(5.13091e-06 -2.26555e-07 0)
(5.24493e-06 -2.12284e-07 0)
(5.35878e-06 -1.95889e-07 0)
(5.47223e-06 -1.77048e-07 0)
(5.58532e-06 -1.55354e-07 0)
(5.69751e-06 -1.30398e-07 0)
(5.80915e-06 -1.01504e-07 0)
(5.91894e-06 -6.84021e-08 0)
(3.52725e-06 -4.27564e-07 0)
(3.66145e-06 -4.09462e-07 0)
(3.79446e-06 -3.93675e-07 0)
(3.9237e-06 -3.81257e-07 0)
(4.05147e-06 -3.70071e-07 0)
(4.1773e-06 -3.60017e-07 0)
(4.30193e-06 -3.50257e-07 0)
(4.42547e-06 -3.40456e-07 0)
(4.54827e-06 -3.30206e-07 0)
(4.67043e-06 -3.19191e-07 0)
(4.79207e-06 -3.07111e-07 0)
(4.91321e-06 -2.93648e-07 0)
(5.03387e-06 -2.78458e-07 0)
(5.15401e-06 -2.6124e-07 0)
(5.27367e-06 -2.41653e-07 0)
(5.39267e-06 -2.19312e-07 0)
(5.5111e-06 -1.93721e-07 0)
(5.62848e-06 -1.64385e-07 0)
(5.74519e-06 -1.30498e-07 0)
(5.86004e-06 -9.17052e-08 0)
(3.28107e-06 -5.42125e-07 0)
(3.43246e-06 -5.14405e-07 0)
(3.58196e-06 -4.90206e-07 0)
(3.72606e-06 -4.70845e-07 0)
(3.86753e-06 -4.53896e-07 0)
(4.00583e-06 -4.38896e-07 0)
(4.14192e-06 -4.24931e-07 0)
(4.276e-06 -4.11431e-07 0)
(4.40847e-06 -3.97873e-07 0)
(4.53955e-06 -3.83802e-07 0)
(4.66945e-06 -3.68799e-07 0)
(4.79827e-06 -3.52449e-07 0)
(4.92612e-06 -3.3434e-07 0)
(5.05306e-06 -3.14101e-07 0)
(5.17915e-06 -2.91312e-07 0)
(5.30432e-06 -2.65511e-07 0)
(5.42865e-06 -2.36103e-07 0)
(5.55179e-06 -2.02501e-07 0)
(5.6741e-06 -1.63768e-07 0)
(5.79456e-06 -1.19463e-07 0)
(3.01953e-06 -6.71786e-07 0)
(3.18828e-06 -6.32629e-07 0)
(3.35439e-06 -5.9887e-07 0)
(3.51392e-06 -5.71104e-07 0)
(3.66956e-06 -5.47233e-07 0)
(3.821e-06 -5.26262e-07 0)
(3.96916e-06 -5.072e-07 0)
(4.1144e-06 -4.89242e-07 0)
(4.25718e-06 -4.71729e-07 0)
(4.39782e-06 -4.54058e-07 0)
(4.53658e-06 -4.35691e-07 0)
(4.67369e-06 -4.16116e-07 0)
(4.80931e-06 -3.94846e-07 0)
(4.9436e-06 -3.71423e-07 0)
(5.07667e-06 -3.45333e-07 0)
(5.2085e-06 -3.16027e-07 0)
(5.33922e-06 -2.8281e-07 0)
(5.46855e-06 -2.45002e-07 0)
(5.59693e-06 -2.01559e-07 0)
(5.72348e-06 -1.51961e-07 0)
(2.74766e-06 -8.14404e-07 0)
(2.93428e-06 -7.60807e-07 0)
(3.11656e-06 -7.16256e-07 0)
(3.29201e-06 -6.7874e-07 0)
(3.46212e-06 -6.46849e-07 0)
(3.62724e-06 -6.19022e-07 0)
(3.78797e-06 -5.94136e-07 0)
(3.94486e-06 -5.71178e-07 0)
(4.09841e-06 -5.49312e-07 0)
(4.24903e-06 -5.2777e-07 0)
(4.39707e-06 -5.05873e-07 0)
(4.54281e-06 -4.82998e-07 0)
(4.68655e-06 -4.58556e-07 0)
(4.82848e-06 -4.3199e-07 0)
(4.96877e-06 -4.02689e-07 0)
(5.10748e-06 -3.70014e-07 0)
(5.2448e-06 -3.33181e-07 0)
(5.38056e-06 -2.91401e-07 0)
(5.51525e-06 -2.43539e-07 0)
(5.64819e-06 -1.88957e-07 0)
(2.54438e-06 -9.52664e-07 0)
(2.74352e-06 -8.8688e-07 0)
(2.93586e-06 -8.33969e-07 0)
(3.12148e-06 -7.88444e-07 0)
(3.30098e-06 -7.49337e-07 0)
(3.47496e-06 -7.14978e-07 0)
(3.644e-06 -6.84178e-07 0)
(3.80867e-06 -6.55878e-07 0)
(3.96946e-06 -6.29152e-07 0)
(4.12679e-06 -6.03155e-07 0)
(4.28105e-06 -5.77141e-07 0)
(4.43257e-06 -5.50423e-07 0)
(4.58167e-06 -5.22344e-07 0)
(4.72859e-06 -4.92275e-07 0)
(4.87352e-06 -4.59549e-07 0)
(5.0166e-06 -4.23461e-07 0)
(5.15805e-06 -3.83205e-07 0)
(5.29785e-06 -3.37924e-07 0)
(5.43649e-06 -2.86474e-07 0)
(5.57349e-06 -2.28148e-07 0)
(2.42891e-06 -1.06582e-06 0)
(2.62952e-06 -9.97419e-07 0)
(2.82355e-06 -9.39697e-07 0)
(3.01185e-06 -8.89149e-07 0)
(3.19444e-06 -8.44863e-07 0)
(3.37168e-06 -8.0543e-07 0)
(3.54404e-06 -7.69724e-07 0)
(3.71194e-06 -7.36732e-07 0)
(3.87579e-06 -7.05538e-07 0)
(4.03598e-06 -6.75304e-07 0)
(4.19288e-06 -6.45286e-07 0)
(4.34682e-06 -6.14784e-07 0)
(4.49809e-06 -5.83118e-07 0)
(4.64696e-06 -5.4964e-07 0)
(4.79362e-06 -5.13675e-07 0)
(4.93829e-06 -4.74497e-07 0)
(5.08116e-06 -4.31339e-07 0)
(5.22236e-06 -3.8334e-07 0)
(5.36235e-06 -3.29414e-07 0)
(5.50083e-06 -2.68855e-07 0)
(2.33093e-06 -1.17396e-06 0)
(2.52952e-06 -1.10415e-06 0)
(2.72332e-06 -1.04347e-06 0)
(2.91216e-06 -9.89206e-07 0)
(3.09599e-06 -9.40704e-07 0)
(3.27488e-06 -8.96858e-07 0)
(3.44916e-06 -8.56693e-07 0)
(3.61908e-06 -8.19299e-07 0)
(3.78497e-06 -7.8382e-07 0)
(3.94716e-06 -7.49467e-07 0)
(4.10598e-06 -7.15516e-07 0)
(4.26172e-06 -6.81272e-07 0)
(4.41466e-06 -6.46053e-07 0)
(4.56507e-06 -6.09207e-07 0)
(4.71314e-06 -5.70068e-07 0)
(4.85912e-06 -5.2791e-07 0)
(5.00325e-06 -4.82006e-07 0)
(5.1457e-06 -4.31527e-07 0)
(5.2869e-06 -3.75448e-07 0)
(5.42678e-06 -3.13101e-07 0)
(2.24474e-06 -1.27828e-06 0)
(2.44049e-06 -1.20784e-06 0)
(2.63265e-06 -1.14496e-06 0)
(2.82067e-06 -1.08767e-06 0)
(3.00438e-06 -1.03557e-06 0)
(3.1837e-06 -9.87819e-07 0)
(3.35879e-06 -9.43615e-07 0)
(3.52976e-06 -9.02156e-07 0)
(3.69687e-06 -8.62667e-07 0)
(3.86035e-06 -8.24418e-07 0)
(4.02049e-06 -7.86723e-07 0)
(4.17752e-06 -7.48903e-07 0)
(4.33173e-06 -7.10287e-07 0)
(4.48334e-06 -6.70237e-07 0)
(4.63256e-06 -6.28103e-07 0)
(4.77966e-06 -5.8318e-07 0)
(4.92488e-06 -5.34788e-07 0)
(5.06845e-06 -4.8214e-07 0)
(5.21077e-06 -4.24287e-07 0)
(5.35197e-06 -3.60637e-07 0)
(2.16892e-06 -1.37817e-06 0)
(2.36108e-06 -1.30769e-06 0)
(2.55068e-06 -1.24346e-06 0)
(2.73684e-06 -1.18393e-06 0)
(2.91944e-06 -1.12895e-06 0)
(3.09821e-06 -1.07792e-06 0)
(3.27318e-06 -1.03018e-06 0)
(3.44438e-06 -9.85068e-07 0)
(3.61196e-06 -9.41906e-07 0)
(3.7761e-06 -9.00036e-07 0)
(3.937e-06 -8.58823e-07 0)
(4.09487e-06 -8.1762e-07 0)
(4.24994e-06 -7.75782e-07 0)
(4.40243e-06 -7.32702e-07 0)
(4.55254e-06 -6.87754e-07 0)
(4.70055e-06 -6.40272e-07 0)
(4.84669e-06 -5.8962e-07 0)
(4.99124e-06 -5.35068e-07 0)
(5.13458e-06 -4.75765e-07 0)
(5.277e-06 -4.11228e-07 0)
(2.10156e-06 -1.47383e-06 0)
(2.28978e-06 -1.40374e-06 0)
(2.47627e-06 -1.33869e-06 0)
(2.65991e-06 -1.27752e-06 0)
(2.84067e-06 -1.22026e-06 0)
(3.01813e-06 -1.16648e-06 0)
(3.19226e-06 -1.11568e-06 0)
(3.363e-06 -1.06734e-06 0)
(3.53044e-06 -1.02088e-06 0)
(3.69468e-06 -9.75715e-07 0)
(3.85586e-06 -9.31265e-07 0)
(4.01413e-06 -8.86929e-07 0)
(4.1697e-06 -8.421e-07 0)
(4.32277e-06 -7.96215e-07 0)
(4.47352e-06 -7.48674e-07 0)
(4.62224e-06 -6.98873e-07 0)
(4.76913e-06 -6.46216e-07 0)
(4.91452e-06 -5.9004e-07 0)
(5.05878e-06 -5.29615e-07 0)
(5.20226e-06 -4.64548e-07 0)
(2.04129e-06 -1.56543e-06 0)
(2.22539e-06 -1.49601e-06 0)
(2.40839e-06 -1.43057e-06 0)
(2.58908e-06 -1.36827e-06 0)
(2.76748e-06 -1.30924e-06 0)
(2.94307e-06 -1.25321e-06 0)
(3.11581e-06 -1.19983e-06 0)
(3.28556e-06 -1.1487e-06 0)
(3.45235e-06 -1.09931e-06 0)
(3.61622e-06 -1.05119e-06 0)
(3.77725e-06 -1.0038e-06 0)
(3.93555e-06 -9.56599e-07 0)
(4.0913e-06 -9.09029e-07 0)
(4.24467e-06 -8.60578e-07 0)
(4.39584e-06 -8.10677e-07 0)
(4.54506e-06 -7.5879e-07 0)
(4.69255e-06 -7.04372e-07 0)
(4.83864e-06 -6.46838e-07 0)
(4.98371e-06 -5.85584e-07 0)
(5.12809e-06 -5.20253e-07 0)
(1.98685e-06 -1.65318e-06 0)
(2.16679e-06 -1.58462e-06 0)
(2.34609e-06 -1.51912e-06 0)
(2.52358e-06 -1.45606e-06 0)
(2.69924e-06 -1.3957e-06 0)
(2.87258e-06 -1.33785e-06 0)
(3.04352e-06 -1.28232e-06 0)
(3.21186e-06 -1.22879e-06 0)
(3.37759e-06 -1.17686e-06 0)
(3.54068e-06 -1.12611e-06 0)
(3.70121e-06 -1.0761e-06 0)
(3.85923e-06 -1.02632e-06 0)
(4.01489e-06 -9.76277e-07 0)
(4.16832e-06 -9.25516e-07 0)
(4.3197e-06 -8.73505e-07 0)
(4.46926e-06 -8.19775e-07 0)
(4.61721e-06 -7.63847e-07 0)
(4.76389e-06 -7.05212e-07 0)
(4.90962e-06 -6.43375e-07 0)
(5.05477e-06 -5.77995e-07 0)
(1.93707e-06 -1.73738e-06 0)
(2.11289e-06 -1.66977e-06 0)
(2.28843e-06 -1.60442e-06 0)
(2.46255e-06 -1.54092e-06 0)
(2.63528e-06 -1.47957e-06 0)
(2.80611e-06 -1.42028e-06 0)
(2.97495e-06 -1.36298e-06 0)
(3.14158e-06 -1.30743e-06 0)
(3.30593e-06 -1.25331e-06 0)
(3.46797e-06 -1.20027e-06 0)
(3.62772e-06 -1.14794e-06 0)
(3.7852e-06 -1.09589e-06 0)
(3.94054e-06 -1.04365e-06 0)
(4.09385e-06 -9.90834e-07 0)
(4.24526e-06 -9.36965e-07 0)
(4.39503e-06 -8.81637e-07 0)
(4.54331e-06 -8.24442e-07 0)
(4.69046e-06 -7.64935e-07 0)
(4.83671e-06 -7.02704e-07 0)
(4.98255e-06 -6.37477e-07 0)
(1.89096e-06 -1.81827e-06 0)
(2.06274e-06 -1.75168e-06 0)
(2.23453e-06 -1.68663e-06 0)
(2.40524e-06 -1.62291e-06 0)
(2.57493e-06 -1.56084e-06 0)
(2.74312e-06 -1.50045e-06 0)
(2.90968e-06 -1.4417e-06 0)
(3.07439e-06 -1.38447e-06 0)
(3.23715e-06 -1.32849e-06 0)
(3.39792e-06 -1.27349e-06 0)
(3.55667e-06 -1.21916e-06 0)
(3.71342e-06 -1.16511e-06 0)
(3.86827e-06 -1.11095e-06 0)
(4.02129e-06 -1.05635e-06 0)
(4.17261e-06 -1.00088e-06 0)
(4.32245e-06 -9.44194e-07 0)
(4.47095e-06 -8.85954e-07 0)
(4.61844e-06 -8.25769e-07 0)
(4.76512e-06 -7.63303e-07 0)
(4.9115e-06 -6.98408e-07 0)
(1.84763e-06 -1.89614e-06 0)
(2.01549e-06 -1.83056e-06 0)
(2.1836e-06 -1.76591e-06 0)
(2.35093e-06 -1.70213e-06 0)
(2.51757e-06 -1.63959e-06 0)
(2.68305e-06 -1.57835e-06 0)
(2.84723e-06 -1.51846e-06 0)
(3.0099e-06 -1.45985e-06 0)
(3.17094e-06 -1.40232e-06 0)
(3.33028e-06 -1.34566e-06 0)
(3.48791e-06 -1.28962e-06 0)
(3.64379e-06 -1.23387e-06 0)
(3.79801e-06 -1.17806e-06 0)
(3.95062e-06 -1.12193e-06 0)
(4.10173e-06 -1.06509e-06 0)
(4.25154e-06 -1.00727e-06 0)
(4.40016e-06 -9.48179e-07 0)
(4.54787e-06 -8.87475e-07 0)
(4.6949e-06 -8.24929e-07 0)
(4.84168e-06 -7.60464e-07 0)
(1.80631e-06 -1.97126e-06 0)
(1.97041e-06 -1.90664e-06 0)
(2.13494e-06 -1.84245e-06 0)
(2.29898e-06 -1.77875e-06 0)
(2.46261e-06 -1.71591e-06 0)
(2.62536e-06 -1.65405e-06 0)
(2.78712e-06 -1.59327e-06 0)
(2.94769e-06 -1.53355e-06 0)
(3.10694e-06 -1.47476e-06 0)
(3.26479e-06 -1.41672e-06 0)
(3.4212e-06 -1.35924e-06 0)
(3.57613e-06 -1.30205e-06 0)
(3.72964e-06 -1.24485e-06 0)
(3.88177e-06 -1.18743e-06 0)
(4.0326e-06 -1.12946e-06 0)
(4.1823e-06 -1.07071e-06 0)
(4.33094e-06 -1.01094e-06 0)
(4.4788e-06 -9.49857e-07 0)
(4.62609e-06 -8.87373e-07 0)
(4.77317e-06 -8.23368e-07 0)
(1.76631e-06 -2.04385e-06 0)
(1.92683e-06 -1.98013e-06 0)
(2.08791e-06 -1.91645e-06 0)
(2.24877e-06 -1.85291e-06 0)
(2.40944e-06 -1.78993e-06 0)
(2.56952e-06 -1.72762e-06 0)
(2.72889e-06 -1.66618e-06 0)
(2.88737e-06 -1.60559e-06 0)
(3.04482e-06 -1.54579e-06 0)
(3.20117e-06 -1.48664e-06 0)
(3.35633e-06 -1.42799e-06 0)
(3.51027e-06 -1.36962e-06 0)
(3.66304e-06 -1.31128e-06 0)
(3.81463e-06 -1.2528e-06 0)
(3.96511e-06 -1.19391e-06 0)
(4.11463e-06 -1.1344e-06 0)
(4.26322e-06 -1.07409e-06 0)
(4.41117e-06 -1.01277e-06 0)
(4.55861e-06 -9.50419e-07 0)
(4.70592e-06 -8.86925e-07 0)
(1.72701e-06 -2.11412e-06 0)
(1.8841e-06 -2.05128e-06 0)
(2.0419e-06 -1.98809e-06 0)
(2.19969e-06 -1.92479e-06 0)
(2.35751e-06 -1.86176e-06 0)
(2.51501e-06 -1.79918e-06 0)
(2.67209e-06 -1.73727e-06 0)
(2.82854e-06 -1.67604e-06 0)
(2.98425e-06 -1.61547e-06 0)
(3.1391e-06 -1.55544e-06 0)
(3.29302e-06 -1.49585e-06 0)
(3.44597e-06 -1.43653e-06 0)
(3.59797e-06 -1.37727e-06 0)
(3.749e-06 -1.31794e-06 0)
(3.8991e-06 -1.2583e-06 0)
(4.04838e-06 -1.19819e-06 0)
(4.19688e-06 -1.13748e-06 0)
(4.34487e-06 -1.07604e-06 0)
(4.49238e-06 -1.01383e-06 0)
(4.63983e-06 -9.50886e-07 0)
(1.68773e-06 -2.1823e-06 0)
(1.84157e-06 -2.12025e-06 0)
(1.99623e-06 -2.05756e-06 0)
(2.15111e-06 -1.99454e-06 0)
(2.30625e-06 -1.93158e-06 0)
(2.46132e-06 -1.86888e-06 0)
(2.61624e-06 -1.80667e-06 0)
(2.77076e-06 -1.74499e-06 0)
(2.9248e-06 -1.68383e-06 0)
(3.07824e-06 -1.62314e-06 0)
(3.23099e-06 -1.56284e-06 0)
(3.383e-06 -1.50279e-06 0)
(3.53426e-06 -1.44282e-06 0)
(3.68474e-06 -1.38283e-06 0)
(3.83445e-06 -1.3226e-06 0)
(3.98348e-06 -1.26203e-06 0)
(4.13188e-06 -1.20103e-06 0)
(4.27983e-06 -1.13953e-06 0)
(4.42741e-06 -1.07752e-06 0)
(4.57492e-06 -1.01508e-06 0)
(1.64783e-06 -2.24856e-06 0)
(1.79859e-06 -2.18729e-06 0)
(1.95026e-06 -2.12504e-06 0)
(2.10245e-06 -2.06233e-06 0)
(2.25511e-06 -1.99954e-06 0)
(2.40795e-06 -1.93685e-06 0)
(2.56086e-06 -1.87448e-06 0)
(2.71363e-06 -1.81254e-06 0)
(2.86614e-06 -1.751e-06 0)
(3.01827e-06 -1.68984e-06 0)
(3.16994e-06 -1.62903e-06 0)
(3.32108e-06 -1.56844e-06 0)
(3.47165e-06 -1.50793e-06 0)
(3.6216e-06 -1.44742e-06 0)
(3.77092e-06 -1.38674e-06 0)
(3.91973e-06 -1.32583e-06 0)
(4.06801e-06 -1.26466e-06 0)
(4.2159e-06 -1.20311e-06 0)
(4.36348e-06 -1.14132e-06 0)
(4.51102e-06 -1.07936e-06 0)
(1.60664e-06 -2.31312e-06 0)
(1.7544e-06 -2.25242e-06 0)
(1.90325e-06 -2.19072e-06 0)
(2.05309e-06 -2.12846e-06 0)
(2.2035e-06 -2.0659e-06 0)
(2.35437e-06 -2.00331e-06 0)
(2.50549e-06 -1.94093e-06 0)
(2.6567e-06 -1.87885e-06 0)
(2.80786e-06 -1.81708e-06 0)
(2.95887e-06 -1.75562e-06 0)
(3.1096e-06 -1.69447e-06 0)
(3.25996e-06 -1.63351e-06 0)
(3.40991e-06 -1.5726e-06 0)
(3.55939e-06 -1.51172e-06 0)
(3.70839e-06 -1.45074e-06 0)
(3.857e-06 -1.38959e-06 0)
(4.00515e-06 -1.32825e-06 0)
(4.15298e-06 -1.26669e-06 0)
(4.30052e-06 -1.20513e-06 0)
(4.44808e-06 -1.14359e-06 0)
(1.56321e-06 -2.37593e-06 0)
(1.7084e-06 -2.31588e-06 0)
(1.85495e-06 -2.25485e-06 0)
(2.00253e-06 -2.19303e-06 0)
(2.151e-06 -2.13081e-06 0)
(2.30013e-06 -2.06843e-06 0)
(2.44974e-06 -2.00614e-06 0)
(2.59964e-06 -1.94406e-06 0)
(2.7497e-06 -1.88222e-06 0)
(2.89978e-06 -1.82062e-06 0)
(3.04973e-06 -1.75926e-06 0)
(3.19943e-06 -1.69806e-06 0)
(3.34886e-06 -1.63691e-06 0)
(3.49798e-06 -1.57577e-06 0)
(3.64673e-06 -1.51456e-06 0)
(3.79513e-06 -1.45324e-06 0)
(3.94312e-06 -1.3918e-06 0)
(4.09096e-06 -1.33026e-06 0)
(4.23851e-06 -1.26886e-06 0)
(4.38597e-06 -1.20771e-06 0)
(1.51694e-06 -2.43764e-06 0)
(1.65979e-06 -2.37831e-06 0)
(1.80427e-06 -2.3178e-06 0)
(1.95002e-06 -2.25646e-06 0)
(2.09689e-06 -2.19462e-06 0)
(2.24464e-06 -2.13254e-06 0)
(2.3931e-06 -2.07044e-06 0)
(2.54206e-06 -2.00847e-06 0)
(2.69131e-06 -1.94665e-06 0)
(2.84067e-06 -1.88501e-06 0)
(2.99004e-06 -1.82356e-06 0)
(3.1393e-06 -1.7622e-06 0)
(3.28839e-06 -1.70089e-06 0)
(3.43718e-06 -1.63962e-06 0)
(3.58568e-06 -1.57824e-06 0)
(3.73396e-06 -1.51676e-06 0)
(3.88193e-06 -1.45525e-06 0)
(4.02968e-06 -1.39373e-06 0)
(4.17724e-06 -1.33242e-06 0)
(4.32468e-06 -1.27156e-06 0)
(1.46725e-06 -2.49776e-06 0)
(1.60807e-06 -2.43926e-06 0)
(1.75081e-06 -2.37948e-06 0)
(1.89513e-06 -2.31876e-06 0)
(2.04084e-06 -2.25743e-06 0)
(2.18768e-06 -2.19574e-06 0)
(2.33541e-06 -2.13395e-06 0)
(2.48375e-06 -2.0722e-06 0)
(2.6325e-06 -2.0105e-06 0)
(2.7815e-06 -1.94888e-06 0)
(2.93056e-06 -1.88742e-06 0)
(3.07952e-06 -1.82605e-06 0)
(3.22834e-06 -1.76463e-06 0)
(3.37697e-06 -1.70323e-06 0)
(3.5253e-06 -1.64178e-06 0)
(3.67343e-06 -1.58021e-06 0)
(3.82138e-06 -1.51864e-06 0)
(3.96911e-06 -1.45706e-06 0)
(4.11674e-06 -1.39577e-06 0)
(4.26418e-06 -1.33503e-06 0)
(1.06286e-07 -2.11703e-06 0)
(3.20243e-07 -2.08608e-06 0)
(5.38294e-07 -2.02536e-06 0)
(7.62787e-07 -1.93739e-06 0)
(9.95546e-07 -1.82549e-06 0)
(1.23771e-06 -1.69389e-06 0)
(1.48971e-06 -1.54739e-06 0)
(1.75108e-06 -1.39101e-06 0)
(2.02114e-06 -1.22974e-06 0)
(2.29752e-06 -1.06747e-06 0)
(1.03425e-07 -2.15306e-06 0)
(3.11459e-07 -2.12479e-06 0)
(5.22859e-07 -2.06926e-06 0)
(7.39611e-07 -1.98866e-06 0)
(9.63246e-07 -1.88576e-06 0)
(1.1947e-06 -1.76419e-06 0)
(1.43438e-06 -1.62801e-06 0)
(1.68171e-06 -1.4816e-06 0)
(1.93574e-06 -1.32947e-06 0)
(2.19436e-06 -1.17528e-06 0)
(1.00848e-07 -2.18997e-06 0)
(3.03533e-07 -2.16412e-06 0)
(5.08946e-07 -2.11329e-06 0)
(7.18652e-07 -2.03938e-06 0)
(9.33964e-07 -1.94482e-06 0)
(1.15562e-06 -1.83271e-06 0)
(1.38404e-06 -1.70658e-06 0)
(1.61896e-06 -1.57009e-06 0)
(1.85969e-06 -1.42717e-06 0)
(2.10473e-06 -1.28049e-06 0)
(9.85479e-08 -2.22777e-06 0)
(2.96454e-07 -2.20398e-06 0)
(4.96665e-07 -2.15714e-06 0)
(7.00364e-07 -2.08896e-06 0)
(9.08692e-07 -2.00156e-06 0)
(1.12221e-06 -1.89763e-06 0)
(1.34121e-06 -1.78036e-06 0)
(1.56548e-06 -1.65296e-06 0)
(1.79434e-06 -1.51911e-06 0)
(2.0266e-06 -1.38101e-06 0)
(9.64463e-08 -2.26645e-06 0)
(2.89933e-07 -2.2445e-06 0)
(4.85365e-07 -2.20126e-06 0)
(6.8363e-07 -2.13823e-06 0)
(8.85699e-07 -2.05731e-06 0)
(1.09202e-06 -1.96092e-06 0)
(1.30286e-06 -1.85186e-06 0)
(1.51802e-06 -1.73288e-06 0)
(1.73698e-06 -1.60735e-06 0)
(1.95834e-06 -1.47728e-06 0)
(9.44724e-08 -2.30596e-06 0)
(2.83902e-07 -2.28561e-06 0)
(4.7495e-07 -2.24549e-06 0)
(6.68352e-07 -2.18698e-06 0)
(8.64895e-07 -2.11176e-06 0)
(1.06495e-06 -2.02203e-06 0)
(1.26867e-06 -1.92035e-06 0)
(1.47583e-06 -1.80912e-06 0)
(1.68615e-06 -1.69144e-06 0)
(1.89804e-06 -1.56926e-06 0)
(9.25745e-08 -2.34624e-06 0)
(2.78165e-07 -2.32732e-06 0)
(4.65094e-07 -2.29001e-06 0)
(6.5402e-07 -2.23553e-06 0)
(8.45532e-07 -2.16545e-06 0)
(1.03999e-06 -2.08174e-06 0)
(1.23748e-06 -1.98673e-06 0)
(1.4377e-06 -1.88258e-06 0)
(1.64058e-06 -1.77206e-06 0)
(1.84432e-06 -1.65721e-06 0)
(9.07785e-08 -2.38722e-06 0)
(2.72665e-07 -2.36956e-06 0)
(4.55692e-07 -2.33474e-06 0)
(6.40448e-07 -2.28385e-06 0)
(8.27367e-07 -2.21835e-06 0)
(1.01675e-06 -2.14004e-06 0)
(1.20868e-06 -2.05105e-06 0)
(1.40279e-06 -1.95338e-06 0)
(1.59915e-06 -1.84947e-06 0)
(1.7959e-06 -1.74142e-06 0)
(8.90316e-08 -2.42883e-06 0)
(2.67298e-07 -2.4123e-06 0)
(4.46579e-07 -2.37971e-06 0)
(6.2736e-07 -2.33205e-06 0)
(8.10003e-07 -2.27069e-06 0)
(9.94744e-07 -2.19724e-06 0)
(1.18166e-06 -2.1137e-06 0)
(1.37034e-06 -2.02192e-06 0)
(1.56095e-06 -1.92403e-06 0)
(1.75165e-06 -1.82221e-06 0)
(8.72726e-08 -2.47098e-06 0)
(2.61999e-07 -2.45547e-06 0)
(4.37639e-07 -2.42487e-06 0)
(6.14598e-07 -2.38012e-06 0)
(7.93178e-07 -2.32249e-06 0)
(9.73615e-07 -2.25343e-06 0)
(1.15592e-06 -2.17482e-06 0)
(1.33971e-06 -2.08839e-06 0)
(1.52519e-06 -1.99603e-06 0)
(1.7106e-06 -1.8999e-06 0)
(8.54928e-08 -2.51358e-06 0)
(2.56723e-07 -2.49899e-06 0)
(4.28748e-07 -2.47021e-06 0)
(6.01979e-07 -2.42809e-06 0)
(7.76647e-07 -2.37383e-06 0)
(9.53003e-07 -2.30875e-06 0)
(1.13104e-06 -2.2346e-06 0)
(1.31036e-06 -2.15304e-06 0)
(1.49119e-06 -2.06572e-06 0)
(1.6719e-06 -1.97476e-06 0)
(8.37101e-08 -2.55654e-06 0)
(2.51421e-07 -2.54279e-06 0)
(4.19805e-07 -2.51566e-06 0)
(5.89342e-07 -2.47592e-06 0)
(7.60202e-07 -2.42471e-06 0)
(9.32623e-07 -2.36326e-06 0)
(1.10662e-06 -2.29318e-06 0)
(1.2818e-06 -2.21604e-06 0)
(1.45837e-06 -2.13332e-06 0)
(1.63487e-06 -2.04707e-06 0)
(8.19083e-08 -2.59976e-06 0)
(2.46002e-07 -2.58678e-06 0)
(4.10688e-07 -2.56116e-06 0)
(5.76507e-07 -2.5236e-06 0)
(7.43606e-07 -2.47517e-06 0)
(9.12182e-07 -2.41703e-06 0)
(1.0823e-06 -2.35066e-06 0)
(1.25356e-06 -2.27755e-06 0)
(1.42618e-06 -2.19903e-06 0)
(1.59888e-06 -2.11708e-06 0)
(8.00401e-08 -2.64313e-06 0)
(2.40364e-07 -2.63084e-06 0)
(4.01267e-07 -2.6066e-06 0)
(5.63293e-07 -2.57104e-06 0)
(7.26611e-07 -2.52516e-06 0)
(8.91379e-07 -2.47006e-06 0)
(1.05769e-06 -2.40709e-06 0)
(1.22522e-06 -2.33767e-06 0)
(1.39413e-06 -2.26302e-06 0)
(1.56331e-06 -2.18499e-06 0)
(7.80632e-08 -2.68654e-06 0)
(2.34431e-07 -2.6749e-06 0)
(3.91418e-07 -2.65193e-06 0)
(5.49528e-07 -2.61821e-06 0)
(7.08976e-07 -2.5747e-06 0)
(8.69906e-07 -2.5224e-06 0)
(1.03244e-06 -2.46256e-06 0)
(1.19633e-06 -2.39653e-06 0)
(1.36167e-06 -2.32545e-06 0)
(1.52752e-06 -2.251e-06 0)
(7.59606e-08 -2.72978e-06 0)
(2.28154e-07 -2.71874e-06 0)
(3.81028e-07 -2.69696e-06 0)
(5.35037e-07 -2.66498e-06 0)
(6.90457e-07 -2.62365e-06 0)
(8.47452e-07 -2.57394e-06 0)
(1.00617e-06 -2.51702e-06 0)
(1.16644e-06 -2.45415e-06 0)
(1.32827e-06 -2.38638e-06 0)
(1.49093e-06 -2.31522e-06 0)
(7.37207e-08 -2.77279e-06 0)
(2.21462e-07 -2.76232e-06 0)
(3.69942e-07 -2.74166e-06 0)
(5.19596e-07 -2.7113e-06 0)
(6.70773e-07 -2.67204e-06 0)
(8.23666e-07 -2.62477e-06 0)
(9.78461e-07 -2.5706e-06 0)
(1.13501e-06 -2.51069e-06 0)
(1.29334e-06 -2.44599e-06 0)
(1.4528e-06 -2.37792e-06 0)
(7.1315e-08 -2.81516e-06 0)
(2.14252e-07 -2.80523e-06 0)
(3.57983e-07 -2.78564e-06 0)
(5.02964e-07 -2.75683e-06 0)
(6.49611e-07 -2.71953e-06 0)
(7.98166e-07 -2.67458e-06 0)
(9.48833e-07 -2.62301e-06 0)
(1.1015e-06 -2.56591e-06 0)
(1.25622e-06 -2.50414e-06 0)
(1.41249e-06 -2.43899e-06 0)
(6.86857e-08 -2.85706e-06 0)
(2.06357e-07 -2.84767e-06 0)
(3.44892e-07 -2.8291e-06 0)
(4.84802e-07 -2.80178e-06 0)
(6.26541e-07 -2.76639e-06 0)
(7.70419e-07 -2.7237e-06 0)
(9.16662e-07 -2.67464e-06 0)
(1.06523e-06 -2.62023e-06 0)
(1.21616e-06 -2.56128e-06 0)
(1.36914e-06 -2.49891e-06 0)
(6.58017e-08 -2.89738e-06 0)
(1.97712e-07 -2.88849e-06 0)
(3.30563e-07 -2.87095e-06 0)
(4.64936e-07 -2.84512e-06 0)
(6.01349e-07 -2.81161e-06 0)
(7.40161e-07 -2.77117e-06 0)
(8.81619e-07 -2.72462e-06 0)
(1.02582e-06 -2.67288e-06 0)
(1.17277e-06 -2.61674e-06 0)
(1.32234e-06 -2.55718e-06 0)
)


// ************************************************************************* //
