/*--------------------------------*- C++ -*----------------------------------*\
| =========                 |                                                 |
| \\      /  F ield         | foam-extend: Open Source CFD                    |
|  \\    /   O peration     | Version:     4.1                                |
|   \\  /    A nd           | Web:         http://www.foam-extend.org         |
|    \\/     M anipulation  |                                                 |
\*---------------------------------------------------------------------------*/
FoamFile
{
    version     2.0;
    format      ascii;
    class       vectorField;
    location    "5";
    object      solidsCellD_iteration7;
}
// * * * * * * * * * * * * * * * * * * * * * * * * * * * * * * * * * * * * * //


1000
(
(2.53037e-06 -1.03267e-06 0)
(2.39223e-06 -9.63597e-07 0)
(2.30485e-06 -9.20888e-07 0)
(2.25558e-06 -9.02314e-07 0)
(2.23264e-06 -8.97654e-07 0)
(2.22899e-06 -9.03711e-07 0)
(2.23952e-06 -9.16799e-07 0)
(2.26066e-06 -9.35226e-07 0)
(2.28988e-06 -9.57159e-07 0)
(2.32421e-06 -9.81854e-07 0)
(2.28867e-06 -1.12809e-06 0)
(2.1415e-06 -1.08111e-06 0)
(2.04831e-06 -1.05245e-06 0)
(1.99471e-06 -1.04349e-06 0)
(1.96827e-06 -1.04526e-06 0)
(1.96134e-06 -1.05589e-06 0)
(1.96864e-06 -1.07226e-06 0)
(1.98639e-06 -1.09311e-06 0)
(2.01191e-06 -1.11696e-06 0)
(2.04235e-06 -1.14291e-06 0)
(2.03727e-06 -1.2185e-06 0)
(1.88686e-06 -1.19621e-06 0)
(1.79158e-06 -1.18319e-06 0)
(1.73599e-06 -1.18475e-06 0)
(1.70758e-06 -1.19341e-06 0)
(1.69835e-06 -1.20879e-06 0)
(1.70306e-06 -1.22848e-06 0)
(1.71794e-06 -1.25162e-06 0)
(1.74026e-06 -1.27723e-06 0)
(1.76744e-06 -1.30426e-06 0)
(1.77811e-06 -1.3023e-06 0)
(1.63081e-06 -1.30586e-06 0)
(1.53745e-06 -1.30922e-06 0)
(1.48237e-06 -1.32169e-06 0)
(1.45354e-06 -1.33748e-06 0)
(1.44303e-06 -1.35771e-06 0)
(1.44573e-06 -1.38067e-06 0)
(1.45807e-06 -1.40607e-06 0)
(1.47743e-06 -1.43337e-06 0)
(1.50134e-06 -1.46159e-06 0)
(1.513e-06 -1.37784e-06 0)
(1.37507e-06 -1.40699e-06 0)
(1.2876e-06 -1.42658e-06 0)
(1.23565e-06 -1.44982e-06 0)
(1.20801e-06 -1.47256e-06 0)
(1.19714e-06 -1.49752e-06 0)
(1.19839e-06 -1.52365e-06 0)
(1.2084e-06 -1.55125e-06 0)
(1.22488e-06 -1.58018e-06 0)
(1.24542e-06 -1.60966e-06 0)
(1.24319e-06 -1.44359e-06 0)
(1.12074e-06 -1.49667e-06 0)
(1.04311e-06 -1.53142e-06 0)
(9.96711e-07 -1.56473e-06 0)
(9.71708e-07 -1.59398e-06 0)
(9.61356e-07 -1.62334e-06 0)
(9.61685e-07 -1.65237e-06 0)
(9.69625e-07 -1.68202e-06 0)
(9.83215e-07 -1.71245e-06 0)
(1.00022e-06 -1.7432e-06 0)
(9.70046e-07 -1.49806e-06 0)
(8.68502e-07 -1.57211e-06 0)
(8.0412e-07 -1.62017e-06 0)
(7.65469e-07 -1.66229e-06 0)
(7.44462e-07 -1.69721e-06 0)
(7.35507e-07 -1.7304e-06 0)
(7.35334e-07 -1.76198e-06 0)
(7.4134e-07 -1.79345e-06 0)
(7.51963e-07 -1.8252e-06 0)
(7.65291e-07 -1.85712e-06 0)
(6.94513e-07 -1.54007e-06 0)
(6.18421e-07 -1.63095e-06 0)
(5.70205e-07 -1.68969e-06 0)
(5.41219e-07 -1.73883e-06 0)
(5.2537e-07 -1.77833e-06 0)
(5.18472e-07 -1.81461e-06 0)
(5.18085e-07 -1.84825e-06 0)
(5.22264e-07 -1.88119e-06 0)
(5.29879e-07 -1.914e-06 0)
(5.39444e-07 -1.94689e-06 0)
(4.1738e-07 -1.56862e-06 0)
(3.70283e-07 -1.67126e-06 0)
(3.40457e-07 -1.73745e-06 0)
(3.22445e-07 -1.79156e-06 0)
(3.12533e-07 -1.83426e-06 0)
(3.08171e-07 -1.87267e-06 0)
(3.07857e-07 -1.90776e-06 0)
(3.10337e-07 -1.94178e-06 0)
(3.14899e-07 -1.97537e-06 0)
(3.20645e-07 -2.00896e-06 0)
(1.39398e-07 -1.583e-06 0)
(1.23436e-07 -1.69173e-06 0)
(1.13278e-07 -1.76175e-06 0)
(1.07161e-07 -1.81841e-06 0)
(1.03818e-07 -1.86275e-06 0)
(1.02304e-07 -1.90228e-06 0)
(1.02131e-07 -1.93811e-06 0)
(1.0294e-07 -1.97265e-06 0)
(1.04471e-07 -2.00663e-06 0)
(1.0638e-07 -2.0406e-06 0)
(3.94021e-06 -4.70987e-08 0)
(3.97499e-06 -3.40328e-08 0)
(3.99705e-06 -2.58022e-08 0)
(4.0213e-06 -2.10162e-08 0)
(4.04815e-06 -1.84165e-08 0)
(4.08096e-06 -1.7301e-08 0)
(4.11969e-06 -1.71757e-08 0)
(4.16463e-06 -1.76733e-08 0)
(4.2157e-06 -1.86815e-08 0)
(4.27221e-06 -1.98796e-08 0)
(3.91125e-06 -1.41312e-07 0)
(3.94027e-06 -1.02881e-07 0)
(3.95874e-06 -7.87036e-08 0)
(3.98055e-06 -6.47316e-08 0)
(4.00579e-06 -5.7208e-08 0)
(4.03743e-06 -5.39496e-08 0)
(4.07535e-06 -5.3655e-08 0)
(4.11964e-06 -5.53031e-08 0)
(4.17011e-06 -5.83363e-08 0)
(4.22605e-06 -6.18646e-08 0)
(3.85334e-06 -2.36302e-07 0)
(3.8714e-06 -1.74655e-07 0)
(3.88294e-06 -1.35913e-07 0)
(3.90016e-06 -1.13494e-07 0)
(3.92236e-06 -1.01522e-07 0)
(3.95188e-06 -9.65222e-08 0)
(3.98819e-06 -9.6236e-08 0)
(4.03118e-06 -9.90463e-08 0)
(4.08054e-06 -1.0407e-07 0)
(4.13533e-06 -1.09961e-07 0)
(3.76754e-06 -3.32518e-07 0)
(3.77001e-06 -2.5099e-07 0)
(3.77165e-06 -1.99859e-07 0)
(3.78235e-06 -1.70417e-07 0)
(3.80019e-06 -1.54772e-07 0)
(3.82663e-06 -1.48418e-07 0)
(3.8607e-06 -1.48318e-07 0)
(3.90191e-06 -1.52404e-07 0)
(3.94971e-06 -1.59444e-07 0)
(4.00293e-06 -1.6771e-07 0)
(3.6551e-06 -4.30207e-07 0)
(3.63836e-06 -3.3329e-07 0)
(3.62776e-06 -2.72561e-07 0)
(3.63034e-06 -2.37879e-07 0)
(3.6428e-06 -2.19637e-07 0)
(3.66545e-06 -2.12563e-07 0)
(3.6967e-06 -2.13001e-07 0)
(3.73565e-06 -2.18517e-07 0)
(3.78151e-06 -2.27549e-07 0)
(3.83284e-06 -2.38141e-07 0)
(3.51771e-06 -5.29435e-07 0)
(3.47918e-06 -4.22475e-07 0)
(3.45479e-06 -3.55471e-07 0)
(3.44822e-06 -3.17647e-07 0)
(3.45457e-06 -2.98119e-07 0)
(3.47288e-06 -2.91098e-07 0)
(3.50095e-06 -2.92454e-07 0)
(3.53732e-06 -2.9952e-07 0)
(3.58096e-06 -3.10508e-07 0)
(3.63019e-06 -3.2338e-07 0)
(3.35738e-06 -6.30012e-07 0)
(3.2958e-06 -5.18925e-07 0)
(3.25684e-06 -4.49366e-07 0)
(3.24059e-06 -4.10738e-07 0)
(3.24048e-06 -3.91325e-07 0)
(3.25417e-06 -3.85188e-07 0)
(3.27882e-06 -3.87886e-07 0)
(3.31242e-06 -3.96656e-07 0)
(3.35363e-06 -4.09608e-07 0)
(3.40067e-06 -4.24691e-07 0)
(3.17617e-06 -7.3145e-07 0)
(3.09175e-06 -6.224e-07 0)
(3.03834e-06 -5.54165e-07 0)
(3.01243e-06 -5.17157e-07 0)
(3.00586e-06 -4.99329e-07 0)
(3.01488e-06 -4.94957e-07 0)
(3.03601e-06 -4.99462e-07 0)
(3.06676e-06 -5.10153e-07 0)
(3.10542e-06 -5.25079e-07 0)
(3.1502e-06 -5.42318e-07 0)
(2.9764e-06 -8.33059e-07 0)
(2.87074e-06 -7.32043e-07 0)
(2.80391e-06 -6.68966e-07 0)
(2.76895e-06 -6.35974e-07 0)
(2.75625e-06 -6.21208e-07 0)
(2.76071e-06 -6.19477e-07 0)
(2.77827e-06 -6.26295e-07 0)
(2.80608e-06 -6.39106e-07 0)
(2.84201e-06 -6.56093e-07 0)
(2.88442e-06 -6.75253e-07 0)
(2.76039e-06 -9.33864e-07 0)
(2.63644e-06 -8.46416e-07 0)
(2.55804e-06 -7.92014e-07 0)
(2.51512e-06 -7.65304e-07 0)
(2.49689e-06 -7.55002e-07 0)
(2.49713e-06 -7.5678e-07 0)
(2.51133e-06 -7.66474e-07 0)
(2.53623e-06 -7.81891e-07 0)
(2.56957e-06 -8.01202e-07 0)
(2.60916e-06 -8.23201e-07 0)
(4.33421e-06 -2.10269e-08 0)
(4.40172e-06 -2.13498e-08 0)
(4.47344e-06 -2.16912e-08 0)
(4.5491e-06 -2.19445e-08 0)
(4.62824e-06 -2.20913e-08 0)
(4.71062e-06 -2.21269e-08 0)
(4.79584e-06 -2.20244e-08 0)
(4.88357e-06 -2.18083e-08 0)
(4.97355e-06 -2.14826e-08 0)
(5.06557e-06 -2.10143e-08 0)
(5.15933e-06 -2.03754e-08 0)
(5.25454e-06 -1.95611e-08 0)
(5.35097e-06 -1.85696e-08 0)
(5.44835e-06 -1.73954e-08 0)
(5.54646e-06 -1.60171e-08 0)
(5.64494e-06 -1.43986e-08 0)
(5.74362e-06 -1.24967e-08 0)
(5.8419e-06 -1.02714e-08 0)
(5.93991e-06 -7.67379e-09 0)
(6.0362e-06 -4.69329e-09 0)
(4.29008e-06 -6.50899e-08 0)
(4.36126e-06 -6.57935e-08 0)
(4.43626e-06 -6.65652e-08 0)
(4.51479e-06 -6.71103e-08 0)
(4.59652e-06 -6.73466e-08 0)
(4.68116e-06 -6.72996e-08 0)
(4.76842e-06 -6.69203e-08 0)
(4.85802e-06 -6.6217e-08 0)
(4.94973e-06 -6.51345e-08 0)
(5.04331e-06 -6.36104e-08 0)
(5.1385e-06 -6.16199e-08 0)
(5.23505e-06 -5.91583e-08 0)
(5.33276e-06 -5.61889e-08 0)
(5.43134e-06 -5.26553e-08 0)
(5.53057e-06 -4.84818e-08 0)
(5.63011e-06 -4.35875e-08 0)
(5.72981e-06 -3.78661e-08 0)
(5.82908e-06 -3.12088e-08 0)
(5.92805e-06 -2.346e-08 0)
(6.02529e-06 -1.4558e-08 0)
(4.20332e-06 -1.14676e-07 0)
(4.28173e-06 -1.14952e-07 0)
(4.36321e-06 -1.154e-07 0)
(4.44733e-06 -1.15673e-07 0)
(4.53407e-06 -1.15567e-07 0)
(4.6232e-06 -1.15112e-07 0)
(4.71453e-06 -1.14169e-07 0)
(4.8078e-06 -1.12718e-07 0)
(4.90283e-06 -1.10657e-07 0)
(4.99944e-06 -1.07923e-07 0)
(5.09745e-06 -1.04488e-07 0)
(5.19664e-06 -1.00314e-07 0)
(5.29681e-06 -9.53061e-08 0)
(5.39768e-06 -8.93522e-08 0)
(5.49909e-06 -8.23363e-08 0)
(5.60073e-06 -7.41366e-08 0)
(5.70246e-06 -6.45822e-08 0)
(5.80371e-06 -5.35013e-08 0)
(5.90461e-06 -4.0634e-08 0)
(6.00378e-06 -2.58531e-08 0)
(4.07656e-06 -1.72917e-07 0)
(4.16527e-06 -1.7147e-07 0)
(4.2561e-06 -1.7043e-07 0)
(4.34838e-06 -1.69562e-07 0)
(4.44248e-06 -1.684e-07 0)
(4.53813e-06 -1.66972e-07 0)
(4.63537e-06 -1.64993e-07 0)
(4.73397e-06 -1.6242e-07 0)
(4.83394e-06 -1.59095e-07 0)
(4.93509e-06 -1.54945e-07 0)
(5.03727e-06 -1.49895e-07 0)
(5.14033e-06 -1.43853e-07 0)
(5.24408e-06 -1.3667e-07 0)
(5.34835e-06 -1.28207e-07 0)
(5.45296e-06 -1.18317e-07 0)
(5.55768e-06 -1.06807e-07 0)
(5.66236e-06 -9.34348e-08 0)
(5.76649e-06 -7.79552e-08 0)
(5.87019e-06 -5.99904e-08 0)
(5.97215e-06 -3.93795e-08 0)
(3.91352e-06 -2.42561e-07 0)
(4.01525e-06 -2.37756e-07 0)
(4.11799e-06 -2.33777e-07 0)
(4.2206e-06 -2.30667e-07 0)
(4.32407e-06 -2.27506e-07 0)
(4.42808e-06 -2.24328e-07 0)
(4.53294e-06 -2.20685e-07 0)
(4.63846e-06 -2.16504e-07 0)
(4.74474e-06 -2.11533e-07 0)
(4.85168e-06 -2.05645e-07 0)
(4.95924e-06 -1.98717e-07 0)
(5.06729e-06 -1.90602e-07 0)
(5.17573e-06 -1.81102e-07 0)
(5.28441e-06 -1.70033e-07 0)
(5.39323e-06 -1.572e-07 0)
(5.50192e-06 -1.42344e-07 0)
(5.61044e-06 -1.25149e-07 0)
(5.71824e-06 -1.05299e-07 0)
(5.82559e-06 -8.22904e-08 0)
(5.93117e-06 -5.5924e-08 0)
(3.71885e-06 -3.25602e-07 0)
(3.83553e-06 -3.15552e-07 0)
(3.95221e-06 -3.06887e-07 0)
(4.06704e-06 -3.00165e-07 0)
(4.18171e-06 -2.93883e-07 0)
(4.29572e-06 -2.88054e-07 0)
(4.40966e-06 -2.8202e-07 0)
(4.52345e-06 -2.75609e-07 0)
(4.63732e-06 -2.68501e-07 0)
(4.75124e-06 -2.60502e-07 0)
(4.86526e-06 -2.51415e-07 0)
(4.97934e-06 -2.41019e-07 0)
(5.09342e-06 -2.29054e-07 0)
(5.20738e-06 -2.15283e-07 0)
(5.32122e-06 -1.99439e-07 0)
(5.43468e-06 -1.81207e-07 0)
(5.54781e-06 -1.602e-07 0)
(5.66006e-06 -1.36035e-07 0)
(5.7718e-06 -1.08079e-07 0)
(5.88174e-06 -7.60563e-08 0)
(3.49791e-06 -4.23294e-07 0)
(3.63093e-06 -4.06043e-07 0)
(3.76306e-06 -3.90944e-07 0)
(3.89153e-06 -3.79147e-07 0)
(4.01867e-06 -3.68556e-07 0)
(4.14399e-06 -3.5905e-07 0)
(4.26819e-06 -3.49824e-07 0)
(4.39138e-06 -3.40529e-07 0)
(4.51389e-06 -3.30768e-07 0)
(4.63581e-06 -3.20244e-07 0)
(4.75724e-06 -3.08662e-07 0)
(4.87821e-06 -2.95712e-07 0)
(4.99872e-06 -2.81069e-07 0)
(5.11877e-06 -2.64443e-07 0)
(5.23835e-06 -2.45496e-07 0)
(5.3573e-06 -2.23855e-07 0)
(5.47572e-06 -1.99057e-07 0)
(5.59312e-06 -1.7063e-07 0)
(5.70989e-06 -1.37812e-07 0)
(5.82482e-06 -1.00245e-07 0)
(3.25606e-06 -5.35921e-07 0)
(3.40604e-06 -5.09341e-07 0)
(3.55443e-06 -4.86078e-07 0)
(3.69759e-06 -4.67562e-07 0)
(3.83825e-06 -4.51387e-07 0)
(3.9759e-06 -4.37106e-07 0)
(4.11144e-06 -4.23814e-07 0)
(4.24504e-06 -4.10946e-07 0)
(4.37711e-06 -3.97994e-07 0)
(4.50785e-06 -3.84519e-07 0)
(4.63745e-06 -3.70114e-07 0)
(4.76602e-06 -3.54372e-07 0)
(4.89364e-06 -3.36899e-07 0)
(5.02039e-06 -3.1734e-07 0)
(5.14634e-06 -2.95278e-07 0)
(5.2714e-06 -2.70268e-07 0)
(5.39567e-06 -2.41751e-07 0)
(5.51875e-06 -2.09163e-07 0)
(5.64105e-06 -1.71611e-07 0)
(5.76151e-06 -1.28656e-07 0)
(2.99894e-06 -6.63293e-07 0)
(3.16618e-06 -6.25524e-07 0)
(3.33106e-06 -5.92938e-07 0)
(3.48953e-06 -5.66266e-07 0)
(3.64425e-06 -5.43399e-07 0)
(3.7949e-06 -5.23347e-07 0)
(3.94238e-06 -5.05132e-07 0)
(4.08702e-06 -4.87958e-07 0)
(4.22927e-06 -4.71183e-07 0)
(4.36944e-06 -4.54224e-07 0)
(4.50779e-06 -4.36558e-07 0)
(4.64451e-06 -4.17685e-07 0)
(4.7798e-06 -3.97141e-07 0)
(4.91381e-06 -3.74485e-07 0)
(5.04663e-06 -3.4921e-07 0)
(5.17825e-06 -3.20789e-07 0)
(5.30882e-06 -2.88561e-07 0)
(5.438e-06 -2.51865e-07 0)
(5.56629e-06 -2.09697e-07 0)
(5.69275e-06 -1.61549e-07 0)
(2.73151e-06 -8.03449e-07 0)
(2.9167e-06 -7.51577e-07 0)
(3.09773e-06 -7.08501e-07 0)
(3.27206e-06 -6.72335e-07 0)
(3.44118e-06 -6.41637e-07 0)
(3.60538e-06 -6.14888e-07 0)
(3.7653e-06 -5.90988e-07 0)
(3.92145e-06 -5.68943e-07 0)
(4.07432e-06 -5.47928e-07 0)
(4.22431e-06 -5.27199e-07 0)
(4.37178e-06 -5.06096e-07 0)
(4.51701e-06 -4.84011e-07 0)
(4.66027e-06 -4.6038e-07 0)
(4.80178e-06 -4.34664e-07 0)
(4.94169e-06 -4.06262e-07 0)
(5.08006e-06 -3.74562e-07 0)
(5.21711e-06 -3.38807e-07 0)
(5.35261e-06 -2.9823e-07 0)
(5.48708e-06 -2.51726e-07 0)
(5.61983e-06 -1.98681e-07 0)
(2.53033e-06 -9.40232e-07 0)
(2.72882e-06 -8.76014e-07 0)
(2.92027e-06 -8.2464e-07 0)
(3.1049e-06 -7.80593e-07 0)
(3.2834e-06 -7.42801e-07 0)
(3.45641e-06 -7.09643e-07 0)
(3.62456e-06 -6.79944e-07 0)
(3.78838e-06 -6.5266e-07 0)
(3.94839e-06 -6.26883e-07 0)
(4.10501e-06 -6.0179e-07 0)
(4.25861e-06 -5.76656e-07 0)
(4.40953e-06 -5.50809e-07 0)
(4.55807e-06 -5.23618e-07 0)
(4.7045e-06 -4.94474e-07 0)
(4.84897e-06 -4.6272e-07 0)
(4.99165e-06 -4.27682e-07 0)
(5.13274e-06 -3.88569e-07 0)
(5.2722e-06 -3.4456e-07 0)
(5.41054e-06 -2.94529e-07 0)
(5.54729e-06 -2.378e-07 0)
(2.41652e-06 -1.05267e-06 0)
(2.61636e-06 -9.85738e-07 0)
(2.80957e-06 -9.29443e-07 0)
(2.99697e-06 -8.80318e-07 0)
(3.17863e-06 -8.37359e-07 0)
(3.35498e-06 -7.9917e-07 0)
(3.52649e-06 -7.64622e-07 0)
(3.69358e-06 -7.3271e-07 0)
(3.85668e-06 -7.02534e-07 0)
(4.01617e-06 -6.73277e-07 0)
(4.17243e-06 -6.44209e-07 0)
(4.32576e-06 -6.14643e-07 0)
(4.47649e-06 -5.8393e-07 0)
(4.62488e-06 -5.51437e-07 0)
(4.77109e-06 -5.165e-07 0)
(4.91536e-06 -4.78432e-07 0)
(5.05787e-06 -4.36462e-07 0)
(5.19874e-06 -3.8978e-07 0)
(5.33842e-06 -3.37313e-07 0)
(5.47664e-06 -2.78368e-07 0)
(2.32043e-06 -1.15986e-06 0)
(2.51814e-06 -1.09165e-06 0)
(2.71106e-06 -1.03242e-06 0)
(2.899e-06 -9.79558e-07 0)
(3.08194e-06 -9.32386e-07 0)
(3.25997e-06 -8.89806e-07 0)
(3.43343e-06 -8.50835e-07 0)
(3.60258e-06 -8.1457e-07 0)
(3.76775e-06 -7.80165e-07 0)
(3.92927e-06 -7.46849e-07 0)
(4.08746e-06 -7.13904e-07 0)
(4.24262e-06 -6.80651e-07 0)
(4.39504e-06 -6.46437e-07 0)
(4.54498e-06 -6.10625e-07 0)
(4.6926e-06 -5.72558e-07 0)
(4.8382e-06 -5.31552e-07 0)
(4.98196e-06 -4.86871e-07 0)
(5.12408e-06 -4.37741e-07 0)
(5.26497e-06 -3.8314e-07 0)
(5.40457e-06 -3.22394e-07 0)
(2.23611e-06 -1.26306e-06 0)
(2.43089e-06 -1.19433e-06 0)
(2.62214e-06 -1.13298e-06 0)
(2.80925e-06 -1.07713e-06 0)
(2.9921e-06 -1.02641e-06 0)
(3.17059e-06 -9.79968e-07 0)
(3.34488e-06 -9.37007e-07 0)
(3.51512e-06 -8.9673e-07 0)
(3.68152e-06 -8.58371e-07 0)
(3.84436e-06 -8.21214e-07 0)
(4.00389e-06 -7.84575e-07 0)
(4.16037e-06 -7.47794e-07 0)
(4.31406e-06 -7.10231e-07 0)
(4.46521e-06 -6.71259e-07 0)
(4.61399e-06 -6.30235e-07 0)
(4.76071e-06 -5.865e-07 0)
(4.90555e-06 -5.39359e-07 0)
(5.04879e-06 -4.8808e-07 0)
(5.19079e-06 -4.31703e-07 0)
(5.33168e-06 -3.69626e-07 0)
(2.16199e-06 -1.36189e-06 0)
(2.35318e-06 -1.2932e-06 0)
(2.54185e-06 -1.23055e-06 0)
(2.72712e-06 -1.17252e-06 0)
(2.90886e-06 -1.11896e-06 0)
(3.08682e-06 -1.06928e-06 0)
(3.26103e-06 -1.02283e-06 0)
(3.43151e-06 -9.78955e-07 0)
(3.59841e-06 -9.36974e-07 0)
(3.76193e-06 -8.96246e-07 0)
(3.92225e-06 -8.56135e-07 0)
(4.07957e-06 -8.16016e-07 0)
(4.23415e-06 -7.75277e-07 0)
(4.38619e-06 -7.33315e-07 0)
(4.53587e-06 -6.89514e-07 0)
(4.68351e-06 -6.43248e-07 0)
(4.82928e-06 -5.93868e-07 0)
(4.97349e-06 -5.40692e-07 0)
(5.1165e-06 -4.82845e-07 0)
(5.25856e-06 -4.1986e-07 0)
(2.09616e-06 -1.45654e-06 0)
(2.28344e-06 -1.38827e-06 0)
(2.46902e-06 -1.32486e-06 0)
(2.65178e-06 -1.26525e-06 0)
(2.8317e-06 -1.20945e-06 0)
(3.00838e-06 -1.15707e-06 0)
(3.18178e-06 -1.10762e-06 0)
(3.35183e-06 -1.06056e-06 0)
(3.51861e-06 -1.01533e-06 0)
(3.68225e-06 -9.71352e-07 0)
(3.84287e-06 -9.2805e-07 0)
(4.00061e-06 -8.84842e-07 0)
(4.15572e-06 -8.41156e-07 0)
(4.30835e-06 -7.96426e-07 0)
(4.45869e-06 -7.50068e-07 0)
(4.60704e-06 -7.01503e-07 0)
(4.75357e-06 -6.50126e-07 0)
(4.89862e-06 -5.95316e-07 0)
(5.04252e-06 -5.36323e-07 0)
(5.18564e-06 -4.72794e-07 0)
(2.03726e-06 -1.54719e-06 0)
(2.22046e-06 -1.47961e-06 0)
(2.4026e-06 -1.41585e-06 0)
(2.58244e-06 -1.35515e-06 0)
(2.76003e-06 -1.29763e-06 0)
(2.93487e-06 -1.24306e-06 0)
(3.10691e-06 -1.19107e-06 0)
(3.276e-06 -1.14127e-06 0)
(3.44216e-06 -1.09316e-06 0)
(3.60545e-06 -1.04627e-06 0)
(3.76594e-06 -1.00008e-06 0)
(3.92374e-06 -9.54049e-07 0)
(4.07905e-06 -9.07664e-07 0)
(4.23201e-06 -8.60401e-07 0)
(4.38278e-06 -8.11708e-07 0)
(4.53165e-06 -7.61068e-07 0)
(4.67878e-06 -7.07927e-07 0)
(4.82453e-06 -6.51741e-07 0)
(4.96923e-06 -5.91899e-07 0)
(5.11326e-06 -5.28075e-07 0)
(1.98401e-06 -1.63407e-06 0)
(2.16313e-06 -1.56735e-06 0)
(2.34163e-06 -1.50355e-06 0)
(2.5183e-06 -1.44214e-06 0)
(2.69321e-06 -1.38333e-06 0)
(2.86584e-06 -1.32699e-06 0)
(3.03611e-06 -1.2729e-06 0)
(3.20383e-06 -1.22074e-06 0)
(3.36895e-06 -1.17013e-06 0)
(3.53151e-06 -1.12066e-06 0)
(3.69153e-06 -1.07189e-06 0)
(3.84907e-06 -1.02333e-06 0)
(4.00431e-06 -9.74507e-07 0)
(4.15735e-06 -9.24958e-07 0)
(4.30835e-06 -8.74171e-07 0)
(4.45757e-06 -8.21689e-07 0)
(4.60517e-06 -7.67028e-07 0)
(4.7515e-06 -7.09722e-07 0)
(4.89687e-06 -6.49277e-07 0)
(5.04166e-06 -5.85344e-07 0)
(1.93532e-06 -1.71746e-06 0)
(2.11038e-06 -1.65169e-06 0)
(2.28518e-06 -1.58807e-06 0)
(2.45857e-06 -1.52624e-06 0)
(2.63059e-06 -1.46648e-06 0)
(2.80076e-06 -1.40874e-06 0)
(2.96898e-06 -1.35292e-06 0)
(3.13501e-06 -1.29878e-06 0)
(3.2988e-06 -1.24601e-06 0)
(3.46032e-06 -1.1943e-06 0)
(3.61959e-06 -1.14326e-06 0)
(3.77662e-06 -1.09246e-06 0)
(3.93157e-06 -1.04148e-06 0)
(4.0845e-06 -9.89897e-07 0)
(4.23555e-06 -9.37263e-07 0)
(4.38498e-06 -8.83179e-07 0)
(4.53291e-06 -8.2724e-07 0)
(4.67972e-06 -7.69046e-07 0)
(4.82562e-06 -7.0817e-07 0)
(4.97106e-06 -6.44325e-07 0)
(1.89019e-06 -1.79762e-06 0)
(2.06129e-06 -1.73285e-06 0)
(2.23242e-06 -1.66955e-06 0)
(2.40247e-06 -1.60752e-06 0)
(2.57151e-06 -1.54708e-06 0)
(2.73908e-06 -1.48826e-06 0)
(2.90506e-06 -1.43102e-06 0)
(3.06921e-06 -1.37524e-06 0)
(3.23145e-06 -1.32066e-06 0)
(3.39173e-06 -1.26703e-06 0)
(3.55003e-06 -1.21402e-06 0)
(3.70635e-06 -1.16127e-06 0)
(3.86083e-06 -1.1084e-06 0)
(4.01348e-06 -1.05505e-06 0)
(4.16445e-06 -1.00081e-06 0)
(4.31396e-06 -9.45368e-07 0)
(4.46212e-06 -8.88373e-07 0)
(4.60928e-06 -8.29479e-07 0)
(4.7556e-06 -7.68309e-07 0)
(4.90158e-06 -7.04748e-07 0)
(1.84776e-06 -1.87484e-06 0)
(2.01504e-06 -1.81107e-06 0)
(2.18256e-06 -1.74817e-06 0)
(2.3493e-06 -1.6861e-06 0)
(2.51534e-06 -1.6252e-06 0)
(2.68025e-06 -1.56555e-06 0)
(2.8439e-06 -1.50721e-06 0)
(3.00605e-06 -1.45008e-06 0)
(3.16659e-06 -1.39399e-06 0)
(3.32549e-06 -1.33874e-06 0)
(3.48269e-06 -1.28406e-06 0)
(3.63816e-06 -1.22964e-06 0)
(3.79202e-06 -1.17513e-06 0)
(3.94428e-06 -1.12025e-06 0)
(4.09505e-06 -1.06466e-06 0)
(4.24454e-06 -1.00808e-06 0)
(4.39283e-06 -9.50216e-07 0)
(4.54021e-06 -8.90763e-07 0)
(4.68688e-06 -8.29458e-07 0)
(4.83327e-06 -7.66275e-07 0)
(1.80729e-06 -1.94936e-06 0)
(1.97089e-06 -1.88655e-06 0)
(2.1349e-06 -1.82411e-06 0)
(2.29841e-06 -1.76211e-06 0)
(2.4615e-06 -1.70094e-06 0)
(2.62375e-06 -1.64069e-06 0)
(2.78503e-06 -1.58148e-06 0)
(2.94512e-06 -1.52328e-06 0)
(3.10391e-06 -1.46597e-06 0)
(3.26134e-06 -1.40937e-06 0)
(3.41734e-06 -1.35327e-06 0)
(3.57188e-06 -1.29742e-06 0)
(3.72504e-06 -1.24155e-06 0)
(3.87682e-06 -1.18539e-06 0)
(4.02732e-06 -1.12867e-06 0)
(4.17671e-06 -1.07116e-06 0)
(4.32502e-06 -1.01259e-06 0)
(4.47256e-06 -9.52712e-07 0)
(4.61949e-06 -8.91431e-07 0)
(4.76618e-06 -8.28636e-07 0)
(1.7681e-06 -2.02142e-06 0)
(1.92818e-06 -1.9595e-06 0)
(2.08882e-06 -1.89755e-06 0)
(2.24922e-06 -1.83572e-06 0)
(2.40942e-06 -1.77441e-06 0)
(2.56904e-06 -1.71375e-06 0)
(2.72799e-06 -1.6539e-06 0)
(2.88603e-06 -1.59485e-06 0)
(3.04306e-06 -1.53655e-06 0)
(3.199e-06 -1.47886e-06 0)
(3.35377e-06 -1.42162e-06 0)
(3.50733e-06 -1.36461e-06 0)
(3.65974e-06 -1.3076e-06 0)
(3.811e-06 -1.25041e-06 0)
(3.96116e-06 -1.19277e-06 0)
(4.11037e-06 -1.13449e-06 0)
(4.25864e-06 -1.07535e-06 0)
(4.40627e-06 -1.0152e-06 0)
(4.55335e-06 -9.54015e-07 0)
(4.70027e-06 -8.91659e-07 0)
(1.72958e-06 -2.09122e-06 0)
(1.8863e-06 -2.03014e-06 0)
(2.04372e-06 -1.96869e-06 0)
(2.20112e-06 -1.90709e-06 0)
(2.35853e-06 -1.84575e-06 0)
(2.51563e-06 -1.78483e-06 0)
(2.67232e-06 -1.72453e-06 0)
(2.82838e-06 -1.66486e-06 0)
(2.98368e-06 -1.60581e-06 0)
(3.13815e-06 -1.54726e-06 0)
(3.2917e-06 -1.4891e-06 0)
(3.44427e-06 -1.43115e-06 0)
(3.59593e-06 -1.37324e-06 0)
(3.74664e-06 -1.3152e-06 0)
(3.89642e-06 -1.25681e-06 0)
(4.0454e-06 -1.19791e-06 0)
(4.19358e-06 -1.13835e-06 0)
(4.34124e-06 -1.07806e-06 0)
(4.48842e-06 -1.01695e-06 0)
(4.63549e-06 -9.55082e-07 0)
(1.69107e-06 -2.15897e-06 0)
(1.84463e-06 -2.09867e-06 0)
(1.99898e-06 -2.03771e-06 0)
(2.15351e-06 -1.97639e-06 0)
(2.30829e-06 -1.91512e-06 0)
(2.46302e-06 -1.85409e-06 0)
(2.61757e-06 -1.79351e-06 0)
(2.77174e-06 -1.7334e-06 0)
(2.9254e-06 -1.67377e-06 0)
(3.07847e-06 -1.61457e-06 0)
(3.23085e-06 -1.55572e-06 0)
(3.38249e-06 -1.49706e-06 0)
(3.53342e-06 -1.43845e-06 0)
(3.68357e-06 -1.37975e-06 0)
(3.83295e-06 -1.32077e-06 0)
(3.98168e-06 -1.26139e-06 0)
(4.12975e-06 -1.20154e-06 0)
(4.2774e-06 -1.14116e-06 0)
(4.42464e-06 -1.08018e-06 0)
(4.57178e-06 -1.01874e-06 0)
(1.65198e-06 -2.22485e-06 0)
(1.80251e-06 -2.16531e-06 0)
(1.95393e-06 -2.10477e-06 0)
(2.10582e-06 -2.04378e-06 0)
(2.25817e-06 -1.98268e-06 0)
(2.4107e-06 -1.92166e-06 0)
(2.56329e-06 -1.86093e-06 0)
(2.71572e-06 -1.80056e-06 0)
(2.86786e-06 -1.74056e-06 0)
(3.01964e-06 -1.6809e-06 0)
(3.17095e-06 -1.62154e-06 0)
(3.32173e-06 -1.56236e-06 0)
(3.47196e-06 -1.50322e-06 0)
(3.62157e-06 -1.44401e-06 0)
(3.77056e-06 -1.38457e-06 0)
(3.91904e-06 -1.32486e-06 0)
(4.06701e-06 -1.26482e-06 0)
(4.2146e-06 -1.20434e-06 0)
(4.36184e-06 -1.14354e-06 0)
(4.50899e-06 -1.08249e-06 0)
(1.61166e-06 -2.28907e-06 0)
(1.75922e-06 -2.23007e-06 0)
(1.90788e-06 -2.17009e-06 0)
(2.05746e-06 -2.10953e-06 0)
(2.20761e-06 -2.04866e-06 0)
(2.3582e-06 -1.98775e-06 0)
(2.50902e-06 -1.92699e-06 0)
(2.65989e-06 -1.86649e-06 0)
(2.8107e-06 -1.80627e-06 0)
(2.96136e-06 -1.74633e-06 0)
(3.11174e-06 -1.68664e-06 0)
(3.26174e-06 -1.62709e-06 0)
(3.41133e-06 -1.56755e-06 0)
(3.56044e-06 -1.50797e-06 0)
(3.70909e-06 -1.44824e-06 0)
(3.85739e-06 -1.38829e-06 0)
(4.0052e-06 -1.32807e-06 0)
(4.15269e-06 -1.26754e-06 0)
(4.29989e-06 -1.20691e-06 0)
(4.44711e-06 -1.14621e-06 0)
(1.56914e-06 -2.35156e-06 0)
(1.7142e-06 -2.29321e-06 0)
(1.86059e-06 -2.23388e-06 0)
(2.00796e-06 -2.17376e-06 0)
(2.15618e-06 -2.11322e-06 0)
(2.30504e-06 -2.05251e-06 0)
(2.45435e-06 -1.99184e-06 0)
(2.60393e-06 -1.93135e-06 0)
(2.75365e-06 -1.87107e-06 0)
(2.90339e-06 -1.81099e-06 0)
(3.05296e-06 -1.75108e-06 0)
(3.20227e-06 -1.69129e-06 0)
(3.35133e-06 -1.63152e-06 0)
(3.50008e-06 -1.57171e-06 0)
(3.64846e-06 -1.51175e-06 0)
(3.79648e-06 -1.45163e-06 0)
(3.94411e-06 -1.39127e-06 0)
(4.0916e-06 -1.33075e-06 0)
(4.23881e-06 -1.27024e-06 0)
(4.38589e-06 -1.20983e-06 0)
(1.52386e-06 -2.41299e-06 0)
(1.66663e-06 -2.35535e-06 0)
(1.81097e-06 -2.29653e-06 0)
(1.95654e-06 -2.23687e-06 0)
(2.10318e-06 -2.17669e-06 0)
(2.25066e-06 -2.11627e-06 0)
(2.39885e-06 -2.0558e-06 0)
(2.54749e-06 -1.99541e-06 0)
(2.69639e-06 -1.93514e-06 0)
(2.84538e-06 -1.87501e-06 0)
(2.99435e-06 -1.81502e-06 0)
(3.14322e-06 -1.7551e-06 0)
(3.29192e-06 -1.69517e-06 0)
(3.44028e-06 -1.63521e-06 0)
(3.58836e-06 -1.57509e-06 0)
(3.73624e-06 -1.51481e-06 0)
(3.88379e-06 -1.45439e-06 0)
(4.03115e-06 -1.39387e-06 0)
(4.17835e-06 -1.3334e-06 0)
(4.3254e-06 -1.27321e-06 0)
(1.47525e-06 -2.47284e-06 0)
(1.61601e-06 -2.41603e-06 0)
(1.75864e-06 -2.35792e-06 0)
(1.90278e-06 -2.29886e-06 0)
(2.04827e-06 -2.23918e-06 0)
(2.19487e-06 -2.17916e-06 0)
(2.34231e-06 -2.11898e-06 0)
(2.49031e-06 -2.05879e-06 0)
(2.63867e-06 -1.99863e-06 0)
(2.7873e-06 -1.93853e-06 0)
(2.93596e-06 -1.87854e-06 0)
(3.08447e-06 -1.81858e-06 0)
(3.23286e-06 -1.75854e-06 0)
(3.38102e-06 -1.69846e-06 0)
(3.52888e-06 -1.63827e-06 0)
(3.67655e-06 -1.5779e-06 0)
(3.82401e-06 -1.51744e-06 0)
(3.97128e-06 -1.45685e-06 0)
(4.11847e-06 -1.39638e-06 0)
(4.26547e-06 -1.33624e-06 0)
(1.06156e-07 -2.07524e-06 0)
(3.19805e-07 -2.04512e-06 0)
(5.37408e-07 -1.98596e-06 0)
(7.61198e-07 -1.90031e-06 0)
(9.92945e-07 -1.79131e-06 0)
(1.23375e-06 -1.66315e-06 0)
(1.484e-06 -1.52045e-06 0)
(1.74326e-06 -1.36808e-06 0)
(2.01092e-06 -1.21088e-06 0)
(2.28453e-06 -1.05259e-06 0)
(1.03421e-07 -2.11135e-06 0)
(3.1139e-07 -2.08387e-06 0)
(5.22599e-07 -2.0298e-06 0)
(7.38915e-07 -1.95137e-06 0)
(9.61807e-07 -1.85121e-06 0)
(1.19218e-06 -1.73288e-06 0)
(1.43036e-06 -1.60033e-06 0)
(1.67584e-06 -1.45777e-06 0)
(1.92763e-06 -1.30961e-06 0)
(2.18362e-06 -1.15942e-06 0)
(1.00933e-07 -2.14843e-06 0)
(3.0373e-07 -2.12334e-06 0)
(5.09124e-07 -2.07386e-06 0)
(7.18593e-07 -2.00199e-06 0)
(9.33368e-07 -1.91e-06 0)
(1.15416e-06 -1.80094e-06 0)
(1.38131e-06 -1.67822e-06 0)
(1.61463e-06 -1.54538e-06 0)
(1.85332e-06 -1.4063e-06 0)
(2.09599e-06 -1.26355e-06 0)
(9.86873e-08 -2.18645e-06 0)
(2.96839e-07 -2.16336e-06 0)
(4.97152e-07 -2.11778e-06 0)
(7.00763e-07 -2.0515e-06 0)
(9.08724e-07 -1.96651e-06 0)
(1.12157e-06 -1.86543e-06 0)
(1.33952e-06 -1.75137e-06 0)
(1.56242e-06 -1.62743e-06 0)
(1.78951e-06 -1.49728e-06 0)
(2.01968e-06 -1.36297e-06 0)
(9.66266e-08 -2.22536e-06 0)
(2.9045e-07 -2.20408e-06 0)
(4.86088e-07 -2.16199e-06 0)
(6.84387e-07 -2.10072e-06 0)
(8.86237e-07 -2.02206e-06 0)
(1.09206e-06 -1.92833e-06 0)
(1.30204e-06 -1.8223e-06 0)
(1.51605e-06 -1.70661e-06 0)
(1.73348e-06 -1.58463e-06 0)
(1.953e-06 -1.45823e-06 0)
(9.46956e-08 -2.2651e-06 0)
(2.84519e-07 -2.24538e-06 0)
(4.75858e-07 -2.20635e-06 0)
(6.69386e-07 -2.14947e-06 0)
(8.65826e-07 -2.07637e-06 0)
(1.06553e-06 -1.98914e-06 0)
(1.26857e-06 -1.89031e-06 0)
(1.47479e-06 -1.78221e-06 0)
(1.68381e-06 -1.66792e-06 0)
(1.89408e-06 -1.54927e-06 0)
(9.28253e-08 -2.30564e-06 0)
(2.78865e-07 -2.28729e-06 0)
(4.66149e-07 -2.25101e-06 0)
(6.55275e-07 -2.19805e-06 0)
(8.46793e-07 -2.12995e-06 0)
(1.04102e-06 -2.0486e-06 0)
(1.238e-06 -1.95628e-06 0)
(1.43746e-06 -1.85511e-06 0)
(1.63923e-06 -1.74782e-06 0)
(1.84158e-06 -1.63635e-06 0)
(9.10429e-08 -2.34686e-06 0)
(2.73434e-07 -2.32973e-06 0)
(4.56866e-07 -2.29589e-06 0)
(6.41884e-07 -2.24642e-06 0)
(8.28906e-07 -2.18278e-06 0)
(1.01816e-06 -2.1067e-06 0)
(1.20973e-06 -2.02026e-06 0)
(1.40323e-06 -1.92541e-06 0)
(1.59868e-06 -1.82458e-06 0)
(1.79422e-06 -1.71975e-06 0)
(8.93191e-08 -2.38871e-06 0)
(2.68131e-07 -2.37267e-06 0)
(4.47857e-07 -2.34102e-06 0)
(6.28963e-07 -2.29468e-06 0)
(8.11787e-07 -2.23508e-06 0)
(9.96512e-07 -2.16375e-06 0)
(1.18319e-06 -2.08263e-06 0)
(1.37139e-06 -1.99352e-06 0)
(1.56124e-06 -1.89856e-06 0)
(1.75091e-06 -1.79981e-06 0)
(8.75904e-08 -2.4311e-06 0)
(2.62889e-07 -2.41603e-06 0)
(4.39014e-07 -2.38633e-06 0)
(6.1636e-07 -2.34284e-06 0)
(7.95192e-07 -2.28688e-06 0)
(9.75703e-07 -2.21983e-06 0)
(1.15789e-06 -2.14351e-06 0)
(1.34131e-06 -2.05963e-06 0)
(1.52617e-06 -1.97005e-06 0)
(1.71071e-06 -1.87684e-06 0)
(8.58322e-08 -2.47395e-06 0)
(2.5766e-07 -2.45974e-06 0)
(4.30221e-07 -2.43183e-06 0)
(6.03896e-07 -2.39091e-06 0)
(7.78885e-07 -2.33824e-06 0)
(9.55396e-07 -2.27508e-06 0)
(1.1334e-06 -2.20312e-06 0)
(1.31248e-06 -2.12398e-06 0)
(1.49282e-06 -2.03931e-06 0)
(1.6728e-06 -1.95114e-06 0)
(8.40621e-08 -2.51714e-06 0)
(2.5241e-07 -2.50371e-06 0)
(4.21389e-07 -2.47743e-06 0)
(5.91418e-07 -2.43885e-06 0)
(7.62665e-07 -2.38916e-06 0)
(9.35314e-07 -2.32954e-06 0)
(1.10937e-06 -2.26156e-06 0)
(1.2844e-06 -2.18674e-06 0)
(1.4606e-06 -2.10653e-06 0)
(1.63651e-06 -2.02293e-06 0)
(8.22768e-08 -2.56056e-06 0)
(2.47061e-07 -2.54789e-06 0)
(4.12402e-07 -2.52308e-06 0)
(5.78759e-07 -2.48664e-06 0)
(7.46307e-07 -2.43967e-06 0)
(9.1518e-07 -2.38329e-06 0)
(1.08543e-06 -2.31893e-06 0)
(1.25665e-06 -2.24803e-06 0)
(1.429e-06 -2.17191e-06 0)
(1.60122e-06 -2.09248e-06 0)
(8.04365e-08 -2.60413e-06 0)
(2.41512e-07 -2.59214e-06 0)
(4.0313e-07 -2.56868e-06 0)
(5.6575e-07 -2.5342e-06 0)
(7.29576e-07 -2.48973e-06 0)
(8.9471e-07 -2.43632e-06 0)
(1.06124e-06 -2.37529e-06 0)
(1.22879e-06 -2.30798e-06 0)
(1.39752e-06 -2.23562e-06 0)
(1.56634e-06 -2.15999e-06 0)
(7.84948e-08 -2.64774e-06 0)
(2.35678e-07 -2.63639e-06 0)
(3.93445e-07 -2.61416e-06 0)
(5.52217e-07 -2.5815e-06 0)
(7.12235e-07 -2.53934e-06 0)
(8.73599e-07 -2.48868e-06 0)
(1.03642e-06 -2.4307e-06 0)
(1.2004e-06 -2.36668e-06 0)
(1.36565e-06 -2.2978e-06 0)
(1.53124e-06 -2.22565e-06 0)
(7.64288e-08 -2.69119e-06 0)
(2.29507e-07 -2.68044e-06 0)
(3.83236e-07 -2.65936e-06 0)
(5.37985e-07 -2.6284e-06 0)
(6.94043e-07 -2.58838e-06 0)
(8.51543e-07 -2.54025e-06 0)
(1.01062e-06 -2.48511e-06 0)
(1.17106e-06 -2.42418e-06 0)
(1.3329e-06 -2.35851e-06 0)
(1.49537e-06 -2.28955e-06 0)
(7.42276e-08 -2.73442e-06 0)
(2.22937e-07 -2.72424e-06 0)
(3.72356e-07 -2.70425e-06 0)
(5.22837e-07 -2.67487e-06 0)
(6.74729e-07 -2.63687e-06 0)
(8.28204e-07 -2.59113e-06 0)
(9.83433e-07 -2.53866e-06 0)
(1.14025e-06 -2.48063e-06 0)
(1.29866e-06 -2.41794e-06 0)
(1.45804e-06 -2.35197e-06 0)
(7.18683e-08 -2.77702e-06 0)
(2.15874e-07 -2.76738e-06 0)
(3.60639e-07 -2.74842e-06 0)
(5.06549e-07 -2.72055e-06 0)
(6.54003e-07 -2.68447e-06 0)
(8.0323e-07 -2.64099e-06 0)
(9.54419e-07 -2.59108e-06 0)
(1.10744e-06 -2.53579e-06 0)
(1.26232e-06 -2.47593e-06 0)
(1.41858e-06 -2.41278e-06 0)
(6.92985e-08 -2.81917e-06 0)
(2.08161e-07 -2.81006e-06 0)
(3.47842e-07 -2.7921e-06 0)
(4.88791e-07 -2.76569e-06 0)
(6.31444e-07 -2.73146e-06 0)
(7.76098e-07 -2.69018e-06 0)
(9.22961e-07 -2.64274e-06 0)
(1.07197e-06 -2.59005e-06 0)
(1.22313e-06 -2.53295e-06 0)
(1.37618e-06 -2.47249e-06 0)
(6.64872e-08 -2.85978e-06 0)
(1.99732e-07 -2.85117e-06 0)
(3.3386e-07 -2.8342e-06 0)
(4.69407e-07 -2.80923e-06 0)
(6.06865e-07 -2.77684e-06 0)
(7.46568e-07 -2.73775e-06 0)
(8.88741e-07 -2.69274e-06 0)
(1.03344e-06 -2.64266e-06 0)
(1.18068e-06 -2.58829e-06 0)
(1.33039e-06 -2.53054e-06 0)
)


// ************************************************************************* //
