/*--------------------------------*- C++ -*----------------------------------*\
| =========                 |                                                 |
| \\      /  F ield         | foam-extend: Open Source CFD                    |
|  \\    /   O peration     | Version:     4.1                                |
|   \\  /    A nd           | Web:         http://www.foam-extend.org         |
|    \\/     M anipulation  |                                                 |
\*---------------------------------------------------------------------------*/
FoamFile
{
    version     2.0;
    format      ascii;
    class       volScalarField;
    location    "7";
    object      epsilonEq;
}
// * * * * * * * * * * * * * * * * * * * * * * * * * * * * * * * * * * * * * //

dimensions      [0 0 0 0 0 0 0];

internalField   nonuniform List<scalar> 
1000
(
3.22599e-06
3.67838e-06
4.04035e-06
4.31449e-06
4.44188e-06
4.49165e-06
4.48414e-06
4.4422e-06
4.3858e-06
4.30673e-06
4.03813e-06
4.10352e-06
4.26171e-06
4.43208e-06
4.50368e-06
4.52292e-06
4.49683e-06
4.44636e-06
4.37638e-06
4.30477e-06
4.82956e-06
4.52562e-06
4.45918e-06
4.50506e-06
4.50733e-06
4.48759e-06
4.43837e-06
4.37517e-06
4.29535e-06
4.22114e-06
5.57595e-06
4.9297e-06
4.63237e-06
4.53998e-06
4.46226e-06
4.39692e-06
4.32108e-06
4.244e-06
4.1557e-06
4.08079e-06
6.25639e-06
5.30209e-06
4.78054e-06
4.54393e-06
4.37907e-06
4.26283e-06
4.15779e-06
4.06559e-06
3.97073e-06
3.89494e-06
6.85272e-06
5.63109e-06
4.90373e-06
4.52596e-06
4.27172e-06
4.10162e-06
3.96549e-06
3.85706e-06
3.7562e-06
3.67889e-06
7.34929e-06
5.9066e-06
5.00186e-06
4.49548e-06
4.15584e-06
3.93239e-06
3.7649e-06
3.63964e-06
3.53315e-06
3.45324e-06
7.73327e-06
6.12062e-06
5.07538e-06
4.46235e-06
4.04862e-06
3.77705e-06
3.58054e-06
3.43916e-06
3.32741e-06
3.24413e-06
7.99474e-06
6.26677e-06
5.12415e-06
4.43466e-06
3.9658e-06
3.65718e-06
3.43771e-06
3.28316e-06
3.16709e-06
3.08055e-06
8.12582e-06
6.33927e-06
5.14622e-06
4.41639e-06
3.91774e-06
3.58866e-06
3.35626e-06
3.19416e-06
3.07558e-06
2.98712e-06
2.96347e-06
1.96322e-06
1.40589e-06
1.17433e-06
1.0909e-06
1.10693e-06
1.1667e-06
1.25299e-06
1.34609e-06
1.44061e-06
2.83905e-06
1.95601e-06
1.53385e-06
1.41171e-06
1.38891e-06
1.42303e-06
1.4761e-06
1.54368e-06
1.61153e-06
1.68681e-06
2.58915e-06
1.94591e-06
1.75217e-06
1.77639e-06
1.82315e-06
1.87888e-06
1.92714e-06
1.97609e-06
2.0157e-06
2.06873e-06
2.22942e-06
1.95316e-06
2.02714e-06
2.18875e-06
2.29507e-06
2.37017e-06
2.41596e-06
2.45041e-06
2.46641e-06
2.49998e-06
1.78501e-06
2.00088e-06
2.33044e-06
2.60412e-06
2.75695e-06
2.84724e-06
2.89107e-06
2.91363e-06
2.91042e-06
2.92709e-06
1.31311e-06
2.1108e-06
2.64265e-06
2.99794e-06
3.18368e-06
3.28397e-06
3.32507e-06
3.33695e-06
3.31794e-06
3.31919e-06
9.81616e-07
2.29672e-06
2.952e-06
3.35644e-06
3.56099e-06
3.66542e-06
3.70228e-06
3.70407e-06
3.67208e-06
3.65884e-06
1.11571e-06
2.55927e-06
3.25052e-06
3.67066e-06
3.87915e-06
3.981e-06
4.01161e-06
4.00321e-06
3.96157e-06
3.93379e-06
1.68269e-06
2.88838e-06
3.53352e-06
3.93626e-06
4.13344e-06
4.22591e-06
4.24768e-06
4.22981e-06
4.18108e-06
4.14193e-06
2.42438e-06
3.26747e-06
3.79735e-06
4.15033e-06
4.32004e-06
4.39441e-06
4.40301e-06
4.37219e-06
4.32081e-06
4.25952e-06
1.5374e-06
1.61799e-06
1.69415e-06
1.76343e-06
1.82441e-06
1.87798e-06
1.92347e-06
1.96126e-06
1.99121e-06
2.01335e-06
2.0275e-06
2.03354e-06
2.03095e-06
2.01956e-06
1.99812e-06
1.96702e-06
1.92299e-06
1.86944e-06
1.79628e-06
1.72037e-06
1.7485e-06
1.78962e-06
1.83661e-06
1.88145e-06
1.92275e-06
1.96024e-06
1.99262e-06
2.01962e-06
2.04066e-06
2.05541e-06
2.06341e-06
2.06429e-06
2.05739e-06
2.04239e-06
2.01797e-06
1.98441e-06
1.93845e-06
1.88343e-06
1.80945e-06
1.73325e-06
2.08485e-06
2.07173e-06
2.07577e-06
2.0834e-06
2.09347e-06
2.10478e-06
2.11526e-06
2.12391e-06
2.12961e-06
2.13146e-06
2.12864e-06
2.12042e-06
2.10588e-06
2.08448e-06
2.05477e-06
2.01689e-06
1.9676e-06
1.91013e-06
1.83493e-06
1.75842e-06
2.47439e-06
2.40956e-06
2.36933e-06
2.3373e-06
2.31239e-06
2.29333e-06
2.27762e-06
2.26371e-06
2.25013e-06
2.23546e-06
2.21856e-06
2.19833e-06
2.1736e-06
2.14361e-06
2.10676e-06
2.06306e-06
2.00932e-06
1.94862e-06
1.87197e-06
1.79531e-06
2.86719e-06
2.76029e-06
2.68056e-06
2.61232e-06
2.55401e-06
2.50482e-06
2.46238e-06
2.42477e-06
2.3905e-06
2.35774e-06
2.3252e-06
2.29145e-06
2.25516e-06
2.21534e-06
2.17032e-06
2.11996e-06
2.0612e-06
1.99698e-06
1.91905e-06
1.84275e-06
3.23259e-06
3.09581e-06
2.98426e-06
2.88612e-06
2.79926e-06
2.72306e-06
2.6561e-06
2.59598e-06
2.54159e-06
2.49082e-06
2.44237e-06
2.39465e-06
2.34626e-06
2.29605e-06
2.24237e-06
2.18496e-06
2.121e-06
2.05329e-06
1.97454e-06
1.89944e-06
3.55293e-06
3.39861e-06
3.26418e-06
3.14241e-06
3.03285e-06
2.93352e-06
2.84521e-06
2.76488e-06
2.69209e-06
2.6246e-06
2.5612e-06
2.50024e-06
2.44027e-06
2.38011e-06
2.31813e-06
2.25407e-06
2.18538e-06
2.11479e-06
2.0361e-06
1.96321e-06
3.8157e-06
3.65589e-06
3.51131e-06
3.37343e-06
3.24894e-06
3.13219e-06
3.02697e-06
2.92981e-06
2.84092e-06
2.75834e-06
2.68102e-06
2.60747e-06
2.53633e-06
2.46648e-06
2.39642e-06
2.32592e-06
2.25284e-06
2.17983e-06
2.10197e-06
2.03244e-06
4.02003e-06
3.85809e-06
3.7154e-06
3.56664e-06
3.4321e-06
3.30256e-06
3.18402e-06
3.07374e-06
2.97204e-06
2.87743e-06
2.78888e-06
2.70512e-06
2.62486e-06
2.54712e-06
2.47056e-06
2.39507e-06
2.31898e-06
2.24493e-06
2.16932e-06
2.10426e-06
4.15881e-06
4.0056e-06
3.87924e-06
3.73435e-06
3.59694e-06
3.46173e-06
3.33367e-06
3.2128e-06
3.09965e-06
2.99376e-06
2.8944e-06
2.80064e-06
2.71141e-06
2.62587e-06
2.54293e-06
2.46257e-06
2.38369e-06
2.30894e-06
2.23617e-06
2.17666e-06
4.2126e-06
4.05681e-06
3.93653e-06
3.80341e-06
3.67106e-06
3.54042e-06
3.41406e-06
3.29298e-06
3.17793e-06
3.06892e-06
2.9657e-06
2.86777e-06
2.77448e-06
2.68533e-06
2.59965e-06
2.51772e-06
2.43902e-06
2.36625e-06
2.29853e-06
2.24569e-06
4.10552e-06
4.01286e-06
3.9048e-06
3.79007e-06
3.67088e-06
3.55113e-06
3.43302e-06
3.31805e-06
3.20721e-06
3.10093e-06
2.99934e-06
2.90232e-06
2.80961e-06
2.7211e-06
2.63653e-06
2.5565e-06
2.48104e-06
2.41294e-06
2.35241e-06
2.3082e-06
4.01747e-06
3.94112e-06
3.85461e-06
3.75617e-06
3.65151e-06
3.54348e-06
3.43492e-06
3.32745e-06
3.2224e-06
3.12049e-06
3.0222e-06
2.92772e-06
2.83717e-06
2.75075e-06
2.66859e-06
2.59156e-06
2.5202e-06
2.45734e-06
2.40404e-06
2.36775e-06
3.91747e-06
3.85895e-06
3.78862e-06
3.70443e-06
3.61321e-06
3.51667e-06
3.41811e-06
3.31901e-06
3.22096e-06
3.12485e-06
3.03139e-06
2.94108e-06
2.8543e-06
2.77152e-06
2.69324e-06
2.62052e-06
2.55435e-06
2.49747e-06
2.45166e-06
2.42306e-06
3.80938e-06
3.76534e-06
3.71002e-06
3.6396e-06
3.56161e-06
3.47672e-06
3.38856e-06
3.29847e-06
3.20825e-06
3.11889e-06
3.03134e-06
2.94628e-06
2.86435e-06
2.78625e-06
2.71274e-06
2.64507e-06
2.58453e-06
2.53379e-06
2.49511e-06
2.47349e-06
3.69822e-06
3.66664e-06
3.62396e-06
3.5657e-06
3.49967e-06
3.42584e-06
3.34791e-06
3.26705e-06
3.18515e-06
3.10324e-06
3.02243e-06
2.94354e-06
2.86739e-06
2.79485e-06
2.7269e-06
2.66491e-06
2.6104e-06
2.56587e-06
2.53395e-06
2.51855e-06
3.58662e-06
3.56534e-06
3.53345e-06
3.48616e-06
3.4311e-06
3.36775e-06
3.29974e-06
3.22809e-06
3.1547e-06
3.08063e-06
3.00705e-06
2.93489e-06
2.86511e-06
2.79869e-06
2.73677e-06
2.68076e-06
2.63235e-06
2.59385e-06
2.56809e-06
2.55803e-06
3.47688e-06
3.46399e-06
3.44113e-06
3.40346e-06
3.35818e-06
3.30453e-06
3.24595e-06
3.18329e-06
3.11841e-06
3.05235e-06
2.98631e-06
2.92127e-06
2.85826e-06
2.79835e-06
2.74273e-06
2.69287e-06
2.6505e-06
2.61774e-06
2.59748e-06
2.59186e-06
3.37042e-06
3.3642e-06
3.34884e-06
3.31958e-06
3.28306e-06
3.23836e-06
3.18866e-06
3.13468e-06
3.07817e-06
3.02013e-06
2.96174e-06
2.904e-06
2.84795e-06
2.7947e-06
2.7455e-06
2.70174e-06
2.66521e-06
2.63776e-06
2.62228e-06
2.6202e-06
3.26803e-06
3.26705e-06
3.25791e-06
3.23595e-06
3.20723e-06
3.17074e-06
3.12935e-06
3.08366e-06
3.03529e-06
2.98516e-06
2.9344e-06
2.88398e-06
2.83496e-06
2.7884e-06
2.74555e-06
2.70776e-06
2.67674e-06
2.65413e-06
2.64271e-06
2.64333e-06
3.17003e-06
3.17322e-06
3.16922e-06
3.15366e-06
3.13192e-06
3.10298e-06
3.06936e-06
3.03156e-06
2.99103e-06
2.9486e-06
2.90535e-06
2.86216e-06
2.82007e-06
2.78009e-06
2.74343e-06
2.71135e-06
2.68545e-06
2.66717e-06
2.65909e-06
2.66164e-06
3.07644e-06
3.08301e-06
3.08339e-06
3.07351e-06
3.05809e-06
3.03612e-06
3.00977e-06
2.97945e-06
2.94642e-06
2.91144e-06
2.87545e-06
2.83931e-06
2.80396e-06
2.77036e-06
2.73963e-06
2.71291e-06
2.69171e-06
2.67722e-06
2.67183e-06
2.6756e-06
2.98709e-06
2.99668e-06
3.00082e-06
2.99608e-06
2.98649e-06
2.97102e-06
2.95151e-06
2.92828e-06
2.9024e-06
2.87453e-06
2.84554e-06
2.81616e-06
2.78727e-06
2.75974e-06
2.7346e-06
2.71286e-06
2.69588e-06
2.68468e-06
2.68134e-06
2.68575e-06
2.90179e-06
2.91404e-06
2.92183e-06
2.92201e-06
2.91791e-06
2.90857e-06
2.89551e-06
2.87897e-06
2.85986e-06
2.83874e-06
2.81636e-06
2.79338e-06
2.77059e-06
2.74875e-06
2.72879e-06
2.7116e-06
2.69837e-06
2.68993e-06
2.68812e-06
2.69265e-06
2.82024e-06
2.83579e-06
2.8468e-06
2.85166e-06
2.85297e-06
2.84951e-06
2.84258e-06
2.83237e-06
2.81962e-06
2.80482e-06
2.78861e-06
2.77159e-06
2.75444e-06
2.73784e-06
2.72259e-06
2.70948e-06
2.69952e-06
2.69338e-06
2.69259e-06
2.69685e-06
2.74294e-06
2.76056e-06
2.77601e-06
2.78643e-06
2.79283e-06
2.79505e-06
2.79388e-06
2.78957e-06
2.78269e-06
2.77369e-06
2.7631e-06
2.75146e-06
2.73938e-06
2.72746e-06
2.71641e-06
2.70686e-06
2.69969e-06
2.69541e-06
2.69525e-06
2.6989e-06
2.6684e-06
2.69807e-06
2.71088e-06
2.7274e-06
2.73833e-06
2.74617e-06
2.75034e-06
2.75151e-06
2.74994e-06
2.7461e-06
2.74045e-06
2.7335e-06
2.7258e-06
2.71791e-06
2.71043e-06
2.70393e-06
2.69908e-06
2.69629e-06
2.69645e-06
2.6993e-06
2.60026e-06
2.62786e-06
2.65367e-06
2.67416e-06
2.69115e-06
2.70422e-06
2.71366e-06
2.71971e-06
2.72277e-06
2.72325e-06
2.72164e-06
2.71846e-06
2.71425e-06
2.70956e-06
2.70493e-06
2.70086e-06
2.69789e-06
2.69629e-06
2.69663e-06
2.69864e-06
2.53746e-06
2.57231e-06
2.60319e-06
2.62983e-06
2.65268e-06
2.671e-06
2.68518e-06
2.69543e-06
2.70219e-06
2.70591e-06
2.70717e-06
2.70656e-06
2.70469e-06
2.70216e-06
2.69953e-06
2.69726e-06
2.69581e-06
2.69527e-06
2.69592e-06
2.69728e-06
2.48562e-06
2.52791e-06
2.56609e-06
2.59912e-06
2.62724e-06
2.65012e-06
2.66805e-06
2.68128e-06
2.69035e-06
2.69583e-06
2.69841e-06
2.69882e-06
2.69782e-06
2.69611e-06
2.69438e-06
2.69311e-06
2.69274e-06
2.69325e-06
2.69467e-06
2.69605e-06
2.9236e-06
3.01058e-06
3.16301e-06
3.35907e-06
3.5723e-06
3.7785e-06
3.95829e-06
4.09801e-06
4.19306e-06
4.22953e-06
2.87053e-06
2.94688e-06
3.08203e-06
3.25888e-06
3.45587e-06
3.65244e-06
3.8312e-06
3.97606e-06
4.08178e-06
4.13188e-06
2.82752e-06
2.89433e-06
3.01304e-06
3.16981e-06
3.34677e-06
3.52659e-06
3.69591e-06
3.84092e-06
3.96091e-06
4.03913e-06
2.79194e-06
2.85011e-06
2.95408e-06
3.09284e-06
3.25166e-06
3.41545e-06
3.57268e-06
3.71029e-06
3.82798e-06
3.92228e-06
2.76015e-06
2.81067e-06
2.90135e-06
3.02345e-06
3.16495e-06
3.31322e-06
3.45869e-06
3.59039e-06
3.70421e-06
3.804e-06
2.73135e-06
2.77519e-06
2.85418e-06
2.96133e-06
3.08667e-06
3.21958e-06
3.35151e-06
3.47448e-06
3.58148e-06
3.68283e-06
2.70366e-06
2.7417e-06
2.81049e-06
2.90446e-06
3.01532e-06
3.13437e-06
3.25363e-06
3.36769e-06
3.46659e-06
3.56412e-06
2.6763e-06
2.70932e-06
2.76919e-06
2.85148e-06
2.94916e-06
3.05522e-06
3.16212e-06
3.26677e-06
3.35765e-06
3.44944e-06
2.64825e-06
2.67696e-06
2.72914e-06
2.80127e-06
2.88737e-06
2.98177e-06
3.07736e-06
3.17258e-06
3.25543e-06
3.34004e-06
2.61879e-06
2.64378e-06
2.68932e-06
2.75259e-06
2.82842e-06
2.9123e-06
2.99757e-06
3.08373e-06
3.15907e-06
3.23622e-06
2.58713e-06
2.60897e-06
2.64884e-06
2.70447e-06
2.77141e-06
2.84598e-06
2.92207e-06
2.99969e-06
3.06803e-06
3.13786e-06
2.55261e-06
2.57176e-06
2.6068e-06
2.6559e-06
2.71516e-06
2.78157e-06
2.84962e-06
2.9195e-06
2.98153e-06
3.04456e-06
2.51435e-06
2.53124e-06
2.56225e-06
2.60584e-06
2.65863e-06
2.71806e-06
2.77922e-06
2.84226e-06
2.89877e-06
2.95572e-06
2.47169e-06
2.48671e-06
2.5144e-06
2.55345e-06
2.60089e-06
2.6545e-06
2.70996e-06
2.76723e-06
2.81911e-06
2.87091e-06
2.42327e-06
2.4368e-06
2.46188e-06
2.49734e-06
2.54058e-06
2.5896e-06
2.6406e-06
2.6933e-06
2.74164e-06
2.7893e-06
2.36868e-06
2.38109e-06
2.40423e-06
2.43704e-06
2.47722e-06
2.52292e-06
2.57079e-06
2.6203e-06
2.66639e-06
2.71142e-06
2.30515e-06
2.31681e-06
2.33876e-06
2.36998e-06
2.4084e-06
2.45226e-06
2.49856e-06
2.54663e-06
2.59184e-06
2.63662e-06
2.23382e-06
2.24515e-06
2.26667e-06
2.29737e-06
2.33536e-06
2.37889e-06
2.42526e-06
2.47336e-06
2.51961e-06
2.56437e-06
2.14716e-06
2.15871e-06
2.18086e-06
2.21258e-06
2.25206e-06
2.29754e-06
2.34649e-06
2.39739e-06
2.44738e-06
2.49546e-06
2.0541e-06
2.06643e-06
2.0902e-06
2.12435e-06
2.1671e-06
2.21664e-06
2.27041e-06
2.3267e-06
2.38264e-06
2.43677e-06
)
;

boundaryField
{
    left
    {
        type            symmetryPlane;
        value           nonuniform List<scalar> 
30
(
2.92158e-06
2.86875e-06
2.82596e-06
2.79057e-06
2.75897e-06
2.73033e-06
2.70279e-06
2.67555e-06
2.6476e-06
2.61822e-06
2.58665e-06
2.5522e-06
2.51401e-06
2.4714e-06
2.42304e-06
2.36851e-06
2.30502e-06
2.23374e-06
2.14712e-06
2.0541e-06
8.10834e-06
6.33354e-06
5.14492e-06
4.41633e-06
3.91758e-06
3.58797e-06
3.35503e-06
3.19252e-06
3.07369e-06
2.98502e-06
)
;
    }
    right
    {
        type            calculated;
        value           nonuniform List<scalar> 
30
(
1.71558e-06
1.72841e-06
1.75355e-06
1.79043e-06
1.83787e-06
1.89465e-06
1.95852e-06
2.02803e-06
2.09999e-06
2.17303e-06
2.24224e-06
2.30542e-06
2.3655e-06
2.42131e-06
2.4722e-06
2.51764e-06
2.55745e-06
2.59155e-06
2.6201e-06
2.64338e-06
2.6618e-06
2.67583e-06
2.68601e-06
2.69291e-06
2.69708e-06
2.69911e-06
2.69945e-06
2.69876e-06
2.69735e-06
2.69622e-06
)
;
    }
    down
    {
        type            symmetryPlane;
        value           nonuniform List<scalar> 
30
(
2.96016e-06
1.96222e-06
1.39609e-06
1.15336e-06
1.06264e-06
1.07699e-06
1.13848e-06
1.22796e-06
1.32465e-06
1.4218e-06
1.52238e-06
1.6066e-06
1.68523e-06
1.75642e-06
1.81886e-06
1.87354e-06
1.91989e-06
1.95836e-06
1.98883e-06
2.0114e-06
2.02591e-06
2.03224e-06
2.0299e-06
2.01872e-06
1.99747e-06
1.96654e-06
1.92266e-06
1.86925e-06
1.79619e-06
1.72037e-06
)
;
    }
    up
    {
        type            calculated;
        value           nonuniform List<scalar> 
30
(
2.05117e-06
2.06348e-06
2.08727e-06
2.12144e-06
2.16422e-06
2.21385e-06
2.26772e-06
2.32418e-06
2.38023e-06
2.4347e-06
2.48375e-06
2.52637e-06
2.56478e-06
2.59803e-06
2.62636e-06
2.64941e-06
2.66748e-06
2.68083e-06
2.68998e-06
2.69552e-06
2.69815e-06
2.69859e-06
2.69762e-06
2.69594e-06
2.69424e-06
2.693e-06
2.69267e-06
2.6932e-06
2.69464e-06
2.69592e-06
)
;
    }
    hole
    {
        type            calculated;
        value           nonuniform List<scalar> 
20
(
3.12714e-06
4.01308e-06
4.86568e-06
5.66427e-06
6.38939e-06
7.02327e-06
7.55027e-06
7.95733e-06
8.23428e-06
8.37352e-06
3.06266e-06
2.92236e-06
2.64124e-06
2.22813e-06
1.69409e-06
1.05274e-06
3.20537e-07
4.84094e-07
1.34107e-06
2.22932e-06
)
;
    }
    frontAndBack
    {
        type            empty;
    }
}


// ************************************************************************* //
