/*--------------------------------*- C++ -*----------------------------------*\
| =========                 |                                                 |
| \\      /  F ield         | foam-extend: Open Source CFD                    |
|  \\    /   O peration     | Version:     4.1                                |
|   \\  /    A nd           | Web:         http://www.foam-extend.org         |
|    \\/     M anipulation  |                                                 |
\*---------------------------------------------------------------------------*/
FoamFile
{
    version     2.0;
    format      ascii;
    class       volSymmTensorField;
    location    "7";
    object      sigma;
}
// * * * * * * * * * * * * * * * * * * * * * * * * * * * * * * * * * * * * * //

dimensions      [1 -1 -2 0 0 0 0];

internalField   nonuniform List<symmTensor> 
1000
(
(615913 -379292 -1.8807e-10 266682 -3.57078e-10 264779)
(801854 -294475 1.06327e-09 43032.7 2.30032e-10 253466)
(892741 -233733 -1.1558e-09 -57743.2 -8.24475e-10 250499)
(942511 -190888 -4.43126e-10 -125383 -1.01948e-10 245138)
(966652 -158286 -7.43793e-11 -158477 1.98473e-11 242452)
(974965 -133804 4.66572e-10 -176973 2.97505e-10 239398)
(974971 -114352 -8.35203e-10 -183492 -4.69228e-10 237444)
(968751 -99236.1 1.83032e-10 -184044 1.09813e-10 235412)
(961569 -86482.6 -3.34357e-10 -180064 -1.96601e-10 234451)
(947842 -75552.9 -4.12738e-10 -175717 -2.599e-10 231638)
(821169 -455803 5.27953e-10 313007 -3.09181e-10 340253)
(955389 -313515 -1.06768e-09 92899.8 -2.82609e-10 314487)
(1.01415e+06 -221421 -9.87175e-10 -5276.3 -2.64636e-10 302662)
(1.03896e+06 -160660 -7.69288e-10 -75505.9 -5.29772e-10 289037)
(1.0455e+06 -118221 -1.68275e-10 -111109 -1.49997e-10 280318)
(1.03999e+06 -88847.1 6.69085e-10 -133531 3.9338e-10 271938)
(1.02936e+06 -67356.4 -7.82718e-10 -143613 -5.34834e-10 265723)
(1.01475e+06 -52198.2 3.17439e-10 -148381 2.68607e-10 259910)
(999618 -40292.5 -5.91229e-10 -146980 -4.58497e-10 255791)
(981070 -31799.3 -2.18626e-10 -147980 -2.44477e-10 249927)
(1.04464e+06 -511572 6.51972e-10 331659 3.97967e-11 412889)
(1.11122e+06 -321934 -8.33881e-10 132861 -3.6378e-10 373223)
(1.1292e+06 -204416 7.64537e-10 47090.9 3.44518e-10 352888)
(1.1243e+06 -129358 -6.90079e-10 -19870.7 -3.3157e-10 331328)
(1.1107e+06 -79337.1 -1.68558e-10 -54583.7 -1.27475e-10 316835)
(1.09013e+06 -46427 -6.43635e-10 -78971.3 -3.7652e-10 303348)
(1.0685e+06 -23745.3 1.18556e-15 -91502.1 -3.2061e-15 293098)
(1.04522e+06 -8825.52 -2.21541e-12 -99872.2 2.93949e-12 283603)
(1.02326e+06 1954.11 -4.55508e-11 -101332 -2.16098e-10 276579)
(998840 9796.64 7.07064e-11 -106762 -5.3608e-11 267623)
(1.277e+06 -539978 2.25304e-09 326055 -4.48814e-10 480917)
(1.26431e+06 -317903 4.7888e-10 163095 3.57018e-10 428221)
(1.23531e+06 -183517 3.59684e-10 97671.7 3.33287e-10 399895)
(1.1975e+06 -99269.7 2.08845e-10 38797.6 1.4543e-10 370890)
(1.16218e+06 -44721.9 1.50881e-09 7680.8 9.03138e-10 350958)
(1.12604e+06 -9972.18 -1.13521e-11 -17094.1 -2.60834e-11 332685)
(1.09334e+06 12951.8 -5.40441e-12 -31379 2.54438e-11 318588)
(1.06197e+06 27330.7 -1.43034e-11 -42814.7 2.53558e-11 305746)
(1.03369e+06 36834.2 3.28574e-10 -47497.5 1.63069e-10 295857)
(1.00504e+06 43789.5 -3.08936e-11 -56461.7 -6.59938e-11 284574)
(1.50728e+06 -536505 -1.7005e-09 301676 4.36194e-11 542686)
(1.40926e+06 -300347 7.71834e-10 184588 3.14332e-10 478153)
(1.33026e+06 -159515 6.34537e-10 144977 3.09519e-10 442570)
(1.25834e+06 -72264.2 6.60316e-10 97688.9 3.41435e-10 406810)
(1.20094e+06 -16836.9 -3.96734e-10 72199 -2.10337e-10 381941)
(1.14946e+06 17706.6 5.66843e-10 48310.4 2.55842e-10 359331)
(1.10622e+06 39764.2 1.79176e-10 32922.4 1.08178e-10 341742)
(1.0674e+06 53129.5 -3.4957e-10 18857.3 -1.28867e-10 325876)
(1.03374e+06 61211.7 8.07821e-10 10834.3 3.12544e-10 313374)
(1.00159e+06 67209 7.53222e-11 -1284.09 -9.17096e-12 300093)
(1.72359e+06 -499231 -2.46694e-11 265336 -1.93458e-13 596679)
(1.54058e+06 -269082 -2.0138e-10 198727 -6.09904e-11 521792)
(1.41215e+06 -133141 9.96061e-10 187371 4.30159e-10 479857)
(1.30714e+06 -49575.6 2.61077e-10 153495 7.78918e-11 438189)
(1.22859e+06 2826.9 -3.70744e-10 134732 -1.46106e-10 408997)
(1.16277e+06 34996.8 -9.4148e-10 112570 -4.59833e-10 382600)
(1.1099e+06 55040.8 7.7555e-12 96576.8 -1.29131e-10 361943)
(1.06452e+06 66881.8 -4.99185e-11 80368.7 1.62213e-10 343466)
(1.02632e+06 73447.3 2.56756e-10 69110.5 1.97158e-10 328629)
(991430 78408.8 6.59001e-10 54367 2.70295e-10 313739)
(1.91408e+06 -429085 6.41737e-10 224463 -8.34036e-11 641563)
(1.65301e+06 -224904 -3.49697e-10 207196 4.96002e-11 558061)
(1.47942e+06 -105066 2.93371e-10 223370 2.17367e-10 510838)
(1.34456e+06 -31783.9 9.07666e-11 202971 -6.3886e-11 464258)
(1.24715e+06 13763.9 5.26833e-10 191084 9.88109e-11 431469)
(1.16873e+06 41436.7 -2.01981e-11 171025 -8.53178e-11 401926)
(1.10759e+06 58369.4 1.57114e-10 154778 2.54708e-10 378710)
(1.05669e+06 68195.2 5.47197e-10 136885 4.3375e-10 358071)
(1.01484e+06 73231 -2.61766e-10 122702 -1.30877e-10 341263)
(977810 77138 7.52751e-11 105857 -1.39321e-10 325100)
(2.06784e+06 -329807 0 186263 0 676230)
(1.7419e+06 -169518 1.68971e-09 211697 5.11857e-10 586079)
(1.53094e+06 -75825.8 -1.78233e-09 251643 -4.88301e-10 534776)
(1.37158e+06 -18724 -6.75937e-11 243104 -1.1164e-10 484405)
(1.2588e+06 16557.5 -1.69803e-10 237327 1.7712e-11 448837)
(1.17024e+06 37845.7 8.82207e-10 219312 3.30382e-10 416867)
(1.10254e+06 50706.1 3.10307e-10 203024 1.19464e-10 391668)
(1.04732e+06 58080.1 -4.27927e-10 183898 -7.96299e-11 369367)
(1.00273e+06 61621.6 1.81162e-11 167301 -7.63102e-11 351011)
(964131 64447.1 -2.04598e-10 148895 -1.67631e-10 333908)
(2.17574e+06 -207714 1.15502e-09 156917 1.17536e-10 699796)
(1.80336e+06 -105506 -9.49043e-11 213685 -1.90176e-10 605113)
(1.56569e+06 -45873.3 -5.93312e-10 271066 -1.18509e-10 551027)
(1.38892e+06 -9589.89 4.94914e-10 271318 1.57311e-10 498072)
(1.26527e+06 12749.8 -1.98915e-10 270096 -4.55707e-11 460610)
(1.16961e+06 26175.4 -5.07972e-10 253680 -7.29279e-11 426986)
(1.09734e+06 34221.5 3.27587e-13 237438 -1.20178e-10 400434)
(1.03917e+06 38802.4 -5.98709e-12 217505 7.18684e-11 377003)
(992754 40907 -5.42075e-12 199182 3.92213e-11 357581)
(953114 42624.5 -2.08279e-10 179733 -1.31738e-10 339854)
(2.23125e+06 -70983.9 -9.71305e-10 141248 1.72883e-10 711748)
(1.83486e+06 -35896 -7.88391e-10 214916 -2.64923e-10 614934)
(1.58336e+06 -15410.1 6.0319e-10 281819 1.9338e-10 559553)
(1.39757e+06 -2943.69 -9.42421e-10 286912 -1.21981e-10 505345)
(1.2683e+06 4724.38 3.80349e-10 288223 -1.18313e-10 466956)
(1.16896e+06 9327.59 -1.66661e-10 272724 2.54331e-11 432507)
(1.09436e+06 12077.8 -3.28072e-14 256544 1.22202e-10 405270)
(1.03468e+06 13640.2 -1.34419e-10 236198 7.2627e-11 381262)
(987340 14344.3 -4.71437e-10 216962 -1.97608e-10 361291)
(947190 14925.8 2.33526e-10 196942 1.73485e-11 343240)
(-56581.6 18644.4 -1.33616e-10 -819015 6.04846e-10 -262679)
(-34721.5 -8335.18 1.98677e-10 -540441 2.84426e-10 -172549)
(-8110.2 -22086.9 2.62256e-12 -369745 -1.2813e-10 -113357)
(50414.6 -29438.6 -1.05326e-11 -253327 9.08431e-11 -60873.6)
(105738 -32867.5 -1.19629e-10 -176946 -8.25841e-11 -21362.5)
(164609 -34072.2 1.58368e-10 -122207 6.53424e-11 12720.7)
(218112 -33982.9 2.21932e-11 -83663.7 2.65845e-11 40334.6)
(269053 -33202.6 -2.93297e-11 -54383.6 4.86423e-11 64400.9)
(314304 -31876.3 1.57735e-10 -32630.1 4.26344e-11 84502.2)
(356727 -30909.8 -1.4649e-11 -13769.2 -2.10822e-11 102887)
(-55279 51849.8 7.38759e-12 -779440 2.6436e-11 -250416)
(-19132.3 -26152.4 -3.49373e-10 -522412 -5.00145e-10 -162463)
(15051.9 -65693.4 2.66326e-10 -363521 2.62509e-10 -104541)
(76728.3 -86691.8 1.93353e-10 -254573 1.39955e-10 -53353.5)
(133190 -96398.6 -4.92366e-11 -182522 -6.41007e-11 -14799.5)
(191815 -99701.3 -5.27124e-10 -130406 -1.94623e-10 18422.6)
(244393 -99298.8 -8.70014e-12 -93325.9 -7.35951e-14 45320.3)
(294098 -96911 -8.89834e-11 -64836 -5.41333e-11 68778.7)
(337692 -92980.1 5.58215e-11 -43361.7 -2.71249e-12 88299.1)
(379021 -90091 1.38523e-10 -24548.1 -1.13693e-11 106342)
(-52116.5 74032.9 -1.08233e-10 -703014 -5.01009e-10 -226539)
(10335 -46380.3 -2.66397e-10 -487769 -2.34318e-10 -143230)
(57721.7 -107065 4.14706e-10 -351592 1.08598e-10 -88161.2)
(124900 -139036 8.96191e-11 -256948 1.00857e-10 -39614.5)
(183184 -153592 2.42832e-10 -193175 1.14032e-10 -2997.3)
(241189 -158278 -2.36578e-10 -146077 -1.18307e-10 28533.6)
(291943 -157294 -3.83435e-10 -111802 -1.10181e-10 54042.4)
(339291 -153248 -1.30625e-10 -84831.4 -2.95537e-11 76337.8)
(379757 -146915 6.59596e-12 -63916.1 -5.519e-13 94752.2)
(419076 -142170 1.88339e-10 -45225 8.42178e-11 112155)
(-42425.2 79593.4 -3.88819e-10 -595487 -5.5154e-12 -191374)
(55268.3 -69855 1.76114e-10 -438225 -2.41227e-10 -114887)
(120155 -144525 -1.05221e-09 -333505 -8.06407e-10 -64004.9)
(194345 -183449 -2.37727e-10 -258785 1.55933e-11 -19332)
(254714 -200692 -1.4432e-11 -206566 3.10027e-11 14444.6)
(311506 -205701 3.12303e-10 -166532 1.4053e-10 43492.1)
(359474 -203746 -8.62055e-11 -136253 -4.62717e-13 66966.3)
(403319 -197984 2.6165e-10 -111483 1.76069e-10 87550.8)
(439328 -189574 -4.64493e-10 -91461.1 -8.94168e-11 104360)
(475669 -183098 4.17898e-10 -72996.6 6.37028e-11 120802)
(-21247 64472.2 1.0507e-10 -465096 -3.81921e-10 -145903)
(116005 -97217.3 8.77775e-10 -376786 8.09079e-10 -78234.4)
(200261 -176870 -8.35983e-10 -309503 -5.60377e-10 -32772.8)
(281650 -217677 -3.90945e-10 -258684 -2.11687e-10 6889.57)
(343694 -234899 3.4481e-10 -220379 1.45597e-10 36994.8)
(398391 -238915 4.62512e-10 -188951 1.90054e-10 62832)
(442581 -235512 2.62983e-10 -163614 1.70512e-10 83690.2)
(481822 -227992 4.64403e-10 -141629 1.41585e-10 102058)
(512306 -217911 -1.02934e-10 -122857 -1.13616e-10 116835)
(544706 -209898 -6.33878e-10 -104769 -6.32675e-11 131981)
(17099.8 27038 -1.02712e-11 -321383 2.51727e-11 -91285.1)
(192881 -128422 5.51792e-10 -306823 2.76584e-10 -34182.5)
(295533 -203167 4.47839e-10 -279580 4.03196e-10 4786.13)
(382780 -240296 -2.19778e-10 -254661 -1.47519e-10 38435.7)
(445314 -254535 -4.02885e-10 -231526 -1.78038e-10 64136.7)
(496706 -256137 -2.54225e-10 -209651 -1.01531e-10 86116.6)
(536078 -250779 4.10128e-10 -189937 2.09317e-10 103843)
(569675 -241488 -4.91344e-10 -171225 -2.63765e-10 119535)
(593844 -230161 8.16155e-10 -154138 2.48049e-10 131912)
(621380 -220865 2.78514e-11 -136655 -1.12819e-10 145417)
(78179.7 -31740 4.80861e-10 -174592 -8.81808e-10 -28923.8)
(285965 -162748 -1.52221e-09 -232155 -8.34706e-10 16142.9)
(403110 -222833 5.19981e-10 -244038 3.49342e-10 47721.6)
(493316 -250819 -4.75604e-11 -244926 1.35074e-10 74516.8)
(554381 -259188 2.24307e-10 -237020 1.07378e-10 95208.5)
(600951 -257030 -9.34217e-11 -224997 -3.4746e-11 112786)
(634468 -249256 -5.72165e-10 -211227 -2.41866e-10 126972)
(661471 -238258 3.30093e-10 -196200 1.45781e-10 139581)
(678891 -226115 -3.00243e-10 -181187 -1.31765e-10 149311)
(700679 -215812 6.25954e-10 -164738 1.56475e-10 160782)
(166656 -108335 -1.79145e-10 -34623.8 2.57621e-10 39609.7)
(394819 -198760 -4.96538e-10 -156568 -5.81689e-10 71475.1)
(519806 -235586 -7.30046e-10 -203309 -6.98691e-10 94949.3)
(608605 -249628 2.71142e-10 -227894 1.3277e-10 114213)
(665476 -249617 7.22603e-10 -234150 3.53174e-10 129398)
(705392 -242564 6.58211e-10 -231629 3.21136e-10 142129)
(731940 -232018 -1.02559e-10 -223886 1.95463e-11 152416)
(751486 -219452 3.77696e-10 -212779 1.60195e-10 161612)
(761967 -206873 -3.71454e-10 -200515 -2.66658e-10 168435)
(777177 -195816 1.31913e-10 -185502 1.27656e-10 177503)
(285619 -196960 5.16524e-10 89758.2 6.95542e-10 112613)
(518463 -234417 7.13729e-10 -83609.6 9.12291e-10 130456)
(642502 -241441 7.5907e-10 -158041 2.12935e-10 145338)
(724470 -237941 1.10123e-10 -202449 -1.14413e-10 156606)
(773973 -227719 2.29465e-11 -220719 -3.38895e-11 165976)
(805304 -215058 -1.66206e-11 -226780 -4.77071e-12 173557)
(823939 -201584 6.00545e-10 -224604 3.17439e-10 179800)
(835270 -187861 -8.01917e-10 -217767 -5.19717e-10 185251)
(839166 -175231 7.41091e-10 -208325 3.06772e-10 189253)
(846671 -163807 7.9763e-11 -196532 4.22631e-11 195042)
(435921 -290123 7.74143e-10 191678 -1.29349e-09 188280)
(654994 -267243 7.59503e-10 -16313.1 3.74473e-10 191604)
(767778 -240692 1.01561e-09 -109165 5.10264e-10 197584)
(836701 -217634 4.88887e-10 -168187 3.83016e-10 200554)
(875141 -196253 -7.72213e-10 -195595 -4.28534e-10 203864)
(895704 -177651 -6.92939e-10 -208729 -3.80203e-10 206093)
(905053 -161292 1.81881e-11 -211569 -1.07915e-11 208045)
(907416 -146710 -3.64376e-10 -208470 -2.08733e-10 209684)
(904582 -134676 3.78864e-10 -203045 3.48455e-10 210461)
(903048 -123286 5.15967e-10 -192663 1.17876e-10 213116)
(394065 -28556.8 7.66142e-11 -1334.45 -2.79555e-13 117819)
(428027 -25538 1.42444e-10 12162.1 -4.2966e-11 132057)
(458525 -23133.7 7.67463e-12 23479.4 -1.00671e-13 144601)
(486572 -20917.4 -1.2166e-10 34259 -6.56753e-11 156249)
(511955 -18943.1 -4.85078e-10 44638.8 -2.24294e-11 166978)
(535189 -17194.6 -7.3825e-11 54908.1 8.85043e-11 177029)
(556394 -15622 4.29264e-10 65365.5 4.57393e-11 186528)
(575807 -14217.1 -4.30656e-10 76156.3 -2.41265e-11 195589)
(593587 -12941.7 3.81853e-11 87502.7 1.29307e-10 204327)
(609874 -11778.8 2.36331e-10 99550.3 4.39461e-11 212827)
(624772 -10700.7 4.01639e-11 112481 1.21682e-10 221176)
(638386 -9686.83 4.67827e-10 126475 4.42493e-11 229458)
(650714 -8713.71 4.28697e-10 141706 -8.39377e-11 237726)
(661898 -7758.04 -4.65464e-10 158435 -4.08425e-11 246100)
(671693 -6797.05 -6.91317e-10 176811 1.197e-12 254551)
(680529 -5801.53 3.66079e-10 197309 5.84989e-11 263351)
(687409 -4748.58 -9.08184e-12 219884 -2.01662e-11 272188)
(693997 -3589.12 2.54939e-10 245655 4.92036e-11 281896)
(696633 -2330.05 2.13313e-10 273702 -2.08307e-12 291100)
(701931 -758.141 5.32238e-11 307158 5.53651e-12 302727)
(413675 -83236 2.17789e-12 -11461.6 2.39765e-12 120664)
(444142 -74583.8 -2.05692e-10 3127.01 -2.28806e-11 134181)
(472172 -67663.3 1.06335e-10 15539.7 2.37046e-11 146314)
(497915 -61286.8 3.41016e-10 27146.9 1.16384e-10 157519)
(521491 -55581.4 -1.99316e-10 38341.4 -7.51116e-13 167950)
(543128 -50525 -2.91931e-10 49247.8 -9.49748e-11 177713)
(563031 -45961.7 1.95783e-10 60278.4 9.3843e-11 186993)
(581310 -41878.2 5.05461e-11 71528.7 4.57337e-11 195852)
(598142 -38161.3 -4.52486e-10 83262.6 -1.41491e-10 204421)
(613609 -34765.8 -2.6976e-10 95616.2 -4.95917e-11 212768)
(627808 -31610.8 -5.99128e-12 108786 -1.68656e-13 220978)
(640819 -28637.7 8.27382e-10 122953 6.9271e-11 229132)
(652627 -25778.4 3.8104e-11 138295 3.78504e-11 237277)
(663363 -22964.8 -1.93161e-10 155074 3.98232e-11 245531)
(672775 -20130.5 -4.19795e-11 173438 -4.62744e-11 253864)
(681283 -17189.1 -4.47652e-11 193858 -4.01125e-11 262542)
(687895 -14073.7 -1.59918e-10 216286 3.59377e-11 271254)
(694259 -10638.4 -1.15776e-10 241828 -1.05536e-11 280826)
(696747 -6905.98 6.44439e-10 269558 8.81107e-11 289892)
(701921 -2246.93 1.65757e-10 302573 4.16708e-11 301348)
(448654 -131594 1.19918e-10 -30995.4 -2.54084e-11 125298)
(472806 -118535 2.59545e-10 -14382.8 8.0085e-11 137527)
(496385 -107885 -6.63273e-10 152.816 -5.72042e-11 148961)
(517976 -98087.2 7.16525e-11 13331 5.31113e-11 159392)
(538329 -89198.7 3.64235e-10 26104 -2.05948e-11 169330)
(557102 -81305.4 -5.60956e-10 38240.1 -3.44687e-11 178603)
(574681 -74123.5 -2.99122e-10 50383.6 -5.4948e-11 187519)
(590936 -67674 6.75359e-10 62528.3 4.36648e-11 196039)
(606076 -61773.1 3.82655e-10 75017.1 -3.20167e-11 204328)
(620081 -56362.6 -5.00234e-10 87967.9 -6.5908e-11 212415)
(633036 -51316.4 -5.72754e-10 101605 -1.13407e-10 220392)
(644973 -46545.3 2.27811e-10 116109 1.38415e-11 228325)
(655861 -41942.6 3.93666e-10 131668 6.42661e-11 236259)
(665806 -37400.2 1.3656e-11 148543 -6.47781e-11 244305)
(674548 -32811.9 2.55602e-11 166882 1.68618e-11 252429)
(682487 -28037.8 -5.71135e-10 187147 -6.27094e-11 260890)
(688644 -22970.2 -2.81837e-10 209286 -8.50826e-12 269379)
(694635 -17370.2 -1.04288e-10 234379 -4.4631e-11 278704)
(696902 -11277.2 2.21518e-10 261496 3.84868e-11 287519)
(701877 -3673.3 2.0188e-10 293661 8.80537e-11 298661)
(498319 -170012 1.26689e-10 -57338.7 4.17276e-11 132294)
(513565 -154492 -1.16049e-10 -38478.4 -1.64196e-12 142526)
(531016 -141331 6.42902e-11 -21110.8 -5.49865e-11 152971)
(546714 -129279 -8.84246e-12 -5966.02 -5.79263e-11 162224)
(562540 -118066 4.53687e-11 8910.32 -2.60933e-11 171435)
(577229 -108077 -1.6074e-10 22675.3 -3.19978e-11 179971)
(591501 -98866.9 -2.01545e-10 36319.7 -6.00155e-11 188346)
(604856 -90546.9 -9.46435e-11 49681.4 -5.44158e-11 196361)
(617570 -82873.9 4.12003e-11 63206 2.63325e-11 204233)
(629470 -75796.6 1.7647e-10 76985.5 1.02516e-10 211937)
(640631 -69157.6 -3.07562e-10 91275.8 -6.54542e-11 219572)
(651015 -62847.3 1.96524e-10 106257 5.67726e-11 227182)
(660572 -56730.4 4.61348e-10 122125 4.47392e-11 234809)
(669369 -50665.8 -1.86449e-10 139138 -5.38743e-11 242552)
(677136 -44514.5 -4.26652e-10 157442 -4.09236e-11 250373)
(684248 -38088.3 -2.67e-10 177484 -5.1577e-11 258520)
(689742 -31243.6 1.89351e-10 199204 -9.83683e-12 266684)
(695185 -23654.3 2.28533e-10 223641 4.61108e-11 275648)
(697130 -15372.9 6.21376e-11 249861 9.89601e-12 284097)
(701811 -5023.45 -1.39164e-10 280778 -8.52081e-11 294777)
(559323 -195772 2.43757e-10 -87631 -4.24878e-11 141508)
(563833 -180206 1.15541e-10 -66996 -1.52594e-10 149051)
(574107 -166065 -2.62002e-10 -46412.6 4.55844e-11 158308)
(582613 -153232 -1.18837e-10 -29190.9 -4.78467e-12 166027)
(592969 -140796 4.13343e-10 -11901.1 4.94946e-11 174320)
(602632 -129648 -2.33025e-10 3755.51 7.43887e-11 181916)
(612825 -119164 -2.54875e-10 19166.4 -6.90165e-11 189597)
(622579 -109596 2.1058e-10 33984.6 -4.00846e-11 196969)
(632261 -100672 -1.01861e-10 48747.6 4.33827e-11 204303)
(641522 -92365.3 -5.9865e-12 63523.9 4.76191e-11 211514)
(650419 -84510 -2.28176e-10 78593.6 -2.10476e-11 218704)
(658838 -76988.3 -2.63921e-10 94138.9 -1.31788e-10 225893)
(666699 -69649.7 7.98528e-10 110362 9.69299e-11 233118)
(674028 -62328.9 9.49307e-11 127517 4.65678e-11 240464)
(680542 -54862.7 -1.57861e-10 145746 -3.9464e-11 247886)
(686582 -47021.8 1.20493e-10 165474 2.24492e-11 255617)
(691213 -38633 -5.24832e-10 186631 -1.28235e-10 263353)
(695937 -29291.4 2.17888e-10 210196 6.64535e-11 271840)
(697454 -19060.7 -1.00404e-10 235233 -2.80918e-11 279806)
(701731 -6252.79 4.68582e-11 264503 1.52481e-11 289870)
(627634 -207192 -1.13535e-10 -118313 -1.46211e-10 152796)
(620427 -194167 -1.76485e-10 -97295 1.12308e-10 156940)
(623146 -180688 -1.77157e-10 -73758.8 5.42018e-11 164816)
(623671 -168692 -1.33438e-10 -54835.9 -1.42629e-10 170650)
(627981 -156302 2.92405e-10 -35295.7 2.13767e-10 177806)
(631996 -145061 3.03668e-10 -17788.4 5.47893e-11 184262)
(637553 -134204 4.77674e-10 -614.617 3.53758e-11 191081)
(643204 -124131 -6.03575e-10 15729.7 -1.06565e-10 197680)
(649392 -114590 -3.98727e-10 31814.9 -8.42601e-12 204362)
(655609 -105586 -4.36634e-11 47695.6 -1.05526e-10 210991)
(661876 -96971.8 5.72012e-10 63650.5 6.4021e-11 217658)
(668009 -88633.1 -1.09274e-10 79859.3 -1.00164e-10 224360)
(673888 -80420.7 -3.38872e-10 96517.4 -4.87483e-11 231122)
(679498 -72156.5 1.57537e-10 113868 7.66447e-11 238010)
(684541 -63663.7 -2.2384e-10 132040 -4.21185e-11 244974)
(689318 -54681.6 -1.19488e-10 151428 -2.60718e-11 252224)
(692932 -45015.7 -4.74024e-11 171942 -1.93011e-11 259462)
(696801 -34192.3 2.44881e-10 194488 6.47156e-11 267387)
(697819 -22285 2.9806e-10 218122 9.83226e-11 274782)
(701616 -7344.3 -2.34721e-10 245400 -1.59257e-10 284105)
(699089 -204017 -4.97157e-11 -145601 4.63682e-11 166046)
(680223 -196092 1.00858e-10 -125983 5.61712e-11 166272)
(675726 -184927 5.16858e-10 -100226 6.53306e-11 172650)
(668170 -175299 -8.21949e-10 -80026.3 -1.65193e-10 176443)
(666264 -164268 -5.69793e-11 -58647.3 6.35844e-11 182285)
(664442 -153954 5.52375e-11 -39404.9 -6.03996e-11 187511)
(665065 -143623 5.84223e-10 -20609 1.85688e-10 193337)
(666358 -133760 2.33643e-10 -2789.06 2.4261e-11 199071)
(668754 -124222 -3.21551e-10 14553.9 -1.49136e-10 204992)
(671658 -115041 -1.41261e-10 31485.8 -7.04658e-11 210943)
(675023 -106127 -2.28563e-10 48261.6 -3.00302e-11 216985)
(678615 -97376.9 6.0524e-11 65062.6 3.13414e-11 223103)
(682269 -88657.6 1.97288e-10 82073.3 9.28988e-11 229303)
(685933 -79787.9 0 99523.6 0 235637)
(689294 -70587 4.18196e-11 117525 -3.43509e-11 242046)
(692615 -60772.3 2.28625e-10 136433 5.60976e-11 248714)
(695045 -50135.3 -1.10876e-10 156136 -1.69957e-11 255354)
(697901 -38149.3 -4.11086e-10 177444 -1.45188e-10 262604)
(698318 -24897.5 3.48582e-10 199412 1.26015e-10 269319)
(701509 -8241.6 -1.06003e-10 224350 -9.39578e-11 277758)
(768723 -186677 4.95683e-10 -166743 6.18002e-11 180594)
(739248 -185846 -3.94221e-10 -150931 -8.59679e-11 176495)
(728285 -178594 3.56504e-10 -125221 1.70937e-10 180919)
(713292 -172594 1.16995e-10 -104719 5.30059e-11 182572)
(705231 -164331 -9.11492e-10 -82690.6 -3.37506e-10 186762)
(697790 -156005 2.12911e-10 -62291.6 9.5729e-11 190649)
(693388 -147219 2.39906e-10 -42340.2 3.05087e-11 195314)
(690296 -138399 8.58754e-10 -23252 2.35445e-10 200113)
(688782 -129586 -2.24307e-10 -4724.66 -2.98872e-11 205217)
(688276 -120833 -6.26732e-11 13299.5 4.78539e-11 210473)
(688629 -112127 6.08623e-11 31002.5 -4.30737e-11 215889)
(689584 -103398 -6.01091e-11 48538.1 3.77094e-11 221436)
(690923 -94546.2 6.97473e-11 66053.9 9.73349e-11 227093)
(692559 -85404.3 8.03557e-10 83749.1 2.02656e-10 232892)
(694166 -75800.8 -3.42153e-10 101704 -1.09819e-10 238761)
(695963 -65444.5 -6.5766e-10 120224 -1.7653e-10 244856)
(697158 -54123.8 5.3934e-10 139165 1.80311e-10 250897)
(698954 -41270.4 1.05077e-10 159227 3.24651e-11 257454)
(698759 -26978.4 -3.09901e-10 179452 -1.232e-10 263463)
(701339 -8970.8 9.25791e-11 201858 5.57949e-11 270959)
(833835 -158399 -4.57056e-10 -178200 -1.80395e-10 196690)
(796058 -165660 -1.61772e-10 -166223 3.32082e-11 188951)
(779413 -164030 1.45503e-10 -143061 -3.66186e-11 190905)
(758634 -162097 5.20251e-10 -122605 1.02241e-10 190809)
(744739 -157531 -3.64906e-10 -100853 -6.82521e-11 193166)
(732356 -151748 -2.72767e-10 -79823.7 2.67854e-11 195760)
(723146 -145062 0 -59273.9 0 199162)
(715864 -137784 4.29859e-10 -39460.5 1.32287e-10 202921)
(710485 -130163 6.26263e-10 -20281.6 2.21404e-10 207061)
(706540 -122292 2.2818e-10 -1683.48 3.63182e-11 211457)
(703789 -114227 -3.99133e-10 16463.5 -1.22227e-10 216076)
(701972 -105932 -6.79801e-10 34289.3 -1.24871e-10 220878)
(700836 -97338.2 -3.34293e-10 51909.3 -1.56356e-10 225824)
(700268 -88296.2 6.4254e-10 69486.1 1.44476e-10 230926)
(699944 -78647.1 7.1301e-10 87063.9 2.43129e-10 236102)
(700039 -68101.6 -3.39182e-10 104884 -1.20991e-10 241477)
(699836 -56451.9 -1.24094e-10 122765 -5.57264e-11 246780)
(700407 -43110.7 4.4272e-10 141272 1.79368e-10 252504)
(699480 -28188.6 -4.05466e-10 159458 -1.79112e-10 257681)
(701261 -9398.45 8.33095e-13 179028 5.73449e-13 264087)
(885230 -119640 3.69768e-10 -184661 9.93782e-11 210171)
(846772 -132400 -2.79696e-10 -175543 -5.61785e-11 201369)
(823725 -138852 9.88919e-12 -160106 -7.02809e-11 199086)
(799449 -142144 -1.40859e-10 -142002 2.71218e-11 197234)
(779810 -142940 -2.5912e-10 -122349 1.94838e-12 197238)
(762855 -141309 -2.27048e-10 -101860 -1.34536e-10 198299)
(748994 -138010 -1.89211e-10 -81149.6 -2.0887e-10 200353)
(737691 -133360 -1.34135e-11 -60644.6 1.02673e-11 203114)
(728683 -127741 1.43936e-11 -40528.9 -7.93712e-12 206446)
(721574 -121374 4.49776e-10 -20912.4 7.90207e-11 210198)
(716041 -114410 5.68825e-10 -1794.6 2.35217e-10 214274)
(711790 -106901 -3.58656e-10 16870.4 -1.77264e-10 218598)
(708519 -98839.2 -5.66282e-10 35133.1 -2.1285e-10 223095)
(706075 -90122.6 -3.71036e-10 53102.1 -1.29478e-10 227753)
(704124 -80621.7 1.51512e-10 70773.3 7.38747e-11 232469)
(702797 -70067.5 7.11172e-12 88321.3 7.86888e-13 237336)
(701456 -58263.4 -2.01971e-10 105517 -7.03203e-11 242092)
(701049 -44618.1 3.89749e-12 122788 9.68329e-13 247151)
(699658 -29245.1 1.96121e-10 139202 9.09373e-11 251658)
(700979 -9798.31 -5.27706e-11 156141 -4.09279e-11 257136)
(919515 -87544.5 1.34331e-10 -175894 7.79763e-11 223086)
(885293 -98309.6 2.67478e-10 -164579 1.8309e-10 216214)
(857173 -110917 2.77609e-10 -155167 8.13484e-11 210602)
(831677 -117909 7.49589e-11 -141009 1.22442e-11 207201)
(809478 -122431 9.86088e-11 -124294 1.31597e-10 205555)
(790110 -124274 2.52986e-11 -106162 -8.62258e-11 205184)
(773601 -124057 -5.16767e-10 -87177.3 -1.91735e-10 205927)
(759581 -122128 -1.84668e-10 -67943.1 -4.12498e-11 207491)
(747850 -118827 1.83805e-10 -48742.4 3.99101e-11 209732)
(738085 -114404 -2.25669e-10 -29797.5 -4.55228e-11 212486)
(730015 -109038 5.75159e-10 -11207.5 2.5214e-10 215642)
(723380 -102821 3.52644e-10 6984.16 1.38915e-10 219109)
(717909 -95784.1 -5.17314e-11 24750.2 3.95717e-11 222798)
(713455 -87868 1.2996e-10 42120.1 7.92387e-11 226673)
(709719 -78977.8 2.05703e-10 59026.4 5.95353e-11 230624)
(706798 -68887.4 -1.44323e-11 75549.7 -3.90964e-12 234704)
(704154 -57430.2 1.22793e-10 91411.6 6.32261e-11 238670)
(702575 -44062.2 6.52172e-11 106873 2.00822e-11 242834)
(700477 -28926.4 -1.96491e-10 120990 -9.45195e-11 246440)
(700933 -9717.26 -9.66509e-11 134842 -1.07206e-10 250733)
(917103 -61867.6 -9.19312e-10 -155549 -2.97883e-10 228466)
(892254 -73772.7 -4.51754e-10 -152970 -2.61438e-10 221785)
(866899 -87358 3.95369e-10 -145205 2.09243e-11 216508)
(843859 -96623.7 -2.19021e-10 -133759 1.41056e-10 213030)
(822875 -103243 -4.21491e-10 -119355 -2.12011e-10 211056)
(804033 -107264 5.09908e-10 -103275 1.27332e-10 210228)
(787402 -109129 -4.71689e-24 -86087.1 -1.90355e-24 210394)
(772807 -109155 -5.39148e-10 -68390.5 -2.95499e-10 211325)
(760153 -107638 -1.01771e-24 -50513.8 -7.91662e-25 212892)
(749229 -104810 -1.42334e-10 -32727.4 -1.06342e-10 214951)
(739853 -100841 -1.39222e-10 -15189.3 -9.98632e-11 217399)
(731830 -95830.5 2.19694e-10 1993.04 5.40376e-11 220147)
(724953 -89823.4 -2.15471e-10 18733.6 -5.65385e-11 223106)
(719106 -82786.8 -6.28214e-24 34992.5 -1.93993e-24 226230)
(714054 -74654.9 2.08084e-10 50651.8 6.4907e-11 229412)
(709883 -65244.4 -2.04891e-10 65706.2 -7.09143e-11 232677)
(706170 -54426.9 -1.24985e-10 79846.9 -6.69616e-11 235805)
(703597 -41730.5 1.99461e-10 93194.2 8.71837e-11 239037)
(700918 -27337.3 -2.44859e-24 104831 -1.20784e-24 241725)
(700723 -9158.25 -5.9367e-11 115547 -5.55304e-11 244881)
(916262 -35787.7 -1.8486e-10 -136589 -1.24936e-10 233902)
(893534 -49408.3 4.25766e-10 -137305 5.22004e-11 226869)
(871712 -64044.7 -5.58254e-10 -133025 -1.8653e-10 221606)
(850461 -75023.5 1.4884e-10 -124842 1.47066e-10 217686)
(830809 -83478.8 8.32792e-11 -113347 -2.6973e-10 215239)
(812594 -89480.8 -3.16749e-24 -99789.8 -1.51643e-24 213841)
(796153 -93296.5 1.04373e-10 -84736.8 -6.23077e-11 213425)
(781355 -95205 -2.43703e-10 -68844 -6.21949e-11 213753)
(768219 -95436.5 -1.41884e-10 -52489.1 -1.14727e-10 214719)
(756601 -94198.9 -3.34011e-24 -36009.2 -1.34062e-24 216178)
(746390 -91646.6 -1.37597e-10 -19624.4 -1.02038e-10 218030)
(737444 -87882.9 -2.32527e-24 -3507.66 -6.28637e-25 220181)
(729612 -82963.4 -4.84727e-10 12196.2 -2.42892e-10 222543)
(722809 -76878 -2.63199e-10 27383 -1.69746e-10 225058)
(716855 -69588.4 8.02701e-11 41884.8 -9.71866e-12 227622)
(711833 -60952.6 7.87507e-11 55620.2 7.12859e-13 230236)
(707424 -50883.7 -1.26304e-10 68250 -7.06085e-11 232702)
(704200 -38983.6 -6.2566e-26 79771.2 2.44638e-26 235191)
(701226 -25475.9 -1.22669e-10 89304.6 -6.34822e-11 237159)
(700574 -8504.64 -2.58263e-10 97394.7 -2.87363e-10 239391)
(908540 -15692.8 7.4342e-11 -118812 -1.08311e-10 236918)
(888962 -29077.2 -2.8293e-10 -122303 -1.0686e-10 229997)
(870544 -43855.2 -1.169e-24 -120146 -5.72902e-25 225120)
(851579 -55634.4 1.33347e-10 -114357 -5.45085e-11 221167)
(833802 -65231.3 1.38569e-10 -105170 1.39008e-10 218589)
(816800 -72597.2 2.24786e-24 -93786.7 6.69629e-25 216904)
(801127 -77873.5 2.98786e-25 -80724.2 -8.16732e-25 216121)
(786675 -81261.6 -1.06643e-10 -66627 5.27603e-11 216014)
(773566 -82930.7 0 -51886.4 0 216504)
(761718 -83051 -5.64154e-24 -36866.9 -2.42074e-24 217455)
(751089 -81754.1 0 -21826.2 0 218779)
(741594 -79136.1 4.4757e-10 -6981.53 1.31525e-10 220384)
(733135 -75256 8.7049e-11 7478.26 -2.44775e-11 222184)
(725662 -70119.7 -3.46268e-10 21397 -1.57754e-10 224118)
(719049 -63711.8 -1.29518e-10 34567.3 -8.22293e-11 226085)
(713382 -55928.3 -2.08373e-10 46844.6 -8.00531e-11 228068)
(708440 -46720.9 -7.88579e-11 57870.1 -1.26302e-11 229893)
(704695 -35767.8 2.03096e-10 67541.5 9.431e-11 231671)
(701496 -23320.9 2.01169e-10 75033.7 1.03329e-10 232959)
(700437 -7765.99 -2.00125e-10 80671.1 -2.2941e-10 234332)
(896367 1141.9 -5.5878e-11 -101998 1.77915e-10 238311)
(879764 -11934.6 -1.18695e-10 -107308 -1.45571e-10 231737)
(864594 -26416.9 -3.96785e-10 -106972 -2.43984e-10 227287)
(848015 -38448.9 -1.41517e-10 -103356 4.6644e-11 223398)
(832296 -48656 3.91753e-10 -96335.8 2.23576e-10 220788)
(816792 -56889.2 2.567e-10 -87057.2 8.21005e-11 218920)
(802230 -63200.4 -3.08908e-24 -75952.1 -1.83573e-24 217883)
(788504 -67710.9 -2.45184e-10 -63656.4 -7.44121e-11 217454)
(775821 -70529.9 2.39685e-10 -50558.2 7.20903e-11 217579)
(764143 -71783.4 -1.32422e-10 -37043.7 -1.0956e-10 218130)
(753491 -71574.3 -1.31935e-10 -23396.7 -1.04087e-10 219028)
(743822 -69984.6 9.35676e-11 -9869.98 -2.76136e-11 220186)
(735089 -67070.8 1.30441e-10 3313.14 9.36887e-11 221521)
(727273 -62849.3 0 15954.7 0 222968)
(720301 -57323.3 0 27816.1 0 224435)
(714260 -50423.8 -2.09685e-10 38701.8 -8.40555e-11 225888)
(709014 -42138.4 3.69351e-24 48242.1 1.75693e-24 227177)
(704950 -32220.8 7.98677e-11 56253 2.31948e-11 228361)
(701657 -20943.6 0 61970 0 229088)
(700311 -6950.69 -2.02038e-10 65525.4 -2.3105e-10 229751)
(881250 14441.1 3.64004e-10 -86541.5 2.19581e-10 238413)
(867446 2082.18 4.37956e-10 -93087.8 7.87549e-11 232307)
(855211 -11679.6 -5.38292e-10 -94040.4 -2.0537e-10 228351)
(841011 -23520.5 -2.64626e-10 -92077.5 -9.69074e-11 224680)
(827408 -33911 3.80454e-10 -86816.8 2.24144e-10 222177)