/*--------------------------------*- C++ -*----------------------------------*\
| =========                 |                                                 |
| \\      /  F ield         | foam-extend: Open Source CFD                    |
|  \\    /   O peration     | Version:     4.1                                |
|   \\  /    A nd           | Web:         http://www.foam-extend.org         |
|    \\/     M anipulation  |                                                 |
\*---------------------------------------------------------------------------*/
FoamFile
{
    version     2.0;
    format      ascii;
    class       vectorField;
    location    "7";
    object      solidsCellD_iteration9;
}
// * * * * * * * * * * * * * * * * * * * * * * * * * * * * * * * * * * * * * //


1000
(
(3.6148e-06 -1.52121e-06 0)
(3.41186e-06 -1.41648e-06 0)
(3.28246e-06 -1.35041e-06 0)
(3.2084e-06 -1.32001e-06 0)
(3.17249e-06 -1.31005e-06 0)
(3.16448e-06 -1.31586e-06 0)
(3.17698e-06 -1.33197e-06 0)
(3.20486e-06 -1.3558e-06 0)
(3.24438e-06 -1.38477e-06 0)
(3.29233e-06 -1.41748e-06 0)
(3.26863e-06 -1.66167e-06 0)
(3.0525e-06 -1.58913e-06 0)
(2.91475e-06 -1.54345e-06 0)
(2.83453e-06 -1.52694e-06 0)
(2.79376e-06 -1.52621e-06 0)
(2.78131e-06 -1.53856e-06 0)
(2.78954e-06 -1.55934e-06 0)
(2.81297e-06 -1.58664e-06 0)
(2.84768e-06 -1.61844e-06 0)
(2.89015e-06 -1.65296e-06 0)
(2.90889e-06 -1.79477e-06 0)
(2.68807e-06 -1.75822e-06 0)
(2.54738e-06 -1.73533e-06 0)
(2.46444e-06 -1.73411e-06 0)
(2.42103e-06 -1.74339e-06 0)
(2.40553e-06 -1.76265e-06 0)
(2.4103e-06 -1.78825e-06 0)
(2.42985e-06 -1.81895e-06 0)
(2.46019e-06 -1.85343e-06 0)
(2.49797e-06 -1.88971e-06 0)
(2.53827e-06 -1.91817e-06 0)
(2.32206e-06 -1.91936e-06 0)
(2.1843e-06 -1.92037e-06 0)
(2.10231e-06 -1.93508e-06 0)
(2.05854e-06 -1.95474e-06 0)
(2.04142e-06 -1.98108e-06 0)
(2.04353e-06 -2.0115e-06 0)
(2.0596e-06 -2.04559e-06 0)
(2.08584e-06 -2.08262e-06 0)
(2.11894e-06 -2.12082e-06 0)
(2.15936e-06 -2.02945e-06 0)
(1.95691e-06 -2.06803e-06 0)
(1.82795e-06 -2.09272e-06 0)
(1.75074e-06 -2.12316e-06 0)
(1.70892e-06 -2.15301e-06 0)
(1.69152e-06 -2.18629e-06 0)
(1.69176e-06 -2.22138e-06 0)
(1.7047e-06 -2.25875e-06 0)
(1.72698e-06 -2.29824e-06 0)
(1.75529e-06 -2.33844e-06 0)
(1.77395e-06 -2.12634e-06 0)
(1.59425e-06 -2.19988e-06 0)
(1.47982e-06 -2.24675e-06 0)
(1.41094e-06 -2.2919e-06 0)
(1.37321e-06 -2.33126e-06 0)
(1.35685e-06 -2.37099e-06 0)
(1.356e-06 -2.41038e-06 0)
(1.36616e-06 -2.45081e-06 0)
(1.38447e-06 -2.49255e-06 0)
(1.40783e-06 -2.53471e-06 0)
(1.38397e-06 -2.20664e-06 0)
(1.23496e-06 -2.31084e-06 0)
(1.14009e-06 -2.37716e-06 0)
(1.08276e-06 -2.43519e-06 0)
(1.05113e-06 -2.48286e-06 0)
(1.03707e-06 -2.52821e-06 0)
(1.03574e-06 -2.57135e-06 0)
(1.04336e-06 -2.61448e-06 0)
(1.05764e-06 -2.65818e-06 0)
(1.0759e-06 -2.70214e-06 0)
(9.90749e-07 -2.26859e-06 0)
(8.79107e-07 -2.39741e-06 0)
(8.08073e-07 -2.47932e-06 0)
(7.65072e-07 -2.54766e-06 0)
(7.41242e-07 -2.60201e-06 0)
(7.3045e-07 -2.65189e-06 0)
(7.29101e-07 -2.69807e-06 0)
(7.34359e-07 -2.74338e-06 0)
(7.44575e-07 -2.78865e-06 0)
(7.57662e-07 -2.8341e-06 0)
(5.95364e-07 -2.3107e-06 0)
(5.26252e-07 -2.45672e-06 0)
(4.82309e-07 -2.54953e-06 0)
(4.55616e-07 -2.62512e-06 0)
(4.4074e-07 -2.68415e-06 0)
(4.33924e-07 -2.73716e-06 0)
(4.32972e-07 -2.78548e-06 0)
(4.36079e-07 -2.83237e-06 0)
(4.42203e-07 -2.87876e-06 0)
(4.50057e-07 -2.92529e-06 0)
(1.98836e-07 -2.33192e-06 0)
(1.75424e-07 -2.48683e-06 0)
(1.60467e-07 -2.58526e-06 0)
(1.51389e-07 -2.66457e-06 0)
(1.4636e-07 -2.72601e-06 0)
(1.44009e-07 -2.78068e-06 0)
(1.43602e-07 -2.83007e-06 0)
(1.44606e-07 -2.87775e-06 0)
(1.46657e-07 -2.92473e-06 0)
(1.49268e-07 -2.97182e-06 0)
(5.63969e-06 -6.94182e-08 0)
(5.69044e-06 -5.00567e-08 0)
(5.7214e-06 -3.77969e-08 0)
(5.75494e-06 -3.05983e-08 0)
(5.79161e-06 -2.66104e-08 0)
(5.83657e-06 -2.48049e-08 0)
(5.88977e-06 -2.44641e-08 0)
(5.95176e-06 -2.50332e-08 0)
(6.02242e-06 -2.63409e-08 0)
(6.10078e-06 -2.79268e-08 0)
(5.59794e-06 -2.0827e-07 0)
(5.64027e-06 -1.51315e-07 0)
(5.66596e-06 -1.1529e-07 0)
(5.69594e-06 -9.42637e-08 0)
(5.73026e-06 -8.2719e-08 0)
(5.77352e-06 -7.74447e-08 0)
(5.82554e-06 -7.65219e-08 0)
(5.88656e-06 -7.84447e-08 0)
(5.95637e-06 -8.24013e-08 0)
(6.03387e-06 -8.70755e-08 0)
(5.51458e-06 -3.4827e-07 0)
(5.54081e-06 -2.5687e-07 0)
(5.55634e-06 -1.99112e-07 0)
(5.57957e-06 -1.65369e-07 0)
(5.60944e-06 -1.46966e-07 0)
(5.64957e-06 -1.38804e-07 0)
(5.69924e-06 -1.37578e-07 0)
(5.75839e-06 -1.40892e-07 0)
(5.82659e-06 -1.47451e-07 0)
(5.90238e-06 -1.55261e-07 0)
(5.39108e-06 -4.90066e-07 0)
(5.39444e-06 -3.69142e-07 0)
(5.39545e-06 -2.92831e-07 0)
(5.4091e-06 -2.48456e-07 0)
(5.43258e-06 -2.2436e-07 0)
(5.46823e-06 -2.13911e-07 0)
(5.51461e-06 -2.12662e-07 0)
(5.57113e-06 -2.1754e-07 0)
(5.63705e-06 -2.26727e-07 0)
(5.71048e-06 -2.377e-07 0)
(5.22932e-06 -6.34012e-07 0)
(5.20445e-06 -4.90175e-07 0)
(5.18751e-06 -3.99434e-07 0)
(5.18926e-06 -3.47052e-07 0)
(5.20487e-06 -3.18862e-07 0)
(5.23495e-06 -3.07076e-07 0)
(5.27721e-06 -3.06321e-07 0)
(5.33041e-06 -3.13e-07 0)
(5.3935e-06 -3.248e-07 0)
(5.46409e-06 -3.38896e-07 0)
(5.03175e-06 -7.80197e-07 0)
(4.97489e-06 -6.21311e-07 0)
(4.93772e-06 -5.21053e-07 0)
(4.92603e-06 -4.63759e-07 0)
(4.93269e-06 -4.33389e-07 0)
(4.9564e-06 -4.21408e-07 0)
(4.994e-06 -4.21733e-07 0)
(5.04341e-06 -4.30433e-07 0)
(5.10325e-06 -4.44832e-07 0)
(5.17063e-06 -4.62012e-07 0)
(4.8013e-06 -9.28347e-07 0)
(4.71063e-06 -7.63101e-07 0)
(4.65207e-06 -6.58796e-07 0)
(4.62618e-06 -6.00029e-07 0)
(4.62335e-06 -5.69549e-07 0)
(4.64029e-06 -5.58614e-07 0)
(4.67288e-06 -5.60675e-07 0)
(4.71822e-06 -5.71658e-07 0)
(4.77448e-06 -5.88688e-07 0)
(4.83848e-06 -6.08882e-07 0)
(4.54101e-06 -1.07774e-06 0)
(4.41683e-06 -9.1518e-07 0)
(4.33709e-06 -8.12522e-07 0)
(4.29705e-06 -7.55862e-07 0)
(4.28476e-06 -7.2744e-07 0)
(4.29486e-06 -7.18857e-07 0)
(4.32226e-06 -7.23358e-07 0)
(4.36338e-06 -7.36972e-07 0)
(4.41586e-06 -7.56683e-07 0)
(4.47637e-06 -7.79865e-07 0)
(4.25426e-06 -1.22736e-06 0)
(4.09894e-06 -1.07629e-06 0)
(3.99953e-06 -9.80906e-07 0)
(3.94622e-06 -9.29874e-07 0)
(3.92498e-06 -9.05677e-07 0)
(3.92843e-06 -9.00717e-07 0)
(3.95066e-06 -9.08392e-07 0)
(3.98748e-06 -9.24939e-07 0)
(4.03597e-06 -9.47519e-07 0)
(4.09297e-06 -9.73452e-07 0)
(3.94442e-06 -1.37578e-06 0)
(3.7623e-06 -1.24434e-06 0)
(3.64596e-06 -1.16139e-06 0)
(3.58107e-06 -1.11929e-06 0)
(3.55181e-06 -1.10135e-06 0)
(3.54917e-06 -1.10125e-06 0)
(3.56655e-06 -1.11282e-06 0)
(3.59913e-06 -1.13286e-06 0)
(3.64373e-06 -1.15851e-06 0)
(3.69684e-06 -1.18835e-06 0)
(6.18704e-06 -2.94662e-08 0)
(6.28104e-06 -2.98127e-08 0)
(6.38099e-06 -3.0212e-08 0)
(6.48654e-06 -3.04952e-08 0)
(6.59702e-06 -3.06349e-08 0)
(6.71204e-06 -3.06198e-08 0)
(6.83107e-06 -3.04031e-08 0)
(6.95364e-06 -3.00129e-08 0)
(7.07939e-06 -2.94536e-08 0)
(7.20796e-06 -2.86867e-08 0)
(7.33894e-06 -2.7677e-08 0)
(7.47193e-06 -2.64134e-08 0)
(7.60657e-06 -2.48847e-08 0)
(7.74247e-06 -2.30782e-08 0)
(7.8793e-06 -2.09642e-08 0)
(8.01652e-06 -1.84938e-08 0)
(8.15389e-06 -1.5605e-08 0)
(8.2905e-06 -1.22407e-08 0)
(8.42656e-06 -8.32366e-09 0)
(8.55989e-06 -3.82911e-09 0)
(6.12309e-06 -9.13643e-08 0)
(6.22244e-06 -9.20062e-08 0)
(6.32717e-06 -9.28372e-08 0)
(6.43688e-06 -9.33775e-08 0)
(6.5511e-06 -9.34971e-08 0)
(6.66938e-06 -9.32201e-08 0)
(6.79136e-06 -9.24553e-08 0)
(6.91663e-06 -9.1205e-08 0)
(7.04484e-06 -8.93924e-08 0)
(7.17564e-06 -8.69385e-08 0)
(7.30865e-06 -8.38056e-08 0)
(7.44354e-06 -7.9976e-08 0)
(7.57999e-06 -7.53864e-08 0)
(7.71759e-06 -6.99522e-08 0)
(7.85602e-06 -6.35654e-08 0)
(7.99476e-06 -5.6106e-08 0)
(8.1336e-06 -4.74171e-08 0)
(8.27162e-06 -3.73387e-08 0)
(8.40907e-06 -2.5628e-08 0)
(8.54374e-06 -1.21851e-08 0)
(5.99739e-06 -1.61431e-07 0)
(6.10726e-06 -1.61189e-07 0)
(6.22138e-06 -1.61358e-07 0)
(6.33919e-06 -1.61334e-07 0)
(6.46066e-06 -1.60793e-07 0)
(6.58543e-06 -1.59761e-07 0)
(6.71326e-06 -1.58012e-07 0)
(6.84377e-06 -1.55512e-07 0)
(6.97674e-06 -1.52125e-07 0)
(7.11189e-06 -1.47762e-07 0)
(7.24893e-06 -1.42365e-07 0)
(7.38757e-06 -1.35866e-07 0)
(7.52751e-06 -1.28123e-07 0)
(7.66838e-06 -1.18976e-07 0)
(7.80989e-06 -1.08256e-07 0)
(7.95161e-06 -9.57763e-08 0)
(8.09332e-06 -8.12775e-08 0)
(8.23416e-06 -6.44967e-08 0)
(8.37436e-06 -4.50256e-08 0)
(8.5118e-06 -2.26754e-08 0)
(5.81373e-06 -2.44306e-07 0)
(5.93862e-06 -2.41306e-07 0)
(6.06632e-06 -2.39112e-07 0)
(6.19595e-06 -2.3724e-07 0)
(6.32805e-06 -2.34972e-07 0)
(6.46221e-06 -2.32338e-07 0)
(6.59854e-06 -2.28903e-07 0)
(6.73672e-06 -2.24605e-07 0)
(6.87674e-06 -2.19222e-07 0)
(7.01834e-06 -2.1263e-07 0)
(7.16133e-06 -2.04706e-07 0)
(7.30546e-06 -1.95308e-07 0)
(7.45052e-06 -1.84225e-07 0)
(7.59621e-06 -1.71246e-07 0)
(7.74229e-06 -1.56146e-07 0)
(7.88838e-06 -1.38637e-07 0)
(8.03428e-06 -1.18351e-07 0)
(8.1792e-06 -9.49087e-08 0)
(8.32338e-06 -6.7719e-08 0)
(8.46482e-06 -3.65353e-08 0)
(5.57762e-06 -3.44077e-07 0)
(5.72142e-06 -3.35932e-07 0)
(5.86636e-06 -3.29233e-07 0)
(6.01094e-06 -3.23873e-07 0)
(6.15658e-06 -3.1848e-07 0)
(6.3028e-06 -3.13105e-07 0)
(6.45006e-06 -3.07061e-07 0)
(6.59815e-06 -3.00239e-07 0)
(6.7472e-06 -2.92275e-07 0)
(6.89707e-06 -2.82973e-07 0)
(7.04771e-06 -2.72137e-07 0)
(7.19896e-06 -2.59549e-07 0)
(7.35068e-06 -2.44921e-07 0)
(7.50264e-06 -2.27971e-07 0)
(7.65467e-06 -2.08394e-07 0)
(7.80639e-06 -1.85803e-07 0)
(7.95774e-06 -1.59723e-07 0)
(8.10792e-06 -1.29661e-07 0)
(8.25729e-06 -9.4831e-08 0)
(8.40389e-06 -5.49266e-08 0)
(5.29574e-06 -4.63702e-07 0)
(5.46128e-06 -4.4765e-07 0)
(5.62639e-06 -4.33881e-07 0)
(5.78864e-06 -4.23012e-07 0)
(5.9504e-06 -4.12831e-07 0)
(6.11101e-06 -4.03362e-07 0)
(6.2713e-06 -3.93612e-07 0)
(6.43124e-06 -3.83344e-07 0)
(6.59114e-06 -3.72084e-07 0)
(6.75097e-06 -3.59525e-07 0)
(6.91083e-06 -3.45367e-07 0)
(7.07066e-06 -3.29282e-07 0)
(7.23038e-06 -3.10887e-07 0)
(7.38985e-06 -2.89818e-07 0)
(7.549e-06 -2.65669e-07 0)
(7.7075e-06 -2.37967e-07 0)
(7.86538e-06 -2.06117e-07 0)
(8.02188e-06 -1.6952e-07 0)
(8.1775e-06 -1.27194e-07 0)
(8.33032e-06 -7.87208e-08 0)
(4.97596e-06 -6.05019e-07 0)
(5.16516e-06 -5.78226e-07 0)
(5.35257e-06 -5.54828e-07 0)
(5.53448e-06 -5.36289e-07 0)
(5.71421e-06 -5.19562e-07 0)
(5.89104e-06 -5.04483e-07 0)
(6.06609e-06 -4.89852e-07 0)
(6.2395e-06 -4.75171e-07 0)
(6.41175e-06 -4.59841e-07 0)
(6.583e-06 -4.43403e-07 0)
(6.75342e-06 -4.25417e-07 0)
(6.92306e-06 -4.05426e-07 0)
(7.09194e-06 -3.82952e-07 0)
(7.26003e-06 -3.57545e-07 0)
(7.42734e-06 -3.28696e-07 0)
(7.59364e-06 -2.95837e-07 0)
(7.75903e-06 -2.58246e-07 0)
(7.92282e-06 -2.15195e-07 0)
(8.08556e-06 -1.65517e-07 0)
(8.24552e-06 -1.08667e-07 0)
(4.62614e-06 -7.68436e-07 0)
(4.8398e-06 -7.27804e-07 0)
(5.05061e-06 -6.92233e-07 0)
(5.25362e-06 -6.63608e-07 0)
(5.45275e-06 -6.38478e-07 0)
(5.64728e-06 -6.16178e-07 0)
(5.83857e-06 -5.95383e-07 0)
(6.02687e-06 -5.75267e-07 0)
(6.21279e-06 -5.55064e-07 0)
(6.39665e-06 -5.34117e-07 0)
(6.57874e-06 -5.11821e-07 0)
(6.75921e-06 -4.87579e-07 0)
(6.93822e-06 -4.60805e-07 0)
(7.11586e-06 -4.30944e-07 0)
(7.29222e-06 -3.9737e-07 0)
(7.46716e-06 -3.59403e-07 0)
(7.64083e-06 -3.1618e-07 0)
(7.81269e-06 -2.66838e-07 0)
(7.9833e-06 -2.10019e-07 0)
(8.15114e-06 -1.45057e-07 0)
(4.25474e-06 -9.53638e-07 0)
(4.493e-06 -8.96543e-07 0)
(4.72733e-06 -8.47148e-07 0)
(4.95221e-06 -8.06356e-07 0)
(5.17142e-06 -7.7119e-07 0)
(5.38455e-06 -7.40205e-07 0)
(5.59292e-06 -7.11978e-07 0)
(5.79701e-06 -6.8534e-07 0)
(5.99751e-06 -6.59335e-07 0)
(6.19486e-06 -6.33095e-07 0)
(6.38946e-06 -6.05845e-07 0)
(6.5816e-06 -5.76851e-07 0)
(6.77157e-06 -5.45407e-07 0)
(6.95954e-06 -5.10835e-07 0)
(7.14567e-06 -4.72376e-07 0)
(7.32994e-06 -4.29224e-07 0)
(7.51256e-06 -3.80375e-07 0)
(7.69309e-06 -3.24831e-07 0)
(7.87221e-06 -2.61069e-07 0)
(8.04859e-06 -1.88314e-07 0)
(3.86878e-06 -1.15745e-06 0)
(4.13201e-06 -1.07991e-06 0)
(4.38903e-06 -1.01499e-06 0)
(4.63639e-06 -9.6007e-07 0)
(4.87612e-06 -9.13218e-07 0)
(5.10865e-06 -8.72219e-07 0)
(5.33486e-06 -8.35472e-07 0)
(5.55548e-06 -8.01508e-07 0)
(5.77125e-06 -7.69109e-07 0)
(5.98272e-06 -7.37172e-07 0)
(6.19043e-06 -7.04718e-07 0)
(6.39479e-06 -6.70847e-07 0)
(6.59619e-06 -6.34705e-07 0)
(6.79492e-06 -5.9547e-07 0)
(6.9912e-06 -5.52246e-07 0)
(7.18514e-06 -5.04099e-07 0)
(7.37702e-06 -4.49893e-07 0)
(7.56657e-06 -3.88481e-07 0)
(7.75453e-06 -3.18196e-07 0)
(7.93987e-06 -2.38105e-07 0)
(3.58164e-06 -1.35351e-06 0)
(3.86185e-06 -1.25913e-06 0)
(4.13262e-06 -1.18245e-06 0)
(4.39396e-06 -1.1162e-06 0)
(4.64671e-06 -1.05902e-06 0)
(4.89159e-06 -1.00861e-06 0)
(5.12944e-06 -9.63298e-07 0)
(5.36098e-06 -9.21563e-07 0)
(5.58692e-06 -8.82076e-07 0)
(5.80786e-06 -8.43628e-07 0)
(6.02434e-06 -8.05145e-07 0)
(6.23684e-06 -7.6563e-07 0)
(6.44579e-06 -7.24133e-07 0)
(6.65153e-06 -6.79732e-07 0)
(6.85434e-06 -6.3145e-07 0)
(7.05443e-06 -5.78267e-07 0)
(7.25211e-06 -5.19003e-07 0)
(7.44735e-06 -4.52431e-07 0)
(7.64085e-06 -3.7686e-07 0)
(7.83194e-06 -2.91283e-07 0)
(3.41774e-06 -1.51317e-06 0)
(3.69987e-06 -1.41507e-06 0)
(3.97294e-06 -1.33171e-06 0)
(4.23789e-06 -1.25842e-06 0)
(4.4948e-06 -1.19392e-06 0)
(4.74414e-06 -1.13629e-06 0)
(4.98651e-06 -1.08396e-06 0)
(5.22249e-06 -1.03547e-06 0)
(5.45267e-06 -9.8953e-07 0)
(5.67757e-06 -9.4495e-07 0)
(5.89771e-06 -9.00653e-07 0)
(6.11355e-06 -8.55628e-07 0)
(6.32552e-06 -8.08899e-07 0)
(6.53397e-06 -7.59517e-07 0)
(6.73919e-06 -7.06498e-07 0)
(6.94149e-06 -6.48801e-07 0)
(7.14118e-06 -5.85287e-07 0)
(7.33838e-06 -5.1474e-07 0)
(7.5338e-06 -4.35554e-07 0)
(7.72702e-06 -3.4674e-07 0)
(3.27787e-06 -1.66621e-06 0)
(3.5572e-06 -1.56595e-06 0)
(3.82986e-06 -1.47835e-06 0)
(4.09546e-06 -1.39975e-06 0)
(4.35398e-06 -1.32924e-06 0)
(4.60552e-06 -1.26531e-06 0)
(4.85048e-06 -1.20658e-06 0)
(5.08922e-06 -1.15176e-06 0)
(5.3222e-06 -1.09964e-06 0)
(5.54985e-06 -1.04911e-06 0)
(5.77265e-06 -9.99109e-07 0)
(5.99099e-06 -9.48645e-07 0)
(6.20528e-06 -8.96739e-07 0)
(6.41588e-06 -8.42446e-07 0)
(6.62307e-06 -7.8479e-07 0)
(6.82723e-06 -7.2274e-07 0)
(7.02868e-06 -6.5521e-07 0)
(7.22767e-06 -5.81035e-07 0)
(7.42484e-06 -4.98703e-07 0)
(7.62008e-06 -4.07289e-07 0)
(3.15457e-06 -1.81374e-06 0)
(3.42987e-06 -1.71243e-06 0)
(3.70019e-06 -1.62166e-06 0)
(3.96454e-06 -1.53873e-06 0)
(4.22282e-06 -1.46309e-06 0)
(4.47485e-06 -1.39357e-06 0)
(4.72085e-06 -1.32905e-06 0)
(4.96098e-06 -1.26839e-06 0)
(5.19559e-06 -1.2105e-06 0)
(5.425e-06 -1.15434e-06 0)
(5.64959e-06 -1.09891e-06 0)
(5.86971e-06 -1.04325e-06 0)
(6.08574e-06 -9.86405e-07 0)
(6.298e-06 -9.27442e-07 0)
(6.50681e-06 -8.65415e-07 0)
(6.71253e-06 -7.99329e-07 0)
(6.91551e-06 -7.28161e-07 0)
(7.11609e-06 -6.50813e-07 0)
(7.31487e-06 -5.65887e-07 0)
(7.512e-06 -4.72563e-07 0)
(3.04589e-06 -1.95505e-06 0)
(3.3161e-06 -1.85354e-06 0)
(3.58274e-06 -1.76074e-06 0)
(3.84441e-06 -1.67457e-06 0)
(4.10102e-06 -1.59479e-06 0)
(4.35217e-06 -1.52056e-06 0)
(4.59792e-06 -1.45096e-06 0)
(4.83827e-06 -1.38505e-06 0)
(5.07346e-06 -1.32186e-06 0)
(5.30372e-06 -1.26047e-06 0)
(5.52932e-06 -1.19995e-06 0)
(5.75056e-06 -1.13938e-06 0)
(5.96776e-06 -1.07785e-06 0)
(6.18123e-06 -1.01447e-06 0)
(6.39127e-06 -9.4834e-07 0)
(6.59827e-06 -8.78516e-07 0)
(6.80255e-06 -8.04045e-07 0)
(7.00452e-06 -7.2391e-07 0)
(7.20475e-06 -6.36858e-07 0)
(7.40361e-06 -5.42214e-07 0)
(2.94922e-06 -2.09031e-06 0)
(3.21379e-06 -1.98922e-06 0)
(3.47595e-06 -1.89516e-06 0)
(3.73397e-06 -1.80658e-06 0)
(3.98789e-06 -1.7235e-06 0)
(4.23709e-06 -1.64531e-06 0)
(4.48156e-06 -1.57131e-06 0)
(4.72119e-06 -1.50075e-06 0)
(4.95609e-06 -1.4328e-06 0)
(5.18639e-06 -1.36664e-06 0)
(5.41232e-06 -1.30143e-06 0)
(5.63407e-06 -1.23631e-06 0)
(5.85193e-06 -1.17044e-06 0)
(6.06619e-06 -1.10298e-06 0)
(6.2771e-06 -1.03307e-06 0)
(6.48508e-06 -9.5986e-07 0)
(6.69043e-06 -8.82454e-07 0)
(6.89359e-06 -7.99938e-07 0)
(7.09512e-06 -7.11228e-07 0)
(7.29551e-06 -6.15779e-07 0)
(2.86262e-06 -2.21972e-06 0)
(3.12125e-06 -2.11948e-06 0)
(3.37836e-06 -2.02478e-06 0)
(3.63211e-06 -1.93452e-06 0)
(3.8826e-06 -1.84886e-06 0)
(4.12907e-06 -1.76741e-06 0)
(4.37148e-06 -1.68969e-06 0)
(4.60961e-06 -1.61509e-06 0)
(4.8435e-06 -1.54292e-06 0)
(5.0732e-06 -1.47248e-06 0)
(5.29885e-06 -1.40301e-06 0)
(5.52058e-06 -1.33374e-06 0)
(5.73866e-06 -1.26389e-06 0)
(5.9533e-06 -1.19269e-06 0)
(6.16478e-06 -1.11935e-06 0)
(6.37346e-06 -1.04309e-06 0)
(6.57965e-06 -9.63104e-07 0)
(6.78381e-06 -8.78587e-07 0)
(6.98648e-06 -7.88637e-07 0)
(7.18818e-06 -6.92773e-07 0)
(2.78425e-06 -2.34358e-06 0)
(3.03686e-06 -2.24448e-06 0)
(3.28863e-06 -2.14961e-06 0)
(3.53774e-06 -2.0582e-06 0)
(3.78426e-06 -1.97058e-06 0)
(4.02745e-06 -1.8865e-06 0)
(4.2672e-06 -1.80565e-06 0)
(4.50325e-06 -1.72759e-06 0)
(4.73556e-06 -1.65173e-06 0)
(4.9641e-06 -1.5775e-06 0)
(5.18897e-06 -1.50423e-06 0)
(5.41024e-06 -1.43123e-06 0)
(5.62814e-06 -1.35778e-06 0)
(5.84285e-06 -1.28323e-06 0)
(6.0546e-06 -1.20681e-06 0)
(6.26375e-06 -1.12785e-06 0)
(6.47057e-06 -1.04565e-06 0)
(6.67556e-06 -9.59498e-07 0)
(6.87919e-06 -8.68662e-07 0)
(7.08201e-06 -7.72694e-07 0)
(2.71248e-06 -2.46227e-06 0)
(2.95912e-06 -2.36447e-06 0)
(3.20543e-06 -2.26977e-06 0)
(3.44967e-06 -2.17766e-06 0)
(3.69192e-06 -2.08857e-06 0)
(3.93146e-06 -2.0024e-06 0)
(4.16816e-06 -1.91897e-06 0)
(4.40169e-06 -1.83797e-06 0)
(4.63197e-06 -1.75895e-06 0)
(4.85894e-06 -1.6814e-06 0)
(5.08264e-06 -1.60478e-06 0)
(5.3031e-06 -1.52848e-06 0)
(5.52051e-06 -1.45185e-06 0)
(5.73499e-06 -1.37431e-06 0)
(5.94678e-06 -1.29518e-06 0)
(6.15619e-06 -1.21388e-06 0)
(6.36348e-06 -1.1298e-06 0)
(6.56913e-06 -1.04235e-06 0)
(6.77352e-06 -9.50901e-07 0)
(6.97731e-06 -8.55113e-07 0)
(2.64589e-06 -2.57618e-06 0)
(2.88666e-06 -2.47976e-06 0)
(3.12752e-06 -2.38544e-06 0)
(3.36681e-06 -2.29297e-06 0)
(3.60465e-06 -2.20282e-06 0)
(3.84034e-06 -2.11501e-06 0)
(4.0737e-06 -2.02949e-06 0)
(4.30442e-06 -1.94605e-06 0)
(4.53237e-06 -1.86432e-06 0)
(4.75747e-06 -1.78394e-06 0)
(4.97971e-06 -1.70442e-06 0)
(5.19908e-06 -1.62524e-06 0)
(5.41574e-06 -1.54582e-06 0)
(5.62979e-06 -1.46568e-06 0)
(5.84142e-06 -1.38421e-06 0)
(6.05091e-06 -1.30091e-06 0)
(6.2585e-06 -1.21528e-06 0)
(6.46464e-06 -1.1268e-06 0)
(6.66964e-06 -1.03497e-06 0)
(6.87421e-06 -9.3961e-07 0)
(2.5832e-06 -2.68569e-06 0)
(2.81829e-06 -2.59067e-06 0)
(3.05379e-06 -2.49688e-06 0)
(3.28816e-06 -2.40429e-06 0)
(3.52156e-06 -2.31342e-06 0)
(3.75328e-06 -2.22435e-06 0)
(3.98317e-06 -2.13716e-06 0)
(4.21091e-06 -2.05172e-06 0)
(4.43633e-06 -1.96776e-06 0)
(4.65936e-06 -1.88497e-06 0)
(4.87992e-06 -1.80298e-06 0)
(5.09801e-06 -1.72132e-06 0)
(5.31374e-06 -1.63952e-06 0)
(5.52718e-06 -1.55713e-06 0)
(5.73849e-06 -1.47367e-06 0)
(5.94792e-06 -1.3887e-06 0)
(6.15568e-06 -1.3018e-06 0)
(6.36214e-06 -1.21252e-06 0)
(6.56764e-06 -1.12053e-06 0)
(6.7728e-06 -1.02573e-06 0)
(2.5233e-06 -2.79117e-06 0)
(2.75292e-06 -2.6975e-06 0)
(2.9832e-06 -2.60434e-06 0)
(3.21278e-06 -2.51182e-06 0)
(3.44176e-06 -2.42049e-06 0)
(3.66952e-06 -2.3305e-06 0)
(3.89589e-06 -2.24201e-06 0)
(4.12055e-06 -2.15496e-06 0)
(4.34336e-06 -2.06917e-06 0)
(4.56419e-06 -1.98439e-06 0)
(4.78297e-06 -1.90032e-06 0)
(4.99966e-06 -1.81657e-06 0)
(5.21434e-06 -1.73275e-06 0)
(5.42705e-06 -1.6485e-06 0)
(5.63793e-06 -1.56337e-06 0)
(5.8472e-06 -1.47702e-06 0)
(6.05498e-06 -1.3891e-06 0)
(6.26166e-06 -1.29924e-06 0)
(6.46754e-06 -1.20728e-06 0)
(6.67314e-06 -1.11308e-06 0)
(2.46519e-06 -2.89298e-06 0)
(2.68957e-06 -2.80057e-06 0)
(2.91483e-06 -2.70809e-06 0)
(3.13975e-06 -2.61578e-06 0)
(3.36443e-06 -2.52421e-06 0)
(3.58828e-06 -2.43358e-06 0)
(3.81116e-06 -2.34411e-06 0)
(4.03277e-06 -2.2558e-06 0)
(4.25294e-06 -2.16855e-06 0)
(4.47156e-06 -2.08215e-06 0)
(4.68851e-06 -1.99639e-06 0)
(4.90374e-06 -1.91094e-06 0)
(5.1173e-06 -1.82546e-06 0)
(5.32923e-06 -1.73967e-06 0)
(5.53959e-06 -1.65319e-06 0)
(5.74858e-06 -1.56572e-06 0)
(5.9563e-06 -1.47699e-06 0)
(6.16312e-06 -1.38674e-06 0)
(6.36921e-06 -1.29491e-06 0)
(6.57515e-06 -1.20138e-06 0)
(2.40794e-06 -2.99139e-06 0)
(2.62732e-06 -2.90021e-06 0)
(2.84776e-06 -2.80841e-06 0)
(3.06821e-06 -2.71641e-06 0)
(3.28873e-06 -2.62476e-06 0)
(3.50882e-06 -2.53372e-06 0)
(3.72834e-06 -2.44357e-06 0)
(3.94698e-06 -2.35433e-06 0)
(4.16458e-06 -2.26596e-06 0)
(4.381e-06 -2.1783e-06 0)
(4.59613e-06 -2.09119e-06 0)
(4.8099e-06 -2.00437e-06 0)
(5.02233e-06 -1.91756e-06 0)
(5.23343e-06 -1.83054e-06 0)
(5.44323e-06 -1.74296e-06 0)
(5.65189e-06 -1.6546e-06 0)
(5.85948e-06 -1.56526e-06 0)
(6.06634e-06 -1.47478e-06 0)
(6.27258e-06 -1.3831e-06 0)
(6.47873e-06 -1.29029e-06 0)
(2.35057e-06 -3.08675e-06 0)
(2.56521e-06 -2.99666e-06 0)
(2.78107e-06 -2.90557e-06 0)
(2.99726e-06 -2.81396e-06 0)
(3.21385e-06 -2.72239e-06 0)
(3.43039e-06 -2.63117e-06 0)
(3.64672e-06 -2.54057e-06 0)
(3.86254e-06 -2.45068e-06 0)
(4.0777e-06 -2.36147e-06 0)
(4.29204e-06 -2.27286e-06 0)
(4.50543e-06 -2.18474e-06 0)
(4.7178e-06 -2.09687e-06 0)
(4.92915e-06 -2.00904e-06 0)
(5.13943e-06 -1.92105e-06 0)
(5.34865e-06 -1.83262e-06 0)
(5.55694e-06 -1.74357e-06 0)
(5.76438e-06 -1.6538e-06 0)
(5.97121e-06 -1.56319e-06 0)
(6.17755e-06 -1.47173e-06 0)
(6.38381e-06 -1.37956e-06 0)
(2.29219e-06 -3.17926e-06 0)
(2.50231e-06 -3.09029e-06 0)
(2.7138e-06 -2.9998e-06 0)
(2.92605e-06 -2.90864e-06 0)
(3.139e-06 -2.81732e-06 0)
(3.35226e-06 -2.72609e-06 0)
(3.56566e-06 -2.63528e-06 0)
(3.77889e-06 -2.545e-06 0)
(3.99179e-06 -2.45524e-06 0)
(4.2042e-06 -2.36597e-06 0)
(4.416e-06 -2.27711e-06 0)
(4.62708e-06 -2.18849e-06 0)
(4.83739e-06 -2.09989e-06 0)
(5.04688e-06 -2.01116e-06 0)
(5.25553e-06 -1.92208e-06 0)
(5.46349e-06 -1.83255e-06 0)
(5.67075e-06 -1.74248e-06 0)
(5.87751e-06 -1.65177e-06 0)
(6.08387e-06 -1.56056e-06 0)
(6.29018e-06 -1.46898e-06 0)
(2.23182e-06 -3.26929e-06 0)
(2.43753e-06 -3.1811e-06 0)
(2.64489e-06 -3.09142e-06 0)
(2.85369e-06 -3.00089e-06 0)
(3.06334e-06 -2.9099e-06 0)
(3.27369e-06 -2.81883e-06 0)
(3.48445e-06 -2.72799e-06 0)
(3.69539e-06 -2.63752e-06 0)
(3.9063e-06 -2.54745e-06 0)
(4.11704e-06 -2.45777e-06 0)
(4.32744e-06 -2.36843e-06 0)
(4.53736e-06 -2.27928e-06 0)
(4.74674e-06 -2.19012e-06 0)
(4.95551e-06 -2.10087e-06 0)
(5.16367e-06 -2.01136e-06 0)
(5.37133e-06 -1.92148e-06 0)
(5.57839e-06 -1.83117e-06 0)
(5.78506e-06 -1.74042e-06 0)
(5.99137e-06 -1.64946e-06 0)
(6.19772e-06 -1.55839e-06 0)
(2.16804e-06 -3.35672e-06 0)
(2.37e-06 -3.26945e-06 0)
(2.57397e-06 -3.18075e-06 0)
(2.77945e-06 -3.09086e-06 0)
(2.98624e-06 -3.00035e-06 0)
(3.19402e-06 -2.90959e-06 0)
(3.40255e-06 -2.81889e-06 0)
(3.61156e-06 -2.72845e-06 0)
(3.82082e-06 -2.63829e-06 0)
(4.03017e-06 -2.54842e-06 0)
(4.23939e-06 -2.4588e-06 0)
(4.44832e-06 -2.36932e-06 0)
(4.65692e-06 -2.27984e-06 0)
(4.86513e-06 -2.19025e-06 0)
(5.07288e-06 -2.10042e-06 0)
(5.28019e-06 -2.01031e-06 0)
(5.48703e-06 -1.91984e-06 0)
(5.69367e-06 -1.8291e-06 0)
(5.89998e-06 -1.73832e-06 0)
(6.10621e-06 -1.64768e-06 0)
(2.1e-06 -3.44251e-06 0)
(2.29853e-06 -3.3563e-06 0)
(2.49944e-06 -3.26835e-06 0)
(2.70221e-06 -3.17916e-06 0)
(2.90666e-06 -3.08921e-06 0)
(3.11242e-06 -2.99889e-06 0)
(3.31924e-06 -2.90849e-06 0)
(3.52683e-06 -2.81821e-06 0)
(3.73488e-06 -2.7281e-06 0)
(3.94316e-06 -2.63819e-06 0)
(4.15149e-06 -2.54847e-06 0)
(4.35973e-06 -2.45881e-06 0)
(4.56778e-06 -2.36911e-06 0)
(4.77547e-06 -2.27934e-06 0)
(4.98282e-06 -2.18931e-06 0)
(5.1899e-06 -2.09898e-06 0)
(5.39662e-06 -2.00844e-06 0)
(5.6031e-06 -1.9177e-06 0)
(5.80941e-06 -1.82701e-06 0)
(6.01559e-06 -1.73669e-06 0)
(2.02684e-06 -3.52594e-06 0)
(2.22237e-06 -3.44093e-06 0)
(2.42072e-06 -3.35406e-06 0)
(2.62139e-06 -3.26578e-06 0)
(2.82411e-06 -3.17658e-06 0)
(3.02851e-06 -3.08686e-06 0)
(3.23424e-06 -2.99693e-06 0)
(3.4409e-06 -2.90698e-06 0)
(3.64819e-06 -2.81707e-06 0)
(3.8559e-06 -2.72723e-06 0)
(4.06374e-06 -2.63751e-06 0)
(4.27149e-06 -2.54783e-06 0)
(4.4791e-06 -2.45802e-06 0)
(4.68647e-06 -2.3681e-06 0)
(4.8935e-06 -2.27797e-06 0)
(5.1003e-06 -2.18755e-06 0)
(5.30688e-06 -2.09694e-06 0)
(5.51325e-06 -2.00614e-06 0)
(5.71956e-06 -1.91549e-06 0)
(5.92571e-06 -1.82528e-06 0)
(1.48774e-07 -3.01999e-06 0)
(4.48331e-07 -2.97567e-06 0)
(7.53874e-07 -2.88875e-06 0)
(1.0688e-06 -2.76278e-06 0)
(1.39582e-06 -2.60254e-06 0)
(1.73663e-06 -2.41408e-06 0)
(2.09188e-06 -2.20424e-06 0)
(2.46094e-06 -1.98023e-06 0)
(2.84265e-06 -1.74926e-06 0)
(3.23384e-06 -1.51702e-06 0)
(1.44685e-07 -3.0701e-06 0)
(4.35762e-07 -3.02962e-06 0)
(7.31791e-07 -2.95014e-06 0)
(1.03564e-06 -2.83474e-06 0)
(1.34959e-06 -2.68742e-06 0)
(1.67508e-06 -2.51334e-06 0)
(2.01267e-06 -2.31832e-06 0)
(2.36169e-06 -2.10861e-06 0)
(2.72057e-06 -1.89076e-06 0)
(3.08672e-06 -1.66974e-06 0)
(1.41031e-07 -3.12145e-06 0)
(4.24516e-07 -3.08445e-06 0)
(7.12022e-07 -3.01171e-06 0)
(1.00584e-06 -2.90592e-06 0)
(1.30789e-06 -2.77056e-06 0)
(1.61935e-06 -2.61006e-06 0)
(1.94081e-06 -2.42945e-06 0)
(2.27203e-06 -2.23396e-06 0)
(2.61183e-06 -2.0293e-06 0)
(2.95852e-06 -1.81886e-06 0)
(1.37767e-07 -3.17408e-06 0)
(4.1448e-07 -3.14003e-06 0)
(6.94569e-07 -3.07302e-06 0)
(9.79826e-07 -2.97545e-06 0)
(1.2719e-06 -2.85035e-06 0)
(1.57169e-06 -2.7016e-06 0)
(1.87964e-06 -2.53369e-06 0)
(2.19554e-06 -2.3512e-06 0)
(2.51833e-06 -2.1595e-06 0)
(2.8466e-06 -1.96124e-06 0)
(1.34775e-07 -3.22796e-06 0)
(4.05224e-07 -3.19655e-06 0)
(6.78511e-07 -3.13469e-06 0)
(9.56022e-07 -3.0445e-06 0)
(1.23915e-06 -2.9287e-06 0)
(1.52864e-06 -2.79073e-06 0)
(1.82487e-06 -2.63458e-06 0)
(2.12766e-06 -2.46414e-06 0)
(2.43621e-06 -2.28434e-06 0)
(2.74874e-06 -2.09755e-06 0)
(1.31973e-07 -3.28301e-06 0)
(3.96653e-07 -3.25389e-06 0)
(6.63704e-07 -3.1965e-06 0)
(9.34274e-07 -3.11278e-06 0)
(1.2095e-06 -3.00514e-06 0)
(1.49e-06 -2.87671e-06 0)
(1.776e-06 -2.7311e-06 0)
(2.06727e-06 -2.57176e-06 0)
(2.36341e-06 -2.40315e-06 0)
(2.66222e-06 -2.22766e-06 0)
(1.29279e-07 -3.33918e-06 0)
(3.88489e-07 -3.31209e-06 0)
(6.49675e-07 -3.25871e-06 0)
(9.13841e-07 -3.18075e-06 0)
(1.18188e-06 -3.08046e-06 0)
(1.45433e-06 -2.96063e-06 0)
(1.73138e-06 -2.82455e-06 0)
(2.01265e-06 -2.67532e-06 0)
(2.29805e-06 -2.51693e-06 0)
(2.58508e-06 -2.35194e-06 0)
(1.26711e-07 -3.39631e-06 0)
(3.80647e-07 -3.37103e-06 0)
(6.36268e-07 -3.3212e-06 0)
(8.94458e-07 -3.24836e-06 0)
(1.15592e-06 -3.1546e-06 0)
(1.42107e-06 -3.04247e-06 0)
(1.69012e-06 -2.91499e-06 0)
(1.96257e-06 -2.77501e-06 0)
(2.23856e-06 -2.62603e-06 0)
(2.51544e-06 -2.47077e-06 0)
(1.24207e-07 -3.45433e-06 0)
(3.72978e-07 -3.43066e-06 0)
(6.23238e-07 -3.38401e-06 0)
(8.75731e-07 -3.31577e-06 0)
(1.13105e-06 -3.22791e-06 0)
(1.38953e-06 -3.1227e-06 0)
(1.65135e-06 -3.00298e-06 0)
(1.91595e-06 -2.87138e-06 0)
(2.18362e-06 -2.73098e-06 0)
(2.45171e-06 -2.58464e-06 0)
(1.21694e-07 -3.5131e-06 0)
(3.65389e-07 -3.49087e-06 0)
(6.10421e-07 -3.44707e-06 0)
(8.57427e-07 -3.38297e-06 0)
(1.10691e-06 -3.3004e-06 0)
(1.35918e-06 -3.20144e-06 0)
(1.61436e-06 -3.08873e-06 0)
(1.87187e-06 -2.96475e-06 0)
(2.1321e-06 -2.8322e-06 0)
(2.39249e-06 -2.69398e-06 0)
(1.19149e-07 -3.5725e-06 0)
(3.57801e-07 -3.55157e-06 0)
(5.9764e-07 -3.51034e-06 0)
(8.39276e-07 -3.44998e-06 0)
(1.08313e-06 -3.37219e-06 0)
(1.32951e-06 -3.2789e-06 0)
(1.57851e-06 -3.17253e-06 0)
(1.82955e-06 -3.05545e-06 0)
(2.08302e-06 -2.93006e-06 0)
(2.33657e-06 -2.79922e-06 0)
(1.16584e-07 -3.63236e-06 0)
(3.50145e-07 -3.61261e-06 0)
(5.84747e-07 -3.57373e-06 0)
(8.2105e-07 -3.51675e-06 0)
(1.0594e-06 -3.44329e-06 0)
(1.3001e-06 -3.35514e-06 0)
(1.54325e-06 -3.25454e-06 0)
(1.78827e-06 -3.14375e-06 0)
(2.03555e-06 -3.02487e-06 0)
(2.28295e-06 -2.90073e-06 0)
(1.13974e-07 -3.69256e-06 0)
(3.42302e-07 -3.67389e-06 0)
(5.71574e-07 -3.63715e-06 0)
(8.02499e-07 -3.58326e-06 0)
(1.0354e-06 -3.51374e-06 0)
(1.27053e-06 -3.43028e-06 0)
(1.50804e-06 -3.33494e-06 0)
(1.74738e-06 -3.22984e-06 0)
(1.98888e-06 -3.11692e-06 0)
(2.2307e-06 -2.99887e-06 0)
(1.11266e-07 -3.7529e-06 0)
(3.34142e-07 -3.73523e-06 0)
(5.57939e-07 -3.70044e-06 0)
(7.8337e-07 -3.64938e-06 0)
(1.01078e-06 -3.58348e-06 0)
(1.24038e-06 -3.50431e-06 0)
(1.47236e-06 -3.41379e-06 0)
(1.70624e-06 -3.3139e-06 0)
(1.9423e-06 -3.20644e-06 0)
(2.17893e-06 -3.09395e-06 0)
(1.08403e-07 -3.81325e-06 0)
(3.25551e-07 -3.7965e-06 0)
(5.43663e-07 -3.7635e-06 0)
(7.63412e-07 -3.71506e-06 0)
(9.8519e-07 -3.6525e-06 0)
(1.2092e-06 -3.5773e-06 0)
(1.43567e-06 -3.4912e-06 0)
(1.6642e-06 -3.39609e-06 0)
(1.89501e-06 -3.29366e-06 0)
(2.12672e-06 -3.18623e-06 0)
(1.05358e-07 -3.87329e-06 0)
(3.16448e-07 -3.85739e-06 0)
(5.28574e-07 -3.82607e-06 0)
(7.42364e-07 -3.78008e-06 0)
(9.58274e-07 -3.72062e-06 0)
(1.17654e-06 -3.64908e-06 0)
(1.39742e-06 -3.56709e-06 0)
(1.62062e-06 -3.47644e-06 0)
(1.84625e-06 -3.37866e-06 0)
(2.07322e-06 -3.27587e-06 0)
(1.02104e-07 -3.93294e-06 0)
(3.06722e-07 -3.91785e-06 0)
(5.12447e-07 -3.88811e-06 0)
(7.199e-07 -3.84441e-06 0)
(9.29618e-07 -3.78787e-06 0)
(1.14189e-06 -3.71978e-06 0)
(1.35699e-06 -3.64165e-06 0)
(1.57473e-06 -3.55517e-06 0)
(1.79517e-06 -3.4617e-06 0)
(2.01739e-06 -3.36326e-06 0)
(9.85999e-08 -3.99156e-06 0)
(2.96226e-07 -3.97724e-06 0)
(4.95033e-07 -3.94901e-06 0)
(6.95679e-07 -3.9075e-06 0)
(8.98777e-07 -3.85374e-06 0)
(1.10469e-06 -3.78893e-06 0)
(1.31372e-06 -3.71448e-06 0)
(1.52573e-06 -3.63194e-06 0)
(1.74082e-06 -3.54258e-06 0)
(1.95826e-06 -3.44824e-06 0)
(9.47663e-08 -4.04945e-06 0)
(2.84727e-07 -4.03589e-06 0)
(4.75961e-07 -4.00911e-06 0)
(6.69201e-07 -3.96971e-06 0)
(8.65117e-07 -3.91864e-06 0)
(1.06416e-06 -3.85701e-06 0)
(1.26667e-06 -3.78611e-06 0)
(1.47262e-06 -3.70735e-06 0)
(1.68208e-06 -3.62195e-06 0)
(1.89459e-06 -3.53151e-06 0)
(9.0561e-08 -4.10492e-06 0)
(2.7213e-07 -4.09209e-06 0)
(4.55073e-07 -4.06676e-06 0)
(6.40221e-07 -4.02947e-06 0)
(8.28325e-07 -3.98107e-06 0)
(1.01991e-06 -3.92261e-06 0)
(1.21536e-06 -3.85524e-06 0)
(1.41481e-06 -3.78026e-06 0)
(1.61833e-06 -3.69882e-06 0)
(1.8257e-06 -3.61232e-06 0)
)


// ************************************************************************* //
