/*--------------------------------*- C++ -*----------------------------------*\
| =========                 |                                                 |
| \\      /  F ield         | foam-extend: Open Source CFD                    |
|  \\    /   O peration     | Version:     4.1                                |
|   \\  /    A nd           | Web:         http://www.foam-extend.org         |
|    \\/     M anipulation  |                                                 |
\*---------------------------------------------------------------------------*/
FoamFile
{
    version     2.0;
    format      ascii;
    class       vectorField;
    location    "7";
    object      solidsCellD_iteration13;
}
// * * * * * * * * * * * * * * * * * * * * * * * * * * * * * * * * * * * * * //


1000
(
(3.64252e-06 -1.55061e-06 0)
(3.43564e-06 -1.44254e-06 0)
(3.3033e-06 -1.3738e-06 0)
(3.22708e-06 -1.34152e-06 0)
(3.18957e-06 -1.33006e-06 0)
(3.1803e-06 -1.33469e-06 0)
(3.19182e-06 -1.34981e-06 0)
(3.21893e-06 -1.37274e-06 0)
(3.25784e-06 -1.40093e-06 0)
(3.30578e-06 -1.43276e-06 0)
(3.29329e-06 -1.69377e-06 0)
(3.07303e-06 -1.6184e-06 0)
(2.93227e-06 -1.57033e-06 0)
(2.84986e-06 -1.55209e-06 0)
(2.8075e-06 -1.54994e-06 0)
(2.79389e-06 -1.56114e-06 0)
(2.80127e-06 -1.58094e-06 0)
(2.8241e-06 -1.60737e-06 0)
(2.85841e-06 -1.63842e-06 0)
(2.90084e-06 -1.67209e-06 0)
(2.93053e-06 -1.82945e-06 0)
(2.70554e-06 -1.79064e-06 0)
(2.56183e-06 -1.76571e-06 0)
(2.47674e-06 -1.76298e-06 0)
(2.43181e-06 -1.77099e-06 0)
(2.41524e-06 -1.78919e-06 0)
(2.41925e-06 -1.81387e-06 0)
(2.43828e-06 -1.84378e-06 0)
(2.46828e-06 -1.87758e-06 0)
(2.50602e-06 -1.91313e-06 0)
(2.55689e-06 -1.95524e-06 0)
(2.33664e-06 -1.95479e-06 0)
(2.19597e-06 -1.95416e-06 0)
(2.11195e-06 -1.96761e-06 0)
(2.06677e-06 -1.98615e-06 0)
(2.04866e-06 -2.01156e-06 0)
(2.05008e-06 -2.04114e-06 0)
(2.06568e-06 -2.07451e-06 0)
(2.09162e-06 -2.11095e-06 0)
(2.12463e-06 -2.14852e-06 0)
(2.17502e-06 -2.06869e-06 0)
(1.96878e-06 -2.10625e-06 0)
(1.83713e-06 -2.12969e-06 0)
(1.75808e-06 -2.15913e-06 0)
(1.71497e-06 -2.18804e-06 0)
(1.69669e-06 -2.22051e-06 0)
(1.69632e-06 -2.25486e-06 0)
(1.70886e-06 -2.29161e-06 0)
(1.73086e-06 -2.33056e-06 0)
(1.75908e-06 -2.37023e-06 0)
(1.78667e-06 -2.16748e-06 0)
(1.60363e-06 -2.24059e-06 0)
(1.48684e-06 -2.28659e-06 0)
(1.41634e-06 -2.331e-06 0)
(1.3775e-06 -2.36958e-06 0)
(1.36039e-06 -2.40861e-06 0)
(1.35901e-06 -2.44736e-06 0)
(1.36883e-06 -2.48724e-06 0)
(1.3869e-06 -2.5285e-06 0)
(1.41015e-06 -2.57022e-06 0)
(1.39381e-06 -2.24937e-06 0)
(1.24203e-06 -2.35365e-06 0)
(1.14522e-06 -2.41944e-06 0)
(1.08656e-06 -2.47696e-06 0)
(1.05403e-06 -2.52399e-06 0)
(1.03935e-06 -2.56874e-06 0)
(1.0376e-06 -2.61132e-06 0)
(1.04493e-06 -2.65397e-06 0)
(1.05902e-06 -2.69724e-06 0)
(1.07718e-06 -2.74081e-06 0)
(9.97744e-07 -2.31255e-06 0)
(8.84041e-07 -2.44188e-06 0)
(8.11554e-07 -2.52354e-06 0)
(7.6756e-07 -2.59153e-06 0)
(7.43067e-07 -2.64537e-06 0)
(7.31823e-07 -2.69473e-06 0)
(7.3016e-07 -2.74042e-06 0)
(7.35202e-07 -2.78529e-06 0)
(7.4527e-07 -2.83017e-06 0)
(7.58283e-07 -2.87529e-06 0)
(5.99548e-07 -2.35551e-06 0)
(5.29155e-07 -2.50232e-06 0)
(4.84317e-07 -2.59507e-06 0)
(4.57021e-07 -2.67044e-06 0)
(4.41739e-07 -2.72904e-06 0)
(4.34638e-07 -2.7816e-06 0)
(4.3349e-07 -2.82946e-06 0)
(4.36468e-07 -2.87595e-06 0)
(4.42506e-07 -2.92198e-06 0)
(4.50313e-07 -2.9682e-06 0)
(2.00233e-07 -2.37715e-06 0)
(1.76395e-07 -2.53301e-06 0)
(1.6113e-07 -2.63147e-06 0)
(1.51839e-07 -2.71063e-06 0)
(1.46673e-07 -2.77169e-06 0)
(1.44232e-07 -2.82594e-06 0)
(1.43758e-07 -2.8749e-06 0)
(1.44715e-07 -2.92218e-06 0)
(1.46738e-07 -2.96881e-06 0)
(1.49334e-07 -3.01563e-06 0)
(5.68755e-06 -7.07575e-08 0)
(5.73905e-06 -5.09608e-08 0)
(5.76996e-06 -3.83982e-08 0)
(5.80321e-06 -3.09914e-08 0)
(5.83941e-06 -2.68578e-08 0)
(5.88385e-06 -2.49544e-08 0)
(5.93653e-06 -2.45507e-08 0)
(5.99804e-06 -2.50682e-08 0)
(6.06826e-06 -2.63377e-08 0)
(6.14623e-06 -2.78961e-08 0)
(5.64532e-06 -2.12298e-07 0)
(5.68825e-06 -1.5406e-07 0)
(5.7138e-06 -1.17129e-07 0)
(5.74343e-06 -9.54984e-08 0)
(5.77723e-06 -8.35396e-08 0)
(5.81996e-06 -7.79661e-08 0)
(5.87143e-06 -7.68379e-08 0)
(5.93195e-06 -7.86154e-08 0)
(6.00132e-06 -8.2469e-08 0)
(6.07839e-06 -8.70553e-08 0)
(5.56106e-06 -3.55004e-07 0)
(5.5876e-06 -2.61537e-07 0)
(5.60279e-06 -2.02312e-07 0)
(5.62555e-06 -1.67584e-07 0)
(5.65481e-06 -1.48502e-07 0)
(5.69435e-06 -1.39859e-07 0)
(5.74343e-06 -1.38303e-07 0)
(5.80207e-06 -1.41376e-07 0)
(5.86979e-06 -1.47764e-07 0)
(5.94511e-06 -1.55435e-07 0)
(5.43623e-06 -4.99546e-07 0)
(5.43947e-06 -3.75859e-07 0)
(5.43987e-06 -2.97584e-07 0)
(5.45287e-06 -2.51889e-07 0)
(5.47564e-06 -2.26885e-07 0)
(5.51063e-06 -2.15784e-07 0)
(5.55636e-06 -2.14089e-07 0)
(5.6123e-06 -2.18639e-07 0)
(5.6777e-06 -2.27571e-07 0)
(5.7506e-06 -2.38347e-07 0)
(5.27278e-06 -6.46274e-07 0)
(5.24723e-06 -4.99108e-07 0)
(5.22935e-06 -4.05988e-07 0)
(5.23023e-06 -3.52002e-07 0)
(5.24499e-06 -3.22712e-07 0)
(5.27431e-06 -3.10137e-07 0)
(5.31585e-06 -3.08826e-07 0)
(5.36842e-06 -3.15087e-07 0)
(5.43095e-06 -3.26551e-07 0)
(5.50091e-06 -3.40394e-07 0)
(5.07314e-06 -7.95288e-07 0)
(5.01502e-06 -6.3266e-07 0)
(4.97653e-06 -5.29711e-07 0)
(4.96372e-06 -4.70594e-07 0)
(4.96936e-06 -4.38962e-07 0)
(4.9922e-06 -4.26072e-07 0)
(5.029e-06 -4.25747e-07 0)
(5.0777e-06 -4.33958e-07 0)
(5.13691e-06 -4.47958e-07 0)
(5.20355e-06 -4.64835e-07 0)
(4.84033e-06 -9.46301e-07 0)
(4.74776e-06 -7.77066e-07 0)
(4.68748e-06 -6.69867e-07 0)
(4.6602e-06 -6.09123e-07 0)
(4.6562e-06 -5.77257e-07 0)
(4.67214e-06 -5.65322e-07 0)
(4.70384e-06 -5.66662e-07 0)
(4.74839e-06 -5.77095e-07 0)
(4.80396e-06 -5.93661e-07 0)
(4.86708e-06 -6.13493e-07 0)
(4.57743e-06 -1.09858e-06 0)
(4.45075e-06 -9.31955e-07 0)
(4.36891e-06 -8.26309e-07 0)
(4.32722e-06 -7.67597e-07 0)
(4.31359e-06 -7.3771e-07 0)
(4.32257e-06 -7.2807e-07 0)
(4.34899e-06 -7.31804e-07 0)
(4.38923e-06 -7.44826e-07 0)
(4.44093e-06 -7.64021e-07 0)
(4.50042e-06 -7.86795e-07 0)
(4.28788e-06 -1.2511e-06 0)
(4.12948e-06 -1.09604e-06 0)
(4.02762e-06 -9.97684e-07 0)
(3.97244e-06 -9.44594e-07 0)
(3.9497e-06 -9.18892e-07 0)
(3.95192e-06 -9.12828e-07 0)
(3.97309e-06 -9.19697e-07 0)
(4.00896e-06 -9.35619e-07 0)
(4.05664e-06 -9.57663e-07 0)
(4.11253e-06 -9.83156e-07 0)
(3.97512e-06 -1.40239e-06 0)
(3.78945e-06 -1.26721e-06 0)
(3.67036e-06 -1.18139e-06 0)
(3.60342e-06 -1.13729e-06 0)
(3.57256e-06 -1.11783e-06 0)
(3.56864e-06 -1.11658e-06 0)
(3.58493e-06 -1.12727e-06 0)
(3.61647e-06 -1.1466e-06 0)
(3.66016e-06 -1.17161e-06 0)
(3.7122e-06 -1.20097e-06 0)
(6.23219e-06 -2.94171e-08 0)
(6.3259e-06 -2.97262e-08 0)
(6.42559e-06 -3.00983e-08 0)
(6.53091e-06 -3.03583e-08 0)
(6.64119e-06 -3.04802e-08 0)
(6.75602e-06 -3.04478e-08 0)
(6.87488e-06 -3.02076e-08 0)
(6.9973e-06 -2.97888e-08 0)
(7.12292e-06 -2.91972e-08 0)
(7.25135e-06 -2.8395e-08 0)
(7.38218e-06 -2.73483e-08 0)
(7.51502e-06 -2.60433e-08 0)
(7.64951e-06 -2.44639e-08 0)
(7.78523e-06 -2.25962e-08 0)
(7.92183e-06 -2.04123e-08 0)
(8.0588e-06 -1.78639e-08 0)
(8.19586e-06 -1.48885e-08 0)
(8.33209e-06 -1.14274e-08 0)
(8.46769e-06 -7.40198e-09 0)
(8.60045e-06 -2.78238e-09 0)
(6.16736e-06 -9.1274e-08 0)
(6.2665e-06 -9.17928e-08 0)
(6.37104e-06 -9.25419e-08 0)
(6.48059e-06 -9.30114e-08 0)
(6.59465e-06 -9.3065e-08 0)
(6.71279e-06 -9.2727e-08 0)
(6.83464e-06 -9.18936e-08 0)
(6.95978e-06 -9.05616e-08 0)
(7.08788e-06 -8.86536e-08 0)
(7.21855e-06 -8.60943e-08 0)
(7.35143e-06 -8.2847e-08 0)
(7.48618e-06 -7.88894e-08 0)
(7.62247e-06 -7.41499e-08 0)
(7.7599e-06 -6.85393e-08 0)
(7.89812e-06 -6.19488e-08 0)
(8.03663e-06 -5.42557e-08 0)
(8.17517e-06 -4.5301e-08 0)
(8.31283e-06 -3.49224e-08 0)
(8.44984e-06 -2.28684e-08 0)
(8.58395e-06 -9.03548e-09 0)
(6.03996e-06 -1.61471e-07 0)
(6.14978e-06 -1.60999e-07 0)
(6.26384e-06 -1.61014e-07 0)
(6.38159e-06 -1.60862e-07 0)
(6.50299e-06 -1.60199e-07 0)
(6.62768e-06 -1.59049e-07 0)
(6.75544e-06 -1.57164e-07 0)
(6.88587e-06 -1.54511e-07 0)
(7.01877e-06 -1.5096e-07 0)
(7.15382e-06 -1.46422e-07 0)
(7.29076e-06 -1.40833e-07 0)
(7.42928e-06 -1.34115e-07 0)
(7.56908e-06 -1.26117e-07 0)
(7.70978e-06 -1.1668e-07 0)
(7.85111e-06 -1.05629e-07 0)
(7.99259e-06 -9.27703e-08 0)
(8.13401e-06 -7.78378e-08 0)
(8.27451e-06 -6.05593e-08 0)
(8.4143e-06 -4.05043e-08 0)
(8.55121e-06 -1.74863e-08 0)
(5.85382e-06 -2.44734e-07 0)
(5.9789e-06 -2.41379e-07 0)
(6.10671e-06 -2.38937e-07 0)
(6.23644e-06 -2.36849e-07 0)
(6.3686e-06 -2.34372e-07 0)
(6.5028e-06 -2.31535e-07 0)
(6.63913e-06 -2.27882e-07 0)
(6.7773e-06 -2.23356e-07 0)
(6.91729e-06 -2.17736e-07 0)
(7.05884e-06 -2.1089e-07 0)
(7.20176e-06 -2.02681e-07 0)
(7.34581e-06 -1.92964e-07 0)
(7.49076e-06 -1.81521e-07 0)
(7.63631e-06 -1.68138e-07 0)
(7.78223e-06 -1.5258e-07 0)
(7.9281e-06 -1.3455e-07 0)
(8.07374e-06 -1.13672e-07 0)
(8.21834e-06 -8.95443e-08 0)
(8.36214e-06 -6.15471e-08 0)
(8.50309e-06 -2.94364e-08 0)
(5.61456e-06 -3.45245e-07 0)
(5.75882e-06 -3.36585e-07 0)
(5.90409e-06 -3.29503e-07 0)
(6.04897e-06 -3.23802e-07 0)
(6.19484e-06 -3.18081e-07 0)
(6.34122e-06 -3.124e-07 0)
(6.4886e-06 -3.06038e-07 0)
(6.63676e-06 -2.98892e-07 0)
(6.78585e-06 -2.90597e-07 0)
(6.93572e-06 -2.80942e-07 0)
(7.08633e-06 -2.69726e-07 0)
(7.23753e-06 -2.56722e-07 0)
(7.38918e-06 -2.41634e-07 0)
(7.54102e-06 -2.2417e-07 0)
(7.69292e-06 -2.04009e-07 0)
(7.84446e-06 -1.80756e-07 0)
(7.99557e-06 -1.53925e-07 0)
(8.14547e-06 -1.22993e-07 0)
(8.2945e-06 -8.7137e-08 0)
(8.44066e-06 -4.60577e-08 0)
(5.32894e-06 -4.6604e-07 0)
(5.49526e-06 -4.49259e-07 0)
(5.66097e-06 -4.34923e-07 0)
(5.82373e-06 -4.23547e-07 0)
(5.98589e-06 -4.12882e-07 0)
(6.14681e-06 -4.02967e-07 0)
(6.30733e-06 -3.92767e-07 0)
(6.46745e-06 -3.82058e-07 0)
(6.62747e-06 -3.7036e-07 0)
(6.78738e-06 -3.57347e-07 0)
(6.94728e-06 -3.42707e-07 0)
(7.1071e-06 -3.26103e-07 0)
(7.26679e-06 -3.0714e-07 0)
(7.42618e-06 -2.85443e-07 0)
(7.58522e-06 -2.6059e-07 0)
(7.74357e-06 -2.32096e-07 0)
(7.90125e-06 -1.99345e-07 0)
(8.05751e-06 -1.61705e-07 0)
(8.21282e-06 -1.18147e-07 0)
(8.36526e-06 -6.826e-08 0)
(5.00499e-06 -6.08966e-07 0)
(5.19528e-06 -5.81211e-07 0)
(5.38354e-06 -5.57027e-07 0)
(5.56618e-06 -5.37767e-07 0)
(5.74649e-06 -5.20362e-07 0)
(5.92379e-06 -5.04659e-07 0)
(6.09922e-06 -4.89425e-07 0)
(6.27292e-06 -4.74168e-07 0)
(6.4454e-06 -4.58271e-07 0)
(6.6168e-06 -4.41256e-07 0)
(6.78733e-06 -4.22669e-07 0)
(6.95702e-06 -4.02045e-07 0)
(7.12592e-06 -3.78892e-07 0)
(7.29398e-06 -3.52744e-07 0)
(7.46122e-06 -3.23075e-07 0)
(7.62741e-06 -2.89302e-07 0)
(7.79263e-06 -2.50664e-07 0)
(7.95622e-06 -2.06406e-07 0)
(8.11869e-06 -1.55308e-07 0)
(8.27833e-06 -9.68343e-08 0)
(4.65069e-06 -7.74459e-07 0)
(4.8657e-06 -7.32563e-07 0)
(5.07761e-06 -6.95918e-07 0)
(5.28155e-06 -6.66308e-07 0)
(5.48146e-06 -6.40288e-07 0)
(5.67661e-06 -6.17166e-07 0)
(5.86841e-06 -5.95597e-07 0)
(6.05713e-06 -5.74752e-07 0)
(6.24338e-06 -5.53839e-07 0)
(6.42749e-06 -5.32182e-07 0)
(6.60976e-06 -5.0916e-07 0)
(6.79036e-06 -4.84169e-07 0)
(6.96946e-06 -4.56604e-07 0)
(7.14713e-06 -4.2589e-07 0)
(7.32347e-06 -3.9138e-07 0)
(7.49835e-06 -3.52373e-07 0)
(7.67189e-06 -3.07966e-07 0)
(7.84359e-06 -2.57267e-07 0)
(8.01399e-06 -1.98864e-07 0)
(8.18158e-06 -1.321e-07 0)
(4.27474e-06 -9.62162e-07 0)
(4.5145e-06 -9.03537e-07 0)
(4.75008e-06 -8.52794e-07 0)
(4.97603e-06 -8.10737e-07 0)
(5.19615e-06 -7.74419e-07 0)
(5.41005e-06 -7.42371e-07 0)
(5.61907e-06 -7.1316e-07 0)
(5.8237e-06 -6.856e-07 0)
(6.02464e-06 -6.58715e-07 0)
(6.22235e-06 -6.31614e-07 0)
(6.41724e-06 -6.03505e-07 0)
(6.60962e-06 -5.73637e-07 0)
(6.79976e-06 -5.41283e-07 0)
(6.98784e-06 -5.05737e-07 0)
(7.17403e-06 -4.66221e-07 0)
(7.3583e-06 -4.219e-07 0)
(7.54084e-06 -3.71733e-07 0)
(7.72128e-06 -3.14693e-07 0)
(7.90025e-06 -2.49208e-07 0)
(8.07647e-06 -1.74505e-07 0)
(3.88425e-06 -1.16875e-06 0)
(4.14889e-06 -1.08938e-06 0)
(4.40717e-06 -1.02277e-06 0)
(4.65568e-06 -9.66276e-07 0)
(4.89642e-06 -9.18017e-07 0)
(5.12984e-06 -8.75735e-07 0)
(5.35683e-06 -8.37812e-07 0)
(5.57814e-06 -8.02748e-07 0)
(5.79449e-06 -7.6931e-07 0)
(6.00647e-06 -7.36366e-07 0)
(6.21461e-06 -7.02919e-07 0)
(6.41933e-06 -6.68049e-07 0)
(6.62102e-06 -6.30874e-07 0)
(6.81996e-06 -5.90545e-07 0)
(7.01641e-06 -5.46144e-07 0)
(7.21045e-06 -4.96703e-07 0)
(7.40236e-06 -4.41053e-07 0)
(7.59192e-06 -3.78018e-07 0)
(7.77982e-06 -3.05889e-07 0)
(7.9651e-06 -2.2373e-07 0)
(3.59513e-06 -1.36643e-06 0)
(3.87598e-06 -1.27039e-06 0)
(4.1476e-06 -1.19196e-06 0)
(4.40989e-06 -1.124e-06 0)
(4.66358e-06 -1.06526e-06 0)
(4.90937e-06 -1.01341e-06 0)
(5.14805e-06 -9.66766e-07 0)
(5.38034e-06 -9.23785e-07 0)
(5.60695e-06 -8.83119e-07 0)
(5.82847e-06 -8.43533e-07 0)
(6.04545e-06 -8.03931e-07 0)
(6.25838e-06 -7.63298e-07 0)
(6.46769e-06 -7.20654e-07 0)
(6.67371e-06 -6.75049e-07 0)
(6.87674e-06 -6.25486e-07 0)
(7.07699e-06 -5.70904e-07 0)
(7.27478e-06 -5.10101e-07 0)
(7.47009e-06 -4.41812e-07 0)
(7.66362e-06 -3.64313e-07 0)
(7.8547e-06 -2.76595e-07 0)
(3.42953e-06 -1.5267e-06 0)
(3.71237e-06 -1.42702e-06 0)
(3.98623e-06 -1.34204e-06 0)
(4.25202e-06 -1.2671e-06 0)
(4.50976e-06 -1.20104e-06 0)
(4.75991e-06 -1.14192e-06 0)
(5.00304e-06 -1.08818e-06 0)
(5.23972e-06 -1.03836e-06 0)
(5.47052e-06 -9.91148e-07 0)
(5.69597e-06 -9.45332e-07 0)
(5.91658e-06 -8.99818e-07 0)
(6.13283e-06 -8.53581e-07 0)
(6.34513e-06 -8.05614e-07 0)
(6.55383e-06 -7.54942e-07 0)
(6.75927e-06 -7.00561e-07 0)
(6.96172e-06 -6.41389e-07 0)
(7.16152e-06 -5.76275e-07 0)
(7.3588e-06 -5.03958e-07 0)
(7.55426e-06 -4.22798e-07 0)
(7.74749e-06 -3.3183e-07 0)
(3.28763e-06 -1.6807e-06 0)
(3.56778e-06 -1.57868e-06 0)
(3.84125e-06 -1.48941e-06 0)
(4.10765e-06 -1.40916e-06 0)
(4.36696e-06 -1.33707e-06 0)
(4.61925e-06 -1.27161e-06 0)
(4.86491e-06 -1.21142e-06 0)
(5.10429e-06 -1.1552e-06 0)
(5.33784e-06 -1.10174e-06 0)
(5.56601e-06 -1.04989e-06 0)
(5.78925e-06 -9.9859e-07 0)
(6.00797e-06 -9.46834e-07 0)
(6.22257e-06 -8.93613e-07 0)
(6.43341e-06 -8.37958e-07 0)
(6.64082e-06 -7.78878e-07 0)
(6.84513e-06 -7.15295e-07 0)
(7.0467e-06 -6.46118e-07 0)
(7.24576e-06 -5.70134e-07 0)
(7.44299e-06 -4.85809e-07 0)
(7.63828e-06 -3.92257e-07 0)
(3.1623e-06 -1.82928e-06 0)
(3.4385e-06 -1.7261e-06 0)
(3.70965e-06 -1.63358e-06 0)
(3.97479e-06 -1.54893e-06 0)
(4.23381e-06 -1.47165e-06 0)
(4.48655e-06 -1.40056e-06 0)
(4.73319e-06 -1.33451e-06 0)
(4.97392e-06 -1.27238e-06 0)
(5.20906e-06 -1.21307e-06 0)
(5.43894e-06 -1.15551e-06 0)
(5.66395e-06 -1.09872e-06 0)
(5.88443e-06 -1.04169e-06 0)
(6.10075e-06 -9.83459e-07 0)
(6.31325e-06 -9.2307e-07 0)
(6.52225e-06 -8.59563e-07 0)
(6.72812e-06 -7.91895e-07 0)
(6.93122e-06 -7.19043e-07 0)
(7.13189e-06 -6.39859e-07 0)
(7.33075e-06 -5.5294e-07 0)
(7.52796e-06 -4.57507e-07 0)
(3.05177e-06 -1.97158e-06 0)
(3.32286e-06 -1.86809e-06 0)
(3.59032e-06 -1.77346e-06 0)
(3.85276e-06 -1.68552e-06 0)
(4.11008e-06 -1.60405e-06 0)
(4.3619e-06 -1.52818e-06 0)
(4.60825e-06 -1.457e-06 0)
(4.84916e-06 -1.38955e-06 0)
(5.08485e-06 -1.32488e-06 0)
(5.31554e-06 -1.26202e-06 0)
(5.54152e-06 -1.20006e-06 0)
(5.76309e-06 -1.13807e-06 0)
(5.98056e-06 -1.07508e-06 0)
(6.19425e-06 -1.01023e-06 0)
(6.40448e-06 -9.42565e-07 0)
(6.61161e-06 -8.71119e-07 0)
(6.81602e-06 -7.94937e-07 0)
(7.01808e-06 -7.12956e-07 0)
(7.21841e-06 -6.23932e-07 0)
(7.4174e-06 -5.27202e-07 0)
(2.95342e-06 -2.10778e-06 0)
(3.21882e-06 -2.00464e-06 0)
(3.48176e-06 -1.90868e-06 0)
(3.74051e-06 -1.81827e-06 0)
(3.99511e-06 -1.73343e-06 0)
(4.24494e-06 -1.65353e-06 0)
(4.48997e-06 -1.57789e-06 0)
(4.7301e-06 -1.50573e-06 0)
(4.96546e-06 -1.43623e-06 0)
(5.19617e-06 -1.36855e-06 0)
(5.42244e-06 -1.30184e-06 0)
(5.64449e-06 -1.23524e-06 0)
(5.86259e-06 -1.16785e-06 0)
(6.07704e-06 -1.09886e-06 0)
(6.28813e-06 -1.02738e-06 0)
(6.49623e-06 -9.52514e-07 0)
(6.7017e-06 -8.73384e-07 0)
(6.90496e-06 -7.89028e-07 0)
(7.10662e-06 -6.98373e-07 0)
(7.30715e-06 -6.0086e-07 0)
(2.86529e-06 -2.23804e-06 0)
(3.12468e-06 -2.13571e-06 0)
(3.38252e-06 -2.03906e-06 0)
(3.63696e-06 -1.94689e-06 0)
(3.88807e-06 -1.85942e-06 0)
(4.13512e-06 -1.77621e-06 0)
(4.37804e-06 -1.69677e-06 0)
(4.61663e-06 -1.62052e-06 0)
(4.85094e-06 -1.54674e-06 0)
(5.081e-06 -1.47471e-06 0)
(5.30695e-06 -1.40369e-06 0)
(5.52895e-06 -1.33288e-06 0)
(5.74724e-06 -1.26146e-06 0)
(5.96206e-06 -1.18869e-06 0)
(6.17368e-06 -1.11374e-06 0)
(6.38247e-06 -1.03581e-06 0)
(6.58878e-06 -9.54099e-07 0)
(6.79304e-06 -8.67761e-07 0)
(6.99585e-06 -7.75888e-07 0)
(7.19769e-06 -6.78e-07 0)
(2.78554e-06 -2.36267e-06 0)
(3.03883e-06 -2.26146e-06 0)
(3.29125e-06 -2.16458e-06 0)
(3.54098e-06 -2.07123e-06 0)
(3.78807e-06 -1.98173e-06 0)
(4.03178e-06 -1.89582e-06 0)
(4.27199e-06 -1.8132e-06 0)
(4.50845e-06 -1.73343e-06 0)
(4.74113e-06 -1.65591e-06 0)
(4.96999e-06 -1.58003e-06 0)
(5.19512e-06 -1.50515e-06 0)
(5.41663e-06 -1.43056e-06 0)
(5.63471e-06 -1.35551e-06 0)
(5.84956e-06 -1.27934e-06 0)
(6.06144e-06 -1.20129e-06 0)
(6.27069e-06 -1.12066e-06 0)
(6.47763e-06 -1.03674e-06 0)
(6.68273e-06 -9.48784e-07 0)
(6.88648e-06 -8.56052e-07 0)
(7.08946e-06 -7.5813e-07 0)
(2.71252e-06 -2.48203e-06 0)
(2.95973e-06 -2.38212e-06 0)
(3.2066e-06 -2.28536e-06 0)
(3.45138e-06 -2.19127e-06 0)
(3.69413e-06 -2.10025e-06 0)
(3.93413e-06 -2.01219e-06 0)
(4.17122e-06 -1.92695e-06 0)
(4.40512e-06 -1.84419e-06 0)
(4.63573e-06 -1.76345e-06 0)
(4.86298e-06 -1.68421e-06 0)
(5.08691e-06 -1.60593e-06 0)
(5.30757e-06 -1.52799e-06 0)
(5.52513e-06 -1.44971e-06 0)
(5.73974e-06 -1.37053e-06 0)
(5.95164e-06 -1.28976e-06 0)
(6.16114e-06 -1.20678e-06 0)
(6.36854e-06 -1.121e-06 0)
(6.5743e-06 -1.03176e-06 0)
(6.77881e-06 -9.38464e-07 0)
(6.98278e-06 -8.40796e-07 0)
(2.64477e-06 -2.59651e-06 0)
(2.88601e-06 -2.49798e-06 0)
(3.12733e-06 -2.40159e-06 0)
(3.36707e-06 -2.30709e-06 0)
(3.60533e-06 -2.21497e-06 0)
(3.84141e-06 -2.12524e-06 0)
(4.07512e-06 -2.03786e-06 0)
(4.30616e-06 -1.95261e-06 0)
(4.53439e-06 -1.86912e-06 0)
(4.75972e-06 -1.787e-06 0)
(4.98216e-06 -1.70577e-06 0)
(5.20171e-06 -1.6249e-06 0)
(5.41849e-06 -1.54381e-06 0)
(5.63265e-06 -1.46201e-06 0)
(5.84437e-06 -1.37889e-06 0)
(6.05395e-06 -1.29392e-06 0)
(6.26164e-06 -1.20659e-06 0)
(6.46787e-06 -1.11635e-06 0)
(6.673e-06 -1.02274e-06 0)
(6.87776e-06 -9.25557e-07 0)
(2.58101e-06 -2.70651e-06 0)
(2.81645e-06 -2.60936e-06 0)
(3.0523e-06 -2.51349e-06 0)
(3.28704e-06 -2.41885e-06 0)
(3.52078e-06 -2.32598e-06 0)
(3.75282e-06 -2.23496e-06 0)
(3.983e-06 -2.14587e-06 0)
(4.211e-06 -2.05858e-06 0)
(4.43666e-06 -1.97281e-06 0)
(4.65988e-06 -1.88824e-06 0)
(4.88061e-06 -1.8045e-06 0)
(5.09885e-06 -1.72112e-06 0)
(5.31469e-06 -1.63762e-06 0)
(5.52822e-06 -1.55357e-06 0)
(5.73961e-06 -1.46845e-06 0)
(5.94911e-06 -1.38181e-06 0)
(6.15694e-06 -1.29323e-06 0)
(6.3635e-06 -1.20224e-06 0)
(6.56914e-06 -1.10853e-06 0)
(6.77449e-06 -1.01198e-06 0)
(2.52006e-06 -2.81239e-06 0)
(2.74993e-06 -2.7166e-06 0)
(2.98047e-06 -2.62134e-06 0)
(3.21032e-06 -2.52676e-06 0)
(3.43957e-06 -2.43341e-06 0)
(3.66758e-06 -2.34144e-06 0)
(3.89417e-06 -2.25101e-06 0)
(4.11905e-06 -2.16208e-06 0)
(4.34204e-06 -2.07443e-06 0)
(4.56303e-06 -1.98783e-06 0)
(4.78195e-06 -1.90199e-06 0)
(4.99876e-06 -1.81651e-06 0)
(5.21353e-06 -1.73097e-06 0)
(5.42633e-06 -1.64504e-06 0)
(5.63728e-06 -1.55825e-06 0)
(5.8466e-06 -1.47024e-06 0)
(6.05446e-06 -1.38066e-06 0)
(6.26124e-06 -1.28915e-06 0)
(6.46726e-06 -1.19551e-06 0)
(6.67305e-06 -1.09965e-06 0)
(2.46092e-06 -2.91452e-06 0)
(2.68546e-06 -2.82e-06 0)
(2.91089e-06 -2.72542e-06 0)
(3.13599e-06 -2.63104e-06 0)
(3.36085e-06 -2.53743e-06 0)
(3.58488e-06 -2.44479e-06 0)
(3.80792e-06 -2.35336e-06 0)
(4.0297e-06 -2.26313e-06 0)
(4.25002e-06 -2.174e-06 0)
(4.46876e-06 -2.08576e-06 0)
(4.68583e-06 -1.9982e-06 0)
(4.90117e-06 -1.911e-06 0)
(5.11481e-06 -1.82379e-06 0)
(5.32681e-06 -1.73631e-06 0)
(5.53723e-06 -1.64816e-06 0)
(5.74628e-06 -1.55904e-06 0)
(5.95407e-06 -1.46869e-06 0)
(6.16099e-06 -1.37683e-06 0)
(6.36722e-06 -1.28338e-06 0)
(6.57336e-06 -1.18827e-06 0)
(2.40264e-06 -3.0132e-06 0)
(2.62208e-06 -2.9199e-06 0)
(2.8426e-06 -2.82601e-06 0)
(3.06315e-06 -2.73192e-06 0)
(3.28378e-06 -2.63822e-06 0)
(3.50398e-06 -2.54516e-06 0)
(3.72361e-06 -2.45302e-06 0)
(3.94236e-06 -2.36184e-06 0)
(4.16008e-06 -2.27157e-06 0)
(4.3766e-06 -2.18204e-06 0)
(4.59183e-06 -2.09313e-06 0)
(4.80569e-06 -2.00454e-06 0)
(5.0182e-06 -1.91598e-06 0)
(5.22935e-06 -1.82726e-06 0)
(5.43921e-06 -1.73802e-06 0)
(5.64792e-06 -1.64803e-06 0)
(5.8556e-06 -1.5571e-06 0)
(6.06256e-06 -1.46505e-06 0)
(6.26892e-06 -1.37184e-06 0)
(6.47527e-06 -1.27752e-06 0)
(2.3442e-06 -3.10874e-06 0)
(2.55881e-06 -3.01655e-06 0)
(2.77466e-06 -2.92336e-06 0)
(2.99088e-06 -2.82967e-06 0)
(3.20752e-06 -2.73605e-06 0)
(3.42411e-06 -2.64278e-06 0)
(3.64051e-06 -2.55019e-06 0)
(3.85639e-06 -2.45834e-06 0)
(4.07164e-06 -2.36723e-06 0)
(4.28606e-06 -2.27674e-06 0)
(4.49955e-06 -2.18679e-06 0)
(4.71201e-06 -2.09714e-06 0)
(4.92342e-06 -2.00754e-06 0)
(5.13376e-06 -1.91786e-06 0)
(5.34305e-06 -1.82777e-06 0)
(5.55141e-06 -1.73711e-06 0)
(5.75894e-06 -1.64578e-06 0)
(5.96585e-06 -1.55363e-06 0)
(6.17233e-06 -1.46071e-06 0)
(6.37877e-06 -1.36714e-06 0)
(2.28468e-06 -3.20137e-06 0)
(2.49468e-06 -3.11033e-06 0)
(2.7061e-06 -3.01775e-06 0)
(2.91832e-06 -2.92451e-06 0)
(3.13126e-06 -2.83112e-06 0)
(3.34452e-06 -2.73785e-06 0)
(3.55794e-06 -2.64503e-06 0)
(3.77122e-06 -2.55279e-06 0)
(3.98419e-06 -2.46112e-06 0)
(4.19667e-06 -2.36996e-06 0)
(4.40855e-06 -2.27926e-06 0)
(4.61971e-06 -2.18884e-06 0)
(4.83009e-06 -2.09847e-06 0)
(5.03966e-06 -2.00805e-06 0)
(5.24841e-06 -1.91733e-06 0)
(5.45644e-06 -1.82619e-06 0)
(5.6638e-06 -1.73458e-06 0)
(5.87064e-06 -1.64239e-06 0)
(6.07714e-06 -1.5498e-06 0)
(6.28365e-06 -1.45691e-06 0)
(2.22309e-06 -3.29148e-06 0)
(2.42862e-06 -3.20123e-06 0)
(2.63584e-06 -3.10948e-06 0)
(2.84455e-06 -3.01687e-06 0)
(3.05413e-06 -2.92381e-06 0)
(3.26445e-06 -2.8307e-06 0)
(3.47521e-06 -2.73785e-06 0)
(3.68618e-06 -2.64542e-06 0)
(3.89715e-06 -2.55343e-06 0)
(4.10795e-06 -2.46186e-06 0)
(4.31842e-06 -2.37068e-06 0)
(4.52844e-06 -2.27972e-06 0)
(4.73792e-06 -2.18881e-06 0)
(4.9468e-06 -2.09787e-06 0)
(5.15508e-06 -2.0067e-06 0)
(5.36282e-06 -1.91521e-06 0)
(5.57e-06 -1.82339e-06 0)
(5.77679e-06 -1.73123e-06 0)
(5.98324e-06 -1.63894e-06 0)
(6.18976e-06 -1.54666e-06 0)
(2.15799e-06 -3.37897e-06 0)
(2.35971e-06 -3.28964e-06 0)
(2.56348e-06 -3.19886e-06 0)
(2.76881e-06 -3.10691e-06 0)
(2.97551e-06 -3.01434e-06 0)
(3.18324e-06 -2.92155e-06 0)
(3.39174e-06 -2.82886e-06 0)
(3.60077e-06 -2.73646e-06 0)
(3.81009e-06 -2.64437e-06 0)
(4.0195e-06 -2.5526e-06 0)
(4.22882e-06 -2.46115e-06 0)
(4.43788e-06 -2.36988e-06 0)
(4.64661e-06 -2.27862e-06 0)
(4.85495e-06 -2.18733e-06 0)
(5.06285e-06 -2.09585e-06 0)
(5.27031e-06 -2.00415e-06 0)
(5.47732e-06 -1.9122e-06 0)
(5.68409e-06 -1.82005e-06 0)
(5.89055e-06 -1.72801e-06 0)
(6.09698e-06 -1.63628e-06 0)
(2.0885e-06 -3.46475e-06 0)
(2.28672e-06 -3.37649e-06 0)
(2.48738e-06 -3.28649e-06 0)
(2.68997e-06 -3.19526e-06 0)
(2.89431e-06 -3.10328e-06 0)
(3.10001e-06 -3.01094e-06 0)
(3.3068e-06 -2.91855e-06 0)
(3.5144e-06 -2.82631e-06 0)
(3.72251e-06 -2.73429e-06 0)
(3.9309e-06 -2.6425e-06 0)
(4.13936e-06 -2.55094e-06 0)
(4.34775e-06 -2.45948e-06 0)
(4.55595e-06 -2.36802e-06 0)
(4.76384e-06 -2.27656e-06 0)
(4.97141e-06 -2.18488e-06 0)
(5.17868e-06 -2.09296e-06 0)
(5.38563e-06 -2.00094e-06 0)
(5.59232e-06 -1.90881e-06 0)
(5.79881e-06 -1.81691e-06 0)
(6.00521e-06 -1.72558e-06 0)
(2.01374e-06 -3.54815e-06 0)
(2.20892e-06 -3.4611e-06 0)
(2.40699e-06 -3.37221e-06 0)
(2.60748e-06 -3.28191e-06 0)
(2.81008e-06 -3.19071e-06 0)
(3.01441e-06 -3.09897e-06 0)
(3.22011e-06 -3.00707e-06 0)
(3.42682e-06 -2.9152e-06 0)
(3.63422e-06 -2.82339e-06 0)
(3.84203e-06 -2.73167e-06 0)
(4.05003e-06 -2.64013e-06 0)
(4.25799e-06 -2.54866e-06 0)
(4.46582e-06 -2.4571e-06 0)
(4.67344e-06 -2.36548e-06 0)
(4.88075e-06 -2.27371e-06 0)
(5.08783e-06 -2.1817e-06 0)
(5.29473e-06 -2.0896e-06 0)
(5.50141e-06 -1.99744e-06 0)
(5.70799e-06 -1.90558e-06 0)
(5.91443e-06 -1.81447e-06 0)
(1.48767e-07 -3.06359e-06 0)
(4.48361e-07 -3.0184e-06 0)
(7.54112e-07 -2.92982e-06 0)
(1.06953e-06 -2.80141e-06 0)
(1.39741e-06 -2.6381e-06 0)
(1.73951e-06 -2.44601e-06 0)
(2.0965e-06 -2.23217e-06 0)
(2.46774e-06 -2.00392e-06 0)
(2.85196e-06 -1.76868e-06 0)
(3.24613e-06 -1.53232e-06 0)
(1.44559e-07 -3.11341e-06 0)
(4.35438e-07 -3.07212e-06 0)
(7.3143e-07 -2.99111e-06 0)
(1.03551e-06 -2.87343e-06 0)
(1.35005e-06 -2.72324e-06 0)
(1.67653e-06 -2.54576e-06 0)
(2.0156e-06 -2.34696e-06 0)
(2.36653e-06 -2.13321e-06 0)
(2.72776e-06 -1.91123e-06 0)
(3.09675e-06 -1.68605e-06 0)
(1.40833e-07 -3.16441e-06 0)
(4.2397e-07 -3.12665e-06 0)
(7.11282e-07 -3.0525e-06 0)
(1.00515e-06 -2.94459e-06 0)
(1.30759e-06 -2.80656e-06 0)
(1.61981e-06 -2.64291e-06 0)
(1.94248e-06 -2.45876e-06 0)
(2.27533e-06 -2.25947e-06 0)
(2.61721e-06 -2.05086e-06 0)
(2.96643e-06 -1.83629e-06 0)
(1.37527e-07 -3.21668e-06 0)
(4.13785e-07 -3.18192e-06 0)
(6.93567e-07 -3.11362e-06 0)
(9.78734e-07 -3.01409e-06 0)
(1.27102e-06 -2.88652e-06 0)
(1.57136e-06 -2.73483e-06 0)
(1.88029e-06 -2.5636e-06 0)
(2.19753e-06 -2.37753e-06 0)
(2.5221e-06 -2.18203e-06 0)
(2.85257e-06 -1.97977e-06 0)
(1.34497e-07 -3.2702e-06 0)
(4.04423e-07 -3.23813e-06 0)
(6.77308e-07 -3.17507e-06 0)
(9.54614e-07 -3.08307e-06 0)
(1.23781e-06 -2.96497e-06 0)
(1.52767e-06 -2.82427e-06 0)
(1.82464e-06 -2.66501e-06 0)
(2.12852e-06 -2.49119e-06 0)
(2.43859e-06 -2.30773e-06 0)
(2.75301e-06 -2.11706e-06 0)
(1.3166e-07 -3.3249e-06 0)
(3.95768e-07 -3.29515e-06 0)
(6.62344e-07 -3.23666e-06 0)
(9.32617e-07 -3.15125e-06 0)
(1.20779e-06 -3.04147e-06 0)
(1.48849e-06 -2.91047e-06 0)
(1.77504e-06 -2.76194e-06 0)
(2.06718e-06 -2.59939e-06 0)
(2.36455e-06 -2.42729e-06 0)
(2.66497e-06 -2.24806e-06 0)
(1.28944e-07 -3.38071e-06 0)
(3.87533e-07 -3.35305e-06 0)
(6.48186e-07 -3.29862e-06 0)
(9.11976e-07 -3.21911e-06 0)
(1.17984e-06 -3.1168e-06 0)
(1.45237e-06 -2.99456e-06 0)
(1.72978e-06 -2.85572e-06 0)
(2.01171e-06 -2.70344e-06 0)
(2.29811e-06 -2.54172e-06 0)
(2.58649e-06 -2.37314e-06 0)
(1.26359e-07 -3.4375e-06 0)
(3.79625e-07 -3.41169e-06 0)
(6.34667e-07 -3.36086e-06 0)
(8.92409e-07 -3.28658e-06 0)
(1.1536e-06 -3.19091e-06 0)
(1.4187e-06 -3.0765e-06 0)
(1.68796e-06 -2.94641e-06 0)
(1.96088e-06 -2.80352e-06 0)
(2.23766e-06 -2.65136e-06 0)
(2.51566e-06 -2.49268e-06 0)
(1.23826e-07 -3.49519e-06 0)
(3.71891e-07 -3.47103e-06 0)
(6.21528e-07 -3.42342e-06 0)
(8.73503e-07 -3.35383e-06 0)
(1.12846e-06 -3.26415e-06 0)
(1.38678e-06 -3.15678e-06 0)
(1.64866e-06 -3.03457e-06 0)
(1.91358e-06 -2.9002e-06 0)
(2.18185e-06 -2.75677e-06 0)
(2.45085e-06 -2.60715e-06 0)
(1.21284e-07 -3.55364e-06 0)
(3.64237e-07 -3.53096e-06 0)
(6.08595e-07 -3.48624e-06 0)
(8.55012e-07 -3.42084e-06 0)
(1.10405e-06 -3.33654e-06 0)
(1.35606e-06 -3.23552e-06 0)
(1.61118e-06 -3.12043e-06 0)
(1.86887e-06 -2.9938e-06 0)
(2.12953e-06 -2.85835e-06 0)
(2.39063e-06 -2.71699e-06 0)
(1.18717e-07 -3.61272e-06 0)
(3.5658e-07 -3.59138e-06 0)
(5.95682e-07 -3.54926e-06 0)
(8.36664e-07 -3.48765e-06 0)
(1.07999e-06 -3.40821e-06 0)
(1.32601e-06 -3.31292e-06 0)
(1.57484e-06 -3.20428e-06 0)
(1.82593e-06 -3.08467e-06 0)
(2.07969e-06 -2.95649e-06 0)
(2.33378e-06 -2.82264e-06 0)
(1.1613e-07 -3.67227e-06 0)
(3.48839e-07 -3.65215e-06 0)
(5.82637e-07 -3.6124e-06 0)
(8.18224e-07 -3.55421e-06 0)
(1.05598e-06 -3.47916e-06 0)
(1.29622e-06 -3.38909e-06 0)
(1.5391e-06 -3.2863e-06 0)
(1.78405e-06 -3.17306e-06 0)
(2.03147e-06 -3.05151e-06 0)
(2.27926e-06 -2.92449e-06 0)
(1.13491e-07 -3.73217e-06 0)
(3.40891e-07 -3.71316e-06 0)
(5.69286e-07 -3.67556e-06 0)
(7.99428e-07 -3.62049e-06 0)
(1.03165e-06 -3.54944e-06 0)
(1.26624e-06 -3.46413e-06 0)
(1.50337e-06 -3.36666e-06 0)
(1.74253e-06 -3.2592e-06 0)
(1.98406e-06 -3.14371e-06 0)
(2.22612e-06 -3.0229e-06 0)
(1.10742e-07 -3.79222e-06 0)
(3.3261e-07 -3.7742e-06 0)
(5.55449e-07 -3.73859e-06 0)
(7.80019e-07 -3.68638e-06 0)
(1.00666e-06 -3.61899e-06 0)
(1.23563e-06 -3.53802e-06 0)
(1.46714e-06 -3.44543e-06 0)
(1.70073e-06 -3.34326e-06 0)
(1.9367e-06 -3.23332e-06 0)
(2.17344e-06 -3.11816e-06 0)
(1.07836e-07 -3.85225e-06 0)
(3.23887e-07 -3.83516e-06 0)
(5.40944e-07 -3.80137e-06 0)
(7.59738e-07 -3.75181e-06 0)
(9.80654e-07 -3.68779e-06 0)
(1.20395e-06 -3.61083e-06 0)
(1.42984e-06 -3.52273e-06 0)
(1.65798e-06 -3.42542e-06 0)
(1.88858e-06 -3.32058e-06 0)
(2.12027e-06 -3.21058e-06 0)
(1.04742e-07 -3.91196e-06 0)
(3.14634e-07 -3.89572e-06 0)
(5.25594e-07 -3.86365e-06 0)
(7.38321e-07 -3.81656e-06 0)
(9.5327e-07 -3.75568e-06 0)
(1.17072e-06 -3.68243e-06 0)
(1.39092e-06 -3.59849e-06 0)
(1.61361e-06 -3.50568e-06 0)
(1.83892e-06 -3.40556e-06 0)
(2.06574e-06 -3.30029e-06 0)
(1.01432e-07 -3.97125e-06 0)
(3.0473e-07 -3.95582e-06 0)
(5.09163e-07 -3.92536e-06 0)
(7.15433e-07 -3.88059e-06 0)
(9.24078e-07 -3.82266e-06 0)
(1.13541e-06 -3.7529e-06 0)
(1.34973e-06 -3.67287e-06 0)
(1.56683e-06 -3.58428e-06 0)
(1.78683e-06 -3.48855e-06 0)
(2.00879e-06 -3.3877e-06 0)
(9.7857e-08 -4.02948e-06 0)
(2.94019e-07 -4.01483e-06 0)
(4.91395e-07 -3.9859e-06 0)
(6.90718e-07 -3.94335e-06 0)
(8.92609e-07 -3.88824e-06 0)
(1.09745e-06 -3.8218e-06 0)
(1.30556e-06 -3.74549e-06 0)
(1.51682e-06 -3.6609e-06 0)
(1.73136e-06 -3.56933e-06 0)
(1.94842e-06 -3.47266e-06 0)
(9.39365e-08 -4.08694e-06 0)
(2.82263e-07 -4.07304e-06 0)
(4.71905e-07 -4.04558e-06 0)
(6.63663e-07 -4.00518e-06 0)
(8.58218e-07 -3.9528e-06 0)
(1.05604e-06 -3.88959e-06 0)
(1.25749e-06 -3.81686e-06 0)
(1.46256e-06 -3.73611e-06 0)
(1.67136e-06 -3.64856e-06 0)
(1.88338e-06 -3.55588e-06 0)
(8.96303e-08 -4.1419e-06 0)
(2.69369e-07 -4.12874e-06 0)
(4.50534e-07 -4.10276e-06 0)
(6.34006e-07 -4.06451e-06 0)
(8.20562e-07 -4.01485e-06 0)
(1.01076e-06 -3.95485e-06 0)
(1.205e-06 -3.88571e-06 0)
(1.40347e-06 -3.80881e-06 0)
(1.6062e-06 -3.72527e-06 0)
(1.81297e-06 -3.63661e-06 0)
)


// ************************************************************************* //
