/*--------------------------------*- C++ -*----------------------------------*\
| =========                 |                                                 |
| \\      /  F ield         | foam-extend: Open Source CFD                    |
|  \\    /   O peration     | Version:     4.1                                |
|   \\  /    A nd           | Web:         http://www.foam-extend.org         |
|    \\/     M anipulation  |                                                 |
\*---------------------------------------------------------------------------*/
FoamFile
{
    version     2.0;
    format      ascii;
    class       vectorField;
    location    "7";
    object      solidsCellD_iteration11;
}
// * * * * * * * * * * * * * * * * * * * * * * * * * * * * * * * * * * * * * //


1000
(
(3.63002e-06 -1.53709e-06 0)
(3.42492e-06 -1.43056e-06 0)
(3.29391e-06 -1.36305e-06 0)
(3.21867e-06 -1.33164e-06 0)
(3.18189e-06 -1.32088e-06 0)
(3.17319e-06 -1.32606e-06 0)
(3.18516e-06 -1.34165e-06 0)
(3.21263e-06 -1.365e-06 0)
(3.25183e-06 -1.39356e-06 0)
(3.29978e-06 -1.42579e-06 0)
(3.28217e-06 -1.67902e-06 0)
(3.06378e-06 -1.60496e-06 0)
(2.92438e-06 -1.55799e-06 0)
(2.84296e-06 -1.54054e-06 0)
(2.80132e-06 -1.53906e-06 0)
(2.78825e-06 -1.5508e-06 0)
(2.79602e-06 -1.57106e-06 0)
(2.81913e-06 -1.5979e-06 0)
(2.85364e-06 -1.6293e-06 0)
(2.8961e-06 -1.66336e-06 0)
(2.92077e-06 -1.81352e-06 0)
(2.69767e-06 -1.77576e-06 0)
(2.55532e-06 -1.75177e-06 0)
(2.47121e-06 -1.74974e-06 0)
(2.42697e-06 -1.75834e-06 0)
(2.41089e-06 -1.77704e-06 0)
(2.41526e-06 -1.80215e-06 0)
(2.43454e-06 -1.83244e-06 0)
(2.46471e-06 -1.86656e-06 0)
(2.50249e-06 -1.90245e-06 0)
(2.54849e-06 -1.93822e-06 0)
(2.33006e-06 -1.93853e-06 0)
(2.19072e-06 -1.93866e-06 0)
(2.10762e-06 -1.9527e-06 0)
(2.06308e-06 -1.97177e-06 0)
(2.04543e-06 -1.99761e-06 0)
(2.04718e-06 -2.02759e-06 0)
(2.06301e-06 -2.0613e-06 0)
(2.08911e-06 -2.09802e-06 0)
(2.12218e-06 -2.13589e-06 0)
(2.16795e-06 -2.05068e-06 0)
(1.96343e-06 -2.08872e-06 0)
(1.833e-06 -2.11274e-06 0)
(1.75479e-06 -2.14264e-06 0)
(1.71227e-06 -2.172e-06 0)
(1.6944e-06 -2.20485e-06 0)
(1.69432e-06 -2.23955e-06 0)
(1.70706e-06 -2.2766e-06 0)
(1.72921e-06 -2.31581e-06 0)
(1.75749e-06 -2.35574e-06 0)
(1.78092e-06 -2.1486e-06 0)
(1.5994e-06 -2.22192e-06 0)
(1.48369e-06 -2.26833e-06 0)
(1.41392e-06 -2.31309e-06 0)
(1.3756e-06 -2.35204e-06 0)
(1.35883e-06 -2.3914e-06 0)
(1.3577e-06 -2.43045e-06 0)
(1.3677e-06 -2.47061e-06 0)
(1.3859e-06 -2.5121e-06 0)
(1.40922e-06 -2.55404e-06 0)
(1.38937e-06 -2.22976e-06 0)
(1.23885e-06 -2.33402e-06 0)
(1.14292e-06 -2.40007e-06 0)
(1.08486e-06 -2.45783e-06 0)
(1.05275e-06 -2.50517e-06 0)
(1.03835e-06 -2.5502e-06 0)
(1.03681e-06 -2.59305e-06 0)
(1.04429e-06 -2.63594e-06 0)
(1.05848e-06 -2.67942e-06 0)
(1.0767e-06 -2.72318e-06 0)
(9.94585e-07 -2.29238e-06 0)
(8.81817e-07 -2.42149e-06 0)
(8.09992e-07 -2.50328e-06 0)
(7.66451e-07 -2.57144e-06 0)
(7.42264e-07 -2.62553e-06 0)
(7.31232e-07 -2.67514e-06 0)
(7.29721e-07 -2.72107e-06 0)
(7.34872e-07 -2.76616e-06 0)
(7.45021e-07 -2.81123e-06 0)
(7.5808e-07 -2.85652e-06 0)
(5.97658e-07 -2.33495e-06 0)
(5.27846e-07 -2.48141e-06 0)
(4.83417e-07 -2.57421e-06 0)
(4.56397e-07 -2.64969e-06 0)
(4.41302e-07 -2.7085e-06 0)
(4.34333e-07 -2.76128e-06 0)
(4.3328e-07 -2.80936e-06 0)
(4.36325e-07 -2.85605e-06 0)
(4.4241e-07 -2.90226e-06 0)
(4.50246e-07 -2.94865e-06 0)
(1.99601e-07 -2.35639e-06 0)
(1.75958e-07 -2.51184e-06 0)
(1.60832e-07 -2.6103e-06 0)
(1.51638e-07 -2.68954e-06 0)
(1.46537e-07 -2.75079e-06 0)
(1.44138e-07 -2.80524e-06 0)
(1.43696e-07 -2.85442e-06 0)
(1.44676e-07 -2.9019e-06 0)
(1.46715e-07 -2.9487e-06 0)
(1.49321e-07 -2.99567e-06 0)
(5.66597e-06 -7.01394e-08 0)
(5.71712e-06 -5.05419e-08 0)
(5.74804e-06 -3.81184e-08 0)
(5.78142e-06 -3.08069e-08 0)
(5.81783e-06 -2.67399e-08 0)
(5.8625e-06 -2.48824e-08 0)
(5.91542e-06 -2.45099e-08 0)
(5.97715e-06 -2.5051e-08 0)
(6.04757e-06 -2.63401e-08 0)
(6.12573e-06 -2.79151e-08 0)
(5.62396e-06 -2.10441e-07 0)
(5.6666e-06 -1.5279e-07 0)
(5.69221e-06 -1.16273e-07 0)
(5.72199e-06 -9.49198e-08 0)
(5.75603e-06 -8.31539e-08 0)
(5.79899e-06 -7.77175e-08 0)
(5.85071e-06 -7.66878e-08 0)
(5.91147e-06 -7.85376e-08 0)
(5.98104e-06 -8.24462e-08 0)
(6.05831e-06 -8.70805e-08 0)
(5.5401e-06 -3.51898e-07 0)
(5.56649e-06 -2.59378e-07 0)
(5.58183e-06 -2.00824e-07 0)
(5.6048e-06 -1.66545e-07 0)
(5.63433e-06 -1.47777e-07 0)
(5.67414e-06 -1.39359e-07 0)
(5.72348e-06 -1.37963e-07 0)
(5.78236e-06 -1.41155e-07 0)
(5.8503e-06 -1.47632e-07 0)
(5.92584e-06 -1.55379e-07 0)
(5.41588e-06 -4.95177e-07 0)
(5.41916e-06 -3.72752e-07 0)
(5.41983e-06 -2.95377e-07 0)
(5.43312e-06 -2.50286e-07 0)
(5.45621e-06 -2.25702e-07 0)
(5.4915e-06 -2.14904e-07 0)
(5.53752e-06 -2.13423e-07 0)
(5.59373e-06 -2.18134e-07 0)
(5.65937e-06 -2.27197e-07 0)
(5.73251e-06 -2.3808e-07 0)
(5.25319e-06 -6.40624e-07 0)
(5.22794e-06 -4.94978e-07 0)
(5.21048e-06 -4.02949e-07 0)
(5.21175e-06 -3.49697e-07 0)
(5.22688e-06 -3.20917e-07 0)
(5.25655e-06 -3.08709e-07 0)
(5.29842e-06 -3.07663e-07 0)
(5.35128e-06 -3.14128e-07 0)
(5.41406e-06 -3.25761e-07 0)
(5.48432e-06 -3.3974e-07 0)
(5.05449e-06 -7.88336e-07 0)
(4.99692e-06 -6.27418e-07 0)
(4.95903e-06 -5.25702e-07 0)
(4.94672e-06 -4.6742e-07 0)
(4.95282e-06 -4.36373e-07 0)
(4.97605e-06 -4.23907e-07 0)
(5.01322e-06 -4.23889e-07 0)
(5.06225e-06 -4.32337e-07 0)
(5.12174e-06 -4.46537e-07 0)
(5.18872e-06 -4.63575e-07 0)
(4.82274e-06 -9.38035e-07 0)
(4.73102e-06 -7.70622e-07 0)
(4.67152e-06 -6.6475e-07 0)
(4.64486e-06 -6.04912e-07 0)
(4.64138e-06 -5.73688e-07 0)
(4.65779e-06 -5.62219e-07 0)
(4.68989e-06 -5.639e-07 0)
(4.7348e-06 -5.74596e-07 0)
(4.79068e-06 -5.91389e-07 0)
(4.85421e-06 -6.11408e-07 0)
(4.56102e-06 -1.08899e-06 0)
(4.43546e-06 -9.24223e-07 0)
(4.35457e-06 -8.19947e-07 0)
(4.31362e-06 -7.62177e-07 0)
(4.3006e-06 -7.32967e-07 0)
(4.31009e-06 -7.23821e-07 0)
(4.33696e-06 -7.27918e-07 0)
(4.3776e-06 -7.41219e-07 0)
(4.42965e-06 -7.60664e-07 0)
(4.48961e-06 -7.83642e-07 0)
(4.27272e-06 -1.24018e-06 0)
(4.11571e-06 -1.08694e-06 0)
(4.01496e-06 -9.89955e-07 0)
(3.96063e-06 -9.37811e-07 0)
(3.93857e-06 -9.12805e-07 0)
(3.94135e-06 -9.07256e-07 0)
(3.963e-06 -9.14504e-07 0)
(3.99931e-06 -9.30718e-07 0)
(4.04735e-06 -9.53016e-07 0)
(4.10374e-06 -9.78717e-07 0)
(3.96128e-06 -1.39016e-06 0)
(3.77721e-06 -1.25669e-06 0)
(3.65937e-06 -1.17219e-06 0)
(3.59336e-06 -1.12901e-06 0)
(3.56322e-06 -1.11026e-06 0)
(3.55989e-06 -1.10954e-06 0)
(3.57668e-06 -1.12064e-06 0)
(3.6087e-06 -1.14031e-06 0)
(3.65281e-06 -1.16562e-06 0)
(3.70532e-06 -1.1952e-06 0)
(6.21183e-06 -2.94465e-08 0)
(6.30569e-06 -2.97731e-08 0)
(6.40551e-06 -3.01575e-08 0)
(6.51094e-06 -3.04282e-08 0)
(6.62132e-06 -3.05584e-08 0)
(6.73624e-06 -3.05342e-08 0)
(6.85519e-06 -3.03043e-08 0)
(6.97768e-06 -2.98979e-08 0)
(7.10336e-06 -2.93215e-08 0)
(7.23186e-06 -2.85361e-08 0)
(7.36277e-06 -2.7507e-08 0)
(7.49568e-06 -2.62218e-08 0)
(7.63025e-06 -2.46665e-08 0)
(7.76606e-06 -2.28282e-08 0)
(7.90278e-06 -2.06783e-08 0)
(8.03987e-06 -1.81681e-08 0)
(8.17709e-06 -1.52349e-08 0)
(8.31351e-06 -1.18209e-08 0)
(8.44934e-06 -7.84831e-09 0)
(8.58239e-06 -3.28929e-09 0)
(6.1474e-06 -9.1335e-08 0)
(6.24665e-06 -9.19112e-08 0)
(6.35129e-06 -9.26979e-08 0)
(6.46092e-06 -9.31999e-08 0)
(6.57506e-06 -9.32829e-08 0)
(6.69327e-06 -9.29724e-08 0)
(6.81518e-06 -9.21708e-08 0)
(6.94039e-06 -9.08774e-08 0)
(7.06855e-06 -8.90149e-08 0)
(7.19928e-06 -8.65049e-08 0)
(7.33222e-06 -8.33111e-08 0)
(7.46705e-06 -7.94145e-08 0)
(7.60342e-06 -7.47472e-08 0)
(7.74093e-06 -6.92218e-08 0)
(7.87926e-06 -6.273e-08 0)
(8.01789e-06 -5.51502e-08 0)
(8.15658e-06 -4.63243e-08 0)
(8.29443e-06 -3.60914e-08 0)
(8.43166e-06 -2.42046e-08 0)
(8.56605e-06 -1.05609e-08 0)
(6.02077e-06 -1.61485e-07 0)
(6.13063e-06 -1.6112e-07 0)
(6.24472e-06 -1.61206e-07 0)
(6.36251e-06 -1.61113e-07 0)
(6.48395e-06 -1.60506e-07 0)
(6.60868e-06 -1.5941e-07 0)
(6.73648e-06 -1.57588e-07 0)
(6.86695e-06 -1.55006e-07 0)
(6.99989e-06 -1.51531e-07 0)
(7.13499e-06 -1.47076e-07 0)
(7.27198e-06 -1.41578e-07 0)
(7.41057e-06 -1.34965e-07 0)
(7.55044e-06 -1.2709e-07 0)
(7.69123e-06 -1.17793e-07 0)
(7.83265e-06 -1.06902e-07 0)
(7.97425e-06 -9.42274e-08 0)
(8.11582e-06 -7.95054e-08 0)
(8.25649e-06 -6.24683e-08 0)
(8.39649e-06 -4.26967e-08 0)
(8.53367e-06 -2.00017e-08 0)
(5.83576e-06 -2.4458e-07 0)
(5.96076e-06 -2.41391e-07 0)
(6.08853e-06 -2.39064e-07 0)
(6.21822e-06 -2.37075e-07 0)
(6.35036e-06 -2.34694e-07 0)
(6.48455e-06 -2.31952e-07 0)
(6.62089e-06 -2.284e-07 0)
(6.75907e-06 -2.2398e-07 0)
(6.89908e-06 -2.18471e-07 0)
(7.04066e-06 -2.11744e-07 0)
(7.18362e-06 -2.0367e-07 0)
(7.32772e-06 -1.94105e-07 0)
(7.47272e-06 -1.82836e-07 0)
(7.61834e-06 -1.69648e-07 0)
(7.76435e-06 -1.54312e-07 0)
(7.91033e-06 -1.36535e-07 0)
(8.0561e-06 -1.15946e-07 0)
(8.20088e-06 -9.21513e-08 0)
(8.34487e-06 -6.45462e-08 0)
(8.48607e-06 -3.2884e-08 0)
(5.59792e-06 -3.44757e-07 0)
(5.74198e-06 -3.36339e-07 0)
(5.88711e-06 -3.29435e-07 0)
(6.03186e-06 -3.23893e-07 0)
(6.17764e-06 -3.18324e-07 0)
(6.32395e-06 -3.12786e-07 0)
(6.47128e-06 -3.06571e-07 0)
(6.61942e-06 -2.99576e-07 0)
(6.7685e-06 -2.91436e-07 0)
(6.91837e-06 -2.81945e-07 0)
(7.069e-06 -2.70909e-07 0)
(7.22023e-06 -2.58104e-07 0)
(7.37192e-06 -2.43238e-07 0)
(7.52383e-06 -2.26022e-07 0)
(7.6758e-06 -2.06144e-07 0)
(7.82744e-06 -1.83214e-07 0)
(7.97868e-06 -1.56749e-07 0)
(8.12872e-06 -1.26241e-07 0)
(8.27793e-06 -9.08837e-08 0)
(8.42433e-06 -5.03748e-08 0)
(5.31399e-06 -4.65019e-07 0)
(5.47997e-06 -4.48579e-07 0)
(5.64542e-06 -4.34507e-07 0)
(5.80795e-06 -4.23369e-07 0)
(5.96993e-06 -4.12929e-07 0)
(6.13072e-06 -4.03223e-07 0)
(6.29114e-06 -3.9323e-07 0)
(6.45119e-06 -3.82726e-07 0)
(6.61116e-06 -3.71233e-07 0)
(6.77104e-06 -3.58433e-07 0)
(6.93093e-06 -3.44021e-07 0)
(7.09076e-06 -3.27666e-07 0)
(7.25048e-06 -3.08977e-07 0)
(7.40992e-06 -2.87582e-07 0)
(7.56902e-06 -2.63071e-07 0)
(7.72746e-06 -2.34963e-07 0)
(7.88525e-06 -2.02651e-07 0)
(8.04164e-06 -1.65521e-07 0)
(8.19711e-06 -1.22564e-07 0)
(8.34976e-06 -7.33662e-08 0)
(4.99193e-06 -6.07204e-07 0)
(5.18174e-06 -5.79897e-07 0)
(5.36962e-06 -5.5608e-07 0)
(5.55193e-06 -5.37159e-07 0)
(5.73198e-06 -5.2007e-07 0)
(5.90907e-06 -5.04658e-07 0)
(6.08433e-06 -4.89703e-07 0)
(6.2579e-06 -4.74715e-07 0)
(6.43029e-06 -4.59084e-07 0)
(6.60163e-06 -4.42342e-07 0)
(6.77212e-06 -4.2404e-07 0)
(6.9418e-06 -4.0372e-07 0)
(7.1107e-06 -3.80893e-07 0)
(7.27879e-06 -3.55103e-07 0)
(7.44608e-06 -3.25832e-07 0)
(7.61234e-06 -2.92505e-07 0)
(7.77765e-06 -2.54379e-07 0)
(7.94136e-06 -2.10713e-07 0)
(8.10399e-06 -1.6031e-07 0)
(8.2638e-06 -1.02631e-07 0)
(4.63966e-06 -7.71738e-07 0)
(4.85406e-06 -7.30426e-07 0)
(5.06548e-06 -6.94285e-07 0)
(5.26899e-06 -6.65138e-07 0)
(5.46855e-06 -6.39534e-07 0)
(5.66342e-06 -6.16795e-07 0)
(5.85499e-06 -5.95588e-07 0)
(6.04353e-06 -5.75084e-07 0)
(6.22964e-06 -5.54506e-07 0)
(6.41364e-06 -5.33185e-07 0)
(6.59584e-06 -5.1051e-07 0)
(6.7764e-06 -4.85878e-07 0)
(6.95547e-06 -4.58693e-07 0)
(7.13315e-06 -4.28391e-07 0)
(7.30952e-06 -3.94336e-07 0)
(7.48445e-06 -3.55837e-07 0)
(7.65807e-06 -3.12011e-07 0)
(7.82987e-06 -2.61979e-07 0)
(8.0004e-06 -2.04355e-07 0)
(8.16814e-06 -1.38475e-07 0)
(4.26576e-06 -9.5828e-07 0)
(4.50484e-06 -9.00363e-07 0)
(4.73985e-06 -8.50254e-07 0)
(4.96531e-06 -8.0879e-07 0)
(5.18502e-06 -7.73011e-07 0)
(5.39857e-06 -7.4146e-07 0)
(5.60729e-06 -7.1271e-07 0)
(5.81168e-06 -6.85584e-07 0)
(6.01243e-06 -6.59115e-07 0)
(6.20999e-06 -6.32424e-07 0)
(6.40477e-06 -6.04725e-07 0)
(6.59706e-06 -5.75278e-07 0)
(6.78714e-06 -5.43362e-07 0)
(6.97519e-06 -5.08288e-07 0)
(7.16138e-06 -4.69287e-07 0)
(7.34568e-06 -4.25539e-07 0)
(7.52829e-06 -3.76019e-07 0)
(7.70881e-06 -3.19716e-07 0)
(7.88788e-06 -2.5508e-07 0)
(8.06421e-06 -1.81336e-07 0)
(3.87732e-06 -1.16357e-06 0)
(4.14132e-06 -1.08503e-06 0)
(4.39901e-06 -1.01921e-06 0)
(4.647e-06 -9.63462e-07 0)
(4.88727e-06 -9.15867e-07 0)
(5.12029e-06 -8.74191e-07 0)
(5.34693e-06 -8.36825e-07 0)
(5.56792e-06 -8.02283e-07 0)
(5.78402e-06 -7.6934e-07 0)
(5.99579e-06 -7.36878e-07 0)
(6.20375e-06 -7.03909e-07 0)
(6.40833e-06 -6.69522e-07 0)
(6.60991e-06 -6.32847e-07 0)
(6.80879e-06 -5.9305e-07 0)
(7.00519e-06 -5.49224e-07 0)
(7.19923e-06 -5.00418e-07 0)
(7.39116e-06 -4.45478e-07 0)
(7.58075e-06 -3.83244e-07 0)
(7.76872e-06 -3.12026e-07 0)
(7.95407e-06 -2.30887e-07 0)
(3.58907e-06 -1.36049e-06 0)
(3.86961e-06 -1.26521e-06 0)
(4.14084e-06 -1.1876e-06 0)
(4.40271e-06 -1.12044e-06 0)
(4.65597e-06 -1.06243e-06 0)
(4.90136e-06 -1.01127e-06 0)
(5.13966e-06 -9.65259e-07 0)
(5.37162e-06 -9.22873e-07 0)
(5.59795e-06 -8.82773e-07 0)
(5.81922e-06 -8.43735e-07 0)
(6.036e-06 -8.04674e-07 0)
(6.24876e-06 -7.64584e-07 0)
(6.45793e-06 -7.22498e-07 0)
(6.66386e-06 -6.77481e-07 0)
(6.86683e-06 -6.28546e-07 0)
(7.06704e-06 -5.74651e-07 0)
(7.26482e-06 -5.14607e-07 0)
(7.46014e-06 -4.47166e-07 0)
(7.6537e-06 -3.7062e-07 0)
(7.84483e-06 -2.83958e-07 0)
(3.42424e-06 -1.52049e-06 0)
(3.70675e-06 -1.42154e-06 0)
(3.98025e-06 -1.33731e-06 0)
(4.24566e-06 -1.26315e-06 0)
(4.50303e-06 -1.19783e-06 0)
(4.75282e-06 -1.13942e-06 0)
(4.99562e-06 -1.08634e-06 0)
(5.23199e-06 -1.03716e-06 0)
(5.46253e-06 -9.90565e-07 0)
(5.68775e-06 -9.45346e-07 0)
(5.90818e-06 -9.00423e-07 0)
(6.12426e-06 -8.54776e-07 0)
(6.33644e-06 -8.07413e-07 0)
(6.54507e-06 -7.57372e-07 0)
(6.75045e-06 -7.0366e-07 0)
(6.95286e-06 -6.45213e-07 0)
(7.15265e-06 -5.80888e-07 0)
(7.34994e-06 -5.09445e-07 0)
(7.54542e-06 -4.2926e-07 0)
(7.73869e-06 -3.39354e-07 0)
(3.28327e-06 -1.67404e-06 0)
(3.56305e-06 -1.57283e-06 0)
(3.83615e-06 -1.48435e-06 0)
(4.1022e-06 -1.40488e-06 0)
(4.36116e-06 -1.33355e-06 0)
(4.61312e-06 -1.26881e-06 0)
(4.85847e-06 -1.20932e-06 0)
(5.09758e-06 -1.15378e-06 0)
(5.3309e-06 -1.10096e-06 0)
(5.55885e-06 -1.04975e-06 0)
(5.78191e-06 -9.99084e-07 0)
(6.00049e-06 -9.47959e-07 0)
(6.21499e-06 -8.95382e-07 0)
(6.42575e-06 -8.40395e-07 0)
(6.6331e-06 -7.82015e-07 0)
(6.83737e-06 -7.19187e-07 0)
(7.03893e-06 -6.50823e-07 0)
(7.23799e-06 -5.75731e-07 0)
(7.43524e-06 -4.92392e-07 0)
(7.63054e-06 -3.99895e-07 0)
(3.15887e-06 -1.82215e-06 0)
(3.43467e-06 -1.71983e-06 0)
(3.70545e-06 -1.62814e-06 0)
(3.97024e-06 -1.5443e-06 0)
(4.22894e-06 -1.4678e-06 0)
(4.48137e-06 -1.39746e-06 0)
(4.72774e-06 -1.33215e-06 0)
(4.96822e-06 -1.27073e-06 0)
(5.20314e-06 -1.2121e-06 0)
(5.43283e-06 -1.15522e-06 0)
(5.65767e-06 -1.0991e-06 0)
(5.87802e-06 -1.04274e-06 0)
(6.09424e-06 -9.85186e-07 0)
(6.30667e-06 -9.25498e-07 0)
(6.51562e-06 -8.6272e-07 0)
(6.72145e-06 -7.95832e-07 0)
(6.92454e-06 -7.23812e-07 0)
(7.12521e-06 -6.45534e-07 0)
(7.32406e-06 -5.59602e-07 0)
(7.52128e-06 -4.65212e-07 0)
(3.04919e-06 -1.96401e-06 0)
(3.31989e-06 -1.86144e-06 0)
(3.58699e-06 -1.76767e-06 0)
(3.84909e-06 -1.68057e-06 0)
(4.10612e-06 -1.5999e-06 0)
(4.35765e-06 -1.52482e-06 0)
(4.60374e-06 -1.4544e-06 0)
(4.84442e-06 -1.38769e-06 0)
(5.07991e-06 -1.32374e-06 0)
(5.31043e-06 -1.26159e-06 0)
(5.53627e-06 -1.20033e-06 0)
(5.75772e-06 -1.13904e-06 0)
(5.9751e-06 -1.07677e-06 0)
(6.18873e-06 -1.01264e-06 0)
(6.39891e-06 -9.45734e-07 0)
(6.60601e-06 -8.75088e-07 0)
(6.8104e-06 -7.99752e-07 0)
(7.01246e-06 -7.18684e-07 0)
(7.21278e-06 -6.30637e-07 0)
(7.41175e-06 -5.3494e-07 0)
(2.95162e-06 -2.09979e-06 0)
(3.21666e-06 -1.9976e-06 0)
(3.47925e-06 -1.90254e-06 0)
(3.73769e-06 -1.813e-06 0)
(3.99201e-06 -1.729e-06 0)
(4.24157e-06 -1.64992e-06 0)
(4.48637e-06 -1.57506e-06 0)
(4.7263e-06 -1.50368e-06 0)
(4.96148e-06 -1.43493e-06 0)
(5.19203e-06 -1.36799e-06 0)
(5.41818e-06 -1.30201e-06 0)
(5.64012e-06 -1.23614e-06 0)
(5.85815e-06 -1.1695e-06 0)
(6.07255e-06 -1.10126e-06 0)
(6.2836e-06 -1.03056e-06 0)
(6.49168e-06 -9.56507e-07 0)
(6.69713e-06 -8.7823e-07 0)
(6.90038e-06 -7.94786e-07 0)
(7.10202e-06 -7.05097e-07 0)
(7.30252e-06 -6.08606e-07 0)
(2.8642e-06 -2.22967e-06 0)
(3.12326e-06 -2.12832e-06 0)
(3.38079e-06 -2.03259e-06 0)
(3.63494e-06 -1.94133e-06 0)
(3.88579e-06 -1.85473e-06 0)
(4.13261e-06 -1.77236e-06 0)
(4.37531e-06 -1.69374e-06 0)
(4.61373e-06 -1.61829e-06 0)
(4.84788e-06 -1.54529e-06 0)
(5.07781e-06 -1.47403e-06 0)
(5.30365e-06 -1.40377e-06 0)
(5.52556e-06 -1.33372e-06 0)
(5.74379e-06 -1.26307e-06 0)
(5.95856e-06 -1.19108e-06 0)
(6.17016e-06 -1.11692e-06 0)
(6.37894e-06 -1.03982e-06 0)
(6.58523e-06 -9.58963e-07 0)
(6.78948e-06 -8.73528e-07 0)
(6.99226e-06 -7.82612e-07 0)
(7.19407e-06 -6.85727e-07 0)
(2.78509e-06 -2.35396e-06 0)
(3.03811e-06 -2.25374e-06 0)
(3.29025e-06 -2.15782e-06 0)
(3.53972e-06 -2.06539e-06 0)
(3.78658e-06 -1.97679e-06 0)
(4.03008e-06 -1.89176e-06 0)
(4.27011e-06 -1.80999e-06 0)
(4.50642e-06 -1.73104e-06 0)
(4.73896e-06 -1.65433e-06 0)
(4.96771e-06 -1.57925e-06 0)
(5.19276e-06 -1.50516e-06 0)
(5.41419e-06 -1.43135e-06 0)
(5.63222e-06 -1.35709e-06 0)
(5.84705e-06 -1.28172e-06 0)
(6.05891e-06 -1.20447e-06 0)
(6.26815e-06 -1.12467e-06 0)
(6.47507e-06 -1.0416e-06 0)
(6.68015e-06 -9.54546e-07 0)
(6.88388e-06 -8.62758e-07 0)
(7.08682e-06 -7.65808e-07 0)
(2.71266e-06 -2.47304e-06 0)
(2.95965e-06 -2.37412e-06 0)
(3.20628e-06 -2.27834e-06 0)
(3.45085e-06 -2.1852e-06 0)
(3.6934e-06 -2.0951e-06 0)
(3.93323e-06 -2.00794e-06 0)
(4.17017e-06 -1.92358e-06 0)
(4.40393e-06 -1.84167e-06 0)
(4.63443e-06 -1.76176e-06 0)
(4.86159e-06 -1.68334e-06 0)
(5.08545e-06 -1.60588e-06 0)
(5.30606e-06 -1.52874e-06 0)
(5.52358e-06 -1.45127e-06 0)
(5.73817e-06 -1.3729e-06 0)
(5.95006e-06 -1.29294e-06 0)
(6.15956e-06 -1.2108e-06 0)
(6.36694e-06 -1.12586e-06 0)
(6.57268e-06 -1.03751e-06 0)
(6.77718e-06 -9.45136e-07 0)
(6.98109e-06 -8.48405e-07 0)
(2.64547e-06 -2.58728e-06 0)
(2.88652e-06 -2.48975e-06 0)
(3.12767e-06 -2.39434e-06 0)
(3.36724e-06 -2.30081e-06 0)
(3.60534e-06 -2.20964e-06 0)
(3.84127e-06 -2.12082e-06 0)
(4.07486e-06 -2.03434e-06 0)
(4.30579e-06 -1.94996e-06 0)
(4.53393e-06 -1.86733e-06 0)
(4.75919e-06 -1.78605e-06 0)
(4.98157e-06 -1.70566e-06 0)
(5.20108e-06 -1.62562e-06 0)
(5.41785e-06 -1.54535e-06 0)
(5.63199e-06 -1.46437e-06 0)
(5.84371e-06 -1.38206e-06 0)
(6.05328e-06 -1.29792e-06 0)
(6.26097e-06 -1.21144e-06 0)
(6.46719e-06 -1.12208e-06 0)
(6.6723e-06 -1.02936e-06 0)
(6.877e-06 -9.33087e-07 0)
(2.58222e-06 -2.69708e-06 0)
(2.81753e-06 -2.60095e-06 0)
(3.05326e-06 -2.50606e-06 0)
(3.28787e-06 -2.4124e-06 0)
(3.52149e-06 -2.32049e-06 0)
(3.75342e-06 -2.23041e-06 0)
(3.98351e-06 -2.14223e-06 0)
(4.21143e-06 -2.05583e-06 0)
(4.43702e-06 -1.97094e-06 0)
(4.66019e-06 -1.88724e-06 0)
(4.88088e-06 -1.80435e-06 0)
(5.09909e-06 -1.72182e-06 0)
(5.31492e-06 -1.63915e-06 0)
(5.52844e-06 -1.55592e-06 0)
(5.73983e-06 -1.47162e-06 0)
(5.94934e-06 -1.38581e-06 0)
(6.15717e-06 -1.29807e-06 0)
(6.36372e-06 -1.20794e-06 0)
(6.56934e-06 -1.11509e-06 0)
(6.77462e-06 -1.01941e-06 0)
(2.52177e-06 -2.80282e-06 0)
(2.75157e-06 -2.70803e-06 0)
(2.98203e-06 -2.61376e-06 0)
(3.21179e-06 -2.52017e-06 0)
(3.44097e-06 -2.42779e-06 0)
(3.6689e-06 -2.33677e-06 0)
(3.89543e-06 -2.24728e-06 0)
(4.12025e-06 -2.15925e-06 0)
(4.34319e-06 -2.0725e-06 0)
(4.56415e-06 -1.98679e-06 0)
(4.78305e-06 -1.90181e-06 0)
(4.99984e-06 -1.81718e-06 0)
(5.21461e-06 -1.73249e-06 0)
(5.42741e-06 -1.64738e-06 0)
(5.63837e-06 -1.56142e-06 0)
(5.8477e-06 -1.47423e-06 0)
(6.05556e-06 -1.38548e-06 0)
(6.26233e-06 -1.2948e-06 0)
(6.46832e-06 -1.202e-06 0)
(6.67405e-06 -1.10698e-06 0)
(2.46314e-06 -2.90483e-06 0)
(2.68765e-06 -2.81131e-06 0)
(2.91304e-06 -2.71773e-06 0)
(3.13811e-06 -2.62434e-06 0)
(3.36292e-06 -2.53171e-06 0)
(3.58692e-06 -2.44003e-06 0)
(3.80992e-06 -2.34955e-06 0)
(4.03166e-06 -2.26025e-06 0)
(4.25196e-06 -2.17202e-06 0)
(4.47068e-06 -2.08468e-06 0)
(4.68774e-06 -1.998e-06 0)
(4.90307e-06 -1.91165e-06 0)
(5.11672e-06 -1.82529e-06 0)
(5.32872e-06 -1.73865e-06 0)
(5.53916e-06 -1.65133e-06 0)
(5.74821e-06 -1.56303e-06 0)
(5.95601e-06 -1.47348e-06 0)
(6.16292e-06 -1.38243e-06 0)
(6.36912e-06 -1.2898e-06 0)
(6.57519e-06 -1.19549e-06 0)
(2.40536e-06 -3.00342e-06 0)
(2.62483e-06 -2.91112e-06 0)
(2.84536e-06 -2.81823e-06 0)
(3.0659e-06 -2.72515e-06 0)
(3.28653e-06 -2.63243e-06 0)
(3.50672e-06 -2.54034e-06 0)
(3.72634e-06 -2.44915e-06 0)
(3.94509e-06 -2.35891e-06 0)
(4.1628e-06 -2.26956e-06 0)
(4.37932e-06 -2.18094e-06 0)
(4.59454e-06 -2.09291e-06 0)
(4.8084e-06 -2.00518e-06 0)
(5.02092e-06 -1.91749e-06 0)
(5.23208e-06 -1.8296e-06 0)
(5.44195e-06 -1.74118e-06 0)
(5.65068e-06 -1.652e-06 0)
(5.85835e-06 -1.56187e-06 0)
(6.0653e-06 -1.47061e-06 0)
(6.27164e-06 -1.37817e-06 0)
(6.47792e-06 -1.28461e-06 0)
(2.34746e-06 -3.09891e-06 0)
(2.56213e-06 -3.00772e-06 0)
(2.77804e-06 -2.91554e-06 0)
(2.99429e-06 -2.82284e-06 0)
(3.21096e-06 -2.7302e-06 0)
(3.42757e-06 -2.63792e-06 0)
(3.64398e-06 -2.54628e-06 0)
(3.85988e-06 -2.45538e-06 0)
(4.07513e-06 -2.36519e-06 0)
(4.28956e-06 -2.27561e-06 0)
(4.50305e-06 -2.18655e-06 0)
(4.71551e-06 -2.09778e-06 0)
(4.92693e-06 -2.00905e-06 0)
(5.13728e-06 -1.9202e-06 0)
(5.34658e-06 -1.83093e-06 0)
(5.55495e-06 -1.74107e-06 0)
(5.76247e-06 -1.65052e-06 0)
(5.96938e-06 -1.55914e-06 0)
(6.17582e-06 -1.46697e-06 0)
(6.3822e-06 -1.3741e-06 0)
(2.28851e-06 -3.19153e-06 0)
(2.49862e-06 -3.10147e-06 0)
(2.71012e-06 -3.0099e-06 0)
(2.9224e-06 -2.91765e-06 0)
(3.1354e-06 -2.82525e-06 0)
(3.34871e-06 -2.73296e-06 0)
(3.56216e-06 -2.6411e-06 0)
(3.77547e-06 -2.54981e-06 0)
(3.98845e-06 -2.45907e-06 0)
(4.20095e-06 -2.36882e-06 0)
(4.41283e-06 -2.27902e-06 0)
(4.62399e-06 -2.18947e-06 0)
(4.83439e-06 -2.09998e-06 0)
(5.04396e-06 -2.01039e-06 0)
(5.2527e-06 -1.92048e-06 0)
(5.46073e-06 -1.83014e-06 0)
(5.66808e-06 -1.7393e-06 0)
(5.87492e-06 -1.64786e-06 0)
(6.08138e-06 -1.55597e-06 0)
(6.28782e-06 -1.46375e-06 0)
(2.22754e-06 -3.28164e-06 0)
(2.4332e-06 -3.19237e-06 0)
(2.64054e-06 -3.10161e-06 0)
(2.84934e-06 -3.01e-06 0)
(3.05901e-06 -2.91793e-06 0)
(3.26939e-06 -2.82579e-06 0)
(3.4802e-06 -2.73391e-06 0)
(3.6912e-06 -2.64243e-06 0)
(3.90219e-06 -2.55137e-06 0)
(4.11301e-06 -2.46071e-06 0)
(4.32349e-06 -2.37043e-06 0)
(4.5335e-06 -2.28035e-06 0)
(4.74298e-06 -2.1903e-06 0)
(4.95185e-06 -2.10019e-06 0)
(5.16011e-06 -2.00984e-06 0)
(5.36784e-06 -1.91915e-06 0)
(5.575e-06 -1.82809e-06 0)
(5.78177e-06 -1.73664e-06 0)
(5.98819e-06 -1.64503e-06 0)
(6.19465e-06 -1.55337e-06 0)
(2.1631e-06 -3.36914e-06 0)
(2.36499e-06 -3.2808e-06 0)
(2.56891e-06 -3.19101e-06 0)
(2.77436e-06 -3.10004e-06 0)
(2.98115e-06 -3.00846e-06 0)
(3.18896e-06 -2.91665e-06 0)
(3.39752e-06 -2.82491e-06 0)
(3.60659e-06 -2.73345e-06 0)
(3.81593e-06 -2.6423e-06 0)
(4.02535e-06 -2.55145e-06 0)
(4.23467e-06 -2.46089e-06 0)
(4.44371e-06 -2.37049e-06 0)
(4.65242e-06 -2.2801e-06 0)
(4.86074e-06 -2.18965e-06 0)
(5.0686e-06 -2.09899e-06 0)
(5.27603e-06 -2.00808e-06 0)
(5.48299e-06 -1.91687e-06 0)
(5.68973e-06 -1.82543e-06 0)
(5.89616e-06 -1.73403e-06 0)
(6.10252e-06 -1.64286e-06 0)
(2.09435e-06 -3.45497e-06 0)
(2.29277e-06 -3.36769e-06 0)
(2.4936e-06 -3.27867e-06 0)
(2.69634e-06 -3.18841e-06 0)
(2.90078e-06 -3.09741e-06 0)
(3.10655e-06 -3.00603e-06 0)
(3.31341e-06 -2.9146e-06 0)
(3.52105e-06 -2.8233e-06 0)
(3.72918e-06 -2.73221e-06 0)
(3.93756e-06 -2.64133e-06 0)
(4.14601e-06 -2.55066e-06 0)
(4.35437e-06 -2.46008e-06 0)
(4.56253e-06 -2.36948e-06 0)
(4.77037e-06 -2.27884e-06 0)
(4.97787e-06 -2.18798e-06 0)
(5.18509e-06 -2.09685e-06 0)
(5.39196e-06 -2.00557e-06 0)
(5.59858e-06 -1.91414e-06 0)
(5.80501e-06 -1.82286e-06 0)
(6.01134e-06 -1.73206e-06 0)
(2.02041e-06 -3.53843e-06 0)
(2.21581e-06 -3.45235e-06 0)
(2.41407e-06 -3.36442e-06 0)
(2.61469e-06 -3.27509e-06 0)
(2.81741e-06 -3.18485e-06 0)
(3.02182e-06 -3.09407e-06 0)
(3.22758e-06 -3.00312e-06 0)
(3.43431e-06 -2.91218e-06 0)
(3.64171e-06 -2.82128e-06 0)
(3.84951e-06 -2.73047e-06 0)
(4.05748e-06 -2.63981e-06 0)
(4.26539e-06 -2.54921e-06 0)
(4.47315e-06 -2.45851e-06 0)
(4.68068e-06 -2.36772e-06 0)
(4.8879e-06 -2.27676e-06 0)
(5.09488e-06 -2.18554e-06 0)
(5.30166e-06 -2.09419e-06 0)
(5.50822e-06 -2.00271e-06 0)
(5.7147e-06 -1.91147e-06 0)
(5.92103e-06 -1.82083e-06 0)
(1.48788e-07 -3.04375e-06 0)
(4.48399e-07 -2.99895e-06 0)
(7.54085e-07 -2.91113e-06 0)
(1.06931e-06 -2.78383e-06 0)
(1.39682e-06 -2.62191e-06 0)
(1.73834e-06 -2.43147e-06 0)
(2.09454e-06 -2.21945e-06 0)
(2.46478e-06 -1.99312e-06 0)
(2.84785e-06 -1.75982e-06 0)
(3.24065e-06 -1.52532e-06 0)
(1.44631e-07 -3.09372e-06 0)
(4.35629e-07 -3.05279e-06 0)
(7.31663e-07 -2.97248e-06 0)
(1.03566e-06 -2.85583e-06 0)
(1.34995e-06 -2.70694e-06 0)
(1.67599e-06 -2.531e-06 0)
(2.01439e-06 -2.33391e-06 0)
(2.36445e-06 -2.12199e-06 0)
(2.7246e-06 -1.90187e-06 0)
(3.09228e-06 -1.67858e-06 0)
(1.40933e-07 -3.1449e-06 0)
(4.24251e-07 -3.10748e-06 0)
(7.11672e-07 -3.03396e-06 0)
(1.00553e-06 -2.92701e-06 0)
(1.30781e-06 -2.79019e-06 0)
(1.6197e-06 -2.62796e-06 0)
(1.94183e-06 -2.4454e-06 0)
(2.27393e-06 -2.24783e-06 0)
(2.61487e-06 -2.04099e-06 0)
(2.96292e-06 -1.8283e-06 0)
(1.37644e-07 -3.19734e-06 0)
(4.14126e-07 -3.1629e-06 0)
(6.94066e-07 -3.09518e-06 0)
(9.79289e-07 -2.99653e-06 0)
(1.27149e-06 -2.87007e-06 0)
(1.5716e-06 -2.7197e-06 0)
(1.88009e-06 -2.54996e-06 0)
(2.19673e-06 -2.36551e-06 0)
(2.52049e-06 -2.17172e-06 0)
(2.84995e-06 -1.97128e-06 0)
(1.3463e-07 -3.25104e-06 0)
(4.04807e-07 -3.21926e-06 0)
(6.7789e-07 -3.15674e-06 0)
(9.55302e-07 -3.06555e-06 0)
(1.23848e-06 -2.94848e-06 0)
(1.52818e-06 -2.80901e-06 0)
(1.82483e-06 -2.65115e-06 0)
(2.12822e-06 -2.47885e-06 0)
(2.43761e-06 -2.29703e-06 0)
(2.75117e-06 -2.10812e-06 0)
(1.31807e-07 -3.3059e-06 0)
(3.96187e-07 -3.27644e-06 0)
(6.62992e-07 -3.21844e-06 0)
(9.33413e-07 -3.13378e-06 0)
(1.20862e-06 -3.02496e-06 0)
(1.48925e-06 -2.89511e-06 0)
(1.77556e-06 -2.74789e-06 0)
(2.06731e-06 -2.58678e-06 0)
(2.36413e-06 -2.41625e-06 0)
(2.66383e-06 -2.23872e-06 0)
(1.29101e-07 -3.36188e-06 0)
(3.87982e-07 -3.33447e-06 0)
(6.48889e-07 -3.28051e-06 0)
(9.12863e-07 -3.2017e-06 0)
(1.18082e-06 -3.10029e-06 0)
(1.45333e-06 -2.97913e-06 0)
(1.73059e-06 -2.84153e-06 0)
(2.01223e-06 -2.69062e-06 0)
(2.29819e-06 -2.53039e-06 0)
(2.58597e-06 -2.36344e-06 0)
(1.26524e-07 -3.41883e-06 0)
(3.80104e-07 -3.39326e-06 0)
(6.3542e-07 -3.34287e-06 0)
(8.9338e-07 -3.26924e-06 0)
(1.1547e-06 -3.17443e-06 0)
(1.41985e-06 -3.06103e-06 0)
(1.68903e-06 -2.93212e-06 0)
(1.96175e-06 -2.79053e-06 0)
(2.23818e-06 -2.6398e-06 0)
(2.51569e-06 -2.48268e-06 0)
(1.24005e-07 -3.47667e-06 0)
(3.72399e-07 -3.45273e-06 0)
(6.22332e-07 -3.40555e-06 0)
(8.74557e-07 -3.33657e-06 0)
(1.12969e-06 -3.2477e-06 0)
(1.3881e-06 -3.1413e-06 0)
(1.64997e-06 -3.02021e-06 0)
(1.91476e-06 -2.88709e-06 0)
(2.18278e-06 -2.74502e-06 0)
(2.45139e-06 -2.59689e-06 0)
(1.21476e-07 -3.53527e-06 0)
(3.64776e-07 -3.51279e-06 0)
(6.09455e-07 -3.46848e-06 0)
(8.56156e-07 -3.40367e-06 0)
(1.10541e-06 -3.32014e-06 0)
(1.35755e-06 -3.22005e-06 0)
(1.61272e-06 -3.10603e-06 0)
(1.87035e-06 -2.9806e-06 0)
(2.13084e-06 -2.84645e-06 0)
(2.39164e-06 -2.70652e-06 0)
(1.18919e-07 -3.59449e-06 0)
(3.57155e-07 -3.57334e-06 0)
(5.96607e-07 -3.53162e-06 0)
(8.37905e-07 -3.47057e-06 0)
(1.08149e-06 -3.39187e-06 0)
(1.32769e-06 -3.29749e-06 0)
(1.57662e-06 -3.18987e-06 0)
(1.82771e-06 -3.0714e-06 0)
(2.08137e-06 -2.94448e-06 0)
(2.33524e-06 -2.81201e-06 0)
(1.16344e-07 -3.65419e-06 0)
(3.49458e-07 -3.63424e-06 0)
(5.83639e-07 -3.59488e-06 0)
(8.19572e-07 -3.53724e-06 0)
(1.05762e-06 -3.4629e-06 0)
(1.29809e-06 -3.3737e-06 0)
(1.54111e-06 -3.2719e-06 0)
(1.78612e-06 -3.15977e-06 0)
(2.0335e-06 -3.03943e-06 0)
(2.28115e-06 -2.91373e-06 0)
(1.1372e-07 -3.71423e-06 0)
(3.41564e-07 -3.69538e-06 0)
(5.70377e-07 -3.65816e-06 0)
(8.00899e-07 -3.60363e-06 0)
(1.03345e-06 -3.53327e-06 0)
(1.26831e-06 -3.44879e-06 0)
(1.50564e-06 -3.35229e-06 0)
(1.74491e-06 -3.24591e-06 0)
(1.98646e-06 -3.13159e-06 0)
(2.22844e-06 -3.01204e-06 0)
(1.10992e-07 -3.77441e-06 0)
(3.33343e-07 -3.75656e-06 0)
(5.56641e-07 -3.72131e-06 0)
(7.8163e-07 -3.66963e-06 0)
(1.00865e-06 -3.60291e-06 0)
(1.23793e-06 -3.52277e-06 0)
(1.46969e-06 -3.43111e-06 0)
(1.70344e-06 -3.32999e-06 0)
(1.93948e-06 -3.22118e-06 0)
(2.17621e-06 -3.10725e-06 0)
(1.08107e-07 -3.8346e-06 0)
(3.24686e-07 -3.81767e-06 0)
(5.4225e-07 -3.78424e-06 0)
(7.6151e-07 -3.73519e-06 0)
(9.8285e-07 -3.67183e-06 0)
(1.2065e-06 -3.59567e-06 0)
(1.43269e-06 -3.50848e-06 0)
(1.66104e-06 -3.41219e-06 0)
(1.89178e-06 -3.30846e-06 0)
(2.12352e-06 -3.19964e-06 0)
(1.05038e-07 -3.89447e-06 0)
(3.15509e-07 -3.87839e-06 0)
(5.27032e-07 -3.84666e-06 0)
(7.40279e-07 -3.80007e-06 0)
(9.55702e-07 -3.73984e-06 0)
(1.17356e-06 -3.66737e-06 0)
(1.39411e-06 -3.58433e-06 0)
(1.61708e-06 -3.49251e-06 0)
(1.84257e-06 -3.39347e-06 0)
(2.06951e-06 -3.28936e-06 0)
(1.01756e-07 -3.95393e-06 0)
(3.05695e-07 -3.93867e-06 0)
(5.10756e-07 -3.90853e-06 0)
(7.17605e-07 -3.86425e-06 0)
(9.26781e-07 -3.80696e-06 0)
(1.13858e-06 -3.73797e-06 0)
(1.3533e-06 -3.65881e-06 0)
(1.57074e-06 -3.5712e-06 0)
(1.791e-06 -3.47652e-06 0)
(2.01312e-06 -3.3768e-06 0)
(9.82172e-08 -4.01236e-06 0)
(2.95092e-07 -3.99786e-06 0)
(4.93166e-07 -3.96925e-06 0)
(6.93139e-07 -3.92718e-06 0)
(8.95628e-07 -3.87269e-06 0)
(1.10101e-06 -3.807e-06 0)
(1.30959e-06 -3.73155e-06 0)
(1.52124e-06 -3.64792e-06 0)
(1.73609e-06 -3.55738e-06 0)
(1.95338e-06 -3.4618e-06 0)
(9.43405e-08 -4.07003e-06 0)
(2.83465e-07 -4.05629e-06 0)
(4.73885e-07 -4.02915e-06 0)
(6.66373e-07 -3.98921e-06 0)
(8.61604e-07 -3.93743e-06 0)
(1.06004e-06 -3.87495e-06 0)
(1.26204e-06 -3.80307e-06 0)
(1.46757e-06 -3.72325e-06 0)
(1.67673e-06 -3.63671e-06 0)
(1.88904e-06 -3.54509e-06 0)
(9.00845e-08 -4.12525e-06 0)
(2.70718e-07 -4.11225e-06 0)
(4.52755e-07 -4.08657e-06 0)
(6.37054e-07 -4.04876e-06 0)
(8.24381e-07 -3.99968e-06 0)
(1.01527e-06 -3.9404e-06 0)
(1.21014e-06 -3.87208e-06 0)
(1.40913e-06 -3.79609e-06 0)
(1.61229e-06 -3.71353e-06 0)
(1.8194e-06 -3.6259e-06 0)
)


// ************************************************************************* //
