/*--------------------------------*- C++ -*----------------------------------*\
| =========                 |                                                 |
| \\      /  F ield         | foam-extend: Open Source CFD                    |
|  \\    /   O peration     | Version:     4.1                                |
|   \\  /    A nd           | Web:         http://www.foam-extend.org         |
|    \\/     M anipulation  |                                                 |
\*---------------------------------------------------------------------------*/
FoamFile
{
    version     2.0;
    format      ascii;
    class       vectorField;
    location    "7";
    object      solidsCellD_iteration8;
}
// * * * * * * * * * * * * * * * * * * * * * * * * * * * * * * * * * * * * * //


1000
(
(3.60575e-06 -1.51223e-06 0)
(3.40408e-06 -1.4085e-06 0)
(3.27561e-06 -1.34323e-06 0)
(3.20222e-06 -1.31339e-06 0)
(3.16681e-06 -1.30385e-06 0)
(3.15919e-06 -1.30999e-06 0)
(3.17197e-06 -1.32636e-06 0)
(3.20009e-06 -1.35043e-06 0)
(3.23977e-06 -1.37961e-06 0)
(3.2877e-06 -1.41259e-06 0)
(3.26059e-06 -1.65185e-06 0)
(3.04578e-06 -1.58016e-06 0)
(2.90897e-06 -1.53518e-06 0)
(2.82943e-06 -1.51918e-06 0)
(2.78916e-06 -1.51885e-06 0)
(2.77707e-06 -1.53151e-06 0)
(2.78554e-06 -1.55256e-06 0)
(2.80915e-06 -1.58009e-06 0)
(2.84396e-06 -1.6121e-06 0)
(2.88641e-06 -1.64685e-06 0)
(2.90183e-06 -1.78416e-06 0)
(2.68235e-06 -1.74828e-06 0)
(2.5426e-06 -1.72597e-06 0)
(2.46033e-06 -1.72519e-06 0)
(2.41739e-06 -1.73483e-06 0)
(2.40222e-06 -1.75438e-06 0)
(2.4072e-06 -1.78023e-06 0)
(2.42689e-06 -1.81113e-06 0)
(2.45729e-06 -1.84579e-06 0)
(2.49506e-06 -1.88227e-06 0)
(2.5322e-06 -1.90682e-06 0)
(2.31727e-06 -1.90848e-06 0)
(2.18043e-06 -1.90996e-06 0)
(2.09907e-06 -1.92502e-06 0)
(2.05573e-06 -1.94499e-06 0)
(2.03891e-06 -1.97159e-06 0)
(2.04121e-06 -2.00223e-06 0)
(2.0574e-06 -2.03649e-06 0)
(2.0837e-06 -2.07368e-06 0)
(2.11677e-06 -2.11203e-06 0)
(2.15426e-06 -2.01743e-06 0)
(1.95301e-06 -2.05629e-06 0)
(1.82489e-06 -2.08132e-06 0)
(1.74825e-06 -2.11203e-06 0)
(1.70682e-06 -2.14213e-06 0)
(1.68969e-06 -2.17563e-06 0)
(1.6901e-06 -2.21091e-06 0)
(1.70313e-06 -2.24843e-06 0)
(1.72545e-06 -2.28805e-06 0)
(1.75375e-06 -2.32837e-06 0)
(1.76981e-06 -2.11373e-06 0)
(1.59116e-06 -2.18737e-06 0)
(1.47747e-06 -2.23445e-06 0)
(1.40909e-06 -2.27981e-06 0)
(1.3717e-06 -2.31937e-06 0)
(1.35557e-06 -2.35927e-06 0)
(1.35485e-06 -2.39882e-06 0)
(1.36509e-06 -2.43938e-06 0)
(1.38344e-06 -2.48122e-06 0)
(1.40679e-06 -2.52348e-06 0)
(1.38077e-06 -2.19355e-06 0)
(1.23263e-06 -2.29767e-06 0)
(1.13836e-06 -2.3641e-06 0)
(1.08144e-06 -2.42226e-06 0)
(1.05009e-06 -2.47008e-06 0)
(1.0362e-06 -2.51558e-06 0)
(1.03499e-06 -2.55886e-06 0)
(1.04267e-06 -2.6021e-06 0)
(1.05698e-06 -2.64589e-06 0)
(1.07524e-06 -2.68991e-06 0)
(9.88471e-07 -2.25511e-06 0)
(8.77479e-07 -2.38372e-06 0)
(8.06897e-07 -2.46567e-06 0)
(7.64204e-07 -2.53407e-06 0)
(7.40573e-07 -2.58854e-06 0)
(7.29911e-07 -2.63854e-06 0)
(7.28645e-07 -2.68484e-06 0)
(7.33952e-07 -2.73024e-06 0)
(7.44191e-07 -2.77558e-06 0)
(7.57279e-07 -2.82108e-06 0)
(5.94002e-07 -2.29696e-06 0)
(5.25294e-07 -2.44268e-06 0)
(4.81627e-07 -2.53546e-06 0)
(4.5512e-07 -2.61109e-06 0)
(4.40367e-07 -2.67021e-06 0)
(4.33634e-07 -2.72332e-06 0)
(4.32735e-07 -2.77174e-06 0)
(4.35867e-07 -2.81871e-06 0)
(4.42004e-07 -2.86517e-06 0)
(4.4986e-07 -2.91174e-06 0)
(1.98382e-07 -2.31804e-06 0)
(1.75102e-07 -2.47261e-06 0)
(1.60242e-07 -2.57098e-06 0)
(1.51232e-07 -2.6503e-06 0)
(1.46241e-07 -2.71182e-06 0)
(1.43915e-07 -2.76658e-06 0)
(1.43529e-07 -2.81607e-06 0)
(1.44543e-07 -2.86382e-06 0)
(1.46597e-07 -2.91086e-06 0)
(1.49207e-07 -2.95799e-06 0)
(5.62412e-06 -6.90124e-08 0)
(5.67466e-06 -4.97846e-08 0)
(5.70565e-06 -3.76167e-08 0)
(5.73928e-06 -3.04814e-08 0)
(5.77609e-06 -2.65381e-08 0)
(5.82121e-06 -2.47604e-08 0)
(5.87456e-06 -2.44342e-08 0)
(5.93669e-06 -2.50189e-08 0)
(6.00747e-06 -2.63344e-08 0)
(6.08594e-06 -2.79213e-08 0)
(5.58254e-06 -2.07046e-07 0)
(5.62469e-06 -1.50488e-07 0)
(5.65044e-06 -1.14741e-07 0)
(5.68053e-06 -9.38961e-08 0)
(5.71501e-06 -8.24712e-08 0)
(5.75843e-06 -7.7287e-08 0)
(5.81061e-06 -7.64182e-08 0)
(5.87178e-06 -7.83744e-08 0)
(5.94171e-06 -8.2348e-08 0)
(6.01932e-06 -8.70347e-08 0)
(5.49946e-06 -3.46227e-07 0)
(5.52562e-06 -2.55463e-07 0)
(5.54126e-06 -1.98153e-07 0)
(5.56465e-06 -1.64713e-07 0)
(5.5947e-06 -1.46509e-07 0)
(5.63501e-06 -1.38484e-07 0)
(5.68486e-06 -1.37341e-07 0)
(5.74416e-06 -1.40712e-07 0)
(5.81249e-06 -1.47303e-07 0)
(5.88841e-06 -1.55134e-07 0)
(5.37638e-06 -4.87188e-07 0)
(5.3798e-06 -3.67114e-07 0)
(5.38102e-06 -2.91402e-07 0)
(5.39488e-06 -2.47429e-07 0)
(5.41858e-06 -2.23601e-07 0)
(5.45443e-06 -2.13338e-07 0)
(5.501e-06 -2.12207e-07 0)
(5.55769e-06 -2.17164e-07 0)
(5.62376e-06 -2.26401e-07 0)
(5.69734e-06 -2.37404e-07 0)
(5.21518e-06 -6.30287e-07 0)
(5.19053e-06 -4.87476e-07 0)
(5.1739e-06 -3.97459e-07 0)
(5.17593e-06 -3.45563e-07 0)
(5.1918e-06 -3.17696e-07 0)
(5.22212e-06 -3.06136e-07 0)
(5.2646e-06 -3.05532e-07 0)
(5.31798e-06 -3.12312e-07 0)
(5.38125e-06 -3.24183e-07 0)
(5.452e-06 -3.38318e-07 0)
(5.01827e-06 -7.75609e-07 0)
(4.96183e-06 -6.17877e-07 0)
(4.92508e-06 -5.18436e-07 0)
(4.91375e-06 -4.61693e-07 0)
(4.92072e-06 -4.31693e-07 0)
(4.94471e-06 -4.19972e-07 0)
(4.98256e-06 -4.20473e-07 0)
(5.03217e-06 -4.29295e-07 0)
(5.0922e-06 -4.43781e-07 0)
(5.15978e-06 -4.61013e-07 0)
(4.78859e-06 -9.22881e-07 0)
(4.69853e-06 -7.58863e-07 0)
(4.64052e-06 -6.55436e-07 0)
(4.61506e-06 -5.97266e-07 0)
(4.61261e-06 -5.67192e-07 0)
(4.62986e-06 -5.56542e-07 0)
(4.66272e-06 -5.58799e-07 0)
(4.70828e-06 -5.69926e-07 0)
(4.76476e-06 -5.87064e-07 0)
(4.82901e-06 -6.07326e-07 0)
(4.52914e-06 -1.07139e-06 0)
(4.40577e-06 -9.10077e-07 0)
(4.3267e-06 -8.08324e-07 0)
(4.28717e-06 -7.52281e-07 0)
(4.2753e-06 -7.24288e-07 0)
(4.28574e-06 -7.16006e-07 0)
(4.31345e-06 -7.20714e-07 0)
(4.35482e-06 -7.34486e-07 0)
(4.40754e-06 -7.54324e-07 0)
(4.46836e-06 -7.77594e-07 0)
(4.2433e-06 -1.22012e-06 0)
(4.08896e-06 -1.07027e-06 0)
(3.99034e-06 -9.75779e-07 0)
(3.93762e-06 -9.25364e-07 0)
(3.91684e-06 -9.01606e-07 0)
(3.92067e-06 -8.96959e-07 0)
(3.94322e-06 -9.04855e-07 0)
(3.98032e-06 -9.21573e-07 0)
(4.02907e-06 -9.44294e-07 0)
(4.0864e-06 -9.7034e-07 0)
(3.93441e-06 -1.36766e-06 0)
(3.75342e-06 -1.23735e-06 0)
(3.63795e-06 -1.15526e-06 0)
(3.57371e-06 -1.11376e-06 0)
(3.54494e-06 -1.09626e-06 0)
(3.5427e-06 -1.09648e-06 0)
(3.56039e-06 -1.10829e-06 0)
(3.59328e-06 -1.12852e-06 0)
(3.63815e-06 -1.15435e-06 0)
(3.69161e-06 -1.18433e-06 0)
(6.17226e-06 -2.94627e-08 0)
(6.26633e-06 -2.98199e-08 0)
(6.36634e-06 -3.02275e-08 0)
(6.47192e-06 -3.05178e-08 0)
(6.58244e-06 -3.06626e-08 0)
(6.6975e-06 -3.06523e-08 0)
(6.81657e-06 -3.04441e-08 0)
(6.93917e-06 -3.00641e-08 0)
(7.06494e-06 -2.95143e-08 0)
(7.19353e-06 -2.87571e-08 0)
(7.32453e-06 -2.77577e-08 0)
(7.45754e-06 -2.65057e-08 0)
(7.59222e-06 -2.49911e-08 0)
(7.72815e-06 -2.32011e-08 0)
(7.86501e-06 -2.11049e-08 0)
(8.00228e-06 -1.8654e-08 0)
(8.13971e-06 -1.57874e-08 0)
(8.27641e-06 -1.2448e-08 0)
(8.41255e-06 -8.55906e-09 0)
(8.546e-06 -4.09746e-09 0)
(6.1086e-06 -9.13379e-08 0)
(6.20798e-06 -9.20153e-08 0)
(6.31274e-06 -9.28708e-08 0)
(6.42248e-06 -9.34326e-08 0)
(6.53672e-06 -9.35742e-08 0)
(6.65503e-06 -9.3317e-08 0)
(6.77703e-06 -9.25734e-08 0)
(6.90231e-06 -9.13465e-08 0)
(7.03055e-06 -8.95601e-08 0)
(7.16136e-06 -8.71373e-08 0)
(7.2944e-06 -8.40382e-08 0)
(7.42931e-06 -8.02445e-08 0)
(7.56578e-06 -7.56953e-08 0)
(7.70341e-06 -7.03077e-08 0)
(7.84187e-06 -6.3974e-08 0)
(7.98065e-06 -5.65753e-08 0)
(8.11954e-06 -4.79554e-08 0)
(8.25763e-06 -3.79547e-08 0)
(8.39516e-06 -2.63325e-08 0)
(8.52996e-06 -1.29912e-08 0)
(5.98344e-06 -1.61331e-07 0)
(6.09329e-06 -1.61154e-07 0)
(6.20741e-06 -1.61369e-07 0)
(6.32521e-06 -1.61384e-07 0)
(6.44668e-06 -1.60881e-07 0)
(6.57144e-06 -1.59886e-07 0)
(6.69928e-06 -1.58177e-07 0)
(6.82979e-06 -1.55723e-07 0)
(6.96277e-06 -1.52383e-07 0)
(7.09792e-06 -1.48072e-07 0)
(7.23498e-06 -1.4273e-07 0)
(7.37363e-06 -1.36291e-07 0)
(7.51359e-06 -1.28615e-07 0)
(7.65448e-06 -1.19546e-07 0)
(7.79603e-06 -1.08913e-07 0)
(7.93779e-06 -9.65311e-08 0)
(8.07954e-06 -8.21448e-08 0)
(8.22044e-06 -6.54934e-08 0)
(8.36072e-06 -4.61735e-08 0)
(8.49827e-06 -2.39983e-08 0)
(5.80057e-06 -2.44054e-07 0)
(5.92537e-06 -2.41155e-07 0)
(6.053e-06 -2.39036e-07 0)
(6.18258e-06 -2.37229e-07 0)
(6.31463e-06 -2.35025e-07 0)
(6.44877e-06 -2.32452e-07 0)
(6.58506e-06 -2.29082e-07 0)
(6.72323e-06 -2.24852e-07 0)
(6.86323e-06 -2.19538e-07 0)
(7.00483e-06 -2.1302e-07 0)
(7.14782e-06 -2.05176e-07 0)
(7.29196e-06 -1.95866e-07 0)
(7.43703e-06 -1.84879e-07 0)
(7.58272e-06 -1.72009e-07 0)
(7.72883e-06 -1.57028e-07 0)
(7.87495e-06 -1.39654e-07 0)
(8.02089e-06 -1.19521e-07 0)
(8.16587e-06 -9.6255e-08 0)
(8.31012e-06 -6.92748e-08 0)
(8.45165e-06 -3.83337e-08 0)
(5.56546e-06 -3.43573e-07 0)
(5.70908e-06 -3.35575e-07 0)
(5.85388e-06 -3.2899e-07 0)
(5.99836e-06 -3.2373e-07 0)
(6.14391e-06 -3.18435e-07 0)
(6.29005e-06 -3.1315e-07 0)
(6.43725e-06 -3.07201e-07 0)
(6.5853e-06 -3.00474e-07 0)
(6.73431e-06 -2.92608e-07 0)
(6.88416e-06 -2.83409e-07 0)
(7.03478e-06 -2.72682e-07 0)
(7.18603e-06 -2.60208e-07 0)
(7.33774e-06 -2.45703e-07 0)
(7.4897e-06 -2.2889e-07 0)
(7.64174e-06 -2.09466e-07 0)
(7.79349e-06 -1.87046e-07 0)
(7.94486e-06 -1.61159e-07 0)
(8.09508e-06 -1.3132e-07 0)
(8.24451e-06 -9.67553e-08 0)
(8.39119e-06 -5.71555e-08 0)
(5.28477e-06 -4.62819e-07 0)
(5.45003e-06 -4.4698e-07 0)
(5.61493e-06 -4.33377e-07 0)
(5.777e-06 -4.22655e-07 0)
(5.93861e-06 -4.12616e-07 0)
(6.0991e-06 -4.03277e-07 0)
(6.2593e-06 -3.93662e-07 0)
(6.41916e-06 -3.83525e-07 0)
(6.579e-06 -3.72394e-07 0)
(6.73879e-06 -3.59967e-07 0)
(6.89861e-06 -3.45945e-07 0)
(7.05841e-06 -3.30001e-07 0)
(7.21811e-06 -3.11758e-07 0)
(7.37756e-06 -2.90857e-07 0)
(7.53671e-06 -2.66893e-07 0)
(7.69522e-06 -2.39396e-07 0)
(7.85312e-06 -2.07777e-07 0)
(8.00965e-06 -1.71445e-07 0)
(8.16531e-06 -1.29435e-07 0)
(8.31819e-06 -8.13242e-08 0)
(4.96633e-06 -6.03635e-07 0)
(5.15515e-06 -5.77126e-07 0)
(5.34227e-06 -5.53957e-07 0)
(5.52393e-06 -5.35625e-07 0)
(5.70345e-06 -5.19098e-07 0)
(5.88012e-06 -5.04203e-07 0)
(6.05503e-06 -4.8975e-07 0)
(6.22833e-06 -4.75238e-07 0)
(6.40049e-06 -4.60071e-07 0)
(6.57166e-06 -4.43797e-07 0)
(6.74202e-06 -4.25978e-07 0)
(6.91161e-06 -4.0616e-07 0)
(7.08045e-06 -3.83868e-07 0)
(7.24851e-06 -3.5866e-07 0)
(7.4158e-06 -3.30026e-07 0)
(7.58209e-06 -2.97402e-07 0)
(7.74748e-06 -2.60077e-07 0)
(7.91129e-06 -2.17332e-07 0)
(8.07405e-06 -1.68012e-07 0)
(8.23404e-06 -1.11575e-07 0)
(4.61795e-06 -7.66412e-07 0)
(4.83114e-06 -7.2616e-07 0)
(5.04159e-06 -6.90901e-07 0)
(5.24429e-06 -6.62559e-07 0)
(5.44316e-06 -6.37688e-07 0)
(5.63748e-06 -6.15628e-07 0)
(5.82859e-06 -5.95058e-07 0)
(6.01673e-06 -5.75154e-07 0)
(6.20253e-06 -5.55153e-07 0)
(6.38628e-06 -5.34407e-07 0)
(6.56827e-06 -5.1231e-07 0)
(6.74867e-06 -4.88273e-07 0)
(6.92761e-06 -4.61711e-07 0)
(7.1052e-06 -4.32078e-07 0)
(7.28151e-06 -3.98748e-07 0)
(7.45643e-06 -3.61046e-07 0)
(7.63008e-06 -3.18123e-07 0)
(7.80193e-06 -2.69123e-07 0)
(7.97254e-06 -2.12701e-07 0)
(8.14039e-06 -1.48192e-07 0)
(4.248e-06 -9.50857e-07 0)
(4.48577e-06 -8.94223e-07 0)
(4.7197e-06 -8.45219e-07 0)
(4.94423e-06 -8.04793e-07 0)
(5.16314e-06 -7.69963e-07 0)
(5.37602e-06 -7.39285e-07 0)
(5.58417e-06 -7.11341e-07 0)
(5.78807e-06 -6.84966e-07 0)
(5.98839e-06 -6.59208e-07 0)
(6.18559e-06 -6.33207e-07 0)
(6.38005e-06 -6.06192e-07 0)
(6.57209e-06 -5.77433e-07 0)
(6.76194e-06 -5.46233e-07 0)
(6.94983e-06 -5.11918e-07 0)
(7.13589e-06 -4.73732e-07 0)
(7.32009e-06 -4.30878e-07 0)
(7.50266e-06 -3.82361e-07 0)
(7.68316e-06 -3.27191e-07 0)
(7.86225e-06 -2.63858e-07 0)
(8.03861e-06 -1.9159e-07 0)
(3.86352e-06 -1.15385e-06 0)
(4.12628e-06 -1.07688e-06 0)
(4.38288e-06 -1.01245e-06 0)
(4.62989e-06 -9.57987e-07 0)
(4.86929e-06 -9.11534e-07 0)
(5.10152e-06 -8.70896e-07 0)
(5.32747e-06 -8.3448e-07 0)
(5.54785e-06 -8.00822e-07 0)
(5.76339e-06 -7.68708e-07 0)
(5.97467e-06 -7.37044e-07 0)
(6.1822e-06 -7.04857e-07 0)
(6.38639e-06 -6.71251e-07 0)
(6.58764e-06 -6.35381e-07 0)
(6.78623e-06 -5.96431e-07 0)
(6.9824e-06 -5.53509e-07 0)
(7.17624e-06 -5.0569e-07 0)
(7.36803e-06 -4.51846e-07 0)
(7.5575e-06 -3.90839e-07 0)
(7.74539e-06 -3.2101e-07 0)
(7.93068e-06 -2.41435e-07 0)
(3.57706e-06 -1.34943e-06 0)
(3.85706e-06 -1.25556e-06 0)
(4.12755e-06 -1.1794e-06 0)
(4.38857e-06 -1.11364e-06 0)
(4.64099e-06 -1.0569e-06 0)
(4.88556e-06 -1.00689e-06 0)
(5.12311e-06 -9.61949e-07 0)
(5.35438e-06 -9.20555e-07 0)
(5.58008e-06 -8.81386e-07 0)
(5.80078e-06 -8.43242e-07 0)
(6.01706e-06 -8.05054e-07 0)
(6.22936e-06 -7.65832e-07 0)
(6.43813e-06 -7.24633e-07 0)
(6.64371e-06 -6.80542e-07 0)
(6.84638e-06 -6.32587e-07 0)
(7.04634e-06 -5.79757e-07 0)
(7.24391e-06 -5.20877e-07 0)
(7.43904e-06 -4.54733e-07 0)
(7.63246e-06 -3.79639e-07 0)
(7.82346e-06 -2.94598e-07 0)
(3.41371e-06 -1.50886e-06 0)
(3.69559e-06 -1.41125e-06 0)
(3.9684e-06 -1.32836e-06 0)
(4.23306e-06 -1.25554e-06 0)
(4.48967e-06 -1.19149e-06 0)
(4.73872e-06 -1.13428e-06 0)
(4.98081e-06 -1.08233e-06 0)
(5.21654e-06 -1.0342e-06 0)
(5.44647e-06 -9.88604e-07 0)
(5.67115e-06 -9.44351e-07 0)
(5.89108e-06 -9.00373e-07 0)
(6.10673e-06 -8.55663e-07 0)
(6.31852e-06 -8.09253e-07 0)
(6.52682e-06 -7.60202e-07 0)
(6.7319e-06 -7.07528e-07 0)
(6.93408e-06 -6.50204e-07 0)
(7.13365e-06 -5.87089e-07 0)
(7.33076e-06 -5.16985e-07 0)
(7.52608e-06 -4.38288e-07 0)
(7.71922e-06 -3.50017e-07 0)
(3.27446e-06 -1.66159e-06 0)
(3.55351e-06 -1.56186e-06 0)
(3.82589e-06 -1.47474e-06 0)
(4.09119e-06 -1.39661e-06 0)
(4.34944e-06 -1.32655e-06 0)
(4.60069e-06 -1.26304e-06 0)
(4.84539e-06 -1.2047e-06 0)
(5.08388e-06 -1.15026e-06 0)
(5.31663e-06 -1.09851e-06 0)
(5.54407e-06 -1.04832e-06 0)
(5.76666e-06 -9.9866e-07 0)
(5.98482e-06 -9.48528e-07 0)
(6.19894e-06 -8.9696e-07 0)
(6.40939e-06 -8.43013e-07 0)
(6.61645e-06 -7.85717e-07 0)
(6.82049e-06 -7.24054e-07 0)
(7.02182e-06 -6.56934e-07 0)
(7.22071e-06 -5.83213e-07 0)
(7.41778e-06 -5.01377e-07 0)
(7.61294e-06 -4.105e-07 0)
(3.15178e-06 -1.80876e-06 0)
(3.42678e-06 -1.70802e-06 0)
(3.6968e-06 -1.61775e-06 0)
(3.96086e-06 -1.5353e-06 0)
(4.21886e-06 -1.46012e-06 0)
(4.47062e-06 -1.39104e-06 0)
(4.71637e-06 -1.32694e-06 0)
(4.95626e-06 -1.26668e-06 0)
(5.19064e-06 -1.20916e-06 0)
(5.41984e-06 -1.15337e-06 0)
(5.64425e-06 -1.09829e-06 0)
(5.86419e-06 -1.04298e-06 0)
(6.08005e-06 -9.86487e-07 0)
(6.29217e-06 -9.27886e-07 0)
(6.50084e-06 -8.66232e-07 0)
(6.70644e-06 -8.00544e-07 0)
(6.90931e-06 -7.29796e-07 0)
(7.10978e-06 -6.52908e-07 0)
(7.30846e-06 -5.68477e-07 0)
(7.5055e-06 -4.7568e-07 0)
(3.04367e-06 -1.94973e-06 0)
(3.31357e-06 -1.84881e-06 0)
(3.57991e-06 -1.75653e-06 0)
(3.84129e-06 -1.67086e-06 0)
(4.09763e-06 -1.59156e-06 0)
(4.34851e-06 -1.51778e-06 0)
(4.59402e-06 -1.44861e-06 0)
(4.83415e-06 -1.38311e-06 0)
(5.06912e-06 -1.32032e-06 0)
(5.29917e-06 -1.25931e-06 0)
(5.5246e-06 -1.19916e-06 0)
(5.74566e-06 -1.13895e-06 0)
(5.9627e-06 -1.07779e-06 0)
(6.17604e-06 -1.01479e-06 0)
(6.38594e-06 -9.49042e-07 0)
(6.59281e-06 -8.79625e-07 0)
(6.79698e-06 -8.05581e-07 0)
(6.99885e-06 -7.25908e-07 0)
(7.19898e-06 -6.39344e-07 0)
(7.39773e-06 -5.4522e-07 0)
(2.94752e-06 -2.08465e-06 0)
(3.21178e-06 -1.98417e-06 0)
(3.47364e-06 -1.89066e-06 0)
(3.73138e-06 -1.8026e-06 0)
(3.98503e-06 -1.72e-06 0)
(4.23398e-06 -1.64227e-06 0)
(4.47822e-06 -1.56873e-06 0)
(4.71762e-06 -1.4986e-06 0)
(4.95231e-06 -1.43106e-06 0)
(5.18243e-06 -1.3653e-06 0)
(5.40818e-06 -1.30047e-06 0)
(5.62976e-06 -1.23573e-06 0)
(5.84748e-06 -1.17024e-06 0)
(6.06159e-06 -1.10317e-06 0)
(6.27238e-06 -1.03366e-06 0)
(6.48024e-06 -9.60862e-07 0)
(6.68548e-06 -8.83886e-07 0)
(6.88853e-06 -8.01829e-07 0)
(7.08996e-06 -7.13599e-07 0)
(7.29024e-06 -6.18665e-07 0)
(2.86136e-06 -2.21375e-06 0)
(3.1197e-06 -2.11413e-06 0)
(3.37654e-06 -2.01999e-06 0)
(3.63002e-06 -1.93026e-06 0)
(3.88024e-06 -1.8451e-06 0)
(4.12648e-06 -1.76414e-06 0)
(4.36866e-06 -1.68688e-06 0)
(4.60658e-06 -1.61273e-06 0)
(4.84027e-06 -1.54099e-06 0)
(5.06979e-06 -1.47096e-06 0)
(5.29527e-06 -1.40189e-06 0)
(5.51684e-06 -1.33302e-06 0)
(5.73478e-06 -1.26356e-06 0)
(5.94929e-06 -1.19276e-06 0)
(6.16065e-06 -1.11983e-06 0)
(6.36922e-06 -1.04398e-06 0)
(6.57529e-06 -9.64427e-07 0)
(6.77935e-06 -8.80361e-07 0)
(6.98191e-06 -7.90884e-07 0)
(7.1835e-06 -6.95525e-07 0)
(2.78339e-06 -2.33733e-06 0)
(3.03574e-06 -2.23884e-06 0)
(3.28725e-06 -2.14455e-06 0)
(3.5361e-06 -2.05369e-06 0)
(3.78238e-06 -1.96658e-06 0)
(4.02534e-06 -1.883e-06 0)
(4.26488e-06 -1.80264e-06 0)
(4.50073e-06 -1.72503e-06 0)
(4.73285e-06 -1.64962e-06 0)
(4.96122e-06 -1.57581e-06 0)
(5.18593e-06 -1.50296e-06 0)
(5.40705e-06 -1.43037e-06 0)
(5.62482e-06 -1.35733e-06 0)
(5.8394e-06 -1.28318e-06 0)
(6.05104e-06 -1.20717e-06 0)
(6.26008e-06 -1.12863e-06 0)
(6.4668e-06 -1.04685e-06 0)
(6.67168e-06 -9.61149e-07 0)
(6.87519e-06 -8.7078e-07 0)
(7.0779e-06 -7.75296e-07 0)
(2.71198e-06 -2.45577e-06 0)
(2.95838e-06 -2.35858e-06 0)
(3.20445e-06 -2.26445e-06 0)
(3.44846e-06 -2.1729e-06 0)
(3.69049e-06 -2.08435e-06 0)
(3.92982e-06 -1.99868e-06 0)
(4.16631e-06 -1.91575e-06 0)
(4.39966e-06 -1.83523e-06 0)
(4.62976e-06 -1.75665e-06 0)
(4.85657e-06 -1.67955e-06 0)
(5.08011e-06 -1.60337e-06 0)
(5.30043e-06 -1.52748e-06 0)
(5.51772e-06 -1.45127e-06 0)
(5.73209e-06 -1.37414e-06 0)
(5.94377e-06 -1.29543e-06 0)
(6.15307e-06 -1.21455e-06 0)
(6.36025e-06 -1.13089e-06 0)
(6.5658e-06 -1.04387e-06 0)
(6.77008e-06 -9.52883e-07 0)
(6.97374e-06 -8.57557e-07 0)
(2.64572e-06 -2.56943e-06 0)
(2.88628e-06 -2.47363e-06 0)
(3.12693e-06 -2.37989e-06 0)
(3.36601e-06 -2.28799e-06 0)
(3.60364e-06 -2.19838e-06 0)
(3.83913e-06 -2.11109e-06 0)
(4.07231e-06 -2.02607e-06 0)
(4.30286e-06 -1.94312e-06 0)
(4.53064e-06 -1.86186e-06 0)
(4.75558e-06 -1.78194e-06 0)
(4.97768e-06 -1.70286e-06 0)
(5.19692e-06 -1.62411e-06 0)
(5.41347e-06 -1.54513e-06 0)
(5.6274e-06 -1.4654e-06 0)
(5.83892e-06 -1.38434e-06 0)
(6.04831e-06 -1.30146e-06 0)
(6.2558e-06 -1.21625e-06 0)
(6.46183e-06 -1.1282e-06 0)
(6.66673e-06 -1.03681e-06 0)
(6.87117e-06 -9.41892e-07 0)
(2.58334e-06 -2.67873e-06 0)
(2.81824e-06 -2.58432e-06 0)
(3.05355e-06 -2.49112e-06 0)
(3.28774e-06 -2.3991e-06 0)
(3.52094e-06 -2.30877e-06 0)
(3.75249e-06 -2.22024e-06 0)
(3.98221e-06 -2.13356e-06 0)
(4.20978e-06 -2.04862e-06 0)
(4.43505e-06 -1.96514e-06 0)
(4.65793e-06 -1.88282e-06 0)
(4.87837e-06 -1.80129e-06 0)
(5.09633e-06 -1.72007e-06 0)
(5.31195e-06 -1.6387e-06 0)
(5.52528e-06 -1.55674e-06 0)
(5.73648e-06 -1.47369e-06 0)
(5.94582e-06 -1.38914e-06 0)
(6.15347e-06 -1.30265e-06 0)
(6.35984e-06 -1.21379e-06 0)
(6.56523e-06 -1.12222e-06 0)
(6.77026e-06 -1.02784e-06 0)
(2.52372e-06 -2.78403e-06 0)
(2.75318e-06 -2.69097e-06 0)
(2.98329e-06 -2.59838e-06 0)
(3.21271e-06 -2.50643e-06 0)
(3.44152e-06 -2.41566e-06 0)
(3.66912e-06 -2.32621e-06 0)
(3.89534e-06 -2.23825e-06 0)
(4.11985e-06 -2.1517e-06 0)
(4.34251e-06 -2.0664e-06 0)
(4.56321e-06 -1.9821e-06 0)
(4.78187e-06 -1.8985e-06 0)
(4.99843e-06 -1.8152e-06 0)
(5.21301e-06 -1.73182e-06 0)
(5.42562e-06 -1.64799e-06 0)
(5.63639e-06 -1.56329e-06 0)
(5.84556e-06 -1.47735e-06 0)
(6.05325e-06 -1.38983e-06 0)
(6.25983e-06 -1.30037e-06 0)
(6.46559e-06 -1.20881e-06 0)
(6.67107e-06 -1.11502e-06 0)
(2.46588e-06 -2.88567e-06 0)
(2.69012e-06 -2.79386e-06 0)
(2.91524e-06 -2.70196e-06 0)
(3.14002e-06 -2.61023e-06 0)
(3.36455e-06 -2.51921e-06 0)
(3.58826e-06 -2.42913e-06 0)
(3.81101e-06 -2.34019e-06 0)
(4.03248e-06 -2.25239e-06 0)
(4.25252e-06 -2.16564e-06 0)
(4.47101e-06 -2.07974e-06 0)
(4.68784e-06 -1.99445e-06 0)
(4.90295e-06 -1.90945e-06 0)
(5.11641e-06 -1.82442e-06 0)
(5.32823e-06 -1.73906e-06 0)
(5.53849e-06 -1.653e-06 0)
(5.7474e-06 -1.56594e-06 0)
(5.95501e-06 -1.4776e-06 0)
(6.16173e-06 -1.38774e-06 0)
(6.36772e-06 -1.2963e-06 0)
(6.57354e-06 -1.20315e-06 0)
(2.40889e-06 -2.98394e-06 0)
(2.62816e-06 -2.89334e-06 0)
(2.84848e-06 -2.80212e-06 0)
(3.06881e-06 -2.71069e-06 0)
(3.2892e-06 -2.61961e-06 0)
(3.50917e-06 -2.52912e-06 0)
(3.72856e-06 -2.43951e-06 0)
(3.94708e-06 -2.35078e-06 0)
(4.16456e-06 -2.26292e-06 0)
(4.38086e-06 -2.17576e-06 0)
(4.59587e-06 -2.08913e-06 0)
(4.80953e-06 -2.00277e-06 0)
(5.02186e-06 -1.91641e-06 0)
(5.23286e-06 -1.82981e-06 0)
(5.44256e-06 -1.74266e-06 0)
(5.65113e-06 -1.6547e-06 0)
(5.85862e-06 -1.56574e-06 0)
(6.06538e-06 -1.47565e-06 0)
(6.27152e-06 -1.38434e-06 0)
(6.47755e-06 -1.29188e-06 0)
(2.35178e-06 -3.07915e-06 0)
(2.56633e-06 -2.98965e-06 0)
(2.7821e-06 -2.89914e-06 0)
(2.99819e-06 -2.8081e-06 0)
(3.21466e-06 -2.7171e-06 0)
(3.4311e-06 -2.62643e-06 0)
(3.64732e-06 -2.53638e-06 0)
(3.86303e-06 -2.44701e-06 0)
(4.07807e-06 -2.35831e-06 0)
(4.29229e-06 -2.2702e-06 0)
(4.50558e-06 -2.18256e-06 0)
(4.71783e-06 -2.09516e-06 0)
(4.92908e-06 -2.00779e-06 0)
(5.13925e-06 -1.92023e-06 0)
(5.34837e-06 -1.83221e-06 0)
(5.55658e-06 -1.74356e-06 0)
(5.76392e-06 -1.65417e-06 0)
(5.97065e-06 -1.56393e-06 0)
(6.17689e-06 -1.47282e-06 0)
(6.38303e-06 -1.38098e-06 0)
(2.29366e-06 -3.17155e-06 0)
(2.50372e-06 -3.08316e-06 0)
(2.71513e-06 -2.99325e-06 0)
(2.9273e-06 -2.90266e-06 0)
(3.14016e-06 -2.8119e-06 0)
(3.35333e-06 -2.72123e-06 0)
(3.56662e-06 -2.63096e-06 0)
(3.77975e-06 -2.54121e-06 0)
(3.99253e-06 -2.45197e-06 0)
(4.20484e-06 -2.3632e-06 0)
(4.41653e-06 -2.27482e-06 0)
(4.62749e-06 -2.18667e-06 0)
(4.8377e-06 -2.09853e-06 0)
(5.04708e-06 -2.01023e-06 0)
(5.25564e-06 -1.92157e-06 0)
(5.46349e-06 -1.83243e-06 0)
(5.67066e-06 -1.74275e-06 0)
(5.87733e-06 -1.65239e-06 0)
(6.08358e-06 -1.56152e-06 0)
(6.28977e-06 -1.47024e-06 0)
(2.23359e-06 -3.26147e-06 0)
(2.43925e-06 -3.17385e-06 0)
(2.64654e-06 -3.08475e-06 0)
(2.85527e-06 -2.99479e-06 0)
(3.06484e-06 -2.90436e-06 0)
(3.27511e-06 -2.81385e-06 0)
(3.48578e-06 -2.72355e-06 0)
(3.69662e-06 -2.63361e-06 0)
(3.90742e-06 -2.54406e-06 0)
(4.11805e-06 -2.45489e-06 0)
(4.32834e-06 -2.36604e-06 0)
(4.53815e-06 -2.27735e-06 0)
(4.74742e-06 -2.18866e-06 0)
(4.95608e-06 -2.09984e-06 0)
(5.16414e-06 -2.01075e-06 0)
(5.37169e-06 -1.92127e-06 0)
(5.57865e-06 -1.83134e-06 0)
(5.78521e-06 -1.74092e-06 0)
(5.99142e-06 -1.65028e-06 0)
(6.19766e-06 -1.55949e-06 0)
(2.17011e-06 -3.34881e-06 0)
(2.37204e-06 -3.26211e-06 0)
(2.57597e-06 -3.17398e-06 0)
(2.78138e-06 -3.08465e-06 0)
(2.9881e-06 -2.99471e-06 0)
(3.19581e-06 -2.9045e-06 0)
(3.40425e-06 -2.81435e-06 0)
(3.61315e-06 -2.72443e-06 0)
(3.82232e-06 -2.6348e-06 0)
(4.03156e-06 -2.54543e-06 0)
(4.24066e-06 -2.4563e-06 0)
(4.44947e-06 -2.36729e-06 0)
(4.65795e-06 -2.27827e-06 0)
(4.86605e-06 -2.18912e-06 0)
(5.07369e-06 -2.09971e-06 0)
(5.28088e-06 -2.01e-06 0)
(5.4876e-06 -1.9199e-06 0)
(5.69413e-06 -1.82949e-06 0)
(5.90034e-06 -1.73901e-06 0)
(6.10645e-06 -1.64862e-06 0)
(2.10241e-06 -3.43452e-06 0)
(2.30092e-06 -3.34887e-06 0)
(2.50179e-06 -3.26148e-06 0)
(2.70452e-06 -3.17285e-06 0)
(2.90889e-06 -3.08346e-06 0)
(3.11457e-06 -2.99369e-06 0)
(3.32132e-06 -2.90384e-06 0)
(3.52881e-06 -2.81409e-06 0)
(3.73675e-06 -2.7245e-06 0)
(3.94492e-06 -2.63509e-06 0)
(4.15313e-06 -2.54585e-06 0)
(4.36124e-06 -2.45667e-06 0)
(4.56917e-06 -2.36744e-06 0)
(4.77673e-06 -2.2781e-06 0)
(4.98394e-06 -2.18849e-06 0)
(5.19089e-06 -2.09857e-06 0)
(5.39748e-06 -2.00839e-06 0)
(5.60385e-06 -1.91798e-06 0)
(5.81003e-06 -1.82758e-06 0)
(6.0161e-06 -1.73747e-06 0)
(2.02961e-06 -3.51787e-06 0)
(2.22513e-06 -3.43342e-06 0)
(2.42345e-06 -3.34711e-06 0)
(2.62407e-06 -3.25938e-06 0)
(2.82673e-06 -3.17074e-06 0)
(3.03106e-06 -3.08157e-06 0)
(3.2367e-06 -2.99218e-06 0)
(3.44326e-06 -2.90275e-06 0)
(3.65044e-06 -2.81335e-06 0)
(3.85802e-06 -2.72402e-06 0)
(4.06574e-06 -2.63479e-06 0)
(4.27335e-06 -2.54558e-06 0)
(4.48082e-06 -2.45623e-06 0)
(4.68805e-06 -2.36675e-06 0)
(4.89492e-06 -2.27705e-06 0)
(5.10157e-06 -2.18702e-06 0)
(5.308e-06 -2.09679e-06 0)
(5.51423e-06 -2.00632e-06 0)
(5.7204e-06 -1.91594e-06 0)
(5.92641e-06 -1.82592e-06 0)
(1.48737e-07 -3.00617e-06 0)
(4.48201e-07 -2.96213e-06 0)
(7.53605e-07 -2.87572e-06 0)
(1.06831e-06 -2.75053e-06 0)
(1.395e-06 -2.59125e-06 0)
(1.73537e-06 -2.40392e-06 0)
(2.09005e-06 -2.19535e-06 0)
(2.45841e-06 -1.97267e-06 0)
(2.83933e-06 -1.74305e-06 0)
(3.22961e-06 -1.51212e-06 0)
(1.44689e-07 -3.05631e-06 0)
(4.35754e-07 -3.01609e-06 0)
(7.31731e-07 -2.9371e-06 0)
(1.03544e-06 -2.82242e-06 0)
(1.34916e-06 -2.67601e-06 0)
(1.67429e-06 -2.503e-06 0)
(2.0114e-06 -2.30919e-06 0)
(2.35981e-06 -2.10076e-06 0)
(2.71795e-06 -1.88422e-06 0)
(3.08323e-06 -1.66454e-06 0)
(1.41064e-07 -3.10772e-06 0)
(4.24596e-07 -3.07098e-06 0)
(7.12106e-07 -2.99868e-06 0)
(1.00585e-06 -2.89357e-06 0)
(1.30774e-06 -2.75907e-06 0)
(1.61892e-06 -2.59958e-06 0)
(1.93996e-06 -2.4201e-06 0)
(2.27066e-06 -2.22582e-06 0)
(2.60979e-06 -2.02244e-06 0)
(2.95569e-06 -1.81329e-06 0)
(1.37818e-07 -3.16043e-06 0)
(4.14622e-07 -3.12662e-06 0)
(6.94755e-07 -3.06003e-06 0)
(9.79992e-07 -2.96308e-06 0)
(1.27195e-06 -2.83879e-06 0)
(1.57153e-06 -2.69098e-06 0)
(1.87914e-06 -2.52414e-06 0)
(2.1946e-06 -2.34279e-06 0)
(2.5168e-06 -2.15232e-06 0)
(2.84438e-06 -1.95532e-06 0)
(1.34839e-07 -3.21439e-06 0)
(4.05409e-07 -3.18321e-06 0)
(6.78774e-07 -3.12173e-06 0)
(9.56305e-07 -3.03212e-06 0)
(1.23937e-06 -2.91708e-06 0)
(1.5287e-06 -2.77999e-06 0)
(1.82465e-06 -2.62484e-06 0)
(2.12707e-06 -2.4555e-06 0)
(2.43512e-06 -2.27687e-06 0)
(2.74705e-06 -2.0913e-06 0)
(1.32051e-07 -3.26954e-06 0)
(3.96871e-07 -3.24062e-06 0)
(6.64028e-07 -3.18359e-06 0)
(9.34648e-07 -3.10041e-06 0)
(1.20985e-06 -2.99348e-06 0)
(1.49024e-06 -2.86587e-06 0)
(1.77602e-06 -2.72121e-06 0)
(2.06699e-06 -2.56291e-06 0)
(2.3627e-06 -2.39543e-06 0)
(2.66099e-06 -2.2211e-06 0)
(1.29367e-07 -3.32579e-06 0)
(3.88734e-07 -3.29889e-06 0)
(6.50047e-07 -3.24585e-06 0)
(9.14288e-07 -3.1684e-06 0)
(1.18233e-06 -3.06876e-06 0)
(1.45472e-06 -2.94971e-06 0)
(1.73161e-06 -2.81453e-06 0)
(2.01263e-06 -2.66629e-06 0)
(2.29768e-06 -2.50897e-06 0)
(2.58425e-06 -2.3451e-06 0)
(1.26803e-07 -3.38301e-06 0)
(3.80914e-07 -3.3579e-06 0)
(6.36679e-07 -3.3084e-06 0)
(8.94965e-07 -3.23603e-06 0)
(1.15646e-06 -3.14289e-06 0)
(1.42159e-06 -3.03149e-06 0)
(1.69053e-06 -2.90486e-06 0)
(1.96278e-06 -2.76582e-06 0)
(2.23847e-06 -2.61786e-06 0)
(2.51496e-06 -2.46367e-06 0)
(1.24307e-07 -3.44111e-06 0)
(3.73267e-07 -3.41761e-06 0)
(6.23683e-07 -3.37127e-06 0)
(8.76293e-07 -3.30347e-06 0)
(1.13168e-06 -3.21619e-06 0)
(1.39016e-06 -3.11169e-06 0)
(1.65191e-06 -2.99277e-06 0)
(1.91636e-06 -2.86206e-06 0)
(2.18379e-06 -2.72263e-06 0)
(2.45154e-06 -2.5773e-06 0)
(1.21803e-07 -3.49997e-06 0)
(3.65696e-07 -3.47789e-06 0)
(6.10898e-07 -3.43438e-06 0)
(8.58041e-07 -3.3707e-06 0)
(1.10761e-06 -3.28868e-06 0)
(1.35992e-06 -3.1904e-06 0)
(1.61507e-06 -3.07845e-06 0)
(1.87247e-06 -2.95531e-06 0)
(2.1325e-06 -2.82368e-06 0)
(2.39261e-06 -2.68644e-06 0)
(1.19266e-07 -3.55945e-06 0)
(3.58125e-07 -3.53865e-06 0)
(5.98149e-07 -3.49771e-06 0)
(8.39942e-07 -3.43775e-06 0)
(1.08391e-06 -3.36049e-06 0)
(1.33035e-06 -3.26783e-06 0)
(1.57935e-06 -3.16219e-06 0)
(1.83032e-06 -3.04592e-06 0)
(2.08364e-06 -2.92141e-06 0)
(2.33696e-06 -2.7915e-06 0)
(1.16705e-07 -3.6194e-06 0)
(3.50486e-07 -3.59976e-06 0)
(5.85294e-07 -3.56116e-06 0)
(8.21769e-07 -3.50456e-06 0)
(1.06026e-06 -3.43161e-06 0)
(1.30104e-06 -3.34407e-06 0)
(1.54422e-06 -3.24417e-06 0)
(1.78921e-06 -3.13414e-06 0)
(2.03636e-06 -3.0161e-06 0)
(2.28358e-06 -2.89284e-06 0)
(1.14101e-07 -3.67967e-06 0)
(3.42667e-07 -3.66111e-06 0)
(5.72164e-07 -3.62463e-06 0)
(8.03276e-07 -3.57111e-06 0)
(1.03634e-06 -3.50208e-06 0)
(1.27157e-06 -3.41921e-06 0)
(1.50914e-06 -3.32454e-06 0)
(1.74847e-06 -3.22018e-06 0)
(1.98989e-06 -3.10805e-06 0)
(2.23157e-06 -2.99084e-06 0)
(1.11402e-07 -3.74008e-06 0)
(3.34536e-07 -3.72251e-06 0)
(5.58579e-07 -3.68798e-06 0)
(7.84216e-07 -3.63728e-06 0)
(1.01181e-06 -3.57184e-06 0)
(1.24154e-06 -3.49325e-06 0)
(1.47359e-06 -3.40337e-06 0)
(1.70749e-06 -3.30418e-06 0)
(1.9435e-06 -3.19748e-06 0)
(2.18002e-06 -3.08579e-06 0)
(1.08551e-07 -3.8005e-06 0)
(3.25978e-07 -3.78385e-06 0)
(5.44358e-07 -3.7511e-06 0)
(7.64336e-07 -3.70301e-06 0)
(9.86313e-07 -3.6409e-06 0)
(1.21048e-06 -3.56624e-06 0)
(1.43705e-06 -3.48076e-06 0)
(1.66562e-06 -3.38633e-06 0)
(1.89641e-06 -3.28463e-06 0)
(2.12805e-06 -3.17796e-06 0)
(1.05517e-07 -3.86062e-06 0)
(3.16911e-07 -3.84482e-06 0)
(5.2933e-07 -3.81373e-06 0)
(7.43375e-07 -3.76808e-06 0)
(9.59506e-07 -3.70905e-06 0)
(1.17795e-06 -3.63804e-06 0)
(1.39896e-06 -3.55665e-06 0)
(1.62223e-06 -3.46664e-06 0)
(1.84787e-06 -3.36956e-06 0)
(2.07479e-06 -3.26751e-06 0)
(1.02277e-07 -3.92034e-06 0)
(3.07226e-07 -3.90535e-06 0)
(5.13272e-07 -3.87583e-06 0)
(7.2101e-07 -3.83246e-06 0)
(9.30974e-07 -3.77635e-06 0)
(1.14345e-06 -3.70876e-06 0)
(1.35871e-06 -3.6312e-06 0)
(1.57654e-06 -3.54535e-06 0)
(1.79703e-06 -3.45255e-06 0)
(2.01922e-06 -3.35482e-06 0)
(9.87883e-08 -3.97905e-06 0)
(2.96779e-07 -3.96483e-06 0)
(4.95939e-07 -3.9368e-06 0)
(6.96904e-07 -3.89562e-06 0)
(9.0028e-07 -3.84226e-06 0)
(1.10642e-06 -3.77793e-06 0)
(1.31564e-06 -3.70404e-06 0)
(1.52778e-06 -3.62211e-06 0)
(1.74293e-06 -3.53338e-06 0)
(1.96038e-06 -3.43971e-06 0)
(9.49747e-08 -4.03703e-06 0)
(2.85342e-07 -4.02356e-06 0)
(4.76966e-07 -3.99698e-06 0)
(6.70562e-07 -3.95789e-06 0)
(8.66792e-07 -3.90721e-06 0)
(1.0661e-06 -3.84605e-06 0)
(1.26883e-06 -3.77568e-06 0)
(1.47494e-06 -3.69751e-06 0)
(1.68448e-06 -3.61272e-06 0)
(1.89703e-06 -3.52292e-06 0)
(9.07938e-08 -4.0926e-06 0)
(2.72817e-07 -4.07986e-06 0)
(4.56195e-07 -4.05472e-06 0)
(6.41744e-07 -4.01772e-06 0)
(8.30206e-07 -3.96969e-06 0)
(1.0221e-06 -3.91169e-06 0)
(1.2178e-06 -3.84483e-06 0)
(1.41742e-06 -3.77041e-06 0)
(1.62105e-06 -3.68956e-06 0)
(1.82848e-06 -3.60367e-06 0)
)


// ************************************************************************* //
