/*--------------------------------*- C++ -*----------------------------------*\
| =========                 |                                                 |
| \\      /  F ield         | foam-extend: Open Source CFD                    |
|  \\    /   O peration     | Version:     4.1                                |
|   \\  /    A nd           | Web:         http://www.foam-extend.org         |
|    \\/     M anipulation  |                                                 |
\*---------------------------------------------------------------------------*/
FoamFile
{
    version     2.0;
    format      ascii;
    class       vectorField;
    location    "7";
    object      solidsCellD_iteration7;
}
// * * * * * * * * * * * * * * * * * * * * * * * * * * * * * * * * * * * * * //


1000
(
(3.59538e-06 -1.50247e-06 0)
(3.39511e-06 -1.39981e-06 0)
(3.26765e-06 -1.33537e-06 0)
(3.19501e-06 -1.30609e-06 0)
(3.16014e-06 -1.29698e-06 0)
(3.15293e-06 -1.30344e-06 0)
(3.16602e-06 -1.32006e-06 0)
(3.19438e-06 -1.34434e-06 0)
(3.2342e-06 -1.37372e-06 0)
(3.2821e-06 -1.40698e-06 0)
(3.25135e-06 -1.64118e-06 0)
(3.03801e-06 -1.57037e-06 0)
(2.90224e-06 -1.52613e-06 0)
(2.82345e-06 -1.51064e-06 0)
(2.78372e-06 -1.5107e-06 0)
(2.77201e-06 -1.52368e-06 0)
(2.78075e-06 -1.54498e-06 0)
(2.80453e-06 -1.57272e-06 0)
(2.83941e-06 -1.60491e-06 0)
(2.88183e-06 -1.63989e-06 0)
(2.89372e-06 -1.77262e-06 0)
(2.67572e-06 -1.73742e-06 0)
(2.53702e-06 -1.71573e-06 0)
(2.45547e-06 -1.71538e-06 0)
(2.41305e-06 -1.72536e-06 0)
(2.39822e-06 -1.74519e-06 0)
(2.40343e-06 -1.77127e-06 0)
(2.42325e-06 -1.80235e-06 0)
(2.4537e-06 -1.83717e-06 0)
(2.49142e-06 -1.87383e-06 0)
(2.52523e-06 -1.89448e-06 0)
(2.31172e-06 -1.89661e-06 0)
(2.17588e-06 -1.89854e-06 0)
(2.09522e-06 -1.91396e-06 0)
(2.05235e-06 -1.93422e-06 0)
(2.03584e-06 -1.96106e-06 0)
(2.03833e-06 -1.9919e-06 0)
(2.05463e-06 -2.02631e-06 0)
(2.08096e-06 -2.06363e-06 0)
(2.114e-06 -2.10211e-06 0)
(2.14839e-06 -2.00436e-06 0)
(1.94847e-06 -2.04347e-06 0)
(1.82128e-06 -2.06883e-06 0)
(1.74526e-06 -2.0998e-06 0)
(1.70426e-06 -2.13013e-06 0)
(1.68741e-06 -2.16382e-06 0)
(1.68798e-06 -2.19926e-06 0)
(1.7011e-06 -2.23691e-06 0)
(1.72344e-06 -2.27662e-06 0)
(1.75171e-06 -2.31704e-06 0)
(1.76505e-06 -2.10002e-06 0)
(1.58756e-06 -2.1737e-06 0)
(1.47468e-06 -2.22098e-06 0)
(1.40684e-06 -2.26651e-06 0)
(1.36983e-06 -2.30624e-06 0)
(1.35393e-06 -2.34629e-06 0)
(1.35335e-06 -2.38598e-06 0)
(1.36366e-06 -2.42663e-06 0)
(1.38202e-06 -2.46855e-06 0)
(1.40535e-06 -2.51086e-06 0)
(1.37709e-06 -2.1793e-06 0)
(1.2299e-06 -2.28329e-06 0)
(1.13631e-06 -2.34979e-06 0)
(1.07983e-06 -2.40805e-06 0)
(1.04878e-06 -2.45599e-06 0)
(1.03508e-06 -2.50161e-06 0)
(1.03397e-06 -2.54499e-06 0)
(1.04171e-06 -2.58831e-06 0)
(1.05603e-06 -2.63215e-06 0)
(1.07428e-06 -2.6762e-06 0)
(9.8585e-07 -2.24045e-06 0)
(8.75577e-07 -2.36878e-06 0)
(8.05492e-07 -2.4507e-06 0)
(7.63136e-07 -2.51914e-06 0)
(7.39718e-07 -2.57369e-06 0)
(7.29189e-07 -2.62378e-06 0)
(7.28006e-07 -2.67015e-06 0)
(7.33355e-07 -2.71562e-06 0)
(7.43607e-07 -2.76099e-06 0)
(7.56684e-07 -2.8065e-06 0)
(5.92435e-07 -2.28202e-06 0)
(5.24175e-07 -2.42735e-06 0)
(4.80809e-07 -2.52005e-06 0)
(4.54505e-07 -2.59566e-06 0)
(4.39883e-07 -2.65484e-06 0)
(4.3324e-07 -2.70802e-06 0)
(4.32391e-07 -2.7565e-06 0)
(4.35544e-07 -2.80352e-06 0)
(4.41685e-07 -2.85e-06 0)
(4.49536e-07 -2.89656e-06 0)
(1.9786e-07 -2.30296e-06 0)
(1.74725e-07 -2.45708e-06 0)
(1.59972e-07 -2.55534e-06 0)
(1.51036e-07 -2.63463e-06 0)
(1.46086e-07 -2.69618e-06 0)
(1.43787e-07 -2.75099e-06 0)
(1.43421e-07 -2.80054e-06 0)
(1.44444e-07 -2.84833e-06 0)
(1.46497e-07 -2.89538e-06 0)
(1.49105e-07 -2.9425e-06 0)
(5.60635e-06 -6.85731e-08 0)
(5.65666e-06 -4.94902e-08 0)
(5.68768e-06 -3.74208e-08 0)
(5.72141e-06 -3.03526e-08 0)
(5.75837e-06 -2.64569e-08 0)
(5.80365e-06 -2.47076e-08 0)
(5.85716e-06 -2.43937e-08 0)
(5.91942e-06 -2.49947e-08 0)
(5.99031e-06 -2.6316e-08 0)
(6.06887e-06 -2.78989e-08 0)
(5.56494e-06 -2.05721e-07 0)
(5.60691e-06 -1.49591e-07 0)
(5.63272e-06 -1.14146e-07 0)
(5.66294e-06 -9.34928e-08 0)
(5.69758e-06 -8.21907e-08 0)
(5.74118e-06 -7.71012e-08 0)
(5.79352e-06 -7.62838e-08 0)
(5.85483e-06 -7.82679e-08 0)
(5.92488e-06 -8.22494e-08 0)
(6.00258e-06 -8.69394e-08 0)
(5.48219e-06 -3.44015e-07 0)
(5.50827e-06 -2.53938e-07 0)
(5.52404e-06 -1.97111e-07 0)
(5.54759e-06 -1.63997e-07 0)
(5.57784e-06 -1.45999e-07 0)
(5.61835e-06 -1.38113e-07 0)
(5.66837e-06 -1.37046e-07 0)
(5.72782e-06 -1.40464e-07 0)
(5.79628e-06 -1.47075e-07 0)
(5.87231e-06 -1.54913e-07 0)
(5.35959e-06 -4.84068e-07 0)
(5.36309e-06 -3.64918e-07 0)
(5.36452e-06 -2.89846e-07 0)
(5.37862e-06 -2.46303e-07 0)
(5.40256e-06 -2.22754e-07 0)
(5.43862e-06 -2.1268e-07 0)
(5.48539e-06 -2.1166e-07 0)
(5.54224e-06 -2.16686e-07 0)
(5.60846e-06 -2.25958e-07 0)
(5.68217e-06 -2.3697e-07 0)
(5.199e-06 -6.2625e-07 0)
(5.17463e-06 -4.84552e-07 0)
(5.15834e-06 -3.95309e-07 0)
(5.16067e-06 -3.43928e-07 0)
(5.17683e-06 -3.16398e-07 0)
(5.20739e-06 -3.05068e-07 0)
(5.2501e-06 -3.04608e-07 0)
(5.30367e-06 -3.11477e-07 0)
(5.3671e-06 -3.23399e-07 0)
(5.43802e-06 -3.3755e-07 0)
(5.00286e-06 -7.70635e-07 0)
(4.94689e-06 -6.14153e-07 0)
(4.9106e-06 -5.15585e-07 0)
(4.89966e-06 -4.59426e-07 0)
(4.90698e-06 -4.29808e-07 0)
(4.93125e-06 -4.1835e-07 0)
(4.96936e-06 -4.19021e-07 0)
(5.01918e-06 -4.27951e-07 0)
(5.0794e-06 -4.42504e-07 0)
(5.14719e-06 -4.59759e-07 0)
(4.77403e-06 -9.16951e-07 0)
(4.68467e-06 -7.54263e-07 0)
(4.62726e-06 -6.51772e-07 0)
(4.60229e-06 -5.94233e-07 0)
(4.60024e-06 -5.64578e-07 0)
(4.61782e-06 -5.54214e-07 0)
(4.65096e-06 -5.5666e-07 0)
(4.69676e-06 -5.67916e-07 0)
(4.75346e-06 -5.85142e-07 0)
(4.81796e-06 -6.05446e-07 0)
(4.51555e-06 -1.0645e-06 0)
(4.39309e-06 -9.0453e-07 0)
(4.31475e-06 -8.0374e-07 0)
(4.27578e-06 -7.48347e-07 0)
(4.26437e-06 -7.20796e-07 0)
(4.27517e-06 -7.12813e-07 0)
(4.30319e-06 -7.1772e-07 0)
(4.34483e-06 -7.31639e-07 0)
(4.39781e-06 -7.51583e-07 0)
(4.45894e-06 -7.74916e-07 0)
(4.23073e-06 -1.21226e-06 0)
(4.0775e-06 -1.06372e-06 0)
(3.97974e-06 -9.70174e-07 0)
(3.92766e-06 -9.20405e-07 0)
(3.90738e-06 -8.97097e-07 0)
(3.91162e-06 -8.92761e-07 0)
(3.93451e-06 -9.00868e-07 0)
(3.97191e-06 -9.1775e-07 0)
(4.02092e-06 -9.40596e-07 0)
(4.07862e-06 -9.66738e-07 0)
(3.92293e-06 -1.35884e-06 0)
(3.7432e-06 -1.22975e-06 0)
(3.62869e-06 -1.14856e-06 0)
(3.56515e-06 -1.10768e-06 0)
(3.53692e-06 -1.09062e-06 0)
(3.53509e-06 -1.09116e-06 0)
(3.55313e-06 -1.1032e-06 0)
(3.58633e-06 -1.12362e-06 0)
(3.63148e-06 -1.14961e-06 0)
(3.68533e-06 -1.1797e-06 0)
(6.15522e-06 -2.94398e-08 0)
(6.24933e-06 -2.9808e-08 0)
(6.34937e-06 -3.02242e-08 0)
(6.45499e-06 -3.05216e-08 0)
(6.56553e-06 -3.06716e-08 0)
(6.68059e-06 -3.06663e-08 0)
(6.79967e-06 -3.04682e-08 0)
(6.92228e-06 -3.01004e-08 0)
(7.04806e-06 -2.95606e-08 0)
(7.17665e-06 -2.88131e-08 0)
(7.30765e-06 -2.78243e-08 0)
(7.44066e-06 -2.65842e-08 0)
(7.57533e-06 -2.50841e-08 0)
(7.71127e-06 -2.33106e-08 0)
(7.84815e-06 -2.12314e-08 0)
(7.98544e-06 -1.87988e-08 0)
(8.1229e-06 -1.59534e-08 0)
(8.25964e-06 -1.26385e-08 0)
(8.39585e-06 -8.77745e-09 0)
(8.52938e-06 -4.34876e-09 0)
(6.09188e-06 -9.12528e-08 0)
(6.19127e-06 -9.19661e-08 0)
(6.29604e-06 -9.28467e-08 0)
(6.40578e-06 -9.34308e-08 0)
(6.52003e-06 -9.35969e-08 0)
(6.63834e-06 -9.33624e-08 0)
(6.76033e-06 -9.26422e-08 0)
(6.88561e-06 -9.144e-08 0)
(7.01384e-06 -8.96798e-08 0)
(7.14464e-06 -8.72896e-08 0)
(7.27768e-06 -8.42268e-08 0)
(7.41259e-06 -8.04706e-08 0)
(7.54906e-06 -7.59625e-08 0)
(7.68669e-06 -7.0621e-08 0)
(7.82515e-06 -6.4339e-08 0)
(7.96394e-06 -5.69988e-08 0)
(8.10284e-06 -4.84459e-08 0)
(8.24098e-06 -3.85209e-08 0)
(8.37856e-06 -2.6985e-08 0)
(8.51344e-06 -1.37436e-08 0)
(5.96733e-06 -1.61129e-07 0)
(6.07712e-06 -1.61016e-07 0)
(6.19121e-06 -1.6128e-07 0)
(6.30899e-06 -1.61336e-07 0)
(6.43042e-06 -1.60876e-07 0)
(6.55516e-06 -1.5992e-07 0)
(6.68297e-06 -1.58255e-07 0)
(6.81346e-06 -1.55848e-07 0)
(6.94642e-06 -1.52558e-07 0)
(7.08155e-06 -1.48302e-07 0)
(7.2186e-06 -1.43018e-07 0)
(7.35724e-06 -1.36639e-07 0)
(7.49719e-06 -1.29031e-07 0)
(7.63808e-06 -1.20039e-07 0)
(7.77963e-06 -1.09492e-07 0)
(7.92139e-06 -9.72063e-08 0)
(8.06317e-06 -8.29295e-08 0)
(8.2041e-06 -6.64044e-08 0)
(8.34441e-06 -4.72317e-08 0)
(8.48203e-06 -2.52277e-08 0)
(5.78535e-06 -2.43652e-07 0)
(5.91001e-06 -2.40853e-07 0)
(6.03754e-06 -2.38815e-07 0)
(6.16703e-06 -2.37078e-07 0)
(6.29901e-06 -2.34942e-07 0)
(6.43308e-06 -2.32433e-07 0)
(6.56932e-06 -2.29133e-07 0)
(6.70744e-06 -2.24974e-07 0)
(6.8474e-06 -2.19732e-07 0)
(6.98896e-06 -2.13293e-07 0)
(7.13192e-06 -2.05534e-07 0)
(7.27604e-06 -1.96312e-07 0)
(7.42109e-06 -1.85423e-07 0)
(7.56677e-06 -1.7266e-07 0)
(7.71287e-06 -1.57797e-07 0)
(7.85899e-06 -1.40554e-07 0)
(8.00494e-06 -1.20569e-07 0)
(8.14995e-06 -9.74755e-08 0)
(8.29423e-06 -7.06995e-08 0)
(8.43581e-06 -3.99958e-08 0)
(5.55135e-06 -3.42863e-07 0)
(5.69473e-06 -3.35017e-07 0)
(5.83937e-06 -3.28551e-07 0)
(5.9837e-06 -3.23398e-07 0)
(6.12911e-06 -3.18206e-07 0)
(6.27514e-06 -3.13015e-07 0)
(6.42226e-06 -3.07167e-07 0)
(6.57022e-06 -3.0054e-07 0)
(6.71917e-06 -2.92777e-07 0)
(6.86897e-06 -2.83688e-07 0)
(7.01955e-06 -2.73074e-07 0)
(7.17075e-06 -2.60716e-07 0)
(7.32243e-06 -2.46336e-07 0)
(7.47435e-06 -2.29659e-07 0)
(7.62637e-06 -2.10385e-07 0)
(7.77811e-06 -1.88132e-07 0)
(7.92948e-06 -1.62432e-07 0)
(8.0797e-06 -1.3281e-07 0)
(8.22915e-06 -9.85034e-08 0)
(8.37586e-06 -5.92005e-08 0)
(5.27201e-06 -4.61669e-07 0)
(5.43691e-06 -4.4605e-07 0)
(5.60155e-06 -4.32624e-07 0)
(5.76339e-06 -4.22055e-07 0)
(5.9248e-06 -4.12165e-07 0)
(6.08513e-06 -4.02962e-07 0)
(6.24521e-06 -3.93491e-07 0)
(6.40496e-06 -3.83493e-07 0)
(6.5647e-06 -3.72497e-07 0)
(6.7244e-06 -3.6021e-07 0)
(6.88415e-06 -3.46327e-07 0)
(7.04389e-06 -3.30526e-07 0)
(7.20353e-06 -3.12436e-07 0)
(7.36294e-06 -2.91704e-07 0)
(7.52206e-06 -2.67922e-07 0)
(7.68053e-06 -2.40624e-07 0)
(7.83842e-06 -2.0923e-07 0)
(7.99493e-06 -1.73155e-07 0)
(8.15059e-06 -1.31451e-07 0)
(8.30348e-06 -8.36913e-08 0)
(4.95505e-06 -6.01915e-07 0)
(5.14341e-06 -5.75708e-07 0)
(5.33018e-06 -5.52782e-07 0)
(5.51154e-06 -5.34666e-07 0)
(5.69081e-06 -5.18347e-07 0)
(5.86726e-06 -5.03644e-07 0)
(6.042e-06 -4.8938e-07 0)
(6.21514e-06 -4.75046e-07 0)
(6.38718e-06 -4.6005e-07 0)
(6.55824e-06 -4.43946e-07 0)
(6.72849e-06 -4.26297e-07 0)
(6.89798e-06 -4.06652e-07 0)
(7.06675e-06 -3.84545e-07 0)
(7.23474e-06 -3.59536e-07 0)
(7.40197e-06 -3.31114e-07 0)
(7.56821e-06 -2.98719e-07 0)
(7.73355e-06 -2.61653e-07 0)
(7.89733e-06 -2.19202e-07 0)
(8.06008e-06 -1.70228e-07 0)
(8.22004e-06 -1.14188e-07 0)
(4.60829e-06 -7.63979e-07 0)
(4.82092e-06 -7.24134e-07 0)
(5.03094e-06 -6.89205e-07 0)
(5.23328e-06 -6.61157e-07 0)
(5.43183e-06 -6.36557e-07 0)
(5.62589e-06 -6.14748e-07 0)
(5.81677e-06 -5.94415e-07 0)
(6.00472e-06 -5.74731e-07 0)
(6.19035e-06 -5.5494e-07 0)
(6.37394e-06 -5.34399e-07 0)
(6.5558e-06 -5.12506e-07 0)
(6.73606e-06 -4.88674e-07 0)
(6.91489e-06 -4.62328e-07 0)
(7.09238e-06 -4.32922e-07 0)
(7.2686e-06 -3.99833e-07 0)
(7.44343e-06 -3.62389e-07 0)
(7.61702e-06 -3.19755e-07 0)
(7.78881e-06 -2.71082e-07 0)
(7.95938e-06 -2.15041e-07 0)
(8.12718e-06 -1.50968e-07 0)
(4.23999e-06 -9.47588e-07 0)
(4.47718e-06 -8.91454e-07 0)
(4.71063e-06 -8.42864e-07 0)
(4.93475e-06 -8.02821e-07 0)
(5.1533e-06 -7.68342e-07 0)
(5.36587e-06 -7.37985e-07 0)
(5.57374e-06 -7.10335e-07 0)
(5.7774e-06 -6.8423e-07 0)
(5.9775e-06 -6.58726e-07 0)
(6.17449e-06 -6.32967e-07 0)
(6.36877e-06 -6.06189e-07 0)
(6.56063e-06 -5.77667e-07 0)
(6.75033e-06 -5.46711e-07 0)
(6.93807e-06 -5.12651e-07 0)
(7.12399e-06 -4.74734e-07 0)
(7.30808e-06 -4.32168e-07 0)
(7.49054e-06 -3.83971e-07 0)
(7.67095e-06 -3.29159e-07 0)
(7.84995e-06 -2.66236e-07 0)
(8.02623e-06 -1.94435e-07 0)
(3.85716e-06 -1.1497e-06 0)
(4.11937e-06 -1.07337e-06 0)
(4.37549e-06 -1.00945e-06 0)
(4.62206e-06 -9.55458e-07 0)
(4.86108e-06 -9.09418e-07 0)
(5.09295e-06 -8.69151e-07 0)
(5.31857e-06 -8.33072e-07 0)
(5.53866e-06 -7.99725e-07 0)
(5.75392e-06 -7.679e-07 0)
(5.96493e-06 -7.36509e-07 0)
(6.17221e-06 -7.04588e-07 0)
(6.37617e-06 -6.71246e-07 0)
(6.5772e-06 -6.35645e-07 0)
(6.7756e-06 -5.96976e-07 0)
(6.97158e-06 -5.54348e-07 0)
(7.16525e-06 -5.06846e-07 0)
(7.35689e-06 -4.53349e-07 0)
(7.54622e-06 -3.92729e-07 0)
(7.73398e-06 -3.23337e-07 0)
(7.91914e-06 -2.44257e-07 0)
(3.57153e-06 -1.34473e-06 0)
(3.85126e-06 -1.25144e-06 0)
(4.12139e-06 -1.17582e-06 0)
(4.38201e-06 -1.11058e-06 0)
(4.63403e-06 -1.05429e-06 0)
(4.87821e-06 -1.0047e-06 0)
(5.11541e-06 -9.6013e-07 0)
(5.34634e-06 -9.1908e-07 0)
(5.57171e-06 -8.80229e-07 0)
(5.79212e-06 -8.42387e-07 0)
(6.00811e-06 -8.04491e-07 0)
(6.22014e-06 -7.65557e-07 0)
(6.42866e-06 -7.24651e-07 0)
(6.63402e-06 -6.80864e-07 0)
(6.83647e-06 -6.33226e-07 0)
(7.03623e-06 -5.80737e-07 0)
(7.23362e-06 -5.22225e-07 0)
(7.42858e-06 -4.5649e-07 0)
(7.62183e-06 -3.81851e-07 0)
(7.81269e-06 -2.97327e-07 0)
(3.4088e-06 -1.50385e-06 0)
(3.69036e-06 -1.40678e-06 0)
(3.96283e-06 -1.3244e-06 0)
(4.22713e-06 -1.25208e-06 0)
(4.48337e-06 -1.18849e-06 0)
(4.73205e-06 -1.13171e-06 0)
(4.9738e-06 -1.08015e-06 0)
(5.20919e-06 -1.03239e-06 0)
(5.43881e-06 -9.87135e-07 0)
(5.66318e-06 -9.43209e-07 0)
(5.88284e-06 -8.99545e-07 0)
(6.09822e-06 -8.55144e-07 0)
(6.30977e-06 -8.09047e-07 0)
(6.51784e-06 -7.60319e-07 0)
(6.72271e-06 -7.0798e-07 0)
(6.92468e-06 -6.51016e-07 0)
(7.12407e-06 -5.88284e-07 0)
(7.321e-06 -5.18606e-07 0)
(7.51617e-06 -4.40379e-07 0)
(7.70916e-06 -3.52633e-07 0)
(3.27025e-06 -1.65621e-06 0)
(3.54893e-06 -1.55706e-06 0)
(3.82095e-06 -1.47045e-06 0)
(4.08589e-06 -1.39281e-06 0)
(4.34377e-06 -1.32321e-06 0)
(4.59467e-06 -1.26014e-06 0)
(4.83902e-06 -1.20221e-06 0)
(5.07719e-06 -1.14815e-06 0)
(5.30963e-06 -1.09676e-06 0)
(5.53678e-06 -1.04692e-06 0)
(5.7591e-06 -9.97586e-07 0)
(5.977e-06 -9.4778e-07 0)
(6.19088e-06 -8.96541e-07 0)
(6.40111e-06 -8.42933e-07 0)
(6.60795e-06 -7.85986e-07 0)
(6.81179e-06 -7.24698e-07 0)
(7.01294e-06 -6.57974e-07 0)
(7.21166e-06 -5.84689e-07 0)
(7.40857e-06 -5.03331e-07 0)
(7.60357e-06 -4.12975e-07 0)
(3.14824e-06 -1.80293e-06 0)
(3.42285e-06 -1.70281e-06 0)
(3.6925e-06 -1.61308e-06 0)
(3.95617e-06 -1.53114e-06 0)
(4.21382e-06 -1.45644e-06 0)
(4.46523e-06 -1.38781e-06 0)
(4.71065e-06 -1.32413e-06 0)
(4.95023e-06 -1.26426e-06 0)
(5.1843e-06 -1.20713e-06 0)
(5.41322e-06 -1.1517e-06 0)
(5.63736e-06 -1.09697e-06 0)
(5.85705e-06 -1.042e-06 0)
(6.07267e-06 -9.85854e-07 0)
(6.28458e-06 -9.27604e-07 0)
(6.49303e-06 -8.66312e-07 0)
(6.69844e-06 -8.01011e-07 0)
(6.90112e-06 -7.30668e-07 0)
(7.10142e-06 -6.54224e-07 0)
(7.29994e-06 -5.70271e-07 0)
(7.49681e-06 -4.77986e-07 0)
(3.04075e-06 -1.94347e-06 0)
(3.31025e-06 -1.8432e-06 0)
(3.57621e-06 -1.75148e-06 0)
(3.83721e-06 -1.66633e-06 0)
(4.0932e-06 -1.58752e-06 0)
(4.34374e-06 -1.51421e-06 0)
(4.58892e-06 -1.44548e-06 0)
(4.82874e-06 -1.3804e-06 0)
(5.06342e-06 -1.31801e-06 0)
(5.29319e-06 -1.25738e-06 0)
(5.51836e-06 -1.19759e-06 0)
(5.73917e-06 -1.13774e-06 0)
(5.95598e-06 -1.07693e-06 0)
(6.1691e-06 -1.0143e-06 0)
(6.37879e-06 -9.48927e-07 0)
(6.58548e-06 -8.79907e-07 0)
(6.78946e-06 -8.06275e-07 0)
(6.99115e-06 -7.27049e-07 0)
(7.19111e-06 -6.40956e-07 0)
(7.38969e-06 -5.47337e-07 0)
(2.94514e-06 -2.07799e-06 0)
(3.20902e-06 -1.97816e-06 0)
(3.4705e-06 -1.88523e-06 0)
(3.72788e-06 -1.79771e-06 0)
(3.98118e-06 -1.71562e-06 0)
(4.22979e-06 -1.63838e-06 0)
(4.47371e-06 -1.56529e-06 0)
(4.71281e-06 -1.4956e-06 0)
(4.94721e-06 -1.42847e-06 0)
(5.17706e-06 -1.36311e-06 0)
(5.40255e-06 -1.29866e-06 0)
(5.62389e-06 -1.23429e-06 0)
(5.84138e-06 -1.16917e-06 0)
(6.05529e-06 -1.10248e-06 0)
(6.26588e-06 -1.03335e-06 0)
(6.47355e-06 -9.60959e-07 0)
(6.6786e-06 -8.84398e-07 0)
(6.88148e-06 -8.02785e-07 0)
(7.08273e-06 -7.15017e-07 0)
(7.28283e-06 -6.20585e-07 0)
(2.85947e-06 -2.20671e-06 0)
(3.11744e-06 -2.10774e-06 0)
(3.37392e-06 -2.0142e-06 0)
(3.62704e-06 -1.92502e-06 0)
(3.87692e-06 -1.84039e-06 0)
(4.12283e-06 -1.75992e-06 0)
(4.36471e-06 -1.68314e-06 0)
(4.60233e-06 -1.60944e-06 0)
(4.83574e-06 -1.53813e-06 0)
(5.065e-06 -1.46851e-06 0)
(5.29023e-06 -1.39984e-06 0)
(5.51156e-06 -1.33135e-06 0)
(5.72929e-06 -1.26228e-06 0)
(5.9436e-06 -1.19187e-06 0)
(6.15476e-06 -1.11933e-06 0)
(6.36315e-06 -1.04389e-06 0)
(6.56904e-06 -9.64752e-07 0)
(6.77292e-06 -8.81124e-07 0)
(6.9753e-06 -7.92104e-07 0)
(7.17671e-06 -6.97237e-07 0)
(2.78193e-06 -2.32993e-06 0)
(3.03393e-06 -2.2321e-06 0)
(3.2851e-06 -2.13839e-06 0)
(3.5336e-06 -2.04811e-06 0)
(3.77955e-06 -1.96154e-06 0)
(4.02221e-06 -1.87848e-06 0)
(4.26146e-06 -1.7986e-06 0)
(4.49702e-06 -1.72146e-06 0)
(4.72886e-06 -1.64649e-06 0)
(4.95698e-06 -1.57312e-06 0)
(5.18145e-06 -1.50067e-06 0)
(5.40235e-06 -1.42848e-06 0)
(5.61991e-06 -1.35585e-06 0)
(5.8343e-06 -1.2821e-06 0)
(6.04575e-06 -1.20649e-06 0)
(6.2546e-06 -1.12836e-06 0)
(6.46114e-06 -1.04699e-06 0)
(6.66585e-06 -9.61713e-07 0)
(6.86918e-06 -8.71795e-07 0)
(7.07171e-06 -7.76783e-07 0)
(2.7109e-06 -2.44803e-06 0)
(2.95697e-06 -2.35149e-06 0)
(3.20273e-06 -2.25796e-06 0)
(3.44641e-06 -2.167e-06 0)
(3.68813e-06 -2.07899e-06 0)
(3.92716e-06 -1.99386e-06 0)
(4.16338e-06 -1.91143e-06 0)
(4.39645e-06 -1.83139e-06 0)
(4.62629e-06 -1.75327e-06 0)
(4.85286e-06 -1.67661e-06 0)
(5.07617e-06 -1.60085e-06 0)
(5.29628e-06 -1.52538e-06 0)
(5.51336e-06 -1.44959e-06 0)
(5.72754e-06 -1.37286e-06 0)
(5.93903e-06 -1.29456e-06 0)
(6.14816e-06 -1.21408e-06 0)
(6.35516e-06 -1.13083e-06 0)
(6.56054e-06 -1.04424e-06 0)
(6.76464e-06 -9.53685e-07 0)
(6.96811e-06 -8.58808e-07 0)
(2.64498e-06 -2.56139e-06 0)
(2.88524e-06 -2.46623e-06 0)
(3.1256e-06 -2.37309e-06 0)
(3.36438e-06 -2.28177e-06 0)
(3.60172e-06 -2.19273e-06 0)
(3.83693e-06 -2.10597e-06 0)
(4.06985e-06 -2.02147e-06 0)
(4.30013e-06 -1.93901e-06 0)
(4.52766e-06 -1.85823e-06 0)
(4.75238e-06 -1.77876e-06 0)
(4.97425e-06 -1.70013e-06 0)
(5.19328e-06 -1.62181e-06 0)
(5.40963e-06 -1.54325e-06 0)
(5.62338e-06 -1.46393e-06 0)
(5.83472e-06 -1.38328e-06 0)
(6.04394e-06 -1.3008e-06 0)
(6.25125e-06 -1.21599e-06 0)
(6.45711e-06 -1.12837e-06 0)
(6.66183e-06 -1.03739e-06 0)
(6.86607e-06 -9.42907e-07 0)
(2.5829e-06 -2.6704e-06 0)
(2.81754e-06 -2.57663e-06 0)
(3.05259e-06 -2.48403e-06 0)
(3.2865e-06 -2.3926e-06 0)
(3.51943e-06 -2.30284e-06 0)
(3.75072e-06 -2.21485e-06 0)
(3.98019e-06 -2.1287e-06 0)
(4.20751e-06 -2.04426e-06 0)
(4.43255e-06 -1.96126e-06 0)
(4.65521e-06 -1.87942e-06 0)
(4.87542e-06 -1.79834e-06 0)
(5.09319e-06 -1.71757e-06 0)
(5.30862e-06 -1.63663e-06 0)
(5.52176e-06 -1.55508e-06 0)
(5.73279e-06 -1.47244e-06 0)
(5.94196e-06 -1.38829e-06 0)
(6.14943e-06 -1.3022e-06 0)
(6.35563e-06 -1.21375e-06 0)
(6.56084e-06 -1.12257e-06 0)
(6.76568e-06 -1.02862e-06 0)
(2.52358e-06 -2.77544e-06 0)
(2.7528e-06 -2.683e-06 0)
(2.98267e-06 -2.59102e-06 0)
(3.21183e-06 -2.49966e-06 0)
(3.4404e-06 -2.40945e-06 0)
(3.66775e-06 -2.32056e-06 0)
(3.89373e-06 -2.23313e-06 0)
(4.11802e-06 -2.1471e-06 0)
(4.34045e-06 -2.0623e-06 0)
(4.56094e-06 -1.97849e-06 0)
(4.77939e-06 -1.89534e-06 0)
(4.99576e-06 -1.8125e-06 0)
(5.21014e-06 -1.72956e-06 0)
(5.42257e-06 -1.64615e-06 0)
(5.63317e-06 -1.56185e-06 0)
(5.84217e-06 -1.47632e-06 0)
(6.04969e-06 -1.38918e-06 0)
(6.25611e-06 -1.30012e-06 0)
(6.46168e-06 -1.20895e-06 0)
(6.66698e-06 -1.11555e-06 0)
(2.46601e-06 -2.87684e-06 0)
(2.69004e-06 -2.78565e-06 0)
(2.91494e-06 -2.69434e-06 0)
(3.13949e-06 -2.60319e-06 0)
(3.36378e-06 -2.51275e-06 0)
(3.58727e-06 -2.42323e-06 0)
(3.8098e-06 -2.33484e-06 0)
(4.03106e-06 -2.24756e-06 0)
(4.25089e-06 -2.16132e-06 0)
(4.46917e-06 -2.07591e-06 0)
(4.6858e-06 -1.99109e-06 0)
(4.90071e-06 -1.90655e-06 0)
(5.11399e-06 -1.82197e-06 0)
(5.32563e-06 -1.73703e-06 0)
(5.53572e-06 -1.65138e-06 0)
(5.74446e-06 -1.56472e-06 0)
(5.95191e-06 -1.47676e-06 0)
(6.15846e-06 -1.38728e-06 0)
(6.36427e-06 -1.29621e-06 0)
(6.5699e-06 -1.20344e-06 0)
(2.40928e-06 -2.97487e-06 0)
(2.62835e-06 -2.88489e-06 0)
(2.84848e-06 -2.79427e-06 0)
(3.0686e-06 -2.70342e-06 0)
(3.28878e-06 -2.61292e-06 0)
(3.50854e-06 -2.523e-06 0)
(3.72774e-06 -2.43393e-06 0)
(3.94605e-06 -2.34574e-06 0)
(4.16333e-06 -2.25839e-06 0)
(4.37943e-06 -2.17173e-06 0)
(4.59425e-06 -2.08558e-06 0)
(4.80771e-06 -1.99968e-06 0)
(5.01986e-06 -1.91378e-06 0)
(5.23068e-06 -1.8276e-06 0)
(5.44021e-06 -1.74086e-06 0)
(5.64861e-06 -1.6533e-06 0)
(5.85593e-06 -1.56471e-06 0)
(6.06253e-06 -1.47499e-06 0)
(6.2685e-06 -1.38404e-06 0)
(6.47434e-06 -1.29193e-06 0)
(2.35242e-06 -3.06988e-06 0)
(2.5668e-06 -2.98099e-06 0)
(2.78239e-06 -2.89106e-06 0)
(2.99829e-06 -2.80061e-06 0)
(3.21458e-06 -2.71019e-06 0)
(3.43082e-06 -2.62009e-06 0)
(3.64686e-06 -2.5306e-06 0)
(3.86238e-06 -2.44176e-06 0)
(4.07722e-06 -2.35358e-06 0)
(4.29125e-06 -2.26598e-06 0)
(4.50434e-06 -2.17882e-06 0)
(4.7164e-06 -2.09189e-06 0)
(4.92747e-06 -2.00497e-06 0)
(5.13747e-06 -1.91784e-06 0)
(5.34642e-06 -1.83023e-06 0)
(5.55445e-06 -1.74198e-06 0)
(5.76162e-06 -1.65296e-06 0)
(5.9682e-06 -1.56309e-06 0)
(6.17427e-06 -1.47231e-06 0)
(6.38022e-06 -1.38079e-06 0)
(2.29456e-06 -3.16209e-06 0)
(2.50447e-06 -3.07429e-06 0)
(2.71572e-06 -2.98497e-06 0)
(2.92772e-06 -2.89496e-06 0)
(3.1404e-06 -2.80478e-06 0)
(3.35339e-06 -2.71469e-06 0)
(3.56651e-06 -2.62498e-06 0)
(3.77945e-06 -2.53576e-06 0)
(3.99204e-06 -2.44704e-06 0)
(4.20416e-06 -2.35878e-06 0)
(4.41566e-06 -2.2709e-06 0)
(4.62644e-06 -2.18322e-06 0)
(4.83647e-06 -2.09553e-06 0)
(5.04567e-06 -2.00767e-06 0)
(5.25405e-06 -1.91942e-06 0)
(5.46174e-06 -1.83068e-06 0)
(5.66874e-06 -1.74136e-06 0)
(5.87525e-06 -1.65135e-06 0)
(6.08133e-06 -1.56079e-06 0)
(6.28733e-06 -1.46981e-06 0)
(2.23475e-06 -3.25183e-06 0)
(2.44028e-06 -3.1648e-06 0)
(2.64744e-06 -3.07628e-06 0)
(2.85601e-06 -2.98691e-06 0)
(3.06542e-06 -2.89706e-06 0)
(3.27553e-06 -2.80711e-06 0)
(3.48602e-06 -2.71737e-06 0)
(3.69667e-06 -2.62797e-06 0)
(3.90729e-06 -2.53895e-06 0)
(4.11774e-06 -2.45029e-06 0)
(4.32784e-06 -2.36193e-06 0)
(4.53745e-06 -2.27372e-06 0)
(4.74654e-06 -2.18549e-06 0)
(4.95502e-06 -2.09711e-06 0)
(5.1629e-06 -2.00843e-06 0)
(5.37028e-06 -1.91935e-06 0)
(5.57708e-06 -1.82978e-06 0)
(5.78347e-06 -1.7397e-06 0)
(5.98951e-06 -1.64936e-06 0)
(6.19558e-06 -1.55883e-06 0)
(2.17156e-06 -3.33899e-06 0)
(2.37338e-06 -3.25288e-06 0)
(2.57718e-06 -3.16533e-06 0)
(2.78245e-06 -3.07658e-06 0)
(2.98902e-06 -2.98721e-06 0)
(3.19656e-06 -2.89758e-06 0)
(3.40483e-06 -2.80798e-06 0)
(3.61355e-06 -2.7186e-06 0)
(3.82254e-06 -2.6295e-06 0)
(4.0316e-06 -2.54065e-06 0)
(4.24051e-06 -2.45202e-06 0)
(4.44911e-06 -2.36349e-06 0)
(4.65741e-06 -2.27493e-06 0)
(4.86532e-06 -2.18622e-06 0)
(5.07278e-06 -2.09723e-06 0)
(5.27979e-06 -2.00791e-06 0)
(5.48633e-06 -1.91817e-06 0)
(5.69269e-06 -1.82809e-06 0)
(5.89873e-06 -1.7379e-06 0)
(6.10466e-06 -1.64774e-06 0)
(2.10417e-06 -3.42454e-06 0)
(2.30259e-06 -3.33948e-06 0)
(2.50334e-06 -3.25266e-06 0)
(2.70593e-06 -3.16461e-06 0)
(2.91015e-06 -3.07579e-06 0)
(3.11567e-06 -2.98659e-06 0)
(3.32225e-06 -2.8973e-06 0)
(3.52957e-06 -2.80808e-06 0)
(3.73733e-06 -2.71902e-06 0)
(3.9453e-06 -2.63013e-06 0)
(4.15331e-06 -2.54139e-06 0)
(4.36123e-06 -2.45269e-06 0)
(4.56897e-06 -2.36393e-06 0)
(4.77632e-06 -2.27503e-06 0)
(4.98332e-06 -2.18584e-06 0)
(5.1901e-06 -2.09632e-06 0)
(5.39648e-06 -2.00649e-06 0)
(5.60267e-06 -1.91641e-06 0)
(5.80868e-06 -1.82628e-06 0)
(6.01456e-06 -1.73638e-06 0)
(2.0317e-06 -3.50774e-06 0)
(2.22714e-06 -3.42387e-06 0)
(2.42534e-06 -3.33813e-06 0)
(2.62583e-06 -3.25096e-06 0)
(2.82834e-06 -3.1629e-06 0)
(3.03252e-06 -3.07429e-06 0)
(3.238e-06 -2.98546e-06 0)
(3.44437e-06 -2.89657e-06 0)
(3.65135e-06 -2.80769e-06 0)
(3.85875e-06 -2.71888e-06 0)
(4.06627e-06 -2.63015e-06 0)
(4.27366e-06 -2.54142e-06 0)
(4.48092e-06 -2.45254e-06 0)
(4.68794e-06 -2.3635e-06 0)
(4.89459e-06 -2.27422e-06 0)
(5.10103e-06 -2.18459e-06 0)
(5.30724e-06 -2.09472e-06 0)
(5.51326e-06 -2.00457e-06 0)
(5.71924e-06 -1.91446e-06 0)
(5.92504e-06 -1.82463e-06 0)
(1.48658e-07 -2.99065e-06 0)
(4.47948e-07 -2.94692e-06 0)
(7.5313e-07 -2.86108e-06 0)
(1.06752e-06 -2.73673e-06 0)
(1.39379e-06 -2.57852e-06 0)
(1.73362e-06 -2.39245e-06 0)
(2.08763e-06 -2.18527e-06 0)
(2.4552e-06 -1.96407e-06 0)
(2.83522e-06 -1.73594e-06 0)
(3.22447e-06 -1.50649e-06 0)
(1.44658e-07 -3.04078e-06 0)
(4.35641e-07 -3.00085e-06 0)
(7.31493e-07 -2.92239e-06 0)
(1.03499e-06 -2.80851e-06 0)
(1.34839e-06 -2.6631e-06 0)
(1.67308e-06 -2.49129e-06 0)
(2.00961e-06 -2.29881e-06 0)
(2.35733e-06 -2.0918e-06 0)
(2.71462e-06 -1.87673e-06 0)
(3.07895e-06 -1.65852e-06 0)
(1.4107e-07 -3.09222e-06 0)
(4.24589e-07 -3.05575e-06 0)
(7.12041e-07 -2.98395e-06 0)
(1.00565e-06 -2.87959e-06 0)
(1.3073e-06 -2.74604e-06 0)
(1.61812e-06 -2.58768e-06 0)
(1.93867e-06 -2.40946e-06 0)
(2.26875e-06 -2.21652e-06 0)
(2.6071e-06 -2.01456e-06 0)
(2.95213e-06 -1.80686e-06 0)
(1.37846e-07 -3.14497e-06 0)
(4.14692e-07 -3.11142e-06 0)
(6.94814e-07 -3.04529e-06 0)
(9.79973e-07 -2.94905e-06 0)
(1.27175e-06 -2.82565e-06 0)
(1.57105e-06 -2.67889e-06 0)
(1.87824e-06 -2.51324e-06 0)
(2.19316e-06 -2.33317e-06 0)
(2.51468e-06 -2.14407e-06 0)
(2.84149e-06 -1.94847e-06 0)
(1.34883e-07 -3.19899e-06 0)
(4.05533e-07 -3.16805e-06 0)
(6.78927e-07 -3.107e-06 0)
(9.56428e-07 -3.01805e-06 0)
(1.23937e-06 -2.90384e-06 0)
(1.52847e-06 -2.76773e-06 0)
(1.82408e-06 -2.61371e-06 0)
(2.12604e-06 -2.44558e-06 0)
(2.4335e-06 -2.26827e-06 0)
(2.74472e-06 -2.08404e-06 0)
(1.32112e-07 -3.25419e-06 0)
(3.97035e-07 -3.22551e-06 0)
(6.64256e-07 -3.16888e-06 0)
(9.3488e-07 -3.0863e-06 0)
(1.21e-06 -2.98016e-06 0)
(1.49021e-06 -2.85348e-06 0)
(1.77572e-06 -2.70987e-06 0)
(2.0663e-06 -2.55273e-06 0)
(2.36149e-06 -2.38651e-06 0)
(2.65916e-06 -2.21347e-06 0)
(1.29439e-07 -3.3105e-06 0)
(3.88932e-07 -3.28382e-06 0)
(6.50335e-07 -3.23117e-06 0)
(9.14606e-07 -3.15428e-06 0)
(1.18261e-06 -3.05538e-06 0)
(1.45487e-06 -2.9372e-06 0)
(1.73153e-06 -2.80302e-06 0)
(2.01223e-06 -2.65588e-06 0)
(2.29684e-06 -2.49976e-06 0)
(2.58286e-06 -2.33711e-06 0)
(1.26881e-07 -3.36779e-06 0)
(3.81139e-07 -3.34288e-06 0)
(6.37013e-07 -3.29375e-06 0)
(8.95352e-07 -3.2219e-06 0)
(1.15685e-06 -3.12945e-06 0)
(1.42188e-06 -3.01888e-06 0)
(1.69065e-06 -2.89319e-06 0)
(1.96263e-06 -2.75519e-06 0)
(2.23795e-06 -2.60837e-06 0)
(2.51395e-06 -2.45535e-06 0)
(1.24392e-07 -3.42596e-06 0)
(3.73516e-07 -3.40263e-06 0)
(6.24056e-07 -3.35665e-06 0)
(8.76742e-07 -3.28933e-06 0)
(1.13215e-06 -3.20271e-06 0)
(1.39059e-06 -3.09899e-06 0)
(1.6522e-06 -2.98096e-06 0)
(1.91643e-06 -2.85124e-06 0)
(2.18354e-06 -2.71289e-06 0)
(2.45087e-06 -2.56868e-06 0)
(1.219e-07 -3.48489e-06 0)
(3.65966e-07 -3.46296e-06 0)
(6.11305e-07 -3.41979e-06 0)
(8.58546e-07 -3.35657e-06 0)
(1.10817e-06 -3.27517e-06 0)
(1.36045e-06 -3.17763e-06 0)
(1.61551e-06 -3.06653e-06 0)
(1.87274e-06 -2.94432e-06 0)
(2.13249e-06 -2.81372e-06 0)
(2.39223e-06 -2.67753e-06 0)
(1.19371e-07 -3.54444e-06 0)
(3.5841e-07 -3.52377e-06 0)
(5.98589e-07 -3.48315e-06 0)
(8.405e-07 -3.42363e-06 0)
(1.08454e-06 -3.34696e-06 0)
(1.33099e-06 -3.25501e-06 0)
(1.57993e-06 -3.15017e-06 0)
(1.83076e-06 -3.03479e-06 0)
(2.08385e-06 -2.91124e-06 0)
(2.33686e-06 -2.78234e-06 0)
(1.16814e-07 -3.60444e-06 0)
(3.50786e-07 -3.58492e-06 0)
(5.8577e-07 -3.54663e-06 0)
(8.22379e-07 -3.49046e-06 0)
(1.06097e-06 -3.41807e-06 0)
(1.30178e-06 -3.3312e-06 0)
(1.54493e-06 -3.23206e-06 0)
(1.78982e-06 -3.12288e-06 0)
(2.03679e-06 -3.00576e-06 0)
(2.28374e-06 -2.88345e-06 0)
(1.14214e-07 -3.66476e-06 0)
(3.42988e-07 -3.64631e-06 0)
(5.72683e-07 -3.61013e-06 0)
(8.03944e-07 -3.55703e-06 0)
(1.03712e-06 -3.48853e-06 0)
(1.27242e-06 -3.4063e-06 0)
(1.50998e-06 -3.31236e-06 0)
(1.74924e-06 -3.2088e-06 0)
(1.99051e-06 -3.09754e-06 0)
(2.23196e-06 -2.98124e-06 0)
(1.11524e-07 -3.72523e-06 0)
(3.34886e-07 -3.70777e-06 0)
(5.59146e-07 -3.67351e-06 0)
(7.8495e-07 -3.62321e-06 0)
(1.01267e-06 -3.55828e-06 0)
(1.24249e-06 -3.4803e-06 0)
(1.47457e-06 -3.39112e-06 0)
(1.70842e-06 -3.2927e-06 0)
(1.94431e-06 -3.18683e-06 0)
(2.18064e-06 -3.07599e-06 0)
(1.08685e-07 -3.7857e-06 0)
(3.26361e-07 -3.76915e-06 0)
(5.44977e-07 -3.73666e-06 0)
(7.65144e-07 -3.68895e-06 0)
(9.87275e-07 -3.62734e-06 0)
(1.21155e-06 -3.55327e-06 0)
(1.43816e-06 -3.46846e-06 0)
(1.66671e-06 -3.37475e-06 0)
(1.89741e-06 -3.27384e-06 0)
(2.12889e-06 -3.16798e-06 0)
(1.05664e-07 -3.84586e-06 0)
(3.17328e-07 -3.83016e-06 0)
(5.30006e-07 -3.79933e-06 0)
(7.44264e-07 -3.75404e-06 0)
(9.60571e-07 -3.69549e-06 0)
(1.17915e-06 -3.62505e-06 0)
(1.40022e-06 -3.54429e-06 0)
(1.62349e-06 -3.45497e-06 0)
(1.84907e-06 -3.35864e-06 0)
(2.07586e-06 -3.25736e-06 0)
(1.02435e-07 -3.90564e-06 0)
(3.0768e-07 -3.89075e-06 0)
(5.1401e-07 -3.86146e-06 0)
(7.2199e-07 -3.81845e-06 0)
(9.32154e-07 -3.76278e-06 0)
(1.14478e-06 -3.69574e-06 0)
(1.36013e-06 -3.61879e-06 0)
(1.578e-06 -3.53361e-06 0)
(1.79845e-06 -3.44151e-06 0)
(2.02054e-06 -3.34451e-06 0)
(9.89607e-08 -3.96439e-06 0)
(2.97278e-07 -3.95028e-06 0)
(4.96752e-07 -3.92247e-06 0)
(6.97991e-07 -3.88162e-06 0)
(9.01596e-07 -3.82869e-06 0)
(1.10792e-06 -3.76489e-06 0)
(1.31725e-06 -3.69158e-06 0)
(1.52946e-06 -3.6103e-06 0)
(1.74459e-06 -3.52224e-06 0)
(1.96196e-06 -3.42926e-06 0)
(9.51653e-08 -4.02243e-06 0)
(2.85898e-07 -4.00906e-06 0)
(4.77871e-07 -3.98269e-06 0)
(6.71776e-07 -3.94392e-06 0)
(8.68267e-07 -3.89366e-06 0)
(1.06779e-06 -3.833e-06 0)
(1.27067e-06 -3.7632e-06 0)
(1.47686e-06 -3.68563e-06 0)
(1.68641e-06 -3.60148e-06 0)
(1.89891e-06 -3.51234e-06 0)
(9.10074e-08 -4.07807e-06 0)
(2.73443e-07 -4.06542e-06 0)
(4.57209e-07 -4.04048e-06 0)
(6.43109e-07 -4.00379e-06 0)
(8.31873e-07 -3.95615e-06 0)
(1.02401e-06 -3.89862e-06 0)
(1.21989e-06 -3.83231e-06 0)
(1.41962e-06 -3.75846e-06 0)
(1.62327e-06 -3.67822e-06 0)
(1.83067e-06 -3.59296e-06 0)
)


// ************************************************************************* //
