/*--------------------------------*- C++ -*----------------------------------*\
| =========                 |                                                 |
| \\      /  F ield         | foam-extend: Open Source CFD                    |
|  \\    /   O peration     | Version:     4.1                                |
|   \\  /    A nd           | Web:         http://www.foam-extend.org         |
|    \\/     M anipulation  |                                                 |
\*---------------------------------------------------------------------------*/
FoamFile
{
    version     2.0;
    format      ascii;
    class       vectorField;
    location    "7";
    object      solidsCellD_iteration10;
}
// * * * * * * * * * * * * * * * * * * * * * * * * * * * * * * * * * * * * * //


1000
(
(3.62282e-06 -1.52947e-06 0)
(3.41874e-06 -1.42381e-06 0)
(3.2885e-06 -1.357e-06 0)
(3.21382e-06 -1.32607e-06 0)
(3.17746e-06 -1.3157e-06 0)
(3.16909e-06 -1.32119e-06 0)
(3.18131e-06 -1.33703e-06 0)
(3.20898e-06 -1.36062e-06 0)
(3.24834e-06 -1.38938e-06 0)
(3.2963e-06 -1.42183e-06 0)
(3.27576e-06 -1.6707e-06 0)
(3.05844e-06 -1.59737e-06 0)
(2.91983e-06 -1.55102e-06 0)
(2.83898e-06 -1.53403e-06 0)
(2.79776e-06 -1.53292e-06 0)
(2.78498e-06 -1.54495e-06 0)
(2.79298e-06 -1.56547e-06 0)
(2.81624e-06 -1.59253e-06 0)
(2.85086e-06 -1.62413e-06 0)
(2.89333e-06 -1.65841e-06 0)
(2.91514e-06 -1.80453e-06 0)
(2.69313e-06 -1.76736e-06 0)
(2.55158e-06 -1.7439e-06 0)
(2.46802e-06 -1.74226e-06 0)
(2.42418e-06 -1.75119e-06 0)
(2.40838e-06 -1.77016e-06 0)
(2.41294e-06 -1.79552e-06 0)
(2.43235e-06 -1.82601e-06 0)
(2.46261e-06 -1.86031e-06 0)
(2.5004e-06 -1.89639e-06 0)
(2.54365e-06 -1.92861e-06 0)
(2.32628e-06 -1.92935e-06 0)
(2.18769e-06 -1.92991e-06 0)
(2.10513e-06 -1.94427e-06 0)
(2.06095e-06 -1.96363e-06 0)
(2.04356e-06 -1.98971e-06 0)
(2.04548e-06 -2.01991e-06 0)
(2.06143e-06 -2.05381e-06 0)
(2.08761e-06 -2.09068e-06 0)
(2.1207e-06 -2.12872e-06 0)
(2.16388e-06 -2.0405e-06 0)
(1.96035e-06 -2.07881e-06 0)
(1.83062e-06 -2.10316e-06 0)
(1.75288e-06 -2.13332e-06 0)
(1.7107e-06 -2.16292e-06 0)
(1.69306e-06 -2.19598e-06 0)
(1.69314e-06 -2.23087e-06 0)
(1.70598e-06 -2.26809e-06 0)
(1.72819e-06 -2.30744e-06 0)
(1.7565e-06 -2.3475e-06 0)
(1.77762e-06 -2.13793e-06 0)
(1.59697e-06 -2.21137e-06 0)
(1.48187e-06 -2.25801e-06 0)
(1.41252e-06 -2.30296e-06 0)
(1.37449e-06 -2.34211e-06 0)
(1.35792e-06 -2.38165e-06 0)
(1.35692e-06 -2.42087e-06 0)
(1.367e-06 -2.46116e-06 0)
(1.38526e-06 -2.50278e-06 0)
(1.40861e-06 -2.54483e-06 0)
(1.38681e-06 -2.21868e-06 0)
(1.23701e-06 -2.32292e-06 0)
(1.14159e-06 -2.38911e-06 0)
(1.08387e-06 -2.447e-06 0)
(1.052e-06 -2.4945e-06 0)
(1.03776e-06 -2.53969e-06 0)
(1.03632e-06 -2.58269e-06 0)
(1.04387e-06 -2.6257e-06 0)
(1.05811e-06 -2.66929e-06 0)
(1.07636e-06 -2.71316e-06 0)
(9.92769e-07 -2.28098e-06 0)
(8.80537e-07 -2.40996e-06 0)
(8.0909e-07 -2.49182e-06 0)
(7.65807e-07 -2.56006e-06 0)
(7.41792e-07 -2.61429e-06 0)
(7.30877e-07 -2.66403e-06 0)
(7.29446e-07 -2.71009e-06 0)
(7.34651e-07 -2.75529e-06 0)
(7.44836e-07 -2.80047e-06 0)
(7.57912e-07 -2.84584e-06 0)
(5.96572e-07 -2.32333e-06 0)
(5.27093e-07 -2.46959e-06 0)
(4.82897e-07 -2.5624e-06 0)
(4.56033e-07 -2.63794e-06 0)
(4.41044e-07 -2.69686e-06 0)
(4.34148e-07 -2.74976e-06 0)
(4.33145e-07 -2.79796e-06 0)
(4.36222e-07 -2.84475e-06 0)
(4.42329e-07 -2.89106e-06 0)
(4.50175e-07 -2.93752e-06 0)
(1.99239e-07 -2.34467e-06 0)
(1.75706e-07 -2.49986e-06 0)
(1.60661e-07 -2.59832e-06 0)
(1.51522e-07 -2.6776e-06 0)
(1.46455e-07 -2.73895e-06 0)
(1.4408e-07 -2.79351e-06 0)
(1.43655e-07 -2.8428e-06 0)
(1.44647e-07 -2.89038e-06 0)
(1.46693e-07 -2.93727e-06 0)
(1.49302e-07 -2.98431e-06 0)
(5.65353e-06 -6.97929e-08 0)
(5.70448e-06 -5.03085e-08 0)
(5.73542e-06 -3.79635e-08 0)
(5.76888e-06 -3.07062e-08 0)
(5.80541e-06 -2.66771e-08 0)
(5.85022e-06 -2.48449e-08 0)
(5.90327e-06 -2.44884e-08 0)
(5.96513e-06 -2.50429e-08 0)
(6.03567e-06 -2.63416e-08 0)
(6.11393e-06 -2.79231e-08 0)
(5.61164e-06 -2.09398e-07 0)
(5.65413e-06 -1.52081e-07 0)
(5.67978e-06 -1.15799e-07 0)
(5.70965e-06 -9.46031e-08 0)
(5.74382e-06 -8.29444e-08 0)
(5.78693e-06 -7.75859e-08 0)
(5.83879e-06 -7.66089e-08 0)
(5.89968e-06 -7.84957e-08 0)
(5.96936e-06 -8.24299e-08 0)
(6.04674e-06 -8.70858e-08 0)
(5.52802e-06 -3.50156e-07 0)
(5.55433e-06 -2.58172e-07 0)
(5.56976e-06 -2e-07 0)
(5.59285e-06 -1.65977e-07 0)
(5.62254e-06 -1.47385e-07 0)
(5.6625e-06 -1.39092e-07 0)
(5.712e-06 -1.3778e-07 0)
(5.77101e-06 -1.41034e-07 0)
(5.83908e-06 -1.47554e-07 0)
(5.91474e-06 -1.55335e-07 0)
(5.40414e-06 -4.92723e-07 0)
(5.40745e-06 -3.71016e-07 0)
(5.40829e-06 -2.94152e-07 0)
(5.42174e-06 -2.49404e-07 0)
(5.44502e-06 -2.25056e-07 0)
(5.48048e-06 -2.14427e-07 0)
(5.52667e-06 -2.1306e-07 0)
(5.58303e-06 -2.17855e-07 0)
(5.64881e-06 -2.26982e-07 0)
(5.7221e-06 -2.37914e-07 0)
(5.24189e-06 -6.3745e-07 0)
(5.21681e-06 -4.92669e-07 0)
(5.19961e-06 -4.01258e-07 0)
(5.2011e-06 -3.48424e-07 0)
(5.21646e-06 -3.19928e-07 0)
(5.24632e-06 -3.07925e-07 0)
(5.28838e-06 -3.07022e-07 0)
(5.34141e-06 -3.13594e-07 0)
(5.40434e-06 -3.25313e-07 0)
(5.47476e-06 -3.39354e-07 0)
(5.04373e-06 -7.84429e-07 0)
(4.98649e-06 -6.24483e-07 0)
(4.94894e-06 -5.23467e-07 0)
(4.93693e-06 -4.65659e-07 0)
(4.94329e-06 -4.3494e-07 0)
(4.96675e-06 -4.22709e-07 0)
(5.00413e-06 -4.22859e-07 0)
(5.05334e-06 -4.31433e-07 0)
(5.113e-06 -4.45733e-07 0)
(5.18017e-06 -4.62847e-07 0)
(4.81259e-06 -9.33386e-07 0)
(4.72137e-06 -7.6701e-07 0)
(4.66231e-06 -6.6189e-07 0)
(4.63602e-06 -6.02566e-07 0)
(4.63285e-06 -5.71702e-07 0)
(4.64951e-06 -5.60492e-07 0)
(4.68185e-06 -5.6236e-07 0)
(4.72696e-06 -5.73197e-07 0)
(4.78303e-06 -5.90109e-07 0)
(4.84679e-06 -6.10219e-07 0)
(4.55155e-06 -1.08359e-06 0)
(4.42664e-06 -9.19883e-07 0)
(4.3463e-06 -8.16383e-07 0)
(4.30578e-06 -7.59147e-07 0)
(4.29311e-06 -7.30317e-07 0)
(4.30289e-06 -7.21445e-07 0)
(4.33002e-06 -7.2574e-07 0)
(4.37089e-06 -7.39195e-07 0)
(4.42315e-06 -7.58772e-07 0)
(4.48337e-06 -7.81855e-07 0)
(4.26399e-06 -1.23403e-06 0)
(4.10777e-06 -1.08183e-06 0)
(4.00767e-06 -9.85615e-07 0)
(3.95382e-06 -9.34006e-07 0)
(3.93215e-06 -9.09391e-07 0)
(3.93525e-06 -9.04128e-07 0)
(3.95718e-06 -9.11585e-07 0)
(3.99373e-06 -9.27962e-07 0)
(4.04199e-06 -9.50399e-07 0)
(4.09867e-06 -9.76214e-07 0)
(3.9533e-06 -1.38326e-06 0)
(3.77016e-06 -1.25076e-06 0)
(3.65303e-06 -1.16701e-06 0)
(3.58756e-06 -1.12436e-06 0)
(3.55784e-06 -1.106e-06 0)
(3.55484e-06 -1.10557e-06 0)
(3.57191e-06 -1.11691e-06 0)
(3.6042e-06 -1.13675e-06 0)
(3.64855e-06 -1.16223e-06 0)
(3.70133e-06 -1.19194e-06 0)
(6.20011e-06 -2.9459e-08 0)
(6.29404e-06 -2.97952e-08 0)
(6.39393e-06 -3.01868e-08 0)
(6.49941e-06 -3.04635e-08 0)
(6.60984e-06 -3.05983e-08 0)
(6.72482e-06 -3.05785e-08 0)
(6.84381e-06 -3.03547e-08 0)
(6.96634e-06 -2.99558e-08 0)
(7.09206e-06 -2.93877e-08 0)
(7.2206e-06 -2.86114e-08 0)
(7.35154e-06 -2.75917e-08 0)
(7.48449e-06 -2.6317e-08 0)
(7.6191e-06 -2.47748e-08 0)
(7.75496e-06 -2.29522e-08 0)
(7.89173e-06 -2.08201e-08 0)
(8.02889e-06 -1.83297e-08 0)
(8.16618e-06 -1.54186e-08 0)
(8.30271e-06 -1.20293e-08 0)
(8.43865e-06 -8.08424e-09 0)
(8.57184e-06 -3.5571e-09 0)
(6.13591e-06 -9.1358e-08 0)
(6.23521e-06 -9.1966e-08 0)
(6.33989e-06 -9.2774e-08 0)
(6.44957e-06 -9.32944e-08 0)
(6.56374e-06 -9.33946e-08 0)
(6.682e-06 -9.30999e-08 0)
(6.80394e-06 -9.23159e-08 0)
(6.92918e-06 -9.10434e-08 0)
(7.05737e-06 -8.92054e-08 0)
(7.18813e-06 -8.67224e-08 0)
(7.32112e-06 -8.3558e-08 0)
(7.45598e-06 -7.96942e-08 0)
(7.59239e-06 -7.50651e-08 0)
(7.72995e-06 -6.95847e-08 0)
(7.86833e-06 -6.31449e-08 0)
(8.00702e-06 -5.56248e-08 0)
(8.14578e-06 -4.68668e-08 0)
(8.28372e-06 -3.67105e-08 0)
(8.42106e-06 -2.49111e-08 0)
(8.5556e-06 -1.13669e-08 0)
(6.00972e-06 -1.61474e-07 0)
(6.11958e-06 -1.61169e-07 0)
(6.2337e-06 -1.61294e-07 0)
(6.3515e-06 -1.61234e-07 0)
(6.47296e-06 -1.60659e-07 0)
(6.59771e-06 -1.59593e-07 0)
(6.72553e-06 -1.57806e-07 0)
(6.85602e-06 -1.55264e-07 0)
(6.98898e-06 -1.51832e-07 0)
(7.1241e-06 -1.47421e-07 0)
(7.26112e-06 -1.41972e-07 0)
(7.39974e-06 -1.35416e-07 0)
(7.53964e-06 -1.27606e-07 0)
(7.68047e-06 -1.18383e-07 0)
(7.82195e-06 -1.07576e-07 0)
(7.96361e-06 -9.49979e-08 0)
(8.10525e-06 -8.03865e-08 0)
(8.24601e-06 -6.34764e-08 0)
(8.38611e-06 -4.38538e-08 0)
(8.52343e-06 -2.13293e-08 0)
(5.82535e-06 -2.44468e-07 0)
(5.9503e-06 -2.41372e-07 0)
(6.07804e-06 -2.39108e-07 0)
(6.2077e-06 -2.37175e-07 0)
(6.33983e-06 -2.34849e-07 0)
(6.47401e-06 -2.32158e-07 0)
(6.61035e-06 -2.28663e-07 0)
(6.74853e-06 -2.24302e-07 0)
(6.88855e-06 -2.18853e-07 0)
(7.03014e-06 -2.12192e-07 0)
(7.17312e-06 -2.04191e-07 0)
(7.31724e-06 -1.94708e-07 0)
(7.46228e-06 -1.8353e-07 0)
(7.60793e-06 -1.70446e-07 0)
(7.75398e-06 -1.55226e-07 0)
(7.90002e-06 -1.37582e-07 0)
(8.04585e-06 -1.17144e-07 0)
(8.19071e-06 -9.35239e-08 0)
(8.3348e-06 -6.61247e-08 0)
(8.47612e-06 -3.46992e-08 0)
(5.58833e-06 -3.44455e-07 0)
(5.73227e-06 -3.36169e-07 0)
(5.87732e-06 -3.29364e-07 0)
(6.02199e-06 -3.2391e-07 0)
(6.1677e-06 -3.18426e-07 0)
(6.31397e-06 -3.12967e-07 0)
(6.46128e-06 -3.06834e-07 0)
(6.6094e-06 -2.99922e-07 0)
(6.75846e-06 -2.91868e-07 0)
(6.90834e-06 -2.82468e-07 0)
(7.05897e-06 -2.71529e-07 0)
(7.21022e-06 -2.58831e-07 0)
(7.36193e-06 -2.44082e-07 0)
(7.51387e-06 -2.26997e-07 0)
(7.66587e-06 -2.07268e-07 0)
(7.81756e-06 -1.84506e-07 0)
(7.96885e-06 -1.58233e-07 0)
(8.11897e-06 -1.27946e-07 0)
(8.26826e-06 -9.28504e-08 0)
(8.41477e-06 -5.26411e-08 0)
(5.30538e-06 -4.64415e-07 0)
(5.47115e-06 -4.48162e-07 0)
(5.63644e-06 -4.34237e-07 0)
(5.79884e-06 -4.2323e-07 0)
(5.96072e-06 -4.12914e-07 0)
(6.12143e-06 -4.03323e-07 0)
(6.28179e-06 -3.93447e-07 0)
(6.44179e-06 -3.83057e-07 0)
(6.60173e-06 -3.71676e-07 0)
(6.76159e-06 -3.58993e-07 0)
(6.92147e-06 -3.44705e-07 0)
(7.08131e-06 -3.28483e-07 0)
(7.24103e-06 -3.09938e-07 0)
(7.40049e-06 -2.88704e-07 0)
(7.55962e-06 -2.64372e-07 0)
(7.71809e-06 -2.36465e-07 0)
(7.87593e-06 -2.04383e-07 0)
(8.03238e-06 -1.67518e-07 0)
(8.18793e-06 -1.24875e-07 0)
(8.34068e-06 -7.6037e-08 0)
(4.9844e-06 -6.06185e-07 0)
(5.17393e-06 -5.79126e-07 0)
(5.36158e-06 -5.55512e-07 0)
(5.54371e-06 -5.36776e-07 0)
(5.7236e-06 -5.19862e-07 0)
(5.90058e-06 -5.04611e-07 0)
(6.07574e-06 -4.89813e-07 0)
(6.24923e-06 -4.74973e-07 0)
(6.42156e-06 -4.59488e-07 0)
(6.59286e-06 -4.42893e-07 0)
(6.76332e-06 -4.24746e-07 0)
(6.93299e-06 -4.04588e-07 0)
(7.10189e-06 -3.81934e-07 0)
(7.26999e-06 -3.56333e-07 0)
(7.43729e-06 -3.27271e-07 0)
(7.60358e-06 -2.94176e-07 0)
(7.76893e-06 -2.56317e-07 0)
(7.93269e-06 -2.12957e-07 0)
(8.09538e-06 -1.62915e-07 0)
(8.25527e-06 -1.05648e-07 0)
(4.63329e-06 -7.70184e-07 0)
(4.84734e-06 -7.29198e-07 0)
(5.05847e-06 -6.93334e-07 0)
(5.26175e-06 -6.6444e-07 0)
(5.46111e-06 -6.39066e-07 0)
(5.65581e-06 -6.16539e-07 0)
(5.84726e-06 -5.95531e-07 0)
(6.03568e-06 -5.75215e-07 0)
(6.22171e-06 -5.5482e-07 0)
(6.40565e-06 -5.33681e-07 0)
(6.5878e-06 -5.11191e-07 0)
(6.76832e-06 -4.86751e-07 0)
(6.94737e-06 -4.59768e-07 0)
(7.12504e-06 -4.29684e-07 0)
(7.30141e-06 -3.95867e-07 0)
(7.47636e-06 -3.57633e-07 0)
(7.65001e-06 -3.14107e-07 0)
(7.82185e-06 -2.64419e-07 0)
(7.99243e-06 -2.07197e-07 0)
(8.16023e-06 -1.41775e-07 0)
(4.26058e-06 -9.56081e-07 0)
(4.49927e-06 -8.98559e-07 0)
(4.73396e-06 -8.48797e-07 0)
(4.95914e-06 -8.07658e-07 0)
(5.17861e-06 -7.72176e-07 0)
(5.39196e-06 -7.40899e-07 0)
(5.60052e-06 -7.12403e-07 0)
(5.80477e-06 -6.85514e-07 0)
(6.00541e-06 -6.59272e-07 0)
(6.20287e-06 -6.32801e-07 0)
(6.39757e-06 -6.05323e-07 0)
(6.5898e-06 -5.76098e-07 0)
(6.77983e-06 -5.44415e-07 0)
(6.96786e-06 -5.09589e-07 0)
(7.15403e-06 -4.70857e-07 0)
(7.33833e-06 -4.27406e-07 0)
(7.52095e-06 -3.7822e-07 0)
(7.70149e-06 -3.22296e-07 0)
(7.88059e-06 -2.58097e-07 0)
(8.05696e-06 -1.84847e-07 0)
(3.87331e-06 -1.16066e-06 0)
(4.13694e-06 -1.0826e-06 0)
(4.39432e-06 -1.01721e-06 0)
(4.64201e-06 -9.61864e-07 0)
(4.88203e-06 -9.1463e-07 0)
(5.11481e-06 -8.73284e-07 0)
(5.34125e-06 -8.3622e-07 0)
(5.56207e-06 -8.01961e-07 0)
(5.77801e-06 -7.69285e-07 0)
(5.98965e-06 -7.3708e-07 0)
(6.1975e-06 -7.04365e-07 0)
(6.40198e-06 -6.70233e-07 0)
(6.60349e-06 -6.33821e-07 0)
(6.8023e-06 -5.94302e-07 0)
(6.99866e-06 -5.50775e-07 0)
(7.19266e-06 -5.02298e-07 0)
(7.38458e-06 -4.47724e-07 0)
(7.57417e-06 -3.85901e-07 0)
(7.76214e-06 -3.15149e-07 0)
(7.94751e-06 -2.34534e-07 0)
(3.58558e-06 -1.35716e-06 0)
(3.86596e-06 -1.26231e-06 0)
(4.13697e-06 -1.18515e-06 0)
(4.3986e-06 -1.11843e-06 0)
(4.65162e-06 -1.06083e-06 0)
(4.89677e-06 -1.01003e-06 0)
(5.13486e-06 -9.64364e-07 0)
(5.36662e-06 -9.22297e-07 0)
(5.59277e-06 -8.82499e-07 0)
(5.8139e-06 -8.43752e-07 0)
(6.03054e-06 -8.04976e-07 0)
(6.24319e-06 -7.65171e-07 0)
(6.45226e-06 -7.23377e-07 0)
(6.65811e-06 -6.78665e-07 0)
(6.86102e-06 -6.30055e-07 0)
(7.06118e-06 -5.76515e-07 0)
(7.25893e-06 -5.16861e-07 0)
(7.45422e-06 -4.49854e-07 0)
(7.64777e-06 -3.73796e-07 0)
(7.8389e-06 -2.87676e-07 0)
(3.42119e-06 -1.517e-06 0)
(3.70352e-06 -1.41846e-06 0)
(3.97682e-06 -1.33466e-06 0)
(4.24202e-06 -1.26091e-06 0)
(4.49917e-06 -1.196e-06 0)
(4.74875e-06 -1.13797e-06 0)
(4.99135e-06 -1.08525e-06 0)
(5.22755e-06 -1.03641e-06 0)
(5.45792e-06 -9.9014e-07 0)
(5.683e-06 -9.45236e-07 0)
(5.9033e-06 -9.00622e-07 0)
(6.11928e-06 -8.55284e-07 0)
(6.33137e-06 -8.08235e-07 0)
(6.53992e-06 -7.58522e-07 0)
(6.74524e-06 -7.05155e-07 0)
(6.94761e-06 -6.47082e-07 0)
(7.14736e-06 -5.83162e-07 0)
(7.34463e-06 -5.12166e-07 0)
(7.54009e-06 -4.32481e-07 0)
(7.73335e-06 -3.4312e-07 0)
(3.28074e-06 -1.67031e-06 0)
(3.56032e-06 -1.56956e-06 0)
(3.83321e-06 -1.4815e-06 0)
(4.09905e-06 -1.40246e-06 0)
(4.35781e-06 -1.33153e-06 0)
(4.60957e-06 -1.26719e-06 0)
(4.85475e-06 -1.20807e-06 0)
(5.09369e-06 -1.15288e-06 0)
(5.32685e-06 -1.10041e-06 0)
(5.55467e-06 -1.04953e-06 0)
(5.77762e-06 -9.99197e-07 0)
(5.99609e-06 -9.48401e-07 0)
(6.2105e-06 -8.96157e-07 0)
(6.4212e-06 -8.41515e-07 0)
(6.62849e-06 -7.83496e-07 0)
(6.83272e-06 -7.21056e-07 0)
(7.03424e-06 -6.53109e-07 0)
(7.23328e-06 -5.78475e-07 0)
(7.4305e-06 -4.95639e-07 0)
(7.62579e-06 -4.03683e-07 0)
(3.15687e-06 -1.81815e-06 0)
(3.43244e-06 -1.71632e-06 0)
(3.70301e-06 -1.62507e-06 0)
(3.96759e-06 -1.54168e-06 0)
(4.2261e-06 -1.4656e-06 0)
(4.47835e-06 -1.39566e-06 0)
(4.72455e-06 -1.33074e-06 0)
(4.96487e-06 -1.26969e-06 0)
(5.19965e-06 -1.21143e-06 0)
(5.42922e-06 -1.1549e-06 0)
(5.65395e-06 -1.09912e-06 0)
(5.8742e-06 -1.04311e-06 0)
(6.09034e-06 -9.8591e-07 0)
(6.3027e-06 -9.26583e-07 0)
(6.5116e-06 -8.6418e-07 0)
(6.71739e-06 -7.97691e-07 0)
(6.92044e-06 -7.26097e-07 0)
(7.12108e-06 -6.48283e-07 0)
(7.31991e-06 -5.62855e-07 0)
(7.5171e-06 -4.68997e-07 0)
(3.04768e-06 -1.95975e-06 0)
(3.31815e-06 -1.85769e-06 0)
(3.58503e-06 -1.76439e-06 0)
(3.84694e-06 -1.67774e-06 0)
(4.10377e-06 -1.59752e-06 0)
(4.35513e-06 -1.52285e-06 0)
(4.60107e-06 -1.45283e-06 0)
(4.8416e-06 -1.38651e-06 0)
(5.07696e-06 -1.32294e-06 0)
(5.30736e-06 -1.26117e-06 0)
(5.5331e-06 -1.20028e-06 0)
(5.75446e-06 -1.13934e-06 0)
(5.97177e-06 -1.07744e-06 0)
(6.18534e-06 -1.01369e-06 0)
(6.39546e-06 -9.47167e-07 0)
(6.60252e-06 -8.76931e-07 0)
(6.80687e-06 -8.02027e-07 0)
(7.00891e-06 -7.21425e-07 0)
(7.2092e-06 -6.33876e-07 0)
(7.40813e-06 -5.38705e-07 0)
(2.95054e-06 -2.09529e-06 0)
(3.21536e-06 -1.99363e-06 0)
(3.47775e-06 -1.89906e-06 0)
(3.736e-06 -1.80999e-06 0)
(3.99014e-06 -1.72643e-06 0)
(4.23954e-06 -1.64779e-06 0)
(4.48419e-06 -1.57336e-06 0)
(4.72398e-06 -1.50238e-06 0)
(4.95904e-06 -1.43402e-06 0)
(5.18949e-06 -1.36747e-06 0)
(5.41554e-06 -1.30187e-06 0)
(5.6374e-06 -1.23638e-06 0)
(5.85537e-06 -1.17012e-06 0)
(6.06971e-06 -1.10227e-06 0)
(6.28071e-06 -1.03196e-06 0)
(6.48875e-06 -9.58329e-07 0)
(6.69416e-06 -8.80488e-07 0)
(6.89738e-06 -7.97508e-07 0)
(7.09899e-06 -7.0831e-07 0)
(7.29945e-06 -6.12339e-07 0)
(2.86351e-06 -2.22495e-06 0)
(3.12238e-06 -2.12414e-06 0)
(3.37972e-06 -2.02892e-06 0)
(3.63368e-06 -1.93814e-06 0)
(3.88437e-06 -1.852e-06 0)
(4.13103e-06 -1.77008e-06 0)
(4.37361e-06 -1.6919e-06 0)
(4.6119e-06 -1.61687e-06 0)
(4.84594e-06 -1.54428e-06 0)
(5.07577e-06 -1.47343e-06 0)
(5.30153e-06 -1.40356e-06 0)
(5.52337e-06 -1.3339e-06 0)
(5.74154e-06 -1.26365e-06 0)
(5.95626e-06 -1.19205e-06 0)
(6.16782e-06 -1.1183e-06 0)
(6.37656e-06 -1.04162e-06 0)
(6.58281e-06 -9.61197e-07 0)
(6.78703e-06 -8.76221e-07 0)
(6.98978e-06 -7.85789e-07 0)
(7.19155e-06 -6.89414e-07 0)
(2.78476e-06 -2.34905e-06 0)
(3.03759e-06 -2.24937e-06 0)
(3.28957e-06 -2.15396e-06 0)
(3.53887e-06 -2.06203e-06 0)
(3.78559e-06 -1.97391e-06 0)
(4.02895e-06 -1.88934e-06 0)
(4.26886e-06 -1.80803e-06 0)
(4.50505e-06 -1.72951e-06 0)
(4.73749e-06 -1.65323e-06 0)
(4.96616e-06 -1.57856e-06 0)
(5.19113e-06 -1.50488e-06 0)
(5.41251e-06 -1.43147e-06 0)
(5.63049e-06 -1.35762e-06 0)
(5.84527e-06 -1.28265e-06 0)
(6.05709e-06 -1.20582e-06 0)
(6.26629e-06 -1.12644e-06 0)
(6.47319e-06 -1.04381e-06 0)
(6.67824e-06 -9.57203e-07 0)
(6.88193e-06 -8.65892e-07 0)
(7.08482e-06 -7.69434e-07 0)
(2.71265e-06 -2.46795e-06 0)
(2.95948e-06 -2.36957e-06 0)
(3.20597e-06 -2.27432e-06 0)
(3.45039e-06 -2.18168e-06 0)
(3.69282e-06 -2.09208e-06 0)
(3.93252e-06 -2.0054e-06 0)
(4.16935e-06 -1.9215e-06 0)
(4.40302e-06 -1.84004e-06 0)
(4.63342e-06 -1.76056e-06 0)
(4.86051e-06 -1.68258e-06 0)
(5.0843e-06 -1.60553e-06 0)
(5.30485e-06 -1.52881e-06 0)
(5.52234e-06 -1.45176e-06 0)
(5.73689e-06 -1.3738e-06 0)
(5.94875e-06 -1.29426e-06 0)
(6.15821e-06 -1.21253e-06 0)
(6.36557e-06 -1.12803e-06 0)
(6.57128e-06 -1.04013e-06 0)
(6.77573e-06 -9.48219e-07 0)
(6.9796e-06 -8.5196e-07 0)
(2.64575e-06 -2.58204e-06 0)
(2.88668e-06 -2.48505e-06 0)
(3.1277e-06 -2.39017e-06 0)
(3.36715e-06 -2.29716e-06 0)
(3.60514e-06 -2.20649e-06 0)
(3.84097e-06 -2.11816e-06 0)
(4.07446e-06 -2.03215e-06 0)
(4.30531e-06 -1.94824e-06 0)
(4.53337e-06 -1.86606e-06 0)
(4.75857e-06 -1.78522e-06 0)
(4.98089e-06 -1.70526e-06 0)
(5.20035e-06 -1.62565e-06 0)
(5.41708e-06 -1.5458e-06 0)
(5.63119e-06 -1.46524e-06 0)
(5.84288e-06 -1.38335e-06 0)
(6.05243e-06 -1.29963e-06 0)
(6.26008e-06 -1.21358e-06 0)
(6.46627e-06 -1.12466e-06 0)
(6.67134e-06 -1.03239e-06 0)
(6.87599e-06 -9.36567e-07 0)
(2.58278e-06 -2.69171e-06 0)
(2.81799e-06 -2.59612e-06 0)
(3.05363e-06 -2.50177e-06 0)
(3.28814e-06 -2.40863e-06 0)
(3.52166e-06 -2.31723e-06 0)
(3.75351e-06 -2.22765e-06 0)
(3.98352e-06 -2.13995e-06 0)
(4.21136e-06 -2.05403e-06 0)
(4.43689e-06 -1.96959e-06 0)
(4.66e-06 -1.88634e-06 0)
(4.88065e-06 -1.8039e-06 0)
(5.09882e-06 -1.7218e-06 0)
(5.31461e-06 -1.63956e-06 0)
(5.52811e-06 -1.55676e-06 0)
(5.73947e-06 -1.47287e-06 0)
(5.94896e-06 -1.38748e-06 0)
(6.15676e-06 -1.30016e-06 0)
(6.36328e-06 -1.21046e-06 0)
(6.56886e-06 -1.11804e-06 0)
(6.77409e-06 -1.02281e-06 0)
(2.5226e-06 -2.79733e-06 0)
(2.75233e-06 -2.70309e-06 0)
(2.98271e-06 -2.60936e-06 0)
(3.2124e-06 -2.5163e-06 0)
(3.4415e-06 -2.42443e-06 0)
(3.66936e-06 -2.33392e-06 0)
(3.89583e-06 -2.24492e-06 0)
(4.12059e-06 -2.15738e-06 0)
(4.34348e-06 -2.0711e-06 0)
(4.56439e-06 -1.98584e-06 0)
(4.78325e-06 -1.90132e-06 0)
(5.00001e-06 -1.81713e-06 0)
(5.21475e-06 -1.73287e-06 0)
(5.42752e-06 -1.64819e-06 0)
(5.63845e-06 -1.56264e-06 0)
(5.84777e-06 -1.47587e-06 0)
(6.0556e-06 -1.38754e-06 0)
(6.26234e-06 -1.29727e-06 0)
(6.46829e-06 -1.20489e-06 0)
(6.67397e-06 -1.11028e-06 0)
(2.46422e-06 -2.89926e-06 0)
(2.68869e-06 -2.80629e-06 0)
(2.91403e-06 -2.71324e-06 0)
(3.13904e-06 -2.62038e-06 0)
(3.36381e-06 -2.52827e-06 0)
(3.58775e-06 -2.43711e-06 0)
(3.81071e-06 -2.34712e-06 0)
(4.0324e-06 -2.25831e-06 0)
(4.25266e-06 -2.17056e-06 0)
(4.47134e-06 -2.08369e-06 0)
(4.68836e-06 -1.99746e-06 0)
(4.90366e-06 -1.91156e-06 0)
(5.11728e-06 -1.82564e-06 0)
(5.32926e-06 -1.73942e-06 0)
(5.53967e-06 -1.65252e-06 0)
(5.74871e-06 -1.56464e-06 0)
(5.95648e-06 -1.4755e-06 0)
(6.16336e-06 -1.38485e-06 0)
(6.36952e-06 -1.29262e-06 0)
(6.57554e-06 -1.1987e-06 0)
(2.40671e-06 -2.99778e-06 0)
(2.62615e-06 -2.90602e-06 0)
(2.84666e-06 -2.81367e-06 0)
(3.06717e-06 -2.72112e-06 0)
(3.28776e-06 -2.62893e-06 0)
(3.50792e-06 -2.53735e-06 0)
(3.72751e-06 -2.44667e-06 0)
(3.94622e-06 -2.35692e-06 0)
(4.16389e-06 -2.26805e-06 0)
(4.38038e-06 -2.17991e-06 0)
(4.59557e-06 -2.09233e-06 0)
(4.8094e-06 -2.00506e-06 0)
(5.02189e-06 -1.9178e-06 0)
(5.23304e-06 -1.83034e-06 0)
(5.44289e-06 -1.74235e-06 0)
(5.6516e-06 -1.65358e-06 0)
(5.85924e-06 -1.56384e-06 0)
(6.06616e-06 -1.47297e-06 0)
(6.27246e-06 -1.38092e-06 0)
(6.47869e-06 -1.28773e-06 0)
(2.34908e-06 -3.09322e-06 0)
(2.56375e-06 -3.00257e-06 0)
(2.77965e-06 -2.91092e-06 0)
(2.99589e-06 -2.81875e-06 0)
(3.21254e-06 -2.72664e-06 0)
(3.42913e-06 -2.63488e-06 0)
(3.64552e-06 -2.54376e-06 0)
(3.8614e-06 -2.45335e-06 0)
(4.07662e-06 -2.36364e-06 0)
(4.29102e-06 -2.27454e-06 0)
(4.50448e-06 -2.18594e-06 0)
(4.71691e-06 -2.09762e-06 0)
(4.92831e-06 -2.00934e-06 0)
(5.13864e-06 -1.92091e-06 0)
(5.34791e-06 -1.83206e-06 0)
(5.55626e-06 -1.74262e-06 0)
(5.76375e-06 -1.65245e-06 0)
(5.97063e-06 -1.56146e-06 0)
(6.17704e-06 -1.46965e-06 0)
(6.38337e-06 -1.37713e-06 0)
(2.29041e-06 -3.1858e-06 0)
(2.50054e-06 -3.09627e-06 0)
(2.71206e-06 -3.00523e-06 0)
(2.92434e-06 -2.91352e-06 0)
(3.13734e-06 -2.82165e-06 0)
(3.35064e-06 -2.72988e-06 0)
(3.56408e-06 -2.63853e-06 0)
(3.77737e-06 -2.54774e-06 0)
(3.99032e-06 -2.45748e-06 0)
(4.20279e-06 -2.36772e-06 0)
(4.41465e-06 -2.27838e-06 0)
(4.62579e-06 -2.18929e-06 0)
(4.83616e-06 -2.10024e-06 0)
(5.0457e-06 -2.01108e-06 0)
(5.25442e-06 -1.92159e-06 0)
(5.46242e-06 -1.83165e-06 0)
(5.66974e-06 -1.7412e-06 0)
(5.87655e-06 -1.65012e-06 0)
(6.08298e-06 -1.55858e-06 0)
(6.28937e-06 -1.46668e-06 0)
(2.22974e-06 -3.27588e-06 0)
(2.43545e-06 -3.18714e-06 0)
(2.64281e-06 -3.09692e-06 0)
(2.85163e-06 -3.00583e-06 0)
(3.06131e-06 -2.91429e-06 0)
(3.2717e-06 -2.82268e-06 0)
(3.4825e-06 -2.73131e-06 0)
(3.69349e-06 -2.64032e-06 0)
(3.90445e-06 -2.54975e-06 0)
(4.11524e-06 -2.45958e-06 0)
(4.3257e-06 -2.36976e-06 0)
(4.53568e-06 -2.28014e-06 0)
(4.74513e-06 -2.19053e-06 0)
(4.95397e-06 -2.10086e-06 0)
(5.16219e-06 -2.01092e-06 0)
(5.3699e-06 -1.92064e-06 0)
(5.57703e-06 -1.82996e-06 0)
(5.78376e-06 -1.73885e-06 0)
(5.99013e-06 -1.64757e-06 0)
(6.19655e-06 -1.55621e-06 0)
(2.16564e-06 -3.36337e-06 0)
(2.36758e-06 -3.27555e-06 0)
(2.57155e-06 -3.18629e-06 0)
(2.77703e-06 -3.09586e-06 0)
(2.98384e-06 -3.0048e-06 0)
(3.19165e-06 -2.9135e-06 0)
(3.40021e-06 -2.82228e-06 0)
(3.60927e-06 -2.73132e-06 0)
(3.81859e-06 -2.64066e-06 0)
(4.02799e-06 -2.55029e-06 0)
(4.23727e-06 -2.46019e-06 0)
(4.44628e-06 -2.37025e-06 0)
(4.65495e-06 -2.28031e-06 0)
(4.86323e-06 -2.19029e-06 0)
(5.07105e-06 -2.10004e-06 0)
(5.27843e-06 -2.00952e-06 0)
(5.48535e-06 -1.91869e-06 0)
(5.69204e-06 -1.8276e-06 0)
(5.89843e-06 -1.73652e-06 0)
(6.10474e-06 -1.64562e-06 0)
(2.09725e-06 -3.44919e-06 0)
(2.29575e-06 -3.36244e-06 0)
(2.49663e-06 -3.27394e-06 0)
(2.69941e-06 -3.1842e-06 0)
(2.90386e-06 -3.09372e-06 0)
(3.10965e-06 -3.00286e-06 0)
(3.31651e-06 -2.91193e-06 0)
(3.52413e-06 -2.82114e-06 0)
(3.73224e-06 -2.73053e-06 0)
(3.94059e-06 -2.64013e-06 0)
(4.149e-06 -2.54992e-06 0)
(4.35731e-06 -2.4598e-06 0)
(4.56543e-06 -2.36965e-06 0)
(4.77322e-06 -2.27944e-06 0)
(4.98065e-06 -2.18899e-06 0)
(5.18781e-06 -2.09826e-06 0)
(5.39462e-06 -2.00735e-06 0)
(5.60119e-06 -1.91627e-06 0)
(5.80757e-06 -1.82529e-06 0)
(6.01384e-06 -1.73473e-06 0)
(2.02371e-06 -3.53265e-06 0)
(2.21919e-06 -3.4471e-06 0)
(2.41751e-06 -3.35969e-06 0)
(2.61818e-06 -3.27087e-06 0)
(2.82091e-06 -3.18114e-06 0)
(3.02534e-06 -3.09088e-06 0)
(3.2311e-06 -3.00043e-06 0)
(3.43781e-06 -2.90998e-06 0)
(3.64517e-06 -2.81956e-06 0)
(3.85294e-06 -2.72923e-06 0)
(4.06087e-06 -2.63904e-06 0)
(4.26871e-06 -2.54889e-06 0)
(4.47641e-06 -2.45863e-06 0)
(4.68388e-06 -2.36827e-06 0)
(4.89101e-06 -2.27773e-06 0)
(5.09792e-06 -2.1869e-06 0)
(5.30461e-06 -2.09592e-06 0)
(5.5111e-06 -2.00479e-06 0)
(5.7175e-06 -1.91384e-06 0)
(5.92375e-06 -1.82342e-06 0)
(1.48788e-07 -3.03244e-06 0)
(4.48386e-07 -2.98787e-06 0)
(7.54017e-07 -2.90047e-06 0)
(1.06911e-06 -2.77381e-06 0)
(1.3964e-06 -2.61269e-06 0)
(1.73759e-06 -2.42319e-06 0)
(2.09334e-06 -2.21221e-06 0)
(2.46301e-06 -1.98699e-06 0)
(2.84544e-06 -1.7548e-06 0)
(3.23746e-06 -1.52137e-06 0)
(1.44662e-07 -3.08249e-06 0)
(4.3571e-07 -3.04177e-06 0)
(7.31753e-07 -2.96186e-06 0)
(1.03569e-06 -2.8458e-06 0)
(1.34983e-06 -2.69766e-06 0)
(1.67561e-06 -2.5226e-06 0)
(2.01363e-06 -2.32649e-06 0)
(2.36319e-06 -2.11563e-06 0)
(2.72274e-06 -1.89658e-06 0)
(3.08968e-06 -1.67438e-06 0)
(1.40985e-07 -3.13375e-06 0)
(4.24392e-07 -3.09653e-06 0)
(7.11863e-07 -3.02339e-06 0)
(1.00571e-06 -2.91698e-06 0)
(1.30789e-06 -2.78086e-06 0)
(1.61958e-06 -2.61945e-06 0)
(1.94139e-06 -2.43781e-06 0)
(2.27308e-06 -2.24123e-06 0)
(2.61348e-06 -2.03543e-06 0)
(2.96088e-06 -1.8238e-06 0)
(1.37707e-07 -3.18629e-06 0)
(4.14307e-07 -3.15203e-06 0)
(6.94327e-07 -3.08465e-06 0)
(9.79573e-07 -2.98651e-06 0)
(1.27172e-06 -2.8607e-06 0)
(1.57169e-06 -2.7111e-06 0)
(1.87993e-06 -2.54222e-06 0)
(2.19621e-06 -2.3587e-06 0)
(2.51951e-06 -2.1659e-06 0)
(2.84841e-06 -1.9665e-06 0)
(1.34703e-07 -3.24008e-06 0)
(4.05016e-07 -3.20848e-06 0)
(6.78204e-07 -3.14627e-06 0)
(9.5567e-07 -3.05555e-06 0)
(1.23883e-06 -2.93908e-06 0)
(1.52844e-06 -2.80032e-06 0)
(1.82489e-06 -2.64327e-06 0)
(2.128e-06 -2.47185e-06 0)
(2.437e-06 -2.29099e-06 0)
(2.75007e-06 -2.10309e-06 0)
(1.31889e-07 -3.29504e-06 0)
(3.96418e-07 -3.26574e-06 0)
(6.63348e-07 -3.20802e-06 0)
(9.33846e-07 -3.12381e-06 0)
(1.20907e-06 -3.01555e-06 0)
(1.48964e-06 -2.88637e-06 0)
(1.77581e-06 -2.73991e-06 0)
(2.06734e-06 -2.57964e-06 0)
(2.36384e-06 -2.41002e-06 0)
(2.66312e-06 -2.23346e-06 0)
(1.29189e-07 -3.35111e-06 0)
(3.88232e-07 -3.32385e-06 0)
(6.49279e-07 -3.27017e-06 0)
(9.13351e-07 -3.19176e-06 0)
(1.18135e-06 -3.09088e-06 0)
(1.45384e-06 -2.97034e-06 0)
(1.73101e-06 -2.83347e-06 0)
(2.01248e-06 -2.68336e-06 0)
(2.29818e-06 -2.524e-06 0)
(2.58561e-06 -2.35798e-06 0)
(1.26616e-07 -3.40815e-06 0)
(3.80371e-07 -3.38271e-06 0)
(6.35838e-07 -3.33259e-06 0)
(8.93915e-07 -3.25933e-06 0)
(1.15531e-06 -3.16502e-06 0)
(1.42046e-06 -3.05222e-06 0)
(1.68959e-06 -2.92399e-06 0)
(1.96219e-06 -2.78316e-06 0)
(2.23842e-06 -2.63326e-06 0)
(2.51564e-06 -2.47703e-06 0)
(1.24104e-07 -3.46608e-06 0)
(3.72683e-07 -3.44227e-06 0)
(6.22778e-07 -3.39534e-06 0)
(8.75138e-07 -3.32671e-06 0)
(1.13037e-06 -3.23831e-06 0)
(1.38882e-06 -3.13248e-06 0)
(1.65067e-06 -3.01204e-06 0)
(1.91538e-06 -2.87964e-06 0)
(2.18324e-06 -2.73836e-06 0)
(2.45161e-06 -2.59108e-06 0)
(1.21583e-07 -3.52476e-06 0)
(3.65076e-07 -3.5024e-06 0)
(6.09931e-07 -3.45833e-06 0)
(8.56784e-07 -3.39385e-06 0)
(1.10615e-06 -3.31078e-06 0)
(1.35837e-06 -3.21123e-06 0)
(1.61355e-06 -3.09783e-06 0)
(1.87113e-06 -2.97308e-06 0)
(2.1315e-06 -2.8397e-06 0)
(2.39212e-06 -2.70058e-06 0)
(1.19032e-07 -3.58407e-06 0)
(3.57473e-07 -3.56302e-06 0)
(5.97116e-07 -3.52154e-06 0)
(8.38583e-07 -3.46081e-06 0)
(1.0823e-06 -3.38255e-06 0)
(1.3286e-06 -3.28868e-06 0)
(1.57757e-06 -3.18165e-06 0)
(1.82865e-06 -3.06385e-06 0)
(2.08223e-06 -2.93766e-06 0)
(2.33595e-06 -2.80596e-06 0)
(1.16462e-07 -3.64385e-06 0)
(3.49797e-07 -3.624e-06 0)
(5.84186e-07 -3.58486e-06 0)
(8.20304e-07 -3.52754e-06 0)
(1.0585e-06 -3.45362e-06 0)
(1.29909e-06 -3.36491e-06 0)
(1.54218e-06 -3.26369e-06 0)
(1.78721e-06 -3.15219e-06 0)
(2.03455e-06 -3.03255e-06 0)
(2.2821e-06 -2.9076e-06 0)
(1.13846e-07 -3.70396e-06 0)
(3.41929e-07 -3.6852e-06 0)
(5.70968e-07 -3.64821e-06 0)
(8.01692e-07 -3.59398e-06 0)
(1.03442e-06 -3.52402e-06 0)
(1.26942e-06 -3.44003e-06 0)
(1.50684e-06 -3.34409e-06 0)
(1.74616e-06 -3.23832e-06 0)
(1.9877e-06 -3.12466e-06 0)
(2.22962e-06 -3.00584e-06 0)
(1.11127e-07 -3.76423e-06 0)
(3.33738e-07 -3.74646e-06 0)
(5.57283e-07 -3.71143e-06 0)
(7.82493e-07 -3.66005e-06 0)
(1.00971e-06 -3.59372e-06 0)
(1.23916e-06 -3.51404e-06 0)
(1.47103e-06 -3.42293e-06 0)
(1.70485e-06 -3.32239e-06 0)
(1.94091e-06 -3.21423e-06 0)
(2.17761e-06 -3.10099e-06 0)
(1.08254e-07 -3.8245e-06 0)
(3.25114e-07 -3.80765e-06 0)
(5.4295e-07 -3.77442e-06 0)
(7.62455e-07 -3.72567e-06 0)
(9.84016e-07 -3.66269e-06 0)
(1.20785e-06 -3.58699e-06 0)
(1.43418e-06 -3.50032e-06 0)
(1.66264e-06 -3.4046e-06 0)
(1.89342e-06 -3.30149e-06 0)
(2.12516e-06 -3.19334e-06 0)
(1.05196e-07 -3.88445e-06 0)
(3.15974e-07 -3.86846e-06 0)
(5.27798e-07 -3.83692e-06 0)
(7.41316e-07 -3.79062e-06 0)
(9.56985e-07 -3.73076e-06 0)
(1.17505e-06 -3.65874e-06 0)
(1.39577e-06 -3.5762e-06 0)
(1.61887e-06 -3.48494e-06 0)
(1.84444e-06 -3.38651e-06 0)
(2.07141e-06 -3.28304e-06 0)
(1.01928e-07 -3.94401e-06 0)
(3.06205e-07 -3.92883e-06 0)
(5.11597e-07 -3.89888e-06 0)
(7.18749e-07 -3.85488e-06 0)
(9.28198e-07 -3.79795e-06 0)
(1.14024e-06 -3.72939e-06 0)
(1.35516e-06 -3.65073e-06 0)
(1.57276e-06 -3.56366e-06 0)
(1.79312e-06 -3.46957e-06 0)
(2.01531e-06 -3.37047e-06 0)
(9.84073e-08 -4.00253e-06 0)
(2.95657e-07 -3.98813e-06 0)
(4.94096e-07 -3.9597e-06 0)
(6.94407e-07 -3.9179e-06 0)
(8.97203e-07 -3.86375e-06 0)
(1.10285e-06 -3.79849e-06 0)
(1.31167e-06 -3.72352e-06 0)
(1.52351e-06 -3.64042e-06 0)
(1.73849e-06 -3.55045e-06 0)
(1.95587e-06 -3.45547e-06 0)
(9.45525e-08 -4.06032e-06 0)
(2.84094e-07 -4.04666e-06 0)
(4.74921e-07 -4.01969e-06 0)
(6.67787e-07 -3.98002e-06 0)
(8.63363e-07 -3.92858e-06 0)
(1.06211e-06 -3.86651e-06 0)
(1.26437e-06 -3.7951e-06 0)
(1.47012e-06 -3.7158e-06 0)
(1.67945e-06 -3.62981e-06 0)
(1.89187e-06 -3.53877e-06 0)
(9.0322e-08 -4.11567e-06 0)
(2.71423e-07 -4.10275e-06 0)
(4.53913e-07 -4.07724e-06 0)
(6.38638e-07 -4.03968e-06 0)
(8.26357e-07 -3.99093e-06 0)
(1.0176e-06 -3.93204e-06 0)
(1.21277e-06 -3.86418e-06 0)
(1.412e-06 -3.78868e-06 0)
(1.61536e-06 -3.70667e-06 0)
(1.82262e-06 -3.61959e-06 0)
)


// ************************************************************************* //
