/*--------------------------------*- C++ -*----------------------------------*\
| =========                 |                                                 |
| \\      /  F ield         | foam-extend: Open Source CFD                    |
|  \\    /   O peration     | Version:     4.1                                |
|   \\  /    A nd           | Web:         http://www.foam-extend.org         |
|    \\/     M anipulation  |                                                 |
\*---------------------------------------------------------------------------*/
FoamFile
{
    version     2.0;
    format      ascii;
    class       vectorField;
    location    "7";
    object      solidsCellD_iteration19;
}
// * * * * * * * * * * * * * * * * * * * * * * * * * * * * * * * * * * * * * //


1000
(
(3.66982e-06 -1.58075e-06 0)
(3.45927e-06 -1.46936e-06 0)
(3.32407e-06 -1.39797e-06 0)
(3.24579e-06 -1.36379e-06 0)
(3.20674e-06 -1.35082e-06 0)
(3.19623e-06 -1.35423e-06 0)
(3.2068e-06 -1.36831e-06 0)
(3.23315e-06 -1.39029e-06 0)
(3.27134e-06 -1.41768e-06 0)
(3.31916e-06 -1.44874e-06 0)
(3.31766e-06 -1.7266e-06 0)
(3.09349e-06 -1.64841e-06 0)
(2.94977e-06 -1.59799e-06 0)
(2.86523e-06 -1.57801e-06 0)
(2.82139e-06 -1.57443e-06 0)
(2.80665e-06 -1.58447e-06 0)
(2.81316e-06 -1.60327e-06 0)
(2.83533e-06 -1.62877e-06 0)
(2.86911e-06 -1.65908e-06 0)
(2.9114e-06 -1.69192e-06 0)
(2.95196e-06 -1.86487e-06 0)
(2.72299e-06 -1.8238e-06 0)
(2.57638e-06 -1.79686e-06 0)
(2.48919e-06 -1.79263e-06 0)
(2.44278e-06 -1.79935e-06 0)
(2.42512e-06 -1.8165e-06 0)
(2.42833e-06 -1.84026e-06 0)
(2.44672e-06 -1.86931e-06 0)
(2.47623e-06 -1.90244e-06 0)
(2.51377e-06 -1.93725e-06 0)
(2.57543e-06 -1.99307e-06 0)
(2.3512e-06 -1.99096e-06 0)
(2.20775e-06 -1.9887e-06 0)
(2.12175e-06 -2.00092e-06 0)
(2.07515e-06 -2.01835e-06 0)
(2.056e-06 -2.04282e-06 0)
(2.05669e-06 -2.07156e-06 0)
(2.07168e-06 -2.10419e-06 0)
(2.09716e-06 -2.14e-06 0)
(2.12991e-06 -2.17692e-06 0)
(2.19059e-06 -2.1087e-06 0)
(1.98065e-06 -2.14522e-06 0)
(1.84645e-06 -2.16743e-06 0)
(1.76555e-06 -2.19591e-06 0)
(1.72114e-06 -2.22388e-06 0)
(1.70192e-06 -2.25554e-06 0)
(1.7009e-06 -2.28915e-06 0)
(1.71289e-06 -2.32524e-06 0)
(1.73444e-06 -2.36362e-06 0)
(1.76237e-06 -2.4027e-06 0)
(1.79939e-06 -2.2094e-06 0)
(1.61301e-06 -2.28208e-06 0)
(1.49393e-06 -2.32721e-06 0)
(1.42183e-06 -2.37089e-06 0)
(1.38187e-06 -2.4087e-06 0)
(1.36398e-06 -2.44704e-06 0)
(1.362e-06 -2.48514e-06 0)
(1.37132e-06 -2.52444e-06 0)
(1.38898e-06 -2.56519e-06 0)
(1.41195e-06 -2.60638e-06 0)
(1.40367e-06 -2.29289e-06 0)
(1.24912e-06 -2.39724e-06 0)
(1.15041e-06 -2.46248e-06 0)
(1.09045e-06 -2.51949e-06 0)
(1.05701e-06 -2.56591e-06 0)
(1.04169e-06 -2.61007e-06 0)
(1.03942e-06 -2.65209e-06 0)
(1.04633e-06 -2.6942e-06 0)
(1.06008e-06 -2.737e-06 0)
(1.07801e-06 -2.78011e-06 0)
(1.00474e-06 -2.3573e-06 0)
(8.89006e-07 -2.48711e-06 0)
(8.15108e-07 -2.56849e-06 0)
(7.70134e-07 -2.63617e-06 0)
(7.44945e-07 -2.6895e-06 0)
(7.3321e-07 -2.73835e-06 0)
(7.31167e-07 -2.78354e-06 0)
(7.35906e-07 -2.82793e-06 0)
(7.45735e-07 -2.87237e-06 0)
(7.58575e-07 -2.91707e-06 0)
(6.03747e-07 -2.4011e-06 0)
(5.32095e-07 -2.54869e-06 0)
(4.86361e-07 -2.64135e-06 0)
(4.58466e-07 -2.71653e-06 0)
(4.42772e-07 -2.77469e-06 0)
(4.35378e-07 -2.82681e-06 0)
(4.3398e-07 -2.87421e-06 0)
(4.36755e-07 -2.92023e-06 0)
(4.42651e-07 -2.96584e-06 0)
(4.50357e-07 -3.01168e-06 0)
(2.01634e-07 -2.42316e-06 0)
(1.7736e-07 -2.57995e-06 0)
(1.61816e-07 -2.67843e-06 0)
(1.52324e-07 -2.75746e-06 0)
(1.4699e-07 -2.81812e-06 0)
(1.44452e-07 -2.87196e-06 0)
(1.43918e-07 -2.92048e-06 0)
(1.44806e-07 -2.96733e-06 0)
(1.46769e-07 -3.01354e-06 0)
(1.4933e-07 -3.05999e-06 0)
(5.73433e-06 -7.21606e-08 0)
(5.78661e-06 -5.19325e-08 0)
(5.81762e-06 -3.9069e-08 0)
(5.85067e-06 -3.14657e-08 0)
(5.88647e-06 -2.71891e-08 0)
(5.9305e-06 -2.51637e-08 0)
(5.9827e-06 -2.46818e-08 0)
(6.04382e-06 -2.5172e-08 0)
(6.11361e-06 -2.63697e-08 0)
(6.19119e-06 -2.78566e-08 0)
(5.69168e-06 -2.16488e-07 0)
(5.73521e-06 -1.56982e-07 0)
(5.76074e-06 -1.19174e-07 0)
(5.79014e-06 -9.69211e-08 0)
(5.82351e-06 -8.45367e-08 0)
(5.86583e-06 -7.8698e-08 0)
(5.91679e-06 -7.7319e-08 0)
(5.97689e-06 -7.88967e-08 0)
(6.04584e-06 -8.25696e-08 0)
(6.1225e-06 -8.70165e-08 0)
(5.60652e-06 -3.62028e-07 0)
(5.63339e-06 -2.66486e-07 0)
(5.64835e-06 -2.05848e-07 0)
(5.67077e-06 -1.70183e-07 0)
(5.69952e-06 -1.50397e-07 0)
(5.73856e-06 -1.41253e-07 0)
(5.78712e-06 -1.39284e-07 0)
(5.84529e-06 -1.42045e-07 0)
(5.91259e-06 -1.48171e-07 0)
(5.98749e-06 -1.55607e-07 0)
(5.48036e-06 -5.09412e-07 0)
(5.48355e-06 -3.82984e-07 0)
(5.48346e-06 -3.0278e-07 0)
(5.49592e-06 -2.55813e-07 0)
(5.51809e-06 -2.29883e-07 0)
(5.5525e-06 -2.18119e-07 0)
(5.59765e-06 -2.15906e-07 0)
(5.65305e-06 -2.20026e-07 0)
(5.718e-06 -2.28588e-07 0)
(5.79041e-06 -2.39024e-07 0)
(5.31521e-06 -6.5902e-07 0)
(5.2891e-06 -5.08564e-07 0)
(5.27042e-06 -4.1311e-07 0)
(5.27056e-06 -3.57564e-07 0)
(5.28457e-06 -3.27157e-07 0)
(5.3132e-06 -3.13774e-07 0)
(5.35412e-06 -3.11828e-07 0)
(5.40608e-06 -3.17554e-07 0)
(5.46812e-06 -3.28563e-07 0)
(5.53748e-06 -3.41995e-07 0)
(5.11358e-06 -8.10945e-07 0)
(5.05431e-06 -6.44627e-07 0)
(5.01463e-06 -5.39044e-07 0)
(5.00082e-06 -4.78153e-07 0)
(5.00558e-06 -4.45231e-07 0)
(5.02762e-06 -4.31401e-07 0)
(5.06369e-06 -4.30344e-07 0)
(5.11172e-06 -4.3796e-07 0)
(5.17037e-06 -4.51443e-07 0)
(5.23629e-06 -4.67844e-07 0)
(4.87847e-06 -9.64873e-07 0)
(4.78417e-06 -7.9172e-07 0)
(4.72233e-06 -6.81684e-07 0)
(4.69377e-06 -6.19005e-07 0)
(4.6887e-06 -5.85733e-07 0)
(4.70371e-06 -5.72763e-07 0)
(4.73456e-06 -5.73307e-07 0)
(4.77835e-06 -5.83115e-07 0)
(4.8333e-06 -5.99119e-07 0)
(4.89559e-06 -6.18431e-07 0)
(4.61308e-06 -1.12009e-06 0)
(4.48406e-06 -9.49455e-07 0)
(4.40028e-06 -8.40878e-07 0)
(4.35704e-06 -7.80151e-07 0)
(4.34216e-06 -7.48793e-07 0)
(4.35007e-06 -7.38054e-07 0)
(4.37555e-06 -7.40949e-07 0)
(4.41493e-06 -7.53326e-07 0)
(4.46593e-06 -7.71924e-07 0)
(4.52445e-06 -7.94169e-07 0)
(4.32086e-06 -1.27553e-06 0)
(4.15958e-06 -1.11654e-06 0)
(4.0554e-06 -1.01525e-06 0)
(3.99844e-06 -9.60128e-07 0)
(3.97427e-06 -9.32916e-07 0)
(3.97533e-06 -9.25721e-07 0)
(3.9955e-06 -9.31727e-07 0)
(4.03044e-06 -9.46998e-07 0)
(4.07734e-06 -9.68464e-07 0)
(4.13222e-06 -9.935e-07 0)
(4.00531e-06 -1.4297e-06 0)
(3.81626e-06 -1.29083e-06 0)
(3.69455e-06 -1.20217e-06 0)
(3.62566e-06 -1.15606e-06 0)
(3.59328e-06 -1.13507e-06 0)
(3.58811e-06 -1.13266e-06 0)
(3.60331e-06 -1.14243e-06 0)
(3.63385e-06 -1.16105e-06 0)
(3.67661e-06 -1.18541e-06 0)
(3.72774e-06 -1.21431e-06 0)
(6.27683e-06 -2.9348e-08 0)
(6.37024e-06 -2.96154e-08 0)
(6.46965e-06 -2.99532e-08 0)
(6.57474e-06 -3.01859e-08 0)
(6.68482e-06 -3.02849e-08 0)
(6.79944e-06 -3.02346e-08 0)
(6.91811e-06 -2.99805e-08 0)
(7.04038e-06 -2.95329e-08 0)
(7.16585e-06 -2.88936e-08 0)
(7.2941e-06 -2.80441e-08 0)
(7.42476e-06 -2.69562e-08 0)
(7.55742e-06 -2.561e-08 0)
(7.69171e-06 -2.3981e-08 0)
(7.82721e-06 -2.20462e-08 0)
(7.96357e-06 -1.97769e-08 0)
(8.10023e-06 -1.71334e-08 0)
(8.23692e-06 -1.40593e-08 0)
(8.3727e-06 -1.04901e-08 0)
(8.50774e-06 -6.33678e-09 0)
(8.63978e-06 -1.56669e-09 0)
(6.2112e-06 -9.11391e-08 0)
(6.31012e-06 -9.15071e-08 0)
(6.41447e-06 -9.21506e-08 0)
(6.52382e-06 -9.25459e-08 0)
(6.63771e-06 -9.25425e-08 0)
(6.75569e-06 -9.21385e-08 0)
(6.87737e-06 -9.12196e-08 0)
(7.00237e-06 -8.97805e-08 0)
(7.13033e-06 -8.77595e-08 0)
(7.26085e-06 -8.50976e-08 0)
(7.39358e-06 -8.17349e-08 0)
(7.52817e-06 -7.76289e-08 0)
(7.66427e-06 -7.27076e-08 0)
(7.80147e-06 -6.68867e-08 0)
(7.93943e-06 -6.00611e-08 0)
(8.07762e-06 -5.2109e-08 0)
(8.21579e-06 -4.28654e-08 0)
(8.35299e-06 -3.21515e-08 0)
(8.48944e-06 -1.96938e-08 0)
(8.62287e-06 -5.39434e-09 0)
(6.08215e-06 -1.61434e-07 0)
(6.19188e-06 -1.60685e-07 0)
(6.30587e-06 -1.6052e-07 0)
(6.42358e-06 -1.60227e-07 0)
(6.54493e-06 -1.59436e-07 0)
(6.66951e-06 -1.58148e-07 0)
(6.79714e-06 -1.56109e-07 0)
(6.92747e-06 -1.53289e-07 0)
(7.06027e-06 -1.49566e-07 0)
(7.19522e-06 -1.44852e-07 0)
(7.33204e-06 -1.39044e-07 0)
(7.47042e-06 -1.32055e-07 0)
(7.61004e-06 -1.23745e-07 0)
(7.75056e-06 -1.13965e-07 0)
(7.89166e-06 -1.02537e-07 0)
(8.03285e-06 -8.92563e-08 0)
(8.17391e-06 -7.38417e-08 0)
(8.31393e-06 -5.60006e-08 0)
(8.45316e-06 -3.52647e-08 0)
(8.58937e-06 -1.14711e-08 0)
(5.89358e-06 -2.45078e-07 0)
(6.01882e-06 -2.41309e-07 0)
(6.14677e-06 -2.38592e-07 0)
(6.2766e-06 -2.36268e-07 0)
(6.40882e-06 -2.33555e-07 0)
(6.54302e-06 -2.30476e-07 0)
(6.67933e-06 -2.26581e-07 0)
(6.81748e-06 -2.21805e-07 0)
(6.95742e-06 -2.15935e-07 0)
(7.09888e-06 -2.08817e-07 0)
(7.24171e-06 -2.00282e-07 0)
(7.38564e-06 -1.9018e-07 0)
(7.53045e-06 -1.78314e-07 0)
(7.67584e-06 -1.64468e-07 0)
(7.82155e-06 -1.48388e-07 0)
(7.96716e-06 -1.29764e-07 0)
(8.11245e-06 -1.08202e-07 0)
(8.2566e-06 -8.32832e-08 0)
(8.39988e-06 -5.43363e-08 0)
(8.54017e-06 -2.11418e-08 0)
(5.65121e-06 -3.46373e-07 0)
(5.79589e-06 -3.37119e-07 0)
(5.94153e-06 -3.29598e-07 0)
(6.08673e-06 -3.23506e-07 0)
(6.23283e-06 -3.17412e-07 0)
(6.37936e-06 -3.11372e-07 0)
(6.52682e-06 -3.04673e-07 0)
(6.67505e-06 -2.97175e-07 0)
(6.82417e-06 -2.88529e-07 0)
(6.97403e-06 -2.78499e-07 0)
(7.1246e-06 -2.66846e-07 0)
(7.27572e-06 -2.53343e-07 0)
(7.42725e-06 -2.37714e-07 0)
(7.57894e-06 -2.19659e-07 0)
(7.73064e-06 -1.98831e-07 0)
(7.88194e-06 -1.7482e-07 0)
(8.03272e-06 -1.47109e-07 0)
(8.18221e-06 -1.15154e-07 0)
(8.33075e-06 -7.80825e-08 0)
(8.47631e-06 -3.56041e-08 0)
(5.36194e-06 -4.68402e-07 0)
(5.52901e-06 -4.50808e-07 0)
(5.69534e-06 -4.35823e-07 0)
(5.85862e-06 -4.2386e-07 0)
(6.02116e-06 -4.12649e-07 0)
(6.18236e-06 -4.02217e-07 0)
(6.34314e-06 -3.91545e-07 0)
(6.50344e-06 -3.80373e-07 0)
(6.66357e-06 -3.68205e-07 0)
(6.82354e-06 -3.54688e-07 0)
(6.98345e-06 -3.3948e-07 0)
(7.14322e-06 -3.22253e-07 0)
(7.30282e-06 -3.0263e-07 0)
(7.46211e-06 -2.80218e-07 0)
(7.62099e-06 -2.54563e-07 0)
(7.77913e-06 -2.25152e-07 0)
(7.93651e-06 -1.91332e-07 0)
(8.09241e-06 -1.52436e-07 0)
(8.24727e-06 -1.07394e-07 0)
(8.39914e-06 -5.58003e-08 0)
(5.03387e-06 -6.1306e-07 0)
(5.22522e-06 -5.8424e-07 0)
(5.41436e-06 -5.59154e-07 0)
(5.59773e-06 -5.3907e-07 0)
(5.77865e-06 -5.20908e-07 0)
(5.9564e-06 -5.04519e-07 0)
(6.13224e-06 -4.88637e-07 0)
(6.30627e-06 -4.72758e-07 0)
(6.47896e-06 -4.56235e-07 0)
(6.65049e-06 -4.38562e-07 0)
(6.82106e-06 -4.19265e-07 0)
(6.99075e-06 -3.97893e-07 0)
(7.15962e-06 -3.73962e-07 0)
(7.32762e-06 -3.46977e-07 0)
(7.49475e-06 -3.16368e-07 0)
(7.66076e-06 -2.81508e-07 0)
(7.8257e-06 -2.41606e-07 0)
(7.98895e-06 -1.95864e-07 0)
(8.15101e-06 -1.43024e-07 0)
(8.31013e-06 -8.2556e-08 0)
(4.67522e-06 -7.80768e-07 0)
(4.89158e-06 -7.37517e-07 0)
(5.10465e-06 -6.99655e-07 0)
(5.30955e-06 -6.68938e-07 0)
(5.51027e-06 -6.41908e-07 0)
(5.70606e-06 -6.17882e-07 0)
(5.8984e-06 -5.95471e-07 0)
(6.08753e-06 -5.7382e-07 0)
(6.27409e-06 -5.52106e-07 0)
(6.45839e-06 -5.29631e-07 0)
(6.64079e-06 -5.05762e-07 0)
(6.82146e-06 -4.79901e-07 0)
(7.0006e-06 -4.51436e-07 0)
(7.17825e-06 -4.19749e-07 0)
(7.3545e-06 -3.84147e-07 0)
(7.52921e-06 -3.43878e-07 0)
(7.70249e-06 -2.98014e-07 0)
(7.87386e-06 -2.45616e-07 0)
(8.04387e-06 -1.85241e-07 0)
(8.21099e-06 -1.16233e-07 0)
(4.29487e-06 -9.71189e-07 0)
(4.53615e-06 -9.10906e-07 0)
(4.77307e-06 -8.58627e-07 0)
(5.00015e-06 -8.1515e-07 0)
(5.22123e-06 -7.7755e-07 0)
(5.43595e-06 -7.44325e-07 0)
(5.64564e-06 -7.14033e-07 0)
(5.85082e-06 -6.85449e-07 0)
(6.05218e-06 -6.57563e-07 0)
(6.2502e-06 -6.29466e-07 0)
(6.44531e-06 -6.00355e-07 0)
(6.63786e-06 -5.69474e-07 0)
(6.82809e-06 -5.36072e-07 0)
(7.01619e-06 -4.99397e-07 0)
(7.20231e-06 -4.58622e-07 0)
(7.38642e-06 -4.12861e-07 0)
(7.56872e-06 -3.61055e-07 0)
(7.74886e-06 -3.02121e-07 0)
(7.92746e-06 -2.34461e-07 0)
(8.10325e-06 -1.573e-07 0)
(3.89999e-06 -1.18083e-06 0)
(4.1661e-06 -1.09957e-06 0)
(4.42572e-06 -1.03108e-06 0)
(4.67547e-06 -9.72815e-07 0)
(4.91732e-06 -9.22957e-07 0)
(5.1517e-06 -8.79209e-07 0)
(5.37953e-06 -8.39949e-07 0)
(5.60152e-06 -8.03631e-07 0)
(5.81842e-06 -7.68983e-07 0)
(6.03084e-06 -7.34857e-07 0)
(6.23931e-06 -7.0024e-07 0)
(6.4443e-06 -6.64195e-07 0)
(6.64617e-06 -6.25808e-07 0)
(6.84519e-06 -5.84184e-07 0)
(7.04162e-06 -5.38355e-07 0)
(7.23554e-06 -4.87302e-07 0)
(7.42726e-06 -4.29842e-07 0)
(7.61657e-06 -3.64739e-07 0)
(7.80416e-06 -2.90255e-07 0)
(7.98907e-06 -2.05465e-07 0)
(3.60895e-06 -1.38035e-06 0)
(3.89065e-06 -1.28256e-06 0)
(4.16324e-06 -1.2022e-06 0)
(4.42654e-06 -1.13234e-06 0)
(4.68124e-06 -1.07182e-06 0)
(4.92797e-06 -1.01831e-06 0)
(5.1675e-06 -9.70129e-07 0)
(5.40051e-06 -9.25692e-07 0)
(5.62772e-06 -8.83626e-07 0)
(5.84972e-06 -8.42684e-07 0)
(6.0671e-06 -8.01748e-07 0)
(6.28034e-06 -7.59778e-07 0)
(6.48985e-06 -7.15757e-07 0)
(6.69598e-06 -6.68697e-07 0)
(6.89903e-06 -6.17548e-07 0)
(7.0992e-06 -5.61208e-07 0)
(7.29685e-06 -4.98456e-07 0)
(7.49195e-06 -4.27974e-07 0)
(7.68523e-06 -3.47997e-07 0)
(7.87602e-06 -2.57552e-07 0)
(3.44166e-06 -1.54133e-06 0)
(3.7253e-06 -1.43994e-06 0)
(4.00009e-06 -1.35312e-06 0)
(4.26679e-06 -1.27633e-06 0)
(4.5254e-06 -1.20847e-06 0)
(4.77638e-06 -1.14762e-06 0)
(5.02026e-06 -1.09223e-06 0)
(5.25758e-06 -1.04084e-06 0)
(5.48892e-06 -9.92102e-07 0)
(5.71482e-06 -9.44804e-07 0)
(5.9358e-06 -8.97828e-07 0)
(6.15231e-06 -8.50118e-07 0)
(6.36478e-06 -8.00637e-07 0)
(6.57357e-06 -7.48382e-07 0)
(6.779e-06 -6.92294e-07 0)
(6.98136e-06 -6.31265e-07 0)
(7.18102e-06 -5.64111e-07 0)
(7.37811e-06 -4.89534e-07 0)
(7.57335e-06 -4.05841e-07 0)
(7.76635e-06 -3.12122e-07 0)
(3.29765e-06 -1.69644e-06 0)
(3.57867e-06 -1.59252e-06 0)
(3.85302e-06 -1.50134e-06 0)
(4.12027e-06 -1.41918e-06 0)
(4.38037e-06 -1.34523e-06 0)
(4.63341e-06 -1.27797e-06 0)
(4.87974e-06 -1.21606e-06 0)
(5.11971e-06 -1.15817e-06 0)
(5.35377e-06 -1.10308e-06 0)
(5.58236e-06 -1.04963e-06 0)
(5.80593e-06 -9.96757e-07 0)
(6.02489e-06 -9.43402e-07 0)
(6.23964e-06 -8.88544e-07 0)
(6.45054e-06 -8.31192e-07 0)
(6.65794e-06 -7.703e-07 0)
(6.86216e-06 -7.04779e-07 0)
(7.06361e-06 -6.33491e-07 0)
(7.2625e-06 -5.55198e-07 0)
(7.45956e-06 -4.68306e-07 0)
(7.65467e-06 -3.71995e-07 0)
(3.17021e-06 -1.84609e-06 0)
(3.44732e-06 -1.74088e-06 0)
(3.71933e-06 -1.64638e-06 0)
(3.98526e-06 -1.55976e-06 0)
(4.24503e-06 -1.48055e-06 0)
(4.49845e-06 -1.40759e-06 0)
(4.74571e-06 -1.33973e-06 0)
(4.98697e-06 -1.27584e-06 0)
(5.22257e-06 -1.21481e-06 0)
(5.45284e-06 -1.15555e-06 0)
(5.67814e-06 -1.09705e-06 0)
(5.89883e-06 -1.03831e-06 0)
(6.11527e-06 -9.78323e-07 0)
(6.3278e-06 -9.16132e-07 0)
(6.53679e-06 -8.5072e-07 0)
(6.74257e-06 -7.81044e-07 0)
(6.94556e-06 -7.0602e-07 0)
(7.14608e-06 -6.24489e-07 0)
(7.34479e-06 -5.34983e-07 0)
(7.54184e-06 -4.36789e-07 0)
(3.05773e-06 -1.9894e-06 0)
(3.32968e-06 -1.88378e-06 0)
(3.59798e-06 -1.78706e-06 0)
(3.86116e-06 -1.69708e-06 0)
(4.11918e-06 -1.61362e-06 0)
(4.37161e-06 -1.53581e-06 0)
(4.61852e-06 -1.46274e-06 0)
(4.85991e-06 -1.39346e-06 0)
(5.09601e-06 -1.32697e-06 0)
(5.32703e-06 -1.26231e-06 0)
(5.55327e-06 -1.19854e-06 0)
(5.775e-06 -1.13472e-06 0)
(5.99256e-06 -1.06988e-06 0)
(6.20626e-06 -1.00312e-06 0)
(6.41645e-06 -9.33478e-07 0)
(6.62349e-06 -8.59966e-07 0)
(6.82779e-06 -7.81564e-07 0)
(7.02972e-06 -6.97209e-07 0)
(7.22992e-06 -6.05591e-07 0)
(7.42875e-06 -5.06109e-07 0)
(2.9576e-06 -2.12656e-06 0)
(3.2238e-06 -2.02119e-06 0)
(3.4875e-06 -1.92306e-06 0)
(3.74694e-06 -1.83053e-06 0)
(4.00215e-06 -1.74362e-06 0)
(4.25253e-06 -1.66172e-06 0)
(4.49805e-06 -1.58412e-06 0)
(4.73861e-06 -1.51004e-06 0)
(4.97432e-06 -1.43864e-06 0)
(5.20529e-06 -1.36905e-06 0)
(5.43176e-06 -1.30043e-06 0)
(5.65393e-06 -1.2319e-06 0)
(5.87209e-06 -1.16257e-06 0)
(6.08653e-06 -1.09161e-06 0)
(6.29757e-06 -1.01807e-06 0)
(6.50557e-06 -9.41093e-07 0)
(6.71094e-06 -8.59705e-07 0)
(6.91407e-06 -7.72958e-07 0)
(7.1156e-06 -6.79713e-07 0)
(7.31601e-06 -5.79465e-07 0)
(2.86785e-06 -2.25765e-06 0)
(3.12794e-06 -2.15303e-06 0)
(3.38643e-06 -2.05414e-06 0)
(3.64147e-06 -1.95978e-06 0)
(3.89311e-06 -1.87018e-06 0)
(4.14064e-06 -1.78489e-06 0)
(4.38399e-06 -1.70344e-06 0)
(4.62295e-06 -1.62518e-06 0)
(4.85753e-06 -1.54941e-06 0)
(5.0878e-06 -1.47539e-06 0)
(5.31389e-06 -1.40237e-06 0)
(5.53597e-06 -1.32955e-06 0)
(5.75428e-06 -1.25611e-06 0)
(5.96908e-06 -1.1813e-06 0)
(6.18064e-06 -1.10425e-06 0)
(6.38933e-06 -1.02416e-06 0)
(6.59553e-06 -9.40158e-07 0)
(6.79967e-06 -8.51419e-07 0)
(7.00235e-06 -7.56965e-07 0)
(7.20414e-06 -6.5638e-07 0)
(2.78658e-06 -2.38298e-06 0)
(3.04043e-06 -2.27944e-06 0)
(3.29339e-06 -2.18027e-06 0)
(3.54362e-06 -2.08467e-06 0)
(3.79117e-06 -1.99297e-06 0)
(4.03529e-06 -1.90494e-06 0)
(4.27586e-06 -1.82023e-06 0)
(4.51261e-06 -1.73838e-06 0)
(4.7455e-06 -1.65879e-06 0)
(4.97451e-06 -1.58084e-06 0)
(5.19973e-06 -1.50389e-06 0)
(5.42129e-06 -1.42722e-06 0)
(5.63936e-06 -1.35009e-06 0)
(5.85417e-06 -1.27183e-06 0)
(6.06598e-06 -1.19163e-06 0)
(6.27511e-06 -1.1088e-06 0)
(6.48194e-06 -1.02257e-06 0)
(6.6869e-06 -9.32215e-07 0)
(6.89055e-06 -8.36919e-07 0)
(7.0935e-06 -7.36357e-07 0)
(2.71213e-06 -2.50291e-06 0)
(2.95976e-06 -2.40064e-06 0)
(3.20706e-06 -2.30157e-06 0)
(3.45223e-06 -2.20517e-06 0)
(3.69536e-06 -2.1119e-06 0)
(3.93568e-06 -2.02167e-06 0)
(4.17305e-06 -1.93428e-06 0)
(4.40716e-06 -1.84937e-06 0)
(4.63791e-06 -1.76649e-06 0)
(4.86526e-06 -1.68512e-06 0)
(5.08923e-06 -1.60471e-06 0)
(5.3099e-06 -1.52463e-06 0)
(5.52743e-06 -1.44423e-06 0)
(5.74198e-06 -1.36291e-06 0)
(5.95379e-06 -1.27995e-06 0)
(6.16316e-06 -1.19475e-06 0)
(6.37043e-06 -1.10664e-06 0)
(6.57606e-06 -1.015e-06 0)
(6.7805e-06 -9.19173e-07 0)
(6.98441e-06 -8.18926e-07 0)
(2.64304e-06 -2.61784e-06 0)
(2.88455e-06 -2.51694e-06 0)
(3.12618e-06 -2.4182e-06 0)
(3.36621e-06 -2.32137e-06 0)
(3.60474e-06 -2.22696e-06 0)
(3.84104e-06 -2.13499e-06 0)
(4.07493e-06 -2.04541e-06 0)
(4.30609e-06 -1.95795e-06 0)
(4.53441e-06 -1.87227e-06 0)
(4.75979e-06 -1.78796e-06 0)
(4.98223e-06 -1.70456e-06 0)
(5.20176e-06 -1.62151e-06 0)
(5.41849e-06 -1.53826e-06 0)
(5.63256e-06 -1.45429e-06 0)
(5.84418e-06 -1.36894e-06 0)
(6.05361e-06 -1.28172e-06 0)
(6.26117e-06 -1.19206e-06 0)
(6.46729e-06 -1.09944e-06 0)
(6.67235e-06 -1.00334e-06 0)
(6.87707e-06 -9.0363e-07 0)
(2.57798e-06 -2.72818e-06 0)
(2.81358e-06 -2.62866e-06 0)
(3.04961e-06 -2.53042e-06 0)
(3.28452e-06 -2.43341e-06 0)
(3.5184e-06 -2.33821e-06 0)
(3.75056e-06 -2.24492e-06 0)
(3.98082e-06 -2.15358e-06 0)
(4.20887e-06 -2.06403e-06 0)
(4.43456e-06 -1.97602e-06 0)
(4.65778e-06 -1.88923e-06 0)
(4.87848e-06 -1.80328e-06 0)
(5.09667e-06 -1.71769e-06 0)
(5.31243e-06 -1.632e-06 0)
(5.52585e-06 -1.54575e-06 0)
(5.73712e-06 -1.45838e-06 0)
(5.94647e-06 -1.36947e-06 0)
(6.15418e-06 -1.27855e-06 0)
(6.36062e-06 -1.1852e-06 0)
(6.56617e-06 -1.08905e-06 0)
(6.77153e-06 -9.90041e-07 0)
(2.51579e-06 -2.8343e-06 0)
(2.74568e-06 -2.73613e-06 0)
(2.97626e-06 -2.63848e-06 0)
(3.20615e-06 -2.54151e-06 0)
(3.43542e-06 -2.4458e-06 0)
(3.66344e-06 -2.35152e-06 0)
(3.89004e-06 -2.25881e-06 0)
(4.11489e-06 -2.16758e-06 0)
(4.33786e-06 -2.07766e-06 0)
(4.5588e-06 -1.98881e-06 0)
(4.77765e-06 -1.90074e-06 0)
(4.99438e-06 -1.81302e-06 0)
(5.20904e-06 -1.72527e-06 0)
(5.42171e-06 -1.63711e-06 0)
(5.63251e-06 -1.54805e-06 0)
(5.84167e-06 -1.45777e-06 0)
(6.04941e-06 -1.36586e-06 0)
(6.25606e-06 -1.27201e-06 0)
(6.462e-06 -1.17599e-06 0)
(6.66781e-06 -1.07776e-06 0)
(2.45539e-06 -2.93657e-06 0)
(2.67981e-06 -2.83967e-06 0)
(2.90514e-06 -2.74269e-06 0)
(3.13016e-06 -2.64589e-06 0)
(3.35493e-06 -2.54989e-06 0)
(3.57888e-06 -2.45492e-06 0)
(3.80185e-06 -2.36118e-06 0)
(4.02353e-06 -2.26864e-06 0)
(4.24376e-06 -2.1772e-06 0)
(4.4624e-06 -2.0867e-06 0)
(4.67936e-06 -1.99689e-06 0)
(4.89459e-06 -1.90743e-06 0)
(5.1081e-06 -1.81798e-06 0)
(5.31995e-06 -1.72826e-06 0)
(5.53022e-06 -1.63783e-06 0)
(5.7391e-06 -1.54644e-06 0)
(5.94676e-06 -1.45377e-06 0)
(6.15355e-06 -1.35962e-06 0)
(6.35973e-06 -1.26384e-06 0)
(6.56588e-06 -1.16643e-06 0)
(2.39576e-06 -3.03529e-06 0)
(2.61496e-06 -2.93961e-06 0)
(2.83526e-06 -2.8433e-06 0)
(3.05562e-06 -2.7468e-06 0)
(3.27606e-06 -2.6507e-06 0)
(3.4961e-06 -2.55528e-06 0)
(3.71557e-06 -2.46081e-06 0)
(3.93417e-06 -2.3673e-06 0)
(4.15175e-06 -2.2747e-06 0)
(4.36813e-06 -2.1829e-06 0)
(4.58321e-06 -2.09172e-06 0)
(4.79694e-06 -2.00086e-06 0)
(5.00929e-06 -1.91006e-06 0)
(5.22028e-06 -1.81908e-06 0)
(5.42999e-06 -1.72756e-06 0)
(5.63854e-06 -1.6353e-06 0)
(5.84607e-06 -1.5421e-06 0)
(6.05292e-06 -1.44779e-06 0)
(6.25924e-06 -1.35232e-06 0)
(6.46563e-06 -1.25578e-06 0)
(2.33588e-06 -3.13081e-06 0)
(2.55013e-06 -3.03623e-06 0)
(2.76566e-06 -2.94062e-06 0)
(2.98159e-06 -2.8445e-06 0)
(3.19796e-06 -2.74847e-06 0)
(3.41431e-06 -2.65284e-06 0)
(3.63047e-06 -2.5579e-06 0)
(3.84616e-06 -2.46371e-06 0)
(4.06121e-06 -2.37026e-06 0)
(4.27545e-06 -2.27748e-06 0)
(4.48876e-06 -2.18526e-06 0)
(4.70105e-06 -2.09333e-06 0)
(4.91229e-06 -2.00149e-06 0)
(5.12247e-06 -1.90953e-06 0)
(5.3316e-06 -1.81717e-06 0)
(5.53981e-06 -1.72426e-06 0)
(5.7472e-06 -1.63068e-06 0)
(5.95403e-06 -1.53632e-06 0)
(6.16044e-06 -1.44123e-06 0)
(6.36695e-06 -1.34553e-06 0)
(2.27482e-06 -3.22334e-06 0)
(2.48436e-06 -3.1299e-06 0)
(2.69535e-06 -3.03491e-06 0)
(2.9072e-06 -2.93925e-06 0)
(3.11979e-06 -2.84344e-06 0)
(3.33274e-06 -2.7478e-06 0)
(3.54586e-06 -2.65262e-06 0)
(3.75888e-06 -2.55802e-06 0)
(3.97162e-06 -2.46402e-06 0)
(4.1839e-06 -2.37057e-06 0)
(4.39558e-06 -2.2776e-06 0)
(4.60656e-06 -2.1849e-06 0)
(4.81678e-06 -2.09228e-06 0)
(5.02619e-06 -1.9996e-06 0)
(5.23479e-06 -1.9066e-06 0)
(5.44268e-06 -1.81323e-06 0)
(5.64993e-06 -1.71939e-06 0)
(5.8567e-06 -1.62506e-06 0)
(6.06316e-06 -1.53036e-06 0)
(6.2697e-06 -1.43545e-06 0)
(2.21157e-06 -3.31327e-06 0)
(2.41651e-06 -3.22064e-06 0)
(2.62323e-06 -3.12649e-06 0)
(2.83149e-06 -3.03146e-06 0)
(3.04066e-06 -2.936e-06 0)
(3.2506e-06 -2.84051e-06 0)
(3.46102e-06 -2.7453e-06 0)
(3.67169e-06 -2.65051e-06 0)
(3.8824e-06 -2.55619e-06 0)
(4.09297e-06 -2.46233e-06 0)
(4.30324e-06 -2.36888e-06 0)
(4.51308e-06 -2.27565e-06 0)
(4.7224e-06 -2.18249e-06 0)
(4.93115e-06 -2.08929e-06 0)
(5.13931e-06 -1.99585e-06 0)
(5.34694e-06 -1.90215e-06 0)
(5.55404e-06 -1.80815e-06 0)
(5.76076e-06 -1.71389e-06 0)
(5.96722e-06 -1.61956e-06 0)
(6.17376e-06 -1.52536e-06 0)
(2.14459e-06 -3.40052e-06 0)
(2.34567e-06 -3.30882e-06 0)
(2.54887e-06 -3.21568e-06 0)
(2.75368e-06 -3.12133e-06 0)
(2.95989e-06 -3.02636e-06 0)
(3.1672e-06 -2.93119e-06 0)
(3.37535e-06 -2.83615e-06 0)
(3.58406e-06 -2.74139e-06 0)
(3.79311e-06 -2.64698e-06 0)
(4.00228e-06 -2.55295e-06 0)
(4.2114e-06 -2.45924e-06 0)
(4.42031e-06 -2.36569e-06 0)
(4.62891e-06 -2.27218e-06 0)
(4.83714e-06 -2.17865e-06 0)
(5.04495e-06 -2.08493e-06 0)
(5.25236e-06 -1.99102e-06 0)
(5.45935e-06 -1.8969e-06 0)
(5.66608e-06 -1.80269e-06 0)
(5.87252e-06 -1.70869e-06 0)
(6.079e-06 -1.61514e-06 0)
(2.07303e-06 -3.48602e-06 0)
(2.27056e-06 -3.39543e-06 0)
(2.47057e-06 -3.30309e-06 0)
(2.67258e-06 -3.20948e-06 0)
(2.8764e-06 -3.11511e-06 0)
(3.08166e-06 -3.02039e-06 0)
(3.28808e-06 -2.92567e-06 0)
(3.49535e-06 -2.83111e-06 0)
(3.7032e-06 -2.73679e-06 0)
(3.91137e-06 -2.64274e-06 0)
(4.11967e-06 -2.54892e-06 0)
(4.32793e-06 -2.45522e-06 0)
(4.53602e-06 -2.36153e-06 0)
(4.74386e-06 -2.26782e-06 0)
(4.95142e-06 -2.17389e-06 0)
(5.15869e-06 -2.0798e-06 0)
(5.36565e-06 -1.98562e-06 0)
(5.57241e-06 -1.89144e-06 0)
(5.77893e-06 -1.79763e-06 0)
(5.98538e-06 -1.7046e-06 0)
(1.99599e-06 -3.5691e-06 0)
(2.19041e-06 -3.47975e-06 0)
(2.38778e-06 -3.38854e-06 0)
(2.58766e-06 -3.29589e-06 0)
(2.78974e-06 -3.20233e-06 0)
(2.99362e-06 -3.10827e-06 0)
(3.19896e-06 -3.01406e-06 0)
(3.40537e-06 -2.91988e-06 0)
(3.61253e-06 -2.82578e-06 0)
(3.82016e-06 -2.73184e-06 0)
(4.02801e-06 -2.63808e-06 0)
(4.23589e-06 -2.54436e-06 0)
(4.44368e-06 -2.45058e-06 0)
(4.65127e-06 -2.35675e-06 0)
(4.85865e-06 -2.26275e-06 0)
(5.06582e-06 -2.16857e-06 0)
(5.27282e-06 -2.07432e-06 0)
(5.47967e-06 -1.98011e-06 0)
(5.6864e-06 -1.88636e-06 0)
(5.89302e-06 -1.79364e-06 0)
(1.48688e-07 -3.10764e-06 0)
(4.48175e-07 -3.06162e-06 0)
(7.54017e-07 -2.9714e-06 0)
(1.0698e-06 -2.84061e-06 0)
(1.39846e-06 -2.67429e-06 0)
(1.74185e-06 -2.47864e-06 0)
(2.10065e-06 -2.26085e-06 0)
(2.47423e-06 -2.02839e-06 0)
(2.86114e-06 -1.78889e-06 0)
(3.25847e-06 -1.54848e-06 0)
(1.44391e-07 -3.15709e-06 0)
(4.34963e-07 -3.11502e-06 0)
(7.30848e-07 -3.03253e-06 0)
(1.03507e-06 -2.91265e-06 0)
(1.35014e-06 -2.75969e-06 0)
(1.67763e-06 -2.57891e-06 0)
(2.01822e-06 -2.37644e-06 0)
(2.37121e-06 -2.15873e-06 0)
(2.73491e-06 -1.9327e-06 0)
(3.10693e-06 -1.70339e-06 0)
(1.40623e-07 -3.20771e-06 0)
(4.23346e-07 -3.16923e-06 0)
(7.10423e-07 -3.09372e-06 0)
(1.0043e-06 -2.98381e-06 0)
(1.30706e-06 -2.84323e-06 0)
(1.62006e-06 -2.67656e-06 0)
(1.94396e-06 -2.48901e-06 0)
(2.27851e-06 -2.28603e-06 0)
(2.62255e-06 -2.07358e-06 0)
(2.97446e-06 -1.85491e-06 0)
(1.37287e-07 -3.25961e-06 0)
(4.13074e-07 -3.2242e-06 0)
(6.92504e-07 -3.15465e-06 0)
(9.77568e-07 -3.05329e-06 0)
(1.27002e-06 -2.92337e-06 0)
(1.57092e-06 -2.7689e-06 0)
(1.88082e-06 -2.5945e-06 0)
(2.19944e-06 -2.40497e-06 0)
(2.52582e-06 -2.2058e-06 0)
(2.85859e-06 -1.99956e-06 0)
(1.34217e-07 -3.31278e-06 0)
(4.03631e-07 -3.2801e-06 0)
(6.76077e-07 -3.2159e-06 0)
(9.53183e-07 -3.12221e-06 0)
(1.23641e-06 -3.00195e-06 0)
(1.52664e-06 -2.85867e-06 0)
(1.82435e-06 -2.69644e-06 0)
(2.12933e-06 -2.51936e-06 0)
(2.44089e-06 -2.33241e-06 0)
(2.75726e-06 -2.1379e-06 0)
(1.31357e-07 -3.36713e-06 0)
(3.94901e-07 -3.33683e-06 0)
(6.6098e-07 -3.27727e-06 0)
(9.3096e-07 -3.1903e-06 0)
(1.20605e-06 -3.0785e-06 0)
(1.48695e-06 -2.9451e-06 0)
(1.77403e-06 -2.79378e-06 0)
(2.06702e-06 -2.62817e-06 0)
(2.36561e-06 -2.45276e-06 0)
(2.66766e-06 -2.26984e-06 0)
(1.28629e-07 -3.42261e-06 0)
(3.86599e-07 -3.39443e-06 0)
(6.46707e-07 -3.33901e-06 0)
(9.10107e-07 -3.25804e-06 0)
(1.1778e-06 -3.15385e-06 0)
(1.45037e-06 -3.02934e-06 0)
(1.72813e-06 -2.88789e-06 0)
(2.0107e-06 -2.73271e-06 0)
(2.29807e-06 -2.56782e-06 0)
(2.58778e-06 -2.39571e-06 0)
(1.2601e-07 -3.47909e-06 0)
(3.78624e-07 -3.45279e-06 0)
(6.33078e-07 -3.40102e-06 0)
(8.90338e-07 -3.32536e-06 0)
(1.15126e-06 -3.22793e-06 0)
(1.41629e-06 -3.11138e-06 0)
(1.68573e-06 -2.97881e-06 0)
(1.95908e-06 -2.83315e-06 0)
(2.23659e-06 -2.67795e-06 0)
(2.51564e-06 -2.51589e-06 0)
(1.23436e-07 -3.53649e-06 0)
(3.70818e-07 -3.51185e-06 0)
(6.19813e-07 -3.46336e-06 0)
(8.71228e-07 -3.39246e-06 0)
(1.12582e-06 -3.3011e-06 0)
(1.38395e-06 -3.1917e-06 0)
(1.64586e-06 -3.06712e-06 0)
(1.91103e-06 -2.93009e-06 0)
(2.17982e-06 -2.78374e-06 0)
(2.44961e-06 -2.63088e-06 0)
(1.2087e-07 -3.59464e-06 0)
(3.63087e-07 -3.57151e-06 0)
(6.06734e-07 -3.52594e-06 0)
(8.52514e-07 -3.4593e-06 0)
(1.1011e-06 -3.37338e-06 0)
(1.35278e-06 -3.27042e-06 0)
(1.6078e-06 -3.15305e-06 0)
(1.86558e-06 -3.02385e-06 0)
(2.12657e-06 -2.88559e-06 0)
(2.38825e-06 -2.74111e-06 0)
(1.1829e-07 -3.65344e-06 0)
(3.5533e-07 -3.63167e-06 0)
(5.93648e-07 -3.58874e-06 0)
(8.33909e-07 -3.52593e-06 0)
(1.0767e-06 -3.44492e-06 0)
(1.32228e-06 -3.34777e-06 0)
(1.57086e-06 -3.23692e-06 0)
(1.8219e-06 -3.11481e-06 0)
(2.07584e-06 -2.98391e-06 0)
(2.33032e-06 -2.84706e-06 0)
(1.15672e-07 -3.71272e-06 0)
(3.4745e-07 -3.69218e-06 0)
(5.80394e-07 -3.65163e-06 0)
(8.15167e-07 -3.59229e-06 0)
(1.05228e-06 -3.51572e-06 0)
(1.29197e-06 -3.42384e-06 0)
(1.53448e-06 -3.3189e-06 0)
(1.77926e-06 -3.20323e-06 0)
(2.02671e-06 -3.07904e-06 0)
(2.27473e-06 -2.9491e-06 0)
(1.12979e-07 -3.77233e-06 0)
(3.39335e-07 -3.75291e-06 0)
(5.66797e-07 -3.71453e-06 0)
(7.96027e-07 -3.65834e-06 0)
(1.02749e-06 -3.58581e-06 0)
(1.26143e-06 -3.49872e-06 0)
(1.49808e-06 -3.39916e-06 0)
(1.73693e-06 -3.28935e-06 0)
(1.97835e-06 -3.17127e-06 0)
(2.22047e-06 -3.04761e-06 0)
(1.1017e-07 -3.83208e-06 0)
(3.30882e-07 -3.81367e-06 0)
(5.52685e-07 -3.77728e-06 0)
(7.76236e-07 -3.72398e-06 0)
(1.00198e-06 -3.65514e-06 0)
(1.2302e-06 -3.57243e-06 0)
(1.4611e-06 -3.4778e-06 0)
(1.69426e-06 -3.37332e-06 0)
(1.92996e-06 -3.26084e-06 0)
(2.1666e-06 -3.14289e-06 0)
(1.07206e-07 -3.89178e-06 0)
(3.21987e-07 -3.8743e-06 0)
(5.37875e-07 -3.83976e-06 0)
(7.55529e-07 -3.78912e-06 0)
(9.75419e-07 -3.72368e-06 0)
(1.19783e-06 -3.64501e-06 0)
(1.42299e-06 -3.55491e-06 0)
(1.65054e-06 -3.45533e-06 0)
(1.88072e-06 -3.34798e-06 0)
(2.11215e-06 -3.23525e-06 0)
(1.04052e-07 -3.95112e-06 0)
(3.12541e-07 -3.93449e-06 0)
(5.22171e-07 -3.90168e-06 0)
(7.33623e-07 -3.85353e-06 0)
(9.47408e-07 -3.79126e-06 0)
(1.16383e-06 -3.71633e-06 0)
(1.38314e-06 -3.63043e-06 0)
(1.60508e-06 -3.53538e-06 0)
(1.82982e-06 -3.43278e-06 0)
(2.05621e-06 -3.32482e-06 0)
(1.00665e-07 -4.00999e-06 0)
(3.02399e-07 -3.99418e-06 0)
(5.05327e-07 -3.96299e-06 0)
(7.10169e-07 -3.91717e-06 0)
(9.17493e-07 -3.85788e-06 0)
(1.12764e-06 -3.78647e-06 0)
(1.34089e-06 -3.70451e-06 0)
(1.55708e-06 -3.6137e-06 0)
(1.77635e-06 -3.51552e-06 0)
(1.99774e-06 -3.41203e-06 0)
(9.69912e-08 -4.06773e-06 0)
(2.91399e-07 -4.0527e-06 0)
(4.8708e-07 -4.02306e-06 0)
(6.848e-07 -3.97949e-06 0)
(8.85193e-07 -3.92304e-06 0)
(1.08866e-06 -3.85499e-06 0)
(1.29552e-06 -3.77677e-06 0)
(1.50569e-06 -3.68999e-06 0)
(1.71931e-06 -3.59599e-06 0)
(1.93566e-06 -3.49672e-06 0)
(9.29501e-08 -4.12463e-06 0)
(2.79306e-07 -4.11037e-06 0)
(4.67038e-07 -4.08222e-06 0)
(6.56975e-07 -4.04082e-06 0)
(8.49815e-07 -3.98713e-06 0)
(1.04604e-06 -3.92233e-06 0)
(1.24605e-06 -3.84773e-06 0)
(1.44984e-06 -3.76482e-06 0)
(1.65756e-06 -3.67486e-06 0)
(1.86869e-06 -3.57962e-06 0)
(8.851e-08 -4.17892e-06 0)
(2.6603e-07 -4.16541e-06 0)
(4.45046e-07 -4.13877e-06 0)
(6.26453e-07 -4.09953e-06 0)
(8.11037e-07 -4.0486e-06 0)
(9.99387e-07 -3.98705e-06 0)
(1.19196e-06 -3.91608e-06 0)
(1.3889e-06 -3.83705e-06 0)
(1.59037e-06 -3.75115e-06 0)
(1.79607e-06 -3.65999e-06 0)
)


// ************************************************************************* //
