/*--------------------------------*- C++ -*----------------------------------*\
| =========                 |                                                 |
| \\      /  F ield         | foam-extend: Open Source CFD                    |
|  \\    /   O peration     | Version:     4.1                                |
|   \\  /    A nd           | Web:         http://www.foam-extend.org         |
|    \\/     M anipulation  |                                                 |
\*---------------------------------------------------------------------------*/
FoamFile
{
    version     2.0;
    format      ascii;
    class       vectorField;
    location    "7";
    object      solidsCellD_iteration16;
}
// * * * * * * * * * * * * * * * * * * * * * * * * * * * * * * * * * * * * * //


1000
(
(3.65771e-06 -1.56739e-06 0)
(3.44875e-06 -1.45745e-06 0)
(3.31479e-06 -1.38721e-06 0)
(3.2374e-06 -1.35385e-06 0)
(3.19902e-06 -1.34152e-06 0)
(3.18905e-06 -1.34546e-06 0)
(3.20003e-06 -1.35999e-06 0)
(3.22671e-06 -1.38238e-06 0)
(3.26522e-06 -1.41012e-06 0)
(3.3131e-06 -1.4415e-06 0)
(3.30683e-06 -1.71205e-06 0)
(3.08437e-06 -1.63509e-06 0)
(2.94194e-06 -1.58569e-06 0)
(2.85832e-06 -1.56645e-06 0)
(2.81513e-06 -1.56349e-06 0)
(2.80087e-06 -1.57402e-06 0)
(2.80777e-06 -1.59326e-06 0)
(2.83023e-06 -1.61916e-06 0)
(2.86425e-06 -1.64979e-06 0)
(2.90661e-06 -1.68298e-06 0)
(2.94243e-06 -1.84918e-06 0)
(2.7152e-06 -1.80911e-06 0)
(2.56985e-06 -1.78303e-06 0)
(2.48358e-06 -1.77943e-06 0)
(2.43781e-06 -1.78671e-06 0)
(2.42063e-06 -1.80431e-06 0)
(2.42419e-06 -1.82846e-06 0)
(2.44287e-06 -1.85789e-06 0)
(2.47261e-06 -1.89131e-06 0)
(2.51026e-06 -1.92644e-06 0)
(2.56717e-06 -1.97634e-06 0)
(2.34469e-06 -1.97493e-06 0)
(2.20245e-06 -1.97337e-06 0)
(2.11732e-06 -1.98612e-06 0)
(2.07134e-06 -2.00403e-06 0)
(2.05265e-06 -2.0289e-06 0)
(2.05367e-06 -2.058e-06 0)
(2.06894e-06 -2.09095e-06 0)
(2.09464e-06 -2.12703e-06 0)
(2.12752e-06 -2.16423e-06 0)
(2.18365e-06 -2.091e-06 0)
(1.97534e-06 -2.12796e-06 0)
(1.84224e-06 -2.1507e-06 0)
(1.76216e-06 -2.17959e-06 0)
(1.71832e-06 -2.20796e-06 0)
(1.69952e-06 -2.23997e-06 0)
(1.69879e-06 -2.27389e-06 0)
(1.71104e-06 -2.31027e-06 0)
(1.73281e-06 -2.34889e-06 0)
(1.76088e-06 -2.38822e-06 0)
(1.79372e-06 -2.19086e-06 0)
(1.60881e-06 -2.26372e-06 0)
(1.49073e-06 -2.30923e-06 0)
(1.41933e-06 -2.3532e-06 0)
(1.37987e-06 -2.39135e-06 0)
(1.36232e-06 -2.42997e-06 0)
(1.36062e-06 -2.46835e-06 0)
(1.37017e-06 -2.5079e-06 0)
(1.38802e-06 -2.54886e-06 0)
(1.41114e-06 -2.59027e-06 0)
(1.39928e-06 -2.27365e-06 0)
(1.24595e-06 -2.37796e-06 0)
(1.14806e-06 -2.44344e-06 0)
(1.08867e-06 -2.50064e-06 0)
(1.05564e-06 -2.54733e-06 0)
(1.0406e-06 -2.59173e-06 0)
(1.03857e-06 -2.63399e-06 0)
(1.04568e-06 -2.67632e-06 0)
(1.05959e-06 -2.71931e-06 0)
(1.07764e-06 -2.7626e-06 0)
(1.00162e-06 -2.33753e-06 0)
(8.86786e-07 -2.4671e-06 0)
(8.13502e-07 -2.5486e-06 0)
(7.68957e-07 -2.61641e-06 0)
(7.44079e-07 -2.66995e-06 0)
(7.32564e-07 -2.71901e-06 0)
(7.30695e-07 -2.7644e-06 0)
(7.35577e-07 -2.80899e-06 0)
(7.45521e-07 -2.85361e-06 0)
(7.58448e-07 -2.89848e-06 0)
(6.01877e-07 -2.38096e-06 0)
(5.30779e-07 -2.52818e-06 0)
(4.8544e-07 -2.62088e-06 0)
(4.57808e-07 -2.69613e-06 0)
(4.42296e-07 -2.75447e-06 0)
(4.35031e-07 -2.80677e-06 0)
(4.33748e-07 -2.85436e-06 0)
(4.36621e-07 -2.90057e-06 0)
(4.42586e-07 -2.94634e-06 0)
(4.50343e-07 -2.99235e-06 0)
(2.01011e-07 -2.40285e-06 0)
(1.76931e-07 -2.5592e-06 0)
(1.61506e-07 -2.65767e-06 0)
(1.52101e-07 -2.73674e-06 0)
(1.46845e-07 -2.79756e-06 0)
(1.44351e-07 -2.85155e-06 0)
(1.43841e-07 -2.90025e-06 0)
(1.44762e-07 -2.94727e-06 0)
(1.46755e-07 -2.99366e-06 0)
(1.49334e-07 -3.04027e-06 0)
(5.71367e-06 -7.15321e-08 0)
(5.7656e-06 -5.14921e-08 0)
(5.79653e-06 -3.87614e-08 0)
(5.82966e-06 -3.12512e-08 0)
(5.86562e-06 -2.70408e-08 0)
(5.90981e-06 -2.50604e-08 0)
(5.96221e-06 -2.46157e-08 0)
(6.02348e-06 -2.51328e-08 0)
(6.09345e-06 -2.6354e-08 0)
(6.17119e-06 -2.78655e-08 0)
(5.67119e-06 -2.14613e-07 0)
(5.71446e-06 -1.55666e-07 0)
(5.73997e-06 -1.18238e-07 0)
(5.76946e-06 -9.62519e-08 0)
(5.80301e-06 -8.40687e-08 0)
(5.84548e-06 -7.83609e-08 0)
(5.89665e-06 -7.70863e-08 0)
(5.95692e-06 -7.87542e-08 0)
(6.02604e-06 -8.25039e-08 0)
(6.10287e-06 -8.70197e-08 0)
(5.58643e-06 -3.5889e-07 0)
(5.61315e-06 -2.64267e-07 0)
(5.62819e-06 -2.0425e-07 0)
(5.65074e-06 -1.68991e-07 0)
(5.6797e-06 -1.49512e-07 0)
(5.71894e-06 -1.40593e-07 0)
(5.76772e-06 -1.388e-07 0)
(5.82608e-06 -1.41701e-07 0)
(5.89355e-06 -1.47954e-07 0)
(5.96862e-06 -1.55512e-07 0)
(5.46086e-06 -5.05e-07 0)
(5.46406e-06 -3.79788e-07 0)
(5.46417e-06 -3.00439e-07 0)
(5.47685e-06 -2.54029e-07 0)
(5.49927e-06 -2.28498e-07 0)
(5.53392e-06 -2.17028e-07 0)
(5.5793e-06 -2.15049e-07 0)
(5.63492e-06 -2.19357e-07 0)
(5.70006e-06 -2.28084e-07 0)
(5.77267e-06 -2.38683e-07 0)
(5.29646e-06 -6.53328e-07 0)
(5.27059e-06 -5.04314e-07 0)
(5.25224e-06 -4.09897e-07 0)
(5.25269e-06 -3.55041e-07 0)
(5.26701e-06 -3.25126e-07 0)
(5.29593e-06 -3.12101e-07 0)
(5.3371e-06 -3.10439e-07 0)
(5.38932e-06 -3.1639e-07 0)
(5.45155e-06 -3.27597e-07 0)
(5.52116e-06 -3.41222e-07 0)
(5.09571e-06 -8.03977e-07 0)
(5.03693e-06 -6.39259e-07 0)
(4.99775e-06 -5.34841e-07 0)
(4.98437e-06 -4.74736e-07 0)
(4.9895e-06 -4.42382e-07 0)
(5.01187e-06 -4.28961e-07 0)
(5.04824e-06 -4.2822e-07 0)
(5.09655e-06 -4.36093e-07 0)
(5.15543e-06 -4.49807e-07 0)
(5.22166e-06 -4.6643e-07 0)
(4.86161e-06 -9.56621e-07 0)
(4.76806e-06 -7.85172e-07 0)
(4.70687e-06 -6.7638e-07 0)
(4.67886e-06 -6.14542e-07 0)
(4.67424e-06 -5.81885e-07 0)
(4.68965e-06 -5.69362e-07 0)
(4.72086e-06 -5.70247e-07 0)
(4.76497e-06 -5.80327e-07 0)
(4.82018e-06 -5.96585e-07 0)
(4.88282e-06 -6.16136e-07 0)
(4.59731e-06 -1.11054e-06 0)
(4.4693e-06 -9.41649e-07 0)
(4.38635e-06 -8.34353e-07 0)
(4.34377e-06 -7.74497e-07 0)
(4.32943e-06 -7.43781e-07 0)
(4.3378e-06 -7.33513e-07 0)
(4.36369e-06 -7.36768e-07 0)
(4.40343e-06 -7.49424e-07 0)
(4.45472e-06 -7.68285e-07 0)
(4.51365e-06 -7.90766e-07 0)
(4.30626e-06 -1.26468e-06 0)
(4.14622e-06 -1.10741e-06 0)
(4.04305e-06 -1.00739e-06 0)
(3.98685e-06 -9.53153e-07 0)
(3.96329e-06 -9.26592e-07 0)
(3.96485e-06 -9.1988e-07 0)
(3.98545e-06 -9.26257e-07 0)
(4.02079e-06 -9.41809e-07 0)
(4.06802e-06 -9.63523e-07 0)
(4.12333e-06 -9.88747e-07 0)
(3.99193e-06 -1.41759e-06 0)
(3.80435e-06 -1.28032e-06 0)
(3.68377e-06 -1.1929e-06 0)
(3.61573e-06 -1.14766e-06 0)
(3.584e-06 -1.12732e-06 0)
(3.57937e-06 -1.1254e-06 0)
(3.59504e-06 -1.13557e-06 0)
(3.62601e-06 -1.1545e-06 0)
(3.66917e-06 -1.17913e-06 0)
(3.72068e-06 -1.20822e-06 0)
(6.25697e-06 -2.93751e-08 0)
(6.3505e-06 -2.96648e-08 0)
(6.45002e-06 -3.00144e-08 0)
(6.55521e-06 -3.02549e-08 0)
(6.66537e-06 -3.03638e-08 0)
(6.78007e-06 -3.0327e-08 0)
(6.89881e-06 -3.0084e-08 0)
(7.02114e-06 -2.96473e-08 0)
(7.14667e-06 -2.90245e-08 0)
(7.275e-06 -2.81956e-08 0)
(7.40574e-06 -2.71304e-08 0)
(7.53848e-06 -2.5809e-08 0)
(7.67286e-06 -2.42066e-08 0)
(7.80846e-06 -2.23011e-08 0)
(7.94492e-06 -2.00651e-08 0)
(8.08172e-06 -1.74601e-08 0)
(8.21858e-06 -1.44308e-08 0)
(8.35456e-06 -1.09147e-08 0)
(8.48986e-06 -6.82525e-09 0)
(8.62222e-06 -2.12762e-09 0)
(6.19168e-06 -9.11942e-08 0)
(6.29069e-06 -9.16265e-08 0)
(6.39511e-06 -9.23086e-08 0)
(6.50455e-06 -9.27369e-08 0)
(6.6185e-06 -9.2764e-08 0)
(6.73654e-06 -9.2395e-08 0)
(6.85829e-06 -9.15152e-08 0)
(6.98335e-06 -9.01196e-08 0)
(7.11136e-06 -8.81492e-08 0)
(7.24194e-06 -8.55428e-08 0)
(7.37474e-06 -8.22435e-08 0)
(7.5094e-06 -7.82117e-08 0)
(7.64559e-06 -7.3374e-08 0)
(7.78289e-06 -6.76442e-08 0)
(7.92097e-06 -6.09187e-08 0)
(8.05931e-06 -5.30804e-08 0)
(8.19764e-06 -4.39702e-08 0)
(8.33505e-06 -3.34146e-08 0)
(8.47176e-06 -2.11474e-08 0)
(8.6055e-06 -7.06475e-09 0)
(6.06335e-06 -1.61438e-07 0)
(6.17312e-06 -1.60803e-07 0)
(6.28712e-06 -1.6071e-07 0)
(6.40484e-06 -1.60484e-07 0)
(6.5262e-06 -1.59759e-07 0)
(6.65082e-06 -1.5854e-07 0)
(6.7785e-06 -1.56574e-07 0)
(6.90887e-06 -1.53827e-07 0)
(7.04171e-06 -1.50184e-07 0)
(7.1767e-06 -1.45561e-07 0)
(7.31357e-06 -1.39861e-07 0)
(7.45201e-06 -1.32998e-07 0)
(7.59171e-06 -1.24829e-07 0)
(7.73231e-06 -1.15201e-07 0)
(7.87351e-06 -1.03942e-07 0)
(8.01484e-06 -9.08532e-08 0)
(8.15606e-06 -7.56635e-08 0)
(8.29629e-06 -5.8086e-08 0)
(8.43578e-06 -3.76633e-08 0)
(8.57231e-06 -1.42256e-08 0)
(5.87585e-06 -2.44893e-07 0)
(6.00101e-06 -2.41307e-07 0)
(6.12889e-06 -2.38714e-07 0)
(6.25866e-06 -2.36502e-07 0)
(6.39084e-06 -2.33898e-07 0)
(6.52503e-06 -2.30928e-07 0)
(6.66134e-06 -2.27139e-07 0)
(6.79949e-06 -2.22471e-07 0)
(6.93945e-06 -2.16722e-07 0)
(7.08095e-06 -2.09741e-07 0)
(7.22381e-06 -2.01362e-07 0)
(7.3678e-06 -1.91437e-07 0)
(7.51267e-06 -1.79764e-07 0)
(7.65813e-06 -1.66129e-07 0)
(7.80394e-06 -1.50289e-07 0)
(7.94966e-06 -1.31941e-07 0)
(8.0951e-06 -1.10701e-07 0)
(8.23946e-06 -8.61546e-08 0)
(8.38298e-06 -5.76434e-08 0)
(8.52357e-06 -2.49444e-08 0)
(5.63485e-06 -3.45822e-07 0)
(5.77933e-06 -3.36834e-07 0)
(5.92479e-06 -3.29512e-07 0)
(6.06984e-06 -3.23599e-07 0)
(6.21583e-06 -3.17671e-07 0)
(6.36228e-06 -3.11791e-07 0)
(6.50969e-06 -3.05247e-07 0)
(6.65789e-06 -2.97909e-07 0)
(6.80698e-06 -2.89433e-07 0)
(6.95684e-06 -2.7959e-07 0)
(7.10742e-06 -2.68141e-07 0)
(7.25858e-06 -2.54866e-07 0)
(7.41016e-06 -2.39484e-07 0)
(7.56192e-06 -2.21701e-07 0)
(7.71371e-06 -2.01183e-07 0)
(7.86512e-06 -1.77528e-07 0)
(8.01605e-06 -1.50231e-07 0)
(8.16573e-06 -1.18755e-07 0)
(8.31449e-06 -8.22411e-08 0)
(8.46033e-06 -4.03995e-08 0)
(5.34718e-06 -4.67286e-07 0)
(5.51391e-06 -4.50056e-07 0)
(5.67995e-06 -4.35367e-07 0)
(5.84299e-06 -4.2367e-07 0)
(6.00535e-06 -4.12704e-07 0)
(6.16642e-06 -4.02506e-07 0)
(6.32707e-06 -3.92051e-07 0)
(6.48728e-06 -3.81094e-07 0)
(6.64736e-06 -3.69152e-07 0)
(6.8073e-06 -3.55874e-07 0)
(6.96719e-06 -3.40925e-07 0)
(7.12698e-06 -3.23981e-07 0)
(7.28662e-06 -3.04662e-07 0)
(7.44595e-06 -2.82584e-07 0)
(7.6049e-06 -2.57306e-07 0)
(7.76314e-06 -2.28328e-07 0)
(7.92066e-06 -1.95009e-07 0)
(8.07672e-06 -1.56697e-07 0)
(8.23179e-06 -1.12334e-07 0)
(8.38393e-06 -6.15154e-08 0)
(5.02093e-06 -6.11153e-07 0)
(5.2118e-06 -5.82811e-07 0)
(5.40053e-06 -5.58136e-07 0)
(5.58357e-06 -5.38424e-07 0)
(5.7642e-06 -5.20602e-07 0)
(5.94175e-06 -5.0453e-07 0)
(6.11739e-06 -4.88941e-07 0)
(6.29126e-06 -4.73349e-07 0)
(6.46385e-06 -4.57121e-07 0)
(6.63531e-06 -4.39753e-07 0)
(6.80586e-06 -4.20779e-07 0)
(6.97555e-06 -3.9975e-07 0)
(7.14443e-06 -3.76181e-07 0)
(7.31246e-06 -3.49591e-07 0)
(7.47963e-06 -3.19427e-07 0)
(7.64572e-06 -2.8508e-07 0)
(7.81079e-06 -2.45768e-07 0)
(7.9742e-06 -2.00709e-07 0)
(8.13645e-06 -1.48666e-07 0)
(8.29581e-06 -8.91052e-08 0)
(4.66418e-06 -7.77846e-07 0)
(4.87993e-06 -7.35202e-07 0)
(5.09248e-06 -6.97894e-07 0)
(5.29694e-06 -6.67678e-07 0)
(5.49728e-06 -6.41101e-07 0)
(5.69277e-06 -6.17489e-07 0)
(5.88486e-06 -5.95462e-07 0)
(6.0738e-06 -5.74182e-07 0)
(6.26021e-06 -5.52841e-07 0)
(6.44442e-06 -5.30745e-07 0)
(6.62675e-06 -5.07266e-07 0)
(6.80739e-06 -4.81809e-07 0)
(6.98651e-06 -4.53768e-07 0)
(7.16418e-06 -4.22541e-07 0)
(7.34047e-06 -3.87456e-07 0)
(7.51526e-06 -3.47777e-07 0)
(7.68866e-06 -3.02589e-07 0)
(7.86018e-06 -2.50968e-07 0)
(8.03037e-06 -1.91499e-07 0)
(8.19772e-06 -1.23519e-07 0)
(4.28577e-06 -9.67026e-07 0)
(4.52636e-06 -9.07494e-07 0)
(4.76267e-06 -8.55916e-07 0)
(4.98923e-06 -8.13076e-07 0)
(5.20987e-06 -7.76053e-07 0)
(5.4242e-06 -7.43357e-07 0)
(5.63358e-06 -7.13557e-07 0)
(5.8385e-06 -6.85444e-07 0)
(6.03966e-06 -6.58023e-07 0)
(6.23754e-06 -6.30389e-07 0)
(6.43255e-06 -6.01744e-07 0)
(6.62502e-06 -5.71338e-07 0)
(6.81521e-06 -5.38431e-07 0)
(7.00331e-06 -5.02291e-07 0)
(7.18946e-06 -4.62109e-07 0)
(7.37365e-06 -4.17017e-07 0)
(7.55607e-06 -3.65969e-07 0)
(7.73636e-06 -3.07899e-07 0)
(7.91513e-06 -2.41245e-07 0)
(8.09113e-06 -1.65222e-07 0)
(3.89282e-06 -1.17528e-06 0)
(4.15826e-06 -1.09487e-06 0)
(4.41726e-06 -1.02722e-06 0)
(4.66644e-06 -9.69756e-07 0)
(4.90777e-06 -9.2062e-07 0)
(5.14171e-06 -8.77535e-07 0)
(5.36914e-06 -8.38888e-07 0)
(5.59081e-06 -8.03149e-07 0)
(5.80746e-06 -7.69063e-07 0)
(6.01967e-06 -7.35489e-07 0)
(6.22799e-06 -7.0142e-07 0)
(6.43286e-06 -6.65929e-07 0)
(6.63466e-06 -6.28115e-07 0)
(6.83366e-06 -5.87103e-07 0)
(7.03011e-06 -5.41945e-07 0)
(7.2241e-06 -4.91637e-07 0)
(7.41592e-06 -4.35017e-07 0)
(7.60536e-06 -3.7086e-07 0)
(7.79311e-06 -2.97473e-07 0)
(7.97821e-06 -2.1391e-07 0)
(3.60264e-06 -1.37397e-06 0)
(3.88392e-06 -1.27695e-06 0)
(4.15605e-06 -1.19746e-06 0)
(4.41887e-06 -1.12845e-06 0)
(4.6731e-06 -1.06873e-06 0)
(4.9194e-06 -1.01597e-06 0)
(5.15853e-06 -9.68499e-07 0)
(5.39121e-06 -9.24737e-07 0)
(5.61814e-06 -8.83325e-07 0)
(5.83993e-06 -8.43018e-07 0)
(6.05713e-06 -8.0271e-07 0)
(6.27023e-06 -7.61371e-07 0)
(6.47967e-06 -7.18001e-07 0)
(6.68575e-06 -6.7163e-07 0)
(6.88881e-06 -6.21226e-07 0)
(7.08904e-06 -5.65702e-07 0)
(7.28677e-06 -5.03858e-07 0)
(7.48199e-06 -4.34388e-07 0)
(7.6754e-06 -3.55569e-07 0)
(7.86635e-06 -2.66401e-07 0)
(3.4361e-06 -1.5346e-06 0)
(3.71936e-06 -1.43397e-06 0)
(3.9937e-06 -1.34799e-06 0)
(4.25997e-06 -1.27203e-06 0)
(4.51818e-06 -1.20498e-06 0)
(4.76877e-06 -1.14492e-06 0)
(5.0123e-06 -1.09029e-06 0)
(5.24933e-06 -1.03963e-06 0)
(5.48042e-06 -9.91607e-07 0)
(5.70611e-06 -9.45005e-07 0)
(5.92692e-06 -8.98719e-07 0)
(6.14332e-06 -8.51703e-07 0)
(6.35573e-06 -8.02937e-07 0)
(6.56449e-06 -7.51433e-07 0)
(6.76994e-06 -6.96148e-07 0)
(6.97235e-06 -6.35985e-07 0)
(7.17209e-06 -5.69788e-07 0)
(7.36929e-06 -4.96262e-07 0)
(7.56465e-06 -4.13755e-07 0)
(7.75779e-06 -3.21327e-07 0)
(3.29303e-06 -1.68918e-06 0)
(3.57365e-06 -1.58611e-06 0)
(3.84758e-06 -1.4958e-06 0)
(4.11443e-06 -1.4145e-06 0)
(4.37416e-06 -1.3414e-06 0)
(4.62685e-06 -1.27496e-06 0)
(4.87287e-06 -1.21385e-06 0)
(5.11257e-06 -1.15674e-06 0)
(5.34639e-06 -1.10242e-06 0)
(5.57479e-06 -1.04972e-06 0)
(5.79821e-06 -9.97589e-07 0)
(6.01706e-06 -9.44988e-07 0)
(6.23176e-06 -8.90903e-07 0)
(6.44264e-06 -8.34356e-07 0)
(6.65006e-06 -7.74318e-07 0)
(6.85433e-06 -7.09707e-07 0)
(7.05585e-06 -6.39415e-07 0)
(7.25484e-06 -5.62206e-07 0)
(7.452e-06 -4.76519e-07 0)
(7.64721e-06 -3.81507e-07 0)
(3.16654e-06 -1.83833e-06 0)
(3.44322e-06 -1.73403e-06 0)
(3.71483e-06 -1.64042e-06 0)
(3.9804e-06 -1.5547e-06 0)
(4.23982e-06 -1.47637e-06 0)
(4.49292e-06 -1.40427e-06 0)
(4.73989e-06 -1.33726e-06 0)
(4.98091e-06 -1.2742e-06 0)
(5.21629e-06 -1.21397e-06 0)
(5.44638e-06 -1.15551e-06 0)
(5.67155e-06 -1.09782e-06 0)
(5.89215e-06 -1.03989e-06 0)
(6.10854e-06 -9.80727e-07 0)
(6.32107e-06 -9.19394e-07 0)
(6.53007e-06 -8.54881e-07 0)
(6.73591e-06 -7.86157e-07 0)
(6.93897e-06 -7.1216e-07 0)
(7.13958e-06 -6.31739e-07 0)
(7.33837e-06 -5.43454e-07 0)
(7.53553e-06 -4.46565e-07 0)
(3.05493e-06 -1.98116e-06 0)
(3.32649e-06 -1.8765e-06 0)
(3.59439e-06 -1.78073e-06 0)
(3.85723e-06 -1.69168e-06 0)
(4.11493e-06 -1.60913e-06 0)
(4.36708e-06 -1.53222e-06 0)
(4.61372e-06 -1.46004e-06 0)
(4.85489e-06 -1.39162e-06 0)
(5.0908e-06 -1.32598e-06 0)
(5.32167e-06 -1.26217e-06 0)
(5.54779e-06 -1.19926e-06 0)
(5.76946e-06 -1.13629e-06 0)
(5.98698e-06 -1.07233e-06 0)
(6.20069e-06 -1.00648e-06 0)
(6.41091e-06 -9.3777e-07 0)
(6.61801e-06 -8.65246e-07 0)
(6.82237e-06 -7.87898e-07 0)
(7.02439e-06 -7.04673e-07 0)
(7.22467e-06 -6.14287e-07 0)
(7.42359e-06 -5.16111e-07 0)
(2.9556e-06 -2.11787e-06 0)
(3.22143e-06 -2.01351e-06 0)
(3.48478e-06 -1.91637e-06 0)
(3.7439e-06 -1.82481e-06 0)
(3.99884e-06 -1.73885e-06 0)
(4.24896e-06 -1.65788e-06 0)
(4.49426e-06 -1.5812e-06 0)
(4.73462e-06 -1.50803e-06 0)
(4.97017e-06 -1.43752e-06 0)
(5.20103e-06 -1.36883e-06 0)
(5.4274e-06 -1.30111e-06 0)
(5.64952e-06 -1.23348e-06 0)
(5.86767e-06 -1.16507e-06 0)
(6.08212e-06 -1.09504e-06 0)
(6.2932e-06 -1.02248e-06 0)
(6.50126e-06 -9.46521e-07 0)
(6.70669e-06 -8.6621e-07 0)
(6.9099e-06 -7.80609e-07 0)
(7.11151e-06 -6.88603e-07 0)
(7.312e-06 -5.89652e-07 0)
(2.86658e-06 -2.24857e-06 0)
(3.12635e-06 -2.14499e-06 0)
(3.38455e-06 -2.04712e-06 0)
(3.63931e-06 -1.95377e-06 0)
(3.89072e-06 -1.86515e-06 0)
(4.13803e-06 -1.78084e-06 0)
(4.38118e-06 -1.70033e-06 0)
(4.61997e-06 -1.62302e-06 0)
(4.85444e-06 -1.54818e-06 0)
(5.08461e-06 -1.47509e-06 0)
(5.31064e-06 -1.40301e-06 0)
(5.53269e-06 -1.33113e-06 0)
(5.751e-06 -1.25865e-06 0)
(5.96581e-06 -1.18481e-06 0)
(6.17742e-06 -1.10876e-06 0)
(6.38616e-06 -1.02971e-06 0)
(6.59243e-06 -9.46813e-07 0)
(6.79664e-06 -8.59231e-07 0)
(6.9994e-06 -7.66015e-07 0)
(7.20123e-06 -6.66711e-07 0)
(2.786e-06 -2.37356e-06 0)
(3.0396e-06 -2.27108e-06 0)
(3.29232e-06 -2.17297e-06 0)
(3.54232e-06 -2.0784e-06 0)
(3.78967e-06 -1.98772e-06 0)
(4.0336e-06 -1.90068e-06 0)
(4.27401e-06 -1.81697e-06 0)
(4.51063e-06 -1.73609e-06 0)
(4.74343e-06 -1.65747e-06 0)
(4.97238e-06 -1.58049e-06 0)
(5.19756e-06 -1.50452e-06 0)
(5.4191e-06 -1.42881e-06 0)
(5.63718e-06 -1.35267e-06 0)
(5.85202e-06 -1.27541e-06 0)
(6.06387e-06 -1.19624e-06 0)
(6.27307e-06 -1.11448e-06 0)
(6.47996e-06 -1.02936e-06 0)
(6.68501e-06 -9.40166e-07 0)
(6.88873e-06 -8.46099e-07 0)
(7.0917e-06 -7.46796e-07 0)
(2.7122e-06 -2.49322e-06 0)
(2.95966e-06 -2.39202e-06 0)
(3.20676e-06 -2.29402e-06 0)
(3.45176e-06 -2.19868e-06 0)
(3.69472e-06 -2.10646e-06 0)
(3.93491e-06 -2.01724e-06 0)
(4.17215e-06 -1.93087e-06 0)
(4.40617e-06 -1.84698e-06 0)
(4.63686e-06 -1.7651e-06 0)
(4.86417e-06 -1.68473e-06 0)
(5.08813e-06 -1.60532e-06 0)
(5.3088e-06 -1.52624e-06 0)
(5.52635e-06 -1.44685e-06 0)
(5.74094e-06 -1.36657e-06 0)
(5.9528e-06 -1.28465e-06 0)
(6.16225e-06 -1.20054e-06 0)
(6.36959e-06 -1.11355e-06 0)
(6.5753e-06 -1.02307e-06 0)
(6.77978e-06 -9.28458e-07 0)
(6.98375e-06 -8.29447e-07 0)
(2.64374e-06 -2.60793e-06 0)
(2.88514e-06 -2.50811e-06 0)
(3.12663e-06 -2.41045e-06 0)
(3.36654e-06 -2.31469e-06 0)
(3.60495e-06 -2.22134e-06 0)
(3.84116e-06 -2.13043e-06 0)
(4.07497e-06 -2.04189e-06 0)
(4.30609e-06 -1.95548e-06 0)
(4.53437e-06 -1.87083e-06 0)
(4.75974e-06 -1.78755e-06 0)
(4.98218e-06 -1.70518e-06 0)
(5.20173e-06 -1.62316e-06 0)
(5.4185e-06 -1.54094e-06 0)
(5.63262e-06 -1.45802e-06 0)
(5.84429e-06 -1.37374e-06 0)
(6.05381e-06 -1.28762e-06 0)
(6.26144e-06 -1.19908e-06 0)
(6.46762e-06 -1.10761e-06 0)
(6.67273e-06 -1.01271e-06 0)
(6.8775e-06 -9.14215e-07 0)
(2.57928e-06 -2.71811e-06 0)
(2.81482e-06 -2.61967e-06 0)
(3.05078e-06 -2.52252e-06 0)
(3.28562e-06 -2.4266e-06 0)
(3.51945e-06 -2.33248e-06 0)
(3.75157e-06 -2.24026e-06 0)
(3.9818e-06 -2.14999e-06 0)
(4.20984e-06 -2.06151e-06 0)
(4.43552e-06 -1.97455e-06 0)
(4.65875e-06 -1.88882e-06 0)
(4.87947e-06 -1.80392e-06 0)
(5.0977e-06 -1.71938e-06 0)
(5.3135e-06 -1.63473e-06 0)
(5.52698e-06 -1.54955e-06 0)
(5.73832e-06 -1.46326e-06 0)
(5.94775e-06 -1.37546e-06 0)
(6.15553e-06 -1.28567e-06 0)
(6.36203e-06 -1.19346e-06 0)
(6.56765e-06 -1.0985e-06 0)
(6.77302e-06 -1.00067e-06 0)
(2.51767e-06 -2.82412e-06 0)
(2.74757e-06 -2.72703e-06 0)
(2.97814e-06 -2.63048e-06 0)
(3.20803e-06 -2.5346e-06 0)
(3.43731e-06 -2.43999e-06 0)
(3.66533e-06 -2.3468e-06 0)
(3.89194e-06 -2.25518e-06 0)
(4.11682e-06 -2.16504e-06 0)
(4.3398e-06 -2.07619e-06 0)
(4.56077e-06 -1.98842e-06 0)
(4.77966e-06 -1.90141e-06 0)
(4.99645e-06 -1.81476e-06 0)
(5.21117e-06 -1.72807e-06 0)
(5.42391e-06 -1.641e-06 0)
(5.6348e-06 -1.55303e-06 0)
(5.84405e-06 -1.46385e-06 0)
(6.05185e-06 -1.37306e-06 0)
(6.25857e-06 -1.28035e-06 0)
(6.46457e-06 -1.18548e-06 0)
(6.67038e-06 -1.0884e-06 0)
(2.45786e-06 -2.92633e-06 0)
(2.68235e-06 -2.83051e-06 0)
(2.90774e-06 -2.73463e-06 0)
(3.13282e-06 -2.63894e-06 0)
(3.35765e-06 -2.54405e-06 0)
(3.58165e-06 -2.45018e-06 0)
(3.80467e-06 -2.35754e-06 0)
(4.0264e-06 -2.2661e-06 0)
(4.24669e-06 -2.17575e-06 0)
(4.46539e-06 -2.08633e-06 0)
(4.68241e-06 -1.99761e-06 0)
(4.89771e-06 -1.90923e-06 0)
(5.1113e-06 -1.82087e-06 0)
(5.32322e-06 -1.73223e-06 0)
(5.53358e-06 -1.6429e-06 0)
(5.74255e-06 -1.55261e-06 0)
(5.95028e-06 -1.46106e-06 0)
(6.15715e-06 -1.36802e-06 0)
(6.36336e-06 -1.27336e-06 0)
(6.56953e-06 -1.17708e-06 0)
(2.39887e-06 -3.02505e-06 0)
(2.6182e-06 -2.93044e-06 0)
(2.83862e-06 -2.83524e-06 0)
(3.05908e-06 -2.73984e-06 0)
(3.27963e-06 -2.64485e-06 0)
(3.49976e-06 -2.55055e-06 0)
(3.71932e-06 -2.45719e-06 0)
(3.938e-06 -2.36479e-06 0)
(4.15566e-06 -2.27329e-06 0)
(4.37213e-06 -2.18259e-06 0)
(4.58729e-06 -2.0925e-06 0)
(4.8011e-06 -2.00273e-06 0)
(5.01353e-06 -1.91302e-06 0)
(5.22462e-06 -1.82314e-06 0)
(5.43441e-06 -1.73271e-06 0)
(5.64304e-06 -1.64156e-06 0)
(5.85066e-06 -1.54945e-06 0)
(6.05757e-06 -1.45623e-06 0)
(6.26392e-06 -1.36186e-06 0)
(6.4703e-06 -1.26641e-06 0)
(2.33967e-06 -3.12059e-06 0)
(2.55411e-06 -3.02709e-06 0)
(2.76981e-06 -2.93258e-06 0)
(2.98589e-06 -2.83757e-06 0)
(3.20241e-06 -2.74265e-06 0)
(3.41888e-06 -2.64814e-06 0)
(3.63517e-06 -2.55432e-06 0)
(3.85097e-06 -2.46124e-06 0)
(4.06613e-06 -2.3689e-06 0)
(4.28047e-06 -2.27723e-06 0)
(4.49389e-06 -2.18611e-06 0)
(4.70628e-06 -2.09528e-06 0)
(4.91761e-06 -2.00453e-06 0)
(5.12788e-06 -1.91368e-06 0)
(5.3371e-06 -1.82241e-06 0)
(5.54539e-06 -1.73059e-06 0)
(5.75287e-06 -1.63809e-06 0)
(5.95974e-06 -1.5448e-06 0)
(6.1662e-06 -1.45077e-06 0)
(6.37268e-06 -1.35613e-06 0)
(2.27934e-06 -3.21317e-06 0)
(2.48912e-06 -3.12082e-06 0)
(2.70033e-06 -3.02694e-06 0)
(2.91237e-06 -2.93238e-06 0)
(3.12515e-06 -2.83769e-06 0)
(3.33826e-06 -2.74316e-06 0)
(3.55154e-06 -2.64911e-06 0)
(3.7647e-06 -2.55562e-06 0)
(3.97757e-06 -2.46273e-06 0)
(4.18997e-06 -2.37039e-06 0)
(4.40176e-06 -2.27853e-06 0)
(4.61285e-06 -2.18693e-06 0)
(4.82316e-06 -2.09541e-06 0)
(5.03266e-06 -2.00382e-06 0)
(5.24135e-06 -1.91191e-06 0)
(5.44932e-06 -1.81962e-06 0)
(5.65663e-06 -1.72686e-06 0)
(5.86344e-06 -1.63357e-06 0)
(6.06994e-06 -1.53991e-06 0)
(6.27647e-06 -1.446e-06 0)
(2.21687e-06 -3.3032e-06 0)
(2.42212e-06 -3.21165e-06 0)
(2.62909e-06 -3.1186e-06 0)
(2.83759e-06 -3.02468e-06 0)
(3.04697e-06 -2.93033e-06 0)
(3.25711e-06 -2.83596e-06 0)
(3.46771e-06 -2.74187e-06 0)
(3.67855e-06 -2.6482e-06 0)
(3.88941e-06 -2.55498e-06 0)
(4.1001e-06 -2.46223e-06 0)
(4.31049e-06 -2.36989e-06 0)
(4.52044e-06 -2.27775e-06 0)
(4.72985e-06 -2.18568e-06 0)
(4.93869e-06 -2.09358e-06 0)
(5.14691e-06 -2.00123e-06 0)
(5.35461e-06 -1.90861e-06 0)
(5.56176e-06 -1.81566e-06 0)
(5.76853e-06 -1.72242e-06 0)
(5.97499e-06 -1.62909e-06 0)
(6.18154e-06 -1.53586e-06 0)
(2.15079e-06 -3.39058e-06 0)
(2.3522e-06 -3.29995e-06 0)
(2.55569e-06 -3.2079e-06 0)
(2.76077e-06 -3.11466e-06 0)
(2.96724e-06 -3.02079e-06 0)
(3.17476e-06 -2.92674e-06 0)
(3.3831e-06 -2.8328e-06 0)
(3.59199e-06 -2.73916e-06 0)
(3.80119e-06 -2.64586e-06 0)
(4.0105e-06 -2.55293e-06 0)
(4.21974e-06 -2.46031e-06 0)
(4.42875e-06 -2.36785e-06 0)
(4.63743e-06 -2.27544e-06 0)
(4.84573e-06 -2.183e-06 0)
(5.0536e-06 -2.09036e-06 0)
(5.26105e-06 -1.99751e-06 0)
(5.46806e-06 -1.90444e-06 0)
(5.67483e-06 -1.81124e-06 0)
(5.8813e-06 -1.71822e-06 0)
(6.08777e-06 -1.62558e-06 0)
(2.08023e-06 -3.47623e-06 0)
(2.2781e-06 -3.3867e-06 0)
(2.47844e-06 -3.29544e-06 0)
(2.68075e-06 -3.20292e-06 0)
(2.88484e-06 -3.10965e-06 0)
(3.09033e-06 -3.01604e-06 0)
(3.29696e-06 -2.92243e-06 0)
(3.50441e-06 -2.82897e-06 0)
(3.71241e-06 -2.73575e-06 0)
(3.92071e-06 -2.64278e-06 0)
(4.12912e-06 -2.55006e-06 0)
(4.33746e-06 -2.45743e-06 0)
(4.54563e-06 -2.36484e-06 0)
(4.75352e-06 -2.2722e-06 0)
(4.9611e-06 -2.17935e-06 0)
(5.16839e-06 -2.08632e-06 0)
(5.37537e-06 -1.99319e-06 0)
(5.58211e-06 -1.90001e-06 0)
(5.78863e-06 -1.80716e-06 0)
(5.99507e-06 -1.71498e-06 0)
(2.00428e-06 -3.55948e-06 0)
(2.19908e-06 -3.47118e-06 0)
(2.39681e-06 -3.38104e-06 0)
(2.597e-06 -3.28946e-06 0)
(2.79935e-06 -3.19698e-06 0)
(3.00347e-06 -3.10402e-06 0)
(3.20901e-06 -3.01091e-06 0)
(3.41559e-06 -2.91782e-06 0)
(3.62289e-06 -2.8248e-06 0)
(3.83064e-06 -2.73193e-06 0)
(4.03859e-06 -2.63926e-06 0)
(4.24654e-06 -2.54661e-06 0)
(4.45438e-06 -2.4539e-06 0)
(4.66201e-06 -2.36115e-06 0)
(4.86938e-06 -2.26821e-06 0)
(5.07653e-06 -2.17508e-06 0)
(5.28352e-06 -2.08188e-06 0)
(5.4903e-06 -1.98867e-06 0)
(5.69698e-06 -1.89588e-06 0)
(5.90353e-06 -1.80397e-06 0)
(1.48724e-07 -3.08805e-06 0)
(4.48262e-07 -3.04239e-06 0)
(7.54059e-07 -2.95288e-06 0)
(1.06968e-06 -2.82314e-06 0)
(1.39798e-06 -2.65815e-06 0)
(1.74078e-06 -2.46406e-06 0)
(2.09876e-06 -2.24801e-06 0)
(2.47128e-06 -2.0174e-06 0)
(2.85696e-06 -1.77977e-06 0)
(3.25285e-06 -1.54113e-06 0)
(1.44463e-07 -3.13765e-06 0)
(4.35169e-07 -3.09592e-06 0)
(7.3109e-07 -3.01407e-06 0)
(1.03524e-06 -2.89514e-06 0)
(1.35007e-06 -2.7434e-06 0)
(1.6771e-06 -2.56407e-06 0)
(2.01699e-06 -2.36321e-06 0)
(2.36904e-06 -2.14724e-06 0)
(2.73162e-06 -1.92297e-06 0)
(3.10227e-06 -1.69548e-06 0)
(1.40711e-07 -3.18842e-06 0)
(4.23609e-07 -3.15026e-06 0)
(7.10777e-07 -3.07533e-06 0)
(1.00463e-06 -2.96629e-06 0)
(1.30725e-06 -2.82683e-06 0)
(1.61988e-06 -2.66147e-06 0)
(1.94323e-06 -2.4754e-06 0)
(2.27701e-06 -2.27405e-06 0)
(2.62007e-06 -2.06326e-06 0)
(2.97075e-06 -1.84639e-06 0)
(1.37387e-07 -3.24047e-06 0)
(4.1337e-07 -3.20534e-06 0)
(6.92944e-07 -3.13633e-06 0)
(9.78036e-07 -3.03575e-06 0)
(1.2704e-06 -2.90685e-06 0)
(1.57105e-06 -2.75361e-06 0)
(1.8805e-06 -2.58059e-06 0)
(2.1985e-06 -2.39257e-06 0)
(2.52406e-06 -2.19499e-06 0)
(2.85578e-06 -1.99049e-06 0)
(1.34335e-07 -3.29378e-06 0)
(4.03961e-07 -3.26136e-06 0)
(6.76589e-07 -3.19765e-06 0)
(9.53765e-07 -3.10469e-06 0)
(1.23697e-06 -2.98536e-06 0)
(1.52702e-06 -2.84321e-06 0)
(1.8244e-06 -2.68227e-06 0)
(2.12887e-06 -2.50661e-06 0)
(2.43976e-06 -2.32117e-06 0)
(2.75524e-06 -2.12834e-06 0)
(1.31484e-07 -3.34827e-06 0)
(3.95264e-07 -3.3182e-06 0)
(6.61549e-07 -3.2591e-06 0)
(9.31643e-07 -3.1728e-06 0)
(1.20676e-06 -3.06187e-06 0)
(1.48756e-06 -2.92952e-06 0)
(1.7744e-06 -2.7794e-06 0)
(2.067e-06 -2.61512e-06 0)
(2.36503e-06 -2.44114e-06 0)
(2.66634e-06 -2.25983e-06 0)
(1.28761e-07 -3.40388e-06 0)
(3.86992e-07 -3.37592e-06 0)
(6.47327e-07 -3.32092e-06 0)
(9.10887e-07 -3.24058e-06 0)
(1.17865e-06 -3.13719e-06 0)
(1.45119e-06 -3.01367e-06 0)
(1.72879e-06 -2.87335e-06 0)
(2.01106e-06 -2.71943e-06 0)
(2.29799e-06 -2.55589e-06 0)
(2.58709e-06 -2.38531e-06 0)
(1.26158e-07 -3.46049e-06 0)
(3.79048e-07 -3.43439e-06 0)
(6.33749e-07 -3.38301e-06 0)
(8.91213e-07 -3.30795e-06 0)
(1.15224e-06 -3.21128e-06 0)
(1.4173e-06 -3.09565e-06 0)
(1.68664e-06 -2.96415e-06 0)
(1.9598e-06 -2.81968e-06 0)
(2.23697e-06 -2.66578e-06 0)
(2.51554e-06 -2.50518e-06 0)
(1.23605e-07 -3.51801e-06 0)
(3.71275e-07 -3.49356e-06 0)
(6.20544e-07 -3.44544e-06 0)
(8.72199e-07 -3.37511e-06 0)
(1.12695e-06 -3.28446e-06 0)
(1.38515e-06 -3.17594e-06 0)
(1.64704e-06 -3.05238e-06 0)
(1.91209e-06 -2.91649e-06 0)
(2.18064e-06 -2.77138e-06 0)
(2.45007e-06 -2.61991e-06 0)
(1.21049e-07 -3.57628e-06 0)
(3.63582e-07 -3.55333e-06 0)
(6.07536e-07 -3.50812e-06 0)
(8.53592e-07 -3.44201e-06 0)
(1.10237e-06 -3.35678e-06 0)
(1.35419e-06 -3.25466e-06 0)
(1.60924e-06 -3.13827e-06 0)
(1.86698e-06 -3.01017e-06 0)
(2.12781e-06 -2.87309e-06 0)
(2.38924e-06 -2.72996e-06 0)
(1.18473e-07 -3.63519e-06 0)
(3.55874e-07 -3.61361e-06 0)
(5.94534e-07 -3.57101e-06 0)
(8.35111e-07 -3.50871e-06 0)
(1.07813e-06 -3.42837e-06 0)
(1.3239e-06 -3.33203e-06 0)
(1.57259e-06 -3.22213e-06 0)
(1.82364e-06 -3.10108e-06 0)
(2.0775e-06 -2.97133e-06 0)
(2.33181e-06 -2.83577e-06 0)
(1.1587e-07 -3.69458e-06 0)
(3.48063e-07 -3.67424e-06 0)
(5.8138e-07 -3.63401e-06 0)
(8.16514e-07 -3.57516e-06 0)
(1.0539e-06 -3.49924e-06 0)
(1.29384e-06 -3.40815e-06 0)
(1.5365e-06 -3.30413e-06 0)
(1.78135e-06 -3.18949e-06 0)
(2.0288e-06 -3.06641e-06 0)
(2.27671e-06 -2.93773e-06 0)
(1.13204e-07 -3.75433e-06 0)
(3.40029e-07 -3.7351e-06 0)
(5.67901e-07 -3.69703e-06 0)
(7.9754e-07 -3.64131e-06 0)
(1.02933e-06 -3.56942e-06 0)
(1.26356e-06 -3.4831e-06 0)
(1.50042e-06 -3.38443e-06 0)
(1.73941e-06 -3.27562e-06 0)
(1.98088e-06 -3.15863e-06 0)
(2.22298e-06 -3.0362e-06 0)
(1.10424e-07 -3.81421e-06 0)
(3.31657e-07 -3.79599e-06 0)
(5.53919e-07 -3.7599e-06 0)
(7.77929e-07 -3.70706e-06 0)
(1.00407e-06 -3.63884e-06 0)
(1.23263e-06 -3.55688e-06 0)
(1.4638e-06 -3.46313e-06 0)
(1.69715e-06 -3.35963e-06 0)
(1.93297e-06 -3.24823e-06 0)
(2.16967e-06 -3.13148e-06 0)
(1.07487e-07 -3.87407e-06 0)
(3.22843e-07 -3.85675e-06 0)
(5.39252e-07 -3.82252e-06 0)
(7.57421e-07 -3.77232e-06 0)
(9.77771e-07 -3.7075e-06 0)
(1.20058e-06 -3.62956e-06 0)
(1.42607e-06 -3.54032e-06 0)
(1.65389e-06 -3.44171e-06 0)
(1.88427e-06 -3.33544e-06 0)
(2.11583e-06 -3.22388e-06 0)
(1.04361e-07 -3.93356e-06 0)
(3.13487e-07 -3.9171e-06 0)
(5.23713e-07 -3.88459e-06 0)
(7.35743e-07 -3.83687e-06 0)
(9.50054e-07 -3.7752e-06 0)
(1.16694e-06 -3.70099e-06 0)
(1.38666e-06 -3.61594e-06 0)
(1.60895e-06 -3.52186e-06 0)
(1.83395e-06 -3.42033e-06 0)
(2.06056e-06 -3.31352e-06 0)
(1.0101e-07 -3.99261e-06 0)
(3.03456e-07 -3.97696e-06 0)
(5.07063e-07 -3.94607e-06 0)
(7.12554e-07 -3.90068e-06 0)
(9.2048e-07 -3.84197e-06 0)
(1.13117e-06 -3.77128e-06 0)
(1.34491e-06 -3.69016e-06 0)
(1.56152e-06 -3.60032e-06 0)
(1.78114e-06 -3.50319e-06 0)
(2.00281e-06 -3.40083e-06 0)
(9.7383e-08 -4.05057e-06 0)
(2.92591e-07 -4.03569e-06 0)
(4.89039e-07 -4.00634e-06 0)
(6.87491e-07 -3.96319e-06 0)
(8.88569e-07 -3.90731e-06 0)
(1.09267e-06 -3.83997e-06 0)
(1.30011e-06 -3.76259e-06 0)
(1.51078e-06 -3.67676e-06 0)
(1.72485e-06 -3.58381e-06 0)
(1.94154e-06 -3.48566e-06 0)
(9.33983e-08 -4.10772e-06 0)
(2.80654e-07 -4.09359e-06 0)
(4.69255e-07 -4.06573e-06 0)
(6.60027e-07 -4.02474e-06 0)
(8.53655e-07 -3.97162e-06 0)
(1.05062e-06 -3.90752e-06 0)
(1.2513e-06 -3.83374e-06 0)
(1.45569e-06 -3.75177e-06 0)
(1.66392e-06 -3.66285e-06 0)
(1.87549e-06 -3.56873e-06 0)
(8.90203e-08 -4.16231e-06 0)
(2.67554e-07 -4.14894e-06 0)
(4.47551e-07 -4.12256e-06 0)
(6.29905e-07 -4.08374e-06 0)
(8.15399e-07 -4.03337e-06 0)
(1.00461e-06 -3.9725e-06 0)
(1.19796e-06 -3.90233e-06 0)
(1.39563e-06 -3.82422e-06 0)
(1.59771e-06 -3.73934e-06 0)
(1.80393e-06 -3.64929e-06 0)
)


// ************************************************************************* //
