/*--------------------------------*- C++ -*----------------------------------*\
| =========                 |                                                 |
| \\      /  F ield         | foam-extend: Open Source CFD                    |
|  \\    /   O peration     | Version:     4.1                                |
|   \\  /    A nd           | Web:         http://www.foam-extend.org         |
|    \\/     M anipulation  |                                                 |
\*---------------------------------------------------------------------------*/
FoamFile
{
    version     2.0;
    format      ascii;
    class       vectorField;
    location    "7";
    object      solidsCellD_iteration17;
}
// * * * * * * * * * * * * * * * * * * * * * * * * * * * * * * * * * * * * * //


1000
(
(3.66205e-06 -1.57218e-06 0)
(3.45251e-06 -1.46171e-06 0)
(3.3181e-06 -1.39105e-06 0)
(3.24039e-06 -1.35739e-06 0)
(3.20176e-06 -1.34483e-06 0)
(3.1916e-06 -1.34857e-06 0)
(3.20242e-06 -1.36294e-06 0)
(3.22898e-06 -1.38518e-06 0)
(3.26737e-06 -1.4128e-06 0)
(3.31523e-06 -1.44405e-06 0)
(3.31071e-06 -1.71726e-06 0)
(3.08762e-06 -1.63986e-06 0)
(2.94473e-06 -1.59008e-06 0)
(2.86077e-06 -1.57058e-06 0)
(2.81735e-06 -1.56739e-06 0)
(2.80292e-06 -1.57774e-06 0)
(2.80967e-06 -1.59682e-06 0)
(2.83202e-06 -1.62257e-06 0)
(2.86595e-06 -1.65308e-06 0)
(2.90829e-06 -1.68615e-06 0)
(2.94584e-06 -1.8548e-06 0)
(2.71798e-06 -1.81437e-06 0)
(2.57218e-06 -1.78798e-06 0)
(2.48557e-06 -1.78415e-06 0)
(2.43957e-06 -1.79122e-06 0)
(2.42222e-06 -1.80866e-06 0)
(2.42565e-06 -1.83266e-06 0)
(2.44422e-06 -1.86196e-06 0)
(2.47388e-06 -1.89527e-06 0)
(2.51149e-06 -1.93029e-06 0)
(2.57012e-06 -1.98234e-06 0)
(2.34701e-06 -1.98068e-06 0)
(2.20434e-06 -1.97886e-06 0)
(2.11889e-06 -1.99141e-06 0)
(2.07268e-06 -2.00915e-06 0)
(2.05383e-06 -2.03387e-06 0)
(2.05473e-06 -2.06284e-06 0)
(2.0699e-06 -2.09567e-06 0)
(2.09552e-06 -2.13166e-06 0)
(2.12836e-06 -2.16876e-06 0)
(2.18613e-06 -2.09735e-06 0)
(1.97723e-06 -2.13414e-06 0)
(1.84374e-06 -2.15669e-06 0)
(1.76336e-06 -2.18543e-06 0)
(1.71931e-06 -2.21366e-06 0)
(1.70036e-06 -2.24553e-06 0)
(1.69952e-06 -2.27934e-06 0)
(1.71168e-06 -2.31561e-06 0)
(1.73338e-06 -2.35415e-06 0)
(1.7614e-06 -2.39339e-06 0)
(1.79575e-06 -2.19751e-06 0)
(1.6103e-06 -2.2703e-06 0)
(1.49187e-06 -2.31567e-06 0)
(1.42021e-06 -2.35954e-06 0)
(1.38057e-06 -2.39756e-06 0)
(1.3629e-06 -2.43608e-06 0)
(1.3611e-06 -2.47435e-06 0)
(1.37056e-06 -2.51381e-06 0)
(1.38835e-06 -2.55469e-06 0)
(1.41142e-06 -2.59602e-06 0)
(1.40085e-06 -2.28056e-06 0)
(1.24708e-06 -2.38487e-06 0)
(1.14889e-06 -2.45026e-06 0)
(1.0893e-06 -2.5074e-06 0)
(1.05612e-06 -2.55398e-06 0)
(1.04098e-06 -2.59829e-06 0)
(1.03886e-06 -2.64046e-06 0)
(1.0459e-06 -2.68272e-06 0)
(1.05976e-06 -2.72563e-06 0)
(1.07777e-06 -2.76885e-06 0)
(1.00274e-06 -2.34463e-06 0)
(8.87579e-07 -2.47427e-06 0)
(8.14072e-07 -2.55573e-06 0)
(7.69373e-07 -2.62349e-06 0)
(7.44383e-07 -2.67696e-06 0)
(7.32789e-07 -2.72594e-06 0)
(7.30857e-07 -2.77125e-06 0)
(7.35688e-07 -2.81577e-06 0)
(7.45591e-07 -2.86032e-06 0)
(7.58489e-07 -2.90512e-06 0)
(6.02547e-07 -2.38819e-06 0)
(5.3125e-07 -2.53553e-06 0)
(4.85768e-07 -2.62822e-06 0)
(4.58041e-07 -2.70344e-06 0)
(4.42464e-07 -2.76172e-06 0)
(4.35153e-07 -2.81395e-06 0)
(4.33828e-07 -2.86147e-06 0)
(4.36665e-07 -2.90761e-06 0)
(4.42606e-07 -2.95332e-06 0)
(4.50346e-07 -2.99926e-06 0)
(2.01234e-07 -2.41014e-06 0)
(1.77084e-07 -2.56665e-06 0)
(1.61617e-07 -2.66512e-06 0)
(1.5218e-07 -2.74417e-06 0)
(1.46896e-07 -2.80493e-06 0)
(1.44387e-07 -2.85886e-06 0)
(1.43868e-07 -2.90749e-06 0)
(1.44777e-07 -2.95445e-06 0)
(1.46759e-07 -3.00077e-06 0)
(1.49332e-07 -3.04732e-06 0)
(5.72109e-06 -7.17552e-08 0)
(5.77314e-06 -5.1647e-08 0)
(5.8041e-06 -3.88682e-08 0)
(5.8372e-06 -3.13267e-08 0)
(5.8731e-06 -2.70937e-08 0)
(5.91722e-06 -2.50935e-08 0)
(5.96955e-06 -2.4636e-08 0)
(6.03076e-06 -2.51486e-08 0)
(6.10066e-06 -2.63588e-08 0)
(6.17834e-06 -2.7859e-08 0)
(5.67856e-06 -2.15278e-07 0)
(5.72191e-06 -1.56131e-07 0)
(5.74742e-06 -1.18563e-07 0)
(5.77688e-06 -9.64779e-08 0)
(5.81036e-06 -8.42269e-08 0)
(5.85277e-06 -7.84772e-08 0)
(5.90386e-06 -7.71628e-08 0)
(5.96407e-06 -7.87987e-08 0)
(6.03312e-06 -8.25195e-08 0)
(6.10989e-06 -8.70127e-08 0)
(5.59365e-06 -3.60005e-07 0)
(5.62042e-06 -2.65052e-07 0)
(5.63542e-06 -2.04811e-07 0)
(5.65793e-06 -1.69404e-07 0)
(5.68681e-06 -1.49813e-07 0)
(5.72597e-06 -1.40815e-07 0)
(5.77467e-06 -1.38957e-07 0)
(5.83295e-06 -1.41808e-07 0)
(5.90036e-06 -1.4802e-07 0)
(5.97537e-06 -1.55539e-07 0)
(5.46787e-06 -5.06566e-07 0)
(5.47105e-06 -3.80919e-07 0)
(5.47109e-06 -3.01265e-07 0)
(5.48369e-06 -2.54652e-07 0)
(5.50601e-06 -2.28974e-07 0)
(5.54057e-06 -2.174e-07 0)
(5.58587e-06 -2.15339e-07 0)
(5.64141e-06 -2.19579e-07 0)
(5.70647e-06 -2.28248e-07 0)
(5.779e-06 -2.38793e-07 0)
(5.30319e-06 -6.55351e-07 0)
(5.27723e-06 -5.05815e-07 0)
(5.25876e-06 -4.11029e-07 0)
(5.25909e-06 -3.55926e-07 0)
(5.2733e-06 -3.25832e-07 0)
(5.30211e-06 -3.1268e-07 0)
(5.34319e-06 -3.10918e-07 0)
(5.39531e-06 -3.16786e-07 0)
(5.45747e-06 -3.27922e-07 0)
(5.52699e-06 -3.41482e-07 0)
(5.10213e-06 -8.06462e-07 0)
(5.04316e-06 -6.41159e-07 0)
(5.0038e-06 -5.36324e-07 0)
(4.99026e-06 -4.75938e-07 0)
(4.99526e-06 -4.4338e-07 0)
(5.0175e-06 -4.29811e-07 0)
(5.05377e-06 -4.28957e-07 0)
(5.10197e-06 -4.36736e-07 0)
(5.16076e-06 -4.50369e-07 0)
(5.22688e-06 -4.66915e-07 0)
(4.86766e-06 -9.59569e-07 0)
(4.77383e-06 -7.87498e-07 0)
(4.71241e-06 -6.78258e-07 0)
(4.6842e-06 -6.16115e-07 0)
(4.67941e-06 -5.83237e-07 0)
(4.69468e-06 -5.70552e-07 0)
(4.72575e-06 -5.71313e-07 0)
(4.76974e-06 -5.81295e-07 0)
(4.82486e-06 -5.97464e-07 0)
(4.88736e-06 -6.16932e-07 0)
(4.60296e-06 -1.11395e-06 0)
(4.47459e-06 -9.44428e-07 0)
(4.39134e-06 -8.36669e-07 0)
(4.34852e-06 -7.76496e-07 0)
(4.33398e-06 -7.4555e-07 0)
(4.34218e-06 -7.3511e-07 0)
(4.36792e-06 -7.38234e-07 0)
(4.40752e-06 -7.50789e-07 0)
(4.4587e-06 -7.69557e-07 0)
(4.51748e-06 -7.91953e-07 0)
(4.31149e-06 -1.26856e-06 0)
(4.15101e-06 -1.11067e-06 0)
(4.04747e-06 -1.01019e-06 0)
(3.99099e-06 -9.55627e-07 0)
(3.96721e-06 -9.2883e-07 0)
(3.96858e-06 -9.21942e-07 0)
(3.98902e-06 -9.28185e-07 0)
(4.02422e-06 -9.43635e-07 0)
(4.07132e-06 -9.65259e-07 0)
(4.12647e-06 -9.90413e-07 0)
(3.99672e-06 -1.42192e-06 0)
(3.80861e-06 -1.28408e-06 0)
(3.68762e-06 -1.1962e-06 0)
(3.61927e-06 -1.15065e-06 0)
(3.5873e-06 -1.13007e-06 0)
(3.58248e-06 -1.12797e-06 0)
(3.59798e-06 -1.138e-06 0)
(3.62879e-06 -1.15681e-06 0)
(3.6718e-06 -1.18134e-06 0)
(3.72316e-06 -1.21036e-06 0)
(6.26407e-06 -2.93636e-08 0)
(6.35755e-06 -2.96468e-08 0)
(6.45703e-06 -2.99915e-08 0)
(6.56218e-06 -3.02282e-08 0)
(6.67231e-06 -3.03334e-08 0)
(6.78698e-06 -3.02934e-08 0)
(6.90569e-06 -3.00482e-08 0)
(7.028e-06 -2.96072e-08 0)
(7.1535e-06 -2.89768e-08 0)
(7.28181e-06 -2.81398e-08 0)
(7.41251e-06 -2.70673e-08 0)
(7.54522e-06 -2.57388e-08 0)
(7.67957e-06 -2.41284e-08 0)
(7.81514e-06 -2.22124e-08 0)
(7.95157e-06 -1.99632e-08 0)
(8.08832e-06 -1.73432e-08 0)
(8.22511e-06 -1.42978e-08 0)
(8.36103e-06 -1.07636e-08 0)
(8.49624e-06 -6.65267e-09 0)
(8.62849e-06 -1.92995e-09 0)
(6.19866e-06 -9.11717e-08 0)
(6.29763e-06 -9.15808e-08 0)
(6.40203e-06 -9.22473e-08 0)
(6.51143e-06 -9.26645e-08 0)
(6.62536e-06 -9.26825e-08 0)
(6.74337e-06 -9.23026e-08 0)
(6.86509e-06 -9.14089e-08 0)
(6.99013e-06 -8.99963e-08 0)
(7.11812e-06 -8.80072e-08 0)
(7.24868e-06 -8.5383e-08 0)
(7.38145e-06 -8.20639e-08 0)
(7.51609e-06 -7.80076e-08 0)
(7.65224e-06 -7.31408e-08 0)
(7.78951e-06 -6.73779e-08 0)
(7.92755e-06 -6.06152e-08 0)
(8.06583e-06 -5.27354e-08 0)
(8.20411e-06 -4.35783e-08 0)
(8.34144e-06 -3.29675e-08 0)
(8.47806e-06 -2.06335e-08 0)
(8.61169e-06 -6.474e-09 0)
(6.07007e-06 -1.61432e-07 0)
(6.17982e-06 -1.60754e-07 0)
(6.29382e-06 -1.60633e-07 0)
(6.41153e-06 -1.60385e-07 0)
(6.53289e-06 -1.59639e-07 0)
(6.65749e-06 -1.58398e-07 0)
(6.78514e-06 -1.56408e-07 0)
(6.91549e-06 -1.53634e-07 0)
(7.04832e-06 -1.49963e-07 0)
(7.18329e-06 -1.45309e-07 0)
(7.32015e-06 -1.39573e-07 0)
(7.45856e-06 -1.32665e-07 0)
(7.59824e-06 -1.24447e-07 0)
(7.7388e-06 -1.14764e-07 0)
(7.87997e-06 -1.03444e-07 0)
(8.02125e-06 -9.02864e-08 0)
(8.16242e-06 -7.50176e-08 0)
(8.30258e-06 -5.73475e-08 0)
(8.44197e-06 -3.68133e-08 0)
(8.57839e-06 -1.32494e-08 0)
(5.88218e-06 -2.44949e-07 0)
(6.00737e-06 -2.41298e-07 0)
(6.13527e-06 -2.38662e-07 0)
(6.26506e-06 -2.36412e-07 0)
(6.39725e-06 -2.33771e-07 0)
(6.53144e-06 -2.30762e-07 0)
(6.66775e-06 -2.26935e-07 0)
(6.8059e-06 -2.22226e-07 0)
(6.94585e-06 -2.16435e-07 0)
(7.08733e-06 -2.09409e-07 0)
(7.23018e-06 -2.00977e-07 0)
(7.37414e-06 -1.90989e-07 0)
(7.519e-06 -1.79249e-07 0)
(7.66443e-06 -1.65539e-07 0)
(7.8102e-06 -1.49613e-07 0)
(7.95588e-06 -1.31168e-07 0)
(8.10127e-06 -1.09814e-07 0)
(8.24556e-06 -8.51373e-08 0)
(8.38899e-06 -5.6471e-08 0)
(8.52948e-06 -2.35965e-08 0)
(5.64068e-06 -3.46004e-07 0)
(5.78523e-06 -3.36922e-07 0)
(5.93076e-06 -3.2953e-07 0)
(6.07586e-06 -3.23556e-07 0)
(6.22188e-06 -3.17569e-07 0)
(6.36836e-06 -3.11631e-07 0)
(6.51579e-06 -3.05033e-07 0)
(6.66399e-06 -2.97637e-07 0)
(6.81309e-06 -2.89104e-07 0)
(6.96295e-06 -2.79198e-07 0)
(7.11353e-06 -2.6768e-07 0)
(7.26467e-06 -2.54325e-07 0)
(7.41623e-06 -2.38855e-07 0)
(7.56797e-06 -2.20975e-07 0)
(7.71972e-06 -2.00347e-07 0)
(7.87109e-06 -1.76566e-07 0)
(8.02197e-06 -1.49124e-07 0)
(8.17158e-06 -1.17479e-07 0)
(8.32026e-06 -8.07681e-08 0)
(8.466e-06 -3.87003e-08 0)
(5.35244e-06 -4.67667e-07 0)
(5.51929e-06 -4.50308e-07 0)
(5.68543e-06 -4.35515e-07 0)
(5.84855e-06 -4.23726e-07 0)
(6.01097e-06 -4.12673e-07 0)
(6.17209e-06 -4.02391e-07 0)
(6.33278e-06 -3.9186e-07 0)
(6.49302e-06 -3.80827e-07 0)
(6.65311e-06 -3.68809e-07 0)
(6.81306e-06 -3.5545e-07 0)
(6.97296e-06 -3.4041e-07 0)
(7.13274e-06 -3.23364e-07 0)
(7.29237e-06 -3.03938e-07 0)
(7.45168e-06 -2.81741e-07 0)
(7.61061e-06 -2.5633e-07 0)
(7.76881e-06 -2.272e-07 0)
(7.92628e-06 -1.93706e-07 0)
(8.08229e-06 -1.55188e-07 0)
(8.23728e-06 -1.10585e-07 0)
(8.38932e-06 -5.9491e-08 0)
(5.02553e-06 -6.11813e-07 0)
(5.21657e-06 -5.83301e-07 0)
(5.40544e-06 -5.58482e-07 0)
(5.5886e-06 -5.38639e-07 0)
(5.76933e-06 -5.20696e-07 0)
(5.94694e-06 -5.04513e-07 0)
(6.12265e-06 -4.88821e-07 0)
(6.29658e-06 -4.73127e-07 0)
(6.4692e-06 -4.56798e-07 0)
(6.64069e-06 -4.39325e-07 0)
(6.81124e-06 -4.20236e-07 0)
(6.98093e-06 -3.99085e-07 0)
(7.1498e-06 -3.75389e-07 0)
(7.31782e-06 -3.48659e-07 0)
(7.48498e-06 -3.1834e-07 0)
(7.65105e-06 -2.83813e-07 0)
(7.81607e-06 -2.44294e-07 0)
(7.97942e-06 -1.98995e-07 0)
(8.14161e-06 -1.4667e-07 0)
(8.30088e-06 -8.67864e-08 0)
(4.66809e-06 -7.78864e-07 0)
(4.88406e-06 -7.36004e-07 0)
(5.09679e-06 -6.985e-07 0)
(5.30141e-06 -6.68107e-07 0)
(5.50188e-06 -6.41368e-07 0)
(5.69747e-06 -6.17611e-07 0)
(5.88965e-06 -5.95449e-07 0)
(6.07865e-06 -5.7404e-07 0)
(6.26511e-06 -5.5257e-07 0)
(6.44936e-06 -5.30341e-07 0)
(6.63171e-06 -5.06725e-07 0)
(6.81236e-06 -4.81126e-07 0)
(6.99148e-06 -4.52935e-07 0)
(7.16915e-06 -4.21548e-07 0)
(7.34542e-06 -3.86283e-07 0)
(7.52018e-06 -3.46397e-07 0)
(7.69354e-06 -3.00972e-07 0)
(7.86501e-06 -2.49076e-07 0)
(8.03514e-06 -1.89287e-07 0)
(8.20241e-06 -1.20942e-07 0)
(4.28898e-06 -9.68481e-07 0)
(4.52982e-06 -9.08684e-07 0)
(4.76634e-06 -8.5686e-07 0)
(4.99308e-06 -8.13792e-07 0)
(5.21387e-06 -7.76564e-07 0)
(5.42834e-06 -7.4368e-07 0)
(5.63783e-06 -7.13707e-07 0)
(5.84284e-06 -6.85429e-07 0)
(6.04407e-06 -6.57847e-07 0)
(6.24199e-06 -6.30051e-07 0)
(6.43704e-06 -6.01243e-07 0)
(6.62953e-06 -5.7067e-07 0)
(6.81974e-06 -5.3759e-07 0)
(7.00784e-06 -5.01264e-07 0)
(7.19399e-06 -4.60876e-07 0)
(7.37815e-06 -4.15548e-07 0)
(7.56052e-06 -3.64234e-07 0)
(7.74076e-06 -3.05857e-07 0)
(7.91948e-06 -2.38849e-07 0)
(8.0954e-06 -1.62424e-07 0)
(3.89534e-06 -1.17722e-06 0)
(4.16102e-06 -1.09651e-06 0)
(4.42023e-06 -1.02857e-06 0)
(4.66961e-06 -9.70817e-07 0)
(4.91112e-06 -9.21425e-07 0)
(5.14521e-06 -8.78105e-07 0)
(5.37278e-06 -8.39243e-07 0)
(5.59457e-06 -8.03302e-07 0)
(5.8113e-06 -7.69021e-07 0)
(6.02358e-06 -7.35255e-07 0)
(6.23195e-06 -7.00994e-07 0)
(6.43686e-06 -6.6531e-07 0)
(6.63869e-06 -6.27297e-07 0)
(6.8377e-06 -5.86073e-07 0)
(7.03414e-06 -5.4068e-07 0)
(7.22811e-06 -4.90109e-07 0)
(7.4199e-06 -4.33194e-07 0)
(7.60929e-06 -3.68701e-07 0)
(7.79699e-06 -2.94929e-07 0)
(7.98202e-06 -2.10936e-07 0)
(3.60485e-06 -1.37621e-06 0)
(3.88628e-06 -1.27892e-06 0)
(4.15856e-06 -1.19912e-06 0)
(4.42155e-06 -1.1298e-06 0)
(4.67594e-06 -1.06979e-06 0)
(4.92239e-06 -1.01678e-06 0)
(5.16166e-06 -9.69054e-07 0)
(5.39445e-06 -9.25057e-07 0)
(5.62148e-06 -8.83417e-07 0)
(5.84334e-06 -8.4289e-07 0)
(6.0606e-06 -8.02364e-07 0)
(6.27376e-06 -7.60805e-07 0)
(6.48322e-06 -7.17209e-07 0)
(6.68932e-06 -6.70599e-07 0)
(6.89238e-06 -6.19935e-07 0)
(7.09259e-06 -5.64123e-07 0)
(7.29029e-06 -5.01962e-07 0)
(7.48547e-06 -4.32132e-07 0)
(7.67884e-06 -3.52908e-07 0)
(7.86974e-06 -2.63295e-07 0)
(3.43805e-06 -1.53696e-06 0)
(3.72144e-06 -1.43606e-06 0)
(3.99593e-06 -1.34978e-06 0)
(4.26235e-06 -1.27353e-06 0)
(4.52069e-06 -1.20619e-06 0)
(4.77142e-06 -1.14585e-06 0)
(5.01507e-06 -1.09096e-06 0)
(5.2522e-06 -1.04004e-06 0)
(5.48337e-06 -9.91771e-07 0)
(5.70913e-06 -9.44927e-07 0)
(5.93001e-06 -8.98402e-07 0)
(6.14645e-06 -8.51145e-07 0)
(6.35888e-06 -8.0213e-07 0)
(6.56765e-06 -7.50366e-07 0)
(6.77309e-06 -6.948e-07 0)
(6.97549e-06 -6.34333e-07 0)
(7.1752e-06 -5.67801e-07 0)
(7.37237e-06 -4.93905e-07 0)
(7.56769e-06 -4.10984e-07 0)
(7.76078e-06 -3.18106e-07 0)
(3.29464e-06 -1.69172e-06 0)
(3.5754e-06 -1.58835e-06 0)
(3.84947e-06 -1.49773e-06 0)
(4.11646e-06 -1.41613e-06 0)
(4.37631e-06 -1.34272e-06 0)
(4.62913e-06 -1.276e-06 0)
(4.87525e-06 -1.2146e-06 0)
(5.11504e-06 -1.15723e-06 0)
(5.34895e-06 -1.10264e-06 0)
(5.57741e-06 -1.04968e-06 0)
(5.80088e-06 -9.97295e-07 0)
(6.01978e-06 -9.44433e-07 0)
(6.23449e-06 -8.90079e-07 0)
(6.44538e-06 -8.33253e-07 0)
(6.65279e-06 -7.72917e-07 0)
(6.85705e-06 -7.07988e-07 0)
(7.05854e-06 -6.37349e-07 0)
(7.25751e-06 -5.59762e-07 0)
(7.45464e-06 -4.73653e-07 0)
(7.64982e-06 -3.78189e-07 0)
(3.16781e-06 -1.84104e-06 0)
(3.44464e-06 -1.73642e-06 0)
(3.71639e-06 -1.6425e-06 0)
(3.98208e-06 -1.55646e-06 0)
(4.24162e-06 -1.47782e-06 0)
(4.49483e-06 -1.40541e-06 0)
(4.7419e-06 -1.33811e-06 0)
(4.983e-06 -1.27476e-06 0)
(5.21846e-06 -1.21425e-06 0)
(5.44861e-06 -1.15552e-06 0)
(5.67383e-06 -1.09755e-06 0)
(5.89446e-06 -1.03934e-06 0)
(6.11087e-06 -9.7989e-07 0)
(6.3234e-06 -9.18261e-07 0)
(6.5324e-06 -8.53435e-07 0)
(6.73821e-06 -7.8438e-07 0)
(6.94125e-06 -7.10026e-07 0)
(7.14183e-06 -6.29219e-07 0)
(7.34061e-06 -5.40509e-07 0)
(7.53773e-06 -4.43167e-07 0)
(3.05588e-06 -1.98405e-06 0)
(3.32758e-06 -1.87904e-06 0)
(3.59563e-06 -1.78294e-06 0)
(3.85858e-06 -1.69356e-06 0)
(4.11639e-06 -1.61068e-06 0)
(4.36864e-06 -1.53346e-06 0)
(4.61537e-06 -1.46097e-06 0)
(4.85662e-06 -1.39225e-06 0)
(5.0926e-06 -1.32632e-06 0)
(5.32352e-06 -1.26222e-06 0)
(5.54968e-06 -1.19901e-06 0)
(5.77137e-06 -1.13574e-06 0)
(5.9889e-06 -1.07147e-06 0)
(6.20261e-06 -1.00531e-06 0)
(6.41282e-06 -9.36282e-07 0)
(6.6199e-06 -8.63417e-07 0)
(6.82424e-06 -7.85703e-07 0)
(7.02623e-06 -7.02088e-07 0)
(7.22649e-06 -6.11275e-07 0)
(7.42538e-06 -5.12646e-07 0)
(2.95627e-06 -2.12091e-06 0)
(3.22223e-06 -2.01619e-06 0)
(3.4857e-06 -1.9187e-06 0)
(3.74494e-06 -1.8268e-06 0)
(3.99997e-06 -1.7405e-06 0)
(4.25018e-06 -1.65921e-06 0)
(4.49556e-06 -1.58221e-06 0)
(4.73599e-06 -1.50873e-06 0)
(4.97159e-06 -1.4379e-06 0)
(5.20249e-06 -1.3689e-06 0)
(5.4289e-06 -1.30087e-06 0)
(5.65103e-06 -1.23293e-06 0)
(5.86918e-06 -1.1642e-06 0)
(6.08364e-06 -1.09385e-06 0)
(6.2947e-06 -1.02096e-06 0)
(6.50274e-06 -9.44646e-07 0)
(6.70815e-06 -8.63963e-07 0)
(6.91134e-06 -7.77968e-07 0)
(7.11292e-06 -6.85533e-07 0)
(7.31339e-06 -5.86134e-07 0)
(2.86699e-06 -2.25174e-06 0)
(3.12687e-06 -2.14779e-06 0)
(3.38518e-06 -2.04957e-06 0)
(3.64004e-06 -1.95586e-06 0)
(3.89152e-06 -1.86689e-06 0)
(4.13892e-06 -1.78224e-06 0)
(4.38214e-06 -1.70141e-06 0)
(4.62099e-06 -1.62377e-06 0)
(4.85549e-06 -1.5486e-06 0)
(5.0857e-06 -1.4752e-06 0)
(5.31175e-06 -1.40279e-06 0)
(5.53381e-06 -1.33058e-06 0)
(5.75212e-06 -1.25777e-06 0)
(5.96692e-06 -1.1836e-06 0)
(6.17852e-06 -1.1072e-06 0)
(6.38725e-06 -1.0278e-06 0)
(6.59349e-06 -9.4452e-07 0)
(6.79768e-06 -8.56541e-07 0)
(7.00042e-06 -7.62899e-07 0)
(7.20224e-06 -6.63152e-07 0)
(2.78617e-06 -2.37685e-06 0)
(3.03986e-06 -2.274e-06 0)
(3.29266e-06 -2.17552e-06 0)
(3.54275e-06 -2.08058e-06 0)
(3.79016e-06 -1.98954e-06 0)
(4.03417e-06 -1.90216e-06 0)
(4.27463e-06 -1.8181e-06 0)
(4.5113e-06 -1.73689e-06 0)
(4.74413e-06 -1.65793e-06 0)
(4.9731e-06 -1.58062e-06 0)
(5.1983e-06 -1.5043e-06 0)
(5.41984e-06 -1.42826e-06 0)
(5.63792e-06 -1.35177e-06 0)
(5.85275e-06 -1.27417e-06 0)
(6.06459e-06 -1.19465e-06 0)
(6.27376e-06 -1.11252e-06 0)
(6.48063e-06 -1.02702e-06 0)
(6.68565e-06 -9.37435e-07 0)
(6.88935e-06 -8.42945e-07 0)
(7.09232e-06 -7.43209e-07 0)
(2.71214e-06 -2.49661e-06 0)
(2.95966e-06 -2.39503e-06 0)
(3.20683e-06 -2.29665e-06 0)
(3.4519e-06 -2.20094e-06 0)
(3.69492e-06 -2.10835e-06 0)
(3.93515e-06 -2.01878e-06 0)
(4.17245e-06 -1.93206e-06 0)
(4.40649e-06 -1.84781e-06 0)
(4.63721e-06 -1.76558e-06 0)
(4.86453e-06 -1.68486e-06 0)
(5.08849e-06 -1.60511e-06 0)
(5.30917e-06 -1.52568e-06 0)
(5.5267e-06 -1.44594e-06 0)
(5.74128e-06 -1.36531e-06 0)
(5.95313e-06 -1.28303e-06 0)
(6.16255e-06 -1.19855e-06 0)
(6.36987e-06 -1.11118e-06 0)
(6.57555e-06 -1.02031e-06 0)
(6.78002e-06 -9.25275e-07 0)
(6.98397e-06 -8.25839e-07 0)
(2.64346e-06 -2.6114e-06 0)
(2.8849e-06 -2.51119e-06 0)
(3.12644e-06 -2.41315e-06 0)
(3.36639e-06 -2.31702e-06 0)
(3.60485e-06 -2.22329e-06 0)
(3.84109e-06 -2.13202e-06 0)
(4.07494e-06 -2.04312e-06 0)
(4.30607e-06 -1.95634e-06 0)
(4.53436e-06 -1.87133e-06 0)
(4.75974e-06 -1.7877e-06 0)
(4.98218e-06 -1.70497e-06 0)
(5.20172e-06 -1.62259e-06 0)
(5.41848e-06 -1.54001e-06 0)
(5.63258e-06 -1.45673e-06 0)
(5.84424e-06 -1.37209e-06 0)
(6.05373e-06 -1.2856e-06 0)
(6.26134e-06 -1.19668e-06 0)
(6.4675e-06 -1.10481e-06 0)
(6.67259e-06 -1.0095e-06 0)
(6.87735e-06 -9.10593e-07 0)
(2.57879e-06 -2.72163e-06 0)
(2.81435e-06 -2.62281e-06 0)
(3.05034e-06 -2.52527e-06 0)
(3.28521e-06 -2.42897e-06 0)
(3.51906e-06 -2.33447e-06 0)
(3.75119e-06 -2.24188e-06 0)
(3.98144e-06 -2.15124e-06 0)
(4.20948e-06 -2.06239e-06 0)
(4.43517e-06 -1.97506e-06 0)
(4.65839e-06 -1.88896e-06 0)
(4.87911e-06 -1.8037e-06 0)
(5.09733e-06 -1.7188e-06 0)
(5.31311e-06 -1.63379e-06 0)
(5.52658e-06 -1.54825e-06 0)
(5.73789e-06 -1.46159e-06 0)
(5.9473e-06 -1.37341e-06 0)
(6.15506e-06 -1.28324e-06 0)
(6.36154e-06 -1.19064e-06 0)
(6.56714e-06 -1.09527e-06 0)
(6.7725e-06 -9.97038e-07 0)
(2.51698e-06 -2.82768e-06 0)
(2.74688e-06 -2.73021e-06 0)
(2.97746e-06 -2.63328e-06 0)
(3.20735e-06 -2.53701e-06 0)
(3.43663e-06 -2.44201e-06 0)
(3.66465e-06 -2.34845e-06 0)
(3.89126e-06 -2.25645e-06 0)
(4.11613e-06 -2.16593e-06 0)
(4.33911e-06 -2.0767e-06 0)
(4.56007e-06 -1.98856e-06 0)
(4.77895e-06 -1.90119e-06 0)
(4.99572e-06 -1.81416e-06 0)
(5.21042e-06 -1.72711e-06 0)
(5.42314e-06 -1.63967e-06 0)
(5.634e-06 -1.55133e-06 0)
(5.84322e-06 -1.46178e-06 0)
(6.051e-06 -1.37061e-06 0)
(6.2577e-06 -1.27751e-06 0)
(6.46368e-06 -1.18224e-06 0)
(6.6695e-06 -1.08477e-06 0)
(2.45697e-06 -2.92992e-06 0)
(2.68144e-06 -2.83372e-06 0)
(2.90681e-06 -2.73745e-06 0)
(3.13187e-06 -2.64137e-06 0)
(3.35668e-06 -2.54608e-06 0)
(3.58067e-06 -2.45183e-06 0)
(3.80367e-06 -2.35881e-06 0)
(4.02539e-06 -2.26699e-06 0)
(4.24566e-06 -2.17626e-06 0)
(4.46434e-06 -2.08647e-06 0)
(4.68134e-06 -1.99737e-06 0)
(4.89662e-06 -1.90861e-06 0)
(5.11018e-06 -1.81988e-06 0)
(5.32209e-06 -1.73088e-06 0)
(5.53242e-06 -1.64117e-06 0)
(5.74136e-06 -1.55051e-06 0)
(5.94907e-06 -1.45858e-06 0)
(6.15591e-06 -1.36516e-06 0)
(6.36211e-06 -1.27012e-06 0)
(6.56827e-06 -1.17345e-06 0)
(2.39776e-06 -3.02864e-06 0)
(2.61705e-06 -2.93365e-06 0)
(2.83743e-06 -2.83806e-06 0)
(3.05786e-06 -2.74227e-06 0)
(3.27837e-06 -2.64689e-06 0)
(3.49847e-06 -2.5522e-06 0)
(3.718e-06 -2.45846e-06 0)
(3.93666e-06 -2.36567e-06 0)
(4.15429e-06 -2.27379e-06 0)
(4.37073e-06 -2.18271e-06 0)
(4.58587e-06 -2.09224e-06 0)
(4.79966e-06 -2.0021e-06 0)
(5.01206e-06 -1.91202e-06 0)
(5.22312e-06 -1.82176e-06 0)
(5.43288e-06 -1.73096e-06 0)
(5.64149e-06 -1.63943e-06 0)
(5.84908e-06 -1.54695e-06 0)
(6.05597e-06 -1.45336e-06 0)
(6.26231e-06 -1.35861e-06 0)
(6.4687e-06 -1.2628e-06 0)
(2.33833e-06 -3.12417e-06 0)
(2.55271e-06 -3.03029e-06 0)
(2.76835e-06 -2.9354e-06 0)
(2.98438e-06 -2.83999e-06 0)
(3.20085e-06 -2.74468e-06 0)
(3.41728e-06 -2.64978e-06 0)
(3.63353e-06 -2.55557e-06 0)
(3.84929e-06 -2.46211e-06 0)
(4.06442e-06 -2.36938e-06 0)
(4.27873e-06 -2.27733e-06 0)
(4.49211e-06 -2.18583e-06 0)
(4.70447e-06 -2.09463e-06 0)
(4.91578e-06 -2.0035e-06 0)
(5.12601e-06 -1.91228e-06 0)
(5.33521e-06 -1.82063e-06 0)
(5.54347e-06 -1.72844e-06 0)
(5.75092e-06 -1.63557e-06 0)
(5.95778e-06 -1.54192e-06 0)
(6.16422e-06 -1.44753e-06 0)
(6.37072e-06 -1.35253e-06 0)
(2.27774e-06 -3.21674e-06 0)
(2.48744e-06 -3.124e-06 0)
(2.69859e-06 -3.02973e-06 0)
(2.91056e-06 -2.93478e-06 0)
(3.12328e-06 -2.8397e-06 0)
(3.33634e-06 -2.74479e-06 0)
(3.54956e-06 -2.65034e-06 0)
(3.76268e-06 -2.55647e-06 0)
(3.97551e-06 -2.46319e-06 0)
(4.18786e-06 -2.37047e-06 0)
(4.39963e-06 -2.27823e-06 0)
(4.61068e-06 -2.18625e-06 0)
(4.82096e-06 -2.09435e-06 0)
(5.03043e-06 -2.00239e-06 0)
(5.2391e-06 -1.91011e-06 0)
(5.44704e-06 -1.81745e-06 0)
(5.65433e-06 -1.72432e-06 0)
(5.86113e-06 -1.63068e-06 0)
(6.06762e-06 -1.53667e-06 0)
(6.27416e-06 -1.44242e-06 0)
(2.21501e-06 -3.30674e-06 0)
(2.42016e-06 -3.2148e-06 0)
(2.62704e-06 -3.12136e-06 0)
(2.83546e-06 -3.02706e-06 0)
(3.04477e-06 -2.93231e-06 0)
(3.25485e-06 -2.83755e-06 0)
(3.46539e-06 -2.74308e-06 0)
(3.67617e-06 -2.64902e-06 0)
(3.88698e-06 -2.55541e-06 0)
(4.09764e-06 -2.46229e-06 0)
(4.30799e-06 -2.36957e-06 0)
(4.5179e-06 -2.27705e-06 0)
(4.72729e-06 -2.18461e-06 0)
(4.9361e-06 -2.09213e-06 0)
(5.14431e-06 -1.99941e-06 0)
(5.35198e-06 -1.90642e-06 0)
(5.55911e-06 -1.81311e-06 0)
(5.76587e-06 -1.71952e-06 0)
(5.97233e-06 -1.62585e-06 0)
(6.17888e-06 -1.5323e-06 0)
(2.14862e-06 -3.39407e-06 0)
(2.34992e-06 -3.30307e-06 0)
(2.55332e-06 -3.21064e-06 0)
(2.7583e-06 -3.117e-06 0)
(2.96469e-06 -3.02274e-06 0)
(3.17214e-06 -2.9283e-06 0)
(3.38042e-06 -2.83398e-06 0)
(3.58925e-06 -2.73996e-06 0)
(3.7984e-06 -2.64627e-06 0)
(4.00767e-06 -2.55296e-06 0)
(4.21687e-06 -2.45997e-06 0)
(4.42585e-06 -2.36714e-06 0)
(4.6345e-06 -2.27435e-06 0)
(4.84278e-06 -2.18154e-06 0)
(5.05064e-06 -2.08852e-06 0)
(5.25808e-06 -1.99531e-06 0)
(5.46508e-06 -1.90187e-06 0)
(5.67184e-06 -1.80834e-06 0)
(5.8783e-06 -1.71499e-06 0)
(6.08478e-06 -1.62204e-06 0)
(2.07771e-06 -3.47967e-06 0)
(2.27547e-06 -3.38977e-06 0)
(2.4757e-06 -3.29813e-06 0)
(2.67792e-06 -3.20523e-06 0)
(2.88191e-06 -3.11157e-06 0)
(3.08733e-06 -3.01757e-06 0)
(3.29389e-06 -2.92357e-06 0)
(3.50128e-06 -2.82974e-06 0)
(3.70924e-06 -2.73613e-06 0)
(3.9175e-06 -2.6428e-06 0)
(4.12587e-06 -2.5497e-06 0)
(4.33419e-06 -2.4567e-06 0)
(4.54234e-06 -2.36373e-06 0)
(4.75021e-06 -2.27073e-06 0)
(4.95779e-06 -2.1775e-06 0)
(5.16508e-06 -2.08411e-06 0)
(5.37205e-06 -1.99062e-06 0)
(5.57881e-06 -1.89711e-06 0)
(5.78533e-06 -1.80393e-06 0)
(5.99178e-06 -1.71147e-06 0)
(2.00139e-06 -3.56287e-06 0)
(2.19607e-06 -3.4742e-06 0)
(2.39368e-06 -3.38368e-06 0)
(2.59376e-06 -3.29172e-06 0)
(2.79602e-06 -3.19886e-06 0)
(3.00007e-06 -3.10552e-06 0)
(3.20554e-06 -3.01203e-06 0)
(3.41207e-06 -2.91856e-06 0)
(3.61933e-06 -2.82516e-06 0)
(3.82704e-06 -2.73193e-06 0)
(4.03496e-06 -2.63889e-06 0)
(4.24289e-06 -2.54587e-06 0)
(4.45072e-06 -2.45279e-06 0)
(4.65834e-06 -2.35967e-06 0)
(4.86572e-06 -2.26636e-06 0)
(5.07288e-06 -2.17287e-06 0)
(5.27988e-06 -2.07931e-06 0)
(5.48669e-06 -1.98577e-06 0)
(5.69339e-06 -1.89266e-06 0)
(5.89996e-06 -1.80048e-06 0)
(1.48711e-07 -3.09505e-06 0)
(4.48229e-07 -3.04926e-06 0)
(7.54039e-07 -2.9595e-06 0)
(1.06971e-06 -2.82937e-06 0)
(1.39814e-06 -2.66391e-06 0)
(1.74115e-06 -2.46925e-06 0)
(2.09942e-06 -2.25259e-06 0)
(2.47231e-06 -2.02131e-06 0)
(2.85843e-06 -1.783e-06 0)
(3.25482e-06 -1.54372e-06 0)
(1.44436e-07 -3.1446e-06 0)
(4.35091e-07 -3.10275e-06 0)
(7.30995e-07 -3.02066e-06 0)
(1.03517e-06 -2.90138e-06 0)
(1.35007e-06 -2.74921e-06 0)
(1.67727e-06 -2.56936e-06 0)
(2.01741e-06 -2.36792e-06 0)
(2.36979e-06 -2.15132e-06 0)
(2.73276e-06 -1.92641e-06 0)
(3.1039e-06 -1.69827e-06 0)
(1.40678e-07 -3.19531e-06 0)
(4.23509e-07 -3.15703e-06 0)
(7.1064e-07 -3.08189e-06 0)
(1.0045e-06 -2.97253e-06 0)
(1.30716e-06 -2.83267e-06 0)
(1.61992e-06 -2.66684e-06 0)
(1.94346e-06 -2.48024e-06 0)
(2.27751e-06 -2.2783e-06 0)
(2.62092e-06 -2.06691e-06 0)
(2.97204e-06 -1.84939e-06 0)
(1.3735e-07 -3.2473e-06 0)
(4.13257e-07 -3.21207e-06 0)
(6.92774e-07 -3.14287e-06 0)
(9.77851e-07 -3.04199e-06 0)
(1.27024e-06 -2.91273e-06 0)
(1.57098e-06 -2.75905e-06 0)
(1.88059e-06 -2.58553e-06 0)
(2.1988e-06 -2.39696e-06 0)
(2.52465e-06 -2.19881e-06 0)
(2.85675e-06 -1.99368e-06 0)
(1.34291e-07 -3.30056e-06 0)
(4.03836e-07 -3.26804e-06 0)
(6.76392e-07 -3.20416e-06 0)
(9.53538e-07 -3.11093e-06 0)
(1.23674e-06 -2.99127e-06 0)
(1.52686e-06 -2.84871e-06 0)
(1.82435e-06 -2.6873e-06 0)
(2.129e-06 -2.51113e-06 0)
(2.44013e-06 -2.32514e-06 0)
(2.75593e-06 -2.1317e-06 0)
(1.31437e-07 -3.355e-06 0)
(3.95127e-07 -3.32484e-06 0)
(6.61332e-07 -3.26558e-06 0)
(9.3138e-07 -3.17903e-06 0)
(1.20648e-06 -3.06778e-06 0)
(1.48732e-06 -2.93505e-06 0)
(1.77424e-06 -2.78451e-06 0)
(2.06697e-06 -2.61974e-06 0)
(2.3652e-06 -2.44524e-06 0)
(2.66678e-06 -2.26335e-06 0)
(1.28712e-07 -3.41056e-06 0)
(3.86845e-07 -3.38252e-06 0)
(6.47093e-07 -3.32736e-06 0)
(9.1059e-07 -3.24679e-06 0)
(1.17832e-06 -3.14311e-06 0)
(1.45087e-06 -3.01924e-06 0)
(1.72853e-06 -2.87851e-06 0)
(2.0109e-06 -2.72413e-06 0)
(2.29798e-06 -2.5601e-06 0)
(2.5873e-06 -2.38896e-06 0)
(1.26103e-07 -3.46712e-06 0)
(3.7889e-07 -3.44095e-06 0)
(6.33498e-07 -3.38942e-06 0)
(8.90885e-07 -3.31415e-06 0)
(1.15187e-06 -3.2172e-06 0)
(1.41692e-06 -3.10124e-06 0)
(1.68629e-06 -2.96935e-06 0)
(1.95952e-06 -2.82445e-06 0)
(2.2368e-06 -2.67007e-06 0)
(2.51554e-06 -2.50894e-06 0)
(1.23542e-07 -3.5246e-06 0)
(3.71107e-07 -3.50008e-06 0)
(6.20274e-07 -3.45182e-06 0)
(8.71839e-07 -3.38128e-06 0)
(1.12653e-06 -3.29037e-06 0)
(1.3847e-06 -3.18154e-06 0)
(1.6466e-06 -3.05761e-06 0)
(1.91169e-06 -2.9213e-06 0)
(2.18032e-06 -2.77573e-06 0)
(2.44988e-06 -2.62376e-06 0)
(1.20983e-07 -3.58283e-06 0)
(3.63402e-07 -3.55981e-06 0)
(6.07243e-07 -3.51446e-06 0)
(8.53196e-07 -3.44816e-06 0)
(1.1019e-06 -3.36268e-06 0)
(1.35367e-06 -3.26026e-06 0)
(1.60871e-06 -3.14351e-06 0)
(1.86646e-06 -3.01501e-06 0)
(2.12734e-06 -2.87749e-06 0)
(2.38886e-06 -2.73387e-06 0)
(1.18407e-07 -3.6417e-06 0)
(3.55678e-07 -3.62005e-06 0)
(5.94213e-07 -3.57732e-06 0)
(8.34674e-07 -3.51484e-06 0)
(1.07761e-06 -3.43425e-06 0)
(1.32331e-06 -3.33762e-06 0)
(1.57196e-06 -3.22737e-06 0)
(1.82301e-06 -3.10594e-06 0)
(2.07689e-06 -2.97576e-06 0)
(2.33126e-06 -2.83973e-06 0)
(1.15799e-07 -3.70105e-06 0)
(3.47843e-07 -3.68064e-06 0)
(5.81026e-07 -3.64028e-06 0)
(8.16028e-07 -3.58125e-06 0)
(1.05332e-06 -3.5051e-06 0)
(1.29316e-06 -3.41372e-06 0)
(1.53577e-06 -3.30937e-06 0)
(1.78059e-06 -3.19435e-06 0)
(2.02804e-06 -3.07086e-06 0)
(2.27599e-06 -2.94172e-06 0)
(1.13123e-07 -3.76075e-06 0)
(3.3978e-07 -3.74146e-06 0)
(5.67505e-07 -3.70326e-06 0)
(7.96996e-07 -3.64737e-06 0)
(1.02867e-06 -3.57525e-06 0)
(1.26279e-06 -3.48865e-06 0)
(1.49958e-06 -3.38966e-06 0)
(1.73852e-06 -3.28048e-06 0)
(1.97997e-06 -3.16309e-06 0)
(2.22208e-06 -3.04021e-06 0)
(1.10333e-07 -3.82058e-06 0)
(3.31379e-07 -3.80229e-06 0)
(5.53479e-07 -3.76609e-06 0)
(7.77323e-07 -3.71308e-06 0)
(1.00333e-06 -3.64463e-06 0)
(1.23176e-06 -3.56241e-06 0)
(1.46284e-06 -3.46833e-06 0)
(1.69612e-06 -3.36448e-06 0)
(1.9319e-06 -3.25268e-06 0)
(2.16858e-06 -3.13549e-06 0)
(1.07386e-07 -3.88038e-06 0)
(3.22538e-07 -3.86301e-06 0)
(5.38762e-07 -3.82866e-06 0)
(7.56747e-07 -3.7783e-06 0)
(9.76932e-07 -3.71325e-06 0)
(1.1996e-06 -3.63505e-06 0)
(1.42497e-06 -3.54549e-06 0)
(1.6527e-06 -3.44654e-06 0)
(1.88301e-06 -3.33987e-06 0)
(2.11452e-06 -3.22787e-06 0)
(1.04252e-07 -3.93982e-06 0)
(3.13152e-07 -3.9233e-06 0)
(5.23167e-07 -3.89068e-06 0)
(7.34991e-07 -3.84279e-06 0)
(9.49115e-07 -3.7809e-06 0)
(1.16584e-06 -3.70644e-06 0)
(1.38541e-06 -3.62108e-06 0)
(1.60758e-06 -3.52665e-06 0)
(1.83249e-06 -3.42472e-06 0)
(2.05902e-06 -3.31749e-06 0)
(1.00889e-07 -3.99881e-06 0)
(3.03082e-07 -3.98309e-06 0)
(5.06449e-07 -3.95209e-06 0)
(7.11711e-07 -3.90654e-06 0)
(9.19424e-07 -3.84762e-06 0)
(1.12992e-06 -3.77667e-06 0)
(1.34349e-06 -3.69525e-06 0)
(1.55996e-06 -3.60506e-06 0)
(1.77945e-06 -3.50754e-06 0)
(2.00102e-06 -3.40477e-06 0)
(9.72451e-08 -4.05669e-06 0)
(2.9217e-07 -4.04175e-06 0)
(4.88347e-07 -4.01229e-06 0)
(6.86542e-07 -3.96898e-06 0)
(8.87379e-07 -3.91289e-06 0)
(1.09125e-06 -3.8453e-06 0)
(1.29849e-06 -3.76762e-06 0)
(1.50899e-06 -3.68144e-06 0)
(1.7229e-06 -3.58811e-06 0)
(1.93948e-06 -3.48955e-06 0)
(9.32403e-08 -4.11375e-06 0)
(2.80178e-07 -4.09957e-06 0)
(4.68473e-07 -4.0716e-06 0)
(6.58951e-07 -4.03045e-06 0)
(8.52303e-07 -3.97713e-06 0)
(1.04901e-06 -3.91277e-06 0)
(1.24945e-06 -3.8387e-06 0)
(1.45363e-06 -3.75639e-06 0)
(1.66169e-06 -3.66709e-06 0)
(1.87311e-06 -3.57256e-06 0)
(8.88401e-08 -4.16824e-06 0)
(2.67016e-07 -4.15481e-06 0)
(4.46667e-07 -4.12833e-06 0)
(6.28689e-07 -4.08935e-06 0)
(8.13864e-07 -4.03878e-06 0)
(1.00277e-06 -3.97767e-06 0)
(1.19585e-06 -3.90721e-06 0)
(1.39326e-06 -3.82876e-06 0)
(1.59514e-06 -3.74351e-06 0)
(1.80118e-06 -3.65306e-06 0)
)


// ************************************************************************* //
