/*--------------------------------*- C++ -*----------------------------------*\
| =========                 |                                                 |
| \\      /  F ield         | foam-extend: Open Source CFD                    |
|  \\    /   O peration     | Version:     4.1                                |
|   \\  /    A nd           | Web:         http://www.foam-extend.org         |
|    \\/     M anipulation  |                                                 |
\*---------------------------------------------------------------------------*/
FoamFile
{
    version     2.0;
    format      ascii;
    class       vectorField;
    location    "7";
    object      solidsCellD_iteration3;
}
// * * * * * * * * * * * * * * * * * * * * * * * * * * * * * * * * * * * * * //


1000
(
(3.52566e-06 -1.45437e-06 0)
(3.33294e-06 -1.35569e-06 0)
(3.21064e-06 -1.29395e-06 0)
(3.14162e-06 -1.2662e-06 0)
(3.10926e-06 -1.25786e-06 0)
(3.10372e-06 -1.26458e-06 0)
(3.11791e-06 -1.28115e-06 0)
(3.14693e-06 -1.30514e-06 0)
(3.18677e-06 -1.33427e-06 0)
(3.23412e-06 -1.36772e-06 0)
(3.18893e-06 -1.58859e-06 0)
(2.98347e-06 -1.52072e-06 0)
(2.85296e-06 -1.47859e-06 0)
(2.77783e-06 -1.46422e-06 0)
(2.74066e-06 -1.4648e-06 0)
(2.73056e-06 -1.4779e-06 0)
(2.74021e-06 -1.4991e-06 0)
(2.76437e-06 -1.52649e-06 0)
(2.799e-06 -1.55839e-06 0)
(2.84074e-06 -1.59307e-06 0)
(2.8386e-06 -1.7158e-06 0)
(2.62857e-06 -1.68236e-06 0)
(2.49522e-06 -1.66202e-06 0)
(2.41722e-06 -1.66235e-06 0)
(2.3772e-06 -1.67257e-06 0)
(2.36385e-06 -1.69233e-06 0)
(2.36979e-06 -1.71815e-06 0)
(2.3898e-06 -1.74872e-06 0)
(2.41984e-06 -1.78302e-06 0)
(2.45683e-06 -1.81909e-06 0)
(2.47753e-06 -1.83371e-06 0)
(2.2717e-06 -1.83638e-06 0)
(2.14105e-06 -1.83887e-06 0)
(2.06378e-06 -1.85446e-06 0)
(2.02307e-06 -1.87464e-06 0)
(2.00785e-06 -1.90118e-06 0)
(2.01096e-06 -1.93156e-06 0)
(2.02733e-06 -1.96529e-06 0)
(2.05323e-06 -2.00192e-06 0)
(2.08553e-06 -2.03958e-06 0)
(2.10806e-06 -1.94003e-06 0)
(1.91528e-06 -1.97846e-06 0)
(1.79288e-06 -2.0036e-06 0)
(1.71995e-06 -2.03425e-06 0)
(1.68088e-06 -2.06414e-06 0)
(1.66518e-06 -2.09727e-06 0)
(1.66628e-06 -2.13207e-06 0)
(1.67939e-06 -2.16889e-06 0)
(1.70128e-06 -2.20774e-06 0)
(1.72888e-06 -2.24713e-06 0)
(1.73221e-06 -2.03255e-06 0)
(1.5609e-06 -2.10443e-06 0)
(1.45217e-06 -2.15074e-06 0)
(1.38705e-06 -2.19544e-06 0)
(1.35176e-06 -2.23444e-06 0)
(1.33684e-06 -2.27371e-06 0)
(1.33666e-06 -2.31257e-06 0)
(1.34691e-06 -2.35226e-06 0)
(1.36487e-06 -2.39315e-06 0)
(1.38763e-06 -2.43428e-06 0)
(1.35161e-06 -2.10923e-06 0)
(1.20952e-06 -2.2104e-06 0)
(1.11933e-06 -2.27529e-06 0)
(1.06509e-06 -2.33229e-06 0)
(1.03543e-06 -2.37921e-06 0)
(1.0225e-06 -2.42386e-06 0)
(1.02168e-06 -2.46627e-06 0)
(1.02936e-06 -2.50851e-06 0)
(1.04337e-06 -2.55119e-06 0)
(1.06118e-06 -2.59395e-06 0)
(9.67676e-07 -2.16835e-06 0)
(8.61257e-07 -2.29305e-06 0)
(7.93706e-07 -2.37286e-06 0)
(7.53e-07 -2.43971e-06 0)
(7.30565e-07 -2.493e-06 0)
(7.20573e-07 -2.54195e-06 0)
(7.19608e-07 -2.58722e-06 0)
(7.24937e-07 -2.63153e-06 0)
(7.34978e-07 -2.67563e-06 0)
(7.4774e-07 -2.71974e-06 0)
(5.81564e-07 -2.20854e-06 0)
(5.15697e-07 -2.34967e-06 0)
(4.73859e-07 -2.43992e-06 0)
(4.48555e-07 -2.5137e-06 0)
(4.34544e-07 -2.57145e-06 0)
(4.28261e-07 -2.62341e-06 0)
(4.27551e-07 -2.67069e-06 0)
(4.30665e-07 -2.71647e-06 0)
(4.36661e-07 -2.76162e-06 0)
(4.44321e-07 -2.80675e-06 0)
(1.94244e-07 -2.22878e-06 0)
(1.71882e-07 -2.37839e-06 0)
(1.57674e-07 -2.47404e-06 0)
(1.49098e-07 -2.55139e-06 0)
(1.44333e-07 -2.61143e-06 0)
(1.42143e-07 -2.66493e-06 0)
(1.41847e-07 -2.71324e-06 0)
(1.42867e-07 -2.75975e-06 0)
(1.44859e-07 -2.80541e-06 0)
(1.47397e-07 -2.85103e-06 0)
(5.49101e-06 -6.63654e-08 0)
(5.54029e-06 -4.79552e-08 0)
(5.57132e-06 -3.63147e-08 0)
(5.60532e-06 -2.95119e-08 0)
(5.64265e-06 -2.57816e-08 0)
(5.68826e-06 -2.41027e-08 0)
(5.74196e-06 -2.37924e-08 0)
(5.80425e-06 -2.44074e-08 0)
(5.87493e-06 -2.56739e-08 0)
(5.95311e-06 -2.71553e-08 0)
(5.45062e-06 -1.99071e-07 0)
(5.49181e-06 -1.44931e-07 0)
(5.51781e-06 -1.10789e-07 0)
(5.54844e-06 -9.08915e-08 0)
(5.58354e-06 -8.00117e-08 0)
(5.62755e-06 -7.51865e-08 0)
(5.68011e-06 -7.44104e-08 0)
(5.74149e-06 -7.63171e-08 0)
(5.81141e-06 -8.0112e-08 0)
(5.88874e-06 -8.45783e-08 0)
(5.36983e-06 -3.32933e-07 0)
(5.39568e-06 -2.46031e-07 0)
(5.412e-06 -1.91285e-07 0)
(5.43622e-06 -1.59467e-07 0)
(5.46709e-06 -1.42159e-07 0)
(5.50812e-06 -1.34617e-07 0)
(5.55849e-06 -1.33588e-07 0)
(5.61805e-06 -1.36882e-07 0)
(5.68648e-06 -1.43222e-07 0)
(5.76221e-06 -1.50705e-07 0)
(5.25014e-06 -4.68478e-07 0)
(5.25421e-06 -3.53564e-07 0)
(5.25668e-06 -2.81219e-07 0)
(5.2718e-06 -2.3937e-07 0)
(5.29661e-06 -2.16753e-07 0)
(5.3333e-06 -2.07147e-07 0)
(5.38053e-06 -2.06223e-07 0)
(5.43759e-06 -2.11099e-07 0)
(5.50391e-06 -2.2001e-07 0)
(5.57744e-06 -2.30522e-07 0)
(5.09333e-06 -6.0612e-07 0)
(5.07051e-06 -4.69489e-07 0)
(5.05587e-06 -3.83499e-07 0)
(5.05963e-06 -3.34118e-07 0)
(5.07696e-06 -3.07703e-07 0)
(5.10833e-06 -2.96937e-07 0)
(5.15166e-06 -2.96607e-07 0)
(5.20558e-06 -3.03292e-07 0)
(5.26927e-06 -3.14785e-07 0)
(5.34009e-06 -3.28331e-07 0)
(4.90181e-06 -7.45903e-07 0)
(4.84848e-06 -5.95055e-07 0)
(4.81449e-06 -5.00105e-07 0)
(4.80539e-06 -4.4616e-07 0)
(4.81422e-06 -4.17764e-07 0)
(4.83955e-06 -4.06919e-07 0)
(4.87842e-06 -4.0773e-07 0)
(4.92873e-06 -4.16466e-07 0)
(4.98938e-06 -4.30551e-07 0)
(5.05726e-06 -4.47133e-07 0)
(4.67826e-06 -8.87533e-07 0)
(4.59273e-06 -7.30762e-07 0)
(4.53835e-06 -6.32067e-07 0)
(4.51564e-06 -5.76843e-07 0)
(4.5154e-06 -5.48469e-07 0)
(4.53426e-06 -5.38731e-07 0)
(4.56832e-06 -5.41315e-07 0)
(4.61473e-06 -5.52406e-07 0)
(4.67205e-06 -5.69167e-07 0)
(4.7369e-06 -5.88787e-07 0)
(4.42567e-06 -1.03036e-06 0)
(4.30819e-06 -8.7627e-07 0)
(4.23355e-06 -7.7927e-07 0)
(4.19727e-06 -7.26166e-07 0)
(4.18789e-06 -6.99893e-07 0)
(4.20018e-06 -6.92502e-07 0)
(4.22929e-06 -6.97525e-07 0)
(4.27169e-06 -7.113e-07 0)
(4.32549e-06 -7.30798e-07 0)
(4.38733e-06 -7.53499e-07 0)
(4.14723e-06 -1.1734e-06 0)
(3.99999e-06 -1.0304e-06 0)
(3.9066e-06 -9.40431e-07 0)
(3.8576e-06 -8.92809e-07 0)
(3.83956e-06 -8.70697e-07 0)
(3.84546e-06 -8.66902e-07 0)
(3.8696e-06 -8.75106e-07 0)
(3.90792e-06 -8.91879e-07 0)
(3.95788e-06 -9.14352e-07 0)
(4.0167e-06 -9.40052e-07 0)
(3.84618e-06 -1.31526e-06 0)
(3.67326e-06 -1.1911e-06 0)
(3.56362e-06 -1.11313e-06 0)
(3.5035e-06 -1.07413e-06 0)
(3.47768e-06 -1.0581e-06 0)
(3.47753e-06 -1.05909e-06 0)
(3.49673e-06 -1.07117e-06 0)
(3.53084e-06 -1.09147e-06 0)
(3.57681e-06 -1.11716e-06 0)
(3.63223e-06 -1.14695e-06 0)
(6.03878e-06 -2.86342e-08 0)
(6.13212e-06 -2.90122e-08 0)
(6.23136e-06 -2.94429e-08 0)
(6.33613e-06 -2.97606e-08 0)
(6.44575e-06 -2.99334e-08 0)
(6.55985e-06 -2.99513e-08 0)
(6.67799e-06 -2.97954e-08 0)
(6.79969e-06 -2.94767e-08 0)
(6.92451e-06 -2.89748e-08 0)
(7.05206e-06 -2.82647e-08 0)
(7.18202e-06 -2.73198e-08 0)
(7.31399e-06 -2.61299e-08 0)
(7.44761e-06 -2.46849e-08 0)
(7.58248e-06 -2.29639e-08 0)
(7.71828e-06 -2.0931e-08 0)
(7.85448e-06 -1.85459e-08 0)
(7.99083e-06 -1.57599e-08 0)
(8.12643e-06 -1.25213e-08 0)
(8.26147e-06 -8.75232e-09 0)
(8.39384e-06 -4.43033e-09 0)
(5.97725e-06 -8.87509e-08 0)
(6.0757e-06 -8.95093e-08 0)
(6.17951e-06 -9.04445e-08 0)
(6.28826e-06 -9.10975e-08 0)
(6.4015e-06 -9.13636e-08 0)
(6.5188e-06 -9.12311e-08 0)
(6.6398e-06 -9.06135e-08 0)
(6.76408e-06 -8.95099e-08 0)
(6.89126e-06 -8.78515e-08 0)
(7.02099e-06 -8.55942e-08 0)
(7.15294e-06 -8.26806e-08 0)
(7.28676e-06 -7.90693e-08 0)
(7.42213e-06 -7.47035e-08 0)
(7.55865e-06 -6.95069e-08 0)
(7.696e-06 -6.33766e-08 0)
(7.83366e-06 -5.62018e-08 0)
(7.9714e-06 -4.78377e-08 0)
(8.10834e-06 -3.81319e-08 0)
(8.24473e-06 -2.68493e-08 0)
(8.37849e-06 -1.39084e-08 0)
(5.85622e-06 -1.56694e-07 0)
(5.96468e-06 -1.56684e-07 0)
(6.07753e-06 -1.57083e-07 0)
(6.19411e-06 -1.57284e-07 0)
(6.31433e-06 -1.56994e-07 0)
(6.43786e-06 -1.56202e-07 0)
(6.56452e-06 -1.54705e-07 0)
(6.69394e-06 -1.52476e-07 0)
(6.82578e-06 -1.49382e-07 0)
(6.95976e-06 -1.45358e-07 0)
(7.09565e-06 -1.4031e-07 0)
(7.23316e-06 -1.34151e-07 0)
(7.37198e-06 -1.26766e-07 0)
(7.51174e-06 -1.18018e-07 0)
(7.65214e-06 -1.07738e-07 0)
(7.79274e-06 -9.57394e-08 0)
(7.93329e-06 -8.17773e-08 0)
(8.07297e-06 -6.5608e-08 0)
(8.21203e-06 -4.68405e-08 0)
(8.3484e-06 -2.53241e-08 0)
(5.67933e-06 -2.36929e-07 0)
(5.80216e-06 -2.34352e-07 0)
(5.92804e-06 -2.32582e-07 0)
(6.05599e-06 -2.31102e-07 0)
(6.18648e-06 -2.29227e-07 0)
(6.31915e-06 -2.26953e-07 0)
(6.45405e-06 -2.23901e-07 0)
(6.59089e-06 -2.20002e-07 0)
(6.72956e-06 -2.15047e-07 0)
(6.86984e-06 -2.08927e-07 0)
(7.01156e-06 -2.01486e-07 0)
(7.15447e-06 -1.92576e-07 0)
(7.29832e-06 -1.82016e-07 0)
(7.44279e-06 -1.69607e-07 0)
(7.58766e-06 -1.55114e-07 0)
(7.73255e-06 -1.38262e-07 0)
(7.87723e-06 -1.18703e-07 0)
(8.02094e-06 -9.60967e-08 0)
(8.16394e-06 -6.98878e-08 0)
(8.30419e-06 -3.98574e-08 0)
(5.45177e-06 -3.33412e-07 0)
(5.59267e-06 -3.2599e-07 0)
(5.73516e-06 -3.19955e-07 0)
(5.8776e-06 -3.15182e-07 0)
(6.02122e-06 -3.1037e-07 0)
(6.16558e-06 -3.05525e-07 0)
(6.31113e-06 -3.0004e-07 0)
(6.4576e-06 -2.93767e-07 0)
(6.6051e-06 -2.86392e-07 0)
(6.75349e-06 -2.77726e-07 0)
(6.9027e-06 -2.67528e-07 0)
(7.05254e-06 -2.55576e-07 0)
(7.20287e-06 -2.41619e-07 0)
(7.35346e-06 -2.25393e-07 0)
(7.50417e-06 -2.06584e-07 0)
(7.65456e-06 -1.84825e-07 0)
(7.80459e-06 -1.59666e-07 0)
(7.95342e-06 -1.30659e-07 0)
(8.10151e-06 -9.70801e-08 0)
(8.24679e-06 -5.8623e-08 0)
(5.18011e-06 -4.48943e-07 0)
(5.34186e-06 -4.34058e-07 0)
(5.50378e-06 -4.2131e-07 0)
(5.66326e-06 -4.113e-07 0)
(5.82248e-06 -4.01947e-07 0)
(5.98082e-06 -3.93226e-07 0)
(6.13913e-06 -3.84261e-07 0)
(6.29718e-06 -3.74756e-07 0)
(6.45525e-06 -3.64268e-07 0)
(6.61334e-06 -3.52503e-07 0)
(6.77153e-06 -3.39122e-07 0)
(6.92974e-06 -3.2381e-07 0)
(7.08788e-06 -3.0623e-07 0)
(7.24583e-06 -2.86038e-07 0)
(7.4035e-06 -2.62821e-07 0)
(7.56051e-06 -2.36122e-07 0)
(7.71691e-06 -2.05385e-07 0)
(7.87192e-06 -1.70047e-07 0)
(8.02608e-06 -1.29204e-07 0)
(8.17743e-06 -8.24365e-08 0)
(4.87171e-06 -5.85387e-07 0)
(5.05624e-06 -5.60331e-07 0)
(5.23975e-06 -5.384e-07 0)
(5.41833e-06 -5.21071e-07 0)
(5.59508e-06 -5.05494e-07 0)
(5.76924e-06 -4.9147e-07 0)
(5.94191e-06 -4.77865e-07 0)
(6.11308e-06 -4.64173e-07 0)
(6.2832e-06 -4.49803e-07 0)
(6.4524e-06 -4.34307e-07 0)
(6.62087e-06 -4.17235e-07 0)
(6.78863e-06 -3.98164e-07 0)
(6.9557e-06 -3.7666e-07 0)
(7.12204e-06 -3.52285e-07 0)
(7.28762e-06 -3.24524e-07 0)
(7.45219e-06 -2.92824e-07 0)
(7.61588e-06 -2.56513e-07 0)
(7.77799e-06 -2.149e-07 0)
(7.9391e-06 -1.66895e-07 0)
(8.0974e-06 -1.11962e-07 0)
(4.53419e-06 -7.4306e-07 0)
(4.74248e-06 -7.04922e-07 0)
(4.9488e-06 -6.7138e-07 0)
(5.14798e-06 -6.44432e-07 0)
(5.34364e-06 -6.20827e-07 0)
(5.53511e-06 -5.99916e-07 0)
(5.72356e-06 -5.80405e-07 0)
(5.90921e-06 -5.615e-07 0)
(6.09263e-06 -5.42446e-07 0)
(6.27411e-06 -5.22599e-07 0)
(6.45393e-06 -5.01368e-07 0)
(6.63221e-06 -4.78198e-07 0)
(6.80908e-06 -4.52546e-07 0)
(6.98464e-06 -4.23861e-07 0)
(7.15894e-06 -3.91513e-07 0)
(7.33186e-06 -3.54842e-07 0)
(7.50358e-06 -3.13042e-07 0)
(7.67349e-06 -2.65288e-07 0)
(7.84225e-06 -2.10297e-07 0)
(8.00823e-06 -1.47427e-07 0)
(4.17558e-06 -9.21816e-07 0)
(4.40818e-06 -8.68006e-07 0)
(4.63763e-06 -8.21236e-07 0)
(4.8583e-06 -7.82678e-07 0)
(5.07362e-06 -7.49499e-07 0)
(5.28327e-06 -7.20262e-07 0)
(5.48837e-06 -6.93606e-07 0)
(5.68937e-06 -6.68412e-07 0)
(5.88692e-06 -6.43741e-07 0)
(6.08146e-06 -6.18757e-07 0)
(6.27338e-06 -5.92718e-07 0)
(6.46291e-06 -5.64935e-07 0)
(6.65031e-06 -5.34743e-07 0)
(6.83579e-06 -5.01468e-07 0)
(7.01945e-06 -4.64353e-07 0)
(7.20132e-06 -4.22621e-07 0)
(7.38163e-06 -3.75328e-07 0)
(7.55992e-06 -3.21505e-07 0)
(7.73688e-06 -2.597e-07 0)
(7.91117e-06 -1.89189e-07 0)
(3.80248e-06 -1.1191e-06 0)
(4.06013e-06 -1.04599e-06 0)
(4.31216e-06 -9.84295e-07 0)
(4.55503e-06 -9.32077e-07 0)
(4.79057e-06 -8.87503e-07 0)
(5.01914e-06 -8.48486e-07 0)
(5.2416e-06 -8.13518e-07 0)
(5.45862e-06 -7.8117e-07 0)
(5.67093e-06 -7.50245e-07 0)
(5.87911e-06 -7.19685e-07 0)
(6.08364e-06 -6.88555e-07 0)
(6.28489e-06 -6.56e-07 0)
(6.48324e-06 -6.21207e-07 0)
(6.679e-06 -5.83361e-07 0)
(6.87235e-06 -5.41575e-07 0)
(7.06348e-06 -4.94951e-07 0)
(7.25264e-06 -4.42406e-07 0)
(7.43956e-06 -3.82838e-07 0)
(7.625e-06 -3.14634e-07 0)
(7.80795e-06 -2.36946e-07 0)
(3.52292e-06 -1.30983e-06 0)
(3.79934e-06 -1.21984e-06 0)
(4.06563e-06 -1.14665e-06 0)
(4.32233e-06 -1.08349e-06 0)
(4.57057e-06 -1.02889e-06 0)
(4.81112e-06 -9.80736e-07 0)
(5.04482e-06 -9.37432e-07 0)
(5.27237e-06 -8.97494e-07 0)
(5.4945e-06 -8.59633e-07 0)
(5.71181e-06 -8.22704e-07 0)
(5.92479e-06 -7.85674e-07 0)
(6.13385e-06 -7.4759e-07 0)
(6.33945e-06 -7.07544e-07 0)
(6.54194e-06 -6.64628e-07 0)
(6.74155e-06 -6.17876e-07 0)
(6.93859e-06 -5.66319e-07 0)
(7.13332e-06 -5.08805e-07 0)
(7.32571e-06 -4.4419e-07 0)
(7.51648e-06 -3.70822e-07 0)
(7.70498e-06 -2.87799e-07 0)
(3.36403e-06 -1.46495e-06 0)
(3.64204e-06 -1.37108e-06 0)
(3.91082e-06 -1.29122e-06 0)
(4.1713e-06 -1.22111e-06 0)
(4.42376e-06 -1.15938e-06 0)
(4.66877e-06 -1.1042e-06 0)
(4.90695e-06 -1.05406e-06 0)
(5.13888e-06 -1.00754e-06 0)
(5.36519e-06 -9.6339e-07 0)
(5.5864e-06 -9.20487e-07 0)
(5.80297e-06 -8.77786e-07 0)
(6.01531e-06 -8.34319e-07 0)
(6.22389e-06 -7.89156e-07 0)
(6.42907e-06 -7.41368e-07 0)
(6.63107e-06 -6.89981e-07 0)
(6.83031e-06 -6.34022e-07 0)
(7.02704e-06 -5.72359e-07 0)
(7.22139e-06 -5.03885e-07 0)
(7.41405e-06 -4.27019e-07 0)
(7.60468e-06 -3.40856e-07 0)
(3.22911e-06 -1.61344e-06 0)
(3.50411e-06 -1.51756e-06 0)
(3.77234e-06 -1.43349e-06 0)
(4.03342e-06 -1.35809e-06 0)
(4.28751e-06 -1.29045e-06 0)
(4.53471e-06 -1.2291e-06 0)
(4.77547e-06 -1.1727e-06 0)
(5.01016e-06 -1.12e-06 0)
(5.23926e-06 -1.06984e-06 0)
(5.46322e-06 -1.02113e-06 0)
(5.68243e-06 -9.72856e-07 0)
(5.89725e-06 -9.24064e-07 0)
(6.10816e-06 -8.73829e-07 0)
(6.31549e-06 -8.21226e-07 0)
(6.51949e-06 -7.65295e-07 0)
(6.7206e-06 -7.05084e-07 0)
(6.91908e-06 -6.39502e-07 0)
(7.11521e-06 -5.67499e-07 0)
(7.30961e-06 -4.87568e-07 0)
(7.50222e-06 -3.98825e-07 0)
(3.11049e-06 -1.75609e-06 0)
(3.38132e-06 -1.65928e-06 0)
(3.64715e-06 -1.57223e-06 0)
(3.90695e-06 -1.49265e-06 0)
(4.16081e-06 -1.42002e-06 0)
(4.40851e-06 -1.35324e-06 0)
(4.65032e-06 -1.2912e-06 0)
(4.88642e-06 -1.23282e-06 0)
(5.11714e-06 -1.17703e-06 0)
(5.34285e-06 -1.12283e-06 0)
(5.56384e-06 -1.06925e-06 0)
(5.78043e-06 -1.01536e-06 0)
(5.99308e-06 -9.60283e-07 0)
(6.20208e-06 -9.031e-07 0)
(6.40769e-06 -8.42887e-07 0)
(6.61037e-06 -7.78729e-07 0)
(6.81037e-06 -7.09593e-07 0)
(7.00807e-06 -6.34486e-07 0)
(7.20405e-06 -5.51984e-07 0)
(7.39849e-06 -4.61307e-07 0)
(3.00599e-06 -1.89273e-06 0)
(3.27171e-06 -1.79572e-06 0)
(3.53386e-06 -1.70674e-06 0)
(3.79101e-06 -1.62405e-06 0)
(4.04322e-06 -1.54741e-06 0)
(4.29007e-06 -1.47605e-06 0)
(4.53167e-06 -1.40908e-06 0)
(4.768e-06 -1.34559e-06 0)
(4.99931e-06 -1.28465e-06 0)
(5.22585e-06 -1.22535e-06 0)
(5.44785e-06 -1.16678e-06 0)
(5.66556e-06 -1.10809e-06 0)
(5.8794e-06 -1.04843e-06 0)
(6.08962e-06 -9.86924e-07 0)
(6.29648e-06 -9.22699e-07 0)
(6.50044e-06 -8.54883e-07 0)
(6.70173e-06 -7.82512e-07 0)
(6.9008e-06 -7.04652e-07 0)
(7.09821e-06 -6.20008e-07 0)
(7.29431e-06 -5.27992e-07 0)
(2.913e-06 -2.02349e-06 0)
(3.17315e-06 -1.92686e-06 0)
(3.43087e-06 -1.83668e-06 0)
(3.68445e-06 -1.75167e-06 0)
(3.93401e-06 -1.67183e-06 0)
(4.17897e-06 -1.59663e-06 0)
(4.41934e-06 -1.5254e-06 0)
(4.65495e-06 -1.4574e-06 0)
(4.88597e-06 -1.39182e-06 0)
(5.11258e-06 -1.32787e-06 0)
(5.3349e-06 -1.26473e-06 0)
(5.55314e-06 -1.20159e-06 0)
(5.76768e-06 -1.13769e-06 0)
(5.9787e-06 -1.0722e-06 0)
(6.18647e-06 -1.00429e-06 0)
(6.39141e-06 -9.3315e-07 0)
(6.59376e-06 -8.57885e-07 0)
(6.79402e-06 -7.77646e-07 0)
(6.99268e-06 -6.91321e-07 0)
(7.19028e-06 -5.98497e-07 0)
(2.82958e-06 -2.1486e-06 0)
(3.0839e-06 -2.05274e-06 0)
(3.3367e-06 -1.96194e-06 0)
(3.5861e-06 -1.87529e-06 0)
(3.83229e-06 -1.79296e-06 0)
(4.07462e-06 -1.71462e-06 0)
(4.31298e-06 -1.63979e-06 0)
(4.54713e-06 -1.56786e-06 0)
(4.77717e-06 -1.49818e-06 0)
(5.00319e-06 -1.43006e-06 0)
(5.22526e-06 -1.36277e-06 0)
(5.44352e-06 -1.2956e-06 0)
(5.65832e-06 -1.22782e-06 0)
(5.86976e-06 -1.15868e-06 0)
(6.07812e-06 -1.08742e-06 0)
(6.28378e-06 -1.01327e-06 0)
(6.48698e-06 -9.35441e-07 0)
(6.68822e-06 -8.53186e-07 0)
(6.88799e-06 -7.65612e-07 0)
(7.08687e-06 -6.72345e-07 0)
(2.75398e-06 -2.26832e-06 0)
(3.00241e-06 -2.17351e-06 0)
(3.25002e-06 -2.08252e-06 0)
(3.49488e-06 -1.99477e-06 0)
(3.73723e-06 -1.91056e-06 0)
(3.97638e-06 -1.82967e-06 0)
(4.21216e-06 -1.75182e-06 0)
(4.44428e-06 -1.67653e-06 0)
(4.67278e-06 -1.60326e-06 0)
(4.89769e-06 -1.53146e-06 0)
(5.11903e-06 -1.46048e-06 0)
(5.33688e-06 -1.38968e-06 0)
(5.55155e-06 -1.31841e-06 0)
(5.76307e-06 -1.24598e-06 0)
(5.97174e-06 -1.1717e-06 0)
(6.17788e-06 -1.09488e-06 0)
(6.38171e-06 -1.01483e-06 0)
(6.58378e-06 -9.30931e-07 0)
(6.78448e-06 -8.42459e-07 0)
(6.98445e-06 -7.49002e-07 0)
(2.68467e-06 -2.38303e-06 0)
(2.92729e-06 -2.28943e-06 0)
(3.16957e-06 -2.19857e-06 0)
(3.4097e-06 -2.11015e-06 0)
(3.64791e-06 -2.02452e-06 0)
(3.88351e-06 -1.94161e-06 0)
(4.11631e-06 -1.86125e-06 0)
(4.34599e-06 -1.78311e-06 0)
(4.57253e-06 -1.70676e-06 0)
(4.79594e-06 -1.63175e-06 0)
(5.01616e-06 -1.55752e-06 0)
(5.23325e-06 -1.48352e-06 0)
(5.44746e-06 -1.40916e-06 0)
(5.65879e-06 -1.33381e-06 0)
(5.86751e-06 -1.25686e-06 0)
(6.07392e-06 -1.17771e-06 0)
(6.27822e-06 -1.09579e-06 0)
(6.48094e-06 -1.01058e-06 0)
(6.6824e-06 -9.21442e-07 0)
(6.88329e-06 -8.28055e-07 0)
(2.62027e-06 -2.4931e-06 0)
(2.8572e-06 -2.40079e-06 0)
(3.09418e-06 -2.31029e-06 0)
(3.32951e-06 -2.2215e-06 0)
(3.56342e-06 -2.13484e-06 0)
(3.79525e-06 -2.05033e-06 0)
(4.02483e-06 -1.96792e-06 0)
(4.25178e-06 -1.88741e-06 0)
(4.47608e-06 -1.80845e-06 0)
(4.69769e-06 -1.73069e-06 0)
(4.9165e-06 -1.65367e-06 0)
(5.13255e-06 -1.57689e-06 0)
(5.34604e-06 -1.49983e-06 0)
(5.55695e-06 -1.42193e-06 0)
(5.76552e-06 -1.34266e-06 0)
(5.97202e-06 -1.26153e-06 0)
(6.17663e-06 -1.17806e-06 0)
(6.37984e-06 -1.09179e-06 0)
(6.58191e-06 -1.00218e-06 0)
(6.78356e-06 -9.09131e-07 0)
(2.55958e-06 -2.59895e-06 0)
(2.79099e-06 -2.50794e-06 0)
(3.02276e-06 -2.41792e-06 0)
(3.2533e-06 -2.32897e-06 0)
(3.48286e-06 -2.24158e-06 0)
(3.71085e-06 -2.15585e-06 0)
(3.93705e-06 -2.07183e-06 0)
(4.16112e-06 -1.98938e-06 0)
(4.38299e-06 -1.90826e-06 0)
(4.60259e-06 -1.8282e-06 0)
(4.81979e-06 -1.74879e-06 0)
(5.0346e-06 -1.66962e-06 0)
(5.24717e-06 -1.59024e-06 0)
(5.45748e-06 -1.51014e-06 0)
(5.66575e-06 -1.42891e-06 0)
(5.8722e-06 -1.34612e-06 0)
(6.07698e-06 -1.26135e-06 0)
(6.28054e-06 -1.17423e-06 0)
(6.48309e-06 -1.08436e-06 0)
(6.68533e-06 -9.91782e-07 0)
(2.50152e-06 -2.70091e-06 0)
(2.72761e-06 -2.61115e-06 0)
(2.95428e-06 -2.52169e-06 0)
(3.18013e-06 -2.43277e-06 0)
(3.4054e-06 -2.34492e-06 0)
(3.62953e-06 -2.25829e-06 0)
(3.85233e-06 -2.173e-06 0)
(4.07343e-06 -2.089e-06 0)
(4.29276e-06 -2.00613e-06 0)
(4.51025e-06 -1.92415e-06 0)
(4.7257e-06 -1.84274e-06 0)
(4.93913e-06 -1.76155e-06 0)
(5.15067e-06 -1.68019e-06 0)
(5.36027e-06 -1.59826e-06 0)
(5.56811e-06 -1.51539e-06 0)
(5.77441e-06 -1.43123e-06 0)
(5.97924e-06 -1.34541e-06 0)
(6.18302e-06 -1.25763e-06 0)
(6.38594e-06 -1.16772e-06 0)
(6.58864e-06 -1.07564e-06 0)
(2.44508e-06 -2.79932e-06 0)
(2.66605e-06 -2.71071e-06 0)
(2.88781e-06 -2.62187e-06 0)
(3.10913e-06 -2.53312e-06 0)
(3.3302e-06 -2.44502e-06 0)
(3.55055e-06 -2.35776e-06 0)
(3.76998e-06 -2.27152e-06 0)
(3.98812e-06 -2.1863e-06 0)
(4.2049e-06 -2.10203e-06 0)
(4.42021e-06 -2.0185e-06 0)
(4.63387e-06 -1.93545e-06 0)
(4.84586e-06 -1.85261e-06 0)
(5.05631e-06 -1.76964e-06 0)
(5.26513e-06 -1.68622e-06 0)
(5.47248e-06 -1.60201e-06 0)
(5.67852e-06 -1.51672e-06 0)
(5.88329e-06 -1.43005e-06 0)
(6.08721e-06 -1.34183e-06 0)
(6.29039e-06 -1.252e-06 0)
(6.49343e-06 -1.16045e-06 0)
(2.38932e-06 -2.89442e-06 0)
(2.60541e-06 -2.80693e-06 0)
(2.82247e-06 -2.71873e-06 0)
(3.03944e-06 -2.63026e-06 0)
(3.25648e-06 -2.54207e-06 0)
(3.47318e-06 -2.45441e-06 0)
(3.68934e-06 -2.36751e-06 0)
(3.9046e-06 -2.28138e-06 0)
(4.11886e-06 -2.19604e-06 0)
(4.33203e-06 -2.1113e-06 0)
(4.5439e-06 -2.02696e-06 0)
(4.75446e-06 -1.94279e-06 0)
(4.96381e-06 -1.85853e-06 0)
(5.17182e-06 -1.77389e-06 0)
(5.37862e-06 -1.6886e-06 0)
(5.58434e-06 -1.6024e-06 0)
(5.78901e-06 -1.5151e-06 0)
(5.99299e-06 -1.42662e-06 0)
(6.19636e-06 -1.33685e-06 0)
(6.39962e-06 -1.24588e-06 0)
(2.33334e-06 -2.98657e-06 0)
(2.5448e-06 -2.9001e-06 0)
(2.7574e-06 -2.81255e-06 0)
(2.97023e-06 -2.72443e-06 0)
(3.18345e-06 -2.6363e-06 0)
(3.39671e-06 -2.54846e-06 0)
(3.60975e-06 -2.46115e-06 0)
(3.82226e-06 -2.37439e-06 0)
(4.03413e-06 -2.28823e-06 0)
(4.24524e-06 -2.20256e-06 0)
(4.45541e-06 -2.11724e-06 0)
(4.66461e-06 -2.03207e-06 0)
(4.87288e-06 -1.94683e-06 0)
(5.08008e-06 -1.86125e-06 0)
(5.2863e-06 -1.77512e-06 0)
(5.49167e-06 -1.68824e-06 0)
(5.69622e-06 -1.6005e-06 0)
(5.90022e-06 -1.51185e-06 0)
(6.1037e-06 -1.42219e-06 0)
(6.30708e-06 -1.33171e-06 0)
(2.27629e-06 -3.07599e-06 0)
(2.48335e-06 -2.99054e-06 0)
(2.6917e-06 -2.90354e-06 0)
(2.9007e-06 -2.81585e-06 0)
(3.11038e-06 -2.72795e-06 0)
(3.32043e-06 -2.6401e-06 0)
(3.53059e-06 -2.55257e-06 0)
(3.74054e-06 -2.46544e-06 0)
(3.95018e-06 -2.37874e-06 0)
(4.15942e-06 -2.29244e-06 0)
(4.36804e-06 -2.20641e-06 0)
(4.57596e-06 -2.1205e-06 0)
(4.7832e-06 -2.03451e-06 0)
(4.98961e-06 -1.94823e-06 0)
(5.19528e-06 -1.86147e-06 0)
(5.40034e-06 -1.77412e-06 0)
(5.60474e-06 -1.68609e-06 0)
(5.80869e-06 -1.59727e-06 0)
(6.01218e-06 -1.50777e-06 0)
(6.2156e-06 -1.41774e-06 0)
(2.21729e-06 -3.16295e-06 0)
(2.42004e-06 -3.07823e-06 0)
(2.62437e-06 -2.99202e-06 0)
(2.83e-06 -2.90493e-06 0)
(3.03646e-06 -2.81734e-06 0)
(3.24364e-06 -2.72962e-06 0)
(3.4512e-06 -2.64205e-06 0)
(3.65887e-06 -2.55474e-06 0)
(3.86657e-06 -2.46775e-06 0)
(4.07417e-06 -2.38106e-06 0)
(4.2814e-06 -2.29458e-06 0)
(4.48815e-06 -2.20817e-06 0)
(4.69444e-06 -2.12165e-06 0)
(4.90014e-06 -2.03488e-06 0)
(5.10536e-06 -1.94771e-06 0)
(5.31013e-06 -1.86004e-06 0)
(5.51431e-06 -1.77177e-06 0)
(5.71809e-06 -1.68284e-06 0)
(5.92158e-06 -1.5935e-06 0)
(6.12518e-06 -1.50383e-06 0)
(2.15492e-06 -3.24736e-06 0)
(2.35402e-06 -3.16352e-06 0)
(2.55504e-06 -3.07825e-06 0)
(2.75742e-06 -2.99177e-06 0)
(2.96104e-06 -2.90465e-06 0)
(3.16567e-06 -2.81723e-06 0)
(3.37102e-06 -2.72979e-06 0)
(3.5768e-06 -2.6425e-06 0)
(3.7829e-06 -2.55543e-06 0)
(3.98911e-06 -2.46856e-06 0)
(4.19512e-06 -2.38183e-06 0)
(4.40085e-06 -2.29511e-06 0)
(4.60639e-06 -2.2083e-06 0)
(4.81158e-06 -2.12123e-06 0)
(5.01634e-06 -2.03379e-06 0)
(5.22064e-06 -1.9459e-06 0)
(5.42457e-06 -1.85744e-06 0)
(5.62841e-06 -1.76853e-06 0)
(5.83186e-06 -1.67928e-06 0)
(6.03521e-06 -1.58986e-06 0)
(2.08838e-06 -3.33019e-06 0)
(2.28414e-06 -3.24735e-06 0)
(2.48212e-06 -3.16278e-06 0)
(2.68181e-06 -3.07697e-06 0)
(2.88309e-06 -2.99039e-06 0)
(3.08573e-06 -2.90341e-06 0)
(3.28945e-06 -2.81627e-06 0)
(3.49385e-06 -2.72915e-06 0)
(3.6987e-06 -2.64213e-06 0)
(3.90377e-06 -2.55523e-06 0)
(4.10889e-06 -2.46841e-06 0)
(4.31401e-06 -2.38156e-06 0)
(4.51897e-06 -2.29457e-06 0)
(4.72349e-06 -2.20733e-06 0)
(4.92778e-06 -2.11973e-06 0)
(5.1319e-06 -2.03168e-06 0)
(5.33562e-06 -1.94313e-06 0)
(5.53922e-06 -1.85421e-06 0)
(5.74263e-06 -1.76499e-06 0)
(5.94593e-06 -1.67575e-06 0)
(2.01675e-06 -3.41067e-06 0)
(2.20955e-06 -3.329e-06 0)
(2.40497e-06 -3.24547e-06 0)
(2.60255e-06 -3.16053e-06 0)
(2.80219e-06 -3.07469e-06 0)
(3.00357e-06 -2.98831e-06 0)
(3.20618e-06 -2.90162e-06 0)
(3.40956e-06 -2.81482e-06 0)
(3.61361e-06 -2.72801e-06 0)
(3.81817e-06 -2.64123e-06 0)
(4.0228e-06 -2.55444e-06 0)
(4.2273e-06 -2.46756e-06 0)
(4.43176e-06 -2.3805e-06 0)
(4.63596e-06 -2.29317e-06 0)
(4.83983e-06 -2.20548e-06 0)
(5.04358e-06 -2.11734e-06 0)
(5.24708e-06 -2.02881e-06 0)
(5.45047e-06 -1.93981e-06 0)
(5.65381e-06 -1.85061e-06 0)
(5.85689e-06 -1.76137e-06 0)
(1.47037e-07 -2.89764e-06 0)
(4.42998e-07 -2.8555e-06 0)
(7.44648e-07 -2.7726e-06 0)
(1.05512e-06 -2.65264e-06 0)
(1.37702e-06 -2.49994e-06 0)
(1.71202e-06 -2.32039e-06 0)
(2.06073e-06 -2.12047e-06 0)
(2.42259e-06 -1.90699e-06 0)
(2.79638e-06 -1.68684e-06 0)
(3.17928e-06 -1.4655e-06 0)
(1.4329e-07 -2.94623e-06 0)
(4.31438e-07 -2.90782e-06 0)
(7.2428e-07 -2.83209e-06 0)
(1.0244e-06 -2.72232e-06 0)
(1.33397e-06 -2.58211e-06 0)
(1.6544e-06 -2.41647e-06 0)
(1.98617e-06 -2.23094e-06 0)
(2.32874e-06 -2.03138e-06 0)
(2.68025e-06 -1.82418e-06 0)
(3.03872e-06 -1.61385e-06 0)
(1.3993e-07 -2.99631e-06 0)
(4.21054e-07 -2.96128e-06 0)
(7.05915e-07 -2.89205e-06 0)
(9.96601e-07 -2.79159e-06 0)
(1.29487e-06 -2.66297e-06 0)
(1.60189e-06 -2.51045e-06 0)
(1.91809e-06 -2.33885e-06 0)
(2.24339e-06 -2.15303e-06 0)
(2.57629e-06 -1.95866e-06 0)
(2.91574e-06 -1.75846e-06 0)
(1.36871e-07 -3.04784e-06 0)
(4.1168e-07 -3.01567e-06 0)
(6.89513e-07 -2.95197e-06 0)
(9.72088e-07 -2.85942e-06 0)
(1.26084e-06 -2.74069e-06 0)
(1.55666e-06 -2.59947e-06 0)
(1.85986e-06 -2.44008e-06 0)
(2.17034e-06 -2.26677e-06 0)
(2.48682e-06 -2.08487e-06 0)
(2.80839e-06 -1.89634e-06 0)
(1.34023e-07 -3.10072e-06 0)
(4.02912e-07 -3.0711e-06 0)
(6.7428e-07 -3.01233e-06 0)
(9.49476e-07 -2.92684e-06 0)
(1.22969e-06 -2.81706e-06 0)
(1.51562e-06 -2.68615e-06 0)
(1.80754e-06 -2.53801e-06 0)
(2.10537e-06 -2.37629e-06 0)
(2.40815e-06 -2.20581e-06 0)
(2.71445e-06 -2.0283e-06 0)
(1.31365e-07 -3.15486e-06 0)
(3.94718e-07 -3.12742e-06 0)
(6.60135e-07 -3.07296e-06 0)
(9.28668e-07 -2.99361e-06 0)
(1.2013e-06 -2.89164e-06 0)
(1.47859e-06 -2.76984e-06 0)
(1.76069e-06 -2.63177e-06 0)
(2.04744e-06 -2.4807e-06 0)
(2.33828e-06 -2.32092e-06 0)
(2.63131e-06 -2.15424e-06 0)
(1.2878e-07 -3.21015e-06 0)
(3.86861e-07 -3.18464e-06 0)
(6.46644e-07 -3.13403e-06 0)
(9.08978e-07 -3.06015e-06 0)
(1.1747e-06 -2.96517e-06 0)
(1.44425e-06 -2.85159e-06 0)
(1.71775e-06 -2.72261e-06 0)
(1.99487e-06 -2.5812e-06 0)
(2.27541e-06 -2.43116e-06 0)
(2.55706e-06 -2.2745e-06 0)
(1.26263e-07 -3.26647e-06 0)
(3.79265e-07 -3.24262e-06 0)
(6.33662e-07 -3.19544e-06 0)
(8.90183e-07 -3.12638e-06 0)
(1.14957e-06 -3.03761e-06 0)
(1.4121e-06 -2.93138e-06 0)
(1.67791e-06 -2.81058e-06 0)
(1.94653e-06 -2.67795e-06 0)
(2.21804e-06 -2.53683e-06 0)
(2.48992e-06 -2.38946e-06 0)
(1.23819e-07 -3.3237e-06 0)
(3.71809e-07 -3.30133e-06 0)
(6.20965e-07 -3.2572e-06 0)
(8.71947e-07 -3.19249e-06 0)
(1.12539e-06 -3.10928e-06 0)
(1.38148e-06 -3.00965e-06 0)
(1.64035e-06 -2.89621e-06 0)
(1.90142e-06 -2.77149e-06 0)
(2.16495e-06 -2.63849e-06 0)
(2.42839e-06 -2.49959e-06 0)
(1.21394e-07 -3.38171e-06 0)
(3.64389e-07 -3.36063e-06 0)
(6.08409e-07 -3.31921e-06 0)
(8.54057e-07 -3.25842e-06 0)
(1.10183e-06 -3.1802e-06 0)
(1.35193e-06 -3.08649e-06 0)
(1.60443e-06 -2.97968e-06 0)
(1.8587e-06 -2.86214e-06 0)
(2.11509e-06 -2.73655e-06 0)
(2.37115e-06 -2.60537e-06 0)
(1.18918e-07 -3.44033e-06 0)
(3.56913e-07 -3.42041e-06 0)
(5.95847e-07 -3.38143e-06 0)
(8.36266e-07 -3.32419e-06 0)
(1.07858e-06 -3.25049e-06 0)
(1.32297e-06 -3.16212e-06 0)
(1.56954e-06 -3.0613e-06 0)
(1.81759e-06 -2.95028e-06 0)
(2.06751e-06 -2.83143e-06 0)
(2.31704e-06 -2.70721e-06 0)
(1.16379e-07 -3.49938e-06 0)
(3.4934e-07 -3.48052e-06 0)
(5.83176e-07 -3.44376e-06 0)
(8.18372e-07 -3.38974e-06 0)
(1.05534e-06 -3.32013e-06 0)
(1.29422e-06 -3.23659e-06 0)
(1.53514e-06 -3.14121e-06 0)
(1.77742e-06 -3.03612e-06 0)
(2.02139e-06 -2.92337e-06 0)
(2.26504e-06 -2.80544e-06 0)
(1.13791e-07 -3.55871e-06 0)
(3.41611e-07 -3.54086e-06 0)
(5.70251e-07 -3.50611e-06 0)
(8.00158e-07 -3.45502e-06 0)
(1.03179e-06 -3.38913e-06 0)
(1.26528e-06 -3.31e-06 0)
(1.50074e-06 -3.21957e-06 0)
(1.73753e-06 -3.11983e-06 0)
(1.97595e-06 -3.01263e-06 0)
(2.21426e-06 -2.90042e-06 0)
(1.11133e-07 -3.61815e-06 0)
(3.33618e-07 -3.60123e-06 0)
(5.56892e-07 -3.56831e-06 0)
(7.81399e-07 -3.51991e-06 0)
(1.00765e-06 -3.45742e-06 0)
(1.23575e-06 -3.38233e-06 0)
(1.46584e-06 -3.29644e-06 0)
(1.69733e-06 -3.20156e-06 0)
(1.93048e-06 -3.09945e-06 0)
(2.1638e-06 -2.99243e-06 0)
(1.08347e-07 -3.67755e-06 0)
(3.25224e-07 -3.66151e-06 0)
(5.42901e-07 -3.63026e-06 0)
(7.61839e-07 -3.58435e-06 0)
(9.82562e-07 -3.525e-06 0)
(1.20521e-06 -3.45365e-06 0)
(1.42991e-06 -3.37188e-06 0)
(1.65619e-06 -3.28146e-06 0)
(1.88425e-06 -3.18405e-06 0)
(2.11282e-06 -3.08174e-06 0)
(1.05377e-07 -3.7366e-06 0)
(3.16313e-07 -3.7214e-06 0)
(5.28097e-07 -3.69171e-06 0)
(7.41211e-07 -3.64811e-06 0)
(9.56187e-07 -3.59167e-06 0)
(1.17321e-06 -3.52376e-06 0)
(1.39244e-06 -3.44581e-06 0)
(1.61351e-06 -3.35955e-06 0)
(1.83656e-06 -3.26647e-06 0)
(2.06052e-06 -3.16848e-06 0)
(1.02185e-07 -3.79522e-06 0)
(3.0677e-07 -3.78084e-06 0)
(5.12273e-07 -3.75261e-06 0)
(7.19208e-07 -3.71115e-06 0)
(9.2812e-07 -3.65746e-06 0)
(1.13927e-06 -3.59277e-06 0)
(1.35285e-06 -3.51843e-06 0)
(1.56858e-06 -3.43608e-06 0)
(1.78658e-06 -3.34696e-06 0)
(2.00596e-06 -3.25301e-06 0)
(9.87406e-08 -3.8528e-06 0)
(2.96483e-07 -3.83919e-06 0)
(4.95222e-07 -3.81235e-06 0)
(6.95521e-07 -3.77294e-06 0)
(8.97964e-07 -3.72184e-06 0)
(1.10288e-06 -3.66021e-06 0)
(1.31051e-06 -3.58932e-06 0)
(1.52067e-06 -3.51065e-06 0)
(1.73343e-06 -3.42533e-06 0)
(1.94816e-06 -3.33515e-06 0)
(9.49867e-08 -3.90963e-06 0)
(2.8526e-07 -3.89675e-06 0)
(4.76611e-07 -3.87127e-06 0)
(6.6968e-07 -3.83383e-06 0)
(8.65103e-07 -3.78524e-06 0)
(1.0633e-06 -3.72658e-06 0)
(1.26455e-06 -3.65903e-06 0)
(1.46876e-06 -3.58384e-06 0)
(1.67601e-06 -3.50221e-06 0)
(1.88592e-06 -3.41563e-06 0)
(9.0893e-08 -3.96403e-06 0)
(2.73009e-07 -3.95183e-06 0)
(4.56277e-07 -3.92771e-06 0)
(6.41456e-07 -3.89222e-06 0)
(8.29257e-07 -3.84614e-06 0)
(1.02015e-06 -3.79044e-06 0)
(1.21446e-06 -3.72619e-06 0)
(1.41222e-06 -3.65454e-06 0)
(1.61362e-06 -3.57659e-06 0)
(1.81848e-06 -3.49366e-06 0)
)


// ************************************************************************* //
