/*--------------------------------*- C++ -*----------------------------------*\
| =========                 |                                                 |
| \\      /  F ield         | foam-extend: Open Source CFD                    |
|  \\    /   O peration     | Version:     4.1                                |
|   \\  /    A nd           | Web:         http://www.foam-extend.org         |
|    \\/     M anipulation  |                                                 |
\*---------------------------------------------------------------------------*/
FoamFile
{
    version     2.0;
    format      ascii;
    class       volVectorField;
    location    "1";
    object      D_predicted;
}
// * * * * * * * * * * * * * * * * * * * * * * * * * * * * * * * * * * * * * //

dimensions      [0 1 0 0 0 0 0];

internalField   nonuniform List<vector> 
100000
(
(5.86646e-07 -1.20923e-07 -0.0410771)
(5.84696e-07 -1.19213e-07 -0.0354845)
(5.82515e-07 -1.17688e-07 -0.0297818)
(5.80493e-07 -1.16105e-07 -0.0251724)
(5.78726e-07 -1.14815e-07 -0.0217264)
(5.76697e-07 -1.13342e-07 -0.019087)
(5.74852e-07 -1.11855e-07 -0.0166232)
(5.73106e-07 -1.10409e-07 -0.0142725)
(5.71469e-07 -1.08754e-07 -0.0117517)
(5.6962e-07 -1.07076e-07 -0.00882687)
(5.67736e-07 -1.05629e-07 -0.00645946)
(5.65909e-07 -1.04362e-07 -0.00446629)
(5.64354e-07 -1.03213e-07 -0.00258597)
(5.629e-07 -1.02129e-07 -0.000802882)
(5.61554e-07 -1.01079e-07 0.000754427)
(5.60316e-07 -9.9986e-08 0.00213302)
(5.59107e-07 -9.88877e-08 0.00338749)
(5.57865e-07 -9.78257e-08 0.0042502)
(5.56662e-07 -9.68347e-08 0.00473098)
(5.553e-07 -9.61708e-08 0.00456118)
(5.5401e-07 -9.55907e-08 0.00433205)
(5.52804e-07 -9.50426e-08 0.00434848)
(5.5169e-07 -9.45256e-08 0.00439382)
(5.50653e-07 -9.40622e-08 0.00443513)
(5.49676e-07 -9.36642e-08 0.00447293)
(5.48788e-07 -9.33248e-08 0.0046803)
(5.47954e-07 -9.30512e-08 0.00497961)
(5.4718e-07 -9.28344e-08 0.00525682)
(5.46464e-07 -9.26693e-08 0.00551284)
(5.45791e-07 -9.25573e-08 0.00574846)
(5.45172e-07 -9.25001e-08 0.00596455)
(5.44526e-07 -9.24962e-08 0.00549655)
(5.43934e-07 -9.25383e-08 0.00507506)
(5.43408e-07 -9.26711e-08 0.00487076)
(5.42934e-07 -9.28307e-08 0.00467826)
(5.42516e-07 -9.3026e-08 0.00449702)
(5.42155e-07 -9.3259e-08 0.00432695)
(5.41844e-07 -9.35261e-08 0.00416786)
(5.4158e-07 -9.38196e-08 0.0040194)
(5.41359e-07 -9.41391e-08 0.00388126)
(5.41182e-07 -9.44864e-08 0.0037533)
(5.41048e-07 -9.48606e-08 0.0036353)
(5.40958e-07 -9.52605e-08 0.00352695)
(5.4091e-07 -9.56853e-08 0.00342817)
(5.40899e-07 -9.61357e-08 0.00333893)
(5.40928e-07 -9.65971e-08 0.00326029)
(5.4099e-07 -9.70847e-08 0.00319052)
(5.41085e-07 -9.75962e-08 0.00312947)
(5.41211e-07 -9.81314e-08 0.00307703)
(5.41367e-07 -9.86892e-08 0.00303293)
(5.41553e-07 -9.92684e-08 0.00299708)
(5.41768e-07 -9.98684e-08 0.00296936)
(5.42012e-07 -1.00489e-07 0.00294965)
(5.42281e-07 -1.01129e-07 0.00293773)
(5.42578e-07 -1.01791e-07 0.0029335)
(5.42902e-07 -1.02469e-07 0.00293694)
(5.43252e-07 -1.03162e-07 0.00294776)
(5.43622e-07 -1.03869e-07 0.00296588)
(5.44012e-07 -1.04591e-07 0.00299111)
(5.44422e-07 -1.05329e-07 0.00302341)
(5.44852e-07 -1.06085e-07 0.00306252)
(5.45301e-07 -1.06855e-07 0.00310827)
(5.4577e-07 -1.07655e-07 0.00323122)
(5.46258e-07 -1.08484e-07 0.00344754)
(5.46766e-07 -1.09325e-07 0.0036769)
(5.47294e-07 -1.10177e-07 0.0039189)
(5.47839e-07 -1.11039e-07 0.00417327)
(5.48398e-07 -1.1191e-07 0.00443983)
(5.4897e-07 -1.12792e-07 0.00471815)
(5.49552e-07 -1.13687e-07 0.00500795)
(5.50097e-07 -1.14595e-07 0.00489024)
(5.50653e-07 -1.15519e-07 0.00472109)
(5.51269e-07 -1.16458e-07 0.0046945)
(5.51903e-07 -1.17421e-07 0.00466386)
(5.52561e-07 -1.18402e-07 0.00469056)
(5.53238e-07 -1.1939e-07 0.0047532)
(5.53928e-07 -1.20383e-07 0.00481752)
(5.54629e-07 -1.21382e-07 0.0048835)
(5.55344e-07 -1.2239e-07 0.004951)
(5.5608e-07 -1.23406e-07 0.00501999)
(5.5684e-07 -1.24423e-07 0.00509056)
(5.57629e-07 -1.25433e-07 0.00516271)
(5.58433e-07 -1.26444e-07 0.00523641)
(5.59251e-07 -1.27463e-07 0.00531166)
(5.60011e-07 -1.28507e-07 0.00518867)
(5.60732e-07 -1.29541e-07 0.00507677)
(5.61393e-07 -1.30652e-07 0.00476538)
(5.62035e-07 -1.31809e-07 0.00432444)
(5.62676e-07 -1.32979e-07 0.00383057)
(5.63302e-07 -1.34164e-07 0.0032723)
(5.63937e-07 -1.35359e-07 0.00270917)
(5.64588e-07 -1.36551e-07 0.00214028)
(5.65275e-07 -1.37735e-07 0.00155859)
(5.6599e-07 -1.38931e-07 0.000926377)
(5.6665e-07 -1.40133e-07 0.000182292)
(5.67323e-07 -1.41357e-07 -0.000564383)
(5.68009e-07 -1.42608e-07 -0.00131462)
(5.68703e-07 -1.43883e-07 -0.00206102)
(5.69394e-07 -1.45196e-07 -0.00281281)
(5.70027e-07 -1.46578e-07 -0.00353534)
(5.82696e-07 -1.21602e-07 -0.0441875)
(5.80968e-07 -1.20343e-07 -0.0390898)
(5.78874e-07 -1.18873e-07 -0.0333179)
(5.76574e-07 -1.17196e-07 -0.0285356)
(5.74645e-07 -1.15891e-07 -0.0250527)
(5.72845e-07 -1.14566e-07 -0.022117)
(5.71023e-07 -1.13097e-07 -0.0195924)
(5.68923e-07 -1.11743e-07 -0.0172482)
(5.66858e-07 -1.10527e-07 -0.0155302)
(5.64821e-07 -1.09158e-07 -0.0132437)
(5.62955e-07 -1.07717e-07 -0.0105514)
(5.61399e-07 -1.06347e-07 -0.00796773)
(5.59881e-07 -1.05167e-07 -0.00581333)
(5.58445e-07 -1.04056e-07 -0.00378755)
(5.57089e-07 -1.0302e-07 -0.00187527)
(5.55805e-07 -1.02034e-07 -9.03802e-05)
(5.54477e-07 -1.01037e-07 0.000852215)
(5.53099e-07 -1.00027e-07 0.00141672)
(5.51852e-07 -9.9051e-08 0.00193529)
(5.50708e-07 -9.81374e-08 0.00242099)
(5.49672e-07 -9.72777e-08 0.00289434)
(5.48469e-07 -9.66482e-08 0.00297553)
(5.47301e-07 -9.61399e-08 0.00287644)
(5.46228e-07 -9.57168e-08 0.00274185)
(5.45243e-07 -9.53634e-08 0.00261632)
(5.44389e-07 -9.50619e-08 0.0027522)
(5.4363e-07 -9.48173e-08 0.00304389)
(5.4293e-07 -9.46097e-08 0.00331605)
(5.42196e-07 -9.44571e-08 0.00289133)
(5.415e-07 -9.43637e-08 0.00235087)
(5.40854e-07 -9.43338e-08 0.00184499)
(5.40262e-07 -9.43532e-08 0.00136877)
(5.39722e-07 -9.44213e-08 0.000920971)
(5.39245e-07 -9.4525e-08 0.000505559)
(5.38834e-07 -9.46554e-08 0.00012322)
(5.38463e-07 -9.48237e-08 -0.000229736)
(5.38137e-07 -9.50295e-08 -0.000553058)
(5.37855e-07 -9.52696e-08 -0.000838843)
(5.37617e-07 -9.55619e-08 -0.000998494)
(5.3742e-07 -9.58797e-08 -0.00114739)
(5.37264e-07 -9.62263e-08 -0.00128572)
(5.37148e-07 -9.6601e-08 -0.00141382)
(5.37076e-07 -9.70007e-08 -0.0015326)
(5.37014e-07 -9.74305e-08 -0.00168405)
(5.36995e-07 -9.78866e-08 -0.00181808)
(5.37016e-07 -9.83681e-08 -0.00192836)
(5.37074e-07 -9.8872e-08 -0.00202305)
(5.37167e-07 -9.93966e-08 -0.00210407)
(5.37293e-07 -9.99416e-08 -0.00217167)
(5.37451e-07 -1.00507e-07 -0.00222628)
(5.37642e-07 -1.01092e-07 -0.00226781)
(5.37864e-07 -1.01694e-07 -0.00229669)
(5.38114e-07 -1.02316e-07 -0.00231171)
(5.38394e-07 -1.02956e-07 -0.00230589)
(5.38699e-07 -1.03613e-07 -0.00228717)
(5.39028e-07 -1.04308e-07 -0.00221037)
(5.39365e-07 -1.05026e-07 -0.00211791)
(5.39711e-07 -1.05763e-07 -0.00202372)
(5.40075e-07 -1.06519e-07 -0.00191501)
(5.40457e-07 -1.07295e-07 -0.00179213)
(5.40856e-07 -1.08089e-07 -0.00165553)
(5.41271e-07 -1.08898e-07 -0.00150749)
(5.41696e-07 -1.09721e-07 -0.00135017)
(5.42139e-07 -1.10559e-07 -0.00118056)
(5.42605e-07 -1.1141e-07 -0.000998797)
(5.43082e-07 -1.12276e-07 -0.000799716)
(5.43572e-07 -1.13153e-07 -0.000588889)
(5.44075e-07 -1.14042e-07 -0.000366406)
(5.44594e-07 -1.14941e-07 -0.00013279)
(5.45118e-07 -1.15851e-07 0.000111641)
(5.45721e-07 -1.16767e-07 0.000541893)
(5.46351e-07 -1.17697e-07 0.00102123)
(5.46998e-07 -1.18643e-07 0.00151573)
(5.47666e-07 -1.19607e-07 0.0020248)
(5.48361e-07 -1.20582e-07 0.00254813)
(5.49048e-07 -1.21557e-07 0.00284508)
(5.49717e-07 -1.22533e-07 0.00290834)
(5.50395e-07 -1.23517e-07 0.00297332)
(5.51083e-07 -1.24516e-07 0.00303991)
(5.51787e-07 -1.25524e-07 0.00310812)
(5.5247e-07 -1.26562e-07 0.00307389)
(5.53089e-07 -1.27668e-07 0.00284038)
(5.53729e-07 -1.2878e-07 0.00260442)
(5.54374e-07 -1.2991e-07 0.00236621)
(5.54986e-07 -1.31036e-07 0.00214233)
(5.55601e-07 -1.32162e-07 0.00190234)
(5.56241e-07 -1.33286e-07 0.0016457)
(5.56892e-07 -1.34407e-07 0.00127031)
(5.57518e-07 -1.35532e-07 0.000630248)
(5.58169e-07 -1.36672e-07 -1.48891e-05)
(5.5884e-07 -1.37832e-07 -0.000664684)
(5.59539e-07 -1.3901e-07 -0.00131899)
(5.60197e-07 -1.40198e-07 -0.00206017)
(5.60833e-07 -1.41399e-07 -0.00284923)
(5.6148e-07 -1.42622e-07 -0.00364089)
(5.62134e-07 -1.43871e-07 -0.0044373)
(5.62799e-07 -1.45143e-07 -0.00523306)
(5.63445e-07 -1.46477e-07 -0.00616122)
(5.64085e-07 -1.47857e-07 -0.00711825)
(5.64711e-07 -1.49278e-07 -0.00806611)
(5.79161e-07 -1.22334e-07 -0.0470521)
(5.7723e-07 -1.2115e-07 -0.0417428)
(5.74958e-07 -1.2008e-07 -0.0366037)
(5.72474e-07 -1.18401e-07 -0.0317368)
(5.7091e-07 -1.17146e-07 -0.028547)
(5.69007e-07 -1.15913e-07 -0.0253257)
(5.66529e-07 -1.14589e-07 -0.0230416)
(5.6424e-07 -1.13331e-07 -0.020821)
(5.62155e-07 -1.12134e-07 -0.0186375)
(5.60286e-07 -1.11026e-07 -0.0171354)
(5.58505e-07 -1.09717e-07 -0.0146551)
(5.56876e-07 -1.08412e-07 -0.011916)
(5.55402e-07 -1.07193e-07 -0.00932878)
(5.54042e-07 -1.06011e-07 -0.00688242)
(5.52656e-07 -1.04926e-07 -0.00496491)
(5.51192e-07 -1.0397e-07 -0.00369826)
(5.49831e-07 -1.0304e-07 -0.00255418)
(5.485e-07 -1.02135e-07 -0.00165093)
(5.47238e-07 -1.01213e-07 -0.0011517)
(5.46096e-07 -1.00334e-07 -0.00069137)
(5.4506e-07 -9.94947e-08 -0.000254628)
(5.44047e-07 -9.86802e-08 0.000230985)
(5.43148e-07 -9.79577e-08 0.000684817)
(5.42303e-07 -9.73412e-08 0.00105148)
(5.41347e-07 -9.69881e-08 0.000962513)
(5.40427e-07 -9.67296e-08 0.000395995)
(5.3959e-07 -9.6557e-08 -0.000422323)
(5.38704e-07 -9.6464e-08 -0.00126547)
(5.37869e-07 -9.64125e-08 -0.00206448)
(5.37085e-07 -9.64175e-08 -0.00281526)
(5.36359e-07 -9.64769e-08 -0.00351958)
(5.35691e-07 -9.65808e-08 -0.00417895)
(5.35095e-07 -9.67217e-08 -0.00479374)
(5.34441e-07 -9.69161e-08 -0.0050049)
(5.33877e-07 -9.71356e-08 -0.00518597)
(5.33371e-07 -9.73889e-08 -0.00535844)
(5.32923e-07 -9.76723e-08 -0.00552236)
(5.32533e-07 -9.79802e-08 -0.00567808)
(5.32198e-07 -9.83113e-08 -0.00582579)
(5.31915e-07 -9.86691e-08 -0.00596562)
(5.31682e-07 -9.90539e-08 -0.00609784)
(5.31501e-07 -9.94635e-08 -0.00622261)
(5.3137e-07 -9.98964e-08 -0.00634012)
(5.31288e-07 -1.00354e-07 -0.00645174)
(5.31254e-07 -1.00837e-07 -0.00655731)
(5.31261e-07 -1.01344e-07 -0.006656)
(5.31308e-07 -1.01873e-07 -0.00674798)
(5.31378e-07 -1.02434e-07 -0.0067699)
(5.31486e-07 -1.03016e-07 -0.00678363)
(5.31632e-07 -1.0362e-07 -0.00679316)
(5.31818e-07 -1.04243e-07 -0.00679863)
(5.3204e-07 -1.04884e-07 -0.00680015)
(5.32298e-07 -1.05542e-07 -0.00680467)
(5.3259e-07 -1.06216e-07 -0.00682381)
(5.32912e-07 -1.06904e-07 -0.00684114)
(5.33262e-07 -1.07604e-07 -0.00685682)
(5.3364e-07 -1.08317e-07 -0.0068708)
(5.34046e-07 -1.09045e-07 -0.00688323)
(5.34476e-07 -1.09787e-07 -0.00689414)
(5.34926e-07 -1.10542e-07 -0.00690352)
(5.354e-07 -1.1131e-07 -0.00691145)
(5.35898e-07 -1.12087e-07 -0.00691787)
(5.3642e-07 -1.12874e-07 -0.0069229)
(5.36966e-07 -1.13674e-07 -0.00692654)
(5.37539e-07 -1.14483e-07 -0.00692881)
(5.38085e-07 -1.1531e-07 -0.00678929)
(5.38646e-07 -1.16148e-07 -0.00644699)
(5.39259e-07 -1.16995e-07 -0.00602388)
(5.39899e-07 -1.17849e-07 -0.00557448)
(5.40555e-07 -1.18705e-07 -0.00510529)
(5.41219e-07 -1.19573e-07 -0.00461938)
(5.41888e-07 -1.20455e-07 -0.00411721)
(5.42565e-07 -1.21354e-07 -0.00359923)
(5.43254e-07 -1.22267e-07 -0.00306597)
(5.43922e-07 -1.23214e-07 -0.00269115)
(5.44538e-07 -1.24221e-07 -0.00261213)
(5.45181e-07 -1.25234e-07 -0.00252791)
(5.45829e-07 -1.26267e-07 -0.00243869)
(5.46488e-07 -1.27311e-07 -0.00234459)
(5.471e-07 -1.2837e-07 -0.00226141)
(5.47684e-07 -1.29438e-07 -0.00218989)
(5.48309e-07 -1.305e-07 -0.00206372)
(5.48945e-07 -1.31565e-07 -0.00218813)
(5.49523e-07 -1.32634e-07 -0.00261069)
(5.50096e-07 -1.3371e-07 -0.00302241)
(5.50678e-07 -1.34796e-07 -0.00343749)
(5.51269e-07 -1.35899e-07 -0.00389513)
(5.51868e-07 -1.37033e-07 -0.00444459)
(5.52492e-07 -1.38177e-07 -0.00499763)
(5.53135e-07 -1.39343e-07 -0.0055541)
(5.53772e-07 -1.40529e-07 -0.00614142)
(5.54362e-07 -1.41718e-07 -0.00680262)
(5.54889e-07 -1.42944e-07 -0.00776439)
(5.55452e-07 -1.44188e-07 -0.00873281)
(5.5603e-07 -1.45457e-07 -0.00970397)
(5.56625e-07 -1.46754e-07 -0.0106829)
(5.57243e-07 -1.48075e-07 -0.0116579)
(5.57875e-07 -1.49423e-07 -0.0126418)
(5.58519e-07 -1.50808e-07 -0.0136243)
(5.59148e-07 -1.5223e-07 -0.0146155)
(5.75122e-07 -1.23195e-07 -0.0496845)
(5.73077e-07 -1.22101e-07 -0.0445265)
(5.70892e-07 -1.21079e-07 -0.0396362)
(5.68692e-07 -1.19638e-07 -0.0352428)
(5.66342e-07 -1.18499e-07 -0.0320731)
(5.64172e-07 -1.17363e-07 -0.0288677)
(5.61836e-07 -1.16121e-07 -0.0262337)
(5.59576e-07 -1.14887e-07 -0.0238386)
(5.57579e-07 -1.1366e-07 -0.0216094)
(5.55803e-07 -1.12536e-07 -0.0198969)
(5.5422e-07 -1.1146e-07 -0.0183533)
(5.52596e-07 -1.10184e-07 -0.0159585)
(5.51079e-07 -1.08925e-07 -0.0134684)
(5.49487e-07 -1.07824e-07 -0.0118066)
(5.48022e-07 -1.0678e-07 -0.0102492)
(5.46661e-07 -1.05798e-07 -0.00878519)
(5.45389e-07 -1.04866e-07 -0.00740904)
(5.44198e-07 -1.03974e-07 -0.00614188)
(5.42993e-07 -1.03118e-07 -0.00507967)
(5.41861e-07 -1.02329e-07 -0.00415687)
(5.40635e-07 -1.01661e-07 -0.0039399)
(5.39413e-07 -1.01018e-07 -0.0039682)
(5.38217e-07 -1.00467e-07 -0.00451099)
(5.37057e-07 -1.00022e-07 -0.00485424)
(5.35977e-07 -9.96768e-08 -0.00518394)
(5.34993e-07 -9.94449e-08 -0.00550101)
(5.33943e-07 -9.93255e-08 -0.00539794)
(5.32789e-07 -9.93748e-08 -0.00562326)
(5.31728e-07 -9.94854e-08 -0.00592568)
(5.30768e-07 -9.96449e-08 -0.00610709)
(5.29911e-07 -9.98435e-08 -0.00617175)
(5.29127e-07 -1.0007e-07 -0.00623641)
(5.28416e-07 -1.0031e-07 -0.00630102)
(5.27777e-07 -1.00563e-07 -0.00636557)
(5.27217e-07 -1.0084e-07 -0.00643005)
(5.26716e-07 -1.01142e-07 -0.00649442)
(5.2627e-07 -1.01471e-07 -0.00655864)
(5.25879e-07 -1.01825e-07 -0.00662268)
(5.25542e-07 -1.02201e-07 -0.00668652)
(5.25256e-07 -1.02603e-07 -0.00675013)
(5.25022e-07 -1.03029e-07 -0.00681353)
(5.24838e-07 -1.03479e-07 -0.00687663)
(5.24703e-07 -1.03951e-07 -0.00693947)
(5.24615e-07 -1.04446e-07 -0.00700194)
(5.24571e-07 -1.04964e-07 -0.00706412)
(5.24569e-07 -1.05503e-07 -0.00712588)
(5.24605e-07 -1.06063e-07 -0.00718731)
(5.24681e-07 -1.06643e-07 -0.00724831)
(5.24794e-07 -1.07245e-07 -0.00730897)
(5.24942e-07 -1.07866e-07 -0.00736923)
(5.25118e-07 -1.08509e-07 -0.00743221)
(5.25324e-07 -1.0917e-07 -0.00749732)
(5.25562e-07 -1.09849e-07 -0.00756199)
(5.25831e-07 -1.10544e-07 -0.00762651)
(5.26128e-07 -1.11253e-07 -0.00769055)
(5.26453e-07 -1.11976e-07 -0.0077544)
(5.26804e-07 -1.12711e-07 -0.00781787)
(5.27181e-07 -1.13458e-07 -0.00788103)
(5.27584e-07 -1.14218e-07 -0.00794398)
(5.28039e-07 -1.14984e-07 -0.00794262)
(5.28553e-07 -1.15749e-07 -0.00784863)
(5.29086e-07 -1.16513e-07 -0.00774792)
(5.29642e-07 -1.1728e-07 -0.00764058)
(5.3022e-07 -1.18054e-07 -0.00752688)
(5.30818e-07 -1.18832e-07 -0.00740701)
(5.31437e-07 -1.19615e-07 -0.00728111)
(5.32077e-07 -1.2041e-07 -0.00714939)
(5.32741e-07 -1.21207e-07 -0.00702139)
(5.33341e-07 -1.22081e-07 -0.0073136)
(5.3396e-07 -1.22963e-07 -0.00761229)
(5.34588e-07 -1.23863e-07 -0.00790358)
(5.35225e-07 -1.24778e-07 -0.00819897)
(5.35869e-07 -1.25704e-07 -0.00850022)
(5.36522e-07 -1.26631e-07 -0.00881147)
(5.37167e-07 -1.27587e-07 -0.0092437)
(5.37858e-07 -1.28526e-07 -0.00967277)
(5.38497e-07 -1.29471e-07 -0.00986514)
(5.39128e-07 -1.30428e-07 -0.00998359)
(5.39769e-07 -1.31393e-07 -0.0101003)
(5.40423e-07 -1.32365e-07 -0.0102154)
(5.41102e-07 -1.33346e-07 -0.0103285)
(5.41809e-07 -1.34339e-07 -0.0104399)
(5.42482e-07 -1.35343e-07 -0.0105508)
(5.43139e-07 -1.36359e-07 -0.0106609)
(5.4383e-07 -1.37389e-07 -0.0107692)
(5.44547e-07 -1.38431e-07 -0.0108761)
(5.45277e-07 -1.39483e-07 -0.010981)
(5.46027e-07 -1.4055e-07 -0.0110952)
(5.46745e-07 -1.41635e-07 -0.0116666)
(5.47401e-07 -1.42724e-07 -0.0123811)
(5.48061e-07 -1.43833e-07 -0.0131288)
(5.48736e-07 -1.44958e-07 -0.0138815)
(5.49426e-07 -1.46095e-07 -0.0146498)
(5.50091e-07 -1.47256e-07 -0.015479)
(5.50726e-07 -1.48451e-07 -0.0163649)
(5.51386e-07 -1.49672e-07 -0.017257)
(5.51953e-07 -1.50962e-07 -0.0183335)
(5.52529e-07 -1.52301e-07 -0.019346)
(5.5316e-07 -1.53688e-07 -0.020349)
(5.53835e-07 -1.5514e-07 -0.0213574)
(5.71145e-07 -1.23861e-07 -0.0528133)
(5.69084e-07 -1.22849e-07 -0.047516)
(5.6721e-07 -1.21752e-07 -0.0426575)
(5.64325e-07 -1.20484e-07 -0.0385404)
(5.61678e-07 -1.19529e-07 -0.0353607)
(5.59388e-07 -1.18634e-07 -0.0322697)
(5.57139e-07 -1.17474e-07 -0.0293996)
(5.54912e-07 -1.16257e-07 -0.0270495)
(5.53084e-07 -1.1507e-07 -0.0247287)
(5.51373e-07 -1.13948e-07 -0.0226532)
(5.49771e-07 -1.12899e-07 -0.0211439)
(5.48148e-07 -1.11935e-07 -0.020107)
(5.46475e-07 -1.10943e-07 -0.018991)
(5.44853e-07 -1.09868e-07 -0.0173677)
(5.43283e-07 -1.08893e-07 -0.0160288)
(5.41725e-07 -1.08017e-07 -0.0149382)
(5.40166e-07 -1.07251e-07 -0.0135903)
(5.38661e-07 -1.06585e-07 -0.0121219)
(5.37179e-07 -1.05958e-07 -0.0110107)
(5.35698e-07 -1.05382e-07 -0.010986)
(5.34342e-07 -1.04875e-07 -0.0109976)
(5.3299e-07 -1.04441e-07 -0.0110248)
(5.31612e-07 -1.04097e-07 -0.0107438)
(5.30239e-07 -1.0382e-07 -0.0101001)
(5.28985e-07 -1.03618e-07 -0.00949579)
(5.27805e-07 -1.0349e-07 -0.00893874)
(5.26705e-07 -1.0341e-07 -0.00844722)
(5.25687e-07 -1.03401e-07 -0.00810316)
(5.24769e-07 -1.03446e-07 -0.00779126)
(5.23921e-07 -1.03546e-07 -0.00750864)
(5.23127e-07 -1.03694e-07 -0.00725419)
(5.22391e-07 -1.03874e-07 -0.00706698)
(5.21643e-07 -1.04145e-07 -0.00728699)
(5.20969e-07 -1.04432e-07 -0.00748964)
(5.20364e-07 -1.04747e-07 -0.00767564)
(5.19826e-07 -1.05087e-07 -0.00784553)
(5.19375e-07 -1.05448e-07 -0.00793786)
(5.18984e-07 -1.05832e-07 -0.00800935)
(5.18645e-07 -1.06238e-07 -0.00808068)
(5.18355e-07 -1.0667e-07 -0.00815179)
(5.18118e-07 -1.07129e-07 -0.00822269)
(5.17931e-07 -1.07612e-07 -0.00829329)
(5.17793e-07 -1.08115e-07 -0.00836365)
(5.177e-07 -1.0864e-07 -0.00843365)
(5.1765e-07 -1.09188e-07 -0.00850337)
(5.1764e-07 -1.09758e-07 -0.00857266)
(5.17669e-07 -1.10348e-07 -0.00864164)
(5.17736e-07 -1.10958e-07 -0.00871018)
(5.17839e-07 -1.11588e-07 -0.00877834)
(5.17991e-07 -1.12235e-07 -0.00881247)
(5.18197e-07 -1.12895e-07 -0.00879753)
(5.18442e-07 -1.13567e-07 -0.00877319)
(5.18722e-07 -1.14254e-07 -0.00873978)
(5.19037e-07 -1.14953e-07 -0.00868908)
(5.19383e-07 -1.15664e-07 -0.00863015)
(5.19759e-07 -1.16386e-07 -0.008563)
(5.20163e-07 -1.1712e-07 -0.00848799)
(5.20593e-07 -1.17865e-07 -0.00840539)
(5.21046e-07 -1.18623e-07 -0.00831529)
(5.21521e-07 -1.19394e-07 -0.00826699)
(5.2195e-07 -1.20232e-07 -0.00857025)
(5.22397e-07 -1.21074e-07 -0.00888736)
(5.22855e-07 -1.21931e-07 -0.00921591)
(5.23331e-07 -1.22798e-07 -0.00955535)
(5.23826e-07 -1.23669e-07 -0.00990531)
(5.24337e-07 -1.24544e-07 -0.0102655)
(5.24878e-07 -1.25415e-07 -0.0106155)
(5.2545e-07 -1.26274e-07 -0.0109545)
(5.26039e-07 -1.27138e-07 -0.0113029)
(5.26693e-07 -1.27978e-07 -0.0116868)
(5.27363e-07 -1.28828e-07 -0.0120871)
(5.28046e-07 -1.29684e-07 -0.0124967)
(5.2874e-07 -1.30545e-07 -0.0129151)
(5.29444e-07 -1.31407e-07 -0.0133421)
(5.3016e-07 -1.32273e-07 -0.0137773)
(5.30887e-07 -1.33145e-07 -0.0142204)
(5.31629e-07 -1.34019e-07 -0.0146711)
(5.32393e-07 -1.34896e-07 -0.015129)
(5.33172e-07 -1.35778e-07 -0.0155939)
(5.33962e-07 -1.36667e-07 -0.0160657)
(5.34778e-07 -1.37564e-07 -0.016544)
(5.35561e-07 -1.38467e-07 -0.0170159)
(5.36301e-07 -1.39381e-07 -0.0174773)
(5.37051e-07 -1.40313e-07 -0.0179438)
(5.37823e-07 -1.4126e-07 -0.0184154)
(5.38492e-07 -1.4225e-07 -0.0185571)
(5.39171e-07 -1.43268e-07 -0.0186472)
(5.39817e-07 -1.44305e-07 -0.0188235)
(5.40425e-07 -1.45357e-07 -0.0191019)
(5.41053e-07 -1.46434e-07 -0.0193808)
(5.41707e-07 -1.4753e-07 -0.01966)
(5.4236e-07 -1.48637e-07 -0.0202512)
(5.43016e-07 -1.49747e-07 -0.0210166)
(5.43678e-07 -1.5087e-07 -0.0217868)
(5.44359e-07 -1.52013e-07 -0.0225581)
(5.45061e-07 -1.53189e-07 -0.0233349)
(5.45795e-07 -1.54407e-07 -0.0241098)
(5.46569e-07 -1.55675e-07 -0.0248904)
(5.47376e-07 -1.5699e-07 -0.0256049)
(5.48177e-07 -1.58289e-07 -0.0260179)
(5.66743e-07 -1.24531e-07 -0.0552902)
(5.65207e-07 -1.23461e-07 -0.050036)
(5.62491e-07 -1.22365e-07 -0.0450749)
(5.59616e-07 -1.21313e-07 -0.0416625)
(5.56948e-07 -1.20318e-07 -0.0384741)
(5.54798e-07 -1.19388e-07 -0.0353598)
(5.52609e-07 -1.18466e-07 -0.0327582)
(5.50492e-07 -1.17417e-07 -0.0305674)
(5.48702e-07 -1.16351e-07 -0.0282059)
(5.46944e-07 -1.1534e-07 -0.0260588)
(5.44746e-07 -1.14473e-07 -0.0254387)
(5.42667e-07 -1.13655e-07 -0.0250475)
(5.40702e-07 -1.12932e-07 -0.0245434)
(5.38795e-07 -1.1235e-07 -0.023584)
(5.36949e-07 -1.11673e-07 -0.0221582)
(5.35214e-07 -1.10962e-07 -0.0204577)
(5.33642e-07 -1.1033e-07 -0.0191039)
(5.32075e-07 -1.09781e-07 -0.0187108)
(5.30575e-07 -1.09301e-07 -0.0183631)
(5.28788e-07 -1.08937e-07 -0.0175292)
(5.27161e-07 -1.08624e-07 -0.0167526)
(5.25542e-07 -1.08377e-07 -0.0159973)
(5.23989e-07 -1.08183e-07 -0.0152726)
(5.22572e-07 -1.08055e-07 -0.0146023)
(5.2127e-07 -1.07997e-07 -0.0139839)
(5.20063e-07 -1.07985e-07 -0.0134154)
(5.18938e-07 -1.08007e-07 -0.0128947)
(5.17944e-07 -1.08025e-07 -0.0124528)
(5.17075e-07 -1.08063e-07 -0.0120122)
(5.16284e-07 -1.0814e-07 -0.0116053)
(5.15561e-07 -1.08252e-07 -0.0112356)
(5.14899e-07 -1.08384e-07 -0.0109014)
(5.143e-07 -1.08538e-07 -0.0106015)
(5.13756e-07 -1.08727e-07 -0.0103347)
(5.13268e-07 -1.08954e-07 -0.0100998)
(5.12837e-07 -1.09217e-07 -0.00989549)
(5.12458e-07 -1.09515e-07 -0.00972064)
(5.12128e-07 -1.09845e-07 -0.00957411)
(5.11843e-07 -1.10203e-07 -0.00944242)
(5.11608e-07 -1.10591e-07 -0.00932566)
(5.11419e-07 -1.11015e-07 -0.00923461)
(5.11272e-07 -1.11476e-07 -0.0092091)
(5.11161e-07 -1.11977e-07 -0.00926547)
(5.11101e-07 -1.12501e-07 -0.00931343)
(5.11087e-07 -1.13049e-07 -0.00935322)
(5.11117e-07 -1.13618e-07 -0.00938519)
(5.11189e-07 -1.14206e-07 -0.00940952)
(5.11302e-07 -1.14814e-07 -0.00942651)
(5.11454e-07 -1.15442e-07 -0.00943637)
(5.11645e-07 -1.16087e-07 -0.00943932)
(5.11849e-07 -1.16767e-07 -0.0095482)
(5.12083e-07 -1.17469e-07 -0.00968548)
(5.12346e-07 -1.18192e-07 -0.00983948)
(5.12637e-07 -1.18936e-07 -0.0100095)
(5.12955e-07 -1.19696e-07 -0.0101949)
(5.13297e-07 -1.20472e-07 -0.0103953)
(5.13663e-07 -1.21262e-07 -0.0106101)
(5.1405e-07 -1.22065e-07 -0.0108389)
(5.14459e-07 -1.22876e-07 -0.0110812)
(5.14891e-07 -1.23687e-07 -0.0113365)
(5.1535e-07 -1.245e-07 -0.0116045)
(5.15856e-07 -1.25309e-07 -0.0119125)
(5.16405e-07 -1.26107e-07 -0.0122298)
(5.16973e-07 -1.26909e-07 -0.0125594)
(5.17564e-07 -1.27713e-07 -0.0129006)
(5.18176e-07 -1.28518e-07 -0.0132533)
(5.18806e-07 -1.29327e-07 -0.013617)
(5.1945e-07 -1.30139e-07 -0.0139913)
(5.2011e-07 -1.30961e-07 -0.0143758)
(5.20783e-07 -1.31793e-07 -0.0147701)
(5.21465e-07 -1.32634e-07 -0.015174)
(5.22157e-07 -1.33483e-07 -0.0155872)
(5.2286e-07 -1.3434e-07 -0.0160092)
(5.23575e-07 -1.35202e-07 -0.0164398)
(5.24301e-07 -1.36071e-07 -0.0168785)
(5.25038e-07 -1.36946e-07 -0.017325)
(5.25785e-07 -1.37822e-07 -0.0177792)
(5.26545e-07 -1.38702e-07 -0.0182406)
(5.27312e-07 -1.39586e-07 -0.0187091)
(5.28067e-07 -1.40476e-07 -0.0192066)
(5.28838e-07 -1.41382e-07 -0.0196942)
(5.29572e-07 -1.42279e-07 -0.0201627)
(5.30318e-07 -1.4318e-07 -0.0206367)
(5.3107e-07 -1.44093e-07 -0.0211156)
(5.31818e-07 -1.45015e-07 -0.021599)
(5.32557e-07 -1.45958e-07 -0.0221099)
(5.33269e-07 -1.46931e-07 -0.02277)
(5.34005e-07 -1.47915e-07 -0.0234354)
(5.34744e-07 -1.48918e-07 -0.0241155)
(5.35483e-07 -1.49942e-07 -0.0248113)
(5.36227e-07 -1.5099e-07 -0.0255118)
(5.3699e-07 -1.5205e-07 -0.0263319)
(5.37604e-07 -1.53152e-07 -0.027173)
(5.38215e-07 -1.54283e-07 -0.0279353)
(5.38834e-07 -1.55455e-07 -0.0286991)
(5.39359e-07 -1.56583e-07 -0.0291593)
(5.39893e-07 -1.57741e-07 -0.0295679)
(5.40449e-07 -1.5894e-07 -0.0299791)
(5.4101e-07 -1.60187e-07 -0.0303896)
(5.41548e-07 -1.61483e-07 -0.0307999)
(5.62822e-07 -1.24972e-07 -0.0570406)
(5.60925e-07 -1.23958e-07 -0.0518285)
(5.58191e-07 -1.22835e-07 -0.0471762)
(5.55368e-07 -1.21939e-07 -0.0442616)
(5.52876e-07 -1.20822e-07 -0.0411439)
(5.50459e-07 -1.20004e-07 -0.0383984)
(5.48317e-07 -1.19266e-07 -0.0360535)
(5.45982e-07 -1.18405e-07 -0.0343458)
(5.43636e-07 -1.17585e-07 -0.033252)
(5.41275e-07 -1.16851e-07 -0.0317403)
(5.39036e-07 -1.16162e-07 -0.0299715)
(5.36896e-07 -1.15526e-07 -0.0289164)
(5.34864e-07 -1.1492e-07 -0.0279244)
(5.32994e-07 -1.14359e-07 -0.0269924)
(5.31281e-07 -1.13883e-07 -0.0261373)
(5.29729e-07 -1.13437e-07 -0.0252364)
(5.27707e-07 -1.12948e-07 -0.0239811)
(5.25801e-07 -1.12575e-07 -0.0226291)
(5.24028e-07 -1.12276e-07 -0.0213617)
(5.22273e-07 -1.12005e-07 -0.0204701)
(5.20677e-07 -1.11769e-07 -0.0196986)
(5.19149e-07 -1.1157e-07 -0.0189476)
(5.17654e-07 -1.11399e-07 -0.0182028)
(5.16273e-07 -1.11276e-07 -0.01751)
(5.14992e-07 -1.11208e-07 -0.0168672)
(5.13812e-07 -1.11182e-07 -0.0162723)
(5.12731e-07 -1.11186e-07 -0.0156999)
(5.11735e-07 -1.11229e-07 -0.0151716)
(5.10815e-07 -1.11303e-07 -0.0146861)
(5.0997e-07 -1.11408e-07 -0.0142415)
(5.092e-07 -1.11544e-07 -0.0138364)
(5.08504e-07 -1.11698e-07 -0.0134692)
(5.07876e-07 -1.11877e-07 -0.0131386)
(5.07372e-07 -1.12071e-07 -0.0128164)
(5.06994e-07 -1.12274e-07 -0.0125113)
(5.06673e-07 -1.12507e-07 -0.012259)
(5.06411e-07 -1.12774e-07 -0.0120421)
(5.06194e-07 -1.13075e-07 -0.0118549)
(5.06017e-07 -1.13409e-07 -0.0116965)
(5.05903e-07 -1.13772e-07 -0.0115074)
(5.0584e-07 -1.14166e-07 -0.0113114)
(5.05815e-07 -1.14592e-07 -0.0111462)
(5.0583e-07 -1.15047e-07 -0.011011)
(5.05884e-07 -1.15535e-07 -0.0109045)
(5.0597e-07 -1.16052e-07 -0.0108261)
(5.06087e-07 -1.16596e-07 -0.0107744)
(5.06233e-07 -1.17166e-07 -0.0107489)
(5.06407e-07 -1.17762e-07 -0.0107485)
(5.06608e-07 -1.18381e-07 -0.0107726)
(5.06835e-07 -1.19022e-07 -0.0108202)
(5.07103e-07 -1.19676e-07 -0.0109083)
(5.07396e-07 -1.20349e-07 -0.0110164)
(5.07721e-07 -1.21033e-07 -0.0111457)
(5.08069e-07 -1.21736e-07 -0.0112891)
(5.08441e-07 -1.22454e-07 -0.0114552)
(5.08835e-07 -1.23187e-07 -0.0116438)
(5.09249e-07 -1.23935e-07 -0.0118539)
(5.09684e-07 -1.24694e-07 -0.0120851)
(5.10139e-07 -1.25465e-07 -0.0123368)
(5.10614e-07 -1.26242e-07 -0.0126082)
(5.1111e-07 -1.27028e-07 -0.0128988)
(5.11627e-07 -1.27824e-07 -0.0132079)
(5.12158e-07 -1.28628e-07 -0.0135349)
(5.12704e-07 -1.29438e-07 -0.0138791)
(5.13264e-07 -1.30251e-07 -0.0142401)
(5.1384e-07 -1.31069e-07 -0.0146173)
(5.1443e-07 -1.31892e-07 -0.0150102)
(5.15031e-07 -1.32722e-07 -0.0154184)
(5.15644e-07 -1.33562e-07 -0.0158413)
(5.16267e-07 -1.34414e-07 -0.0162786)
(5.16898e-07 -1.35277e-07 -0.0167276)
(5.17535e-07 -1.36151e-07 -0.0171874)
(5.18186e-07 -1.37037e-07 -0.0176742)
(5.18848e-07 -1.37935e-07 -0.0181758)
(5.19509e-07 -1.38845e-07 -0.018693)
(5.20176e-07 -1.39765e-07 -0.0192235)
(5.20853e-07 -1.40694e-07 -0.0197655)
(5.21543e-07 -1.41628e-07 -0.0203185)
(5.22258e-07 -1.42564e-07 -0.0208819)
(5.22892e-07 -1.43534e-07 -0.0214442)
(5.23475e-07 -1.44504e-07 -0.0219938)
(5.24135e-07 -1.45449e-07 -0.0225519)
(5.24793e-07 -1.46413e-07 -0.0231186)
(5.25457e-07 -1.47401e-07 -0.0236937)
(5.26102e-07 -1.48333e-07 -0.0243118)
(5.26665e-07 -1.49312e-07 -0.0249449)
(5.27232e-07 -1.50342e-07 -0.0255863)
(5.2789e-07 -1.5134e-07 -0.0262344)
(5.28546e-07 -1.52357e-07 -0.0268891)
(5.29212e-07 -1.53396e-07 -0.0275502)
(5.2989e-07 -1.54464e-07 -0.0282171)
(5.30563e-07 -1.55548e-07 -0.0288389)
(5.31152e-07 -1.56564e-07 -0.0292841)
(5.3174e-07 -1.57603e-07 -0.0300342)
(5.32342e-07 -1.58669e-07 -0.0307887)
(5.32939e-07 -1.59765e-07 -0.0315571)
(5.33575e-07 -1.60888e-07 -0.0324097)
(5.34221e-07 -1.62021e-07 -0.0332314)
(5.34711e-07 -1.63173e-07 -0.0336481)
(5.35153e-07 -1.64338e-07 -0.0340599)
(5.58695e-07 -1.25384e-07 -0.0592779)
(5.56392e-07 -1.24541e-07 -0.0546959)
(5.53458e-07 -1.2347e-07 -0.0504332)
(5.50596e-07 -1.22487e-07 -0.0478576)
(5.47865e-07 -1.21484e-07 -0.0453131)
(5.45375e-07 -1.20746e-07 -0.0428421)
(5.42937e-07 -1.20098e-07 -0.0410239)
(5.40357e-07 -1.19588e-07 -0.0388276)
(5.37682e-07 -1.19039e-07 -0.0367755)
(5.35209e-07 -1.18499e-07 -0.0348353)
(5.32847e-07 -1.17974e-07 -0.0330033)
(5.30647e-07 -1.17468e-07 -0.0318486)
(5.28704e-07 -1.16954e-07 -0.0309277)
(5.26876e-07 -1.16483e-07 -0.0300622)
(5.24812e-07 -1.16144e-07 -0.0283185)
(5.22712e-07 -1.15881e-07 -0.0273928)
(5.20781e-07 -1.15685e-07 -0.0267161)
(5.18847e-07 -1.15345e-07 -0.0253496)
(5.17091e-07 -1.15072e-07 -0.0240653)
(5.15431e-07 -1.14825e-07 -0.0229555)
(5.13823e-07 -1.14591e-07 -0.0221311)
(5.12349e-07 -1.14382e-07 -0.0213194)
(5.11046e-07 -1.14131e-07 -0.0201573)
(5.09882e-07 -1.13915e-07 -0.0190897)
(5.08919e-07 -1.13723e-07 -0.0181345)
(5.08035e-07 -1.1357e-07 -0.0172395)
(5.07232e-07 -1.13451e-07 -0.0164022)
(5.06503e-07 -1.13371e-07 -0.0156208)
(5.0584e-07 -1.13325e-07 -0.0148931)
(5.0525e-07 -1.13321e-07 -0.0142307)
(5.04732e-07 -1.13361e-07 -0.0136244)
(5.04281e-07 -1.13436e-07 -0.0130649)
(5.03892e-07 -1.1355e-07 -0.0125508)
(5.03555e-07 -1.13708e-07 -0.0120804)
(5.03254e-07 -1.13908e-07 -0.0116521)
(5.02988e-07 -1.14145e-07 -0.0112646)
(5.02762e-07 -1.14419e-07 -0.0109164)
(5.02578e-07 -1.14729e-07 -0.0106062)
(5.02431e-07 -1.15069e-07 -0.0103043)
(5.0232e-07 -1.15444e-07 -0.0100362)
(5.0224e-07 -1.15853e-07 -0.00980442)
(5.02196e-07 -1.16291e-07 -0.00960739)
(5.02193e-07 -1.16756e-07 -0.00944433)
(5.02231e-07 -1.17246e-07 -0.00931372)
(5.02306e-07 -1.17761e-07 -0.00921486)
(5.02417e-07 -1.18298e-07 -0.00914632)
(5.0256e-07 -1.18856e-07 -0.00910732)
(5.02736e-07 -1.19435e-07 -0.0090967)
(5.02943e-07 -1.20036e-07 -0.0091137)
(5.03181e-07 -1.20657e-07 -0.00915748)
(5.0345e-07 -1.21297e-07 -0.00922714)
(5.03748e-07 -1.21958e-07 -0.00932192)
(5.04073e-07 -1.22638e-07 -0.00944104)
(5.04425e-07 -1.23336e-07 -0.00958381)
(5.04801e-07 -1.2405e-07 -0.00974943)
(5.052e-07 -1.2478e-07 -0.00993733)
(5.05619e-07 -1.25525e-07 -0.0101467)
(5.06056e-07 -1.26285e-07 -0.010379)
(5.06509e-07 -1.27057e-07 -0.0106335)
(5.06983e-07 -1.2784e-07 -0.0109078)
(5.07478e-07 -1.28632e-07 -0.0112013)
(5.07995e-07 -1.29433e-07 -0.0115133)
(5.08531e-07 -1.30243e-07 -0.0118433)
(5.09085e-07 -1.31059e-07 -0.0121951)