/*--------------------------------*- C++ -*----------------------------------*\
| =========                 |                                                 |
| \\      /  F ield         | foam-extend: Open Source CFD                    |
|  \\    /   O peration     | Version:     4.1                                |
|   \\  /    A nd           | Web:         http://www.foam-extend.org         |
|    \\/     M anipulation  |                                                 |
\*---------------------------------------------------------------------------*/
FoamFile
{
    version     2.0;
    format      ascii;
    class       volScalarField;
    location    "1";
    object      epsilonEq;
}
// * * * * * * * * * * * * * * * * * * * * * * * * * * * * * * * * * * * * * //

dimensions      [0 0 0 0 0 0 0];

internalField   nonuniform List<scalar> 
100000
(
0.584349
0.836493
0.760674
0.612218
0.493887
0.42624
0.401018
0.409873
0.508014
0.519077
0.463407
0.42227
0.398177
0.355437
0.304121
0.26817
0.263487
0.246963
0.223003
0.203058
0.168263
0.164422
0.169082
0.175716
0.182208
0.190254
0.189269
0.187148
0.223451
0.27086
0.323456
0.374351
0.415425
0.453132
0.480939
0.483988
0.486603
0.489862
0.487029
0.484296
0.481652
0.479092
0.476648
0.476454
0.475898
0.474655
0.473139
0.471437
0.469552
0.467498
0.465266
0.462868
0.460237
0.45656
0.452582
0.447114
0.441379
0.436027
0.430446
0.424648
0.418649
0.412624
0.406284
0.399561
0.381486
0.35663
0.331098
0.304741
0.283437
0.261997
0.234669
0.204779
0.174401
0.150786
0.127889
0.114759
0.111401
0.108008
0.104587
0.10114
0.101631
0.0990645
0.0994694
0.100935
0.102811
0.106283
0.114329
0.124947
0.143324
0.159586
0.174381
0.187094
0.19374
0.204084
0.213401
0.218759
0.222583
0.230935
0.239689
0.240869
0.526864
0.773907
0.7814
0.667119
0.606275
0.537014
0.524751
0.505578
0.520598
0.62743
0.624545
0.562253
0.502404
0.4547
0.424787
0.403299
0.384932
0.37446
0.36952
0.327865
0.281685
0.249123
0.222974
0.201965
0.207275
0.252174
0.315636
0.376139
0.436979
0.489816
0.537218
0.543476
0.560925
0.545727
0.540789
0.536096
0.531594
0.527022
0.522857
0.519162
0.515656
0.512334
0.509254
0.506394
0.503652
0.501147
0.498805
0.493445
0.488182
0.483198
0.478489
0.474048
0.470201
0.467485
0.465112
0.463094
0.461325
0.459846
0.458669
0.457767
0.457123
0.456716
0.459746
0.466881
0.474467
0.476235
0.469573
0.459989
0.449891
0.440339
0.413377
0.383029
0.358211
0.332965
0.314633
0.309251
0.306039
0.303359
0.30057
0.29821
0.296885
0.293902
0.300283
0.318469
0.328228
0.338598
0.343271
0.348695
0.352111
0.350392
0.349666
0.352551
0.366748
0.37806
0.384659
0.39134
0.399453
0.4085
0.415134
0.428903
0.505558
0.720404
0.734157
0.66587
0.617178
0.567758
0.527019
0.517382
0.463579
0.502225
0.600113
0.610023
0.578584
0.577466
0.568364
0.570717
0.534598
0.479829
0.438711
0.407954
0.420329
0.423649
0.445915
0.452466
0.462037
0.489866
0.499795
0.524062
0.512316
0.487488
0.458504
0.431596
0.403616
0.379089
0.358804
0.340476
0.324003
0.309764
0.302406
0.295708
0.289648
0.28419
0.27928
0.272751
0.267181
0.262863
0.259241
0.256397
0.25432
0.252893
0.252258
0.25235
0.253095
0.254822
0.257108
0.262101
0.267749
0.273392
0.279627
0.283474
0.283659
0.284056
0.284568
0.285341
0.286454
0.28914
0.292871
0.296248
0.31763
0.339418
0.368522
0.399553
0.431122
0.462127
0.497457
0.524424
0.532111
0.536722
0.541259
0.545724
0.545965
0.53788
0.530803
0.52405
0.516618
0.508863
0.501056
0.488948
0.483794
0.484211
0.486313
0.491214
0.493479
0.492678
0.49389
0.495057
0.502965
0.503703
0.50305
0.503896
0.516094
0.715162
0.689776
0.651249
0.60429
0.589702
0.526212
0.502712
0.471301
0.415404
0.487788
0.609251
0.675459
0.704129
0.731458
0.733994
0.712979
0.668829
0.62234
0.636777
0.655485
0.681776
0.68771
0.664927
0.618668
0.546934
0.466402
0.395443
0.328841
0.266824
0.210518
0.161633
0.138533
0.137027
0.136277
0.135131
0.130292
0.12485
0.119902
0.115428
0.111405
0.10781
0.104627
0.10177
0.0992468
0.0970834
0.0952691
0.0969418
0.0989771
0.0995357
0.0979051
0.096021
0.0935719
0.0896321
0.0854399
0.0809941
0.0763187
0.0714266
0.066015
0.0630702
0.0767972
0.0904557
0.104531
0.11899
0.133806
0.155162
0.184695
0.216577
0.252179
0.28743
0.323733
0.360821
0.398579
0.437529
0.469701
0.487586
0.506092
0.525755
0.54582
0.565497
0.584747
0.605738
0.61599
0.614391
0.613441
0.599299
0.581609
0.56512
0.555014
0.542971
0.52882
0.52369
0.514425
0.505727
0.496563
0.489144
0.481225
0.470563
0.458685
0.437547
0.511416
0.709132
0.648465
0.620756
0.577748
0.568352
0.541924
0.533376
0.514024
0.462634
0.493872
0.612028
0.740758
0.781767
0.777361
0.756103
0.755612
0.800354
0.826672
0.822609
0.781645
0.727939
0.647969
0.584676
0.523912
0.467552
0.43835
0.39562
0.349932
0.313707
0.286442
0.260787
0.239787
0.219672
0.201598
0.185123
0.170546
0.158005
0.146506
0.135971
0.126943
0.121456
0.120272
0.118694
0.116738
0.114436
0.111799
0.108855
0.105486
0.101797
0.103378
0.106225
0.109892
0.1143
0.119389
0.125131
0.131492
0.138442
0.145747
0.157066
0.175628
0.193128
0.211114
0.229711
0.248883
0.268423
0.288321
0.308474
0.311011
0.31374
0.316962
0.320306
0.323734
0.327056
0.32564
0.324695
0.33381
0.34614
0.358694
0.372349
0.385426
0.39754
0.409861
0.422397
0.433007
0.445406
0.464955
0.484549
0.486574
0.483291
0.480491
0.484319
0.486384
0.48152
0.474667
0.456436
0.429784
0.405093
0.377509
0.351395
0.433014
0.667189
0.581943
0.556994
0.545737
0.539689
0.536179
0.56396
0.633599
0.630774
0.59017
0.58307
0.589744
0.638245
0.673478
0.678696
0.663344
0.658709
0.645622
0.590652
0.538012
0.486828
0.45473
0.447234
0.440552
0.434088
0.425064
0.410666
0.397414
0.384779
0.37297
0.35974
0.326275
0.294733
0.265506
0.240444
0.221819
0.206234
0.192468
0.177247
0.161756
0.148222
0.136696
0.126672
0.118232
0.111285
0.105766
0.101598
0.0987215
0.0989269
0.10406
0.110128
0.117467
0.126196
0.136261
0.147618
0.160192
0.173923
0.188756
0.202398
0.201076
0.200006
0.198978
0.198281
0.197871
0.197732
0.198712
0.200809
0.203101
0.204471
0.205622
0.206823
0.208757
0.210917
0.213347
0.215969
0.218711
0.221568
0.224841
0.227526
0.228747
0.230759
0.233825
0.236971
0.241863
0.262041
0.284074
0.300828
0.31399
0.327102
0.341803
0.343473
0.32918
0.325644
0.319138
0.313296
0.314147
0.314106
0.301651
0.301388
0.419185
0.662267
0.582084
0.561334
0.58849
0.598679
0.616828
0.58761
0.59968
0.618681
0.528877
0.463646
0.43168
0.432059
0.408182
0.458434
0.503206
0.441922
0.37503
0.347308
0.339657
0.333349
0.304586
0.277927
0.255176
0.233789
0.213364
0.191648
0.173167
0.156711
0.141564
0.127277
0.114306
0.102477
0.0904934
0.0788184
0.06825
0.0584263
0.0496553
0.0431651
0.0359637
0.0265481
0.0161744
0.0100378
0.00985256
0.0126694
0.0151909
0.0165518
0.0166566
0.0162185
0.0196929
0.0226963
0.0251975
0.0274859
0.0298609
0.0320023
0.0339311
0.0356161
0.0370952
0.0384513
0.0397161
0.0414533
0.0430006
0.0443759
0.0456354
0.0468757
0.048117
0.049373
0.0506662
0.0518882
0.0530314
0.0551999
0.057742
0.0597773
0.0619002
0.0639627
0.0660612
0.0682785
0.0698687
0.0733481
0.0703578
0.0726841
0.0756204
0.0810299
0.128008
0.103073
0.0913559
0.0917159
0.0919091
0.0889085
0.0805074
0.0672823
0.0731314
0.0903479
0.0913171
0.100113
0.108502
0.0977544
0.0993224
0.110004
0.399288
0.65829
0.614194
0.591903
0.663731
0.632546
0.576985
0.51128
0.430998
0.394262
0.361426
0.296651
0.238589
0.193424
0.169792
0.115583
0.149441
0.200047
0.184967
0.146791
0.116849
0.122823
0.130654
0.116242
0.106936
0.103625
0.102546
0.10354
0.105573
0.1085
0.113071
0.120685
0.128649
0.135345
0.14104
0.147548
0.15396
0.160358
0.166277
0.168363
0.167529
0.164002
0.160714
0.157655
0.154823
0.152199
0.149785
0.147564
0.145532
0.143681
0.142855
0.142076
0.141399
0.1404
0.13965
0.139142
0.138894
0.138893
0.139071
0.139419
0.139945
0.140634
0.141544
0.142673
0.143873
0.14513
0.146504
0.147984
0.148214
0.147585
0.146887
0.1461
0.145875
0.145734
0.145726
0.14578
0.145832
0.145981
0.146389
0.146612
0.145955
0.145067
0.144998
0.144412
0.144257
0.144265
0.144316
0.154209
0.162421
0.159667
0.160392
0.167091
0.157238
0.155072
0.15088
0.144599
0.145089
0.147669
0.137567
0.126429
0.263089
0.505837
0.478364
0.375537
0.377544
0.40728
0.364895
0.308413
0.252693
0.230178
0.210625
0.221049
0.307585
0.332528
0.24716
0.229849
0.227378
0.202914
0.203861
0.205103
0.214181
0.22276
0.213425
0.204251
0.19711
0.190865
0.188483
0.186251
0.184047
0.18282
0.175683
0.168555
0.160788
0.153512
0.146701
0.140349
0.134432
0.128943
0.122413
0.116004
0.109566
0.104099
0.0996406
0.0956126
0.0920117
0.0888108
0.0860079
0.0835812
0.0815184
0.0798078
0.0784262
0.0773652
0.0766364
0.0761934
0.0759801
0.0760033
0.0762544
0.0768077
0.0776295
0.0786176
0.0797642
0.0810517
0.0824674
0.0841836
0.0861729
0.0882652
0.0904505
0.0936163
0.0976092
0.10086
0.10355
0.106302
0.109105
0.111954
0.114853
0.117798
0.120453
0.122393
0.124162
0.125961
0.128512
0.13063
0.132904
0.134964
0.138403
0.149036
0.152341
0.15505
0.161698
0.162933
0.155053
0.154396
0.150576
0.148531
0.150672
0.151071
0.147425
0.146562
0.147012
0.146934
0.191947
0.392071
0.387976
0.342118
0.355459
0.358338
0.346385
0.326313
0.287417
0.287647
0.368557
0.422731
0.392643
0.306511
0.258581
0.253771
0.250242
0.260754
0.234925
0.227323
0.217867
0.210124
0.206611
0.203155
0.189193
0.178964
0.169144
0.158064
0.14767
0.133516
0.120335
0.109892
0.100272
0.0912511
0.082796
0.074458
0.0660162
0.0581572
0.0508576
0.0440904
0.0385323
0.0359279
0.033634
0.0316542
0.0300112
0.0287111
0.0277614
0.0271579
0.0268826
0.0269175
0.0272287
0.0277815
0.0285565
0.0296009
0.0307696
0.0320337
0.0333647
0.0347581
0.0361895
0.037638
0.0390956
0.0405506
0.0419924
0.043418
0.0448307
0.0462341
0.0476217
0.0489834
0.0510025
0.0535503
0.0561907
0.0589176
0.0617295
0.0646224
0.0675986
0.070957
0.0743963
0.0749295
0.0749178
0.074825
0.074488
0.0787749
0.0885893
0.0974421
0.0990328
0.104652
0.107847
0.102353
0.102866
0.104587
0.105078
0.11312
0.120746
0.120981
0.122484
0.126104
0.129798
0.133433
0.134437
0.13868
0.194973
0.401935
0.433319
0.400784
0.364321
0.351244
0.33725
0.314977
0.325295
0.363779
0.378696
0.344502
0.295427
0.249948
0.227087
0.221788
0.227247
0.227006
0.227026
0.209505
0.199722
0.189853
0.180161
0.158897
0.138157
0.126343
0.112851
0.100151
0.0870999
0.0752676
0.0693774
0.0640003
0.0588688
0.0539746
0.0489199
0.0435489
0.0388923
0.0350822
0.0314027
0.027718
0.0242852
0.0211218
0.0182672
0.0157743
0.0137406
0.012282
0.0115009
0.0114451
0.0120434
0.0131392
0.0145716
0.0162072
0.0179578
0.0197644
0.0215811
0.0233801
0.0235018
0.0269343
0.0287345
0.0304679
0.0321576
0.0338059
0.0353984
0.0369514
0.0384692
0.0399509
0.0414012
0.0428183
0.0442003
0.0455611
0.0469052
0.0474646
0.048097
0.0489368
0.0494551
0.0503714
0.0575422
0.0640776
0.0660544
0.0692285
0.0646485
0.0542835
0.0481995
0.0479884
0.0468732
0.0551183
0.07048
0.0751294
0.0846748
0.0928547
0.0936306
0.0942223
0.0944589
0.0950202
0.0957043
0.096646
0.0986289
0.108264
0.11758
0.116985
0.224413
0.432046
0.408236
0.415508
0.400277
0.332261
0.284165
0.330685
0.394743
0.385273
0.353075
0.33062
0.296549
0.248062
0.222397
0.208614
0.191168
0.177621
0.174359
0.160863
0.142961
0.124369
0.113417
0.102514
0.0962036
0.0889473
0.081843
0.0732939
0.0653313
0.059544
0.0540501
0.0488356
0.0438923
0.039214
0.0348
0.0307247
0.0269512
0.0231801
0.0192337
0.0155957
0.012427
0.00938702
0.00647715
0.0037411
0.00156936
0.00236814
0.00468033
0.0070722
0.00942328
0.0117065
0.0139246
0.0160785
0.0181664
0.0201847
0.0221276
0.0240134
0.0258458
0.0270103
0.0281075
0.0297151
0.0313015
0.0328624
0.0343859
0.0358703
0.037249
0.0385926
0.0401111
0.0417965
0.0436363
0.0456214
0.0522911
0.0598225
0.0615771
0.0610034
0.0616448
0.0630097
0.0504039
0.0385217
0.0388715
0.0403816
0.0422503
0.0520047
0.0649017
0.0674982
0.0700387
0.0815545
0.0906134
0.0915147
0.0919341
0.091226
0.0911393
0.0927666
0.0927737
0.0905291
0.0898505
0.0899135
0.090368
0.0908807
0.0913363
0.0908164
0.22536
0.402216
0.38092
0.370621
0.378701
0.369512
0.347609
0.408879
0.435688
0.399166
0.358148
0.328055
0.287077
0.230239
0.184758
0.161765
0.146731
0.135448
0.122949
0.115038
0.099453
0.103135
0.109927
0.0941474
0.0804544
0.0722786
0.0671805
0.0623425
0.057819
0.0530909
0.04867
0.0444473
0.0403922
0.0365027
0.0327758
0.0292197
0.0258428
0.0228773
0.0204297
0.0181917
0.0161157
0.0145428
0.0135732
0.0132782
0.0136354
0.0145466
0.015873
0.0174815
0.0192786
0.0211849
0.023156
0.0251629
0.0271784
0.0291874
0.0311793
0.0331395
0.0345871
0.034514
0.0335643
0.0327219
0.0328094
0.0331494
0.0337443
0.0362398
0.0422715
0.0470419
0.0488937
0.0509331
0.05242
0.0531959
0.0553404
0.0544587
0.048462
0.0507174
0.0528951
0.0548032
0.0595332
0.0633896
0.0663809
0.0635675
0.0616527
0.0627167
0.0700589
0.0774896
0.0792358
0.0807873
0.0810935
0.0814062
0.0820814
0.082753
0.0832177
0.0836372
0.0840894
0.0849711
0.0873836
0.0918445
0.0981126
0.112551
0.126246
0.135493
0.181303
0.338258
0.33646
0.3568
0.359712
0.406579
0.463539
0.463705
0.424495
0.403433
0.371813
0.31956
0.260105
0.18942
0.15102
0.14073
0.135655
0.130912
0.125936
0.121367
0.117602
0.110859
0.084476
0.0792023
0.0896002
0.0841568
0.078119
0.0712056
0.0619745
0.0565352
0.0553716
0.0536618
0.0521745
0.0510583
0.0502413
0.0496547
0.049241
0.0489401
0.0485208
0.0478933
0.047246
0.0465677
0.04584
0.0454141
0.0453871
0.045141
0.0446848
0.0440207
0.0431677
0.0421447
0.0409738
0.0396902
0.0381895
0.0366468
0.0351245
0.0342295
0.0357885
0.0379891
0.0384082
0.0387981
0.0395497
0.0406537
0.0420813
0.0438218
0.0457992
0.0500738
0.0566305
0.0609487
0.0594662
0.0650966
0.0677609
0.0693938
0.0681025
0.0676012
0.0704777
0.0662174
0.0624611
0.060334
0.0608652
0.067131
0.0733461
0.0742658
0.0753257
0.0762059
0.0770788
0.0781587
0.079452
0.080686
0.0818996
0.0835026
0.086551
0.0920393
0.101743
0.118752
0.132269
0.136798
0.143794
0.151796
0.153972
0.15098
0.168318
0.326936
0.321094
0.339201
0.361321
0.451954
0.536403
0.497557
0.438196
0.391922
0.342989
0.287687
0.236388
0.192515
0.162586
0.15324
0.149529
0.147325
0.143436
0.140582
0.137925
0.135452
0.132454
0.131065
0.109272
0.0951512
0.0917155
0.0816192
0.0705897
0.0659154
0.062059
0.0584237
0.0550438
0.0518793
0.0489025
0.0469527
0.0461178
0.0451603
0.0441375
0.0431512
0.0421577
0.041137
0.040142
0.0390963
0.0378331
0.0364773
0.0351502
0.0338785
0.0326983
0.0316631
0.0308227
0.0303542
0.0302549
0.0304122
0.0309754
0.032135
0.0331457
0.0343785
0.0361416
0.040799
0.0470996
0.0545007
0.0626941
0.0644056
0.0686073
0.0781134
0.0815764
0.0829016
0.0812392
0.0756046
0.0750976
0.0696716
0.0640941
0.059081
0.0583858
0.0593928
0.0646412
0.0689412
0.0697673
0.0709714
0.0720745
0.0731603
0.0741201
0.0758459
0.0815997
0.0877286
0.0925559
0.0988557
0.10802
0.122295
0.134879
0.142707
0.15015
0.155957
0.157358
0.162642
0.170122
0.172616
0.171786
0.174554
0.157729
0.31513
0.311461
0.323937
0.417771
0.52331
0.521289
0.492769
0.460371
0.378198
0.293125
0.266888
0.238776
0.204483
0.173566
0.150889
0.146228
0.153202
0.152989
0.149751
0.146537
0.143485
0.140213
0.137913
0.135896
0.135415
0.119591
0.098912
0.0866362
0.0811315
0.0694273
0.0592665
0.0506138
0.0440431
0.0414018
0.0400517
0.0370688
0.0329401
0.0295224
0.0265978
0.0240278
0.0218638
0.0202932
0.0199683
0.0197356
0.0201267
0.0210513
0.0224056
0.0240726
0.0259606
0.0280034
0.0301377
0.0362839
0.044067
0.0520132
0.0602243
0.0691955
0.078235
0.0836128
0.0904494
0.0998263
0.10347
0.10421
0.10546
0.0973793
0.0912067
0.0864636
0.0774803
0.0683017
0.0601078
0.056303
0.0541275
0.0568357
0.0631174
0.0676065
0.0719217
0.0755473
0.0775812
0.0799098
0.0831405
0.0867483
0.0894026
0.097289
0.111581
0.125644
0.138863
0.150548
0.157304
0.163829
0.169331
0.171765
0.17418
0.176596
0.178973
0.181407
0.183753
0.183554
0.182218
0.181293
0.181705
0.141637
0.29298
0.302597
0.359151
0.492481
0.538603
0.509383
0.472354
0.406376
0.353947
0.322949
0.303115
0.287907
0.261029
0.22392
0.176212
0.132612
0.112166
0.108889
0.118669
0.122064
0.122075
0.12188
0.1216
0.119614
0.118512
0.117055
0.118151
0.120617
0.109909
0.0986029
0.0886205
0.0795903
0.0754832
0.0718447
0.0639756
0.0560109
0.0493278
0.0437061
0.0389875
0.0352103
0.0324856
0.0311125
0.0304546
0.0304945
0.0324198
0.0354428
0.0397614
0.0453297
0.0514819
0.0581567
0.0638815
0.0701152
0.0775918
0.0856131
0.093531
0.100932
0.0990088
0.0970871
0.0866738
0.0772269
0.0711957
0.0638521
0.055447
0.0475029
0.0440793
0.0487569
0.053005
0.0571765
0.0674755
0.076741
0.0815052
0.0868059
0.0907298
0.0942455
0.0977999
0.101592
0.105775
0.115514
0.126164
0.134851
0.148291
0.162609
0.170562
0.175379
0.179195
0.179411
0.179604
0.179793
0.179987
0.180183
0.180365
0.180631
0.180995
0.183674
0.18626
0.188146
0.187356
0.186778
0.185999
0.140959
0.278841
0.313986
0.459271
0.552802
0.533194
0.473835
0.382244
0.334987
0.329125
0.320856
0.310981
0.302002
0.293098
0.279895
0.258164
0.223498
0.180427
0.138034
0.102005
0.0788235
0.0788366
0.0773251
0.0720056
0.0687014
0.0698891
0.0741168
0.0806247
0.0855473
0.0894735
0.0927205
0.093146
0.0939162
0.0927855
0.0856488
0.0794651
0.074391
0.0703801
0.0673909
0.065389
0.0643518
0.0642247
0.0648241
0.0651683
0.065615
0.0656911
0.0661342
0.0677547
0.0700466
0.072445
0.0753229
0.0786568
0.073353
0.0637239
0.0538856
0.0440075
0.0394067
0.0419596
0.0394581
0.0398785
0.0434021
0.0471246
0.0516783
0.0570512
0.0632035
0.0753542
0.0861993
0.0909873
0.0959923
0.101211
0.103544
0.105842
0.108102
0.112093
0.120005
0.127279
0.134777
0.146911
0.159617
0.165975
0.170793
0.175934
0.177191
0.178737
0.180317
0.181867
0.182532
0.18427
0.187379
0.190472
0.193547
0.196683
0.199106
0.20146
0.203895
0.202283
0.197266
0.193578
0.193204
0.193317
0.142274
0.294861
0.442355
0.583003
0.55809
0.446387
0.347719
0.328178
0.315159
0.302905
0.291865
0.281929
0.272993
0.265003
0.25727
0.25043
0.240663
0.225774
0.19974
0.168215
0.133757
0.0977307
0.0663948
0.0591004
0.0641376
0.0668409
0.0685676
0.0693663
0.0694597
0.0693594
0.0697734
0.070693
0.0717738
0.0722661
0.0721731
0.0720756
0.0719558
0.0718129
0.0716442
0.0714362
0.0711989
0.0693264
0.0658541
0.0630401
0.0608311
0.0586325
0.0570106
0.0554563
0.0517848
0.0442541
0.0367247
0.0310115
0.0303876
0.0300517
0.030365
0.033956
0.0399532
0.0438343
0.0480839
0.0526214
0.0581144
0.0673385
0.0759161
0.0819805
0.0883384
0.0948013
0.0977595
0.100882
0.105352
0.109593
0.116421
0.123567
0.131014
0.142997
0.154372
0.161266
0.167541
0.173684
0.175816
0.17728
0.178787
0.182889
0.187498
0.192136
0.196363
0.199585
0.203983
0.211134
0.215734
0.215833
0.215876
0.214246
0.209327
0.205204
0.20179
0.198361
0.195923
0.196212
0.196138
0.196316
0.155055
0.421676
0.591897
0.556559
0.414675
0.311264
0.319138
0.32052
0.306589
0.293703
0.281828
0.270938
0.260936
0.251823
0.243526
0.235003
0.225743
0.21705
0.206445
0.194065
0.170758
0.144109
0.116521
0.0981121
0.0766399
0.0638824
0.0662928
0.0700995
0.0714114
0.0728361
0.0731982
0.0724179
0.0717165
0.0708181
0.0696739
0.0681606
0.0665355
0.0648253
0.0630442
0.0570827
0.050181
0.0438483
0.0388695
0.0337127
0.0276679
0.0224538
0.0171648
0.0115308
0.0119102
0.0173232
0.020519
0.0257723
0.031961
0.0368725
0.0405997
0.0441312
0.0517986
0.0614771
0.0685963
0.0753183
0.0820242
0.0882314
0.0929084
0.0977613
0.10136
0.105714
0.112717
0.11984
0.126837
0.137122
0.148057
0.154637
0.161166
0.167553
0.169741
0.171282
0.173553
0.177785
0.182005
0.186025
0.192247
0.198932
0.203589
0.207724
0.209887
0.209945
0.211226
0.209869
0.203406
0.198368
0.194861
0.1859
0.178879
0.174728
0.170437
0.166231
0.162308
0.158564
0.154932
0.145999
0.284641
0.580977
0.578604
0.421197
0.318886
0.303232
0.300636
0.306478
0.300183
0.285488
0.274038
0.262981
0.251187
0.240038
0.230934
0.224262
0.216541
0.207379
0.196469
0.18877
0.180767
0.166656
0.1493
0.125118
0.103746
0.0900099
0.0800996
0.0685035
0.0601343
0.0565116
0.0528629
0.0517939
0.0517775
0.0512191
0.0491649
0.0461795
0.0430697
0.0372707
0.0287761
0.0201893
0.0137
0.00919234
0.00533632
0.00302872
0.00956338
0.0169852
0.0255105
0.0357322
0.0451658
0.0511954
0.0579926
0.0659285
0.0734029
0.0788072
0.0839973
0.0899033
0.0970248
0.100739
0.102626
0.103905
0.10537
0.110807
0.117129
0.122213
0.128273
0.137123
0.145261
0.150884
0.156611
0.16258
0.164041
0.165045
0.167974
0.171374
0.174747
0.178888
0.185477
0.191328
0.194998
0.198642
0.199568
0.197848
0.195939
0.188238
0.175271
0.164796
0.157444
0.150469
0.145184
0.140855
0.127554
0.116091
0.113834
0.111082
0.108689
0.107135
0.106098
0.105356
0.104818
0.101079
0.455026
0.625801
0.437212
0.297779
0.265195
0.264248
0.281008
0.286609
0.291252
0.282759
0.268271
0.257737
0.246546
0.23355
0.222555
0.212884
0.202255
0.193811
0.186102
0.177475
0.171426
0.163627
0.155444
0.146824
0.13326
0.11681
0.100044
0.0887133
0.0779132
0.0682679
0.0601223
0.0532341
0.0471042
0.0410075
0.0368467
0.0369881
0.0380118
0.0415884
0.0475491
0.0501944
0.053138
0.0574764
0.0632518
0.0692132
0.0740035
0.0790251
0.0842209
0.0894933
0.0947009
0.0998864
0.105255
0.109382
0.111909
0.114877
0.120262
0.12576
0.130057
0.132522
0.134513
0.13663
0.141393
0.147
0.149786
0.152034
0.155875
0.159865
0.160891
0.164007
0.167313
0.170483
0.173704
0.179653
0.186262
0.190825
0.194766
0.195466
0.188778
0.180125
0.171927
0.160298
0.147611
0.139334
0.127666
0.111752
0.102813
0.100428
0.0986734
0.097586
0.097207
0.0975527
0.0985394
0.0994316
0.100308
0.101134
0.102015
0.10274
0.103663
0.104669
0.098681
0.0911549
0.461877
0.446085
0.324774
0.303086
0.286882
0.272752
0.261168
0.256789
0.245022
0.238973
0.246843
0.248211
0.233943
0.21823
0.206081
0.203813
0.199523
0.190569
0.180185
0.17052
0.162404
0.155584
0.149636
0.144409
0.139736
0.135503
0.128258
0.12034
0.111573
0.10192
0.0942476
0.0901803
0.0904289
0.0919265
0.0929884
0.095187
0.0985238
0.0991653
0.0999148
0.101019
0.102915
0.105587
0.108446
0.110999
0.113927
0.116791
0.119789
0.122129
0.12457
0.127189
0.129971
0.132903
0.136131
0.140492
0.144992
0.148601
0.152301
0.156081
0.159922
0.163693
0.167149
0.168477
0.169241
0.170933
0.173637
0.175389
0.177737
0.180304
0.176776
0.173279
0.170662
0.16604
0.158766
0.151534
0.140213
0.119692
0.10368
0.0976996
0.0931118
0.0901346
0.0894199
0.089657
0.0905501
0.0917534
0.0927917
0.0937944
0.094757
0.0956885
0.0966065
0.0975245
0.0984372
0.0993169
0.100188
0.101017
0.101925
0.102981
0.0977694
0.0915765
0.0919645
0.094153
0.306208
0.339944
0.320882
0.301028
0.288919
0.280266
0.281263
0.280694
0.273043
0.257924
0.247199
0.230758
0.212036
0.195033
0.181528
0.184531
0.187276
0.176574
0.169246
0.165659
0.161291
0.154893
0.149661
0.145368
0.141765
0.138629
0.135828
0.133701
0.133387
0.13149
0.131505
0.132233
0.132654
0.134028
0.13371
0.131383
0.129679
0.128492
0.127823
0.127635
0.127933
0.128691
0.129865
0.13142
0.133332
0.135566
0.13817
0.141319
0.144674
0.14821
0.151548
0.154797
0.158141
0.161409
0.161414
0.158958
0.156481
0.153946
0.151766
0.149923
0.149719
0.150118
0.148992
0.147767
0.145204
0.141223
0.135613
0.123356
0.110667
0.103682
0.0951295
0.0863927
0.0819402
0.079846
0.0798373
0.0820368
0.084105
0.0855559
0.0868233
0.0880702
0.0892787
0.0903891
0.0914613
0.0925184
0.0935538
0.0945556
0.0955218
0.0964658
0.0973979
0.0979581
0.0984891
0.0992777
0.100083
0.101152
0.0959304
0.091265
0.0933606
0.09387
0.0941985
0.0946993
0.23678
0.338103
0.323654
0.309543
0.298494
0.285681
0.278443
0.275115
0.268436
0.256825
0.24431
0.229536
0.217698
0.203241
0.189941
0.17806
0.160896
0.146322
0.132194
0.127013
0.131531
0.130966
0.126514
0.124212
0.123406
0.124137
0.125601
0.125915
0.127498
0.12926
0.131182
0.134481
0.133714
0.130979
0.12818
0.125451
0.122807
0.120521
0.118714
0.116909
0.115094
0.113274
0.111454
0.109629
0.108103
0.107089
0.106109
0.105163
0.104265
0.103317
0.102567
0.101977
0.101688
0.100878
0.0982363
0.0960106
0.0953528
0.0950343
0.0950858
0.0947471
0.0936665
0.0892197
0.0848865
0.0811284
0.0779399
0.0729864
0.0681394
0.0669008
0.0684992
0.0715139
0.0741326
0.0756689
0.0771698
0.0785915
0.0799303
0.0812375
0.0825191
0.0837521
0.0849718
0.0862742
0.0883036
0.0902202
0.091358
0.0924883
0.0936094
0.0946387
0.0955358
0.0963912
0.0972457
0.0981437
0.100587
0.102968
0.0969452
0.091302
0.0927798
0.0932736
0.0940448
0.0946692
0.0951713
0.095445
0.244423
0.345056
0.329544
0.310303
0.294104
0.278542
0.267674
0.265772
0.262767
0.249004
0.234244
0.221555
0.207091
0.19586
0.186623
0.174188
0.161994
0.151075
0.140822
0.132226
0.12192
0.109796
0.0980152
0.0880311
0.0799499
0.0732151
0.0693152
0.0669857
0.0633448
0.0616608
0.0584161
0.0541979
0.0512909
0.0489765
0.0469021
0.0450266
0.0434866
0.0420239
0.0408578
0.0390768
0.036555
0.0344382
0.0327699
0.0317391
0.0316419
0.0320487
0.0326101
0.0336601
0.0351705
0.0373541
0.0397914
0.0420232
0.0443701
0.0467003
0.0490573
0.0515357
0.0539644
0.0562182
0.0580457
0.0589748
0.057509
0.0567234
0.0584718
0.0601811
0.0618632
0.0635052
0.0649789
0.0663912
0.0677706
0.0691516
0.070536
0.073111
0.0764392
0.0785611
0.0799218
0.0811275
0.082389
0.0836473
0.0848331
0.0860034
0.087134
0.0882008
0.0892108
0.0902167
0.0920038
0.0950821
0.0976988
0.0990025
0.100013
0.0999787
0.0940674
0.0896466
0.0913344
0.0920435
0.0928178
0.0934473
0.0942601
0.0949228
0.0954657
0.0961702
0.249394
0.343653
0.322596
0.302263
0.285273
0.268913
0.260214
0.260357
0.258001
0.244383
0.231496
0.218838
0.206522
0.194767
0.181094
0.168922
0.160583
0.151631
0.140919
0.131701
0.123841
0.115518
0.106789
0.0991511
0.092611
0.084916
0.0736431
0.0631032
0.0565327
0.0507529
0.0465109
0.0430596
0.0400128
0.0373715
0.0351467
0.0330337
0.0311047
0.0295599
0.0286043
0.0279155
0.027359
0.0272968
0.0277251
0.0285737
0.0300049
0.0319763
0.0341955
0.0367734
0.0401827
0.0433204
0.0466205
0.0501335
0.0537016
0.0564965
0.057282
0.0583893
0.0612541
0.0640716
0.0668386
0.069392
0.0713925
0.0721324
0.0728528
0.0735853
0.0743332
0.0743211
0.0739253
0.0742582
0.074942
0.0756526
0.0763848
0.0771308
0.0782853
0.0797835
0.0832679
0.0867089
0.0873374
0.0869319
0.0868978
0.0876502
0.0893829
0.0915738
0.0928404
0.0936237
0.0944204
0.0952578
0.096315
0.0953684
0.0906947
0.0886263
0.0903682
0.0909959
0.0916054
0.0919906
0.0926541
0.0932802
0.0940901
0.0947559
0.0952927
0.0959841
0.246903
0.33625
0.314489
0.293568
0.278802
0.268812
0.259482
0.2571
0.255199
0.242171
0.228753
0.215767
0.203529
0.192558
0.182728
0.174576
0.16612
0.155161
0.144795
0.13661
0.128151
0.118003
0.107886
0.0990727
0.0885228
0.0779614
0.07
0.0662721
0.0633502
0.0625445
0.0621052
0.0594841
0.0566748
0.0542909
0.0521914
0.0504669
0.0510315
0.0499563
0.0506114
0.0508822
0.0505854
0.0507929
0.0514565
0.052409
0.0537635
0.0550831
0.0563787
0.0571246
0.0583666
0.0605889
0.0627496
0.065019
0.0675963
0.0702959
0.0726815
0.0736784
0.0747262
0.075813
0.076922
0.0782357
0.0796349
0.0808897
0.082072
0.0832525
0.0844579
0.0856494
0.0864397
0.0870544
0.0876689
0.0883023
0.0889414
0.0884279
0.0872149
0.0866283
0.0867363
0.0881522
0.0910373
0.0944652
0.0963364
0.0964005
0.0966589
0.0972722
0.0981009
0.0992978
0.101724
0.100203
0.0945971
0.0929976
0.0944641
0.0949031
0.0953738
0.0959161
0.0975887
0.0979358
0.0965458
0.0962314
0.0966692
0.0969048
0.0970282
0.0982725
0.24422
0.328359
0.305438
0.290348
0.281601
0.27041
0.257142
0.254739
0.250448
0.238784
0.225418
0.214081
0.20425
0.19579
0.187097
0.177787
0.168634
0.160188
0.15129
0.141651
0.135859
0.13113
0.125344
0.118169
0.112049
0.108228
0.105211
0.102788
0.100099
0.0973241
0.0924621
0.0873996
0.0829247
0.0789877
0.0756025
0.073184
0.0716003
0.0703192
0.0693931
0.0688581
0.0686247
0.0683047
0.0682727
0.068541
0.0691452
0.0701436
0.0712334
0.0722626
0.072077
0.0723491
0.0727484
0.0732835
0.0739131
0.0746112
0.0753717
0.0761861
0.0770417
0.077935
0.0788492
0.0797881
0.0808906
0.0820315
0.0831171
0.0842598
0.0854165
0.0863362
0.0867521
0.0871899
0.0876477
0.0881405
0.0898082
0.0917197
0.0922472
0.0923826
0.0925638
0.092795
0.0932422
0.0941263
0.0975536
0.100653
0.100765
0.100751
0.102734
0.0999073
0.0955979
0.0965191
0.0985082
0.099113
0.0996713
0.100225
0.100774
0.101309
0.101868
0.102753
0.103306
0.103874
0.105009
0.105701
0.106392
0.107477
0.240593
0.319006
0.304459
0.294646
0.281825
0.268208
0.255719
0.251417
0.246211
0.238554
0.229086
0.220389
0.210351
0.199876
0.189937
0.181554
0.175731
0.171606
0.167464
0.169154
0.170861
0.162435
0.153172
0.145517
0.139994
0.133638
0.127689
0.121666
0.115667
0.110616
0.105926
0.101685
0.0978846
0.0946055
0.0918014
0.0893079
0.0865401
0.0840768
0.0817675
0.0796251
0.0776595
0.0759932
0.0745426
0.0734456
0.0726341
0.0723753
0.0723065
0.0723965
0.0726877
0.0730427
0.0734457
0.0739585
0.0745744
0.0752686
0.0760286
0.076851
0.0777241
0.0786477
0.0796019
0.080514
0.0807744
0.0811477
0.0813867
0.0816233
0.0824392
0.0841283
0.0855211
0.0860901
0.0866711
0.0872807
0.0879092
0.0889916
0.0901258
0.0912583
0.0923734
0.0934576
0.0945043
0.0955267
0.0965568
0.0995662
0.105417
0.105193
0.102635
0.105063
0.105178
0.102752
0.100667
0.100518
0.100427
0.100838
0.101521
0.102162
0.102798
0.103463
0.1054
0.107241
0.109397
0.109009
0.107736
0.10875
0.237954
0.319667
0.308541
0.293142
0.279576
0.267236
0.257113
0.251332
0.250608
0.247068
0.236219
0.224053
0.213064
0.206564
0.205242
0.20439
0.205532
0.203823
0.199913
0.193526
0.176712
0.161129
0.151343
0.143745
0.137417
0.131469
0.125834
0.120517
0.115508
0.11079
0.106363
0.102145
0.0981806
0.094508
0.0910843
0.0879243
0.0850636
0.0825454
0.0801444
0.0780062
0.0762138
0.0750922
0.0742536
0.0736248
0.0732012
0.0729835
0.0729418
0.0729556
0.0731222
0.073409
0.0738047
0.074307
0.074906
0.0752813
0.075219
0.0752519
0.0753647
0.0755559
0.0758995
0.0772544
0.0786674
0.0792909
0.0800626
0.0804576
0.0810129
0.081874
0.083111
0.0843302
0.0855313
0.086725
0.0878991
0.0890289
0.0901426
0.0912486
0.0923466
0.0934329
0.0944731
0.0965624
0.0978926
0.0956858
0.0955047
0.101875
0.106072
0.107408
0.108086
0.108585
0.108242
0.107933
0.106247
0.104394
0.104916
0.106177
0.107193
0.105686
0.104639
0.106626
0.108769
0.110763
0.111585
0.112701
0.245832
0.322655
0.306514
0.29293
0.280993
0.269367
0.259668
0.257244
0.256026
0.248022
0.235586
0.233165
0.234942
0.239144
0.237615
0.230769
0.22227
0.210205
0.193499
0.176374
0.162673
0.155353
0.148402
0.141792
0.135518
0.129586
0.123974
0.118663
0.11367