/*--------------------------------*- C++ -*----------------------------------*\
| =========                 |                                                 |
| \\      /  F ield         | foam-extend: Open Source CFD                    |
|  \\    /   O peration     | Version:     4.1                                |
|   \\  /    A nd           | Web:         http://www.foam-extend.org         |
|    \\/     M anipulation  |                                                 |
\*---------------------------------------------------------------------------*/
FoamFile
{
    version     2.0;
    format      ascii;
    class       volScalarField;
    location    "1";
    object      sigmaHyd;
}
// * * * * * * * * * * * * * * * * * * * * * * * * * * * * * * * * * * * * * //

dimensions      [1 -1 -2 0 0 0 0];

internalField   nonuniform List<scalar> 
100000
(
-47061.8
-46941.3
-46964.6
-46914.4
-46903.7
-46873.7
-46854.9
-46831.4
-46811.4
-46790.6
-46771.3
-46752.1
-46733.7
-46715.8
-46698.4
-46681.5
-46665.2
-46649.3
-46633.8
-46618.8
-46604.2
-46590
-46576.2
-46562.7
-46549.7
-46536.8
-46524.5
-46512.2
-46500.6
-46488.1
-46477.6
-46462.4
-46452.5
-46447.3
-46435.5
-46425.2
-46415.4
-46405.4
-46396
-46386.6
-46377.5
-46368.5
-46359.8
-46351.2
-46342.8
-46334.6
-46326.5
-46318.6
-46310.8
-46303.2
-46295.6
-46288.3
-46281
-46273.9
-46266.9
-46260
-46253.2
-46246.5
-46239.9
-46233.4
-46227
-46220.7
-46214.4
-46208.3
-46202.2
-46196.2
-46190.2
-46184.4
-46178.6
-46172.8
-46167.2
-46161.6
-46156
-46150.5
-46145.2
-46139.8
-46134.5
-46129.2
-46124.1
-46118.9
-46113.7
-46108.6
-46103.6
-46098.5
-46093.6
-46088.4
-46083.4
-46078.4
-46073.4
-46068.5
-46063.7
-46059
-46054.5
-46049.9
-46046.1
-46041.7
-46040.3
-46035.1
-46042.7
-46014.5
-48766
-48603.9
-48598.3
-48514
-48473.3
-48412.5
-48364.6
-48312.4
-48264.6
-48216.7
-48171
-48126.1
-48082.7
-48040.4
-47999.3
-47959.3
-47920.3
-47882.4
-47845.5
-47809.5
-47774.5
-47740.3
-47707
-47674.5
-47642.9
-47612
-47582.3
-47552.6
-47526.1
-47496.2
-47480.9
-47439.5
-47432.4
-47387.2
-47376.8
-47339.9
-47317.7
-47291.7
-47268.8
-47245.6
-47223.4
-47201.5
-47180.2
-47159.3
-47138.8
-47118.7
-47098.9
-47079.6
-47060.6
-47042
-47023.7
-47005.7
-46988.1
-46970.7
-46953.7
-46937
-46920.5
-46904.3
-46888.4
-46872.8
-46857.4
-46842.2
-46827.3
-46812.6
-46798.1
-46783.8
-46769.8
-46755.9
-46742.2
-46728.8
-46715.5
-46702.4
-46689.5
-46676.8
-46664.3
-46651.9
-46639.8
-46627.6
-46615.8
-46603.9
-46592.1
-46580.6
-46569.3
-46557.9
-46547
-46535.8
-46524.7
-46513.8
-46503
-46492.4
-46482
-46471.7
-46461.7
-46451.6
-46442.4
-46432.3
-46425.5
-46413.6
-46415.7
-46375.9
-50469.4
-50265.7
-50231.1
-50112.8
-50042.1
-49950.6
-49873.6
-49792.6
-49717.2
-49642.1
-49570.1
-49499.5
-49431.1
-49364.4
-49299.6
-49236.4
-49174.9
-49115
-49056.6
-48999.7
-48944.2
-48890
-48837.3
-48785.7
-48735.5
-48686.4
-48638.6
-48591.7
-48546.2
-48501.5
-48458
-48416.9
-48369.5
-48327.4
-48291.8
-48251.8
-48214.5
-48176.6
-48140.1
-48103.9
-48068.7
-48034
-48000.2
-47966.9
-47934.3
-47902.4
-47871.1
-47840.3
-47810.1
-47780.5
-47751.4
-47722.9
-47694.8
-47667.3
-47640.3
-47613.7
-47587.6
-47562
-47536.8
-47512
-47487.6
-47463.6
-47440
-47416.7
-47393.8
-47371.3
-47349.1
-47327.3
-47305.7
-47284.5
-47263.6
-47243
-47222.7
-47202.7
-47183.1
-47163.6
-47144.6
-47125.7
-47107.4
-47089.1
-47070.7
-47052.7
-47035.5
-47017.8
-47001.9
-46983.9
-46966.7
-46949.5
-46932.8
-46916.3
-46900.3
-46884.5
-46869.2
-46853.6
-46839.5
-46823.4
-46812.3
-46792.4
-46791
-46735.1
-52171.5
-51926.2
-51862.8
-51710.5
-51609.8
-51487.5
-51381.5
-51271.8
-51168.6
-51066.5
-50968.1
-50871.9
-50778.5
-50687.5
-50599
-50512.7
-50428.6
-50346.7
-50266.8
-50189
-50113.1
-50039
-49966.7
-49896.2
-49827.4
-49760.2
-49694.6
-49630.4
-49568.1
-49506.2
-49446.6
-49386.3
-49320.3
-49272.3
-49219.5
-49165.4
-49113.6
-49061.7
-49011.5
-48961.9
-48913.6
-48866.1
-48819.6
-48774.1
-48729.4
-48685.6
-48642.6
-48600.5
-48559.1
-48518.5
-48478.7
-48439.6
-48401.1
-48363.4
-48326.4
-48290
-48254.2
-48219.2
-48184.7
-48150.8
-48117.4
-48084.6
-48052.3
-48020.5
-47989.2
-47958.4
-47928.1
-47898.3
-47868.9
-47839.9
-47811.5
-47783.4
-47755.8
-47728.5
-47701.9
-47675.4
-47649.8
-47623.9
-47599.3
-47573.6
-47547.9
-47523.8
-47500.2
-47476.2
-47454.6
-47430.8
-47406.5
-47384.2
-47361.5
-47339.6
-47317.9
-47296.6
-47275.7
-47254.7
-47235.1
-47213.4
-47196.9
-47170.9
-47164.2
-47101.3
-53871.9
-53585.1
-53492.9
-53306.6
-53176
-53023
-52887.9
-52749.5
-52618.7
-52489.5
-52364.9
-52243
-52124.7
-52009.3
-51897.1
-51787.7
-51681.1
-51577.2
-51475.9
-51377.2
-51280.8
-51186.8
-51095.1
-51005.6
-50918.2
-50832.8
-50749.5
-50667.9
-50588.3
-50510.4
-50434
-50359.6
-50285.1
-50214.4
-50145.4
-50077.3
-50011
-49945.5
-49881.7
-49818.9
-49757.5
-49697.3
-49638.3
-49580.5
-49523.7
-49468.1
-49413.6
-49360
-49307.5
-49255.9
-49205.3
-49155.6
-49106.9
-49058.9
-49011.9
-48965.6
-48920.3
-48875.8
-48832
-48789
-48746.7
-48705
-48664.1
-48623.8
-48584.1
-48545
-48506.6
-48468.8
-48431.5
-48394.8
-48358.7
-48323
-48288
-48253.3
-48219.5
-48185.6
-48153.4
-48120.1
-48089.9
-48060.3
-48026.3
-47994
-47966.1
-47935.1
-47917.6
-47881.4
-47849.2
-47818.4
-47790.3
-47762.1
-47735.1
-47708.1
-47682
-47655.4
-47630.6
-47603.3
-47581.6
-47549.9
-47538.3
-47468.9
-55570.2
-55241.9
-55121
-54900.7
-54740.3
-54556.5
-54392.5
-54225.5
-54067
-53910.8
-53759.9
-53612.4
-53469.2
-53329.6
-53193.7
-53061.2
-52932.1
-52806.3
-52683.6
-52563.9
-52447.2
-52333.3
-52222.2
-52113.7
-52007.7
-51904.2
-51803.2
-51704.3
-51607.8
-51513.2
-51420.6
-51330.1
-51240.2
-51155.2
-51071
-50988.6
-50907.9
-50828.7
-50751.1
-50675.1
-50600.6
-50527.6
-50456.1
-50385.9
-50317.2
-50249.7
-50183.6
-50118.7
-50055
-49992.5
-49931.1
-49870.8
-49811.7
-49753.5
-49696.5
-49640.4
-49585.5
-49531.7
-49478.7
-49426.6
-49375.3
-49324.8
-49275.2
-49226.4
-49178.3
-49131
-49084.5
-49038.7
-48993.6
-48949.2
-48905.5
-48862.4
-48820.2
-48778.3
-48737.7
-48697
-48659
-48618.5
-48587.9
-48542.9
-48495.2
-48463.6
-48428.2
-48388.9
-48366
-48328.3
-48279.3
-48252.4
-48216.8
-48184.8
-48151.8
-48119.6
-48087.9
-48055.8
-48025.6
-47992.9
-47966
-47928.8
-47912.4
-47837.4
-57266
-56896.3
-56746.7
-56492.5
-56302.2
-56087.9
-55894.9
-55699.3
-55513.2
-55330
-55152.9
-54979.9
-54811.8
-54647.9
-54488.3
-54332.8
-54181.3
-54033.6
-53889.5
-53749
-53611.9
-53478.2
-53347.6
-53220.2
-53095.7
-52974.1
-52855.4
-52739.3
-52625.8
-52514.8
-52406.2
-52300.2
-52196
-52094.7
-51995.6
-51898.5
-51803.5
-51710.5
-51619.3
-51530
-51442.5
-51356.7
-51272.7
-51190.3
-51109.5
-51030.3
-50952.5
-50876.3
-50801.5
-50728.1
-50656
-50585.2
-50515.8
-50447.3
-50380.5
-50314.3
-50249.5
-50186.6
-50124.5
-50063.3
-50003.1
-49943.8
-49885.6
-49828.2
-49771.8
-49716.2
-49661.6
-49607.8
-49554.8
-49502.7
-49451.3
-49400.6
-49350.9
-49301.2
-49253.1
-49203
-49158.4
-49101
-49070.5
-48994.3
-48978.9
-48918
-48878.8
-48832.7
-48840.4
-48741.3
-48717.7
-48671.8
-48642.2
-48603
-48567.1
-48529.3
-48492.8
-48455.4
-48420
-48382
-48350
-48307.5
-48286.3
-48205.7
-58958.9
-58547.9
-58369.6
-58081.6
-57861.5
-57616.6
-57394.7
-57170.6
-56956.9
-56746.8
-56543.5
-56345
-56152.1
-55964
-55780.8
-55602.3
-55428.4
-55258.8
-55093.4
-54932.1
-54774.7
-54621.1
-54471.2
-54324.8
-54181.9
-54042.2
-53905.8
-53772.5
-53642.2
-53514.8
-53390
-53268.2
-53148.8
-53032.5
-52918.5
-52807
-52697.8
-52590.9
-52486.2
-52383.6
-52283
-52184.5
-52088
-51993.3
-51900.5
-51809.5
-51720.2
-51632.6
-51546.7
-51462.3
-51379.6
-51298.1
-51218.4
-51139.4
-51062.7
-50986.1
-50912.5
-50841.3
-50769.3
-50699.2
-50629.9
-50561.9
-50494.9
-50429
-50364.2
-50300.5
-50237.8
-50176
-50115.3
-50055.5
-49996.6
-49938.6
-49881.4
-49825.1
-49769.5
-49714.8
-49660
-49607.9
-49549.1
-49508.2
-49463.8
-49406.3
-49356.2
-49310.5
-49252.5
-49210.7
-49173.9
-49119.5
-49075.7
-49029.1
-48985.3
-48941.1
-48898.4
-48855.3
-48814.3
-48770.9
-48733.7
-48685.8
-48659.9
-48573.7
-60648.5
-60196.2
-59989.3
-59667.5
-59417.7
-59142.3
-58891.6
-58639
-58397.8
-58160.8
-57931.4
-57707.5
-57489.7
-57277.5
-57070.8
-56869.4
-56673
-56481.6
-56294.9
-56112.8
-55935.2
-55761.8
-55592.6
-55427.3
-55265.9
-55108.3
-54954.3
-54803.8
-54656.7
-54512.8
-54372.1
-54234.6
-54100
-53968.4
-53839.7
-53713.7
-53590.4
-53469.6
-53351.3
-53235.5
-53121.9
-53010.7
-52901.7
-52794.8
-52690
-52587.3
-52486.5
-52387.6
-52290.7
-52195.5
-52102.2
-52010.3
-51920.8
-51831.3
-51745.6
-51657.7
-51571.7
-51492.8
-51413.9
-51333.6
-51256.1
-51178.7
-51103.3
-51028.8
-50955.7
-50883.7
-50812.9
-50743.2
-50674.7
-50607.2
-50540.8
-50475.3
-50410.9
-50347.3
-50284.9
-50223
-50162.9
-50102.8
-50045.3
-49990.3
-49931.3
-49873.2
-49820
-49764.4
-49721.5
-49661.4
-49606.7
-49551.7
-49500.9
-49449.5
-49400
-49350.5
-49302.4
-49253.9
-49207.7
-49159
-49116.6
-49063.6
-49032.8
-48941.3
-62334.3
-61840.9
-61605.4
-61250
-60970.6
-60664.7
-60385.2
-60104.1
-59835.6
-59571.8
-59316.3
-59066.9
-58824.5
-58588.1
-58358
-58133.6
-57915
-57701.8
-57493.8
-57291
-57093.1
-56900
-56711.5
-56527.4
-56347.7
-56172.1
-56000.5
-55832.8
-55669
-55508.7
-55352
-55198.8
-55048.9
-54902.3
-54758.8
-54618.4
-54481
-54346.4
-54214.7
-54085.6
-53959.1
-53835.1
-53713.7
-53594.6
-53477.8
-53363.4
-53251.1
-53140.9
-53032.9
-52926.7
-52822.7
-52720.1
-52620
-52519.5
-52423.8
-52320.2
-52232.4
-52151.9
-52055.6
-51967.9
-51880
-51794.3
-51710
-51627.1
-51545.7
-51465.6
-51386.8
-51309.2
-51232.9
-51157.8
-51083.9
-51011.1
-50939.4
-50868.8
-50799.2
-50730.8
-50663.2
-50597.2
-50531.3
-50468.3
-50405.4
-50342.2
-50280.5
-50219.7
-50159.4
-50100.2
-50042.6
-49983.8
-49927.1
-49870.3
-49814.9
-49759.8
-49706.1
-49652.1
-49600.5
-49546.5
-49499
-49440.7
-49405.1
-49308.2
-64016
-63481.5
-63217.6
-62828.5
-62519.6
-62183.3
-61875.1
-61565.7
-61269.8
-60979.2
-60697.8
-60423.1
-60156
-59895.6
-59642
-59394.8
-59153.9
-58919
-58689.9
-58466.4
-58248.3
-58035.5
-57827.7
-57624.9
-57426.8
-57233.3
-57044.2
-56859.4
-56678.8
-56502.2
-56329.5
-56160.7
-55995.5
-55833.9
-55675.8
-55521
-55369.5
-55221.2
-55075.9
-54933.6
-54794.2
-54657.6
-54523.7
-54392.5
-54263.8
-54137.6
-54013.9
-53892.6
-53773.6
-53656.7
-53542.6
-53429.7
-53321.8
-53210.7
-53116.4
-52994.2
-52934.6
-52790.2
-52708.6
-52598.5
-52505.4
-52408.4
-52316.1
-52224.2
-52134.6
-52046.2
-51959.4
-51873.9
-51789.8
-51707.1
-51625.7
-51545.5
-51466.6
-51388.8
-51312.3
-51237
-51162.9
-51089.9
-51018.1
-50947.5
-50877.6
-50808.5
-50741.1
-50673.9
-50609
-50542.9
-50478.4
-50414.2
-50351.4
-50289.2
-50228.2
-50167.7
-50108.5
-50049.2
-49992.3
-49933
-49880.4
-49816.9
-49776.5
-49674.3
-65693.2
-65117.7
-64825.4
-64402.8
-64064.3
-63697.9
-63361.1
-63023.4
-62700.2
-62382.9
-62075.6
-61775.6
-61483.9
-61199.5
-60922.6
-60652.6
-60389.5
-60132.9
-59882.7
-59638.6
-59400.4
-59167.9
-58941
-58719.4
-58503
-58291.6
-58085.1
-57883.2
-57685.9
-57493.1
-57304.4
-57120
-56939.5
-56763
-56590.2
-56421.2
-56255.6
-56093.6
-55934.9
-55779.4
-55627.1
-55477.8
-55331.6
-55188.2
-55047.6
-54909.8
-54774.6
-54642
-54512
-54384.3
-54259.2
-54136.3
-54015.7
-53897.9
-53780.7
-53672.7
-53549
-53432.9
-53333.2
-53225.6
-53122.9
-53019.7
-52918.9
-52819.3
-52721.4
-52625.1
-52530.3
-52437
-52345.3
-52255
-52166.1
-52078.5
-51992.4
-51907.5
-51824
-51741.8
-51660.7
-51581
-51502.4
-51425.2
-51348.9
-51273.6
-51199.5
-51126.3
-51054.2
-50982.9
-50912.7
-50843.1
-50774.7
-50707
-50640.5
-50574.5
-50509.9
-50445.3
-50383.1
-50318.5
-50260.9
-50192.2
-50147.1
-50039.5
-67365.3
-66749.1
-66428.5
-65972.5
-65604.6
-65207.9
-64842.6
-64476.7
-64126.3
-63782.5
-63449.3
-63124.1
-62807.9
-62499.6
-62199.4
-61906.7
-61621.4
-61343.3
-61072
-60807.3
-60549.1
-60297
-60051
-59810.7
-59576.1
-59346.9
-59122.9
-58904.1
-58690.1
-58481
-58276.5
-58076.5
-57880.8
-57689.4
-57502
-57318.7
-57139.2
-56963.4
-56791.3
-56622.7
-56457.6
-56295.7
-56137.1
-55981.6
-55829.2
-55679.8
-55533.2
-55389.4
-55248.4
-55110
-54974.3
-54840.8
-54710.4
-54581.2
-54455.8
-54329.8
-54204.7
-54087.1
-53972.2
-53855.5
-53742.9
-53630.7
-53521.2
-53413.1
-53307
-53202.5
-53099.7
-52998.6
-52899.1
-52801.2
-52704.9
-52610
-52516.7
-52424.7
-52334.2
-52245.1
-52157.3
-52070.8
-51985.7
-51901.8
-51819.1
-51737.5
-51657.1
-51577.8
-51499.7
-51422.4
-51346.3
-51271
-51196.9
-51123.6
-51051.5
-50980.1
-50910.1
-50840.1
-50772.7
-50703
-50640.3
-50566.5
-50516.5
-50403.8
-69032.1
-68375.2
-68026.4
-67537.1
-67139.9
-66713.1
-66319.4
-65925.4
-65547.9
-65177.5
-64818.6
-64468.3
-64127.6
-63795.6
-63472.1
-63156.8
-62849.5
-62549.8
-62257.5
-61972.3
-61694.1
-61422.5
-61157.4
-60898.6
-60645.8
-60398.8
-60157.5
-59921.7
-59691.2
-59465.8
-59245.4
-59029.9
-58819.1
-58612.8
-58410.9
-58213.3
-58019.9
-57830.5
-57645.1
-57463.4
-57285.4
-57111
-56940.1
-56772.6
-56608.3
-56447.2
-56289.3
-56134.3
-55982.3
-55833.2
-55686.8
-55543.1
-55402
-55263.6
-55127.2
-54994
-54861
-54731.4
-54605.8
-54481.1
-54359.3
-54239
-54121
-54004.7
-53890.4
-53777.9
-53667.3
-53558.4
-53451.2
-53345.8
-53242
-53139.9
-53039.3
-52940.3
-52842.8
-52746.7
-52652.1
-52559
-52467.2
-52376.8
-52287.7
-52199.8
-52113.2
-52027.7
-51943.5
-51860.4
-51778.4
-51697.5
-51617.7
-51538.9
-51461.3
-51384.5
-51309.1
-51233.8
-51161.2
-51086.3
-51018.5
-50939.6
-50884.9
-50767
-70693.2
-69995.7
-69618.8
-69096.3
-68669.9
-68213.1
-67791
-67369.1
-66964.5
-66567.8
-66183.2
-65807.9
-65442.8
-65087
-64740.5
-64402.6
-64073.3
-63752.1
-63438.9
-63133.3
-62835.2
-62544.2
-62260.1
-61982.7
-61711.8
-61447.1
-61188.5
-60935.8
-60688.8
-60447.3
-60211.1
-59980.1
-59754.1
-59533
-59316.7
-59104.9
-58897.6
-58694.7
-58495.9
-58301.2
-58110.5
-57923.5
-57740.4
-57560.8
-57384.8
-57212.1
-57042.8
-56876.8
-56713.9
-56554
-56397.1
-56243
-56091.9
-55943.2
-55797.3
-55653.8
-55512.6
-55374.6
-55239.2
-55105.7
-54974.8
-54845.9
-54719.2
-54594.6
-54472.1
-54351.5
-54233
-54116.3
-54001.5
-53888.5
-53777.3
-53667.9
-53560.1
-53454
-53349.6
-53246.7
-53145.4
-53045.5
-52947.2
-52850.3
-52754.8
-52660.6
-52567.8
-52476.3
-52386.1
-52297
-52209.3
-52122.6
-52037.2
-51952.8
-51869.7
-51787.4
-51706.7
-51626.2
-51548.3
-51468.3
-51395.5
-51311.4
-51251.9
-51129
-72348
-71610.1
-71205.2
-70649.7
-70194.2
-69707.6
-69257.2
-68807.4
-68375.9
-67952.9
-67542.7
-67142.5
-66753.2
-66373.7
-66004.1
-65643.8
-65292.5
-64950
-64616
-64290.1
-63972.1
-63661.7
-63358.7
-63062.8
-62773.8
-62491.5
-62215.7
-61946.2
-61682.7
-61425.1
-61173.2
-60926.8
-60685.7
-60449.9
-60219.1
-59993.2
-59772.1
-59555.6
-59343.6
-59135.9
-58932.4
-58733.1
-58537.7
-58346.1
-58158.3
-57974.2
-57793.6
-57616.4
-57442.6
-57272.1
-57104.7
-56940.4
-56779.1
-56620.7
-56465
-56312.3
-56161.9
-56014.4
-55869.7
-55727.4
-55587.7
-55450.2
-55315.1
-55182.2
-55051.5
-54923
-54796.5
-54672.1
-54549.7
-54429.2
-54310.7
-54193.9
-54079
-53965.9
-53854.5
-53744.8
-53636.7
-53530.3
-53425.4
-53322
-53220.2
-53119.8
-53020.8
-52923.2
-52827
-52732.1
-52638.5
-52546.2
-52455.1
-52365.2
-52276.6
-52189
-52102.9
-52017.1
-51934.1
-51848.9
-51771
-51682
-51617.7
-51489.7
-73996.3
-73218.2
-72785.4
-72196.9
-71712.5
-71196.1
-70717.7
-70240
-69781.7
-69332.5
-68896.8
-68471.8
-68058.3
-67655.3
-67262.7
-66880
-66507
-66143.2
-65788.4
-65442.2
-65104.4
-64774.8
-64452.9
-64138.6
-63831.7
-63531.9
-63238.9
-62952.5
-62672.7
-62399
-62131.4
-61869.7
-61613.7
-61363.1
-61118
-60878
-60643.1
-60413.2
-60187.9
-59967.3
-59751.2
-59539.4
-59331.8
-59128.4
-58928.9
-58733.3
-58541.4
-58353.2
-58168.6
-57987.4
-57809.6
-57635.1
-57463.7
-57295.5
-57130.2
-56967.9
-56808.4
-56651.8
-56498
-56346.9
-56198.4
-56052.3
-55908.8
-55767.6
-55628.8
-55492.3
-55358
-55225.8
-55095.8
-54967.8
-54841.9
-54718
-54595.9
-54475.8
-54357.5
-54240.9
-54126.2
-54013.1
-53901.7
-53791.9
-53683.8
-53577.2
-53472.1
-53368.4
-53266.2
-53165.5
-53066.1
-52968.1
-52871.4
-52776
-52681.9
-52588.9
-52497.5
-52406.5
-52318.3
-52228
-52145.2
-52051
-51982
-51849.1
-75637.6
-74819.5
-74358.9
-73737.6
-73224.3
-72678.3
-72171.9
-71666.6
-71181.6
-70706.2
-70245.3
-69795.5
-69358
-68931.5
-68516
-68111.1
-67716.3
-67331.3
-66955.8
-66589.5
-66232
-65883.2
-65542.5
-65210
-64885.1
-64567.8
-64257.7
-63954.7
-63658.5
-63368.9
-63085.7
-62808.7
-62537.7
-62272.5
-62013
-61759.1
-61510.5
-61267.1
-61028.7
-60795.2
-60566.5
-60342.4
-60122.7
-59907.3
-59696.2
-59489.2
-59286.1
-59087
-58891.5
-58699.8
-58511.6
-58326.9
-58145.5
-57967.5
-57792.6
-57620.8
-57452.1
-57286.4
-57123.6
-56963.6
-56806.4
-56651.8
-56499.9
-56350.5
-56203.6
-56059.1
-55917
-55777.2
-55639.6
-55504.2
-55370.9
-55239.8
-55110.6
-54983.5
-54858.3
-54735
-54613.6
-54493.9
-54376
-54259.9
-54145.4
-54032.6
-53921.4
-53811.8
-53703.7
-53597.1
-53492
-53388.3
-53286
-53185.1
-53085.6
-52987.2
-52890.5
-52794.3
-52700.9
-52605.5
-52517.7
-52418.6
-52344.8
-52207
-77271.5
-76413.5
-75925.3
-75271.4
-74729.4
-74153.9
-73619.6
-73086.7
-72575.2
-72073.8
-71587.6
-71113.3
-70651.8
-70201.9
-69763.7
-69336.6
-68920.2
-68514.1
-68118
-67731.6
-67354.6
-66986.6
-66627.3
-66276.5
-65933.8
-65599.1
-65272
-64952.4
-64639.9
-64334.4
-64035.7
-63743.5
-63457.6
-63177.9
-62904.1
-62636.2
-62373.9
-62117.2
-61865.7
-61619.5
-61378.2
-61141.8
-60910
-60682.9
-60460.1
-60241.7
-60027.5
-59817.4
-59611.3
-59409
-59210.5
-59015.6
-58824.3
-58636.5
-58452
-58270.9
-58092.9
-57918.1
-57746.4
-57577.6
-57411.8
-57248.7
-57088.5
-56930.9
-56775.9
-56623.5
-56473.6
-56326.1
-56181
-56038.2
-55897.6
-55759.3
-55623.1
-55489
-55356.9
-55226.9
-55098.8
-54972.6
-54848.3
-54725.8
-54605.1
-54486.1
-54368.8
-54253.2
-54139.2
-54026.8
-53915.9
-53806.6
-53698.8
-53592.3
-53487.4
-53383.7
-53281.8
-53180.3
-53081.9
-52981.4
-52888.6
-52784.5
-52705.9
-52563.3
-78897.7
-78000
-77484.2
-76797.9
-76227.3
-75622.4
-75060.4
-74500.1
-73962.1
-73434.9
-72923.6
-72424.8
-71939.4
-71466.4
-71005.5
-70556.3
-70118.4
-69691.3
-69274.8
-68868.4
-68471.8
-68084.8
-67706.9
-67338
-66977.6
-66625.5
-66281.5
-65945.3
-65616.7
-65295.4
-64981.1
-64673.8
-64373.1
-64078.9
-63790.8
-63509.1
-63233.1
-62963.2
-62698.7
-62439.8
-62186
-61937.4
-61693.6
-61454.7
-61220.5
-60990.7
-60765.4
-60544.4
-60327.6
-60114.8
-59906
-59701.1
-59499.9
-59302.4
-59108.4
-58917.8
-58730.7
-58546.8
-58366.2
-58188.7
-58014.2
-57842.8
-57674.2
-57508.5
-57345.5
-57185.2
-57027.5
-56872.4
-56719.8
-56569.6
-56421.8
-56276.3
-56133.1
-55992.1
-55853.2
-55716.4
-55581.7
-55449
-55318.3
-55189.5
-55062.5
-54937.4
-54814.1
-54692.5
-54572.6
-54454.5
-54337.9
-54223
-54109.6
-53997.7
-53887.4
-53778.3
-53671.2
-53564.5
-53461
-53355.5
-53257.8
-53148.7
-53065.4
-52917.9
-80515.7
-79578.5
-79035.4
-78316.7
-77717.6
-77083.6
-76494
-75906.5
-75342.2
-74789.2
-74252.9
-73729.7
-73220.6
-72724.4
-72241.1
-71769.9
-71310.5
-70862.6
-70425.7
-69999.4
-69583.5
-69177.5
-68781.1
-68394.1
-68016.1
-67646.8
-67286
-66933.4
-66588.6
-66251.6
-65921.9
-65599.5
-65284.1
-64975.4
-64673.3
-64377.8
-64088.2
-63805.2
-63527.7
-63256.1
-62989.9
-62729.1
-62473.4
-62222.7
-61977
-61736
-61499.7
-61267.8
-61040.4
-60817.2
-60598.2
-60383.2
-60172.1
-59964.9
-59761.4
-59561.6
-59365.3
-59172.4
-58982.9
-58796.7
-58613.7
-58433.8
-58257
-58083.2
-57912.2
-57744.1
-57578.7
-57416
-57255.9
-57098.4
-56943.4
-56790.8
-56640.5
-56492.6
-56347
-56203.5
-56062.2
-55923.1
-55785.9
-55650.9
-55517.7
-55386.5
-55257.1
-55129.7
-55004
-54880
-54757.8
-54637.2
-54518.3
-54401
-54285.4
-54171
-54058.6
-53946.9
-53838.2
-53727.7
-53625
-53511
-53423
-53270.8
-82125.2
-81148.7
-80578.3
-79827.5
-79200.1
-78537.1
-77920
-77305.3
-76714.9
-76136.3
-75575.1
-75027.7
-74495
-73975.9
-73470.1
-72977
-72496.4
-72027.7
-71570.5
-71124.5
-70689.3
-70264.4
-69849.7
-69444.7
-69049.2
-68662.7
-68285.2
-67916.2
-67555.4
-67202.7
-66857.8
-66520.3
-66190.1
-65867.1
-65550.6
-65241.5
-64937.7
-64642.3
-64351.8
-64067.9
-63789.3
-63516.5
-63249
-62986.7
-62729.6
-62477.4
-62230.1
-61987.4
-61749.4
-61515.9
-61286.7
-61061.7
-60840.8
-60624
-60411.1
-60201.9
-59996.5
-59794.7
-59596.4
-59401.6
-59210
-59021.8
-58836.8
-58654.8
-58475.9
-58300
-58127
-57956.7
-57789.2
-57624.4
-57462.2
-57302.5
-57145.3
-56990.6
-56838.2
-56688.1
-56540.3
-56394.6
-56251.1
-56109.8
-55970.5
-55833.2
-55697.9
-55564.5
-55433
-55303.3
-55175.4
-55049.3
-54924.9
-54802.2
-54681.2
-54561.6
-54444
-54327.1
-54213.5
-54097.9
-53990.4
-53871.5
-53778.7
-53621.9
-83725.7
-82710.1
-82112.7
-81329.9
-80674.4
-79982.4
-79338
-78696.5
-78079.9
-77475.9
-76890.1
-76318.5
-75762.4
-75220.3
-74692.3
-74177.5
-73675.7
-73186.3
-72709
-72243.3
-71788.9
-71345.3
-70912.3
-70489.5
-70076.5
-69673
-69278.8
-68893.5
-68516.9
-68148.6
-67788.5
-67436.2
-67091.5
-66754.2
-66423.8
-66100.9
-65784.1
-65475.5
-65172.2
-64875.7
-64584.8
-64299.8
-64020.4
-63746.6
-63478
-63214.7
-62956.4
-62703.1
-62454.5
-62210.7
-61971.4
-61736.5
-61505.9
-61279.4
-61057.1
-60838.7
-60624.3
-60413.5
-60206.5
-60003
-59803
-59606.5
-59413.2
-59223.3
-59036.5
-58852.9
-58672.2
-58494.5
-58319.6
-58147.5
-57978.2
-57811.5
-57647.3
-57485.8
-57326.6
-57169.9
-57015.6
-56863.6
-56713.8
-56566.2
-56420.8
-56277.5
-56136.2
-55996.9
-55859.7
-55724.3
-55590.8
-55459.1
-55329.3
-55201.2
-55074.9
-54950
-54827.3
-54705.3
-54586.6
-54466.1
-54353.7
-54229.9
-54132.5
-53971
-85316.9
-84262.5
-83638.1
-82823.5
-82140.1
-81419.4
-80747.9
-80079.4
-79437.1
-78807.8
-78197.3
-77601.8
-77022.3
-76457.6
-75907.3
-75371
-74848.1
-74338.2
-73840.9
-73355.6
-72882.1
-72419.9
-71968.7
-71528.2
-71097.8
-70677.4
-70266.7
-69865.2
-69472.8
-69089.1
-68713.8
-68346.7
-67987.3
-67635.7
-67290.4
-66954.3
-66619.9
-66302.6
-65986.1
-65678.3
-65375.2
-65078.5
-64787.3
-64502
-64222.1
-63947.7
-63678.6
-63414.6
-63155.6
-62901.5
-62652.1
-62407.3
-62167
-61931.1
-61699.4
-61471.9
-61248.4
-61028.8
-60813
-60601
-60392.6
-60187.8
-59986.4
-59788.5
-59593.9
-59402.5
-59214.3
-59029.1
-58846.9
-58667.6
-58491.1
-58317.4
-58146.4
-57978.1
-57812.3
-57649
-57488.2
-57329.8
-57173.7
-57020
-56868.5
-56719.1
-56571.9
-56426.9
-56283.8
-56142.8
-56003.7
-55866.6
-55731.3
-55597.8
-55466.2
-55336.2
-55208.3
-55081.2
-54957.6
-54832.1
-54714.8
-54586.3
-54484.1
-54318.1
-86898.3
-85805.3
-85154.2
-84308
-83596.8
-82847.5
-82149
-81454
-80785.9
-80131.4
-79496.6
-78877.2
-78274.6
-77687.2
-77115
-76557.2
-76013.4
-75483
-74965.8
-74461.1
-73968.7
-73488
-73018.7
-72560.5
-72112.9
-71675.7
-71248.5
-70831
-70422.8
-70023.8
-69633.6
-69251.8
-68878.3
-68512.6
-68154.6
-67804.1
-67460
-67127.6
-66798.3
-66477.2
-66161.7
-65852.7
-65549.8
-65252.8
-64961.7
-64676.3
-64396.3
-64121.7
-63852.3
-63588
-63328.6
-63074.1
-62824.1
-62578.8
-62337.8
-62101.2
-61868.7
-61640.3
-61415.8
-61195.3
-60978.4
-60765.4
-60555.6
-60350.1
-60147.6
-59948.7
-59753
-59560.4
-59371
-59184.5
-59001
-58820.3
-58642.5
-58467.4
-58295
-58125.2
-57957.9
-57793.2
-57630.9
-57471
-57313.4
-57158.1
-57005
-56854.2
-56705.4
-56558.7
-56414.1
-56271.5
-56130.8
-55992
-55855.2
-55720
-55587
-55454.9
-55326.2
-55195.8
-55073.8
-54940.4
-54833.6
-54663.1
-88469.7
-87338.3
-86660.6
-85783.1
-85044.2
-84266.6
-83541.3
-82819.8
-82126.1
-81446.7
-80787.5
-80144.5
-79518.9
-78909
-78314.9
-77735.8
-77171.2
-76620.6
-76083.5
-75559.6
-75048.3
-74549.2
-74062
-73586.2
-73121.5
-72667.6
-72224.1
-71790.6
-71366.9
-70952.6
-70547.6
-70151.3
-69763.6
-69383.8
-69009.7
-68646.7
-68261.6
-67943.5
-67601.2
-67270.1
-66942.7
-66621.9
-66307.3
-65998.9
-65696.6
-65400.2
-65109.5
-64824.3
-64544.6
-64270.2
-64000.9
-63736.6
-63477.1
-63222.3
-62972.2
-62726.5
-62485.1
-62248
-62015
-61786
-61560.8
-61339.6
-61121.8
-60908.2
-60698.1
-60491.6
-60288.4
-60088.5
-59891.8
-59698.2
-59507.6
-59320.1
-59135.4
-58953.6
-58774.6
-58598.3
-58424.6
-58253.6
-58085.1
-57919.1
-57755.5
-57594.3
-57435.4
-57278.7
-57124.3
-56972
-56821.9
-56673.8
-56527.8
-56383.7
-56241.7
-56101.3
-55963.2
-55826.1
-55692.5
-55557.3
-55430.4
-55292.3
-55180.7
-55005.9
-90030.5
-88861.1
-88157
-87248.2
-86481.9
-85676.2
-84924.2
-84176.4
-83457.3
-82753.1
-82069.8
-81403.3
-80754.8
-80122.7
-79506.8
-78906.5
-78321.2
-77750.5
-77193.8
-76650.7
-76120.7
-75603.3
-75098.3
-74605.1
-74123.4
-73652.8
-73193.1
-72743.7
-72304.6
-71875.1
-71455.4
-71044.5
-70643.3
-70249.1
-69866.2
-69483.1
-69121.8
-68764.9
-68407
-68059.6
-67719.3
-67386.1
-67059.8
-66740
-66426.5
-66119.2
-65817.9
-65522.3
-65232.3
-64947.8
-64668.7
-64394.7
-64125.7
-63861.6
-63602.3
-63347.6
-63097.4
-62851.6
-62609.9
-62372.4
-62138.4
-61909.3
-61681.7
-61462.1
-61244.2
-61030.6
-60820.1
-60613
-60409.1
-60208.4
-60010.9
-59816.5
-59625.1
-59436.6
-59251
-59068.3
-58888.3
-58711
-58536.3
-58364.2
-58194.6
-58027.5
-57862.8
-57700.4
-57540.4
-57382.5
-57226.9
-57073.4
-56922.1
-56772.7
-56625.5
-56480
-56337
-56194.9
-56056.4
-55916.3
-55784.6
-55641.8
-55525.6
-55346.3
-91580.5
-90373.3
-89642.9
-88703.2
-87909.7
-87075.9
-86297.6
-85523.6
-84779.3
-84050.4
-83343.2
-82653.4
-81982.1
-81327.8
-80690.4
-80069.1
-79463.3
-78872.6
-78296.4
-77734.2
-77185.6
-76650.2
-76127.4
-75616.9
-75118.3
-74631.2
-74155.4
-73690.3
-73235.8
-72791.4
-72357.4
-71932.5
-71519.8
-71112.2
-70730.9
-70328.3
-69866
-69572.4
-69219.2
-68843.4
-68492.9
-68145.2
-67807.5
-67475.9
-67151.5
-66833.2
-66521.3
-66215.3
-65915.2
-65620.7
-65331.8
-65048.2
-64769.8
-64496.4
-64228.1
-63964.5
-63705.6
-63451.2
-63201.2
-62955.7
-62713.8
-62476.8
-62241.7
-62012.7
-61787.8
-61566.2
-61348.4
-61133.9
-60922.9
-60715.1
-60510.7
-60309.4
-60111.3
-59916.2
-59724.1
-59535
-59348.7
-59165.1
-58984.3
-58806.2
-58630.7
-58457.7
-58287.2
-58119.2
-57953.5
-57790.2
-57629.1
-57470.3
-57313.6
-57159.1
-57006.7
-56856.2
-56708.1
-56561
-56417.7
-56272.7
-56136.3
-55988.8
-55868
-55684.4
-93119.3
-91874.5
-91118.1
-90147.7
-89327
-88465.5
-87660.9
-86861
-86091.7
-85338.4
-84607.4
-83894.4
-83200.6
-82524.3
-81865.4
-81223.2
-80597.1
-79986.5
-79390.9
-78809.9
-78242.8
-77689.3
-77149
-76621.3
-76106
-75602.5
-75110.6
-74629.8
-74160
-73700.6
-73251.5
-72812.2
-72382.9
-71963
-71552.2
-71153.9
-70754.5
-70359.8
-69988.3
-69615.5
-69253.4
-68896.8
-68548.1
-68206
-67870.7
-67541.9
-67219.5
-66903.3
-66593.1
-66288.7
-65990.1
-65696.9
-65409.2
-65126.7
-64849.3
-64576.9
-64309.4
-64046.4
-63788.2
-63533.9
-63283
-63037.2
-62780.8
-62558.3
-62326.1
-62098.1
-61873.3
-61651.3
-61433.2
-61218.3
-61007
-60798.9
-60594
-60392.4
-60193.8
-59998.3
-59805.7
-59616
-59429.1
-59245
-59063.6
-58884.8
-58708.6
-58534.9
-58363.7
-58194.9
-58028.4
-57864.2
-57702.3
-57542.6
-57385.1
-57229.5
-57076.4
-56924.5
-56776.3
-56626.6
-56485.4
-56333.3
-56207.8
-56020.1
-94646.5
-93364.4
-92582.1
-91581.2
-90733.7
-89844.6
-89014
-88188.3
-87394.2
-86616.6
-85862
-85126
-84409.8
-83711.7
-83031.6
-82368.6
-81722.3
-81092
-80477.2
-79877.4
-79292.1
-78720.7
-78162.9
-77618.2
-77086.1
-76566.4
-76058.6
-75562.3
-75077.2
-74602.9
-74139.2
-73685.5
-73241.6
-72807.2
-72379.1
-71964
-71526.4
-71156.7
-70765.6
-70385.7
-70011.2
-69643.8
-69283.8
-68930.8
-68584.7
-68245.3
-67912.5
-67586.1
-67265.9
-66951.7
-66643.3
-66340.7
-66043.7
-65752.1
-65465.8
-65184.6
-64908.5
-64637.2
-64370.9
-64109.4
-63851.9
-63602.4
-63347.2
-63098.1
-62863.2
-62625.3
-62393.8
-62164.4
-61939.4
-61717.5
-61499.3
-61284.5
-61073
-60864.8
-60659.9
-60458.1
-60259.2
-60063.4
-59870.5
-59680.5
-59493.2
-59308.7
-59126.8
-58947.5
-58770.7
-58596.4
-58424.6
-58255.1
-58088
-57923.1
-57760.6
-57600
-57442
-57285.2
-57132.1
-56977.7
-56831.9
-56675.2
-56545
-56353.2
-96161.6
-94842.6
-94034.7
-93003.5
-92129.3
-91212.9
-90356.4
-89505.2
-88686.5
-87884.7
-87106.7
-86347.9
-85609.5
-84889.7
-84188.5
-83505
-82838.6
-82188.8
-81555
-80936.5
-80333.1
-79743.9
-79168.8
-78607.1
-78058.6
-77522.7
-76999.1
-76487.3
-75987.1
-75498.1
-75019.8
-74552.1
-74094.4
-73646.8
-73207.6
-72779.5
-72356
-71945.9
-71543.8
-71149.6
-70763.5
-70384.7
-70013.6
-69649.7
-69292.9
-68943.1
-68600
-68263.4
-67933.3
-67609.4
-67291.5
-66979.5
-66673.3
-66372.6
-66077.6
-65787.7
-65503.7
-65223.9
-64952.3
-64680.3
-64430.4
-64153
-63869.7
-63643.8
-63412.3
-63152.6
-62914.6
-62675
-62442.7
-62213.2
-61988.1
-61766.4
-61548.4
-61333.7
-61122.3
-60914.2
-60709.2
-60507.3
-60308.4
-60112.5
-59919.4
-59729.1
-59541.6
-59356.8
-59174.5
-58994.9
-58817.7
-58643
-58470.7
-58300.7
-58133.1
-57967.5
-57804.6
-57643
-57485.2
-57326.1
-57175.5
-57014.3
-56879.6
-56683.6
-97664.5
-96308.7
-95475.4
-94414.1
-93513.6
-92570
-91687.9
-90811.4
-89968.1
-89142.5
-88341.3
-87559.8
-86799.4
-86058.2
-85336
-84632.1
-83945.9
-83276.6
-82624
-81987.1
-81365.9
-80758.9
-80166.6
-79588.1
-79023.1
-78471.2
-77931.9
-77404.8
-76889.6
-76385.9
-75893.3
-75411.4
-74939.7
-74478.4
-74025.3
-73584
-73146.2
-72727.5
-72312.2
-71907.4
-71509.5
-71119.8
-70737.6
-70362.9
-69995.5
-69635.2
-69281.9
-68935.3
-68595.3
-68261.7
-67934.3
-67613
-67297.5
-66987.9
-66683.8
-66385.1
-66091.9
-65803.5
-65520.7
-65241.3
-64968.9
-64694.7
-64434.4
-64180.4
-63921.6
-63670.2
-63422.6
-63179.1
-62939.7
-62704.1
-62472.3
-62244.1
-62019.6
-61798.6
-61580.9
-61366.6
-61155.5
-60947.6
-60742.8
-60541
-60342.1
-60146.2
-59953.1
-59762.7
-59575
-59390
-59207.6
-59027.6
-58850.2
-58675.2
-58502.6
-58332.1
-58164.3
-57997.9
-57835.3
-57671.5
-57516.4
-57350.6
-57211.3
-57011.4
-99154.6
-97762.4
-96903.8
-95812.9
-94886.1
-93915.6
-93008.1
-92106.5
-91239
-90389.7
-89565.5
-88761.5
-87979.2
-87216.7
-86473.8
-85749.6
-85043.6
-84355.1
-83683.8
-83028.5
-82389.6
-81765.2
-81155.8
-80560.6
-79979.4
-79411.6
-78856.8
-78314.6
-77784.5
-77266.3
-76759.5
-76263.8
-75778.7
-75304.2
-74839.3
-74384.9
-73938.8
-73503.7
-73076.9
-72659.3
-72249.9
-71848.7
-71455.5
-71070
-70692.1
-70321.5
-69958
-69601.4
-69251.6
-68908.4
-68571.6
-68241.1
-67916.6
-67598
-67285.2
-66977.9
-66676.3
-66379.6
-66088.4
-65801.4
-65518.8
-65241.3
-64954.8
-64702.8
-64440.5
-64183.4
-63929.6
-63679.3
-63433.3
-63191
-62952.6
-62717.9
-62486.9
-62259.5
-62035.6
-61815.1
-61598
-61384.1
-61173.4
-60965.8
-60761.2
-60559.7
-60361
-60165.2
-59972.1
-59781.8
-59594.1
-59409
-59226.5
-59046.4
-58868.9
-58693.5
-58520.9
-58349.6
-58182.4
-58014
-57854.3
-57684
-57540.2
-57336.3
-100632
-99203.4
-98319.8
-97199.3
-96246.6
-95249.5
-94316.7