/*--------------------------------*- C++ -*----------------------------------*\
| =========                 |                                                 |
| \\      /  F ield         | foam-extend: Open Source CFD                    |
|  \\    /   O peration     | Version:     4.1                                |
|   \\  /    A nd           | Web:         http://www.foam-extend.org         |
|    \\/     M anipulation  |                                                 |
\*---------------------------------------------------------------------------*/
FoamFile
{
    version     2.0;
    format      ascii;
    class       volVectorField;
    location    "10";
    object      D;
}
// * * * * * * * * * * * * * * * * * * * * * * * * * * * * * * * * * * * * * //

dimensions      [0 1 0 0 0 0 0];

internalField   nonuniform List<vector> 
1000
(
(5.32504e-06 -2.34903e-06 0)
(5.01441e-06 -2.18108e-06 0)
(4.81403e-06 -2.07241e-06 0)
(4.69715e-06 -2.0189e-06 0)
(4.63754e-06 -1.99663e-06 0)
(4.6197e-06 -1.99863e-06 0)
(4.63251e-06 -2.01632e-06 0)
(4.66859e-06 -2.04559e-06 0)
(4.7216e-06 -2.08283e-06 0)
(4.78944e-06 -2.12564e-06 0)
(4.81339e-06 -2.56544e-06 0)
(4.48256e-06 -2.44631e-06 0)
(4.26966e-06 -2.36841e-06 0)
(4.14367e-06 -2.33575e-06 0)
(4.07723e-06 -2.32724e-06 0)
(4.05336e-06 -2.33895e-06 0)
(4.06053e-06 -2.36362e-06 0)
(4.09071e-06 -2.39805e-06 0)
(4.13752e-06 -2.43977e-06 0)
(4.19739e-06 -2.48487e-06 0)
(4.28223e-06 -2.77062e-06 0)
(3.94429e-06 -2.70609e-06 0)
(3.72721e-06 -2.66267e-06 0)
(3.59742e-06 -2.65316e-06 0)
(3.52735e-06 -2.65978e-06 0)
(3.49936e-06 -2.68197e-06 0)
(3.50182e-06 -2.71396e-06 0)
(3.52655e-06 -2.75367e-06 0)
(3.56718e-06 -2.79968e-06 0)
(3.6199e-06 -2.84784e-06 0)
(3.73556e-06 -2.96092e-06 0)
(3.40454e-06 -2.95375e-06 0)
(3.19219e-06 -2.9466e-06 0)
(3.06427e-06 -2.96132e-06 0)
(2.99406e-06 -2.98371e-06 0)
(2.96403e-06 -3.01672e-06 0)
(2.96299e-06 -3.05613e-06 0)
(2.98282e-06 -3.10118e-06 0)
(3.01768e-06 -3.15126e-06 0)
(3.0633e-06 -3.20262e-06 0)
(3.17692e-06 -3.13262e-06 0)
(2.867e-06 -3.18237e-06 0)
(2.66838e-06 -3.21122e-06 0)
(2.54807e-06 -3.24991e-06 0)
(2.48125e-06 -3.28783e-06 0)
(2.45132e-06 -3.33146e-06 0)
(2.44797e-06 -3.37806e-06 0)
(2.46352e-06 -3.42829e-06 0)
(2.4928e-06 -3.48221e-06 0)
(2.53144e-06 -3.53687e-06 0)
(2.60931e-06 -3.28215e-06 0)
(2.33409e-06 -3.38518e-06 0)
(2.15786e-06 -3.44777e-06 0)
(2.05067e-06 -3.50887e-06 0)
(1.99062e-06 -3.56129e-06 0)
(1.96286e-06 -3.61478e-06 0)
(1.95834e-06 -3.66804e-06 0)
(1.97019e-06 -3.72308e-06 0)
(1.99404e-06 -3.78047e-06 0)
(2.02566e-06 -3.83831e-06 0)
(2.03522e-06 -3.40621e-06 0)
(1.807e-06 -3.55592e-06 0)
(1.66094e-06 -3.6481e-06 0)
(1.57183e-06 -3.72881e-06 0)
(1.5216e-06 -3.7939e-06 0)
(1.49787e-06 -3.85602e-06 0)
(1.4932e-06 -3.91506e-06 0)
(1.50184e-06 -3.97431e-06 0)
(1.52033e-06 -4.03471e-06 0)
(1.54493e-06 -4.09543e-06 0)
(1.45668e-06 -3.50191e-06 0)
(1.28578e-06 -3.68913e-06 0)
(1.17644e-06 -3.80508e-06 0)
(1.10958e-06 -3.90153e-06 0)
(1.07174e-06 -3.9768e-06 0)
(1.05359e-06 -4.04584e-06 0)
(1.0496e-06 -4.10952e-06 0)
(1.05545e-06 -4.17216e-06 0)
(1.06864e-06 -4.23496e-06 0)
(1.0862e-06 -4.29807e-06 0)
(8.75275e-07 -3.56698e-06 0)
(7.69464e-07 -3.78043e-06 0)
(7.01759e-07 -3.91302e-06 0)
(6.60296e-07 -4.02049e-06 0)
(6.36752e-07 -4.10288e-06 0)
(6.25346e-07 -4.17675e-06 0)
(6.22671e-07 -4.24367e-06 0)
(6.26035e-07 -4.3087e-06 0)
(6.3393e-07 -4.37318e-06 0)
(6.44455e-07 -4.43801e-06 0)
(2.92313e-07 -3.59976e-06 0)
(2.56448e-07 -3.82676e-06 0)
(2.33473e-07 -3.96794e-06 0)
(2.19373e-07 -4.0811e-06 0)
(2.1134e-07 -4.16717e-06 0)
(2.07416e-07 -4.24355e-06 0)
(2.06448e-07 -4.31215e-06 0)
(2.07522e-07 -4.37842e-06 0)
(2.10134e-07 -4.44377e-06 0)
(2.13627e-07 -4.50951e-06 0)
(8.33069e-06 -1.07372e-07 0)
(8.40836e-06 -7.72867e-08 0)
(8.45316e-06 -5.80929e-08 0)
(8.50056e-06 -4.6682e-08 0)
(8.55114e-06 -4.02021e-08 0)
(8.61347e-06 -3.70328e-08 0)
(8.68734e-06 -3.609e-08 0)
(8.77397e-06 -3.66074e-08 0)
(8.87304e-06 -3.81725e-08 0)
(8.98326e-06 -4.00964e-08 0)
(8.26848e-06 -3.22045e-07 0)
(8.33322e-06 -2.33548e-07 0)
(8.36993e-06 -1.7721e-07 0)
(8.41193e-06 -1.43806e-07 0)
(8.45896e-06 -1.24913e-07 0)
(8.51877e-06 -1.15758e-07 0)
(8.59082e-06 -1.13144e-07 0)
(8.67597e-06 -1.14824e-07 0)
(8.77382e-06 -1.19565e-07 0)
(8.88266e-06 -1.25374e-07 0)
(8.14425e-06 -5.38566e-07 0)
(8.18438e-06 -3.96419e-07 0)
(8.2055e-06 -3.05989e-07 0)
(8.23717e-06 -2.52514e-07 0)
(8.27739e-06 -2.22387e-07 0)
(8.33237e-06 -2.07954e-07 0)
(8.40092e-06 -2.0405e-07 0)
(8.48319e-06 -2.07087e-07 0)
(8.57868e-06 -2.15026e-07 0)
(8.68488e-06 -2.24763e-07 0)
(7.96027e-06 -7.57753e-07 0)
(7.9654e-06 -5.69638e-07 0)
(7.96435e-06 -4.49933e-07 0)
(7.98131e-06 -3.79427e-07 0)
(8.01183e-06 -3.39908e-07 0)
(8.05993e-06 -3.21312e-07 0)
(8.12348e-06 -3.1671e-07 0)
(8.20165e-06 -3.21407e-07 0)
(8.29377e-06 -3.3257e-07 0)
(8.39624e-06 -3.46298e-07 0)
(7.71952e-06 -9.80211e-07 0)
(7.68133e-06 -7.56308e-07 0)
(7.65286e-06 -6.1374e-07 0)
(7.65163e-06 -5.30247e-07 0)
(7.67012e-06 -4.83801e-07 0)
(7.70968e-06 -4.62529e-07 0)
(7.767e-06 -4.58035e-07 0)
(7.84008e-06 -4.64801e-07 0)
(7.92797e-06 -4.79251e-07 0)
(8.02588e-06 -4.97043e-07 0)
(7.42573e-06 -1.206e-06 0)
(7.33853e-06 -9.58393e-07 0)
(7.27904e-06 -8.00573e-07 0)
(7.2572e-06 -7.08896e-07 0)
(7.26203e-06 -6.58445e-07 0)
(7.29186e-06 -6.36261e-07 0)
(7.34203e-06 -6.32833e-07 0)
(7.40928e-06 -6.42157e-07 0)
(7.49223e-06 -6.59977e-07 0)
(7.58499e-06 -6.81894e-07 0)
(7.08327e-06 -1.43469e-06 0)
(6.94433e-06 -1.17669e-06 0)
(6.85212e-06 -1.01203e-06 0)
(6.80848e-06 -9.17477e-07 0)
(6.79882e-06 -8.66267e-07 0)
(6.81826e-06 -8.45133e-07 0)
(6.86071e-06 -8.43868e-07 0)
(6.92166e-06 -8.56301e-07 0)
(6.99915e-06 -8.7767e-07 0)
(7.08646e-06 -9.03776e-07 0)
(6.6969e-06 -1.66524e-06 0)
(6.50668e-06 -1.41065e-06 0)
(6.38205e-06 -1.24787e-06 0)
(6.31672e-06 -1.15595e-06 0)
(6.29253e-06 -1.10734e-06 0)
(6.30144e-06 -1.08928e-06 0)
(6.33592e-06 -1.09129e-06 0)
(6.39034e-06 -1.10743e-06 0)
(6.46196e-06 -1.13252e-06 0)
(6.54371e-06 -1.16299e-06 0)
(6.27169e-06 -1.89603e-06 0)
(6.0338e-06 -1.65837e-06 0)
(5.87911e-06 -1.50604e-06 0)
(5.79354e-06 -1.42215e-06 0)
(5.75567e-06 -1.37944e-06 0)
(5.75454e-06 -1.36642e-06 0)
(5.7812e-06 -1.37287e-06 0)
(5.82914e-06 -1.39322e-06 0)
(5.89458e-06 -1.42252e-06 0)
(5.97098e-06 -1.45743e-06 0)
(5.81272e-06 -2.12486e-06 0)
(5.5338e-06 -1.91665e-06 0)
(5.35327e-06 -1.78272e-06 0)
(5.25011e-06 -1.71186e-06 0)
(5.20015e-06 -1.67808e-06 0)
(5.18983e-06 -1.67188e-06 0)
(5.20903e-06 -1.68362e-06 0)
(5.25052e-06 -1.70863e-06 0)
(5.30956e-06 -1.74202e-06 0)
(5.38083e-06 -1.78251e-06 0)
(9.10509e-06 -4.20644e-08 0)
(9.23807e-06 -4.2291e-08 0)
(9.37968e-06 -4.26653e-08 0)
(9.52946e-06 -4.28857e-08 0)
(9.68641e-06 -4.29017e-08 0)
(9.84988e-06 -4.26974e-08 0)
(1.00192e-05 -4.22191e-08 0)
(1.01936e-05 -4.14604e-08 0)
(1.03725e-05 -4.03903e-08 0)
(1.05554e-05 -3.8994e-08 0)
(1.07416e-05 -3.72444e-08 0)
(1.09306e-05 -3.51158e-08 0)
(1.11218e-05 -3.25729e-08 0)
(1.13146e-05 -2.95756e-08 0)
(1.15084e-05 -2.60716e-08 0)
(1.17025e-05 -2.2001e-08 0)
(1.18964e-05 -1.72835e-08 0)
(1.20887e-05 -1.18354e-08 0)
(1.22797e-05 -5.51831e-09 0)
(1.24659e-05 1.72268e-09 0)
(9.00901e-06 -1.30815e-07 0)
(9.15009e-06 -1.30863e-07 0)
(9.29894e-06 -1.31408e-07 0)
(9.45498e-06 -1.31602e-07 0)
(9.61751e-06 -1.31252e-07 0)
(9.7859e-06 -1.30314e-07 0)
(9.95959e-06 -1.2861e-07 0)
(1.0138e-05 -1.26115e-07 0)
(1.03205e-05 -1.22727e-07 0)
(1.05067e-05 -1.18396e-07 0)
(1.06959e-05 -1.13035e-07 0)
(1.08877e-05 -1.06562e-07 0)
(1.10815e-05 -9.88676e-08 0)
(1.12767e-05 -8.98287e-08 0)
(1.14729e-05 -7.92857e-08 0)
(1.16692e-05 -6.70564e-08 0)
(1.18652e-05 -5.2899e-08 0)
(1.20595e-05 -3.65605e-08 0)
(1.22526e-05 -1.76254e-08 0)
(1.24408e-05 4.07191e-09 0)
(8.82004e-06 -2.32265e-07 0)
(8.97699e-06 -2.30323e-07 0)
(9.14001e-06 -2.294e-07 0)
(9.3083e-06 -2.28317e-07 0)
(9.48176e-06 -2.26546e-07 0)
(9.6598e-06 -2.24041e-07 0)
(9.84216e-06 -2.20428e-07 0)
(1.00283e-05 -2.15652e-07 0)
(1.02179e-05 -2.09508e-07 0)
(1.04105e-05 -2.01895e-07 0)
(1.06057e-05 -1.9265e-07 0)
(1.0803e-05 -1.81624e-07 0)
(1.10019e-05 -1.68623e-07 0)
(1.1202e-05 -1.53432e-07 0)
(1.14027e-05 -1.35777e-07 0)
(1.16033e-05 -1.15348e-07 0)
(1.18035e-05 -9.17364e-08 0)
(1.2002e-05 -6.45153e-08 0)
(1.2199e-05 -3.29885e-08 0)
(1.23912e-05 3.12679e-09 0)
(8.54397e-06 -3.53674e-07 0)
(8.7237e-06 -3.46919e-07 0)
(8.90722e-06 -3.41926e-07 0)
(9.09326e-06 -3.37578e-07 0)
(9.28263e-06 -3.32711e-07 0)
(9.47474e-06 -3.27305e-07 0)
(9.66977e-06 -3.20699e-07 0)
(9.86733e-06 -3.12773e-07 0)
(1.00673e-05 -3.03182e-07 0)
(1.02694e-05 -2.91743e-07 0)
(1.04732e-05 -2.78195e-07 0)
(1.06786e-05 -2.62298e-07 0)
(1.0885e-05 -2.43761e-07 0)
(1.10921e-05 -2.22262e-07 0)
(1.12995e-05 -1.97402e-07 0)
(1.15065e-05 -1.68733e-07 0)
(1.17129e-05 -1.35669e-07 0)
(1.19173e-05 -9.76015e-08 0)
(1.21202e-05 -5.35455e-08 0)
(1.23183e-05 -3.08179e-09 0)
(8.18915e-06 -5.01511e-07 0)
(8.39741e-06 -4.86306e-07 0)
(8.6069e-06 -4.73871e-07 0)
(8.81549e-06 -4.63652e-07 0)
(9.02518e-06 -4.53503e-07 0)
(9.2353e-06 -4.43438e-07 0)
(9.4466e-06 -4.32409e-07 0)
(9.65883e-06 -4.20178e-07 0)
(9.87216e-06 -4.06216e-07 0)
(1.00864e-05 -3.90213e-07 0)
(1.03015e-05 -3.71784e-07 0)
(1.05173e-05 -3.50573e-07 0)
(1.07335e-05 -3.26171e-07 0)
(1.09497e-05 -2.98133e-07 0)
(1.11657e-05 -2.65922e-07 0)
(1.13809e-05 -2.28941e-07 0)
(1.15952e-05 -1.86418e-07 0)
(1.18073e-05 -1.37553e-07 0)
(1.20178e-05 -8.1065e-08 0)
(1.22235e-05 -1.63824e-08 0)
(7.76579e-06 -6.80338e-07 0)
(8.0069e-06 -6.52493e-07 0)
(8.2467e-06 -6.28682e-07 0)
(8.48175e-06 -6.0945e-07 0)
(8.71548e-06 -5.91408e-07 0)
(8.94702e-06 -5.74537e-07 0)
(9.17775e-06 -5.57359e-07 0)
(9.40754e-06 -5.39421e-07 0)
(9.6369e-06 -5.19978e-07 0)
(9.86583e-06 -4.98539e-07 0)
(1.00945e-05 -4.7456e-07 0)
(1.03228e-05 -4.47535e-07 0)
(1.05506e-05 -4.16913e-07 0)
(1.07778e-05 -3.82103e-07 0)
(1.10042e-05 -3.42415e-07 0)
(1.12293e-05 -2.97087e-07 0)
(1.14531e-05 -2.45149e-07 0)
(1.16744e-05 -1.856e-07 0)
(1.18939e-05 -1.16858e-07 0)
(1.21087e-05 -3.81747e-08 0)
(7.28572e-06 -8.93107e-07 0)
(7.5624e-06 -8.48321e-07 0)
(7.8356e-06 -8.09186e-07 0)
(8.10005e-06 -7.77593e-07 0)
(8.36067e-06 -7.48956e-07 0)
(8.61637e-06 -7.22968e-07 0)
(8.86906e-06 -6.9778e-07 0)
(9.11883e-06 -6.72585e-07 0)
(9.36645e-06 -6.46408e-07 0)
(9.61215e-06 -6.18513e-07 0)
(9.85626e-06 -5.88172e-07 0)
(1.00989e-05 -5.547e-07 0)
(1.03401e-05 -5.17382e-07 0)
(1.05799e-05 -4.75465e-07 0)
(1.08181e-05 -4.2809e-07 0)
(1.10545e-05 -3.7432e-07 0)
(1.12891e-05 -3.12978e-07 0)
(1.1521e-05 -2.4286e-07 0)
(1.17509e-05 -1.62082e-07 0)
(1.19761e-05 -6.97153e-08 0)
(6.76112e-06 -1.14029e-06 0)
(7.07441e-06 -1.07397e-06 0)
(7.38254e-06 -1.01564e-06 0)
(7.67842e-06 -9.67974e-07 0)
(7.96791e-06 -9.2585e-07 0)
(8.24994e-06 -8.88213e-07 0)
(8.52666e-06 -8.53003e-07 0)
(8.79843e-06 -8.1892e-07 0)
(9.06621e-06 -7.84733e-07 0)
(9.33047e-06 -7.49398e-07 0)
(9.59171e-06 -7.1196e-07 0)
(9.85023e-06 -6.71512e-07 0)
(1.01063e-05 -6.27143e-07 0)
(1.03599e-05 -5.77913e-07 0)
(1.06113e-05 -5.22776e-07 0)
(1.08602e-05 -4.60607e-07 0)
(1.11068e-05 -3.90018e-07 0)
(1.13503e-05 -3.09592e-07 0)
(1.15916e-05 -2.17148e-07 0)
(1.18283e-05 -1.11562e-07 0)
(6.20524e-06 -1.42148e-06 0)
(6.55498e-06 -1.32965e-06 0)
(6.89783e-06 -1.24963e-06 0)
(7.22609e-06 -1.18277e-06 0)
(7.54525e-06 -1.12472e-06 0)
(7.85484e-06 -1.07319e-06 0)
(8.1568e-06 -1.02601e-06 0)
(8.45188e-06 -9.81362e-07 0)
(8.74114e-06 -9.37713e-07 0)
(9.02528e-06 -8.93714e-07 0)
(9.30493e-06 -8.48158e-07 0)
(9.58058e-06 -7.99909e-07 0)
(9.85262e-06 -7.47846e-07 0)
(1.01213e-05 -6.9083e-07 0)
(1.03868e-05 -6.27618e-07 0)
(1.06492e-05 -5.56893e-07 0)
(1.09086e-05 -4.77049e-07 0)
(1.11647e-05 -3.86467e-07 0)
(1.14183e-05 -2.82694e-07 0)
(1.16674e-05 -1.6443e-07 0)
(5.62827e-06 -1.73127e-06 0)
(6.01334e-06 -1.60894e-06 0)
(6.38881e-06 -1.50476e-06 0)
(6.75e-06 -1.41562e-06 0)
(7.09952e-06 -1.3389e-06 0)
(7.43787e-06 -1.27131e-06 0)
(7.76637e-06 -1.21042e-06 0)
(8.08605e-06 -1.15391e-06 0)
(8.398e-06 -1.09986e-06 0)
(8.7031e-06 -1.04655e-06 0)
(9.00217e-06 -9.92461e-07 0)
(9.29585e-06 -9.36173e-07 0)
(9.5847e-06 -8.76325e-07 0)
(9.86911e-06 -8.11561e-07 0)
(1.01495e-05 -7.4043e-07 0)
(1.04259e-05 -6.61417e-07 0)
(1.06989e-05 -5.72712e-07 0)
(1.0968e-05 -4.72497e-07 0)
(1.12345e-05 -3.58054e-07 0)
(1.14966e-05 -2.27882e-07 0)
(5.206e-06 -2.02249e-06 0)
(5.6122e-06 -1.87714e-06 0)
(6.00559e-06 -1.75591e-06 0)
(6.38557e-06 -1.64993e-06 0)
(6.75316e-06 -1.55745e-06 0)
(7.10903e-06 -1.47527e-06 0)
(7.45426e-06 -1.40093e-06 0)
(7.78978e-06 -1.3321e-06 0)
(8.11658e-06 -1.26673e-06 0)
(8.43554e-06 -1.20298e-06 0)
(8.74747e-06 -1.13917e-06 0)
(9.05307e-06 -1.07374e-06 0)
(9.35295e-06 -1.00516e-06 0)
(9.64759e-06 -9.31951e-07 0)
(9.9375e-06 -8.52531e-07 0)
(1.02229e-05 -7.65273e-07 0)
(1.05044e-05 -6.68278e-07 0)
(1.07819e-05 -5.5965e-07 0)
(1.10564e-05 -4.36611e-07 0)
(1.1327e-05 -2.97638e-07 0)
(4.96141e-06 -2.2559e-06 0)
(5.37e-06 -2.10521e-06 0)
(5.76633e-06 -1.97479e-06 0)
(6.15082e-06 -1.85883e-06 0)
(6.52367e-06 -1.75566e-06 0)
(6.88534e-06 -1.66268e-06 0)
(7.23656e-06 -1.57764e-06 0)
(7.57806e-06 -1.4984e-06 0)
(7.91065e-06 -1.42301e-06 0)
(8.23507e-06 -1.34966e-06 0)
(8.55207e-06 -1.27668e-06 0)
(8.8623e-06 -1.2025e-06 0)
(9.16637e-06 -1.12558e-06 0)
(9.46479e-06 -1.04441e-06 0)
(9.75809e-06 -9.57399e-07 0)
(1.00466e-05 -8.62922e-07 0)
(1.0331e-05 -7.59113e-07 0)
(1.06113e-05 -6.4413e-07 0)
(1.08887e-05 -5.15334e-07 0)
(1.11626e-05 -3.71325e-07 0)
(4.74909e-06 -2.48174e-06 0)
(5.15396e-06 -2.32705e-06 0)
(5.54945e-06 -2.19016e-06 0)
(5.93444e-06 -2.06626e-06 0)
(6.30913e-06 -1.95412e-06 0)
(6.67346e-06 -1.85164e-06 0)
(7.02795e-06 -1.75687e-06 0)
(7.37305e-06 -1.66791e-06 0)
(7.70939e-06 -1.58296e-06 0)
(8.03755e-06 -1.50033e-06 0)
(8.35819e-06 -1.41841e-06 0)
(8.67187e-06 -1.33564e-06 0)
(8.97918e-06 -1.25052e-06 0)
(9.28063e-06 -1.16154e-06 0)
(9.57676e-06 -1.06714e-06 0)
(9.86798e-06 -9.65729e-07 0)
(1.01549e-05 -8.55513e-07 0)
(1.04379e-05 -7.34741e-07 0)
(1.0718e-05 -6.00958e-07 0)
(1.0995e-05 -4.52909e-07 0)
(4.56066e-06 -2.69934e-06 0)
(4.95978e-06 -2.54241e-06 0)
(5.35178e-06 -2.40054e-06 0)
(5.73464e-06 -2.27005e-06 0)
(6.10861e-06 -2.15015e-06 0)
(6.47323e-06 -2.03921e-06 0)
(6.82881e-06 -1.9356e-06 0)
(7.17556e-06 -1.83767e-06 0)
(7.51392e-06 -1.7438e-06 0)
(7.84433e-06 -1.65242e-06 0)
(8.16733e-06 -1.562e-06 0)
(8.4834e-06 -1.47105e-06 0)
(8.79306e-06 -1.37811e-06 0)
(9.09682e-06 -1.28173e-06 0)
(9.39519e-06 -1.18039e-06 0)
(9.68864e-06 -1.07256e-06 0)
(9.97783e-06 -9.56545e-07 0)
(1.02632e-05 -8.30719e-07 0)
(1.05457e-05 -6.9284e-07 0)
(1.08257e-05 -5.41797e-07 0)
(4.3938e-06 -2.9079e-06 0)
(4.78535e-06 -2.75e-06 0)
(5.17178e-06 -2.60467e-06 0)
(5.55046e-06 -2.46907e-06 0)
(5.92167e-06 -2.34281e-06 0)
(6.2846e-06 -2.22464e-06 0)
(6.63944e-06 -2.11324e-06 0)
(6.98614e-06 -2.00723e-06 0)
(7.32501e-06 -1.90518e-06 0)
(7.65633e-06 -1.80566e-06 0)
(7.98052e-06 -1.70726e-06 0)
(8.29798e-06 -1.6086e-06 0)
(8.60917e-06 -1.50828e-06 0)
(8.91454e-06 -1.40491e-06 0)
(9.21461e-06 -1.29706e-06 0)
(9.50985e-06 -1.1833e-06 0)
(9.80092e-06 -1.06203e-06 0)
(1.00883e-05 -9.31785e-07 0)
(1.03731e-05 -7.90554e-07 0)
(1.06557e-05 -6.37386e-07 0)
(4.24491e-06 -3.10726e-06 0)
(4.62789e-06 -2.94945e-06 0)
(5.00742e-06 -2.80183e-06 0)
(5.38047e-06 -2.66233e-06 0)
(5.74735e-06 -2.53087e-06 0)
(6.10707e-06 -2.40655e-06 0)
(6.45966e-06 -2.28836e-06 0)
(6.80491e-06 -2.17516e-06 0)
(7.14299e-06 -2.06571e-06 0)
(7.47406e-06 -1.95877e-06 0)
(7.79842e-06 -1.85304e-06 0)
(8.11638e-06 -1.74724e-06 0)
(8.42833e-06 -1.64008e-06 0)
(8.73469e-06 -1.53026e-06 0)
(9.03593e-06 -1.41643e-06 0)
(9.33254e-06 -1.29728e-06 0)
(9.62514e-06 -1.17136e-06 0)
(9.91431e-06 -1.03734e-06 0)
(1.0201e-05 -8.93472e-07 0)
(1.04859e-05 -7.38957e-07 0)
(4.11109e-06 -3.29762e-06 0)
(4.48492e-06 -3.14065e-06 0)
(4.85662e-06 -2.99171e-06 0)
(5.22302e-06 -2.84935e-06 0)
(5.58446e-06 -2.71377e-06 0)
(5.9398e-06 -2.58435e-06 0)
(6.28898e-06 -2.46035e-06 0)
(6.63167e-06 -2.34085e-06 0)
(6.96791e-06 -2.22484e-06 0)
(7.29776e-06 -2.1112e-06 0)
(7.62141e-06 -1.99882e-06 0)
(7.93911e-06 -1.88651e-06 0)
(8.25116e-06 -1.77309e-06 0)
(8.55795e-06 -1.65737e-06 0)
(8.85989e-06 -1.53812e-06 0)
(9.15747e-06 -1.41413e-06 0)
(9.45128e-06 -1.28412e-06 0)
(9.74194e-06 -1.14692e-06 0)
(1.00303e-05 -1.00102e-06 0)
(1.03173e-05 -8.45806e-07 0)
(3.98957e-06 -3.4793e-06 0)
(4.354e-06 -3.32372e-06 0)
(4.71736e-06 -3.17421e-06 0)
(5.07648e-06 -3.02985e-06 0)
(5.43171e-06 -2.89105e-06 0)
(5.78182e-06 -2.75744e-06 0)
(6.12672e-06 -2.62853e-06 0)
(6.46597e-06 -2.50361e-06 0)
(6.79954e-06 -2.38183e-06 0)
(7.12738e-06 -2.26227e-06 0)
(7.44961e-06 -2.14393e-06 0)
(7.7664e-06 -2.02576e-06 0)
(8.078e-06 -1.90671e-06 0)
(8.38472e-06 -1.78569e-06 0)
(8.68696e-06 -1.66159e-06 0)
(8.98516e-06 -1.53333e-06 0)
(9.27988e-06 -1.39979e-06 0)
(9.57174e-06 -1.25996e-06 0)
(9.86156e-06 -1.11259e-06 0)
(1.01503e-05 -9.57193e-07 0)
(3.87792e-06 -3.65286e-06 0)
(4.23295e-06 -3.49899e-06 0)
(4.58772e-06 -3.34946e-06 0)
(4.9392e-06 -3.20379e-06 0)
(5.2877e-06 -3.06255e-06 0)
(5.63203e-06 -2.92558e-06 0)
(5.97202e-06 -2.79258e-06 0)
(6.30719e-06 -2.66304e-06 0)
(6.63745e-06 -2.53628e-06 0)
(6.96268e-06 -2.41154e-06 0)
(7.28293e-06 -2.28796e-06 0)
(7.59829e-06 -2.16461e-06 0)
(7.90898e-06 -2.04056e-06 0)
(8.21523e-06 -1.91484e-06 0)
(8.51741e-06 -1.78646e-06 0)
(8.81592e-06 -1.65449e-06 0)
(9.11127e-06 -1.51794e-06 0)
(9.40408e-06 -1.37596e-06 0)
(9.69509e-06 -1.22757e-06 0)
(9.98524e-06 -1.07242e-06 0)
(3.77395e-06 -3.81883e-06 0)
(4.11974e-06 -3.66686e-06 0)
(4.46588e-06 -3.51771e-06 0)
(4.80956e-06 -3.37127e-06 0)
(5.15107e-06 -3.22823e-06 0)
(5.48926e-06 -3.08859e-06 0)
(5.82393e-06 -2.95225e-06 0)
(6.15459e-06 -2.81884e-06 0)
(6.48109e-06 -2.68785e-06 0)
(6.80326e-06 -2.55866e-06 0)
(7.12109e-06 -2.43052e-06 0)
(7.43464e-06 -2.30266e-06 0)
(7.74404e-06 -2.17424e-06 0)
(8.04951e-06 -2.04442e-06 0)
(8.35134e-06 -1.91234e-06 0)
(8.6499e-06 -1.77717e-06 0)
(8.94565e-06 -1.6381e-06 0)
(9.23918e-06 -1.49444e-06 0)
(9.53113e-06 -1.34541e-06 0)
(9.82248e-06 -1.1908e-06 0)
(3.67572e-06 -3.97782e-06 0)
(4.01251e-06 -3.8278e-06 0)
(4.35013e-06 -3.67929e-06 0)
(4.68602e-06 -3.5325e-06 0)
(5.02044e-06 -3.38818e-06 0)
(5.35232e-06 -3.24649e-06 0)
(5.68145e-06 -3.10747e-06 0)
(6.00732e-06 -2.97088e-06 0)
(6.32976e-06 -2.83636e-06 0)
(6.64857e-06 -2.70339e-06 0)
(6.9637e-06 -2.57138e-06 0)
(7.27514e-06 -2.43965e-06 0)
(7.583e-06 -2.30749e-06 0)
(7.88743e-06 -2.17415e-06 0)
(8.18868e-06 -2.0389e-06 0)
(8.48708e-06 -1.90105e-06 0)
(8.78303e-06 -1.75991e-06 0)
(9.07708e-06 -1.61494e-06 0)
(9.36978e-06 -1.46558e-06 0)
(9.66206e-06 -1.31171e-06 0)
(3.58147e-06 -4.13039e-06 0)
(3.90956e-06 -3.98227e-06 0)
(4.23887e-06 -3.83458e-06 0)
(4.56709e-06 -3.68774e-06 0)
(4.89447e-06 -3.54259e-06 0)
(5.22002e-06 -3.39938e-06 0)
(5.54352e-06 -3.25825e-06 0)
(5.86449e-06 -3.11911e-06 0)
(6.18272e-06 -2.98169e-06 0)
(6.498e-06 -2.8456e-06 0)
(6.81024e-06 -2.71036e-06 0)
(7.1194e-06 -2.57538e-06 0)
(7.42553e-06 -2.44006e-06 0)
(7.72875e-06 -2.30377e-06 0)
(8.02926e-06 -2.16588e-06 0)
(8.32734e-06 -2.0258e-06 0)
(8.62333e-06 -1.883e-06 0)
(8.91772e-06 -1.73704e-06 0)
(9.21098e-06 -1.58758e-06 0)
(9.50398e-06 -1.43457e-06 0)
(3.48957e-06 -4.27706e-06 0)
(3.80931e-06 -4.13076e-06 0)
(4.13058e-06 -3.98398e-06 0)
(4.45135e-06 -3.83735e-06 0)
(4.77184e-06 -3.69171e-06 0)
(5.09115e-06 -3.54742e-06 0)
(5.40908e-06 -3.40471e-06 0)
(5.72516e-06 -3.26357e-06 0)
(6.03916e-06 -3.12386e-06 0)
(6.35086e-06 -2.98525e-06 0)
(6.66013e-06 -2.84737e-06 0)
(6.96692e-06 -2.70974e-06 0)
(7.27123e-06 -2.57182e-06 0)
(7.57314e-06 -2.4331e-06 0)
(7.8728e-06 -2.29304e-06 0)
(8.17044e-06 -2.15117e-06 0)
(8.46634e-06 -2.00705e-06 0)
(8.76093e-06 -1.8604e-06 0)
(9.05459e-06 -1.71099e-06 0)
(9.34812e-06 -1.5589e-06 0)
(3.39851e-06 -4.41829e-06 0)
(3.71026e-06 -4.27374e-06 0)
(4.0238e-06 -4.1279e-06 0)
(4.33741e-06 -3.98165e-06 0)
(4.65126e-06 -3.83583e-06 0)
(4.96455e-06 -3.69085e-06 0)
(5.27707e-06 -3.54702e-06 0)
(5.58837e-06 -3.4044e-06 0)
(5.89823e-06 -3.26292e-06 0)
(6.2064e-06 -3.12236e-06 0)
(6.51275e-06 -2.9824e-06 0)
(6.81716e-06 -2.84265e-06 0)
(7.11964e-06 -2.70267e-06 0)
(7.4202e-06 -2.56201e-06 0)
(7.71895e-06 -2.42022e-06 0)
(8.01607e-06 -2.27694e-06 0)
(8.31179e-06 -2.13183e-06 0)
(8.60646e-06 -1.98469e-06 0)
(8.9004e-06 -1.83545e-06 0)
(9.19429e-06 -1.68424e-06 0)
(3.30676e-06 -4.55458e-06 0)
(3.61089e-06 -4.41158e-06 0)
(3.91709e-06 -4.26677e-06 0)
(4.2239e-06 -4.12107e-06 0)
(4.53144e-06 -3.97532e-06 0)
(4.83903e-06 -3.82999e-06 0)
(5.14641e-06 -3.68545e-06 0)
(5.45319e-06 -3.5418e-06 0)
(5.7591e-06 -3.39904e-06 0)
(6.0639e-06 -3.25703e-06 0)
(6.36743e-06 -3.11551e-06 0)
(6.66956e-06 -2.97414e-06 0)
(6.97024e-06 -2.83257e-06 0)
(7.26947e-06 -2.69042e-06 0)
(7.56731e-06 -2.54731e-06 0)
(7.86388e-06 -2.40295e-06 0)
(8.15935e-06 -2.2571e-06 0)
(8.45403e-06 -2.10965e-06 0)
(8.74813e-06 -1.96064e-06 0)
(9.04225e-06 -1.81024e-06 0)
(3.21291e-06 -4.68621e-06 0)
(3.50979e-06 -4.54489e-06 0)
(3.80899e-06 -4.40098e-06 0)
(4.10947e-06 -4.25592e-06 0)
(4.41116e-06 -4.11051e-06 0)
(4.71345e-06 -3.96514e-06 0)
(5.01609e-06 -3.82026e-06 0)
(5.31867e-06 -3.676e-06 0)
(5.62094e-06 -3.53242e-06 0)
(5.92263e-06 -3.38941e-06 0)
(6.22355e-06 -3.24678e-06 0)
(6.52355e-06 -3.10427e-06 0)
(6.82255e-06 -2.96154e-06 0)
(7.12052e-06 -2.81829e-06 0)
(7.41746e-06 -2.67422e-06 0)
(7.71348e-06 -2.52908e-06 0)
(8.00868e-06 -2.38271e-06 0)
(8.30329e-06 -2.23507e-06 0)
(8.59748e-06 -2.08629e-06 0)
(8.89171e-06 -1.9366e-06 0)
(3.1155e-06 -4.8138e-06 0)
(3.40527e-06 -4.67363e-06 0)
(3.69781e-06 -4.53097e-06 0)
(3.99273e-06 -4.38687e-06 0)
(4.28907e-06 -4.24196e-06 0)
(4.58665e-06 -4.09683e-06 0)
(4.88504e-06 -3.95191e-06 0)
(5.18391e-06 -3.80739e-06 0)
(5.48295e-06 -3.66337e-06 0)
(5.78188e-06 -3.51977e-06 0)
(6.08049e-06 -3.37645e-06 0)
(6.37859e-06 -3.23317e-06 0)
(6.67608e-06 -3.08967e-06 0)
(6.9729e-06 -2.94567e-06 0)
(7.26901e-06 -2.80093e-06 0)
(7.56448e-06 -2.65525e-06 0)
(7.85938e-06 -2.50854e-06 0)
(8.15388e-06 -2.3608e-06 0)
(8.44808e-06 -2.21223e-06 0)
(8.74235e-06 -2.06309e-06 0)
(3.01214e-06 -4.93718e-06 0)
(3.29591e-06 -4.79835e-06 0)
(3.58297e-06 -4.65723e-06 0)
(3.87248e-06 -4.51414e-06 0)
(4.16418e-06 -4.36996e-06 0)
(4.45761e-06 -4.22535e-06 0)
(4.75238e-06 -4.08071e-06 0)
(5.04811e-06 -3.93628e-06 0)
(5.34444e-06 -3.79216e-06 0)
(5.64106e-06 -3.64833e-06 0)
(5.93773e-06 -3.50466e-06 0)
(6.23423e-06 -3.36096e-06 0)
(6.53042e-06 -3.217e-06 0)
(6.82622e-06 -3.07256e-06 0)
(7.12158e-06 -2.9274e-06 0)
(7.41653e-06 -2.7814e-06 0)
(7.71111e-06 -2.63448e-06 0)
(8.00544e-06 -2.48669e-06 0)
(8.29961e-06 -2.33828e-06 0)
(8.59384e-06 -2.18953e-06 0)
(2.90156e-06 -5.05776e-06 0)
(3.17979e-06 -4.92062e-06 0)
(3.46183e-06 -4.78069e-06 0)
(3.74695e-06 -4.6387e-06 0)
(4.03486e-06 -4.49548e-06 0)
(4.32504e-06 -4.35158e-06 0)
(4.61703e-06 -4.20746e-06 0)
(4.91038e-06 -4.06335e-06 0)
(5.20469e-06 -3.9194e-06 0)
(5.4996e-06 -3.77559e-06 0)
(5.79481e-06 -3.63183e-06 0)
(6.09008e-06 -3.48796e-06 0)
(6.38523e-06 -3.34379e-06 0)
(6.68017e-06 -3.1991e-06 0)
(6.97484e-06 -3.05372e-06 0)
(7.26926e-06 -2.90753e-06 0)
(7.56347e-06 -2.76049e-06 0)
(7.85758e-06 -2.61269e-06 0)
(8.15164e-06 -2.46437e-06 0)
(8.44581e-06 -2.31585e-06 0)
(2.78226e-06 -5.17448e-06 0)
(3.05561e-06 -5.03921e-06 0)
(3.33349e-06 -4.90101e-06 0)
(3.61523e-06 -4.76052e-06 0)
(3.90036e-06 -4.61856e-06 0)
(4.18828e-06 -4.4757e-06 0)
(4.47844e-06 -4.33237e-06 0)
(4.77031e-06 -4.18886e-06 0)
(5.06338e-06 -4.04531e-06 0)
(5.35724e-06 -3.90173e-06 0)
(5.65153e-06 -3.75808e-06 0)
(5.94596e-06 -3.61422e-06 0)
(6.24034e-06 -3.46999e-06 0)
(6.53456e-06 -3.32521e-06 0)
(6.82857e-06 -3.17974e-06 0)
(7.12242e-06 -3.03348e-06 0)
(7.41617e-06 -2.88642e-06 0)
(7.70994e-06 -2.73863e-06 0)
(8.0038e-06 -2.59037e-06 0)
(8.29789e-06 -2.44195e-06 0)
(2.12511e-07 -4.57707e-06 0)
(6.40717e-07 -4.50897e-06 0)
(1.07861e-06 -4.37558e-06 0)
(1.53161e-06 -4.18212e-06 0)
(2.00425e-06 -3.93604e-06 0)
(2.49937e-06 -3.64654e-06 0)
(3.01813e-06 -3.3241e-06 0)
(3.55967e-06 -2.97992e-06 0)
(4.12149e-06 -2.6253e-06 0)
(4.69968e-06 -2.26951e-06 0)
(2.06186e-07 -4.64713e-06 0)
(6.21258e-07 -4.58491e-06 0)
(1.04447e-06 -4.46297e-06 0)
(1.4804e-06 -4.28571e-06 0)
(1.93291e-06 -4.05945e-06 0)
(2.40452e-06 -3.79204e-06 0)
(2.89625e-06 -3.4924e-06 0)
(3.40741e-06 -3.17013e-06 0)
(3.93496e-06 -2.83558e-06 0)
(4.47662e-06 -2.49549e-06 0)
(2.00686e-07 -4.71893e-06 0)
(6.04295e-07 -4.66204e-06 0)
(1.01458e-06 -4.55047e-06 0)
(1.4353e-06 -4.38802e-06 0)
(1.86964e-06 -4.18018e-06 0)
(2.3198e-06 -3.93368e-06 0)
(2.78677e-06 -3.65619e-06 0)
(3.27058e-06 -3.3557e-06 0)
(3.76894e-06 -3.04129e-06 0)
(4.2807e-06 -2.71655e-06 0)
(1.95794e-07 -4.79262e-06 0)
(5.89262e-07 -4.74028e-06 0)
(9.88309e-07 -4.63755e-06 0)
(1.39605e-06 -4.48776e-06 0)
(1.81514e-06 -4.29571e-06 0)
(2.2474e-06 -4.06731e-06 0)
(2.69357e-06 -3.80933e-06 0)
(3.15368e-06 -3.52872e-06 0)
(3.62588e-06 -3.23397e-06 0)
(4.10905e-06 -2.92745e-06 0)
(1.91281e-07 -4.86816e-06 0)
(5.75416e-07 -4.81987e-06 0)
(9.64197e-07 -4.72504e-06 0)
(1.3602e-06 -4.58662e-06 0)
(1.76566e-06 -4.40888e-06 0)
(2.18209e-06 -4.19702e-06 0)
(2.61017e-06 -3.95705e-06 0)
(3.04992e-06 -3.69488e-06 0)
(3.5001e-06 -3.41819e-06 0)
(3.95862e-06 -3.12906e-06 0)
(1.87084e-07 -4.94542e-06 0)
(5.62579e-07 -4.90065e-06 0)
(9.41991e-07 -4.81268e-06 0)
(1.32747e-06 -4.68416e-06 0)
(1.72088e-06 -4.51895e-06 0)
(2.12343e-06 -4.32168e-06 0)
(2.53572e-06 -4.09782e-06 0)
(2.95756e-06 -3.8526e-06 0)
(3.38843e-06 -3.59292e-06 0)
(3.82542e-06 -3.32101e-06 0)
(1.83071e-07 -5.02432e-06 0)
(5.50335e-07 -4.98267e-06 0)
(9.20926e-07 -4.90081e-06 0)
(1.29665e-06 -4.78113e-06 0)
(1.6791e-06 -4.62714e-06 0)
(2.06923e-06 -4.443e-06 0)
(2.46764e-06 -4.23368e-06 0)
(2.87388e-06 -4.00386e-06 0)
(3.28801e-06 -3.75967e-06 0)
(3.70641e-06 -3.50382e-06 0)
(1.79189e-07 -5.10465e-06 0)
(5.38528e-07 -5.06576e-06 0)
(9.00733e-07 -4.98928e-06 0)
(1.26734e-06 -4.87741e-06 0)
(1.63971e-06 -4.73335e-06 0)
(2.0186e-06 -4.56093e-06 0)
(2.40457e-06 -4.36467e-06 0)
(2.79699e-06 -4.14889e-06 0)
(3.19635e-06 -3.91896e-06 0)
(3.59868e-06 -3.67803e-06 0)
(1.75364e-07 -5.18625e-06 0)
(5.26925e-07 -5.14982e-06 0)
(8.80993e-07 -5.07815e-06 0)
(1.23889e-06 -4.97326e-06 0)
(1.60182e-06 -4.83811e-06 0)
(1.97037e-06 -4.67621e-06 0)
(2.34509e-06 -4.49169e-06 0)
(2.72521e-06 -4.2886e-06 0)
(3.11145e-06 -4.07165e-06 0)
(3.49979e-06 -3.84435e-06 0)
(1.71551e-07 -5.26891e-06 0)
(5.15386e-07 -5.23467e-06 0)
(8.61457e-07 -5.16729e-06 0)
(1.21093e-06 -5.06865e-06 0)
(1.56487e-06 -4.94146e-06 0)
(1.92375e-06 -4.78901e-06 0)
(2.28812e-06 -4.61507e-06 0)
(2.65711e-06 -4.42347e-06 0)
(3.03157e-06 -4.21835e-06 0)
(3.4076e-06 -4.00345e-06 0)
(1.67696e-07 -5.35242e-06 0)
(5.03749e-07 -5.32015e-06 0)
(8.41839e-07 -5.25663e-06 0)
(1.18302e-06 -5.16361e-06 0)
(1.52827e-06 -5.0436e-06 0)
(1.87797e-06 -4.89966e-06 0)
(2.23265e-06 -4.73526e-06 0)
(2.59143e-06 -4.55404e-06 0)
(2.95518e-06 -4.35968e-06 0)
(3.32027e-06 -4.156e-06 0)
(1.63757e-07 -5.43652e-06 0)
(4.91881e-07 -5.40603e-06 0)
(8.21905e-07 -5.346e-06 0)
(1.15481e-06 -5.25806e-06 0)
(1.49151e-06 -5.14453e-06 0)
(1.83234e-06 -5.00829e-06 0)
(2.17781e-06 -4.85253e-06 0)
(2.52707e-06 -4.68071e-06 0)
(2.88094e-06 -4.49613e-06 0)
(3.23614e-06 -4.3026e-06 0)
(1.59686e-07 -5.52099e-06 0)
(4.79636e-07 -5.49212e-06 0)
(8.01402e-07 -5.43526e-06 0)
(1.12592e-06 -5.35193e-06 0)
(1.45408e-06 -5.2443e-06 0)
(1.78619e-06 -5.11504e-06 0)
(2.12275e-06 -4.96713e-06 0)
(2.46298e-06 -4.80384e-06 0)
(2.80759e-06 -4.62815e-06 0)
(3.15369e-06 -4.4438e-06 0)
(1.55436e-07 -5.6055e-06 0)
(4.66869e-07 -5.57811e-06 0)
(7.80081e-07 -5.52415e-06 0)
(1.096e-06 -5.44504e-06 0)
(1.41549e-06 -5.34279e-06 0)
(1.73889e-06 -5.21991e-06 0)
(2.06666e-06 -5.07916e-06 0)
(2.39815e-06 -4.92363e-06 0)
(2.73394e-06 -4.75604e-06 0)
(3.07153e-06 -4.58001e-06 0)
(1.50952e-07 -5.68979e-06 0)
(4.53417e-07 -5.66377e-06 0)
(7.57663e-07 -5.61249e-06 0)
(1.06463e-06 -5.53727e-06 0)
(1.3752e-06 -5.43998e-06 0)
(1.68973e-06 -5.32297e-06 0)
(2.0087e-06 -5.18879e-06 0)
(2.33156e-06 -5.04035e-06 0)
(2.65877e-06 -4.88018e-06 0)
(2.98822e-06 -4.7117e-06 0)
(1.46176e-07 -5.77336e-06 0)
(4.39104e-07 -5.74861e-06 0)
(7.33848e-07 -5.69983e-06 0)
(1.0314e-06 -5.62823e-06 0)
(1.33264e-06 -5.53555e-06 0)
(1.63801e-06 -5.42397e-06 0)
(1.94799e-06 -5.29588e-06 0)
(2.26215e-06 -5.15398e-06 0)
(2.58088e-06 -5.00065e-06 0)
(2.90241e-06 -4.83906e-06 0)
(1.41038e-07 -5.85607e-06 0)
(4.23714e-07 -5.83252e-06 0)
(7.08273e-07 -5.78609e-06 0)
(9.95765e-07 -5.71789e-06 0)
(1.28712e-06 -5.62955e-06 0)
(1.58287e-06 -5.52307e-06 0)
(1.8835e-06 -5.40066e-06 0)
(2.18873e-06 -5.26488e-06 0)
(2.49891e-06 -5.11789e-06 0)
(2.81251e-06 -4.96271e-06 0)
(1.35462e-07 -5.93687e-06 0)
(4.07023e-07 -5.91447e-06 0)
(6.80564e-07 -5.87028e-06 0)
(9.57211e-07 -5.80535e-06 0)
(1.23796e-06 -5.72113e-06 0)
(1.52344e-06 -5.61951e-06 0)
(1.81417e-06 -5.50252e-06 0)
(2.11006e-06 -5.37253e-06 0)
(2.41134e-06 -5.23155e-06 0)
(2.71692e-06 -5.08242e-06 0)
(1.29334e-07 -6.01627e-06 0)
(3.88689e-07 -5.99498e-06 0)
(6.50146e-07 -5.95298e-06 0)
(9.14925e-07 -5.89119e-06 0)
(1.18411e-06 -5.81098e-06 0)
(1.45845e-06 -5.71406e-06 0)
(1.73854e-06 -5.60229e-06 0)
(2.02445e-06 -5.47787e-06 0)
(2.31641e-06 -5.34266e-06 0)
(2.61365e-06 -5.19926e-06 0)
(1.22601e-07 -6.09145e-06 0)
(3.68552e-07 -6.07126e-06 0)
(6.16749e-07 -6.03143e-06 0)
(8.68511e-07 -5.97279e-06 0)
(1.12504e-06 -5.89658e-06 0)
(1.3872e-06 -5.80436e-06 0)
(1.65575e-06 -5.69783e-06 0)
(1.93089e-06 -5.57901e-06 0)
(2.21295e-06 -5.44963e-06 0)
(2.50139e-06 -5.31205e-06 0)
)
;

boundaryField
{
    left
    {
        type            solidSymmetry;
        patchType       symmetryPlane;
        secondOrder     false;
        value           nonuniform List<vector> 
30
(
(0 -4.57919e-06 0)
(0 -4.64919e-06 0)
(0 -4.72092e-06 0)
(0 -4.79455e-06 0)
(0 -4.87001e-06 0)
(0 -4.9472e-06 0)
(0 -5.02601e-06 0)
(0 -5.10624e-06 0)
(0 -5.18774e-06 0)