/*--------------------------------*- C++ -*----------------------------------*\
| =========                 |                                                 |
| \\      /  F ield         | foam-extend: Open Source CFD                    |
|  \\    /   O peration     | Version:     4.1                                |
|   \\  /    A nd           | Web:         http://www.foam-extend.org         |
|    \\/     M anipulation  |                                                 |
\*---------------------------------------------------------------------------*/
FoamFile
{
    version     2.0;
    format      ascii;
    class       volVectorField;
    location    "10";
    object      D_0;
}
// * * * * * * * * * * * * * * * * * * * * * * * * * * * * * * * * * * * * * //

dimensions      [0 1 0 0 0 0 0];

internalField   nonuniform List<vector> 
1000
(
(4.79253e-06 -2.11413e-06 0)
(4.51297e-06 -1.96297e-06 0)
(4.33263e-06 -1.86517e-06 0)
(4.22743e-06 -1.81701e-06 0)
(4.17379e-06 -1.79697e-06 0)
(4.15773e-06 -1.79876e-06 0)
(4.16926e-06 -1.81469e-06 0)
(4.20173e-06 -1.84103e-06 0)
(4.24944e-06 -1.87455e-06 0)
(4.3105e-06 -1.91307e-06 0)
(4.33205e-06 -2.3089e-06 0)
(4.0343e-06 -2.20168e-06 0)
(3.84269e-06 -2.13157e-06 0)
(3.72931e-06 -2.10218e-06 0)
(3.66951e-06 -2.09452e-06 0)
(3.64802e-06 -2.10505e-06 0)
(3.65447e-06 -2.12726e-06 0)
(3.68164e-06 -2.15824e-06 0)
(3.72377e-06 -2.19579e-06 0)
(3.77765e-06 -2.23639e-06 0)
(3.854e-06 -2.49356e-06 0)
(3.54986e-06 -2.43548e-06 0)
(3.35449e-06 -2.3964e-06 0)
(3.23768e-06 -2.38785e-06 0)
(3.17462e-06 -2.39381e-06 0)
(3.14942e-06 -2.41377e-06 0)
(3.15164e-06 -2.44256e-06 0)
(3.17389e-06 -2.4783e-06 0)
(3.21046e-06 -2.51971e-06 0)
(3.25791e-06 -2.56306e-06 0)
(3.362e-06 -2.66483e-06 0)
(3.06409e-06 -2.65838e-06 0)
(2.87297e-06 -2.65194e-06 0)
(2.75784e-06 -2.66519e-06 0)
(2.69466e-06 -2.68534e-06 0)
(2.66763e-06 -2.71505e-06 0)
(2.66669e-06 -2.75052e-06 0)
(2.68454e-06 -2.79106e-06 0)
(2.71591e-06 -2.83614e-06 0)
(2.75697e-06 -2.88236e-06 0)
(2.85923e-06 -2.81936e-06 0)
(2.5803e-06 -2.86413e-06 0)
(2.40155e-06 -2.8901e-06 0)
(2.29326e-06 -2.92492e-06 0)
(2.23313e-06 -2.95905e-06 0)
(2.20619e-06 -2.99831e-06 0)
(2.20317e-06 -3.04026e-06 0)
(2.21717e-06 -3.08546e-06 0)
(2.24352e-06 -3.13399e-06 0)
(2.2783e-06 -3.18318e-06 0)
(2.34838e-06 -2.95394e-06 0)
(2.10068e-06 -3.04666e-06 0)
(1.94207e-06 -3.103e-06 0)
(1.8456e-06 -3.15798e-06 0)
(1.79156e-06 -3.20516e-06 0)
(1.76658e-06 -3.25331e-06 0)
(1.76251e-06 -3.30124e-06 0)
(1.77317e-06 -3.35077e-06 0)
(1.79463e-06 -3.40243e-06 0)
(1.8231e-06 -3.45448e-06 0)
(1.8317e-06 -3.06559e-06 0)
(1.6263e-06 -3.20033e-06 0)
(1.49485e-06 -3.28329e-06 0)
(1.41465e-06 -3.35593e-06 0)
(1.36944e-06 -3.41451e-06 0)
(1.34809e-06 -3.47042e-06 0)
(1.34388e-06 -3.52355e-06 0)
(1.35165e-06 -3.57688e-06 0)
(1.3683e-06 -3.63124e-06 0)
(1.39044e-06 -3.68588e-06 0)
(1.31101e-06 -3.15172e-06 0)
(1.1572e-06 -3.32022e-06 0)
(1.05879e-06 -3.42457e-06 0)
(9.98625e-07 -3.51138e-06 0)
(9.64566e-07 -3.57912e-06 0)
(9.4823e-07 -3.64125e-06 0)
(9.44642e-07 -3.69857e-06 0)
(9.49906e-07 -3.75494e-06 0)
(9.61776e-07 -3.81146e-06 0)
(9.7758e-07 -3.86826e-06 0)
(7.87748e-07 -3.21028e-06 0)
(6.92517e-07 -3.40239e-06 0)
(6.31583e-07 -3.52172e-06 0)
(5.94267e-07 -3.61844e-06 0)
(5.73077e-07 -3.69259e-06 0)
(5.62811e-07 -3.75907e-06 0)
(5.60404e-07 -3.8193e-06 0)
(5.63432e-07 -3.87783e-06 0)
(5.70537e-07 -3.93586e-06 0)
(5.8001e-07 -3.99421e-06 0)
(2.63082e-07 -3.23978e-06 0)
(2.30803e-07 -3.44408e-06 0)
(2.10125e-07 -3.57114e-06 0)
(1.97436e-07 -3.67299e-06 0)
(1.90206e-07 -3.75046e-06 0)
(1.86674e-07 -3.8192e-06 0)
(1.85803e-07 -3.88094e-06 0)
(1.8677e-07 -3.94058e-06 0)
(1.8912e-07 -3.9994e-06 0)
(1.92265e-07 -4.05856e-06 0)
(7.49762e-06 -9.66349e-08 0)
(7.56752e-06 -6.95581e-08 0)
(7.60785e-06 -5.22836e-08 0)
(7.65051e-06 -4.20138e-08 0)
(7.69603e-06 -3.61819e-08 0)
(7.75212e-06 -3.33295e-08 0)
(7.8186e-06 -3.2481e-08 0)
(7.89657e-06 -3.29467e-08 0)
(7.98574e-06 -3.43553e-08 0)
(8.08493e-06 -3.60868e-08 0)
(7.44163e-06 -2.89841e-07 0)
(7.4999e-06 -2.10193e-07 0)
(7.53293e-06 -1.59489e-07 0)
(7.57073e-06 -1.29425e-07 0)
(7.61306e-06 -1.12422e-07 0)
(7.6669e-06 -1.04182e-07 0)
(7.73174e-06 -1.0183e-07 0)
(7.80837e-06 -1.03342e-07 0)
(7.89643e-06 -1.07609e-07 0)
(7.9944e-06 -1.12837e-07 0)
(7.32983e-06 -4.84709e-07 0)
(7.36594e-06 -3.56777e-07 0)
(7.38495e-06 -2.75391e-07 0)
(7.41345e-06 -2.27263e-07 0)
(7.44965e-06 -2.00148e-07 0)
(7.49914e-06 -1.87159e-07 0)
(7.56083e-06 -1.83645e-07 0)
(7.63487e-06 -1.86378e-07 0)
(7.72081e-06 -1.93523e-07 0)
(7.81639e-06 -2.02287e-07 0)
(7.16425e-06 -6.81978e-07 0)
(7.16886e-06 -5.12674e-07 0)
(7.16791e-06 -4.04939e-07 0)
(7.18318e-06 -3.41484e-07 0)
(7.21065e-06 -3.05917e-07 0)
(7.25394e-06 -2.89181e-07 0)
(7.31113e-06 -2.85039e-07 0)
(7.38148e-06 -2.89266e-07 0)
(7.46439e-06 -2.99313e-07 0)
(7.55661e-06 -3.11668e-07 0)
(6.94757e-06 -8.8219e-07 0)
(6.9132e-06 -6.80677e-07 0)
(6.88757e-06 -5.52366e-07 0)
(6.88647e-06 -4.77223e-07 0)
(6.90311e-06 -4.35421e-07 0)
(6.93871e-06 -4.16276e-07 0)
(6.9903e-06 -4.12231e-07 0)
(7.05608e-06 -4.18321e-07 0)
(7.13517e-06 -4.31326e-07 0)
(7.22329e-06 -4.47338e-07 0)
(6.68316e-06 -1.0854e-06 0)
(6.60468e-06 -8.62553e-07 0)
(6.55114e-06 -7.20516e-07 0)
(6.53148e-06 -6.38006e-07 0)
(6.53583e-06 -5.926e-07 0)
(6.56267e-06 -5.72635e-07 0)
(6.60782e-06 -5.6955e-07 0)
(6.66835e-06 -5.77941e-07 0)
(6.743e-06 -5.93979e-07 0)
(6.82649e-06 -6.13705e-07 0)
(6.37494e-06 -1.29122e-06 0)
(6.2499e-06 -1.05902e-06 0)
(6.16691e-06 -9.10828e-07 0)
(6.12763e-06 -8.2573e-07 0)
(6.11894e-06 -7.7964e-07 0)
(6.13643e-06 -7.60619e-07 0)
(6.17464e-06 -7.59481e-07 0)
(6.2295e-06 -7.70671e-07 0)
(6.29924e-06 -7.89903e-07 0)
(6.37781e-06 -8.13399e-07 0)
(6.02721e-06 -1.49872e-06 0)
(5.85601e-06 -1.26959e-06 0)
(5.74385e-06 -1.12308e-06 0)
(5.68505e-06 -1.04035e-06 0)
(5.66327e-06 -9.96602e-07 0)
(5.6713e-06 -9.80349e-07 0)
(5.70233e-06 -9.8216e-07 0)
(5.75131e-06 -9.96685e-07 0)
(5.81576e-06 -1.01927e-06 0)
(5.88934e-06 -1.04669e-06 0)
(5.64452e-06 -1.70643e-06 0)
(5.43042e-06 -1.49253e-06 0)
(5.2912e-06 -1.35544e-06 0)
(5.21418e-06 -1.27994e-06 0)
(5.1801e-06 -1.2415e-06 0)
(5.17908e-06 -1.22978e-06 0)
(5.20308e-06 -1.23558e-06 0)
(5.24622e-06 -1.2539e-06 0)
(5.30512e-06 -1.28026e-06 0)
(5.37388e-06 -1.31168e-06 0)
(5.23144e-06 -1.91238e-06 0)
(4.98042e-06 -1.72498e-06 0)
(4.81794e-06 -1.60444e-06 0)
(4.7251e-06 -1.54068e-06 0)
(4.68013e-06 -1.51027e-06 0)
(4.67085e-06 -1.50469e-06 0)
(4.68813e-06 -1.51525e-06 0)
(4.72547e-06 -1.53776e-06 0)
(4.7786e-06 -1.56782e-06 0)
(4.84275e-06 -1.60426e-06 0)
(8.19458e-06 -3.78579e-08 0)
(8.31426e-06 -3.80619e-08 0)
(8.44171e-06 -3.83988e-08 0)
(8.57651e-06 -3.85971e-08 0)
(8.71777e-06 -3.86116e-08 0)
(8.8649e-06 -3.84276e-08 0)
(9.01724e-06 -3.79972e-08 0)
(9.17422e-06 -3.73143e-08 0)
(9.33527e-06 -3.63513e-08 0)
(9.49985e-06 -3.50946e-08 0)
(9.66745e-06 -3.352e-08 0)
(9.83754e-06 -3.16042e-08 0)
(1.00096e-05 -2.93156e-08 0)
(1.01831e-05 -2.66181e-08 0)
(1.03576e-05 -2.34645e-08 0)
(1.05323e-05 -1.98009e-08 0)
(1.07068e-05 -1.55552e-08 0)
(1.08798e-05 -1.06519e-08 0)
(1.10517e-05 -4.96648e-09 0)
(1.12193e-05 1.55041e-09 0)
(8.10811e-06 -1.17733e-07 0)
(8.23508e-06 -1.17777e-07 0)
(8.36905e-06 -1.18267e-07 0)
(8.50948e-06 -1.18442e-07 0)
(8.65576e-06 -1.18126e-07 0)
(8.80731e-06 -1.17282e-07 0)
(8.96363e-06 -1.15749e-07 0)
(9.12418e-06 -1.13503e-07 0)
(9.28846e-06 -1.10454e-07 0)
(9.456e-06 -1.06556e-07 0)
(9.62631e-06 -1.01731e-07 0)
(9.79891e-06 -9.59055e-08 0)
(9.97334e-06 -8.89808e-08 0)
(1.01491e-05 -8.08458e-08 0)
(1.03256e-05 -7.13571e-08 0)
(1.05022e-05 -6.03508e-08 0)
(1.06787e-05 -4.76091e-08 0)
(1.08536e-05 -3.29045e-08 0)
(1.10273e-05 -1.58628e-08 0)
(1.11967e-05 3.66472e-09 0)
(7.93804e-06 -2.09038e-07 0)
(8.07929e-06 -2.07291e-07 0)
(8.22601e-06 -2.0646e-07 0)
(8.37747e-06 -2.05485e-07 0)
(8.53358e-06 -2.03891e-07 0)
(8.69382e-06 -2.01637e-07 0)
(8.85795e-06 -1.98385e-07 0)
(9.0255e-06 -1.94086e-07 0)
(9.19615e-06 -1.88557e-07 0)
(9.36949e-06 -1.81705e-07 0)
(9.54515e-06 -1.73385e-07 0)
(9.7227e-06 -1.63462e-07 0)
(9.90174e-06 -1.51761e-07 0)
(1.00818e-05 -1.38088e-07 0)
(1.02624e-05 -1.22199e-07 0)
(1.0443e-05 -1.03813e-07 0)
(1.06232e-05 -8.25628e-08 0)
(1.08018e-05 -5.80638e-08 0)
(1.09791e-05 -2.96896e-08 0)
(1.11521e-05 2.81412e-09 0)
(7.68957e-06 -3.18306e-07 0)
(7.85133e-06 -3.12227e-07 0)
(8.01649e-06 -3.07733e-07 0)
(8.18394e-06 -3.0382e-07 0)
(8.35437e-06 -2.99439e-07 0)
(8.52727e-06 -2.94575e-07 0)
(8.70279e-06 -2.88629e-07 0)
(8.88059e-06 -2.81495e-07 0)
(9.06058e-06 -2.72864e-07 0)
(9.24243e-06 -2.62569e-07 0)
(9.42592e-06 -2.50375e-07 0)
(9.61072e-06 -2.36069e-07 0)
(9.79653e-06 -2.19385e-07 0)
(9.98292e-06 -2.00036e-07 0)
(1.01696e-05 -1.77662e-07 0)
(1.03559e-05 -1.51859e-07 0)
(1.05416e-05 -1.22102e-07 0)
(1.07256e-05 -8.78414e-08 0)
(1.09082e-05 -4.81909e-08 0)
(1.10865e-05 -2.77361e-09 0)
(7.37023e-06 -4.5136e-07 0)
(7.55767e-06 -4.37676e-07 0)
(7.74621e-06 -4.26484e-07 0)
(7.93394e-06 -4.17287e-07 0)
(8.12266e-06 -4.08152e-07 0)
(8.31177e-06 -3.99094e-07 0)
(8.50194e-06 -3.89168e-07 0)
(8.69294e-06 -3.7816e-07 0)
(8.88494e-06 -3.65594e-07 0)
(9.07778e-06 -3.51192e-07 0)
(9.27139e-06 -3.34605e-07 0)
(9.46556e-06 -3.15516e-07 0)
(9.66011e-06 -2.93554e-07 0)
(9.85472e-06 -2.68319e-07 0)
(1.00491e-05 -2.3933e-07 0)
(1.02428e-05 -2.06047e-07 0)
(1.04357e-05 -1.67776e-07 0)
(1.06266e-05 -1.23798e-07 0)
(1.0816e-05 -7.29585e-08 0)
(1.10011e-05 -1.47442e-08 0)
(6.98921e-06 -6.12304e-07 0)
(7.20621e-06 -5.87244e-07 0)
(7.42203e-06 -5.65813e-07 0)
(7.63357e-06 -5.48505e-07 0)
(7.84394e-06 -5.32268e-07 0)
(8.05232e-06 -5.17083e-07 0)
(8.25997e-06 -5.01623e-07 0)
(8.46678e-06 -4.85479e-07 0)
(8.67321e-06 -4.67981e-07 0)
(8.87925e-06 -4.48685e-07 0)
(9.08503e-06 -4.27104e-07 0)
(9.29048e-06 -4.02782e-07 0)
(9.49554e-06 -3.75221e-07 0)
(9.70001e-06 -3.43893e-07 0)
(9.90376e-06 -3.08174e-07 0)
(1.01064e-05 -2.67379e-07 0)
(1.03077e-05 -2.20634e-07 0)
(1.05069e-05 -1.6704e-07 0)
(1.07045e-05 -1.05172e-07 0)
(1.08978e-05 -3.43573e-08 0)
(6.55715e-06 -8.03796e-07 0)
(6.80616e-06 -7.63489e-07 0)
(7.05204e-06 -7.28267e-07 0)
(7.29004e-06 -6.99834e-07 0)
(7.5246e-06 -6.74061e-07 0)
(7.75473e-06 -6.50671e-07 0)
(7.98216e-06 -6.28002e-07 0)
(8.20694e-06 -6.05326e-07 0)
(8.4298e-06 -5.81767e-07 0)
(8.65093e-06 -5.56661e-07 0)
(8.87063e-06 -5.29355e-07 0)
(9.08899e-06 -4.9923e-07 0)
(9.3061e-06 -4.65643e-07 0)
(9.52187e-06 -4.27919e-07 0)
(9.7363e-06 -3.85281e-07 0)
(9.94908e-06 -3.36888e-07 0)
(1.01602e-05 -2.8168e-07 0)
(1.03689e-05 -2.18574e-07 0)
(1.05759e-05 -1.45873e-07 0)
(1.07785e-05 -6.27438e-08 0)
(6.08501e-06 -1.02626e-06 0)
(6.36697e-06 -9.66572e-07 0)
(6.64429e-06 -9.14073e-07 0)
(6.91058e-06 -8.71177e-07 0)
(7.17112e-06 -8.33265e-07 0)
(7.42495e-06 -7.99392e-07 0)
(7.67399e-06 -7.67703e-07 0)
(7.91859e-06 -7.37028e-07 0)
(8.15959e-06 -7.0626e-07 0)
(8.39742e-06 -6.74459e-07 0)
(8.63254e-06 -6.40764e-07 0)
(8.86521e-06 -6.04361e-07 0)
(9.09565e-06 -5.64428e-07 0)
(9.32394e-06 -5.20122e-07 0)
(9.55017e-06 -4.70498e-07 0)
(9.77417e-06 -4.14547e-07 0)
(9.9961e-06 -3.51016e-07 0)
(1.02153e-05 -2.78633e-07 0)
(1.04325e-05 -1.95433e-07 0)
(1.06455e-05 -1.00406e-07 0)
(5.58472e-06 -1.27933e-06 0)
(5.89948e-06 -1.19669e-06 0)
(6.20805e-06 -1.12467e-06 0)
(6.50348e-06 -1.0645e-06 0)
(6.79072e-06 -1.01224e-06 0)
(7.06935e-06 -9.65868e-07 0)
(7.34112e-06 -9.23413e-07 0)
(7.6067e-06 -8.83226e-07 0)
(7.86703e-06 -8.43942e-07 0)
(8.12275e-06 -8.04343e-07 0)
(8.37444e-06 -7.63343e-07 0)
(8.62252e-06 -7.19919e-07 0)
(8.86736e-06 -6.73061e-07 0)
(9.10915e-06 -6.21747e-07 0)
(9.34812e-06 -5.64856e-07 0)
(9.58424e-06 -5.01203e-07 0)
(9.81778e-06 -4.29344e-07 0)
(1.00482e-05 -3.47821e-07 0)
(1.02765e-05 -2.54424e-07 0)
(1.05007e-05 -1.47987e-07 0)
(5.06544e-06 -1.55814e-06 0)
(5.41201e-06 -1.44805e-06 0)
(5.74993e-06 -1.35429e-06 0)
(6.075e-06 -1.27406e-06 0)
(6.38957e-06 -1.20501e-06 0)
(6.69408e-06 -1.14418e-06 0)
(6.98973e-06 -1.08938e-06 0)
(7.27745e-06 -1.03852e-06 0)
(7.5582e-06 -9.89875e-07 0)
(7.83279e-06 -9.41898e-07 0)
(8.10195e-06 -8.93214e-07 0)
(8.36626e-06 -8.42556e-07 0)
(8.62623e-06 -7.88693e-07 0)
(8.8822e-06 -7.30405e-07 0)
(9.13453e-06 -6.66387e-07 0)
(9.38333e-06 -5.95276e-07 0)
(9.629e-06 -5.15441e-07 0)
(9.87124e-06 -4.25247e-07 0)
(1.0111e-05 -3.22248e-07 0)
(1.03469e-05 -2.05094e-07 0)
(4.6854e-06 -1.82024e-06 0)
(5.05098e-06 -1.68942e-06 0)
(5.40503e-06 -1.58032e-06 0)
(5.74701e-06 -1.48494e-06 0)
(6.07785e-06 -1.4017e-06 0)
(6.39813e-06 -1.32774e-06 0)
(6.70884e-06 -1.26084e-06 0)
(7.0108e-06 -1.19889e-06 0)
(7.30492e-06 -1.14006e-06 0)
(7.59198e-06 -1.08269e-06 0)
(7.87272e-06 -1.02526e-06 0)
(8.14776e-06 -9.66364e-07 0)
(8.41765e-06 -9.04646e-07 0)
(8.68283e-06 -8.38756e-07 0)
(8.94375e-06 -7.67278e-07 0)
(9.20063e-06 -6.88746e-07 0)
(9.45397e-06 -6.0145e-07 0)
(9.70369e-06 -5.03685e-07 0)
(9.9508e-06 -3.9295e-07 0)
(1.01943e-05 -2.67874e-07 0)
(4.46527e-06 -2.03031e-06 0)
(4.833e-06 -1.89469e-06 0)
(5.1897e-06 -1.77731e-06 0)
(5.53574e-06 -1.67294e-06 0)
(5.8713e-06 -1.5801e-06 0)
(6.1968e-06 -1.49642e-06 0)
(6.51291e-06 -1.41988e-06 0)
(6.82025e-06 -1.34856e-06 0)
(7.11958e-06 -1.28071e-06 0)
(7.41156e-06 -1.21469e-06 0)
(7.69686e-06 -1.14901e-06 0)
(7.97607e-06 -1.08225e-06 0)
(8.24973e-06 -1.01303e-06 0)
(8.51831e-06 -9.3997e-07 0)
(8.78228e-06 -8.6166e-07 0)
(9.04196e-06 -7.7663e-07 0)
(9.29789e-06 -6.83201e-07 0)
(9.55018e-06 -5.79717e-07 0)
(9.79985e-06 -4.63801e-07 0)
(1.00463e-05 -3.34192e-07 0)
(4.27418e-06 -2.23357e-06 0)
(4.63857e-06 -2.09434e-06 0)
(4.99451e-06 -1.97115e-06 0)
(5.341e-06 -1.85964e-06 0)
(5.67821e-06 -1.75871e-06 0)
(6.00612e-06 -1.66648e-06 0)
(6.32516e-06 -1.58118e-06 0)
(6.63575e-06 -1.50112e-06 0)
(6.93845e-06 -1.42467e-06 0)
(7.2338e-06 -1.3503e-06 0)
(7.52237e-06 -1.27657e-06 0)
(7.80468e-06 -1.20208e-06 0)
(8.08127e-06 -1.12547e-06 0)
(8.35257e-06 -1.04539e-06 0)
(8.61908e-06 -9.60426e-07 0)
(8.88118e-06 -8.69156e-07 0)
(9.13944e-06 -7.69961e-07 0)
(9.39411e-06 -6.61267e-07 0)
(9.6462e-06 -5.40862e-07 0)
(9.89553e-06 -4.07618e-07 0)
(4.10459e-06 -2.42941e-06 0)
(4.4638e-06 -2.28817e-06 0)
(4.8166e-06 -2.16049e-06 0)
(5.16118e-06 -2.04304e-06 0)
(5.49775e-06 -1.93513e-06 0)
(5.82591e-06 -1.83529e-06 0)
(6.14593e-06 -1.74204e-06 0)
(6.458e-06 -1.65391e-06 0)
(6.76253e-06 -1.56942e-06 0)
(7.0599e-06 -1.48718e-06 0)
(7.35059e-06 -1.4058e-06 0)
(7.63506e-06 -1.32394e-06 0)
(7.91376e-06 -1.2403e-06 0)
(8.18713e-06 -1.15356e-06 0)
(8.45567e-06 -1.06235e-06 0)
(8.71978e-06 -9.653e-07 0)
(8.98005e-06 -8.6089e-07 0)
(9.23684e-06 -7.47647e-07 0)
(9.49114e-06 -6.23556e-07 0)
(9.74309e-06 -4.87617e-07 0)
(3.95442e-06 -2.61711e-06 0)
(4.30681e-06 -2.475e-06 0)
(4.65461e-06 -2.3442e-06 0)
(4.99542e-06 -2.22217e-06 0)
(5.3295e-06 -2.10853e-06 0)
(5.65614e-06 -2.00218e-06 0)
(5.97549e-06 -1.90192e-06 0)
(6.28752e-06 -1.80651e-06 0)
(6.59251e-06 -1.71466e-06 0)
(6.8907e-06 -1.62509e-06 0)
(7.18247e-06 -1.53654e-06 0)
(7.46818e-06 -1.44774e-06 0)
(7.74825e-06 -1.35746e-06 0)
(8.02308e-06 -1.26442e-06 0)
(8.29315e-06 -1.16736e-06 0)
(8.55886e-06 -1.06497e-06 0)
(8.82083e-06 -9.5583e-07 0)
(9.07948e-06 -8.38607e-07 0)
(9.33578e-06 -7.11499e-07 0)
(9.59009e-06 -5.73647e-07 0)
(3.82042e-06 -2.79654e-06 0)
(4.1651e-06 -2.65451e-06 0)
(4.50668e-06 -2.52165e-06 0)
(4.84242e-06 -2.3961e-06 0)
(5.17262e-06 -2.27778e-06 0)
(5.49636e-06 -2.1659e-06 0)
(5.81369e-06 -2.05953e-06 0)
(6.12442e-06 -1.95764e-06 0)
(6.42869e-06 -1.85914e-06 0)
(6.72666e-06 -1.76289e-06 0)
(7.01858e-06 -1.66773e-06 0)
(7.30474e-06 -1.57252e-06 0)
(7.5855e-06 -1.47607e-06 0)
(7.86122e-06 -1.37723e-06 0)
(8.13234e-06 -1.27479e-06 0)
(8.39928e-06 -1.16755e-06 0)
(8.66263e-06 -1.05423e-06 0)
(8.92288e-06 -9.33608e-07 0)
(9.18093e-06 -8.04125e-07 0)
(9.43735e-06 -6.65061e-07 0)
(3.69998e-06 -2.96786e-06 0)
(4.03642e-06 -2.82658e-06 0)
(4.37096e-06 -2.69254e-06 0)
(4.70072e-06 -2.56442e-06 0)
(5.02602e-06 -2.44239e-06 0)
(5.34582e-06 -2.32591e-06 0)
(5.66008e-06 -2.21431e-06 0)
(5.9685e-06 -2.10677e-06 0)
(6.27112e-06 -2.00235e-06 0)
(6.56798e-06 -1.90008e-06 0)
(6.85927e-06 -1.79893e-06 0)
(7.1452e-06 -1.69786e-06 0)
(7.42605e-06 -1.59578e-06 0)
(7.70215e-06 -1.49163e-06 0)
(7.97391e-06 -1.38431e-06 0)
(8.24173e-06 -1.27272e-06 0)
(8.50616e-06 -1.15571e-06 0)
(8.76774e-06 -1.03222e-06 0)
(9.0273e-06 -9.00922e-07 0)
(9.28556e-06 -7.61225e-07 0)
(3.59061e-06 -3.13137e-06 0)
(3.9186e-06 -2.99135e-06 0)
(4.24563e-06 -2.85679e-06 0)
(4.56884e-06 -2.72687e-06 0)
(4.88854e-06 -2.60195e-06 0)
(5.20364e-06 -2.4817e-06 0)
(5.51405e-06 -2.36568e-06 0)
(5.81937e-06 -2.25325e-06 0)
(6.11958e-06 -2.14365e-06 0)
(6.41464e-06 -2.03604e-06 0)
(6.70465e-06 -1.92953e-06 0)
(6.98976e-06 -1.82319e-06 0)
(7.2702e-06 -1.71604e-06 0)
(7.54625e-06 -1.60712e-06 0)
(7.81826e-06 -1.49543e-06 0)
(8.08664e-06 -1.38e-06 0)
(8.35189e-06 -1.25981e-06 0)
(8.61456e-06 -1.13396e-06 0)
(8.8754e-06 -1.00133e-06 0)
(9.13523e-06 -8.61474e-07 0)
(3.49013e-06 -3.28757e-06 0)
(3.80966e-06 -3.14909e-06 0)
(4.12895e-06 -3.01452e-06 0)
(4.44528e-06 -2.88341e-06 0)
(4.75893e-06 -2.7563e-06 0)
(5.06883e-06 -2.63302e-06 0)
(5.37481e-06 -2.51332e-06 0)
(5.67647e-06 -2.39673e-06 0)
(5.97371e-06 -2.28265e-06 0)
(6.26641e-06 -2.17039e-06 0)
(6.55464e-06 -2.05916e-06 0)
(6.83846e-06 -1.94815e-06 0)
(7.11808e-06 -1.8365e-06 0)
(7.39371e-06 -1.72335e-06 0)
(7.66567e-06 -1.60782e-06 0)
(7.93433e-06 -1.48904e-06 0)
(8.20015e-06 -1.36614e-06 0)
(8.46368e-06 -1.23837e-06 0)
(8.72558e-06 -1.10482e-06 0)
(8.98672e-06 -9.65175e-07 0)
(3.39656e-06 -3.43695e-06 0)
(3.70776e-06 -3.30018e-06 0)
(4.01929e-06 -3.16594e-06 0)
(4.3286e-06 -3.03414e-06 0)
(4.63596e-06 -2.9054e-06 0)
(4.94033e-06 -2.77973e-06 0)
(5.24154e-06 -2.65702e-06 0)
(5.53913e-06 -2.53695e-06 0)
(5.83298e-06 -2.41907e-06 0)
(6.12293e-06 -2.30279e-06 0)
(6.40898e-06 -2.18747e-06 0)
(6.69117e-06 -2.0724e-06 0)
(6.96964e-06 -1.95682e-06 0)
(7.24456e-06 -1.83998e-06 0)
(7.5162e-06 -1.72111e-06 0)
(7.78491e-06 -1.59945e-06 0)
(8.05108e-06 -1.47429e-06 0)
(8.31526e-06 -1.34499e-06 0)
(8.57802e-06 -1.21087e-06 0)
(8.84023e-06 -1.07172e-06 0)
(3.30815e-06 -3.58004e-06 0)
(3.61126e-06 -3.44502e-06 0)
(3.91512e-06 -3.31136e-06 0)
(4.21742e-06 -3.17925e-06 0)
(4.5184e-06 -3.04936e-06 0)
(4.81709e-06 -2.92184e-06 0)
(5.1133e-06 -2.79672e-06 0)
(5.40659e-06 -2.67379e-06 0)
(5.69679e-06 -2.55272e-06 0)
(5.98372e-06 -2.43305e-06 0)
(6.26733e-06 -2.31424e-06 0)
(6.54763e-06 -2.19569e-06 0)
(6.8247e-06 -2.07674e-06 0)
(7.09869e-06 -1.95673e-06 0)
(7.36981e-06 -1.83501e-06 0)
(7.63837e-06 -1.71094e-06 0)
(7.90473e-06 -1.58392e-06 0)
(8.16937e-06 -1.45344e-06 0)
(8.4328e-06 -1.31902e-06 0)
(8.69586e-06 -1.18053e-06 0)
(3.22333e-06 -3.71735e-06 0)
(3.51861e-06 -3.58404e-06 0)
(3.81498e-06 -3.45112e-06 0)
(4.11038e-06 -3.31897e-06 0)
(4.40502e-06 -3.18833e-06 0)
(4.69802e-06 -3.05944e-06 0)
(4.98917e-06 -2.93243e-06 0)
(5.27804e-06 -2.80719e-06 0)
(5.56445e-06 -2.68352e-06 0)
(5.8482e-06 -2.56104e-06 0)
(6.12922e-06 -2.43932e-06 0)
(6.40746e-06 -2.31784e-06 0)
(6.68298e-06 -2.19606e-06 0)
(6.95588e-06 -2.07339e-06 0)
(7.22634e-06 -1.94929e-06 0)
(7.49461e-06 -1.82322e-06 0)
(7.761e-06 -1.6947e-06 0)
(8.02595e-06 -1.56334e-06 0)
(8.28988e-06 -1.42882e-06 0)
(8.55358e-06 -1.29112e-06 0)
(3.14062e-06 -3.84935e-06 0)
(3.42838e-06 -3.71768e-06 0)
(3.71752e-06 -3.58558e-06 0)
(4.00622e-06 -3.45361e-06 0)
(4.29465e-06 -3.32254e-06 0)
(4.58204e-06 -3.19268e-06 0)
(4.86817e-06 -3.06424e-06 0)
(5.15264e-06 -2.93722e-06 0)
(5.43524e-06 -2.81147e-06 0)
(5.71577e-06 -2.68673e-06 0)
(5.99412e-06 -2.56264e-06 0)
(6.27023e-06 -2.43876e-06 0)
(6.54411e-06 -2.31464e-06 0)
(6.81583e-06 -2.18979e-06 0)
(7.08552e-06 -2.06374e-06 0)
(7.3534e-06 -1.93605e-06 0)
(7.6197e-06 -1.80635e-06 0)
(7.88483e-06 -1.67436e-06 0)
(8.14913e-06 -1.53989e-06 0)
(8.41331e-06 -1.40301e-06 0)
(3.05866e-06 -3.97646e-06 0)
(3.33923e-06 -3.84636e-06 0)
(3.62142e-06 -3.71511e-06 0)
(3.90367e-06 -3.58349e-06 0)
(4.18613e-06 -3.45225e-06 0)
(4.4681e-06 -3.32177e-06 0)
(4.74936e-06 -3.19232e-06 0)
(5.02954e-06 -3.06396e-06 0)
(5.30841e-06 -2.93663e-06 0)
(5.58576e-06 -2.81012e-06 0)
(5.86147e-06 -2.68416e-06 0)
(6.13545e-06 -2.55838e-06 0)
(6.40767e-06 -2.4324e-06 0)
(6.67818e-06 -2.3058e-06 0)
(6.94705e-06 -2.1782e-06 0)
(7.21446e-06 -2.04924e-06 0)
(7.48061e-06 -1.91864e-06 0)
(7.74582e-06 -1.78622e-06 0)
(8.01036e-06 -1.6519e-06 0)
(8.27486e-06 -1.51582e-06 0)
(2.97608e-06 -4.09912e-06 0)
(3.2498e-06 -3.97043e-06 0)
(3.52538e-06 -3.84009e-06 0)
(3.80151e-06 -3.70896e-06 0)
(4.0783e-06 -3.57779e-06 0)
(4.35513e-06 -3.44699e-06 0)
(4.63177e-06 -3.3169e-06 0)
(4.90787e-06 -3.18762e-06 0)
(5.18319e-06 -3.05914e-06 0)
(5.45751e-06 -2.93133e-06 0)
(5.73069e-06 -2.80396e-06 0)
(6.00261e-06 -2.67673e-06 0)
(6.27322e-06 -2.54932e-06 0)
(6.54253e-06 -2.42138e-06 0)
(6.81058e-06 -2.29258e-06 0)
(7.07749e-06 -2.16265e-06 0)
(7.34342e-06 -2.03139e-06 0)
(7.60862e-06 -1.89869e-06 0)
(7.87332e-06 -1.76457e-06 0)
(8.13802e-06 -1.62922e-06 0)
(2.89162e-06 -4.21759e-06 0)
(3.15881e-06 -4.0904e-06 0)
(3.42809e-06 -3.96088e-06 0)
(3.69853e-06 -3.83033e-06 0)
(3.97004e-06 -3.69946e-06 0)
(4.24211e-06 -3.56863e-06 0)
(4.51448e-06 -3.43823e-06 0)
(4.78681e-06 -3.3084e-06 0)
(5.05885e-06 -3.17917e-06 0)
(5.33037e-06 -3.05047e-06 0)
(5.60119e-06 -2.92211e-06 0)
(5.8712e-06 -2.79384e-06 0)
(6.1403e-06 -2.66539e-06 0)
(6.40847e-06 -2.53646e-06 0)
(6.67572e-06 -2.4068e-06 0)
(6.94213e-06 -2.27617e-06 0)
(7.20781e-06 -2.14444e-06 0)
(7.47296e-06 -2.01157e-06 0)
(7.73773e-06 -1.87766e-06 0)
(8.00254e-06 -1.74294e-06 0)
(2.80395e-06 -4.33242e-06 0)
(3.06475e-06 -4.20627e-06 0)
(3.32803e-06 -4.07787e-06 0)
(3.59345e-06 -3.94818e-06 0)
(3.86016e-06 -3.81776e-06 0)
(4.12799e-06 -3.68715e-06 0)
(4.39654e-06 -3.55672e-06 0)
(4.66552e-06 -3.42665e-06 0)
(4.93465e-06 -3.29703e-06 0)
(5.20369e-06 -3.16779e-06 0)
(5.47244e-06 -3.0388e-06 0)
(5.74073e-06 -2.90985e-06 0)
(6.00848e-06 -2.7807e-06 0)
(6.27561e-06 -2.6511e-06 0)
(6.54211e-06 -2.52084e-06 0)
(6.80804e-06 -2.38973e-06 0)
(7.07344e-06 -2.25769e-06 0)
(7.33849e-06 -2.12472e-06 0)
(7.60328e-06 -1.99101e-06 0)
(7.86811e-06 -1.85678e-06 0)
(2.71093e-06 -4.44346e-06 0)
(2.96632e-06 -4.31852e-06 0)
(3.22467e-06 -4.19151e-06 0)
(3.48523e-06 -4.06273e-06 0)
(3.74776e-06 -3.93297e-06 0)
(4.01185e-06 -3.80282e-06 0)
(4.27715e-06 -3.67264e-06 0)
(4.5433e-06 -3.54265e-06 0)
(4.80999e-06 -3.41294e-06 0)
(5.07695e-06 -3.28349e-06 0)
(5.34395e-06 -3.15419e-06 0)
(5.61081e-06 -3.02486e-06 0)
(5.87738e-06 -2.8953e-06 0)
(6.1436e-06 -2.7653e-06 0)
(6.40942e-06 -2.63466e-06 0)
(6.67488e-06 -2.50326e-06 0)
(6.94e-06 -2.37103e-06 0)
(7.2049e-06 -2.23802e-06 0)
(7.46965e-06 -2.10445e-06 0)
(7.73446e-06 -1.97058e-06 0)
(2.6114e-06 -4.55199e-06 0)
(2.86181e-06 -4.42856e-06 0)
(3.11565e-06 -4.30262e-06 0)
(3.37225e-06 -4.17483e-06 0)
(3.63138e-06 -4.04593e-06 0)
(3.89254e-06 -3.91642e-06 0)
(4.15533e-06 -3.78671e-06 0)
(4.41934e-06 -3.65702e-06 0)
(4.68422e-06 -3.52746e-06 0)
(4.94964e-06 -3.39803e-06 0)
(5.21533e-06 -3.26865e-06 0)
(5.48107e-06 -3.13917e-06 0)
(5.74671e-06 -3.00941e-06 0)
(6.01215e-06 -2.87919e-06 0)
(6.27736e-06 -2.74835e-06 0)
(6.54233e-06 -2.61677e-06 0)
(6.80712e-06 -2.48444e-06 0)
(7.07182e-06 -2.35142e-06 0)
(7.33647e-06 -2.21793e-06 0)
(7.60123e-06 -2.08427e-06 0)
(2.50403e-06 -4.65703e-06 0)
(2.75005e-06 -4.53529e-06 0)
(3.00014e-06 -4.41091e-06 0)
(3.2537e-06 -4.28447e-06 0)
(3.51033e-06 -4.15671e-06 0)
(3.76945e-06 -4.02813e-06 0)
(4.0306e-06 -3.89913e-06 0)
(4.29328e-06 -3.76997e-06 0)
(4.55704e-06 -3.64077e-06 0)
(4.82152e-06 -3.51156e-06 0)
(5.08637e-06 -3.38227e-06 0)
(5.35136e-06 -3.2528e-06 0)
(5.6163e-06 -3.12299e-06 0)
(5.8811e-06 -2.99269e-06 0)
(6.14572e-06 -2.86177e-06 0)
(6.41018e-06 -2.73013e-06 0)
(6.67455e-06 -2.59777e-06 0)
(6.93895e-06 -2.46477e-06 0)
(7.20342e-06 -2.33133e-06 0)
(7.4681e-06 -2.19775e-06 0)
(1.9126e-07 -4.11936e-06 0)
(5.76645e-07 -4.05807e-06 0)
(9.7075e-07 -3.93802e-06 0)
(1.37845e-06 -3.76391e-06 0)
(1.80382e-06 -3.54244e-06 0)
(2.24943e-06 -3.28188e-06 0)
(2.71632e-06 -2.99169e-06 0)
(3.2037e-06 -2.68193e-06 0)
(3.70934e-06 -2.36277e-06 0)
(4.22972e-06 -2.04256e-06 0)
(1.85567e-07 -4.18242e-06 0)
(5.59132e-07 -4.12642e-06 0)
(9.40023e-07 -4.01668e-06 0)
(1.33236e-06 -3.85714e-06 0)
(1.73962e-06 -3.65351e-06 0)
(2.16407e-06 -3.41284e-06 0)
(2.60662e-06 -3.14316e-06 0)
(3.06667e-06 -2.85311e-06 0)
(3.54147e-06 -2.55203e-06 0)
(4.02896e-06 -2.24594e-06 0)
(1.80617e-07 -4.24703e-06 0)
(5.43865e-07 -4.19584e-06 0)
(9.13126e-07 -4.09542e-06 0)
(1.29177e-06 -3.94922e-06 0)
(1.68268e-06 -3.76216e-06 0)
(2.08782e-06 -3.54031e-06 0)
(2.50809e-06 -3.29057e-06 0)
(2.94352e-06 -3.02013e-06 0)
(3.39204e-06 -2.73716e-06 0)
(3.85263e-06 -2.4449e-06 0)
(1.76214e-07 -4.31336e-06 0)
(5.30336e-07 -4.26625e-06 0)
(8.89478e-07 -4.1738e-06 0)
(1.25644e-06 -4.03899e-06 0)
(1.63363e-06 -3.86614e-06 0)
(2.02266e-06 -3.66058e-06 0)
(2.42421e-06 -3.4284e-06 0)
(2.83831e-06 -3.17585e-06 0)
(3.26329e-06 -2.91058e-06 0)
(3.69814e-06 -2.63471e-06 0)
(1.72153e-07 -4.38134e-06 0)
(5.17874e-07 -4.33788e-06 0)
(8.67778e-07 -4.25253e-06 0)
(1.22418e-06 -4.12796e-06 0)
(1.5891e-06 -3.968e-06 0)
(1.96388e-06 -3.77732e-06 0)
(2.34915e-06 -3.56135e-06 0)
(2.74493e-06 -3.3254e-06 0)
(3.15009e-06 -3.07637e-06 0)
(3.56276e-06 -2.81615e-06 0)
(1.68376e-07 -4.45088e-06 0)
(5.06321e-07 -4.41059e-06 0)
(8.47792e-07 -4.33141e-06 0)
(1.19472e-06 -4.21575e-06 0)
(1.54879e-06 -4.06705e-06 0)
(1.91109e-06 -3.88951e-06 0)
(2.28215e-06 -3.68804e-06 0)
(2.66181e-06 -3.46734e-06 0)
(3.04959e-06 -3.23363e-06 0)
(3.44288e-06 -2.98891e-06 0)
(1.64764e-07 -4.52189e-06 0)
(4.95301e-07 -4.48441e-06 0)
(8.28834e-07 -4.41073e-06 0)
(1.16699e-06 -4.30302e-06 0)
(1.51119e-06 -4.16442e-06 0)
(1.86231e-06 -3.9987e-06 0)
(2.22087e-06 -3.81031e-06 0)
(2.58649e-06 -3.60347e-06 0)
(2.95921e-06 -3.38371e-06 0)
(3.33577e-06 -3.15344e-06 0)
(1.6127e-07 -4.59418e-06 0)
(4.84675e-07 -4.55918e-06 0)
(8.1066e-07 -4.49035e-06 0)
(1.1406e-06 -4.38967e-06 0)
(1.47574e-06 -4.26002e-06 0)
(1.81674e-06 -4.10484e-06 0)
(2.16411e-06 -3.9282e-06 0)
(2.51729e-06 -3.734e-06 0)
(2.87671e-06 -3.52706e-06 0)
(3.23881e-06 -3.31023e-06 0)
(1.57828e-07 -4.66763e-06 0)
(4.74232e-07 -4.63484e-06 0)
(7.92894e-07 -4.57033e-06 0)
(1.115e-06 -4.47594e-06 0)
(1.44164e-06 -4.3543e-06 0)
(1.77333e-06 -4.20859e-06 0)
(2.11059e-06 -4.04252e-06 0)
(2.45269e-06 -3.85974e-06 0)
(2.80031e-06 -3.66448e-06 0)
(3.14981e-06 -3.45991e-06 0)
(1.54396e-07 -4.74202e-06 0)
(4.63847e-07 -4.7112e-06 0)
(7.75311e-07 -4.65056e-06 0)
(1.08984e-06 -4.56178e-06 0)
(1.40839e-06 -4.44732e-06 0)
(1.73138e-06 -4.31011e-06 0)
(2.05931e-06 -4.15356e-06 0)
(2.3914e-06 -3.98112e-06 0)
(2.72841e-06 -3.79651e-06 0)
(3.06684e-06 -3.6031e-06 0)
(1.50926e-07 -4.81718e-06 0)
(4.53374e-07 -4.78813e-06 0)
(7.57655e-07 -4.73097e-06 0)
(1.06472e-06 -4.64725e-06 0)
(1.37544e-06 -4.53924e-06 0)
(1.69017e-06 -4.40969e-06 0)
(2.00939e-06 -4.26174e-06 0)
(2.33229e-06 -4.09864e-06 0)
(2.65966e-06 -3.92371e-06 0)
(2.98824e-06 -3.7404e-06 0)
(1.47381e-07 -4.89287e-06 0)
(4.42693e-07 -4.86543e-06 0)
(7.39715e-07 -4.8114e-06 0)
(1.03933e-06 -4.73225e-06 0)
(1.34236e-06 -4.63008e-06 0)
(1.6491e-06 -4.50746e-06 0)
(1.96003e-06 -4.36728e-06 0)
(2.27437e-06 -4.21264e-06 0)
(2.59285e-06 -4.04652e-06 0)
(2.91252e-06 -3.87234e-06 0)
(1.43717e-07 -4.96889e-06 0)
(4.31672e-07 -4.94291e-06 0)
(7.21262e-07 -4.89174e-06 0)
(1.01333e-06 -4.81674e-06 0)
(1.30867e-06 -4.71987e-06 0)
(1.60757e-06 -4.60354e-06 0)
(1.91047e-06 -4.47042e-06 0)
(2.21668e-06 -4.32345e-06 0)
(2.52683e-06 -4.16533e-06 0)
(2.83832e-06 -3.99942e-06 0)
(1.39892e-07 -5.04495e-06 0)
(4.20183e-07 -5.0203e-06 0)
(7.02073e-07 -4.97173e-06 0)
(9.86401e-07 -4.90053e-06 0)
(1.27394e-06 -4.80851e-06 0)
(1.565e-06 -4.69792e-06 0)
(1.86e-06 -4.57125e-06 0)
(2.15834e-06 -4.43126e-06 0)
(2.46054e-06 -4.28044e-06 0)
(2.76437e-06 -4.12201e-06 0)
(1.35857e-07 -5.12081e-06 0)
(4.08076e-07 -5.09739e-06 0)
(6.81896e-07 -5.05124e-06 0)
(9.58171e-07 -4.98354e-06 0)
(1.23768e-06 -4.89598e-06 0)
(1.52076e-06 -4.79067e-06 0)
(1.80783e-06 -4.66991e-06 0)
(2.0984e-06 -4.53631e-06 0)
(2.39289e-06 -4.39216e-06 0)
(2.6894e-06 -4.24053e-06 0)
(1.31559e-07 -5.19602e-06 0)
(3.95194e-07 -5.17375e-06 0)
(6.60464e-07 -5.12984e-06 0)
(9.28257e-07 -5.0654e-06 0)
(1.19937e-06 -4.98199e-06 0)
(1.47421e-06 -4.88158e-06 0)
(1.75319e-06 -4.76629e-06 0)
(2.03594e-06 -4.63858e-06 0)
(2.32279e-06 -4.50058e-06 0)
(2.61217e-06 -4.35516e-06 0)
(1.26934e-07 -5.27046e-06 0)
(3.81342e-07 -5.24927e-06 0)
(6.37446e-07 -5.20748e-06 0)
(8.96189e-07 -5.1461e-06 0)
(1.15841e-06 -5.06659e-06 0)
(1.42458e-06 -4.97076e-06 0)
(1.69515e-06 -4.8606e-06 0)
(1.96985e-06 -4.73839e-06 0)
(2.24902e-06 -4.6061e-06 0)
(2.53126e-06 -4.46644e-06 0)
(1.21916e-07 -5.34318e-06 0)
(3.66321e-07 -5.32302e-06 0)
(6.12508e-07 -5.28325e-06 0)
(8.6149e-07 -5.22481e-06 0)
(1.11417e-06 -5.14902e-06 0)
(1.37109e-06 -5.05756e-06 0)
(1.63276e-06 -4.95227e-06 0)
(1.89905e-06 -4.83528e-06 0)
(2.1702e-06 -4.7084e-06 0)
(2.44523e-06 -4.57417e-06 0)
(1.16401e-07 -5.41464e-06 0)
(3.4982e-07 -5.39548e-06 0)
(5.85131e-07 -5.35768e-06 0)
(8.23432e-07 -5.30207e-06 0)
(1.0657e-06 -5.22988e-06 0)
(1.3126e-06 -5.14265e-06 0)
(1.56469e-06 -5.04206e-06 0)
(1.822e-06 -4.93008e-06 0)
(2.08477e-06 -4.80839e-06 0)
(2.35229e-06 -4.67934e-06 0)
(1.10341e-07 -5.4823e-06 0)
(3.31696e-07 -5.46414e-06 0)
(5.55074e-07 -5.42829e-06 0)
(7.8166e-07 -5.37551e-06 0)
(1.01254e-06 -5.30692e-06 0)
(1.24848e-06 -5.22392e-06 0)
(1.49017e-06 -5.12804e-06 0)
(1.7378e-06 -5.02111e-06 0)
(1.99165e-06 -4.90466e-06 0)
(2.25125e-06 -4.78085e-06 0)
)
;

boundaryField
{
    left
    {
        type            solidSymmetry;
        patchType       symmetryPlane;
        secondOrder     false;
        value           nonuniform List<vector> 
30
(
(0 -4.12127e-06 0)
(0 -4.18427e-06 0)
(0 -4.24883e-06 0)
(0 -4.31509e-06 0)
(0 -4.38301e-06 0)
(0 -4.45248e-06 0)
(0 -4.52341e-06 0)
(0 -4.59562e-06 0)
(0 -4.66897e-06 0)