/*--------------------------------*- C++ -*----------------------------------*\
| =========                 |                                                 |
| \\      /  F ield         | foam-extend: Open Source CFD                    |
|  \\    /   O peration     | Version:     4.1                                |
|   \\  /    A nd           | Web:         http://www.foam-extend.org         |
|    \\/     M anipulation  |                                                 |
\*---------------------------------------------------------------------------*/
FoamFile
{
    version     2.0;
    format      ascii;
    class       volScalarField;
    location    "10";
    object      sigmaEq;
}
// * * * * * * * * * * * * * * * * * * * * * * * * * * * * * * * * * * * * * //

dimensions      [1 -1 -2 0 0 0 0];

internalField   nonuniform List<scalar> 
1000
(
1.06351e+06
1.21265e+06
1.33198e+06
1.42236e+06
1.46436e+06
1.48076e+06
1.47829e+06
1.46446e+06
1.44587e+06
1.4198e+06
1.33125e+06
1.35281e+06
1.40496e+06
1.46113e+06
1.48473e+06
1.49107e+06
1.48247e+06
1.46583e+06
1.44276e+06
1.41915e+06
1.59216e+06
1.49196e+06
1.47006e+06
1.48518e+06
1.48593e+06
1.47943e+06
1.4632e+06
1.44236e+06
1.41605e+06
1.39158e+06
1.83823e+06
1.62518e+06
1.52715e+06
1.4967e+06
1.47108e+06
1.44953e+06
1.42453e+06
1.39912e+06
1.37001e+06
1.34531e+06
2.06255e+06
1.74794e+06
1.576e+06
1.498e+06
1.44365e+06
1.40533e+06
1.3707e+06
1.3403e+06
1.30903e+06
1.28404e+06
2.25914e+06
1.8564e+06
1.61661e+06
1.49207e+06
1.40826e+06
1.35218e+06
1.3073e+06
1.27156e+06
1.23831e+06
1.21282e+06
2.42284e+06
1.94723e+06
1.64896e+06
1.48203e+06
1.37006e+06
1.29639e+06
1.24117e+06
1.19988e+06
1.16478e+06
1.13843e+06
2.54943e+06
2.01779e+06
1.6732e+06
1.4711e+06
1.33471e+06
1.24518e+06
1.1804e+06
1.13379e+06
1.09695e+06
1.06949e+06
2.63563e+06
2.06597e+06
1.68928e+06
1.46198e+06
1.30741e+06
1.20566e+06
1.13331e+06
1.08236e+06
1.04409e+06
1.01557e+06
2.67884e+06
2.08987e+06
1.69656e+06
1.45595e+06
1.29156e+06
1.18307e+06
1.10646e+06
1.05302e+06
1.01393e+06
984765
976968
647215
463481
387143
359637
364922
384626
413075
443765
474925
935951
644839
505666
465399
457882
469132
486626
508907
531272
556091
853567
641509
577639
585622
601038
619412
635321
651457
664518
681998
734973
643899
668288
721565
756615
781376
796471
807826
813104
824170
588465
659632
768275
858501
908884
938652
953099
960537
959481
964975
432895
695868
871202
988332
1.04956e+06
1.08263e+06
1.09618e+06
1.10009e+06
1.09383e+06
1.09424e+06
323610
757159
973188
1.10652e+06
1.17395e+06
1.20838e+06
1.22053e+06
1.22112e+06
1.21058e+06
1.20621e+06
367817
843714
1.0716e+06
1.21011e+06
1.27884e+06
1.31242e+06
1.32251e+06
1.31974e+06
1.30601e+06
1.29686e+06
554732
952212
1.1649e+06
1.29767e+06
1.36267e+06
1.39316e+06
1.40033e+06
1.39444e+06
1.37838e+06
1.36547e+06
799248
1.07719e+06
1.25187e+06
1.36824e+06
1.42419e+06
1.44871e+06
1.45154e+06
1.44138e+06
1.42444e+06
1.40424e+06
506834
533405
558510
581349
601455
619113
634111
646571
656441
663740
668407
670397
669544
665789
658722
648470
633954
616299
592179
567156
576427
589986
605476
620258
633873
646234
656907
665808
672745
677606
680244
680535
678261
673316
665264
654200
639048
620912
596522
571402
687313
682989
684320
686837
690154
693883
697337
700190
702069
702679
701750
699039
694246
687192
677396
664909
648660
629714
604923
579698
815734
794362
781099
770537
762328
756044
750863
746280
741802
736965
731394
724723
716573
706685
694537
680130
662413
642403
617133
591861
945227
909985
883702
861204
841982
825764
811774
799375
788076
777278
766549
755422
743460
730333
715491
698888
679517
658346
632653
607500
1.06569e+06
1.0206e+06
983823
951468
922833
897710
875638
855817
837885
821148
805176
789445
773491
756941
739241
720316
699230
676910
650949
626189
1.1713e+06
1.12042e+06
1.0761e+06
1.03596e+06
999839
967094
937982
911498
887502
865254
844353
824255
804485
784653
764220
743099
720456
697184
671241
647213
1.25792e+06
1.20524e+06
1.15757e+06
1.11212e+06
1.07108e+06
1.03259e+06
997903
965870
936568
909344
883853
859605
836152
813125
790030
766788
742695
718627
692957
670034
1.32529e+06
1.2719e+06
1.22486e+06
1.17581e+06
1.13146e+06
1.08876e+06
1.04968e+06
1.01332e+06
979792
948602
919412
891798
865340
839708
814471
789583
764500
740086
715160
693713
1.37104e+06
1.32053e+06
1.27887e+06
1.2311e+06
1.1858e+06
1.14123e+06
1.09901e+06
1.05916e+06
1.02186e+06
986952
954197
923288
893873
865672
838327
811837
785831
761188
737199
717579
1.38877e+06
1.33741e+06
1.29776e+06
1.25387e+06
1.21024e+06
1.16717e+06
1.12551e+06
1.0856e+06
1.04767e+06
1.01173e+06
977704
945420
914663
885272
857027
830017
804073
780082
757757
740337
1.35347e+06
1.32292e+06
1.2873e+06
1.24947e+06
1.21018e+06
1.1707e+06
1.13177e+06
1.09386e+06
1.05732e+06
1.02229e+06
988793
956809
926246
897066
869186
842802
817925
795475
775519
760943
1.32444e+06
1.29927e+06
1.27075e+06
1.2383e+06
1.20379e+06
1.16818e+06
1.13239e+06
1.09696e+06
1.06233e+06
1.02873e+06
996328
965184
935332
906840
879754
854360
830836
810111
792542
780575
1.29147e+06
1.27218e+06
1.24899e+06
1.22124e+06
1.19117e+06
1.15934e+06
1.12685e+06
1.09418e+06
1.06186e+06
1.03017e+06
999360
969587
940977
913689
887880
863909
842092
823340
808239
798811
1.25584e+06
1.24132e+06
1.22308e+06
1.19987e+06
1.17416e+06
1.14617e+06
1.11711e+06
1.08741e+06
1.05766e+06
1.02821e+06
999343
971302
944292
918546
894310
872001
852044
835315
822565
815437
1.21919e+06
1.20878e+06
1.19471e+06
1.1755e+06
1.15374e+06
1.1294e+06
1.10371e+06
1.07705e+06
1.05005e+06
1.02305e+06
996406
970397
945292
921380
898978
878541
860570
845891
835369
830291
1.1824e+06
1.17539e+06
1.16487e+06
1.14928e+06
1.13113e+06
1.11025e+06
1.08783e+06
1.06421e+06
1.04001e+06
1.01559e+06
991335
967547
944541
922647
902230
883766
867807
855115
846623
843306
1.14622e+06
1.14198e+06
1.13444e+06
1.12202e+06
1.10709e+06
1.08941e+06
1.07009e+06
1.04944e+06
1.02805e+06
1.00627e+06
984499
963057
942284
922532
904198
887759
873793
862992
856313
854459
1.11113e+06
1.10908e+06
1.10401e+06
1.09437e+06
1.08233e+06
1.06759e+06
1.05121e+06
1.03341e+06
1.01478e+06
995647
976399
957361
938886
921331
905109
890685
878640
869592
864488
863803
1.07737e+06
1.07705e+06
1.07403e+06
1.0668e+06
1.05733e+06
1.0453e+06
1.03165e+06
1.01659e+06
1.00065e+06
984117
967384
950763
934601
919252
905126
892667
882441
874988
871222
871427
1.04506e+06
1.04612e+06
1.0448e+06
1.03967e+06
1.0325e+06
1.02296e+06
1.01188e+06
999417
986055
972068
957806
943570
929693
916514
904429
893850
885314
879287
876624
877463
1.01421e+06
1.01638e+06
1.0165e+06
1.01324e+06
1.00816e+06
1.00092e+06
992232
982236
971349
959814
947952
936037
924383
913306
903174
894366
887376
882601
880822
882067
984753
987915
989282
987718
984559
979456
973025
965365
956835
947649
938089
928405
918881
909805
901516
894350
888753
885058
883960
885413
956634
960671
963241
963299
961948
958868
954563
949110
942810
935848
928469
920895
913380
906181
899601
893933
889572
886791
886192
887688
929749
934876
938505
940109
940539
939400
937115
933749
929545
924667
919323
913712
908056
902583
897559
893236
889951
887928
887668
889070
904264
910075
915167
918603
920712
921445
921059
919638
917371
914402
910912
907075
903093
899164
895519
892373
890006
888597
888543
889748
879693
889473
893698
899143
902745
905330
906706
907091
906574
905307
903444
901153
898615
896013
893549
891405
889807
888888
888940
889879
857229
866327
874835
881592
887193
891502
894613
896609
897617
897776
897246
896196
894808
893260
891736
890394
889414
888886
888999
889662
836526
848015
858194
866979
874510
880548
885225
888604
890830
892059
892475
892273
891657
890821
889955
889207
888727
888551
888766
889213
819436
833377
845963
856853
866123
873665
879575
883939
886928
888734
889585
889721
889391
888829
888257
887838
887717
887886
888353
888807
963825
992500
1.04275e+06
1.10739e+06
1.17768e+06
1.24566e+06
1.30493e+06
1.35099e+06
1.38233e+06
1.39435e+06
946328
971500
1.01605e+06
1.07436e+06
1.1393e+06
1.2041e+06
1.26303e+06
1.31079e+06
1.34564e+06
1.36216e+06
932150
954175
993309
1.04499e+06
1.10333e+06
1.16261e+06
1.21843e+06
1.26624e+06
1.30579e+06
1.33158e+06
920418
939597
973873
1.01962e+06
1.07198e+06
1.12597e+06
1.17781e+06
1.22317e+06
1.26197e+06
1.29306e+06
909938
926594
956490
996740
1.04339e+06
1.09227e+06
1.14023e+06
1.18365e+06
1.22117e+06
1.25407e+06
900445
914897
940939
976263
1.01758e+06
1.0614e+06
1.10489e+06
1.14543e+06
1.18071e+06
1.21412e+06
891318
903858
926534
957513
994061
1.03331e+06
1.07263e+06
1.11023e+06
1.14283e+06
1.17498e+06
882298
893183
912919
940047
972251
1.00721e+06
1.04246e+06
1.07696e+06
1.10692e+06
1.13718e+06
873050
882513
899715
923497
951879
983002
1.01451e+06
1.04591e+06
1.07322e+06
1.10111e+06
863336
871577
886589
907447
932447
960098
988211
1.01661e+06
1.04145e+06
1.06689e+06
852901
860100
873242
891585
913651
938234
963319
988910
1.01144e+06
1.03446e+06
841520
847833
859385
875571
895108
917002
939436
962473
982923
1.0037e+06
828907
834476
844698
859069
876471
896063
916226
937009
955638
974414
814843
819796
828924
841796
857436
875111
893393
912272
929376
946455
798880
803342
811609
823298
837553
853714
870527
887902
903837
919550
780885
784975
792603
803420
816666
831731
847515
863834
879029
893875
759938
763785
771021
781314
793978
808438
823701
839548
854453
869216
736423
740159
747253
757376
769899
784248
799536
815392
830640
845397
707854
711662
718964
729422
742438
757431
773567
790349
806829
822678
677176
681240
689079
700336
714428
730760
748488
767043
785486
803331
)
;

boundaryField
{
    left
    {
        type            symmetryPlane;
        value           nonuniform List<scalar> 
30
(
963159
945743
931635
919969
909550
900109
891029
882049
872835
863151
852742
841385
828793
814748
798804
780827
759897
736399
707842
677175
2.67308e+06
2.08798e+06
1.69613e+06
1.45593e+06
1.29151e+06
1.18285e+06
1.10605e+06
1.05248e+06
1.01331e+06
984072
)
;
    }
    right
    {
        type            calculated;
        value           nonuniform List<scalar> 
30
(
565577
569806
578095
590253
605892
624610
645666
668582
692306
716382
739199
760029
779835
798233
815010
829991
843116
854356
863770
871444
877516
882141
885498
887773
889149
889816
889930
889701
889236
888864
)
;
    }
    down
    {
        type            symmetryPlane;
        value           nonuniform List<scalar> 
30
(
975878
646886
460248
380228
350321
355050
375322
404823
436699
468726
501884
529648
555569
579041
599626
617650
632932
645613
655660
663100
667883
669969
669197
665512
658508
648311
633845
616235
592151
567153
)
;
    }
    up
    {
        type            calculated;
        value           nonuniform List<scalar> 
30
(
676209
680268
688110
699376
713481
729841
747599
766215
784692
802649
818817
832868
845531
856492
865833
873431
879390
883791
886807
888633
889499
889646
889325
888772
888211
887802
887693
887868
888343
888765
)
;
    }
    hole
    {
        type            calculated;
        value           nonuniform List<scalar> 
20
(
1.03092e+06
1.32299e+06
1.60407e+06
1.86734e+06
2.10639e+06
2.31536e+06
2.4891e+06
2.6233e+06
2.7146e+06
2.7605e+06
1.00967e+06
963414
870739
734548
558491
347057
105672
159591
442109
734940
)
;
    }
    frontAndBack
    {
        type            empty;
    }
}


// ************************************************************************* //
