/*--------------------------------*- C++ -*----------------------------------*\
| =========                 |                                                 |
| \\      /  F ield         | foam-extend: Open Source CFD                    |
|  \\    /   O peration     | Version:     4.1                                |
|   \\  /    A nd           | Web:         http://www.foam-extend.org         |
|    \\/     M anipulation  |                                                 |
\*---------------------------------------------------------------------------*/
FoamFile
{
    version     2.0;
    format      ascii;
    class       volSymmTensorField;
    location    "10";
    object      sigma;
}
// * * * * * * * * * * * * * * * * * * * * * * * * * * * * * * * * * * * * * //

dimensions      [1 -1 -2 0 0 0 0];

internalField   nonuniform List<symmTensor> 
1000
(
(879876 -541846 -2.68671e-10 380975 -5.10111e-10 378255)
(1.14551e+06 -420678 1.51896e-09 61475.2 3.28617e-10 362094)
(1.27534e+06 -333905 -1.65115e-09 -82490.3 -1.17782e-09 357856)
(1.34644e+06 -272698 -6.33037e-10 -179119 -1.4564e-10 350198)
(1.38093e+06 -226123 -1.06256e-10 -226396 2.83533e-11 346360)
(1.39281e+06 -191149 6.66531e-10 -252818 4.25007e-10 341997)
(1.39282e+06 -163360 -1.19315e-09 -262132 -6.70326e-10 339205)
(1.38393e+06 -141766 2.61474e-10 -262920 1.56876e-10 336303)
(1.37367e+06 -123547 -4.77653e-10 -257235 -2.80858e-10 334931)
(1.35406e+06 -107933 -5.89626e-10 -251024 -3.71286e-10 330911)
(1.1731e+06 -651147 7.54218e-10 447152 -4.41688e-10 486075)
(1.36484e+06 -447878 -1.52526e-09 132714 -4.03728e-10 449266)
(1.44878e+06 -316315 -1.41025e-09 -7537.58 -3.78052e-10 432374)
(1.48423e+06 -229514 -1.09898e-09 -107866 -7.56817e-10 412910)
(1.49358e+06 -168888 -2.40393e-10 -158727 -2.14281e-10 400455)
(1.4857e+06 -126924 9.55836e-10 -190759 5.61971e-10 388483)
(1.47051e+06 -96223.4 -1.11817e-09 -205161 -7.64048e-10 379605)
(1.44964e+06 -74568.8 4.53484e-10 -211973 3.83724e-10 371300)
(1.42803e+06 -57560.7 -8.44613e-10 -209971 -6.54995e-10 365416)
(1.40153e+06 -45427.6 -3.12323e-10 -211401 -3.49253e-10 357038)
(1.49234e+06 -730817 9.31388e-10 473798 5.68524e-11 589842)
(1.58745e+06 -459906 -1.19126e-09 189802 -5.19686e-10 533176)
(1.61314e+06 -292023 1.0922e-09 67272.8 4.92168e-10 504125)
(1.60614e+06 -184797 -9.85827e-10 -28386.7 -4.73671e-10 473325)
(1.58672e+06 -113339 -2.40797e-10 -77976.7 -1.82107e-10 452622)
(1.55733e+06 -66324.3 -9.19479e-10 -112816 -5.37886e-10 433354)
(1.52642e+06 -33921.9 1.69366e-15 -130717 -4.58014e-15 418711)
(1.49317e+06 -12607.9 -3.16487e-12 -142675 4.19927e-12 405147)
(1.46181e+06 2791.59 -6.50726e-11 -144760 -3.08712e-10 395113)
(1.42691e+06 13995.2 1.01009e-10 -152518 -7.65829e-11 382319)
(1.82429e+06 -771397 3.21863e-09 465794 -6.41162e-10 687025)
(1.80615e+06 -454148 6.84114e-10 232992 5.10026e-10 611744)
(1.76473e+06 -262167 5.13834e-10 139531 4.76124e-10 571278)
(1.71072e+06 -141814 2.9835e-10 55425.1 2.07757e-10 529843)
(1.66025e+06 -63888.4 2.15545e-09 10972.6 1.2902e-09 501368)
(1.60864e+06 -14246 -1.62172e-11 -24420.2 -3.7262e-11 475265)
(1.56191e+06 18502.5 -7.72058e-12 -44827.2 3.63482e-11 455125)
(1.5171e+06 39043.9 -2.04334e-11 -61163.9 3.62226e-11 436780)
(1.4767e+06 52620.3 4.69391e-10 -67853.6 2.32956e-10 422653)
(1.43577e+06 62556.5 -4.41337e-11 -80659.6 -9.42769e-11 406534)
(2.15325e+06 -766435 -2.42929e-09 430966 6.23135e-11 775265)
(2.01322e+06 -429067 1.10262e-09 263697 4.49045e-10 683076)
(1.90037e+06 -227878 9.06481e-10 207109 4.42169e-10 632243)
(1.79763e+06 -103235 9.43309e-10 139556 4.87764e-10 581157)
(1.71562e+06 -24052.7 -5.66763e-10 103141 -3.00481e-10 545630)
(1.64208e+06 25295.2 8.09775e-10 69014.8 3.65489e-10 513330)
(1.58031e+06 56806 2.55966e-10 47032.1 1.54541e-10 488203)
(1.52485e+06 75899.3 -4.99385e-10 26939 -1.84096e-10 465538)
(1.47678e+06 87445.3 1.15403e-09 15477.5 4.46492e-10 447677)
(1.43085e+06 96012.9 1.07603e-10 -1834.42 -1.31014e-11 428704)
(2.46228e+06 -713187 -3.52419e-11 379051 -2.76369e-13 852398)
(2.20083e+06 -384403 -2.87685e-10 283895 -8.71292e-11 745418)
(2.01736e+06 -190201 1.42294e-09 267674 6.14512e-10 685510)
(1.86734e+06 -70822.3 3.72967e-10 219278 1.11274e-10 625985)
(1.75513e+06 4038.43 -5.29634e-10 192475 -2.08723e-10 584281)
(1.66109e+06 49995.4 -1.34497e-09 160814 -6.56904e-10 546572)
(1.58557e+06 78629.7 1.10793e-11 137967 -1.84473e-10 517062)
(1.52074e+06 95545.4 -7.13122e-11 114812 2.31733e-10 490666)
(1.46617e+06 104925 3.66794e-10 98729.3 2.81654e-10 469470)
(1.41633e+06 112013 9.41431e-10 77667.2 3.86135e-10 448199)
(2.7344e+06 -612979 9.16768e-10 320661 -1.19148e-10 916519)
(2.36144e+06 -321292 -4.99567e-10 295994 7.08574e-11 797230)
(2.11346e+06 -150095 4.19102e-10 319100 3.10524e-10 729769)
(1.9208e+06 -45405.5 1.29667e-10 289958 -9.12657e-11 663226)
(1.78164e+06 19662.8 7.52619e-10 272977 1.41158e-10 616384)
(1.66961e+06 59195.3 -2.88544e-11 244321 -1.21883e-10 574180)
(1.58227e+06 83384.8 2.24449e-10 221111 3.63869e-10 541015)
(1.50955e+06 97421.7 7.81711e-10 195550 6.19642e-10 511530)
(1.44977e+06 104616 -3.73951e-10 175288 -1.86968e-10 487518)
(1.39687e+06 110197 1.07536e-10 151224 -1.9903e-10 464429)
(2.95405e+06 -471153 0 266090 0 966043)
(2.48843e+06 -242168 2.41387e-09 302424 7.31224e-10 837256)
(2.18706e+06 -108323 -2.54618e-09 359491 -6.97573e-10 763965)
(1.9594e+06 -26748.5 -9.65624e-11 347292 -1.59486e-10 692007)
(1.79828e+06 23653.6 -2.42575e-10 339038 2.53029e-11 641196)
(1.67178e+06 54065.3 1.2603e-09 313303 4.71974e-10 595524)
(1.57505e+06 72437.3 4.43296e-10 290034 1.70662e-10 559526)
(1.49618e+06 82971.6 -6.11324e-10 262712 -1.13757e-10 527667)
(1.43248e+06 88030.8 2.58802e-11 239001 -1.09015e-10 501444)
(1.37733e+06 92067.3 -2.92283e-10 212707 -2.39473e-10 477011)
(3.10819e+06 -296734 1.65003e-09 224167 1.67909e-10 999708)
(2.57623e+06 -150723 -1.35578e-10 305264 -2.71681e-10 864447)
(2.2367e+06 -65533.3 -8.47588e-10 387238 -1.69299e-10 787182)
(1.98418e+06 -13699.8 7.0702e-10 387597 2.2473e-10 711532)
(1.80753e+06 18214 -2.84164e-10 385851 -6.5101e-11 658014)
(1.67087e+06 37393.5 -7.25675e-10 362400 -1.04183e-10 609980)
(1.56763e+06 48887.9 4.67982e-13 339198 -1.71683e-10 572048)
(1.48453e+06 55432 -8.55298e-12 310721 1.02669e-10 538575)
(1.41822e+06 58438.6 -7.74393e-12 284546 5.60305e-11 510830)
(1.36159e+06 60892.1 -2.97541e-10 256761 -1.88197e-10 485506)
(3.18749e+06 -101406 -1.38758e-09 201783 2.46975e-10 1.01678e+06)
(2.62123e+06 -51280.1 -1.12627e-09 307022 -3.78461e-10 878477)
(2.26194e+06 -22014.4 8.617e-10 402599 2.76257e-10 799361)
(1.99653e+06 -4205.27 -1.34632e-09 409874 -1.74259e-10 721922)
(1.81185e+06 6749.11 5.43356e-10 411747 -1.69018e-10 667080)
(1.66995e+06 13325.1 -2.38087e-10 389606 3.6333e-11 617866)
(1.56337e+06 17254 -4.68675e-14 366491 1.74574e-10 578957)
(1.47811e+06 19486 -1.92027e-10 337426 1.03753e-10 544660)
(1.41049e+06 20491.9 -6.73482e-10 309946 -2.82297e-10 516130)
(1.35313e+06 21322.6 3.33608e-10 281346 2.47835e-11 490343)
(-80830.9 26634.9 -1.9088e-10 -1.17002e+06 8.64066e-10 -375256)
(-49602.1 -11907.4 2.83824e-10 -772058 4.06323e-10 -246498)
(-11586 -31552.6 3.74652e-12 -528207 -1.83043e-10 -161938)
(72020.9 -42055.2 -1.50465e-11 -361895 1.29776e-10 -86962.3)
(151054 -46953.5 -1.70899e-10 -252780 -1.17977e-10 -30517.8)
(235156 -48674.6 2.2624e-10 -174581 9.33463e-11 18172.5)
(311589 -48547 3.17045e-11 -119520 3.79779e-11 57620.8)
(384362 -47432.3 -4.18996e-11 -77690.8 6.94891e-11 92001.3)
(449006 -45537.5 2.25336e-10 -46614.4 6.09063e-11 120717)
(509609 -44156.9 -2.09271e-11 -19670.3 -3.01174e-11 146982)
(-78970 74071.2 1.05537e-11 -1.11349e+06 3.77657e-11 -357737)
(-27331.9 -37360.6 -4.99104e-10 -746302 -7.14493e-10 -232090)
(21502.7 -93847.8 3.80466e-10 -519316 3.75013e-10 -149344)
(109612 -123845 2.76219e-10 -363676 1.99936e-10 -76219.3)
(190272 -137712 -7.03381e-11 -260746 -9.15725e-11 -21142.2)
(274021 -142430 -7.53034e-10 -186295 -2.78033e-10 26318)
(349133 -141855 -1.24288e-11 -133323 -1.05136e-13 64743.2)
(420141 -138444 -1.27119e-10 -92622.9 -7.73334e-11 98255.4)
(482417 -132829 7.9745e-11 -61945.2 -3.87499e-12 126142)
(541458 -128701 1.9789e-10 -35068.6 -1.62418e-11 151917)
(-74452.1 105761 -1.54619e-10 -1.00431e+06 -7.15727e-10 -323627)
(14764.3 -66257.6 -3.80567e-10 -696813 -3.3474e-10 -204615)
(82459.6 -152950 5.92437e-10 -502275 1.5514e-10 -125945)
(178429 -198623 1.28027e-10 -367069 1.44081e-10 -56592.1)
(261692 -219417 3.46903e-10 -275965 1.62902e-10 -4281.85)
(344556 -226111 -3.37969e-10 -208682 -1.69009e-10 40762.2)
(417061 -224706 -5.47764e-10 -159717 -1.57401e-10 77203.4)
(484701 -218926 -1.86607e-10 -121188 -4.22195e-11 109054)
(542510 -209878 9.4228e-12 -91308.7 -7.88428e-13 135360)
(598681 -203100 2.69056e-10 -64607.1 1.20311e-10 160222)
(-60607.4 113705 -5.55456e-10 -850696 -7.87914e-12 -273391)
(78954.7 -99792.8 2.51591e-10 -626035 -3.4461e-10 -164124)
(171650 -206464 -1.50315e-09 -476435 -1.15201e-09 -91435.5)
(277636 -262070 -3.3961e-10 -369693 2.22761e-11 -27617.1)
(363878 -286703 -2.06172e-11 -295094 4.42895e-11 20635.2)
(445008 -293858 4.46148e-10 -237903 2.00758e-10 62131.5)
(513535 -291066 -1.23151e-10 -194648 -6.61024e-13 95666.1)
(576170 -282834 3.73786e-10 -159261 2.51528e-10 125073)
(627611 -270820 -6.63562e-10 -130659 -1.27738e-10 149086)
(679527 -261568 5.96997e-10 -104281 9.1004e-11 172574)
(-30352.8 92103.2 1.501e-10 -664423 -5.45601e-10 -208433)
(165721 -138882 1.25396e-09 -538266 1.15583e-09 -111763)
(286087 -252671 -1.19426e-09 -442148 -8.00539e-10 -46818.3)
(402357 -310967 -5.58492e-10 -369549 -3.0241e-10 9842.25)
(490992 -335570 4.92586e-10 -314826 2.07996e-10 52849.7)
(569130 -341306 6.60732e-10 -269930 2.71505e-10 89760)
(632259 -336446 3.75689e-10 -233734 2.43588e-10 119557)
(688318 -325703 6.63434e-10 -202328 2.02265e-10 145797)
(731865 -311301 -1.47048e-10 -175510 -1.62308e-10 166907)
(778152 -299854 -9.0554e-10 -149670 -9.03821e-11 188545)
(24428.3 38625.7 -1.46731e-11 -459119 3.59609e-11 -130407)
(275544 -183460 7.88274e-10 -438318 3.95119e-10 -48832.2)
(422191 -290238 6.3977e-10 -399399 5.75994e-10 6837.33)
(546829 -343280 -3.13969e-10 -363802 -2.10741e-10 54908.2)
(636164 -363622 -5.75549e-10 -330751 -2.5434e-10 91623.8)
(709580 -365910 -3.63179e-10 -299501 -1.45044e-10 123024)
(765826 -358255 5.85898e-10 -271338 2.99025e-10 148346)
(813822 -344983 -7.0192e-10 -244607 -3.76807e-10 170764)
(848348 -328801 1.16594e-09 -220197 3.54355e-10 188445)
(887686 -315522 3.97877e-11 -195222 -1.61171e-10 207739)
(111685 -45342.9 6.86944e-10 -249418 -1.25973e-09 -41319.8)
(408521 -232497 -2.17458e-09 -331650 -1.19244e-09 23061.3)
(575871 -318333 7.4283e-10 -348626 4.9906e-10 68173.7)
(704736 -358312 -6.79434e-11 -349895 1.92963e-10 106453)
(791973 -370269 3.20439e-10 -338600 1.53396e-10 136012)
(858501 -367186 -1.3346e-10 -321425 -4.96371e-11 161123)
(906383 -356081 -8.17379e-10 -301753 -3.45523e-10 181389)
(944958 -340369 4.71561e-10 -280286 2.08258e-10 199402)
(969844 -323021 -4.28919e-10 -258839 -1.88236e-10 213301)
(1.00097e+06 -308303 8.9422e-10 -235340 2.23536e-10 229689)
(238080 -154764 -2.55921e-10 -49462.5 3.68031e-10 56585.3)
(564027 -283943 -7.0934e-10 -223669 -8.30984e-10 102107)
(742581 -336551 -1.04292e-09 -290441 -9.98131e-10 135642)
(869436 -356611 3.87346e-10 -325563 1.89672e-10 163162)
(950680 -356596 1.03229e-09 -334500 5.04534e-10 184854)
(1.0077e+06 -346519 9.40302e-10 -330898 4.58766e-10 203042)
(1.04563e+06 -331454 -1.46513e-10 -319837 2.79233e-11 217737)
(1.07355e+06 -313503 5.39566e-10 -303970 2.2885e-10 230874)
(1.08852e+06 -295533 -5.30648e-10 -286451 -3.8094e-10 240622)
(1.11025e+06 -279737 1.88448e-10 -265003 1.82365e-10 253575)
(408027 -281371 7.37892e-10 128226 9.93632e-10 160876)
(740662 -334882 1.01961e-09 -119442 1.30327e-09 186366)
(917860 -344916 1.08439e-09 -225773 3.04192e-10 207626)
(1.03496e+06 -339915 1.57319e-10 -289214 -1.63448e-10 223723)
(1.10568e+06 -325312 3.27807e-11 -315313 -4.84135e-11 237109)
(1.15043e+06 -307225 -2.37437e-11 -323972 -6.8153e-12 247939)
(1.17706e+06 -287978 8.57922e-10 -320863 4.53485e-10 256858)
(1.19324e+06 -268372 -1.1456e-09 -311096 -7.42453e-10 264644)
(1.19881e+06 -250330 1.0587e-09 -297607 4.38246e-10 270361)
(1.20953e+06 -234010 1.13947e-10 -280760 6.03759e-11 278631)
(622744 -414462 1.10592e-09 273826 -1.84785e-09 268971)
(935706 -381776 1.085e-09 -23304.4 5.34961e-10 273720)
(1.09683e+06 -343846 1.45087e-09 -155949 7.28948e-10 282263)
(1.19529e+06 -310906 6.9841e-10 -240267 5.47166e-10 286506)
(1.2502e+06 -280361 -1.10316e-09 -279421 -6.12191e-10 291234)
(1.27958e+06 -253787 -9.89912e-10 -298184 -5.43147e-10 294418)
(1.29293e+06 -230417 2.59831e-11 -302241 -1.54165e-11 297207)
(1.29631e+06 -209586 -5.20537e-10 -297814 -2.98191e-10 299549)
(1.29226e+06 -192394 5.41234e-10 -290064 4.97793e-10 300659)
(1.29007e+06 -176123 7.37095e-10 -275233 1.68395e-10 304451)
(562950 -40795.4 1.09449e-10 -1906.36 -3.99364e-13 168313)
(611467 -36482.8 2.03491e-10 17374.5 -6.13801e-11 188653)
(655036 -33048.1 1.09638e-11 33542 -1.43815e-13 206573)
(695104 -29882 -1.738e-10 48941.4 -9.38218e-11 223213)
(731364 -27061.5 -6.92969e-10 63769.7 -3.20421e-11 238540)
(764555 -24563.7 -1.05464e-10 78440.1 1.26435e-10 252899)
(794849 -22317.2 6.13235e-10 93379.3 6.53419e-11 266469)
(822581 -20310.2 -6.15223e-10 108795 -3.44664e-11 279413)
(847981 -18488.1 5.45504e-11 125004 1.84725e-10 291895)
(871248 -16826.9 3.37615e-10 142215 6.27802e-11 304039)
(892531 -15286.8 5.7377e-11 160687 1.73832e-10 315965)
(911981 -13838.3 6.68325e-10 180679 6.32133e-11 327798)
(929591 -12448.2 6.12424e-10 202437 -1.19911e-10 339608)
(945569 -11082.9 -6.64949e-10 226336 -5.83464e-11 351572)
(959562 -9710.07 -9.87596e-10 252587 1.70999e-12 363645)
(972184 -8287.9 5.2297e-10 281870 8.35698e-11 376216)
(982013 -6783.69 -1.29741e-11 314120 -2.88088e-11 388840)
(991424 -5127.31 3.64199e-10 350936 7.02908e-11 402708)
(995189 -3328.65 3.04733e-10 391002 -2.97582e-12 415858)
(1.00276e+06 -1083.06 7.6034e-11 438797 7.90931e-12 432466)
(590964 -118909 3.11127e-12 -16373.7 3.42522e-12 172377)
(634488 -106548 -2.93845e-10 4467.16 -3.26866e-11 191687)
(674532 -96661.9 1.51906e-10 22199.5 3.38638e-11 209019)
(711307 -87552.5 4.87165e-10 38781.3 1.66263e-10 225026)
(744988 -79402.1 -2.84737e-10 54773.4 -1.07302e-12 239928)
(775898 -72178.6 -4.17044e-10 70354 -1.35678e-10 253875)
(804330 -65659.6 2.79689e-10 86111.9 1.34061e-10 267132)
(830443 -59825.9 7.22087e-11 102184 6.53339e-11 279788)
(854488 -54516.2 -6.46408e-10 118947 -2.02129e-10 292031)
(876585 -49665.4 -3.85371e-10 136595 -7.08453e-11 303954)
(896869 -45158.3 -8.55897e-12 155409 -2.40937e-13 315683)
(915456 -40911 1.18197e-09 175648 9.89586e-11 327331)
(932324 -36826.2 5.44343e-11 197565 5.40721e-11 338967)
(947662 -32806.9 -2.75945e-10 221535 5.68904e-11 350759)
(961108 -28757.8 -5.99707e-11 247769 -6.61062e-11 362663)
(973262 -24555.8 -6.39504e-11 276940 -5.73036e-11 375060)
(982707 -20105.3 -2.28455e-10 308980 5.13395e-11 387506)
(991799 -15197.8 -1.65394e-10 345468 -1.50765e-11 401180)
(995354 -9865.69 9.20627e-10 385083 1.25872e-10 414131)
(1.00274e+06 -3209.9 2.36795e-10 432247 5.95297e-11 430498)
(640934 -187991 1.71311e-10 -44279.2 -3.62977e-11 178997)
(675437 -169335 3.70779e-10 -20546.9 1.14407e-10 196467)
(709121 -154122 -9.47533e-10 218.309 -8.17203e-11 212802)
(739966 -140125 1.02361e-10 19044.3 7.58733e-11 227703)
(769041 -127427 5.20336e-10 37291.4 -2.94212e-11 241900)
(795860 -116151 -8.01365e-10 54628.7 -4.9241e-11 255147)
(820972 -105891 -4.27317e-10 71976.6 -7.84971e-11 267885)
(844194 -96677.1 9.64799e-10 89326.2 6.23782e-11 280056)
(865823 -88247.3 5.4665e-10 107167 -4.57382e-11 291897)
(885830 -80518 -7.1462e-10 125668 -9.41543e-11 303449)
(904337 -73309.2 -8.1822e-10 145150 -1.62011e-10 314846)
(921389 -66493.3 3.25444e-10 165871 1.97736e-11 326178)
(936945 -59918 5.6238e-10 188098 9.18088e-11 337513)
(951152 -53428.8 1.95086e-11 212204 -9.25401e-11 349007)
(963640 -46874.1 3.65145e-11 238403 2.40884e-11 360613)
(974982 -40053.9 -8.15907e-10 267353 -8.95849e-11 372700)
(983778 -32814.5 -4.02624e-10 298980 -1.21547e-11 384827)
(992336 -24814.6 -1.48983e-10 334827 -6.37586e-11 398149)
(995574 -16110.3 3.16454e-10 373565 5.49811e-11 410742)
(1.00268e+06 -5247.57 2.884e-10 419516 1.25791e-10 426659)
(711884 -242874 1.80984e-10 -81912.4 5.96108e-11 188992)
(733664 -220702 -1.65784e-10 -54969.1 -2.34565e-12 203608)
(758594 -201902 9.18431e-11 -30158.2 -7.85522e-11 218531)
(781019 -184684 -1.26321e-11 -8522.89 -8.27519e-11 231749)
(803628 -168666 6.48124e-11 12729 -3.72761e-11 244907)
(824613 -154396 -2.29628e-10 32393.3 -4.57111e-11 257102)
(845001 -141238 -2.87922e-10 51885.3 -8.57364e-11 269066)
(864080 -129353 -1.35205e-10 70973.4 -7.77369e-11 280516)
(882243 -118391 5.88576e-11 90294.3 3.76178e-11 291761)
(899243 -108281 2.521e-10 109979 1.46451e-10 302767)
(915187 -98796.6 -4.39375e-10 130394 -9.3506e-11 313674)
(930022 -89781.9 2.80749e-10 151795 8.11037e-11 324545)
(943674 -81043.4 6.59068e-10 174464 6.39131e-11 335441)
(956242 -72379.8 -2.66356e-10 198768 -7.69632e-11 346503)
(967337 -63592.1 -6.09502e-10 224917 -5.84623e-11 357676)
(977497 -54411.8 -3.81429e-10 253549 -7.36815e-11 369314)
(985345 -44633.7 2.70502e-10 284578 -1.40526e-11 380977)
(993122 -33791.9 3.26476e-10 319487 6.58725e-11 393783)
(995900 -21961.3 8.8768e-11 356944 1.41372e-11 405853)
(1.00259e+06 -7176.36 -1.98806e-10 401111 -1.21726e-10 421109)
(799033 -279674 3.48224e-10 -125187 -6.06968e-11 202154)
(805476 -257437 1.65059e-10 -95708.6 -2.17992e-10 212930)
(820153 -237236 -3.74289e-10 -66303.7 6.51206e-11 226155)
(832304 -218903 -1.69767e-10 -41701.3 -6.83524e-12 237181)
(847099 -201138 5.90491e-10 -17001.6 7.07066e-11 249029)
(860903 -185211 -3.32893e-10 5365.01 1.0627e-10 259880)
(875464 -170234 -3.64107e-10 27380.6 -9.8595e-11 270853)
(889399 -156566 3.00829e-10 48549.4 -5.72638e-11 281385)
(903230 -143817 -1.45516e-10 69639.4 6.19753e-11 291861)
(916460 -131950 -8.55214e-12 90748.4 6.80273e-11 302163)
(929170 -120729 -3.25966e-10 112277 -3.00679e-11 312434)
(941198 -109983 -3.7703e-10 134484 -1.88268e-10 322705)
(952427 -99499.5 1.14075e-09 157660 1.38471e-10 333026)
(962897 -89041.3 1.35615e-10 182168 6.65254e-11 343519)
(972202 -78375.3 -2.25516e-10 208209 -5.63771e-11 354123)
(980831 -67174 1.72133e-10 236392 3.20703e-11 365167)
(987447 -55190 -7.49761e-10 266615 -1.83193e-10 376219)
(994195 -41844.9 3.11269e-10 300279 9.49336e-11 388342)
(996363 -27229.6 -1.43434e-10 336047 -4.01312e-11 399723)
(1.00247e+06 -8932.56 6.69403e-11 377861 2.1783e-11 414100)
(896620 -295989 -1.62192e-10 -169019 -2.08873e-10 218280)
(886325 -277381 -2.52121e-10 -138993 1.6044e-10 224200)
(890208 -258126 -2.53081e-10 -105370 7.74312e-11 235451)
(890958 -240989 -1.90626e-10 -78337.1 -2.03756e-10 243786)
(897116 -223289 4.17721e-10 -50422.4 3.05381e-10 254008)
(902852 -207230 4.33812e-10 -25412 7.82704e-11 263232)
(910790 -191720 6.82391e-10 -878.025 5.05369e-11 272974)
(918863 -177331 -8.6225e-10 22471 -1.52235e-10 282400)
(927703 -163701 -5.6961e-10 45449.8 -1.20372e-11 291946)
(936584 -150837 -6.23763e-11 68136.6 -1.50752e-10 301416)
(945537 -138531 8.1716e-10 90929.3 9.14586e-11 310940)
(954299 -126619 -1.56105e-10 114085 -1.43092e-10 320515)
(962697 -114887 -4.84103e-10 137882 -6.96404e-11 330174)
(970712 -103081 2.25053e-10 162669 1.09492e-10 340014)
(977915 -90948.1 -3.19772e-10 188629 -6.01692e-11 349963)
(984740 -78116.6 -1.70698e-10 216326 -3.72454e-11 360320)
(989903 -64308.1 -6.77176e-11 245632 -2.75729e-11 370661)
(995429 -48846.2 3.49831e-10 277840 9.24509e-11 381981)
(996884 -31835.7 4.25801e-10 311602 1.40461e-10 392546)
(1.00231e+06 -10491.9 -3.35316e-10 350571 -2.27509e-10 405864)
(998698 -291453 -7.10225e-11 -208001 6.62402e-11 237209)
(971747 -280131 1.44083e-10 -179975 8.02446e-11 237531)
(965323 -264181 7.38368e-10 -143180 9.33295e-11 246643)
(954528 -250427 -1.17421e-09 -114323 -2.35989e-10 252062)
(951806 -234669 -8.13991e-11 -83781.9 9.08348e-11 260407)
(949203 -219934 7.89107e-11 -56292.8 -8.62852e-11 267873)
(950092 -205176 8.34604e-10 -29441.4 2.65269e-10 276195)
(951940 -191086 3.33776e-10 -3984.37 3.46585e-11 284387)
(955363 -177460 -4.59358e-10 20791.3 -2.13052e-10 292846)
(959512 -164345 -2.01802e-10 44979.8 -1.00665e-10 301347)
(964318 -151610 -3.26519e-10 68945.1 -4.29003e-11 309979)
(969450 -139110 8.64628e-11 92946.6 4.47735e-11 318719)
(974671 -126654 2.8184e-10 117248 1.32713e-10 327575)
(979904 -113983 0 142177 0 336624)
(984706 -100839 5.97422e-11 167892 -4.90727e-11 345779)
(989449 -86817.5 3.26607e-10 194904 8.01394e-11 355306)
(992921 -71621.9 -1.58394e-10 223051 -2.42796e-11 364792)
(997002 -54499.1 -5.87266e-10 253491 -2.07411e-10 375148)
(997597 -35567.9 4.97974e-10 284875 1.80022e-10 384742)
(1.00216e+06 -11773.7 -1.51432e-10 320500 -1.34225e-10 396797)
(1.09818e+06 -266681 7.08118e-10 -238205 8.8286e-11 257991)
(1.05607e+06 -265495 -5.63172e-10 -215615 -1.22811e-10 252136)
(1.04041e+06 -255134 5.09292e-10 -178888 2.44196e-10 258456)
(1.01899e+06 -246563 1.67136e-10 -149598 7.57227e-11 260817)
(1.00747e+06 -234759 -1.30213e-09 -118129 -4.82151e-10 266803)
(996842 -222864 3.04158e-10 -88988 1.36756e-10 272356)
(990554 -210313 3.42722e-10 -60486 4.35838e-11 279020)
(986136 -197713 1.22679e-09 -33217.1 3.3635e-10 285876)
(983975 -185122 -3.20439e-10 -6749.52 -4.26959e-11 293168)
(983251 -172618 -8.95332e-11 18999.3 6.83627e-11 300675)
(983755 -160182 8.69461e-11 44289.3 -6.15339e-11 308413)
(985119 -147712 -8.58702e-11 69340.1 5.38705e-11 316338)
(987033 -135066 9.9639e-11 94362.8 1.3905e-10 324419)
(989370 -122006 1.14794e-09 119642 2.89509e-10 332703)
(991666 -108287 -4.8879e-10 145291 -1.56885e-10 341087)
(994233 -93492.2 -9.39515e-10 171748 -2.52185e-10 349794)
(995939 -77319.7 7.70486e-10 198807 2.57588e-10 358424)
(998506 -58957.7 1.5011e-10 227467 4.63787e-11 367792)
(998227 -38540.6 -4.42716e-10 256361 -1.76e-10 376376)
(1.00191e+06 -12815.4 1.32256e-10 288368 7.97071e-11 387085)
(1.19119e+06 -226285 -6.52937e-10 -254572 -2.57707e-10 280986)
(1.13723e+06 -236657 -2.31103e-10 -237462 4.74402e-11 269929)
(1.11345e+06 -234329 2.07861e-10 -204373 -5.23123e-11 272722)
(1.08376e+06 -231566 7.43216e-10 -175150 1.46059e-10 272584)
(1.06391e+06 -225045 -5.21294e-10 -144076 -9.7503e-11 275951)
(1.04622e+06 -216783 -3.89667e-10 -114034 3.82649e-11 279657)
(1.03307e+06 -207231 0 -84677 0 284517)
(1.02266e+06 -196834 6.14084e-10 -56372.2 1.88982e-10 289887)
(1.01498e+06 -185947 8.94661e-10 -28973.7 3.16292e-10 295801)
(1.00934e+06 -174703 3.25971e-10 -2404.97 5.18832e-11 302081)
(1.00541e+06 -163181 -5.7019e-10 23519.3 -1.74611e-10 308680)
(1.00282e+06 -151332 -9.71145e-10 48984.7 -1.78387e-10 315541)
(1.00119e+06 -139055 -4.77561e-10 74156.2 -2.23366e-10 322605)
(1.00038e+06 -126137 9.17914e-10 99265.9 2.06394e-10 329895)
(999920 -112353 1.01859e-09 124377 3.47326e-10 337289)
(1.00006e+06 -97288 -4.84545e-10 149835 -1.72845e-10 344967)
(999765 -80645.6 -1.77277e-10 175379 -7.96091e-11 352543)
(1.00058e+06 -61586.7 6.32457e-10 201817 2.5624e-10 360719)
(999257 -40269.4 -5.79237e-10 227798 -2.55875e-10 368116)
(1.0018e+06 -13426.4 1.19014e-12 255755 8.19214e-13 377267)
(1.26461e+06 -170914 5.2824e-10 -263801 1.41969e-10 300244)
(1.20967e+06 -189143 -3.99566e-10 -250776 -8.0255e-11 287670)
(1.17675e+06 -198360 1.41274e-11 -228723 -1.00401e-10 284408)
(1.14207e+06 -203063 -2.01227e-10 -202860 3.87455e-11 281763)
(1.11401e+06 -204200 -3.70171e-10 -174784 2.78341e-12 281769)
(1.08979e+06 -201869 -3.24354e-10 -145514 -1.92194e-10 283284)
(1.06999e+06 -197157 -2.70302e-10 -115928 -2.98386e-10 286219)
(1.05384e+06 -190515 -1.91622e-11 -86635.1 1.46675e-11 290163)
(1.04098e+06 -182488 2.05623e-11 -57898.5 -1.13387e-11 294923)
(1.03082e+06 -173392 6.42537e-10 -29874.9 1.12887e-10 300284)
(1.02292e+06 -163442 8.12608e-10 -2563.71 3.36024e-10 306106)
(1.01684e+06 -152716 -5.12366e-10 24100.6 -2.53234e-10 312283)
(1.01217e+06 -141199 -8.08974e-10 50190.1 -3.04071e-10 318708)
(1.00868e+06 -128747 -5.30052e-10 75860.1 -1.84969e-10 325361)
(1.00589e+06 -115174 2.16446e-10 101105 1.05535e-10 332099)
(1.004e+06 -100096 1.01596e-11 126173 1.12413e-12 339051)
(1.00208e+06 -83233.4 -2.8853e-10 150738 -1.00458e-10 345846)
(1.0015e+06 -63740.1 5.56785e-12 175412 1.38333e-12 353073)
(999512 -41778.7 2.80173e-10 198860 1.2991e-10 359512)
(1.0014e+06 -13997.6 -7.53865e-11 223059 -5.84684e-11 367337)
(1.31359e+06 -125064 1.91902e-10 -251278 1.11395e-10 318695)
(1.2647e+06 -140442 3.82111e-10 -235113 2.61558e-10 308877)
(1.22453e+06 -158453 3.96585e-10 -221667 1.16212e-10 300860)
(1.18811e+06 -168442 1.07084e-10 -201441 1.74917e-11 296001)
(1.1564e+06 -174902 1.4087e-10 -177563 1.87996e-10 293650)
(1.12873e+06 -177534 3.61408e-11 -151660 -1.2318e-10 293121)
(1.10514e+06 -177225 -7.38239e-10 -124539 -2.73907e-10 294182)
(1.08512e+06 -174469 -2.63812e-10 -97061.6 -5.89283e-11 296416)
(1.06836e+06 -169753 2.62578e-10 -69631.9 5.70144e-11 299618)
(1.05441e+06 -163435 -3.22384e-10 -42567.8 -6.50325e-11 303552)
(1.04288e+06 -155768 8.21656e-10 -16010.7 3.60201e-10 308060)
(1.0334e+06 -146887 5.03777e-10 9977.38 1.9845e-10 313013)
(1.02558e+06 -136834 -7.39019e-11 35357.4 5.65309e-11 318283)
(1.01922e+06 -125526 1.85657e-10 60171.5 1.13198e-10 323818)
(1.01388e+06 -112825 2.93861e-10 84323.5 8.50504e-11 329463)
(1.00971e+06 -98410.5 -2.06175e-11 107928 -5.58519e-12 335292)
(1.00593e+06 -82043.1 1.75418e-10 130588 9.0323e-11 340956)
(1.00368e+06 -62945.9 9.31674e-11 152675 2.86889e-11 346906)
(1.00068e+06 -41323.4 -2.80702e-10 172843 -1.35028e-10 352057)
(1.00133e+06 -13881.8 -1.38073e-10 192632 -1.53151e-10 358189)
(1.31015e+06 -88382.2 -1.3133e-09 -222212 -4.25547e-10 326381)
(1.27465e+06 -105390 -6.45362e-10 -218528 -3.73482e-10 316836)
(1.23843e+06 -124797 5.64813e-10 -207436 2.98919e-11 309297)
(1.20551e+06 -138034 -3.12887e-10 -191084 2.01509e-10 304329)
(1.17554e+06 -147489 -6.0213e-10 -170507 -3.02873e-10 301509)
(1.14862e+06 -153234 7.2844e-10 -147535 1.81903e-10 300325)
(1.12486e+06 -155898 -6.73841e-24 -122982 -2.71935e-24 300563)
(1.10401e+06 -155935 -7.70211e-10 -97700.7 -4.22141e-10 301893)
(1.08593e+06 -153769 -1.45387e-24 -72162.5 -1.13095e-24 304131)
(1.07033e+06 -149729 -2.03334e-10 -46753.4 -1.51917e-10 307072)
(1.05693e+06 -144058 -1.98888e-10 -21699.1 -1.42662e-10 310570)
(1.04547e+06 -136901 3.13849e-10 2847.2 7.71966e-11 314495)
(1.03565e+06 -128319 -3.07816e-10 26762.2 -8.07693e-11 318723)
(1.02729e+06 -118267 -8.97449e-24 49989.3 -2.77133e-24 323185)
(1.02008e+06 -106650 2.97263e-10 72359.7 9.27242e-11 327731)
(1.01412e+06 -93206.3 -2.92702e-10 93866 -1.01306e-10 332395)
(1.00881e+06 -77752.7 -1.78549e-10 114067 -9.56594e-11 336864)
(1.00514e+06 -59615 2.84945e-10 133135 1.24548e-10 341482)
(1.00131e+06 -39053.2 -3.49799e-24 149758 -1.72549e-24 345321)
(1.00103e+06 -13083.2 -8.481e-11 165067 -7.93291e-11 349830)
(1.30895e+06 -51125.3 -2.64086e-10 -195128 -1.78481e-10 334146)
(1.27648e+06 -70583.3 6.08237e-10 -196150 7.45719e-11 324098)
(1.2453e+06 -91492.4 -7.97505e-10 -190036 -2.66471e-10 316580)
(1.21494e+06 -107176 2.12628e-10 -178346 2.10095e-10 310980)
(1.18687e+06 -119255 1.1897e-10 -161924 -3.85329e-10 307484)
(1.16085e+06 -127830 -4.52499e-24 -142557 -2.16632e-24 305488)
(1.13736e+06 -133281 1.49104e-10 -121053 -8.9011e-11 304892)
(1.11622e+06 -136007 -3.48147e-10 -98348.5 -8.88498e-11 305362)
(1.09746e+06 -136338 -2.02691e-10 -74984.5 -1.63896e-10 306741)
(1.08086e+06 -134570 -4.77158e-24 -51441.7 -1.91517e-24 308825)
(1.06627e+06 -130924 -1.96568e-10 -28034.9 -1.45769e-10 311471)
(1.05349e+06 -125547 -3.32181e-24 -5010.94 -8.98053e-25 314544)
(1.0423e+06 -118519 -6.92466e-10 17423.2 -3.46988e-10 317918)
(1.03258e+06 -109826 -3.75998e-10 39118.5 -2.42494e-10 321511)
(1.02408e+06 -99412 1.14672e-10 59835.4 -1.38838e-11 325174)
(1.0169e+06 -87075.2 1.12501e-10 79457.5 1.01837e-12 328909)
(1.01061e+06 -72690.9 -1.80434e-10 97500 -1.00869e-10 332432)
(1.006e+06 -55690.8 -8.93801e-26 113959 3.49483e-26 335988)
(1.00175e+06 -36394.2 -1.75242e-10 127578 -9.06889e-11 338799)
(1.00082e+06 -12149.5 -3.68946e-10 139135 -4.10519e-10 341987)
(1.29791e+06 -22418.2 1.06203e-10 -169732 -1.54731e-10 338455)
(1.26995e+06 -41538.8 -4.04186e-10 -174719 -1.52658e-10 328568)
(1.24363e+06 -62650.2 -1.66999e-24 -171637 -8.18431e-25 321599)
(1.21654e+06 -79477.7 1.90496e-10 -163366 -7.78693e-11 315953)
(1.19115e+06 -93187.5 1.97956e-10 -150243 1.98583e-10 312271)
(1.16686e+06 -103710 3.21124e-24 -133981 9.56613e-25 309863)
(1.14447e+06 -111248 4.26837e-25 -115320 -1.16676e-24 308744)
(1.12382e+06 -116088 -1.52347e-10 -95181.5 7.53718e-11 308592)
(1.10509e+06 -118472 0 -74123.4 0 309291)
(1.08817e+06 -118644 -8.05934e-24 -52667 -3.45821e-24 310650)
(1.07298e+06 -116792 0 -31180.3 0 312541)
(1.05942e+06 -113052 6.39386e-10 -9973.62 1.87893e-10 314834)
(1.04734e+06 -107509 1.24356e-10 10683.2 -3.49678e-11 317406)
(1.03666e+06 -100171 -4.94669e-10 30567.2 -2.25363e-10 320168)
(1.02721e+06 -91016.8 -1.85025e-10 49381.9 -1.1747e-10 322979)
(1.01912e+06 -79897.6 -2.97675e-10 66920.8 -1.14362e-10 325812)
(1.01206e+06 -66744.2 -1.12654e-10 82671.6 -1.80432e-11 328418)
(1.00671e+06 -51096.9 2.90137e-10 96487.8 1.34729e-10 330959)
(1.00214e+06 -33315.5 2.87385e-10 107191 1.47612e-10 332798)
(1.00062e+06 -11094.3 -2.85893e-10 115244 -3.27729e-10 334761)
(1.28052e+06 1631.29 -7.98257e-11 -145711 2.54165e-10 340444)
(1.25681e+06 -17049.5 -1.69565e-10 -153298 -2.07959e-10 331053)
(1.23513e+06 -37738.5 -5.66835e-10 -152817 -3.48549e-10 324695)
(1.21145e+06 -54926.9 -2.02167e-10 -147652 6.66343e-11 319139)
(1.18899e+06 -69508.6 5.59648e-10 -137623 3.19395e-10 315411)
(1.16685e+06 -81270.3 3.66714e-10 -124367 1.17286e-10 312743)
(1.14604e+06 -90286.2 -4.41297e-24 -108503 -2.62248e-24 311262)
(1.12643e+06 -96729.9 -3.50262e-10 -90937.7 -1.06303e-10 310649)
(1.10832e+06 -100757 3.42407e-10 -72226 1.02986e-10 310827)
(1.09163e+06 -102548 -1.89174e-10 -52919.5 -1.56515e-10 311614)