/*--------------------------------*- C++ -*----------------------------------*\
| =========                 |                                                 |
| \\      /  F ield         | foam-extend: Open Source CFD                    |
|  \\    /   O peration     | Version:     4.1                                |
|   \\  /    A nd           | Web:         http://www.foam-extend.org         |
|    \\/     M anipulation  |                                                 |
\*---------------------------------------------------------------------------*/
FoamFile
{
    version     2.0;
    format      ascii;
    class       vectorField;
    location    "10";
    object      solidsCellD_iteration0;
}
// * * * * * * * * * * * * * * * * * * * * * * * * * * * * * * * * * * * * * //


1000
(
(4.96402e-06 -2.11413e-06 0)
(4.686e-06 -1.96297e-06 0)
(4.50837e-06 -1.86517e-06 0)
(4.40684e-06 -1.81701e-06 0)
(4.35764e-06 -1.79697e-06 0)
(4.34667e-06 -1.79876e-06 0)
(4.36383e-06 -1.81469e-06 0)
(4.4023e-06 -1.84103e-06 0)
(4.45613e-06 -1.87455e-06 0)
(4.52282e-06 -1.91307e-06 0)
(4.48833e-06 -2.3089e-06 0)
(4.19194e-06 -2.20168e-06 0)
(4.00271e-06 -2.13157e-06 0)
(3.89251e-06 -2.10218e-06 0)
(3.83653e-06 -2.09452e-06 0)
(3.81935e-06 -2.10505e-06 0)
(3.83041e-06 -2.12726e-06 0)
(3.86232e-06 -2.15824e-06 0)
(3.90909e-06 -2.19579e-06 0)
(3.96724e-06 -2.23639e-06 0)
(3.99409e-06 -2.49356e-06 0)
(3.69112e-06 -2.43548e-06 0)
(3.49779e-06 -2.3964e-06 0)
(3.38369e-06 -2.38785e-06 0)
(3.32386e-06 -2.39381e-06 0)
(3.30224e-06 -2.41377e-06 0)
(3.30824e-06 -2.44256e-06 0)
(3.33436e-06 -2.4783e-06 0)
(3.37472e-06 -2.51971e-06 0)
(3.42579e-06 -2.56306e-06 0)
(3.48504e-06 -2.66483e-06 0)
(3.18811e-06 -2.65838e-06 0)
(2.99871e-06 -2.65194e-06 0)
(2.88585e-06 -2.66519e-06 0)
(2.82535e-06 -2.68534e-06 0)
(2.80128e-06 -2.71505e-06 0)
(2.80346e-06 -2.75052e-06 0)
(2.8245e-06 -2.79106e-06 0)
(2.85906e-06 -2.83614e-06 0)
(2.90325e-06 -2.88236e-06 0)
(2.96449e-06 -2.81936e-06 0)
(2.68637e-06 -2.86413e-06 0)
(2.50903e-06 -2.8901e-06 0)
(2.40261e-06 -2.92492e-06 0)
(2.34467e-06 -2.95905e-06 0)
(2.32015e-06 -2.99831e-06 0)
(2.31969e-06 -3.04026e-06 0)
(2.33632e-06 -3.08546e-06 0)
(2.36534e-06 -3.13399e-06 0)
(2.4028e-06 -3.18318e-06 0)
(2.43527e-06 -2.95394e-06 0)
(2.18822e-06 -3.04666e-06 0)
(2.03074e-06 -3.103e-06 0)
(1.93575e-06 -3.15798e-06 0)
(1.88346e-06 -3.20516e-06 0)
(1.86041e-06 -3.25331e-06 0)
(1.85839e-06 -3.30124e-06 0)
(1.87118e-06 -3.35077e-06 0)
(1.89483e-06 -3.40243e-06 0)
(1.92552e-06 -3.45448e-06 0)
(1.89975e-06 -3.06559e-06 0)
(1.69483e-06 -3.20033e-06 0)
(1.56424e-06 -3.28329e-06 0)
(1.48518e-06 -3.35593e-06 0)
(1.44132e-06 -3.41451e-06 0)
(1.42144e-06 -3.47042e-06 0)
(1.4188e-06 -3.52355e-06 0)
(1.42823e-06 -3.57688e-06 0)
(1.44658e-06 -3.63124e-06 0)
(1.47048e-06 -3.68588e-06 0)
(1.35986e-06 -3.15172e-06 0)
(1.20639e-06 -3.32022e-06 0)
(1.10859e-06 -3.42457e-06 0)
(1.04923e-06 -3.51138e-06 0)
(1.01611e-06 -3.57912e-06 0)
(1.00082e-06 -3.64125e-06 0)
(9.98353e-07 -3.69857e-06 0)
(1.00479e-06 -3.75494e-06 0)
(1.01789e-06 -3.81146e-06 0)
(1.03497e-06 -3.86826e-06 0)
(8.17143e-07 -3.21028e-06 0)
(7.2212e-07 -3.40239e-06 0)
(6.61553e-07 -3.52172e-06 0)
(6.24718e-07 -3.61844e-06 0)
(6.0409e-07 -3.69259e-06 0)
(5.94446e-07 -3.75907e-06 0)
(5.92706e-07 -3.8193e-06 0)
(5.96439e-07 -3.87783e-06 0)
(6.04284e-07 -3.93586e-06 0)
(6.14529e-07 -3.99421e-06 0)
(2.72894e-07 -3.23978e-06 0)
(2.40686e-07 -3.44408e-06 0)
(2.20131e-07 -3.57114e-06 0)
(2.07601e-07 -3.67299e-06 0)
(2.00558e-07 -3.75046e-06 0)
(1.97231e-07 -3.8192e-06 0)
(1.96581e-07 -3.88094e-06 0)
(1.97782e-07 -3.94058e-06 0)
(2.0038e-07 -3.9994e-06 0)
(2.03784e-07 -4.05856e-06 0)
(7.74812e-06 -9.66349e-08 0)
(7.82005e-06 -6.95581e-08 0)
(7.86398e-06 -5.22836e-08 0)
(7.91143e-06 -4.20138e-08 0)
(7.96266e-06 -3.61819e-08 0)
(8.02517e-06 -3.33295e-08 0)
(8.09859e-06 -3.2481e-08 0)
(8.18391e-06 -3.29467e-08 0)
(8.2807e-06 -3.43553e-08 0)
(8.38773e-06 -3.60868e-08 0)
(7.69067e-06 -2.89841e-07 0)
(7.75099e-06 -2.10193e-07 0)
(7.78763e-06 -1.59489e-07 0)
(7.83023e-06 -1.29425e-07 0)
(7.87829e-06 -1.12422e-07 0)
(7.93855e-06 -1.04182e-07 0)
(8.01036e-06 -1.0183e-07 0)
(8.09435e-06 -1.03342e-07 0)
(8.19005e-06 -1.07609e-07 0)
(8.29584e-06 -1.12837e-07 0)
(7.576e-06 -4.84709e-07 0)
(7.61417e-06 -3.56777e-07 0)
(7.6368e-06 -2.75391e-07 0)
(7.67012e-06 -2.27263e-07 0)
(7.71207e-06 -2.00148e-07 0)
(7.76803e-06 -1.87159e-07 0)
(7.83675e-06 -1.83645e-07 0)
(7.91821e-06 -1.86378e-07 0)
(8.01185e-06 -1.93523e-07 0)
(8.11533e-06 -2.02287e-07 0)
(7.4061e-06 -6.81978e-07 0)
(7.41278e-06 -5.12674e-07 0)
(7.41546e-06 -4.04939e-07 0)
(7.43556e-06 -3.41484e-07 0)
(7.46881e-06 -3.05917e-07 0)
(7.51863e-06 -2.89181e-07 0)
(7.5829e-06 -2.85039e-07 0)
(7.66074e-06 -2.89266e-07 0)
(7.75143e-06 -2.99313e-07 0)
(7.85164e-06 -3.11668e-07 0)
(7.18365e-06 -8.8219e-07 0)
(7.15134e-06 -6.80677e-07 0)
(7.12934e-06 -5.52366e-07 0)
(7.13309e-06 -4.77223e-07 0)
(7.15556e-06 -4.35421e-07 0)
(7.19775e-06 -4.16276e-07 0)
(7.25652e-06 -4.12231e-07 0)
(7.32991e-06 -4.18321e-07 0)
(7.41694e-06 -4.31326e-07 0)
(7.5132e-06 -4.47338e-07 0)
(6.912e-06 -1.0854e-06 0)
(6.83556e-06 -8.62553e-07 0)
(6.78562e-06 -7.20516e-07 0)
(6.77081e-06 -6.38006e-07 0)
(6.781e-06 -5.926e-07 0)
(6.81449e-06 -5.72635e-07 0)
(6.86693e-06 -5.6955e-07 0)
(6.93523e-06 -5.77941e-07 0)
(7.01804e-06 -5.93979e-07 0)
(7.10995e-06 -6.13705e-07 0)
(6.59507e-06 -1.29122e-06 0)
(6.47204e-06 -1.05902e-06 0)
(6.3926e-06 -9.10828e-07 0)
(6.35812e-06 -8.2573e-07 0)
(6.35523e-06 -7.7964e-07 0)
(6.3794e-06 -7.60619e-07 0)
(6.42499e-06 -7.59481e-07 0)
(6.48783e-06 -7.70671e-07 0)
(6.56603e-06 -7.89903e-07 0)
(6.65342e-06 -8.13399e-07 0)
(6.2372e-06 -1.49872e-06 0)
(6.06793e-06 -1.26959e-06 0)
(5.95921e-06 -1.12308e-06 0)
(5.90508e-06 -1.04035e-06 0)
(5.88901e-06 -9.96602e-07 0)
(5.90364e-06 -9.80349e-07 0)
(5.94208e-06 -9.8216e-07 0)
(5.99922e-06 -9.96685e-07 0)
(6.07252e-06 -1.01927e-06 0)
(6.15554e-06 -1.04669e-06 0)
(5.84296e-06 -1.70643e-06 0)
(5.63071e-06 -1.49253e-06 0)
(5.49474e-06 -1.35544e-06 0)
(5.42217e-06 -1.27994e-06 0)
(5.39354e-06 -1.2415e-06 0)
(5.39889e-06 -1.22978e-06 0)
(5.43012e-06 -1.23558e-06 0)
(5.48142e-06 -1.2539e-06 0)
(5.54951e-06 -1.28026e-06 0)
(5.62862e-06 -1.31168e-06 0)
(5.41703e-06 -1.91238e-06 0)
(5.1677e-06 -1.72498e-06 0)
(5.00824e-06 -1.60444e-06 0)
(4.9195e-06 -1.54068e-06 0)
(4.87956e-06 -1.51027e-06 0)
(4.87614e-06 -1.50469e-06 0)
(4.90009e-06 -1.51525e-06 0)
(4.94502e-06 -1.53776e-06 0)
(5.00704e-06 -1.56782e-06 0)
(5.08227e-06 -1.60426e-06 0)
(8.50532e-06 -3.78579e-08 0)
(8.63354e-06 -3.80619e-08 0)
(8.7701e-06 -3.83988e-08 0)
(8.91455e-06 -3.85971e-08 0)
(9.06596e-06 -3.86116e-08 0)
(9.22372e-06 -3.84276e-08 0)
(9.38712e-06 -3.79972e-08 0)
(9.55554e-06 -3.73143e-08 0)
(9.72838e-06 -3.63513e-08 0)
(9.90507e-06 -3.50946e-08 0)
(1.00851e-05 -3.352e-08 0)
(1.02678e-05 -3.16042e-08 0)
(1.04526e-05 -2.93156e-08 0)
(1.06391e-05 -2.66181e-08 0)
(1.08266e-05 -2.34645e-08 0)
(1.10144e-05 -1.98009e-08 0)
(1.12022e-05 -1.55552e-08 0)
(1.13884e-05 -1.06519e-08 0)
(1.15736e-05 -4.96648e-09 0)
(1.17542e-05 1.55041e-09 0)
(8.41748e-06 -1.17733e-07 0)
(8.55302e-06 -1.17777e-07 0)
(8.69614e-06 -1.18267e-07 0)
(8.84631e-06 -1.18442e-07 0)
(9.00286e-06 -1.18126e-07 0)
(9.16518e-06 -1.17282e-07 0)
(9.3327e-06 -1.15749e-07 0)
(9.50483e-06 -1.13503e-07 0)
(9.68104e-06 -1.10454e-07 0)
(9.86077e-06 -1.06556e-07 0)
(1.00435e-05 -1.01731e-07 0)
(1.02288e-05 -9.59055e-08 0)
(1.04161e-05 -8.89808e-08 0)
(1.06049e-05 -8.08458e-08 0)
(1.07946e-05 -7.13571e-08 0)
(1.09845e-05 -6.03508e-08 0)
(1.11742e-05 -4.76091e-08 0)
(1.13624e-05 -3.29045e-08 0)
(1.15494e-05 -1.58628e-08 0)
(1.17321e-05 3.66472e-09 0)
(8.24495e-06 -2.09038e-07 0)
(8.39486e-06 -2.07291e-07 0)
(8.55085e-06 -2.0646e-07 0)
(8.71218e-06 -2.05485e-07 0)
(8.87871e-06 -2.03891e-07 0)
(9.04987e-06 -2.01637e-07 0)
(9.22537e-06 -1.98385e-07 0)
(9.4047e-06 -1.94086e-07 0)
(9.58749e-06 -1.88557e-07 0)
(9.77325e-06 -1.81705e-07 0)
(9.96157e-06 -1.73385e-07 0)
(1.0152e-05 -1.63462e-07 0)
(1.03441e-05 -1.51761e-07 0)
(1.05373e-05 -1.38088e-07 0)
(1.07313e-05 -1.22199e-07 0)
(1.09253e-05 -1.03813e-07 0)
(1.1119e-05 -8.25628e-08 0)
(1.13111e-05 -5.80638e-08 0)
(1.15019e-05 -2.96896e-08 0)
(1.16883e-05 2.81412e-09 0)
(7.99267e-06 -3.18306e-07 0)
(8.16323e-06 -3.12227e-07 0)
(8.33789e-06 -3.07733e-07 0)
(8.51547e-06 -3.0382e-07 0)
(8.69662e-06 -2.99439e-07 0)
(8.88074e-06 -2.94575e-07 0)
(9.06793e-06 -2.88629e-07 0)
(9.25779e-06 -2.81495e-07 0)
(9.45018e-06 -2.72864e-07 0)
(9.64473e-06 -2.62569e-07 0)
(9.84118e-06 -2.50375e-07 0)
(1.00392e-05 -2.36069e-07 0)
(1.02383e-05 -2.19385e-07 0)
(1.04382e-05 -2.00036e-07 0)
(1.06385e-05 -1.77662e-07 0)
(1.08385e-05 -1.51859e-07 0)
(1.10379e-05 -1.22102e-07 0)
(1.12356e-05 -8.78414e-08 0)
(1.1432e-05 -4.81909e-08 0)
(1.16239e-05 -2.77361e-09 0)
(7.66834e-06 -4.5136e-07 0)
(7.8648e-06 -4.37676e-07 0)
(8.06313e-06 -4.26484e-07 0)
(8.26135e-06 -4.17287e-07 0)
(8.46119e-06 -4.08152e-07 0)
(8.66193e-06 -3.99094e-07 0)
(8.8642e-06 -3.89168e-07 0)
(9.06767e-06 -3.7816e-07 0)
(9.27246e-06 -3.65594e-07 0)
(9.47836e-06 -3.51192e-07 0)
(9.68527e-06 -3.34605e-07 0)
(9.89295e-06 -3.15516e-07 0)
(1.01012e-05 -2.93554e-07 0)
(1.03096e-05 -2.68319e-07 0)
(1.0518e-05 -2.3933e-07 0)
(1.07257e-05 -2.06047e-07 0)
(1.09326e-05 -1.67776e-07 0)
(1.11376e-05 -1.23798e-07 0)
(1.1341e-05 -7.29585e-08 0)
(1.15401e-05 -1.47442e-08 0)
(7.28112e-06 -6.12304e-07 0)
(7.5075e-06 -5.87244e-07 0)
(7.73359e-06 -5.65813e-07 0)
(7.95614e-06 -5.48505e-07 0)
(8.17813e-06 -5.32268e-07 0)
(8.39867e-06 -5.17083e-07 0)
(8.61892e-06 -5.01623e-07 0)
(8.8387e-06 -4.85479e-07 0)
(9.0584e-06 -4.67981e-07 0)
(9.27796e-06 -4.48685e-07 0)
(9.49747e-06 -4.27104e-07 0)
(9.71682e-06 -4.02782e-07 0)
(9.93594e-06 -3.75221e-07 0)
(1.01546e-05 -3.43893e-07 0)
(1.03727e-05 -3.08174e-07 0)
(1.05896e-05 -2.67379e-07 0)
(1.08054e-05 -2.20634e-07 0)
(1.1019e-05 -1.6704e-07 0)
(1.12311e-05 -1.05172e-07 0)
(1.14387e-05 -3.43573e-08 0)
(6.84161e-06 -8.03796e-07 0)
(7.10059e-06 -7.63489e-07 0)
(7.35742e-06 -7.28267e-07 0)
(7.60717e-06 -6.99834e-07 0)
(7.85407e-06 -6.74061e-07 0)
(8.09702e-06 -6.50671e-07 0)
(8.33764e-06 -6.28002e-07 0)
(8.57594e-06 -6.05326e-07 0)
(8.81256e-06 -5.81767e-07 0)
(9.04769e-06 -5.56661e-07 0)
(9.28156e-06 -5.29355e-07 0)
(9.51426e-06 -4.9923e-07 0)
(9.74583e-06 -4.65643e-07 0)
(9.9762e-06 -4.27919e-07 0)
(1.02053e-05 -3.85281e-07 0)
(1.04328e-05 -3.36888e-07 0)
(1.06588e-05 -2.8168e-07 0)
(1.08823e-05 -2.18574e-07 0)
(1.11041e-05 -1.45873e-07 0)
(1.13215e-05 -6.27438e-08 0)
(6.36079e-06 -1.02626e-06 0)
(6.65367e-06 -9.66572e-07 0)
(6.94297e-06 -9.14073e-07 0)
(7.22197e-06 -8.71177e-07 0)
(7.49573e-06 -8.33265e-07 0)
(7.76317e-06 -7.99392e-07 0)
(8.02611e-06 -7.67703e-07 0)
(8.28482e-06 -7.37028e-07 0)
(8.54011e-06 -7.0626e-07 0)
(8.79241e-06 -6.74459e-07 0)
(9.04214e-06 -6.40764e-07 0)
(9.28954e-06 -6.04361e-07 0)
(9.53482e-06 -5.64428e-07 0)
(9.77807e-06 -5.20122e-07 0)
(1.00193e-05 -4.70498e-07 0)
(1.02585e-05 -4.14547e-07 0)
(1.04956e-05 -3.51016e-07 0)
(1.073e-05 -2.78633e-07 0)
(1.09624e-05 -1.95433e-07 0)
(1.11907e-05 -1.00406e-07 0)
(5.85048e-06 -1.27933e-06 0)
(6.17783e-06 -1.19669e-06 0)
(6.4999e-06 -1.12467e-06 0)
(6.8093e-06 -1.0645e-06 0)
(7.11077e-06 -1.01224e-06 0)
(7.40382e-06 -9.65868e-07 0)
(7.69014e-06 -9.23413e-07 0)
(7.97042e-06 -8.83226e-07 0)
(8.24556e-06 -8.43942e-07 0)
(8.5162e-06 -8.04343e-07 0)
(8.78291e-06 -7.63343e-07 0)
(9.04609e-06 -7.19919e-07 0)
(9.30612e-06 -6.73061e-07 0)
(9.56321e-06 -6.21747e-07 0)
(9.81755e-06 -5.64856e-07 0)
(1.00691e-05 -5.01203e-07 0)
(1.03182e-05 -4.29344e-07 0)
(1.05642e-05 -3.47821e-07 0)
(1.08082e-05 -2.54424e-07 0)
(1.10481e-05 -1.47987e-07 0)
(5.31988e-06 -1.55814e-06 0)
(5.68203e-06 -1.44805e-06 0)
(6.03552e-06 -1.35429e-06 0)
(6.37598e-06 -1.27406e-06 0)
(6.7058e-06 -1.20501e-06 0)
(7.02551e-06 -1.14418e-06 0)
(7.33633e-06 -1.08938e-06 0)
(7.63923e-06 -1.03852e-06 0)
(7.93521e-06 -9.89875e-07 0)
(8.22508e-06 -9.41898e-07 0)
(8.50959e-06 -8.93214e-07 0)
(8.78931e-06 -8.42556e-07 0)
(9.06476e-06 -7.88693e-07 0)
(9.3363e-06 -7.30405e-07 0)
(9.60426e-06 -6.66387e-07 0)
(9.86879e-06 -5.95276e-07 0)
(1.01302e-05 -5.15441e-07 0)
(1.03884e-05 -4.25247e-07 0)
(1.06442e-05 -3.22248e-07 0)
(1.08963e-05 -2.05094e-07 0)
(4.92788e-06 -1.82024e-06 0)
(5.31388e-06 -1.68942e-06 0)
(5.68568e-06 -1.58032e-06 0)
(6.0443e-06 -1.48494e-06 0)
(6.39122e-06 -1.4017e-06 0)
(6.72731e-06 -1.32774e-06 0)
(7.05369e-06 -1.26084e-06 0)
(7.37125e-06 -1.19889e-06 0)
(7.68094e-06 -1.14006e-06 0)
(7.98357e-06 -1.08269e-06 0)
(8.2799e-06 -1.02526e-06 0)
(8.57056e-06 -9.66364e-07 0)
(8.85615e-06 -9.04646e-07 0)
(9.13709e-06 -8.38756e-07 0)
(9.41382e-06 -7.67278e-07 0)
(9.68662e-06 -6.88746e-07 0)
(9.95591e-06 -6.0145e-07 0)
(1.02217e-05 -5.03685e-07 0)
(1.04851e-05 -3.9295e-07 0)
(1.07451e-05 -2.67874e-07 0)
(4.70302e-06 -2.03031e-06 0)
(5.0911e-06 -1.89469e-06 0)
(5.46632e-06 -1.77731e-06 0)
(5.82975e-06 -1.67294e-06 0)
(6.18204e-06 -1.5801e-06 0)
(6.52387e-06 -1.49642e-06 0)
(6.85607e-06 -1.41988e-06 0)
(7.17938e-06 -1.34856e-06 0)
(7.49458e-06 -1.28071e-06 0)
(7.8024e-06 -1.21469e-06 0)
(8.10354e-06 -1.14901e-06 0)
(8.39859e-06 -1.08225e-06 0)
(8.68815e-06 -1.01303e-06 0)
(8.97266e-06 -9.3997e-07 0)
(9.25261e-06 -8.6166e-07 0)
(9.52837e-06 -7.7663e-07 0)
(9.80042e-06 -6.83201e-07 0)
(1.0069e-05 -5.79717e-07 0)
(1.0335e-05 -4.63801e-07 0)
(1.05981e-05 -3.34192e-07 0)
(4.5097e-06 -2.23357e-06 0)
(4.8937e-06 -2.09434e-06 0)
(5.2682e-06 -1.97115e-06 0)
(5.63239e-06 -1.85964e-06 0)
(5.98671e-06 -1.75871e-06 0)
(6.33131e-06 -1.66648e-06 0)
(6.6668e-06 -1.58118e-06 0)
(6.99364e-06 -1.50112e-06 0)
(7.31248e-06 -1.42467e-06 0)
(7.62392e-06 -1.3503e-06 0)
(7.92854e-06 -1.27657e-06 0)
(8.2269e-06 -1.20208e-06 0)
(8.51957e-06 -1.12547e-06 0)
(8.80696e-06 -1.04539e-06 0)
(9.0896e-06 -9.60426e-07 0)
(9.36791e-06 -8.69156e-07 0)
(9.64243e-06 -7.69961e-07 0)
(9.91346e-06 -6.61267e-07 0)
(1.01821e-05 -5.40862e-07 0)
(1.0448e-05 -4.07618e-07 0)
(4.33884e-06 -2.42941e-06 0)
(4.71703e-06 -2.28817e-06 0)
(5.08819e-06 -2.16049e-06 0)
(5.45055e-06 -2.04304e-06 0)
(5.80441e-06 -1.93513e-06 0)
(6.14952e-06 -1.83529e-06 0)
(6.48623e-06 -1.74204e-06 0)
(6.81479e-06 -1.65391e-06 0)
(7.13568e-06 -1.56942e-06 0)
(7.44934e-06 -1.48718e-06 0)
(7.75628e-06 -1.4058e-06 0)
(8.05696e-06 -1.32394e-06 0)
(8.35191e-06 -1.2403e-06 0)
(8.64152e-06 -1.15356e-06 0)
(8.92632e-06 -1.06235e-06 0)
(9.20675e-06 -9.653e-07 0)
(9.4834e-06 -8.6089e-07 0)
(9.75665e-06 -7.47647e-07 0)
(1.00275e-05 -6.23556e-07 0)
(1.02962e-05 -4.87617e-07 0)
(4.18786e-06 -2.61711e-06 0)
(4.55877e-06 -2.475e-06 0)
(4.92471e-06 -2.3442e-06 0)
(5.28325e-06 -2.22217e-06 0)
(5.6347e-06 -2.10853e-06 0)
(5.97843e-06 -2.00218e-06 0)
(6.31465e-06 -1.90192e-06 0)
(6.64335e-06 -1.80651e-06 0)
(6.96487e-06 -1.71466e-06 0)
(7.27952e-06 -1.62509e-06 0)
(7.58769e-06 -1.53654e-06 0)
(7.88978e-06 -1.44774e-06 0)
(8.18624e-06 -1.35746e-06 0)
(8.47742e-06 -1.26442e-06 0)
(8.76387e-06 -1.16736e-06 0)
(9.046e-06 -1.06497e-06 0)
(9.32444e-06 -9.5583e-07 0)
(9.59964e-06 -8.38607e-07 0)
(9.87257e-06 -7.11499e-07 0)
(1.01436e-05 -5.73647e-07 0)
(4.0533e-06 -2.79654e-06 0)
(4.41617e-06 -2.65451e-06 0)
(4.77569e-06 -2.52165e-06 0)
(5.12909e-06 -2.3961e-06 0)
(5.47667e-06 -2.27778e-06 0)
(5.81758e-06 -2.1659e-06 0)
(6.15188e-06 -2.05953e-06 0)
(6.47941e-06 -1.95764e-06 0)
(6.80036e-06 -1.85914e-06 0)
(7.11493e-06 -1.76289e-06 0)
(7.42338e-06 -1.66773e-06 0)
(7.72604e-06 -1.57252e-06 0)
(8.02331e-06 -1.47607e-06 0)
(8.31548e-06 -1.37723e-06 0)
(8.60309e-06 -1.27479e-06 0)
(8.88653e-06 -1.16755e-06 0)
(9.16645e-06 -1.05423e-06 0)
(9.4433e-06 -9.33608e-07 0)
(9.71803e-06 -8.04125e-07 0)
(9.99119e-06 -6.65061e-07 0)
(3.93247e-06 -2.96786e-06 0)
(4.28685e-06 -2.82658e-06 0)
(4.63917e-06 -2.69254e-06 0)
(4.9865e-06 -2.56442e-06 0)
(5.32917e-06 -2.44239e-06 0)
(5.66618e-06 -2.32591e-06 0)
(5.99748e-06 -2.21431e-06 0)
(6.32278e-06 -2.10677e-06 0)
(6.64218e-06 -2.00235e-06 0)
(6.95575e-06 -1.90008e-06 0)
(7.26368e-06 -1.79893e-06 0)
(7.56621e-06 -1.69786e-06 0)
(7.86366e-06 -1.59578e-06 0)
(8.15631e-06 -1.49163e-06 0)
(8.44465e-06 -1.38431e-06 0)
(8.72904e-06 -1.27272e-06 0)
(9.01012e-06 -1.15571e-06 0)
(9.28836e-06 -1.03222e-06 0)
(9.56464e-06 -9.00922e-07 0)
(9.83965e-06 -7.61225e-07 0)
(3.82284e-06 -3.13137e-06 0)
(4.16857e-06 -2.99135e-06 0)
(4.51325e-06 -2.85679e-06 0)
(4.85395e-06 -2.72687e-06 0)
(5.19099e-06 -2.60195e-06 0)
(5.52332e-06 -2.4817e-06 0)
(5.85081e-06 -2.36568e-06 0)
(6.17306e-06 -2.25325e-06 0)
(6.49012e-06 -2.14365e-06 0)
(6.80197e-06 -2.03604e-06 0)
(7.10869e-06 -1.92953e-06 0)
(7.41049e-06 -1.82319e-06 0)
(7.70762e-06 -1.71604e-06 0)
(8.00029e-06 -1.60712e-06 0)
(8.28898e-06 -1.49543e-06 0)
(8.574e-06 -1.38e-06 0)
(8.85595e-06 -1.25981e-06 0)
(9.13532e-06 -1.13396e-06 0)
(9.41291e-06 -1.00133e-06 0)
(9.6895e-06 -8.61474e-07 0)
(3.72219e-06 -3.28757e-06 0)
(4.05932e-06 -3.14909e-06 0)
(4.39615e-06 -3.01452e-06 0)
(4.72989e-06 -2.88341e-06 0)
(5.06085e-06 -2.7563e-06 0)
(5.38797e-06 -2.63302e-06 0)
(5.71106e-06 -2.51332e-06 0)
(6.02967e-06 -2.39673e-06 0)
(6.34379e-06 -2.28265e-06 0)
(6.65334e-06 -2.17039e-06 0)
(6.95834e-06 -2.05916e-06 0)
(7.25892e-06 -1.94815e-06 0)
(7.5553e-06 -1.8365e-06 0)
(7.84763e-06 -1.72335e-06 0)
(8.13633e-06 -1.60782e-06 0)
(8.42169e-06 -1.48904e-06 0)
(8.70425e-06 -1.36614e-06 0)
(8.98452e-06 -1.23837e-06 0)
(9.26319e-06 -1.10482e-06 0)
(9.5411e-06 -9.65175e-07 0)
(3.62851e-06 -3.43695e-06 0)
(3.95721e-06 -3.30018e-06 0)
(4.2862e-06 -3.16594e-06 0)
(4.61285e-06 -3.03414e-06 0)
(4.93749e-06 -2.9054e-06 0)
(5.25906e-06 -2.77973e-06 0)
(5.57736e-06 -2.65702e-06 0)
(5.89192e-06 -2.53695e-06 0)
(6.20268e-06 -2.41907e-06 0)
(6.50951e-06 -2.30279e-06 0)
(6.81238e-06 -2.18747e-06 0)
(7.11139e-06 -2.0724e-06 0)
(7.40667e-06 -1.95682e-06 0)
(7.69835e-06 -1.83998e-06 0)
(7.98679e-06 -1.72111e-06 0)
(8.27224e-06 -1.59945e-06 0)
(8.5552e-06 -1.47429e-06 0)
(8.83614e-06 -1.34499e-06 0)
(9.11569e-06 -1.21087e-06 0)
(9.39469e-06 -1.07172e-06 0)
(3.54004e-06 -3.58004e-06 0)
(3.86057e-06 -3.44502e-06 0)
(4.18182e-06 -3.31136e-06 0)
(4.50141e-06 -3.17925e-06 0)
(4.81963e-06 -3.04936e-06 0)
(5.1355e-06 -2.92184e-06 0)
(5.44879e-06 -2.79672e-06 0)
(5.75904e-06 -2.67379e-06 0)
(6.06616e-06 -2.55272e-06 0)
(6.36999e-06 -2.43305e-06 0)
(6.67047e-06 -2.31424e-06 0)
(6.96763e-06 -2.19569e-06 0)
(7.26156e-06 -2.07674e-06 0)
(7.55235e-06 -1.95673e-06 0)
(7.84031e-06 -1.83501e-06 0)
(8.12565e-06 -1.71094e-06 0)
(8.40883e-06 -1.58392e-06 0)
(8.69026e-06 -1.45344e-06 0)
(8.97049e-06 -1.31902e-06 0)
(9.25035e-06 -1.18053e-06 0)
(3.4552e-06 -3.71735e-06 0)
(3.76785e-06 -3.58404e-06 0)
(4.08156e-06 -3.45112e-06 0)
(4.3942e-06 -3.31897e-06 0)
(4.70603e-06 -3.18833e-06 0)
(5.01617e-06 -3.05944e-06 0)
(5.32438e-06 -2.93243e-06 0)
(5.63021e-06 -2.80719e-06 0)
(5.93356e-06 -2.68352e-06 0)
(6.23424e-06 -2.56104e-06 0)
(6.53213e-06 -2.43932e-06 0)
(6.82727e-06 -2.31784e-06 0)
(7.11967e-06 -2.19606e-06 0)
(7.4094e-06 -2.07339e-06 0)
(7.69672e-06 -1.94929e-06 0)
(7.98181e-06 -1.82322e-06 0)
(8.26505e-06 -1.6947e-06 0)
(8.54681e-06 -1.56334e-06 0)
(8.82757e-06 -1.42882e-06 0)
(9.10807e-06 -1.29112e-06 0)
(3.37253e-06 -3.84935e-06 0)
(3.6776e-06 -3.71768e-06 0)
(3.98403e-06 -3.58558e-06 0)
(4.28991e-06 -3.45361e-06 0)
(4.59549e-06 -3.32254e-06 0)
(4.89998e-06 -3.19268e-06 0)
(5.20315e-06 -3.06424e-06 0)
(5.50458e-06 -2.93722e-06 0)
(5.80413e-06 -2.81147e-06 0)
(6.1016e-06 -2.68673e-06 0)
(6.39685e-06 -2.56264e-06 0)
(6.68986e-06 -2.43876e-06 0)
(6.98063e-06 -2.31464e-06 0)
(7.2692e-06 -2.18979e-06 0)
(7.5558e-06 -2.06374e-06 0)
(7.84052e-06 -1.93605e-06 0)
(8.1237e-06 -1.80635e-06 0)
(8.40566e-06 -1.67436e-06 0)
(8.68678e-06 -1.53989e-06 0)
(8.96776e-06 -1.40301e-06 0)
(3.29064e-06 -3.97646e-06 0)
(3.58846e-06 -3.84636e-06 0)
(3.88788e-06 -3.71511e-06 0)
(4.18726e-06 -3.58349e-06 0)
(4.48681e-06 -3.45225e-06 0)
(4.78585e-06 -3.32177e-06 0)
(5.08414e-06 -3.19232e-06 0)
(5.38128e-06 -3.06396e-06 0)
(5.67712e-06 -2.93663e-06 0)
(5.97143e-06 -2.81012e-06 0)
(6.26403e-06 -2.68416e-06 0)
(6.55491e-06 -2.55838e-06 0)
(6.84404e-06 -2.4324e-06 0)
(7.13142e-06 -2.3058e-06 0)
(7.41723e-06 -2.1782e-06 0)
(7.70151e-06 -2.04924e-06 0)
(7.98454e-06 -1.91864e-06 0)
(8.26657e-06 -1.78622e-06 0)
(8.54795e-06 -1.6519e-06 0)
(8.82927e-06 -1.51582e-06 0)
(3.20815e-06 -4.09912e-06 0)
(3.49907e-06 -3.97043e-06 0)
(3.79182e-06 -3.84009e-06 0)
(4.08501e-06 -3.70896e-06 0)
(4.37884e-06 -3.57779e-06 0)
(4.67272e-06 -3.44699e-06 0)
(4.96639e-06 -3.3169e-06 0)
(5.25947e-06 -3.18762e-06 0)
(5.55176e-06 -3.05914e-06 0)
(5.84302e-06 -2.93133e-06 0)
(6.13308e-06 -2.80396e-06 0)
(6.42192e-06 -2.67673e-06 0)
(6.70946e-06 -2.54932e-06 0)
(6.99567e-06 -2.42138e-06 0)
(7.28066e-06 -2.29258e-06 0)
(7.56444e-06 -2.16265e-06 0)
(7.84726e-06 -2.03139e-06 0)
(8.12931e-06 -1.89869e-06 0)
(8.41086e-06 -1.76457e-06 0)
(8.69237e-06 -1.62922e-06 0)
(3.12378e-06 -4.21759e-06 0)
(3.40813e-06 -4.0904e-06 0)
(3.6945e-06 -3.96088e-06 0)
(3.98195e-06 -3.83033e-06 0)
(4.27047e-06 -3.69946e-06 0)
(4.55959e-06 -3.56863e-06 0)
(4.84899e-06 -3.43823e-06 0)
(5.13828e-06 -3.3084e-06 0)
(5.42728e-06 -3.17917e-06 0)
(5.71573e-06 -3.05047e-06 0)
(6.00345e-06 -2.92211e-06 0)
(6.2904e-06 -2.79384e-06 0)
(6.57644e-06 -2.66539e-06 0)
(6.86151e-06 -2.53646e-06 0)
(7.1457e-06 -2.4068e-06 0)
(7.42899e-06 -2.27617e-06 0)
(7.71157e-06 -2.14444e-06 0)
(7.9936e-06 -2.01157e-06 0)
(8.27522e-06 -1.87766e-06 0)
(8.55681e-06 -1.74294e-06 0)
(3.03621e-06 -4.33242e-06 0)
(3.3141e-06 -4.20627e-06 0)
(3.59442e-06 -4.07787e-06 0)
(3.87682e-06 -3.94818e-06 0)
(4.16053e-06 -3.81776e-06 0)
(4.4454e-06 -3.68715e-06 0)
(4.73096e-06 -3.55672e-06 0)
(5.01688e-06 -3.42665e-06 0)
(5.30295e-06 -3.29703e-06 0)
(5.58894e-06 -3.16779e-06 0)
(5.87461e-06 -3.0388e-06 0)
(6.15986e-06 -2.90985e-06 0)
(6.44453e-06 -2.7807e-06 0)
(6.72854e-06 -2.6511e-06 0)
(7.01199e-06 -2.52084e-06 0)
(7.29484e-06 -2.38973e-06 0)
(7.57717e-06 -2.25769e-06 0)
(7.85904e-06 -2.12472e-06 0)
(8.14069e-06 -1.99101e-06 0)
(8.42241e-06 -1.85678e-06 0)
(2.94327e-06 -4.44346e-06 0)
(3.2157e-06 -4.31852e-06 0)
(3.49104e-06 -4.19151e-06 0)
(3.76858e-06 -4.06273e-06 0)
(4.04811e-06 -3.93297e-06 0)
(4.32922e-06 -3.80282e-06 0)
(4.61148e-06 -3.67264e-06 0)
(4.89455e-06 -3.54265e-06 0)
(5.17821e-06 -3.41294e-06 0)
(5.46215e-06 -3.28349e-06 0)
(5.74607e-06 -3.15419e-06 0)
(6.02984e-06 -3.02486e-06 0)
(6.31334e-06 -2.8953e-06 0)
(6.59649e-06 -2.7653e-06 0)
(6.87928e-06 -2.63466e-06 0)
(7.1616e-06 -2.50326e-06 0)
(7.44364e-06 -2.37103e-06 0)
(7.72541e-06 -2.23802e-06 0)
(8.007e-06 -2.10445e-06 0)
(8.28865e-06 -1.97058e-06 0)
(2.84379e-06 -4.55199e-06 0)
(3.1112e-06 -4.42856e-06 0)
(3.38203e-06 -4.30262e-06 0)
(3.65561e-06 -4.17483e-06 0)
(3.9317e-06 -4.04593e-06 0)
(4.20984e-06 -3.91642e-06 0)
(4.4896e-06 -3.78671e-06 0)
(4.77057e-06 -3.65702e-06 0)
(5.05242e-06 -3.52746e-06 0)
(5.33478e-06 -3.39803e-06 0)
(5.61737e-06 -3.26865e-06 0)
(5.90008e-06 -3.13917e-06 0)
(6.18265e-06 -3.00941e-06 0)
(6.46498e-06 -2.87919e-06 0)
(6.74717e-06 -2.74835e-06 0)
(7.02904e-06 -2.61677e-06 0)
(7.31072e-06 -2.48444e-06 0)
(7.59229e-06 -2.35142e-06 0)
(7.87377e-06 -2.21793e-06 0)
(8.15538e-06 -2.08427e-06 0)
(2.73645e-06 -4.65703e-06 0)
(2.99946e-06 -4.53529e-06 0)
(3.26654e-06 -4.41091e-06 0)
(3.53704e-06 -4.28447e-06 0)
(3.81061e-06 -4.15671e-06 0)
(4.08676e-06 -4.02813e-06 0)
(4.36488e-06 -3.89913e-06 0)
(4.64447e-06 -3.76997e-06 0)
(4.92519e-06 -3.64077e-06 0)
(5.20665e-06 -3.51156e-06 0)
(5.48842e-06 -3.38227e-06 0)
(5.77033e-06 -3.2528e-06 0)
(6.05223e-06 -3.12299e-06 0)
(6.33394e-06 -2.99269e-06 0)
(6.61551e-06 -2.86177e-06 0)
(6.89691e-06 -2.73013e-06 0)
(7.17818e-06 -2.59777e-06 0)
(7.45945e-06 -2.46477e-06 0)
(7.74073e-06 -2.33133e-06 0)
(8.02217e-06 -2.19775e-06 0)
(2.0305e-07 -4.11936e-06 0)
(6.11965e-07 -4.05807e-06 0)
(1.02945e-06 -3.93802e-06 0)
(1.46028e-06 -3.76391e-06 0)
(1.90848e-06 -3.54244e-06 0)
(2.37658e-06 -3.28188e-06 0)
(2.86561e-06 -2.99169e-06 0)
(3.3749e-06 -2.68193e-06 0)
(3.90246e-06 -2.36277e-06 0)
(4.44539e-06 -2.04256e-06 0)
(1.97586e-07 -4.18242e-06 0)
(5.95132e-07 -4.12642e-06 0)
(9.99832e-07 -4.01668e-06 0)
(1.4157e-06 -3.85714e-06 0)
(1.84613e-06 -3.65351e-06 0)
(2.29333e-06 -3.41284e-06 0)
(2.7582e-06 -3.14316e-06 0)
(3.24014e-06 -2.85311e-06 0)
(3.73645e-06 -2.55203e-06 0)
(4.24505e-06 -2.24594e-06 0)
(1.92829e-07 -4.24703e-06 0)
(5.80438e-07 -4.19584e-06 0)
(9.73859e-07 -4.09542e-06 0)
(1.37634e-06 -3.94922e-06 0)
(1.79066e-06 -3.76216e-06 0)
(2.21872e-06 -3.54031e-06 0)
(2.66134e-06 -3.29057e-06 0)
(3.11849e-06 -3.02013e-06 0)
(3.58798e-06 -2.73716e-06 0)
(4.06852e-06 -2.4449e-06 0)
(1.88586e-07 -4.31336e-06 0)
(5.67374e-07 -4.26625e-06 0)
(9.50954e-07 -4.1738e-06 0)
(1.34198e-06 -4.03899e-06 0)
(1.74275e-06 -3.86614e-06 0)
(2.15477e-06 -3.66058e-06 0)
(2.57864e-06 -3.4284e-06 0)
(3.01423e-06 -3.17585e-06 0)
(3.45969e-06 -2.91058e-06 0)
(3.91375e-06 -2.63471e-06 0)
(1.84652e-07 -4.38134e-06 0)
(5.5528e-07 -4.33788e-06 0)
(9.29828e-07 -4.25253e-06 0)
(1.31046e-06 -4.12796e-06 0)
(1.69905e-06 -3.968e-06 0)
(2.09686e-06 -3.77732e-06 0)
(2.50436e-06 -3.56135e-06 0)
(2.9214e-06 -3.3254e-06 0)
(3.34668e-06 -3.07637e-06 0)
(3.77809e-06 -2.81615e-06 0)
(1.80971e-07 -4.45088e-06 0)
(5.44e-07 -4.41059e-06 0)
(9.10263e-07 -4.33141e-06 0)
(1.28152e-06 -4.21575e-06 0)
(1.65933e-06 -4.06705e-06 0)
(2.04464e-06 -3.88951e-06 0)
(2.43785e-06 -3.68804e-06 0)
(2.83859e-06 -3.46734e-06 0)
(3.24623e-06 -3.23363e-06 0)
(3.65798e-06 -2.98891e-06 0)
(1.77427e-07 -4.52189e-06 0)
(5.3317e-07 -4.48441e-06 0)
(8.91589e-07 -4.41073e-06 0)
(1.25414e-06 -4.30302e-06 0)
(1.6221e-06 -4.16442e-06 0)
(1.99622e-06 -3.9987e-06 0)
(2.37685e-06 -3.81031e-06 0)
(2.76342e-06 -3.60347e-06 0)
(3.15582e-06 -3.38371e-06 0)
(3.55069e-06 -3.15344e-06 0)
(1.73976e-07 -4.59418e-06 0)
(5.2266e-07 -4.55918e-06 0)
(8.73584e-07 -4.49035e-06 0)
(1.22795e-06 -4.38967e-06 0)
(1.58685e-06 -4.26002e-06 0)
(1.95083e-06 -4.10484e-06 0)
(2.32021e-06 -3.9282e-06 0)
(2.69425e-06 -3.734e-06 0)
(3.07326e-06 -3.52706e-06 0)
(3.45359e-06 -3.31023e-06 0)
(1.70554e-07 -4.66763e-06 0)
(5.1227e-07 -4.63484e-06 0)
(8.5589e-07 -4.57033e-06 0)
(1.20243e-06 -4.47594e-06 0)
(1.55283e-06 -4.3543e-06 0)
(1.90748e-06 -4.20859e-06 0)
(2.26669e-06 -4.04252e-06 0)
(2.6296e-06 -3.85974e-06 0)
(2.99676e-06 -3.66448e-06 0)
(3.36449e-06 -3.45991e-06 0)
(1.67124e-07 -4.74202e-06 0)
(5.01886e-07 -4.7112e-06 0)
(8.38303e-07 -4.65056e-06 0)
(1.17725e-06 -4.56178e-06 0)
(1.51956e-06 -4.44732e-06 0)
(1.86549e-06 -4.31011e-06 0)
(2.21536e-06 -4.15356e-06 0)
(2.56822e-06 -3.98112e-06 0)
(2.92476e-06 -3.79651e-06 0)
(3.28145e-06 -3.6031e-06 0)
(1.63642e-07 -4.81718e-06 0)
(4.91375e-07 -4.78813e-06 0)
(8.20586e-07 -4.73097e-06 0)
(1.15206e-06 -4.64725e-06 0)
(1.48653e-06 -4.53924e-06 0)
(1.82419e-06 -4.40969e-06 0)
(2.16533e-06 -4.26174e-06 0)
(2.509e-06 -4.09864e-06 0)
(2.85591e-06 -3.92371e-06 0)
(3.2028e-06 -3.7404e-06 0)
(1.60074e-07 -4.89287e-06 0)
(4.80627e-07 -4.86543e-06 0)
(8.02546e-07 -4.8114e-06 0)
(1.12655e-06 -4.73225e-06 0)
(1.45332e-06 -4.63008e-06 0)
(1.78298e-06 -4.50746e-06 0)
(2.11582e-06 -4.36728e-06 0)
(2.45094e-06 -4.21264e-06 0)
(2.78899e-06 -4.04652e-06 0)
(3.12706e-06 -3.87234e-06 0)
(1.5638e-07 -4.96889e-06 0)
(4.69524e-07 -4.94291e-06 0)
(7.83974e-07 -4.89174e-06 0)
(1.10041e-06 -4.81674e-06 0)
(1.41948e-06 -4.71987e-06 0)
(1.74128e-06 -4.60354e-06 0)
(2.06609e-06 -4.47042e-06 0)
(2.39309e-06 -4.32345e-06 0)
(2.72287e-06 -4.16533e-06 0)
(3.05286e-06 -3.99942e-06 0)
(1.52521e-07 -5.04495e-06 0)
(4.57948e-07 -5.0203e-06 0)
(7.64664e-07 -4.97173e-06 0)
(1.07334e-06 -4.90053e-06 0)
(1.38458e-06 -4.80851e-06 0)
(1.69851e-06 -4.69792e-06 0)
(2.01541e-06 -4.57125e-06 0)
(2.33457e-06 -4.43126e-06 0)
(2.65649e-06 -4.28044e-06 0)
(2.97894e-06 -4.12201e-06 0)
(1.48453e-07 -5.12081e-06 0)
(4.45759e-07 -5.09739e-06 0)
(7.44374e-07 -5.05124e-06 0)
(1.04497e-06 -4.98354e-06 0)
(1.34814e-06 -4.89598e-06 0)
(1.65407e-06 -4.79067e-06 0)
(1.96304e-06 -4.66991e-06 0)
(2.27447e-06 -4.53631e-06 0)
(2.58876e-06 -4.39216e-06 0)
(2.90402e-06 -4.24053e-06 0)
(1.44125e-07 -5.19602e-06 0)
(4.32809e-07 -5.17375e-06 0)
(7.22846e-07 -5.12984e-06 0)
(1.01493e-06 -5.0654e-06 0)
(1.30967e-06 -4.98199e-06 0)
(1.60732e-06 -4.88158e-06 0)
(1.90819e-06 -4.76629e-06 0)
(2.21184e-06 -4.63858e-06 0)
(2.51859e-06 -4.50058e-06 0)
(2.82685e-06 -4.35516e-06 0)
(1.39478e-07 -5.27046e-06 0)
(4.18905e-07 -5.24927e-06 0)
(6.99751e-07 -5.20748e-06 0)
(9.82747e-07 -5.1461e-06 0)
(1.26854e-06 -5.06659e-06 0)
(1.55749e-06 -4.97076e-06 0)
(1.84995e-06 -4.8606e-06 0)
(2.14561e-06 -4.73839e-06 0)
(2.44476e-06 -4.6061e-06 0)
(2.746e-06 -4.46644e-06 0)
(1.34447e-07 -5.34318e-06 0)
(4.0385e-07 -5.32302e-06 0)
(6.74753e-07 -5.28325e-06 0)
(9.47942e-07 -5.22481e-06 0)
(1.22414e-06 -5.14902e-06 0)
(1.50381e-06 -5.05756e-06 0)
(1.78738e-06 -4.95227e-06 0)
(2.07469e-06 -4.83528e-06 0)
(2.3659e-06 -4.7084e-06 0)
(2.66e-06 -4.57417e-06 0)
(1.28927e-07 -5.41464e-06 0)
(3.87331e-07 -5.39548e-06 0)
(6.47329e-07 -5.35768e-06 0)
(9.09788e-07 -5.30207e-06 0)
(1.17553e-06 -5.22988e-06 0)
(1.44517e-06 -5.14265e-06 0)
(1.71919e-06 -5.04206e-06 0)
(1.99756e-06 -4.93008e-06 0)
(2.28041e-06 -4.80839e-06 0)
(2.56707e-06 -4.67934e-06 0)
(1.22868e-07 -5.4823e-06 0)
(3.692e-07 -5.46414e-06 0)
(6.17232e-07 -5.42829e-06 0)
(8.67934e-07 -5.37551e-06 0)
(1.12227e-06 -5.30692e-06 0)
(1.38097e-06 -5.22392e-06 0)
(1.64462e-06 -5.12804e-06 0)
(1.91329e-06 -5.02111e-06 0)
(2.18723e-06 -4.90466e-06 0)
(2.46605e-06 -4.78085e-06 0)
)


// ************************************************************************* //
