/*--------------------------------*- C++ -*----------------------------------*\
| =========                 |                                                 |
| \\      /  F ield         | foam-extend: Open Source CFD                    |
|  \\    /   O peration     | Version:     4.1                                |
|   \\  /    A nd           | Web:         http://www.foam-extend.org         |
|    \\/     M anipulation  |                                                 |
\*---------------------------------------------------------------------------*/
FoamFile
{
    version     2.0;
    format      ascii;
    class       vectorField;
    location    "10";
    object      solidsCellD_iteration11;
}
// * * * * * * * * * * * * * * * * * * * * * * * * * * * * * * * * * * * * * //


1000
(
(5.22753e-06 -2.2418e-06 0)
(4.92924e-06 -2.08488e-06 0)
(4.73812e-06 -1.98478e-06 0)
(4.62781e-06 -1.93731e-06 0)
(4.57315e-06 -1.91987e-06 0)
(4.5591e-06 -1.92565e-06 0)
(4.57492e-06 -1.94654e-06 0)
(4.6132e-06 -1.97868e-06 0)
(4.66831e-06 -2.01841e-06 0)
(4.73662e-06 -2.06348e-06 0)
(4.72619e-06 -2.44866e-06 0)
(4.40854e-06 -2.33885e-06 0)
(4.20528e-06 -2.26851e-06 0)
(4.08606e-06 -2.24127e-06 0)
(4.02449e-06 -2.23723e-06 0)
(4.00425e-06 -2.25248e-06 0)
(4.01418e-06 -2.28014e-06 0)
(4.04634e-06 -2.31731e-06 0)
(4.09489e-06 -2.36123e-06 0)
(4.15532e-06 -2.40883e-06 0)
(4.20543e-06 -2.64471e-06 0)
(3.88095e-06 -2.58758e-06 0)
(3.67349e-06 -2.55057e-06 0)
(3.55044e-06 -2.54569e-06 0)
(3.48518e-06 -2.55628e-06 0)
(3.4607e-06 -2.58163e-06 0)
(3.4658e-06 -2.61634e-06 0)
(3.4925e-06 -2.65854e-06 0)
(3.53487e-06 -2.70647e-06 0)
(3.58846e-06 -2.75681e-06 0)
(3.66915e-06 -2.8265e-06 0)
(3.35142e-06 -2.82466e-06 0)
(3.14837e-06 -2.82264e-06 0)
(3.0269e-06 -2.84109e-06 0)
(2.9613e-06 -2.86688e-06 0)
(2.93464e-06 -2.90263e-06 0)
(2.93608e-06 -2.94443e-06 0)
(2.95785e-06 -2.99166e-06 0)
(2.99441e-06 -3.0434e-06 0)
(3.04117e-06 -3.09668e-06 0)
(3.12102e-06 -2.99046e-06 0)
(2.82353e-06 -3.04342e-06 0)
(2.63352e-06 -3.07611e-06 0)
(2.51921e-06 -3.11762e-06 0)
(2.45665e-06 -3.15835e-06 0)
(2.4298e-06 -3.20428e-06 0)
(2.42871e-06 -3.25297e-06 0)
(2.44611e-06 -3.30509e-06 0)
(2.47705e-06 -3.36047e-06 0)
(2.51692e-06 -3.4168e-06 0)
(2.56371e-06 -3.13324e-06 0)
(2.29963e-06 -3.23748e-06 0)
(2.13105e-06 -3.30267e-06 0)
(2.02912e-06 -3.36575e-06 0)
(1.97278e-06 -3.42043e-06 0)
(1.94769e-06 -3.47583e-06 0)
(1.94521e-06 -3.53087e-06 0)
(1.95875e-06 -3.58753e-06 0)
(1.98411e-06 -3.64624e-06 0)
(2.01692e-06 -3.70553e-06 0)
(1.99994e-06 -3.25162e-06 0)
(1.78095e-06 -3.40079e-06 0)
(1.6412e-06 -3.4945e-06 0)
(1.55641e-06 -3.57647e-06 0)
(1.50923e-06 -3.64334e-06 0)
(1.48772e-06 -3.70701e-06 0)
(1.48476e-06 -3.76757e-06 0)
(1.49484e-06 -3.82823e-06 0)
(1.51458e-06 -3.88983e-06 0)
(1.54018e-06 -3.95181e-06 0)
(1.43159e-06 -3.34295e-06 0)
(1.26755e-06 -3.52823e-06 0)
(1.16292e-06 -3.64481e-06 0)
(1.09933e-06 -3.7419e-06 0)
(1.06379e-06 -3.81857e-06 0)
(1.04731e-06 -3.88889e-06 0)
(1.0446e-06 -3.95392e-06 0)
(1.05151e-06 -4.01781e-06 0)
(1.06561e-06 -4.08172e-06 0)
(1.08394e-06 -4.14594e-06 0)
(8.6024e-07 -3.40505e-06 0)
(7.58685e-07 -3.61555e-06 0)
(6.93945e-07 -3.74811e-06 0)
(6.54486e-07 -3.85584e-06 0)
(6.32328e-07 -3.93936e-06 0)
(6.21937e-07 -4.0143e-06 0)
(6.20081e-07 -4.08246e-06 0)
(6.24136e-07 -4.14866e-06 0)
(6.32589e-07 -4.21422e-06 0)
(6.43583e-07 -4.28005e-06 0)
(2.87295e-07 -3.43632e-06 0)
(2.52892e-07 -3.65986e-06 0)
(2.30874e-07 -3.80068e-06 0)
(2.1745e-07 -3.91387e-06 0)
(2.09939e-07 -4.00094e-06 0)
(2.06363e-07 -4.07831e-06 0)
(2.0563e-07 -4.14807e-06 0)
(2.06933e-07 -4.21542e-06 0)
(2.09755e-07 -4.28183e-06 0)
(2.13409e-07 -4.34853e-06 0)
(8.16518e-06 -1.02351e-07 0)
(8.23963e-06 -7.37279e-08 0)
(8.28399e-06 -5.55462e-08 0)
(8.33159e-06 -4.48115e-08 0)
(8.38317e-06 -3.88005e-08 0)
(8.44655e-06 -3.59922e-08 0)
(8.52162e-06 -3.53369e-08 0)
(8.60934e-06 -3.60333e-08 0)
(8.70949e-06 -3.77919e-08 0)
(8.82071e-06 -3.9944e-08 0)
(8.1045e-06 -3.07055e-07 0)
(8.16657e-06 -2.22854e-07 0)
(8.20319e-06 -1.69435e-07 0)
(8.24557e-06 -1.38061e-07 0)
(8.29372e-06 -1.20628e-07 0)
(8.35462e-06 -1.12445e-07 0)
(8.42796e-06 -1.10631e-07 0)
(8.51426e-06 -1.12985e-07 0)
(8.61318e-06 -1.18316e-07 0)
(8.72311e-06 -1.24693e-07 0)
(7.98338e-06 -5.13468e-07 0)
(8.02181e-06 -3.78303e-07 0)
(8.04348e-06 -2.92621e-07 0)
(8.07595e-06 -2.42299e-07 0)
(8.11755e-06 -2.14493e-07 0)
(8.17385e-06 -2.01745e-07 0)
(8.24376e-06 -1.99178e-07 0)
(8.32731e-06 -2.03281e-07 0)
(8.4239e-06 -2.1214e-07 0)
(8.53131e-06 -2.22808e-07 0)
(7.80396e-06 -7.22503e-07 0)
(7.80878e-06 -5.43643e-07 0)
(7.80914e-06 -4.30357e-07 0)
(7.82751e-06 -3.64114e-07 0)
(7.85976e-06 -3.27675e-07 0)
(7.90948e-06 -3.11298e-07 0)
(7.97456e-06 -3.08436e-07 0)
(8.05422e-06 -3.14556e-07 0)
(8.1475e-06 -3.26968e-07 0)
(8.25139e-06 -3.4197e-07 0)
(7.56905e-06 -9.34687e-07 0)
(7.53234e-06 -7.21871e-07 0)
(7.50634e-06 -5.8707e-07 0)
(7.50724e-06 -5.08772e-07 0)
(7.52792e-06 -4.66057e-07 0)
(7.56945e-06 -4.47468e-07 0)
(7.62852e-06 -4.45073e-07 0)
(7.7033e-06 -4.53568e-07 0)
(7.79245e-06 -4.69536e-07 0)
(7.89208e-06 -4.88853e-07 0)
(7.28221e-06 -1.15014e-06 0)
(7.19848e-06 -9.14935e-07 0)
(7.14274e-06 -7.65874e-07 0)
(7.12388e-06 -6.80089e-07 0)
(7.13143e-06 -6.33907e-07 0)
(7.16361e-06 -6.14785e-07 0)
(7.21583e-06 -6.1374e-07 0)
(7.28503e-06 -6.24984e-07 0)
(7.3694e-06 -6.4453e-07 0)
(7.46422e-06 -6.68143e-07 0)
(6.94772e-06 -1.36844e-06 0)
(6.81432e-06 -1.12363e-06 0)
(6.72715e-06 -9.68359e-07 0)
(6.68741e-06 -8.80156e-07 0)
(6.68103e-06 -8.33568e-07 0)
(6.70326e-06 -8.15759e-07 0)
(6.7481e-06 -8.1706e-07 0)
(6.8113e-06 -8.31486e-07 0)
(6.89043e-06 -8.5469e-07 0)
(6.98015e-06 -8.82541e-07 0)
(6.57009e-06 -1.58857e-06 0)
(6.38746e-06 -1.34742e-06 0)
(6.26918e-06 -1.19431e-06 0)
(6.20863e-06 -1.10896e-06 0)
(6.18835e-06 -1.06517e-06 0)
(6.20052e-06 -1.0506e-06 0)
(6.23774e-06 -1.0553e-06 0)
(6.2947e-06 -1.07345e-06 0)
(6.36824e-06 -1.10042e-06 0)
(6.45272e-06 -1.13254e-06 0)
(6.15423e-06 -1.80899e-06 0)
(5.92585e-06 -1.58445e-06 0)
(5.7787e-06 -1.44177e-06 0)
(5.69869e-06 -1.36446e-06 0)
(5.66527e-06 -1.32664e-06 0)
(5.66771e-06 -1.31718e-06 0)
(5.69736e-06 -1.32636e-06 0)
(5.74805e-06 -1.34868e-06 0)
(5.81573e-06 -1.37977e-06 0)
(5.89504e-06 -1.41595e-06 0)
(5.7051e-06 -2.02762e-06 0)
(5.43735e-06 -1.83168e-06 0)
(5.26535e-06 -1.707e-06 0)
(5.16839e-06 -1.64257e-06 0)
(5.12327e-06 -1.61368e-06 0)
(5.11684e-06 -1.6111e-06 0)
(5.13938e-06 -1.62573e-06 0)
(5.18385e-06 -1.65289e-06 0)
(5.24568e-06 -1.68822e-06 0)
(5.31956e-06 -1.72995e-06 0)
(8.94336e-06 -4.20658e-08 0)
(9.07711e-06 -4.24604e-08 0)
(9.21941e-06 -4.29571e-08 0)
(9.36977e-06 -4.32939e-08 0)
(9.52724e-06 -4.34289e-08 0)
(9.69121e-06 -4.33434e-08 0)
(9.86093e-06 -4.297e-08 0)
(1.00358e-05 -4.2336e-08 0)
(1.02151e-05 -4.14385e-08 0)
(1.03985e-05 -4.02343e-08 0)
(1.05853e-05 -3.86803e-08 0)
(1.07749e-05 -3.67565e-08 0)
(1.09668e-05 -3.44384e-08 0)
(1.11604e-05 -3.17009e-08 0)
(1.13553e-05 -2.84998e-08 0)
(1.15506e-05 -2.47684e-08 0)
(1.1746e-05 -2.042e-08 0)
(1.19401e-05 -1.53716e-08 0)
(1.21332e-05 -9.5038e-09 0)
(1.23221e-05 -2.77248e-09 0)
(8.85011e-06 -1.30579e-07 0)
(8.99168e-06 -1.3117e-07 0)
(9.14097e-06 -1.3212e-07 0)
(9.29741e-06 -1.32681e-07 0)
(9.46031e-06 -1.32658e-07 0)
(9.62904e-06 -1.32067e-07 0)
(9.80306e-06 -1.30754e-07 0)
(9.98178e-06 -1.28712e-07 0)
(1.01647e-05 -1.25833e-07 0)
(1.03513e-05 -1.22024e-07 0)
(1.0541e-05 -1.17221e-07 0)
(1.07334e-05 -1.11383e-07 0)
(1.09279e-05 -1.04407e-07 0)
(1.1124e-05 -9.61704e-08 0)
(1.13211e-05 -8.65157e-08 0)
(1.15186e-05 -7.52671e-08 0)
(1.17161e-05 -6.2194e-08 0)
(1.19123e-05 -4.70596e-08 0)
(1.21074e-05 -2.94922e-08 0)
(1.22983e-05 -9.33928e-09 0)
(8.66679e-06 -2.31164e-07 0)
(8.82372e-06 -2.30217e-07 0)
(8.98673e-06 -2.30026e-07 0)
(9.155e-06 -2.29608e-07 0)
(9.32848e-06 -2.28469e-07 0)
(9.50662e-06 -2.26622e-07 0)
(9.68913e-06 -2.23716e-07 0)
(9.87545e-06 -2.19701e-07 0)
(1.00653e-05 -2.14384e-07 0)
(1.02582e-05 -2.07644e-07 0)
(1.04537e-05 -1.99373e-07 0)
(1.06515e-05 -1.89453e-07 0)
(1.0851e-05 -1.77677e-07 0)
(1.10518e-05 -1.63823e-07 0)
(1.12535e-05 -1.47635e-07 0)
(1.14553e-05 -1.28832e-07 0)
(1.16569e-05 -1.07026e-07 0)
(1.18571e-05 -8.18229e-08 0)
(1.20562e-05 -5.25933e-08 0)
(1.2251e-05 -1.90636e-08 0)
(8.39895e-06 -3.50682e-07 0)
(8.57787e-06 -3.45467e-07 0)
(8.7607e-06 -3.41642e-07 0)
(8.9462e-06 -3.38349e-07 0)
(9.13515e-06 -3.34508e-07 0)
(9.32697e-06 -3.30143e-07 0)
(9.52182e-06 -3.24609e-07 0)
(9.71927e-06 -3.17812e-07 0)
(9.91927e-06 -3.09425e-07 0)
(1.01215e-05 -2.99266e-07 0)
(1.03256e-05 -2.87128e-07 0)
(1.05313e-05 -2.72795e-07 0)
(1.07382e-05 -2.55964e-07 0)
(1.0946e-05 -2.36327e-07 0)
(1.11542e-05 -2.13532e-07 0)
(1.13623e-05 -1.87155e-07 0)
(1.157e-05 -1.56647e-07 0)
(1.17761e-05 -1.21432e-07 0)
(1.19809e-05 -8.06098e-08 0)
(1.21816e-05 -3.38085e-08 0)
(8.05466e-06 -4.95211e-07 0)
(8.26121e-06 -4.82231e-07 0)
(8.46918e-06 -4.71597e-07 0)
(8.67651e-06 -4.62989e-07 0)
(8.88519e-06 -4.54375e-07 0)
(9.09454e-06 -4.45817e-07 0)
(9.30526e-06 -4.36294e-07 0)
(9.51707e-06 -4.25629e-07 0)
(9.73014e-06 -4.133e-07 0)
(9.9443e-06 -3.99009e-07 0)
(1.01595e-05 -3.82444e-07 0)
(1.03754e-05 -3.63276e-07 0)
(1.0592e-05 -3.41089e-07 0)
(1.08087e-05 -3.15461e-07 0)
(1.10255e-05 -2.85921e-07 0)
(1.12417e-05 -2.51896e-07 0)
(1.14572e-05 -2.12674e-07 0)
(1.16709e-05 -1.67507e-07 0)
(1.18833e-05 -1.15203e-07 0)
(1.20914e-05 -5.52895e-08 0)
(7.64373e-06 -6.6912e-07 0)
(7.88204e-06 -6.44326e-07 0)
(8.11943e-06 -6.23112e-07 0)
(8.35248e-06 -6.06204e-07 0)
(8.58458e-06 -5.90351e-07 0)
(8.81483e-06 -5.75584e-07 0)
(9.04447e-06 -5.60438e-07 0)
(9.27345e-06 -5.44552e-07 0)
(9.50223e-06 -5.27226e-07 0)
(9.73079e-06 -5.07995e-07 0)
(9.95927e-06 -4.86389e-07 0)
(1.01876e-05 -4.61927e-07 0)
(1.04157e-05 -4.3405e-07 0)
(1.06433e-05 -4.02213e-07 0)
(1.08703e-05 -3.65795e-07 0)
(1.10962e-05 -3.24089e-07 0)
(1.13212e-05 -2.76196e-07 0)
(1.1544e-05 -2.21201e-07 0)
(1.17653e-05 -1.57622e-07 0)
(1.19824e-05 -8.48186e-08 0)
(7.17765e-06 -8.75136e-07 0)
(7.45047e-06 -8.34393e-07 0)
(7.7203e-06 -7.98836e-07 0)
(7.98195e-06 -7.70437e-07 0)
(8.24018e-06 -7.44756e-07 0)
(8.49399e-06 -7.21548e-07 0)
(8.74505e-06 -6.99037e-07 0)
(8.99355e-06 -6.7649e-07 0)
(9.24022e-06 -6.53007e-07 0)
(9.48527e-06 -6.27895e-07 0)
(9.729e-06 -6.00492e-07 0)
(9.97146e-06 -5.7013e-07 0)
(1.02127e-05 -5.36108e-07 0)
(1.04528e-05 -4.97742e-07 0)
(1.06915e-05 -4.54259e-07 0)
(1.09287e-05 -4.04801e-07 0)
(1.11644e-05 -3.48273e-07 0)
(1.13977e-05 -2.83571e-07 0)
(1.16293e-05 -2.08935e-07 0)
(1.18566e-05 -1.23545e-07 0)
(6.668e-06 -1.11383e-06 0)
(6.97639e-06 -1.05262e-06 0)
(7.28024e-06 -9.98976e-07 0)
(7.57252e-06 -9.5553e-07 0)
(7.85893e-06 -9.17289e-07 0)
(8.1384e-06 -8.83259e-07 0)
(8.41299e-06 -8.51489e-07 0)
(8.68306e-06 -8.2076e-07 0)
(8.9495e-06 -7.89926e-07 0)
(9.21278e-06 -7.58005e-07 0)
(9.47335e-06 -7.24098e-07 0)
(9.73147e-06 -6.87332e-07 0)
(9.98736e-06 -6.46836e-07 0)
(1.02411e-05 -6.01764e-07 0)
(1.04929e-05 -5.51168e-07 0)
(1.07425e-05 -4.94019e-07 0)
(1.09901e-05 -4.29016e-07 0)
(1.1235e-05 -3.54857e-07 0)
(1.14779e-05 -2.69499e-07 0)
(1.17166e-05 -1.71944e-07 0)
(6.12733e-06 -1.38472e-06 0)
(6.47134e-06 -1.29926e-06 0)
(6.8092e-06 -1.22514e-06 0)
(7.13314e-06 -1.16362e-06 0)
(7.44859e-06 -1.11043e-06 0)
(7.75502e-06 -1.06342e-06 0)
(8.05433e-06 -1.02051e-06 0)
(8.34725e-06 -9.79992e-07 0)
(8.63477e-06 -9.40429e-07 0)
(8.91757e-06 -9.00538e-07 0)
(9.19625e-06 -8.59173e-07 0)
(9.47123e-06 -8.15251e-07 0)
(9.74292e-06 -7.67716e-07 0)
(1.00116e-05 -7.15537e-07 0)
(1.02774e-05 -6.57572e-07 0)
(1.05404e-05 -5.92607e-07 0)
(1.08009e-05 -5.19134e-07 0)
(1.10582e-05 -4.35656e-07 0)
(1.13134e-05 -3.39888e-07 0)
(1.15644e-05 -2.30665e-07 0)
(5.5658e-06 -1.68295e-06 0)
(5.94532e-06 -1.56772e-06 0)
(6.31566e-06 -1.47064e-06 0)
(6.672e-06 -1.38815e-06 0)
(7.01713e-06 -1.31754e-06 0)
(7.35165e-06 -1.25559e-06 0)
(7.67684e-06 -1.19995e-06 0)
(7.99374e-06 -1.14846e-06 0)
(8.30342e-06 -1.0993e-06 0)
(8.60672e-06 -1.05084e-06 0)
(8.9044e-06 -1.00165e-06 0)
(9.19708e-06 -9.50374e-07 0)
(9.48532e-06 -8.95745e-07 0)
(9.76952e-06 -8.36518e-07 0)
(1.005e-05 -7.71353e-07 0)
(1.0327e-05 -6.98844e-07 0)
(1.06008e-05 -6.17292e-07 0)
(1.08712e-05 -5.24993e-07 0)
(1.11391e-05 -4.19442e-07 0)
(1.1403e-05 -2.99251e-07 0)
(5.15087e-06 -1.96724e-06 0)
(5.55327e-06 -1.82835e-06 0)
(5.94252e-06 -1.71437e-06 0)
(6.31838e-06 -1.61541e-06 0)
(6.68192e-06 -1.52967e-06 0)
(7.03406e-06 -1.45385e-06 0)
(7.37594e-06 -1.38554e-06 0)
(7.70855e-06 -1.3225e-06 0)
(8.03292e-06 -1.26279e-06 0)
(8.34988e-06 -1.20463e-06 0)
(8.66024e-06 -1.14643e-06 0)
(8.96468e-06 -1.08671e-06 0)
(9.26382e-06 -1.02405e-06 0)
(9.55813e-06 -9.57066e-07 0)
(9.84808e-06 -8.84305e-07 0)
(1.01339e-05 -8.04233e-07 0)
(1.04161e-05 -7.15091e-07 0)
(1.06947e-05 -6.15061e-07 0)
(1.09706e-05 -5.01604e-07 0)
(1.12429e-05 -3.73249e-07 0)
(4.91266e-06 -2.19726e-06 0)
(5.31775e-06 -2.0531e-06 0)
(5.71015e-06 -1.92975e-06 0)
(6.09091e-06 -1.8208e-06 0)
(6.46013e-06 -1.72453e-06 0)
(6.81842e-06 -1.63822e-06 0)
(7.16659e-06 -1.55964e-06 0)
(7.50541e-06 -1.48669e-06 0)
(7.83573e-06 -1.41747e-06 0)
(8.15827e-06 -1.35024e-06 0)
(8.4738e-06 -1.28343e-06 0)
(8.78295e-06 -1.21553e-06 0)
(9.08635e-06 -1.14509e-06 0)
(9.3845e-06 -1.0707e-06 0)
(9.67787e-06 -9.9088e-07 0)
(9.96685e-06 -9.0409e-07 0)
(1.02519e-05 -8.08622e-07 0)
(1.05333e-05 -7.02684e-07 0)
(1.0812e-05 -5.83861e-07 0)
(1.10875e-05 -4.50752e-07 0)
(4.70799e-06 -2.41856e-06 0)
(5.10924e-06 -2.27095e-06 0)
(5.50099e-06 -2.1414e-06 0)
(5.88253e-06 -2.02476e-06 0)
(6.2539e-06 -1.91978e-06 0)
(6.61516e-06 -1.82431e-06 0)
(6.96686e-06 -1.73638e-06 0)
(7.3095e-06 -1.65415e-06 0)
(7.64371e-06 -1.57585e-06 0)
(7.97012e-06 -1.49985e-06 0)
(8.28937e-06 -1.42461e-06 0)
(8.60205e-06 -1.34865e-06 0)
(8.90874e-06 -1.27054e-06 0)
(9.20994e-06 -1.18886e-06 0)
(9.50612e-06 -1.10216e-06 0)
(9.79777e-06 -1.00891e-06 0)
(1.00854e-05 -9.07476e-07 0)
(1.03694e-05 -7.96153e-07 0)
(1.06506e-05 -6.72679e-07 0)
(1.09291e-05 -5.35767e-07 0)
(4.52707e-06 -2.63195e-06 0)
(4.92261e-06 -2.48256e-06 0)
(5.31098e-06 -2.3483e-06 0)
(5.69063e-06 -2.22532e-06 0)
(6.06153e-06 -2.11285e-06 0)
(6.42334e-06 -2.00923e-06 0)
(6.77639e-06 -1.91283e-06 0)
(7.12089e-06 -1.82203e-06 0)
(7.45731e-06 -1.73524e-06 0)
(7.78613e-06 -1.65095e-06 0)
(8.10787e-06 -1.56769e-06 0)
(8.42304e-06 -1.48406e-06 0)
(8.73216e-06 -1.39862e-06 0)
(9.03571e-06 -1.31002e-06 0)
(9.33417e-06 -1.21684e-06 0)
(9.62805e-06 -1.1176e-06 0)
(9.91789e-06 -1.01078e-06 0)
(1.02042e-05 -8.9475e-07 0)
(1.04878e-05 -7.67454e-07 0)
(1.0769e-05 -6.27751e-07 0)
(4.36733e-06 -2.83638e-06 0)
(4.7555e-06 -2.68644e-06 0)
(5.13853e-06 -2.54907e-06 0)
(5.51423e-06 -2.42129e-06 0)
(5.88262e-06 -2.30275e-06 0)
(6.24303e-06 -2.19221e-06 0)
(6.59557e-06 -2.08837e-06 0)
(6.94027e-06 -1.98986e-06 0)
(7.27741e-06 -1.89529e-06 0)
(7.60733e-06 -1.80329e-06 0)
(7.93043e-06 -1.71251e-06 0)
(8.24711e-06 -1.62162e-06 0)
(8.55785e-06 -1.52925e-06 0)
(8.86309e-06 -1.43411e-06 0)
(9.16329e-06 -1.33485e-06 0)
(9.45897e-06 -1.23008e-06 0)
(9.75067e-06 -1.11836e-06 0)
(1.0039e-05 -9.98219e-07 0)
(1.03247e-05 -8.67804e-07 0)
(1.06084e-05 -7.26156e-07 0)
(4.22509e-06 -3.03197e-06 0)
(4.60502e-06 -2.88244e-06 0)
(4.98148e-06 -2.74309e-06 0)
(5.35183e-06 -2.6117e-06 0)
(5.71621e-06 -2.48826e-06 0)
(6.0737e-06 -2.37188e-06 0)
(6.42427e-06 -2.26157e-06 0)
(6.76777e-06 -2.15623e-06 0)
(7.10437e-06 -2.05464e-06 0)
(7.43425e-06 -1.95562e-06 0)
(7.7577e-06 -1.85792e-06 0)
(8.07503e-06 -1.76031e-06 0)
(8.38665e-06 -1.66152e-06 0)
(8.69296e-06 -1.56034e-06 0)
(8.99438e-06 -1.45549e-06 0)
(9.29144e-06 -1.34569e-06 0)
(9.58467e-06 -1.22964e-06 0)
(9.87467e-06 -1.10599e-06 0)
(1.01623e-05 -9.73139e-07 0)
(1.04483e-05 -8.30293e-07 0)
(4.09753e-06 -3.21896e-06 0)
(4.46874e-06 -3.07052e-06 0)
(4.83778e-06 -2.93011e-06 0)
(5.20185e-06 -2.79614e-06 0)
(5.56113e-06 -2.66886e-06 0)
(5.91455e-06 -2.54766e-06 0)
(6.26201e-06 -2.43185e-06 0)
(6.60323e-06 -2.32054e-06 0)
(6.93825e-06 -2.21274e-06 0)
(7.26713e-06 -2.1074e-06 0)
(7.59007e-06 -2.00342e-06 0)
(7.9073e-06 -1.89967e-06 0)
(8.21914e-06 -1.795e-06 0)
(8.52595e-06 -1.68829e-06 0)
(8.82813e-06 -1.57836e-06 0)
(9.12618e-06 -1.46406e-06 0)
(9.42061e-06 -1.3442e-06 0)
(9.71206e-06 -1.2176e-06 0)
(1.00014e-05 -1.08292e-06 0)
(1.02893e-05 -9.39468e-07 0)
(3.98197e-06 -3.39776e-06 0)
(4.34431e-06 -3.25086e-06 0)
(4.70546e-06 -3.11008e-06 0)
(5.06266e-06 -2.97435e-06 0)
(5.41609e-06 -2.84411e-06 0)
(5.76463e-06 -2.71899e-06 0)
(6.10813e-06 -2.59855e-06 0)
(6.44621e-06 -2.48212e-06 0)
(6.77882e-06 -2.36888e-06 0)
(7.10592e-06 -2.25793e-06 0)
(7.42764e-06 -2.14834e-06 0)
(7.74411e-06 -2.03908e-06 0)
(8.05562e-06 -1.9291e-06 0)
(8.36246e-06 -1.81743e-06 0)
(8.665e-06 -1.70295e-06 0)
(8.96369e-06 -1.58467e-06 0)
(9.25903e-06 -1.46154e-06 0)
(9.55167e-06 -1.33253e-06 0)
(9.84235e-06 -1.19653e-06 0)
(1.01319e-05 -1.05297e-06 0)
(3.87604e-06 -3.5689e-06 0)
(4.22953e-06 -3.42382e-06 0)
(4.5826e-06 -3.28318e-06 0)
(4.93261e-06 -3.14633e-06 0)
(5.27972e-06 -3.01386e-06 0)
(5.62283e-06 -2.88562e-06 0)
(5.96177e-06 -2.76135e-06 0)
(6.29609e-06 -2.64058e-06 0)
(6.62566e-06 -2.52264e-06 0)
(6.95039e-06 -2.40681e-06 0)
(7.27032e-06 -2.29226e-06 0)
(7.58554e-06 -2.17812e-06 0)
(7.89627e-06 -2.06344e-06 0)
(8.20274e-06 -1.94735e-06 0)
(8.50528e-06 -1.82888e-06 0)
(8.80433e-06 -1.70714e-06 0)
(9.10032e-06 -1.58124e-06 0)
(9.39391e-06 -1.4503e-06 0)
(9.6857e-06 -1.31341e-06 0)
(9.97666e-06 -1.17013e-06 0)
(3.77765e-06 -3.73293e-06 0)
(4.12245e-06 -3.58981e-06 0)
(4.46743e-06 -3.44966e-06 0)
(4.8101e-06 -3.31219e-06 0)
(5.15066e-06 -3.1781e-06 0)
(5.48805e-06 -3.0474e-06 0)
(5.82204e-06 -2.92001e-06 0)
(6.15217e-06 -2.79561e-06 0)
(6.47826e-06 -2.67369e-06 0)
(6.80017e-06 -2.55365e-06 0)
(7.1179e-06 -2.43482e-06 0)
(7.43147e-06 -2.31642e-06 0)
(7.74106e-06 -2.19763e-06 0)
(8.04685e-06 -2.0777e-06 0)
(8.34911e-06 -1.95576e-06 0)
(8.64825e-06 -1.83107e-06 0)
(8.94466e-06 -1.70287e-06 0)
(9.23894e-06 -1.57041e-06 0)
(9.53164e-06 -1.43299e-06 0)
(9.82374e-06 -1.29033e-06 0)
(3.68493e-06 -3.89043e-06 0)
(4.02128e-06 -3.74928e-06 0)
(4.3583e-06 -3.60985e-06 0)
(4.69367e-06 -3.47215e-06 0)
(5.02762e-06 -3.33694e-06 0)
(5.35912e-06 -3.20436e-06 0)
(5.68794e-06 -3.07447e-06 0)
(6.01362e-06 -2.9471e-06 0)
(6.33595e-06 -2.82185e-06 0)
(6.65476e-06 -2.69825e-06 0)
(6.96999e-06 -2.57576e-06 0)
(7.28163e-06 -2.45371e-06 0)
(7.58981e-06 -2.33139e-06 0)
(7.89467e-06 -2.20817e-06 0)
(8.19644e-06 -2.08329e-06 0)
(8.49547e-06 -1.95612e-06 0)
(8.79208e-06 -1.82604e-06 0)
(9.08685e-06 -1.69242e-06 0)
(9.38027e-06 -1.55476e-06 0)
(9.67324e-06 -1.41292e-06 0)
(3.59622e-06 -4.04193e-06 0)
(3.92444e-06 -3.90271e-06 0)
(4.25369e-06 -3.76414e-06 0)
(4.58192e-06 -3.62649e-06 0)
(4.90931e-06 -3.49056e-06 0)
(5.2349e-06 -3.35659e-06 0)
(5.55848e-06 -3.22475e-06 0)
(5.8796e-06 -3.09498e-06 0)
(6.19801e-06 -2.96701e-06 0)
(6.51355e-06 -2.84047e-06 0)
(6.82612e-06 -2.71492e-06 0)
(7.13566e-06 -2.5898e-06 0)
(7.44227e-06 -2.4645e-06 0)
(7.74604e-06 -2.33851e-06 0)
(8.04715e-06 -2.21118e-06 0)
(8.3459e-06 -2.08197e-06 0)
(8.64256e-06 -1.95038e-06 0)
(8.93765e-06 -1.81591e-06 0)
(9.23161e-06 -1.67827e-06 0)
(9.52525e-06 -1.53735e-06 0)
(3.51001e-06 -4.18794e-06 0)
(3.83044e-06 -4.05054e-06 0)
(4.15221e-06 -3.91293e-06 0)
(4.47351e-06 -3.77555e-06 0)
(4.79447e-06 -3.63922e-06 0)
(5.11426e-06 -3.50426e-06 0)
(5.43265e-06 -3.37096e-06 0)
(5.74921e-06 -3.23932e-06 0)
(6.06371e-06 -3.10918e-06 0)
(6.37594e-06 -2.98025e-06 0)
(6.68578e-06 -2.85221e-06 0)
(6.99315e-06 -2.72457e-06 0)
(7.29809e-06 -2.59684e-06 0)
(7.60066e-06 -2.46858e-06 0)
(7.901e-06 -2.33924e-06 0)
(8.19935e-06 -2.20838e-06 0)
(8.49591e-06 -2.0756e-06 0)
(8.79119e-06 -1.94055e-06 0)
(9.08549e-06 -1.80309e-06 0)
(9.37963e-06 -1.66316e-06 0)
(3.42492e-06 -4.32891e-06 0)
(3.7379e-06 -4.19324e-06 0)
(4.0525e-06 -4.0566e-06 0)
(4.36712e-06 -3.91964e-06 0)
(4.6819e-06 -3.78318e-06 0)
(4.99609e-06 -3.6476e-06 0)
(5.30946e-06 -3.51326e-06 0)
(5.6216e-06 -3.38023e-06 0)
(5.93227e-06 -3.24843e-06 0)
(6.24124e-06 -3.11765e-06 0)
(6.54837e-06 -2.98763e-06 0)
(6.85355e-06 -2.85798e-06 0)
(7.15681e-06 -2.72829e-06 0)
(7.45814e-06 -2.5982e-06 0)
(7.75764e-06 -2.46725e-06 0)
(8.0555e-06 -2.33508e-06 0)
(8.35189e-06 -2.20142e-06 0)
(8.64724e-06 -2.06601e-06 0)
(8.94176e-06 -1.9288e-06 0)
(9.23621e-06 -1.78988e-06 0)
(3.33949e-06 -4.46528e-06 0)
(3.6454e-06 -4.3312e-06 0)
(3.95317e-06 -4.19557e-06 0)
(4.26146e-06 -4.05916e-06 0)
(4.57039e-06 -3.9228e-06 0)
(4.87928e-06 -3.78691e-06 0)
(5.1879e-06 -3.65192e-06 0)
(5.49584e-06 -3.51792e-06 0)
(5.80286e-06 -3.3849e-06 0)
(6.10873e-06 -3.25272e-06 0)
(6.41328e-06 -3.1212e-06 0)
(6.71638e-06 -2.99002e-06 0)
(7.018e-06 -2.85882e-06 0)
(7.31812e-06 -2.72732e-06 0)
(7.61677e-06 -2.59512e-06 0)
(7.91411e-06 -2.46196e-06 0)
(8.21028e-06 -2.32765e-06 0)
(8.50558e-06 -2.19204e-06 0)
(8.80026e-06 -2.05516e-06 0)
(9.09488e-06 -1.91717e-06 0)
(3.25238e-06 -4.59739e-06 0)
(3.55156e-06 -4.46494e-06 0)
(3.85282e-06 -4.33019e-06 0)
(4.15525e-06 -4.19443e-06 0)
(4.45875e-06 -4.0584e-06 0)
(4.76275e-06 -3.9225e-06 0)
(5.06699e-06 -3.78718e-06 0)
(5.37107e-06 -3.65261e-06 0)
(5.67473e-06 -3.51879e-06 0)
(5.97774e-06 -3.38564e-06 0)
(6.2799e-06 -3.25306e-06 0)
(6.58106e-06 -3.12075e-06 0)
(6.88115e-06 -2.98844e-06 0)
(7.18011e-06 -2.85588e-06 0)
(7.47794e-06 -2.72275e-06 0)
(7.77478e-06 -2.58886e-06 0)
(8.07068e-06 -2.45411e-06 0)
(8.3659e-06 -2.31838e-06 0)
(8.66063e-06 -2.18185e-06 0)
(8.95534e-06 -2.04473e-06 0)
(3.16218e-06 -4.72578e-06 0)
(3.45479e-06 -4.59446e-06 0)
(3.74988e-06 -4.4609e-06 0)
(4.04716e-06 -4.32606e-06 0)
(4.34573e-06 -4.19052e-06 0)
(4.64539e-06 -4.05484e-06 0)
(4.94571e-06 -3.91948e-06 0)
(5.24638e-06 -3.78465e-06 0)
(5.54708e-06 -3.65038e-06 0)
(5.84757e-06 -3.51664e-06 0)
(6.14763e-06 -3.38336e-06 0)
(6.44708e-06 -3.2503e-06 0)
(6.7458e-06 -3.1172e-06 0)
(7.04372e-06 -2.9839e-06 0)
(7.34081e-06 -2.85012e-06 0)
(7.63719e-06 -2.71573e-06 0)
(7.93282e-06 -2.58066e-06 0)
(8.22794e-06 -2.44488e-06 0)
(8.52261e-06 -2.3087e-06 0)
(8.81736e-06 -2.17229e-06 0)
(3.06675e-06 -4.8503e-06 0)
(3.35376e-06 -4.7203e-06 0)
(3.6438e-06 -4.58818e-06 0)
(3.93611e-06 -4.45429e-06 0)
(4.23041e-06 -4.31945e-06 0)
(4.52624e-06 -4.18425e-06 0)
(4.82324e-06 -4.04912e-06 0)
(5.12102e-06 -3.91434e-06 0)
(5.41926e-06 -3.77995e-06 0)
(5.71767e-06 -3.64595e-06 0)
(6.01599e-06 -3.51229e-06 0)
(6.31398e-06 -3.37878e-06 0)
(6.61155e-06 -3.24521e-06 0)
(6.90861e-06 -3.11142e-06 0)
(7.20508e-06 -2.97721e-06 0)
(7.50099e-06 -2.84249e-06 0)
(7.79633e-06 -2.70721e-06 0)
(8.09137e-06 -2.57143e-06 0)
(8.38604e-06 -2.43552e-06 0)
(8.68067e-06 -2.29972e-06 0)
(2.96482e-06 -4.9723e-06 0)
(3.24671e-06 -4.84388e-06 0)
(3.53215e-06 -4.71287e-06 0)
(3.82042e-06 -4.58002e-06 0)
(4.11124e-06 -4.44605e-06 0)
(4.40407e-06 -4.3115e-06 0)
(4.69852e-06 -4.17683e-06 0)
(4.99416e-06 -4.04231e-06 0)
(5.29059e-06 -3.90803e-06 0)
(5.58744e-06 -3.77401e-06 0)
(5.88445e-06 -3.64021e-06 0)
(6.18139e-06 -3.50646e-06 0)
(6.4781e-06 -3.37261e-06 0)
(6.77442e-06 -3.23857e-06 0)
(7.07032e-06 -3.10409e-06 0)
(7.36586e-06 -2.96911e-06 0)
(7.661e-06 -2.83372e-06 0)
(7.95586e-06 -2.69795e-06 0)
(8.2505e-06 -2.56217e-06 0)
(8.54509e-06 -2.42681e-06 0)
(2.85508e-06 -5.09077e-06 0)
(3.1325e-06 -4.96411e-06 0)
(3.41411e-06 -4.83473e-06 0)
(3.69926e-06 -4.70325e-06 0)
(3.98751e-06 -4.57042e-06 0)
(4.2783e-06 -4.43678e-06 0)
(4.57111e-06 -4.30283e-06 0)
(4.8654e-06 -4.16883e-06 0)
(5.16072e-06 -4.03487e-06 0)
(5.45669e-06 -3.90099e-06 0)
(5.75294e-06 -3.76724e-06 0)
(6.04917e-06 -3.63348e-06 0)
(6.34525e-06 -3.4995e-06 0)
(6.64105e-06 -3.36528e-06 0)
(6.93647e-06 -3.23069e-06 0)
(7.23161e-06 -3.09558e-06 0)
(7.52651e-06 -2.96011e-06 0)
(7.82121e-06 -2.8243e-06 0)
(8.11584e-06 -2.68858e-06 0)
(8.4104e-06 -2.55341e-06 0)
(2.12541e-07 -4.41687e-06 0)
(6.40614e-07 -4.35164e-06 0)
(1.07767e-06 -4.2238e-06 0)
(1.52879e-06 -4.03847e-06 0)
(1.99809e-06 -3.80272e-06 0)
(2.48815e-06 -3.52543e-06 0)
(2.99998e-06 -3.21668e-06 0)
(3.53268e-06 -2.8871e-06 0)
(4.0843e-06 -2.54741e-06 0)
(4.65055e-06 -2.20617e-06 0)
(2.06486e-07 -4.48786e-06 0)
(6.22006e-07 -4.42827e-06 0)
(1.045e-06 -4.31137e-06 0)
(1.47978e-06 -4.14154e-06 0)
(1.92983e-06 -3.92478e-06 0)
(2.39735e-06 -3.66861e-06 0)
(2.88327e-06 -3.38163e-06 0)
(3.38667e-06 -3.07303e-06 0)
(3.90509e-06 -2.75255e-06 0)
(4.43526e-06 -2.42723e-06 0)
(2.01139e-07 -4.56057e-06 0)
(6.0554e-07 -4.50609e-06 0)
(1.01605e-06 -4.39911e-06 0)
(1.43612e-06 -4.24342e-06 0)
(1.86871e-06 -4.04424e-06 0)
(2.31564e-06 -3.80806e-06 0)
(2.77786e-06 -3.54225e-06 0)
(3.25511e-06 -3.25454e-06 0)
(3.74555e-06 -2.95338e-06 0)
(4.24713e-06 -2.64326e-06 0)
(1.96382e-07 -4.63513e-06 0)
(5.90904e-07 -4.58498e-06 0)
(9.90558e-07 -4.48645e-06 0)
(1.3981e-06 -4.34286e-06 0)
(1.81603e-06 -4.15878e-06 0)
(2.24582e-06 -3.93989e-06 0)
(2.68816e-06 -3.69276e-06 0)
(3.14283e-06 -3.42413e-06 0)
(3.60825e-06 -3.14191e-06 0)
(4.08267e-06 -2.84951e-06 0)
(1.92014e-07 -4.71148e-06 0)
(5.77432e-07 -4.66522e-06 0)
(9.67149e-07 -4.57425e-06 0)
(1.36336e-06 -4.44154e-06 0)
(1.76818e-06 -4.27115e-06 0)
(2.18281e-06 -4.06811e-06 0)
(2.60788e-06 -3.83826e-06 0)
(3.0432e-06 -3.58731e-06 0)
(3.48764e-06 -3.32248e-06 0)
(3.93875e-06 -3.04684e-06 0)
(1.87933e-07 -4.78953e-06 0)
(5.6496e-07 -4.74663e-06 0)
(9.4559e-07 -4.66224e-06 0)
(1.33165e-06 -4.53903e-06 0)
(1.72489e-06 -4.38064e-06 0)
(2.12627e-06 -4.19162e-06 0)
(2.53628e-06 -3.97724e-06 0)
(2.95458e-06 -3.74256e-06 0)
(3.38066e-06 -3.49413e-06 0)
(3.81145e-06 -3.23503e-06 0)
(1.84022e-07 -4.86917e-06 0)
(5.53082e-07 -4.82928e-06 0)
(9.25167e-07 -4.75076e-06 0)
(1.30186e-06 -4.63604e-06 0)
(1.68455e-06 -4.48843e-06 0)
(2.0741e-06 -4.31203e-06 0)
(2.47088e-06 -4.11164e-06 0)
(2.8744e-06 -3.89178e-06 0)
(3.2846e-06 -3.6583e-06 0)
(3.69789e-06 -3.41459e-06 0)
(1.80281e-07 -4.95023e-06 0)
(5.41662e-07 -4.91298e-06 0)
(9.0564e-07 -4.83966e-06 0)
(1.27358e-06 -4.73246e-06 0)
(1.64662e-06 -4.59443e-06 0)
(2.02543e-06 -4.42931e-06 0)
(2.4104e-06 -4.24152e-06 0)
(2.80084e-06 -4.0352e-06 0)
(3.19709e-06 -3.81549e-06 0)
(3.59529e-06 -3.58609e-06 0)
(1.76614e-07 -5.03255e-06 0)
(5.30477e-07 -4.99768e-06 0)
(8.8663e-07 -4.929e-06 0)
(1.24623e-06 -4.82855e-06 0)
(1.61024e-06 -4.69913e-06 0)
(1.97921e-06 -4.54416e-06 0)
(2.3535e-06 -4.36772e-06 0)
(2.73233e-06 -4.17367e-06 0)
(3.11622e-06 -3.96651e-06 0)
(3.50132e-06 -3.75019e-06 0)
(1.72941e-07 -5.11594e-06 0)
(5.19392e-07 -5.08319e-06 0)
(8.67892e-07 -5.01866e-06 0)
(1.21943e-06 -4.92426e-06 0)
(1.57487e-06 -4.80258e-06 0)
(1.93468e-06 -4.65675e-06 0)
(2.29916e-06 -4.49055e-06 0)
(2.66748e-06 -4.30764e-06 0)
(3.04031e-06 -4.11196e-06 0)
(3.41392e-06 -3.90756e-06 0)
(1.69228e-07 -5.20022e-06 0)
(5.0828e-07 -5.16938e-06 0)
(8.49159e-07 -5.10861e-06 0)
(1.19281e-06 -5.01966e-06 0)
(1.53997e-06 -4.90495e-06 0)
(1.89108e-06 -4.76738e-06 0)
(2.24642e-06 -4.61045e-06 0)
(2.60514e-06 -4.43762e-06 0)
(2.96792e-06 -4.25239e-06 0)
(3.33132e-06 -4.05881e-06 0)
(1.65471e-07 -5.28514e-06 0)
(4.97022e-07 -5.25605e-06 0)
(8.30211e-07 -5.19868e-06 0)
(1.16601e-06 -5.11466e-06 0)
(1.50507e-06 -5.00626e-06 0)
(1.84779e-06 -4.87619e-06 0)
(2.19445e-06 -4.72766e-06 0)
(2.54424e-06 -4.56398e-06 0)
(2.89779e-06 -4.38827e-06 0)
(3.25199e-06 -4.20451e-06 0)
(1.61626e-07 -5.37052e-06 0)
(4.85455e-07 -5.34301e-06 0)
(8.10797e-07 -5.28874e-06 0)
(1.13868e-06 -5.20921e-06 0)
(1.46968e-06 -5.10656e-06 0)
(1.80417e-06 -4.98331e-06 0)
(2.14247e-06 -4.84243e-06 0)
(2.4838e-06 -4.68706e-06 0)
(2.82874e-06 -4.52003e-06 0)
(3.17455e-06 -4.34518e-06 0)
(1.57623e-07 -5.45606e-06 0)
(4.73404e-07 -5.42999e-06 0)
(7.90665e-07 -5.37856e-06 0)
(1.11043e-06 -5.30314e-06 0)
(1.4333e-06 -5.20575e-06 0)
(1.7596e-06 -5.08874e-06 0)
(2.08969e-06 -4.95486e-06 0)
(2.42288e-06 -4.80708e-06 0)
(2.75966e-06 -4.648e-06 0)
(3.09767e-06 -4.48125e-06 0)
(1.53393e-07 -5.54154e-06 0)
(4.60711e-07 -5.5168e-06 0)
(7.69549e-07 -5.46798e-06 0)
(1.0809e-06 -5.39637e-06 0)
(1.39541e-06 -5.30382e-06 0)
(1.71342e-06 -5.19256e-06 0)
(2.0353e-06 -5.06512e-06 0)
(2.36051e-06 -4.92429e-06 0)
(2.68941e-06 -4.77251e-06 0)
(3.01999e-06 -4.61315e-06 0)
(1.4889e-07 -5.62648e-06 0)
(4.4724e-07 -5.60297e-06 0)
(7.47187e-07 -5.55661e-06 0)
(1.0497e-06 -5.48854e-06 0)
(1.35549e-06 -5.4005e-06 0)
(1.66497e-06 -5.29456e-06 0)
(1.9785e-06 -5.17309e-06 0)
(2.29572e-06 -5.03871e-06 0)
(2.61684e-06 -4.89367e-06 0)
(2.94023e-06 -4.74108e-06 0)
(1.44067e-07 -5.71075e-06 0)
(4.32809e-07 -5.68842e-06 0)
(7.23237e-07 -5.64436e-06 0)
(1.01633e-06 -5.57962e-06 0)
(1.31292e-06 -5.49583e-06 0)
(1.61344e-06 -5.39489e-06 0)
(1.91835e-06 -5.27901e-06 0)
(2.22736e-06 -5.15066e-06 0)
(2.54067e-06 -5.01189e-06 0)
(2.85688e-06 -4.86561e-06 0)
(1.38856e-07 -5.79342e-06 0)
(4.17199e-07 -5.77221e-06 0)
(6.97335e-07 -5.73034e-06 0)
(9.80302e-07 -5.66879e-06 0)
(1.26702e-06 -5.58903e-06 0)
(1.55804e-06 -5.49286e-06 0)
(1.85384e-06 -5.38231e-06 0)
(2.15426e-06 -5.25968e-06 0)
(2.45949e-06 -5.12685e-06 0)
(2.76846e-06 -4.98653e-06 0)
(1.33141e-07 -5.87492e-06 0)
(4.00072e-07 -5.85478e-06 0)
(6.68929e-07 -5.81504e-06 0)
(9.40851e-07 -5.75657e-06 0)
(1.21684e-06 -5.68073e-06 0)
(1.49757e-06 -5.58917e-06 0)
(1.7836e-06 -5.48376e-06 0)
(2.0749e-06 -5.36661e-06 0)
(2.37165e-06 -5.23951e-06 0)
(2.67313e-06 -5.10487e-06 0)
(1.26865e-07 -5.95269e-06 0)
(3.81284e-07 -5.93363e-06 0)
(6.3778e-07 -5.896e-06 0)
(8.97607e-07 -5.8406e-06 0)
(1.16189e-06 -5.76866e-06 0)
(1.43143e-06 -5.6817e-06 0)
(1.70686e-06 -5.58143e-06 0)
(1.98839e-06 -5.46979e-06 0)
(2.27617e-06 -5.34842e-06 0)
(2.56982e-06 -5.21952e-06 0)
)


// ************************************************************************* //
