/*--------------------------------*- C++ -*----------------------------------*\
| =========                 |                                                 |
| \\      /  F ield         | foam-extend: Open Source CFD                    |
|  \\    /   O peration     | Version:     4.1                                |
|   \\  /    A nd           | Web:         http://www.foam-extend.org         |
|    \\/     M anipulation  |                                                 |
\*---------------------------------------------------------------------------*/
FoamFile
{
    version     2.0;
    format      ascii;
    class       vectorField;
    location    "10";
    object      solidsCellD_iteration9;
}
// * * * * * * * * * * * * * * * * * * * * * * * * * * * * * * * * * * * * * //


1000
(
(5.21231e-06 -2.22591e-06 0)
(4.91618e-06 -2.0708e-06 0)
(4.72667e-06 -1.97214e-06 0)
(4.61754e-06 -1.92568e-06 0)
(4.56375e-06 -1.90904e-06 0)
(4.55039e-06 -1.91545e-06 0)
(4.56673e-06 -1.93687e-06 0)
(4.60543e-06 -1.96947e-06 0)
(4.66086e-06 -2.00962e-06 0)
(4.72917e-06 -2.05517e-06 0)
(4.71265e-06 -2.4313e-06 0)
(4.39727e-06 -2.32302e-06 0)
(4.19565e-06 -2.25397e-06 0)
(4.07763e-06 -2.22766e-06 0)
(4.01692e-06 -2.22438e-06 0)
(3.99732e-06 -2.24024e-06 0)
(4.00769e-06 -2.26843e-06 0)
(4.04018e-06 -2.30605e-06 0)
(4.08894e-06 -2.35037e-06 0)
(4.14937e-06 -2.39842e-06 0)
(4.19355e-06 -2.62595e-06 0)
(3.87136e-06 -2.57005e-06 0)
(3.66555e-06 -2.53413e-06 0)
(3.54367e-06 -2.53006e-06 0)
(3.47923e-06 -2.54133e-06 0)
(3.45534e-06 -2.56724e-06 0)
(3.46084e-06 -2.60244e-06 0)
(3.48781e-06 -2.64505e-06 0)
(3.53034e-06 -2.69333e-06 0)
(3.58394e-06 -2.74407e-06 0)
(3.65894e-06 -2.80645e-06 0)
(3.34342e-06 -2.80549e-06 0)
(3.14196e-06 -2.80435e-06 0)
(3.02159e-06 -2.82348e-06 0)
(2.95676e-06 -2.84985e-06 0)
(2.93063e-06 -2.8861e-06 0)
(2.93242e-06 -2.92834e-06 0)
(2.95444e-06 -2.97594e-06 0)
(2.99115e-06 -3.028e-06 0)
(3.03793e-06 -3.08161e-06 0)
(3.11243e-06 -2.96924e-06 0)
(2.81701e-06 -3.02274e-06 0)
(2.62846e-06 -3.05609e-06 0)
(2.51516e-06 -3.09813e-06 0)
(2.45329e-06 -3.13936e-06 0)
(2.42692e-06 -3.18572e-06 0)
(2.42615e-06 -3.2348e-06 0)
(2.44376e-06 -3.28724e-06 0)
(2.47482e-06 -3.3429e-06 0)
(2.51472e-06 -3.3995e-06 0)
(2.55674e-06 -3.11099e-06 0)
(2.29448e-06 -3.21544e-06 0)
(2.12718e-06 -3.28108e-06 0)
(2.02614e-06 -3.34457e-06 0)
(1.9704e-06 -3.39965e-06 0)
(1.94571e-06 -3.45542e-06 0)
(1.9435e-06 -3.51079e-06 0)
(1.95722e-06 -3.56774e-06 0)
(1.98268e-06 -3.62669e-06 0)
(2.01553e-06 -3.68621e-06 0)
(1.99454e-06 -3.22851e-06 0)
(1.77706e-06 -3.37762e-06 0)
(1.63837e-06 -3.47159e-06 0)
(1.5543e-06 -3.55384e-06 0)
(1.50761e-06 -3.62103e-06 0)
(1.48643e-06 -3.68501e-06 0)
(1.48369e-06 -3.74587e-06 0)
(1.49391e-06 -3.80678e-06 0)
(1.51374e-06 -3.86859e-06 0)
(1.53938e-06 -3.93077e-06 0)
(1.42775e-06 -3.31916e-06 0)
(1.26484e-06 -3.50415e-06 0)
(1.161e-06 -3.62085e-06 0)
(1.09795e-06 -3.71812e-06 0)
(1.06276e-06 -3.79505e-06 0)
(1.04653e-06 -3.86564e-06 0)
(1.04398e-06 -3.93092e-06 0)
(1.05099e-06 -3.99503e-06 0)
(1.06517e-06 -4.05914e-06 0)
(1.08352e-06 -4.12352e-06 0)
(8.57947e-07 -3.3808e-06 0)
(7.57091e-07 -3.59085e-06 0)
(6.92836e-07 -3.72344e-06 0)
(6.53705e-07 -3.83127e-06 0)
(6.31766e-07 -3.91501e-06 0)
(6.21527e-07 -3.99019e-06 0)
(6.19773e-07 -4.05858e-06 0)
(6.23889e-07 -4.12498e-06 0)
(6.32382e-07 -4.19072e-06 0)
(6.43393e-07 -4.25669e-06 0)
(2.8653e-07 -3.41184e-06 0)
(2.52358e-07 -3.63485e-06 0)
(2.30509e-07 -3.77564e-06 0)
(2.17201e-07 -3.8889e-06 0)
(2.09762e-07 -3.97616e-06 0)
(2.06233e-07 -4.05374e-06 0)
(2.05536e-07 -4.12372e-06 0)
(2.06862e-07 -4.19128e-06 0)
(2.09697e-07 -4.25786e-06 0)
(2.13356e-07 -4.32468e-06 0)
(8.13889e-06 -1.0163e-07 0)
(8.21294e-06 -7.32427e-08 0)
(8.25735e-06 -5.52247e-08 0)
(8.30511e-06 -4.46029e-08 0)
(8.35695e-06 -3.86711e-08 0)
(8.42061e-06 -3.59148e-08 0)
(8.49597e-06 -3.52911e-08 0)
(8.58395e-06 -3.60154e-08 0)
(8.68433e-06 -3.77927e-08 0)
(8.79576e-06 -3.99557e-08 0)
(8.07849e-06 -3.04883e-07 0)
(8.14023e-06 -2.2138e-07 0)
(8.17694e-06 -1.68453e-07 0)
(8.21952e-06 -1.37405e-07 0)
(8.26795e-06 -1.20193e-07 0)
(8.32915e-06 -1.12172e-07 0)
(8.40278e-06 -1.10465e-07 0)
(8.48935e-06 -1.12892e-07 0)
(8.58852e-06 -1.18271e-07 0)
(8.69867e-06 -1.24688e-07 0)
(7.95785e-06 -5.09839e-07 0)
(7.99613e-06 -3.75796e-07 0)
(8.01799e-06 -2.90909e-07 0)
(8.05072e-06 -2.41124e-07 0)
(8.09266e-06 -2.13682e-07 0)
(8.14928e-06 -2.0119e-07 0)
(8.21951e-06 -1.98793e-07 0)
(8.30335e-06 -2.03018e-07 0)
(8.40019e-06 -2.11959e-07 0)
(8.50784e-06 -2.2269e-07 0)
(7.77916e-06 -7.17392e-07 0)
(7.78406e-06 -5.40033e-07 0)
(7.78476e-06 -4.27811e-07 0)
(7.80349e-06 -3.62284e-07 0)
(7.83613e-06 -3.26333e-07 0)
(7.88621e-06 -3.10304e-07 0)
(7.95165e-06 -3.07675e-07 0)
(8.03162e-06 -3.13962e-07 0)
(8.12518e-06 -3.26498e-07 0)
(8.22935e-06 -3.4159e-07 0)
(7.54518e-06 -9.28076e-07 0)
(7.50885e-06 -7.17068e-07 0)
(7.48337e-06 -5.83556e-07 0)
(7.48475e-06 -5.06126e-07 0)
(7.5059e-06 -4.64002e-07 0)
(7.54785e-06 -4.45834e-07 0)
(7.60731e-06 -4.43732e-07 0)
(7.68244e-06 -4.52441e-07 0)
(7.7719e-06 -4.68575e-07 0)
(7.87186e-06 -4.88008e-07 0)
(7.25947e-06 -1.142e-06 0)
(7.17645e-06 -9.08829e-07 0)
(7.12143e-06 -7.61225e-07 0)
(7.10319e-06 -6.76427e-07 0)
(7.11129e-06 -6.30923e-07 0)
(7.14396e-06 -6.12286e-07 0)
(7.19661e-06 -6.11583e-07 0)
(7.2662e-06 -6.2308e-07 0)
(7.35092e-06 -6.42825e-07 0)
(7.44613e-06 -6.6658e-07 0)
(6.92628e-06 -1.35875e-06 0)
(6.79393e-06 -1.11611e-06 0)
(6.70771e-06 -9.62405e-07 0)
(6.66872e-06 -8.75272e-07 0)
(6.66299e-06 -8.29429e-07 0)
(6.68577e-06 -8.12154e-07 0)
(6.7311e-06 -8.13835e-07 0)
(6.79472e-06 -8.28549e-07 0)
(6.87422e-06 -8.51989e-07 0)
(6.96442e-06 -8.80015e-07 0)
(6.55008e-06 -1.57731e-06 0)
(6.36884e-06 -1.33838e-06 0)
(6.25171e-06 -1.18688e-06 0)
(6.19206e-06 -1.10265e-06 0)
(6.17252e-06 -1.05964e-06 0)
(6.18529e-06 -1.04564e-06 0)
(6.22304e-06 -1.05074e-06 0)
(6.28048e-06 -1.0692e-06 0)
(6.35445e-06 -1.09644e-06 0)
(6.43948e-06 -1.12876e-06 0)
(6.13576e-06 -1.79617e-06 0)
(5.90908e-06 -1.5738e-06 0)
(5.76327e-06 -1.43272e-06 0)
(5.68428e-06 -1.35652e-06 0)
(5.65168e-06 -1.31951e-06 0)
(5.65479e-06 -1.31064e-06 0)
(5.68502e-06 -1.32025e-06 0)
(5.73622e-06 -1.3429e-06 0)
(5.80435e-06 -1.37427e-06 0)
(5.88426e-06 -1.41068e-06 0)
(5.68824e-06 -2.01324e-06 0)
(5.42244e-06 -1.81933e-06 0)
(5.25194e-06 -1.6962e-06 0)
(5.1561e-06 -1.63285e-06 0)
(5.11185e-06 -1.60478e-06 0)
(5.10612e-06 -1.60281e-06 0)
(5.12926e-06 -1.6179e-06 0)
(5.17428e-06 -1.64544e-06 0)
(5.2366e-06 -1.68112e-06 0)
(5.31108e-06 -1.72311e-06 0)
(8.91856e-06 -4.20855e-08 0)
(9.05246e-06 -4.25e-08 0)
(9.1949e-06 -4.30116e-08 0)
(9.34537e-06 -4.33609e-08 0)
(9.50294e-06 -4.35054e-08 0)
(9.667e-06 -4.3429e-08 0)
(9.83682e-06 -4.30689e-08 0)
(1.00117e-05 -4.2451e-08 0)
(1.01912e-05 -4.15707e-08 0)
(1.03746e-05 -4.03849e-08 0)
(1.05614e-05 -3.88503e-08 0)
(1.07511e-05 -3.69481e-08 0)
(1.09431e-05 -3.46566e-08 0)
(1.11369e-05 -3.19509e-08 0)
(1.13318e-05 -2.87857e-08 0)
(1.15273e-05 -2.50941e-08 0)
(1.17228e-05 -2.07901e-08 0)
(1.19171e-05 -1.57913e-08 0)
(1.21105e-05 -9.97915e-09 0)
(1.22996e-05 -3.31231e-09 0)
(8.82579e-06 -1.30609e-07 0)
(8.96746e-06 -1.31265e-07 0)
(9.11685e-06 -1.32259e-07 0)
(9.27338e-06 -1.32858e-07 0)
(9.43635e-06 -1.32873e-07 0)
(9.60516e-06 -1.32314e-07 0)
(9.77924e-06 -1.31038e-07 0)
(9.95802e-06 -1.29039e-07 0)
(1.0141e-05 -1.2621e-07 0)
(1.03276e-05 -1.22457e-07 0)
(1.05174e-05 -1.17716e-07 0)
(1.07098e-05 -1.11944e-07 0)
(1.09044e-05 -1.05047e-07 0)
(1.11006e-05 -9.69008e-08 0)
(1.12979e-05 -8.7351e-08 0)
(1.14955e-05 -7.62229e-08 0)
(1.16932e-05 -6.32868e-08 0)
(1.18895e-05 -4.83069e-08 0)
(1.20848e-05 -3.09157e-08 0)
(1.2276e-05 -1.09636e-08 0)
(8.6434e-06 -2.31111e-07 0)
(8.80035e-06 -2.30286e-07 0)
(8.96339e-06 -2.30178e-07 0)
(9.13168e-06 -2.29829e-07 0)
(9.30519e-06 -2.28757e-07 0)
(9.48337e-06 -2.26974e-07 0)
(9.66591e-06 -2.2414e-07 0)
(9.85227e-06 -2.20207e-07 0)
(1.00421e-05 -2.14977e-07 0)
(1.02351e-05 -2.08331e-07 0)
(1.04306e-05 -2.0016e-07 0)
(1.06285e-05 -1.90354e-07 0)
(1.08281e-05 -1.7871e-07 0)
(1.1029e-05 -1.65006e-07 0)
(1.12307e-05 -1.48989e-07 0)
(1.14326e-05 -1.30381e-07 0)
(1.16344e-05 -1.08798e-07 0)
(1.18347e-05 -8.38513e-08 0)
(1.20341e-05 -5.49221e-08 0)
(1.22292e-05 -2.17373e-08 0)
(8.37692e-06 -3.50408e-07 0)
(8.55573e-06 -3.45381e-07 0)
(8.73849e-06 -3.4169e-07 0)
(8.92393e-06 -3.38513e-07 0)
(9.11284e-06 -3.34785e-07 0)
(9.30463e-06 -3.3053e-07 0)
(9.49947e-06 -3.25113e-07 0)
(9.69692e-06 -3.18437e-07 0)
(9.89693e-06 -3.10177e-07 0)
(1.00991e-05 -3.00153e-07 0)
(1.03033e-05 -2.88164e-07 0)
(1.0509e-05 -2.73997e-07 0)
(1.0716e-05 -2.57353e-07 0)
(1.09238e-05 -2.37925e-07 0)
(1.11322e-05 -2.15367e-07 0)
(1.13403e-05 -1.89257e-07 0)
(1.15481e-05 -1.59052e-07 0)
(1.17544e-05 -1.24189e-07 0)
(1.19594e-05 -8.37826e-08 0)
(1.21603e-05 -3.74598e-08 0)
(8.03436e-06 -4.9453e-07 0)
(8.24064e-06 -4.81824e-07 0)
(8.44843e-06 -4.71394e-07 0)
(8.65559e-06 -4.62969e-07 0)
(8.86414e-06 -4.54531e-07 0)
(9.07339e-06 -4.46137e-07 0)
(9.28405e-06 -4.36784e-07 0)
(9.4958e-06 -4.26292e-07 0)
(9.70885e-06 -4.1414e-07 0)
(9.923e-06 -4.00036e-07 0)
(1.01382e-05 -3.83672e-07 0)
(1.03541e-05 -3.64721e-07 0)
(1.05707e-05 -3.42772e-07 0)
(1.07875e-05 -3.17411e-07 0)
(1.10044e-05 -2.8817e-07 0)
(1.12207e-05 -2.54486e-07 0)
(1.14363e-05 -2.15649e-07 0)
(1.16501e-05 -1.70927e-07 0)
(1.18626e-05 -1.19151e-07 0)
(1.20709e-05 -5.98413e-08 0)
(7.62547e-06 -6.67803e-07 0)
(7.86335e-06 -6.43398e-07 0)
(8.10041e-06 -6.22485e-07 0)
(8.33317e-06 -6.05847e-07 0)
(8.56504e-06 -5.90253e-07 0)
(8.79512e-06 -5.75723e-07 0)
(9.02463e-06 -5.60819e-07 0)
(9.2535e-06 -5.4517e-07 0)
(9.48221e-06 -5.28077e-07 0)
(9.71072e-06 -5.09087e-07 0)
(9.93918e-06 -4.87735e-07 0)
(1.01675e-05 -4.63543e-07 0)
(1.03956e-05 -4.3596e-07 0)
(1.06232e-05 -4.04449e-07 0)
(1.08503e-05 -3.68394e-07 0)
(1.10763e-05 -3.27093e-07 0)
(1.13013e-05 -2.79662e-07 0)
(1.15242e-05 -2.252e-07 0)
(1.17457e-05 -1.62252e-07 0)
(1.19629e-05 -9.01732e-08 0)
(7.16168e-06 -8.72952e-07 0)
(7.43389e-06 -8.32723e-07 0)
(7.70325e-06 -7.97583e-07 0)
(7.9645e-06 -7.69567e-07 0)
(8.22241e-06 -7.44249e-07 0)
(8.47595e-06 -7.21374e-07 0)
(8.72681e-06 -6.99186e-07 0)
(8.97515e-06 -6.76947e-07 0)
(9.22169e-06 -6.53763e-07 0)
(9.46665e-06 -6.28957e-07 0)
(9.7103e-06 -6.01868e-07 0)
(9.95272e-06 -5.71836e-07 0)
(1.0194e-05 -5.38166e-07 0)
(1.0434e-05 -5.00185e-07 0)
(1.06728e-05 -4.57123e-07 0)
(1.091e-05 -4.08133e-07 0)
(1.11458e-05 -3.5214e-07 0)
(1.13791e-05 -2.88053e-07 0)
(1.16108e-05 -2.14141e-07 0)
(1.18384e-05 -1.29581e-07 0)
(6.65448e-06 -1.11052e-06 0)
(6.96212e-06 -1.04999e-06 0)
(7.26537e-06 -9.96924e-07 0)
(7.55714e-06 -9.54e-07 0)
(7.84312e-06 -9.16233e-07 0)
(8.12226e-06 -8.82642e-07 0)
(8.39657e-06 -8.51284e-07 0)
(8.6664e-06 -8.20943e-07 0)
(8.93266e-06 -7.90484e-07 0)
(9.19579e-06 -7.58937e-07 0)
(9.45625e-06 -7.25409e-07 0)
(9.71428e-06 -6.89033e-07 0)
(9.9701e-06 -6.48947e-07 0)
(1.02238e-05 -6.04318e-07 0)
(1.04756e-05 -5.54203e-07 0)
(1.07252e-05 -4.97585e-07 0)
(1.09729e-05 -4.33185e-07 0)
(1.12178e-05 -3.59716e-07 0)
(1.14608e-05 -2.75164e-07 0)
(1.16996e-05 -1.78526e-07 0)
(6.11631e-06 -1.38008e-06 0)
(6.4595e-06 -1.29544e-06 0)
(6.79668e-06 -1.22204e-06 0)
(7.12004e-06 -1.16119e-06 0)
(7.43499e-06 -1.10861e-06 0)
(7.741e-06 -1.06216e-06 0)
(8.03996e-06 -1.01978e-06 0)
(8.33258e-06 -9.79748e-07 0)
(8.61985e-06 -9.40649e-07 0)
(8.90244e-06 -9.01209e-07 0)
(9.18094e-06 -8.60293e-07 0)
(9.45578e-06 -8.16824e-07 0)
(9.72735e-06 -7.69761e-07 0)
(9.99592e-06 -7.18084e-07 0)
(1.02617e-05 -6.60661e-07 0)
(1.05247e-05 -5.96292e-07 0)
(1.07851e-05 -5.2349e-07 0)
(1.10425e-05 -4.40771e-07 0)
(1.12977e-05 -3.45877e-07 0)
(1.15488e-05 -2.37643e-07 0)
(5.55726e-06 -1.67683e-06 0)
(5.93601e-06 -1.56259e-06 0)
(6.30567e-06 -1.46641e-06 0)
(6.66139e-06 -1.38476e-06 0)
(7.00598e-06 -1.31489e-06 0)
(7.34001e-06 -1.25361e-06 0)
(7.66477e-06 -1.1986e-06 0)
(7.9813e-06 -1.14768e-06 0)
(8.29065e-06 -1.09907e-06 0)
(8.59365e-06 -1.05114e-06 0)
(8.89108e-06 -1.00246e-06 0)
(9.18355e-06 -9.51699e-07 0)
(9.4716e-06 -8.97603e-07 0)
(9.75565e-06 -8.38938e-07 0)
(1.0036e-05 -7.74375e-07 0)
(1.03129e-05 -7.02525e-07 0)
(1.05867e-05 -6.21706e-07 0)
(1.0857e-05 -5.3023e-07 0)
(1.11249e-05 -4.25612e-07 0)
(1.13888e-05 -3.0647e-07 0)
(5.14344e-06 -1.96026e-06 0)
(5.54551e-06 -1.82227e-06 0)
(5.93429e-06 -1.70922e-06 0)
(6.30964e-06 -1.61118e-06 0)
(6.67266e-06 -1.52625e-06 0)
(7.0243e-06 -1.45119e-06 0)
(7.36572e-06 -1.38358e-06 0)
(7.69791e-06 -1.32119e-06 0)
(8.0219e-06 -1.2621e-06 0)
(8.33852e-06 -1.20452e-06 0)
(8.64859e-06 -1.1469e-06 0)
(8.95276e-06 -1.08775e-06 0)
(9.25167e-06 -1.02568e-06 0)
(9.54581e-06 -9.59317e-07 0)
(9.83559e-06 -8.87209e-07 0)
(1.01213e-05 -8.07849e-07 0)
(1.04034e-05 -7.19487e-07 0)
(1.06819e-05 -6.20326e-07 0)
(1.09578e-05 -5.07844e-07 0)
(1.123e-05 -3.80574e-07 0)
(4.90616e-06 -2.18994e-06 0)
(5.31087e-06 -2.04663e-06 0)
(5.70284e-06 -1.92415e-06 0)
(6.08314e-06 -1.81607e-06 0)
(6.4519e-06 -1.72062e-06 0)
(6.80974e-06 -1.6351e-06 0)
(7.15748e-06 -1.55725e-06 0)
(7.49591e-06 -1.48499e-06 0)
(7.82587e-06 -1.41643e-06 0)
(8.14809e-06 -1.34985e-06 0)
(8.46333e-06 -1.28366e-06 0)
(8.77224e-06 -1.21638e-06 0)
(9.07543e-06 -1.14657e-06 0)
(9.3734e-06 -1.07284e-06 0)
(9.66662e-06 -9.93717e-07 0)
(9.95547e-06 -9.07677e-07 0)
(1.02405e-05 -8.1302e-07 0)
(1.05218e-05 -7.07979e-07 0)
(1.08004e-05 -5.90154e-07 0)
(1.10758e-05 -4.58138e-07 0)
(4.7026e-06 -2.41074e-06 0)
(5.10339e-06 -2.26406e-06 0)
(5.4947e-06 -2.1354e-06 0)
(5.87579e-06 -2.01963e-06 0)
(6.24672e-06 -1.91548e-06 0)
(6.60756e-06 -1.8208e-06 0)
(6.95886e-06 -1.73364e-06 0)
(7.30114e-06 -1.65213e-06 0)
(7.63501e-06 -1.57453e-06 0)
(7.96112e-06 -1.49921e-06 0)
(8.2801e-06 -1.42463e-06 0)
(8.59255e-06 -1.34934e-06 0)
(8.89903e-06 -1.2719e-06 0)
(9.20006e-06 -1.19091e-06 0)
(9.4961e-06 -1.10493e-06 0)
(9.78762e-06 -1.01246e-06 0)
(1.00752e-05 -9.11863e-07 0)
(1.0359e-05 -8.01457e-07 0)
(1.06402e-05 -6.78991e-07 0)
(1.09186e-05 -5.43162e-07 0)
(4.52276e-06 -2.62354e-06 0)
(4.91781e-06 -2.47516e-06 0)
(5.30573e-06 -2.34183e-06 0)
(5.68493e-06 -2.21974e-06 0)
(6.05541e-06 -2.10813e-06 0)
(6.41682e-06 -2.00534e-06 0)
(6.76949e-06 -1.90973e-06 0)
(7.11365e-06 -1.8197e-06 0)
(7.44976e-06 -1.73364e-06 0)
(7.7783e-06 -1.65007e-06 0)
(8.09979e-06 -1.56751e-06 0)
(8.41473e-06 -1.48457e-06 0)
(8.72366e-06 -1.39984e-06 0)
(9.02705e-06 -1.31196e-06 0)
(9.32536e-06 -1.21953e-06 0)
(9.61912e-06 -1.1211e-06 0)
(9.90886e-06 -1.01512e-06 0)
(1.0195e-05 -9.00029e-07 0)
(1.04786e-05 -7.73739e-07 0)
(1.07597e-05 -6.35102e-07 0)
(4.36403e-06 -2.82742e-06 0)
(4.7517e-06 -2.67854e-06 0)
(5.13427e-06 -2.54214e-06 0)
(5.50954e-06 -2.41529e-06 0)
(5.87752e-06 -2.29763e-06 0)
(6.23755e-06 -2.18795e-06 0)
(6.58975e-06 -2.08493e-06 0)
(6.93412e-06 -1.98722e-06 0)
(7.27097e-06 -1.89342e-06 0)
(7.60062e-06 -1.80217e-06 0)
(7.92348e-06 -1.71213e-06 0)
(8.23995e-06 -1.62196e-06 0)
(8.55051e-06 -1.53033e-06 0)
(8.8556e-06 -1.43594e-06 0)
(9.15565e-06 -1.33746e-06 0)
(9.45122e-06 -1.2335e-06 0)
(9.74282e-06 -1.12265e-06 0)
(1.0031e-05 -1.00345e-06 0)
(1.03167e-05 -8.74024e-07 0)
(1.06003e-05 -7.33429e-07 0)
(4.2227e-06 -3.02249e-06 0)
(4.60216e-06 -2.87405e-06 0)
(4.97817e-06 -2.73571e-06 0)
(5.34811e-06 -2.60528e-06 0)
(5.71209e-06 -2.48276e-06 0)
(6.06921e-06 -2.36727e-06 0)
(6.41946e-06 -2.25782e-06 0)
(6.76266e-06 -2.1533e-06 0)
(7.09898e-06 -2.05252e-06 0)
(7.42861e-06 -1.95427e-06 0)
(7.75185e-06 -1.85734e-06 0)
(8.06898e-06 -1.76049e-06 0)
(8.38043e-06 -1.66246e-06 0)
(8.68659e-06 -1.56206e-06 0)
(8.98788e-06 -1.458e-06 0)
(9.28484e-06 -1.34904e-06 0)
(9.57797e-06 -1.23386e-06 0)
(9.86788e-06 -1.11114e-06 0)
(1.01554e-05 -9.7927e-07 0)
(1.04413e-05 -8.37466e-07 0)
(4.09595e-06 -3.209e-06 0)
(4.46672e-06 -3.06167e-06 0)
(4.83535e-06 -2.9223e-06 0)
(5.19902e-06 -2.78932e-06 0)
(5.55794e-06 -2.66299e-06 0)
(5.91101e-06 -2.54272e-06 0)
(6.25817e-06 -2.42779e-06 0)
(6.59911e-06 -2.31734e-06 0)
(6.93387e-06 -2.21037e-06 0)
(7.26253e-06 -2.10584e-06 0)
(7.58527e-06 -2.00265e-06 0)
(7.90231e-06 -1.89969e-06 0)
(8.214e-06 -1.79581e-06 0)
(8.52069e-06 -1.6899e-06 0)
(8.82275e-06 -1.58079e-06 0)
(9.1207e-06 -1.46733e-06 0)
(9.41503e-06 -1.34834e-06 0)
(9.70639e-06 -1.22266e-06 0)
(9.99558e-06 -1.08894e-06 0)
(1.02834e-05 -9.46514e-07 0)
(3.98112e-06 -3.38737e-06 0)
(4.34307e-06 -3.24159e-06 0)
(4.70384e-06 -3.10187e-06 0)
(5.06068e-06 -2.96716e-06 0)
(5.41377e-06 -2.8379e-06 0)
(5.762e-06 -2.71373e-06 0)
(6.10522e-06 -2.59421e-06 0)
(6.44304e-06 -2.47867e-06 0)
(6.77542e-06 -2.36628e-06 0)
(7.10232e-06 -2.25618e-06 0)
(7.42385e-06 -2.14741e-06 0)
(7.74016e-06 -2.03896e-06 0)
(8.05154e-06 -1.9298e-06 0)
(8.35826e-06 -1.81893e-06 0)
(8.66069e-06 -1.70529e-06 0)
(8.95929e-06 -1.58785e-06 0)
(9.25454e-06 -1.46559e-06 0)
(9.54708e-06 -1.33748e-06 0)
(9.83766e-06 -1.20244e-06 0)
(1.01271e-05 -1.05985e-06 0)
(3.87585e-06 -3.55813e-06 0)
(4.229e-06 -3.41417e-06 0)
(4.58174e-06 -3.2746e-06 0)
(4.93143e-06 -3.1388e-06 0)
(5.27823e-06 -3.00734e-06 0)
(5.62107e-06 -2.88007e-06 0)
(5.95976e-06 -2.75675e-06 0)
(6.29385e-06 -2.63688e-06 0)
(6.62321e-06 -2.51983e-06 0)
(6.94775e-06 -2.40486e-06 0)
(7.26752e-06 -2.29117e-06 0)
(7.58259e-06 -2.17786e-06 0)
(7.8932e-06 -2.06402e-06 0)
(8.19957e-06 -1.94876e-06 0)
(8.50201e-06 -1.83112e-06 0)
(8.80097e-06 -1.71023e-06 0)
(9.09686e-06 -1.58518e-06 0)
(9.39036e-06 -1.45514e-06 0)
(9.68205e-06 -1.31917e-06 0)
(9.97288e-06 -1.17684e-06 0)
(3.77807e-06 -3.72182e-06 0)
(4.12258e-06 -3.57982e-06 0)
(4.46729e-06 -3.44076e-06 0)
(4.80968e-06 -3.30435e-06 0)
(5.14997e-06 -3.17129e-06 0)
(5.48711e-06 -3.04158e-06 0)
(5.82088e-06 -2.91516e-06 0)
(6.1508e-06 -2.7917e-06 0)
(6.4767e-06 -2.67068e-06 0)
(6.79845e-06 -2.55154e-06 0)
(7.11603e-06 -2.43358e-06 0)
(7.42947e-06 -2.31604e-06 0)
(7.73896e-06 -2.1981e-06 0)
(8.04465e-06 -2.079e-06 0)
(8.34682e-06 -1.95791e-06 0)
(8.64588e-06 -1.83406e-06 0)
(8.9422e-06 -1.70671e-06 0)
(9.2364e-06 -1.57513e-06 0)
(9.52898e-06 -1.4386e-06 0)
(9.82095e-06 -1.29685e-06 0)
(3.68592e-06 -3.87903e-06 0)
(4.02204e-06 -3.73901e-06 0)
(4.35883e-06 -3.60067e-06 0)
(4.69397e-06 -3.46404e-06 0)
(5.02769e-06 -3.32987e-06 0)
(5.35898e-06 -3.1983e-06 0)
(5.68761e-06 -3.0694e-06 0)
(6.01311e-06 -2.94298e-06 0)
(6.33526e-06 -2.81866e-06 0)
(6.65393e-06 -2.69599e-06 0)
(6.96903e-06 -2.57439e-06 0)
(7.28056e-06 -2.45322e-06 0)
(7.58864e-06 -2.33176e-06 0)
(7.89341e-06 -2.20938e-06 0)
(8.19509e-06 -2.08534e-06 0)
(8.49405e-06 -1.95901e-06 0)
(8.79059e-06 -1.82977e-06 0)
(9.08526e-06 -1.697e-06 0)
(9.37858e-06 -1.5602e-06 0)
(9.67142e-06 -1.41924e-06 0)
(3.59774e-06 -4.03029e-06 0)
(3.92579e-06 -3.89218e-06 0)
(4.25486e-06 -3.75471e-06 0)
(4.5829e-06 -3.61814e-06 0)
(4.9101e-06 -3.48327e-06 0)
(5.23553e-06 -3.35032e-06 0)
(5.55894e-06 -3.21949e-06 0)
(5.8799e-06 -3.09069e-06 0)
(6.19817e-06 -2.96367e-06 0)
(6.51359e-06 -2.83807e-06 0)
(6.82604e-06 -2.71342e-06 0)
(7.13548e-06 -2.58919e-06 0)
(7.442e-06 -2.46477e-06 0)
(7.74568e-06 -2.33963e-06 0)
(8.04671e-06 -2.21314e-06 0)
(8.3454e-06 -2.08476e-06 0)
(8.64198e-06 -1.954e-06 0)
(8.93698e-06 -1.82035e-06 0)
(9.23083e-06 -1.68355e-06 0)
(9.52433e-06 -1.54345e-06 0)
(3.51206e-06 -4.17609e-06 0)
(3.83237e-06 -4.0398e-06 0)
(4.154e-06 -3.90328e-06 0)
(4.47516e-06 -3.76699e-06 0)
(4.79598e-06 -3.63173e-06 0)
(5.11563e-06 -3.49781e-06 0)
(5.43388e-06 -3.36552e-06 0)
(5.75032e-06 -3.23487e-06 0)
(6.06469e-06 -3.1057e-06 0)
(6.37681e-06 -2.97773e-06 0)
(6.68655e-06 -2.8506e-06 0)
(6.99381e-06 -2.72386e-06 0)
(7.29867e-06 -2.59701e-06 0)
(7.60117e-06 -2.4696e-06 0)
(7.90143e-06 -2.3411e-06 0)
(8.19971e-06 -2.21107e-06 0)
(8.4962e-06 -2.07911e-06 0)
(8.7914e-06 -1.94486e-06 0)
(9.08559e-06 -1.8082e-06 0)
(9.37959e-06 -1.66905e-06 0)
(3.42749e-06 -4.31688e-06 0)
(3.7404e-06 -4.18233e-06 0)
(4.0549e-06 -4.04678e-06 0)
(4.36943e-06 -3.91091e-06 0)
(4.68411e-06 -3.77552e-06 0)
(4.99819e-06 -3.64098e-06 0)
(5.31146e-06 -3.50768e-06 0)
(5.62349e-06 -3.37565e-06 0)
(5.93405e-06 -3.24483e-06 0)
(6.24292e-06 -3.11501e-06 0)
(6.54995e-06 -2.98591e-06 0)
(6.85505e-06 -2.85717e-06 0)
(7.15822e-06 -2.72836e-06 0)
(7.45949e-06 -2.59914e-06 0)
(7.75891e-06 -2.46903e-06 0)
(8.05671e-06 -2.33768e-06 0)
(8.35301e-06 -2.2048e-06 0)
(8.64828e-06 -2.07018e-06 0)
(8.9427e-06 -1.93374e-06 0)
(9.23702e-06 -1.79556e-06 0)
(3.3426e-06 -4.45312e-06 0)
(3.64848e-06 -4.32014e-06 0)
(3.9562e-06 -4.1856e-06 0)
(4.26443e-06 -4.05028e-06 0)
(4.57329e-06 -3.91499e-06 0)
(4.8821e-06 -3.78016e-06 0)
(5.19065e-06 -3.64621e-06 0)
(5.4985e-06 -3.51322e-06 0)
(5.80543e-06 -3.38119e-06 0)
(6.11121e-06 -3.24997e-06 0)
(6.41566e-06 -3.11939e-06 0)
(6.71867e-06 -2.98912e-06 0)
(7.02022e-06 -2.85881e-06 0)
(7.32027e-06 -2.72817e-06 0)
(7.61884e-06 -2.59681e-06 0)
(7.91611e-06 -2.46446e-06 0)
(8.21219e-06 -2.33093e-06 0)
(8.50742e-06 -2.19608e-06 0)
(8.80199e-06 -2.05992e-06 0)
(9.09648e-06 -1.92263e-06 0)
(3.25606e-06 -4.58512e-06 0)
(3.55524e-06 -4.45376e-06 0)
(3.85649e-06 -4.3201e-06 0)
(4.15889e-06 -4.18542e-06 0)
(4.46235e-06 -4.05047e-06 0)
(4.7663e-06 -3.91564e-06 0)
(5.07048e-06 -3.78136e-06 0)
(5.37449e-06 -3.6478e-06 0)
(5.67807e-06 -3.51497e-06 0)
(5.98099e-06 -3.38279e-06 0)
(6.28307e-06 -3.25115e-06 0)
(6.58414e-06 -3.11977e-06 0)
(6.88416e-06 -2.98835e-06 0)
(7.18303e-06 -2.85665e-06 0)
(7.48077e-06 -2.72435e-06 0)
(7.77753e-06 -2.59127e-06 0)
(8.07336e-06 -2.45729e-06 0)
(8.3685e-06 -2.32229e-06 0)
(8.66311e-06 -2.18645e-06 0)
(8.95769e-06 -2.04996e-06 0)
(3.16647e-06 -4.71343e-06 0)
(3.45911e-06 -4.58319e-06 0)
(3.75423e-06 -4.45072e-06 0)
(4.0515e-06 -4.31695e-06 0)
(4.35006e-06 -4.18249e-06 0)
(4.64969e-06 -4.04788e-06 0)
(4.94997e-06 -3.91356e-06 0)
(5.25057e-06 -3.77973e-06 0)
(5.55119e-06 -3.64646e-06 0)
(5.8516e-06 -3.5137e-06 0)
(6.15158e-06 -3.38137e-06 0)
(6.45093e-06 -3.24923e-06 0)
(6.74956e-06 -3.11702e-06 0)
(7.04738e-06 -2.98458e-06 0)
(7.34438e-06 -2.85164e-06 0)
(7.64067e-06 -2.71805e-06 0)
(7.93621e-06 -2.58374e-06 0)
(8.23122e-06 -2.44866e-06 0)
(8.5258e-06 -2.31313e-06 0)
(8.82042e-06 -2.17732e-06 0)
(3.07168e-06 -4.83788e-06 0)
(3.35877e-06 -4.70896e-06 0)
(3.64886e-06 -4.57792e-06 0)
(3.94119e-06 -4.4451e-06 0)
(4.23549e-06 -4.31134e-06 0)
(4.53131e-06 -4.17719e-06 0)
(4.82827e-06 -4.0431e-06 0)
(5.12599e-06 -3.90933e-06 0)
(5.42415e-06 -3.77594e-06 0)
(5.72249e-06 -3.64292e-06 0)
(6.02071e-06 -3.5102e-06 0)
(6.31859e-06 -3.37761e-06 0)
(6.61605e-06 -3.24494e-06 0)
(6.913e-06 -3.11202e-06 0)
(7.20936e-06 -2.97864e-06 0)
(7.50515e-06 -2.84473e-06 0)
(7.80036e-06 -2.71019e-06 0)
(8.0953e-06 -2.5751e-06 0)
(8.38986e-06 -2.4398e-06 0)
(8.68436e-06 -2.30454e-06 0)
(2.97047e-06 -4.95984e-06 0)
(3.25247e-06 -4.83249e-06 0)
(3.53799e-06 -4.70255e-06 0)
(3.8263e-06 -4.57077e-06 0)
(4.11712e-06 -4.43785e-06 0)
(4.40993e-06 -4.30436e-06 0)
(4.70435e-06 -4.17073e-06 0)
(4.99994e-06 -4.03721e-06 0)
(5.29629e-06 -3.90392e-06 0)
(5.59304e-06 -3.77087e-06 0)
(5.88994e-06 -3.63802e-06 0)
(6.18676e-06 -3.5052e-06 0)
(6.48335e-06 -3.37225e-06 0)
(6.77952e-06 -3.23907e-06 0)
(7.07527e-06 -3.10542e-06 0)
(7.37068e-06 -2.97124e-06 0)
(7.66566e-06 -2.83659e-06 0)
(7.96038e-06 -2.7015e-06 0)
(8.2549e-06 -2.56632e-06 0)
(8.54934e-06 -2.43144e-06 0)
(2.86152e-06 -5.07829e-06 0)
(3.13906e-06 -4.95269e-06 0)
(3.42076e-06 -4.82436e-06 0)
(3.70596e-06 -4.69393e-06 0)
(3.99422e-06 -4.56215e-06 0)
(4.285e-06 -4.42957e-06 0)
(4.57777e-06 -4.29664e-06 0)
(4.87199e-06 -4.16364e-06 0)
(5.16721e-06 -4.03066e-06 0)
(5.46307e-06 -3.89775e-06 0)
(5.7592e-06 -3.76494e-06 0)
(6.05528e-06 -3.6321e-06 0)
(6.3512e-06 -3.49902e-06 0)
(6.64684e-06 -3.36566e-06 0)
(6.94207e-06 -3.2319e-06 0)
(7.23702e-06 -3.09759e-06 0)
(7.53173e-06 -2.96287e-06 0)
(7.82624e-06 -2.82773e-06 0)
(8.1207e-06 -2.6926e-06 0)
(8.41508e-06 -2.55786e-06 0)
(2.12528e-07 -4.39311e-06 0)
(6.40546e-07 -4.32836e-06 0)
(1.07746e-06 -4.20142e-06 0)
(1.52828e-06 -4.01742e-06 0)
(1.99709e-06 -3.78336e-06 0)
(2.48644e-06 -3.50804e-06 0)
(2.99732e-06 -3.20147e-06 0)
(3.52884e-06 -2.8742e-06 0)
(4.0791e-06 -2.53685e-06 0)
(4.64375e-06 -2.19787e-06 0)
(2.06541e-07 -4.46424e-06 0)
(6.22139e-07 -4.40509e-06 0)
(1.04513e-06 -4.28903e-06 0)
(1.47976e-06 -4.12045e-06 0)
(1.92947e-06 -3.90525e-06 0)
(2.39643e-06 -3.65095e-06 0)
(2.88155e-06 -3.36604e-06 0)
(3.38391e-06 -3.05965e-06 0)
(3.90106e-06 -2.74143e-06 0)
(4.42971e-06 -2.41839e-06 0)
(2.01237e-07 -4.53712e-06 0)
(6.05804e-07 -4.48306e-06 0)
(1.0164e-06 -4.37685e-06 0)
(1.43643e-06 -4.22233e-06 0)
(1.86879e-06 -4.02461e-06 0)
(2.31529e-06 -3.79017e-06 0)
(2.77684e-06 -3.52631e-06 0)
(3.2532e-06 -3.24067e-06 0)
(3.74251e-06 -2.94169e-06 0)
(4.24273e-06 -2.63382e-06 0)
(1.96505e-07 -4.61186e-06 0)
(5.91258e-07 -4.56211e-06 0)
(9.91062e-07 -4.46429e-06 0)
(1.39864e-06 -4.32177e-06 0)
(1.81644e-06 -4.13907e-06 0)
(2.24591e-06 -3.92179e-06 0)
(2.68771e-06 -3.67649e-06 0)
(3.14165e-06 -3.40981e-06 0)
(3.60609e-06 -3.12969e-06 0)
(4.07932e-06 -2.83948e-06 0)
(1.92159e-07 -4.6884e-06 0)
(5.77849e-07 -4.64251e-06 0)
(9.6777e-07 -4.5522e-06 0)
(1.36408e-06 -4.42048e-06 0)
(1.76885e-06 -4.25137e-06 0)
(2.18326e-06 -4.04983e-06 0)
(2.60792e-06 -3.8217e-06 0)
(3.04263e-06 -3.57261e-06 0)
(3.48624e-06 -3.3098e-06 0)
(3.93633e-06 -3.03627e-06 0)
(1.88098e-07 -4.76664e-06 0)
(5.65426e-07 -4.72409e-06 0)
(9.46302e-07 -4.64031e-06 0)
(1.33251e-06 -4.51802e-06 0)
(1.72576e-06 -4.36083e-06 0)
(2.12703e-06 -4.17321e-06 0)
(2.53671e-06 -3.96044e-06 0)
(2.95454e-06 -3.72754e-06 0)
(3.37994e-06 -3.48103e-06 0)
(3.80985e-06 -3.22396e-06 0)
(1.84201e-07 -4.84647e-06 0)
(5.53589e-07 -4.80689e-06 0)
(9.25953e-07 -4.72895e-06 0)
(1.30284e-06 -4.61509e-06 0)
(1.68561e-06 -4.4686e-06 0)
(2.0751e-06 -4.29353e-06 0)
(2.47167e-06 -4.09466e-06 0)
(2.87481e-06 -3.87648e-06 0)
(3.28445e-06 -3.64483e-06 0)
(3.697e-06 -3.40308e-06 0)
(1.80468e-07 -4.92771e-06 0)
(5.42205e-07 -4.89076e-06 0)
(9.06488e-07 -4.81799e-06 0)
(1.27466e-06 -4.71158e-06 0)
(1.64783e-06 -4.57461e-06 0)
(2.02665e-06 -4.41075e-06 0)
(2.41149e-06 -4.22439e-06 0)
(2.80167e-06 -4.01967e-06 0)
(3.19746e-06 -3.80171e-06 0)
(3.59504e-06 -3.57418e-06 0)
(1.76816e-07 -5.0102e-06 0)
(5.31056e-07 -4.97561e-06 0)
(8.87536e-07 -4.90746e-06 0)
(1.2474e-06 -4.80775e-06 0)
(1.6116e-06 -4.67934e-06 0)
(1.98064e-06 -4.52557e-06 0)
(2.35488e-06 -4.35049e-06 0)
(2.73351e-06 -4.15796e-06 0)
(3.11706e-06 -3.95248e-06 0)
(3.50165e-06 -3.73794e-06 0)
(1.73159e-07 -5.09377e-06 0)
(5.20004e-07 -5.06127e-06 0)
(8.68858e-07 -4.99725e-06 0)
(1.22071e-06 -4.90356e-06 0)
(1.57637e-06 -4.78284e-06 0)
(1.9363e-06 -4.63815e-06 0)
(2.30079e-06 -4.47325e-06 0)
(2.669e-06 -4.29179e-06 0)
(3.04157e-06 -4.0977e-06 0)
(3.41477e-06 -3.89501e-06 0)
(1.69458e-07 -5.17822e-06 0)
(5.08926e-07 -5.14761e-06 0)
(8.50191e-07 -5.08733e-06 0)
(1.19418e-06 -4.99906e-06 0)
(1.54161e-06 -4.88527e-06 0)
(1.8929e-06 -4.74879e-06 0)
(2.2483e-06 -4.59311e-06 0)
(2.60698e-06 -4.42167e-06 0)
(2.96958e-06 -4.23796e-06 0)
(3.33265e-06 -4.04602e-06 0)
(1.65711e-07 -5.26332e-06 0)
(4.97709e-07 -5.23442e-06 0)
(8.31319e-07 -5.17753e-06 0)
(1.16749e-06 -5.09417e-06 0)
(1.50685e-06 -4.98665e-06 0)
(1.8498e-06 -4.85763e-06 0)
(2.19659e-06 -4.7103e-06 0)
(2.5464e-06 -4.54796e-06 0)
(2.89983e-06 -4.37371e-06 0)
(3.25379e-06 -4.19151e-06 0)
(1.6188e-07 -5.34886e-06 0)
(4.86193e-07 -5.32153e-06 0)
(8.11994e-07 -5.26772e-06 0)
(1.14028e-06 -5.18884e-06 0)
(1.47163e-06 -5.08703e-06 0)
(1.80639e-06 -4.96479e-06 0)
(2.14486e-06 -4.82508e-06 0)
(2.48628e-06 -4.671e-06 0)
(2.83116e-06 -4.50536e-06 0)
(3.17681e-06 -4.33201e-06 0)
(1.57896e-07 -5.43455e-06 0)
(4.74203e-07 -5.40867e-06 0)
(7.91964e-07 -5.35768e-06 0)
(1.11217e-06 -5.28289e-06 0)
(1.43543e-06 -5.18631e-06 0)
(1.76205e-06 -5.07029e-06 0)
(2.09236e-06 -4.93754e-06 0)
(2.42568e-06 -4.79099e-06 0)
(2.76248e-06 -4.63325e-06 0)
(3.10039e-06 -4.46795e-06 0)
(1.53689e-07 -5.52019e-06 0)
(4.61576e-07 -5.49563e-06 0)
(7.70962e-07 -5.44724e-06 0)
(1.0828e-06 -5.37624e-06 0)
(1.39775e-06 -5.28449e-06 0)
(1.71612e-06 -5.17419e-06 0)
(2.03828e-06 -5.04783e-06 0)
(2.36367e-06 -4.9082e-06 0)
(2.69264e-06 -4.75772e-06 0)
(3.02319e-06 -4.59974e-06 0)
(1.49211e-07 -5.6053e-06 0)
(4.48179e-07 -5.58197e-06 0)
(7.48729e-07 -5.53602e-06 0)
(1.05178e-06 -5.46855e-06 0)
(1.35807e-06 -5.38128e-06 0)
(1.66795e-06 -5.27627e-06 0)
(1.98181e-06 -5.15585e-06 0)
(2.29927e-06 -5.02263e-06 0)
(2.62052e-06 -4.87885e-06 0)
(2.94394e-06 -4.72759e-06 0)
(1.44415e-07 -5.68976e-06 0)
(4.33836e-07 -5.66761e-06 0)
(7.24929e-07 -5.62393e-06 0)
(1.01863e-06 -5.55978e-06 0)
(1.31575e-06 -5.47674e-06 0)
(1.61675e-06 -5.3767e-06 0)
(1.92204e-06 -5.26185e-06 0)
(2.23135e-06 -5.13463e-06 0)
(2.54485e-06 -4.99707e-06 0)
(2.86115e-06 -4.85208e-06 0)
(1.39238e-07 -5.77262e-06 0)
(4.18333e-07 -5.75159e-06 0)
(6.99202e-07 -5.71009e-06 0)
(9.82843e-07 -5.64911e-06 0)
(1.27017e-06 -5.57008e-06 0)
(1.56172e-06 -5.47478e-06 0)
(1.85797e-06 -5.36523e-06 0)
(2.15875e-06 -5.2437e-06 0)
(2.46422e-06 -5.11204e-06 0)
(2.77333e-06 -4.97296e-06 0)
(1.33567e-07 -5.85433e-06 0)
(4.01334e-07 -5.83438e-06 0)
(6.71005e-07 -5.795e-06 0)
(9.43679e-07 -5.73707e-06 0)
(1.22035e-06 -5.66193e-06 0)
(1.50169e-06 -5.57122e-06 0)
(1.78823e-06 -5.46679e-06 0)
(2.07996e-06 -5.35071e-06 0)
(2.377e-06 -5.22474e-06 0)
(2.67869e-06 -5.09129e-06 0)
(1.27341e-07 -5.93235e-06 0)
(3.82696e-07 -5.91347e-06 0)
(6.40098e-07 -5.87619e-06 0)
(9.00774e-07 -5.82131e-06 0)
(1.16584e-06 -5.75004e-06 0)
(1.43607e-06 -5.66391e-06 0)
(1.71208e-06 -5.56458e-06 0)
(1.99408e-06 -5.45397e-06 0)
(2.28222e-06 -5.3337e-06 0)
(2.57612e-06 -5.20594e-06 0)
)


// ************************************************************************* //
