/*--------------------------------*- C++ -*----------------------------------*\
| =========                 |                                                 |
| \\      /  F ield         | foam-extend: Open Source CFD                    |
|  \\    /   O peration     | Version:     4.1                                |
|   \\  /    A nd           | Web:         http://www.foam-extend.org         |
|    \\/     M anipulation  |                                                 |
\*---------------------------------------------------------------------------*/
FoamFile
{
    version     2.0;
    format      ascii;
    class       vectorField;
    location    "1";
    object      solidsCellD_iteration18;
}
// * * * * * * * * * * * * * * * * * * * * * * * * * * * * * * * * * * * * * //


1000
(
(4.71058e-07 -1.67204e-07 0)
(4.47365e-07 -1.57026e-07 0)
(4.32771e-07 -1.51186e-07 0)
(4.24888e-07 -1.49363e-07 0)
(4.21803e-07 -1.49944e-07 0)
(4.2217e-07 -1.52319e-07 0)
(4.25166e-07 -1.55922e-07 0)
(4.29975e-07 -1.60466e-07 0)
(4.36451e-07 -1.65622e-07 0)
(4.43586e-07 -1.71089e-07 0)
(4.26274e-07 -1.8283e-07 0)
(4.01124e-07 -1.76501e-07 0)
(3.85541e-07 -1.73128e-07 0)
(3.76868e-07 -1.72972e-07 0)
(3.73095e-07 -1.74683e-07 0)
(3.72821e-07 -1.7785e-07 0)
(3.75149e-07 -1.8198e-07 0)
(3.79298e-07 -1.86947e-07 0)
(3.85061e-07 -1.9232e-07 0)
(3.91456e-07 -1.98208e-07 0)
(3.79674e-07 -1.97647e-07 0)
(3.53998e-07 -1.95605e-07 0)
(3.38022e-07 -1.94978e-07 0)
(3.28979e-07 -1.9664e-07 0)
(3.24807e-07 -1.99558e-07 0)
(3.24097e-07 -2.03539e-07 0)
(3.25935e-07 -2.08215e-07 0)
(3.29575e-07 -2.13559e-07 0)
(3.34773e-07 -2.19172e-07 0)
(3.40713e-07 -2.25192e-07 0)
(3.31535e-07 -2.11353e-07 0)
(3.06455e-07 -2.13753e-07 0)
(2.90786e-07 -2.15998e-07 0)
(2.81804e-07 -2.19545e-07 0)
(2.77515e-07 -2.23689e-07 0)
(2.76529e-07 -2.28475e-07 0)
(2.77937e-07 -2.33677e-07 0)
(2.81119e-07 -2.39371e-07 0)
(2.85752e-07 -2.4522e-07 0)
(2.91174e-07 -2.51414e-07 0)
(2.82288e-07 -2.23663e-07 0)
(2.58794e-07 -2.30465e-07 0)
(2.44105e-07 -2.35525e-07 0)
(2.35642e-07 -2.40914e-07 0)
(2.31496e-07 -2.46256e-07 0)
(2.30365e-07 -2.51845e-07 0)
(2.31443e-07 -2.57584e-07 0)
(2.34181e-07 -2.63623e-07 0)
(2.38238e-07 -2.69734e-07 0)
(2.43026e-07 -2.76093e-07 0)
(2.32048e-07 -2.34387e-07 0)
(2.11241e-07 -2.453e-07 0)
(1.98216e-07 -2.52992e-07 0)
(1.90645e-07 -2.601e-07 0)
(1.86863e-07 -2.66563e-07 0)
(1.85731e-07 -2.72885e-07 0)
(1.86554e-07 -2.79116e-07 0)
(1.88834e-07 -2.85469e-07 0)
(1.92245e-07 -2.91847e-07 0)
(1.96288e-07 -2.98405e-07 0)
(1.81173e-07 -2.43233e-07 0)
(1.6393e-07 -2.57732e-07 0)
(1.53111e-07 -2.67743e-07 0)
(1.46795e-07 -2.76382e-07 0)
(1.43614e-07 -2.83824e-07 0)
(1.42619e-07 -2.90787e-07 0)
(1.43228e-07 -2.97451e-07 0)
(1.45018e-07 -3.04083e-07 0)
(1.47717e-07 -3.10696e-07 0)
(1.50929e-07 -3.17422e-07 0)
(1.29764e-07 -2.50061e-07 0)
(1.16849e-07 -2.67449e-07 0)
(1.08744e-07 -2.79301e-07 0)
(1.04014e-07 -2.8915e-07 0)
(1.01626e-07 -2.97382e-07 0)
(1.0085e-07 -3.04874e-07 0)
(1.01252e-07 -3.11908e-07 0)
(1.02526e-07 -3.18776e-07 0)
(1.04478e-07 -3.25589e-07 0)
(1.06811e-07 -3.32465e-07 0)
(7.80035e-08 -2.54706e-07 0)
(7.00083e-08 -2.74093e-07 0)
(6.50178e-08 -2.87222e-07 0)
(6.20815e-08 -2.97937e-07 0)
(6.05705e-08 -3.06719e-07 0)
(6.00599e-08 -3.14572e-07 0)
(6.03016e-08 -3.21877e-07 0)
(6.10876e-08 -3.28937e-07 0)
(6.2269e-08 -3.359e-07 0)
(6.36772e-08 -3.42888e-07 0)
(2.60538e-08 -2.57053e-07 0)
(2.33579e-08 -2.77499e-07 0)
(2.16364e-08 -2.91266e-07 0)
(2.06301e-08 -3.02404e-07 0)
(2.01398e-08 -3.11472e-07 0)
(1.99708e-08 -3.19519e-07 0)
(2.0025e-08 -3.26931e-07 0)
(2.02783e-08 -3.34069e-07 0)
(2.06836e-08 -3.41118e-07 0)
(2.1154e-08 -3.48176e-07 0)
(7.29544e-07 -7.54013e-09 0)
(7.35115e-07 -5.42066e-09 0)
(7.39219e-07 -4.11351e-09 0)
(7.43852e-07 -3.38905e-09 0)
(7.49345e-07 -3.02286e-09 0)
(7.5602e-07 -2.90724e-09 0)
(7.63965e-07 -3.00317e-09 0)
(7.73145e-07 -3.19965e-09 0)
(7.83545e-07 -3.46143e-09 0)
(7.95037e-07 -3.7976e-09 0)
(7.24284e-07 -2.26712e-08 0)
(7.2888e-07 -1.64376e-08 0)
(7.32376e-07 -1.25454e-08 0)
(7.366e-07 -1.04113e-08 0)
(7.41803e-07 -9.43227e-09 0)
(7.48275e-07 -9.13594e-09 0)
(7.56072e-07 -9.35394e-09 0)
(7.65131e-07 -9.95231e-09 0)
(7.75418e-07 -1.08015e-08 0)
(7.86825e-07 -1.1788e-08 0)
(7.13778e-07 -3.79043e-08 0)
(7.16519e-07 -2.79365e-08 0)
(7.18826e-07 -2.17471e-08 0)
(7.22284e-07 -1.82882e-08 0)
(7.26963e-07 -1.66716e-08 0)
(7.33071e-07 -1.62607e-08 0)
(7.40568e-07 -1.66856e-08 0)
(7.4943e-07 -1.76687e-08 0)
(7.59486e-07 -1.90763e-08 0)
(7.70714e-07 -2.07163e-08 0)
(6.98186e-07 -5.33739e-08 0)
(6.98292e-07 -4.0194e-08 0)
(6.98894e-07 -3.20818e-08 0)
(7.01241e-07 -2.75876e-08 0)
(7.05178e-07 -2.54868e-08 0)
(7.10795e-07 -2.49742e-08 0)
(7.17885e-07 -2.55978e-08 0)
(7.26446e-07 -2.69583e-08 0)
(7.36184e-07 -2.88755e-08 0)
(7.47163e-07 -3.11311e-08 0)
(6.77719e-07 -6.91109e-08 0)
(6.74583e-07 -5.34346e-08 0)
(6.73088e-07 -4.38499e-08 0)
(6.74058e-07 -3.86142e-08 0)
(6.77071e-07 -3.62252e-08 0)
(6.82047e-07 -3.5719e-08 0)
(6.8865e-07 -3.65608e-08 0)
(6.96836e-07 -3.82949e-08 0)
(7.06201e-07 -4.06959e-08 0)
(7.16893e-07 -4.35173e-08 0)
(6.52633e-07 -8.51764e-08 0)
(6.45826e-07 -6.78995e-08 0)
(6.41992e-07 -5.73728e-08 0)
(6.41417e-07 -5.17349e-08 0)
(6.43388e-07 -4.92599e-08 0)
(6.47629e-07 -4.88666e-08 0)
(6.53689e-07 -4.99645e-08 0)
(6.61448e-07 -5.20659e-08 0)
(6.70399e-07 -5.49306e-08 0)
(6.80753e-07 -5.82541e-08 0)
(6.23304e-07 -1.01497e-07 0)
(6.12593e-07 -8.36552e-08 0)
(6.06275e-07 -7.27992e-08 0)
(6.04063e-07 -6.71096e-08 0)
(6.04931e-07 -6.47555e-08 0)
(6.08402e-07 -6.46034e-08 0)
(6.13887e-07 -6.60102e-08 0)
(6.21194e-07 -6.84435e-08 0)
(6.29729e-07 -7.17091e-08 0)
(6.39736e-07 -7.54358e-08 0)
(5.90071e-07 -1.17981e-07 0)
(5.75495e-07 -1.0063e-07 0)
(5.6674e-07 -9.01135e-08 0)
(5.62899e-07 -8.48048e-08 0)
(5.62695e-07 -8.28154e-08 0)
(5.65398e-07 -8.30555e-08 0)
(5.70311e-07 -8.48526e-08 0)
(5.7714e-07 -8.76334e-08 0)
(5.85259e-07 -9.12602e-08 0)
(5.94849e-07 -9.52976e-08 0)
(5.53341e-07 -1.34544e-07 0)
(5.35168e-07 -1.18681e-07 0)
(5.24115e-07 -1.09171e-07 0)
(5.18721e-07 -1.04654e-07 0)
(5.17458e-07 -1.03267e-07 0)
(5.19346e-07 -1.04032e-07 0)
(5.2365e-07 -1.06288e-07 0)
(5.29944e-07 -1.09434e-07 0)
(5.37674e-07 -1.13399e-07 0)
(5.46842e-07 -1.17543e-07 0)
(5.13545e-07 -1.51031e-07 0)
(4.92296e-07 -1.37581e-07 0)
(4.7925e-07 -1.29657e-07 0)
(4.72511e-07 -1.26325e-07 0)
(4.70303e-07 -1.25804e-07 0)
(4.7149e-07 -1.27265e-07 0)
(4.75312e-07 -1.30116e-07 0)
(4.81088e-07 -1.33823e-07 0)
(4.88542e-07 -1.38223e-07 0)
(4.97016e-07 -1.42885e-07 0)
(8.07625e-07 -4.11623e-09 0)
(8.21281e-07 -4.25695e-09 0)
(8.35758e-07 -4.37307e-09 0)
(8.51004e-07 -4.4744e-09 0)
(8.66939e-07 -4.56639e-09 0)
(8.835e-07 -4.64534e-09 0)
(9.0062e-07 -4.68446e-09 0)
(9.18254e-07 -4.69493e-09 0)
(9.36376e-07 -4.69978e-09 0)
(9.54935e-07 -4.6927e-09 0)
(9.73878e-07 -4.6626e-09 0)
(9.93167e-07 -4.60408e-09 0)
(1.01276e-06 -4.51145e-09 0)
(1.03262e-06 -4.38429e-09 0)
(1.05271e-06 -4.22552e-09 0)
(1.07297e-06 -4.03417e-09 0)
(1.09337e-06 -3.8039e-09 0)
(1.11386e-06 -3.5211e-09 0)
(1.13437e-06 -3.17944e-09 0)
(1.15481e-06 -2.77722e-09 0)
(7.99747e-07 -1.26673e-08 0)
(8.14046e-07 -1.30259e-08 0)
(8.29101e-07 -1.3352e-08 0)
(8.44859e-07 -1.36417e-08 0)
(8.61244e-07 -1.38612e-08 0)
(8.78199e-07 -1.4033e-08 0)
(8.9569e-07 -1.41488e-08 0)
(9.13677e-07 -1.42172e-08 0)
(9.32123e-07 -1.42428e-08 0)
(9.50972e-07 -1.4199e-08 0)
(9.70183e-07 -1.40765e-08 0)
(9.89727e-07 -1.38804e-08 0)
(1.00956e-06 -1.36025e-08 0)
(1.02966e-06 -1.3232e-08 0)
(1.04996e-06 -1.27606e-08 0)
(1.07043e-06 -1.21796e-08 0)
(1.09103e-06 -1.14723e-08 0)
(1.1117e-06 -1.06123e-08 0)
(1.1324e-06 -9.57608e-09 0)
(1.15301e-06 -8.3624e-09 0)
(7.84302e-07 -2.20768e-08 0)
(7.99871e-07 -2.25246e-08 0)
(8.1605e-07 -2.29319e-08 0)
(8.32784e-07 -2.33118e-08 0)
(8.50061e-07 -2.3609e-08 0)
(8.67824e-07 -2.38497e-08 0)
(8.86045e-07 -2.40032e-08 0)
(9.04685e-07 -2.40698e-08 0)
(9.23731e-07 -2.40573e-08 0)
(9.43131e-07 -2.39415e-08 0)
(9.62863e-07 -2.37164e-08 0)
(9.82891e-07 -2.33823e-08 0)
(1.00318e-06 -2.29168e-08 0)
(1.02369e-06 -2.22975e-08 0)
(1.04439e-06 -2.15126e-08 0)
(1.06525e-06 -2.05473e-08 0)
(1.08623e-06 -1.93704e-08 0)
(1.10727e-06 -1.79453e-08 0)
(1.12834e-06 -1.62225e-08 0)
(1.14933e-06 -1.42096e-08 0)
(7.617e-07 -3.28115e-08 0)
(7.79074e-07 -3.31527e-08 0)
(7.96891e-07 -3.34709e-08 0)
(8.15069e-07 -3.37943e-08 0)
(8.33653e-07 -3.40381e-08 0)
(8.52581e-07 -3.42357e-08 0)
(8.7187e-07 -3.43356e-08 0)
(8.91489e-07 -3.43447e-08 0)
(9.11444e-07 -3.42668e-08 0)
(9.31682e-07 -3.40596e-08 0)
(9.52189e-07 -3.37047e-08 0)
(9.72938e-07 -3.31968e-08 0)
(9.93897e-07 -3.25136e-08 0)
(1.01504e-06 -3.16324e-08 0)
(1.03634e-06 -3.05411e-08 0)
(1.05778e-06 -2.92043e-08 0)
(1.07931e-06 -2.75813e-08 0)
(1.1009e-06 -2.56207e-08 0)
(1.12249e-06 -2.32424e-08 0)
(1.14403e-06 -2.04816e-08 0)
(7.32638e-07 -4.52856e-08 0)
(7.52296e-07 -4.52383e-08 0)
(7.72187e-07 -4.52421e-08 0)
(7.92184e-07 -4.53417e-08 0)
(8.12432e-07 -4.53898e-08 0)
(8.32863e-07 -4.54359e-08 0)
(8.53528e-07 -4.54027e-08 0)
(8.74411e-07 -4.52906e-08 0)
(8.95517e-07 -4.50775e-08 0)
(9.1682e-07 -4.47134e-08 0)
(9.38322e-07 -4.41851e-08 0)
(9.60004e-07 -4.34807e-08 0)
(9.81845e-07 -4.25691e-08 0)
(1.00383e-06 -4.14192e-08 0)
(1.02593e-06 -4.00124e-08 0)
(1.04813e-06 -3.83002e-08 0)
(1.07039e-06 -3.62328e-08 0)
(1.09269e-06 -3.37484e-08 0)
(1.115e-06 -3.07444e-08 0)
(1.13725e-06 -2.72743e-08 0)
(6.97879e-07 -5.9841e-08 0)
(7.20175e-07 -5.90681e-08 0)
(7.4253e-07 -5.8466e-08 0)
(7.64703e-07 -5.81283e-08 0)
(7.86942e-07 -5.78184e-08 0)
(8.09181e-07 -5.75797e-08 0)
(8.31479e-07 -5.72828e-08 0)
(8.53878e-07 -5.69414e-08 0)
(8.76373e-07 -5.65144e-08 0)
(8.98972e-07 -5.59402e-08 0)
(9.21684e-07 -5.5201e-08 0)
(9.44498e-07 -5.42748e-08 0)
(9.67402e-07 -5.31181e-08 0)
(9.90385e-07 -5.1694e-08 0)
(1.01345e-06 -4.99686e-08 0)
(1.03656e-06 -4.78899e-08 0)
(1.05973e-06 -4.5391e-08 0)
(1.08288e-06 -4.24087e-08 0)
(1.10607e-06 -3.88258e-08 0)
(1.12917e-06 -3.4683e-08 0)
(6.58404e-07 -7.65902e-08 0)
(6.83592e-07 -7.47907e-08 0)
(7.08685e-07 -7.33167e-08 0)
(7.33286e-07 -7.23061e-08 0)
(7.57739e-07 -7.14321e-08 0)
(7.81999e-07 -7.07381e-08 0)
(8.06161e-07 -7.00601e-08 0)
(8.30279e-07 -6.93885e-08 0)
(8.54367e-07 -6.86678e-08 0)
(8.78451e-07 -6.78305e-08 0)
(9.0255e-07 -6.68379e-08 0)
(9.26665e-07 -6.56536e-08 0)
(9.508e-07 -6.42251e-08 0)
(9.74957e-07 -6.25126e-08 0)
(9.99146e-07 -6.04683e-08 0)
(1.02333e-06 -5.80323e-08 0)
(1.04754e-06 -5.51215e-08 0)
(1.07171e-06 -5.16657e-08 0)
(1.09589e-06 -4.75425e-08 0)
(1.11997e-06 -4.27749e-08 0)
(6.15092e-07 -9.56661e-08 0)
(6.43287e-07 -9.24003e-08 0)
(6.71322e-07 -8.9712e-08 0)
(6.98552e-07 -8.77508e-08 0)
(7.25459e-07 -8.61343e-08 0)
(7.51931e-07 -8.48221e-08 0)
(7.7816e-07 -8.36594e-08 0)
(8.04165e-07 -8.25772e-08 0)
(8.30008e-07 -8.14956e-08 0)
(8.55725e-07 -8.03412e-08 0)
(8.81352e-07 -7.90565e-08 0)
(9.06907e-07 -7.75896e-08 0)
(9.32408e-07 -7.58784e-08 0)
(9.57876e-07 -7.38747e-08 0)
(9.83318e-07 -7.15184e-08 0)
(1.00872e-06 -6.87363e-08 0)
(1.03409e-06 -6.54386e-08 0)
(1.05939e-06 -6.15379e-08 0)
(1.08467e-06 -5.69132e-08 0)
(1.10984e-06 -5.15756e-08 0)
(5.68867e-07 -1.16988e-07 0)
(6.0009e-07 -1.12037e-07 0)
(6.31105e-07 -1.07991e-07 0)
(6.61062e-07 -1.04827e-07 0)
(6.90505e-07 -1.02241e-07 0)
(7.19349e-07 -1.00097e-07 0)
(7.47771e-07 -9.82646e-08 0)
(7.75811e-07 -9.66223e-08 0)
(8.03551e-07 -9.50753e-08 0)
(8.3104e-07 -9.35255e-08 0)
(8.5833e-07 -9.18941e-08 0)
(8.85461e-07 -9.01118e-08 0)
(9.12463e-07 -8.8104e-08 0)
(9.39368e-07 -8.58086e-08 0)
(9.66182e-07 -8.31489e-08 0)
(9.92903e-07 -8.00319e-08 0)
(1.01955e-06 -7.637e-08 0)
(1.0461e-06 -7.20505e-08 0)
(1.07259e-06 -6.69711e-08 0)
(1.09898e-06 -6.11238e-08 0)
(5.2077e-07 -1.40318e-07 0)
(5.55623e-07 -1.32723e-07 0)
(5.89764e-07 -1.27002e-07 0)
(6.22617e-07 -1.22473e-07 0)
(6.5459e-07 -1.18868e-07 0)
(6.85821e-07 -1.15882e-07 0)
(7.1642e-07 -1.13354e-07 0)
(7.46502e-07 -1.11126e-07 0)
(7.76153e-07 -1.09089e-07 0)
(8.0544e-07 -1.07124e-07 0)
(8.34427e-07 -1.05136e-07 0)
(8.63169e-07 -1.03039e-07 0)
(8.91706e-07 -1.00743e-07 0)
(9.20077e-07 -9.81718e-08 0)
(9.48295e-07 -9.52333e-08 0)
(9.76375e-07 -9.18187e-08 0)
(1.00435e-06 -8.78461e-08 0)
(1.0322e-06 -8.31613e-08 0)
(1.05999e-06 -7.76889e-08 0)
(1.08769e-06 -7.13893e-08 0)
(4.83347e-07 -1.64849e-07 0)
(5.21197e-07 -1.54513e-07 0)
(5.57605e-07 -1.4716e-07 0)
(5.92761e-07 -1.4115e-07 0)
(6.26758e-07 -1.36362e-07 0)
(6.59827e-07 -1.32401e-07 0)
(6.92086e-07 -1.29049e-07 0)
(7.23686e-07 -1.26127e-07 0)
(7.54721e-07 -1.2349e-07 0)
(7.8528e-07 -1.21001e-07 0)
(8.15447e-07 -1.18551e-07 0)
(8.45286e-07 -1.16044e-07 0)
(8.74845e-07 -1.13375e-07 0)
(9.04173e-07 -1.10461e-07 0)
(9.33286e-07 -1.072e-07 0)
(9.62219e-07 -1.03467e-07 0)
(9.91004e-07 -9.91982e-08 0)
(1.01966e-06 -9.42044e-08 0)
(1.04825e-06 -8.84157e-08 0)
(1.07674e-06 -8.1761e-08 0)
(4.63052e-07 -1.85669e-07 0)
(5.01415e-07 -1.74931e-07 0)
(5.38253e-07 -1.66624e-07 0)
(5.74125e-07 -1.59673e-07 0)
(6.08894e-07 -1.53957e-07 0)
(6.42751e-07 -1.49147e-07 0)
(6.75787e-07 -1.45026e-07 0)
(7.08115e-07 -1.41412e-07 0)
(7.39822e-07 -1.38143e-07 0)
(7.70997e-07 -1.35078e-07 0)
(8.01724e-07 -1.3211e-07 0)
(8.32067e-07 -1.29129e-07 0)
(8.62075e-07 -1.26025e-07 0)
(8.91801e-07 -1.22714e-07 0)
(9.21262e-07 -1.19086e-07 0)
(9.50519e-07 -1.15014e-07 0)
(9.79585e-07 -1.10447e-07 0)
(1.00852e-06 -1.05187e-07 0)
(1.03736e-06 -9.9146e-08 0)
(1.06608e-06 -9.22435e-08 0)
(4.46723e-07 -2.05105e-07 0)
(4.84693e-07 -1.94269e-07 0)
(5.21609e-07 -1.85488e-07 0)
(5.57736e-07 -1.77937e-07 0)
(5.92907e-07 -1.71535e-07 0)
(6.27235e-07 -1.66026e-07 0)
(6.60771e-07 -1.6123e-07 0)
(6.93594e-07 -1.56972e-07 0)
(7.25777e-07 -1.53096e-07 0)
(7.57403e-07 -1.4947e-07 0)
(7.88547e-07 -1.45988e-07 0)
(8.19268e-07 -1.42534e-07 0)
(8.49614e-07 -1.38994e-07 0)
(8.79641e-07 -1.35288e-07 0)
(9.09371e-07 -1.31305e-07 0)
(9.38878e-07 -1.26917e-07 0)
(9.68171e-07 -1.22073e-07 0)
(9.97323e-07 -1.16586e-07 0)
(1.02636e-06 -1.10344e-07 0)
(1.05528e-06 -1.03277e-07 0)
(4.32634e-07 -2.24033e-07 0)
(4.70133e-07 -2.13263e-07 0)
(5.06822e-07 -2.04164e-07 0)
(5.42915e-07 -1.96123e-07 0)
(5.78189e-07 -1.8913e-07 0)
(6.12738e-07 -1.82999e-07 0)
(6.46553e-07 -1.77582e-07 0)
(6.79691e-07 -1.72717e-07 0)
(7.12208e-07 -1.68262e-07 0)
(7.44167e-07 -1.64096e-07 0)
(7.75631e-07 -1.60114e-07 0)
(8.06652e-07 -1.56198e-07 0)
(8.37274e-07 -1.52234e-07 0)
(8.67556e-07 -1.4815e-07 0)
(8.97523e-07 -1.43829e-07 0)
(9.27252e-07 -1.39153e-07 0)
(9.56755e-07 -1.34061e-07 0)
(9.86108e-07 -1.28379e-07 0)
(1.01532e-06 -1.21988e-07 0)
(1.04444e-06 -1.14837e-07 0)
(4.20537e-07 -2.42058e-07 0)
(4.57439e-07 -2.31471e-07 0)
(4.93751e-07 -2.22252e-07 0)
(5.29613e-07 -2.13918e-07 0)
(5.64809e-07 -2.06499e-07 0)
(5.99389e-07 -1.99879e-07 0)
(6.33311e-07 -1.93936e-07 0)
(6.66614e-07 -1.88534e-07 0)
(6.9933e-07 -1.83551e-07 0)
(7.31508e-07 -1.78881e-07 0)
(7.63194e-07 -1.74427e-07 0)
(7.94431e-07 -1.70068e-07 0)
(8.25264e-07 -1.657e-07 0)
(8.55747e-07 -1.61262e-07 0)
(8.85907e-07 -1.56623e-07 0)
(9.1582e-07 -1.51691e-07 0)
(9.455e-07 -1.46381e-07 0)
(9.75023e-07 -1.40539e-07 0)
(1.00439e-06 -1.34053e-07 0)
(1.03371e-06 -1.2689e-07 0)
(4.09995e-07 -2.59449e-07 0)
(4.46287e-07 -2.49087e-07 0)
(4.82157e-07 -2.39839e-07 0)
(5.17671e-07 -2.31312e-07 0)
(5.52663e-07 -2.23578e-07 0)
(5.8713e-07 -2.16565e-07 0)
(6.21028e-07 -2.10177e-07 0)
(6.54374e-07 -2.04311e-07 0)
(6.87181e-07 -1.98858e-07 0)
(7.19477e-07 -1.93729e-07 0)
(7.51299e-07 -1.8884e-07 0)
(7.82679e-07 -1.84072e-07 0)
(8.1366e-07 -1.7933e-07 0)
(8.44294e-07 -1.74566e-07 0)
(8.74602e-07 -1.69637e-07 0)
(9.0466e-07 -1.64479e-07 0)
(9.34484e-07 -1.58987e-07 0)
(9.64145e-07 -1.53024e-07 0)
(9.93667e-07 -1.46499e-07 0)
(1.02316e-06 -1.39376e-07 0)
(4.00764e-07 -2.76203e-07 0)
(4.36454e-07 -2.66091e-07 0)
(4.71834e-07 -2.56888e-07 0)
(5.06945e-07 -2.48261e-07 0)
(5.41645e-07 -2.40313e-07 0)
(5.75907e-07 -2.32994e-07 0)
(6.09686e-07 -2.26245e-07 0)
(6.42979e-07 -2.19987e-07 0)
(6.75782e-07 -2.14122e-07 0)
(7.08109e-07 -2.08585e-07 0)
(7.39988e-07 -2.03301e-07 0)
(7.71443e-07 -1.98159e-07 0)
(8.02515e-07 -1.93077e-07 0)
(8.33246e-07 -1.88021e-07 0)
(8.6366e-07 -1.82832e-07 0)
(8.93823e-07 -1.77478e-07 0)
(9.23756e-07 -1.71839e-07 0)
(9.5353e-07 -1.65801e-07 0)
(9.83199e-07 -1.59282e-07 0)
(1.01283e-06 -1.52239e-07 0)
(3.9262e-07 -2.92414e-07 0)
(4.27735e-07 -2.82553e-07 0)
(4.62605e-07 -2.73432e-07 0)
(4.97289e-07 -2.64767e-07 0)
(5.31638e-07 -2.56671e-07 0)
(5.65633e-07 -2.49119e-07 0)
(5.99219e-07 -2.42083e-07 0)
(6.32379e-07 -2.35497e-07 0)
(6.65099e-07 -2.29278e-07 0)
(6.97385e-07 -2.23381e-07 0)
(7.29257e-07 -2.17748e-07 0)
(7.60731e-07 -2.12274e-07 0)
(7.91845e-07 -2.06891e-07 0)
(8.22631e-07 -2.01574e-07 0)
(8.53112e-07 -1.96163e-07 0)
(8.8335e-07 -1.90643e-07 0)
(9.13367e-07 -1.84896e-07 0)
(9.43244e-07 -1.78825e-07 0)
(9.73027e-07 -1.72348e-07 0)
(1.00277e-06 -1.65428e-07 0)
(3.85369e-07 -3.0813e-07 0)
(4.19923e-07 -2.98515e-07 0)
(4.54296e-07 -2.89497e-07 0)
(4.88535e-07 -2.80836e-07 0)
(5.22508e-07 -2.72641e-07 0)
(5.56195e-07 -2.64919e-07 0)
(5.89536e-07 -2.57656e-07 0)
(6.22506e-07 -2.50799e-07 0)
(6.55087e-07 -2.4428e-07 0)
(6.87283e-07 -2.38077e-07 0)
(7.19104e-07 -2.32143e-07 0)
(7.50558e-07 -2.2638e-07 0)
(7.81679e-07 -2.20736e-07 0)
(8.1249e-07 -2.15192e-07 0)
(8.43012e-07 -2.09594e-07 0)
(8.73305e-07 -2.03942e-07 0)
(9.03389e-07 -1.98124e-07 0)
(9.33356e-07 -1.92053e-07 0)
(9.63211e-07 -1.85651e-07 0)
(9.93053e-07 -1.78897e-07 0)
(3.78855e-07 -3.23407e-07 0)
(4.12866e-07 -3.14026e-07 0)
(4.46763e-07 -3.05122e-07 0)
(4.80552e-07 -2.96486e-07 0)
(5.14142e-07 -2.88235e-07 0)
(5.47499e-07 -2.80391e-07 0)
(5.80565e-07 -2.72951e-07 0)
(6.13315e-07 -2.65873e-07 0)
(6.45725e-07 -2.59106e-07 0)
(6.77802e-07 -2.52646e-07 0)
(7.09543e-07 -2.46457e-07 0)
(7.40951e-07 -2.40446e-07 0)
(7.72052e-07 -2.3458e-07 0)
(8.02861e-07 -2.28844e-07 0)
(8.33401e-07 -2.23092e-07 0)
(8.63728e-07 -2.17341e-07 0)
(8.93863e-07 -2.11486e-07 0)
(9.23884e-07 -2.0544e-07 0)
(9.53787e-07 -1.99148e-07 0)
(9.83723e-07 -1.92602e-07 0)
(3.72929e-07 -3.38299e-07 0)
(4.06436e-07 -3.29135e-07 0)
(4.3987e-07 -3.20345e-07 0)
(4.7323e-07 -3.11753e-07 0)
(5.06442e-07 -3.03478e-07 0)
(5.39466e-07 -2.95547e-07 0)
(5.72248e-07 -2.8797e-07 0)
(6.04766e-07 -2.80714e-07 0)
(6.3699e-07 -2.73744e-07 0)
(6.68928e-07 -2.67071e-07 0)
(7.00565e-07 -2.60668e-07 0)
(7.31903e-07 -2.54448e-07 0)
(7.6296e-07 -2.48392e-07 0)
(7.93747e-07 -2.42496e-07 0)
(8.24285e-07 -2.36622e-07 0)
(8.54626e-07 -2.30801e-07 0)
(8.84789e-07 -2.24933e-07 0)
(9.14825e-07 -2.1894e-07 0)
(9.44781e-07 -2.12795e-07 0)
(9.74774e-07 -2.06488e-07 0)
(3.67477e-07 -3.52854e-07 0)
(4.00516e-07 -3.43888e-07 0)
(4.33511e-07 -3.3521e-07 0)
(4.66471e-07 -3.26676e-07 0)
(4.99318e-07 -3.18397e-07 0)
(5.32014e-07 -3.10402e-07 0)
(5.64515e-07 -3.0272e-07 0)
(5.96795e-07 -2.95322e-07 0)
(6.28826e-07 -2.88188e-07 0)
(6.60613e-07 -2.81338e-07 0)
(6.92136e-07 -2.74755e-07 0)
(7.23394e-07 -2.6836e-07 0)
(7.54398e-07 -2.62146e-07 0)
(7.85157e-07 -2.56119e-07 0)
(8.15685e-07 -2.5015e-07 0)
(8.46028e-07 -2.44282e-07 0)
(8.76194e-07 -2.3842e-07 0)
(9.06237e-07 -2.32515e-07 0)
(9.36239e-07 -2.26545e-07 0)
(9.66256e-07 -2.2049e-07 0)
(3.62406e-07 -3.67108e-07 0)
(3.95009e-07 -3.58325e-07 0)
(4.27599e-07 -3.49758e-07 0)
(4.60181e-07 -3.41285e-07 0)
(4.92678e-07 -3.33011e-07 0)
(5.25057e-07 -3.2497e-07 0)
(5.57289e-07 -3.17209e-07 0)
(5.89339e-07 -3.09702e-07 0)
(6.21191e-07 -3.02438e-07 0)
(6.52834e-07 -2.95446e-07 0)
(6.84251e-07 -2.88717e-07 0)
(7.15432e-07 -2.82179e-07 0)
(7.46383e-07 -2.75837e-07 0)
(7.77109e-07 -2.69703e-07 0)
(8.07616e-07 -2.63661e-07 0)
(8.37947e-07 -2.57762e-07 0)
(8.68092e-07 -2.51928e-07 0)
(8.98153e-07 -2.46133e-07 0)
(9.28153e-07 -2.40358e-07 0)
(9.5819e-07 -2.34579e-07 0)
(3.5762e-07 -3.81092e-07 0)
(3.89822e-07 -3.72483e-07 0)
(4.22038e-07 -3.6402e-07 0)
(4.5426e-07 -3.55606e-07 0)
(4.86433e-07 -3.47343e-07 0)
(5.18521e-07 -3.39277e-07 0)
(5.50513e-07 -3.31464e-07 0)
(5.82359e-07 -3.23879e-07 0)
(6.1405e-07 -3.16515e-07 0)
(6.45556e-07 -3.09406e-07 0)
(6.76868e-07 -3.02553e-07 0)
(7.07971e-07 -2.95893e-07 0)
(7.38869e-07 -2.89439e-07 0)
(7.6956e-07 -2.83216e-07 0)
(8.00042e-07 -2.77114e-07 0)
(8.3035e-07 -2.71196e-07 0)
(8.6048e-07 -2.65411e-07 0)
(8.90545e-07 -2.5974e-07 0)
(9.20517e-07 -2.54173e-07 0)
(9.50569e-07 -2.48719e-07 0)
(3.53015e-07 -3.94849e-07 0)
(3.8485e-07 -3.86403e-07 0)
(4.16716e-07 -3.78029e-07 0)
(4.48612e-07 -3.69674e-07 0)
(4.80501e-07 -3.61434e-07 0)
(5.12338e-07 -3.53364e-07 0)
(5.44115e-07 -3.45512e-07 0)
(5.75777e-07 -3.37865e-07 0)
(6.07321e-07 -3.30418e-07 0)
(6.38713e-07 -3.23212e-07 0)
(6.69943e-07 -3.1626e-07 0)
(7.00992e-07 -3.09501e-07 0)
(7.31857e-07 -3.02957e-07 0)
(7.62527e-07 -2.96657e-07 0)
(7.92993e-07 -2.90503e-07 0)
(8.23285e-07 -2.84575e-07 0)
(8.53422e-07 -2.78846e-07 0)
(8.83466e-07 -2.73309e-07 0)
(9.13428e-07 -2.67973e-07 0)
(9.43462e-07 -2.62857e-07 0)
(3.48494e-07 -4.08417e-07 0)
(3.79985e-07 -4.00108e-07 0)
(4.11535e-07 -3.9182e-07 0)
(4.43154e-07 -3.83531e-07 0)
(4.74799e-07 -3.75323e-07 0)
(5.06426e-07 -3.67258e-07 0)
(5.38014e-07 -3.59378e-07 0)
(5.69533e-07 -3.51687e-07 0)
(6.00959e-07 -3.4418e-07 0)
(6.32265e-07 -3.369e-07 0)
(6.63438e-07 -3.29868e-07 0)
(6.94455e-07 -3.23027e-07 0)
(7.25302e-07 -3.164e-07 0)
(7.55965e-07 -3.10023e-07 0)
(7.86434e-07 -3.03814e-07 0)
(8.16741e-07 -2.97885e-07 0)
(8.46893e-07 -2.92214e-07 0)
(8.76917e-07 -2.86808e-07 0)
(9.06876e-07 -2.81714e-07 0)
(9.36876e-07 -2.76952e-07 0)
(3.43946e-07 -4.2183e-07 0)
(3.75127e-07 -4.13637e-07 0)
(4.06403e-07 -4.0543e-07 0)
(4.37797e-07 -3.97214e-07 0)
(4.6923e-07 -3.89042e-07 0)
(5.00691e-07 -3.80988e-07 0)
(5.32133e-07 -3.73098e-07 0)
(5.63539e-07 -3.6537e-07 0)
(5.9488e-07 -3.5781e-07 0)
(6.26135e-07 -3.50474e-07 0)
(6.57285e-07 -3.43381e-07 0)
(6.88299e-07 -3.36466e-07 0)
(7.1916e-07 -3.29756e-07 0)
(7.49852e-07 -3.23309e-07 0)
(7.80364e-07 -3.17063e-07 0)
(8.10733e-07 -3.11125e-07 0)
(8.40914e-07 -3.05489e-07 0)
(8.70959e-07 -3.00197e-07 0)
(9.00892e-07 -2.95338e-07 0)
(9.3088e-07 -2.90952e-07 0)
(3.39269e-07 -4.35093e-07 0)
(3.70202e-07 -4.27029e-07 0)
(4.01268e-07 -4.18908e-07 0)
(4.32456e-07 -4.10758e-07 0)
(4.63733e-07 -4.02634e-07 0)
(4.95058e-07 -3.9459e-07 0)
(5.26404e-07 -3.86692e-07 0)
(5.57741e-07 -3.7895e-07 0)
(5.89045e-07 -3.71367e-07 0)
(6.20294e-07 -3.6399e-07 0)
(6.51457e-07 -3.56837e-07 0)
(6.82499e-07 -3.49852e-07 0)
(7.13412e-07 -3.43072e-07 0)
(7.44189e-07 -3.36566e-07 0)
(7.74806e-07 -3.30282e-07 0)
(8.05263e-07 -3.24313e-07 0)
(8.35516e-07 -3.18675e-07 0)
(8.65662e-07 -3.13473e-07 0)
(8.95617e-07 -3.08845e-07 0)
(9.25552e-07 -3.04839e-07 0)
(3.34385e-07 -4.48293e-07 0)
(3.65081e-07 -4.40323e-07 0)
(3.95982e-07 -4.32288e-07 0)
(4.27026e-07 -4.24208e-07 0)
(4.58182e-07 -4.16115e-07 0)
(4.89416e-07 -4.0809e-07 0)
(5.20712e-07 -4.00202e-07 0)
(5.52036e-07 -3.92462e-07 0)
(5.83352e-07 -3.84862e-07 0)
(6.14626e-07 -3.77445e-07 0)
(6.45837e-07 -3.70237e-07 0)
(6.76967e-07 -3.63198e-07 0)
(7.07996e-07 -3.56377e-07 0)
(7.38894e-07 -3.49818e-07 0)
(7.6966e-07 -3.43453e-07 0)
(8.00287e-07 -3.37428e-07 0)
(8.30731e-07 -3.3181e-07 0)
(8.61028e-07 -3.26636e-07 0)
(8.91115e-07 -3.22136e-07 0)
(9.21058e-07 -3.18491e-07 0)
(3.2927e-07 -4.61401e-07 0)
(3.59808e-07 -4.53544e-07 0)
(3.90572e-07 -4.45594e-07 0)
(4.21512e-07 -4.37567e-07 0)
(4.52603e-07 -4.2952e-07 0)
(4.8382e-07 -4.21536e-07 0)
(5.15126e-07 -4.13684e-07 0)
(5.46479e-07 -4.05952e-07 0)
(5.77846e-07 -3.98324e-07 0)
(6.09204e-07 -3.90881e-07 0)
(6.40523e-07 -3.83667e-07 0)
(6.7177e-07 -3.76597e-07 0)
(7.02947e-07 -3.69701e-07 0)
(7.34029e-07 -3.63092e-07 0)
(7.64998e-07 -3.56704e-07 0)
(7.95861e-07 -3.50616e-07 0)
(8.26612e-07 -3.44947e-07 0)
(8.5718e-07 -3.39734e-07 0)
(8.87584e-07 -3.35265e-07 0)
(9.17726e-07 -3.31863e-07 0)
(2.11917e-08 -3.55331e-07 0)
(6.3769e-08 -3.50282e-07 0)
(1.06857e-07 -3.40312e-07 0)
(1.50784e-07 -3.25914e-07 0)
(1.95752e-07 -3.0766e-07 0)
(2.41877e-07 -2.86189e-07 0)
(2.89167e-07 -2.62404e-07 0)
(3.37487e-07 -2.37021e-07 0)
(3.86926e-07 -2.10865e-07 0)
(4.36882e-07 -1.84474e-07 0)
(2.07003e-08 -3.62789e-07 0)
(6.22677e-08 -3.58156e-07 0)
(1.04233e-07 -3.49018e-07 0)
(1.46872e-07 -3.35782e-07 0)
(1.90349e-07 -3.18959e-07 0)
(2.34732e-07 -2.99078e-07 0)
(2.80067e-07 -2.76888e-07 0)
(3.26061e-07 -2.53077e-07 0)
(3.72878e-07 -2.28311e-07 0)
(4.19475e-07 -2.03616e-07 0)
(2.02373e-08 -3.7037e-07 0)
(6.08444e-08 -3.66122e-07 0)
(1.01771e-07 -3.57729e-07 0)
(1.43207e-07 -3.45549e-07 0)
(1.85314e-07 -3.3003e-07 0)
(2.281e-07 -3.1166e-07 0)
(2.71647e-07 -2.91062e-07 0)
(3.15669e-07 -2.6888e-07 0)
(3.60383e-07 -2.4558e-07 0)
(4.0485e-07 -2.22308e-07 0)
(1.984e-08 -3.78098e-07 0)
(5.96017e-08 -3.74176e-07 0)
(9.96425e-08 -3.66431e-07 0)
(1.40068e-07 -3.55171e-07 0)
(1.81029e-07 -3.40801e-07 0)
(2.22498e-07 -3.23761e-07 0)
(2.64551e-07 -3.0457e-07 0)
(3.06903e-07 -2.83867e-07 0)
(3.49713e-07 -2.62036e-07 0)
(3.92255e-07 -2.40237e-07 0)
(1.94826e-08 -3.85985e-07 0)
(5.84766e-08 -3.82358e-07 0)
(9.7704e-08 -3.7521e-07 0)
(1.37223e-07 -3.64788e-07 0)
(1.77163e-07 -3.51456e-07 0)
(2.17478e-07 -3.35644e-07 0)
(2.58238e-07 -3.17789e-07 0)
(2.99204e-07 -2.98451e-07 0)
(3.40447e-07 -2.77978e-07 0)
(3.81425e-07 -2.57461e-07 0)
(1.91435e-08 -3.94026e-07 0)
(5.74591e-08 -3.90652e-07 0)
(9.59488e-08 -3.84014e-07 0)
(1.34672e-07 -3.74351e-07 0)
(1.73721e-07 -3.61952e-07 0)
(2.13056e-07 -3.47238e-07 0)
(2.52688e-07 -3.30607e-07 0)
(2.92447e-07 -3.12537e-07 0)
(3.32339e-07 -2.93364e-07 0)
(3.71965e-07 -2.74083e-07 0)
(1.88255e-08 -4.02206e-07 0)
(5.65137e-08 -3.99076e-07 0)
(9.43312e-08 -3.92896e-07 0)
(1.3234e-07 -3.83924e-07 0)
(1.70584e-07 -3.72376e-07 0)
(2.09059e-07 -3.58662e-07 0)
(2.47728e-07 -3.43151e-07 0)
(2.86455e-07 -3.26246e-07 0)
(3.25208e-07 -3.08273e-07 0)
(3.63683e-07 -2.90137e-07 0)
(1.85406e-08 -4.10532e-07 0)
(5.56328e-08 -4.07618e-07 0)
(9.28356e-08 -4.01852e-07 0)
(1.30192e-07 -3.93503e-07 0)
(1.6772e-07 -3.82731e-07 0)
(2.05424e-07 -3.69923e-07 0)
(2.43247e-07 -3.55437e-07 0)
(2.81083e-07 -3.39608e-07 0)
(3.1887e-07 -3.22756e-07 0)
(3.56372e-07 -3.05694e-07 0)
(1.82676e-08 -4.19005e-07 0)
(5.47996e-08 -4.16281e-07 0)
(9.14351e-08 -4.10895e-07 0)
(1.2818e-07 -4.03107e-07 0)
(1.65062e-07 -3.93047e-07 0)
(2.02081e-07 -3.81064e-07 0)
(2.39151e-07 -3.67512e-07 0)
(2.76208e-07 -3.52679e-07 0)
(3.13171e-07 -3.36867e-07 0)
(3.49852e-07 -3.20806e-07 0)
(1.79935e-08 -4.27608e-07 0)
(5.40058e-08 -4.25069e-07 0)
(9.01025e-08 -4.20027e-07 0)
(1.26281e-07 -4.12739e-07 0)
(1.62559e-07 -4.03338e-07 0)
(1.98955e-07 -3.9211e-07 0)
(2.35356e-07 -3.79407e-07 0)
(2.71729e-07 -3.65496e-07 0)
(3.0799e-07 -3.50653e-07 0)
(3.4397e-07 -3.35523e-07 0)
(1.77281e-08 -4.36331e-07 0)
(5.32477e-08 -4.33981e-07 0)
(8.88152e-08 -4.29249e-07 0)
(1.24463e-07 -4.2241e-07 0)
(1.60173e-07 -4.13611e-07 0)
(1.9599e-07 -4.03079e-07 0)
(2.31796e-07 -3.91154e-07 0)
(2.67567e-07 -3.78097e-07 0)
(3.03225e-07 -3.64152e-07 0)
(3.38604e-07 -3.49893e-07 0)
(1.74791e-08 -4.45181e-07 0)
(5.25102e-08 -4.43008e-07 0)
(8.75545e-08 -4.38557e-07 0)
(1.22695e-07 -4.32127e-07 0)
(1.5787e-07 -4.23877e-07 0)
(1.93143e-07 -4.13986e-07 0)
(2.28415e-07 -4.02779e-07 0)
(2.63653e-07 -3.90511e-07 0)
(2.98784e-07 -3.77398e-07 0)
(3.33652e-07 -3.63954e-07 0)
(1.7237e-08 -4.5416e-07 0)
(5.17672e-08 -4.52133e-07 0)
(8.62969e-08 -4.47944e-07 0)
(1.20939e-07 -4.41892e-07 0)
(1.55606e-07 -4.3414e-07 0)
(1.90367e-07 -4.2484e-07 0)
(2.2515e-07 -4.14303e-07 0)
(2.5991e-07 -4.02763e-07 0)
(2.94577e-07 -3.90421e-07 0)
(3.29029e-07 -3.77744e-07 0)
(1.69867e-08 -4.63251e-07 0)
(5.09996e-08 -4.61338e-07 0)
(8.50196e-08 -4.57402e-07 0)
(1.19159e-07 -4.51698e-07 0)
(1.53336e-07 -4.44401e-07 0)
(1.87615e-07 -4.35651e-07 0)
(2.21941e-07 -4.25736e-07 0)
(2.56264e-07 -4.14877e-07 0)
(2.90532e-07 -4.03266e-07 0)
(3.24639e-07 -3.91303e-07 0)
(1.67219e-08 -4.72429e-07 0)
(5.02025e-08 -4.70612e-07 0)
(8.37065e-08 -4.6692e-07 0)
(1.17336e-07 -4.6154e-07 0)
(1.5103e-07 -4.54665e-07 0)
(1.84842e-07 -4.46433e-07 0)
(2.18729e-07 -4.37101e-07 0)
(2.52649e-07 -4.26881e-07 0)
(2.86566e-07 -4.15957e-07 0)
(3.20367e-07 -4.0466e-07 0)
(1.64434e-08 -4.81674e-07 0)
(4.93741e-08 -4.79946e-07 0)
(8.23448e-08 -4.76487e-07 0)
(1.15447e-07 -4.71416e-07 0)
(1.48652e-07 -4.64933e-07 0)
(1.81997e-07 -4.57179e-07 0)
(2.15451e-07 -4.48398e-07 0)
(2.49002e-07 -4.38782e-07 0)
(2.82587e-07 -4.28502e-07 0)
(3.16129e-07 -4.17838e-07 0)
(1.61512e-08 -4.90972e-07 0)
(4.85021e-08 -4.89334e-07 0)
(8.09075e-08 -4.86089e-07 0)
(1.13457e-07 -4.81308e-07 0)
(1.46155e-07 -4.75202e-07 0)
(1.79025e-07 -4.67906e-07 0)
(2.12057e-07 -4.59652e-07 0)
(2.45241e-07 -4.5061e-07 0)
(2.78512e-07 -4.40934e-07 0)
(3.11831e-07 -4.3089e-07 0)
(1.58376e-08 -5.00305e-07 0)
(4.75593e-08 -4.98754e-07 0)
(7.93564e-08 -4.95704e-07 0)
(1.11319e-07 -4.9121e-07 0)
(1.43476e-07 -4.85465e-07 0)
(1.75854e-07 -4.78607e-07 0)
(2.08462e-07 -4.70849e-07 0)
(2.41264e-07 -4.62349e-07 0)
(2.74258e-07 -4.53254e-07 0)
(3.07368e-07 -4.43802e-07 0)
(1.54906e-08 -5.09646e-07 0)
(4.65159e-08 -5.08183e-07 0)
(7.76467e-08 -5.05318e-07 0)
(1.08979e-07 -5.01105e-07 0)
(1.40555e-07 -4.95719e-07 0)
(1.72417e-07 -4.89291e-07 0)
(2.04579e-07 -4.82009e-07 0)
(2.37013e-07 -4.74036e-07 0)
(2.69727e-07 -4.65515e-07 0)
(3.02657e-07 -4.56651e-07 0)
(1.51092e-08 -5.18923e-07 0)
(4.5377e-08 -5.17558e-07 0)
(7.57833e-08 -5.14883e-07 0)
(1.06432e-07 -5.1095e-07 0)
(1.37386e-07 -5.05923e-07 0)
(1.6871e-07 -4.99921e-07 0)
(2.004e-07 -4.93114e-07 0)
(2.32488e-07 -4.85649e-07 0)
(2.64925e-07 -4.77687e-07 0)
(2.97728e-07 -4.69417e-07 0)
)


// ************************************************************************* //
