# Time Dx Dy Dz magD
1 0 -3.45149e-07 1.23873e-23 3.45149e-07
2 0 -6.90298e-07 2.47747e-23 6.90298e-07
