/*--------------------------------*- C++ -*----------------------------------*\
| =========                 |                                                 |
| \\      /  F ield         | foam-extend: Open Source CFD                    |
|  \\    /   O peration     | Version:     4.1                                |
|   \\  /    A nd           | Web:         http://www.foam-extend.org         |
|    \\/     M anipulation  |                                                 |
\*---------------------------------------------------------------------------*/
FoamFile
{
    version     2.0;
    format      ascii;
    class       volScalarField;
    location    "3";
    object      epsilonEq;
}
// * * * * * * * * * * * * * * * * * * * * * * * * * * * * * * * * * * * * * //

dimensions      [0 0 0 0 0 0 0];

internalField   nonuniform List<scalar> 
100000
(
5.23072e-06
8.94265e-06
8.42276e-06
8.0533e-06
7.72804e-06
7.42636e-06
7.38642e-06
7.4173e-06
7.22687e-06
6.98753e-06
6.74495e-06
6.0726e-06
5.48313e-06
5.33143e-06
5.18763e-06
5.72692e-06
6.26965e-06
6.0927e-06
5.92307e-06
5.76096e-06
5.6059e-06
5.45957e-06
5.31903e-06
5.18475e-06
5.05665e-06
4.93536e-06
4.82028e-06
4.71163e-06
4.60831e-06
4.50826e-06
4.41198e-06
4.31928e-06
4.23186e-06
4.14768e-06
4.06554e-06
3.98776e-06
3.91379e-06
3.84363e-06
3.7766e-06
3.71204e-06
3.65078e-06
3.59227e-06
3.53616e-06
3.48217e-06
3.43076e-06
3.38099e-06
3.3281e-06
3.2753e-06
2.75292e-06
2.6915e-06
2.70006e-06
2.69149e-06
2.68298e-06
2.67466e-06
2.66642e-06
2.65838e-06
2.65044e-06
2.64265e-06
2.63497e-06
2.6274e-06
2.61998e-06
2.61265e-06
2.60551e-06
2.59844e-06
2.59154e-06
2.58476e-06
2.5781e-06
2.57153e-06
2.56503e-06
2.55863e-06
2.55235e-06
2.54619e-06
2.54012e-06
2.53419e-06
2.52838e-06
2.52264e-06
2.517e-06
2.51143e-06
2.50598e-06
2.50068e-06
2.49545e-06
2.49034e-06
2.48535e-06
2.48045e-06
2.47565e-06
2.47093e-06
2.46626e-06
2.46168e-06
2.45719e-06
2.45278e-06
2.44846e-06
2.44414e-06
2.43976e-06
2.43507e-06
2.42987e-06
2.42283e-06
2.41296e-06
2.39477e-06
2.35414e-06
2.33318e-06
4.53276e-06
8.53339e-06
8.26829e-06
7.9627e-06
7.68521e-06
7.4174e-06
7.18397e-06
7.2032e-06
7.21488e-06
6.97703e-06
6.37729e-06
5.75111e-06
5.47527e-06
5.32348e-06
5.18167e-06
5.26773e-06
5.8515e-06
6.07859e-06
5.91122e-06
5.75215e-06
5.59791e-06
5.44731e-06
5.30023e-06
5.15823e-06
5.02317e-06
4.89463e-06
4.77193e-06
4.65512e-06
4.54432e-06
4.43711e-06
4.33346e-06
4.23312e-06
4.10545e-06
4.0451e-06
3.95657e-06
3.87125e-06
3.79021e-06
3.71297e-06
3.63917e-06
3.56779e-06
3.49953e-06
3.43409e-06
3.3719e-06
3.3125e-06
3.25582e-06
3.20904e-06
3.16712e-06
3.11912e-06
2.49439e-06
2.41344e-06
2.4187e-06
2.41338e-06
2.40808e-06
2.40295e-06
2.39786e-06
2.39288e-06
2.38798e-06
2.38317e-06
2.37845e-06
2.37374e-06
2.36917e-06
2.36467e-06
2.36026e-06
2.35594e-06
2.3517e-06
2.34757e-06
2.34346e-06
2.33935e-06
2.33527e-06
2.33128e-06
2.32734e-06
2.32345e-06
2.31963e-06
2.31589e-06
2.31219e-06
2.30852e-06
2.30484e-06
2.3012e-06
2.29764e-06
2.29414e-06
2.29068e-06
2.28726e-06
2.28388e-06
2.28052e-06
2.27715e-06
2.27375e-06
2.27026e-06
2.26669e-06
2.26303e-06
2.25924e-06
2.25519e-06
2.2507e-06
2.24555e-06
2.23926e-06
2.23139e-06
2.22059e-06
2.20683e-06
2.186e-06
2.16038e-06
2.17313e-06
4.50455e-06
8.52448e-06
8.26076e-06
7.95602e-06
7.67809e-06
7.41342e-06
7.16351e-06
7.00706e-06
7.01867e-06
6.70982e-06
6.01136e-06
5.58739e-06
5.42302e-06
5.2677e-06
5.12155e-06
4.98018e-06
5.29045e-06
5.80546e-06
5.77126e-06
5.60542e-06
5.45732e-06
5.32364e-06
5.18311e-06
5.04122e-06
4.906e-06
4.77698e-06
4.65375e-06
4.53571e-06
4.42434e-06
4.31804e-06
4.21526e-06
4.11597e-06
4.0188e-06
3.92607e-06
3.83871e-06
3.75417e-06
3.67327e-06
3.59598e-06
3.5225e-06
3.45214e-06
3.38528e-06
3.32114e-06
3.25984e-06
3.20119e-06
3.14533e-06
3.09218e-06
3.0437e-06
2.95781e-06
2.31943e-06
2.2154e-06
2.21901e-06
2.22241e-06
2.22553e-06
2.22845e-06
2.23113e-06
2.2336e-06
2.23586e-06
2.23786e-06
2.2397e-06
2.24131e-06
2.24276e-06
2.24403e-06
2.24515e-06
2.24612e-06
2.24695e-06
2.24759e-06
2.24804e-06
2.2483e-06
2.2484e-06
2.24836e-06
2.24819e-06
2.2479e-06
2.24748e-06
2.24695e-06
2.24628e-06
2.24546e-06
2.24451e-06
2.24345e-06
2.24231e-06
2.24106e-06
2.2397e-06
2.23823e-06
2.23665e-06
2.2349e-06
2.23298e-06
2.23092e-06
2.22859e-06
2.22599e-06
2.22307e-06
2.21976e-06
2.21596e-06
2.21146e-06
2.20602e-06
2.19928e-06
2.19096e-06
2.18027e-06
2.16781e-06
2.15121e-06
2.1337e-06
2.15877e-06
7.25268e-06
8.54284e-06
8.28391e-06
7.98767e-06
7.73141e-06
7.50906e-06
7.28466e-06
7.0517e-06
6.82964e-06
6.25299e-06
5.75919e-06
5.59001e-06
5.42686e-06
5.27234e-06
5.1283e-06
4.98876e-06
4.89083e-06
5.31296e-06
5.70309e-06
5.53715e-06
5.37627e-06
5.22353e-06
5.07967e-06
4.94193e-06
4.81147e-06
4.68777e-06
4.57044e-06
4.45759e-06
4.35062e-06
4.24912e-06
4.15188e-06
4.05831e-06
3.96777e-06
3.88053e-06
3.79786e-06
3.719e-06
3.64357e-06
3.57123e-06
3.50263e-06
3.43695e-06
3.37459e-06
3.3152e-06
3.25867e-06
3.20468e-06
3.15324e-06
3.10453e-06
3.05785e-06
2.86557e-06
2.31494e-06
2.22178e-06
2.22528e-06
2.22857e-06
2.2316e-06
2.2344e-06
2.23699e-06
2.23934e-06
2.24149e-06
2.24337e-06
2.24506e-06
2.24659e-06
2.24791e-06
2.24907e-06
2.25007e-06
2.25092e-06
2.25162e-06
2.25209e-06
2.25238e-06
2.25249e-06
2.25245e-06
2.25226e-06
2.25193e-06
2.25146e-06
2.25085e-06
2.25012e-06
2.24923e-06
2.24818e-06
2.247e-06
2.24568e-06
2.24427e-06
2.24276e-06
2.2411e-06
2.23925e-06
2.23724e-06
2.23498e-06
2.23265e-06
2.23015e-06
2.2272e-06
2.22389e-06
2.22017e-06
2.21599e-06
2.21124e-06
2.20576e-06
2.19936e-06
2.19182e-06
2.18304e-06
2.17265e-06
2.16152e-06
2.14791e-06
2.13492e-06
2.15341e-06
2.85231e-05
1.98742e-05
8.62246e-06
8.14109e-06
7.8757e-06
7.61961e-06
7.36698e-06
7.10884e-06
6.31079e-06
5.69991e-06
5.68913e-06
5.58206e-06
5.42088e-06
5.26708e-06
5.12391e-06
4.98594e-06
4.85499e-06
4.90159e-06
5.30629e-06
5.51968e-06
5.36477e-06
5.21506e-06
5.07277e-06
4.93635e-06
4.807e-06
4.6841e-06
4.56793e-06
4.45665e-06
4.35068e-06
4.24963e-06
4.15297e-06
4.06039e-06
3.97152e-06
3.88606e-06
3.80434e-06
3.7259e-06
3.65102e-06
3.57923e-06
3.51127e-06
3.44645e-06
3.38503e-06
3.32648e-06
3.27036e-06
3.21666e-06
3.16557e-06
3.11723e-06
3.07116e-06
2.78813e-06
2.28101e-06
2.22768e-06
2.23109e-06
2.23426e-06
2.2372e-06
2.23988e-06
2.24239e-06
2.24461e-06
2.24661e-06
2.24839e-06
2.24996e-06
2.25138e-06
2.25257e-06
2.25362e-06
2.25452e-06
2.25524e-06
2.25577e-06
2.25608e-06
2.25621e-06
2.25617e-06
2.25597e-06
2.25562e-06
2.2551e-06
2.25445e-06
2.25367e-06
2.25273e-06
2.25161e-06
2.25032e-06
2.24891e-06
2.24733e-06
2.24573e-06
2.24394e-06
2.24192e-06
2.23967e-06
2.23731e-06
2.23462e-06
2.23177e-06
2.22882e-06
2.22536e-06
2.22143e-06
2.21715e-06
2.21236e-06
2.20702e-06
2.20101e-06
2.19421e-06
2.18654e-06
2.17802e-06
2.16846e-06
2.15881e-06
2.14756e-06
2.11675e-06
2.03971e-06
4.38202e-05
4.54434e-05
3.20748e-05
1.75419e-05
8.49565e-06
7.62353e-06
7.37134e-06
6.59793e-06
5.82139e-06
5.59812e-06
5.54003e-06
5.53284e-06
5.41641e-06
5.26316e-06
5.12003e-06
4.98266e-06
4.85257e-06
4.72924e-06
4.88224e-06
5.27634e-06
5.35264e-06
5.20557e-06
5.06518e-06
4.92984e-06
4.80118e-06
4.67879e-06
4.56359e-06
4.4539e-06
4.3493e-06
4.24945e-06
4.15388e-06
4.06195e-06
3.97375e-06
3.88928e-06
3.80889e-06
3.73166e-06
3.65784e-06
3.58676e-06
3.51916e-06
3.45478e-06
3.39395e-06
3.33617e-06
3.28079e-06
3.22771e-06
3.17737e-06
3.1296e-06
3.08417e-06
2.72514e-06
2.2578e-06
2.2331e-06
2.23643e-06
2.23947e-06
2.24232e-06
2.2449e-06
2.24729e-06
2.24941e-06
2.25126e-06
2.25294e-06
2.25439e-06
2.25567e-06
2.25676e-06
2.25769e-06
2.25847e-06
2.25904e-06
2.2594e-06
2.25955e-06
2.25954e-06
2.25936e-06
2.25899e-06
2.25845e-06
2.25777e-06
2.25695e-06
2.25597e-06
2.25481e-06
2.25347e-06
2.25198e-06
2.2504e-06
2.24858e-06
2.24674e-06
2.24463e-06
2.24227e-06
2.23982e-06
2.237e-06
2.2338e-06
2.23073e-06
2.22748e-06
2.22343e-06
2.21907e-06
2.21433e-06
2.20921e-06
2.20357e-06
2.19739e-06
2.19059e-06
2.18315e-06
2.17516e-06
2.16655e-06
2.14414e-06
2.0771e-06
2.00764e-06
1.98089e-06
4.35731e-05
4.99316e-05
4.99303e-05
4.36799e-05
3.30157e-05
2.06606e-05
1.00674e-05
6.09796e-06
5.76918e-06
5.59523e-06
5.43069e-06
5.38083e-06
5.37462e-06
5.25817e-06
5.11488e-06
4.97893e-06
4.84867e-06
4.72604e-06
4.60764e-06
4.83537e-06
5.21185e-06
5.19324e-06
5.05499e-06
4.92204e-06
4.79518e-06
4.67385e-06
4.55905e-06
4.44988e-06
4.34616e-06
4.24749e-06
4.1535e-06
4.06314e-06
3.97644e-06
3.89285e-06
3.81297e-06
3.73626e-06
3.66317e-06
3.593e-06
3.52617e-06
3.46255e-06
3.40233e-06
3.34504e-06
3.29038e-06
3.23795e-06
3.18828e-06
3.14116e-06
3.09658e-06
2.67536e-06
2.24305e-06
2.23804e-06
2.2413e-06
2.24423e-06
2.24697e-06
2.24946e-06
2.25171e-06
2.25373e-06
2.25543e-06
2.25698e-06
2.25833e-06
2.25949e-06
2.26048e-06
2.26129e-06
2.26192e-06
2.26233e-06
2.26253e-06
2.26253e-06
2.26235e-06
2.26201e-06
2.26148e-06
2.26078e-06
2.25993e-06
2.25892e-06
2.25772e-06
2.25635e-06
2.25479e-06
2.25311e-06
2.25124e-06
2.24919e-06
2.24717e-06
2.24378e-06
2.24227e-06
2.23935e-06
2.23653e-06
2.23292e-06
2.23066e-06
2.22468e-06
2.22179e-06
2.21689e-06
2.21201e-06
2.20667e-06
2.20091e-06
2.19473e-06
2.18806e-06
2.18098e-06
2.16848e-06
2.11077e-06
2.03858e-06
1.99316e-06
1.98238e-06
1.99121e-06
4.23074e-05
4.91289e-05
4.9431e-05
4.93745e-05
4.93365e-05
4.53725e-05
3.61496e-05
2.28081e-05
1.06694e-05
5.57333e-06
5.42712e-06
5.27153e-06
5.2211e-06
5.21434e-06
5.10912e-06
4.97326e-06
4.84416e-06
4.72234e-06
4.60448e-06
4.49271e-06
4.75722e-06
5.11137e-06
5.04316e-06
4.91236e-06
4.78731e-06
4.66744e-06
4.55375e-06
4.44559e-06
4.34277e-06
4.24475e-06
4.15158e-06
4.06226e-06
3.97697e-06
3.89481e-06
3.81617e-06
3.74057e-06
3.66843e-06
3.59927e-06
3.53322e-06
3.47006e-06
3.41023e-06
3.35322e-06
3.29904e-06
3.24726e-06
3.1983e-06
3.15179e-06
3.10797e-06
2.63764e-06
2.23463e-06
2.24254e-06
2.24568e-06
2.24852e-06
2.25113e-06
2.25353e-06
2.25565e-06
2.25755e-06
2.25913e-06
2.26052e-06
2.26177e-06
2.26283e-06
2.26369e-06
2.26438e-06
2.26486e-06
2.26512e-06
2.26516e-06
2.26499e-06
2.26466e-06
2.26415e-06
2.26347e-06
2.26261e-06
2.26157e-06
2.26036e-06
2.25897e-06
2.2574e-06
2.25563e-06
2.25374e-06
2.25165e-06
2.24953e-06
2.24713e-06
2.24459e-06
2.24177e-06
2.23861e-06
2.23543e-06
2.23205e-06
2.22808e-06
2.22391e-06
2.21971e-06
2.21503e-06
2.21001e-06
2.20456e-06
2.19882e-06
2.19273e-06
2.18632e-06
2.14654e-06
2.04074e-06
1.95057e-06
1.92432e-06
1.92164e-06
1.92446e-06
2.1836e-06
3.94274e-05
4.59127e-05
4.69022e-05
4.75398e-05
4.70782e-05
4.70416e-05
4.75742e-05
4.57094e-05
3.71474e-05
2.53169e-05
1.4231e-05
7.40487e-06
5.12099e-06
5.05975e-06
5.05325e-06
4.96691e-06
4.83809e-06
4.71684e-06
4.60031e-06
4.4896e-06
4.38438e-06
4.64778e-06
4.97815e-06
4.90016e-06
4.77713e-06
4.65912e-06
4.54671e-06
4.43967e-06
4.33808e-06
4.24111e-06
4.14912e-06
4.06111e-06
3.97707e-06
3.89586e-06
3.81788e-06
3.7431e-06
3.67189e-06
3.60387e-06
3.53908e-06
3.47682e-06
3.41772e-06
3.36123e-06
3.30742e-06
3.25609e-06
3.20779e-06
3.16208e-06
3.11842e-06
2.61072e-06
2.23061e-06
2.24657e-06
2.24957e-06
2.25235e-06
2.25483e-06
2.25711e-06
2.25914e-06
2.26083e-06
2.26231e-06
2.26361e-06
2.26476e-06
2.26568e-06
2.26642e-06
2.26697e-06
2.2673e-06
2.26739e-06
2.26727e-06
2.26695e-06
2.26647e-06
2.26582e-06
2.26498e-06
2.26395e-06
2.26275e-06
2.26136e-06
2.2598e-06
2.25802e-06
2.23635e-06
2.17086e-06
2.11726e-06
2.07633e-06
2.04879e-06
2.03493e-06
2.03481e-06
2.04849e-06
2.07568e-06
2.11549e-06
2.16727e-06
2.22964e-06
2.30164e-06
2.38229e-06
2.47061e-06
2.5655e-06
2.66606e-06
2.80031e-06
2.94474e-06
3.08847e-06
3.3922e-06
3.64917e-06
3.81026e-06
3.98844e-06
4.1414e-06
4.3266e-06
3.77664e-05
4.20164e-05
4.09624e-05
4.06613e-05
4.04612e-05
4.01947e-05
4.1472e-05
4.2596e-05
4.32382e-05
4.38456e-05
3.72416e-05
3.01173e-05
2.09419e-05
1.32255e-05
8.19214e-06
5.00298e-06
4.83122e-06
4.71094e-06
4.59493e-06
4.48437e-06
4.38009e-06
4.27996e-06
4.50886e-06
4.81322e-06
4.76602e-06
4.64947e-06
4.53861e-06
4.43289e-06
4.33247e-06
4.23641e-06
4.14526e-06
4.05827e-06
3.97559e-06
3.89598e-06
3.81913e-06
3.74516e-06
3.67468e-06
3.60734e-06
3.54353e-06
3.48229e-06
3.42409e-06
3.36841e-06
3.31517e-06
3.2645e-06
3.21657e-06
3.17195e-06
3.1282e-06
2.59357e-06
2.22937e-06
2.25014e-06
2.253e-06
2.24483e-06
2.18608e-06
2.13377e-06
2.089e-06
2.05267e-06
2.0257e-06
2.00909e-06
2.00322e-06
2.0087e-06
2.02543e-06
2.0535e-06
2.09259e-06
2.14222e-06
2.20174e-06
2.27053e-06
2.34779e-06
2.43265e-06
2.5244e-06
2.62226e-06
2.72555e-06
2.83374e-06
2.94625e-06
3.04908e-06
3.13188e-06
3.23865e-06
3.36432e-06
3.49217e-06
3.62189e-06
3.75325e-06
3.9418e-06
4.21976e-06
4.50211e-06
4.78779e-06
5.07599e-06
5.366e-06
5.6572e-06
5.94898e-06
6.241e-06
6.54813e-06
6.93895e-06
7.32725e-06
7.71478e-06
8.03652e-06
8.21841e-06
8.20734e-06
8.21357e-06
8.36127e-06
8.50354e-06
8.6727e-06
3.21045e-05
3.89852e-05
3.77116e-05
3.61662e-05
3.5799e-05
3.55581e-05
3.54288e-05
3.60857e-05
3.67216e-05
3.73166e-05
3.78817e-05
3.84044e-05
3.73642e-05
3.16491e-05
2.65641e-05
1.98681e-05
1.31294e-05
8.60575e-06
5.16578e-06
5.01789e-06
6.5391e-06
6.28455e-06
6.05923e-06
5.78951e-06
5.62853e-06
5.34108e-06
5.02442e-06
4.75321e-06
4.5226e-06
4.32791e-06
4.23419e-06
4.14887e-06
4.0721e-06
4.0032e-06
3.94177e-06
3.88802e-06
3.84271e-06
3.80594e-06
3.77771e-06
3.758e-06
3.74704e-06
3.74514e-06
3.75201e-06
3.76777e-06
3.7928e-06
3.82652e-06
3.86865e-06
3.50476e-06
3.03289e-06
3.14147e-06
3.23395e-06
3.31919e-06
3.41484e-06
3.51913e-06
3.62642e-06
3.73661e-06
4.4058e-06
3.96491e-06
4.08244e-06
4.20207e-06
4.32354e-06
4.44676e-06
4.57155e-06
4.69785e-06
4.86749e-06
5.11816e-06
5.37374e-06
5.63367e-06
5.89745e-06
6.16466e-06
6.43504e-06
6.70817e-06
6.98371e-06
7.26145e-06
7.4962e-06
7.61699e-06
7.73896e-06
7.86194e-06
7.98589e-06
8.10855e-06
8.23303e-06
8.3615e-06
8.48778e-06
8.61424e-06
8.74086e-06
8.86752e-06
8.99412e-06
9.12056e-06
9.3299e-06
9.5644e-06
9.79726e-06
9.07015e-06
7.97298e-06
6.86527e-06
5.59531e-06
4.39437e-06
3.39266e-06
2.50515e-06
1.93e-06
2.66334e-06
2.04406e-05
3.13585e-05
3.45202e-05
3.5581e-05
3.53635e-05
3.51599e-05
3.49811e-05
3.4807e-05
3.46533e-05
3.45048e-05
3.43652e-05
3.4232e-05
3.41067e-05
3.39809e-05
3.38626e-05
3.39553e-05
3.02778e-05
2.62292e-05
2.26633e-05
1.80497e-05
1.186e-05
7.02335e-06
4.3951e-06
4.2173e-06
6.10241e-06
8.45445e-06
1.05028e-05
1.0121e-05
9.78231e-06
9.5656e-06
9.38517e-06
9.14212e-06
8.93106e-06
8.74973e-06
8.5965e-06
8.4704e-06
8.36998e-06
8.29385e-06
8.24013e-06
8.20782e-06
8.19615e-06
8.20339e-06
8.22968e-06
8.27226e-06
8.33238e-06
8.40758e-06
8.48467e-06
7.87714e-06
7.56807e-06
7.70042e-06
7.84299e-06
7.97394e-06
8.00382e-06
8.04043e-06
8.08321e-06
8.13277e-06
8.18636e-06
8.24534e-06
8.31071e-06
8.37989e-06
8.4534e-06
8.53102e-06
8.61243e-06
8.6441e-06
8.65465e-06
8.67118e-06
8.68987e-06
8.71238e-06
8.73857e-06
8.76813e-06
8.8009e-06
8.83663e-06
8.87514e-06
8.91635e-06
8.96001e-06
9.00597e-06
9.05407e-06
9.10416e-06
9.15616e-06
8.94747e-06
8.06703e-06
7.09854e-06
6.14137e-06
5.20161e-06
4.28975e-06
3.4269e-06
2.67129e-06
2.13569e-06
1.959e-06
2.18856e-06
2.8426e-06
4.47333e-06
5.53943e-06
6.38073e-06
7.23716e-06
8.00634e-06
8.57967e-06
9.04036e-06
9.50447e-06
1.08102e-05
1.44199e-05
2.26767e-05
2.56081e-05
2.94076e-05
3.2289e-05
3.42135e-05
3.46152e-05
3.44771e-05
3.43465e-05
3.42296e-05
3.41145e-05
3.40065e-05
3.39028e-05
3.37981e-05
3.36976e-05
3.35976e-05
3.34964e-05
3.33953e-05
3.38418e-05
3.44733e-05
3.33574e-05
2.9321e-05
2.54725e-05
2.19335e-05
1.87108e-05
1.55888e-05
1.10914e-05
7.01328e-06
4.74472e-06
3.74722e-06
4.40117e-06
5.91018e-06
7.67001e-06
9.45712e-06
1.11928e-05
1.17717e-05
1.15127e-05
1.1271e-05
1.10465e-05
1.08373e-05
1.06443e-05
1.04643e-05
1.02991e-05
1.01461e-05
1.00054e-05
9.87704e-06
9.62823e-06
8.51759e-06
8.38445e-06
8.30061e-06
8.22581e-06
8.1596e-06
8.10167e-06
8.05154e-06
8.00876e-06
7.97305e-06
7.94413e-06
7.92129e-06
7.90464e-06
7.89364e-06
7.88814e-06
7.88776e-06
7.89069e-06
7.89839e-06
7.86705e-06
7.7567e-06
7.64787e-06
7.54055e-06
7.43476e-06
7.33055e-06
7.2278e-06
7.12645e-06
6.34172e-06
5.44739e-06
4.57021e-06
3.72574e-06
2.94576e-06
2.30562e-06
2.05654e-06
2.45775e-06
3.13616e-06
3.28418e-06
3.52027e-06
3.82871e-06
4.19357e-06
4.55544e-06
4.92843e-06
5.34168e-06
5.86276e-06
6.41962e-06
6.98879e-06
6.74228e-06
6.21678e-06
5.72516e-06
5.23603e-06
4.57379e-06
3.83978e-06
3.31666e-06
2.9606e-06
2.07484e-06
1.42435e-05
2.10827e-05
2.06758e-05
2.09449e-05
2.2467e-05
2.51235e-05
2.79727e-05
2.96437e-05
3.09192e-05
3.19746e-05
3.12132e-05
3.04011e-05
2.961e-05
2.88267e-05
2.80567e-05
2.72991e-05
2.65517e-05
2.58174e-05
2.50936e-05
2.45646e-05
2.45337e-05
2.45383e-05
2.43484e-05
2.38705e-05
2.33956e-05
2.29998e-05
2.2331e-05
1.93963e-05
1.66485e-05
1.41761e-05
1.20074e-05
1.01878e-05
8.78966e-06
7.89237e-06
6.3964e-06
4.93773e-06
5.48577e-06
6.84668e-06
8.20613e-06
8.73995e-06
8.60882e-06
8.47854e-06
8.3497e-06
8.22312e-06
8.09658e-06
7.97286e-06
7.43157e-06
6.56694e-06
6.45047e-06
6.33631e-06
6.22374e-06
6.11246e-06
6.00247e-06
5.8938e-06
5.78653e-06
5.68041e-06
5.57591e-06
5.47629e-06
5.40646e-06
5.33815e-06
5.27175e-06
5.20675e-06
5.14321e-06
5.13104e-06
5.14411e-06
5.15729e-06
5.1706e-06
5.12465e-06
4.73123e-06
4.33595e-06
3.94182e-06
3.66637e-06
3.78547e-06
3.61679e-06
3.39651e-06
3.22832e-06
3.11342e-06
2.67044e-06
2.3634e-06
2.41878e-06
2.36548e-06
2.37779e-06
2.45356e-06
2.59621e-06
2.76867e-06
2.99253e-06
3.26959e-06
3.54918e-06
3.84293e-06
4.14698e-06
4.45841e-06
4.77491e-06
5.11421e-06
5.46907e-06
5.79395e-06
6.25266e-06
6.63698e-06
6.90268e-06
7.1602e-06
7.44435e-06
1.01563e-05
1.83029e-05
1.77483e-05
1.71622e-05
1.66397e-05
1.61509e-05
1.52321e-05
1.44676e-05
1.41816e-05
1.58431e-05
1.74196e-05
1.73124e-05
1.72544e-05
1.67557e-05
1.62604e-05
1.57653e-05
1.52633e-05
1.47613e-05
1.42564e-05
1.37476e-05
1.32369e-05
1.29251e-05
1.28759e-05
1.28049e-05
1.24982e-05
1.20723e-05
1.17391e-05
1.14948e-05
1.1249e-05
1.1002e-05
1.07537e-05
1.05015e-05
1.02445e-05
9.98141e-06
9.71219e-06
8.74898e-06
7.54283e-06
6.78599e-06
5.68072e-06
4.69176e-06
5.28498e-06
6.56374e-06
6.86671e-06
6.85304e-06
6.83969e-06
6.75717e-06
5.99429e-06
5.70789e-06
5.71355e-06
5.71964e-06
5.72601e-06
5.73278e-06
5.73999e-06
5.74742e-06
5.75519e-06
5.7633e-06
5.77156e-06
5.78029e-06
5.78968e-06
5.7988e-06
5.80812e-06
5.81779e-06
5.82771e-06
5.83776e-06
5.84801e-06
5.85847e-06
5.86759e-06
5.90126e-06
5.63855e-06
5.24202e-06
4.84558e-06
4.45228e-06
4.67805e-06
5.01467e-06
5.3553e-06
5.69895e-06
6.04477e-06
6.38352e-06
6.36539e-06
6.34758e-06
6.33007e-06
6.31928e-06
6.33586e-06
6.34629e-06
6.36393e-06
6.34545e-06
6.55643e-06
6.84109e-06
7.12417e-06
7.40542e-06
7.6846e-06
7.96146e-06
8.23665e-06
8.53823e-06
8.79449e-06
9.00275e-06
9.24594e-06
9.50968e-06
9.75988e-06
9.94e-06
2.17428e-05
2.66565e-05
2.62855e-05
2.58732e-05
2.54924e-05
2.51271e-05
2.47791e-05
2.44475e-05
2.41289e-05
2.36644e-05
2.15957e-05
1.96636e-05
1.86015e-05
1.77896e-05
1.64039e-05
1.51824e-05
1.4113e-05
1.3448e-05
1.28999e-05
1.23913e-05
1.19192e-05
1.14813e-05
1.10721e-05
1.0635e-05
1.04255e-05
1.02207e-05
9.85323e-06
9.55165e-06
9.2688e-06
9.00314e-06
8.75536e-06
8.52225e-06
8.30519e-06
8.1027e-06
7.91533e-06
7.74359e-06
7.58769e-06
7.44897e-06
7.32725e-06
7.59161e-06
8.37012e-06
8.46675e-06
7.61428e-06
7.44668e-06
7.43215e-06
7.2496e-06
6.51071e-06
6.47308e-06
6.47552e-06
6.47854e-06
6.482e-06
6.48561e-06
6.48967e-06
6.49416e-06
6.49882e-06
6.50377e-06
6.50912e-06
6.51105e-06
6.48396e-06
6.45699e-06
6.43006e-06
6.40322e-06
6.37662e-06
6.35008e-06
6.32356e-06
6.29716e-06
6.27096e-06
6.31253e-06
6.53913e-06
6.5317e-06
6.51013e-06
6.48904e-06
6.46842e-06
6.44824e-06
6.43933e-06
6.61656e-06
6.79469e-06
6.97366e-06
7.15338e-06
7.33372e-06
7.62e-06
7.94375e-06
8.26803e-06
8.57338e-06
8.85902e-06
9.09705e-06
9.34042e-06
9.61439e-06
9.89166e-06
1.01663e-05
1.04383e-05
1.07074e-05
1.09737e-05
1.12405e-05
1.15268e-05
1.16601e-05
1.16122e-05
1.14742e-05
1.13406e-05
1.11951e-05
2.18589e-05
2.68226e-05
2.64394e-05
2.60159e-05
2.56234e-05
2.52491e-05
2.48911e-05
2.4551e-05
2.42231e-05
2.39115e-05
2.36128e-05
2.33253e-05
2.30509e-05
2.18679e-05
2.07578e-05
1.97158e-05
1.90895e-05
1.86254e-05
1.78322e-05
1.69958e-05
1.62099e-05
1.54718e-05
1.47795e-05
1.43379e-05
1.40433e-05
1.36207e-05
1.33532e-05
1.30907e-05
1.27015e-05
1.24334e-05
1.22068e-05
1.19877e-05
1.1779e-05
1.15773e-05
1.13846e-05
1.11986e-05
1.1021e-05
1.08509e-05
1.06864e-05
1.05298e-05
1.02988e-05
8.79709e-06
7.78618e-06
7.75046e-06
7.71564e-06
7.45313e-06
6.82445e-06
6.78067e-06
6.75438e-06
6.72783e-06
6.70133e-06
6.67469e-06
6.64777e-06
6.62085e-06
6.59403e-06
6.567e-06
6.53991e-06
6.51289e-06
6.4853e-06
6.41684e-06
6.34802e-06
6.27882e-06
6.20923e-06
6.13931e-06
6.06916e-06
5.99876e-06
5.92831e-06
5.85709e-06
6.1786e-06
6.57734e-06
6.94735e-06
7.32652e-06
7.71419e-06
8.10742e-06
8.4747e-06
8.86011e-06
9.27599e-06
9.69739e-06
9.95052e-06
1.0272e-05
1.05909e-05
1.09083e-05
1.11873e-05
1.14642e-05
1.17391e-05
1.20117e-05
1.20395e-05
1.19882e-05
1.19372e-05
1.18866e-05
1.18362e-05
1.17863e-05
1.17367e-05
1.16875e-05
1.1645e-05
1.15508e-05
1.14258e-05
1.12908e-05
1.11535e-05
1.10963e-05
2.19715e-05
2.69836e-05
2.65886e-05
2.61544e-05
2.57514e-05
2.53673e-05
2.49993e-05
2.46502e-05
2.4316e-05
2.39956e-05
2.36892e-05
2.33944e-05
2.3113e-05
2.2842e-05
2.25814e-05
2.23299e-05
2.20868e-05
2.12935e-05
2.04113e-05
1.95807e-05
1.87991e-05
1.80637e-05
1.75266e-05
1.71417e-05
1.6627e-05
1.60276e-05
1.54538e-05
1.47518e-05
1.41858e-05
1.36872e-05
1.31298e-05
1.2659e-05
1.24271e-05
1.22126e-05
1.20166e-05
1.18385e-05
1.16765e-05
1.1532e-05
1.14016e-05
1.12873e-05
1.01289e-05
7.98707e-06
7.50314e-06
7.4479e-06
7.39188e-06
7.03821e-06
6.43717e-06
6.37913e-06
6.32568e-06
6.27076e-06
6.21446e-06
6.15701e-06
6.09847e-06
6.03873e-06
5.97816e-06
5.91676e-06
5.85443e-06
5.79129e-06
5.72668e-06
5.66192e-06
5.59716e-06
5.53196e-06
5.4664e-06
5.40052e-06
5.33447e-06
5.26829e-06
5.20207e-06
5.13575e-06
5.29024e-06
5.64753e-06
6.01569e-06
6.39383e-06
6.78105e-06
7.17664e-06
7.56871e-06
7.77558e-06
7.98773e-06
8.25451e-06
8.5492e-06
8.84002e-06
9.02675e-06
9.16885e-06
9.31584e-06
9.46745e-06
9.62347e-06
9.78366e-06
9.94776e-06
1.01156e-05
1.02871e-05
1.04621e-05
1.06404e-05
1.0822e-05
1.10067e-05
1.12007e-05
1.1407e-05
1.13465e-05
1.12324e-05
1.11795e-05
1.11334e-05
1.1077e-05
2.208e-05
2.71393e-05
2.6734e-05
2.62871e-05
2.58753e-05
2.54805e-05
2.51033e-05
2.47466e-05
2.44035e-05
2.40752e-05
2.37624e-05
2.34602e-05
2.31716e-05
2.28936e-05
2.26262e-05
2.23696e-05
2.21219e-05
2.18829e-05
2.16519e-05
2.14287e-05
2.12129e-05
2.10038e-05
2.08013e-05
2.03394e-05
1.97184e-05
1.91338e-05
1.85842e-05
1.80667e-05
1.75819e-05
1.69906e-05
1.64483e-05
1.60754e-05
1.5687e-05
1.51856e-05
1.48635e-05
1.47104e-05
1.45714e-05
1.40743e-05
1.2428e-05
1.03874e-05
8.02202e-06
6.76888e-06
6.71615e-06
6.66167e-06
6.60547e-06
6.03502e-06
5.63419e-06
5.58614e-06
5.53649e-06
5.48549e-06
5.4333e-06
5.37983e-06
5.32536e-06
5.26988e-06
5.21339e-06
5.15605e-06
5.09804e-06
5.03928e-06
4.98043e-06
4.96064e-06
4.94096e-06
4.92126e-06
4.90157e-06
4.882e-06
4.86256e-06
4.84322e-06
4.82398e-06
4.80483e-06
4.78583e-06
4.76699e-06
4.74829e-06
4.72972e-06
4.71122e-06
4.69284e-06
4.67464e-06
4.66673e-06
4.7175e-06
4.76975e-06
4.98124e-06
5.12115e-06
5.26668e-06
5.41761e-06
5.57368e-06
5.73464e-06
5.90023e-06
6.07025e-06
6.24448e-06
6.42275e-06
6.60483e-06
6.7906e-06
6.97997e-06
7.17732e-06
7.38436e-06
7.5948e-06
7.80217e-06
8.11534e-06
8.45567e-06
8.71381e-06
8.91898e-06
9.13378e-06
2.21875e-05
2.72897e-05
2.68736e-05
2.64139e-05
2.59928e-05
2.55877e-05
2.52028e-05
2.48361e-05
2.44848e-05
2.415e-05
2.38292e-05
2.35199e-05
2.32257e-05
2.29415e-05
2.26685e-05
2.24062e-05
2.21527e-05
2.19084e-05
2.16729e-05
2.14456e-05
2.1225e-05
2.10118e-05
2.08054e-05
2.06056e-05
2.04122e-05
2.0224e-05
2.00414e-05
1.98633e-05
1.96914e-05
1.9523e-05
1.93595e-05
1.91008e-05
1.8592e-05
1.81749e-05
1.77612e-05
1.57962e-05
1.36628e-05
1.09556e-05
8.66315e-06
7.04088e-06
6.29515e-06
6.25902e-06
6.22317e-06
6.18865e-06
6.08419e-06
5.37827e-06
5.21375e-06
5.19458e-06
5.1754e-06
5.15595e-06
5.13646e-06
5.11695e-06
5.09732e-06
5.07756e-06
5.05779e-06
5.03795e-06
5.0181e-06
4.99826e-06
4.9784e-06
4.95856e-06
4.93879e-06
4.91917e-06
4.89962e-06
4.8801e-06
4.86066e-06
4.84132e-06
4.82212e-06
4.80303e-06
4.78407e-06
4.76522e-06
4.74649e-06
4.72788e-06
4.7094e-06
4.69107e-06
4.71286e-06
4.76554e-06
4.81826e-06
4.81937e-06
4.79977e-06
4.78029e-06
4.76094e-06
4.74173e-06
4.72267e-06
4.70375e-06
4.68498e-06
4.66639e-06
4.64799e-06
4.62975e-06
4.61166e-06
4.59627e-06
4.58902e-06
4.58248e-06
4.57564e-06
4.56234e-06
4.54521e-06
4.79096e-06
5.07856e-06
5.20837e-06
5.23426e-06
5.21762e-06
2.22945e-05
2.74358e-05
2.70082e-05
2.65382e-05
2.61067e-05
2.56926e-05
2.52983e-05
2.49224e-05
2.45639e-05
2.42205e-05
2.38929e-05
2.35779e-05
2.32766e-05
2.29861e-05
2.27071e-05
2.24387e-05
2.21802e-05
2.19318e-05
2.16914e-05
2.14594e-05
2.1234e-05
2.10167e-05
2.08063e-05
2.06029e-05
2.04056e-05
2.02141e-05
2.00283e-05
1.98474e-05
1.96724e-05
1.95025e-05
1.93354e-05
1.90743e-05
1.70817e-05
1.51666e-05
1.24263e-05
9.77241e-06
7.86088e-06
6.50805e-06
6.43931e-06
6.35802e-06
6.28054e-06
6.24448e-06
6.20797e-06
6.17203e-06
5.99236e-06
5.31162e-06
5.21034e-06
5.19102e-06
5.17177e-06
5.1525e-06
5.13301e-06
5.1134e-06
5.09382e-06
5.07411e-06
5.05431e-06
5.03455e-06
5.0148e-06
4.99498e-06
4.97514e-06
4.95537e-06
4.93565e-06
4.91606e-06
4.8965e-06
4.87699e-06
4.85752e-06
4.83815e-06
4.81895e-06
4.79987e-06
4.78093e-06
4.76208e-06
4.74331e-06
4.72465e-06
4.70614e-06
4.75753e-06
4.8118e-06
4.85282e-06
4.83298e-06
4.81325e-06
4.79366e-06
4.77421e-06
4.75489e-06
4.73568e-06
4.66515e-06
4.46527e-06
4.26939e-06
4.07766e-06
3.89029e-06
3.70658e-06
3.51638e-06
3.3332e-06
3.15613e-06
2.98111e-06
2.80926e-06
2.64661e-06
2.49446e-06
2.34953e-06
2.20279e-06
2.20313e-06
2.19323e-06
2.26522e-06
2.23955e-05
2.75771e-05
2.71368e-05
2.66572e-05
2.62159e-05
2.57925e-05
2.53886e-05
2.5006e-05
2.46389e-05
2.42876e-05
2.39529e-05
2.36305e-05
2.33234e-05
2.30277e-05
2.27426e-05
2.24685e-05
2.22048e-05
2.19515e-05
2.17061e-05
2.14698e-05
2.12403e-05
2.1019e-05
2.08045e-05
2.05975e-05
2.03969e-05
2.02023e-05
2.00129e-05
1.98293e-05
1.96501e-05
1.79384e-05
1.57792e-05
1.28455e-05
1.01939e-05
8.35175e-06
6.7491e-06
6.708e-06
6.66832e-06
6.60852e-06
6.52479e-06
6.44458e-06
6.38749e-06
6.33215e-06
6.25667e-06
6.18242e-06
5.90736e-06
5.28023e-06
5.20555e-06
5.18637e-06
5.16705e-06
5.14771e-06
5.1283e-06
5.10867e-06
5.089e-06
5.06939e-06
5.04973e-06
5.02994e-06
5.01009e-06
4.99029e-06
4.97054e-06
4.95085e-06
4.9312e-06
4.91165e-06
4.89212e-06
4.87267e-06
4.85326e-06
4.83394e-06
4.81477e-06
4.70212e-06
4.51615e-06
4.33337e-06
4.15393e-06
3.99136e-06
3.85961e-06
3.73337e-06
3.56615e-06
3.37746e-06
3.19537e-06
3.02055e-06
2.85372e-06
2.69571e-06
2.5475e-06
2.40127e-06
2.26507e-06
2.16854e-06
2.07264e-06
1.99349e-06
1.92938e-06
1.89001e-06
1.87364e-06
1.87698e-06
1.90441e-06
1.9543e-06
2.02425e-06
2.1116e-06
2.21356e-06
2.32797e-06
2.43889e-06
2.4396e-06
2.39857e-06
2.43918e-06
2.24939e-05
2.77117e-05
2.72597e-05
2.67703e-05
2.63191e-05
2.58868e-05
2.54759e-05
2.50845e-05
2.47086e-05
2.43508e-05
2.40095e-05
2.36806e-05
2.33671e-05
2.30648e-05
2.27736e-05
2.24943e-05
2.22251e-05
2.19669e-05
2.1717e-05
2.14768e-05
2.12432e-05
2.10183e-05
2.08001e-05
2.05901e-05
2.03862e-05
2.01886e-05
1.9552e-05
1.71562e-05
1.40815e-05
1.09637e-05
8.67849e-06
6.8665e-06
6.82306e-06
6.77966e-06
6.73765e-06
6.6957e-06
6.65458e-06
6.61479e-06
6.57486e-06
6.53604e-06
6.49691e-06
6.41825e-06
6.34208e-06
6.27276e-06
5.95898e-06
5.11783e-06
5.10955e-06
5.1363e-06
5.16117e-06
5.14178e-06
5.04983e-06
4.84552e-06
4.64457e-06
4.44717e-06
4.25347e-06
4.06368e-06
3.87795e-06
3.69669e-06
3.52023e-06
3.34898e-06
3.18331e-06
3.02373e-06
2.87085e-06
2.72541e-06
2.58821e-06
2.46018e-06
2.34021e-06
2.24977e-06
2.17259e-06
2.09326e-06
2.03408e-06
1.98283e-06
1.94502e-06
1.9158e-06
1.91013e-06
1.92765e-06
1.96695e-06
2.02601e-06
2.1025e-06
2.19396e-06
2.29799e-06
2.41239e-06
2.49787e-06
2.49036e-06
2.48985e-06
2.49454e-06
2.49965e-06
2.50154e-06
2.49386e-06
2.48619e-06
2.47853e-06
2.47089e-06
2.46325e-06
2.45566e-06
2.44805e-06
2.44051e-06
2.43295e-06
2.42531e-06
2.40858e-06
2.42994e-06
2.25929e-05
2.78409e-05
2.7379e-05
2.68799e-05
2.64182e-05
2.59786e-05
2.5558e-05
2.5158e-05
2.47758e-05
2.44107e-05
2.40618e-05
2.37266e-05
2.34062e-05
2.30982e-05
2.28017e-05
2.2517e-05
2.22425e-05
2.19795e-05
2.17252e-05
2.14804e-05
2.12424e-05
2.10138e-05
2.07925e-05
2.05793e-05
1.93031e-05
1.64984e-05
1.28664e-05
9.70359e-06
7.50051e-06
6.94902e-06
6.90299e-06
6.85683e-06
6.68189e-06
6.467e-06
6.25607e-06
6.04962e-06
5.84698e-06
5.64975e-06
5.45638e-06
5.26709e-06
5.08321e-06
4.90442e-06
4.73049e-06
4.56222e-06
3.46208e-06
2.68317e-06
2.58412e-06
2.4909e-06
2.3993e-06
2.31338e-06
2.25163e-06
2.20446e-06
2.14323e-06
2.08533e-06
2.02858e-06
1.99075e-06
1.97234e-06
1.97331e-06
1.99303e-06
2.03038e-06
2.08391e-06
2.15197e-06
2.23278e-06
2.32455e-06
2.42563e-06
2.53454e-06
2.65001e-06
2.69896e-06
2.69025e-06
2.64613e-06
2.60163e-06
2.5736e-06
2.56622e-06
2.55881e-06
2.55139e-06
2.54394e-06
2.53647e-06
2.529e-06
2.52152e-06
2.51404e-06
2.50656e-06
2.49905e-06
2.49666e-06
2.50092e-06
2.50609e-06
2.50936e-06
2.50279e-06
2.49512e-06
2.48746e-06
2.4798e-06
2.47215e-06
2.46452e-06
2.45691e-06
2.44935e-06
2.44177e-06
2.43425e-06
2.42671e-06
2.4191e-06
2.42596e-06
2.40435e-06
2.26889e-05
2.79655e-05
2.74931e-05
2.69845e-05
2.6514e-05
2.60652e-05
2.56356e-05
2.52293e-05
2.48382e-05
2.44649e-05
2.41106e-05
2.37698e-05
2.34429e-05
2.31288e-05
2.28265e-05
2.25363e-05
2.21227e-05
2.17171e-05
2.1322e-05
2.09385e-05
2.05642e-05
2.02013e-05
1.79825e-05
1.44587e-05
1.0263e-05
6.91478e-06
5.11693e-06
4.92607e-06
4.74421e-06
4.57063e-06
4.40669e-06
4.13378e-06
3.83055e-06
3.65031e-06
3.51858e-06
3.39789e-06
3.29057e-06
3.19686e-06
3.1146e-06
3.04659e-06
2.99428e-06
2.95581e-06
2.93097e-06
2.53815e-06
2.51014e-06
2.62702e-06
2.7507e-06
2.87906e-06
3.01115e-06
3.11042e-06