/*--------------------------------*- C++ -*----------------------------------*\
| =========                 |                                                 |
| \\      /  F ield         | foam-extend: Open Source CFD                    |
|  \\    /   O peration     | Version:     4.1                                |
|   \\  /    A nd           | Web:         http://www.foam-extend.org         |
|    \\/     M anipulation  |                                                 |
\*---------------------------------------------------------------------------*/
FoamFile
{
    version     2.0;
    format      ascii;
    class       volScalarField;
    location    "6";
    object      epsilonEq;
}
// * * * * * * * * * * * * * * * * * * * * * * * * * * * * * * * * * * * * * //

dimensions      [0 0 0 0 0 0 0];

internalField   nonuniform List<scalar> 
100000
(
7.54476e-05
5.74377e-05
4.88836e-05
6.16932e-05
8.29193e-05
6.52548e-06
0.000203823
0.000256265
0.000108196
0.000101393
8.57281e-05
8.51781e-05
0.000106136
0.000121449
0.000129266
0.000130311
0.000123657
0.000113392
0.000101431
9.14928e-05
8.65309e-05
8.94592e-05
9.20465e-05
9.58582e-05
0.000101355
0.000105931
0.000109427
0.000113788
0.000108989
9.77268e-05
8.74286e-05
7.7136e-05
6.76096e-05
5.89392e-05
4.70171e-05
3.87946e-05
3.18723e-05
2.54252e-05
1.96145e-05
1.4555e-05
1.16217e-05
1.20797e-05
1.25511e-05
1.30764e-05
1.34863e-05
1.37173e-05
1.41514e-05
1.46233e-05
1.50624e-05
1.5469e-05
1.58442e-05
1.62602e-05
1.67411e-05
1.68383e-05
1.69108e-05
1.69607e-05
1.69889e-05
1.69956e-05
1.69825e-05
1.69494e-05
1.68977e-05
1.6828e-05
1.67412e-05
1.80793e-05
2.13937e-05
2.47507e-05
2.8241e-05
3.18308e-05
3.53416e-05
3.99539e-05
4.45293e-05
4.83737e-05
5.20438e-05
5.57556e-05
5.97876e-05
6.39387e-05
6.81252e-05
7.25421e-05
7.7068e-05
8.16475e-05
8.36747e-05
8.13243e-05
7.89923e-05
7.66807e-05
7.43883e-05
7.21188e-05
6.98724e-05
6.76482e-05
6.54488e-05
6.32747e-05
6.11454e-05
5.92276e-05
5.73248e-05
5.54658e-05
5.36334e-05
5.18363e-05
5.05519e-05
5.13283e-05
5.19982e-05
5.26155e-05
6.36083e-05
3.88032e-05
5.68811e-05
8.02676e-05
6.81226e-05
1.87381e-05
0.00015118
0.0002853
0.000249096
0.000135996
5.67251e-05
4.46399e-05
3.62657e-05
1.1839e-05
1.86845e-05
3.22778e-05
3.81464e-05
3.92521e-05
3.71916e-05
3.78771e-05
4.3364e-05
4.58805e-05
4.62199e-05
4.16468e-05
3.93055e-05
4.00712e-05
4.09241e-05
4.18343e-05
4.28317e-05
4.48377e-05
4.9876e-05
5.53738e-05
5.74515e-05
6.56433e-05
7.03167e-05
6.38301e-05
5.77683e-05
5.14679e-05
4.57443e-05
3.99852e-05
3.42638e-05
3.38087e-05
3.36557e-05
3.37387e-05
3.38566e-05
3.40384e-05
3.42765e-05
3.45527e-05
3.48662e-05
3.50938e-05
3.51647e-05
3.5254e-05
3.56269e-05
3.57965e-05
3.59844e-05
3.61998e-05
3.64405e-05
3.67047e-05
3.69905e-05
3.72968e-05
3.76221e-05
3.79645e-05
3.82773e-05
3.89128e-05
3.96994e-05
4.29494e-05
4.65182e-05
5.01864e-05
5.39839e-05
5.49855e-05
5.35036e-05
5.20185e-05
5.05334e-05
4.98239e-05
4.9384e-05
4.89485e-05
4.86037e-05
4.8383e-05
4.74854e-05
4.65891e-05
4.57096e-05
4.48475e-05
4.4004e-05
4.31777e-05
4.23677e-05
4.15738e-05
4.07944e-05
4.00299e-05
3.92786e-05
3.76454e-05
3.55162e-05
3.34377e-05
3.1465e-05
2.96653e-05
2.80593e-05
2.65131e-05
2.5012e-05
2.35573e-05
2.23332e-05
2.60075e-05
4.20622e-05
5.8219e-05
9.24436e-05
7.55309e-05
8.15306e-05
3.29147e-05
0.000104851
0.000163338
0.00023667
0.000283191
0.000204311
8.36974e-05
7.44586e-05
8.59035e-05
8.96407e-05
9.09915e-05
8.72704e-05
8.48045e-05
8.03945e-05
7.52368e-05
6.61323e-05
5.58266e-05
4.81004e-05
4.31661e-05
3.734e-05
3.21303e-05
2.75393e-05
2.35836e-05
2.02954e-05
1.76835e-05
1.58535e-05
1.49159e-05
1.47396e-05
1.51455e-05
1.59331e-05
1.6893e-05
2.0608e-05
2.78316e-05
3.47324e-05
4.10576e-05
4.47572e-05
4.52402e-05
4.55721e-05
4.60213e-05
4.66161e-05
4.72866e-05
4.78551e-05
4.83285e-05
4.87039e-05
4.89834e-05
4.91955e-05
4.90785e-05
4.77141e-05
4.66715e-05
4.55985e-05
4.44928e-05
4.33617e-05
4.20911e-05
4.0791e-05
3.94771e-05
3.81492e-05
3.68118e-05
3.54652e-05
3.2636e-05
2.79964e-05
2.41297e-05
1.97187e-05
1.55225e-05
1.20428e-05
9.99528e-06
1.0633e-05
1.3575e-05
1.51165e-05
1.67357e-05
1.84109e-05
2.01254e-05
2.18663e-05
2.31647e-05
2.45428e-05
2.63537e-05
2.81702e-05
2.99786e-05
3.17779e-05
3.35659e-05
3.53423e-05
3.7105e-05
3.88512e-05
4.05799e-05
4.19129e-05
4.3198e-05
4.48202e-05
4.65766e-05
4.83353e-05
5.01044e-05
5.18107e-05
5.34395e-05
5.50041e-05
5.65965e-05
5.81314e-05
6.12543e-05
5.52064e-05
9.90805e-05
8.10498e-05
0.000117722
3.93807e-05
0.000134301
0.000128705
3.11073e-05
5.70638e-05
0.000127058
0.000191683
0.000135382
6.92408e-05
8.45763e-05
0.00010751
0.00012546
0.000133265
0.000134739
0.000131825
0.000129619
0.000129702
0.000130844
0.000131337
0.000124396
0.00011798
0.000112058
0.000106599
0.000101576
9.69627e-05
9.27349e-05
8.88711e-05
8.53452e-05
8.21369e-05
7.52031e-05
6.52902e-05
5.60907e-05
4.80401e-05
4.12551e-05
3.47978e-05
2.87388e-05
2.30072e-05
2.17905e-05
2.10965e-05
2.05741e-05
2.01213e-05
1.98264e-05
1.97897e-05
1.9759e-05
1.96634e-05
1.95662e-05
1.93496e-05
2.04109e-05
2.19322e-05
2.31383e-05
2.43973e-05
2.57105e-05
2.70866e-05
2.85083e-05
2.99508e-05
3.14257e-05
3.29334e-05
3.44685e-05
3.60297e-05
3.76119e-05
3.92037e-05
4.36397e-05
4.83853e-05
5.32673e-05
5.82736e-05
6.33126e-05
6.83673e-05
7.33523e-05
7.87515e-05
8.41289e-05
8.95848e-05
9.51127e-05
9.90339e-05
0.000100598
0.000101459
0.000102308
0.000103164
0.000104107
0.000105059
0.000106014
0.000106972
0.000108036
0.000109116
0.000110193
0.000111255
0.000111352
0.000110882
0.000110416
0.00010995
0.000108816
0.000106738
0.000104658
0.000102528
0.000100354
9.78076e-05
9.40776e-05
5.24376e-05
9.82104e-05
0.000132327
3.6078e-05
0.00015898
0.000125626
7.57033e-05
7.56846e-05
8.93343e-05
8.10828e-05
9.28042e-05
0.000104738
6.69097e-05
3.96562e-05
5.02556e-05
5.21174e-05
6.02184e-05
7.07539e-05
7.74778e-05
7.88871e-05
8.55865e-05
9.31327e-05
0.000100546
0.000107503
0.000109846
0.000110742
0.000111519
0.000112184
0.000112744
0.000113207
0.000113578
0.000113865
0.000109631
0.000101358
9.39756e-05
8.69614e-05
8.30046e-05
8.27291e-05
8.25753e-05
8.25398e-05
8.24845e-05
8.24103e-05
8.23195e-05
8.24558e-05
8.26495e-05
8.28105e-05
8.2953e-05
8.30827e-05
8.3182e-05
8.32513e-05
8.38332e-05
8.55554e-05
8.54228e-05
8.51889e-05
8.49501e-05
8.47042e-05
8.44552e-05
8.40864e-05
8.37072e-05
8.33299e-05
8.29534e-05
8.25799e-05
8.22084e-05
8.18388e-05
8.1471e-05
8.1107e-05
8.0747e-05
8.03899e-05
8.00368e-05
7.96689e-05
7.92686e-05
7.90691e-05
8.20734e-05
8.35698e-05
8.51348e-05
8.66282e-05
8.82447e-05
8.99889e-05
9.15071e-05
9.3075e-05
9.46836e-05
9.6118e-05
9.42137e-05
9.12612e-05
8.71599e-05
8.30442e-05
7.89603e-05
7.49092e-05
7.08678e-05
6.67644e-05
6.2685e-05
5.86297e-05
5.45699e-05
5.06448e-05
4.6795e-05
4.31165e-05
3.95121e-05
3.75667e-05
3.75671e-05
4.3477e-05
6.5591e-05
0.00014822
0.000134902
9.67366e-05
9.05436e-05
3.81637e-05
5.22554e-05
6.24424e-05
6.40429e-05
4.24121e-05
4.3348e-05
8.48024e-05
9.36613e-05
5.84261e-05
3.47876e-05
2.35882e-05
3.87131e-05
4.65192e-05
4.6609e-05
4.25781e-05
4.12767e-05
3.5316e-05
3.28441e-05
3.18104e-05
3.55556e-05
4.42168e-05
5.21702e-05
5.56546e-05
5.88557e-05
6.18352e-05
6.45673e-05
6.67765e-05
7.08618e-05
7.47853e-05
7.51107e-05
7.53846e-05
7.54216e-05
7.54168e-05
7.53861e-05
7.5356e-05
7.53238e-05
7.52799e-05
7.52244e-05
7.51589e-05
7.50411e-05
7.48017e-05
7.44255e-05
7.41687e-05
7.40966e-05
7.42288e-05
7.60073e-05
7.65188e-05
7.6184e-05
7.58446e-05
7.55082e-05
7.50992e-05
7.45993e-05
7.40896e-05
7.35702e-05
7.29999e-05
7.24208e-05
7.18379e-05
7.12511e-05
7.06617e-05
6.89648e-05
6.77374e-05
6.67933e-05
6.58339e-05
6.47883e-05
6.33089e-05
6.18156e-05
6.02835e-05
5.85786e-05
5.40885e-05
4.58551e-05
3.75316e-05
3.07887e-05
2.63783e-05
2.19697e-05
1.75805e-05
1.55458e-05
1.50736e-05
1.73485e-05
1.89896e-05
1.9903e-05
1.95107e-05
1.96452e-05
2.1087e-05
2.27865e-05
2.46135e-05
2.62856e-05
3.07953e-05
3.59032e-05
4.15984e-05
4.81171e-05
5.62935e-05
6.44687e-05
7.2698e-05
8.17182e-05
0.000103862
9.29722e-05
0.000161169
5.66504e-05
7.8469e-05
8.67207e-05
7.86395e-05
7.51673e-05
6.64218e-05
7.58904e-05
7.98283e-05
6.4327e-05
8.77371e-05
0.000111417
0.000113667
8.61576e-05
7.55255e-05
5.45503e-05
2.64203e-05
1.43643e-05
3.5601e-05
4.90503e-05
6.26762e-05
6.91807e-05
6.79111e-05
6.31729e-05
5.70649e-05
4.84902e-05
3.95286e-05
3.26247e-05
2.4757e-05
1.94226e-05
1.80655e-05
1.63976e-05
2.33499e-05
3.67202e-05
4.82455e-05
5.88349e-05
6.85481e-05
7.51819e-05
7.46376e-05
7.41508e-05
7.37185e-05
7.33363e-05
7.30043e-05
7.27195e-05
7.24751e-05
7.22679e-05
7.20988e-05
7.19609e-05
7.18615e-05
7.28875e-05
7.27211e-05
7.18354e-05
7.09686e-05
7.00437e-05
6.90594e-05
6.80298e-05
6.69612e-05
6.58491e-05
6.48221e-05
6.36808e-05
6.2234e-05
6.07471e-05
5.91284e-05
5.75241e-05
5.52161e-05
5.06471e-05
4.59906e-05
4.11313e-05
3.61521e-05
3.11216e-05
2.65353e-05
2.57119e-05
2.84381e-05
3.15149e-05
3.23123e-05
3.28664e-05
3.2859e-05
3.29255e-05
1.13437e-05
2.91518e-05
3.16292e-05
3.79603e-05
4.53763e-05
4.04977e-05
4.04653e-05
6.58609e-05
6.99457e-05
7.33871e-05
7.67309e-05
8.02426e-05
8.40659e-05
8.7281e-05
8.99125e-05
9.25288e-05
9.46725e-05
9.65104e-05
9.68391e-05
9.64784e-05
9.09422e-05
6.47757e-05
0.000133341
3.75242e-05
9.97969e-05
0.000111233
0.000111448
0.000121462
0.000143261
0.000168857
0.000155698
0.00012739
0.000129361
0.000129936
0.000149028
0.000156874
0.000154831
0.000148739
0.000135462
0.000124751
9.65264e-05
6.66194e-05
3.56546e-05
2.24382e-05
3.27273e-05
3.91444e-05
4.48887e-05
5.06735e-05
4.78086e-05
4.54296e-05
4.22515e-05
3.74874e-05
3.34039e-05
3.06796e-05
2.5888e-05
1.98298e-05
1.92728e-05
2.34476e-05
2.83784e-05
3.30479e-05
4.00947e-05
4.61473e-05
5.14928e-05
5.61542e-05
6.01631e-05
6.23879e-05
6.20804e-05
6.16893e-05
6.12176e-05
6.06724e-05
5.98471e-05
5.84997e-05
5.7672e-05
5.67717e-05
5.62147e-05
5.60032e-05
5.58339e-05
5.57157e-05
5.55711e-05
5.54088e-05
5.5262e-05
5.50681e-05
5.48579e-05
5.46403e-05
5.44017e-05
5.52312e-05
5.50935e-05
5.48227e-05
5.41004e-05
5.1559e-05
4.90039e-05
4.30361e-05
3.64804e-05
3.06109e-05
2.73971e-05
2.79257e-05
2.92736e-05
3.19181e-05
3.47132e-05
3.76088e-05
4.05683e-05
4.13916e-05
4.21385e-05
4.23139e-05
4.22813e-05
4.13146e-05
3.9373e-05
3.72617e-05
3.21115e-05
2.72087e-05
2.23575e-05
1.77768e-05
1.17582e-05
1.06438e-05
1.30921e-05
1.66812e-05
2.24509e-05
2.92162e-05
3.49884e-05
4.04969e-05
5.13748e-05
8.45474e-05
0.000126472
0.000116349
4.56462e-05
3.30037e-05
6.9077e-05
0.000113308
0.000167263
0.000168313
0.000159867
0.000156277
0.000158302
0.000158687
0.000173246
0.000186438
0.00018922
0.000192088
0.000198009
0.000204999
0.000203685
0.000197435
0.000191476
0.000179665
0.000161021
0.000144753
0.000129889
0.000119543
0.000108814
9.89588e-05
8.86292e-05
8.03255e-05
7.30371e-05
6.62502e-05
6.03138e-05
5.54966e-05
5.15342e-05
4.87388e-05
4.77788e-05
4.6431e-05
4.63204e-05
4.59936e-05
4.5464e-05
4.47394e-05
4.34148e-05
4.16025e-05
3.99386e-05
3.8016e-05
3.59193e-05
3.36623e-05
3.12025e-05
2.79504e-05
2.53939e-05
2.34602e-05
2.15851e-05
1.81651e-05
1.43081e-05
1.05562e-05
7.39052e-06
6.1661e-06
8.16704e-06
1.19797e-05
1.62336e-05
2.07857e-05
2.5051e-05
2.81569e-05
3.05986e-05
3.09581e-05
3.11677e-05
3.1551e-05
3.25529e-05
3.40507e-05
3.46692e-05
3.87655e-05
4.28249e-05
4.71748e-05
5.16472e-05
5.55134e-05
5.89121e-05
6.22438e-05
6.55122e-05
6.87188e-05
7.49332e-05
8.13785e-05
8.63552e-05
9.12641e-05
9.59252e-05
9.58272e-05
9.57392e-05
9.53886e-05
9.39673e-05
9.19335e-05
8.95264e-05
8.69172e-05
8.35994e-05
8.00998e-05
7.66031e-05
7.29742e-05
6.93913e-05
6.5978e-05
6.2036e-05
8.36017e-05
0.000157601
0.000148978
0.000126939
0.000102939
5.34295e-05
4.90226e-05
4.52472e-05
3.08695e-05
5.35859e-05
6.39e-05
6.77701e-05
7.449e-05
7.33782e-05
6.93193e-05
6.72403e-05
6.62884e-05
7.31785e-05
7.99877e-05
8.68471e-05
9.37336e-05
0.000103949
0.000111431
0.000112797
0.000109989
0.000102971
9.61651e-05
8.32081e-05
7.08073e-05
5.89896e-05
4.775e-05
3.67947e-05
2.68514e-05
1.89778e-05
1.3489e-05
1.28726e-05
1.76741e-05
2.14193e-05
2.44878e-05
3.08638e-05
3.68034e-05
4.23952e-05
4.76667e-05
5.26409e-05
5.60767e-05
5.71833e-05
5.84824e-05
5.99606e-05
6.16105e-05
6.33385e-05
6.53254e-05
6.72746e-05
6.90503e-05
7.13669e-05
7.42874e-05
7.72091e-05
8.02084e-05
8.32957e-05
8.64464e-05
8.9682e-05
9.29799e-05
9.63436e-05
9.97007e-05
0.000103391
0.000107614
0.000111421
0.000115266
0.000118908
0.000120667
0.000122021
0.000120056
0.000118078
0.000116089
0.0001135
0.000110082
0.000107249
0.000105606
0.000104061
0.000102514
0.000100964
9.81941e-05
9.51569e-05
9.18707e-05
8.84716e-05
8.42273e-05
8.02227e-05
7.63545e-05
7.25547e-05
6.86135e-05
6.45938e-05
6.04e-05
5.68568e-05
5.47379e-05
5.39016e-05
5.31433e-05
5.23899e-05
5.16285e-05
5.23072e-05
5.3197e-05
5.36407e-05
6.16156e-05
0.000117808
0.000112803
9.57837e-05
9.52298e-05
9.54759e-05
9.63613e-05
9.0649e-05
0.00010466
9.89704e-05
7.83747e-05
6.56885e-05
5.83246e-05
5.56653e-05
5.57665e-05
5.61779e-05
5.68787e-05
6.09508e-05
7.08397e-05
7.457e-05
7.32233e-05
7.24129e-05
7.18533e-05
7.20229e-05
7.25258e-05
7.08515e-05
7.23868e-05
7.4892e-05
7.99699e-05
8.6193e-05
9.01925e-05
9.43999e-05
9.87985e-05
0.000103369
0.000108099
0.000112969
0.000118776
0.000126136
0.000130498
0.000129414
0.000128492
0.000127727
0.000127106
0.000126383
0.000125466
0.000124758
0.000124389
0.000124161
0.000124072
0.000123994
0.000122943
0.000123062
0.000123319
0.000123682
0.000122552
0.000121056
0.000116527
0.000117928
0.000116301
0.000114637
0.000112938
0.000111206
0.000108447
0.000105947
0.000104551
0.000103103
0.000101641
0.000100166
9.86807e-05
9.69652e-05
9.41334e-05
9.12817e-05
8.83168e-05
8.52241e-05
8.15413e-05
7.74473e-05
7.40809e-05
7.07035e-05
6.82435e-05
6.57631e-05
6.32955e-05
6.09188e-05
5.8751e-05
5.85318e-05
5.83183e-05
5.82016e-05
5.81082e-05
5.79745e-05
5.73892e-05
5.78529e-05
5.88325e-05
5.98029e-05
6.0872e-05
6.19921e-05
6.29589e-05
6.38962e-05
6.47427e-05
6.5584e-05
6.64206e-05
6.77003e-05
6.37912e-06
3.99438e-05
8.06729e-05
9.24185e-05
9.43032e-05
0.000107893
0.000109349
0.000109397
0.000115501
0.000112137
0.000104034
0.000101468
0.000101517
9.6888e-05
9.25733e-05
8.85513e-05
8.48088e-05
8.09798e-05
7.62486e-05
7.30317e-05
7.04129e-05
7.24133e-05
7.42532e-05
7.68227e-05
8.19592e-05
8.60135e-05
8.97694e-05
9.40739e-05
9.78882e-05
0.000101277
0.000104312
0.000106952
0.000109254
0.000110117
0.000110685
0.000111123
0.000111437
0.000111631
0.000111703
0.000111671
0.000111536
0.000111308
0.000110991
0.00011059
0.000110119
0.000109588
0.000108991
0.000108316
0.000107532
0.000104638
0.000102693
0.000101813
0.000101224
0.000100602
9.99455e-05
9.92702e-05
9.78918e-05
9.62064e-05
9.44991e-05
9.3499e-05
9.24703e-05
9.13094e-05
9.01096e-05
8.85465e-05
8.65634e-05
8.4544e-05
8.2491e-05
8.04081e-05
7.82775e-05
7.60395e-05
7.38174e-05
7.16238e-05
6.94104e-05
6.78437e-05
6.71679e-05
6.64894e-05
6.58083e-05
6.51778e-05
6.45884e-05
6.39217e-05
6.48434e-05
6.61159e-05
6.7424e-05
6.87142e-05
6.99524e-05
7.09432e-05
7.18109e-05
7.26762e-05
7.35392e-05
7.43916e-05
7.52468e-05
7.61002e-05
7.69502e-05
7.67439e-05
7.64236e-05
7.61053e-05
7.58026e-05
7.55115e-05
7.51934e-05
7.4797e-05
1.00209e-05
1.19097e-05
2.84163e-05
6.35239e-05
8.36724e-05
0.00010366
0.000106703
0.000114186
0.000112053
0.000104
0.000101
0.000101428
0.00010179
0.000102093
0.00010234
0.000102535
0.000102676
0.000101052
9.71719e-05
9.42216e-05
9.14828e-05
8.8944e-05
8.65939e-05
8.44215e-05
8.26545e-05
8.35748e-05
8.51485e-05
8.62336e-05
8.70095e-05
8.77003e-05
9.05097e-05
9.3009e-05
9.51446e-05
9.70196e-05
9.86909e-05
0.000100123
0.000101133
0.000101851
0.000102441
0.000102912
0.000103271
0.000103522
0.000103675
0.000103731
0.000103699
0.000103478
0.000102942
0.00010228
9.9766e-05
9.6813e-05
9.57708e-05
9.46338e-05
9.34104e-05
9.21055e-05
9.07217e-05
8.92374e-05
8.76816e-05
8.60766e-05
8.44472e-05
8.2776e-05
8.10185e-05
7.92125e-05
7.83892e-05
7.7765e-05
7.71321e-05
7.64918e-05
7.58438e-05
7.51891e-05
7.45284e-05
7.40832e-05
7.47446e-05
7.54152e-05
7.60944e-05
7.67811e-05
7.74744e-05
7.81741e-05
7.88795e-05
7.97447e-05
8.00069e-05
8.01723e-05
8.03457e-05
8.0473e-05
8.04659e-05
8.01192e-05
7.97747e-05
7.94325e-05
7.90926e-05
7.8755e-05
7.84198e-05
7.80897e-05
7.77483e-05
7.74213e-05
7.70954e-05
7.67719e-05
7.64515e-05
7.6133e-05
7.58192e-05
7.5505e-05
7.54384e-05
7.32026e-05
1.03465e-05
1.13864e-05
5.42909e-06
1.90946e-05
3.58616e-05
6.20974e-05
8.67938e-05
0.00010839
0.000104362
0.000100428
0.00010095
0.000101383
0.000101754
0.000102063
0.000102316
0.000102518
0.000101627
0.000100479
0.00010057
0.000100621
0.000100635
0.000100615
0.000100565
0.000100788
0.000100999
0.000101003
0.000100941
9.94424e-05
9.79788e-05
9.66379e-05
9.54125e-05
9.42977e-05
9.32859e-05
9.34913e-05
9.37813e-05
9.4011e-05
9.41793e-05
9.42935e-05
9.43557e-05
9.43665e-05
9.43337e-05
9.42536e-05
9.41346e-05
9.39754e-05
9.37791e-05
9.35493e-05
9.32846e-05
9.18105e-05
8.93342e-05
8.88914e-05
8.84436e-05
8.79746e-05
8.74838e-05
8.6975e-05
8.64484e-05
8.59039e-05
8.60022e-05
8.63688e-05
8.6738e-05
8.63536e-05
8.59717e-05
8.55904e-05
8.52108e-05
8.48334e-05
8.44573e-05
8.40832e-05
8.37111e-05
8.33413e-05
8.29734e-05
8.26084e-05
8.22459e-05
8.18856e-05
8.15278e-05
8.11724e-05
8.08195e-05
8.08471e-05
8.09982e-05
8.11767e-05
8.13371e-05
8.14556e-05
8.11885e-05
8.08359e-05
8.04857e-05
8.01379e-05
7.97923e-05
7.9449e-05
7.91079e-05
7.87694e-05
7.65357e-05
7.34402e-05
6.97609e-05
6.55375e-05
6.13368e-05
5.71632e-05
5.30195e-05
4.89035e-05
4.48302e-05
4.08433e-05
3.63384e-05
3.12283e-05
1.03717e-05
9.78899e-06
6.15035e-06
1.00931e-05
9.76882e-06
1.13897e-05
3.65479e-05
5.78711e-05
6.58419e-05
7.95415e-05
9.27388e-05
0.000101335
0.000101712
0.000102027
0.000102285
0.000102033
0.000100423
0.000100427
0.000100525
0.000100582
0.000100603
0.000100591
0.000100902
0.000101163
0.000101132
0.000100997
0.000100938
0.000100752
0.000100543
0.000100316
0.00010007
9.98103e-05
9.95342e-05
9.92469e-05
9.89452e-05
9.86336e-05
9.83117e-05
9.79789e-05
9.76407e-05
9.72914e-05
9.69383e-05
9.65777e-05
9.62117e-05
9.58417e-05
9.54656e-05
9.5088e-05
9.41829e-05
9.15301e-05
9.06232e-05
9.02428e-05
8.98593e-05
8.94761e-05
8.90921e-05
8.8706e-05
8.8321e-05
8.79358e-05
8.75499e-05
8.71654e-05
8.67814e-05
8.63971e-05
8.60144e-05
8.56336e-05
8.52541e-05
8.48762e-05
8.45002e-05
8.4126e-05
8.37534e-05
8.33832e-05
8.30155e-05
8.26503e-05
8.22874e-05
8.10084e-05
7.86142e-05
7.63354e-05
7.40984e-05
7.1886e-05
6.96367e-05
6.72243e-05
6.44986e-05
6.15489e-05
5.84077e-05
5.52864e-05
5.21867e-05
4.91099e-05
4.60569e-05
4.30295e-05
4.00296e-05
3.66177e-05
3.33539e-05
3.04381e-05
2.72981e-05
2.34695e-05
1.95845e-05
1.58064e-05
1.22156e-05
9.00554e-06
6.71645e-06
6.37435e-06
8.32974e-06
9.6749e-06
1.03931e-05
8.1933e-06
8.37487e-06
1.00133e-05
9.69228e-06
9.07662e-06
1.42006e-05
2.64517e-05
3.59444e-05
4.39821e-05
5.17005e-05
5.97617e-05
6.97508e-05
7.9678e-05
8.87425e-05
9.55358e-05
0.00010022
0.000100366
0.000100469
0.000100532
0.000100581
0.000100949
0.000101262
0.000101212
0.000101101
0.000101022
0.000100915
0.000100728
0.00010052
0.000100295
0.00010005
9.97909e-05
9.95151e-05
9.92272e-05
9.89272e-05
9.86145e-05
9.82945e-05
9.79613e-05
9.76228e-05
9.72748e-05
9.69199e-05
9.65599e-05
9.61927e-05
9.58229e-05
9.5446e-05
9.50287e-05
9.25597e-05
9.09449e-05
8.91353e-05
8.72807e-05
8.5384e-05
8.34475e-05
8.1476e-05
7.94705e-05
7.74345e-05
7.53713e-05
7.32834e-05
7.11724e-05
6.90421e-05
6.68949e-05
6.47327e-05
6.25574e-05
6.0371e-05
5.81743e-05
5.59702e-05
5.37606e-05
5.15474e-05
4.93319e-05
4.71159e-05
4.45594e-05
4.18007e-05
3.90898e-05
3.65297e-05
3.39945e-05
3.1462e-05
2.85585e-05
2.55573e-05
2.25767e-05
1.96227e-05
1.67224e-05
1.38712e-05
1.10704e-05
8.39395e-06
5.98699e-06
4.29144e-06
4.22746e-06
5.82195e-06
8.1341e-06
8.95205e-06
9.08074e-06
9.29049e-06
9.7617e-06
9.76203e-06
9.76194e-06
9.76229e-06
9.76129e-06
9.76181e-06
9.7642e-06
9.75322e-06
9.71036e-06
9.79481e-06
5.27262e-06
1.02868e-05
9.93118e-06
9.61476e-06
7.96323e-06
1.98461e-05
3.21523e-05
3.14693e-05
2.91513e-05
2.6209e-05
2.63905e-05
3.21138e-05
3.91475e-05
4.50574e-05
4.99176e-05
5.57729e-05
6.22097e-05
6.84174e-05
7.40129e-05
7.90015e-05
8.34495e-05
8.7025e-05
9.01447e-05
9.28378e-05
9.29702e-05
9.16967e-05
9.02934e-05
8.87755e-05
8.71504e-05
8.54258e-05
8.36075e-05
8.17047e-05
7.97206e-05
7.76658e-05
7.55411e-05
7.33564e-05
7.11142e-05
6.88193e-05
6.64782e-05
6.4092e-05
6.16684e-05
5.92076e-05
5.67179e-05
5.41992e-05
5.07436e-05
4.72502e-05
4.55862e-05
4.39407e-05
4.22758e-05
4.05713e-05
3.8828e-05
3.70494e-05
3.52391e-05
3.33992e-05
3.15322e-05
2.96421e-05
2.77308e-05
2.58014e-05
2.35852e-05
2.11441e-05
1.86967e-05
1.625e-05
1.38141e-05
1.14058e-05
9.05701e-06
6.84068e-06
4.94824e-06
3.98443e-06
4.38031e-06
5.67109e-06
6.71884e-06
6.9677e-06
7.31647e-06
7.67227e-06
8.034e-06
8.40079e-06
8.77179e-06
9.14626e-06
9.30444e-06
9.27161e-06
9.23896e-06
9.20646e-06
9.17413e-06
9.14199e-06
9.11005e-06
9.07829e-06
9.04673e-06
9.01537e-06
9.04069e-06
9.2461e-06
9.79839e-06
9.798e-06
9.79708e-06
9.79685e-06
9.79526e-06
9.7951e-06
9.79683e-06
9.78519e-06
9.74191e-06
7.2632e-06
5.28654e-06
1.0157e-05
9.80688e-06
8.18857e-06
8.29537e-06
2.24648e-05
3.88943e-05
3.53747e-05
2.8954e-05
2.60404e-05
2.46945e-05
2.36867e-05
2.18965e-05
1.90123e-05
1.75111e-05
1.77193e-05
2.11175e-05
2.53433e-05
2.96384e-05
3.37497e-05
3.72576e-05
4.04245e-05
4.32365e-05
4.52054e-05
4.36849e-05
4.23537e-05
4.10265e-05
3.95961e-05
3.80686e-05
3.6453e-05
3.47522e-05
3.29774e-05
3.11287e-05
2.92177e-05
2.72469e-05
2.52228e-05
2.31531e-05
2.1041e-05
1.88967e-05
1.67254e-05
1.45422e-05
1.23601e-05
1.02094e-05
7.77094e-06
4.90058e-06
4.11921e-06
3.89035e-06
3.90339e-06
3.9637e-06
4.07293e-06
4.2284e-06
4.42631e-06
4.66225e-06
4.93129e-06
5.22879e-06
5.5508e-06
5.89348e-06
6.27723e-06
6.73772e-06
7.17716e-06
7.57216e-06
7.97604e-06
8.38751e-06
8.8054e-06
9.22864e-06
9.46278e-06
9.64998e-06
9.83767e-06
9.74696e-06
9.60859e-06
9.57481e-06
9.54101e-06
9.50726e-06
9.47362e-06
9.44013e-06
9.4068e-06
9.37358e-06
9.34049e-06
9.30749e-06
9.27458e-06
9.24178e-06
9.20913e-06
9.17669e-06
9.14449e-06
9.11246e-06
9.08059e-06
9.0489e-06
9.01739e-06
9.00716e-06
9.23498e-06
9.83093e-06
9.82988e-06
9.8285e-06
9.82768e-06
9.82534e-06
9.82445e-06
9.82546e-06
9.81315e-06
9.76958e-06
5.42047e-06
7.66493e-06
9.53284e-06
7.58956e-06
6.35893e-06
6.61442e-06
2.48317e-05
4.6129e-05
3.8969e-05
2.83639e-05
2.56296e-05
2.44647e-05
2.33086e-05
2.04427e-05
1.81224e-05
1.7382e-05
1.66747e-05
1.59947e-05
1.52817e-05
1.46062e-05
1.40215e-05
1.34625e-05
1.29281e-05
1.23897e-05
8.7526e-06
5.70194e-06
5.63342e-06
5.56802e-06
5.50639e-06
5.44784e-06
5.39246e-06
5.33963e-06
5.28962e-06
5.16496e-06
5.04992e-06
4.95136e-06
4.873e-06
4.81785e-06
4.78876e-06
4.78814e-06
4.82025e-06
4.88433e-06
4.97974e-06
4.98825e-06
5.3118e-06
5.8839e-06
6.19743e-06
6.54679e-06
6.94998e-06
7.32204e-06
7.68678e-06
8.06083e-06
8.44309e-06
8.8326e-06
9.22883e-06
9.63078e-06
1.00378e-05
1.04495e-05
1.08654e-05
1.10284e-05
1.09897e-05
1.09507e-05
1.09115e-05
1.08618e-05
1.06008e-05
1.03036e-05
1.00143e-05
9.76598e-06
9.67717e-06
9.64328e-06
9.60945e-06
9.57561e-06
9.54176e-06
9.50796e-06
9.47422e-06
9.44059e-06
9.4071e-06
9.37377e-06
9.34061e-06
9.30758e-06
9.27466e-06
9.24188e-06
9.20923e-06
9.17674e-06
9.14442e-06
9.11228e-06
9.08035e-06
9.04862e-06
9.01705e-06
8.98566e-06
9.28678e-06
9.83822e-06
9.85766e-06
9.85579e-06
9.85437e-06
9.85145e-06
9.85003e-06
9.85039e-06
9.83741e-06
9.79356e-06
5.74926e-06
9.95989e-06
9.16509e-06
5.75129e-06
4.69482e-06
4.83247e-06
2.64859e-05
5.07059e-05
4.04271e-05
2.78219e-05
2.48596e-05
2.33463e-05
2.07258e-05
1.80273e-05
1.69575e-05
1.62651e-05
1.55983e-05
1.49029e-05
1.42384e-05
1.36566e-05
1.30982e-05
1.25638e-05
1.20532e-05
1.04794e-05
7.58272e-06
5.95046e-06
5.95854e-06
5.98418e-06
6.02783e-06
6.09122e-06
6.17288e-06
6.27498e-06
6.2603e-06
6.27371e-06
6.42872e-06
6.60972e-06
6.81127e-06
7.03119e-06
7.27101e-06
7.52654e-06
7.79764e-06
8.0869e-06
8.38699e-06
9.02722e-06
1.02514e-05
1.06309e-05
1.09953e-05
1.13655e-05
1.14197e-05
1.13862e-05
1.13515e-05
1.13162e-05
1.12807e-05
1.12445e-05
1.12077e-05
1.11707e-05
1.11332e-05
1.10954e-05
1.10573e-05
1.10188e-05
1.098e-05
1.09179e-05
1.06468e-05
1.03393e-05
1.00457e-05
9.79321e-06
9.74316e-06
9.70921e-06
9.67527e-06
9.64131e-06
9.60738e-06
9.57346e-06
9.5396e-06
9.50583e-06
9.47217e-06
9.43865e-06
9.40519e-06
9.37178e-06
9.33845e-06
9.30525e-06
9.27224e-06
9.23941e-06
9.20672e-06
9.17419e-06
9.14184e-06
9.10968e-06
9.07769e-06
9.04587e-06
9.01421e-06
8.98278e-06
9.30881e-06
9.79488e-06
9.88125e-06
9.87883e-06
9.87685e-06
9.87348e-06
9.87152e-06
9.87121e-06
9.85772e-06
9.81372e-06
6.95743e-06
9.96109e-06
6.58764e-06
4.80585e-06
4.73909e-06
5.34018e-06
2.89487e-05
5.03336e-05
3.8471e-05
2.70066e-05
2.40872e-05
2.22405e-05
1.9947e-05
1.82598e-05
1.74996e-05
1.67813e-05
1.60678e-05
1.54002e-05
1.48119e-05
1.42662e-05
1.37608e-05
1.32968e-05
1.2875e-05
1.07412e-05
1.00152e-05
9.65449e-06
9.73531e-06
9.83929e-06
9.96343e-06
1.01087e-05
1.02727e-05
1.04545e-05
1.06544e-05
1.06325e-05
1.06007e-05
1.0568e-05
1.05365e-05
1.05027e-05
1.04685e-05
1.04362e-05
1.04006e-05
1.03655e-05
1.02918e-05
1.13229e-05
1.15359e-05
1.15051e-05
1.14739e-05
1.14419e-05
1.14085e-05
1.13746e-05
1.13402e-05
1.13049e-05
1.1269e-05
1.12328e-05
1.1196e-05
1.11587e-05
1.1121e-05
1.10832e-05
1.10449e-05
1.09865e-05
1.07042e-05
1.03889e-05
1.009e-05
9.84032e-06
9.80647e-06
9.77258e-06
9.73864e-06
9.7047e-06
9.67073e-06
9.63675e-06
9.60277e-06
9.56874e-06
9.53477e-06
9.50091e-06
9.46721e-06
9.43365e-06
9.40021e-06
9.36686e-06
9.33364e-06
9.30048e-06
9.26742e-06
9.23447e-06
9.20166e-06
9.16909e-06
9.13675e-06
9.10461e-06
9.0726e-06
9.04072e-06
9.00901e-06
8.97752e-06
9.2676e-06
9.75826e-06
9.9008e-06
9.89792e-06
9.89544e-06
9.89155e-06
9.8889e-06
9.88802e-06
9.87413e-06
9.83e-06
7.18681e-06
7.5832e-06
5.26283e-06
4.87351e-06
4.80432e-06
7.5524e-06
3.16845e-05
4.83122e-05
3.66333e-05
2.64483e-05
2.35415e-05
2.09561e-05
1.87501e-05
1.8047e-05
1.73877e-05
1.67378e-05
1.61311e-05
1.5594e-05
1.50989e-05
1.46374e-05
1.42067e-05
1.38059e-05
1.32556e-05
1.16075e-05
1.08659e-05
1.08407e-05
1.08138e-05
1.07873e-05
1.076e-05
1.07317e-05
1.07036e-05
1.06744e-05
1.0645e-05
1.06149e-05
1.05857e-05
1.05545e-05
1.05232e-05
1.04931e-05
1.04595e-05
1.04266e-05
1.0395e-05
1.03535e-05
1.0895e-05
1.15508e-05
1.15216e-05
1.14914e-05
1.14597e-05
1.14274e-05
1.13944e-05
1.13603e-05
1.13256e-05
1.12904e-05
1.12545e-05
1.1218e-05
1.1181e-05
1.11437e-05
1.1106e-05
1.10679e-05
1.0778e-05
1.04535e-05
1.01455e-05
9.9002e-06
9.86658e-06
9.83289e-06
9.79904e-06
9.76518e-06
9.73128e-06
9.69735e-06
9.66337e-06
9.62936e-06
9.59538e-06
9.56143e-06
9.52754e-06
9.4937e-06
9.45988e-06
9.42617e-06
9.39257e-06
9.35916e-06
9.32589e-06
9.29279e-06
9.25977e-06
9.22688e-06
9.19408e-06
9.16148e-06
9.12907e-06
9.09687e-06
9.06486e-06
9.03303e-06
9.00137e-06
8.96986e-06
9.23062e-06
9.72703e-06
9.91624e-06
9.91289e-06
9.90997e-06
9.90559e-06
9.90245e-06
9.90111e-06
9.8867e-06
9.8424e-06
5.99125e-06
5.76009e-06
5.0271e-06
4.94066e-06
4.86937e-06
1.01414e-05
3.42824e-05
4.62233e-05
3.47137e-05
2.58727e-05
2.20342e-05
1.97204e-05
1.83838e-05
1.76974e-05
1.70236e-05
1.63913e-05
1.58281e-05
1.53129e-05
1.48336e-05
1.43878e-05
1.39723e-05
1.35861e-05
1.21071e-05
1.16324e-05
1.08224e-05
1.08011e-05
1.07782e-05
1.07538e-05
1.07296e-05
1.07039e-05
1.06776e-05
1.06504e-05
1.06237e-05
1.05948e-05
1.05662e-05
1.0539e-05
1.05082e-05
1.04779e-05
1.04483e-05
1.04152e-05
1.03836e-05
1.04614e-05
1.15215e-05
1.15338e-05
1.15042e-05
1.14738e-05
1.14426e-05
1.141e-05
1.13767e-05
1.13428e-05
1.13081e-05
1.12726e-05
1.12367e-05
1.12001e-05
1.1163e-05
1.11256e-05
1.08688e-05
1.05341e-05
1.02139e-05
9.9564e-06
9.92323e-06
9.88992e-06
9.85638e-06
9.82271e-06
9.78888e-06
9.75506e-06
9.72116e-06
9.6872e-06
9.65318e-06
9.61914e-06
9.58515e-06
9.55119e-06
9.5173e-06
9.48348e-06
9.44977e-06
9.41615e-06
9.38259e-06
9.34912e-06
9.31573e-06
9.28251e-06
9.24947e-06
9.21661e-06
9.1839e-06
9.15137e-06
9.11898e-06
9.08675e-06
9.05467e-06
9.02276e-06
8.99104e-06
8.95955e-06
9.19693e-06
9.69991e-06
9.92737e-06
9.92356e-06
9.92019e-06
9.91539e-06
9.91184e-06
9.91005e-06
9.89522e-06
9.85087e-06
4.62898e-06
5.18582e-06
5.09877e-06
5.00749e-06
5.69636e-06
1.33925e-05
3.56494e-05
4.40665e-05
3.26333e-05
2.48639e-05
2.06772e-05
1.87225e-05
1.80103e-05
1.73129e-05
1.66515e-05
1.60605e-05
1.55252e-05
1.50264e-05
1.45627e-05
1.41327e-05
1.37329e-05
1.3362e-05
1.144e-05
1.10223e-05
1.07766e-05
1.07579e-05
1.07391e-05
1.07179e-05
1.0696e-05
1.0673e-05
1.06497e-05
1.06237e-05
1.05981e-05
1.05731e-05
1.05446e-05
1.05181e-05
1.0492e-05
1.04609e-05
1.04318e-05
1.04027e-05
1.03341e-05
1.10661e-05
1.15417e-05
1.15135e-05
1.14842e-05
1.14535e-05
1.14219e-05
1.13897e-05
1.13564e-05
1.13223e-05
1.12876e-05
1.12521e-05
1.12161e-05
1.11795e-05
1.09714e-05
1.06322e-05
1.03009e-05
1.00093e-05
9.97594e-06
9.94306e-06
9.90995e-06
9.87667e-06
9.84321e-06
9.8096e-06
9.77589e-06
9.74207e-06
9.70816e-06
9.67422e-06
9.64025e-06
9.60631e-06
9.57233e-06
9.53834e-06
9.50438e-06
9.47048e-06
9.43677e-06
9.40317e-06
9.36971e-06
9.33631e-06
9.30299e-06
9.26977e-06
9.23667e-06
9.20374e-06
9.17102e-06
9.13855e-06
9.10624e-06
9.07408e-06
9.04203e-06
9.0101e-06
8.97835e-06
8.94682e-06
9.16555e-06
9.67529e-06
9.9341e-06
9.92997e-06
9.92625e-06
9.92102e-06
9.91699e-06
9.91475e-06
9.89954e-06
9.85523e-06
5.00985e-06
5.25947e-06
5.17051e-06
5.07464e-06
6.84707e-06
1.67006e-05
3.67726e-05
4.18505e-05
3.0476e-05
2.32311e-05
1.93056e-05
1.83249e-05
1.76056e-05
1.69154e-05
1.62921e-05
1.57348e-05
1.52166e-05
1.47346e-05
1.42865e-05
1.38721e-05
1.3488e-05
1.26087e-05
1.14548e-05
1.07441e-05
1.07298e-05
1.07135e-05
1.0697e-05
1.06793e-05
1.06607e-05
1.06392e-05
1.06177e-05
1.05956e-05
1.05699e-05
1.05463e-05
1.05222e-05
1.04949e-05
1.04694e-05
1.04419e-05
1.04124e-05
1.03842e-05
1.05722e-05
1.15136e-05
1.15191e-05
1.14905e-05
1.1461e-05
1.14305e-05
1.13989e-05
1.13663e-05
1.13331e-05