/*--------------------------------*- C++ -*----------------------------------*\
| =========                 |                                                 |
| \\      /  F ield         | foam-extend: Open Source CFD                    |
|  \\    /   O peration     | Version:     4.1                                |
|   \\  /    A nd           | Web:         http://www.foam-extend.org         |
|    \\/     M anipulation  |                                                 |
\*---------------------------------------------------------------------------*/
FoamFile
{
    version     2.0;
    format      ascii;
    class       volScalarField;
    location    "6";
    object      sigmaHyd;
}
// * * * * * * * * * * * * * * * * * * * * * * * * * * * * * * * * * * * * * //

dimensions      [1 -1 -2 0 0 0 0];

internalField   nonuniform List<scalar> 
100000
(
-282374
-281651
-281790
-281489
-281425
-281245
-281132
-280991
-280871
-280746
-280630
-280515
-280404
-280297
-280193
-280091
-279993
-279898
-279805
-279715
-279627
-279542
-279459
-279378
-279299
-279223
-279148
-279074
-279005
-278930
-278867
-278775
-278716
-278685
-278614
-278552
-278493
-278433
-278377
-278320
-278266
-278212
-278159
-278108
-278058
-278008
-277960
-277912
-277866
-277820
-277775
-277730
-277687
-277644
-277602
-277560
-277520
-277480
-277440
-277401
-277363
-277325
-277287
-277250
-277214
-277178
-277142
-277107
-277072
-277038
-277004
-276970
-276937
-276904
-276871
-276839
-276808
-276776
-276745
-276714
-276683
-276652
-276622
-276591
-276562
-276531
-276501
-276471
-276441
-276412
-276383
-276355
-276328
-276301
-276278
-276252
-276244
-276214
-276260
-276093
-292601
-291629
-291594
-291089
-290844
-290479
-290192
-289878
-289592
-289305
-289030
-288761
-288500
-288246
-288000
-287759
-287526
-287298
-287076
-286860
-286650
-286445
-286245
-286050
-285861
-285675
-285496
-285319
-285159
-284980
-284888
-284639
-284596
-284325
-284263
-284041
-283908
-283752
-283614
-283475
-283342
-283211
-283083
-282957
-282834
-282714
-282595
-282479
-282365
-282253
-282144
-282036
-281930
-281826
-281724
-281623
-281525
-281428
-281332
-281238
-281146
-281055
-280965
-280877
-280790
-280704
-280620
-280537
-280455
-280374
-280294
-280216
-280138
-280062
-279987
-279913
-279840
-279767
-279696
-279625
-279554
-279485
-279417
-279349
-279284
-279216
-279150
-279085
-279020
-278956
-278894
-278832
-278773
-278712
-278658
-278597
-278557
-278487
-278501
-278264
-302824
-301601
-301394
-300684
-300260
-299710
-299248
-298762
-298309
-297859
-297426
-297003
-296592
-296192
-295803
-295424
-295055
-294695
-294345
-294003
-293670
-293345
-293028
-292719
-292417
-292123
-291836
-291554
-291281
-291013
-290751
-290505
-290221
-289968
-289754
-289514
-289290
-289063
-288843
-288626
-288415
-288207
-288004
-287804
-287609
-287417
-287229
-287044
-286863
-286685
-286511
-286340
-286171
-286006
-285844
-285684
-285528
-285374
-285223
-285074
-284928
-284784
-284642
-284503
-284365
-284230
-284097
-283966
-283836
-283709
-283584
-283460
-283338
-283218
-283100
-282984
-282870
-282756
-282646
-282537
-282427
-282318
-282215
-282109
-282014
-281906
-281803
-281700
-281600
-281501
-281405
-281310
-281219
-281126
-281042
-280946
-280880
-280761
-280755
-280420
-313038
-311566
-311186
-310272
-309668
-308934
-308297
-307639
-307020
-306407
-305816
-305239
-304679
-304132
-303601
-303083
-302579
-302087
-301608
-301140
-300685
-300240
-299806
-299383
-298970
-298567
-298173
-297788
-297414
-297042
-296684
-296323
-295926
-295638
-295321
-294996
-294686
-294374
-294073
-293775
-293485
-293200
-292921
-292648
-292380
-292117
-291859
-291606
-291358
-291115
-290875
-290641
-290410
-290184
-289961
-289743
-289529
-289318
-289111
-288908
-288707
-288510
-288317
-288126
-287938
-287753
-287571
-287392
-287216
-287042
-286871
-286703
-286537
-286374
-286214
-286055
-285902
-285746
-285599
-285445
-285290
-285146
-285004
-284860
-284731
-284588
-284442
-284309
-284173
-284042
-283912
-283784
-283659
-283533
-283417
-283287
-283189
-283034
-282995
-282618
-323243
-321522
-320969
-319850
-319067
-318148
-317338
-316507
-315722
-314947
-314199
-313467
-312757
-312065
-311391
-310735
-310095
-309472
-308864
-308271
-307693
-307129
-306578
-306041
-305516
-305004
-304503
-304014
-303536
-303069
-302610
-302164
-301717
-301292
-300878
-300469
-300071
-299679
-299295
-298919
-298550
-298189
-297835
-297487
-297147
-296813
-296486
-296164
-295849
-295540
-295236
-294938
-294645
-294358
-294075
-293798
-293525
-293258
-292996
-292738
-292484
-292234
-291988
-291746
-291508
-291274
-291043
-290816
-290593
-290372
-290156
-289942
-289732
-289524
-289321
-289117
-288924
-288724
-288543
-288366
-288161
-287968
-287801
-287615
-287509
-287293
-287100
-286915
-286746
-286577
-286416
-286254
-286098
-285939
-285790
-285627
-285498
-285308
-285241
-284824
-333435
-331465
-330739
-329417
-328454
-327352
-326367
-325365
-324414
-323476
-322571
-321686
-320826
-319988
-319172
-318377
-317603
-316848
-316111
-315393
-314693
-314009
-313342
-312691
-312055
-311434
-310827
-310234
-309654
-309087
-308531
-307988
-307449
-306938
-306433
-305938
-305454
-304978
-304513
-304057
-303610
-303172
-302742
-302321
-301909
-301504
-301107
-300717
-300335
-299960
-299592
-299230
-298875
-298526
-298184
-297847
-297518
-297195
-296877
-296564
-296256
-295953
-295656
-295363
-295074
-294790
-294511
-294236
-293966
-293699
-293437
-293179
-292925
-292674
-292430
-292186
-291958
-291715
-291532
-291262
-290975
-290786
-290574
-290338
-290201
-289974
-289681
-289520
-289306
-289114
-288917
-288724
-288534
-288342
-288161
-287965
-287805
-287582
-287485
-287034
-343612
-341393
-340495
-338970
-337828
-336542
-335383
-334209
-333093
-331993
-330930
-329892
-328883
-327900
-326942
-326009
-325099
-324213
-323348
-322505
-321682
-320880
-320096
-319331
-318584
-317854
-317142
-316445
-315764
-315098
-314446
-313809
-313184
-312577
-311982
-311399
-310829
-310270
-309723
-309187
-308662
-308147
-307643
-307148
-306663
-306188
-305722
-305264
-304815
-304374
-303942
-303517
-303101
-302690
-302288
-301891
-301502
-301125
-300752
-300385
-300024
-299668
-299318
-298974
-298636
-298302
-297974
-297652
-297334
-297021
-296713
-296409
-296110
-295812
-295524
-295223
-294955
-294611
-294428
-293971
-293878
-293513
-293278
-293002
-293048
-292453
-292312
-292037
-291860
-291624
-291409
-291183
-290964
-290740
-290528
-290301
-290110
-289854
-289729
-289245
-353772
-351305
-350235
-348506
-347186
-345716
-344384
-343039
-341757
-340496
-339276
-338085
-336927
-335798
-334699
-333627
-332583
-331566
-330573
-329605
-328660
-327738
-326839
-325960
-325102
-324264
-323446
-322646
-321863
-321099
-320350
-319619
-318902
-318204
-317520
-316851
-316196
-315554
-314925
-314310
-313706
-313115
-312536
-311967
-311410
-310864
-310329
-309803
-309287
-308781
-308284
-307795
-307317
-306843
-306383
-305923
-305481
-305054
-304622
-304201
-303785
-303377
-302975
-302580
-302191
-301809
-301432
-301062
-300697
-300338
-299985
-299637
-299294
-298956
-298623
-298295
-297965
-297653
-297300
-297055
-296788
-296444
-296143
-295869
-295521
-295271
-295050
-294723
-294461
-294182
-293919
-293654
-293399
-293140
-292895
-292635
-292412
-292125
-291971
-291453
-363911
-361197
-359955
-358024
-356525
-354872
-353368
-351851
-350404
-348982
-347605
-346261
-344954
-343681
-342440
-341231
-340053
-338904
-337784
-336691
-335625
-334584
-333568
-332577
-331608
-330662
-329738
-328835
-327952
-327088
-326244
-325419
-324611
-323821
-323048
-322292
-321552
-320827
-320118
-319422
-318741
-318073
-317419
-316778
-316149
-315532
-314927
-314334
-313752
-313181
-312621
-312069
-311532
-310995
-310481
-309953
-309437
-308963
-308490
-308008
-307543
-307079
-306626
-306179
-305740
-305308
-304884
-304466
-304054
-303649
-303251
-302858
-302472
-302090
-301716
-301344
-300984
-300623
-300278
-299948
-299594
-299245
-298927
-298593
-298336
-297975
-297647
-297317
-297013
-296704
-296408
-296111
-295823
-295532
-295255
-294963
-294710
-294391
-294208
-293658
-374028
-371067
-369654
-367521
-365844
-364008
-362331
-360644
-359032
-357449
-355916
-354420
-352965
-351546
-350165
-348818
-347506
-346227
-344979
-343762
-342574
-341415
-340284
-339179
-338100
-337046
-336017
-335010
-334027
-333065
-332125
-331205
-330305
-329426
-328565
-327722
-326897
-326090
-325299
-324524
-323765
-323021
-322292
-321577
-320877
-320189
-319516
-318855
-318206
-317569
-316945
-316329
-315728
-315125
-314551
-313929
-313402
-312919
-312341
-311815
-311288
-310773
-310267
-309770
-309281
-308801
-308328
-307862
-307404
-306954
-306510
-306073
-305643
-305219
-304802
-304392
-303986
-303590
-303195
-302817
-302439
-302060
-301690
-301326
-300964
-300609
-300263
-299910
-299570
-299230
-298898
-298568
-298245
-297922
-297613
-297288
-297004
-296654
-296442
-295860
-384121
-380913
-379329
-376994
-375140
-373122
-371272
-369416
-367640
-365896
-364207
-362558
-360955
-359392
-357871
-356387
-354941
-353531
-352156
-350815
-349506
-348229
-346982
-345765
-344576
-343415
-342280
-341171
-340087
-339027
-337991
-336978
-335986
-335016
-334067
-333139
-332229
-331339
-330467
-329613
-328777
-327957
-327153
-326365
-325593
-324836
-324094
-323365
-322651
-321950
-321265
-320588
-319940
-319273
-318708
-317974
-317616
-316750
-316260
-315600
-315040
-314459
-313904
-313353
-312815
-312285
-311764
-311251
-310747
-310250
-309761
-309280
-308807
-308340
-307881
-307429
-306985
-306547
-306116
-305693
-305273
-304859
-304454
-304051
-303662
-303265
-302879
-302493
-302117
-301744
-301378
-301015
-300660
-300304
-299963
-299608
-299293
-298912
-298671
-298056
-394185
-390732
-388978
-386442
-384411
-382211
-380190
-378163
-376224
-374320
-372475
-370675
-368924
-367218
-365556
-363935
-362356
-360816
-359315
-357850
-356420
-355025
-353663
-352333
-351035
-349766
-348527
-347315
-346131
-344974
-343842
-342735
-341652
-340592
-339555
-338541
-337547
-336575
-335622
-334689
-333775
-332879
-332001
-331141
-330297
-329470
-328659
-327863
-327083
-326317
-325565
-324828
-324104
-323398
-322694
-322046
-321304
-320607
-320009
-319363
-318746
-318127
-317522
-316924
-316337
-315759
-315190
-314631
-314080
-313538
-313004
-312479
-311962
-311453
-310952
-310459
-309972
-309494
-309023
-308559
-308102
-307650
-307205
-306766
-306333
-305906
-305485
-305068
-304657
-304251
-303852
-303456
-303069
-302681
-302309
-301921
-301576
-301164
-300894
-300248
-404221
-400522
-398598
-395862
-393654
-391273
-389081
-386885
-384782
-382719
-380719
-378768
-376870
-375020
-373218
-371462
-369750
-368080
-366452
-364864
-363314
-361801
-360325
-358883
-357475
-356099
-354755
-353442
-352158
-350903
-349675
-348475
-347300
-346152
-345027
-343927
-342850
-341795
-340762
-339750
-338759
-337788
-336836
-335903
-334988
-334091
-333211
-332348
-331502
-330671
-329857
-329056
-328273
-327498
-326745
-325989
-325238
-324533
-323843
-323143
-322467
-321794
-321137
-320488
-319851
-319224
-318607
-318001
-317404
-316816
-316238
-315669
-315109
-314557
-314014
-313479
-312952
-312433
-311922
-311419
-310923
-310433
-309952
-309476
-309007
-308543
-308087
-307635
-307191
-306751
-306319
-305890
-305471
-305051
-304647
-304228
-303853
-303409
-303111
-302433
-414224
-410281
-408188
-405251
-402868
-400307
-397943
-395579
-393313
-391091
-388937
-386835
-384790
-382797
-380856
-378964
-377119
-375321
-373566
-371855
-370185
-368556
-366965
-365411
-363894
-362412
-360964
-359548
-358165
-356813
-355490
-354197
-352931
-351693
-350482
-349296
-348135
-346999
-345886
-344795
-343727
-342680
-341655
-340649
-339663
-338697
-337749
-336819
-335907
-335011
-334133
-333271
-332424
-331593
-330775
-329975
-329177
-328399
-327645
-326897
-326167
-325444
-324736
-324038
-323352
-322677
-322013
-321360
-320717
-320084
-319461
-318848
-318245
-317651
-317066
-316489
-315922
-315363
-314812
-314270
-313735
-313208
-312688
-312176
-311670
-311172
-310680
-310195
-309716
-309243
-308778
-308317
-307865
-307413
-306978
-306528
-306122
-305648
-305321
-304612
-424192
-420006
-417744
-414609
-412050
-409309
-406775
-404243
-401815
-399434
-397126
-394874
-392683
-390548
-388468
-386440
-384464
-382536
-380657
-378823
-377033
-375287
-373582
-371917
-370291
-368703
-367151
-365634
-364152
-362702
-361285
-359899
-358543
-357216
-355918
-354647
-353403
-352185
-350992
-349823
-348678
-347556
-346457
-345379
-344323
-343287
-342271
-341274
-340297
-339337
-338396
-337471
-336564
-335672
-334796
-333935
-333088
-332259
-331447
-330645
-329860
-329086
-328326
-327578
-326843
-326120
-325408
-324708
-324019
-323341
-322674
-322017
-321370
-320734
-320107
-319490
-318882
-318283
-317693
-317111
-316538
-315973
-315417
-314867
-314326
-313792
-313265
-312746
-312233
-311727
-311228
-310735
-310251
-309767
-309301
-308820
-308384
-307879
-307523
-306784
-434123
-429695
-427265
-423931
-421198
-418277
-415575
-412875
-410285
-407746
-405285
-402883
-400547
-398269
-396051
-393889
-391781
-389725
-387720
-385765
-383856
-381993
-380175
-378399
-376665
-374971
-373316
-371698
-370117
-368571
-367059
-365580
-364134
-362718
-361333
-359978
-358651
-357351
-356079
-354832
-353611
-352415
-351242
-350092
-348965
-347860
-346776
-345713
-344670
-343647
-342642
-341656
-340688
-339737
-338803
-337886
-336984
-336099
-335231
-334376
-333538
-332713
-331902
-331105
-330321
-329549
-328790
-328044
-327309
-326586
-325874
-325174
-324484
-323806
-323137
-322479
-321830
-321192
-320562
-319942
-319331
-318729
-318135
-317549
-316972
-316403
-315841
-315287
-314741
-314201
-313670
-313144
-312628
-312113
-311615
-311104
-310637
-310102
-309718
-308949
-444015
-439345
-436748
-433216
-430309
-427210
-424339
-421472
-418722
-416026
-413412
-410861
-408379
-405961
-403604
-401308
-399069
-396886
-394756
-392679
-390652
-388673
-386742
-384856
-383014
-381214
-379456
-377737
-376058
-374416
-372810
-371239
-369702
-368199
-366728
-365288
-363878
-362498
-361146
-359822
-358525
-357254
-356008
-354787
-353590
-352416
-351264
-350135
-349027
-347940
-346873
-345825
-344797
-343787
-342795
-341821
-340864
-339924
-339001
-338094
-337203
-336326
-335465
-334618
-333785
-332965
-332159
-331366
-330586
-329818
-329063
-328319
-327586
-326865
-326155
-325456
-324767
-324089
-323421
-322762
-322113
-321473
-320843
-320221
-319608
-319003
-318407
-317819
-317239
-316666
-316102
-315544
-314996
-314450
-313921
-313378
-312882
-312317
-311904
-311105
-453865
-448955
-446191
-442463
-439382
-436105
-433066
-430034
-427123
-424270
-421504
-418805
-416179
-413619
-411126
-408695
-406326
-404016
-401762
-399564
-397419
-395325
-393281
-391285
-389335
-387431
-385570
-383752
-381974
-380236
-378536
-376874
-375247
-373656
-372099
-370575
-369083
-367622
-366191
-364790
-363417
-362072
-360754
-359462
-358195
-356952
-355733
-354538
-353365
-352215
-351085
-349977
-348888
-347820
-346770
-345739
-344727
-343732
-342755
-341795
-340852
-339924
-339013
-338116
-337234
-336367
-335514
-334675
-333849
-333037
-332237
-331450
-330675
-329912
-329161
-328421
-327692
-326974
-326267
-325570
-324883
-324207
-323539
-322881
-322233
-321593
-320963
-320340
-319727
-319121
-318524
-317934
-317354
-316776
-316217
-315644
-315117
-314522
-314080
-313252
-463671
-458521
-455591
-451667
-448414
-444961
-441754
-438556
-435486
-432478
-429560
-426713
-423943
-421244
-418614
-416050
-413551
-411114
-408737
-406418
-404156
-401947
-399791
-397685
-395629
-393620
-391657
-389739
-387864
-386030
-384237
-382484
-380768
-379089
-377446
-375839
-374264
-372724
-371215
-369737
-368289
-366870
-365479
-364116
-362779
-361468
-360183
-358922
-357685
-356471
-355279
-354110
-352962
-351835
-350728
-349640
-348572
-347523
-346493
-345480
-344485
-343506
-342544
-341599
-340669
-339754
-338854
-337969
-337098
-336241
-335398
-334568
-333750
-332946
-332153
-331373
-330604
-329847
-329101
-328366
-327642
-326928
-326224
-325530
-324846
-324172
-323507
-322850
-322204
-321565
-320936
-320313
-319702
-319093
-318502
-317899
-317343
-316717
-316247
-315390
-473430
-468042
-464947
-460828
-457404
-453774
-450401
-447039
-443810
-440646
-437577
-434584
-431671
-428832
-426066
-423370
-420742
-418179
-415679
-413240
-410860
-408538
-406270
-404056
-401893
-399780
-397716
-395698
-393726
-391797
-389911
-388067
-386262
-384496
-382768
-381077
-379420
-377801
-376213
-374659
-373136
-371644
-370181
-368748
-367342
-365963
-364611
-363285
-361983
-360707
-359454
-358224
-357016
-355831
-354666
-353523
-352400
-351296
-350212
-349147
-348100
-347071
-346060
-345065
-344087
-343125
-342179
-341248
-340332
-339431
-338544
-337670
-336811
-335965
-335131
-334311
-333502
-332706
-331921
-331149
-330387
-329636
-328896
-328167
-327447
-326738
-326039
-325349
-324669
-323997
-323335
-322681
-322038
-321398
-320777
-320143
-319558
-318902
-318404
-317518
-483140
-477516
-474256
-469943
-466348
-462543
-459004
-455479
-452092
-448773
-445555
-442415
-439360
-436382
-433481
-430653
-427896
-425208
-422586
-420028
-417532
-415095
-412717
-410394
-408125
-405909
-403744
-401627
-399558
-397536
-395557
-393622
-391729
-389877
-388064
-386290
-384552
-382853
-381188
-379558
-377961
-376395
-374861
-373357
-371882
-370436
-369017
-367626
-366261
-364922
-363607
-362317
-361050
-359807
-358586
-357386
-356208
-355051
-353913
-352796
-351698
-350618
-349557
-348514
-347488
-346479
-345486
-344510
-343549
-342604
-341674
-340758
-339856
-338969
-338095
-337234
-336386
-335551
-334728
-333917
-333118
-332331
-331555
-330790
-330035
-329292
-328558
-327835
-327121
-326417
-325723
-325037
-324363
-323692
-323041
-322377
-321762
-321077
-320550
-319635
-492799
-486939
-483516
-479010
-475245
-471266
-467562
-463874
-460330
-456858
-453490
-450205
-447008
-443892
-440857
-437898
-435013
-432200
-429457
-426780
-424168
-421618
-419129
-416699
-414325
-412006
-409740
-407525
-405360
-403244
-401173
-399148
-397167
-395228
-393329
-391473
-389650
-387877
-386134
-384430
-382758
-381121
-379515
-377942
-376398
-374885
-373401
-371945
-370516
-369114
-367739
-366389
-365063
-363762
-362484
-361229
-359996
-358785
-357595
-356426
-355276
-354147
-353036
-351945
-350871
-349815
-348777
-347755
-346750
-345761
-344787
-343829
-342886
-341957
-341042
-340142
-339254
-338381
-337520
-336671
-335835
-335012
-334200
-333399
-332610
-331832
-331064
-330308
-329561
-328825
-328099
-327381
-326676
-325974
-325292
-324598
-323954
-323239
-322684
-321741
-502404
-496309
-492724
-488026
-484092
-479940
-476073
-472222
-468522
-464897
-461381
-457951
-454614
-451361
-448191
-445102
-442090
-439154
-436289
-433494
-430767
-428105
-425506
-422969
-420490
-418069
-415703
-413391
-411130
-408920
-406759
-404645
-402576
-400551
-398569
-396631
-394729
-392878
-391057
-389278
-387532
-385822
-384145
-382501
-380890
-379309
-377760
-376239
-374748
-373284
-371848
-370438
-369054
-367695
-366361
-365051
-363763
-362499
-361256
-360035
-358835
-357655
-356496
-355356
-354235
-353133
-352049
-350982
-349933
-348900
-347884
-346883
-345898
-344928
-343974
-343033
-342107
-341195
-340296
-339410
-338538
-337678
-336830
-335994
-335170
-334358
-333557
-332767
-331988
-331219
-330461
-329712
-328975
-328243
-327531
-326807
-326133
-325390
-324806
-323836
-511953
-505625
-501878
-496990
-492888
-488563
-484533
-480522
-476667
-472890
-469226
-465652
-462175
-458785
-455483
-452264
-449126
-446066
-443081
-440169
-437328
-434554
-431846
-429202
-426619
-424096
-421631
-419222
-416867
-414564
-412312
-410108
-407952
-405842
-403769
-401752
-399745
-397841
-395942
-394094
-392275
-390495
-388747
-387035
-385355
-383708
-382093
-380509
-378955
-377430
-375933
-374464
-373022
-371606
-370216
-368850
-367509
-366191
-364896
-363624
-362373
-361144
-359935
-358748
-357580
-356431
-355302
-354190
-353097
-352021
-350962
-349920
-348893
-347883
-346888
-345908
-344943
-343993
-343056
-342133
-341224
-340328
-339445
-338574
-337716
-336869
-336035
-335212
-334400
-333599
-332809
-332029
-331262
-330499
-329757
-329004
-328301
-327528
-326916
-325919
-521444
-514885
-510977
-505899
-501631
-497134
-492942
-488771
-484761
-480834
-477024
-473307
-469690
-466165
-462731
-459383
-456120
-452937
-449833
-446804
-443848
-440964
-438147
-435397
-432711
-430087
-427523
-425018
-422568
-420173
-417832
-415540
-413299
-411104
-408956
-406852
-404787
-402792
-400816
-398889
-396995
-395141
-393323
-391541
-389794
-388081
-386401
-384753
-383136
-381550
-379993
-378465
-376965
-375493
-374047
-372626
-371231
-369861
-368514
-367190
-365888
-364610
-363351
-362118
-360903
-359709
-358534
-357379
-356242
-355123
-354022
-352937
-351870
-350819
-349785
-348766
-347762
-346773
-345799
-344840
-343894
-342962
-342043
-341138
-340245
-339365
-338497
-337641
-336797
-335964
-335143
-334332
-333534
-332741
-331969
-331186
-330454
-329653
-329013
-327989
-530874
-524085
-520018
-514751
-510317
-505650
-501298
-496967
-492804
-488727
-484771
-480912
-477157
-473497
-469932
-466456
-463068
-459763
-456540
-453396
-450328
-447332
-444408
-441553
-438764
-436040
-433378
-430777
-428234
-425748
-423317
-420938
-418612
-416332
-414087
-411909
-409597
-407689
-405634
-403647
-401682
-399757
-397869
-396018
-394204
-392425
-390680
-388969
-387291
-385644
-384027
-382441
-380884
-379355
-377854
-376379
-374931
-373508
-372109
-370735
-369383
-368056
-366749
-365467
-364206
-362967
-361747
-360548
-359367
-358205
-357062
-355936
-354828
-353737
-352663
-351605
-350563
-349536
-348525
-347529
-346547
-345579
-344626
-343686
-342759
-341845
-340944
-340056
-339179
-338315
-337462
-336620
-335792
-334969
-334167
-333355
-332594
-331765
-331096
-330045
-540241
-533223
-528998
-523544
-518945
-514110
-509597
-505109
-500794
-496567
-492467
-488467
-484575
-480781
-477085
-473482
-469970
-466545
-463204
-459944
-456763
-453659
-450628
-447668
-444777
-441953
-439193
-436497
-433861
-431284
-428765
-426299
-423891
-421525
-419227
-416928
-414760
-412618
-410470
-408385
-406343
-404343
-402385
-400465
-398584
-396740
-394931
-393158
-391417
-389710
-388035
-386390
-384776
-383191
-381635
-380106
-378605
-377130
-375679
-374254
-372850
-371475
-370109
-368791
-367484
-366202
-364938
-363695
-362472
-361267
-360082
-358915
-357766
-356635
-355522
-354425
-353345
-352281
-351233
-350200
-349182
-348179
-347191
-346216
-345256
-344309
-343375
-342454
-341545
-340649
-339766
-338893
-338034
-337181
-336350
-335509
-334719
-333862
-333165
-332088
-549543
-542298
-537915
-532276
-527514
-522510
-517839
-513194
-508727
-504353
-500109
-495969
-491940
-488014
-484188
-480459
-476824
-473278
-469820
-466447
-463154
-459941
-456803
-453740
-450747
-447824
-444968
-442177
-439450
-436783
-434178
-431628
-429151
-426705
-424416
-422001
-419226
-417464
-415344
-413089
-410985
-408899
-406872
-404882
-402935
-401025
-399153
-397317
-395516
-393748
-392014
-390312
-388641
-387001
-385390
-383808
-382255
-380728
-379228
-377754
-376302
-374881
-373470
-372095
-370746
-369415
-368109
-366821
-365555
-364308
-363081
-361873
-360684
-359513
-358361
-357226
-356107
-355006
-353921
-352852
-351799
-350761
-349738
-348729
-347735
-346755
-345788
-344835
-343895
-342967
-342053
-341149
-340261
-339378
-338518
-337648
-336830
-335944
-335220
-334117
-558778
-551308
-546768
-540944
-536020
-530849
-526021
-521220
-516603
-512082
-507695
-503416
-499252
-495194
-491240
-487385
-483628
-479963
-476389
-472902
-469499
-466177
-462934
-459768
-456675
-453653
-450701
-447816
-444996
-442239
-439544
-436908
-434331
-431811
-429345
-426955
-424558
-422189
-419960
-417722
-415549
-413409
-411317
-409263
-407251
-405278
-403343
-401445
-399584
-397757
-395965
-394205
-392478
-390783
-389119
-387484
-385878
-384300
-382750
-381224
-379718
-378243
-376705
-375370
-373976
-372608
-371259
-369926
-368618
-367328
-366059
-364810
-363581
-362371
-361179
-360006
-358850
-357712
-356590
-355485
-354397
-353324
-352266
-351224
-350196
-349183
-348184
-347199
-346227
-345269
-344324
-343390
-342471
-341559
-340670
-339771
-338925
-338011
-337259
-336131
-567943
-560249
-555554
-549547
-544462
-539126
-534141
-529186
-524420
-519753
-515225
-510808
-506509
-502320
-498238
-494259
-490381
-486598
-482909
-479309
-475796
-472367
-469019
-465750
-462557
-459438
-456390
-453412
-450500
-447654
-444871
-442148
-439484
-436877
-434308
-431817
-429191
-426972
-424625
-422345
-420097
-417892
-415732
-413613
-411536
-409499
-407502
-405543
-403621
-401735
-399885
-398069
-396286
-394536
-392818
-391130
-389474
-387846
-386247
-384678
-383133
-381635
-380103
-378609
-377199
-375772
-374382
-373006
-371655
-370323
-369014
-367725
-366456
-365206
-363976
-362765
-361572
-360397
-359239
-358098
-356975
-355867
-354775
-353699
-352639
-351593
-350562
-349545
-348542
-347552
-346577
-345613
-344665
-343723
-342805
-341878
-341003
-340062
-339282
-338130
-577036
-569120
-564272
-558083
-552837
-547337
-542197
-537089
-532175
-527364
-522695
-518141
-513709
-509390
-505181
-501079
-497080
-493180
-489376
-485665
-482043
-478508
-475056
-471685
-468393
-465177
-462034
-458963
-455961
-453026
-450156
-447349
-444602
-441916
-439280
-436711
-434169
-431708
-429295
-426929
-424611
-422339
-420111
-417927
-415786
-413687
-411628
-409608
-407626
-405682
-403775
-401902
-400064
-398260
-396489
-394750
-393045
-391366
-389736
-388104
-386604
-384939
-383239
-381884
-380494
-378936
-377507
-376069
-374675
-373298
-371947
-370617
-369308
-368020
-366751
-365502
-364272
-363060
-361867
-360691
-359532
-358390
-357265
-356156
-355062
-353984
-352920
-351872
-350838
-349818
-348812
-347818
-346841
-345870
-344924
-343968
-343065
-342097
-341289
-340112
-586055
-577919
-572918
-566549
-561144
-555482
-550188
-544928
-539867
-534912
-530104
-525414
-520850
-516402
-512068
-507843
-503725
-499709
-495792
-491969
-488242
-484599
-481044
-477572
-474181
-470869
-467632
-464469
-461378
-458354
-455398
-452506
-449675
-446906
-444187
-441539
-438911
-436398
-433906
-431476
-429088
-426750
-424456
-422207
-420002
-417840
-415720
-413640
-411599
-409597
-407632
-405704
-403811
-401952
-400128
-398335
-396575
-394844
-393147
-391470
-389836
-388190
-386628
-385104
-383551
-382042
-380556
-379094
-377658
-376244
-374853
-373483
-372136
-370809
-369503
-368217
-366950
-365702
-364473
-363262
-362069
-360893
-359734
-358591
-357465
-356355
-355260
-354180
-353115
-352065
-351029
-350006
-348999
-348000
-347024
-346041
-345110
-344115
-343280
-342079
-594998
-586643
-581491
-574943
-569381
-563557
-558111
-552700
-547494
-542397
-537450
-532626
-527931
-523354
-518896
-514550
-510313
-506181
-502152
-498219
-494385
-490638
-486980
-483409
-479920
-476513
-473183
-469929
-466748
-463638
-460596
-457622
-454710
-451862
-449072
-446345
-443668
-441057
-438495
-435989
-433532
-431124
-428764
-426451
-424183
-421958
-419777
-417637
-415538
-413478
-411457
-409473
-407526
-405614
-403737
-401892
-400082
-398302
-396554
-394832
-393136
-391471
-389751
-388239
-386664
-385121
-383598
-382096
-380620
-379165
-377735
-376326
-374940
-373575
-372232
-370908
-369605
-368322
-367057
-365811
-364584
-363374
-362182
-361006
-359848
-358706
-357579
-356468
-355373
-354292
-353227
-352174
-351138
-350111
-349107
-348096
-347138
-346115
-345253
-344028
-603862
-595291
-589988
-583264
-577546
-571562
-565964
-560404
-555054
-549815
-544732
-539774
-534949
-530246
-525664
-521198
-516844
-512598
-508458
-504417
-500484
-496625
-492866
-489194
-485609
-482107
-478685
-475340
-472071
-468875
-465749
-462691
-459699
-456772
-453904
-451101
-448350
-445668
-443035
-440460
-437934
-435460
-433035
-430658
-428327
-426041
-423799
-421600
-419442
-417325
-415248
-413209
-411208
-409242
-407313
-405417
-403556
-401726
-399929
-398161
-396424
-394716
-393036
-391397
-389775
-388183
-386615
-385072
-383554
-382061
-380591
-379143
-377719
-376317
-374936
-373576
-372237
-370918
-369618
-368338
-367076
-365833
-364608
-363400
-362209
-361035
-359878
-358736
-357611
-356500
-355405
-354323
-353259
-352203
-351171
-350133
-349147
-348098
-347208
-345961
-612645
-603860
-598408
-591508
-585636
-579494
-573746
-568038
-562545
-557167
-551948
-546857
-541903
-537075
-532370
-527784
-523314
-518954
-514702
-510552
-506511
-502556
-498695
-494926
-491245
-487650
-484136
-480703
-477346
-474065
-470855
-467716
-464644
-461639
-458697
-455819
-452999
-450241
-447538
-444892
-442298
-439758
-437267
-434826
-432433
-430086
-427784
-425526
-423311
-421138
-419005
-416911
-414856
-412838
-410857
-408911
-406999
-405121
-403275
-401460
-399674
-397923
-396190
-394510
-392845
-391213
-389604
-388021
-386463
-384930
-383421
-381935
-380473
-379033
-377615
-376219
-374844
-373490
-372156
-370841
-369546
-368270
-367012
-365772
-364549
-363344
-362156
-360984
-359828
-358687
-357563
-356453
-355360
-354276
-353216
-352151
-351138
-350062
-349146
-347875
-621346
-612348
-606749
-599675
-593650
-587350
-581454
-575599
-569965
-564448
-559095
-553873
-548792
-543839
-539013
-534309
-529722
-525251
-520891
-516637
-512541
-508432
-504470
-500604
-496827
-493140
-489536
-486014
-482571
-479205
-475913
-472693
-469542
-466460
-463442
-460489
-457597
-454768
-451995
-449281
-446621
-444014
-441460
-438955
-436500
-434093
-431732
-429415
-427143
-424914
-422726
-420578
-418470
-416400
-414368
-412371
-410411
-408484
-406591
-404730
-402902
-401105
-399338
-397604
-395897
-394219
-392567
-390943
-389345
-387772
-386224
-384700
-383200
-381723
-380269
-378837
-377427
-376038
-374669
-373321
-371992
-370683
-369393
-368121
-366867
-365630
-364411
-363209
-362024
-360854
-359701
-358562
-357440
-356329
-355242
-354149
-353109
-352008
-351064
-349771
-629961
-620753
-615009
-607762
-601586
-595131
-589087
-583087
-577312
-571659
-566173
-560821
-555613
-550537
-545591
-540770
-536069
-531485
-527011
-522642
-518399
-514256
-510184
-506227
-502355
-498577
-494883
-491274
-487745
-484296
-480922
-477622
-474393
-471234
-468142
-465115
-462152
-459251
-456410
-453627
-450901
-448229