/*--------------------------------*- C++ -*----------------------------------*\
| =========                 |                                                 |
| \\      /  F ield         | foam-extend: Open Source CFD                    |
|  \\    /   O peration     | Version:     4.1                                |
|   \\  /    A nd           | Web:         http://www.foam-extend.org         |
|    \\/     M anipulation  |                                                 |
\*---------------------------------------------------------------------------*/
FoamFile
{
    version     2.0;
    format      ascii;
    class       volScalarField;
    location    "6";
    object      sigmaEq;
}
// * * * * * * * * * * * * * * * * * * * * * * * * * * * * * * * * * * * * * //

dimensions      [1 -1 -2 0 0 0 0];

internalField   nonuniform List<scalar> 
100000
(
1.7411e+07
1.32548e+07
1.12808e+07
1.42369e+07
1.91352e+07
1.50588e+06
4.70361e+07
5.9138e+07
2.49683e+07
2.33985e+07
1.97834e+07
1.96565e+07
2.44928e+07
2.80266e+07
2.98307e+07
3.00718e+07
2.85362e+07
2.61673e+07
2.34072e+07
2.11137e+07
1.99687e+07
2.06444e+07
2.12415e+07
2.21211e+07
2.33896e+07
2.44457e+07
2.52525e+07
2.62587e+07
2.51512e+07
2.25523e+07
2.01758e+07
1.78006e+07
1.56022e+07
1.36014e+07
1.08501e+07
8.9526e+06
7.35515e+06
5.86734e+06
4.52642e+06
3.35885e+06
2.68193e+06
2.78763e+06
2.8964e+06
3.01764e+06
3.11223e+06
3.16553e+06
3.26571e+06
3.3746e+06
3.47593e+06
3.56976e+06
3.65636e+06
3.75236e+06
3.86332e+06
3.88576e+06
3.9025e+06
3.91401e+06
3.9205e+06
3.92206e+06
3.91903e+06
3.91141e+06
3.89947e+06
3.88338e+06
3.86336e+06
4.17214e+06
4.93701e+06
5.7117e+06
6.51716e+06
7.34556e+06
8.15575e+06
9.22013e+06
1.0276e+07
1.11632e+07
1.20101e+07
1.28667e+07
1.37971e+07
1.47551e+07
1.57212e+07
1.67405e+07
1.77849e+07
1.88417e+07
1.93095e+07
1.87671e+07
1.8229e+07
1.76955e+07
1.71665e+07
1.66428e+07
1.61244e+07
1.56111e+07
1.51036e+07
1.46019e+07
1.41105e+07
1.36679e+07
1.32288e+07
1.27998e+07
1.23769e+07
1.19622e+07
1.16658e+07
1.1845e+07
1.19996e+07
1.2142e+07
1.46788e+07
8.95459e+06
1.31264e+07
1.85233e+07
1.57206e+07
4.32418e+06
3.48877e+07
6.58384e+07
5.74836e+07
3.13838e+07
1.30904e+07
1.03015e+07
8.36901e+06
2.73209e+06
4.3118e+06
7.44871e+06
8.80301e+06
9.05818e+06
8.58268e+06
8.74087e+06
1.00071e+07
1.05878e+07
1.06661e+07
9.61079e+06
9.07051e+06
9.24719e+06
9.44403e+06
9.65407e+06
9.88425e+06
1.03472e+07
1.15098e+07
1.27786e+07
1.3258e+07
1.51485e+07
1.62269e+07
1.473e+07
1.33311e+07
1.18772e+07
1.05564e+07
9.22735e+06
7.90703e+06
7.80201e+06
7.76671e+06
7.78585e+06
7.81305e+06
7.85501e+06
7.90996e+06
7.9737e+06
8.04605e+06
8.09857e+06
8.11493e+06
8.13554e+06
8.2216e+06
8.26073e+06
8.30409e+06
8.3538e+06
8.40934e+06
8.47031e+06
8.53627e+06
8.60694e+06
8.68203e+06
8.76104e+06
8.83323e+06
8.97988e+06
9.1614e+06
9.9114e+06
1.0735e+07
1.15815e+07
1.24578e+07
1.2689e+07
1.2347e+07
1.20043e+07
1.16616e+07
1.14978e+07
1.13963e+07
1.12958e+07
1.12162e+07
1.11653e+07
1.09582e+07
1.07513e+07
1.05484e+07
1.03494e+07
1.01548e+07
9.96408e+06
9.77716e+06
9.59396e+06
9.41409e+06
9.23767e+06
9.06428e+06
8.68741e+06
8.19605e+06
7.7164e+06
7.26115e+06
6.84584e+06
6.47523e+06
6.11841e+06
5.77199e+06
5.43631e+06
5.15382e+06
6.00174e+06
9.70666e+06
1.34352e+07
2.13331e+07
1.74302e+07
1.88148e+07
7.5957e+06
2.41963e+07
3.76935e+07
5.46161e+07
6.53517e+07
4.71486e+07
1.93148e+07
1.71828e+07
1.98239e+07
2.06863e+07
2.0998e+07
2.01393e+07
1.95703e+07
1.85526e+07
1.73623e+07
1.52613e+07
1.28831e+07
1.11001e+07
9.96141e+06
8.61693e+06
7.41468e+06
6.35522e+06
5.44238e+06
4.68355e+06
4.0808e+06
3.65851e+06
3.44212e+06
3.40146e+06
3.49512e+06
3.67687e+06
3.89838e+06
4.75568e+06
6.42267e+06
8.01516e+06
9.47484e+06
1.03286e+07
1.044e+07
1.05166e+07
1.06203e+07
1.07576e+07
1.09123e+07
1.10435e+07
1.11527e+07
1.12394e+07
1.13039e+07
1.13528e+07
1.13258e+07
1.10109e+07
1.07703e+07
1.05227e+07
1.02676e+07
1.00066e+07
9.71333e+06
9.41331e+06
9.11011e+06
8.80366e+06
8.49502e+06
8.18428e+06
7.53139e+06
6.46071e+06
5.56839e+06
4.55047e+06
3.58212e+06
2.7791e+06
2.3066e+06
2.45376e+06
3.1327e+06
3.48842e+06
3.86208e+06
4.24866e+06
4.64432e+06
5.04607e+06
5.34571e+06
5.66371e+06
6.08162e+06
6.5008e+06
6.91814e+06
7.33336e+06
7.74598e+06
8.15591e+06
8.56269e+06
8.96566e+06
9.3646e+06
9.6722e+06
9.96876e+06
1.03431e+07
1.07485e+07
1.11543e+07
1.15625e+07
1.19563e+07
1.23322e+07
1.26933e+07
1.30607e+07
1.34149e+07
1.41356e+07
1.27399e+07
2.28647e+07
1.87038e+07
2.71666e+07
9.08786e+06
3.09925e+07
2.97012e+07
7.1786e+06
1.31686e+07
2.9321e+07
4.42345e+07
3.12421e+07
1.59786e+07
1.95176e+07
2.48101e+07
2.89524e+07
3.07534e+07
3.10936e+07
3.04212e+07
2.9912e+07
2.99312e+07
3.01947e+07
3.03086e+07
2.87068e+07
2.72262e+07
2.58596e+07
2.45998e+07
2.34406e+07
2.2376e+07
2.14004e+07
2.05087e+07
1.96951e+07
1.89547e+07
1.73546e+07
1.5067e+07
1.2944e+07
1.10862e+07
9.52041e+06
8.03025e+06
6.63203e+06
5.30936e+06
5.02859e+06
4.86843e+06
4.74786e+06
4.64338e+06
4.57532e+06
4.56685e+06
4.55978e+06
4.5377e+06
4.51527e+06
4.4653e+06
4.7102e+06
5.06129e+06
5.3396e+06
5.63015e+06
5.93319e+06
6.25075e+06
6.57884e+06
6.91173e+06
7.25209e+06
7.60001e+06
7.95427e+06
8.31454e+06
8.67966e+06
9.047e+06
1.00707e+07
1.11658e+07
1.22924e+07
1.34478e+07
1.46106e+07
1.57771e+07
1.69275e+07
1.81734e+07
1.94144e+07
2.06734e+07
2.19491e+07
2.2854e+07
2.3215e+07
2.34135e+07
2.36096e+07
2.38071e+07
2.40246e+07
2.42445e+07
2.44647e+07
2.46858e+07
2.49314e+07
2.51806e+07
2.54291e+07
2.56743e+07
2.56965e+07
2.55882e+07
2.54806e+07
2.53731e+07
2.51113e+07
2.46318e+07
2.41519e+07
2.36603e+07
2.31586e+07
2.2571e+07
2.17102e+07
1.2101e+07
2.26639e+07
3.0537e+07
8.3257e+06
3.66876e+07
2.89905e+07
1.747e+07
1.74657e+07
2.06156e+07
1.87114e+07
2.14164e+07
2.41704e+07
1.54407e+07
9.15143e+06
1.15974e+07
1.20271e+07
1.38965e+07
1.63278e+07
1.78795e+07
1.82047e+07
1.97507e+07
2.14922e+07
2.3203e+07
2.48085e+07
2.53492e+07
2.55557e+07
2.57351e+07
2.58885e+07
2.60177e+07
2.61246e+07
2.62104e+07
2.62765e+07
2.52994e+07
2.33902e+07
2.16867e+07
2.0068e+07
1.91549e+07
1.90913e+07
1.90558e+07
1.90476e+07
1.90349e+07
1.90178e+07
1.89968e+07
1.90283e+07
1.9073e+07
1.91101e+07
1.9143e+07
1.91729e+07
1.91959e+07
1.92118e+07
1.93461e+07
1.97435e+07
1.97129e+07
1.9659e+07
1.96039e+07
1.95471e+07
1.94897e+07
1.94046e+07
1.9317e+07
1.923e+07
1.91431e+07
1.90569e+07
1.89712e+07
1.88859e+07
1.8801e+07
1.8717e+07
1.86339e+07
1.85515e+07
1.847e+07
1.83851e+07
1.82927e+07
1.82467e+07
1.894e+07
1.92853e+07
1.96465e+07
1.99911e+07
2.03642e+07
2.07667e+07
2.1117e+07
2.14788e+07
2.18501e+07
2.21811e+07
2.17416e+07
2.10603e+07
2.01138e+07
1.91641e+07
1.82216e+07
1.72867e+07
1.63541e+07
1.54072e+07
1.44658e+07
1.35299e+07
1.25931e+07
1.16873e+07
1.07989e+07
9.94995e+06
9.11817e+06
8.66925e+06
8.66934e+06
1.00331e+07
1.51364e+07
3.42047e+07
3.11313e+07
2.23238e+07
2.08947e+07
8.80701e+06
1.20589e+07
1.44098e+07
1.47791e+07
9.7874e+06
1.00034e+07
1.95698e+07
2.16141e+07
1.34829e+07
8.0279e+06
5.44342e+06
8.93379e+06
1.07352e+07
1.07559e+07
9.82571e+06
9.52539e+06
8.14984e+06
7.57941e+06
7.34087e+06
8.20515e+06
1.02039e+07
1.20393e+07
1.28434e+07
1.35821e+07
1.42697e+07
1.49001e+07
1.541e+07
1.63527e+07
1.72581e+07
1.73332e+07
1.73964e+07
1.7405e+07
1.74039e+07
1.73968e+07
1.73898e+07
1.73824e+07
1.73723e+07
1.73595e+07
1.73444e+07
1.73172e+07
1.72619e+07
1.71751e+07
1.71159e+07
1.70992e+07
1.71297e+07
1.75401e+07
1.76582e+07
1.75809e+07
1.75026e+07
1.7425e+07
1.73306e+07
1.72152e+07
1.70976e+07
1.69777e+07
1.68461e+07
1.67125e+07
1.6578e+07
1.64426e+07
1.63065e+07
1.5915e+07
1.56317e+07
1.54138e+07
1.51924e+07
1.49511e+07
1.46097e+07
1.42651e+07
1.39116e+07
1.35181e+07
1.2482e+07
1.05819e+07
8.66114e+06
7.10509e+06
6.0873e+06
5.06992e+06
4.05703e+06
3.58748e+06
3.47853e+06
4.0035e+06
4.38222e+06
4.59299e+06
4.50248e+06
4.53351e+06
4.86622e+06
5.25843e+06
5.68003e+06
6.06591e+06
7.10661e+06
8.28536e+06
9.59964e+06
1.1104e+07
1.29908e+07
1.48774e+07
1.67765e+07
1.8858e+07
2.39682e+07
2.14551e+07
3.71929e+07
1.30732e+07
1.81082e+07
2.00125e+07
1.81476e+07
1.73463e+07
1.53281e+07
1.75132e+07
1.84219e+07
1.48447e+07
2.0247e+07
2.57116e+07
2.62308e+07
1.98825e+07
1.7429e+07
1.25885e+07
6.09698e+06
3.31483e+06
8.21562e+06
1.13193e+07
1.44637e+07
1.59648e+07
1.56718e+07
1.45784e+07
1.31688e+07
1.11901e+07
9.12199e+06
7.52877e+06
5.71316e+06
4.48214e+06
4.16897e+06
3.78405e+06
5.38844e+06
8.47389e+06
1.11336e+07
1.35773e+07
1.58188e+07
1.73497e+07
1.72241e+07
1.71117e+07
1.7012e+07
1.69238e+07
1.68471e+07
1.67814e+07
1.6725e+07
1.66772e+07
1.66382e+07
1.66064e+07
1.65834e+07
1.68202e+07
1.67818e+07
1.65774e+07
1.63774e+07
1.61639e+07
1.59368e+07
1.56992e+07
1.54526e+07
1.51959e+07
1.49589e+07
1.46956e+07
1.43617e+07
1.40186e+07
1.3645e+07
1.32748e+07
1.27422e+07
1.16878e+07
1.06132e+07
9.49185e+06
8.34278e+06
7.18192e+06
6.12354e+06
5.93352e+06
6.56263e+06
7.27268e+06
7.4567e+06
7.58454e+06
7.58285e+06
7.5982e+06
2.61778e+06
6.72733e+06
7.29904e+06
8.76007e+06
1.04715e+07
9.34561e+06
9.33814e+06
1.51987e+07
1.61413e+07
1.69355e+07
1.77071e+07
1.85175e+07
1.93998e+07
2.01418e+07
2.0749e+07
2.13528e+07
2.18475e+07
2.22716e+07
2.23475e+07
2.22642e+07
2.09867e+07
1.49482e+07
3.0771e+07
8.65942e+06
2.30301e+07
2.56691e+07
2.57189e+07
2.80298e+07
3.30603e+07
3.89671e+07
3.59304e+07
2.93976e+07
2.98525e+07
2.99851e+07
3.43911e+07
3.62016e+07
3.57302e+07
3.43245e+07
3.12605e+07
2.87888e+07
2.22753e+07
1.53737e+07
8.22799e+06
5.17804e+06
7.55245e+06
9.03332e+06
1.03589e+07
1.16939e+07
1.10328e+07
1.04838e+07
9.75034e+06
8.65095e+06
7.70859e+06
7.0799e+06
5.97416e+06
4.57611e+06
4.44758e+06
5.41099e+06
6.54886e+06
7.62645e+06
9.25262e+06
1.06494e+07
1.1883e+07
1.29587e+07
1.38838e+07
1.43972e+07
1.43262e+07
1.4236e+07
1.41271e+07
1.40013e+07
1.38109e+07
1.34999e+07
1.33089e+07
1.31012e+07
1.29726e+07
1.29238e+07
1.28847e+07
1.28575e+07
1.28241e+07
1.27866e+07
1.27528e+07
1.2708e+07
1.26595e+07
1.26093e+07
1.25542e+07
1.27457e+07
1.27139e+07
1.26514e+07
1.24847e+07
1.18982e+07
1.13086e+07
9.93141e+06
8.41855e+06
7.06405e+06
6.32242e+06
6.44439e+06
6.75545e+06
7.36571e+06
8.01073e+06
8.67895e+06
9.36191e+06
9.55192e+06
9.72428e+06
9.76474e+06
9.75721e+06
9.53413e+06
9.08608e+06
8.59885e+06
7.41034e+06
6.27893e+06
5.15941e+06
4.10234e+06
2.71344e+06
2.45626e+06
3.02126e+06
3.84951e+06
5.18098e+06
6.74221e+06
8.07424e+06
9.34545e+06
1.18557e+07
1.95109e+07
2.91858e+07
2.68499e+07
1.05337e+07
7.61624e+06
1.59408e+07
2.61481e+07
3.85992e+07
3.88414e+07
3.68925e+07
3.6064e+07
3.65312e+07
3.662e+07
3.99799e+07
4.30241e+07
4.36661e+07
4.43279e+07
4.56943e+07
4.73074e+07
4.70042e+07
4.5562e+07
4.41868e+07
4.14611e+07
3.71586e+07
3.34046e+07
2.99744e+07
2.75869e+07
2.51108e+07
2.28366e+07
2.04529e+07
1.85367e+07
1.68547e+07
1.52885e+07
1.39186e+07
1.28069e+07
1.18925e+07
1.12474e+07
1.10259e+07
1.07149e+07
1.06893e+07
1.06139e+07
1.04917e+07
1.03245e+07
1.00188e+07
9.60057e+06
9.2166e+06
8.77292e+06
8.28907e+06
7.76823e+06
7.20057e+06
6.4501e+06
5.86014e+06
5.4139e+06
4.98117e+06
4.19196e+06
3.30186e+06
2.43604e+06
1.7055e+06
1.42295e+06
1.8847e+06
2.76454e+06
3.74622e+06
4.7967e+06
5.78099e+06
6.49774e+06
7.06123e+06
7.14417e+06
7.19254e+06
7.28099e+06
7.51221e+06
7.85786e+06
8.00058e+06
8.94588e+06
9.88267e+06
1.08865e+07
1.19186e+07
1.28108e+07
1.35951e+07
1.4364e+07
1.51182e+07
1.58582e+07
1.72923e+07
1.87797e+07
1.99281e+07
2.10609e+07
2.21366e+07
2.2114e+07
2.20937e+07
2.20128e+07
2.16848e+07
2.12154e+07
2.06599e+07
2.00578e+07
1.92922e+07
1.84846e+07
1.76776e+07
1.68402e+07
1.60134e+07
1.52257e+07
1.4316e+07
1.92927e+07
3.63696e+07
3.43796e+07
2.92936e+07
2.37552e+07
1.23299e+07
1.13129e+07
1.04417e+07
7.12372e+06
1.2366e+07
1.47462e+07
1.56393e+07
1.719e+07
1.69334e+07
1.59968e+07
1.5517e+07
1.52973e+07
1.68873e+07
1.84587e+07
2.00416e+07
2.16308e+07
2.39881e+07
2.57149e+07
2.603e+07
2.53821e+07
2.37626e+07
2.21919e+07
1.92019e+07
1.63401e+07
1.3613e+07
1.10192e+07
8.49109e+06
6.19647e+06
4.37949e+06
3.11284e+06
2.97061e+06
4.07863e+06
4.94291e+06
5.65104e+06
7.12241e+06
8.4931e+06
9.78351e+06
1.1e+07
1.21479e+07
1.29408e+07
1.31961e+07
1.34959e+07
1.38371e+07
1.42178e+07
1.46166e+07
1.50751e+07
1.55249e+07
1.59347e+07
1.64693e+07
1.71432e+07
1.78175e+07
1.85096e+07
1.92221e+07
1.99492e+07
2.06959e+07
2.14569e+07
2.22331e+07
2.30079e+07
2.38595e+07
2.4834e+07
2.57125e+07
2.65999e+07
2.74402e+07
2.78462e+07
2.81587e+07
2.77053e+07
2.72488e+07
2.67897e+07
2.61922e+07
2.54036e+07
2.47497e+07
2.43705e+07
2.40141e+07
2.36572e+07
2.32994e+07
2.26602e+07
2.19593e+07
2.12009e+07
2.04165e+07
1.94371e+07
1.85129e+07
1.76203e+07
1.67434e+07
1.58339e+07
1.49063e+07
1.39385e+07
1.31208e+07
1.26318e+07
1.24388e+07
1.22638e+07
1.209e+07
1.19143e+07
1.20709e+07
1.22762e+07
1.23786e+07
1.4219e+07
2.71865e+07
2.60316e+07
2.21039e+07
2.19761e+07
2.20329e+07
2.22372e+07
2.0919e+07
2.41523e+07
2.28393e+07
1.80865e+07
1.51589e+07
1.34595e+07
1.28458e+07
1.28692e+07
1.29641e+07
1.31259e+07
1.40656e+07
1.63476e+07
1.72085e+07
1.68977e+07
1.67107e+07
1.65815e+07
1.66207e+07
1.67367e+07
1.63503e+07
1.67046e+07
1.72828e+07
1.84546e+07
1.98907e+07
2.08137e+07
2.17846e+07
2.27996e+07
2.38545e+07
2.49459e+07
2.60697e+07
2.74098e+07
2.91083e+07
3.01149e+07
2.98648e+07
2.96519e+07
2.94754e+07
2.93323e+07
2.91652e+07
2.89536e+07
2.87903e+07
2.87051e+07
2.86526e+07
2.86321e+07
2.86141e+07
2.83715e+07
2.8399e+07
2.84582e+07
2.8542e+07
2.82812e+07
2.7936e+07
2.68908e+07
2.72142e+07
2.68387e+07
2.64547e+07
2.60627e+07
2.5663e+07
2.50262e+07
2.44494e+07
2.41271e+07
2.3793e+07
2.34556e+07
2.31153e+07
2.27725e+07
2.23766e+07
2.17231e+07
2.1065e+07
2.03808e+07
1.96671e+07
1.88172e+07
1.78724e+07
1.70956e+07
1.63162e+07
1.57485e+07
1.51761e+07
1.46067e+07
1.40582e+07
1.35579e+07
1.35073e+07
1.34581e+07
1.34311e+07
1.34096e+07
1.33787e+07
1.32437e+07
1.33507e+07
1.35767e+07
1.38007e+07
1.40474e+07
1.43059e+07
1.4529e+07
1.47453e+07
1.49406e+07
1.51348e+07
1.53278e+07
1.56231e+07
1.4721e+06
9.21781e+06
1.86168e+07
2.13273e+07
2.17623e+07
2.48984e+07
2.52345e+07
2.52454e+07
2.6654e+07
2.58778e+07
2.40078e+07
2.34156e+07
2.3427e+07
2.23588e+07
2.13631e+07
2.04349e+07
1.95713e+07
1.86876e+07
1.75958e+07
1.68535e+07
1.62491e+07
1.67108e+07
1.71354e+07
1.77283e+07
1.89137e+07
1.98493e+07
2.0716e+07
2.17094e+07
2.25896e+07
2.33716e+07
2.40721e+07
2.46812e+07
2.52123e+07
2.54117e+07
2.55426e+07
2.56437e+07
2.57163e+07
2.5761e+07
2.57777e+07
2.57703e+07
2.57391e+07
2.56864e+07
2.56134e+07
2.55207e+07
2.5412e+07
2.52895e+07
2.51517e+07
2.49961e+07
2.48151e+07
2.41473e+07
2.36984e+07
2.34953e+07
2.33594e+07
2.32159e+07
2.30643e+07
2.29085e+07
2.25904e+07
2.22015e+07
2.18075e+07
2.15767e+07
2.13393e+07
2.10714e+07
2.07945e+07
2.04338e+07
1.99762e+07
1.95102e+07
1.90364e+07
1.85557e+07
1.8064e+07
1.75476e+07
1.70348e+07
1.65286e+07
1.60178e+07
1.56562e+07
1.55003e+07
1.53437e+07
1.51865e+07
1.5041e+07
1.4905e+07
1.47512e+07
1.49639e+07
1.52575e+07
1.55594e+07
1.58571e+07
1.61429e+07
1.63715e+07
1.65717e+07
1.67714e+07
1.69706e+07
1.71673e+07
1.73646e+07
1.75616e+07
1.77577e+07
1.77101e+07
1.76362e+07
1.75628e+07
1.74929e+07
1.74257e+07
1.73523e+07
1.72608e+07
2.31251e+06
2.74839e+06
6.55761e+06
1.46594e+07
1.9309e+07
2.39215e+07
2.46237e+07
2.63506e+07
2.58583e+07
2.40001e+07
2.33076e+07
2.34064e+07
2.349e+07
2.356e+07
2.36169e+07
2.3662e+07
2.36944e+07
2.33198e+07
2.24243e+07
2.17434e+07
2.11114e+07
2.05255e+07
1.99832e+07
1.94819e+07
1.90741e+07
1.92865e+07
1.96497e+07
1.99001e+07
2.00791e+07
2.02385e+07
2.08868e+07
2.14636e+07
2.19564e+07
2.23891e+07
2.27748e+07
2.31054e+07
2.33384e+07
2.35041e+07
2.36401e+07
2.37489e+07
2.38318e+07
2.38896e+07
2.3925e+07
2.39379e+07
2.39306e+07
2.38795e+07
2.37558e+07
2.3603e+07
2.30229e+07
2.23415e+07
2.2101e+07
2.18386e+07
2.15562e+07
2.12551e+07
2.09358e+07
2.05932e+07
2.02342e+07
1.98638e+07
1.94878e+07
1.91022e+07
1.86966e+07
1.82798e+07
1.80898e+07
1.79458e+07
1.77997e+07
1.7652e+07
1.75024e+07
1.73513e+07
1.71989e+07
1.70961e+07
1.72488e+07
1.74035e+07
1.75602e+07
1.77187e+07
1.78787e+07
1.80402e+07
1.8203e+07
1.84026e+07
1.84631e+07
1.85013e+07
1.85413e+07
1.85707e+07
1.85691e+07
1.84891e+07
1.84096e+07
1.83306e+07
1.82521e+07
1.81742e+07
1.80969e+07
1.80207e+07
1.79419e+07
1.78665e+07
1.77912e+07
1.77166e+07
1.76427e+07
1.75692e+07
1.74967e+07
1.74242e+07
1.74089e+07
1.68929e+07
2.38766e+06
2.62763e+06
1.25287e+06
4.40645e+06
8.27575e+06
1.43302e+07
2.00293e+07
2.50131e+07
2.40835e+07
2.31756e+07
2.32961e+07
2.33961e+07
2.34817e+07
2.35529e+07
2.36115e+07
2.36579e+07
2.34524e+07
2.31874e+07
2.32084e+07
2.32201e+07
2.32234e+07
2.32189e+07
2.32072e+07
2.32588e+07
2.33076e+07
2.33084e+07
2.32942e+07
2.29483e+07
2.26105e+07
2.23011e+07
2.20183e+07
2.1761e+07
2.15275e+07
2.15749e+07
2.16418e+07
2.16948e+07
2.17337e+07
2.176e+07
2.17744e+07
2.17769e+07
2.17693e+07
2.17508e+07
2.17234e+07
2.16866e+07
2.16413e+07
2.15883e+07
2.15272e+07
2.1187e+07
2.06156e+07
2.05134e+07
2.04101e+07
2.03018e+07
2.01886e+07
2.00711e+07
1.99496e+07
1.9824e+07
1.98467e+07
1.99313e+07
2.00165e+07
1.99278e+07
1.98396e+07
1.97516e+07
1.9664e+07
1.95769e+07
1.94902e+07
1.94038e+07
1.9318e+07
1.92326e+07
1.91477e+07
1.90635e+07
1.89798e+07
1.88967e+07
1.88141e+07
1.87321e+07
1.86507e+07
1.8657e+07
1.86919e+07
1.87331e+07
1.87701e+07
1.87974e+07
1.87358e+07
1.86544e+07
1.85736e+07
1.84934e+07
1.84136e+07
1.83344e+07
1.82557e+07
1.81775e+07
1.76621e+07
1.69477e+07
1.60987e+07
1.5124e+07
1.41546e+07
1.31915e+07
1.22353e+07
1.12854e+07
1.03454e+07
9.42539e+06
8.38578e+06
7.20654e+06
2.39346e+06
2.259e+06
1.41931e+06
2.32918e+06
2.25434e+06
2.6284e+06
8.43413e+06
1.33549e+07
1.51943e+07
1.83557e+07
2.14013e+07
2.3385e+07
2.34719e+07
2.35446e+07
2.36041e+07
2.3546e+07
2.31745e+07
2.31755e+07
2.3198e+07
2.32113e+07
2.32161e+07
2.32132e+07
2.3285e+07
2.33453e+07
2.33382e+07
2.3307e+07
2.32934e+07
2.32505e+07
2.32022e+07
2.31497e+07
2.30931e+07
2.30332e+07
2.29694e+07
2.29031e+07
2.28335e+07
2.27616e+07
2.26873e+07
2.26105e+07
2.25325e+07
2.24519e+07
2.23704e+07
2.22872e+07
2.22027e+07
2.21173e+07
2.20305e+07
2.19434e+07
2.17345e+07
2.11223e+07
2.0913e+07
2.08253e+07
2.07368e+07
2.06483e+07
2.05597e+07
2.04706e+07
2.03818e+07
2.02929e+07
2.02038e+07
2.01151e+07
2.00265e+07
1.99378e+07
1.98495e+07
1.97616e+07
1.9674e+07
1.95868e+07
1.95e+07
1.94137e+07
1.93277e+07
1.92423e+07
1.91574e+07
1.90732e+07
1.89894e+07
1.86942e+07
1.81417e+07
1.76159e+07
1.70996e+07
1.65891e+07
1.607e+07
1.55133e+07
1.48843e+07
1.42036e+07
1.34787e+07
1.27584e+07
1.20431e+07
1.1333e+07
1.06285e+07
9.92989e+06
9.2376e+06
8.45024e+06
7.69706e+06
7.02417e+06
6.29955e+06
5.41604e+06
4.51951e+06
3.64762e+06
2.81898e+06
2.0782e+06
1.54995e+06
1.471e+06
1.92225e+06
2.23267e+06
2.3984e+06
1.89076e+06
1.93266e+06
2.31076e+06
2.23668e+06
2.0946e+06
3.27706e+06
6.10424e+06
8.29487e+06
1.01497e+07
1.19309e+07
1.37912e+07
1.60963e+07
1.83872e+07
2.0479e+07
2.20467e+07
2.31276e+07
2.31615e+07
2.31852e+07
2.31997e+07
2.32111e+07
2.32959e+07
2.33682e+07
2.33567e+07
2.33311e+07
2.33128e+07
2.32881e+07
2.32449e+07
2.31969e+07
2.31449e+07
2.30885e+07
2.30287e+07
2.2965e+07
2.28986e+07
2.28294e+07
2.27572e+07
2.26833e+07
2.26065e+07
2.25283e+07
2.2448e+07
2.23661e+07
2.2283e+07
2.21983e+07
2.2113e+07
2.2026e+07
2.19297e+07
2.13599e+07
2.09873e+07
2.05697e+07
2.01417e+07
1.9704e+07
1.92571e+07
1.88021e+07
1.83393e+07
1.78695e+07
1.73934e+07
1.69115e+07
1.64244e+07
1.59328e+07
1.54373e+07
1.49383e+07
1.44363e+07
1.39318e+07
1.34248e+07
1.29162e+07
1.24063e+07
1.18955e+07
1.13843e+07
1.08729e+07
1.02829e+07
9.64632e+06
9.02072e+06
8.42993e+06
7.84488e+06
7.26046e+06
6.59042e+06
5.89784e+06
5.21002e+06
4.52832e+06
3.85902e+06
3.20105e+06
2.55471e+06
1.93707e+06
1.38161e+06
990332
975567
1.34353e+06
1.8771e+06
2.06586e+06
2.09555e+06
2.14396e+06
2.2527e+06
2.25278e+06
2.25275e+06
2.25284e+06
2.25261e+06
2.25272e+06
2.25328e+06
2.25074e+06
2.24085e+06
2.26034e+06
1.21676e+06
2.37388e+06
2.29181e+06
2.21879e+06
1.83767e+06
4.57987e+06
7.41975e+06
7.26215e+06
6.72723e+06
6.04822e+06
6.09011e+06
7.41088e+06
9.03403e+06
1.03979e+07
1.15194e+07
1.28707e+07
1.43561e+07
1.57886e+07
1.70799e+07
1.82311e+07
1.92576e+07
2.00827e+07
2.08026e+07
2.14241e+07
2.14547e+07
2.11608e+07
2.08369e+07
2.04867e+07
2.01116e+07
1.97136e+07
1.9294e+07
1.88549e+07
1.83971e+07
1.79229e+07
1.74326e+07
1.69284e+07
1.6411e+07
1.58814e+07
1.53411e+07
1.47905e+07
1.42312e+07
1.36633e+07
1.30887e+07
1.25075e+07
1.17101e+07
1.09039e+07
1.05199e+07
1.01402e+07
9.75595e+06
9.36261e+06
8.9603e+06
8.54985e+06
8.1321e+06
7.70752e+06
7.27665e+06
6.84048e+06
6.39941e+06
5.95416e+06
5.44274e+06
4.87941e+06
4.31462e+06
3.74999e+06
3.18786e+06
2.6321e+06
2.09008e+06
1.57862e+06
1.1419e+06
919484
1.01084e+06
1.30871e+06
1.5505e+06
1.60793e+06
1.68842e+06
1.77052e+06
1.854e+06
1.93864e+06
2.02426e+06
2.11068e+06
2.14718e+06
2.1396e+06
2.13207e+06
2.12457e+06
2.11711e+06
2.10969e+06
2.10232e+06
2.09499e+06
2.08771e+06
2.08047e+06
2.08631e+06
2.13371e+06
2.26117e+06
2.26108e+06
2.26086e+06
2.26081e+06
2.26044e+06
2.26041e+06
2.26081e+06
2.25812e+06
2.24813e+06
1.67612e+06
1.21997e+06
2.34393e+06
2.26313e+06
1.88967e+06
1.91432e+06
5.18418e+06
8.9756e+06
8.16339e+06
6.68168e+06
6.00933e+06
5.69873e+06
5.46616e+06
5.05305e+06
4.38746e+06
4.04101e+06
4.08908e+06
4.87327e+06
5.84845e+06
6.83963e+06
7.78839e+06
8.5979e+06
9.32874e+06
9.97765e+06
1.0432e+07
1.00811e+07
9.77393e+06
9.46765e+06
9.13756e+06
8.78507e+06
8.41223e+06
8.01975e+06
7.61016e+06
7.18355e+06
6.74256e+06
6.28774e+06
5.82064e+06
5.34303e+06
4.85561e+06
4.36078e+06
3.8597e+06
3.3559e+06
2.85234e+06
2.35602e+06
1.79329e+06
1.1309e+06
950586
897773
900782
914701
939907
975786
1.02146e+06
1.0759e+06
1.13799e+06
1.20664e+06
1.28095e+06
1.36003e+06
1.44859e+06
1.55486e+06
1.65627e+06
1.74742e+06
1.84062e+06
1.93558e+06
2.03202e+06
2.12969e+06
2.18372e+06
2.22692e+06
2.27023e+06
2.2493e+06
2.21737e+06
2.20957e+06
2.20177e+06
2.19398e+06
2.18622e+06
2.17849e+06
2.1708e+06
2.16313e+06
2.1555e+06
2.14788e+06
2.14029e+06
2.13272e+06
2.12518e+06
2.1177e+06
2.11027e+06
2.10288e+06
2.09552e+06
2.08821e+06
2.08094e+06
2.07857e+06
2.13115e+06
2.26868e+06
2.26843e+06
2.26811e+06
2.26793e+06
2.26739e+06
2.26718e+06
2.26741e+06
2.26457e+06
2.25452e+06
1.25088e+06
1.76883e+06
2.19989e+06
1.75144e+06
1.46745e+06
1.5264e+06
5.73039e+06
1.06451e+07
8.99285e+06
6.54552e+06
5.91453e+06
5.64571e+06
5.3789e+06
4.71754e+06
4.18209e+06
4.01124e+06
3.848e+06
3.69108e+06
3.52655e+06
3.37066e+06
3.23573e+06
3.10673e+06
2.98341e+06
2.85917e+06
2.01983e+06
1.31583e+06
1.30002e+06
1.28493e+06
1.27071e+06
1.25719e+06
1.24441e+06
1.23222e+06
1.22068e+06
1.19191e+06
1.16537e+06
1.14262e+06
1.12454e+06
1.11181e+06
1.1051e+06
1.10495e+06
1.11237e+06
1.12715e+06
1.14917e+06
1.15113e+06
1.2258e+06
1.35782e+06
1.43018e+06
1.5108e+06
1.60384e+06
1.6897e+06
1.77387e+06
1.86019e+06
1.94841e+06
2.03829e+06
2.12973e+06
2.22249e+06
2.31642e+06
2.41142e+06
2.5074e+06
2.54502e+06
2.53608e+06
2.52709e+06
2.51804e+06
2.50656e+06
2.44634e+06
2.37774e+06
2.31098e+06
2.25369e+06
2.23319e+06
2.22537e+06
2.21757e+06
2.20976e+06
2.20194e+06
2.19415e+06
2.18636e+06
2.1786e+06
2.17087e+06
2.16318e+06
2.15553e+06
2.1479e+06
2.14031e+06
2.13274e+06
2.12521e+06
2.11771e+06
2.11025e+06
2.10283e+06
2.09547e+06
2.08814e+06
2.08086e+06
2.07361e+06
2.1431e+06
2.27036e+06
2.27484e+06
2.27441e+06
2.27409e+06
2.27341e+06
2.27308e+06
2.27317e+06
2.27017e+06
2.26005e+06
1.32675e+06
2.29844e+06
2.11502e+06
1.32722e+06
1.08342e+06
1.11518e+06
6.11214e+06
1.17014e+07
9.32933e+06
6.42045e+06
5.73682e+06
5.38762e+06
4.78288e+06
4.16015e+06
3.91327e+06
3.75348e+06
3.59961e+06
3.43914e+06
3.28578e+06
3.15153e+06
3.02267e+06
2.89934e+06
2.78151e+06
2.41833e+06
1.74986e+06
1.37318e+06
1.37505e+06
1.38096e+06
1.39104e+06
1.40567e+06
1.42451e+06
1.44807e+06
1.44468e+06
1.44778e+06
1.48355e+06
1.52532e+06
1.57183e+06
1.62258e+06
1.67792e+06
1.73689e+06
1.79946e+06
1.86621e+06
1.93546e+06
2.08321e+06
2.3657e+06
2.45328e+06
2.53737e+06
2.6228e+06
2.63533e+06
2.62757e+06
2.61957e+06
2.61143e+06
2.60324e+06
2.59488e+06
2.5864e+06
2.57784e+06
2.56921e+06
2.56047e+06
2.55167e+06
2.54281e+06
2.53384e+06
2.51951e+06
2.45696e+06
2.386e+06
2.31825e+06
2.25997e+06
2.24842e+06
2.24059e+06
2.23275e+06
2.22492e+06
2.21709e+06
2.20926e+06
2.20145e+06
2.19365e+06
2.18589e+06
2.17815e+06
2.17043e+06
2.16272e+06
2.15503e+06
2.14737e+06
2.13975e+06
2.13217e+06
2.12463e+06
2.11712e+06
2.10966e+06
2.10223e+06
2.09485e+06
2.08751e+06
2.0802e+06
2.07295e+06
2.14819e+06
2.26036e+06
2.28029e+06
2.27973e+06
2.27927e+06
2.2785e+06
2.27804e+06
2.27797e+06
2.27486e+06
2.2647e+06
1.60556e+06
2.29871e+06
1.52023e+06
1.10904e+06
1.09364e+06
1.23235e+06
6.68047e+06
1.16154e+07
8.87792e+06
6.2323e+06
5.55858e+06
5.13243e+06
4.60316e+06
4.21379e+06
4.03838e+06
3.8726e+06
3.70795e+06
3.55389e+06
3.41813e+06
3.2922e+06
3.17558e+06
3.0685e+06
2.97114e+06
2.47875e+06
2.31121e+06
2.22796e+06
2.24661e+06
2.27061e+06
2.29925e+06
2.33277e+06
2.37063e+06
2.41257e+06
2.45871e+06
2.45364e+06
2.44632e+06
2.43878e+06
2.43151e+06
2.42371e+06
2.4158e+06
2.40834e+06
2.40013e+06
2.39205e+06
2.37504e+06
2.61297e+06
2.66212e+06
2.65503e+06
2.64782e+06
2.64043e+06
2.63274e+06
2.62491e+06
2.61698e+06
2.60882e+06
2.60053e+06
2.59217e+06
2.58369e+06
2.57507e+06
2.56639e+06
2.55765e+06
2.54883e+06
2.53535e+06
2.47021e+06
2.39744e+06
2.32846e+06
2.27084e+06
2.26303e+06
2.25521e+06
2.24738e+06
2.23955e+06
2.23171e+06
2.22387e+06
2.21602e+06
2.20817e+06
2.20033e+06
2.19252e+06
2.18474e+06
2.177e+06
2.16928e+06
2.16158e+06
2.15392e+06
2.14626e+06
2.13864e+06
2.13103e+06
2.12346e+06
2.11594e+06
2.10848e+06
2.10106e+06
2.09368e+06
2.08632e+06
2.079e+06
2.07174e+06
2.13868e+06
2.25191e+06
2.2848e+06
2.28414e+06
2.28356e+06
2.28266e+06
2.28205e+06
2.28185e+06
2.27865e+06
2.26846e+06
1.65849e+06
1.74997e+06
1.2145e+06
1.12466e+06
1.10869e+06
1.74286e+06
7.31181e+06
1.1149e+07
8.45384e+06
6.10345e+06
5.43266e+06
4.83602e+06
4.32695e+06
4.16469e+06
4.01254e+06
3.86258e+06
3.72257e+06
3.59861e+06
3.48437e+06
3.37785e+06
3.27848e+06
3.18598e+06
3.05899e+06
2.67865e+06
2.50751e+06
2.50171e+06
2.4955e+06
2.48939e+06
2.48308e+06
2.47656e+06
2.47006e+06
2.46332e+06
2.45654e+06
2.44958e+06
2.44287e+06
2.43566e+06
2.42844e+06
2.42148e+06
2.41372e+06
2.40614e+06
2.39885e+06
2.38926e+06
2.51423e+06
2.66558e+06
2.65884e+06
2.65186e+06
2.64456e+06
2.6371e+06
2.62948e+06
2.62161e+06
2.6136e+06
2.60548e+06
2.5972e+06
2.58876e+06
2.58024e+06
2.57163e+06
2.56292e+06
2.55414e+06
2.48722e+06
2.41234e+06
2.34126e+06
2.28466e+06
2.2769e+06
2.26913e+06
2.26132e+06
2.2535e+06
2.24568e+06
2.23785e+06
2.23001e+06
2.22216e+06
2.21432e+06
2.20648e+06
2.19866e+06
2.19085e+06
2.18305e+06
2.17527e+06
2.16752e+06
2.15981e+06
2.15213e+06
2.14449e+06
2.13687e+06
2.12928e+06
2.12171e+06
2.11419e+06
2.10671e+06
2.09928e+06
2.09189e+06
2.08455e+06
2.07724e+06
2.06997e+06
2.13014e+06
2.2447e+06
2.28836e+06
2.28759e+06
2.28692e+06
2.28591e+06
2.28518e+06
2.28487e+06
2.28155e+06
2.27132e+06
1.3826e+06
1.32925e+06
1.1601e+06
1.14015e+06
1.1237e+06
2.34033e+06
7.91132e+06
1.06669e+07
8.01086e+06
5.97063e+06
5.08481e+06
4.55087e+06
4.24242e+06
4.08401e+06
3.92852e+06
3.78261e+06
3.65263e+06
3.53375e+06
3.42314e+06
3.32025e+06
3.22438e+06
3.13524e+06
2.79394e+06
2.68439e+06
2.49747e+06
2.49256e+06
2.48727e+06
2.48165e+06
2.47607e+06
2.47013e+06
2.46406e+06
2.45778e+06
2.45163e+06
2.44496e+06
2.43836e+06
2.43208e+06
2.42496e+06
2.41797e+06
2.41115e+06
2.40352e+06
2.3962e+06
2.41418e+06
2.65881e+06
2.66166e+06
2.65481e+06
2.64781e+06
2.64059e+06
2.63308e+06
2.6254e+06
2.61757e+06
2.60956e+06
2.60137e+06
2.59307e+06
2.58464e+06
2.57608e+06
2.56744e+06
2.50817e+06
2.43096e+06
2.35706e+06
2.29763e+06
2.28998e+06
2.28229e+06
2.27455e+06
2.26678e+06
2.25897e+06
2.25117e+06
2.24335e+06
2.23551e+06
2.22766e+06
2.2198e+06
2.21196e+06
2.20412e+06
2.1963e+06
2.1885e+06
2.18072e+06
2.17296e+06
2.16521e+06
2.15749e+06
2.14978e+06
2.14212e+06
2.13449e+06
2.12691e+06
2.11936e+06
2.11185e+06
2.10438e+06
2.09694e+06
2.08954e+06
2.08217e+06
2.07486e+06
2.06759e+06
2.12237e+06
2.23844e+06
2.29093e+06
2.29005e+06
2.28927e+06
2.28817e+06
2.28735e+06
2.28693e+06
2.28351e+06
2.27328e+06
1.06823e+06
1.19673e+06
1.17664e+06
1.15557e+06
1.31454e+06
3.09057e+06
8.22678e+06
1.01692e+07
7.53076e+06
5.73782e+06
4.77166e+06
4.32058e+06
4.15622e+06
3.9953e+06
3.84266e+06
3.70628e+06
3.58274e+06
3.46763e+06
3.36062e+06
3.26138e+06
3.16912e+06
3.08354e+06
2.64e+06
2.54361e+06
2.48691e+06
2.48259e+06
2.47826e+06
2.47337e+06
2.46831e+06
2.46299e+06
2.45761e+06
2.45162e+06
2.44571e+06
2.43994e+06
2.43337e+06
2.42724e+06
2.42123e+06
2.41405e+06
2.40734e+06
2.40061e+06
2.38479e+06
2.55371e+06
2.66346e+06
2.65697e+06
2.65021e+06
2.64311e+06
2.63583e+06
2.62838e+06
2.62071e+06
2.61284e+06
2.60482e+06
2.59665e+06
2.58832e+06
2.57989e+06
2.53186e+06
2.45357e+06
2.37712e+06
2.30985e+06
2.30214e+06
2.29455e+06
2.28691e+06
2.27923e+06
2.27151e+06
2.26375e+06
2.25597e+06
2.24817e+06
2.24035e+06
2.23251e+06
2.22467e+06
2.21684e+06
2.209e+06
2.20116e+06
2.19332e+06
2.1855e+06
2.17772e+06
2.16996e+06
2.16224e+06
2.15453e+06
2.14684e+06
2.13918e+06
2.13154e+06
2.12394e+06
2.11639e+06
2.1089e+06
2.10144e+06
2.09402e+06
2.08662e+06
2.07925e+06
2.07193e+06
2.06465e+06
2.11513e+06
2.23276e+06
2.29248e+06
2.29153e+06
2.29067e+06
2.28947e+06
2.28854e+06
2.28802e+06
2.28451e+06
2.27428e+06
1.15612e+06
1.21372e+06
1.1932e+06
1.17107e+06
1.58009e+06
3.85399e+06
8.48597e+06
9.65782e+06
7.03293e+06
5.36103e+06
4.45514e+06
4.22881e+06
4.06282e+06
3.90355e+06
3.75972e+06
3.63112e+06
3.51153e+06
3.40029e+06
3.29689e+06
3.20126e+06
3.11262e+06
2.90969e+06
2.64341e+06
2.47941e+06
2.4761e+06
2.47234e+06
2.46853e+06
2.46445e+06
2.46016e+06
2.4552e+06
2.45023e+06
2.44514e+06
2.43921e+06
2.43377e+06
2.42819e+06
2.42189e+06
2.41601e+06
2.40968e+06
2.40285e+06
2.39634e+06
2.43974e+06
2.65698e+06
2.65824e+06
2.65165e+06
2.64485e+06
2.63781e+06
2.63051e+06
2.623e+06
2.61533e+06
2.60746e+06
2.59941e+06
2.59124e+06
2.55959e+06
2.48071e+06