/*--------------------------------*- C++ -*----------------------------------*\
| =========                 |                                                 |
| \\      /  F ield         | foam-extend: Open Source CFD                    |
|  \\    /   O peration     | Version:     4.1                                |
|   \\  /    A nd           | Web:         http://www.foam-extend.org         |
|    \\/     M anipulation  |                                                 |
\*---------------------------------------------------------------------------*/
FoamFile
{
    version     2.0;
    format      ascii;
    class       volScalarField;
    location    "6";
    object      sigmaEq;
}
// * * * * * * * * * * * * * * * * * * * * * * * * * * * * * * * * * * * * * //

dimensions      [1 -1 -2 0 0 0 0];

internalField   nonuniform List<scalar> 
100000
(
1.75343e+07
1.30291e+07
1.11188e+07
1.51203e+07
1.92095e+07
2.06492e+06
4.59177e+07
5.63367e+07
2.25195e+07
2.0571e+07
1.75437e+07
1.64515e+07
2.15828e+07
2.5314e+07
2.71326e+07
2.86906e+07
2.77092e+07
2.58469e+07
2.27659e+07
2.03236e+07
1.9552e+07
2.03459e+07
2.09821e+07
2.15013e+07
2.26326e+07
2.37769e+07
2.46268e+07
2.57036e+07
2.38952e+07
2.12416e+07
1.87993e+07
1.65423e+07
1.43625e+07
1.2305e+07
9.60138e+06
7.76662e+06
6.32152e+06
4.86556e+06
3.58834e+06
2.53116e+06
1.85961e+06
1.93471e+06
2.02908e+06
2.14345e+06
2.25413e+06
2.35993e+06
2.46014e+06
2.55417e+06
2.64194e+06
2.72314e+06
2.79796e+06
2.86604e+06
2.99656e+06
3.12536e+06
3.25604e+06
3.32593e+06
3.37644e+06
3.4213e+06
3.46039e+06
3.49415e+06
3.52265e+06
3.54877e+06
3.65343e+06
3.63742e+06
3.78884e+06
4.56262e+06
5.37022e+06
6.20804e+06
7.07765e+06
7.94746e+06
9.09694e+06
1.02264e+07
1.11681e+07
1.20707e+07
1.30051e+07
1.40161e+07
1.50642e+07
1.61266e+07
1.72017e+07
1.82886e+07
1.93862e+07
1.95805e+07
1.90631e+07
1.85498e+07
1.80405e+07
1.75362e+07
1.70368e+07
1.65425e+07
1.60539e+07
1.55826e+07
1.51438e+07
1.47029e+07
1.42655e+07
1.38451e+07
1.34287e+07
1.3016e+07
1.25726e+07
1.23951e+07
1.26253e+07
1.2949e+07
1.43994e+07
8.87923e+06
1.41487e+07
1.89597e+07
1.59441e+07
4.09252e+06
3.4888e+07
6.26163e+07
5.47035e+07
3.04911e+07
1.70972e+07
1.21724e+07
8.91229e+06
3.13968e+06
3.5872e+06
6.72266e+06
7.71054e+06
8.52032e+06
8.41171e+06
8.04786e+06
8.94897e+06
9.7728e+06
1.00394e+07
9.96463e+06
8.97615e+06
8.94666e+06
9.13098e+06
9.33096e+06
9.56207e+06
1.02736e+07
1.11251e+07
1.23873e+07
1.29429e+07
1.4661e+07
1.54968e+07
1.39788e+07
1.26444e+07
1.14589e+07
1.03431e+07
9.10963e+06
7.83948e+06
7.67798e+06
7.61016e+06
7.55509e+06
7.51221e+06
7.48054e+06
7.45957e+06
7.44842e+06
7.44691e+06
7.454e+06
7.46976e+06
7.4931e+06
7.52393e+06
7.62131e+06
7.73514e+06
7.85523e+06
7.98238e+06
8.11462e+06
8.25069e+06
8.39058e+06
8.53397e+06
8.63944e+06
8.73821e+06
8.82236e+06
8.94939e+06
9.16676e+06
9.68655e+06
1.05467e+07
1.14348e+07
1.23923e+07
1.2657e+07
1.23463e+07
1.2034e+07
1.1721e+07
1.15709e+07
1.14805e+07
1.12528e+07
1.10293e+07
1.08102e+07
1.05954e+07
1.03845e+07
1.01776e+07
9.975e+06
9.77638e+06
9.5816e+06
9.39062e+06
9.20316e+06
9.01919e+06
8.83842e+06
8.66034e+06
8.18114e+06
7.7554e+06
7.36576e+06
6.97527e+06
6.58117e+06
6.21427e+06
5.85402e+06
5.64343e+06
5.52361e+06
6.25976e+06
8.49604e+06
1.59092e+07
2.17754e+07
1.7489e+07
2.40904e+07
8.84149e+06
2.47512e+07
3.7184e+07
5.23272e+07
6.11828e+07
4.69245e+07
2.30725e+07
1.60883e+07
1.89799e+07
1.98813e+07
2.0918e+07
2.057e+07
2.04356e+07
1.97711e+07
1.87208e+07
1.71187e+07
1.48265e+07
1.24655e+07
1.07729e+07
9.92084e+06
8.64492e+06
7.49297e+06
6.46146e+06
5.54916e+06
4.74111e+06
4.04094e+06
3.49605e+06
3.11053e+06
2.88549e+06
2.80711e+06
2.83657e+06
3.44367e+06
4.94695e+06
6.48192e+06
7.92653e+06
8.86457e+06
8.98389e+06
9.07579e+06
9.13302e+06
9.23936e+06
9.32479e+06
9.38859e+06
9.43156e+06
9.45571e+06
9.46117e+06
9.45072e+06
9.42348e+06
9.38205e+06
9.32643e+06
9.25836e+06
9.23588e+06
9.21493e+06
9.18341e+06
9.14115e+06
9.08973e+06
9.02602e+06
8.86431e+06
8.45365e+06
8.16473e+06
7.69087e+06
6.59315e+06
5.62904e+06
4.70265e+06
3.71594e+06
2.89201e+06
2.44491e+06
2.62003e+06
3.04236e+06
3.38359e+06
3.73654e+06
3.99381e+06
4.30595e+06
4.73899e+06
5.17625e+06
5.61556e+06
6.05535e+06
6.4945e+06
6.9324e+06
7.36832e+06
7.80204e+06
8.23297e+06
8.66036e+06
9.08406e+06
9.50387e+06
9.78641e+06
1.01078e+07
1.05527e+07
1.09727e+07
1.13817e+07
1.17901e+07
1.21988e+07
1.2594e+07
1.29606e+07
1.33101e+07
1.40102e+07
1.27465e+07
2.33214e+07
1.85352e+07
3.3074e+07
1.01244e+07
3.61459e+07
3.08752e+07
7.29899e+06
1.08667e+07
2.49379e+07
3.83941e+07
3.27082e+07
1.64836e+07
1.65894e+07
2.09767e+07
2.57768e+07
2.73115e+07
2.91881e+07
2.92592e+07
2.93065e+07
2.95491e+07
3.00825e+07
3.03554e+07
3.03536e+07
2.88637e+07
2.74877e+07
2.62187e+07
2.50505e+07
2.39768e+07
2.29919e+07
2.20909e+07
2.12682e+07
2.05187e+07
1.87906e+07
1.64932e+07
1.43585e+07
1.25024e+07
1.09017e+07
9.39678e+06
8.06337e+06
6.77799e+06
6.42685e+06
6.23614e+06
6.09657e+06
5.99077e+06
5.90118e+06
5.8408e+06
5.80918e+06
5.76313e+06
5.72424e+06
5.71039e+06
5.72177e+06
5.75586e+06
5.81157e+06
5.88742e+06
5.99739e+06
6.1396e+06
6.29642e+06
6.46731e+06
6.65068e+06
6.84538e+06
7.35439e+06
7.81186e+06
8.17992e+06
8.55238e+06
8.9286e+06
9.7213e+06
1.08604e+07
1.20289e+07
1.32246e+07
1.44442e+07
1.56417e+07
1.69002e+07
1.82013e+07
1.94996e+07
2.07942e+07
2.19474e+07
2.21854e+07
2.24247e+07
2.26647e+07
2.29052e+07
2.31461e+07
2.33871e+07
2.36402e+07
2.39017e+07
2.41626e+07
2.44223e+07
2.46809e+07
2.49544e+07
2.52388e+07
2.51874e+07
2.51827e+07
2.50658e+07
2.4609e+07
2.4133e+07
2.36567e+07
2.31818e+07
2.25899e+07
2.19848e+07
2.12169e+07
1.23018e+07
2.27745e+07
3.60717e+07
8.25283e+06
4.30533e+07
3.12424e+07
1.71978e+07
1.69208e+07
1.88305e+07
1.74982e+07
1.86392e+07
2.18371e+07
1.63049e+07
6.52014e+06
8.67716e+06
1.00033e+07
1.18936e+07
1.43529e+07
1.54477e+07
1.55374e+07
1.6907e+07
1.82015e+07
2.00814e+07
2.21839e+07
2.31341e+07
2.34988e+07
2.36872e+07
2.385e+07
2.39891e+07
2.41061e+07
2.42022e+07
2.42789e+07
2.42757e+07
2.28534e+07
2.11447e+07
1.95147e+07
1.87089e+07
1.86458e+07
1.85804e+07
1.85129e+07
1.84437e+07
1.83728e+07
1.82997e+07
1.82254e+07
1.82208e+07
1.8239e+07
1.82776e+07
1.83124e+07
1.8342e+07
1.83643e+07
1.83811e+07
1.83928e+07
1.84009e+07
1.8372e+07
1.83173e+07
1.82611e+07
1.82043e+07
1.8147e+07
1.80888e+07
1.80302e+07
1.81415e+07
1.84135e+07
1.83627e+07
1.83063e+07
1.82496e+07
1.81928e+07
1.81359e+07
1.8079e+07
1.80223e+07
1.79652e+07
1.79082e+07
1.78323e+07
1.82738e+07
1.90537e+07
1.98444e+07
2.03441e+07
2.06535e+07
2.10268e+07
2.13813e+07
2.11097e+07
2.05407e+07
2.008e+07
1.96549e+07
1.90765e+07
1.81466e+07
1.72151e+07
1.62884e+07
1.53654e+07
1.44443e+07
1.35313e+07
1.2626e+07
1.16478e+07
1.07543e+07
9.88932e+06
8.92196e+06
8.0854e+06
7.37513e+06
7.04479e+06
7.0267e+06
8.67165e+06
1.56251e+07
3.90209e+07
3.29567e+07
2.81685e+07
1.97343e+07
8.30435e+06
9.36272e+06
1.10569e+07
1.20621e+07
1.09369e+07
1.02495e+07
1.83145e+07
2.22855e+07
1.55264e+07
7.82336e+06
5.16695e+06
8.69382e+06
1.10061e+07
1.13305e+07
1.11552e+07
1.10128e+07
9.50996e+06
8.46963e+06
7.05734e+06
6.17142e+06
7.34957e+06
8.87139e+06
9.85985e+06
1.06061e+07
1.12949e+07
1.22585e+07
1.32272e+07
1.39391e+07
1.58697e+07
1.65501e+07
1.65694e+07
1.65753e+07
1.65236e+07
1.65053e+07
1.65106e+07
1.65114e+07
1.65142e+07
1.65144e+07
1.65103e+07
1.65004e+07
1.64862e+07
1.64699e+07
1.64513e+07
1.64707e+07
1.65055e+07
1.65355e+07
1.65503e+07
1.65536e+07
1.65427e+07
1.6522e+07
1.64806e+07
1.64198e+07
1.63569e+07
1.6291e+07
1.6206e+07
1.63393e+07
1.62868e+07
1.61539e+07
1.60199e+07
1.58855e+07
1.58927e+07
1.60372e+07
1.59169e+07
1.55982e+07
1.52485e+07
1.48985e+07
1.45473e+07
1.29479e+07
1.10984e+07
9.1747e+06
7.22152e+06
5.30519e+06
4.30909e+06
3.42195e+06
3.21195e+06
3.18539e+06
2.8656e+06
2.93364e+06
3.58521e+06
4.10856e+06
4.16408e+06
4.24669e+06
4.28456e+06
4.36892e+06
4.48213e+06
4.78896e+06
5.46494e+06
6.335e+06
7.60414e+06
8.92932e+06
1.07025e+07
1.26248e+07
1.47281e+07
1.69081e+07
2.20129e+07
2.57342e+07
4.1257e+07
1.20204e+07
2.08206e+07
2.24186e+07
2.00723e+07
1.88338e+07
1.59567e+07
1.53542e+07
1.7495e+07
1.62889e+07
2.01956e+07
2.49534e+07
2.63535e+07
2.09115e+07
1.66469e+07
1.20797e+07
5.59905e+06
3.41371e+06
7.78807e+06
1.10634e+07
1.41999e+07
1.62874e+07
1.64521e+07
1.5718e+07
1.43694e+07
1.2146e+07
1.0066e+07
8.45096e+06
6.72922e+06
5.65093e+06
4.76476e+06
4.11247e+06
3.08282e+06
5.53295e+06
8.31198e+06
1.07382e+07
1.2913e+07
1.48401e+07
1.65412e+07
1.66758e+07
1.66371e+07
1.66072e+07
1.65864e+07
1.65736e+07
1.65447e+07
1.64985e+07
1.6461e+07
1.64321e+07
1.64107e+07
1.63974e+07
1.63907e+07
1.6391e+07
1.643e+07
1.64972e+07
1.65015e+07
1.64327e+07
1.6175e+07
1.58702e+07
1.55786e+07
1.51986e+07
1.48336e+07
1.41976e+07
1.31374e+07
1.2095e+07
1.10439e+07
9.89253e+06
8.76126e+06
7.63978e+06
6.51099e+06
5.35929e+06
4.27033e+06
4.701e+06
4.84408e+06
4.78094e+06
4.898e+06
4.96845e+06
5.04563e+06
5.1121e+06
1.31226e+06
5.17997e+06
6.51599e+06
7.91241e+06
9.52463e+06
8.76057e+06
8.4908e+06
1.5516e+07
1.70512e+07
1.8005e+07
1.87791e+07
1.95618e+07
2.04747e+07
2.13359e+07
2.21301e+07
2.2841e+07
2.34943e+07
2.40424e+07
2.41636e+07
2.4122e+07
2.34631e+07
1.65134e+07
3.08832e+07
8.76164e+06
2.83967e+07
2.66353e+07
2.59227e+07
2.55048e+07
3.03229e+07
3.60681e+07
3.7533e+07
2.95155e+07
2.96825e+07
3.01876e+07
3.37718e+07
3.71998e+07
3.54474e+07
3.30813e+07
3.00743e+07
2.70928e+07
2.10084e+07
1.41142e+07
7.11597e+06
4.75503e+06
7.22675e+06
8.9373e+06
1.0807e+07
1.23706e+07
1.19782e+07
1.13255e+07
1.06077e+07
9.58992e+06
8.88697e+06
8.44658e+06
7.95288e+06
6.09246e+06
4.44728e+06
3.80711e+06
4.31872e+06
5.43431e+06
6.26588e+06
7.62848e+06
8.89183e+06
9.98122e+06
1.09229e+07
1.17237e+07
1.23894e+07
1.29278e+07
1.33441e+07
1.36459e+07
1.38376e+07
1.39261e+07
1.39249e+07
1.38381e+07
1.36724e+07
1.37042e+07
1.36573e+07
1.36073e+07
1.35572e+07
1.34966e+07
1.3446e+07
1.31854e+07
1.31039e+07
1.30537e+07
1.30126e+07
1.28105e+07
1.24669e+07
1.19615e+07
1.15307e+07
1.11136e+07
1.04761e+07
9.12587e+06
7.63129e+06
7.40136e+06
7.52539e+06
7.62789e+06
7.73432e+06
8.06195e+06
8.70201e+06
9.36013e+06
1.00332e+07
1.01999e+07
1.04469e+07
1.04554e+07
1.04626e+07
1.04712e+07
1.04066e+07
1.01307e+07
8.89342e+06
8.04229e+06
7.16268e+06
6.08278e+06
4.66307e+06
3.60296e+06
2.88862e+06
2.65353e+06
2.99738e+06
4.20906e+06
5.49311e+06
6.76636e+06
9.64298e+06
2.0314e+07
3.00979e+07
2.51797e+07
9.75054e+06
1.04644e+07
1.62426e+07
2.47516e+07
3.66675e+07
4.35596e+07
3.73995e+07
3.57244e+07
3.61157e+07
3.666e+07
3.99954e+07
4.29102e+07
4.50997e+07
4.57106e+07
4.63586e+07
4.69696e+07
4.64048e+07
4.45922e+07
4.26627e+07
3.98952e+07
3.55089e+07
3.16662e+07
2.82076e+07
2.50695e+07
2.27859e+07
2.09138e+07
1.84251e+07
1.65391e+07
1.50713e+07
1.37594e+07
1.24655e+07
1.13103e+07
1.03604e+07
9.61899e+06
9.47205e+06
9.41489e+06
9.44263e+06
1.08711e+07
1.09403e+07
1.07721e+07
1.05611e+07
1.03098e+07
9.93122e+06
9.46706e+06
8.96548e+06
8.43013e+06
7.86287e+06
7.26681e+06
6.64487e+06
5.99999e+06
5.24903e+06
4.12519e+06
3.02707e+06
1.99492e+06
1.21746e+06
920565
1.47328e+06
2.51128e+06
3.66588e+06
4.44661e+06
4.8195e+06
5.2284e+06
5.26333e+06
5.24188e+06
5.31279e+06
5.41626e+06
5.75445e+06
6.19247e+06
6.23273e+06
6.76812e+06
7.6831e+06
8.59409e+06
9.29976e+06
9.91923e+06
1.06328e+07
1.14175e+07
1.21884e+07
1.29705e+07
1.44954e+07
1.59692e+07
1.70869e+07
1.82326e+07
1.93706e+07
2.06118e+07
2.12572e+07
2.12561e+07
2.07592e+07
2.01768e+07
1.95063e+07
1.88785e+07
1.82475e+07
1.74862e+07
1.67265e+07
1.59252e+07
1.51317e+07
1.43653e+07
1.34783e+07
1.88392e+07
3.88086e+07
3.69617e+07
3.32051e+07
2.45783e+07
1.32202e+07
1.15764e+07
1.34353e+07
1.14305e+07
1.50117e+07
1.66042e+07
1.7068e+07
1.82126e+07
1.92206e+07
1.89036e+07
1.9751e+07
2.03585e+07
2.17467e+07
2.33541e+07
2.47108e+07
2.5998e+07
2.79202e+07
2.88174e+07
2.75547e+07
2.71379e+07
2.58489e+07
2.46209e+07
2.22084e+07
1.93353e+07
1.65473e+07
1.39311e+07
1.14619e+07
9.16389e+06
7.0088e+06
5.13131e+06
3.6603e+06
3.25063e+06
3.71602e+06
4.29804e+06
5.24322e+06
5.76756e+06
6.94648e+06
8.19181e+06
9.34162e+06
1.04287e+07
1.14521e+07
1.23997e+07
1.32781e+07
1.4096e+07
1.47762e+07
1.53959e+07
1.59587e+07
1.6475e+07
1.69855e+07
1.77321e+07
1.83792e+07
1.90532e+07
1.97497e+07
2.0463e+07
2.11971e+07
2.1872e+07
2.2552e+07
2.33079e+07
2.40783e+07
2.46915e+07
2.54247e+07
2.6296e+07
2.69919e+07
2.74953e+07
2.77539e+07
2.72887e+07
2.68212e+07
2.63518e+07
2.57043e+07
2.48576e+07
2.40379e+07
2.34245e+07
2.30695e+07
2.27138e+07
2.22844e+07
2.15898e+07
2.08887e+07
2.01323e+07
1.93906e+07
1.86903e+07
1.77689e+07
1.67762e+07
1.57905e+07
1.4786e+07
1.37936e+07
1.27911e+07
1.20676e+07
1.19102e+07
1.17533e+07
1.1596e+07
1.14324e+07
1.12671e+07
1.14282e+07
1.1655e+07
1.1772e+07
1.63828e+07
3.03044e+07
2.75026e+07
2.43076e+07
2.16928e+07
2.18831e+07
2.22486e+07
2.16622e+07
2.39333e+07
2.11335e+07
1.73963e+07
1.46229e+07
1.19655e+07
1.06097e+07
1.0678e+07
1.07826e+07
1.0954e+07
1.12178e+07
1.24202e+07
1.33989e+07
1.27292e+07
1.20319e+07
1.14751e+07
1.13479e+07
1.15582e+07
1.16197e+07
1.17293e+07
1.24404e+07
1.37173e+07
1.50537e+07
1.60364e+07
1.70349e+07
1.81937e+07
1.94228e+07
2.06647e+07
2.19163e+07
2.31785e+07
2.49039e+07
2.65595e+07
2.81471e+07
2.96703e+07
2.96889e+07
2.95442e+07
2.94318e+07
2.93496e+07
2.92061e+07
2.90394e+07
2.88946e+07
2.87658e+07
2.86562e+07
2.8623e+07
2.86866e+07
2.87755e+07
2.88162e+07
2.85149e+07
2.82036e+07
2.71214e+07
2.75522e+07
2.72142e+07
2.68566e+07
2.60888e+07
2.55915e+07
2.4924e+07
2.42198e+07
2.35113e+07
2.31933e+07
2.28697e+07
2.25337e+07
2.21951e+07
2.16609e+07
2.10128e+07
2.03601e+07
1.96772e+07
1.89679e+07
1.82791e+07
1.77278e+07
1.71924e+07
1.66533e+07
1.61037e+07
1.55271e+07
1.49645e+07
1.44166e+07
1.39094e+07
1.37516e+07
1.35957e+07
1.34533e+07
1.3311e+07
1.31689e+07
1.30213e+07
1.32233e+07
1.34377e+07
1.36702e+07
1.39079e+07
1.4118e+07
1.43104e+07
1.45006e+07
1.46913e+07
1.48831e+07
1.50952e+07
1.54581e+07
4.19298e+06
1.12502e+07
2.00037e+07
2.08062e+07
2.10556e+07
2.4649e+07
2.52436e+07
2.43498e+07
2.6375e+07
2.66779e+07
2.54285e+07
2.38634e+07
2.34779e+07
2.30907e+07
2.20925e+07
2.11619e+07
2.02945e+07
1.94881e+07
1.87629e+07
1.78817e+07
1.69356e+07
1.69794e+07
1.74029e+07
1.7399e+07
1.83098e+07
1.91978e+07
2.00357e+07
2.078e+07
2.14389e+07
2.21173e+07
2.28253e+07
2.34411e+07
2.39808e+07
2.44478e+07
2.47116e+07
2.48179e+07
2.48945e+07
2.49436e+07
2.49657e+07
2.49638e+07
2.49381e+07
2.48909e+07
2.48234e+07
2.47363e+07
2.46315e+07
2.45095e+07
2.43718e+07
2.4219e+07
2.40524e+07
2.39561e+07
2.386e+07
2.37534e+07
2.36317e+07
2.35034e+07
2.33671e+07
2.3149e+07
2.29721e+07
2.27854e+07
2.25927e+07
2.19753e+07
2.13669e+07
2.10969e+07
2.08205e+07
2.05569e+07
2.02891e+07
1.99112e+07
1.94348e+07
1.89515e+07
1.84462e+07
1.79315e+07
1.74237e+07
1.6915e+07
1.64017e+07
1.60613e+07
1.59026e+07
1.5756e+07
1.56169e+07
1.54582e+07
1.52988e+07
1.52129e+07
1.53935e+07
1.55749e+07
1.57567e+07
1.5939e+07
1.61215e+07
1.63042e+07
1.64871e+07
1.66699e+07
1.68528e+07
1.70316e+07
1.72144e+07
1.73656e+07
1.72964e+07
1.72277e+07
1.71595e+07
1.70958e+07
1.71187e+07
1.71336e+07
1.71419e+07
1.71561e+07
2.39532e+06
2.63666e+06
8.62522e+06
1.51696e+07
1.95995e+07
2.27779e+07
2.50138e+07
2.3987e+07
2.64555e+07
2.54891e+07
2.37406e+07
2.33875e+07
2.34709e+07
2.35405e+07
2.35979e+07
2.36436e+07
2.36778e+07
2.37013e+07
2.35449e+07
2.25071e+07
2.18327e+07
2.12434e+07
2.06975e+07
2.01922e+07
1.97258e+07
1.94604e+07
1.9816e+07
2.01488e+07
2.03489e+07
2.0521e+07
2.11429e+07
2.17184e+07
2.21108e+07
2.24007e+07
2.26503e+07
2.28753e+07
2.3073e+07
2.32406e+07
2.33785e+07
2.34893e+07
2.35739e+07
2.36338e+07
2.3671e+07
2.36858e+07
2.36804e+07
2.36552e+07
2.36118e+07
2.35509e+07
2.34736e+07
2.33811e+07
2.32208e+07
2.29686e+07
2.26952e+07
2.24014e+07
2.20819e+07
2.17491e+07
2.14072e+07
2.10437e+07
2.03323e+07
1.95255e+07
1.91154e+07
1.8696e+07
1.85279e+07
1.83809e+07
1.82319e+07
1.80812e+07
1.79288e+07
1.77749e+07
1.76196e+07
1.7657e+07
1.78059e+07
1.79569e+07
1.81099e+07
1.82647e+07
1.84211e+07
1.85789e+07
1.8502e+07
1.84226e+07
1.83439e+07
1.82658e+07
1.81885e+07
1.81118e+07
1.80358e+07
1.79605e+07
1.78858e+07
1.7812e+07
1.77389e+07
1.76665e+07
1.75953e+07
1.75201e+07
1.74499e+07
1.73797e+07
1.73099e+07
1.72917e+07
1.73099e+07
1.73367e+07
1.73633e+07
1.73758e+07
1.73578e+07
1.67212e+07
2.40426e+06
2.27834e+06
1.41009e+06
4.8402e+06
8.80565e+06
1.38625e+07
2.10347e+07
2.41253e+07
2.55211e+07
2.37319e+07
2.32601e+07
2.33806e+07
2.3462e+07
2.35333e+07
2.35921e+07
2.3639e+07
2.36744e+07
2.36897e+07
2.33371e+07
2.32094e+07
2.3213e+07
2.32087e+07
2.31974e+07
2.31792e+07
2.32023e+07
2.32411e+07
2.32696e+07
2.32407e+07
2.31924e+07
2.29904e+07
2.27036e+07
2.24423e+07
2.22047e+07
2.19902e+07
2.19292e+07
2.19807e+07
2.20179e+07
2.20427e+07
2.20553e+07
2.20563e+07
2.20469e+07
2.20267e+07
2.19975e+07
2.19589e+07
2.19121e+07
2.18571e+07
2.17946e+07
2.17253e+07
2.16486e+07
2.15663e+07
2.14778e+07
2.13834e+07
2.12846e+07
2.11804e+07
2.10714e+07
2.10356e+07
2.09445e+07
2.06061e+07
2.00818e+07
1.99566e+07
1.98682e+07
1.978e+07
1.96922e+07
1.96049e+07
1.9518e+07
1.94316e+07
1.93455e+07
1.926e+07
1.91751e+07
1.90907e+07
1.9007e+07
1.89237e+07
1.8841e+07
1.87588e+07
1.86772e+07
1.85962e+07
1.85158e+07
1.84361e+07
1.83571e+07
1.82788e+07
1.82012e+07
1.81244e+07
1.80482e+07
1.79726e+07
1.78976e+07
1.78233e+07
1.77497e+07
1.74816e+07
1.69287e+07
1.6337e+07
1.54224e+07
1.45434e+07
1.36759e+07
1.28207e+07
1.19624e+07
1.11005e+07
1.01626e+07
9.22864e+06
8.17221e+06
7.13195e+06
2.41192e+06
1.92305e+06
1.91755e+06
2.29792e+06
2.22516e+06
3.43671e+06
7.86055e+06
1.41586e+07
1.63019e+07
1.87427e+07
2.17749e+07
2.33732e+07
2.34517e+07
2.35248e+07
2.35846e+07
2.36324e+07
2.36684e+07
2.34193e+07
2.31869e+07
2.32004e+07
2.32054e+07
2.32023e+07
2.31921e+07
2.3238e+07
2.32873e+07
2.32954e+07
2.32801e+07
2.32402e+07
2.31922e+07
2.31399e+07
2.30834e+07
2.30237e+07
2.29602e+07
2.28942e+07
2.28247e+07
2.2753e+07
2.26788e+07
2.26024e+07
2.25244e+07
2.24441e+07
2.23627e+07
2.22796e+07
2.21954e+07
2.21099e+07
2.20235e+07
2.19364e+07
2.1848e+07
2.17595e+07
2.16699e+07
2.15797e+07
2.14898e+07
2.13987e+07
2.13076e+07
2.12169e+07
2.11254e+07
2.10338e+07
2.07968e+07
2.02613e+07
2.00553e+07
1.99665e+07
1.98781e+07
1.97899e+07
1.97021e+07
1.96148e+07
1.95278e+07
1.94413e+07
1.93552e+07
1.92696e+07
1.89495e+07
1.84008e+07
1.78523e+07
1.73041e+07
1.67565e+07
1.62099e+07
1.56644e+07
1.51203e+07
1.45778e+07
1.40371e+07
1.34983e+07
1.29617e+07
1.24274e+07
1.18129e+07
1.1164e+07
1.05191e+07
9.87843e+06
9.24223e+06
8.56995e+06
7.87459e+06
7.25724e+06
6.6954e+06
5.93104e+06
5.10523e+06
4.30203e+06
3.47315e+06
2.65733e+06
1.94524e+06
1.48663e+06
1.51939e+06
2.00727e+06
2.2267e+06
2.36819e+06
1.23771e+06
2.36022e+06
2.27996e+06
2.20755e+06
2.14016e+06
2.34163e+06
5.19668e+06
8.43863e+06
1.06324e+07
1.23952e+07
1.41572e+07
1.64693e+07
1.87595e+07
2.08543e+07
2.2766e+07
2.35033e+07
2.31516e+07
2.31738e+07
2.31886e+07
2.31947e+07
2.31926e+07
2.32592e+07
2.332e+07
2.33199e+07
2.32895e+07
2.32769e+07
2.32348e+07
2.31871e+07
2.31353e+07
2.30789e+07
2.30194e+07
2.2956e+07
2.28899e+07
2.28207e+07
2.27488e+07
2.2675e+07
2.25984e+07
2.25204e+07
2.24402e+07
2.23586e+07
2.22754e+07
2.21911e+07
2.21057e+07
2.20188e+07
2.19318e+07
2.18434e+07
2.17542e+07
2.12412e+07
2.0578e+07
1.99116e+07
1.92426e+07
1.85706e+07
1.78969e+07
1.72223e+07
1.65208e+07
1.55831e+07
1.48872e+07
1.44066e+07
1.39218e+07
1.34337e+07
1.29425e+07
1.24487e+07
1.19526e+07
1.14549e+07
1.09559e+07
1.04562e+07
9.92407e+06
9.38383e+06
8.87409e+06
8.36778e+06
7.86176e+06
7.27528e+06
6.65108e+06
6.029e+06
5.40961e+06
4.79359e+06
4.18204e+06
3.57649e+06
2.97949e+06
2.40272e+06
1.87253e+06
1.39582e+06
1.0486e+06
996633
1.27237e+06
1.68898e+06
1.98879e+06
2.04144e+06
2.15828e+06
2.24288e+06
2.24654e+06
2.24663e+06
2.24663e+06
2.24674e+06
2.24656e+06
2.24671e+06
2.24726e+06
2.24474e+06
2.23488e+06
2.2196e+06
1.24544e+06
2.34041e+06
2.26142e+06
2.19012e+06
1.99674e+06
3.11742e+06
5.81263e+06
7.54695e+06
7.01975e+06
6.68129e+06
6.5685e+06
7.67003e+06
9.33844e+06
1.10383e+07
1.23715e+07
1.32832e+07
1.46694e+07
1.61009e+07
1.73919e+07
1.85503e+07
1.95754e+07
2.04836e+07
2.12159e+07
2.18345e+07
2.21508e+07
2.18669e+07
2.15391e+07
2.11844e+07
2.08051e+07
2.04025e+07
1.99786e+07
1.9535e+07
1.90728e+07
1.8594e+07
1.80992e+07
1.75904e+07
1.70683e+07
1.65341e+07
1.59889e+07
1.54336e+07
1.48693e+07
1.42964e+07
1.3717e+07
1.31304e+07
1.25385e+07
1.19421e+07
1.12687e+07
1.05904e+07
9.95999e+06
9.33614e+06
8.71012e+06
8.08226e+06
7.45234e+06
6.82115e+06
6.01505e+06
5.29456e+06
4.86685e+06
4.43561e+06
4.00194e+06
3.56709e+06
3.13239e+06
2.67612e+06
2.14326e+06
1.63669e+06
1.19408e+06
917432
964978
1.14231e+06
1.21816e+06
1.29988e+06
1.39707e+06
1.51701e+06
1.62178e+06
1.71571e+06
1.81171e+06
1.90934e+06
2.00827e+06
2.10822e+06
2.20892e+06
2.31017e+06
2.33564e+06
2.32638e+06
2.30263e+06
2.25613e+06
2.19925e+06
2.14445e+06
2.10065e+06
2.07807e+06
2.14394e+06
2.22664e+06
2.25499e+06
2.25491e+06
2.25472e+06
2.2547e+06
2.25437e+06
2.25436e+06
2.25477e+06
2.25211e+06
2.24217e+06
1.84893e+06
1.79323e+06
2.3203e+06
2.24223e+06
2.12408e+06
1.81312e+06
3.19233e+06
7.47942e+06
8.68831e+06
6.96899e+06
6.6448e+06
6.01183e+06
5.43458e+06
5.21386e+06
4.98898e+06
4.39568e+06
4.22728e+06
5.08726e+06
6.10197e+06
7.12908e+06
8.0931e+06
8.98469e+06
9.72506e+06
1.03764e+07
1.0899e+07
1.08187e+07
1.0476e+07
1.01655e+07
9.83102e+06
9.47419e+06
9.09662e+06
8.69948e+06
8.285e+06
7.85351e+06
7.40746e+06
6.94729e+06
6.4747e+06
5.99092e+06
5.49708e+06
4.99469e+06
4.48493e+06
3.97054e+06
3.45251e+06
2.93595e+06
2.42668e+06
1.93592e+06
1.49087e+06
1.15369e+06
1.09446e+06
1.08928e+06
1.08424e+06
1.07937e+06
1.0522e+06
1.0279e+06
941806
979539
1.03024e+06
1.08864e+06
1.15495e+06
1.22795e+06
1.30658e+06
1.39174e+06
1.49646e+06
1.60947e+06
1.70142e+06
1.79562e+06
1.89169e+06
1.98931e+06
2.08821e+06
2.18813e+06
2.28887e+06
2.39028e+06
2.41727e+06
2.40805e+06
2.39881e+06
2.38954e+06
2.38026e+06
2.37097e+06
2.36167e+06
2.35239e+06
2.34313e+06
2.30587e+06
2.25406e+06
2.19676e+06
2.14508e+06
2.10046e+06
2.09312e+06
2.08581e+06
2.07855e+06
2.13105e+06
2.21312e+06
2.2625e+06
2.26228e+06
2.26198e+06
2.26181e+06
2.2613e+06
2.26112e+06
2.26138e+06
2.25856e+06
2.24855e+06
1.30149e+06
2.1296e+06
2.2088e+06
2.20922e+06
1.72655e+06
1.76387e+06
3.50415e+06
8.76805e+06
9.70979e+06
7.24302e+06
6.60583e+06
5.97941e+06
5.39797e+06
5.17853e+06
4.70377e+06
4.08335e+06
3.82847e+06
3.67382e+06
3.52556e+06
3.36939e+06
3.22054e+06
3.09241e+06
2.96984e+06
2.85251e+06
2.34551e+06
1.50642e+06
1.29037e+06
1.2759e+06
1.26213e+06
1.24897e+06
1.23648e+06
1.22475e+06
1.21374e+06
1.20337e+06
1.19342e+06
1.1839e+06
1.17479e+06
1.16613e+06
1.15776e+06
1.13398e+06
1.10731e+06
1.08724e+06
1.07473e+06
1.07092e+06
1.07545e+06
1.08905e+06
1.11226e+06
1.14373e+06
1.18361e+06
1.23176e+06
1.28672e+06
1.31383e+06
1.35138e+06
1.43089e+06
1.70186e+06
1.85776e+06
1.94996e+06
2.04376e+06
2.13897e+06
2.23537e+06
2.33282e+06
2.43118e+06
2.50677e+06
2.49775e+06
2.48867e+06
2.47959e+06
2.47047e+06
2.46132e+06
2.45213e+06
2.4429e+06
2.43367e+06
2.42443e+06
2.41518e+06
2.40594e+06
2.3967e+06
2.38745e+06
2.37817e+06
2.36887e+06
2.35923e+06
2.30989e+06
2.25334e+06
2.19556e+06
2.14636e+06
2.11527e+06
2.10782e+06
2.10042e+06
2.09306e+06
2.08575e+06
2.07847e+06
2.1199e+06
2.20175e+06
2.26902e+06
2.26869e+06
2.26827e+06
2.26797e+06
2.26734e+06
2.26704e+06
2.26714e+06
2.26418e+06
2.25409e+06
1.56133e+06
2.28139e+06
2.2519e+06
1.66807e+06
1.26282e+06
1.2621e+06
3.89701e+06
9.39812e+06
1.05211e+07
7.90855e+06
6.32921e+06
5.71358e+06
5.13644e+06
4.82229e+06
4.21381e+06
3.81537e+06
3.66384e+06
3.51744e+06
3.36194e+06
3.21174e+06
3.08023e+06
2.95303e+06
2.83003e+06
2.71093e+06
1.91398e+06
1.25488e+06
1.23483e+06
1.22654e+06
1.22126e+06
1.21967e+06
1.22185e+06
1.22888e+06
1.24076e+06
1.25789e+06
1.28017e+06
1.30789e+06
1.34081e+06
1.37878e+06
1.39535e+06
1.40921e+06
1.45379e+06
1.51357e+06
1.57689e+06
1.64445e+06
1.71603e+06
1.79011e+06
1.86752e+06
1.94797e+06
2.03047e+06
2.1153e+06
2.20252e+06
2.2912e+06
2.30169e+06
2.4513e+06
2.57455e+06
2.56608e+06
2.55751e+06
2.54884e+06
2.54011e+06
2.53131e+06
2.52244e+06
2.5135e+06
2.50448e+06
2.49542e+06
2.48632e+06
2.47722e+06
2.46806e+06
2.45888e+06
2.44966e+06
2.44042e+06
2.43115e+06
2.42187e+06
2.41259e+06
2.4033e+06
2.394e+06
2.38468e+06
2.3653e+06
2.31482e+06
2.25419e+06
2.19585e+06
2.14832e+06
2.12971e+06
2.12218e+06
2.11468e+06
2.10723e+06
2.09982e+06
2.09245e+06
2.08511e+06
2.07782e+06
2.11012e+06
2.19217e+06
2.27458e+06
2.27412e+06
2.27357e+06
2.27315e+06
2.27242e+06
2.27199e+06
2.27195e+06
2.26888e+06
2.25875e+06
1.61719e+06
2.31987e+06
1.95364e+06
1.25668e+06
1.0918e+06
1.07881e+06
4.31422e+06
9.82392e+06
1.03566e+07
7.77946e+06
6.27137e+06
5.62717e+06
5.01937e+06
4.45903e+06
3.94161e+06
3.77119e+06
3.60922e+06
3.44604e+06
3.29221e+06
3.15691e+06
3.0298e+06
2.91107e+06
2.80106e+06
2.47522e+06
2.10087e+06
1.83765e+06
1.85322e+06
1.87442e+06
1.90028e+06
1.93135e+06
1.96676e+06
2.00676e+06
2.05109e+06
2.09968e+06
2.15207e+06
2.20795e+06
2.26774e+06
2.33006e+06
2.39563e+06
2.41344e+06
2.40515e+06
2.39726e+06
2.38946e+06
2.38101e+06
2.37293e+06
2.36486e+06
2.3563e+06
2.34792e+06
2.33975e+06
2.33127e+06
2.32289e+06
2.31471e+06
2.3859e+06
2.57355e+06
2.57187e+06
2.56335e+06
2.55475e+06
2.54608e+06
2.53733e+06
2.52849e+06
2.51957e+06
2.51057e+06
2.50153e+06
2.49245e+06
2.48333e+06
2.47416e+06
2.46497e+06
2.45575e+06
2.44651e+06
2.43724e+06
2.42797e+06
2.41871e+06
2.40942e+06
2.40013e+06
2.37245e+06
2.31807e+06
2.25661e+06
2.19962e+06
2.15141e+06
2.14378e+06
2.13617e+06
2.12858e+06
2.12102e+06
2.11351e+06
2.10606e+06
2.09865e+06
2.09128e+06
2.08393e+06
2.07663e+06
2.10142e+06
2.18397e+06
2.27919e+06
2.27863e+06
2.27798e+06
2.27744e+06
2.27658e+06
2.276e+06
2.27582e+06
2.27264e+06
2.26247e+06
1.66021e+06
2.21654e+06
1.41278e+06
1.12241e+06
1.10694e+06
1.21425e+06
4.87638e+06
1.00448e+07
9.94915e+06
7.40974e+06
6.15504e+06
5.52779e+06
4.73429e+06
4.27437e+06
4.00007e+06
3.85848e+06
3.71898e+06
3.58977e+06
3.47588e+06
3.37037e+06
3.27171e+06
3.17973e+06
3.09445e+06
2.66265e+06
2.5945e+06
2.50641e+06
2.50017e+06
2.4942e+06
2.48786e+06
2.48151e+06
2.47498e+06
2.46837e+06
2.46159e+06
2.45463e+06
2.44802e+06
2.4407e+06
2.43358e+06
2.42657e+06
2.41875e+06
2.41132e+06
2.40387e+06
2.39584e+06
2.38819e+06
2.38042e+06
2.37219e+06
2.36416e+06
2.35619e+06
2.34788e+06
2.33969e+06
2.33162e+06
2.32333e+06
2.31761e+06
2.52537e+06
2.57688e+06
2.56844e+06
2.55991e+06
2.55128e+06
2.54258e+06
2.5338e+06
2.52494e+06
2.516e+06
2.50698e+06
2.49792e+06
2.48881e+06
2.47967e+06
2.47049e+06
2.46127e+06
2.45201e+06
2.44274e+06
2.43345e+06
2.42415e+06
2.41484e+06
2.38102e+06
2.32332e+06
2.26091e+06
2.20465e+06
2.16499e+06
2.15729e+06
2.14962e+06
2.14199e+06
2.13439e+06
2.12682e+06
2.11927e+06
2.11175e+06
2.10428e+06
2.09686e+06
2.08948e+06
2.08215e+06
2.07486e+06
2.0935e+06
2.17684e+06
2.28285e+06
2.28219e+06
2.28143e+06
2.28081e+06
2.27984e+06
2.27913e+06
2.27883e+06
2.27553e+06
2.26533e+06
1.679e+06
1.62116e+06
1.17495e+06
1.13807e+06
1.12205e+06
1.45802e+06
5.47488e+06
1.01484e+07
9.52524e+06
7.02811e+06
6.03644e+06
5.31899e+06
4.45862e+06
4.07076e+06
3.92358e+06
3.77908e+06
3.64389e+06
3.52432e+06
3.4148e+06
3.31306e+06
3.21803e+06
3.1294e+06
3.00191e+06
2.6528e+06
2.50219e+06
2.49748e+06
2.49215e+06
2.48663e+06
2.48097e+06
2.4751e+06
2.46904e+06
2.46279e+06
2.45679e+06
2.45001e+06
2.44355e+06
2.43722e+06
2.43002e+06
2.4232e+06
2.4162e+06
2.40855e+06
2.40139e+06
2.39407e+06
2.38629e+06
2.37872e+06
2.37111e+06
2.36303e+06
2.35501e+06
2.34708e+06
2.33903e+06
2.33094e+06
2.32161e+06
2.4464e+06
2.58113e+06
2.57278e+06
2.56433e+06
2.55579e+06
2.54714e+06
2.5384e+06
2.52959e+06
2.52071e+06
2.51176e+06
2.50273e+06
2.49365e+06
2.48452e+06
2.47538e+06
2.46618e+06
2.45697e+06
2.44771e+06
2.43844e+06
2.42915e+06
2.39113e+06
2.33062e+06
2.26707e+06
2.21081e+06
2.17818e+06
2.17044e+06
2.1627e+06
2.15498e+06
2.14729e+06
2.13963e+06
2.13203e+06
2.12446e+06
2.11692e+06
2.10942e+06
2.10196e+06
2.09453e+06
2.08713e+06
2.07978e+06
2.07247e+06
2.0861e+06
2.17042e+06
2.2855e+06
2.28474e+06
2.28389e+06
2.28316e+06
2.28209e+06
2.28128e+06
2.28089e+06
2.2775e+06
2.26729e+06
1.26738e+06
1.29363e+06
1.17455e+06
1.15381e+06
1.18149e+06
1.77424e+06
5.99429e+06
1.0278e+07
9.08727e+06
6.63311e+06
5.91461e+06
4.99576e+06
4.17302e+06
3.98911e+06
3.83894e+06
3.69816e+06
3.5728e+06
3.45845e+06
3.35243e+06
3.25438e+06
3.16304e+06
3.07808e+06
2.7351e+06
2.66139e+06
2.49177e+06
2.48763e+06
2.48334e+06
2.47854e+06
2.47345e+06
2.46806e+06
2.46275e+06
2.45664e+06
2.45092e+06
2.4451e+06
2.43848e+06
2.43254e+06
2.42629e+06
2.41915e+06
2.41258e+06
2.40561e+06
2.39823e+06
2.3912e+06
2.38397e+06
2.37627e+06
2.36879e+06
2.3613e+06
2.35344e+06
2.34544e+06
2.3376e+06
2.32968e+06
2.3652e+06
2.57387e+06
2.57642e+06
2.56807e+06
2.5596e+06
2.55104e+06
2.54238e+06
2.53365e+06
2.52481e+06
2.5159e+06
2.50693e+06
2.4979e+06
2.4888e+06
2.47963e+06
2.47045e+06
2.46125e+06
2.45203e+06
2.44277e+06
2.40309e+06
2.34028e+06
2.27544e+06
2.21857e+06
2.19076e+06
2.18295e+06
2.17517e+06
2.16743e+06
2.15971e+06
2.15202e+06
2.14435e+06
2.1367e+06
2.12908e+06
2.1215e+06
2.11395e+06
2.10646e+06
2.09902e+06
2.09161e+06
2.08422e+06
2.07687e+06
2.06955e+06
2.07905e+06
2.16442e+06
2.28715e+06
2.28631e+06
2.28539e+06
2.28455e+06
2.28336e+06
2.28245e+06
2.28196e+06
2.27849e+06
2.26829e+06
1.08917e+06
1.21183e+06
1.19128e+06
1.16966e+06
1.44148e+06
2.20498e+06
6.23744e+06
1.04354e+07
8.61409e+06
6.22282e+06
5.58852e+06
4.68478e+06
4.05494e+06
3.89971e+06
3.75223e+06
3.62075e+06
3.50189e+06
3.39141e+06
3.28886e+06
3.19437e+06
3.10666e+06
3.0255e+06
2.60702e+06
2.52419e+06
2.48104e+06
2.47741e+06
2.4737e+06
2.46965e+06
2.46547e+06
2.46036e+06
2.45552e+06
2.45029e+06
2.44436e+06
2.43911e+06
2.43328e+06
2.42712e+06
2.42132e+06
2.4147e+06
2.408e+06
2.40155e+06
2.39472e+06
2.38756e+06
2.38061e+06
2.37342e+06
2.3659e+06
2.3584e+06
2.35094e+06
2.34319e+06
2.33537e+06
2.32203e+06