/*--------------------------------*- C++ -*----------------------------------*\
| =========                 |                                                 |
| \\      /  F ield         | foam-extend: Open Source CFD                    |
|  \\    /   O peration     | Version:     4.1                                |
|   \\  /    A nd           | Web:         http://www.foam-extend.org         |
|    \\/     M anipulation  |                                                 |
\*---------------------------------------------------------------------------*/
FoamFile
{
    version     2.0;
    format      ascii;
    class       volVectorField;
    location    "0";
    object      D;
}
// * * * * * * * * * * * * * * * * * * * * * * * * * * * * * * * * * * * * * //

dimensions      [0 1 0 0 0 0 0];

internalField   nonuniform List<vector> 
100000
(
(5.35768e-07 -2.28746e-07 0)
(5.36705e-07 -2.28476e-07 0)
(5.37486e-07 -2.28241e-07 0)
(5.3797e-07 -2.28058e-07 0)
(5.38024e-07 -2.27919e-07 0)
(5.37557e-07 -2.27794e-07 0)
(5.3653e-07 -2.27662e-07 0)
(5.34974e-07 -2.27515e-07 0)
(5.32997e-07 -2.27335e-07 0)
(5.30734e-07 -2.27097e-07 0)
(5.13373e-07 -2.17688e-07 0)
(5.13066e-07 -2.16591e-07 0)
(5.12834e-07 -2.15661e-07 0)
(5.12574e-07 -2.14935e-07 0)
(5.12191e-07 -2.14428e-07 0)
(5.11608e-07 -2.14122e-07 0)
(5.10764e-07 -2.13977e-07 0)
(5.09631e-07 -2.13939e-07 0)
(5.08233e-07 -2.1395e-07 0)
(5.06633e-07 -2.13956e-07 0)
(4.92013e-07 -2.05631e-07 0)
(4.92107e-07 -2.04792e-07 0)
(4.92185e-07 -2.04083e-07 0)
(4.9217e-07 -2.0354e-07 0)
(4.91996e-07 -2.03181e-07 0)
(4.9162e-07 -2.03001e-07 0)
(4.9101e-07 -2.02978e-07 0)
(4.9016e-07 -2.03078e-07 0)
(4.89098e-07 -2.03256e-07 0)
(4.8788e-07 -2.03468e-07 0)
(4.79238e-07 -1.99017e-07 0)
(4.79595e-07 -1.98411e-07 0)
(4.79879e-07 -1.97902e-07 0)
(4.80034e-07 -1.97523e-07 0)
(4.80014e-07 -1.97292e-07 0)
(4.79795e-07 -1.97211e-07 0)
(4.79364e-07 -1.97269e-07 0)
(4.78726e-07 -1.97445e-07 0)
(4.77911e-07 -1.97708e-07 0)
(4.7697e-07 -1.98021e-07 0)
(4.72575e-07 -1.96123e-07 0)
(4.73079e-07 -1.95659e-07 0)
(4.73484e-07 -1.95277e-07 0)
(4.73743e-07 -1.95004e-07 0)
(4.73827e-07 -1.94858e-07 0)
(4.73722e-07 -1.94843e-07 0)
(4.73426e-07 -1.94953e-07 0)
(4.72951e-07 -1.95177e-07 0)
(4.72324e-07 -1.9549e-07 0)
(4.7159e-07 -1.95864e-07 0)
(4.70293e-07 -1.9578e-07 0)
(4.7088e-07 -1.95428e-07 0)
(4.71356e-07 -1.95145e-07 0)
(4.71682e-07 -1.94955e-07 0)
(4.71839e-07 -1.94873e-07 0)
(4.7182e-07 -1.94905e-07 0)
(4.71628e-07 -1.95051e-07 0)
(4.71277e-07 -1.953e-07 0)
(4.70794e-07 -1.95637e-07 0)
(4.70218e-07 -1.96035e-07 0)
(4.71235e-07 -1.97211e-07 0)
(4.71865e-07 -1.96937e-07 0)
(4.7238e-07 -1.96724e-07 0)
(4.72748e-07 -1.96593e-07 0)
(4.72956e-07 -1.96557e-07 0)
(4.73002e-07 -1.96622e-07 0)
(4.7289e-07 -1.96789e-07 0)
(4.72637e-07 -1.97052e-07 0)
(4.72267e-07 -1.97397e-07 0)
(4.71812e-07 -1.97803e-07 0)
(4.7458e-07 -1.99891e-07 0)
(4.75228e-07 -1.99677e-07 0)
(4.7576e-07 -1.99518e-07 0)
(4.76154e-07 -1.99432e-07 0)
(4.76398e-07 -1.9943e-07 0)
(4.76491e-07 -1.99519e-07 0)
(4.76442e-07 -1.99698e-07 0)
(4.76264e-07 -1.99966e-07 0)
(4.7598e-07 -2.00309e-07 0)
(4.75618e-07 -2.00711e-07 0)
(4.79762e-07 -2.0344e-07 0)
(4.8041e-07 -2.03271e-07 0)
(4.80948e-07 -2.03153e-07 0)
(4.81355e-07 -2.031e-07 0)
(4.81624e-07 -2.03122e-07 0)
(4.81754e-07 -2.03226e-07 0)
(4.81755e-07 -2.03413e-07 0)
(4.81639e-07 -2.03679e-07 0)
(4.81427e-07 -2.04014e-07 0)
(4.81142e-07 -2.04405e-07 0)
(4.84226e-07 -2.08684e-07 0)
(4.84816e-07 -2.08558e-07 0)
(4.85295e-07 -2.08481e-07 0)
(4.8564e-07 -2.08464e-07 0)
(4.85836e-07 -2.0852e-07 0)
(4.85882e-07 -2.08654e-07 0)
(4.8578e-07 -2.08868e-07 0)
(4.85545e-07 -2.09157e-07 0)
(4.85195e-07 -2.09513e-07 0)
(4.84756e-07 -2.09919e-07 0)
(5.33768e-07 -2.29664e-07 0)
(5.34368e-07 -2.29572e-07 0)
(5.34784e-07 -2.29551e-07 0)
(5.34936e-07 -2.29589e-07 0)
(5.34799e-07 -2.29599e-07 0)
(5.34369e-07 -2.29451e-07 0)
(5.33576e-07 -2.29123e-07 0)
(5.32327e-07 -2.28703e-07 0)
(5.30627e-07 -2.28247e-07 0)
(5.28556e-07 -2.27748e-07 0)
(5.11933e-07 -2.18761e-07 0)
(5.11128e-07 -2.17755e-07 0)
(5.10401e-07 -2.16958e-07 0)
(5.09701e-07 -2.16373e-07 0)
(5.09046e-07 -2.15961e-07 0)
(5.08456e-07 -2.15648e-07 0)
(5.07835e-07 -2.15379e-07 0)
(5.07014e-07 -2.15144e-07 0)
(5.05903e-07 -2.14932e-07 0)
(5.04508e-07 -2.14711e-07 0)
(4.90325e-07 -2.06791e-07 0)
(4.89976e-07 -2.06073e-07 0)
(4.89612e-07 -2.05512e-07 0)
(4.89212e-07 -2.05112e-07 0)
(4.88805e-07 -2.04843e-07 0)
(4.88424e-07 -2.04655e-07 0)
(4.88013e-07 -2.04519e-07 0)
(4.87458e-07 -2.04439e-07 0)
(4.8669e-07 -2.04415e-07 0)
(4.85711e-07 -2.04425e-07 0)
(4.77335e-07 -2.00229e-07 0)
(4.77303e-07 -1.99768e-07 0)
(4.77202e-07 -1.99421e-07 0)
(4.77025e-07 -1.99187e-07 0)
(4.76809e-07 -1.99043e-07 0)
(4.76588e-07 -1.98954e-07 0)
(4.76335e-07 -1.98909e-07 0)
(4.75972e-07 -1.98922e-07 0)
(4.75449e-07 -1.99e-07 0)
(4.74765e-07 -1.99134e-07 0)
(4.70493e-07 -1.97379e-07 0)
(4.70659e-07 -1.97073e-07 0)
(4.70727e-07 -1.96853e-07 0)
(4.70702e-07 -1.9672e-07 0)
(4.70621e-07 -1.96654e-07 0)
(4.7052e-07 -1.96633e-07 0)
(4.70385e-07 -1.96654e-07 0)
(4.70166e-07 -1.96734e-07 0)
(4.69824e-07 -1.96885e-07 0)
(4.69357e-07 -1.971e-07 0)
(4.68056e-07 -1.9707e-07 0)
(4.6835e-07 -1.96881e-07 0)
(4.68534e-07 -1.96759e-07 0)
(4.68618e-07 -1.96702e-07 0)
(4.68638e-07 -1.96695e-07 0)
(4.68628e-07 -1.96725e-07 0)
(4.68584e-07 -1.96793e-07 0)
(4.68474e-07 -1.96917e-07 0)
(4.68266e-07 -1.9711e-07 0)
(4.6796e-07 -1.9737e-07 0)
(4.68863e-07 -1.9853e-07 0)
(4.6924e-07 -1.9842e-07 0)
(4.69503e-07 -1.98363e-07 0)
(4.69666e-07 -1.98358e-07 0)
(4.69761e-07 -1.98392e-07 0)
(4.69821e-07 -1.98458e-07 0)
(4.69848e-07 -1.98559e-07 0)
(4.69821e-07 -1.98714e-07 0)
(4.69716e-07 -1.98934e-07 0)
(4.69531e-07 -1.99219e-07 0)
(4.72091e-07 -2.01233e-07 0)
(4.7252e-07 -2.01181e-07 0)
(4.72838e-07 -2.01173e-07 0)
(4.73057e-07 -2.01205e-07 0)
(4.7321e-07 -2.0127e-07 0)
(4.73323e-07 -2.01362e-07 0)
(4.73405e-07 -2.01487e-07 0)
(4.73439e-07 -2.01662e-07 0)
(4.7341e-07 -2.01897e-07 0)
(4.73314e-07 -2.02193e-07 0)
(4.77166e-07 -2.04806e-07 0)
(4.77625e-07 -2.04795e-07 0)
(4.77978e-07 -2.0482e-07 0)
(4.78239e-07 -2.04879e-07 0)
(4.78435e-07 -2.04965e-07 0)
(4.78592e-07 -2.05076e-07 0)
(4.78718e-07 -2.05217e-07 0)
(4.78804e-07 -2.05404e-07 0)
(4.78837e-07 -2.05646e-07 0)
(4.78814e-07 -2.05944e-07 0)
(4.81537e-07 -2.10087e-07 0)
(4.81947e-07 -2.10126e-07 0)
(4.82254e-07 -2.10195e-07 0)
(4.82459e-07 -2.10295e-07 0)
(4.82574e-07 -2.10425e-07 0)
(4.8261e-07 -2.10588e-07 0)
(4.82572e-07 -2.10789e-07 0)
(4.82456e-07 -2.11036e-07 0)
(4.82262e-07 -2.11331e-07 0)
(4.81995e-07 -2.11671e-07 0)
(5.3192e-07 -2.30533e-07 0)
(5.32329e-07 -2.30577e-07 0)
(5.32589e-07 -2.30725e-07 0)
(5.32652e-07 -2.30968e-07 0)
(5.3251e-07 -2.31158e-07 0)
(5.32143e-07 -2.31004e-07 0)
(5.31427e-07 -2.30467e-07 0)
(5.30259e-07 -2.29788e-07 0)
(5.28647e-07 -2.29087e-07 0)
(5.26644e-07 -2.28356e-07 0)
(5.10614e-07 -2.197e-07 0)
(5.09398e-07 -2.18731e-07 0)
(5.08284e-07 -2.17992e-07 0)
(5.07239e-07 -2.1748e-07 0)
(5.06369e-07 -2.1714e-07 0)
(5.05823e-07 -2.16845e-07 0)
(5.05428e-07 -2.16508e-07 0)
(5.04841e-07 -2.16149e-07 0)
(5.03912e-07 -2.15779e-07 0)
(5.02631e-07 -2.15379e-07 0)
(4.88828e-07 -2.07795e-07 0)
(4.88122e-07 -2.07138e-07 0)
(4.87419e-07 -2.06651e-07 0)
(4.86717e-07 -2.0633e-07 0)
(4.86124e-07 -2.06125e-07 0)
(4.85771e-07 -2.05944e-07 0)
(4.85554e-07 -2.05743e-07 0)
(4.85225e-07 -2.05551e-07 0)
(4.84651e-07 -2.05391e-07 0)
(4.83818e-07 -2.0525e-07 0)
(4.75687e-07 -2.01266e-07 0)
(4.75354e-07 -2.00892e-07 0)
(4.74962e-07 -2.00638e-07 0)
(4.74527e-07 -2.00496e-07 0)
(4.74151e-07 -2.00416e-07 0)
(4.73949e-07 -2.00327e-07 0)
(4.73862e-07 -2.00214e-07 0)
(4.7371e-07 -2.00119e-07 0)
(4.73385e-07 -2.00075e-07 0)
(4.72868e-07 -2.0008e-07 0)
(4.68722e-07 -1.98441e-07 0)
(4.68635e-07 -1.98234e-07 0)
(4.68455e-07 -1.98115e-07 0)
(4.68208e-07 -1.98074e-07 0)
(4.6799e-07 -1.98066e-07 0)
(4.67901e-07 -1.98042e-07 0)
(4.67911e-07 -1.97999e-07 0)
(4.67892e-07 -1.97984e-07 0)
(4.6775e-07 -1.98029e-07 0)
(4.67465e-07 -1.98139e-07 0)
(4.66181e-07 -1.98145e-07 0)
(4.66265e-07 -1.98066e-07 0)
(4.66238e-07 -1.9805e-07 0)
(4.66132e-07 -1.98085e-07 0)
(4.66034e-07 -1.98134e-07 0)
(4.66033e-07 -1.98158e-07 0)
(4.66119e-07 -1.98168e-07 0)
(4.66196e-07 -1.98207e-07 0)
(4.66189e-07 -1.98309e-07 0)
(4.66075e-07 -1.98483e-07 0)
(4.66897e-07 -1.99615e-07 0)
(4.67102e-07 -1.9962e-07 0)
(4.67186e-07 -1.99671e-07 0)
(4.67186e-07 -1.99755e-07 0)
(4.67181e-07 -1.9984e-07 0)
(4.6725e-07 -1.99901e-07 0)
(4.67395e-07 -1.99951e-07 0)
(4.67545e-07 -2.00031e-07 0)
(4.67639e-07 -2.00174e-07 0)
(4.67654e-07 -2.00391e-07 0)
(4.70046e-07 -2.02323e-07 0)
(4.70336e-07 -2.0239e-07 0)
(4.70504e-07 -2.02489e-07 0)
(4.70586e-07 -2.02608e-07 0)
(4.70654e-07 -2.0272e-07 0)
(4.70778e-07 -2.02809e-07 0)
(4.70967e-07 -2.02889e-07 0)
(4.71171e-07 -2.02999e-07 0)
(4.71337e-07 -2.0317e-07 0)
(4.71446e-07 -2.03413e-07 0)
(4.75046e-07 -2.05901e-07 0)
(4.75394e-07 -2.06009e-07 0)
(4.75623e-07 -2.06141e-07 0)
(4.75767e-07 -2.06283e-07 0)
(4.75893e-07 -2.06415e-07 0)
(4.76062e-07 -2.06523e-07 0)
(4.7629e-07 -2.06626e-07 0)
(4.76539e-07 -2.06758e-07 0)
(4.76767e-07 -2.06947e-07 0)
(4.76952e-07 -2.07205e-07 0)
(4.79411e-07 -2.11178e-07 0)
(4.79741e-07 -2.11338e-07 0)
(4.79966e-07 -2.11505e-07 0)
(4.80098e-07 -2.11677e-07 0)
(4.80163e-07 -2.11852e-07 0)
(4.80182e-07 -2.12035e-07 0)
(4.80162e-07 -2.12244e-07 0)
(4.80087e-07 -2.12496e-07 0)
(4.79947e-07 -2.12801e-07 0)
(4.79741e-07 -2.13152e-07 0)
(5.30209e-07 -2.31341e-07 0)
(5.30548e-07 -2.31474e-07 0)
(5.3084e-07 -2.31731e-07 0)
(5.31084e-07 -2.32153e-07 0)
(5.31238e-07 -2.32616e-07 0)
(5.3096e-07 -2.3248e-07 0)
(5.30031e-07 -2.31661e-07 0)
(5.28681e-07 -2.30741e-07 0)
(5.27e-07 -2.29849e-07 0)
(5.24991e-07 -2.28931e-07 0)
(5.09382e-07 -2.20507e-07 0)
(5.07855e-07 -2.1954e-07 0)
(5.06476e-07 -2.18797e-07 0)
(5.05176e-07 -2.18274e-07 0)
(5.04099e-07 -2.1796e-07 0)
(5.03665e-07 -2.1772e-07 0)
(5.0353e-07 -2.17385e-07 0)
(5.03088e-07 -2.16977e-07 0)
(5.02239e-07 -2.16517e-07 0)
(5.01011e-07 -2.15985e-07 0)
(4.87483e-07 -2.08653e-07 0)
(4.86514e-07 -2.08012e-07 0)
(4.85583e-07 -2.07532e-07 0)
(4.84658e-07 -2.0721e-07 0)
(4.8388e-07 -2.07028e-07 0)
(4.83603e-07 -2.06879e-07 0)
(4.83612e-07 -2.06673e-07 0)
(4.83432e-07 -2.06445e-07 0)
(4.82955e-07 -2.06216e-07 0)
(4.82199e-07 -2.05973e-07 0)
(4.74252e-07 -2.02147e-07 0)
(4.73705e-07 -2.01812e-07 0)
(4.73124e-07 -2.01586e-07 0)
(4.72499e-07 -2.01469e-07 0)
(4.71964e-07 -2.01425e-07 0)
(4.7181e-07 -2.01349e-07 0)
(4.7191e-07 -2.01208e-07 0)
(4.71904e-07 -2.0107e-07 0)
(4.71686e-07 -2.00965e-07 0)
(4.71264e-07 -2.00887e-07 0)
(4.67219e-07 -1.99332e-07 0)
(4.66959e-07 -1.99176e-07 0)
(4.66621e-07 -1.99096e-07 0)
(4.66209e-07 -1.99089e-07 0)
(4.65849e-07 -1.99116e-07 0)
(4.65788e-07 -1.99093e-07 0)
(4.65958e-07 -1.99016e-07 0)
(4.66082e-07 -1.98961e-07 0)
(4.66056e-07 -1.98959e-07 0)
(4.65883e-07 -1.99007e-07 0)
(4.64621e-07 -1.99037e-07 0)
(4.64571e-07 -1.99021e-07 0)
(4.64413e-07 -1.99055e-07 0)
(4.64162e-07 -1.99135e-07 0)
(4.63936e-07 -1.99218e-07 0)
(4.63949e-07 -1.99235e-07 0)
(4.64172e-07 -1.99204e-07 0)
(4.64389e-07 -1.99204e-07 0)
(4.64507e-07 -1.99268e-07 0)
(4.64519e-07 -1.99398e-07 0)
(4.65291e-07 -2.00503e-07 0)
(4.65393e-07 -2.0058e-07 0)
(4.65369e-07 -2.00688e-07 0)
(4.65242e-07 -2.00821e-07 0)
(4.6512e-07 -2.00939e-07 0)
(4.65192e-07 -2.00986e-07 0)
(4.65456e-07 -2.00994e-07 0)
(4.65745e-07 -2.01038e-07 0)
(4.65972e-07 -2.01153e-07 0)
(4.66126e-07 -2.01342e-07 0)
(4.68399e-07 -2.03205e-07 0)
(4.68616e-07 -2.0335e-07 0)
(4.68697e-07 -2.03512e-07 0)
(4.68668e-07 -2.03684e-07 0)
(4.6863e-07 -2.03826e-07 0)
(4.6875e-07 -2.03897e-07 0)
(4.69043e-07 -2.03935e-07 0)
(4.69381e-07 -2.04012e-07 0)
(4.69687e-07 -2.04162e-07 0)
(4.69946e-07 -2.04391e-07 0)
(4.7336e-07 -2.06776e-07 0)
(4.7366e-07 -2.06968e-07 0)
(4.73817e-07 -2.07168e-07 0)
(4.73861e-07 -2.07364e-07 0)
(4.73889e-07 -2.07522e-07 0)
(4.7405e-07 -2.07613e-07 0)
(4.74372e-07 -2.07674e-07 0)
(4.74756e-07 -2.07777e-07 0)
(4.7513e-07 -2.07952e-07 0)
(4.75478e-07 -2.08207e-07 0)
(4.77776e-07 -2.12027e-07 0)
(4.78114e-07 -2.12262e-07 0)
(4.7836e-07 -2.12466e-07 0)
(4.78521e-07 -2.12639e-07 0)
(4.786e-07 -2.12795e-07 0)
(4.78597e-07 -2.12975e-07 0)
(4.78519e-07 -2.13228e-07 0)
(4.78375e-07 -2.13562e-07 0)
(4.78172e-07 -2.13963e-07 0)
(4.7792e-07 -2.1441e-07 0)
(5.28579e-07 -2.32093e-07 0)
(5.28919e-07 -2.32264e-07 0)
(5.29362e-07 -2.32548e-07 0)
(5.30024e-07 -2.33039e-07 0)
(5.31101e-07 -2.33863e-07 0)
(5.30935e-07 -2.33774e-07 0)
(5.29127e-07 -2.32574e-07 0)
(5.27368e-07 -2.31522e-07 0)
(5.2555e-07 -2.30531e-07 0)
(5.23543e-07 -2.29495e-07 0)
(5.08178e-07 -2.21207e-07 0)
(5.06464e-07 -2.20239e-07 0)
(5.04979e-07 -2.19449e-07 0)
(5.03618e-07 -2.1881e-07 0)
(5.0237e-07 -2.18338e-07 0)
(5.02124e-07 -2.18198e-07 0)
(5.02159e-07 -2.1802e-07 0)
(5.01675e-07 -2.17666e-07 0)
(5.00813e-07 -2.17186e-07 0)
(4.99617e-07 -2.16575e-07 0)
(4.86221e-07 -2.09399e-07 0)
(4.85101e-07 -2.0876e-07 0)
(4.84095e-07 -2.08231e-07 0)
(4.83128e-07 -2.07793e-07 0)
(4.82195e-07 -2.07452e-07 0)
(4.82056e-07 -2.07372e-07 0)
(4.82219e-07 -2.07327e-07 0)
(4.8201e-07 -2.07171e-07 0)
(4.81525e-07 -2.06942e-07 0)
(4.80808e-07 -2.06641e-07 0)
(4.72953e-07 -2.02913e-07 0)
(4.72292e-07 -2.02588e-07 0)
(4.71664e-07 -2.02325e-07 0)
(4.7102e-07 -2.02118e-07 0)
(4.7036e-07 -2.0197e-07 0)
(4.70297e-07 -2.01932e-07 0)
(4.7052e-07 -2.01898e-07 0)
(4.70491e-07 -2.01825e-07 0)
(4.70269e-07 -2.01728e-07 0)
(4.69891e-07 -2.01607e-07 0)
(4.65899e-07 -2.00104e-07 0)
(4.65556e-07 -1.99962e-07 0)
(4.65195e-07 -1.9985e-07 0)
(4.64775e-07 -1.99764e-07 0)
(4.64303e-07 -1.99704e-07 0)
(4.64297e-07 -1.99696e-07 0)
(4.64572e-07 -1.99708e-07 0)
(4.64682e-07 -1.9972e-07 0)
(4.64659e-07 -1.99736e-07 0)
(4.64536e-07 -1.99759e-07 0)
(4.63289e-07 -1.99805e-07 0)
(4.63184e-07 -1.99808e-07 0)
(4.63021e-07 -1.99818e-07 0)
(4.62773e-07 -1.99836e-07 0)
(4.62444e-07 -1.99855e-07 0)
(4.62481e-07 -1.99867e-07 0)
(4.62792e-07 -1.999e-07 0)
(4.63005e-07 -1.99962e-07 0)
(4.63133e-07 -2.00052e-07 0)
(4.63203e-07 -2.00169e-07 0)
(4.63952e-07 -2.01261e-07 0)
(4.64024e-07 -2.01362e-07 0)
(4.64011e-07 -2.01453e-07 0)
(4.63892e-07 -2.01535e-07 0)
(4.63671e-07 -2.01599e-07 0)
(4.63741e-07 -2.01628e-07 0)
(4.64081e-07 -2.01685e-07 0)
(4.64376e-07 -2.01789e-07 0)
(4.64622e-07 -2.01936e-07 0)
(4.64843e-07 -2.02125e-07 0)
(4.67058e-07 -2.03949e-07 0)
(4.67267e-07 -2.04123e-07 0)
(4.67373e-07 -2.04275e-07 0)
(4.67358e-07 -2.04407e-07 0)
(4.67226e-07 -2.04505e-07 0)
(4.67322e-07 -2.04546e-07 0)
(4.67678e-07 -2.04619e-07 0)
(4.68029e-07 -2.04753e-07 0)
(4.68362e-07 -2.04941e-07 0)
(4.68696e-07 -2.05181e-07 0)
(4.72015e-07 -2.07507e-07 0)
(4.72326e-07 -2.07732e-07 0)
(4.72518e-07 -2.07927e-07 0)
(4.72576e-07 -2.08094e-07 0)
(4.72504e-07 -2.08214e-07 0)
(4.72624e-07 -2.08265e-07 0)
(4.73006e-07 -2.08351e-07 0)
(4.73413e-07 -2.08507e-07 0)
(4.73827e-07 -2.08725e-07 0)
(4.74262e-07 -2.09002e-07 0)
(4.76489e-07 -2.12743e-07 0)
(4.76897e-07 -2.12997e-07 0)
(4.77303e-07 -2.13145e-07 0)
(4.77745e-07 -2.13161e-07 0)
(4.78188e-07 -2.13047e-07 0)
(4.78105e-07 -2.13211e-07 0)
(4.77631e-07 -2.13736e-07 0)
(4.77187e-07 -2.14322e-07 0)
(4.76781e-07 -2.14928e-07 0)
(4.76393e-07 -2.1555e-07 0)
(5.26952e-07 -2.32811e-07 0)
(5.27287e-07 -2.32984e-07 0)
(5.2785e-07 -2.33215e-07 0)
(5.28826e-07 -2.33567e-07 0)
(5.30459e-07 -2.34146e-07 0)
(5.30296e-07 -2.34056e-07 0)
(5.27975e-07 -2.33082e-07 0)
(5.25977e-07 -2.32135e-07 0)
(5.24126e-07 -2.31159e-07 0)
(5.22214e-07 -2.30081e-07 0)
(5.06927e-07 -2.21837e-07 0)
(5.05142e-07 -2.20906e-07 0)
(5.03702e-07 -2.20093e-07 0)
(5.02565e-07 -2.19341e-07 0)
(5.01768e-07 -2.18641e-07 0)
(5.01508e-07 -2.18509e-07 0)
(5.01105e-07 -2.18551e-07 0)
(5.00409e-07 -2.18304e-07 0)
(4.99504e-07 -2.17845e-07 0)
(4.98377e-07 -2.172e-07 0)
(4.8495e-07 -2.10086e-07 0)
(4.8378e-07 -2.09474e-07 0)
(4.8284e-07 -2.0891e-07 0)
(4.82106e-07 -2.08345e-07 0)
(4.81607e-07 -2.0777e-07 0)
(4.81441e-07 -2.07704e-07 0)
(4.81186e-07 -2.07885e-07 0)
(4.80761e-07 -2.07846e-07 0)
(4.80219e-07 -2.07648e-07 0)
(4.79552e-07 -2.0732e-07 0)
(4.71681e-07 -2.0363e-07 0)
(4.70987e-07 -2.03324e-07 0)
(4.70441e-07 -2.03015e-07 0)
(4.70035e-07 -2.02673e-07 0)
(4.69785e-07 -2.02294e-07 0)
(4.69688e-07 -2.02275e-07 0)
(4.69515e-07 -2.02464e-07 0)
(4.69269e-07 -2.02513e-07 0)
(4.68978e-07 -2.02455e-07 0)
(4.68637e-07 -2.02314e-07 0)
(4.64637e-07 -2.00833e-07 0)
(4.64278e-07 -2.00701e-07 0)
(4.64009e-07 -2.00535e-07 0)
(4.63828e-07 -2.00311e-07 0)
(4.63742e-07 -2.00029e-07 0)
(4.63696e-07 -2.00044e-07 0)
(4.63598e-07 -2.00271e-07 0)
(4.63493e-07 -2.00407e-07 0)
(4.63393e-07 -2.00468e-07 0)
(4.63295e-07 -2.00477e-07 0)
(4.62044e-07 -2.00536e-07 0)
(4.61935e-07 -2.00541e-07 0)
(4.61873e-07 -2.00492e-07 0)
(4.61862e-07 -2.00371e-07 0)
(4.61895e-07 -2.00177e-07 0)
(4.61887e-07 -2.00216e-07 0)
(4.61848e-07 -2.00454e-07 0)
(4.61849e-07 -2.00641e-07 0)
(4.61894e-07 -2.00779e-07 0)
(4.61979e-07 -2.00888e-07 0)
(4.62727e-07 -2.01987e-07 0)
(4.62805e-07 -2.02083e-07 0)
(4.629e-07 -2.02111e-07 0)
(4.63014e-07 -2.02055e-07 0)
(4.63132e-07 -2.01918e-07 0)
(4.63154e-07 -2.01975e-07 0)
(4.63165e-07 -2.02227e-07 0)
(4.63252e-07 -2.02454e-07 0)
(4.63411e-07 -2.02653e-07 0)
(4.63639e-07 -2.02838e-07 0)
(4.65854e-07 -2.04665e-07 0)
(4.66079e-07 -2.04829e-07 0)
(4.66296e-07 -2.04915e-07 0)
(4.6651e-07 -2.04911e-07 0)
(4.66695e-07 -2.0482e-07 0)
(4.66742e-07 -2.04891e-07 0)
(4.66788e-07 -2.05148e-07 0)
(4.66936e-07 -2.05403e-07 0)
(4.67179e-07 -2.05644e-07 0)
(4.67513e-07 -2.05885e-07 0)
(4.70833e-07 -2.0821e-07 0)
(4.71167e-07 -2.08422e-07 0)
(4.71473e-07 -2.08549e-07 0)
(4.71755e-07 -2.08583e-07 0)
(4.7198e-07 -2.08526e-07 0)
(4.72049e-07 -2.08607e-07 0)
(4.72137e-07 -2.08868e-07 0)
(4.72348e-07 -2.09141e-07 0)
(4.7267e-07 -2.09413e-07 0)
(4.73099e-07 -2.09694e-07 0)
(4.75306e-07 -2.1348e-07 0)
(4.75738e-07 -2.13724e-07 0)
(4.76256e-07 -2.13807e-07 0)
(4.76916e-07 -2.1369e-07 0)
(4.77641e-07 -2.13402e-07 0)
(4.77494e-07 -2.13617e-07 0)
(4.76705e-07 -2.14371e-07 0)
(4.76016e-07 -2.15159e-07 0)
(4.75445e-07 -2.15936e-07 0)
(4.74948e-07 -2.1672e-07 0)
(5.25249e-07 -2.33528e-07 0)
(5.25503e-07 -2.33698e-07 0)
(5.26024e-07 -2.33855e-07 0)
(5.26892e-07 -2.34001e-07 0)
(5.27852e-07 -2.34108e-07 0)
(5.27605e-07 -2.33959e-07 0)
(5.26002e-07 -2.33437e-07 0)
(5.24242e-07 -2.32698e-07 0)
(5.22582e-07 -2.31797e-07 0)
(5.20913e-07 -2.30729e-07 0)
(5.0554e-07 -2.22443e-07 0)
(5.03746e-07 -2.21611e-07 0)
(5.02386e-07 -2.20857e-07 0)
(5.01459e-07 -2.20147e-07 0)
(5.00924e-07 -2.1956e-07 0)
(5.00479e-07 -2.19325e-07 0)
(4.99816e-07 -2.19256e-07 0)
(4.99027e-07 -2.19022e-07 0)
(4.98166e-07 -2.18569e-07 0)
(4.97191e-07 -2.1791e-07 0)
(4.8356e-07 -2.10773e-07 0)
(4.82382e-07 -2.10246e-07 0)
(4.81518e-07 -2.09729e-07 0)
(4.80969e-07 -2.09204e-07 0)
(4.80676e-07 -2.0876e-07 0)
(4.80381e-07 -2.0862e-07 0)
(4.79913e-07 -2.08673e-07 0)
(4.79388e-07 -2.08631e-07 0)
(4.78863e-07 -2.08428e-07 0)
(4.78314e-07 -2.08073e-07 0)
(4.70304e-07 -2.04373e-07 0)
(4.69597e-07 -2.04128e-07 0)
(4.69116e-07 -2.03845e-07 0)
(4.6886e-07 -2.0352e-07 0)
(4.68755e-07 -2.03235e-07 0)
(4.68578e-07 -2.03172e-07 0)
(4.6825e-07 -2.03271e-07 0)
(4.6791e-07 -2.03322e-07 0)
(4.67618e-07 -2.03259e-07 0)
(4.67363e-07 -2.03087e-07 0)
(4.63282e-07 -2.01608e-07 0)
(4.62904e-07 -2.0152e-07 0)
(4.62689e-07 -2.01369e-07 0)
(4.62631e-07 -2.01157e-07 0)
(4.62649e-07 -2.00966e-07 0)
(4.62563e-07 -2.00957e-07 0)
(4.6235e-07 -2.01102e-07 0)
(4.62155e-07 -2.01231e-07 0)
(4.62038e-07 -2.01282e-07 0)
(4.61998e-07 -2.01253e-07 0)
(4.60715e-07 -2.0133e-07 0)
(4.6058e-07 -2.01364e-07 0)
(4.6056e-07 -2.01317e-07 0)
(4.60644e-07 -2.012e-07 0)
(4.60752e-07 -2.01087e-07 0)
(4.60738e-07 -2.0112e-07 0)
(4.60618e-07 -2.0129e-07 0)
(4.60534e-07 -2.01467e-07 0)
(4.60549e-07 -2.01591e-07 0)
(4.60667e-07 -2.01659e-07 0)
(4.61425e-07 -2.02792e-07 0)
(4.6147e-07 -2.02903e-07 0)
(4.61593e-07 -2.02924e-07 0)
(4.6178e-07 -2.02871e-07 0)
(4.61952e-07 -2.02814e-07 0)
(4.61997e-07 -2.02878e-07 0)
(4.61954e-07 -2.03068e-07 0)
(4.61959e-07 -2.0328e-07 0)
(4.62077e-07 -2.03459e-07 0)
(4.62315e-07 -2.03598e-07 0)
(4.64579e-07 -2.05476e-07 0)
(4.6476e-07 -2.05642e-07 0)
(4.64993e-07 -2.05715e-07 0)
(4.65257e-07 -2.05711e-07 0)
(4.65479e-07 -2.05699e-07 0)
(4.65571e-07 -2.05787e-07 0)
(4.65589e-07 -2.05989e-07 0)
(4.65662e-07 -2.06223e-07 0)
(4.65855e-07 -2.0644e-07 0)
(4.66179e-07 -2.0663e-07 0)
(4.69584e-07 -2.09024e-07 0)
(4.69865e-07 -2.09227e-07 0)
(4.70175e-07 -2.09336e-07 0)
(4.70492e-07 -2.0937e-07 0)
(4.7075e-07 -2.09391e-07 0)
(4.70884e-07 -2.09497e-07 0)
(4.70958e-07 -2.09707e-07 0)
(4.71094e-07 -2.09956e-07 0)
(4.71355e-07 -2.10199e-07 0)
(4.71754e-07 -2.10425e-07 0)
(4.73978e-07 -2.14388e-07 0)
(4.74295e-07 -2.14649e-07 0)
(4.74675e-07 -2.14786e-07 0)
(4.7507e-07 -2.14835e-07 0)
(4.75327e-07 -2.14908e-07 0)
(4.75252e-07 -2.15181e-07 0)
(4.74868e-07 -2.15705e-07 0)
(4.74371e-07 -2.16385e-07 0)
(4.73883e-07 -2.17147e-07 0)
(4.73432e-07 -2.17976e-07 0)
(5.2342e-07 -2.34281e-07 0)
(5.23483e-07 -2.34477e-07 0)
(5.23776e-07 -2.3461e-07 0)
(5.24286e-07 -2.34656e-07 0)
(5.24707e-07 -2.34599e-07 0)
(5.24432e-07 -2.34404e-07 0)
(5.23399e-07 -2.34006e-07 0)
(5.22121e-07 -2.33376e-07 0)
(5.2085e-07 -2.32525e-07 0)
(5.19564e-07 -2.31477e-07 0)
(5.0394e-07 -2.23063e-07 0)
(5.02127e-07 -2.22394e-07 0)
(5.00761e-07 -2.21783e-07 0)
(4.99832e-07 -2.21212e-07 0)
(4.99224e-07 -2.2074e-07 0)
(4.98678e-07 -2.20445e-07 0)
(4.98038e-07 -2.20232e-07 0)
(4.97358e-07 -2.19919e-07 0)
(4.96679e-07 -2.19423e-07 0)
(4.9596e-07 -2.1874e-07 0)
(4.81954e-07 -2.1151e-07 0)
(4.80738e-07 -2.11128e-07 0)
(4.79849e-07 -2.10743e-07 0)
(4.79272e-07 -2.10354e-07 0)
(4.78902e-07 -2.10029e-07 0)
(4.78545e-07 -2.09849e-07 0)
(4.78119e-07 -2.09761e-07 0)
(4.77692e-07 -2.09622e-07 0)
(4.77317e-07 -2.09355e-07 0)
(4.76974e-07 -2.08949e-07 0)
(4.68708e-07 -2.05201e-07 0)
(4.6794e-07 -2.05072e-07 0)
(4.67411e-07 -2.04896e-07 0)
(4.67102e-07 -2.04683e-07 0)
(4.66914e-07 -2.04497e-07 0)
(4.66706e-07 -2.04411e-07 0)
(4.6644e-07 -2.04398e-07 0)
(4.66195e-07 -2.04357e-07 0)
(4.66028e-07 -2.04224e-07 0)
(4.65938e-07 -2.03988e-07 0)
(4.61702e-07 -2.025e-07 0)
(4.61245e-07 -2.02506e-07 0)
(4.60964e-07 -2.02446e-07 0)
(4.60835e-07 -2.02336e-07 0)
(4.60775e-07 -2.02237e-07 0)
(4.6068e-07 -2.02216e-07 0)
(4.60539e-07 -2.02261e-07 0)
(4.60431e-07 -2.02297e-07 0)
(4.60417e-07 -2.02268e-07 0)
(4.60505e-07 -2.02163e-07 0)
(4.59153e-07 -2.0227e-07 0)
(4.58922e-07 -2.02376e-07 0)
(4.5882e-07 -2.02405e-07 0)
(4.58822e-07 -2.02376e-07 0)
(4.58856e-07 -2.02347e-07 0)
(4.58849e-07 -2.02375e-07 0)
(4.58807e-07 -2.0246e-07 0)
(4.58805e-07 -2.02545e-07 0)
(4.58902e-07 -2.02586e-07 0)
(4.59114e-07 -2.02569e-07 0)
(4.59882e-07 -2.03768e-07 0)
(4.59816e-07 -2.03934e-07 0)
(4.59843e-07 -2.04019e-07 0)
(4.5994e-07 -2.04045e-07 0)
(4.60046e-07 -2.04065e-07 0)
(4.60109e-07 -2.04129e-07 0)
(4.60145e-07 -2.04243e-07 0)
(4.60226e-07 -2.04365e-07 0)
(4.60407e-07 -2.04456e-07 0)
(4.60709e-07 -2.04503e-07 0)
(4.63054e-07 -2.0648e-07 0)
(4.6311e-07 -2.06685e-07 0)
(4.63234e-07 -2.06811e-07 0)
(4.63401e-07 -2.06879e-07 0)
(4.63562e-07 -2.06936e-07 0)
(4.6368e-07 -2.07028e-07 0)
(4.63778e-07 -2.07162e-07 0)
(4.6392e-07 -2.07308e-07 0)
(4.64163e-07 -2.07435e-07 0)
(4.64524e-07 -2.07527e-07 0)
(4.68075e-07 -2.10052e-07 0)
(4.68219e-07 -2.10281e-07 0)
(4.68412e-07 -2.10434e-07 0)
(4.68631e-07 -2.10532e-07 0)
(4.68835e-07 -2.10616e-07 0)
(4.68998e-07 -2.10729e-07 0)
(4.69149e-07 -2.10878e-07 0)
(4.69346e-07 -2.1104e-07 0)
(4.6964e-07 -2.1119e-07 0)
(4.70051e-07 -2.11314e-07 0)
(4.72354e-07 -2.15547e-07 0)
(4.72478e-07 -2.15854e-07 0)
(4.72643e-07 -2.16088e-07 0)
(4.72799e-07 -2.16285e-07 0)
(4.72877e-07 -2.1651e-07 0)
(4.72817e-07 -2.16826e-07 0)
(4.72626e-07 -2.17263e-07 0)
(4.72361e-07 -2.17811e-07 0)
(4.72083e-07 -2.18455e-07 0)
(4.71822e-07 -2.19197e-07 0)
(5.21451e-07 -2.35095e-07 0)
(5.21212e-07 -2.35373e-07 0)
(5.21138e-07 -2.35567e-07 0)
(5.21213e-07 -2.35639e-07 0)
(5.21256e-07 -2.35569e-07 0)
(5.21001e-07 -2.35344e-07 0)
(5.20412e-07 -2.34927e-07 0)
(5.19678e-07 -2.3428e-07 0)
(5.1892e-07 -2.33408e-07 0)
(5.18118e-07 -2.32349e-07 0)
(5.02079e-07 -2.23725e-07 0)
(5.00179e-07 -2.23272e-07 0)
(4.98679e-07 -2.22864e-07 0)
(4.97589e-07 -2.22475e-07 0)
(4.9683e-07 -2.22116e-07 0)
(4.9625e-07 -2.21797e-07 0)
(4.95755e-07 -2.21465e-07 0)
(4.95332e-07 -2.2103e-07 0)
(4.94966e-07 -2.20443e-07 0)
(4.94598e-07 -2.19704e-07 0)
(4.80072e-07 -2.12333e-07 0)
(4.78738e-07 -2.12147e-07 0)
(4.77699e-07 -2.11951e-07 0)
(4.7696e-07 -2.11735e-07 0)
(4.76456e-07 -2.11518e-07 0)
(4.76085e-07 -2.11324e-07 0)
(4.75795e-07 -2.11122e-07 0)
(4.75596e-07 -2.1085e-07 0)
(4.75491e-07 -2.10468e-07 0)
(4.75444e-07 -2.09974e-07 0)
(4.6682e-07 -2.06158e-07 0)
(4.65908e-07 -2.06194e-07 0)
(4.65215e-07 -2.0618e-07 0)
(4.6474e-07 -2.06114e-07 0)
(4.64432e-07 -2.06022e-07 0)
(4.64222e-07 -2.05927e-07 0)
(4.64085e-07 -2.05816e-07 0)
(4.64043e-07 -2.05648e-07 0)
(4.6411e-07 -2.05394e-07 0)
(4.64267e-07 -2.05053e-07 0)
(4.59812e-07 -2.03554e-07 0)
(4.59193e-07 -2.03702e-07 0)
(4.58739e-07 -2.03783e-07 0)
(4.58448e-07 -2.03804e-07 0)
(4.58281e-07 -2.03788e-07 0)
(4.5819e-07 -2.0376e-07 0)
(4.58167e-07 -2.03717e-07 0)
(4.58239e-07 -2.03629e-07 0)
(4.58425e-07 -2.03474e-07 0)
(4.58716e-07 -2.03251e-07 0)
(4.57263e-07 -2.03405e-07 0)
(4.56856e-07 -2.03627e-07 0)
(4.56577e-07 -2.03777e-07 0)
(4.56421e-07 -2.03861e-07 0)
(4.56359e-07 -2.03903e-07 0)
(4.56359e-07 -2.03926e-07 0)
(4.56423e-07 -2.03931e-07 0)
(4.56578e-07 -2.03899e-07 0)
(4.56846e-07 -2.03814e-07 0)
(4.57223e-07 -2.03673e-07 0)
(4.57993e-07 -2.04966e-07 0)
(4.5774e-07 -2.05228e-07 0)
(4.57589e-07 -2.05417e-07 0)
(4.57534e-07 -2.05541e-07 0)
(4.57551e-07 -2.05622e-07 0)
(4.57622e-07 -2.05681e-07 0)
(4.57752e-07 -2.05721e-07 0)
(4.57969e-07 -2.05731e-07 0)
(4.58293e-07 -2.05697e-07 0)
(4.58726e-07 -2.05617e-07 0)
(4.61163e-07 -2.07729e-07 0)
(4.61026e-07 -2.08014e-07 0)
(4.6097e-07 -2.08227e-07 0)
(4.6099e-07 -2.08378e-07 0)
(4.61068e-07 -2.08487e-07 0)
(4.61193e-07 -2.08573e-07 0)
(4.61372e-07 -2.0864e-07 0)
(4.61633e-07 -2.0868e-07 0)
(4.61994e-07 -2.08683e-07 0)
(4.62458e-07 -2.08646e-07 0)
(4.66181e-07 -2.11346e-07 0)
(4.66128e-07 -2.11639e-07 0)
(4.66143e-07 -2.11866e-07 0)
(4.66219e-07 -2.12035e-07 0)
(4.66345e-07 -2.12163e-07 0)
(4.66512e-07 -2.12267e-07 0)
(4.66733e-07 -2.12352e-07 0)
(4.67028e-07 -2.12414e-07 0)
(4.67418e-07 -2.12444e-07 0)
(4.67905e-07 -2.12439e-07 0)
(4.70358e-07 -2.16968e-07 0)
(4.70272e-07 -2.17338e-07 0)
(4.70232e-07 -2.17658e-07 0)
(4.70217e-07 -2.17946e-07 0)
(4.70204e-07 -2.18231e-07 0)
(4.70171e-07 -2.1854e-07 0)
(4.70122e-07 -2.18893e-07 0)
(4.70075e-07 -2.19298e-07 0)
(4.7005e-07 -2.19761e-07 0)
(4.70059e-07 -2.20296e-07 0)
(5.19363e-07 -2.35979e-07 0)
(5.18721e-07 -2.36404e-07 0)
(5.18169e-07 -2.36757e-07 0)
(5.17753e-07 -2.36971e-07 0)
(5.17469e-07 -2.36981e-07 0)
(5.17265e-07 -2.3674e-07 0)
(5.17102e-07 -2.36227e-07 0)
(5.16963e-07 -2.35456e-07 0)
(5.16803e-07 -2.34475e-07 0)
(5.16554e-07 -2.33348e-07 0)
(4.99956e-07 -2.24448e-07 0)
(4.97858e-07 -2.24253e-07 0)
(4.9608e-07 -2.24102e-07 0)
(4.94698e-07 -2.23942e-07 0)
(4.9374e-07 -2.23724e-07 0)
(4.93177e-07 -2.23409e-07 0)
(4.9293e-07 -2.22962e-07 0)
(4.92902e-07 -2.22368e-07 0)
(4.9298e-07 -2.21636e-07 0)
(4.93056e-07 -2.20796e-07 0)
(4.77899e-07 -2.13259e-07 0)
(4.76336e-07 -2.13317e-07 0)
(4.75015e-07 -2.13364e-07 0)
(4.74e-07 -2.13361e-07 0)
(4.73323e-07 -2.13274e-07 0)
(4.72971e-07 -2.13081e-07 0)
(4.72899e-07 -2.12768e-07 0)
(4.73045e-07 -2.12329e-07 0)
(4.7333e-07 -2.11779e-07 0)
(4.73671e-07 -2.11148e-07 0)
(4.64613e-07 -2.07264e-07 0)
(4.6345e-07 -2.07514e-07 0)
(4.62473e-07 -2.07717e-07 0)
(4.61739e-07 -2.07839e-07 0)
(4.61277e-07 -2.07858e-07 0)
(4.61084e-07 -2.07762e-07 0)
(4.61137e-07 -2.07547e-07 0)
(4.61397e-07 -2.07216e-07 0)
(4.61806e-07 -2.06789e-07 0)
(4.62301e-07 -2.06293e-07 0)
(4.57575e-07 -2.04795e-07 0)
(4.56692e-07 -2.05133e-07 0)
(4.55961e-07 -2.05407e-07 0)
(4.55428e-07 -2.05592e-07 0)
(4.55122e-07 -2.05672e-07 0)
(4.55045e-07 -2.0564e-07 0)
(4.55186e-07 -2.05498e-07 0)
(4.55518e-07 -2.05255e-07 0)
(4.56002e-07 -2.04926e-07 0)
(4.56585e-07 -2.04538e-07 0)
(4.54997e-07 -2.04758e-07 0)
(4.5432e-07 -2.05148e-07 0)
(4.53772e-07 -2.05466e-07 0)
(4.53391e-07 -2.05691e-07 0)
(4.53201e-07 -2.05813e-07 0)
(4.5321e-07 -2.05828e-07 0)
(4.53413e-07 -2.05742e-07 0)
(4.53793e-07 -2.05563e-07 0)
(4.54319e-07 -2.05307e-07 0)
(4.54949e-07 -2.04997e-07 0)
(4.55698e-07 -2.0641e-07 0)
(4.55175e-07 -2.06818e-07 0)
(4.54764e-07 -2.07154e-07 0)
(4.54497e-07 -2.07399e-07 0)
(4.54396e-07 -2.07546e-07 0)
(4.5447e-07 -2.07594e-07 0)
(4.54717e-07 -2.07549e-07 0)
(4.55127e-07 -2.07419e-07 0)
(4.55675e-07 -2.0722e-07 0)
(4.56325e-07 -2.06972e-07 0)
(4.58838e-07 -2.09249e-07 0)
(4.58432e-07 -2.0966e-07 0)
(4.58126e-07 -2.10001e-07 0)
(4.57947e-07 -2.10255e-07 0)
(4.57913e-07 -2.10418e-07 0)
(4.58034e-07 -2.1049e-07 0)
(4.58312e-07 -2.10475e-07 0)
(4.58737e-07 -2.10384e-07 0)
(4.59291e-07 -2.10229e-07 0)
(4.59944e-07 -2.10028e-07 0)
(4.63822e-07 -2.1293e-07 0)
(4.63506e-07 -2.13334e-07 0)
(4.6328e-07 -2.13671e-07 0)
(4.63168e-07 -2.13927e-07 0)
(4.63187e-07 -2.14099e-07 0)
(4.63345e-07 -2.14186e-07 0)
(4.63645e-07 -2.14194e-07 0)
(4.6408e-07 -2.14132e-07 0)
(4.64635e-07 -2.14011e-07 0)
(4.65283e-07 -2.13846e-07 0)
(4.6794e-07 -2.18647e-07 0)
(4.67615e-07 -2.19106e-07 0)
(4.6736e-07 -2.19515e-07 0)
(4.67188e-07 -2.19871e-07 0)
(4.67105e-07 -2.20176e-07 0)
(4.67114e-07 -2.2044e-07 0)
(4.67212e-07 -2.20678e-07 0)
(4.67394e-07 -2.20904e-07 0)
(4.6765e-07 -2.21135e-07 0)
(4.67963e-07 -2.21391e-07 0)
(4.84789e-07 -2.51139e-07 0)
(4.85767e-07 -2.50863e-07 0)
(4.86581e-07 -2.50627e-07 0)
(4.87084e-07 -2.50451e-07 0)
(4.87135e-07 -2.50337e-07 0)
(4.86639e-07 -2.50264e-07 0)
(4.85553e-07 -2.50219e-07 0)
(4.8391e-07 -2.50193e-07 0)
(4.81821e-07 -2.50168e-07 0)
(4.79428e-07 -2.50112e-07 0)
(4.6078e-07 -2.4326e-07 0)
(4.60415e-07 -2.42351e-07 0)
(4.60134e-07 -2.41579e-07 0)