/*--------------------------------*- C++ -*----------------------------------*\
| =========                 |                                                 |
| \\      /  F ield         | foam-extend: Open Source CFD                    |
|  \\    /   O peration     | Version:     4.1                                |
|   \\  /    A nd           | Web:         http://www.foam-extend.org         |
|    \\/     M anipulation  |                                                 |
\*---------------------------------------------------------------------------*/
FoamFile
{
    version     2.0;
    format      ascii;
    class       vectorField;
    location    "2";
    object      solidsCellD_iteration6;
}
// * * * * * * * * * * * * * * * * * * * * * * * * * * * * * * * * * * * * * //


1000
(
(9.20667e-07 -3.17381e-07 0)
(8.77293e-07 -2.9979e-07 0)
(8.51144e-07 -2.90517e-07 0)
(8.37745e-07 -2.88556e-07 0)
(8.33272e-07 -2.90975e-07 0)
(8.35412e-07 -2.96712e-07 0)
(8.42415e-07 -3.04702e-07 0)
(8.5297e-07 -3.14515e-07 0)
(8.664e-07 -3.25432e-07 0)
(8.80316e-07 -3.37544e-07 0)
(8.338e-07 -3.46877e-07 0)
(7.87517e-07 -3.36537e-07 0)
(7.59327e-07 -3.31977e-07 0)
(7.44343e-07 -3.33301e-07 0)
(7.38434e-07 -3.37979e-07 0)
(7.39061e-07 -3.45362e-07 0)
(7.44483e-07 -3.54541e-07 0)
(7.53334e-07 -3.65224e-07 0)
(7.6486e-07 -3.76709e-07 0)
(7.77274e-07 -3.89314e-07 0)
(7.4306e-07 -3.74788e-07 0)
(6.9568e-07 -3.72523e-07 0)
(6.66672e-07 -3.7312e-07 0)
(6.50813e-07 -3.77934e-07 0)
(6.43986e-07 -3.8491e-07 0)
(6.43524e-07 -3.93878e-07 0)
(6.47716e-07 -4.04148e-07 0)
(6.55295e-07 -4.15501e-07 0)
(6.65436e-07 -4.27418e-07 0)
(6.76714e-07 -4.40124e-07 0)
(6.49228e-07 -4.00624e-07 0)
(6.0282e-07 -4.06762e-07 0)
(5.74272e-07 -4.12691e-07 0)
(5.58322e-07 -4.21055e-07 0)
(5.51058e-07 -4.30366e-07 0)
(5.49887e-07 -4.40886e-07 0)
(5.53097e-07 -4.52168e-07 0)
(5.59569e-07 -4.64145e-07 0)
(5.68469e-07 -4.76506e-07 0)
(5.78616e-07 -4.89382e-07 0)
(5.53009e-07 -4.23857e-07 0)
(5.09538e-07 -4.38273e-07 0)
(4.82673e-07 -4.49475e-07 0)
(4.6749e-07 -4.61318e-07 0)
(4.60347e-07 -4.72859e-07 0)
(4.58752e-07 -4.84869e-07 0)
(4.61178e-07 -4.97122e-07 0)
(4.66583e-07 -5.09712e-07 0)
(4.74267e-07 -5.22512e-07 0)
(4.83144e-07 -5.35622e-07 0)
(4.54781e-07 -4.44052e-07 0)
(4.16186e-07 -4.66176e-07 0)
(3.92311e-07 -4.82274e-07 0)
(3.78669e-07 -4.97366e-07 0)
(3.7208e-07 -5.11004e-07 0)
(3.70302e-07 -5.24401e-07 0)
(3.72122e-07 -5.37527e-07 0)
(3.76553e-07 -5.50699e-07 0)
(3.82973e-07 -5.63926e-07 0)
(3.9043e-07 -5.7731e-07 0)
(3.55134e-07 -4.6073e-07 0)
(3.23118e-07 -4.89612e-07 0)
(3.03286e-07 -5.10008e-07 0)
(2.91861e-07 -5.27933e-07 0)
(2.86241e-07 -5.43384e-07 0)
(2.846e-07 -5.57997e-07 0)
(2.85932e-07 -5.71901e-07 0)
(2.89382e-07 -5.85607e-07 0)
(2.94446e-07 -5.99229e-07 0)
(3.00354e-07 -6.12885e-07 0)
(2.54413e-07 -4.73573e-07 0)
(2.30392e-07 -5.07881e-07 0)
(2.15524e-07 -5.31708e-07 0)
(2.06961e-07 -5.51873e-07 0)
(2.02692e-07 -5.68802e-07 0)
(2.01376e-07 -5.84389e-07 0)
(2.02263e-07 -5.98939e-07 0)
(2.04719e-07 -6.13076e-07 0)
(2.08374e-07 -6.27012e-07 0)
(2.12642e-07 -6.40894e-07 0)
(1.52948e-07 -4.82291e-07 0)
(1.38092e-07 -5.20374e-07 0)
(1.28907e-07 -5.46593e-07 0)
(1.23554e-07 -5.68374e-07 0)
(1.20845e-07 -5.86335e-07 0)
(1.19998e-07 -6.02582e-07 0)
(1.20536e-07 -6.17593e-07 0)
(1.22018e-07 -6.32074e-07 0)
(1.24206e-07 -6.4627e-07 0)
(1.26778e-07 -6.60338e-07 0)
(5.10886e-08 -4.86687e-07 0)
(4.60449e-08 -5.2672e-07 0)
(4.28976e-08 -5.54177e-07 0)
(4.10929e-08 -5.76763e-07 0)
(4.02025e-08 -5.95239e-07 0)
(3.98921e-08 -6.11839e-07 0)
(4.00314e-08 -6.2707e-07 0)
(4.05249e-08 -6.41702e-07 0)
(4.12672e-08 -6.56016e-07 0)
(4.21211e-08 -6.70172e-07 0)
(1.42029e-06 -1.44119e-08 0)
(1.43153e-06 -1.05281e-08 0)
(1.44018e-06 -8.16035e-09 0)
(1.45031e-06 -6.86691e-09 0)
(1.46213e-06 -6.26077e-09 0)
(1.47639e-06 -6.12417e-09 0)
(1.4931e-06 -6.28969e-09 0)
(1.51216e-06 -6.64807e-09 0)
(1.53359e-06 -7.18933e-09 0)
(1.5571e-06 -7.79885e-09 0)
(1.4102e-06 -4.3263e-08 0)
(1.41961e-06 -3.18442e-08 0)
(1.42713e-06 -2.4892e-08 0)
(1.43647e-06 -2.11406e-08 0)
(1.44776e-06 -1.94051e-08 0)
(1.46162e-06 -1.89887e-08 0)
(1.47808e-06 -1.95229e-08 0)
(1.49694e-06 -2.06846e-08 0)
(1.51815e-06 -2.22888e-08 0)
(1.5415e-06 -2.40632e-08 0)
(1.38994e-06 -7.23411e-08 0)
(1.39588e-06 -5.4075e-08 0)
(1.40122e-06 -4.29762e-08 0)
(1.40912e-06 -3.69452e-08 0)
(1.41945e-06 -3.42184e-08 0)
(1.43266e-06 -3.36807e-08 0)
(1.44858e-06 -3.46263e-08 0)
(1.46702e-06 -3.65556e-08 0)
(1.48784e-06 -3.91979e-08 0)
(1.51085e-06 -4.21529e-08 0)
(1.35988e-06 -1.01817e-07 0)
(1.36091e-06 -7.77153e-08 0)
(1.3631e-06 -6.31733e-08 0)
(1.36897e-06 -5.5335e-08 0)
(1.37789e-06 -5.18271e-08 0)
(1.39011e-06 -5.1234e-08 0)
(1.4053e-06 -5.26103e-08 0)
(1.42321e-06 -5.53349e-08 0)
(1.44351e-06 -5.90331e-08 0)
(1.46609e-06 -6.31579e-08 0)
(1.32037e-06 -1.31775e-07 0)
(1.3154e-06 -1.03225e-07 0)
(1.31371e-06 -8.60816e-08 0)
(1.31699e-06 -7.69848e-08 0)
(1.32421e-06 -7.30164e-08 0)
(1.33523e-06 -7.2547e-08 0)
(1.34951e-06 -7.44603e-08 0)
(1.36671e-06 -7.80069e-08 0)
(1.38636e-06 -8.27204e-08 0)
(1.40845e-06 -8.79504e-08 0)
(1.27199e-06 -1.62248e-07 0)
(1.26015e-06 -1.30915e-07 0)
(1.25412e-06 -1.12175e-07 0)
(1.25452e-06 -1.0246e-07 0)
(1.2598e-06 -9.84485e-08 0)
(1.26946e-06 -9.83351e-08 0)
(1.28273e-06 -1.00868e-07 0)
(1.29913e-06 -1.05214e-07 0)
(1.31807e-06 -1.10884e-07 0)
(1.33965e-06 -1.17159e-07 0)
(1.21539e-06 -1.93177e-07 0)
(1.19628e-06 -1.60916e-07 0)
(1.18564e-06 -1.41739e-07 0)
(1.183e-06 -1.32127e-07 0)
(1.18622e-06 -1.28493e-07 0)
(1.19442e-06 -1.28968e-07 0)
(1.20663e-06 -1.32209e-07 0)
(1.22217e-06 -1.37347e-07 0)
(1.24035e-06 -1.43936e-07 0)
(1.26143e-06 -1.5118e-07 0)
(1.1512e-06 -2.24404e-07 0)
(1.12487e-06 -1.93167e-07 0)
(1.10964e-06 -1.74771e-07 0)
(1.10395e-06 -1.66006e-07 0)
(1.10512e-06 -1.63199e-07 0)
(1.11186e-06 -1.64525e-07 0)
(1.12295e-06 -1.68596e-07 0)
(1.13764e-06 -1.74562e-07 0)
(1.15507e-06 -1.82027e-07 0)
(1.17563e-06 -1.90139e-07 0)
(1.08017e-06 -2.55727e-07 0)
(1.04712e-06 -2.27395e-07 0)
(1.02765e-06 -2.10994e-07 0)
(1.01905e-06 -2.03825e-07 0)
(1.01825e-06 -2.02313e-07 0)
(1.02348e-06 -2.04776e-07 0)
(1.0334e-06 -2.09844e-07 0)
(1.04712e-06 -2.16682e-07 0)
(1.06368e-06 -2.24967e-07 0)
(1.08355e-06 -2.33711e-07 0)
(1.0031e-06 -2.86835e-07 0)
(9.64246e-07 -2.63128e-07 0)
(9.41052e-07 -2.49829e-07 0)
(9.29856e-07 -2.44992e-07 0)
(9.27185e-07 -2.45251e-07 0)
(9.30956e-07 -2.49185e-07 0)
(9.3974e-07 -2.55552e-07 0)
(9.52507e-07 -2.63617e-07 0)
(9.68404e-07 -2.7303e-07 0)
(9.87036e-07 -2.82971e-07 0)
(1.58255e-06 -8.35116e-09 0)
(1.61016e-06 -8.61653e-09 0)
(1.63939e-06 -8.85357e-09 0)
(1.67009e-06 -9.04713e-09 0)
(1.70213e-06 -9.19388e-09 0)
(1.73542e-06 -9.29563e-09 0)
(1.76983e-06 -9.34863e-09 0)
(1.80521e-06 -9.37502e-09 0)
(1.84147e-06 -9.38062e-09 0)
(1.87858e-06 -9.33993e-09 0)
(1.91642e-06 -9.23605e-09 0)
(1.95489e-06 -9.07243e-09 0)
(1.99391e-06 -8.85857e-09 0)
(2.03342e-06 -8.5997e-09 0)
(2.07333e-06 -8.28804e-09 0)
(2.11355e-06 -7.90693e-09 0)
(2.15404e-06 -7.43956e-09 0)
(2.19463e-06 -6.87214e-09 0)
(2.23532e-06 -6.19724e-09 0)
(2.27578e-06 -5.42147e-09 0)
(1.56761e-06 -2.56586e-08 0)
(1.59642e-06 -2.63818e-08 0)
(1.62673e-06 -2.70135e-08 0)
(1.6584e-06 -2.75211e-08 0)
(1.69133e-06 -2.7889e-08 0)
(1.7254e-06 -2.8149e-08 0)
(1.76051e-06 -2.83073e-08 0)
(1.79655e-06 -2.83778e-08 0)
(1.83345e-06 -2.83359e-08 0)
(1.87113e-06 -2.81437e-08 0)
(1.90949e-06 -2.77999e-08 0)
(1.94846e-06 -2.73193e-08 0)
(1.98797e-06 -2.6699e-08 0)
(2.02793e-06 -2.59214e-08 0)
(2.06826e-06 -2.49591e-08 0)
(2.10887e-06 -2.37875e-08 0)
(2.14972e-06 -2.23755e-08 0)
(2.19066e-06 -2.06913e-08 0)
(2.23171e-06 -1.87051e-08 0)
(2.27251e-06 -1.64078e-08 0)
(1.53822e-06 -4.4621e-08 0)
(1.56943e-06 -4.55391e-08 0)
(1.60192e-06 -4.63118e-08 0)
(1.63547e-06 -4.69515e-08 0)
(1.67009e-06 -4.74215e-08 0)
(1.70573e-06 -4.77603e-08 0)
(1.74229e-06 -4.79468e-08 0)
(1.77963e-06 -4.79765e-08 0)
(1.81771e-06 -4.78079e-08 0)
(1.85648e-06 -4.74165e-08 0)
(1.89587e-06 -4.68159e-08 0)
(1.93582e-06 -4.60109e-08 0)
(1.97625e-06 -4.49682e-08 0)
(2.01706e-06 -4.36453e-08 0)
(2.05819e-06 -4.20078e-08 0)
(2.0996e-06 -4.00275e-08 0)
(2.14122e-06 -3.76594e-08 0)
(2.1829e-06 -3.48639e-08 0)
(2.22466e-06 -3.15929e-08 0)
(2.26616e-06 -2.7808e-08 0)
(1.49529e-06 -6.61618e-08 0)
(1.52988e-06 -6.6836e-08 0)
(1.56549e-06 -6.73763e-08 0)
(1.6018e-06 -6.78859e-08 0)
(1.63896e-06 -6.82569e-08 0)
(1.67686e-06 -6.85157e-08 0)
(1.71548e-06 -6.85895e-08 0)
(1.75472e-06 -6.84654e-08 0)
(1.7946e-06 -6.80918e-08 0)
(1.83504e-06 -6.74554e-08 0)
(1.87598e-06 -6.65572e-08 0)
(1.91736e-06 -6.53723e-08 0)
(1.95911e-06 -6.38461e-08 0)
(2.00117e-06 -6.19367e-08 0)
(2.0435e-06 -5.96167e-08 0)
(2.08607e-06 -5.68311e-08 0)
(2.12879e-06 -5.35164e-08 0)
(2.17156e-06 -4.96191e-08 0)
(2.21435e-06 -4.5063e-08 0)
(2.25686e-06 -3.98144e-08 0)
(1.43997e-06 -9.10637e-08 0)
(1.47889e-06 -9.0968e-08 0)
(1.51853e-06 -9.08436e-08 0)
(1.55835e-06 -9.09085e-08 0)
(1.59872e-06 -9.08984e-08 0)
(1.63952e-06 -9.08355e-08 0)
(1.68084e-06 -9.06057e-08 0)
(1.72255e-06 -9.01946e-08 0)
(1.76472e-06 -8.9518e-08 0)
(1.80728e-06 -8.8546e-08 0)
(1.85019e-06 -8.7263e-08 0)
(1.89342e-06 -8.56258e-08 0)
(1.93692e-06 -8.35676e-08 0)
(1.98065e-06 -8.10431e-08 0)
(2.02457e-06 -7.80166e-08 0)
(2.06862e-06 -7.44106e-08 0)
(2.11279e-06 -7.01475e-08 0)
(2.1569e-06 -6.51606e-08 0)
(2.20106e-06 -5.93401e-08 0)
(2.24489e-06 -5.26569e-08 0)
(1.37382e-06 -1.19926e-07 0)
(1.41771e-06 -1.18452e-07 0)
(1.46209e-06 -1.17114e-07 0)
(1.50611e-06 -1.16317e-07 0)
(1.55038e-06 -1.156e-07 0)
(1.5947e-06 -1.14969e-07 0)
(1.63923e-06 -1.14237e-07 0)
(1.68392e-06 -1.1335e-07 0)
(1.72882e-06 -1.12215e-07 0)
(1.77391e-06 -1.10792e-07 0)
(1.81921e-06 -1.09041e-07 0)
(1.86468e-06 -1.06893e-07 0)
(1.91029e-06 -1.04263e-07 0)
(1.95599e-06 -1.01098e-07 0)
(2.00181e-06 -9.73346e-08 0)
(2.04764e-06 -9.28881e-08 0)
(2.09355e-06 -8.76731e-08 0)
(2.13932e-06 -8.16128e-08 0)
(2.18513e-06 -7.4565e-08 0)
(2.23057e-06 -6.64749e-08 0)
(1.29859e-06 -1.53122e-07 0)
(1.34802e-06 -1.4962e-07 0)
(1.39773e-06 -1.46517e-07 0)
(1.44649e-06 -1.44416e-07 0)
(1.49511e-06 -1.42628e-07 0)
(1.54342e-06 -1.41115e-07 0)
(1.59157e-06 -1.39638e-07 0)
(1.63962e-06 -1.38084e-07 0)
(1.68765e-06 -1.36351e-07 0)
(1.73567e-06 -1.34368e-07 0)
(1.78369e-06 -1.32058e-07 0)
(1.83171e-06 -1.2932e-07 0)
(1.87971e-06 -1.26052e-07 0)
(1.92769e-06 -1.22194e-07 0)
(1.97566e-06 -1.17663e-07 0)
(2.02357e-06 -1.12368e-07 0)
(2.07149e-06 -1.06214e-07 0)
(2.11922e-06 -9.90957e-08 0)
(2.16691e-06 -9.08327e-08 0)
(2.21419e-06 -8.13455e-08 0)
(1.21594e-06 -1.90778e-07 0)
(1.27125e-06 -1.84526e-07 0)
(1.32666e-06 -1.79107e-07 0)
(1.38061e-06 -1.7519e-07 0)
(1.43401e-06 -1.71929e-07 0)
(1.48672e-06 -1.69196e-07 0)
(1.53893e-06 -1.66707e-07 0)
(1.59072e-06 -1.64289e-07 0)
(1.64221e-06 -1.61805e-07 0)
(1.69345e-06 -1.59137e-07 0)
(1.74446e-06 -1.56164e-07 0)
(1.79527e-06 -1.52757e-07 0)
(1.84588e-06 -1.48806e-07 0)
(1.89636e-06 -1.44235e-07 0)
(1.94673e-06 -1.38944e-07 0)
(1.99695e-06 -1.32827e-07 0)
(2.0471e-06 -1.25757e-07 0)
(2.09697e-06 -1.176e-07 0)
(2.14675e-06 -1.08132e-07 0)
(2.19608e-06 -9.72562e-08 0)
(1.12747e-06 -2.32859e-07 0)
(1.18907e-06 -2.23176e-07 0)
(1.2505e-06 -2.15031e-07 0)
(1.30999e-06 -2.0881e-07 0)
(1.3685e-06 -2.03721e-07 0)
(1.42588e-06 -1.99453e-07 0)
(1.48242e-06 -1.95684e-07 0)
(1.5382e-06 -1.92178e-07 0)
(1.59336e-06 -1.8875e-07 0)
(1.648e-06 -1.85231e-07 0)
(1.70218e-06 -1.81463e-07 0)
(1.75595e-06 -1.77294e-07 0)
(1.80937e-06 -1.72607e-07 0)
(1.86255e-06 -1.67301e-07 0)
(1.91548e-06 -1.61243e-07 0)
(1.96817e-06 -1.54309e-07 0)
(2.0207e-06 -1.46331e-07 0)
(2.07288e-06 -1.3714e-07 0)
(2.12491e-06 -1.26481e-07 0)
(2.17647e-06 -1.14243e-07 0)
(1.03503e-06 -2.79112e-07 0)
(1.104e-06 -2.64639e-07 0)
(1.17179e-06 -2.5336e-07 0)
(1.23723e-06 -2.44415e-07 0)
(1.301e-06 -2.37147e-07 0)
(1.36324e-06 -2.31046e-07 0)
(1.42419e-06 -2.2575e-07 0)
(1.48403e-06 -2.20964e-07 0)
(1.54294e-06 -2.16447e-07 0)
(1.60104e-06 -2.11976e-07 0)
(1.65844e-06 -2.07357e-07 0)
(1.71524e-06 -2.0241e-07 0)
(1.77152e-06 -1.96992e-07 0)
(1.82741e-06 -1.90972e-07 0)
(1.88291e-06 -1.84186e-07 0)
(1.93808e-06 -1.76484e-07 0)
(1.99298e-06 -1.67661e-07 0)
(2.04749e-06 -1.57504e-07 0)
(2.1018e-06 -1.45732e-07 0)
(2.15569e-06 -1.32196e-07 0)
(9.61535e-07 -3.27881e-07 0)
(1.03779e-06 -3.07916e-07 0)
(1.11073e-06 -2.93484e-07 0)
(1.18084e-06 -2.81764e-07 0)
(1.24854e-06 -2.72176e-07 0)
(1.3143e-06 -2.64082e-07 0)
(1.3784e-06 -2.57058e-07 0)
(1.44113e-06 -2.50761e-07 0)
(1.50267e-06 -2.44902e-07 0)
(1.56319e-06 -2.39224e-07 0)
(1.62282e-06 -2.33512e-07 0)
(1.68168e-06 -2.27569e-07 0)
(1.7399e-06 -2.2123e-07 0)
(1.7976e-06 -2.14335e-07 0)
(1.85476e-06 -2.06703e-07 0)
(1.9115e-06 -1.98159e-07 0)
(1.96786e-06 -1.88483e-07 0)
(2.0238e-06 -1.77438e-07 0)
(2.07951e-06 -1.64737e-07 0)
(2.13483e-06 -1.50181e-07 0)
(9.21824e-07 -3.69844e-07 0)
(9.98649e-07 -3.4873e-07 0)
(1.07249e-06 -3.32107e-07 0)
(1.14406e-06 -3.18296e-07 0)
(1.21337e-06 -3.06758e-07 0)
(1.28074e-06 -2.96894e-07 0)
(1.34641e-06 -2.88252e-07 0)
(1.4106e-06 -2.80472e-07 0)
(1.47349e-06 -2.73246e-07 0)
(1.53524e-06 -2.66308e-07 0)
(1.59601e-06 -2.59433e-07 0)
(1.6559e-06 -2.52415e-07 0)
(1.71505e-06 -2.45074e-07 0)
(1.77358e-06 -2.37238e-07 0)
(1.83146e-06 -2.28718e-07 0)
(1.88886e-06 -2.19329e-07 0)
(1.94577e-06 -2.08855e-07 0)
(2.00227e-06 -1.97061e-07 0)
(2.05846e-06 -1.83667e-07 0)
(2.11427e-06 -1.6842e-07 0)
(8.90187e-07 -4.08781e-07 0)
(9.65956e-07 -3.87638e-07 0)
(1.03974e-06 -3.70015e-07 0)
(1.11168e-06 -3.5484e-07 0)
(1.18173e-06 -3.41785e-07 0)
(1.24999e-06 -3.3039e-07 0)
(1.31663e-06 -3.20259e-07 0)
(1.38181e-06 -3.11058e-07 0)
(1.44565e-06 -3.02491e-07 0)
(1.50831e-06 -2.94297e-07 0)
(1.56993e-06 -2.86248e-07 0)
(1.63061e-06 -2.78135e-07 0)
(1.69048e-06 -2.6977e-07 0)
(1.74965e-06 -2.60971e-07 0)
(1.80811e-06 -2.51552e-07 0)
(1.86603e-06 -2.41319e-07 0)
(1.92341e-06 -2.3007e-07 0)
(1.98036e-06 -2.17578e-07 0)
(2.03696e-06 -2.03557e-07 0)
(2.0932e-06 -1.87721e-07 0)
(8.63138e-07 -4.46133e-07 0)
(9.37667e-07 -4.25167e-07 0)
(1.01082e-06 -4.06949e-07 0)
(1.08255e-06 -3.9079e-07 0)
(1.15273e-06 -3.76527e-07 0)
(1.22135e-06 -3.63826e-07 0)
(1.28852e-06 -3.52374e-07 0)
(1.35429e-06 -3.41873e-07 0)
(1.41877e-06 -3.32049e-07 0)
(1.48208e-06 -3.2266e-07 0)
(1.54433e-06 -3.13483e-07 0)
(1.60561e-06 -3.04309e-07 0)
(1.66606e-06 -2.94953e-07 0)
(1.72575e-06 -2.85228e-07 0)
(1.78469e-06 -2.74948e-07 0)
(1.84307e-06 -2.63924e-07 0)
(1.90086e-06 -2.51965e-07 0)
(1.95822e-06 -2.38849e-07 0)
(2.01519e-06 -2.24283e-07 0)
(2.07183e-06 -2.08006e-07 0)
(8.39743e-07 -4.81853e-07 0)
(9.12949e-07 -4.61226e-07 0)
(9.85182e-07 -4.42769e-07 0)
(1.05634e-06 -4.25975e-07 0)
(1.12624e-06 -4.10807e-07 0)
(1.19484e-06 -3.9705e-07 0)
(1.26215e-06 -3.84469e-07 0)
(1.32819e-06 -3.72811e-07 0)
(1.39301e-06 -3.61839e-07 0)
(1.45673e-06 -3.51336e-07 0)
(1.51942e-06 -3.41093e-07 0)
(1.58113e-06 -3.3091e-07 0)
(1.642e-06 -3.20608e-07 0)
(1.7021e-06 -3.10002e-07 0)
(1.76144e-06 -2.98909e-07 0)
(1.82021e-06 -2.87147e-07 0)
(1.87836e-06 -2.74532e-07 0)
(1.93607e-06 -2.6085e-07 0)
(1.99337e-06 -2.45815e-07 0)
(2.0504e-06 -2.29259e-07 0)
(8.19177e-07 -5.16161e-07 0)
(8.91052e-07 -4.95942e-07 0)
(9.62267e-07 -4.77427e-07 0)
(1.03262e-06 -4.60236e-07 0)
(1.10199e-06 -4.44403e-07 0)
(1.17028e-06 -4.29809e-07 0)
(1.23747e-06 -4.16283e-07 0)
(1.30351e-06 -4.03626e-07 0)
(1.36845e-06 -3.91636e-07 0)
(1.43237e-06 -3.80127e-07 0)
(1.49531e-06 -3.68907e-07 0)
(1.5573e-06 -3.5779e-07 0)
(1.61848e-06 -3.46609e-07 0)
(1.67888e-06 -3.35185e-07 0)
(1.73853e-06 -3.23338e-07 0)
(1.7976e-06 -3.109e-07 0)
(1.85606e-06 -2.97689e-07 0)
(1.91407e-06 -2.83505e-07 0)
(1.97168e-06 -2.68108e-07 0)
(2.02905e-06 -2.51409e-07 0)
(8.00934e-07 -5.49206e-07 0)
(8.71495e-07 -5.2942e-07 0)
(9.41635e-07 -5.10962e-07 0)
(1.01106e-06 -4.93546e-07 0)
(1.07975e-06 -4.77251e-07 0)
(1.14754e-06 -4.6201e-07 0)
(1.21439e-06 -4.47713e-07 0)
(1.28025e-06 -4.3421e-07 0)
(1.34512e-06 -4.21335e-07 0)
(1.40907e-06 -4.08935e-07 0)
(1.4721e-06 -3.96836e-07 0)
(1.53423e-06 -3.8487e-07 0)
(1.5956e-06 -3.72883e-07 0)
(1.6562e-06 -3.60706e-07 0)
(1.71608e-06 -3.48164e-07 0)
(1.77538e-06 -3.35105e-07 0)
(1.83408e-06 -3.21359e-07 0)
(1.89235e-06 -3.06748e-07 0)
(1.95024e-06 -2.91103e-07 0)
(2.0079e-06 -2.74315e-07 0)
(7.84599e-07 -5.81106e-07 0)
(8.53906e-07 -5.61753e-07 0)
(9.22933e-07 -5.43431e-07 0)
(9.91399e-07 -5.25918e-07 0)
(1.05928e-06 -5.09312e-07 0)
(1.12644e-06 -4.93578e-07 0)
(1.19282e-06 -4.7866e-07 0)
(1.25834e-06 -4.6445e-07 0)
(1.323e-06 -4.50813e-07 0)
(1.38682e-06 -4.37633e-07 0)
(1.44981e-06 -4.24757e-07 0)
(1.51196e-06 -4.12031e-07 0)
(1.57341e-06 -3.99314e-07 0)
(1.63412e-06 -3.86451e-07 0)
(1.69414e-06 -3.73277e-07 0)
(1.75362e-06 -3.59659e-07 0)
(1.8125e-06 -3.45448e-07 0)
(1.871e-06 -3.30502e-07 0)
(1.92912e-06 -3.14692e-07 0)
(1.98702e-06 -2.9783e-07 0)
(7.69794e-07 -6.11974e-07 0)
(8.37904e-07 -5.93047e-07 0)
(9.05831e-07 -5.74914e-07 0)
(9.73321e-07 -5.57387e-07 0)
(1.04035e-06 -5.40576e-07 0)
(1.1068e-06 -5.24469e-07 0)
(1.17261e-06 -5.09052e-07 0)
(1.23769e-06 -4.94257e-07 0)
(1.30201e-06 -4.79974e-07 0)
(1.3656e-06 -4.66124e-07 0)
(1.42843e-06 -4.52569e-07 0)
(1.49051e-06 -4.39176e-07 0)
(1.55195e-06 -4.25809e-07 0)
(1.61269e-06 -4.12332e-07 0)
(1.67279e-06 -3.98597e-07 0)
(1.73237e-06 -3.84493e-07 0)
(1.79141e-06 -3.69904e-07 0)
(1.85009e-06 -3.54706e-07 0)
(1.9084e-06 -3.38761e-07 0)
(1.96651e-06 -3.21893e-07 0)
(7.5621e-07 -6.41913e-07 0)
(8.23166e-07 -6.23411e-07 0)
(8.90033e-07 -6.05486e-07 0)
(9.56549e-07 -5.87993e-07 0)
(1.02271e-06 -5.71047e-07 0)
(1.08842e-06 -5.54659e-07 0)
(1.15361e-06 -5.38851e-07 0)
(1.21817e-06 -5.23581e-07 0)
(1.28207e-06 -5.08765e-07 0)
(1.34535e-06 -4.9435e-07 0)
(1.40796e-06 -4.80214e-07 0)
(1.46988e-06 -4.66241e-07 0)
(1.53123e-06 -4.52307e-07 0)
(1.59193e-06 -4.38293e-07 0)
(1.65206e-06 -4.24075e-07 0)
(1.71171e-06 -4.09567e-07 0)
(1.77086e-06 -3.94676e-07 0)
(1.82967e-06 -3.79278e-07 0)
(1.88812e-06 -3.63214e-07 0)
(1.9464e-06 -3.46449e-07 0)
(7.43581e-07 -6.71028e-07 0)
(8.09437e-07 -6.52936e-07 0)
(8.75277e-07 -6.35219e-07 0)
(9.40844e-07 -6.17785e-07 0)
(1.00616e-06 -6.00762e-07 0)
(1.07112e-06 -5.84175e-07 0)
(1.13565e-06 -5.6807e-07 0)
(1.19965e-06 -5.52428e-07 0)
(1.2631e-06 -5.37182e-07 0)
(1.32601e-06 -5.22293e-07 0)
(1.38833e-06 -5.0766e-07 0)
(1.45005e-06 -4.93182e-07 0)
(1.51125e-06 -4.78753e-07 0)
(1.57187e-06 -4.64276e-07 0)
(1.63197e-06 -4.4965e-07 0)
(1.69166e-06 -4.34812e-07 0)
(1.75087e-06 -4.19669e-07 0)
(1.80977e-06 -4.04094e-07 0)
(1.86833e-06 -3.87974e-07 0)
(1.92674e-06 -3.71349e-07 0)
(7.31683e-07 -6.99408e-07 0)
(7.96496e-07 -6.81685e-07 0)
(8.61344e-07 -6.64172e-07 0)
(9.26007e-07 -6.46825e-07 0)
(9.90498e-07 -6.29776e-07 0)
(1.05471e-06 -6.13058e-07 0)
(1.11858e-06 -5.96733e-07 0)
(1.18202e-06 -5.80794e-07 0)
(1.24499e-06 -5.65202e-07 0)
(1.3075e-06 -5.4991e-07 0)
(1.3695e-06 -5.34847e-07 0)
(1.43097e-06 -5.19933e-07 0)
(1.49198e-06 -5.05081e-07 0)
(1.55249e-06 -4.90219e-07 0)
(1.61255e-06 -4.75266e-07 0)
(1.67223e-06 -4.60159e-07 0)
(1.73147e-06 -4.44803e-07 0)
(1.79041e-06 -4.29085e-07 0)
(1.84906e-06 -4.13009e-07 0)
(1.90757e-06 -3.96491e-07 0)
(7.20341e-07 -7.27113e-07 0)
(7.8416e-07 -7.09714e-07 0)
(8.48072e-07 -6.92412e-07 0)
(9.11874e-07 -6.75175e-07 0)
(9.75562e-07 -6.58136e-07 0)
(1.03904e-06 -6.41331e-07 0)
(1.10227e-06 -6.24843e-07 0)
(1.16514e-06 -6.08662e-07 0)
(1.22763e-06 -5.92793e-07 0)
(1.28974e-06 -5.77174e-07 0)
(1.3514e-06 -5.61761e-07 0)
(1.4126e-06 -5.46494e-07 0)
(1.47342e-06 -5.31302e-07 0)
(1.5338e-06 -5.16133e-07 0)
(1.59377e-06 -5.00913e-07 0)
(1.65341e-06 -4.85576e-07 0)
(1.71263e-06 -4.70041e-07 0)
(1.77161e-06 -4.54247e-07 0)
(1.8303e-06 -4.38238e-07 0)
(1.88888e-06 -4.21862e-07 0)
(7.09387e-07 -7.5419e-07 0)
(7.72273e-07 -7.37109e-07 0)
(8.35302e-07 -7.20012e-07 0)
(8.98272e-07 -7.0289e-07 0)
(9.61186e-07 -6.85876e-07 0)
(1.02397e-06 -6.69024e-07 0)
(1.08658e-06 -6.52431e-07 0)
(1.14891e-06 -6.3608e-07 0)
(1.21093e-06 -6.19996e-07 0)
(1.27263e-06 -6.04119e-07 0)
(1.33395e-06 -5.8842e-07 0)
(1.39488e-06 -5.72859e-07 0)
(1.4555e-06 -5.57385e-07 0)
(1.51574e-06 -5.4196e-07 0)
(1.57561e-06 -5.26509e-07 0)
(1.63518e-06 -5.10971e-07 0)
(1.69436e-06 -4.95303e-07 0)
(1.75334e-06 -4.79505e-07 0)
(1.81206e-06 -4.63513e-07 0)
(1.87068e-06 -4.47333e-07 0)
(6.98649e-07 -7.80731e-07 0)
(7.60663e-07 -7.63948e-07 0)
(8.22846e-07 -7.47031e-07 0)
(8.85021e-07 -7.30021e-07 0)
(9.47209e-07 -7.13057e-07 0)
(1.00935e-06 -6.96206e-07 0)
(1.07138e-06 -6.79548e-07 0)
(1.13319e-06 -6.63076e-07 0)
(1.19476e-06 -6.46799e-07 0)
(1.25607e-06 -6.30707e-07 0)
(1.31707e-06 -6.14793e-07 0)
(1.37776e-06 -5.99017e-07 0)
(1.43819e-06 -5.83329e-07 0)
(1.49828e-06 -5.67695e-07 0)
(1.55802e-06 -5.52047e-07 0)
(1.6175e-06 -5.36354e-07 0)
(1.67665e-06 -5.20614e-07 0)
(1.73563e-06 -5.04818e-07 0)
(1.79436e-06 -4.88865e-07 0)
(1.85298e-06 -4.72843e-07 0)
(6.87948e-07 -8.06817e-07 0)
(7.49131e-07 -7.90276e-07 0)
(8.10504e-07 -7.73505e-07 0)
(8.71954e-07 -7.56621e-07 0)
(9.33487e-07 -7.39733e-07 0)
(9.95036e-07 -7.22909e-07 0)
(1.05653e-06 -7.06201e-07 0)
(1.11786e-06 -6.89654e-07 0)
(1.17901e-06 -6.73255e-07 0)
(1.23997e-06 -6.5701e-07 0)
(1.3007e-06 -6.40931e-07 0)
(1.36117e-06 -6.24982e-07 0)
(1.4214e-06 -6.09113e-07 0)
(1.48132e-06 -5.93297e-07 0)
(1.54094e-06 -5.77492e-07 0)
(1.60034e-06 -5.61703e-07 0)
(1.65948e-06 -5.45929e-07 0)
(1.71842e-06 -5.30075e-07 0)
(1.77712e-06 -5.14206e-07 0)
(1.83573e-06 -4.98344e-07 0)
(6.77092e-07 -8.3246e-07 0)
(7.37467e-07 -8.16108e-07 0)
(7.98088e-07 -7.9952e-07 0)
(8.58917e-07 -7.82786e-07 0)
(9.19862e-07 -7.65973e-07 0)
(9.80886e-07 -7.49175e-07 0)
(1.04189e-06 -7.32457e-07 0)
(1.10279e-06 -7.15856e-07 0)
(1.16358e-06 -6.99378e-07 0)
(1.22426e-06 -6.83038e-07 0)
(1.28475e-06 -6.66841e-07 0)
(1.345e-06 -6.50746e-07 0)
(1.40504e-06 -6.34719e-07 0)
(1.46481e-06 -6.18768e-07 0)
(1.52435e-06 -6.02873e-07 0)
(1.58372e-06 -5.87012e-07 0)
(1.64279e-06 -5.71157e-07 0)
(1.70166e-06 -5.55265e-07 0)
(1.76032e-06 -5.39497e-07 0)
(1.819e-06 -5.23789e-07 0)
(6.65836e-07 -8.5765e-07 0)
(7.25523e-07 -8.41538e-07 0)
(7.85542e-07 -8.25139e-07 0)
(8.45786e-07 -8.08525e-07 0)
(9.06211e-07 -7.91825e-07 0)
(9.66752e-07 -7.75071e-07 0)
(1.02734e-06 -7.58358e-07 0)
(1.0879e-06 -7.41744e-07 0)
(1.14841e-06 -7.25235e-07 0)
(1.20886e-06 -7.08826e-07 0)
(1.26912e-06 -6.92522e-07 0)
(1.32916e-06 -6.7632e-07 0)
(1.38906e-06 -6.60205e-07 0)
(1.44878e-06 -6.4416e-07 0)
(1.50826e-06 -6.28163e-07 0)
(1.5675e-06 -6.12226e-07 0)
(1.62646e-06 -5.96296e-07 0)
(1.68539e-06 -5.80436e-07 0)
(1.74407e-06 -5.64717e-07 0)
(1.8026e-06 -5.49147e-07 0)
(6.54013e-07 -8.82633e-07 0)
(7.13086e-07 -8.66724e-07 0)
(7.72571e-07 -8.50457e-07 0)
(8.32333e-07 -8.33972e-07 0)
(8.92308e-07 -8.17345e-07 0)
(9.5246e-07 -8.00668e-07 0)
(1.01276e-06 -7.84004e-07 0)
(1.0731e-06 -7.67389e-07 0)
(1.1334e-06 -7.50838e-07 0)
(1.1936e-06 -7.34374e-07 0)
(1.25369e-06 -7.18017e-07 0)
(1.31367e-06 -7.01743e-07 0)
(1.37352e-06 -6.85537e-07 0)
(1.43308e-06 -6.69419e-07 0)
(1.49245e-06 -6.5334e-07 0)
(1.55172e-06 -6.37306e-07 0)
(1.6107e-06 -6.21338e-07 0)
(1.66955e-06 -6.0548e-07 0)
(1.72825e-06 -5.89766e-07 0)
(1.78676e-06 -5.74316e-07 0)
(6.41479e-07 -9.07201e-07 0)
(7.00026e-07 -8.91544e-07 0)
(7.59044e-07 -8.75471e-07 0)
(8.18391e-07 -8.59122e-07 0)
(8.78061e-07 -8.42618e-07 0)
(9.38013e-07 -8.26029e-07 0)
(9.98125e-07 -8.09415e-07 0)
(1.05825e-06 -7.92821e-07 0)
(1.11838e-06 -7.76265e-07 0)
(1.17854e-06 -7.59766e-07 0)
(1.2386e-06 -7.43372e-07 0)
(1.29844e-06 -7.27058e-07 0)
(1.3582e-06 -7.10769e-07 0)
(1.41778e-06 -6.94562e-07 0)
(1.4771e-06 -6.78437e-07 0)
(1.53631e-06 -6.62331e-07 0)
(1.59532e-06 -6.46347e-07 0)
(1.65416e-06 -6.30405e-07 0)
(1.71291e-06 -6.14668e-07 0)
(1.77136e-06 -5.99217e-07 0)
(4.22566e-08 -6.84434e-07 0)
(1.27132e-07 -6.75095e-07 0)
(2.13007e-07 -6.56576e-07 0)
(3.00441e-07 -6.29899e-07 0)
(3.89828e-07 -5.95902e-07 0)
(4.81401e-07 -5.55979e-07 0)
(5.75207e-07 -5.1156e-07 0)
(6.71068e-07 -4.64078e-07 0)
(7.69115e-07 -4.14923e-07 0)
(8.68099e-07 -3.65023e-07 0)
(4.14732e-08 -6.9944e-07 0)
(1.24713e-07 -6.90952e-07 0)
(2.0871e-07 -6.74044e-07 0)
(2.93906e-07 -6.49676e-07 0)
(3.80587e-07 -6.18507e-07 0)
(4.68901e-07 -5.81721e-07 0)
(5.58849e-07 -5.40545e-07 0)
(6.50156e-07 -4.96241e-07 0)
(7.42685e-07 -4.50087e-07 0)
(8.35089e-07 -4.03577e-07 0)
(4.06794e-08 -7.14935e-07 0)
(1.22271e-07 -7.07218e-07 0)
(2.04407e-07 -6.91756e-07 0)
(2.87412e-07 -6.69457e-07 0)
(3.71517e-07 -6.40878e-07 0)
(4.56786e-07 -6.07013e-07 0)
(5.43216e-07 -5.68946e-07 0)
(6.30646e-07 -5.27754e-07 0)
(7.18907e-07 -4.84589e-07 0)
(8.07047e-07 -4.40862e-07 0)
(3.99297e-08 -7.30819e-07 0)
(1.19986e-07 -7.23732e-07 0)
(2.00469e-07 -7.09485e-07 0)
(2.81575e-07 -6.88924e-07 0)
(3.63513e-07 -6.62535e-07 0)
(4.46272e-07 -6.3116e-07 0)
(5.29836e-07 -5.95824e-07 0)
(6.14038e-07 -5.57491e-07 0)
(6.98643e-07 -5.17288e-07 0)
(7.82953e-07 -4.76479e-07 0)
(3.92423e-08 -7.4706e-07 0)
(1.17818e-07 -7.40544e-07 0)
(1.96755e-07 -7.27386e-07 0)
(2.76123e-07 -7.0838e-07 0)
(3.56105e-07 -6.8397e-07 0)
(4.36658e-07 -6.54898e-07 0)
(5.17749e-07 -6.22109e-07 0)
(5.9925e-07 -5.86431e-07 0)
(6.80888e-07 -5.48927e-07 0)
(7.62028e-07 -5.10743e-07 0)
(3.8592e-08 -7.63632e-07 0)
(1.1579e-07 -7.57594e-07 0)
(1.9328e-07 -7.4541e-07 0)
(2.71076e-07 -7.27771e-07 0)
(3.49311e-07 -7.05115e-07 0)
(4.27966e-07 -6.78102e-07 0)
(5.0692e-07 -6.47604e-07 0)
(5.86075e-07 -6.1437e-07 0)
(6.65184e-07 -5.79382e-07 0)
(7.43614e-07 -5.43707e-07 0)
(3.79405e-08 -7.80509e-07 0)
(1.13851e-07 -7.74888e-07 0)
(1.89966e-07 -7.63601e-07 0)
(2.66314e-07 -7.47178e-07 0)
(3.4296e-07 -7.26107e-07 0)
(4.1991e-07 -7.00969e-07 0)
(4.97029e-07 -6.72557e-07 0)
(5.74168e-07 -6.41562e-07 0)
(6.51136e-07 -6.0886e-07 0)
(7.27283e-07 -5.75481e-07 0)
(3.73273e-08 -7.97647e-07 0)
(1.11995e-07 -7.92401e-07 0)
(1.86798e-07 -7.81919e-07 0)
(2.61798e-07 -7.66587e-07 0)
(3.37011e-07 -7.46949e-07 0)
(4.12414e-07 -7.23511e-07 0)
(4.879e-07 -6.97002e-07 0)
(5.63283e-07 -6.68053e-07 0)
(6.38413e-07 -6.37449e-07 0)
(7.12645e-07 -6.06174e-07 0)
(3.67596e-08 -8.1503e-07 0)
(1.10203e-07 -8.10121e-07 0)
(1.83757e-07 -8.00359e-07 0)
(2.57481e-07 -7.86036e-07 0)
(3.31358e-07 -7.67713e-07 0)
(4.05369e-07 -7.45821e-07 0)
(4.79384e-07 -7.21043e-07 0)
(5.53213e-07 -6.93957e-07 0)
(6.26744e-07 -6.6527e-07 0)
(6.9936e-07 -6.35921e-07 0)
(3.61893e-08 -8.32649e-07 0)
(1.08445e-07 -8.28021e-07 0)
(1.8081e-07 -8.18913e-07 0)
(2.53329e-07 -8.05524e-07 0)
(3.25937e-07 -7.88404e-07 0)
(3.98668e-07 -7.67919e-07 0)
(4.71344e-07 -7.44719e-07 0)
(5.43781e-07 -7.19342e-07 0)
(6.15902e-07 -6.92422e-07 0)
(6.87132e-07 -6.64836e-07 0)
(3.55971e-08 -8.50465e-07 0)
(1.06721e-07 -8.46082e-07 0)
(1.77934e-07 -8.3758e-07 0)
(2.49292e-07 -8.25057e-07 0)
(3.20693e-07 -8.09034e-07 0)
(3.92209e-07 -7.89841e-07 0)
(4.63652e-07 -7.68086e-07 0)
(5.34835e-07 -7.44285e-07 0)
(6.05697e-07 -7.18981e-07 0)
(6.75718e-07 -6.93001e-07 0)
(3.50113e-08 -8.68428e-07 0)
(1.05043e-07 -8.64286e-07 0)
(1.75118e-07 -8.56349e-07 0)
(2.45328e-07 -8.44623e-07 0)
(3.15577e-07 -8.29601e-07 0)
(3.8592e-07 -8.11599e-07 0)
(4.56207e-07 -7.91177e-07 0)
(5.26242e-07 -7.68824e-07 0)
(5.95966e-07 -7.44993e-07 0)
(6.64928e-07 -7.20475e-07 0)
(3.44499e-08 -8.8652e-07 0)
(1.03387e-07 -8.82628e-07 0)
(1.72324e-07 -8.75203e-07 0)
(2.41391e-07 -8.64209e-07 0)
(3.10521e-07 -8.50107e-07 0)
(3.79729e-07 -8.33208e-07 0)
(4.48913e-07 -8.14021e-07 0)
(5.17878e-07 -7.92983e-07 0)
(5.86567e-07 -7.70503e-07 0)
(6.5461e-07 -7.4734e-07 0)
(3.38935e-08 -9.04733e-07 0)
(1.01697e-07 -9.01082e-07 0)
(1.69496e-07 -8.94114e-07 0)
(2.37422e-07 -8.83795e-07 0)
(3.05448e-07 -8.70547e-07 0)
(3.73552e-07 -8.54671e-07 0)
(4.41671e-07 -8.36624e-07 0)
(5.09623e-07 -8.16795e-07 0)
(5.77372e-07 -7.9559e-07 0)
(6.44594e-07 -7.73686e-07 0)
(3.33103e-08 -9.23055e-07 0)
(9.99312e-08 -9.19625e-07 0)
(1.66586e-07 -9.13067e-07 0)
(2.33369e-07 -9.0338e-07 0)
(3.00282e-07 -8.90935e-07 0)
(3.67295e-07 -8.76016e-07 0)
(4.34369e-07 -8.59009e-07 0)
(5.01364e-07 -8.40297e-07 0)
(5.68236e-07 -8.20299e-07 0)
(6.34703e-07 -7.99542e-07 0)
(3.26899e-08 -9.41429e-07 0)
(9.8087e-08 -9.38209e-07 0)
(1.63572e-07 -9.32036e-07 0)
(2.29182e-07 -9.22945e-07 0)
(2.94951e-07 -9.11232e-07 0)
(3.60868e-07 -8.97183e-07 0)
(4.26917e-07 -8.81148e-07 0)
(4.93e-07 -8.63517e-07 0)
(5.59029e-07 -8.44641e-07 0)
(6.24791e-07 -8.2496e-07 0)
(3.2041e-08 -9.59838e-07 0)
(9.61665e-08 -9.5683e-07 0)
(1.60418e-07 -9.51013e-07 0)
(2.24805e-07 -9.42466e-07 0)
(2.89393e-07 -9.31455e-07 0)
(3.54197e-07 -9.18231e-07 0)
(4.19226e-07 -9.03128e-07 0)
(4.84388e-07 -8.86534e-07 0)
(5.49587e-07 -8.68669e-07 0)
(6.14652e-07 -8.50019e-07 0)
(3.13656e-08 -9.78184e-07 0)
(9.41486e-08 -9.75376e-07 0)
(1.57079e-07 -9.69897e-07 0)
(2.20178e-07 -9.6187e-07 0)
(2.83538e-07 -9.51505e-07 0)
(3.47199e-07 -9.39061e-07 0)
(4.11179e-07 -9.24856e-07 0)
(4.75381e-07 -9.09224e-07 0)
(5.39734e-07 -8.9235e-07 0)
(6.04114e-07 -8.74659e-07 0)
(3.06496e-08 -9.96509e-07 0)
(9.19874e-08 -9.93895e-07 0)
(1.5349e-07 -9.88746e-07 0)
(2.15219e-07 -9.81204e-07 0)
(2.77278e-07 -9.71471e-07 0)
(3.39737e-07 -9.59792e-07 0)
(4.02611e-07 -9.46462e-07 0)
(4.65811e-07 -9.31723e-07 0)
(5.29267e-07 -9.15834e-07 0)
(5.92956e-07 -8.99064e-07 0)
(2.98791e-08 -1.01456e-06 0)
(8.96643e-08 -1.01211e-06 0)
(1.49627e-07 -1.00728e-06 0)
(2.09897e-07 -1.00022e-06 0)
(2.70594e-07 -9.911e-07 0)
(3.31784e-07 -9.80171e-07 0)
(3.93458e-07 -9.67673e-07 0)
(4.55586e-07 -9.53822e-07 0)
(5.18112e-07 -9.3889e-07 0)
(5.8112e-07 -9.23042e-07 0)
)


// ************************************************************************* //
