# Time Dx Dy Dz magD
1 0 -3.4137e-07 0 3.4137e-07
