# Time dispX dispY dispZ forceX forceY forceZ
0 0 0 0 0 0 0
1 1.0668e-06 -8.20684e-08 1.493e-23 100000 -0.000982127 6.52187e-18
