/*--------------------------------*- C++ -*----------------------------------*\
| =========                 |                                                 |
| \\      /  F ield         | foam-extend: Open Source CFD                    |
|  \\    /   O peration     | Version:     4.1                                |
|   \\  /    A nd           | Web:         http://www.foam-extend.org         |
|    \\/     M anipulation  |                                                 |
\*---------------------------------------------------------------------------*/
FoamFile
{
    version     2.0;
    format      ascii;
    class       volScalarField;
    location    "1";
    object      epsilonEq;
}
// * * * * * * * * * * * * * * * * * * * * * * * * * * * * * * * * * * * * * //

dimensions      [0 0 0 0 0 0 0];

internalField   nonuniform List<scalar> 
100000
(
4.13989e-07
4.09647e-07
4.07771e-07
4.08748e-07
4.11698e-07
4.16423e-07
4.22453e-07
4.29517e-07
4.37318e-07
4.45641e-07
4.54294e-07
4.63128e-07
4.72019e-07
4.80872e-07
4.89611e-07
4.98178e-07
5.06529e-07
5.1463e-07
5.22458e-07
5.29996e-07
5.37232e-07
5.44162e-07
5.50783e-07
5.57095e-07
5.63101e-07
5.68806e-07
5.74216e-07
5.79336e-07
5.8418e-07
5.88739e-07
5.93067e-07
5.97097e-07
6.00949e-07
6.04558e-07
6.07883e-07
6.11032e-07
6.13939e-07
6.16664e-07
6.19194e-07
6.21545e-07
6.2372e-07
6.25728e-07
6.27577e-07
6.29272e-07
6.30821e-07
6.32231e-07
6.33508e-07
6.34657e-07
6.35685e-07
6.36597e-07
6.37399e-07
6.38095e-07
6.38691e-07
6.39191e-07
6.396e-07
6.39922e-07
6.40161e-07
6.40321e-07
6.40406e-07
6.4042e-07
6.40365e-07
6.40246e-07
6.40065e-07
6.39825e-07
6.39529e-07
6.3918e-07
6.3878e-07
6.38332e-07
6.37839e-07
6.37301e-07
6.36722e-07
6.36104e-07
6.35448e-07
6.34757e-07
6.34032e-07
6.33274e-07
6.32487e-07
6.31671e-07
6.30828e-07
6.29959e-07
6.29064e-07
6.28145e-07
6.27206e-07
6.26246e-07
6.2527e-07
6.24275e-07
6.23261e-07
6.22228e-07
6.21179e-07
6.20114e-07
6.19035e-07
6.17943e-07
6.16839e-07
6.15722e-07
6.146e-07
6.1346e-07
6.12334e-07
6.11172e-07
6.10121e-07
6.08872e-07
4.28922e-07
4.23923e-07
4.21307e-07
4.21529e-07
4.23709e-07
4.27678e-07
4.32975e-07
4.39341e-07
4.46485e-07
4.54195e-07
4.62278e-07
4.70586e-07
4.78993e-07
4.87401e-07
4.95733e-07
5.03926e-07
5.11933e-07
5.1972e-07
5.27258e-07
5.3453e-07
5.41523e-07
5.48227e-07
5.54641e-07
5.60761e-07
5.66591e-07
5.72132e-07
5.7739e-07
5.82373e-07
5.87081e-07
5.91539e-07
5.95731e-07
5.99702e-07
6.03303e-07
6.06899e-07
6.10148e-07
6.13202e-07
6.16045e-07
6.18704e-07
6.21171e-07
6.2346e-07
6.25577e-07
6.2753e-07
6.29325e-07
6.30971e-07
6.32473e-07
6.33837e-07
6.35071e-07
6.3618e-07
6.37169e-07
6.38045e-07
6.38812e-07
6.39475e-07
6.40039e-07
6.40509e-07
6.40889e-07
6.41183e-07
6.41396e-07
6.41531e-07
6.41592e-07
6.41583e-07
6.41506e-07
6.41366e-07
6.41164e-07
6.40905e-07
6.4059e-07
6.40223e-07
6.39806e-07
6.39341e-07
6.38831e-07
6.38278e-07
6.37684e-07
6.37051e-07
6.36382e-07
6.35676e-07
6.34938e-07
6.34168e-07
6.33368e-07
6.3254e-07
6.31685e-07
6.30805e-07
6.29899e-07
6.28967e-07
6.28017e-07
6.27046e-07
6.26063e-07
6.25063e-07
6.24038e-07
6.22996e-07
6.21937e-07
6.20864e-07
6.19778e-07
6.1868e-07
6.17572e-07
6.16454e-07
6.1533e-07
6.14197e-07
6.13066e-07
6.11926e-07
6.10792e-07
6.09648e-07
4.43849e-07
4.38198e-07
4.34852e-07
4.34331e-07
4.35751e-07
4.38974e-07
4.43545e-07
4.49218e-07
4.55706e-07
4.62802e-07
4.70314e-07
4.78092e-07
4.8601e-07
4.93968e-07
5.01885e-07
5.09698e-07
5.17355e-07
5.2482e-07
5.32063e-07
5.39063e-07
5.45804e-07
5.52278e-07
5.58478e-07
5.64402e-07
5.7005e-07
5.75424e-07
5.80527e-07
5.85369e-07
5.89947e-07
5.94291e-07
5.98356e-07
6.02225e-07
6.05801e-07
6.09152e-07
6.12353e-07
6.15303e-07
6.18088e-07
6.20668e-07
6.2307e-07
6.25293e-07
6.27349e-07
6.29244e-07
6.30985e-07
6.32578e-07
6.34031e-07
6.35349e-07
6.36539e-07
6.37606e-07
6.38555e-07
6.39393e-07
6.40124e-07
6.40753e-07
6.41285e-07
6.41724e-07
6.42074e-07
6.4234e-07
6.42525e-07
6.42635e-07
6.42671e-07
6.42639e-07
6.4254e-07
6.42378e-07
6.42156e-07
6.41877e-07
6.41543e-07
6.41158e-07
6.40723e-07
6.40241e-07
6.39715e-07
6.39146e-07
6.38537e-07
6.3789e-07
6.37206e-07
6.36487e-07
6.35735e-07
6.34952e-07
6.3414e-07
6.333e-07
6.32436e-07
6.31548e-07
6.30628e-07
6.29682e-07
6.28721e-07
6.27739e-07
6.2675e-07
6.25744e-07
6.24708e-07
6.23654e-07
6.22587e-07
6.21505e-07
6.20412e-07
6.19308e-07
6.18193e-07
6.17068e-07
6.15936e-07
6.14794e-07
6.13648e-07
6.12492e-07
6.11317e-07
6.10139e-07
4.58765e-07
4.52469e-07
4.48402e-07
4.47148e-07
4.47819e-07
4.50305e-07
4.54156e-07
4.59141e-07
4.64976e-07
4.71458e-07
4.78396e-07
4.85642e-07
4.93067e-07
5.0057e-07
5.08067e-07
5.15492e-07
5.22793e-07
5.2993e-07
5.36871e-07
5.43592e-07
5.50077e-07
5.56314e-07
5.62295e-07
5.68016e-07
5.73476e-07
5.78676e-07
5.83618e-07
5.88307e-07
5.92747e-07
5.96945e-07
6.00906e-07
6.04616e-07
6.08087e-07
6.11409e-07
6.14506e-07
6.17374e-07
6.20065e-07
6.22566e-07
6.24891e-07
6.27046e-07
6.29037e-07
6.30871e-07
6.32555e-07
6.34094e-07
6.35496e-07
6.36766e-07
6.3791e-07
6.38934e-07
6.39843e-07
6.40642e-07
6.41336e-07
6.4193e-07
6.42429e-07
6.42836e-07
6.43156e-07
6.43392e-07
6.4355e-07
6.43633e-07
6.43645e-07
6.43589e-07
6.43467e-07
6.43283e-07
6.43041e-07
6.42741e-07
6.42388e-07
6.41984e-07
6.41532e-07
6.41033e-07
6.4049e-07
6.39906e-07
6.39282e-07
6.3862e-07
6.37922e-07
6.3719e-07
6.36427e-07
6.3563e-07
6.34807e-07
6.33953e-07
6.33077e-07
6.3218e-07
6.3125e-07
6.30288e-07
6.29312e-07
6.28306e-07
6.27322e-07
6.2633e-07
6.25278e-07
6.24211e-07
6.23131e-07
6.22042e-07
6.20941e-07
6.19829e-07
6.18707e-07
6.17575e-07
6.16433e-07
6.15282e-07
6.14118e-07
6.12948e-07
6.11742e-07
6.10556e-07
4.73666e-07
4.66731e-07
4.61952e-07
4.59974e-07
4.59907e-07
4.61664e-07
4.64802e-07
4.69104e-07
4.74288e-07
4.80157e-07
4.86521e-07
4.93231e-07
5.00159e-07
5.07202e-07
5.14274e-07
5.21306e-07
5.28246e-07
5.35048e-07
5.41681e-07
5.48118e-07
5.5434e-07
5.60334e-07
5.6609e-07
5.71603e-07
5.7687e-07
5.81891e-07
5.86667e-07
5.91201e-07
5.95494e-07
5.99554e-07
6.03382e-07
6.06978e-07
6.10377e-07
6.13585e-07
6.16567e-07
6.19353e-07
6.21957e-07
6.2438e-07
6.26631e-07
6.28715e-07
6.3064e-07
6.32412e-07
6.34036e-07
6.3552e-07
6.3687e-07
6.3809e-07
6.39188e-07
6.40167e-07
6.41034e-07
6.41793e-07
6.42449e-07
6.43007e-07
6.43472e-07
6.43846e-07
6.44134e-07
6.44341e-07
6.44469e-07
6.44526e-07
6.44513e-07
6.44433e-07
6.44288e-07
6.44082e-07
6.43818e-07
6.43498e-07
6.43125e-07
6.42703e-07
6.42232e-07
6.41716e-07
6.41157e-07
6.40556e-07
6.39917e-07
6.39241e-07
6.38529e-07
6.37783e-07
6.37006e-07
6.36195e-07
6.35361e-07
6.34487e-07
6.33619e-07
6.32722e-07
6.31766e-07
6.3078e-07
6.29804e-07
6.28783e-07
6.27803e-07
6.26796e-07
6.25729e-07
6.24637e-07
6.23561e-07
6.22465e-07
6.21361e-07
6.20243e-07
6.19115e-07
6.17975e-07
6.16824e-07
6.15662e-07
6.14488e-07
6.13307e-07
6.12091e-07
6.10905e-07
4.8855e-07
4.80981e-07
4.75498e-07
4.72806e-07
4.72008e-07
4.73045e-07
4.75478e-07
4.79101e-07
4.83637e-07
4.88894e-07
4.94682e-07
5.00855e-07
5.07283e-07
5.13862e-07
5.20503e-07
5.27138e-07
5.3371e-07
5.40173e-07
5.46491e-07
5.52638e-07
5.58591e-07
5.64337e-07
5.69863e-07
5.75163e-07
5.80232e-07
5.85069e-07
5.89673e-07
5.94047e-07
5.98192e-07
6.02113e-07
6.05814e-07
6.09296e-07
6.12575e-07
6.15671e-07
6.18561e-07
6.21259e-07
6.23776e-07
6.26117e-07
6.28291e-07
6.30302e-07
6.32159e-07
6.33866e-07
6.3543e-07
6.36857e-07
6.38152e-07
6.39321e-07
6.4037e-07
6.41304e-07
6.42127e-07
6.42845e-07
6.43463e-07
6.43984e-07
6.44413e-07
6.44754e-07
6.45011e-07
6.45187e-07
6.45286e-07
6.45315e-07
6.45277e-07
6.45172e-07
6.45004e-07
6.44776e-07
6.44489e-07
6.44149e-07
6.43756e-07
6.43314e-07
6.42825e-07
6.42291e-07
6.41715e-07
6.41099e-07
6.40445e-07
6.39755e-07
6.39031e-07
6.38273e-07
6.37488e-07
6.36668e-07
6.35835e-07
6.34947e-07
6.34089e-07
6.33141e-07
6.32149e-07
6.31208e-07
6.30195e-07
6.29123e-07
6.28179e-07
6.2719e-07
6.26048e-07
6.24972e-07
6.23876e-07
6.22786e-07
6.21674e-07
6.20553e-07
6.19417e-07
6.1827e-07
6.17111e-07
6.15941e-07
6.14758e-07
6.13571e-07
6.12347e-07
6.11166e-07
5.03413e-07
4.95214e-07
4.89034e-07
4.85638e-07
4.84119e-07
4.84444e-07
4.86178e-07
4.89127e-07
4.93018e-07
4.97664e-07
5.02877e-07
5.08511e-07
5.14436e-07
5.20546e-07
5.26753e-07
5.32986e-07
5.39184e-07
5.45302e-07
5.51301e-07
5.57151e-07
5.62831e-07
5.68323e-07
5.73613e-07
5.78695e-07
5.83561e-07
5.88209e-07
5.92638e-07
5.96848e-07
6.0084e-07
6.04619e-07
6.08187e-07
6.11549e-07
6.14718e-07
6.177e-07
6.20486e-07
6.2309e-07
6.25517e-07
6.27775e-07
6.2987e-07
6.31807e-07
6.33593e-07
6.35234e-07
6.36736e-07
6.38104e-07
6.39343e-07
6.4046e-07
6.41459e-07
6.42346e-07
6.43125e-07
6.438e-07
6.44378e-07
6.44861e-07
6.45256e-07
6.45562e-07
6.45788e-07
6.4593e-07
6.45995e-07
6.46e-07
6.45939e-07
6.45808e-07
6.45616e-07
6.45364e-07
6.45055e-07
6.44693e-07
6.44279e-07
6.43818e-07
6.4331e-07
6.42759e-07
6.42166e-07
6.41534e-07
6.40864e-07
6.40159e-07
6.39419e-07
6.38649e-07
6.37846e-07
6.37017e-07
6.3615e-07
6.35246e-07
6.3437e-07
6.33207e-07
6.32485e-07
6.31474e-07
6.30517e-07
6.29422e-07
6.28727e-07
6.27141e-07
6.26368e-07
6.25216e-07
6.24142e-07
6.23036e-07
6.2191e-07
6.20775e-07
6.19627e-07
6.18469e-07
6.173e-07
6.16123e-07
6.14932e-07
6.1374e-07
6.1251e-07
6.11334e-07
5.1825e-07
5.09427e-07
5.02557e-07
4.98465e-07
4.96234e-07
4.95855e-07
4.96897e-07
4.99177e-07
5.02426e-07
5.06463e-07
5.111e-07
5.16194e-07
5.21613e-07
5.27252e-07
5.33021e-07
5.38846e-07
5.44667e-07
5.50434e-07
5.56108e-07
5.61657e-07
5.67058e-07
5.72291e-07
5.77341e-07
5.82199e-07
5.86858e-07
5.91313e-07
5.95561e-07
5.99604e-07
6.0344e-07
6.07073e-07
6.10507e-07
6.13744e-07
6.16792e-07
6.19659e-07
6.22342e-07
6.24848e-07
6.27184e-07
6.29356e-07
6.31369e-07
6.3323e-07
6.34944e-07
6.36517e-07
6.37955e-07
6.39262e-07
6.40444e-07
6.41507e-07
6.42455e-07
6.43293e-07
6.44026e-07
6.44658e-07
6.45194e-07
6.45638e-07
6.45996e-07
6.46266e-07
6.46462e-07
6.46572e-07
6.46608e-07
6.46584e-07
6.46496e-07
6.46342e-07
6.46124e-07
6.45848e-07
6.45515e-07
6.45131e-07
6.44697e-07
6.44216e-07
6.43689e-07
6.4312e-07
6.4251e-07
6.41861e-07
6.41174e-07
6.40453e-07
6.39697e-07
6.3891e-07
6.38088e-07
6.37243e-07
6.36356e-07
6.3547e-07
6.34522e-07
6.3362e-07
6.32679e-07
6.31646e-07
6.30662e-07
6.29681e-07
6.2855e-07
6.27479e-07
6.26488e-07
6.25385e-07
6.24291e-07
6.23163e-07
6.2203e-07
6.20883e-07
6.19728e-07
6.18562e-07
6.17386e-07
6.16202e-07
6.15005e-07
6.1381e-07
6.12574e-07
6.11401e-07
5.33059e-07
5.23616e-07
5.16063e-07
5.11283e-07
5.08348e-07
5.07273e-07
5.07629e-07
5.09245e-07
5.11857e-07
5.15285e-07
5.19348e-07
5.239e-07
5.28812e-07
5.33977e-07
5.39304e-07
5.44717e-07
5.50156e-07
5.55567e-07
5.60912e-07
5.66155e-07
5.71271e-07
5.7624e-07
5.81045e-07
5.85675e-07
5.90122e-07
5.94379e-07
5.98444e-07
6.02314e-07
6.05991e-07
6.09475e-07
6.1277e-07
6.15878e-07
6.18804e-07
6.21555e-07
6.2413e-07
6.26535e-07
6.28777e-07
6.3086e-07
6.3279e-07
6.34572e-07
6.36212e-07
6.37715e-07
6.39087e-07
6.40332e-07
6.41456e-07
6.42463e-07
6.43359e-07
6.44147e-07
6.44833e-07
6.45421e-07
6.45915e-07
6.4632e-07
6.46642e-07
6.46876e-07
6.47048e-07
6.47109e-07
6.47106e-07
6.47067e-07
6.46966e-07
6.46775e-07
6.46529e-07
6.46227e-07
6.4587e-07
6.45464e-07
6.45009e-07
6.44508e-07
6.43963e-07
6.43375e-07
6.42748e-07
6.42082e-07
6.4138e-07
6.40644e-07
6.39874e-07
6.39073e-07
6.38241e-07
6.37381e-07
6.36496e-07
6.35581e-07
6.34669e-07
6.3373e-07
6.32736e-07
6.31716e-07
6.30716e-07
6.29675e-07
6.28644e-07
6.27582e-07
6.26492e-07
6.25378e-07
6.24279e-07
6.23155e-07
6.22022e-07
6.20875e-07
6.19716e-07
6.18547e-07
6.17367e-07
6.16178e-07
6.14977e-07
6.13779e-07
6.12538e-07
6.11369e-07
5.47835e-07
5.37777e-07
5.29548e-07
5.24087e-07
5.20457e-07
5.18692e-07
5.1837e-07
5.19327e-07
5.21304e-07
5.24128e-07
5.27616e-07
5.31626e-07
5.36029e-07
5.40717e-07
5.45599e-07
5.50597e-07
5.55649e-07
5.60701e-07
5.65711e-07
5.70643e-07
5.7547e-07
5.8017e-07
5.84725e-07
5.89123e-07
5.93353e-07
5.97408e-07
6.01285e-07
6.0498e-07
6.08494e-07
6.11825e-07
6.14977e-07
6.17952e-07
6.20753e-07
6.23385e-07
6.25849e-07
6.28152e-07
6.30296e-07
6.32288e-07
6.34132e-07
6.35834e-07
6.37398e-07
6.3883e-07
6.40134e-07
6.41316e-07
6.42379e-07
6.43329e-07
6.44171e-07
6.44908e-07
6.45546e-07
6.46087e-07
6.46537e-07
6.46896e-07
6.47176e-07
6.4736e-07
6.47499e-07
6.47494e-07
6.47525e-07
6.47503e-07
6.47311e-07
6.47114e-07
6.46827e-07
6.46503e-07
6.46121e-07
6.45693e-07
6.45216e-07
6.44696e-07
6.44131e-07
6.43526e-07
6.42881e-07
6.42199e-07
6.41482e-07
6.4073e-07
6.39947e-07
6.39133e-07
6.3829e-07
6.3742e-07
6.36525e-07
6.35609e-07
6.34672e-07
6.33709e-07
6.32717e-07
6.31713e-07
6.30694e-07
6.29664e-07
6.2859e-07
6.27492e-07
6.26408e-07
6.25304e-07
6.24193e-07
6.23065e-07
6.21925e-07
6.20772e-07
6.19607e-07
6.18433e-07
6.17248e-07
6.16055e-07
6.1485e-07
6.13649e-07
6.12402e-07
6.11236e-07
5.62575e-07
5.51906e-07
5.43008e-07
5.36874e-07
5.32555e-07
5.30109e-07
5.29114e-07
5.29418e-07
5.30765e-07
5.32985e-07
5.359e-07
5.39368e-07
5.43261e-07
5.4747e-07
5.51903e-07
5.56483e-07
5.61144e-07
5.65832e-07
5.70503e-07
5.7512e-07
5.79654e-07
5.84081e-07
5.88381e-07
5.92542e-07
5.96551e-07
6.00401e-07
6.04085e-07
6.07601e-07
6.10947e-07
6.14123e-07
6.17128e-07
6.19966e-07
6.22639e-07
6.2515e-07
6.27502e-07
6.29698e-07
6.31743e-07
6.33641e-07
6.35398e-07
6.37017e-07
6.38503e-07
6.39861e-07
6.41096e-07
6.42212e-07
6.43214e-07
6.44106e-07
6.44893e-07
6.45579e-07
6.46167e-07
6.46662e-07
6.47066e-07
6.47388e-07
6.47622e-07
6.47792e-07
6.47885e-07
6.4789e-07
6.48018e-07
6.4772e-07
6.47554e-07
6.47309e-07
6.47006e-07
6.46662e-07
6.46262e-07
6.45814e-07
6.45319e-07
6.44779e-07
6.44196e-07
6.43573e-07
6.42911e-07
6.42213e-07
6.4148e-07
6.40714e-07
6.39917e-07
6.3909e-07
6.38235e-07
6.37353e-07
6.36448e-07
6.35519e-07
6.3457e-07
6.33599e-07
6.32599e-07
6.31581e-07
6.30549e-07
6.29499e-07
6.28432e-07
6.27346e-07
6.26244e-07
6.2513e-07
6.24007e-07
6.2287e-07
6.21724e-07
6.20565e-07
6.19396e-07
6.18217e-07
6.17028e-07
6.15832e-07
6.14623e-07
6.13419e-07
6.12167e-07
6.11004e-07
5.77276e-07
5.66e-07
5.56438e-07
5.49639e-07
5.44639e-07
5.41519e-07
5.39858e-07
5.39513e-07
5.40233e-07
5.41853e-07
5.44196e-07
5.47123e-07
5.50504e-07
5.54233e-07
5.58215e-07
5.62373e-07
5.6664e-07
5.70961e-07
5.75289e-07
5.79586e-07
5.83822e-07
5.87971e-07
5.92013e-07
5.95932e-07
5.99716e-07
6.03356e-07
6.06845e-07
6.10178e-07
6.13353e-07
6.16369e-07
6.19225e-07
6.21923e-07
6.24464e-07
6.26851e-07
6.29087e-07
6.31175e-07
6.33118e-07
6.3492e-07
6.36587e-07
6.38121e-07
6.39527e-07
6.4081e-07
6.41974e-07
6.43024e-07
6.43963e-07
6.44795e-07
6.45526e-07
6.46159e-07
6.46698e-07
6.47147e-07
6.4751e-07
6.47793e-07
6.47993e-07
6.48134e-07
6.48172e-07
6.48196e-07
6.48045e-07
6.47847e-07
6.47692e-07
6.4741e-07
6.47103e-07
6.46729e-07
6.46308e-07
6.45837e-07
6.45321e-07
6.44761e-07
6.44159e-07
6.43517e-07
6.42838e-07
6.42124e-07
6.41375e-07
6.40595e-07
6.39783e-07
6.38944e-07
6.38076e-07
6.37184e-07
6.36266e-07
6.35326e-07
6.34365e-07
6.33381e-07
6.32374e-07
6.3135e-07
6.30309e-07
6.2925e-07
6.28172e-07
6.27076e-07
6.2597e-07
6.2485e-07
6.2372e-07
6.22578e-07
6.21425e-07
6.20261e-07
6.19087e-07
6.17903e-07
6.1671e-07
6.1551e-07
6.14297e-07
6.13091e-07
6.11835e-07
6.10674e-07
5.91933e-07
5.80055e-07
5.69835e-07
5.62378e-07
5.56705e-07
5.52917e-07
5.50596e-07
5.49609e-07
5.49706e-07
5.50728e-07
5.52501e-07
5.54886e-07
5.57756e-07
5.61002e-07
5.64532e-07
5.68265e-07
5.72135e-07
5.76084e-07
5.80065e-07
5.84039e-07
5.87973e-07
5.9184e-07
5.95619e-07
5.99293e-07
6.02848e-07
6.06274e-07
6.09563e-07
6.1271e-07
6.1571e-07
6.18563e-07
6.21266e-07
6.23821e-07
6.26228e-07
6.28489e-07
6.30606e-07
6.32582e-07
6.34421e-07
6.36126e-07
6.377e-07
6.39147e-07
6.40472e-07
6.41678e-07
6.42769e-07
6.4375e-07
6.44625e-07
6.45396e-07
6.4607e-07
6.46648e-07
6.47136e-07
6.47536e-07
6.47853e-07
6.48091e-07
6.48252e-07
6.48339e-07
6.48361e-07
6.48285e-07
6.48149e-07
6.47983e-07
6.47767e-07
6.47458e-07
6.47111e-07
6.46707e-07
6.46259e-07
6.45763e-07
6.45224e-07
6.44642e-07
6.4402e-07
6.4336e-07
6.42664e-07
6.41933e-07
6.41168e-07
6.40373e-07
6.39548e-07
6.38694e-07
6.37815e-07
6.3691e-07
6.35981e-07
6.35029e-07
6.34056e-07
6.33062e-07
6.32047e-07
6.31013e-07
6.29962e-07
6.28895e-07
6.27811e-07
6.26711e-07
6.25598e-07
6.24472e-07
6.23335e-07
6.22186e-07
6.21027e-07
6.19858e-07
6.18679e-07
6.17491e-07
6.16293e-07
6.1509e-07
6.13874e-07
6.12666e-07
6.11404e-07
6.10246e-07
6.06544e-07
5.94068e-07
5.83196e-07
5.75086e-07
5.68747e-07
5.643e-07
5.61325e-07
5.597e-07
5.59179e-07
5.59606e-07
5.6081e-07
5.62655e-07
5.65012e-07
5.67775e-07
5.7085e-07
5.74157e-07
5.77626e-07
5.81201e-07
5.84831e-07
5.88478e-07
5.92106e-07
5.95687e-07
5.992e-07
6.02624e-07
6.05947e-07
6.09155e-07
6.12241e-07
6.15198e-07
6.1802e-07
6.20706e-07
6.23253e-07
6.25662e-07
6.27931e-07
6.30063e-07
6.32059e-07
6.33922e-07
6.35654e-07
6.37258e-07
6.38738e-07
6.40096e-07
6.41337e-07
6.42465e-07
6.43482e-07
6.44393e-07
6.45201e-07
6.45911e-07
6.46525e-07
6.47048e-07
6.47483e-07
6.47834e-07
6.48103e-07
6.48295e-07
6.48411e-07
6.48457e-07
6.48429e-07
6.48333e-07
6.48176e-07
6.4797e-07
6.47707e-07
6.47379e-07
6.47005e-07
6.46578e-07
6.46105e-07
6.45586e-07
6.45025e-07
6.44423e-07
6.43781e-07
6.43102e-07
6.42388e-07
6.4164e-07
6.4086e-07
6.40049e-07
6.3921e-07
6.38343e-07
6.37451e-07
6.36534e-07
6.35593e-07
6.3463e-07
6.33646e-07
6.32642e-07
6.31618e-07
6.30576e-07
6.29516e-07
6.28441e-07
6.27349e-07
6.26243e-07
6.25124e-07
6.23992e-07
6.22849e-07
6.21695e-07
6.20531e-07
6.19357e-07
6.18173e-07
6.16981e-07
6.1578e-07
6.14573e-07
6.13354e-07
6.12143e-07
6.10877e-07
6.09722e-07
6.21104e-07
6.08034e-07
5.96516e-07
5.87761e-07
5.80763e-07
5.75662e-07
5.72039e-07
5.69782e-07
5.68647e-07
5.68483e-07
5.69121e-07
5.70425e-07
5.72271e-07
5.7455e-07
5.77168e-07
5.80046e-07
5.83112e-07
5.86309e-07
5.89586e-07
5.92902e-07
5.9622e-07
5.99512e-07
6.02754e-07
6.05926e-07
6.09012e-07
6.11999e-07
6.14878e-07
6.17641e-07
6.20282e-07
6.22798e-07
6.25186e-07
6.27445e-07
6.29575e-07
6.31575e-07
6.33448e-07
6.35194e-07
6.36817e-07
6.38318e-07
6.39701e-07
6.40969e-07
6.42125e-07
6.43172e-07
6.44113e-07
6.44952e-07
6.45693e-07
6.46339e-07
6.46893e-07
6.47359e-07
6.4774e-07
6.48039e-07
6.4826e-07
6.48406e-07
6.48479e-07
6.48481e-07
6.48418e-07
6.48285e-07
6.48094e-07
6.47857e-07
6.47562e-07
6.47208e-07
6.46805e-07
6.46352e-07
6.45854e-07
6.45312e-07
6.44728e-07
6.44104e-07
6.43442e-07
6.42744e-07
6.42012e-07
6.41247e-07
6.40451e-07
6.39625e-07
6.38772e-07
6.37891e-07
6.36986e-07
6.36056e-07
6.35104e-07
6.3413e-07
6.33135e-07
6.32121e-07
6.31088e-07
6.30037e-07
6.2897e-07
6.27887e-07
6.26788e-07
6.25676e-07
6.24551e-07
6.23414e-07
6.22265e-07
6.21106e-07
6.19936e-07
6.18757e-07
6.1757e-07
6.16374e-07
6.15169e-07
6.1396e-07
6.12737e-07
6.11525e-07
6.10255e-07
6.09102e-07
6.3561e-07
6.21951e-07
6.09792e-07
6.00399e-07
5.92748e-07
5.87e-07
5.82736e-07
5.79852e-07
5.78107e-07
5.77355e-07
5.77428e-07
5.78195e-07
5.79528e-07
5.81323e-07
5.83484e-07
5.8593e-07
5.88591e-07
5.91408e-07
5.94329e-07
5.9731e-07
6.00315e-07
6.03314e-07
6.06282e-07
6.09197e-07
6.12043e-07
6.14806e-07
6.17474e-07
6.2004e-07
6.22497e-07
6.2484e-07
6.27066e-07
6.29173e-07
6.3116e-07
6.33026e-07
6.34772e-07
6.364e-07
6.37911e-07
6.39307e-07
6.40592e-07
6.41767e-07
6.42835e-07
6.438e-07
6.44663e-07
6.4543e-07
6.46101e-07
6.46682e-07
6.47174e-07
6.47582e-07
6.47908e-07
6.48155e-07
6.48326e-07
6.48425e-07
6.48454e-07
6.48415e-07
6.48311e-07
6.48146e-07
6.47923e-07
6.47648e-07
6.47319e-07
6.46936e-07
6.46505e-07
6.46026e-07
6.45503e-07
6.44937e-07
6.44331e-07
6.43685e-07
6.43003e-07
6.42286e-07
6.41536e-07
6.40754e-07
6.39942e-07
6.39101e-07
6.38233e-07
6.37339e-07
6.36421e-07
6.35479e-07
6.34515e-07
6.3353e-07
6.32525e-07
6.31501e-07
6.30459e-07
6.294e-07
6.28324e-07
6.27234e-07
6.26129e-07
6.2501e-07
6.23879e-07
6.22736e-07
6.21583e-07
6.20418e-07
6.19244e-07
6.18061e-07
6.1687e-07
6.1567e-07
6.14462e-07
6.1325e-07
6.12025e-07
6.10811e-07
6.09537e-07
6.08387e-07
6.50059e-07
6.35814e-07
6.2302e-07
6.12994e-07
6.04698e-07
5.98309e-07
5.9341e-07
5.89904e-07
5.87554e-07
5.86218e-07
5.8573e-07
5.85959e-07
5.86782e-07
5.88091e-07
5.89794e-07
5.91808e-07
5.94062e-07
5.96496e-07
5.99057e-07
6.01701e-07
6.0439e-07
6.07093e-07
6.09783e-07
6.12438e-07
6.15041e-07
6.17575e-07
6.2003e-07
6.22396e-07
6.24665e-07
6.26832e-07
6.28893e-07
6.30845e-07
6.32686e-07
6.34415e-07
6.36033e-07
6.3754e-07
6.38937e-07
6.40226e-07
6.4141e-07
6.4249e-07
6.43469e-07
6.4435e-07
6.45134e-07
6.45826e-07
6.46427e-07
6.46941e-07
6.4737e-07
6.47718e-07
6.47988e-07
6.48182e-07
6.48303e-07
6.48354e-07
6.48338e-07
6.48257e-07
6.48114e-07
6.47912e-07
6.47654e-07
6.47344e-07
6.46982e-07
6.4657e-07
6.4611e-07
6.45604e-07
6.45056e-07
6.44465e-07
6.43836e-07
6.43169e-07
6.42467e-07
6.4173e-07
6.40962e-07
6.40163e-07
6.39334e-07
6.38478e-07
6.37595e-07
6.36688e-07
6.35756e-07
6.34802e-07
6.33827e-07
6.32831e-07
6.31816e-07
6.30782e-07
6.29731e-07
6.28664e-07
6.27581e-07
6.26483e-07
6.25371e-07
6.24247e-07
6.2311e-07
6.21962e-07
6.20803e-07
6.19634e-07
6.18456e-07
6.17269e-07
6.16074e-07
6.14872e-07
6.13661e-07
6.12446e-07
6.11218e-07
6.10003e-07
6.08726e-07
6.07579e-07
6.64448e-07
6.49621e-07
6.36197e-07
6.25545e-07
6.16609e-07
6.09587e-07
6.04059e-07
5.99937e-07
5.96986e-07
5.95069e-07
5.94021e-07
5.93716e-07
5.94028e-07
5.94853e-07
5.96096e-07
5.97676e-07
5.99522e-07
6.0157e-07
6.03769e-07
6.06073e-07
6.08443e-07
6.10847e-07
6.13256e-07
6.15649e-07
6.18004e-07
6.20308e-07
6.22546e-07
6.24708e-07
6.26787e-07
6.28775e-07
6.30668e-07
6.32462e-07
6.34155e-07
6.35745e-07
6.37231e-07
6.38614e-07
6.39895e-07
6.41075e-07
6.42156e-07
6.4314e-07
6.44028e-07
6.44823e-07
6.45527e-07
6.46142e-07
6.46671e-07
6.47117e-07
6.47482e-07
6.4777e-07
6.47982e-07
6.48122e-07
6.48192e-07
6.48195e-07
6.48133e-07
6.48009e-07
6.47826e-07
6.47586e-07
6.47292e-07
6.46947e-07
6.46552e-07
6.46108e-07
6.45619e-07
6.45086e-07
6.44512e-07
6.43897e-07
6.43244e-07
6.42556e-07
6.41833e-07
6.41077e-07
6.4029e-07
6.39473e-07
6.38629e-07
6.37757e-07
6.3686e-07
6.35939e-07
6.34994e-07
6.34028e-07
6.33041e-07
6.32035e-07
6.31009e-07
6.29966e-07
6.28907e-07
6.27831e-07
6.2674e-07
6.25635e-07
6.24517e-07
6.23387e-07
6.22245e-07
6.21091e-07
6.19928e-07
6.18755e-07
6.17573e-07
6.16382e-07
6.15184e-07
6.13978e-07
6.12765e-07
6.11548e-07
6.10318e-07
6.09102e-07
6.07822e-07
6.06677e-07
6.78771e-07
6.63367e-07
6.49319e-07
6.38047e-07
6.28478e-07
6.20829e-07
6.14677e-07
6.09945e-07
6.06398e-07
6.03904e-07
6.023e-07
6.01461e-07
6.01264e-07
6.01605e-07
6.02389e-07
6.03534e-07
6.04969e-07
6.06631e-07
6.08465e-07
6.10427e-07
6.12475e-07
6.14576e-07
6.16702e-07
6.18828e-07
6.20934e-07
6.23003e-07
6.25021e-07
6.26977e-07
6.28862e-07
6.30668e-07
6.32391e-07
6.34025e-07
6.35567e-07
6.37015e-07
6.38367e-07
6.39625e-07
6.40787e-07
6.41855e-07
6.42832e-07
6.43717e-07
6.44513e-07
6.4522e-07
6.45842e-07
6.46379e-07
6.46835e-07
6.47211e-07
6.47511e-07
6.47737e-07
6.47891e-07
6.47975e-07
6.47993e-07
6.47947e-07
6.47839e-07
6.47671e-07
6.47447e-07
6.47168e-07
6.46837e-07
6.46457e-07
6.46028e-07
6.45554e-07
6.45035e-07
6.44474e-07
6.43873e-07
6.43233e-07
6.42557e-07
6.41847e-07
6.41103e-07
6.40327e-07
6.39522e-07
6.38688e-07
6.37827e-07
6.3694e-07
6.36028e-07
6.35093e-07
6.34136e-07
6.33157e-07
6.32159e-07
6.31142e-07
6.30106e-07
6.29054e-07
6.27985e-07
6.26902e-07
6.25804e-07
6.24692e-07
6.23568e-07
6.22431e-07
6.21284e-07
6.20126e-07
6.18958e-07
6.17781e-07
6.16595e-07
6.15401e-07
6.14199e-07
6.12991e-07
6.11775e-07
6.10557e-07
6.09325e-07
6.08108e-07
6.06825e-07
6.05684e-07
6.93027e-07
6.77049e-07
6.62382e-07
6.50497e-07
6.40302e-07
6.32031e-07
6.25263e-07
6.19925e-07
6.15787e-07
6.12719e-07
6.10563e-07
6.09193e-07
6.08488e-07
6.08345e-07
6.08669e-07
6.09379e-07
6.10402e-07
6.11675e-07
6.13143e-07
6.1476e-07
6.16483e-07
6.1828e-07
6.20119e-07
6.21976e-07
6.23829e-07
6.2566e-07
6.27456e-07
6.29203e-07
6.30891e-07
6.32513e-07
6.34062e-07
6.35533e-07
6.36922e-07
6.38226e-07
6.39443e-07
6.40572e-07
6.41612e-07
6.42567e-07
6.43438e-07
6.44223e-07
6.44925e-07
6.45543e-07
6.46081e-07
6.46539e-07
6.4692e-07
6.47225e-07
6.47458e-07
6.47621e-07
6.47715e-07
6.47744e-07
6.47708e-07
6.47612e-07
6.47457e-07
6.47245e-07
6.46979e-07
6.4666e-07
6.46292e-07
6.45876e-07
6.45413e-07
6.44907e-07
6.44358e-07
6.43769e-07
6.43141e-07
6.42476e-07
6.41776e-07
6.41043e-07
6.40278e-07
6.39483e-07
6.38659e-07
6.37807e-07
6.36929e-07
6.36027e-07
6.351e-07
6.34151e-07
6.33181e-07
6.32191e-07
6.31181e-07
6.30153e-07
6.29108e-07
6.28046e-07
6.26969e-07
6.25878e-07
6.24772e-07
6.23654e-07
6.22524e-07
6.21382e-07
6.20229e-07
6.19066e-07
6.17894e-07
6.16713e-07
6.15523e-07
6.14326e-07
6.13122e-07
6.11912e-07
6.10694e-07
6.09474e-07
6.0824e-07
6.07023e-07
6.05738e-07
6.046e-07
7.07211e-07
6.90665e-07
6.75384e-07
6.62891e-07
6.52076e-07
6.4319e-07
6.35811e-07
6.29873e-07
6.25148e-07
6.21512e-07
6.18805e-07
6.16907e-07
6.15696e-07
6.1507e-07
6.14935e-07
6.15209e-07
6.15819e-07
6.16702e-07
6.17802e-07
6.19071e-07
6.20468e-07
6.21957e-07
6.23507e-07
6.25092e-07
6.26689e-07
6.28281e-07
6.2985e-07
6.31385e-07
6.32875e-07
6.3431e-07
6.35683e-07
6.36989e-07
6.38223e-07
6.39381e-07
6.40459e-07
6.41458e-07
6.42373e-07
6.43212e-07
6.43975e-07
6.44658e-07
6.45264e-07
6.45792e-07
6.46245e-07
6.46622e-07
6.46926e-07
6.4716e-07
6.47325e-07
6.47423e-07
6.47457e-07
6.47428e-07
6.47339e-07
6.47192e-07
6.46988e-07
6.46731e-07
6.46422e-07
6.46063e-07
6.45657e-07
6.45204e-07
6.44708e-07
6.44169e-07
6.4359e-07
6.42972e-07
6.42316e-07
6.41626e-07
6.40902e-07
6.40146e-07
6.3936e-07
6.38545e-07
6.37702e-07
6.36832e-07
6.35938e-07
6.35019e-07
6.34078e-07
6.33116e-07
6.32133e-07
6.3113e-07
6.30109e-07
6.29071e-07
6.28016e-07
6.26945e-07
6.25859e-07
6.2476e-07
6.23648e-07
6.22523e-07
6.21386e-07
6.20239e-07
6.19081e-07
6.17913e-07
6.16737e-07
6.15552e-07
6.1436e-07
6.1316e-07
6.11953e-07
6.10741e-07
6.09521e-07
6.083e-07
6.07065e-07
6.05848e-07
6.04561e-07
6.03425e-07
7.21321e-07
7.04209e-07
6.88321e-07
6.75225e-07
6.63796e-07
6.54302e-07
6.46318e-07
6.39786e-07
6.3448e-07
6.30279e-07
6.27025e-07
6.24601e-07
6.22886e-07
6.21778e-07
6.21184e-07
6.21022e-07
6.21218e-07
6.2171e-07
6.2244e-07
6.23361e-07
6.24429e-07
6.25608e-07
6.26866e-07
6.28176e-07
6.29515e-07
6.30864e-07
6.32205e-07
6.33525e-07
6.34813e-07
6.36058e-07
6.37253e-07
6.38392e-07
6.39468e-07
6.40477e-07
6.41415e-07
6.42282e-07
6.43067e-07
6.4379e-07
6.44445e-07
6.45025e-07
6.45534e-07
6.4597e-07
6.46335e-07
6.4663e-07
6.46857e-07
6.47017e-07
6.47112e-07
6.47145e-07
6.47117e-07
6.4703e-07
6.46886e-07
6.46687e-07
6.46435e-07
6.46131e-07
6.45779e-07
6.45379e-07
6.44933e-07
6.44444e-07
6.43913e-07
6.43342e-07
6.42731e-07
6.42084e-07
6.41401e-07
6.40684e-07
6.39936e-07
6.39157e-07
6.38349e-07
6.37514e-07
6.36652e-07
6.35765e-07
6.34854e-07
6.3392e-07
6.32964e-07
6.31987e-07
6.30991e-07
6.29976e-07
6.28944e-07
6.27895e-07
6.2683e-07
6.25751e-07
6.24657e-07
6.2355e-07
6.2243e-07
6.21299e-07
6.20156e-07
6.19004e-07
6.17841e-07
6.16669e-07
6.15489e-07
6.14301e-07
6.13105e-07
6.11903e-07
6.10694e-07
6.0948e-07
6.08259e-07
6.07036e-07
6.05801e-07
6.04583e-07
6.03295e-07
6.02163e-07
7.35352e-07
7.1768e-07
7.01188e-07
6.87497e-07
6.75461e-07
6.65364e-07
6.56781e-07
6.4966e-07
6.43778e-07
6.39016e-07
6.3522e-07
6.32272e-07
6.30054e-07
6.28466e-07
6.27413e-07
6.26815e-07
6.26598e-07
6.26697e-07
6.27057e-07
6.27627e-07
6.28364e-07
6.29231e-07
6.30195e-07
6.31228e-07
6.32307e-07
6.3341e-07
6.3452e-07
6.35623e-07
6.36706e-07
6.37759e-07
6.38774e-07
6.39742e-07
6.4066e-07
6.41521e-07
6.42318e-07
6.43054e-07
6.43703e-07
6.443e-07
6.44848e-07
6.45323e-07
6.45734e-07
6.46076e-07
6.46353e-07
6.46563e-07
6.46711e-07
6.46796e-07
6.46821e-07
6.46787e-07
6.46697e-07
6.4655e-07
6.4635e-07
6.46098e-07
6.45797e-07
6.45446e-07
6.4505e-07
6.44608e-07
6.44123e-07
6.43597e-07
6.43031e-07
6.42426e-07
6.41784e-07
6.41107e-07
6.40396e-07
6.39653e-07
6.38879e-07
6.38077e-07
6.37248e-07
6.36392e-07
6.35511e-07
6.34606e-07
6.33678e-07
6.32728e-07
6.31757e-07
6.30767e-07
6.29758e-07
6.28731e-07
6.27688e-07
6.26628e-07
6.25554e-07
6.24465e-07
6.23363e-07
6.22248e-07
6.21122e-07
6.19984e-07
6.18836e-07
6.17678e-07
6.16511e-07
6.15335e-07
6.14151e-07
6.1296e-07
6.11761e-07
6.10557e-07
6.09346e-07
6.0813e-07
6.06908e-07
6.05684e-07
6.04448e-07
6.03231e-07
6.01941e-07
6.00812e-07
7.49302e-07
7.31073e-07
7.13984e-07
6.99702e-07
6.87065e-07
6.76373e-07
6.67196e-07
6.59492e-07
6.53038e-07
6.4772e-07
6.43385e-07
6.39917e-07
6.37199e-07
6.35132e-07
6.33622e-07
6.32588e-07
6.31956e-07
6.31663e-07
6.3165e-07
6.31868e-07
6.32273e-07
6.32826e-07
6.33494e-07
6.34248e-07
6.35064e-07
6.35919e-07
6.36796e-07
6.37679e-07
6.38555e-07
6.39413e-07
6.40244e-07
6.4104e-07
6.41797e-07
6.42505e-07
6.4316e-07
6.43756e-07
6.44256e-07
6.4475e-07
6.45191e-07
6.45559e-07
6.45869e-07
6.46114e-07
6.46299e-07
6.46424e-07
6.46491e-07
6.465e-07
6.46453e-07
6.46352e-07
6.46197e-07
6.4599e-07
6.45734e-07
6.45428e-07
6.45076e-07
6.44678e-07
6.44236e-07
6.43752e-07
6.43228e-07
6.42664e-07
6.42062e-07
6.41424e-07
6.40751e-07
6.40043e-07
6.39302e-07
6.38532e-07
6.37734e-07
6.36908e-07
6.36057e-07
6.35181e-07
6.34281e-07
6.33358e-07
6.32413e-07
6.31447e-07
6.30461e-07
6.29457e-07
6.28435e-07
6.27396e-07
6.26341e-07
6.25271e-07
6.24187e-07
6.23089e-07
6.21979e-07
6.20857e-07
6.19723e-07
6.1858e-07
6.17426e-07
6.16263e-07
6.15091e-07
6.13911e-07
6.12724e-07
6.1153e-07
6.10329e-07
6.09122e-07
6.07909e-07
6.06692e-07
6.05469e-07
6.04245e-07
6.03008e-07
6.01792e-07
6.00501e-07
5.99376e-07
7.63166e-07
7.44386e-07
7.26705e-07
7.11839e-07
6.98606e-07
6.87324e-07
6.7756e-07
6.69279e-07
6.62259e-07
6.56389e-07
6.51518e-07
6.47533e-07
6.44317e-07
6.41773e-07
6.39806e-07
6.38337e-07
6.37291e-07
6.36605e-07
6.36219e-07
6.36084e-07
6.36155e-07
6.36393e-07
6.36763e-07
6.37236e-07
6.37786e-07
6.38391e-07
6.39032e-07
6.39692e-07
6.40359e-07
6.41019e-07
6.41664e-07
6.42285e-07
6.42879e-07
6.43437e-07
6.43955e-07
6.44445e-07
6.44791e-07
6.45112e-07
6.45465e-07
6.45724e-07
6.45934e-07
6.46082e-07
6.46174e-07
6.46212e-07
6.46197e-07
6.46129e-07
6.46009e-07
6.45839e-07
6.4562e-07
6.45352e-07
6.45037e-07