/*--------------------------------*- C++ -*----------------------------------*\
| =========                 |                                                 |
| \\      /  F ield         | foam-extend: Open Source CFD                    |
|  \\    /   O peration     | Version:     4.1                                |
|   \\  /    A nd           | Web:         http://www.foam-extend.org         |
|    \\/     M anipulation  |                                                 |
\*---------------------------------------------------------------------------*/
FoamFile
{
    version     2.0;
    format      ascii;
    class       volVectorField;
    location    "0";
    object      D;
}
// * * * * * * * * * * * * * * * * * * * * * * * * * * * * * * * * * * * * * //

dimensions      [0 1 0 0 0 0 0];

internalField   nonuniform List<vector> 
100000
(
(1.07154e-06 -4.57493e-07 0)
(1.07341e-06 -4.56951e-07 0)
(1.07497e-06 -4.56481e-07 0)
(1.07594e-06 -4.56116e-07 0)
(1.07605e-06 -4.55839e-07 0)
(1.07511e-06 -4.55588e-07 0)
(1.07306e-06 -4.55324e-07 0)
(1.06995e-06 -4.55029e-07 0)
(1.06599e-06 -4.54671e-07 0)
(1.06147e-06 -4.54193e-07 0)
(1.02674e-06 -4.35376e-07 0)
(1.02613e-06 -4.33181e-07 0)
(1.02567e-06 -4.31321e-07 0)
(1.02515e-06 -4.29869e-07 0)
(1.02438e-06 -4.28855e-07 0)
(1.02322e-06 -4.28244e-07 0)
(1.02153e-06 -4.27954e-07 0)
(1.01926e-06 -4.27878e-07 0)
(1.01647e-06 -4.279e-07 0)
(1.01326e-06 -4.27911e-07 0)
(9.84025e-07 -4.11261e-07 0)
(9.84213e-07 -4.09584e-07 0)
(9.8437e-07 -4.08166e-07 0)
(9.84339e-07 -4.07079e-07 0)
(9.83992e-07 -4.06362e-07 0)
(9.83239e-07 -4.06002e-07 0)
(9.8202e-07 -4.05957e-07 0)
(9.80319e-07 -4.06156e-07 0)
(9.78194e-07 -4.06512e-07 0)
(9.7576e-07 -4.06935e-07 0)
(9.58476e-07 -3.98035e-07 0)
(9.59189e-07 -3.96822e-07 0)
(9.59759e-07 -3.95804e-07 0)
(9.60068e-07 -3.95046e-07 0)
(9.60029e-07 -3.94585e-07 0)
(9.5959e-07 -3.94423e-07 0)
(9.58728e-07 -3.94539e-07 0)
(9.57452e-07 -3.9489e-07 0)
(9.55822e-07 -3.95416e-07 0)
(9.5394e-07 -3.96043e-07 0)
(9.45151e-07 -3.92246e-07 0)
(9.46159e-07 -3.91319e-07 0)
(9.46968e-07 -3.90555e-07 0)
(9.47487e-07 -3.90009e-07 0)
(9.47655e-07 -3.89716e-07 0)
(9.47445e-07 -3.89685e-07 0)
(9.46853e-07 -3.89907e-07 0)
(9.45901e-07 -3.90354e-07 0)
(9.44648e-07 -3.90981e-07 0)
(9.4318e-07 -3.91727e-07 0)
(9.40586e-07 -3.9156e-07 0)
(9.41762e-07 -3.90855e-07 0)
(9.42712e-07 -3.90289e-07 0)
(9.43366e-07 -3.89909e-07 0)
(9.4368e-07 -3.89745e-07 0)
(9.43641e-07 -3.8981e-07 0)
(9.43257e-07 -3.90101e-07 0)
(9.42556e-07 -3.906e-07 0)
(9.4159e-07 -3.91273e-07 0)
(9.40437e-07 -3.9207e-07 0)
(9.42471e-07 -3.94421e-07 0)
(9.43731e-07 -3.93873e-07 0)
(9.4476e-07 -3.93448e-07 0)
(9.45497e-07 -3.93186e-07 0)
(9.45914e-07 -3.93113e-07 0)
(9.46004e-07 -3.93244e-07 0)
(9.45782e-07 -3.93578e-07 0)
(9.45275e-07 -3.94103e-07 0)
(9.44534e-07 -3.94793e-07 0)
(9.43624e-07 -3.95606e-07 0)
(9.4916e-07 -3.99782e-07 0)
(9.50454e-07 -3.99354e-07 0)
(9.5152e-07 -3.99037e-07 0)
(9.52307e-07 -3.98865e-07 0)
(9.52794e-07 -3.98861e-07 0)
(9.52981e-07 -3.99037e-07 0)
(9.52882e-07 -3.99397e-07 0)
(9.52527e-07 -3.99931e-07 0)
(9.51959e-07 -4.00618e-07 0)
(9.51235e-07 -4.01421e-07 0)
(9.59524e-07 -4.06881e-07 0)
(9.60819e-07 -4.06542e-07 0)
(9.61895e-07 -4.06306e-07 0)
(9.6271e-07 -4.062e-07 0)
(9.63247e-07 -4.06245e-07 0)
(9.63508e-07 -4.06453e-07 0)
(9.63509e-07 -4.06826e-07 0)
(9.63278e-07 -4.07357e-07 0)
(9.62853e-07 -4.08029e-07 0)
(9.62283e-07 -4.0881e-07 0)
(9.68454e-07 -4.17368e-07 0)
(9.69634e-07 -4.17117e-07 0)
(9.70592e-07 -4.16961e-07 0)
(9.71281e-07 -4.16929e-07 0)
(9.71674e-07 -4.1704e-07 0)
(9.71764e-07 -4.17308e-07 0)
(9.71561e-07 -4.17736e-07 0)
(9.71091e-07 -4.18315e-07 0)
(9.70391e-07 -4.19025e-07 0)
(9.69513e-07 -4.19838e-07 0)
(1.06754e-06 -4.59329e-07 0)
(1.06874e-06 -4.59144e-07 0)
(1.06957e-06 -4.59101e-07 0)
(1.06987e-06 -4.59178e-07 0)
(1.0696e-06 -4.59197e-07 0)
(1.06874e-06 -4.58901e-07 0)
(1.06715e-06 -4.58247e-07 0)
(1.06465e-06 -4.57406e-07 0)
(1.06125e-06 -4.56493e-07 0)
(1.05711e-06 -4.55496e-07 0)
(1.02387e-06 -4.37521e-07 0)
(1.02226e-06 -4.3551e-07 0)
(1.0208e-06 -4.33915e-07 0)
(1.0194e-06 -4.32745e-07 0)
(1.01809e-06 -4.31922e-07 0)
(1.01691e-06 -4.31295e-07 0)
(1.01567e-06 -4.30757e-07 0)
(1.01403e-06 -4.30288e-07 0)
(1.01181e-06 -4.29864e-07 0)
(1.00902e-06 -4.29422e-07 0)
(9.8065e-07 -4.13581e-07 0)
(9.79951e-07 -4.12146e-07 0)
(9.79224e-07 -4.11024e-07 0)
(9.78423e-07 -4.10225e-07 0)
(9.7761e-07 -4.09687e-07 0)
(9.76847e-07 -4.09309e-07 0)
(9.76025e-07 -4.09037e-07 0)
(9.74915e-07 -4.08878e-07 0)
(9.73378e-07 -4.08829e-07 0)
(9.71421e-07 -4.08849e-07 0)
(9.5467e-07 -4.00458e-07 0)
(9.54606e-07 -3.99537e-07 0)
(9.54404e-07 -3.98841e-07 0)
(9.5405e-07 -3.98375e-07 0)
(9.53618e-07 -3.98086e-07 0)
(9.53177e-07 -3.97908e-07 0)
(9.5267e-07 -3.97818e-07 0)
(9.51944e-07 -3.97844e-07 0)
(9.50897e-07 -3.98001e-07 0)
(9.49529e-07 -3.98268e-07 0)
(9.40986e-07 -3.94759e-07 0)
(9.41317e-07 -3.94147e-07 0)
(9.41454e-07 -3.93707e-07 0)
(9.41404e-07 -3.9344e-07 0)
(9.41243e-07 -3.93308e-07 0)
(9.4104e-07 -3.93265e-07 0)
(9.4077e-07 -3.93308e-07 0)
(9.40332e-07 -3.93468e-07 0)
(9.39648e-07 -3.93769e-07 0)
(9.38714e-07 -3.942e-07 0)
(9.36112e-07 -3.94139e-07 0)
(9.36701e-07 -3.93762e-07 0)
(9.37069e-07 -3.93517e-07 0)
(9.37237e-07 -3.93404e-07 0)
(9.37277e-07 -3.93391e-07 0)
(9.37257e-07 -3.93449e-07 0)
(9.3717e-07 -3.93586e-07 0)
(9.36948e-07 -3.93834e-07 0)
(9.36533e-07 -3.94221e-07 0)
(9.35921e-07 -3.94741e-07 0)
(9.37728e-07 -3.97059e-07 0)
(9.3848e-07 -3.96839e-07 0)
(9.39007e-07 -3.96726e-07 0)
(9.39332e-07 -3.96716e-07 0)
(9.39523e-07 -3.96785e-07 0)
(9.39643e-07 -3.96915e-07 0)
(9.39698e-07 -3.97119e-07 0)
(9.39642e-07 -3.97428e-07 0)
(9.39433e-07 -3.97868e-07 0)
(9.39062e-07 -3.98439e-07 0)
(9.44182e-07 -4.02466e-07 0)
(9.45039e-07 -4.02363e-07 0)
(9.45674e-07 -4.02346e-07 0)
(9.46114e-07 -4.02411e-07 0)
(9.46419e-07 -4.0254e-07 0)
(9.46646e-07 -4.02724e-07 0)
(9.46808e-07 -4.02975e-07 0)
(9.46877e-07 -4.03323e-07 0)
(9.46819e-07 -4.03793e-07 0)
(9.46628e-07 -4.04386e-07 0)
(9.54331e-07 -4.09612e-07 0)
(9.55248e-07 -4.0959e-07 0)
(9.55955e-07 -4.0964e-07 0)
(9.56477e-07 -4.09758e-07 0)
(9.56869e-07 -4.0993e-07 0)
(9.57183e-07 -4.10151e-07 0)
(9.57435e-07 -4.10435e-07 0)
(9.57607e-07 -4.10807e-07 0)
(9.57674e-07 -4.11291e-07 0)
(9.57628e-07 -4.11889e-07 0)
(9.63075e-07 -4.20174e-07 0)
(9.63895e-07 -4.20252e-07 0)
(9.64509e-07 -4.2039e-07 0)
(9.6492e-07 -4.20589e-07 0)
(9.65149e-07 -4.2085e-07 0)
(9.65221e-07 -4.21176e-07 0)
(9.65144e-07 -4.21578e-07 0)
(9.64914e-07 -4.22072e-07 0)
(9.64526e-07 -4.22663e-07 0)
(9.63991e-07 -4.23342e-07 0)
(1.06384e-06 -4.61066e-07 0)
(1.06466e-06 -4.61155e-07 0)
(1.06518e-06 -4.61449e-07 0)
(1.0653e-06 -4.61935e-07 0)
(1.06502e-06 -4.62317e-07 0)
(1.06429e-06 -4.62008e-07 0)
(1.06285e-06 -4.60935e-07 0)
(1.06052e-06 -4.59576e-07 0)
(1.05729e-06 -4.58175e-07 0)
(1.05329e-06 -4.56712e-07 0)
(1.02123e-06 -4.394e-07 0)
(1.0188e-06 -4.37461e-07 0)
(1.01657e-06 -4.35984e-07 0)
(1.01448e-06 -4.3496e-07 0)
(1.01274e-06 -4.34279e-07 0)
(1.01165e-06 -4.33689e-07 0)
(1.01085e-06 -4.33017e-07 0)
(1.00968e-06 -4.32297e-07 0)
(1.00782e-06 -4.31558e-07 0)
(1.00526e-06 -4.30757e-07 0)
(9.77655e-07 -4.1559e-07 0)
(9.76242e-07 -4.14275e-07 0)
(9.74838e-07 -4.13302e-07 0)
(9.73434e-07 -4.1266e-07 0)
(9.72247e-07 -4.12251e-07 0)
(9.71541e-07 -4.11888e-07 0)
(9.71108e-07 -4.11485e-07 0)
(9.70449e-07 -4.11102e-07 0)
(9.69301e-07 -4.10781e-07 0)
(9.67635e-07 -4.10501e-07 0)
(9.51374e-07 -4.02533e-07 0)
(9.50707e-07 -4.01785e-07 0)
(9.49924e-07 -4.01277e-07 0)
(9.49055e-07 -4.00992e-07 0)
(9.48302e-07 -4.00833e-07 0)
(9.47897e-07 -4.00655e-07 0)
(9.47723e-07 -4.00428e-07 0)
(9.47421e-07 -4.00239e-07 0)
(9.46771e-07 -4.00151e-07 0)
(9.45737e-07 -4.0016e-07 0)
(9.37445e-07 -3.96882e-07 0)
(9.3727e-07 -3.96469e-07 0)
(9.3691e-07 -3.96231e-07 0)
(9.36416e-07 -3.96148e-07 0)
(9.35979e-07 -3.96133e-07 0)
(9.35801e-07 -3.96084e-07 0)
(9.35823e-07 -3.95998e-07 0)
(9.35783e-07 -3.95968e-07 0)
(9.35499e-07 -3.96059e-07 0)
(9.34929e-07 -3.96278e-07 0)
(9.32362e-07 -3.9629e-07 0)
(9.3253e-07 -3.96132e-07 0)
(9.32476e-07 -3.96101e-07 0)
(9.32264e-07 -3.9617e-07 0)
(9.32068e-07 -3.96267e-07 0)
(9.32067e-07 -3.96317e-07 0)
(9.32239e-07 -3.96335e-07 0)
(9.32393e-07 -3.96413e-07 0)
(9.32378e-07 -3.96618e-07 0)
(9.3215e-07 -3.96966e-07 0)
(9.33795e-07 -3.99229e-07 0)
(9.34204e-07 -3.9924e-07 0)
(9.34373e-07 -3.99342e-07 0)
(9.34373e-07 -3.9951e-07 0)
(9.34363e-07 -3.99681e-07 0)
(9.34501e-07 -3.99803e-07 0)
(9.3479e-07 -3.99901e-07 0)
(9.35091e-07 -4.00062e-07 0)
(9.35279e-07 -4.00349e-07 0)
(9.35308e-07 -4.00782e-07 0)
(9.40092e-07 -4.04646e-07 0)
(9.40671e-07 -4.0478e-07 0)
(9.41007e-07 -4.04978e-07 0)
(9.41172e-07 -4.05216e-07 0)
(9.41308e-07 -4.05441e-07 0)
(9.41556e-07 -4.05617e-07 0)
(9.41934e-07 -4.05777e-07 0)
(9.4234e-07 -4.05997e-07 0)
(9.42674e-07 -4.0634e-07 0)
(9.4289e-07 -4.06825e-07 0)
(9.50092e-07 -4.11802e-07 0)
(9.50788e-07 -4.12019e-07 0)
(9.51245e-07 -4.12282e-07 0)
(9.51534e-07 -4.12567e-07 0)
(9.51784e-07 -4.12829e-07 0)
(9.52124e-07 -4.13047e-07 0)
(9.5258e-07 -4.13252e-07 0)
(9.53078e-07 -4.13516e-07 0)
(9.53533e-07 -4.13895e-07 0)
(9.53904e-07 -4.1441e-07 0)
(9.58822e-07 -4.22357e-07 0)
(9.59483e-07 -4.22676e-07 0)
(9.59933e-07 -4.23009e-07 0)
(9.60197e-07 -4.23354e-07 0)
(9.60326e-07 -4.23704e-07 0)
(9.60366e-07 -4.2407e-07 0)
(9.60324e-07 -4.24487e-07 0)
(9.60174e-07 -4.24992e-07 0)
(9.59894e-07 -4.25601e-07 0)
(9.59482e-07 -4.26303e-07 0)
(1.06042e-06 -4.62683e-07 0)
(1.0611e-06 -4.62948e-07 0)
(1.06168e-06 -4.63462e-07 0)
(1.06217e-06 -4.64306e-07 0)
(1.06248e-06 -4.65231e-07 0)
(1.06192e-06 -4.6496e-07 0)
(1.06006e-06 -4.63322e-07 0)
(1.05736e-06 -4.61483e-07 0)
(1.054e-06 -4.59698e-07 0)
(1.04998e-06 -4.57862e-07 0)
(1.01876e-06 -4.41014e-07 0)
(1.01571e-06 -4.3908e-07 0)
(1.01295e-06 -4.37593e-07 0)
(1.01035e-06 -4.36548e-07 0)
(1.0082e-06 -4.3592e-07 0)
(1.00733e-06 -4.3544e-07 0)
(1.00706e-06 -4.3477e-07 0)
(1.00617e-06 -4.33953e-07 0)
(1.00448e-06 -4.33034e-07 0)
(1.00202e-06 -4.31971e-07 0)
(9.74964e-07 -4.17306e-07 0)
(9.73027e-07 -4.16025e-07 0)
(9.71166e-07 -4.15063e-07 0)
(9.69315e-07 -4.1442e-07 0)
(9.67761e-07 -4.14056e-07 0)
(9.67206e-07 -4.13758e-07 0)
(9.67223e-07 -4.13346e-07 0)
(9.66863e-07 -4.1289e-07 0)
(9.65909e-07 -4.12431e-07 0)
(9.64397e-07 -4.11946e-07 0)
(9.48504e-07 -4.04293e-07 0)
(9.47409e-07 -4.03624e-07 0)
(9.46248e-07 -4.03171e-07 0)
(9.44998e-07 -4.02938e-07 0)
(9.43928e-07 -4.02851e-07 0)
(9.4362e-07 -4.02699e-07 0)
(9.4382e-07 -4.02416e-07 0)
(9.43808e-07 -4.0214e-07 0)
(9.43372e-07 -4.01931e-07 0)
(9.42529e-07 -4.01774e-07 0)
(9.34438e-07 -3.98664e-07 0)
(9.33919e-07 -3.98353e-07 0)
(9.33243e-07 -3.98192e-07 0)
(9.32418e-07 -3.98178e-07 0)
(9.31698e-07 -3.98233e-07 0)
(9.31577e-07 -3.98186e-07 0)
(9.31917e-07 -3.98033e-07 0)
(9.32164e-07 -3.97923e-07 0)
(9.32113e-07 -3.97918e-07 0)
(9.31767e-07 -3.98014e-07 0)
(9.29243e-07 -3.98074e-07 0)
(9.29142e-07 -3.98042e-07 0)
(9.28826e-07 -3.9811e-07 0)
(9.28324e-07 -3.98269e-07 0)
(9.27873e-07 -3.98436e-07 0)
(9.27899e-07 -3.98469e-07 0)
(9.28345e-07 -3.98408e-07 0)
(9.28779e-07 -3.98408e-07 0)
(9.29015e-07 -3.98536e-07 0)
(9.29039e-07 -3.98795e-07 0)
(9.30582e-07 -4.01007e-07 0)
(9.30786e-07 -4.0116e-07 0)
(9.30739e-07 -4.01377e-07 0)
(9.30484e-07 -4.01643e-07 0)
(9.30241e-07 -4.01878e-07 0)
(9.30386e-07 -4.01973e-07 0)
(9.30914e-07 -4.01988e-07 0)
(9.31491e-07 -4.02077e-07 0)
(9.31944e-07 -4.02306e-07 0)
(9.32252e-07 -4.02683e-07 0)
(9.36798e-07 -4.0641e-07 0)
(9.37232e-07 -4.067e-07 0)
(9.37394e-07 -4.07025e-07 0)
(9.37335e-07 -4.07368e-07 0)
(9.37259e-07 -4.07652e-07 0)
(9.37499e-07 -4.07794e-07 0)
(9.38086e-07 -4.0787e-07 0)
(9.38762e-07 -4.08025e-07 0)
(9.39373e-07 -4.08325e-07 0)
(9.3989e-07 -4.08782e-07 0)
(9.4672e-07 -4.13551e-07 0)
(9.47319e-07 -4.13936e-07 0)
(9.47634e-07 -4.14336e-07 0)
(9.47722e-07 -4.14728e-07 0)
(9.47777e-07 -4.15045e-07 0)
(9.48099e-07 -4.15225e-07 0)
(9.48744e-07 -4.15349e-07 0)
(9.49511e-07 -4.15553e-07 0)
(9.50259e-07 -4.15904e-07 0)
(9.50956e-07 -4.16415e-07 0)
(9.55553e-07 -4.24054e-07 0)
(9.56228e-07 -4.24525e-07 0)
(9.56721e-07 -4.24932e-07 0)
(9.57043e-07 -4.25279e-07 0)
(9.572e-07 -4.2559e-07 0)
(9.57195e-07 -4.2595e-07 0)
(9.57039e-07 -4.26456e-07 0)
(9.56751e-07 -4.27124e-07 0)
(9.56345e-07 -4.27925e-07 0)
(9.55841e-07 -4.28821e-07 0)
(1.05716e-06 -4.64187e-07 0)
(1.05784e-06 -4.64529e-07 0)
(1.05872e-06 -4.65097e-07 0)
(1.06005e-06 -4.66078e-07 0)
(1.0622e-06 -4.67726e-07 0)
(1.06187e-06 -4.67549e-07 0)
(1.05826e-06 -4.65148e-07 0)
(1.05474e-06 -4.63044e-07 0)
(1.0511e-06 -4.61062e-07 0)
(1.04709e-06 -4.58989e-07 0)
(1.01636e-06 -4.42413e-07 0)
(1.01293e-06 -4.40478e-07 0)
(1.00996e-06 -4.38898e-07 0)
(1.00724e-06 -4.37619e-07 0)
(1.00474e-06 -4.36675e-07 0)
(1.00425e-06 -4.36395e-07 0)
(1.00432e-06 -4.36039e-07 0)
(1.00335e-06 -4.35331e-07 0)
(1.00162e-06 -4.34371e-07 0)
(9.99233e-07 -4.3315e-07 0)
(9.72442e-07 -4.18797e-07 0)
(9.70202e-07 -4.1752e-07 0)
(9.68189e-07 -4.16462e-07 0)
(9.66255e-07 -4.15585e-07 0)
(9.6439e-07 -4.14903e-07 0)
(9.64112e-07 -4.14744e-07 0)
(9.64437e-07 -4.14653e-07 0)
(9.6402e-07 -4.14343e-07 0)
(9.63049e-07 -4.13883e-07 0)
(9.61615e-07 -4.13282e-07 0)
(9.45907e-07 -4.05826e-07 0)
(9.44583e-07 -4.05177e-07 0)
(9.43329e-07 -4.04651e-07 0)
(9.42039e-07 -4.04235e-07 0)
(9.40719e-07 -4.03941e-07 0)
(9.40594e-07 -4.03864e-07 0)
(9.41039e-07 -4.03795e-07 0)
(9.40982e-07 -4.03649e-07 0)
(9.40538e-07 -4.03456e-07 0)
(9.39782e-07 -4.03215e-07 0)
(9.31798e-07 -4.00208e-07 0)
(9.31113e-07 -3.99924e-07 0)
(9.3039e-07 -3.997e-07 0)
(9.29551e-07 -3.99528e-07 0)
(9.28607e-07 -3.9941e-07 0)
(9.28595e-07 -3.99393e-07 0)
(9.29144e-07 -3.99417e-07 0)
(9.29364e-07 -3.9944e-07 0)
(9.29318e-07 -3.99473e-07 0)
(9.29073e-07 -3.99518e-07 0)
(9.26579e-07 -3.99609e-07 0)
(9.26368e-07 -3.99616e-07 0)
(9.26043e-07 -3.99637e-07 0)
(9.25546e-07 -3.99671e-07 0)
(9.24888e-07 -3.99709e-07 0)
(9.24962e-07 -3.99734e-07 0)
(9.25584e-07 -3.998e-07 0)
(9.26011e-07 -3.99924e-07 0)
(9.26267e-07 -4.00104e-07 0)
(9.26408e-07 -4.00339e-07 0)
(9.27905e-07 -4.02523e-07 0)
(9.28048e-07 -4.02723e-07 0)
(9.28023e-07 -4.02905e-07 0)
(9.27784e-07 -4.03071e-07 0)
(9.27342e-07 -4.03199e-07 0)
(9.27483e-07 -4.03257e-07 0)
(9.28164e-07 -4.0337e-07 0)
(9.28752e-07 -4.03578e-07 0)
(9.29244e-07 -4.03872e-07 0)
(9.29687e-07 -4.04251e-07 0)
(9.34115e-07 -4.07899e-07 0)
(9.34533e-07 -4.08245e-07 0)
(9.34745e-07 -4.0855e-07 0)
(9.34715e-07 -4.08814e-07 0)
(9.34451e-07 -4.0901e-07 0)
(9.34643e-07 -4.09092e-07 0)
(9.35356e-07 -4.09238e-07 0)
(9.36057e-07 -4.09506e-07 0)
(9.36723e-07 -4.09882e-07 0)
(9.37392e-07 -4.10363e-07 0)
(9.4403e-07 -4.15013e-07 0)
(9.44652e-07 -4.15463e-07 0)
(9.45036e-07 -4.15854e-07 0)
(9.45152e-07 -4.16188e-07 0)
(9.45008e-07 -4.16429e-07 0)
(9.45247e-07 -4.1653e-07 0)
(9.46011e-07 -4.16702e-07 0)
(9.46826e-07 -4.17015e-07 0)
(9.47653e-07 -4.17449e-07 0)
(9.48524e-07 -4.18005e-07 0)
(9.52978e-07 -4.25486e-07 0)
(9.53795e-07 -4.25995e-07 0)
(9.54607e-07 -4.26291e-07 0)
(9.55491e-07 -4.26322e-07 0)
(9.56376e-07 -4.26093e-07 0)
(9.5621e-07 -4.26422e-07 0)
(9.55263e-07 -4.27471e-07 0)
(9.54374e-07 -4.28643e-07 0)
(9.53563e-07 -4.29856e-07 0)
(9.52787e-07 -4.31101e-07 0)
(1.0539e-06 -4.65622e-07 0)
(1.05457e-06 -4.65968e-07 0)
(1.0557e-06 -4.66429e-07 0)
(1.05765e-06 -4.67134e-07 0)
(1.06092e-06 -4.68292e-07 0)
(1.06059e-06 -4.68112e-07 0)
(1.05595e-06 -4.66164e-07 0)
(1.05195e-06 -4.64271e-07 0)
(1.04825e-06 -4.62319e-07 0)
(1.04443e-06 -4.60161e-07 0)
(1.01385e-06 -4.43674e-07 0)
(1.01028e-06 -4.41811e-07 0)
(1.0074e-06 -4.40185e-07 0)
(1.00513e-06 -4.38681e-07 0)
(1.00354e-06 -4.37281e-07 0)
(1.00301e-06 -4.37016e-07 0)
(1.00221e-06 -4.37102e-07 0)
(1.00082e-06 -4.36607e-07 0)
(9.99008e-07 -4.35689e-07 0)
(9.96753e-07 -4.344e-07 0)
(9.69899e-07 -4.20171e-07 0)
(9.67559e-07 -4.18948e-07 0)
(9.65679e-07 -4.17819e-07 0)
(9.64212e-07 -4.1669e-07 0)
(9.63213e-07 -4.15539e-07 0)
(9.62882e-07 -4.15409e-07 0)
(9.62372e-07 -4.15769e-07 0)
(9.61522e-07 -4.15693e-07 0)
(9.60437e-07 -4.15295e-07 0)
(9.59104e-07 -4.14639e-07 0)
(9.43361e-07 -4.07261e-07 0)
(9.41974e-07 -4.06648e-07 0)
(9.40882e-07 -4.0603e-07 0)
(9.40069e-07 -4.05346e-07 0)
(9.3957e-07 -4.04589e-07 0)
(9.39376e-07 -4.04551e-07 0)
(9.39031e-07 -4.04928e-07 0)
(9.38539e-07 -4.05027e-07 0)
(9.37957e-07 -4.04911e-07 0)
(9.37274e-07 -4.04629e-07 0)
(9.29274e-07 -4.01667e-07 0)
(9.28556e-07 -4.01403e-07 0)
(9.28018e-07 -4.01071e-07 0)
(9.27657e-07 -4.00624e-07 0)
(9.27485e-07 -4.00058e-07 0)
(9.27392e-07 -4.00088e-07 0)
(9.27196e-07 -4.00543e-07 0)
(9.26985e-07 -4.00815e-07 0)
(9.26786e-07 -4.00937e-07 0)
(9.26589e-07 -4.00954e-07 0)
(9.24089e-07 -4.01071e-07 0)
(9.2387e-07 -4.01082e-07 0)
(9.23747e-07 -4.00984e-07 0)
(9.23724e-07 -4.00741e-07 0)
(9.2379e-07 -4.00353e-07 0)
(9.23774e-07 -4.00431e-07 0)
(9.23695e-07 -4.00908e-07 0)
(9.23699e-07 -4.01281e-07 0)
(9.23789e-07 -4.01558e-07 0)
(9.23959e-07 -4.01776e-07 0)
(9.25454e-07 -4.03974e-07 0)
(9.25611e-07 -4.04166e-07 0)
(9.258e-07 -4.04221e-07 0)
(9.26028e-07 -4.04111e-07 0)
(9.26264e-07 -4.03838e-07 0)
(9.26309e-07 -4.03951e-07 0)
(9.26331e-07 -4.04455e-07 0)
(9.26505e-07 -4.04909e-07 0)
(9.26823e-07 -4.05306e-07 0)
(9.27278e-07 -4.05677e-07 0)
(9.31708e-07 -4.0933e-07 0)
(9.32158e-07 -4.09658e-07 0)
(9.32592e-07 -4.0983e-07 0)
(9.3302e-07 -4.09822e-07 0)
(9.3339e-07 -4.09641e-07 0)
(9.33483e-07 -4.09782e-07 0)
(9.33574e-07 -4.10297e-07 0)
(9.33872e-07 -4.10805e-07 0)
(9.34358e-07 -4.11288e-07 0)
(9.35026e-07 -4.11769e-07 0)
(9.41666e-07 -4.16421e-07 0)
(9.42333e-07 -4.16844e-07 0)
(9.42946e-07 -4.17099e-07 0)
(9.4351e-07 -4.17166e-07 0)
(9.43959e-07 -4.17053e-07 0)
(9.44098e-07 -4.17214e-07 0)
(9.44274e-07 -4.17736e-07 0)
(9.44696e-07 -4.18283e-07 0)
(9.45339e-07 -4.18827e-07 0)
(9.46198e-07 -4.19389e-07 0)
(9.50613e-07 -4.26959e-07 0)
(9.51477e-07 -4.27447e-07 0)
(9.52513e-07 -4.27614e-07 0)
(9.53833e-07 -4.27381e-07 0)
(9.55282e-07 -4.26804e-07 0)
(9.54988e-07 -4.27234e-07 0)
(9.5341e-07 -4.28742e-07 0)
(9.52031e-07 -4.30318e-07 0)
(9.50891e-07 -4.31873e-07 0)
(9.49898e-07 -4.33441e-07 0)
(1.0505e-06 -4.67056e-07 0)
(1.05101e-06 -4.67396e-07 0)
(1.05205e-06 -4.6771e-07 0)
(1.05378e-06 -4.68002e-07 0)
(1.0557e-06 -4.68217e-07 0)
(1.05521e-06 -4.67918e-07 0)
(1.052e-06 -4.66874e-07 0)
(1.04848e-06 -4.65397e-07 0)
(1.04516e-06 -4.63594e-07 0)
(1.04183e-06 -4.61458e-07 0)
(1.01108e-06 -4.44886e-07 0)
(1.00749e-06 -4.43221e-07 0)
(1.00477e-06 -4.41714e-07 0)
(1.00292e-06 -4.40294e-07 0)
(1.00185e-06 -4.3912e-07 0)
(1.00096e-06 -4.38649e-07 0)
(9.99632e-07 -4.38512e-07 0)
(9.98054e-07 -4.38045e-07 0)
(9.96332e-07 -4.37138e-07 0)
(9.94382e-07 -4.3582e-07 0)
(9.6712e-07 -4.21546e-07 0)
(9.64763e-07 -4.20491e-07 0)
(9.63036e-07 -4.19457e-07 0)
(9.61938e-07 -4.18408e-07 0)
(9.61352e-07 -4.1752e-07 0)
(9.60762e-07 -4.17241e-07 0)
(9.59825e-07 -4.17345e-07 0)
(9.58775e-07 -4.17262e-07 0)
(9.57725e-07 -4.16855e-07 0)
(9.56627e-07 -4.16145e-07 0)
(9.40608e-07 -4.08746e-07 0)
(9.39194e-07 -4.08256e-07 0)
(9.38233e-07 -4.07691e-07 0)
(9.37721e-07 -4.07041e-07 0)
(9.3751e-07 -4.0647e-07 0)
(9.37156e-07 -4.06344e-07 0)
(9.365e-07 -4.06543e-07 0)
(9.35819e-07 -4.06645e-07 0)
(9.35236e-07 -4.06519e-07 0)
(9.34727e-07 -4.06174e-07 0)
(9.26564e-07 -4.03216e-07 0)
(9.25808e-07 -4.03041e-07 0)
(9.25379e-07 -4.02738e-07 0)
(9.25262e-07 -4.02315e-07 0)
(9.25299e-07 -4.01933e-07 0)
(9.25127e-07 -4.01915e-07 0)
(9.24701e-07 -4.02204e-07 0)
(9.24309e-07 -4.02463e-07 0)
(9.24076e-07 -4.02564e-07 0)
(9.23997e-07 -4.02506e-07 0)
(9.2143e-07 -4.02661e-07 0)
(9.2116e-07 -4.02728e-07 0)
(9.2112e-07 -4.02634e-07 0)
(9.21288e-07 -4.02399e-07 0)
(9.21504e-07 -4.02174e-07 0)
(9.21476e-07 -4.0224e-07 0)
(9.21236e-07 -4.0258e-07 0)
(9.21068e-07 -4.02934e-07 0)
(9.21098e-07 -4.03183e-07 0)
(9.21335e-07 -4.03317e-07 0)
(9.2285e-07 -4.05585e-07 0)
(9.22939e-07 -4.05806e-07 0)
(9.23186e-07 -4.05849e-07 0)
(9.2356e-07 -4.05743e-07 0)
(9.23905e-07 -4.05629e-07 0)
(9.23995e-07 -4.05757e-07 0)
(9.23909e-07 -4.06136e-07 0)
(9.23919e-07 -4.0656e-07 0)
(9.24154e-07 -4.06918e-07 0)
(9.2463e-07 -4.07196e-07 0)
(9.29158e-07 -4.10951e-07 0)
(9.2952e-07 -4.11284e-07 0)
(9.29985e-07 -4.11429e-07 0)
(9.30513e-07 -4.11423e-07 0)
(9.30957e-07 -4.11398e-07 0)
(9.31142e-07 -4.11573e-07 0)
(9.31177e-07 -4.11977e-07 0)
(9.31324e-07 -4.12446e-07 0)
(9.31709e-07 -4.1288e-07 0)
(9.32358e-07 -4.1326e-07 0)
(9.39167e-07 -4.18048e-07 0)
(9.3973e-07 -4.18454e-07 0)
(9.40349e-07 -4.18673e-07 0)
(9.40984e-07 -4.1874e-07 0)
(9.41499e-07 -4.18782e-07 0)
(9.41767e-07 -4.18995e-07 0)
(9.41915e-07 -4.19415e-07 0)
(9.42188e-07 -4.19913e-07 0)
(9.42709e-07 -4.20399e-07 0)
(9.43508e-07 -4.2085e-07 0)
(9.47957e-07 -4.28776e-07 0)
(9.4859e-07 -4.29298e-07 0)
(9.49351e-07 -4.29573e-07 0)
(9.50141e-07 -4.2967e-07 0)
(9.50655e-07 -4.29817e-07 0)
(9.50504e-07 -4.30363e-07 0)
(9.49736e-07 -4.3141e-07 0)
(9.48743e-07 -4.32769e-07 0)
(9.47766e-07 -4.34293e-07 0)
(9.46864e-07 -4.35952e-07 0)
(1.04684e-06 -4.68561e-07 0)
(1.04697e-06 -4.68955e-07 0)
(1.04755e-06 -4.69221e-07 0)
(1.04857e-06 -4.69312e-07 0)
(1.04941e-06 -4.69197e-07 0)
(1.04886e-06 -4.68808e-07 0)
(1.0468e-06 -4.68013e-07 0)
(1.04424e-06 -4.66752e-07 0)
(1.0417e-06 -4.6505e-07 0)
(1.03913e-06 -4.62954e-07 0)
(1.00788e-06 -4.46125e-07 0)
(1.00425e-06 -4.44787e-07 0)
(1.00152e-06 -4.43565e-07 0)
(9.99663e-07 -4.42424e-07 0)
(9.98446e-07 -4.4148e-07 0)
(9.97355e-07 -4.40889e-07 0)
(9.96075e-07 -4.40463e-07 0)
(9.94716e-07 -4.39837e-07 0)
(9.93358e-07 -4.38847e-07 0)
(9.91919e-07 -4.37479e-07 0)
(9.63908e-07 -4.2302e-07 0)
(9.61475e-07 -4.22257e-07 0)
(9.59697e-07 -4.21486e-07 0)
(9.58544e-07 -4.20708e-07 0)
(9.57803e-07 -4.20058e-07 0)
(9.57091e-07 -4.19698e-07 0)
(9.56238e-07 -4.19523e-07 0)
(9.55384e-07 -4.19245e-07 0)
(9.54633e-07 -4.18709e-07 0)
(9.53948e-07 -4.17898e-07 0)
(9.37416e-07 -4.10403e-07 0)
(9.35881e-07 -4.10145e-07 0)
(9.34823e-07 -4.09792e-07 0)
(9.34203e-07 -4.09366e-07 0)
(9.33828e-07 -4.08994e-07 0)
(9.33413e-07 -4.08822e-07 0)
(9.32881e-07 -4.08797e-07 0)
(9.32389e-07 -4.08715e-07 0)
(9.32056e-07 -4.08448e-07 0)
(9.31876e-07 -4.07976e-07 0)
(9.23404e-07 -4.04999e-07 0)
(9.2249e-07 -4.05013e-07 0)
(9.21928e-07 -4.04892e-07 0)
(9.2167e-07 -4.04672e-07 0)
(9.2155e-07 -4.04475e-07 0)
(9.2136e-07 -4.04433e-07 0)
(9.21078e-07 -4.04523e-07 0)
(9.20863e-07 -4.04594e-07 0)
(9.20834e-07 -4.04537e-07 0)
(9.21009e-07 -4.04325e-07 0)
(9.18306e-07 -4.0454e-07 0)
(9.17844e-07 -4.04752e-07 0)
(9.1764e-07 -4.04809e-07 0)
(9.17644e-07 -4.04752e-07 0)
(9.17713e-07 -4.04693e-07 0)
(9.17699e-07 -4.0475e-07 0)
(9.17614e-07 -4.0492e-07 0)
(9.17609e-07 -4.0509e-07 0)
(9.17804e-07 -4.05172e-07 0)
(9.18229e-07 -4.05137e-07 0)
(9.19764e-07 -4.07536e-07 0)
(9.19632e-07 -4.07868e-07 0)
(9.19687e-07 -4.08037e-07 0)
(9.19881e-07 -4.08091e-07 0)
(9.20093e-07 -4.0813e-07 0)
(9.20218e-07 -4.08259e-07 0)
(9.2029e-07 -4.08486e-07 0)
(9.20451e-07 -4.0873e-07 0)
(9.20815e-07 -4.08912e-07 0)
(9.21418e-07 -4.09006e-07 0)
(9.26107e-07 -4.12959e-07 0)
(9.26219e-07 -4.13371e-07 0)
(9.26467e-07 -4.13621e-07 0)
(9.26802e-07 -4.13757e-07 0)
(9.27124e-07 -4.13872e-07 0)
(9.2736e-07 -4.14056e-07 0)
(9.27555e-07 -4.14325e-07 0)
(9.2784e-07 -4.14617e-07 0)
(9.28325e-07 -4.14869e-07 0)
(9.29048e-07 -4.15054e-07 0)
(9.36148e-07 -4.20103e-07 0)
(9.36437e-07 -4.20563e-07 0)
(9.36824e-07 -4.20868e-07 0)
(9.37262e-07 -4.21063e-07 0)
(9.37669e-07 -4.21233e-07 0)
(9.37996e-07 -4.21458e-07 0)
(9.38297e-07 -4.21755e-07 0)
(9.38692e-07 -4.22081e-07 0)
(9.39279e-07 -4.2238e-07 0)
(9.40101e-07 -4.22627e-07 0)
(9.44708e-07 -4.31094e-07 0)
(9.44957e-07 -4.31708e-07 0)
(9.45286e-07 -4.32175e-07 0)
(9.45599e-07 -4.32571e-07 0)
(9.45754e-07 -4.3302e-07 0)
(9.45634e-07 -4.33651e-07 0)
(9.45251e-07 -4.34525e-07 0)
(9.44723e-07 -4.35623e-07 0)
(9.44167e-07 -4.36911e-07 0)
(9.43645e-07 -4.38394e-07 0)
(1.0429e-06 -4.7019e-07 0)
(1.04242e-06 -4.70745e-07 0)
(1.04228e-06 -4.71134e-07 0)
(1.04243e-06 -4.71279e-07 0)
(1.04251e-06 -4.71138e-07 0)
(1.042e-06 -4.70689e-07 0)
(1.04082e-06 -4.69854e-07 0)
(1.03936e-06 -4.68559e-07 0)
(1.03784e-06 -4.66816e-07 0)
(1.03624e-06 -4.64699e-07 0)
(1.00416e-06 -4.4745e-07 0)
(1.00036e-06 -4.46543e-07 0)
(9.97358e-07 -4.45727e-07 0)
(9.95178e-07 -4.4495e-07 0)
(9.93659e-07 -4.44232e-07 0)
(9.925e-07 -4.43595e-07 0)
(9.91509e-07 -4.42931e-07 0)
(9.90664e-07 -4.4206e-07 0)
(9.89932e-07 -4.40885e-07 0)
(9.89196e-07 -4.39408e-07 0)
(9.60144e-07 -4.24665e-07 0)
(9.57476e-07 -4.24294e-07 0)
(9.55399e-07 -4.23902e-07 0)
(9.53919e-07 -4.23469e-07 0)
(9.52911e-07 -4.23036e-07 0)
(9.5217e-07 -4.22647e-07 0)
(9.5159e-07 -4.22245e-07 0)
(9.51192e-07 -4.217e-07 0)
(9.50981e-07 -4.20935e-07 0)
(9.50888e-07 -4.19948e-07 0)
(9.3364e-07 -4.12316e-07 0)
(9.31817e-07 -4.12388e-07 0)
(9.3043e-07 -4.12359e-07 0)
(9.2948e-07 -4.12229e-07 0)
(9.28863e-07 -4.12045e-07 0)
(9.28444e-07 -4.11855e-07 0)
(9.2817e-07 -4.11633e-07 0)
(9.28086e-07 -4.11297e-07 0)
(9.2822e-07 -4.10788e-07 0)
(9.28535e-07 -4.10106e-07 0)
(9.19624e-07 -4.07109e-07 0)
(9.18386e-07 -4.07404e-07 0)
(9.17479e-07 -4.07567e-07 0)
(9.16897e-07 -4.07608e-07 0)
(9.16562e-07 -4.07576e-07 0)
(9.1638e-07 -4.07521e-07 0)
(9.16335e-07 -4.07434e-07 0)
(9.16479e-07 -4.07258e-07 0)
(9.16851e-07 -4.06948e-07 0)
(9.17432e-07 -4.06503e-07 0)
(9.14526e-07 -4.06809e-07 0)
(9.13712e-07 -4.07255e-07 0)
(9.13155e-07 -4.07554e-07 0)
(9.12843e-07 -4.07722e-07 0)
(9.12718e-07 -4.07806e-07 0)
(9.12719e-07 -4.07852e-07 0)
(9.12847e-07 -4.07862e-07 0)
(9.13157e-07 -4.07799e-07 0)
(9.13692e-07 -4.07628e-07 0)
(9.14447e-07 -4.07345e-07 0)
(9.15986e-07 -4.09932e-07 0)
(9.15481e-07 -4.10457e-07 0)
(9.15179e-07 -4.10834e-07 0)
(9.15068e-07 -4.11082e-07 0)
(9.15102e-07 -4.11244e-07 0)
(9.15244e-07 -4.11362e-07 0)
(9.15504e-07 -4.11443e-07 0)
(9.15938e-07 -4.11462e-07 0)
(9.16587e-07 -4.11394e-07 0)
(9.17452e-07 -4.11233e-07 0)
(9.22326e-07 -4.15459e-07 0)
(9.22051e-07 -4.16027e-07 0)
(9.2194e-07 -4.16454e-07 0)
(9.2198e-07 -4.16757e-07 0)
(9.22136e-07 -4.16975e-07 0)
(9.22385e-07 -4.17146e-07 0)
(9.22744e-07 -4.17279e-07 0)
(9.23265e-07 -4.17359e-07 0)
(9.23988e-07 -4.17365e-07 0)
(9.24916e-07 -4.17292e-07 0)
(9.3236e-07 -4.22692e-07 0)
(9.32255e-07 -4.23278e-07 0)
(9.32285e-07 -4.23732e-07 0)
(9.32438e-07 -4.24069e-07 0)
(9.32689e-07 -4.24326e-07 0)
(9.33024e-07 -4.24534e-07 0)
(9.33465e-07 -4.24705e-07 0)
(9.34056e-07 -4.24828e-07 0)
(9.34836e-07 -4.24887e-07 0)
(9.3581e-07 -4.24878e-07 0)
(9.40717e-07 -4.33936e-07 0)
(9.40545e-07 -4.34675e-07 0)
(9.40463e-07 -4.35316e-07 0)
(9.40435e-07 -4.35892e-07 0)
(9.40407e-07 -4.36462e-07 0)
(9.40343e-07 -4.37081e-07 0)
(9.40245e-07 -4.37787e-07 0)
(9.4015e-07 -4.38597e-07 0)
(9.401e-07 -4.39523e-07 0)
(9.40118e-07 -4.40591e-07 0)
(1.03873e-06 -4.71958e-07 0)
(1.03744e-06 -4.72809e-07 0)
(1.03634e-06 -4.73514e-07 0)
(1.03551e-06 -4.73942e-07 0)
(1.03494e-06 -4.73963e-07 0)
(1.03453e-06 -4.73481e-07 0)
(1.0342e-06 -4.72454e-07 0)
(1.03393e-06 -4.70911e-07 0)
(1.03361e-06 -4.6895e-07 0)
(1.03311e-06 -4.66696e-07 0)
(9.99912e-07 -4.48895e-07 0)
(9.95716e-07 -4.48506e-07 0)
(9.9216e-07 -4.48203e-07 0)
(9.89395e-07 -4.47883e-07 0)
(9.8748e-07 -4.47447e-07 0)
(9.86353e-07 -4.46817e-07 0)
(9.8586e-07 -4.45925e-07 0)
(9.85804e-07 -4.44736e-07 0)
(9.85959e-07 -4.43271e-07 0)
(9.86112e-07 -4.41592e-07 0)
(9.55798e-07 -4.26518e-07 0)
(9.52672e-07 -4.26633e-07 0)
(9.50029e-07 -4.26727e-07 0)
(9.48e-07 -4.26721e-07 0)
(9.46646e-07 -4.26547e-07 0)
(9.45941e-07 -4.26162e-07 0)
(9.45798e-07 -4.25535e-07 0)
(9.4609e-07 -4.24657e-07 0)
(9.4666e-07 -4.23557e-07 0)
(9.47341e-07 -4.22296e-07 0)
(9.29227e-07 -4.14529e-07 0)
(9.26899e-07 -4.15029e-07 0)
(9.24946e-07 -4.15433e-07 0)
(9.23479e-07 -4.15678e-07 0)
(9.22554e-07 -4.15716e-07 0)
(9.22169e-07 -4.15524e-07 0)
(9.22275e-07 -4.15094e-07 0)
(9.22793e-07 -4.14433e-07 0)
(9.23612e-07 -4.13578e-07 0)
(9.24602e-07 -4.12586e-07 0)
(9.1515e-07 -4.0959e-07 0)
(9.13383e-07 -4.10267e-07 0)
(9.11921e-07 -4.10815e-07 0)
(9.10857e-07 -4.11185e-07 0)
(9.10244e-07 -4.11344e-07 0)
(9.1009e-07 -4.11281e-07 0)
(9.10371e-07 -4.10997e-07 0)
(9.11037e-07 -4.10509e-07 0)
(9.12004e-07 -4.09852e-07 0)
(9.13171e-07 -4.09076e-07 0)
(9.09995e-07 -4.09516e-07 0)
(9.08641e-07 -4.10296e-07 0)
(9.07544e-07 -4.10932e-07 0)
(9.06782e-07 -4.11382e-07 0)
(9.06402e-07 -4.11626e-07 0)
(9.06421e-07 -4.11657e-07 0)
(9.06827e-07 -4.11484e-07 0)
(9.07587e-07 -4.11125e-07 0)
(9.08639e-07 -4.10614e-07 0)
(9.09898e-07 -4.09995e-07 0)
(9.11396e-07 -4.1282e-07 0)
(9.10351e-07 -4.13637e-07 0)
(9.09528e-07 -4.14308e-07 0)
(9.08994e-07 -4.14798e-07 0)
(9.08792e-07 -4.15092e-07 0)
(9.0894e-07 -4.15188e-07 0)
(9.09434e-07 -4.15098e-07 0)
(9.10254e-07 -4.14839e-07 0)
(9.11349e-07 -4.14441e-07 0)
(9.1265e-07 -4.13944e-07 0)
(9.17675e-07 -4.18497e-07 0)
(9.16864e-07 -4.19321e-07 0)
(9.16252e-07 -4.20002e-07 0)
(9.15893e-07 -4.20511e-07 0)
(9.15826e-07 -4.20836e-07 0)
(9.16068e-07 -4.20979e-07 0)
(9.16623e-07 -4.2095e-07 0)
(9.17474e-07 -4.20768e-07 0)
(9.18582e-07 -4.20459e-07 0)
(9.19887e-07 -4.20056e-07 0)
(9.27644e-07 -4.2586e-07 0)
(9.27011e-07 -4.26669e-07 0)
(9.26559e-07 -4.27342e-07 0)
(9.26336e-07 -4.27855e-07 0)
(9.26373e-07 -4.28197e-07 0)
(9.2669e-07 -4.28371e-07 0)
(9.27289e-07 -4.28388e-07 0)
(9.2816e-07 -4.28264e-07 0)
(9.2927e-07 -4.28022e-07 0)
(9.30566e-07 -4.27692e-07 0)
(9.3588e-07 -4.37294e-07 0)
(9.3523e-07 -4.38212e-07 0)
(9.3472e-07 -4.39031e-07 0)
(9.34376e-07 -4.39741e-07 0)
(9.34211e-07 -4.40352e-07 0)
(9.34228e-07 -4.40881e-07 0)
(9.34425e-07 -4.41356e-07 0)
(9.34789e-07 -4.41807e-07 0)
(9.35301e-07 -4.4227e-07 0)
(9.35926e-07 -4.42782e-07 0)
(9.69578e-07 -5.02278e-07 0)
(9.71534e-07 -5.01727e-07 0)
(9.73162e-07 -5.01254e-07 0)
(9.74168e-07 -5.00903e-07 0)
(9.74271e-07 -5.00674e-07 0)
(9.73278e-07 -5.00529e-07 0)
(9.71106e-07 -5.00438e-07 0)
(9.6782e-07 -5.00387e-07 0)
(9.63642e-07 -5.00336e-07 0)
(9.58856e-07 -5.00225e-07 0)
(9.21559e-07 -4.8652e-07 0)
(9.20829e-07 -4.84702e-07 0)
(9.20268e-07 -4.83158e-07 0)