/*--------------------------------*- C++ -*----------------------------------*\
| =========                 |                                                 |
| \\      /  F ield         | foam-extend: Open Source CFD                    |
|  \\    /   O peration     | Version:     4.1                                |
|   \\  /    A nd           | Web:         http://www.foam-extend.org         |
|    \\/     M anipulation  |                                                 |
\*---------------------------------------------------------------------------*/
FoamFile
{
    version     2.0;
    format      ascii;
    class       volVectorField;
    location    "3";
    object      D;
}
// * * * * * * * * * * * * * * * * * * * * * * * * * * * * * * * * * * * * * //

dimensions      [0 1 0 0 0 0 0];

internalField   nonuniform List<vector> 
1000
(
(1.59751e-06 -7.04709e-07 0)
(1.50432e-06 -6.54323e-07 0)
(1.44421e-06 -6.21724e-07 0)
(1.40914e-06 -6.0567e-07 0)
(1.39126e-06 -5.9899e-07 0)
(1.38591e-06 -5.99588e-07 0)
(1.38975e-06 -6.04897e-07 0)
(1.40058e-06 -6.13677e-07 0)
(1.41648e-06 -6.24849e-07 0)
(1.43683e-06 -6.37691e-07 0)
(1.44402e-06 -7.69633e-07 0)
(1.34477e-06 -7.33893e-07 0)
(1.2809e-06 -7.10523e-07 0)
(1.2431e-06 -7.00725e-07 0)
(1.22317e-06 -6.98173e-07 0)
(1.21601e-06 -7.01684e-07 0)
(1.21816e-06 -7.09087e-07 0)
(1.22721e-06 -7.19414e-07 0)
(1.24126e-06 -7.31931e-07 0)
(1.25922e-06 -7.45462e-07 0)
(1.28467e-06 -8.31186e-07 0)
(1.18329e-06 -8.11828e-07 0)
(1.11816e-06 -7.98801e-07 0)
(1.07923e-06 -7.95949e-07 0)
(1.05821e-06 -7.97935e-07 0)
(1.04981e-06 -8.0459e-07 0)
(1.05055e-06 -8.14187e-07 0)
(1.05796e-06 -8.26101e-07 0)
(1.07015e-06 -8.39904e-07 0)
(1.08597e-06 -8.54352e-07 0)
(1.12067e-06 -8.88275e-07 0)
(1.02136e-06 -8.86126e-07 0)
(9.57657e-07 -8.8398e-07 0)
(9.1928e-07 -8.88397e-07 0)
(8.98218e-07 -8.95113e-07 0)
(8.89209e-07 -9.05016e-07 0)
(8.88897e-07 -9.1684e-07 0)
(8.94846e-07 -9.30355e-07 0)
(9.05303e-07 -9.45379e-07 0)
(9.18989e-07 -9.60787e-07 0)
(9.53075e-07 -9.39787e-07 0)
(8.60099e-07 -9.5471e-07 0)
(8.00515e-07 -9.63366e-07 0)
(7.64422e-07 -9.74973e-07 0)
(7.44375e-07 -9.8635e-07 0)
(7.35397e-07 -9.99437e-07 0)
(7.34391e-07 -1.01342e-06 0)
(7.39057e-07 -1.02849e-06 0)
(7.47841e-07 -1.04466e-06 0)
(7.59433e-07 -1.06106e-06 0)
(7.82793e-07 -9.84646e-07 0)
(7.00228e-07 -1.01555e-06 0)
(6.47358e-07 -1.03433e-06 0)
(6.152e-07 -1.05266e-06 0)
(5.97186e-07 -1.06839e-06 0)
(5.88859e-07 -1.08444e-06 0)
(5.87502e-07 -1.10041e-06 0)
(5.91056e-07 -1.11692e-06 0)
(5.98211e-07 -1.13414e-06 0)
(6.07699e-07 -1.15149e-06 0)
(6.10567e-07 -1.02186e-06 0)
(5.421e-07 -1.06678e-06 0)
(4.98282e-07 -1.09443e-06 0)
(4.71549e-07 -1.11864e-06 0)
(4.56481e-07 -1.13817e-06 0)
(4.49362e-07 -1.15681e-06 0)
(4.47959e-07 -1.17452e-06 0)
(4.50551e-07 -1.19229e-06 0)
(4.561e-07 -1.21041e-06 0)
(4.6348e-07 -1.22863e-06 0)
(4.37005e-07 -1.05057e-06 0)
(3.85734e-07 -1.10674e-06 0)
(3.52931e-07 -1.14152e-06 0)
(3.32875e-07 -1.17046e-06 0)
(3.21522e-07 -1.19304e-06 0)
(3.16077e-07 -1.21375e-06 0)
(3.14881e-07 -1.23286e-06 0)
(3.16635e-07 -1.25165e-06 0)
(3.20592e-07 -1.27049e-06 0)
(3.2586e-07 -1.28942e-06 0)
(2.62583e-07 -1.07009e-06 0)
(2.30839e-07 -1.13413e-06 0)
(2.10528e-07 -1.17391e-06 0)
(1.98089e-07 -1.20615e-06 0)
(1.91026e-07 -1.23086e-06 0)
(1.87604e-07 -1.25302e-06 0)
(1.86801e-07 -1.2731e-06 0)
(1.87811e-07 -1.29261e-06 0)
(1.90179e-07 -1.31195e-06 0)
(1.93337e-07 -1.3314e-06 0)
(8.76938e-08 -1.07993e-06 0)
(7.69343e-08 -1.14803e-06 0)
(7.00418e-08 -1.19038e-06 0)
(6.5812e-08 -1.22433e-06 0)
(6.34021e-08 -1.25015e-06 0)
(6.22247e-08 -1.27307e-06 0)
(6.19343e-08 -1.29365e-06 0)
(6.22565e-08 -1.31353e-06 0)
(6.30401e-08 -1.33313e-06 0)
(6.40882e-08 -1.35285e-06 0)
(2.49921e-06 -3.22116e-08 0)
(2.52251e-06 -2.3186e-08 0)
(2.53595e-06 -1.74279e-08 0)
(2.55017e-06 -1.40046e-08 0)
(2.56534e-06 -1.20606e-08 0)
(2.58404e-06 -1.11098e-08 0)
(2.6062e-06 -1.0827e-08 0)
(2.63219e-06 -1.09822e-08 0)
(2.66191e-06 -1.14518e-08 0)
(2.69498e-06 -1.20289e-08 0)
(2.48054e-06 -9.66136e-08 0)
(2.49997e-06 -7.00643e-08 0)
(2.51098e-06 -5.31629e-08 0)
(2.52358e-06 -4.31417e-08 0)
(2.53769e-06 -3.7474e-08 0)
(2.55563e-06 -3.47274e-08 0)
(2.57725e-06 -3.39433e-08 0)
(2.60279e-06 -3.44472e-08 0)
(2.63214e-06 -3.58696e-08 0)
(2.6648e-06 -3.76122e-08 0)
(2.44328e-06 -1.6157e-07 0)
(2.45531e-06 -1.18926e-07 0)
(2.46165e-06 -9.17968e-08 0)
(2.47115e-06 -7.57543e-08 0)
(2.48322e-06 -6.6716e-08 0)
(2.49971e-06 -6.23862e-08 0)
(2.52028e-06 -6.12149e-08 0)
(2.54496e-06 -6.21261e-08 0)
(2.5736e-06 -6.45078e-08 0)
(2.60546e-06 -6.74289e-08 0)
(2.38808e-06 -2.27326e-07 0)
(2.38962e-06 -1.70891e-07 0)
(2.3893e-06 -1.3498e-07 0)
(2.39439e-06 -1.13828e-07 0)
(2.40355e-06 -1.01972e-07 0)
(2.41798e-06 -9.63936e-08 0)
(2.43704e-06 -9.50131e-08 0)
(2.46049e-06 -9.6422e-08 0)
(2.48813e-06 -9.9771e-08 0)
(2.51887e-06 -1.03889e-07 0)
(2.31586e-06 -2.94063e-07 0)
(2.3044e-06 -2.26892e-07 0)
(2.29586e-06 -1.84122e-07 0)
(2.29549e-06 -1.59074e-07 0)
(2.30104e-06 -1.4514e-07 0)
(2.3129e-06 -1.38759e-07 0)
(2.3301e-06 -1.3741e-07 0)
(2.35203e-06 -1.3944e-07 0)
(2.37839e-06 -1.43775e-07 0)
(2.40776e-06 -1.49113e-07 0)
(2.22772e-06 -3.618e-07 0)
(2.20156e-06 -2.87518e-07 0)
(2.18371e-06 -2.40172e-07 0)
(2.17716e-06 -2.12669e-07 0)
(2.17861e-06 -1.97533e-07 0)
(2.18756e-06 -1.90878e-07 0)
(2.20261e-06 -1.8985e-07 0)
(2.22278e-06 -1.92647e-07 0)
(2.24767e-06 -1.97993e-07 0)
(2.2755e-06 -2.04568e-07 0)
(2.12498e-06 -4.30408e-07 0)
(2.0833e-06 -3.53008e-07 0)
(2.05564e-06 -3.03609e-07 0)
(2.04254e-06 -2.75243e-07 0)
(2.03965e-06 -2.5988e-07 0)
(2.04548e-06 -2.5354e-07 0)
(2.05821e-06 -2.5316e-07 0)
(2.0765e-06 -2.5689e-07 0)
(2.09975e-06 -2.63301e-07 0)
(2.12594e-06 -2.71133e-07 0)
(2.00907e-06 -4.99573e-07 0)
(1.952e-06 -4.23195e-07 0)
(1.91462e-06 -3.74361e-07 0)
(1.89502e-06 -3.46785e-07 0)
(1.88776e-06 -3.32201e-07 0)
(1.89043e-06 -3.26783e-07 0)
(1.90078e-06 -3.27387e-07 0)
(1.9171e-06 -3.32228e-07 0)
(1.93859e-06 -3.39756e-07 0)
(1.96311e-06 -3.48897e-07 0)
(1.88151e-06 -5.68809e-07 0)
(1.81014e-06 -4.9751e-07 0)
(1.76373e-06 -4.51813e-07 0)
(1.73806e-06 -4.26646e-07 0)
(1.7267e-06 -4.13833e-07 0)
(1.72636e-06 -4.09927e-07 0)
(1.73436e-06 -4.1186e-07 0)
(1.74874e-06 -4.17965e-07 0)
(1.76837e-06 -4.26755e-07 0)
(1.79129e-06 -4.37228e-07 0)
(1.74381e-06 -6.37459e-07 0)
(1.66014e-06 -5.74994e-07 0)
(1.60598e-06 -5.34815e-07 0)
(1.57503e-06 -5.13559e-07 0)
(1.56004e-06 -5.03424e-07 0)
(1.55695e-06 -5.01563e-07 0)
(1.56271e-06 -5.05084e-07 0)
(1.57516e-06 -5.12588e-07 0)
(1.59287e-06 -5.22607e-07 0)
(1.61425e-06 -5.34753e-07 0)
(2.73153e-06 -1.26193e-08 0)
(2.77142e-06 -1.26873e-08 0)
(2.8139e-06 -1.27996e-08 0)
(2.85884e-06 -1.28657e-08 0)
(2.90592e-06 -1.28705e-08 0)
(2.95497e-06 -1.28092e-08 0)
(3.00575e-06 -1.26657e-08 0)
(3.05807e-06 -1.24381e-08 0)
(3.11176e-06 -1.21171e-08 0)
(3.16662e-06 -1.16982e-08 0)
(3.22248e-06 -1.11733e-08 0)
(3.27918e-06 -1.05347e-08 0)
(3.33654e-06 -9.77188e-09 0)
(3.39438e-06 -8.87268e-09 0)
(3.45253e-06 -7.82149e-09 0)
(3.51075e-06 -6.60029e-09 0)
(3.56892e-06 -5.18506e-09 0)
(3.6266e-06 -3.55062e-09 0)
(3.68391e-06 -1.65549e-09 0)
(3.73976e-06 5.16803e-10 0)
(2.7027e-06 -3.92444e-08 0)
(2.74503e-06 -3.9259e-08 0)
(2.78968e-06 -3.94223e-08 0)
(2.83649e-06 -3.94807e-08 0)
(2.88525e-06 -3.93755e-08 0)
(2.93577e-06 -3.90942e-08 0)
(2.98788e-06 -3.85829e-08 0)
(3.04139e-06 -3.78344e-08 0)
(3.09615e-06 -3.68181e-08 0)
(3.152e-06 -3.55187e-08 0)
(3.20877e-06 -3.39104e-08 0)
(3.2663e-06 -3.19685e-08 0)
(3.32445e-06 -2.96603e-08 0)
(3.38302e-06 -2.69486e-08 0)
(3.44187e-06 -2.37857e-08 0)
(3.50075e-06 -2.01169e-08 0)
(3.55956e-06 -1.58697e-08 0)
(3.61785e-06 -1.09682e-08 0)
(3.67577e-06 -5.28761e-09 0)
(3.73223e-06 1.22157e-09 0)
(2.64601e-06 -6.96794e-08 0)
(2.6931e-06 -6.9097e-08 0)
(2.742e-06 -6.88199e-08 0)
(2.79249e-06 -6.84951e-08 0)
(2.84453e-06 -6.79638e-08 0)
(2.89794e-06 -6.72123e-08 0)
(2.95265e-06 -6.61285e-08 0)
(3.0085e-06 -6.46955e-08 0)
(3.06538e-06 -6.28525e-08 0)
(3.12316e-06 -6.05685e-08 0)
(3.18172e-06 -5.77951e-08 0)
(3.2409e-06 -5.44872e-08 0)
(3.30058e-06 -5.05869e-08 0)
(3.3606e-06 -4.60295e-08 0)
(3.42081e-06 -4.0733e-08 0)
(3.481e-06 -3.46044e-08 0)
(3.54106e-06 -2.75209e-08 0)
(3.60059e-06 -1.93546e-08 0)
(3.6597e-06 -9.89655e-09 0)
(3.71737e-06 9.38036e-10 0)
(2.56319e-06 -1.06102e-07 0)
(2.61711e-06 -1.04076e-07 0)
(2.67216e-06 -1.02578e-07 0)
(2.72798e-06 -1.01273e-07 0)
(2.78479e-06 -9.98132e-08 0)
(2.84242e-06 -9.81916e-08 0)
(2.90093e-06 -9.62096e-08 0)
(2.9602e-06 -9.38318e-08 0)
(3.02019e-06 -9.09547e-08 0)
(3.08081e-06 -8.7523e-08 0)
(3.14197e-06 -8.34585e-08 0)
(3.20357e-06 -7.86895e-08 0)
(3.26551e-06 -7.31284e-08 0)
(3.32764e-06 -6.66786e-08 0)
(3.38986e-06 -5.92205e-08 0)
(3.45196e-06 -5.06198e-08 0)
(3.51387e-06 -4.07006e-08 0)
(3.57518e-06 -2.92805e-08 0)
(3.63606e-06 -1.60636e-08 0)
(3.69548e-06 -9.2454e-10 0)
(2.45674e-06 -1.50453e-07 0)
(2.51922e-06 -1.45892e-07 0)
(2.58207e-06 -1.42161e-07 0)
(2.64465e-06 -1.39096e-07 0)
(2.70755e-06 -1.36051e-07 0)
(2.77059e-06 -1.33031e-07 0)
(2.83398e-06 -1.29723e-07 0)
(2.89765e-06 -1.26053e-07 0)
(2.96165e-06 -1.21865e-07 0)
(3.02593e-06 -1.17064e-07 0)
(3.09046e-06 -1.11535e-07 0)
(3.15519e-06 -1.05172e-07 0)
(3.22004e-06 -9.78512e-08 0)
(3.28491e-06 -8.94398e-08 0)
(3.34971e-06 -7.97767e-08 0)
(3.41428e-06 -6.86824e-08 0)
(3.47856e-06 -5.59254e-08 0)
(3.54219e-06 -4.12659e-08 0)
(3.60534e-06 -2.43195e-08 0)
(3.66704e-06 -4.91473e-09 0)
(2.32974e-06 -2.04101e-07 0)
(2.40207e-06 -1.95748e-07 0)
(2.47401e-06 -1.88604e-07 0)
(2.54452e-06 -1.82835e-07 0)
(2.61464e-06 -1.77423e-07 0)
(2.68411e-06 -1.72361e-07 0)
(2.75332e-06 -1.67208e-07 0)
(2.82226e-06 -1.61826e-07 0)
(2.89107e-06 -1.55994e-07 0)
(2.95975e-06 -1.49562e-07 0)
(3.02834e-06 -1.42368e-07 0)
(3.09683e-06 -1.34261e-07 0)
(3.16518e-06 -1.25074e-07 0)
(3.23334e-06 -1.14631e-07 0)
(3.30125e-06 -1.02725e-07 0)
(3.36879e-06 -8.91262e-08 0)
(3.43592e-06 -7.35447e-08 0)
(3.50231e-06 -5.56801e-08 0)
(3.56818e-06 -3.50573e-08 0)
(3.63261e-06 -1.14524e-08 0)
(2.18572e-06 -2.67932e-07 0)
(2.26872e-06 -2.54496e-07 0)
(2.35068e-06 -2.42756e-07 0)
(2.43001e-06 -2.33278e-07 0)
(2.5082e-06 -2.24687e-07 0)
(2.58491e-06 -2.1689e-07 0)
(2.66072e-06 -2.09334e-07 0)
(2.73565e-06 -2.01775e-07 0)
(2.80993e-06 -1.93922e-07 0)
(2.88364e-06 -1.85554e-07 0)
(2.95688e-06 -1.76452e-07 0)
(3.02966e-06 -1.6641e-07 0)
(3.10203e-06 -1.55215e-07 0)
(3.17396e-06 -1.4264e-07 0)
(3.24543e-06 -1.28427e-07 0)
(3.31636e-06 -1.12296e-07 0)
(3.38674e-06 -9.38935e-08 0)
(3.45631e-06 -7.28579e-08 0)
(3.52528e-06 -4.86245e-08 0)
(3.59284e-06 -2.09146e-08 0)
(2.02834e-06 -3.42088e-07 0)
(2.12232e-06 -3.22191e-07 0)
(2.21476e-06 -3.04691e-07 0)
(2.30353e-06 -2.90392e-07 0)
(2.39037e-06 -2.77755e-07 0)
(2.47498e-06 -2.66464e-07 0)
(2.558e-06 -2.55901e-07 0)
(2.63953e-06 -2.45676e-07 0)
(2.71986e-06 -2.3542e-07 0)
(2.79914e-06 -2.2482e-07 0)
(2.87751e-06 -2.13588e-07 0)
(2.95507e-06 -2.01454e-07 0)
(3.03188e-06 -1.88143e-07 0)
(3.10798e-06 -1.73374e-07 0)
(3.18339e-06 -1.56833e-07 0)
(3.25806e-06 -1.38182e-07 0)
(3.33203e-06 -1.17005e-07 0)
(3.40509e-06 -9.28776e-08 0)
(3.47749e-06 -6.51444e-08 0)
(3.54849e-06 -3.34686e-08 0)
(1.86157e-06 -4.26443e-07 0)
(1.96649e-06 -3.98895e-07 0)
(2.06935e-06 -3.7489e-07 0)
(2.16783e-06 -3.54832e-07 0)
(2.26357e-06 -3.37415e-07 0)
(2.35645e-06 -3.21956e-07 0)
(2.44704e-06 -3.07804e-07 0)
(2.53557e-06 -2.94409e-07 0)
(2.62234e-06 -2.81314e-07 0)
(2.70758e-06 -2.68114e-07 0)
(2.79148e-06 -2.54448e-07 0)
(2.87417e-06 -2.39973e-07 0)
(2.95579e-06 -2.24354e-07 0)
(3.03638e-06 -2.07249e-07 0)
(3.11604e-06 -1.88285e-07 0)
(3.19475e-06 -1.67068e-07 0)
(3.27259e-06 -1.43115e-07 0)
(3.34942e-06 -1.1594e-07 0)
(3.4255e-06 -8.48081e-08 0)
(3.50023e-06 -4.93291e-08 0)
(1.68848e-06 -5.1938e-07 0)
(1.804e-06 -4.82682e-07 0)
(1.91664e-06 -4.51429e-07 0)
(2.025e-06 -4.24685e-07 0)
(2.12985e-06 -4.01671e-07 0)
(2.23136e-06 -3.81394e-07 0)
(2.32991e-06 -3.63126e-07 0)
(2.42582e-06 -3.46174e-07 0)
(2.5194e-06 -3.29958e-07 0)
(2.61093e-06 -3.13966e-07 0)
(2.70065e-06 -2.97738e-07 0)
(2.78875e-06 -2.80852e-07 0)
(2.87541e-06 -2.62898e-07 0)
(2.96073e-06 -2.43468e-07 0)
(3.04484e-06 -2.22129e-07 0)
(3.12778e-06 -1.98425e-07 0)
(3.20967e-06 -1.71814e-07 0)
(3.29041e-06 -1.41749e-07 0)
(3.37034e-06 -1.07416e-07 0)
(3.44898e-06 -6.83645e-08 0)
(1.5618e-06 -6.06747e-07 0)
(1.68366e-06 -5.63141e-07 0)
(1.80168e-06 -5.26773e-07 0)
(1.91567e-06 -4.94978e-07 0)
(2.02595e-06 -4.67235e-07 0)
(2.13271e-06 -4.42581e-07 0)
(2.23628e-06 -4.20279e-07 0)
(2.33693e-06 -3.9963e-07 0)
(2.43497e-06 -3.8002e-07 0)
(2.53066e-06 -3.60895e-07 0)
(2.62424e-06 -3.41752e-07 0)
(2.71592e-06 -3.22121e-07 0)
(2.80588e-06 -3.01549e-07 0)
(2.89428e-06 -2.79585e-07 0)
(2.98125e-06 -2.55759e-07 0)
(3.06688e-06 -2.29582e-07 0)
(3.15132e-06 -2.00483e-07 0)
(3.23456e-06 -1.67895e-07 0)
(3.31693e-06 -1.30983e-07 0)
(3.39811e-06 -8.92913e-08 0)
(1.48842e-06 -6.7677e-07 0)
(1.611e-06 -6.31562e-07 0)
(1.7299e-06 -5.92438e-07 0)
(1.84525e-06 -5.57648e-07 0)
(1.9571e-06 -5.26699e-07 0)
(2.0656e-06 -4.98805e-07 0)
(2.17097e-06 -4.73293e-07 0)
(2.27342e-06 -4.49521e-07 0)
(2.37319e-06 -4.26902e-07 0)
(2.47052e-06 -4.04897e-07 0)
(2.56562e-06 -3.83004e-07 0)
(2.65869e-06 -3.6075e-07 0)
(2.74991e-06 -3.37675e-07 0)
(2.83944e-06 -3.13323e-07 0)
(2.92743e-06 -2.8722e-07 0)
(3.01399e-06 -2.58877e-07 0)
(3.0993e-06 -2.27734e-07 0)
(3.18339e-06 -1.93239e-07 0)
(3.26662e-06 -1.546e-07 0)
(3.34878e-06 -1.11397e-07 0)
(1.42473e-06 -7.44523e-07 0)
(1.54619e-06 -6.98114e-07 0)
(1.66484e-06 -6.57048e-07 0)
(1.78033e-06 -6.19879e-07 0)
(1.89274e-06 -5.86236e-07 0)
(2.00204e-06 -5.55493e-07 0)
(2.10839e-06 -5.2706e-07 0)
(2.21192e-06 -5.00373e-07 0)
(2.31282e-06 -4.74889e-07 0)
(2.41127e-06 -4.501e-07 0)
(2.50746e-06 -4.25522e-07 0)
(2.60156e-06 -4.00692e-07 0)
(2.69376e-06 -3.75156e-07 0)
(2.78419e-06 -3.48462e-07 0)
(2.87303e-06 -3.20142e-07 0)
(2.96039e-06 -2.89719e-07 0)
(3.04648e-06 -2.56654e-07 0)
(3.13137e-06 -2.20422e-07 0)
(3.2154e-06 -1.80287e-07 0)
(3.29851e-06 -1.35873e-07 0)
(1.3682e-06 -8.09802e-07 0)
(1.48793e-06 -7.62724e-07 0)
(1.60553e-06 -7.20163e-07 0)
(1.72039e-06 -6.81014e-07 0)
(1.83258e-06 -6.45044e-07 0)
(1.94197e-06 -6.11764e-07 0)
(2.04864e-06 -5.8068e-07 0)
(2.15267e-06 -5.51302e-07 0)
(2.25418e-06 -5.23141e-07 0)
(2.3533e-06 -4.95726e-07 0)
(2.4502e-06 -4.68599e-07 0)
(2.54502e-06 -4.41315e-07 0)
(2.63792e-06 -4.13434e-07 0)
(2.72904e-06 -3.84519e-07 0)
(2.81856e-06 -3.54116e-07 0)
(2.90659e-06 -3.21767e-07 0)
(2.99335e-06 -2.86963e-07 0)
(3.07895e-06 -2.49216e-07 0)
(3.16371e-06 -2.07852e-07 0)
(3.2477e-06 -1.62539e-07 0)
(1.31814e-06 -8.72371e-07 0)
(1.4356e-06 -8.24999e-07 0)
(1.55154e-06 -7.814e-07 0)
(1.66514e-06 -7.40722e-07 0)
(1.7765e-06 -7.02843e-07 0)
(1.88538e-06 -6.67392e-07 0)
(1.99183e-06 -6.33973e-07 0)
(2.09584e-06 -6.0217e-07 0)
(2.1975e-06 -5.71553e-07 0)
(2.2969e-06 -5.41697e-07 0)
(2.39416e-06 -5.12179e-07 0)
(2.48939e-06 -4.82581e-07 0)
(2.58275e-06 -4.52485e-07 0)
(2.67436e-06 -4.21474e-07 0)
(2.76438e-06 -3.89119e-07 0)
(2.85295e-06 -3.54989e-07 0)
(2.94028e-06 -3.1861e-07 0)
(3.02649e-06 -2.79536e-07 0)
(3.11193e-06 -2.37166e-07 0)
(3.1967e-06 -1.91216e-07 0)
(1.27347e-06 -9.32179e-07 0)
(1.38837e-06 -8.84836e-07 0)
(1.50223e-06 -8.4055e-07 0)
(1.61414e-06 -7.98699e-07 0)
(1.72421e-06 -7.5926e-07 0)
(1.83212e-06 -7.21966e-07 0)
(1.9379e-06 -6.86509e-07 0)
(2.04147e-06 -6.52548e-07 0)
(2.1429e-06 -6.19714e-07 0)
(2.24222e-06 -5.8763e-07 0)
(2.33953e-06 -5.55911e-07 0)
(2.43491e-06 -5.24172e-07 0)
(2.5285e-06 -4.92024e-07 0)
(2.62041e-06 -4.59077e-07 0)
(2.71078e-06 -4.2493e-07 0)
(2.79976e-06 -3.89184e-07 0)
(2.88754e-06 -3.51409e-07 0)
(2.97429e-06 -3.11203e-07 0)
(3.06031e-06 -2.68042e-07 0)
(3.14578e-06 -2.21687e-07 0)
(1.23333e-06 -9.89285e-07 0)
(1.34547e-06 -9.42195e-07 0)
(1.45699e-06 -8.97514e-07 0)
(1.56691e-06 -8.54806e-07 0)
(1.67534e-06 -8.14131e-07 0)
(1.78194e-06 -7.75305e-07 0)
(1.88669e-06 -7.38105e-07 0)
(1.9895e-06 -7.02256e-07 0)
(2.09037e-06 -6.67451e-07 0)
(2.18933e-06 -6.33361e-07 0)
(2.28642e-06 -5.99645e-07 0)
(2.38173e-06 -5.65952e-07 0)
(2.47535e-06 -5.31927e-07 0)
(2.56738e-06 -4.9721e-07 0)
(2.65797e-06 -4.61436e-07 0)
(2.74724e-06 -4.24239e-07 0)
(2.83539e-06 -3.85237e-07 0)
(2.92258e-06 -3.44075e-07 0)
(3.0091e-06 -3.00307e-07 0)
(3.09519e-06 -2.53742e-07 0)
(1.19687e-06 -1.04379e-06 0)
(1.3062e-06 -9.97117e-07 0)
(1.41521e-06 -9.52263e-07 0)
(1.52295e-06 -9.08955e-07 0)
(1.62951e-06 -8.67315e-07 0)
(1.73455e-06 -8.27233e-07 0)
(1.83802e-06 -7.88559e-07 0)
(1.93979e-06 -7.51082e-07 0)
(2.03986e-06 -7.14549e-07 0)
(2.13821e-06 -6.7868e-07 0)
(2.23488e-06 -6.43178e-07 0)
(2.32992e-06 -6.07729e-07 0)
(2.4234e-06 -5.72014e-07 0)
(2.51542e-06 -5.35707e-07 0)
(2.60609e-06 -4.98478e-07 0)
(2.69555e-06 -4.6e-07 0)
(2.78396e-06 -4.19938e-07 0)
(2.87152e-06 -3.77987e-07 0)
(2.95847e-06 -3.33776e-07 0)
(3.04508e-06 -2.87158e-07 0)
(1.16338e-06 -1.09586e-06 0)
(1.26989e-06 -1.0497e-06 0)
(1.37632e-06 -1.00484e-06 0)
(1.48176e-06 -9.61138e-07 0)
(1.58631e-06 -9.18765e-07 0)
(1.68961e-06 -8.77673e-07 0)
(1.7916e-06 -8.37774e-07 0)
(1.89216e-06 -7.98911e-07 0)
(1.99124e-06 -7.60885e-07 0)
(2.0888e-06 -7.23462e-07 0)
(2.18488e-06 -6.86387e-07 0)
(2.27949e-06 -6.49383e-07 0)
(2.37269e-06 -6.12168e-07 0)
(2.46457e-06 -5.74451e-07 0)
(2.55522e-06 -5.35939e-07 0)
(2.64478e-06 -4.96346e-07 0)
(2.73338e-06 -4.55381e-07 0)
(2.82123e-06 -4.12789e-07 0)
(2.90853e-06 -3.68272e-07 0)
(2.99557e-06 -3.21725e-07 0)
(1.13219e-06 -1.14565e-06 0)
(1.23592e-06 -1.10006e-06 0)
(1.33976e-06 -1.05531e-06 0)
(1.44287e-06 -1.01138e-06 0)
(1.54532e-06 -9.68468e-07 0)
(1.64678e-06 -9.26577e-07 0)
(1.74718e-06 -8.85675e-07 0)
(1.84638e-06 -8.45652e-07 0)
(1.94433e-06 -8.06356e-07 0)
(2.04098e-06 -7.67597e-07 0)
(2.13633e-06 -7.29157e-07 0)
(2.23039e-06 -6.90798e-07 0)
(2.32321e-06 -6.52273e-07 0)
(2.41485e-06 -6.13326e-07 0)
(2.5054e-06 -5.73702e-07 0)
(2.59497e-06 -5.33152e-07 0)
(2.68369e-06 -4.91431e-07 0)
(2.77175e-06 -4.48332e-07 0)
(2.85934e-06 -4.03624e-07 0)
(2.94674e-06 -3.57239e-07 0)
(1.10272e-06 -1.19335e-06 0)
(1.20375e-06 -1.14834e-06 0)
(1.30504e-06 -1.10379e-06 0)
(1.40581e-06 -1.05975e-06 0)
(1.50613e-06 -1.01645e-06 0)
(1.6057e-06 -9.73948e-07 0)
(1.70443e-06 -9.32241e-07 0)
(1.8022e-06 -8.91264e-07 0)
(1.89893e-06 -8.50907e-07 0)
(1.99457e-06 -8.11017e-07 0)
(2.08911e-06 -7.71415e-07 0)
(2.18254e-06 -7.31896e-07 0)
(2.2749e-06 -6.92246e-07 0)
(2.36623e-06 -6.52245e-07 0)
(2.4566e-06 -6.11671e-07 0)
(2.54612e-06 -5.70314e-07 0)
(2.63491e-06 -5.27973e-07 0)
(2.72312e-06 -4.84481e-07 0)
(2.81093e-06 -4.39673e-07 0)
(2.89862e-06 -3.93512e-07 0)
(1.07444e-06 -1.23912e-06 0)
(1.17287e-06 -1.19468e-06 0)
(1.27166e-06 -1.15037e-06 0)
(1.37013e-06 -1.10632e-06 0)
(1.46834e-06 -1.06278e-06 0)
(1.56601e-06 -1.01981e-06 0)
(1.66306e-06 -9.77475e-07 0)
(1.75935e-06 -9.35732e-07 0)
(1.85482e-06 -8.94507e-07 0)
(1.9494e-06 -8.53681e-07 0)
(2.04307e-06 -8.13108e-07 0)
(2.13582e-06 -7.72615e-07 0)
(2.22766e-06 -7.32019e-07 0)
(2.31863e-06 -6.91131e-07 0)
(2.40878e-06 -6.49763e-07 0)
(2.4982e-06 -6.07739e-07 0)
(2.587e-06 -5.64899e-07 0)
(2.67532e-06 -5.21114e-07 0)
(2.76329e-06 -4.76274e-07 0)
(2.85119e-06 -4.30372e-07 0)
(1.04687e-06 -1.28312e-06 0)
(1.14279e-06 -1.23923e-06 0)
(1.23917e-06 -1.19519e-06 0)
(1.33541e-06 -1.1512e-06 0)
(1.43155e-06 -1.10751e-06 0)
(1.52735e-06 -1.06423e-06 0)
(1.62272e-06 -1.02141e-06 0)
(1.71755e-06 -9.79072e-07 0)
(1.81175e-06 -9.37157e-07 0)
(1.90526e-06 -8.95576e-07 0)
(1.99804e-06 -8.54212e-07 0)
(2.09008e-06 -8.12921e-07 0)
(2.18137e-06 -7.71547e-07 0)
(2.27194e-06 -7.2993e-07 0)
(2.36184e-06 -6.87912e-07 0)
(2.45113e-06 -6.4535e-07 0)
(2.5399e-06 -6.02116e-07 0)
(2.62828e-06 -5.5812e-07 0)
(2.71638e-06 -5.13298e-07 0)
(2.80444e-06 -4.67669e-07 0)
(1.01955e-06 -1.32549e-06 0)
(1.11308e-06 -1.28212e-06 0)
(1.20714e-06 -1.23837e-06 0)
(1.30122e-06 -1.1945e-06 0)
(1.39538e-06 -1.15075e-06 0)
(1.48937e-06 -1.10726e-06 0)
(1.58312e-06 -1.06411e-06 0)
(1.67651e-06 -1.02132e-06 0)
(1.76947e-06 -9.78876e-07 0)
(1.86192e-06 -9.36708e-07 0)
(1.95382e-06 -8.9472e-07 0)
(2.04515e-06 -8.52795e-07 0)
(2.13589e-06 -8.108e-07 0)
(2.22606e-06 -7.68602e-07 0)
(2.31568e-06 -7.26067e-07 0)
(2.40482e-06 -6.83081e-07 0)
(2.49354e-06 -6.39548e-07 0)
(2.58194e-06 -5.95406e-07 0)
(2.67012e-06 -5.50635e-07 0)
(2.75829e-06 -5.05272e-07 0)
(9.92028e-07 -1.36637e-06 0)
(1.08327e-06 -1.32348e-06 0)
(1.17513e-06 -1.28003e-06 0)
(1.26717e-06 -1.23632e-06 0)
(1.35943e-06 -1.1926e-06 0)
(1.45171e-06 -1.149e-06 0)
(1.54392e-06 -1.10563e-06 0)
(1.63596e-06 -1.06254e-06 0)
(1.72773e-06 -1.01971e-06 0)
(1.81917e-06 -9.77109e-07 0)
(1.91023e-06 -9.34652e-07 0)
(2.00087e-06 -8.92243e-07 0)
(2.09107e-06 -8.49772e-07 0)
(2.18084e-06 -8.07125e-07 0)
(2.27019e-06 -7.64194e-07 0)
(2.35916e-06 -7.20885e-07 0)
(2.44781e-06 -6.77131e-07 0)
(2.53621e-06 -6.32895e-07 0)
(2.62444e-06 -5.88191e-07 0)
(2.71267e-06 -5.43072e-07 0)
(9.63873e-07 -1.40586e-06 0)
(1.05294e-06 -1.36347e-06 0)
(1.1427e-06 -1.32029e-06 0)
(1.23284e-06 -1.27678e-06 0)
(1.32335e-06 -1.23315e-06 0)
(1.41404e-06 -1.18954e-06 0)
(1.50483e-06 -1.14608e-06 0)
(1.5956e-06 -1.1028e-06 0)
(1.68628e-06 -1.05972e-06 0)
(1.77679e-06 -1.01682e-06 0)
(1.86706e-06 -9.74035e-07 0)
(1.95707e-06 -9.3128e-07 0)
(2.04677e-06 -8.88463e-07 0)
(2.13616e-06 -8.45488e-07 0)
(2.22524e-06 -8.02266e-07 0)
(2.31404e-06 -7.58723e-07 0)
(2.4026e-06 -7.14813e-07 0)
(2.49099e-06 -6.70522e-07 0)
(2.57924e-06 -6.25887e-07 0)
(2.66751e-06 -5.80979e-07 0)
(9.34649e-07 -1.44414e-06 0)
(1.02158e-06 -1.40209e-06 0)
(1.10934e-06 -1.35929e-06 0)
(1.19782e-06 -1.31606e-06 0)
(1.28672e-06 -1.27259e-06 0)
(1.376e-06 -1.22905e-06 0)
(1.46551e-06 -1.18557e-06 0)
(1.55517e-06 -1.14222e-06 0)
(1.64488e-06 -1.09901e-06 0)
(1.73456e-06 -1.05593e-06 0)
(1.82415e-06 -1.01293e-06 0)
(1.91358e-06 -9.6995e-07 0)
(2.00283e-06 -9.269e-07 0)
(2.09187e-06 -8.83701e-07 0)
(2.1807e-06 -8.40279e-07 0)
(2.26935e-06 -7.96576e-07 0)
(2.35781e-06 -7.52562e-07 0)
(2.44616e-06 -7.08241e-07 0)
(2.53443e-06 -6.63668e-07 0)
(2.6227e-06 -6.18927e-07 0)
(9.03643e-07 -1.48115e-06 0)
(9.88772e-07 -1.43951e-06 0)
(1.07489e-06 -1.39717e-06 0)
(1.16174e-06 -1.35424e-06 0)
(1.24925e-06 -1.31099e-06 0)
(1.33728e-06 -1.26761e-06 0)
(1.42572e-06 -1.22421e-06 0)
(1.51443e-06 -1.18088e-06 0)
(1.60333e-06 -1.13765e-06 0)
(1.69232e-06 -1.0945e-06 0)
(1.78132e-06 -1.0514e-06 0)
(1.87027e-06 -1.00829e-06 0)
(1.95913e-06 -9.65101e-07 0)
(2.04787e-06 -9.21767e-07 0)
(2.13647e-06 -8.78221e-07 0)
(2.22496e-06 -8.34419e-07 0)
(2.31333e-06 -7.90343e-07 0)
(2.40163e-06 -7.46008e-07 0)
(2.48988e-06 -7.01483e-07 0)
(2.57815e-06 -6.56859e-07 0)
(8.70467e-07 -1.51733e-06 0)
(9.53938e-07 -1.47619e-06 0)
(1.03855e-06 -1.43421e-06 0)
(1.12408e-06 -1.39161e-06 0)
(1.21046e-06 -1.34864e-06 0)
(1.29751e-06 -1.30547e-06 0)
(1.38511e-06 -1.26224e-06 0)
(1.47311e-06 -1.21901e-06 0)
(1.56141e-06 -1.17582e-06 0)
(1.64988e-06 -1.13268e-06 0)
(1.73844e-06 -1.08955e-06 0)
(1.82702e-06 -1.04639e-06 0)
(1.91557e-06 -1.00314e-06 0)
(2.00405e-06 -9.5973e-07 0)
(2.09245e-06 -9.16116e-07 0)
(2.18078e-06 -8.72258e-07 0)
(2.26904e-06 -8.28147e-07 0)
(2.35727e-06 -7.83806e-07 0)
(2.44549e-06 -7.39311e-07 0)
(2.53374e-06 -6.94756e-07 0)
(8.34677e-07 -1.55234e-06 0)
(9.16684e-07 -1.51176e-06 0)
(1.00005e-06 -1.4703e-06 0)
(1.08457e-06 -1.42816e-06 0)
(1.17011e-06 -1.38557e-06 0)
(1.25648e-06 -1.34271e-06 0)
(1.34353e-06 -1.29971e-06 0)
(1.43109e-06 -1.25666e-06 0)
(1.51901e-06 -1.21359e-06 0)
(1.60717e-06 -1.17052e-06 0)
(1.69546e-06 -1.12742e-06 0)
(1.78379e-06 -1.08427e-06 0)
(1.8721e-06 -1.041e-06 0)
(1.96037e-06 -9.97564e-07 0)
(2.04857e-06 -9.53923e-07 0)
(2.13673e-06 -9.10044e-07 0)
(2.22485e-06 -8.65925e-07 0)
(2.31298e-06 -8.21589e-07 0)
(2.40114e-06 -7.77111e-07 0)
(2.48937e-06 -7.32585e-07 0)
(6.37533e-08 -1.37312e-06 0)
(1.92215e-07 -1.35269e-06 0)
(3.23583e-07 -1.31267e-06 0)
(4.59483e-07 -1.25464e-06 0)
(6.01274e-07 -1.18081e-06 0)
(7.49811e-07 -1.09396e-06 0)
(9.05438e-07 -9.9723e-07 0)
(1.0679e-06 -8.93975e-07 0)
(1.23645e-06 -7.87591e-07 0)
(1.40991e-06 -6.80853e-07 0)
(6.18558e-08 -1.39414e-06 0)
(1.86377e-07 -1.37547e-06 0)
(3.13341e-07 -1.33889e-06 0)
(4.44119e-07 -1.28571e-06 0)
(5.79874e-07 -1.21784e-06 0)
(7.21357e-07 -1.13761e-06 0)
(8.68874e-07 -1.04772e-06 0)
(1.02222e-06 -9.51038e-07 0)
(1.18049e-06 -8.50675e-07 0)
(1.34299e-06 -7.48647e-07 0)
(6.02057e-08 -1.41568e-06 0)
(1.81288e-07 -1.39861e-06 0)
(3.04375e-07 -1.36514e-06 0)
(4.30589e-07 -1.31641e-06 0)
(5.60893e-07 -1.25405e-06 0)
(6.95939e-07 -1.1801e-06 0)
(8.3603e-07 -1.09686e-06 0)
(9.81173e-07 -1.00671e-06 0)
(1.13068e-06 -9.12387e-07 0)
(1.28421e-06 -8.14965e-07 0)
(5.87381e-08 -1.43779e-06 0)
(1.76779e-07 -1.42208e-06 0)
(2.96493e-07 -1.39127e-06 0)
(4.18814e-07 -1.34633e-06 0)
(5.44543e-07 -1.28871e-06 0)
(6.74219e-07 -1.22019e-06 0)
(8.0807e-07 -1.1428e-06 0)
(9.46105e-07 -1.05862e-06 0)
(1.08776e-06 -9.70192e-07 0)
(1.23271e-06 -8.78236e-07 0)
(5.73843e-08 -1.46045e-06 0)
(1.72625e-07 -1.44596e-06 0)
(2.89259e-07 -1.41751e-06 0)
(4.08061e-07 -1.37599e-06 0)
(5.29699e-07 -1.32267e-06 0)
(6.54626e-07 -1.25911e-06 0)
(7.8305e-07 -1.18712e-06 0)
(9.14975e-07 -1.10847e-06 0)
(1.05003e-06 -1.02546e-06 0)
(1.18759e-06 -9.38717e-07 0)
(5.61253e-08 -1.48363e-06 0)
(1.68774e-07 -1.4702e-06 0)
(2.82597e-07 -1.4438e-06 0)
(3.98241e-07 -1.40525e-06 0)
(5.16263e-07 -1.35568e-06 0)
(6.37029e-07 -1.2965e-06 0)
(7.60716e-07 -1.22935e-06 0)
(8.87269e-07 -1.15578e-06 0)
(1.01653e-06 -1.07788e-06 0)
(1.14763e-06 -9.96303e-07 0)
(5.49212e-08 -1.5073e-06 0)
(1.651e-07 -1.4948e-06 0)
(2.76278e-07 -1.47024e-06 0)
(3.88996e-07 -1.43434e-06 0)
(5.03729e-07 -1.38814e-06 0)
(6.2077e-07 -1.3329e-06 0)
(7.40291e-07 -1.2701e-06 0)
(8.62164e-07 -1.20116e-06 0)
(9.86402e-07 -1.1279e-06 0)
(1.11192e-06 -1.05115e-06 0)
(5.37567e-08 -1.53139e-06 0)
(1.61558e-07 -1.51973e-06 0)
(2.7022e-07 -1.49678e-06 0)
(3.80202e-07 -1.46322e-06 0)
(4.91912e-07 -1.42001e-06 0)
(6.05579e-07 -1.36828e-06 0)
(7.21371e-07 -1.3094e-06 0)
(8.39098e-07 -1.24467e-06 0)
(9.58904e-07 -1.17569e-06 0)
(1.0796e-06 -1.10341e-06 0)
(5.26092e-08 -1.55588e-06 0)
(1.58077e-07 -1.54495e-06 0)
(2.64298e-07 -1.52344e-06 0)
(3.71668e-07 -1.49198e-06 0)
(4.80547e-07 -1.45143e-06 0)
(5.91111e-07 -1.40286e-06 0)
(7.03528e-07 -1.34751e-06 0)
(8.17563e-07 -1.28658e-06 0)
(9.33436e-07 -1.22149e-06 0)
(1.04994e-06 -1.1533e-06 0)
(5.14652e-08 -1.58067e-06 0)
(1.54616e-07 -1.5704e-06 0)
(2.58437e-07 -1.55019e-06 0)
(3.63279e-07 -1.52059e-06 0)
(4.69462e-07 -1.48244e-06 0)
(5.77126e-07 -1.4367e-06 0)
(6.86436e-07 -1.38452e-06 0)
(7.97132e-07 -1.32704e-06 0)
(9.0947e-07 -1.2655e-06 0)
(1.02228e-06 -1.20103e-06 0)
(5.03088e-08 -1.60573e-06 0)
(1.51125e-07 -1.59604e-06 0)
(2.52552e-07 -1.57699e-06 0)
(3.54906e-07 -1.54908e-06 0)
(4.58481e-07 -1.51308e-06 0)
(5.6339e-07 -1.4699e-06 0)
(6.69795e-07 -1.42058e-06 0)
(7.7743e-07 -1.36621e-06 0)
(8.86555e-07 -1.3079e-06 0)
(9.96081e-07 -1.2468e-06 0)
(4.91271e-08 -1.63096e-06 0)
(1.47564e-07 -1.62181e-06 0)
(2.46572e-07 -1.6038e-06 0)
(3.46442e-07 -1.57742e-06 0)
(4.47452e-07 -1.54336e-06 0)
(5.49701e-07 -1.50249e-06 0)
(6.53342e-07 -1.45576e-06 0)
(7.58122e-07 -1.40421e-06 0)
(8.64282e-07 -1.34884e-06 0)
(9.70841e-07 -1.29078e-06 0)
(4.79058e-08 -1.6563e-06 0)
(1.43891e-07 -1.64764e-06 0)
(2.40421e-07 -1.63058e-06 0)
(3.37777e-07 -1.60558e-06 0)
(4.36224e-07 -1.57329e-06 0)
(5.35858e-07 -1.53451e-06 0)
(6.36824e-07 -1.49014e-06 0)
(7.38894e-07 -1.44115e-06 0)
(8.42277e-07 -1.38844e-06 0)
(9.46108e-07 -1.33314e-06 0)
(4.66307e-08 -1.68165e-06 0)
(1.40061e-07 -1.67343e-06 0)
(2.34024e-07 -1.65724e-06 0)
(3.288e-07 -1.63351e-06 0)
(4.24647e-07 -1.60284e-06 0)
(5.21667e-07 -1.56597e-06 0)
(6.19999e-07 -1.52375e-06 0)
(7.19445e-07 -1.47709e-06 0)
(8.20181e-07 -1.42681e-06 0)
(9.21458e-07 -1.374e-06 0)
(4.52855e-08 -1.70694e-06 0)
(1.36025e-07 -1.69913e-06 0)
(2.27299e-07 -1.68375e-06 0)
(3.1939e-07 -1.66118e-06 0)
(4.1256e-07 -1.63199e-06 0)
(5.0692e-07 -1.59689e-06 0)
(6.02611e-07 -1.55664e-06 0)
(6.99467e-07 -1.5121e-06 0)
(7.97631e-07 -1.46405e-06 0)
(8.96467e-07 -1.41351e-06 0)
(4.38529e-08 -1.73201e-06 0)
(1.31731e-07 -1.72458e-06 0)
(2.20155e-07 -1.70995e-06 0)
(3.09419e-07 -1.68847e-06 0)
(3.99791e-07 -1.66066e-06 0)
(4.91404e-07 -1.62719e-06 0)
(5.84396e-07 -1.58876e-06 0)
(6.78645e-07 -1.54619e-06 0)
(7.74263e-07 -1.50019e-06 0)
(8.70723e-07 -1.45172e-06 0)
(4.23113e-08 -1.75682e-06 0)
(1.27114e-07 -1.74976e-06 0)
(2.12482e-07 -1.73583e-06 0)
(2.9873e-07 -1.71537e-06 0)
(3.86137e-07 -1.68886e-06 0)
(4.74861e-07 -1.65692e-06 0)
(5.65049e-07 -1.6202e-06 0)
(6.56618e-07 -1.57946e-06 0)
(7.49672e-07 -1.53537e-06 0)
(8.43753e-07 -1.48881e-06 0)
(4.06385e-08 -1.78106e-06 0)
(1.22107e-07 -1.77434e-06 0)
(2.04169e-07 -1.76108e-06 0)
(2.87163e-07 -1.7416e-06 0)
(3.71389e-07 -1.71634e-06 0)
(4.57031e-07 -1.68585e-06 0)
(5.44252e-07 -1.65076e-06 0)
(6.33017e-07 -1.61176e-06 0)
(7.23401e-07 -1.56947e-06 0)
(8.15076e-07 -1.52472e-06 0)
(3.88002e-08 -1.80488e-06 0)
(1.16607e-07 -1.79849e-06 0)
(1.95044e-07 -1.78589e-06 0)
(2.74477e-07 -1.76736e-06 0)
(3.55234e-07 -1.74329e-06 0)
(4.37534e-07 -1.71422e-06 0)
(5.21562e-07 -1.68069e-06 0)
(6.07334e-07 -1.64336e-06 0)
(6.94923e-07 -1.6028e-06 0)
(7.84096e-07 -1.55978e-06 0)
(3.67804e-08 -1.82743e-06 0)
(1.10565e-07 -1.82138e-06 0)
(1.85025e-07 -1.80943e-06 0)
(2.60553e-07 -1.79184e-06 0)
(3.37512e-07 -1.76897e-06 0)
(4.16161e-07 -1.74131e-06 0)
(4.96724e-07 -1.70935e-06 0)
(5.79266e-07 -1.6737e-06 0)
(6.63884e-07 -1.63489e-06 0)
(7.50418e-07 -1.59362e-06 0)
)
;

boundaryField
{
    left
    {
        type            solidSymmetry;
        patchType       symmetryPlane;
        secondOrder     false;
        value           nonuniform List<vector> 
30
(
(0 -1.37376e-06 0)
(0 -1.39476e-06 0)
(0 -1.41628e-06 0)
(0 -1.43836e-06 0)
(0 -1.461e-06 0)
(0 -1.48416e-06 0)
(0 -1.5078e-06 0)
(0 -1.53187e-06 0)
(0 -1.55632e-06 0)