/*--------------------------------*- C++ -*----------------------------------*\
| =========                 |                                                 |
| \\      /  F ield         | foam-extend: Open Source CFD                    |
|  \\    /   O peration     | Version:     4.1                                |
|   \\  /    A nd           | Web:         http://www.foam-extend.org         |
|    \\/     M anipulation  |                                                 |
\*---------------------------------------------------------------------------*/
FoamFile
{
    version     2.0;
    format      ascii;
    class       pointVectorField;
    location    "3";
    object      pointD;
}
// * * * * * * * * * * * * * * * * * * * * * * * * * * * * * * * * * * * * * //

dimensions      [0 1 0 0 0 0 0];

internalField   nonuniform List<vector> 
2142
(
(1.74415e-06 -7.2437e-07 -9.57378e-23)
(1.62562e-06 -6.42341e-07 0)
(1.553e-06 -5.96043e-07 0)
(1.50814e-06 -5.68687e-07 0)
(1.48361e-06 -5.55279e-07 0)
(1.47347e-06 -5.5088e-07 0)
(1.47392e-06 -5.52869e-07 0)
(1.4823e-06 -5.59235e-07 0)
(1.49666e-06 -5.68676e-07 0)
(1.51563e-06 -5.80287e-07 0)
(1.53876e-06 -5.93884e-07 0)
(1.60039e-06 -7.80188e-07 -4.18613e-23)
(1.47175e-06 -7.15235e-07 0)
(1.39283e-06 -6.79792e-07 0)
(1.34384e-06 -6.59484e-07 0)
(1.31637e-06 -6.50817e-07 0)
(1.30398e-06 -6.49645e-07 0)
(1.30252e-06 -6.53938e-07 0)
(1.30914e-06 -6.61973e-07 0)
(1.32173e-06 -6.72742e-07 0)
(1.33892e-06 -6.85312e-07 0)
(1.35935e-06 -6.99592e-07 0)
(1.44711e-06 -8.31377e-07 6.5614e-23)
(1.31324e-06 -7.86376e-07 0)
(1.23103e-06 -7.63551e-07 0)
(1.17982e-06 -7.51413e-07 0)
(1.15061e-06 -7.48191e-07 0)
(1.13666e-06 -7.50685e-07 0)
(1.13366e-06 -7.57553e-07 0)
(1.13865e-06 -7.67435e-07 0)
(1.14945e-06 -7.79642e-07 0)
(1.16457e-06 -7.93261e-07 0)
(1.18269e-06 -8.08673e-07 0)
(1.28529e-06 -8.77565e-07 1.51277e-22)
(1.15155e-06 -8.54253e-07 0)
(1.06937e-06 -8.45096e-07 0)
(1.01805e-06 -8.41793e-07 0)
(9.88403e-07 -8.44417e-07 0)
(9.73707e-07 -8.50809e-07 0)
(9.69618e-07 -8.60367e-07 0)
(9.73206e-07 -8.72142e-07 0)
(9.8233e-07 -8.85769e-07 0)
(9.95473e-07 -9.00478e-07 0)
(1.01153e-06 -9.16817e-07 0)
(1.11591e-06 -9.18402e-07 5.14008e-24)
(9.87898e-07 -9.17284e-07 0)
(9.09195e-07 -9.22083e-07 0)
(8.5996e-07 -9.27788e-07 0)
(8.31252e-07 -9.3635e-07 0)
(8.16642e-07 -9.46681e-07 0)
(8.11961e-07 -9.5893e-07 0)
(8.14411e-07 -9.72581e-07 0)
(8.21985e-07 -9.87582e-07 0)
(8.33207e-07 -1.00337e-06 0)
(8.47212e-07 -1.02057e-06 0)
(9.40018e-07 -9.53561e-07 -9.31237e-23)
(8.23224e-07 -9.73889e-07 0)
(7.51399e-07 -9.92149e-07 0)
(7.06408e-07 -1.00654e-06 0)
(6.79998e-07 -1.0208e-06 0)
(6.66302e-07 -1.03491e-06 0)
(6.61514e-07 -1.04972e-06 0)
(6.63089e-07 -1.06515e-06 0)
(6.69226e-07 -1.08144e-06 0)
(6.78559e-07 -1.09826e-06 0)
(6.90436e-07 -1.11625e-06 0)
(7.58652e-07 -9.82751e-07 1.17596e-23)
(6.58213e-07 -1.02257e-06 0)
(5.96433e-07 -1.05304e-06 0)
(5.57695e-07 -1.07531e-06 0)
(5.34845e-07 -1.09474e-06 0)
(5.22836e-07 -1.11225e-06 0)
(5.18394e-07 -1.12937e-06 0)
(5.19333e-07 -1.1464e-06 0)
(5.24127e-07 -1.16385e-06 0)
(5.31583e-07 -1.18161e-06 0)
(5.41236e-07 -1.2003e-06 0)
(5.72886e-07 -1.00572e-06 1.28561e-23)
(4.93289e-07 -1.06196e-06 0)
(4.44318e-07 -1.10273e-06 0)
(4.1359e-07 -1.13163e-06 0)
(3.954e-07 -1.15541e-06 0)
(3.8575e-07 -1.17579e-06 0)
(3.82044e-07 -1.19484e-06 0)
(3.82553e-07 -1.21322e-06 0)
(3.8608e-07 -1.23164e-06 0)
(3.91666e-07 -1.2502e-06 0)
(3.99e-07 -1.26947e-06 0)
(3.83807e-07 -1.02226e-06 3.45597e-23)
(3.2865e-07 -1.09095e-06 0)
(2.94701e-07 -1.13951e-06 0)
(2.73384e-07 -1.17343e-06 0)
(2.60734e-07 -1.2005e-06 0)
(2.53979e-07 -1.22305e-06 0)
(2.51321e-07 -1.24356e-06 0)
(2.51561e-07 -1.26296e-06 0)
(2.53877e-07 -1.28212e-06 0)
(2.57597e-07 -1.3013e-06 0)
(2.62534e-07 -1.321e-06 0)
(1.92529e-07 -1.03222e-06 5.29929e-23)
(1.64313e-07 -1.10867e-06 0)
(1.46928e-07 -1.16209e-06 0)
(1.36004e-07 -1.19914e-06 0)
(1.29508e-07 -1.22827e-06 0)
(1.26024e-07 -1.25217e-06 0)
(1.2463e-07 -1.27361e-06 0)
(1.24715e-07 -1.29364e-06 0)
(1.25858e-07 -1.31326e-06 0)
(1.27713e-07 -1.33282e-06 0)
(1.30194e-07 -1.3528e-06 0)
(0 -1.03545e-06 3.7162e-23)
(0 -1.1146e-06 -1.50751e-25)
(0 -1.16974e-06 0)
(0 -1.20782e-06 0)
(0 -1.23767e-06 0)
(0 -1.26202e-06 0)
(0 -1.28377e-06 0)
(0 -1.30402e-06 0)
(0 -1.32379e-06 0)
(0 -1.3435e-06 0)
(0 -1.36357e-06 0)
(1.74415e-06 -7.2437e-07 -9.57378e-23)
(1.62562e-06 -6.42341e-07 0)
(1.553e-06 -5.96043e-07 0)
(1.50814e-06 -5.68687e-07 0)
(1.48361e-06 -5.55279e-07 0)
(1.47347e-06 -5.5088e-07 0)
(1.47392e-06 -5.52869e-07 0)
(1.4823e-06 -5.59235e-07 0)
(1.49666e-06 -5.68676e-07 0)
(1.51563e-06 -5.80287e-07 0)
(1.53876e-06 -5.93884e-07 0)
(1.60039e-06 -7.80188e-07 -4.18613e-23)
(1.47175e-06 -7.15235e-07 0)
(1.39283e-06 -6.79792e-07 0)
(1.34384e-06 -6.59484e-07 0)
(1.31637e-06 -6.50817e-07 0)
(1.30398e-06 -6.49645e-07 0)
(1.30252e-06 -6.53938e-07 0)
(1.30914e-06 -6.61973e-07 0)
(1.32173e-06 -6.72742e-07 0)
(1.33892e-06 -6.85312e-07 0)
(1.35935e-06 -6.99592e-07 0)
(1.44711e-06 -8.31377e-07 6.5614e-23)
(1.31324e-06 -7.86376e-07 0)
(1.23103e-06 -7.63551e-07 0)
(1.17982e-06 -7.51413e-07 0)
(1.15061e-06 -7.48191e-07 0)
(1.13666e-06 -7.50685e-07 0)
(1.13366e-06 -7.57553e-07 0)
(1.13865e-06 -7.67435e-07 0)
(1.14945e-06 -7.79642e-07 0)
(1.16457e-06 -7.93261e-07 0)
(1.18269e-06 -8.08673e-07 0)
(1.28529e-06 -8.77565e-07 1.51277e-22)
(1.15155e-06 -8.54253e-07 0)
(1.06937e-06 -8.45096e-07 0)
(1.01805e-06 -8.41793e-07 0)
(9.88403e-07 -8.44417e-07 0)
(9.73707e-07 -8.50809e-07 0)
(9.69618e-07 -8.60367e-07 0)
(9.73206e-07 -8.72142e-07 0)
(9.8233e-07 -8.85769e-07 0)
(9.95473e-07 -9.00478e-07 0)
(1.01153e-06 -9.16817e-07 0)
(1.11591e-06 -9.18402e-07 5.14008e-24)
(9.87898e-07 -9.17284e-07 0)
(9.09195e-07 -9.22083e-07 0)
(8.5996e-07 -9.27788e-07 0)
(8.31252e-07 -9.3635e-07 0)
(8.16642e-07 -9.46681e-07 0)
(8.11961e-07 -9.5893e-07 0)
(8.14411e-07 -9.72581e-07 0)
(8.21985e-07 -9.87582e-07 0)
(8.33207e-07 -1.00337e-06 0)
(8.47212e-07 -1.02057e-06 0)
(9.40018e-07 -9.53561e-07 -9.31237e-23)
(8.23224e-07 -9.73889e-07 0)
(7.51399e-07 -9.92149e-07 0)
(7.06408e-07 -1.00654e-06 0)
(6.79998e-07 -1.0208e-06 0)
(6.66302e-07 -1.03491e-06 0)
(6.61514e-07 -1.04972e-06 0)
(6.63089e-07 -1.06515e-06 0)
(6.69226e-07 -1.08144e-06 0)
(6.78559e-07 -1.09826e-06 0)
(6.90436e-07 -1.11625e-06 0)
(7.58652e-07 -9.82751e-07 1.17596e-23)
(6.58213e-07 -1.02257e-06 0)
(5.96433e-07 -1.05304e-06 0)
(5.57695e-07 -1.07531e-06 0)
(5.34845e-07 -1.09474e-06 0)
(5.22836e-07 -1.11225e-06 0)
(5.18394e-07 -1.12937e-06 0)
(5.19333e-07 -1.1464e-06 0)
(5.24127e-07 -1.16385e-06 0)
(5.31583e-07 -1.18161e-06 0)
(5.41236e-07 -1.2003e-06 0)
(5.72886e-07 -1.00572e-06 1.28561e-23)
(4.93289e-07 -1.06196e-06 0)
(4.44318e-07 -1.10273e-06 0)
(4.1359e-07 -1.13163e-06 0)
(3.954e-07 -1.15541e-06 0)
(3.8575e-07 -1.17579e-06 0)
(3.82044e-07 -1.19484e-06 0)
(3.82553e-07 -1.21322e-06 0)
(3.8608e-07 -1.23164e-06 0)
(3.91666e-07 -1.2502e-06 0)
(3.99e-07 -1.26947e-06 0)
(3.83807e-07 -1.02226e-06 3.45597e-23)
(3.2865e-07 -1.09095e-06 0)
(2.94701e-07 -1.13951e-06 0)
(2.73384e-07 -1.17343e-06 0)
(2.60734e-07 -1.2005e-06 0)
(2.53979e-07 -1.22305e-06 0)
(2.51321e-07 -1.24356e-06 0)
(2.51561e-07 -1.26296e-06 0)
(2.53877e-07 -1.28212e-06 0)
(2.57597e-07 -1.3013e-06 0)
(2.62534e-07 -1.321e-06 0)
(1.92529e-07 -1.03222e-06 5.29929e-23)
(1.64313e-07 -1.10867e-06 0)
(1.46928e-07 -1.16209e-06 0)
(1.36004e-07 -1.19914e-06 0)
(1.29508e-07 -1.22827e-06 0)
(1.26024e-07 -1.25217e-06 0)
(1.2463e-07 -1.27361e-06 0)
(1.24715e-07 -1.29364e-06 0)
(1.25858e-07 -1.31326e-06 0)
(1.27713e-07 -1.33282e-06 0)
(1.30194e-07 -1.3528e-06 0)
(0 -1.03545e-06 3.7162e-23)
(0 -1.1146e-06 -1.50751e-25)
(0 -1.16974e-06 0)
(0 -1.20782e-06 0)
(0 -1.23767e-06 0)
(0 -1.26202e-06 0)
(0 -1.28377e-06 0)
(0 -1.30402e-06 0)
(0 -1.32379e-06 0)
(0 -1.3435e-06 0)
(0 -1.36357e-06 0)
(2.48312e-06 0 -3.03022e-23)
(2.51108e-06 0 1.22923e-25)
(2.52942e-06 0 0)
(2.54326e-06 0 0)
(2.55802e-06 0 0)
(2.57504e-06 0 0)
(2.59557e-06 0 0)
(2.61977e-06 0 0)
(2.64775e-06 0 0)
(2.67929e-06 0 0)
(2.71429e-06 0 0)
(2.47534e-06 -7.96793e-08 -1.3601e-23)
(2.50076e-06 -5.53518e-08 0)
(2.51749e-06 -4.08291e-08 0)
(2.53035e-06 -3.18425e-08 0)
(2.54442e-06 -2.66106e-08 0)
(2.561e-06 -2.38104e-08 0)
(2.58121e-06 -2.26415e-08 0)
(2.60516e-06 -2.2557e-08 0)
(2.63294e-06 -2.32096e-08 0)
(2.66428e-06 -2.42696e-08 0)
(2.69913e-06 -2.57861e-08 0)
(2.45187e-06 -1.58895e-07 -2.64798e-23)
(2.46992e-06 -1.11468e-07 0)
(2.48208e-06 -8.32326e-08 0)
(2.49199e-06 -6.5786e-08 0)
(2.50411e-06 -5.56564e-08 0)
(2.51937e-06 -5.02636e-08 0)
(2.53863e-06 -4.80489e-08 0)
(2.56185e-06 -4.7948e-08 0)
(2.58905e-06 -4.92817e-08 0)
(2.61981e-06 -5.14128e-08 0)
(2.65419e-06 -5.44228e-08 0)
(2.41285e-06 -2.37253e-07 -7.93376e-23)
(2.41914e-06 -1.69213e-07 0)
(2.42401e-06 -1.28784e-07 0)
(2.42922e-06 -1.03836e-07 0)
(2.43824e-06 -8.94041e-08 0)
(2.45139e-06 -8.17799e-08 0)
(2.46914e-06 -7.87271e-08 0)
(2.49121e-06 -7.87188e-08 0)
(2.51745e-06 -8.07731e-08 0)
(2.5473e-06 -8.39871e-08 0)
(2.58093e-06 -8.84375e-08 0)
(2.35861e-06 -3.14273e-07 -5.60062e-23)
(2.34944e-06 -2.29213e-07 0)
(2.34474e-06 -1.78766e-07 0)
(2.34379e-06 -1.47686e-07 0)
(2.34873e-06 -1.29802e-07 0)
(2.3591e-06 -1.20461e-07 0)
(2.37486e-06 -1.16867e-07 0)
(2.3954e-06 -1.17108e-07 0)
(2.42039e-06 -1.19941e-07 0)
(2.44904e-06 -1.24255e-07 0)
(2.48167e-06 -1.30078e-07 0)
(2.28958e-06 -3.89526e-07 -4.41209e-24)
(2.26221e-06 -2.91904e-07 0)
(2.24623e-06 -2.34154e-07 0)
(2.23801e-06 -1.9865e-07 0)
(2.23813e-06 -1.78377e-07 0)
(2.24521e-06 -1.67963e-07 0)
(2.25861e-06 -1.64201e-07 0)
(2.27733e-06 -1.64888e-07 0)
(2.30081e-06 -1.68576e-07 0)
(2.32804e-06 -1.74011e-07 0)
(2.35947e-06 -1.8112e-07 0)
(2.20629e-06 -4.62579e-07 -1.37976e-24)
(2.15907e-06 -3.57471e-07 0)
(2.13079e-06 -2.95517e-07 0)
(2.11463e-06 -2.57542e-07 0)
(2.10948e-06 -2.36093e-07 0)
(2.11295e-06 -2.25344e-07 0)
(2.12373e-06 -2.21843e-07 0)
(2.14044e-06 -2.23207e-07 0)
(2.16223e-06 -2.27844e-07 0)
(2.18789e-06 -2.34429e-07 0)
(2.21795e-06 -2.42741e-07 0)
(2.10936e-06 -5.33006e-07 -2.34303e-24)
(2.04187e-06 -4.25823e-07 0)
(2.00101e-06 -3.62975e-07 0)
(1.97673e-06 -3.24618e-07 0)
(1.96616e-06 -3.03293e-07 0)
(1.9659e-06 -2.92997e-07 0)
(1.97395e-06 -2.9022e-07 0)
(1.98852e-06 -2.92508e-07 0)
(2.0085e-06 -2.98205e-07 0)
(2.03248e-06 -3.05983e-07 0)
(2.06102e-06 -3.15414e-07 0)
(1.9995e-06 -6.00385e-07 1.13667e-22)
(1.91258e-06 -4.96578e-07 0)
(1.85964e-06 -4.36173e-07 0)
(1.82755e-06 -3.99541e-07 0)
(1.81174e-06 -3.79652e-07 0)
(1.80783e-06 -3.70604e-07 0)
(1.81316e-06 -3.69014e-07 0)
(1.82557e-06 -3.72477e-07 0)
(1.84368e-06 -3.79365e-07 0)
(1.86593e-06 -3.88404e-07 0)
(1.89286e-06 -3.98981e-07 0)
(1.87749e-06 -6.64307e-07 7.20928e-23)
(1.77317e-06 -5.69065e-07 0)
(1.70942e-06 -5.14286e-07 0)
(1.67031e-06 -4.81391e-07 0)
(1.64975e-06 -4.64186e-07 0)
(1.64248e-06 -4.57136e-07 0)
(1.64523e-06 -4.57162e-07 0)
(1.65553e-06 -4.62019e-07 0)
(1.67172e-06 -4.70197e-07 0)
(1.69225e-06 -4.80618e-07 0)
(1.7173e-06 -4.92351e-07 0)
(2.48312e-06 0 -3.03022e-23)
(2.51108e-06 0 1.22923e-25)
(2.52942e-06 0 0)
(2.54326e-06 0 0)
(2.55802e-06 0 0)
(2.57504e-06 0 0)
(2.59557e-06 0 0)
(2.61977e-06 0 0)
(2.64775e-06 0 0)
(2.67929e-06 0 0)
(2.71429e-06 0 0)
(2.47534e-06 -7.96793e-08 -1.3601e-23)
(2.50076e-06 -5.53518e-08 0)
(2.51749e-06 -4.08291e-08 0)
(2.53035e-06 -3.18425e-08 0)
(2.54442e-06 -2.66106e-08 0)
(2.561e-06 -2.38104e-08 0)
(2.58121e-06 -2.26415e-08 0)
(2.60516e-06 -2.2557e-08 0)
(2.63294e-06 -2.32096e-08 0)
(2.66428e-06 -2.42696e-08 0)
(2.69913e-06 -2.57861e-08 0)
(2.45187e-06 -1.58895e-07 -2.64798e-23)
(2.46992e-06 -1.11468e-07 0)
(2.48208e-06 -8.32326e-08 0)
(2.49199e-06 -6.5786e-08 0)
(2.50411e-06 -5.56564e-08 0)
(2.51937e-06 -5.02636e-08 0)
(2.53863e-06 -4.80489e-08 0)
(2.56185e-06 -4.7948e-08 0)
(2.58905e-06 -4.92817e-08 0)
(2.61981e-06 -5.14128e-08 0)
(2.65419e-06 -5.44228e-08 0)
(2.41285e-06 -2.37253e-07 -7.93376e-23)
(2.41914e-06 -1.69213e-07 0)
(2.42401e-06 -1.28784e-07 0)
(2.42922e-06 -1.03836e-07 0)
(2.43824e-06 -8.94041e-08 0)
(2.45139e-06 -8.17799e-08 0)
(2.46914e-06 -7.87271e-08 0)
(2.49121e-06 -7.87188e-08 0)
(2.51745e-06 -8.07731e-08 0)
(2.5473e-06 -8.39871e-08 0)
(2.58093e-06 -8.84375e-08 0)
(2.35861e-06 -3.14273e-07 -5.60062e-23)
(2.34944e-06 -2.29213e-07 0)
(2.34474e-06 -1.78766e-07 0)
(2.34379e-06 -1.47686e-07 0)
(2.34873e-06 -1.29802e-07 0)
(2.3591e-06 -1.20461e-07 0)
(2.37486e-06 -1.16867e-07 0)
(2.3954e-06 -1.17108e-07 0)
(2.42039e-06 -1.19941e-07 0)
(2.44904e-06 -1.24255e-07 0)
(2.48167e-06 -1.30078e-07 0)
(2.28958e-06 -3.89526e-07 -4.41209e-24)
(2.26221e-06 -2.91904e-07 0)
(2.24623e-06 -2.34154e-07 0)
(2.23801e-06 -1.9865e-07 0)
(2.23813e-06 -1.78377e-07 0)
(2.24521e-06 -1.67963e-07 0)
(2.25861e-06 -1.64201e-07 0)
(2.27733e-06 -1.64888e-07 0)
(2.30081e-06 -1.68576e-07 0)
(2.32804e-06 -1.74011e-07 0)
(2.35947e-06 -1.8112e-07 0)
(2.20629e-06 -4.62579e-07 -1.37976e-24)
(2.15907e-06 -3.57471e-07 0)
(2.13079e-06 -2.95517e-07 0)
(2.11463e-06 -2.57542e-07 0)
(2.10948e-06 -2.36093e-07 0)
(2.11295e-06 -2.25344e-07 0)
(2.12373e-06 -2.21843e-07 0)
(2.14044e-06 -2.23207e-07 0)
(2.16223e-06 -2.27844e-07 0)
(2.18789e-06 -2.34429e-07 0)
(2.21795e-06 -2.42741e-07 0)
(2.10936e-06 -5.33006e-07 -2.34303e-24)
(2.04187e-06 -4.25823e-07 0)
(2.00101e-06 -3.62975e-07 0)
(1.97673e-06 -3.24618e-07 0)
(1.96616e-06 -3.03293e-07 0)
(1.9659e-06 -2.92997e-07 0)
(1.97395e-06 -2.9022e-07 0)
(1.98852e-06 -2.92508e-07 0)
(2.0085e-06 -2.98205e-07 0)
(2.03248e-06 -3.05983e-07 0)
(2.06102e-06 -3.15414e-07 0)
(1.9995e-06 -6.00385e-07 1.13667e-22)
(1.91258e-06 -4.96578e-07 0)
(1.85964e-06 -4.36173e-07 0)
(1.82755e-06 -3.99541e-07 0)
(1.81174e-06 -3.79652e-07 0)
(1.80783e-06 -3.70604e-07 0)
(1.81316e-06 -3.69014e-07 0)
(1.82557e-06 -3.72477e-07 0)
(1.84368e-06 -3.79365e-07 0)
(1.86593e-06 -3.88404e-07 0)
(1.89286e-06 -3.98981e-07 0)
(1.87749e-06 -6.64307e-07 7.20928e-23)
(1.77317e-06 -5.69065e-07 0)
(1.70942e-06 -5.14286e-07 0)
(1.67031e-06 -4.81391e-07 0)
(1.64975e-06 -4.64186e-07 0)
(1.64248e-06 -4.57136e-07 0)
(1.64523e-06 -4.57162e-07 0)
(1.65553e-06 -4.62019e-07 0)
(1.67172e-06 -4.70197e-07 0)
(1.69225e-06 -4.80618e-07 0)
(1.7173e-06 -4.92351e-07 0)
(2.75266e-06 0 0)
(2.79386e-06 0 0)
(2.83756e-06 0 0)
(2.88356e-06 0 0)
(2.9316e-06 0 0)
(2.98147e-06 0 0)
(3.03298e-06 0 0)
(3.08593e-06 0 0)
(3.14014e-06 0 0)
(3.19543e-06 0 0)
(3.25164e-06 0 0)
(3.30859e-06 0 0)
(3.36611e-06 0 0)
(3.42402e-06 0 0)
(3.48212e-06 0 0)
(3.54022e-06 0 0)
(3.59806e-06 0 0)
(3.65546e-06 0 0)
(3.71195e-06 0 -9.07904e-27)
(3.76756e-06 0 -1.48448e-23)
(2.73886e-06 -2.59844e-08 0)
(2.78121e-06 -2.60745e-08 0)
(2.82592e-06 -2.61702e-08 0)
(2.87281e-06 -2.61711e-08 0)
(2.92163e-06 -2.60552e-08 0)
(2.9722e-06 -2.58003e-08 0)
(3.02434e-06 -2.53873e-08 0)
(3.07786e-06 -2.48038e-08 0)
(3.13258e-06 -2.40351e-08 0)
(3.18835e-06 -2.30678e-08 0)
(3.24499e-06 -2.18854e-08 0)
(3.30235e-06 -2.04691e-08 0)
(3.36024e-06 -1.87959e-08 0)
(3.41851e-06 -1.68377e-08 0)
(3.47695e-06 -1.45607e-08 0)
(3.53538e-06 -1.19228e-08 0)
(3.59353e-06 -8.8749e-09 0)
(3.65124e-06 -5.35044e-09 0)
(3.70803e-06 -1.29202e-09 0)
(3.76395e-06 3.46486e-09 -3.07396e-23)
(2.69791e-06 -5.43815e-08 0)
(2.74366e-06 -5.42119e-08 0)
(2.79136e-06 -5.41093e-08 0)
(2.84087e-06 -5.38736e-08 0)
(2.89202e-06 -5.34466e-08 0)
(2.94467e-06 -5.27788e-08 0)
(2.99867e-06 -5.18244e-08 0)
(3.05386e-06 -5.0554e-08 0)
(3.11012e-06 -4.89339e-08 0)
(3.16729e-06 -4.69339e-08 0)
(3.22523e-06 -4.45182e-08 0)
(3.28378e-06 -4.16468e-08 0)
(3.34281e-06 -3.8272e-08 0)
(3.40213e-06 -3.4336e-08 0)
(3.46158e-06 -2.97699e-08 0)
(3.52098e-06 -2.44882e-08 0)
(3.58006e-06 -1.83918e-08 0)
(3.63869e-06 -1.13469e-08 0)
(3.69639e-06 -3.23771e-09 0)
(3.75322e-06 6.26164e-09 -5.19985e-23)
(2.63107e-06 -8.73252e-08 0)
(2.68231e-06 -8.62299e-08 0)
(2.73486e-06 -8.53704e-08 0)
(2.78862e-06 -8.44511e-08 0)
(2.84356e-06 -8.33467e-08 0)
(2.89959e-06 -8.19715e-08 0)
(2.95662e-06 -8.02376e-08 0)
(3.01457e-06 -7.80901e-08 0)
(3.07332e-06 -7.54674e-08 0)
(3.13278e-06 -7.23162e-08 0)
(3.19284e-06 -6.8576e-08 0)
(3.25336e-06 -6.41814e-08 0)
(3.31422e-06 -5.90562e-08 0)
(3.37529e-06 -5.31099e-08 0)
(3.43638e-06 -4.62359e-08 0)
(3.49736e-06 -3.83032e-08 0)
(3.55798e-06 -2.91604e-08 0)
(3.6181e-06 -1.86046e-08 0)
(3.67728e-06 -6.45887e-09 0)
(3.7356e-06 7.76203e-09 -8.34978e-24)
(2.54031e-06 -1.26737e-07 0)
(2.59887e-06 -1.23783e-07 0)
(2.65792e-06 -1.21377e-07 0)
(2.71742e-06 -1.19141e-07 0)
(2.77747e-06 -1.16839e-07 0)
(2.83807e-06 -1.14337e-07 0)
(2.89923e-06 -1.11484e-07 0)
(2.9609e-06 -1.08186e-07 0)
(3.02306e-06 -1.04344e-07 0)
(3.08565e-06 -9.9871e-08 0)
(3.14858e-06 -9.46747e-08 0)
(3.21178e-06 -8.86581e-08 0)
(3.27515e-06 -8.17117e-08 0)
(3.33858e-06 -7.37083e-08 0)
(3.40193e-06 -6.45e-08 0)
(3.46506e-06 -5.39072e-08 0)
(3.52776e-06 -4.17236e-08 0)
(3.58992e-06 -2.76747e-08 0)
(3.65112e-06 -1.15184e-08 0)
(3.71146e-06 7.38697e-09 1.30427e-23)
(2.4282e-06 -1.74169e-07 0)
(2.49559e-06 -1.68219e-07 0)
(2.56251e-06 -1.63291e-07 0)
(2.62901e-06 -1.58949e-07 0)
(2.69534e-06 -1.54798e-07 0)
(2.76157e-06 -1.5064e-07 0)
(2.82782e-06 -1.4624e-07 0)
(2.89411e-06 -1.4145e-07 0)
(2.96049e-06 -1.36115e-07 0)
(3.02695e-06 -1.30106e-07 0)
(3.09347e-06 -1.2329e-07 0)
(3.16e-06 -1.15529e-07 0)
(3.22648e-06 -1.06676e-07 0)
(3.29284e-06 -9.65602e-08 0)
(3.35897e-06 -8.49891e-08 0)
(3.42478e-06 -7.17307e-08 0)
(3.49006e-06 -5.65209e-08 0)
(3.55474e-06 -3.9011e-08 0)
(3.61845e-06 -1.88899e-08 0)
(3.6813e-06 4.6361e-09 2.90672e-23)
(2.29784e-06 -2.30699e-07 0)
(2.37512e-06 -2.20525e-07 0)
(2.451e-06 -2.12e-07 0)
(2.52549e-06 -2.04668e-07 0)
(2.59906e-06 -1.97936e-07 0)
(2.67181e-06 -1.91521e-07 0)
(2.74397e-06 -1.85084e-07 0)
(2.81565e-06 -1.78403e-07 0)
(2.88696e-06 -1.71257e-07 0)
(2.95795e-06 -1.6346e-07 0)
(3.02866e-06 -1.54827e-07 0)
(3.09909e-06 -1.45176e-07 0)
(3.16922e-06 -1.3431e-07 0)
(3.23902e-06 -1.22014e-07 0)
(3.30841e-06 -1.08045e-07 0)
(3.37733e-06 -9.21152e-08 0)
(3.44563e-06 -7.39e-08 0)
(3.51326e-06 -5.29751e-08 0)
(3.57989e-06 -2.89579e-08 0)
(3.64568e-06 -9.12554e-10 5.22012e-23)
(2.15255e-06 -2.96808e-07 0)
(2.24038e-06 -2.81158e-07 0)
(2.32592e-06 -2.6792e-07 0)
(2.40915e-06 -2.56653e-07 0)
(2.49067e-06 -2.46558e-07 0)
(2.57066e-06 -2.37233e-07 0)
(2.64942e-06 -2.28231e-07 0)
(2.72713e-06 -2.19231e-07 0)
(2.80397e-06 -2.09935e-07 0)
(2.88006e-06 -2.00084e-07 0)
(2.95548e-06 -1.89433e-07 0)
(3.0303e-06 -1.77741e-07 0)
(3.10453e-06 -1.6476e-07 0)
(3.17819e-06 -1.50222e-07 0)
(3.25125e-06 -1.3383e-07 0)
(3.32367e-06 -1.15237e-07 0)
(3.39535e-06 -9.4057e-08 0)
(3.46628e-06 -6.97888e-08 0)
(3.5362e-06 -4.19771e-08 0)
(3.60529e-06 -9.55486e-09 1.30491e-24)
(1.99596e-06 -3.72534e-07 0)
(2.09447e-06 -3.50298e-07 0)
(2.19001e-06 -3.31355e-07 0)
(2.28241e-06 -3.15243e-07 0)
(2.37236e-06 -3.01027e-07 0)
(2.46007e-06 -2.88137e-07 0)
(2.54592e-06 -2.76026e-07 0)
(2.63016e-06 -2.64254e-07 0)
(2.713e-06 -2.52437e-07 0)
(2.79464e-06 -2.40234e-07 0)
(2.87521e-06 -2.2733e-07 0)
(2.95482e-06 -2.13422e-07 0)
(3.03354e-06 -1.982e-07 0)
(3.11142e-06 -1.8134e-07 0)
(3.18847e-06 -1.62486e-07 0)
(3.26471e-06 -1.41233e-07 0)
(3.34007e-06 -1.17129e-07 0)
(3.4146e-06 -8.96009e-08 0)
(3.4881e-06 -5.81218e-08 0)
(3.56079e-06 -2.15206e-08 -1.50577e-23)
(1.83139e-06 -4.56957e-07 0)
(1.94032e-06 -4.27104e-07 0)
(2.04581e-06 -4.01612e-07 0)
(2.14759e-06 -3.79804e-07 0)
(2.24627e-06 -3.6075e-07 0)
(2.34208e-06 -3.43689e-07 0)
(2.43541e-06 -3.27971e-07 0)
(2.52655e-06 -3.13027e-07 0)
(2.61577e-06 -2.98371e-07 0)
(2.70331e-06 -2.8357e-07 0)
(2.78936e-06 -2.68228e-07 0)
(2.87407e-06 -2.51968e-07 0)
(2.95756e-06 -2.3442e-07 0)
(3.03993e-06 -2.15193e-07 0)
(3.12123e-06 -1.93875e-07 0)
(3.20152e-06 -1.69998e-07 0)
(3.28079e-06 -1.4305e-07 0)
(3.35913e-06 -1.12386e-07 0)
(3.43643e-06 -7.7412e-08 0)
(3.51295e-06 -3.68583e-08 9.24524e-24)
(1.66333e-06 -5.48952e-07 0)
(1.78192e-06 -5.10638e-07 0)
(1.89684e-06 -4.78197e-07 0)
(2.00772e-06 -4.50159e-07 0)
(2.11498e-06 -4.25739e-07 0)
(2.21888e-06 -4.04014e-07 0)
(2.31976e-06 -3.8424e-07 0)
(2.41794e-06 -3.65739e-07 0)
(2.51371e-06 -3.47921e-07 0)
(2.60735e-06 -3.30257e-07 0)
(2.69907e-06 -3.12268e-07 0)
(2.78909e-06 -2.93498e-07 0)
(2.87755e-06 -2.73508e-07 0)
(2.9646e-06 -2.51843e-07 0)
(3.05033e-06 -2.28031e-07 0)
(3.13485e-06 -2.01545e-07 0)
(3.21821e-06 -1.71813e-07 0)
(3.30054e-06 -1.38133e-07 0)
(3.38181e-06 -9.98383e-08 0)
(3.46233e-06 -5.55999e-08 2.69297e-23)
(2.75266e-06 0 0)
(2.79386e-06 0 0)
(2.83756e-06 0 0)
(2.88356e-06 0 0)
(2.9316e-06 0 0)
(2.98147e-06 0 0)
(3.03298e-06 0 0)
(3.08593e-06 0 0)
(3.14014e-06 0 0)
(3.19543e-06 0 0)
(3.25164e-06 0 0)
(3.30859e-06 0 0)
(3.36611e-06 0 0)
(3.42402e-06 0 0)
(3.48212e-06 0 0)
(3.54022e-06 0 0)
(3.59806e-06 0 0)
(3.65546e-06 0 0)
(3.71195e-06 0 -9.07904e-27)
(3.76756e-06 0 -1.48448e-23)
(2.73886e-06 -2.59844e-08 0)
(2.78121e-06 -2.60745e-08 0)
(2.82592e-06 -2.61702e-08 0)
(2.87281e-06 -2.61711e-08 0)
(2.92163e-06 -2.60552e-08 0)
(2.9722e-06 -2.58003e-08 0)
(3.02434e-06 -2.53873e-08 0)
(3.07786e-06 -2.48038e-08 0)
(3.13258e-06 -2.40351e-08 0)
(3.18835e-06 -2.30678e-08 0)
(3.24499e-06 -2.18854e-08 0)
(3.30235e-06 -2.04691e-08 0)
(3.36024e-06 -1.87959e-08 0)
(3.41851e-06 -1.68377e-08 0)
(3.47695e-06 -1.45607e-08 0)
(3.53538e-06 -1.19228e-08 0)
(3.59353e-06 -8.8749e-09 0)
(3.65124e-06 -5.35044e-09 0)
(3.70803e-06 -1.29202e-09 0)
(3.76395e-06 3.46486e-09 -3.07396e-23)
(2.69791e-06 -5.43815e-08 0)
(2.74366e-06 -5.42119e-08 0)
(2.79136e-06 -5.41093e-08 0)
(2.84087e-06 -5.38736e-08 0)
(2.89202e-06 -5.34466e-08 0)
(2.94467e-06 -5.27788e-08 0)
(2.99867e-06 -5.18244e-08 0)
(3.05386e-06 -5.0554e-08 0)
(3.11012e-06 -4.89339e-08 0)
(3.16729e-06 -4.69339e-08 0)
(3.22523e-06 -4.45182e-08 0)
(3.28378e-06 -4.16468e-08 0)
(3.34281e-06 -3.8272e-08 0)
(3.40213e-06 -3.4336e-08 0)
(3.46158e-06 -2.97699e-08 0)
(3.52098e-06 -2.44882e-08 0)
(3.58006e-06 -1.83918e-08 0)
(3.63869e-06 -1.13469e-08 0)
(3.69639e-06 -3.23771e-09 0)
(3.75322e-06 6.26164e-09 -5.19985e-23)
(2.63107e-06 -8.73252e-08 0)
(2.68231e-06 -8.62299e-08 0)
(2.73486e-06 -8.53704e-08 0)
(2.78862e-06 -8.44511e-08 0)
(2.84356e-06 -8.33467e-08 0)
(2.89959e-06 -8.19715e-08 0)
(2.95662e-06 -8.02376e-08 0)
(3.01457e-06 -7.80901e-08 0)
(3.07332e-06 -7.54674e-08 0)
(3.13278e-06 -7.23162e-08 0)
(3.19284e-06 -6.8576e-08 0)
(3.25336e-06 -6.41814e-08 0)
(3.31422e-06 -5.90562e-08 0)
(3.37529e-06 -5.31099e-08 0)
(3.43638e-06 -4.62359e-08 0)
(3.49736e-06 -3.83032e-08 0)
(3.55798e-06 -2.91604e-08 0)
(3.6181e-06 -1.86046e-08 0)
(3.67728e-06 -6.45887e-09 0)
(3.7356e-06 7.76203e-09 -8.34978e-24)
(2.54031e-06 -1.26737e-07 0)
(2.59887e-06 -1.23783e-07 0)
(2.65792e-06 -1.21377e-07 0)
(2.71742e-06 -1.19141e-07 0)
(2.77747e-06 -1.16839e-07 0)
(2.83807e-06 -1.14337e-07 0)
(2.89923e-06 -1.11484e-07 0)
(2.9609e-06 -1.08186e-07 0)
(3.02306e-06 -1.04344e-07 0)
(3.08565e-06 -9.9871e-08 0)
(3.14858e-06 -9.46747e-08 0)
(3.21178e-06 -8.86581e-08 0)
(3.27515e-06 -8.17117e-08 0)
(3.33858e-06 -7.37083e-08 0)
(3.40193e-06 -6.45e-08 0)
(3.46506e-06 -5.39072e-08 0)
(3.52776e-06 -4.17236e-08 0)
(3.58992e-06 -2.76747e-08 0)
(3.65112e-06 -1.15184e-08 0)
(3.71146e-06 7.38697e-09 1.30427e-23)
(2.4282e-06 -1.74169e-07 0)
(2.49559e-06 -1.68219e-07 0)
(2.56251e-06 -1.63291e-07 0)
(2.62901e-06 -1.58949e-07 0)
(2.69534e-06 -1.54798e-07 0)
(2.76157e-06 -1.5064e-07 0)
(2.82782e-06 -1.4624e-07 0)
(2.89411e-06 -1.4145e-07 0)
(2.96049e-06 -1.36115e-07 0)
(3.02695e-06 -1.30106e-07 0)
(3.09347e-06 -1.2329e-07 0)
(3.16e-06 -1.15529e-07 0)
(3.22648e-06 -1.06676e-07 0)
(3.29284e-06 -9.65602e-08 0)
(3.35897e-06 -8.49891e-08 0)
(3.42478e-06 -7.17307e-08 0)
(3.49006e-06 -5.65209e-08 0)
(3.55474e-06 -3.9011e-08 0)
(3.61845e-06 -1.88899e-08 0)
(3.6813e-06 4.6361e-09 2.90672e-23)
(2.29784e-06 -2.30699e-07 0)
(2.37512e-06 -2.20525e-07 0)
(2.451e-06 -2.12e-07 0)
(2.52549e-06 -2.04668e-07 0)
(2.59906e-06 -1.97936e-07 0)
(2.67181e-06 -1.91521e-07 0)
(2.74397e-06 -1.85084e-07 0)
(2.81565e-06 -1.78403e-07 0)
(2.88696e-06 -1.71257e-07 0)
(2.95795e-06 -1.6346e-07 0)
(3.02866e-06 -1.54827e-07 0)
(3.09909e-06 -1.45176e-07 0)
(3.16922e-06 -1.3431e-07 0)
(3.23902e-06 -1.22014e-07 0)
(3.30841e-06 -1.08045e-07 0)
(3.37733e-06 -9.21152e-08 0)
(3.44563e-06 -7.39e-08 0)
(3.51326e-06 -5.29751e-08 0)
(3.57989e-06 -2.89579e-08 0)
(3.64568e-06 -9.12554e-10 5.22012e-23)
(2.15255e-06 -2.96808e-07 0)
(2.24038e-06 -2.81158e-07 0)
(2.32592e-06 -2.6792e-07 0)
(2.40915e-06 -2.56653e-07 0)
(2.49067e-06 -2.46558e-07 0)
(2.57066e-06 -2.37233e-07 0)
(2.64942e-06 -2.28231e-07 0)
(2.72713e-06 -2.19231e-07 0)
(2.80397e-06 -2.09935e-07 0)
(2.88006e-06 -2.00084e-07 0)
(2.95548e-06 -1.89433e-07 0)
(3.0303e-06 -1.77741e-07 0)
(3.10453e-06 -1.6476e-07 0)
(3.17819e-06 -1.50222e-07 0)
(3.25125e-06 -1.3383e-07 0)
(3.32367e-06 -1.15237e-07 0)
(3.39535e-06 -9.4057e-08 0)
(3.46628e-06 -6.97888e-08 0)
(3.5362e-06 -4.19771e-08 0)
(3.60529e-06 -9.55486e-09 1.30491e-24)
(1.99596e-06 -3.72534e-07 0)
(2.09447e-06 -3.50298e-07 0)
(2.19001e-06 -3.31355e-07 0)
(2.28241e-06 -3.15243e-07 0)
(2.37236e-06 -3.01027e-07 0)
(2.46007e-06 -2.88137e-07 0)
(2.54592e-06 -2.76026e-07 0)
(2.63016e-06 -2.64254e-07 0)
(2.713e-06 -2.52437e-07 0)
(2.79464e-06 -2.40234e-07 0)
(2.87521e-06 -2.2733e-07 0)
(2.95482e-06 -2.13422e-07 0)
(3.03354e-06 -1.982e-07 0)
(3.11142e-06 -1.8134e-07 0)
(3.18847e-06 -1.62486e-07 0)
(3.26471e-06 -1.41233e-07 0)
(3.34007e-06 -1.17129e-07 0)
(3.4146e-06 -8.96009e-08 0)
(3.4881e-06 -5.81218e-08 0)
(3.56079e-06 -2.15206e-08 -1.50577e-23)
(1.83139e-06 -4.56957e-07 0)
(1.94032e-06 -4.27104e-07 0)
(2.04581e-06 -4.01612e-07 0)
(2.14759e-06 -3.79804e-07 0)
(2.24627e-06 -3.6075e-07 0)
(2.34208e-06 -3.43689e-07 0)
(2.43541e-06 -3.27971e-07 0)
(2.52655e-06 -3.13027e-07 0)
(2.61577e-06 -2.98371e-07 0)
(2.70331e-06 -2.8357e-07 0)
(2.78936e-06 -2.68228e-07 0)
(2.87407e-06 -2.51968e-07 0)
(2.95756e-06 -2.3442e-07 0)
(3.03993e-06 -2.15193e-07 0)
(3.12123e-06 -1.93875e-07 0)
(3.20152e-06 -1.69998e-07 0)
(3.28079e-06 -1.4305e-07 0)
(3.35913e-06 -1.12386e-07 0)
(3.43643e-06 -7.7412e-08 0)
(3.51295e-06 -3.68583e-08 9.24524e-24)
(1.66333e-06 -5.48952e-07 0)
(1.78192e-06 -5.10638e-07 0)
(1.89684e-06 -4.78197e-07 0)
(2.00772e-06 -4.50159e-07 0)
(2.11498e-06 -4.25739e-07 0)
(2.21888e-06 -4.04014e-07 0)
(2.31976e-06 -3.8424e-07 0)
(2.41794e-06 -3.65739e-07 0)
(2.51371e-06 -3.47921e-07 0)
(2.60735e-06 -3.30257e-07 0)
(2.69907e-06 -3.12268e-07 0)
(2.78909e-06 -2.93498e-07 0)
(2.87755e-06 -2.73508e-07 0)
(2.9646e-06 -2.51843e-07 0)
(3.05033e-06 -2.28031e-07 0)
(3.13485e-06 -2.01545e-07 0)
(3.21821e-06 -1.71813e-07 0)
(3.30054e-06 -1.38133e-07 0)
(3.38181e-06 -9.98383e-08 0)
(3.46233e-06 -5.55999e-08 2.69297e-23)
(1.46113e-06 -6.6601e-07 0)
(1.58622e-06 -6.19555e-07 0)
(1.70656e-06 -5.78478e-07 0)
(1.82312e-06 -5.42959e-07 0)
(1.93599e-06 -5.1164e-07 0)
(2.04534e-06 -4.8383e-07 0)
(2.15139e-06 -4.5874e-07 0)
(2.2544e-06 -4.35681e-07 0)
(2.35463e-06 -4.14018e-07 0)
(2.45234e-06 -3.93179e-07 0)
(2.54776e-06 -3.72637e-07 0)
(2.64112e-06 -3.51907e-07 0)
(2.7326e-06 -3.30524e-07 0)
(2.82238e-06 -3.08033e-07 0)
(2.9106e-06 -2.83972e-07 0)
(2.99738e-06 -2.57859e-07 0)
(3.08287e-06 -2.29169e-07 0)
(3.16714e-06 -1.97338e-07 0)
(3.25038e-06 -1.61679e-07 0)
(3.33261e-06 -1.21568e-07 0)
(3.41419e-06 -7.57248e-08 2.80955e-23)
(1.39342e-06 -7.34919e-07 0)
(1.51758e-06 -6.87742e-07 0)
(1.63798e-06 -6.4479e-07 0)
(1.75508e-06 -6.06753e-07 0)
(1.86885e-06 -5.72616e-07 0)
(1.97937e-06 -5.41809e-07 0)
(2.08675e-06 -5.13663e-07 0)
(2.19117e-06 -4.87562e-07 0)
(2.29284e-06 -4.62921e-07 0)
(2.39195e-06 -4.39197e-07 0)
(2.48872e-06 -4.15881e-07 0)
(2.58333e-06 -3.92492e-07 0)
(2.67598e-06 -3.68569e-07 0)
(2.76682e-06 -3.43654e-07 0)
(2.85602e-06 -3.17287e-07 0)
(2.94371e-06 -2.88989e-07 0)
(3.03004e-06 -2.58246e-07 0)
(3.11514e-06 -2.24512e-07 0)
(3.1992e-06 -1.87137e-07 0)
(3.28233e-06 -1.45539e-07 0)
(3.3649e-06 -9.85499e-08 5.71992e-23)
(1.33426e-06 -8.01636e-07 0)
(1.45676e-06 -7.53791e-07 0)
(1.57612e-06 -7.09512e-07 0)
(1.69277e-06 -6.69526e-07 0)
(1.80651e-06 -6.33043e-07 0)
(1.91733e-06 -5.99634e-07 0)
(2.02526e-06 -5.68749e-07 0)
(2.1304e-06 -5.39854e-07 0)
(2.23289e-06 -5.12426e-07 0)
(2.33289e-06 -4.85964e-07 0)
(2.43056e-06 -4.59987e-07 0)
(2.52606e-06 -4.34032e-07 0)
(2.61956e-06 -4.07649e-07 0)
(2.71123e-06 -3.80393e-07 0)
(2.8012e-06 -3.51809e-07 0)
(2.88964e-06 -3.21436e-07 0)
(2.9767e-06 -2.88776e-07 0)
(3.06254e-06 -2.53314e-07 0)
(3.14736e-06 -2.14444e-07 0)
(3.23133e-06 -1.71638e-07 0)
(3.31482e-06 -1.23844e-07 8.25471e-23)
(1.2822e-06 -8.65528e-07 0)
(1.40247e-06 -8.17474e-07 0)
(1.52015e-06 -7.72322e-07 0)
(1.63565e-06 -7.30825e-07 0)
(1.74865e-06 -6.92406e-07 0)
(1.85911e-06 -6.56761e-07 0)
(1.96696e-06 -6.23452e-07 0)
(2.07225e-06 -5.92031e-07 0)
(2.17505e-06 -5.62041e-07 0)
(2.27547e-06 -5.33029e-07 0)
(2.37364e-06 -5.0455e-07 0)
(2.46969e-06 -4.76168e-07 0)
(2.56377e-06 -4.47454e-07 0)
(2.65602e-06 -4.17978e-07 0)
(2.74659e-06 -3.87307e-07 0)
(2.83562e-06 -3.54998e-07 0)
(2.92329e-06 -3.20582e-07 0)
(3.00977e-06 -2.83581e-07 0)
(3.09527e-06 -2.43442e-07 0)
(3.18001e-06 -1.99693e-07 0)
(3.26435e-06 -1.51411e-07 7.24221e-23)
(1.2363e-06 -9.26584e-07 0)
(1.3539e-06 -8.78596e-07 0)
(1.46943e-06 -8.32946e-07 0)
(1.58326e-06 -7.90343e-07 0)
(1.695e-06 -7.50381e-07 0)
(1.80455e-06 -7.12865e-07 0)
(1.91181e-06 -6.7746e-07 0)
(2.01676e-06 -6.438e-07 0)
(2.11943e-06 -6.11496e-07 0)
(2.21988e-06 -5.80148e-07 0)
(2.3182e-06 -5.49354e-07 0)
(2.4145e-06 -5.18711e-07 0)
(2.50889e-06 -4.87816e-07 0)
(2.6015e-06 -4.56265e-07 0)
(2.69248e-06 -4.2365e-07 0)
(2.78197e-06 -3.89556e-07 0)
(2.87013e-06 -3.53548e-07 0)
(2.95715e-06 -3.15189e-07 0)
(3.04326e-06 -2.73987e-07 0)
(3.12868e-06 -2.29528e-07 0)
(3.21377e-06 -1.81023e-07 7.30727e-23)
(1.19545e-06 -9.8479e-07 0)
(1.31016e-06 -9.37124e-07 0)
(1.42326e-06 -8.91274e-07 0)
(1.53506e-06 -8.47892e-07 0)
(1.64515e-06 -8.06724e-07 0)
(1.7534e-06 -7.67665e-07 0)
(1.85966e-06 -7.30471e-07 0)
(1.96389e-06 -6.94855e-07 0)
(2.06606e-06 -6.60492e-07 0)
(2.1662e-06 -6.27039e-07 0)