/*--------------------------------*- C++ -*----------------------------------*\
| =========                 |                                                 |
| \\      /  F ield         | foam-extend: Open Source CFD                    |
|  \\    /   O peration     | Version:     4.1                                |
|   \\  /    A nd           | Web:         http://www.foam-extend.org         |
|    \\/     M anipulation  |                                                 |
\*---------------------------------------------------------------------------*/
FoamFile
{
    version     2.0;
    format      ascii;
    class       volSymmTensorField;
    location    "3";
    object      sigma;
}
// * * * * * * * * * * * * * * * * * * * * * * * * * * * * * * * * * * * * * //

dimensions      [1 -1 -2 0 0 0 0];

internalField   nonuniform List<symmTensor> 
1000
(
(263963 -162554 -8.06014e-11 114292 -1.53033e-10 113477)
(343652 -126203 4.55688e-10 18442.6 9.85851e-11 108628)
(382603 -100171 -4.95345e-10 -24747.1 -3.53346e-10 107357)
(403933 -81809.3 -1.89911e-10 -53735.6 -4.3692e-11 105059)
(414279 -67837 -3.18769e-11 -67918.8 8.50598e-12 103908)
(417842 -57344.6 1.99959e-10 -75845.5 1.27502e-10 102599)
(417845 -49008 -3.57944e-10 -78639.5 -2.01098e-10 101762)
(415179 -42529.7 7.84422e-11 -78876 4.70627e-11 100891)
(412101 -37064 -1.43296e-10 -77170.4 -8.42574e-11 100479)
(406218 -32379.8 -1.76888e-10 -75307.1 -1.11386e-10 99273.3)
(351929 -195344 2.26265e-10 134146 -1.32506e-10 145823)
(409452 -134363 -4.57578e-10 39814.2 -1.21118e-10 134780)
(434635 -94894.6 -4.23075e-10 -2261.27 -1.13415e-10 129712)
(445270 -68854.1 -3.29695e-10 -32359.7 -2.27045e-10 123873)
(448073 -50666.3 -7.21178e-11 -47618 -6.42844e-11 120136)
(445711 -38077.3 2.86751e-10 -57227.8 1.68591e-10 116545)
(441153 -28867 -3.35451e-10 -61548.3 -2.29214e-10 113881)
(434892 -22370.6 1.36045e-10 -63592 1.15117e-10 111390)
(428408 -17268.2 -2.53384e-10 -62991.4 -1.96499e-10 109625)
(420458 -13628.3 -9.36968e-11 -63420.2 -1.04776e-10 107111)
(447702 -219245 2.79416e-10 142139 1.70557e-11 176952)
(476236 -137972 -3.57377e-10 56940.5 -1.55906e-10 159953)
(483943 -87606.8 3.27659e-10 20181.8 1.47651e-10 151238)
(481841 -55439 -2.95748e-10 -8516.02 -1.42101e-10 141998)
(476015 -34001.6 -7.22391e-11 -23393 -5.46322e-11 135787)
(467199 -19897.3 -2.75844e-10 -33844.9 -1.61366e-10 130006)
(457927 -10176.6 5.08097e-16 -39215.2 -1.37404e-15 125613)
(447950 -3782.37 -9.49462e-13 -42802.4 1.25978e-12 121544)
(438542 837.476 -1.95218e-11 -43428.1 -9.26136e-11 118534)
(428074 4198.56 3.03027e-11 -45755.3 -2.29749e-11 114696)
(547287 -231419 9.6559e-10 139738 -1.92349e-10 206107)
(541846 -136244 2.05234e-10 69897.7 1.53008e-10 183523)
(529419 -78650 1.5415e-10 41859.3 1.42837e-10 171384)
(513216 -42544.2 8.95051e-11 16627.5 6.23272e-11 158953)
(498076 -19166.5 6.46634e-10 3291.77 3.87059e-10 150410)
(482591 -4273.79 -4.86517e-12 -7326.06 -1.11786e-11 142579)
(468573 5550.76 -2.31618e-12 -13448.2 1.09045e-11 136538)
(455129 11713.2 -6.13001e-12 -18349.2 1.08668e-11 131034)
(443009 15786.1 1.40817e-10 -20356.1 6.98867e-11 126796)
(430732 18766.9 -1.32401e-11 -24197.9 -2.82831e-11 121960)
(645976 -229931 -7.28786e-10 129290 1.8694e-11 232580)
(603967 -128720 3.30786e-10 79109 1.34714e-10 204923)
(570110 -68363.5 2.71944e-10 62132.8 1.32651e-10 189673)
(539290 -30970.4 2.82993e-10 41866.7 1.46329e-10 174347)
(514687 -7215.82 -1.70029e-10 30942.4 -9.01443e-11 163689)
(492625 7588.56 2.42933e-10 20704.5 1.09647e-10 153999)
(474094 17041.8 7.67899e-11 14109.6 4.63622e-11 146461)
(457456 22769.8 -1.49816e-10 8081.7 -5.52287e-11 139661)
(443033 26233.6 3.46209e-10 4643.26 1.33948e-10 134303)
(429254 28803.9 3.2281e-11 -550.326 -3.93041e-12 128611)
(738683 -213956 -1.05726e-11 113715 -8.29107e-14 255719)
(660249 -115321 -8.63055e-11 85168.6 -2.61388e-11 223625)
(605208 -57060.4 4.26883e-10 80302.1 1.84354e-10 205653)
(560201 -21246.7 1.1189e-10 65783.5 3.33822e-11 187795)
(526539 1211.53 -1.5889e-10 57742.5 -6.2617e-11 175284)
(498328 14998.6 -4.03491e-10 48244.2 -1.97071e-10 163972)
(475672 23588.9 3.32379e-12 41390.1 -5.53419e-11 155118)
(456222 28663.6 -2.13937e-11 34443.7 6.95199e-11 147200)
(439851 31477.4 1.10038e-10 29618.8 8.44963e-11 140841)
(424899 33603.8 2.82429e-10 23300.2 1.15841e-10 134460)
(820320 -183894 2.7503e-10 96198.3 -3.57444e-11 274956)
(708431 -96387.5 -1.4987e-10 88798.3 2.12572e-11 239169)
(634039 -45028.4 1.25731e-10 95730 9.31571e-11 218931)
(576239 -13621.7 3.89e-11 86987.4 -2.73797e-11 198968)
(534491 5898.83 2.25786e-10 81893 4.23475e-11 184915)
(500884 17758.6 -8.65632e-12 73296.2 -3.65648e-11 172254)
(474681 25015.4 6.73347e-11 66333.3 1.09161e-10 162304)
(452865 29226.5 2.34513e-10 58664.9 1.85893e-10 153459)
(434932 31384.7 -1.12185e-10 52586.4 -5.60903e-11 146256)
(419062 33059.1 3.22608e-11 45367.1 -5.97089e-11 139329)
(886216 -141346 0 79826.9 0 289813)
(746529 -72650.5 7.24162e-10 90727.3 2.19367e-10 251177)
(656118 -32496.8 -7.63854e-10 107847 -2.09272e-10 229189)
(587820 -8024.56 -2.89687e-11 104188 -4.78458e-11 207602)
(539485 7096.07 -7.27726e-11 101711 7.59086e-12 192359)
(501533 16219.6 3.78089e-10 93990.9 1.41592e-10 178657)
(472516 21731.2 1.32989e-10 87010.2 5.11987e-11 167858)
(448853 24891.5 -1.83397e-10 78813.5 -3.41271e-11 158300)
(429744 26409.3 7.76406e-12 71700.3 -3.27044e-11 150433)
(413199 27620.2 -8.76848e-11 63812.1 -7.18418e-11 143103)
(932458 -89020.1 4.9501e-10 67250.2 5.03727e-11 299912)
(772868 -45217 -4.06733e-11 91579.2 -8.15042e-11 259334)
(671010 -19660 -2.54276e-10 116171 -5.07896e-11 236154)
(595253 -4109.95 2.12106e-10 116279 6.74189e-11 213460)
(542259 5464.19 -8.52492e-11 115755 -1.95303e-11 197404)
(501260 11218 -2.17702e-10 108720 -3.12548e-11 182994)
(470289 14666.4 1.40395e-13 101759 -5.15048e-11 171614)
(445359 16629.6 -2.56589e-12 93216.2 3.08007e-11 161573)
(425466 17531.6 -2.32318e-12 85363.9 1.68091e-11 153249)
(408477 18267.6 -8.92624e-11 77028.2 -5.6459e-11 145652)
(956248 -30421.7 -4.16273e-10 60534.9 7.40926e-11 305035)
(786370 -15384 -3.37882e-10 92106.6 -1.13538e-10 263543)
(678582 -6604.32 2.5851e-10 120780 8.28772e-11 239808)
(598960 -1261.58 -4.03895e-10 122962 -5.22777e-11 216577)
(543556 2024.73 1.63007e-10 123524 -5.07054e-11 200124)
(500985 3997.54 -7.14262e-11 116882 1.08999e-11 185360)
(469010 5176.2 -1.40603e-14 109947 5.23721e-11 173687)
(443432 5845.79 -5.76081e-11 101228 3.11259e-11 163398)
(423146 6147.57 -2.02045e-10 92983.7 -8.4689e-11 154839)
(405939 6396.79 1.00083e-10 84403.9 7.43506e-12 147103)
(-24249.3 7990.47 -5.72639e-11 -351006 2.5922e-10 -112577)
(-14880.6 -3572.22 8.51473e-11 -231617 1.21897e-10 -73949.4)
(-3475.8 -9465.79 1.12396e-12 -158462 -5.49128e-11 -48581.4)
(21606.3 -12616.6 -4.51396e-12 -108569 3.89328e-11 -26088.7)
(45316.1 -14086.1 -5.12697e-11 -75833.9 -3.53932e-11 -9155.34)
(70546.9 -14602.4 6.7872e-11 -52374.4 2.80039e-11 5451.75)
(93476.7 -14564.1 9.51136e-12 -35855.9 1.13934e-11 17286.2)
(115309 -14229.7 -1.25699e-11 -23307.2 2.08467e-11 27600.4)
(134702 -13661.3 6.76007e-11 -13984.3 1.82719e-11 36215.2)
(152883 -13247.1 -6.27813e-12 -5901.09 -9.03523e-12 44094.5)
(-23691 22221.3 3.16611e-12 -334046 1.13297e-11 -107321)
(-8199.57 -11208.2 -1.49731e-10 -223891 -2.14348e-10 -69627.1)
(6450.8 -28154.3 1.1414e-10 -155795 1.12504e-10 -44803.2)
(32883.6 -37153.6 8.28656e-11 -109103 5.99809e-11 -22865.8)
(57081.6 -41313.7 -2.11014e-11 -78223.8 -2.74717e-11 -6342.66)
(82206.4 -42729.1 -2.2591e-10 -55888.4 -8.34098e-11 7895.4)
(104740 -42556.6 -3.72863e-12 -39996.8 -3.15407e-14 19423)
(126042 -41533.3 -3.81357e-11 -27786.9 -2.32e-11 29476.6)
(144725 -39848.6 2.39235e-11 -18583.6 -1.1625e-12 37842.5)
(162437 -38610.4 5.93671e-11 -10520.6 -4.87255e-12 45575)
(-22335.6 31728.4 -4.63857e-11 -301292 -2.14718e-10 -97088.2)
(4429.29 -19877.3 -1.1417e-10 -209044 -1.00422e-10 -61384.4)
(24737.9 -45884.9 1.77731e-10 -150682 4.65421e-11 -37783.4)
(53528.6 -59587 3.84082e-11 -110121 4.32244e-11 -16977.6)
(78507.6 -65825.2 1.04071e-10 -82789.4 4.88707e-11 -1284.55)
(103367 -67833.4 -1.01391e-10 -62604.5 -5.07028e-11 12228.7)
(125118 -67411.8 -1.64329e-10 -47915.1 -4.72204e-11 23161)
(145410 -65677.7 -5.5982e-11 -36356.3 -1.26659e-11 32716.2)
(162753 -62963.4 2.82684e-12 -27392.6 -2.36528e-13 40608.1)
(179604 -60929.9 8.07168e-11 -19382.1 3.60933e-11 48066.6)
(-18182.2 34111.5 -1.66637e-10 -255209 -2.36374e-12 -82017.3)
(23686.4 -29937.8 7.54774e-11 -187811 -1.03383e-10 -49237.3)
(51495.1 -61939.1 -4.50945e-10 -142931 -3.45603e-10 -27430.7)
(83290.7 -78620.9 -1.01883e-10 -110908 6.68284e-12 -8285.13)
(109163 -86010.8 -6.18515e-12 -88528.1 1.32869e-11 6190.55)
(133502 -88157.4 1.33844e-10 -71370.8 6.02273e-11 18639.5)
(154060 -87319.7 -3.69452e-11 -58394.3 -1.98307e-13 28699.8)
(172851 -84850.3 1.12136e-10 -47778.4 7.54583e-11 37521.8)
(188283 -81245.9 -1.99068e-10 -39197.6 -3.83215e-11 44725.7)
(203858 -78470.5 1.79099e-10 -31284.2 2.73012e-11 51772.2)
(-9105.85 27630.9 4.50301e-11 -199327 -1.6368e-10 -62529.8)
(49716.4 -41664.6 3.76189e-10 -161480 3.46748e-10 -33529)
(85826.1 -75801.4 -3.58278e-10 -132644 -2.40162e-10 -14045.5)
(120707 -93290.2 -1.67548e-10 -110865 -9.07231e-11 2952.67)
(147298 -100671 1.47776e-10 -94447.9 6.23987e-11 15854.9)
(170739 -102392 1.9822e-10 -80979 8.14515e-11 26928)
(189678 -100934 1.12707e-10 -70120.2 7.30765e-11 35867.2)
(206495 -97711 1.9903e-10 -60698.3 6.06795e-11 43739.1)
(219560 -93390.3 -4.41144e-11 -52653 -4.86925e-11 50072)
(233445 -89956.3 -2.71662e-10 -44900.8 -2.71146e-11 56563.4)
(7328.5 11587.7 -4.40194e-12 -137736 1.07883e-11 -39122.2)
(82663.2 -55038 2.36482e-10 -131495 1.18536e-10 -14649.7)
(126657 -87071.5 1.91931e-10 -119820 1.72798e-10 2051.2)
(164049 -102984 -9.41907e-11 -109140 -6.32224e-11 16472.5)
(190849 -109087 -1.72665e-10 -99225.2 -7.6302e-11 27487.1)
(212874 -109773 -1.08954e-10 -89850.4 -4.35132e-11 36907.1)
(229748 -107477 1.75769e-10 -81401.4 8.97074e-11 44503.9)
(244147 -103495 -2.10576e-10 -73382.1 -1.13042e-10 51229.3)
(254504 -98640.3 3.49781e-10 -66059 1.06307e-10 56533.6)
(266306 -94656.5 1.19363e-11 -58566.6 -4.83512e-11 62321.7)
(33505.6 -13602.9 2.06083e-10 -74825.3 -3.77918e-10 -12395.9)
(122556 -69749 -6.52375e-10 -99495 -3.57731e-10 6918.39)
(172761 -95499.9 2.22849e-10 -104588 1.49718e-10 20452.1)
(211421 -107494 -2.0383e-11 -104968 5.78889e-11 31935.8)
(237592 -111081 9.61317e-11 -101580 4.60189e-11 40803.6)
(257550 -110156 -4.00379e-11 -96427.3 -1.48911e-11 48336.9)
(271915 -106824 -2.45214e-10 -90525.9 -1.03657e-10 54416.7)
(283487 -102111 1.41468e-10 -84085.9 6.24774e-11 59820.5)
(290953 -96906.3 -1.28676e-10 -77651.8 -5.64708e-11 63990.4)
(300291 -92491 2.68266e-10 -70602 6.70608e-11 68906.6)
(71424.1 -46429.1 -7.67763e-11 -14838.8 1.10409e-10 16975.6)
(169208 -85182.9 -2.12802e-10 -67100.8 -2.49295e-10 30632.2)
(222774 -100965 -3.12877e-10 -87132.3 -2.99439e-10 40692.6)
(260831 -106983 1.16204e-10 -97668.8 5.69016e-11 48948.6)
(285204 -106979 3.09687e-10 -100350 1.5136e-10 55456.2)
(302311 -103956 2.82091e-10 -99269.4 1.3763e-10 60912.5)
(313688 -99436.1 -4.3954e-11 -95951 8.377e-12 65321.2)
(322065 -94050.8 1.6187e-10 -91190.9 6.86551e-11 69262.3)
(326557 -88659.8 -1.59194e-10 -85935.2 -1.14282e-10 72186.6)
(333076 -83921.2 5.65344e-11 -79500.8 5.47095e-11 76072.6)
(122408 -84411.2 2.21368e-10 38467.8 2.98089e-10 48262.7)
(222199 -100464 3.05884e-10 -35832.7 3.90982e-10 55909.8)
(275358 -103475 3.25316e-10 -67731.9 9.12576e-11 62287.9)
(310487 -101975 4.71956e-11 -86764.1 -4.90343e-11 67116.9)
(331703 -97593.7 9.83421e-12 -94593.9 -1.45241e-11 71132.7)
(345130 -92167.6 -7.12312e-12 -97191.6 -2.04459e-12 74381.6)
(353117 -86393.3 2.57376e-10 -96258.8 1.36045e-10 77057.3)
(357973 -80511.7 -3.43679e-10 -93328.7 -2.22736e-10 79393.2)
(359643 -75098.9 3.17611e-10 -89282 1.31474e-10 81108.2)
(362859 -70203.1 3.41841e-11 -84228 1.81128e-11 83589.2)
(186823 -124338 3.31776e-10 82147.7 -5.54355e-10 80691.3)
(280712 -114533 3.25501e-10 -6991.32 1.60488e-10 82116.1)
(329048 -103154 4.35261e-10 -46784.8 2.18684e-10 84678.9)
(358586 -93271.7 2.09523e-10 -72080.2 1.6415e-10 85951.8)
(375060 -84108.3 -3.30948e-10 -83826.3 -1.83657e-10 87370.2)
(383873 -76136.2 -2.96974e-10 -89455.1 -1.62944e-10 88325.4)
(387880 -69125.2 7.79492e-12 -90672.4 -4.62494e-12 89162.2)
(388893 -62875.7 -1.56161e-10 -89344.1 -8.94572e-11 89864.6)
(387678 -57718.1 1.6237e-10 -87019.3 1.49338e-10 90197.6)
(387021 -52837 2.21129e-10 -82569.8 5.05184e-11 91335.2)
(168885 -12238.6 3.28347e-11 -571.907 -1.19809e-13 50493.9)
(183440 -10944.8 6.10474e-11 5212.35 -1.8414e-11 56595.8)
(196511 -9914.43 3.28913e-12 10062.6 -4.31446e-14 61972)
(208531 -8964.6 -5.21401e-11 14682.4 -2.81465e-11 66964)
(219409 -8118.45 -2.07891e-10 19130.9 -9.61262e-12 71562)
(229367 -7369.11 -3.16393e-11 23532 3.79304e-11 75869.6)
(238455 -6695.16 1.8397e-10 28013.8 1.96026e-11 79940.6)
(246774 -6093.05 -1.84567e-10 32638.4 -1.03399e-11 83823.8)
(254394 -5546.44 1.63651e-11 37501.2 5.54174e-11 87568.6)
(261375 -5048.07 1.01285e-10 42664.4 1.8834e-11 91211.7)
(267759 -4586.03 1.72131e-11 48206.2 5.21495e-11 94789.6)
(273594 -4151.5 2.00497e-10 54203.6 1.8964e-11 98339.3)
(278877 -3734.45 1.83727e-10 60731.1 -3.59733e-11 101882)
(283671 -3324.88 -1.99485e-10 67900.8 -1.75039e-11 105471)
(287869 -2913.02 -2.96279e-10 75776.2 5.12998e-13 109093)
(291655 -2486.37 1.56891e-10 84560.9 2.5071e-11 112865)
(294604 -2035.11 -3.89222e-12 94236 -8.64265e-12 116652)
(297427 -1538.19 1.0926e-10 105281 2.10872e-11 120812)
(298557 -998.594 9.14198e-11 117301 -8.92747e-13 124757)
(300828 -324.918 2.28102e-11 131639 2.37279e-12 129740)
(177289 -35672.6 9.33382e-13 -4912.12 1.02757e-12 51713.1)
(190347 -31964.5 -8.81536e-11 1340.15 -9.80599e-12 57506)
(202360 -28998.6 4.55719e-11 6659.87 1.01591e-11 62705.8)
(213392 -26265.8 1.4615e-10 11634.4 4.9879e-11 67507.9)
(223496 -23820.6 -8.5421e-11 16432 -3.21907e-13 71978.5)
(232769 -21653.6 -1.25113e-10 21106.2 -4.07035e-11 76162.6)
(241299 -19697.9 8.39068e-11 25833.6 4.02184e-11 80139.7)
(249133 -17947.8 2.16626e-11 30655.2 1.96002e-11 83936.4)
(256347 -16354.9 -1.93922e-10 35684 -6.06388e-11 87609.2)
(262975 -14899.6 -1.15611e-10 40978.4 -2.12536e-11 91186.1)
(269061 -13547.5 -2.56769e-12 46622.7 -7.2281e-14 94705)
(274637 -12273.3 3.54592e-10 52694.3 2.96876e-11 98199.3)
(279697 -11047.9 1.63303e-11 59269.5 1.62216e-11 101690)
(284299 -9842.06 -8.27835e-11 66460.5 1.70671e-11 105228)
(288332 -8627.34 -1.79912e-11 74330.7 -1.98319e-11 108799)
(291979 -7366.74 -1.91851e-11 83081.9 -1.71911e-11 112518)
(294812 -6031.6 -6.85364e-11 92694 1.54019e-11 116252)
(297540 -4559.33 -4.96182e-11 103641 -4.52296e-12 120354)
(298606 -2959.71 2.76188e-10 115525 3.77617e-11 124239)
(300823 -962.97 7.10386e-11 129674 1.78589e-11 129149)
(192280 -56397.3 5.13933e-11 -13283.7 -1.08893e-11 53699)
(202631 -50800.6 1.11234e-10 -6164.07 3.43221e-11 58940.1)
(212736 -46236.5 -2.8426e-10 65.4932 -2.45161e-11 63840.5)
(221990 -42037.4 3.07082e-11 5713.28 2.2762e-11 68310.9)
(230712 -38228 1.56101e-10 11187.4 -8.82635e-12 72569.9)
(238758 -34845.2 -2.4041e-10 16388.6 -1.47723e-11 76544)
(246292 -31767.2 -1.28195e-10 21593 -2.35491e-11 80365.4)
(253258 -29003.1 2.8944e-10 26797.8 1.87135e-11 84016.8)
(259747 -26474.2 1.63995e-10 32150.2 -1.37215e-11 87569.1)
(265749 -24155.4 -2.14386e-10 37700.5 -2.82463e-11 91034.8)
(271301 -21992.8 -2.45466e-10 43545.1 -4.86032e-11 94453.9)
(276417 -19948 9.76333e-11 49761.2 5.93208e-12 97853.4)
(281083 -17975.4 1.68714e-10 56429.3 2.75426e-11 101254)
(285346 -16028.7 5.85257e-12 63661.3 -2.7762e-11 104702)
(289092 -14062.2 1.09544e-11 71520.8 7.22651e-12 108184)
(292495 -12016.2 -2.44772e-10 80205.8 -2.68755e-11 111810)
(295133 -9844.36 -1.20787e-10 89694.1 -3.6464e-12 115448)
(297701 -7444.38 -4.4695e-11 100448 -1.91276e-11 119445)
(298672 -4833.1 9.49363e-11 112070 1.64943e-11 123223)
(300804 -1574.27 8.652e-11 125855 3.77373e-11 127998)
(213565 -72862.2 5.42951e-11 -24573.7 1.78832e-11 56697.5)
(220099 -66210.7 -4.97353e-11 -16490.7 -7.03696e-13 61082.5)
(227578 -60570.6 2.75529e-11 -9047.47 -2.35657e-11 65559.2)
(234306 -55405.3 -3.78963e-12 -2556.87 -2.48256e-11 69524.7)
(241088 -50599.8 1.94437e-11 3818.71 -1.11828e-11 73472.2)
(247384 -46318.9 -6.88884e-11 9717.98 -1.37133e-11 77130.6)
(253500 -42371.5 -8.63766e-11 15565.6 -2.57209e-11 80719.8)
(259224 -38805.8 -4.05615e-11 21292 -2.33211e-11 84154.8)
(264673 -35517.4 1.76573e-11 27088.3 1.12853e-11 87528.4)
(269773 -32484.3 7.56299e-11 32993.8 4.39353e-11 90830)
(274556 -29639 -1.31812e-10 39118.2 -2.80518e-11 94102.3)
(279007 -26934.6 8.42246e-11 45538.6 2.43311e-11 97363.5)
(283102 -24313 1.97721e-10 52339.1 1.91739e-11 100632)
(286872 -21713.9 -7.99068e-11 59630.4 -2.3089e-11 103951)
(290201 -19077.6 -1.82851e-10 67475 -1.75387e-11 107303)
(293249 -16323.5 -1.14429e-10 76064.6 -2.21044e-11 110794)
(295604 -13390.1 8.11505e-11 85373.3 -4.21579e-12 114293)
(297937 -10137.6 9.79429e-11 95846.1 1.97618e-11 118135)
(298770 -6588.39 2.66304e-11 107083 4.24114e-12 121756)
(300776 -2152.91 -5.96417e-11 120333 -3.65177e-11 126333)
(239710 -83902.2 1.04467e-10 -37556.1 -1.82091e-11 60646.2)
(241643 -77231.1 4.95176e-11 -28712.6 -6.53976e-11 63879.1)
(246046 -71170.9 -1.12287e-10 -19891.1 1.95362e-11 67846.4)
(249691 -65671 -5.09301e-11 -12510.4 -2.05057e-12 71154.3)
(254130 -60341.3 1.77147e-10 -5100.47 2.1212e-11 74708.7)
(258271 -55563.4 -9.9868e-11 1609.5 3.18809e-11 77964.1)
(262639 -51070.1 -1.09232e-10 8214.18 -2.95785e-11 81256)
(266820 -46969.8 9.02488e-11 14564.8 -1.71791e-11 84415.4)
(270969 -43145.1 -4.36549e-11 20891.8 1.85926e-11 87558.3)
(274938 -39585.1 -2.56564e-12 27224.5 2.04082e-11 90648.8)
(278751 -36218.6 -9.77899e-11 33683 -9.02038e-12 93730.2)
(282359 -32995 -1.13109e-10 40345.2 -5.64805e-11 96811.4)
(285728 -29849.9 3.42226e-10 47298 4.15414e-11 99907.8)
(288869 -26712.4 4.06846e-11 54650.3 1.99576e-11 103056)
(291661 -23512.6 -6.76549e-11 62462.6 -1.69131e-11 106237)
(294249 -20152.2 5.16399e-11 70917.6 9.62109e-12 109550)
(296234 -16557 -2.24928e-10 79984.6 -5.49578e-11 112866)
(298259 -12553.5 9.33808e-11 90083.8 2.84801e-11 116503)
(298909 -8168.87 -4.30303e-11 100814 -1.20394e-11 119917)
(300742 -2679.77 2.00821e-11 113358 6.53489e-12 124230)
(268986 -88796.6 -4.86576e-11 -50705.7 -6.26618e-11 65484.1)
(265897 -83214.2 -7.56364e-11 -41697.9 4.8132e-11 67259.9)
(267062 -77437.9 -7.59243e-11 -31610.9 2.32294e-11 70635.4)
(267287 -72296.6 -5.71877e-11 -23501.1 -6.11269e-11 73135.9)
(269135 -66986.8 1.25316e-10 -15126.7 9.16143e-11 76202.4)
(270856 -62169 1.30144e-10 -7623.59 2.34811e-11 78969.6)
(273237 -57516.1 2.04717e-10 -263.407 1.51611e-11 81892.1)
(275659 -53199.2 -2.58675e-10 6741.31 -4.56705e-11 84720.1)
(278311 -49110.2 -1.70883e-10 13634.9 -3.61115e-12 87583.7)
(280975 -45251 -1.87129e-11 20441 -4.52256e-11 90424.9)
(283661 -41559.3 2.45148e-10 27278.8 2.74376e-11 93282)
(286290 -37985.6 -4.68315e-11 34225.4 -4.29276e-11 96154.5)
(288809 -34466 -1.45231e-10 41364.6 -2.08921e-11 99052.2)
(291214 -30924.2 6.75158e-11 48800.7 3.28477e-11 102004)
(293375 -27284.4 -9.59315e-11 56588.6 -1.80508e-11 104989)
(295422 -23435 -5.12093e-11 64897.8 -1.11736e-11 108096)
(296971 -19292.4 -2.03153e-11 73689.6 -8.27188e-12 111198)
(298629 -14653.9 1.04949e-10 83352.1 2.77353e-11 114594)
(299065 -9550.71 1.2774e-10 93480.7 4.21383e-11 117764)
(300693 -3147.56 -1.00595e-10 105171 -6.82528e-11 121759)
(299610 -87436 -2.13067e-11 -62400.4 1.98721e-11 71162.8)
(291524 -84039.3 4.32249e-11 -53992.6 2.40734e-11 71259.4)
(289597 -79254.3 2.21511e-10 -42954 2.79988e-11 73992.9)
(286359 -75128.1 -3.52264e-10 -34297 -7.07968e-11 75618.5)
(285542 -70400.6 -2.44197e-11 -25134.6 2.72504e-11 78122.2)
(284761 -65980.1 2.36732e-11 -16887.8 -2.58856e-11 80361.9)
(285028 -61552.8 2.50381e-10 -8832.42 7.95806e-11 82858.6)
(285582 -57325.7 1.00133e-10 -1195.31 1.03976e-11 85316)
(286609 -53237.9 -1.37807e-10 6237.39 -6.39156e-11 87853.9)
(287854 -49303.4 -6.05406e-11 13493.9 -3.01996e-11 90404.2)
(289296 -45483.1 -9.79556e-11 20683.5 -1.28701e-11 92993.7)
(290835 -41732.9 2.59388e-11 27884 1.3432e-11 95615.7)
(292401 -37996.1 8.45519e-11 35174.3 3.98138e-11 98272.6)
(293971 -34194.8 0 42653 0 100987)
(295412 -30251.6 1.79227e-11 50367.7 -1.47218e-11 103734)
(296835 -26045.3 9.7982e-11 58471.2 2.40418e-11 106592)
(297876 -21486.6 -4.75183e-11 66915.4 -7.28387e-12 109438)
(299101 -16349.7 -1.7618e-10 76047.4 -6.22234e-11 112544)
(299279 -10670.4 1.49392e-10 85462.4 5.40065e-11 115422)
(300647 -3532.11 -4.54296e-11 96149.9 -4.02676e-11 119039)
(329453 -80004.3 2.12436e-10 -71461.4 2.64858e-11 77397.4)
(316820 -79648.5 -1.68952e-10 -64684.6 -3.68434e-11 75640.8)
(312122 -76540.1 1.52788e-10 -53666.3 7.32588e-11 77536.8)
(305697 -73969 5.01407e-11 -44879.4 2.27168e-11 78245.2)
(302242 -70427.7 -3.9064e-10 -35438.8 -1.44645e-10 80040.9)
(299053 -66859.1 9.12475e-11 -26696.4 4.10267e-11 81706.9)
(297166 -63093.8 1.02817e-10 -18145.8 1.30751e-11 83706.1)
(295841 -59314 3.68037e-10 -9965.14 1.00905e-10 85762.7)
(295192 -55536.7 -9.61317e-11 -2024.86 -1.28088e-11 87950.3)
(294975 -51785.5 -2.686e-11 5699.79 2.05088e-11 90202.5)
(295127 -48054.5 2.60838e-11 13286.8 -1.84602e-11 92524)
(295536 -44313.5 -2.57611e-11 20802 1.61612e-11 94901.3)
(296110 -40519.8 2.98917e-11 28308.8 4.17149e-11 97325.6)
(296811 -36601.9 3.44382e-10 35892.5 8.68527e-11 99811)
(297500 -32486 -1.46637e-10 43587.3 -4.70654e-11 102326)
(298270 -28047.7 -2.81854e-10 51524.5 -7.56556e-11 104938)
(298782 -23195.9 2.31146e-10 59642.2 7.72763e-11 107527)
(299552 -17687.3 4.50329e-11 68240 1.39136e-11 110338)
(299468 -11562.2 -1.32815e-10 76908.2 -5.27999e-11 112913)
(300574 -3844.63 3.96768e-11 86510.5 2.39121e-11 116125)
(357358 -67885.4 -1.95881e-10 -76371.6 -7.73122e-11 84295.9)
(341168 -70997.1 -6.93308e-11 -71238.5 1.42321e-11 80978.8)
(334034 -70298.7 6.23584e-11 -61312 -1.56937e-11 81816.6)
(325129 -69469.9 2.22965e-10 -52545.1 4.38177e-11 81775.1)
(319174 -67513.4 -1.56388e-10 -43222.8 -2.92509e-11 82785.4)
(313867 -65034.9 -1.169e-10 -34210.1 1.14795e-11 83897.1)
(309920 -62169.3 0 -25403.1 0 85355)
(306799 -59050.3 1.84225e-10 -16911.7 5.66946e-11 86966.1)
(304493 -55784.1 2.68398e-10 -8692.11 9.48875e-11 88740.4)
(302803 -52411 9.77914e-11 -721.491 1.5565e-11 90624.4)
(301624 -48954.4 -1.71057e-10 7055.79 -5.23832e-11 92603.9)
(300845 -45399.6 -2.91343e-10 14695.4 -5.3516e-11 94662.2)
(300358 -41716.4 -1.43268e-10 22246.8 -6.70098e-11 96781.5)
(300115 -37841.2 2.75374e-10 29779.8 6.19182e-11 98968.4)
(299976 -33705.9 3.05576e-10 37313.1 1.04198e-10 101187)
(300017 -29186.4 -1.45364e-10 44950.4 -5.18534e-11 103490)
(299930 -24193.7 -5.31831e-11 52613.6 -2.38827e-11 105763)
(300174 -18476 1.89737e-10 60545.1 7.68719e-11 108216)
(299777 -12080.8 -1.73771e-10 68339.3 -7.67625e-11 110435)
(300541 -4027.91 3.57041e-13 76726.4 2.45764e-13 113180)
(379384 -51274.3 1.58472e-10 -79140.4 4.25907e-11 90073.1)
(362902 -56743 -1.1987e-10 -75232.8 -2.40765e-11 86300.9)
(353025 -59507.9 4.23822e-12 -68616.8 -3.01204e-11 85322.5)
(342621 -60919 -6.03682e-11 -60857.9 1.16236e-11 84528.9)
(334204 -61260 -1.11051e-10 -52435.2 8.35023e-13 84530.8)
(326938 -60560.8 -9.73063e-11 -43654.2 -5.76581e-11 84985.2)
(320998 -59147 -8.10906e-11 -34778.4 -8.95157e-11 85865.8)
(316153 -57154.4 -5.74866e-12 -25990.5 4.40025e-12 87048.8)
(312293 -54746.4 6.1687e-12 -17369.5 -3.40162e-12 88476.9)
(309246 -52017.5 1.92761e-10 -8962.47 3.3866e-11 90085.1)
(306875 -49032.7 2.43782e-10 -769.113 1.00807e-10 91831.7)
(305053 -45814.8 -1.5371e-10 7230.18 -7.59701e-11 93684.9)
(303651 -42359.7 -2.42692e-10 15057 -9.12214e-11 95612.4)
(302603 -38624 -1.59015e-10 22758 -5.54906e-11 97608.4)
(301768 -34552.1 6.49339e-11 30331.4 3.16606e-11 99629.7)
(301199 -30028.9 3.04788e-12 37852 3.37238e-13 101715)
(300624 -24970 -8.65589e-11 45221.5 -3.01373e-11 103754)
(300450 -19122 1.67035e-12 52623.6 4.14998e-13 105922)
(299854 -12533.6 8.40518e-11 59658.1 3.89731e-11 107854)
(300420 -4199.28 -2.2616e-11 66917.6 -1.75405e-11 110201)
(394078 -37519.1 5.75706e-11 -75383.3 3.34184e-11 95608.4)
(379411 -42132.7 1.14633e-10 -70533.8 7.84673e-11 92663.2)
(367360 -47535.8 1.18975e-10 -66500.2 3.48636e-11 90257.9)
(356433 -50532.5 3.21252e-11 -60432.2 5.24751e-12 88800.2)
(346919 -52470.5 4.22609e-11 -53269 5.63988e-11 88095)
(338619 -53260.2 1.08422e-11 -45498.1 -3.69539e-11 87936.2)
(331543 -53167.4 -2.21472e-10 -37361.7 -8.21722e-11 88254.5)
(325535 -52340.7 -7.91436e-11 -29118.5 -1.76785e-11 88924.9)
(320507 -50925.9 7.87735e-11 -20889.6 1.71043e-11 89885.3)
(316322 -49030.4 -9.67153e-11 -12770.4 -1.95098e-11 91065.6)
(312864 -46730.4 2.46497e-10 -4803.22 1.0806e-10 92418.1)
(310020 -44066.2 1.51133e-10 2993.21 5.95351e-11 93904)
(307675 -41050.3 -2.21706e-11 10607.2 1.69593e-11 95484.8)
(305766 -37657.7 5.56972e-11 18051.5 3.39595e-11 97145.4)
(304165 -33847.6 8.81583e-11 25297 2.55151e-11 98838.8)
(302913 -29523.2 -6.18526e-12 32378.4 -1.67556e-12 100587)
(301780 -24612.9 5.26254e-11 39176.4 2.70969e-11 102287)
(301103 -18883.8 2.79502e-11 45802.5 8.60667e-12 104072)
(300204 -12397 -8.42105e-11 51852.8 -4.05083e-11 105617)
(300400 -4164.54 -4.14218e-11 57789.5 -4.59454e-11 107457)
(393044 -26514.7 -3.93991e-10 -66663.7 -1.27664e-10 97914.2)
(382395 -31616.9 -1.93609e-10 -65558.5 -1.12045e-10 95050.9)
(371528 -37439.1 1.69444e-10 -62230.9 8.96757e-12 92789.1)
(361654 -41410.2 -9.38662e-11 -57325.2 6.04528e-11 91298.6)
(352661 -44246.8 -1.80639e-10 -51152 -9.0862e-11 90452.6)
(344586 -45970.3 2.18532e-10 -44260.6 5.45708e-11 90097.5)
(337458 -46769.5 -2.02152e-24 -36894.5 -8.15806e-25 90169)
(331203 -46780.6 -2.31063e-10 -29310.2 -1.26642e-10 90567.8)
(325780 -46130.8 -4.3616e-25 -21648.8 -3.39284e-25 91239.3)
(321098 -44918.8 -6.10001e-11 -14026 -4.55752e-11 92121.7)
(317080 -43217.5 -5.96664e-11 -6509.72 -4.27985e-11 93171)
(313641 -41070.2 9.41546e-11 854.159 2.3159e-11 94348.6)
(310694 -38495.7 -9.23447e-11 8028.67 -2.42308e-11 95616.8)
(308188 -35480.1 -2.69235e-24 14996.8 -8.31398e-25 96955.6)
(306023 -31994.9 8.91789e-11 21707.9 2.78173e-11 98319.3)
(304235 -27961.9 -8.78106e-11 28159.8 -3.03918e-11 99718.6)
(302644 -23325.8 -5.35648e-11 34220.1 -2.86978e-11 101059)
(301541 -17884.5 8.54834e-11 39940.4 3.73644e-11 102445)
(300393 -11716 -1.0494e-24 44927.5 -5.17646e-25 103596)
(300310 -3924.96 -2.5443e-11 49520.1 -2.37987e-11 104949)
(392684 -15337.6 -7.92258e-11 -58538.3 -5.35442e-11 100244)
(382943 -21175 1.82471e-10 -58845 2.23716e-11 97229.4)
(373591 -27447.7 -2.39252e-10 -57010.7 -7.99413e-11 94974)
(364483 -32152.9 6.37885e-11 -53503.8 6.30285e-11 93293.9)
(356061 -35776.6 3.56911e-11 -48577.3 -1.15599e-10 92245.2)
(348255 -38348.9 -1.3575e-24 -42767.1 -6.49897e-25 91646.3)
(341208 -39984.2 4.47313e-11 -36315.8 -2.67033e-11 91467.7)
(334866 -40802.1 -1.04444e-10 -29504.6 -2.6655e-11 91608.5)
(329237 -40901.4 -6.08073e-11 -22495.3 -4.91689e-11 92022.4)
(324258 -40371 -1.43147e-24 -15432.5 -5.7455e-25 92647.6)
(319881 -39277.1 -5.89703e-11 -8410.48 -4.37307e-11 93441.3)
(316048 -37664.1 -9.96544e-25 -1503.28 -2.69416e-25 94363.3)
(312691 -35555.7 -2.0774e-10 5226.95 -1.04096e-10 95375.4)
(309775 -32947.7 -1.12799e-10 11735.6 -7.27482e-11 96453.3)
(307224 -29823.6 3.44015e-11 17950.6 -4.16514e-12 97552.3)
(305071 -26122.6 3.37503e-11 23837.2 3.05509e-13 98672.6)
(303182 -21807.3 -5.41302e-11 29250 -3.02608e-11 99729.5)
(301800 -16707.2 -2.6814e-26 34187.6 1.04845e-26 100796)
(300525 -10918.2 -5.25726e-11 38273.4 -2.72067e-11 101640)
(300246 -3644.85 -1.10684e-10 41740.6 -1.23156e-10 102596)
(389374 -6725.47 3.18608e-11 -50919.5 -4.64192e-11 101536)
(380984 -12461.7 -1.21256e-10 -52415.8 -4.57973e-11 98570.4)
(373090 -18795.1 -5.00998e-25 -51491 -2.45529e-25 96479.8)
(364963 -23843.3 5.71487e-11 -49009.9 -2.33608e-11 94785.8)
(357344 -27956.3 5.93869e-11 -45072.9 5.95749e-11 93681.2)
(350057 -31113.1 9.63371e-25 -40194.3 2.86984e-25 92958.9)
(343340 -33374.3 1.28051e-25 -34596.1 -3.50028e-25 92623.2)
(337146 -34826.4 -4.5704e-11 -28554.4 2.26115e-11 92577.6)
(331528 -35541.7 0 -22237 0 92787.3)
(326450 -35593.3 -2.4178e-24 -15800.1 -1.03746e-24 93195.1)
(321895 -35037.5 0 -9354.08 0 93762.4)
(317826 -33915.5 1.91816e-10 -2992.09 5.63678e-11 94450.2)
(314201 -32252.6 3.73067e-11 3204.97 -1.04903e-11 95221.7)
(310998 -30051.3 -1.48401e-10 9170.16 -6.76089e-11 96050.4)
(308164 -27305 -5.55075e-11 14814.6 -3.52411e-11 96893.6)
(305735 -23969.3 -8.93026e-11 20076.2 -3.43085e-11 97743.5)
(303617 -20023.3 -3.37962e-11 24801.5 -5.41295e-12 98525.5)
(302012 -15329.1 8.70411e-11 28946.3 4.04186e-11 99287.6)
(300641 -9994.66 8.62154e-11 32157.3 4.42836e-11 99839.5)
(300187 -3328.28 -8.57678e-11 34573.3 -9.83186e-11 100428)
(384157 489.385 -2.39477e-11 -43713.3 7.62494e-11 102133)
(377042 -5114.84 -5.08695e-11 -45989.3 -6.23876e-11 99315.8)
(370540 -11321.5 -1.70051e-10 -45845.1 -1.04565e-10 97408.6)
(363435 -16478.1 -6.06502e-11 -44295.6 1.99903e-11 95741.8)
(356698 -20852.6 1.67894e-10 -41286.8 9.58184e-11 94623.4)
(350054 -24381.1 1.10014e-10 -37310.2 3.51859e-11 93823)
(343813 -27085.9 -1.32389e-24 -32550.9 -7.86743e-25 93378.6)
(337930 -29019 -1.05079e-10 -27281.3 -3.18909e-11 93194.7)
(332495 -30227.1 1.02722e-10 -21667.8 3.08959e-11 93248.1)
(327490 -30764.3 -5.67521e-11 -15875.9 -4.69544e-11 93484.3)
(322925 -30674.7 -5.65436e-11 -10027.2 -4.46086e-11 93869.3)
(318781 -29993.4 4.01004e-11 -4229.99 -1.18344e-11 94365.3)
(315038 -28744.6 5.59032e-11 1419.92 4.01523e-11 94937.4)
(311688 -26935.4 0 6837.73 0 95557.8)
(308701 -24567.1 0 11921.2 0 96186.5)
(306111 -21610.2 -8.98651e-11 16586.5 -3.60238e-11 96809.3)
(303863 -18059.3 1.58293e-24 20675.2 7.52969e-25 97361.5)
(302121 -13808.9 3.4229e-11 24108.4 9.94063e-12 97869)
(300710 -8975.83 0 26558.6 0 98180.6)
(300133 -2978.87 -8.65876e-11 28082.3 -9.90216e-11 98464.6)
(377679 6189.04 1.56002e-10 -37089.2 9.41063e-11 102177)
(371762 892.362 1.87696e-10 -39894.8 3.37521e-11 99560.3)