/*--------------------------------*- C++ -*----------------------------------*\
| =========                 |                                                 |
| \\      /  F ield         | foam-extend: Open Source CFD                    |
|  \\    /   O peration     | Version:     4.1                                |
|   \\  /    A nd           | Web:         http://www.foam-extend.org         |
|    \\/     M anipulation  |                                                 |
\*---------------------------------------------------------------------------*/
FoamFile
{
    version     2.0;
    format      ascii;
    class       volScalarField;
    location    "3";
    object      sigmaHyd;
}
// * * * * * * * * * * * * * * * * * * * * * * * * * * * * * * * * * * * * * //

dimensions      [1 -1 -2 0 0 0 0];

internalField   nonuniform List<scalar> 
1000
(
-163911
-156908
-155071
-151752
-150090
-148198
-146989
-145731
-145137
-143395
-210633
-194682
-187362
-178928
-173530
-168343
-164495
-160896
-158347
-154717
-255598
-231043
-218454
-205108
-196136
-187787
-181442
-175564
-171216
-165672
-297711
-265089
-247554
-229599
-217259
-205948
-197221
-189271
-183150
-176165
-335948
-295999
-273972
-251835
-236440
-222443
-211555
-201733
-193993
-185772
-369372
-323014
-297054
-271260
-253189
-236848
-224060
-212622
-203437
-194219
-397158
-345466
-316233
-287398
-267100
-248811
-234440
-221663
-211258
-201252
-418618
-362811
-331051
-299870
-277852
-258060
-242461
-228656
-217292
-206705
-433207
-374594
-341112
-308330
-285140
-264325
-247888
-233383
-221360
-210386
-440606
-380673
-346390
-312833
-289068
-267742
-250881
-236019
-223656
-212482
162611
106816
70173.1
37683.7
13224.4
-7874.74
-24969
-39867.2
-52310.9
-63692.1
155019
100572
64715.7
33028.3
9161.62
-11404.5
-28055.4
-42577.3
-54661.3
-65830.6
140239
88666.3
54576
24523.2
1855.47
-17663.6
-33454.8
-47256.7
-58656.2
-69429.5
118469
71120.5
39622.1
11967.4
-8941.91
-26923.7
-41455.3
-54198.1
-64603.8
-74782.1
90320.9
48430.8
20287.9
-4264.97
-22901.5
-38896
-51808.2
-63178.7
-72326.2
-81702.7
56509.8
21160.6
-2962.84
-23793.6
-39703.7
-53310.3
-64283.5
-73997.9
-81659.7
-90020.3
17905.2
-9993.23
-29541.9
-46129.4
-58938.6
-69820
-78601.9
-86407.3
-92430.6
-99531.8
-24520.3
-44246.5
-58778.2
-70703.6
-80103.5
-87984.7
-94352.9
-100046
-104270
-109883
-69712.9
-80758.5
-89971.4
-96946.7
-102747
-107440
-111305
-114679
-117156
-120740
-116554
-118612
-122314
-124153
-126201
-127581
-128790
-129804
-130285
-131929
-72935.7
-81749.5
-89515.2
-96725.8
-103367
-109589
-115470
-121079
-126488
-131750
-136918
-142046
-147164
-152348
-157579
-163027
-168497
-174507
-180205
-187402
-74696.7
-83064.2
-90575.1
-97511.5
-103969
-110013
-115757
-121242
-126547
-131713
-136796
-141843
-146886
-151996
-157154
-162526
-167919
-173845
-179457
-186549
-77565.2
-85135.7
-92214.1
-98671.3
-104823
-110564
-116083
-121358
-126489
-131495
-136433
-141344
-146256
-151236
-156266
-161504
-166759
-172531
-177988
-184886
-81896.3
-88230.3
-94696.6
-100425
-106126
-111411
-116595
-121557
-126430
-131199
-135926
-140636
-145358
-150151
-154993
-160036
-165090
-170639
-175870
-182481
-87600
-92269.8
-98000.4
-102778
-107913
-112615
-117370
-121933
-126473
-130937
-135388
-139839
-144311
-148858
-153453
-158239
-163028
-168282
-173213
-179443
-94588.1
-97153.2
-102029
-105641
-110070
-114067
-118289
-122373
-126510
-130614
-134741
-138890
-143075
-147340
-151651
-156139
-160620
-165525
-170103
-175874
-102791
-102930
-106879
-109227
-112843
-116078
-119685
-123234
-126900
-130584
-134324
-138112
-141949
-145870
-149838
-153966
-158076
-162564
-166721
-171945
-111796
-109259
-111998
-113021
-115615
-118021
-120909
-123880
-127039
-130293
-133646
-137080
-140581
-144171
-147804
-151578
-155317
-159376
-163096
-167737
-121761
-116969
-118180
-118120
-119579
-121185
-123291
-125618
-128181
-130902
-133761
-136734
-139796
-142954
-146159
-149486
-152769
-156312
-159517
-163482
-130106
-124657
-123244
-122097
-122100
-122756
-124028
-125737
-127800
-130123
-132646
-135323
-138107
-140990
-143910
-146922
-149866
-152998
-155788
-159179
-138101
-133847
-130372
-128267
-127248
-127019
-127479
-128447
-129834
-131539
-133493
-135639
-137922
-140321
-142767
-145293
-147748
-150326
-152558
-155215
-141432
-137296
-134029
-131876
-130654
-130141
-130244
-130820
-131790
-133065
-134580
-136281
-138113
-140047
-142017
-144038
-145975
-147975
-149639
-151593
-144796
-140442
-137185
-134758
-133243
-132378
-132120
-132323
-132921
-133824
-134971
-136303
-137764
-139321
-140909
-142527
-144054
-145595
-146813
-148194
-146664
-142379
-139360
-136913
-135317
-134274
-133789
-133723
-134026
-134615
-135435
-136428
-137543
-138739
-139957
-141185
-142315
-143415
-144213
-145063
-147526
-143456
-140701
-138294
-136678
-135522
-134880
-134615
-134692
-135033
-135589
-136305
-137132
-138028
-138936
-139836
-140633
-141366
-141816
-142227
-147589
-143809
-141360
-139088
-137538
-136359
-135639
-135245
-135159
-135308
-135650
-136133
-136712
-137346
-137982
-138594
-139101
-139515
-139670
-139711
-146995
-143576
-141438
-139348
-137907
-136756
-136011
-135544
-135347
-135355
-135532
-135831
-136211
-136631
-137044
-137419
-137690
-137846
-137767
-137517
-145906
-142876
-141052
-139186
-137891
-136819
-136096
-135603
-135342
-135254
-135309
-135465
-135685
-135932
-136164
-136346
-136425
-136376
-136117
-135647
-144422
-141800
-140286
-138666
-137542
-136581
-135915
-135434
-135148
-135002
-134975
-135027
-135127
-135241
-135331
-135365
-135299
-135097
-134710
-134086
-142641
-140432
-139222
-137864
-136929
-136106
-135527
-135090
-134811
-134641
-134564
-134546
-134560
-134575
-134562
-134485
-134314
-134005
-133535
-132818
-140636
-138836
-137924
-136838
-136105
-135440
-134969
-134602
-134356
-134190
-134091
-134032
-133990
-133938
-133853
-133702
-133463
-133088
-132577
-131818
-138462
-137071
-136451
-135643
-135121
-134629
-134284
-134006
-133814
-133675
-133578
-133502
-133429
-133338
-133209
-133014
-132738
-132333
-131814
-131059
-136174
-135179
-134855
-134329
-134025
-133718
-133511
-133338
-133217
-133120
-133044
-132970
-132887
-132778
-132629
-132415
-132128
-131724
-131226
-130510
-133797
-133213
-133175
-132935
-132854
-132740
-132682
-132625
-132587
-132547
-132504
-132448
-132370
-132260
-132108
-131896
-131621
-131241
-130787
-130141
-131397
-131169
-131463
-131519
-131663
-131749
-131844
-131909
-131960
-131983
-131982
-131951
-131888
-131788
-131647
-131451
-131203
-130867
-130474
-129919
-128940
-129180
-129740
-130083
-130462
-130752
-131008
-131201
-131346
-131437
-131482
-131481
-131439
-131355
-131233
-131065
-130856
-130578
-130261
-129815
-126590
-127320
-128084
-128798
-129351
-129851
-130254
-130570
-130802
-130955
-131040
-131064
-131040
-130972
-130870
-130734
-130571
-130360
-130129
-129802
-124146
-125237
-126403
-127381
-128246
-128956
-129535
-129977
-130298
-130511
-130632
-130677
-130665
-130610
-130528
-130425
-130314
-130178
-130042
-129843
-122026
-123528
-125058
-126326
-127425
-128326
-129044
-129585
-129970
-130215
-130347
-130389
-130368
-130308
-130231
-130152
-130088
-130030
-129995
-129924
-119542
-121635
-123510
-125136
-126526
-127656
-128545
-129201
-129653
-129928
-130061
-130088
-130045
-129968
-129891
-129835
-129825
-129853
-129926
-129973
-203084
-201314
-198255
-193669
-187667
-180340
-171861
-162532
-152699
-143324
-194543
-193248
-191086
-187867
-183694
-178625
-172747
-166054
-158594
-148799
-186872
-185793
-184009
-181323
-177805
-173494
-168525
-162981
-157292
-150303
-179892
-179079
-177781
-175823
-173257
-170079
-166349
-162011
-157292
-151484
-173440
-172789
-171771
-170224
-168187
-165666
-162724
-159392
-155741
-151612
-167474
-166990
-166265
-165155
-163674
-161819
-159584
-157041
-154041
-151061
-161859
-161495
-160976
-160173
-159088
-157731
-156058
-154225
-151873
-149900
-156562
-156311
-155986
-155471
-154750
-153836
-152632
-151360
-149512
-148289
-151496
-151337
-151166
-150884
-150458
-149913
-149116
-148331
-146953
-146324
-146624
-146548
-146520
-146448
-146287
-146066
-145620
-145237
-144273
-144100
-141890
-141886
-141982
-142096
-142169
-142232
-142106
-142074
-141495
-141684
-137250
-137314
-137526
-137810
-138100
-138422
-138588
-138865
-138641
-139127
-132674
-132801
-133121
-133565
-134059
-134622
-135065
-135626
-135739
-136478
-128097
-128286
-128712
-129310
-130004
-130798
-131511
-132341
-132784
-133755
-123535
-123783
-124315
-125066
-125956
-126980
-127961
-129058
-129822
-131020
-118845
-119155
-119795
-120703
-121798
-123058
-124318
-125688
-126791
-128221
-114191
-114563
-115314
-116384
-117689
-119193
-120739
-122402
-123839
-125578
-109140
-109581
-110454
-111703
-113242
-115018
-116886
-118866
-120693
-122667
-104406
-104917
-105916
-107347
-109124
-111179
-113374
-115687
-117899
-120166
-98474.2
-99069.8
-100227
-101888
-103968
-106384
-109004
-111759
-114478
-117154
)
;

boundaryField
{
    left
    {
        type            symmetryPlane;
        value           nonuniform List<scalar> 
30
(
-203084
-194543
-186872
-179892
-173440
-167474
-161859
-156562
-151496
-146624
-141890
-137250
-132674
-128097
-123535
-118845
-114191
-109140
-104406
-98474.2
-440606
-380673
-346390
-312833
-289068
-267742
-250881
-236019
-223656
-212482
)
;
    }
    right
    {
        type            zeroGradient;
    }
    down
    {
        type            symmetryPlane;
        value           nonuniform List<scalar> 
30
(
162611
106816
70173.1
37683.7
13224.4
-7874.74
-24969
-39867.2
-52310.9
-63692.1
-72935.7
-81749.5
-89515.2
-96725.8
-103367
-109589
-115470
-121079
-126488
-131750
-136918
-142046
-147164
-152348
-157579
-163027
-168497
-174507
-180205
-187402
)
;
    }
    up
    {
        type            zeroGradient;
    }
    hole
    {
        type            zeroGradient;
    }
    frontAndBack
    {
        type            empty;
    }
}


// ************************************************************************* //
