/*--------------------------------*- C++ -*----------------------------------*\
| =========                 |                                                 |
| \\      /  F ield         | foam-extend: Open Source CFD                    |
|  \\    /   O peration     | Version:     4.1                                |
|   \\  /    A nd           | Web:         http://www.foam-extend.org         |
|    \\/     M anipulation  |                                                 |
\*---------------------------------------------------------------------------*/
FoamFile
{
    version     2.0;
    format      ascii;
    class       vectorField;
    location    "3";
    object      solidsCellD_iteration19;
}
// * * * * * * * * * * * * * * * * * * * * * * * * * * * * * * * * * * * * * //


1000
(
(1.53981e-06 -6.41139e-07 0)
(1.4535e-06 -5.96929e-07 0)
(1.39846e-06 -5.69009e-07 0)
(1.36693e-06 -5.56234e-07 0)
(1.35172e-06 -5.52162e-07 0)
(1.34835e-06 -5.54779e-07 0)
(1.35379e-06 -5.61786e-07 0)
(1.36572e-06 -5.72057e-07 0)
(1.3827e-06 -5.84552e-07 0)
(1.40339e-06 -5.98481e-07 0)
(1.3923e-06 -7.00423e-07 0)
(1.30046e-06 -6.69886e-07 0)
(1.24191e-06 -6.50622e-07 0)
(1.20776e-06 -6.43712e-07 0)
(1.1905e-06 -6.43532e-07 0)
(1.1853e-06 -6.4889e-07 0)
(1.18895e-06 -6.57823e-07 0)
(1.19905e-06 -6.69553e-07 0)
(1.2141e-06 -6.83171e-07 0)
(1.23245e-06 -6.97967e-07 0)
(1.23907e-06 -7.5662e-07 0)
(1.14528e-06 -7.41365e-07 0)
(1.08549e-06 -7.3179e-07 0)
(1.05022e-06 -7.31363e-07 0)
(1.03184e-06 -7.35436e-07 0)
(1.02538e-06 -7.43716e-07 0)
(1.0276e-06 -7.54672e-07 0)
(1.0361e-06 -7.67846e-07 0)
(1.04935e-06 -7.82569e-07 0)
(1.06581e-06 -7.98117e-07 0)
(1.08121e-06 -8.08706e-07 0)
(9.89388e-07 -8.09458e-07 0)
(9.30875e-07 -8.10057e-07 0)
(8.96044e-07 -8.1639e-07 0)
(8.77527e-07 -8.24862e-07 0)
(8.70393e-07 -8.36129e-07 0)
(8.71492e-07 -8.49111e-07 0)
(8.78556e-07 -8.63713e-07 0)
(8.90092e-07 -8.79497e-07 0)
(9.04594e-07 -8.95874e-07 0)
(9.19822e-07 -8.55652e-07 0)
(8.33847e-07 -8.72276e-07 0)
(7.79093e-07 -8.8294e-07 0)
(7.4632e-07 -8.95944e-07 0)
(7.28635e-07 -9.08747e-07 0)
(7.21393e-07 -9.22958e-07 0)
(7.21709e-07 -9.37925e-07 0)
(7.27479e-07 -9.53917e-07 0)
(7.37324e-07 -9.70739e-07 0)
(7.49791e-07 -9.87958e-07 0)
(7.55668e-07 -8.96538e-07 0)
(6.79368e-07 -9.28007e-07 0)
(6.3079e-07 -9.48098e-07 0)
(6.01565e-07 -9.67341e-07 0)
(5.85623e-07 -9.84188e-07 0)
(5.78832e-07 -1.00112e-06 0)
(5.78668e-07 -1.01793e-06 0)
(5.83244e-07 -1.0352e-06 0)
(5.91363e-07 -1.053e-06 0)
(6.01686e-07 -1.07106e-06 0)
(5.89577e-07 -9.30406e-07 0)
(5.26317e-07 -9.74874e-07 0)
(4.86034e-07 -1.00324e-06 0)
(4.61721e-07 -1.02797e-06 0)
(4.48371e-07 -1.04835e-06 0)
(4.4254e-07 -1.06766e-06 0)
(4.42143e-07 -1.08606e-06 0)
(4.45599e-07 -1.10448e-06 0)
(4.51946e-07 -1.12312e-06 0)
(4.6004e-07 -1.14193e-06 0)
(4.22064e-07 -9.56538e-07 0)
(3.74694e-07 -1.01146e-06 0)
(3.44533e-07 -1.04646e-06 0)
(3.26301e-07 -1.07556e-06 0)
(3.16249e-07 -1.09878e-06 0)
(3.11774e-07 -1.12002e-06 0)
(3.11326e-07 -1.13973e-06 0)
(3.13726e-07 -1.15907e-06 0)
(3.18279e-07 -1.17839e-06 0)
(3.24095e-07 -1.19784e-06 0)
(2.53637e-07 -9.74305e-07 0)
(2.24309e-07 -1.03651e-06 0)
(2.05657e-07 -1.07615e-06 0)
(1.94347e-07 -1.10833e-06 0)
(1.88072e-07 -1.13354e-06 0)
(1.8524e-07 -1.15612e-06 0)
(1.84912e-07 -1.17674e-06 0)
(1.86341e-07 -1.19676e-06 0)
(1.89079e-07 -1.21657e-06 0)
(1.92575e-07 -1.23648e-06 0)
(8.47092e-08 -9.83258e-07 0)
(7.47804e-08 -1.04925e-06 0)
(6.8427e-08 -1.09126e-06 0)
(6.45744e-08 -1.12502e-06 0)
(6.24541e-08 -1.15126e-06 0)
(6.14862e-08 -1.17454e-06 0)
(6.13388e-08 -1.19562e-06 0)
(6.17974e-08 -1.21596e-06 0)
(6.27159e-08 -1.23603e-06 0)
(6.3879e-08 -1.25619e-06 0)
(2.40205e-06 -2.92118e-08 0)
(2.42327e-06 -2.10178e-08 0)
(2.43636e-06 -1.58318e-08 0)
(2.45045e-06 -1.27929e-08 0)
(2.46601e-06 -1.11083e-08 0)
(2.48511e-06 -1.03506e-08 0)
(2.50777e-06 -1.02457e-08 0)
(2.53423e-06 -1.0529e-08 0)
(2.56439e-06 -1.11007e-08 0)
(2.59788e-06 -1.1818e-08 0)
(2.38429e-06 -8.76697e-08 0)
(2.40193e-06 -6.35627e-08 0)
(2.41277e-06 -4.82905e-08 0)
(2.42537e-06 -3.93988e-08 0)
(2.43993e-06 -3.45714e-08 0)
(2.45832e-06 -3.23948e-08 0)
(2.48046e-06 -3.20613e-08 0)
(2.5065e-06 -3.29671e-08 0)
(2.53631e-06 -3.47434e-08 0)
(2.56944e-06 -3.68669e-08 0)
(2.34882e-06 -1.46602e-07 0)
(2.35964e-06 -1.07919e-07 0)
(2.36615e-06 -8.34518e-08 0)
(2.3759e-06 -6.91775e-08 0)
(2.38856e-06 -6.14424e-08 0)
(2.40561e-06 -5.80709e-08 0)
(2.42676e-06 -5.76641e-08 0)
(2.45201e-06 -5.92097e-08 0)
(2.48112e-06 -6.21604e-08 0)
(2.51353e-06 -6.57017e-08 0)
(2.29625e-06 -2.0631e-07 0)
(2.29739e-06 -1.55129e-07 0)
(2.29772e-06 -1.22807e-07 0)
(2.30339e-06 -1.04042e-07 0)
(2.31336e-06 -9.39198e-08 0)
(2.32853e-06 -8.95943e-08 0)
(2.34826e-06 -8.92219e-08 0)
(2.37239e-06 -9.14636e-08 0)
(2.4005e-06 -9.55597e-08 0)
(2.43191e-06 -1.00505e-07 0)
(2.2274e-06 -2.66935e-07 0)
(2.21656e-06 -2.06041e-07 0)
(2.20927e-06 -1.67614e-07 0)
(2.2099e-06 -1.45465e-07 0)
(2.21652e-06 -1.33636e-07 0)
(2.22933e-06 -1.28762e-07 0)
(2.24732e-06 -1.28614e-07 0)
(2.27005e-06 -1.31634e-07 0)
(2.29693e-06 -1.36863e-07 0)
(2.32713e-06 -1.43178e-07 0)
(2.14329e-06 -3.28544e-07 0)
(2.1189e-06 -2.6127e-07 0)
(2.10301e-06 -2.18815e-07 0)
(2.09794e-06 -1.94595e-07 0)
(2.10077e-06 -1.81853e-07 0)
(2.11088e-06 -1.76896e-07 0)
(2.12688e-06 -1.77211e-07 0)
(2.148e-06 -1.81098e-07 0)
(2.17348e-06 -1.87452e-07 0)
(2.2023e-06 -1.95087e-07 0)
(2.04516e-06 -3.90996e-07 0)
(2.00644e-06 -3.21043e-07 0)
(1.98148e-06 -2.76872e-07 0)
(1.97037e-06 -2.52014e-07 0)
(1.96917e-06 -2.39226e-07 0)
(1.97641e-06 -2.3471e-07 0)
(1.99028e-06 -2.3576e-07 0)
(2.00968e-06 -2.40594e-07 0)
(2.03364e-06 -2.48051e-07 0)
(2.061e-06 -2.56921e-07 0)
(1.93432e-06 -4.53995e-07 0)
(1.88139e-06 -3.85195e-07 0)
(1.84746e-06 -3.41729e-07 0)
(1.83035e-06 -3.17771e-07 0)
(1.82515e-06 -3.05859e-07 0)
(1.82949e-06 -3.02343e-07 0)
(1.84118e-06 -3.04434e-07 0)
(1.85879e-06 -3.10355e-07 0)
(1.88114e-06 -3.18916e-07 0)
(1.90696e-06 -3.28973e-07 0)
(1.81219e-06 -5.17115e-07 0)
(1.74606e-06 -4.53197e-07 0)
(1.70376e-06 -4.12829e-07 0)
(1.68102e-06 -3.91267e-07 0)
(1.672e-06 -3.81139e-07 0)
(1.67351e-06 -3.79152e-07 0)
(1.68302e-06 -3.82581e-07 0)
(1.69878e-06 -3.89711e-07 0)
(1.71951e-06 -3.99458e-07 0)
(1.74383e-06 -4.10529e-07 0)
(1.68022e-06 -5.79756e-07 0)
(1.60274e-06 -5.24175e-07 0)
(1.55325e-06 -4.89084e-07 0)
(1.52562e-06 -4.71318e-07 0)
(1.51322e-06 -4.63842e-07 0)
(1.51218e-06 -4.63912e-07 0)
(1.5197e-06 -4.68987e-07 0)
(1.53365e-06 -4.77602e-07 0)
(1.55279e-06 -4.886e-07 0)
(1.5754e-06 -5.01303e-07 0)
(2.6348e-06 -1.25222e-08 0)
(2.67501e-06 -1.2699e-08 0)
(2.71778e-06 -1.28871e-08 0)
(2.76295e-06 -1.30316e-08 0)
(2.81026e-06 -1.31242e-08 0)
(2.85949e-06 -1.31557e-08 0)
(2.91045e-06 -1.30928e-08 0)
(2.96295e-06 -1.29487e-08 0)
(3.01684e-06 -1.27375e-08 0)
(3.07195e-06 -1.24465e-08 0)
(3.12811e-06 -1.20584e-08 0)
(3.18518e-06 -1.15637e-08 0)
(3.24299e-06 -1.09518e-08 0)
(3.30138e-06 -1.0216e-08 0)
(3.36019e-06 -9.34826e-09 0)
(3.41923e-06 -8.33306e-09 0)
(3.47835e-06 -7.14589e-09 0)
(3.53723e-06 -5.75592e-09 0)
(3.59587e-06 -4.12946e-09 0)
(3.65343e-06 -2.25576e-09 0)
(2.6076e-06 -3.88133e-08 0)
(2.65009e-06 -3.91618e-08 0)
(2.69489e-06 -3.95875e-08 0)
(2.74183e-06 -3.99049e-08 0)
(2.79071e-06 -4.00419e-08 0)
(2.84132e-06 -4.0013e-08 0)
(2.89354e-06 -3.97758e-08 0)
(2.94719e-06 -3.93346e-08 0)
(3.00212e-06 -3.86687e-08 0)
(3.05818e-06 -3.77393e-08 0)
(3.11522e-06 -3.65211e-08 0)
(3.1731e-06 -3.50042e-08 0)
(3.23167e-06 -3.31605e-08 0)
(3.29078e-06 -3.09553e-08 0)
(3.35028e-06 -2.83469e-08 0)
(3.40996e-06 -2.52864e-08 0)
(3.46971e-06 -2.17058e-08 0)
(3.52918e-06 -1.75273e-08 0)
(3.58841e-06 -1.26437e-08 0)
(3.64656e-06 -7.02311e-09 0)
(2.55413e-06 -6.85283e-08 0)
(2.60109e-06 -6.85556e-08 0)
(2.64987e-06 -6.87597e-08 0)
(2.70026e-06 -6.88999e-08 0)
(2.75222e-06 -6.88178e-08 0)
(2.80559e-06 -6.85313e-08 0)
(2.86027e-06 -6.79379e-08 0)
(2.91614e-06 -6.7028e-08 0)
(2.97309e-06 -6.57624e-08 0)
(3.031e-06 -6.40936e-08 0)
(3.08975e-06 -6.19843e-08 0)
(3.14922e-06 -5.94052e-08 0)
(3.20927e-06 -5.62961e-08 0)
(3.26976e-06 -5.25927e-08 0)
(3.33057e-06 -4.82267e-08 0)
(3.39152e-06 -4.31171e-08 0)
(3.45249e-06 -3.71471e-08 0)
(3.51315e-06 -3.01945e-08 0)
(3.57356e-06 -2.20693e-08 0)
(3.63288e-06 -1.27218e-08 0)
(2.47599e-06 -1.03608e-07 0)
(2.52934e-06 -1.02542e-07 0)
(2.58389e-06 -1.01822e-07 0)
(2.63929e-06 -1.01236e-07 0)
(2.69576e-06 -1.00471e-07 0)
(2.75312e-06 -9.95543e-08 0)
(2.81142e-06 -9.83014e-08 0)
(2.87055e-06 -9.66959e-08 0)
(2.9305e-06 -9.4662e-08 0)
(2.99114e-06 -9.212e-08 0)
(3.05241e-06 -8.9004e-08 0)
(3.11421e-06 -8.52609e-08 0)
(3.17644e-06 -8.08099e-08 0)
(3.23898e-06 -7.55634e-08 0)
(3.30174e-06 -6.9427e-08 0)
(3.36454e-06 -6.22714e-08 0)
(3.42729e-06 -5.39349e-08 0)
(3.48969e-06 -4.42426e-08 0)
(3.5518e-06 -3.29181e-08 0)
(3.61286e-06 -1.99091e-08 0)
(2.37555e-06 -1.45768e-07 0)
(2.43692e-06 -1.42596e-07 0)
(2.49877e-06 -1.40049e-07 0)
(2.56053e-06 -1.38045e-07 0)
(2.62275e-06 -1.36011e-07 0)
(2.68524e-06 -1.33997e-07 0)
(2.74818e-06 -1.31709e-07 0)
(2.81152e-06 -1.29104e-07 0)
(2.8753e-06 -1.26042e-07 0)
(2.93946e-06 -1.22414e-07 0)
(3.00398e-06 -1.18132e-07 0)
(3.06881e-06 -1.13114e-07 0)
(3.13387e-06 -1.07246e-07 0)
(3.19907e-06 -1.00406e-07 0)
(3.26436e-06 -9.24626e-08 0)
(3.32956e-06 -8.32439e-08 0)
(3.39463e-06 -7.25421e-08 0)
(3.45929e-06 -6.01327e-08 0)
(3.52363e-06 -4.56565e-08 0)
(3.58693e-06 -2.90512e-08 0)
(2.25563e-06 -1.96267e-07 0)
(2.32625e-06 -1.8981e-07 0)
(2.39666e-06 -1.84351e-07 0)
(2.46592e-06 -1.8008e-07 0)
(2.53496e-06 -1.76085e-07 0)
(2.60356e-06 -1.72402e-07 0)
(2.67204e-06 -1.68601e-07 0)
(2.74043e-06 -1.64604e-07 0)
(2.80881e-06 -1.60214e-07 0)
(2.87721e-06 -1.55272e-07 0)
(2.94566e-06 -1.49656e-07 0)
(3.01412e-06 -1.43239e-07 0)
(3.08258e-06 -1.35865e-07 0)
(3.15099e-06 -1.27376e-07 0)
(3.21931e-06 -1.17597e-07 0)
(3.28742e-06 -1.06317e-07 0)
(3.35529e-06 -9.32722e-08 0)
(3.42266e-06 -7.81956e-08 0)
(3.48969e-06 -6.06508e-08 0)
(3.55566e-06 -4.05304e-08 0)
(2.11958e-06 -2.55817e-07 0)
(2.20026e-06 -2.44911e-07 0)
(2.28012e-06 -2.3548e-07 0)
(2.35771e-06 -2.28033e-07 0)
(2.43438e-06 -2.21326e-07 0)
(2.50985e-06 -2.15332e-07 0)
(2.58462e-06 -2.09525e-07 0)
(2.65873e-06 -2.03724e-07 0)
(2.73238e-06 -1.97672e-07 0)
(2.80563e-06 -1.91157e-07 0)
(2.87856e-06 -1.83996e-07 0)
(2.9512e-06 -1.76013e-07 0)
(3.02358e-06 -1.6701e-07 0)
(3.09568e-06 -1.56791e-07 0)
(3.1675e-06 -1.45132e-07 0)
(3.23894e-06 -1.3178e-07 0)
(3.31004e-06 -1.16415e-07 0)
(3.38054e-06 -9.87199e-08 0)
(3.45063e-06 -7.81916e-08 0)
(3.51967e-06 -5.46699e-08 0)
(1.97077e-06 -3.2465e-07 0)
(2.06181e-06 -3.0793e-07 0)
(2.15164e-06 -2.934e-07 0)
(2.23818e-06 -2.81748e-07 0)
(2.3231e-06 -2.71568e-07 0)
(2.40608e-06 -2.62597e-07 0)
(2.48773e-06 -2.5427e-07 0)
(2.56815e-06 -2.46252e-07 0)
(2.6476e-06 -2.38213e-07 0)
(2.7262e-06 -2.29871e-07 0)
(2.8041e-06 -2.20978e-07 0)
(2.88137e-06 -2.11296e-07 0)
(2.95809e-06 -2.00579e-07 0)
(3.03428e-06 -1.88584e-07 0)
(3.10998e-06 -1.75037e-07 0)
(3.18513e-06 -1.59635e-07 0)
(3.25978e-06 -1.42007e-07 0)
(3.33374e-06 -1.21779e-07 0)
(3.40722e-06 -9.83822e-08 0)
(3.47967e-06 -7.16079e-08 0)
(1.81277e-06 -4.02599e-07 0)
(1.91416e-06 -3.79046e-07 0)
(2.01394e-06 -3.58775e-07 0)
(2.10971e-06 -3.42041e-07 0)
(2.20313e-06 -3.27664e-07 0)
(2.29401e-06 -3.1505e-07 0)
(2.38293e-06 -3.03628e-07 0)
(2.47007e-06 -2.92904e-07 0)
(2.55572e-06 -2.82478e-07 0)
(2.64009e-06 -2.71981e-07 0)
(2.72334e-06 -2.61092e-07 0)
(2.80562e-06 -2.4951e-07 0)
(2.88705e-06 -2.36933e-07 0)
(2.96768e-06 -2.23065e-07 0)
(3.04759e-06 -2.07574e-07 0)
(3.12675e-06 -1.90104e-07 0)
(3.20526e-06 -1.70235e-07 0)
(3.28298e-06 -1.47534e-07 0)
(3.36013e-06 -1.21383e-07 0)
(3.43628e-06 -9.15279e-08 0)
(1.64869e-06 -4.8832e-07 0)
(1.76076e-06 -4.55997e-07 0)
(1.8702e-06 -4.29174e-07 0)
(1.97547e-06 -4.06568e-07 0)
(2.07751e-06 -3.87395e-07 0)
(2.17656e-06 -3.70684e-07 0)
(2.27298e-06 -3.55781e-07 0)
(2.3671e-06 -3.42066e-07 0)
(2.45922e-06 -3.29038e-07 0)
(2.5496e-06 -3.16236e-07 0)
(2.63845e-06 -3.03255e-07 0)
(2.72596e-06 -2.89726e-07 0)
(2.81229e-06 -2.75278e-07 0)
(2.89755e-06 -2.5956e-07 0)
(2.98183e-06 -2.42183e-07 0)
(3.06518e-06 -2.22735e-07 0)
(3.14771e-06 -2.00757e-07 0)
(3.22935e-06 -1.7574e-07 0)
(3.31037e-06 -1.47033e-07 0)
(3.39043e-06 -1.14312e-07 0)
(1.52655e-06 -5.71353e-07 0)
(1.64577e-06 -5.3171e-07 0)
(1.76101e-06 -4.9984e-07 0)
(1.87231e-06 -4.72372e-07 0)
(1.97998e-06 -4.48839e-07 0)
(2.08436e-06 -4.28204e-07 0)
(2.18579e-06 -4.09758e-07 0)
(2.2846e-06 -3.92853e-07 0)
(2.38108e-06 -3.76934e-07 0)
(2.47551e-06 -3.61491e-07 0)
(2.56812e-06 -3.46079e-07 0)
(2.65911e-06 -3.30283e-07 0)
(2.74867e-06 -3.13692e-07 0)
(2.83694e-06 -2.95916e-07 0)
(2.92403e-06 -2.76536e-07 0)
(3.01003e-06 -2.55099e-07 0)
(3.09508e-06 -2.31145e-07 0)
(3.1792e-06 -2.04114e-07 0)
(3.26265e-06 -1.73352e-07 0)
(3.34521e-06 -1.38497e-07 0)
(1.4571e-06 -6.38968e-07 0)
(1.5773e-06 -5.97854e-07 0)
(1.69355e-06 -5.63205e-07 0)
(1.80646e-06 -5.32802e-07 0)
(1.91593e-06 -5.06201e-07 0)
(2.02224e-06 -4.82545e-07 0)
(2.12563e-06 -4.61174e-07 0)
(2.22636e-06 -4.41476e-07 0)
(2.32466e-06 -4.22899e-07 0)
(2.42079e-06 -4.04941e-07 0)
(2.51497e-06 -3.87155e-07 0)
(2.60739e-06 -3.69117e-07 0)
(2.69824e-06 -3.50403e-07 0)
(2.78765e-06 -3.30617e-07 0)
(2.87577e-06 -3.09334e-07 0)
(2.96271e-06 -2.86097e-07 0)
(3.04862e-06 -2.60466e-07 0)
(3.13358e-06 -2.31882e-07 0)
(3.21786e-06 -1.99708e-07 0)
(3.30131e-06 -1.63593e-07 0)
(1.39801e-06 -7.03744e-07 0)
(1.51709e-06 -6.61706e-07 0)
(1.63324e-06 -6.25276e-07 0)
(1.74649e-06 -5.92678e-07 0)
(1.85672e-06 -5.63583e-07 0)
(1.96402e-06 -5.37317e-07 0)
(2.06856e-06 -5.13308e-07 0)
(2.17049e-06 -4.91007e-07 0)
(2.27001e-06 -4.69895e-07 0)
(2.36734e-06 -4.49502e-07 0)
(2.46266e-06 -4.29394e-07 0)
(2.55615e-06 -4.09146e-07 0)
(2.64797e-06 -3.88336e-07 0)
(2.73829e-06 -3.66576e-07 0)
(2.82724e-06 -3.43444e-07 0)
(2.91497e-06 -3.18488e-07 0)
(3.00163e-06 -2.91286e-07 0)
(3.08734e-06 -2.61302e-07 0)
(3.17236e-06 -2.27922e-07 0)
(3.25665e-06 -1.90831e-07 0)
(1.34595e-06 -7.66349e-07 0)
(1.4634e-06 -7.23916e-07 0)
(1.57862e-06 -6.86159e-07 0)
(1.69141e-06 -6.51741e-07 0)
(1.80159e-06 -6.20493e-07 0)
(1.90916e-06 -5.91902e-07 0)
(2.01418e-06 -5.65491e-07 0)
(2.11675e-06 -5.40775e-07 0)
(2.21701e-06 -5.17284e-07 0)
(2.31511e-06 -4.94581e-07 0)
(2.41121e-06 -4.72256e-07 0)
(2.50547e-06 -4.49892e-07 0)
(2.59804e-06 -4.27077e-07 0)
(2.68908e-06 -4.03441e-07 0)
(2.77871e-06 -3.78566e-07 0)
(2.86711e-06 -3.52022e-07 0)
(2.95443e-06 -3.23402e-07 0)
(3.04082e-06 -2.92202e-07 0)
(3.12651e-06 -2.57847e-07 0)
(3.21158e-06 -2.2007e-07 0)
(1.30021e-06 -8.26242e-07 0)
(1.41554e-06 -7.83777e-07 0)
(1.52927e-06 -7.45194e-07 0)
(1.64098e-06 -7.0945e-07 0)
(1.75051e-06 -6.76492e-07 0)
(1.85777e-06 -6.45954e-07 0)
(1.96274e-06 -6.17446e-07 0)
(2.06546e-06 -5.90564e-07 0)
(2.16601e-06 -5.64895e-07 0)
(2.2645e-06 -5.40046e-07 0)
(2.36106e-06 -5.15638e-07 0)
(2.45581e-06 -4.91274e-07 0)
(2.54889e-06 -4.66563e-07 0)
(2.64045e-06 -4.41158e-07 0)
(2.73061e-06 -4.14652e-07 0)
(2.81955e-06 -3.86648e-07 0)
(2.90742e-06 -3.5675e-07 0)
(2.9944e-06 -3.24495e-07 0)
(3.08069e-06 -2.8937e-07 0)
(3.16649e-06 -2.51155e-07 0)
(1.25964e-06 -8.83649e-07 0)
(1.37264e-06 -8.41413e-07 0)
(1.48453e-06 -8.02329e-07 0)
(1.59475e-06 -7.65598e-07 0)
(1.70321e-06 -7.31273e-07 0)
(1.8097e-06 -6.99099e-07 0)
(1.91419e-06 -6.68777e-07 0)
(2.01665e-06 -6.3998e-07 0)
(2.11712e-06 -6.12351e-07 0)
(2.21567e-06 -5.85544e-07 0)
(2.31239e-06 -5.5922e-07 0)
(2.40738e-06 -5.33006e-07 0)
(2.50075e-06 -5.06539e-07 0)
(2.59266e-06 -4.79504e-07 0)
(2.6832e-06 -4.51501e-07 0)
(2.77256e-06 -4.2218e-07 0)
(2.86088e-06 -3.9116e-07 0)
(2.94835e-06 -3.58022e-07 0)
(3.03519e-06 -3.22324e-07 0)
(3.12164e-06 -2.83883e-07 0)
(1.22341e-06 -9.386e-07 0)
(1.33397e-06 -8.96771e-07 0)
(1.44378e-06 -8.57456e-07 0)
(1.55226e-06 -8.20042e-07 0)
(1.65933e-06 -7.84667e-07 0)
(1.76472e-06 -7.51154e-07 0)
(1.8684e-06 -7.19299e-07 0)
(1.97028e-06 -6.8884e-07 0)
(2.07037e-06 -6.59474e-07 0)
(2.1687e-06 -6.30909e-07 0)
(2.26533e-06 -6.02846e-07 0)
(2.36033e-06 -5.74945e-07 0)
(2.45381e-06 -5.46876e-07 0)
(2.5459e-06 -5.18356e-07 0)
(2.63669e-06 -4.88999e-07 0)
(2.72634e-06 -4.58503e-07 0)
(2.81502e-06 -4.26509e-07 0)
(2.9029e-06 -3.92652e-07 0)
(2.99022e-06 -3.56556e-07 0)
(3.07722e-06 -3.18058e-07 0)
(1.19075e-06 -9.91254e-07 0)
(1.29883e-06 -9.49947e-07 0)
(1.40645e-06 -9.10588e-07 0)
(1.51303e-06 -8.72727e-07 0)
(1.61848e-06 -8.36551e-07 0)
(1.72256e-06 -8.01958e-07 0)
(1.82517e-06 -7.68822e-07 0)
(1.92622e-06 -7.36939e-07 0)
(2.02568e-06 -7.06056e-07 0)
(2.12356e-06 -6.75936e-07 0)
(2.21989e-06 -6.46323e-07 0)
(2.31473e-06 -6.1691e-07 0)
(2.40816e-06 -5.87402e-07 0)
(2.50028e-06 -5.57552e-07 0)
(2.59119e-06 -5.26992e-07 0)
(2.68105e-06 -4.95467e-07 0)
(2.76998e-06 -4.62652e-07 0)
(2.85821e-06 -4.28233e-07 0)
(2.94593e-06 -3.91885e-07 0)
(3.0334e-06 -3.5348e-07 0)
(1.16096e-06 -1.04177e-06 0)
(1.26658e-06 -1.00105e-06 0)
(1.37197e-06 -9.6178e-07 0)
(1.47655e-06 -9.23654e-07 0)
(1.58028e-06 -8.86883e-07 0)
(1.68287e-06 -8.51438e-07 0)
(1.78424e-06 -8.17248e-07 0)
(1.88428e-06 -7.8416e-07 0)
(1.98293e-06 -7.51973e-07 0)
(2.08019e-06 -7.205e-07 0)
(2.17606e-06 -6.89528e-07 0)
(2.27059e-06 -6.58781e-07 0)
(2.36383e-06 -6.28002e-07 0)
(2.45588e-06 -5.96977e-07 0)
(2.54682e-06 -5.65366e-07 0)
(2.63679e-06 -5.32958e-07 0)
(2.72592e-06 -4.99465e-07 0)
(2.81443e-06 -4.64618e-07 0)
(2.90246e-06 -4.28143e-07 0)
(2.99032e-06 -3.89959e-07 0)
(1.13345e-06 -1.09031e-06 0)
(1.23666e-06 -1.0502e-06 0)
(1.33983e-06 -1.01112e-06 0)
(1.44239e-06 -9.72858e-07 0)
(1.54431e-06 -9.35665e-07 0)
(1.64534e-06 -8.99557e-07 0)
(1.74536e-06 -8.6451e-07 0)
(1.84425e-06 -8.30419e-07 0)
(1.94197e-06 -7.9713e-07 0)
(2.03849e-06 -7.64499e-07 0)
(2.13379e-06 -7.32353e-07 0)
(2.2279e-06 -7.00448e-07 0)
(2.32087e-06 -6.68564e-07 0)
(2.41276e-06 -6.36519e-07 0)
(2.50364e-06 -6.04007e-07 0)
(2.59366e-06 -5.70856e-07 0)
(2.68291e-06 -5.3682e-07 0)
(2.77162e-06 -5.01661e-07 0)
(2.85989e-06 -4.65172e-07 0)
(2.94808e-06 -4.27311e-07 0)
(1.10769e-06 -1.13705e-06 0)
(1.20857e-06 -1.09754e-06 0)
(1.30955e-06 -1.0587e-06 0)
(1.41011e-06 -1.02041e-06 0)
(1.51022e-06 -9.82938e-07 0)
(1.60963e-06 -9.46324e-07 0)
(1.70825e-06 -9.10595e-07 0)
(1.80594e-06 -8.75682e-07 0)
(1.90265e-06 -8.41475e-07 0)
(1.99835e-06 -8.0787e-07 0)
(2.093e-06 -7.74728e-07 0)
(2.18662e-06 -7.41833e-07 0)
(2.27923e-06 -7.09003e-07 0)
(2.37088e-06 -6.76088e-07 0)
(2.46164e-06 -6.42815e-07 0)
(2.55164e-06 -6.09053e-07 0)
(2.64097e-06 -5.74591e-07 0)
(2.72979e-06 -5.39227e-07 0)
(2.81826e-06 -5.02824e-07 0)
(2.90671e-06 -4.65359e-07 0)
(1.0832e-06 -1.18215e-06 0)
(1.18186e-06 -1.14322e-06 0)
(1.28071e-06 -1.10465e-06 0)
(1.37931e-06 -1.06641e-06 0)
(1.47763e-06 -1.02876e-06 0)
(1.57543e-06 -9.91772e-07 0)
(1.67263e-06 -9.55511e-07 0)
(1.7691e-06 -9.1994e-07 0)
(1.86477e-06 -8.84984e-07 0)
(1.9596e-06 -8.50573e-07 0)
(2.05355e-06 -8.16597e-07 0)
(2.14662e-06 -7.8287e-07 0)
(2.23883e-06 -7.49245e-07 0)
(2.33021e-06 -7.15602e-07 0)
(2.42081e-06 -6.81703e-07 0)
(2.51074e-06 -6.4745e-07 0)
(2.60008e-06 -6.12663e-07 0)
(2.68897e-06 -5.77196e-07 0)
(2.77761e-06 -5.40955e-07 0)
(2.86622e-06 -5.03926e-07 0)
(1.05956e-06 -1.22575e-06 0)
(1.15608e-06 -1.18737e-06 0)
(1.25291e-06 -1.14909e-06 0)
(1.34962e-06 -1.11095e-06 0)
(1.4462e-06 -1.07321e-06 0)
(1.54242e-06 -1.03595e-06 0)
(1.63822e-06 -9.99293e-07 0)
(1.73347e-06 -9.6321e-07 0)
(1.8281e-06 -9.27659e-07 0)
(1.92206e-06 -8.92597e-07 0)
(2.01531e-06 -8.57942e-07 0)
(2.10782e-06 -8.23534e-07 0)
(2.19961e-06 -7.89255e-07 0)
(2.29069e-06 -7.55017e-07 0)
(2.3811e-06 -7.2061e-07 0)
(2.47093e-06 -6.85969e-07 0)
(2.56023e-06 -6.50953e-07 0)
(2.64918e-06 -6.15463e-07 0)
(2.7379e-06 -5.79438e-07 0)
(2.82664e-06 -5.42876e-07 0)
(1.03636e-06 -1.26798e-06 0)
(1.13086e-06 -1.23012e-06 0)
(1.22575e-06 -1.19214e-06 0)
(1.32065e-06 -1.15414e-06 0)
(1.41556e-06 -1.11636e-06 0)
(1.51028e-06 -1.07894e-06 0)
(1.60474e-06 -1.042e-06 0)
(1.69882e-06 -1.00554e-06 0)
(1.79245e-06 -9.69532e-07 0)
(1.88556e-06 -9.33957e-07 0)
(1.97812e-06 -8.98758e-07 0)
(2.07007e-06 -8.638e-07 0)
(2.16143e-06 -8.28993e-07 0)
(2.2522e-06 -7.94276e-07 0)
(2.34241e-06 -7.59467e-07 0)
(2.43211e-06 -7.24528e-07 0)
(2.52136e-06 -6.89367e-07 0)
(2.61033e-06 -6.53911e-07 0)
(2.69908e-06 -6.18138e-07 0)
(2.78791e-06 -5.82086e-07 0)
(1.01318e-06 -1.30898e-06 0)
(1.10578e-06 -1.27159e-06 0)
(1.19883e-06 -1.23391e-06 0)
(1.29203e-06 -1.19607e-06 0)
(1.38538e-06 -1.15834e-06 0)
(1.47869e-06 -1.12084e-06 0)
(1.5719e-06 -1.08372e-06 0)
(1.66488e-06 -1.04699e-06 0)
(1.75757e-06 -1.01064e-06 0)
(1.84989e-06 -9.74672e-07 0)
(1.94179e-06 -9.39057e-07 0)
(2.03323e-06 -9.03675e-07 0)
(2.12419e-06 -8.68458e-07 0)
(2.21468e-06 -8.33367e-07 0)
(2.30468e-06 -7.98244e-07 0)
(2.39426e-06 -7.63085e-07 0)
(2.48346e-06 -7.27838e-07 0)
(2.57242e-06 -6.92459e-07 0)
(2.66119e-06 -6.56972e-07 0)
(2.75005e-06 -6.21433e-07 0)
(9.89652e-07 -1.34885e-06 0)
(1.08044e-06 -1.31194e-06 0)
(1.17176e-06 -1.27452e-06 0)
(1.26341e-06 -1.23688e-06 0)
(1.35533e-06 -1.19924e-06 0)
(1.44736e-06 -1.16174e-06 0)
(1.53942e-06 -1.12452e-06 0)
(1.63141e-06 -1.08762e-06 0)
(1.72324e-06 -1.05105e-06 0)
(1.81484e-06 -1.01481e-06 0)
(1.90616e-06 -9.78888e-07 0)
(1.99714e-06 -9.43191e-07 0)
(2.08776e-06 -9.07663e-07 0)
(2.17798e-06 -8.72279e-07 0)
(2.26781e-06 -8.36912e-07 0)
(2.35729e-06 -8.01597e-07 0)
(2.44646e-06 -7.66309e-07 0)
(2.53539e-06 -7.31034e-07 0)
(2.62417e-06 -6.95846e-07 0)
(2.71302e-06 -6.60813e-07 0)
(9.65367e-07 -1.38775e-06 0)
(1.05441e-06 -1.35119e-06 0)
(1.1441e-06 -1.3141e-06 0)
(1.2344e-06 -1.27672e-06 0)
(1.32503e-06 -1.23921e-06 0)
(1.41594e-06 -1.20177e-06 0)
(1.507e-06 -1.16454e-06 0)
(1.59812e-06 -1.12756e-06 0)
(1.68922e-06 -1.09084e-06 0)
(1.78022e-06 -1.05442e-06 0)
(1.87105e-06 -1.0183e-06 0)
(1.96164e-06 -9.82382e-07 0)
(2.05197e-06 -9.4662e-07 0)
(2.14199e-06 -9.11018e-07 0)
(2.2317e-06 -8.75478e-07 0)
(2.32114e-06 -8.40052e-07 0)
(2.41029e-06 -8.04737e-07 0)
(2.49921e-06 -7.69566e-07 0)
(2.58798e-06 -7.34666e-07 0)
(2.67682e-06 -7.00128e-07 0)
(9.39732e-07 -1.42565e-06 0)
(1.02731e-06 -1.38948e-06 0)
(1.11569e-06 -1.35279e-06 0)
(1.20469e-06 -1.31568e-06 0)
(1.29422e-06 -1.27837e-06 0)
(1.38416e-06 -1.24105e-06 0)
(1.47439e-06 -1.20386e-06 0)
(1.56481e-06 -1.16688e-06 0)
(1.65533e-06 -1.13012e-06 0)
(1.74586e-06 -1.09362e-06 0)
(1.83631e-06 -1.05737e-06 0)
(1.92662e-06 -1.02131e-06 0)
(2.01674e-06 -9.85382e-07 0)
(2.10665e-06 -9.49629e-07 0)
(2.19632e-06 -9.13971e-07 0)
(2.28575e-06 -8.78457e-07 0)
(2.3749e-06 -8.43107e-07 0)
(2.4639e-06 -8.08011e-07 0)
(2.55268e-06 -7.73377e-07 0)
(2.64146e-06 -7.39327e-07 0)
(9.12412e-07 -1.46292e-06 0)
(9.98638e-07 -1.42718e-06 0)
(1.08583e-06 -1.39082e-06 0)
(1.1738e-06 -1.354e-06 0)
(1.26245e-06 -1.31692e-06 0)
(1.35164e-06 -1.27976e-06 0)
(1.44127e-06 -1.24269e-06 0)
(1.5312e-06 -1.20577e-06 0)
(1.62132e-06 -1.16903e-06 0)
(1.71153e-06 -1.1325e-06 0)
(1.80175e-06 -1.09619e-06 0)
(1.8919e-06 -1.06003e-06 0)
(1.98193e-06 -1.02402e-06 0)
(2.07179e-06 -9.88176e-07 0)
(2.16148e-06 -9.52403e-07 0)
(2.25098e-06 -9.16789e-07 0)
(2.34026e-06 -8.81428e-07 0)
(2.42938e-06 -8.46368e-07 0)
(2.51827e-06 -8.11885e-07 0)
(2.60705e-06 -7.78255e-07 0)
(8.83085e-07 -1.49931e-06 0)
(9.68164e-07 -1.46406e-06 0)
(1.05438e-06 -1.42814e-06 0)
(1.14157e-06 -1.39168e-06 0)
(1.22959e-06 -1.3549e-06 0)
(1.31831e-06 -1.31799e-06 0)
(1.40758e-06 -1.28112e-06 0)
(1.49725e-06 -1.24434e-06 0)
(1.58718e-06 -1.20766e-06 0)
(1.67727e-06 -1.17115e-06 0)
(1.7674e-06 -1.13485e-06 0)
(1.85751e-06 -1.09867e-06 0)
(1.94754e-06 -1.06258e-06 0)
(2.03745e-06 -1.02667e-06 0)
(2.12722e-06 -9.90854e-07 0)
(2.21685e-06 -9.55173e-07 0)
(2.30636e-06 -9.19751e-07 0)
(2.39569e-06 -8.84656e-07 0)
(2.48488e-06 -8.50215e-07 0)
(2.57386e-06 -8.16863e-07 0)
(6.36836e-08 -1.27682e-06 0)
(1.91889e-07 -1.25803e-06 0)
(3.22572e-07 -1.22117e-06 0)
(4.57155e-07 -1.16776e-06 0)
(5.96765e-07 -1.09987e-06 0)
(7.42098e-07 -1.02003e-06 0)
(8.93398e-07 -9.31208e-07 0)
(1.05036e-06 -8.3642e-07 0)
(1.21255e-06 -7.38768e-07 0)
(1.37859e-06 -6.40672e-07 0)
(6.19166e-08 -1.29824e-06 0)
(1.8646e-07 -1.28106e-06 0)
(3.1306e-07 -1.24734e-06 0)
(4.42913e-07 -1.19836e-06 0)
(5.76973e-07 -1.1359e-06 0)
(7.15825e-07 -1.0621e-06 0)
(8.59721e-07 -9.79478e-07 0)
(1.00824e-06 -8.90678e-07 0)
(1.16092e-06 -7.98462e-07 0)
(1.31628e-06 -7.05191e-07 0)
(6.0349e-08 -1.32014e-06 0)
(1.81628e-07 -1.30442e-06 0)
(3.04589e-07 -1.27353e-06 0)
(4.30179e-07 -1.2286e-06 0)
(5.59207e-07 -1.17116e-06 0)
(6.92137e-07 -1.10309e-06 0)
(8.29253e-07 -1.02653e-06 0)
(9.7028e-07 -9.43753e-07 0)
(1.11497e-06 -8.57062e-07 0)
(1.26217e-06 -7.68289e-07 0)
(5.89693e-08 -1.34256e-06 0)
(1.77369e-07 -1.32809e-06 0)
(2.9718e-07 -1.29963e-06 0)
(4.1915e-07 -1.25818e-06 0)
(5.4396e-07 -1.20508e-06 0)
(6.71964e-07 -1.14198e-06 0)
(8.03389e-07 -1.07077e-06 0)
(9.37963e-07 -9.93479e-07 0)
(1.07547e-06 -9.12212e-07 0)
(1.21497e-06 -8.28576e-07 0)
(5.77041e-08 -1.36551e-06 0)
(1.73464e-07 -1.35215e-06 0)
(2.90398e-07 -1.32589e-06 0)
(4.09101e-07 -1.28757e-06 0)
(5.30145e-07 -1.2384e-06 0)
(6.53803e-07 -1.17986e-06 0)
(7.80285e-07 -1.11362e-06 0)
(9.09361e-07 -1.04141e-06 0)
(1.04085e-06 -9.65137e-07 0)
(1.17381e-06 -8.86282e-07 0)
(5.65229e-08 -1.38896e-06 0)
(1.69869e-07 -1.37657e-06 0)
(2.84184e-07 -1.3522e-06 0)
(3.99972e-07 -1.31663e-06 0)
(5.17699e-07 -1.27092e-06 0)
(6.37577e-07 -1.21642e-06 0)
(7.59746e-07 -1.15465e-06 0)
(8.84e-07 -1.08713e-06 0)
(1.01024e-06 -1.01559e-06 0)
(1.13749e-06 -9.41439e-07 0)
(5.54003e-08 -1.41288e-06 0)
(1.66466e-07 -1.40136e-06 0)
(2.78336e-07 -1.37868e-06 0)
(3.91446e-07 -1.34558e-06 0)
(5.06162e-07 -1.30299e-06 0)
(6.22676e-07 -1.25214e-06 0)
(7.41078e-07 -1.19442e-06 0)
(8.6115e-07 -1.13117e-06 0)
(9.82868e-07 -1.06395e-06 0)
(1.10521e-06 -9.94179e-07 0)
(5.43342e-08 -1.43724e-06 0)
(1.63213e-07 -1.42648e-06 0)
(2.72784e-07 -1.40531e-06 0)
(3.83403e-07 -1.3744e-06 0)
(4.95375e-07 -1.33459e-06 0)
(6.08851e-07 -1.28701e-06 0)
(7.23898e-07 -1.23294e-06 0)
(8.40286e-07 -1.1736e-06 0)
(9.58052e-07 -1.11037e-06 0)
(1.07617e-06 -1.04468e-06 0)
(5.32905e-08 -1.46199e-06 0)
(1.60048e-07 -1.45192e-06 0)
(2.67415e-07 -1.4321e-06 0)
(3.75671e-07 -1.40316e-06 0)
(4.85093e-07 -1.36585e-06 0)
(5.95798e-07 -1.32122e-06 0)
(7.07822e-07 -1.27044e-06 0)
(8.20945e-07 -1.21465e-06 0)
(9.35234e-07 -1.15508e-06 0)
(1.04969e-06 -1.09314e-06 0)
(5.22502e-08 -1.48708e-06 0)
(1.56933e-07 -1.47764e-06 0)
(2.62151e-07 -1.45903e-06 0)
(3.68142e-07 -1.43184e-06 0)
(4.75151e-07 -1.3968e-06 0)
(5.83283e-07 -1.35482e-06 0)
(6.92547e-07 -1.30702e-06 0)
(8.02736e-07 -1.25447e-06 0)
(9.13939e-07 -1.19825e-06 0)
(1.02521e-06 -1.13973e-06 0)
(5.12111e-08 -1.51247e-06 0)
(1.53831e-07 -1.50361e-06 0)
(2.56913e-07 -1.48608e-06 0)
(3.60702e-07 -1.46048e-06 0)
(4.6539e-07 -1.42748e-06 0)
(5.7109e-07 -1.38791e-06 0)
(6.77804e-07 -1.34281e-06 0)
(7.85329e-07 -1.2932e-06 0)
(8.93763e-07 -1.24004e-06 0)
(1.00222e-06 -1.18465e-06 0)
(5.0169e-08 -1.53811e-06 0)
(1.50697e-07 -1.52977e-06 0)
(2.51632e-07 -1.51323e-06 0)
(3.53244e-07 -1.48906e-06 0)
(4.55673e-07 -1.45791e-06 0)
(5.59039e-07 -1.42052e-06 0)
(6.63358e-07 -1.37788e-06 0)
(7.68428e-07 -1.33095e-06 0)
(8.74337e-07 -1.28058e-06 0)
(9.80276e-07 -1.22806e-06 0)
(4.91046e-08 -1.56394e-06 0)
(1.4748e-07 -1.55607e-06 0)
(2.46236e-07 -1.54043e-06 0)
(3.45658e-07 -1.51757e-06 0)
(4.45853e-07 -1.48809e-06 0)
(5.46948e-07 -1.45271e-06 0)
(6.48978e-07 -1.41231e-06 0)
(7.51742e-07 -1.36781e-06 0)
(8.55315e-07 -1.32001e-06 0)
(9.58994e-07 -1.27009e-06 0)
(4.79953e-08 -1.58988e-06 0)
(1.44134e-07 -1.58242e-06 0)
(2.40653e-07 -1.56762e-06 0)
(3.37835e-07 -1.54596e-06 0)
(4.35788e-07 -1.51802e-06 0)
(5.34641e-07 -1.48447e-06 0)
(6.34439e-07 -1.44613e-06 0)
(7.34996e-07 -1.40387e-06 0)
(8.36381e-07 -1.35842e-06 0)
(9.37989e-07 -1.31089e-06 0)
(4.6825e-08 -1.61587e-06 0)
(1.4062e-07 -1.60879e-06 0)
(2.3481e-07 -1.59476e-06 0)
(3.29675e-07 -1.57421e-06 0)
(4.25339e-07 -1.54769e-06 0)
(5.21933e-07 -1.51583e-06 0)
(6.19509e-07 -1.47939e-06 0)
(7.17914e-07 -1.43919e-06 0)
(8.17211e-07 -1.39591e-06 0)
(9.16862e-07 -1.35057e-06 0)
(4.55819e-08 -1.64177e-06 0)
(1.36899e-07 -1.63505e-06 0)
(2.28632e-07 -1.62175e-06 0)
(3.21064e-07 -1.60224e-06 0)
(4.14353e-07 -1.57704e-06 0)
(5.08626e-07 -1.54674e-06 0)
(6.03947e-07 -1.51208e-06 0)
(7.0022e-07 -1.47379e-06 0)
(7.97466e-07 -1.43252e-06 0)
(8.95247e-07 -1.38919e-06 0)
(4.42501e-08 -1.66756e-06 0)
(1.32913e-07 -1.66117e-06 0)
(2.22018e-07 -1.64855e-06 0)
(3.11863e-07 -1.63001e-06 0)
(4.02643e-07 -1.60606e-06 0)
(4.94491e-07 -1.57725e-06 0)
(5.87493e-07 -1.54424e-06 0)
(6.81589e-07 -1.50775e-06 0)
(7.76787e-07 -1.46836e-06 0)
(8.72736e-07 -1.42694e-06 0)
(4.28065e-08 -1.69298e-06 0)
(1.2859e-07 -1.68692e-06 0)
(2.14854e-07 -1.67495e-06 0)
(3.01916e-07 -1.65735e-06 0)
(3.90007e-07 -1.63459e-06 0)
(4.7928e-07 -1.60718e-06 0)
(5.69853e-07 -1.57576e-06 0)
(6.61672e-07 -1.54097e-06 0)
(7.5478e-07 -1.50337e-06 0)
(8.48893e-07 -1.46375e-06 0)
(4.12165e-08 -1.71812e-06 0)
(1.23831e-07 -1.71237e-06 0)
(2.0698e-07 -1.70103e-06 0)
(2.91005e-07 -1.68434e-06 0)
(3.76169e-07 -1.66274e-06 0)
(4.62664e-07 -1.63671e-06 0)
(5.50633e-07 -1.60681e-06 0)
(6.40057e-07 -1.57367e-06 0)
(7.30997e-07 -1.5378e-06 0)
(8.23234e-07 -1.49991e-06 0)
(3.94694e-08 -1.74234e-06 0)
(1.18609e-07 -1.73691e-06 0)
(1.98346e-07 -1.7262e-06 0)
(2.79048e-07 -1.71042e-06 0)
(3.61021e-07 -1.68997e-06 0)
(4.44506e-07 -1.66531e-06 0)
(5.29658e-07 -1.63695e-06 0)
(6.16541e-07 -1.60545e-06 0)
(7.05193e-07 -1.5713e-06 0)
(7.95513e-07 -1.53517e-06 0)
)


// ************************************************************************* //
