/*--------------------------------*- C++ -*----------------------------------*\
| =========                 |                                                 |
| \\      /  F ield         | foam-extend: Open Source CFD                    |
|  \\    /   O peration     | Version:     4.1                                |
|   \\  /    A nd           | Web:         http://www.foam-extend.org         |
|    \\/     M anipulation  |                                                 |
\*---------------------------------------------------------------------------*/
FoamFile
{
    version     2.0;
    format      ascii;
    class       vectorField;
    location    "3";
    object      solidsCellD_iteration0;
}
// * * * * * * * * * * * * * * * * * * * * * * * * * * * * * * * * * * * * * //


1000
(
(1.23649e-06 -4.69806e-07 0)
(1.17591e-06 -4.36215e-07 0)
(1.13855e-06 -4.14482e-07 0)
(1.11883e-06 -4.0378e-07 0)
(1.11136e-06 -3.99327e-07 0)
(1.11288e-06 -3.99725e-07 0)
(1.12107e-06 -4.03265e-07 0)
(1.13429e-06 -4.09118e-07 0)
(1.15101e-06 -4.16566e-07 0)
(1.17021e-06 -4.25128e-07 0)
(1.11896e-06 -5.13089e-07 0)
(1.05415e-06 -4.89262e-07 0)
(1.01395e-06 -4.73682e-07 0)
(9.91937e-07 -4.6715e-07 0)
(9.8247e-07 -4.65449e-07 0)
(9.81997e-07 -4.6779e-07 0)
(9.88044e-07 -4.72725e-07 0)
(9.98822e-07 -4.7961e-07 0)
(1.01283e-06 -4.87954e-07 0)
(1.02907e-06 -4.96975e-07 0)
(9.96532e-07 -5.54124e-07 0)
(9.30118e-07 -5.41219e-07 0)
(8.88742e-07 -5.32534e-07 0)
(8.65498e-07 -5.30633e-07 0)
(8.54708e-07 -5.31957e-07 0)
(8.52688e-07 -5.36393e-07 0)
(8.56969e-07 -5.42792e-07 0)
(8.65772e-07 -5.50734e-07 0)
(8.77692e-07 -5.59936e-07 0)
(8.91859e-07 -5.69568e-07 0)
(8.7015e-07 -5.92184e-07 0)
(8.04935e-07 -5.90751e-07 0)
(7.6418e-07 -5.8932e-07 0)
(7.40866e-07 -5.92265e-07 0)
(7.29505e-07 -5.96742e-07 0)
(7.26458e-07 -6.03344e-07 0)
(7.29372e-07 -6.11227e-07 0)
(7.36529e-07 -6.20237e-07 0)
(7.46685e-07 -6.30252e-07 0)
(7.58942e-07 -6.40525e-07 0)
(7.40649e-07 -6.26524e-07 0)
(6.79476e-07 -6.36473e-07 0)
(6.41163e-07 -6.42244e-07 0)
(6.18963e-07 -6.49982e-07 0)
(6.07791e-07 -6.57566e-07 0)
(6.04224e-07 -6.66291e-07 0)
(6.0611e-07 -6.75613e-07 0)
(6.11856e-07 -6.85659e-07 0)
(6.2038e-07 -6.96442e-07 0)
(6.30787e-07 -7.07373e-07 0)
(6.08755e-07 -6.56431e-07 0)
(5.54356e-07 -6.77036e-07 0)
(5.20235e-07 -6.89555e-07 0)
(5.00284e-07 -7.01774e-07 0)
(4.90024e-07 -7.12258e-07 0)
(4.86404e-07 -7.22957e-07 0)
(4.87551e-07 -7.33608e-07 0)
(4.9205e-07 -7.44616e-07 0)
(4.99005e-07 -7.56094e-07 0)
(5.07556e-07 -7.67662e-07 0)
(4.7509e-07 -6.81242e-07 0)
(4.29934e-07 -7.11185e-07 0)
(4.01583e-07 -7.2962e-07 0)
(3.849e-07 -7.45761e-07 0)
(3.76193e-07 -7.5878e-07 0)
(3.72925e-07 -7.71204e-07 0)
(3.73566e-07 -7.83012e-07 0)
(3.76944e-07 -7.94862e-07 0)
(3.82351e-07 -8.06941e-07 0)
(3.89028e-07 -8.19085e-07 0)
(3.40178e-07 -7.00382e-07 0)
(3.06341e-07 -7.37826e-07 0)
(2.85084e-07 -7.61016e-07 0)
(2.7252e-07 -7.80307e-07 0)
(2.65896e-07 -7.95361e-07 0)
(2.63311e-07 -8.09168e-07 0)
(2.63631e-07 -8.21903e-07 0)
(2.65977e-07 -8.34432e-07 0)
(2.69841e-07 -8.46991e-07 0)
(2.74626e-07 -8.59614e-07 0)
(2.0445e-07 -7.13397e-07 0)
(1.83496e-07 -7.56087e-07 0)
(1.70322e-07 -7.82604e-07 0)
(1.6251e-07 -8.04098e-07 0)
(1.58364e-07 -8.20575e-07 0)
(1.56704e-07 -8.3535e-07 0)
(1.56836e-07 -8.48734e-07 0)
(1.58214e-07 -8.61739e-07 0)
(1.60533e-07 -8.74635e-07 0)
(1.6341e-07 -8.87603e-07 0)
(6.82746e-08 -7.19952e-07 0)
(6.11724e-08 -7.65352e-07 0)
(5.67002e-08 -7.93587e-07 0)
(5.40402e-08 -8.16221e-07 0)
(5.26197e-08 -8.33435e-07 0)
(5.20402e-08 -8.48711e-07 0)
(5.20675e-08 -8.62431e-07 0)
(5.25168e-08 -8.75684e-07 0)
(5.32866e-08 -8.88755e-07 0)
(5.42452e-08 -9.01902e-07 0)
(1.91664e-06 -2.14744e-08 0)
(1.9342e-06 -1.54573e-08 0)
(1.94677e-06 -1.16186e-08 0)
(1.96104e-06 -9.33639e-09 0)
(1.97686e-06 -8.04042e-09 0)
(1.99574e-06 -7.40656e-09 0)
(2.01746e-06 -7.21801e-09 0)
(2.04213e-06 -7.32149e-09 0)
(2.06957e-06 -7.6345e-09 0)
(2.09945e-06 -8.01928e-09 0)
(1.90274e-06 -6.44091e-08 0)
(1.91773e-06 -4.67096e-08 0)
(1.92868e-06 -3.54419e-08 0)
(1.94188e-06 -2.87611e-08 0)
(1.95701e-06 -2.49827e-08 0)
(1.97541e-06 -2.31516e-08 0)
(1.99679e-06 -2.26288e-08 0)
(2.02117e-06 -2.29648e-08 0)
(2.04837e-06 -2.39131e-08 0)
(2.07797e-06 -2.50748e-08 0)
(1.87502e-06 -1.07713e-07 0)
(1.8851e-06 -7.92837e-08 0)
(1.89294e-06 -6.11979e-08 0)
(1.9041e-06 -5.05029e-08 0)
(1.9179e-06 -4.44773e-08 0)
(1.93537e-06 -4.15908e-08 0)
(1.9561e-06 -4.081e-08 0)
(1.97997e-06 -4.14174e-08 0)
(2.00677e-06 -4.30052e-08 0)
(2.03591e-06 -4.49526e-08 0)
(1.83391e-06 -1.51551e-07 0)
(1.837e-06 -1.13928e-07 0)
(1.84041e-06 -8.99866e-08 0)
(1.84864e-06 -7.58853e-08 0)
(1.86053e-06 -6.79816e-08 0)
(1.87668e-06 -6.42624e-08 0)
(1.89647e-06 -6.3342e-08 0)
(1.91959e-06 -6.42813e-08 0)
(1.9458e-06 -6.6514e-08 0)
(1.97428e-06 -6.92596e-08 0)
(1.77999e-06 -1.96042e-07 0)
(1.77441e-06 -1.51262e-07 0)
(1.77234e-06 -1.22748e-07 0)
(1.77695e-06 -1.06049e-07 0)
(1.78647e-06 -9.67603e-08 0)
(1.80097e-06 -9.25057e-08 0)
(1.81961e-06 -9.1607e-08 0)
(1.84185e-06 -9.29601e-08 0)
(1.86736e-06 -9.58501e-08 0)
(1.89509e-06 -9.94085e-08 0)
(1.71399e-06 -2.412e-07 0)
(1.69859e-06 -1.91679e-07 0)
(1.6903e-06 -1.60115e-07 0)
(1.69077e-06 -1.41779e-07 0)
(1.69758e-06 -1.31689e-07 0)
(1.71019e-06 -1.27252e-07 0)
(1.72751e-06 -1.26567e-07 0)
(1.74874e-06 -1.28431e-07 0)
(1.77349e-06 -1.31995e-07 0)
(1.80046e-06 -1.36379e-07 0)
(1.63679e-06 -2.86938e-07 0)
(1.61101e-06 -2.35338e-07 0)
(1.59611e-06 -2.02406e-07 0)
(1.59218e-06 -1.83495e-07 0)
(1.59606e-06 -1.73253e-07 0)
(1.60662e-06 -1.69027e-07 0)
(1.62249e-06 -1.68774e-07 0)
(1.64266e-06 -1.7126e-07 0)
(1.66662e-06 -1.75534e-07 0)
(1.6929e-06 -1.80755e-07 0)
(1.54937e-06 -3.33049e-07 0)
(1.51326e-06 -2.8213e-07 0)
(1.49178e-06 -2.49574e-07 0)
(1.48338e-06 -2.3119e-07 0)
(1.48424e-06 -2.21467e-07 0)
(1.49263e-06 -2.17855e-07 0)
(1.50694e-06 -2.18258e-07 0)
(1.52598e-06 -2.21485e-07 0)
(1.54915e-06 -2.26504e-07 0)
(1.57494e-06 -2.32598e-07 0)
(1.45278e-06 -3.79206e-07 0)
(1.40704e-06 -3.31674e-07 0)
(1.37937e-06 -3.01208e-07 0)
(1.3667e-06 -2.84431e-07 0)
(1.36458e-06 -2.75889e-07 0)
(1.37071e-06 -2.73285e-07 0)
(1.38328e-06 -2.74573e-07 0)
(1.40102e-06 -2.78644e-07 0)
(1.4233e-06 -2.84503e-07 0)
(1.44893e-06 -2.91486e-07 0)
(1.34813e-06 -4.24972e-07 0)
(1.29404e-06 -3.8333e-07 0)
(1.26095e-06 -3.56543e-07 0)
(1.24442e-06 -3.42373e-07 0)
(1.23946e-06 -3.35616e-07 0)
(1.24326e-06 -3.34375e-07 0)
(1.25377e-06 -3.36723e-07 0)
(1.26966e-06 -3.41725e-07 0)
(1.29034e-06 -3.48405e-07 0)
(1.31569e-06 -3.56502e-07 0)
(2.13175e-06 -8.41287e-09 0)
(2.1669e-06 -8.4582e-09 0)
(2.20432e-06 -8.53306e-09 0)
(2.24393e-06 -8.57713e-09 0)
(2.28547e-06 -8.58035e-09 0)
(2.3288e-06 -8.53947e-09 0)
(2.37371e-06 -8.44382e-09 0)
(2.42004e-06 -8.29207e-09 0)
(2.46762e-06 -8.07807e-09 0)
(2.5163e-06 -7.7988e-09 0)
(2.56593e-06 -7.44888e-09 0)
(2.61634e-06 -7.02315e-09 0)
(2.66737e-06 -6.51459e-09 0)
(2.71887e-06 -5.91512e-09 0)
(2.77071e-06 -5.21433e-09 0)
(2.82267e-06 -4.40019e-09 0)
(2.87466e-06 -3.45671e-09 0)
(2.92636e-06 -2.36708e-09 0)
(2.97777e-06 -1.10366e-09 0)
(3.02814e-06 3.44535e-10 0)
(2.11117e-06 -2.61629e-08 0)
(2.14796e-06 -2.61727e-08 0)
(2.18688e-06 -2.62815e-08 0)
(2.22783e-06 -2.63205e-08 0)
(2.2706e-06 -2.62503e-08 0)
(2.31505e-06 -2.60628e-08 0)
(2.36099e-06 -2.57219e-08 0)
(2.40825e-06 -2.52229e-08 0)
(2.45668e-06 -2.45454e-08 0)
(2.5061e-06 -2.36792e-08 0)
(2.5564e-06 -2.26069e-08 0)
(2.60742e-06 -2.13123e-08 0)
(2.65906e-06 -1.97735e-08 0)
(2.71114e-06 -1.79657e-08 0)
(2.76354e-06 -1.58571e-08 0)
(2.81605e-06 -1.34113e-08 0)
(2.86856e-06 -1.05798e-08 0)
(2.92074e-06 -7.31211e-09 0)
(2.97265e-06 -3.52508e-09 0)
(3.02352e-06 8.14381e-10 0)
(2.07093e-06 -4.6453e-08 0)
(2.11097e-06 -4.60646e-08 0)
(2.15284e-06 -4.58799e-08 0)
(2.19637e-06 -4.56634e-08 0)
(2.24148e-06 -4.53092e-08 0)
(2.28801e-06 -4.48082e-08 0)
(2.33585e-06 -4.40856e-08 0)
(2.38487e-06 -4.31303e-08 0)
(2.43492e-06 -4.19016e-08 0)
(2.48587e-06 -4.0379e-08 0)
(2.53756e-06 -3.85301e-08 0)
(2.58989e-06 -3.63248e-08 0)
(2.64273e-06 -3.37246e-08 0)
(2.69596e-06 -3.06863e-08 0)
(2.74944e-06 -2.71553e-08 0)
(2.80301e-06 -2.30696e-08 0)
(2.85655e-06 -1.83473e-08 0)
(2.90972e-06 -1.29031e-08 0)
(2.9626e-06 -6.5977e-09 0)
(3.01442e-06 6.25358e-10 0)
(2.01189e-06 -7.07347e-08 0)
(2.05664e-06 -6.93838e-08 0)
(2.10284e-06 -6.83852e-08 0)
(2.15019e-06 -6.75156e-08 0)
(2.19878e-06 -6.65421e-08 0)
(2.24842e-06 -6.54611e-08 0)
(2.29909e-06 -6.41398e-08 0)
(2.35067e-06 -6.25545e-08 0)
(2.40307e-06 -6.06365e-08 0)
(2.45618e-06 -5.83486e-08 0)
(2.50991e-06 -5.5639e-08 0)
(2.56415e-06 -5.24597e-08 0)
(2.61879e-06 -4.87523e-08 0)
(2.6737e-06 -4.44524e-08 0)
(2.72878e-06 -3.94804e-08 0)
(2.78388e-06 -3.37465e-08 0)
(2.83889e-06 -2.71337e-08 0)
(2.89351e-06 -1.95203e-08 0)
(2.94782e-06 -1.07091e-08 0)
(3.00106e-06 -6.1636e-10 0)
(1.93594e-06 -1.00302e-07 0)
(1.98661e-06 -9.72613e-08 0)
(2.0383e-06 -9.47743e-08 0)
(2.09051e-06 -9.27305e-08 0)
(2.14356e-06 -9.07005e-08 0)
(2.19722e-06 -8.86876e-08 0)
(2.25158e-06 -8.64819e-08 0)
(2.3065e-06 -8.40356e-08 0)
(2.36195e-06 -8.12432e-08 0)
(2.41786e-06 -7.80426e-08 0)
(2.47419e-06 -7.43567e-08 0)
(2.53085e-06 -7.01146e-08 0)
(2.58777e-06 -6.52342e-08 0)
(2.64484e-06 -5.96265e-08 0)
(2.70199e-06 -5.31844e-08 0)
(2.75905e-06 -4.57883e-08 0)
(2.81597e-06 -3.72836e-08 0)
(2.87244e-06 -2.75106e-08 0)
(2.92859e-06 -1.6213e-08 0)
(2.98367e-06 -3.27648e-09 0)
(1.84507e-06 -1.36068e-07 0)
(1.90267e-06 -1.30499e-07 0)
(1.9609e-06 -1.25736e-07 0)
(2.01891e-06 -1.2189e-07 0)
(2.07729e-06 -1.18282e-07 0)
(2.13575e-06 -1.14907e-07 0)
(2.1945e-06 -1.11472e-07 0)
(2.25343e-06 -1.07884e-07 0)
(2.31258e-06 -1.03996e-07 0)
(2.37188e-06 -9.97078e-08 0)
(2.43133e-06 -9.4912e-08 0)
(2.4909e-06 -8.9507e-08 0)
(2.55053e-06 -8.33825e-08 0)
(2.61015e-06 -7.64206e-08 0)
(2.66974e-06 -6.84831e-08 0)
(2.72913e-06 -5.94175e-08 0)
(2.7883e-06 -4.90298e-08 0)
(2.84698e-06 -3.71201e-08 0)
(2.90531e-06 -2.33715e-08 0)
(2.96261e-06 -7.63495e-09 0)
(1.74161e-06 -1.78621e-07 0)
(1.80691e-06 -1.69664e-07 0)
(1.87251e-06 -1.61837e-07 0)
(1.93713e-06 -1.55519e-07 0)
(2.0016e-06 -1.49791e-07 0)
(2.06556e-06 -1.44594e-07 0)
(2.1293e-06 -1.39556e-07 0)
(2.19276e-06 -1.34517e-07 0)
(2.25605e-06 -1.29282e-07 0)
(2.31918e-06 -1.23703e-07 0)
(2.38218e-06 -1.17634e-07 0)
(2.44504e-06 -1.1094e-07 0)
(2.50775e-06 -1.03476e-07 0)
(2.57029e-06 -9.5093e-08 0)
(2.63263e-06 -8.5618e-08 0)
(2.69466e-06 -7.4864e-08 0)
(2.75639e-06 -6.25957e-08 0)
(2.81758e-06 -4.85719e-08 0)
(2.87839e-06 -3.24163e-08 0)
(2.93821e-06 -1.39431e-08 0)
(1.628e-06 -2.28059e-07 0)
(1.70158e-06 -2.14794e-07 0)
(1.77519e-06 -2.03127e-07 0)
(1.84707e-06 -1.93595e-07 0)
(1.9182e-06 -1.8517e-07 0)
(1.98821e-06 -1.77643e-07 0)
(2.05744e-06 -1.70601e-07 0)
(2.12591e-06 -1.63784e-07 0)
(2.19377e-06 -1.56947e-07 0)
(2.26108e-06 -1.4988e-07 0)
(2.32794e-06 -1.42392e-07 0)
(2.39438e-06 -1.34302e-07 0)
(2.46043e-06 -1.25429e-07 0)
(2.52612e-06 -1.15583e-07 0)
(2.59144e-06 -1.04555e-07 0)
(2.65634e-06 -9.21215e-08 0)
(2.72084e-06 -7.80036e-08 0)
(2.78476e-06 -6.19184e-08 0)
(2.84828e-06 -4.34296e-08 0)
(2.91089e-06 -2.23124e-08 0)
(1.50681e-06 -2.84295e-07 0)
(1.58934e-06 -2.6593e-07 0)
(1.67142e-06 -2.49926e-07 0)
(1.75104e-06 -2.36555e-07 0)
(1.8291e-06 -2.24943e-07 0)
(1.90543e-06 -2.14637e-07 0)
(1.98039e-06 -2.05203e-07 0)
(2.0541e-06 -1.96272e-07 0)
(2.12676e-06 -1.87543e-07 0)
(2.19851e-06 -1.78743e-07 0)
(2.26945e-06 -1.69632e-07 0)
(2.33969e-06 -1.59982e-07 0)
(2.40929e-06 -1.49569e-07 0)
(2.47832e-06 -1.38166e-07 0)
(2.54679e-06 -1.25524e-07 0)
(2.61472e-06 -1.11379e-07 0)
(2.68212e-06 -9.54099e-08 0)
(2.74894e-06 -7.72935e-08 0)
(2.81533e-06 -5.65387e-08 0)
(2.88092e-06 -3.28861e-08 0)
(1.38009e-06 -3.46253e-07 0)
(1.47269e-06 -3.21788e-07 0)
(1.56335e-06 -3.00953e-07 0)
(1.65098e-06 -2.83123e-07 0)
(1.73614e-06 -2.67781e-07 0)
(1.819e-06 -2.54263e-07 0)
(1.89987e-06 -2.42084e-07 0)
(1.979e-06 -2.30782e-07 0)
(2.05661e-06 -2.19972e-07 0)
(2.13291e-06 -2.09311e-07 0)
(2.20807e-06 -1.98492e-07 0)
(2.28222e-06 -1.87235e-07 0)
(2.35547e-06 -1.75265e-07 0)
(2.42792e-06 -1.62312e-07 0)
(2.49963e-06 -1.48086e-07 0)
(2.57065e-06 -1.32283e-07 0)
(2.64102e-06 -1.14542e-07 0)
(2.71077e-06 -9.44994e-08 0)
(2.78008e-06 -7.16108e-08 0)
(2.84872e-06 -4.55763e-08 0)
(1.28368e-06 -4.04498e-07 0)
(1.38534e-06 -3.75427e-07 0)
(1.48177e-06 -3.51182e-07 0)
(1.5744e-06 -3.29986e-07 0)
(1.66401e-06 -3.1149e-07 0)
(1.75099e-06 -2.95054e-07 0)
(1.83571e-06 -2.80186e-07 0)
(1.91841e-06 -2.6642e-07 0)
(1.99933e-06 -2.53346e-07 0)
(2.07869e-06 -2.40597e-07 0)
(2.15667e-06 -2.27835e-07 0)
(2.23342e-06 -2.14748e-07 0)
(2.30909e-06 -2.01032e-07 0)
(2.38378e-06 -1.8639e-07 0)
(2.45757e-06 -1.70506e-07 0)
(2.53057e-06 -1.53055e-07 0)
(2.60283e-06 -1.33656e-07 0)
(2.67443e-06 -1.1193e-07 0)
(2.7456e-06 -8.73223e-08 0)
(2.81618e-06 -5.95275e-08 0)
(1.23004e-06 -4.5118e-07 0)
(1.3321e-06 -4.21042e-07 0)
(1.42988e-06 -3.94958e-07 0)
(1.52418e-06 -3.71765e-07 0)
(1.61547e-06 -3.51133e-07 0)
(1.70413e-06 -3.32537e-07 0)
(1.79048e-06 -3.15529e-07 0)
(1.87474e-06 -2.99681e-07 0)
(1.95713e-06 -2.84602e-07 0)
(2.03786e-06 -2.69932e-07 0)
(2.11709e-06 -2.55336e-07 0)
(2.19498e-06 -2.405e-07 0)
(2.27169e-06 -2.25117e-07 0)
(2.34731e-06 -2.08882e-07 0)
(2.42194e-06 -1.9148e-07 0)
(2.49573e-06 -1.72584e-07 0)
(2.56872e-06 -1.51823e-07 0)
(2.64104e-06 -1.28826e-07 0)
(2.71292e-06 -1.03067e-07 0)
(2.78427e-06 -7.4265e-08 0)
(1.18534e-06 -4.96349e-07 0)
(1.28593e-06 -4.65409e-07 0)
(1.38358e-06 -4.38032e-07 0)
(1.47828e-06 -4.13253e-07 0)
(1.57032e-06 -3.90824e-07 0)
(1.65989e-06 -3.70329e-07 0)
(1.74723e-06 -3.51374e-07 0)
(1.83251e-06 -3.33582e-07 0)
(1.91591e-06 -3.16592e-07 0)
(1.99763e-06 -3.00066e-07 0)
(2.07781e-06 -2.83681e-07 0)
(2.15659e-06 -2.67128e-07 0)
(2.23414e-06 -2.50104e-07 0)
(2.31052e-06 -2.32308e-07 0)
(2.38587e-06 -2.13428e-07 0)
(2.46033e-06 -1.93146e-07 0)
(2.53398e-06 -1.71103e-07 0)
(2.60693e-06 -1.46948e-07 0)
(2.67946e-06 -1.20192e-07 0)
(2.7515e-06 -9.05818e-08 0)
(1.14638e-06 -5.39868e-07 0)
(1.24518e-06 -5.08483e-07 0)
(1.34195e-06 -4.80108e-07 0)
(1.4363e-06 -4.54009e-07 0)
(1.52838e-06 -4.30029e-07 0)
(1.61825e-06 -4.07842e-07 0)
(1.70606e-06 -3.8712e-07 0)
(1.7919e-06 -3.67535e-07 0)
(1.87594e-06 -3.48761e-07 0)
(1.95831e-06 -3.30484e-07 0)
(2.03915e-06 -3.12399e-07 0)
(2.11858e-06 -2.9421e-07 0)
(2.19677e-06 -2.75623e-07 0)
(2.27375e-06 -2.56346e-07 0)
(2.34969e-06 -2.36077e-07 0)
(2.4247e-06 -2.14511e-07 0)
(2.49891e-06 -1.91309e-07 0)
(2.57244e-06 -1.66144e-07 0)
(2.64553e-06 -1.38568e-07 0)
(2.7182e-06 -1.08359e-07 0)
(1.1122e-06 -5.8158e-07 0)
(1.20903e-06 -5.5e-07 0)
(1.30446e-06 -5.20934e-07 0)
(1.39793e-06 -4.93815e-07 0)
(1.48954e-06 -4.68562e-07 0)
(1.57921e-06 -4.44928e-07 0)
(1.66704e-06 -4.22649e-07 0)
(1.75305e-06 -4.01446e-07 0)
(1.83736e-06 -3.81035e-07 0)
(1.92009e-06 -3.61131e-07 0)
(2.00133e-06 -3.41453e-07 0)
(2.08119e-06 -3.21721e-07 0)
(2.15982e-06 -3.01657e-07 0)
(2.23725e-06 -2.80983e-07 0)
(2.31364e-06 -2.59413e-07 0)
(2.38911e-06 -2.36659e-07 0)
(2.4638e-06 -2.12407e-07 0)
(2.53782e-06 -1.86357e-07 0)
(2.61141e-06 -1.58111e-07 0)
(2.68464e-06 -1.27477e-07 0)
(1.08187e-06 -6.21453e-07 0)
(1.17665e-06 -5.8989e-07 0)
(1.2705e-06 -5.60367e-07 0)
(1.36277e-06 -5.32466e-07 0)
(1.45352e-06 -5.06173e-07 0)
(1.54263e-06 -4.8131e-07 0)
(1.63012e-06 -4.57673e-07 0)
(1.71597e-06 -4.35032e-07 0)
(1.80026e-06 -4.13143e-07 0)
(1.88308e-06 -3.91753e-07 0)
(1.96448e-06 -3.70607e-07 0)
(2.04458e-06 -3.49448e-07 0)
(2.12347e-06 -3.28016e-07 0)
(2.2012e-06 -3.06051e-07 0)
(2.27794e-06 -2.83287e-07 0)
(2.35376e-06 -2.59456e-07 0)
(2.42885e-06 -2.34273e-07 0)
(2.50328e-06 -2.07468e-07 0)
(2.57731e-06 -1.78694e-07 0)
(2.65103e-06 -1.47791e-07 0)
(1.05471e-06 -6.59524e-07 0)
(1.14741e-06 -6.2813e-07 0)
(1.23954e-06 -5.98343e-07 0)
(1.33039e-06 -5.69871e-07 0)
(1.42005e-06 -5.42754e-07 0)
(1.50832e-06 -5.1687e-07 0)
(1.5952e-06 -4.9207e-07 0)
(1.68061e-06 -4.68171e-07 0)
(1.76464e-06 -4.44967e-07 0)
(1.84732e-06 -4.22241e-07 0)
(1.92869e-06 -3.99763e-07 0)
(2.00883e-06 -3.77301e-07 0)
(2.08785e-06 -3.54618e-07 0)
(2.16575e-06 -3.31473e-07 0)
(2.24272e-06 -3.07624e-07 0)
(2.31881e-06 -2.82826e-07 0)
(2.39422e-06 -2.56825e-07 0)
(2.46901e-06 -2.29383e-07 0)
(2.54341e-06 -2.00205e-07 0)
(2.61755e-06 -1.69161e-07 0)
(1.03014e-06 -6.95861e-07 0)
(1.12077e-06 -6.64745e-07 0)
(1.2111e-06 -6.34842e-07 0)
(1.30041e-06 -6.0597e-07 0)
(1.3888e-06 -5.7821e-07 0)
(1.47605e-06 -5.51489e-07 0)
(1.56211e-06 -5.25706e-07 0)
(1.64688e-06 -5.00721e-07 0)
(1.73044e-06 -4.76366e-07 0)
(1.8128e-06 -4.52454e-07 0)
(1.89396e-06 -4.28785e-07 0)
(1.97401e-06 -4.05153e-07 0)
(2.05302e-06 -3.81343e-07 0)
(2.13099e-06 -3.57138e-07 0)
(2.2081e-06 -3.32318e-07 0)
(2.28439e-06 -3.06667e-07 0)
(2.36003e-06 -2.79959e-07 0)
(2.4351e-06 -2.51991e-07 0)
(2.50982e-06 -2.22517e-07 0)
(2.58432e-06 -1.91439e-07 0)
(1.00764e-06 -7.30571e-07 0)
(1.09625e-06 -6.99799e-07 0)
(1.18475e-06 -6.69892e-07 0)
(1.27245e-06 -6.40759e-07 0)
(1.35946e-06 -6.1251e-07 0)
(1.44555e-06 -5.85115e-07 0)
(1.53065e-06 -5.58516e-07 0)
(1.61464e-06 -5.32607e-07 0)
(1.69757e-06 -5.07257e-07 0)
(1.77947e-06 -4.82308e-07 0)
(1.86029e-06 -4.57591e-07 0)
(1.94012e-06 -4.32922e-07 0)
(2.01901e-06 -4.08112e-07 0)
(2.09697e-06 -3.82967e-07 0)
(2.17414e-06 -3.57293e-07 0)
(2.25055e-06 -3.30897e-07 0)
(2.32636e-06 -3.03587e-07 0)
(2.40166e-06 -2.75192e-07 0)
(2.47663e-06 -2.45515e-07 0)
(2.55144e-06 -2.14483e-07 0)
(9.86739e-07 -7.63766e-07 0)
(1.07339e-06 -7.33373e-07 0)
(1.16008e-06 -7.03541e-07 0)
(1.24616e-06 -6.74254e-07 0)
(1.33174e-06 -6.45645e-07 0)
(1.41658e-06 -6.17718e-07 0)
(1.50061e-06 -5.9045e-07 0)
(1.58371e-06 -5.63768e-07 0)
(1.66591e-06 -5.37571e-07 0)
(1.74723e-06 -5.11731e-07 0)
(1.82762e-06 -4.86104e-07 0)
(1.90715e-06 -4.60532e-07 0)
(1.98584e-06 -4.34849e-07 0)
(2.0637e-06 -4.08884e-07 0)
(2.14086e-06 -3.82468e-07 0)
(2.21731e-06 -3.55434e-07 0)
(2.29325e-06 -3.27621e-07 0)
(2.36872e-06 -2.98888e-07 0)
(2.4439e-06 -2.69083e-07 0)
(2.51895e-06 -2.38159e-07 0)
(9.67035e-07 -7.95565e-07 0)
(1.05181e-06 -7.65559e-07 0)
(1.13673e-06 -7.35857e-07 0)
(1.2212e-06 -7.06499e-07 0)
(1.30532e-06 -6.77636e-07 0)
(1.38887e-06 -6.49299e-07 0)
(1.47178e-06 -6.21494e-07 0)
(1.55392e-06 -5.94176e-07 0)
(1.63533e-06 -5.67271e-07 0)
(1.71599e-06 -5.40678e-07 0)
(1.79588e-06 -5.14276e-07 0)
(1.87503e-06 -4.87931e-07 0)
(1.95346e-06 -4.61497e-07 0)
(2.03115e-06 -4.3483e-07 0)
(2.10823e-06 -4.07781e-07 0)
(2.18469e-06 -3.80209e-07 0)
(2.2607e-06 -3.51982e-07 0)
(2.3363e-06 -3.22988e-07 0)
(2.41165e-06 -2.93115e-07 0)
(2.4869e-06 -2.62341e-07 0)
(9.48174e-07 -8.26077e-07 0)
(1.03115e-06 -7.96454e-07 0)
(1.11435e-06 -7.66915e-07 0)
(1.19724e-06 -7.37549e-07 0)
(1.2799e-06 -7.08518e-07 0)
(1.36216e-06 -6.79875e-07 0)
(1.44392e-06 -6.5165e-07 0)
(1.52507e-06 -6.23821e-07 0)
(1.60565e-06 -5.96338e-07 0)
(1.68563e-06 -5.69121e-07 0)
(1.76497e-06 -5.42072e-07 0)
(1.84369e-06 -5.15077e-07 0)
(1.9218e-06 -4.88013e-07 0)
(1.99927e-06 -4.60754e-07 0)
(2.07624e-06 -4.33175e-07 0)
(2.15267e-06 -4.0516e-07 0)
(2.22872e-06 -3.76599e-07 0)
(2.30441e-06 -3.47409e-07 0)
(2.37988e-06 -3.17516e-07 0)
(2.45528e-06 -2.86915e-07 0)
(9.29825e-07 -8.55411e-07 0)
(1.01108e-06 -8.26152e-07 0)
(1.09262e-06 -7.96796e-07 0)
(1.17397e-06 -7.6747e-07 0)
(1.2552e-06 -7.38343e-07 0)
(1.33617e-06 -7.09484e-07 0)
(1.41679e-06 -6.80942e-07 0)
(1.49697e-06 -6.52715e-07 0)
(1.57672e-06 -6.24771e-07 0)
(1.65601e-06 -5.97051e-07 0)
(1.73476e-06 -5.69475e-07 0)
(1.81302e-06 -5.41947e-07 0)
(1.89077e-06 -5.14365e-07 0)
(1.968e-06 -4.8662e-07 0)
(2.04484e-06 -4.58608e-07 0)
(2.12122e-06 -4.30233e-07 0)
(2.19727e-06 -4.01411e-07 0)
(2.27301e-06 -3.7208e-07 0)
(2.34857e-06 -3.42199e-07 0)
(2.42407e-06 -3.11779e-07 0)
(9.11677e-07 -8.83658e-07 0)
(9.91284e-07 -8.54747e-07 0)
(1.07122e-06 -8.25581e-07 0)
(1.15108e-06 -7.9633e-07 0)
(1.23093e-06 -7.67167e-07 0)
(1.31066e-06 -7.3817e-07 0)
(1.39019e-06 -7.09404e-07 0)
(1.46942e-06 -6.8088e-07 0)
(1.54836e-06 -6.52584e-07 0)
(1.62695e-06 -6.24472e-07 0)
(1.70511e-06 -5.9648e-07 0)
(1.7829e-06 -5.6853e-07 0)
(1.86029e-06 -5.40534e-07 0)
(1.93728e-06 -5.12401e-07 0)
(2.01397e-06 -4.84045e-07 0)
(2.09026e-06 -4.55387e-07 0)
(2.16629e-06 -4.26365e-07 0)
(2.24205e-06 -3.96938e-07 0)
(2.31767e-06 -3.6709e-07 0)
(2.39326e-06 -3.36848e-07 0)
(8.93415e-07 -9.10915e-07 0)
(9.71451e-07 -8.82317e-07 0)
(1.04986e-06 -8.53354e-07 0)
(1.12829e-06 -8.24213e-07 0)
(1.20683e-06 -7.95065e-07 0)
(1.2854e-06 -7.65999e-07 0)
(1.3639e-06 -7.37089e-07 0)
(1.44224e-06 -7.0836e-07 0)
(1.52039e-06 -6.79809e-07 0)
(1.59829e-06 -6.51406e-07 0)
(1.67588e-06 -6.23101e-07 0)
(1.75322e-06 -5.94829e-07 0)
(1.83029e-06 -5.66515e-07 0)
(1.90704e-06 -5.38083e-07 0)
(1.98354e-06 -5.09462e-07 0)
(2.05973e-06 -4.8059e-07 0)
(2.13571e-06 -4.5142e-07 0)
(2.21149e-06 -4.2193e-07 0)
(2.28716e-06 -3.92127e-07 0)
(2.3628e-06 -3.62048e-07 0)
(8.74747e-07 -9.37242e-07 0)
(9.51279e-07 -9.08978e-07 0)
(1.02821e-06 -8.80196e-07 0)
(1.10532e-06 -8.51185e-07 0)
(1.18266e-06 -8.22103e-07 0)
(1.26017e-06 -7.93029e-07 0)
(1.33772e-06 -7.64051e-07 0)
(1.41521e-06 -7.35199e-07 0)
(1.49262e-06 -7.06483e-07 0)
(1.56989e-06 -6.77882e-07 0)
(1.64697e-06 -6.49357e-07 0)
(1.72391e-06 -6.20853e-07 0)
(1.80066e-06 -5.92308e-07 0)
(1.87715e-06 -5.63659e-07 0)
(1.95347e-06 -5.34844e-07 0)
(2.02955e-06 -5.05815e-07 0)
(2.1055e-06 -4.76542e-07 0)
(2.1813e-06 -4.47015e-07 0)
(2.25699e-06 -4.17258e-07 0)
(2.33262e-06 -3.87319e-07 0)
(8.55362e-07 -9.62761e-07 0)
(9.30413e-07 -9.34726e-07 0)
(1.00595e-06 -9.06194e-07 0)
(1.08191e-06 -8.77373e-07 0)
(1.15818e-06 -8.48392e-07 0)
(1.23474e-06 -8.19366e-07 0)
(1.31143e-06 -7.90381e-07 0)
(1.38814e-06 -7.61479e-07 0)
(1.46489e-06 -7.32674e-07 0)
(1.54162e-06 -7.03954e-07 0)
(1.61827e-06 -6.75289e-07 0)
(1.69485e-06 -6.46634e-07 0)
(1.77127e-06 -6.17933e-07 0)
(1.84751e-06 -5.89134e-07 0)
(1.92369e-06 -5.60186e-07 0)
(1.9997e-06 -5.31051e-07 0)
(2.07561e-06 -5.01708e-07 0)
(2.15132e-06 -4.7216e-07 0)
(2.22704e-06 -4.42446e-07 0)
(2.30277e-06 -4.12618e-07 0)
(8.34768e-07 -9.87436e-07 0)
(9.0856e-07 -9.59671e-07 0)
(9.82969e-07 -9.31447e-07 0)
(1.05785e-06 -9.02828e-07 0)
(1.13318e-06 -8.73993e-07 0)
(1.20889e-06 -8.45071e-07 0)
(1.28481e-06 -8.16141e-07 0)
(1.36088e-06 -7.87255e-07 0)
(1.4371e-06 -7.58432e-07 0)
(1.51341e-06 -7.29665e-07 0)
(1.58966e-06 -7.00931e-07 0)
(1.66588e-06 -6.72192e-07 0)
(1.74204e-06 -6.43401e-07 0)
(1.81814e-06 -6.14511e-07 0)
(1.89417e-06 -5.85481e-07 0)
(1.97003e-06 -5.5628e-07 0)
(2.04586e-06 -5.26896e-07 0)
(2.12161e-06 -4.97339e-07 0)
(2.19727e-06 -4.67655e-07 0)
(2.27296e-06 -4.37906e-07 0)
(8.127e-07 -1.01155e-06 0)
(8.85346e-07 -9.84123e-07 0)
(9.5875e-07 -9.56137e-07 0)
(1.03275e-06 -9.2774e-07 0)
(1.1073e-06 -8.99095e-07 0)
(1.18231e-06 -8.70316e-07 0)
(1.25768e-06 -8.41491e-07 0)
(1.3333e-06 -8.12671e-07 0)
(1.40913e-06 -7.8388e-07 0)
(1.48505e-06 -7.55118e-07 0)
(1.561e-06 -7.26366e-07 0)
(1.63703e-06 -6.97593e-07 0)
(1.71299e-06 -6.68758e-07 0)
(1.78886e-06 -6.3982e-07 0)
(1.86478e-06 -6.10744e-07 0)
(1.94056e-06 -5.81505e-07 0)
(2.01629e-06 -5.52098e-07 0)
(2.09199e-06 -5.22538e-07 0)
(2.16763e-06 -4.92874e-07 0)
(2.24331e-06 -4.6317e-07 0)
(7.8887e-07 -1.0349e-06 0)
(8.60527e-07 -1.00784e-06 0)
(9.33096e-07 -9.80203e-07 0)
(1.00638e-06 -9.52105e-07 0)
(1.08036e-06 -9.23712e-07 0)
(1.15496e-06 -8.95139e-07 0)
(1.22997e-06 -8.66474e-07 0)
(1.30526e-06 -8.37772e-07 0)
(1.38083e-06 -8.09061e-07 0)
(1.45658e-06 -7.80347e-07 0)
(1.53235e-06 -7.51617e-07 0)
(1.60816e-06 -7.22845e-07 0)
(1.684e-06 -6.93998e-07 0)
(1.75975e-06 -6.65043e-07 0)
(1.83551e-06 -6.35949e-07 0)
(1.91121e-06 -6.06696e-07 0)
(1.98686e-06 -5.77283e-07 0)
(2.06249e-06 -5.47726e-07 0)
(2.13807e-06 -5.18074e-07 0)
(2.21365e-06 -4.8839e-07 0)
(5.42922e-08 -9.15414e-07 0)
(1.63463e-07 -9.01793e-07 0)
(2.74419e-07 -8.75116e-07 0)
(3.88156e-07 -8.36425e-07 0)
(5.05512e-07 -7.87208e-07 0)
(6.27019e-07 -7.29307e-07 0)
(7.52919e-07 -6.6482e-07 0)
(8.83134e-07 -5.95984e-07 0)
(1.01742e-06 -5.25061e-07 0)
(1.15561e-06 -4.53902e-07 0)
(5.32558e-08 -9.29426e-07 0)
(1.60252e-07 -9.16982e-07 0)
(2.68704e-07 -8.92595e-07 0)
(3.79419e-07 -8.57142e-07 0)
(4.9309e-07 -8.11891e-07 0)
(6.10167e-07 -7.58408e-07 0)
(7.3083e-07 -6.9848e-07 0)
(8.54956e-07 -6.34025e-07 0)
(9.81979e-07 -5.67117e-07 0)
(1.11142e-06 -4.99098e-07 0)
(5.23493e-08 -9.43785e-07 0)
(1.57431e-07 -9.32408e-07 0)
(2.6365e-07 -9.10094e-07 0)
(3.71628e-07 -8.77605e-07 0)
(4.81911e-07 -8.36035e-07 0)
(5.94859e-07 -7.86735e-07 0)
(7.10606e-07 -7.31237e-07 0)
(8.29084e-07 -6.7114e-07 0)
(9.49725e-07 -6.08258e-07 0)
(1.07203e-06 -5.4331e-07 0)
(5.15306e-08 -9.58523e-07 0)
(1.54891e-07 -9.48056e-07 0)
(2.59137e-07 -9.2751e-07 0)
(3.64749e-07 -8.97552e-07 0)
(4.72148e-07 -8.59143e-07 0)
(5.81596e-07 -8.13461e-07 0)
(6.93139e-07 -7.61866e-07 0)
(8.06648e-07 -7.05745e-07 0)
(9.21574e-07 -6.46795e-07 0)
(1.03741e-06 -5.8549e-07 0)
(5.07551e-08 -9.73631e-07 0)
(1.52489e-07 -9.63973e-07 0)
(2.54889e-07 -9.45007e-07 0)
(3.58316e-07 -9.17324e-07 0)
(4.6309e-07 -8.81777e-07 0)
(5.69398e-07 -8.39404e-07 0)
(6.77241e-07 -7.91411e-07 0)
(7.86459e-07 -7.38977e-07 0)
(8.96613e-07 -6.83638e-07 0)
(1.00706e-06 -6.25811e-07 0)
(5.0012e-08 -9.89084e-07 0)
(1.50195e-07 -9.8013e-07 0)
(2.50869e-07 -9.62536e-07 0)
(3.52296e-07 -9.36832e-07 0)
(4.54717e-07 -9.03789e-07 0)
(5.58244e-07 -8.64335e-07 0)
(6.62842e-07 -8.19563e-07 0)
(7.68297e-07 -7.70519e-07 0)
(8.74329e-07 -7.18584e-07 0)
(9.80186e-07 -6.64202e-07 0)
(4.92772e-08 -1.00486e-06 0)
(1.47936e-07 -9.96535e-07 0)
(2.46941e-07 -9.80162e-07 0)
(3.4648e-07 -9.56226e-07 0)
(4.46733e-07 -9.25427e-07 0)
(5.47757e-07 -8.886e-07 0)
(6.49501e-07 -8.46735e-07 0)
(7.51702e-07 -8.00772e-07 0)
(8.54215e-07 -7.51934e-07 0)
(9.56202e-07 -7.00764e-07 0)
(4.85433e-08 -1.02093e-06 0)
(1.4569e-07 -1.01315e-06 0)
(2.43071e-07 -9.97855e-07 0)
(3.40815e-07 -9.75481e-07 0)
(4.39059e-07 -9.4667e-07 0)
(5.37809e-07 -9.12186e-07 0)
(6.37008e-07 -8.72934e-07 0)
(7.36354e-07 -8.29778e-07 0)
(8.35813e-07 -7.83792e-07 0)
(9.34516e-07 -7.35606e-07 0)
(4.77988e-08 -1.03725e-06 0)
(1.43423e-07 -1.02996e-06 0)
(2.39195e-07 -1.01563e-06 0)
(3.35206e-07 -9.94653e-07 0)
(4.31558e-07 -9.67623e-07 0)
(5.28219e-07 -9.35242e-07 0)
(6.25127e-07 -8.98338e-07 0)
(7.21956e-07 -8.5772e-07 0)
(8.18743e-07 -8.14329e-07 0)
(9.14635e-07 -7.68869e-07 0)
(4.70382e-08 -1.05378e-06 0)
(1.41116e-07 -1.04693e-06 0)
(2.35284e-07 -1.03346e-06 0)
(3.29603e-07 -1.01373e-06 0)
(4.2415e-07 -9.88293e-07 0)
(5.18863e-07 -9.57801e-07 0)
(6.13674e-07 -9.23013e-07 0)
(7.08249e-07 -8.84693e-07 0)
(8.02667e-07 -8.4367e-07 0)
(8.96125e-07 -8.00689e-07 0)
(4.62548e-08 -1.07048e-06 0)
(1.38751e-07 -1.06403e-06 0)
(2.31299e-07 -1.05133e-06 0)
(3.23945e-07 -1.03272e-06 0)
(4.16744e-07 -1.00872e-06 0)
(5.0961e-07 -9.79931e-07 0)
(6.02471e-07 -9.47053e-07 0)
(6.94998e-07 -9.10809e-07 0)
(7.87287e-07 -8.71936e-07 0)
(8.78612e-07 -8.31201e-07 0)
(4.54439e-08 -1.0873e-06 0)
(1.36311e-07 -1.08121e-06 0)
(2.27213e-07 -1.0692e-06 0)
(3.18184e-07 -1.05161e-06 0)
(4.09262e-07 -1.02891e-06 0)
(5.00343e-07 -1.00166e-06 0)
(5.91354e-07 -9.70506e-07 0)
(6.81985e-07 -9.36143e-07 0)
(7.72334e-07 -8.99226e-07 0)
(8.61763e-07 -8.60521e-07 0)
(4.45997e-08 -1.1042e-06 0)
(1.33779e-07 -1.09842e-06 0)
(2.22993e-07 -1.08705e-06 0)
(3.12267e-07 -1.07039e-06 0)
(4.01619e-07 -1.04886e-06 0)
(4.90941e-07 -1.02301e-06 0)
(5.80164e-07 -9.93426e-07 0)
(6.69006e-07 -9.60767e-07 0)
(7.5756e-07 -9.25629e-07 0)
(8.45275e-07 -8.8876e-07 0)
(4.37163e-08 -1.1211e-06 0)
(1.31139e-07 -1.11562e-06 0)
(2.18607e-07 -1.10483e-06 0)
(3.06137e-07 -1.08901e-06 0)
(3.93732e-07 -1.06856e-06 0)
(4.81289e-07 -1.04398e-06 0)
(5.68748e-07 -1.01583e-06 0)
(6.55869e-07 -9.84725e-07 0)
(7.42733e-07 -9.51209e-07 0)
(8.2887e-07 -9.16002e-07 0)
(4.27863e-08 -1.13796e-06 0)
(1.28367e-07 -1.13275e-06 0)
(2.14011e-07 -1.1225e-06 0)
(2.99726e-07 -1.10745e-06 0)
(3.85504e-07 -1.088e-06 0)
(4.71256e-07 -1.06459e-06 0)
(5.56947e-07 -1.03776e-06 0)
(6.42379e-07 -1.00807e-06 0)
(7.27617e-07 -9.76035e-07 0)
(8.12261e-07 -9.4234e-07 0)
(4.18018e-08 -1.15467e-06 0)
(1.25435e-07 -1.14972e-06 0)
(2.09152e-07 -1.13997e-06 0)
(2.92952e-07 -1.12565e-06 0)
(3.76824e-07 -1.10711e-06 0)
(4.60708e-07 -1.08479e-06 0)
(5.44596e-07 -1.05918e-06 0)
(6.28336e-07 -1.0308e-06 0)
(7.11973e-07 -1.00013e-06 0)
(7.95162e-07 -9.67812e-07 0)
(4.07518e-08 -1.17121e-06 0)
(1.22305e-07 -1.1665e-06 0)
(2.0396e-07 -1.15722e-06 0)
(2.85711e-07 -1.14358e-06 0)
(3.67556e-07 -1.12591e-06 0)
(4.49477e-07 -1.10461e-06 0)
(5.31499e-07 -1.08013e-06 0)
(6.13506e-07 -1.05298e-06 0)
(6.95524e-07 -1.02358e-06 0)
(7.7724e-07 -9.92543e-07 0)
(3.96235e-08 -1.18737e-06 0)
(1.18934e-07 -1.18289e-06 0)
(1.98358e-07 -1.17406e-06 0)
(2.77895e-07 -1.16107e-06 0)
(3.57566e-07 -1.14423e-06 0)
(4.37404e-07 -1.1239e-06 0)
(5.17462e-07 -1.1005e-06 0)
(5.97652e-07 -1.07451e-06 0)
(6.77961e-07 -1.04631e-06 0)
(7.58157e-07 -1.01648e-06 0)
(3.83934e-08 -1.20325e-06 0)
(1.15249e-07 -1.199e-06 0)
(1.92226e-07 -1.1906e-06 0)
(2.6934e-07 -1.17824e-06 0)
(3.46655e-07 -1.1622e-06 0)
(4.24254e-07 -1.14281e-06 0)
(5.02211e-07 -1.12046e-06 0)
(5.80443e-07 -1.09557e-06 0)
(6.58923e-07 -1.06853e-06 0)
(7.37515e-07 -1.03985e-06 0)
(3.70475e-08 -1.21829e-06 0)
(1.11214e-07 -1.21425e-06 0)
(1.85508e-07 -1.20629e-06 0)
(2.59977e-07 -1.19456e-06 0)
(3.34744e-07 -1.17932e-06 0)
(4.0993e-07 -1.16087e-06 0)
(4.85598e-07 -1.13957e-06 0)
(5.6167e-07 -1.1158e-06 0)
(6.38168e-07 -1.08993e-06 0)
(7.15076e-07 -1.06241e-06 0)
)


// ************************************************************************* //
