/*--------------------------------*- C++ -*----------------------------------*\
| =========                 |                                                 |
| \\      /  F ield         | foam-extend: Open Source CFD                    |
|  \\    /   O peration     | Version:     4.1                                |
|   \\  /    A nd           | Web:         http://www.foam-extend.org         |
|    \\/     M anipulation  |                                                 |
\*---------------------------------------------------------------------------*/
FoamFile
{
    version     2.0;
    format      ascii;
    class       vectorField;
    location    "3";
    object      solidsCellD_iteration9;
}
// * * * * * * * * * * * * * * * * * * * * * * * * * * * * * * * * * * * * * //


1000
(
(1.48478e-06 -5.81594e-07 0)
(1.40609e-06 -5.44047e-07 0)
(1.35685e-06 -5.21448e-07 0)
(1.32954e-06 -5.12455e-07 0)
(1.31747e-06 -5.11397e-07 0)
(1.3166e-06 -5.16412e-07 0)
(1.32397e-06 -5.25439e-07 0)
(1.33742e-06 -5.37561e-07 0)
(1.35574e-06 -5.51638e-07 0)
(1.37656e-06 -5.67221e-07 0)
(1.34327e-06 -6.35489e-07 0)
(1.25948e-06 -6.10607e-07 0)
(1.20689e-06 -5.96084e-07 0)
(1.17706e-06 -5.92638e-07 0)
(1.16286e-06 -5.95313e-07 0)
(1.15996e-06 -6.02979e-07 0)
(1.16533e-06 -6.1389e-07 0)
(1.17669e-06 -6.27418e-07 0)
(1.19268e-06 -6.42533e-07 0)
(1.2112e-06 -6.59006e-07 0)
(1.196e-06 -6.8652e-07 0)
(1.11036e-06 -6.75785e-07 0)
(1.0565e-06 -6.70259e-07 0)
(1.02547e-06 -6.72845e-07 0)
(1.01009e-06 -6.79478e-07 0)
(1.00579e-06 -6.89862e-07 0)
(1.00957e-06 -7.02666e-07 0)
(1.01923e-06 -7.17483e-07 0)
(1.03331e-06 -7.33557e-07 0)
(1.05001e-06 -7.50578e-07 0)
(1.04404e-06 -7.33806e-07 0)
(9.60239e-07 -7.37863e-07 0)
(9.07424e-07 -7.4173e-07 0)
(8.76607e-07 -7.5055e-07 0)
(8.60915e-07 -7.61256e-07 0)
(8.55809e-07 -7.74395e-07 0)
(8.58332e-07 -7.89049e-07 0)
(8.6647e-07 -8.05114e-07 0)
(8.78773e-07 -8.22118e-07 0)
(8.93618e-07 -8.39772e-07 0)
(8.88592e-07 -7.764e-07 0)
(8.10114e-07 -7.95086e-07 0)
(7.60594e-07 -8.08235e-07 0)
(7.31508e-07 -8.23195e-07 0)
(7.16416e-07 -8.37873e-07 0)
(7.10994e-07 -8.53705e-07 0)
(7.12573e-07 -8.70151e-07 0)
(7.19293e-07 -8.87436e-07 0)
(7.29855e-07 -9.05354e-07 0)
(7.42714e-07 -9.23693e-07 0)
(7.30224e-07 -8.13477e-07 0)
(6.60613e-07 -8.45812e-07 0)
(6.1668e-07 -8.6764e-07 0)
(5.90672e-07 -8.88357e-07 0)
(5.76967e-07 -9.06749e-07 0)
(5.71708e-07 -9.25074e-07 0)
(5.72661e-07 -9.43162e-07 0)
(5.78089e-07 -9.61582e-07 0)
(5.86858e-07 -9.80356e-07 0)
(5.97563e-07 -9.99391e-07 0)
(5.69885e-07 -8.44159e-07 0)
(5.1216e-07 -8.88468e-07 0)
(4.75716e-07 -9.17918e-07 0)
(4.54024e-07 -9.43672e-07 0)
(4.4249e-07 -9.65296e-07 0)
(4.37916e-07 -9.85799e-07 0)
(4.38457e-07 -1.00532e-06 0)
(4.42622e-07 -1.02476e-06 0)
(4.49501e-07 -1.0443e-06 0)
(4.57924e-07 -1.06397e-06 0)
(4.08076e-07 -8.67826e-07 0)
(3.64795e-07 -9.21758e-07 0)
(3.37498e-07 -9.57292e-07 0)
(3.21239e-07 -9.87042e-07 0)
(3.12546e-07 -1.01129e-06 0)
(3.09014e-07 -1.03355e-06 0)
(3.0926e-07 -1.05426e-06 0)
(3.12179e-07 -1.07452e-06 0)
(3.17119e-07 -1.09467e-06 0)
(3.23182e-07 -1.11487e-06 0)
(2.45254e-07 -8.83908e-07 0)
(2.18467e-07 -9.44541e-07 0)
(2.01605e-07 -9.8432e-07 0)
(1.91497e-07 -1.01692e-06 0)
(1.86039e-07 -1.043e-06 0)
(1.83785e-07 -1.06646e-06 0)
(1.83904e-07 -1.08801e-06 0)
(1.85665e-07 -1.10889e-06 0)
(1.88631e-07 -1.12949e-06 0)
(1.92275e-07 -1.15008e-06 0)
(8.19108e-08 -8.92011e-07 0)
(7.28451e-08 -9.56122e-07 0)
(6.70776e-08 -9.98084e-07 0)
(6.364e-08 -1.03213e-06 0)
(6.18236e-08 -1.05914e-06 0)
(6.10424e-08 -1.08326e-06 0)
(6.10231e-08 -1.10521e-06 0)
(6.15972e-08 -1.12638e-06 0)
(6.26033e-08 -1.14722e-06 0)
(6.38167e-08 -1.16802e-06 0)
(2.30741e-06 -2.64693e-08 0)
(2.32709e-06 -1.9142e-08 0)
(2.34014e-06 -1.45597e-08 0)
(2.35472e-06 -1.19255e-08 0)
(2.37115e-06 -1.05296e-08 0)
(2.39118e-06 -9.99181e-09 0)
(2.41483e-06 -1.00281e-08 0)
(2.44217e-06 -1.03902e-08 0)
(2.4732e-06 -1.10719e-08 0)
(2.50748e-06 -1.18882e-08 0)
(2.29055e-06 -7.94514e-08 0)
(2.30698e-06 -5.78962e-08 0)
(2.31799e-06 -4.44064e-08 0)
(2.33117e-06 -3.67414e-08 0)
(2.34667e-06 -3.27537e-08 0)
(2.36601e-06 -3.11415e-08 0)
(2.38921e-06 -3.12642e-08 0)
(2.41618e-06 -3.2515e-08 0)
(2.44684e-06 -3.45752e-08 0)
(2.4808e-06 -3.69259e-08 0)
(2.25688e-06 -1.32843e-07 0)
(2.26706e-06 -9.8303e-08 0)
(2.27414e-06 -7.67165e-08 0)
(2.28471e-06 -6.43634e-08 0)
(2.29848e-06 -5.80112e-08 0)
(2.31662e-06 -5.56223e-08 0)
(2.33887e-06 -5.59578e-08 0)
(2.36512e-06 -5.80571e-08 0)
(2.39511e-06 -6.14407e-08 0)
(2.42843e-06 -6.5356e-08 0)
(2.20697e-06 -1.86965e-07 0)
(2.20828e-06 -1.41287e-07 0)
(2.20971e-06 -1.12858e-07 0)
(2.21657e-06 -9.6685e-08 0)
(2.22785e-06 -8.83972e-08 0)
(2.24426e-06 -8.53858e-08 0)
(2.26522e-06 -8.59777e-08 0)
(2.29047e-06 -8.89776e-08 0)
(2.31954e-06 -9.36986e-08 0)
(2.35199e-06 -9.91809e-08 0)
(2.14152e-06 -2.41928e-07 0)
(2.13191e-06 -1.87652e-07 0)
(2.12637e-06 -1.53939e-07 0)
(2.12861e-06 -1.34953e-07 0)
(2.13682e-06 -1.25341e-07 0)
(2.15107e-06 -1.22064e-07 0)
(2.17041e-06 -1.23107e-07 0)
(2.19438e-06 -1.2708e-07 0)
(2.22232e-06 -1.331e-07 0)
(2.25374e-06 -1.40079e-07 0)
(2.06146e-06 -2.97797e-07 0)
(2.03948e-06 -2.37954e-07 0)
(2.02611e-06 -2.00824e-07 0)
(2.02315e-06 -1.802e-07 0)
(2.02787e-06 -1.70011e-07 0)
(2.03966e-06 -1.66904e-07 0)
(2.05719e-06 -1.68599e-07 0)
(2.0797e-06 -1.7357e-07 0)
(2.10636e-06 -1.80841e-07 0)
(2.13663e-06 -1.89254e-07 0)
(1.968e-06 -3.5447e-07 0)
(1.93289e-06 -2.92424e-07 0)
(1.91122e-06 -2.53983e-07 0)
(1.90278e-06 -2.33038e-07 0)
(1.90382e-06 -2.23042e-07 0)
(1.91299e-06 -2.20561e-07 0)
(1.9286e-06 -2.23128e-07 0)
(1.94955e-06 -2.29138e-07 0)
(1.97482e-06 -2.3762e-07 0)
(2.00389e-06 -2.47371e-07 0)
(1.86225e-06 -4.11644e-07 0)
(1.81416e-06 -3.5092e-07 0)
(1.78427e-06 -3.13373e-07 0)
(1.77036e-06 -2.93483e-07 0)
(1.76775e-06 -2.84506e-07 0)
(1.77428e-06 -2.83147e-07 0)
(1.78789e-06 -2.86843e-07 0)
(1.80724e-06 -2.94001e-07 0)
(1.83108e-06 -3.03675e-07 0)
(1.85889e-06 -3.14669e-07 0)
(1.74558e-06 -4.68951e-07 0)
(1.68541e-06 -4.1294e-07 0)
(1.64789e-06 -3.78489e-07 0)
(1.62881e-06 -3.61013e-07 0)
(1.62271e-06 -3.53899e-07 0)
(1.62662e-06 -3.54147e-07 0)
(1.63818e-06 -3.59246e-07 0)
(1.65583e-06 -3.67652e-07 0)
(1.67814e-06 -3.78513e-07 0)
(1.70457e-06 -3.90481e-07 0)
(1.61934e-06 -5.25836e-07 0)
(1.54878e-06 -4.77678e-07 0)
(1.50466e-06 -4.48303e-07 0)
(1.48103e-06 -4.34548e-07 0)
(1.47175e-06 -4.30121e-07 0)
(1.47324e-06 -4.32496e-07 0)
(1.48294e-06 -4.39373e-07 0)
(1.49892e-06 -4.49407e-07 0)
(1.51991e-06 -4.617e-07 0)
(1.5445e-06 -4.7535e-07 0)
(2.545e-06 -1.26404e-08 0)
(2.58582e-06 -1.28962e-08 0)
(2.62912e-06 -1.31459e-08 0)
(2.67475e-06 -1.33409e-08 0)
(2.72246e-06 -1.34742e-08 0)
(2.77209e-06 -1.35408e-08 0)
(2.82341e-06 -1.35155e-08 0)
(2.87621e-06 -1.34287e-08 0)
(2.93039e-06 -1.32975e-08 0)
(2.98581e-06 -1.30891e-08 0)
(3.04229e-06 -1.27792e-08 0)
(3.09969e-06 -1.23671e-08 0)
(3.15785e-06 -1.18555e-08 0)
(3.21663e-06 -1.1248e-08 0)
(3.27592e-06 -1.05356e-08 0)
(3.33551e-06 -9.69338e-09 0)
(3.39532e-06 -8.69163e-09 0)
(3.45504e-06 -7.50655e-09 0)
(3.51468e-06 -6.11634e-09 0)
(3.57354e-06 -4.51818e-09 0)
(2.51949e-06 -3.90385e-08 0)
(2.5624e-06 -3.96609e-08 0)
(2.60759e-06 -4.02741e-08 0)
(2.65489e-06 -4.07365e-08 0)
(2.70409e-06 -4.09965e-08 0)
(2.75502e-06 -4.10946e-08 0)
(2.80752e-06 -4.10115e-08 0)
(2.86144e-06 -4.07591e-08 0)
(2.91664e-06 -4.03016e-08 0)
(2.97297e-06 -3.95802e-08 0)
(3.03029e-06 -3.85917e-08 0)
(3.08847e-06 -3.73514e-08 0)
(3.14739e-06 -3.58394e-08 0)
(3.2069e-06 -3.40207e-08 0)
(3.26687e-06 -3.18511e-08 0)
(3.3271e-06 -2.92834e-08 0)
(3.38752e-06 -2.62575e-08 0)
(3.44782e-06 -2.27145e-08 0)
(3.50804e-06 -1.85779e-08 0)
(3.56744e-06 -1.38139e-08 0)
(2.46937e-06 -6.85255e-08 0)
(2.51646e-06 -6.90599e-08 0)
(2.56538e-06 -6.95979e-08 0)
(2.61587e-06 -7.00073e-08 0)
(2.66796e-06 -7.01748e-08 0)
(2.7215e-06 -7.0145e-08 0)
(2.77639e-06 -6.98406e-08 0)
(2.83243e-06 -6.92513e-08 0)
(2.88956e-06 -6.83216e-08 0)
(2.94767e-06 -6.70044e-08 0)
(3.00664e-06 -6.53051e-08 0)
(3.06637e-06 -6.32169e-08 0)
(3.12674e-06 -6.06737e-08 0)
(3.18758e-06 -5.76038e-08 0)
(3.24881e-06 -5.39458e-08 0)
(3.31028e-06 -4.9637e-08 0)
(3.3719e-06 -4.45829e-08 0)
(3.43337e-06 -3.86906e-08 0)
(3.49475e-06 -3.18302e-08 0)
(3.55531e-06 -2.39261e-08 0)
(2.39615e-06 -1.02836e-07 0)
(2.44914e-06 -1.02538e-07 0)
(2.50343e-06 -1.02342e-07 0)
(2.55864e-06 -1.02208e-07 0)
(2.61499e-06 -1.01888e-07 0)
(2.67232e-06 -1.01416e-07 0)
(2.73063e-06 -1.00624e-07 0)
(2.78979e-06 -9.94964e-08 0)
(2.84981e-06 -9.79491e-08 0)
(2.91059e-06 -9.59329e-08 0)
(2.97203e-06 -9.34279e-08 0)
(3.03403e-06 -9.03885e-08 0)
(3.09651e-06 -8.67201e-08 0)
(3.15935e-06 -8.23418e-08 0)
(3.22248e-06 -7.71854e-08 0)
(3.28576e-06 -7.11439e-08 0)
(3.34912e-06 -6.4084e-08 0)
(3.41229e-06 -5.58681e-08 0)
(3.4753e-06 -4.63008e-08 0)
(3.53751e-06 -3.53026e-08 0)
(2.30196e-06 -1.43472e-07 0)
(2.36245e-06 -1.41409e-07 0)
(2.4236e-06 -1.39684e-07 0)
(2.48475e-06 -1.38412e-07 0)
(2.54651e-06 -1.37079e-07 0)
(2.60868e-06 -1.3573e-07 0)
(2.67142e-06 -1.34097e-07 0)
(2.73462e-06 -1.32167e-07 0)
(2.79834e-06 -1.29789e-07 0)
(2.8625e-06 -1.26887e-07 0)
(2.92709e-06 -1.23423e-07 0)
(2.99205e-06 -1.1932e-07 0)
(3.0573e-06 -1.14453e-07 0)
(3.12276e-06 -1.08718e-07 0)
(3.18838e-06 -1.02025e-07 0)
(3.25402e-06 -9.42267e-08 0)
(3.31965e-06 -8.51562e-08 0)
(3.38499e-06 -7.46397e-08 0)
(3.45017e-06 -6.2405e-08 0)
(3.51451e-06 -4.83737e-08 0)
(2.18942e-06 -1.91567e-07 0)
(2.25852e-06 -1.86653e-07 0)
(2.32771e-06 -1.82408e-07 0)
(2.39594e-06 -1.79232e-07 0)
(2.46421e-06 -1.76267e-07 0)
(2.5322e-06 -1.73547e-07 0)
(2.6002e-06 -1.70668e-07 0)
(2.66823e-06 -1.67575e-07 0)
(2.73638e-06 -1.64092e-07 0)
(2.80464e-06 -1.60109e-07 0)
(2.87304e-06 -1.55543e-07 0)
(2.94156e-06 -1.50268e-07 0)
(3.01014e-06 -1.44122e-07 0)
(3.07873e-06 -1.36977e-07 0)
(3.14733e-06 -1.28703e-07 0)
(3.21578e-06 -1.19132e-07 0)
(3.28416e-06 -1.08058e-07 0)
(3.35213e-06 -9.52796e-08 0)
(3.41992e-06 -8.04513e-08 0)
(3.48684e-06 -6.34509e-08 0)
(2.06167e-06 -2.47777e-07 0)
(2.1402e-06 -2.38898e-07 0)
(2.21833e-06 -2.31153e-07 0)
(2.29447e-06 -2.25252e-07 0)
(2.36994e-06 -2.1998e-07 0)
(2.4445e-06 -2.15296e-07 0)
(2.51847e-06 -2.1074e-07 0)
(2.59197e-06 -2.06137e-07 0)
(2.66518e-06 -2.01278e-07 0)
(2.73814e-06 -1.95998e-07 0)
(2.81092e-06 -1.90148e-07 0)
(2.88351e-06 -1.83546e-07 0)
(2.9559e-06 -1.75999e-07 0)
(3.02809e-06 -1.67359e-07 0)
(3.1001e-06 -1.5746e-07 0)
(3.17183e-06 -1.46109e-07 0)
(3.24337e-06 -1.33055e-07 0)
(3.31441e-06 -1.18051e-07 0)
(3.38519e-06 -1.00684e-07 0)
(3.45506e-06 -8.07806e-08 0)
(1.92169e-06 -3.12319e-07 0)
(2.01003e-06 -2.98216e-07 0)
(2.09759e-06 -2.85978e-07 0)
(2.18225e-06 -2.76419e-07 0)
(2.26559e-06 -2.68138e-07 0)
(2.3473e-06 -2.60892e-07 0)
(2.4279e-06 -2.54182e-07 0)
(2.5075e-06 -2.47699e-07 0)
(2.58631e-06 -2.41171e-07 0)
(2.66446e-06 -2.34358e-07 0)
(2.74205e-06 -2.27037e-07 0)
(2.81911e-06 -2.18974e-07 0)
(2.89571e-06 -2.09948e-07 0)
(2.97189e-06 -1.99779e-07 0)
(3.0477e-06 -1.8826e-07 0)
(3.12309e-06 -1.7516e-07 0)
(3.19812e-06 -1.60173e-07 0)
(3.27257e-06 -1.43002e-07 0)
(3.34665e-06 -1.2316e-07 0)
(3.41981e-06 -1.00432e-07 0)
(1.77264e-06 -3.85048e-07 0)
(1.87101e-06 -3.64682e-07 0)
(1.9682e-06 -3.47295e-07 0)
(2.06177e-06 -3.33247e-07 0)
(2.15332e-06 -3.21304e-07 0)
(2.24262e-06 -3.1093e-07 0)
(2.3302e-06 -3.01572e-07 0)
(2.41626e-06 -2.92795e-07 0)
(2.50105e-06 -2.84249e-07 0)
(2.58475e-06 -2.75609e-07 0)
(2.66748e-06 -2.66582e-07 0)
(2.74937e-06 -2.56887e-07 0)
(2.83052e-06 -2.46269e-07 0)
(2.91103e-06 -2.34503e-07 0)
(2.99095e-06 -2.21329e-07 0)
(3.07028e-06 -2.06467e-07 0)
(3.1491e-06 -1.89555e-07 0)
(3.22721e-06 -1.70244e-07 0)
(3.30488e-06 -1.47992e-07 0)
(3.38162e-06 -1.22541e-07 0)
(1.61748e-06 -4.64945e-07 0)
(1.72667e-06 -4.36333e-07 0)
(1.8335e-06 -4.1308e-07 0)
(1.93639e-06 -3.93823e-07 0)
(2.03632e-06 -3.77656e-07 0)
(2.1335e-06 -3.63693e-07 0)
(2.22831e-06 -3.51305e-07 0)
(2.32106e-06 -3.39943e-07 0)
(2.41205e-06 -3.29165e-07 0)
(2.50148e-06 -3.18551e-07 0)
(2.58957e-06 -3.07734e-07 0)
(2.67645e-06 -2.96378e-07 0)
(2.76231e-06 -2.84175e-07 0)
(2.84727e-06 -2.70846e-07 0)
(2.93141e-06 -2.56074e-07 0)
(3.01477e-06 -2.39532e-07 0)
(3.09746e-06 -2.20808e-07 0)
(3.17935e-06 -1.99482e-07 0)
(3.26074e-06 -1.74975e-07 0)
(3.34124e-06 -1.46952e-07 0)
(1.49924e-06 -5.44515e-07 0)
(1.61697e-06 -5.08273e-07 0)
(1.73038e-06 -4.80089e-07 0)
(1.83974e-06 -4.56227e-07 0)
(1.94544e-06 -4.36037e-07 0)
(2.04798e-06 -4.18501e-07 0)
(2.14773e-06 -4.02926e-07 0)
(2.24507e-06 -3.88723e-07 0)
(2.34029e-06 -3.75383e-07 0)
(2.43365e-06 -3.62434e-07 0)
(2.52536e-06 -3.49475e-07 0)
(2.61562e-06 -3.36135e-07 0)
(2.70461e-06 -3.22068e-07 0)
(2.79249e-06 -3.06951e-07 0)
(2.87934e-06 -2.90438e-07 0)
(2.96526e-06 -2.72158e-07 0)
(3.05035e-06 -2.51692e-07 0)
(3.13459e-06 -2.28571e-07 0)
(3.21827e-06 -2.02216e-07 0)
(3.30112e-06 -1.72228e-07 0)
(1.43318e-06 -6.10811e-07 0)
(1.55187e-06 -5.72989e-07 0)
(1.66641e-06 -5.41794e-07 0)
(1.77756e-06 -5.14887e-07 0)
(1.88533e-06 -4.91657e-07 0)
(1.99e-06 -4.7122e-07 0)
(2.09188e-06 -4.52897e-07 0)
(2.19127e-06 -4.36107e-07 0)
(2.28842e-06 -4.20327e-07 0)
(2.38354e-06 -4.05087e-07 0)
(2.47689e-06 -3.89981e-07 0)
(2.56863e-06 -3.74628e-07 0)
(2.65897e-06 -3.58665e-07 0)
(2.74805e-06 -3.41753e-07 0)
(2.83596e-06 -3.23538e-07 0)
(2.92284e-06 -3.03632e-07 0)
(3.00878e-06 -2.81641e-07 0)
(3.09386e-06 -2.57088e-07 0)
(3.17831e-06 -2.2942e-07 0)
(3.26198e-06 -1.9821e-07 0)
(1.37823e-06 -6.73515e-07 0)
(1.49562e-06 -6.3513e-07 0)
(1.61008e-06 -6.02282e-07 0)
(1.72168e-06 -5.73241e-07 0)
(1.83033e-06 -5.47593e-07 0)
(1.93613e-06 -5.24651e-07 0)
(2.0393e-06 -5.03828e-07 0)
(2.14e-06 -4.84595e-07 0)
(2.23844e-06 -4.6646e-07 0)
(2.33483e-06 -4.48976e-07 0)
(2.42937e-06 -4.31746e-07 0)
(2.52224e-06 -4.14388e-07 0)
(2.61361e-06 -3.96531e-07 0)
(2.70362e-06 -3.7783e-07 0)
(2.79237e-06 -3.57934e-07 0)
(2.88004e-06 -3.36449e-07 0)
(2.96671e-06 -3.13005e-07 0)
(3.05251e-06 -2.87139e-07 0)
(3.13764e-06 -2.5832e-07 0)
(3.22207e-06 -2.26125e-07 0)
(1.3303e-06 -7.34004e-07 0)
(1.44596e-06 -6.95469e-07 0)
(1.55948e-06 -6.61446e-07 0)
(1.67068e-06 -6.30708e-07 0)
(1.77938e-06 -6.03027e-07 0)
(1.88556e-06 -5.77889e-07 0)
(1.98932e-06 -5.54811e-07 0)
(2.09076e-06 -5.33324e-07 0)
(2.19002e-06 -5.12982e-07 0)
(2.28726e-06 -4.93372e-07 0)
(2.38266e-06 -4.74115e-07 0)
(2.47635e-06 -4.54834e-07 0)
(2.56851e-06 -4.35159e-07 0)
(2.65928e-06 -4.14751e-07 0)
(2.74873e-06 -3.93261e-07 0)
(2.83707e-06 -3.70307e-07 0)
(2.92438e-06 -3.45543e-07 0)
(3.01083e-06 -3.18525e-07 0)
(3.09658e-06 -2.88751e-07 0)
(3.18174e-06 -2.55844e-07 0)
(1.28837e-06 -7.91891e-07 0)
(1.40196e-06 -7.53543e-07 0)
(1.51402e-06 -7.18871e-07 0)
(1.62422e-06 -6.86937e-07 0)
(1.73236e-06 -6.57668e-07 0)
(1.83833e-06 -6.30704e-07 0)
(1.94214e-06 -6.05663e-07 0)
(2.04382e-06 -5.82156e-07 0)
(2.14346e-06 -5.59794e-07 0)
(2.24118e-06 -5.38207e-07 0)
(2.33712e-06 -5.17042e-07 0)
(2.43137e-06 -4.95936e-07 0)
(2.5241e-06 -4.74532e-07 0)
(2.61542e-06 -4.52504e-07 0)
(2.70543e-06 -4.29514e-07 0)
(2.79433e-06 -4.05198e-07 0)
(2.88218e-06 -3.79231e-07 0)
(2.96919e-06 -3.51196e-07 0)
(3.05552e-06 -3.20636e-07 0)
(3.14135e-06 -2.87259e-07 0)
(1.25126e-06 -8.47401e-07 0)
(1.36263e-06 -8.09437e-07 0)
(1.47298e-06 -7.74427e-07 0)
(1.58178e-06 -7.41652e-07 0)
(1.68895e-06 -7.11153e-07 0)
(1.79426e-06 -6.82684e-07 0)
(1.8977e-06 -6.55964e-07 0)
(1.99922e-06 -6.30685e-07 0)
(2.09889e-06 -6.06517e-07 0)
(2.19677e-06 -5.83134e-07 0)
(2.29295e-06 -5.60214e-07 0)
(2.38752e-06 -5.37418e-07 0)
(2.4806e-06 -5.14406e-07 0)
(2.57231e-06 -4.90875e-07 0)
(2.66273e-06 -4.66499e-07 0)
(2.75206e-06 -4.40947e-07 0)
(2.84037e-06 -4.13909e-07 0)
(2.92786e-06 -3.85001e-07 0)
(3.01471e-06 -3.53839e-07 0)
(3.10114e-06 -3.20197e-07 0)
(1.21818e-06 -9.0067e-07 0)
(1.32728e-06 -8.63217e-07 0)
(1.43572e-06 -8.281e-07 0)
(1.54291e-06 -7.94773e-07 0)
(1.64881e-06 -7.63351e-07 0)
(1.75315e-06 -7.33671e-07 0)
(1.85588e-06 -7.05547e-07 0)
(1.95694e-06 -6.78745e-07 0)
(2.05634e-06 -6.52986e-07 0)
(2.1541e-06 -6.27994e-07 0)
(2.25028e-06 -6.03483e-07 0)
(2.34494e-06 -5.7914e-07 0)
(2.43819e-06 -5.54653e-07 0)
(2.53012e-06 -5.29747e-07 0)
(2.62082e-06 -5.04104e-07 0)
(2.71047e-06 -4.77437e-07 0)
(2.79913e-06 -4.49455e-07 0)
(2.88703e-06 -4.19821e-07 0)
(2.97435e-06 -3.88227e-07 0)
(3.06127e-06 -3.5445e-07 0)
(1.18842e-06 -9.51856e-07 0)
(1.29526e-06 -9.14987e-07 0)
(1.40169e-06 -8.79925e-07 0)
(1.50714e-06 -8.46264e-07 0)
(1.61158e-06 -8.14161e-07 0)
(1.71472e-06 -7.8352e-07 0)
(1.81652e-06 -7.54238e-07 0)
(1.91687e-06 -7.26143e-07 0)
(2.01574e-06 -6.99001e-07 0)
(2.11315e-06 -6.72589e-07 0)
(2.20912e-06 -6.46657e-07 0)
(2.30368e-06 -6.20923e-07 0)
(2.39694e-06 -5.951e-07 0)
(2.48896e-06 -5.68952e-07 0)
(2.57982e-06 -5.42174e-07 0)
(2.66968e-06 -5.14519e-07 0)
(2.75862e-06 -4.8573e-07 0)
(2.84687e-06 -4.55515e-07 0)
(2.93456e-06 -4.23627e-07 0)
(3.02191e-06 -3.89816e-07 0)
(1.16131e-06 -1.00113e-06 0)
(1.26594e-06 -9.64875e-07 0)
(1.37034e-06 -9.29981e-07 0)
(1.47399e-06 -8.96146e-07 0)
(1.57684e-06 -8.63554e-07 0)
(1.67865e-06 -8.32165e-07 0)
(1.77935e-06 -8.01939e-07 0)
(1.87881e-06 -7.7276e-07 0)
(1.97699e-06 -7.44432e-07 0)
(2.07387e-06 -7.16784e-07 0)
(2.16947e-06 -6.89602e-07 0)
(2.26378e-06 -6.62636e-07 0)
(2.35692e-06 -6.35626e-07 0)
(2.4489e-06 -6.08373e-07 0)
(2.53982e-06 -5.80596e-07 0)
(2.62982e-06 -5.52085e-07 0)
(2.71897e-06 -5.22628e-07 0)
(2.8075e-06 -4.91963e-07 0)
(2.89549e-06 -4.59872e-07 0)
(2.98321e-06 -4.26146e-07 0)
(1.13631e-06 -1.04864e-06 0)
(1.23876e-06 -1.01302e-06 0)
(1.34117e-06 -9.78361e-07 0)
(1.44299e-06 -9.44465e-07 0)
(1.54422e-06 -9.11534e-07 0)
(1.64463e-06 -8.79571e-07 0)
(1.74413e-06 -8.48587e-07 0)
(1.84259e-06 -8.1851e-07 0)
(1.93994e-06 -7.89183e-07 0)
(2.03617e-06 -7.60477e-07 0)
(2.13127e-06 -7.32213e-07 0)
(2.22523e-06 -7.04173e-07 0)
(2.31813e-06 -6.76127e-07 0)
(2.40999e-06 -6.4791e-07 0)
(2.50088e-06 -6.19271e-07 0)
(2.59095e-06 -5.9004e-07 0)
(2.68025e-06 -5.60038e-07 0)
(2.76897e-06 -5.29026e-07 0)
(2.85719e-06 -4.96808e-07 0)
(2.94522e-06 -4.63291e-07 0)
(1.11291e-06 -1.09456e-06 0)
(1.21329e-06 -1.05955e-06 0)
(1.31373e-06 -1.02517e-06 0)
(1.41376e-06 -9.91292e-07 0)
(1.51338e-06 -9.58145e-07 0)
(1.61235e-06 -9.25754e-07 0)
(1.7106e-06 -8.94173e-07 0)
(1.80798e-06 -8.63367e-07 0)
(1.90443e-06 -8.33214e-07 0)
(1.99993e-06 -8.03613e-07 0)
(2.09444e-06 -7.74425e-07 0)
(2.18796e-06 -7.45459e-07 0)
(2.28055e-06 -7.1652e-07 0)
(2.37221e-06 -6.87475e-07 0)
(2.46301e-06 -6.58107e-07 0)
(2.55309e-06 -6.28279e-07 0)
(2.64246e-06 -5.97832e-07 0)
(2.73131e-06 -5.66548e-07 0)
(2.81973e-06 -5.34301e-07 0)
(2.90797e-06 -5.01047e-07 0)
(1.09071e-06 -1.13902e-06 0)
(1.18909e-06 -1.10459e-06 0)
(1.28765e-06 -1.07051e-06 0)
(1.38594e-06 -1.03672e-06 0)
(1.48397e-06 -1.00345e-06 0)
(1.58151e-06 -9.70753e-07 0)
(1.67848e-06 -9.38712e-07 0)
(1.77476e-06 -9.0732e-07 0)
(1.87027e-06 -8.76492e-07 0)
(1.96499e-06 -8.46143e-07 0)
(2.05887e-06 -8.16173e-07 0)
(2.1519e-06 -7.86421e-07 0)
(2.24413e-06 -7.56727e-07 0)
(2.33555e-06 -7.26989e-07 0)
(2.42623e-06 -6.97022e-07 0)
(2.51626e-06 -6.66705e-07 0)
(2.60565e-06 -6.35899e-07 0)
(2.69458e-06 -6.04422e-07 0)
(2.78315e-06 -5.72244e-07 0)
(2.87155e-06 -5.39253e-07 0)
(1.06936e-06 -1.18215e-06 0)
(1.16585e-06 -1.14827e-06 0)
(1.26259e-06 -1.1145e-06 0)
(1.35921e-06 -1.08084e-06 0)
(1.45569e-06 -1.04753e-06 0)
(1.55182e-06 -1.01461e-06 0)
(1.64753e-06 -9.82225e-07 0)
(1.74271e-06 -9.50368e-07 0)
(1.83728e-06 -9.19004e-07 0)
(1.93121e-06 -8.88048e-07 0)
(2.02445e-06 -8.57441e-07 0)
(2.11697e-06 -8.27047e-07 0)
(2.20881e-06 -7.96736e-07 0)
(2.29997e-06 -7.66433e-07 0)
(2.39047e-06 -7.35975e-07 0)
(2.48041e-06 -7.05257e-07 0)
(2.56976e-06 -6.74167e-07 0)
(2.65875e-06 -6.42581e-07 0)
(2.74738e-06 -6.10508e-07 0)
(2.83591e-06 -5.77823e-07 0)
(1.04853e-06 -1.22408e-06 0)
(1.14322e-06 -1.19071e-06 0)
(1.23824e-06 -1.15725e-06 0)
(1.33325e-06 -1.12375e-06 0)
(1.42823e-06 -1.09043e-06 0)
(1.523e-06 -1.05738e-06 0)
(1.61751e-06 -1.02476e-06 0)
(1.71163e-06 -9.92566e-07 0)
(1.80529e-06 -9.60788e-07 0)
(1.89844e-06 -9.29356e-07 0)
(1.99103e-06 -8.98232e-07 0)
(2.08303e-06 -8.67314e-07 0)
(2.17448e-06 -8.36497e-07 0)
(2.26535e-06 -8.05733e-07 0)
(2.35565e-06 -7.7487e-07 0)
(2.44546e-06 -7.43824e-07 0)
(2.53476e-06 -7.12525e-07 0)
(2.62376e-06 -6.80903e-07 0)
(2.71242e-06 -6.48922e-07 0)
(2.80101e-06 -6.16589e-07 0)
(1.02787e-06 -1.26492e-06 0)
(1.12086e-06 -1.23203e-06 0)
(1.21424e-06 -1.19886e-06 0)
(1.3077e-06 -1.16553e-06 0)
(1.40128e-06 -1.13226e-06 0)
(1.49478e-06 -1.09917e-06 0)
(1.58816e-06 -1.0664e-06 0)
(1.68127e-06 -1.03396e-06 0)
(1.77406e-06 -1.00185e-06 0)
(1.86648e-06 -9.70048e-07 0)
(1.95846e-06 -9.38533e-07 0)
(2.04998e-06 -9.07218e-07 0)
(2.14105e-06 -8.76012e-07 0)
(2.23164e-06 -8.44883e-07 0)
(2.32172e-06 -8.13693e-07 0)
(2.41139e-06 -7.82393e-07 0)
(2.50064e-06 -7.50956e-07 0)
(2.5896e-06 -7.19325e-07 0)
(2.6783e-06 -6.87474e-07 0)
(2.76691e-06 -6.55459e-07 0)
(1.00702e-06 -1.30478e-06 0)
(1.09839e-06 -1.27233e-06 0)
(1.1902e-06 -1.23941e-06 0)
(1.28226e-06 -1.20627e-06 0)
(1.37454e-06 -1.17311e-06 0)
(1.46688e-06 -1.14004e-06 0)
(1.55922e-06 -1.10718e-06 0)
(1.65142e-06 -1.0746e-06 0)
(1.74341e-06 -1.04228e-06 0)
(1.83515e-06 -1.01021e-06 0)
(1.92658e-06 -9.78398e-07 0)
(2.01766e-06 -9.4678e-07 0)
(2.10837e-06 -9.15269e-07 0)
(2.19867e-06 -8.83843e-07 0)
(2.28855e-06 -8.52394e-07 0)
(2.3781e-06 -8.20914e-07 0)
(2.46728e-06 -7.89396e-07 0)
(2.5562e-06 -7.57737e-07 0)
(2.64488e-06 -7.26045e-07 0)
(2.73349e-06 -6.94345e-07 0)
(9.8562e-07 -1.34376e-06 0)
(1.07542e-06 -1.31165e-06 0)
(1.16576e-06 -1.27904e-06 0)
(1.2566e-06 -1.24615e-06 0)
(1.34771e-06 -1.21311e-06 0)
(1.43903e-06 -1.1801e-06 0)
(1.53044e-06 -1.14722e-06 0)
(1.62183e-06 -1.11456e-06 0)
(1.71312e-06 -1.0821e-06 0)
(1.80429e-06 -1.04986e-06 0)
(1.89524e-06 -1.01785e-06 0)
(1.98592e-06 -9.86008e-07 0)
(2.07631e-06 -9.54255e-07 0)
(2.16635e-06 -9.22606e-07 0)
(2.25607e-06 -8.90988e-07 0)
(2.34553e-06 -8.59376e-07 0)
(2.43464e-06 -8.27757e-07 0)
(2.52351e-06 -7.96099e-07 0)
(2.61214e-06 -7.64572e-07 0)
(2.70078e-06 -7.33156e-07 0)
(9.6318e-07 -1.38185e-06 0)
(1.05164e-06 -1.35011e-06 0)
(1.14079e-06 -1.31786e-06 0)
(1.23046e-06 -1.2852e-06 0)
(1.32057e-06 -1.25236e-06 0)
(1.41098e-06 -1.21945e-06 0)
(1.5016e-06 -1.18661e-06 0)
(1.59231e-06 -1.15394e-06 0)
(1.68305e-06 -1.12143e-06 0)
(1.77375e-06 -1.08909e-06 0)
(1.8643e-06 -1.05694e-06 0)
(1.95463e-06 -1.02494e-06 0)
(2.04475e-06 -9.93034e-07 0)
(2.13464e-06 -9.61227e-07 0)
(2.22425e-06 -9.29459e-07 0)
(2.31358e-06 -8.97747e-07 0)
(2.40259e-06 -8.66052e-07 0)
(2.49149e-06 -8.34419e-07 0)
(2.58014e-06 -8.03011e-07 0)
(2.66867e-06 -7.71871e-07 0)
(9.39381e-07 -1.41941e-06 0)
(1.02662e-06 -1.38805e-06 0)
(1.1147e-06 -1.35607e-06 0)
(1.20344e-06 -1.32368e-06 0)
(1.29271e-06 -1.29102e-06 0)
(1.3824e-06 -1.25825e-06 0)
(1.47243e-06 -1.22551e-06 0)
(1.56267e-06 -1.19287e-06 0)
(1.653e-06 -1.16034e-06 0)
(1.74332e-06 -1.12796e-06 0)
(1.83357e-06 -1.09573e-06 0)
(1.9237e-06 -1.06362e-06 0)
(2.01368e-06 -1.0316e-06 0)
(2.1034e-06 -9.99698e-07 0)
(2.19288e-06 -9.67818e-07 0)
(2.28219e-06 -9.35972e-07 0)
(2.37123e-06 -9.04241e-07 0)
(2.46007e-06 -8.72622e-07 0)
(2.54875e-06 -8.41262e-07 0)
(2.63727e-06 -8.10345e-07 0)
(9.13935e-07 -1.45615e-06 0)
(1.00013e-06 -1.42525e-06 0)
(1.08732e-06 -1.39365e-06 0)
(1.1753e-06 -1.36157e-06 0)
(1.26397e-06 -1.32916e-06 0)
(1.3532e-06 -1.29658e-06 0)
(1.44286e-06 -1.26398e-06 0)
(1.53278e-06 -1.23144e-06 0)
(1.62284e-06 -1.19895e-06 0)
(1.713e-06 -1.16653e-06 0)
(1.80313e-06 -1.13428e-06 0)
(1.89311e-06 -1.10214e-06 0)
(1.98297e-06 -1.07002e-06 0)
(2.07265e-06 -1.03801e-06 0)
(2.16207e-06 -1.00608e-06 0)
(2.25133e-06 -9.74154e-07 0)
(2.34041e-06 -9.42377e-07 0)
(2.42928e-06 -9.10693e-07 0)
(2.51803e-06 -8.79339e-07 0)
(2.60655e-06 -8.48496e-07 0)
(6.37701e-08 -1.18916e-06 0)
(1.92044e-07 -1.17209e-06 0)
(3.22429e-07 -1.13852e-06 0)
(4.56155e-07 -1.08994e-06 0)
(5.94122e-07 -1.02813e-06 0)
(7.36884e-07 -9.55462e-07 0)
(8.84633e-07 -8.74602e-07 0)
(1.03707e-06 -7.88262e-07 0)
(1.19406e-06 -6.99141e-07 0)
(1.35397e-06 -6.09213e-07 0)
(6.22105e-08 -1.21125e-06 0)
(1.87259e-07 -1.19565e-06 0)
(3.14003e-07 -1.16495e-06 0)
(4.43481e-07 -1.12045e-06 0)
(5.76428e-07 -1.06364e-06 0)
(7.13266e-07 -9.96519e-07 0)
(8.54172e-07 -9.21361e-07 0)
(9.98725e-07 -8.40559e-07 0)
(1.14659e-06 -7.56521e-07 0)
(1.29607e-06 -6.71549e-07 0)
(6.07568e-08 -1.23388e-06 0)
(1.82798e-07 -1.21963e-06 0)
(3.06188e-07 -1.19152e-06 0)
(4.31719e-07 -1.15071e-06 0)
(5.60037e-07 -1.09849e-06 0)
(6.91435e-07 -1.03659e-06 0)
(8.26102e-07 -9.66977e-07 0)
(9.63799e-07 -8.91679e-07 0)
(1.10426e-06 -8.12786e-07 0)
(1.24624e-06 -7.32236e-07 0)
(5.94498e-08 -1.25703e-06 0)
(1.78775e-07 -1.24391e-06 0)
(2.99246e-07 -1.218e-06 0)
(4.21407e-07 -1.18034e-06 0)
(5.45841e-07 -1.13207e-06 0)
(6.72734e-07 -1.07468e-06 0)
(8.02218e-07 -1.00996e-06 0)
(9.34071e-07 -9.39708e-07 0)
(1.06798e-06 -8.6591e-07 0)
(1.20299e-06 -7.90262e-07 0)
(5.82621e-08 -1.28069e-06 0)
(1.75058e-07 -1.26861e-06 0)
(2.92832e-07 -1.24467e-06 0)
(4.1194e-07 -1.20985e-06 0)
(5.32886e-07 -1.16515e-06 0)
(6.55804e-07 -1.11192e-06 0)
(7.80798e-07 -1.05176e-06 0)
(9.07688e-07 -9.8619e-07 0)
(1.03617e-06 -9.17061e-07 0)
(1.16529e-06 -8.45927e-07 0)
(5.71389e-08 -1.30485e-06 0)
(1.71621e-07 -1.29363e-06 0)
(2.86908e-07 -1.27143e-06 0)
(4.03286e-07 -1.23911e-06 0)
(5.2115e-07 -1.19756e-06 0)
(6.40625e-07 -1.14803e-06 0)
(7.61708e-07 -1.09197e-06 0)
(8.84249e-07 -1.03072e-06 0)
(1.00803e-06 -9.65985e-07 0)
(1.13205e-06 -8.99253e-07 0)
(5.6051e-08 -1.32945e-06 0)
(1.68355e-07 -1.31902e-06 0)
(2.81305e-07 -1.29839e-06 0)
(3.9518e-07 -1.2683e-06 0)
(5.10237e-07 -1.2296e-06 0)
(6.26633e-07 -1.18343e-06 0)
(7.44322e-07 -1.13108e-06 0)
(8.63097e-07 -1.07378e-06 0)
(9.82849e-07 -1.01306e-06 0)
(1.10252e-06 -9.50408e-07 0)
(5.50358e-08 -1.35445e-06 0)
(1.65236e-07 -1.34473e-06 0)
(2.75975e-07 -1.32549e-06 0)
(3.87523e-07 -1.2974e-06 0)
(5.00032e-07 -1.26126e-06 0)
(6.13631e-07 -1.21809e-06 0)
(7.28294e-07 -1.16912e-06 0)
(8.43771e-07 -1.11545e-06 0)
(9.6002e-07 -1.05844e-06 0)
(1.07597e-06 -9.99559e-07 0)
(5.40612e-08 -1.37983e-06 0)
(1.62208e-07 -1.37074e-06 0)
(2.70841e-07 -1.35275e-06 0)
(3.80174e-07 -1.32647e-06 0)
(4.90319e-07 -1.29266e-06 0)
(6.01382e-07 -1.25222e-06 0)
(7.13312e-07 -1.20631e-06 0)
(8.25863e-07 -1.15594e-06 0)
(9.39038e-07 -1.10232e-06 0)
(1.0518e-06 -1.0469e-06 0)
(5.30736e-08 -1.40554e-06 0)
(1.59234e-07 -1.39701e-06 0)
(2.65839e-07 -1.38015e-06 0)
(3.73055e-07 -1.35551e-06 0)
(4.80956e-07 -1.32381e-06 0)
(5.89676e-07 -1.28584e-06 0)
(6.9911e-07 -1.24271e-06 0)
(8.09029e-07 -1.19536e-06 0)
(9.1947e-07 -1.14486e-06 0)
(1.02945e-06 -1.0926e-06 0)
(5.20711e-08 -1.43153e-06 0)
(1.56302e-07 -1.42351e-06 0)
(2.60904e-07 -1.40769e-06 0)
(3.66069e-07 -1.38454e-06 0)
(4.71818e-07 -1.35475e-06 0)
(5.78319e-07 -1.31903e-06 0)
(6.85448e-07 -1.27842e-06 0)
(7.92975e-07 -1.23384e-06 0)
(9.00952e-07 -1.18619e-06 0)
(1.00847e-06 -1.13682e-06 0)
(5.1081e-08 -1.45775e-06 0)
(1.53393e-07 -1.4502e-06 0)
(2.55985e-07 -1.43533e-06 0)
(3.59127e-07 -1.41353e-06 0)
(4.628e-07 -1.38548e-06 0)
(5.67163e-07 -1.35183e-06 0)
(6.72124e-07 -1.31353e-06 0)
(7.77445e-07 -1.27146e-06 0)
(8.83171e-07 -1.22642e-06 0)
(9.88499e-07 -1.17969e-06 0)
(5.00999e-08 -1.48416e-06 0)
(1.50448e-07 -1.47705e-06 0)
(2.51013e-07 -1.46304e-06 0)
(3.52129e-07 -1.44249e-06 0)
(4.53771e-07 -1.41602e-06 0)
(5.56054e-07 -1.38426e-06 0)
(6.5894e-07 -1.34809e-06 0)
(7.62189e-07 -1.30831e-06 0)
(8.65848e-07 -1.26566e-06 0)
(9.69228e-07 -1.22135e-06 0)
(4.90914e-08 -1.5107e-06 0)
(1.47394e-07 -1.50399e-06 0)
(2.45907e-07 -1.49078e-06 0)
(3.4497e-07 -1.47136e-06 0)
(4.44584e-07 -1.44636e-06 0)
(5.44825e-07 -1.41635e-06 0)
(6.45695e-07 -1.38212e-06 0)
(7.46978e-07 -1.34445e-06 0)
(8.48722e-07 -1.30402e-06 0)
(9.50323e-07 -1.26194e-06 0)
(4.80226e-08 -1.53734e-06 0)
(1.44184e-07 -1.53099e-06 0)
(2.40598e-07 -1.5185e-06 0)
(3.37558e-07 -1.50015e-06 0)
(4.3511e-07 -1.47651e-06 0)
(5.33309e-07 -1.44811e-06 0)
(6.32186e-07 -1.41568e-06 0)
(7.31577e-07 -1.37996e-06 0)
(8.315e-07 -1.34159e-06 0)
(9.31433e-07 -1.30155e-06 0)
(4.68872e-08 -1.56395e-06 0)
(1.40806e-07 -1.55795e-06 0)
(2.35035e-07 -1.54614e-06 0)
(3.29805e-07 -1.52879e-06 0)
(4.25219e-07 -1.5064e-06 0)
(5.2134e-07 -1.47949e-06 0)
(6.18224e-07 -1.44874e-06 0)
(7.15762e-07 -1.41484e-06 0)
(8.13903e-07 -1.3784e-06 0)
(9.12254e-07 -1.34025e-06 0)
(4.56888e-08 -1.59051e-06 0)
(1.37237e-07 -1.58484e-06 0)
(2.29138e-07 -1.57367e-06 0)
(3.21594e-07 -1.55725e-06 0)
(4.14768e-07 -1.53605e-06 0)
(5.08741e-07 -1.51055e-06 0)
(6.03596e-07 -1.48138e-06 0)
(6.99237e-07 -1.44922e-06 0)
(7.95612e-07 -1.41454e-06 0)
(8.92387e-07 -1.37818e-06 0)
(4.44152e-08 -1.61681e-06 0)
(1.33417e-07 -1.61146e-06 0)
(2.22807e-07 -1.60089e-06 0)
(3.12795e-07 -1.58537e-06 0)
(4.03592e-07 -1.56528e-06 0)
(4.95312e-07 -1.54112e-06 0)
(5.88049e-07 -1.51347e-06 0)
(6.81706e-07 -1.48293e-06 0)
(7.76283e-07 -1.44996e-06 0)
(8.71491e-07 -1.41527e-06 0)
(4.30328e-08 -1.64294e-06 0)
(1.29252e-07 -1.63789e-06 0)
(2.15902e-07 -1.62791e-06 0)
(3.03231e-07 -1.61324e-06 0)
(3.91471e-07 -1.59425e-06 0)
(4.80781e-07 -1.57139e-06 0)
(5.71255e-07 -1.54519e-06 0)
(6.62842e-07 -1.51621e-06 0)
(7.55517e-07 -1.48488e-06 0)
(8.49132e-07 -1.45181e-06 0)
(4.15205e-08 -1.66834e-06 0)
(1.2471e-07 -1.66358e-06 0)
(2.08373e-07 -1.65419e-06 0)
(2.92816e-07 -1.64035e-06 0)
(3.78309e-07 -1.62244e-06 0)
(4.65026e-07 -1.60086e-06 0)
(5.53061e-07 -1.57611e-06 0)
(6.42459e-07 -1.54866e-06 0)
(7.33151e-07 -1.51896e-06 0)
(8.25142e-07 -1.4875e-06 0)
)


// ************************************************************************* //
