/*--------------------------------*- C++ -*----------------------------------*\
| =========                 |                                                 |
| \\      /  F ield         | foam-extend: Open Source CFD                    |
|  \\    /   O peration     | Version:     4.1                                |
|   \\  /    A nd           | Web:         http://www.foam-extend.org         |
|    \\/     M anipulation  |                                                 |
\*---------------------------------------------------------------------------*/
FoamFile
{
    version     2.0;
    format      ascii;
    class       vectorField;
    location    "3";
    object      solidsCellD_iteration14;
}
// * * * * * * * * * * * * * * * * * * * * * * * * * * * * * * * * * * * * * //


1000
(
(1.51798e-06 -6.17036e-07 0)
(1.43459e-06 -5.7547e-07 0)
(1.38181e-06 -5.49652e-07 0)
(1.35192e-06 -5.38377e-07 0)
(1.33793e-06 -5.35507e-07 0)
(1.33556e-06 -5.39084e-07 0)
(1.34176e-06 -5.46905e-07 0)
(1.35429e-06 -5.57932e-07 0)
(1.37185e-06 -5.71064e-07 0)
(1.39264e-06 -5.85601e-07 0)
(1.37281e-06 -6.7417e-07 0)
(1.28408e-06 -6.4588e-07 0)
(1.22788e-06 -6.28481e-07 0)
(1.19542e-06 -6.22937e-07 0)
(1.17934e-06 -6.23894e-07 0)
(1.17505e-06 -6.3017e-07 0)
(1.17938e-06 -6.39889e-07 0)
(1.19001e-06 -6.52352e-07 0)
(1.2055e-06 -6.66564e-07 0)
(1.22396e-06 -6.82018e-07 0)
(1.22193e-06 -7.283e-07 0)
(1.13129e-06 -7.14843e-07 0)
(1.07381e-06 -7.06864e-07 0)
(1.04022e-06 -7.07617e-07 0)
(1.02301e-06 -7.1271e-07 0)
(1.01742e-06 -7.21822e-07 0)
(1.02029e-06 -7.33509e-07 0)
(1.02931e-06 -7.47354e-07 0)
(1.04297e-06 -7.62619e-07 0)
(1.05959e-06 -7.7875e-07 0)
(1.06636e-06 -7.78469e-07 0)
(9.77711e-07 -7.80532e-07 0)
(9.21411e-07 -7.82423e-07 0)
(8.88161e-07 -7.89727e-07 0)
(8.7077e-07 -7.9909e-07 0)
(8.64473e-07 -8.11091e-07 0)
(8.66168e-07 -8.24731e-07 0)
(8.73725e-07 -8.39931e-07 0)
(8.8564e-07 -8.56202e-07 0)
(9.00367e-07 -8.73092e-07 0)
(9.07356e-07 -8.23671e-07 0)
(8.24339e-07 -8.41111e-07 0)
(7.71604e-07 -8.52758e-07 0)
(7.40303e-07 -8.66517e-07 0)
(7.23668e-07 -8.80066e-07 0)
(7.17174e-07 -8.94913e-07 0)
(7.18018e-07 -9.10464e-07 0)
(7.24236e-07 -9.26989e-07 0)
(7.34451e-07 -9.44252e-07 0)
(7.47168e-07 -9.61924e-07 0)
(7.45471e-07 -8.63035e-07 0)
(6.71854e-07 -8.94845e-07 0)
(6.25092e-07 -9.15629e-07 0)
(5.97141e-07 -9.35434e-07 0)
(5.82095e-07 -9.52891e-07 0)
(5.75928e-07 -9.70371e-07 0)
(5.76247e-07 -9.87681e-07 0)
(5.81238e-07 -1.00543e-06 0)
(5.89699e-07 -1.02362e-06 0)
(6.00259e-07 -1.04208e-06 0)
(5.8168e-07 -8.9563e-07 0)
(5.20637e-07 -9.40029e-07 0)
(4.81857e-07 -9.68838e-07 0)
(4.58575e-07 -9.93955e-07 0)
(4.45957e-07 -1.01483e-06 0)
(4.40643e-07 -1.0346e-06 0)
(4.40663e-07 -1.05344e-06 0)
(4.44471e-07 -1.07227e-06 0)
(4.51099e-07 -1.09127e-06 0)
(4.59391e-07 -1.11045e-06 0)
(4.16461e-07 -9.20783e-07 0)
(3.70709e-07 -9.75305e-07 0)
(3.4167e-07 -1.01053e-06 0)
(3.24218e-07 -1.03987e-06 0)
(3.14726e-07 -1.06349e-06 0)
(3.10647e-07 -1.08513e-06 0)
(3.10508e-07 -1.10523e-06 0)
(3.13157e-07 -1.12494e-06 0)
(3.17909e-07 -1.1446e-06 0)
(3.23871e-07 -1.16437e-06 0)
(2.5027e-07 -9.37886e-07 0)
(2.21947e-07 -9.99458e-07 0)
(2.04011e-07 -1.03915e-06 0)
(1.93178e-07 -1.07149e-06 0)
(1.87232e-07 -1.09704e-06 0)
(1.84634e-07 -1.11995e-06 0)
(1.84511e-07 -1.14095e-06 0)
(1.8611e-07 -1.16131e-06 0)
(1.88965e-07 -1.18145e-06 0)
(1.92546e-07 -1.20165e-06 0)
(8.35861e-08 -9.46502e-07 0)
(7.40074e-08 -1.01174e-06 0)
(6.78725e-08 -1.05373e-06 0)
(6.41798e-08 -1.08759e-06 0)
(6.21974e-08 -1.11413e-06 0)
(6.13071e-08 -1.13773e-06 0)
(6.1206e-08 -1.15915e-06 0)
(6.17218e-08 -1.17983e-06 0)
(6.26908e-08 -1.20022e-06 0)
(6.38842e-08 -1.22066e-06 0)
(2.36471e-06 -2.80863e-08 0)
(2.38531e-06 -2.0236e-08 0)
(2.39829e-06 -1.52904e-08 0)
(2.41254e-06 -1.24117e-08 0)
(2.42841e-06 -1.08433e-08 0)
(2.44783e-06 -1.01791e-08 0)
(2.47086e-06 -1.01391e-08 0)
(2.49762e-06 -1.0452e-08 0)
(2.52812e-06 -1.1076e-08 0)
(2.56192e-06 -1.18467e-08 0)
(2.34727e-06 -8.43109e-08 0)
(2.36444e-06 -6.12163e-08 0)
(2.37528e-06 -4.66405e-08 0)
(2.38806e-06 -3.82428e-08 0)
(2.40295e-06 -3.37637e-08 0)
(2.42165e-06 -3.18073e-08 0)
(2.44419e-06 -3.16716e-08 0)
(2.47056e-06 -3.27379e-08 0)
(2.50069e-06 -3.46566e-08 0)
(2.53414e-06 -3.68958e-08 0)
(2.31252e-06 -1.40974e-07 0)
(2.32308e-06 -1.03949e-07 0)
(2.32976e-06 -8.06118e-08 0)
(2.33978e-06 -6.70827e-08 0)
(2.35284e-06 -5.99092e-08 0)
(2.37027e-06 -5.69413e-08 0)
(2.39182e-06 -5.68612e-08 0)
(2.41745e-06 -5.86574e-08 0)
(2.44687e-06 -6.18237e-08 0)
(2.47963e-06 -6.55629e-08 0)
(2.26103e-06 -1.98404e-07 0)
(2.2622e-06 -1.49415e-07 0)
(2.26291e-06 -1.18637e-07 0)
(2.269e-06 -1.00888e-07 0)
(2.27943e-06 -9.15017e-08 0)
(2.29505e-06 -8.7707e-08 0)
(2.31523e-06 -8.77519e-08 0)
(2.3398e-06 -9.03356e-08 0)
(2.36825e-06 -9.47291e-08 0)
(2.40005e-06 -9.99516e-08 0)
(2.19353e-06 -2.56726e-07 0)
(2.18314e-06 -1.98454e-07 0)
(2.17647e-06 -1.61897e-07 0)
(2.17768e-06 -1.40997e-07 0)
(2.18488e-06 -1.30062e-07 0)
(2.19823e-06 -1.25835e-07 0)
(2.21671e-06 -1.26195e-07 0)
(2.23992e-06 -1.29634e-07 0)
(2.26718e-06 -1.35224e-07 0)
(2.29785e-06 -1.41874e-07 0)
(2.11101e-06 -3.16015e-07 0)
(2.08753e-06 -2.51674e-07 0)
(2.07258e-06 -2.11326e-07 0)
(2.06829e-06 -1.88527e-07 0)
(2.07181e-06 -1.76816e-07 0)
(2.08254e-06 -1.72606e-07 0)
(2.09912e-06 -1.73499e-07 0)
(2.12078e-06 -1.77855e-07 0)
(2.14669e-06 -1.84624e-07 0)
(2.17607e-06 -1.92645e-07 0)
(2.01472e-06 -3.76141e-07 0)
(1.97736e-06 -3.09305e-07 0)
(1.95363e-06 -2.67398e-07 0)
(1.94354e-06 -2.44079e-07 0)
(1.94317e-06 -2.32411e-07 0)
(1.95115e-06 -2.28713e-07 0)
(1.96568e-06 -2.3039e-07 0)
(1.98569e-06 -2.3572e-07 0)
(2.01013e-06 -2.43628e-07 0)
(2.03817e-06 -2.52918e-07 0)
(1.90585e-06 -4.36791e-07 0)
(1.85477e-06 -3.71182e-07 0)
(1.82238e-06 -3.30052e-07 0)
(1.80649e-06 -3.07692e-07 0)
(1.80228e-06 -2.96949e-07 0)
(1.80748e-06 -2.943e-07 0)
(1.81991e-06 -2.97052e-07 0)
(1.8382e-06 -3.03484e-07 0)
(1.86111e-06 -3.12521e-07 0)
(1.8877e-06 -3.23e-07 0)
(1.78584e-06 -4.97574e-07 0)
(1.722e-06 -4.36779e-07 0)
(1.68153e-06 -3.98755e-07 0)
(1.66021e-06 -3.788e-07 0)
(1.65232e-06 -3.69867e-07 0)
(1.65475e-06 -3.68771e-07 0)
(1.66506e-06 -3.72881e-07 0)
(1.68156e-06 -3.80525e-07 0)
(1.7029e-06 -3.90727e-07 0)
(1.72802e-06 -4.02154e-07 0)
(1.65609e-06 -5.57915e-07 0)
(1.5813e-06 -5.05266e-07 0)
(1.53388e-06 -4.72437e-07 0)
(1.5078e-06 -4.56255e-07 0)
(1.49661e-06 -4.49989e-07 0)
(1.49656e-06 -4.50971e-07 0)
(1.50495e-06 -4.56777e-07 0)
(1.51969e-06 -4.65955e-07 0)
(1.53958e-06 -4.77461e-07 0)
(1.56291e-06 -4.90525e-07 0)
(2.59908e-06 -1.25776e-08 0)
(2.63954e-06 -1.27895e-08 0)
(2.68253e-06 -1.30027e-08 0)
(2.72789e-06 -1.31666e-08 0)
(2.77535e-06 -1.32772e-08 0)
(2.82475e-06 -1.33259e-08 0)
(2.87586e-06 -1.32768e-08 0)
(2.92849e-06 -1.31542e-08 0)
(2.9825e-06 -1.29781e-08 0)
(3.03775e-06 -1.27248e-08 0)
(3.09406e-06 -1.23725e-08 0)
(3.15127e-06 -1.19149e-08 0)
(3.20923e-06 -1.13457e-08 0)
(3.26779e-06 -1.06634e-08 0)
(3.32681e-06 -9.86146e-09 0)
(3.38609e-06 -8.92045e-09 0)
(3.44552e-06 -7.81316e-09 0)
(3.50476e-06 -6.51295e-09 0)
(3.56384e-06 -4.99305e-09 0)
(3.62199e-06 -3.24296e-09 0)
(2.57251e-06 -3.89243e-08 0)
(2.61518e-06 -3.9391e-08 0)
(2.66014e-06 -3.98952e-08 0)
(2.70723e-06 -4.0271e-08 0)
(2.75625e-06 -4.04564e-08 0)
(2.807e-06 -4.04833e-08 0)
(2.85934e-06 -4.03146e-08 0)
(2.91311e-06 -3.99561e-08 0)
(2.96816e-06 -3.93804e-08 0)
(3.02434e-06 -3.85389e-08 0)
(3.0815e-06 -3.74207e-08 0)
(3.13951e-06 -3.60282e-08 0)
(3.19824e-06 -3.43319e-08 0)
(3.25753e-06 -3.22936e-08 0)
(3.31724e-06 -2.98711e-08 0)
(3.37718e-06 -2.70179e-08 0)
(3.43724e-06 -2.36726e-08 0)
(3.49708e-06 -1.97693e-08 0)
(3.55676e-06 -1.52163e-08 0)
(3.61546e-06 -9.9753e-09 0)
(2.52037e-06 -6.85593e-08 0)
(2.56739e-06 -6.88017e-08 0)
(2.61623e-06 -6.91441e-08 0)
(2.66665e-06 -6.93988e-08 0)
(2.71865e-06 -6.94235e-08 0)
(2.77211e-06 -6.92507e-08 0)
(2.8269e-06 -6.87807e-08 0)
(2.88284e-06 -6.80033e-08 0)
(2.93988e-06 -6.68777e-08 0)
(2.99787e-06 -6.53583e-08 0)
(3.05671e-06 -6.34303e-08 0)
(3.11629e-06 -6.10722e-08 0)
(3.17648e-06 -5.82135e-08 0)
(3.23713e-06 -5.47842e-08 0)
(3.29813e-06 -5.07213e-08 0)
(3.3593e-06 -4.59543e-08 0)
(3.42057e-06 -4.03787e-08 0)
(3.48161e-06 -3.38863e-08 0)
(3.54248e-06 -2.63146e-08 0)
(3.60237e-06 -1.7596e-08 0)
(2.44417e-06 -1.03325e-07 0)
(2.49738e-06 -1.02587e-07 0)
(2.55181e-06 -1.02087e-07 0)
(2.60713e-06 -1.01694e-07 0)
(2.66356e-06 -1.01118e-07 0)
(2.72092e-06 -1.00393e-07 0)
(2.77924e-06 -9.93314e-08 0)
(2.83838e-06 -9.79239e-08 0)
(2.89837e-06 -9.60963e-08 0)
(2.95908e-06 -9.37814e-08 0)
(3.02044e-06 -9.09339e-08 0)
(3.08233e-06 -8.75013e-08 0)
(3.14467e-06 -8.33916e-08 0)
(3.20734e-06 -7.852e-08 0)
(3.27026e-06 -7.28072e-08 0)
(3.33328e-06 -6.61361e-08 0)
(3.39631e-06 -5.83601e-08 0)
(3.45908e-06 -4.93161e-08 0)
(3.52161e-06 -3.87627e-08 0)
(3.5832e-06 -2.66317e-08 0)
(2.34621e-06 -1.44848e-07 0)
(2.40724e-06 -1.42151e-07 0)
(2.46879e-06 -1.39957e-07 0)
(2.53029e-06 -1.38266e-07 0)
(2.59233e-06 -1.36528e-07 0)
(2.65469e-06 -1.34798e-07 0)
(2.71757e-06 -1.32782e-07 0)
(2.78085e-06 -1.3046e-07 0)
(2.84461e-06 -1.2769e-07 0)
(2.90877e-06 -1.24373e-07 0)
(2.97333e-06 -1.20447e-07 0)
(3.03822e-06 -1.1583e-07 0)
(3.10337e-06 -1.10399e-07 0)
(3.1687e-06 -1.04038e-07 0)
(3.23415e-06 -9.66379e-08 0)
(3.29955e-06 -8.80406e-08 0)
(3.3649e-06 -7.80598e-08 0)
(3.42988e-06 -6.64874e-08 0)
(3.49463e-06 -5.29975e-08 0)
(3.55841e-06 -3.75238e-08 0)
(2.2292e-06 -1.94349e-07 0)
(2.29922e-06 -1.88543e-07 0)
(2.36913e-06 -1.83605e-07 0)
(2.43797e-06 -1.79805e-07 0)
(2.50671e-06 -1.76246e-07 0)
(2.57508e-06 -1.72977e-07 0)
(2.64336e-06 -1.69557e-07 0)
(2.71159e-06 -1.65937e-07 0)
(2.77989e-06 -1.61933e-07 0)
(2.84824e-06 -1.57403e-07 0)
(2.91668e-06 -1.52243e-07 0)
(2.98518e-06 -1.46326e-07 0)
(3.05372e-06 -1.39487e-07 0)
(3.12221e-06 -1.31582e-07 0)
(3.19066e-06 -1.22459e-07 0)
(3.25893e-06 -1.11933e-07 0)
(3.32705e-06 -9.97625e-08 0)
(3.39471e-06 -8.57095e-08 0)
(3.46212e-06 -6.93671e-08 0)
(3.52855e-06 -5.06259e-08 0)
(2.09644e-06 -2.52496e-07 0)
(2.17627e-06 -2.42444e-07 0)
(2.25542e-06 -2.33738e-07 0)
(2.33243e-06 -2.26953e-07 0)
(2.40861e-06 -2.20851e-07 0)
(2.48372e-06 -2.15412e-07 0)
(2.55815e-06 -2.10128e-07 0)
(2.632e-06 -2.04831e-07 0)
(2.70547e-06 -1.99289e-07 0)
(2.77862e-06 -1.93306e-07 0)
(2.85152e-06 -1.86715e-07 0)
(2.92417e-06 -1.79336e-07 0)
(2.99657e-06 -1.70965e-07 0)
(3.06872e-06 -1.61433e-07 0)
(3.14063e-06 -1.50547e-07 0)
(3.21222e-06 -1.38086e-07 0)
(3.28353e-06 -1.23752e-07 0)
(3.35431e-06 -1.07262e-07 0)
(3.42475e-06 -8.81437e-08 0)
(3.49422e-06 -6.62342e-08 0)
(1.9511e-06 -3.19534e-07 0)
(2.04106e-06 -3.03898e-07 0)
(2.12995e-06 -2.9035e-07 0)
(2.21572e-06 -2.79588e-07 0)
(2.3e-06 -2.70217e-07 0)
(2.38245e-06 -2.61975e-07 0)
(2.46368e-06 -2.54328e-07 0)
(2.54377e-06 -2.46962e-07 0)
(2.62297e-06 -2.39573e-07 0)
(2.70141e-06 -2.31893e-07 0)
(2.77921e-06 -2.23684e-07 0)
(2.85643e-06 -2.14709e-07 0)
(2.93311e-06 -2.04729e-07 0)
(3.00932e-06 -1.93533e-07 0)
(3.08509e-06 -1.80882e-07 0)
(3.16038e-06 -1.66511e-07 0)
(3.23524e-06 -1.50067e-07 0)
(3.30947e-06 -1.31214e-07 0)
(3.38328e-06 -1.09414e-07 0)
(3.45611e-06 -8.44587e-08 0)
(1.79661e-06 -3.9528e-07 0)
(1.89678e-06 -3.73061e-07 0)
(1.99548e-06 -3.5403e-07 0)
(2.09034e-06 -3.38435e-07 0)
(2.18299e-06 -3.25087e-07 0)
(2.27321e-06 -3.13419e-07 0)
(2.36157e-06 -3.02867e-07 0)
(2.44827e-06 -2.92973e-07 0)
(2.53359e-06 -2.83358e-07 0)
(2.61772e-06 -2.73669e-07 0)
(2.7008e-06 -2.63594e-07 0)
(2.78295e-06 -2.52841e-07 0)
(2.86429e-06 -2.41124e-07 0)
(2.94491e-06 -2.28182e-07 0)
(3.02487e-06 -2.13722e-07 0)
(3.10418e-06 -1.97422e-07 0)
(3.18289e-06 -1.78883e-07 0)
(3.26086e-06 -1.57713e-07 0)
(3.33832e-06 -1.33328e-07 0)
(3.41483e-06 -1.0547e-07 0)
(1.63602e-06 -4.78538e-07 0)
(1.74692e-06 -4.47725e-07 0)
(1.85527e-06 -4.22412e-07 0)
(1.95955e-06 -4.0123e-07 0)
(2.06069e-06 -3.83343e-07 0)
(2.15896e-06 -3.67812e-07 0)
(2.25471e-06 -3.5399e-07 0)
(2.34827e-06 -3.41292e-07 0)
(2.43995e-06 -3.29247e-07 0)
(2.52999e-06 -3.17406e-07 0)
(2.61857e-06 -3.05381e-07 0)
(2.70587e-06 -2.92813e-07 0)
(2.79206e-06 -2.79359e-07 0)
(2.87726e-06 -2.64701e-07 0)
(2.96156e-06 -2.48491e-07 0)
(3.04502e-06 -2.30351e-07 0)
(3.12772e-06 -2.09843e-07 0)
(3.20958e-06 -1.865e-07 0)
(3.29087e-06 -1.5971e-07 0)
(3.37124e-06 -1.29133e-07 0)
(1.51542e-06 -5.60082e-07 0)
(1.63394e-06 -5.21828e-07 0)
(1.74839e-06 -4.91509e-07 0)
(1.85888e-06 -4.65562e-07 0)
(1.96573e-06 -4.43462e-07 0)
(2.06935e-06 -4.24166e-07 0)
(2.1701e-06 -4.06966e-07 0)
(2.26833e-06 -3.91244e-07 0)
(2.36434e-06 -3.76464e-07 0)
(2.45838e-06 -3.62127e-07 0)
(2.55068e-06 -3.47806e-07 0)
(2.64143e-06 -3.33106e-07 0)
(2.73083e-06 -3.17644e-07 0)
(2.81902e-06 -3.0106e-07 0)
(2.90611e-06 -2.82974e-07 0)
(2.99219e-06 -2.62965e-07 0)
(3.07738e-06 -2.40598e-07 0)
(3.16168e-06 -2.15347e-07 0)
(3.24535e-06 -1.86606e-07 0)
(3.32815e-06 -1.53977e-07 0)
(1.44733e-06 -6.27104e-07 0)
(1.56688e-06 -5.87363e-07 0)
(1.68238e-06 -5.54188e-07 0)
(1.79454e-06 -5.25273e-07 0)
(1.90331e-06 -5.00124e-07 0)
(2.00895e-06 -4.77864e-07 0)
(2.11174e-06 -4.57823e-07 0)
(2.21195e-06 -4.39407e-07 0)
(2.30983e-06 -4.22072e-07 0)
(2.4056e-06 -4.05324e-07 0)
(2.49949e-06 -3.88736e-07 0)
(2.5917e-06 -3.71904e-07 0)
(2.68241e-06 -3.54429e-07 0)
(2.77178e-06 -3.35941e-07 0)
(2.85991e-06 -3.16052e-07 0)
(2.94694e-06 -2.94326e-07 0)
(3.03298e-06 -2.70361e-07 0)
(3.11811e-06 -2.43617e-07 0)
(3.20258e-06 -2.1351e-07 0)
(3.28623e-06 -1.79643e-07 0)
(1.38993e-06 -6.90959e-07 0)
(1.5083e-06 -6.50444e-07 0)
(1.62375e-06 -6.15555e-07 0)
(1.73631e-06 -5.84494e-07 0)
(1.8459e-06 -5.569e-07 0)
(1.9526e-06 -5.32088e-07 0)
(2.05659e-06 -5.09481e-07 0)
(2.15805e-06 -4.88541e-07 0)
(2.25718e-06 -4.68758e-07 0)
(2.35416e-06 -4.49667e-07 0)
(2.44921e-06 -4.30854e-07 0)
(2.54251e-06 -4.11914e-07 0)
(2.63423e-06 -3.92444e-07 0)
(2.72451e-06 -3.72075e-07 0)
(2.81348e-06 -3.50425e-07 0)
(2.9013e-06 -3.27052e-07 0)
(2.98808e-06 -3.01577e-07 0)
(3.07394e-06 -2.7348e-07 0)
(3.15911e-06 -2.42199e-07 0)
(3.24355e-06 -2.07365e-07 0)
(1.33957e-06 -7.52695e-07 0)
(1.45629e-06 -7.11882e-07 0)
(1.57081e-06 -6.75727e-07 0)
(1.68296e-06 -6.42899e-07 0)
(1.79253e-06 -6.13207e-07 0)
(1.89955e-06 -5.86131e-07 0)
(2.00409e-06 -5.61193e-07 0)
(2.10622e-06 -5.37912e-07 0)
(2.20611e-06 -5.15831e-07 0)
(2.30391e-06 -4.9452e-07 0)
(2.39977e-06 -4.73584e-07 0)
(2.49387e-06 -4.52626e-07 0)
(2.58636e-06 -4.31247e-07 0)
(2.67738e-06 -4.09088e-07 0)
(2.76704e-06 -3.85772e-07 0)
(2.85553e-06 -3.60874e-07 0)
(2.94295e-06 -3.34034e-07 0)
(3.02947e-06 -3.04757e-07 0)
(3.11528e-06 -2.72522e-07 0)
(3.20051e-06 -2.37006e-07 0)
(1.2954e-06 -8.11751e-07 0)
(1.41004e-06 -7.71006e-07 0)
(1.52309e-06 -7.34105e-07 0)
(1.63419e-06 -7.00011e-07 0)
(1.74318e-06 -6.68667e-07 0)
(1.84994e-06 -6.39702e-07 0)
(1.95446e-06 -6.12728e-07 0)
(2.05678e-06 -5.87348e-07 0)
(2.15701e-06 -5.63163e-07 0)
(2.25524e-06 -5.39788e-07 0)
(2.3516e-06 -5.16857e-07 0)
(2.44622e-06 -4.93988e-07 0)
(2.53925e-06 -4.70795e-07 0)
(2.63081e-06 -4.46944e-07 0)
(2.72102e-06 -4.22065e-07 0)
(2.81004e-06 -3.95759e-07 0)
(2.89801e-06 -3.67685e-07 0)
(2.98511e-06 -3.37379e-07 0)
(3.07152e-06 -3.04383e-07 0)
(3.15747e-06 -2.68426e-07 0)
(1.25625e-06 -8.68379e-07 0)
(1.36862e-06 -8.27933e-07 0)
(1.4799e-06 -7.90603e-07 0)
(1.58957e-06 -7.55588e-07 0)
(1.69753e-06 -7.22941e-07 0)
(1.80358e-06 -6.924e-07 0)
(1.90767e-06 -6.63671e-07 0)
(2.00979e-06 -6.36443e-07 0)
(2.10999e-06 -6.10372e-07 0)
(2.20832e-06 -5.85116e-07 0)
(2.30489e-06 -5.60348e-07 0)
(2.39979e-06 -5.35709e-07 0)
(2.49314e-06 -5.10832e-07 0)
(2.58506e-06 -4.85416e-07 0)
(2.67566e-06 -4.59095e-07 0)
(2.76511e-06 -4.31521e-07 0)
(2.85352e-06 -4.02357e-07 0)
(2.94111e-06 -3.71188e-07 0)
(3.02807e-06 -3.37622e-07 0)
(3.11463e-06 -3.01423e-07 0)
(1.22134e-06 -9.22647e-07 0)
(1.33134e-06 -8.82664e-07 0)
(1.44063e-06 -8.45159e-07 0)
(1.54863e-06 -8.09522e-07 0)
(1.65527e-06 -7.75881e-07 0)
(1.76028e-06 -7.44056e-07 0)
(1.86361e-06 -7.1385e-07 0)
(1.9652e-06 -6.85025e-07 0)
(2.06507e-06 -6.57286e-07 0)
(2.16324e-06 -6.30343e-07 0)
(2.25976e-06 -6.03907e-07 0)
(2.35471e-06 -5.77647e-07 0)
(2.44819e-06 -5.51228e-07 0)
(2.5403e-06 -5.24384e-07 0)
(2.63115e-06 -4.96754e-07 0)
(2.7209e-06 -4.68043e-07 0)
(2.80967e-06 -4.37933e-07 0)
(2.89767e-06 -4.06057e-07 0)
(2.9851e-06 -3.72086e-07 0)
(3.07217e-06 -3.35802e-07 0)
(1.1899e-06 -9.74717e-07 0)
(1.29754e-06 -9.35292e-07 0)
(1.40472e-06 -8.9779e-07 0)
(1.51091e-06 -8.61756e-07 0)
(1.616e-06 -8.27365e-07 0)
(1.71975e-06 -7.9451e-07 0)
(1.82207e-06 -7.63078e-07 0)
(1.92289e-06 -7.32891e-07 0)
(2.02219e-06 -7.037e-07 0)
(2.11995e-06 -6.75264e-07 0)
(2.21622e-06 -6.47339e-07 0)
(2.31103e-06 -6.19623e-07 0)
(2.40447e-06 -5.91814e-07 0)
(2.49664e-06 -5.63686e-07 0)
(2.58762e-06 -5.34893e-07 0)
(2.67758e-06 -5.05184e-07 0)
(2.76662e-06 -4.74273e-07 0)
(2.85496e-06 -4.41839e-07 0)
(2.94278e-06 -4.07601e-07 0)
(3.03029e-06 -3.71367e-07 0)
(1.16126e-06 -1.02475e-06 0)
(1.26656e-06 -9.85933e-07 0)
(1.37161e-06 -9.48558e-07 0)
(1.47588e-06 -9.12297e-07 0)
(1.57931e-06 -8.77355e-07 0)
(1.68165e-06 -8.43692e-07 0)
(1.7828e-06 -8.11259e-07 0)
(1.88268e-06 -7.79926e-07 0)
(1.98122e-06 -7.49487e-07 0)
(2.0784e-06 -7.19753e-07 0)
(2.17425e-06 -6.90518e-07 0)
(2.26878e-06 -6.61515e-07 0)
(2.36206e-06 -6.32475e-07 0)
(2.45417e-06 -6.03211e-07 0)
(2.5452e-06 -5.734e-07 0)
(2.63528e-06 -5.42832e-07 0)
(2.72453e-06 -5.11259e-07 0)
(2.81315e-06 -4.78394e-07 0)
(2.90125e-06 -4.44005e-07 0)
(2.98917e-06 -4.07944e-07 0)
(1.13486e-06 -1.07292e-06 0)
(1.23785e-06 -1.03472e-06 0)
(1.34078e-06 -9.97548e-07 0)
(1.44311e-06 -9.61184e-07 0)
(1.54483e-06 -9.25857e-07 0)
(1.64567e-06 -8.91574e-07 0)
(1.74556e-06 -8.58332e-07 0)
(1.84437e-06 -8.26046e-07 0)
(1.94203e-06 -7.94553e-07 0)
(2.03852e-06 -7.63706e-07 0)
(2.13382e-06 -7.33338e-07 0)
(2.22796e-06 -7.03214e-07 0)
(2.32098e-06 -6.73104e-07 0)
(2.41294e-06 -6.42852e-07 0)
(2.50392e-06 -6.12167e-07 0)
(2.59406e-06 -5.80876e-07 0)
(2.68343e-06 -5.48768e-07 0)
(2.77224e-06 -5.15582e-07 0)
(2.86059e-06 -4.81145e-07 0)
(2.94883e-06 -4.45362e-07 0)
(1.11014e-06 -1.11937e-06 0)
(1.21091e-06 -1.08178e-06 0)
(1.31176e-06 -1.04487e-06 0)
(1.41218e-06 -1.0085e-06 0)
(1.51219e-06 -9.72921e-07 0)
(1.61152e-06 -9.3817e-07 0)
(1.71007e-06 -9.04285e-07 0)
(1.80775e-06 -8.71219e-07 0)
(1.90445e-06 -8.38847e-07 0)
(2.00015e-06 -8.0706e-07 0)
(2.09483e-06 -7.75729e-07 0)
(2.18849e-06 -7.44646e-07 0)
(2.28117e-06 -7.13618e-07 0)
(2.37292e-06 -6.82523e-07 0)
(2.46379e-06 -6.51099e-07 0)
(2.55392e-06 -6.19211e-07 0)
(2.64336e-06 -5.86674e-07 0)
(2.73228e-06 -5.53265e-07 0)
(2.82085e-06 -5.18874e-07 0)
(2.90929e-06 -4.83435e-07 0)
(1.08665e-06 -1.16428e-06 0)
(1.18531e-06 -1.12727e-06 0)
(1.28415e-06 -1.09064e-06 0)
(1.38273e-06 -1.05434e-06 0)
(1.48105e-06 -1.01861e-06 0)
(1.57886e-06 -9.83511e-07 0)
(1.67605e-06 -9.49127e-07 0)
(1.77256e-06 -9.15433e-07 0)
(1.86826e-06 -8.82343e-07 0)
(1.96314e-06 -8.49775e-07 0)
(2.05715e-06 -8.17636e-07 0)
(2.1503e-06 -7.85746e-07 0)
(2.2426e-06 -7.53946e-07 0)
(2.33409e-06 -7.22145e-07 0)
(2.42482e-06 -6.90111e-07 0)
(2.51489e-06 -6.57736e-07 0)
(2.60434e-06 -6.24867e-07 0)
(2.69335e-06 -5.91326e-07 0)
(2.78207e-06 -5.57059e-07 0)
(2.87067e-06 -5.2199e-07 0)
(1.06404e-06 -1.20776e-06 0)
(1.16068e-06 -1.1713e-06 0)
(1.25759e-06 -1.13498e-06 0)
(1.35439e-06 -1.09879e-06 0)
(1.45106e-06 -1.06299e-06 0)
(1.54736e-06 -1.02765e-06 0)
(1.64323e-06 -9.92886e-07 0)
(1.73857e-06 -9.58702e-07 0)
(1.83329e-06 -9.2504e-07 0)
(1.92734e-06 -8.91841e-07 0)
(2.02069e-06 -8.59043e-07 0)
(2.1133e-06 -8.26492e-07 0)
(2.2052e-06 -7.94058e-07 0)
(2.29641e-06 -7.61679e-07 0)
(2.38695e-06 -7.29147e-07 0)
(2.47692e-06 -6.96382e-07 0)
(2.56634e-06 -6.63266e-07 0)
(2.65541e-06 -6.2967e-07 0)
(2.74418e-06 -5.95572e-07 0)
(2.83292e-06 -5.60908e-07 0)
(1.04193e-06 -1.24996e-06 0)
(1.13665e-06 -1.21402e-06 0)
(1.23173e-06 -1.178e-06 0)
(1.32681e-06 -1.14196e-06 0)
(1.42189e-06 -1.10614e-06 0)
(1.51676e-06 -1.07064e-06 0)
(1.61137e-06 -1.03562e-06 0)
(1.70558e-06 -1.00107e-06 0)
(1.79935e-06 -9.66973e-07 0)
(1.89258e-06 -9.33274e-07 0)
(1.98526e-06 -8.99946e-07 0)
(2.07734e-06 -8.66858e-07 0)
(2.16883e-06 -8.33908e-07 0)
(2.25974e-06 -8.01058e-07 0)
(2.35008e-06 -7.68125e-07 0)
(2.43992e-06 -7.35054e-07 0)
(2.52929e-06 -7.01769e-07 0)
(2.61837e-06 -6.68175e-07 0)
(2.70716e-06 -6.34267e-07 0)
(2.79597e-06 -6.00053e-07 0)
(1.01994e-06 -1.29099e-06 0)
(1.11284e-06 -1.25553e-06 0)
(1.20617e-06 -1.21981e-06 0)
(1.29963e-06 -1.18393e-06 0)
(1.39323e-06 -1.14815e-06 0)
(1.48675e-06 -1.11259e-06 0)
(1.58017e-06 -1.0774e-06 0)
(1.67332e-06 -1.0426e-06 0)
(1.76618e-06 -1.00816e-06 0)
(1.85866e-06 -9.74083e-07 0)
(1.95072e-06 -9.40348e-07 0)
(2.04231e-06 -9.06846e-07 0)
(2.13342e-06 -8.73494e-07 0)
(2.22405e-06 -8.40274e-07 0)
(2.31419e-06 -8.07023e-07 0)
(2.40391e-06 -7.73719e-07 0)
(2.49323e-06 -7.40324e-07 0)
(2.58226e-06 -7.06771e-07 0)
(2.6711e-06 -6.73087e-07 0)
(2.75992e-06 -6.39311e-07 0)
(9.97674e-07 -1.33096e-06 0)
(1.08886e-06 -1.29597e-06 0)
(1.18054e-06 -1.2605e-06 0)
(1.27251e-06 -1.22482e-06 0)
(1.36474e-06 -1.18914e-06 0)
(1.45704e-06 -1.15359e-06 0)
(1.54936e-06 -1.1183e-06 0)
(1.64158e-06 -1.08334e-06 0)
(1.73362e-06 -1.04869e-06 0)
(1.8254e-06 -1.01433e-06 0)
(1.91689e-06 -9.80296e-07 0)
(2.00802e-06 -9.46481e-07 0)
(2.09879e-06 -9.12819e-07 0)
(2.18915e-06 -8.79303e-07 0)
(2.27911e-06 -8.45801e-07 0)
(2.36872e-06 -8.1233e-07 0)
(2.45799e-06 -7.78872e-07 0)
(2.54698e-06 -7.45371e-07 0)
(2.63581e-06 -7.11928e-07 0)
(2.72464e-06 -6.78585e-07 0)
(9.7475e-07 -1.37001e-06 0)
(1.06428e-06 -1.33536e-06 0)
(1.15441e-06 -1.30021e-06 0)
(1.24509e-06 -1.26479e-06 0)
(1.33608e-06 -1.22924e-06 0)
(1.42731e-06 -1.19375e-06 0)
(1.51867e-06 -1.15845e-06 0)
(1.61006e-06 -1.1234e-06 0)
(1.70138e-06 -1.0886e-06 0)
(1.79258e-06 -1.05407e-06 0)
(1.88359e-06 -1.01983e-06 0)
(1.97435e-06 -9.85784e-07 0)
(2.06482e-06 -9.51881e-07 0)
(2.15497e-06 -9.18146e-07 0)
(2.24479e-06 -8.8447e-07 0)
(2.33433e-06 -8.50871e-07 0)
(2.42354e-06 -8.17353e-07 0)
(2.51254e-06 -7.8392e-07 0)
(2.60131e-06 -7.50716e-07 0)
(2.69014e-06 -7.17775e-07 0)
(9.50657e-07 -1.4081e-06 0)
(1.03877e-06 -1.37385e-06 0)
(1.12763e-06 -1.33907e-06 0)
(1.21708e-06 -1.3039e-06 0)
(1.30703e-06 -1.26855e-06 0)
(1.39733e-06 -1.23317e-06 0)
(1.48788e-06 -1.19791e-06 0)
(1.57858e-06 -1.16286e-06 0)
(1.66933e-06 -1.12801e-06 0)
(1.76007e-06 -1.09338e-06 0)
(1.8507e-06 -1.059e-06 0)
(1.94115e-06 -1.02481e-06 0)
(2.0314e-06 -9.90743e-07 0)
(2.12141e-06 -9.56843e-07 0)
(2.21116e-06 -9.23031e-07 0)
(2.30065e-06 -8.89342e-07 0)
(2.38983e-06 -8.55778e-07 0)
(2.47888e-06 -8.22389e-07 0)
(2.56768e-06 -7.89391e-07 0)
(2.65643e-06 -7.56857e-07 0)
(9.25035e-07 -1.44561e-06 0)
(1.01185e-06 -1.41177e-06 0)
(1.09959e-06 -1.3773e-06 0)
(1.18805e-06 -1.34241e-06 0)
(1.27714e-06 -1.30727e-06 0)
(1.36672e-06 -1.27204e-06 0)
(1.45667e-06 -1.23688e-06 0)
(1.54688e-06 -1.20187e-06 0)
(1.63724e-06 -1.16702e-06 0)
(1.72764e-06 -1.13236e-06 0)
(1.81801e-06 -1.09791e-06 0)
(1.90829e-06 -1.0636e-06 0)
(1.99843e-06 -1.02943e-06 0)
(2.08836e-06 -9.95444e-07 0)
(2.17807e-06 -9.61514e-07 0)
(2.26759e-06 -9.27701e-07 0)
(2.35687e-06 -8.94118e-07 0)
(2.44593e-06 -8.60762e-07 0)
(2.53481e-06 -8.27873e-07 0)
(2.62357e-06 -7.95673e-07 0)
(8.97589e-07 -1.48228e-06 0)
(9.83308e-07 -1.4489e-06 0)
(1.07012e-06 -1.41485e-06 0)
(1.15782e-06 -1.3803e-06 0)
(1.24629e-06 -1.34544e-06 0)
(1.33539e-06 -1.31042e-06 0)
(1.42498e-06 -1.27543e-06 0)
(1.51491e-06 -1.24055e-06 0)
(1.60505e-06 -1.20574e-06 0)
(1.69532e-06 -1.17107e-06 0)
(1.78559e-06 -1.13661e-06 0)
(1.87579e-06 -1.10228e-06 0)
(1.96588e-06 -1.06802e-06 0)
(2.05582e-06 -1.03393e-06 0)
(2.14556e-06 -9.99954e-07 0)
(2.23514e-06 -9.6607e-07 0)
(2.32458e-06 -9.32424e-07 0)
(2.41379e-06 -8.99024e-07 0)
(2.50286e-06 -8.66166e-07 0)
(2.59171e-06 -8.34161e-07 0)
(6.37483e-08 -1.24153e-06 0)
(1.92043e-07 -1.22341e-06 0)
(3.22657e-07 -1.18785e-06 0)
(4.56957e-07 -1.13634e-06 0)
(5.95939e-07 -1.07086e-06 0)
(7.40238e-07 -9.93851e-07 0)
(8.90077e-07 -9.08191e-07 0)
(1.04515e-06 -8.16757e-07 0)
(1.20517e-06 -7.22497e-07 0)
(1.36868e-06 -6.27629e-07 0)
(6.20507e-08 -1.26324e-06 0)
(1.86842e-07 -1.24667e-06 0)
(3.13525e-07 -1.21414e-06 0)
(4.43268e-07 -1.16691e-06 0)
(5.76907e-07 -1.10666e-06 0)
(7.1494e-07 -1.03548e-06 0)
(8.57614e-07 -9.55791e-07 0)
(1.00448e-06 -8.70148e-07 0)
(1.15516e-06 -7.81154e-07 0)
(1.30809e-06 -6.91171e-07 0)
(6.05139e-08 -1.28543e-06 0)
(1.82123e-07 -1.27028e-06 0)
(3.0527e-07 -1.24047e-06 0)
(4.30852e-07 -1.19713e-06 0)
(5.59618e-07 -1.14172e-06 0)
(6.91924e-07 -1.07605e-06 0)
(8.28052e-07 -1.0022e-06 0)
(9.6771e-07 -9.22364e-07 0)
(1.11067e-06 -8.38723e-07 0)
(1.25571e-06 -7.53216e-07 0)
(5.91576e-08 -1.30814e-06 0)
(1.7793e-07 -1.29417e-06 0)
(2.98022e-07 -1.26671e-06 0)
(4.20069e-07 -1.22671e-06 0)
(5.44746e-07 -1.17548e-06 0)
(6.72299e-07 -1.11459e-06 0)
(8.02948e-07 -1.0459e-06 0)
(9.36415e-07 -9.71368e-07 0)
(1.07246e-06 -8.93009e-07 0)
(1.21011e-06 -8.12543e-07 0)
(5.79259e-08 -1.33136e-06 0)
(1.7409e-07 -1.31847e-06 0)
(2.91373e-07 -1.29312e-06 0)
(4.10231e-07 -1.25613e-06 0)
(5.31246e-07 -1.20868e-06 0)
(6.54604e-07 -1.1522e-06 0)
(7.80496e-07 -1.08831e-06 0)
(9.08691e-07 -1.01868e-06 0)
(1.03898e-06 -9.4518e-07 0)
(1.17037e-06 -8.69381e-07 0)
(5.67621e-08 -1.35507e-06 0)
(1.70555e-07 -1.34311e-06 0)
(2.85266e-07 -1.31958e-06 0)
(4.01283e-07 -1.28526e-06 0)
(5.19072e-07 -1.24114e-06 0)
(6.38792e-07 -1.18856e-06 0)
(7.60531e-07 -1.129e-06 0)
(8.84096e-07 -1.0639e-06 0)
(1.00936e-06 -9.94988e-07 0)
(1.13531e-06 -9.23768e-07 0)
(5.56486e-08 -1.37924e-06 0)
(1.67204e-07 -1.36812e-06 0)
(2.7951e-07 -1.34623e-06 0)
(3.92928e-07 -1.31429e-06 0)
(5.07779e-07 -1.27318e-06 0)
(6.24254e-07 -1.22413e-06 0)
(7.42377e-07 -1.16849e-06 0)
(8.6193e-07 -1.10753e-06 0)
(9.82873e-07 -1.04282e-06 0)
(1.10416e-06 -9.75854e-07 0)
(5.46108e-08 -1.40383e-06 0)
(1.64007e-07 -1.39346e-06 0)
(2.74047e-07 -1.37302e-06 0)
(3.85049e-07 -1.3432e-06 0)
(4.97231e-07 -1.30479e-06 0)
(6.10763e-07 -1.2589e-06 0)
(7.25663e-07 -1.2068e-06 0)
(8.41698e-07 -1.14965e-06 0)
(9.58881e-07 -1.08882e-06 0)
(1.07616e-06 -1.02582e-06 0)
(5.36022e-08 -1.42881e-06 0)
(1.609e-07 -1.41911e-06 0)
(2.68779e-07 -1.39998e-06 0)
(3.77483e-07 -1.37207e-06 0)
(4.87192e-07 -1.3361e-06 0)
(5.9805e-07 -1.29307e-06 0)
(7.10046e-07 -1.24418e-06 0)
(8.22964e-07 -1.19048e-06 0)
(9.36847e-07 -1.13321e-06 0)
(1.05068e-06 -1.07384e-06 0)
(5.25797e-08 -1.45412e-06 0)
(1.57847e-07 -1.44504e-06 0)
(2.63633e-07 -1.42708e-06 0)
(3.70136e-07 -1.40088e-06 0)
(4.77502e-07 -1.36712e-06 0)
(5.85889e-07 -1.32667e-06 0)
(6.9524e-07 -1.28069e-06 0)
(8.05356e-07 -1.23016e-06 0)
(9.16304e-07 -1.17615e-06 0)
(1.02712e-06 -1.12011e-06 0)
(5.15497e-08 -1.47973e-06 0)
(1.54826e-07 -1.47121e-06 0)
(2.58535e-07 -1.45432e-06 0)
(3.62905e-07 -1.42967e-06 0)
(4.68022e-07 -1.3979e-06 0)
(5.74076e-07 -1.3598e-06 0)
(6.80986e-07 -1.31645e-06 0)
(7.88552e-07 -1.2688e-06 0)
(8.96855e-07 -1.21779e-06 0)
(1.005e-06 -1.16479e-06 0)
(5.0532e-08 -1.50558e-06 0)
(1.51809e-07 -1.49758e-06 0)
(2.53427e-07 -1.48166e-06 0)
(3.55695e-07 -1.45841e-06 0)
(4.58637e-07 -1.42845e-06 0)
(5.62446e-07 -1.3925e-06 0)
(6.67061e-07 -1.35156e-06 0)
(7.7227e-07 -1.30652e-06 0)
(8.78159e-07 -1.25825e-06 0)
(9.83923e-07 -1.20803e-06 0)
(4.95128e-08 -1.53164e-06 0)
(1.48732e-07 -1.5241e-06 0)
(2.48233e-07 -1.50907e-06 0)
(3.48393e-07 -1.48709e-06 0)
(4.492e-07 -1.45878e-06 0)
(5.50823e-07 -1.4248e-06 0)
(6.5324e-07 -1.38605e-06 0)
(7.56242e-07 -1.34341e-06 0)
(8.59912e-07 -1.29765e-06 0)
(9.63553e-07 -1.24998e-06 0)
(4.84549e-08 -1.55782e-06 0)
(1.45528e-07 -1.55069e-06 0)
(2.42875e-07 -1.53648e-06 0)
(3.40884e-07 -1.51568e-06 0)
(4.39556e-07 -1.48889e-06 0)
(5.39024e-07 -1.4567e-06 0)
(6.39304e-07 -1.41998e-06 0)
(7.40213e-07 -1.37954e-06 0)
(8.41824e-07 -1.3361e-06 0)
(9.43521e-07 -1.29077e-06 0)
(4.73314e-08 -1.58408e-06 0)
(1.42154e-07 -1.57731e-06 0)
(2.37281e-07 -1.56387e-06 0)
(3.33071e-07 -1.54416e-06 0)
(4.29564e-07 -1.51876e-06 0)
(5.26873e-07 -1.48825e-06 0)
(6.2504e-07 -1.45339e-06 0)
(7.23927e-07 -1.41498e-06 0)
(8.2357e-07 -1.37368e-06 0)
(9.23439e-07 -1.3305e-06 0)
(4.61365e-08 -1.61028e-06 0)
(1.38589e-07 -1.60385e-06 0)
(2.31392e-07 -1.59113e-06 0)
(3.24858e-07 -1.57245e-06 0)
(4.19089e-07 -1.54834e-06 0)
(5.14191e-07 -1.51937e-06 0)
(6.10235e-07 -1.48627e-06 0)
(7.07129e-07 -1.44975e-06 0)
(8.04839e-07 -1.41045e-06 0)
(9.02979e-07 -1.36925e-06 0)
(4.48669e-08 -1.63639e-06 0)
(1.34797e-07 -1.63029e-06 0)
(2.25116e-07 -1.61824e-06 0)
(3.16118e-07 -1.60052e-06 0)
(4.07969e-07 -1.57765e-06 0)
(5.00781e-07 -1.55014e-06 0)
(5.9465e-07 -1.51867e-06 0)
(6.89494e-07 -1.48394e-06 0)
(7.85294e-07 -1.44649e-06 0)
(8.81715e-07 -1.40717e-06 0)
(4.3505e-08 -1.6622e-06 0)
(1.3071e-07 -1.65642e-06 0)
(2.18344e-07 -1.645e-06 0)
(3.06704e-07 -1.62821e-06 0)
(3.96011e-07 -1.6065e-06 0)
(4.86406e-07 -1.58038e-06 0)
(5.77997e-07 -1.55048e-06 0)
(6.707e-07 -1.51743e-06 0)
(7.64573e-07 -1.48175e-06 0)
(8.59278e-07 -1.4442e-06 0)
(4.20142e-08 -1.68778e-06 0)
(1.26226e-07 -1.68231e-06 0)
(2.1092e-07 -1.6715e-06 0)
(2.96422e-07 -1.6556e-06 0)
(3.8298e-07 -1.63504e-06 0)
(4.70776e-07 -1.61027e-06 0)
(5.59926e-07 -1.58187e-06 0)
(6.50401e-07 -1.55044e-06 0)
(7.42226e-07 -1.51648e-06 0)
(8.35196e-07 -1.48063e-06 0)
(4.03768e-08 -1.71254e-06 0)
(1.21316e-07 -1.70737e-06 0)
(2.02792e-07 -1.69718e-06 0)
(2.85169e-07 -1.68217e-06 0)
(3.68746e-07 -1.66274e-06 0)
(4.53736e-07 -1.63932e-06 0)
(5.40258e-07 -1.61242e-06 0)
(6.28409e-07 -1.5826e-06 0)
(7.18099e-07 -1.55033e-06 0)
(8.09303e-07 -1.5162e-06 0)
)


// ************************************************************************* //
