/*--------------------------------*- C++ -*----------------------------------*\
| =========                 |                                                 |
| \\      /  F ield         | foam-extend: Open Source CFD                    |
|  \\    /   O peration     | Version:     4.1                                |
|   \\  /    A nd           | Web:         http://www.foam-extend.org         |
|    \\/     M anipulation  |                                                 |
\*---------------------------------------------------------------------------*/
FoamFile
{
    version     2.0;
    format      ascii;
    class       vectorField;
    location    "3";
    object      solidsCellD_iteration11;
}
// * * * * * * * * * * * * * * * * * * * * * * * * * * * * * * * * * * * * * //


1000
(
(1.50001e-06 -5.9748e-07 0)
(1.41915e-06 -5.58128e-07 0)
(1.3683e-06 -5.34089e-07 0)
(1.33981e-06 -5.24081e-07 0)
(1.32687e-06 -5.22224e-07 0)
(1.32531e-06 -5.26612e-07 0)
(1.33216e-06 -5.35116e-07 0)
(1.34519e-06 -5.46767e-07 0)
(1.36319e-06 -5.6043e-07 0)
(1.38401e-06 -5.7553e-07 0)
(1.35681e-06 -6.52845e-07 0)
(1.27075e-06 -6.26434e-07 0)
(1.21652e-06 -6.10621e-07 0)
(1.18549e-06 -6.06244e-07 0)
(1.17043e-06 -6.08164e-07 0)
(1.1669e-06 -6.1522e-07 0)
(1.17181e-06 -6.25607e-07 0)
(1.18284e-06 -6.38677e-07 0)
(1.19863e-06 -6.53395e-07 0)
(1.21714e-06 -6.69414e-07 0)
(1.20788e-06 -7.05272e-07 0)
(1.11995e-06 -6.93318e-07 0)
(1.06444e-06 -6.86699e-07 0)
(1.03224e-06 -6.88472e-07 0)
(1.01603e-06 -6.94427e-07 0)
(1.01115e-06 -7.04252e-07 0)
(1.01453e-06 -7.16567e-07 0)
(1.02392e-06 -7.30968e-07 0)
(1.03784e-06 -7.46689e-07 0)
(1.05453e-06 -7.63317e-07 0)
(1.05426e-06 -7.53856e-07 0)
(9.68244e-07 -7.57029e-07 0)
(9.13841e-07 -7.60021e-07 0)
(8.81917e-07 -7.68167e-07 0)
(8.65457e-07 -7.78282e-07 0)
(8.59821e-07 -7.90921e-07 0)
(8.61983e-07 -8.05133e-07 0)
(8.69879e-07 -8.20828e-07 0)
(8.82038e-07 -8.37514e-07 0)
(8.96863e-07 -8.54841e-07 0)
(8.97181e-07 -7.97626e-07 0)
(8.16631e-07 -8.15769e-07 0)
(7.65647e-07 -8.28255e-07 0)
(7.35557e-07 -8.4268e-07 0)
(7.19771e-07 -8.56864e-07 0)
(7.13872e-07 -8.72265e-07 0)
(7.15132e-07 -8.88323e-07 0)
(7.21648e-07 -9.05285e-07 0)
(7.32087e-07 -9.22927e-07 0)
(7.44915e-07 -9.40991e-07 0)
(7.37197e-07 -8.35735e-07 0)
(6.65765e-07 -8.6785e-07 0)
(6.20546e-07 -8.89224e-07 0)
(5.93657e-07 -9.0954e-07 0)
(5.79348e-07 -9.27525e-07 0)
(5.73686e-07 -9.45483e-07 0)
(5.74368e-07 -9.63237e-07 0)
(5.79623e-07 -9.81374e-07 0)
(5.88284e-07 -9.99907e-07 0)
(5.98953e-07 -1.01871e-06 0)
(5.75278e-07 -8.67277e-07 0)
(5.16046e-07 -9.11647e-07 0)
(4.78541e-07 -9.40828e-07 0)
(4.56127e-07 -9.66308e-07 0)
(4.44106e-07 -9.87606e-07 0)
(4.39206e-07 -1.00779e-06 0)
(4.39527e-07 -1.02703e-06 0)
(4.43551e-07 -1.04621e-06 0)
(4.50343e-07 -1.06553e-06 0)
(4.58731e-07 -1.08501e-06 0)
(4.11911e-07 -8.91614e-07 0)
(3.67505e-07 -9.45839e-07 0)
(3.39417e-07 -9.81251e-07 0)
(3.22618e-07 -1.01082e-06 0)
(3.13568e-07 -1.0348e-06 0)
(3.09797e-07 -1.0568e-06 0)
(3.0988e-07 -1.07726e-06 0)
(3.12691e-07 -1.09729e-06 0)
(3.17565e-07 -1.11725e-06 0)
(3.236e-07 -1.13729e-06 0)
(2.47547e-07 -9.08157e-07 0)
(2.20061e-07 -9.6924e-07 0)
(2.02714e-07 -1.009e-06 0)
(1.92278e-07 -1.04149e-06 0)
(1.86602e-07 -1.06735e-06 0)
(1.84195e-07 -1.09058e-06 0)
(1.84212e-07 -1.1119e-06 0)
(1.85911e-07 -1.13257e-06 0)
(1.88838e-07 -1.15299e-06 0)
(1.92464e-07 -1.17344e-06 0)
(8.26763e-08 -9.1649e-07 0)
(7.33791e-08 -9.81134e-07 0)
(6.74433e-08 -1.02313e-06 0)
(6.38892e-08 -1.0571e-06 0)
(6.20005e-08 -1.08392e-06 0)
(6.1172e-08 -1.10782e-06 0)
(6.11166e-08 -1.12956e-06 0)
(6.16676e-08 -1.15053e-06 0)
(6.26618e-08 -1.17119e-06 0)
(6.387e-08 -1.19187e-06 0)
(2.3337e-06 -2.71906e-08 0)
(2.35378e-06 -1.96272e-08 0)
(2.36678e-06 -1.48812e-08 0)
(2.38119e-06 -1.21341e-08 0)
(2.39737e-06 -1.0659e-08 0)
(2.41712e-06 -1.00693e-08 0)
(2.44048e-06 -1.00738e-08 0)
(2.46756e-06 -1.04081e-08 0)
(2.49836e-06 -1.10711e-08 0)
(2.53243e-06 -1.18765e-08 0)
(2.31657e-06 -8.16228e-08 0)
(2.33332e-06 -5.93707e-08 0)
(2.34424e-06 -4.53887e-08 0)
(2.35722e-06 -3.73975e-08 0)
(2.37244e-06 -3.31886e-08 0)
(2.39148e-06 -3.14142e-08 0)
(2.41438e-06 -3.14301e-08 0)
(2.44108e-06 -3.2608e-08 0)
(2.47151e-06 -3.462e-08 0)
(2.50524e-06 -3.69309e-08 0)
(2.2824e-06 -1.36472e-07 0)
(2.29274e-06 -1.0081e-07 0)
(2.29963e-06 -7.84283e-08 0)
(2.30993e-06 -6.55391e-08 0)
(2.32338e-06 -5.88228e-08 0)
(2.34119e-06 -5.61773e-08 0)
(2.36311e-06 -5.63431e-08 0)
(2.38908e-06 -5.83205e-08 0)
(2.41882e-06 -6.16221e-08 0)
(2.45189e-06 -6.54742e-08 0)
(2.23177e-06 -1.92076e-07 0)
(2.23299e-06 -1.44897e-07 0)
(2.23409e-06 -1.15404e-07 0)
(2.24059e-06 -9.8515e-08 0)
(2.25147e-06 -8.97389e-08 0)
(2.26753e-06 -8.63794e-08 0)
(2.28812e-06 -8.67388e-08 0)
(2.31307e-06 -8.95717e-08 0)
(2.34186e-06 -9.41689e-08 0)
(2.37402e-06 -9.95609e-08 0)
(2.16539e-06 -2.4854e-07 0)
(2.1554e-06 -1.92455e-07 0)
(2.14934e-06 -1.57453e-07 0)
(2.1511e-06 -1.37598e-07 0)
(2.15884e-06 -1.27396e-07 0)
(2.17267e-06 -1.23698e-07 0)
(2.19162e-06 -1.24449e-07 0)
(2.21525e-06 -1.28207e-07 0)
(2.24287e-06 -1.34061e-07 0)
(2.27397e-06 -1.40923e-07 0)
(2.08419e-06 -3.05936e-07 0)
(2.06151e-06 -2.4406e-07 0)
(2.04741e-06 -2.05473e-07 0)
(2.04384e-06 -1.83862e-07 0)
(2.04801e-06 -1.72995e-07 0)
(2.05931e-06 -1.69402e-07 0)
(2.07641e-06 -1.70756e-07 0)
(2.09854e-06 -1.75475e-07 0)
(2.12485e-06 -1.82546e-07 0)
(2.15472e-06 -1.90817e-07 0)
(1.98944e-06 -3.64158e-07 0)
(1.95329e-06 -2.99945e-07 0)
(1.93067e-06 -2.59938e-07 0)
(1.92147e-06 -2.37921e-07 0)
(1.92186e-06 -2.27181e-07 0)
(1.93048e-06 -2.24166e-07 0)
(1.94561e-06 -2.26353e-07 0)
(1.96613e-06 -2.32075e-07 0)
(1.99102e-06 -2.40321e-07 0)
(2.01963e-06 -2.49897e-07 0)
(1.88226e-06 -4.22895e-07 0)
(1.83279e-06 -3.59963e-07 0)
(1.80175e-06 -3.20799e-07 0)
(1.78693e-06 -2.99797e-07 0)
(1.78359e-06 -2.90033e-07 0)
(1.78951e-06 -2.8811e-07 0)
(1.80259e-06 -2.91402e-07 0)
(1.82146e-06 -2.98248e-07 0)
(1.84487e-06 -3.07656e-07 0)
(1.87212e-06 -3.18446e-07 0)
(1.76405e-06 -4.81768e-07 0)
(1.70219e-06 -4.23596e-07 0)
(1.66332e-06 -3.87538e-07 0)
(1.64321e-06 -3.68949e-07 0)
(1.6363e-06 -3.61027e-07 0)
(1.63953e-06 -3.60686e-07 0)
(1.65052e-06 -3.65358e-07 0)
(1.66765e-06 -3.73431e-07 0)
(1.68952e-06 -3.8401e-07 0)
(1.71535e-06 -3.95746e-07 0)
(1.63619e-06 -5.40212e-07 0)
(1.56369e-06 -4.90028e-07 0)
(1.51806e-06 -4.59103e-07 0)
(1.49332e-06 -4.44264e-07 0)
(1.48317e-06 -4.39024e-07 0)
(1.48396e-06 -4.40786e-07 0)
(1.49306e-06 -4.47198e-07 0)
(1.50849e-06 -4.56857e-07 0)
(1.52898e-06 -4.68806e-07 0)
(1.55298e-06 -4.82198e-07 0)
(2.5698e-06 -1.26207e-08 0)
(2.61046e-06 -1.28566e-08 0)
(2.65364e-06 -1.30914e-08 0)
(2.69915e-06 -1.32739e-08 0)
(2.74675e-06 -1.33977e-08 0)
(2.79629e-06 -1.34553e-08 0)
(2.84752e-06 -1.34166e-08 0)
(2.90025e-06 -1.33137e-08 0)
(2.95436e-06 -1.31653e-08 0)
(3.00971e-06 -1.29385e-08 0)
(3.06612e-06 -1.26093e-08 0)
(3.12344e-06 -1.21755e-08 0)
(3.18153e-06 -1.16373e-08 0)
(3.24022e-06 -1.0998e-08 0)
(3.2994e-06 -1.02497e-08 0)
(3.35887e-06 -9.3677e-09 0)
(3.41852e-06 -8.32151e-09 0)
(3.47804e-06 -7.08677e-09 0)
(3.53746e-06 -5.64099e-09 0)
(3.59604e-06 -3.97836e-09 0)
(2.5438e-06 -3.90092e-08 0)
(2.58661e-06 -3.95659e-08 0)
(2.63171e-06 -4.01348e-08 0)
(2.67893e-06 -4.05589e-08 0)
(2.72805e-06 -4.07823e-08 0)
(2.77891e-06 -4.08469e-08 0)
(2.83135e-06 -4.07269e-08 0)
(2.8852e-06 -4.04315e-08 0)
(2.94034e-06 -3.99241e-08 0)
(2.99661e-06 -3.91466e-08 0)
(3.05386e-06 -3.80972e-08 0)
(3.11197e-06 -3.67898e-08 0)
(3.17082e-06 -3.52001e-08 0)
(3.23024e-06 -3.32903e-08 0)
(3.29011e-06 -3.10157e-08 0)
(3.35023e-06 -2.83276e-08 0)
(3.41051e-06 -2.51647e-08 0)
(3.47062e-06 -2.14672e-08 0)
(3.53063e-06 -1.71544e-08 0)
(3.58975e-06 -1.21896e-08 0)
(2.49276e-06 -6.85787e-08 0)
(2.53983e-06 -6.89909e-08 0)
(2.58872e-06 -6.9446e-08 0)
(2.63919e-06 -6.97861e-08 0)
(2.69124e-06 -6.98871e-08 0)
(2.74476e-06 -6.97933e-08 0)
(2.79961e-06 -6.94163e-08 0)
(2.85562e-06 -6.87451e-08 0)
(2.91271e-06 -6.77282e-08 0)
(2.97077e-06 -6.6318e-08 0)
(3.02969e-06 -6.45178e-08 0)
(3.08937e-06 -6.23159e-08 0)
(3.14966e-06 -5.96412e-08 0)
(3.21043e-06 -5.64206e-08 0)
(3.27157e-06 -5.25918e-08 0)
(3.33292e-06 -4.80882e-08 0)
(3.3944e-06 -4.28109e-08 0)
(3.45571e-06 -3.66622e-08 0)
(3.51688e-06 -2.95014e-08 0)
(3.57718e-06 -2.12524e-08 0)
(2.41817e-06 -1.0311e-07 0)
(2.47128e-06 -1.02624e-07 0)
(2.52565e-06 -1.02294e-07 0)
(2.58091e-06 -1.02044e-07 0)
(2.63731e-06 -1.0161e-07 0)
(2.69465e-06 -1.0103e-07 0)
(2.75298e-06 -1.0012e-07 0)
(2.81214e-06 -9.88706e-08 0)
(2.87216e-06 -9.71978e-08 0)
(2.93291e-06 -9.50462e-08 0)
(2.99432e-06 -9.23919e-08 0)
(3.05629e-06 -8.91861e-08 0)
(3.11871e-06 -8.5331e-08 0)
(3.18149e-06 -8.07433e-08 0)
(3.24453e-06 -7.53511e-08 0)
(3.30772e-06 -6.90423e-08 0)
(3.37095e-06 -6.16785e-08 0)
(3.43396e-06 -5.31107e-08 0)
(3.49679e-06 -4.3128e-08 0)
(3.55876e-06 -3.16513e-08 0)
(2.32226e-06 -1.44153e-07 0)
(2.38302e-06 -1.41816e-07 0)
(2.44435e-06 -1.39887e-07 0)
(2.50567e-06 -1.38432e-07 0)
(2.56756e-06 -1.36923e-07 0)
(2.62983e-06 -1.35411e-07 0)
(2.69264e-06 -1.33607e-07 0)
(2.75589e-06 -1.31505e-07 0)
(2.81963e-06 -1.28949e-07 0)
(2.8838e-06 -1.2586e-07 0)
(2.94838e-06 -1.22195e-07 0)
(3.01332e-06 -1.17875e-07 0)
(3.07854e-06 -1.12769e-07 0)
(3.14396e-06 -1.06769e-07 0)
(3.20952e-06 -9.9775e-08 0)
(3.27507e-06 -9.16371e-08 0)
(3.34059e-06 -8.21815e-08 0)
(3.4058e-06 -7.12195e-08 0)
(3.47081e-06 -5.84577e-08 0)
(3.53494e-06 -4.38219e-08 0)
(2.20768e-06 -1.92884e-07 0)
(2.27721e-06 -1.87581e-07 0)
(2.34674e-06 -1.83035e-07 0)
(2.41525e-06 -1.79589e-07 0)
(2.48374e-06 -1.76366e-07 0)
(2.55192e-06 -1.73408e-07 0)
(2.62004e-06 -1.70287e-07 0)
(2.68817e-06 -1.66958e-07 0)
(2.7564e-06 -1.63241e-07 0)
(2.82471e-06 -1.59017e-07 0)
(2.89314e-06 -1.54197e-07 0)
(2.96166e-06 -1.48652e-07 0)
(3.03024e-06 -1.42212e-07 0)
(3.0988e-06 -1.34741e-07 0)
(3.16735e-06 -1.26105e-07 0)
(3.23574e-06 -1.16128e-07 0)
(3.30403e-06 -1.04592e-07 0)
(3.37189e-06 -9.12809e-08 0)
(3.43954e-06 -7.58213e-08 0)
(3.50628e-06 -5.80964e-08 0)
(2.07764e-06 -2.49961e-07 0)
(2.15678e-06 -2.40568e-07 0)
(2.23538e-06 -2.32406e-07 0)
(2.31191e-06 -2.26122e-07 0)
(2.38771e-06 -2.20487e-07 0)
(2.46253e-06 -2.1547e-07 0)
(2.53671e-06 -2.10592e-07 0)
(2.61037e-06 -2.05681e-07 0)
(2.68371e-06 -2.00521e-07 0)
(2.75677e-06 -1.94937e-07 0)
(2.82961e-06 -1.88772e-07 0)
(2.90224e-06 -1.8184e-07 0)
(2.97466e-06 -1.73941e-07 0)
(3.04685e-06 -1.64917e-07 0)
(3.11883e-06 -1.54596e-07 0)
(3.19053e-06 -1.42777e-07 0)
(3.26199e-06 -1.29188e-07 0)
(3.33295e-06 -1.13569e-07 0)
(3.40361e-06 -9.54774e-08 0)
(3.47335e-06 -7.47447e-08 0)
(1.93521e-06 -3.15621e-07 0)
(2.0243e-06 -3.00838e-07 0)
(2.11246e-06 -2.8803e-07 0)
(2.19762e-06 -2.77948e-07 0)
(2.28139e-06 -2.69194e-07 0)
(2.36344e-06 -2.6151e-07 0)
(2.44433e-06 -2.54387e-07 0)
(2.52415e-06 -2.47516e-07 0)
(2.60315e-06 -2.40613e-07 0)
(2.68145e-06 -2.33426e-07 0)
(2.75915e-06 -2.25725e-07 0)
(2.8363e-06 -2.17273e-07 0)
(2.91296e-06 -2.07836e-07 0)
(2.98918e-06 -1.97225e-07 0)
(3.065e-06 -1.85225e-07 0)
(3.14038e-06 -1.71594e-07 0)
(3.21536e-06 -1.56004e-07 0)
(3.28975e-06 -1.38142e-07 0)
(3.36375e-06 -1.17496e-07 0)
(3.43681e-06 -9.38506e-08 0)
(1.78366e-06 -3.8969e-07 0)
(1.88285e-06 -3.68503e-07 0)
(1.98072e-06 -3.50401e-07 0)
(2.07487e-06 -3.35681e-07 0)
(2.16692e-06 -3.23124e-07 0)
(2.25663e-06 -3.12185e-07 0)
(2.34457e-06 -3.02304e-07 0)
(2.43093e-06 -2.93039e-07 0)
(2.51597e-06 -2.8403e-07 0)
(2.59988e-06 -2.74938e-07 0)
(2.68279e-06 -2.65462e-07 0)
(2.76483e-06 -2.55314e-07 0)
(2.84609e-06 -2.44224e-07 0)
(2.92668e-06 -2.31956e-07 0)
(3.00666e-06 -2.1824e-07 0)
(3.08602e-06 -2.02782e-07 0)
(3.16483e-06 -1.85199e-07 0)
(3.24292e-06 -1.65129e-07 0)
(3.32055e-06 -1.42003e-07 0)
(3.39724e-06 -1.15564e-07 0)
(1.62601e-06 -4.71064e-07 0)
(1.73598e-06 -4.41459e-07 0)
(1.84349e-06 -4.17307e-07 0)
(1.947e-06 -3.97215e-07 0)
(2.04747e-06 -3.80305e-07 0)
(2.14514e-06 -3.65666e-07 0)
(2.24038e-06 -3.52657e-07 0)
(2.3335e-06 -3.40718e-07 0)
(2.42482e-06 -3.29396e-07 0)
(2.51455e-06 -3.18257e-07 0)
(2.60288e-06 -3.06925e-07 0)
(2.68999e-06 -2.95053e-07 0)
(2.77604e-06 -2.82317e-07 0)
(2.86115e-06 -2.68425e-07 0)
(2.9454e-06 -2.53052e-07 0)
(3.02886e-06 -2.35852e-07 0)
(3.1116e-06 -2.16394e-07 0)
(3.19353e-06 -1.94245e-07 0)
(3.27493e-06 -1.68805e-07 0)
(3.35544e-06 -1.39734e-07 0)
(1.50666e-06 -5.51494e-07 0)
(1.62473e-06 -5.14351e-07 0)
(1.73861e-06 -4.85234e-07 0)
(1.84848e-06 -4.60465e-07 0)
(1.9547e-06 -4.39453e-07 0)
(2.05774e-06 -4.21161e-07 0)
(2.15795e-06 -4.04887e-07 0)
(2.25571e-06 -3.90033e-07 0)
(2.35131e-06 -3.7608e-07 0)
(2.44501e-06 -3.62541e-07 0)
(2.53701e-06 -3.49004e-07 0)
(2.62753e-06 -3.35089e-07 0)
(2.71675e-06 -3.20433e-07 0)
(2.80482e-06 -3.047e-07 0)
(2.89183e-06 -2.87534e-07 0)
(2.97787e-06 -2.68542e-07 0)
(3.06306e-06 -2.47296e-07 0)
(3.14739e-06 -2.23306e-07 0)
(3.23112e-06 -1.95976e-07 0)
(3.31401e-06 -1.64903e-07 0)
(1.43968e-06 -6.18126e-07 0)
(1.55875e-06 -5.79454e-07 0)
(1.67372e-06 -5.47398e-07 0)
(1.78534e-06 -5.19619e-07 0)
(1.89356e-06 -4.95565e-07 0)
(1.99869e-06 -4.74345e-07 0)
(2.10099e-06 -4.55287e-07 0)
(2.20077e-06 -4.37802e-07 0)
(2.29827e-06 -4.21362e-07 0)
(2.39372e-06 -4.05483e-07 0)
(2.48735e-06 -3.8975e-07 0)
(2.57935e-06 -3.73776e-07 0)
(2.6699e-06 -3.57179e-07 0)
(2.75915e-06 -3.39608e-07 0)
(2.84721e-06 -3.207e-07 0)
(2.93422e-06 -3.00044e-07 0)
(3.02025e-06 -2.77243e-07 0)
(3.10541e-06 -2.51793e-07 0)
(3.18993e-06 -2.23127e-07 0)
(3.27365e-06 -1.90825e-07 0)
(1.38363e-06 -6.81342e-07 0)
(1.50146e-06 -6.42015e-07 0)
(1.61637e-06 -6.08286e-07 0)
(1.72842e-06 -5.78377e-07 0)
(1.83751e-06 -5.51897e-07 0)
(1.94373e-06 -5.28156e-07 0)
(2.04729e-06 -5.06572e-07 0)
(2.14836e-06 -4.86613e-07 0)
(2.24714e-06 -4.67779e-07 0)
(2.34383e-06 -4.49617e-07 0)
(2.43864e-06 -4.31721e-07 0)
(2.53174e-06 -4.13702e-07 0)
(2.62331e-06 -3.95174e-07 0)
(2.7135e-06 -3.75779e-07 0)
(2.80239e-06 -3.55159e-07 0)
(2.89018e-06 -3.32895e-07 0)
(2.97695e-06 -3.08618e-07 0)
(3.06283e-06 -2.81835e-07 0)
(3.14804e-06 -2.52008e-07 0)
(3.23253e-06 -2.18731e-07 0)
(1.33461e-06 -7.42413e-07 0)
(1.45076e-06 -7.02869e-07 0)
(1.56474e-06 -6.67921e-07 0)
(1.67638e-06 -6.36285e-07 0)
(1.7855e-06 -6.07745e-07 0)
(1.89208e-06 -5.8178e-07 0)
(1.99622e-06 -5.57909e-07 0)
(2.098e-06 -5.3566e-07 0)
(2.19757e-06 -5.14582e-07 0)
(2.2951e-06 -4.94256e-07 0)
(2.39074e-06 -4.74297e-07 0)
(2.48466e-06 -4.54321e-07 0)
(2.57702e-06 -4.33941e-07 0)
(2.66794e-06 -4.12807e-07 0)
(2.75754e-06 -3.90566e-07 0)
(2.846e-06 -3.6681e-07 0)
(2.93341e-06 -3.41194e-07 0)
(3.01994e-06 -3.13247e-07 0)
(3.10578e-06 -2.82466e-07 0)
(3.19102e-06 -2.48493e-07 0)
(1.29167e-06 -8.00845e-07 0)
(1.40575e-06 -7.61439e-07 0)
(1.51828e-06 -7.25801e-07 0)
(1.62891e-06 -6.92938e-07 0)
(1.73745e-06 -6.62781e-07 0)
(1.8438e-06 -6.34964e-07 0)
(1.94797e-06 -6.09098e-07 0)
(2.04997e-06 -5.84795e-07 0)
(2.14991e-06 -5.61665e-07 0)
(2.2479e-06 -5.39328e-07 0)
(2.34406e-06 -5.17429e-07 0)
(2.43853e-06 -4.95596e-07 0)
(2.53144e-06 -4.73455e-07 0)
(2.62291e-06 -4.50674e-07 0)
(2.71306e-06 -4.26908e-07 0)
(2.80207e-06 -4.0177e-07 0)
(2.89003e-06 -3.74939e-07 0)
(2.97713e-06 -3.4597e-07 0)
(3.06355e-06 -3.14416e-07 0)
(3.14948e-06 -2.79986e-07 0)
(1.25365e-06 -8.5688e-07 0)
(1.3655e-06 -8.17822e-07 0)
(1.47629e-06 -7.81807e-07 0)
(1.58551e-06 -7.48068e-07 0)
(1.69307e-06 -7.1665e-07 0)
(1.79875e-06 -6.87297e-07 0)
(1.90251e-06 -6.59719e-07 0)
(2.00433e-06 -6.33613e-07 0)
(2.10428e-06 -6.08645e-07 0)
(2.20241e-06 -5.8448e-07 0)
(2.29881e-06 -5.60796e-07 0)
(2.39357e-06 -5.37243e-07 0)
(2.48682e-06 -5.13465e-07 0)
(2.57867e-06 -4.89156e-07 0)
(2.66922e-06 -4.63982e-07 0)
(2.75866e-06 -4.37594e-07 0)
(2.84707e-06 -4.09685e-07 0)
(2.93465e-06 -3.79849e-07 0)
(3.0216e-06 -3.47708e-07 0)
(3.10814e-06 -3.13023e-07 0)
(1.21976e-06 -9.10625e-07 0)
(1.3293e-06 -8.72062e-07 0)
(1.43815e-06 -8.35909e-07 0)
(1.54573e-06 -8.01588e-07 0)
(1.65201e-06 -7.69217e-07 0)
(1.75668e-06 -7.38619e-07 0)
(1.85972e-06 -7.09604e-07 0)
(1.96106e-06 -6.81946e-07 0)
(2.06071e-06 -6.55358e-07 0)
(2.1587e-06 -6.29553e-07 0)
(2.25509e-06 -6.04247e-07 0)
(2.34992e-06 -5.7912e-07 0)
(2.44332e-06 -5.53839e-07 0)
(2.53539e-06 -5.28134e-07 0)
(2.6262e-06 -5.01676e-07 0)
(2.71595e-06 -4.74165e-07 0)
(2.80471e-06 -4.45314e-07 0)
(2.8927e-06 -4.14762e-07 0)
(2.98013e-06 -3.82202e-07 0)
(3.06716e-06 -3.47405e-07 0)
(1.18927e-06 -9.62243e-07 0)
(1.2965e-06 -9.24255e-07 0)
(1.4033e-06 -8.88136e-07 0)
(1.50913e-06 -8.53454e-07 0)
(1.6139e-06 -8.20371e-07 0)
(1.71735e-06 -7.8878e-07 0)
(1.81943e-06 -7.58579e-07 0)
(1.92003e-06 -7.29599e-07 0)
(2.01914e-06 -7.016e-07 0)
(2.11676e-06 -6.74346e-07 0)
(2.21291e-06 -6.47591e-07 0)
(2.30763e-06 -6.21046e-07 0)
(2.40102e-06 -5.94405e-07 0)
(2.49316e-06 -5.67443e-07 0)
(2.58412e-06 -5.39838e-07 0)
(2.67408e-06 -5.11338e-07 0)
(2.76312e-06 -4.81685e-07 0)
(2.85146e-06 -4.50564e-07 0)
(2.93926e-06 -4.17723e-07 0)
(3.02672e-06 -3.8293e-07 0)
(1.16149e-06 -1.0119e-06 0)
(1.26646e-06 -9.74526e-07 0)
(1.37119e-06 -9.38557e-07 0)
(1.47517e-06 -9.03678e-07 0)
(1.57832e-06 -8.70079e-07 0)
(1.68041e-06 -8.37714e-07 0)
(1.78136e-06 -8.06544e-07 0)
(1.88106e-06 -7.76455e-07 0)
(1.97945e-06 -7.47245e-07 0)
(2.07651e-06 -7.18727e-07 0)
(2.17227e-06 -6.90696e-07 0)
(2.26674e-06 -6.62894e-07 0)
(2.35999e-06 -6.35047e-07 0)
(2.45208e-06 -6.06966e-07 0)
(2.5431e-06 -5.78356e-07 0)
(2.63319e-06 -5.49002e-07 0)
(2.72243e-06 -5.18686e-07 0)
(2.81105e-06 -4.87126e-07 0)
(2.89914e-06 -4.54106e-07 0)
(2.98699e-06 -4.19438e-07 0)
(1.13589e-06 -1.05975e-06 0)
(1.23863e-06 -1.02301e-06 0)
(1.34131e-06 -9.87261e-07 0)
(1.44341e-06 -9.52303e-07 0)
(1.54491e-06 -9.18346e-07 0)
(1.64556e-06 -8.85387e-07 0)
(1.74528e-06 -8.53437e-07 0)
(1.84395e-06 -8.22427e-07 0)
(1.94149e-06 -7.92193e-07 0)
(2.03789e-06 -7.62591e-07 0)
(2.13314e-06 -7.33455e-07 0)
(2.22723e-06 -7.04555e-07 0)
(2.32023e-06 -6.75655e-07 0)
(2.41219e-06 -6.46601e-07 0)
(2.50317e-06 -6.17126e-07 0)
(2.59332e-06 -5.87054e-07 0)
(2.68271e-06 -5.562e-07 0)
(2.77152e-06 -5.24307e-07 0)
(2.85984e-06 -4.91197e-07 0)
(2.94801e-06 -4.56769e-07 0)
(1.11193e-06 -1.10596e-06 0)
(1.21253e-06 -1.06983e-06 0)
(1.31321e-06 -1.03435e-06 0)
(1.41346e-06 -9.99403e-07 0)
(1.51331e-06 -9.65216e-07 0)
(1.6125e-06 -9.31811e-07 0)
(1.71093e-06 -8.99245e-07 0)
(1.8085e-06 -8.67482e-07 0)
(1.90511e-06 -8.36397e-07 0)
(2.00076e-06 -8.05878e-07 0)
(2.0954e-06 -7.75797e-07 0)
(2.18903e-06 -7.45955e-07 0)
(2.28172e-06 -7.16151e-07 0)
(2.37347e-06 -6.86263e-07 0)
(2.46436e-06 -6.56057e-07 0)
(2.55451e-06 -6.2539e-07 0)
(2.64396e-06 -5.94102e-07 0)
(2.73289e-06 -5.61962e-07 0)
(2.82143e-06 -5.28858e-07 0)
(2.9098e-06 -4.94727e-07 0)
(1.08919e-06 -1.15066e-06 0)
(1.18774e-06 -1.11512e-06 0)
(1.28648e-06 -1.07993e-06 0)
(1.38496e-06 -1.04507e-06 0)
(1.48318e-06 -1.01075e-06 0)
(1.58089e-06 -9.77022e-07 0)
(1.67802e-06 -9.43977e-07 0)
(1.77445e-06 -9.11609e-07 0)
(1.87011e-06 -8.79829e-07 0)
(1.96495e-06 -8.48545e-07 0)
(2.05895e-06 -8.17668e-07 0)
(2.15208e-06 -7.87029e-07 0)
(2.2444e-06 -7.56461e-07 0)
(2.33591e-06 -7.25875e-07 0)
(2.42666e-06 -6.95067e-07 0)
(2.51676e-06 -6.63914e-07 0)
(2.60623e-06 -6.32281e-07 0)
(2.69524e-06 -5.99977e-07 0)
(2.78393e-06 -5.66967e-07 0)
(2.87246e-06 -5.33147e-07 0)
(1.06731e-06 -1.194e-06 0)
(1.16392e-06 -1.15901e-06 0)
(1.2608e-06 -1.12414e-06 0)
(1.35757e-06 -1.0894e-06 0)
(1.45419e-06 -1.05502e-06 0)
(1.55045e-06 -1.02107e-06 0)
(1.64629e-06 -9.87661e-07 0)
(1.7416e-06 -9.54817e-07 0)
(1.8363e-06 -9.22481e-07 0)
(1.93034e-06 -8.90576e-07 0)
(2.02369e-06 -8.5905e-07 0)
(2.1163e-06 -8.27759e-07 0)
(2.20823e-06 -7.96566e-07 0)
(2.29946e-06 -7.6541e-07 0)
(2.39004e-06 -7.34109e-07 0)
(2.48004e-06 -7.02561e-07 0)
(2.56947e-06 -6.70663e-07 0)
(2.65854e-06 -6.38275e-07 0)
(2.74728e-06 -6.05398e-07 0)
(2.83594e-06 -5.71928e-07 0)
(1.04596e-06 -1.2361e-06 0)
(1.14073e-06 -1.20163e-06 0)
(1.23584e-06 -1.16707e-06 0)
(1.33094e-06 -1.13248e-06 0)
(1.42603e-06 -1.0981e-06 0)
(1.5209e-06 -1.064e-06 0)
(1.61552e-06 -1.03035e-06 0)
(1.70974e-06 -9.97152e-07 0)
(1.80351e-06 -9.6439e-07 0)
(1.89676e-06 -9.31997e-07 0)
(1.98944e-06 -8.99946e-07 0)
(2.08154e-06 -8.68123e-07 0)
(2.17306e-06 -8.36418e-07 0)
(2.26401e-06 -8.04797e-07 0)
(2.35438e-06 -7.73093e-07 0)
(2.44425e-06 -7.41229e-07 0)
(2.53363e-06 -7.09141e-07 0)
(2.62271e-06 -6.76732e-07 0)
(2.71148e-06 -6.4399e-07 0)
(2.8002e-06 -6.10915e-07 0)
(1.02476e-06 -1.27708e-06 0)
(1.11778e-06 -1.24309e-06 0)
(1.2112e-06 -1.20883e-06 0)
(1.30473e-06 -1.17441e-06 0)
(1.39838e-06 -1.14007e-06 0)
(1.49196e-06 -1.10592e-06 0)
(1.58542e-06 -1.07211e-06 0)
(1.67861e-06 -1.03866e-06 0)
(1.77149e-06 -1.00557e-06 0)
(1.864e-06 -9.728e-07 0)
(1.95608e-06 -9.40349e-07 0)
(2.04768e-06 -9.08119e-07 0)
(2.13883e-06 -8.76017e-07 0)
(2.22949e-06 -8.44029e-07 0)
(2.31966e-06 -8.12003e-07 0)
(2.4094e-06 -7.79895e-07 0)
(2.49873e-06 -7.47679e-07 0)
(2.58777e-06 -7.15283e-07 0)
(2.67657e-06 -6.82711e-07 0)
(2.76531e-06 -6.50006e-07 0)
(1.00334e-06 -1.31704e-06 0)
(1.0947e-06 -1.28351e-06 0)
(1.18653e-06 -1.2495e-06 0)
(1.27861e-06 -1.21528e-06 0)
(1.37094e-06 -1.18104e-06 0)
(1.46333e-06 -1.1469e-06 0)
(1.55573e-06 -1.113e-06 0)
(1.648e-06 -1.07941e-06 0)
(1.74008e-06 -1.0461e-06 0)
(1.8319e-06 -1.01306e-06 0)
(1.92341e-06 -9.80306e-07 0)
(2.01457e-06 -9.47767e-07 0)
(2.10536e-06 -9.15359e-07 0)
(2.19575e-06 -8.83074e-07 0)
(2.28572e-06 -8.50792e-07 0)
(2.37534e-06 -8.18508e-07 0)
(2.46461e-06 -7.86217e-07 0)
(2.5536e-06 -7.53828e-07 0)
(2.64239e-06 -7.2145e-07 0)
(2.73114e-06 -6.89111e-07 0)
(9.81336e-07 -1.35612e-06 0)
(1.0711e-06 -1.32292e-06 0)
(1.16142e-06 -1.28922e-06 0)
(1.25225e-06 -1.25525e-06 0)
(1.34338e-06 -1.22114e-06 0)
(1.43473e-06 -1.18706e-06 0)
(1.52618e-06 -1.15315e-06 0)
(1.61764e-06 -1.11947e-06 0)
(1.70901e-06 -1.08602e-06 0)
(1.80025e-06 -1.0528e-06 0)
(1.89129e-06 -1.01985e-06 0)
(1.98206e-06 -9.87083e-07 0)
(2.07254e-06 -9.54433e-07 0)
(2.16269e-06 -9.21926e-07 0)
(2.2525e-06 -8.8947e-07 0)
(2.34205e-06 -8.57053e-07 0)
(2.43125e-06 -8.24678e-07 0)
(2.52022e-06 -7.9232e-07 0)
(2.60895e-06 -7.60139e-07 0)
(2.69771e-06 -7.28132e-07 0)
(9.58244e-07 -1.39427e-06 0)
(1.04663e-06 -1.36145e-06 0)
(1.13572e-06 -1.32812e-06 0)
(1.22537e-06 -1.29439e-06 0)
(1.31548e-06 -1.26048e-06 0)
(1.40592e-06 -1.2265e-06 0)
(1.49657e-06 -1.19263e-06 0)
(1.58735e-06 -1.15894e-06 0)
(1.67816e-06 -1.12544e-06 0)
(1.76893e-06 -1.09212e-06 0)
(1.85958e-06 -1.05903e-06 0)
(1.95002e-06 -1.02611e-06 0)
(2.04025e-06 -9.93302e-07 0)
(2.13025e-06 -9.60629e-07 0)
(2.21997e-06 -9.28026e-07 0)
(2.30942e-06 -8.95516e-07 0)
(2.39855e-06 -8.6308e-07 0)
(2.48756e-06 -8.30748e-07 0)
(2.57631e-06 -7.98722e-07 0)
(2.66498e-06 -7.67052e-07 0)
(9.3373e-07 -1.43187e-06 0)
(1.02086e-06 -1.39944e-06 0)
(1.10887e-06 -1.36639e-06 0)
(1.19756e-06 -1.33293e-06 0)
(1.28683e-06 -1.29922e-06 0)
(1.37654e-06 -1.2654e-06 0)
(1.4666e-06 -1.23162e-06 0)
(1.5569e-06 -1.19796e-06 0)
(1.6473e-06 -1.16445e-06 0)
(1.73772e-06 -1.13109e-06 0)
(1.82808e-06 -1.09793e-06 0)
(1.91834e-06 -1.06489e-06 0)
(2.00844e-06 -1.03196e-06 0)
(2.0983e-06 -9.99205e-07 0)
(2.18793e-06 -9.6649e-07 0)
(2.27738e-06 -9.33843e-07 0)
(2.36657e-06 -9.01375e-07 0)
(2.45555e-06 -8.69069e-07 0)
(2.54436e-06 -8.37115e-07 0)
(2.63302e-06 -8.05715e-07 0)
(9.07503e-07 -1.46864e-06 0)
(9.93567e-07 -1.43667e-06 0)
(1.08067e-06 -1.40402e-06 0)
(1.1686e-06 -1.37088e-06 0)
(1.25726e-06 -1.33742e-06 0)
(1.34651e-06 -1.3038e-06 0)
(1.4362e-06 -1.27017e-06 0)
(1.52619e-06 -1.23663e-06 0)
(1.61635e-06 -1.20316e-06 0)
(1.70662e-06 -1.16977e-06 0)
(1.79687e-06 -1.13658e-06 0)
(1.887e-06 -1.10352e-06 0)
(1.97702e-06 -1.07051e-06 0)
(2.06686e-06 -1.03763e-06 0)
(2.15647e-06 -1.00487e-06 0)
(2.24591e-06 -9.72148e-07 0)
(2.33519e-06 -9.39621e-07 0)
(2.42425e-06 -9.0726e-07 0)
(2.51318e-06 -8.75323e-07 0)
(2.60188e-06 -8.44049e-07 0)
(6.37831e-08 -1.21292e-06 0)
(1.92112e-07 -1.19537e-06 0)
(3.22641e-07 -1.16089e-06 0)
(4.56664e-07 -1.11098e-06 0)
(5.95119e-07 -1.0475e-06 0)
(7.38593e-07 -9.72853e-07 0)
(8.87292e-07 -8.89807e-07 0)
(1.04091e-06 -8.01153e-07 0)
(1.19926e-06 -7.09701e-07 0)
(1.36077e-06 -6.17518e-07 0)
(6.21563e-08 -1.23487e-06 0)
(1.87126e-07 -1.21883e-06 0)
(3.13875e-07 -1.18729e-06 0)
(4.43503e-07 -1.14154e-06 0)
(5.76788e-07 -1.08316e-06 0)
(7.14181e-07 -1.01418e-06 0)
(8.55895e-07 -9.36949e-07 0)
(1.00148e-06 -8.53939e-07 0)
(1.15061e-06 -7.67639e-07 0)
(1.30163e-06 -6.80385e-07 0)
(6.06591e-08 -1.25733e-06 0)
(1.82533e-07 -1.24266e-06 0)
(3.05838e-07 -1.21378e-06 0)
(4.31415e-07 -1.1718e-06 0)
(5.59957e-07 -1.11812e-06 0)
(6.91781e-07 -1.05448e-06 0)
(8.27121e-07 -9.82923e-07 0)
(9.65704e-07 -9.05547e-07 0)
(1.1073e-06 -8.24478e-07 0)
(1.25064e-06 -7.41677e-07 0)
(5.93264e-08 -1.2803e-06 0)
(1.78421e-07 -1.26679e-06 0)
(2.98742e-07 -1.24016e-06 0)
(4.2087e-07 -1.20142e-06 0)
(5.45433e-07 -1.15178e-06 0)
(6.72641e-07 -1.09278e-06 0)
(8.02666e-07 -1.02623e-06 0)
(9.35254e-07 -9.54021e-07 0)
(1.07014e-06 -8.7813e-07 0)
(1.20633e-06 -8.00295e-07 0)
(5.81176e-08 -1.30377e-06 0)
(1.74641e-07 -1.29131e-06 0)
(2.92211e-07 -1.26673e-06 0)
(4.11221e-07 -1.2309e-06 0)
(5.32215e-07 -1.18493e-06 0)
(6.55348e-07 -1.1302e-06 0)
(7.80764e-07 -1.06832e-06 0)
(9.08256e-07 -1.00089e-06 0)
(1.03757e-06 -9.29751e-07 0)
(1.16772e-06 -8.56499e-07 0)
(5.69736e-08 -1.32774e-06 0)
(1.71155e-07 -1.31618e-06 0)
(2.86196e-07 -1.29336e-06 0)
(4.02425e-07 -1.26012e-06 0)
(5.2027e-07 -1.21738e-06 0)
(6.39875e-07 -1.16644e-06 0)
(7.61271e-07 -1.10877e-06 0)
(8.84289e-07 -1.04574e-06 0)
(1.00876e-06 -9.79086e-07 0)
(1.13366e-06 -9.10318e-07 0)
(5.58727e-08 -1.35215e-06 0)
(1.67848e-07 -1.3414e-06 0)
(2.80519e-07 -1.32019e-06 0)
(3.94202e-07 -1.28925e-06 0)
(5.09181e-07 -1.24944e-06 0)
(6.25631e-07 -1.20193e-06 0)
(7.43535e-07 -1.14806e-06 0)
(8.62679e-07 -1.08908e-06 0)
(9.8299e-07 -1.02652e-06 0)
(1.1034e-06 -9.61916e-07 0)
(5.48485e-08 -1.37697e-06 0)
(1.64692e-07 -1.36695e-06 0)
(2.75127e-07 -1.34716e-06 0)
(3.86445e-07 -1.31827e-06 0)
(4.9882e-07 -1.28108e-06 0)
(6.12408e-07 -1.23666e-06 0)
(7.27199e-07 -1.18625e-06 0)
(8.42949e-07 -1.13098e-06 0)
(9.59644e-07 -1.07221e-06 0)
(1.07622e-06 -1.01146e-06 0)
(5.38595e-08 -1.40217e-06 0)
(1.61629e-07 -1.3928e-06 0)
(2.69934e-07 -1.37429e-06 0)
(3.79e-07 -1.34726e-06 0)
(4.88964e-07 -1.31245e-06 0)
(5.99954e-07 -1.27082e-06 0)
(7.11937e-07 -1.22354e-06 0)
(8.24678e-07 -1.17165e-06 0)
(9.38201e-07 -1.11636e-06 0)
(1.05147e-06 -1.05915e-06 0)
(5.28556e-08 -1.4277e-06 0)
(1.58622e-07 -1.41892e-06 0)
(2.64872e-07 -1.40156e-06 0)
(3.71784e-07 -1.37621e-06 0)
(4.79461e-07 -1.34356e-06 0)
(5.88053e-07 -1.30445e-06 0)
(6.97473e-07 -1.26e-06 0)
(8.07508e-07 -1.21121e-06 0)
(9.1821e-07 -1.15911e-06 0)
(1.0286e-06 -1.10514e-06 0)
(5.18409e-08 -1.45352e-06 0)
(1.55655e-07 -1.44528e-06 0)
(2.59872e-07 -1.42897e-06 0)
(3.64698e-07 -1.40513e-06 0)
(4.70181e-07 -1.37443e-06 0)
(5.76504e-07 -1.33762e-06 0)
(6.8356e-07 -1.29576e-06 0)
(7.91135e-07 -1.24979e-06 0)
(8.99294e-07 -1.20061e-06 0)
(1.00713e-06 -1.14961e-06 0)
(5.08407e-08 -1.47958e-06 0)
(1.52706e-07 -1.47183e-06 0)
(2.54877e-07 -1.45648e-06 0)
(3.57649e-07 -1.43402e-06 0)
(4.61014e-07 -1.40509e-06 0)
(5.65154e-07 -1.37039e-06 0)
(6.69988e-07 -1.33089e-06 0)
(7.75291e-07 -1.28748e-06 0)
(8.81128e-07 -1.24098e-06 0)
(9.86694e-07 -1.19269e-06 0)
(4.98459e-08 -1.50583e-06 0)
(1.4971e-07 -1.49853e-06 0)
(2.49816e-07 -1.48405e-06 0)
(3.50529e-07 -1.46286e-06 0)
(4.51821e-07 -1.43555e-06 0)
(5.53837e-07 -1.40278e-06 0)
(6.56544e-07 -1.36544e-06 0)
(7.59718e-07 -1.32438e-06 0)
(8.63424e-07 -1.28033e-06 0)
(9.66966e-07 -1.23453e-06 0)
(4.88179e-08 -1.53221e-06 0)
(1.46595e-07 -1.52532e-06 0)
(2.44608e-07 -1.51165e-06 0)
(3.43229e-07 -1.49162e-06 0)
(4.42452e-07 -1.4658e-06 0)
(5.42379e-07 -1.4348e-06 0)
(6.4302e-07 -1.39945e-06 0)
(7.44176e-07 -1.36054e-06 0)
(8.45907e-07 -1.31877e-06 0)
(9.47602e-07 -1.27525e-06 0)
(4.77266e-08 -1.55868e-06 0)
(1.43319e-07 -1.55216e-06 0)
(2.39185e-07 -1.53924e-06 0)
(3.35656e-07 -1.52028e-06 0)
(4.3277e-07 -1.49584e-06 0)
(5.30609e-07 -1.46649e-06 0)
(6.2921e-07 -1.43297e-06 0)
(7.28422e-07 -1.39605e-06 0)
(8.28271e-07 -1.35638e-06 0)
(9.28231e-07 -1.31496e-06 0)
(4.6567e-08 -1.58513e-06 0)
(1.39867e-07 -1.57895e-06 0)
(2.33493e-07 -1.56673e-06 0)
(3.2772e-07 -1.54878e-06 0)
(4.22647e-07 -1.52562e-06 0)
(5.18357e-07 -1.49778e-06 0)
(6.14913e-07 -1.46597e-06 0)
(7.12217e-07 -1.43092e-06 0)
(8.10222e-07 -1.39321e-06 0)
(9.08541e-07 -1.35373e-06 0)
(4.53406e-08 -1.61151e-06 0)
(1.36209e-07 -1.60566e-06 0)
(2.27446e-07 -1.5941e-06 0)
(3.19299e-07 -1.5771e-06 0)
(4.11931e-07 -1.55514e-06 0)
(5.05437e-07 -1.52874e-06 0)
(5.99906e-07 -1.49855e-06 0)
(6.95252e-07 -1.46525e-06 0)
(7.91434e-07 -1.42936e-06 0)
(8.88119e-07 -1.39171e-06 0)
(4.40325e-08 -1.63761e-06 0)
(1.32283e-07 -1.63208e-06 0)
(2.2094e-07 -1.62114e-06 0)
(3.10254e-07 -1.60505e-06 0)
(4.00443e-07 -1.58424e-06 0)
(4.91632e-07 -1.5592e-06 0)
(5.83921e-07 -1.53054e-06 0)
(6.77219e-07 -1.49891e-06 0)
(7.71554e-07 -1.46476e-06 0)
(8.66612e-07 -1.42884e-06 0)
(4.26069e-08 -1.66352e-06 0)
(1.2799e-07 -1.6583e-06 0)
(2.13827e-07 -1.64796e-06 0)
(3.00403e-07 -1.63273e-06 0)
(3.87959e-07 -1.61304e-06 0)
(4.76663e-07 -1.58933e-06 0)
(5.66619e-07 -1.56216e-06 0)
(6.57787e-07 -1.53211e-06 0)
(7.50164e-07 -1.49965e-06 0)
(8.43575e-07 -1.46538e-06 0)
(4.1044e-08 -1.68867e-06 0)
(1.23298e-07 -1.68374e-06 0)
(2.06055e-07 -1.674e-06 0)
(2.89649e-07 -1.65965e-06 0)
(3.74365e-07 -1.64105e-06 0)
(4.60393e-07 -1.61865e-06 0)
(5.47837e-07 -1.59295e-06 0)
(6.36771e-07 -1.56448e-06 0)
(7.27109e-07 -1.53368e-06 0)
(8.18843e-07 -1.50108e-06 0)
)


// ************************************************************************* //
