/*--------------------------------*- C++ -*----------------------------------*\
| =========                 |                                                 |
| \\      /  F ield         | foam-extend: Open Source CFD                    |
|  \\    /   O peration     | Version:     4.1                                |
|   \\  /    A nd           | Web:         http://www.foam-extend.org         |
|    \\/     M anipulation  |                                                 |
\*---------------------------------------------------------------------------*/
FoamFile
{
    version     2.0;
    format      ascii;
    class       pointVectorField;
    location    "4";
    object      pointD;
}
// * * * * * * * * * * * * * * * * * * * * * * * * * * * * * * * * * * * * * //

dimensions      [0 1 0 0 0 0 0];

internalField   nonuniform List<vector> 
2142
(
(2.32554e-06 -9.65827e-07 -1.2765e-22)
(2.16749e-06 -8.56455e-07 0)
(2.07067e-06 -7.94724e-07 0)
(2.01085e-06 -7.5825e-07 0)
(1.97815e-06 -7.40372e-07 0)
(1.96462e-06 -7.34507e-07 0)
(1.96523e-06 -7.37159e-07 0)
(1.9764e-06 -7.45647e-07 0)
(1.99555e-06 -7.58234e-07 0)
(2.02084e-06 -7.73716e-07 0)
(2.05168e-06 -7.91845e-07 0)
(2.13385e-06 -1.04025e-06 -5.58151e-23)
(1.96233e-06 -9.53646e-07 0)
(1.85711e-06 -9.06389e-07 0)
(1.79179e-06 -8.79312e-07 0)
(1.75516e-06 -8.67756e-07 0)
(1.73864e-06 -8.66193e-07 0)
(1.73669e-06 -8.71917e-07 0)
(1.74552e-06 -8.8263e-07 0)
(1.7623e-06 -8.96989e-07 0)
(1.78523e-06 -9.1375e-07 0)
(1.81247e-06 -9.32789e-07 0)
(1.92948e-06 -1.1085e-06 8.74853e-23)
(1.75099e-06 -1.0485e-06 0)
(1.64138e-06 -1.01807e-06 0)
(1.5731e-06 -1.00188e-06 0)
(1.53414e-06 -9.97588e-07 0)
(1.51555e-06 -1.00091e-06 0)
(1.51154e-06 -1.01007e-06 0)
(1.51819e-06 -1.02325e-06 0)
(1.5326e-06 -1.03952e-06 0)
(1.55276e-06 -1.05768e-06 0)
(1.57692e-06 -1.07823e-06 0)
(1.71372e-06 -1.17009e-06 2.01703e-22)
(1.53541e-06 -1.139e-06 0)
(1.42583e-06 -1.12679e-06 0)
(1.35741e-06 -1.12239e-06 0)
(1.31787e-06 -1.12589e-06 0)
(1.29828e-06 -1.13441e-06 0)
(1.29282e-06 -1.14716e-06 0)
(1.29761e-06 -1.16286e-06 0)
(1.30977e-06 -1.18102e-06 0)
(1.3273e-06 -1.20064e-06 0)
(1.34871e-06 -1.22242e-06 0)
(1.48789e-06 -1.22454e-06 6.85344e-24)
(1.3172e-06 -1.22305e-06 0)
(1.21226e-06 -1.22944e-06 0)
(1.14661e-06 -1.23705e-06 0)
(1.10834e-06 -1.24847e-06 0)
(1.08886e-06 -1.26224e-06 0)
(1.08261e-06 -1.27857e-06 0)
(1.08588e-06 -1.29677e-06 0)
(1.09598e-06 -1.31678e-06 0)
(1.11094e-06 -1.33783e-06 0)
(1.12962e-06 -1.36076e-06 0)
(1.25336e-06 -1.27142e-06 -1.24165e-22)
(1.09763e-06 -1.29852e-06 0)
(1.00187e-06 -1.32287e-06 0)
(9.41877e-07 -1.34205e-06 0)
(9.06663e-07 -1.36107e-06 0)
(8.88403e-07 -1.37988e-06 0)
(8.82019e-07 -1.39962e-06 0)
(8.84119e-07 -1.4202e-06 0)
(8.92301e-07 -1.44192e-06 0)
(9.04745e-07 -1.46435e-06 0)
(9.20582e-07 -1.48834e-06 0)
(1.01154e-06 -1.31033e-06 1.56795e-23)
(8.77617e-07 -1.36342e-06 0)
(7.95243e-07 -1.40406e-06 0)
(7.43593e-07 -1.43374e-06 0)
(7.13126e-07 -1.45965e-06 0)
(6.97115e-07 -1.48301e-06 0)
(6.91191e-07 -1.50583e-06 0)
(6.92444e-07 -1.52854e-06 0)
(6.98836e-07 -1.5518e-06 0)
(7.08777e-07 -1.57548e-06 0)
(7.21649e-07 -1.6004e-06 0)
(7.63848e-07 -1.34096e-06 1.71414e-23)
(6.57719e-07 -1.41595e-06 0)
(5.92424e-07 -1.47031e-06 0)
(5.51453e-07 -1.50884e-06 0)
(5.272e-07 -1.54054e-06 0)
(5.14333e-07 -1.56772e-06 0)
(5.09392e-07 -1.59312e-06 0)
(5.10071e-07 -1.61762e-06 0)
(5.14773e-07 -1.64218e-06 0)
(5.22221e-07 -1.66693e-06 0)
(5.32e-07 -1.69262e-06 0)
(5.11743e-07 -1.36301e-06 4.60797e-23)
(4.382e-07 -1.4546e-06 0)
(3.92934e-07 -1.51934e-06 0)
(3.64512e-07 -1.56457e-06 0)
(3.47645e-07 -1.60066e-06 0)
(3.38639e-07 -1.63073e-06 0)
(3.35095e-07 -1.65809e-06 0)
(3.35415e-07 -1.68395e-06 0)
(3.38503e-07 -1.70949e-06 0)
(3.43463e-07 -1.73506e-06 0)
(3.50046e-07 -1.76133e-06 0)
(2.56705e-07 -1.37629e-06 7.06573e-23)
(2.19084e-07 -1.47822e-06 0)
(1.95904e-07 -1.54945e-06 0)
(1.81338e-07 -1.59886e-06 0)
(1.72677e-07 -1.63769e-06 0)
(1.68031e-07 -1.66956e-06 0)
(1.66174e-07 -1.69814e-06 0)
(1.66287e-07 -1.72485e-06 0)
(1.67811e-07 -1.75101e-06 0)
(1.70285e-07 -1.7771e-06 0)
(1.73593e-07 -1.80374e-06 0)
(0 -1.3806e-06 4.95494e-23)
(0 -1.48613e-06 -2.01001e-25)
(0 -1.55965e-06 0)
(0 -1.61043e-06 0)
(0 -1.65023e-06 0)
(0 -1.6827e-06 0)
(0 -1.7117e-06 0)
(0 -1.7387e-06 0)
(0 -1.76506e-06 0)
(0 -1.79133e-06 0)
(0 -1.81809e-06 0)
(2.32554e-06 -9.65827e-07 -1.2765e-22)
(2.16749e-06 -8.56455e-07 0)
(2.07067e-06 -7.94724e-07 0)
(2.01085e-06 -7.5825e-07 0)
(1.97815e-06 -7.40372e-07 0)
(1.96462e-06 -7.34507e-07 0)
(1.96523e-06 -7.37159e-07 0)
(1.9764e-06 -7.45647e-07 0)
(1.99555e-06 -7.58234e-07 0)
(2.02084e-06 -7.73716e-07 0)
(2.05168e-06 -7.91845e-07 0)
(2.13385e-06 -1.04025e-06 -5.58151e-23)
(1.96233e-06 -9.53646e-07 0)
(1.85711e-06 -9.06389e-07 0)
(1.79179e-06 -8.79312e-07 0)
(1.75516e-06 -8.67756e-07 0)
(1.73864e-06 -8.66193e-07 0)
(1.73669e-06 -8.71917e-07 0)
(1.74552e-06 -8.8263e-07 0)
(1.7623e-06 -8.96989e-07 0)
(1.78523e-06 -9.1375e-07 0)
(1.81247e-06 -9.32789e-07 0)
(1.92948e-06 -1.1085e-06 8.74853e-23)
(1.75099e-06 -1.0485e-06 0)
(1.64138e-06 -1.01807e-06 0)
(1.5731e-06 -1.00188e-06 0)
(1.53414e-06 -9.97588e-07 0)
(1.51555e-06 -1.00091e-06 0)
(1.51154e-06 -1.01007e-06 0)
(1.51819e-06 -1.02325e-06 0)
(1.5326e-06 -1.03952e-06 0)
(1.55276e-06 -1.05768e-06 0)
(1.57692e-06 -1.07823e-06 0)
(1.71372e-06 -1.17009e-06 2.01703e-22)
(1.53541e-06 -1.139e-06 0)
(1.42583e-06 -1.12679e-06 0)
(1.35741e-06 -1.12239e-06 0)
(1.31787e-06 -1.12589e-06 0)
(1.29828e-06 -1.13441e-06 0)
(1.29282e-06 -1.14716e-06 0)
(1.29761e-06 -1.16286e-06 0)
(1.30977e-06 -1.18102e-06 0)
(1.3273e-06 -1.20064e-06 0)
(1.34871e-06 -1.22242e-06 0)
(1.48789e-06 -1.22454e-06 6.85344e-24)
(1.3172e-06 -1.22305e-06 0)
(1.21226e-06 -1.22944e-06 0)
(1.14661e-06 -1.23705e-06 0)
(1.10834e-06 -1.24847e-06 0)
(1.08886e-06 -1.26224e-06 0)
(1.08261e-06 -1.27857e-06 0)
(1.08588e-06 -1.29677e-06 0)
(1.09598e-06 -1.31678e-06 0)
(1.11094e-06 -1.33783e-06 0)
(1.12962e-06 -1.36076e-06 0)
(1.25336e-06 -1.27142e-06 -1.24165e-22)
(1.09763e-06 -1.29852e-06 0)
(1.00187e-06 -1.32287e-06 0)
(9.41877e-07 -1.34205e-06 0)
(9.06663e-07 -1.36107e-06 0)
(8.88403e-07 -1.37988e-06 0)
(8.82019e-07 -1.39962e-06 0)
(8.84119e-07 -1.4202e-06 0)
(8.92301e-07 -1.44192e-06 0)
(9.04745e-07 -1.46435e-06 0)
(9.20582e-07 -1.48834e-06 0)
(1.01154e-06 -1.31033e-06 1.56795e-23)
(8.77617e-07 -1.36342e-06 0)
(7.95243e-07 -1.40406e-06 0)
(7.43593e-07 -1.43374e-06 0)
(7.13126e-07 -1.45965e-06 0)
(6.97115e-07 -1.48301e-06 0)
(6.91191e-07 -1.50583e-06 0)
(6.92444e-07 -1.52854e-06 0)
(6.98836e-07 -1.5518e-06 0)
(7.08777e-07 -1.57548e-06 0)
(7.21649e-07 -1.6004e-06 0)
(7.63848e-07 -1.34096e-06 1.71414e-23)
(6.57719e-07 -1.41595e-06 0)
(5.92424e-07 -1.47031e-06 0)
(5.51453e-07 -1.50884e-06 0)
(5.272e-07 -1.54054e-06 0)
(5.14333e-07 -1.56772e-06 0)
(5.09392e-07 -1.59312e-06 0)
(5.10071e-07 -1.61762e-06 0)
(5.14773e-07 -1.64218e-06 0)
(5.22221e-07 -1.66693e-06 0)
(5.32e-07 -1.69262e-06 0)
(5.11743e-07 -1.36301e-06 4.60797e-23)
(4.382e-07 -1.4546e-06 0)
(3.92934e-07 -1.51934e-06 0)
(3.64512e-07 -1.56457e-06 0)
(3.47645e-07 -1.60066e-06 0)
(3.38639e-07 -1.63073e-06 0)
(3.35095e-07 -1.65809e-06 0)
(3.35415e-07 -1.68395e-06 0)
(3.38503e-07 -1.70949e-06 0)
(3.43463e-07 -1.73506e-06 0)
(3.50046e-07 -1.76133e-06 0)
(2.56705e-07 -1.37629e-06 7.06573e-23)
(2.19084e-07 -1.47822e-06 0)
(1.95904e-07 -1.54945e-06 0)
(1.81338e-07 -1.59886e-06 0)
(1.72677e-07 -1.63769e-06 0)
(1.68031e-07 -1.66956e-06 0)
(1.66174e-07 -1.69814e-06 0)
(1.66287e-07 -1.72485e-06 0)
(1.67811e-07 -1.75101e-06 0)
(1.70285e-07 -1.7771e-06 0)
(1.73593e-07 -1.80374e-06 0)
(0 -1.3806e-06 4.95494e-23)
(0 -1.48613e-06 -2.01001e-25)
(0 -1.55965e-06 0)
(0 -1.61043e-06 0)
(0 -1.65023e-06 0)
(0 -1.6827e-06 0)
(0 -1.7117e-06 0)
(0 -1.7387e-06 0)
(0 -1.76506e-06 0)
(0 -1.79133e-06 0)
(0 -1.81809e-06 0)
(3.31082e-06 0 -4.04029e-23)
(3.3481e-06 0 1.63898e-25)
(3.37256e-06 0 0)
(3.39102e-06 0 0)
(3.41069e-06 0 0)
(3.43338e-06 0 0)
(3.46076e-06 0 0)
(3.49302e-06 0 0)
(3.53034e-06 0 0)
(3.57238e-06 0 0)
(3.61906e-06 0 0)
(3.30045e-06 -1.06239e-07 -1.81347e-23)
(3.33434e-06 -7.38024e-08 0)
(3.35666e-06 -5.44389e-08 0)
(3.3738e-06 -4.24566e-08 0)
(3.39256e-06 -3.54808e-08 0)
(3.41466e-06 -3.17472e-08 0)
(3.44161e-06 -3.01886e-08 0)
(3.47354e-06 -3.0076e-08 0)
(3.51059e-06 -3.09462e-08 0)
(3.55237e-06 -3.23594e-08 0)
(3.59884e-06 -3.43814e-08 0)
(3.26916e-06 -2.1186e-07 -3.53064e-23)
(3.29323e-06 -1.48624e-07 0)
(3.30944e-06 -1.10977e-07 0)
(3.32265e-06 -8.77147e-08 0)
(3.33882e-06 -7.42085e-08 0)
(3.35915e-06 -6.70182e-08 0)
(3.38484e-06 -6.40652e-08 0)
(3.4158e-06 -6.39306e-08 0)
(3.45206e-06 -6.5709e-08 0)
(3.49308e-06 -6.85504e-08 0)
(3.53892e-06 -7.25638e-08 0)
(3.21714e-06 -3.16337e-07 -1.05784e-22)
(3.22552e-06 -2.25617e-07 0)
(3.23201e-06 -1.71711e-07 0)
(3.23897e-06 -1.38448e-07 0)
(3.25099e-06 -1.19205e-07 0)
(3.26852e-06 -1.0904e-07 0)
(3.29219e-06 -1.04969e-07 0)
(3.32161e-06 -1.04958e-07 0)
(3.3566e-06 -1.07697e-07 0)
(3.3964e-06 -1.11983e-07 0)
(3.44124e-06 -1.17917e-07 0)
(3.14482e-06 -4.1903e-07 -7.46749e-23)
(3.13259e-06 -3.05617e-07 0)
(3.12633e-06 -2.38355e-07 0)
(3.12506e-06 -1.96914e-07 0)
(3.13164e-06 -1.73069e-07 0)
(3.14546e-06 -1.60615e-07 0)
(3.16648e-06 -1.55823e-07 0)
(3.19387e-06 -1.56144e-07 0)
(3.22718e-06 -1.59921e-07 0)
(3.26539e-06 -1.65673e-07 0)
(3.3089e-06 -1.73438e-07 0)
(3.05278e-06 -5.19369e-07 -5.88279e-24)
(3.01628e-06 -3.89205e-07 0)
(2.99497e-06 -3.12206e-07 0)
(2.98401e-06 -2.64867e-07 0)
(2.98417e-06 -2.37836e-07 0)
(2.99361e-06 -2.23951e-07 0)
(3.01148e-06 -2.18935e-07 0)
(3.03644e-06 -2.19851e-07 0)
(3.06775e-06 -2.24768e-07 0)
(3.10406e-06 -2.32015e-07 0)
(3.14597e-06 -2.41493e-07 0)
(2.94172e-06 -6.16772e-07 -1.83968e-24)
(2.87876e-06 -4.76628e-07 0)
(2.84105e-06 -3.94022e-07 0)
(2.81951e-06 -3.43389e-07 0)
(2.81264e-06 -3.1479e-07 0)
(2.81727e-06 -3.00458e-07 0)
(2.83165e-06 -2.95791e-07 0)
(2.85391e-06 -2.97609e-07 0)
(2.88298e-06 -3.03792e-07 0)
(2.91718e-06 -3.12571e-07 0)
(2.95726e-06 -3.23654e-07 0)
(2.81248e-06 -7.10674e-07 -3.12404e-24)
(2.7225e-06 -5.67764e-07 0)
(2.66802e-06 -4.83966e-07 0)
(2.63564e-06 -4.32824e-07 0)
(2.62155e-06 -4.0439e-07 0)
(2.6212e-06 -3.90663e-07 0)
(2.63193e-06 -3.8696e-07 0)
(2.65136e-06 -3.90011e-07 0)
(2.678e-06 -3.97607e-07 0)
(2.70997e-06 -4.07978e-07 0)
(2.74803e-06 -4.20552e-07 0)
(2.666e-06 -8.00513e-07 1.51556e-22)
(2.5501e-06 -6.62104e-07 0)
(2.47952e-06 -5.81564e-07 0)
(2.43673e-06 -5.32722e-07 0)
(2.41565e-06 -5.06202e-07 0)
(2.41045e-06 -4.94139e-07 0)
(2.41755e-06 -4.92018e-07 0)
(2.4341e-06 -4.96636e-07 0)
(2.45824e-06 -5.0582e-07 0)
(2.48791e-06 -5.17871e-07 0)
(2.52381e-06 -5.31975e-07 0)
(2.50332e-06 -8.85743e-07 9.61237e-23)
(2.36423e-06 -7.58753e-07 0)
(2.27922e-06 -6.85715e-07 0)
(2.22709e-06 -6.41855e-07 0)
(2.19967e-06 -6.18915e-07 0)
(2.18998e-06 -6.09515e-07 0)
(2.19364e-06 -6.09549e-07 0)
(2.20737e-06 -6.16026e-07 0)
(2.22896e-06 -6.26929e-07 0)
(2.25633e-06 -6.40824e-07 0)
(2.28973e-06 -6.56469e-07 0)
(3.31082e-06 0 -4.04029e-23)
(3.3481e-06 0 1.63898e-25)
(3.37256e-06 0 0)
(3.39102e-06 0 0)
(3.41069e-06 0 0)
(3.43338e-06 0 0)
(3.46076e-06 0 0)
(3.49302e-06 0 0)
(3.53034e-06 0 0)
(3.57238e-06 0 0)
(3.61906e-06 0 0)
(3.30045e-06 -1.06239e-07 -1.81347e-23)
(3.33434e-06 -7.38024e-08 0)
(3.35666e-06 -5.44389e-08 0)
(3.3738e-06 -4.24566e-08 0)
(3.39256e-06 -3.54808e-08 0)
(3.41466e-06 -3.17472e-08 0)
(3.44161e-06 -3.01886e-08 0)
(3.47354e-06 -3.0076e-08 0)
(3.51059e-06 -3.09462e-08 0)
(3.55237e-06 -3.23594e-08 0)
(3.59884e-06 -3.43814e-08 0)
(3.26916e-06 -2.1186e-07 -3.53064e-23)
(3.29323e-06 -1.48624e-07 0)
(3.30944e-06 -1.10977e-07 0)
(3.32265e-06 -8.77147e-08 0)
(3.33882e-06 -7.42085e-08 0)
(3.35915e-06 -6.70182e-08 0)
(3.38484e-06 -6.40652e-08 0)
(3.4158e-06 -6.39306e-08 0)
(3.45206e-06 -6.5709e-08 0)
(3.49308e-06 -6.85504e-08 0)
(3.53892e-06 -7.25638e-08 0)
(3.21714e-06 -3.16337e-07 -1.05784e-22)
(3.22552e-06 -2.25617e-07 0)
(3.23201e-06 -1.71711e-07 0)
(3.23897e-06 -1.38448e-07 0)
(3.25099e-06 -1.19205e-07 0)
(3.26852e-06 -1.0904e-07 0)
(3.29219e-06 -1.04969e-07 0)
(3.32161e-06 -1.04958e-07 0)
(3.3566e-06 -1.07697e-07 0)
(3.3964e-06 -1.11983e-07 0)
(3.44124e-06 -1.17917e-07 0)
(3.14482e-06 -4.1903e-07 -7.46749e-23)
(3.13259e-06 -3.05617e-07 0)
(3.12633e-06 -2.38355e-07 0)
(3.12506e-06 -1.96914e-07 0)
(3.13164e-06 -1.73069e-07 0)
(3.14546e-06 -1.60615e-07 0)
(3.16648e-06 -1.55823e-07 0)
(3.19387e-06 -1.56144e-07 0)
(3.22718e-06 -1.59921e-07 0)
(3.26539e-06 -1.65673e-07 0)
(3.3089e-06 -1.73438e-07 0)
(3.05278e-06 -5.19369e-07 -5.88279e-24)
(3.01628e-06 -3.89205e-07 0)
(2.99497e-06 -3.12206e-07 0)
(2.98401e-06 -2.64867e-07 0)
(2.98417e-06 -2.37836e-07 0)
(2.99361e-06 -2.23951e-07 0)
(3.01148e-06 -2.18935e-07 0)
(3.03644e-06 -2.19851e-07 0)
(3.06775e-06 -2.24768e-07 0)
(3.10406e-06 -2.32015e-07 0)
(3.14597e-06 -2.41493e-07 0)
(2.94172e-06 -6.16772e-07 -1.83968e-24)
(2.87876e-06 -4.76628e-07 0)
(2.84105e-06 -3.94022e-07 0)
(2.81951e-06 -3.43389e-07 0)
(2.81264e-06 -3.1479e-07 0)
(2.81727e-06 -3.00458e-07 0)
(2.83165e-06 -2.95791e-07 0)
(2.85391e-06 -2.97609e-07 0)
(2.88298e-06 -3.03792e-07 0)
(2.91718e-06 -3.12571e-07 0)
(2.95726e-06 -3.23654e-07 0)
(2.81248e-06 -7.10674e-07 -3.12404e-24)
(2.7225e-06 -5.67764e-07 0)
(2.66802e-06 -4.83966e-07 0)
(2.63564e-06 -4.32824e-07 0)
(2.62155e-06 -4.0439e-07 0)
(2.6212e-06 -3.90663e-07 0)
(2.63193e-06 -3.8696e-07 0)
(2.65136e-06 -3.90011e-07 0)
(2.678e-06 -3.97607e-07 0)
(2.70997e-06 -4.07978e-07 0)
(2.74803e-06 -4.20552e-07 0)
(2.666e-06 -8.00513e-07 1.51556e-22)
(2.5501e-06 -6.62104e-07 0)
(2.47952e-06 -5.81564e-07 0)
(2.43673e-06 -5.32722e-07 0)
(2.41565e-06 -5.06202e-07 0)
(2.41045e-06 -4.94139e-07 0)
(2.41755e-06 -4.92018e-07 0)
(2.4341e-06 -4.96636e-07 0)
(2.45824e-06 -5.0582e-07 0)
(2.48791e-06 -5.17871e-07 0)
(2.52381e-06 -5.31975e-07 0)
(2.50332e-06 -8.85743e-07 9.61237e-23)
(2.36423e-06 -7.58753e-07 0)
(2.27922e-06 -6.85715e-07 0)
(2.22709e-06 -6.41855e-07 0)
(2.19967e-06 -6.18915e-07 0)
(2.18998e-06 -6.09515e-07 0)
(2.19364e-06 -6.09549e-07 0)
(2.20737e-06 -6.16026e-07 0)
(2.22896e-06 -6.26929e-07 0)
(2.25633e-06 -6.40824e-07 0)
(2.28973e-06 -6.56469e-07 0)
(3.67021e-06 0 0)
(3.72514e-06 0 0)
(3.78342e-06 0 0)
(3.84474e-06 0 0)
(3.90879e-06 0 0)
(3.9753e-06 0 0)
(4.04397e-06 0 0)
(4.11457e-06 0 0)
(4.18685e-06 0 0)
(4.26058e-06 0 0)
(4.33552e-06 0 0)
(4.41146e-06 0 0)
(4.48815e-06 0 0)
(4.56536e-06 0 0)
(4.64282e-06 0 0)
(4.7203e-06 0 0)
(4.79741e-06 0 0)
(4.87394e-06 0 0)
(4.94926e-06 0 -1.21054e-26)
(5.02341e-06 0 -1.97931e-23)
(3.65181e-06 -3.46459e-08 0)
(3.70827e-06 -3.4766e-08 0)
(3.7679e-06 -3.48936e-08 0)
(3.83041e-06 -3.48948e-08 0)
(3.89551e-06 -3.47403e-08 0)
(3.96294e-06 -3.44004e-08 0)
(4.03245e-06 -3.38498e-08 0)
(4.10381e-06 -3.30717e-08 0)
(4.17678e-06 -3.20468e-08 0)
(4.25113e-06 -3.0757e-08 0)
(4.32666e-06 -2.91805e-08 0)
(4.40313e-06 -2.72921e-08 0)
(4.48033e-06 -2.50611e-08 0)
(4.55802e-06 -2.24502e-08 0)
(4.63593e-06 -1.94143e-08 0)
(4.71384e-06 -1.58971e-08 0)
(4.79137e-06 -1.18332e-08 0)
(4.86832e-06 -7.13392e-09 0)
(4.94404e-06 -1.7227e-09 0)
(5.0186e-06 4.61982e-09 -4.09861e-23)
(3.59721e-06 -7.25086e-08 0)
(3.65821e-06 -7.22825e-08 0)
(3.72182e-06 -7.21458e-08 0)
(3.78783e-06 -7.18315e-08 0)
(3.85603e-06 -7.12622e-08 0)
(3.92623e-06 -7.03717e-08 0)
(3.99822e-06 -6.90992e-08 0)
(4.07182e-06 -6.74054e-08 0)
(4.14683e-06 -6.52452e-08 0)
(4.22305e-06 -6.25785e-08 0)
(4.3003e-06 -5.93576e-08 0)
(4.37838e-06 -5.55291e-08 0)
(4.45707e-06 -5.10293e-08 0)
(4.53618e-06 -4.57813e-08 0)
(4.61544e-06 -3.96931e-08 0)
(4.69464e-06 -3.26509e-08 0)
(4.77342e-06 -2.45224e-08 0)
(4.85158e-06 -1.51292e-08 0)
(4.92852e-06 -4.31695e-09 0)
(5.00429e-06 8.34886e-09 -6.93313e-23)
(3.50809e-06 -1.16434e-07 0)
(3.57641e-06 -1.14973e-07 0)
(3.64648e-06 -1.13827e-07 0)
(3.71817e-06 -1.12602e-07 0)
(3.79142e-06 -1.11129e-07 0)
(3.86612e-06 -1.09295e-07 0)
(3.94216e-06 -1.06984e-07 0)
(4.01942e-06 -1.0412e-07 0)
(4.09776e-06 -1.00623e-07 0)
(4.17704e-06 -9.64216e-08 0)
(4.25711e-06 -9.14346e-08 0)
(4.33781e-06 -8.55753e-08 0)
(4.41896e-06 -7.87416e-08 0)
(4.50038e-06 -7.08132e-08 0)
(4.58184e-06 -6.16479e-08 0)
(4.66315e-06 -5.10709e-08 0)
(4.74397e-06 -3.88806e-08 0)
(4.82413e-06 -2.48062e-08 0)
(4.90305e-06 -8.61183e-09 0)
(4.9808e-06 1.03494e-08 -1.1133e-23)
(3.38708e-06 -1.68983e-07 0)
(3.46517e-06 -1.65044e-07 0)
(3.54389e-06 -1.61836e-07 0)
(3.62322e-06 -1.58854e-07 0)
(3.7033e-06 -1.55785e-07 0)
(3.78409e-06 -1.52449e-07 0)
(3.86564e-06 -1.48645e-07 0)
(3.94787e-06 -1.44249e-07 0)
(4.03075e-06 -1.39126e-07 0)
(4.11419e-06 -1.33161e-07 0)
(4.19811e-06 -1.26233e-07 0)
(4.28238e-06 -1.18211e-07 0)
(4.36687e-06 -1.08949e-07 0)
(4.45144e-06 -9.82777e-08 0)
(4.5359e-06 -8.6e-08 0)
(4.62008e-06 -7.18763e-08 0)
(4.70368e-06 -5.56315e-08 0)
(4.78656e-06 -3.68996e-08 0)
(4.86816e-06 -1.53579e-08 0)
(4.94861e-06 9.8493e-09 1.73903e-23)
(3.2376e-06 -2.32225e-07 0)
(3.32745e-06 -2.24292e-07 0)
(3.41668e-06 -2.17722e-07 0)
(3.50534e-06 -2.11932e-07 0)
(3.59379e-06 -2.06397e-07 0)
(3.68209e-06 -2.00853e-07 0)
(3.77042e-06 -1.94987e-07 0)
(3.85882e-06 -1.886e-07 0)
(3.94733e-06 -1.81487e-07 0)
(4.03594e-06 -1.73475e-07 0)
(4.12462e-06 -1.64386e-07 0)
(4.21333e-06 -1.54039e-07 0)
(4.30198e-06 -1.42235e-07 0)
(4.39046e-06 -1.28747e-07 0)
(4.47863e-06 -1.13319e-07 0)
(4.56637e-06 -9.5641e-08 0)
(4.65341e-06 -7.53612e-08 0)
(4.73965e-06 -5.20147e-08 0)
(4.82459e-06 -2.51865e-08 0)
(4.90839e-06 6.18148e-09 3.87563e-23)
(3.06378e-06 -3.07598e-07 0)
(3.16683e-06 -2.94033e-07 0)
(3.26799e-06 -2.82667e-07 0)
(3.36733e-06 -2.72891e-07 0)
(3.46541e-06 -2.63915e-07 0)
(3.56241e-06 -2.55361e-07 0)
(3.65863e-06 -2.46779e-07 0)
(3.7542e-06 -2.3787e-07 0)
(3.84929e-06 -2.28342e-07 0)
(3.94394e-06 -2.17946e-07 0)
(4.03822e-06 -2.06436e-07 0)
(4.13212e-06 -1.93568e-07 0)
(4.22563e-06 -1.7908e-07 0)
(4.3187e-06 -1.62685e-07 0)
(4.41122e-06 -1.4406e-07 0)
(4.50311e-06 -1.2282e-07 0)
(4.59417e-06 -9.85333e-08 0)
(4.68435e-06 -7.06335e-08 0)
(4.77319e-06 -3.86105e-08 0)
(4.86091e-06 -1.21673e-09 6.96016e-23)
(2.87007e-06 -3.95743e-07 0)
(2.98717e-06 -3.74877e-07 0)
(3.10122e-06 -3.57227e-07 0)
(3.2122e-06 -3.42204e-07 0)
(3.3209e-06 -3.28744e-07 0)
(3.42754e-06 -3.1631e-07 0)
(3.53256e-06 -3.04308e-07 0)
(3.63617e-06 -2.92308e-07 0)
(3.73863e-06 -2.79913e-07 0)
(3.84008e-06 -2.66778e-07 0)
(3.94064e-06 -2.52577e-07 0)
(4.0404e-06 -2.36988e-07 0)
(4.13938e-06 -2.19681e-07 0)
(4.23759e-06 -2.00297e-07 0)
(4.33499e-06 -1.7844e-07 0)
(4.43156e-06 -1.5365e-07 0)
(4.52713e-06 -1.25409e-07 0)
(4.62171e-06 -9.30518e-08 0)
(4.71493e-06 -5.59694e-08 0)
(4.80705e-06 -1.27398e-08 1.73988e-24)
(2.66128e-06 -4.96712e-07 0)
(2.79263e-06 -4.67064e-07 0)
(2.92001e-06 -4.41807e-07 0)
(3.04321e-06 -4.20324e-07 0)
(3.16315e-06 -4.01369e-07 0)
(3.28009e-06 -3.84183e-07 0)
(3.39457e-06 -3.68035e-07 0)
(3.50688e-06 -3.52339e-07 0)
(3.61734e-06 -3.36582e-07 0)
(3.72619e-06 -3.20312e-07 0)
(3.83361e-06 -3.03107e-07 0)
(3.93976e-06 -2.84562e-07 0)
(4.04472e-06 -2.64267e-07 0)
(4.14856e-06 -2.41787e-07 0)
(4.25129e-06 -2.16648e-07 0)
(4.35294e-06 -1.88311e-07 0)
(4.45343e-06 -1.56172e-07 0)
(4.5528e-06 -1.19468e-07 0)
(4.6508e-06 -7.74957e-08 0)
(4.74773e-06 -2.86941e-08 -2.0077e-23)
(2.44186e-06 -6.09276e-07 0)
(2.5871e-06 -5.69473e-07 0)
(2.72774e-06 -5.35483e-07 0)
(2.86346e-06 -5.06405e-07 0)
(2.99502e-06 -4.80999e-07 0)
(3.12278e-06 -4.58253e-07 0)
(3.24721e-06 -4.37294e-07 0)
(3.36873e-06 -4.17369e-07 0)
(3.4877e-06 -3.97828e-07 0)
(3.60442e-06 -3.78093e-07 0)
(3.71915e-06 -3.57637e-07 0)
(3.83209e-06 -3.35958e-07 0)
(3.94341e-06 -3.12559e-07 0)
(4.05324e-06 -2.86924e-07 0)
(4.16164e-06 -2.585e-07 0)
(4.26869e-06 -2.26664e-07 0)
(4.37439e-06 -1.90733e-07 0)
(4.47885e-06 -1.49848e-07 0)
(4.5819e-06 -1.03216e-07 0)
(4.68394e-06 -4.91444e-08 1.2327e-23)
(2.21777e-06 -7.31936e-07 0)
(2.37589e-06 -6.80851e-07 0)
(2.52912e-06 -6.37596e-07 0)
(2.67695e-06 -6.00212e-07 0)
(2.81997e-06 -5.67653e-07 0)
(2.9585e-06 -5.38685e-07 0)
(3.09302e-06 -5.12321e-07 0)
(3.22392e-06 -4.87653e-07 0)
(3.35162e-06 -4.63895e-07 0)
(3.47646e-06 -4.40343e-07 0)
(3.59877e-06 -4.16357e-07 0)
(3.71879e-06 -3.91331e-07 0)
(3.83674e-06 -3.64677e-07 0)
(3.9528e-06 -3.35791e-07 0)
(4.06711e-06 -3.04041e-07 0)
(4.1798e-06 -2.68727e-07 0)
(4.29095e-06 -2.29085e-07 0)
(4.40072e-06 -1.84178e-07 0)
(4.50908e-06 -1.33118e-07 0)
(4.61645e-06 -7.41332e-08 3.59063e-23)
(3.67021e-06 0 0)
(3.72514e-06 0 0)
(3.78342e-06 0 0)
(3.84474e-06 0 0)
(3.90879e-06 0 0)
(3.9753e-06 0 0)
(4.04397e-06 0 0)
(4.11457e-06 0 0)
(4.18685e-06 0 0)
(4.26058e-06 0 0)
(4.33552e-06 0 0)
(4.41146e-06 0 0)
(4.48815e-06 0 0)
(4.56536e-06 0 0)
(4.64282e-06 0 0)
(4.7203e-06 0 0)
(4.79741e-06 0 0)
(4.87394e-06 0 0)
(4.94926e-06 0 -1.21054e-26)
(5.02341e-06 0 -1.97931e-23)
(3.65181e-06 -3.46459e-08 0)
(3.70827e-06 -3.4766e-08 0)
(3.7679e-06 -3.48936e-08 0)
(3.83041e-06 -3.48948e-08 0)
(3.89551e-06 -3.47403e-08 0)
(3.96294e-06 -3.44004e-08 0)
(4.03245e-06 -3.38498e-08 0)
(4.10381e-06 -3.30717e-08 0)
(4.17678e-06 -3.20468e-08 0)
(4.25113e-06 -3.0757e-08 0)
(4.32666e-06 -2.91805e-08 0)
(4.40313e-06 -2.72921e-08 0)
(4.48033e-06 -2.50611e-08 0)
(4.55802e-06 -2.24502e-08 0)
(4.63593e-06 -1.94143e-08 0)
(4.71384e-06 -1.58971e-08 0)
(4.79137e-06 -1.18332e-08 0)
(4.86832e-06 -7.13392e-09 0)
(4.94404e-06 -1.7227e-09 0)
(5.0186e-06 4.61982e-09 -4.09861e-23)
(3.59721e-06 -7.25086e-08 0)
(3.65821e-06 -7.22825e-08 0)
(3.72182e-06 -7.21458e-08 0)
(3.78783e-06 -7.18315e-08 0)
(3.85603e-06 -7.12622e-08 0)
(3.92623e-06 -7.03717e-08 0)
(3.99822e-06 -6.90992e-08 0)
(4.07182e-06 -6.74054e-08 0)
(4.14683e-06 -6.52452e-08 0)
(4.22305e-06 -6.25785e-08 0)
(4.3003e-06 -5.93576e-08 0)
(4.37838e-06 -5.55291e-08 0)
(4.45707e-06 -5.10293e-08 0)
(4.53618e-06 -4.57813e-08 0)
(4.61544e-06 -3.96931e-08 0)
(4.69464e-06 -3.26509e-08 0)
(4.77342e-06 -2.45224e-08 0)
(4.85158e-06 -1.51292e-08 0)
(4.92852e-06 -4.31695e-09 0)
(5.00429e-06 8.34886e-09 -6.93313e-23)
(3.50809e-06 -1.16434e-07 0)
(3.57641e-06 -1.14973e-07 0)
(3.64648e-06 -1.13827e-07 0)
(3.71817e-06 -1.12602e-07 0)
(3.79142e-06 -1.11129e-07 0)
(3.86612e-06 -1.09295e-07 0)
(3.94216e-06 -1.06984e-07 0)
(4.01942e-06 -1.0412e-07 0)
(4.09776e-06 -1.00623e-07 0)
(4.17704e-06 -9.64216e-08 0)
(4.25711e-06 -9.14346e-08 0)
(4.33781e-06 -8.55753e-08 0)
(4.41896e-06 -7.87416e-08 0)
(4.50038e-06 -7.08132e-08 0)
(4.58184e-06 -6.16479e-08 0)
(4.66315e-06 -5.10709e-08 0)
(4.74397e-06 -3.88806e-08 0)
(4.82413e-06 -2.48062e-08 0)
(4.90305e-06 -8.61183e-09 0)
(4.9808e-06 1.03494e-08 -1.1133e-23)
(3.38708e-06 -1.68983e-07 0)
(3.46517e-06 -1.65044e-07 0)
(3.54389e-06 -1.61836e-07 0)
(3.62322e-06 -1.58854e-07 0)
(3.7033e-06 -1.55785e-07 0)
(3.78409e-06 -1.52449e-07 0)
(3.86564e-06 -1.48645e-07 0)
(3.94787e-06 -1.44249e-07 0)
(4.03075e-06 -1.39126e-07 0)
(4.11419e-06 -1.33161e-07 0)
(4.19811e-06 -1.26233e-07 0)
(4.28238e-06 -1.18211e-07 0)
(4.36687e-06 -1.08949e-07 0)
(4.45144e-06 -9.82777e-08 0)
(4.5359e-06 -8.6e-08 0)
(4.62008e-06 -7.18763e-08 0)
(4.70368e-06 -5.56315e-08 0)
(4.78656e-06 -3.68996e-08 0)
(4.86816e-06 -1.53579e-08 0)
(4.94861e-06 9.8493e-09 1.73903e-23)
(3.2376e-06 -2.32225e-07 0)
(3.32745e-06 -2.24292e-07 0)
(3.41668e-06 -2.17722e-07 0)
(3.50534e-06 -2.11932e-07 0)
(3.59379e-06 -2.06397e-07 0)
(3.68209e-06 -2.00853e-07 0)
(3.77042e-06 -1.94987e-07 0)
(3.85882e-06 -1.886e-07 0)
(3.94733e-06 -1.81487e-07 0)
(4.03594e-06 -1.73475e-07 0)
(4.12462e-06 -1.64386e-07 0)
(4.21333e-06 -1.54039e-07 0)
(4.30198e-06 -1.42235e-07 0)
(4.39046e-06 -1.28747e-07 0)
(4.47863e-06 -1.13319e-07 0)
(4.56637e-06 -9.5641e-08 0)
(4.65341e-06 -7.53612e-08 0)
(4.73965e-06 -5.20147e-08 0)
(4.82459e-06 -2.51865e-08 0)
(4.90839e-06 6.18148e-09 3.87563e-23)
(3.06378e-06 -3.07598e-07 0)
(3.16683e-06 -2.94033e-07 0)
(3.26799e-06 -2.82667e-07 0)
(3.36733e-06 -2.72891e-07 0)
(3.46541e-06 -2.63915e-07 0)
(3.56241e-06 -2.55361e-07 0)
(3.65863e-06 -2.46779e-07 0)
(3.7542e-06 -2.3787e-07 0)
(3.84929e-06 -2.28342e-07 0)
(3.94394e-06 -2.17946e-07 0)
(4.03822e-06 -2.06436e-07 0)
(4.13212e-06 -1.93568e-07 0)
(4.22563e-06 -1.7908e-07 0)
(4.3187e-06 -1.62685e-07 0)
(4.41122e-06 -1.4406e-07 0)
(4.50311e-06 -1.2282e-07 0)
(4.59417e-06 -9.85333e-08 0)
(4.68435e-06 -7.06335e-08 0)
(4.77319e-06 -3.86105e-08 0)
(4.86091e-06 -1.21673e-09 6.96016e-23)
(2.87007e-06 -3.95743e-07 0)
(2.98717e-06 -3.74877e-07 0)
(3.10122e-06 -3.57227e-07 0)
(3.2122e-06 -3.42204e-07 0)
(3.3209e-06 -3.28744e-07 0)
(3.42754e-06 -3.1631e-07 0)
(3.53256e-06 -3.04308e-07 0)
(3.63617e-06 -2.92308e-07 0)
(3.73863e-06 -2.79913e-07 0)
(3.84008e-06 -2.66778e-07 0)
(3.94064e-06 -2.52577e-07 0)
(4.0404e-06 -2.36988e-07 0)
(4.13938e-06 -2.19681e-07 0)
(4.23759e-06 -2.00297e-07 0)
(4.33499e-06 -1.7844e-07 0)
(4.43156e-06 -1.5365e-07 0)
(4.52713e-06 -1.25409e-07 0)
(4.62171e-06 -9.30518e-08 0)
(4.71493e-06 -5.59694e-08 0)
(4.80705e-06 -1.27398e-08 1.73988e-24)
(2.66128e-06 -4.96712e-07 0)
(2.79263e-06 -4.67064e-07 0)
(2.92001e-06 -4.41807e-07 0)
(3.04321e-06 -4.20324e-07 0)
(3.16315e-06 -4.01369e-07 0)
(3.28009e-06 -3.84183e-07 0)
(3.39457e-06 -3.68035e-07 0)
(3.50688e-06 -3.52339e-07 0)
(3.61734e-06 -3.36582e-07 0)
(3.72619e-06 -3.20312e-07 0)
(3.83361e-06 -3.03107e-07 0)
(3.93976e-06 -2.84562e-07 0)
(4.04472e-06 -2.64267e-07 0)
(4.14856e-06 -2.41787e-07 0)
(4.25129e-06 -2.16648e-07 0)
(4.35294e-06 -1.88311e-07 0)
(4.45343e-06 -1.56172e-07 0)
(4.5528e-06 -1.19468e-07 0)
(4.6508e-06 -7.74957e-08 0)
(4.74773e-06 -2.86941e-08 -2.0077e-23)
(2.44186e-06 -6.09276e-07 0)
(2.5871e-06 -5.69473e-07 0)
(2.72774e-06 -5.35483e-07 0)
(2.86346e-06 -5.06405e-07 0)
(2.99502e-06 -4.80999e-07 0)
(3.12278e-06 -4.58253e-07 0)
(3.24721e-06 -4.37294e-07 0)
(3.36873e-06 -4.17369e-07 0)
(3.4877e-06 -3.97828e-07 0)
(3.60442e-06 -3.78093e-07 0)
(3.71915e-06 -3.57637e-07 0)
(3.83209e-06 -3.35958e-07 0)
(3.94341e-06 -3.12559e-07 0)
(4.05324e-06 -2.86924e-07 0)
(4.16164e-06 -2.585e-07 0)
(4.26869e-06 -2.26664e-07 0)
(4.37439e-06 -1.90733e-07 0)
(4.47885e-06 -1.49848e-07 0)
(4.5819e-06 -1.03216e-07 0)
(4.68394e-06 -4.91444e-08 1.2327e-23)
(2.21777e-06 -7.31936e-07 0)
(2.37589e-06 -6.80851e-07 0)
(2.52912e-06 -6.37596e-07 0)
(2.67695e-06 -6.00212e-07 0)
(2.81997e-06 -5.67653e-07 0)
(2.9585e-06 -5.38685e-07 0)
(3.09302e-06 -5.12321e-07 0)
(3.22392e-06 -4.87653e-07 0)
(3.35162e-06 -4.63895e-07 0)
(3.47646e-06 -4.40343e-07 0)
(3.59877e-06 -4.16357e-07 0)
(3.71879e-06 -3.91331e-07 0)
(3.83674e-06 -3.64677e-07 0)
(3.9528e-06 -3.35791e-07 0)
(4.06711e-06 -3.04041e-07 0)
(4.1798e-06 -2.68727e-07 0)
(4.29095e-06 -2.29085e-07 0)
(4.40072e-06 -1.84178e-07 0)
(4.50908e-06 -1.33118e-07 0)
(4.61645e-06 -7.41332e-08 3.59063e-23)
(1.94818e-06 -8.88013e-07 0)
(2.11496e-06 -8.26073e-07 0)
(2.27541e-06 -7.71304e-07 0)
(2.43083e-06 -7.23946e-07 0)
(2.58132e-06 -6.82187e-07 0)
(2.72712e-06 -6.45107e-07 0)
(2.86852e-06 -6.11653e-07 0)
(3.00587e-06 -5.80908e-07 0)
(3.13951e-06 -5.52024e-07 0)
(3.26978e-06 -5.24238e-07 0)
(3.39701e-06 -4.9685e-07 0)
(3.52149e-06 -4.6921e-07 0)
(3.64347e-06 -4.40699e-07 0)
(3.76317e-06 -4.10711e-07 0)
(3.8808e-06 -3.78629e-07 0)
(3.99651e-06 -3.43813e-07 0)
(4.11049e-06 -3.05559e-07 0)
(4.22286e-06 -2.63117e-07 0)
(4.33384e-06 -2.15573e-07 0)
(4.44348e-06 -1.62091e-07 0)
(4.55226e-06 -1.00966e-07 3.74606e-23)
(1.8579e-06 -9.79893e-07 0)
(2.02345e-06 -9.1699e-07 0)
(2.18397e-06 -8.59721e-07 0)
(2.3401e-06 -8.09004e-07 0)
(2.49181e-06 -7.63488e-07 0)
(2.63916e-06 -7.22411e-07 0)
(2.78233e-06 -6.84884e-07 0)
(2.92156e-06 -6.50083e-07 0)
(3.05711e-06 -6.17228e-07 0)
(3.18927e-06 -5.85596e-07 0)
(3.31829e-06 -5.54508e-07 0)
(3.44444e-06 -5.23323e-07 0)
(3.56797e-06 -4.91425e-07 0)
(3.6891e-06 -4.58205e-07 0)
(3.80803e-06 -4.23049e-07 0)
(3.92494e-06 -3.85319e-07 0)
(4.04005e-06 -3.44328e-07 0)
(4.15351e-06 -2.9935e-07 0)
(4.26559e-06 -2.49516e-07 0)
(4.37643e-06 -1.94053e-07 0)
(4.48653e-06 -1.314e-07 7.62656e-23)
(1.77901e-06 -1.06885e-06 0)
(1.94235e-06 -1.00505e-06 0)
(2.1015e-06 -9.46016e-07 0)
(2.25703e-06 -8.92701e-07 0)
(2.40868e-06 -8.44058e-07 0)
(2.55644e-06 -7.99512e-07 0)
(2.70035e-06 -7.58332e-07 0)
(2.84054e-06 -7.19805e-07 0)
(2.97719e-06 -6.83235e-07 0)
(3.11052e-06 -6.47952e-07 0)
(3.24074e-06 -6.13315e-07 0)
(3.36808e-06 -5.78709e-07 0)
(3.49275e-06 -5.43532e-07 0)
(3.61497e-06 -5.0719e-07 0)
(3.73494e-06 -4.69079e-07 0)
(3.85286e-06 -4.28581e-07 0)
(3.96894e-06 -3.85034e-07 0)
(4.08338e-06 -3.37752e-07 0)
(4.19648e-06 -2.85926e-07 0)
(4.30844e-06 -2.2885e-07 0)
(4.41977e-06 -1.65125e-07 1.10063e-22)
(1.7096e-06 -1.15404e-06 0)
(1.86996e-06 -1.08997e-06 0)
(2.02687e-06 -1.02976e-06 0)
(2.18087e-06 -9.74433e-07 0)
(2.33154e-06 -9.23207e-07 0)
(2.47881e-06 -8.75681e-07 0)
(2.62261e-06 -8.3127e-07 0)
(2.76299e-06 -7.89375e-07 0)
(2.90006e-06 -7.49389e-07 0)
(3.03396e-06 -7.10706e-07 0)
(3.16485e-06 -6.72734e-07 0)
(3.29292e-06 -6.34891e-07 0)
(3.41836e-06 -5.96605e-07 0)
(3.54136e-06 -5.57304e-07 0)
(3.66211e-06 -5.16409e-07 0)
(3.78083e-06 -4.7333e-07 0)
(3.89772e-06 -4.27443e-07 0)
(4.01302e-06 -3.78108e-07 0)
(4.12703e-06 -3.2459e-07 0)
(4.24001e-06 -2.66258e-07 0)
(4.35246e-06 -2.01882e-07 9.65627e-23)
(1.64839e-06 -1.23545e-06 0)
(1.80519e-06 -1.17146e-06 0)
(1.95924e-06 -1.1106e-06 0)
(2.11101e-06 -1.05379e-06 0)
(2.25999e-06 -1.00051e-06 0)
(2.40607e-06 -9.50487e-07 0)
(2.54908e-06 -9.0328e-07 0)
(2.68901e-06 -8.584e-07 0)
(2.8259e-06 -8.15328e-07 0)
(2.95984e-06 -7.73531e-07 0)
(3.09093e-06 -7.32472e-07 0)
(3.21933e-06 -6.91615e-07 0)
(3.34519e-06 -6.50421e-07 0)
(3.46867e-06 -6.08354e-07 0)
(3.58998e-06 -5.64867e-07 0)
(3.70929e-06 -5.19408e-07 0)
(3.82684e-06 -4.71397e-07 0)
(3.94287e-06 -4.20252e-07 0)
(4.05767e-06 -3.65315e-07 0)
(4.17157e-06 -3.06037e-07 0)
(4.28503e-06 -2.41365e-07 9.74302e-23)
(1.59393e-06 -1.31305e-06 0)
(1.74688e-06 -1.2495e-06 0)
(1.89768e-06 -1.18836e-06 0)
(2.04675e-06 -1.13052e-06 0)
(2.19353e-06 -1.07563e-06 0)
(2.33787e-06 -1.02355e-06 0)
(2.47955e-06 -9.73961e-07 0)
(2.61852e-06 -9.26473e-07 0)
(2.75475e-06 -8.80657e-07 0)