/*--------------------------------*- C++ -*----------------------------------*\
| =========                 |                                                 |
| \\      /  F ield         | foam-extend: Open Source CFD                    |
|  \\    /   O peration     | Version:     4.1                                |
|   \\  /    A nd           | Web:         http://www.foam-extend.org         |
|    \\/     M anipulation  |                                                 |
\*---------------------------------------------------------------------------*/
FoamFile
{
    version     2.0;
    format      ascii;
    class       volScalarField;
    location    "4";
    object      sigmaEq;
}
// * * * * * * * * * * * * * * * * * * * * * * * * * * * * * * * * * * * * * //

dimensions      [1 -1 -2 0 0 0 0];

internalField   nonuniform List<scalar> 
1000
(
425405
485061
532793
568943
585742
592305
591315
585784
578347
567921
532501
541124
561983
584450
593891
596429
592989
586334
577105
567662
636865
596785
588023
594074
594373
591771
585280
576945
566420
556634
735290
650071
610861
598679
588430
579814
569813
559649
548004
538126
825019
699177
630401
599199
577460
562131
548280
536121
523612
513618
903655
742561
646645
596829
563303
540873
522921
508624
495323
485128
969137
778892
659586
592811
548023
518557
496470
479953
465910
455372
1.01977e+06
807114
669281
588442
533884
498073
472159
453516
438779
427798
1.05425e+06
826387
675713
584790
522962
482266
453324
432945
417638
406226
1.07154e+06
835948
678622
582381
516625
473229
442583
421208
405571
393906
390787
258886
185392
154857
143855
145969
153850
165230
177506
189970
374380
257935
202267
186160
183153
187653
194650
203563
212509
222436
341427
256604
231055
234249
240415
247765
254128
260583
265807
272799
293989
257560
267315
288626
302646
312550
318589
323130
325242
329668
235386
263853
307310
343400
363554
375461
381240
384215
383792
385990
173158
278347
348481
395333
419826
433051
438471
440037
437530
437696
129444
302864
389275
442608
469581
483352
488213
488449
484231
482485
147127
337486
428640
484044
511537
524967
529003
527896
522405
518742
221893
380885
465958
519067
545069
557263
560133
557777
551351
546188
319699
430875
500749
547296
569675
579482
580616
576552
569777
561694
202734
213362
223404
232540
240582
247645
253645
258628
262577
265496
267363
268159
267818
266316
263489
259388
253582
246520
236872
226863
230571
235994
242190
248103
253549
258494
262763
266323
269098
271042
272098
272214
271304
269327
266105
261680
255619
248365
238609
228561
274925
273195
273728
274735
276062
277553
278935
280076
280827
281072
280700
279616
277699
274877
270958
265963
259464
251886
241969
231879
326294
317745
312439
308215
304931
302417
300345
298512
296721
294786
292558
289889
286629
282674
277815
272052
264965
256961
246853
236744
378091
363994
353481
344482
336793
330306
324710
319750
315231
310911
306620
302169
297384
292133
286196
279555
271807
263338
253061
243000
426276
408239
393529
380587
369133
359084
350255
342327
335154
328459
322071
315778
309396
302776
295696
288126
279692
270764
260379
250476
468519
448169
430441
414384
399936
386838
375193
364599
355001
346102
337741
329702
321794
313861
305688
297240
288183
278874
268497
258885
503170
482096
463030
444848
428431
413036
399161
386348
374627
363738
353541
343842
334461
325250
316012
306715
297078
287451
277183
268014
530114
508760
489943
470326
452585
435503
419871
405328
391917
379441
367765
356719
346136
335883
325788
315833
305800
296034
286064
277485
548414
528211
511548
492441
474322
456492
439605
423665
408745
394781
381679
369315
357549
346269
335331
324735
314333
304475
294880
287032
555507
534964
519103
501549
484096
466868
450205
434240
419068
404693
391082
378168
365865
354109
342811
332007
321629
312033
303103
296135
541387
529168
514918
499790
484072
468281
452706
437545
422929
408914
395517
382723
370498
358826
347674
337121
327170
318190
310208
304377
529776
519708
508300
495320
481518
467273
452956
438784
424932
411494
398531
386074
374133
362736
351902
341744
332335
324045
317017
312230
516590
508873
499598
488496
476468
463737
450740
437672
424742
412068
399744
387835
376391
365476
355152
345564
336837
329336
323295
319524
502335
496528
489234
479948
469662
458468
446843
434963
423066
411282
399737
388521
377717
367418
357724
348801
340817
334126
329026
326175
487678
483513
477884
470202
461495
451759
441483
430820
420019
409219
398562
388159
378117
368552
359591
351416
344228
338356
334148
332116
472960
470154
465949
459714
452453
444098
435131
425683
416005
406237
396534
387019
377817
369059
360892
353507
347123
342046
338649
337322
458489
456790
453776
448807
442837
435762
428037
419775
411219
402508
393799
385223
376914
369013
361679
355103
349517
345197
342525
341784
444451
443631
441606
437746
432931
427036
420482
413364
405913
398259
390560
382945
375554
368533
362044
356274
351456
347837
345795
345521
430949
430820
429614
426719
422931
418120
412661
406637
400258
393647
386954
380305
373840
367701
362050
357067
352976
349995
348489
348571
418026
418447
417919
415868
413001
409184
404751
399767
394422
388827
383122
377428
371877
366606
361772
357540
354126
351715
350650
350985
405684
406551
406601
405298
403265
400367
396893
392895
388539
383926
379181
374415
369753
365322
361270
357746
354950
353040
352329
352827
393901
395166
395713
395087
393823
391782
389210
386146
382734
379059
375235
371362
367552
363922
360606
357740
355501
354023
353584
354165
382653
384268
385296
385320
384779
383547
381825
379644
377124
374339
371388
368358
365352
362473
359840
357573
355829
354716
354477
355075
371900
373950
375402
376044
376216
375760
374846
373500
371818
369867
367729
365485
363222
361033
359023
357294
355980
355171
355067
355628
361706
364030
366067
367441
368285
368578
368424
367855
366949
365761
364365
362830
361237
359665
358207
356949
356003
355439
355417
355899
351877
355789
357479
359657
361098
362132
362683
362837
362630
362123
361378
360461
359446
358405
357420
356562
355923
355555
355576
355951
342892
346531
349934
352637
354877
356601
357845
358644
359047
359110
358898
358478
357923
357304
356694
356158
355765
355554
355599
355865
334610
339206
343278
346791
349804
352219
354090
355442
356332
356824
356990
356909
356663
356328
355982
355683
355491
355420
355506
355685
327775
333351
338385
342741
346449
349466
351830
353576
354771
355493
355834
355888
355756
355531
355303
355135
355087
355154
355341
355523
385530
397000
417100
442954
471072
498264
521973
540396
552930
557741
378531
388600
406422
429743
455719
481641
505214
524315
538257
544863
372860
381670
397324
417997
441332
465045
487373
506495
522317
532632
368167
375839
389549
407847
428791
450389
471122
489269
504789
517224
363975
370638
382596
398696
417356
436908
456091
473458
488468
501626
360178
365959
376375
390505
407034
424560
441957
458173
472283
485648
356527
361543
370614
383005
397624
413324
429051
444091
457133
469993
352919
357273
365168
376019
388901
402886
416983
430783
442767
454871
349220
353005
359886
369399
380752
393201
405805
418362
429288
440445
345334
348631
354636
362979
372979
384039
395284
406645
416581
426755
341160
344040
349297
356634
365461
375293
385328
395564
404576
413784
336608
339133
343754
350228
358043
366801
375774
384989
393169
401481
331563
333790
337879
343627
350588
358425
366490
374804
382255
389765
325937
327918
331570
336719
342975
350044
357357
364909
371750
378582
319552
321337
324643
329319
335021
341486
348211
355161
361535
367820
312354
313990
317041
321368
326666
332692
339006
345534
351612
357550
303975
305514
308408
312525
317591
323375
329480
335819
341781
347686
294569
296064
298901
302950
307960
313699
319814
326157
332256
338159
283141
284665
287586
291769
296975
302972
309427
316140
322732
329071
270871
272496
275631
280135
285771
292304
299395
306817
314194
321332
)
;

boundaryField
{
    left
    {
        type            symmetryPlane;
        value           nonuniform List<scalar> 
30
(
385264
378297
372654
367988
363820
360044
356411
352819
349134
345260
341097
336554
331517
325899
319522
312331
303959
294559
283137
270870
1.06923e+06
835193
678451
582374
516604
473139
442422
420992
405322
393629
)
;
    }
    right
    {
        type            calculated;
        value           nonuniform List<scalar> 
30
(
226231
227922
231238
236101
242357
249844
258266
267433
276922
286553
295680
304011
311934
319293
326004
331997
337246
341743
345508
348578
351006
352856
354199
355109
355659
355926
355972
355880
355694
355546
)
;
    }
    down
    {
        type            symmetryPlane;
        value           nonuniform List<scalar> 
30
(
390351
258755
184099
152091
140129
142020
150129
161929
174680
187490
200754
211859
222228
231616
239850
247060
253173
258245
262264
265240
267153
267987
267679
266205
263403
259324
253538
246494
236860
226861
)
;
    }
    up
    {
        type            calculated;
        value           nonuniform List<scalar> 
30
(
270484
272107
275244
279750
285392
291937
299040
306486
313877
321060
327527
333147
338212
342597
346333
349373
351756
353516
354723
355453
355799
355858
355730
355509
355284
355121
355077
355147
355337
355506
)
;
    }
    hole
    {
        type            calculated;
        value           nonuniform List<scalar> 
20
(
412370
529198
641628
746937
842557
926145
995640
1.04932e+06
1.08584e+06
1.1042e+06
403868
385366
348296
293819
223397
138823
42268.6
63836.5
176844
293976
)
;
    }
    frontAndBack
    {
        type            empty;
    }
}


// ************************************************************************* //
