/*--------------------------------*- C++ -*----------------------------------*\
| =========                 |                                                 |
| \\      /  F ield         | foam-extend: Open Source CFD                    |
|  \\    /   O peration     | Version:     4.1                                |
|   \\  /    A nd           | Web:         http://www.foam-extend.org         |
|    \\/     M anipulation  |                                                 |
\*---------------------------------------------------------------------------*/
FoamFile
{
    version     2.0;
    format      ascii;
    class       vectorField;
    location    "4";
    object      solidsCellD_iteration3;
}
// * * * * * * * * * * * * * * * * * * * * * * * * * * * * * * * * * * * * * //


1000
(
(1.92815e-06 -7.49658e-07 0)
(1.82862e-06 -7.01367e-07 0)
(1.76643e-06 -6.72229e-07 0)
(1.73247e-06 -6.60527e-07 0)
(1.718e-06 -6.58873e-07 0)
(1.71782e-06 -6.64991e-07 0)
(1.72815e-06 -6.76252e-07 0)
(1.74636e-06 -6.91462e-07 0)
(1.77029e-06 -7.09419e-07 0)
(1.79729e-06 -7.30032e-07 0)
(1.74491e-06 -8.18961e-07 0)
(1.6387e-06 -7.86824e-07 0)
(1.57206e-06 -7.68068e-07 0)
(1.53472e-06 -7.63495e-07 0)
(1.51749e-06 -7.66631e-07 0)
(1.51455e-06 -7.76217e-07 0)
(1.52205e-06 -7.90017e-07 0)
(1.53716e-06 -8.07079e-07 0)
(1.55774e-06 -8.26463e-07 0)
(1.58152e-06 -8.47609e-07 0)
(1.55393e-06 -8.8461e-07 0)
(1.44529e-06 -8.70531e-07 0)
(1.37706e-06 -8.63219e-07 0)
(1.338e-06 -8.664e-07 0)
(1.319e-06 -8.74638e-07 0)
(1.31405e-06 -8.87743e-07 0)
(1.31924e-06 -9.03958e-07 0)
(1.33183e-06 -9.22615e-07 0)
(1.34969e-06 -9.43113e-07 0)
(1.37086e-06 -9.64741e-07 0)
(1.35686e-06 -9.45438e-07 0)
(1.25033e-06 -9.50255e-07 0)
(1.18339e-06 -9.54891e-07 0)
(1.1445e-06 -9.66062e-07 0)
(1.12485e-06 -9.79528e-07 0)
(1.11864e-06 -9.96163e-07 0)
(1.12207e-06 -1.01472e-06 0)
(1.13248e-06 -1.03494e-06 0)
(1.14792e-06 -1.05654e-06 0)
(1.16654e-06 -1.0788e-06 0)
(1.15499e-06 -1.00024e-06 0)
(1.05518e-06 -1.02375e-06 0)
(9.92363e-07 -1.04024e-06 0)
(9.55529e-07 -1.05927e-06 0)
(9.36506e-07 -1.07779e-06 0)
(9.29781e-07 -1.09784e-06 0)
(9.31894e-07 -1.11865e-06 0)
(9.4033e-07 -1.14041e-06 0)
(9.53442e-07 -1.16307e-06 0)
(9.69447e-07 -1.18607e-06 0)
(9.49413e-07 -1.0479e-06 0)
(8.60671e-07 -1.08888e-06 0)
(8.04808e-07 -1.11641e-06 0)
(7.71849e-07 -1.14278e-06 0)
(7.54572e-07 -1.16605e-06 0)
(7.47978e-07 -1.18928e-06 0)
(7.4916e-07 -1.21215e-06 0)
(7.55854e-07 -1.23534e-06 0)
(7.6666e-07 -1.25901e-06 0)
(7.79934e-07 -1.28279e-06 0)
(7.41046e-07 -1.08737e-06 0)
(6.67419e-07 -1.14363e-06 0)
(6.21047e-07 -1.18086e-06 0)
(5.93543e-07 -1.21364e-06 0)
(5.7895e-07 -1.24104e-06 0)
(5.73133e-07 -1.26706e-06 0)
(5.73719e-07 -1.29175e-06 0)
(5.78807e-07 -1.31621e-06 0)
(5.87272e-07 -1.34077e-06 0)
(5.97705e-07 -1.36532e-06 0)
(5.30671e-07 -1.11778e-06 0)
(4.75523e-07 -1.18631e-06 0)
(4.40776e-07 -1.23133e-06 0)
(4.20125e-07 -1.26925e-06 0)
(4.09043e-07 -1.29996e-06 0)
(4.04497e-07 -1.3282e-06 0)
(4.04727e-07 -1.35437e-06 0)
(4.08302e-07 -1.37988e-06 0)
(4.14386e-07 -1.40515e-06 0)
(4.2188e-07 -1.43032e-06 0)
(3.18981e-07 -1.13844e-06 0)
(2.84858e-07 -1.21554e-06 0)
(2.63332e-07 -1.26602e-06 0)
(2.50466e-07 -1.30755e-06 0)
(2.43518e-07 -1.34059e-06 0)
(2.40657e-07 -1.37038e-06 0)
(2.4075e-07 -1.39759e-06 0)
(2.42854e-07 -1.42386e-06 0)
(2.46482e-07 -1.44967e-06 0)
(2.50985e-07 -1.47534e-06 0)
(1.0655e-07 -1.14885e-06 0)
(9.49476e-08 -1.23036e-06 0)
(8.76325e-08 -1.28366e-06 0)
(8.32857e-08 -1.32706e-06 0)
(8.09306e-08 -1.36128e-06 0)
(7.99187e-08 -1.39186e-06 0)
(7.99125e-08 -1.41959e-06 0)
(8.06104e-08 -1.44622e-06 0)
(8.1819e-08 -1.47228e-06 0)
(8.33086e-08 -1.49818e-06 0)
(2.9918e-06 -3.41538e-08 0)
(3.01778e-06 -2.47692e-08 0)
(3.03538e-06 -1.88868e-08 0)
(3.05515e-06 -1.55073e-08 0)
(3.07731e-06 -1.3721e-08 0)
(3.10422e-06 -1.29929e-08 0)
(3.13576e-06 -1.29654e-08 0)
(3.17206e-06 -1.34252e-08 0)
(3.21302e-06 -1.42222e-08 0)
(3.25813e-06 -1.51264e-08 0)
(2.97007e-06 -1.02457e-07 0)
(2.99185e-06 -7.48664e-08 0)
(3.00684e-06 -5.76257e-08 0)
(3.02486e-06 -4.77497e-08 0)
(3.04585e-06 -4.25378e-08 0)
(3.07192e-06 -4.0459e-08 0)
(3.10286e-06 -4.04672e-08 0)
(3.1387e-06 -4.18698e-08 0)
(3.17926e-06 -4.42424e-08 0)
(3.22394e-06 -4.69661e-08 0)
(2.92656e-06 -1.71363e-07 0)
(2.94037e-06 -1.27106e-07 0)
(2.95034e-06 -9.94878e-08 0)
(2.96507e-06 -8.37122e-08 0)
(2.98387e-06 -7.54435e-08 0)
(3.0084e-06 -7.22311e-08 0)
(3.03822e-06 -7.23729e-08 0)
(3.0731e-06 -7.4756e-08 0)
(3.11288e-06 -7.87141e-08 0)
(3.15675e-06 -8.32763e-08 0)
(2.86205e-06 -2.41153e-07 0)
(2.86459e-06 -1.82673e-07 0)
(2.86737e-06 -1.46239e-07 0)
(2.87741e-06 -1.25542e-07 0)
(2.89307e-06 -1.1478e-07 0)
(2.91532e-06 -1.10753e-07 0)
(2.94349e-06 -1.1121e-07 0)
(2.9771e-06 -1.14677e-07 0)
(3.01578e-06 -1.2024e-07 0)
(3.05856e-06 -1.26633e-07 0)
(2.77748e-06 -3.12057e-07 0)
(2.76611e-06 -2.42597e-07 0)
(2.76001e-06 -1.99377e-07 0)
(2.76414e-06 -1.75044e-07 0)
(2.77592e-06 -1.62562e-07 0)
(2.79543e-06 -1.58178e-07 0)
(2.82156e-06 -1.59197e-07 0)
(2.85356e-06 -1.63851e-07 0)
(2.89087e-06 -1.7101e-07 0)
(2.93232e-06 -1.79218e-07 0)
(2.67409e-06 -3.84103e-07 0)
(2.64692e-06 -3.07537e-07 0)
(2.63078e-06 -2.59933e-07 0)
(2.62823e-06 -2.33491e-07 0)
(2.63561e-06 -2.20231e-07 0)
(2.65199e-06 -2.1604e-07 0)
(2.67581e-06 -2.17879e-07 0)
(2.70595e-06 -2.23819e-07 0)
(2.74171e-06 -2.32558e-07 0)
(2.78176e-06 -2.42565e-07 0)
(2.55328e-06 -4.57125e-07 0)
(2.50943e-06 -3.77754e-07 0)
(2.48271e-06 -3.28458e-07 0)
(2.47309e-06 -3.016e-07 0)
(2.47575e-06 -2.88589e-07 0)
(2.48878e-06 -2.85191e-07 0)
(2.51011e-06 -2.88154e-07 0)
(2.53823e-06 -2.95516e-07 0)
(2.5723e-06 -3.05866e-07 0)
(2.61097e-06 -3.17655e-07 0)
(2.4166e-06 -5.30791e-07 0)
(2.35618e-06 -4.53075e-07 0)
(2.31894e-06 -4.04908e-07 0)
(2.30225e-06 -3.79382e-07 0)
(2.30013e-06 -3.67692e-07 0)
(2.30975e-06 -3.65719e-07 0)
(2.32851e-06 -3.70138e-07 0)
(2.35458e-06 -3.79071e-07 0)
(2.3869e-06 -3.91042e-07 0)
(2.42421e-06 -4.04602e-07 0)
(2.26573e-06 -6.04589e-07 0)
(2.18985e-06 -5.32885e-07 0)
(2.14286e-06 -4.88618e-07 0)
(2.11954e-06 -4.66163e-07 0)
(2.11286e-06 -4.56864e-07 0)
(2.1191e-06 -4.56975e-07 0)
(2.13524e-06 -4.63247e-07 0)
(2.15918e-06 -4.73914e-07 0)
(2.1895e-06 -4.87598e-07 0)
(2.22541e-06 -5.02824e-07 0)
(2.10237e-06 -6.77801e-07 0)
(2.01312e-06 -6.16101e-07 0)
(1.95764e-06 -5.78313e-07 0)
(1.92847e-06 -5.60571e-07 0)
(1.91763e-06 -5.54674e-07 0)
(1.92058e-06 -5.57525e-07 0)
(1.93402e-06 -5.6609e-07 0)
(1.95568e-06 -5.7888e-07 0)
(1.98394e-06 -5.94548e-07 0)
(2.01798e-06 -6.12202e-07 0)
(3.30726e-06 -1.60149e-08 0)
(3.3607e-06 -1.63249e-08 0)
(3.41745e-06 -1.66433e-08 0)
(3.47729e-06 -1.68949e-08 0)
(3.53983e-06 -1.70629e-08 0)
(3.60489e-06 -1.71421e-08 0)
(3.67224e-06 -1.71296e-08 0)
(3.74162e-06 -1.70386e-08 0)
(3.81275e-06 -1.68577e-08 0)
(3.88545e-06 -1.65665e-08 0)
(3.95954e-06 -1.61465e-08 0)
(4.03482e-06 -1.55952e-08 0)
(4.11107e-06 -1.4913e-08 0)
(4.1881e-06 -1.40912e-08 0)
(4.26575e-06 -1.31095e-08 0)
(4.34372e-06 -1.19456e-08 0)
(4.42191e-06 -1.05749e-08 0)
(4.49983e-06 -8.97066e-09 0)
(4.57756e-06 -7.09682e-09 0)
(4.65408e-06 -4.94714e-09 0)
(3.27455e-06 -4.95065e-08 0)
(3.33067e-06 -5.02504e-08 0)
(3.38983e-06 -5.10222e-08 0)
(3.45177e-06 -5.16167e-08 0)
(3.51624e-06 -5.19881e-08 0)
(3.58303e-06 -5.21369e-08 0)
(3.65192e-06 -5.20306e-08 0)
(3.72269e-06 -5.16755e-08 0)
(3.79511e-06 -5.10334e-08 0)
(3.869e-06 -5.00755e-08 0)
(3.94417e-06 -4.87702e-08 0)
(4.02045e-06 -4.71008e-08 0)
(4.09768e-06 -4.50432e-08 0)
(4.17564e-06 -4.25583e-08 0)
(4.25414e-06 -3.95909e-08 0)
(4.33291e-06 -3.60848e-08 0)
(4.41184e-06 -3.1968e-08 0)
(4.49048e-06 -2.71637e-08 0)
(4.56896e-06 -2.15617e-08 0)
(4.64626e-06 -1.51299e-08 0)
(3.21021e-06 -8.70145e-08 0)
(3.27158e-06 -8.75871e-08 0)
(3.33553e-06 -8.82634e-08 0)
(3.40162e-06 -8.87891e-08 0)
(3.46981e-06 -8.903e-08 0)
(3.53992e-06 -8.89897e-08 0)
(3.61187e-06 -8.85769e-08 0)
(3.68544e-06 -8.77806e-08 0)
(3.76039e-06 -8.65297e-08 0)
(3.83659e-06 -8.479e-08 0)
(3.91393e-06 -8.25147e-08 0)
(3.99226e-06 -7.96639e-08 0)
(4.0714e-06 -7.61793e-08 0)
(4.15114e-06 -7.1989e-08 0)
(4.23133e-06 -6.70051e-08 0)
(4.31174e-06 -6.1135e-08 0)
(4.39223e-06 -5.42564e-08 0)
(4.47238e-06 -4.62534e-08 0)
(4.55232e-06 -3.69439e-08 0)
(4.63104e-06 -2.62621e-08 0)
(3.11614e-06 -1.30827e-07 0)
(3.18505e-06 -1.30277e-07 0)
(3.25587e-06 -1.30004e-07 0)
(3.32801e-06 -1.29828e-07 0)
(3.40169e-06 -1.29414e-07 0)
(3.47673e-06 -1.28762e-07 0)
(3.55312e-06 -1.27691e-07 0)
(3.6307e-06 -1.2617e-07 0)
(3.70937e-06 -1.24092e-07 0)
(3.78903e-06 -1.21404e-07 0)
(3.86959e-06 -1.18028e-07 0)
(3.9509e-06 -1.13887e-07 0)
(4.03281e-06 -1.08887e-07 0)
(4.11514e-06 -1.02928e-07 0)
(4.1978e-06 -9.58933e-08 0)
(4.28059e-06 -8.76421e-08 0)
(4.36336e-06 -7.8002e-08 0)
(4.44575e-06 -6.68162e-08 0)
(4.52788e-06 -5.38241e-08 0)
(4.60871e-06 -3.89329e-08 0)
(2.99503e-06 -1.82959e-07 0)
(3.07344e-06 -1.80098e-07 0)
(3.15309e-06 -1.77794e-07 0)
(3.23296e-06 -1.76087e-07 0)
(3.31366e-06 -1.7432e-07 0)
(3.39499e-06 -1.72493e-07 0)
(3.47715e-06 -1.70317e-07 0)
(3.55995e-06 -1.67714e-07 0)
(3.64345e-06 -1.64528e-07 0)
(3.72756e-06 -1.60662e-07 0)
(3.81223e-06 -1.55993e-07 0)
(3.89735e-06 -1.50404e-07 0)
(3.98283e-06 -1.43768e-07 0)
(4.06855e-06 -1.35954e-07 0)
(4.15445e-06 -1.26807e-07 0)
(4.24028e-06 -1.16143e-07 0)
(4.32602e-06 -1.0374e-07 0)
(4.41123e-06 -8.93933e-08 0)
(4.49617e-06 -7.27606e-08 0)
(4.57975e-06 -5.37083e-08 0)
(2.85037e-06 -2.44842e-07 0)
(2.93979e-06 -2.3831e-07 0)
(3.02976e-06 -2.32706e-07 0)
(3.11874e-06 -2.28465e-07 0)
(3.20783e-06 -2.24524e-07 0)
(3.29671e-06 -2.20864e-07 0)
(3.3858e-06 -2.17053e-07 0)
(3.47492e-06 -2.1293e-07 0)
(3.56418e-06 -2.08275e-07 0)
(3.65359e-06 -2.02941e-07 0)
(3.74319e-06 -1.96754e-07 0)
(3.83292e-06 -1.89549e-07 0)
(3.9227e-06 -1.81156e-07 0)
(4.01249e-06 -1.71407e-07 0)
(4.10224e-06 -1.60096e-07 0)
(4.19172e-06 -1.46996e-07 0)
(4.28099e-06 -1.3184e-07 0)
(4.36961e-06 -1.14366e-07 0)
(4.4579e-06 -9.41469e-08 0)
(4.54482e-06 -7.09841e-08 0)
(2.68599e-06 -3.17455e-07 0)
(2.78752e-06 -3.05834e-07 0)
(2.88907e-06 -2.95644e-07 0)
(2.98832e-06 -2.87793e-07 0)
(3.08688e-06 -2.80808e-07 0)
(3.18433e-06 -2.74579e-07 0)
(3.28119e-06 -2.68531e-07 0)
(3.37743e-06 -2.62397e-07 0)
(3.47326e-06 -2.55881e-07 0)
(3.56876e-06 -2.48753e-07 0)
(3.66399e-06 -2.40784e-07 0)
(3.75896e-06 -2.31754e-07 0)
(3.85367e-06 -2.21445e-07 0)
(3.94808e-06 -2.09646e-07 0)
(4.04218e-06 -1.96097e-07 0)
(4.13583e-06 -1.80528e-07 0)
(4.22914e-06 -1.62619e-07 0)
(4.32168e-06 -1.42042e-07 0)
(4.41382e-06 -1.1827e-07 0)
(4.50456e-06 -9.10476e-08 0)
(2.50585e-06 -4.00972e-07 0)
(2.62016e-06 -3.82731e-07 0)
(2.73404e-06 -3.66689e-07 0)
(2.84446e-06 -3.5404e-07 0)
(2.95327e-06 -3.43072e-07 0)
(3.06013e-06 -3.33452e-07 0)
(3.16557e-06 -3.24504e-07 0)
(3.26968e-06 -3.15824e-07 0)
(3.37276e-06 -3.07026e-07 0)
(3.47497e-06 -2.97779e-07 0)
(3.57642e-06 -2.8778e-07 0)
(3.67714e-06 -2.76744e-07 0)
(3.77719e-06 -2.64403e-07 0)
(3.87666e-06 -2.50487e-07 0)
(3.97555e-06 -2.34681e-07 0)
(4.0738e-06 -2.16659e-07 0)
(4.17155e-06 -1.96037e-07 0)
(4.2684e-06 -1.7241e-07 0)
(4.36476e-06 -1.45152e-07 0)
(4.45974e-06 -1.13958e-07 0)
(2.314e-06 -4.95373e-07 0)
(2.44168e-06 -4.6911e-07 0)
(2.56828e-06 -4.46346e-07 0)
(2.69047e-06 -4.27846e-07 0)
(2.81005e-06 -4.12084e-07 0)
(2.92682e-06 -3.98306e-07 0)
(3.04133e-06 -3.85802e-07 0)
(3.1538e-06 -3.74003e-07 0)
(3.26457e-06 -3.62427e-07 0)
(3.37388e-06 -3.50643e-07 0)
(3.4819e-06 -3.38271e-07 0)
(3.58874e-06 -3.24962e-07 0)
(3.69453e-06 -3.1039e-07 0)
(3.79941e-06 -2.94219e-07 0)
(3.90341e-06 -2.76068e-07 0)
(4.00657e-06 -2.55553e-07 0)
(4.10904e-06 -2.32213e-07 0)
(4.21051e-06 -2.05565e-07 0)
(4.31139e-06 -1.74892e-07 0)
(4.41094e-06 -1.3986e-07 0)
(2.114e-06 -5.9972e-07 0)
(2.25612e-06 -5.63304e-07 0)
(2.39552e-06 -5.32866e-07 0)
(2.53003e-06 -5.07392e-07 0)
(2.66071e-06 -4.85832e-07 0)
(2.78778e-06 -4.67092e-07 0)
(2.91169e-06 -4.50392e-07 0)
(3.03281e-06 -4.34997e-07 0)
(3.15153e-06 -4.20287e-07 0)
(3.26818e-06 -4.05719e-07 0)
(3.38299e-06 -3.90817e-07 0)
(3.49614e-06 -3.75148e-07 0)
(3.60783e-06 -3.58309e-07 0)
(3.71827e-06 -3.39892e-07 0)
(3.82751e-06 -3.19446e-07 0)
(3.9357e-06 -2.96526e-07 0)
(4.04297e-06 -2.70592e-07 0)
(4.14915e-06 -2.41089e-07 0)
(4.25466e-06 -2.07218e-07 0)
(4.35897e-06 -1.68582e-07 0)
(1.96112e-06 -7.03086e-07 0)
(2.11568e-06 -6.56698e-07 0)
(2.26395e-06 -6.1988e-07 0)
(2.40665e-06 -5.88511e-07 0)
(2.54462e-06 -5.61654e-07 0)
(2.67841e-06 -5.38155e-07 0)
(2.80854e-06 -5.17153e-07 0)
(2.93544e-06 -4.97864e-07 0)
(3.05953e-06 -4.79614e-07 0)
(3.18115e-06 -4.61809e-07 0)
(3.30055e-06 -4.43921e-07 0)
(3.41793e-06 -4.25468e-07 0)
(3.53356e-06 -4.05995e-07 0)
(3.64766e-06 -3.85042e-07 0)
(3.7603e-06 -3.62117e-07 0)
(3.87171e-06 -3.36737e-07 0)
(3.982e-06 -3.08321e-07 0)
(4.09115e-06 -2.76295e-07 0)
(4.19954e-06 -2.39838e-07 0)
(4.30687e-06 -1.98508e-07 0)
(1.87561e-06 -7.88178e-07 0)
(2.03104e-06 -7.39522e-07 0)
(2.18092e-06 -6.98787e-07 0)
(2.32605e-06 -6.63463e-07 0)
(2.46666e-06 -6.32677e-07 0)
(2.60317e-06 -6.05397e-07 0)
(2.73598e-06 -5.80764e-07 0)
(2.86547e-06 -5.58016e-07 0)
(2.99199e-06 -5.36488e-07 0)
(3.11587e-06 -5.15589e-07 0)
(3.23735e-06 -4.94781e-07 0)
(3.35662e-06 -4.73568e-07 0)
(3.47398e-06 -4.51481e-07 0)
(3.58963e-06 -4.28044e-07 0)
(3.70365e-06 -4.02761e-07 0)
(3.81633e-06 -3.75146e-07 0)
(3.92774e-06 -3.44625e-07 0)
(4.038e-06 -3.10646e-07 0)
(4.14743e-06 -2.72419e-07 0)
(4.2559e-06 -2.29458e-07 0)
(1.80438e-06 -8.68914e-07 0)
(1.95792e-06 -8.19444e-07 0)
(2.10751e-06 -7.76444e-07 0)
(2.25309e-06 -7.38216e-07 0)
(2.39478e-06 -7.04211e-07 0)
(2.53268e-06 -6.73606e-07 0)
(2.66709e-06 -6.45643e-07 0)
(2.79825e-06 -6.19632e-07 0)
(2.92645e-06 -5.9495e-07 0)
(3.05196e-06 -5.71028e-07 0)
(3.17497e-06 -5.47334e-07 0)
(3.29569e-06 -5.23371e-07 0)
(3.41441e-06 -4.98673e-07 0)
(3.5313e-06 -4.72764e-07 0)
(3.64646e-06 -4.45153e-07 0)
(3.76021e-06 -4.15365e-07 0)
(3.8726e-06 -3.82848e-07 0)
(3.98384e-06 -3.47077e-07 0)
(4.09421e-06 -3.07281e-07 0)
(4.20371e-06 -2.62952e-07 0)
(1.74229e-06 -9.46286e-07 0)
(1.89338e-06 -8.9656e-07 0)
(2.04162e-06 -8.52066e-07 0)
(2.18656e-06 -8.11633e-07 0)
(2.32822e-06 -7.74972e-07 0)
(2.46654e-06 -7.41475e-07 0)
(2.60168e-06 -7.10522e-07 0)
(2.73375e-06 -6.81516e-07 0)
(2.86297e-06 -6.53886e-07 0)
(2.98955e-06 -6.27102e-07 0)
(3.11364e-06 -6.00651e-07 0)
(3.23541e-06 -5.7405e-07 0)
(3.35516e-06 -5.46849e-07 0)
(3.47304e-06 -5.18581e-07 0)
(3.58914e-06 -4.88771e-07 0)
(3.70378e-06 -4.56962e-07 0)
(3.81702e-06 -4.2263e-07 0)
(3.92913e-06 -3.85271e-07 0)
(4.04034e-06 -3.44132e-07 0)
(4.1508e-06 -2.98767e-07 0)
(1.68785e-06 -1.02036e-06 0)
(1.83611e-06 -9.70722e-07 0)
(1.98233e-06 -9.25341e-07 0)
(2.12587e-06 -8.83324e-07 0)
(2.26672e-06 -8.44568e-07 0)
(2.40469e-06 -8.08655e-07 0)
(2.53984e-06 -7.75107e-07 0)
(2.67216e-06 -7.43421e-07 0)
(2.80181e-06 -7.13094e-07 0)
(2.92895e-06 -6.83648e-07 0)
(3.05369e-06 -6.54605e-07 0)
(3.17616e-06 -6.2551e-07 0)
(3.29665e-06 -5.95941e-07 0)
(3.41526e-06 -5.6545e-07 0)
(3.5321e-06 -5.33579e-07 0)
(3.64748e-06 -4.99895e-07 0)
(3.76145e-06 -4.63902e-07 0)
(3.87431e-06 -4.25117e-07 0)
(3.98628e-06 -3.82842e-07 0)
(4.09762e-06 -3.36776e-07 0)
(1.63952e-06 -1.09131e-06 0)
(1.78478e-06 -1.04203e-06 0)
(1.92864e-06 -9.96133e-07 0)
(2.07031e-06 -9.52973e-07 0)
(2.2098e-06 -9.12572e-07 0)
(2.34685e-06 -8.74662e-07 0)
(2.48144e-06 -8.38893e-07 0)
(2.61347e-06 -8.04849e-07 0)
(2.74307e-06 -7.72104e-07 0)
(2.87036e-06 -7.40238e-07 0)
(2.99537e-06 -7.08815e-07 0)
(3.11822e-06 -6.77421e-07 0)
(3.23918e-06 -6.45665e-07 0)
(3.35829e-06 -6.13123e-07 0)
(3.47569e-06 -5.79361e-07 0)
(3.59165e-06 -5.43966e-07 0)
(3.70622e-06 -5.06476e-07 0)
(3.81972e-06 -4.66443e-07 0)
(3.93238e-06 -4.23279e-07 0)
(4.04449e-06 -3.7681e-07 0)
(1.59625e-06 -1.15931e-06 0)
(1.73842e-06 -1.11055e-06 0)
(1.87971e-06 -1.06442e-06 0)
(2.01919e-06 -1.02048e-06 0)
(2.15695e-06 -9.78832e-07 0)
(2.29268e-06 -9.39315e-07 0)
(2.42629e-06 -9.01682e-07 0)
(2.55763e-06 -8.65604e-07 0)
(2.6868e-06 -8.30727e-07 0)
(2.81386e-06 -7.96699e-07 0)
(2.93884e-06 -7.6313e-07 0)
(3.06179e-06 -7.29646e-07 0)
(3.18297e-06 -6.95894e-07 0)
(3.30237e-06 -6.61474e-07 0)
(3.42016e-06 -6.25982e-07 0)
(3.53654e-06 -5.89033e-07 0)
(3.65159e-06 -5.50204e-07 0)
(3.76564e-06 -5.09112e-07 0)
(3.87889e-06 -4.65305e-07 0)
(3.99168e-06 -4.18604e-07 0)
(1.55711e-06 -1.22453e-06 0)
(1.69621e-06 -1.1764e-06 0)
(1.83481e-06 -1.13025e-06 0)
(1.97193e-06 -1.08581e-06 0)
(2.10772e-06 -1.04324e-06 0)
(2.24183e-06 -1.00244e-06 0)
(2.37414e-06 -9.63259e-07 0)
(2.50449e-06 -9.25445e-07 0)
(2.63291e-06 -8.88711e-07 0)
(2.75948e-06 -8.52777e-07 0)
(2.88414e-06 -8.17299e-07 0)
(3.00696e-06 -7.81947e-07 0)
(3.12815e-06 -7.46397e-07 0)
(3.24766e-06 -7.10277e-07 0)
(3.36565e-06 -6.73222e-07 0)
(3.48233e-06 -6.34881e-07 0)
(3.59775e-06 -5.94891e-07 0)
(3.71226e-06 -5.52944e-07 0)
(3.82601e-06 -5.08683e-07 0)
(3.93938e-06 -4.61844e-07 0)
(1.5213e-06 -1.28718e-06 0)
(1.6574e-06 -1.23973e-06 0)
(1.79326e-06 -1.19373e-06 0)
(1.92794e-06 -1.14901e-06 0)
(2.0616e-06 -1.10576e-06 0)
(2.1939e-06 -1.06394e-06 0)
(2.32471e-06 -1.02348e-06 0)
(2.45383e-06 -9.842e-07 0)
(2.5813e-06 -9.45872e-07 0)
(2.70714e-06 -9.08284e-07 0)
(2.83128e-06 -8.71136e-07 0)
(2.95376e-06 -8.3414e-07 0)
(3.07477e-06 -7.96996e-07 0)
(3.19422e-06 -7.59362e-07 0)
(3.31229e-06 -7.20918e-07 0)
(3.42914e-06 -6.81365e-07 0)
(3.54484e-06 -6.40405e-07 0)
(3.65971e-06 -5.97787e-07 0)
(3.77387e-06 -5.53169e-07 0)
(3.88772e-06 -5.0633e-07 0)
(1.48809e-06 -1.34745e-06 0)
(1.62128e-06 -1.30073e-06 0)
(1.75442e-06 -1.25498e-06 0)
(1.88664e-06 -1.21012e-06 0)
(2.0181e-06 -1.16637e-06 0)
(2.14847e-06 -1.12375e-06 0)
(2.27765e-06 -1.08225e-06 0)
(2.4054e-06 -1.04176e-06 0)
(2.53175e-06 -1.00209e-06 0)
(2.65671e-06 -9.63097e-07 0)
(2.78017e-06 -9.24517e-07 0)
(2.90216e-06 -8.86096e-07 0)
(3.02283e-06 -8.47561e-07 0)
(3.1421e-06 -8.08607e-07 0)
(3.26012e-06 -7.68962e-07 0)
(3.37705e-06 -7.28383e-07 0)
(3.49294e-06 -6.86625e-07 0)
(3.60808e-06 -6.43461e-07 0)
(3.72257e-06 -5.98556e-07 0)
(3.83681e-06 -5.51892e-07 0)
(1.45687e-06 -1.4056e-06 0)
(1.58724e-06 -1.3596e-06 0)
(1.71772e-06 -1.31413e-06 0)
(1.8475e-06 -1.26922e-06 0)
(1.97673e-06 -1.22513e-06 0)
(2.10515e-06 -1.1819e-06 0)
(2.23262e-06 -1.13958e-06 0)
(2.35892e-06 -1.09811e-06 0)
(2.48406e-06 -1.05735e-06 0)
(2.60802e-06 -1.01718e-06 0)
(2.73068e-06 -9.77379e-07 0)
(2.85205e-06 -9.37729e-07 0)
(2.97227e-06 -8.9799e-07 0)
(3.09125e-06 -8.579e-07 0)
(3.20914e-06 -8.17236e-07 0)
(3.32608e-06 -7.75802e-07 0)
(3.44208e-06 -7.33379e-07 0)
(3.55741e-06 -6.89748e-07 0)
(3.67216e-06 -6.44684e-07 0)
(3.78671e-06 -5.9827e-07 0)
(1.42708e-06 -1.4618e-06 0)
(1.55474e-06 -1.41647e-06 0)
(1.68262e-06 -1.37132e-06 0)
(1.81001e-06 -1.32645e-06 0)
(1.93706e-06 -1.28214e-06 0)
(2.06352e-06 -1.23848e-06 0)
(2.18927e-06 -1.19553e-06 0)
(2.31408e-06 -1.15327e-06 0)
(2.43795e-06 -1.11162e-06 0)
(2.56085e-06 -1.07047e-06 0)
(2.68263e-06 -1.02963e-06 0)
(2.80331e-06 -9.88931e-07 0)
(2.92301e-06 -9.48171e-07 0)
(3.04164e-06 -9.07132e-07 0)
(3.15934e-06 -8.65631e-07 0)
(3.27621e-06 -8.23494e-07 0)
(3.39224e-06 -7.80513e-07 0)
(3.5077e-06 -7.36514e-07 0)
(3.62265e-06 -6.91451e-07 0)
(3.73744e-06 -6.45268e-07 0)
(1.39821e-06 -1.5162e-06 0)
(1.52326e-06 -1.47148e-06 0)
(1.64864e-06 -1.42667e-06 0)
(1.77372e-06 -1.38192e-06 0)
(1.89865e-06 -1.33751e-06 0)
(2.0232e-06 -1.29354e-06 0)
(2.14725e-06 -1.25011e-06 0)
(2.27057e-06 -1.20723e-06 0)
(2.39315e-06 -1.16487e-06 0)
(2.51496e-06 -1.12292e-06 0)
(2.63583e-06 -1.08124e-06 0)
(2.75579e-06 -1.03969e-06 0)
(2.87494e-06 -9.98096e-07 0)
(2.99319e-06 -9.56285e-07 0)
(3.11064e-06 -9.14099e-07 0)
(3.22738e-06 -8.71373e-07 0)
(3.34339e-06 -8.27936e-07 0)
(3.45893e-06 -7.83707e-07 0)
(3.57401e-06 -7.38698e-07 0)
(3.68899e-06 -6.9278e-07 0)
(1.36977e-06 -1.56893e-06 0)
(1.49234e-06 -1.52481e-06 0)
(1.61534e-06 -1.48036e-06 0)
(1.73821e-06 -1.43576e-06 0)
(1.8611e-06 -1.39132e-06 0)
(1.98381e-06 -1.34715e-06 0)
(2.10622e-06 -1.3034e-06 0)
(2.22808e-06 -1.26006e-06 0)
(2.3494e-06 -1.21716e-06 0)
(2.47011e-06 -1.17459e-06 0)
(2.59007e-06 -1.13224e-06 0)
(2.70931e-06 -1.08999e-06 0)
(2.82792e-06 -1.04773e-06 0)
(2.94577e-06 -1.00529e-06 0)
(3.06294e-06 -9.62535e-07 0)
(3.17952e-06 -9.19324e-07 0)
(3.29547e-06 -8.75549e-07 0)
(3.41105e-06 -8.31216e-07 0)
(3.52624e-06 -7.86218e-07 0)
(3.64134e-06 -7.40605e-07 0)
(1.34131e-06 -1.62019e-06 0)
(1.46153e-06 -1.57663e-06 0)
(1.58228e-06 -1.53252e-06 0)
(1.70306e-06 -1.48811e-06 0)
(1.82402e-06 -1.44371e-06 0)
(1.945e-06 -1.39946e-06 0)
(2.06583e-06 -1.35551e-06 0)
(2.1863e-06 -1.31185e-06 0)
(2.3064e-06 -1.26852e-06 0)
(2.42607e-06 -1.22545e-06 0)
(2.54518e-06 -1.18259e-06 0)
(2.66374e-06 -1.13983e-06 0)
(2.78181e-06 -1.09706e-06 0)
(2.89924e-06 -1.05413e-06 0)
(3.01611e-06 -1.01093e-06 0)
(3.13251e-06 -9.67351e-07 0)
(3.24841e-06 -9.23365e-07 0)
(3.36401e-06 -8.78958e-07 0)
(3.47926e-06 -8.33997e-07 0)
(3.59441e-06 -7.88637e-07 0)
(1.31242e-06 -1.67013e-06 0)
(1.43041e-06 -1.62708e-06 0)
(1.54901e-06 -1.58325e-06 0)
(1.66786e-06 -1.53907e-06 0)
(1.78703e-06 -1.49479e-06 0)
(1.9064e-06 -1.45056e-06 0)
(2.02577e-06 -1.40649e-06 0)
(2.14494e-06 -1.36264e-06 0)
(2.2639e-06 -1.31902e-06 0)
(2.38263e-06 -1.27561e-06 0)
(2.50097e-06 -1.23237e-06 0)
(2.61889e-06 -1.18922e-06 0)
(2.73644e-06 -1.14605e-06 0)
(2.85345e-06 -1.10274e-06 0)
(2.97004e-06 -1.0592e-06 0)
(3.08629e-06 -1.01539e-06 0)
(3.20214e-06 -9.71278e-07 0)
(3.31771e-06 -9.26748e-07 0)
(3.43294e-06 -8.81887e-07 0)
(3.54809e-06 -8.36761e-07 0)
(1.28264e-06 -1.71881e-06 0)
(1.39845e-06 -1.67614e-06 0)
(1.51502e-06 -1.63272e-06 0)
(1.63219e-06 -1.58887e-06 0)
(1.74974e-06 -1.54475e-06 0)
(1.86764e-06 -1.50057e-06 0)
(1.98569e-06 -1.45647e-06 0)
(2.1037e-06 -1.41252e-06 0)
(2.22168e-06 -1.36874e-06 0)
(2.33961e-06 -1.32513e-06 0)
(2.45725e-06 -1.28165e-06 0)
(2.57457e-06 -1.23822e-06 0)
(2.69162e-06 -1.19475e-06 0)
(2.80828e-06 -1.15118e-06 0)
(2.92465e-06 -1.10743e-06 0)
(3.04078e-06 -1.06346e-06 0)
(3.15649e-06 -1.01921e-06 0)
(3.27193e-06 -9.74603e-07 0)
(3.38716e-06 -9.29831e-07 0)
(3.50248e-06 -8.84901e-07 0)
(1.25128e-06 -1.76621e-06 0)
(1.36525e-06 -1.72401e-06 0)
(1.48016e-06 -1.68108e-06 0)
(1.59567e-06 -1.63753e-06 0)
(1.71179e-06 -1.59366e-06 0)
(1.82839e-06 -1.54962e-06 0)
(1.9453e-06 -1.50558e-06 0)
(2.06237e-06 -1.46162e-06 0)
(2.17957e-06 -1.41778e-06 0)
(2.2968e-06 -1.37407e-06 0)
(2.4138e-06 -1.33043e-06 0)
(2.53058e-06 -1.28683e-06 0)
(2.64726e-06 -1.2432e-06 0)
(2.76371e-06 -1.19946e-06 0)
(2.87987e-06 -1.15557e-06 0)
(2.99569e-06 -1.11148e-06 0)
(3.11124e-06 -1.0671e-06 0)
(3.22678e-06 -1.02253e-06 0)
(3.34198e-06 -9.77794e-07 0)
(3.45706e-06 -9.33001e-07 0)
(1.21791e-06 -1.81286e-06 0)
(1.3302e-06 -1.77116e-06 0)
(1.44357e-06 -1.72858e-06 0)
(1.55772e-06 -1.68536e-06 0)
(1.67263e-06 -1.64175e-06 0)
(1.78822e-06 -1.59793e-06 0)
(1.90434e-06 -1.55404e-06 0)
(2.02074e-06 -1.51015e-06 0)
(2.13729e-06 -1.46631e-06 0)
(2.25389e-06 -1.42256e-06 0)
(2.37044e-06 -1.37886e-06 0)
(2.48698e-06 -1.33517e-06 0)
(2.6034e-06 -1.29144e-06 0)
(2.71944e-06 -1.2476e-06 0)
(2.83533e-06 -1.20361e-06 0)
(2.95112e-06 -1.15942e-06 0)
(3.06658e-06 -1.11499e-06 0)
(3.18195e-06 -1.0704e-06 0)
(3.29714e-06 -1.02568e-06 0)
(3.41219e-06 -9.80989e-07 0)
(1.18207e-06 -1.85833e-06 0)
(1.29287e-06 -1.81723e-06 0)
(1.40493e-06 -1.77517e-06 0)
(1.51798e-06 -1.73237e-06 0)
(1.63208e-06 -1.68912e-06 0)
(1.74708e-06 -1.6456e-06 0)
(1.86264e-06 -1.60191e-06 0)
(1.97847e-06 -1.55816e-06 0)
(2.09459e-06 -1.51442e-06 0)
(2.211e-06 -1.47071e-06 0)
(2.32734e-06 -1.42701e-06 0)
(2.44351e-06 -1.38329e-06 0)
(2.55966e-06 -1.3395e-06 0)
(2.67559e-06 -1.2956e-06 0)
(2.79126e-06 -1.25156e-06 0)
(2.90686e-06 -1.20729e-06 0)
(3.02223e-06 -1.16289e-06 0)
(3.13749e-06 -1.11823e-06 0)
(3.25267e-06 -1.0735e-06 0)
(3.36753e-06 -1.02878e-06 0)
(8.32832e-08 -1.52452e-06 0)
(2.50783e-07 -1.50281e-06 0)
(4.21065e-07 -1.45993e-06 0)
(5.95632e-07 -1.398e-06 0)
(7.75745e-07 -1.31912e-06 0)
(9.62209e-07 -1.22643e-06 0)
(1.15529e-06 -1.12324e-06 0)
(1.35469e-06 -1.01301e-06 0)
(1.55993e-06 -8.99246e-07 0)
(1.76937e-06 -7.84647e-07 0)
(8.14339e-08 -1.55209e-06 0)
(2.4506e-07 -1.53234e-06 0)
(4.10939e-07 -1.4932e-06 0)
(5.80278e-07 -1.43661e-06 0)
(7.54093e-07 -1.36427e-06 0)
(9.33048e-07 -1.27886e-06 0)
(1.1173e-06 -1.18322e-06 0)
(1.30652e-06 -1.08034e-06 0)
(1.49976e-06 -9.73506e-07 0)
(1.69573e-06 -8.65205e-07 0)
(7.97247e-08 -1.58063e-06 0)
(2.39766e-07 -1.56267e-06 0)
(4.0154e-07 -1.52691e-06 0)
(5.66013e-07 -1.47519e-06 0)
(7.33977e-07 -1.40892e-06 0)
(9.05947e-07 -1.33035e-06 0)
(1.08206e-06 -1.24199e-06 0)
(1.26221e-06 -1.14632e-06 0)
(1.44561e-06 -1.04627e-06 0)
(1.63153e-06 -9.43499e-07 0)
(7.81326e-08 -1.61005e-06 0)
(2.34901e-07 -1.59359e-06 0)
(3.93021e-07 -1.5607e-06 0)
(5.53274e-07 -1.51309e-06 0)
(7.16298e-07 -1.45198e-06 0)
(8.8244e-07 -1.37928e-06 0)
(1.05179e-06 -1.29728e-06 0)
(1.22424e-06 -1.20815e-06 0)
(1.39905e-06 -1.11468e-06 0)
(1.57568e-06 -1.01811e-06 0)
(7.66384e-08 -1.64028e-06 0)
(2.30288e-07 -1.62514e-06 0)
(3.8502e-07 -1.59482e-06 0)
(5.41415e-07 -1.55086e-06 0)
(6.9999e-07 -1.49439e-06 0)
(8.60996e-07 -1.42704e-06 0)
(1.02449e-06 -1.3509e-06 0)
(1.1904e-06 -1.26783e-06 0)
(1.35812e-06 -1.18035e-06 0)
(1.52686e-06 -1.08959e-06 0)
(7.52401e-08 -1.67123e-06 0)
(2.25945e-07 -1.65723e-06 0)
(3.77538e-07 -1.62915e-06 0)
(5.30427e-07 -1.58836e-06 0)
(6.85033e-07 -1.53595e-06 0)
(8.41559e-07 -1.47334e-06 0)
(9.99977e-07 -1.40242e-06 0)
(1.16017e-06 -1.32492e-06 0)
(1.32175e-06 -1.24304e-06 0)
(1.48368e-06 -1.15793e-06 0)
(7.38589e-08 -1.70286e-06 0)
(2.21761e-07 -1.68983e-06 0)
(3.70366e-07 -1.66379e-06 0)
(5.19983e-07 -1.62581e-06 0)
(6.70974e-07 -1.57703e-06 0)
(8.23479e-07 -1.51869e-06 0)
(9.7746e-07 -1.45251e-06 0)
(1.13271e-06 -1.38005e-06 0)
(1.28901e-06 -1.30325e-06 0)
(1.44514e-06 -1.22336e-06 0)
(7.25066e-08 -1.73507e-06 0)
(2.17707e-07 -1.7229e-06 0)
(3.63442e-07 -1.69866e-06 0)
(5.09982e-07 -1.66316e-06 0)
(6.57661e-07 -1.61761e-06 0)
(8.06524e-07 -1.5631e-06 0)
(9.56539e-07 -1.50118e-06 0)
(1.10743e-06 -1.43328e-06 0)
(1.25913e-06 -1.36114e-06 0)
(1.41032e-06 -1.28605e-06 0)
(7.12098e-08 -1.76782e-06 0)
(2.13731e-07 -1.75639e-06 0)
(3.56667e-07 -1.73375e-06 0)
(5.00279e-07 -1.70051e-06 0)
(6.44841e-07 -1.65785e-06 0)
(7.90373e-07 -1.60679e-06 0)
(9.3682e-07 -1.5487e-06 0)
(1.08386e-06 -1.48491e-06 0)
(1.23152e-06 -1.41699e-06 0)
(1.37846e-06 -1.34629e-06 0)
(6.99291e-08 -1.80103e-06 0)
(2.09774e-07 -1.79023e-06 0)
(3.49972e-07 -1.76902e-06 0)
(4.90779e-07 -1.73782e-06 0)
(6.32373e-07 -1.69776e-06 0)
(7.74802e-07 -1.64979e-06 0)
(9.1799e-07 -1.59516e-06 0)
(1.06156e-06 -1.5351e-06 0)
(1.20562e-06 -1.47105e-06 0)
(1.34887e-06 -1.40434e-06 0)
(6.86089e-08 -1.8346e-06 0)
(2.05788e-07 -1.82436e-06 0)
(3.43295e-07 -1.80444e-06 0)
(4.81361e-07 -1.77511e-06 0)
(6.20102e-07 -1.73741e-06 0)
(7.59585e-07 -1.69222e-06 0)
(8.99742e-07 -1.64072e-06 0)
(1.04016e-06 -1.58407e-06 0)
(1.18096e-06 -1.52352e-06 0)
(1.32095e-06 -1.46041e-06 0)
(6.72523e-08 -1.86842e-06 0)
(2.01776e-07 -1.85871e-06 0)
(3.36605e-07 -1.83996e-06 0)
(4.7193e-07 -1.81232e-06 0)
(6.07883e-07 -1.77677e-06 0)
(7.44522e-07 -1.73411e-06 0)
(8.81801e-07 -1.68545e-06 0)
(1.0193e-06 -1.6319e-06 0)
(1.1571e-06 -1.57453e-06 0)
(1.2942e-06 -1.51466e-06 0)
(6.58854e-08 -1.90242e-06 0)
(1.9772e-07 -1.89322e-06 0)
(3.29831e-07 -1.87553e-06 0)
(4.62381e-07 -1.84944e-06 0)
(5.95566e-07 -1.81584e-06 0)
(7.29422e-07 -1.77549e-06 0)
(8.63916e-07 -1.72943e-06 0)
(9.98637e-07 -1.67868e-06 0)
(1.13367e-06 -1.62418e-06 0)
(1.26815e-06 -1.56728e-06 0)
(6.45022e-08 -1.9365e-06 0)
(1.93557e-07 -1.9278e-06 0)
(3.22867e-07 -1.91107e-06 0)
(4.52598e-07 -1.8864e-06 0)
(5.82998e-07 -1.85458e-06 0)
(7.14087e-07 -1.81636e-06 0)
(8.4584e-07 -1.77269e-06 0)
(9.77884e-07 -1.72448e-06 0)
(1.1103e-06 -1.67264e-06 0)
(1.24234e-06 -1.61843e-06 0)
(6.30613e-08 -1.97061e-06 0)
(1.89199e-07 -1.96238e-06 0)
(3.15602e-07 -1.94652e-06 0)
(4.42448e-07 -1.92317e-06 0)
(5.70002e-07 -1.89301e-06 0)
(6.98292e-07 -1.85676e-06 0)
(8.27301e-07 -1.81525e-06 0)
(9.56726e-07 -1.76936e-06 0)
(1.08662e-06 -1.72e-06 0)
(1.21635e-06 -1.66823e-06 0)
(6.15245e-08 -2.00459e-06 0)
(1.84581e-07 -1.99682e-06 0)
(3.07942e-07 -1.98177e-06 0)
(4.31792e-07 -1.95964e-06 0)
(5.56395e-07 -1.93101e-06 0)
(6.8181e-07 -1.89657e-06 0)
(8.08047e-07 -1.85705e-06 0)
(9.34869e-07 -1.81336e-06 0)
(1.06229e-06 -1.76628e-06 0)
(1.1898e-06 -1.71676e-06 0)
(5.98739e-08 -2.0384e-06 0)
(1.79656e-07 -2.03109e-06 0)
(2.99791e-07 -2.01678e-06 0)
(4.20478e-07 -1.99579e-06 0)
(5.41983e-07 -1.9686e-06 0)
(6.64407e-07 -1.93585e-06 0)
(7.878e-07 -1.89823e-06 0)
(9.11965e-07 -1.85662e-06 0)
(1.03691e-06 -1.81159e-06 0)
(1.1622e-06 -1.76419e-06 0)
(5.8102e-08 -2.07174e-06 0)
(1.74376e-07 -2.06485e-06 0)
(2.91052e-07 -2.05126e-06 0)
(4.08358e-07 -2.03134e-06 0)
(5.26575e-07 -2.0055e-06 0)
(6.45851e-07 -1.97436e-06 0)
(7.66261e-07 -1.93856e-06 0)
(8.87655e-07 -1.89889e-06 0)
(1.01003e-06 -1.85586e-06 0)
(1.13309e-06 -1.81042e-06 0)
(5.61865e-08 -2.10474e-06 0)
(1.68653e-07 -2.09826e-06 0)
(2.81567e-07 -2.08538e-06 0)
(3.95202e-07 -2.06648e-06 0)
(5.09869e-07 -2.04195e-06 0)
(6.25768e-07 -2.01237e-06 0)
(7.4299e-07 -1.97834e-06 0)
(8.61428e-07 -1.94048e-06 0)
(9.81084e-07 -1.89941e-06 0)
(1.10183e-06 -1.85585e-06 0)
(5.41126e-08 -2.13659e-06 0)
(1.62444e-07 -2.13045e-06 0)
(2.71253e-07 -2.11828e-06 0)
(3.80903e-07 -2.10039e-06 0)
(4.91745e-07 -2.07716e-06 0)
(6.03991e-07 -2.04914e-06 0)
(7.17739e-07 -2.01684e-06 0)
(8.32957e-07 -1.98083e-06 0)
(9.49733e-07 -1.94171e-06 0)
(1.06806e-06 -1.90005e-06 0)
)


// ************************************************************************* //
