/*--------------------------------*- C++ -*----------------------------------*\
| =========                 |                                                 |
| \\      /  F ield         | foam-extend: Open Source CFD                    |
|  \\    /   O peration     | Version:     4.1                                |
|   \\  /    A nd           | Web:         http://www.foam-extend.org         |
|    \\/     M anipulation  |                                                 |
\*---------------------------------------------------------------------------*/
FoamFile
{
    version     2.0;
    format      ascii;
    class       vectorField;
    location    "4";
    object      solidsCellD_iteration11;
}
// * * * * * * * * * * * * * * * * * * * * * * * * * * * * * * * * * * * * * //


1000
(
(2.03251e-06 -8.32383e-07 0)
(1.92059e-06 -7.76236e-07 0)
(1.8497e-06 -7.4133e-07 0)
(1.80952e-06 -7.25971e-07 0)
(1.79062e-06 -7.21888e-07 0)
(1.78728e-06 -7.26475e-07 0)
(1.79541e-06 -7.36748e-07 0)
(1.81205e-06 -7.51326e-07 0)
(1.83535e-06 -7.68713e-07 0)
(1.86295e-06 -7.88094e-07 0)
(1.83815e-06 -9.0939e-07 0)
(1.71901e-06 -8.71065e-07 0)
(1.64348e-06 -8.47462e-07 0)
(1.59986e-06 -8.39819e-07 0)
(1.57816e-06 -8.40888e-07 0)
(1.57224e-06 -8.49115e-07 0)
(1.57786e-06 -8.6197e-07 0)
(1.59191e-06 -8.78481e-07 0)
(1.61238e-06 -8.97372e-07 0)
(1.63688e-06 -9.17902e-07 0)
(1.6361e-06 -9.82334e-07 0)
(1.51438e-06 -9.63927e-07 0)
(1.43716e-06 -9.52966e-07 0)
(1.39198e-06 -9.53789e-07 0)
(1.36876e-06 -9.60406e-07 0)
(1.36108e-06 -9.72449e-07 0)
(1.36471e-06 -9.87963e-07 0)
(1.37657e-06 -1.00633e-06 0)
(1.39456e-06 -1.02666e-06 0)
(1.41652e-06 -1.0481e-06 0)
(1.42782e-06 -1.04995e-06 0)
(1.3087e-06 -1.0524e-06 0)
(1.23306e-06 -1.05468e-06 0)
(1.18834e-06 -1.0643e-06 0)
(1.16486e-06 -1.07665e-06 0)
(1.15622e-06 -1.09259e-06 0)
(1.15828e-06 -1.11075e-06 0)
(1.16816e-06 -1.13095e-06 0)
(1.18381e-06 -1.15264e-06 0)
(1.20319e-06 -1.1751e-06 0)
(1.21487e-06 -1.11089e-06 0)
(1.10333e-06 -1.13401e-06 0)
(1.03249e-06 -1.14938e-06 0)
(9.90364e-07 -1.16767e-06 0)
(9.67896e-07 -1.18565e-06 0)
(9.59004e-07 -1.20541e-06 0)
(9.59929e-07 -1.22613e-06 0)
(9.68001e-07 -1.24811e-06 0)
(9.81367e-07 -1.27115e-06 0)
(9.98059e-07 -1.29468e-06 0)
(9.98128e-07 -1.16395e-06 0)
(8.99174e-07 -1.20637e-06 0)
(8.36332e-07 -1.234e-06 0)
(7.98724e-07 -1.26043e-06 0)
(7.7841e-07 -1.28365e-06 0)
(7.69972e-07 -1.30696e-06 0)
(7.70202e-07 -1.33004e-06 0)
(7.76642e-07 -1.35368e-06 0)
(7.87688e-07 -1.37795e-06 0)
(8.01519e-07 -1.40254e-06 0)
(7.78801e-07 -1.2079e-06 0)
(6.96746e-07 -1.26724e-06 0)
(6.44635e-07 -1.30564e-06 0)
(6.1331e-07 -1.33919e-06 0)
(5.96266e-07 -1.367e-06 0)
(5.88993e-07 -1.3934e-06 0)
(5.88846e-07 -1.41853e-06 0)
(5.93735e-07 -1.44364e-06 0)
(6.02376e-07 -1.46901e-06 0)
(6.13224e-07 -1.49456e-06 0)
(5.5758e-07 -1.24181e-06 0)
(4.96083e-07 -1.31475e-06 0)
(4.57061e-07 -1.36176e-06 0)
(4.33576e-07 -1.40098e-06 0)
(4.20742e-07 -1.43249e-06 0)
(4.15156e-07 -1.46139e-06 0)
(4.1484e-07 -1.48821e-06 0)
(4.18237e-07 -1.51451e-06 0)
(4.24429e-07 -1.54074e-06 0)
(4.3222e-07 -1.5671e-06 0)
(3.35075e-07 -1.26486e-06 0)
(2.97007e-07 -1.34728e-06 0)
(2.72889e-07 -1.4003e-06 0)
(2.58308e-07 -1.44354e-06 0)
(2.50277e-07 -1.47764e-06 0)
(2.4673e-07 -1.50825e-06 0)
(2.46479e-07 -1.53626e-06 0)
(2.48514e-07 -1.56344e-06 0)
(2.52231e-07 -1.59031e-06 0)
(2.5691e-07 -1.61724e-06 0)
(1.11908e-07 -1.27647e-06 0)
(9.90238e-08 -1.36381e-06 0)
(9.07906e-08 -1.41992e-06 0)
(8.58265e-08 -1.46521e-06 0)
(8.31345e-08 -1.50064e-06 0)
(8.19136e-08 -1.53218e-06 0)
(8.17613e-08 -1.56077e-06 0)
(8.24198e-08 -1.58837e-06 0)
(8.36752e-08 -1.61557e-06 0)
(8.52327e-08 -1.64282e-06 0)
(3.16677e-06 -3.79278e-08 0)
(3.19461e-06 -2.73559e-08 0)
(3.21209e-06 -2.06905e-08 0)
(3.23125e-06 -1.68023e-08 0)
(3.25249e-06 -1.46793e-08 0)
(3.27846e-06 -1.37725e-08 0)
(3.30922e-06 -1.36829e-08 0)
(3.34496e-06 -1.40688e-08 0)
(3.38566e-06 -1.48884e-08 0)
(3.43075e-06 -1.58861e-08 0)
(3.14342e-06 -1.13827e-07 0)
(3.16664e-06 -8.27254e-08 0)
(3.18123e-06 -6.31097e-08 0)
(3.19842e-06 -5.1778e-08 0)
(3.21834e-06 -4.56799e-08 0)
(3.24336e-06 -4.29901e-08 0)
(3.27346e-06 -4.27445e-08 0)
(3.30868e-06 -4.40904e-08 0)
(3.34889e-06 -4.65766e-08 0)
(3.39351e-06 -4.94683e-08 0)
(3.09683e-06 -1.90329e-07 0)
(3.11118e-06 -1.40452e-07 0)
(3.12018e-06 -1.09027e-07 0)
(3.13365e-06 -9.07905e-08 0)
(3.15112e-06 -8.10614e-08 0)
(3.17442e-06 -7.69727e-08 0)
(3.2032e-06 -7.67481e-08 0)
(3.2374e-06 -7.90292e-08 0)
(3.27669e-06 -8.31247e-08 0)
(3.32038e-06 -8.79505e-08 0)
(3.0278e-06 -2.67851e-07 0)
(3.02953e-06 -2.01861e-07 0)
(3.03053e-06 -1.60397e-07 0)
(3.03872e-06 -1.36458e-07 0)
(3.05266e-06 -1.2373e-07 0)
(3.07352e-06 -1.18511e-07 0)
(3.10047e-06 -1.1841e-07 0)
(3.13323e-06 -1.21712e-07 0)
(3.17124e-06 -1.27426e-07 0)
(3.21364e-06 -1.34191e-07 0)
(2.93734e-06 -3.46561e-07 0)
(2.92354e-06 -2.68086e-07 0)
(2.91462e-06 -2.18827e-07 0)
(2.91626e-06 -1.90623e-07 0)
(2.92585e-06 -1.75776e-07 0)
(2.94364e-06 -1.6995e-07 0)
(2.96832e-06 -1.70252e-07 0)
(2.99925e-06 -1.74688e-07 0)
(3.03567e-06 -1.81986e-07 0)
(3.07656e-06 -1.90627e-07 0)
(2.82677e-06 -4.26536e-07 0)
(2.79536e-06 -3.399e-07 0)
(2.77532e-06 -2.8553e-07 0)
(2.76956e-06 -2.54751e-07 0)
(2.77421e-06 -2.3884e-07 0)
(2.78849e-06 -2.33028e-07 0)
(2.81061e-06 -2.34039e-07 0)
(2.83946e-06 -2.3969e-07 0)
(2.87407e-06 -2.48544e-07 0)
(2.91322e-06 -2.59006e-07 0)
(2.69776e-06 -5.07628e-07 0)
(2.64772e-06 -4.17614e-07 0)
(2.61588e-06 -3.61141e-07 0)
(2.60232e-06 -3.29669e-07 0)
(2.60174e-06 -3.13808e-07 0)
(2.61231e-06 -3.08679e-07 0)
(2.63168e-06 -3.1074e-07 0)
(2.6583e-06 -3.17705e-07 0)
(2.69093e-06 -3.28088e-07 0)
(2.72827e-06 -3.40275e-07 0)
(2.55195e-06 -5.89419e-07 0)
(2.48345e-06 -5.01028e-07 0)
(2.43995e-06 -4.45586e-07 0)
(2.4186e-06 -4.15392e-07 0)
(2.41284e-06 -4.00767e-07 0)
(2.41965e-06 -3.97038e-07 0)
(2.43618e-06 -4.00531e-07 0)
(2.4605e-06 -4.08991e-07 0)
(2.49107e-06 -4.20908e-07 0)
(2.52649e-06 -4.34745e-07 0)
(2.39122e-06 -6.71371e-07 0)
(2.30557e-06 -5.89432e-07 0)
(2.25123e-06 -5.38142e-07 0)
(2.22257e-06 -5.11165e-07 0)
(2.21187e-06 -4.98972e-07 0)
(2.21499e-06 -4.97328e-07 0)
(2.22864e-06 -5.02644e-07 0)
(2.25057e-06 -5.12753e-07 0)
(2.27898e-06 -5.26261e-07 0)
(2.31245e-06 -5.41489e-07 0)
(2.21747e-06 -7.52698e-07 0)
(2.11707e-06 -6.81693e-07 0)
(2.05339e-06 -6.37374e-07 0)
(2.01833e-06 -6.1545e-07 0)
(2.00318e-06 -6.06832e-07 0)
(2.00294e-06 -6.07974e-07 0)
(2.01397e-06 -6.1556e-07 0)
(2.03354e-06 -6.27719e-07 0)
(2.05994e-06 -6.43008e-07 0)
(2.09107e-06 -6.60449e-07 0)
(3.48031e-06 -1.68272e-08 0)
(3.53427e-06 -1.70857e-08 0)
(3.5916e-06 -1.73579e-08 0)
(3.6521e-06 -1.75625e-08 0)
(3.71539e-06 -1.76879e-08 0)
(3.78128e-06 -1.7725e-08 0)
(3.84944e-06 -1.76385e-08 0)
(3.91961e-06 -1.74597e-08 0)
(3.99161e-06 -1.72044e-08 0)
(4.06525e-06 -1.68379e-08 0)
(4.14028e-06 -1.63337e-08 0)
(4.2165e-06 -1.5687e-08 0)
(4.29371e-06 -1.48946e-08 0)
(4.37168e-06 -1.39555e-08 0)
(4.45024e-06 -1.28568e-08 0)
(4.52912e-06 -1.15678e-08 0)
(4.60816e-06 -1.00499e-08 0)
(4.68691e-06 -8.27031e-09 0)
(4.76543e-06 -6.19282e-09 0)
(4.84263e-06 -3.80609e-09 0)
(3.4447e-06 -5.20906e-08 0)
(3.50162e-06 -5.26522e-08 0)
(3.5616e-06 -5.32756e-08 0)
(3.62443e-06 -5.37192e-08 0)
(3.6898e-06 -5.39074e-08 0)
(3.7575e-06 -5.38783e-08 0)
(3.8273e-06 -5.35879e-08 0)
(3.899e-06 -5.3043e-08 0)
(3.97239e-06 -5.21968e-08 0)
(4.04728e-06 -5.09861e-08 0)
(4.12345e-06 -4.94007e-08 0)
(4.20074e-06 -4.7446e-08 0)
(4.27897e-06 -4.50869e-08 0)
(4.35792e-06 -4.22732e-08 0)
(4.4374e-06 -3.89443e-08 0)
(4.51714e-06 -3.50333e-08 0)
(4.59703e-06 -3.04546e-08 0)
(4.67658e-06 -2.51233e-08 0)
(4.75589e-06 -1.8917e-08 0)
(4.83382e-06 -1.17824e-08 0)
(3.37476e-06 -9.18051e-08 0)
(3.43753e-06 -9.20233e-08 0)
(3.50272e-06 -9.23859e-08 0)
(3.57002e-06 -9.26178e-08 0)
(3.63942e-06 -9.25417e-08 0)
(3.71074e-06 -9.21974e-08 0)
(3.78383e-06 -9.14591e-08 0)
(3.85845e-06 -9.03103e-08 0)
(3.93451e-06 -8.8679e-08 0)
(4.01183e-06 -8.65075e-08 0)
(4.09027e-06 -8.37828e-08 0)
(4.16967e-06 -8.04783e-08 0)
(4.24986e-06 -7.65035e-08 0)
(4.33063e-06 -7.17638e-08 0)
(4.41184e-06 -6.61694e-08 0)
(4.49325e-06 -5.9623e-08 0)
(4.57475e-06 -5.19845e-08 0)
(4.6559e-06 -4.31137e-08 0)
(4.73679e-06 -3.28002e-08 0)
(4.81631e-06 -2.09397e-08 0)
(3.27257e-06 -1.38478e-07 0)
(3.34365e-06 -1.37316e-07 0)
(3.41637e-06 -1.36486e-07 0)
(3.49024e-06 -1.35802e-07 0)
(3.56557e-06 -1.34881e-07 0)
(3.64213e-06 -1.3376e-07 0)
(3.71996e-06 -1.3219e-07 0)
(3.79887e-06 -1.30148e-07 0)
(3.87889e-06 -1.27516e-07 0)
(3.95985e-06 -1.24221e-07 0)
(4.04165e-06 -1.20211e-07 0)
(4.12414e-06 -1.15416e-07 0)
(4.20721e-06 -1.09707e-07 0)
(4.2907e-06 -1.0297e-07 0)
(4.37449e-06 -9.50912e-08 0)
(4.45837e-06 -8.59156e-08 0)
(4.54223e-06 -7.52454e-08 0)
(4.62569e-06 -6.28709e-08 0)
(4.70881e-06 -4.84825e-08 0)
(4.79059e-06 -3.19594e-08 0)
(3.14118e-06 -1.94304e-07 0)
(3.22276e-06 -1.90447e-07 0)
(3.30504e-06 -1.87274e-07 0)
(3.38722e-06 -1.84797e-07 0)
(3.47008e-06 -1.82273e-07 0)
(3.55336e-06 -1.79754e-07 0)
(3.6373e-06 -1.76848e-07 0)
(3.72177e-06 -1.73522e-07 0)
(3.80685e-06 -1.69571e-07 0)
(3.89244e-06 -1.64882e-07 0)
(3.97854e-06 -1.59374e-07 0)
(4.06505e-06 -1.52933e-07 0)
(4.15189e-06 -1.45386e-07 0)
(4.23893e-06 -1.36582e-07 0)
(4.32609e-06 -1.26367e-07 0)
(4.41316e-06 -1.14531e-07 0)
(4.50011e-06 -1.00823e-07 0)
(4.58653e-06 -8.49748e-08 0)
(4.67259e-06 -6.65642e-08 0)
(4.75729e-06 -4.54601e-08 0)
(2.98426e-06 -2.60918e-07 0)
(3.0779e-06 -2.52831e-07 0)
(3.17141e-06 -2.45903e-07 0)
(3.26343e-06 -2.40534e-07 0)
(3.35529e-06 -2.35506e-07 0)
(3.44662e-06 -2.30862e-07 0)
(3.53782e-06 -2.26023e-07 0)
(3.62893e-06 -2.209e-07 0)
(3.72009e-06 -2.15239e-07 0)
(3.81129e-06 -2.08871e-07 0)
(3.90259e-06 -2.01653e-07 0)
(3.99394e-06 -1.93406e-07 0)
(4.0853e-06 -1.83903e-07 0)
(4.17658e-06 -1.72951e-07 0)
(4.26776e-06 -1.60346e-07 0)
(4.35867e-06 -1.45837e-07 0)
(4.44933e-06 -1.29107e-07 0)
(4.53932e-06 -1.09841e-07 0)
(4.62893e-06 -8.7507e-08 0)
(4.71715e-06 -6.19139e-08 0)
(2.80621e-06 -3.39272e-07 0)
(2.91302e-06 -3.254e-07 0)
(3.01894e-06 -3.13325e-07 0)
(3.12192e-06 -3.03881e-07 0)
(3.22378e-06 -2.95383e-07 0)
(3.32416e-06 -2.87767e-07 0)
(3.42361e-06 -2.8037e-07 0)
(3.52226e-06 -2.72939e-07 0)
(3.62035e-06 -2.65162e-07 0)
(3.71798e-06 -2.56788e-07 0)
(3.81524e-06 -2.47589e-07 0)
(3.91213e-06 -2.3731e-07 0)
(4.00867e-06 -2.25679e-07 0)
(4.10484e-06 -2.12463e-07 0)
(4.20065e-06 -1.97405e-07 0)
(4.29598e-06 -1.80209e-07 0)
(4.39091e-06 -1.60486e-07 0)
(4.48505e-06 -1.37855e-07 0)
(4.5787e-06 -1.11686e-07 0)
(4.67096e-06 -8.17162e-08 0)
(2.61132e-06 -4.2965e-07 0)
(2.73174e-06 -4.08235e-07 0)
(2.85071e-06 -3.89594e-07 0)
(2.96546e-06 -3.74745e-07 0)
(3.07818e-06 -3.61779e-07 0)
(3.18843e-06 -3.50331e-07 0)
(3.297e-06 -3.39687e-07 0)
(3.404e-06 -3.29408e-07 0)
(3.50977e-06 -3.19086e-07 0)
(3.6145e-06 -3.08366e-07 0)
(3.71832e-06 -2.96921e-07 0)
(3.82133e-06 -2.84424e-07 0)
(3.92359e-06 -2.7055e-07 0)
(4.02517e-06 -2.55017e-07 0)
(4.12613e-06 -2.37503e-07 0)
(4.22639e-06 -2.17655e-07 0)
(4.32604e-06 -1.95005e-07 0)
(4.42478e-06 -1.69102e-07 0)
(4.52291e-06 -1.39211e-07 0)
(4.61964e-06 -1.05007e-07 0)
(2.40419e-06 -5.31837e-07 0)
(2.53835e-06 -5.01468e-07 0)
(2.6705e-06 -4.75365e-07 0)
(2.79748e-06 -4.53958e-07 0)
(2.92144e-06 -4.35596e-07 0)
(3.04211e-06 -4.19504e-07 0)
(3.16025e-06 -4.04906e-07 0)
(3.27612e-06 -3.91175e-07 0)
(3.39009e-06 -3.77801e-07 0)
(3.50241e-06 -3.64309e-07 0)
(3.61329e-06 -3.50278e-07 0)
(3.72289e-06 -3.35305e-07 0)
(3.83135e-06 -3.19009e-07 0)
(3.93881e-06 -3.01039e-07 0)
(4.04534e-06 -2.81002e-07 0)
(4.15094e-06 -2.58471e-07 0)
(4.25569e-06 -2.32904e-07 0)
(4.35939e-06 -2.03775e-07 0)
(4.46238e-06 -1.70272e-07 0)
(4.56398e-06 -1.32007e-07 0)
(2.18884e-06 -6.4419e-07 0)
(2.33731e-06 -6.02353e-07 0)
(2.48237e-06 -5.67783e-07 0)
(2.622e-06 -5.38777e-07 0)
(2.75742e-06 -5.14195e-07 0)
(2.88893e-06 -4.92797e-07 0)
(3.01702e-06 -4.73699e-07 0)
(3.14211e-06 -4.56109e-07 0)
(3.26462e-06 -4.39382e-07 0)
(3.38486e-06 -4.22912e-07 0)
(3.5031e-06 -4.06171e-07 0)
(3.61958e-06 -3.8867e-07 0)
(3.73451e-06 -3.6995e-07 0)
(3.84806e-06 -3.49581e-07 0)
(3.96035e-06 -3.27095e-07 0)
(4.07145e-06 -3.01993e-07 0)
(4.18149e-06 -2.73665e-07 0)
(4.29034e-06 -2.41495e-07 0)
(4.39838e-06 -2.0461e-07 0)
(4.50509e-06 -1.62522e-07 0)
(2.02727e-06 -7.53743e-07 0)
(2.18595e-06 -7.02065e-07 0)
(2.33916e-06 -6.60825e-07 0)
(2.48703e-06 -6.25458e-07 0)
(2.63002e-06 -5.95198e-07 0)
(2.76865e-06 -5.68688e-07 0)
(2.90338e-06 -5.4498e-07 0)
(3.03469e-06 -5.23243e-07 0)
(3.16297e-06 -5.02753e-07 0)
(3.28856e-06 -4.8284e-07 0)
(3.41176e-06 -4.62922e-07 0)
(3.53284e-06 -4.42463e-07 0)
(3.65205e-06 -4.2095e-07 0)
(3.76958e-06 -3.97895e-07 0)
(3.88558e-06 -3.72787e-07 0)
(4.00016e-06 -3.45069e-07 0)
(4.1135e-06 -3.14124e-07 0)
(4.22557e-06 -2.79271e-07 0)
(4.33677e-06 -2.39637e-07 0)
(4.44672e-06 -1.94667e-07 0)
(1.93582e-06 -8.43716e-07 0)
(2.09575e-06 -7.89975e-07 0)
(2.25035e-06 -7.44877e-07 0)
(2.40042e-06 -7.05502e-07 0)
(2.54593e-06 -6.71131e-07 0)
(2.68722e-06 -6.40614e-07 0)
(2.82465e-06 -6.13051e-07 0)
(2.95858e-06 -5.87643e-07 0)
(3.08934e-06 -5.63663e-07 0)
(3.21723e-06 -5.40449e-07 0)
(3.34255e-06 -5.17419e-07 0)
(3.46558e-06 -4.94026e-07 0)
(3.58653e-06 -4.69738e-07 0)
(3.70563e-06 -4.44049e-07 0)
(3.82302e-06 -4.1644e-07 0)
(3.93888e-06 -3.86336e-07 0)
(4.05335e-06 -3.53155e-07 0)
(4.16654e-06 -3.16206e-07 0)
(4.2788e-06 -2.7466e-07 0)
(4.38991e-06 -2.27957e-07 0)
(1.85854e-06 -9.29517e-07 0)
(2.01686e-06 -8.7472e-07 0)
(2.17132e-06 -8.27302e-07 0)
(2.32186e-06 -7.85003e-07 0)
(2.46842e-06 -7.47309e-07 0)
(2.61108e-06 -7.13321e-07 0)
(2.75009e-06 -6.82259e-07 0)
(2.88567e-06 -6.53404e-07 0)
(3.01808e-06 -6.26076e-07 0)
(3.14759e-06 -5.9965e-07 0)
(3.27446e-06 -5.73562e-07 0)
(3.39893e-06 -5.47267e-07 0)
(3.52123e-06 -5.20226e-07 0)
(3.64156e-06 -4.91933e-07 0)
(3.76007e-06 -4.61873e-07 0)
(3.87698e-06 -4.29468e-07 0)
(3.99245e-06 -3.94169e-07 0)
(4.10662e-06 -3.55309e-07 0)
(4.21984e-06 -3.12104e-07 0)
(4.33203e-06 -2.64022e-07 0)
(1.79067e-06 -1.01235e-06 0)
(1.94674e-06 -9.5711e-07 0)
(2.09992e-06 -9.07975e-07 0)
(2.24985e-06 -8.6329e-07 0)
(2.39636e-06 -8.22759e-07 0)
(2.5394e-06 -7.85701e-07 0)
(2.6791e-06 -7.51469e-07 0)
(2.81555e-06 -7.19427e-07 0)
(2.94896e-06 -6.88963e-07 0)
(3.07953e-06 -6.59498e-07 0)
(3.20747e-06 -6.30496e-07 0)
(3.333e-06 -6.01426e-07 0)
(3.45632e-06 -5.71752e-07 0)
(3.57762e-06 -5.40979e-07 0)
(3.69706e-06 -5.08605e-07 0)
(3.81486e-06 -4.74065e-07 0)
(3.93119e-06 -4.36849e-07 0)
(4.04626e-06 -3.96318e-07 0)
(4.16035e-06 -3.5175e-07 0)
(4.27358e-06 -3.02672e-07 0)
(1.73105e-06 -1.09164e-06 0)
(1.88429e-06 -1.03644e-06 0)
(2.03546e-06 -9.86268e-07 0)
(2.18395e-06 -9.39845e-07 0)
(2.32962e-06 -8.97062e-07 0)
(2.47226e-06 -8.57428e-07 0)
(2.61191e-06 -8.20422e-07 0)
(2.74858e-06 -7.85519e-07 0)
(2.88241e-06 -7.52183e-07 0)
(3.01353e-06 -7.19894e-07 0)
(3.14212e-06 -6.88155e-07 0)
(3.26833e-06 -6.56457e-07 0)
(3.39235e-06 -6.24283e-07 0)
(3.51437e-06 -5.91166e-07 0)
(3.63452e-06 -5.56615e-07 0)
(3.75306e-06 -5.20099e-07 0)
(3.87012e-06 -4.81142e-07 0)
(3.98596e-06 -4.39148e-07 0)
(4.10086e-06 -3.93471e-07 0)
(4.21505e-06 -3.43725e-07 0)
(1.67815e-06 -1.16761e-06 0)
(1.82829e-06 -1.11277e-06 0)
(1.97703e-06 -1.06199e-06 0)
(2.12355e-06 -1.0143e-06 0)
(2.2678e-06 -9.69737e-07 0)
(2.40945e-06 -9.27952e-07 0)
(2.54847e-06 -8.88555e-07 0)
(2.68482e-06 -8.51129e-07 0)
(2.81858e-06 -8.15217e-07 0)
(2.94981e-06 -7.80357e-07 0)
(3.07865e-06 -7.461e-07 0)
(3.20521e-06 -7.11968e-07 0)
(3.32965e-06 -6.77473e-07 0)
(3.45214e-06 -6.42182e-07 0)
(3.57282e-06 -6.05625e-07 0)
(3.69191e-06 -5.67323e-07 0)
(3.80958e-06 -5.26821e-07 0)
(3.92608e-06 -4.83583e-07 0)
(4.04171e-06 -4.37056e-07 0)
(4.15673e-06 -3.86919e-07 0)
(1.63087e-06 -1.24039e-06 0)
(1.77779e-06 -1.18613e-06 0)
(1.92381e-06 -1.13508e-06 0)
(2.06804e-06 -1.08652e-06 0)
(2.21045e-06 -1.04059e-06 0)
(2.35066e-06 -9.97054e-07 0)
(2.48862e-06 -9.55639e-07 0)
(2.62423e-06 -9.16031e-07 0)
(2.75751e-06 -8.77841e-07 0)
(2.88848e-06 -8.40673e-07 0)
(3.01723e-06 -8.04129e-07 0)
(3.14383e-06 -7.67771e-07 0)
(3.26844e-06 -7.31147e-07 0)
(3.39118e-06 -6.93871e-07 0)
(3.51219e-06 -6.55487e-07 0)
(3.6317e-06 -6.15579e-07 0)
(3.74984e-06 -5.73726e-07 0)
(3.8669e-06 -5.29453e-07 0)
(3.98316e-06 -4.82304e-07 0)
(4.09889e-06 -4.31985e-07 0)
(1.58822e-06 -1.31017e-06 0)
(1.7319e-06 -1.25663e-06 0)
(1.87504e-06 -1.20556e-06 0)
(2.01677e-06 -1.15644e-06 0)
(2.15707e-06 -1.10948e-06 0)
(2.29553e-06 -1.06452e-06 0)
(2.4321e-06 -1.02143e-06 0)
(2.56663e-06 -9.7996e-07 0)
(2.6991e-06 -9.39783e-07 0)
(2.8295e-06 -9.00573e-07 0)
(2.95787e-06 -8.61984e-07 0)
(3.08427e-06 -8.23622e-07 0)
(3.20882e-06 -7.85077e-07 0)
(3.33163e-06 -7.46012e-07 0)
(3.45282e-06 -7.05997e-07 0)
(3.5726e-06 -6.64671e-07 0)
(3.69111e-06 -6.21665e-07 0)
(3.80863e-06 -5.7656e-07 0)
(3.92542e-06 -5.28982e-07 0)
(4.04175e-06 -4.7865e-07 0)
(1.54929e-06 -1.37719e-06 0)
(1.68976e-06 -1.32443e-06 0)
(1.82997e-06 -1.2735e-06 0)
(1.96909e-06 -1.22406e-06 0)
(2.10709e-06 -1.17633e-06 0)
(2.24362e-06 -1.13027e-06 0)
(2.37856e-06 -1.0858e-06 0)
(2.51178e-06 -1.04276e-06 0)
(2.64319e-06 -1.00087e-06 0)
(2.77278e-06 -9.59881e-07 0)
(2.90057e-06 -9.19492e-07 0)
(3.02657e-06 -8.79355e-07 0)
(3.15089e-06 -8.39103e-07 0)
(3.2736e-06 -7.9845e-07 0)
(3.39484e-06 -7.57003e-07 0)
(3.51478e-06 -7.1445e-07 0)
(3.63356e-06 -6.7048e-07 0)
(3.75146e-06 -6.24722e-07 0)
(3.86865e-06 -5.76863e-07 0)
(3.98552e-06 -5.2668e-07 0)
(1.51328e-06 -1.44163e-06 0)
(1.6506e-06 -1.38969e-06 0)
(1.7879e-06 -1.33903e-06 0)
(1.92437e-06 -1.28943e-06 0)
(2.06002e-06 -1.24117e-06 0)
(2.19449e-06 -1.19425e-06 0)
(2.32768e-06 -1.14866e-06 0)
(2.45941e-06 -1.10431e-06 0)
(2.5896e-06 -1.06098e-06 0)
(2.71822e-06 -1.01846e-06 0)
(2.84524e-06 -9.76507e-07 0)
(2.97069e-06 -9.34821e-07 0)
(3.09464e-06 -8.9308e-07 0)
(3.21714e-06 -8.51043e-07 0)
(3.33831e-06 -8.0836e-07 0)
(3.45831e-06 -7.64771e-07 0)
(3.57727e-06 -7.2001e-07 0)
(3.69543e-06 -6.73751e-07 0)
(3.81296e-06 -6.25739e-07 0)
(3.93026e-06 -5.75848e-07 0)
(1.4795e-06 -1.50374e-06 0)
(1.61378e-06 -1.45261e-06 0)
(1.74822e-06 -1.40228e-06 0)
(1.88206e-06 -1.35265e-06 0)
(2.01535e-06 -1.30403e-06 0)
(2.14773e-06 -1.25646e-06 0)
(2.27907e-06 -1.20999e-06 0)
(2.40923e-06 -1.16457e-06 0)
(2.53809e-06 -1.12003e-06 0)
(2.66561e-06 -1.07622e-06 0)
(2.79177e-06 -1.03294e-06 0)
(2.91655e-06 -9.8992e-07 0)
(3.04002e-06 -9.46899e-07 0)
(3.16221e-06 -9.03678e-07 0)
(3.28323e-06 -8.59948e-07 0)
(3.40322e-06 -8.15495e-07 0)
(3.52226e-06 -7.70093e-07 0)
(3.6406e-06 -7.23455e-07 0)
(3.7584e-06 -6.75415e-07 0)
(3.87601e-06 -6.25898e-07 0)
(1.44733e-06 -1.5637e-06 0)
(1.5787e-06 -1.51335e-06 0)
(1.71037e-06 -1.46339e-06 0)
(1.84167e-06 -1.41384e-06 0)
(1.97262e-06 -1.36501e-06 0)
(2.10289e-06 -1.31696e-06 0)
(2.23237e-06 -1.2698e-06 0)
(2.3609e-06 -1.22352e-06 0)
(2.48838e-06 -1.178e-06 0)
(2.61475e-06 -1.13311e-06 0)
(2.73997e-06 -1.0887e-06 0)
(2.86402e-06 -1.04457e-06 0)
(2.98695e-06 -1.00047e-06 0)
(3.10879e-06 -9.56252e-07 0)
(3.22959e-06 -9.11655e-07 0)
(3.3495e-06 -8.66494e-07 0)
(3.46857e-06 -8.20581e-07 0)
(3.58701e-06 -7.73682e-07 0)
(3.70503e-06 -7.25725e-07 0)
(3.82286e-06 -6.76605e-07 0)
(1.41627e-06 -1.62171e-06 0)
(1.54485e-06 -1.57208e-06 0)
(1.67386e-06 -1.52254e-06 0)
(1.8027e-06 -1.47314e-06 0)
(1.93137e-06 -1.42419e-06 0)
(2.05957e-06 -1.37581e-06 0)
(2.1872e-06 -1.32813e-06 0)
(2.31412e-06 -1.28117e-06 0)
(2.44021e-06 -1.23487e-06 0)
(2.56543e-06 -1.1891e-06 0)
(2.6897e-06 -1.14379e-06 0)
(2.813e-06 -1.09873e-06 0)
(2.93535e-06 -1.05375e-06 0)
(3.05678e-06 -1.00872e-06 0)
(3.17732e-06 -9.63413e-07 0)
(3.29708e-06 -9.17678e-07 0)
(3.41611e-06 -8.71369e-07 0)
(3.53464e-06 -8.24315e-07 0)
(3.65274e-06 -7.76498e-07 0)
(3.77076e-06 -7.27817e-07 0)
(1.38581e-06 -1.67793e-06 0)
(1.51175e-06 -1.629e-06 0)
(1.63822e-06 -1.57986e-06 0)
(1.76468e-06 -1.53065e-06 0)
(1.89115e-06 -1.48168e-06 0)
(2.01736e-06 -1.43308e-06 0)
(2.14322e-06 -1.38505e-06 0)
(2.26858e-06 -1.33759e-06 0)
(2.39333e-06 -1.29068e-06 0)
(2.5174e-06 -1.24423e-06 0)
(2.64072e-06 -1.19819e-06 0)
(2.76325e-06 -1.15239e-06 0)
(2.88503e-06 -1.10668e-06 0)
(3.00602e-06 -1.061e-06 0)
(3.12627e-06 -1.01512e-06 0)
(3.24586e-06 -9.68923e-07 0)
(3.36481e-06 -9.22323e-07 0)
(3.48336e-06 -8.75201e-07 0)
(3.60152e-06 -8.27535e-07 0)
(3.71963e-06 -7.79339e-07 0)
(1.35543e-06 -1.73254e-06 0)
(1.47887e-06 -1.68425e-06 0)
(1.60291e-06 -1.6355e-06 0)
(1.72712e-06 -1.58652e-06 0)
(1.85153e-06 -1.53761e-06 0)
(1.97586e-06 -1.48892e-06 0)
(2.10006e-06 -1.44065e-06 0)
(2.22393e-06 -1.39284e-06 0)
(2.3474e-06 -1.34548e-06 0)
(2.47039e-06 -1.2985e-06 0)
(2.59282e-06 -1.2519e-06 0)
(2.71464e-06 -1.20553e-06 0)
(2.83586e-06 -1.15927e-06 0)
(2.95644e-06 -1.11307e-06 0)
(3.07639e-06 -1.06673e-06 0)
(3.19579e-06 -1.02019e-06 0)
(3.31466e-06 -9.73389e-07 0)
(3.43317e-06 -9.26248e-07 0)
(3.55138e-06 -8.78775e-07 0)
(3.66953e-06 -8.3103e-07 0)
(1.32463e-06 -1.78566e-06 0)
(1.44568e-06 -1.738e-06 0)
(1.56742e-06 -1.6896e-06 0)
(1.68956e-06 -1.64087e-06 0)
(1.81206e-06 -1.59209e-06 0)
(1.93468e-06 -1.54342e-06 0)
(2.05734e-06 -1.49503e-06 0)
(2.17987e-06 -1.44701e-06 0)
(2.30217e-06 -1.39934e-06 0)
(2.42416e-06 -1.352e-06 0)
(2.54577e-06 -1.30498e-06 0)
(2.66693e-06 -1.25819e-06 0)
(2.78762e-06 -1.21151e-06 0)
(2.9078e-06 -1.1649e-06 0)
(3.02746e-06 -1.11821e-06 0)
(3.14669e-06 -1.07142e-06 0)
(3.26548e-06 -1.02449e-06 0)
(3.38393e-06 -9.77335e-07 0)
(3.50214e-06 -9.30079e-07 0)
(3.62031e-06 -8.8277e-07 0)
(1.29289e-06 -1.8375e-06 0)
(1.41162e-06 -1.79028e-06 0)
(1.5312e-06 -1.74232e-06 0)
(1.65152e-06 -1.69394e-06 0)
(1.77229e-06 -1.64534e-06 0)
(1.8934e-06 -1.59675e-06 0)
(2.01469e-06 -1.54834e-06 0)
(2.13603e-06 -1.50021e-06 0)
(2.25731e-06 -1.45236e-06 0)
(2.37844e-06 -1.40478e-06 0)
(2.49934e-06 -1.3575e-06 0)
(2.61992e-06 -1.3104e-06 0)
(2.74015e-06 -1.2634e-06 0)
(2.85998e-06 -1.21649e-06 0)
(2.97941e-06 -1.16956e-06 0)
(3.0985e-06 -1.12258e-06 0)
(3.21719e-06 -1.07553e-06 0)
(3.33561e-06 -1.0284e-06 0)
(3.45376e-06 -9.81362e-07 0)
(3.57195e-06 -9.34441e-07 0)
(1.25946e-06 -1.88799e-06 0)
(1.37622e-06 -1.84129e-06 0)
(1.49402e-06 -1.79384e-06 0)
(1.61262e-06 -1.7458e-06 0)
(1.7319e-06 -1.69747e-06 0)
(1.85168e-06 -1.64904e-06 0)
(1.97181e-06 -1.6007e-06 0)
(2.09216e-06 -1.55257e-06 0)
(2.2126e-06 -1.50465e-06 0)
(2.33304e-06 -1.45695e-06 0)
(2.45335e-06 -1.40949e-06 0)
(2.57344e-06 -1.36221e-06 0)
(2.6933e-06 -1.315e-06 0)
(2.81287e-06 -1.26788e-06 0)
(2.93213e-06 -1.22077e-06 0)
(3.05107e-06 -1.17366e-06 0)
(3.16966e-06 -1.12653e-06 0)
(3.2881e-06 -1.07942e-06 0)
(3.40627e-06 -1.03255e-06 0)
(3.52437e-06 -9.86005e-07 0)
(1.22389e-06 -1.93764e-06 0)
(1.33884e-06 -1.89151e-06 0)
(1.45505e-06 -1.84446e-06 0)
(1.57225e-06 -1.7968e-06 0)
(1.69032e-06 -1.74877e-06 0)
(1.80904e-06 -1.70056e-06 0)
(1.9283e-06 -1.65236e-06 0)
(2.04793e-06 -1.6043e-06 0)
(2.16777e-06 -1.55639e-06 0)
(2.28768e-06 -1.50865e-06 0)
(2.40757e-06 -1.46111e-06 0)
(2.52734e-06 -1.41369e-06 0)
(2.64696e-06 -1.36634e-06 0)
(2.76632e-06 -1.31911e-06 0)
(2.88542e-06 -1.27186e-06 0)
(3.00431e-06 -1.2246e-06 0)
(3.12292e-06 -1.17742e-06 0)
(3.24131e-06 -1.13034e-06 0)
(3.35952e-06 -1.08355e-06 0)
(3.4776e-06 -1.0373e-06 0)
(1.18573e-06 -1.98608e-06 0)
(1.29913e-06 -1.94059e-06 0)
(1.41402e-06 -1.89412e-06 0)
(1.53013e-06 -1.84693e-06 0)
(1.6473e-06 -1.79928e-06 0)
(1.76533e-06 -1.75136e-06 0)
(1.88405e-06 -1.70341e-06 0)
(2.00322e-06 -1.65552e-06 0)
(2.12269e-06 -1.60769e-06 0)
(2.24234e-06 -1.55995e-06 0)
(2.36202e-06 -1.51239e-06 0)
(2.4816e-06 -1.46495e-06 0)
(2.60105e-06 -1.41751e-06 0)
(2.72032e-06 -1.37016e-06 0)
(2.83933e-06 -1.32284e-06 0)
(2.95815e-06 -1.2755e-06 0)
(3.07681e-06 -1.22826e-06 0)
(3.19524e-06 -1.18112e-06 0)
(3.31356e-06 -1.13436e-06 0)
(3.43167e-06 -1.08824e-06 0)
(8.50342e-08 -1.67063e-06 0)
(2.56183e-07 -1.64626e-06 0)
(4.30502e-07 -1.59845e-06 0)
(6.09825e-07 -1.52919e-06 0)
(7.95544e-07 -1.4411e-06 0)
(9.8853e-07 -1.33751e-06 0)
(1.18911e-06 -1.22222e-06 0)
(1.39688e-06 -1.09914e-06 0)
(1.61141e-06 -9.72231e-07 0)
(1.83074e-06 -8.44469e-07 0)
(8.27749e-08 -1.69959e-06 0)
(2.49252e-07 -1.67732e-06 0)
(4.18322e-07 -1.63359e-06 0)
(5.91543e-07 -1.57012e-06 0)
(7.70079e-07 -1.4891e-06 0)
(9.54634e-07 -1.39339e-06 0)
(1.14552e-06 -1.28619e-06 0)
(1.34222e-06 -1.17095e-06 0)
(1.54411e-06 -1.0512e-06 0)
(1.74929e-06 -9.29934e-07 0)
(8.07277e-08 -1.72922e-06 0)
(2.42963e-07 -1.70887e-06 0)
(4.07296e-07 -1.66882e-06 0)
(5.74945e-07 -1.6106e-06 0)
(7.46922e-07 -1.53613e-06 0)
(9.2376e-07 -1.44785e-06 0)
(1.1058e-06 -1.34854e-06 0)
(1.29276e-06 -1.24112e-06 0)
(1.48419e-06 -1.12861e-06 0)
(1.67871e-06 -1.01333e-06 0)
(7.89058e-08 -1.75956e-06 0)
(2.37347e-07 -1.74081e-06 0)
(3.97573e-07 -1.70392e-06 0)
(5.60475e-07 -1.6502e-06 0)
(7.26947e-07 -1.58135e-06 0)
(8.9738e-07 -1.49951e-06 0)
(1.07202e-06 -1.40717e-06 0)
(1.25062e-06 -1.30689e-06 0)
(1.43273e-06 -1.20153e-06 0)
(1.61724e-06 -1.09304e-06 0)
(7.72457e-08 -1.79059e-06 0)
(2.32182e-07 -1.7733e-06 0)
(3.88631e-07 -1.73923e-06 0)
(5.47241e-07 -1.68956e-06 0)
(7.08781e-07 -1.62582e-06 0)
(8.73557e-07 -1.5499e-06 0)
(1.04178e-06 -1.46403e-06 0)
(1.21325e-06 -1.37038e-06 0)
(1.38758e-06 -1.27157e-06 0)
(1.56358e-06 -1.1694e-06 0)
(7.56821e-08 -1.82228e-06 0)
(2.27413e-07 -1.80624e-06 0)
(3.80395e-07 -1.77463e-06 0)
(5.35172e-07 -1.72853e-06 0)
(6.92358e-07 -1.66927e-06 0)
(8.52217e-07 -1.59861e-06 0)
(1.01484e-06 -1.51855e-06 0)
(1.18005e-06 -1.431e-06 0)
(1.3476e-06 -1.33838e-06 0)
(1.5162e-06 -1.24242e-06 0)
(7.41797e-08 -1.85458e-06 0)
(2.22881e-07 -1.83967e-06 0)
(3.72611e-07 -1.81027e-06 0)
(5.23867e-07 -1.76736e-06 0)
(6.7709e-07 -1.71215e-06 0)
(8.32555e-07 -1.64623e-06 0)
(9.90299e-07 -1.57143e-06 0)
(1.15007e-06 -1.48946e-06 0)
(1.31179e-06 -1.40249e-06 0)
(1.47405e-06 -1.3123e-06 0)
(7.27674e-08 -1.88744e-06 0)
(2.18545e-07 -1.87353e-06 0)
(3.652e-07 -1.84609e-06 0)
(5.13179e-07 -1.80602e-06 0)
(6.62791e-07 -1.75442e-06 0)
(8.14267e-07 -1.69275e-06 0)
(9.67656e-07 -1.62272e-06 0)
(1.12265e-06 -1.54586e-06 0)
(1.27928e-06 -1.46411e-06 0)
(1.43609e-06 -1.37927e-06 0)
(7.13959e-08 -1.9208e-06 0)
(2.14322e-07 -1.90779e-06 0)
(3.58034e-07 -1.88211e-06 0)
(5.02889e-07 -1.84459e-06 0)
(6.49146e-07 -1.79627e-06 0)
(7.96991e-07 -1.73844e-06 0)
(9.46446e-07 -1.6727e-06 0)
(1.0972e-06 -1.60051e-06 0)
(1.24935e-06 -1.52353e-06 0)
(1.40145e-06 -1.44358e-06 0)
(7.00107e-08 -1.95459e-06 0)
(2.1016e-07 -1.94239e-06 0)
(3.51018e-07 -1.91829e-06 0)
(4.92877e-07 -1.88307e-06 0)
(6.35948e-07 -1.8377e-06 0)
(7.80428e-07 -1.78335e-06 0)
(9.26285e-07 -1.72151e-06 0)
(1.07322e-06 -1.65356e-06 0)
(1.22137e-06 -1.58095e-06 0)
(1.36936e-06 -1.50549e-06 0)
(6.86105e-08 -1.98877e-06 0)
(2.0603e-07 -1.97729e-06 0)
(3.44055e-07 -1.95463e-06 0)
(4.82999e-07 -1.92149e-06 0)
(6.23007e-07 -1.87879e-06 0)
(7.64301e-07 -1.82759e-06 0)
(9.06825e-07 -1.76929e-06 0)
(1.05028e-06 -1.70519e-06 0)
(1.19481e-06 -1.63658e-06 0)
(1.33916e-06 -1.56521e-06 0)
(6.72164e-08 -2.02323e-06 0)
(2.01894e-07 -2.01243e-06 0)
(3.37068e-07 -1.99108e-06 0)
(4.73129e-07 -1.95982e-06 0)
(6.10164e-07 -1.91954e-06 0)
(7.48388e-07 -1.87122e-06 0)
(8.87768e-07 -1.81614e-06 0)
(1.028e-06 -1.75555e-06 0)
(1.16922e-06 -1.69059e-06 0)
(1.31031e-06 -1.62295e-06 0)
(6.58145e-08 -2.05793e-06 0)
(1.97673e-07 -2.04774e-06 0)
(3.29956e-07 -2.02758e-06 0)
(4.63121e-07 -1.99805e-06 0)
(5.97229e-07 -1.95998e-06 0)
(7.32456e-07 -1.91428e-06 0)
(8.68819e-07 -1.86215e-06 0)
(1.00602e-06 -1.80476e-06 0)
(1.14418e-06 -1.74315e-06 0)
(1.28234e-06 -1.67891e-06 0)
(6.43615e-08 -2.09276e-06 0)
(1.93282e-07 -2.08313e-06 0)
(3.22616e-07 -2.06407e-06 0)
(4.52829e-07 -2.03612e-06 0)
(5.84001e-07 -2.00008e-06 0)
(7.16268e-07 -1.95679e-06 0)
(8.49687e-07 -1.90736e-06 0)
(9.83991e-07 -1.8529e-06 0)
(1.1193e-06 -1.79437e-06 0)
(1.25475e-06 -1.73325e-06 0)
(6.28218e-08 -2.12766e-06 0)
(1.88661e-07 -2.11853e-06 0)
(3.14952e-07 -2.10049e-06 0)
(4.4212e-07 -2.07401e-06 0)
(5.7029e-07 -2.03984e-06 0)
(6.99583e-07 -1.99878e-06 0)
(8.3008e-07 -1.95185e-06 0)
(9.61577e-07 -1.90008e-06 0)
(1.09415e-06 -1.8444e-06 0)
(1.22705e-06 -1.78613e-06 0)
(6.11846e-08 -2.16246e-06 0)
(1.83777e-07 -2.15381e-06 0)
(3.06878e-07 -2.13671e-06 0)
(4.3086e-07 -2.1116e-06 0)
(5.5591e-07 -2.07917e-06 0)
(6.82158e-07 -2.04018e-06 0)
(8.09712e-07 -1.99556e-06 0)
(9.38432e-07 -1.94632e-06 0)
(1.06831e-06 -1.89328e-06 0)
(1.19878e-06 -1.83764e-06 0)
(5.94444e-08 -2.19711e-06 0)
(1.78581e-07 -2.18891e-06 0)
(2.98274e-07 -2.1727e-06 0)
(4.18875e-07 -2.14889e-06 0)
(5.40643e-07 -2.1181e-06 0)
(6.63723e-07 -2.08104e-06 0)
(7.88256e-07 -2.03861e-06 0)
(9.14124e-07 -1.99174e-06 0)
(1.04132e-06 -1.94115e-06 0)
(1.16937e-06 -1.88799e-06 0)
(5.75787e-08 -2.2313e-06 0)
(1.72985e-07 -2.22352e-06 0)
(2.88997e-07 -2.20817e-06 0)
(4.05975e-07 -2.18558e-06 0)
(5.24239e-07 -2.15635e-06 0)
(6.43976e-07 -2.12115e-06 0)
(7.65338e-07 -2.0808e-06 0)
(8.88225e-07 -2.03616e-06 0)
(1.01269e-06 -1.98791e-06 0)
(1.1383e-06 -1.93708e-06 0)
(5.55403e-08 -2.26515e-06 0)
(1.66858e-07 -2.25779e-06 0)
(2.78842e-07 -2.24325e-06 0)
(3.91896e-07 -2.22185e-06 0)
(5.06371e-07 -2.19414e-06 0)
(6.22507e-07 -2.16073e-06 0)
(7.40473e-07 -2.12239e-06 0)
(8.60232e-07 -2.07989e-06 0)
(9.81805e-07 -2.03391e-06 0)
(1.10494e-06 -1.98531e-06 0)
(5.33041e-08 -2.29782e-06 0)
(1.60153e-07 -2.29087e-06 0)
(2.6773e-07 -2.27714e-06 0)
(3.76501e-07 -2.25693e-06 0)
(4.86869e-07 -2.23071e-06 0)
(5.99113e-07 -2.19909e-06 0)
(7.13412e-07 -2.16274e-06 0)
(8.29859e-07 -2.12238e-06 0)
(9.48403e-07 -2.07865e-06 0)
(1.06898e-06 -2.03228e-06 0)
)


// ************************************************************************* //
