/*--------------------------------*- C++ -*----------------------------------*\
| =========                 |                                                 |
| \\      /  F ield         | foam-extend: Open Source CFD                    |
|  \\    /   O peration     | Version:     4.1                                |
|   \\  /    A nd           | Web:         http://www.foam-extend.org         |
|    \\/     M anipulation  |                                                 |
\*---------------------------------------------------------------------------*/
FoamFile
{
    version     2.0;
    format      ascii;
    class       vectorField;
    location    "4";
    object      solidsCellD_iteration6;
}
// * * * * * * * * * * * * * * * * * * * * * * * * * * * * * * * * * * * * * //


1000
(
(1.98567e-06 -7.87187e-07 0)
(1.88018e-06 -7.36006e-07 0)
(1.81395e-06 -7.05e-07 0)
(1.77717e-06 -6.92336e-07 0)
(1.76078e-06 -6.90302e-07 0)
(1.75935e-06 -6.96438e-07 0)
(1.76892e-06 -7.07967e-07 0)
(1.78669e-06 -7.23633e-07 0)
(1.81072e-06 -7.41998e-07 0)
(1.8382e-06 -7.62672e-07 0)
(1.79648e-06 -8.59966e-07 0)
(1.68403e-06 -8.25799e-07 0)
(1.61326e-06 -8.05659e-07 0)
(1.57308e-06 -8.00452e-07 0)
(1.55388e-06 -8.03427e-07 0)
(1.54973e-06 -8.13151e-07 0)
(1.55659e-06 -8.27266e-07 0)
(1.57148e-06 -8.44833e-07 0)
(1.59236e-06 -8.64663e-07 0)
(1.61675e-06 -8.86289e-07 0)
(1.59951e-06 -9.28912e-07 0)
(1.48454e-06 -9.13741e-07 0)
(1.41211e-06 -9.05654e-07 0)
(1.3703e-06 -9.08567e-07 0)
(1.34946e-06 -9.16867e-07 0)
(1.3434e-06 -9.30271e-07 0)
(1.34808e-06 -9.4694e-07 0)
(1.3606e-06 -9.66236e-07 0)
(1.37887e-06 -9.87354e-07 0)
(1.4007e-06 -1.00969e-06 0)
(1.39634e-06 -9.92808e-07 0)
(1.28373e-06 -9.97513e-07 0)
(1.21271e-06 -1.00201e-06 0)
(1.17118e-06 -1.01332e-06 0)
(1.14987e-06 -1.02711e-06 0)
(1.14269e-06 -1.04423e-06 0)
(1.14569e-06 -1.06339e-06 0)
(1.15613e-06 -1.08438e-06 0)
(1.172e-06 -1.10676e-06 0)
(1.19128e-06 -1.12991e-06 0)
(1.18839e-06 -1.05038e-06 0)
(1.08294e-06 -1.07475e-06 0)
(1.01635e-06 -1.09172e-06 0)
(9.77105e-07 -1.1113e-06 0)
(9.56597e-07 -1.13043e-06 0)
(9.49017e-07 -1.15116e-06 0)
(9.50772e-07 -1.17273e-06 0)
(9.59288e-07 -1.19537e-06 0)
(9.72828e-07 -1.21895e-06 0)
(9.89433e-07 -1.24299e-06 0)
(9.76643e-07 -1.10048e-06 0)
(8.83005e-07 -1.14321e-06 0)
(8.23883e-07 -1.17183e-06 0)
(7.88802e-07 -1.19914e-06 0)
(7.70204e-07 -1.22326e-06 0)
(7.62874e-07 -1.24736e-06 0)
(7.6379e-07 -1.27114e-06 0)
(7.7059e-07 -1.29531e-06 0)
(7.8178e-07 -1.32002e-06 0)
(7.95563e-07 -1.34497e-06 0)
(7.62179e-07 -1.14197e-06 0)
(6.84518e-07 -1.2008e-06 0)
(6.35474e-07 -1.23963e-06 0)
(6.06226e-07 -1.27369e-06 0)
(5.90562e-07 -1.30216e-06 0)
(5.84174e-07 -1.3292e-06 0)
(5.84572e-07 -1.35491e-06 0)
(5.8975e-07 -1.38047e-06 0)
(5.98513e-07 -1.40617e-06 0)
(6.09341e-07 -1.43197e-06 0)
(5.4575e-07 -1.17396e-06 0)
(4.87548e-07 -1.24571e-06 0)
(4.50812e-07 -1.29272e-06 0)
(4.28878e-07 -1.33218e-06 0)
(4.1704e-07 -1.36416e-06 0)
(4.12094e-07 -1.39356e-06 0)
(4.12183e-07 -1.42084e-06 0)
(4.15809e-07 -1.44751e-06 0)
(4.22102e-07 -1.474e-06 0)
(4.29882e-07 -1.50051e-06 0)
(3.28003e-07 -1.19569e-06 0)
(2.91985e-07 -1.27646e-06 0)
(2.69259e-07 -1.3292e-06 0)
(2.55613e-07 -1.37247e-06 0)
(2.48195e-07 -1.40691e-06 0)
(2.45067e-07 -1.43793e-06 0)
(2.4507e-07 -1.46633e-06 0)
(2.47225e-07 -1.49381e-06 0)
(2.50992e-07 -1.52091e-06 0)
(2.55669e-07 -1.54794e-06 0)
(1.09551e-07 -1.20664e-06 0)
(9.73345e-08 -1.29207e-06 0)
(8.95922e-08 -1.34776e-06 0)
(8.49675e-08 -1.39298e-06 0)
(8.24705e-08 -1.42867e-06 0)
(8.13752e-08 -1.46055e-06 0)
(8.13209e-08 -1.4895e-06 0)
(8.20292e-08 -1.51739e-06 0)
(8.3294e-08 -1.54477e-06 0)
(8.48465e-08 -1.57207e-06 0)
(3.08643e-06 -3.58863e-08 0)
(3.11321e-06 -2.59854e-08 0)
(3.13082e-06 -1.97789e-08 0)
(3.15043e-06 -1.62033e-08 0)
(3.17235e-06 -1.43012e-08 0)
(3.19909e-06 -1.35307e-08 0)
(3.23057e-06 -1.35077e-08 0)
(3.26696e-06 -1.39696e-08 0)
(3.3082e-06 -1.48238e-08 0)
(3.35375e-06 -1.58181e-08 0)
(3.0639e-06 -1.07672e-07 0)
(3.08625e-06 -7.85538e-08 0)
(3.10111e-06 -6.03339e-08 0)
(3.11885e-06 -4.99017e-08 0)
(3.13955e-06 -4.43877e-08 0)
(3.16537e-06 -4.21403e-08 0)
(3.19624e-06 -4.21517e-08 0)
(3.23213e-06 -4.36494e-08 0)
(3.27292e-06 -4.62019e-08 0)
(3.31803e-06 -4.9138e-08 0)
(3.01879e-06 -1.80054e-07 0)
(3.03275e-06 -1.33359e-07 0)
(3.04232e-06 -1.04174e-07 0)
(3.05655e-06 -8.74481e-08 0)
(3.07493e-06 -7.86957e-08 0)
(3.09913e-06 -7.52715e-08 0)
(3.12876e-06 -7.54363e-08 0)
(3.16366e-06 -7.7973e-08 0)
(3.20358e-06 -8.22031e-08 0)
(3.24782e-06 -8.71055e-08 0)
(2.95193e-06 -2.53368e-07 0)
(2.95399e-06 -1.91643e-07 0)
(2.95597e-06 -1.5316e-07 0)
(2.96523e-06 -1.3122e-07 0)
(2.98026e-06 -1.19809e-07 0)
(3.0021e-06 -1.15496e-07 0)
(3.03e-06 -1.15952e-07 0)
(3.06354e-06 -1.19616e-07 0)
(3.10226e-06 -1.25547e-07 0)
(3.14534e-06 -1.32418e-07 0)
(2.86428e-06 -3.27817e-07 0)
(2.85166e-06 -2.54487e-07 0)
(2.84428e-06 -2.0883e-07 0)
(2.84732e-06 -1.83034e-07 0)
(2.85823e-06 -1.69777e-07 0)
(2.87717e-06 -1.65053e-07 0)
(2.90291e-06 -1.66067e-07 0)
(2.93473e-06 -1.70967e-07 0)
(2.97195e-06 -1.78571e-07 0)
(3.01363e-06 -1.87359e-07 0)
(2.75714e-06 -4.03448e-07 0)
(2.72786e-06 -3.22594e-07 0)
(2.70993e-06 -2.7229e-07 0)
(2.70596e-06 -2.44239e-07 0)
(2.71221e-06 -2.30137e-07 0)
(2.72783e-06 -2.25587e-07 0)
(2.75114e-06 -2.27435e-07 0)
(2.78099e-06 -2.33645e-07 0)
(2.81652e-06 -2.42879e-07 0)
(2.85664e-06 -2.53538e-07 0)
(2.63204e-06 -4.80115e-07 0)
(2.58514e-06 -3.96255e-07 0)
(2.55606e-06 -3.44145e-07 0)
(2.54469e-06 -3.15623e-07 0)
(2.54599e-06 -3.01747e-07 0)
(2.55807e-06 -2.97994e-07 0)
(2.57877e-06 -3.00982e-07 0)
(2.6065e-06 -3.08608e-07 0)
(2.64018e-06 -3.1947e-07 0)
(2.67872e-06 -3.31936e-07 0)
(2.49058e-06 -5.57452e-07 0)
(2.4262e-06 -4.75297e-07 0)
(2.38605e-06 -4.24346e-07 0)
(2.36729e-06 -3.97196e-07 0)
(2.36363e-06 -3.84666e-07 0)
(2.37215e-06 -3.8238e-07 0)
(2.39014e-06 -3.86854e-07 0)
(2.4157e-06 -3.96048e-07 0)
(2.44747e-06 -4.08531e-07 0)
(2.48438e-06 -4.22737e-07 0)
(2.33451e-06 -6.34933e-07 0)
(2.25388e-06 -5.59069e-07 0)
(2.20347e-06 -5.12202e-07 0)
(2.17776e-06 -4.88256e-07 0)
(2.16938e-06 -4.78202e-07 0)
(2.17439e-06 -4.78061e-07 0)
(2.18964e-06 -4.84417e-07 0)
(2.21295e-06 -4.95326e-07 0)
(2.2426e-06 -5.0947e-07 0)
(2.27775e-06 -5.25196e-07 0)
(2.16565e-06 -7.11807e-07 0)
(2.07101e-06 -6.46457e-07 0)
(2.01171e-06 -6.06372e-07 0)
(1.97988e-06 -5.87365e-07 0)
(1.96721e-06 -5.80868e-07 0)
(1.96892e-06 -5.8356e-07 0)
(1.98155e-06 -5.92275e-07 0)
(2.00261e-06 -6.05342e-07 0)
(2.03032e-06 -6.21435e-07 0)
(2.0632e-06 -6.39473e-07 0)
(3.40357e-06 -1.6764e-08 0)
(3.45778e-06 -1.70747e-08 0)
(3.51532e-06 -1.73866e-08 0)
(3.57599e-06 -1.76243e-08 0)
(3.63941e-06 -1.77742e-08 0)
(3.7054e-06 -1.78351e-08 0)
(3.77366e-06 -1.77924e-08 0)
(3.84392e-06 -1.76671e-08 0)
(3.91598e-06 -1.74587e-08 0)
(3.98966e-06 -1.71387e-08 0)
(4.06474e-06 -1.66849e-08 0)
(4.14101e-06 -1.60956e-08 0)
(4.21828e-06 -1.53732e-08 0)
(4.29634e-06 -1.45148e-08 0)
(4.37502e-06 -1.35024e-08 0)
(4.45405e-06 -1.23071e-08 0)
(4.53332e-06 -1.08963e-08 0)
(4.61237e-06 -9.23922e-09 0)
(4.69126e-06 -7.3009e-09 0)
(4.76895e-06 -5.07693e-09 0)
(3.36941e-06 -5.18215e-08 0)
(3.42644e-06 -5.25544e-08 0)
(3.48651e-06 -5.3295e-08 0)
(3.5494e-06 -5.38415e-08 0)
(3.61483e-06 -5.41393e-08 0)
(3.68258e-06 -5.42118e-08 0)
(3.75243e-06 -5.40292e-08 0)
(3.82415e-06 -5.36008e-08 0)
(3.89755e-06 -5.28813e-08 0)
(3.97246e-06 -5.18228e-08 0)
(4.04867e-06 -5.04068e-08 0)
(4.12599e-06 -4.86316e-08 0)
(4.20426e-06 -4.64725e-08 0)
(4.28327e-06 -4.38871e-08 0)
(4.36284e-06 -4.08162e-08 0)
(4.4427e-06 -3.71988e-08 0)
(4.52276e-06 -3.29553e-08 0)
(4.60257e-06 -2.80034e-08 0)
(4.68222e-06 -2.22302e-08 0)
(4.76066e-06 -1.55934e-08 0)
(3.30223e-06 -9.10739e-08 0)
(3.36483e-06 -9.16038e-08 0)
(3.42992e-06 -9.21917e-08 0)
(3.49713e-06 -9.26149e-08 0)
(3.56645e-06 -9.27308e-08 0)
(3.63769e-06 -9.25685e-08 0)
(3.71072e-06 -9.20325e-08 0)
(3.7853e-06 -9.11068e-08 0)
(3.8613e-06 -8.97095e-08 0)
(3.93859e-06 -8.77955e-08 0)
(4.01702e-06 -8.53459e-08 0)
(4.09642e-06 -8.23357e-08 0)
(4.17663e-06 -7.86928e-08 0)
(4.25745e-06 -7.43317e-08 0)
(4.33873e-06 -6.91632e-08 0)
(4.42026e-06 -6.30971e-08 0)
(4.50193e-06 -5.60066e-08 0)
(4.5833e-06 -4.7767e-08 0)
(4.66446e-06 -3.81906e-08 0)
(4.74441e-06 -2.71827e-08 0)
(3.20408e-06 -1.36896e-07 0)
(3.27462e-06 -1.3622e-07 0)
(3.34693e-06 -1.35761e-07 0)
(3.42045e-06 -1.35402e-07 0)
(3.49549e-06 -1.34799e-07 0)
(3.57181e-06 -1.33977e-07 0)
(3.64943e-06 -1.32729e-07 0)
(3.72819e-06 -1.3102e-07 0)
(3.80806e-06 -1.28728e-07 0)
(3.88891e-06 -1.25804e-07 0)
(3.97063e-06 -1.22196e-07 0)
(4.05307e-06 -1.17832e-07 0)
(4.13612e-06 -1.12598e-07 0)
(4.2196e-06 -1.06389e-07 0)
(4.30341e-06 -9.9097e-08 0)
(4.38737e-06 -9.05776e-08 0)
(4.47137e-06 -8.06502e-08 0)
(4.55501e-06 -6.91394e-08 0)
(4.63839e-06 -5.57721e-08 0)
(4.72052e-06 -4.04308e-08 0)
(3.0778e-06 -1.91366e-07 0)
(3.15837e-06 -1.88229e-07 0)
(3.23991e-06 -1.85618e-07 0)
(3.32145e-06 -1.83639e-07 0)
(3.40376e-06 -1.81599e-07 0)
(3.48658e-06 -1.79523e-07 0)
(3.57016e-06 -1.77088e-07 0)
(3.65432e-06 -1.7423e-07 0)
(3.73915e-06 -1.70761e-07 0)
(3.82456e-06 -1.66589e-07 0)
(3.9105e-06 -1.6162e-07 0)
(3.99688e-06 -1.5574e-07 0)
(4.08361e-06 -1.48802e-07 0)
(4.17058e-06 -1.4067e-07 0)
(4.25772e-06 -1.31201e-07 0)
(4.3448e-06 -1.20199e-07 0)
(4.43183e-06 -1.07431e-07 0)
(4.51836e-06 -9.26712e-08 0)
(4.60462e-06 -7.55531e-08 0)
(4.68958e-06 -5.59334e-08 0)
(2.92698e-06 -2.55993e-07 0)
(3.01909e-06 -2.48951e-07 0)
(3.11143e-06 -2.4285e-07 0)
(3.20246e-06 -2.38207e-07 0)
(3.29348e-06 -2.33881e-07 0)
(3.38411e-06 -2.29877e-07 0)
(3.47478e-06 -2.25709e-07 0)
(3.56543e-06 -2.21234e-07 0)
(3.6562e-06 -2.16211e-07 0)
(3.74708e-06 -2.105e-07 0)
(3.8381e-06 -2.03953e-07 0)
(3.92923e-06 -1.964e-07 0)
(4.02041e-06 -1.87645e-07 0)
(4.11155e-06 -1.77518e-07 0)
(4.20265e-06 -1.65818e-07 0)
(4.2935e-06 -1.52306e-07 0)
(4.38416e-06 -1.36703e-07 0)
(4.4742e-06 -1.18733e-07 0)
(4.56392e-06 -9.79366e-08 0)
(4.65231e-06 -7.41098e-08 0)
(2.75573e-06 -3.31744e-07 0)
(2.8605e-06 -3.19285e-07 0)
(2.96485e-06 -3.08354e-07 0)
(3.0665e-06 -2.99934e-07 0)
(3.16724e-06 -2.92419e-07 0)
(3.2667e-06 -2.85708e-07 0)
(3.36539e-06 -2.79194e-07 0)
(3.46339e-06 -2.72601e-07 0)
(3.56094e-06 -2.65633e-07 0)
(3.6581e-06 -2.5807e-07 0)
(3.75495e-06 -2.49693e-07 0)
(3.85149e-06 -2.4026e-07 0)
(3.94774e-06 -2.29528e-07 0)
(4.04366e-06 -2.17287e-07 0)
(4.13929e-06 -2.03281e-07 0)
(4.23447e-06 -1.87232e-07 0)
(4.32932e-06 -1.6881e-07 0)
(4.42342e-06 -1.47668e-07 0)
(4.5171e-06 -1.23249e-07 0)
(4.60941e-06 -9.52885e-08 0)
(2.56817e-06 -4.18837e-07 0)
(2.68613e-06 -3.9932e-07 0)
(2.80317e-06 -3.82235e-07 0)
(2.91629e-06 -3.68785e-07 0)
(3.02759e-06 -3.57099e-07 0)
(3.1367e-06 -3.46838e-07 0)
(3.24426e-06 -3.37307e-07 0)
(3.35041e-06 -3.28073e-07 0)
(3.45545e-06 -3.18752e-07 0)
(3.55954e-06 -3.09017e-07 0)
(3.66281e-06 -2.98556e-07 0)
(3.76531e-06 -2.8706e-07 0)
(3.86713e-06 -2.74234e-07 0)
(3.96835e-06 -2.59818e-07 0)
(4.06899e-06 -2.43499e-07 0)
(4.16898e-06 -2.24948e-07 0)
(4.26845e-06 -2.03761e-07 0)
(4.36703e-06 -1.79518e-07 0)
(4.46508e-06 -1.51562e-07 0)
(4.56174e-06 -1.19569e-07 0)
(2.36852e-06 -5.17154e-07 0)
(2.50007e-06 -4.89106e-07 0)
(2.63007e-06 -4.64958e-07 0)
(2.75521e-06 -4.45365e-07 0)
(2.87755e-06 -4.28664e-07 0)
(2.99685e-06 -4.1409e-07 0)
(3.11377e-06 -4.00887e-07 0)
(3.22857e-06 -3.8845e-07 0)
(3.34159e-06 -3.76293e-07 0)
(3.45305e-06 -3.63974e-07 0)
(3.56316e-06 -3.51094e-07 0)
(3.67206e-06 -3.37276e-07 0)
(3.7799e-06 -3.22176e-07 0)
(3.88681e-06 -3.05467e-07 0)
(3.99284e-06 -2.86767e-07 0)
(4.098e-06 -2.65688e-07 0)
(4.20243e-06 -2.41741e-07 0)
(4.30582e-06 -2.14434e-07 0)
(4.40857e-06 -1.8302e-07 0)
(4.50995e-06 -1.47129e-07 0)
(2.16068e-06 -6.25365e-07 0)
(2.30667e-06 -5.86427e-07 0)
(2.44956e-06 -5.54313e-07 0)
(2.58723e-06 -5.27539e-07 0)
(2.72091e-06 -5.04928e-07 0)
(2.85082e-06 -4.85308e-07 0)
(2.97746e-06 -4.67834e-07 0)
(3.10124e-06 -4.51746e-07 0)
(3.22254e-06 -4.36419e-07 0)
(3.34166e-06 -4.21286e-07 0)
(3.45888e-06 -4.05849e-07 0)
(3.5744e-06 -3.89645e-07 0)
(3.68846e-06 -3.72257e-07 0)
(3.80123e-06 -3.53284e-07 0)
(3.91281e-06 -3.32272e-07 0)
(4.02326e-06 -3.08767e-07 0)
(4.13276e-06 -2.82203e-07 0)
(4.2411e-06 -2.52004e-07 0)
(4.3487e-06 -2.17343e-07 0)
(4.45501e-06 -1.77773e-07 0)
(2.00274e-06 -7.32379e-07 0)
(2.16023e-06 -6.83343e-07 0)
(2.31185e-06 -6.44666e-07 0)
(2.45795e-06 -6.11749e-07 0)
(2.59918e-06 -5.83665e-07 0)
(2.7361e-06 -5.59136e-07 0)
(2.86926e-06 -5.37244e-07 0)
(2.99908e-06 -5.17181e-07 0)
(3.12598e-06 -4.98248e-07 0)
(3.25029e-06 -4.79821e-07 0)
(3.37232e-06 -4.61347e-07 0)
(3.4923e-06 -4.42317e-07 0)
(3.61049e-06 -4.22262e-07 0)
(3.72712e-06 -4.00726e-07 0)
(3.84226e-06 -3.7721e-07 0)
(3.95609e-06 -3.51214e-07 0)
(4.06874e-06 -3.22138e-07 0)
(4.18018e-06 -2.89368e-07 0)
(4.2908e-06 -2.52059e-07 0)
(4.40024e-06 -2.09709e-07 0)
(1.91411e-06 -8.21024e-07 0)
(2.07265e-06 -7.69772e-07 0)
(2.22576e-06 -7.27066e-07 0)
(2.37422e-06 -6.90062e-07 0)
(2.51811e-06 -6.5789e-07 0)
(2.65781e-06 -6.29431e-07 0)
(2.79372e-06 -6.03781e-07 0)
(2.92621e-06 -5.80153e-07 0)
(3.05562e-06 -5.57847e-07 0)
(3.18226e-06 -5.3624e-07 0)
(3.30643e-06 -5.14769e-07 0)
(3.42836e-06 -4.92915e-07 0)
(3.54833e-06 -4.70191e-07 0)
(3.66653e-06 -4.4612e-07 0)
(3.78308e-06 -4.20198e-07 0)
(3.89819e-06 -3.91913e-07 0)
(4.01197e-06 -3.60677e-07 0)
(4.12453e-06 -3.25887e-07 0)
(4.2362e-06 -2.86734e-07 0)
(4.34679e-06 -2.42685e-07 0)
(1.84e-06 -9.0513e-07 0)
(1.99675e-06 -8.53047e-07 0)
(2.14963e-06 -8.08047e-07 0)
(2.29857e-06 -7.68093e-07 0)
(2.44356e-06 -7.32609e-07 0)
(2.58468e-06 -7.00718e-07 0)
(2.72222e-06 -6.71633e-07 0)
(2.85642e-06 -6.4464e-07 0)
(2.98753e-06 -6.19083e-07 0)
(3.11582e-06 -5.94363e-07 0)
(3.24157e-06 -5.6993e-07 0)
(3.36498e-06 -5.45263e-07 0)
(3.48632e-06 -5.19874e-07 0)
(3.60578e-06 -4.93279e-07 0)
(3.72346e-06 -4.6498e-07 0)
(3.83963e-06 -4.34465e-07 0)
(3.9544e-06 -4.01173e-07 0)
(4.06794e-06 -3.64526e-07 0)
(4.18056e-06 -3.23748e-07 0)
(4.2922e-06 -2.78302e-07 0)
(1.77527e-06 -9.86001e-07 0)
(1.92962e-06 -9.3365e-07 0)
(2.08117e-06 -8.87058e-07 0)
(2.22948e-06 -8.448e-07 0)
(2.37445e-06 -8.06556e-07 0)
(2.516e-06 -7.71669e-07 0)
(2.65428e-06 -7.39495e-07 0)
(2.7894e-06 -7.09408e-07 0)
(2.92155e-06 -6.8081e-07 0)
(3.05094e-06 -6.53143e-07 0)
(3.1778e-06 -6.25882e-07 0)
(3.30229e-06 -5.98519e-07 0)
(3.42467e-06 -5.70576e-07 0)
(3.54511e-06 -5.41574e-07 0)
(3.66373e-06 -5.11025e-07 0)
(3.7808e-06 -4.78435e-07 0)
(3.89643e-06 -4.43273e-07 0)
(4.01085e-06 -4.04993e-07 0)
(4.12433e-06 -3.62851e-07 0)
(4.23696e-06 -3.16366e-07 0)
(1.7185e-06 -1.06343e-06 0)
(1.87002e-06 -1.01123e-06 0)
(2.01954e-06 -9.63702e-07 0)
(2.16643e-06 -9.1979e-07 0)
(2.31057e-06 -8.79369e-07 0)
(2.45176e-06 -8.41979e-07 0)
(2.59004e-06 -8.07117e-07 0)
(2.72541e-06 -7.74258e-07 0)
(2.85801e-06 -7.42874e-07 0)
(2.988e-06 -7.12468e-07 0)
(3.11552e-06 -6.82546e-07 0)
(3.24072e-06 -6.52631e-07 0)
(3.36384e-06 -6.22264e-07 0)
(3.48501e-06 -5.90985e-07 0)
(3.60436e-06 -5.58322e-07 0)
(3.72218e-06 -5.23806e-07 0)
(3.83854e-06 -4.86938e-07 0)
(3.95374e-06 -4.47207e-07 0)
(4.06799e-06 -4.03926e-07 0)
(4.18153e-06 -3.56737e-07 0)
(1.66816e-06 -1.13761e-06 0)
(1.81663e-06 -1.08583e-06 0)
(1.96375e-06 -1.03779e-06 0)
(2.10871e-06 -9.92702e-07 0)
(2.25146e-06 -9.50577e-07 0)
(2.3917e-06 -9.1112e-07 0)
(2.5294e-06 -8.73956e-07 0)
(2.66449e-06 -8.38658e-07 0)
(2.79705e-06 -8.04778e-07 0)
(2.92719e-06 -7.7188e-07 0)
(3.055e-06 -7.39515e-07 0)
(3.18058e-06 -7.07238e-07 0)
(3.30415e-06 -6.74625e-07 0)
(3.42582e-06 -6.41236e-07 0)
(3.54572e-06 -6.06625e-07 0)
(3.66411e-06 -5.70356e-07 0)
(3.78109e-06 -5.31962e-07 0)
(3.89694e-06 -4.90973e-07 0)
(4.01189e-06 -4.46802e-07 0)
(4.12624e-06 -3.992e-07 0)
(1.62315e-06 -1.20873e-06 0)
(1.76848e-06 -1.15755e-06 0)
(1.91296e-06 -1.1093e-06 0)
(2.05567e-06 -1.06342e-06 0)
(2.19664e-06 -1.02e-06 0)
(2.3355e-06 -9.7888e-07 0)
(2.47218e-06 -9.39783e-07 0)
(2.60658e-06 -9.02381e-07 0)
(2.73871e-06 -8.66302e-07 0)
(2.86862e-06 -8.31176e-07 0)
(2.99638e-06 -7.96599e-07 0)
(3.12205e-06 -7.62171e-07 0)
(3.24583e-06 -7.27501e-07 0)
(3.36779e-06 -6.92179e-07 0)
(3.48806e-06 -6.55788e-07 0)
(3.60688e-06 -6.17932e-07 0)
(3.72433e-06 -5.78184e-07 0)
(3.84074e-06 -5.36132e-07 0)
(3.95631e-06 -4.91308e-07 0)
(4.07136e-06 -4.43476e-07 0)
(1.58251e-06 -1.27697e-06 0)
(1.72471e-06 -1.2265e-06 0)
(1.86641e-06 -1.17827e-06 0)
(2.0067e-06 -1.13189e-06 0)
(2.14562e-06 -1.08752e-06 0)
(2.2828e-06 -1.04507e-06 0)
(2.41816e-06 -1.00437e-06 0)
(2.55154e-06 -9.65171e-07 0)
(2.68291e-06 -9.27178e-07 0)
(2.8123e-06 -8.90087e-07 0)
(2.93973e-06 -8.53542e-07 0)
(3.06524e-06 -8.17184e-07 0)
(3.18901e-06 -7.80656e-07 0)
(3.31106e-06 -7.43589e-07 0)
(3.43154e-06 -7.05596e-07 0)
(3.55065e-06 -6.66326e-07 0)
(3.66847e-06 -6.25407e-07 0)
(3.78534e-06 -5.82493e-07 0)
(3.90144e-06 -5.3721e-07 0)
(4.01708e-06 -4.89268e-07 0)
(1.54538e-06 -1.34255e-06 0)
(1.68449e-06 -1.29285e-06 0)
(1.82338e-06 -1.24481e-06 0)
(1.96116e-06 -1.19815e-06 0)
(2.09789e-06 -1.15309e-06 0)
(2.23321e-06 -1.10958e-06 0)
(2.36702e-06 -1.06757e-06 0)
(2.49913e-06 -1.02686e-06 0)
(2.6295e-06 -9.8723e-07 0)
(2.75813e-06 -9.48432e-07 0)
(2.88502e-06 -9.1016e-07 0)
(3.01017e-06 -8.72098e-07 0)
(3.13374e-06 -8.33921e-07 0)
(3.25573e-06 -7.95299e-07 0)
(3.37627e-06 -7.5589e-07 0)
(3.49556e-06 -7.1539e-07 0)
(3.61366e-06 -6.73491e-07 0)
(3.73091e-06 -6.29898e-07 0)
(3.84742e-06 -5.84276e-07 0)
(3.96356e-06 -5.36376e-07 0)
(1.511e-06 -1.40568e-06 0)
(1.64711e-06 -1.35678e-06 0)
(1.78321e-06 -1.30903e-06 0)
(1.91846e-06 -1.26225e-06 0)
(2.05293e-06 -1.21669e-06 0)
(2.18627e-06 -1.17238e-06 0)
(2.31839e-06 -1.1293e-06 0)
(2.44908e-06 -1.08735e-06 0)
(2.57829e-06 -1.04634e-06 0)
(2.706e-06 -1.00608e-06 0)
(2.83218e-06 -9.66318e-07 0)
(2.95681e-06 -9.26774e-07 0)
(3.08004e-06 -8.87156e-07 0)
(3.20184e-06 -8.47177e-07 0)
(3.32233e-06 -8.06543e-07 0)
(3.44169e-06 -7.65002e-07 0)
(3.55999e-06 -7.22297e-07 0)
(3.67751e-06 -6.78166e-07 0)
(3.79435e-06 -6.32296e-07 0)
(3.9109e-06 -5.84608e-07 0)
(1.47873e-06 -1.46659e-06 0)
(1.61194e-06 -1.4185e-06 0)
(1.7453e-06 -1.37108e-06 0)
(1.87805e-06 -1.32428e-06 0)
(2.01025e-06 -1.2784e-06 0)
(2.14158e-06 -1.23347e-06 0)
(2.27194e-06 -1.18956e-06 0)
(2.40112e-06 -1.1466e-06 0)
(2.52906e-06 -1.10445e-06 0)
(2.65573e-06 -1.06297e-06 0)
(2.78107e-06 -1.02194e-06 0)
(2.90508e-06 -9.81113e-07 0)
(3.02785e-06 -9.40251e-07 0)
(3.14935e-06 -8.99106e-07 0)
(3.26971e-06 -8.57431e-07 0)
(3.38907e-06 -8.15021e-07 0)
(3.50748e-06 -7.71651e-07 0)
(3.62518e-06 -7.27081e-07 0)
(3.74229e-06 -6.8109e-07 0)
(3.85915e-06 -6.3369e-07 0)
(1.44798e-06 -1.52549e-06 0)
(1.57841e-06 -1.47814e-06 0)
(1.70912e-06 -1.43109e-06 0)
(1.83943e-06 -1.38437e-06 0)
(1.96939e-06 -1.33829e-06 0)
(2.09871e-06 -1.29293e-06 0)
(2.22729e-06 -1.24838e-06 0)
(2.35492e-06 -1.20462e-06 0)
(2.48153e-06 -1.16154e-06 0)
(2.6071e-06 -1.11903e-06 0)
(2.73155e-06 -1.07692e-06 0)
(2.85485e-06 -1.03501e-06 0)
(2.97709e-06 -9.93094e-07 0)
(3.09825e-06 -9.50973e-07 0)
(3.2184e-06 -9.08442e-07 0)
(3.3377e-06 -8.65319e-07 0)
(3.45613e-06 -8.21402e-07 0)
(3.57395e-06 -7.76494e-07 0)
(3.69126e-06 -7.30525e-07 0)
(3.80836e-06 -6.83406e-07 0)
(1.41826e-06 -1.58252e-06 0)
(1.54602e-06 -1.53587e-06 0)
(1.67419e-06 -1.48921e-06 0)
(1.80214e-06 -1.44265e-06 0)
(1.92993e-06 -1.39648e-06 0)
(2.05728e-06 -1.35082e-06 0)
(2.18409e-06 -1.30579e-06 0)
(2.31017e-06 -1.26138e-06 0)
(2.43546e-06 -1.21756e-06 0)
(2.55991e-06 -1.17422e-06 0)
(2.68343e-06 -1.13124e-06 0)
(2.80598e-06 -1.08844e-06 0)
(2.92767e-06 -1.04567e-06 0)
(3.04843e-06 -1.00275e-06 0)
(3.16834e-06 -9.59521e-07 0)
(3.2875e-06 -9.15809e-07 0)
(3.4059e-06 -8.71451e-07 0)
(3.52379e-06 -8.26327e-07 0)
(3.64122e-06 -7.80437e-07 0)
(3.7585e-06 -7.33641e-07 0)
(1.38909e-06 -1.63785e-06 0)
(1.51432e-06 -1.59186e-06 0)
(1.64006e-06 -1.54559e-06 0)
(1.76575e-06 -1.49922e-06 0)
(1.89144e-06 -1.45304e-06 0)
(2.01688e-06 -1.40719e-06 0)
(2.142e-06 -1.36183e-06 0)
(2.26659e-06 -1.31696e-06 0)
(2.39058e-06 -1.27258e-06 0)
(2.51391e-06 -1.22859e-06 0)
(2.6365e-06 -1.1849e-06 0)
(2.75831e-06 -1.14139e-06 0)
(2.87943e-06 -1.09792e-06 0)
(2.99978e-06 -1.05436e-06 0)
(3.1194e-06 -1.01055e-06 0)
(3.23839e-06 -9.66358e-07 0)
(3.35672e-06 -9.21668e-07 0)
(3.47464e-06 -8.76443e-07 0)
(3.59214e-06 -8.30603e-07 0)
(3.70953e-06 -7.84181e-07 0)
(1.36e-06 -1.69165e-06 0)
(1.48284e-06 -1.64626e-06 0)
(1.60626e-06 -1.60039e-06 0)
(1.7298e-06 -1.55423e-06 0)
(1.8535e-06 -1.50812e-06 0)
(1.97715e-06 -1.4622e-06 0)
(2.10066e-06 -1.41664e-06 0)
(2.22383e-06 -1.37144e-06 0)
(2.34658e-06 -1.32661e-06 0)
(2.46885e-06 -1.28211e-06 0)
(2.59056e-06 -1.23789e-06 0)
(2.71167e-06 -1.19385e-06 0)
(2.83224e-06 -1.14984e-06 0)
(2.95218e-06 -1.10578e-06 0)
(3.07148e-06 -1.06151e-06 0)
(3.19027e-06 -1.01694e-06 0)
(3.30852e-06 -9.72034e-07 0)
(3.42643e-06 -9.26748e-07 0)
(3.54399e-06 -8.80992e-07 0)
(3.66143e-06 -8.34891e-07 0)
(1.33053e-06 -1.74406e-06 0)
(1.45109e-06 -1.69925e-06 0)
(1.5723e-06 -1.6537e-06 0)
(1.69385e-06 -1.60781e-06 0)
(1.81572e-06 -1.56184e-06 0)
(1.93773e-06 -1.51594e-06 0)
(2.05975e-06 -1.47025e-06 0)
(2.1816e-06 -1.42485e-06 0)
(2.30319e-06 -1.37974e-06 0)
(2.4245e-06 -1.33489e-06 0)
(2.54541e-06 -1.29029e-06 0)
(2.66588e-06 -1.24583e-06 0)
(2.78592e-06 -1.20142e-06 0)
(2.90542e-06 -1.15696e-06 0)
(3.02443e-06 -1.11234e-06 0)
(3.14304e-06 -1.06752e-06 0)
(3.26121e-06 -1.02247e-06 0)
(3.37908e-06 -9.7709e-07 0)
(3.49662e-06 -9.31464e-07 0)
(3.61407e-06 -8.85663e-07 0)
(1.30019e-06 -1.79522e-06 0)
(1.41852e-06 -1.75083e-06 0)
(1.53765e-06 -1.70571e-06 0)
(1.65746e-06 -1.66016e-06 0)
(1.77768e-06 -1.61437e-06 0)
(1.89822e-06 -1.56854e-06 0)
(2.0189e-06 -1.52284e-06 0)
(2.13958e-06 -1.47733e-06 0)
(2.26017e-06 -1.43205e-06 0)
(2.38064e-06 -1.38699e-06 0)
(2.50085e-06 -1.34213e-06 0)
(2.62072e-06 -1.29738e-06 0)
(2.74026e-06 -1.25265e-06 0)
(2.85939e-06 -1.2079e-06 0)
(2.97815e-06 -1.16306e-06 0)
(3.09662e-06 -1.11806e-06 0)
(3.21467e-06 -1.07287e-06 0)
(3.33244e-06 -1.02743e-06 0)
(3.44994e-06 -9.81943e-07 0)
(3.56747e-06 -9.36407e-07 0)
(1.26826e-06 -1.84509e-06 0)
(1.3847e-06 -1.80121e-06 0)
(1.50213e-06 -1.75659e-06 0)
(1.62028e-06 -1.71135e-06 0)
(1.73905e-06 -1.66582e-06 0)
(1.85827e-06 -1.62014e-06 0)
(1.97782e-06 -1.5745e-06 0)
(2.09752e-06 -1.529e-06 0)
(2.2173e-06 -1.48367e-06 0)
(2.33707e-06 -1.43849e-06 0)
(2.45667e-06 -1.39345e-06 0)
(2.576e-06 -1.34851e-06 0)
(2.69515e-06 -1.30361e-06 0)
(2.81402e-06 -1.25867e-06 0)
(2.93257e-06 -1.21364e-06 0)
(3.0508e-06 -1.16851e-06 0)
(3.16869e-06 -1.12319e-06 0)
(3.28648e-06 -1.07778e-06 0)
(3.40399e-06 -1.03237e-06 0)
(3.52137e-06 -9.87053e-07 0)
(1.23432e-06 -1.89419e-06 0)
(1.34904e-06 -1.85085e-06 0)
(1.46494e-06 -1.80659e-06 0)
(1.58172e-06 -1.76171e-06 0)
(1.69928e-06 -1.71644e-06 0)
(1.81747e-06 -1.67098e-06 0)
(1.93616e-06 -1.6255e-06 0)
(2.05518e-06 -1.58006e-06 0)
(2.17433e-06 -1.53472e-06 0)
(2.29353e-06 -1.48949e-06 0)
(2.41265e-06 -1.44438e-06 0)
(2.53169e-06 -1.39934e-06 0)
(2.65057e-06 -1.35429e-06 0)
(2.76912e-06 -1.30924e-06 0)
(2.88742e-06 -1.26408e-06 0)
(3.00557e-06 -1.21881e-06 0)
(3.12339e-06 -1.17344e-06 0)
(3.24106e-06 -1.12802e-06 0)
(3.35857e-06 -1.08264e-06 0)
(3.47592e-06 -1.03749e-06 0)
(1.19793e-06 -1.9421e-06 0)
(1.31115e-06 -1.89939e-06 0)
(1.42574e-06 -1.85567e-06 0)
(1.54144e-06 -1.81123e-06 0)
(1.65813e-06 -1.76633e-06 0)
(1.77567e-06 -1.72117e-06 0)
(1.89381e-06 -1.67589e-06 0)
(2.01231e-06 -1.63059e-06 0)
(2.13105e-06 -1.58533e-06 0)
(2.24999e-06 -1.54011e-06 0)
(2.36891e-06 -1.49499e-06 0)
(2.48764e-06 -1.4499e-06 0)
(2.60627e-06 -1.40477e-06 0)
(2.72469e-06 -1.3596e-06 0)
(2.84282e-06 -1.31439e-06 0)
(2.96079e-06 -1.26903e-06 0)
(3.07856e-06 -1.22363e-06 0)
(3.19615e-06 -1.17813e-06 0)
(3.31367e-06 -1.13274e-06 0)
(3.43094e-06 -1.08761e-06 0)
(8.47588e-08 -1.59985e-06 0)
(2.55276e-07 -1.57689e-06 0)
(4.2873e-07 -1.53169e-06 0)
(6.06763e-07 -1.46632e-06 0)
(7.90677e-07 -1.38311e-06 0)
(9.81275e-07 -1.28529e-06 0)
(1.17883e-06 -1.17638e-06 0)
(1.383e-06 -1.06006e-06 0)
(1.59341e-06 -9.39984e-07 0)
(1.80804e-06 -8.18925e-07 0)
(8.27104e-08 -1.62887e-06 0)
(2.48965e-07 -1.60793e-06 0)
(4.17604e-07 -1.56664e-06 0)
(5.89986e-07 -1.50682e-06 0)
(7.6717e-07 -1.4304e-06 0)
(9.49806e-07 -1.34013e-06 0)
(1.1381e-06 -1.23902e-06 0)
(1.33164e-06 -1.13027e-06 0)
(1.52968e-06 -1.0172e-06 0)
(1.73041e-06 -9.02675e-07 0)
(8.08165e-08 -1.65872e-06 0)
(2.4313e-07 -1.63963e-06 0)
(4.07324e-07 -1.60185e-06 0)
(5.74472e-07 -1.54706e-06 0)
(7.45445e-07 -1.47691e-06 0)
(9.20745e-07 -1.39375e-06 0)
(1.10057e-06 -1.30018e-06 0)
(1.28476e-06 -1.19889e-06 0)
(1.47269e-06 -1.09285e-06 0)
(1.66319e-06 -9.84172e-07 0)
(7.90885e-08 -1.68934e-06 0)
(2.37838e-07 -1.67179e-06 0)
(3.98131e-07 -1.63699e-06 0)
(5.60784e-07 -1.58648e-06 0)
(7.26542e-07 -1.52168e-06 0)
(8.95752e-07 -1.44462e-06 0)
(1.06855e-06 -1.35769e-06 0)
(1.24477e-06 -1.26324e-06 0)
(1.42382e-06 -1.16408e-06 0)
(1.60476e-06 -1.06197e-06 0)
(7.74985e-08 -1.72069e-06 0)
(2.32901e-07 -1.70452e-06 0)
(3.89594e-07 -1.67239e-06 0)
(5.48164e-07 -1.6257e-06 0)
(7.09237e-07 -1.56575e-06 0)
(8.73075e-07 -1.4943e-06 0)
(1.03978e-06 -1.41352e-06 0)
(1.20923e-06 -1.32541e-06 0)
(1.38091e-06 -1.23257e-06 0)
(1.55375e-06 -1.13655e-06 0)
(7.60089e-08 -1.75272e-06 0)
(2.28306e-07 -1.73772e-06 0)
(3.81678e-07 -1.70795e-06 0)
(5.36569e-07 -1.6646e-06 0)
(6.93487e-07 -1.6089e-06 0)
(8.52651e-07 -1.54244e-06 0)
(1.01406e-06 -1.46717e-06 0)
(1.17759e-06 -1.38489e-06 0)
(1.34287e-06 -1.29797e-06 0)
(1.5087e-06 -1.20791e-06 0)
(7.45546e-08 -1.78537e-06 0)
(2.23918e-07 -1.77142e-06 0)
(3.74151e-07 -1.74376e-06 0)
(5.25644e-07 -1.7034e-06 0)
(6.7878e-07 -1.65153e-06 0)
(8.33757e-07 -1.58957e-06 0)
(9.90557e-07 -1.51929e-06 0)
(1.14894e-06 -1.44233e-06 0)
(1.30874e-06 -1.36079e-06 0)
(1.46857e-06 -1.27625e-06 0)
(7.31652e-08 -1.81858e-06 0)
(2.197e-07 -1.80555e-06 0)
(3.66945e-07 -1.77977e-06 0)
(5.15266e-07 -1.74207e-06 0)
(6.64953e-07 -1.69362e-06 0)
(8.16133e-07 -1.6357e-06 0)
(9.68814e-07 -1.56994e-06 0)
(1.12268e-06 -1.49783e-06 0)
(1.27768e-06 -1.42124e-06 0)
(1.43238e-06 -1.34178e-06 0)
(7.18325e-08 -1.85228e-06 0)
(2.15588e-07 -1.84008e-06 0)
(3.59955e-07 -1.81599e-06 0)
(5.05259e-07 -1.78069e-06 0)
(6.51722e-07 -1.73534e-06 0)
(7.99443e-07 -1.68106e-06 0)
(9.48402e-07 -1.61938e-06 0)
(1.09826e-06 -1.55168e-06 0)
(1.24904e-06 -1.4796e-06 0)
(1.39932e-06 -1.40479e-06 0)
(7.04994e-08 -1.88643e-06 0)
(2.11522e-07 -1.87495e-06 0)
(3.53101e-07 -1.85237e-06 0)
(4.95514e-07 -1.81925e-06 0)
(6.38912e-07 -1.7767e-06 0)
(7.83419e-07 -1.72572e-06 0)
(9.28968e-07 -1.66773e-06 0)
(1.0752e-06 -1.60404e-06 0)
(1.22222e-06 -1.53609e-06 0)
(1.36865e-06 -1.46553e-06 0)
(6.91363e-08 -1.92095e-06 0)
(2.07471e-07 -1.91011e-06 0)
(3.46302e-07 -1.88891e-06 0)
(4.85895e-07 -1.85778e-06 0)
(6.26347e-07 -1.81775e-06 0)
(7.67802e-07 -1.76977e-06 0)
(9.10182e-07 -1.71514e-06 0)
(1.05312e-06 -1.65509e-06 0)
(1.19673e-06 -1.59092e-06 0)
(1.33977e-06 -1.5242e-06 0)
(6.77627e-08 -1.95573e-06 0)
(2.0342e-07 -1.94549e-06 0)
(3.39499e-07 -1.92555e-06 0)
(4.7629e-07 -1.89623e-06 0)
(6.13878e-07 -1.85851e-06 0)
(7.52387e-07 -1.81326e-06 0)
(8.91768e-07 -1.76168e-06 0)
(1.03166e-06 -1.70497e-06 0)
(1.17215e-06 -1.64422e-06 0)
(1.31216e-06 -1.581e-06 0)
(6.63872e-08 -1.99072e-06 0)
(1.99314e-07 -1.98105e-06 0)
(3.32605e-07 -1.96226e-06 0)
(4.66575e-07 -1.93459e-06 0)
(6.01337e-07 -1.89897e-06 0)
(7.36967e-07 -1.85622e-06 0)
(8.73463e-07 -1.80745e-06 0)
(1.01047e-06 -1.75375e-06 0)
(1.14808e-06 -1.69613e-06 0)
(1.28535e-06 -1.6361e-06 0)
(6.49807e-08 -2.02583e-06 0)
(1.9507e-07 -2.0167e-06 0)
(3.25512e-07 -1.99894e-06 0)
(4.56622e-07 -1.9728e-06 0)
(5.88546e-07 -1.93911e-06 0)
(7.2133e-07 -1.89865e-06 0)
(8.55004e-07 -1.85246e-06 0)
(9.89254e-07 -1.80152e-06 0)
(1.12416e-06 -1.7468e-06 0)
(1.2589e-06 -1.68969e-06 0)
(6.35007e-08 -2.06101e-06 0)
(1.90615e-07 -2.05238e-06 0)
(3.18119e-07 -2.03556e-06 0)
(4.46296e-07 -2.01083e-06 0)
(5.75322e-07 -1.97893e-06 0)
(7.05242e-07 -1.94061e-06 0)
(8.36109e-07 -1.89677e-06 0)
(9.67675e-07 -1.84837e-06 0)
(1.09999e-06 -1.79633e-06 0)
(1.23235e-06 -1.74188e-06 0)
(6.19251e-08 -2.0961e-06 0)
(1.85908e-07 -2.08793e-06 0)
(3.10341e-07 -2.072e-06 0)
(4.35461e-07 -2.04859e-06 0)
(5.61479e-07 -2.01834e-06 0)
(6.88471e-07 -1.98198e-06 0)
(8.16515e-07 -1.94032e-06 0)
(9.4543e-07 -1.89431e-06 0)
(1.0752e-06 -1.84477e-06 0)
(1.20527e-06 -1.79277e-06 0)
(6.02485e-08 -2.13105e-06 0)
(1.80909e-07 -2.12333e-06 0)
(3.02072e-07 -2.10823e-06 0)
(4.23958e-07 -2.08605e-06 0)
(5.46818e-07 -2.05736e-06 0)
(6.70771e-07 -2.02284e-06 0)
(7.95925e-07 -1.98326e-06 0)
(9.22133e-07 -1.93951e-06 0)
(1.04937e-06 -1.89225e-06 0)
(1.17715e-06 -1.84256e-06 0)
(5.8458e-08 -2.16556e-06 0)
(1.75553e-07 -2.15827e-06 0)
(2.93191e-07 -2.14395e-06 0)
(4.1162e-07 -2.12294e-06 0)
(5.31131e-07 -2.09573e-06 0)
(6.51887e-07 -2.06296e-06 0)
(7.74014e-07 -2.02536e-06 0)
(8.97392e-07 -1.98373e-06 0)
(1.022e-06 -1.93866e-06 0)
(1.1475e-06 -1.89114e-06 0)
(5.65164e-08 -2.19976e-06 0)
(1.69725e-07 -2.19289e-06 0)
(2.83519e-07 -2.17934e-06 0)
(3.98204e-07 -2.15944e-06 0)
(5.141e-07 -2.13367e-06 0)
(6.31427e-07 -2.1026e-06 0)
(7.50319e-07 -2.06692e-06 0)
(8.70701e-07 -2.0273e-06 0)
(9.92549e-07 -1.98437e-06 0)
(1.11569e-06 -1.93892e-06 0)
(5.43994e-08 -2.23285e-06 0)
(1.63375e-07 -2.22636e-06 0)
(2.72977e-07 -2.21357e-06 0)
(3.83599e-07 -2.19478e-06 0)
(4.95602e-07 -2.17041e-06 0)
(6.09225e-07 -2.14104e-06 0)
(7.24607e-07 -2.10724e-06 0)
(8.41763e-07 -2.06962e-06 0)
(9.60702e-07 -2.02881e-06 0)
(1.0814e-06 -1.98545e-06 0)
)


// ************************************************************************* //
