/*--------------------------------*- C++ -*----------------------------------*\
| =========                 |                                                 |
| \\      /  F ield         | foam-extend: Open Source CFD                    |
|  \\    /   O peration     | Version:     4.1                                |
|   \\  /    A nd           | Web:         http://www.foam-extend.org         |
|    \\/     M anipulation  |                                                 |
\*---------------------------------------------------------------------------*/
FoamFile
{
    version     2.0;
    format      ascii;
    class       vectorField;
    location    "4";
    object      solidsCellD_iteration10;
}
// * * * * * * * * * * * * * * * * * * * * * * * * * * * * * * * * * * * * * //


1000
(
(2.02531e-06 -8.24765e-07 0)
(1.91441e-06 -7.69486e-07 0)
(1.84429e-06 -7.35274e-07 0)
(1.80468e-06 -7.20405e-07 0)
(1.78619e-06 -7.16709e-07 0)
(1.78318e-06 -7.21603e-07 0)
(1.79156e-06 -7.32133e-07 0)
(1.8084e-06 -7.46942e-07 0)
(1.83186e-06 -7.64532e-07 0)
(1.85946e-06 -7.84143e-07 0)
(1.83175e-06 -9.01069e-07 0)
(1.71368e-06 -8.6348e-07 0)
(1.63894e-06 -8.405e-07 0)
(1.59588e-06 -8.33307e-07 0)
(1.57459e-06 -8.34744e-07 0)
(1.56898e-06 -8.43268e-07 0)
(1.57482e-06 -8.56379e-07 0)
(1.58903e-06 -8.73116e-07 0)
(1.6096e-06 -8.92201e-07 0)
(1.63411e-06 -9.12951e-07 0)
(1.63048e-06 -9.73346e-07 0)
(1.50984e-06 -9.55527e-07 0)
(1.43341e-06 -9.45095e-07 0)
(1.38879e-06 -9.46311e-07 0)
(1.36597e-06 -9.53258e-07 0)
(1.35857e-06 -9.65575e-07 0)
(1.36239e-06 -9.81328e-07 0)
(1.37438e-06 -9.99906e-07 0)
(1.39246e-06 -1.0204e-06 0)
(1.41443e-06 -1.04204e-06 0)
(1.42298e-06 -1.04034e-06 0)
(1.30491e-06 -1.04322e-06 0)
(1.23003e-06 -1.04593e-06 0)
(1.18585e-06 -1.05587e-06 0)
(1.16273e-06 -1.06851e-06 0)
(1.15435e-06 -1.0847e-06 0)
(1.15658e-06 -1.10307e-06 0)
(1.16658e-06 -1.12345e-06 0)
(1.1823e-06 -1.1453e-06 0)
(1.20171e-06 -1.16793e-06 0)
(1.21081e-06 -1.10072e-06 0)
(1.10025e-06 -1.1241e-06 0)
(1.0301e-06 -1.1398e-06 0)
(9.88462e-07 -1.15835e-06 0)
(9.66327e-07 -1.17657e-06 0)
(9.57666e-07 -1.19654e-06 0)
(9.58746e-07 -1.21745e-06 0)
(9.6692e-07 -1.2396e-06 0)
(9.80353e-07 -1.26277e-06 0)
(9.97067e-07 -1.28644e-06 0)
(9.94826e-07 -1.15329e-06 0)
(8.96741e-07 -1.19581e-06 0)
(8.34512e-07 -1.22367e-06 0)
(7.97325e-07 -1.25029e-06 0)
(7.773e-07 -1.27372e-06 0)
(7.69057e-07 -1.29721e-06 0)
(7.6942e-07 -1.32046e-06 0)
(7.75948e-07 -1.34424e-06 0)
(7.87053e-07 -1.36863e-06 0)
(8.00908e-07 -1.39334e-06 0)
(7.76247e-07 -1.19682e-06 0)
(6.94911e-07 -1.25614e-06 0)
(6.43306e-07 -1.29468e-06 0)
(6.12326e-07 -1.32836e-06 0)
(5.95516e-07 -1.35633e-06 0)
(5.88401e-07 -1.38289e-06 0)
(5.88363e-07 -1.40817e-06 0)
(5.93323e-07 -1.43341e-06 0)
(6.02012e-07 -1.45888e-06 0)
(6.12882e-07 -1.48453e-06 0)
(5.55764e-07 -1.23041e-06 0)
(4.94803e-07 -1.30322e-06 0)
(4.56159e-07 -1.3503e-06 0)
(4.32932e-07 -1.3896e-06 0)
(4.2027e-07 -1.42124e-06 0)
(4.148e-07 -1.45028e-06 0)
(4.14565e-07 -1.47723e-06 0)
(4.18016e-07 -1.50365e-06 0)
(4.24244e-07 -1.52998e-06 0)
(4.32052e-07 -1.55642e-06 0)
(3.33989e-07 -1.25324e-06 0)
(2.96254e-07 -1.33546e-06 0)
(2.72369e-07 -1.38849e-06 0)
(2.57944e-07 -1.43179e-06 0)
(2.50018e-07 -1.466e-06 0)
(2.46545e-07 -1.49673e-06 0)
(2.46344e-07 -1.52486e-06 0)
(2.48412e-07 -1.55214e-06 0)
(2.5215e-07 -1.57911e-06 0)
(2.56839e-07 -1.60611e-06 0)
(1.11545e-07 -1.26474e-06 0)
(9.8772e-08 -1.35184e-06 0)
(9.06188e-08 -1.40794e-06 0)
(8.57102e-08 -1.45327e-06 0)
(8.30534e-08 -1.4888e-06 0)
(8.18555e-08 -1.52044e-06 0)
(8.17208e-08 -1.54915e-06 0)
(8.23909e-08 -1.57685e-06 0)
(8.36531e-08 -1.60414e-06 0)
(8.52139e-08 -1.63146e-06 0)
(3.15432e-06 -3.75813e-08 0)
(3.18197e-06 -2.71224e-08 0)
(3.19947e-06 -2.05356e-08 0)
(3.21871e-06 -1.67016e-08 0)
(3.24006e-06 -1.46165e-08 0)
(3.26618e-06 -1.3735e-08 0)
(3.29707e-06 -1.36613e-08 0)
(3.33294e-06 -1.40607e-08 0)
(3.37375e-06 -1.48899e-08 0)
(3.41895e-06 -1.58942e-08 0)
(3.1311e-06 -1.12785e-07 0)
(3.15416e-06 -8.20164e-08 0)
(3.1688e-06 -6.26361e-08 0)
(3.18607e-06 -5.14614e-08 0)
(3.20613e-06 -4.54704e-08 0)
(3.23129e-06 -4.28585e-08 0)
(3.26154e-06 -4.26657e-08 0)
(3.29689e-06 -4.40485e-08 0)
(3.33722e-06 -4.65603e-08 0)
(3.38194e-06 -4.94736e-08 0)
(3.08474e-06 -1.88586e-07 0)
(3.09902e-06 -1.39246e-07 0)
(3.10811e-06 -1.08203e-07 0)
(3.1217e-06 -9.02226e-08 0)
(3.13933e-06 -8.06694e-08 0)
(3.16279e-06 -7.67053e-08 0)
(3.19172e-06 -7.6565e-08 0)
(3.22606e-06 -7.89076e-08 0)
(3.26547e-06 -8.30459e-08 0)
(3.30928e-06 -8.79059e-08 0)
(3.01606e-06 -2.65397e-07 0)
(3.01783e-06 -2.00125e-07 0)
(3.01898e-06 -1.59172e-07 0)
(3.02735e-06 -1.35576e-07 0)
(3.04147e-06 -1.23083e-07 0)
(3.0625e-06 -1.18033e-07 0)
(3.08963e-06 -1.18047e-07 0)
(3.12254e-06 -1.21433e-07 0)
(3.16068e-06 -1.27211e-07 0)
(3.20322e-06 -1.34025e-07 0)
(2.92604e-06 -3.43387e-07 0)
(2.91241e-06 -2.65777e-07 0)
(2.90375e-06 -2.17136e-07 0)
(2.90561e-06 -1.8935e-07 0)
(2.91542e-06 -1.74788e-07 0)
(2.93342e-06 -1.69166e-07 0)
(2.95828e-06 -1.69612e-07 0)
(2.98938e-06 -1.74154e-07 0)
(3.02595e-06 -1.81538e-07 0)
(3.067e-06 -1.90241e-07 0)
(2.81601e-06 -4.22629e-07 0)
(2.78493e-06 -3.36966e-07 0)
(2.76523e-06 -2.83295e-07 0)
(2.75977e-06 -2.5299e-07 0)
(2.76468e-06 -2.37406e-07 0)
(2.7792e-06 -2.31831e-07 0)
(2.80152e-06 -2.33009e-07 0)
(2.83056e-06 -2.38786e-07 0)
(2.86533e-06 -2.4774e-07 0)
(2.90468e-06 -2.58279e-07 0)
(2.68762e-06 -5.02978e-07 0)
(2.63807e-06 -4.14002e-07 0)
(2.60668e-06 -3.5828e-07 0)
(2.59348e-06 -3.27323e-07 0)
(2.59321e-06 -3.11822e-07 0)
(2.60404e-06 -3.06953e-07 0)
(2.62364e-06 -3.09199e-07 0)
(2.65047e-06 -3.16307e-07 0)
(2.68328e-06 -3.26808e-07 0)
(2.72085e-06 -3.39086e-07 0)
(2.54248e-06 -5.84021e-07 0)
(2.47464e-06 -4.96687e-07 0)
(2.43169e-06 -4.42022e-07 0)
(2.41077e-06 -4.12362e-07 0)
(2.40535e-06 -3.98117e-07 0)
(2.41246e-06 -3.94662e-07 0)
(2.42924e-06 -3.98353e-07 0)
(2.45378e-06 -4.06967e-07 0)
(2.48456e-06 -4.19017e-07 0)
(2.52025e-06 -4.32958e-07 0)
(2.38248e-06 -6.65222e-07 0)
(2.29763e-06 -5.8432e-07 0)
(2.24394e-06 -5.33802e-07 0)
(2.21576e-06 -5.0736e-07 0)
(2.20545e-06 -4.95558e-07 0)
(2.20889e-06 -4.94201e-07 0)
(2.22282e-06 -4.99726e-07 0)
(2.24499e-06 -5.09996e-07 0)
(2.27362e-06 -5.23644e-07 0)
(2.30738e-06 -5.38986e-07 0)
(2.20949e-06 -7.45804e-07 0)
(2.11002e-06 -6.7577e-07 0)
(2.04705e-06 -6.32197e-07 0)
(2.01252e-06 -6.10796e-07 0)
(1.99779e-06 -6.02572e-07 0)
(1.99789e-06 -6.04011e-07 0)
(2.0092e-06 -6.11825e-07 0)
(2.02904e-06 -6.24167e-07 0)
(2.05568e-06 -6.39624e-07 0)
(2.08709e-06 -6.57191e-07 0)
(3.46858e-06 -1.68397e-08 0)
(3.52262e-06 -1.71079e-08 0)
(3.58002e-06 -1.73872e-08 0)
(3.64057e-06 -1.75978e-08 0)
(3.70392e-06 -1.77277e-08 0)
(3.76985e-06 -1.77693e-08 0)
(3.83806e-06 -1.7689e-08 0)
(3.90827e-06 -1.75177e-08 0)
(3.98031e-06 -1.72706e-08 0)
(4.05398e-06 -1.69132e-08 0)
(4.12906e-06 -1.64184e-08 0)
(4.20531e-06 -1.57823e-08 0)
(4.28256e-06 -1.50029e-08 0)
(4.36058e-06 -1.40795e-08 0)
(4.43919e-06 -1.29986e-08 0)
(4.51814e-06 -1.17294e-08 0)
(4.59726e-06 -1.02336e-08 0)
(4.67611e-06 -8.47867e-09 0)
(4.75475e-06 -6.42875e-09 0)
(4.83208e-06 -4.0739e-09 0)
(3.4332e-06 -5.21136e-08 0)
(3.49018e-06 -5.2707e-08 0)
(3.55021e-06 -5.33517e-08 0)
(3.61307e-06 -5.38136e-08 0)
(3.67849e-06 -5.40191e-08 0)
(3.74623e-06 -5.40057e-08 0)
(3.81607e-06 -5.3733e-08 0)
(3.88779e-06 -5.3209e-08 0)
(3.96122e-06 -5.23873e-08 0)
(4.03613e-06 -5.12037e-08 0)
(4.11235e-06 -4.96476e-08 0)
(4.18967e-06 -4.77257e-08 0)
(4.26794e-06 -4.54048e-08 0)
(4.34693e-06 -4.26361e-08 0)
(4.42646e-06 -3.93592e-08 0)
(4.50627e-06 -3.55079e-08 0)
(4.58623e-06 -3.09971e-08 0)
(4.66587e-06 -2.57424e-08 0)
(4.74529e-06 -1.96235e-08 0)
(4.82337e-06 -1.25885e-08 0)
(3.36371e-06 -9.17942e-08 0)
(3.42649e-06 -9.20718e-08 0)
(3.4917e-06 -9.24743e-08 0)
(3.55901e-06 -9.27393e-08 0)
(3.62843e-06 -9.26949e-08 0)
(3.69977e-06 -9.23811e-08 0)
(3.77288e-06 -9.16778e-08 0)
(3.84752e-06 -9.05684e-08 0)
(3.92359e-06 -8.89794e-08 0)
(4.00094e-06 -8.68528e-08 0)
(4.07941e-06 -8.41772e-08 0)
(4.15884e-06 -8.09286e-08 0)
(4.23906e-06 -7.70187e-08 0)
(4.31988e-06 -7.23533e-08 0)
(4.40113e-06 -6.68434e-08 0)
(4.48261e-06 -6.03934e-08 0)
(4.56418e-06 -5.28656e-08 0)
(4.64542e-06 -4.41218e-08 0)
(4.72641e-06 -3.39573e-08 0)
(4.80606e-06 -2.22674e-08 0)
(3.26216e-06 -1.38366e-07 0)
(3.33319e-06 -1.37296e-07 0)
(3.40588e-06 -1.36531e-07 0)
(3.47972e-06 -1.35902e-07 0)
(3.55504e-06 -1.35036e-07 0)
(3.63159e-06 -1.33967e-07 0)
(3.70942e-06 -1.32453e-07 0)
(3.78833e-06 -1.3047e-07 0)
(3.86836e-06 -1.27899e-07 0)
(3.94933e-06 -1.24669e-07 0)
(4.03115e-06 -1.20732e-07 0)
(4.11367e-06 -1.16019e-07 0)
(4.19677e-06 -1.10402e-07 0)
(4.28029e-06 -1.03767e-07 0)
(4.36412e-06 -9.60057e-08 0)
(4.44805e-06 -8.69627e-08 0)
(4.53199e-06 -7.64434e-08 0)
(4.61553e-06 -6.42434e-08 0)
(4.69874e-06 -5.00611e-08 0)
(4.78064e-06 -3.37747e-08 0)
(3.13158e-06 -1.94002e-07 0)
(3.21305e-06 -1.90278e-07 0)
(3.29525e-06 -1.87203e-07 0)
(3.37734e-06 -1.84815e-07 0)
(3.46015e-06 -1.82376e-07 0)
(3.54338e-06 -1.79935e-07 0)
(3.6273e-06 -1.77111e-07 0)
(3.71175e-06 -1.73869e-07 0)
(3.79682e-06 -1.70003e-07 0)
(3.88241e-06 -1.65404e-07 0)
(3.96851e-06 -1.59994e-07 0)
(4.05504e-06 -1.53659e-07 0)
(4.1419e-06 -1.4623e-07 0)
(4.22896e-06 -1.37557e-07 0)
(4.31616e-06 -1.27491e-07 0)
(4.40328e-06 -1.15824e-07 0)
(4.49029e-06 -1.02307e-07 0)
(4.57678e-06 -8.66799e-08 0)
(4.66293e-06 -6.85309e-08 0)
(4.74773e-06 -4.77264e-08 0)
(2.97564e-06 -2.60313e-07 0)
(3.06908e-06 -2.52414e-07 0)
(3.16243e-06 -2.45633e-07 0)
(3.25432e-06 -2.40395e-07 0)
(3.34608e-06 -2.35492e-07 0)
(3.43733e-06 -2.30962e-07 0)
(3.52847e-06 -2.26239e-07 0)
(3.61953e-06 -2.2123e-07 0)
(3.71066e-06 -2.15682e-07 0)
(3.80184e-06 -2.09431e-07 0)
(3.89313e-06 -2.02337e-07 0)
(3.98448e-06 -1.94222e-07 0)
(4.07585e-06 -1.84864e-07 0)
(4.16715e-06 -1.74073e-07 0)
(4.25836e-06 -1.61647e-07 0)
(4.34931e-06 -1.47339e-07 0)
(4.44002e-06 -1.30839e-07 0)
(4.53007e-06 -1.11838e-07 0)
(4.61975e-06 -8.98178e-08 0)
(4.70807e-06 -6.45846e-08 0)
(2.79868e-06 -3.38253e-07 0)
(2.90521e-06 -3.24629e-07 0)
(3.0109e-06 -3.12756e-07 0)
(3.11369e-06 -3.03498e-07 0)
(3.2154e-06 -2.95175e-07 0)
(3.31567e-06 -2.8772e-07 0)
(3.41502e-06 -2.80479e-07 0)
(3.51359e-06 -2.73197e-07 0)
(3.61163e-06 -2.65565e-07 0)
(3.70922e-06 -2.57339e-07 0)
(3.80645e-06 -2.48294e-07 0)
(3.90332e-06 -2.38178e-07 0)
(3.99986e-06 -2.2672e-07 0)
(4.09603e-06 -2.13694e-07 0)
(4.19185e-06 -1.98844e-07 0)
(4.28722e-06 -1.8188e-07 0)
(4.38218e-06 -1.62423e-07 0)
(4.47638e-06 -1.40099e-07 0)
(4.5701e-06 -1.1429e-07 0)
(4.66243e-06 -8.47337e-08 0)
(2.60496e-06 -4.28096e-07 0)
(2.72502e-06 -4.07008e-07 0)
(2.84371e-06 -3.88643e-07 0)
(2.95822e-06 -3.74048e-07 0)
(3.07074e-06 -3.61311e-07 0)
(3.18083e-06 -3.50075e-07 0)
(3.28926e-06 -3.39631e-07 0)
(3.39615e-06 -3.29539e-07 0)
(3.50185e-06 -3.194e-07 0)
(3.60651e-06 -3.08862e-07 0)
(3.71028e-06 -2.97603e-07 0)
(3.81325e-06 -2.85298e-07 0)
(3.91549e-06 -2.71625e-07 0)
(4.01706e-06 -2.5631e-07 0)
(4.11802e-06 -2.39034e-07 0)
(4.2183e-06 -2.1945e-07 0)
(4.31798e-06 -1.97101e-07 0)
(4.41676e-06 -1.71542e-07 0)
(4.51494e-06 -1.42053e-07 0)
(4.61173e-06 -1.08307e-07 0)
(2.399e-06 -5.29639e-07 0)
(2.53278e-06 -4.99664e-07 0)
(2.66461e-06 -4.73907e-07 0)
(2.79131e-06 -4.52827e-07 0)
(2.91504e-06 -4.34762e-07 0)
(3.03551e-06 -4.18943e-07 0)
(3.15348e-06 -4.04599e-07 0)
(3.26921e-06 -3.91105e-07 0)
(3.38306e-06 -3.77958e-07 0)
(3.49529e-06 -3.64687e-07 0)
(3.60609e-06 -3.50875e-07 0)
(3.71563e-06 -3.36125e-07 0)
(3.82405e-06 -3.20062e-07 0)
(3.93148e-06 -3.0234e-07 0)
(4.03799e-06 -2.82571e-07 0)
(4.14358e-06 -2.60338e-07 0)
(4.24835e-06 -2.35105e-07 0)
(4.35207e-06 -2.06355e-07 0)
(4.4551e-06 -1.73289e-07 0)
(4.55673e-06 -1.35517e-07 0)
(2.18483e-06 -6.41277e-07 0)
(2.33294e-06 -5.99913e-07 0)
(2.47768e-06 -5.65779e-07 0)
(2.61701e-06 -5.37178e-07 0)
(2.75217e-06 -5.12959e-07 0)
(2.88345e-06 -4.9189e-07 0)
(3.01134e-06 -4.73094e-07 0)
(3.13626e-06 -4.55787e-07 0)
(3.25861e-06 -4.39326e-07 0)
(3.37872e-06 -4.23114e-07 0)
(3.49685e-06 -4.06627e-07 0)
(3.61323e-06 -3.89381e-07 0)
(3.72808e-06 -3.70923e-07 0)
(3.84157e-06 -3.50834e-07 0)
(3.95382e-06 -3.28646e-07 0)
(4.06489e-06 -3.03873e-07 0)
(4.17492e-06 -2.7591e-07 0)
(4.28376e-06 -2.44151e-07 0)
(4.3918e-06 -2.07733e-07 0)
(4.49853e-06 -1.66169e-07 0)
(2.02378e-06 -7.50415e-07 0)
(2.1823e-06 -6.99166e-07 0)
(2.3353e-06 -6.58378e-07 0)
(2.48292e-06 -6.23452e-07 0)
(2.62567e-06 -5.93592e-07 0)
(2.76406e-06 -5.67451e-07 0)
(2.89858e-06 -5.44085e-07 0)
(3.02969e-06 -5.22668e-07 0)
(3.1578e-06 -5.02479e-07 0)
(3.28324e-06 -4.82857e-07 0)
(3.4063e-06 -4.63224e-07 0)
(3.52727e-06 -4.4305e-07 0)
(3.64638e-06 -4.21828e-07 0)
(3.76383e-06 -3.9908e-07 0)
(3.87977e-06 -3.74296e-07 0)
(3.99431e-06 -3.46933e-07 0)
(4.10761e-06 -3.16378e-07 0)
(4.21966e-06 -2.81959e-07 0)
(4.33084e-06 -2.42813e-07 0)
(4.44079e-06 -1.98385e-07 0)
(1.93277e-06 -8.40233e-07 0)
(2.09252e-06 -7.86898e-07 0)
(2.24692e-06 -7.42218e-07 0)
(2.39677e-06 -7.03266e-07 0)
(2.54207e-06 -6.69297e-07 0)
(2.68315e-06 -6.39161e-07 0)
(2.82038e-06 -6.11959e-07 0)
(2.95413e-06 -5.86892e-07 0)
(3.08473e-06 -5.63237e-07 0)
(3.21248e-06 -5.40338e-07 0)
(3.33768e-06 -5.17618e-07 0)
(3.46059e-06 -4.94534e-07 0)
(3.58146e-06 -4.7056e-07 0)
(3.70048e-06 -4.45199e-07 0)
(3.81781e-06 -4.17935e-07 0)
(3.93362e-06 -3.88205e-07 0)
(4.04806e-06 -3.55428e-07 0)
(4.16123e-06 -3.18927e-07 0)
(4.27347e-06 -2.77881e-07 0)
(4.38457e-06 -2.31723e-07 0)
(1.85602e-06 -9.2579e-07 0)
(2.01413e-06 -8.71445e-07 0)
(2.16838e-06 -8.24456e-07 0)
(2.31872e-06 -7.8258e-07 0)
(2.46507e-06 -7.45292e-07 0)
(2.60753e-06 -7.11694e-07 0)
(2.74636e-06 -6.81006e-07 0)
(2.88177e-06 -6.52508e-07 0)
(3.01404e-06 -6.25524e-07 0)
(3.14341e-06 -5.99434e-07 0)
(3.27016e-06 -5.73675e-07 0)
(3.39453e-06 -5.47708e-07 0)
(3.51675e-06 -5.21001e-07 0)
(3.63701e-06 -4.93053e-07 0)
(3.75546e-06 -4.63355e-07 0)
(3.87233e-06 -4.31338e-07 0)
(3.98776e-06 -3.96455e-07 0)
(4.10191e-06 -3.58053e-07 0)
(4.2151e-06 -3.15352e-07 0)
(4.32728e-06 -2.6781e-07 0)
(1.78867e-06 -1.00835e-06 0)
(1.94451e-06 -9.53596e-07 0)
(2.09748e-06 -9.0491e-07 0)
(2.2472e-06 -8.60662e-07 0)
(2.39352e-06 -8.20551e-07 0)
(2.53638e-06 -7.83898e-07 0)
(2.67591e-06 -7.50055e-07 0)
(2.81221e-06 -7.18388e-07 0)
(2.94547e-06 -6.88287e-07 0)
(3.07592e-06 -6.59176e-07 0)
(3.20375e-06 -6.30523e-07 0)
(3.32918e-06 -6.01798e-07 0)
(3.45242e-06 -5.72475e-07 0)
(3.57366e-06 -5.42064e-07 0)
(3.69304e-06 -5.10064e-07 0)
(3.8108e-06 -4.75925e-07 0)
(3.92709e-06 -4.39134e-07 0)
(4.04213e-06 -3.99068e-07 0)
(4.1562e-06 -3.55003e-07 0)
(4.2694e-06 -3.06458e-07 0)
(1.72954e-06 -1.08738e-06 0)
(1.88254e-06 -1.03269e-06 0)
(2.0335e-06 -9.82992e-07 0)
(2.1818e-06 -9.37023e-07 0)
(2.32727e-06 -8.94674e-07 0)
(2.46975e-06 -8.55458e-07 0)
(2.60924e-06 -8.18857e-07 0)
(2.74576e-06 -7.84345e-07 0)
(2.87946e-06 -7.51388e-07 0)
(3.01046e-06 -7.19471e-07 0)
(3.13895e-06 -6.88096e-07 0)
(3.26507e-06 -6.5676e-07 0)
(3.38902e-06 -6.24954e-07 0)
(3.51097e-06 -5.92211e-07 0)
(3.63108e-06 -5.58047e-07 0)
(3.74957e-06 -5.21942e-07 0)
(3.8666e-06 -4.83417e-07 0)
(3.98241e-06 -4.41889e-07 0)
(4.09727e-06 -3.9671e-07 0)
(4.21143e-06 -3.4749e-07 0)
(1.67706e-06 -1.16311e-06 0)
(1.82699e-06 -1.1088e-06 0)
(1.97553e-06 -1.05851e-06 0)
(2.12186e-06 -1.01129e-06 0)
(2.26593e-06 -9.67174e-07 0)
(2.40742e-06 -9.25823e-07 0)
(2.54629e-06 -8.86847e-07 0)
(2.68251e-06 -8.49829e-07 0)
(2.81614e-06 -8.14311e-07 0)
(2.94727e-06 -7.79838e-07 0)
(3.07601e-06 -7.45961e-07 0)
(3.20249e-06 -7.12205e-07 0)
(3.32687e-06 -6.78092e-07 0)
(3.4493e-06 -6.43189e-07 0)
(3.56993e-06 -6.07031e-07 0)
(3.68899e-06 -5.69145e-07 0)
(3.80662e-06 -5.29079e-07 0)
(3.92309e-06 -4.86305e-07 0)
(4.03868e-06 -4.40268e-07 0)
(4.15366e-06 -3.90652e-07 0)
(1.63019e-06 -1.23567e-06 0)
(1.7769e-06 -1.18194e-06 0)
(1.92273e-06 -1.1314e-06 0)
(2.06678e-06 -1.08333e-06 0)
(2.20903e-06 -1.03786e-06 0)
(2.34909e-06 -9.94775e-07 0)
(2.48691e-06 -9.53797e-07 0)
(2.6224e-06 -9.14611e-07 0)
(2.75556e-06 -8.76831e-07 0)
(2.88644e-06 -8.40066e-07 0)
(3.01511e-06 -8.03916e-07 0)
(3.14164e-06 -7.67948e-07 0)
(3.26619e-06 -7.3172e-07 0)
(3.38888e-06 -6.94842e-07 0)
(3.50985e-06 -6.56865e-07 0)
(3.62932e-06 -6.17377e-07 0)
(3.74742e-06 -5.7596e-07 0)
(3.86445e-06 -5.32147e-07 0)
(3.98067e-06 -4.85481e-07 0)
(4.09636e-06 -4.35673e-07 0)
(1.58789e-06 -1.30525e-06 0)
(1.73139e-06 -1.25225e-06 0)
(1.87436e-06 -1.2017e-06 0)
(2.01593e-06 -1.15308e-06 0)
(2.15607e-06 -1.10659e-06 0)
(2.2944e-06 -1.06211e-06 0)
(2.43084e-06 -1.01947e-06 0)
(2.56526e-06 -9.7843e-07 0)
(2.69763e-06 -9.38676e-07 0)
(2.82794e-06 -8.99883e-07 0)
(2.95625e-06 -8.61703e-07 0)
(3.08259e-06 -8.23745e-07 0)
(3.20709e-06 -7.85606e-07 0)
(3.32985e-06 -7.46947e-07 0)
(3.451e-06 -7.07345e-07 0)
(3.57075e-06 -6.66442e-07 0)
(3.68922e-06 -6.23868e-07 0)
(3.80672e-06 -5.79217e-07 0)
(3.92346e-06 -5.32116e-07 0)
(4.03975e-06 -4.82276e-07 0)
(1.54928e-06 -1.37209e-06 0)
(1.6896e-06 -1.31987e-06 0)
(1.82966e-06 -1.26948e-06 0)
(1.96863e-06 -1.22054e-06 0)
(2.10651e-06 -1.17331e-06 0)
(2.24291e-06 -1.12773e-06 0)
(2.37775e-06 -1.08372e-06 0)
(2.51086e-06 -1.04113e-06 0)
(2.64219e-06 -9.99677e-07 0)
(2.7717e-06 -9.59116e-07 0)
(2.89942e-06 -9.19148e-07 0)
(3.02537e-06 -8.79426e-07 0)
(3.14964e-06 -8.39591e-07 0)
(3.27232e-06 -7.99351e-07 0)
(3.39352e-06 -7.58319e-07 0)
(3.51344e-06 -7.16189e-07 0)
(3.63218e-06 -6.72648e-07 0)
(3.75005e-06 -6.27339e-07 0)
(3.86721e-06 -5.79946e-07 0)
(3.98402e-06 -5.30235e-07 0)
(1.51357e-06 -1.43639e-06 0)
(1.65076e-06 -1.38499e-06 0)
(1.78794e-06 -1.33486e-06 0)
(1.92428e-06 -1.28578e-06 0)
(2.05982e-06 -1.23802e-06 0)
(2.19419e-06 -1.19159e-06 0)
(2.32728e-06 -1.14648e-06 0)
(2.45893e-06 -1.10259e-06 0)
(2.58904e-06 -1.0597e-06 0)
(2.71759e-06 -1.01762e-06 0)
(2.84456e-06 -9.76106e-07 0)
(2.96996e-06 -9.34847e-07 0)
(3.09387e-06 -8.9353e-07 0)
(3.21634e-06 -8.51911e-07 0)
(3.33748e-06 -8.09645e-07 0)
(3.45746e-06 -7.66477e-07 0)
(3.57639e-06 -7.22144e-07 0)
(3.69452e-06 -6.76325e-07 0)
(3.812e-06 -6.28761e-07 0)
(3.92925e-06 -5.79329e-07 0)
(1.48006e-06 -1.49836e-06 0)
(1.61424e-06 -1.44778e-06 0)
(1.74859e-06 -1.39798e-06 0)
(1.88233e-06 -1.34888e-06 0)
(2.01553e-06 -1.30077e-06 0)
(2.14782e-06 -1.2537e-06 0)
(2.27908e-06 -1.20771e-06 0)
(2.40917e-06 -1.16276e-06 0)
(2.53796e-06 -1.11869e-06 0)
(2.66543e-06 -1.07533e-06 0)
(2.79154e-06 -1.03249e-06 0)
(2.91627e-06 -9.89905e-07 0)
(3.03971e-06 -9.47315e-07 0)
(3.16188e-06 -9.04513e-07 0)
(3.28286e-06 -8.61201e-07 0)
(3.40283e-06 -8.17168e-07 0)
(3.52185e-06 -7.72188e-07 0)
(3.64016e-06 -7.25981e-07 0)
(3.75792e-06 -6.78371e-07 0)
(3.87547e-06 -6.29294e-07 0)
(1.44816e-06 -1.55822e-06 0)
(1.57946e-06 -1.50841e-06 0)
(1.71105e-06 -1.45899e-06 0)
(1.84228e-06 -1.40997e-06 0)
(1.97316e-06 -1.36165e-06 0)
(2.10336e-06 -1.31411e-06 0)
(2.23277e-06 -1.26745e-06 0)
(2.36124e-06 -1.22164e-06 0)
(2.48867e-06 -1.17659e-06 0)
(2.61499e-06 -1.13216e-06 0)
(2.74017e-06 -1.08821e-06 0)
(2.86419e-06 -1.04451e-06 0)
(2.98709e-06 -1.00085e-06 0)
(3.1089e-06 -9.57055e-07 0)
(3.22968e-06 -9.12877e-07 0)
(3.34956e-06 -8.68135e-07 0)
(3.46861e-06 -8.22637e-07 0)
(3.58703e-06 -7.76153e-07 0)
(3.705e-06 -7.28615e-07 0)
(3.82278e-06 -6.79911e-07 0)
(1.41735e-06 -1.61614e-06 0)
(1.54589e-06 -1.56706e-06 0)
(1.67485e-06 -1.51805e-06 0)
(1.80364e-06 -1.46918e-06 0)
(1.93226e-06 -1.42076e-06 0)
(2.0604e-06 -1.37288e-06 0)
(2.18799e-06 -1.32571e-06 0)
(2.31486e-06 -1.27924e-06 0)
(2.44091e-06 -1.23341e-06 0)
(2.56608e-06 -1.18811e-06 0)
(2.69032e-06 -1.14325e-06 0)
(2.81358e-06 -1.09864e-06 0)
(2.93591e-06 -1.0541e-06 0)
(3.05732e-06 -1.00949e-06 0)
(3.17783e-06 -9.64607e-07 0)
(3.29758e-06 -9.19287e-07 0)
(3.41658e-06 -8.73383e-07 0)
(3.53508e-06 -8.26733e-07 0)
(3.65315e-06 -7.7932e-07 0)
(3.77111e-06 -7.31035e-07 0)
(1.38716e-06 -1.67229e-06 0)
(1.51308e-06 -1.6239e-06 0)
(1.63952e-06 -1.5753e-06 0)
(1.76595e-06 -1.52662e-06 0)
(1.89238e-06 -1.47818e-06 0)
(2.01856e-06 -1.4301e-06 0)
(2.14439e-06 -1.38257e-06 0)
(2.26971e-06 -1.3356e-06 0)
(2.39442e-06 -1.28918e-06 0)
(2.51846e-06 -1.2432e-06 0)
(2.64175e-06 -1.19761e-06 0)
(2.76425e-06 -1.15226e-06 0)
(2.886e-06 -1.107e-06 0)
(3.00698e-06 -1.06174e-06 0)
(3.12721e-06 -1.01628e-06 0)
(3.24678e-06 -9.70497e-07 0)
(3.3657e-06 -9.24294e-07 0)
(3.48422e-06 -8.77567e-07 0)
(3.60234e-06 -8.30284e-07 0)
(3.7204e-06 -7.82462e-07 0)
(1.35705e-06 -1.72685e-06 0)
(1.48049e-06 -1.67909e-06 0)
(1.60453e-06 -1.63089e-06 0)
(1.72872e-06 -1.58243e-06 0)
(1.8531e-06 -1.53405e-06 0)
(1.97742e-06 -1.48588e-06 0)
(2.10159e-06 -1.43812e-06 0)
(2.22544e-06 -1.39081e-06 0)
(2.34889e-06 -1.34393e-06 0)
(2.47185e-06 -1.29743e-06 0)
(2.59425e-06 -1.25129e-06 0)
(2.71604e-06 -1.20538e-06 0)
(2.83723e-06 -1.15957e-06 0)
(2.9578e-06 -1.11379e-06 0)
(3.07772e-06 -1.06787e-06 0)
(3.1971e-06 -1.02173e-06 0)
(3.31595e-06 -9.75321e-07 0)
(3.43443e-06 -9.28564e-07 0)
(3.5526e-06 -8.81455e-07 0)
(3.6707e-06 -8.34059e-07 0)
(1.32654e-06 -1.77993e-06 0)
(1.44761e-06 -1.7328e-06 0)
(1.56936e-06 -1.68494e-06 0)
(1.6915e-06 -1.63674e-06 0)
(1.81399e-06 -1.58849e-06 0)
(1.9366e-06 -1.54033e-06 0)
(2.05925e-06 -1.49246e-06 0)
(2.18176e-06 -1.44494e-06 0)
(2.30404e-06 -1.39776e-06 0)
(2.42601e-06 -1.35089e-06 0)
(2.54759e-06 -1.30435e-06 0)
(2.66872e-06 -1.25801e-06 0)
(2.78939e-06 -1.21178e-06 0)
(2.90954e-06 -1.16559e-06 0)
(3.02918e-06 -1.11932e-06 0)
(3.14838e-06 -1.07292e-06 0)
(3.26714e-06 -1.02638e-06 0)
(3.38557e-06 -9.79599e-07 0)
(3.50374e-06 -9.3269e-07 0)
(3.62185e-06 -8.85705e-07 0)
(1.29509e-06 -1.83174e-06 0)
(1.41387e-06 -1.78506e-06 0)
(1.53347e-06 -1.73762e-06 0)
(1.65382e-06 -1.68977e-06 0)
(1.77459e-06 -1.6417e-06 0)
(1.8957e-06 -1.59363e-06 0)
(2.01698e-06 -1.54574e-06 0)
(2.13831e-06 -1.49811e-06 0)
(2.25957e-06 -1.45074e-06 0)
(2.38068e-06 -1.40364e-06 0)
(2.50156e-06 -1.35683e-06 0)
(2.62211e-06 -1.31019e-06 0)
(2.7423e-06 -1.26363e-06 0)
(2.8621e-06 -1.21715e-06 0)
(2.98149e-06 -1.17064e-06 0)
(3.10055e-06 -1.12406e-06 0)
(3.21921e-06 -1.07739e-06 0)
(3.33759e-06 -1.03061e-06 0)
(3.45571e-06 -9.83905e-07 0)
(3.57385e-06 -9.37285e-07 0)
(1.262e-06 -1.88222e-06 0)
(1.37881e-06 -1.83604e-06 0)
(1.49666e-06 -1.78912e-06 0)
(1.61529e-06 -1.74161e-06 0)
(1.73458e-06 -1.69381e-06 0)
(1.85437e-06 -1.64589e-06 0)
(1.9745e-06 -1.59806e-06 0)
(2.09483e-06 -1.55043e-06 0)
(2.21526e-06 -1.50301e-06 0)
(2.33567e-06 -1.45579e-06 0)
(2.45596e-06 -1.4088e-06 0)
(2.57601e-06 -1.36196e-06 0)
(2.69582e-06 -1.31521e-06 0)
(2.81536e-06 -1.26852e-06 0)
(2.93457e-06 -1.22182e-06 0)
(3.05347e-06 -1.1751e-06 0)
(3.17201e-06 -1.12835e-06 0)
(3.29041e-06 -1.08159e-06 0)
(3.40854e-06 -1.03503e-06 0)
(3.52658e-06 -9.8876e-07 0)
(1.22679e-06 -1.93187e-06 0)
(1.34181e-06 -1.88625e-06 0)
(1.45808e-06 -1.83973e-06 0)
(1.57532e-06 -1.79259e-06 0)
(1.6934e-06 -1.74508e-06 0)
(1.81214e-06 -1.69738e-06 0)
(1.9314e-06 -1.6497e-06 0)
(2.05102e-06 -1.60213e-06 0)
(2.17084e-06 -1.55471e-06 0)
(2.29071e-06 -1.50745e-06 0)
(2.41056e-06 -1.46037e-06 0)
(2.53029e-06 -1.41341e-06 0)
(2.64986e-06 -1.36651e-06 0)
(2.76916e-06 -1.31971e-06 0)
(2.8882e-06 -1.27287e-06 0)
(3.00704e-06 -1.22601e-06 0)
(3.12558e-06 -1.1792e-06 0)
(3.24392e-06 -1.13246e-06 0)
(3.36208e-06 -1.08598e-06 0)
(3.4801e-06 -1.03997e-06 0)
(1.18903e-06 -1.98031e-06 0)
(1.30251e-06 -1.93533e-06 0)
(1.41746e-06 -1.88938e-06 0)
(1.53361e-06 -1.84271e-06 0)
(1.6508e-06 -1.79557e-06 0)
(1.76885e-06 -1.74817e-06 0)
(1.88756e-06 -1.70072e-06 0)
(2.00672e-06 -1.65332e-06 0)
(2.12616e-06 -1.60597e-06 0)
(2.24577e-06 -1.55871e-06 0)
(2.36541e-06 -1.51161e-06 0)
(2.48492e-06 -1.46462e-06 0)
(2.60431e-06 -1.41763e-06 0)
(2.72351e-06 -1.3707e-06 0)
(2.84244e-06 -1.3238e-06 0)
(2.96119e-06 -1.27686e-06 0)
(3.07976e-06 -1.23e-06 0)
(3.19811e-06 -1.1832e-06 0)
(3.31636e-06 -1.13673e-06 0)
(3.43439e-06 -1.09084e-06 0)
(8.50348e-08 -1.65932e-06 0)
(2.56171e-07 -1.63518e-06 0)
(4.30433e-07 -1.5878e-06 0)
(6.09626e-07 -1.51918e-06 0)
(7.95121e-07 -1.43188e-06 0)
(9.87775e-07 -1.32923e-06 0)
(1.1879e-06 -1.21498e-06 0)
(1.39511e-06 -1.09301e-06 0)
(1.60899e-06 -9.67211e-07 0)
(1.82756e-06 -8.40519e-07 0)
(8.28066e-08 -1.68835e-06 0)
(2.49333e-07 -1.6663e-06 0)
(4.18412e-07 -1.62296e-06 0)
(5.91571e-07 -1.56008e-06 0)
(7.69955e-07 -1.47982e-06 0)
(9.54251e-07 -1.38499e-06 0)
(1.14476e-06 -1.27877e-06 0)
(1.34097e-06 -1.16459e-06 0)
(1.54225e-06 -1.04591e-06 0)
(1.74669e-06 -9.2573e-07 0)
(8.07789e-08 -1.71807e-06 0)
(2.43104e-07 -1.69792e-06 0)
(4.07487e-07 -1.65824e-06 0)
(5.75122e-07 -1.60058e-06 0)
(7.47e-07 -1.5268e-06 0)
(9.23642e-07 -1.43935e-06 0)
(1.10536e-06 -1.34096e-06 0)
(1.29191e-06 -1.23452e-06 0)
(1.4828e-06 -1.12304e-06 0)
(1.67666e-06 -1.00884e-06 0)
(7.89685e-08 -1.74851e-06 0)
(2.37528e-07 -1.72995e-06 0)
(3.97834e-07 -1.69339e-06 0)
(5.60759e-07 -1.64018e-06 0)
(7.27177e-07 -1.57198e-06 0)
(8.97467e-07 -1.4909e-06 0)
(1.07186e-06 -1.39942e-06 0)
(1.25011e-06 -1.30009e-06 0)
(1.43175e-06 -1.19571e-06 0)
(1.6157e-06 -1.08827e-06 0)
(7.73182e-08 -1.77963e-06 0)
(2.32392e-07 -1.76252e-06 0)
(3.88945e-07 -1.72876e-06 0)
(5.47609e-07 -1.67956e-06 0)
(7.09133e-07 -1.61642e-06 0)
(8.73812e-07 -1.54121e-06 0)
(1.04184e-06 -1.45615e-06 0)
(1.21303e-06 -1.36339e-06 0)
(1.38697e-06 -1.26553e-06 0)
(1.56248e-06 -1.16438e-06 0)
(7.57639e-08 -1.81141e-06 0)
(2.27644e-07 -1.79554e-06 0)
(3.80751e-07 -1.76422e-06 0)
(5.35605e-07 -1.71856e-06 0)
(6.92807e-07 -1.65986e-06 0)
(8.52612e-07 -1.58987e-06 0)
(1.01509e-06 -1.51057e-06 0)
(1.18007e-06 -1.42386e-06 0)
(1.34731e-06 -1.33215e-06 0)
(1.51549e-06 -1.23716e-06 0)
(7.42674e-08 -1.84381e-06 0)
(2.23132e-07 -1.82905e-06 0)
(3.73001e-07 -1.79992e-06 0)
(5.24355e-07 -1.75742e-06 0)
(6.77622e-07 -1.70274e-06 0)
(8.33068e-07 -1.63744e-06 0)
(9.90716e-07 -1.56337e-06 0)
(1.15031e-06 -1.4822e-06 0)
(1.31178e-06 -1.39609e-06 0)
(1.47368e-06 -1.30683e-06 0)
(7.28596e-08 -1.87676e-06 0)
(2.18812e-07 -1.86299e-06 0)
(3.65618e-07 -1.83581e-06 0)
(5.13714e-07 -1.79611e-06 0)
(6.63397e-07 -1.74501e-06 0)
(8.14886e-07 -1.68394e-06 0)
(9.6822e-07 -1.61459e-06 0)
(1.12309e-06 -1.53849e-06 0)
(1.27952e-06 -1.45757e-06 0)
(1.43603e-06 -1.37362e-06 0)
(7.14952e-08 -1.9102e-06 0)
(2.14606e-07 -1.89732e-06 0)
(3.5848e-07 -1.87189e-06 0)
(5.03471e-07 -1.83473e-06 0)
(6.49821e-07 -1.78688e-06 0)
(7.97708e-07 -1.72962e-06 0)
(9.47146e-07 -1.66453e-06 0)
(1.09782e-06 -1.59306e-06 0)
(1.24981e-06 -1.51687e-06 0)
(1.40168e-06 -1.43778e-06 0)
(7.01175e-08 -1.94409e-06 0)
(2.10461e-07 -1.932e-06 0)
(3.51494e-07 -1.90814e-06 0)
(4.93506e-07 -1.87326e-06 0)
(6.36691e-07 -1.82834e-06 0)
(7.81239e-07 -1.77453e-06 0)
(9.27112e-07 -1.71331e-06 0)
(1.074e-06 -1.64604e-06 0)
(1.22203e-06 -1.57419e-06 0)
(1.36984e-06 -1.49955e-06 0)
(6.87232e-08 -1.97834e-06 0)
(2.06348e-07 -1.96698e-06 0)
(3.44564e-07 -1.94455e-06 0)
(4.83677e-07 -1.91173e-06 0)
(6.2382e-07 -1.86947e-06 0)
(7.65207e-07 -1.81878e-06 0)
(9.07775e-07 -1.76108e-06 0)
(1.05121e-06 -1.69764e-06 0)
(1.19567e-06 -1.62975e-06 0)
(1.33987e-06 -1.55916e-06 0)
(6.73344e-08 -2.01289e-06 0)
(2.02233e-07 -2.00218e-06 0)
(3.37614e-07 -1.98106e-06 0)
(4.73861e-07 -1.95012e-06 0)
(6.11051e-07 -1.91026e-06 0)
(7.4939e-07 -1.86243e-06 0)
(8.88841e-07 -1.80793e-06 0)
(1.02909e-06 -1.74797e-06 0)
(1.17027e-06 -1.68371e-06 0)
(1.31125e-06 -1.61681e-06 0)
(6.59397e-08 -2.04766e-06 0)
(1.98038e-07 -2.03757e-06 0)
(3.30548e-07 -2.01763e-06 0)
(4.63914e-07 -1.9884e-06 0)
(5.98198e-07 -1.95074e-06 0)
(7.33562e-07 -1.90552e-06 0)
(8.7002e-07 -1.85395e-06 0)
(1.00727e-06 -1.79717e-06 0)
(1.14542e-06 -1.73622e-06 0)
(1.28351e-06 -1.6727e-06 0)
(6.44965e-08 -2.08258e-06 0)
(1.93677e-07 -2.07303e-06 0)
(3.23259e-07 -2.05419e-06 0)
(4.53693e-07 -2.02654e-06 0)
(5.85062e-07 -1.99088e-06 0)
(7.1749e-07 -1.94807e-06 0)
(8.51029e-07 -1.89918e-06 0)
(9.85406e-07 -1.8453e-06 0)
(1.12073e-06 -1.78742e-06 0)
(1.25616e-06 -1.72699e-06 0)
(6.2968e-08 -2.11756e-06 0)
(1.89089e-07 -2.10852e-06 0)
(3.15651e-07 -2.09068e-06 0)
(4.43065e-07 -2.06449e-06 0)
(5.71456e-07 -2.0307e-06 0)
(7.00932e-07 -1.9901e-06 0)
(8.31574e-07 -1.94369e-06 0)
(9.6317e-07 -1.89249e-06 0)
(1.09579e-06 -1.83744e-06 0)
(1.2287e-06 -1.77983e-06 0)
(6.13429e-08 -2.15244e-06 0)
(1.84243e-07 -2.14388e-06 0)
(3.07643e-07 -2.12698e-06 0)
(4.31897e-07 -2.10215e-06 0)
(5.57193e-07 -2.07009e-06 0)
(6.83651e-07 -2.03154e-06 0)
(8.11375e-07 -1.98743e-06 0)
(9.40222e-07 -1.93875e-06 0)
(1.07018e-06 -1.88631e-06 0)
(1.20068e-06 -1.83132e-06 0)
(5.96169e-08 -2.18719e-06 0)
(1.79091e-07 -2.17907e-06 0)
(2.99115e-07 -2.16305e-06 0)
(4.20019e-07 -2.13951e-06 0)
(5.42061e-07 -2.10909e-06 0)
(6.65379e-07 -2.07247e-06 0)
(7.90111e-07 -2.03053e-06 0)
(9.16137e-07 -1.9842e-06 0)
(1.04345e-06 -1.9342e-06 0)
(1.17155e-06 -1.88165e-06 0)
(5.77688e-08 -2.22147e-06 0)
(1.7355e-07 -2.21379e-06 0)
(2.89927e-07 -2.19861e-06 0)
(4.07243e-07 -2.17629e-06 0)
(5.25814e-07 -2.14741e-06 0)
(6.45822e-07 -2.11263e-06 0)
(7.67416e-07 -2.07276e-06 0)
(8.90492e-07 -2.02866e-06 0)
(1.01509e-06 -1.98098e-06 0)
(1.1408e-06 -1.93074e-06 0)
(5.57523e-08 -2.25544e-06 0)
(1.67488e-07 -2.24817e-06 0)
(2.79877e-07 -2.2338e-06 0)
(3.93309e-07 -2.21266e-06 0)
(5.0813e-07 -2.18529e-06 0)
(6.24575e-07 -2.15229e-06 0)
(7.42808e-07 -2.11442e-06 0)
(8.62787e-07 -2.07244e-06 0)
(9.84524e-07 -2.02701e-06 0)
(1.10778e-06 -1.97899e-06 0)
(5.35416e-08 -2.28823e-06 0)
(1.60857e-07 -2.28137e-06 0)
(2.68888e-07 -2.26781e-06 0)
(3.78085e-07 -2.24784e-06 0)
(4.88845e-07 -2.22195e-06 0)
(6.01441e-07 -2.19073e-06 0)
(7.16044e-07 -2.15483e-06 0)
(8.32736e-07 -2.11498e-06 0)
(9.51473e-07 -2.07178e-06 0)
(1.0722e-06 -2.02598e-06 0)
)


// ************************************************************************* //
