/*--------------------------------*- C++ -*----------------------------------*\
| =========                 |                                                 |
| \\      /  F ield         | foam-extend: Open Source CFD                    |
|  \\    /   O peration     | Version:     4.1                                |
|   \\  /    A nd           | Web:         http://www.foam-extend.org         |
|    \\/     M anipulation  |                                                 |
\*---------------------------------------------------------------------------*/
FoamFile
{
    version     2.0;
    format      ascii;
    class       vectorField;
    location    "4";
    object      solidsCellD_iteration15;
}
// * * * * * * * * * * * * * * * * * * * * * * * * * * * * * * * * * * * * * //


1000
(
(2.05553e-06 -8.5752e-07 0)
(1.94037e-06 -7.98535e-07 0)
(1.86702e-06 -7.61351e-07 0)
(1.82506e-06 -7.44367e-07 0)
(1.80482e-06 -7.38983e-07 0)
(1.80043e-06 -7.42529e-07 0)
(1.80773e-06 -7.51926e-07 0)
(1.82372e-06 -7.65699e-07 0)
(1.84647e-06 -7.82405e-07 0)
(1.87402e-06 -8.01075e-07 0)
(1.85865e-06 -9.36792e-07 0)
(1.73609e-06 -8.9606e-07 0)
(1.65805e-06 -8.70429e-07 0)
(1.6126e-06 -8.61291e-07 0)
(1.58959e-06 -8.61125e-07 0)
(1.58269e-06 -8.68351e-07 0)
(1.58759e-06 -8.8035e-07 0)
(1.60112e-06 -8.96081e-07 0)
(1.62119e-06 -9.14324e-07 0)
(1.64561e-06 -9.34133e-07 0)
(1.6541e-06 -1.01193e-06 0)
(1.52892e-06 -9.91595e-07 0)
(1.44919e-06 -9.78892e-07 0)
(1.40222e-06 -9.78408e-07 0)
(1.37773e-06 -9.83919e-07 0)
(1.36914e-06 -9.9505e-07 0)
(1.3721e-06 -1.00976e-06 0)
(1.38348e-06 -1.02742e-06 0)
(1.40112e-06 -1.04715e-06 0)
(1.42298e-06 -1.06796e-06 0)
(1.44333e-06 -1.08157e-06 0)
(1.32084e-06 -1.08261e-06 0)
(1.24278e-06 -1.08348e-06 0)
(1.19636e-06 -1.09202e-06 0)
(1.17169e-06 -1.10341e-06 0)
(1.1622e-06 -1.11853e-06 0)
(1.16365e-06 -1.13595e-06 0)
(1.17309e-06 -1.15552e-06 0)
(1.18841e-06 -1.17668e-06 0)
(1.20766e-06 -1.19858e-06 0)
(1.22791e-06 -1.14435e-06 0)
(1.11322e-06 -1.16657e-06 0)
(1.04013e-06 -1.18087e-06 0)
(9.9646e-07 -1.19831e-06 0)
(9.72903e-07 -1.21548e-06 0)
(9.63244e-07 -1.23453e-06 0)
(9.6363e-07 -1.2546e-06 0)
(9.71309e-07 -1.27602e-06 0)
(9.84376e-07 -1.29857e-06 0)
(1.00091e-06 -1.3216e-06 0)
(1.00874e-06 -1.19903e-06 0)
(9.06984e-07 -1.24105e-06 0)
(8.42166e-07 -1.26793e-06 0)
(8.03198e-07 -1.29371e-06 0)
(7.8194e-07 -1.31626e-06 0)
(7.72851e-07 -1.33895e-06 0)
(7.72609e-07 -1.36147e-06 0)
(7.787e-07 -1.38461e-06 0)
(7.89477e-07 -1.40844e-06 0)
(8.03157e-07 -1.43258e-06 0)
(7.87008e-07 -1.24433e-06 0)
(7.02635e-07 -1.30371e-06 0)
(6.48892e-07 -1.34163e-06 0)
(6.16456e-07 -1.37471e-06 0)
(5.98646e-07 -1.40198e-06 0)
(5.90838e-07 -1.42785e-06 0)
(5.903e-07 -1.45249e-06 0)
(5.94901e-07 -1.47714e-06 0)
(6.03324e-07 -1.50209e-06 0)
(6.14039e-07 -1.52724e-06 0)
(5.63412e-07 -1.27928e-06 0)
(5.00193e-07 -1.3526e-06 0)
(4.59954e-07 -1.39937e-06 0)
(4.35633e-07 -1.4383e-06 0)
(4.2223e-07 -1.46935e-06 0)
(4.16246e-07 -1.49779e-06 0)
(4.15641e-07 -1.52416e-06 0)
(4.18824e-07 -1.55004e-06 0)
(4.24854e-07 -1.57589e-06 0)
(4.32543e-07 -1.6019e-06 0)
(3.38566e-07 -1.30305e-06 0)
(2.99428e-07 -1.3861e-06 0)
(2.74555e-07 -1.43904e-06 0)
(2.59464e-07 -1.48208e-06 0)
(2.51086e-07 -1.51579e-06 0)
(2.47293e-07 -1.546e-06 0)
(2.4686e-07 -1.57359e-06 0)
(2.48763e-07 -1.60037e-06 0)
(2.52383e-07 -1.62688e-06 0)
(2.56999e-07 -1.65349e-06 0)
(1.13074e-07 -1.31502e-06 0)
(9.98291e-08 -1.40313e-06 0)
(9.13414e-08 -1.45923e-06 0)
(8.62004e-08 -1.50438e-06 0)
(8.3387e-08 -1.53945e-06 0)
(8.2086e-08 -1.5706e-06 0)
(8.18754e-08 -1.5988e-06 0)
(8.24877e-08 -1.62602e-06 0)
(8.37088e-08 -1.65286e-06 0)
(8.52459e-08 -1.67981e-06 0)
(3.20644e-06 -3.90809e-08 0)
(3.23496e-06 -2.81411e-08 0)
(3.25242e-06 -2.12202e-08 0)
(3.27137e-06 -1.71658e-08 0)
(3.29223e-06 -1.49237e-08 0)
(3.31779e-06 -1.39168e-08 0)
(3.34812e-06 -1.37687e-08 0)
(3.38346e-06 -1.41331e-08 0)
(3.42379e-06 -1.48978e-08 0)
(3.46853e-06 -1.58454e-08 0)
(3.18269e-06 -1.17284e-07 0)
(3.20646e-06 -8.51042e-08 0)
(3.22096e-06 -6.47292e-08 0)
(3.23788e-06 -5.28726e-08 0)
(3.2574e-06 -4.64291e-08 0)
(3.28199e-06 -4.3512e-08 0)
(3.31164e-06 -4.3066e-08 0)
(3.34644e-06 -4.42638e-08 0)
(3.38628e-06 -4.66222e-08 0)
(3.43052e-06 -4.94189e-08 0)
(3.13536e-06 -1.96121e-07 0)
(3.15e-06 -1.44497e-07 0)
(3.15874e-06 -1.11853e-07 0)
(3.17186e-06 -9.27993e-08 0)
(3.18884e-06 -8.24803e-08 0)
(3.21167e-06 -7.79772e-08 0)
(3.23997e-06 -7.74276e-08 0)
(3.27373e-06 -7.94704e-08 0)
(3.31263e-06 -8.33858e-08 0)
(3.35591e-06 -8.80608e-08 0)
(3.06522e-06 -2.75991e-07 0)
(3.0669e-06 -2.07683e-07 0)
(3.06741e-06 -1.64576e-07 0)
(3.07509e-06 -1.39538e-07 0)
(3.08845e-06 -1.26024e-07 0)
(3.10877e-06 -1.20247e-07 0)
(3.13519e-06 -1.19737e-07 0)
(3.16747e-06 -1.2271e-07 0)
(3.20505e-06 -1.28152e-07 0)
(3.24699e-06 -1.34688e-07 0)
(2.97334e-06 -3.5709e-07 0)
(2.95903e-06 -2.75812e-07 0)
(2.94936e-06 -2.24566e-07 0)
(2.9503e-06 -1.95027e-07 0)
(2.9592e-06 -1.79239e-07 0)
(2.97637e-06 -1.72735e-07 0)
(3.00045e-06 -1.72528e-07 0)
(3.03085e-06 -1.76542e-07 0)
(3.06681e-06 -1.83492e-07 0)
(3.10716e-06 -1.91849e-07 0)
(2.86107e-06 -4.39501e-07 0)
(2.82866e-06 -3.49703e-07 0)
(2.80753e-06 -2.93084e-07 0)
(2.80087e-06 -2.60788e-07 0)
(2.80469e-06 -2.43791e-07 0)
(2.81825e-06 -2.37187e-07 0)
(2.8397e-06 -2.37599e-07 0)
(2.86796e-06 -2.42776e-07 0)
(2.90205e-06 -2.51232e-07 0)
(2.94058e-06 -2.61361e-07 0)
(2.73011e-06 -5.23038e-07 0)
(2.67853e-06 -4.29665e-07 0)
(2.64528e-06 -3.70761e-07 0)
(2.63058e-06 -3.37623e-07 0)
(2.62904e-06 -3.20571e-07 0)
(2.63878e-06 -3.14565e-07 0)
(2.6574e-06 -3.15966e-07 0)
(2.68336e-06 -3.22422e-07 0)
(2.71543e-06 -3.32364e-07 0)
(2.75203e-06 -3.44172e-07 0)
(2.58214e-06 -6.07286e-07 0)
(2.5116e-06 -5.15467e-07 0)
(2.46637e-06 -4.57509e-07 0)
(2.44366e-06 -4.25577e-07 0)
(2.43679e-06 -4.09697e-07 0)
(2.44267e-06 -4.05035e-07 0)
(2.45838e-06 -4.0783e-07 0)
(2.48195e-06 -4.15754e-07 0)
(2.51188e-06 -4.2719e-07 0)
(2.54646e-06 -4.40619e-07 0)
(2.41911e-06 -6.91689e-07 0)
(2.33093e-06 -6.06394e-07 0)
(2.27456e-06 -5.52584e-07 0)
(2.24434e-06 -5.23858e-07 0)
(2.2324e-06 -5.10369e-07 0)
(2.2345e-06 -5.07757e-07 0)
(2.24728e-06 -5.1235e-07 0)
(2.2684e-06 -5.21906e-07 0)
(2.29613e-06 -5.34929e-07 0)
(2.3287e-06 -5.49758e-07 0)
(2.24294e-06 -7.75452e-07 0)
(2.13962e-06 -7.01289e-07 0)
(2.07366e-06 -6.54533e-07 0)
(2.0369e-06 -6.30889e-07 0)
(2.02042e-06 -6.20954e-07 0)
(2.0191e-06 -6.21096e-07 0)
(2.02921e-06 -6.27902e-07 0)
(2.04791e-06 -6.39445e-07 0)
(2.07352e-06 -6.54168e-07 0)
(2.10381e-06 -6.71189e-07 0)
(3.51782e-06 -1.67692e-08 0)
(3.57151e-06 -1.69974e-08 0)
(3.62861e-06 -1.72407e-08 0)
(3.6889e-06 -1.74203e-08 0)
(3.75201e-06 -1.75284e-08 0)
(3.81772e-06 -1.75551e-08 0)
(3.88572e-06 -1.74572e-08 0)
(3.95575e-06 -1.7253e-08 0)
(4.02763e-06 -1.69597e-08 0)
(4.10113e-06 -1.65579e-08 0)
(4.17603e-06 -1.60244e-08 0)
(4.25211e-06 -1.53483e-08 0)
(4.32916e-06 -1.4517e-08 0)
(4.40696e-06 -1.35224e-08 0)
(4.48531e-06 -1.23528e-08 0)
(4.56394e-06 -1.0986e-08 0)
(4.64269e-06 -9.38903e-09 0)
(4.72107e-06 -7.52551e-09 0)
(4.79915e-06 -5.3524e-09 0)
(4.87579e-06 -2.8521e-09 0)
(3.48148e-06 -5.19767e-08 0)
(3.53821e-06 -5.24199e-08 0)
(3.59801e-06 -5.29568e-08 0)
(3.66067e-06 -5.33388e-08 0)
(3.72591e-06 -5.34804e-08 0)
(3.79347e-06 -5.34032e-08 0)
(3.86315e-06 -5.30489e-08 0)
(3.93472e-06 -5.24202e-08 0)
(4.00801e-06 -5.14852e-08 0)
(4.08277e-06 -5.01948e-08 0)
(4.15882e-06 -4.85229e-08 0)
(4.23598e-06 -4.6458e-08 0)
(4.31406e-06 -4.39596e-08 0)
(4.39283e-06 -4.09779e-08 0)
(4.47211e-06 -3.74564e-08 0)
(4.55162e-06 -3.33321e-08 0)
(4.63121e-06 -2.8519e-08 0)
(4.7104e-06 -2.29225e-08 0)
(4.78929e-06 -1.64045e-08 0)
(4.86668e-06 -8.91028e-09 0)
(3.41014e-06 -9.17712e-08 0)
(3.47283e-06 -9.1766e-08 0)
(3.53795e-06 -9.19806e-08 0)
(3.60518e-06 -9.21029e-08 0)
(3.67452e-06 -9.19299e-08 0)
(3.74576e-06 -9.14842e-08 0)
(3.81876e-06 -9.06264e-08 0)
(3.8933e-06 -8.93406e-08 0)
(3.96928e-06 -8.75705e-08 0)
(4.04651e-06 -8.52608e-08 0)
(4.12485e-06 -8.23712e-08 0)
(4.20413e-06 -7.88619e-08 0)
(4.28418e-06 -7.46465e-08 0)
(4.3648e-06 -6.96351e-08 0)
(4.44582e-06 -6.37373e-08 0)
(4.52701e-06 -5.68507e-08 0)
(4.60823e-06 -4.88277e-08 0)
(4.68903e-06 -3.9513e-08 0)
(4.7695e-06 -2.86655e-08 0)
(4.8485e-06 -1.61951e-08 0)
(3.30587e-06 -1.38741e-07 0)
(3.37708e-06 -1.37251e-07 0)
(3.44988e-06 -1.36203e-07 0)
(3.52382e-06 -1.35334e-07 0)
(3.59919e-06 -1.34229e-07 0)
(3.67576e-06 -1.3292e-07 0)
(3.75358e-06 -1.31154e-07 0)
(3.83247e-06 -1.28907e-07 0)
(3.91245e-06 -1.26077e-07 0)
(3.99335e-06 -1.22574e-07 0)
(4.07508e-06 -1.18314e-07 0)
(4.15748e-06 -1.13223e-07 0)
(4.24044e-06 -1.07183e-07 0)
(4.32379e-06 -1.00078e-07 0)
(4.40741e-06 -9.17852e-08 0)
(4.49108e-06 -8.21409e-08 0)
(4.57468e-06 -7.09371e-08 0)
(4.65781e-06 -5.79459e-08 0)
(4.74054e-06 -4.28149e-08 0)
(4.82183e-06 -2.54409e-08 0)
(3.17185e-06 -1.95187e-07 0)
(3.25379e-06 -1.90861e-07 0)
(3.33635e-06 -1.87344e-07 0)
(3.41876e-06 -1.84562e-07 0)
(3.5018e-06 -1.81741e-07 0)
(3.5852e-06 -1.78939e-07 0)
(3.66922e-06 -1.75761e-07 0)
(3.75374e-06 -1.72152e-07 0)
(3.83884e-06 -1.67925e-07 0)
(3.92442e-06 -1.62944e-07 0)
(4.01047e-06 -1.57099e-07 0)
(4.09692e-06 -1.50271e-07 0)
(4.18367e-06 -1.42302e-07 0)
(4.2706e-06 -1.33031e-07 0)
(4.35761e-06 -1.22291e-07 0)
(4.44449e-06 -1.0986e-07 0)
(4.53121e-06 -9.54711e-08 0)
(4.61734e-06 -7.88297e-08 0)
(4.70304e-06 -5.94711e-08 0)
(4.78728e-06 -3.72747e-08 0)
(3.01182e-06 -2.62793e-07 0)
(3.10609e-06 -2.54055e-07 0)
(3.20009e-06 -2.46618e-07 0)
(3.29253e-06 -2.4079e-07 0)
(3.38471e-06 -2.35327e-07 0)
(3.47629e-06 -2.30277e-07 0)
(3.56768e-06 -2.25056e-07 0)
(3.65893e-06 -2.19559e-07 0)
(3.75018e-06 -2.1353e-07 0)
(3.84143e-06 -2.06768e-07 0)
(3.93273e-06 -1.99108e-07 0)
(4.02405e-06 -1.90377e-07 0)
(4.11536e-06 -1.80357e-07 0)
(4.20655e-06 -1.68843e-07 0)
(4.2976e-06 -1.55609e-07 0)
(4.38835e-06 -1.40388e-07 0)
(4.4788e-06 -1.22834e-07 0)
(4.56853e-06 -1.02601e-07 0)
(4.65781e-06 -7.91154e-08 0)
(4.74561e-06 -5.21951e-08 0)
(2.8303e-06 -3.42532e-07 0)
(2.938e-06 -3.27807e-07 0)
(3.04462e-06 -3.15025e-07 0)
(3.14821e-06 -3.04931e-07 0)
(3.25055e-06 -2.95828e-07 0)
(3.35132e-06 -2.87667e-07 0)
(3.45109e-06 -2.79746e-07 0)
(3.54997e-06 -2.71818e-07 0)
(3.64824e-06 -2.63549e-07 0)
(3.74598e-06 -2.5466e-07 0)
(3.8433e-06 -2.44908e-07 0)
(3.94021e-06 -2.34046e-07 0)
(4.03672e-06 -2.21806e-07 0)
(4.13283e-06 -2.07934e-07 0)
(4.22855e-06 -1.92144e-07 0)
(4.32375e-06 -1.74114e-07 0)
(4.41848e-06 -1.53421e-07 0)
(4.51238e-06 -1.29652e-07 0)
(4.60573e-06 -1.0214e-07 0)
(4.69762e-06 -7.06316e-08 0)
(2.63169e-06 -4.34689e-07 0)
(2.75323e-06 -4.12174e-07 0)
(2.87313e-06 -3.92572e-07 0)
(2.98867e-06 -3.76843e-07 0)
(3.10204e-06 -3.63075e-07 0)
(3.21281e-06 -3.50907e-07 0)
(3.3218e-06 -3.39587e-07 0)
(3.42914e-06 -3.28669e-07 0)
(3.53518e-06 -3.17719e-07 0)
(3.64008e-06 -3.0636e-07 0)
(3.74403e-06 -2.94256e-07 0)
(3.84711e-06 -2.81081e-07 0)
(3.9494e-06 -2.66504e-07 0)
(4.05097e-06 -2.50214e-07 0)
(4.15186e-06 -2.31856e-07 0)
(4.25201e-06 -2.11044e-07 0)
(4.35148e-06 -1.87281e-07 0)
(4.45001e-06 -1.60079e-07 0)
(4.54787e-06 -1.28679e-07 0)
(4.64429e-06 -9.27595e-08 0)
(2.4208e-06 -5.39047e-07 0)
(2.55621e-06 -5.07346e-07 0)
(2.68944e-06 -4.80035e-07 0)
(2.81733e-06 -4.57495e-07 0)
(2.94207e-06 -4.38107e-07 0)
(3.06339e-06 -4.21071e-07 0)
(3.18207e-06 -4.05607e-07 0)
(3.29838e-06 -3.91064e-07 0)
(3.4127e-06 -3.76906e-07 0)
(3.52529e-06 -3.6264e-07 0)
(3.63638e-06 -3.47831e-07 0)
(3.74613e-06 -3.32073e-07 0)
(3.85469e-06 -3.14964e-07 0)
(3.96218e-06 -2.96122e-07 0)
(4.06868e-06 -2.75118e-07 0)
(4.1742e-06 -2.51489e-07 0)
(4.27881e-06 -2.24673e-07 0)
(4.38233e-06 -1.94102e-07 0)
(4.48509e-06 -1.58951e-07 0)
(4.58644e-06 -1.18826e-07 0)
(2.20169e-06 -6.53841e-07 0)
(2.35136e-06 -6.1045e-07 0)
(2.4975e-06 -5.74378e-07 0)
(2.63812e-06 -5.43957e-07 0)
(2.77441e-06 -5.18108e-07 0)
(2.90669e-06 -4.9555e-07 0)
(3.03543e-06 -4.75398e-07 0)
(3.16109e-06 -4.56825e-07 0)
(3.28407e-06 -4.3916e-07 0)
(3.40469e-06 -4.21778e-07 0)
(3.52324e-06 -4.04136e-07 0)
(3.63996e-06 -3.85731e-07 0)
(3.75507e-06 -3.66079e-07 0)
(3.86872e-06 -3.44717e-07 0)
(3.98106e-06 -3.21141e-07 0)
(4.09214e-06 -2.94812e-07 0)
(4.20211e-06 -2.6511e-07 0)
(4.31085e-06 -2.31372e-07 0)
(4.41873e-06 -1.92719e-07 0)
(4.52526e-06 -1.48656e-07 0)
(2.03852e-06 -7.64845e-07 0)
(2.1978e-06 -7.11733e-07 0)
(2.35175e-06 -6.68939e-07 0)
(2.50042e-06 -6.32045e-07 0)
(2.6442e-06 -6.00371e-07 0)
(2.78359e-06 -5.72557e-07 0)
(2.91901e-06 -5.47646e-07 0)
(3.05091e-06 -5.24781e-07 0)
(3.17972e-06 -5.03215e-07 0)
(3.30575e-06 -4.82264e-07 0)
(3.42931e-06 -4.61326e-07 0)
(3.55068e-06 -4.39846e-07 0)
(3.67011e-06 -4.17283e-07 0)
(3.78779e-06 -3.93123e-07 0)
(3.90387e-06 -3.66815e-07 0)
(4.01849e-06 -3.37767e-07 0)
(4.1318e-06 -3.05354e-07 0)
(4.24382e-06 -2.68846e-07 0)
(4.35491e-06 -2.27362e-07 0)
(4.46473e-06 -1.80351e-07 0)
(1.94564e-06 -8.5533e-07 0)
(2.10619e-06 -8.00206e-07 0)
(2.26148e-06 -7.53657e-07 0)
(2.41226e-06 -7.12806e-07 0)
(2.55847e-06 -6.77011e-07 0)
(2.70043e-06 -6.45141e-07 0)
(2.83847e-06 -6.16302e-07 0)
(2.97294e-06 -5.89681e-07 0)
(3.10418e-06 -5.64536e-07 0)
(3.23248e-06 -5.40191e-07 0)
(3.35814e-06 -5.16047e-07 0)
(3.48143e-06 -4.91537e-07 0)
(3.60258e-06 -4.66104e-07 0)
(3.7218e-06 -4.39221e-07 0)
(3.83926e-06 -4.10329e-07 0)
(3.95514e-06 -3.78826e-07 0)
(4.06959e-06 -3.44119e-07 0)
(4.18273e-06 -3.05474e-07 0)
(4.29491e-06 -2.62038e-07 0)
(4.40591e-06 -2.13282e-07 0)
(1.86663e-06 -9.41966e-07 0)
(2.02564e-06 -8.85632e-07 0)
(2.18079e-06 -8.36709e-07 0)
(2.332e-06 -7.92909e-07 0)
(2.4792e-06 -7.53764e-07 0)
(2.62246e-06 -7.1838e-07 0)
(2.76203e-06 -6.85989e-07 0)
(2.8981e-06 -6.55856e-07 0)
(3.03096e-06 -6.2729e-07 0)
(3.16084e-06 -5.99656e-07 0)
(3.28801e-06 -5.72371e-07 0)
(3.41273e-06 -5.44873e-07 0)
(3.53521e-06 -5.16603e-07 0)
(3.65565e-06 -4.87038e-07 0)
(3.77423e-06 -4.55628e-07 0)
(3.89116e-06 -4.21771e-07 0)
(4.00661e-06 -3.84903e-07 0)
(4.12074e-06 -3.4432e-07 0)
(4.23389e-06 -2.99206e-07 0)
(4.34602e-06 -2.49079e-07 0)
(1.79704e-06 -1.02565e-06 0)
(1.95384e-06 -9.68775e-07 0)
(2.10771e-06 -9.18073e-07 0)
(2.25828e-06 -8.71837e-07 0)
(2.40538e-06 -8.29806e-07 0)
(2.54899e-06 -7.91301e-07 0)
(2.68919e-06 -7.55681e-07 0)
(2.82609e-06 -7.22297e-07 0)
(2.9599e-06 -6.90523e-07 0)
(3.09081e-06 -6.59774e-07 0)
(3.21903e-06 -6.29497e-07 0)
(3.34478e-06 -5.99141e-07 0)
(3.46826e-06 -5.68159e-07 0)
(3.58966e-06 -5.36046e-07 0)
(3.70916e-06 -5.02261e-07 0)
(3.82698e-06 -4.66227e-07 0)
(3.9433e-06 -4.27404e-07 0)
(4.05833e-06 -3.8513e-07 0)
(4.17238e-06 -3.38651e-07 0)
(4.28558e-06 -2.87546e-07 0)
(1.73582e-06 -1.10575e-06 0)
(1.88978e-06 -1.04882e-06 0)
(2.04161e-06 -9.97007e-07 0)
(2.19072e-06 -9.48984e-07 0)
(2.33694e-06 -9.04653e-07 0)
(2.48011e-06 -8.63525e-07 0)
(2.62021e-06 -8.25078e-07 0)
(2.75729e-06 -7.88772e-07 0)
(2.89148e-06 -7.54061e-07 0)
(3.0229e-06 -7.20416e-07 0)
(3.15173e-06 -6.87327e-07 0)
(3.27813e-06 -6.54269e-07 0)
(3.4023e-06 -6.20717e-07 0)
(3.5244e-06 -5.86199e-07 0)
(3.64461e-06 -5.50185e-07 0)
(3.76315e-06 -5.12142e-07 0)
(3.88021e-06 -4.71552e-07 0)
(3.99603e-06 -4.27806e-07 0)
(4.1109e-06 -3.80232e-07 0)
(4.22509e-06 -3.28474e-07 0)
(1.68147e-06 -1.18248e-06 0)
(1.83227e-06 -1.12584e-06 0)
(1.98164e-06 -1.07336e-06 0)
(2.12873e-06 -1.02401e-06 0)
(2.2735e-06 -9.77847e-07 0)
(2.41562e-06 -9.34517e-07 0)
(2.55505e-06 -8.93625e-07 0)
(2.69177e-06 -8.54738e-07 0)
(2.82584e-06 -8.17384e-07 0)
(2.95734e-06 -7.81099e-07 0)
(3.08638e-06 -7.45422e-07 0)
(3.2131e-06 -7.09861e-07 0)
(3.33766e-06 -6.73926e-07 0)
(3.46021e-06 -6.37184e-07 0)
(3.58093e-06 -5.99121e-07 0)
(3.70003e-06 -5.59264e-07 0)
(3.81769e-06 -5.17114e-07 0)
(3.93417e-06 -4.72126e-07 0)
(4.04979e-06 -4.23721e-07 0)
(4.16483e-06 -3.7159e-07 0)
(1.63287e-06 -1.25593e-06 0)
(1.78038e-06 -1.19983e-06 0)
(1.92696e-06 -1.14703e-06 0)
(2.0717e-06 -1.09676e-06 0)
(2.21458e-06 -1.04918e-06 0)
(2.35521e-06 -1.00405e-06 0)
(2.49354e-06 -9.61084e-07 0)
(2.62946e-06 -9.19956e-07 0)
(2.76301e-06 -8.80262e-07 0)
(2.8942e-06 -8.41605e-07 0)
(3.02312e-06 -8.03579e-07 0)
(3.14986e-06 -7.65731e-07 0)
(3.27455e-06 -7.27615e-07 0)
(3.39733e-06 -6.88844e-07 0)
(3.51837e-06 -6.48921e-07 0)
(3.63786e-06 -6.07439e-07 0)
(3.756e-06 -5.6393e-07 0)
(3.87305e-06 -5.17918e-07 0)
(3.98931e-06 -4.68908e-07 0)
(4.10506e-06 -4.16629e-07 0)
(1.589e-06 -1.32629e-06 0)
(1.73319e-06 -1.27089e-06 0)
(1.87681e-06 -1.21802e-06 0)
(2.019e-06 -1.16715e-06 0)
(2.15969e-06 -1.11848e-06 0)
(2.29852e-06 -1.07189e-06 0)
(2.4354e-06 -1.0272e-06 0)
(2.57019e-06 -9.84153e-07 0)
(2.70289e-06 -9.42416e-07 0)
(2.83346e-06 -9.01661e-07 0)
(2.96197e-06 -8.61536e-07 0)
(3.08848e-06 -8.21635e-07 0)
(3.21308e-06 -7.81556e-07 0)
(3.33591e-06 -7.40963e-07 0)
(3.45711e-06 -6.99385e-07 0)
(3.57687e-06 -6.56473e-07 0)
(3.69537e-06 -6.11808e-07 0)
(3.81289e-06 -5.64975e-07 0)
(3.92968e-06 -5.15554e-07 0)
(4.04604e-06 -4.63319e-07 0)
(1.54895e-06 -1.39379e-06 0)
(1.68983e-06 -1.33915e-06 0)
(1.83043e-06 -1.28641e-06 0)
(1.96993e-06 -1.23516e-06 0)
(2.10827e-06 -1.1857e-06 0)
(2.24509e-06 -1.13795e-06 0)
(2.38029e-06 -1.09184e-06 0)
(2.51372e-06 -1.04717e-06 0)
(2.64531e-06 -1.00368e-06 0)
(2.77504e-06 -9.61097e-07 0)
(2.90293e-06 -9.19129e-07 0)
(3.029e-06 -8.77413e-07 0)
(3.15335e-06 -8.35597e-07 0)
(3.27607e-06 -7.93391e-07 0)
(3.3973e-06 -7.50362e-07 0)
(3.51722e-06 -7.06215e-07 0)
(3.63599e-06 -6.60585e-07 0)
(3.75387e-06 -6.13108e-07 0)
(3.87107e-06 -5.63441e-07 0)
(3.988e-06 -5.11415e-07 0)
(1.51191e-06 -1.45863e-06 0)
(1.64953e-06 -1.4048e-06 0)
(1.78713e-06 -1.35229e-06 0)
(1.92388e-06 -1.30087e-06 0)
(2.05979e-06 -1.25082e-06 0)
(2.1945e-06 -1.20218e-06 0)
(2.32788e-06 -1.15492e-06 0)
(2.45978e-06 -1.10891e-06 0)
(2.59011e-06 -1.06392e-06 0)
(2.71882e-06 -1.01978e-06 0)
(2.84592e-06 -9.76213e-07 0)
(2.97141e-06 -9.32918e-07 0)
(3.09536e-06 -8.8959e-07 0)
(3.21786e-06 -8.45981e-07 0)
(3.33901e-06 -8.01703e-07 0)
(3.45898e-06 -7.56511e-07 0)
(3.57791e-06 -7.10092e-07 0)
(3.69606e-06 -6.62127e-07 0)
(3.81359e-06 -6.12357e-07 0)
(3.93097e-06 -5.60674e-07 0)
(1.47713e-06 -1.52104e-06 0)
(1.61161e-06 -1.46802e-06 0)
(1.74626e-06 -1.41583e-06 0)
(1.8803e-06 -1.36435e-06 0)
(2.01378e-06 -1.31393e-06 0)
(2.14632e-06 -1.26461e-06 0)
(2.2778e-06 -1.21643e-06 0)
(2.40807e-06 -1.1693e-06 0)
(2.53702e-06 -1.12308e-06 0)
(2.66461e-06 -1.07761e-06 0)
(2.7908e-06 -1.03269e-06 0)
(2.91559e-06 -9.88049e-07 0)
(3.03905e-06 -9.43424e-07 0)
(3.16122e-06 -8.98616e-07 0)
(3.28221e-06 -8.53279e-07 0)
(3.40215e-06 -8.07218e-07 0)
(3.52116e-06 -7.60163e-07 0)
(3.63947e-06 -7.11849e-07 0)
(3.7573e-06 -6.62102e-07 0)
(3.87498e-06 -6.10851e-07 0)
(1.444e-06 -1.58125e-06 0)
(1.57547e-06 -1.529e-06 0)
(1.70725e-06 -1.47717e-06 0)
(1.83867e-06 -1.42575e-06 0)
(1.96973e-06 -1.37508e-06 0)
(2.10009e-06 -1.32526e-06 0)
(2.22964e-06 -1.27636e-06 0)
(2.35824e-06 -1.22835e-06 0)
(2.48576e-06 -1.18112e-06 0)
(2.61216e-06 -1.13455e-06 0)
(2.73739e-06 -1.0885e-06 0)
(2.86144e-06 -1.04272e-06 0)
(2.98434e-06 -9.97005e-07 0)
(3.10613e-06 -9.51192e-07 0)
(3.2269e-06 -9.04976e-07 0)
(3.34675e-06 -8.58204e-07 0)
(3.46578e-06 -8.10651e-07 0)
(3.58421e-06 -7.62114e-07 0)
(3.70225e-06 -7.12489e-07 0)
(3.82015e-06 -6.6171e-07 0)
(1.41197e-06 -1.63943e-06 0)
(1.54056e-06 -1.58791e-06 0)
(1.66959e-06 -1.53647e-06 0)
(1.79846e-06 -1.48519e-06 0)
(1.92716e-06 -1.43439e-06 0)
(2.05539e-06 -1.38421e-06 0)
(2.18303e-06 -1.33478e-06 0)
(2.30997e-06 -1.28607e-06 0)
(2.43607e-06 -1.23803e-06 0)
(2.56128e-06 -1.19058e-06 0)
(2.68554e-06 -1.1436e-06 0)
(2.80881e-06 -1.09689e-06 0)
(2.93113e-06 -1.05028e-06 0)
(3.0525e-06 -1.00365e-06 0)
(3.17299e-06 -9.56715e-07 0)
(3.29269e-06 -9.09372e-07 0)
(3.41168e-06 -8.61445e-07 0)
(3.5302e-06 -8.1279e-07 0)
(3.64832e-06 -7.63349e-07 0)
(3.76643e-06 -7.13082e-07 0)
(1.38052e-06 -1.69576e-06 0)
(1.50637e-06 -1.64494e-06 0)
(1.63277e-06 -1.5939e-06 0)
(1.75918e-06 -1.54279e-06 0)
(1.88562e-06 -1.49196e-06 0)
(2.01179e-06 -1.44155e-06 0)
(2.13763e-06 -1.39174e-06 0)
(2.26295e-06 -1.34252e-06 0)
(2.38768e-06 -1.29386e-06 0)
(2.51171e-06 -1.24571e-06 0)
(2.63499e-06 -1.198e-06 0)
(2.75749e-06 -1.15054e-06 0)
(2.87921e-06 -1.10321e-06 0)
(3.00015e-06 -1.0559e-06 0)
(3.12034e-06 -1.0084e-06 0)
(3.23987e-06 -9.60608e-07 0)
(3.35879e-06 -9.12418e-07 0)
(3.47733e-06 -8.63721e-07 0)
(3.5955e-06 -8.14503e-07 0)
(3.71371e-06 -7.64791e-07 0)
(1.34909e-06 -1.75042e-06 0)
(1.47235e-06 -1.70023e-06 0)
(1.59625e-06 -1.64959e-06 0)
(1.72034e-06 -1.5987e-06 0)
(1.84465e-06 -1.54792e-06 0)
(1.9689e-06 -1.49741e-06 0)
(2.09302e-06 -1.44735e-06 0)
(2.21681e-06 -1.39777e-06 0)
(2.34023e-06 -1.34865e-06 0)
(2.46317e-06 -1.29997e-06 0)
(2.58555e-06 -1.25169e-06 0)
(2.70732e-06 -1.20366e-06 0)
(2.82848e-06 -1.15577e-06 0)
(2.94901e-06 -1.10794e-06 0)
(3.06891e-06 -1.05999e-06 0)
(3.18826e-06 -1.01186e-06 0)
(3.30711e-06 -9.6349e-07 0)
(3.4256e-06 -9.14812e-07 0)
(3.54384e-06 -8.65856e-07 0)
(3.66208e-06 -8.16682e-07 0)
(1.31717e-06 -1.80354e-06 0)
(1.43796e-06 -1.75399e-06 0)
(1.55949e-06 -1.70369e-06 0)
(1.68145e-06 -1.65307e-06 0)
(1.8038e-06 -1.60242e-06 0)
(1.92628e-06 -1.5519e-06 0)
(2.04882e-06 -1.50172e-06 0)
(2.17126e-06 -1.45191e-06 0)
(2.29349e-06 -1.40249e-06 0)
(2.41541e-06 -1.35344e-06 0)
(2.53695e-06 -1.30475e-06 0)
(2.65806e-06 -1.25629e-06 0)
(2.7787e-06 -1.20797e-06 0)
(2.89884e-06 -1.15974e-06 0)
(3.01847e-06 -1.11144e-06 0)
(3.13766e-06 -1.06307e-06 0)
(3.25643e-06 -1.01459e-06 0)
(3.37487e-06 -9.65958e-07 0)
(3.49312e-06 -9.1728e-07 0)
(3.61139e-06 -8.68627e-07 0)
(1.2842e-06 -1.85532e-06 0)
(1.40262e-06 -1.80622e-06 0)
(1.52192e-06 -1.75638e-06 0)
(1.64202e-06 -1.70611e-06 0)
(1.76258e-06 -1.65564e-06 0)
(1.88351e-06 -1.60521e-06 0)
(2.00465e-06 -1.55501e-06 0)
(2.12589e-06 -1.50509e-06 0)
(2.24708e-06 -1.45548e-06 0)
(2.36814e-06 -1.40619e-06 0)
(2.48898e-06 -1.35723e-06 0)
(2.60952e-06 -1.30847e-06 0)
(2.72971e-06 -1.25983e-06 0)
(2.84953e-06 -1.2113e-06 0)
(2.96894e-06 -1.16276e-06 0)
(3.08801e-06 -1.11421e-06 0)
(3.2067e-06 -1.06565e-06 0)
(3.32514e-06 -1.01708e-06 0)
(3.44333e-06 -9.68675e-07 0)
(3.5616e-06 -9.20504e-07 0)
(1.24945e-06 -1.90572e-06 0)
(1.36583e-06 -1.85715e-06 0)
(1.4833e-06 -1.80784e-06 0)
(1.60162e-06 -1.75793e-06 0)
(1.72066e-06 -1.70773e-06 0)
(1.84024e-06 -1.65746e-06 0)
(1.96022e-06 -1.60732e-06 0)
(2.08044e-06 -1.55741e-06 0)
(2.20079e-06 -1.50775e-06 0)
(2.32115e-06 -1.45834e-06 0)
(2.44143e-06 -1.40921e-06 0)
(2.56151e-06 -1.36025e-06 0)
(2.68135e-06 -1.3114e-06 0)
(2.80094e-06 -1.26268e-06 0)
(2.92021e-06 -1.21396e-06 0)
(3.03919e-06 -1.16529e-06 0)
(3.15783e-06 -1.11666e-06 0)
(3.27631e-06 -1.06814e-06 0)
(3.39452e-06 -1.01997e-06 0)
(3.51271e-06 -9.72262e-07 0)
(1.2124e-06 -1.95524e-06 0)
(1.32692e-06 -1.90726e-06 0)
(1.44276e-06 -1.85838e-06 0)
(1.55964e-06 -1.80886e-06 0)
(1.67745e-06 -1.75897e-06 0)
(1.79597e-06 -1.70893e-06 0)
(1.91507e-06 -1.65895e-06 0)
(2.03457e-06 -1.60912e-06 0)
(2.15432e-06 -1.55948e-06 0)
(2.27419e-06 -1.51004e-06 0)
(2.39406e-06 -1.46082e-06 0)
(2.51385e-06 -1.41174e-06 0)
(2.63349e-06 -1.36277e-06 0)
(2.75291e-06 -1.31393e-06 0)
(2.87209e-06 -1.26506e-06 0)
(2.99105e-06 -1.21626e-06 0)
(3.10977e-06 -1.16761e-06 0)
(3.22825e-06 -1.11912e-06 0)
(3.34654e-06 -1.07108e-06 0)
(3.46473e-06 -1.02375e-06 0)
(1.17263e-06 -2.00354e-06 0)
(1.28555e-06 -1.95621e-06 0)
(1.40004e-06 -1.90792e-06 0)
(1.51582e-06 -1.8589e-06 0)
(1.63272e-06 -1.80941e-06 0)
(1.75055e-06 -1.7597e-06 0)
(1.8691e-06 -1.70998e-06 0)
(1.98818e-06 -1.66033e-06 0)
(2.1076e-06 -1.61077e-06 0)
(2.22722e-06 -1.56136e-06 0)
(2.34691e-06 -1.51215e-06 0)
(2.46654e-06 -1.46304e-06 0)
(2.58608e-06 -1.41398e-06 0)
(2.70544e-06 -1.36503e-06 0)
(2.8246e-06 -1.31612e-06 0)
(2.94358e-06 -1.26723e-06 0)
(3.06243e-06 -1.21851e-06 0)
(3.18104e-06 -1.16999e-06 0)
(3.29954e-06 -1.12199e-06 0)
(3.41783e-06 -1.07488e-06 0)
(8.49846e-08 -1.70738e-06 0)
(2.5608e-07 -1.68229e-06 0)
(4.30499e-07 -1.63308e-06 0)
(6.10169e-07 -1.56178e-06 0)
(7.96558e-07 -1.47114e-06 0)
(9.90601e-07 -1.36451e-06 0)
(1.19264e-06 -1.24587e-06 0)
(1.40229e-06 -1.11924e-06 0)
(1.61898e-06 -9.88721e-07 0)
(1.84088e-06 -8.57517e-07 0)
(8.26367e-08 -1.73602e-06 0)
(2.48878e-07 -1.71309e-06 0)
(4.17858e-07 -1.66808e-06 0)
(5.91222e-07 -1.60271e-06 0)
(7.70207e-07 -1.51932e-06 0)
(9.55582e-07 -1.42078e-06 0)
(1.1477e-06 -1.31044e-06 0)
(1.34605e-06 -1.19183e-06 0)
(1.54994e-06 -1.06863e-06 0)
(1.75758e-06 -9.43866e-07 0)
(8.05409e-08 -1.76532e-06 0)
(2.42434e-07 -1.74434e-06 0)
(4.06562e-07 -1.70312e-06 0)
(5.74214e-07 -1.64316e-06 0)
(7.46475e-07 -1.56649e-06 0)
(9.23932e-07 -1.4756e-06 0)
(1.10698e-06 -1.37337e-06 0)
(1.29533e-06 -1.26279e-06 0)
(1.48851e-06 -1.14699e-06 0)
(1.68522e-06 -1.02824e-06 0)
(7.86897e-08 -1.79532e-06 0)
(2.36718e-07 -1.776e-06 0)
(3.96649e-07 -1.73803e-06 0)
(5.59446e-07 -1.6827e-06 0)
(7.26063e-07 -1.61182e-06 0)
(8.96938e-07 -1.52758e-06 0)
(1.07238e-06 -1.43249e-06 0)
(1.2521e-06 -1.32925e-06 0)
(1.4357e-06 -1.22073e-06 0)
(1.62209e-06 -1.10887e-06 0)
(7.70006e-08 -1.82603e-06 0)
(2.31478e-07 -1.8082e-06 0)
(3.87559e-07 -1.77314e-06 0)
(5.45975e-07 -1.72199e-06 0)
(7.0754e-07 -1.65636e-06 0)
(8.72602e-07 -1.57821e-06 0)
(1.04143e-06 -1.48977e-06 0)
(1.2138e-06 -1.39332e-06 0)
(1.38938e-06 -1.29148e-06 0)
(1.56698e-06 -1.18605e-06 0)
(7.54122e-08 -1.8574e-06 0)
(2.26647e-07 -1.84086e-06 0)
(3.79206e-07 -1.80833e-06 0)
(5.33712e-07 -1.76085e-06 0)
(6.90823e-07 -1.69983e-06 0)
(8.5083e-07 -1.62708e-06 0)
(1.01389e-06 -1.5446e-06 0)
(1.17979e-06 -1.45441e-06 0)
(1.34836e-06 -1.3589e-06 0)
(1.51831e-06 -1.2598e-06 0)
(7.38941e-08 -1.88939e-06 0)
(2.22059e-07 -1.87402e-06 0)
(3.71321e-07 -1.84374e-06 0)
(5.22237e-07 -1.79956e-06 0)
(6.75295e-07 -1.7427e-06 0)
(8.30788e-07 -1.67481e-06 0)
(9.8881e-07 -1.59774e-06 0)
(1.1491e-06 -1.51325e-06 0)
(1.31163e-06 -1.42352e-06 0)
(1.47499e-06 -1.3303e-06 0)
(7.24635e-08 -1.92195e-06 0)
(2.17668e-07 -1.90761e-06 0)
(3.63817e-07 -1.87934e-06 0)
(5.1139e-07 -1.83807e-06 0)
(6.60753e-07 -1.78492e-06 0)
(8.12155e-07 -1.72139e-06 0)
(9.65681e-07 -1.64919e-06 0)
(1.12104e-06 -1.56994e-06 0)
(1.27828e-06 -1.48554e-06 0)
(1.43599e-06 -1.3978e-06 0)
(7.10661e-08 -1.95504e-06 0)
(2.13387e-07 -1.94161e-06 0)
(3.56552e-07 -1.91514e-06 0)
(5.00941e-07 -1.87649e-06 0)
(6.46869e-07 -1.82668e-06 0)
(7.94541e-07 -1.76708e-06 0)
(9.44012e-07 -1.69929e-06 0)
(1.09499e-06 -1.62479e-06 0)
(1.24759e-06 -1.54526e-06 0)
(1.4004e-06 -1.46255e-06 0)
(6.96566e-08 -1.98857e-06 0)
(2.09165e-07 -1.97597e-06 0)
(3.49425e-07 -1.95111e-06 0)
(4.90756e-07 -1.91481e-06 0)
(6.33426e-07 -1.86802e-06 0)
(7.7764e-07 -1.81196e-06 0)
(9.23404e-07 -1.74815e-06 0)
(1.07043e-06 -1.67797e-06 0)
(1.21889e-06 -1.60292e-06 0)
(1.36742e-06 -1.52479e-06 0)
(6.82363e-08 -2.02247e-06 0)
(2.04963e-07 -2.01064e-06 0)
(3.42334e-07 -1.98724e-06 0)
(4.80688e-07 -1.95306e-06 0)
(6.20223e-07 -1.90899e-06 0)
(7.61166e-07 -1.85615e-06 0)
(9.03496e-07 -1.79595e-06 0)
(1.04693e-06 -1.72969e-06 0)
(1.19164e-06 -1.65872e-06 0)
(1.33636e-06 -1.58478e-06 0)
(6.68186e-08 -2.05668e-06 0)
(2.00736e-07 -2.04555e-06 0)
(3.35195e-07 -2.02347e-06 0)
(4.70604e-07 -1.9912e-06 0)
(6.07091e-07 -1.9496e-06 0)
(7.44882e-07 -1.89969e-06 0)
(8.83974e-07 -1.84277e-06 0)
(1.02408e-06 -1.78009e-06 0)
(1.16535e-06 -1.71285e-06 0)
(1.30668e-06 -1.64272e-06 0)
(6.53842e-08 -2.09113e-06 0)
(1.96408e-07 -2.08063e-06 0)
(3.27908e-07 -2.05976e-06 0)
(4.60354e-07 -2.02923e-06 0)
(5.93832e-07 -1.98988e-06 0)
(7.28545e-07 -1.94264e-06 0)
(8.64525e-07 -1.88871e-06 0)
(1.00149e-06 -1.82929e-06 0)
(1.1396e-06 -1.76546e-06 0)
(1.27787e-06 -1.69882e-06 0)
(6.38916e-08 -2.12571e-06 0)
(1.91898e-07 -2.11577e-06 0)
(3.20369e-07 -2.09601e-06 0)
(4.49784e-07 -2.06709e-06 0)
(5.80238e-07 -2.0298e-06 0)
(7.11904e-07 -1.985e-06 0)
(8.44847e-07 -1.93381e-06 0)
(9.78822e-07 -1.87738e-06 0)
(1.11397e-06 -1.81669e-06 0)
(1.24941e-06 -1.75323e-06 0)
(6.23093e-08 -2.16034e-06 0)
(1.87147e-07 -2.15089e-06 0)
(3.12477e-07 -2.13217e-06 0)
(4.38755e-07 -2.10474e-06 0)
(5.66115e-07 -2.06934e-06 0)
(6.94713e-07 -2.0268e-06 0)
(8.24638e-07 -1.97815e-06 0)
(9.55704e-07 -1.92447e-06 0)
(1.08799e-06 -1.86668e-06 0)
(1.22077e-06 -1.80613e-06 0)
(6.0625e-08 -2.19482e-06 0)
(1.82114e-07 -2.18585e-06 0)
(3.04141e-07 -2.1681e-06 0)
(4.27129e-07 -2.14206e-06 0)
(5.51268e-07 -2.10842e-06 0)
(6.76718e-07 -2.06798e-06 0)
(8.03596e-07 -2.02169e-06 0)
(9.31772e-07 -1.97057e-06 0)
(1.06125e-06 -1.91546e-06 0)
(1.19147e-06 -1.85759e-06 0)
(5.88271e-08 -2.22913e-06 0)
(1.76738e-07 -2.2206e-06 0)
(2.95232e-07 -2.20377e-06 0)
(4.14722e-07 -2.17903e-06 0)
(5.35466e-07 -2.14706e-06 0)
(6.57633e-07 -2.10859e-06 0)
(7.81373e-07 -2.06453e-06 0)
(9.06577e-07 -2.0158e-06 0)
(1.03326e-06 -1.96318e-06 0)
(1.16095e-06 -1.90784e-06 0)
(5.68898e-08 -2.26293e-06 0)
(1.70929e-07 -2.25483e-06 0)
(2.85603e-07 -2.23886e-06 0)
(4.01333e-07 -2.21537e-06 0)
(5.18439e-07 -2.18499e-06 0)
(6.37131e-07 -2.14841e-06 0)
(7.57573e-07 -2.10645e-06 0)
(8.7967e-07 -2.06e-06 0)
(1.00351e-06 -2.00976e-06 0)
(1.12865e-06 -1.9568e-06 0)
(5.4765e-08 -2.29635e-06 0)
(1.64551e-07 -2.28867e-06 0)
(2.75038e-07 -2.27354e-06 0)
(3.86684e-07 -2.25126e-06 0)
(4.99848e-07 -2.22243e-06 0)
(6.1479e-07 -2.18767e-06 0)
(7.3169e-07 -2.14775e-06 0)
(8.50527e-07 -2.10347e-06 0)
(9.71357e-07 -2.05553e-06 0)
(1.0939e-06 -2.00487e-06 0)
(5.24306e-08 -2.32851e-06 0)
(1.57558e-07 -2.32125e-06 0)
(2.63458e-07 -2.30694e-06 0)
(3.70632e-07 -2.28588e-06 0)
(4.79505e-07 -2.25859e-06 0)
(5.90382e-07 -2.22566e-06 0)
(7.03458e-07 -2.18776e-06 0)
(8.18859e-07 -2.14566e-06 0)
(9.36531e-07 -2.10001e-06 0)
(1.05639e-06 -2.05165e-06 0)
)


// ************************************************************************* //
