/*--------------------------------*- C++ -*----------------------------------*\
| =========                 |                                                 |
| \\      /  F ield         | foam-extend: Open Source CFD                    |
|  \\    /   O peration     | Version:     4.1                                |
|   \\  /    A nd           | Web:         http://www.foam-extend.org         |
|    \\/     M anipulation  |                                                 |
\*---------------------------------------------------------------------------*/
FoamFile
{
    version     2.0;
    format      ascii;
    class       vectorField;
    location    "4";
    object      solidsCellD_iteration17;
}
// * * * * * * * * * * * * * * * * * * * * * * * * * * * * * * * * * * * * * //


1000
(
(2.06454e-06 -8.67469e-07 0)
(1.94819e-06 -8.07387e-07 0)
(1.87389e-06 -7.69329e-07 0)
(1.83124e-06 -7.51723e-07 0)
(1.8105e-06 -7.45841e-07 0)
(1.80569e-06 -7.48986e-07 0)
(1.81267e-06 -7.58045e-07 0)
(1.82841e-06 -7.71504e-07 0)
(1.85089e-06 -7.87947e-07 0)
(1.8784e-06 -8.06363e-07 0)
(1.86669e-06 -9.47626e-07 0)
(1.74286e-06 -9.05964e-07 0)
(1.66383e-06 -8.79558e-07 0)
(1.61767e-06 -8.69852e-07 0)
(1.59418e-06 -8.69214e-07 0)
(1.58691e-06 -8.76058e-07 0)
(1.59151e-06 -8.87731e-07 0)
(1.60481e-06 -9.03158e-07 0)
(1.6247e-06 -9.21153e-07 0)
(1.64908e-06 -9.4069e-07 0)
(1.66117e-06 -1.02362e-06 0)
(1.53469e-06 -1.00254e-06 0)
(1.45401e-06 -9.89177e-07 0)
(1.40634e-06 -9.88199e-07 0)
(1.38136e-06 -9.93287e-07 0)
(1.37241e-06 -1.00407e-06 0)
(1.3751e-06 -1.01848e-06 0)
(1.38626e-06 -1.03585e-06 0)
(1.40372e-06 -1.05537e-06 0)
(1.42552e-06 -1.07594e-06 0)
(1.44946e-06 -1.09406e-06 0)
(1.32565e-06 -1.09455e-06 0)
(1.24668e-06 -1.09488e-06 0)
(1.19961e-06 -1.10302e-06 0)
(1.17446e-06 -1.11404e-06 0)
(1.16462e-06 -1.12886e-06 0)
(1.16583e-06 -1.146e-06 0)
(1.17505e-06 -1.16532e-06 0)
(1.19022e-06 -1.18628e-06 0)
(1.20937e-06 -1.20797e-06 0)
(1.23306e-06 -1.15756e-06 0)
(1.11713e-06 -1.17943e-06 0)
(1.04322e-06 -1.19333e-06 0)
(9.98936e-07 -1.21046e-06 0)
(9.74935e-07 -1.22731e-06 0)
(9.64964e-07 -1.2461e-06 0)
(9.65133e-07 -1.26592e-06 0)
(9.72622e-07 -1.28713e-06 0)
(9.85535e-07 -1.30949e-06 0)
(1.00196e-06 -1.33233e-06 0)
(1.01295e-06 -1.21287e-06 0)
(9.10073e-07 -1.25475e-06 0)
(8.44509e-07 -1.28134e-06 0)
(8.05014e-07 -1.30687e-06 0)
(7.83382e-07 -1.32917e-06 0)
(7.74038e-07 -1.35164e-06 0)
(7.73594e-07 -1.37394e-06 0)
(7.79507e-07 -1.39689e-06 0)
(7.90139e-07 -1.42055e-06 0)
(8.03718e-07 -1.44453e-06 0)
(7.90281e-07 -1.25869e-06 0)
(7.04977e-07 -1.31809e-06 0)
(6.50613e-07 -1.35583e-06 0)
(6.17752e-07 -1.38875e-06 0)
(5.99639e-07 -1.41581e-06 0)
(5.91619e-07 -1.44149e-06 0)
(5.90904e-07 -1.46594e-06 0)
(5.95353e-07 -1.49042e-06 0)
(6.03655e-07 -1.51522e-06 0)
(6.14286e-07 -1.54023e-06 0)
(5.65734e-07 -1.29405e-06 0)
(5.01845e-07 -1.36753e-06 0)
(4.61141e-07 -1.41421e-06 0)
(4.36498e-07 -1.45303e-06 0)
(4.22861e-07 -1.48392e-06 0)
(4.16712e-07 -1.51219e-06 0)
(4.15976e-07 -1.53839e-06 0)
(4.19052e-07 -1.56412e-06 0)
(4.24999e-07 -1.58983e-06 0)
(4.32629e-07 -1.6157e-06 0)
(3.39964e-07 -1.3181e-06 0)
(3.00411e-07 -1.4014e-06 0)
(2.7524e-07 -1.45432e-06 0)
(2.59952e-07 -1.4973e-06 0)
(2.51438e-07 -1.53085e-06 0)
(2.47549e-07 -1.56092e-06 0)
(2.47027e-07 -1.58837e-06 0)
(2.48854e-07 -1.615e-06 0)
(2.52427e-07 -1.64136e-06 0)
(2.5701e-07 -1.66786e-06 0)
(1.1354e-07 -1.33022e-06 0)
(1.0015e-07 -1.41862e-06 0)
(9.15754e-08 -1.47473e-06 0)
(8.63681e-08 -1.51984e-06 0)
(8.34938e-08 -1.55478e-06 0)
(8.21621e-08 -1.58579e-06 0)
(8.19341e-08 -1.61385e-06 0)
(8.25204e-08 -1.64092e-06 0)
(8.37191e-08 -1.66764e-06 0)
(8.52437e-08 -1.69447e-06 0)
(3.22188e-06 -3.95436e-08 0)
(3.25063e-06 -2.8461e-08 0)
(3.26815e-06 -2.14404e-08 0)
(3.28703e-06 -1.73222e-08 0)
(3.30775e-06 -1.5033e-08 0)
(3.33318e-06 -1.39837e-08 0)
(3.36335e-06 -1.3809e-08 0)
(3.39857e-06 -1.41664e-08 0)
(3.43875e-06 -1.4907e-08 0)
(3.48336e-06 -1.58301e-08 0)
(3.19801e-06 -1.18665e-07 0)
(3.22194e-06 -8.60663e-08 0)
(3.23645e-06 -6.54004e-08 0)
(3.2533e-06 -5.33362e-08 0)
(3.27267e-06 -4.67529e-08 0)
(3.29714e-06 -4.37498e-08 0)
(3.32662e-06 -4.32195e-08 0)
(3.36128e-06 -4.43515e-08 0)
(3.40098e-06 -4.66498e-08 0)
(3.44509e-06 -4.94006e-08 0)
(3.15037e-06 -1.98435e-07 0)
(3.1651e-06 -1.46127e-07 0)
(3.17377e-06 -1.13015e-07 0)
(3.18677e-06 -9.36497e-08 0)
(3.20359e-06 -8.30969e-08 0)
(3.22626e-06 -7.84291e-08 0)
(3.25439e-06 -7.7742e-08 0)
(3.28799e-06 -7.96821e-08 0)
(3.32675e-06 -8.35117e-08 0)
(3.3699e-06 -8.81102e-08 0)
(3.07978e-06 -2.7924e-07 0)
(3.08143e-06 -2.10028e-07 0)
(3.08178e-06 -1.66285e-07 0)
(3.08929e-06 -1.40824e-07 0)
(3.10247e-06 -1.27002e-07 0)
(3.12259e-06 -1.21006e-07 0)
(3.14882e-06 -1.20325e-07 0)
(3.18091e-06 -1.23157e-07 0)
(3.21834e-06 -1.28477e-07 0)
(3.26013e-06 -1.34903e-07 0)
(2.98734e-06 -3.61288e-07 0)
(2.97283e-06 -2.78922e-07 0)
(2.9629e-06 -2.26907e-07 0)
(2.9636e-06 -1.96852e-07 0)
(2.97227e-06 -1.80692e-07 0)
(2.98921e-06 -1.73921e-07 0)
(3.01309e-06 -1.73507e-07 0)
(3.04328e-06 -1.77346e-07 0)
(3.07908e-06 -1.84147e-07 0)
(3.11923e-06 -1.92369e-07 0)
(2.87441e-06 -4.44662e-07 0)
(2.8416e-06 -3.53641e-07 0)
(2.82009e-06 -2.96152e-07 0)
(2.8131e-06 -2.63269e-07 0)
(2.81665e-06 -2.45847e-07 0)
(2.82995e-06 -2.38933e-07 0)
(2.85116e-06 -2.39107e-07 0)
(2.87919e-06 -2.44089e-07 0)
(2.9131e-06 -2.52376e-07 0)
(2.95138e-06 -2.62347e-07 0)
(2.74268e-06 -5.29161e-07 0)
(2.69053e-06 -4.34491e-07 0)
(2.65677e-06 -3.74649e-07 0)
(2.64165e-06 -3.40872e-07 0)
(2.63977e-06 -3.23357e-07 0)
(2.6492e-06 -3.17012e-07 0)
(2.66754e-06 -3.18153e-07 0)
(2.69324e-06 -3.24405e-07 0)
(2.72511e-06 -3.34163e-07 0)
(2.76143e-06 -3.45799e-07 0)
(2.5939e-06 -6.14378e-07 0)
(2.52259e-06 -5.21233e-07 0)
(2.47672e-06 -4.62308e-07 0)
(2.4535e-06 -4.29711e-07 0)
(2.44622e-06 -4.13349e-07 0)
(2.45175e-06 -4.08327e-07 0)
(2.46714e-06 -4.10848e-07 0)
(2.49042e-06 -4.18561e-07 0)
(2.52012e-06 -4.29801e-07 0)
(2.55437e-06 -4.43057e-07 0)
(2.42999e-06 -6.99747e-07 0)
(2.34087e-06 -6.13155e-07 0)
(2.28374e-06 -5.58374e-07 0)
(2.25293e-06 -5.28981e-07 0)
(2.24051e-06 -5.14997e-07 0)
(2.24222e-06 -5.12015e-07 0)
(2.25467e-06 -5.16326e-07 0)
(2.27547e-06 -5.2567e-07 0)
(2.30295e-06 -5.38505e-07 0)
(2.33518e-06 -5.53184e-07 0)
(2.25291e-06 -7.84462e-07 0)
(2.14847e-06 -7.09082e-07 0)
(2.08164e-06 -6.61388e-07 0)
(2.04424e-06 -6.37087e-07 0)
(2.02726e-06 -6.26649e-07 0)
(2.02553e-06 -6.26411e-07 0)
(2.03527e-06 -6.32915e-07 0)
(2.05363e-06 -6.44226e-07 0)
(2.07893e-06 -6.58736e-07 0)
(2.10892e-06 -6.75605e-07 0)
(3.53254e-06 -1.67443e-08 0)
(3.58613e-06 -1.69595e-08 0)
(3.64313e-06 -1.71919e-08 0)
(3.70334e-06 -1.73625e-08 0)
(3.76639e-06 -1.74629e-08 0)
(3.83202e-06 -1.74842e-08 0)
(3.89994e-06 -1.73825e-08 0)
(3.96992e-06 -1.71691e-08 0)
(4.04175e-06 -1.68597e-08 0)
(4.11519e-06 -1.64416e-08 0)
(4.19003e-06 -1.5894e-08 0)
(4.26604e-06 -1.52041e-08 0)
(4.34303e-06 -1.43565e-08 0)
(4.42076e-06 -1.33397e-08 0)
(4.49903e-06 -1.21417e-08 0)
(4.57756e-06 -1.07429e-08 0)
(4.65619e-06 -9.11275e-09 0)
(4.73443e-06 -7.21299e-09 0)
(4.81233e-06 -4.99718e-09 0)
(4.88873e-06 -2.44676e-09 0)
(3.49595e-06 -5.19273e-08 0)
(3.5526e-06 -5.23218e-08 0)
(3.61234e-06 -5.2825e-08 0)
(3.67494e-06 -5.31838e-08 0)
(3.7401e-06 -5.33071e-08 0)
(3.8076e-06 -5.32084e-08 0)
(3.87722e-06 -5.28261e-08 0)
(3.94874e-06 -5.21619e-08 0)
(4.02196e-06 -5.11892e-08 0)
(4.09668e-06 -4.98643e-08 0)
(4.17268e-06 -4.81535e-08 0)
(4.24978e-06 -4.60391e-08 0)
(4.32779e-06 -4.34805e-08 0)
(4.40649e-06 -4.04293e-08 0)
(4.48568e-06 -3.68295e-08 0)
(4.56509e-06 -3.26185e-08 0)
(4.64455e-06 -2.77086e-08 0)
(4.72359e-06 -2.19993e-08 0)
(4.80229e-06 -1.53459e-08 0)
(4.87946e-06 -7.69559e-09 0)
(3.42406e-06 -9.17529e-08 0)
(3.48672e-06 -9.16574e-08 0)
(3.55181e-06 -9.18131e-08 0)
(3.61904e-06 -9.18897e-08 0)
(3.68836e-06 -9.16756e-08 0)
(3.75955e-06 -9.11862e-08 0)
(3.83249e-06 -9.02794e-08 0)
(3.90699e-06 -8.89384e-08 0)
(3.98294e-06 -8.71104e-08 0)
(4.06013e-06 -8.47407e-08 0)
(4.13843e-06 -8.17778e-08 0)
(4.21766e-06 -7.81782e-08 0)
(4.29766e-06 -7.38596e-08 0)
(4.37821e-06 -6.87346e-08 0)
(4.45916e-06 -6.27107e-08 0)
(4.54026e-06 -5.56819e-08 0)
(4.62135e-06 -4.74967e-08 0)
(4.70199e-06 -3.79929e-08 0)
(4.78226e-06 -2.69167e-08 0)
(4.86102e-06 -1.41875e-08 0)
(3.31899e-06 -1.38847e-07 0)
(3.39026e-06 -1.37223e-07 0)
(3.4631e-06 -1.36084e-07 0)
(3.53708e-06 -1.35139e-07 0)
(3.61246e-06 -1.33958e-07 0)
(3.68902e-06 -1.32571e-07 0)
(3.76681e-06 -1.30725e-07 0)
(3.8457e-06 -1.28394e-07 0)
(3.92565e-06 -1.2548e-07 0)
(4.00652e-06 -1.21886e-07 0)
(4.08821e-06 -1.17518e-07 0)
(4.17057e-06 -1.123e-07 0)
(4.25349e-06 -1.0612e-07 0)
(4.33679e-06 -9.88604e-08 0)
(4.42034e-06 -9.03922e-08 0)
(4.50392e-06 -8.05479e-08 0)
(4.5874e-06 -6.91137e-08 0)
(4.67037e-06 -5.58568e-08 0)
(4.75293e-06 -4.04074e-08 0)
(4.83399e-06 -2.26719e-08 0)
(3.18394e-06 -1.95551e-07 0)
(3.26601e-06 -1.9103e-07 0)
(3.34869e-06 -1.87369e-07 0)
(3.43121e-06 -1.84461e-07 0)
(3.51433e-06 -1.81519e-07 0)
(3.59777e-06 -1.786e-07 0)
(3.68181e-06 -1.75311e-07 0)
(3.76634e-06 -1.71584e-07 0)
(3.85144e-06 -1.67239e-07 0)
(3.93702e-06 -1.62134e-07 0)
(4.02307e-06 -1.56145e-07 0)
(4.10948e-06 -1.49153e-07 0)
(4.19619e-06 -1.41004e-07 0)
(4.28306e-06 -1.31535e-07 0)
(4.37001e-06 -1.2057e-07 0)
(4.45681e-06 -1.07884e-07 0)
(4.54341e-06 -9.31981e-08 0)
(4.62939e-06 -7.62134e-08 0)
(4.71493e-06 -5.64486e-08 0)
(4.79897e-06 -3.37856e-08 0)
(3.0227e-06 -2.63566e-07 0)
(3.11722e-06 -2.5456e-07 0)
(3.21142e-06 -2.46911e-07 0)
(3.30403e-06 -2.40891e-07 0)
(3.39633e-06 -2.3525e-07 0)
(3.48798e-06 -2.30029e-07 0)
(3.57945e-06 -2.24652e-07 0)
(3.67076e-06 -2.19001e-07 0)
(3.76204e-06 -2.12816e-07 0)
(3.85331e-06 -2.05888e-07 0)
(3.94461e-06 -1.98042e-07 0)
(4.03592e-06 -1.89104e-07 0)
(4.12719e-06 -1.78864e-07 0)
(4.21834e-06 -1.6711e-07 0)
(4.30935e-06 -1.53605e-07 0)
(4.40003e-06 -1.38074e-07 0)
(4.49037e-06 -1.20161e-07 0)
(4.57997e-06 -9.9508e-08 0)
(4.6691e-06 -7.55281e-08 0)
(4.75672e-06 -4.80386e-08 0)
(2.83981e-06 -3.43881e-07 0)
(2.94785e-06 -3.28805e-07 0)
(3.05476e-06 -3.15726e-07 0)
(3.15859e-06 -3.05361e-07 0)
(3.26113e-06 -2.96009e-07 0)
(3.36203e-06 -2.87623e-07 0)
(3.46193e-06 -2.79487e-07 0)
(3.56093e-06 -2.71352e-07 0)
(3.65927e-06 -2.62876e-07 0)
(3.75704e-06 -2.53771e-07 0)
(3.85437e-06 -2.43785e-07 0)
(3.95127e-06 -2.32675e-07 0)
(4.04777e-06 -2.20174e-07 0)
(4.14387e-06 -2.0602e-07 0)
(4.23955e-06 -1.89913e-07 0)
(4.33469e-06 -1.71517e-07 0)
(4.42932e-06 -1.50401e-07 0)
(4.52311e-06 -1.26137e-07 0)
(4.61632e-06 -9.8046e-08 0)
(4.70804e-06 -6.58719e-08 0)
(2.63976e-06 -4.36776e-07 0)
(2.76174e-06 -4.13814e-07 0)
(2.88203e-06 -3.93809e-07 0)
(2.99788e-06 -3.77715e-07 0)
(3.11151e-06 -3.63613e-07 0)
(3.22249e-06 -3.51147e-07 0)
(3.33165e-06 -3.39548e-07 0)
(3.43912e-06 -3.28364e-07 0)
(3.54525e-06 -3.1715e-07 0)
(3.65021e-06 -3.05522e-07 0)
(3.75419e-06 -2.93137e-07 0)
(3.85729e-06 -2.79672e-07 0)
(3.9596e-06 -2.64792e-07 0)
(4.06117e-06 -2.48174e-07 0)
(4.16203e-06 -2.2945e-07 0)
(4.26213e-06 -2.08215e-07 0)
(4.36151e-06 -1.83966e-07 0)
(4.45992e-06 -1.56198e-07 0)
(4.55766e-06 -1.24142e-07 0)
(4.65391e-06 -8.74734e-08 0)
(2.42741e-06 -5.42039e-07 0)
(2.56332e-06 -5.09789e-07 0)
(2.69699e-06 -4.8197e-07 0)
(2.82525e-06 -4.5896e-07 0)
(2.9503e-06 -4.39149e-07 0)
(3.07189e-06 -4.21724e-07 0)
(3.19079e-06 -4.05902e-07 0)
(3.30727e-06 -3.91021e-07 0)
(3.42172e-06 -3.76533e-07 0)
(3.53441e-06 -3.61937e-07 0)
(3.64556e-06 -3.46795e-07 0)
(3.75536e-06 -3.30698e-07 0)
(3.86396e-06 -3.13237e-07 0)
(3.97146e-06 -2.94016e-07 0)
(4.07794e-06 -2.72591e-07 0)
(4.1834e-06 -2.48481e-07 0)
(4.28793e-06 -2.2112e-07 0)
(4.39135e-06 -1.89917e-07 0)
(4.49398e-06 -1.54041e-07 0)
(4.59517e-06 -1.13095e-07 0)
(2.20686e-06 -6.57845e-07 0)
(2.35701e-06 -6.13832e-07 0)
(2.50359e-06 -5.77139e-07 0)
(2.64461e-06 -5.46132e-07 0)
(2.78127e-06 -5.19754e-07 0)
(2.91385e-06 -4.96711e-07 0)
(3.04287e-06 -4.76117e-07 0)
(3.16875e-06 -4.57129e-07 0)
(3.2919e-06 -4.39063e-07 0)
(3.41265e-06 -4.21289e-07 0)
(3.5313e-06 -4.03256e-07 0)
(3.64811e-06 -3.84458e-07 0)
(3.76328e-06 -3.64399e-07 0)
(3.87697e-06 -3.42604e-07 0)
(3.9893e-06 -3.18551e-07 0)
(4.10034e-06 -2.91684e-07 0)
(4.21023e-06 -2.61381e-07 0)
(4.31888e-06 -2.26951e-07 0)
(4.42665e-06 -1.87513e-07 0)
(4.53304e-06 -1.42571e-07 0)
(2.04305e-06 -7.69463e-07 0)
(2.20262e-06 -7.15778e-07 0)
(2.35688e-06 -6.72345e-07 0)
(2.50588e-06 -6.34824e-07 0)
(2.64999e-06 -6.02559e-07 0)
(2.78968e-06 -5.74195e-07 0)
(2.92538e-06 -5.48775e-07 0)
(3.05752e-06 -5.25427e-07 0)
(3.1865e-06 -5.03398e-07 0)
(3.31268e-06 -4.81995e-07 0)
(3.43636e-06 -4.60612e-07 0)
(3.55784e-06 -4.38684e-07 0)
(3.67733e-06 -4.1566e-07 0)
(3.79504e-06 -3.91014e-07 0)
(3.91113e-06 -3.64176e-07 0)
(4.02571e-06 -3.34541e-07 0)
(4.13897e-06 -3.01478e-07 0)
(4.25091e-06 -2.64237e-07 0)
(4.36191e-06 -2.21924e-07 0)
(4.47163e-06 -1.74003e-07 0)
(1.94962e-06 -8.60188e-07 0)
(2.11044e-06 -8.04498e-07 0)
(2.26603e-06 -7.57343e-07 0)
(2.4171e-06 -7.1588e-07 0)
(2.56359e-06 -6.79487e-07 0)
(2.70582e-06 -6.47045e-07 0)
(2.8441e-06 -6.17662e-07 0)
(2.97878e-06 -5.90519e-07 0)
(3.11018e-06 -5.64868e-07 0)
(3.23861e-06 -5.4003e-07 0)
(3.36438e-06 -5.15397e-07 0)
(3.48776e-06 -4.90394e-07 0)
(3.60897e-06 -4.64455e-07 0)
(3.72821e-06 -4.37042e-07 0)
(3.84567e-06 -4.0758e-07 0)
(3.9615e-06 -3.75457e-07 0)
(4.07591e-06 -3.40068e-07 0)
(4.18897e-06 -3.00666e-07 0)
(4.30107e-06 -2.56384e-07 0)
(4.41201e-06 -2.06708e-07 0)
(1.86991e-06 -9.472e-07 0)
(2.02921e-06 -8.90238e-07 0)
(2.18463e-06 -8.40681e-07 0)
(2.33612e-06 -7.96248e-07 0)
(2.48358e-06 -7.56487e-07 0)
(2.62709e-06 -7.20507e-07 0)
(2.76687e-06 -6.87544e-07 0)
(2.90313e-06 -6.56857e-07 0)
(3.03613e-06 -6.2775e-07 0)
(3.16614e-06 -5.99585e-07 0)
(3.29343e-06 -5.71773e-07 0)
(3.41822e-06 -5.43741e-07 0)
(3.54074e-06 -5.14923e-07 0)
(3.66119e-06 -4.84792e-07 0)
(3.77977e-06 -4.52775e-07 0)
(3.89666e-06 -4.1827e-07 0)
(4.01206e-06 -3.80695e-07 0)
(4.12614e-06 -3.39339e-07 0)
(4.23924e-06 -2.93366e-07 0)
(4.35131e-06 -2.42317e-07 0)
(1.79961e-06 -1.03124e-06 0)
(1.9567e-06 -9.73696e-07 0)
(2.11085e-06 -9.22336e-07 0)
(2.26169e-06 -8.75445e-07 0)
(2.40903e-06 -8.32775e-07 0)
(2.55286e-06 -7.9365e-07 0)
(2.69326e-06 -7.57429e-07 0)
(2.83034e-06 -7.2346e-07 0)
(2.96429e-06 -6.91112e-07 0)
(3.09531e-06 -6.59797e-07 0)
(3.22363e-06 -6.28954e-07 0)
(3.34944e-06 -5.98024e-07 0)
(3.47295e-06 -5.66456e-07 0)
(3.59435e-06 -5.33742e-07 0)
(3.71384e-06 -4.9932e-07 0)
(3.83162e-06 -4.62614e-07 0)
(3.9479e-06 -4.23062e-07 0)
(4.06289e-06 -3.80003e-07 0)
(4.17689e-06 -3.32657e-07 0)
(4.29003e-06 -2.80628e-07 0)
(1.73774e-06 -1.11168e-06 0)
(1.89198e-06 -1.05404e-06 0)
(2.04409e-06 -1.00154e-06 0)
(2.19344e-06 -9.52835e-07 0)
(2.33989e-06 -9.07841e-07 0)
(2.48326e-06 -8.6607e-07 0)
(2.62354e-06 -8.26999e-07 0)
(2.76078e-06 -7.90081e-07 0)
(2.89509e-06 -7.54764e-07 0)
(3.02662e-06 -7.20519e-07 0)
(3.15552e-06 -6.8683e-07 0)
(3.28197e-06 -6.53161e-07 0)
(3.40615e-06 -6.1899e-07 0)
(3.52825e-06 -5.83841e-07 0)
(3.64844e-06 -5.47162e-07 0)
(3.76694e-06 -5.08429e-07 0)
(3.88397e-06 -4.67093e-07 0)
(3.99974e-06 -4.22552e-07 0)
(4.11456e-06 -3.74109e-07 0)
(4.22868e-06 -3.2143e-07 0)
(1.6828e-06 -1.18873e-06 0)
(1.83387e-06 -1.13135e-06 0)
(1.98348e-06 -1.07815e-06 0)
(2.1308e-06 -1.0281e-06 0)
(2.27576e-06 -9.81243e-07 0)
(2.41806e-06 -9.37246e-07 0)
(2.55766e-06 -8.95705e-07 0)
(2.69452e-06 -8.56178e-07 0)
(2.8287e-06 -8.18188e-07 0)
(2.96027e-06 -7.81272e-07 0)
(3.08937e-06 -7.44963e-07 0)
(3.21612e-06 -7.08758e-07 0)
(3.34068e-06 -6.72175e-07 0)
(3.46323e-06 -6.34777e-07 0)
(3.58392e-06 -5.96026e-07 0)
(3.70298e-06 -5.55461e-07 0)
(3.82061e-06 -5.12554e-07 0)
(3.93705e-06 -4.66765e-07 0)
(4.05261e-06 -4.17492e-07 0)
(4.16761e-06 -3.64447e-07 0)
(1.63367e-06 -1.26246e-06 0)
(1.7814e-06 -1.2056e-06 0)
(1.92819e-06 -1.15206e-06 0)
(2.07313e-06 -1.10106e-06 0)
(2.21619e-06 -1.05276e-06 0)
(2.35698e-06 -1.00694e-06 0)
(2.49544e-06 -9.63306e-07 0)
(2.63149e-06 -9.21512e-07 0)
(2.76512e-06 -8.81154e-07 0)
(2.89637e-06 -8.41836e-07 0)
(3.02533e-06 -8.03148e-07 0)
(3.15208e-06 -7.64629e-07 0)
(3.27677e-06 -7.2584e-07 0)
(3.39954e-06 -6.86391e-07 0)
(3.52055e-06 -6.45763e-07 0)
(3.64001e-06 -6.03558e-07 0)
(3.7581e-06 -5.59283e-07 0)
(3.8751e-06 -5.12467e-07 0)
(3.99132e-06 -4.62592e-07 0)
(4.10705e-06 -4.09411e-07 0)
(1.5893e-06 -1.33306e-06 0)
(1.73366e-06 -1.27688e-06 0)
(1.87745e-06 -1.22325e-06 0)
(2.0198e-06 -1.17163e-06 0)
(2.16065e-06 -1.12223e-06 0)
(2.29962e-06 -1.07493e-06 0)
(2.43662e-06 -1.02954e-06 0)
(2.57151e-06 -9.85804e-07 0)
(2.70427e-06 -9.43377e-07 0)
(2.83489e-06 -9.01935e-07 0)
(2.96341e-06 -8.61124e-07 0)
(3.08992e-06 -8.20528e-07 0)
(3.21452e-06 -7.79758e-07 0)
(3.33733e-06 -7.38466e-07 0)
(3.4585e-06 -6.96169e-07 0)
(3.57822e-06 -6.52524e-07 0)
(3.69667e-06 -6.07085e-07 0)
(3.81413e-06 -5.59448e-07 0)
(3.93088e-06 -5.09169e-07 0)
(4.04725e-06 -4.56051e-07 0)
(1.54877e-06 -1.40075e-06 0)
(1.68977e-06 -1.34533e-06 0)
(1.83051e-06 -1.29181e-06 0)
(1.97014e-06 -1.2398e-06 0)
(2.10861e-06 -1.18958e-06 0)
(2.24554e-06 -1.14111e-06 0)
(2.38084e-06 -1.09428e-06 0)
(2.51433e-06 -1.0489e-06 0)
(2.64597e-06 -1.00469e-06 0)
(2.77572e-06 -9.61402e-07 0)
(2.90361e-06 -9.18726e-07 0)
(3.02968e-06 -8.76297e-07 0)
(3.15401e-06 -8.33774e-07 0)
(3.27671e-06 -7.90855e-07 0)
(3.3979e-06 -7.47094e-07 0)
(3.51777e-06 -7.02206e-07 0)
(3.63649e-06 -6.55797e-07 0)
(3.75432e-06 -6.07518e-07 0)
(3.8715e-06 -5.57003e-07 0)
(3.9884e-06 -5.04114e-07 0)
(1.51127e-06 -1.46575e-06 0)
(1.64898e-06 -1.41113e-06 0)
(1.78667e-06 -1.35784e-06 0)
(1.92353e-06 -1.30563e-06 0)
(2.05953e-06 -1.25482e-06 0)
(2.19432e-06 -1.20544e-06 0)
(2.32776e-06 -1.15744e-06 0)
(2.45969e-06 -1.11069e-06 0)
(2.59004e-06 -1.06498e-06 0)
(2.71876e-06 -1.0201e-06 0)
(2.84585e-06 -9.75814e-07 0)
(2.97133e-06 -9.3179e-07 0)
(3.09526e-06 -8.87741e-07 0)
(3.21773e-06 -8.43407e-07 0)
(3.33884e-06 -7.98386e-07 0)
(3.45876e-06 -7.52446e-07 0)
(3.57764e-06 -7.05246e-07 0)
(3.69575e-06 -6.56482e-07 0)
(3.81325e-06 -6.0588e-07 0)
(3.93061e-06 -5.53354e-07 0)
(1.47608e-06 -1.52828e-06 0)
(1.6106e-06 -1.47447e-06 0)
(1.7453e-06 -1.42149e-06 0)
(1.8794e-06 -1.36922e-06 0)
(2.01292e-06 -1.31801e-06 0)
(2.1455e-06 -1.26793e-06 0)
(2.27701e-06 -1.219e-06 0)
(2.40728e-06 -1.17113e-06 0)
(2.53624e-06 -1.12416e-06 0)
(2.66382e-06 -1.07794e-06 0)
(2.79e-06 -1.03229e-06 0)
(2.91478e-06 -9.86902e-07 0)
(3.03821e-06 -9.41547e-07 0)
(3.16035e-06 -8.96003e-07 0)
(3.28129e-06 -8.49915e-07 0)
(3.40118e-06 -8.03101e-07 0)
(3.52015e-06 -7.55266e-07 0)
(3.63842e-06 -7.06161e-07 0)
(3.7562e-06 -6.55599e-07 0)
(3.87389e-06 -6.03526e-07 0)
(1.44254e-06 -1.58857e-06 0)
(1.57401e-06 -1.53553e-06 0)
(1.7058e-06 -1.4829e-06 0)
(1.83722e-06 -1.43069e-06 0)
(1.96828e-06 -1.37923e-06 0)
(2.09865e-06 -1.32863e-06 0)
(2.2282e-06 -1.27897e-06 0)
(2.35678e-06 -1.2302e-06 0)
(2.48429e-06 -1.1822e-06 0)
(2.61067e-06 -1.13488e-06 0)
(2.73588e-06 -1.08808e-06 0)
(2.8599e-06 -1.04155e-06 0)
(2.98277e-06 -9.95096e-07 0)
(3.10452e-06 -9.48538e-07 0)
(3.22522e-06 -9.01566e-07 0)
(3.34502e-06 -8.54038e-07 0)
(3.464e-06 -8.05708e-07 0)
(3.58239e-06 -7.56393e-07 0)
(3.70039e-06 -7.05968e-07 0)
(3.8183e-06 -6.54396e-07 0)
(1.4101e-06 -1.6468e-06 0)
(1.53865e-06 -1.59449e-06 0)
(1.66764e-06 -1.54225e-06 0)
(1.79647e-06 -1.49016e-06 0)
(1.92513e-06 -1.43857e-06 0)
(2.05332e-06 -1.3876e-06 0)
(2.18095e-06 -1.3374e-06 0)
(2.30784e-06 -1.28792e-06 0)
(2.43391e-06 -1.2391e-06 0)
(2.55908e-06 -1.19089e-06 0)
(2.6833e-06 -1.14316e-06 0)
(2.80655e-06 -1.09569e-06 0)
(2.92882e-06 -1.04834e-06 0)
(3.05014e-06 -1.00095e-06 0)
(3.17058e-06 -9.53256e-07 0)
(3.29023e-06 -9.05158e-07 0)
(3.40917e-06 -8.56461e-07 0)
(3.52763e-06 -8.0704e-07 0)
(3.64574e-06 -7.5682e-07 0)
(3.76384e-06 -7.05784e-07 0)
(1.37821e-06 -1.70315e-06 0)
(1.50398e-06 -1.65153e-06 0)
(1.63029e-06 -1.59969e-06 0)
(1.75663e-06 -1.54777e-06 0)
(1.883e-06 -1.49613e-06 0)
(2.0091e-06 -1.44494e-06 0)
(2.13488e-06 -1.39435e-06 0)
(2.26015e-06 -1.34435e-06 0)
(2.38482e-06 -1.29491e-06 0)
(2.50881e-06 -1.246e-06 0)
(2.63205e-06 -1.19752e-06 0)
(2.75451e-06 -1.1493e-06 0)
(2.87617e-06 -1.10122e-06 0)
(2.99706e-06 -1.05316e-06 0)
(3.1172e-06 -1.00489e-06 0)
(3.23667e-06 -9.5635e-07 0)
(3.35554e-06 -9.07399e-07 0)
(3.47403e-06 -8.5795e-07 0)
(3.59219e-06 -8.07978e-07 0)
(3.71041e-06 -7.57524e-07 0)
(1.3463e-06 -1.7578e-06 0)
(1.46944e-06 -1.70682e-06 0)
(1.59322e-06 -1.65537e-06 0)
(1.71721e-06 -1.60367e-06 0)
(1.84141e-06 -1.55208e-06 0)
(1.96557e-06 -1.50078e-06 0)
(2.0896e-06 -1.44994e-06 0)
(2.21333e-06 -1.39957e-06 0)
(2.33669e-06 -1.34967e-06 0)
(2.45956e-06 -1.30022e-06 0)
(2.58188e-06 -1.25118e-06 0)
(2.7036e-06 -1.20238e-06 0)
(2.8247e-06 -1.15373e-06 0)
(2.94517e-06 -1.10515e-06 0)
(3.06502e-06 -1.05643e-06 0)
(3.18431e-06 -1.00756e-06 0)
(3.30311e-06 -9.58439e-07 0)
(3.42158e-06 -9.09023e-07 0)
(3.53978e-06 -8.59339e-07 0)
(3.65805e-06 -8.09455e-07 0)
(1.31387e-06 -1.81088e-06 0)
(1.43451e-06 -1.76053e-06 0)
(1.55589e-06 -1.70944e-06 0)
(1.67772e-06 -1.658e-06 0)
(1.79993e-06 -1.60655e-06 0)
(1.9223e-06 -1.55524e-06 0)
(2.04473e-06 -1.50427e-06 0)
(2.16707e-06 -1.45367e-06 0)
(2.28922e-06 -1.40346e-06 0)
(2.41107e-06 -1.35365e-06 0)
(2.53256e-06 -1.3042e-06 0)
(2.65361e-06 -1.25497e-06 0)
(2.77419e-06 -1.20589e-06 0)
(2.89428e-06 -1.15691e-06 0)
(3.01386e-06 -1.10784e-06 0)
(3.13299e-06 -1.05873e-06 0)
(3.25173e-06 -1.00951e-06 0)
(3.37015e-06 -9.60161e-07 0)
(3.48838e-06 -9.10778e-07 0)
(3.60664e-06 -8.61445e-07 0)
(1.28036e-06 -1.8626e-06 0)
(1.39858e-06 -1.81271e-06 0)
(1.5177e-06 -1.76207e-06 0)
(1.63765e-06 -1.711e-06 0)
(1.75805e-06 -1.65973e-06 0)
(1.87886e-06 -1.6085e-06 0)
(1.99987e-06 -1.55751e-06 0)
(2.121e-06 -1.5068e-06 0)
(2.2421e-06 -1.4564e-06 0)
(2.36308e-06 -1.40636e-06 0)
(2.48385e-06 -1.35663e-06 0)
(2.60433e-06 -1.3071e-06 0)
(2.72447e-06 -1.25771e-06 0)
(2.84423e-06 -1.20843e-06 0)
(2.9636e-06 -1.15913e-06 0)
(3.08263e-06 -1.10984e-06 0)
(3.2013e-06 -1.06055e-06 0)
(3.31971e-06 -1.01128e-06 0)
(3.43791e-06 -9.62184e-07 0)
(3.55618e-06 -9.13376e-07 0)
(1.24498e-06 -1.91292e-06 0)
(1.36115e-06 -1.86356e-06 0)
(1.47843e-06 -1.81347e-06 0)
(1.59656e-06 -1.76276e-06 0)
(1.71543e-06 -1.71175e-06 0)
(1.83486e-06 -1.66069e-06 0)
(1.9547e-06 -1.60977e-06 0)
(2.07481e-06 -1.55907e-06 0)
(2.19507e-06 -1.50862e-06 0)
(2.31535e-06 -1.45846e-06 0)
(2.43555e-06 -1.40857e-06 0)
(2.55558e-06 -1.35885e-06 0)
(2.67538e-06 -1.30925e-06 0)
(2.79492e-06 -1.25977e-06 0)
(2.91416e-06 -1.2103e-06 0)
(3.03312e-06 -1.16089e-06 0)
(3.15175e-06 -1.11153e-06 0)
(3.27021e-06 -1.06233e-06 0)
(3.38842e-06 -1.0135e-06 0)
(3.50663e-06 -9.6518e-07 0)
(1.20725e-06 -1.96234e-06 0)
(1.32153e-06 -1.91358e-06 0)
(1.43715e-06 -1.86392e-06 0)
(1.55383e-06 -1.81362e-06 0)
(1.67145e-06 -1.76292e-06 0)
(1.78982e-06 -1.7121e-06 0)
(1.90878e-06 -1.66134e-06 0)
(2.02817e-06 -1.61073e-06 0)
(2.14783e-06 -1.56032e-06 0)
(2.26762e-06 -1.51012e-06 0)
(2.38743e-06 -1.46015e-06 0)
(2.50717e-06 -1.41031e-06 0)
(2.62677e-06 -1.3606e-06 0)
(2.74616e-06 -1.311e-06 0)
(2.86534e-06 -1.26138e-06 0)
(2.9843e-06 -1.21185e-06 0)
(3.10301e-06 -1.16247e-06 0)
(3.22153e-06 -1.1133e-06 0)
(3.33984e-06 -1.06462e-06 0)
(3.45803e-06 -1.01671e-06 0)
(1.16671e-06 -2.01052e-06 0)
(1.27938e-06 -1.96243e-06 0)
(1.39363e-06 -1.91338e-06 0)
(1.50919e-06 -1.86356e-06 0)
(1.62592e-06 -1.81329e-06 0)
(1.74359e-06 -1.76281e-06 0)
(1.86201e-06 -1.71232e-06 0)
(1.98098e-06 -1.6619e-06 0)
(2.10031e-06 -1.61157e-06 0)
(2.21987e-06 -1.56141e-06 0)
(2.33951e-06 -1.51146e-06 0)
(2.45911e-06 -1.4616e-06 0)
(2.57861e-06 -1.41179e-06 0)
(2.69797e-06 -1.36211e-06 0)
(2.81715e-06 -1.31244e-06 0)
(2.93616e-06 -1.26283e-06 0)
(3.05503e-06 -1.21339e-06 0)
(3.1737e-06 -1.16418e-06 0)
(3.29225e-06 -1.11555e-06 0)
(3.4106e-06 -1.0679e-06 0)
(8.49573e-08 -1.72193e-06 0)
(2.56013e-07 -1.69657e-06 0)
(4.30455e-07 -1.64683e-06 0)
(6.10227e-07 -1.57474e-06 0)
(7.96867e-07 -1.4831e-06 0)
(9.91335e-07 -1.37529e-06 0)
(1.19398e-06 -1.25535e-06 0)
(1.40441e-06 -1.12733e-06 0)
(1.62198e-06 -9.9541e-07 0)
(1.84492e-06 -8.62872e-07 0)
(8.25803e-08 -1.75046e-06 0)
(2.48714e-07 -1.72727e-06 0)
(4.17655e-07 -1.68177e-06 0)
(5.91048e-07 -1.61567e-06 0)
(7.70198e-07 -1.53137e-06 0)
(9.5591e-07 -1.43175e-06 0)
(1.14853e-06 -1.3202e-06 0)
(1.34757e-06 -1.20028e-06 0)
(1.55227e-06 -1.07574e-06 0)
(1.76091e-06 -9.49619e-07 0)
(8.04722e-08 -1.77963e-06 0)
(2.42221e-07 -1.75842e-06 0)
(4.06264e-07 -1.71675e-06 0)
(5.73908e-07 -1.65613e-06 0)
(7.46267e-07 -1.57862e-06 0)
(9.2398e-07 -1.48674e-06 0)
(1.10743e-06 -1.38338e-06 0)
(1.29634e-06 -1.27159e-06 0)
(1.49024e-06 -1.15452e-06 0)
(1.68783e-06 -1.03443e-06 0)
(7.86115e-08 -1.80952e-06 0)
(2.36479e-07 -1.78999e-06 0)
(3.96281e-07 -1.7516e-06 0)
(5.59037e-07 -1.69567e-06 0)
(7.25699e-07 -1.62402e-06 0)
(8.96758e-07 -1.53886e-06 0)
(1.07252e-06 -1.44273e-06 0)
(1.25269e-06 -1.33835e-06 0)
(1.43689e-06 -1.22862e-06 0)
(1.62403e-06 -1.11544e-06 0)
(7.69066e-08 -1.84011e-06 0)
(2.31211e-07 -1.82208e-06 0)
(3.87133e-07 -1.78665e-06 0)
(5.45477e-07 -1.73494e-06 0)
(7.07045e-07 -1.6686e-06 0)
(8.7223e-07 -1.5896e-06 0)
(1.0413e-06 -1.50018e-06 0)
(1.21403e-06 -1.40266e-06 0)
(1.3901e-06 -1.29968e-06 0)
(1.56834e-06 -1.19298e-06 0)
(7.53113e-08 -1.87138e-06 0)
(2.26353e-07 -1.85465e-06 0)
(3.78735e-07 -1.82177e-06 0)
(5.33139e-07 -1.77378e-06 0)
(6.90218e-07 -1.7121e-06 0)
(8.50287e-07 -1.63855e-06 0)
(1.01353e-06 -1.55516e-06 0)
(1.17971e-06 -1.46396e-06 0)
(1.34867e-06 -1.36736e-06 0)
(1.51915e-06 -1.26704e-06 0)
(7.37907e-08 -1.90327e-06 0)
(2.21744e-07 -1.88772e-06 0)
(3.70815e-07 -1.85712e-06 0)
(5.21595e-07 -1.81245e-06 0)
(6.74594e-07 -1.75497e-06 0)
(8.301e-07 -1.68634e-06 0)
(9.88236e-07 -1.60841e-06 0)
(1.14874e-06 -1.52297e-06 0)
(1.31158e-06 -1.43219e-06 0)
(1.47538e-06 -1.33781e-06 0)
(7.23467e-08 -1.93573e-06 0)
(2.17332e-07 -1.92122e-06 0)
(3.63278e-07 -1.89264e-06 0)
(5.10683e-07 -1.85093e-06 0)
(6.59958e-07 -1.79719e-06 0)
(8.11337e-07 -1.73296e-06 0)
(9.64923e-07 -1.65995e-06 0)
(1.12042e-06 -1.57978e-06 0)
(1.2779e-06 -1.49438e-06 0)
(1.43594e-06 -1.40553e-06 0)
(7.09327e-08 -1.96872e-06 0)
(2.13029e-07 -1.95514e-06 0)
(3.55976e-07 -1.92837e-06 0)
(5.00171e-07 -1.8893e-06 0)
(6.45982e-07 -1.83894e-06 0)
(7.93591e-07 -1.77867e-06 0)
(9.43071e-07 -1.7101e-06 0)
(1.09412e-06 -1.63472e-06 0)
(1.24688e-06 -1.55424e-06 0)
(1.39994e-06 -1.47045e-06 0)
(6.95179e-08 -2.00216e-06 0)
(2.08786e-07 -1.98941e-06 0)
(3.48806e-07 -1.96427e-06 0)
(4.89917e-07 -1.92757e-06 0)
(6.32443e-07 -1.88024e-06 0)
(7.76549e-07 -1.82355e-06 0)
(9.22273e-07 -1.75899e-06 0)
(1.06932e-06 -1.68797e-06 0)
(1.21787e-06 -1.61199e-06 0)
(1.36658e-06 -1.53284e-06 0)
(6.80981e-08 -2.03597e-06 0)
(2.04554e-07 -2.024e-06 0)
(3.41661e-07 -2.00033e-06 0)
(4.79768e-07 -1.96575e-06 0)
(6.1913e-07 -1.92117e-06 0)
(7.59921e-07 -1.86772e-06 0)
(9.02164e-07 -1.8068e-06 0)
(1.04558e-06 -1.73973e-06 0)
(1.19033e-06 -1.66786e-06 0)
(1.33518e-06 -1.59293e-06 0)
(6.66723e-08 -2.07009e-06 0)
(2.00278e-07 -2.05883e-06 0)
(3.34454e-07 -2.03648e-06 0)
(4.69586e-07 -2.00383e-06 0)
(6.05863e-07 -1.96174e-06 0)
(7.43464e-07 -1.91123e-06 0)
(8.82429e-07 -1.85361e-06 0)
(1.02247e-06 -1.79013e-06 0)
(1.16376e-06 -1.72202e-06 0)
(1.30515e-06 -1.65094e-06 0)
(6.52176e-08 -2.10445e-06 0)
(1.95889e-07 -2.09382e-06 0)
(3.27085e-07 -2.07268e-06 0)
(4.59219e-07 -2.04179e-06 0)
(5.92444e-07 -2.00196e-06 0)
(7.26935e-07 -1.95413e-06 0)
(8.62755e-07 -1.89952e-06 0)
(9.99627e-07 -1.83933e-06 0)
(1.13769e-06 -1.77464e-06 0)
(1.27597e-06 -1.70707e-06 0)
(6.37019e-08 -2.13893e-06 0)
(1.91318e-07 -2.12886e-06 0)
(3.19454e-07 -2.10885e-06 0)
(4.48523e-07 -2.07956e-06 0)
(5.78678e-07 -2.0418e-06 0)
(7.10089e-07 -1.99643e-06 0)
(8.42837e-07 -1.94458e-06 0)
(9.7667e-07 -1.88739e-06 0)
(1.11172e-06 -1.82586e-06 0)
(1.24712e-06 -1.76149e-06 0)
(6.21008e-08 -2.17345e-06 0)
(1.86513e-07 -2.16388e-06 0)
(3.11464e-07 -2.14491e-06 0)
(4.37356e-07 -2.11712e-06 0)
(5.64372e-07 -2.08125e-06 0)
(6.92677e-07 -2.03816e-06 0)
(8.22364e-07 -1.98886e-06 0)
(9.53231e-07 -1.93443e-06 0)
(1.08538e-06 -1.87581e-06 0)
(1.21806e-06 -1.81437e-06 0)
(6.03991e-08 -2.20782e-06 0)
(1.8142e-07 -2.19872e-06 0)
(3.03013e-07 -2.18073e-06 0)
(4.25572e-07 -2.15433e-06 0)
(5.49324e-07 -2.12024e-06 0)
(6.74436e-07 -2.07925e-06 0)
(8.01018e-07 -2.03232e-06 0)
(9.28935e-07 -1.98046e-06 0)
(1.05823e-06 -1.92453e-06 0)
(1.1883e-06 -1.86578e-06 0)
(5.85774e-08 -2.24199e-06 0)
(1.75968e-07 -2.23334e-06 0)
(2.93967e-07 -2.21626e-06 0)
(4.12981e-07 -2.19117e-06 0)
(5.33287e-07 -2.15875e-06 0)
(6.55061e-07 -2.11975e-06 0)
(7.78443e-07 -2.07505e-06 0)
(9.03338e-07 -2.02559e-06 0)
(1.02978e-06 -1.97217e-06 0)
(1.15727e-06 -1.91596e-06 0)
(5.66066e-08 -2.27563e-06 0)
(1.70063e-07 -2.26741e-06 0)
(2.84178e-07 -2.2512e-06 0)
(3.99379e-07 -2.22737e-06 0)
(5.1599e-07 -2.19655e-06 0)
(6.34222e-07 -2.15944e-06 0)
(7.54243e-07 -2.11686e-06 0)
(8.75976e-07 -2.06968e-06 0)
(9.995e-07 -2.01864e-06 0)
(1.1244e-06 -1.96483e-06 0)
(5.44401e-08 -2.30887e-06 0)
(1.63572e-07 -2.30107e-06 0)
(2.73429e-07 -2.2857e-06 0)
(3.84474e-07 -2.2631e-06 0)
(4.97069e-07 -2.23383e-06 0)
(6.11476e-07 -2.19856e-06 0)
(7.2789e-07 -2.15802e-06 0)
(8.46295e-07 -2.11303e-06 0)
(9.66769e-07 -2.06429e-06 0)
(1.08902e-06 -2.01278e-06 0)
(5.20596e-08 -2.3408e-06 0)
(1.5645e-07 -2.33343e-06 0)
(2.61643e-07 -2.3189e-06 0)
(3.68136e-07 -2.29752e-06 0)
(4.76352e-07 -2.26981e-06 0)
(5.86609e-07 -2.23636e-06 0)
(6.99123e-07 -2.19786e-06 0)
(8.13996e-07 -2.15506e-06 0)
(9.31253e-07 -2.10862e-06 0)
(1.05076e-06 -2.05945e-06 0)
)


// ************************************************************************* //
