/*--------------------------------*- C++ -*----------------------------------*\
| =========                 |                                                 |
| \\      /  F ield         | foam-extend: Open Source CFD                    |
|  \\    /   O peration     | Version:     4.1                                |
|   \\  /    A nd           | Web:         http://www.foam-extend.org         |
|    \\/     M anipulation  |                                                 |
\*---------------------------------------------------------------------------*/
FoamFile
{
    version     2.0;
    format      ascii;
    class       vectorField;
    location    "4";
    object      solidsCellD_iteration9;
}
// * * * * * * * * * * * * * * * * * * * * * * * * * * * * * * * * * * * * * //


1000
(
(2.01729e-06 -8.16497e-07 0)
(1.90753e-06 -7.62154e-07 0)
(1.83825e-06 -7.28689e-07 0)
(1.79925e-06 -7.14345e-07 0)
(1.78123e-06 -7.1106e-07 0)
(1.77857e-06 -7.16274e-07 0)
(1.78722e-06 -7.27072e-07 0)
(1.80428e-06 -7.4212e-07 0)
(1.8279e-06 -7.59921e-07 0)
(1.8555e-06 -7.79785e-07 0)
(1.82461e-06 -8.92034e-07 0)
(1.70773e-06 -8.55238e-07 0)
(1.63386e-06 -8.32925e-07 0)
(1.59142e-06 -8.26213e-07 0)
(1.57059e-06 -8.28038e-07 0)
(1.5653e-06 -8.36874e-07 0)
(1.57138e-06 -8.50252e-07 0)
(1.58576e-06 -8.67223e-07 0)
(1.60643e-06 -8.8651e-07 0)
(1.63094e-06 -9.07493e-07 0)
(1.62422e-06 -9.63582e-07 0)
(1.50479e-06 -9.46394e-07 0)
(1.42922e-06 -9.36526e-07 0)
(1.38521e-06 -9.38162e-07 0)
(1.36282e-06 -9.45456e-07 0)
(1.35572e-06 -9.58059e-07 0)
(1.35975e-06 -9.74062e-07 0)
(1.37188e-06 -9.9285e-07 0)
(1.39003e-06 -1.01353e-06 0)
(1.412e-06 -1.03536e-06 0)
(1.4176e-06 -1.0299e-06 0)
(1.30069e-06 -1.03324e-06 0)
(1.22664e-06 -1.03639e-06 0)
(1.18303e-06 -1.04668e-06 0)
(1.16032e-06 -1.05963e-06 0)
(1.15221e-06 -1.07607e-06 0)
(1.15463e-06 -1.09466e-06 0)
(1.16475e-06 -1.11523e-06 0)
(1.18054e-06 -1.13724e-06 0)
(1.19995e-06 -1.16003e-06 0)
(1.20628e-06 -1.08966e-06 0)
(1.09681e-06 -1.11332e-06 0)
(1.02743e-06 -1.12936e-06 0)
(9.86315e-07 -1.14819e-06 0)
(9.64541e-07 -1.16666e-06 0)
(9.56127e-07 -1.18685e-06 0)
(9.5737e-07 -1.20796e-06 0)
(9.65645e-07 -1.23026e-06 0)
(9.79136e-07 -1.25358e-06 0)
(9.95858e-07 -1.27738e-06 0)
(9.91155e-07 -1.14169e-06 0)
(8.94023e-07 -1.18433e-06 0)
(8.32466e-07 -1.21242e-06 0)
(7.95738e-07 -1.23924e-06 0)
(7.76029e-07 -1.26288e-06 0)
(7.67994e-07 -1.28655e-06 0)
(7.68495e-07 -1.30997e-06 0)
(7.75108e-07 -1.33389e-06 0)
(7.86262e-07 -1.3584e-06 0)
(8.00129e-07 -1.38322e-06 0)
(7.73407e-07 -1.18478e-06 0)
(6.9286e-07 -1.24406e-06 0)
(6.4181e-07 -1.28273e-06 0)
(6.11207e-07 -1.31655e-06 0)
(5.9465e-07 -1.34469e-06 0)
(5.87704e-07 -1.3714e-06 0)
(5.87776e-07 -1.39683e-06 0)
(5.92805e-07 -1.42219e-06 0)
(6.01535e-07 -1.44777e-06 0)
(6.12418e-07 -1.47351e-06 0)
(5.53744e-07 -1.21802e-06 0)
(4.93373e-07 -1.29067e-06 0)
(4.55142e-07 -1.3378e-06 0)
(4.32197e-07 -1.3772e-06 0)
(4.1972e-07 -1.40897e-06 0)
(4.14373e-07 -1.43813e-06 0)
(4.14221e-07 -1.46521e-06 0)
(4.17724e-07 -1.49174e-06 0)
(4.23983e-07 -1.51816e-06 0)
(4.31802e-07 -1.54467e-06 0)
(3.32781e-07 -1.24061e-06 0)
(2.95413e-07 -1.32258e-06 0)
(2.71781e-07 -1.37562e-06 0)
(2.57527e-07 -1.41897e-06 0)
(2.49715e-07 -1.45329e-06 0)
(2.4632e-07 -1.48414e-06 0)
(2.46171e-07 -1.51238e-06 0)
(2.48268e-07 -1.53976e-06 0)
(2.52024e-07 -1.56681e-06 0)
(2.5672e-07 -1.59388e-06 0)
(1.11142e-07 -1.25199e-06 0)
(9.84899e-08 -1.3388e-06 0)
(9.04249e-08 -1.39488e-06 0)
(8.55773e-08 -1.44024e-06 0)
(8.29576e-08 -1.47586e-06 0)
(8.1784e-08 -1.50761e-06 0)
(8.16679e-08 -1.53643e-06 0)
(8.23494e-08 -1.56423e-06 0)
(8.36167e-08 -1.59159e-06 0)
(8.51794e-08 -1.61897e-06 0)
(3.14048e-06 -3.72065e-08 0)
(3.16793e-06 -2.68707e-08 0)
(3.18545e-06 -2.0369e-08 0)
(3.20477e-06 -1.65937e-08 0)
(3.22626e-06 -1.45498e-08 0)
(3.25253e-06 -1.36951e-08 0)
(3.28357e-06 -1.36371e-08 0)
(3.31957e-06 -1.4051e-08 0)
(3.3605e-06 -1.48892e-08 0)
(3.40581e-06 -1.58978e-08 0)
(3.1174e-06 -1.11656e-07 0)
(3.1403e-06 -8.1251e-08 0)
(3.15498e-06 -6.21273e-08 0)
(3.17236e-06 -5.1122e-08 0)
(3.19257e-06 -4.5245e-08 0)
(3.21788e-06 -4.27173e-08 0)
(3.24829e-06 -4.25786e-08 0)
(3.28377e-06 -4.39975e-08 0)
(3.32423e-06 -4.65317e-08 0)
(3.36907e-06 -4.94633e-08 0)
(3.0713e-06 -1.867e-07 0)
(3.0855e-06 -1.37945e-07 0)
(3.09469e-06 -1.07315e-07 0)
(3.10842e-06 -8.96149e-08 0)
(3.12622e-06 -8.02499e-08 0)
(3.14986e-06 -7.64177e-08 0)
(3.17896e-06 -7.63627e-08 0)
(3.21344e-06 -7.87658e-08 0)
(3.25298e-06 -8.29433e-08 0)
(3.29692e-06 -8.78323e-08 0)
(3.003e-06 -2.6274e-07 0)
(3.00482e-06 -1.9825e-07 0)
(3.00615e-06 -1.57851e-07 0)
(3.01471e-06 -1.34628e-07 0)
(3.02903e-06 -1.22388e-07 0)
(3.05025e-06 -1.17517e-07 0)
(3.07756e-06 -1.17649e-07 0)
(3.11063e-06 -1.21118e-07 0)
(3.14892e-06 -1.26956e-07 0)
(3.19161e-06 -1.33811e-07 0)
(2.91347e-06 -3.39949e-07 0)
(2.90005e-06 -2.63283e-07 0)
(2.89166e-06 -2.15312e-07 0)
(2.89377e-06 -1.87978e-07 0)
(2.90383e-06 -1.73722e-07 0)
(2.92204e-06 -1.68317e-07 0)
(2.94711e-06 -1.68911e-07 0)
(2.97839e-06 -1.7356e-07 0)
(3.01511e-06 -1.81025e-07 0)
(3.05633e-06 -1.89783e-07 0)
(2.80403e-06 -4.18397e-07 0)
(2.77333e-06 -3.33794e-07 0)
(2.75401e-06 -2.80881e-07 0)
(2.74887e-06 -2.5109e-07 0)
(2.75408e-06 -2.35856e-07 0)
(2.76884e-06 -2.3053e-07 0)
(2.7914e-06 -2.31883e-07 0)
(2.82063e-06 -2.37786e-07 0)
(2.85558e-06 -2.46839e-07 0)
(2.89513e-06 -2.57444e-07 0)
(2.67632e-06 -4.97939e-07 0)
(2.62733e-06 -4.10093e-07 0)
(2.59643e-06 -3.55186e-07 0)
(2.58363e-06 -3.24786e-07 0)
(2.5837e-06 -3.09669e-07 0)
(2.59482e-06 -3.05074e-07 0)
(2.61467e-06 -3.07515e-07 0)
(2.64172e-06 -3.14768e-07 0)
(2.67473e-06 -3.25387e-07 0)
(2.71254e-06 -3.37749e-07 0)
(2.53194e-06 -5.78169e-07 0)
(2.46483e-06 -4.91985e-07 0)
(2.42248e-06 -4.38161e-07 0)
(2.40203e-06 -4.09078e-07 0)
(2.397e-06 -3.95239e-07 0)
(2.40442e-06 -3.92074e-07 0)
(2.42149e-06 -3.95971e-07 0)
(2.44627e-06 -4.04744e-07 0)
(2.47727e-06 -4.16927e-07 0)
(2.51326e-06 -4.30968e-07 0)
(2.37275e-06 -6.58553e-07 0)
(2.28879e-06 -5.78777e-07 0)
(2.2358e-06 -5.29093e-07 0)
(2.20816e-06 -5.03228e-07 0)
(2.19828e-06 -4.91844e-07 0)
(2.20207e-06 -4.9079e-07 0)
(2.2163e-06 -4.96533e-07 0)
(2.23874e-06 -5.06973e-07 0)
(2.2676e-06 -5.20765e-07 0)
(2.30167e-06 -5.36223e-07 0)
(2.20061e-06 -7.38322e-07 0)
(2.10216e-06 -6.69343e-07 0)
(2.03998e-06 -6.26574e-07 0)
(2.00604e-06 -6.05735e-07 0)
(1.99176e-06 -5.9793e-07 0)
(1.99223e-06 -5.99683e-07 0)
(2.00384e-06 -6.07735e-07 0)
(2.02397e-06 -6.2027e-07 0)
(2.05086e-06 -6.35903e-07 0)
(2.08259e-06 -6.53601e-07 0)
(3.45551e-06 -1.68469e-08 0)
(3.50962e-06 -1.71253e-08 0)
(3.56709e-06 -1.74124e-08 0)
(3.6277e-06 -1.76295e-08 0)
(3.6911e-06 -1.77644e-08 0)
(3.75707e-06 -1.78105e-08 0)
(3.82532e-06 -1.77374e-08 0)
(3.89557e-06 -1.75748e-08 0)
(3.96764e-06 -1.73365e-08 0)
(4.04135e-06 -1.69885e-08 0)
(4.11646e-06 -1.65036e-08 0)
(4.19275e-06 -1.58787e-08 0)
(4.27003e-06 -1.51128e-08 0)
(4.34809e-06 -1.42056e-08 0)
(4.42676e-06 -1.31427e-08 0)
(4.50577e-06 -1.18935e-08 0)
(4.58496e-06 -1.042e-08 0)
(4.6639e-06 -8.69009e-09 0)
(4.74265e-06 -6.66817e-09 0)
(4.82013e-06 -4.34592e-09 0)
(3.42039e-06 -5.21199e-08 0)
(3.47741e-06 -5.27472e-08 0)
(3.53749e-06 -5.34149e-08 0)
(3.60039e-06 -5.38968e-08 0)
(3.66585e-06 -5.41217e-08 0)
(3.73361e-06 -5.4126e-08 0)
(3.80348e-06 -5.38725e-08 0)
(3.87523e-06 -5.33706e-08 0)
(3.94869e-06 -5.25743e-08 0)
(4.02364e-06 -5.14198e-08 0)
(4.09988e-06 -4.98952e-08 0)
(4.17724e-06 -4.80075e-08 0)
(4.25554e-06 -4.57262e-08 0)
(4.33458e-06 -4.30036e-08 0)
(4.41415e-06 -3.97797e-08 0)
(4.49402e-06 -3.59891e-08 0)
(4.57404e-06 -3.15474e-08 0)
(4.65377e-06 -2.63706e-08 0)
(4.7333e-06 -2.03404e-08 0)
(4.81151e-06 -1.34067e-08 0)
(3.35138e-06 -9.1752e-08 0)
(3.41416e-06 -9.20922e-08 0)
(3.47938e-06 -9.25379e-08 0)
(3.5467e-06 -9.2839e-08 0)
(3.61613e-06 -9.28294e-08 0)
(3.68748e-06 -9.2549e-08 0)
(3.76061e-06 -9.18834e-08 0)
(3.83527e-06 -9.08165e-08 0)
(3.91136e-06 -8.92724e-08 0)
(3.98872e-06 -8.71939e-08 0)
(4.06721e-06 -8.45702e-08 0)
(4.14667e-06 -8.13793e-08 0)
(4.22693e-06 -7.7536e-08 0)
(4.30778e-06 -7.2947e-08 0)
(4.38908e-06 -6.75235e-08 0)
(4.47061e-06 -6.11719e-08 0)
(4.55225e-06 -5.37566e-08 0)
(4.63357e-06 -4.51421e-08 0)
(4.71465e-06 -3.5129e-08 0)
(4.79443e-06 -2.36134e-08 0)
(3.25054e-06 -1.38204e-07 0)
(3.32151e-06 -1.3723e-07 0)
(3.39416e-06 -1.36534e-07 0)
(3.46797e-06 -1.35966e-07 0)
(3.54326e-06 -1.35159e-07 0)
(3.61979e-06 -1.34146e-07 0)
(3.69761e-06 -1.32694e-07 0)
(3.77652e-06 -1.30774e-07 0)
(3.85654e-06 -1.28267e-07 0)
(3.93753e-06 -1.25107e-07 0)
(4.01936e-06 -1.21247e-07 0)
(4.10189e-06 -1.16618e-07 0)
(4.18502e-06 -1.11096e-07 0)
(4.26857e-06 -1.04568e-07 0)
(4.35243e-06 -9.69255e-08 0)
(4.43642e-06 -8.80171e-08 0)
(4.52041e-06 -7.76509e-08 0)
(4.60402e-06 -6.56282e-08 0)
(4.68732e-06 -5.16554e-08 0)
(4.76934e-06 -3.56108e-08 0)
(3.12087e-06 -1.93623e-07 0)
(3.20219e-06 -1.9004e-07 0)
(3.28429e-06 -1.87071e-07 0)
(3.3663e-06 -1.84777e-07 0)
(3.44903e-06 -1.8243e-07 0)
(3.53221e-06 -1.80074e-07 0)
(3.61608e-06 -1.77338e-07 0)
(3.70051e-06 -1.74185e-07 0)
(3.78556e-06 -1.7041e-07 0)
(3.87114e-06 -1.65909e-07 0)
(3.95724e-06 -1.60602e-07 0)
(4.04378e-06 -1.54378e-07 0)
(4.13065e-06 -1.4707e-07 0)
(4.21773e-06 -1.38531e-07 0)
(4.30496e-06 -1.28617e-07 0)
(4.39211e-06 -1.17121e-07 0)
(4.47917e-06 -1.03798e-07 0)
(4.56572e-06 -8.83949e-08 0)
(4.65195e-06 -7.05115e-08 0)
(4.73686e-06 -5.00119e-08 0)
(2.966e-06 -2.59601e-07 0)
(3.05921e-06 -2.51902e-07 0)
(3.15238e-06 -2.45276e-07 0)
(3.24412e-06 -2.40177e-07 0)
(3.33575e-06 -2.35408e-07 0)
(3.4269e-06 -2.31e-07 0)
(3.51798e-06 -2.26404e-07 0)
(3.60898e-06 -2.21517e-07 0)
(3.70007e-06 -2.1609e-07 0)
(3.79122e-06 -2.09963e-07 0)
(3.88249e-06 -2.02999e-07 0)
(3.97383e-06 -1.95021e-07 0)
(4.0652e-06 -1.85813e-07 0)
(4.15651e-06 -1.75187e-07 0)
(4.24774e-06 -1.62945e-07 0)
(4.33871e-06 -1.48841e-07 0)
(4.42946e-06 -1.32573e-07 0)
(4.51957e-06 -1.1384e-07 0)
(4.60932e-06 -9.2137e-08 0)
(4.69771e-06 -6.72684e-08 0)
(2.79024e-06 -3.37087e-07 0)
(2.89644e-06 -3.2373e-07 0)
(3.00189e-06 -3.12072e-07 0)
(3.10447e-06 -3.03011e-07 0)
(3.20601e-06 -2.94875e-07 0)
(3.30613e-06 -2.87593e-07 0)
(3.40537e-06 -2.80518e-07 0)
(3.50385e-06 -2.73396e-07 0)
(3.60182e-06 -2.65918e-07 0)
(3.69936e-06 -2.57849e-07 0)
(3.79655e-06 -2.48965e-07 0)
(3.89339e-06 -2.39016e-07 0)
(3.98991e-06 -2.27737e-07 0)
(4.08608e-06 -2.14906e-07 0)
(4.18191e-06 -2.00269e-07 0)
(4.27728e-06 -1.83541e-07 0)
(4.37228e-06 -1.64353e-07 0)
(4.46651e-06 -1.42337e-07 0)
(4.56028e-06 -1.16892e-07 0)
(4.65268e-06 -8.77521e-08 0)
(2.59781e-06 -4.26348e-07 0)
(2.71747e-06 -4.05613e-07 0)
(2.83585e-06 -3.87542e-07 0)
(2.95009e-06 -3.73216e-07 0)
(3.06238e-06 -3.60723e-07 0)
(3.17229e-06 -3.49714e-07 0)
(3.28057e-06 -3.39482e-07 0)
(3.38734e-06 -3.29591e-07 0)
(3.49293e-06 -3.19644e-07 0)
(3.59751e-06 -3.09298e-07 0)
(3.70122e-06 -2.98233e-07 0)
(3.80414e-06 -2.86126e-07 0)
(3.90634e-06 -2.72662e-07 0)
(4.00789e-06 -2.5757e-07 0)
(4.10883e-06 -2.40537e-07 0)
(4.20911e-06 -2.2122e-07 0)
(4.3088e-06 -1.99174e-07 0)
(4.4076e-06 -1.73961e-07 0)
(4.50582e-06 -1.44875e-07 0)
(4.60265e-06 -1.11589e-07 0)
(2.39316e-06 -5.27195e-07 0)
(2.52651e-06 -4.97648e-07 0)
(2.65798e-06 -4.72259e-07 0)
(2.78438e-06 -4.51524e-07 0)
(2.90784e-06 -4.33776e-07 0)
(3.0281e-06 -4.18249e-07 0)
(3.14588e-06 -4.04174e-07 0)
(3.26145e-06 -3.90931e-07 0)
(3.37516e-06 -3.78021e-07 0)
(3.48727e-06 -3.64981e-07 0)
(3.59798e-06 -3.51398e-07 0)
(3.70743e-06 -3.36878e-07 0)
(3.81578e-06 -3.21053e-07 0)
(3.92316e-06 -3.03586e-07 0)
(4.02963e-06 -2.84091e-07 0)
(4.1352e-06 -2.62157e-07 0)
(4.23996e-06 -2.3726e-07 0)
(4.34368e-06 -2.0889e-07 0)
(4.44671e-06 -1.76261e-07 0)
(4.54836e-06 -1.38984e-07 0)
(2.1803e-06 -6.38072e-07 0)
(2.32801e-06 -5.97227e-07 0)
(2.47238e-06 -5.63557e-07 0)
(2.61139e-06 -5.35385e-07 0)
(2.74627e-06 -5.11546e-07 0)
(2.87729e-06 -4.90825e-07 0)
(3.00495e-06 -4.72346e-07 0)
(3.12967e-06 -4.55334e-07 0)
(3.25185e-06 -4.39151e-07 0)
(3.37179e-06 -4.23206e-07 0)
(3.48978e-06 -4.0698e-07 0)
(3.60604e-06 -3.89995e-07 0)
(3.72078e-06 -3.71808e-07 0)
(3.83418e-06 -3.52002e-07 0)
(3.94636e-06 -3.30117e-07 0)
(4.05737e-06 -3.05674e-07 0)
(4.16735e-06 -2.78079e-07 0)
(4.27616e-06 -2.46732e-07 0)
(4.38418e-06 -2.1078e-07 0)
(4.4909e-06 -1.69741e-07 0)
(2.01984e-06 -7.46764e-07 0)
(2.17819e-06 -6.95986e-07 0)
(2.33094e-06 -6.5568e-07 0)
(2.47829e-06 -6.2122e-07 0)
(2.62076e-06 -5.91782e-07 0)
(2.75888e-06 -5.66028e-07 0)
(2.89316e-06 -5.43019e-07 0)
(3.02404e-06 -5.21933e-07 0)
(3.15195e-06 -5.02056e-07 0)
(3.2772e-06 -4.82733e-07 0)
(3.4001e-06 -4.63392e-07 0)
(3.52092e-06 -4.43509e-07 0)
(3.6399e-06 -4.22584e-07 0)
(3.75725e-06 -4.00146e-07 0)
(3.87309e-06 -3.75691e-07 0)
(3.98755e-06 -3.48685e-07 0)
(4.10079e-06 -3.1852e-07 0)
(4.21278e-06 -2.84536e-07 0)
(4.32392e-06 -2.45877e-07 0)
(4.43383e-06 -2.01992e-07 0)
(1.92932e-06 -8.36401e-07 0)
(2.08887e-06 -7.83509e-07 0)
(2.24304e-06 -7.39273e-07 0)
(2.39265e-06 -7.00769e-07 0)
(2.5377e-06 -6.67223e-07 0)
(2.67853e-06 -6.37488e-07 0)
(2.81554e-06 -6.10662e-07 0)
(2.94908e-06 -5.85947e-07 0)
(3.07948e-06 -5.62628e-07 0)
(3.20705e-06 -5.40053e-07 0)
(3.33209e-06 -5.17649e-07 0)
(3.45486e-06 -4.94878e-07 0)
(3.57561e-06 -4.71224e-07 0)
(3.69453e-06 -4.46194e-07 0)
(3.81177e-06 -4.19278e-07 0)
(3.9275e-06 -3.89924e-07 0)
(4.04188e-06 -3.57553e-07 0)
(4.15499e-06 -3.21501e-07 0)
(4.26718e-06 -2.80953e-07 0)
(4.37824e-06 -2.35343e-07 0)
(1.85314e-06 -9.21689e-07 0)
(2.01101e-06 -8.67835e-07 0)
(2.16503e-06 -8.21299e-07 0)
(2.31512e-06 -7.79867e-07 0)
(2.46125e-06 -7.43005e-07 0)
(2.60348e-06 -7.09815e-07 0)
(2.74209e-06 -6.79515e-07 0)
(2.8773e-06 -6.51386e-07 0)
(3.00938e-06 -6.24756e-07 0)
(3.13859e-06 -5.99009e-07 0)
(3.26519e-06 -5.73587e-07 0)
(3.38943e-06 -5.47952e-07 0)
(3.51152e-06 -5.21583e-07 0)
(3.63169e-06 -4.93984e-07 0)
(3.75005e-06 -4.64648e-07 0)
(3.86684e-06 -4.33021e-07 0)
(3.9822e-06 -3.98556e-07 0)
(4.0963e-06 -3.60613e-07 0)
(4.20944e-06 -3.18416e-07 0)
(4.32157e-06 -2.71416e-07 0)
(1.78637e-06 -1.00394e-06 0)
(1.94194e-06 -9.4971e-07 0)
(2.09466e-06 -9.015e-07 0)
(2.24415e-06 -8.57713e-07 0)
(2.39024e-06 -8.18042e-07 0)
(2.53288e-06 -7.81811e-07 0)
(2.67221e-06 -7.48371e-07 0)
(2.80832e-06 -7.17091e-07 0)
(2.94141e-06 -6.87362e-07 0)
(3.07169e-06 -6.58614e-07 0)
(3.19939e-06 -6.30314e-07 0)
(3.32469e-06 -6.01939e-07 0)
(3.44782e-06 -5.72971e-07 0)
(3.56896e-06 -5.42923e-07 0)
(3.68825e-06 -5.113e-07 0)
(3.80593e-06 -4.77563e-07 0)
(3.92216e-06 -4.41198e-07 0)
(4.03714e-06 -4.01597e-07 0)
(4.15115e-06 -3.58035e-07 0)
(4.2643e-06 -3.10023e-07 0)
(1.72775e-06 -1.08268e-06 0)
(1.88049e-06 -1.02854e-06 0)
(2.0312e-06 -9.79338e-07 0)
(2.17927e-06 -9.33844e-07 0)
(2.32452e-06 -8.91949e-07 0)
(2.46679e-06 -8.53168e-07 0)
(2.60609e-06 -8.16988e-07 0)
(2.74243e-06 -7.82879e-07 0)
(2.87596e-06 -7.50311e-07 0)
(3.00682e-06 -7.18773e-07 0)
(3.13517e-06 -6.87768e-07 0)
(3.26117e-06 -6.56796e-07 0)
(3.38501e-06 -6.25361e-07 0)
(3.50687e-06 -5.92996e-07 0)
(3.62689e-06 -5.59221e-07 0)
(3.74531e-06 -5.23527e-07 0)
(3.86227e-06 -4.85435e-07 0)
(3.97803e-06 -4.44375e-07 0)
(4.09283e-06 -3.99692e-07 0)
(4.20692e-06 -3.50998e-07 0)
(1.67575e-06 -1.15813e-06 0)
(1.82542e-06 -1.10438e-06 0)
(1.97372e-06 -1.05461e-06 0)
(2.11983e-06 -1.00789e-06 0)
(2.26368e-06 -9.64239e-07 0)
(2.40497e-06 -9.2334e-07 0)
(2.54366e-06 -8.84801e-07 0)
(2.67971e-06 -8.48201e-07 0)
(2.81319e-06 -8.13088e-07 0)
(2.94418e-06 -7.79011e-07 0)
(3.0728e-06 -7.45518e-07 0)
(3.19915e-06 -7.12142e-07 0)
(3.32343e-06 -6.78414e-07 0)
(3.44578e-06 -6.43901e-07 0)
(3.56633e-06 -6.08142e-07 0)
(3.68532e-06 -5.70675e-07 0)
(3.80288e-06 -5.31045e-07 0)
(3.91929e-06 -4.88736e-07 0)
(4.03481e-06 -4.43187e-07 0)
(4.14973e-06 -3.94092e-07 0)
(1.62929e-06 -1.23043e-06 0)
(1.77577e-06 -1.17728e-06 0)
(1.92138e-06 -1.12727e-06 0)
(2.06521e-06 -1.07971e-06 0)
(2.20726e-06 -1.03473e-06 0)
(2.34713e-06 -9.92106e-07 0)
(2.48478e-06 -9.51581e-07 0)
(2.62011e-06 -9.1283e-07 0)
(2.75313e-06 -8.7547e-07 0)
(2.88387e-06 -8.39115e-07 0)
(3.01242e-06 -8.03365e-07 0)
(3.13885e-06 -7.67791e-07 0)
(3.26331e-06 -7.31962e-07 0)
(3.38592e-06 -6.95484e-07 0)
(3.50681e-06 -6.57915e-07 0)
(3.62622e-06 -6.1885e-07 0)
(3.74426e-06 -5.77867e-07 0)
(3.86122e-06 -5.34512e-07 0)
(3.97738e-06 -4.88329e-07 0)
(4.09299e-06 -4.39031e-07 0)
(1.58737e-06 -1.29979e-06 0)
(1.73066e-06 -1.24736e-06 0)
(1.87342e-06 -1.19735e-06 0)
(2.01479e-06 -1.14925e-06 0)
(2.15475e-06 -1.10327e-06 0)
(2.2929e-06 -1.05926e-06 0)
(2.42919e-06 -1.01709e-06 0)
(2.56346e-06 -9.76504e-07 0)
(2.6957e-06 -9.37184e-07 0)
(2.82589e-06 -8.98816e-07 0)
(2.95408e-06 -8.6105e-07 0)
(3.08032e-06 -8.23499e-07 0)
(3.20474e-06 -7.85771e-07 0)
(3.32743e-06 -7.47521e-07 0)
(3.44851e-06 -7.08333e-07 0)
(3.5682e-06 -6.67852e-07 0)
(3.68661e-06 -6.2571e-07 0)
(3.80404e-06 -5.81511e-07 0)
(3.92072e-06 -5.34886e-07 0)
(4.03693e-06 -4.85536e-07 0)
(1.5491e-06 -1.36641e-06 0)
(1.68923e-06 -1.31477e-06 0)
(1.82911e-06 -1.26493e-06 0)
(1.96791e-06 -1.21653e-06 0)
(2.10561e-06 -1.16981e-06 0)
(2.24186e-06 -1.12472e-06 0)
(2.37655e-06 -1.0812e-06 0)
(2.50953e-06 -1.03906e-06 0)
(2.64073e-06 -9.9806e-07 0)
(2.77014e-06 -9.57938e-07 0)
(2.89776e-06 -9.18397e-07 0)
(3.02361e-06 -8.79097e-07 0)
(3.14781e-06 -8.39682e-07 0)
(3.27042e-06 -7.99857e-07 0)
(3.39156e-06 -7.59242e-07 0)
(3.51142e-06 -7.17534e-07 0)
(3.6301e-06 -6.74421e-07 0)
(3.74791e-06 -6.29559e-07 0)
(3.865e-06 -5.82629e-07 0)
(3.98173e-06 -5.33388e-07 0)
(1.5137e-06 -1.43053e-06 0)
(1.65074e-06 -1.3797e-06 0)
(1.78776e-06 -1.33013e-06 0)
(1.92395e-06 -1.28159e-06 0)
(2.05933e-06 -1.23436e-06 0)
(2.19356e-06 -1.18843e-06 0)
(2.32652e-06 -1.14381e-06 0)
(2.45805e-06 -1.10039e-06 0)
(2.58805e-06 -1.05797e-06 0)
(2.71649e-06 -1.01634e-06 0)
(2.84338e-06 -9.75266e-07 0)
(2.96869e-06 -9.34439e-07 0)
(3.09253e-06 -8.93552e-07 0)
(3.21494e-06 -8.52352e-07 0)
(3.33601e-06 -8.10505e-07 0)
(3.45594e-06 -7.67757e-07 0)
(3.57481e-06 -7.23848e-07 0)
(3.69289e-06 -6.7847e-07 0)
(3.8103e-06 -6.31349e-07 0)
(3.92747e-06 -5.82371e-07 0)
(1.48049e-06 -1.49234e-06 0)
(1.61454e-06 -1.44233e-06 0)
(1.74875e-06 -1.3931e-06 0)
(1.88236e-06 -1.34454e-06 0)
(2.01542e-06 -1.29696e-06 0)
(2.14759e-06 -1.2504e-06 0)
(2.27874e-06 -1.20492e-06 0)
(2.40871e-06 -1.16045e-06 0)
(2.53741e-06 -1.11685e-06 0)
(2.66478e-06 -1.07395e-06 0)
(2.79081e-06 -1.03156e-06 0)
(2.91547e-06 -9.89424e-07 0)
(3.03885e-06 -9.47269e-07 0)
(3.16095e-06 -9.0489e-07 0)
(3.28188e-06 -8.61997e-07 0)
(3.4018e-06 -8.18383e-07 0)
(3.52077e-06 -7.73823e-07 0)
(3.63902e-06 -7.28042e-07 0)
(3.75671e-06 -6.80858e-07 0)
(3.87418e-06 -6.32217e-07 0)
(1.44886e-06 -1.55206e-06 0)
(1.58005e-06 -1.50282e-06 0)
(1.71154e-06 -1.45396e-06 0)
(1.84265e-06 -1.40549e-06 0)
(1.97342e-06 -1.35771e-06 0)
(2.10351e-06 -1.31069e-06 0)
(2.23283e-06 -1.26454e-06 0)
(2.36121e-06 -1.21923e-06 0)
(2.48854e-06 -1.17466e-06 0)
(2.61479e-06 -1.1307e-06 0)
(2.73989e-06 -1.08721e-06 0)
(2.86384e-06 -1.04396e-06 0)
(2.98668e-06 -1.00073e-06 0)
(3.10843e-06 -9.57366e-07 0)
(3.22915e-06 -9.13609e-07 0)
(3.34899e-06 -8.69285e-07 0)
(3.46798e-06 -8.24199e-07 0)
(3.58635e-06 -7.78126e-07 0)
(3.70424e-06 -7.31002e-07 0)
(3.82195e-06 -6.8271e-07 0)
(1.41832e-06 -1.60986e-06 0)
(1.54678e-06 -1.56135e-06 0)
(1.67565e-06 -1.5129e-06 0)
(1.80435e-06 -1.46458e-06 0)
(1.93288e-06 -1.4167e-06 0)
(2.06093e-06 -1.36935e-06 0)
(2.18844e-06 -1.3227e-06 0)
(2.31523e-06 -1.27673e-06 0)
(2.4412e-06 -1.23139e-06 0)
(2.5663e-06 -1.18657e-06 0)
(2.69047e-06 -1.14218e-06 0)
(2.81366e-06 -1.09802e-06 0)
(2.93593e-06 -1.05392e-06 0)
(3.05728e-06 -1.00974e-06 0)
(3.17775e-06 -9.65279e-07 0)
(3.29745e-06 -9.20373e-07 0)
(3.4164e-06 -8.74873e-07 0)
(3.53484e-06 -8.28621e-07 0)
(3.65284e-06 -7.81608e-07 0)
(3.77072e-06 -7.33712e-07 0)
(1.38839e-06 -1.66591e-06 0)
(1.51424e-06 -1.61808e-06 0)
(1.64062e-06 -1.57004e-06 0)
(1.76699e-06 -1.52191e-06 0)
(1.89335e-06 -1.47401e-06 0)
(2.01946e-06 -1.42647e-06 0)
(2.14522e-06 -1.37946e-06 0)
(2.27047e-06 -1.33301e-06 0)
(2.39511e-06 -1.28708e-06 0)
(2.51908e-06 -1.24159e-06 0)
(2.64231e-06 -1.19647e-06 0)
(2.76475e-06 -1.15158e-06 0)
(2.88644e-06 -1.10676e-06 0)
(3.00737e-06 -1.06193e-06 0)
(3.12754e-06 -1.01689e-06 0)
(3.24707e-06 -9.71517e-07 0)
(3.36594e-06 -9.25708e-07 0)
(3.4844e-06 -8.79372e-07 0)
(3.60246e-06 -8.32467e-07 0)
(3.72044e-06 -7.85013e-07 0)
(1.35855e-06 -1.72037e-06 0)
(1.48195e-06 -1.67319e-06 0)
(1.60595e-06 -1.62554e-06 0)
(1.73009e-06 -1.57764e-06 0)
(1.85442e-06 -1.5298e-06 0)
(1.97868e-06 -1.48217e-06 0)
(2.1028e-06 -1.43494e-06 0)
(2.22659e-06 -1.38814e-06 0)
(2.34997e-06 -1.34176e-06 0)
(2.47287e-06 -1.29575e-06 0)
(2.59521e-06 -1.25008e-06 0)
(2.71694e-06 -1.20463e-06 0)
(2.83808e-06 -1.15927e-06 0)
(2.95859e-06 -1.11392e-06 0)
(3.07846e-06 -1.06842e-06 0)
(3.19778e-06 -1.02269e-06 0)
(3.31658e-06 -9.76666e-07 0)
(3.435e-06 -9.3029e-07 0)
(3.55312e-06 -8.83538e-07 0)
(3.67113e-06 -8.36483e-07 0)
(1.32831e-06 -1.7734e-06 0)
(1.44937e-06 -1.72682e-06 0)
(1.5711e-06 -1.67951e-06 0)
(1.69321e-06 -1.63187e-06 0)
(1.81566e-06 -1.58416e-06 0)
(1.93823e-06 -1.53655e-06 0)
(2.06083e-06 -1.4892e-06 0)
(2.18329e-06 -1.4422e-06 0)
(2.30551e-06 -1.39552e-06 0)
(2.42741e-06 -1.34915e-06 0)
(2.54894e-06 -1.30308e-06 0)
(2.67001e-06 -1.25721e-06 0)
(2.79062e-06 -1.21142e-06 0)
(2.91072e-06 -1.16567e-06 0)
(3.03029e-06 -1.11982e-06 0)
(3.14944e-06 -1.07382e-06 0)
(3.26815e-06 -1.02767e-06 0)
(3.38653e-06 -9.81245e-07 0)
(3.50463e-06 -9.34674e-07 0)
(3.62266e-06 -8.88005e-07 0)
(1.29717e-06 -1.82514e-06 0)
(1.41595e-06 -1.77901e-06 0)
(1.53554e-06 -1.73213e-06 0)
(1.65587e-06 -1.68483e-06 0)
(1.77662e-06 -1.63731e-06 0)
(1.8977e-06 -1.58978e-06 0)
(2.01894e-06 -1.54241e-06 0)
(2.14022e-06 -1.4953e-06 0)
(2.26142e-06 -1.44844e-06 0)
(2.38247e-06 -1.40184e-06 0)
(2.50329e-06 -1.3555e-06 0)
(2.62378e-06 -1.30933e-06 0)
(2.74391e-06 -1.26322e-06 0)
(2.86364e-06 -1.21717e-06 0)
(2.98297e-06 -1.17108e-06 0)
(3.10198e-06 -1.1249e-06 0)
(3.22058e-06 -1.07861e-06 0)
(3.3389e-06 -1.03218e-06 0)
(3.45694e-06 -9.85795e-07 0)
(3.57501e-06 -9.39465e-07 0)
(1.26439e-06 -1.87557e-06 0)
(1.38123e-06 -1.82995e-06 0)
(1.49908e-06 -1.78358e-06 0)
(1.61771e-06 -1.73662e-06 0)
(1.73699e-06 -1.68936e-06 0)
(1.85674e-06 -1.64198e-06 0)
(1.97684e-06 -1.59468e-06 0)
(2.09712e-06 -1.54756e-06 0)
(2.21749e-06 -1.50064e-06 0)
(2.33785e-06 -1.45392e-06 0)
(2.45807e-06 -1.40741e-06 0)
(2.57805e-06 -1.36104e-06 0)
(2.69779e-06 -1.31473e-06 0)
(2.81726e-06 -1.26848e-06 0)
(2.93641e-06 -1.2222e-06 0)
(3.05523e-06 -1.17589e-06 0)
(3.1737e-06 -1.1295e-06 0)
(3.29203e-06 -1.08309e-06 0)
(3.4101e-06 -1.03684e-06 0)
(3.52806e-06 -9.90824e-07 0)
(1.22954e-06 -1.92519e-06 0)
(1.3446e-06 -1.88012e-06 0)
(1.46089e-06 -1.83414e-06 0)
(1.57813e-06 -1.78755e-06 0)
(1.6962e-06 -1.74057e-06 0)
(1.81491e-06 -1.69341e-06 0)
(1.93413e-06 -1.64625e-06 0)
(2.05371e-06 -1.5992e-06 0)
(2.17347e-06 -1.55228e-06 0)
(2.29328e-06 -1.50551e-06 0)
(2.41305e-06 -1.45892e-06 0)
(2.53271e-06 -1.41242e-06 0)
(2.65221e-06 -1.36597e-06 0)
(2.77142e-06 -1.31961e-06 0)
(2.89036e-06 -1.27319e-06 0)
(3.00912e-06 -1.22672e-06 0)
(3.12758e-06 -1.18029e-06 0)
(3.24583e-06 -1.13389e-06 0)
(3.36391e-06 -1.0877e-06 0)
(3.48185e-06 -1.04193e-06 0)
(1.19216e-06 -1.9736e-06 0)
(1.30569e-06 -1.92917e-06 0)
(1.42067e-06 -1.88375e-06 0)
(1.53682e-06 -1.83762e-06 0)
(1.654e-06 -1.79102e-06 0)
(1.77203e-06 -1.74415e-06 0)
(1.89071e-06 -1.69722e-06 0)
(2.00981e-06 -1.65032e-06 0)
(2.12918e-06 -1.60348e-06 0)
(2.24873e-06 -1.55671e-06 0)
(2.36829e-06 -1.51009e-06 0)
(2.48771e-06 -1.46356e-06 0)
(2.607e-06 -1.41702e-06 0)
(2.7261e-06 -1.37053e-06 0)
(2.84493e-06 -1.32405e-06 0)
(2.96357e-06 -1.2775e-06 0)
(3.08203e-06 -1.23102e-06 0)
(3.20027e-06 -1.18456e-06 0)
(3.31842e-06 -1.13838e-06 0)
(3.43634e-06 -1.09269e-06 0)
(8.50212e-08 -1.64687e-06 0)
(2.56116e-07 -1.62298e-06 0)
(4.3029e-07 -1.57607e-06 0)
(6.09316e-07 -1.50815e-06 0)
(7.94547e-07 -1.42173e-06 0)
(9.86821e-07 -1.32012e-06 0)
(1.18645e-06 -1.20701e-06 0)
(1.39304e-06 -1.08625e-06 0)
(1.6062e-06 -9.61671e-07 0)
(1.82394e-06 -8.36164e-07 0)
(8.28291e-08 -1.67596e-06 0)
(2.49384e-07 -1.65414e-06 0)
(4.1845e-07 -1.61125e-06 0)
(5.91521e-07 -1.54902e-06 0)
(7.69719e-07 -1.46958e-06 0)
(9.53719e-07 -1.37572e-06 0)
(1.1438e-06 -1.2706e-06 0)
(1.33947e-06 -1.15757e-06 0)
(1.54008e-06 -1.04008e-06 0)
(1.74373e-06 -9.21098e-07 0)
(8.08254e-08 -1.70577e-06 0)
(2.43227e-07 -1.68584e-06 0)
(4.07646e-07 -1.64657e-06 0)
(5.75248e-07 -1.58951e-06 0)
(7.47001e-07 -1.51651e-06 0)
(9.23414e-07 -1.42996e-06 0)
(1.10478e-06 -1.3326e-06 0)
(1.29086e-06 -1.22725e-06 0)
(1.48115e-06 -1.11691e-06 0)
(1.67431e-06 -1.00389e-06 0)
(7.90292e-08 -1.73629e-06 0)
(2.37701e-07 -1.71794e-06 0)
(3.98077e-07 -1.68176e-06 0)
(5.61012e-07 -1.62912e-06 0)
(7.27355e-07 -1.56164e-06 0)
(8.97473e-07 -1.48141e-06 0)
(1.07157e-06 -1.39089e-06 0)
(1.24944e-06 -1.29258e-06 0)
(1.43057e-06 -1.18931e-06 0)
(1.61389e-06 -1.08301e-06 0)
(7.73902e-08 -1.76751e-06 0)
(2.326e-07 -1.75059e-06 0)
(3.89252e-07 -1.71718e-06 0)
(5.47961e-07 -1.66851e-06 0)
(7.09453e-07 -1.60603e-06 0)
(8.74013e-07 -1.53162e-06 0)
(1.04181e-06 -1.44746e-06 0)
(1.21268e-06 -1.35568e-06 0)
(1.38618e-06 -1.25888e-06 0)
(1.56116e-06 -1.15883e-06 0)
(7.58474e-08 -1.79939e-06 0)
(2.27879e-07 -1.7837e-06 0)
(3.81107e-07 -1.7527e-06 0)
(5.36033e-07 -1.70753e-06 0)
(6.93238e-07 -1.64946e-06 0)
(8.52968e-07 -1.5802e-06 0)
(1.01528e-06 -1.50175e-06 0)
(1.18e-06 -1.41598e-06 0)
(1.34688e-06 -1.32528e-06 0)
(1.5146e-06 -1.23135e-06 0)
(7.43581e-08 -1.83188e-06 0)
(2.23388e-07 -1.81729e-06 0)
(3.73397e-07 -1.78847e-06 0)
(5.24845e-07 -1.74642e-06 0)
(6.78147e-07 -1.69232e-06 0)
(8.33556e-07 -1.62773e-06 0)
(9.91085e-07 -1.55445e-06 0)
(1.15048e-06 -1.47417e-06 0)
(1.31165e-06 -1.38903e-06 0)
(1.47316e-06 -1.30079e-06 0)
(7.29547e-08 -1.86492e-06 0)
(2.19088e-07 -1.85131e-06 0)
(3.66048e-07 -1.82442e-06 0)
(5.14257e-07 -1.78514e-06 0)
(6.64003e-07 -1.7346e-06 0)
(8.15491e-07 -1.67419e-06 0)
(9.68751e-07 -1.60559e-06 0)
(1.12347e-06 -1.53034e-06 0)
(1.27965e-06 -1.45034e-06 0)
(1.43584e-06 -1.36736e-06 0)
(7.15976e-08 -1.89845e-06 0)
(2.14901e-07 -1.88572e-06 0)
(3.5894e-07 -1.86057e-06 0)
(5.04063e-07 -1.82379e-06 0)
(6.50502e-07 -1.77647e-06 0)
(7.98419e-07 -1.71984e-06 0)
(9.47822e-07 -1.65548e-06 0)
(1.09838e-06 -1.5848e-06 0)
(1.25018e-06 -1.50949e-06 0)
(1.40177e-06 -1.43133e-06 0)
(7.02286e-08 -1.93243e-06 0)
(2.10773e-07 -1.92047e-06 0)
(3.51984e-07 -1.89688e-06 0)
(4.94148e-07 -1.86237e-06 0)
(6.37444e-07 -1.81796e-06 0)
(7.82051e-07 -1.76474e-06 0)
(9.27922e-07 -1.70421e-06 0)
(1.07474e-06 -1.63771e-06 0)
(1.22263e-06 -1.56669e-06 0)
(1.37021e-06 -1.49294e-06 0)
(6.88407e-08 -1.96677e-06 0)
(2.06677e-07 -1.95552e-06 0)
(3.45088e-07 -1.93335e-06 0)
(4.84371e-07 -1.9009e-06 0)
(6.24645e-07 -1.85911e-06 0)
(7.66115e-07 -1.809e-06 0)
(9.08713e-07 -1.75195e-06 0)
(1.05212e-06 -1.68924e-06 0)
(1.19647e-06 -1.62215e-06 0)
(1.34049e-06 -1.55242e-06 0)
(6.74567e-08 -2.0014e-06 0)
(2.02581e-07 -1.9908e-06 0)
(3.38176e-07 -1.96993e-06 0)
(4.74608e-07 -1.93934e-06 0)
(6.11951e-07 -1.89993e-06 0)
(7.50397e-07 -1.85266e-06 0)
(8.89905e-07 -1.79879e-06 0)
(1.03015e-06 -1.73953e-06 0)
(1.17127e-06 -1.67603e-06 0)
(1.31211e-06 -1.60995e-06 0)
(6.60685e-08 -2.03626e-06 0)
(1.98412e-07 -2.02626e-06 0)
(3.31153e-07 -2.00657e-06 0)
(4.64721e-07 -1.97768e-06 0)
(5.99179e-07 -1.94045e-06 0)
(7.34673e-07 -1.89577e-06 0)
(8.71214e-07 -1.8448e-06 0)
(1.00849e-06 -1.78869e-06 0)
(1.14661e-06 -1.72848e-06 0)
(1.2846e-06 -1.66573e-06 0)
(6.4635e-08 -2.07125e-06 0)
(1.94081e-07 -2.0618e-06 0)
(3.23915e-07 -2.04319e-06 0)
(4.5457e-07 -2.01587e-06 0)
(5.86134e-07 -1.98064e-06 0)
(7.18714e-07 -1.93834e-06 0)
(8.52361e-07 -1.89004e-06 0)
(9.86793e-07 -1.83681e-06 0)
(1.12212e-06 -1.77963e-06 0)
(1.25748e-06 -1.71994e-06 0)
(6.31178e-08 -2.10631e-06 0)
(1.89526e-07 -2.09737e-06 0)
(3.16364e-07 -2.07975e-06 0)
(4.44021e-07 -2.05388e-06 0)
(5.7263e-07 -2.02051e-06 0)
(7.02283e-07 -1.98041e-06 0)
(8.33056e-07 -1.93456e-06 0)
(9.64733e-07 -1.88399e-06 0)
(1.09738e-06 -1.82961e-06 0)
(1.23026e-06 -1.77272e-06 0)
(6.15049e-08 -2.14128e-06 0)
(1.84717e-07 -2.13281e-06 0)
(3.0842e-07 -2.11612e-06 0)
(4.32945e-07 -2.09161e-06 0)
(5.58482e-07 -2.05995e-06 0)
(6.85141e-07 -2.02189e-06 0)
(8.13023e-07 -1.97833e-06 0)
(9.41977e-07 -1.93024e-06 0)
(1.07199e-06 -1.87846e-06 0)
(1.20249e-06 -1.82415e-06 0)
(5.97926e-08 -2.17612e-06 0)
(1.79608e-07 -2.16809e-06 0)
(2.99965e-07 -2.15228e-06 0)
(4.21171e-07 -2.12904e-06 0)
(5.4348e-07 -2.09901e-06 0)
(6.67028e-07 -2.06286e-06 0)
(7.91945e-07 -2.02145e-06 0)
(9.18109e-07 -1.97571e-06 0)
(1.0455e-06 -1.92633e-06 0)
(1.17364e-06 -1.87445e-06 0)
(5.79614e-08 -2.2105e-06 0)
(1.74119e-07 -2.2029e-06 0)
(2.90864e-07 -2.18792e-06 0)
(4.08516e-07 -2.1659e-06 0)
(5.27388e-07 -2.1374e-06 0)
(6.47656e-07 -2.10307e-06 0)
(7.69466e-07 -2.06372e-06 0)
(8.92712e-07 -2.02018e-06 0)
(1.01742e-06 -1.97311e-06 0)
(1.14318e-06 -1.92351e-06 0)
(5.59661e-08 -2.24457e-06 0)
(1.68121e-07 -2.23739e-06 0)
(2.80917e-07 -2.22321e-06 0)
(3.94724e-07 -2.20236e-06 0)
(5.09883e-07 -2.17535e-06 0)
(6.26625e-07 -2.14279e-06 0)
(7.4511e-07 -2.10542e-06 0)
(8.65286e-07 -2.06399e-06 0)
(9.87158e-07 -2.01915e-06 0)
(1.1105e-06 -1.97173e-06 0)
(5.37806e-08 -2.27749e-06 0)
(1.61565e-07 -2.27071e-06 0)
(2.70048e-07 -2.25733e-06 0)
(3.79667e-07 -2.23763e-06 0)
(4.90813e-07 -2.21209e-06 0)
(6.03747e-07 -2.1813e-06 0)
(7.18636e-07 -2.14589e-06 0)
(8.35547e-07 -2.10656e-06 0)
(9.54446e-07 -2.06393e-06 0)
(1.07528e-06 -2.01871e-06 0)
)


// ************************************************************************* //
