/*--------------------------------*- C++ -*----------------------------------*\
| =========                 |                                                 |
| \\      /  F ield         | foam-extend: Open Source CFD                    |
|  \\    /   O peration     | Version:     4.1                                |
|   \\  /    A nd           | Web:         http://www.foam-extend.org         |
|    \\/     M anipulation  |                                                 |
\*---------------------------------------------------------------------------*/
FoamFile
{
    version     2.0;
    format      ascii;
    class       vectorField;
    location    "4";
    object      solidsCellD_iteration2;
}
// * * * * * * * * * * * * * * * * * * * * * * * * * * * * * * * * * * * * * //


1000
(
(1.89474e-06 -7.36238e-07 0)
(1.79766e-06 -6.88277e-07 0)
(1.73709e-06 -6.59019e-07 0)
(1.70415e-06 -6.46855e-07 0)
(1.69028e-06 -6.44527e-07 0)
(1.69039e-06 -6.49827e-07 0)
(1.7008e-06 -6.6013e-07 0)
(1.71892e-06 -6.7431e-07 0)
(1.74251e-06 -6.91258e-07 0)
(1.76917e-06 -7.10865e-07 0)
(1.7147e-06 -8.04329e-07 0)
(1.61108e-06 -7.72085e-07 0)
(1.54617e-06 -7.5295e-07 0)
(1.50989e-06 -7.4772e-07 0)
(1.49326e-06 -7.5003e-07 0)
(1.49063e-06 -7.5871e-07 0)
(1.49819e-06 -7.71493e-07 0)
(1.51317e-06 -7.87486e-07 0)
(1.53338e-06 -8.05836e-07 0)
(1.55674e-06 -8.25818e-07 0)
(1.52708e-06 -8.68836e-07 0)
(1.42107e-06 -8.54192e-07 0)
(1.35454e-06 -8.46212e-07 0)
(1.31655e-06 -8.48568e-07 0)
(1.29815e-06 -8.55846e-07 0)
(1.29348e-06 -8.67936e-07 0)
(1.29871e-06 -8.83079e-07 0)
(1.31113e-06 -9.00629e-07 0)
(1.3286e-06 -9.20025e-07 0)
(1.34934e-06 -9.40416e-07 0)
(1.33344e-06 -9.28633e-07 0)
(1.22949e-06 -9.32424e-07 0)
(1.16417e-06 -9.36095e-07 0)
(1.1263e-06 -9.46233e-07 0)
(1.10723e-06 -9.58617e-07 0)
(1.10127e-06 -9.74152e-07 0)
(1.10472e-06 -9.91562e-07 0)
(1.11494e-06 -1.01062e-06 0)
(1.13001e-06 -1.03107e-06 0)
(1.14821e-06 -1.05206e-06 0)
(1.13506e-06 -9.82543e-07 0)
(1.03766e-06 -1.00456e-06 0)
(9.76347e-07 -1.01979e-06 0)
(9.40445e-07 -1.0376e-06 0)
(9.21937e-07 -1.05491e-06 0)
(9.15435e-07 -1.07376e-06 0)
(9.17548e-07 -1.09337e-06 0)
(9.25812e-07 -1.11391e-06 0)
(9.3858e-07 -1.13537e-06 0)
(9.54192e-07 -1.15707e-06 0)
(9.33022e-07 -1.02945e-06 0)
(8.46431e-07 -1.0685e-06 0)
(7.91898e-07 -1.09449e-06 0)
(7.59743e-07 -1.11946e-06 0)
(7.42903e-07 -1.1414e-06 0)
(7.3651e-07 -1.16335e-06 0)
(7.37686e-07 -1.18497e-06 0)
(7.44218e-07 -1.20688e-06 0)
(7.54719e-07 -1.22928e-06 0)
(7.67646e-07 -1.25176e-06 0)
(7.28245e-07 -1.06828e-06 0)
(6.56396e-07 -1.12227e-06 0)
(6.11123e-07 -1.15769e-06 0)
(5.84283e-07 -1.18892e-06 0)
(5.70053e-07 -1.21489e-06 0)
(5.64398e-07 -1.23956e-06 0)
(5.64968e-07 -1.26293e-06 0)
(5.69915e-07 -1.28608e-06 0)
(5.7813e-07 -1.30934e-06 0)
(5.88279e-07 -1.33256e-06 0)
(5.21504e-07 -1.09819e-06 0)
(4.67681e-07 -1.16418e-06 0)
(4.33756e-07 -1.2072e-06 0)
(4.13589e-07 -1.24341e-06 0)
(4.02783e-07 -1.27262e-06 0)
(3.98358e-07 -1.29945e-06 0)
(3.98573e-07 -1.32426e-06 0)
(4.02036e-07 -1.34843e-06 0)
(4.07932e-07 -1.37236e-06 0)
(4.15222e-07 -1.39617e-06 0)
(3.13472e-07 -1.1185e-06 0)
(2.80157e-07 -1.19287e-06 0)
(2.59138e-07 -1.24123e-06 0)
(2.46585e-07 -1.28097e-06 0)
(2.39815e-07 -1.31243e-06 0)
(2.37016e-07 -1.34077e-06 0)
(2.37087e-07 -1.36658e-06 0)
(2.39127e-07 -1.39149e-06 0)
(2.42651e-07 -1.41594e-06 0)
(2.47031e-07 -1.44024e-06 0)
(1.04706e-07 -1.12873e-06 0)
(9.33881e-08 -1.20739e-06 0)
(8.62465e-08 -1.25851e-06 0)
(8.19937e-08 -1.30008e-06 0)
(7.96934e-08 -1.3327e-06 0)
(7.87108e-08 -1.36181e-06 0)
(7.87009e-08 -1.38812e-06 0)
(7.93726e-08 -1.41337e-06 0)
(8.0546e-08 -1.43804e-06 0)
(8.19982e-08 -1.46257e-06 0)
(2.93901e-06 -3.35695e-08 0)
(2.9647e-06 -2.43486e-08 0)
(2.98223e-06 -1.85575e-08 0)
(3.00197e-06 -1.52106e-08 0)
(3.02401e-06 -1.34064e-08 0)
(3.05073e-06 -1.26501e-08 0)
(3.08195e-06 -1.25858e-08 0)
(3.11784e-06 -1.29735e-08 0)
(3.15825e-06 -1.36926e-08 0)
(3.20268e-06 -1.45278e-08 0)
(2.91768e-06 -1.00706e-07 0)
(2.93927e-06 -7.3599e-08 0)
(2.95423e-06 -5.66055e-08 0)
(2.97227e-06 -4.68344e-08 0)
(2.99319e-06 -4.16022e-08 0)
(3.0191e-06 -3.94131e-08 0)
(3.04974e-06 -3.92739e-08 0)
(3.08517e-06 -4.04905e-08 0)
(3.12519e-06 -4.2655e-08 0)
(3.16919e-06 -4.51578e-08 0)
(2.87499e-06 -1.68418e-07 0)
(2.88881e-06 -1.24938e-07 0)
(2.89887e-06 -9.77044e-08 0)
(2.91367e-06 -8.20766e-08 0)
(2.93246e-06 -7.37745e-08 0)
(2.95687e-06 -7.03987e-08 0)
(2.98642e-06 -7.03071e-08 0)
(3.02094e-06 -7.23935e-08 0)
(3.06023e-06 -7.6e-08 0)
(3.10346e-06 -8.01831e-08 0)
(2.81169e-06 -2.36999e-07 0)
(2.8145e-06 -1.79541e-07 0)
(2.81754e-06 -1.43586e-07 0)
(2.82775e-06 -1.23062e-07 0)
(2.84347e-06 -1.12249e-07 0)
(2.86567e-06 -1.08007e-07 0)
(2.89364e-06 -1.08141e-07 0)
(2.92691e-06 -1.11198e-07 0)
(2.96516e-06 -1.16275e-07 0)
(3.00732e-06 -1.22155e-07 0)
(2.7287e-06 -3.06639e-07 0)
(2.71791e-06 -2.38387e-07 0)
(2.71227e-06 -1.95713e-07 0)
(2.71671e-06 -1.71559e-07 0)
(2.72865e-06 -1.58995e-07 0)
(2.74818e-06 -1.54338e-07 0)
(2.77418e-06 -1.54946e-07 0)
(2.80591e-06 -1.59091e-07 0)
(2.84286e-06 -1.65647e-07 0)
(2.88373e-06 -1.73226e-07 0)
(2.62723e-06 -3.77371e-07 0)
(2.60098e-06 -3.02111e-07 0)
(2.58553e-06 -2.5509e-07 0)
(2.58345e-06 -2.28805e-07 0)
(2.59108e-06 -2.1541e-07 0)
(2.60756e-06 -2.10882e-07 0)
(2.63131e-06 -2.12237e-07 0)
(2.66124e-06 -2.17585e-07 0)
(2.69672e-06 -2.25623e-07 0)
(2.73624e-06 -2.34901e-07 0)
(2.50864e-06 -4.49062e-07 0)
(2.46607e-06 -3.70982e-07 0)
(2.44027e-06 -3.22246e-07 0)
(2.43127e-06 -2.95493e-07 0)
(2.43429e-06 -2.82282e-07 0)
(2.44748e-06 -2.78476e-07 0)
(2.46882e-06 -2.80894e-07 0)
(2.4968e-06 -2.87595e-07 0)
(2.53068e-06 -2.9716e-07 0)
(2.56888e-06 -3.08143e-07 0)
(2.37445e-06 -5.21376e-07 0)
(2.31567e-06 -4.44842e-07 0)
(2.27958e-06 -3.97145e-07 0)
(2.26365e-06 -3.71638e-07 0)
(2.26197e-06 -3.59667e-07 0)
(2.27181e-06 -3.57214e-07 0)
(2.29063e-06 -3.61024e-07 0)
(2.31661e-06 -3.69234e-07 0)
(2.34882e-06 -3.80353e-07 0)
(2.38578e-06 -3.93065e-07 0)
(2.2263e-06 -5.93807e-07 0)
(2.15239e-06 -5.23089e-07 0)
(2.10673e-06 -4.79149e-07 0)
(2.08428e-06 -4.56588e-07 0)
(2.07812e-06 -4.46902e-07 0)
(2.08462e-06 -4.46445e-07 0)
(2.10086e-06 -4.52035e-07 0)
(2.12475e-06 -4.6193e-07 0)
(2.15506e-06 -4.7474e-07 0)
(2.19079e-06 -4.89139e-07 0)
(2.06587e-06 -6.65662e-07 0)
(1.97888e-06 -6.04672e-07 0)
(1.92487e-06 -5.67007e-07 0)
(1.89665e-06 -5.48997e-07 0)
(1.88637e-06 -5.42579e-07 0)
(1.88959e-06 -5.44751e-07 0)
(1.9031e-06 -5.52533e-07 0)
(1.92465e-06 -5.64462e-07 0)
(1.95281e-06 -5.79198e-07 0)
(1.98692e-06 -5.96032e-07 0)
(3.25102e-06 -1.53537e-08 0)
(3.30359e-06 -1.5617e-08 0)
(3.35944e-06 -1.59046e-08 0)
(3.41833e-06 -1.61403e-08 0)
(3.47992e-06 -1.63031e-08 0)
(3.54401e-06 -1.63758e-08 0)
(3.61038e-06 -1.63458e-08 0)
(3.67875e-06 -1.62365e-08 0)
(3.74888e-06 -1.60526e-08 0)
(3.82056e-06 -1.57714e-08 0)
(3.89361e-06 -1.53624e-08 0)
(3.96782e-06 -1.4817e-08 0)
(4.043e-06 -1.41364e-08 0)
(4.11892e-06 -1.33149e-08 0)
(4.19542e-06 -1.23347e-08 0)
(4.27222e-06 -1.11738e-08 0)
(4.34918e-06 -9.80638e-09 0)
(4.42585e-06 -8.20656e-09 0)
(4.50229e-06 -6.33822e-09 0)
(4.57745e-06 -4.1952e-09 0)
(3.21896e-06 -4.74992e-08 0)
(3.27412e-06 -4.81141e-08 0)
(3.33231e-06 -4.8807e-08 0)
(3.39326e-06 -4.93534e-08 0)
(3.45675e-06 -4.96943e-08 0)
(3.52253e-06 -4.98166e-08 0)
(3.59042e-06 -4.96793e-08 0)
(3.66018e-06 -4.93007e-08 0)
(3.73158e-06 -4.86574e-08 0)
(3.80444e-06 -4.77125e-08 0)
(3.87857e-06 -4.64196e-08 0)
(3.95379e-06 -4.47569e-08 0)
(4.02992e-06 -4.27027e-08 0)
(4.10676e-06 -4.02222e-08 0)
(4.18411e-06 -3.72625e-08 0)
(4.2617e-06 -3.37655e-08 0)
(4.33941e-06 -2.9657e-08 0)
(4.41678e-06 -2.48618e-08 0)
(4.49395e-06 -1.92704e-08 0)
(4.56987e-06 -1.28548e-08 0)
(3.15602e-06 -8.36039e-08 0)
(3.21629e-06 -8.39944e-08 0)
(3.27913e-06 -8.45626e-08 0)
(3.34414e-06 -8.50153e-08 0)
(3.41124e-06 -8.52053e-08 0)
(3.48028e-06 -8.51226e-08 0)
(3.55116e-06 -8.46673e-08 0)
(3.62364e-06 -8.38399e-08 0)
(3.69752e-06 -8.25793e-08 0)
(3.77264e-06 -8.08406e-08 0)
(3.8489e-06 -7.85672e-08 0)
(3.92611e-06 -7.57185e-08 0)
(4.00413e-06 -7.22388e-08 0)
(4.08272e-06 -6.80581e-08 0)
(4.16174e-06 -6.30881e-08 0)
(4.24095e-06 -5.72326e-08 0)
(4.3202e-06 -5.03675e-08 0)
(4.39907e-06 -4.23769e-08 0)
(4.47769e-06 -3.30794e-08 0)
(4.55503e-06 -2.24194e-08 0)
(3.06389e-06 -1.25945e-07 0)
(3.1315e-06 -1.25187e-07 0)
(3.20105e-06 -1.24791e-07 0)
(3.27198e-06 -1.24523e-07 0)
(3.34447e-06 -1.24042e-07 0)
(3.41833e-06 -1.23334e-07 0)
(3.49356e-06 -1.22208e-07 0)
(3.56999e-06 -1.20649e-07 0)
(3.64752e-06 -1.18556e-07 0)
(3.72603e-06 -1.15859e-07 0)
(3.80544e-06 -1.12475e-07 0)
(3.88558e-06 -1.0833e-07 0)
(3.96632e-06 -1.03333e-07 0)
(4.04747e-06 -9.73809e-08 0)
(4.12891e-06 -9.0355e-08 0)
(4.21046e-06 -8.21164e-08 0)
(4.29196e-06 -7.24917e-08 0)
(4.37304e-06 -6.13226e-08 0)
(4.45381e-06 -4.83493e-08 0)
(4.53325e-06 -3.34852e-08 0)
(2.94531e-06 -1.76506e-07 0)
(3.02218e-06 -1.73447e-07 0)
(3.10033e-06 -1.71028e-07 0)
(3.1788e-06 -1.69222e-07 0)
(3.25817e-06 -1.67382e-07 0)
(3.33819e-06 -1.65498e-07 0)
(3.41908e-06 -1.63264e-07 0)
(3.50064e-06 -1.60619e-07 0)
(3.58289e-06 -1.57409e-07 0)
(3.66576e-06 -1.53522e-07 0)
(3.7492e-06 -1.48834e-07 0)
(3.83309e-06 -1.43234e-07 0)
(3.91733e-06 -1.3659e-07 0)
(4.00181e-06 -1.28771e-07 0)
(4.08645e-06 -1.19622e-07 0)
(4.17099e-06 -1.08964e-07 0)
(4.25542e-06 -9.65757e-08 0)
(4.33929e-06 -8.22484e-08 0)
(4.42283e-06 -6.56414e-08 0)
(4.50499e-06 -4.66197e-08 0)
(2.80359e-06 -2.36695e-07 0)
(2.89121e-06 -2.30018e-07 0)
(2.97946e-06 -2.24343e-07 0)
(3.06687e-06 -2.20025e-07 0)
(3.15446e-06 -2.16025e-07 0)
(3.2419e-06 -2.12306e-07 0)
(3.32957e-06 -2.08436e-07 0)
(3.41731e-06 -2.04269e-07 0)
(3.50522e-06 -1.99581e-07 0)
(3.59329e-06 -1.94212e-07 0)
(3.68157e-06 -1.87991e-07 0)
(3.76997e-06 -1.80758e-07 0)
(3.85844e-06 -1.72339e-07 0)
(3.9469e-06 -1.62565e-07 0)
(4.03532e-06 -1.51239e-07 0)
(4.12346e-06 -1.38139e-07 0)
(4.21135e-06 -1.22996e-07 0)
(4.29858e-06 -1.05543e-07 0)
(4.38544e-06 -8.53485e-08 0)
(4.47089e-06 -6.22127e-08 0)
(2.6425e-06 -3.07477e-07 0)
(2.74198e-06 -2.95819e-07 0)
(2.84155e-06 -2.85644e-07 0)
(2.93905e-06 -2.77759e-07 0)
(3.03593e-06 -2.70735e-07 0)
(3.13179e-06 -2.64451e-07 0)
(3.2271e-06 -2.58343e-07 0)
(3.32183e-06 -2.52162e-07 0)
(3.41619e-06 -2.45599e-07 0)
(3.51022e-06 -2.38417e-07 0)
(3.60401e-06 -2.30391e-07 0)
(3.69756e-06 -2.21309e-07 0)
(3.79084e-06 -2.10954e-07 0)
(3.88384e-06 -1.99111e-07 0)
(3.97653e-06 -1.85535e-07 0)
(4.06876e-06 -1.69959e-07 0)
(4.16062e-06 -1.52056e-07 0)
(4.2517e-06 -1.31494e-07 0)
(4.34234e-06 -1.07742e-07 0)
(4.43158e-06 -8.05377e-08 0)
(2.46591e-06 -3.89035e-07 0)
(2.57793e-06 -3.70922e-07 0)
(2.68963e-06 -3.55009e-07 0)
(2.79812e-06 -3.42387e-07 0)
(2.9051e-06 -3.31409e-07 0)
(3.0102e-06 -3.21746e-07 0)
(3.11395e-06 -3.12738e-07 0)
(3.2164e-06 -3.03994e-07 0)
(3.31785e-06 -2.95125e-07 0)
(3.41845e-06 -2.85794e-07 0)
(3.51832e-06 -2.7571e-07 0)
(3.61749e-06 -2.64598e-07 0)
(3.716e-06 -2.52187e-07 0)
(3.81395e-06 -2.38211e-07 0)
(3.91132e-06 -2.22364e-07 0)
(4.00805e-06 -2.04325e-07 0)
(4.10424e-06 -1.83697e-07 0)
(4.19955e-06 -1.60075e-07 0)
(4.29435e-06 -1.32827e-07 0)
(4.38778e-06 -1.01649e-07 0)
(2.2778e-06 -4.81393e-07 0)
(2.40304e-06 -4.55499e-07 0)
(2.52732e-06 -4.32996e-07 0)
(2.64743e-06 -4.14588e-07 0)
(2.765e-06 -3.98835e-07 0)
(2.87984e-06 -3.85013e-07 0)
(2.99247e-06 -3.72435e-07 0)
(3.1031e-06 -3.60546e-07 0)
(3.21208e-06 -3.48866e-07 0)
(3.31962e-06 -3.36965e-07 0)
(3.42591e-06 -3.24476e-07 0)
(3.53104e-06 -3.11062e-07 0)
(3.63515e-06 -2.96396e-07 0)
(3.73838e-06 -2.80145e-07 0)
(3.84072e-06 -2.61938e-07 0)
(3.94223e-06 -2.41388e-07 0)
(4.04303e-06 -2.18027e-07 0)
(4.14286e-06 -1.91372e-07 0)
(4.24209e-06 -1.60707e-07 0)
(4.34003e-06 -1.25706e-07 0)
(2.08158e-06 -5.83678e-07 0)
(2.22116e-06 -5.47964e-07 0)
(2.35813e-06 -5.17855e-07 0)
(2.49038e-06 -4.9249e-07 0)
(2.61888e-06 -4.70947e-07 0)
(2.74383e-06 -4.52161e-07 0)
(2.86567e-06 -4.35373e-07 0)
(2.98477e-06 -4.19868e-07 0)
(3.10152e-06 -4.0503e-07 0)
(3.21624e-06 -3.90319e-07 0)
(3.32916e-06 -3.75271e-07 0)
(3.44045e-06 -3.59468e-07 0)
(3.55032e-06 -3.4251e-07 0)
(3.65895e-06 -3.23992e-07 0)
(3.7664e-06 -3.03469e-07 0)
(3.87279e-06 -2.80492e-07 0)
(3.97828e-06 -2.54519e-07 0)
(4.0827e-06 -2.24999e-07 0)
(4.18648e-06 -1.91144e-07 0)
(4.28909e-06 -1.52568e-07 0)
(1.93166e-06 -6.84364e-07 0)
(2.08382e-06 -6.39039e-07 0)
(2.22953e-06 -6.02689e-07 0)
(2.36974e-06 -5.71569e-07 0)
(2.50532e-06 -5.44821e-07 0)
(2.6368e-06 -5.21335e-07 0)
(2.76471e-06 -5.00283e-07 0)
(2.88945e-06 -4.80906e-07 0)
(3.01142e-06 -4.62539e-07 0)
(3.13098e-06 -4.44597e-07 0)
(3.24837e-06 -4.26564e-07 0)
(3.36378e-06 -4.07975e-07 0)
(3.47748e-06 -3.88378e-07 0)
(3.58967e-06 -3.67318e-07 0)
(3.70042e-06 -3.44309e-07 0)
(3.80996e-06 -3.18863e-07 0)
(3.91841e-06 -2.90404e-07 0)
(4.02573e-06 -2.58367e-07 0)
(4.13234e-06 -2.21951e-07 0)
(4.23793e-06 -1.80715e-07 0)
(1.84774e-06 -7.66624e-07 0)
(2.00075e-06 -7.19084e-07 0)
(2.14814e-06 -6.79003e-07 0)
(2.29076e-06 -6.44091e-07 0)
(2.42893e-06 -6.1354e-07 0)
(2.56307e-06 -5.86374e-07 0)
(2.69358e-06 -5.61769e-07 0)
(2.82082e-06 -5.38993e-07 0)
(2.94516e-06 -5.17398e-07 0)
(3.06691e-06 -4.964e-07 0)
(3.18631e-06 -4.75478e-07 0)
(3.30355e-06 -4.54152e-07 0)
(3.41892e-06 -4.31959e-07 0)
(3.53261e-06 -4.08429e-07 0)
(3.64471e-06 -3.8307e-07 0)
(3.75549e-06 -3.55399e-07 0)
(3.86504e-06 -3.2485e-07 0)
(3.97346e-06 -2.90885e-07 0)
(4.08111e-06 -2.52728e-07 0)
(4.18783e-06 -2.09888e-07 0)
(1.77777e-06 -8.448e-07 0)
(1.9289e-06 -7.96383e-07 0)
(2.07602e-06 -7.54093e-07 0)
(2.21911e-06 -7.16353e-07 0)
(2.35834e-06 -6.82672e-07 0)
(2.49384e-06 -6.52272e-07 0)
(2.62591e-06 -6.24414e-07 0)
(2.75477e-06 -5.98441e-07 0)
(2.88074e-06 -5.73747e-07 0)
(3.00407e-06 -5.49775e-07 0)
(3.12497e-06 -5.26007e-07 0)
(3.24361e-06 -5.01964e-07 0)
(3.3603e-06 -4.77185e-07 0)
(3.4752e-06 -4.51201e-07 0)
(3.58842e-06 -4.23529e-07 0)
(3.70025e-06 -3.937e-07 0)
(3.81077e-06 -3.61176e-07 0)
(3.92016e-06 -3.25443e-07 0)
(4.02874e-06 -2.85733e-07 0)
(4.13649e-06 -2.41539e-07 0)
(1.71674e-06 -9.19705e-07 0)
(1.86545e-06 -8.70973e-07 0)
(2.01126e-06 -8.27207e-07 0)
(2.15373e-06 -7.87312e-07 0)
(2.29295e-06 -7.51043e-07 0)
(2.42886e-06 -7.1782e-07 0)
(2.56163e-06 -6.87038e-07 0)
(2.69138e-06 -6.58127e-07 0)
(2.81834e-06 -6.30537e-07 0)
(2.94271e-06 -6.0375e-07 0)
(3.06465e-06 -5.77265e-07 0)
(3.18431e-06 -5.50617e-07 0)
(3.30201e-06 -5.23363e-07 0)
(3.41786e-06 -4.95045e-07 0)
(3.53199e-06 -4.65194e-07 0)
(3.6447e-06 -4.33365e-07 0)
(3.75606e-06 -3.99048e-07 0)
(3.8663e-06 -3.61744e-07 0)
(3.97572e-06 -3.207e-07 0)
(4.0844e-06 -2.75493e-07 0)
(1.66319e-06 -9.91426e-07 0)
(1.80909e-06 -9.42704e-07 0)
(1.95293e-06 -8.9804e-07 0)
(2.09404e-06 -8.5659e-07 0)
(2.23248e-06 -8.18272e-07 0)
(2.36805e-06 -7.82686e-07 0)
(2.50083e-06 -7.49362e-07 0)
(2.63083e-06 -7.17822e-07 0)
(2.7582e-06 -6.87583e-07 0)
(2.88312e-06 -6.58179e-07 0)
(3.00569e-06 -6.29142e-07 0)
(3.12602e-06 -6.00036e-07 0)
(3.24443e-06 -5.70446e-07 0)
(3.36099e-06 -5.39934e-07 0)
(3.47584e-06 -5.0805e-07 0)
(3.58926e-06 -4.74373e-07 0)
(3.70133e-06 -4.38418e-07 0)
(3.81232e-06 -3.99704e-07 0)
(3.92248e-06 -3.57541e-07 0)
(4.03202e-06 -3.11675e-07 0)
(1.61564e-06 -1.0601e-06 0)
(1.75856e-06 -1.01167e-06 0)
(1.90008e-06 -9.66474e-07 0)
(2.03937e-06 -9.23893e-07 0)
(2.17647e-06 -8.83961e-07 0)
(2.31115e-06 -8.46419e-07 0)
(2.44339e-06 -8.10921e-07 0)
(2.57311e-06 -7.7707e-07 0)
(2.70043e-06 -7.44458e-07 0)
(2.82548e-06 -7.12676e-07 0)
(2.94831e-06 -6.81297e-07 0)
(3.06901e-06 -6.49923e-07 0)
(3.18785e-06 -6.18179e-07 0)
(3.3049e-06 -5.85646e-07 0)
(3.42028e-06 -5.51901e-07 0)
(3.53426e-06 -5.16537e-07 0)
(3.64692e-06 -4.79105e-07 0)
(3.75853e-06 -4.39161e-07 0)
(3.86935e-06 -3.9614e-07 0)
(3.97965e-06 -3.49902e-07 0)
(1.57303e-06 -1.12589e-06 0)
(1.71291e-06 -1.07793e-06 0)
(1.85189e-06 -1.03248e-06 0)
(1.98903e-06 -9.89119e-07 0)
(2.12444e-06 -9.47961e-07 0)
(2.25783e-06 -9.08844e-07 0)
(2.38911e-06 -8.71524e-07 0)
(2.51815e-06 -8.35683e-07 0)
(2.64505e-06 -8.00978e-07 0)
(2.76988e-06 -7.67072e-07 0)
(2.89265e-06 -7.33581e-07 0)
(3.01344e-06 -7.00146e-07 0)
(3.13249e-06 -6.66431e-07 0)
(3.24982e-06 -6.32048e-07 0)
(3.36557e-06 -5.96597e-07 0)
(3.47995e-06 -5.59697e-07 0)
(3.59308e-06 -5.20943e-07 0)
(3.70522e-06 -4.79959e-07 0)
(3.81662e-06 -4.36324e-07 0)
(3.92757e-06 -3.89843e-07 0)
(1.53448e-06 -1.18895e-06 0)
(1.67131e-06 -1.14157e-06 0)
(1.80763e-06 -1.09607e-06 0)
(1.94245e-06 -1.05221e-06 0)
(2.07593e-06 -1.01014e-06 0)
(2.20773e-06 -9.69765e-07 0)
(2.33775e-06 -9.30927e-07 0)
(2.46581e-06 -8.93382e-07 0)
(2.59198e-06 -8.56855e-07 0)
(2.71631e-06 -8.21078e-07 0)
(2.83878e-06 -7.85712e-07 0)
(2.95942e-06 -7.50438e-07 0)
(3.07847e-06 -7.14953e-07 0)
(3.1959e-06 -6.78895e-07 0)
(3.31185e-06 -6.41904e-07 0)
(3.42652e-06 -6.03632e-07 0)
(3.54e-06 -5.63737e-07 0)
(3.65258e-06 -5.21919e-07 0)
(3.76446e-06 -4.77836e-07 0)
(3.87596e-06 -4.31186e-07 0)
(1.49916e-06 -1.24945e-06 0)
(1.63302e-06 -1.20272e-06 0)
(1.76664e-06 -1.15734e-06 0)
(1.89905e-06 -1.11319e-06 0)
(2.03043e-06 -1.07044e-06 0)
(2.16046e-06 -1.02906e-06 0)
(2.289e-06 -9.8896e-07 0)
(2.41586e-06 -9.49976e-07 0)
(2.54108e-06 -9.11884e-07 0)
(2.66471e-06 -8.7449e-07 0)
(2.78666e-06 -8.37495e-07 0)
(2.90698e-06 -8.00617e-07 0)
(3.02584e-06 -7.63573e-07 0)
(3.14321e-06 -7.26033e-07 0)
(3.25923e-06 -6.87684e-07 0)
(3.37407e-06 -6.48229e-07 0)
(3.48781e-06 -6.07389e-07 0)
(3.60074e-06 -5.64915e-07 0)
(3.71301e-06 -5.20462e-07 0)
(3.82499e-06 -4.73818e-07 0)
(1.46639e-06 -1.30761e-06 0)
(1.59736e-06 -1.26156e-06 0)
(1.72829e-06 -1.2164e-06 0)
(1.85827e-06 -1.17209e-06 0)
(1.98748e-06 -1.12884e-06 0)
(2.11562e-06 -1.08667e-06 0)
(2.24255e-06 -1.04555e-06 0)
(2.36806e-06 -1.00538e-06 0)
(2.49218e-06 -9.65983e-07 0)
(2.61494e-06 -9.27225e-07 0)
(2.73622e-06 -8.8884e-07 0)
(2.85606e-06 -8.50581e-07 0)
(2.9746e-06 -8.12185e-07 0)
(3.09178e-06 -7.73359e-07 0)
(3.20776e-06 -7.33839e-07 0)
(3.32267e-06 -6.93387e-07 0)
(3.43659e-06 -6.5177e-07 0)
(3.54978e-06 -6.08751e-07 0)
(3.66237e-06 -5.64e-07 0)
(3.77473e-06 -5.17569e-07 0)
(1.43556e-06 -1.36366e-06 0)
(1.56373e-06 -1.31829e-06 0)
(1.69202e-06 -1.27339e-06 0)
(1.81958e-06 -1.22902e-06 0)
(1.9466e-06 -1.18543e-06 0)
(2.0728e-06 -1.14265e-06 0)
(2.19805e-06 -1.10074e-06 0)
(2.32213e-06 -1.05962e-06 0)
(2.44505e-06 -1.01916e-06 0)
(2.56683e-06 -9.79254e-07 0)
(2.68732e-06 -9.39682e-07 0)
(2.80657e-06 -9.00229e-07 0)
(2.92467e-06 -8.60662e-07 0)
(3.04158e-06 -8.20729e-07 0)
(3.15743e-06 -7.80215e-07 0)
(3.27234e-06 -7.38926e-07 0)
(3.38636e-06 -6.96648e-07 0)
(3.49974e-06 -6.53158e-07 0)
(3.61258e-06 -6.08265e-07 0)
(3.72524e-06 -5.62077e-07 0)
(1.40611e-06 -1.41776e-06 0)
(1.53159e-06 -1.37303e-06 0)
(1.6573e-06 -1.32842e-06 0)
(1.7825e-06 -1.28408e-06 0)
(1.90735e-06 -1.24028e-06 0)
(2.03161e-06 -1.19707e-06 0)
(2.15516e-06 -1.15454e-06 0)
(2.27776e-06 -1.11266e-06 0)
(2.39944e-06 -1.07134e-06 0)
(2.52017e-06 -1.03048e-06 0)
(2.63981e-06 -9.89899e-07 0)
(2.75838e-06 -9.49433e-07 0)
(2.87598e-06 -9.0888e-07 0)
(2.99255e-06 -8.6803e-07 0)
(3.1082e-06 -8.26706e-07 0)
(3.22305e-06 -7.84726e-07 0)
(3.33711e-06 -7.41894e-07 0)
(3.45061e-06 -6.98045e-07 0)
(3.56364e-06 -6.53184e-07 0)
(3.67653e-06 -6.07173e-07 0)
(1.37754e-06 -1.47006e-06 0)
(1.50043e-06 -1.42591e-06 0)
(1.62366e-06 -1.38163e-06 0)
(1.74657e-06 -1.33739e-06 0)
(1.8693e-06 -1.29347e-06 0)
(1.99167e-06 -1.24995e-06 0)
(2.11353e-06 -1.20697e-06 0)
(2.23466e-06 -1.16448e-06 0)
(2.35507e-06 -1.12249e-06 0)
(2.47472e-06 -1.08087e-06 0)
(2.59347e-06 -1.03949e-06 0)
(2.71133e-06 -9.9821e-07 0)
(2.8284e-06 -9.56863e-07 0)
(2.94459e-06 -9.15275e-07 0)
(3.06001e-06 -8.73289e-07 0)
(3.17474e-06 -8.30738e-07 0)
(3.28878e-06 -7.87465e-07 0)
(3.40235e-06 -7.43411e-07 0)
(3.51552e-06 -6.98594e-07 0)
(3.62859e-06 -6.52844e-07 0)
(1.34936e-06 -1.52069e-06 0)
(1.46979e-06 -1.47712e-06 0)
(1.59064e-06 -1.43318e-06 0)
(1.71135e-06 -1.38909e-06 0)
(1.83206e-06 -1.34513e-06 0)
(1.95261e-06 -1.30141e-06 0)
(2.07283e-06 -1.25813e-06 0)
(2.19252e-06 -1.2152e-06 0)
(2.31168e-06 -1.17271e-06 0)
(2.43026e-06 -1.1305e-06 0)
(2.54812e-06 -1.08848e-06 0)
(2.66527e-06 -1.04654e-06 0)
(2.7818e-06 -1.00454e-06 0)
(2.8976e-06 -9.62349e-07 0)
(3.01275e-06 -9.19814e-07 0)
(3.12732e-06 -8.76796e-07 0)
(3.24131e-06 -8.33211e-07 0)
(3.35492e-06 -7.89072e-07 0)
(3.4682e-06 -7.4422e-07 0)
(3.58139e-06 -6.988e-07 0)
(1.32111e-06 -1.56989e-06 0)
(1.4392e-06 -1.52685e-06 0)
(1.55781e-06 -1.48323e-06 0)
(1.67645e-06 -1.43931e-06 0)
(1.79524e-06 -1.3954e-06 0)
(1.91405e-06 -1.35162e-06 0)
(2.03272e-06 -1.30813e-06 0)
(2.15103e-06 -1.26491e-06 0)
(2.26898e-06 -1.22199e-06 0)
(2.38654e-06 -1.17932e-06 0)
(2.50355e-06 -1.13681e-06 0)
(2.62003e-06 -1.09439e-06 0)
(2.73603e-06 -1.05191e-06 0)
(2.85142e-06 -1.00925e-06 0)
(2.96628e-06 -9.66289e-07 0)
(3.08068e-06 -9.22932e-07 0)
(3.19462e-06 -8.79156e-07 0)
(3.30827e-06 -8.34934e-07 0)
(3.42161e-06 -7.90124e-07 0)
(3.53485e-06 -7.44922e-07 0)
(1.29238e-06 -1.6178e-06 0)
(1.40826e-06 -1.57522e-06 0)
(1.52473e-06 -1.53187e-06 0)
(1.64144e-06 -1.48818e-06 0)
(1.75846e-06 -1.44439e-06 0)
(1.87567e-06 -1.40063e-06 0)
(1.99289e-06 -1.35702e-06 0)
(2.10991e-06 -1.31363e-06 0)
(2.22674e-06 -1.27045e-06 0)
(2.34336e-06 -1.22745e-06 0)
(2.4596e-06 -1.1846e-06 0)
(2.57545e-06 -1.14181e-06 0)
(2.69093e-06 -1.09897e-06 0)
(2.80592e-06 -1.05595e-06 0)
(2.92051e-06 -1.01268e-06 0)
(3.03477e-06 -9.69112e-07 0)
(3.14866e-06 -9.25216e-07 0)
(3.26228e-06 -8.8085e-07 0)
(3.37562e-06 -8.3619e-07 0)
(3.48888e-06 -7.91194e-07 0)
(1.26274e-06 -1.66442e-06 0)
(1.37644e-06 -1.62222e-06 0)
(1.4909e-06 -1.57928e-06 0)
(1.60593e-06 -1.53591e-06 0)
(1.72133e-06 -1.49226e-06 0)
(1.83709e-06 -1.44857e-06 0)
(1.95299e-06 -1.40495e-06 0)
(2.06886e-06 -1.36146e-06 0)
(2.18472e-06 -1.31813e-06 0)
(2.30053e-06 -1.27494e-06 0)
(2.41609e-06 -1.23186e-06 0)
(2.53134e-06 -1.18881e-06 0)
(2.64633e-06 -1.1457e-06 0)
(2.76097e-06 -1.10244e-06 0)
(2.87535e-06 -1.05898e-06 0)
(2.98949e-06 -1.01528e-06 0)
(3.10326e-06 -9.71251e-07 0)
(3.21677e-06 -9.26825e-07 0)
(3.33011e-06 -8.82227e-07 0)
(3.44354e-06 -8.37446e-07 0)
(1.23147e-06 -1.70977e-06 0)
(1.34334e-06 -1.66805e-06 0)
(1.45613e-06 -1.62558e-06 0)
(1.56953e-06 -1.5825e-06 0)
(1.6835e-06 -1.53911e-06 0)
(1.79797e-06 -1.49556e-06 0)
(1.91275e-06 -1.452e-06 0)
(2.02768e-06 -1.40852e-06 0)
(2.14275e-06 -1.36514e-06 0)
(2.25787e-06 -1.32187e-06 0)
(2.37279e-06 -1.27866e-06 0)
(2.48751e-06 -1.23546e-06 0)
(2.60214e-06 -1.19219e-06 0)
(2.71657e-06 -1.1488e-06 0)
(2.83073e-06 -1.10522e-06 0)
(2.94458e-06 -1.06141e-06 0)
(3.05821e-06 -1.01726e-06 0)
(3.17181e-06 -9.7291e-07 0)
(3.28513e-06 -9.28314e-07 0)
(3.39834e-06 -8.83663e-07 0)
(1.19816e-06 -1.75443e-06 0)
(1.30835e-06 -1.71316e-06 0)
(1.41962e-06 -1.67104e-06 0)
(1.53166e-06 -1.6283e-06 0)
(1.64444e-06 -1.58516e-06 0)
(1.7579e-06 -1.54182e-06 0)
(1.87188e-06 -1.4984e-06 0)
(1.98614e-06 -1.45499e-06 0)
(2.10057e-06 -1.41163e-06 0)
(2.21507e-06 -1.36833e-06 0)
(2.32955e-06 -1.32508e-06 0)
(2.44402e-06 -1.28181e-06 0)
(2.55838e-06 -1.23846e-06 0)
(2.67242e-06 -1.19499e-06 0)
(2.78632e-06 -1.15134e-06 0)
(2.90014e-06 -1.10743e-06 0)
(3.01367e-06 -1.06324e-06 0)
(3.12712e-06 -1.01887e-06 0)
(3.24043e-06 -9.74312e-07 0)
(3.35363e-06 -9.2976e-07 0)
(1.16236e-06 -1.79783e-06 0)
(1.27106e-06 -1.75718e-06 0)
(1.38102e-06 -1.71559e-06 0)
(1.49197e-06 -1.67328e-06 0)
(1.60394e-06 -1.63051e-06 0)
(1.71682e-06 -1.58747e-06 0)
(1.83025e-06 -1.54427e-06 0)
(1.94395e-06 -1.50101e-06 0)
(2.05796e-06 -1.45775e-06 0)
(2.17226e-06 -1.4145e-06 0)
(2.28652e-06 -1.37126e-06 0)
(2.40062e-06 -1.32797e-06 0)
(2.51472e-06 -1.28459e-06 0)
(2.62864e-06 -1.24108e-06 0)
(2.74233e-06 -1.19737e-06 0)
(2.85595e-06 -1.15342e-06 0)
(2.9694e-06 -1.10931e-06 0)
(3.08274e-06 -1.06479e-06 0)
(3.19602e-06 -1.02023e-06 0)
(3.30904e-06 -9.75578e-07 0)
(8.1984e-08 -1.48753e-06 0)
(2.46861e-07 -1.46631e-06 0)
(4.14472e-07 -1.42434e-06 0)
(5.86311e-07 -1.36374e-06 0)
(7.63624e-07 -1.28654e-06 0)
(9.47203e-07 -1.19582e-06 0)
(1.13732e-06 -1.09481e-06 0)
(1.3337e-06 -9.86935e-07 0)
(1.53581e-06 -8.75641e-07 0)
(1.74229e-06 -7.63641e-07 0)
(8.02083e-08 -1.51365e-06 0)
(2.41367e-07 -1.49435e-06 0)
(4.04733e-07 -1.45604e-06 0)
(5.71513e-07 -1.40068e-06 0)
(7.42714e-07 -1.3299e-06 0)
(9.18978e-07 -1.24634e-06 0)
(1.10047e-06 -1.15278e-06 0)
(1.28688e-06 -1.05214e-06 0)
(1.47721e-06 -9.47698e-07 0)
(1.67044e-06 -8.4177e-07 0)
(7.85783e-08 -1.5407e-06 0)
(2.36315e-07 -1.52316e-06 0)
(3.9575e-07 -1.48818e-06 0)
(5.57829e-07 -1.43762e-06 0)
(7.23341e-07 -1.37282e-06 0)
(8.92778e-07 -1.29601e-06 0)
(1.06628e-06 -1.20962e-06 0)
(1.24373e-06 -1.11609e-06 0)
(1.42431e-06 -1.01832e-06 0)
(1.60751e-06 -9.17723e-07 0)
(7.70601e-08 -1.56866e-06 0)
(2.31659e-07 -1.55259e-06 0)
(3.8758e-07 -1.52046e-06 0)
(5.4557e-07 -1.47395e-06 0)
(7.06253e-07 -1.41425e-06 0)
(8.6997e-07 -1.34322e-06 0)
(1.0368e-06 -1.2631e-06 0)
(1.20661e-06 -1.176e-06 0)
(1.37872e-06 -1.08465e-06 0)
(1.55266e-06 -9.90073e-07 0)
(7.56236e-08 -1.59743e-06 0)
(2.27227e-07 -1.58268e-06 0)
(3.79871e-07 -1.55307e-06 0)
(5.34109e-07 -1.51016e-06 0)
(6.90436e-07 -1.45505e-06 0)
(8.49099e-07 -1.38929e-06 0)
(1.01015e-06 -1.31493e-06 0)
(1.17348e-06 -1.23378e-06 0)
(1.33857e-06 -1.14827e-06 0)
(1.50469e-06 -1.05934e-06 0)
(7.42652e-08 -1.62695e-06 0)
(2.23028e-07 -1.61331e-06 0)
(3.72623e-07 -1.58592e-06 0)
(5.23446e-07 -1.54613e-06 0)
(6.75886e-07 -1.49502e-06 0)
(8.3013e-07 -1.43392e-06 0)
(9.86167e-07 -1.3647e-06 0)
(1.14385e-06 -1.28899e-06 0)
(1.30286e-06 -1.20894e-06 0)
(1.46223e-06 -1.12551e-06 0)
(7.2924e-08 -1.65716e-06 0)
(2.18959e-07 -1.64447e-06 0)
(3.65641e-07 -1.61909e-06 0)
(5.13265e-07 -1.58207e-06 0)
(6.62158e-07 -1.53452e-06 0)
(8.12443e-07 -1.47762e-06 0)
(9.64099e-07 -1.41303e-06 0)
(1.1169e-06 -1.34223e-06 0)
(1.27069e-06 -1.26714e-06 0)
(1.42431e-06 -1.18881e-06 0)
(7.16068e-08 -1.68797e-06 0)
(2.14995e-07 -1.6761e-06 0)
(3.58872e-07 -1.6525e-06 0)
(5.03484e-07 -1.61791e-06 0)
(6.49118e-07 -1.57352e-06 0)
(7.95815e-07 -1.52037e-06 0)
(9.43559e-07 -1.45994e-06 0)
(1.09206e-06 -1.39359e-06 0)
(1.2413e-06 -1.32303e-06 0)
(1.39004e-06 -1.2494e-06 0)
(7.03273e-08 -1.71933e-06 0)
(2.11089e-07 -1.70817e-06 0)
(3.52223e-07 -1.68614e-06 0)
(4.93955e-07 -1.65375e-06 0)
(6.36524e-07 -1.61218e-06 0)
(7.79934e-07 -1.56239e-06 0)
(9.24157e-07 -1.5057e-06 0)
(1.06885e-06 -1.44335e-06 0)
(1.21411e-06 -1.37691e-06 0)
(1.35864e-06 -1.30758e-06 0)
(6.90574e-08 -1.75115e-06 0)
(2.07189e-07 -1.74061e-06 0)
(3.45629e-07 -1.71997e-06 0)
(4.84587e-07 -1.68957e-06 0)
(6.24235e-07 -1.65053e-06 0)
(7.64586e-07 -1.60375e-06 0)
(9.05592e-07 -1.55041e-06 0)
(1.04688e-06 -1.4917e-06 0)
(1.18857e-06 -1.42902e-06 0)
(1.32945e-06 -1.36359e-06 0)
(6.7755e-08 -1.78336e-06 0)
(2.03253e-07 -1.77337e-06 0)
(3.39028e-07 -1.75397e-06 0)
(4.7527e-07 -1.72538e-06 0)
(6.12102e-07 -1.68863e-06 0)
(7.49551e-07 -1.64454e-06 0)
(8.87566e-07 -1.59423e-06 0)
(1.02574e-06 -1.53884e-06 0)
(1.16423e-06 -1.47956e-06 0)
(1.3019e-06 -1.41761e-06 0)
(6.64183e-08 -1.81584e-06 0)
(1.99273e-07 -1.80636e-06 0)
(3.32385e-07 -1.78808e-06 0)
(4.65915e-07 -1.76114e-06 0)
(5.9999e-07 -1.72645e-06 0)
(7.34638e-07 -1.68479e-06 0)
(8.69813e-07 -1.63723e-06 0)
(1.00511e-06 -1.58484e-06 0)
(1.14066e-06 -1.5286e-06 0)
(1.27547e-06 -1.46982e-06 0)
(6.50616e-08 -1.8485e-06 0)
(1.95232e-07 -1.83951e-06 0)
(3.25637e-07 -1.82225e-06 0)
(4.56423e-07 -1.79679e-06 0)
(5.87758e-07 -1.76397e-06 0)
(7.19658e-07 -1.72453e-06 0)
(8.52087e-07 -1.67948e-06 0)
(9.84652e-07 -1.62977e-06 0)
(1.11747e-06 -1.5763e-06 0)
(1.24969e-06 -1.5204e-06 0)
(6.36786e-08 -1.88123e-06 0)
(1.91075e-07 -1.87272e-06 0)
(3.18695e-07 -1.85636e-06 0)
(4.46687e-07 -1.83227e-06 0)
(5.75259e-07 -1.80116e-06 0)
(7.04422e-07 -1.76377e-06 0)
(8.34145e-07 -1.72101e-06 0)
(9.64076e-07 -1.67372e-06 0)
(1.09431e-06 -1.62284e-06 0)
(1.22412e-06 -1.56953e-06 0)
(6.22374e-08 -1.91397e-06 0)
(1.86731e-07 -1.90592e-06 0)
(3.11456e-07 -1.89039e-06 0)
(4.3658e-07 -1.86756e-06 0)
(5.62327e-07 -1.83805e-06 0)
(6.88717e-07 -1.80254e-06 0)
(8.15731e-07 -1.76182e-06 0)
(9.43071e-07 -1.71676e-06 0)
(1.07081e-06 -1.66827e-06 0)
(1.19833e-06 -1.61728e-06 0)
(6.07068e-08 -1.94656e-06 0)
(1.82136e-07 -1.93897e-06 0)
(3.03831e-07 -1.92422e-06 0)
(4.25972e-07 -1.90256e-06 0)
(5.48787e-07 -1.87448e-06 0)
(6.72326e-07 -1.84069e-06 0)
(7.96592e-07 -1.80188e-06 0)
(9.21344e-07 -1.75893e-06 0)
(1.04662e-06 -1.71262e-06 0)
(1.17193e-06 -1.66382e-06 0)
(5.90666e-08 -1.97898e-06 0)
(1.77238e-07 -1.97183e-06 0)
(2.9572e-07 -1.95779e-06 0)
(4.14709e-07 -1.9372e-06 0)
(5.34444e-07 -1.91051e-06 0)
(6.5501e-07 -1.87834e-06 0)
(7.76443e-07 -1.84133e-06 0)
(8.98547e-07 -1.80039e-06 0)
(1.02136e-06 -1.75601e-06 0)
(1.14446e-06 -1.70928e-06 0)
(5.73056e-08 -2.01092e-06 0)
(1.71986e-07 -2.00418e-06 0)
(2.87025e-07 -1.99083e-06 0)
(4.02645e-07 -1.97125e-06 0)
(5.19106e-07 -1.94584e-06 0)
(6.36533e-07 -1.91518e-06 0)
(7.54985e-07 -1.87992e-06 0)
(8.74324e-07 -1.84081e-06 0)
(9.94569e-07 -1.79836e-06 0)
(1.11544e-06 -1.7535e-06 0)
(5.53989e-08 -2.04251e-06 0)
(1.66291e-07 -2.03615e-06 0)
(2.77587e-07 -2.02349e-06 0)
(3.89553e-07 -2.00488e-06 0)
(5.02471e-07 -1.98071e-06 0)
(6.16523e-07 -1.95155e-06 0)
(7.31787e-07 -1.91799e-06 0)
(8.48173e-07 -1.8806e-06 0)
(9.65705e-07 -1.84003e-06 0)
(1.08424e-06 -1.79698e-06 0)
(5.33331e-08 -2.07293e-06 0)
(1.60111e-07 -2.0669e-06 0)
(2.67328e-07 -2.05493e-06 0)
(3.75319e-07 -2.03728e-06 0)
(4.84414e-07 -2.01435e-06 0)
(5.94811e-07 -1.98667e-06 0)
(7.06605e-07 -1.95476e-06 0)
(8.19769e-07 -1.91914e-06 0)
(9.3441e-07 -1.8804e-06 0)
(1.05051e-06 -1.83917e-06 0)
)


// ************************************************************************* //
