/*--------------------------------*- C++ -*----------------------------------*\
| =========                 |                                                 |
| \\      /  F ield         | foam-extend: Open Source CFD                    |
|  \\    /   O peration     | Version:     4.1                                |
|   \\  /    A nd           | Web:         http://www.foam-extend.org         |
|    \\/     M anipulation  |                                                 |
\*---------------------------------------------------------------------------*/
FoamFile
{
    version     2.0;
    format      ascii;
    class       vectorField;
    location    "1";
    object      residualD_iteration16;
}
// * * * * * * * * * * * * * * * * * * * * * * * * * * * * * * * * * * * * * //


1000
(
(0.00409078 -0.00451947 0)
(0.00354696 -0.00401849 0)
(0.0031118 -0.00361858 0)
(0.00279666 -0.00333387 0)
(0.00256623 -0.00310571 0)
(0.00237528 -0.00292222 0)
(0.00222755 -0.00276763 0)
(0.00210756 -0.00262457 0)
(0.00198886 -0.00250494 0)
(0.00196796 -0.00238851 0)
(0.00364783 -0.00492159 0)
(0.00306829 -0.00449679 0)
(0.0026204 -0.00414285 0)
(0.00229057 -0.00388235 0)
(0.0020708 -0.00366628 0)
(0.00190132 -0.00349093 0)
(0.00176804 -0.00334193 0)
(0.00166287 -0.0032032 0)
(0.00157612 -0.00309057 0)
(0.0015554 -0.00296611 0)
(0.00320606 -0.00531264 0)
(0.00261628 -0.00497341 0)
(0.00218637 -0.00466927 0)
(0.00186105 -0.00444292 0)
(0.00163589 -0.00424937 0)
(0.00147486 -0.00409014 0)
(0.00135032 -0.00395024 0)
(0.00124672 -0.00382344 0)
(0.00116762 -0.00372116 0)
(0.00113685 -0.00361203 0)
(0.00277738 -0.00567508 0)
(0.00217883 -0.00542488 0)
(0.00176803 -0.00517884 0)
(0.00146755 -0.00499328 0)
(0.00125123 -0.00482438 0)
(0.00109092 -0.00468385 0)
(0.000978379 -0.00455677 0)
(0.000880958 -0.00444394 0)
(0.000810018 -0.00435152 0)
(0.000767918 -0.00425535 0)
(0.00233035 -0.0060031 0)
(0.00176798 -0.00584533 0)
(0.00139655 -0.00565856 0)
(0.00111757 -0.00551332 0)
(0.00091459 -0.00537144 0)
(0.000771949 -0.00524949 0)
(0.000673638 -0.00513725 0)
(0.000587215 -0.00503743 0)
(0.000517998 -0.00495326 0)
(0.000470455 -0.00486644 0)
(0.00191465 -0.00628974 0)
(0.00139783 -0.00622305 0)
(0.00105833 -0.0060915 0)
(0.000818821 -0.00598075 0)
(0.000648544 -0.00586411 0)
(0.000532896 -0.00575891 0)
(0.000441266 -0.0056612 0)
(0.000360028 -0.00557331 0)
(0.000294222 -0.0054976 0)
(0.000248758 -0.00542105 0)
(0.00148861 -0.00653044 0)
(0.00106266 -0.00653924 0)
(0.000778491 -0.00645628 0)
(0.000585814 -0.00637771 0)
(0.00044793 -0.00628385 0)
(0.000352345 -0.00619431 0)
(0.000271974 -0.00610958 0)
(0.000201904 -0.00603038 0)
(0.000147189 -0.00595978 0)
(0.000109047 -0.00589108 0)
(0.00105726 -0.0067156 0)
(0.000751683 -0.00678435 0)
(0.000539694 -0.00674284 0)
(0.00039291 -0.00669572 0)
(0.000286438 -0.00661773 0)
(0.000211638 -0.00653985 0)
(0.000151813 -0.0064629 0)
(0.000103052 -0.00639139 0)
(6.58221e-05 -0.00632642 0)
(3.89036e-05 -0.00626491 0)
(0.000637231 -0.0068426 0)
(0.000448675 -0.00695523 0)
(0.00031315 -0.00694324 0)
(0.000223396 -0.00691255 0)
(0.000161503 -0.00684513 0)
(0.000117821 -0.00677891 0)
(7.66469e-05 -0.00670927 0)
(4.2036e-05 -0.00664078 0)
(2.08917e-05 -0.00657766 0)
(6.08518e-06 -0.00652159 0)
(0.000212426 -0.00690801 0)
(0.00014659 -0.00704428 0)
(0.000107523 -0.00704499 0)
(7.71426e-05 -0.00702391 0)
(4.90524e-05 -0.00696327 0)
(3.54217e-05 -0.0068991 0)
(2.76518e-05 -0.00683199 0)
(1.53445e-05 -0.00676748 0)
(5.10418e-06 -0.00670655 0)
(-3.92999e-07 -0.00665222 0)
(0.00701565 -0.000209643 0)
(0.00711926 -0.000144391 0)
(0.0071438 -9.92512e-05 0)
(0.00711025 -7.06953e-05 0)
(0.00704603 -4.94377e-05 0)
(0.00698115 -2.94834e-05 0)
(0.00690763 -1.75206e-05 0)
(0.00685182 -1.53571e-05 0)
(0.0067812 -3.94394e-06 0)
(0.00671944 7.70711e-06 0)
(0.00696227 -0.000625749 0)
(0.00703164 -0.000435332 0)
(0.00703255 -0.00030263 0)
(0.00699743 -0.000207909 0)
(0.00693172 -0.000144951 0)
(0.00687254 -0.000106364 0)
(0.00679092 -6.74764e-05 0)
(0.00672748 -3.78299e-05 0)
(0.00666373 -1.05216e-05 0)
(0.00660164 9.92238e-06 0)
(0.00682368 -0.00104943 0)
(0.00685729 -0.000738551 0)
(0.00682254 -0.000525155 0)
(0.00677224 -0.000382926 0)
(0.00669369 -0.000275936 0)
(0.00661853 -0.000200944 0)
(0.00653775 -0.000137806 0)
(0.00646495 -9.12193e-05 0)
(0.00640281 -5.31605e-05 0)
(0.00633984 -1.95629e-05 0)
(0.00661589 -0.00147292 0)
(0.00659976 -0.00106233 0)
(0.00652695 -0.000772574 0)
(0.00644659 -0.000579794 0)
(0.00635807 -0.000438717 0)
(0.0062692 -0.000339061 0)
(0.00617978 -0.000261406 0)
(0.00608991 -0.000196668 0)
(0.0060232 -0.00014141 0)
(0.0059515 -9.19125e-05 0)
(0.00635686 -0.00190359 0)
(0.00626269 -0.00140795 0)
(0.00614572 -0.00105798 0)
(0.00603698 -0.000822694 0)
(0.00592791 -0.000653591 0)
(0.00582318 -0.000531947 0)
(0.00572854 -0.000437426 0)
(0.00563172 -0.000356863 0)
(0.00555665 -0.000288699 0)
(0.00546559 -0.000228272 0)
(0.00605799 -0.00234131 0)
(0.00587814 -0.00178306 0)
(0.0056991 -0.00138677 0)
(0.00555031 -0.00111985 0)
(0.00542125 -0.000925526 0)
(0.0053017 -0.000784037 0)
(0.00519139 -0.000674913 0)
(0.00508529 -0.000586234 0)
(0.0049993 -0.000509108 0)
(0.00488801 -0.000438642 0)
(0.00570749 -0.00277866 0)
(0.00544684 -0.00218673 0)
(0.00521394 -0.00175866 0)
(0.00501902 -0.00146651 0)
(0.00486402 -0.00125542 0)
(0.00472289 -0.00110011 0)
(0.00459183 -0.000981185 0)
(0.00447305 -0.000888145 0)
(0.00437773 -0.00080473 0)
(0.0042459 -0.000727703 0)
(0.0053361 -0.00321878 0)
(0.00498707 -0.00261409 0)
(0.0046971 -0.00217226 0)
(0.0044602 -0.00186831 0)
(0.0042722 -0.00164787 0)
(0.00410932 -0.00148305 0)
(0.003963 -0.00135739 0)
(0.00382926 -0.00126105 0)
(0.00371938 -0.00117226 0)
(0.00356823 -0.00109375 0)
(0.00493985 -0.00365764 0)
(0.00450664 -0.00306636 0)
(0.00416078 -0.0026226 0)
(0.00388857 -0.00231741 0)
(0.00367028 -0.0020906 0)
(0.00349394 -0.00192101 0)
(0.00333933 -0.00179208 0)
(0.00319415 -0.00169519 0)
(0.00307209 -0.00160925 0)
(0.00291571 -0.00154046 0)
(0.00452462 -0.00409159 0)
(0.00401361 -0.00353558 0)
(0.00361995 -0.00310742 0)
(0.00332386 -0.00280666 0)
(0.00309303 -0.00257609 0)
(0.00290508 -0.00240205 0)
(0.00273719 -0.00226395 0)
(0.00258066 -0.00215735 0)
(0.00243537 -0.00206022 0)
(0.0022947 -0.00198992 0)
(0.0066693 1.17321e-05 0)
(0.00661937 1.7402e-05 0)
(0.00657343 2.2693e-05 0)
(0.00653758 2.72326e-05 0)
(0.00650792 3.06925e-05 0)
(0.00646823 3.26672e-05 0)
(0.00642704 3.40418e-05 0)
(0.00639962 3.83101e-05 0)
(0.00637721 4.57641e-05 0)
(0.00634902 5.29578e-05 0)
(0.00631866 5.89146e-05 0)
(0.00628819 6.47519e-05 0)
(0.00625809 7.19932e-05 0)
(0.00622739 8.22394e-05 0)
(0.00619238 9.56104e-05 0)
(0.0061493 0.00011042 0)
(0.00609636 0.000125376 0)
(0.00603034 0.000141313 0)
(0.00594968 0.00015983 0)
(0.00584355 0.000181744 0)
(0.00655558 2.34999e-05 0)
(0.00651949 4.58229e-05 0)
(0.00648866 6.1683e-05 0)
(0.00645724 7.23415e-05 0)
(0.00642585 8.03361e-05 0)
(0.00639137 8.96034e-05 0)
(0.00635657 0.000102025 0)
(0.00632815 0.000118126 0)
(0.00630276 0.000134862 0)
(0.00627778 0.000149436 0)
(0.00625476 0.000166012 0)
(0.0062293 0.000187928 0)
(0.00619888 0.000215169 0)
(0.00616452 0.000247035 0)
(0.00612484 0.000282957 0)
(0.00607621 0.000322533 0)
(0.00601789 0.000366267 0)
(0.00594711 0.000416561 0)
(0.0058632 0.000476689 0)
(0.00576609 0.000546028 0)
(0.00630715 1.0693e-05 0)
(0.00628865 5.21401e-05 0)
(0.00627553 7.93484e-05 0)
(0.00627092 9.9726e-05 0)
(0.00626181 0.000117731 0)
(0.00623531 0.000136778 0)
(0.00620226 0.000158365 0)
(0.00618082 0.000183148 0)
(0.00616381 0.000208861 0)
(0.00614755 0.000234931 0)
(0.00613006 0.000267182 0)
(0.00610697 0.000307564 0)
(0.00607974 0.000354057 0)
(0.00605185 0.000405531 0)
(0.00602104 0.000462653 0)
(0.0059795 0.00052676 0)
(0.00592158 0.000599518 0)
(0.0058442 0.000683991 0)
(0.00575206 0.000786489 0)
(0.00564422 0.000902665 0)
(0.00594026 -4.33957e-05 0)
(0.005963 1.75465e-05 0)
(0.00598242 5.80944e-05 0)
(0.00599744 9.21788e-05 0)
(0.006001 0.000126122 0)
(0.00599158 0.000160904 0)
(0.00597598 0.000196344 0)
(0.00597028 0.000234207 0)
(0.00595787 0.000271543 0)
(0.0059397 0.000311166 0)
(0.00592176 0.000359439 0)
(0.00590327 0.000416487 0)
(0.00588355 0.000479493 0)
(0.00586124 0.000548972 0)
(0.00583295 0.000627595 0)
(0.00579355 0.000716964 0)
(0.00573588 0.000819512 0)
(0.00566057 0.000937906 0)
(0.0055783 0.00108086 0)
(0.00547774 0.00124358 0)
(0.00546951 -0.000158782 0)
(0.00552721 -7.08558e-05 0)
(0.00558051 -5.91577e-06 0)
(0.0056305 5.10288e-05 0)
(0.00566253 0.000105357 0)
(0.00567824 0.000157567 0)
(0.00568078 0.000206604 0)
(0.00568524 0.000259525 0)
(0.00568579 0.000311565 0)
(0.0056831 0.000366371 0)
(0.00567608 0.000430744 0)
(0.00566167 0.000504651 0)
(0.00564209 0.000585166 0)
(0.00561878 0.000673665 0)
(0.00558855 0.000773899 0)
(0.0055486 0.000887897 0)
(0.00549319 0.00101977 0)
(0.00542574 0.00117317 0)
(0.005348 0.00135593 0)
(0.00525807 0.00156635 0)
(0.00491902 -0.000342929 0)
(0.00502899 -0.000222018 0)
(0.00512033 -0.000126235 0)
(0.00519534 -3.99124e-05 0)
(0.00524465 4.01583e-05 0)
(0.00527504 0.000116302 0)
(0.00530925 0.000185835 0)
(0.00533381 0.000255045 0)
(0.00534603 0.000324491 0)
(0.00535205 0.000398608 0)
(0.00535084 0.000482309 0)
(0.00534038 0.000574442 0)
(0.00532483 0.000672558 0)
(0.00530841 0.000779403 0)
(0.00528743 0.000899872 0)
(0.00525401 0.00103769 0)
(0.00520468 0.00119784 0)
(0.00514799 0.00138613 0)
(0.00507627 0.00160895 0)
(0.00499243 0.00186581 0)
(0.00429438 -0.000603081 0)
(0.00444639 -0.000444575 0)
(0.00457673 -0.000310757 0)
(0.00468286 -0.000188422 0)
(0.00476947 -7.64897e-05 0)
(0.00482368 2.45503e-05 0)
(0.00488461 0.000121562 0)
(0.00493428 0.000214441 0)
(0.00496345 0.000306769 0)
(0.00497539 0.000403295 0)
(0.00497554 0.000507705 0)
(0.00496998 0.000618443 0)
(0.00496369 0.000734405 0)
(0.004957 0.000860009 0)
(0.0049448 0.00100123 0)
(0.00491781 0.00116397 0)
(0.00487445 0.00135312 0)
(0.00482061 0.00157527 0)
(0.00475706 0.00183631 0)
(0.00467976 0.00213611 0)
(0.00363712 -0.000935585 0)
(0.00383598 -0.000733643 0)
(0.00401156 -0.000552082 0)
(0.00415116 -0.000387322 0)
(0.00426516 -0.000236766 0)
(0.00435541 -0.000102792 0)
(0.00442963 2.27584e-05 0)
(0.00448742 0.000142287 0)
(0.00452667 0.000260306 0)
(0.00454792 0.00038044 0)
(0.00455828 0.000505491 0)
(0.00456503 0.000634906 0)
(0.00457129 0.000769745 0)
(0.00457374 0.000915704 0)
(0.00456559 0.00107936 0)
(0.00454001 0.00126785 0)
(0.00450193 0.00148512 0)
(0.00444877 0.00173947 0)
(0.00438799 0.00203436 0)
(0.00431582 0.00237074 0)
(0.00297573 -0.00134371 0)
(0.0031982 -0.00109638 0)
(0.00339419 -0.000867412 0)
(0.00356047 -0.000655465 0)
(0.00369421 -0.000464433 0)
(0.00381452 -0.000288642 0)
(0.00391212 -0.000127574 0)
(0.00398864 2.46026e-05 0)
(0.0040425 0.00017242 0)
(0.00407756 0.000319278 0)
(0.00410408 0.000467876 0)
(0.00412713 0.000619286 0)
(0.00414561 0.000776396 0)
(0.00415483 0.000945333 0)
(0.00414843 0.00113318 0)
(0.00412145 0.00134803 0)
(0.00408434 0.00159176 0)
(0.00403594 0.00187537 0)
(0.00397706 0.00219988 0)
(0.00390881 0.00256718 0)
(0.00231909 -0.00180153 0)
(0.00253446 -0.00151974 0)
(0.00272796 -0.00123971 0)
(0.00290561 -0.000974945 0)
(0.00306485 -0.00073632 0)
(0.00320326 -0.000517304 0)
(0.00332368 -0.00031815 0)
(0.00342277 -0.000131477 0)
(0.00349512 4.77194e-05 0)
(0.00354816 0.000222803 0)
(0.00359317 0.000396909 0)
(0.00363249 0.000572597 0)
(0.00366237 0.000753954 0)
(0.00367912 0.000947096 0)
(0.00367843 0.00115972 0)
(0.00365733 0.00139999 0)
(0.00362493 0.00166893 0)
(0.00358394 0.00197864 0)
(0.00353344 0.00232962 0)
(0.00347672 0.00272227 0)
(0.00202802 -0.00207972 0)
(0.00215579 -0.0018189 0)
(0.00229102 -0.00153054 0)
(0.00243394 -0.00124669 0)
(0.00258122 -0.00097982 0)
(0.00271596 -0.000731965 0)
(0.00283945 -0.00050263 0)
(0.00294116 -0.000286217 0)
(0.00301699 -7.84903e-05 0)
(0.00307741 0.000122982 0)
(0.0031313 0.000321701 0)
(0.00317701 0.000521689 0)
(0.00320976 0.000727373 0)
(0.00322831 0.000943827 0)
(0.00322988 0.00117957 0)
(0.00321395 0.00144153 0)
(0.00318988 0.00173142 0)
(0.00315538 0.00205965 0)
(0.00311588 0.00242927 0)
(0.0030769 0.00283633 0)
(0.00178029 -0.0021859 0)
(0.00189517 -0.00192973 0)
(0.00202511 -0.00165677 0)
(0.00215555 -0.00138005 0)
(0.00227955 -0.00111001 0)
(0.00239947 -0.000852325 0)
(0.00250767 -0.000607983 0)
(0.0025953 -0.000374004 0)
(0.00266233 -0.00014766 0)
(0.00271839 7.28839e-05 0)
(0.00276811 0.000291077 0)
(0.00280719 0.000511276 0)
(0.00283201 0.000737197 0)
(0.0028442 0.000972596 0)
(0.00284126 0.00122658 0)
(0.00282286 0.0015033 0)
(0.00280091 0.00180686 0)
(0.00277028 0.00214466 0)
(0.00274001 0.00252315 0)
(0.00271367 0.00293407 0)
(0.00146215 -0.00235347 0)
(0.00158743 -0.0020693 0)
(0.0017097 -0.0017842 0)
(0.00183174 -0.00149872 0)
(0.00194487 -0.00122087 0)
(0.00205466 -0.000953083 0)
(0.00215033 -0.000696697 0)
(0.00222904 -0.000448775 0)
(0.00229259 -0.000206895 0)
(0.00234729 3.02981e-05 0)
(0.00239441 0.000266034 0)
(0.00242836 0.000504837 0)
(0.00244715 0.000749161 0)
(0.0024548 0.00100137 0)
(0.00245007 0.00127116 0)
(0.00243296 0.00155996 0)
(0.00241258 0.00187439 0)
(0.00238828 0.00221911 0)
(0.00236853 0.00260314 0)
(0.00234752 0.00301495 0)
(0.00113947 -0.00251344 0)
(0.00127207 -0.00221096 0)
(0.00139513 -0.0019149 0)
(0.00150888 -0.00161958 0)
(0.00161781 -0.00133194 0)
(0.00171792 -0.00105345 0)
(0.00180374 -0.000784982 0)
(0.00187654 -0.000523476 0)
(0.00193651 -0.000266626 0)
(0.0019874 -1.34017e-05 0)
(0.0020293 0.000239302 0)
(0.00205697 0.000495925 0)
(0.00206937 0.000757318 0)
(0.00207158 0.00102473 0)
(0.00206324 0.00130849 0)
(0.00204741 0.00160745 0)
(0.002029 0.00193152 0)
(0.00200909 0.00228185 0)
(0.00199333 0.00266866 0)
(0.001968 0.00307989 0)
(0.000843356 -0.00266605 0)
(0.000968584 -0.00234526 0)
(0.00109133 -0.00203448 0)
(0.00119921 -0.00172905 0)
(0.00130124 -0.00143114 0)
(0.00139116 -0.00114287 0)
(0.00146975 -0.000863778 0)
(0.0015374 -0.00059015 0)
(0.0015917 -0.000319477 0)
(0.0016352 -5.13596e-05 0)
(0.00166838 0.000217033 0)
(0.00168804 0.000489803 0)
(0.00169409 0.00076609 0)
(0.00169169 0.00104674 0)
(0.00168014 0.00134265 0)
(0.00166354 0.00164975 0)
(0.00164723 0.00198129 0)
(0.0016295 0.00233532 0)
(0.00161097 0.00272211 0)
(0.0015833 0.00313181 0)
(0.000578604 -0.00280868 0)
(0.000693176 -0.00247509 0)
(0.000803815 -0.00215121 0)
(0.000904312 -0.00183399 0)
(0.000993704 -0.00152498 0)
(0.00107376 -0.00122653 0)
(0.00114608 -0.00093683 0)
(0.00120698 -0.000650985 0)
(0.00125303 -0.000366733 0)
(0.00128687 -8.45193e-05 0)
(0.00130978 0.000198333 0)
(0.00132146 0.000485608 0)
(0.00132259 0.000774652 0)
(0.00131734 0.00106657 0)
(0.00130498 0.00137255 0)
(0.00128803 0.00168692 0)
(0.0012724 0.00202378 0)
(0.00125404 0.00237973 0)
(0.00123174 0.00276523 0)
(0.00121415 0.00317251 0)
(0.00033561 -0.0029332 0)
(0.00043657 -0.00258995 0)
(0.000530069 -0.00225645 0)
(0.000616769 -0.00192852 0)
(0.000693443 -0.00160949 0)
(0.000766198 -0.00130152 0)
(0.000832165 -0.00100173 0)
(0.000884711 -0.000704042 0)
(0.000921506 -0.000407058 0)
(0.000945688 -0.000112073 0)
(0.000959079 0.000183531 0)
(0.000964185 0.000483354 0)
(0.000962384 0.000783145 0)
(0.000955565 0.00108494 0)
(0.000942426 0.00139867 0)
(0.000925101 0.00171896 0)
(0.000908001 0.0020597 0)
(0.000887125 0.0024162 0)
(0.000866237 0.00280017 0)
(0.000863833 0.0032022 0)
(0.000107374 -0.00304021 0)
(0.000185937 -0.00269062 0)
(0.000263793 -0.00234934 0)
(0.000335198 -0.00201215 0)
(0.000403107 -0.00168366 0)
(0.000469287 -0.00136661 0)
(0.000526729 -0.00105698 0)
(0.000569025 -0.000747994 0)
(0.000596438 -0.000439445 0)
(0.000612224 -0.000133263 0)
(0.000617739 0.00017321 0)
(0.000617369 0.000483377 0)
(0.000612972 0.000791613 0)
(0.000604566 0.00110173 0)
(0.000589181 0.00142178 0)
(0.000569327 0.00174651 0)
(0.000548448 0.00209003 0)
(0.000525856 0.00244646 0)
(0.000511736 0.00282808 0)
(0.000511522 0.00322136 0)
(-0.000106809 -0.00312791 0)
(-5.17807e-05 -0.00277503 0)
(9.46009e-06 -0.00242756 0)
(6.80125e-05 -0.00208295 0)
(0.000126944 -0.00174599 0)
(0.000181978 -0.00142069 0)
(0.00022625 -0.00110196 0)
(0.000254983 -0.000782764 0)
(0.00027211 -0.000464191 0)
(0.000280463 -0.00014868 0)
(0.000280198 0.000166658 0)
(0.000275703 0.000485171 0)
(0.000268338 0.000800077 0)
(0.000257646 0.0011167 0)
(0.000239745 0.00144189 0)
(0.000216827 0.00177016 0)
(0.00019332 0.00211573 0)
(0.000172498 0.00247183 0)
(0.000163896 0.00284852 0)
(0.000153639 0.00323209 0)
(-0.000309896 -0.00319735 0)
(-0.000273187 -0.00284247 0)
(-0.000229908 -0.00249065 0)
(-0.000184553 -0.00214003 0)
(-0.000140915 -0.00179592 0)
(-0.000103615 -0.00146344 0)
(-7.58915e-05 -0.00113686 0)
(-6.23656e-05 -0.000808851 0)
(-5.46874e-05 -0.000481785 0)
(-5.17258e-05 -0.000158749 0)
(-5.44014e-05 0.000163551 0)
(-6.01447e-05 0.000488546 0)
(-6.93516e-05 0.000808896 0)
(-8.20972e-05 0.00113075 0)
(-0.000101317 0.00146019 0)
(-0.000125154 0.00179148 0)
(-0.000147099 0.00213823 0)
(-0.000164249 0.0024929 0)
(-0.00017598 0.00286183 0)
(-0.000185825 0.00323652 0)
(-0.000499334 -0.00325043 0)
(-0.000479993 -0.00289401 0)
(-0.000455631 -0.00253931 0)
(-0.000428687 -0.00218374 0)
(-0.00040666 -0.00183382 0)
(-0.000389416 -0.00149525 0)
(-0.000376502 -0.00116208 0)
(-0.00037578 -0.000826579 0)
(-0.000374616 -0.000492334 0)
(-0.000375176 -0.000163377 0)
(-0.000378738 0.000164368 0)
(-0.000384972 0.00049433 0)
(-0.000396244 0.000819025 0)
(-0.000412143 0.00114505 0)
(-0.000433514 0.001478 0)
(-0.000457586 0.00181151 0)
(-0.000477102 0.00215813 0)
(-0.000494071 0.00250877 0)
(-0.000513913 0.00286953 0)
(-0.000509466 0.00323391 0)
(-0.000677243 -0.00328807 0)
(-0.000677785 -0.00293091 0)
(-0.000674096 -0.00257382 0)
(-0.000669479 -0.00221418 0)
(-0.000669168 -0.0018595 0)
(-0.00066927 -0.00151578 0)
(-0.00066733 -0.00117709 0)
(-0.000676862 -0.000835561 0)
(-0.000682671 -0.000495453 0)
(-0.000689104 -0.00016232 0)
(-0.000696897 0.000169269 0)
(-0.000706816 0.000502716 0)
(-0.000722265 0.000830661 0)
(-0.000742422 0.00115995 0)
(-0.000766587 0.0014958 0)
(-0.000791253 0.00183051 0)
(-0.000811724 0.00217556 0)
(-0.000833479 0.00252008 0)
(-0.000851678 0.00287395 0)
(-0.000844406 0.00322567 0)
(-0.000857527 -0.00331098 0)
(-0.00087896 -0.00295359 0)
(-0.000896049 -0.00259396 0)
(-0.000911463 -0.00223115 0)
(-0.000928898 -0.00187279 0)
(-0.000944687 -0.001525 0)
(-0.000954739 -0.00118209 0)
(-0.000973861 -0.000836724 0)
(-0.000989414 -0.000492395 0)
(-0.00100383 -0.000156389 0)
(-0.00101751 0.000178137 0)
(-0.00103133 0.000514449 0)
(-0.00104887 0.000845049 0)
(-0.00106969 0.0011769 0)
(-0.00109314 0.00151467 0)
(-0.00111732 0.00184918 0)
(-0.00114052 0.00219081 0)
(-0.00116554 0.00252922 0)
(-0.00117104 0.00287469 0)
(-0.00117279 0.00321438 0)
(-0.00105256 -0.00331996 0)
(-0.00109293 -0.00296219 0)
(-0.00112815 -0.00260057 0)
(-0.00115959 -0.00223602 0)
(-0.00119305 -0.0018756 0)
(-0.0012243 -0.00152518 0)
(-0.00124964 -0.00117881 0)
(-0.00127417 -0.000830628 0)
(-0.00129647 -0.000483152 0)
(-0.00131569 -0.000144756 0)
(-0.00133261 0.000191545 0)
(-0.00134953 0.000529399 0)
(-0.00136943 0.000861518 0)
(-0.00139125 0.0011949 0)
(-0.00141425 0.00153308 0)
(-0.00143953 0.00186608 0)
(-0.00146422 0.00220308 0)
(-0.00148451 0.00253614 0)
(-0.00148784 0.00286934 0)
(-0.001484 0.00319636 0)
(-0.00126473 -0.00331645 0)
(-0.00131996 -0.002958 0)
(-0.00137121 -0.00259605 0)
(-0.00141727 -0.00223147 0)
(-0.00146572 -0.00187002 0)
(-0.00150635 -0.00151766 0)
(-0.00154533 -0.00116842 0)
(-0.00157416 -0.000817736 0)
(-0.00160292 -0.000469301 0)
(-0.00163051 -0.000129859 0)
(-0.00165446 0.00020758 0)
(-0.00167658 0.000546678 0)
(-0.00170003 0.000880081 0)
(-0.00172373 0.0012145 0)
(-0.00174703 0.00155223 0)
(-0.00177302 0.00188289 0)
(-0.00179531 0.00221551 0)
(-0.0018056 0.00254166 0)
(-0.00181972 0.00286302 0)
(-0.00180909 0.0031751 0)
(-0.00148955 -0.00330115 0)
(-0.00156075 -0.00294329 0)
(-0.00162732 -0.00258288 0)
(-0.00168468 -0.00221902 0)
(-0.00174455 -0.0018571 0)
(-0.0017942 -0.0015032 0)
(-0.00184631 -0.00115274 0)
(-0.00188751 -0.000799699 0)
(-0.00192096 -0.000450531 0)
(-0.00194952 -0.000111404 0)
(-0.00197448 0.000225602 0)
(-0.00199779 0.000564852 0)
(-0.00202168 0.000898802 0)
(-0.00204471 0.00123316 0)
(-0.00206727 0.00156982 0)
(-0.00209084 0.00189817 0)
(-0.00210697 0.00222721 0)
(-0.0021144 0.00254312 0)
(-0.00212421 0.0028532 0)
(-0.00212386 0.00315145 0)
(-0.00173149 -0.00327589 0)
(-0.00182311 -0.00291921 0)
(-0.00190031 -0.00256152 0)
(-0.00196678 -0.00219918 0)
(-0.00203472 -0.00183815 0)
(-0.00209614 -0.0014839 0)
(-0.00215068 -0.00113285 0)
(-0.00219917 -0.000779662 0)
(-0.0022399 -0.000430845 0)
(-0.00227331 -9.2402e-05 0)
(-0.00230132 0.000243931 0)
(-0.00232554 0.000582592 0)
(-0.00234845 0.000916215 0)
(-0.00236904 0.00125029 0)
(-0.0023882 0.00158615 0)
(-0.00240556 0.00191166 0)
(-0.00241444 0.00223477 0)
(-0.00242846 0.0025445 0)
(-0.00242341 0.00284565 0)
(-0.00242244 0.00312453 0)
(-0.00201092 -0.00324129 0)
(-0.00210435 -0.0028874 0)
(-0.00218832 -0.00253388 0)
(-0.00227112 -0.00217413 0)
(-0.00234847 -0.00181316 0)
(-0.00241702 -0.00145945 0)
(-0.0024743 -0.00110934 0)
(-0.00252416 -0.000757783 0)
(-0.00256601 -0.000410984 0)
(-0.00260074 -7.499e-05 0)
(-0.00262923 0.000259936 0)
(-0.00265154 0.000599185 0)
(-0.00267129 0.000932889 0)
(-0.00268886 0.0012635 0)
(-0.0027022 0.00159547 0)
(-0.00270961 0.00192315 0)
(-0.00270983 0.00224497 0)
(-0.00271812 0.00254617 0)
(-0.00271846 0.0028346 0)
(-0.00271242 0.0031016 0)
(-0.00231409 -0.00319953 0)
(-0.00241523 -0.00284967 0)
(-0.00251164 -0.00250119 0)
(-0.00260099 -0.00214465 0)
(-0.00268529 -0.00178571 0)
(-0.00275673 -0.00143269 0)
(-0.00281604 -0.00108583 0)
(-0.00286632 -0.000739527 0)
(-0.00290697 -0.00039587 0)
(-0.00293835 -5.92282e-05 0)
(-0.00296274 0.000275537 0)
(-0.00298238 0.000609196 0)
(-0.00299891 0.000937471 0)
(-0.00300799 0.00127136 0)
(-0.00300851 0.00160615 0)
(-0.00300911 0.00192654 0)
(-0.00300892 0.00224456 0)
(-0.00299079 0.00254768 0)
(-0.00298317 0.00282668 0)
(-0.00297867 0.00307733 0)
(-0.00265168 -0.00315211 0)
(-0.00276249 -0.00280714 0)
(-0.00286687 -0.0024626 0)
(-0.00296103 -0.00210878 0)
(-0.00304364 -0.00175552 0)
(-0.00311429 -0.00141046 0)
(-0.00317296 -0.00106872 0)
(-0.00321962 -0.000722508 0)
(-0.00325529 -0.000379923 0)
(-0.00328344 -5.08688e-05 0)
(-0.00330489 0.000277477 0)
(-0.00331759 0.000613867 0)
(-0.00332559 0.00094282 0)
(-0.00332792 0.00126877 0)
(-0.0033172 0.00160175 0)
(-0.00330257 0.00192363 0)
(-0.00329056 0.00224052 0)
(-0.00326117 0.00254208 0)
(-0.00323477 0.0028177 0)
(-0.00320708 0.0030527 0)
(-1.19608e-05 -0.00660783 0)
(-2.93896e-05 -0.00648212 0)
(-2.05416e-05 -0.00623618 0)
(2.21736e-05 -0.00587688 0)
(0.000133443 -0.00542508 0)
(0.00032459 -0.0048891 0)
(0.00059662 -0.00429631 0)
(0.000946206 -0.00366412 0)
(0.00134524 -0.00302445 0)
(0.0018078 -0.00241673 0)
(-2.55911e-05 -0.00655263 0)
(-7.50068e-05 -0.00643717 0)
(-9.52258e-05 -0.00621272 0)
(-8.57371e-05 -0.00588122 0)
(-1.40188e-05 -0.00546506 0)
(0.000138119 -0.00496946 0)
(0.000365538 -0.00441752 0)
(0.000671506 -0.00382183 0)
(0.00104249 -0.00321316 0)
(0.00148669 -0.00259422 0)
(-3.1457e-05 -0.00649668 0)
(-9.87729e-05 -0.00638969 0)
(-0.000140029 -0.00618454 0)
(-0.000148241 -0.00588214 0)
(-0.000106629 -0.00549947 0)
(9.25117e-06 -0.00504453 0)
(0.00019279 -0.00453353 0)
(0.00044443 -0.00397904 0)
(0.000766993 -0.00340179 0)
(0.00116227 -0.00278636 0)
(-3.58345e-05 -0.00644223 0)
(-0.00011125 -0.0063452 0)
(-0.000173137 -0.00615746 0)
(-0.000195807 -0.0058798 0)
(-0.000178228 -0.00552737 0)
(-9.53403e-05 -0.00510984 0)
(4.83697e-05 -0.00463251 0)
(0.000249758 -0.00411138 0)
(0.000519876 -0.00356047 0)
(0.000859716 -0.00296214 0)
(-4.34417e-05 -0.00639113 0)
(-0.000124511 -0.00629983 0)
(-0.000200978 -0.00612765 0)
(-0.000236785 -0.00587259 0)
(-0.000238064 -0.00554733 0)
(-0.00018334 -0.00515944 0)
(-7.46848e-05 -0.00471237 0)
(8.3917e-05 -0.00422346 0)
(0.000305312 -0.00369826 0)
(0.000593222 -0.00312041 0)
(-4.67476e-05 -0.00634197 0)
(-0.000137059 -0.00625717 0)
(-0.000222065 -0.00609707 0)
(-0.000271204 -0.00585959 0)
(-0.000288427 -0.00555724 0)
(-0.000261107 -0.00519509 0)
(-0.000181792 -0.00477591 0)
(-5.84e-05 -0.00431567 0)
(0.000120075 -0.0038155 0)
(0.000360068 -0.00326043 0)
(-4.77871e-05 -0.00629424 0)
(-0.000147061 -0.00621554 0)
(-0.000237983 -0.00606478 0)
(-0.000302512 -0.00584425 0)
(-0.000331536 -0.00556117 0)
(-0.000326126 -0.00522121 0)
(-0.000275047 -0.00482655 0)
(-0.000182679 -0.00438963 0)
(-4.20679e-05 -0.00391126 0)
(0.000151881 -0.00337855 0)
(-5.41581e-05 -0.00624953 0)
(-0.000156768 -0.00617472 0)
(-0.000251697 -0.0060316 0)
(-0.00033105 -0.00582564 0)
(-0.000372306 -0.00555801 0)
(-0.00038299 -0.00523712 0)
(-0.000356961 -0.00486296 0)
(-0.000295849 -0.00444513 0)
(-0.000193036 -0.00398665 0)
(-4.3704e-05 -0.00347655 0)
(-6.19458e-05 -0.00620732 0)
(-0.000166018 -0.00613513 0)
(-0.000267246 -0.0059994 0)
(-0.000358277 -0.00580433 0)
(-0.000412265 -0.00554886 0)
(-0.000440932 -0.00524436 0)
(-0.000437976 -0.00488735 0)
(-0.00040634 -0.00448542 0)
(-0.000338753 -0.00404444 0)
(-0.000228907 -0.00355528 0)
(-6.40205e-05 -0.00616524 0)
(-0.000174183 -0.00609641 0)
(-0.000285531 -0.0059668 0)
(-0.000387523 -0.00577964 0)
(-0.000453304 -0.00553467 0)
(-0.000503129 -0.00524377 0)
(-0.000523395 -0.00490103 0)
(-0.000517157 -0.00451303 0)
(-0.000477525 -0.0040875 0)
(-0.000399212 -0.00361684 0)
(-6.29475e-05 -0.00612294 0)
(-0.000186643 -0.00605851 0)
(-0.000308243 -0.00593275 0)
(-0.000422345 -0.00575188 0)
(-0.000501127 -0.00551646 0)
(-0.000571855 -0.00523641 0)
(-0.000614016 -0.00490534 0)
(-0.000627234 -0.00452955 0)
(-0.000607699 -0.00411726 0)
(-0.000554971 -0.00366277 0)
(-6.62062e-05 -0.00608091 0)
(-0.000208312 -0.00602043 0)
(-0.000338034 -0.00589677 0)
(-0.000465773 -0.00572143 0)
(-0.000561447 -0.00549413 0)
(-0.000649891 -0.00522228 0)
(-0.0007098 -0.0049007 0)
(-0.000737605 -0.00453539 0)
(-0.000735886 -0.00413424 0)
(-0.000707662 -0.00369417 0)
(-7.56179e-05 -0.00603863 0)
(-0.000236439 -0.00598035 0)
(-0.00037447 -0.00585859 0)
(-0.000517074 -0.00568798 0)
(-0.000633145 -0.00546691 0)
(-0.000736124 -0.0052011 0)
(-0.000810054 -0.00488775 0)
(-0.000853162 -0.00453153 0)
(-0.00087343 -0.00413986 0)
(-0.000869951 -0.00371204 0)
(-8.63951e-05 -0.0059943 0)
(-0.000263714 -0.00593647 0)
(-0.000414702 -0.00581725 0)
(-0.000573297 -0.00565033 0)
(-0.000710573 -0.00543409 0)
(-0.000827359 -0.00517334 0)
(-0.000915732 -0.00486728 0)
(-0.000980069 -0.00451885 0)
(-0.00102503 -0.00413502 0)
(-0.00104347 -0.00371611 0)
(-9.47397e-05 -0.00594572 0)
(-0.000287634 -0.00588759 0)
(-0.000458563 -0.00577159 0)
(-0.000634508 -0.00560727 0)
(-0.00079143 -0.0053948 0)
(-0.000923927 -0.00513893 0)
(-0.0010317 -0.00483917 0)
(-0.00112234 -0.00449723 0)
(-0.00118837 -0.00411923 0)
(-0.00122969 -0.00370699 0)
(-0.00010207 -0.00589118 0)
(-0.000313189 -0.00583286 0)
(-0.000509447 -0.00572009 0)
(-0.000704119 -0.00555777 0)
(-0.000879561 -0.0053485 0)
(-0.00103161 -0.00509742 0)
(-0.00116592 -0.00480298 0)
(-0.00128375 -0.00446582 0)
(-0.00136992 -0.0040921 0)
(-0.00143779 -0.00368626 0)
(-0.000112287 -0.00582941 0)
(-0.000346689 -0.00577112 0)
(-0.000570091 -0.00566068 0)
(-0.000785172 -0.00550037 0)
(-0.000982381 -0.0052945 0)
(-0.00115956 -0.00504802 0)
(-0.00132204 -0.00475869 0)
(-0.00146239 -0.00442512 0)
(-0.00157415 -0.00405531 0)
(-0.00165939 -0.0036563 0)
(-0.000127194 -0.00575798 0)
(-0.000389836 -0.00570011 0)
(-0.000641571 -0.00559153 0)
(-0.000879399 -0.00543414 0)
(-0.00110184 -0.0052328 0)
(-0.00130962 -0.00499076 0)
(-0.00150016 -0.00470531 0)
(-0.00166433 -0.00437528 0)
(-0.00180731 -0.00400895 0)
(-0.00191188 -0.00361645 0)
(-0.00014603 -0.00567564 0)
(-0.000440629 -0.00561852 0)
(-0.000723705 -0.0055123 0)
(-0.000993343 -0.00535869 0)
(-0.00124882 -0.00516156 0)
(-0.00148988 -0.00492418 0)
(-0.00170947 -0.00464306 0)
(-0.00190461 -0.00431789 0)
(-0.00206287 -0.00395569 0)
(-0.00219164 -0.0035698 0)
(-0.000166907 -0.00557432 0)
(-0.000498199 -0.00552015 0)
(-0.00081532 -0.00541608 0)
(-0.0011203 -0.00526695 0)
(-0.00141583 -0.00507638 0)
(-0.00169486 -0.00484466 0)
(-0.0019484 -0.00456887 0)
(-0.00218673 -0.00424823 0)
(-0.00237033 -0.00389141 0)
(-0.00252415 -0.00351717 0)
)


// ************************************************************************* //
