/*--------------------------------*- C++ -*----------------------------------*\
| =========                 |                                                 |
| \\      /  F ield         | foam-extend: Open Source CFD                    |
|  \\    /   O peration     | Version:     4.1                                |
|   \\  /    A nd           | Web:         http://www.foam-extend.org         |
|    \\/     M anipulation  |                                                 |
\*---------------------------------------------------------------------------*/
FoamFile
{
    version     2.0;
    format      ascii;
    class       vectorField;
    location    "1";
    object      residualD_iteration2;
}
// * * * * * * * * * * * * * * * * * * * * * * * * * * * * * * * * * * * * * //


1000
(
(0.0570198 -0.0168191 0)
(0.0538642 -0.0174205 0)
(0.0518804 -0.0185928 0)
(0.0507785 -0.020121 0)
(0.0502743 -0.0219209 0)
(0.0502049 -0.0239033 0)
(0.0504606 -0.0260178 0)
(0.0509424 -0.0282936 0)
(0.0516934 -0.0306115 0)
(0.0522049 -0.0331558 0)
(0.0518109 -0.0184395 0)
(0.0484715 -0.0196052 0)
(0.0463185 -0.0212153 0)
(0.0451339 -0.0230607 0)
(0.0446167 -0.0250852 0)
(0.0445097 -0.0272612 0)
(0.0447257 -0.0295204 0)
(0.0451826 -0.0318898 0)
(0.0459114 -0.034256 0)
(0.0465634 -0.0368968 0)
(0.0462228 -0.0199005 0)
(0.0428592 -0.0217404 0)
(0.0407457 -0.023783 0)
(0.0395145 -0.0259417 0)
(0.038966 -0.028162 0)
(0.0388545 -0.0304631 0)
(0.039063 -0.0328168 0)
(0.0395334 -0.0352151 0)
(0.0402386 -0.0375793 0)
(0.0409077 -0.04016 0)
(0.0404677 -0.0212468 0)
(0.0371746 -0.0237645 0)
(0.0351823 -0.0262257 0)
(0.0339964 -0.0286558 0)
(0.0334273 -0.0310765 0)
(0.0333108 -0.0334975 0)
(0.0335061 -0.0359123 0)
(0.033964 -0.0383288 0)
(0.0346376 -0.0407108 0)
(0.0353132 -0.0432235 0)
(0.0345794 -0.0224415 0)
(0.0314689 -0.0256032 0)
(0.0296202 -0.0284836 0)
(0.0285488 -0.031185 0)
(0.0280403 -0.0337664 0)
(0.0279312 -0.0362888 0)
(0.0281103 -0.0387717 0)
(0.0285128 -0.0412074 0)
(0.0291248 -0.04359 0)
(0.0297631 -0.0460429 0)
(0.0285654 -0.0234649 0)
(0.0257569 -0.0272262 0)
(0.024107 -0.0304698 0)
(0.0231809 -0.0334254 0)
(0.0227537 -0.0361793 0)
(0.0226465 -0.0388026 0)
(0.0228092 -0.0413289 0)
(0.0231741 -0.0437802 0)
(0.0237149 -0.0461669 0)
(0.0242843 -0.0485771 0)
(0.0223972 -0.0242752 0)
(0.020071 -0.0285709 0)
(0.0186893 -0.0321437 0)
(0.0179173 -0.0353178 0)
(0.0175581 -0.0382101 0)
(0.0174735 -0.0409285 0)
(0.0176203 -0.0434993 0)
(0.0179331 -0.0459756 0)
(0.0183815 -0.0483753 0)
(0.0188549 -0.0507537 0)
(0.0160864 -0.0248802 0)
(0.0143575 -0.0296147 0)
(0.0133193 -0.0334509 0)
(0.0127541 -0.0367824 0)
(0.0124783 -0.0397926 0)
(0.0124127 -0.0425818 0)
(0.0125252 -0.0451987 0)
(0.0127666 -0.0476953 0)
(0.0131049 -0.0501006 0)
(0.0134558 -0.0524474 0)
(0.00968557 -0.0252814 0)
(0.00863401 -0.0303138 0)
(0.00799328 -0.0343462 0)
(0.00762771 -0.0378122 0)
(0.00744981 -0.0409047 0)
(0.00742629 -0.0437299 0)
(0.00751149 -0.0463768 0)
(0.00765353 -0.0489027 0)
(0.00784551 -0.0513316 0)
(0.00805633 -0.053677 0)
(0.0032408 -0.0254818 0)
(0.00287325 -0.0306594 0)
(0.00265507 -0.034798 0)
(0.00254412 -0.0383282 0)
(0.00249086 -0.0414558 0)
(0.00247616 -0.0443061 0)
(0.00250231 -0.0469594 0)
(0.00255491 -0.0494784 0)
(0.00261918 -0.0518995 0)
(0.0026842 -0.0542296 0)
(0.0877603 -0.000760822 0)
(0.0880892 -0.000608039 0)
(0.0882626 -0.000552342 0)
(0.0884464 -0.000562661 0)
(0.0888231 -0.000611613 0)
(0.0894028 -0.000697153 0)
(0.0902223 -0.000797535 0)
(0.0912594 -0.000902596 0)
(0.0925343 -0.00102441 0)
(0.0940375 -0.00115404 0)
(0.0871513 -0.00228928 0)
(0.0873338 -0.00184445 0)
(0.0874502 -0.00167986 0)
(0.0875733 -0.00172792 0)
(0.0878916 -0.0018866 0)
(0.0884226 -0.00211848 0)
(0.0892165 -0.00241198 0)
(0.0902495 -0.00274747 0)
(0.0915262 -0.00310916 0)
(0.0930407 -0.00348364 0)
(0.0858727 -0.00381738 0)
(0.085792 -0.00312935 0)
(0.0857703 -0.0028818 0)
(0.0858169 -0.00295532 0)
(0.0860577 -0.00322672 0)
(0.0865368 -0.00363032 0)
(0.0872756 -0.00411955 0)
(0.0882312 -0.00467066 0)
(0.0894333 -0.00526668 0)
(0.0909 -0.00589181 0)
(0.0839844 -0.0053709 0)
(0.0835672 -0.00448946 0)
(0.0833165 -0.00420332 0)
(0.0832531 -0.00433351 0)
(0.083395 -0.0047171 0)
(0.0837699 -0.00528003 0)
(0.0844336 -0.00596118 0)
(0.0853381 -0.00673501 0)
(0.0864706 -0.00757738 0)
(0.0879128 -0.00844876 0)
(0.0815021 -0.00694806 0)
(0.0807042 -0.00595193 0)
(0.0801772 -0.0056676 0)
(0.0799398 -0.00588309 0)
(0.0799701 -0.00639369 0)
(0.0802417 -0.00712105 0)
(0.0807957 -0.00800218 0)
(0.0816126 -0.00899425 0)
(0.0826376 -0.0100684 0)
(0.0840256 -0.0111635 0)
(0.0784905 -0.0085536 0)
(0.0772675 -0.00753893 0)
(0.0764286 -0.00730848 0)
(0.0759959 -0.0076435 0)
(0.0759147 -0.0083119 0)
(0.0760909 -0.00921595 0)
(0.0765414 -0.0102854 0)
(0.0772586 -0.0114663 0)
(0.0781731 -0.0127486 0)
(0.0795184 -0.0140495 0)
(0.0749774 -0.010186 0)
(0.0733321 -0.00926807 0)
(0.0721982 -0.00916156 0)
(0.0715602 -0.00965751 0)
(0.0713505 -0.0105026 0)
(0.0714433 -0.0115816 0)
(0.0717987 -0.0128227 0)
(0.0723932 -0.0141729 0)
(0.0731651 -0.0156498 0)
(0.074451 -0.0171336 0)
(0.0710175 -0.0118311 0)
(0.0689475 -0.0111465 0)
(0.0675488 -0.0112477 0)
(0.0667274 -0.0119367 0)
(0.066391 -0.012975 0)
(0.0664246 -0.0142338 0)
(0.0667245 -0.0156382 0)
(0.0672368 -0.0171389 0)
(0.0678687 -0.0187817 0)
(0.0690326 -0.0204065 0)
(0.0666656 -0.0134805 0)
(0.0641769 -0.0131495 0)
(0.0625898 -0.0135514 0)
(0.0616429 -0.0144796 0)
(0.0612194 -0.0157344 0)
(0.0612016 -0.017188 0)
(0.0614712 -0.0187623 0)
(0.0619332 -0.0204053 0)
(0.062409 -0.0221748 0)
(0.0633166 -0.0238509 0)
(0.0619815 -0.0151148 0)
(0.0590876 -0.0152219 0)
(0.0573218 -0.0160006 0)
(0.0563121 -0.0172316 0)
(0.05586 -0.0187451 0)
(0.0558298 -0.0204379 0)
(0.0561409 -0.0222497 0)
(0.0567025 -0.0241236 0)
(0.0572817 -0.0261003 0)
(0.0578156 -0.0279297 0)
(0.0957101 -0.00126549 0)
(0.0975254 -0.00134742 0)
(0.0994106 -0.00141394 0)
(0.101342 -0.00147133 0)
(0.103301 -0.00151762 0)
(0.105299 -0.00154866 0)
(0.10735 -0.00156683 0)
(0.109436 -0.00158747 0)
(0.111534 -0.00161865 0)
(0.113658 -0.00164892 0)
(0.115825 -0.00166837 0)
(0.118028 -0.00168048 0)
(0.120266 -0.00169271 0)
(0.122555 -0.00170749 0)
(0.124915 -0.00172272 0)
(0.127357 -0.00173598 0)
(0.129889 -0.00174597 0)
(0.132518 -0.00175166 0)
(0.135239 -0.00175534 0)
(0.138078 -0.00176095 0)
(0.0947817 -0.00381896 0)
(0.0967071 -0.00407178 0)
(0.0986783 -0.00426961 0)
(0.100674 -0.0044277 0)
(0.102696 -0.00454959 0)
(0.104741 -0.00464381 0)
(0.10681 -0.00472211 0)
(0.108902 -0.00479963 0)
(0.111016 -0.00487811 0)
(0.113166 -0.00494339 0)
(0.115356 -0.00499233 0)
(0.117584 -0.00503508 0)
(0.119856 -0.00507827 0)
(0.122176 -0.00512018 0)
(0.124552 -0.00515726 0)
(0.126998 -0.00518923 0)
(0.129535 -0.00521532 0)
(0.132174 -0.00523445 0)
(0.13492 -0.00525183 0)
(0.137794 -0.00527274 0)
(0.0926975 -0.00644643 0)
(0.0947919 -0.00684646 0)
(0.0969513 -0.00714504 0)
(0.0991084 -0.00738379 0)
(0.101265 -0.00757755 0)
(0.10344 -0.00773924 0)
(0.105653 -0.00787898 0)
(0.107883 -0.00800793 0)
(0.110104 -0.00812454 0)
(0.112333 -0.00822174 0)
(0.114588 -0.00830603 0)
(0.11688 -0.00838698 0)
(0.119213 -0.00846373 0)
(0.121587 -0.00853101 0)
(0.124006 -0.00858774 0)
(0.126494 -0.00863599 0)
(0.129056 -0.00867543 0)
(0.131713 -0.00870961 0)
(0.134466 -0.00874725 0)
(0.137336 -0.00879228 0)
(0.0898346 -0.00918482 0)
(0.0921733 -0.00967961 0)
(0.094558 -0.0100407 0)
(0.0969063 -0.0103417 0)
(0.0992456 -0.0105986 0)
(0.101588 -0.0108179 0)
(0.103938 -0.0110057 0)
(0.106294 -0.0111787 0)
(0.108653 -0.0113375 0)
(0.111024 -0.0114783 0)
(0.113407 -0.0116082 0)
(0.115801 -0.0117298 0)
(0.118208 -0.0118367 0)
(0.12064 -0.0119274 0)
(0.123117 -0.0120076 0)
(0.125664 -0.0120773 0)
(0.128282 -0.0121362 0)
(0.130988 -0.012192 0)
(0.133786 -0.0122552 0)
(0.136674 -0.012334 0)
(0.08609 -0.0120426 0)
(0.0887468 -0.0125888 0)
(0.0914604 -0.0129806 0)
(0.0940908 -0.0133198 0)
(0.0966763 -0.0136163 0)
(0.0992369 -0.0138766 0)
(0.101787 -0.014111 0)
(0.104314 -0.0143335 0)
(0.106839 -0.0145411 0)
(0.109368 -0.01473 0)
(0.111894 -0.0149064 0)
(0.114412 -0.015068 0)
(0.116931 -0.0152069 0)
(0.119464 -0.0153256 0)
(0.122032 -0.0154332 0)
(0.124641 -0.0155285 0)
(0.127323 -0.015613 0)
(0.130062 -0.015696 0)
(0.132905 -0.0157914 0)
(0.135829 -0.0159109 0)
(0.0817555 -0.0150359 0)
(0.0847507 -0.0155795 0)
(0.087793 -0.0159503 0)
(0.0906997 -0.0162948 0)
(0.0935538 -0.0166162 0)
(0.0963671 -0.0169147 0)
(0.0991685 -0.0172015 0)
(0.101916 -0.0174766 0)
(0.104625 -0.0177341 0)
(0.107316 -0.0179745 0)
(0.109995 -0.0182022 0)
(0.112665 -0.0184095 0)
(0.115326 -0.0185883 0)
(0.117989 -0.0187445 0)
(0.120676 -0.0188848 0)
(0.123381 -0.0190083 0)
(0.126151 -0.0191212 0)
(0.12896 -0.0192348 0)
(0.131867 -0.019365 0)
(0.134837 -0.0195215 0)
(0.0768956 -0.0181768 0)
(0.0802753 -0.0186456 0)
(0.0837035 -0.0189382 0)
(0.0869267 -0.0192558 0)
(0.0900601 -0.0195831 0)
(0.0931203 -0.0199156 0)
(0.0961296 -0.0202542 0)
(0.0990949 -0.0205898 0)
(0.102026 -0.0209117 0)
(0.104929 -0.021218 0)
(0.107803 -0.0215069 0)
(0.110649 -0.0217668 0)
(0.113468 -0.0219914 0)
(0.116273 -0.0221894 0)
(0.119084 -0.0223653 0)
(0.12191 -0.0225205 0)
(0.124799 -0.0226643 0)
(0.127712 -0.0228079 0)
(0.130705 -0.0229643 0)
(0.133732 -0.0231418 0)
(0.071668 -0.0214499 0)
(0.0754083 -0.0217482 0)
(0.0791901 -0.0219079 0)
(0.0827225 -0.0221817 0)
(0.0861268 -0.0225132 0)
(0.089452 -0.0228939 0)
(0.0926998 -0.0232936 0)
(0.0958992 -0.0236955 0)
(0.0990646 -0.0240884 0)
(0.102199 -0.0244644 0)
(0.105297 -0.024815 0)
(0.108347 -0.0251285 0)
(0.111349 -0.025403 0)
(0.11433 -0.0256477 0)
(0.117303 -0.0258646 0)
(0.120293 -0.026056 0)
(0.123332 -0.0262309 0)
(0.126368 -0.0263973 0)
(0.129459 -0.0265644 0)
(0.132556 -0.0267443 0)
(0.0661524 -0.0248329 0)
(0.070214 -0.0248434 0)
(0.0742836 -0.0248612 0)
(0.0780859 -0.0251077 0)
(0.0817831 -0.0254714 0)
(0.0853922 -0.0259028 0)
(0.088928 -0.0263594 0)
(0.0924078 -0.0268217 0)
(0.0958365 -0.0272765 0)
(0.0992134 -0.0277097 0)
(0.102536 -0.0281104 0)
(0.105801 -0.0284721 0)
(0.109015 -0.0287975 0)
(0.112208 -0.0290924 0)
(0.115381 -0.0293539 0)
(0.118564 -0.0295846 0)
(0.121778 -0.0297909 0)
(0.124963 -0.0299746 0)
(0.128168 -0.030141 0)
(0.131354 -0.0303121 0)
(0.0605211 -0.0285191 0)
(0.064884 -0.0280931 0)
(0.0692371 -0.0280285 0)
(0.0733558 -0.0282451 0)
(0.0773779 -0.0286042 0)
(0.0812973 -0.0290361 0)
(0.0851282 -0.0295045 0)
(0.0888841 -0.0299901 0)
(0.0925745 -0.0304739 0)
(0.0962006 -0.030937 0)
(0.0997578 -0.0313699 0)
(0.103243 -0.0317696 0)
(0.106673 -0.0321384 0)
(0.110078 -0.0324775 0)
(0.113452 -0.0327812 0)
(0.116831 -0.0330513 0)
(0.120208 -0.0332899 0)
(0.123552 -0.0334924 0)
(0.126886 -0.0336622 0)
(0.130187 -0.0338224 0)
(0.0555514 -0.0338519 0)
(0.0601891 -0.0324688 0)
(0.0649341 -0.0320537 0)
(0.0694959 -0.0320235 0)
(0.0738659 -0.0322137 0)
(0.0780842 -0.0325333 0)
(0.0821728 -0.0329287 0)
(0.086156 -0.0333659 0)
(0.090054 -0.0338148 0)
(0.0938746 -0.0342528 0)
(0.0976136 -0.034672 0)
(0.101269 -0.035069 0)
(0.104864 -0.035442 0)
(0.108422 -0.0357877 0)
(0.11193 -0.0360995 0)
(0.115433 -0.0363781 0)
(0.118896 -0.0366206 0)
(0.122329 -0.0368231 0)
(0.125734 -0.0369901 0)
(0.129102 -0.0371241 0)
(0.0530518 -0.0391975 0)
(0.0576877 -0.0376348 0)
(0.0623543 -0.0368401 0)
(0.06699 -0.0364853 0)
(0.0714838 -0.0364249 0)
(0.0758469 -0.0365589 0)
(0.080085 -0.0368123 0)
(0.0842148 -0.0371364 0)
(0.0882502 -0.0374939 0)
(0.0921973 -0.03786 0)
(0.0960536 -0.038224 0)
(0.0998208 -0.0385774 0)
(0.103526 -0.0389135 0)
(0.10718 -0.0392249 0)
(0.110758 -0.0395052 0)
(0.114318 -0.0397559 0)
(0.117804 -0.0399711 0)
(0.121261 -0.0401506 0)
(0.124676 -0.0402962 0)
(0.128056 -0.0403718 0)
(0.0512705 -0.0438887 0)
(0.0558314 -0.0425068 0)
(0.0604188 -0.0416158 0)
(0.065019 -0.0410821 0)
(0.0695409 -0.0408404 0)
(0.0739612 -0.0408094 0)
(0.0782832 -0.0409184 0)
(0.0825101 -0.0411183 0)
(0.0866433 -0.0413725 0)
(0.0906832 -0.0416554 0)
(0.0946267 -0.0419502 0)
(0.0984793 -0.0422433 0)
(0.102271 -0.0425255 0)
(0.105997 -0.042787 0)
(0.10963 -0.0430216 0)
(0.113232 -0.0432319 0)
(0.116739 -0.0434125 0)
(0.120215 -0.0435626 0)
(0.123637 -0.0436698 0)
(0.127032 -0.0436717 0)
(0.0498278 -0.0483027 0)
(0.0543206 -0.0470985 0)
(0.0588186 -0.0462133 0)
(0.0633496 -0.0456028 0)
(0.0678453 -0.0452481 0)
(0.0722729 -0.0450915 0)
(0.0766323 -0.045079 0)
(0.0809143 -0.0451681 0)
(0.0851112 -0.0453255 0)
(0.0892189 -0.0455258 0)
(0.0932314 -0.0457476 0)
(0.0971547 -0.0459743 0)
(0.10102 -0.046198 0)
(0.104809 -0.0464071 0)
(0.108495 -0.046594 0)
(0.112141 -0.0467625 0)
(0.11568 -0.0469076 0)
(0.119181 -0.0470223 0)
(0.122617 -0.0470755 0)
(0.126038 -0.0470189 0)
(0.0486338 -0.0525116 0)
(0.0530682 -0.0514715 0)
(0.0574753 -0.0506517 0)
(0.0619316 -0.0500273 0)
(0.0663697 -0.0496069 0)
(0.0707732 -0.0493612 0)
(0.0751338 -0.0492535 0)
(0.0794337 -0.049249 0)
(0.0836625 -0.0493196 0)
(0.087815 -0.0494416 0)
(0.0918806 -0.0495906 0)
(0.0958629 -0.049751 0)
(0.0997925 -0.049918 0)
(0.10364 -0.0500782 0)
(0.107379 -0.0502216 0)
(0.111067 -0.0503505 0)
(0.114644 -0.0504585 0)
(0.118175 -0.0505299 0)
(0.121632 -0.0505269 0)
(0.125087 -0.0504523 0)
(0.0476028 -0.0565805 0)
(0.0519805 -0.0556889 0)
(0.0563179 -0.0549493 0)
(0.0606953 -0.0543435 0)
(0.0650687 -0.0538938 0)
(0.0694342 -0.0535927 0)
(0.0737739 -0.0534171 0)
(0.078067 -0.0533398 0)
(0.0823051 -0.0533371 0)
(0.086484 -0.0533896 0)
(0.090589 -0.0534721 0)
(0.0946199 -0.053572 0)
(0.098605 -0.0536884 0)
(0.102506 -0.0538055 0)
(0.106298 -0.0539102 0)
(0.110025 -0.0540009 0)
(0.113638 -0.0540678 0)
(0.117201 -0.0540927 0)
(0.120689 -0.0540534 0)
(0.124178 -0.0539875 0)
(0.0466926 -0.0605572 0)
(0.0510152 -0.0597887 0)
(0.0553013 -0.0591266 0)
(0.0596029 -0.0585586 0)
(0.0639177 -0.0581101 0)
(0.0682394 -0.0577832 0)
(0.0725469 -0.057565 0)
(0.07682 -0.0574341 0)
(0.0810534 -0.0573711 0)
(0.0852447 -0.0573643 0)
(0.0893759 -0.0573887 0)
(0.0934435 -0.0574352 0)
(0.0974716 -0.0575057 0)
(0.101411 -0.0575818 0)
(0.105252 -0.0576476 0)
(0.109014 -0.0576972 0)
(0.112661 -0.0577206 0)
(0.11626 -0.0577063 0)
(0.119786 -0.0576591 0)
(0.123302 -0.0575818 0)
(0.045887 -0.064464 0)
(0.0501649 -0.0637917 0)
(0.0544032 -0.0632064 0)
(0.058645 -0.0626902 0)
(0.0629076 -0.0622637 0)
(0.0671827 -0.0619306 0)
(0.0714524 -0.061686 0)
(0.0756987 -0.0615142 0)
(0.0799182 -0.0613998 0)
(0.0841098 -0.0613424 0)
(0.0882527 -0.0613171 0)
(0.0923423 -0.0613173 0)
(0.0963986 -0.0613447 0)
(0.100363 -0.0613796 0)
(0.104238 -0.0614053 0)
(0.108032 -0.0614139 0)
(0.111715 -0.0614011 0)
(0.115355 -0.061365 0)
(0.118916 -0.0613181 0)
(0.122454 -0.0611966 0)
(0.0451622 -0.0683137 0)
(0.0494079 -0.0677248 0)
(0.0536064 -0.0672143 0)
(0.0578067 -0.0667528 0)
(0.0620227 -0.0663537 0)
(0.0662525 -0.0660207 0)
(0.0704846 -0.0657573 0)
(0.0747025 -0.0655527 0)
(0.0789036 -0.0653955 0)
(0.0830869 -0.0652978 0)
(0.0872283 -0.065234 0)
(0.0913231 -0.0651981 0)
(0.0953897 -0.065189 0)
(0.0993652 -0.0651864 0)
(0.103262 -0.0651765 0)
(0.107086 -0.0651544 0)
(0.110807 -0.0651224 0)
(0.114487 -0.0650802 0)
(0.118076 -0.0650127 0)
(0.121636 -0.0648661 0)
(0.0444997 -0.0721262 0)
(0.0487196 -0.0716174 0)
(0.0528938 -0.07117 0)
(0.0570633 -0.0707537 0)
(0.0612403 -0.070378 0)
(0.0654328 -0.0700472 0)
(0.0696334 -0.0697726 0)
(0.0738262 -0.0695476 0)
(0.0780081 -0.0693621 0)
(0.0821769 -0.0692372 0)
(0.0863058 -0.0691471 0)
(0.0903913 -0.069085 0)
(0.0944515 -0.069046 0)
(0.0984276 -0.0690111 0)
(0.10234 -0.0689727 0)
(0.106193 -0.0689322 0)
(0.10995 -0.0688921 0)
(0.113662 -0.0688405 0)
(0.117273 -0.0687344 0)
(0.120853 -0.0686122 0)
(0.0438971 -0.0759238 0)
(0.0480936 -0.0754849 0)
(0.0522513 -0.0750839 0)
(0.0563953 -0.074702 0)
(0.0605447 -0.074349 0)
(0.0647115 -0.0740277 0)
(0.0688896 -0.0737549 0)
(0.0730622 -0.0735232 0)
(0.0772252 -0.0733244 0)
(0.0813742 -0.0731781 0)
(0.085481 -0.0730632 0)
(0.0895469 -0.072974 0)
(0.093592 -0.0729035 0)
(0.0975643 -0.0728377 0)
(0.10149 -0.0727754 0)
(0.105367 -0.0727205 0)
(0.109152 -0.0726671 0)
(0.112884 -0.0725892 0)
(0.116518 -0.0724683 0)
(0.120116 -0.0723625 0)
(0.0433573 -0.0797135 0)
(0.0475309 -0.0793235 0)
(0.0516707 -0.0789598 0)
(0.0557966 -0.07861 0)
(0.0599299 -0.0782841 0)
(0.0640814 -0.0779785 0)
(0.0682445 -0.0777149 0)
(0.0724004 -0.0774779 0)
(0.0765436 -0.0772714 0)
(0.0806687 -0.0771007 0)
(0.0847483 -0.0769565 0)
(0.0887917 -0.0768381 0)
(0.092823 -0.0767389 0)
(0.096794 -0.0766506 0)
(0.10073 -0.0765741 0)
(0.104624 -0.0765066 0)
(0.108421 -0.0764324 0)
(0.112167 -0.0763285 0)
(0.115818 -0.0762356 0)
(0.119433 -0.0761015 0)
(0.0428823 -0.0834833 0)
(0.0470326 -0.083129 0)
(0.051156 -0.0828045 0)
(0.0552709 -0.0824875 0)
(0.0593948 -0.0821873 0)
(0.0635365 -0.0818935 0)
(0.067689 -0.0816384 0)
(0.0718307 -0.0813932 0)
(0.075954 -0.0811848 0)
(0.080055 -0.0809997 0)
(0.0841099 -0.0808368 0)
(0.0881359 -0.0807 0)
(0.0921603 -0.0805835 0)
(0.0961329 -0.0804819 0)
(0.100073 -0.0803937 0)
(0.103969 -0.0803083 0)
(0.107767 -0.0802118 0)
(0.111523 -0.0801072 0)
(0.115185 -0.0800303 0)
(0.11881 -0.0798917 0)
(0.042474 -0.0872306 0)
(0.0466054 -0.0869239 0)
(0.0507167 -0.0866369 0)
(0.054822 -0.0863462 0)
(0.0589373 -0.0860655 0)
(0.0630726 -0.0857824 0)
(0.0672172 -0.0855415 0)
(0.0713464 -0.0853008 0)
(0.0754504 -0.0850939 0)
(0.0795297 -0.0849004 0)
(0.0835686 -0.084719 0)
(0.0875885 -0.0845584 0)
(0.0916131 -0.0844185 0)
(0.0955848 -0.0842967 0)
(0.0995183 -0.0841866 0)
(0.103403 -0.0840774 0)
(0.107199 -0.0839687 0)
(0.110963 -0.0838857 0)
(0.114633 -0.0837753 0)
(0.118262 -0.0836707 0)
(0.0421383 -0.0909881 0)
(0.0462539 -0.0907298 0)
(0.050353 -0.0904672 0)
(0.0544484 -0.0901968 0)
(0.0585566 -0.0899371 0)
(0.0626869 -0.089676 0)
(0.0668217 -0.0894384 0)
(0.0709361 -0.089199 0)
(0.0750255 -0.0889713 0)
(0.0790944 -0.0887589 0)
(0.0831315 -0.0885656 0)
(0.0871556 -0.0883934 0)
(0.0911804 -0.0882385 0)
(0.0951408 -0.0880974 0)
(0.099057 -0.087964 0)
(0.102932 -0.087838 0)
(0.10673 -0.0877332 0)
(0.110494 -0.0876529 0)
(0.114161 -0.0875259 0)
(0.117788 -0.0874166 0)
(0.0418704 -0.0947843 0)
(0.0459686 -0.094533 0)
(0.050058 -0.0942908 0)
(0.0541483 -0.0940471 0)
(0.0582524 -0.093801 0)
(0.0623747 -0.093558 0)
(0.0664957 -0.0933075 0)
(0.070594 -0.0930737 0)
(0.0746767 -0.0928434 0)
(0.0787531 -0.0926203 0)
(0.0828028 -0.0924144 0)
(0.0868308 -0.0922267 0)
(0.0908452 -0.0920517 0)
(0.0947879 -0.0918879 0)
(0.0986915 -0.0917366 0)
(0.102565 -0.0916071 0)
(0.106362 -0.0915068 0)
(0.110111 -0.0913838 0)
(0.113762 -0.0912883 0)
(0.117384 -0.0911768 0)
(0.0416607 -0.0985683 0)
(0.0457462 -0.0983444 0)
(0.0498306 -0.0981287 0)
(0.0539196 -0.0979062 0)
(0.0580195 -0.0976616 0)
(0.0621274 -0.0974209 0)
(0.0662328 -0.0971721 0)
(0.0703262 -0.0969277 0)
(0.0744178 -0.0966854 0)
(0.07851 -0.0964505 0)
(0.0825676 -0.0962292 0)
(0.0865885 -0.0960204 0)
(0.0905888 -0.095822 0)
(0.0945237 -0.0956406 0)
(0.0984297 -0.0954829 0)
(0.102301 -0.0953494 0)
(0.106072 -0.0952262 0)
(0.109789 -0.0950779 0)
(0.11343 -0.0949902 0)
(0.117087 -0.0949072 0)
(0.0415114 -0.102353 0)
(0.0455943 -0.102186 0)
(0.0496756 -0.10198 0)
(0.0537597 -0.101753 0)
(0.0578466 -0.101523 0)
(0.0619392 -0.101272 0)
(0.0660398 -0.101019 0)
(0.0701437 -0.100768 0)
(0.0742521 -0.100517 0)
(0.0783511 -0.100268 0)
(0.0823987 -0.100027 0)
(0.0864075 -0.0998003 0)
(0.0904128 -0.0995892 0)
(0.0943636 -0.0993957 0)
(0.0982629 -0.099223 0)
(0.102088 -0.0990717 0)
(0.10583 -0.0989153 0)
(0.109575 -0.0987995 0)
(0.113203 -0.0986884 0)
(0.116799 -0.0986162 0)
(0.0414186 -0.106218 0)
(0.0455068 -0.106044 0)
(0.049585 -0.105845 0)
(0.0536566 -0.105621 0)
(0.0577261 -0.105372 0)
(0.0618147 -0.105113 0)
(0.0659313 -0.104848 0)
(0.0700523 -0.104577 0)
(0.0741562 -0.104302 0)
(0.0782353 -0.104032 0)
(0.082282 -0.103776 0)
(0.0863193 -0.103533 0)
(0.0903349 -0.103302 0)
(0.0942475 -0.103094 0)
(0.0981238 -0.102906 0)
(0.101971 -0.10273 0)
(0.105707 -0.102561 0)
(0.109424 -0.10244 0)
(0.113057 -0.102335 0)
(0.116629 -0.102283 0)
(0.0413847 -0.110073 0)
(0.0454814 -0.109935 0)
(0.0495476 -0.109737 0)
(0.0536026 -0.109502 0)
(0.0576794 -0.109245 0)
(0.0617882 -0.108973 0)
(0.0659048 -0.108684 0)
(0.0700015 -0.108386 0)
(0.0740959 -0.10809 0)
(0.0782011 -0.107801 0)
(0.0822623 -0.107525 0)
(0.0862718 -0.107263 0)
(0.090277 -0.107009 0)
(0.0942093 -0.106778 0)
(0.0980686 -0.106574 0)
(0.101908 -0.106381 0)
(0.105662 -0.106237 0)
(0.109367 -0.10605 0)
(0.11302 -0.105935 0)
(0.116548 -0.10584 0)
(0.00268931 -0.0565163 0)
(0.0080775 -0.0560104 0)
(0.0134722 -0.0548462 0)
(0.0188466 -0.0532772 0)
(0.0242117 -0.0512342 0)
(0.0295897 -0.0488638 0)
(0.0349753 -0.0462308 0)
(0.0403356 -0.0433748 0)
(0.0457398 -0.0403237 0)
(0.0507603 -0.0370454 0)
(0.00261041 -0.0589678 0)
(0.00782779 -0.0585374 0)
(0.0130349 -0.0574913 0)
(0.0182007 -0.0561024 0)
(0.0233211 -0.0542849 0)
(0.0284251 -0.0521501 0)
(0.033508 -0.0497596 0)
(0.0385534 -0.0471359 0)
(0.0435752 -0.0443273 0)
(0.0482818 -0.0415416 0)
(0.00250638 -0.0615477 0)
(0.00750539 -0.0611829 0)
(0.0124729 -0.0602427 0)
(0.0174017 -0.0589983 0)
(0.022284 -0.0573725 0)
(0.0271502 -0.0554281 0)
(0.0320165 -0.0532327 0)
(0.0369069 -0.050805 0)
(0.0418025 -0.0482313 0)
(0.0465526 -0.0458033 0)
(0.00239572 -0.0642036 0)
(0.00718672 -0.063875 0)
(0.0119343 -0.0630125 0)
(0.0166596 -0.0618654 0)
(0.0213698 -0.0603775 0)
(0.0260834 -0.0585626 0)
(0.0308426 -0.0565236 0)
(0.0356695 -0.0542927 0)
(0.0404935 -0.0519859 0)
(0.0452296 -0.0498787 0)
(0.00229674 -0.0669047 0)
(0.00688369 -0.0666032 0)
(0.0114425 -0.0658062 0)
(0.0159939 -0.0647293 0)
(0.0205687 -0.0633539 0)
(0.0251819 -0.0616626 0)
(0.0298672 -0.0597833 0)
(0.0346584 -0.0577581 0)
(0.0394273 -0.0557009 0)
(0.0441191 -0.0538515 0)
(0.00221634 -0.069644 0)
(0.00661819 -0.0693506 0)
(0.0110145 -0.0686212 0)
(0.0154153 -0.0676056 0)
(0.0198753 -0.0663319 0)
(0.0244248 -0.0647681 0)
(0.0290551 -0.0630416 0)
(0.033805 -0.061211 0)
(0.0385226 -0.0593771 0)
(0.0431512 -0.0577464 0)
(0.00213742 -0.0724179 0)
(0.00639071 -0.072121 0)
(0.0106473 -0.071468 0)
(0.0149198 -0.070504 0)
(0.0192856 -0.0693196 0)
(0.0237758 -0.0678828 0)
(0.0283598 -0.0663063 0)
(0.0330592 -0.0646563 0)
(0.0377271 -0.0630213 0)
(0.042296 -0.061574 0)
(0.002067 -0.0752173 0)
(0.00619988 -0.0749169 0)
(0.0103335 -0.0743364 0)
(0.0144973 -0.0734229 0)
(0.0187857 -0.0723258 0)
(0.0232202 -0.071015 0)
(0.0277535 -0.0695879 0)
(0.0323937 -0.0680987 0)
(0.0370138 -0.0666366 0)
(0.0415349 -0.0653447 0)
(0.00202213 -0.0780413 0)
(0.00604588 -0.0777423 0)
(0.0100723 -0.0772237 0)
(0.01415 -0.0763707 0)
(0.0183614 -0.0753657 0)
(0.0227416 -0.074174 0)
(0.0272262 -0.0728867 0)
(0.0318034 -0.0715416 0)
(0.0363708 -0.0702346 0)
(0.0408483 -0.0690838 0)
(0.00199093 -0.0808999 0)
(0.00591637 -0.0805997 0)
(0.00985618 -0.0801352 0)
(0.0138715 -0.0793522 0)
(0.0180108 -0.0784409 0)
(0.0223306 -0.0773602 0)
(0.0267662 -0.0762011 0)
(0.0312801 -0.0749977 0)
(0.035788 -0.0738368 0)
(0.04022 -0.0728161 0)
(0.00195558 -0.0837876 0)
(0.00580876 -0.083482 0)
(0.00968807 -0.0830706 0)
(0.0136497 -0.0823629 0)
(0.0177259 -0.0815439 0)
(0.0219776 -0.0805724 0)
(0.0263572 -0.0795362 0)
(0.0308083 -0.0784779 0)
(0.035254 -0.0774505 0)
(0.0396425 -0.076542 0)
(0.00192105 -0.0866881 0)
(0.00573287 -0.0863846 0)
(0.00957078 -0.0860281 0)
(0.0134735 -0.0853987 0)
(0.0174903 -0.084669 0)
(0.0216719 -0.0838088 0)
(0.02599 -0.0828958 0)
(0.0303782 -0.0819731 0)
(0.0347654 -0.0810587 0)
(0.0391215 -0.080249 0)
(0.00190107 -0.0895988 0)
(0.00568924 -0.0893119 0)
(0.00949073 -0.0890074 0)
(0.0133308 -0.088457 0)
(0.0172907 -0.0878126 0)
(0.0214079 -0.0870625 0)
(0.0256641 -0.0862746 0)
(0.0299909 -0.0854672 0)
(0.0343305 -0.0846568 0)
(0.0386666 -0.0839496 0)
(0.00189512 -0.0925285 0)
(0.00565997 -0.0922679 0)
(0.00942332 -0.0920058 0)
(0.0132088 -0.091533 0)
(0.0171178 -0.090976 0)
(0.02118 -0.0903345 0)
(0.0253776 -0.0896659 0)
(0.0296502 -0.0889629 0)
(0.0339552 -0.088271 0)
(0.038275 -0.0876615 0)
(0.00188978 -0.0954821 0)
(0.00562379 -0.0952513 0)
(0.00935075 -0.0950254 0)
(0.0130968 -0.0946297 0)
(0.0169622 -0.0941635 0)
(0.0209762 -0.0936311 0)
(0.0251226 -0.0930608 0)
(0.0293566 -0.0924582 0)
(0.0336375 -0.0918921 0)
(0.0379453 -0.0913597 0)
(0.00187565 -0.0984577 0)
(0.00557422 -0.0982629 0)
(0.00926924 -0.0980758 0)
(0.0129856 -0.097756 0)
(0.0168132 -0.0973648 0)
(0.0207879 -0.0969254 0)
(0.0249005 -0.0964509 0)
(0.0291144 -0.0959716 0)
(0.033379 -0.0955171 0)
(0.0376814 -0.0950823 0)
(0.00185451 -0.101459 0)
(0.00551681 -0.101306 0)
(0.00918094 -0.101149 0)
(0.0128727 -0.100897 0)
(0.0166718 -0.100594 0)
(0.0206209 -0.100249 0)
(0.0247192 -0.0998794 0)
(0.0289209 -0.0995289 0)
(0.033172 -0.0991554 0)
(0.0374728 -0.0988375 0)
(0.00183236 -0.104491 0)
(0.00545818 -0.104375 0)
(0.00908916 -0.10425 0)
(0.0127598 -0.104064 0)
(0.0165433 -0.103831 0)
(0.0204826 -0.103572 0)
(0.0245756 -0.10331 0)
(0.0287674 -0.103066 0)
(0.0330076 -0.102802 0)
(0.0373154 -0.102571 0)
(0.00181374 -0.107545 0)
(0.00540338 -0.107468 0)
(0.00899881 -0.107373 0)
(0.0126502 -0.107245 0)
(0.0164267 -0.107089 0)
(0.0203671 -0.106927 0)
(0.0244563 -0.106782 0)
(0.0286411 -0.106634 0)
(0.0328781 -0.10651 0)
(0.0372083 -0.106379 0)
(0.00179889 -0.11063 0)
(0.0053538 -0.110583 0)
(0.00891244 -0.11052 0)
(0.0125514 -0.110442 0)
(0.0163326 -0.110356 0)
(0.0202746 -0.110286 0)
(0.0243511 -0.110241 0)
(0.028529 -0.110205 0)
(0.0327863 -0.110203 0)
(0.0371651 -0.110178 0)
)


// ************************************************************************* //
