# Time dispX dispY dispZ forceX forceY forceZ
0 0 0 0 0 0 0
1 1.066802651123448e-06 -8.206404759948714e-08 0.001406235183501773 99999.97419419055 0.1232485654657863 -6.430204833660466e-10
