/*--------------------------------*- C++ -*----------------------------------*\
| =========                 |                                                 |
| \\      /  F ield         | foam-extend: Open Source CFD                    |
|  \\    /   O peration     | Version:     4.1                                |
|   \\  /    A nd           | Web:         http://www.foam-extend.org         |
|    \\/     M anipulation  |                                                 |
\*---------------------------------------------------------------------------*/
FoamFile
{
    version     2.0;
    format      ascii;
    class       volSymmTensorField;
    location    "3";
    object      epsilon;
}
// * * * * * * * * * * * * * * * * * * * * * * * * * * * * * * * * * * * * * //

dimensions      [0 0 0 0 0 0 0];

internalField   nonuniform List<symmTensor> 
1000
(
(9.78161e-07 -1.0566e-06 -5.23909e-22 5.30299e-09 -9.94717e-22 -2.06421e-36)
(1.52765e-06 -8.20322e-07 2.96197e-21 -5.86207e-07 6.40803e-22 0)
(1.7891e-06 -6.51115e-07 -3.21974e-21 -8.58676e-07 -2.29675e-21 0)
(1.94268e-06 -5.3176e-07 -1.23442e-21 -1.03217e-06 -2.83998e-22 0)
(2.01741e-06 -4.4094e-07 -2.072e-22 -1.11687e-06 5.52889e-23 0)
(2.04908e-06 -3.7274e-07 1.29973e-21 -1.15989e-06 8.28763e-22 0)
(2.05454e-06 -3.18552e-07 -2.32664e-21 -1.17261e-06 -1.30714e-21 0)
(2.04287e-06 -2.76443e-07 5.09874e-22 -1.16848e-06 3.05907e-22 0)
(2.02554e-06 -2.40916e-07 -9.31422e-22 -1.15472e-06 -5.47673e-22 0)
(1.99514e-06 -2.10469e-07 -1.14977e-21 -1.13477e-06 -7.24007e-22 0)
(1.33969e-06 -1.26974e-06 1.47073e-21 -7.58995e-08 -8.61291e-22 5.68399e-37)
(1.78537e-06 -8.73362e-07 -2.97426e-21 -6.17277e-07 -7.87269e-22 0)
(1.982e-06 -6.16815e-07 -2.74999e-21 -8.57827e-07 -7.372e-22 0)
(2.08908e-06 -4.47552e-07 -2.14302e-21 -1.01551e-06 -1.47579e-21 0)
(2.13159e-06 -3.29331e-07 -4.68766e-22 -1.0904e-06 -4.17849e-22 0)
(2.13958e-06 -2.47503e-07 1.86388e-21 -1.12952e-06 1.09584e-21 0)
(2.12726e-06 -1.87636e-07 -2.18043e-21 -1.14029e-06 -1.48989e-21 0)
(2.10276e-06 -1.45409e-07 8.84293e-22 -1.13738e-06 7.48262e-22 0)
(2.07209e-06 -1.12243e-07 -1.647e-21 -1.12201e-06 -1.27724e-21 0)
(2.03675e-06 -8.85838e-08 -6.09029e-22 -1.10846e-06 -6.81043e-22 0)
(1.75987e-06 -1.42509e-06 1.81621e-21 -2.26285e-07 1.10862e-22 -3.48243e-37)
(2.05584e-06 -8.96816e-07 -2.32295e-21 -6.6958e-07 -1.01339e-21 0)
(2.16259e-06 -5.69444e-07 2.12978e-21 -8.51862e-07 9.59728e-22 0)
(2.20898e-06 -3.60354e-07 -1.92236e-21 -9.78338e-07 -9.23658e-22 0)
(2.21148e-06 -2.21011e-07 -4.69554e-22 -1.03467e-06 -3.55109e-22 0)
(2.19175e-06 -1.29332e-07 -1.79298e-21 -1.06503e-06 -1.04888e-21 0)
(2.16004e-06 -6.61477e-08 3.30263e-27 -1.07139e-06 -8.93127e-27 0)
(2.12164e-06 -2.45854e-08 -6.1715e-24 -1.06825e-06 8.18857e-24 0)
(2.08005e-06 5.4436e-09 -1.26892e-22 -1.05275e-06 -6.01988e-22 0)
(2.03696e-06 2.72906e-08 1.96968e-22 -1.04293e-06 -1.49337e-22 0)
(2.21767e-06 -1.50422e-06 6.27634e-21 -4.31401e-07 -1.25027e-21 1.3491e-35)
(2.3291e-06 -8.85588e-07 1.33402e-21 -7.38565e-07 9.9455e-22 0)
(2.32723e-06 -5.11225e-07 1.00198e-21 -8.41908e-07 9.28441e-22 0)
(2.30271e-06 -2.76537e-07 5.81783e-22 -9.25116e-07 4.05127e-22 0)
(2.25983e-06 -1.24582e-07 4.20312e-21 -9.56271e-07 2.51588e-21 0)
(2.21007e-06 -2.77796e-08 -3.16236e-23 -9.74385e-07 -7.2661e-23 0)
(2.15823e-06 3.60799e-08 -1.50551e-23 -9.74907e-07 7.08791e-23 0)
(2.10662e-06 7.61357e-08 -3.98451e-23 -9.7099e-07 7.06341e-23 0)
(2.05539e-06 1.0261e-07 9.15312e-22 -9.56489e-07 4.54264e-22 0)
(2.00702e-06 1.21985e-07 -8.60607e-23 -9.50028e-07 -1.8384e-22 0)
(2.68707e-06 -1.49455e-06 -4.73711e-21 -6.71384e-07 1.21511e-22 -1.43098e-43)
(2.59379e-06 -8.36681e-07 2.15011e-21 -8.17789e-07 8.75638e-22 0)
(2.47284e-06 -4.44363e-07 1.76764e-21 -8.29011e-07 8.6223e-22 0)
(2.37213e-06 -2.01307e-07 1.83945e-21 -8.61123e-07 9.51141e-22 0)
(2.28149e-06 -4.69029e-08 -1.10519e-21 -8.62852e-07 -5.85938e-22 0)
(2.20107e-06 4.93256e-08 1.57906e-21 -8.66414e-07 7.12703e-22 0)
(2.12961e-06 1.10772e-07 4.99134e-22 -8.60284e-07 3.01354e-22 0)
(2.06566e-06 1.48004e-07 -9.73802e-22 -8.55267e-07 -3.58987e-22 0)
(2.00675e-06 1.70518e-07 2.25036e-21 -8.42788e-07 8.70659e-22 0)
(1.95418e-06 1.87225e-07 2.09826e-22 -8.39549e-07 -2.55477e-23 0)
(3.13926e-06 -1.39071e-06 -6.87218e-23 -9.23026e-07 -5.3892e-25 3.09135e-39)
(2.83805e-06 -7.49585e-07 -5.60986e-22 -8.99968e-07 -1.69902e-22 0)
(2.59711e-06 -3.70893e-07 2.77474e-21 -8.14781e-07 1.1983e-21 0)
(2.42064e-06 -1.38104e-07 7.27286e-22 -7.93078e-07 2.16984e-22 0)
(2.28315e-06 7.87494e-09 -1.03279e-21 -7.64023e-07 -4.0701e-22 0)
(2.17332e-06 9.7491e-08 -2.62269e-21 -7.52228e-07 -1.28096e-21 0)
(2.08359e-06 1.53328e-07 2.16046e-23 -7.39235e-07 -3.59722e-22 0)
(2.00864e-06 1.86313e-07 -1.39059e-22 -7.32914e-07 4.51879e-22 0)
(1.94357e-06 2.04603e-07 7.15249e-22 -7.22945e-07 5.49226e-22 0)
(1.88785e-06 2.18425e-07 1.83579e-21 -7.22537e-07 7.52964e-22 0)
(3.54487e-06 -1.19531e-06 1.7877e-21 -1.16192e-06 -2.32339e-22 -5.5244e-37)
(3.05021e-06 -6.26519e-07 -9.74155e-22 -9.77409e-07 1.38172e-22 0)
(2.6982e-06 -2.92685e-07 8.17249e-22 -8.00805e-07 6.05521e-22 0)
(2.45226e-06 -8.85408e-08 2.5285e-22 -7.27873e-07 -1.77968e-22 0)
(2.27224e-06 3.83424e-08 1.46761e-21 -6.69645e-07 2.75259e-22 0)
(2.13609e-06 1.15431e-07 -5.62661e-23 -6.43226e-07 -2.37671e-22 0)
(2.03045e-06 1.626e-07 4.37676e-22 -6.23812e-07 7.09545e-22 0)
(1.94614e-06 1.89972e-07 1.52434e-21 -6.16162e-07 1.2083e-21 0)
(1.8764e-06 2.04001e-07 -7.29205e-22 -6.08849e-07 -3.64587e-22 0)
(1.81826e-06 2.14884e-07 2.09695e-22 -6.1075e-07 -3.88108e-22 0)
(3.87662e-06 -9.18749e-07 0 -1.36491e-06 0 0)
(3.21979e-06 -4.72228e-07 4.70705e-21 -1.04292e-06 1.42589e-21 0)
(2.77503e-06 -2.11229e-07 -4.96505e-21 -7.88725e-07 -1.36027e-21 0)
(2.47141e-06 -5.21597e-08 -1.88297e-22 -6.72195e-07 -3.10998e-22 0)
(2.25632e-06 4.61244e-08 -4.73022e-22 -5.89208e-07 4.93406e-23 0)
(2.09869e-06 1.05427e-07 2.45758e-21 -5.50331e-07 9.20349e-22 0)
(1.98028e-06 1.41253e-07 8.64427e-22 -5.25509e-07 3.32791e-22 0)
(1.8886e-06 1.61795e-07 -1.19208e-21 -5.16663e-07 -2.21826e-22 0)
(1.81552e-06 1.7166e-07 5.04664e-23 -5.11763e-07 -2.12578e-22 0)
(1.75562e-06 1.79531e-07 -5.69951e-22 -5.15393e-07 -4.66971e-22 0)
(4.11155e-06 -5.78631e-07 3.21757e-21 -1.5123e-06 3.27423e-22 1.48507e-36)
(3.33797e-06 -2.93911e-07 -2.64376e-22 -1.09041e-06 -5.29777e-22 0)
(2.82656e-06 -1.2779e-07 -1.6528e-21 -7.79891e-07 -3.30132e-22 0)
(2.48166e-06 -2.67147e-08 1.37869e-21 -6.31673e-07 4.38223e-22 0)
(2.24156e-06 3.55173e-08 -5.5412e-22 -5.30718e-07 -1.26947e-22 0)
(2.06873e-06 7.29173e-08 -1.41507e-21 -4.82781e-07 -2.03156e-22 0)
(1.94138e-06 9.53314e-08 9.12566e-25 -4.54058e-07 -3.34781e-22 0)
(1.84461e-06 1.08092e-07 -1.66783e-23 -4.44316e-07 2.00205e-22 0)
(1.76941e-06 1.13955e-07 -1.51007e-23 -4.41253e-07 1.09259e-22 0)
(1.70837e-06 1.1874e-07 -5.80205e-22 -4.46053e-07 -3.66983e-22 0)
(4.23289e-06 -1.97741e-07 -2.70578e-21 -1.58925e-06 4.81602e-22 8.83145e-37)
(3.39838e-06 -9.99961e-08 -2.19623e-21 -1.11434e-06 -7.37999e-22 0)
(2.85203e-06 -4.29281e-08 1.68031e-21 -7.73686e-07 5.38702e-22 0)
(2.48549e-06 -8.20028e-09 -2.62531e-21 -6.08493e-07 -3.39805e-22 0)
(2.23231e-06 1.31608e-08 1.05954e-21 -4.97899e-07 -3.29585e-22 0)
(2.05156e-06 2.5984e-08 -4.6427e-22 -4.45108e-07 7.08494e-23 0)
(1.9196e-06 3.36453e-08 -9.1392e-26 -4.14309e-07 3.40419e-22 0)
(1.82022e-06 3.79977e-08 -3.74453e-22 -4.04107e-07 2.02318e-22 0)
(1.744e-06 3.99592e-08 -1.31329e-21 -4.02058e-07 -5.50478e-22 0)
(1.68243e-06 4.15791e-08 6.50537e-22 -4.07542e-07 4.83279e-23 0)
(5.74129e-07 5.19381e-08 -3.72216e-22 -1.54979e-06 1.68493e-21 -2.11864e-36)
(3.83947e-07 -2.32194e-08 5.53457e-22 -1.02484e-06 7.9233e-22 0)
(2.93186e-07 -6.15277e-08 7.30571e-24 -7.14225e-07 -3.56933e-22 0)
(3.10017e-07 -8.20076e-08 -2.93407e-23 -5.36119e-07 2.53063e-22 0)
(3.54065e-07 -9.15594e-08 -3.33253e-22 -4.33411e-07 -2.30056e-22 0)
(4.23118e-07 -9.49154e-08 4.41168e-22 -3.7587e-07 1.82025e-22 0)
(4.95238e-07 -9.46666e-08 6.18238e-23 -3.45424e-07 7.40569e-23 0)
(5.70103e-07 -9.2493e-08 -8.17041e-23 -3.309e-07 1.35504e-22 0)
(6.40162e-07 -8.87981e-08 4.39405e-22 -3.26297e-07 1.18767e-22 0)
(7.07124e-07 -8.61059e-08 -4.08078e-23 -3.24971e-07 -5.8729e-23 0)
(5.43595e-07 1.44439e-07 2.05797e-23 -1.47371e-06 7.36432e-23 -1.2267e-38)
(3.99279e-07 -7.28532e-08 -9.73253e-22 -1.00271e-06 -1.39326e-21 0)
(3.33151e-07 -1.83003e-07 7.41908e-22 -7.21445e-07 7.31275e-22 0)
(3.62371e-07 -2.41499e-07 5.38627e-22 -5.60541e-07 3.89876e-22 0)
(4.12258e-07 -2.68539e-07 -1.37159e-22 -4.67228e-07 -1.78566e-22 0)
(4.83021e-07 -2.77739e-07 -1.46842e-21 -4.14595e-07 -5.42164e-22 0)
(5.54561e-07 -2.76618e-07 -2.42361e-23 -3.86229e-07 -2.05015e-25 0)
(6.27676e-07 -2.69966e-07 -2.47882e-22 -3.72212e-07 -1.508e-22 0)
(6.94737e-07 -2.59016e-07 1.55503e-22 -3.66769e-07 -7.55623e-24 0)
(7.59605e-07 -2.50968e-07 3.85886e-22 -3.64622e-07 -3.16716e-23 0)
(4.85892e-07 2.06234e-07 -3.01507e-22 -1.32732e-06 -1.39567e-21 -8.46833e-37)
(4.27789e-07 -1.29202e-07 -7.42105e-22 -9.59787e-07 -6.52743e-22 0)
(4.06388e-07 -2.98252e-07 1.15525e-21 -7.33844e-07 3.02524e-22 0)
(4.5829e-07 -3.87316e-07 2.49653e-22 -6.0543e-07 2.80958e-22 0)
(5.18649e-07 -4.27864e-07 6.7646e-22 -5.29782e-07 3.17659e-22 0)
(5.92398e-07 -4.40917e-07 -6.5904e-22 -4.86416e-07 -3.29568e-22 0)
(6.62723e-07 -4.38177e-07 -1.06814e-21 -4.61994e-07 -3.06933e-22 0)
(7.32512e-07 -4.26905e-07 -3.63883e-22 -4.48971e-07 -8.2328e-23 0)
(7.93942e-07 -4.09262e-07 1.83745e-23 -4.42005e-07 -1.53743e-24 0)
(8.54994e-07 -3.96044e-07 5.24659e-22 -4.38417e-07 2.34607e-22 0)
(4.14928e-07 2.21725e-07 -1.08314e-21 -1.12574e-06 -1.53643e-23 5.00618e-36)
(4.74004e-07 -1.94596e-07 4.90603e-22 -9.00727e-07 -6.71989e-22 0)
(5.13017e-07 -4.02604e-07 -2.93114e-21 -7.5075e-07 -2.24642e-21 0)
(5.95243e-07 -5.11036e-07 -6.62239e-22 -6.67047e-07 4.34385e-23 0)
(6.69323e-07 -5.5907e-07 -4.02035e-23 -6.15671e-07 8.63646e-23 0)
(7.46609e-07 -5.73023e-07 8.69988e-22 -5.85067e-07 3.91477e-22 0)
(8.14844e-07 -5.67578e-07 -2.40144e-22 -5.66112e-07 -1.28899e-24 0)
(8.7964e-07 -5.51527e-07 7.28882e-22 -5.54451e-07 4.90479e-22 0)
(9.33124e-07 -5.28098e-07 -1.29395e-21 -5.45502e-07 -2.4909e-22 0)
(9.88559e-07 -5.10058e-07 1.16414e-21 -5.39867e-07 1.77458e-22 0)
(3.47256e-07 1.79601e-07 2.92696e-22 -8.89181e-07 -1.06392e-21 -2.19444e-37)
(5.41095e-07 -2.7082e-07 2.44523e-21 -8.3168e-07 2.25386e-21 0)
(6.49165e-07 -4.92709e-07 -2.32881e-21 -7.70892e-07 -1.56105e-21 0)
(7.65403e-07 -6.06386e-07 -1.08906e-21 -7.39813e-07 -5.897e-22 0)
(8.54378e-07 -6.54361e-07 9.60543e-22 -7.16968e-07 4.05592e-22 0)
(9.34771e-07 -6.65548e-07 1.28843e-21 -7.01395e-07 5.29435e-22 0)
(9.99767e-07 -6.5607e-07 7.32594e-22 -6.88918e-07 4.74997e-22 0)
(1.05792e-06 -6.35121e-07 1.2937e-21 -6.78843e-07 3.94417e-22 0)
(1.10167e-06 -6.07037e-07 -2.86744e-22 -6.67712e-07 -3.16501e-22 0)
(1.14973e-06 -5.84716e-07 -1.7658e-21 -6.59518e-07 -1.76245e-22 0)
(3.01929e-07 7.53202e-08 -2.86126e-23 -6.40988e-07 7.01238e-23 -4.67386e-40)
(6.32534e-07 -3.57747e-07 1.53714e-21 -7.59498e-07 7.70483e-22 0)
(8.09939e-07 -5.65964e-07 1.24755e-21 -7.92162e-07 1.12319e-21 0)
(9.59246e-07 -6.69396e-07 -6.12239e-22 -8.16484e-07 -4.10946e-22 0)
(1.06185e-06 -7.09063e-07 -1.12232e-21 -8.2363e-07 -4.95963e-22 0)
(1.14379e-06 -7.13525e-07 -7.08199e-22 -8.23924e-07 -2.82836e-22 0)
(1.20409e-06 -6.98598e-07 1.1425e-21 -8.18385e-07 5.83098e-22 0)
(1.25396e-06 -6.72717e-07 -1.36874e-21 -8.09974e-07 -7.34773e-22 0)
(1.28681e-06 -6.41162e-07 2.27357e-21 -7.96852e-07 6.90993e-22 0)
(1.3259e-06 -6.15267e-07 7.75861e-23 -7.85774e-07 -3.14283e-22 0)
(2.9836e-07 -8.84186e-08 1.33954e-21 -4.05791e-07 -2.45647e-21 -1.43815e-37)
(7.51646e-07 -4.53369e-07 -4.24044e-21 -6.91687e-07 -2.32525e-21 0)
(9.9001e-07 -6.20749e-07 1.44852e-21 -8.12759e-07 9.73167e-22 0)
(1.16665e-06 -6.98709e-07 -1.3249e-22 -8.89877e-07 3.76278e-22 0)
(1.27912e-06 -7.22024e-07 6.24856e-22 -9.25493e-07 2.99123e-22 0)
(1.35989e-06 -7.16012e-07 -2.60246e-22 -9.40968e-07 -9.67923e-23 0)
(1.41374e-06 -6.94357e-07 -1.59389e-21 -9.42127e-07 -6.7377e-22 0)
(1.45383e-06 -6.63719e-07 9.19545e-22 -9.35391e-07 4.06103e-22 0)
(1.47526e-06 -6.29891e-07 -8.36393e-22 -9.20674e-07 -3.6706e-22 0)
(1.504e-06 -6.01192e-07 1.74373e-21 -9.06806e-07 4.35895e-22 0)
(3.53915e-07 -3.01789e-07 -4.99046e-22 -2.06793e-07 7.1766e-22 2.14117e-38)
(9.00743e-07 -5.53689e-07 -1.38321e-21 -6.35264e-07 -1.62042e-21 0)
(1.18353e-06 -6.56275e-07 -2.0337e-21 -8.30861e-07 -1.94635e-21 0)
(1.37723e-06 -6.95392e-07 7.55325e-22 -9.53013e-07 3.6986e-22 0)
(1.49336e-06 -6.95362e-07 2.01297e-21 -1.01274e-06 9.83842e-22 0)
(1.56909e-06 -6.75713e-07 1.83359e-21 -1.04118e-06 8.94593e-22 0)
(1.61439e-06 -6.46334e-07 -2.85701e-22 -1.04827e-06 5.44505e-23 0)
(1.64322e-06 -6.1133e-07 1.05215e-21 -1.04295e-06 4.46258e-22 0)
(1.65341e-06 -5.76289e-07 -1.03476e-21 -1.02779e-06 -7.42833e-22 0)
(1.67052e-06 -5.45488e-07 3.67473e-22 -1.01123e-06 3.55612e-22 0)
(4.81944e-07 -5.48673e-07 1.43889e-21 -6.3667e-08 1.93758e-21 -5.16423e-36)
(1.08088e-06 -6.53019e-07 1.98825e-21 -5.96326e-07 2.54138e-21 0)
(1.38496e-06 -6.72586e-07 2.11455e-21 -8.45128e-07 5.93175e-22 0)
(1.58191e-06 -6.62835e-07 3.06771e-22 -1.00023e-06 -3.18723e-22 0)
(1.69371e-06 -6.34359e-07 6.39224e-23 -1.07722e-06 -9.44064e-23 0)
(1.75987e-06 -5.99089e-07 -4.63003e-23 -1.11523e-06 -1.32898e-23 0)
(1.79438e-06 -5.61556e-07 1.67295e-21 -1.12655e-06 8.84296e-22 0)
(1.81077e-06 -5.23326e-07 -2.23391e-21 -1.12269e-06 -1.44778e-21 0)
(1.81047e-06 -4.88143e-07 2.06447e-21 -1.10754e-06 8.5458e-22 0)
(1.81525e-06 -4.5632e-07 2.22197e-22 -1.09081e-06 1.17733e-22 0)
(6.89857e-07 -8.082e-07 2.15654e-21 9.46694e-09 -3.60331e-21 -5.88303e-36)
(1.29087e-06 -7.44462e-07 2.11576e-21 -5.79198e-07 1.04317e-21 0)
(1.5884e-06 -6.705e-07 2.8292e-21 -8.54514e-07 1.42145e-21 0)
(1.77212e-06 -6.06266e-07 1.3619e-21 -1.02721e-06 1.06697e-21 0)
(1.86999e-06 -5.46704e-07 -2.15116e-21 -1.11278e-06 -1.19377e-21 0)
(1.92106e-06 -4.94885e-07 -1.93033e-21 -1.15557e-06 -1.05914e-21 0)
(1.94166e-06 -4.49314e-07 5.0667e-23 -1.16893e-06 -3.00621e-23 0)
(1.94368e-06 -4.08692e-07 -1.01505e-21 -1.16486e-06 -5.81472e-22 0)
(1.93362e-06 -3.75168e-07 1.05541e-21 -1.15191e-06 9.70696e-22 0)
(1.92195e-06 -3.43441e-07 1.43734e-21 -1.13038e-06 3.28369e-22 0)
(7.69542e-07 -7.95511e-08 2.13425e-22 -3.31928e-07 -7.7876e-25 0)
(8.24489e-07 -7.11415e-08 3.96808e-22 -3.33992e-07 -1.19691e-22 0)
(8.74502e-07 -6.44438e-08 2.13793e-23 -3.37411e-07 -2.8044e-25 0)
(9.20186e-07 -5.82699e-08 -3.38911e-22 -3.3983e-07 -1.82952e-22 0)
(9.61007e-07 -5.27699e-08 -1.35129e-21 -3.40802e-07 -6.2482e-23 0)
(9.9773e-07 -4.78992e-08 -2.05655e-22 -3.40194e-07 2.46548e-22 0)
(1.03034e-06 -4.35186e-08 1.19581e-21 -3.37524e-07 1.27417e-22 0)
(1.05918e-06 -3.96048e-08 -1.19968e-21 -3.32705e-07 -6.72094e-23 0)
(1.08437e-06 -3.60519e-08 1.06373e-22 -3.25438e-07 3.60213e-22 0)
(1.10606e-06 -3.28125e-08 6.58349e-22 -3.15557e-07 1.22421e-22 0)
(1.1243e-06 -2.98092e-08 1.11885e-22 -3.02793e-07 3.38972e-22 0)
(1.13916e-06 -2.69847e-08 1.30323e-21 -2.86882e-07 1.23266e-22 0)
(1.15047e-06 -2.42739e-08 1.19423e-21 -2.67484e-07 -2.33827e-22 0)
(1.1583e-06 -2.16117e-08 -1.29665e-21 -2.44209e-07 -1.13776e-22 0)
(1.16204e-06 -1.89346e-08 -1.92581e-21 -2.16562e-07 3.33449e-24 0)
(1.16214e-06 -1.61614e-08 1.01979e-21 -1.83976e-07 1.62961e-22 0)
(1.15669e-06 -1.32282e-08 -2.52994e-23 -1.45704e-07 -5.61772e-23 0)
(1.148e-06 -9.99826e-09 7.10187e-22 -1.00955e-07 1.37067e-22 0)
(1.1297e-06 -6.49086e-09 5.94229e-22 -4.84677e-08 -5.80286e-24 0)
(1.11207e-06 -2.11196e-09 1.48266e-22 1.23436e-08 1.54231e-23 -1.63582e-37)
(8.16244e-07 -2.31872e-07 6.06698e-24 -3.68064e-07 6.67918e-24 0)
(8.63463e-07 -2.07769e-07 -5.72998e-22 -3.65078e-07 -6.37389e-23 0)
(9.07749e-07 -1.88491e-07 2.96218e-22 -3.64299e-07 6.60344e-23 0)
(9.48247e-07 -1.70727e-07 9.49973e-22 -3.63178e-07 3.24213e-22 0)
(9.84866e-07 -1.54834e-07 -5.55237e-22 -3.61052e-07 -2.09239e-24 0)
(1.01794e-06 -1.40748e-07 -8.13236e-22 -3.57867e-07 -2.64573e-22 0)
(1.04753e-06 -1.28036e-07 5.45394e-22 -3.5299e-07 2.6142e-22 0)
(1.07378e-06 -1.16661e-07 1.40807e-22 -3.46328e-07 1.27401e-22 0)
(1.09679e-06 -1.06307e-07 -1.2605e-21 -3.37514e-07 -3.94152e-22 0)
(1.11663e-06 -9.68476e-08 -7.51473e-22 -3.2635e-07 -1.38148e-22 0)
(1.13331e-06 -8.80588e-08 -1.669e-23 -3.12535e-07 -4.69827e-25 0)
(1.14684e-06 -7.97764e-08 2.30485e-21 -2.95783e-07 1.92969e-22 0)
(1.15705e-06 -7.18111e-08 1.06147e-22 -2.75734e-07 1.05441e-22 0)
(1.16396e-06 -6.39734e-08 -5.38093e-22 -2.51987e-07 1.10936e-22 0)
(1.16697e-06 -5.60777e-08 -1.16943e-22 -2.24044e-07 -1.28907e-22 0)
(1.16649e-06 -4.78838e-08 -1.24703e-22 -1.91335e-07 -1.11742e-22 0)
(1.16064e-06 -3.92054e-08 -4.45486e-22 -1.53126e-07 1.00112e-22 0)
(1.15171e-06 -2.96357e-08 -3.22518e-22 -1.08638e-07 -2.93993e-23 0)
(1.13338e-06 -1.92381e-08 1.79522e-21 -5.6644e-08 2.45451e-22 0)
(1.11588e-06 -6.25931e-09 4.61751e-22 3.4116e-09 1.16083e-22 -1.52575e-36)
(9.00779e-07 -3.66582e-07 3.34056e-22 -4.35388e-07 -7.07804e-23 0)
(9.33991e-07 -3.30204e-07 7.23019e-22 -4.23177e-07 2.23094e-22 0)
(9.67822e-07 -3.00538e-07 -1.84769e-21 -4.14538e-07 -1.59355e-22 0)
(9.98913e-07 -2.73243e-07 1.99603e-22 -4.06885e-07 1.47953e-22 0)
(1.02793e-06 -2.48482e-07 1.01466e-21 -3.98986e-07 -5.73713e-23 0)
(1.05439e-06 -2.26494e-07 -1.56266e-21 -3.9101e-07 -9.602e-23 0)
(1.07852e-06 -2.06487e-07 -8.33268e-22 -3.82021e-07 -1.53069e-22 0)
(1.10007e-06 -1.8852e-07 1.88136e-21 -3.71923e-07 1.21638e-22 0)
(1.11916e-06 -1.72082e-07 1.06597e-21 -3.60223e-07 -8.91895e-23 0)
(1.13564e-06 -1.5701e-07 -1.39351e-21 -3.46673e-07 -1.83601e-22 0)
(1.14951e-06 -1.42953e-07 -1.59553e-21 -3.30907e-07 -3.15921e-22 0)
(1.16066e-06 -1.29662e-07 6.34617e-22 -3.126e-07 3.85585e-23 0)
(1.16889e-06 -1.1684e-07 1.09664e-21 -2.91359e-07 1.79027e-22 0)
(1.17418e-06 -1.04186e-07 3.80417e-23 -2.66765e-07 -1.80453e-22 0)
(1.1759e-06 -9.14046e-08 7.12033e-23 -2.3831e-07 4.69723e-23 0)
(1.17445e-06 -7.81052e-08 -1.59102e-21 -2.05428e-07 -1.74691e-22 0)
(1.16795e-06 -6.39883e-08 -7.85116e-22 -1.67402e-07 -2.37016e-23 0)
(1.15866e-06 -4.83885e-08 -2.90518e-22 -1.23478e-07 -1.24329e-22 0)
(1.14042e-06 -3.14151e-08 6.17086e-22 -7.24941e-08 1.07213e-22 0)
(1.12324e-06 -1.02328e-08 5.6238e-22 -1.39294e-08 2.45292e-22 -2.44398e-36)
(1.01964e-06 -4.73604e-07 3.52918e-22 -5.28263e-07 1.16241e-22 0)
(1.03361e-06 -4.3037e-07 -3.2328e-22 -5.04226e-07 -4.57402e-24 0)
(1.05312e-06 -3.93709e-07 1.79094e-22 -4.84943e-07 -1.53177e-22 0)
(1.07108e-06 -3.60134e-07 -2.46326e-23 -4.6853e-07 -1.61366e-22 0)
(1.08951e-06 -3.28899e-07 1.26384e-22 -4.52747e-07 -7.26884e-23 0)
(1.10665e-06 -3.01073e-07 -4.47774e-22 -4.38182e-07 -8.91367e-23 0)
(1.12307e-06 -2.75415e-07 -5.61448e-22 -4.23502e-07 -1.67186e-22 0)
(1.13795e-06 -2.52238e-07 -2.6365e-22 -4.08608e-07 -1.51587e-22 0)
(1.15144e-06 -2.30863e-07 1.14772e-22 -3.92861e-07 7.33547e-23 0)
(1.16313e-06 -2.11148e-07 4.91594e-22 -3.75935e-07 2.8558e-22 0)
(1.17295e-06 -1.92653e-07 -8.5678e-22 -3.57397e-07 -1.82337e-22 0)
(1.18068e-06 -1.75075e-07 5.4746e-22 -3.36862e-07 1.58152e-22 0)
(1.18605e-06 -1.58035e-07 1.28518e-21 -3.13906e-07 1.24631e-22 0)
(1.18899e-06 -1.41141e-07 -5.19394e-22 -2.88083e-07 -1.50078e-22 0)
(1.18884e-06 -1.24005e-07 -1.18853e-21 -2.58881e-07 -1.14002e-22 0)
(1.18596e-06 -1.06103e-07 -7.43787e-22 -2.25742e-07 -1.43679e-22 0)
(1.17852e-06 -8.70358e-08 5.27478e-22 -1.87978e-07 -2.74026e-23 0)
(1.16871e-06 -6.58942e-08 6.36629e-22 -1.44876e-07 1.28451e-22 0)
(1.15059e-06 -4.28246e-08 1.73098e-22 -9.53731e-08 2.75674e-23 0)
(1.13388e-06 -1.39939e-08 -3.87671e-22 -3.89967e-08 -2.37365e-22 -1.2367e-36)
(1.16391e-06 -5.45365e-07 6.79038e-22 -6.38315e-07 -1.18359e-22 0)
(1.15546e-06 -5.02002e-07 3.21864e-22 -6.01846e-07 -4.25084e-22 0)
(1.1583e-06 -4.62611e-07 -7.29864e-22 -5.70294e-07 1.26985e-22 0)
(1.16049e-06 -4.26861e-07 -3.31046e-22 -5.4382e-07 -1.33287e-23 0)
(1.16624e-06 -3.92219e-07 1.15146e-21 -5.1876e-07 1.37878e-22 0)
(1.17199e-06 -3.61162e-07 -6.49142e-22 -4.96305e-07 2.07226e-22 0)
(1.17899e-06 -3.31956e-07 -7.10009e-22 -4.74772e-07 -1.9226e-22 0)
(1.18563e-06 -3.05304e-07 5.86617e-22 -4.54029e-07 -1.11664e-22 0)
(1.19217e-06 -2.80443e-07 -2.83757e-22 -4.33332e-07 1.20852e-22 0)
(1.19788e-06 -2.57303e-07 -1.66767e-23 -4.12258e-07 1.32653e-22 0)
(1.20264e-06 -2.35421e-07 -6.35634e-22 -3.90307e-07 -5.86325e-23 0)
(1.20606e-06 -2.14467e-07 -7.35208e-22 -3.6703e-07 -3.67123e-22 0)
(1.20783e-06 -1.94024e-07 2.22447e-21 -3.41964e-07 2.70019e-22 0)
(1.20779e-06 -1.73631e-07 2.6445e-22 -3.14636e-07 1.29725e-22 0)
(1.20525e-06 -1.52832e-07 -4.39757e-22 -2.84533e-07 -1.09935e-22 0)
(1.20054e-06 -1.30989e-07 3.35659e-22 -2.51111e-07 6.25371e-23 0)
(1.1919e-06 -1.07621e-07 -1.46203e-21 -2.13727e-07 -3.57226e-22 0)
(1.18141e-06 -8.15975e-08 6.06975e-22 -1.71723e-07 1.8512e-22 0)
(1.16345e-06 -5.30977e-08 -2.79697e-22 -1.24168e-07 -7.82559e-23 0)
(1.14733e-06 -1.74185e-08 1.30534e-22 -7.06657e-08 4.24768e-23 1.99298e-40)
(1.32276e-06 -5.77178e-07 -3.16275e-22 -7.55234e-07 -4.07302e-22 0)
(1.29114e-06 -5.40892e-07 -4.91636e-22 -7.08225e-07 3.12858e-22 0)
(1.27678e-06 -5.03346e-07 -4.93508e-22 -6.64601e-07 1.50991e-22 0)
(1.26198e-06 -4.69928e-07 -3.7172e-22 -6.28141e-07 -3.97325e-22 0)
(1.25406e-06 -4.35414e-07 8.14556e-22 -5.93639e-07 5.95493e-22 0)
(1.24726e-06 -4.04099e-07 8.45933e-22 -5.62856e-07 1.52627e-22 0)
(1.24374e-06 -3.73855e-07 1.33066e-21 -5.34011e-07 9.8547e-23 0)
(1.2411e-06 -3.45795e-07 -1.68139e-21 -5.06862e-07 -2.96858e-22 0)
(1.23973e-06 -3.19216e-07 -1.11074e-21 -4.80667e-07 -2.34724e-23 0)
(1.23858e-06 -2.94131e-07 -1.21634e-22 -4.54895e-07 -2.93966e-22 0)
(1.23746e-06 -2.70136e-07 1.59346e-21 -4.29021e-07 1.78344e-22 0)
(1.23588e-06 -2.46906e-07 -3.04405e-22 -4.02539e-07 -2.7903e-22 0)
(1.23342e-06 -2.24029e-07 -9.44001e-22 -3.74969e-07 -1.35799e-22 0)
(1.22986e-06 -2.01007e-07 4.38853e-22 -3.45823e-07 2.1351e-22 0)
(1.22451e-06 -1.77349e-07 -6.23555e-22 -3.14602e-07 -1.1733e-22 0)
(1.21762e-06 -1.52327e-07 -3.3286e-22 -2.80788e-07 -7.26286e-23 0)
(1.20752e-06 -1.25401e-07 -1.32049e-22 -2.43806e-07 -5.37672e-23 0)
(1.19622e-06 -9.525e-08 6.8217e-22 -2.03074e-07 1.80279e-22 0)
(1.17846e-06 -6.20796e-08 8.30311e-22 -1.5784e-07 2.73899e-22 0)
(1.16307e-06 -2.04591e-08 -6.53866e-22 -1.0782e-07 -4.43643e-22 -1.99745e-36)
(1.4849e-06 -5.68334e-07 -1.38494e-22 -8.6816e-07 1.29168e-22 0)
(1.43172e-06 -5.46256e-07 2.80962e-22 -8.14138e-07 1.56477e-22 0)
(1.40143e-06 -5.15153e-07 1.43982e-21 -7.60155e-07 1.81992e-22 0)
(1.36981e-06 -4.88333e-07 -2.28972e-21 -7.1445e-07 -4.60179e-22 0)
(1.34823e-06 -4.57604e-07 -1.58728e-22 -6.71169e-07 1.77128e-22 0)
(1.32859e-06 -4.28871e-07 1.53876e-22 -6.32123e-07 -1.68256e-22 0)
(1.3141e-06 -4.00093e-07 1.62748e-21 -5.95991e-07 5.17274e-22 0)
(1.30173e-06 -3.72617e-07 6.50863e-22 -5.62324e-07 6.75841e-23 0)
(1.29191e-06 -3.46046e-07 -8.95748e-22 -5.30507e-07 -4.15452e-22 0)
(1.28342e-06 -3.20472e-07 -3.93514e-22 -4.99917e-07 -1.96298e-22 0)
(1.27596e-06 -2.9564e-07 -6.36712e-22 -4.70016e-07 -8.36556e-23 0)
(1.26893e-06 -2.71264e-07 1.68603e-22 -4.40256e-07 8.73083e-23 0)
(1.26184e-06 -2.46975e-07 5.49587e-22 -4.10139e-07 2.5879e-22 0)
(1.2544e-06 -2.22266e-07 0 -3.79173e-07 0 0)
(1.24591e-06 -1.96635e-07 1.16497e-22 -3.4688e-07 -9.56917e-23 0)
(1.23658e-06 -1.69294e-07 6.36883e-22 -3.12784e-07 1.56272e-22 0)
(1.22485e-06 -1.39663e-07 -3.08869e-22 -2.76394e-07 -4.73451e-23 0)
(1.21261e-06 -1.06273e-07 -1.14517e-21 -2.3723e-07 -4.04452e-22 0)
(1.19507e-06 -6.93574e-08 9.71049e-22 -1.94741e-07 3.51042e-22 0)
(1.18045e-06 -2.29587e-08 -2.95293e-22 -1.48779e-07 -2.6174e-22 -5.7946e-37)
(1.63836e-06 -5.20028e-07 1.38083e-21 -9.67582e-07 1.72158e-22 0)
(1.56767e-06 -5.17715e-07 -1.09819e-21 -9.12115e-07 -2.39482e-22 0)
(1.52481e-06 -4.97511e-07 9.93119e-22 -8.5282e-07 4.76182e-22 0)
(1.47843e-06 -4.80798e-07 3.25915e-22 -8.0031e-07 1.47659e-22 0)
(1.44431e-06 -4.5778e-07 -2.53916e-21 -7.50618e-07 -9.40195e-22 0)
(1.41275e-06 -4.34584e-07 5.93109e-22 -7.04621e-07 2.66674e-22 0)
(1.38749e-06 -4.1011e-07 6.68309e-22 -6.62038e-07 8.49884e-23 0)
(1.36551e-06 -3.85541e-07 2.39224e-21 -6.22231e-07 6.55882e-22 0)
(1.34707e-06 -3.60989e-07 -6.24856e-22 -5.84838e-07 -8.32571e-23 0)
(1.33102e-06 -3.36606e-07 -1.7459e-22 -5.49268e-07 1.33307e-22 0)
(1.31692e-06 -3.12354e-07 1.69545e-22 -5.15042e-07 -1.19991e-22 0)
(1.30412e-06 -2.88038e-07 -1.67447e-22 -4.81646e-07 1.05048e-22 0)
(1.2921e-06 -2.63379e-07 1.94296e-22 -4.48609e-07 2.71147e-22 0)
(1.2805e-06 -2.37912e-07 2.23848e-21 -4.15471e-07 5.64543e-22 0)
(1.26863e-06 -2.11159e-07 -9.5314e-22 -3.81802e-07 -3.05925e-22 0)
(1.25666e-06 -1.8231e-07 -1.83205e-21 -3.4719e-07 -4.91761e-22 0)
(1.24316e-06 -1.50773e-07 1.50245e-21 -3.11253e-07 5.02296e-22 0)
(1.22989e-06 -1.14968e-07 2.92714e-22 -2.73634e-07 9.04385e-23 0)
(1.21261e-06 -7.51542e-08 -8.63296e-22 -2.3403e-07 -3.43199e-22 0)
(1.19892e-06 -2.49901e-08 2.57899e-22 -1.92496e-07 1.55429e-22 -3.05187e-39)
(1.7749e-06 -4.41255e-07 -1.27323e-21 -1.04434e-06 -5.02529e-22 0)
(1.69123e-06 -4.61481e-07 -4.5065e-22 -9.89412e-07 9.25085e-23 0)
(1.63941e-06 -4.56941e-07 4.05329e-22 -9.30336e-07 -1.02009e-22 0)
(1.5818e-06 -4.51555e-07 1.44927e-21 -8.73082e-07 2.84815e-22 0)
(1.53653e-06 -4.38837e-07 -1.01652e-21 -8.19053e-07 -1.90131e-22 0)
(1.4948e-06 -4.22727e-07 -7.59851e-22 -7.67697e-07 7.46166e-23 0)
(1.45967e-06 -4.041e-07 0 -7.19928e-07 0 0)
(1.42891e-06 -3.83827e-07 1.19746e-21 -6.75206e-07 3.68515e-22 0)
(1.40239e-06 -3.62596e-07 1.74459e-21 -6.33311e-07 6.16769e-22 0)
(1.37916e-06 -3.40671e-07 6.35644e-22 -5.93748e-07 1.01172e-22 0)
(1.35863e-06 -3.18204e-07 -1.11187e-21 -5.56063e-07 -3.40491e-22 0)
(1.34019e-06 -2.95097e-07 -1.89373e-21 -5.19784e-07 -3.47854e-22 0)
(1.32325e-06 -2.71156e-07 -9.31245e-22 -4.84476e-07 -4.35564e-22 0)
(1.30745e-06 -2.45968e-07 1.78993e-21 -4.49726e-07 4.02468e-22 0)
(1.29213e-06 -2.19088e-07 1.98624e-21 -4.15179e-07 6.77287e-22 0)
(1.27742e-06 -1.89712e-07 -9.44864e-22 -3.80508e-07 -3.37047e-22 0)
(1.26208e-06 -1.57259e-07 -3.4569e-22 -3.45471e-07 -1.55238e-22 0)
(1.24773e-06 -1.20094e-07 1.23329e-21 -3.0986e-07 4.99667e-22 0)
(1.23072e-06 -7.85254e-08 -1.12951e-21 -2.73622e-07 -4.98956e-22 0)
(1.21784e-06 -2.61814e-08 2.32077e-24 -2.36949e-07 1.59747e-24 -1.99788e-43)
(1.88052e-06 -3.33283e-07 1.03007e-21 -1.09989e-06 2.76839e-22 0)
(1.79791e-06 -3.6883e-07 -7.79154e-22 -1.04997e-06 -1.56497e-22 0)
(1.74007e-06 -3.86801e-07 2.75485e-23 -1.00061e-06 -1.95782e-22 0)
(1.6776e-06 -3.95973e-07 -3.92393e-22 -9.45015e-07 7.55536e-23 0)
(1.62288e-06 -3.9819e-07 -7.21833e-22 -8.90279e-07 5.42765e-24 0)
(1.57269e-06 -3.93645e-07 -6.32491e-22 -8.36156e-07 -3.74778e-22 0)
(1.52836e-06 -3.84456e-07 -5.27089e-22 -7.84187e-07 -5.81852e-22 0)
(1.48918e-06 -3.71504e-07 -3.73663e-23 -7.34756e-07 2.86017e-23 0)
(1.4548e-06 -3.55851e-07 4.00965e-23 -6.88002e-07 -2.21105e-23 0)
(1.42455e-06 -3.38113e-07 1.25295e-21 -6.43809e-07 2.20129e-22 0)
(1.39778e-06 -3.18713e-07 1.58458e-21 -6.01906e-07 6.55248e-22 0)
(1.37389e-06 -2.97797e-07 -9.99114e-22 -5.61955e-07 -4.93805e-22 0)
(1.35225e-06 -2.75338e-07 -1.5775e-21 -5.2361e-07 -5.92939e-22 0)
(1.33247e-06 -2.51056e-07 -1.0336e-21 -4.86528e-07 -3.60689e-22 0)
(1.3139e-06 -2.24589e-07 4.2207e-22 -4.50439e-07 2.05794e-22 0)
(1.29664e-06 -1.95188e-07 1.98112e-23 -4.15111e-07 2.19205e-24 0)
(1.27966e-06 -1.62305e-07 -5.62633e-22 -3.80459e-07 -1.95892e-22 0)
(1.26443e-06 -1.24293e-07 1.08573e-23 -3.4644e-07 2.69749e-24 0)
(1.248e-06 -8.14685e-08 5.46337e-22 -3.1327e-07 2.53325e-22 0)
(1.23642e-06 -2.72953e-08 -1.47004e-22 -2.81343e-07 -1.14013e-22 -1.75429e-39)
(1.94005e-06 -2.43874e-07 3.74209e-22 -1.11145e-06 2.1722e-22 0)
(1.86386e-06 -2.73862e-07 7.45117e-22 -1.06078e-06 5.10037e-22 0)
(1.80116e-06 -3.08983e-07 7.7334e-22 -1.01893e-06 2.26613e-22 0)
(1.73961e-06 -3.28462e-07 2.08814e-22 -9.70011e-07 3.41088e-23 0)
(1.68236e-06 -3.41058e-07 2.74696e-22 -9.18866e-07 3.66592e-22 0)
(1.62944e-06 -3.46191e-07 7.04746e-23 -8.67323e-07 -2.402e-22 0)
(1.58138e-06 -3.45588e-07 -1.43957e-21 -8.16505e-07 -5.34119e-22 0)
(1.53796e-06 -3.40215e-07 -5.14434e-22 -7.67282e-07 -1.1491e-22 0)
(1.49904e-06 -3.31018e-07 5.12028e-22 -7.20037e-07 1.11178e-22 0)
(1.46417e-06 -3.18698e-07 -6.2865e-22 -6.74934e-07 -1.26813e-22 0)
(1.4329e-06 -3.03748e-07 1.60223e-21 -6.31939e-07 7.02391e-22 0)
(1.40475e-06 -2.8643e-07 9.82364e-22 -5.9092e-07 3.86978e-22 0)
(1.37924e-06 -2.66827e-07 -1.44109e-22 -5.51704e-07 1.10235e-22 0)
(1.35604e-06 -2.44775e-07 3.62032e-22 -5.14111e-07 2.20737e-22 0)
(1.33462e-06 -2.2001e-07 5.73029e-22 -4.78021e-07 1.65848e-22 0)
(1.31512e-06 -1.919e-07 -4.02042e-23 -4.43359e-07 -1.08911e-23 0)
(1.29671e-06 -1.59984e-07 3.42065e-22 -4.10219e-07 1.7613e-22 0)
(1.28071e-06 -1.22745e-07 1.81676e-22 -3.7875e-07 5.59433e-23 0)
(1.26482e-06 -8.05806e-08 -5.47368e-22 -3.49468e-07 -2.63304e-22 0)
(1.25413e-06 -2.70695e-08 -2.69242e-22 -3.22838e-07 -2.98645e-22 -4.62376e-37)
(1.91835e-06 -1.72345e-07 -2.56094e-21 -1.06976e-06 -8.29817e-22 0)
(1.86773e-06 -2.0551e-07 -1.25846e-21 -1.04396e-06 -7.2829e-22 0)
(1.8118e-06 -2.43354e-07 1.10138e-21 -1.00763e-06 5.82892e-23 0)
(1.75731e-06 -2.69166e-07 -6.1013e-22 -9.66055e-07 3.92943e-22 0)
(1.70435e-06 -2.87604e-07 -1.17415e-21 -9.2043e-07 -5.90603e-22 0)
(1.65417e-06 -2.98807e-07 1.42046e-21 -8.73328e-07 3.5471e-22 0)
(1.60738e-06 -3.04002e-07 -1.31399e-35 -8.25913e-07 -5.30274e-36 0)
(1.56413e-06 -3.04074e-07 -1.50191e-21 -7.79207e-07 -8.23174e-22 0)
(1.52451e-06 -2.9985e-07 -2.83504e-36 -7.33772e-07 -2.20535e-36 0)
(1.48835e-06 -2.91972e-07 -3.96501e-22 -6.8996e-07 -2.96239e-22 0)
(1.45541e-06 -2.80914e-07 -3.87831e-22 -6.47925e-07 -2.7819e-22 0)
(1.4254e-06 -2.66956e-07 6.12005e-22 -6.07714e-07 1.50533e-22 0)
(1.398e-06 -2.50222e-07 -6.00241e-22 -5.69323e-07 -1.575e-22 0)
(1.37301e-06 -2.3062e-07 -1.75002e-35 -5.32732e-07 -5.40409e-36 0)
(1.35007e-06 -2.07967e-07 5.79663e-22 -4.97974e-07 1.80812e-22 0)