/*--------------------------------*- C++ -*----------------------------------*\
| =========                 |                                                 |
| \\      /  F ield         | foam-extend: Open Source CFD                    |
|  \\    /   O peration     | Version:     4.1                                |
|   \\  /    A nd           | Web:         http://www.foam-extend.org         |
|    \\/     M anipulation  |                                                 |
\*---------------------------------------------------------------------------*/
FoamFile
{
    version     2.0;
    format      ascii;
    class       volScalarField;
    location    "3";
    object      sigmaEq;
}
// * * * * * * * * * * * * * * * * * * * * * * * * * * * * * * * * * * * * * //

dimensions      [1 -1 -2 0 0 0 0];

internalField   nonuniform List<scalar> 
1000
(
319053
363795
399595
426708
439307
444229
443486
439338
433760
425941
399376
405843
421487
438338
445419
447322
444742
439750
432828
425746
477648
447589
441018
445555
445779
443828
438960
432709
424815
417475
551468
487553
458146
449009
441323
434860
427360
419737
411003
403594
618764
524383
472801
449400
433095
421598
411210
402091
392709
385213
677741
556921
484984
447622
422478
405655
392191
381468
371493
363846
726853
584169
494689
444608
411017
388918
372352
359965
349433
341529
764828
605336
501960
441331
400413
373555
354119
340137
329084
320848
790689
619790
506784
438593
392222
361699
339993
324708
313228
304670
803653
626961
508967
436786
387469
354922
331937
315906
304178
295430
293090
194165
139044
116143
107891
109477
115388
123922
133129
142478
280785
193452
151700
139620
137365
140740
145988
152672
159382
166827
256070
192453
173292
175687
180311
185824
190596
195437
199355
204599
220492
193170
200486
216469
226985
234413
238941
242348
243931
247251
176540
197890
230483
257550
272665
281596
285930
288161
287844
289492
129868
208760
261361
296499
314869
324788
328853
330028
328148
328272
97082.9
227148
291956
331956
352186
362514
366160
366337
363173
361863
110345
253114
321480
363033
383652
393725
396752
395922
391804
389057
166420
285664
349469
389301
408802
417947
420100
418333
413514
409641
239774
323156
375562
410472
427256
434612
435462
432414
427333
421271
152050
160021
167553
174405
180436
185734
190233
193971
196932
199122
200522
201119
200863
199737
197617
194541
190186
184890
177654
170147
172928
176996
181643
186077
190162
193870
197072
199742
201823
203282
204073
204161
203478
201995
199579
196260
191714
186273
178957
171420
206194
204897
205296
206051
207046
208165
209201
210057
210621
210804
210525
209712
208274
206158
203219
199473
194598
188914
181477
173909
244720
238308
234330
231161
228698
226813
225259
223884
222541
221090
219418
217417
214972
212005
208361
204039
198724
192721
185140
177558
283568
272996
265111
258361
252595
247729
243532
239812
236423
233183
229965
226627
223038
219100
214647
209666
203855
197504
189796
182250
319707
306179
295147
285440
276850
269313
262691
256745
251366
246344
241553
236834
232047
227082
221772
216095
209769
203073
195285
187857
351389
336126
322831
310788
299952
290128
281395
273450
266250
259576
253306
247276
241345
235396
229266
222930
216137
209155
201372
194164
377377
361572
347272
333636
321323
309777
299371
289761
280971
272803
265156
257881
250846
243938
237009
230036
222809
215588
207887
201010
397586
381570
367457
352744
339439
326627
314903
303996
293938
284581
275824
267539
259602
251913
244341
236875
229350
222026
214548
208114
411311
396158
383661
369331
355741
342369
329704
317749
306559
296086
286259
276986
268162
259702
251498
243551
235749
228357
221160
215274
416631
401223
389327
376162
363072
350151
337654
325680
314301
303520
293311
283626
274399
265582
257108
249005
241222
234024
227327
222101
406040
396876
386189
374842
363054
351210
339530
328159
317197
306686
296638
287043
277874
269120
260756
252841
245377
238643
232656
228283
397332
389781
381225
371490
361138
350454
339717
329088
318699
308620
298898
289555
280600
272052
263926
256308
249251
243033
237763
234173
387442
381655
374698
366372
357351
347803
338055
328254
318557
309051
299808
290876
282293
274107
266364
259173
252628
247002
242472
239643
376751
372396
366925
359961
352247
343851
335132
326222
317299
308462
299803
291391
283288
275564
268293
261600
255613
250594
246769
244631
365758
362635
358413
352651
346121
338819
331112
323115
315014
306914
298922
291119
283588
276414
269694
263562
258171
253767
250611
249087
354720
352616
349462
344785
339340
333074
326348
319262
312003
304677
297400
290264
283362
276794
270669
265130
260342
256535
253987
252992
343867
342593
340332
336606
332128
326822
321028
314831
308415
301881
295350
288917
282685
276760
271259
266328
262138
258898
256894
256338
333339
332723
331204
328310
324698
320277
315362
310023
304435
298694
292920
287208
281666
276399
271533
267205
263592
260877
259347
259141
323212
323115
322210
320039
317198
313590
309496
304978
300194
295235
290215
285229
280380
275776
271538
267800
264732
262497
261367
261428
313519
313835
313440
311901
309751
306888
303563
299825
295816
291620
287342
283071
278908
274954
271329
268155
265594
263786
262987
263239
304263
304913
304951
303973
302449
300275
297670
294671
291405
287944
284386
280811
277315
273992
270952
268310
266213
264780
264247
264620
295426
296375
296785
296315
295368
293837
291908
289610
287051
284295
281427
278521
275664
272941
270455
268305
266626
265517
265188
265624
286990
288201
288972
288990
288584
287661
286369
284733
282843
280754
278541
276269
274014
271854
269880
268180
266872
266037
265858
266306
278925
280463
281552
282033
282162
281820
281135
280125
278864
277400
275797
274114
272417
270775
269268
267971
266985
266378
266300
266721
271279
273022
274550
275581
276214
276434
276318
275892
275211
274321
273273
272123
270928
269749
268656
267712
267002
266579
266563
266925
263908
266842
268109
269743
270823
271599
272012
272127
271972
271592
271033
270346
269584
268804
268065
267422
266942
266666
266682
266964
257169
259898
262451
264478
266158
267450
268384
268983
269285
269333
269174
268859
268442
267978
267521
267118
266824
266666
266700
266899
250958
254405
257458
260094
262353
264164
265568
266581
267249
267618
267743
267682
267497
267246
266986
266762
266618
266565
266630
266764
245831
250013
253789
257056
259837
262099
263873
265182
266079
266620
266875
266916
266817
266649
266477
266352
266315
266366
266506
266642
289148
297750
312825
332216
353304
373698
391480
405297
414698
418306
283898
291450
304816
322307
341789
361230
378910
393236
403693
408648
279645
286253
297993
313497
330999
348784
365530
379872
391738
399474
276125
281879
292162
305885
321593
337791
353342
366952
378592
387918
272981
277978
286947
299022
313017
327681
342068
355094
366351
376220
270133
274469
282282
292879
305275
318420
331468
343630
354212
364236
267395
271157
277960
287254
298218
309993
321788
333069
342850
352495
264689
267955
273876
282014
291675
302164
312737
323087
332075
341153
261915
264754
269915
277049
285564
294901
304354
313772
321966
330334
259001
261473
265977
272234
279734
288029
296463
304984
312436
320066
255870
258030
261973
267476
274095
281470
288996
296673
303432
310338
252456
254350
257816
262671
268532
275101
281831
288742
294877
301111
248672
250343
253409
257721
262941
268819
274868
281103
286691
292324
244453
245939
248677
252539
257231
262533
268018
273682
278813
283937
239664
241003
243483
246989
251266
256114
261158
266370
271151
275865
234265
235492
237781
241026
245000
249519
254254
259150
263709
268163
227981
229135
231306
234394
238193
242531
247110
251864
256336
260765
220927
222048
224176
227213
230970
235274
239861
244618
249192
253619
212356
213498
215689
218827
222731
227229
232070
237105
242049
246803
203153
204372
206724
210101
214328
219228
224546
230113
235646
240999
)
;

boundaryField
{
    left
    {
        type            symmetryPlane;
        value           nonuniform List<scalar> 
30
(
288948
283723
279490
275991
272865
270033
267309
264615
261850
258945
255823
252415
248638
244424
239641
234248
227969
220920
212353
203153
801923
626395
508838
436780
387453
354854
331816
315744
303992
295222
)
;
    }
    right
    {
        type            calculated;
        value           nonuniform List<scalar> 
30
(
169673
170942
173428
177076
181768
187383
193700
200575
207692
214915
221760
228009
233951
239470
244503
248997
252935
256307
259131
261433
263255
264642
265649
266332
266745
266945
266979
266910
266771
266659
)
;
    }
    down
    {
        type            symmetryPlane;
        value           nonuniform List<scalar> 
30
(
292763
194066
138074
114068
105096
106515
112597
121447
131010
140618
150565
158895
166671
173712
179888
185295
189880
193684
196698
198930
200365
200991
200759
199654
197552
194493
190153
184870
177645
170146
)
;
    }
    up
    {
        type            calculated;
        value           nonuniform List<scalar> 
30
(
202863
204080
206433
209813
214044
218952
224280
229864
235408
240795
245645
249860
253659
256948
259750
262029
263817
265137
266042
266590
266850
266894
266798
266632
266463
266341
266308
266360
266503
266629
)
;
    }
    hole
    {
        type            calculated;
        value           nonuniform List<scalar> 
20
(
309277
396898
481221
560202
631917
694609
746730
786989
814379
828151
302901
289024
261222
220364
167547
104117
31701.5
47877.4
132633
220482
)
;
    }
    frontAndBack
    {
        type            empty;
    }
}


// ************************************************************************* //
