/*--------------------------------*- C++ -*----------------------------------*\
| =========                 |                                                 |
| \\      /  F ield         | foam-extend: Open Source CFD                    |
|  \\    /   O peration     | Version:     4.1                                |
|   \\  /    A nd           | Web:         http://www.foam-extend.org         |
|    \\/     M anipulation  |                                                 |
\*---------------------------------------------------------------------------*/
FoamFile
{
    version     2.0;
    format      ascii;
    class       vectorField;
    location    "3";
    object      solidsCellD_iteration8;
}
// * * * * * * * * * * * * * * * * * * * * * * * * * * * * * * * * * * * * * //


1000
(
(1.47574e-06 -5.72614e-07 0)
(1.39831e-06 -5.36071e-07 0)
(1.34999e-06 -5.14267e-07 0)
(1.32336e-06 -5.05827e-07 0)
(1.31179e-06 -5.05195e-07 0)
(1.31131e-06 -5.10536e-07 0)
(1.31897e-06 -5.19832e-07 0)
(1.33265e-06 -5.3219e-07 0)
(1.35113e-06 -5.46478e-07 0)
(1.37192e-06 -5.62333e-07 0)
(1.33523e-06 -6.25671e-07 0)
(1.25276e-06 -6.01634e-07 0)
(1.20111e-06 -5.8782e-07 0)
(1.17196e-06 -5.84877e-07 0)
(1.15827e-06 -5.87952e-07 0)
(1.15572e-06 -5.95935e-07 0)
(1.16133e-06 -6.07116e-07 0)
(1.17287e-06 -6.20873e-07 0)
(1.18895e-06 -6.36192e-07 0)
(1.20746e-06 -6.52901e-07 0)
(1.18894e-06 -6.75908e-07 0)
(1.10463e-06 -6.65837e-07 0)
(1.05172e-06 -6.60905e-07 0)
(1.02136e-06 -6.63927e-07 0)
(1.00645e-06 -6.70914e-07 0)
(1.00247e-06 -6.81589e-07 0)
(1.00647e-06 -6.94642e-07 0)
(1.01627e-06 -7.09663e-07 0)
(1.03042e-06 -7.25913e-07 0)
(1.0471e-06 -7.43132e-07 0)
(1.03798e-06 -7.22455e-07 0)
(9.55453e-07 -7.26983e-07 0)
(9.03552e-07 -7.31315e-07 0)
(8.73367e-07 -7.40492e-07 0)
(8.5811e-07 -7.51505e-07 0)
(8.53298e-07 -7.649e-07 0)
(8.56012e-07 -7.79775e-07 0)
(8.64269e-07 -7.96016e-07 0)
(8.76625e-07 -8.13174e-07 0)
(8.91456e-07 -8.30985e-07 0)
(8.83489e-07 -7.6438e-07 0)
(8.06211e-07 -7.8334e-07 0)
(7.57533e-07 -7.96833e-07 0)
(7.29018e-07 -8.12071e-07 0)
(7.14318e-07 -8.26999e-07 0)
(7.0916e-07 -8.43045e-07 0)
(7.10908e-07 -8.59682e-07 0)
(7.17723e-07 -8.77116e-07 0)
(7.28328e-07 -8.95163e-07 0)
(7.41176e-07 -9.13625e-07 0)
(7.26084e-07 -8.0087e-07 0)
(6.57524e-07 -8.33294e-07 0)
(6.14327e-07 -8.55345e-07 0)
(5.8882e-07 -8.7626e-07 0)
(5.75457e-07 -8.94852e-07 0)
(5.70421e-07 -9.13355e-07 0)
(5.71514e-07 -9.31603e-07 0)
(5.7702e-07 -9.5015e-07 0)
(5.85825e-07 -9.69031e-07 0)
(5.96526e-07 -9.88159e-07 0)
(5.66682e-07 -8.31063e-07 0)
(5.09826e-07 -8.75298e-07 0)
(4.73989e-07 -9.04862e-07 0)
(4.52709e-07 -9.30742e-07 0)
(4.4145e-07 -9.52521e-07 0)
(4.37055e-07 -9.73172e-07 0)
(4.37707e-07 -9.92833e-07 0)
(4.41934e-07 -1.01238e-06 0)
(4.48844e-07 -1.032e-06 0)
(4.57268e-07 -1.05174e-06 0)
(4.05798e-07 -8.54347e-07 0)
(3.63167e-07 -9.08072e-07 0)
(3.36323e-07 -9.43636e-07 0)
(3.20371e-07 -9.73458e-07 0)
(3.11877e-07 -9.97821e-07 0)
(3.08475e-07 -1.02021e-06 0)
(3.08804e-07 -1.04103e-06 0)
(3.11771e-07 -1.06138e-06 0)
(3.16735e-07 -1.0816e-06 0)
(3.228e-07 -1.10185e-06 0)
(2.43892e-07 -8.70168e-07 0)
(2.17509e-07 -9.30503e-07 0)
(2.00923e-07 -9.70255e-07 0)
(1.91001e-07 -1.00289e-06 0)
(1.85666e-07 -1.02906e-06 0)
(1.83496e-07 -1.05262e-06 0)
(1.83666e-07 -1.07427e-06 0)
(1.85453e-07 -1.09524e-06 0)
(1.88432e-07 -1.1159e-06 0)
(1.92078e-07 -1.13653e-06 0)
(8.14567e-08 -8.7814e-07 0)
(7.25231e-08 -9.41904e-07 0)
(6.68528e-08 -9.8381e-07 0)
(6.34824e-08 -1.01786e-06 0)
(6.17051e-08 -1.04496e-06 0)
(6.09492e-08 -1.06916e-06 0)
(6.09496e-08 -1.09121e-06 0)
(6.15342e-08 -1.11246e-06 0)
(6.25431e-08 -1.13335e-06 0)
(6.37564e-08 -1.15418e-06 0)
(2.29184e-06 -2.60636e-08 0)
(2.31131e-06 -1.88699e-08 0)
(2.32439e-06 -1.43795e-08 0)
(2.33906e-06 -1.18086e-08 0)
(2.35564e-06 -1.04572e-08 0)
(2.37582e-06 -9.94724e-09 0)
(2.39963e-06 -9.99813e-09 0)
(2.4271e-06 -1.03759e-08 0)
(2.45825e-06 -1.10654e-08 0)
(2.49264e-06 -1.18827e-08 0)
(2.27514e-06 -7.82283e-08 0)
(2.2914e-06 -5.70685e-08 0)
(2.30247e-06 -4.38572e-08 0)
(2.31576e-06 -3.63738e-08 0)
(2.33142e-06 -3.25058e-08 0)
(2.35092e-06 -3.09838e-08 0)
(2.37428e-06 -3.11605e-08 0)
(2.4014e-06 -3.24448e-08 0)
(2.43219e-06 -3.45218e-08 0)
(2.46625e-06 -3.68851e-08 0)
(2.24176e-06 -1.30801e-07 0)
(2.25186e-06 -9.68957e-08 0)
(2.25906e-06 -7.57574e-08 0)
(2.26978e-06 -6.37074e-08 0)
(2.28374e-06 -5.75542e-08 0)
(2.30206e-06 -5.53027e-08 0)
(2.32449e-06 -5.57213e-08 0)
(2.35089e-06 -5.78769e-08 0)
(2.38102e-06 -6.12928e-08 0)
(2.41445e-06 -6.52287e-08 0)
(2.19227e-06 -1.84086e-07 0)
(2.19364e-06 -1.39259e-07 0)
(2.19528e-06 -1.11429e-07 0)
(2.20235e-06 -9.56579e-08 0)
(2.21385e-06 -8.76376e-08 0)
(2.23046e-06 -8.48134e-08 0)
(2.25161e-06 -8.55228e-08 0)
(2.27703e-06 -8.86014e-08 0)
(2.30626e-06 -9.33735e-08 0)
(2.33885e-06 -9.88848e-08 0)
(2.12737e-06 -2.38203e-07 0)
(2.118e-06 -1.84953e-07 0)
(2.11276e-06 -1.51963e-07 0)
(2.11528e-06 -1.33464e-07 0)
(2.12375e-06 -1.24175e-07 0)
(2.13824e-06 -1.21125e-07 0)
(2.1578e-06 -1.22318e-07 0)
(2.18195e-06 -1.26392e-07 0)
(2.21006e-06 -1.32483e-07 0)
(2.24165e-06 -1.39501e-07 0)
(2.04798e-06 -2.93209e-07 0)
(2.02642e-06 -2.3452e-07 0)
(2.01347e-06 -1.98207e-07 0)
(2.01087e-06 -1.78134e-07 0)
(2.01591e-06 -1.68315e-07 0)
(2.02796e-06 -1.65467e-07 0)
(2.04575e-06 -1.67339e-07 0)
(2.06846e-06 -1.72433e-07 0)
(2.09531e-06 -1.79791e-07 0)
(2.12579e-06 -1.88255e-07 0)
(1.95528e-06 -3.49004e-07 0)
(1.92079e-06 -2.88187e-07 0)
(1.89967e-06 -2.50624e-07 0)
(1.89167e-06 -2.30275e-07 0)
(1.89308e-06 -2.20686e-07 0)
(1.90256e-06 -2.18489e-07 0)
(1.91844e-06 -2.21252e-07 0)
(1.93962e-06 -2.27405e-07 0)
(1.9651e-06 -2.35996e-07 0)
(1.99443e-06 -2.45816e-07 0)
(1.85038e-06 -4.05294e-07 0)
(1.8031e-06 -3.45817e-07 0)
(1.77388e-06 -3.09175e-07 0)
(1.76048e-06 -2.89902e-07 0)
(1.75829e-06 -2.81354e-07 0)
(1.76516e-06 -2.80295e-07 0)
(1.77908e-06 -2.84198e-07 0)
(1.79868e-06 -2.91515e-07 0)
(1.82276e-06 -3.01316e-07 0)
(1.85088e-06 -3.12398e-07 0)
(1.73462e-06 -4.61712e-07 0)
(1.67544e-06 -4.0692e-07 0)
(1.63869e-06 -3.73362e-07 0)
(1.6202e-06 -3.56502e-07 0)
(1.61457e-06 -3.49828e-07 0)
(1.61885e-06 -3.50389e-07 0)
(1.63074e-06 -3.55709e-07 0)
(1.64867e-06 -3.64286e-07 0)
(1.67123e-06 -3.75288e-07 0)
(1.69801e-06 -3.87369e-07 0)
(1.60932e-06 -5.17712e-07 0)
(1.5399e-06 -4.70692e-07 0)
(1.49665e-06 -4.42175e-07 0)
(1.47366e-06 -4.29016e-07 0)
(1.46488e-06 -4.25027e-07 0)
(1.46676e-06 -4.27726e-07 0)
(1.47678e-06 -4.34843e-07 0)
(1.49307e-06 -4.45073e-07 0)
(1.51433e-06 -4.57542e-07 0)
(1.53928e-06 -4.71324e-07 0)
(2.53022e-06 -1.26369e-08 0)
(2.5711e-06 -1.29035e-08 0)
(2.61446e-06 -1.31614e-08 0)
(2.66014e-06 -1.33635e-08 0)
(2.70788e-06 -1.35019e-08 0)
(2.75755e-06 -1.35734e-08 0)
(2.8089e-06 -1.35565e-08 0)
(2.86174e-06 -1.34799e-08 0)
(2.91593e-06 -1.33582e-08 0)
(2.97138e-06 -1.31595e-08 0)
(3.02789e-06 -1.286e-08 0)
(3.0853e-06 -1.24594e-08 0)
(3.14349e-06 -1.19619e-08 0)
(3.20231e-06 -1.13708e-08 0)
(3.26163e-06 -1.06762e-08 0)
(3.32128e-06 -9.85357e-09 0)
(3.38115e-06 -8.87393e-09 0)
(3.44094e-06 -7.71382e-09 0)
(3.50068e-06 -6.35173e-09 0)
(3.55966e-06 -4.78653e-09 0)
(2.50499e-06 -3.90121e-08 0)
(2.54794e-06 -3.967e-08 0)
(2.59317e-06 -4.03077e-08 0)
(2.64049e-06 -4.07916e-08 0)
(2.68972e-06 -4.10735e-08 0)
(2.74067e-06 -4.11915e-08 0)
(2.79319e-06 -4.11296e-08 0)
(2.84713e-06 -4.09006e-08 0)
(2.90234e-06 -4.04693e-08 0)
(2.95869e-06 -3.9779e-08 0)
(3.01603e-06 -3.88244e-08 0)
(3.07424e-06 -3.76198e-08 0)
(3.13318e-06 -3.61483e-08 0)
(3.19272e-06 -3.43762e-08 0)
(3.25271e-06 -3.22597e-08 0)
(3.31299e-06 -2.97527e-08 0)
(3.37346e-06 -2.67958e-08 0)
(3.43383e-06 -2.33305e-08 0)
(3.49414e-06 -1.92823e-08 0)
(3.55365e-06 -1.462e-08 0)
(2.45542e-06 -6.8425e-08 0)
(2.50249e-06 -6.90243e-08 0)
(2.55141e-06 -6.96088e-08 0)
(2.60189e-06 -7.0057e-08 0)
(2.65397e-06 -7.0263e-08 0)
(2.70752e-06 -7.02697e-08 0)
(2.76241e-06 -7.00062e-08 0)
(2.81846e-06 -6.94622e-08 0)
(2.87559e-06 -6.85801e-08 0)
(2.9337e-06 -6.73144e-08 0)
(2.99269e-06 -6.56699e-08 0)
(3.05244e-06 -6.36411e-08 0)
(3.11282e-06 -6.11655e-08 0)
(3.17369e-06 -5.8173e-08 0)
(3.23495e-06 -5.46021e-08 0)
(3.29645e-06 -5.03919e-08 0)
(3.35812e-06 -4.54503e-08 0)
(3.41966e-06 -3.96873e-08 0)
(3.48111e-06 -3.29781e-08 0)
(3.54178e-06 -2.5249e-08 0)
(2.38298e-06 -1.02585e-07 0)
(2.43589e-06 -1.02387e-07 0)
(2.49012e-06 -1.02266e-07 0)
(2.54527e-06 -1.02198e-07 0)
(2.60158e-06 -1.01941e-07 0)
(2.65887e-06 -1.0153e-07 0)
(2.71716e-06 -1.00803e-07 0)
(2.7763e-06 -9.97432e-08 0)
(2.83631e-06 -9.82647e-08 0)
(2.89708e-06 -9.63229e-08 0)
(2.95852e-06 -9.38985e-08 0)
(3.02053e-06 -9.09466e-08 0)
(3.08301e-06 -8.73748e-08 0)
(3.14587e-06 -8.31042e-08 0)
(3.20901e-06 -7.80677e-08 0)
(3.27233e-06 -7.21607e-08 0)
(3.33573e-06 -6.52532e-08 0)
(3.39896e-06 -5.72144e-08 0)
(3.46204e-06 -4.78566e-08 0)
(3.52434e-06 -3.7101e-08 0)
(2.2898e-06 -1.42968e-07 0)
(2.35011e-06 -1.41053e-07 0)
(2.41112e-06 -1.39441e-07 0)
(2.47217e-06 -1.38269e-07 0)
(2.53383e-06 -1.37034e-07 0)
(2.59593e-06 -1.35775e-07 0)
(2.65861e-06 -1.34237e-07 0)
(2.72177e-06 -1.32403e-07 0)
(2.78545e-06 -1.30121e-07 0)
(2.84959e-06 -1.27324e-07 0)
(2.91416e-06 -1.23968e-07 0)
(2.97911e-06 -1.19979e-07 0)
(3.04436e-06 -1.15235e-07 0)
(3.10982e-06 -1.09637e-07 0)
(3.17546e-06 -1.03097e-07 0)
(3.24111e-06 -9.54697e-08 0)
(3.30678e-06 -8.65921e-08 0)
(3.37216e-06 -7.62988e-08 0)
(3.4374e-06 -6.43293e-08 0)
(3.50181e-06 -5.06026e-08 0)
(2.17846e-06 -1.90684e-07 0)
(2.24727e-06 -1.85982e-07 0)
(2.31625e-06 -1.81904e-07 0)
(2.3843e-06 -1.78875e-07 0)
(2.45242e-06 -1.76052e-07 0)
(2.52029e-06 -1.73462e-07 0)
(2.5882e-06 -1.70719e-07 0)
(2.65615e-06 -1.67757e-07 0)
(2.72424e-06 -1.64402e-07 0)
(2.79245e-06 -1.60551e-07 0)
(2.86082e-06 -1.56121e-07 0)
(2.92931e-06 -1.50987e-07 0)
(2.99787e-06 -1.44993e-07 0)
(3.06645e-06 -1.38016e-07 0)
(3.13504e-06 -1.29927e-07 0)
(3.20351e-06 -1.20561e-07 0)
(3.2719e-06 -1.09717e-07 0)
(3.3399e-06 -9.7205e-08 0)
(3.40773e-06 -8.26921e-08 0)
(3.47471e-06 -6.60543e-08 0)
(2.05204e-06 -2.46392e-07 0)
(2.13019e-06 -2.37797e-07 0)
(2.20803e-06 -2.30282e-07 0)
(2.28391e-06 -2.24588e-07 0)
(2.35918e-06 -2.19515e-07 0)
(2.43357e-06 -2.15015e-07 0)
(2.50741e-06 -2.10638e-07 0)
(2.5808e-06 -2.06204e-07 0)
(2.65391e-06 -2.01508e-07 0)
(2.7268e-06 -1.96392e-07 0)
(2.79952e-06 -1.90709e-07 0)
(2.87205e-06 -1.8428e-07 0)
(2.94441e-06 -1.76915e-07 0)
(3.01657e-06 -1.68474e-07 0)
(3.08856e-06 -1.5879e-07 0)
(3.16028e-06 -1.47674e-07 0)
(3.23182e-06 -1.34886e-07 0)
(3.30287e-06 -1.20188e-07 0)
(3.37368e-06 -1.0318e-07 0)
(3.44359e-06 -8.36887e-08 0)
(1.9135e-06 -3.10295e-07 0)
(2.00137e-06 -2.96573e-07 0)
(2.08857e-06 -2.84646e-07 0)
(2.17292e-06 -2.7537e-07 0)
(2.25599e-06 -2.67348e-07 0)
(2.3375e-06 -2.60342e-07 0)
(2.41792e-06 -2.53857e-07 0)
(2.49736e-06 -2.47585e-07 0)
(2.57605e-06 -2.4126e-07 0)
(2.65409e-06 -2.34647e-07 0)
(2.73159e-06 -2.27526e-07 0)
(2.80857e-06 -2.19668e-07 0)
(2.8851e-06 -2.10854e-07 0)
(2.96123e-06 -2.00913e-07 0)
(3.037e-06 -1.89638e-07 0)
(3.11235e-06 -1.76804e-07 0)
(3.18737e-06 -1.62116e-07 0)
(3.2618e-06 -1.45286e-07 0)
(3.33589e-06 -1.25842e-07 0)
(3.40906e-06 -1.03567e-07 0)
(1.76591e-06 -3.82267e-07 0)
(1.86378e-06 -3.62363e-07 0)
(1.96057e-06 -3.45366e-07 0)
(2.05379e-06 -3.31684e-07 0)
(2.14504e-06 -3.20076e-07 0)
(2.23408e-06 -3.1001e-07 0)
(2.32145e-06 -3.00935e-07 0)
(2.40731e-06 -2.92421e-07 0)
(2.49193e-06 -2.84123e-07 0)
(2.57548e-06 -2.75721e-07 0)
(2.65808e-06 -2.66928e-07 0)
(2.73985e-06 -2.57469e-07 0)
(2.8209e-06 -2.47094e-07 0)
(2.90132e-06 -2.35586e-07 0)
(2.98116e-06 -2.22685e-07 0)
(3.06043e-06 -2.08121e-07 0)
(3.1392e-06 -1.91542e-07 0)
(3.21728e-06 -1.72604e-07 0)
(3.29492e-06 -1.50781e-07 0)
(3.37164e-06 -1.25818e-07 0)
(1.61221e-06 -4.61347e-07 0)
(1.72094e-06 -4.33307e-07 0)
(1.82736e-06 -4.10546e-07 0)
(1.92988e-06 -3.9174e-07 0)
(2.02949e-06 -3.75972e-07 0)
(2.12637e-06 -3.62371e-07 0)
(2.22092e-06 -3.50312e-07 0)
(2.31343e-06 -3.39257e-07 0)
(2.40419e-06 -3.28764e-07 0)
(2.49343e-06 -3.18423e-07 0)
(2.58133e-06 -3.07873e-07 0)
(2.66805e-06 -2.96782e-07 0)
(2.75376e-06 -2.84851e-07 0)
(2.83859e-06 -2.71807e-07 0)
(2.92261e-06 -2.57337e-07 0)
(3.00587e-06 -2.41123e-07 0)
(3.08847e-06 -2.22761e-07 0)
(3.17028e-06 -2.0184e-07 0)
(3.2516e-06 -1.77789e-07 0)
(3.33205e-06 -1.50283e-07 0)
(1.49466e-06 -5.40431e-07 0)
(1.61218e-06 -5.04707e-07 0)
(1.72531e-06 -4.77035e-07 0)
(1.83434e-06 -4.53668e-07 0)
(1.93972e-06 -4.33917e-07 0)
(2.04195e-06 -4.16783e-07 0)
(2.14141e-06 -4.01578e-07 0)
(2.23847e-06 -3.87716e-07 0)
(2.33344e-06 -3.74693e-07 0)
(2.42657e-06 -3.62048e-07 0)
(2.51807e-06 -3.49384e-07 0)
(2.60813e-06 -3.36337e-07 0)
(2.69695e-06 -3.22568e-07 0)
(2.78468e-06 -3.07762e-07 0)
(2.87138e-06 -2.91575e-07 0)
(2.95717e-06 -2.73648e-07 0)
(3.04215e-06 -2.53566e-07 0)
(3.12629e-06 -2.30873e-07 0)
(3.20988e-06 -2.04994e-07 0)
(3.29265e-06 -1.75543e-07 0)
(1.42915e-06 -6.06499e-07 0)
(1.54759e-06 -5.69163e-07 0)
(1.66186e-06 -5.38443e-07 0)
(1.77273e-06 -5.1201e-07 0)
(1.8802e-06 -4.89223e-07 0)
(1.98458e-06 -4.69202e-07 0)
(2.08619e-06 -4.51268e-07 0)
(2.18532e-06 -4.34839e-07 0)
(2.28222e-06 -4.194e-07 0)
(2.37712e-06 -4.04488e-07 0)
(2.47026e-06 -3.89701e-07 0)
(2.56181e-06 -3.74662e-07 0)
(2.65198e-06 -3.59019e-07 0)
(2.74091e-06 -3.42438e-07 0)
(2.82867e-06 -3.24568e-07 0)
(2.91543e-06 -3.05035e-07 0)
(3.00125e-06 -2.83444e-07 0)
(3.08623e-06 -2.59333e-07 0)
(3.17059e-06 -2.32155e-07 0)
(3.25418e-06 -2.01487e-07 0)
(1.37483e-06 -6.68894e-07 0)
(1.49193e-06 -6.31042e-07 0)
(1.60611e-06 -5.98675e-07 0)
(1.71742e-06 -5.70102e-07 0)
(1.82579e-06 -5.44897e-07 0)
(1.93131e-06 -5.22379e-07 0)
(2.03421e-06 -5.01955e-07 0)
(2.13466e-06 -4.831e-07 0)
(2.23287e-06 -4.65325e-07 0)
(2.32905e-06 -4.48189e-07 0)
(2.42339e-06 -4.31297e-07 0)
(2.51607e-06 -4.14271e-07 0)
(2.60727e-06 -3.96752e-07 0)
(2.69714e-06 -3.78397e-07 0)
(2.78575e-06 -3.58861e-07 0)
(2.8733e-06 -3.37762e-07 0)
(2.95985e-06 -3.14729e-07 0)
(3.04554e-06 -2.89316e-07 0)
(3.13058e-06 -2.60994e-07 0)
(3.21492e-06 -2.29336e-07 0)
(1.32752e-06 -7.2902e-07 0)
(1.44287e-06 -6.91054e-07 0)
(1.55609e-06 -6.57537e-07 0)
(1.667e-06 -6.27283e-07 0)
(1.77542e-06 -6.00061e-07 0)
(1.88133e-06 -5.7536e-07 0)
(1.98484e-06 -5.52697e-07 0)
(2.08604e-06 -5.31606e-07 0)
(2.18507e-06 -5.11642e-07 0)
(2.28211e-06 -4.92398e-07 0)
(2.37731e-06 -4.73496e-07 0)
(2.47083e-06 -4.54563e-07 0)
(2.56283e-06 -4.35242e-07 0)
(2.65345e-06 -4.15195e-07 0)
(2.74276e-06 -3.94078e-07 0)
(2.83098e-06 -3.71522e-07 0)
(2.91817e-06 -3.47178e-07 0)
(3.00452e-06 -3.2062e-07 0)
(3.09018e-06 -2.91341e-07 0)
(3.17523e-06 -2.58961e-07 0)
(1.28615e-06 -7.86565e-07 0)
(1.39943e-06 -7.48808e-07 0)
(1.51119e-06 -7.14663e-07 0)
(1.6211e-06 -6.83229e-07 0)
(1.72896e-06 -6.54434e-07 0)
(1.83467e-06 -6.27921e-07 0)
(1.93824e-06 -6.03312e-07 0)
(2.03969e-06 -5.80217e-07 0)
(2.13912e-06 -5.58251e-07 0)
(2.23664e-06 -5.37046e-07 0)
(2.33239e-06 -5.16251e-07 0)
(2.42647e-06 -4.95509e-07 0)
(2.51904e-06 -4.74474e-07 0)
(2.61022e-06 -4.52821e-07 0)
(2.70009e-06 -4.30216e-07 0)
(2.78887e-06 -4.06307e-07 0)
(2.87661e-06 -3.80767e-07 0)
(2.96352e-06 -3.53194e-07 0)
(3.04974e-06 -3.23122e-07 0)
(3.13547e-06 -2.90266e-07 0)
(1.24955e-06 -8.41745e-07 0)
(1.36062e-06 -8.04387e-07 0)
(1.47067e-06 -7.69923e-07 0)
(1.57919e-06 -7.37666e-07 0)
(1.68609e-06 -7.07655e-07 0)
(1.79116e-06 -6.79654e-07 0)
(1.89435e-06 -6.53384e-07 0)
(1.99566e-06 -6.28534e-07 0)
(2.09511e-06 -6.04777e-07 0)
(2.1928e-06 -5.81792e-07 0)
(2.28881e-06 -5.59257e-07 0)
(2.38321e-06 -5.36838e-07 0)
(2.47614e-06 -5.1421e-07 0)
(2.56772e-06 -4.91067e-07 0)
(2.65801e-06 -4.67087e-07 0)
(2.74723e-06 -4.4195e-07 0)
(2.83542e-06 -4.15341e-07 0)
(2.92281e-06 -3.86892e-07 0)
(3.00955e-06 -3.5621e-07 0)
(3.09586e-06 -3.23083e-07 0)
(1.21693e-06 -8.94707e-07 0)
(1.32574e-06 -8.57868e-07 0)
(1.43389e-06 -8.23308e-07 0)
(1.54081e-06 -7.90515e-07 0)
(1.64646e-06 -7.59597e-07 0)
(1.75056e-06 -7.30402e-07 0)
(1.85307e-06 -7.02744e-07 0)
(1.95391e-06 -6.76387e-07 0)
(2.05311e-06 -6.51055e-07 0)
(2.15068e-06 -6.26478e-07 0)
(2.2467e-06 -6.02367e-07 0)
(2.3412e-06 -5.78416e-07 0)
(2.43431e-06 -5.54326e-07 0)
(2.52611e-06 -5.29818e-07 0)
(2.61669e-06 -5.0458e-07 0)
(2.70623e-06 -4.78331e-07 0)
(2.79478e-06 -4.50777e-07 0)
(2.88257e-06 -4.21595e-07 0)
(2.96977e-06 -3.90475e-07 0)
(3.05658e-06 -3.57203e-07 0)
(1.18756e-06 -9.45612e-07 0)
(1.29414e-06 -9.09355e-07 0)
(1.40031e-06 -8.74861e-07 0)
(1.5055e-06 -8.41746e-07 0)
(1.6097e-06 -8.10164e-07 0)
(1.71261e-06 -7.80025e-07 0)
(1.8142e-06 -7.51223e-07 0)
(1.91435e-06 -7.23587e-07 0)
(2.01303e-06 -6.96887e-07 0)
(2.11027e-06 -6.70904e-07 0)
(2.20608e-06 -6.45387e-07 0)
(2.30049e-06 -6.2006e-07 0)
(2.39362e-06 -5.94647e-07 0)
(2.48551e-06 -5.68905e-07 0)
(2.57626e-06 -5.42538e-07 0)
(2.66602e-06 -5.153e-07 0)
(2.75485e-06 -4.86937e-07 0)
(2.84299e-06 -4.57167e-07 0)
(2.93057e-06 -4.25745e-07 0)
(3.0178e-06 -3.92419e-07 0)
(1.16082e-06 -9.94625e-07 0)
(1.2652e-06 -9.5898e-07 0)
(1.36937e-06 -9.24662e-07 0)
(1.47278e-06 -8.91386e-07 0)
(1.57541e-06 -8.59328e-07 0)
(1.67701e-06 -8.28453e-07 0)
(1.77751e-06 -7.98721e-07 0)
(1.87678e-06 -7.70013e-07 0)
(1.97478e-06 -7.4214e-07 0)
(2.0715e-06 -7.14936e-07 0)
(2.16694e-06 -6.88183e-07 0)
(2.26112e-06 -6.61638e-07 0)
(2.35413e-06 -6.3505e-07 0)
(2.446e-06 -6.08209e-07 0)
(2.5368e-06 -5.80845e-07 0)
(2.6267e-06 -5.52752e-07 0)
(2.71574e-06 -5.23715e-07 0)
(2.80417e-06 -4.9349e-07 0)
(2.89204e-06 -4.61853e-07 0)
(2.97965e-06 -4.2859e-07 0)
(1.13614e-06 -1.0419e-06 0)
(1.23838e-06 -1.00689e-06 0)
(1.34058e-06 -9.7281e-07 0)
(1.44218e-06 -9.39479e-07 0)
(1.54321e-06 -9.07092e-07 0)
(1.64342e-06 -8.75652e-07 0)
(1.74274e-06 -8.45173e-07 0)
(1.84102e-06 -8.1558e-07 0)
(1.9382e-06 -7.86721e-07 0)
(2.03428e-06 -7.58473e-07 0)
(2.12924e-06 -7.30653e-07 0)
(2.22307e-06 -7.03046e-07 0)
(2.31585e-06 -6.75432e-07 0)
(2.4076e-06 -6.47631e-07 0)
(2.49838e-06 -6.19408e-07 0)
(2.58835e-06 -5.90593e-07 0)
(2.67754e-06 -5.61008e-07 0)
(2.76616e-06 -5.30428e-07 0)
(2.85427e-06 -4.98644e-07 0)
(2.94218e-06 -4.65574e-07 0)
(1.11305e-06 -1.0876e-06 0)
(1.21323e-06 -1.05321e-06 0)
(1.3135e-06 -1.01941e-06 0)
(1.41333e-06 -9.86099e-07 0)
(1.51276e-06 -9.53501e-07 0)
(1.61156e-06 -9.21642e-07 0)
(1.70963e-06 -8.90577e-07 0)
(1.80685e-06 -8.60267e-07 0)
(1.90315e-06 -8.30595e-07 0)
(1.9985e-06 -8.01466e-07 0)
(2.09289e-06 -7.72733e-07 0)
(2.18628e-06 -7.4421e-07 0)
(2.27875e-06 -7.15708e-07 0)
(2.37031e-06 -6.87083e-07 0)
(2.46101e-06 -6.58131e-07 0)
(2.55099e-06 -6.28717e-07 0)
(2.64026e-06 -5.98683e-07 0)
(2.729e-06 -5.67818e-07 0)
(2.81732e-06 -5.35986e-07 0)
(2.90543e-06 -5.03161e-07 0)
(1.09113e-06 -1.13188e-06 0)
(1.18935e-06 -1.09806e-06 0)
(1.28774e-06 -1.06455e-06 0)
(1.38587e-06 -1.03134e-06 0)
(1.48373e-06 -9.98623e-07 0)
(1.58111e-06 -9.66464e-07 0)
(1.67793e-06 -9.34948e-07 0)
(1.77406e-06 -9.04062e-07 0)
(1.86942e-06 -8.73728e-07 0)
(1.96401e-06 -8.43861e-07 0)
(2.05777e-06 -8.14353e-07 0)
(2.15068e-06 -7.85051e-07 0)
(2.2428e-06 -7.55799e-07 0)
(2.33412e-06 -7.26485e-07 0)
(2.42469e-06 -6.96935e-07 0)
(2.51463e-06 -6.67031e-07 0)
(2.60392e-06 -6.36629e-07 0)
(2.69274e-06 -6.05555e-07 0)
(2.7812e-06 -5.73781e-07 0)
(2.86948e-06 -5.41194e-07 0)
(1.07005e-06 -1.17485e-06 0)
(1.1664e-06 -1.14156e-06 0)
(1.26301e-06 -1.10837e-06 0)
(1.35948e-06 -1.07529e-06 0)
(1.45581e-06 -1.04253e-06 0)
(1.5518e-06 -1.01016e-06 0)
(1.64738e-06 -9.78306e-07 0)
(1.74242e-06 -9.46963e-07 0)
(1.83686e-06 -9.16101e-07 0)
(1.93067e-06 -8.85634e-07 0)
(2.02379e-06 -8.55496e-07 0)
(2.11618e-06 -8.25559e-07 0)
(2.20792e-06 -7.95694e-07 0)
(2.29897e-06 -7.65819e-07 0)
(2.38937e-06 -7.35781e-07 0)
(2.47922e-06 -7.05472e-07 0)
(2.56848e-06 -6.74777e-07 0)
(2.65736e-06 -6.43581e-07 0)
(2.74588e-06 -6.11899e-07 0)
(2.83429e-06 -5.79594e-07 0)
(1.04948e-06 -1.21662e-06 0)
(1.14406e-06 -1.18384e-06 0)
(1.23897e-06 -1.15096e-06 0)
(1.33385e-06 -1.11803e-06 0)
(1.4287e-06 -1.08528e-06 0)
(1.52335e-06 -1.05278e-06 0)
(1.61774e-06 -1.0207e-06 0)
(1.71173e-06 -9.89023e-07 0)
(1.80527e-06 -9.57755e-07 0)
(1.8983e-06 -9.26818e-07 0)
(1.99078e-06 -8.9617e-07 0)
(2.08266e-06 -8.65713e-07 0)
(2.17401e-06 -8.35346e-07 0)
(2.26478e-06 -8.05013e-07 0)
(2.35498e-06 -7.74568e-07 0)
(2.4447e-06 -7.43925e-07 0)
(2.5339e-06 -7.13013e-07 0)
(2.6228e-06 -6.81775e-07 0)
(2.71136e-06 -6.50163e-07 0)
(2.79983e-06 -6.18189e-07 0)
(1.02908e-06 -1.25732e-06 0)
(1.12198e-06 -1.22502e-06 0)
(1.21526e-06 -1.19243e-06 0)
(1.30863e-06 -1.15967e-06 0)
(1.40209e-06 -1.12697e-06 0)
(1.49548e-06 -1.09443e-06 0)
(1.58875e-06 -1.0622e-06 0)
(1.68176e-06 -1.03029e-06 0)
(1.77443e-06 -9.98697e-07 0)
(1.86673e-06 -9.6739e-07 0)
(1.9586e-06 -9.36355e-07 0)
(2.05001e-06 -9.05507e-07 0)
(2.14098e-06 -8.74756e-07 0)
(2.23146e-06 -8.44059e-07 0)
(2.32145e-06 -8.13285e-07 0)
(2.41102e-06 -7.82385e-07 0)
(2.50017e-06 -7.51329e-07 0)
(2.58904e-06 -7.20074e-07 0)
(2.67764e-06 -6.8857e-07 0)
(2.76613e-06 -6.56887e-07 0)
(1.0085e-06 -1.29707e-06 0)
(1.0998e-06 -1.2652e-06 0)
(1.19154e-06 -1.23286e-06 0)
(1.28351e-06 -1.20029e-06 0)
(1.3757e-06 -1.16769e-06 0)
(1.46794e-06 -1.13518e-06 0)
(1.56019e-06 -1.10286e-06 0)
(1.65228e-06 -1.07081e-06 0)
(1.74416e-06 -1.039e-06 0)
(1.83579e-06 -1.00743e-06 0)
(1.92711e-06 -9.7611e-07 0)
(2.01807e-06 -9.44963e-07 0)
(2.10868e-06 -9.13909e-07 0)
(2.19888e-06 -8.82914e-07 0)
(2.28865e-06 -8.51882e-07 0)
(2.3781e-06 -8.20802e-07 0)
(2.46719e-06 -7.89663e-07 0)
(2.55601e-06 -7.58362e-07 0)
(2.64459e-06 -7.26999e-07 0)
(2.73308e-06 -6.95604e-07 0)
(9.87387e-07 -1.33595e-06 0)
(1.07714e-06 -1.3044e-06 0)
(1.16742e-06 -1.27237e-06 0)
(1.25818e-06 -1.24005e-06 0)
(1.34922e-06 -1.20758e-06 0)
(1.44045e-06 -1.17512e-06 0)
(1.53177e-06 -1.14279e-06 0)
(1.62305e-06 -1.11065e-06 0)
(1.71424e-06 -1.07871e-06 0)
(1.8053e-06 -1.04698e-06 0)
(1.89615e-06 -1.01546e-06 0)
(1.98671e-06 -9.84086e-07 0)
(2.07699e-06 -9.5279e-07 0)
(2.16692e-06 -9.21575e-07 0)
(2.25653e-06 -8.90377e-07 0)
(2.3459e-06 -8.59166e-07 0)
(2.4349e-06 -8.2792e-07 0)
(2.52366e-06 -7.96603e-07 0)
(2.61219e-06 -7.65389e-07 0)
(2.70072e-06 -7.34253e-07 0)
(9.65253e-07 -1.37394e-06 0)
(1.05368e-06 -1.34277e-06 0)
(1.14278e-06 -1.31108e-06 0)
(1.23239e-06 -1.279e-06 0)
(1.32243e-06 -1.24672e-06 0)
(1.41277e-06 -1.21436e-06 0)
(1.50329e-06 -1.18206e-06 0)
(1.59391e-06 -1.14992e-06 0)
(1.68454e-06 -1.11793e-06 0)
(1.77513e-06 -1.0861e-06 0)
(1.86557e-06 -1.05444e-06 0)
(1.95578e-06 -1.02291e-06 0)
(2.04579e-06 -9.91466e-07 0)
(2.13556e-06 -9.60098e-07 0)
(2.22505e-06 -9.28751e-07 0)
(2.31427e-06 -8.97436e-07 0)
(2.40316e-06 -8.66106e-07 0)
(2.49196e-06 -8.34814e-07 0)
(2.5805e-06 -8.03702e-07 0)
(2.66891e-06 -7.72809e-07 0)
(9.41787e-07 -1.41141e-06 0)
(1.02901e-06 -1.38062e-06 0)
(1.11706e-06 -1.3492e-06 0)
(1.20574e-06 -1.31737e-06 0)
(1.29495e-06 -1.28527e-06 0)
(1.38456e-06 -1.25306e-06 0)
(1.4745e-06 -1.22086e-06 0)
(1.56465e-06 -1.18875e-06 0)
(1.65487e-06 -1.15674e-06 0)
(1.74508e-06 -1.12485e-06 0)
(1.8352e-06 -1.09312e-06 0)
(1.92521e-06 -1.06149e-06 0)
(2.01507e-06 -1.02992e-06 0)
(2.10466e-06 -9.98462e-07 0)
(2.194e-06 -9.67003e-07 0)
(2.28319e-06 -9.35559e-07 0)
(2.37209e-06 -9.04189e-07 0)
(2.46081e-06 -8.72905e-07 0)
(2.54938e-06 -8.4183e-07 0)
(2.63778e-06 -8.11134e-07 0)
(9.16703e-07 -1.44807e-06 0)
(1.00289e-06 -1.41774e-06 0)
(1.09005e-06 -1.3867e-06 0)
(1.17798e-06 -1.35517e-06 0)
(1.26659e-06 -1.32331e-06 0)
(1.35575e-06 -1.29129e-06 0)
(1.44533e-06 -1.25923e-06 0)
(1.53514e-06 -1.22721e-06 0)
(1.62508e-06 -1.19523e-06 0)
(1.71513e-06 -1.16332e-06 0)
(1.80513e-06 -1.13156e-06 0)
(1.89497e-06 -1.09989e-06 0)
(1.98469e-06 -1.06824e-06 0)
(2.07422e-06 -1.03666e-06 0)
(2.16349e-06 -1.00515e-06 0)
(2.2526e-06 -9.73628e-07 0)
(2.34153e-06 -9.42222e-07 0)
(2.43025e-06 -9.10866e-07 0)
(2.51887e-06 -8.7979e-07 0)
(2.60725e-06 -8.49143e-07 0)
(6.37323e-08 -1.17534e-06 0)
(1.91914e-07 -1.15854e-06 0)
(3.22161e-07 -1.12549e-06 0)
(4.55664e-07 -1.07768e-06 0)
(5.93304e-07 -1.01683e-06 0)
(7.35622e-07 -9.45309e-07 0)
(8.82799e-07 -8.65711e-07 0)
(1.03455e-06 -7.80705e-07 0)
(1.19074e-06 -6.92932e-07 0)
(1.34973e-06 -6.04321e-07 0)
(6.22142e-08 -1.19746e-06 0)
(1.87251e-07 -1.18213e-06 0)
(3.13943e-07 -1.15191e-06 0)
(4.43286e-07 -1.10813e-06 0)
(5.75995e-07 -1.05222e-06 0)
(7.12482e-07 -9.86185e-07 0)
(8.52899e-07 -9.1223e-07 0)
(9.96846e-07 -8.32707e-07 0)
(1.14397e-06 -7.49988e-07 0)
(1.29258e-06 -6.66341e-07 0)
(6.07901e-08 -1.22015e-06 0)
(1.82878e-07 -1.20616e-06 0)
(3.06272e-07 -1.1785e-06 0)
(4.31734e-07 -1.13836e-06 0)
(5.59882e-07 -1.087e-06 0)
(6.91003e-07 -1.02611e-06 0)
(8.25256e-07 -9.5763e-07 0)
(9.62427e-07 -8.83542e-07 0)
(1.10221e-06 -8.05921e-07 0)
(1.24341e-06 -7.26675e-07 0)
(5.95009e-08 -1.24338e-06 0)
(1.78917e-07 -1.2305e-06 0)
(2.99432e-07 -1.20501e-06 0)
(4.21573e-07 -1.16798e-06 0)
(5.45894e-07 -1.1205e-06 0)
(6.72572e-07 -1.06406e-06 0)
(8.01715e-07 -1.0004e-06 0)
(9.33122e-07 -9.31303e-07 0)
(1.06645e-06 -8.58731e-07 0)
(1.20076e-06 -7.84343e-07 0)
(5.83266e-08 -1.26713e-06 0)
(1.75243e-07 -1.25526e-06 0)
(2.93095e-07 -1.23171e-06 0)
(4.12224e-07 -1.19748e-06 0)
(5.33106e-07 -1.15352e-06 0)
(6.55865e-07 -1.10118e-06 0)
(7.80585e-07 -1.04202e-06 0)
(9.07101e-07 -9.77544e-07 0)
(1.03508e-06 -9.09594e-07 0)
(1.1636e-06 -8.39679e-07 0)
(5.72174e-08 -1.29137e-06 0)
(1.71839e-07 -1.28036e-06 0)
(2.87231e-07 -1.25852e-06 0)
(4.0366e-07 -1.22674e-06 0)
(5.21499e-07 -1.1859e-06 0)
(6.40864e-07 -1.1372e-06 0)
(7.61734e-07 -1.08208e-06 0)
(8.83968e-07 -1.02187e-06 0)
(1.00733e-06 -9.58261e-07 0)
(1.13082e-06 -8.927e-07 0)
(5.61384e-08 -1.31606e-06 0)
(1.686e-07 -1.30582e-06 0)
(2.81677e-07 -1.28553e-06 0)
(3.95627e-07 -1.25595e-06 0)
(5.10695e-07 -1.21791e-06 0)
(6.27022e-07 -1.17251e-06 0)
(7.44551e-07 -1.12106e-06 0)
(8.63079e-07 -1.06475e-06 0)
(9.82475e-07 -1.00511e-06 0)
(1.10168e-06 -9.43571e-07 0)
(5.51278e-08 -1.34115e-06 0)
(1.65503e-07 -1.3316e-06 0)
(2.76385e-07 -1.31269e-06 0)
(3.8803e-07 -1.28507e-06 0)
(5.00582e-07 -1.24955e-06 0)
(6.14149e-07 -1.20712e-06 0)
(7.287e-07 -1.159e-06 0)
(8.43983e-07 -1.10626e-06 0)
(9.59935e-07 -1.05027e-06 0)
(1.07549e-06 -9.92461e-07 0)
(5.41609e-08 -1.36661e-06 0)
(1.62497e-07 -1.35768e-06 0)
(2.71285e-07 -1.34001e-06 0)
(3.80736e-07 -1.31416e-06 0)
(4.9095e-07 -1.28094e-06 0)
(6.02015e-07 -1.2412e-06 0)
(7.13876e-07 -1.19609e-06 0)
(8.26278e-07 -1.14662e-06 0)
(9.39209e-07 -1.09397e-06 0)
(1.05163e-06 -1.03957e-06 0)
(5.31832e-08 -1.39241e-06 0)
(1.59542e-07 -1.38402e-06 0)
(2.66315e-07 -1.36747e-06 0)
(3.7367e-07 -1.34324e-06 0)
(4.81663e-07 -1.3121e-06 0)
(5.90416e-07 -1.27479e-06 0)
(6.99818e-07 -1.23242e-06 0)
(8.09627e-07 -1.18592e-06 0)
(9.19871e-07 -1.13634e-06 0)
(1.02956e-06 -1.08506e-06 0)
(5.21878e-08 -1.41849e-06 0)
(1.56625e-07 -1.41059e-06 0)
(2.61413e-07 -1.39506e-06 0)
(3.66734e-07 -1.3723e-06 0)
(4.72599e-07 -1.34305e-06 0)
(5.7916e-07 -1.30797e-06 0)
(6.86289e-07 -1.26809e-06 0)
(7.93744e-07 -1.2243e-06 0)
(9.01566e-07 -1.17754e-06 0)
(1.00885e-06 -1.12909e-06 0)
(5.12019e-08 -1.44479e-06 0)
(1.53734e-07 -1.43735e-06 0)
(2.56532e-07 -1.42275e-06 0)
(3.59846e-07 -1.40134e-06 0)
(4.63656e-07 -1.3738e-06 0)
(5.68104e-07 -1.34076e-06 0)
(6.73094e-07 -1.30316e-06 0)
(7.78376e-07 -1.26185e-06 0)
(8.83987e-07 -1.21765e-06 0)
(9.89128e-07 -1.1718e-06 0)
(5.02265e-08 -1.47127e-06 0)
(1.50812e-07 -1.46426e-06 0)
(2.51603e-07 -1.45052e-06 0)
(3.52907e-07 -1.43034e-06 0)
(4.54706e-07 -1.40436e-06 0)
(5.57098e-07 -1.37319e-06 0)
(6.60038e-07 -1.33769e-06 0)
(7.63281e-07 -1.29864e-06 0)
(8.66859e-07 -1.25679e-06 0)
(9.70091e-07 -1.21332e-06 0)
(4.92273e-08 -1.49788e-06 0)
(1.47788e-07 -1.49127e-06 0)
(2.46547e-07 -1.47832e-06 0)
(3.45816e-07 -1.45926e-06 0)
(4.45609e-07 -1.43473e-06 0)
(5.4598e-07 -1.40528e-06 0)
(6.46929e-07 -1.3717e-06 0)
(7.48231e-07 -1.33473e-06 0)
(8.49925e-07 -1.29506e-06 0)
(9.51414e-07 -1.25379e-06 0)
(4.81702e-08 -1.52459e-06 0)
(1.44611e-07 -1.51834e-06 0)
(2.41293e-07 -1.5061e-06 0)
(3.38482e-07 -1.4881e-06 0)
(4.36233e-07 -1.46491e-06 0)
(5.34586e-07 -1.43706e-06 0)
(6.33565e-07 -1.40525e-06 0)
(7.33e-07 -1.37019e-06 0)
(8.32903e-07 -1.33256e-06 0)
(9.32757e-07 -1.29328e-06 0)
(4.70469e-08 -1.55128e-06 0)
(1.41269e-07 -1.54537e-06 0)
(2.35791e-07 -1.5338e-06 0)
(3.30816e-07 -1.51679e-06 0)
(4.26451e-07 -1.49483e-06 0)
(5.22749e-07 -1.46845e-06 0)
(6.19761e-07 -1.43829e-06 0)
(7.17369e-07 -1.40505e-06 0)
(8.15521e-07 -1.3693e-06 0)
(9.13822e-07 -1.33188e-06 0)
(4.58615e-08 -1.57792e-06 0)
(1.3774e-07 -1.57234e-06 0)
(2.29963e-07 -1.5614e-06 0)
(3.22704e-07 -1.54531e-06 0)
(4.16125e-07 -1.52453e-06 0)
(5.10301e-07 -1.49953e-06 0)
(6.0531e-07 -1.47094e-06 0)
(7.01051e-07 -1.4394e-06 0)
(7.97465e-07 -1.40539e-06 0)
(8.9422e-07 -1.36973e-06 0)
(4.46036e-08 -1.6043e-06 0)
(1.33969e-07 -1.59904e-06 0)
(2.23714e-07 -1.58869e-06 0)
(3.1402e-07 -1.57348e-06 0)
(4.05095e-07 -1.5538e-06 0)
(4.9705e-07 -1.53013e-06 0)
(5.89969e-07 -1.50303e-06 0)
(6.83757e-07 -1.4731e-06 0)
(7.78394e-07 -1.44076e-06 0)
(8.73611e-07 -1.40674e-06 0)
(4.32412e-08 -1.63052e-06 0)
(1.29866e-07 -1.62557e-06 0)
(2.16908e-07 -1.61579e-06 0)
(3.04592e-07 -1.60141e-06 0)
(3.93146e-07 -1.58282e-06 0)
(4.82724e-07 -1.56043e-06 0)
(5.73415e-07 -1.53477e-06 0)
(6.65158e-07 -1.50636e-06 0)
(7.57921e-07 -1.47566e-06 0)
(8.51568e-07 -1.44322e-06 0)
(4.17533e-08 -1.65602e-06 0)
(1.25396e-07 -1.65136e-06 0)
(2.09495e-07 -1.64215e-06 0)
(2.94339e-07 -1.62861e-06 0)
(3.8019e-07 -1.61106e-06 0)
(4.67214e-07 -1.58994e-06 0)
(5.55498e-07 -1.5657e-06 0)
(6.4507e-07 -1.53881e-06 0)
(7.35874e-07 -1.50971e-06 0)
(8.27921e-07 -1.47885e-06 0)
)


// ************************************************************************* //
