/*--------------------------------*- C++ -*----------------------------------*\
| =========                 |                                                 |
| \\      /  F ield         | foam-extend: Open Source CFD                    |
|  \\    /   O peration     | Version:     4.1                                |
|   \\  /    A nd           | Web:         http://www.foam-extend.org         |
|    \\/     M anipulation  |                                                 |
\*---------------------------------------------------------------------------*/
FoamFile
{
    version     2.0;
    format      ascii;
    class       vectorField;
    location    "3";
    object      solidsCellD_iteration5;
}
// * * * * * * * * * * * * * * * * * * * * * * * * * * * * * * * * * * * * * //


1000
(
(1.43841e-06 -5.40827e-07 0)
(1.36575e-06 -5.07525e-07 0)
(1.32079e-06 -4.88182e-07 0)
(1.29658e-06 -4.81375e-07 0)
(1.28677e-06 -4.81895e-07 0)
(1.28756e-06 -4.88026e-07 0)
(1.29616e-06 -4.97907e-07 0)
(1.31053e-06 -5.10716e-07 0)
(1.32933e-06 -5.25425e-07 0)
(1.34993e-06 -5.42011e-07 0)
(1.30197e-06 -5.90877e-07 0)
(1.22445e-06 -5.69479e-07 0)
(1.17621e-06 -5.57805e-07 0)
(1.14951e-06 -5.56283e-07 0)
(1.1376e-06 -5.60383e-07 0)
(1.13625e-06 -5.69112e-07 0)
(1.14265e-06 -5.80878e-07 0)
(1.15465e-06 -5.95062e-07 0)
(1.17086e-06 -6.10781e-07 0)
(1.18914e-06 -6.27982e-07 0)
(1.15968e-06 -6.38283e-07 0)
(1.08037e-06 -6.30158e-07 0)
(1.03092e-06 -6.26917e-07 0)
(1.00293e-06 -6.31103e-07 0)
(9.89699e-07 -6.38957e-07 0)
(9.86819e-07 -6.50285e-07 0)
(9.91465e-07 -6.63842e-07 0)
(1.00161e-06 -6.79187e-07 0)
(1.01576e-06 -6.95719e-07 0)
(1.03219e-06 -7.1326e-07 0)
(1.01278e-06 -6.82202e-07 0)
(9.35052e-07 -6.8794e-07 0)
(8.865e-07 -6.9347e-07 0)
(8.5857e-07 -7.03523e-07 0)
(8.44817e-07 -7.15218e-07 0)
(8.40978e-07 -7.29127e-07 0)
(8.44266e-07 -7.44393e-07 0)
(8.52778e-07 -7.60857e-07 0)
(8.65109e-07 -7.78208e-07 0)
(8.79686e-07 -7.96178e-07 0)
(8.62257e-07 -7.21746e-07 0)
(7.89455e-07 -7.4118e-07 0)
(7.43865e-07 -7.5541e-07 0)
(7.17389e-07 -7.71226e-07 0)
(7.04041e-07 -7.86627e-07 0)
(6.99752e-07 -8.03025e-07 0)
(7.02001e-07 -8.1994e-07 0)
(7.08991e-07 -8.375e-07 0)
(7.1954e-07 -8.55627e-07 0)
(7.3216e-07 -8.74107e-07 0)
(7.0886e-07 -7.56134e-07 0)
(6.44171e-07 -7.88353e-07 0)
(6.03652e-07 -8.10682e-07 0)
(5.79945e-07 -8.31873e-07 0)
(5.67779e-07 -8.50747e-07 0)
(5.63478e-07 -8.69472e-07 0)
(5.64967e-07 -8.87883e-07 0)
(5.70596e-07 -9.06476e-07 0)
(5.79342e-07 -9.2534e-07 0)
(5.89864e-07 -9.44365e-07 0)
(5.53349e-07 -7.84596e-07 0)
(4.99688e-07 -8.28012e-07 0)
(4.66056e-07 -8.57442e-07 0)
(4.46259e-07 -8.83326e-07 0)
(4.3596e-07 -9.05219e-07 0)
(4.32142e-07 -9.25976e-07 0)
(4.33096e-07 -9.45708e-07 0)
(4.37421e-07 -9.6523e-07 0)
(4.44292e-07 -9.84759e-07 0)
(4.52587e-07 -1.00432e-06 0)
(3.96297e-07 -8.0652e-07 0)
(3.5608e-07 -8.58925e-07 0)
(3.30878e-07 -8.94054e-07 0)
(3.1603e-07 -9.23675e-07 0)
(3.08215e-07 -9.48007e-07 0)
(3.05221e-07 -9.70387e-07 0)
(3.05777e-07 -9.912e-07 0)
(3.08834e-07 -1.01147e-06 0)
(3.13781e-07 -1.03153e-06 0)
(3.19752e-07 -1.05152e-06 0)
(2.38215e-07 -8.21411e-07 0)
(2.13335e-07 -8.8009e-07 0)
(1.97738e-07 -9.19195e-07 0)
(1.88478e-07 -9.51474e-07 0)
(1.83563e-07 -9.7751e-07 0)
(1.81672e-07 -1.00102e-06 0)
(1.81988e-07 -1.02259e-06 0)
(1.83806e-07 -1.04342e-06 0)
(1.8676e-07 -1.06389e-06 0)
(1.90353e-07 -1.08424e-06 0)
(7.95697e-08 -8.28917e-07 0)
(7.11138e-08 -8.90821e-07 0)
(6.57994e-08 -9.31995e-07 0)
(6.26754e-08 -9.65627e-07 0)
(6.10256e-08 -9.92521e-07 0)
(6.03492e-08 -1.01661e-06 0)
(6.04138e-08 -1.03856e-06 0)
(6.1019e-08 -1.05966e-06 0)
(6.20109e-08 -1.08032e-06 0)
(6.32008e-08 -1.10083e-06 0)
(2.2286e-06 -2.46363e-08 0)
(2.24735e-06 -1.7912e-08 0)
(2.26049e-06 -1.37348e-08 0)
(2.27544e-06 -1.13676e-08 0)
(2.29243e-06 -1.01623e-08 0)
(2.31306e-06 -9.73465e-09 0)
(2.33726e-06 -9.80693e-09 0)
(2.36505e-06 -1.02303e-08 0)
(2.39642e-06 -1.09253e-08 0)
(2.43094e-06 -1.17053e-08 0)
(2.21251e-06 -7.39178e-08 0)
(2.2282e-06 -5.41431e-08 0)
(2.23944e-06 -4.19019e-08 0)
(2.25309e-06 -3.50085e-08 0)
(2.26923e-06 -3.14914e-08 0)
(2.28921e-06 -3.02475e-08 0)
(2.31299e-06 -3.05515e-08 0)
(2.34045e-06 -3.18805e-08 0)
(2.37149e-06 -3.39297e-08 0)
(2.40572e-06 -3.62502e-08 0)
(2.18026e-06 -1.2362e-07 0)
(2.19014e-06 -9.19178e-08 0)
(2.19773e-06 -7.23145e-08 0)
(2.20897e-06 -6.12924e-08 0)
(2.22351e-06 -5.57483e-08 0)
(2.24238e-06 -5.38781e-08 0)
(2.2653e-06 -5.44656e-08 0)
(2.29206e-06 -5.66986e-08 0)
(2.32249e-06 -6.01018e-08 0)
(2.35614e-06 -6.39818e-08 0)
(2.13244e-06 -1.73954e-07 0)
(2.13411e-06 -1.32087e-07 0)
(2.13645e-06 -1.06273e-07 0)
(2.14427e-06 -9.18447e-08 0)
(2.15649e-06 -8.46553e-08 0)
(2.1737e-06 -8.2359e-08 0)
(2.19542e-06 -8.33373e-08 0)
(2.22125e-06 -8.65417e-08 0)
(2.25086e-06 -9.13179e-08 0)
(2.28373e-06 -9.67426e-08 0)
(2.0697e-06 -2.25081e-07 0)
(2.06125e-06 -1.75408e-07 0)
(2.05712e-06 -1.44843e-07 0)
(2.06063e-06 -1.27935e-07 0)
(2.07001e-06 -1.19646e-07 0)
(2.08522e-06 -1.17246e-07 0)
(2.10543e-06 -1.18799e-07 0)
(2.13008e-06 -1.23033e-07 0)
(2.15865e-06 -1.29149e-07 0)
(2.19059e-06 -1.36071e-07 0)
(1.99296e-06 -2.77026e-07 0)
(1.97301e-06 -2.22358e-07 0)
(1.96158e-06 -1.88775e-07 0)
(1.96024e-06 -1.70494e-07 0)
(1.9664e-06 -1.61795e-07 0)
(1.97933e-06 -1.59682e-07 0)
(1.99785e-06 -1.61975e-07 0)
(2.02115e-06 -1.67272e-07 0)
(2.04855e-06 -1.74685e-07 0)
(2.07951e-06 -1.83061e-07 0)
(1.90327e-06 -3.29688e-07 0)
(1.87116e-06 -2.73134e-07 0)
(1.85202e-06 -2.38493e-07 0)
(1.84557e-06 -2.20071e-07 0)
(1.84829e-06 -2.117e-07 0)
(1.85878e-06 -2.10291e-07 0)
(1.87549e-06 -2.13515e-07 0)
(1.89732e-06 -2.19934e-07 0)
(1.92346e-06 -2.28635e-07 0)
(1.95344e-06 -2.38406e-07 0)
(1.80174e-06 -3.82835e-07 0)
(1.75755e-06 -3.2764e-07 0)
(1.73074e-06 -2.93984e-07 0)
(1.71916e-06 -2.76679e-07 0)
(1.71843e-06 -2.6941e-07 0)
(1.72645e-06 -2.6916e-07 0)
(1.7413e-06 -2.73545e-07 0)
(1.76166e-06 -2.81179e-07 0)
(1.78651e-06 -2.91143e-07 0)
(1.81551e-06 -3.02236e-07 0)
(1.68959e-06 -4.36098e-07 0)
(1.63415e-06 -3.85433e-07 0)
(1.60025e-06 -3.54774e-07 0)
(1.58384e-06 -3.39848e-07 0)
(1.57982e-06 -3.34462e-07 0)
(1.58537e-06 -3.35854e-07 0)
(1.5983e-06 -3.41685e-07 0)
(1.61709e-06 -3.50629e-07 0)
(1.64047e-06 -3.61856e-07 0)
(1.66832e-06 -3.74073e-07 0)
(1.5681e-06 -4.88954e-07 0)
(1.50293e-06 -4.45725e-07 0)
(1.46285e-06 -4.19934e-07 0)
(1.44217e-06 -4.08592e-07 0)
(1.43511e-06 -4.05843e-07 0)
(1.43829e-06 -4.09382e-07 0)
(1.44932e-06 -4.17044e-07 0)
(1.46652e-06 -4.2769e-07 0)
(1.48858e-06 -4.40485e-07 0)
(1.51476e-06 -4.5449e-07 0)
(2.4685e-06 -1.24431e-08 0)
(2.50933e-06 -1.27394e-08 0)
(2.55262e-06 -1.30196e-08 0)
(2.59822e-06 -1.32392e-08 0)
(2.64584e-06 -1.33909e-08 0)
(2.69535e-06 -1.34764e-08 0)
(2.74658e-06 -1.34955e-08 0)
(2.7993e-06 -1.34638e-08 0)
(2.85334e-06 -1.33722e-08 0)
(2.9086e-06 -1.31978e-08 0)
(2.96493e-06 -1.2927e-08 0)
(3.02217e-06 -1.25621e-08 0)
(3.08018e-06 -1.21088e-08 0)
(3.13883e-06 -1.15656e-08 0)
(3.198e-06 -1.09168e-08 0)
(3.2575e-06 -1.01416e-08 0)
(3.31724e-06 -9.21916e-09 0)
(3.37694e-06 -8.1291e-09 0)
(3.43661e-06 -6.84979e-09 0)
(3.49556e-06 -5.38137e-09 0)
(2.44437e-06 -3.83773e-08 0)
(2.48717e-06 -3.91327e-08 0)
(2.53224e-06 -3.98356e-08 0)
(2.57939e-06 -4.03783e-08 0)
(2.62845e-06 -4.07374e-08 0)
(2.67923e-06 -4.09319e-08 0)
(2.73158e-06 -4.09487e-08 0)
(2.78533e-06 -4.07947e-08 0)
(2.84034e-06 -4.04332e-08 0)
(2.89649e-06 -3.98365e-08 0)
(2.95363e-06 -3.89949e-08 0)
(3.01163e-06 -3.79067e-08 0)
(3.07037e-06 -3.65569e-08 0)
(3.12971e-06 -3.49162e-08 0)
(3.18952e-06 -3.29419e-08 0)
(3.24961e-06 -3.05936e-08 0)
(3.30993e-06 -2.78203e-08 0)
(3.37016e-06 -2.45674e-08 0)
(3.43038e-06 -2.07635e-08 0)
(3.4899e-06 -1.63842e-08 0)
(2.39688e-06 -6.71772e-08 0)
(2.44358e-06 -6.79468e-08 0)
(2.49219e-06 -6.86672e-08 0)
(2.5424e-06 -6.92373e-08 0)
(2.59419e-06 -6.95757e-08 0)
(2.64745e-06 -6.9706e-08 0)
(2.70209e-06 -6.95746e-08 0)
(2.75791e-06 -6.91717e-08 0)
(2.8148e-06 -6.84344e-08 0)
(2.87267e-06 -6.73402e-08 0)
(2.93142e-06 -6.58786e-08 0)
(2.99094e-06 -6.40302e-08 0)
(3.05111e-06 -6.17473e-08 0)
(3.11178e-06 -5.89721e-08 0)
(3.17285e-06 -5.5643e-08 0)
(3.23417e-06 -5.17008e-08 0)
(3.29566e-06 -4.70628e-08 0)
(3.35703e-06 -4.16518e-08 0)
(3.41834e-06 -3.53505e-08 0)
(3.47893e-06 -2.80973e-08 0)
(2.3275e-06 -1.00455e-07 0)
(2.37974e-06 -1.00533e-07 0)
(2.43343e-06 -1.00652e-07 0)
(2.4881e-06 -1.008e-07 0)
(2.54397e-06 -1.00758e-07 0)
(2.60086e-06 -1.00539e-07 0)
(2.65877e-06 -1.00018e-07 0)
(2.71759e-06 -9.9168e-08 0)
(2.77726e-06 -9.79053e-08 0)
(2.83772e-06 -9.62085e-08 0)
(2.89888e-06 -9.40432e-08 0)
(2.96062e-06 -9.13532e-08 0)
(3.02286e-06 -8.80608e-08 0)
(3.08547e-06 -8.40971e-08 0)
(3.14838e-06 -7.93928e-08 0)
(3.21149e-06 -7.38497e-08 0)
(3.27468e-06 -6.73504e-08 0)
(3.33773e-06 -5.97895e-08 0)
(3.40066e-06 -5.09962e-08 0)
(3.46282e-06 -4.08976e-08 0)
(2.23814e-06 -1.39621e-07 0)
(2.29743e-06 -1.38138e-07 0)
(2.35764e-06 -1.36892e-07 0)
(2.41801e-06 -1.36043e-07 0)
(2.47905e-06 -1.35123e-07 0)
(2.54058e-06 -1.34145e-07 0)
(2.60277e-06 -1.32912e-07 0)
(2.66548e-06 -1.31372e-07 0)
(2.72875e-06 -1.29401e-07 0)
(2.79253e-06 -1.26944e-07 0)
(2.85675e-06 -1.23934e-07 0)
(2.92136e-06 -1.20284e-07 0)
(2.98628e-06 -1.15899e-07 0)
(3.05144e-06 -1.10693e-07 0)
(3.11679e-06 -1.04573e-07 0)
(3.18217e-06 -9.74063e-08 0)
(3.2476e-06 -8.90437e-08 0)
(3.31274e-06 -7.93481e-08 0)
(3.37778e-06 -6.80919e-08 0)
(3.44199e-06 -5.51855e-08 0)
(2.1314e-06 -1.85702e-07 0)
(2.1988e-06 -1.81656e-07 0)
(2.26665e-06 -1.7812e-07 0)
(2.33375e-06 -1.75552e-07 0)
(2.401e-06 -1.73177e-07 0)
(2.46813e-06 -1.70989e-07 0)
(2.53544e-06 -1.68683e-07 0)
(2.60283e-06 -1.66138e-07 0)
(2.6704e-06 -1.63198e-07 0)
(2.73813e-06 -1.59776e-07 0)
(2.80605e-06 -1.55765e-07 0)
(2.87412e-06 -1.51044e-07 0)
(2.94228e-06 -1.45489e-07 0)
(3.01049e-06 -1.38991e-07 0)
(3.07874e-06 -1.31416e-07 0)
(3.14688e-06 -1.22602e-07 0)
(3.21496e-06 -1.12378e-07 0)
(3.28266e-06 -1.00573e-07 0)
(3.35022e-06 -8.69025e-08 0)
(3.41693e-06 -7.12323e-08 0)
(2.0101e-06 -2.39373e-07 0)
(2.08644e-06 -2.31704e-07 0)
(2.16285e-06 -2.24947e-07 0)
(2.23753e-06 -2.19898e-07 0)
(2.31175e-06 -2.1545e-07 0)
(2.38523e-06 -2.11526e-07 0)
(2.45829e-06 -2.07716e-07 0)
(2.53098e-06 -2.03822e-07 0)
(2.60345e-06 -1.99644e-07 0)
(2.67574e-06 -1.9504e-07 0)
(2.74789e-06 -1.89855e-07 0)
(2.81989e-06 -1.83925e-07 0)
(2.89175e-06 -1.77089e-07 0)
(2.96345e-06 -1.69216e-07 0)
(3.035e-06 -1.60131e-07 0)
(3.10629e-06 -1.49651e-07 0)
(3.17744e-06 -1.37576e-07 0)
(3.24811e-06 -1.23686e-07 0)
(3.31857e-06 -1.07628e-07 0)
(3.38813e-06 -8.92285e-08 0)
(1.87709e-06 -3.00789e-07 0)
(1.96285e-06 -2.88344e-07 0)
(2.04836e-06 -2.77446e-07 0)
(2.13129e-06 -2.69055e-07 0)
(2.2131e-06 -2.61852e-07 0)
(2.29354e-06 -2.55605e-07 0)
(2.37299e-06 -2.49827e-07 0)
(2.45156e-06 -2.44222e-07 0)
(2.52944e-06 -2.38525e-07 0)
(2.60675e-06 -2.32518e-07 0)
(2.68355e-06 -2.25987e-07 0)
(2.75987e-06 -2.18718e-07 0)
(2.83577e-06 -2.10522e-07 0)
(2.91131e-06 -2.01231e-07 0)
(2.9865e-06 -1.90633e-07 0)
(3.06131e-06 -1.78515e-07 0)
(3.13583e-06 -1.64625e-07 0)
(3.20977e-06 -1.4869e-07 0)
(3.28342e-06 -1.30286e-07 0)
(3.35614e-06 -1.09205e-07 0)
(1.73521e-06 -3.69908e-07 0)
(1.83086e-06 -3.51616e-07 0)
(1.9258e-06 -3.35924e-07 0)
(2.01745e-06 -3.23407e-07 0)
(2.10726e-06 -3.12867e-07 0)
(2.19507e-06 -3.0376e-07 0)
(2.28129e-06 -2.95556e-07 0)
(2.36611e-06 -2.87846e-07 0)
(2.44975e-06 -2.80292e-07 0)
(2.53237e-06 -2.72594e-07 0)
(2.6141e-06 -2.64481e-07 0)
(2.69504e-06 -2.55697e-07 0)
(2.77528e-06 -2.46019e-07 0)
(2.85493e-06 -2.35234e-07 0)
(2.93403e-06 -2.23082e-07 0)
(3.01259e-06 -2.09314e-07 0)
(3.09072e-06 -1.93613e-07 0)
(3.16817e-06 -1.75652e-07 0)
(3.24524e-06 -1.54943e-07 0)
(3.32139e-06 -1.31253e-07 0)
(1.58726e-06 -4.46059e-07 0)
(1.69384e-06 -4.20125e-07 0)
(1.79839e-06 -3.98988e-07 0)
(1.89924e-06 -3.81602e-07 0)
(1.99731e-06 -3.67064e-07 0)
(2.09277e-06 -3.54555e-07 0)
(2.18598e-06 -3.43487e-07 0)
(2.27724e-06 -3.3334e-07 0)
(2.3668e-06 -3.23677e-07 0)
(2.4549e-06 -3.14117e-07 0)
(2.54171e-06 -3.04318e-07 0)
(2.62738e-06 -2.9397e-07 0)
(2.71207e-06 -2.82798e-07 0)
(2.79594e-06 -2.7054e-07 0)
(2.87901e-06 -2.56884e-07 0)
(2.96138e-06 -2.41538e-07 0)
(3.04316e-06 -2.24122e-07 0)
(3.12418e-06 -2.04253e-07 0)
(3.20475e-06 -1.81379e-07 0)
(3.28449e-06 -1.55224e-07 0)
(1.47281e-06 -5.23131e-07 0)
(1.58911e-06 -4.89364e-07 0)
(1.7007e-06 -4.63409e-07 0)
(1.80808e-06 -4.41628e-07 0)
(1.91184e-06 -4.2324e-07 0)
(2.0125e-06 -4.07323e-07 0)
(2.11048e-06 -3.93218e-07 0)
(2.20612e-06 -3.80354e-07 0)
(2.29974e-06 -3.68241e-07 0)
(2.39159e-06 -3.56451e-07 0)
(2.48187e-06 -3.44608e-07 0)
(2.57075e-06 -3.32366e-07 0)
(2.65842e-06 -3.19416e-07 0)
(2.74506e-06 -3.05454e-07 0)
(2.8307e-06 -2.9014e-07 0)
(2.91551e-06 -2.73145e-07 0)
(2.99956e-06 -2.5406e-07 0)
(3.08281e-06 -2.32477e-07 0)
(3.16554e-06 -2.07831e-07 0)
(3.24753e-06 -1.79801e-07 0)
(1.4095e-06 -5.87741e-07 0)
(1.52654e-06 -5.52263e-07 0)
(1.63936e-06 -5.23189e-07 0)
(1.74867e-06 -4.98325e-07 0)
(1.85457e-06 -4.76943e-07 0)
(1.95743e-06 -4.58204e-07 0)
(2.05756e-06 -4.41437e-07 0)
(2.15526e-06 -4.26073e-07 0)
(2.25081e-06 -4.11614e-07 0)
(2.34443e-06 -3.97628e-07 0)
(2.43633e-06 -3.83727e-07 0)
(2.52669e-06 -3.69554e-07 0)
(2.61571e-06 -3.54788e-07 0)
(2.70356e-06 -3.39106e-07 0)
(2.79026e-06 -3.22163e-07 0)
(2.87604e-06 -3.0362e-07 0)
(2.96093e-06 -2.83069e-07 0)
(3.04501e-06 -2.60118e-07 0)
(3.12851e-06 -2.34222e-07 0)
(3.21132e-06 -2.0502e-07 0)
(1.35748e-06 -6.48565e-07 0)
(1.47305e-06 -6.12686e-07 0)
(1.58569e-06 -5.81962e-07 0)
(1.69542e-06 -5.54939e-07 0)
(1.80224e-06 -5.31152e-07 0)
(1.90625e-06 -5.09947e-07 0)
(2.00769e-06 -4.90736e-07 0)
(2.10673e-06 -4.73001e-07 0)
(2.20361e-06 -4.5627e-07 0)
(2.29851e-06 -4.40123e-07 0)
(2.39163e-06 -4.24173e-07 0)
(2.48312e-06 -4.08063e-07 0)
(2.57319e-06 -3.91469e-07 0)
(2.66199e-06 -3.74059e-07 0)
(2.74955e-06 -3.55491e-07 0)
(2.83613e-06 -3.35428e-07 0)
(2.92173e-06 -3.13476e-07 0)
(3.00654e-06 -2.89262e-07 0)
(3.09071e-06 -2.62257e-07 0)
(3.17425e-06 -2.3207e-07 0)
(1.31239e-06 -7.06903e-07 0)
(1.42612e-06 -6.71004e-07 0)
(1.53777e-06 -6.3922e-07 0)
(1.64707e-06 -6.10576e-07 0)
(1.75394e-06 -5.84828e-07 0)
(1.85835e-06 -5.61493e-07 0)
(1.96042e-06 -5.401e-07 0)
(2.06023e-06 -5.20192e-07 0)
(2.15793e-06 -5.01336e-07 0)
(2.25371e-06 -4.8314e-07 0)
(2.3477e-06 -4.65229e-07 0)
(2.44003e-06 -4.47256e-07 0)
(2.53091e-06 -4.28903e-07 0)
(2.62046e-06 -4.09839e-07 0)
(2.70874e-06 -3.89729e-07 0)
(2.79599e-06 -3.68245e-07 0)
(2.88223e-06 -3.45017e-07 0)
(2.96768e-06 -3.19687e-07 0)
(3.05246e-06 -2.91735e-07 0)
(3.13669e-06 -2.60803e-07 0)
(1.27304e-06 -7.62732e-07 0)
(1.38469e-06 -7.27081e-07 0)
(1.49485e-06 -6.94732e-07 0)
(1.60316e-06 -6.64964e-07 0)
(1.70948e-06 -6.37696e-07 0)
(1.81369e-06 -6.12604e-07 0)
(1.91584e-06 -5.89325e-07 0)
(2.01591e-06 -5.67477e-07 0)
(2.11401e-06 -5.46677e-07 0)
(2.21028e-06 -5.26573e-07 0)
(2.30482e-06 -5.06815e-07 0)
(2.39772e-06 -4.87076e-07 0)
(2.48919e-06 -4.67053e-07 0)
(2.57932e-06 -4.46422e-07 0)
(2.66816e-06 -4.24861e-07 0)
(2.75598e-06 -4.02057e-07 0)
(2.84277e-06 -3.77661e-07 0)
(2.92878e-06 -3.51331e-07 0)
(3.01411e-06 -3.22573e-07 0)
(3.09896e-06 -2.91139e-07 0)
(1.23822e-06 -8.16257e-07 0)
(1.34769e-06 -7.81022e-07 0)
(1.45615e-06 -7.48398e-07 0)
(1.5631e-06 -7.17857e-07 0)
(1.66847e-06 -6.89423e-07 0)
(1.77206e-06 -6.62899e-07 0)
(1.87386e-06 -6.38019e-07 0)
(1.97379e-06 -6.14472e-07 0)
(2.07194e-06 -5.91934e-07 0)
(2.16838e-06 -5.70098e-07 0)
(2.26319e-06 -5.48645e-07 0)
(2.35642e-06 -5.27274e-07 0)
(2.44828e-06 -5.05704e-07 0)
(2.53881e-06 -4.83623e-07 0)
(2.62809e-06 -4.60727e-07 0)
(2.71635e-06 -4.36718e-07 0)
(2.8036e-06 -4.1127e-07 0)
(2.89008e-06 -3.84063e-07 0)
(2.9759e-06 -3.54672e-07 0)
(3.06133e-06 -3.22956e-07 0)
(1.20714e-06 -8.67649e-07 0)
(1.3144e-06 -8.3292e-07 0)
(1.42102e-06 -8.00225e-07 0)
(1.5264e-06 -7.69186e-07 0)
(1.63054e-06 -7.39893e-07 0)
(1.73321e-06 -7.12231e-07 0)
(1.83435e-06 -6.86019e-07 0)
(1.93384e-06 -6.61015e-07 0)
(2.03173e-06 -6.36952e-07 0)
(2.12808e-06 -6.13573e-07 0)
(2.22292e-06 -5.90591e-07 0)
(2.31627e-06 -5.67737e-07 0)
(2.40833e-06 -5.44753e-07 0)
(2.49911e-06 -5.21344e-07 0)
(2.5887e-06 -4.97224e-07 0)
(2.67729e-06 -4.72119e-07 0)
(2.7649e-06 -4.4573e-07 0)
(2.85178e-06 -4.17775e-07 0)
(2.93805e-06 -3.87929e-07 0)
(3.02397e-06 -3.56054e-07 0)
(1.17913e-06 -9.17057e-07 0)
(1.28422e-06 -8.82884e-07 0)
(1.38892e-06 -8.50269e-07 0)
(1.49262e-06 -8.1894e-07 0)
(1.59536e-06 -7.89028e-07 0)
(1.69689e-06 -7.60472e-07 0)
(1.79713e-06 -7.33163e-07 0)
(1.89595e-06 -7.06925e-07 0)
(1.99336e-06 -6.81542e-07 0)
(2.0894e-06 -6.56808e-07 0)
(2.18406e-06 -6.3247e-07 0)
(2.27735e-06 -6.08289e-07 0)
(2.36946e-06 -5.84028e-07 0)
(2.46034e-06 -5.59415e-07 0)
(2.55012e-06 -5.34189e-07 0)
(2.63894e-06 -5.08101e-07 0)
(2.72682e-06 -4.80894e-07 0)
(2.81405e-06 -4.52335e-07 0)
(2.90069e-06 -4.22175e-07 0)
(2.98702e-06 -3.90199e-07 0)
(1.15358e-06 -9.64642e-07 0)
(1.25655e-06 -9.31052e-07 0)
(1.35932e-06 -8.98623e-07 0)
(1.4613e-06 -8.67155e-07 0)
(1.56254e-06 -8.36804e-07 0)
(1.6628e-06 -8.07551e-07 0)
(1.76199e-06 -7.79349e-07 0)
(1.85997e-06 -7.52076e-07 0)
(1.95673e-06 -7.25565e-07 0)
(2.05228e-06 -6.9966e-07 0)
(2.1466e-06 -6.74137e-07 0)
(2.23969e-06 -6.48787e-07 0)
(2.33169e-06 -6.23392e-07 0)
(2.42256e-06 -5.97705e-07 0)
(2.51241e-06 -5.71496e-07 0)
(2.60137e-06 -5.44551e-07 0)
(2.68947e-06 -5.16661e-07 0)
(2.77698e-06 -4.87635e-07 0)
(2.86392e-06 -4.57234e-07 0)
(2.95059e-06 -4.25253e-07 0)
(1.12997e-06 -1.01057e-06 0)
(1.2309e-06 -9.77575e-07 0)
(1.33177e-06 -9.45388e-07 0)
(1.43202e-06 -9.13878e-07 0)
(1.53172e-06 -8.83217e-07 0)
(1.63063e-06 -8.53424e-07 0)
(1.72868e-06 -8.24505e-07 0)
(1.82571e-06 -7.96383e-07 0)
(1.92169e-06 -7.68932e-07 0)
(2.01664e-06 -7.42033e-07 0)
(2.11049e-06 -7.15493e-07 0)
(2.20325e-06 -6.8913e-07 0)
(2.29504e-06 -6.62745e-07 0)
(2.3858e-06 -6.3612e-07 0)
(2.47563e-06 -6.09061e-07 0)
(2.56467e-06 -5.81394e-07 0)
(2.65292e-06 -5.5295e-07 0)
(2.74063e-06 -5.23552e-07 0)
(2.82781e-06 -4.92954e-07 0)
(2.91476e-06 -4.61108e-07 0)
(1.10786e-06 -1.05499e-06 0)
(1.20682e-06 -1.02259e-06 0)
(1.30583e-06 -9.90669e-07 0)
(1.40438e-06 -9.59177e-07 0)
(1.50253e-06 -9.28312e-07 0)
(1.60008e-06 -8.9812e-07 0)
(1.69694e-06 -8.68645e-07 0)
(1.79296e-06 -8.39844e-07 0)
(1.88809e-06 -8.11626e-07 0)
(1.98235e-06 -7.83895e-07 0)
(2.07565e-06 -7.56488e-07 0)
(2.16799e-06 -7.29251e-07 0)
(2.25948e-06 -7.02008e-07 0)
(2.35006e-06 -6.74575e-07 0)
(2.43981e-06 -6.46797e-07 0)
(2.52886e-06 -6.18532e-07 0)
(2.6172e-06 -5.89629e-07 0)
(2.70505e-06 -5.59916e-07 0)
(2.79241e-06 -5.29209e-07 0)
(2.87959e-06 -4.97565e-07 0)
(1.08685e-06 -1.09807e-06 0)
(1.18392e-06 -1.06621e-06 0)
(1.28113e-06 -1.03456e-06 0)
(1.37803e-06 -1.00314e-06 0)
(1.47466e-06 -9.72165e-07 0)
(1.57086e-06 -9.41696e-07 0)
(1.66652e-06 -9.11801e-07 0)
(1.76149e-06 -8.8246e-07 0)
(1.85574e-06 -8.53621e-07 0)
(1.94926e-06 -8.25191e-07 0)
(2.04196e-06 -7.97046e-07 0)
(2.13382e-06 -7.69061e-07 0)
(2.22496e-06 -7.41088e-07 0)
(2.3153e-06 -7.12982e-07 0)
(2.40492e-06 -6.84615e-07 0)
(2.49395e-06 -6.55861e-07 0)
(2.58231e-06 -6.26574e-07 0)
(2.67024e-06 -5.96607e-07 0)
(2.75774e-06 -5.65916e-07 0)
(2.84509e-06 -5.34453e-07 0)
(1.0666e-06 -1.1399e-06 0)
(1.16186e-06 -1.10853e-06 0)
(1.25735e-06 -1.07717e-06 0)
(1.35265e-06 -1.04587e-06 0)
(1.44782e-06 -1.01485e-06 0)
(1.54269e-06 -9.84197e-07 0)
(1.63717e-06 -9.53989e-07 0)
(1.7311e-06 -9.24218e-07 0)
(1.82446e-06 -8.94882e-07 0)
(1.91722e-06 -8.65885e-07 0)
(2.00928e-06 -8.37139e-07 0)
(2.10065e-06 -8.08545e-07 0)
(2.19141e-06 -7.79982e-07 0)
(2.28149e-06 -7.51333e-07 0)
(2.37095e-06 -7.22487e-07 0)
(2.45989e-06 -6.93325e-07 0)
(2.54823e-06 -6.6372e-07 0)
(2.63621e-06 -6.33594e-07 0)
(2.7238e-06 -6.0297e-07 0)
(2.81127e-06 -5.71712e-07 0)
(1.04679e-06 -1.18058e-06 0)
(1.14033e-06 -1.14967e-06 0)
(1.23418e-06 -1.1186e-06 0)
(1.32796e-06 -1.08745e-06 0)
(1.42171e-06 -1.05645e-06 0)
(1.5153e-06 -1.02567e-06 0)
(1.60864e-06 -9.95254e-07 0)
(1.70157e-06 -9.65174e-07 0)
(1.79405e-06 -9.35457e-07 0)
(1.88606e-06 -9.06018e-07 0)
(1.97749e-06 -8.76789e-07 0)
(2.06836e-06 -8.47701e-07 0)
(2.15874e-06 -8.18661e-07 0)
(2.24855e-06 -7.89569e-07 0)
(2.33782e-06 -7.60324e-07 0)
(2.42663e-06 -7.30818e-07 0)
(2.51492e-06 -7.00974e-07 0)
(2.60292e-06 -6.70789e-07 0)
(2.69058e-06 -6.40192e-07 0)
(2.77813e-06 -6.09192e-07 0)
(1.0271e-06 -1.22024e-06 0)
(1.11903e-06 -1.18977e-06 0)
(1.21132e-06 -1.15897e-06 0)
(1.30364e-06 -1.12799e-06 0)
(1.39606e-06 -1.09704e-06 0)
(1.48845e-06 -1.06623e-06 0)
(1.58071e-06 -1.03568e-06 0)
(1.67268e-06 -1.00538e-06 0)
(1.76432e-06 -9.75354e-07 0)
(1.85561e-06 -9.45563e-07 0)
(1.94645e-06 -9.15971e-07 0)
(2.03685e-06 -8.86515e-07 0)
(2.12686e-06 -8.57109e-07 0)
(2.21638e-06 -8.27665e-07 0)
(2.30544e-06 -7.98094e-07 0)
(2.39411e-06 -7.68325e-07 0)
(2.48235e-06 -7.38334e-07 0)
(2.57036e-06 -7.08118e-07 0)
(2.65805e-06 -6.77557e-07 0)
(2.74563e-06 -6.46777e-07 0)
(1.00722e-06 -1.259e-06 0)
(1.09762e-06 -1.22893e-06 0)
(1.18842e-06 -1.19836e-06 0)
(1.27941e-06 -1.16756e-06 0)
(1.3706e-06 -1.13671e-06 0)
(1.46188e-06 -1.10594e-06 0)
(1.55314e-06 -1.0753e-06 0)
(1.64421e-06 -1.04487e-06 0)
(1.73507e-06 -1.01464e-06 0)
(1.82571e-06 -9.84601e-07 0)
(1.91602e-06 -9.54743e-07 0)
(2.00599e-06 -9.25007e-07 0)
(2.09565e-06 -8.95311e-07 0)
(2.18487e-06 -8.65582e-07 0)
(2.27371e-06 -8.35761e-07 0)
(2.36227e-06 -8.0582e-07 0)
(2.45047e-06 -7.75746e-07 0)
(2.53844e-06 -7.45448e-07 0)
(2.62611e-06 -7.14974e-07 0)
(2.71368e-06 -6.84392e-07 0)
(9.86846e-07 -1.29693e-06 0)
(1.07574e-06 -1.26715e-06 0)
(1.16514e-06 -1.23688e-06 0)
(1.25497e-06 -1.20632e-06 0)
(1.34505e-06 -1.1756e-06 0)
(1.43534e-06 -1.14487e-06 0)
(1.52568e-06 -1.11422e-06 0)
(1.61596e-06 -1.08371e-06 0)
(1.70615e-06 -1.05336e-06 0)
(1.79623e-06 -1.02318e-06 0)
(1.88608e-06 -9.93136e-07 0)
(1.97564e-06 -9.63184e-07 0)
(2.06495e-06 -9.33261e-07 0)
(2.15391e-06 -9.0333e-07 0)
(2.2426e-06 -8.73357e-07 0)
(2.33108e-06 -8.43297e-07 0)
(2.41918e-06 -8.13109e-07 0)
(2.50705e-06 -7.82745e-07 0)
(2.59469e-06 -7.52386e-07 0)
(2.68238e-06 -7.21987e-07 0)
(9.65482e-07 -1.33399e-06 0)
(1.0531e-06 -1.30457e-06 0)
(1.14137e-06 -1.27465e-06 0)
(1.23008e-06 -1.2443e-06 0)
(1.31918e-06 -1.21376e-06 0)
(1.40857e-06 -1.18312e-06 0)
(1.49814e-06 -1.1525e-06 0)
(1.58777e-06 -1.12199e-06 0)
(1.67742e-06 -1.0916e-06 0)
(1.76704e-06 -1.06133e-06 0)
(1.85646e-06 -1.03116e-06 0)
(1.94564e-06 -1.00106e-06 0)
(2.03469e-06 -9.71014e-07 0)
(2.12351e-06 -9.40952e-07 0)
(2.21206e-06 -9.10843e-07 0)
(2.30032e-06 -8.80675e-07 0)
(2.38829e-06 -8.50391e-07 0)
(2.47623e-06 -8.20052e-07 0)
(2.56387e-06 -7.89739e-07 0)
(2.65138e-06 -7.59486e-07 0)
(9.42841e-07 -1.37056e-06 0)
(1.02931e-06 -1.34152e-06 0)
(1.11655e-06 -1.31183e-06 0)
(1.20433e-06 -1.28172e-06 0)
(1.2926e-06 -1.25134e-06 0)
(1.38129e-06 -1.22085e-06 0)
(1.47031e-06 -1.19034e-06 0)
(1.55949e-06 -1.15986e-06 0)
(1.64871e-06 -1.12945e-06 0)
(1.73791e-06 -1.09913e-06 0)
(1.82701e-06 -1.0689e-06 0)
(1.91603e-06 -1.03873e-06 0)
(2.00491e-06 -1.00857e-06 0)
(2.09346e-06 -9.78414e-07 0)
(2.18182e-06 -9.48209e-07 0)
(2.27008e-06 -9.17937e-07 0)
(2.35801e-06 -8.87592e-07 0)
(2.44582e-06 -8.57259e-07 0)
(2.53348e-06 -8.26951e-07 0)
(2.62096e-06 -7.96811e-07 0)
(9.18625e-07 -1.40635e-06 0)
(1.00409e-06 -1.37773e-06 0)
(1.09043e-06 -1.3484e-06 0)
(1.17747e-06 -1.31857e-06 0)
(1.26517e-06 -1.28845e-06 0)
(1.35345e-06 -1.25815e-06 0)
(1.44209e-06 -1.22776e-06 0)
(1.53088e-06 -1.19736e-06 0)
(1.61981e-06 -1.16699e-06 0)
(1.70888e-06 -1.13667e-06 0)
(1.79786e-06 -1.10642e-06 0)
(1.88663e-06 -1.07621e-06 0)
(1.97534e-06 -1.04597e-06 0)
(2.06384e-06 -1.01572e-06 0)
(2.15207e-06 -9.85464e-07 0)
(2.24019e-06 -9.55116e-07 0)
(2.3281e-06 -9.24759e-07 0)
(2.41585e-06 -8.94342e-07 0)
(2.50353e-06 -8.64013e-07 0)
(2.59091e-06 -8.33876e-07 0)
(6.32484e-08 -1.12161e-06 0)
(1.90406e-07 -1.10585e-06 0)
(3.19483e-07 -1.07468e-06 0)
(4.51526e-07 -1.02969e-06 0)
(5.87369e-07 -9.72388e-07 0)
(7.27529e-07 -9.0506e-07 0)
(8.72158e-07 -8.30107e-07 0)
(1.02101e-06 -7.50018e-07 0)
(1.17394e-06 -6.67258e-07 0)
(1.32937e-06 -5.83654e-07 0)
(6.18938e-08 -1.1434e-06 0)
(1.86218e-07 -1.12905e-06 0)
(3.12075e-07 -1.1006e-06 0)
(4.40302e-07 -1.05947e-06 0)
(5.71555e-07 -1.00691e-06 0)
(7.06238e-07 -9.44847e-07 0)
(8.44426e-07 -8.7535e-07 0)
(9.85813e-07 -8.0057e-07 0)
(1.12989e-06 -7.228e-07 0)
(1.27519e-06 -6.44129e-07 0)
(6.06034e-08 -1.16589e-06 0)
(1.82234e-07 -1.15283e-06 0)
(3.0503e-07 -1.12682e-06 0)
(4.29651e-07 -1.0892e-06 0)
(5.56614e-07 -1.04101e-06 0)
(6.8621e-07 -9.8388e-07 0)
(8.18503e-07 -9.19629e-07 0)
(9.53365e-07 -8.50064e-07 0)
(1.09034e-06 -7.77241e-07 0)
(1.22846e-06 -7.02816e-07 0)
(5.93996e-08 -1.189e-06 0)
(1.78564e-07 -1.17701e-06 0)
(2.98647e-07 -1.15306e-06 0)
(4.20151e-07 -1.1184e-06 0)
(5.43505e-07 -1.07391e-06 0)
(6.68882e-07 -1.021e-06 0)
(7.96317e-07 -9.61357e-07 0)
(9.25666e-07 -8.96557e-07 0)
(1.05646e-06 -8.28579e-07 0)
(1.188e-06 -7.58807e-07 0)
(5.82847e-08 -1.21268e-06 0)
(1.75096e-07 -1.20164e-06 0)
(2.92666e-07 -1.17954e-06 0)
(4.11323e-07 -1.14751e-06 0)
(5.31429e-07 -1.10637e-06 0)
(6.5309e-07 -1.05734e-06 0)
(7.7632e-07 -1.00195e-06 0)
(9.0101e-07 -9.41572e-07 0)
(1.02673e-06 -8.78021e-07 0)
(1.15271e-06 -8.12537e-07 0)
(5.72424e-08 -1.23687e-06 0)
(1.7185e-07 -1.22664e-06 0)
(2.87087e-07 -1.20617e-06 0)
(4.03165e-07 -1.17644e-06 0)
(5.20374e-07 -1.13825e-06 0)
(6.38811e-07 -1.09266e-06 0)
(7.58395e-07 -1.04109e-06 0)
(8.79024e-07 -9.84776e-07 0)
(1.00037e-06 -9.25364e-07 0)
(1.12156e-06 -8.64032e-07 0)
(5.62087e-08 -1.26154e-06 0)
(1.6874e-07 -1.25201e-06 0)
(2.81761e-07 -1.23303e-06 0)
(3.95449e-07 -1.20534e-06 0)
(5.10024e-07 -1.1698e-06 0)
(6.25564e-07 -1.12733e-06 0)
(7.41984e-07 -1.07922e-06 0)
(8.59104e-07 -1.02662e-06 0)
(9.76712e-07 -9.70959e-07 0)
(1.09383e-06 -9.13447e-07 0)
(5.52128e-08 -1.28662e-06 0)
(1.65746e-07 -1.27773e-06 0)
(2.76648e-07 -1.26006e-06 0)
(3.88099e-07 -1.23419e-06 0)
(5.00277e-07 -1.20102e-06 0)
(6.13194e-07 -1.16137e-06 0)
(7.26789e-07 -1.11639e-06 0)
(8.40828e-07 -1.06715e-06 0)
(9.55186e-07 -1.01493e-06 0)
(1.06885e-06 -9.60942e-07 0)
(5.42725e-08 -1.31209e-06 0)
(1.62831e-07 -1.30375e-06 0)
(2.71687e-07 -1.28726e-06 0)
(3.81018e-07 -1.26306e-06 0)
(4.90947e-07 -1.23203e-06 0)
(6.01481e-07 -1.19492e-06 0)
(7.12532e-07 -1.15278e-06 0)
(8.23837e-07 -1.10659e-06 0)
(9.35343e-07 -1.0575e-06 0)
(1.04605e-06 -1.00672e-06 0)
(5.3339e-08 -1.3379e-06 0)
(1.59946e-07 -1.33004e-06 0)
(2.66826e-07 -1.3146e-06 0)
(3.74137e-07 -1.29192e-06 0)
(4.81928e-07 -1.26283e-06 0)
(5.90251e-07 -1.22802e-06 0)
(6.98978e-07 -1.18845e-06 0)
(8.07827e-07 -1.14504e-06 0)
(9.16795e-07 -1.09883e-06 0)
(1.02494e-06 -1.05098e-06 0)
(5.23735e-08 -1.36398e-06 0)
(1.57072e-07 -1.35655e-06 0)
(2.6202e-07 -1.34208e-06 0)
(3.67366e-07 -1.32079e-06 0)
(4.73111e-07 -1.29347e-06 0)
(5.79333e-07 -1.26075e-06 0)
(6.85902e-07 -1.22352e-06 0)
(7.92521e-07 -1.18265e-06 0)
(8.99208e-07 -1.13905e-06 0)
(1.0051e-06 -1.09387e-06 0)
(5.13948e-08 -1.39027e-06 0)
(1.54215e-07 -1.38323e-06 0)
(2.57244e-07 -1.36965e-06 0)
(3.60634e-07 -1.34965e-06 0)
(4.64396e-07 -1.32394e-06 0)
(5.68589e-07 -1.29312e-06 0)
(6.73116e-07 -1.25803e-06 0)
(7.77676e-07 -1.21949e-06 0)
(8.82281e-07 -1.17827e-06 0)
(9.86178e-07 -1.13548e-06 0)
(5.04267e-08 -1.41672e-06 0)
(1.5135e-07 -1.41008e-06 0)
(2.52442e-07 -1.39731e-06 0)
(3.53862e-07 -1.37847e-06 0)
(4.5567e-07 -1.35423e-06 0)
(5.57886e-07 -1.32516e-06 0)
(6.60449e-07 -1.29204e-06 0)
(7.63068e-07 -1.2556e-06 0)
(8.65751e-07 -1.21655e-06 0)
(9.6786e-07 -1.17597e-06 0)
(4.94544e-08 -1.44328e-06 0)
(1.48413e-07 -1.43703e-06 0)
(2.4753e-07 -1.42498e-06 0)
(3.46963e-07 -1.40722e-06 0)
(4.46815e-07 -1.38433e-06 0)
(5.4708e-07 -1.35688e-06 0)
(6.47724e-07 -1.32556e-06 0)
(7.48484e-07 -1.29105e-06 0)
(8.49373e-07 -1.25402e-06 0)
(9.49841e-07 -1.21546e-06 0)
(4.84385e-08 -1.46993e-06 0)
(1.45339e-07 -1.46403e-06 0)
(2.42426e-07 -1.45263e-06 0)
(3.39838e-07 -1.43587e-06 0)
(4.37701e-07 -1.41425e-06 0)
(5.36009e-07 -1.3883e-06 0)
(6.34747e-07 -1.35863e-06 0)
(7.33707e-07 -1.32589e-06 0)
(8.32888e-07 -1.29074e-06 0)
(9.31816e-07 -1.25402e-06 0)
(4.73548e-08 -1.49655e-06 0)
(1.42095e-07 -1.49098e-06 0)
(2.37073e-07 -1.4802e-06 0)
(3.32394e-07 -1.46436e-06 0)
(4.28199e-07 -1.44391e-06 0)
(5.24512e-07 -1.41933e-06 0)
(6.21344e-07 -1.39119e-06 0)
(7.1854e-07 -1.36013e-06 0)
(8.16056e-07 -1.32674e-06 0)
(9.13513e-07 -1.29172e-06 0)
(4.62012e-08 -1.52311e-06 0)
(1.38662e-07 -1.51787e-06 0)
(2.31405e-07 -1.50766e-06 0)
(3.24524e-07 -1.49268e-06 0)
(4.1818e-07 -1.47333e-06 0)
(5.12434e-07 -1.45005e-06 0)
(6.07331e-07 -1.42337e-06 0)
(7.02734e-07 -1.39391e-06 0)
(7.98592e-07 -1.3621e-06 0)
(8.94586e-07 -1.32871e-06 0)
(4.49756e-08 -1.54941e-06 0)
(1.35005e-07 -1.54449e-06 0)
(2.25349e-07 -1.53482e-06 0)
(3.16125e-07 -1.52066e-06 0)
(4.07516e-07 -1.50233e-06 0)
(4.99621e-07 -1.48029e-06 0)
(5.92499e-07 -1.45501e-06 0)
(6.86034e-07 -1.42704e-06 0)
(7.80175e-07 -1.39677e-06 0)
(8.74708e-07 -1.36488e-06 0)
(4.36583e-08 -1.57555e-06 0)
(1.31054e-07 -1.57092e-06 0)
(2.18792e-07 -1.56178e-06 0)
(3.07038e-07 -1.5484e-06 0)
(3.95996e-07 -1.53108e-06 0)
(4.8581e-07 -1.51023e-06 0)
(5.76541e-07 -1.48631e-06 0)
(6.68097e-07 -1.45975e-06 0)
(7.60427e-07 -1.43099e-06 0)
(8.53455e-07 -1.40054e-06 0)
(4.22327e-08 -1.60098e-06 0)
(1.26774e-07 -1.59662e-06 0)
(2.11678e-07 -1.58801e-06 0)
(2.97194e-07 -1.57539e-06 0)
(3.83557e-07 -1.55906e-06 0)
(4.70908e-07 -1.53939e-06 0)
(5.59304e-07 -1.51679e-06 0)
(6.48715e-07 -1.49163e-06 0)
(7.39143e-07 -1.46437e-06 0)
(8.30623e-07 -1.43538e-06 0)
)


// ************************************************************************* //
