/*--------------------------------*- C++ -*----------------------------------*\
| =========                 |                                                 |
| \\      /  F ield         | foam-extend: Open Source CFD                    |
|  \\    /   O peration     | Version:     4.1                                |
|   \\  /    A nd           | Web:         http://www.foam-extend.org         |
|    \\/     M anipulation  |                                                 |
\*---------------------------------------------------------------------------*/
FoamFile
{
    version     2.0;
    format      ascii;
    class       vectorField;
    location    "3";
    object      solidsCellD_iteration12;
}
// * * * * * * * * * * * * * * * * * * * * * * * * * * * * * * * * * * * * * //


1000
(
(1.50654e-06 -6.04506e-07 0)
(1.42475e-06 -5.64355e-07 0)
(1.3732e-06 -5.39674e-07 0)
(1.3442e-06 -5.29212e-07 0)
(1.33088e-06 -5.26995e-07 0)
(1.32902e-06 -5.31096e-07 0)
(1.33563e-06 -5.39357e-07 0)
(1.34848e-06 -5.50788e-07 0)
(1.36633e-06 -5.64262e-07 0)
(1.38714e-06 -5.79153e-07 0)
(1.36263e-06 -6.60515e-07 0)
(1.27559e-06 -6.33425e-07 0)
(1.22064e-06 -6.17038e-07 0)
(1.18909e-06 -6.12243e-07 0)
(1.17366e-06 -6.1382e-07 0)
(1.16985e-06 -6.20598e-07 0)
(1.17455e-06 -6.30745e-07 0)
(1.18544e-06 -6.436e-07 0)
(1.20113e-06 -6.58137e-07 0)
(1.21962e-06 -6.73951e-07 0)
(1.21298e-06 -7.13555e-07 0)
(1.12406e-06 -7.01057e-07 0)
(1.06784e-06 -6.93948e-07 0)
(1.03513e-06 -6.95357e-07 0)
(1.01856e-06 -7.01003e-07 0)
(1.01342e-06 -7.10572e-07 0)
(1.01662e-06 -7.22663e-07 0)
(1.02587e-06 -7.36866e-07 0)
(1.03971e-06 -7.52423e-07 0)
(1.05638e-06 -7.68871e-07 0)
(1.05865e-06 -7.62709e-07 0)
(9.71677e-07 -7.65484e-07 0)
(9.16583e-07 -7.6808e-07 0)
(8.84177e-07 -7.75922e-07 0)
(8.6738e-07 -7.85766e-07 0)
(8.61506e-07 -7.98176e-07 0)
(8.63502e-07 -8.12184e-07 0)
(8.71281e-07 -8.27703e-07 0)
(8.83359e-07 -8.4424e-07 0)
(8.98158e-07 -8.61412e-07 0)
(9.00873e-07 -8.06996e-07 0)
(8.19425e-07 -8.24889e-07 0)
(7.67804e-07 -8.37072e-07 0)
(7.37275e-07 -8.51255e-07 0)
(7.21182e-07 -8.6521e-07 0)
(7.15069e-07 -8.80412e-07 0)
(7.16182e-07 -8.96289e-07 0)
(7.22596e-07 -9.13095e-07 0)
(7.32963e-07 -9.30604e-07 0)
(7.45759e-07 -9.48534e-07 0)
(7.40197e-07 -8.45558e-07 0)
(6.67972e-07 -8.77564e-07 0)
(6.22192e-07 -8.98725e-07 0)
(5.94918e-07 -9.18857e-07 0)
(5.80343e-07 -9.36652e-07 0)
(5.74499e-07 -9.54439e-07 0)
(5.75054e-07 -9.72034e-07 0)
(5.80221e-07 -9.90034e-07 0)
(5.88817e-07 -1.00845e-06 0)
(5.99455e-07 -1.02714e-06 0)
(5.77599e-07 -8.77478e-07 0)
(5.1771e-07 -9.21862e-07 0)
(4.79742e-07 -9.5091e-07 0)
(4.57013e-07 -9.7626e-07 0)
(4.44776e-07 -9.97404e-07 0)
(4.39729e-07 -1.01744e-06 0)
(4.39944e-07 -1.03654e-06 0)
(4.43896e-07 -1.0556e-06 0)
(4.50635e-07 -1.07481e-06 0)
(4.58995e-07 -1.09419e-06 0)
(4.13561e-07 -9.0211e-07 0)
(3.68666e-07 -9.56448e-07 0)
(3.40233e-07 -9.91793e-07 0)
(3.23196e-07 -1.02128e-06 0)
(3.13988e-07 -1.04513e-06 0)
(3.10107e-07 -1.067e-06 0)
(3.10113e-07 -1.08734e-06 0)
(3.12869e-07 -1.10726e-06 0)
(3.17704e-07 -1.12711e-06 0)
(3.23717e-07 -1.14707e-06 0)
(2.48534e-07 -9.18855e-07 0)
(2.20744e-07 -9.80121e-07 0)
(2.03183e-07 -1.01986e-06 0)
(1.92604e-07 -1.05229e-06 0)
(1.8683e-07 -1.07804e-06 0)
(1.84355e-07 -1.10116e-06 0)
(1.84323e-07 -1.12236e-06 0)
(1.85989e-07 -1.14293e-06 0)
(1.88894e-07 -1.16326e-06 0)
(1.92506e-07 -1.18363e-06 0)
(8.3006e-08 -9.27288e-07 0)
(7.36071e-08 -9.92151e-07 0)
(6.75985e-08 -1.03415e-06 0)
(6.39939e-08 -1.06808e-06 0)
(6.20721e-08 -1.0948e-06 0)
(6.12218e-08 -1.11859e-06 0)
(6.11499e-08 -1.14022e-06 0)
(6.16891e-08 -1.16109e-06 0)
(6.26755e-08 -1.18166e-06 0)
(6.38794e-08 -1.20227e-06 0)
(2.34498e-06 -2.75113e-08 0)
(2.36524e-06 -1.98442e-08 0)
(2.37823e-06 -1.50257e-08 0)
(2.39258e-06 -1.22289e-08 0)
(2.40865e-06 -1.07191e-08 0)
(2.42827e-06 -1.01056e-08 0)
(2.45151e-06 -1.00943e-08 0)
(2.47847e-06 -1.04162e-08 0)
(2.50916e-06 -1.10694e-08 0)
(2.54313e-06 -1.18669e-08 0)
(2.32774e-06 -8.25871e-08 0)
(2.34463e-06 -6.00289e-08 0)
(2.35552e-06 -4.58309e-08 0)
(2.36843e-06 -3.7695e-08 0)
(2.38352e-06 -3.33861e-08 0)
(2.40244e-06 -3.15403e-08 0)
(2.4252e-06 -3.15055e-08 0)
(2.45178e-06 -3.26468e-08 0)
(2.4821e-06 -3.46317e-08 0)
(2.51573e-06 -3.6919e-08 0)
(2.29336e-06 -1.38084e-07 0)
(2.30378e-06 -1.01929e-07 0)
(2.31059e-06 -7.91974e-08 0)
(2.32078e-06 -6.60733e-08 0)
(2.33408e-06 -5.91936e-08 0)
(2.35175e-06 -5.64317e-08 0)
(2.37353e-06 -5.65158e-08 0)
(2.39938e-06 -5.84325e-08 0)
(2.429e-06 -6.16897e-08 0)
(2.46196e-06 -6.55046e-08 0)
(2.24241e-06 -1.94344e-07 0)
(2.24361e-06 -1.46507e-07 0)
(2.24457e-06 -1.16545e-07 0)
(2.25091e-06 -9.93413e-08 0)
(2.26163e-06 -9.03465e-08 0)
(2.27752e-06 -8.68295e-08 0)
(2.29797e-06 -8.70792e-08 0)
(2.32277e-06 -8.98299e-08 0)
(2.35144e-06 -9.43619e-08 0)
(2.38347e-06 -9.9701e-08 0)
(2.17563e-06 -2.51474e-07 0)
(2.16549e-06 -1.94596e-07 0)
(2.1592e-06 -1.59025e-07 0)
(2.16076e-06 -1.38788e-07 0)
(2.1683e-06 -1.28321e-07 0)
(2.18195e-06 -1.24432e-07 0)
(2.20073e-06 -1.25046e-07 0)
(2.2242e-06 -1.28701e-07 0)
(2.2517e-06 -1.34469e-07 0)
(2.28264e-06 -1.41264e-07 0)
(2.09395e-06 -3.09546e-07 0)
(2.07097e-06 -2.46779e-07 0)
(2.05656e-06 -2.07549e-07 0)
(2.05273e-06 -1.85502e-07 0)
(2.05665e-06 -1.74331e-07 0)
(2.06774e-06 -1.70519e-07 0)
(2.08465e-06 -1.71713e-07 0)
(2.10661e-06 -1.76311e-07 0)
(2.13277e-06 -1.83281e-07 0)
(2.16247e-06 -1.91472e-07 0)
(1.99863e-06 -3.68453e-07 0)
(1.96204e-06 -3.03289e-07 0)
(1.93901e-06 -2.6259e-07 0)
(1.92949e-06 -2.401e-07 0)
(1.9296e-06 -2.29027e-07 0)
(1.93798e-06 -2.2577e-07 0)
(1.95289e-06 -2.2778e-07 0)
(1.97323e-06 -2.33367e-07 0)
(1.99795e-06 -2.41497e-07 0)
(2.02635e-06 -2.5098e-07 0)
(1.89084e-06 -4.27879e-07 0)
(1.84078e-06 -3.63977e-07 0)
(1.80924e-06 -3.24098e-07 0)
(1.79404e-06 -3.02606e-07 0)
(1.79037e-06 -2.92489e-07 0)
(1.79603e-06 -2.9031e-07 0)
(1.80888e-06 -2.93415e-07 0)
(1.82754e-06 -3.00116e-07 0)
(1.85076e-06 -3.09396e-07 0)
(1.87777e-06 -3.20082e-07 0)
(1.77197e-06 -4.87442e-07 0)
(1.70939e-06 -4.28319e-07 0)
(1.66994e-06 -3.9155e-07 0)
(1.64938e-06 -3.72468e-07 0)
(1.64211e-06 -3.64184e-07 0)
(1.64506e-06 -3.63575e-07 0)
(1.65579e-06 -3.6805e-07 0)
(1.67269e-06 -3.75972e-07 0)
(1.69437e-06 -3.86419e-07 0)
(1.71994e-06 -3.98047e-07 0)
(1.64343e-06 -5.46572e-07 0)
(1.57009e-06 -4.95495e-07 0)
(1.52381e-06 -4.63882e-07 0)
(1.49857e-06 -4.48561e-07 0)
(1.48804e-06 -4.42955e-07 0)
(1.48853e-06 -4.4444e-07 0)
(1.49737e-06 -4.50638e-07 0)
(1.51255e-06 -4.60125e-07 0)
(1.53283e-06 -4.71917e-07 0)
(1.55658e-06 -4.85192e-07 0)
(2.58043e-06 -1.26061e-08 0)
(2.62102e-06 -1.2833e-08 0)
(2.66413e-06 -1.30613e-08 0)
(2.70959e-06 -1.32383e-08 0)
(2.75714e-06 -1.33578e-08 0)
(2.80663e-06 -1.34112e-08 0)
(2.85782e-06 -1.33671e-08 0)
(2.91051e-06 -1.32576e-08 0)
(2.96458e-06 -1.31014e-08 0)
(3.0199e-06 -1.2866e-08 0)
(3.07627e-06 -1.25277e-08 0)
(3.13355e-06 -1.20838e-08 0)
(3.1916e-06 -1.15333e-08 0)
(3.25024e-06 -1.08789e-08 0)
(3.30936e-06 -1.01132e-08 0)
(3.36877e-06 -9.21187e-09 0)
(3.42834e-06 -8.14417e-09 0)
(3.48777e-06 -6.88544e-09 0)
(3.54707e-06 -5.41281e-09 0)
(3.6055e-06 -3.71929e-09 0)
(2.55423e-06 -3.89793e-08 0)
(2.59699e-06 -3.95063e-08 0)
(2.64203e-06 -4.00557e-08 0)
(2.68921e-06 -4.04629e-08 0)
(2.73829e-06 -4.06708e-08 0)
(2.78911e-06 -4.0721e-08 0)
(2.84151e-06 -4.05847e-08 0)
(2.89534e-06 -4.02695e-08 0)
(2.95045e-06 -3.97388e-08 0)
(3.00669e-06 -3.89358e-08 0)
(3.0639e-06 -3.78589e-08 0)
(3.12198e-06 -3.65204e-08 0)
(3.18078e-06 -3.48938e-08 0)
(3.24016e-06 -3.29405e-08 0)
(3.29997e-06 -3.06155e-08 0)
(3.36003e-06 -2.78697e-08 0)
(3.42023e-06 -2.4641e-08 0)
(3.48026e-06 -2.08692e-08 0)
(3.54015e-06 -1.64712e-08 0)
(3.59912e-06 -1.14099e-08 0)
(2.50278e-06 -6.85746e-08 0)
(2.54984e-06 -6.89311e-08 0)
(2.59871e-06 -6.93495e-08 0)
(2.64916e-06 -6.96588e-08 0)
(2.7012e-06 -6.97311e-08 0)
(2.75469e-06 -6.9609e-08 0)
(2.80952e-06 -6.91996e-08 0)
(2.8655e-06 -6.84917e-08 0)
(2.92258e-06 -6.7435e-08 0)
(2.98061e-06 -6.59827e-08 0)
(3.03951e-06 -6.41358e-08 0)
(3.09915e-06 -6.18802e-08 0)
(3.15941e-06 -5.91428e-08 0)
(3.22013e-06 -5.58504e-08 0)
(3.28122e-06 -5.19399e-08 0)
(3.34251e-06 -4.73428e-08 0)
(3.40392e-06 -4.19581e-08 0)
(3.46514e-06 -3.56863e-08 0)
(3.52621e-06 -2.83809e-08 0)
(3.58637e-06 -1.9967e-08 0)
(2.42761e-06 -1.03194e-07 0)
(2.48076e-06 -1.02622e-07 0)
(2.53515e-06 -1.02232e-07 0)
(2.59043e-06 -1.01931e-07 0)
(2.64684e-06 -1.01447e-07 0)
(2.70419e-06 -1.00818e-07 0)
(2.76251e-06 -9.98561e-08 0)
(2.82167e-06 -9.85518e-08 0)
(2.88168e-06 -9.68218e-08 0)
(2.94242e-06 -9.46087e-08 0)
(3.00381e-06 -9.18854e-08 0)
(3.06575e-06 -8.86013e-08 0)
(3.12814e-06 -8.46578e-08 0)
(3.19088e-06 -7.99705e-08 0)
(3.25389e-06 -7.4465e-08 0)
(3.31701e-06 -6.80274e-08 0)
(3.38017e-06 -6.05165e-08 0)
(3.44311e-06 -5.17791e-08 0)
(3.50583e-06 -4.15965e-08 0)
(3.56767e-06 -2.98907e-08 0)
(2.33095e-06 -1.4441e-07 0)
(2.39181e-06 -1.41949e-07 0)
(2.45323e-06 -1.39927e-07 0)
(2.5146e-06 -1.3839e-07 0)
(2.57655e-06 -1.36802e-07 0)
(2.63885e-06 -1.35216e-07 0)
(2.70169e-06 -1.33337e-07 0)
(2.76495e-06 -1.31156e-07 0)
(2.8287e-06 -1.28521e-07 0)
(2.89287e-06 -1.25347e-07 0)
(2.95744e-06 -1.2159e-07 0)
(3.02236e-06 -1.17168e-07 0)
(3.08756e-06 -1.11949e-07 0)
(3.15295e-06 -1.05821e-07 0)
(3.21847e-06 -9.86835e-08 0)
(3.28397e-06 -9.03816e-08 0)
(3.34943e-06 -8.07395e-08 0)
(3.41457e-06 -6.9562e-08 0)
(3.47949e-06 -5.65458e-08 0)
(3.54351e-06 -4.16191e-08 0)
(2.21549e-06 -1.93418e-07 0)
(2.2852e-06 -1.87939e-07 0)
(2.35486e-06 -1.83256e-07 0)
(2.42349e-06 -1.79688e-07 0)
(2.49207e-06 -1.76348e-07 0)
(2.56032e-06 -1.73283e-07 0)
(2.6285e-06 -1.70054e-07 0)
(2.69667e-06 -1.66619e-07 0)
(2.76492e-06 -1.62797e-07 0)
(2.83325e-06 -1.58463e-07 0)
(2.90168e-06 -1.53525e-07 0)
(2.9702e-06 -1.47853e-07 0)
(3.03876e-06 -1.41273e-07 0)
(3.1073e-06 -1.33648e-07 0)
(3.17582e-06 -1.24838e-07 0)
(3.24417e-06 -1.14665e-07 0)
(3.3124e-06 -1.02905e-07 0)
(3.38019e-06 -8.93349e-08 0)
(3.44777e-06 -7.35691e-08 0)
(3.51441e-06 -5.54937e-08 0)
(2.08446e-06 -2.50878e-07 0)
(2.16386e-06 -2.41254e-07 0)
(2.24265e-06 -2.32902e-07 0)
(2.31935e-06 -2.26444e-07 0)
(2.39529e-06 -2.20645e-07 0)
(2.47021e-06 -2.15478e-07 0)
(2.54448e-06 -2.10455e-07 0)
(2.61822e-06 -2.05405e-07 0)
(2.6916e-06 -2.00108e-07 0)
(2.76469e-06 -1.94384e-07 0)
(2.83756e-06 -1.88072e-07 0)
(2.9102e-06 -1.80986e-07 0)
(2.98261e-06 -1.72919e-07 0)
(3.05479e-06 -1.63713e-07 0)
(3.12675e-06 -1.53189e-07 0)
(3.19841e-06 -1.41144e-07 0)
(3.26983e-06 -1.27295e-07 0)
(3.34072e-06 -1.11375e-07 0)
(3.41131e-06 -9.29305e-08 0)
(3.48096e-06 -7.17941e-08 0)
(1.94097e-06 -3.17035e-07 0)
(2.03038e-06 -3.0195e-07 0)
(2.1188e-06 -2.88882e-07 0)
(2.20418e-06 -2.78561e-07 0)
(2.28813e-06 -2.69592e-07 0)
(2.37032e-06 -2.6171e-07 0)
(2.45133e-06 -2.544e-07 0)
(2.53125e-06 -2.47353e-07 0)
(2.61033e-06 -2.40277e-07 0)
(2.68868e-06 -2.32917e-07 0)
(2.76642e-06 -2.2504e-07 0)
(2.8436e-06 -2.16404e-07 0)
(2.92027e-06 -2.06772e-07 0)
(2.99649e-06 -1.95952e-07 0)
(3.07229e-06 -1.8372e-07 0)
(3.14765e-06 -1.69831e-07 0)
(3.22259e-06 -1.53946e-07 0)
(3.29693e-06 -1.35746e-07 0)
(3.37087e-06 -1.14705e-07 0)
(3.44386e-06 -9.06107e-08 0)
(1.78835e-06 -3.91704e-07 0)
(1.88789e-06 -3.70151e-07 0)
(1.98606e-06 -3.51722e-07 0)
(2.08046e-06 -3.36696e-07 0)
(2.17273e-06 -3.23861e-07 0)
(2.26262e-06 -3.12665e-07 0)
(2.35071e-06 -3.02546e-07 0)
(2.43719e-06 -2.93057e-07 0)
(2.52234e-06 -2.83834e-07 0)
(2.60633e-06 -2.74532e-07 0)
(2.6893e-06 -2.64846e-07 0)
(2.77138e-06 -2.54483e-07 0)
(2.85268e-06 -2.43169e-07 0)
(2.93329e-06 -2.30661e-07 0)
(3.01327e-06 -2.16683e-07 0)
(3.09262e-06 -2.00935e-07 0)
(3.1714e-06 -1.83024e-07 0)
(3.24946e-06 -1.6258e-07 0)
(3.32704e-06 -1.39024e-07 0)
(3.40368e-06 -1.12099e-07 0)
(1.62963e-06 -4.73748e-07 0)
(1.73993e-06 -4.43709e-07 0)
(1.84774e-06 -4.19148e-07 0)
(1.95152e-06 -3.98674e-07 0)
(2.05223e-06 -3.81423e-07 0)
(2.15011e-06 -3.66472e-07 0)
(2.24554e-06 -3.53176e-07 0)
(2.33882e-06 -3.40969e-07 0)
(2.43027e-06 -3.29393e-07 0)
(2.52011e-06 -3.18007e-07 0)
(2.60854e-06 -3.06431e-07 0)
(2.69573e-06 -2.94312e-07 0)
(2.78183e-06 -2.81322e-07 0)
(2.86698e-06 -2.6716e-07 0)
(2.95127e-06 -2.51495e-07 0)
(3.03473e-06 -2.33972e-07 0)
(3.11747e-06 -2.14154e-07 0)
(3.19939e-06 -1.91601e-07 0)
(3.28076e-06 -1.65699e-07 0)
(3.36123e-06 -1.36113e-07 0)
(1.50982e-06 -5.5457e-07 0)
(1.62804e-06 -5.17032e-07 0)
(1.74212e-06 -4.87491e-07 0)
(1.85221e-06 -4.62309e-07 0)
(1.95866e-06 -4.40917e-07 0)
(2.06191e-06 -4.22275e-07 0)
(2.16232e-06 -4.05675e-07 0)
(2.26024e-06 -3.90516e-07 0)
(2.356e-06 -3.76273e-07 0)
(2.44982e-06 -3.62455e-07 0)
(2.54194e-06 -3.48642e-07 0)
(2.63255e-06 -3.3445e-07 0)
(2.72185e-06 -3.19511e-07 0)
(2.80997e-06 -3.03479e-07 0)
(2.89702e-06 -2.85994e-07 0)
(2.98308e-06 -2.66654e-07 0)
(3.06828e-06 -2.45025e-07 0)
(3.15262e-06 -2.20606e-07 0)
(3.23634e-06 -1.92793e-07 0)
(3.31922e-06 -1.61187e-07 0)
(1.44243e-06 -6.21342e-07 0)
(1.56168e-06 -5.82293e-07 0)
(1.67683e-06 -5.49844e-07 0)
(1.78864e-06 -5.21668e-07 0)
(1.89706e-06 -4.97233e-07 0)
(2.00237e-06 -4.7565e-07 0)
(2.10486e-06 -4.56247e-07 0)
(2.20479e-06 -4.38437e-07 0)
(2.30243e-06 -4.21683e-07 0)
(2.39801e-06 -4.05499e-07 0)
(2.49173e-06 -3.89466e-07 0)
(2.58382e-06 -3.73191e-07 0)
(2.67444e-06 -3.56288e-07 0)
(2.76374e-06 -3.38396e-07 0)
(2.85184e-06 -3.1915e-07 0)
(2.93887e-06 -2.98127e-07 0)
(3.02492e-06 -2.74927e-07 0)
(3.11008e-06 -2.49034e-07 0)
(3.19459e-06 -2.19875e-07 0)
(3.2783e-06 -1.87036e-07 0)
(1.3859e-06 -6.84786e-07 0)
(1.50393e-06 -6.45039e-07 0)
(1.61903e-06 -6.10904e-07 0)
(1.73126e-06 -5.80594e-07 0)
(1.84053e-06 -5.53729e-07 0)
(1.94693e-06 -5.29614e-07 0)
(2.05064e-06 -5.07673e-07 0)
(2.15186e-06 -4.8737e-07 0)
(2.25077e-06 -4.68204e-07 0)
(2.34757e-06 -4.49717e-07 0)
(2.44247e-06 -4.315e-07 0)
(2.53566e-06 -4.13161e-07 0)
(2.62729e-06 -3.94306e-07 0)
(2.71752e-06 -3.74573e-07 0)
(2.80645e-06 -3.53599e-07 0)
(2.89427e-06 -3.30952e-07 0)
(2.98105e-06 -3.06264e-07 0)
(3.06694e-06 -2.7903e-07 0)
(3.15214e-06 -2.48705e-07 0)
(3.23663e-06 -2.14895e-07 0)
(1.3364e-06 -7.46103e-07 0)
(1.45275e-06 -7.06109e-07 0)
(1.56693e-06 -6.70736e-07 0)
(1.67876e-06 -6.38686e-07 0)
(1.78804e-06 -6.09745e-07 0)
(1.89478e-06 -5.83393e-07 0)
(1.99906e-06 -5.59148e-07 0)
(2.10098e-06 -5.36538e-07 0)
(2.20067e-06 -5.1511e-07 0)
(2.2983e-06 -4.9444e-07 0)
(2.39403e-06 -4.74141e-07 0)
(2.48803e-06 -4.53826e-07 0)
(2.58044e-06 -4.33101e-07 0)
(2.67141e-06 -4.11613e-07 0)
(2.76104e-06 -3.89003e-07 0)
(2.84952e-06 -3.64853e-07 0)
(2.93695e-06 -3.38817e-07 0)
(3.02349e-06 -3.10411e-07 0)
(3.10933e-06 -2.79133e-07 0)
(3.19458e-06 -2.44632e-07 0)
(1.29302e-06 -8.04765e-07 0)
(1.4073e-06 -7.64884e-07 0)
(1.52002e-06 -7.28802e-07 0)
(1.63082e-06 -6.95508e-07 0)
(1.73953e-06 -6.64938e-07 0)
(1.84603e-06 -6.3672e-07 0)
(1.95033e-06 -6.10465e-07 0)
(2.05245e-06 -5.85785e-07 0)
(2.1525e-06 -5.62288e-07 0)
(2.25058e-06 -5.3959e-07 0)
(2.34683e-06 -5.17334e-07 0)
(2.44136e-06 -4.95147e-07 0)
(2.53432e-06 -4.72645e-07 0)
(2.62584e-06 -4.49495e-07 0)
(2.71602e-06 -4.25348e-07 0)
(2.80505e-06 -3.99805e-07 0)
(2.89302e-06 -3.72547e-07 0)
(2.98013e-06 -3.43117e-07 0)
(3.06656e-06 -3.1107e-07 0)
(3.15251e-06 -2.76119e-07 0)
(1.2546e-06 -8.6102e-07 0)
(1.36663e-06 -8.21469e-07 0)
(1.4776e-06 -7.8499e-07 0)
(1.58699e-06 -7.50804e-07 0)
(1.6947e-06 -7.18958e-07 0)
(1.80052e-06 -6.89188e-07 0)
(1.9044e-06 -6.61205e-07 0)
(2.00634e-06 -6.34707e-07 0)
(2.10638e-06 -6.09356e-07 0)
(2.20459e-06 -5.84815e-07 0)
(2.30107e-06 -5.60758e-07 0)
(2.39589e-06 -5.36836e-07 0)
(2.48918e-06 -5.12682e-07 0)
(2.58107e-06 -4.87992e-07 0)
(2.67165e-06 -4.62425e-07 0)
(2.7611e-06 -4.35626e-07 0)
(2.84952e-06 -4.07286e-07 0)
(2.93712e-06 -3.7699e-07 0)
(3.02409e-06 -3.44363e-07 0)
(3.11065e-06 -3.09162e-07 0)
(1.22034e-06 -9.14962e-07 0)
(1.33005e-06 -8.75894e-07 0)
(1.43906e-06 -8.39264e-07 0)
(1.5468e-06 -8.04481e-07 0)
(1.65321e-06 -7.71666e-07 0)
(1.75802e-06 -7.40636e-07 0)
(1.86117e-06 -7.11202e-07 0)
(1.96261e-06 -6.83136e-07 0)
(2.06235e-06 -6.5615e-07 0)
(2.16041e-06 -6.29953e-07 0)
(2.25685e-06 -6.04261e-07 0)
(2.35174e-06 -5.78751e-07 0)
(2.44518e-06 -5.5308e-07 0)
(2.53727e-06 -5.26984e-07 0)
(2.62811e-06 -5.00124e-07 0)
(2.71787e-06 -4.72198e-07 0)
(2.80664e-06 -4.42914e-07 0)
(2.89465e-06 -4.11907e-07 0)
(2.98209e-06 -3.78865e-07 0)
(3.06914e-06 -3.43563e-07 0)
(1.18951e-06 -9.66754e-07 0)
(1.2969e-06 -9.28257e-07 0)
(1.40384e-06 -8.91648e-07 0)
(1.5098e-06 -8.56491e-07 0)
(1.6147e-06 -8.22949e-07 0)
(1.71826e-06 -7.90911e-07 0)
(1.82044e-06 -7.60276e-07 0)
(1.92113e-06 -7.30875e-07 0)
(2.02032e-06 -7.02465e-07 0)
(2.11799e-06 -6.74805e-07 0)
(2.2142e-06 -6.4765e-07 0)
(2.30897e-06 -6.20709e-07 0)
(2.40239e-06 -5.93669e-07 0)
(2.49454e-06 -5.66305e-07 0)
(2.58552e-06 -5.38294e-07 0)
(2.67549e-06 -5.09375e-07 0)
(2.76455e-06 -4.79292e-07 0)
(2.8529e-06 -4.47721e-07 0)
(2.94072e-06 -4.14405e-07 0)
(3.0282e-06 -3.79123e-07 0)
(1.16143e-06 -1.01656e-06 0)
(1.26653e-06 -9.78676e-07 0)
(1.37138e-06 -9.42209e-07 0)
(1.47547e-06 -9.06843e-07 0)
(1.57874e-06 -8.72772e-07 0)
(1.68092e-06 -8.39947e-07 0)
(1.78195e-06 -8.08332e-07 0)
(1.88172e-06 -7.77809e-07 0)
(1.98018e-06 -7.48175e-07 0)
(2.0773e-06 -7.19238e-07 0)
(2.1731e-06 -6.90796e-07 0)
(2.2676e-06 -6.62586e-07 0)
(2.36087e-06 -6.34329e-07 0)
(2.45298e-06 -6.05842e-07 0)
(2.54401e-06 -5.76821e-07 0)
(2.63411e-06 -5.47048e-07 0)
(2.72337e-06 -5.16304e-07 0)
(2.812e-06 -4.84298e-07 0)
(2.90011e-06 -4.50814e-07 0)
(2.98799e-06 -4.15675e-07 0)
(1.13555e-06 -1.06454e-06 0)
(1.23839e-06 -1.02728e-06 0)
(1.34117e-06 -9.91032e-07 0)
(1.44336e-06 -9.55579e-07 0)
(1.54495e-06 -9.2114e-07 0)
(1.64568e-06 -8.87712e-07 0)
(1.74547e-06 -8.55305e-07 0)
(1.8442e-06 -8.2385e-07 0)
(1.9418e-06 -7.93181e-07 0)
(2.03824e-06 -7.63148e-07 0)
(2.13352e-06 -7.33589e-07 0)
(2.22764e-06 -7.04271e-07 0)
(2.32066e-06 -6.74954e-07 0)
(2.41263e-06 -6.45489e-07 0)
(2.50362e-06 -6.15601e-07 0)
(2.59378e-06 -5.8511e-07 0)
(2.68317e-06 -5.53831e-07 0)
(2.77199e-06 -5.21498e-07 0)
(2.86034e-06 -4.8794e-07 0)
(2.94854e-06 -4.53055e-07 0)
(1.11132e-06 -1.11085e-06 0)
(1.21199e-06 -1.07421e-06 0)
(1.31274e-06 -1.03822e-06 0)
(1.41307e-06 -1.00277e-06 0)
(1.51299e-06 -9.68097e-07 0)
(1.61224e-06 -9.34215e-07 0)
(1.71073e-06 -9.01181e-07 0)
(1.80834e-06 -8.68962e-07 0)
(1.905e-06 -8.37431e-07 0)
(2.00068e-06 -8.06472e-07 0)
(2.09535e-06 -7.75959e-07 0)
(2.189e-06 -7.45691e-07 0)
(2.2817e-06 -7.15464e-07 0)
(2.37346e-06 -6.85161e-07 0)
(2.46435e-06 -6.54541e-07 0)
(2.55451e-06 -6.23457e-07 0)
(2.64397e-06 -5.91748e-07 0)
(2.7329e-06 -5.59178e-07 0)
(2.82146e-06 -5.25642e-07 0)
(2.90987e-06 -4.91072e-07 0)
(1.08832e-06 -1.15564e-06 0)
(1.18693e-06 -1.11958e-06 0)
(1.28571e-06 -1.08389e-06 0)
(1.38424e-06 -1.04852e-06 0)
(1.48251e-06 -1.01371e-06 0)
(1.58027e-06 -9.7949e-07 0)
(1.67743e-06 -9.45969e-07 0)
(1.77391e-06 -9.13137e-07 0)
(1.86959e-06 -8.80901e-07 0)
(1.96446e-06 -8.49168e-07 0)
(2.05847e-06 -8.17852e-07 0)
(2.15162e-06 -7.86782e-07 0)
(2.24395e-06 -7.55788e-07 0)
(2.33547e-06 -7.24785e-07 0)
(2.42622e-06 -6.93561e-07 0)
(2.51632e-06 -6.61992e-07 0)
(2.6058e-06 -6.29945e-07 0)
(2.69482e-06 -5.97225e-07 0)
(2.78353e-06 -5.63795e-07 0)
(2.87209e-06 -5.29557e-07 0)
(1.06619e-06 -1.19905e-06 0)
(1.16283e-06 -1.16354e-06 0)
(1.25973e-06 -1.12816e-06 0)
(1.35652e-06 -1.09292e-06 0)
(1.45318e-06 -1.05803e-06 0)
(1.54947e-06 -1.02359e-06 0)
(1.64533e-06 -9.89699e-07 0)
(1.74066e-06 -9.56384e-07 0)
(1.83538e-06 -9.23585e-07 0)
(1.92944e-06 -8.91225e-07 0)
(2.0228e-06 -8.59254e-07 0)
(2.11543e-06 -8.27528e-07 0)
(2.20736e-06 -7.95904e-07 0)
(2.2986e-06 -7.64328e-07 0)
(2.38917e-06 -7.3261e-07 0)
(2.47917e-06 -7.0065e-07 0)
(2.56861e-06 -6.68346e-07 0)
(2.6577e-06 -6.35553e-07 0)
(2.74645e-06 -6.0227e-07 0)
(2.83515e-06 -5.68401e-07 0)
(1.04458e-06 -1.2412e-06 0)
(1.13935e-06 -1.20621e-06 0)
(1.23446e-06 -1.17114e-06 0)
(1.32957e-06 -1.13604e-06 0)
(1.42467e-06 -1.10115e-06 0)
(1.51956e-06 -1.06656e-06 0)
(1.61419e-06 -1.03242e-06 0)
(1.70842e-06 -9.98749e-07 0)
(1.8022e-06 -9.65518e-07 0)
(1.89546e-06 -9.32664e-07 0)
(1.98815e-06 -9.00165e-07 0)
(2.08026e-06 -8.67903e-07 0)
(2.17178e-06 -8.35765e-07 0)
(2.26273e-06 -8.03722e-07 0)
(2.3531e-06 -7.71603e-07 0)
(2.44297e-06 -7.39331e-07 0)
(2.53236e-06 -7.06846e-07 0)
(2.62145e-06 -6.74042e-07 0)
(2.71023e-06 -6.40912e-07 0)
(2.799e-06 -6.07459e-07 0)
(1.02312e-06 -1.28221e-06 0)
(1.11611e-06 -1.24771e-06 0)
(1.20952e-06 -1.21293e-06 0)
(1.30304e-06 -1.17801e-06 0)
(1.39668e-06 -1.14316e-06 0)
(1.49025e-06 -1.10851e-06 0)
(1.58371e-06 -1.0742e-06 0)
(1.6769e-06 -1.04028e-06 0)
(1.7698e-06 -1.00672e-06 0)
(1.86231e-06 -9.73484e-07 0)
(1.95439e-06 -9.40582e-07 0)
(2.04601e-06 -9.07908e-07 0)
(2.13716e-06 -8.75371e-07 0)
(2.22782e-06 -8.4296e-07 0)
(2.31798e-06 -8.10521e-07 0)
(2.40773e-06 -7.7801e-07 0)
(2.49707e-06 -7.45403e-07 0)
(2.58611e-06 -7.12621e-07 0)
(2.67494e-06 -6.79681e-07 0)
(2.76371e-06 -6.46622e-07 0)
(1.00141e-06 -1.32219e-06 0)
(1.09273e-06 -1.28815e-06 0)
(1.18452e-06 -1.25363e-06 0)
(1.27658e-06 -1.2189e-06 0)
(1.36889e-06 -1.18415e-06 0)
(1.46126e-06 -1.14951e-06 0)
(1.55365e-06 -1.11512e-06 0)
(1.64592e-06 -1.08104e-06 0)
(1.73799e-06 -1.04726e-06 0)
(1.82981e-06 -1.01375e-06 0)
(1.92133e-06 -9.8055e-07 0)
(2.0125e-06 -9.47565e-07 0)
(2.10329e-06 -9.1472e-07 0)
(2.19368e-06 -8.82013e-07 0)
(2.28366e-06 -8.4932e-07 0)
(2.37329e-06 -8.16635e-07 0)
(2.46257e-06 -7.83957e-07 0)
(2.55157e-06 -7.51197e-07 0)
(2.64039e-06 -7.18468e-07 0)
(2.72917e-06 -6.85799e-07 0)
(9.79099e-07 -1.36127e-06 0)
(1.0688e-06 -1.32757e-06 0)
(1.15907e-06 -1.29336e-06 0)
(1.24986e-06 -1.25888e-06 0)
(1.34096e-06 -1.22427e-06 0)
(1.43229e-06 -1.18969e-06 0)
(1.52372e-06 -1.15528e-06 0)
(1.61516e-06 -1.12112e-06 0)
(1.70654e-06 -1.0872e-06 0)
(1.79778e-06 -1.05351e-06 0)
(1.88882e-06 -1.0201e-06 0)
(1.9796e-06 -9.8689e-07 0)
(2.07009e-06 -9.53805e-07 0)
(2.16025e-06 -9.20876e-07 0)
(2.25008e-06 -8.88008e-07 0)
(2.33963e-06 -8.55191e-07 0)
(2.42885e-06 -8.22436e-07 0)
(2.51784e-06 -7.89722e-07 0)
(2.60659e-06 -7.57206e-07 0)
(2.69539e-06 -7.24891e-07 0)
(9.55672e-07 -1.39942e-06 0)
(1.04398e-06 -1.3661e-06 0)
(1.13301e-06 -1.33225e-06 0)
(1.2226e-06 -1.29802e-06 0)
(1.31267e-06 -1.26361e-06 0)
(1.40308e-06 -1.22913e-06 0)
(1.49371e-06 -1.19477e-06 0)
(1.58448e-06 -1.1606e-06 0)
(1.67528e-06 -1.12662e-06 0)
(1.76606e-06 -1.09284e-06 0)
(1.85672e-06 -1.05929e-06 0)
(1.94718e-06 -1.02593e-06 0)
(2.03743e-06 -9.92686e-07 0)
(2.12744e-06 -9.59589e-07 0)
(2.21718e-06 -9.26575e-07 0)
(2.30666e-06 -8.93669e-07 0)
(2.39582e-06 -8.6086e-07 0)
(2.48485e-06 -8.28174e-07 0)
(2.57363e-06 -7.95829e-07 0)
(2.66234e-06 -7.6388e-07 0)
(9.30788e-07 -1.437e-06 0)
(1.01782e-06 -1.40407e-06 0)
(1.10576e-06 -1.37052e-06 0)
(1.19438e-06 -1.33656e-06 0)
(1.28361e-06 -1.30235e-06 0)
(1.37329e-06 -1.26803e-06 0)
(1.46333e-06 -1.23376e-06 0)
(1.55361e-06 -1.19963e-06 0)
(1.64402e-06 -1.16565e-06 0)
(1.73444e-06 -1.13183e-06 0)
(1.82482e-06 -1.09821e-06 0)
(1.9151e-06 -1.06473e-06 0)
(2.00523e-06 -1.03137e-06 0)
(2.09513e-06 -9.98186e-07 0)
(2.1848e-06 -9.65061e-07 0)
(2.27428e-06 -9.32016e-07 0)
(2.36351e-06 -8.99178e-07 0)
(2.45253e-06 -8.66524e-07 0)
(2.54137e-06 -8.34262e-07 0)
(2.63007e-06 -8.02606e-07 0)
(9.04155e-07 -1.47374e-06 0)
(9.90116e-07 -1.44128e-06 0)
(1.07713e-06 -1.40813e-06 0)
(1.165e-06 -1.37451e-06 0)
(1.25361e-06 -1.34056e-06 0)
(1.34282e-06 -1.30644e-06 0)
(1.4325e-06 -1.27232e-06 0)
(1.52248e-06 -1.23832e-06 0)
(1.61266e-06 -1.20438e-06 0)
(1.70293e-06 -1.17053e-06 0)
(1.79321e-06 -1.13689e-06 0)
(1.88338e-06 -1.10339e-06 0)
(1.97343e-06 -1.06994e-06 0)
(2.06333e-06 -1.03665e-06 0)
(2.15299e-06 -1.00347e-06 0)
(2.24249e-06 -9.70355e-07 0)
(2.33184e-06 -9.37453e-07 0)
(2.42096e-06 -9.04748e-07 0)
(2.50995e-06 -8.72507e-07 0)
(2.5987e-06 -8.41001e-07 0)
(6.37747e-08 -1.22326e-06 0)
(1.92099e-07 -1.2055e-06 0)
(3.22666e-07 -1.17063e-06 0)
(4.56796e-07 -1.12014e-06 0)
(5.95445e-07 -1.05593e-06 0)
(7.39219e-07 -9.80426e-07 0)
(8.88328e-07 -8.96429e-07 0)
(1.04247e-06 -8.06769e-07 0)
(1.20141e-06 -7.14304e-07 0)
(1.36364e-06 -6.21148e-07 0)
(6.21209e-08 -1.24514e-06 0)
(1.87032e-07 -1.2289e-06 0)
(3.13762e-07 -1.197e-06 0)
(4.43436e-07 -1.15071e-06 0)
(5.76852e-07 -1.09165e-06 0)
(7.14477e-07 -1.02187e-06 0)
(8.56536e-07 -9.43737e-07 0)
(1.00258e-06 -8.59773e-07 0)
(1.15227e-06 -7.72496e-07 0)
(1.30396e-06 -6.84254e-07 0)
(6.06078e-08 -1.2675e-06 0)
(1.8239e-07 -1.25265e-06 0)
(3.0564e-07 -1.22343e-06 0)
(4.31221e-07 -1.18096e-06 0)
(5.59847e-07 -1.12665e-06 0)
(6.91845e-07 -1.06227e-06 0)
(8.27471e-07 -9.8987e-07 0)
(9.66439e-07 -9.11599e-07 0)
(1.10852e-06 -8.29596e-07 0)
(1.25248e-06 -7.45817e-07 0)
(5.92657e-08 -1.29038e-06 0)
(1.78245e-07 -1.2767e-06 0)
(2.98485e-07 -1.24977e-06 0)
(4.20585e-07 -1.21057e-06 0)
(5.45191e-07 -1.16035e-06 0)
(6.72525e-07 -1.10065e-06 0)
(8.02776e-07 -1.03332e-06 0)
(9.3568e-07 -9.60268e-07 0)
(1.07098e-06 -8.83479e-07 0)
(1.2077e-06 -8.04694e-07 0)
(5.80484e-08 -1.31376e-06 0)
(1.74441e-07 -1.30115e-06 0)
(2.91909e-07 -1.27628e-06 0)
(4.10864e-07 -1.24003e-06 0)
(5.31867e-07 -1.19352e-06 0)
(6.55082e-07 -1.13814e-06 0)
(7.80672e-07 -1.07554e-06 0)
(9.08418e-07 -1.0073e-06 0)
(1.03808e-06 -9.35302e-07 0)
(1.16868e-06 -8.61129e-07 0)
(5.68967e-08 -1.33764e-06 0)
(1.70937e-07 -1.32593e-06 0)
(2.85859e-07 -1.30286e-06 0)
(4.02011e-07 -1.26922e-06 0)
(5.19837e-07 -1.22598e-06 0)
(6.39485e-07 -1.17444e-06 0)
(7.61007e-07 -1.11607e-06 0)
(8.84223e-07 -1.05229e-06 0)
(1.00898e-06 -9.84813e-07 0)
(1.13426e-06 -9.15158e-07 0)
(5.57909e-08 -1.36197e-06 0)
(1.67614e-07 -1.35109e-06 0)
(2.80152e-07 -1.32963e-06 0)
(3.9374e-07 -1.29832e-06 0)
(5.08673e-07 -1.25803e-06 0)
(6.25135e-07 -1.20996e-06 0)
(7.43119e-07 -1.15544e-06 0)
(8.62412e-07 -1.09574e-06 0)
(9.82954e-07 -1.0324e-06 0)
(1.10368e-06 -9.66941e-07 0)
(5.47622e-08 -1.38671e-06 0)
(1.64443e-07 -1.37656e-06 0)
(2.74735e-07 -1.35654e-06 0)
(3.85939e-07 -1.32731e-06 0)
(4.98245e-07 -1.28967e-06 0)
(6.11815e-07 -1.24471e-06 0)
(7.26648e-07 -1.19368e-06 0)
(8.42503e-07 -1.13773e-06 0)
(9.59378e-07 -1.07821e-06 0)
(1.07621e-06 -1.01665e-06 0)
(5.37664e-08 -1.41183e-06 0)
(1.61364e-07 -1.40234e-06 0)
(2.69516e-07 -1.38361e-06 0)
(3.78452e-07 -1.35625e-06 0)
(4.88325e-07 -1.32102e-06 0)
(5.99269e-07 -1.27887e-06 0)
(7.1126e-07 -1.23101e-06 0)
(8.24068e-07 -1.17847e-06 0)
(9.37726e-07 -1.12246e-06 0)
(1.0512e-06 -1.06447e-06 0)
(5.27557e-08 -1.43728e-06 0)
(1.58341e-07 -1.42839e-06 0)
(2.64425e-07 -1.41082e-06 0)
(3.71191e-07 -1.38515e-06 0)
(4.78757e-07 -1.3521e-06 0)
(5.87278e-07 -1.3125e-06 0)
(6.96676e-07 -1.26749e-06 0)
(8.06744e-07 -1.21808e-06 0)
(9.1754e-07 -1.16529e-06 0)
(1.02809e-06 -1.11058e-06 0)
(5.17356e-08 -1.46302e-06 0)
(1.55357e-07 -1.45468e-06 0)
(2.59392e-07 -1.43816e-06 0)
(3.64055e-07 -1.41403e-06 0)
(4.69408e-07 -1.38294e-06 0)
(5.75638e-07 -1.34566e-06 0)
(6.82645e-07 -1.30326e-06 0)
(7.90221e-07 -1.25668e-06 0)
(8.98438e-07 -1.20685e-06 0)
(1.00639e-06 -1.15513e-06 0)
(5.07298e-08 -1.489e-06 0)
(1.52385e-07 -1.48116e-06 0)
(2.54359e-07 -1.46561e-06 0)
(3.56952e-07 -1.44286e-06 0)
(4.60167e-07 -1.41356e-06 0)
(5.64192e-07 -1.3784e-06 0)
(6.68952e-07 -1.33838e-06 0)
(7.74226e-07 -1.29439e-06 0)
(8.80089e-07 -1.24726e-06 0)
(9.85734e-07 -1.19828e-06 0)
(4.97272e-08 -1.51518e-06 0)
(1.49362e-07 -1.50779e-06 0)
(2.49253e-07 -1.49312e-06 0)
(3.49772e-07 -1.47164e-06 0)
(4.50893e-07 -1.44397e-06 0)
(5.52772e-07 -1.41076e-06 0)
(6.5538e-07 -1.37292e-06 0)
(7.58498e-07 -1.33129e-06 0)
(8.62199e-07 -1.28664e-06 0)
(9.65786e-07 -1.24017e-06 0)
(4.86892e-08 -1.54149e-06 0)
(1.46218e-07 -1.53451e-06 0)
(2.43995e-07 -1.52065e-06 0)
(3.42401e-07 -1.50034e-06 0)
(4.41431e-07 -1.47417e-06 0)
(5.41199e-07 -1.44275e-06 0)
(6.41717e-07 -1.4069e-06 0)
(7.42791e-07 -1.36745e-06 0)
(8.44489e-07 -1.32509e-06 0)
(9.46195e-07 -1.28093e-06 0)
(4.7587e-08 -1.56788e-06 0)
(1.42909e-07 -1.56127e-06 0)
(2.38514e-07 -1.54817e-06 0)
(3.34747e-07 -1.52894e-06 0)
(4.31645e-07 -1.50416e-06 0)
(5.29301e-07 -1.47438e-06 0)
(6.27753e-07 -1.44039e-06 0)
(7.26858e-07 -1.40294e-06 0)
(8.26644e-07 -1.3627e-06 0)
(9.26583e-07 -1.32066e-06 0)
(4.64154e-08 -1.59424e-06 0)
(1.39418e-07 -1.58798e-06 0)
(2.32756e-07 -1.57558e-06 0)
(3.26718e-07 -1.55737e-06 0)
(4.21403e-07 -1.53387e-06 0)
(5.16904e-07 -1.50563e-06 0)
(6.13286e-07 -1.47335e-06 0)
(7.10454e-07 -1.43779e-06 0)
(8.08366e-07 -1.39952e-06 0)
(9.06634e-07 -1.35944e-06 0)
(4.51746e-08 -1.62053e-06 0)
(1.35716e-07 -1.6146e-06 0)
(2.26632e-07 -1.60287e-06 0)
(3.18189e-07 -1.58561e-06 0)
(4.10551e-07 -1.56333e-06 0)
(5.03819e-07 -1.53652e-06 0)
(5.98085e-07 -1.50588e-06 0)
(6.93264e-07 -1.47207e-06 0)
(7.89323e-07 -1.43564e-06 0)
(8.85929e-07 -1.39741e-06 0)
(4.38484e-08 -1.64654e-06 0)
(1.31735e-07 -1.64092e-06 0)
(2.20036e-07 -1.62982e-06 0)
(3.0902e-07 -1.61347e-06 0)
(3.98904e-07 -1.59234e-06 0)
(4.89822e-07 -1.56691e-06 0)
(5.81875e-07 -1.53781e-06 0)
(6.74976e-07 -1.50568e-06 0)
(7.69161e-07 -1.471e-06 0)
(8.64111e-07 -1.43451e-06 0)
(4.24008e-08 -1.67234e-06 0)
(1.27377e-07 -1.66703e-06 0)
(2.12818e-07 -1.65653e-06 0)
(2.99023e-07 -1.64107e-06 0)
(3.86236e-07 -1.62106e-06 0)
(4.7463e-07 -1.59697e-06 0)
(5.64315e-07 -1.56936e-06 0)
(6.55253e-07 -1.53882e-06 0)
(7.47451e-07 -1.50584e-06 0)
(8.40724e-07 -1.47103e-06 0)
(4.08125e-08 -1.69736e-06 0)
(1.22611e-07 -1.69235e-06 0)
(2.04925e-07 -1.68245e-06 0)
(2.88099e-07 -1.66787e-06 0)
(3.72424e-07 -1.64897e-06 0)
(4.581e-07 -1.6262e-06 0)
(5.45234e-07 -1.60007e-06 0)
(6.33909e-07 -1.57113e-06 0)
(7.24038e-07 -1.53983e-06 0)
(8.15605e-07 -1.5067e-06 0)
)


// ************************************************************************* //
