/*--------------------------------*- C++ -*----------------------------------*\
| =========                 |                                                 |
| \\      /  F ield         | foam-extend: Open Source CFD                    |
|  \\    /   O peration     | Version:     4.1                                |
|   \\  /    A nd           | Web:         http://www.foam-extend.org         |
|    \\/     M anipulation  |                                                 |
\*---------------------------------------------------------------------------*/
FoamFile
{
    version     2.0;
    format      ascii;
    class       vectorField;
    location    "3";
    object      solidsCellD_iteration13;
}
// * * * * * * * * * * * * * * * * * * * * * * * * * * * * * * * * * * * * * //


1000
(
(1.51251e-06 -6.10994e-07 0)
(1.42988e-06 -5.70107e-07 0)
(1.37768e-06 -5.44838e-07 0)
(1.34822e-06 -5.33958e-07 0)
(1.33455e-06 -5.31406e-07 0)
(1.33242e-06 -5.35241e-07 0)
(1.33882e-06 -5.43277e-07 0)
(1.3515e-06 -5.54502e-07 0)
(1.3692e-06 -5.678e-07 0)
(1.39e-06 -5.82506e-07 0)
(1.36794e-06 -6.67594e-07 0)
(1.28001e-06 -6.39879e-07 0)
(1.22441e-06 -6.22965e-07 0)
(1.19239e-06 -6.17786e-07 0)
(1.17661e-06 -6.19045e-07 0)
(1.17255e-06 -6.25565e-07 0)
(1.17706e-06 -6.35491e-07 0)
(1.18782e-06 -6.48146e-07 0)
(1.2034e-06 -6.62515e-07 0)
(1.22188e-06 -6.78142e-07 0)
(1.21764e-06 -7.21198e-07 0)
(1.12783e-06 -7.08198e-07 0)
(1.07095e-06 -7.0064e-07 0)
(1.03777e-06 -7.01713e-07 0)
(1.02087e-06 -7.07073e-07 0)
(1.01549e-06 -7.16406e-07 0)
(1.01853e-06 -7.28289e-07 0)
(1.02766e-06 -7.42308e-07 0)
(1.04141e-06 -7.57712e-07 0)
(1.05806e-06 -7.73995e-07 0)
(1.06267e-06 -7.70876e-07 0)
(9.74818e-07 -7.73284e-07 0)
(9.19094e-07 -7.75515e-07 0)
(8.86248e-07 -7.83078e-07 0)
(8.6914e-07 -7.92671e-07 0)
(8.63047e-07 -8.04868e-07 0)
(8.64887e-07 -8.18688e-07 0)
(8.72553e-07 -8.34041e-07 0)
(8.8455e-07 -8.5044e-07 0)
(8.99315e-07 -8.67467e-07 0)
(9.0425e-07 -8.15639e-07 0)
(8.21982e-07 -8.33299e-07 0)
(7.6978e-07 -8.45202e-07 0)
(7.38848e-07 -8.59163e-07 0)
(7.22473e-07 -8.72906e-07 0)
(7.16162e-07 -8.87924e-07 0)
(7.17136e-07 -9.03633e-07 0)
(7.23451e-07 -9.20293e-07 0)
(7.33742e-07 -9.37678e-07 0)
(7.46501e-07 -9.55481e-07 0)
(7.42943e-07 -8.54617e-07 0)
(6.69992e-07 -8.86521e-07 0)
(6.237e-07 -9.07485e-07 0)
(5.96073e-07 -9.27447e-07 0)
(5.81252e-07 -9.45066e-07 0)
(5.75241e-07 -9.62694e-07 0)
(5.75675e-07 -9.80142e-07 0)
(5.80752e-07 -9.98011e-07 0)
(5.89282e-07 -1.01631e-06 0)
(5.99882e-07 -1.03489e-06 0)
(5.79724e-07 -8.86885e-07 0)
(5.19234e-07 -9.31279e-07 0)
(4.80841e-07 -9.60202e-07 0)
(4.57824e-07 -9.85433e-07 0)
(4.45389e-07 -1.00643e-06 0)
(4.40203e-07 -1.02634e-06 0)
(4.40319e-07 -1.0453e-06 0)
(4.44198e-07 -1.06424e-06 0)
(4.50882e-07 -1.08335e-06 0)
(4.59209e-07 -1.10264e-06 0)
(4.15071e-07 -9.11787e-07 0)
(3.69729e-07 -9.66227e-07 0)
(3.4098e-07 -1.00151e-06 0)
(3.23727e-07 -1.03091e-06 0)
(3.14371e-07 -1.05464e-06 0)
(3.10388e-07 -1.0764e-06 0)
(3.10319e-07 -1.09661e-06 0)
(3.13021e-07 -1.11643e-06 0)
(3.17815e-07 -1.13619e-06 0)
(3.23803e-07 -1.15606e-06 0)
(2.49438e-07 -9.28717e-07 0)
(2.2137e-07 -9.90149e-07 0)
(2.03614e-07 -1.02986e-06 0)
(1.92902e-07 -1.06224e-06 0)
(1.87039e-07 -1.08789e-06 0)
(1.845e-07 -1.1109e-06 0)
(1.84421e-07 -1.132e-06 0)
(1.86054e-07 -1.15247e-06 0)
(1.88934e-07 -1.1727e-06 0)
(1.92531e-07 -1.19299e-06 0)
(8.3308e-08 -9.37243e-07 0)
(7.38155e-08 -1.0023e-06 0)
(6.77408e-08 -1.0443e-06 0)
(6.40901e-08 -1.07819e-06 0)
(6.21371e-08 -1.10482e-06 0)
(6.12662e-08 -1.12852e-06 0)
(6.11791e-08 -1.15004e-06 0)
(6.17065e-08 -1.17082e-06 0)
(6.26844e-08 -1.1913e-06 0)
(6.38833e-08 -1.21183e-06 0)
(2.35528e-06 -2.78086e-08 0)
(2.37571e-06 -2.00461e-08 0)
(2.38869e-06 -1.5161e-08 0)
(2.40299e-06 -1.23186e-08 0)
(2.41895e-06 -1.0777e-08 0)
(2.43847e-06 -1.01413e-08 0)
(2.46159e-06 -1.01146e-08 0)
(2.48845e-06 -1.04253e-08 0)
(2.51904e-06 -1.10687e-08 0)
(2.55292e-06 -1.18575e-08 0)
(2.33793e-06 -8.34801e-08 0)
(2.35496e-06 -6.0641e-08 0)
(2.36583e-06 -4.62452e-08 0)
(2.37866e-06 -3.79761e-08 0)
(2.39365e-06 -3.35743e-08 0)
(2.41245e-06 -3.16629e-08 0)
(2.4351e-06 -3.15802e-08 0)
(2.46157e-06 -3.26858e-08 0)
(2.49179e-06 -3.46429e-08 0)
(2.52532e-06 -3.69057e-08 0)
(2.30336e-06 -1.39578e-07 0)
(2.31385e-06 -1.02969e-07 0)
(2.32059e-06 -7.99166e-08 0)
(2.33068e-06 -6.6578e-08 0)
(2.34386e-06 -5.95472e-08 0)
(2.3614e-06 -5.66771e-08 0)
(2.38306e-06 -5.66831e-08 0)
(2.40879e-06 -5.85409e-08 0)
(2.43831e-06 -6.17535e-08 0)
(2.47116e-06 -6.55299e-08 0)
(2.25212e-06 -1.96445e-07 0)
(2.25331e-06 -1.48004e-07 0)
(2.25413e-06 -1.17611e-07 0)
(2.26034e-06 -1.00118e-07 0)
(2.27091e-06 -9.09219e-08 0)
(2.28666e-06 -8.72589e-08 0)
(2.30696e-06 -8.74047e-08 0)
(2.33164e-06 -9.00762e-08 0)
(2.3602e-06 -9.45435e-08 0)
(2.39211e-06 -9.98277e-08 0)
(2.18497e-06 -2.5419e-07 0)
(2.1747e-06 -1.96585e-07 0)
(2.16821e-06 -1.60492e-07 0)
(2.16958e-06 -1.39903e-07 0)
(2.17694e-06 -1.29191e-07 0)
(2.19043e-06 -1.25126e-07 0)
(2.20905e-06 -1.25612e-07 0)
(2.23239e-06 -1.29167e-07 0)
(2.25976e-06 -1.34851e-07 0)
(2.29056e-06 -1.41577e-07 0)
(2.10285e-06 -3.12887e-07 0)
(2.07961e-06 -2.49303e-07 0)
(2.06491e-06 -2.09482e-07 0)
(2.06084e-06 -1.87035e-07 0)
(2.06455e-06 -1.75584e-07 0)
(2.07546e-06 -1.71567e-07 0)
(2.09219e-06 -1.72613e-07 0)
(2.11399e-06 -1.77095e-07 0)
(2.14002e-06 -1.83968e-07 0)
(2.16955e-06 -1.92078e-07 0)
(2.00702e-06 -3.72425e-07 0)
(1.97003e-06 -3.06389e-07 0)
(1.94663e-06 -2.65055e-07 0)
(1.93681e-06 -2.42132e-07 0)
(1.93667e-06 -2.3075e-07 0)
(1.94484e-06 -2.27269e-07 0)
(1.95955e-06 -2.29115e-07 0)
(1.97972e-06 -2.34574e-07 0)
(2.00429e-06 -2.42593e-07 0)
(2.0325e-06 -2.51983e-07 0)
(1.89867e-06 -4.32486e-07 0)
(1.84807e-06 -3.67695e-07 0)
(1.81609e-06 -3.2716e-07 0)
(1.80053e-06 -3.05217e-07 0)
(1.79658e-06 -2.94776e-07 0)
(1.80199e-06 -2.92359e-07 0)
(1.81462e-06 -2.95289e-07 0)
(1.83309e-06 -3.01855e-07 0)
(1.85615e-06 -3.11013e-07 0)
(1.88293e-06 -3.21599e-07 0)
(1.7792e-06 -4.92686e-07 0)
(1.71596e-06 -4.3269e-07 0)
(1.67598e-06 -3.95267e-07 0)
(1.65502e-06 -3.75732e-07 0)
(1.64743e-06 -3.67115e-07 0)
(1.65011e-06 -3.66259e-07 0)
(1.66061e-06 -3.70551e-07 0)
(1.67731e-06 -3.78331e-07 0)
(1.6988e-06 -3.88657e-07 0)
(1.72414e-06 -4.00185e-07 0)
(1.65003e-06 -5.52447e-07 0)
(1.57593e-06 -5.00551e-07 0)
(1.52906e-06 -4.68305e-07 0)
(1.50338e-06 -4.5254e-07 0)
(1.4925e-06 -4.46597e-07 0)
(1.49271e-06 -4.47825e-07 0)
(1.50132e-06 -4.53824e-07 0)
(1.51627e-06 -4.63154e-07 0)
(1.53634e-06 -4.74801e-07 0)
(1.55987e-06 -4.8797e-07 0)
(2.59015e-06 -1.25913e-08 0)
(2.63067e-06 -1.28098e-08 0)
(2.67372e-06 -1.30322e-08 0)
(2.71913e-06 -1.32041e-08 0)
(2.76663e-06 -1.33195e-08 0)
(2.81607e-06 -1.33688e-08 0)
(2.86722e-06 -1.332e-08 0)
(2.91987e-06 -1.32047e-08 0)
(2.97391e-06 -1.3041e-08 0)
(3.0292e-06 -1.27974e-08 0)
(3.08554e-06 -1.24505e-08 0)
(3.14278e-06 -1.19969e-08 0)
(3.20079e-06 -1.14347e-08 0)
(3.25939e-06 -1.0766e-08 0)
(3.31845e-06 -9.98364e-09 0)
(3.37779e-06 -9.06351e-09 0)
(3.43729e-06 -7.97507e-09 0)
(3.49663e-06 -6.69322e-09 0)
(3.55582e-06 -5.19466e-09 0)
(3.6141e-06 -3.47146e-09 0)
(2.56375e-06 -3.89482e-08 0)
(2.60646e-06 -3.94475e-08 0)
(2.65147e-06 -3.99788e-08 0)
(2.6986e-06 -4.03704e-08 0)
(2.74765e-06 -4.05644e-08 0)
(2.79843e-06 -4.06014e-08 0)
(2.8508e-06 -4.04498e-08 0)
(2.90459e-06 -4.01157e-08 0)
(2.95968e-06 -3.95628e-08 0)
(3.01588e-06 -3.8736e-08 0)
(3.07307e-06 -3.76332e-08 0)
(3.13111e-06 -3.62648e-08 0)
(3.18988e-06 -3.46029e-08 0)
(3.24921e-06 -3.26079e-08 0)
(3.30897e-06 -3.02346e-08 0)
(3.36897e-06 -2.74332e-08 0)
(3.4291e-06 -2.41414e-08 0)
(3.48903e-06 -2.02982e-08 0)
(3.54881e-06 -1.58183e-08 0)
(3.60764e-06 -1.06643e-08 0)
(2.51195e-06 -6.85653e-08 0)
(2.55899e-06 -6.88695e-08 0)
(2.60784e-06 -6.92541e-08 0)
(2.65827e-06 -6.9535e-08 0)
(2.71029e-06 -6.95808e-08 0)
(2.76376e-06 -6.94324e-08 0)
(2.81857e-06 -6.89928e-08 0)
(2.87453e-06 -6.82505e-08 0)
(2.93159e-06 -6.71564e-08 0)
(2.9896e-06 -6.56644e-08 0)
(3.04847e-06 -6.37733e-08 0)
(3.10808e-06 -6.14659e-08 0)
(3.1683e-06 -5.86683e-08 0)
(3.22899e-06 -5.5307e-08 0)
(3.29003e-06 -5.13181e-08 0)
(3.35126e-06 -4.66311e-08 0)
(3.4126e-06 -4.11432e-08 0)
(3.47372e-06 -3.47532e-08 0)
(3.53469e-06 -2.73089e-08 0)
(3.59472e-06 -1.87371e-08 0)
(2.43624e-06 -1.03265e-07 0)
(2.48942e-06 -1.02611e-07 0)
(2.54383e-06 -1.02167e-07 0)
(2.59913e-06 -1.01817e-07 0)
(2.65555e-06 -1.01288e-07 0)
(2.7129e-06 -1.00613e-07 0)
(2.77122e-06 -9.96027e-08 0)
(2.83037e-06 -9.82471e-08 0)
(2.89037e-06 -9.64635e-08 0)
(2.9511e-06 -9.41923e-08 0)
(3.01247e-06 -9.14034e-08 0)
(3.07438e-06 -8.80445e-08 0)
(3.13675e-06 -8.40164e-08 0)
(3.19946e-06 -7.92335e-08 0)
(3.26242e-06 -7.3619e-08 0)
(3.32549e-06 -6.70571e-08 0)
(3.38858e-06 -5.94044e-08 0)
(3.45143e-06 -5.05037e-08 0)
(3.51405e-06 -4.01289e-08 0)
(3.57577e-06 -2.82037e-08 0)
(2.3389e-06 -1.4464e-07 0)
(2.39985e-06 -1.42062e-07 0)
(2.46133e-06 -1.39955e-07 0)
(2.52277e-06 -1.38341e-07 0)
(2.58477e-06 -1.3668e-07 0)
(2.6471e-06 -1.35025e-07 0)
(2.70996e-06 -1.33074e-07 0)
(2.77323e-06 -1.30821e-07 0)
(2.83699e-06 -1.28111e-07 0)
(2.90115e-06 -1.24857e-07 0)
(2.96571e-06 -1.21012e-07 0)
(3.03062e-06 -1.16493e-07 0)
(3.09579e-06 -1.11166e-07 0)
(3.16115e-06 -1.04917e-07 0)
(3.22663e-06 -9.76398e-08 0)
(3.29209e-06 -8.91797e-08 0)
(3.35749e-06 -7.93575e-08 0)
(3.42255e-06 -6.79721e-08 0)
(3.48738e-06 -5.4711e-08 0)
(3.55128e-06 -3.95047e-08 0)
(2.22262e-06 -1.93905e-07 0)
(2.2925e-06 -1.88262e-07 0)
(2.36229e-06 -1.8345e-07 0)
(2.43103e-06 -1.79767e-07 0)
(2.49969e-06 -1.76318e-07 0)
(2.56801e-06 -1.73153e-07 0)
(2.63624e-06 -1.69823e-07 0)
(2.70444e-06 -1.6629e-07 0)
(2.77271e-06 -1.62369e-07 0)
(2.84105e-06 -1.57932e-07 0)
(2.90949e-06 -1.52883e-07 0)
(2.978e-06 -1.47088e-07 0)
(3.04655e-06 -1.40375e-07 0)
(3.11507e-06 -1.32601e-07 0)
(3.18355e-06 -1.23624e-07 0)
(3.25186e-06 -1.13262e-07 0)
(3.32003e-06 -1.01285e-07 0)
(3.38776e-06 -8.7465e-08 0)
(3.45525e-06 -7.14036e-08 0)
(3.52179e-06 -5.29901e-08 0)
(2.0907e-06 -2.51723e-07 0)
(2.17032e-06 -2.41882e-07 0)
(2.2493e-06 -2.33352e-07 0)
(2.32616e-06 -2.26729e-07 0)
(2.40222e-06 -2.20779e-07 0)
(2.47724e-06 -2.15472e-07 0)
(2.55159e-06 -2.10313e-07 0)
(2.62539e-06 -2.05134e-07 0)
(2.69882e-06 -1.99708e-07 0)
(2.77194e-06 -1.93851e-07 0)
(2.84482e-06 -1.874e-07 0)
(2.91747e-06 -1.80165e-07 0)
(2.98987e-06 -1.71939e-07 0)
(3.06204e-06 -1.62558e-07 0)
(3.13397e-06 -1.51839e-07 0)
(3.2056e-06 -1.39574e-07 0)
(3.27697e-06 -1.25473e-07 0)
(3.3478e-06 -1.09262e-07 0)
(3.41832e-06 -9.04752e-08 0)
(3.48788e-06 -6.89482e-08 0)
(1.94624e-06 -3.18342e-07 0)
(2.03593e-06 -3.02976e-07 0)
(2.1246e-06 -2.89663e-07 0)
(2.21018e-06 -2.79118e-07 0)
(2.2943e-06 -2.69948e-07 0)
(2.37663e-06 -2.6188e-07 0)
(2.45775e-06 -2.54396e-07 0)
(2.53776e-06 -2.47184e-07 0)
(2.6169e-06 -2.39946e-07 0)
(2.6953e-06 -2.32422e-07 0)
(2.77307e-06 -2.24376e-07 0)
(2.85027e-06 -2.15564e-07 0)
(2.92695e-06 -2.05747e-07 0)
(3.00316e-06 -1.94725e-07 0)
(3.07895e-06 -1.8227e-07 0)
(3.15428e-06 -1.6813e-07 0)
(3.22918e-06 -1.51959e-07 0)
(3.30346e-06 -1.3343e-07 0)
(3.37734e-06 -1.12005e-07 0)
(3.45025e-06 -8.74754e-08 0)
(1.79264e-06 -3.93572e-07 0)
(1.89251e-06 -3.71677e-07 0)
(1.99095e-06 -3.52941e-07 0)
(2.08559e-06 -3.37627e-07 0)
(2.17806e-06 -3.24533e-07 0)
(2.26811e-06 -3.13096e-07 0)
(2.35635e-06 -3.02754e-07 0)
(2.44294e-06 -2.93055e-07 0)
(2.52818e-06 -2.8363e-07 0)
(2.61224e-06 -2.74128e-07 0)
(2.69527e-06 -2.64241e-07 0)
(2.77739e-06 -2.53674e-07 0)
(2.85871e-06 -2.42145e-07 0)
(2.93933e-06 -2.29405e-07 0)
(3.0193e-06 -2.15174e-07 0)
(3.09864e-06 -1.99143e-07 0)
(3.17738e-06 -1.80913e-07 0)
(3.2554e-06 -1.60107e-07 0)
(3.33292e-06 -1.36131e-07 0)
(3.4095e-06 -1.08733e-07 0)
(1.63295e-06 -4.76244e-07 0)
(1.74356e-06 -4.45807e-07 0)
(1.85165e-06 -4.20861e-07 0)
(1.95568e-06 -4.00029e-07 0)
(2.05662e-06 -3.82455e-07 0)
(2.1547e-06 -3.6721e-07 0)
(2.25029e-06 -3.53644e-07 0)
(2.34371e-06 -3.41184e-07 0)
(2.43529e-06 -3.29365e-07 0)
(2.52523e-06 -3.17745e-07 0)
(2.61374e-06 -3.05934e-07 0)
(2.70099e-06 -2.93579e-07 0)
(2.78714e-06 -2.80344e-07 0)
(2.87232e-06 -2.6592e-07 0)
(2.95662e-06 -2.49973e-07 0)
(3.04008e-06 -2.32137e-07 0)
(3.12281e-06 -2.11968e-07 0)
(3.2047e-06 -1.8902e-07 0)
(3.28604e-06 -1.62668e-07 0)
(3.36646e-06 -1.32577e-07 0)
(1.51273e-06 -5.57437e-07 0)
(1.6311e-06 -5.19534e-07 0)
(1.74536e-06 -4.89597e-07 0)
(1.85566e-06 -4.64025e-07 0)
(1.96232e-06 -4.42277e-07 0)
(2.06576e-06 -4.23302e-07 0)
(2.16634e-06 -4.06394e-07 0)
(2.26442e-06 -3.90945e-07 0)
(2.36032e-06 -3.76426e-07 0)
(2.45425e-06 -3.62339e-07 0)
(2.54647e-06 -3.48261e-07 0)
(2.63716e-06 -3.33803e-07 0)
(2.72651e-06 -3.18589e-07 0)
(2.81467e-06 -3.02269e-07 0)
(2.90174e-06 -2.84474e-07 0)
(2.98782e-06 -2.64794e-07 0)
(3.07302e-06 -2.4279e-07 0)
(3.15734e-06 -2.17953e-07 0)
(3.24105e-06 -1.89669e-07 0)
(3.32389e-06 -1.5754e-07 0)
(1.44497e-06 -6.24341e-07 0)
(1.56437e-06 -5.84941e-07 0)
(1.6797e-06 -5.52123e-07 0)
(1.79169e-06 -5.23572e-07 0)
(1.9003e-06 -4.98778e-07 0)
(2.00578e-06 -4.7685e-07 0)
(2.10842e-06 -4.57121e-07 0)
(2.20849e-06 -4.38998e-07 0)
(2.30626e-06 -4.21945e-07 0)
(2.40194e-06 -4.05468e-07 0)
(2.49575e-06 -3.89146e-07 0)
(2.58791e-06 -3.72581e-07 0)
(2.67858e-06 -3.5538e-07 0)
(2.76792e-06 -3.37178e-07 0)
(2.85604e-06 -3.17602e-07 0)
(2.94307e-06 -2.9622e-07 0)
(3.02912e-06 -2.7263e-07 0)
(3.11428e-06 -2.46306e-07 0)
(3.19877e-06 -2.16664e-07 0)
(3.28245e-06 -1.833e-07 0)
(1.38799e-06 -6.88002e-07 0)
(1.50619e-06 -6.47863e-07 0)
(1.62147e-06 -6.13345e-07 0)
(1.73388e-06 -5.82655e-07 0)
(1.84331e-06 -5.55423e-07 0)
(1.94986e-06 -5.30953e-07 0)
(2.05372e-06 -5.08671e-07 0)
(2.15507e-06 -4.88039e-07 0)
(2.25409e-06 -4.68554e-07 0)
(2.35099e-06 -4.49754e-07 0)
(2.44597e-06 -4.31227e-07 0)
(2.53922e-06 -4.12578e-07 0)
(2.6309e-06 -3.93405e-07 0)
(2.72116e-06 -3.73343e-07 0)
(2.81012e-06 -3.52023e-07 0)
(2.89794e-06 -3.29004e-07 0)
(2.98472e-06 -3.03913e-07 0)
(3.0706e-06 -2.76238e-07 0)
(3.15579e-06 -2.45425e-07 0)
(3.24026e-06 -2.11093e-07 0)
(1.33804e-06 -7.49544e-07 0)
(1.45459e-06 -7.09131e-07 0)
(1.56894e-06 -6.73358e-07 0)
(1.68093e-06 -6.40914e-07 0)
(1.79037e-06 -6.11592e-07 0)
(1.89725e-06 -5.84871e-07 0)
(2.00167e-06 -5.60269e-07 0)
(2.1037e-06 -5.37313e-07 0)
(2.20349e-06 -5.15547e-07 0)
(2.30121e-06 -4.94545e-07 0)
(2.39702e-06 -4.73917e-07 0)
(2.49107e-06 -4.53274e-07 0)
(2.58352e-06 -4.32213e-07 0)
(2.67452e-06 -4.10379e-07 0)
(2.76418e-06 -3.87409e-07 0)
(2.85266e-06 -3.62873e-07 0)
(2.94009e-06 -3.36425e-07 0)
(3.02663e-06 -3.07571e-07 0)
(3.11246e-06 -2.75804e-07 0)
(3.1977e-06 -2.40788e-07 0)
(1.29425e-06 -8.08419e-07 0)
(1.40872e-06 -7.68094e-07 0)
(1.52161e-06 -7.31592e-07 0)
(1.63257e-06 -6.9789e-07 0)
(1.74142e-06 -6.66926e-07 0)
(1.84806e-06 -6.38325e-07 0)
(1.95247e-06 -6.11698e-07 0)
(2.0547e-06 -5.86656e-07 0)
(2.15484e-06 -5.62805e-07 0)
(2.253e-06 -5.39758e-07 0)
(2.34931e-06 -5.17156e-07 0)
(2.4439e-06 -4.94624e-07 0)
(2.5369e-06 -4.7177e-07 0)
(2.62844e-06 -4.4826e-07 0)
(2.71864e-06 -4.23739e-07 0)
(2.80767e-06 -3.97801e-07 0)
(2.89565e-06 -3.70124e-07 0)
(2.98276e-06 -3.40242e-07 0)
(3.06918e-06 -3.0771e-07 0)
(3.15513e-06 -2.72248e-07 0)
(1.25545e-06 -8.64875e-07 0)
(1.36766e-06 -8.24862e-07 0)
(1.47879e-06 -7.87944e-07 0)
(1.58832e-06 -7.53334e-07 0)
(1.69617e-06 -7.21079e-07 0)
(1.80211e-06 -6.90912e-07 0)
(1.9061e-06 -6.62541e-07 0)
(2.00814e-06 -6.35666e-07 0)
(2.10826e-06 -6.09946e-07 0)
(2.20654e-06 -5.85039e-07 0)
(2.30307e-06 -5.60621e-07 0)
(2.39793e-06 -5.36339e-07 0)
(2.49126e-06 -5.11819e-07 0)
(2.58317e-06 -4.86756e-07 0)
(2.67376e-06 -4.60804e-07 0)
(2.76322e-06 -4.33602e-07 0)
(2.85164e-06 -4.04838e-07 0)
(2.93924e-06 -3.74092e-07 0)
(3.02621e-06 -3.40985e-07 0)
(3.11277e-06 -3.05277e-07 0)
(1.22086e-06 -9.18996e-07 0)
(1.33071e-06 -8.79455e-07 0)
(1.43987e-06 -8.42372e-07 0)
(1.54775e-06 -8.0715e-07 0)
(1.65429e-06 -7.73912e-07 0)
(1.7592e-06 -7.42469e-07 0)
(1.86244e-06 -7.12632e-07 0)
(1.96397e-06 -6.84174e-07 0)
(2.06378e-06 -6.56805e-07 0)
(2.1619e-06 -6.30228e-07 0)
(2.25839e-06 -6.0416e-07 0)
(2.35331e-06 -5.78276e-07 0)
(2.44677e-06 -5.52226e-07 0)
(2.53888e-06 -5.25746e-07 0)
(2.62973e-06 -4.98493e-07 0)
(2.71949e-06 -4.70158e-07 0)
(2.80826e-06 -4.4045e-07 0)
(2.89627e-06 -4.08994e-07 0)
(2.98371e-06 -3.75478e-07 0)
(3.07078e-06 -3.39678e-07 0)
(1.18971e-06 -9.70945e-07 0)
(1.29723e-06 -9.31967e-07 0)
(1.4043e-06 -8.94894e-07 0)
(1.51038e-06 -8.59286e-07 0)
(1.61539e-06 -8.25306e-07 0)
(1.71905e-06 -7.92842e-07 0)
(1.8213e-06 -7.6179e-07 0)
(1.92206e-06 -7.31984e-07 0)
(2.02131e-06 -7.03177e-07 0)
(2.11904e-06 -6.75123e-07 0)
(2.21528e-06 -6.47579e-07 0)
(2.31007e-06 -6.20251e-07 0)
(2.40351e-06 -5.92821e-07 0)
(2.49567e-06 -5.65065e-07 0)
(2.58666e-06 -5.36654e-07 0)
(2.67663e-06 -5.07325e-07 0)
(2.76568e-06 -4.76818e-07 0)
(2.85403e-06 -4.44802e-07 0)
(2.94186e-06 -4.11017e-07 0)
(3.02935e-06 -3.75253e-07 0)
(1.16135e-06 -1.02089e-06 0)
(1.26655e-06 -9.82517e-07 0)
(1.37151e-06 -9.45577e-07 0)
(1.4757e-06 -9.09748e-07 0)
(1.57905e-06 -8.75227e-07 0)
(1.68132e-06 -8.41963e-07 0)
(1.78242e-06 -8.09919e-07 0)
(1.88224e-06 -7.78978e-07 0)
(1.98074e-06 -7.48936e-07 0)
(2.0779e-06 -7.19593e-07 0)
(2.17373e-06 -6.9075e-07 0)
(2.26825e-06 -6.62142e-07 0)
(2.36154e-06 -6.33486e-07 0)
(2.45365e-06 -6.046e-07 0)
(2.54468e-06 -5.75175e-07 0)
(2.63478e-06 -5.4499e-07 0)
(2.72403e-06 -5.13824e-07 0)
(2.81266e-06 -4.81378e-07 0)
(2.90077e-06 -4.47434e-07 0)
(2.98868e-06 -4.11829e-07 0)
(1.13519e-06 -1.06898e-06 0)
(1.23812e-06 -1.03123e-06 0)
(1.34098e-06 -9.94503e-07 0)
(1.44325e-06 -9.58578e-07 0)
(1.54491e-06 -9.23679e-07 0)
(1.6457e-06 -8.89802e-07 0)
(1.74554e-06 -8.56956e-07 0)
(1.84432e-06 -8.25072e-07 0)
(1.94195e-06 -7.93983e-07 0)
(2.03842e-06 -7.63533e-07 0)
(2.13372e-06 -7.33562e-07 0)
(2.22785e-06 -7.03837e-07 0)
(2.32088e-06 -6.74113e-07 0)
(2.41285e-06 -6.44244e-07 0)
(2.50384e-06 -6.1395e-07 0)
(2.59399e-06 -5.83046e-07 0)
(2.68338e-06 -5.51347e-07 0)
(2.7722e-06 -5.18579e-07 0)
(2.86055e-06 -4.84577e-07 0)
(2.94877e-06 -4.49239e-07 0)
(1.11072e-06 -1.11538e-06 0)
(1.21144e-06 -1.07825e-06 0)
(1.31225e-06 -1.04177e-06 0)
(1.41263e-06 -1.00585e-06 0)
(1.5126e-06 -9.70706e-07 0)
(1.6119e-06 -9.36367e-07 0)
(1.71042e-06 -9.02884e-07 0)
(1.80807e-06 -8.70227e-07 0)
(1.90476e-06 -8.38265e-07 0)
(2.00045e-06 -8.06879e-07 0)
(2.09513e-06 -7.75946e-07 0)
(2.18879e-06 -7.45263e-07 0)
(2.28149e-06 -7.14623e-07 0)
(2.37324e-06 -6.83914e-07 0)
(2.46413e-06 -6.52885e-07 0)
(2.55428e-06 -6.21389e-07 0)
(2.64373e-06 -5.89263e-07 0)
(2.73266e-06 -5.56268e-07 0)
(2.82123e-06 -5.22302e-07 0)
(2.90966e-06 -4.87295e-07 0)
(1.08747e-06 -1.16024e-06 0)
(1.1861e-06 -1.12369e-06 0)
(1.28492e-06 -1.08751e-06 0)
(1.38349e-06 -1.05166e-06 0)
(1.48178e-06 -1.01637e-06 0)
(1.57957e-06 -9.81691e-07 0)
(1.67676e-06 -9.47713e-07 0)
(1.77325e-06 -9.14434e-07 0)
(1.86895e-06 -8.81757e-07 0)
(1.96383e-06 -8.4959e-07 0)
(2.05785e-06 -8.17848e-07 0)
(2.151e-06 -7.86358e-07 0)
(2.24332e-06 -7.54947e-07 0)
(2.33483e-06 -7.23535e-07 0)
(2.42558e-06 -6.919e-07 0)
(2.51566e-06 -6.59921e-07 0)
(2.60513e-06 -6.27462e-07 0)
(2.69415e-06 -5.94329e-07 0)
(2.78287e-06 -5.6048e-07 0)
(2.87146e-06 -5.25825e-07 0)
(1.06509e-06 -1.2037e-06 0)
(1.16174e-06 -1.1677e-06 0)
(1.25865e-06 -1.13183e-06 0)
(1.35545e-06 -1.0961e-06 0)
(1.45212e-06 -1.06074e-06 0)
(1.54842e-06 -1.02582e-06 0)
(1.64429e-06 -9.91472e-07 0)
(1.73963e-06 -9.57705e-07 0)
(1.83436e-06 -9.24458e-07 0)
(1.92842e-06 -8.91657e-07 0)
(2.02178e-06 -8.59255e-07 0)
(2.1144e-06 -8.27104e-07 0)
(2.20632e-06 -7.9506e-07 0)
(2.29755e-06 -7.63072e-07 0)
(2.38811e-06 -7.30943e-07 0)
(2.4781e-06 -6.98574e-07 0)
(2.56753e-06 -6.65866e-07 0)
(2.65662e-06 -6.32672e-07 0)
(2.74538e-06 -5.98982e-07 0)
(2.83411e-06 -5.64715e-07 0)
(1.04323e-06 -1.24588e-06 0)
(1.13798e-06 -1.21041e-06 0)
(1.23308e-06 -1.17484e-06 0)
(1.32818e-06 -1.13926e-06 0)
(1.42328e-06 -1.10389e-06 0)
(1.51816e-06 -1.06882e-06 0)
(1.61278e-06 -1.03421e-06 0)
(1.70701e-06 -1.00009e-06 0)
(1.80079e-06 -9.664e-07 0)
(1.89404e-06 -9.33101e-07 0)
(1.98673e-06 -9.00167e-07 0)
(2.07883e-06 -8.67477e-07 0)
(2.17034e-06 -8.34916e-07 0)
(2.26127e-06 -8.02459e-07 0)
(2.35163e-06 -7.6993e-07 0)
(2.4415e-06 -7.37255e-07 0)
(2.53088e-06 -7.04374e-07 0)
(2.61997e-06 -6.71176e-07 0)
(2.70876e-06 -6.37659e-07 0)
(2.79755e-06 -6.03825e-07 0)
(1.0215e-06 -1.28691e-06 0)
(1.11446e-06 -1.25192e-06 0)
(1.20783e-06 -1.21665e-06 0)
(1.30132e-06 -1.18124e-06 0)
(1.39495e-06 -1.14592e-06 0)
(1.4885e-06 -1.11078e-06 0)
(1.58194e-06 -1.07601e-06 0)
(1.67512e-06 -1.04162e-06 0)
(1.768e-06 -1.00761e-06 0)
(1.8605e-06 -9.73924e-07 0)
(1.95258e-06 -9.40583e-07 0)
(2.04418e-06 -9.07478e-07 0)
(2.13532e-06 -8.74515e-07 0)
(2.22597e-06 -8.41689e-07 0)
(2.31613e-06 -8.08842e-07 0)
(2.40586e-06 -7.75932e-07 0)
(2.4952e-06 -7.42936e-07 0)
(2.58424e-06 -7.09769e-07 0)
(2.67307e-06 -6.7646e-07 0)
(2.76188e-06 -6.43043e-07 0)
(9.99514e-07 -1.32689e-06 0)
(1.09077e-06 -1.29237e-06 0)
(1.18251e-06 -1.25736e-06 0)
(1.27453e-06 -1.22214e-06 0)
(1.3668e-06 -1.18692e-06 0)
(1.45914e-06 -1.15179e-06 0)
(1.55151e-06 -1.11693e-06 0)
(1.64375e-06 -1.08239e-06 0)
(1.73582e-06 -1.04815e-06 0)
(1.82762e-06 -1.01419e-06 0)
(1.91913e-06 -9.80548e-07 0)
(2.01029e-06 -9.47129e-07 0)
(2.10107e-06 -9.13858e-07 0)
(2.19145e-06 -8.80736e-07 0)
(2.28142e-06 -8.47637e-07 0)
(2.37105e-06 -8.14557e-07 0)
(2.46033e-06 -7.81492e-07 0)
(2.54933e-06 -7.48363e-07 0)
(2.63815e-06 -7.1528e-07 0)
(2.72697e-06 -6.82276e-07 0)
(9.76892e-07 -1.36596e-06 0)
(1.06651e-06 -1.33178e-06 0)
(1.15672e-06 -1.29709e-06 0)
(1.24746e-06 -1.26212e-06 0)
(1.33851e-06 -1.22703e-06 0)
(1.42979e-06 -1.19197e-06 0)
(1.52119e-06 -1.15709e-06 0)
(1.61261e-06 -1.12247e-06 0)
(1.70397e-06 -1.08808e-06 0)
(1.7952e-06 -1.05395e-06 0)
(1.88623e-06 -1.0201e-06 0)
(1.977e-06 -9.8645e-07 0)
(2.06748e-06 -9.5294e-07 0)
(2.15765e-06 -9.19598e-07 0)
(2.24747e-06 -8.86323e-07 0)
(2.33703e-06 -8.5311e-07 0)
(2.42624e-06 -8.19977e-07 0)
(2.51524e-06 -7.86907e-07 0)
(2.60401e-06 -7.54052e-07 0)
(2.69282e-06 -7.21423e-07 0)
(9.5313e-07 -1.40409e-06 0)
(1.04134e-06 -1.3703e-06 0)
(1.13029e-06 -1.33597e-06 0)
(1.21982e-06 -1.30125e-06 0)
(1.30984e-06 -1.26636e-06 0)
(1.40019e-06 -1.23141e-06 0)
(1.49079e-06 -1.19657e-06 0)
(1.58153e-06 -1.16195e-06 0)
(1.67232e-06 -1.12751e-06 0)
(1.76308e-06 -1.09327e-06 0)
(1.85373e-06 -1.05929e-06 0)
(1.94419e-06 -1.02549e-06 0)
(2.03444e-06 -9.91821e-07 0)
(2.12446e-06 -9.58309e-07 0)
(2.21421e-06 -9.24891e-07 0)
(2.3037e-06 -8.91592e-07 0)
(2.39287e-06 -8.58411e-07 0)
(2.48192e-06 -8.25371e-07 0)
(2.57071e-06 -7.92703e-07 0)
(2.65945e-06 -7.60467e-07 0)
(9.27876e-07 -1.44164e-06 0)
(1.0148e-06 -1.40825e-06 0)
(1.10265e-06 -1.37422e-06 0)
(1.1912e-06 -1.33978e-06 0)
(1.28036e-06 -1.30509e-06 0)
(1.36999e-06 -1.2703e-06 0)
(1.45999e-06 -1.23556e-06 0)
(1.55025e-06 -1.20097e-06 0)
(1.64064e-06 -1.16653e-06 0)
(1.73106e-06 -1.13227e-06 0)
(1.82144e-06 -1.09821e-06 0)
(1.91172e-06 -1.0643e-06 0)
(2.00186e-06 -1.03051e-06 0)
(2.09178e-06 -9.96916e-07 0)
(2.18147e-06 -9.63387e-07 0)
(2.27098e-06 -9.2995e-07 0)
(2.36024e-06 -8.96742e-07 0)
(2.44929e-06 -8.63738e-07 0)
(2.53815e-06 -8.31163e-07 0)
(2.62688e-06 -7.99242e-07 0)
(9.00835e-07 -1.47835e-06 0)
(9.86679e-07 -1.44542e-06 0)
(1.0736e-06 -1.4118e-06 0)
(1.16139e-06 -1.37771e-06 0)
(1.24993e-06 -1.34329e-06 0)
(1.3391e-06 -1.30869e-06 0)
(1.42873e-06 -1.27412e-06 0)
(1.5187e-06 -1.23966e-06 0)
(1.60886e-06 -1.20527e-06 0)
(1.69914e-06 -1.17098e-06 0)
(1.78942e-06 -1.1369e-06 0)
(1.87961e-06 -1.10297e-06 0)
(1.96969e-06 -1.0691e-06 0)
(2.05961e-06 -1.0354e-06 0)
(2.14932e-06 -1.00181e-06 0)
(2.23886e-06 -9.68311e-07 0)
(2.32826e-06 -9.35035e-07 0)
(2.41743e-06 -9.01984e-07 0)
(2.50647e-06 -8.69434e-07 0)
(2.59527e-06 -8.37688e-07 0)
(6.37623e-08 -1.23276e-06 0)
(1.92074e-07 -1.21482e-06 0)
(3.22668e-07 -1.17959e-06 0)
(4.56888e-07 -1.12856e-06 0)
(5.95712e-07 -1.06369e-06 0)
(7.39758e-07 -9.87399e-07 0)
(8.89246e-07 -9.02533e-07 0)
(1.04387e-06 -8.11952e-07 0)
(1.20337e-06 -7.18558e-07 0)
(1.36626e-06 -6.24514e-07 0)
(6.20851e-08 -1.25456e-06 0)
(1.86935e-07 -1.23815e-06 0)
(3.13642e-07 -1.20592e-06 0)
(4.43353e-07 -1.15914e-06 0)
(5.76886e-07 -1.09946e-06 0)
(7.14722e-07 -1.02894e-06 0)
(8.57101e-07 -9.49998e-07 0)
(1.00357e-06 -8.65161e-07 0)
(1.15377e-06 -7.76994e-07 0)
(1.3061e-06 -6.87849e-07 0)
(6.05589e-08 -1.27684e-06 0)
(1.82252e-07 -1.26183e-06 0)
(3.05448e-07 -1.23231e-06 0)
(4.3103e-07 -1.18938e-06 0)
(5.59729e-07 -1.13449e-06 0)
(6.91887e-07 -1.06944e-06 0)
(8.27774e-07 -9.96281e-07 0)
(9.67099e-07 -9.17194e-07 0)
(1.10964e-06 -8.34342e-07 0)
(1.25415e-06 -7.49668e-07 0)
(5.92092e-08 -1.29963e-06 0)
(1.7808e-07 -1.2858e-06 0)
(2.98243e-07 -1.2586e-06 0)
(4.20316e-07 -1.21898e-06 0)
(5.44959e-07 -1.16823e-06 0)
(6.72406e-07 -1.10791e-06 0)
(8.02864e-07 -1.03987e-06 0)
(9.3606e-07 -9.66045e-07 0)
(1.07175e-06 -8.88441e-07 0)
(1.20895e-06 -8.08786e-07 0)
(5.79843e-08 -1.32294e-06 0)
(1.74257e-07 -1.31018e-06 0)
(2.91629e-07 -1.28506e-06 0)
(4.10532e-07 -1.24843e-06 0)
(5.31541e-07 -1.20142e-06 0)
(6.5483e-07 -1.14547e-06 0)
(7.80578e-07 -1.08219e-06 0)
(9.08556e-07 -1.01324e-06 0)
(1.03855e-06 -9.40452e-07 0)
(1.16956e-06 -8.65437e-07 0)
(5.6826e-08 -1.34673e-06 0)
(1.70736e-07 -1.33489e-06 0)
(2.85548e-07 -1.31158e-06 0)
(4.01629e-07 -1.27759e-06 0)
(5.19435e-07 -1.23389e-06 0)
(6.39121e-07 -1.1818e-06 0)
(7.60756e-07 -1.12281e-06 0)
(8.84153e-07 -1.05835e-06 0)
(1.00917e-06 -9.90125e-07 0)
(1.1348e-06 -9.1966e-07 0)
(5.57161e-08 -1.37098e-06 0)
(1.67399e-07 -1.35998e-06 0)
(2.79815e-07 -1.33829e-06 0)
(3.93315e-07 -1.30666e-06 0)
(5.08204e-07 -1.26594e-06 0)
(6.24673e-07 -1.21736e-06 0)
(7.42729e-07 -1.16225e-06 0)
(8.62158e-07 -1.1019e-06 0)
(9.82909e-07 -1.03785e-06 0)
(1.10393e-06 -9.71611e-07 0)
(5.46829e-08 -1.39564e-06 0)
(1.64214e-07 -1.38539e-06 0)
(2.74374e-07 -1.36515e-06 0)
(3.85474e-07 -1.33561e-06 0)
(4.97714e-07 -1.29757e-06 0)
(6.11264e-07 -1.25213e-06 0)
(7.26133e-07 -1.20054e-06 0)
(8.42082e-07 -1.14396e-06 0)
(9.59118e-07 -1.08377e-06 0)
(1.07619e-06 -1.02147e-06 0)
(5.36806e-08 -1.42069e-06 0)
(1.61121e-07 -1.4111e-06 0)
(2.6913e-07 -1.39217e-06 0)
(3.77945e-07 -1.36452e-06 0)
(4.87733e-07 -1.3289e-06 0)
(5.98633e-07 -1.28629e-06 0)
(7.10627e-07 -1.2379e-06 0)
(8.23493e-07 -1.18477e-06 0)
(9.37269e-07 -1.12811e-06 0)
(1.05093e-06 -1.06941e-06 0)
(5.26637e-08 -1.44608e-06 0)
(1.58083e-07 -1.43709e-06 0)
(2.64012e-07 -1.41932e-06 0)
(3.70641e-07 -1.39338e-06 0)
(4.78102e-07 -1.35995e-06 0)
(5.86555e-07 -1.31991e-06 0)
(6.95929e-07 -1.2744e-06 0)
(8.06023e-07 -1.22442e-06 0)
(9.169e-07 -1.17101e-06 0)
(1.02759e-06 -1.11561e-06 0)
(5.16385e-08 -1.47175e-06 0)
(1.5508e-07 -1.46332e-06 0)
(2.58946e-07 -1.44661e-06 0)
(3.63457e-07 -1.42221e-06 0)
(4.68688e-07 -1.39077e-06 0)
(5.74827e-07 -1.35306e-06 0)
(6.81784e-07 -1.31017e-06 0)
(7.89357e-07 -1.26305e-06 0)
(8.9762e-07 -1.21262e-06 0)
(1.00567e-06 -1.16024e-06 0)
(5.06268e-08 -1.49766e-06 0)
(1.52086e-07 -1.48974e-06 0)
(2.53875e-07 -1.474e-06 0)
(3.563e-07 -1.45099e-06 0)
(4.59374e-07 -1.42135e-06 0)
(5.63288e-07 -1.38578e-06 0)
(6.67973e-07 -1.34529e-06 0)
(7.73216e-07 -1.30077e-06 0)
(8.79094e-07 -1.25306e-06 0)
(9.84804e-07 -1.20345e-06 0)
(4.96161e-08 -1.52378e-06 0)
(1.49036e-07 -1.51631e-06 0)
(2.48725e-07 -1.50146e-06 0)
(3.49059e-07 -1.47972e-06 0)
(4.50018e-07 -1.45172e-06 0)
(5.51765e-07 -1.41811e-06 0)
(6.54275e-07 -1.37981e-06 0)
(7.57335e-07 -1.33767e-06 0)
(8.61023e-07 -1.29246e-06 0)
(9.64642e-07 -1.24538e-06 0)
(4.85681e-08 -1.55002e-06 0)
(1.45862e-07 -1.54296e-06 0)
(2.43417e-07 -1.52893e-06 0)
(3.41618e-07 -1.50837e-06 0)
(4.40464e-07 -1.48187e-06 0)
(5.40079e-07 -1.45006e-06 0)
(6.40475e-07 -1.41376e-06 0)
(7.41466e-07 -1.37381e-06 0)
(8.43122e-07 -1.33091e-06 0)
(9.44828e-07 -1.28615e-06 0)
(4.74551e-08 -1.57634e-06 0)
(1.4252e-07 -1.56965e-06 0)
(2.37879e-07 -1.55638e-06 0)
(3.33884e-07 -1.53691e-06 0)
(4.30574e-07 -1.5118e-06 0)
(5.28053e-07 -1.48165e-06 0)
(6.2636e-07 -1.44721e-06 0)
(7.25355e-07 -1.40928e-06 0)
(8.25071e-07 -1.36851e-06 0)
(9.24978e-07 -1.3259e-06 0)
(4.62717e-08 -1.60262e-06 0)
(1.38992e-07 -1.59628e-06 0)
(2.32054e-07 -1.58372e-06 0)
(3.25762e-07 -1.56527e-06 0)
(4.20214e-07 -1.54146e-06 0)
(5.15512e-07 -1.51284e-06 0)
(6.11722e-07 -1.48014e-06 0)
(7.08753e-07 -1.44409e-06 0)
(8.06565e-07 -1.4053e-06 0)
(9.04772e-07 -1.36467e-06 0)
(4.50165e-08 -1.62882e-06 0)
(1.35244e-07 -1.62282e-06 0)
(2.25854e-07 -1.61092e-06 0)
(3.17127e-07 -1.59343e-06 0)
(4.09228e-07 -1.57085e-06 0)
(5.02263e-07 -1.54367e-06 0)
(5.96328e-07 -1.51261e-06 0)
(6.91339e-07 -1.47833e-06 0)
(7.87269e-07 -1.4414e-06 0)
(8.83785e-07 -1.40262e-06 0)
(4.36723e-08 -1.65474e-06 0)
(1.3121e-07 -1.64904e-06 0)
(2.19169e-07 -1.63778e-06 0)
(3.07834e-07 -1.62121e-06 0)
(3.97424e-07 -1.59978e-06 0)
(4.88076e-07 -1.57399e-06 0)
(5.79895e-07 -1.54448e-06 0)
(6.72795e-07 -1.51188e-06 0)
(7.66826e-07 -1.47671e-06 0)
(8.61655e-07 -1.43969e-06 0)
(4.22029e-08 -1.68043e-06 0)
(1.26788e-07 -1.67504e-06 0)
(2.11847e-07 -1.66439e-06 0)
(2.97693e-07 -1.64871e-06 0)
(3.84572e-07 -1.62841e-06 0)
(4.72663e-07 -1.60396e-06 0)
(5.62077e-07 -1.57595e-06 0)
(6.52783e-07 -1.54496e-06 0)
(7.44795e-07 -1.51149e-06 0)
(8.37919e-07 -1.47617e-06 0)
(4.05897e-08 -1.70532e-06 0)
(1.21949e-07 -1.70023e-06 0)
(2.03834e-07 -1.69019e-06 0)
(2.86602e-07 -1.67539e-06 0)
(3.70546e-07 -1.65622e-06 0)
(4.55875e-07 -1.6331e-06 0)
(5.427e-07 -1.60658e-06 0)
(6.31113e-07 -1.5772e-06 0)
(7.21023e-07 -1.54542e-06 0)
(8.12412e-07 -1.51179e-06 0)
)


// ************************************************************************* //
