/*--------------------------------*- C++ -*----------------------------------*\
| =========                 |                                                 |
| \\      /  F ield         | foam-extend: Open Source CFD                    |
|  \\    /   O peration     | Version:     4.1                                |
|   \\  /    A nd           | Web:         http://www.foam-extend.org         |
|    \\/     M anipulation  |                                                 |
\*---------------------------------------------------------------------------*/
FoamFile
{
    version     2.0;
    format      ascii;
    class       volScalarField;
    location    "3";
    object      sigmaHyd;
}
// * * * * * * * * * * * * * * * * * * * * * * * * * * * * * * * * * * * * * //

dimensions      [1 -1 -2 0 0 0 0];

internalField   nonuniform List<scalar> 
100000
(
-141187
-140825
-140895
-140744
-140712
-140622
-140566
-140495
-140435
-140373
-140315
-140257
-140202
-140148
-140096
-140046
-139997
-139949
-139902
-139857
-139814
-139771
-139729
-139689
-139650
-139611
-139574
-139537
-139503
-139465
-139433
-139388
-139358
-139342
-139307
-139276
-139246
-139217
-139188
-139160
-139133
-139106
-139080
-139054
-139029
-139004
-138980
-138956
-138933
-138910
-138887
-138865
-138843
-138822
-138801
-138780
-138760
-138740
-138720
-138701
-138681
-138662
-138644
-138625
-138607
-138589
-138571
-138553
-138536
-138519
-138502
-138485
-138468
-138452
-138436
-138420
-138404
-138388
-138372
-138357
-138341
-138326
-138311
-138296
-138281
-138266
-138251
-138235
-138221
-138206
-138192
-138177
-138164
-138150
-138139
-138126
-138122
-138107
-138130
-138047
-146301
-145814
-145797
-145544
-145422
-145240
-145096
-144939
-144796
-144652
-144515
-144380
-144250
-144123
-144000
-143880
-143763
-143649
-143538
-143430
-143325
-143222
-143123
-143025
-142930
-142837
-142748
-142659
-142580
-142490
-142444
-142319
-142298
-142163
-142131
-142021
-141954
-141876
-141807
-141738
-141671
-141605
-141541
-141479
-141417
-141357
-141298
-141240
-141183
-141127
-141072
-141018
-140965
-140913
-140862
-140812
-140762
-140714
-140666
-140619
-140573
-140527
-140483
-140439
-140395
-140352
-140310
-140268
-140227
-140187
-140147
-140108
-140069
-140031
-139993
-139956
-139920
-139883
-139848
-139812
-139777
-139742
-139708
-139674
-139642
-139608
-139575
-139542
-139510
-139478
-139447
-139416
-139386
-139356
-139329
-139298
-139279
-139243
-139250
-139132
-151412
-150801
-150697
-150342
-150130
-149855
-149624
-149381
-149155
-148929
-148713
-148501
-148296
-148096
-147902
-147712
-147527
-147348
-147172
-147001
-146835
-146672
-146514
-146359
-146209
-146061
-145918
-145777
-145641
-145506
-145376
-145253
-145110
-144984
-144877
-144757
-144645
-144531
-144422
-144313
-144207
-144103
-144002
-143902
-143804
-143708
-143614
-143522
-143432
-143343
-143255
-143170
-143086
-143003
-142922
-142842
-142764
-142687
-142611
-142537
-142464
-142392
-142321
-142251
-142183
-142115
-142048
-141983
-141918
-141854
-141792
-141730
-141669
-141609
-141550
-141492
-141435
-141378
-141323
-141268
-141213
-141159
-141108
-141055
-141007
-140953
-140901
-140850
-140800
-140751
-140703
-140655
-140609
-140563
-140521
-140473
-140440
-140381
-140378
-140210
-156519
-155783
-155593
-155136
-154834
-154467
-154149
-153819
-153510
-153203
-152908
-152620
-152339
-152066
-151800
-151541
-151289
-151043
-150804
-150570
-150342
-150120
-149903
-149692
-149485
-149283
-149087
-148894
-148707
-148521
-148342
-148161
-147963
-147819
-147661
-147498
-147343
-147187
-147036
-146888
-146743
-146600
-146461
-146324
-146190
-146059
-145930
-145803
-145679
-145557
-145438
-145320
-145205
-145092
-144981
-144871
-144764
-144659
-144556
-144454
-144354
-144255
-144158
-144063
-143969
-143877
-143786
-143696
-143608
-143521
-143436
-143351
-143269
-143187
-143107
-143028
-142951
-142873
-142799
-142722
-142645
-142573
-142502
-142430
-142365
-142294
-142221
-142155
-142086
-142021
-141956
-141892
-141830
-141767
-141708
-141643
-141594
-141517
-141497
-141309
-161621
-160761
-160484
-159925
-159533
-159074
-158669
-158254
-157861
-157473
-157099
-156734
-156379
-156033
-155696
-155367
-155048
-154736
-154432
-154135
-153846
-153564
-153289
-153020
-152758
-152502
-152252
-152007
-151768
-151534
-151305
-151082
-150858
-150646
-150439
-150235
-150035
-149839
-149648
-149459
-149275
-149094
-148917
-148744
-148573
-148407
-148243
-148082
-147925
-147770
-147618
-147469
-147323
-147179
-147038
-146899
-146763
-146629
-146498
-146369
-146242
-146117
-145994
-145873
-145754
-145637
-145522
-145408
-145296
-145186
-145078
-144971
-144866
-144762
-144660
-144559
-144462
-144362
-144271
-144183
-144081
-143984
-143900
-143807
-143755
-143646
-143550
-143457
-143373
-143289
-143208
-143127
-143049
-142969
-142895
-142814
-142749
-142654
-142620
-142412
-166717
-165732
-165370
-164709
-164227
-163676
-163184
-162682
-162207
-161738
-161285
-160843
-160413
-159994
-159586
-159189
-158801
-158424
-158056
-157697
-157346
-157004
-156671
-156345
-156027
-155717
-155414
-155117
-154827
-154543
-154265
-153994
-153724
-153469
-153217
-152969
-152727
-152489
-152257
-152028
-151805
-151586
-151371
-151161
-150954
-150752
-150553
-150359
-150168
-149980
-149796
-149615
-149438
-149263
-149092
-148924
-148759
-148598
-148438
-148282
-148128
-147977
-147828
-147681
-147537
-147395
-147256
-147118
-146983
-146850
-146719
-146589
-146463
-146337
-146215
-146093
-145979
-145858
-145766
-145631
-145488
-145393
-145287
-145169
-145100
-144987
-144840
-144760
-144653
-144557
-144458
-144362
-144267
-144171
-144081
-143983
-143903
-143791
-143743
-143517
-171806
-170697
-170248
-169485
-168914
-168271
-167692
-167105
-166546
-165997
-165465
-164946
-164442
-163950
-163471
-163004
-162550
-162106
-161674
-161252
-160841
-160440
-160048
-159665
-159292
-158927
-158571
-158222
-157882
-157549
-157223
-156905
-156592
-156288
-155991
-155699
-155414
-155135
-154862
-154594
-154331
-154074
-153821
-153574
-153332
-153094
-152861
-152632
-152408
-152187
-151971
-151758
-151550
-151345
-151144
-150946
-150751
-150562
-150376
-150192
-150012
-149834
-149659
-149487
-149318
-149151
-148987
-148826
-148667
-148510
-148356
-148204
-148055
-147906
-147762
-147611
-147478
-147305
-147214
-146985
-146939
-146757
-146639
-146501
-146524
-146227
-146156
-146018
-145930
-145812
-145705
-145591
-145482
-145370
-145264
-145150
-145055
-144927
-144865
-144622
-176886
-175652
-175117
-174253
-173593
-172858
-172192
-171519
-170878
-170248
-169638
-169042
-168463
-167899
-167349
-166814
-166292
-165783
-165286
-164802
-164330
-163869
-163419
-162980
-162551
-162132
-161723
-161323
-160932
-160549
-160175
-159809
-159451
-159102
-158760
-158425
-158098
-157777
-157463
-157155
-156853
-156557
-156268
-155984
-155705
-155432
-155164
-154901
-154644
-154390
-154142
-153898
-153658
-153422
-153191
-152961
-152741
-152527
-152311
-152101
-151893
-151688
-151488
-151290
-151096
-150904
-150716
-150531
-150349
-150169
-149993
-149818
-149647
-149478
-149311
-149147
-148983
-148827
-148650
-148527
-148394
-148222
-148071
-147934
-147760
-147635
-147525
-147362
-147231
-147091
-146960
-146827
-146699
-146570
-146447
-146317
-146206
-146062
-145985
-145727
-181956
-180598
-179977
-179012
-178262
-177436
-176684
-175926
-175202
-174491
-173803
-173131
-172477
-171840
-171220
-170616
-170026
-169452
-168892
-168345
-167812
-167292
-166784
-166288
-165804
-165331
-164869
-164417
-163976
-163544
-163122
-162709
-162305
-161911
-161524
-161146
-160776
-160414
-160059
-159711
-159370
-159037
-158709
-158389
-158074
-157766
-157464
-157167
-156876
-156590
-156311
-156035
-155766
-155498
-155241
-154976
-154719
-154482
-154245
-154004
-153772
-153539
-153313
-153090
-152870
-152654
-152442
-152233
-152027
-151825
-151625
-151429
-151236
-151045
-150858
-150672
-150492
-150311
-150139
-149974
-149797
-149623
-149463
-149296
-149168
-148988
-148824
-148659
-148506
-148352
-148204
-148056
-147911
-147766
-147628
-147482
-147355
-147196
-147104
-146829
-187014
-185533
-184827
-183760
-182922
-182004
-181165
-180322
-179516
-178725
-177958
-177210
-176482
-175773
-175082
-174409
-173753
-173113
-172489
-171881
-171287
-170707
-170142
-169589
-169050
-168523
-168008
-167505
-167013
-166532
-166062
-165602
-165153
-164713
-164282
-163861
-163449
-163045
-162649
-162262
-161882
-161510
-161146
-160789
-160438
-160095
-159758
-159427
-159103
-158785
-158472
-158165
-157864
-157563
-157275
-156964
-156701
-156459
-156171
-155907
-155644
-155386
-155134
-154885
-154641
-154400
-154164
-153931
-153702
-153477
-153255
-153037
-152821
-152610
-152401
-152196
-151993
-151795
-151597
-151408
-151220
-151030
-150845
-150663
-150482
-150304
-150132
-149955
-149785
-149615
-149449
-149284
-149123
-148961
-148806
-148644
-148502
-148327
-148221
-147930
-192060
-190456
-189664
-188497
-187570
-186561
-185636
-184708
-183820
-182948
-182103
-181279
-180478
-179696
-178935
-178193
-177471
-176766
-176078
-175407
-174753
-174115
-173491
-172882
-172288
-171707
-171140
-170585
-170043
-169514
-168995
-168489
-167993
-167508
-167034
-166569
-166115
-165670
-165234
-164807
-164388
-163978
-163577
-163183
-162797
-162418
-162047
-161683
-161326
-160975
-160633
-160294
-159970
-159636
-159354
-158987
-158808
-158375
-158130
-157800
-157520
-157229
-156952
-156677
-156408
-156142
-155882
-155625
-155373
-155125
-154881
-154640
-154403
-154170
-153941
-153715
-153492
-153273
-153058
-152846
-152637
-152429
-152227
-152025
-151831
-151633
-151439
-151247
-151058
-150872
-150689
-150507
-150330
-150152
-149982
-149804
-149646
-149456
-149335
-149028
-197093
-195366
-194489
-193221
-192205
-191105
-190095
-189082
-188112
-187160
-186238
-185337
-184462
-183609
-182778
-181968
-181178
-180408
-179657
-178925
-178210
-177513
-176832
-176167
-175517
-174883
-174263
-173658
-173066
-172487
-171921
-171367
-170826
-170296
-169778
-169270
-168774
-168287
-167811
-167345
-166887
-166440
-166001
-165570
-165149
-164735
-164329
-163931
-163541
-163158
-162783
-162414
-162052
-161699
-161347
-161023
-160652
-160303
-160004
-159681
-159373
-159063
-158761
-158462
-158169
-157879
-157595
-157315
-157040
-156769
-156502
-156240
-155981
-155727
-155476
-155229
-154986
-154747
-154511
-154279
-154051
-153825
-153603
-153383
-153167
-152953
-152742
-152534
-152329
-152126
-151926
-151728
-151534
-151341
-151154
-150961
-150788
-150582
-150447
-150124
-202110
-200261
-199299
-197931
-196827
-195637
-194540
-193443
-192391
-191359
-190360
-189384
-188435
-187510
-186609
-185731
-184875
-184040
-183226
-182432
-181657
-180901
-180162
-179441
-178737
-178049
-177377
-176721
-176079
-175451
-174838
-174237
-173650
-173076
-172514
-171963
-171425
-170897
-170381
-169875
-169379
-168894
-168418
-167951
-167494
-167045
-166606
-166174
-165751
-165336
-164928
-164528
-164137
-163749
-163373
-162994
-162619
-162266
-161921
-161571
-161234
-160897
-160568
-160244
-159925
-159612
-159304
-159000
-158702
-158408
-158119
-157834
-157554
-157278
-157007
-156739
-156476
-156217
-155961
-155710
-155461
-155217
-154976
-154738
-154504
-154272
-154043
-153818
-153595
-153376
-153159
-152945
-152735
-152525
-152323
-152114
-151926
-151705
-151555
-151217
-207112
-205140
-204094
-202626
-201434
-200153
-198972
-197790
-196657
-195545
-194468
-193417
-192395
-191399
-190428
-189482
-188560
-187660
-186783
-185928
-185093
-184278
-183482
-182706
-181947
-181206
-180482
-179774
-179083
-178406
-177745
-177098
-176466
-175847
-175241
-174648
-174068
-173499
-172943
-172398
-171863
-171340
-170827
-170325
-169832
-169348
-168874
-168409
-167953
-167506
-167066
-166635
-166212
-165797
-165387
-164988
-164589
-164200
-163823
-163448
-163083
-162722
-162368
-162019
-161676
-161339
-161007
-160680
-160358
-160042
-159731
-159424
-159122
-158825
-158533
-158245
-157961
-157681
-157406
-157135
-156867
-156604
-156344
-156088
-155835
-155586
-155340
-155097
-154858
-154622
-154389
-154158
-153932
-153707
-153489
-153264
-153061
-152824
-152660
-152306
-212096
-210003
-208872
-207304
-206025
-204654
-203388
-202121
-200908
-199717
-198563
-197437
-196341
-195274
-194234
-193220
-192232
-191268
-190328
-189411
-188517
-187643
-186791
-185959
-185146
-184351
-183575
-182817
-182076
-181351
-180643
-179949
-179271
-178608
-177959
-177323
-176701
-176092
-175496
-174911
-174339
-173778
-173229
-172690
-172161
-171643
-171135
-170637
-170148
-169668
-169198
-168735
-168282
-167836
-167398
-166967
-166544
-166130
-165723
-165323
-164930
-164543
-164163
-163789
-163422
-163060
-162704
-162354
-162009
-161670
-161337
-161008
-160685
-160367
-160053
-159745
-159441
-159141
-158846
-158556
-158269
-157987
-157708
-157434
-157163
-156896
-156633
-156373
-156116
-155863
-155614
-155367
-155125
-154884
-154650
-154410
-154192
-153939
-153762
-153392
-217061
-214847
-213632
-211965
-210599
-209138
-207787
-206437
-205143
-203873
-202642
-201442
-200273
-199135
-198025
-196944
-195890
-194863
-193860
-192882
-191928
-190997
-190087
-189200
-188332
-187485
-186658
-185849
-185058
-184285
-183529
-182790
-182067
-181359
-180667
-179989
-179325
-178676
-178039
-177416
-176806
-176207
-175621
-175046
-174483
-173930
-173388
-172857
-172335
-171823
-171321
-170828
-170344
-169869
-169402
-168943
-168492
-168049
-167615
-167188
-166769
-166356
-165951
-165552
-165160
-164774
-164395
-164022
-163654
-163293
-162937
-162587
-162242
-161903
-161569
-161239
-160915
-160596
-160281
-159971
-159665
-159364
-159067
-158775
-158486
-158201
-157921
-157644
-157370
-157101
-156835
-156572
-156314
-156056
-155808
-155552
-155319
-155051
-154859
-154474
-222007
-219673
-218374
-216608
-215154
-213605
-212169
-210736
-209361
-208013
-206706
-205430
-204190
-202980
-201802
-200654
-199534
-198443
-197378
-196339
-195326
-194337
-193371
-192428
-191507
-190607
-189728
-188869
-188029
-187208
-186405
-185619
-184851
-184099
-183364
-182644
-181939
-181249
-180573
-179911
-179262
-178627
-178004
-177393
-176795
-176208
-175632
-175067
-174513
-173970
-173436
-172912
-172398
-171893
-171397
-170910
-170432
-169962
-169501
-169047
-168601
-168163
-167732
-167309
-166892
-166483
-166080
-165683
-165293
-164909
-164531
-164159
-163793
-163433
-163078
-162728
-162384
-162044
-161710
-161381
-161056
-160737
-160421
-160110
-159804
-159502
-159204
-158909
-158619
-158333
-158051
-157772
-157498
-157225
-156960
-156689
-156441
-156158
-155952
-155552
-226932
-224477
-223095
-221231
-219691
-218053
-216533
-215017
-213562
-212135
-210752
-209402
-208089
-206810
-205563
-204348
-203163
-202008
-200881
-199782
-198709
-197662
-196640
-195642
-194668
-193715
-192785
-191876
-190987
-190118
-189268
-188437
-187624
-186828
-186049
-185287
-184541
-183811
-183096
-182395
-181709
-181036
-180377
-179731
-179097
-178476
-177867
-177269
-176683
-176107
-175543
-174988
-174444
-173910
-173385
-172870
-172363
-171866
-171378
-170898
-170426
-169962
-169506
-169058
-168617
-168184
-167757
-167338
-166925
-166518
-166119
-165725
-165338
-164956
-164580
-164210
-163846
-163487
-163134
-162785
-162442
-162103
-161770
-161441
-161116
-160797
-160481
-160170
-159863
-159560
-159262
-158967
-158677
-158388
-158108
-157822
-157559
-157261
-157040
-156626
-231835
-229261
-227796
-225834
-224207
-222480
-220877
-219278
-217743
-216239
-214780
-213356
-211972
-210622
-209307
-208025
-206776
-205557
-204369
-203209
-202078
-200973
-199895
-198843
-197814
-196810
-195829
-194869
-193932
-193015
-192119
-191242
-190384
-189545
-188723
-187919
-187132
-186362
-185607
-184868
-184144
-183435
-182739
-182058
-181389
-180734
-180091
-179461
-178842
-178235
-177640
-177055
-176481
-175917
-175364
-174820
-174286
-173762
-173246
-172740
-172242
-171753
-171272
-170799
-170334
-169877
-169427
-168985
-168549
-168121
-167699
-167284
-166875
-166473
-166077
-165686
-165302
-164923
-164550
-164183
-163821
-163464
-163112
-162765
-162423
-162086
-161753
-161425
-161102
-160782
-160468
-160156
-159851
-159546
-159251
-158949
-158671
-158359
-158124
-157695
-236715
-234021
-232474
-230414
-228702
-226887
-225200
-223519
-221905
-220323
-218789
-217292
-215835
-214416
-213033
-211685
-210371
-209089
-207839
-206620
-205430
-204269
-203135
-202028
-200946
-199890
-198858
-197849
-196863
-195899
-194956
-194033
-193131
-192248
-191384
-190538
-189710
-188900
-188107
-187330
-186568
-185822
-185091
-184374
-183671
-182982
-182305
-181642
-180992
-180353
-179727
-179112
-178508
-177915
-177333
-176761
-176200
-175648
-175106
-174574
-174050
-173536
-173030
-172532
-172043
-171562
-171089
-170624
-170166
-169715
-169272
-168835
-168405
-167982
-167566
-167155
-166751
-166353
-165961
-165574
-165193
-164818
-164448
-164083
-163724
-163369
-163019
-162674
-162334
-161999
-161668
-161340
-161019
-160699
-160389
-160072
-159779
-159451
-159202
-158759
-241570
-238758
-237128
-234971
-233174
-231271
-229502
-227739
-226046
-224387
-222777
-221207
-219680
-218191
-216740
-215326
-213948
-212604
-211293
-210014
-208766
-207548
-206358
-205197
-204063
-202954
-201872
-200814
-199779
-198768
-197779
-196811
-195864
-194938
-194032
-193145
-192276
-191427
-190594
-189779
-188980
-188198
-187430
-186678
-185941
-185218
-184509
-183813
-183130
-182461
-181804
-181158
-180525
-179903
-179293
-178693
-178104
-177525
-176957
-176398
-175849
-175309
-174778
-174257
-173744
-173239
-172743
-172255
-171775
-171302
-170837
-170379
-169928
-169484
-169047
-168617
-168193
-167775
-167364
-166959
-166559
-166165
-165777
-165395
-165018
-164646
-164279
-163917
-163561
-163209
-162862
-162519
-162181
-161846
-161520
-161188
-160881
-160538
-160275
-159817
-246399
-243469
-241758
-239505
-237622
-235633
-233781
-231937
-230165
-228429
-226745
-225102
-223504
-221946
-220428
-218949
-217507
-216100
-214728
-213390
-212084
-210809
-209565
-208349
-207162
-206003
-204870
-203763
-202680
-201622
-200587
-199574
-198583
-197614
-196664
-195737
-194825
-193939
-193067
-192215
-191379
-190560
-189758
-188971
-188199
-187442
-186700
-185972
-185258
-184557
-183869
-183194
-182532
-181881
-181242
-180614
-179998
-179392
-178797
-178213
-177638
-177073
-176518
-175972
-175435
-174908
-174388
-173877
-173375
-172880
-172394
-171914
-171443
-170978
-170521
-170071
-169627
-169190
-168760
-168336
-167918
-167506
-167100
-166700
-166305
-165916
-165532
-165154
-164781
-164412
-164049
-163690
-163338
-162987
-162646
-162299
-161977
-161620
-161342
-160871
-251202
-248155
-246362
-244013
-242046
-239970
-238036
-236111
-234261
-232449
-230691
-228975
-227307
-225680
-224096
-222551
-221045
-219577
-218144
-216747
-215383
-214052
-212753
-211484
-210245
-209034
-207851
-206695
-205565
-204460
-203379
-202322
-201288
-200276
-199284
-198315
-197365
-196439
-195528
-194639
-193766
-192911
-192072
-191251
-190445
-189655
-188880
-188120
-187374
-186642
-185924
-185219
-184527
-183848
-183180
-182525
-181882
-181249
-180628
-180017
-179417
-178828
-178248
-177678
-177117
-176566
-176024
-175491
-174966
-174450
-173942
-173441
-172949
-172464
-171987
-171517
-171053
-170597
-170148
-169705
-169269
-168839
-168415
-167997
-167585
-167179
-166778
-166383
-165994
-165609
-165230
-164856
-164488
-164121
-163766
-163404
-163067
-162695
-162403
-161918
-255976
-252813
-250939
-248495
-246444
-244282
-242267
-240261
-238333
-236445
-234613
-232826
-231087
-229393
-227742
-226132
-224563
-223033
-221541
-220085
-218664
-217277
-215923
-214601
-213310
-212048
-210816
-209611
-208433
-207282
-206156
-205054
-203976
-202921
-201885
-200876
-199873
-198921
-197971
-197047
-196138
-195247
-194374
-193517
-192678
-191854
-191047
-190254
-189477
-188715
-187966
-187232
-186511
-185803
-185108
-184425
-183754
-183095
-182448
-181812
-181186
-180572
-179968
-179374
-178790
-178216
-177651
-177095
-176548
-176010
-175481
-174960
-174447
-173941
-173444
-172954
-172472
-171996
-171528
-171067
-170612
-170164
-169722
-169287
-168858
-168435
-168017
-167606
-167200
-166799
-166405
-166014
-165631
-165249
-164878
-164502
-164150
-163764
-163458
-162959
-260722
-257442
-255488
-252949
-250815
-248567
-246471
-244385
-242381
-240417
-238512
-236653
-234845
-233082
-231365
-229691
-228060
-226468
-224916
-223402
-221924
-220482
-219074
-217699
-216356
-215044
-213762
-212509
-211284
-210087
-208916
-207770
-206649
-205552
-204478
-203426
-202393
-201396
-200408
-199444
-198498
-197570
-196661
-195770
-194897
-194040
-193200
-192376
-191568
-190775
-189996
-189233
-188483
-187746
-187023
-186313
-185616
-184930
-184257
-183595
-182944
-182305
-181676
-181059
-180451
-179855
-179267
-178689
-178121
-177561
-177011
-176469
-175935
-175410
-174892
-174383
-173881
-173387
-172900
-172420
-171947
-171481
-171022
-170569
-170123
-169683
-169249
-168821
-168399
-167982
-167572
-167166
-166767
-166370
-165985
-165593
-165227
-164827
-164506
-163994
-265437
-262042
-260009
-257375
-255158
-252825
-250649
-248484
-246402
-244363
-242385
-240456
-238579
-236749
-234966
-233228
-231534
-229882
-228270
-226698
-225164
-223666
-222204
-220776
-219382
-218020
-216689
-215388
-214117
-212874
-211658
-210469
-209306
-208166
-207044
-205954
-204799
-203844
-202817
-201823
-200841
-199878
-198935
-198009
-197102
-196212
-195340
-194485
-193645
-192822
-192014
-191220
-190442
-189677
-188927
-188189
-187465
-186754
-186054
-185367
-184692
-184028
-183374
-182734
-182103
-181483
-180874
-180274
-179684
-179103
-178531
-177968
-177414
-176868
-176331
-175802
-175281
-174768
-174262
-173764
-173273
-172790
-172313
-171843
-171379
-170923
-170472
-170028
-169590
-169157
-168731
-168310
-167896
-167484
-167084
-166678
-166297
-165882
-165548
-165023
-270121
-266612
-264499
-261772
-259473
-257055
-254798
-252554
-250397
-248284
-246233
-244233
-242287
-240390
-238542
-236741
-234985
-233272
-231602
-229972
-228382
-226829
-225314
-223834
-222388
-220976
-219597
-218248
-216930
-215642
-214382
-213149
-211945
-210763
-209614
-208464
-207380
-206309
-205235
-204192
-203171
-202171
-201192
-200233
-199292
-198370
-197466
-196579
-195709
-194855
-194017
-193195
-192388
-191596
-190817
-190053
-189302
-188565
-187840
-187127
-186425
-185737
-185055
-184396
-183742
-183101
-182469
-181848
-181236
-180634
-180041
-179458
-178883
-178318
-177761
-177212
-176672
-176140
-175616
-175100
-174591
-174090
-173595
-173108
-172628
-172154
-171687
-171227
-170773
-170325
-169883
-169446
-169017
-168591
-168175
-167755
-167360
-166931
-166583
-166044
-274772
-271149
-268958
-266138
-263757
-261255
-258919
-256597
-254364
-252176
-250054
-247984
-245970
-244007
-242094
-240229
-238412
-236639
-234910
-233223
-231577
-229970
-228402
-226870
-225374
-223912
-222484
-221089
-219725
-218391
-217089
-215814
-214576
-213352
-212208
-211000
-209613
-208732
-207672
-206544
-205493
-204449
-203436
-202441
-201467
-200512
-199576
-198658
-197758
-196874
-196007
-195156
-194321
-193500
-192695
-191904
-191127
-190364
-189614
-188877
-188151
-187440
-186735
-186048
-185373
-184708
-184054
-183411
-182777
-182154
-181541
-180937
-180342
-179757
-179180
-178613
-178054
-177503
-176961
-176426
-175899
-175380
-174869
-174365
-173867
-173377
-172894
-172417
-171947
-171484
-171026
-170575
-170130
-169689
-169259
-168824
-168415
-167972
-167610
-167058
-279389
-275654
-273384
-270472
-268010
-265425
-263010
-260610
-258302
-256041
-253848
-251708
-249626
-247597
-245620
-243693
-241814
-239982
-238194
-236451
-234749
-233089
-231467
-229884
-228337
-226826
-225350
-223908
-222498
-221119
-219772
-218454
-217165
-215905
-214673
-213477
-212279
-211095
-209980
-208861
-207775
-206705
-205658
-204632
-203626
-202639
-201672
-200723
-199792
-198878
-197982
-197103
-196239
-195391
-194559
-193742
-192939
-192150
-191375
-190612
-189859
-189122
-188352
-187685
-186988
-186304
-185629
-184963
-184309
-183664
-183030
-182405
-181791
-181185
-180590
-180003
-179425
-178856
-178295
-177743
-177198
-176662
-176133
-175612
-175098
-174591
-174092
-173599
-173114
-172634
-172162
-171695
-171236
-170780
-170335
-169886
-169462
-169005
-168629
-168065
-283971
-280124
-277777
-274774
-272231
-269563
-267070
-264593
-262210
-259876
-257612
-255404
-253255
-251160
-249119
-247130
-245190
-243299
-241454
-239654
-237898
-236183
-234510
-232875
-231278
-229719
-228195
-226706
-225250
-223827
-222435
-221074
-219742
-218438
-217154
-215908
-214595
-213486
-212312
-211172
-210048
-208946
-207866
-206806
-205768
-204749
-203751
-202771
-201810
-200868
-199942
-199034
-198143
-197268
-196409
-195565
-194737
-193923
-193124
-192339
-191566
-190817
-190052
-189304
-188599
-187886
-187191
-186503
-185827
-185162
-184507
-183862
-183228
-182603
-181988
-181382
-180786
-180198
-179619
-179049
-178487
-177933
-177388
-176850
-176319
-175796
-175281
-174772
-174271
-173776
-173288
-172806
-172332
-171862
-171403
-170939
-170502
-170031
-169641
-169065
-288518
-284560
-282136
-279041
-276418
-273669
-271098
-268544
-266088
-263682
-261347
-259070
-256854
-254695
-252591
-250539
-248540
-246590
-244688
-242832
-241022
-239254
-237528
-235842
-234196
-232588
-231017
-229482
-227981
-226513
-225078
-223674
-222301
-220958
-219640
-218355
-217085
-215854
-214647
-213464
-212306
-211169
-210056
-208964
-207893
-206843
-205814
-204804
-203813
-202841
-201887
-200951
-200032
-199130
-198245
-197375
-196523
-195683
-194868
-194052
-193302
-192470
-191620
-190942
-190247
-189468
-188753
-188035
-187338
-186649
-185974
-185308
-184654
-184010
-183376
-182751
-182136
-181530
-180933
-180345
-179766
-179195
-178632
-178078
-177531
-176992
-176460
-175936
-175419
-174909
-174406
-173909
-173420
-172935
-172462
-171984
-171533
-171048
-170645
-170056
-293027
-288959
-286459
-283274
-280572
-277741
-275094
-272464
-269933
-267456
-265052
-262707
-260425
-258201
-256034
-253922
-251862
-249854
-247896
-245985
-244121
-242299
-240522
-238786
-237091
-235434
-233816
-232235
-230689
-229177
-227699
-226253
-224837
-223453
-222093
-220769
-219455
-218199
-216953
-215738
-214544
-213375
-212228
-211103
-210001
-208920
-207860
-206820
-205799
-204798
-203816
-202852
-201905
-200976
-200064
-199167
-198288
-197422
-196574
-195735
-194918
-194095
-193314
-192552
-191775
-191021
-190278
-189547
-188829
-188122
-187426
-186742
-186068
-185405
-184751
-184108
-183475
-182851
-182236
-181631
-181034
-180446
-179867
-179296
-178733
-178177
-177630
-177090
-176558
-176032
-175514
-175003
-174499
-174000
-173512
-173021
-172555
-172057
-171640
-171039
-297499
-293321
-290745
-287471
-284691
-281779
-279055
-276350
-273747
-271198
-268725
-266313
-263965
-261677
-259448
-257275
-255156
-253090
-251076
-249110
-247192
-245319
-243490
-241704
-239960
-238256
-236591
-234964
-233374
-231819
-230298
-228811
-227355
-225931
-224536
-223173
-221834
-220528
-219248
-217994
-216766
-215562
-214382
-213225
-212091
-210979
-209888
-208819
-207769
-206739
-205728
-204736
-203763
-202807
-201868
-200946
-200041
-199151
-198277
-197416
-196568
-195735
-194876
-194119
-193332
-192561
-191799
-191048
-190310
-189583
-188867
-188163
-187470
-186788
-186116
-185454
-184803
-184161
-183528
-182906
-182292
-181687
-181091
-180503
-179924
-179353
-178790
-178234
-177686
-177146
-176613
-176087
-175569
-175055
-174554
-174048
-173569
-173058
-172626
-172014
-301931
-297645
-294994
-291632
-288773
-285781
-282982
-280202
-277527
-274908
-272366
-269887
-267474
-265123
-262832
-260599
-258422
-256299
-254229
-252208
-250242
-248312
-246433
-244597
-242804
-241053
-239342
-237670
-236036
-234437
-232874
-231346
-229849
-228386
-226952
-225551
-224175
-222834
-221517
-220230
-218967
-217730
-216517
-215329
-214163
-213020
-211899
-210800
-209721
-208663
-207624
-206604
-205604
-204621
-203656
-202709
-201778
-200863
-199964
-199080
-198212
-197358
-196518
-195699
-194887
-194092
-193307
-192536
-191777
-191030
-190295
-189572
-188859
-188158
-187468
-186788
-186118
-185459
-184809
-184169
-183538
-182916
-182304
-181700
-181105
-180518
-179939
-179368
-178805
-178250
-177702
-177162
-176629
-176101
-175586
-175066
-174573
-174049
-173604
-172980
-306322
-301930
-299204
-295754
-292818
-289747
-286873
-284019
-281272
-278583
-275974
-273428
-270952
-268537
-266185
-263892
-261657
-259477
-257351
-255276
-253256
-251278
-249347
-247463
-245622
-243825
-242068
-240351
-238673
-237032
-235427
-233858
-232322
-230820
-229348
-227909
-226499
-225120
-223769
-222446
-221149
-219879
-218634
-217413
-216216
-215043
-213892
-212763
-211655
-210569
-209502
-208456
-207428
-206419
-205428
-204455
-203500
-202560
-201637
-200730
-199837
-198962
-198095
-197255
-196423
-195606
-194802
-194010
-193231
-192465
-191710
-190967
-190236
-189516
-188808
-188110
-187422
-186745
-186078
-185421
-184773
-184135
-183506
-182886
-182275
-181672
-181078
-180492
-179914
-179344
-178782
-178226
-177680
-177138
-176608
-176075
-175569
-175031
-174573
-173937
-310673
-306174
-303374
-299837
-296825
-293675
-290727
-287800
-284982
-282224
-279547
-276937
-274396
-271919
-269506
-267154
-264861
-262625
-260445
-258318
-256270
-254216
-252235
-250302
-248413
-246570
-244768
-243007
-241285
-239602
-237956
-236346
-234771
-233230
-231721
-230245
-228799
-227384
-225998
-224640
-223310
-222007
-220730
-219478
-218250
-217046
-215866
-214708
-213572
-212457
-211363
-210289
-209235
-208200
-207184
-206186
-205205
-204242
-203295
-202365
-201451
-200552
-199669
-198802
-197948
-197109
-196284
-195472
-194672
-193886
-193112
-192350
-191600
-190862
-190135
-189419
-188713
-188019
-187335
-186660
-185996
-185341
-184696
-184060
-183433
-182815
-182206
-181605
-181012
-180427
-179850
-179281
-178720
-178164
-177621
-177074
-176554
-176004
-175532
-174885
-314981
-310376
-307504
-303881
-300793
-297565
-294544
-291543
-288656
-285829
-283086
-280410
-277807
-275268
-272796
-270385
-268034
-265742
-263506
-261321
-259199
-257128
-255092
-253113
-251177
-249288
-247441
-245637
-243873
-242148
-240461
-238811
-237196
-235617
-234071
-232558
-231076
-229626
-228205
-226814
-225450
-224115