/*--------------------------------*- C++ -*----------------------------------*\
| =========                 |                                                 |
| \\      /  F ield         | foam-extend: Open Source CFD                    |
|  \\    /   O peration     | Version:     4.1                                |
|   \\  /    A nd           | Web:         http://www.foam-extend.org         |
|    \\/     M anipulation  |                                                 |
\*---------------------------------------------------------------------------*/
FoamFile
{
    version     2.0;
    format      ascii;
    class       regIOobject;
    location    "10/uniform";
    object      profilingInfo;
}
// * * * * * * * * * * * * * * * * * * * * * * * * * * * * * * * * * * * * * //

profilingInfo
(

    {
        id              11;
        parentId        10;
        description     "Foam::Time::writeObject - outputTime";
        calls           1;
        totalTime       0.62695;
        childTime       0;
        onStack         1;
    }

    {
        id              10;
        parentId        1;
        description     "Foam::Time::writeObject";
        calls           1;
        totalTime       0.627016;
        childTime       0.62695;
        onStack         1;
    }

    {
        id              1;
        description     "application::main";
        calls           1;
        totalTime       1823.15;
        childTime       1701.77;
        onStack         1;
    }

    {
        id              8;
        parentId        1;
        description     "FO::forceDisp1::execute";
        calls           9;
        totalTime       0.00554;
        childTime       0;
        onStack         0;
    }

    {
        id              3;
        parentId        2;
        description     "FO::forceDisp1::start";
        calls           1;
        totalTime       5e-05;
        childTime       0;
        onStack         0;
    }

    {
        id              9;
        parentId        1;
        description     "FO::pointDisp::execute";
        calls           9;
        totalTime       0.000599;
        childTime       0;
        onStack         0;
    }

    {
        id              4;
        parentId        2;
        description     "FO::pointDisp::start";
        calls           1;
        totalTime       2e-06;
        childTime       0;
        onStack         0;
    }

    {
        id              2;
        parentId        1;
        description     "functionObjectList::read";
        calls           1;
        totalTime       0.001793;
        childTime       5.2e-05;
        onStack         0;
    }

    {
        id              5;
        parentId        1;
        description     "fvMatrix::solve_D";
        calls           2398;
        totalTime       1701.14;
        childTime       1696.7;
        onStack         0;
    }

    {
        id              6;
        parentId        5;
        description     "lduMatrix::solver_Dx";
        calls           2398;
        totalTime       825.441;
        childTime       0;
        onStack         0;
    }

    {
        id              7;
        parentId        5;
        description     "lduMatrix::solver_Dy";
        calls           2398;
        totalTime       871.262;
        childTime       0;
        onStack         0;
    }
);


// ************************************************************************* //
