/*--------------------------------*- C++ -*----------------------------------*\
| =========                 |                                                 |
| \\      /  F ield         | foam-extend: Open Source CFD                    |
|  \\    /   O peration     | Version:     4.1                                |
|   \\  /    A nd           | Web:         http://www.foam-extend.org         |
|    \\/     M anipulation  |                                                 |
\*---------------------------------------------------------------------------*/
FoamFile
{
    version     2.0;
    format      ascii;
    class       vectorField;
    location    "2";
    object      convergedD_cells;
}
// * * * * * * * * * * * * * * * * * * * * * * * * * * * * * * * * * * * * * //


1000
(
(1.06501e-06 -4.69806e-07 0)
(1.00288e-06 -4.36215e-07 0)
(9.62807e-07 -4.14482e-07 0)
(9.3943e-07 -4.0378e-07 0)
(9.27509e-07 -3.99327e-07 0)
(9.23939e-07 -3.99725e-07 0)
(9.26503e-07 -4.03265e-07 0)
(9.33717e-07 -4.09118e-07 0)
(9.4432e-07 -4.16566e-07 0)
(9.57888e-07 -4.25128e-07 0)
(9.62678e-07 -5.13089e-07 0)
(8.96511e-07 -4.89262e-07 0)
(8.53932e-07 -4.73682e-07 0)
(8.28735e-07 -4.6715e-07 0)
(8.15446e-07 -4.65449e-07 0)
(8.10672e-07 -4.6779e-07 0)
(8.12105e-07 -4.72725e-07 0)
(8.18142e-07 -4.7961e-07 0)
(8.27503e-07 -4.87954e-07 0)
(8.39477e-07 -4.96975e-07 0)
(8.56445e-07 -5.54124e-07 0)
(7.88859e-07 -5.41219e-07 0)
(7.45442e-07 -5.32534e-07 0)
(7.19485e-07 -5.30633e-07 0)
(7.05471e-07 -5.31957e-07 0)
(6.99871e-07 -5.36393e-07 0)
(7.00363e-07 -5.42792e-07 0)
(7.0531e-07 -5.50734e-07 0)
(7.13436e-07 -5.59936e-07 0)
(7.23981e-07 -5.69568e-07 0)
(7.47112e-07 -5.92184e-07 0)
(6.80908e-07 -5.90751e-07 0)
(6.38438e-07 -5.8932e-07 0)
(6.12854e-07 -5.92265e-07 0)
(5.98812e-07 -5.96742e-07 0)
(5.92806e-07 -6.03344e-07 0)
(5.92598e-07 -6.11227e-07 0)
(5.96564e-07 -6.20237e-07 0)
(6.03536e-07 -6.30252e-07 0)
(6.12659e-07 -6.40525e-07 0)
(6.35384e-07 -6.26524e-07 0)
(5.73399e-07 -6.36473e-07 0)
(5.33677e-07 -6.42244e-07 0)
(5.09614e-07 -6.49982e-07 0)
(4.9625e-07 -6.57566e-07 0)
(4.90265e-07 -6.66291e-07 0)
(4.89594e-07 -6.75613e-07 0)
(4.92705e-07 -6.85659e-07 0)
(4.9856e-07 -6.96442e-07 0)
(5.06289e-07 -7.07373e-07 0)
(5.21862e-07 -6.56431e-07 0)
(4.66819e-07 -6.77036e-07 0)
(4.31572e-07 -6.89555e-07 0)
(4.10133e-07 -7.01774e-07 0)
(3.98124e-07 -7.12258e-07 0)
(3.92572e-07 -7.22957e-07 0)
(3.91668e-07 -7.33608e-07 0)
(3.94037e-07 -7.44616e-07 0)
(3.98807e-07 -7.56094e-07 0)
(4.05133e-07 -7.67662e-07 0)
(4.07045e-07 -6.81242e-07 0)
(3.614e-07 -7.11185e-07 0)
(3.32188e-07 -7.2962e-07 0)
(3.14366e-07 -7.45761e-07 0)
(3.04321e-07 -7.5878e-07 0)
(2.99574e-07 -7.71204e-07 0)
(2.98639e-07 -7.83012e-07 0)
(3.00367e-07 -7.94862e-07 0)
(3.04067e-07 -8.06941e-07 0)
(3.08987e-07 -8.19085e-07 0)
(2.91337e-07 -7.00382e-07 0)
(2.57156e-07 -7.37826e-07 0)
(2.35287e-07 -7.61016e-07 0)
(2.21917e-07 -7.80307e-07 0)
(2.14348e-07 -7.95361e-07 0)
(2.10718e-07 -8.09168e-07 0)
(2.0992e-07 -8.21903e-07 0)
(2.1109e-07 -8.34432e-07 0)
(2.13728e-07 -8.46991e-07 0)
(2.1724e-07 -8.59614e-07 0)
(1.75055e-07 -7.13397e-07 0)
(1.53893e-07 -7.56087e-07 0)
(1.40352e-07 -7.82604e-07 0)
(1.32059e-07 -8.04098e-07 0)
(1.2735e-07 -8.20575e-07 0)
(1.25069e-07 -8.3535e-07 0)
(1.24534e-07 -8.48734e-07 0)
(1.25207e-07 -8.61739e-07 0)
(1.26786e-07 -8.74635e-07 0)
(1.28891e-07 -8.87603e-07 0)
(5.84626e-08 -7.19952e-07 0)
(5.12895e-08 -7.65352e-07 0)
(4.66945e-08 -7.93587e-07 0)
(4.38747e-08 -8.16221e-07 0)
(4.2268e-08 -8.33435e-07 0)
(4.14831e-08 -8.48711e-07 0)
(4.12895e-08 -8.62431e-07 0)
(4.15044e-08 -8.75684e-07 0)
(4.20268e-08 -8.88755e-07 0)
(4.27255e-08 -9.01902e-07 0)
(1.66614e-06 -2.14744e-08 0)
(1.68167e-06 -1.54573e-08 0)
(1.69063e-06 -1.16186e-08 0)
(1.70011e-06 -9.33639e-09 0)
(1.71023e-06 -8.04042e-09 0)
(1.72269e-06 -7.40656e-09 0)
(1.73747e-06 -7.21801e-09 0)
(1.75479e-06 -7.32149e-09 0)
(1.77461e-06 -7.6345e-09 0)
(1.79665e-06 -8.01928e-09 0)
(1.6537e-06 -6.44091e-08 0)
(1.66664e-06 -4.67096e-08 0)
(1.67399e-06 -3.54419e-08 0)
(1.68238e-06 -2.87611e-08 0)
(1.69179e-06 -2.49827e-08 0)
(1.70375e-06 -2.31516e-08 0)
(1.71816e-06 -2.26288e-08 0)
(1.73519e-06 -2.29648e-08 0)
(1.75476e-06 -2.39131e-08 0)
(1.77653e-06 -2.50748e-08 0)
(1.62885e-06 -1.07713e-07 0)
(1.63688e-06 -7.92837e-08 0)
(1.6411e-06 -6.11979e-08 0)
(1.64743e-06 -5.05029e-08 0)
(1.65548e-06 -4.44773e-08 0)
(1.66647e-06 -4.15908e-08 0)
(1.68018e-06 -4.081e-08 0)
(1.69664e-06 -4.14174e-08 0)
(1.71574e-06 -4.30052e-08 0)
(1.73698e-06 -4.49526e-08 0)
(1.59205e-06 -1.51551e-07 0)
(1.59308e-06 -1.13928e-07 0)
(1.59287e-06 -8.99866e-08 0)
(1.59626e-06 -7.58853e-08 0)
(1.60237e-06 -6.79816e-08 0)
(1.61199e-06 -6.42624e-08 0)
(1.6247e-06 -6.3342e-08 0)
(1.64033e-06 -6.42813e-08 0)
(1.65875e-06 -6.6514e-08 0)
(1.67925e-06 -6.92596e-08 0)
(1.5439e-06 -1.96042e-07 0)
(1.53627e-06 -1.51262e-07 0)
(1.53057e-06 -1.22748e-07 0)
(1.53033e-06 -1.06049e-07 0)
(1.53402e-06 -9.67603e-08 0)
(1.54194e-06 -9.25057e-08 0)
(1.5534e-06 -9.1607e-08 0)
(1.56802e-06 -9.29601e-08 0)
(1.58559e-06 -9.58501e-08 0)
(1.60518e-06 -9.94085e-08 0)
(1.48515e-06 -2.412e-07 0)
(1.46771e-06 -1.91679e-07 0)
(1.45581e-06 -1.60115e-07 0)
(1.45144e-06 -1.41779e-07 0)
(1.45241e-06 -1.31689e-07 0)
(1.45837e-06 -1.27252e-07 0)
(1.46841e-06 -1.26567e-07 0)
(1.48186e-06 -1.28431e-07 0)
(1.49845e-06 -1.31995e-07 0)
(1.517e-06 -1.36379e-07 0)
(1.41665e-06 -2.86938e-07 0)
(1.38887e-06 -2.35338e-07 0)
(1.37042e-06 -2.02406e-07 0)
(1.3617e-06 -1.83495e-07 0)
(1.35976e-06 -1.73253e-07 0)
(1.36365e-06 -1.69027e-07 0)
(1.37214e-06 -1.68774e-07 0)
(1.38433e-06 -1.7126e-07 0)
(1.39983e-06 -1.75534e-07 0)
(1.41729e-06 -1.80755e-07 0)
(1.33938e-06 -3.33049e-07 0)
(1.30134e-06 -2.8213e-07 0)
(1.27641e-06 -2.49574e-07 0)
(1.26334e-06 -2.3119e-07 0)
(1.25851e-06 -2.21467e-07 0)
(1.26029e-06 -2.17855e-07 0)
(1.26718e-06 -2.18258e-07 0)
(1.27807e-06 -2.21485e-07 0)
(1.29239e-06 -2.26504e-07 0)
(1.30874e-06 -2.32598e-07 0)
(1.25434e-06 -3.79206e-07 0)
(1.20676e-06 -3.31674e-07 0)
(1.17582e-06 -3.01208e-07 0)
(1.15871e-06 -2.84431e-07 0)
(1.15113e-06 -2.75889e-07 0)
(1.15091e-06 -2.73285e-07 0)
(1.15624e-06 -2.74573e-07 0)
(1.16583e-06 -2.78644e-07 0)
(1.17892e-06 -2.84503e-07 0)
(1.1942e-06 -2.91486e-07 0)
(1.16254e-06 -4.24972e-07 0)
(1.10676e-06 -3.8333e-07 0)
(1.07065e-06 -3.56543e-07 0)
(1.05002e-06 -3.42373e-07 0)
(1.04003e-06 -3.35616e-07 0)
(1.03797e-06 -3.34375e-07 0)
(1.04181e-06 -3.36723e-07 0)
(1.0501e-06 -3.41725e-07 0)
(1.06191e-06 -3.48405e-07 0)
(1.07617e-06 -3.56502e-07 0)
(1.82102e-06 -8.41287e-09 0)
(1.84761e-06 -8.4582e-09 0)
(1.87594e-06 -8.53306e-09 0)
(1.90589e-06 -8.57713e-09 0)
(1.93728e-06 -8.58035e-09 0)
(1.96998e-06 -8.53947e-09 0)
(2.00383e-06 -8.44382e-09 0)
(2.03871e-06 -8.29207e-09 0)
(2.0745e-06 -8.07807e-09 0)
(2.11108e-06 -7.7988e-09 0)
(2.14832e-06 -7.44888e-09 0)
(2.18612e-06 -7.02315e-09 0)
(2.22436e-06 -6.51459e-09 0)
(2.26292e-06 -5.91512e-09 0)
(2.30169e-06 -5.21433e-09 0)
(2.3405e-06 -4.40019e-09 0)
(2.37928e-06 -3.45671e-09 0)
(2.41773e-06 -2.36708e-09 0)
(2.45594e-06 -1.10366e-09 0)
(2.49317e-06 3.44535e-10 0)
(1.8018e-06 -2.61629e-08 0)
(1.83002e-06 -2.61727e-08 0)
(1.85979e-06 -2.62815e-08 0)
(1.891e-06 -2.63205e-08 0)
(1.9235e-06 -2.62503e-08 0)
(1.95718e-06 -2.60628e-08 0)
(1.99192e-06 -2.57219e-08 0)
(2.02759e-06 -2.52229e-08 0)
(2.0641e-06 -2.45454e-08 0)
(2.10133e-06 -2.36792e-08 0)
(2.13918e-06 -2.26069e-08 0)
(2.17754e-06 -2.13123e-08 0)
(2.2163e-06 -1.97735e-08 0)
(2.25535e-06 -1.79657e-08 0)
(2.29458e-06 -1.58571e-08 0)
(2.33383e-06 -1.34113e-08 0)
(2.37304e-06 -1.05798e-08 0)
(2.4119e-06 -7.31211e-09 0)
(2.45051e-06 -3.52508e-09 0)
(2.48815e-06 8.14381e-10 0)
(1.76401e-06 -4.6453e-08 0)
(1.7954e-06 -4.60646e-08 0)
(1.828e-06 -4.58799e-08 0)
(1.86166e-06 -4.56634e-08 0)
(1.89635e-06 -4.53092e-08 0)
(1.93196e-06 -4.48082e-08 0)
(1.96843e-06 -4.40856e-08 0)
(2.00567e-06 -4.31303e-08 0)
(2.04359e-06 -4.19016e-08 0)
(2.08211e-06 -4.0379e-08 0)
(2.12114e-06 -3.85301e-08 0)
(2.1606e-06 -3.63248e-08 0)
(2.20039e-06 -3.37246e-08 0)
(2.2404e-06 -3.06863e-08 0)
(2.28054e-06 -2.71553e-08 0)
(2.32067e-06 -2.30696e-08 0)
(2.36071e-06 -1.83473e-08 0)
(2.40039e-06 -1.29031e-08 0)
(2.4398e-06 -6.5977e-09 0)
(2.47824e-06 6.25358e-10 0)
(1.70879e-06 -7.07347e-08 0)
(1.74474e-06 -6.93838e-08 0)
(1.78144e-06 -6.83852e-08 0)
(1.81865e-06 -6.75156e-08 0)
(1.85653e-06 -6.65421e-08 0)
(1.89495e-06 -6.54611e-08 0)
(1.93395e-06 -6.41398e-08 0)
(1.97347e-06 -6.25545e-08 0)
(2.01346e-06 -6.06365e-08 0)
(2.05387e-06 -5.83486e-08 0)
(2.09465e-06 -5.5639e-08 0)
(2.13572e-06 -5.24597e-08 0)
(2.17701e-06 -4.87523e-08 0)
(2.21843e-06 -4.44524e-08 0)
(2.25991e-06 -3.94804e-08 0)
(2.30131e-06 -3.37465e-08 0)
(2.34258e-06 -2.71337e-08 0)
(2.38346e-06 -1.95203e-08 0)
(2.42404e-06 -1.07091e-08 0)
(2.46366e-06 -6.1636e-10 0)
(1.63783e-06 -1.00302e-07 0)
(1.67948e-06 -9.72613e-08 0)
(1.72138e-06 -9.47743e-08 0)
(1.7631e-06 -9.27305e-08 0)
(1.80504e-06 -9.07005e-08 0)
(1.84706e-06 -8.86876e-08 0)
(1.88932e-06 -8.64819e-08 0)
(1.93177e-06 -8.40356e-08 0)
(1.97443e-06 -8.12432e-08 0)
(2.01728e-06 -7.80426e-08 0)
(2.06031e-06 -7.43567e-08 0)
(2.10346e-06 -7.01146e-08 0)
(2.14669e-06 -6.52342e-08 0)
(2.18994e-06 -5.96265e-08 0)
(2.23314e-06 -5.31844e-08 0)
(2.27619e-06 -4.57883e-08 0)
(2.31904e-06 -3.72836e-08 0)
(2.36146e-06 -2.75106e-08 0)
(2.40356e-06 -1.6213e-08 0)
(2.44469e-06 -3.27648e-09 0)
(1.55316e-06 -1.36068e-07 0)
(1.60138e-06 -1.30499e-07 0)
(1.64934e-06 -1.25736e-07 0)
(1.69635e-06 -1.2189e-07 0)
(1.7431e-06 -1.18282e-07 0)
(1.7894e-06 -1.14907e-07 0)
(1.83555e-06 -1.11472e-07 0)
(1.88151e-06 -1.07884e-07 0)
(1.92738e-06 -1.03996e-07 0)
(1.97317e-06 -9.97078e-08 0)
(2.0189e-06 -9.4912e-08 0)
(2.06455e-06 -8.9507e-08 0)
(2.11012e-06 -8.33825e-08 0)
(2.15556e-06 -7.64206e-08 0)
(2.20084e-06 -6.84831e-08 0)
(2.24586e-06 -5.94175e-08 0)
(2.29061e-06 -4.90298e-08 0)
(2.33488e-06 -3.71201e-08 0)
(2.37879e-06 -2.33715e-08 0)
(2.42174e-06 -7.63495e-09 0)
(1.45714e-06 -1.78621e-07 0)
(1.51248e-06 -1.69664e-07 0)
(1.56712e-06 -1.61837e-07 0)
(1.62001e-06 -1.55519e-07 0)
(1.67213e-06 -1.49791e-07 0)
(1.72327e-06 -1.44594e-07 0)
(1.77381e-06 -1.39556e-07 0)
(1.82377e-06 -1.34517e-07 0)
(1.87329e-06 -1.29282e-07 0)
(1.92243e-06 -1.23703e-07 0)
(1.97125e-06 -1.17634e-07 0)
(2.01978e-06 -1.1094e-07 0)
(2.06802e-06 -1.03476e-07 0)
(2.11597e-06 -9.5093e-08 0)
(2.16362e-06 -8.5618e-08 0)
(2.21091e-06 -7.4864e-08 0)
(2.25783e-06 -6.25957e-08 0)
(2.30421e-06 -4.85719e-08 0)
(2.35019e-06 -3.24163e-08 0)
(2.39523e-06 -1.39431e-08 0)
(1.35222e-06 -2.28059e-07 0)
(1.41488e-06 -2.14794e-07 0)
(1.47651e-06 -2.03127e-07 0)
(1.53568e-06 -1.93595e-07 0)
(1.59358e-06 -1.8517e-07 0)
(1.64999e-06 -1.77643e-07 0)
(1.70533e-06 -1.70601e-07 0)
(1.75969e-06 -1.63784e-07 0)
(1.81324e-06 -1.56947e-07 0)
(1.86609e-06 -1.4988e-07 0)
(1.91834e-06 -1.42392e-07 0)
(1.97005e-06 -1.34302e-07 0)
(2.02126e-06 -1.25429e-07 0)
(2.07199e-06 -1.15583e-07 0)
(2.12226e-06 -1.04555e-07 0)
(2.17204e-06 -9.21215e-08 0)
(2.22136e-06 -7.80036e-08 0)
(2.27006e-06 -6.19184e-08 0)
(2.31832e-06 -4.34296e-08 0)
(2.36566e-06 -2.23124e-08 0)
(1.24105e-06 -2.84295e-07 0)
(1.311e-06 -2.6593e-07 0)
(1.37957e-06 -2.49926e-07 0)
(1.44522e-06 -2.36555e-07 0)
(1.50905e-06 -2.24943e-07 0)
(1.57097e-06 -2.14637e-07 0)
(1.63136e-06 -2.05203e-07 0)
(1.69038e-06 -1.96272e-07 0)
(1.74823e-06 -1.87543e-07 0)
(1.80506e-06 -1.78743e-07 0)
(1.86099e-06 -1.69632e-07 0)
(1.91612e-06 -1.59982e-07 0)
(1.97052e-06 -1.49569e-07 0)
(2.02425e-06 -1.38166e-07 0)
(2.07736e-06 -1.25524e-07 0)
(2.12983e-06 -1.11379e-07 0)
(2.18173e-06 -9.54099e-08 0)
(2.23294e-06 -7.72935e-08 0)
(2.28366e-06 -5.65387e-08 0)
(2.33349e-06 -3.28861e-08 0)
(1.12565e-06 -3.46253e-07 0)
(1.20267e-06 -3.21788e-07 0)
(1.27776e-06 -3.00953e-07 0)
(1.35e-06 -2.83123e-07 0)
(1.4199e-06 -2.67781e-07 0)
(1.48757e-06 -2.54263e-07 0)
(1.55327e-06 -2.42084e-07 0)
(1.61721e-06 -2.30782e-07 0)
(1.6796e-06 -2.19972e-07 0)
(1.74062e-06 -2.09311e-07 0)
(1.80043e-06 -1.98492e-07 0)
(1.85917e-06 -1.87235e-07 0)
(1.91694e-06 -1.75265e-07 0)
(1.97382e-06 -1.62312e-07 0)
(2.02989e-06 -1.48086e-07 0)
(2.08518e-06 -1.32283e-07 0)
(2.13978e-06 -1.14542e-07 0)
(2.19361e-06 -9.44994e-08 0)
(2.24689e-06 -7.16108e-08 0)
(2.29932e-06 -4.55763e-08 0)
(1.0412e-06 -4.04498e-07 0)
(1.12244e-06 -3.75427e-07 0)
(1.20112e-06 -3.51182e-07 0)
(1.27711e-06 -3.29986e-07 0)
(1.35063e-06 -3.1149e-07 0)
(1.42181e-06 -2.95054e-07 0)
(1.49085e-06 -2.80186e-07 0)
(1.55796e-06 -2.6642e-07 0)
(1.62332e-06 -2.53346e-07 0)
(1.68711e-06 -2.40597e-07 0)
(1.74949e-06 -2.27835e-07 0)
(1.81061e-06 -2.14748e-07 0)
(1.87059e-06 -2.01032e-07 0)
(1.92952e-06 -1.8639e-07 0)
(1.9875e-06 -1.70506e-07 0)
(2.04458e-06 -1.53055e-07 0)
(2.10088e-06 -1.33656e-07 0)
(2.15638e-06 -1.1193e-07 0)
(2.21129e-06 -8.73223e-08 0)
(2.26541e-06 -5.95275e-08 0)
(9.92281e-07 -4.5118e-07 0)
(1.074e-06 -4.21042e-07 0)
(1.15327e-06 -3.94958e-07 0)
(1.23016e-06 -3.71765e-07 0)
(1.30473e-06 -3.51133e-07 0)
(1.37707e-06 -3.32537e-07 0)
(1.44731e-06 -3.15529e-07 0)
(1.51561e-06 -2.99681e-07 0)
(1.58213e-06 -2.84602e-07 0)
(1.64701e-06 -2.69932e-07 0)
(1.71041e-06 -2.55336e-07 0)
(1.77246e-06 -2.405e-07 0)
(1.83327e-06 -2.25117e-07 0)
(1.89296e-06 -2.08882e-07 0)
(1.95162e-06 -1.9148e-07 0)
(2.00932e-06 -1.72584e-07 0)
(2.0662e-06 -1.51823e-07 0)
(2.12226e-06 -1.28826e-07 0)
(2.17774e-06 -1.03067e-07 0)
(2.23252e-06 -7.4265e-08 0)
(9.49818e-07 -4.96349e-07 0)
(1.03079e-06 -4.65409e-07 0)
(1.10989e-06 -4.38032e-07 0)
(1.18689e-06 -4.13253e-07 0)
(1.26183e-06 -3.90824e-07 0)
(1.33469e-06 -3.70329e-07 0)
(1.40559e-06 -3.51374e-07 0)
(1.47461e-06 -3.33582e-07 0)
(1.54188e-06 -3.16592e-07 0)
(1.60751e-06 -3.00066e-07 0)
(1.67164e-06 -2.83681e-07 0)
(1.73437e-06 -2.67128e-07 0)
(1.79584e-06 -2.50104e-07 0)
(1.85613e-06 -2.32308e-07 0)
(1.91535e-06 -2.13428e-07 0)
(1.9736e-06 -1.93146e-07 0)
(2.03099e-06 -1.71103e-07 0)
(2.08758e-06 -1.46948e-07 0)
(2.1436e-06 -1.20192e-07 0)
(2.19901e-06 -9.05818e-08 0)
(9.12132e-07 -5.39868e-07 0)
(9.91957e-07 -5.08483e-07 0)
(1.07036e-06 -4.80108e-07 0)
(1.14693e-06 -4.54009e-07 0)
(1.22172e-06 -4.30029e-07 0)
(1.29465e-06 -4.07842e-07 0)
(1.36576e-06 -3.8712e-07 0)
(1.43511e-06 -3.67535e-07 0)
(1.50278e-06 -3.48761e-07 0)
(1.56887e-06 -3.30484e-07 0)
(1.63347e-06 -3.12399e-07 0)
(1.69668e-06 -2.9421e-07 0)
(1.75861e-06 -2.75623e-07 0)
(1.81936e-06 -2.56346e-07 0)
(1.87904e-06 -2.36077e-07 0)
(1.93773e-06 -2.14511e-07 0)
(1.99557e-06 -1.91309e-07 0)
(2.05263e-06 -1.66144e-07 0)
(2.10914e-06 -1.38568e-07 0)
(2.16513e-06 -1.08359e-07 0)
(8.7876e-07 -5.8158e-07 0)
(9.57069e-07 -5.5e-07 0)
(1.03436e-06 -5.20934e-07 0)
(1.11009e-06 -4.93815e-07 0)
(1.18433e-06 -4.68562e-07 0)
(1.25692e-06 -4.44928e-07 0)
(1.32789e-06 -4.22649e-07 0)
(1.39723e-06 -4.01446e-07 0)
(1.465e-06 -3.81035e-07 0)
(1.53127e-06 -3.61131e-07 0)
(1.5961e-06 -3.41453e-07 0)
(1.6596e-06 -3.21721e-07 0)
(1.72183e-06 -3.01657e-07 0)
(1.78291e-06 -2.80983e-07 0)
(1.84292e-06 -2.59413e-07 0)
(1.90197e-06 -2.36659e-07 0)
(1.96018e-06 -2.12407e-07 0)
(2.01766e-06 -1.86357e-07 0)
(2.07462e-06 -1.58111e-07 0)
(2.13113e-06 -1.27477e-07 0)
(8.48982e-07 -6.21453e-07 0)
(9.25578e-07 -5.8989e-07 0)
(1.00148e-06 -5.60367e-07 0)
(1.07609e-06 -5.32466e-07 0)
(1.14947e-06 -5.06173e-07 0)
(1.22141e-06 -4.8131e-07 0)
(1.29193e-06 -4.57673e-07 0)
(1.36098e-06 -4.35032e-07 0)
(1.4286e-06 -4.13143e-07 0)
(1.49481e-06 -3.91753e-07 0)
(1.55968e-06 -3.70607e-07 0)
(1.62328e-06 -3.49448e-07 0)
(1.68567e-06 -3.28016e-07 0)
(1.74694e-06 -3.06051e-07 0)
(1.80719e-06 -2.83287e-07 0)
(1.86651e-06 -2.59456e-07 0)
(1.92503e-06 -2.34273e-07 0)
(1.98286e-06 -2.07468e-07 0)
(2.04021e-06 -1.78694e-07 0)
(2.09719e-06 -1.47791e-07 0)
(8.22218e-07 -6.59524e-07 0)
(8.96983e-07 -6.2813e-07 0)
(9.71324e-07 -5.98343e-07 0)
(1.0446e-06 -5.69871e-07 0)
(1.11689e-06 -5.42754e-07 0)
(1.18796e-06 -5.1687e-07 0)
(1.2578e-06 -4.9207e-07 0)
(1.32633e-06 -4.68171e-07 0)
(1.39358e-06 -4.44967e-07 0)
(1.45955e-06 -4.22241e-07 0)
(1.52428e-06 -3.99763e-07 0)
(1.58782e-06 -3.77301e-07 0)
(1.65023e-06 -3.54618e-07 0)
(1.71159e-06 -3.31473e-07 0)
(1.77198e-06 -3.07624e-07 0)
(1.83149e-06 -2.82826e-07 0)
(1.89026e-06 -2.56825e-07 0)
(1.94839e-06 -2.29383e-07 0)
(2.00607e-06 -2.00205e-07 0)
(2.06346e-06 -1.69161e-07 0)
(7.97914e-07 -6.95861e-07 0)
(8.70801e-07 -6.64745e-07 0)
(9.43473e-07 -6.34842e-07 0)
(1.0153e-06 -6.0597e-07 0)
(1.08634e-06 -5.7821e-07 0)
(1.15636e-06 -5.51489e-07 0)
(1.22534e-06 -5.25706e-07 0)
(1.29319e-06 -5.00721e-07 0)
(1.35991e-06 -4.76366e-07 0)
(1.42548e-06 -4.52454e-07 0)
(1.48992e-06 -4.28785e-07 0)
(1.55328e-06 -4.05153e-07 0)
(1.6156e-06 -3.81343e-07 0)
(1.67694e-06 -3.57138e-07 0)
(1.73739e-06 -3.32318e-07 0)
(1.79703e-06 -3.06667e-07 0)
(1.85598e-06 -2.79959e-07 0)
(1.91435e-06 -2.51991e-07 0)
(1.97231e-06 -2.22517e-07 0)
(2.03005e-06 -1.91439e-07 0)
(7.75584e-07 -7.30571e-07 0)
(8.46591e-07 -6.99799e-07 0)
(9.17545e-07 -6.69892e-07 0)
(9.8784e-07 -6.40759e-07 0)
(1.05754e-06 -6.1251e-07 0)
(1.12641e-06 -5.85115e-07 0)
(1.1944e-06 -5.58516e-07 0)
(1.26144e-06 -5.32607e-07 0)
(1.32749e-06 -5.07257e-07 0)
(1.39254e-06 -4.82308e-07 0)
(1.45659e-06 -4.57591e-07 0)
(1.51966e-06 -4.32922e-07 0)
(1.5818e-06 -4.08112e-07 0)
(1.64305e-06 -3.82967e-07 0)
(1.70348e-06 -3.57293e-07 0)
(1.76318e-06 -3.30897e-07 0)
(1.82225e-06 -3.03587e-07 0)
(1.88082e-06 -2.75192e-07 0)
(1.93902e-06 -2.45515e-07 0)
(1.99705e-06 -2.14483e-07 0)
(7.54791e-07 -7.63766e-07 0)
(8.23947e-07 -7.33373e-07 0)
(8.93176e-07 -7.03541e-07 0)
(9.61912e-07 -6.74254e-07 0)
(1.03021e-06 -6.45645e-07 0)
(1.09785e-06 -6.17718e-07 0)
(1.16479e-06 -5.9045e-07 0)
(1.23092e-06 -5.63768e-07 0)
(1.29622e-06 -5.37571e-07 0)
(1.36065e-06 -5.11731e-07 0)
(1.42422e-06 -4.86104e-07 0)
(1.48693e-06 -4.60532e-07 0)
(1.54881e-06 -4.34849e-07 0)
(1.6099e-06 -4.08884e-07 0)
(1.67027e-06 -3.82468e-07 0)
(1.72998e-06 -3.55434e-07 0)
(1.78913e-06 -3.27621e-07 0)
(1.84784e-06 -2.98888e-07 0)
(1.90623e-06 -2.69083e-07 0)
(1.9645e-06 -2.38159e-07 0)
(7.35144e-07 -7.95565e-07 0)
(8.02501e-07 -7.65559e-07 0)
(8.70026e-07 -7.35857e-07 0)
(9.37204e-07 -7.06499e-07 0)
(1.00409e-06 -6.77636e-07 0)
(1.07046e-06 -6.49299e-07 0)
(1.13629e-06 -6.21494e-07 0)
(1.20146e-06 -5.94176e-07 0)
(1.26595e-06 -5.67271e-07 0)
(1.32971e-06 -5.40678e-07 0)
(1.39274e-06 -5.14276e-07 0)
(1.45503e-06 -4.87931e-07 0)
(1.5166e-06 -4.61497e-07 0)
(1.57749e-06 -4.3483e-07 0)
(1.63774e-06 -4.07781e-07 0)
(1.69742e-06 -3.80209e-07 0)
(1.75661e-06 -3.51982e-07 0)
(1.81542e-06 -3.22988e-07 0)
(1.87396e-06 -2.93115e-07 0)
(1.93241e-06 -2.62341e-07 0)
(7.16295e-07 -8.26077e-07 0)
(7.81913e-07 -7.96454e-07 0)
(8.47774e-07 -7.66915e-07 0)
(9.13418e-07 -7.37549e-07 0)
(9.78894e-07 -7.08518e-07 0)
(1.044e-06 -6.79875e-07 0)
(1.1087e-06 -6.5165e-07 0)
(1.1729e-06 -6.23821e-07 0)
(1.23654e-06 -5.96338e-07 0)
(1.2996e-06 -5.69121e-07 0)
(1.36205e-06 -5.42072e-07 0)
(1.42388e-06 -5.15077e-07 0)
(1.48511e-06 -4.88013e-07 0)
(1.54575e-06 -4.60754e-07 0)
(1.60585e-06 -4.33175e-07 0)
(1.66547e-06 -4.0516e-07 0)
(1.72467e-06 -3.76599e-07 0)
(1.78354e-06 -3.47409e-07 0)
(1.8422e-06 -3.17516e-07 0)
(1.9008e-06 -2.86915e-07 0)
(6.97915e-07 -8.55411e-07 0)
(7.61863e-07 -8.26152e-07 0)
(8.26117e-07 -7.96796e-07 0)
(8.9027e-07 -7.6747e-07 0)
(9.54368e-07 -7.38343e-07 0)
(1.01823e-06 -7.09484e-07 0)
(1.08182e-06 -6.80942e-07 0)
(1.14503e-06 -6.52715e-07 0)
(1.20783e-06 -6.24771e-07 0)
(1.27017e-06 -5.97051e-07 0)
(1.33203e-06 -5.69475e-07 0)
(1.39338e-06 -5.41947e-07 0)
(1.45425e-06 -5.14365e-07 0)
(1.51463e-06 -4.8662e-07 0)
(1.57456e-06 -4.58608e-07 0)
(1.63409e-06 -4.30233e-07 0)
(1.69327e-06 -4.01411e-07 0)
(1.75219e-06 -3.7208e-07 0)
(1.81092e-06 -3.42199e-07 0)
(1.86962e-06 -3.11779e-07 0)
(6.79703e-07 -8.83658e-07 0)
(7.42051e-07 -8.54747e-07 0)
(8.04759e-07 -8.25581e-07 0)
(8.67481e-07 -7.9633e-07 0)
(9.30251e-07 -7.67167e-07 0)
(9.9291e-07 -7.3817e-07 0)
(1.05541e-06 -7.09404e-07 0)
(1.11767e-06 -6.8088e-07 0)
(1.17965e-06 -6.52584e-07 0)
(1.24128e-06 -6.24472e-07 0)
(1.30255e-06 -5.9648e-07 0)
(1.36343e-06 -5.6853e-07 0)
(1.42393e-06 -5.40534e-07 0)
(1.48404e-06 -5.12401e-07 0)
(1.54379e-06 -4.84045e-07 0)
(1.60321e-06 -4.55387e-07 0)
(1.66236e-06 -4.26365e-07 0)
(1.72129e-06 -3.96938e-07 0)
(1.78008e-06 -3.6709e-07 0)
(1.83886e-06 -3.36848e-07 0)
(6.61352e-07 -9.10915e-07 0)
(7.22178e-07 -8.82317e-07 0)
(7.83418e-07 -8.53354e-07 0)
(8.4478e-07 -8.24213e-07 0)
(9.06289e-07 -7.95065e-07 0)
(9.67806e-07 -7.65999e-07 0)
(1.02928e-06 -7.37089e-07 0)
(1.09064e-06 -7.0836e-07 0)
(1.15182e-06 -6.79809e-07 0)
(1.21278e-06 -6.51406e-07 0)
(1.27349e-06 -6.23101e-07 0)
(1.33391e-06 -5.94829e-07 0)
(1.39405e-06 -5.66515e-07 0)
(1.45389e-06 -5.38083e-07 0)
(1.51346e-06 -5.09462e-07 0)
(1.57278e-06 -4.8059e-07 0)
(1.63187e-06 -4.5142e-07 0)
(1.69081e-06 -4.2193e-07 0)
(1.74963e-06 -3.92127e-07 0)
(1.80845e-06 -3.62048e-07 0)
(6.42582e-07 -9.37242e-07 0)
(7.01959e-07 -9.08978e-07 0)
(7.61798e-07 -8.80196e-07 0)
(8.21895e-07 -8.51185e-07 0)
(8.82231e-07 -8.22103e-07 0)
(9.42691e-07 -7.93029e-07 0)
(1.00322e-06 -7.64051e-07 0)
(1.06373e-06 -7.35199e-07 0)
(1.12419e-06 -7.06483e-07 0)
(1.18453e-06 -6.77882e-07 0)
(1.24471e-06 -6.49357e-07 0)
(1.30471e-06 -6.20853e-07 0)
(1.36451e-06 -5.92308e-07 0)
(1.4241e-06 -5.63659e-07 0)
(1.48349e-06 -5.34844e-07 0)
(1.5427e-06 -5.05815e-07 0)
(1.60174e-06 -4.76542e-07 0)
(1.66066e-06 -4.47015e-07 0)
(1.7195e-06 -4.17258e-07 0)
(1.77834e-06 -3.87319e-07 0)
(6.23099e-07 -9.62761e-07 0)
(6.81055e-07 -9.34726e-07 0)
(7.39562e-07 -9.06194e-07 0)
(7.98545e-07 -8.77373e-07 0)
(8.57814e-07 -8.48392e-07 0)
(9.1733e-07 -8.19366e-07 0)
(9.77009e-07 -7.90381e-07 0)
(1.03678e-06 -7.61479e-07 0)
(1.09659e-06 -7.32674e-07 0)
(1.15638e-06 -7.03954e-07 0)
(1.2161e-06 -6.75289e-07 0)
(1.27572e-06 -6.46634e-07 0)
(1.33522e-06 -6.17933e-07 0)
(1.39458e-06 -5.89134e-07 0)
(1.4538e-06 -5.60186e-07 0)
(1.5129e-06 -5.31051e-07 0)
(1.57188e-06 -5.01708e-07 0)
(1.63078e-06 -4.7216e-07 0)
(1.68962e-06 -4.42446e-07 0)
(1.74847e-06 -4.12618e-07 0)
(6.02429e-07 -9.87436e-07 0)
(6.59182e-07 -9.59671e-07 0)
(7.16593e-07 -9.31447e-07 0)
(7.74495e-07 -9.02828e-07 0)
(8.32836e-07 -8.73993e-07 0)
(8.91522e-07 -8.45071e-07 0)
(9.50477e-07 -8.16141e-07 0)
(1.00962e-06 -7.87255e-07 0)
(1.06889e-06 -7.58432e-07 0)
(1.12821e-06 -7.29665e-07 0)
(1.18755e-06 -7.00931e-07 0)
(1.24685e-06 -6.72192e-07 0)
(1.30608e-06 -6.43401e-07 0)
(1.36524e-06 -6.14511e-07 0)
(1.42432e-06 -5.85481e-07 0)
(1.48331e-06 -5.5628e-07 0)
(1.54222e-06 -5.26896e-07 0)
(1.60109e-06 -4.97339e-07 0)
(1.65992e-06 -4.67655e-07 0)
(1.71877e-06 -4.37906e-07 0)
(5.80311e-07 -1.01155e-06 0)
(6.35959e-07 -9.84123e-07 0)
(6.92366e-07 -9.56137e-07 0)
(7.4939e-07 -9.2774e-07 0)
(8.06973e-07 -8.99095e-07 0)
(8.65008e-07 -8.70316e-07 0)
(9.23406e-07 -8.41491e-07 0)
(9.82077e-07 -8.12671e-07 0)
(1.04094e-06 -7.8388e-07 0)
(1.09992e-06 -7.55118e-07 0)
(1.15896e-06 -7.26366e-07 0)
(1.21802e-06 -6.97593e-07 0)
(1.27705e-06 -6.68758e-07 0)
(1.33603e-06 -6.3982e-07 0)
(1.39497e-06 -6.10744e-07 0)
(1.45385e-06 -5.81505e-07 0)
(1.51269e-06 -5.52098e-07 0)
(1.57152e-06 -5.22538e-07 0)
(1.63033e-06 -4.92874e-07 0)
(1.68916e-06 -4.6317e-07 0)
(5.56452e-07 -1.0349e-06 0)
(6.11122e-07 -1.00784e-06 0)
(6.66698e-07 -9.80203e-07 0)
(7.23046e-07 -9.52105e-07 0)
(7.80073e-07 -9.23712e-07 0)
(8.37656e-07 -8.95139e-07 0)
(8.95689e-07 -8.66474e-07 0)
(9.54061e-07 -8.37772e-07 0)
(1.01268e-06 -8.09061e-07 0)
(1.07145e-06 -7.80347e-07 0)
(1.13031e-06 -7.51617e-07 0)
(1.18919e-06 -7.22845e-07 0)
(1.24807e-06 -6.93998e-07 0)
(1.30691e-06 -6.65043e-07 0)
(1.36571e-06 -6.35949e-07 0)
(1.42448e-06 -6.06696e-07 0)
(1.48323e-06 -5.77283e-07 0)
(1.54199e-06 -5.47726e-07 0)
(1.60076e-06 -5.18074e-07 0)
(1.65958e-06 -4.8839e-07 0)
(4.25022e-08 -9.15414e-07 0)
(1.28143e-07 -9.01793e-07 0)
(2.15722e-07 -8.75116e-07 0)
(3.06322e-07 -8.36425e-07 0)
(4.00849e-07 -7.87208e-07 0)
(4.99874e-07 -7.29307e-07 0)
(6.03626e-07 -6.6482e-07 0)
(7.11934e-07 -5.95984e-07 0)
(8.24297e-07 -5.25061e-07 0)
(9.39937e-07 -4.53902e-07 0)
(4.12372e-08 -9.29426e-07 0)
(1.24251e-07 -9.16982e-07 0)
(2.08894e-07 -8.92595e-07 0)
(2.9608e-07 -8.57142e-07 0)
(3.86583e-07 -8.11891e-07 0)
(4.80905e-07 -7.58408e-07 0)
(5.7925e-07 -6.9848e-07 0)
(6.81483e-07 -6.34025e-07 0)
(7.86992e-07 -5.67117e-07 0)
(8.95325e-07 -4.99098e-07 0)
(4.01371e-08 -9.43785e-07 0)
(1.20859e-07 -9.32408e-07 0)
(2.02917e-07 -9.10094e-07 0)
(2.87059e-07 -8.77605e-07 0)
(3.73929e-07 -8.36035e-07 0)
(4.63959e-07 -7.86735e-07 0)
(5.57353e-07 -7.31237e-07 0)
(6.54115e-07 -6.7114e-07 0)
(7.53787e-07 -6.08258e-07 0)
(8.5614e-07 -5.4331e-07 0)
(3.91587e-08 -9.58523e-07 0)
(1.17852e-07 -9.48056e-07 0)
(1.97662e-07 -9.2751e-07 0)
(2.79209e-07 -8.97552e-07 0)
(3.63029e-07 -8.59143e-07 0)
(4.49479e-07 -8.13461e-07 0)
(5.38713e-07 -7.61866e-07 0)
(6.30737e-07 -7.05745e-07 0)
(7.25175e-07 -6.46795e-07 0)
(8.21809e-07 -5.8549e-07 0)
(3.82562e-08 -9.73631e-07 0)
(1.15083e-07 -9.63973e-07 0)
(1.92839e-07 -9.45007e-07 0)
(2.72041e-07 -9.17324e-07 0)
(3.53132e-07 -8.81777e-07 0)
(4.36417e-07 -8.39404e-07 0)
(5.22033e-07 -7.91411e-07 0)
(6.09984e-07 -7.38977e-07 0)
(7.0002e-07 -6.83638e-07 0)
(7.91725e-07 -6.25811e-07 0)
(3.74169e-08 -9.89084e-07 0)
(1.12516e-07 -9.8013e-07 0)
(1.88398e-07 -9.62536e-07 0)
(2.65494e-07 -9.36832e-07 0)
(3.44176e-07 -9.03789e-07 0)
(4.24686e-07 -8.64335e-07 0)
(5.07144e-07 -8.19563e-07 0)
(5.91512e-07 -7.70519e-07 0)
(6.77687e-07 -7.18584e-07 0)
(7.65084e-07 -6.64202e-07 0)
(3.66142e-08 -1.00486e-06 0)
(1.10067e-07 -9.96535e-07 0)
(1.84185e-07 -9.80162e-07 0)
(2.5933e-07 -9.56226e-07 0)
(3.3582e-07 -9.25427e-07 0)
(4.13847e-07 -8.886e-07 0)
(4.93528e-07 -8.46735e-07 0)
(5.74776e-07 -8.00772e-07 0)
(6.57602e-07 -7.51934e-07 0)
(7.41282e-07 -7.00764e-07 0)
(3.58378e-08 -1.02093e-06 0)
(1.07706e-07 -1.01315e-06 0)
(1.80147e-07 -9.97855e-07 0)
(2.53468e-07 -9.75481e-07 0)
(3.27942e-07 -9.4667e-07 0)
(4.03719e-07 -9.12186e-07 0)
(4.80914e-07 -8.72934e-07 0)
(5.59399e-07 -8.29778e-07 0)
(6.3927e-07 -7.83792e-07 0)
(7.19735e-07 -7.35606e-07 0)
(3.50728e-08 -1.03725e-06 0)
(1.05385e-07 -1.02996e-06 0)
(1.76199e-07 -1.01563e-06 0)
(2.47779e-07 -9.94653e-07 0)
(3.20365e-07 -9.67623e-07 0)
(3.94074e-07 -9.35242e-07 0)
(4.69019e-07 -8.98338e-07 0)
(5.45042e-07 -8.5772e-07 0)
(6.22291e-07 -8.14329e-07 0)
(6.99957e-07 -7.68869e-07 0)
(3.43101e-08 -1.05378e-06 0)
(1.03077e-07 -1.04693e-06 0)
(1.72291e-07 -1.03346e-06 0)
(2.42186e-07 -1.01373e-06 0)
(3.12975e-07 -9.88293e-07 0)
(3.8475e-07 -9.57801e-07 0)
(4.57624e-07 -9.23013e-07 0)
(5.31421e-07 -8.84693e-07 0)
(6.06313e-07 -8.4367e-07 0)
(6.8152e-07 -8.00689e-07 0)
(3.35392e-08 -1.07048e-06 0)
(1.0075e-07 -1.06403e-06 0)
(1.68368e-07 -1.05133e-06 0)
(2.36604e-07 -1.03272e-06 0)
(3.05654e-07 -1.00872e-06 0)
(3.75593e-07 -9.79931e-07 0)
(4.4653e-07 -9.47053e-07 0)
(5.18287e-07 -9.10809e-07 0)
(5.91036e-07 -8.71936e-07 0)
(6.64054e-07 -8.31201e-07 0)
(3.27514e-08 -1.0873e-06 0)
(9.83761e-08 -1.08121e-06 0)
(1.64381e-07 -1.0692e-06 0)
(2.30962e-07 -1.05161e-06 0)
(2.98301e-07 -1.02891e-06 0)
(3.66467e-07 -1.00166e-06 0)
(4.35561e-07 -9.70506e-07 0)
(5.05415e-07 -9.36143e-07 0)
(5.76188e-07 -8.99226e-07 0)
(6.47227e-07 -8.60521e-07 0)
(3.19372e-08 -1.1042e-06 0)
(9.59271e-08 -1.09842e-06 0)
(1.6028e-07 -1.08705e-06 0)
(2.25185e-07 -1.07039e-06 0)
(2.90816e-07 -1.04886e-06 0)
(3.57238e-07 -1.02301e-06 0)
(4.2455e-07 -9.93426e-07 0)
(4.92596e-07 -9.60767e-07 0)
(5.61518e-07 -9.25629e-07 0)
(6.30738e-07 -8.8876e-07 0)
(3.10871e-08 -1.1211e-06 0)
(9.33739e-08 -1.11562e-06 0)
(1.56016e-07 -1.10483e-06 0)
(2.192e-07 -1.08901e-06 0)
(2.83098e-07 -1.06856e-06 0)
(3.47778e-07 -1.04398e-06 0)
(4.13333e-07 -1.01583e-06 0)
(4.7963e-07 -9.84725e-07 0)
(5.46787e-07 -9.51209e-07 0)
(6.14305e-07 -9.16002e-07 0)
(3.01904e-08 -1.13796e-06 0)
(9.06835e-08 -1.13275e-06 0)
(1.51533e-07 -1.1225e-06 0)
(2.12927e-07 -1.10745e-06 0)
(2.7504e-07 -1.088e-06 0)
(3.37947e-07 -1.06459e-06 0)
(4.0174e-07 -1.03776e-06 0)
(4.66311e-07 -1.00807e-06 0)
(5.31754e-07 -9.76035e-07 0)
(5.97645e-07 -9.4234e-07 0)
(2.92353e-08 -1.15467e-06 0)
(8.78209e-08 -1.14972e-06 0)
(1.4677e-07 -1.13997e-06 0)
(2.06279e-07 -1.12565e-06 0)
(2.66528e-07 -1.10711e-06 0)
(3.27602e-07 -1.08479e-06 0)
(3.89597e-07 -1.05918e-06 0)
(4.5243e-07 -1.0308e-06 0)
(5.16175e-07 -1.00013e-06 0)
(5.80482e-07 -9.67812e-07 0)
(2.82075e-08 -1.17121e-06 0)
(8.47428e-08 -1.1665e-06 0)
(1.41655e-07 -1.15722e-06 0)
(1.99153e-07 -1.14358e-06 0)
(2.57425e-07 -1.12591e-06 0)
(3.16574e-07 -1.10461e-06 0)
(3.76699e-07 -1.08013e-06 0)
(4.37745e-07 -1.05298e-06 0)
(4.99781e-07 -1.02358e-06 0)
(5.62502e-07 -9.92543e-07 0)
(2.70923e-08 -1.18737e-06 0)
(8.14047e-08 -1.18289e-06 0)
(1.36113e-07 -1.17406e-06 0)
(1.91442e-07 -1.16107e-06 0)
(2.47593e-07 -1.14423e-06 0)
(3.04688e-07 -1.1239e-06 0)
(3.62835e-07 -1.1005e-06 0)
(4.22011e-07 -1.07451e-06 0)
(4.82267e-07 -1.04631e-06 0)
(5.43384e-07 -1.01648e-06 0)
(2.58668e-08 -1.20325e-06 0)
(7.77378e-08 -1.199e-06 0)
(1.30029e-07 -1.1906e-06 0)
(1.82985e-07 -1.17824e-06 0)
(2.36823e-07 -1.1622e-06 0)
(2.91689e-07 -1.14281e-06 0)
(3.47708e-07 -1.12046e-06 0)
(4.0489e-07 -1.09557e-06 0)
(4.63282e-07 -1.06853e-06 0)
(5.2273e-07 -1.03985e-06 0)
(2.45203e-08 -1.21829e-06 0)
(7.37103e-08 -1.21425e-06 0)
(1.2335e-07 -1.20629e-06 0)
(1.73702e-07 -1.19456e-06 0)
(2.25008e-07 -1.17932e-06 0)
(2.77441e-07 -1.16087e-06 0)
(3.3115e-07 -1.13957e-06 0)
(3.86177e-07 -1.1158e-06 0)
(4.4259e-07 -1.08993e-06 0)
(5.00279e-07 -1.06241e-06 0)
)


// ************************************************************************* //
