/*--------------------------------*- C++ -*----------------------------------*\
| =========                 |                                                 |
| \\      /  F ield         | foam-extend: Open Source CFD                    |
|  \\    /   O peration     | Version:     4.1                                |
|   \\  /    A nd           | Web:         http://www.foam-extend.org         |
|    \\/     M anipulation  |                                                 |
\*---------------------------------------------------------------------------*/
FoamFile
{
    version     2.0;
    format      ascii;
    class       vectorField;
    location    "2";
    object      residualD_iteration0;
}
// * * * * * * * * * * * * * * * * * * * * * * * * * * * * * * * * * * * * * //


1000
(
(0.30927 0 0)
(0.312055 0 0)
(0.316947 0 0)
(0.323547 0 0)
(0.331562 0 0)
(0.340752 0 0)
(0.350892 0 0)
(0.361719 0 0)
(0.372765 0 0)
(0.382912 0 0)
(0.281852 0 0)
(0.284299 0 0)
(0.288584 0 0)
(0.294328 0 0)
(0.301222 0 0)
(0.308978 0 0)
(0.317298 0 0)
(0.32585 0 0)
(0.334223 0 0)
(0.341917 0 0)
(0.25264 0 0)
(0.254754 0 0)
(0.258434 0 0)
(0.263329 0 0)
(0.269143 0 0)
(0.2756 0 0)
(0.282433 0 0)
(0.289387 0 0)
(0.296228 0 0)
(0.302761 0 0)
(0.221894 0 0)
(0.223677 0 0)
(0.22677 0 0)
(0.230865 0 0)
(0.235698 0 0)
(0.241035 0 0)
(0.246667 0 0)
(0.252421 0 0)
(0.258165 0 0)
(0.263815 0 0)
(0.189842 0 0)
(0.191305 0 0)
(0.193846 0 0)
(0.197205 0 0)
(0.20116 0 0)
(0.20552 0 0)
(0.210133 0 0)
(0.214884 0 0)
(0.219696 0 0)
(0.224528 0 0)
(0.156708 0 0)
(0.157869 0 0)
(0.159899 0 0)
(0.162583 0 0)
(0.165739 0 0)
(0.169221 0 0)
(0.17292 0 0)
(0.176763 0 0)
(0.180702 0 0)
(0.184716 0 0)
(0.122716 0 0)
(0.123597 0 0)
(0.125151 0 0)
(0.127205 0 0)
(0.129619 0 0)
(0.132285 0 0)
(0.135128 0 0)
(0.138102 0 0)
(0.141182 0 0)
(0.144352 0 0)
(0.0880826 0 0)
(0.088704 0 0)
(0.0898064 0 0)
(0.0912604 0 0)
(0.0929654 0 0)
(0.0948491 0 0)
(0.0968649 0 0)
(0.098986 0 0)
(0.101198 0 0)
(0.103494 0 0)
(0.0530131 0 0)
(0.0533876 0 0)
(0.0540491 0 0)
(0.054917 0 0)
(0.0559317 0 0)
(0.0570527 0 0)
(0.0582554 0 0)
(0.0595269 0 0)
(0.0608608 0 0)
(0.0622538 0 0)
(0.0176957 0 0)
(0.0178233 0 0)
(0.0180447 0 0)
(0.0183331 0 0)
(0.0186688 0 0)
(0.0190393 0 0)
(0.0194377 0 0)
(0.0198606 0 0)
(0.0203067 0 0)
(0.0207753 0 0)
(0.45176 0 0)
(0.455434 0 0)
(0.461927 0 0)
(0.470563 0 0)
(0.480854 0 0)
(0.492418 0 0)
(0.504949 0 0)
(0.518194 0 0)
(0.531956 0 0)
(0.54608 0 0)
(0.44914 0 0)
(0.45283 0 0)
(0.459334 0 0)
(0.467991 0 0)
(0.478314 0 0)
(0.489918 0 0)
(0.502483 0 0)
(0.51575 0 0)
(0.529515 0 0)
(0.543632 0 0)
(0.443956 0 0)
(0.447666 0 0)
(0.45419 0 0)
(0.462883 0 0)
(0.473262 0 0)
(0.484943 0 0)
(0.497606 0 0)
(0.510987 0 0)
(0.524875 0 0)
(0.539116 0 0)
(0.436174 0 0)
(0.439897 0 0)
(0.446436 0 0)
(0.45516 0 0)
(0.465596 0 0)
(0.477359 0 0)
(0.490127 0 0)
(0.503634 0 0)
(0.517669 0 0)
(0.532073 0 0)
(0.425764 0 0)
(0.429485 0 0)
(0.436022 0 0)
(0.444772 0 0)
(0.455275 0 0)
(0.46716 0 0)
(0.480106 0 0)
(0.493844 0 0)
(0.50815 0 0)
(0.522844 0 0)
(0.412705 0 0)
(0.416394 0 0)
(0.422891 0 0)
(0.431622 0 0)
(0.442155 0 0)
(0.45414 0 0)
(0.467278 0 0)
(0.481314 0 0)
(0.496025 0 0)
(0.511205 0 0)
(0.397004 0 0)
(0.400624 0 0)
(0.407022 0 0)
(0.415662 0 0)
(0.426152 0 0)
(0.438182 0 0)
(0.451498 0 0)
(0.465886 0 0)
(0.481143 0 0)
(0.497046 0 0)
(0.378702 0 0)
(0.3822 0 0)
(0.388403 0 0)
(0.39682 0 0)
(0.407106 0 0)
(0.419016 0 0)
(0.432382 0 0)
(0.447096 0 0)
(0.463058 0 0)
(0.480084 0 0)
(0.357889 0 0)
(0.361204 0 0)
(0.36709 0 0)
(0.3751 0 0)
(0.384933 0 0)
(0.396406 0 0)
(0.409457 0 0)
(0.424164 0 0)
(0.440737 0 0)
(0.459396 0 0)
(0.334702 0 0)
(0.337755 0 0)
(0.343192 0 0)
(0.350589 0 0)
(0.359662 0 0)
(0.370232 0 0)
(0.382262 0 0)
(0.395954 0 0)
(0.411968 0 0)
(0.431968 0 0)
(0.560402 0 0)
(0.575814 0 0)
(0.592235 0 0)
(0.609632 0 0)
(0.627951 0 0)
(0.647119 0 0)
(0.667058 0 0)
(0.687696 0 0)
(0.708969 0 0)
(0.730808 0 0)
(0.753138 0 0)
(0.775876 0 0)
(0.798947 0 0)
(0.822291 0 0)
(0.845853 0 0)
(0.869574 0 0)
(0.8934 0 0)
(0.917276 0 0)
(0.941098 0 0)
(0.964787 0 0)
(0.557939 0 0)
(0.573388 0 0)
(0.589905 0 0)
(0.607459 0 0)
(0.625986 0 0)
(0.6454 0 0)
(0.665604 0 0)
(0.686499 0 0)
(0.707989 0 0)
(0.729988 0 0)
(0.752433 0 0)
(0.775282 0 0)
(0.798496 0 0)
(0.822015 0 0)
(0.845759 0 0)
(0.869662 0 0)
(0.893658 0 0)
(0.917667 0 0)
(0.941647 0 0)
(0.965505 0 0)
(0.553514 0 0)
(0.569114 0 0)
(0.585841 0 0)
(0.603637 0 0)
(0.622423 0 0)
(0.642115 0 0)
(0.662628 0 0)
(0.683875 0 0)
(0.705755 0 0)
(0.728158 0 0)
(0.75099 0 0)
(0.774199 0 0)
(0.797747 0 0)
(0.821581 0 0)
(0.845642 0 0)
(0.869888 0 0)
(0.894222 0 0)
(0.918545 0 0)
(0.942839 0 0)
(0.966979 0 0)
(0.546618 0 0)
(0.562493 0 0)
(0.579623 0 0)
(0.597911 0 0)
(0.617236 0 0)
(0.637473 0 0)
(0.658514 0 0)
(0.680265 0 0)
(0.702636 0 0)
(0.725543 0 0)
(0.748908 0 0)
(0.772662 0 0)
(0.796735 0 0)
(0.821063 0 0)
(0.845599 0 0)
(0.870297 0 0)
(0.895073 0 0)
(0.919857 0 0)
(0.944609 0 0)
(0.969179 0 0)
(0.537628 0 0)
(0.55389 0 0)
(0.571554 0 0)
(0.59048 0 0)
(0.610513 0 0)
(0.631503 0 0)
(0.653313 0 0)
(0.67581 0 0)
(0.698876 0 0)
(0.722427 0 0)
(0.746414 0 0)
(0.770784 0 0)
(0.795462 0 0)
(0.820393 0 0)
(0.845546 0 0)
(0.870819 0 0)
(0.896184 0 0)
(0.921532 0 0)
(0.946869 0 0)
(0.972027 0 0)
(0.526443 0 0)
(0.543372 0 0)
(0.561878 0 0)
(0.581728 0 0)
(0.602704 0 0)
(0.624626 0 0)
(0.647351 0 0)
(0.670747 0 0)
(0.694684 0 0)
(0.719061 0 0)
(0.743816 0 0)
(0.7689 0 0)
(0.794256 0 0)
(0.819847 0 0)
(0.845653 0 0)
(0.871563 0 0)
(0.897565 0 0)
(0.923559 0 0)
(0.949566 0 0)
(0.975431 0 0)
(0.513018 0 0)
(0.53099 0 0)
(0.550751 0 0)
(0.571919 0 0)
(0.594178 0 0)
(0.617294 0 0)
(0.641098 0 0)
(0.665464 0 0)
(0.690296 0 0)
(0.715527 0 0)
(0.741099 0 0)
(0.766948 0 0)
(0.793036 0 0)
(0.819351 0 0)
(0.845834 0 0)
(0.872435 0 0)
(0.899132 0 0)
(0.925848 0 0)
(0.95259 0 0)
(0.979247 0 0)
(0.497356 0 0)
(0.517043 0 0)
(0.538652 0 0)
(0.56158 0 0)
(0.585432 0 0)
(0.609966 0 0)
(0.63502 0 0)
(0.660477 0 0)
(0.686257 0 0)
(0.712334 0 0)
(0.738687 0 0)
(0.765262 0 0)
(0.79203 0 0)
(0.819014 0 0)
(0.846144 0 0)
(0.87342 0 0)
(0.900791 0 0)
(0.92824 0 0)
(0.955757 0 0)
(0.98329 0 0)
(0.479283 0 0)
(0.501985 0 0)
(0.52634 0 0)
(0.551531 0 0)
(0.577196 0 0)
(0.603191 0 0)
(0.629457 0 0)
(0.655961 0 0)
(0.682671 0 0)
(0.709572 0 0)
(0.736653 0 0)
(0.763892 0 0)
(0.791298 0 0)
(0.81889 0 0)
(0.846596 0 0)
(0.874466 0 0)
(0.902436 0 0)
(0.930575 0 0)
(0.958842 0 0)
(0.987271 0 0)
(0.458868 0 0)
(0.486973 0 0)
(0.515049 0 0)
(0.542808 0 0)
(0.570324 0 0)
(0.597715 0 0)
(0.625076 0 0)
(0.652466 0 0)
(0.679923 0 0)
(0.707486 0 0)
(0.735164 0 0)
(0.762948 0 0)
(0.790876 0 0)
(0.818956 0 0)
(0.84714 0 0)
(0.875509 0 0)
(0.903964 0 0)
(0.93267 0 0)
(0.961582 0 0)
(0.990824 0 0)
(0.437293 0 0)
(0.47413 0 0)
(0.506147 0 0)
(0.536147 0 0)
(0.565162 0 0)
(0.593675 0 0)
(0.621933 0 0)
(0.650057 0 0)
(0.678123 0 0)
(0.706205 0 0)
(0.73433 0 0)
(0.76251 0 0)
(0.790814 0 0)
(0.819233 0 0)
(0.847745 0 0)
(0.876458 0 0)
(0.905236 0 0)
(0.934296 0 0)
(0.963608 0 0)
(0.993301 0 0)
(0.428782 0 0)
(0.465472 0 0)
(0.498866 0 0)
(0.530236 0 0)
(0.560398 0 0)
(0.589849 0 0)
(0.618885 0 0)
(0.647664 0 0)
(0.676292 0 0)
(0.704867 0 0)
(0.733426 0 0)
(0.762001 0 0)
(0.790672 0 0)
(0.819407 0 0)
(0.848216 0 0)
(0.877217 0 0)
(0.906277 0 0)
(0.935592 0 0)
(0.965174 0 0)
(0.995066 0 0)
(0.424752 0 0)
(0.460123 0 0)
(0.493589 0 0)
(0.525514 0 0)
(0.556358 0 0)
(0.58648 0 0)
(0.616131 0 0)
(0.645449 0 0)
(0.674554 0 0)
(0.703562 0 0)
(0.732511 0 0)
(0.761449 0 0)
(0.790459 0 0)
(0.819482 0 0)
(0.848563 0 0)
(0.877803 0 0)
(0.907118 0 0)
(0.936632 0 0)
(0.9664 0 0)
(0.996407 0 0)
(0.42246 0 0)
(0.456686 0 0)
(0.489813 0 0)
(0.521864 0 0)
(0.553051 0 0)
(0.583611 0 0)
(0.613717 0 0)
(0.643462 0 0)
(0.672965 0 0)
(0.702344 0 0)
(0.731631 0 0)
(0.760885 0 0)
(0.79019 0 0)
(0.819465 0 0)
(0.848793 0 0)
(0.878232 0 0)
(0.907768 0 0)
(0.937447 0 0)
(0.967352 0 0)
(0.997438 0 0)
(0.421002 0 0)
(0.454395 0 0)
(0.487114 0 0)
(0.519099 0 0)
(0.55042 0 0)
(0.581238 0 0)
(0.611651 0 0)
(0.641713 0 0)
(0.671538 0 0)
(0.701232 0 0)
(0.730808 0 0)
(0.760336 0 0)
(0.789892 0 0)
(0.81938 0 0)
(0.848928 0 0)
(0.878533 0 0)
(0.908254 0 0)
(0.938075 0 0)
(0.968087 0 0)
(0.998231 0 0)
(0.419995 0 0)
(0.452789 0 0)
(0.485153 0 0)
(0.517002 0 0)
(0.548348 0 0)
(0.579307 0 0)
(0.609918 0 0)
(0.640203 0 0)
(0.670276 0 0)
(0.700226 0 0)
(0.730042 0 0)
(0.759798 0 0)
(0.789566 0 0)
(0.819235 0 0)
(0.848978 0 0)
(0.878735 0 0)
(0.908614 0 0)
(0.938554 0 0)
(0.96865 0 0)
(0.998836 0 0)
(0.41929 0 0)
(0.451631 0 0)
(0.483709 0 0)
(0.515403 0 0)
(0.546726 0 0)
(0.57776 0 0)
(0.608493 0 0)
(0.638929 0 0)
(0.669182 0 0)
(0.699328 0 0)
(0.729331 0 0)
(0.759274 0 0)
(0.789222 0 0)
(0.819051 0 0)
(0.848964 0 0)
(0.87886 0 0)
(0.908873 0 0)
(0.938912 0 0)
(0.969071 0 0)
(0.999285 0 0)
(0.418816 0 0)
(0.45081 0 0)
(0.482652 0 0)
(0.514192 0 0)
(0.545467 0 0)
(0.576532 0 0)
(0.607336 0 0)
(0.637866 0 0)
(0.668243 0 0)
(0.698528 0 0)
(0.72867 0 0)
(0.758762 0 0)
(0.788861 0 0)
(0.818845 0 0)
(0.848908 0 0)
(0.878925 0 0)
(0.909046 0 0)
(0.939162 0 0)
(0.969368 0 0)
(0.999603 0 0)
(0.418506 0 0)
(0.450247 0 0)
(0.48189 0 0)
(0.513289 0 0)
(0.544504 0 0)
(0.575566 0 0)
(0.606399 0 0)
(0.636979 0 0)
(0.66743 0 0)
(0.69781 0 0)
(0.728062 0 0)
(0.758281 0 0)
(0.788503 0 0)
(0.818626 0 0)
(0.848817 0 0)
(0.878935 0 0)
(0.909138 0 0)
(0.939314 0 0)
(0.969559 0 0)
(0.999815 0 0)
(0.418309 0 0)
(0.449867 0 0)
(0.48135 0 0)
(0.512634 0 0)
(0.543783 0 0)
(0.574817 0 0)
(0.605647 0 0)
(0.636242 0 0)
(0.666733 0 0)
(0.697176 0 0)
(0.727514 0 0)
(0.757846 0 0)
(0.788168 0 0)
(0.818399 0 0)
(0.84869 0 0)
(0.878887 0 0)
(0.909155 0 0)
(0.939384 0 0)
(0.969667 0 0)
(0.999943 0 0)
(0.418205 0 0)
(0.449624 0 0)
(0.480984 0 0)
(0.512176 0 0)
(0.543253 0 0)
(0.574239 0 0)
(0.605042 0 0)
(0.635632 0 0)
(0.666147 0 0)
(0.696637 0 0)
(0.727042 0 0)
(0.757462 0 0)
(0.787856 0 0)
(0.81816 0 0)
(0.848522 0 0)
(0.878786 0 0)
(0.909116 0 0)
(0.939396 0 0)
(0.969712 0 0)
(1 0 0)
(0.418185 0 0)
(0.449491 0 0)
(0.480756 0 0)
(0.511863 0 0)
(0.542859 0 0)
(0.573781 0 0)
(0.604544 0 0)
(0.635126 0 0)
(0.665666 0 0)
(0.696195 0 0)
(0.726648 0 0)
(0.757119 0 0)
(0.787554 0 0)
(0.817903 0 0)
(0.848324 0 0)
(0.878653 0 0)
(0.909043 0 0)
(0.939364 0 0)
(0.969699 0 0)
(0.999989 0 0)
(0.41824 0 0)
(0.449451 0 0)
(0.480627 0 0)
(0.51164 0 0)
(0.542543 0 0)
(0.573394 0 0)
(0.60412 0 0)
(0.634706 0 0)
(0.665276 0 0)
(0.695837 0 0)
(0.726309 0 0)
(0.756797 0 0)
(0.787252 0 0)
(0.817642 0 0)
(0.848123 0 0)
(0.878514 0 0)
(0.908946 0 0)
(0.939285 0 0)
(0.969626 0 0)
(0.999927 0 0)
(0.418356 0 0)
(0.449481 0 0)
(0.480557 0 0)
(0.511458 0 0)
(0.542263 0 0)
(0.573051 0 0)
(0.603758 0 0)
(0.634363 0 0)
(0.664962 0 0)
(0.695532 0 0)
(0.725997 0 0)
(0.756487 0 0)
(0.786968 0 0)
(0.817409 0 0)
(0.847945 0 0)
(0.87837 0 0)
(0.908814 0 0)
(0.93916 0 0)
(0.96952 0 0)
(0.999848 0 0)
(0.418517 0 0)
(0.449554 0 0)
(0.48051 0 0)
(0.51129 0 0)
(0.542009 0 0)
(0.572761 0 0)
(0.603471 0 0)
(0.634092 0 0)
(0.664696 0 0)
(0.695249 0 0)
(0.725701 0 0)
(0.756211 0 0)
(0.786737 0 0)
(0.817222 0 0)
(0.847776 0 0)
(0.878198 0 0)
(0.908651 0 0)
(0.939036 0 0)
(0.969427 0 0)
(0.999749 0 0)
(0.4187 0 0)
(0.449639 0 0)
(0.480464 0 0)
(0.511141 0 0)
(0.54181 0 0)
(0.572555 0 0)
(0.603268 0 0)
(0.633874 0 0)
(0.664447 0 0)
(0.694981 0 0)
(0.725453 0 0)
(0.75601 0 0)
(0.786569 0 0)
(0.817047 0 0)
(0.847584 0 0)
(0.878023 0 0)
(0.908521 0 0)
(0.938951 0 0)
(0.969353 0 0)
(0.999611 0 0)
(0.418875 0 0)
(0.449707 0 0)
(0.480421 0 0)
(0.51104 0 0)
(0.5417 0 0)
(0.572441 0 0)
(0.603119 0 0)
(0.633667 0 0)
(0.664212 0 0)
(0.694774 0 0)
(0.7253 0 0)
(0.755878 0 0)
(0.786406 0 0)
(0.816851 0 0)
(0.847414 0 0)
(0.877935 0 0)
(0.908455 0 0)
(0.938788 0 0)
(0.969211 0 0)
(0.999652 0 0)
(0.419013 0 0)
(0.449743 0 0)
(0.480397 0 0)
(0.511011 0 0)
(0.541667 0 0)
(0.572362 0 0)
(0.602965 0 0)
(0.633478 0 0)
(0.664064 0 0)
(0.694685 0 0)
(0.725203 0 0)
(0.755712 0 0)
(0.786232 0 0)
(0.816774 0 0)
(0.847368 0 0)
(0.87778 0 0)
(0.9083 0 0)
(0.938731 0 0)
(0.969088 0 0)
(0.999459 0 0)
(0.419104 0 0)
(0.44976 0 0)
(0.480412 0 0)
(0.511026 0 0)
(0.541626 0 0)
(0.572248 0 0)
(0.602848 0 0)
(0.633425 0 0)
(0.664026 0 0)
(0.694573 0 0)
(0.725066 0 0)
(0.755667 0 0)
(0.786209 0 0)
(0.81666 0 0)
(0.847281 0 0)
(0.87776 0 0)
(0.908221 0 0)
(0.938649 0 0)
(0.968995 0 0)
(0.999379 0 0)
(0.419157 0 0)
(0.44979 0 0)
(0.480438 0 0)
(0.510975 0 0)
(0.541558 0 0)
(0.572246 0 0)
(0.602865 0 0)
(0.633364 0 0)
(0.663944 0 0)
(0.694576 0 0)
(0.725069 0 0)
(0.755593 0 0)
(0.786179 0 0)
(0.81667 0 0)
(0.84726 0 0)
(0.877797 0 0)
(0.908267 0 0)
(0.938701 0 0)
(0.969015 0 0)
(0.99924 0 0)
(0.0212627 0 0)
(0.0636965 0 0)
(0.105857 0 0)
(0.147584 0 0)
(0.188754 0 0)
(0.2293 0 0)
(0.269244 0 0)
(0.308752 0 0)
(0.348286 0 0)
(0.388955 0 0)
(0.0216751 0 0)
(0.0649255 0 0)
(0.107864 0 0)
(0.150299 0 0)
(0.192082 0 0)
(0.233118 0 0)
(0.273368 0 0)
(0.312851 0 0)
(0.35165 0 0)
(0.389711 0 0)
(0.0220242 0 0)
(0.0659565 0 0)
(0.109529 0 0)
(0.152516 0 0)
(0.194742 0 0)
(0.236072 0 0)
(0.276385 0 0)
(0.315548 0 0)
(0.353365 0 0)
(0.389354 0 0)
(0.0223121 0 0)
(0.0667979 0 0)
(0.110869 0 0)
(0.154267 0 0)
(0.196792 0 0)
(0.238268 0 0)
(0.2785 0 0)
(0.317249 0 0)
(0.354197 0 0)
(0.388831 0 0)
(0.0225412 0 0)
(0.0674591 0 0)
(0.111905 0 0)
(0.155594 0 0)
(0.198304 0 0)
(0.239825 0 0)
(0.279911 0 0)
(0.318266 0 0)
(0.354548 0 0)
(0.388342 0 0)
(0.0227148 0 0)
(0.0679528 0 0)
(0.112664 0 0)
(0.156544 0 0)
(0.199356 0 0)
(0.240867 0 0)
(0.280795 0 0)
(0.318823 0 0)
(0.354636 0 0)
(0.387928 0 0)
(0.0228372 0 0)
(0.0682948 0 0)
(0.113177 0 0)
(0.15717 0 0)
(0.200028 0 0)
(0.241501 0 0)
(0.281291 0 0)
(0.319078 0 0)
(0.354583 0 0)
(0.387599 0 0)
(0.0229138 0 0)
(0.0685036 0 0)
(0.113481 0 0)
(0.157527 0 0)
(0.200396 0 0)
(0.241826 0 0)
(0.281509 0 0)
(0.319132 0 0)
(0.354458 0 0)
(0.387348 0 0)
(0.0229508 0 0)
(0.0685992 0 0)
(0.113611 0 0)
(0.157671 0 0)
(0.200532 0 0)
(0.241925 0 0)
(0.281534 0 0)
(0.319057 0 0)
(0.354294 0 0)
(0.387162 0 0)
(0.0229546 0 0)
(0.0686021 0 0)
(0.113604 0 0)
(0.157653 0 0)
(0.2005 0 0)
(0.241866 0 0)
(0.281429 0 0)
(0.318902 0 0)
(0.354115 0 0)
(0.387031 0 0)
(0.022932 0 0)
(0.0685329 0 0)
(0.113493 0 0)
(0.157517 0 0)
(0.200347 0 0)
(0.241694 0 0)
(0.281233 0 0)
(0.318692 0 0)
(0.35393 0 0)
(0.386947 0 0)
(0.0228903 0 0)
(0.0684132 0 0)
(0.113314 0 0)
(0.157303 0 0)
(0.200112 0 0)
(0.24144 0 0)
(0.280966 0 0)
(0.318437 0 0)
(0.353741 0 0)
(0.386906 0 0)
(0.0228363 0 0)
(0.0682651 0 0)
(0.113099 0 0)
(0.157049 0 0)
(0.199828 0 0)
(0.241128 0 0)
(0.280644 0 0)
(0.318147 0 0)
(0.353553 0 0)
(0.386908 0 0)
(0.0227762 0 0)
(0.0681085 0 0)
(0.112879 0 0)
(0.156787 0 0)
(0.199524 0 0)
(0.240781 0 0)
(0.280285 0 0)
(0.317839 0 0)
(0.35338 0 0)
(0.386958 0 0)
(0.0227162 0 0)
(0.067961 0 0)
(0.112677 0 0)
(0.156539 0 0)
(0.199217 0 0)
(0.240418 0 0)
(0.279909 0 0)
(0.31753 0 0)
(0.353231 0 0)
(0.38705 0 0)
(0.0226632 0 0)
(0.0678361 0 0)
(0.112504 0 0)
(0.156311 0 0)
(0.198914 0 0)
(0.240049 0 0)
(0.279533 0 0)
(0.317239 0 0)
(0.353112 0 0)
(0.387165 0 0)
(0.022623 0 0)
(0.0677427 0 0)
(0.112365 0 0)
(0.156104 0 0)
(0.198618 0 0)
(0.239686 0 0)
(0.279176 0 0)
(0.316978 0 0)
(0.353014 0 0)
(0.38727 0 0)
(0.0225994 0 0)
(0.0676823 0 0)
(0.112257 0 0)
(0.155913 0 0)
(0.198332 0 0)
(0.239348 0 0)
(0.278864 0 0)
(0.316761 0 0)
(0.352925 0 0)
(0.387335 0 0)
(0.0225911 0 0)
(0.0676494 0 0)
(0.11217 0 0)
(0.155738 0 0)
(0.198078 0 0)
(0.239076 0 0)
(0.278638 0 0)
(0.316602 0 0)
(0.352831 0 0)
(0.387354 0 0)
(0.0225923 0 0)
(0.0676367 0 0)
(0.1121 0 0)
(0.155592 0 0)
(0.197905 0 0)
(0.23894 0 0)
(0.278541 0 0)
(0.316494 0 0)
(0.352717 0 0)
(0.387377 0 0)
)


// ************************************************************************* //
