/*--------------------------------*- C++ -*----------------------------------*\
| =========                 |                                                 |
| \\      /  F ield         | foam-extend: Open Source CFD                    |
|  \\    /   O peration     | Version:     4.1                                |
|   \\  /    A nd           | Web:         http://www.foam-extend.org         |
|    \\/     M anipulation  |                                                 |
\*---------------------------------------------------------------------------*/
FoamFile
{
    version     2.0;
    format      ascii;
    class       vectorField;
    location    "2";
    object      residualD_iteration19;
}
// * * * * * * * * * * * * * * * * * * * * * * * * * * * * * * * * * * * * * //


1000
(
(0.00322699 -0.00355912 0)
(0.00280745 -0.00317765 0)
(0.00248297 -0.0028786 0)
(0.00224943 -0.00266465 0)
(0.00207515 -0.00249165 0)
(0.00193568 -0.00235634 0)
(0.00182763 -0.00223953 0)
(0.00174547 -0.0021317 0)
(0.00166377 -0.00203763 0)
(0.00164907 -0.00195147 0)
(0.00288789 -0.00388175 0)
(0.00243645 -0.00355387 0)
(0.0020974 -0.00328613 0)
(0.00185759 -0.00309421 0)
(0.00168941 -0.00293115 0)
(0.00155894 -0.00280092 0)
(0.00146062 -0.00268717 0)
(0.00138609 -0.00258242 0)
(0.0013219 -0.0024965 0)
(0.00130436 -0.00239987 0)
(0.00254435 -0.00417895 0)
(0.00208394 -0.00391413 0)
(0.00174966 -0.00368633 0)
(0.00151058 -0.00352511 0)
(0.00134354 -0.00337959 0)
(0.00121798 -0.00326139 0)
(0.00112329 -0.00315897 0)
(0.00104931 -0.0030615 0)
(0.000986685 -0.00298219 0)
(0.000958283 -0.0028933 0)
(0.00220535 -0.00445515 0)
(0.00174483 -0.00427004 0)
(0.00142231 -0.00408432 0)
(0.00119476 -0.00394797 0)
(0.0010339 -0.00381911 0)
(0.000912298 -0.00371466 0)
(0.000824717 -0.00362553 0)
(0.000752277 -0.00353818 0)
(0.000693264 -0.00346844 0)
(0.000655458 -0.00339179 0)
(0.00185362 -0.00470895 0)
(0.0014252 -0.0046008 0)
(0.00113042 -0.00445655 0)
(0.000916926 -0.00435117 0)
(0.000766121 -0.00424448 0)
(0.000657386 -0.0041552 0)
(0.000579023 -0.00407498 0)
(0.000511086 -0.00399523 0)
(0.000452723 -0.00393326 0)
(0.00041102 -0.00387125 0)
(0.00151502 -0.00492945 0)
(0.00112724 -0.00488763 0)
(0.000863291 -0.00478467 0)
(0.000677846 -0.00471204 0)
(0.0005481 -0.0046255 0)
(0.000456142 -0.00455218 0)
(0.000384174 -0.00448245 0)
(0.000321219 -0.00441281 0)
(0.000267543 -0.00435637 0)
(0.000228486 -0.00430006 0)
(0.00117094 -0.00511231 0)
(0.000849936 -0.00513417 0)
(0.000633116 -0.00506769 0)
(0.000483058 -0.00501904 0)
(0.000376022 -0.00494882 0)
(0.000299079 -0.00488836 0)
(0.000236965 -0.00482835 0)
(0.000183876 -0.0047714 0)
(0.000139872 -0.00472504 0)
(0.000107264 -0.00467759 0)
(0.00083044 -0.00525232 0)
(0.000594349 -0.0053283 0)
(0.00043248 -0.00529206 0)
(0.000319088 -0.00525661 0)
(0.000236946 -0.00520038 0)
(0.000178369 -0.00515182 0)
(0.000132513 -0.00509983 0)
(9.45617e-05 -0.00505044 0)
(6.30322e-05 -0.00500781 0)
(3.86599e-05 -0.00496605 0)
(0.000498772 -0.00534548 0)
(0.000351676 -0.00545693 0)
(0.00024751 -0.00544592 0)
(0.000178138 -0.0054245 0)
(0.00012988 -0.00538032 0)
(9.53406e-05 -0.0053378 0)
(6.52909e-05 -0.00528679 0)
(3.94993e-05 -0.00523971 0)
(2.04306e-05 -0.00519911 0)
(5.92277e-06 -0.00515928 0)
(0.000166231 -0.00538861 0)
(0.000114638 -0.00551135 0)
(8.28364e-05 -0.00552056 0)
(6.00481e-05 -0.00551133 0)
(3.98707e-05 -0.00547129 0)
(2.78079e-05 -0.00543557 0)
(2.09497e-05 -0.00539279 0)
(1.27079e-05 -0.00534789 0)
(4.77936e-06 -0.0053051 0)
(-4.06983e-07 -0.00526548 0)
(0.00548776 -0.000169964 0)
(0.00558753 -0.000120463 0)
(0.00560662 -8.59514e-05 0)
(0.00558864 -5.81471e-05 0)
(0.0055496 -3.88009e-05 0)
(0.00550904 -3.1731e-05 0)
(0.00546118 -2.11692e-05 0)
(0.00542089 -6.79346e-06 0)
(0.00537666 -4.14369e-06 0)
(0.00533736 -9.73024e-07 0)
(0.00544046 -0.000507986 0)
(0.0055186 -0.000358142 0)
(0.00552353 -0.000261364 0)
(0.00550133 -0.000195053 0)
(0.00545869 -0.000134845 0)
(0.00541867 -9.24121e-05 0)
(0.00536797 -6.76435e-05 0)
(0.00532447 -4.30721e-05 0)
(0.00528114 -2.48172e-05 0)
(0.00524011 -3.54574e-06 0)
(0.00533432 -0.000848189 0)
(0.00538112 -0.000601963 0)
(0.00536169 -0.000436748 0)
(0.0053271 -0.000332995 0)
(0.00527499 -0.00025297 0)
(0.00522501 -0.000189062 0)
(0.00517367 -0.00014532 0)
(0.00512477 -0.000106494 0)
(0.00508171 -6.80225e-05 0)
(0.00503642 -2.83048e-05 0)
(0.00517948 -0.00119453 0)
(0.00518183 -0.000867953 0)
(0.0051319 -0.000636209 0)
(0.00507561 -0.000490688 0)
(0.00501259 -0.000389054 0)
(0.00495091 -0.000308237 0)
(0.0048937 -0.000243047 0)
(0.00483664 -0.000192977 0)
(0.00479196 -0.000146728 0)
(0.00473904 -9.82773e-05 0)
(0.0049827 -0.0015361 0)
(0.00492447 -0.00115887 0)
(0.00483869 -0.000875483 0)
(0.00475841 -0.000690724 0)
(0.0046792 -0.000560976 0)
(0.00460532 -0.000463275 0)
(0.00454053 -0.000384681 0)
(0.00447614 -0.000326243 0)
(0.00442735 -0.000273303 0)
(0.00436274 -0.000217791 0)
(0.00475168 -0.00186827 0)
(0.00462531 -0.00145778 0)
(0.00449478 -0.00114406 0)
(0.00438509 -0.000931567 0)
(0.00428857 -0.000779176 0)
(0.00420211 -0.000669793 0)
(0.00412523 -0.000585518 0)
(0.00405185 -0.000517649 0)
(0.00399658 -0.000453656 0)
(0.00391949 -0.000391019 0)
(0.00448434 -0.00220732 0)
(0.00429026 -0.00176597 0)
(0.00411646 -0.00143648 0)
(0.00397464 -0.00121457 0)
(0.0038583 -0.00104939 0)
(0.00375554 -0.000930814 0)
(0.00366516 -0.00084132 0)
(0.00358133 -0.000767331 0)
(0.00351787 -0.000695821 0)
(0.00342621 -0.000628825 0)
(0.00419697 -0.00255586 0)
(0.0039328 -0.00209887 0)
(0.00371258 -0.00175917 0)
(0.00354012 -0.00153127 0)
(0.00340105 -0.00135893 0)
(0.00328182 -0.00123447 0)
(0.00317971 -0.00114044 0)
(0.00308501 -0.00106569 0)
(0.00301145 -0.0009927 0)
(0.00290793 -0.000928598 0)
(0.00388858 -0.00290098 0)
(0.0035596 -0.00244994 0)
(0.00329691 -0.00211099 0)
(0.00309713 -0.00188079 0)
(0.0029381 -0.00170904 0)
(0.00280823 -0.00158175 0)
(0.00269841 -0.00148253 0)
(0.00259653 -0.00140714 0)
(0.00251221 -0.00134084 0)
(0.00240344 -0.00129301 0)
(0.0035645 -0.00323434 0)
(0.0031769 -0.00281353 0)
(0.00288017 -0.00248566 0)
(0.00265934 -0.002258 0)
(0.00248881 -0.00208724 0)
(0.00234878 -0.00195804 0)
(0.00222612 -0.00185201 0)
(0.00211611 -0.00177094 0)
(0.00201231 -0.0016991 0)
(0.00191577 -0.00165125 0)
(0.00530438 5.93689e-06 0)
(0.00527369 1.39154e-05 0)
(0.00524571 1.64036e-05 0)
(0.00522182 1.71985e-05 0)
(0.00520187 1.94617e-05 0)
(0.00518256 2.51169e-05 0)
(0.00516601 3.0555e-05 0)
(0.0051522 3.29716e-05 0)
(0.00513613 3.4796e-05 0)
(0.00511705 3.87871e-05 0)
(0.00509748 4.57453e-05 0)
(0.00507665 5.4798e-05 0)
(0.00505367 6.39917e-05 0)
(0.00502748 7.18853e-05 0)
(0.00499649 7.89414e-05 0)
(0.00495877 8.73095e-05 0)
(0.00491295 9.88748e-05 0)
(0.00485598 0.000114 0)
(0.00478806 0.000132421 0)
(0.00469809 0.00015248 0)
(0.00521295 1.46193e-05 0)
(0.00519201 3.16078e-05 0)
(0.00517218 3.96337e-05 0)
(0.00515289 4.94149e-05 0)
(0.0051365 5.9983e-05 0)
(0.00512267 7.13588e-05 0)
(0.00510992 8.18254e-05 0)
(0.00509691 9.09435e-05 0)
(0.00508192 0.000102957 0)
(0.00506626 0.000119678 0)
(0.0050503 0.000139967 0)
(0.00503128 0.000162437 0)
(0.00500807 0.000185713 0)
(0.00498068 0.000208992 0)
(0.00494838 0.000233467 0)
(0.00490935 0.000262411 0)
(0.00486294 0.000298522 0)
(0.00480657 0.000342186 0)
(0.0047383 0.000394283 0)
(0.00465249 0.000452396 0)
(0.00501982 1.32074e-06 0)
(0.00501574 2.90343e-05 0)
(0.00501227 4.49167e-05 0)
(0.00501097 6.48649e-05 0)
(0.00500788 8.65933e-05 0)
(0.00500107 0.000109097 0)
(0.00499287 0.000130083 0)
(0.00498602 0.000148327 0)
(0.00497677 0.000169413 0)
(0.00496628 0.000195541 0)
(0.00495351 0.000225934 0)
(0.00493671 0.00026027 0)
(0.00491668 0.000297615 0)
(0.00489368 0.000337112 0)
(0.00486594 0.000380292 0)
(0.00483049 0.000430761 0)
(0.00478633 0.000491752 0)
(0.00473028 0.000563602 0)
(0.00466217 0.000647193 0)
(0.00457518 0.000743352 0)
(0.00473877 -5.33912e-05 0)
(0.00476411 -4.32035e-06 0)
(0.00478428 2.96745e-05 0)
(0.0048005 6.33031e-05 0)
(0.00481109 9.40196e-05 0)
(0.00481811 0.000122786 0)
(0.00482143 0.000149946 0)
(0.00482409 0.000175216 0)
(0.00481997 0.000207896 0)
(0.00481237 0.000248384 0)
(0.00480227 0.000292794 0)
(0.00478908 0.000340903 0)
(0.00477333 0.00039305 0)
(0.00475399 0.000449377 0)
(0.00472882 0.000512386 0)
(0.00469642 0.000585552 0)
(0.00465522 0.000672373 0)
(0.00460212 0.000774335 0)
(0.00453971 0.000890579 0)
(0.00445645 0.00102457 0)
(0.00437859 -0.000155481 0)
(0.00443431 -8.34111e-05 0)
(0.00448219 -2.80909e-05 0)
(0.00452426 2.32728e-05 0)
(0.00455573 6.81564e-05 0)
(0.00458017 0.000109049 0)
(0.00459694 0.000150898 0)
(0.00460896 0.000191513 0)
(0.00461537 0.000239737 0)
(0.00461778 0.000294977 0)
(0.00461478 0.000353087 0)
(0.00460592 0.000414511 0)
(0.00459277 0.000480312 0)
(0.00457508 0.000551725 0)
(0.00455098 0.000632809 0)
(0.00452106 0.000727909 0)
(0.00448219 0.000839654 0)
(0.00443324 0.000970716 0)
(0.00437284 0.00112119 0)
(0.00429493 0.00129243 0)
(0.00395608 -0.000308612 0)
(0.00404958 -0.000209961 0)
(0.00412756 -0.000127953 0)
(0.00419283 -5.35098e-05 0)
(0.00424363 1.29369e-05 0)
(0.00428292 7.34239e-05 0)
(0.00431939 0.000132006 0)
(0.00434456 0.000190621 0)
(0.00436134 0.000255413 0)
(0.00437166 0.000323685 0)
(0.00437459 0.00039375 0)
(0.00437095 0.000468038 0)
(0.00436266 0.000548236 0)
(0.00434991 0.000636274 0)
(0.00433095 0.000736435 0)
(0.00430511 0.000853483 0)
(0.00426938 0.00098995 0)
(0.00422566 0.00114894 0)
(0.00416812 0.0013329 0)
(0.00409526 0.00154056 0)
(0.0034782 -0.000522105 0)
(0.00360667 -0.000393067 0)
(0.00371718 -0.000280661 0)
(0.0038084 -0.000179219 0)
(0.00388713 -8.81086e-05 0)
(0.00394652 -3.87209e-07 0)
(0.00400118 7.83921e-05 0)
(0.00404252 0.000156059 0)
(0.00407206 0.000239279 0)
(0.00409074 0.000324426 0)
(0.00410012 0.000410484 0)
(0.00410297 0.000500228 0)
(0.00410073 0.000596199 0)
(0.00409254 0.000702063 0)
(0.00407756 0.000822634 0)
(0.00405421 0.00096169 0)
(0.00402088 0.00112256 0)
(0.00397914 0.00130811 0)
(0.00392637 0.00152307 0)
(0.00385918 0.00176514 0)
(0.0029737 -0.000797879 0)
(0.0031371 -0.00063424 0)
(0.00328136 -0.000483158 0)
(0.00340037 -0.000347101 0)
(0.00350172 -0.00022761 0)
(0.00358634 -0.000113641 0)
(0.00365463 -8.34485e-06 0)
(0.00370842 9.40043e-05 0)
(0.00374948 0.000197603 0)
(0.00377821 0.00030143 0)
(0.003797 0.000405805 0)
(0.00380812 0.000513451 0)
(0.00381224 0.000627369 0)
(0.00380784 0.000752431 0)
(0.00379478 0.000893677 0)
(0.00377175 0.00105355 0)
(0.00374054 0.00123687 0)
(0.00369929 0.00144529 0)
(0.0036496 0.00168973 0)
(0.00358764 0.00196504 0)
(0.00246195 -0.00113444 0)
(0.00264932 -0.000930036 0)
(0.00281495 -0.000738539 0)
(0.0029574 -0.000568341 0)
(0.00307819 -0.000413743 0)
(0.00318441 -0.000272278 0)
(0.00327147 -0.000138025 0)
(0.00334235 -7.53403e-06 0)
(0.00339741 0.000120936 0)
(0.00343854 0.000247897 0)
(0.00346863 0.000374214 0)
(0.0034887 0.000502874 0)
(0.00349848 0.000637685 0)
(0.00349704 0.000784168 0)
(0.00348518 0.000946372 0)
(0.00346186 0.00112608 0)
(0.00343105 0.00133105 0)
(0.00339127 0.00156002 0)
(0.00334281 0.00183275 0)
(0.00328397 0.00213916 0)
(0.00194992 -0.00150766 0)
(0.00213152 -0.00128075 0)
(0.00230054 -0.00105091 0)
(0.00245853 -0.000837744 0)
(0.00260132 -0.000642691 0)
(0.00272496 -0.000464291 0)
(0.00283195 -0.000296202 0)
(0.00292164 -0.000135957 0)
(0.00299309 1.93093e-05 0)
(0.00304903 0.000171034 0)
(0.00309203 0.00032091 0)
(0.00312248 0.000472042 0)
(0.00313982 0.000628693 0)
(0.00314414 0.000796737 0)
(0.00313711 0.000979176 0)
(0.003118 0.00117855 0)
(0.00309005 0.0014057 0)
(0.00305376 0.00165518 0)
(0.00300824 0.00195351 0)
(0.00295346 0.00228717 0)
(0.00172143 -0.00172837 0)
(0.00183858 -0.00152524 0)
(0.00196902 -0.00129156 0)
(0.00210047 -0.00106524 0)
(0.00223035 -0.000850788 0)
(0.00234916 -0.000645874 0)
(0.00245686 -0.000450603 0)
(0.00254928 -0.000263817 0)
(0.00262546 -8.33108e-05 0)
(0.00268742 9.22755e-05 0)
(0.00273607 0.000265241 0)
(0.00277088 0.000438406 0)
(0.00279119 0.000616555 0)
(0.00279834 0.000806105 0)
(0.00279448 0.00100836 0)
(0.00277909 0.00122616 0)
(0.00275569 0.001473 0)
(0.00272283 0.00174088 0)
(0.00268181 0.00205595 0)
(0.00263462 0.00240561 0)
(0.00151953 -0.00182627 0)
(0.00162622 -0.00162218 0)
(0.00175101 -0.00139823 0)
(0.00187046 -0.00117582 0)
(0.00198343 -0.000957645 0)
(0.00208987 -0.000742672 0)
(0.00218554 -0.000533771 0)
(0.00226865 -0.000330726 0)
(0.00233862 -0.00013326 0)
(0.00239622 5.96991e-05 0)
(0.00244091 0.000250563 0)
(0.0024717 0.000441378 0)
(0.00248827 0.00063692 0)
(0.00249297 0.000843815 0)
(0.00248742 0.00106168 0)
(0.00247063 0.00129409 0)
(0.00244798 0.0015546 0)
(0.00241583 0.00183637 0)
(0.0023783 0.00215909 0)
(0.00233826 0.00251304 0)
(0.00126825 -0.00197376 0)
(0.00138179 -0.00174817 0)
(0.00149782 -0.00151316 0)
(0.00160732 -0.00128274 0)
(0.0017093 -0.00105452 0)
(0.00180556 -0.000829338 0)
(0.00189157 -0.000607691 0)
(0.00196792 -0.000390611 0)
(0.00203338 -0.000178661 0)
(0.00208749 3.00689e-05 0)
(0.00212922 0.000237743 0)
(0.00215744 0.00044493 0)
(0.00217212 0.000656373 0)
(0.00217609 0.000879093 0)
(0.00217059 0.00111089 0)
(0.0021547 0.00135716 0)
(0.00213329 0.0016289 0)
(0.0021039 0.00192348 0)
(0.00207247 0.00225265 0)
(0.00203876 0.0026092 0)
(0.00101812 -0.00211029 0)
(0.00113311 -0.0018701 0)
(0.00124576 -0.00162551 0)
(0.0013474 -0.00138673 0)
(0.00144269 -0.00114934 0)
(0.00152966 -0.000913768 0)
(0.00160752 -0.000679865 0)
(0.00167726 -0.000450262 0)
(0.00173686 -0.000225112 0)
(0.00178565 -1.39851e-06 0)
(0.00182273 0.000222307 0)
(0.00184712 0.000444883 0)
(0.00185883 0.000671533 0)
(0.00186078 0.000909522 0)
(0.00185376 0.00115439 0)
(0.00183826 0.00141483 0)
(0.00181746 0.00169531 0)
(0.00179009 0.00200011 0)
(0.0017634 0.0023352 0)
(0.00173225 0.00269421 0)
(0.000785003 -0.00224353 0)
(0.000893716 -0.00198805 0)
(0.001001 -0.00173108 0)
(0.00109509 -0.00148062 0)
(0.00118243 -0.00123377 0)
(0.00126028 -0.000987642 0)
(0.00133045 -0.000742803 0)
(0.00139283 -0.00050258 0)
(0.00144506 -0.000266026 0)
(0.00148677 -2.91718e-05 0)
(0.00151753 0.000208428 0)
(0.00153687 0.000444211 0)
(0.00154473 0.000684545 0)
(0.00154397 0.000936363 0)
(0.00153502 0.00119268 0)
(0.0015188 0.00146748 0)
(0.00149853 0.00175622 0)
(0.00147322 0.00206891 0)
(0.00144845 0.00240874 0)
(0.00141931 0.00276845 0)
(0.000570805 -0.00236745 0)
(0.000670114 -0.00209913 0)
(0.000766173 -0.00183028 0)
(0.00085185 -0.00156872 0)
(0.000928238 -0.00131149 0)
(0.000996571 -0.0010543 0)
(0.00105802 -0.000798986 0)
(0.00111142 -0.000548728 0)
(0.00115486 -0.000301695 0)
(0.0011884 -5.30444e-05 0)
(0.00121207 0.000196533 0)
(0.00122602 0.000443411 0)
(0.00123001 0.000695825 0)
(0.0012266 0.000959979 0)
(0.00121647 0.00122615 0)
(0.00119977 0.00151317 0)
(0.00118007 0.00181029 0)
(0.00115677 0.00212968 0)
(0.00113181 0.00247273 0)
(0.00110797 0.00283084 0)
(0.00037211 -0.00247602 0)
(0.000457976 -0.00219795 0)
(0.000539969 -0.00191745 0)
(0.0006137 -0.00164654 0)
(0.000678511 -0.00137941 0)
(0.000737119 -0.00111241 0)
(0.000788925 -0.000847512 0)
(0.000832651 -0.000587837 0)
(0.000867116 -0.000331291 0)
(0.00089266 -7.22043e-05 0)
(0.000909538 0.000187554 0)
(0.000918469 0.000443574 0)
(0.000919102 0.000706064 0)
(0.000913443 0.00098058 0)
(0.000902042 0.00125614 0)
(0.0008851 0.00155289 0)
(0.000865803 0.00185737 0)
(0.000843482 0.00218197 0)
(0.000819059 0.00252611 0)
(0.00080271 0.00288063 0)
(0.000184934 -0.00256819 0)
(0.000252251 -0.00228352 0)
(0.000320075 -0.00199403 0)
(0.000379998 -0.00171477 0)
(0.000433956 -0.00143936 0)
(0.00048228 -0.00116389 0)
(0.000523907 -0.000889836 0)
(0.000557924 -0.000621147 0)
(0.00058389 -0.000355853 0)
(0.000602001 -8.74776e-05 0)
(0.000612449 0.000181111 0)
(0.000616367 0.000445214 0)
(0.000613399 0.000716619 0)
(0.00060527 0.000999473 0)
(0.000591746 0.00128348 0)
(0.000573614 0.00158823 0)
(0.000553605 0.00189867 0)
(0.000530785 0.00222634 0)
(0.000509621 0.0025694 0)
(0.000497011 0.00291894 0)
(7.2316e-06 -0.00264423 0)
(5.55885e-05 -0.0023552 0)
(0.000107773 -0.00206019 0)
(0.000154067 -0.00177457 0)
(0.000196371 -0.00149307 0)
(0.000232922 -0.00121001 0)
(0.000263517 -0.000927023 0)
(0.000287218 -0.000649652 0)
(0.000304526 -0.000376046 0)
(0.000315045 -9.89869e-05 0)
(0.000318939 0.000177619 0)
(0.000317524 0.000449109 0)
(0.000310327 0.000728936 0)
(0.000298998 0.00101918 0)
(0.000282793 0.00131037 0)
(0.000262721 0.00162163 0)
(0.000241239 0.00193629 0)
(0.000218259 0.00226473 0)
(0.000201391 0.00260528 0)
(0.000187492 0.00294912 0)
(-0.000164039 -0.00270415 0)
(-0.000132407 -0.00241301 0)
(-9.72683e-05 -0.00211472 0)
(-6.49313e-05 -0.001825 0)
(-3.6653e-05 -0.00153858 0)
(-1.35938e-05 -0.00124816 0)
(5.10752e-06 -0.000956587 0)
(1.77452e-05 -0.000671247 0)
(2.63406e-05 -0.000390061 0)
(2.9351e-05 -0.000104998 0)
(2.72147e-05 0.000179084 0)
(2.09591e-05 0.00045732 0)
(9.80413e-06 0.000744745 0)
(-4.73565e-06 0.00104164 0)
(-2.32215e-05 0.00133865 0)
(-4.49066e-05 0.0016547 0)
(-6.70121e-05 0.00197145 0)
(-8.78781e-05 0.00229882 0)
(-0.000103659 0.00263574 0)
(-0.000116337 0.0029738 0)
(-0.000329083 -0.00274597 0)
(-0.000314198 -0.0024542 0)
(-0.000296648 -0.00215438 0)
(-0.000280375 -0.00186219 0)
(-0.000268004 -0.00157125 0)
(-0.000258992 -0.00127417 0)
(-0.000251866 -0.000975191 0)
(-0.000249864 -0.000683466 0)
(-0.000249149 -0.000396104 0)
(-0.000252954 -0.000104382 0)
(-0.000260379 0.000186266 0)
(-0.000271094 0.000470594 0)
(-0.000286193 0.000764534 0)
(-0.000304228 0.001067 0)
(-0.000325202 0.00136818 0)
(-0.000348565 0.00168659 0)
(-0.000370542 0.00200298 0)
(-0.000389114 0.00232775 0)
(-0.000407496 0.00265932 0)
(-0.00041337 0.00299055 0)
(-0.000490694 -0.00277036 0)
(-0.000493834 -0.00247862 0)
(-0.000494227 -0.00217878 0)
(-0.000495426 -0.00188495 0)
(-0.000498551 -0.00159032 0)
(-0.00050249 -0.00128834 0)
(-0.000505758 -0.000983591 0)
(-0.000513474 -0.000687159 0)
(-0.000520769 -0.000394962 0)
(-0.000531868 -9.78688e-05 0)
(-0.000545543 0.00019831 0)
(-0.000561897 0.000488174 0)
(-0.000582073 0.000787808 0)
(-0.000604488 0.00109486 0)
(-0.000628669 0.0013986 0)
(-0.000653869 0.00171688 0)
(-0.000675817 0.00203072 0)
(-0.000695202 0.00235117 0)
(-0.000713058 0.0026761 0)
(-0.000715591 0.0029981 0)
(-0.000656798 -0.00278099 0)
(-0.000678176 -0.00248939 0)
(-0.000696203 -0.00219027 0)
(-0.000713502 -0.00189552 0)
(-0.000730278 -0.00159855 0)
(-0.000746026 -0.00129359 0)
(-0.000760005 -0.000984339 0)
(-0.000777271 -0.000683913 0)
(-0.000794124 -0.000387763 0)
(-0.000813298 -8.60739e-05 0)
(-0.000833779 0.000215192 0)
(-0.0008556 0.000510438 0)
(-0.000879718 0.00081523 0)
(-0.000904823 0.00112576 0)
(-0.000930525 0.00143018 0)
(-0.000956001 0.00174625 0)
(-0.000977819 0.00205601 0)
(-0.000999249 0.00237037 0)
(-0.00101068 0.00268805 0)
(-0.00101561 0.00300135 0)
(-0.00083379 -0.00278103 0)
(-0.000872308 -0.00248877 0)
(-0.000906617 -0.00219043 0)
(-0.000937751 -0.00189515 0)
(-0.000967552 -0.00159638 0)
(-0.000994869 -0.00128925 0)
(-0.00102096 -0.000977074 0)
(-0.00104626 -0.00067305 0)
(-0.0010715 -0.000373643 0)
(-0.00109669 -6.83337e-05 0)
(-0.0011219 0.000237074 0)
(-0.00114766 0.000536425 0)
(-0.00117462 0.000844361 0)
(-0.00120161 0.00115596 0)
(-0.00122797 0.00145883 0)
(-0.00125336 0.00177139 0)
(-0.00127564 0.00207638 0)
(-0.00129538 0.00238419 0)
(-0.00130432 0.00269353 0)
(-0.00130674 0.00300005 0)
(-0.00102385 -0.00277125 0)
(-0.00107744 -0.00247797 0)
(-0.00112653 -0.00217977 0)
(-0.00117061 -0.00188354 0)
(-0.00121355 -0.00158296 0)
(-0.00125054 -0.00127376 0)
(-0.00128738 -0.000961545 0)
(-0.00131938 -0.000656445 0)
(-0.00135205 -0.000355325 0)
(-0.00138428 -4.71701e-05 0)
(-0.00141548 0.000261984 0)
(-0.0014457 0.000564553 0)
(-0.00147561 0.000873655 0)
(-0.00150418 0.00118383 0)
(-0.00153049 0.0014838 0)
(-0.00155558 0.0017928 0)
(-0.00157803 0.00209326 0)
(-0.00159276 0.00239537 0)
(-0.00160605 0.00269618 0)
(-0.00160358 0.00299267 0)
(-0.00122707 -0.00275104 0)
(-0.00129496 -0.00245991 0)
(-0.00135811 -0.00216069 0)
(-0.00141444 -0.00186253 0)
(-0.00146886 -0.00156102 0)
(-0.00151554 -0.0012508 0)
(-0.00156205 -0.000940108 0)
(-0.00160349 -0.000635618 0)
(-0.00164199 -0.000332783 0)
(-0.00167778 -2.15142e-05 0)
(-0.00171149 0.000290412 0)
(-0.00174318 0.000593877 0)
(-0.00177345 0.000901382 0)
(-0.00180126 0.00120826 0)
(-0.00182621 0.00150539 0)
(-0.00185013 0.0018123 0)
(-0.00186984 0.00210928 0)
(-0.00188265 0.00240348 0)
(-0.00189489 0.00269434 0)
(-0.00189568 0.00298078 0)
(-0.00144616 -0.00272405 0)
(-0.00153053 -0.00243315 0)
(-0.00160607 -0.00213369 0)
(-0.00167317 -0.00183458 0)
(-0.00173611 -0.00153309 0)
(-0.00179325 -0.00122404 0)
(-0.00184515 -0.000913929 0)
(-0.00189313 -0.00061031 0)
(-0.00193689 -0.000306966 0)
(-0.00197659 5.70318e-06 0)
(-0.00201265 0.000317541 0)
(-0.00204495 0.000618109 0)
(-0.00207443 0.00092177 0)
(-0.00210011 0.00122776 0)
(-0.00212221 0.00152611 0)
(-0.00214314 0.00183022 0)
(-0.00215823 0.00212044 0)
(-0.00217389 0.0024061 0)
(-0.00217871 0.00268714 0)
(-0.00218126 0.00296613 0)
(-0.00169383 -0.00269164 0)
(-0.00178679 -0.00239773 0)
(-0.00187187 -0.00209913 0)
(-0.0019509 -0.0018016 0)
(-0.00202245 -0.00150179 0)
(-0.00208675 -0.00119632 0)
(-0.00214397 -0.000887042 0)
(-0.0021955 -0.000581313 0)
(-0.00224126 -0.000276406 0)
(-0.00228236 3.35301e-05 0)
(-0.00231897 0.000339298 0)
(-0.00234993 0.000636241 0)
(-0.00237632 0.00094063 0)
(-0.00239884 0.00124812 0)
(-0.00241766 0.0015445 0)
(-0.00243254 0.00184073 0)
(-0.0024416 0.00212394 0)
(-0.00245509 0.00241364 0)
(-0.00246196 0.00269206 0)
(-0.00246207 0.00294575 0)
(-0.00196859 -0.00264649 0)
(-0.00207005 -0.00235644 0)
(-0.00216641 -0.00206019 0)
(-0.00225252 -0.00176592 0)
(-0.00233053 -0.00147145 0)
(-0.00239845 -0.00116747 0)
(-0.00245824 -0.000856606 0)
(-0.00251133 -0.000550565 0)
(-0.00255775 -0.000250656 0)
(-0.00259755 5.15888e-05 0)
(-0.00263135 0.000354021 0)
(-0.00265985 0.000654621 0)
(-0.00268358 0.000961069 0)
(-0.00270079 0.00125961 0)
(-0.00271225 0.00154625 0)
(-0.00272101 0.00184822 0)
(-0.00272736 0.00213739 0)
(-0.00272574 0.00241805 0)
(-0.00272919 0.0026937 0)
(-0.00272967 0.00293587 0)
(-0.00227263 -0.00259548 0)
(-0.00238445 -0.00230795 0)
(-0.00248739 -0.00201907 0)
(-0.00257833 -0.0017331 0)
(-0.00265745 -0.00143974 0)
(-0.00272616 -0.00113284 0)
(-0.0027861 -0.000824315 0)
(-0.00283785 -0.000529371 0)
(-0.00288184 -0.000238734 0)
(-0.00291953 6.65676e-05 0)
(-0.00295102 0.000374239 0)
(-0.00297485 0.000665834 0)
(-0.00299349 0.000960693 0)
(-0.00300702 0.00126286 0)
(-0.00301098 0.00155095 0)
(-0.00300949 0.00184428 0)
(-0.00300757 0.00213673 0)
(-0.00299367 0.0024168 0)
(-0.00298321 0.00269274 0)
(-0.00296728 0.00292214 0)
(-8.89598e-06 -0.00523175 0)
(-2.05179e-05 -0.00513168 0)
(-6.11378e-06 -0.00494943 0)
(4.18381e-05 -0.0046729 0)
(0.000140698 -0.00431329 0)
(0.000299172 -0.00390306 0)
(0.00052149 -0.00343353 0)
(0.000809091 -0.002943 0)
(0.0011417 -0.00244996 0)
(0.00152997 -0.00197874 0)
(-1.80284e-05 -0.00519466 0)
(-5.0672e-05 -0.00510321 0)
(-5.70498e-05 -0.00493671 0)
(-3.32604e-05 -0.00468733 0)
(3.57078e-05 -0.00435539 0)
(0.000162212 -0.0039754 0)
(0.000348019 -0.00354254 0)
(0.000600982 -0.0030814 0)
(0.000904667 -0.00261517 0)
(0.00127803 -0.00213424 0)
(-2.19031e-05 -0.00515581 0)
(-6.46295e-05 -0.00507302 0)
(-8.49166e-05 -0.0049214 0)
(-7.55682e-05 -0.0046973 0)
(-3.0136e-05 -0.00439541 0)
(6.70186e-05 -0.00404366 0)
(0.000217353 -0.00364775 0)
(0.000427424 -0.0032172 0)
(0.000689841 -0.00277809 0)
(0.00102087 -0.0023022 0)
(-2.53687e-05 -0.00512067 0)
(-7.33738e-05 -0.00504551 0)
(-0.000106759 -0.00490568 0)
(-0.000110032 -0.0047038 0)
(-8.35613e-05 -0.00442872 0)
(-1.20677e-05 -0.00409904 0)
(0.00010718 -0.00373431 0)
(0.000278561 -0.00333271 0)
(0.00050011 -0.00291469 0)
(0.000784019 -0.00245502 0)
(-2.99732e-05 -0.00508308 0)
(-8.2313e-05 -0.00501816 0)
(-0.000125332 -0.00488666 0)
(-0.000140222 -0.00470118 0)
(-0.000129217 -0.00445123 0)
(-8.00224e-05 -0.00414462 0)
(1.13533e-05 -0.00380617 0)
(0.000149071 -0.00343195 0)
(0.000333162 -0.00303479 0)
(0.000572933 -0.00259407 0)
(-3.23059e-05 -0.00504526 0)
(-9.09712e-05 -0.00498815 0)
(-0.000140741 -0.00486697 0)
(-0.000167328 -0.00469433 0)
(-0.000170129 -0.00446593 0)
(-0.00014202 -0.0041807 0)
(-7.43315e-05 -0.00386227 0)
(3.43863e-05 -0.00351218 0)
(0.000184721 -0.00313745 0)
(0.000384184 -0.00271809 0)
(-3.39218e-05 -0.00501098 0)
(-9.91692e-05 -0.0049573 0)
(-0.00015524 -0.0048476 0)
(-0.000194018 -0.00468348 0)
(-0.000208213 -0.00447286 0)
(-0.000198286 -0.00420747 0)
(-0.000153065 -0.00390545 0)
(-7.01977e-05 -0.00357711 0)
(5.01971e-05 -0.00322407 0)
(0.00021303 -0.00282481 0)
(-3.80914e-05 -0.0049761 0)
(-0.000107984 -0.00492605 0)
(-0.00017044 -0.00482697 0)
(-0.000220739 -0.00466807 0)
(-0.000246898 -0.00447156 0)
(-0.000251843 -0.00422428 0)
(-0.000226574 -0.00393701 0)
(-0.000168415 -0.00362811 0)
(-7.60869e-05 -0.00329461 0)
(5.27701e-05 -0.0029136 0)
(-4.30141e-05 -0.00493892 0)
(-0.000117984 -0.00489389 0)
(-0.00018831 -0.00480354 0)
(-0.000248608 -0.00465056 0)
(-0.000287316 -0.00446457 0)
(-0.000307092 -0.00423196 0)
(-0.000299141 -0.00395824 0)
(-0.000263212 -0.00366493 0)
(-0.000196713 -0.00334732 0)
(-9.90081e-05 -0.00298304 0)
(-4.59938e-05 -0.00490432 0)
(-0.0001293 -0.00486043 0)
(-0.000208964 -0.00477695 0)
(-0.00027937 -0.00463207 0)
(-0.000329702 -0.00445271 0)
(-0.000364591 -0.00423003 0)
(-0.00037298 -0.00396841 0)
(-0.000357014 -0.00368706 0)
(-0.000313794 -0.00338254 0)
(-0.000242975 -0.00303416 0)
(-4.84044e-05 -0.00487456 0)
(-0.000143907 -0.00482492 0)
(-0.000232992 -0.00474776 0)
(-0.000314724 -0.00461201 0)
(-0.000376338 -0.00443644 0)
(-0.000425537 -0.00422021 0)
(-0.000450044 -0.00396896 0)
(-0.000452152 -0.00369713 0)
(-0.000429355 -0.00340359 0)
(-0.000381179 -0.00306869 0)
(-5.2984e-05 -0.00484435 0)
(-0.000162849 -0.00478656 0)
(-0.00026145 -0.00471575 0)
(-0.000355739 -0.00458849 0)
(-0.000429858 -0.00441579 0)
(-0.000492399 -0.004205 0)
(-0.000532766 -0.00396215 0)
(-0.000551497 -0.00369861 0)
(-0.000547034 -0.00341393 0)
(-0.000519916 -0.00308839 0)
(-6.00186e-05 -0.0048081 0)
(-0.000184456 -0.004747 0)
(-0.000294086 -0.00468148 0)
(-0.00040176 -0.00456134 0)
(-0.000490396 -0.00439174 0)
(-0.000566389 -0.00418663 0)
(-0.000622473 -0.00394993 0)
(-0.000657677 -0.00369276 0)
(-0.000671965 -0.0034135 0)
(-0.000666541 -0.00309421 0)
(-6.77344e-05 -0.00476636 0)
(-0.00020646 -0.00470926 0)
(-0.00033002 -0.00464599 0)
(-0.00045186 -0.00453167 0)
(-0.000556849 -0.00436539 0)
(-0.000647819 -0.00416505 0)
(-0.000720106 -0.00393243 0)
(-0.000773336 -0.00367828 0)
(-0.000807993 -0.00340061 0)
(-0.000823493 -0.00308773 0)
(-7.52112e-05 -0.00472306 0)
(-0.00022905 -0.00467397 0)
(-0.000369878 -0.00460869 0)
(-0.000507318 -0.00449895 0)
(-0.000630006 -0.00433674 0)
(-0.000737902 -0.00413903 0)
(-0.000827772 -0.00390899 0)
(-0.000901259 -0.0036562 0)
(-0.000955558 -0.00337939 0)
(-0.000991315 -0.00307479 0)
(-8.33601e-05 -0.00467892 0)
(-0.000254752 -0.00463753 0)
(-0.000415696 -0.00456769 0)
(-0.000570862 -0.00446116 0)
(-0.000712521 -0.00430517 0)
(-0.00083912 -0.00411023 0)
(-0.000949389 -0.00388062 0)
(-0.00104474 -0.00362784 0)
(-0.00111794 -0.0033531 0)
(-0.00117614 -0.00305458 0)
(-9.36181e-05 -0.0046298 0)
(-0.000285808 -0.00459434 0)
(-0.000468907 -0.00452288 0)
(-0.000644368 -0.0044192 0)
(-0.000807453 -0.00426674 0)
(-0.000955374 -0.00407304 0)
(-0.00108816 -0.0038428 0)
(-0.00120388 -0.00358974 0)
(-0.00129886 -0.0033196 0)
(-0.00137672 -0.0030238 0)
(-0.000106383 -0.00457053 0)
(-0.000322481 -0.00454046 0)
(-0.000530083 -0.0044711 0)
(-0.000728502 -0.00436819 0)
(-0.000914993 -0.00421762 0)
(-0.00108769 -0.00402546 0)
(-0.00124482 -0.00379815 0)
(-0.0013821 -0.0035476 0)
(-0.00150387 -0.00328051 0)
(-0.00160171 -0.0029881 0)
(-0.000121443 -0.00450261 0)
(-0.000364617 -0.00447613 0)
(-0.000600025 -0.00441131 0)
(-0.000826969 -0.00430819 0)
(-0.00104166 -0.00415784 0)
(-0.00124266 -0.0039672 0)
(-0.00142595 -0.00374417 0)
(-0.00159047 -0.00349871 0)
(-0.00173407 -0.00323137 0)
(-0.00185645 -0.00293932 0)
(-0.000137963 -0.00441775 0)
(-0.000412172 -0.0043936 0)
(-0.000678394 -0.00433326 0)
(-0.000936171 -0.00423087 0)
(-0.00118346 -0.00408157 0)
(-0.00141714 -0.00389431 0)
(-0.00163062 -0.00367896 0)
(-0.00183053 -0.00344288 0)
(-0.00200038 -0.00317814 0)
(-0.00214968 -0.00288357 0)
)


// ************************************************************************* //
