/*--------------------------------*- C++ -*----------------------------------*\
| =========                 |                                                 |
| \\      /  F ield         | foam-extend: Open Source CFD                    |
|  \\    /   O peration     | Version:     4.1                                |
|   \\  /    A nd           | Web:         http://www.foam-extend.org         |
|    \\/     M anipulation  |                                                 |
\*---------------------------------------------------------------------------*/
FoamFile
{
    version     2.0;
    format      ascii;
    class       vectorField;
    location    "2";
    object      residualD_iteration1;
}
// * * * * * * * * * * * * * * * * * * * * * * * * * * * * * * * * * * * * * //


1000
(
(0.104608 -0.0233007 0)
(0.100887 -0.0258982 0)
(0.0988946 -0.0290763 0)
(0.0980855 -0.032585 0)
(0.0980777 -0.0364072 0)
(0.098669 -0.0404939 0)
(0.0996498 -0.0448229 0)
(0.100846 -0.0495161 0)
(0.102092 -0.054672 0)
(0.10243 -0.0609072 0)
(0.0952488 -0.025721 0)
(0.0913495 -0.0291183 0)
(0.0892057 -0.0330014 0)
(0.088311 -0.0370645 0)
(0.0882036 -0.0413184 0)
(0.0886424 -0.0458142 0)
(0.0894762 -0.0504997 0)
(0.0905562 -0.055446 0)
(0.091781 -0.0606235 0)
(0.0925582 -0.06632 0)
(0.0853377 -0.028039 0)
(0.0813642 -0.0323054 0)
(0.0791397 -0.0367898 0)
(0.0781664 -0.0413597 0)
(0.0779788 -0.0459705 0)
(0.0783126 -0.0506817 0)
(0.0790269 -0.0554822 0)
(0.0800334 -0.0603548 0)
(0.0812334 -0.0652075 0)
(0.0822288 -0.070285 0)
(0.0749091 -0.0301542 0)
(0.0710805 -0.0352989 0)
(0.0688764 -0.0403451 0)
(0.0678555 -0.0452952 0)
(0.0675818 -0.050185 0)
(0.067846 -0.0550234 0)
(0.0684803 -0.0598089 0)
(0.0694235 -0.0645377 0)
(0.0705751 -0.0691441 0)
(0.0716632 -0.0738037 0)
(0.0640689 -0.0320248 0)
(0.0605667 -0.0379863 0)
(0.0584539 -0.0435755 0)
(0.0574289 -0.0488734 0)
(0.0571299 -0.0539322 0)
(0.0573353 -0.0588275 0)
(0.0578922 -0.063596 0)
(0.0587329 -0.0681975 0)
(0.05981 -0.0726084 0)
(0.0608901 -0.076971 0)
(0.0528724 -0.0336116 0)
(0.0497897 -0.0403172 0)
(0.0479171 -0.0463373 0)
(0.0469763 -0.0519302 0)
(0.0466897 -0.057177 0)
(0.0468186 -0.0621458 0)
(0.0472832 -0.0668753 0)
(0.0480113 -0.0713677 0)
(0.0489615 -0.0756416 0)
(0.0499489 -0.0797997 0)
(0.0414194 -0.0348677 0)
(0.038862 -0.0422041 0)
(0.037321 -0.0486135 0)
(0.0365238 -0.0544556 0)
(0.0362606 -0.0598481 0)
(0.0363409 -0.0648904 0)
(0.0367083 -0.0695982 0)
(0.0373044 -0.0740305 0)
(0.0380849 -0.0782241 0)
(0.0389098 -0.0822516 0)
(0.0297626 -0.0357941 0)
(0.0278361 -0.0436436 0)
(0.0266863 -0.0503768 0)
(0.0260967 -0.0563927 0)
(0.0258755 -0.0618947 0)
(0.0259192 -0.0669801 0)
(0.0261863 -0.0716939 0)
(0.0266294 -0.0760949 0)
(0.0272053 -0.0802174 0)
(0.0278148 -0.0841222 0)
(0.0179528 -0.0364042 0)
(0.0167575 -0.0445977 0)
(0.0160413 -0.051571 0)
(0.0156569 -0.0577385 0)
(0.0154985 -0.0633151 0)
(0.0155273 -0.0684161 0)
(0.0157084 -0.0731377 0)
(0.0159867 -0.0775413 0)
(0.0163291 -0.0816569 0)
(0.0166948 -0.0855235 0)
(0.00601867 -0.0367032 0)
(0.00559038 -0.0450454 0)
(0.00533857 -0.0521465 0)
(0.00521898 -0.0583935 0)
(0.00517677 -0.0639972 0)
(0.00517949 -0.0691038 0)
(0.00523005 -0.0738104 0)
(0.0053251 -0.0781786 0)
(0.005444 -0.0822571 0)
(0.00556453 -0.0860765 0)
(0.155268 -0.000961188 0)
(0.155372 -0.000873354 0)
(0.155827 -0.000893249 0)
(0.156601 -0.000984993 0)
(0.157738 -0.00111801 0)
(0.159257 -0.0012829 0)
(0.161178 -0.00146326 0)
(0.163439 -0.0016571 0)
(0.166122 -0.00185462 0)
(0.169175 -0.00205462 0)
(0.154332 -0.00290095 0)
(0.154275 -0.00266002 0)
(0.154611 -0.00272615 0)
(0.155333 -0.00301009 0)
(0.156439 -0.0034175 0)
(0.157898 -0.00390556 0)
(0.159783 -0.00444099 0)
(0.162015 -0.00501948 0)
(0.164651 -0.00560769 0)
(0.167677 -0.00620555 0)
(0.15235 -0.00487087 0)
(0.15207 -0.00453406 0)
(0.152232 -0.00467906 0)
(0.152842 -0.00515717 0)
(0.153869 -0.00584228 0)
(0.155271 -0.00666946 0)
(0.157084 -0.00756826 0)
(0.159263 -0.00852483 0)
(0.161854 -0.00949668 0)
(0.164871 -0.0104852 0)
(0.149397 -0.006904 0)
(0.148803 -0.0065371 0)
(0.148719 -0.00681108 0)
(0.149178 -0.00751276 0)
(0.150071 -0.00848277 0)
(0.15134 -0.00964637 0)
(0.153041 -0.0109127 0)
(0.155165 -0.0122531 0)
(0.157691 -0.0136227 0)
(0.160674 -0.0150027 0)
(0.145491 -0.00901557 0)
(0.144517 -0.00870461 0)
(0.144153 -0.00916582 0)
(0.144374 -0.0101293 0)
(0.145103 -0.0113978 0)
(0.14625 -0.0128957 0)
(0.147816 -0.0145298 0)
(0.14983 -0.0162512 0)
(0.152245 -0.0180222 0)
(0.155186 -0.0197946 0)
(0.140711 -0.01122 0)
(0.139236 -0.0110711 0)
(0.138577 -0.0117799 0)
(0.138573 -0.0130452 0)
(0.139125 -0.0146335 0)
(0.140123 -0.0164731 0)
(0.141531 -0.0184702 0)
(0.143373 -0.0205642 0)
(0.145624 -0.0227317 0)
(0.148508 -0.0248934 0)
(0.135088 -0.0135136 0)
(0.133062 -0.0136558 0)
(0.132097 -0.0146803 0)
(0.131888 -0.0162956 0)
(0.13226 -0.0182379 0)
(0.133095 -0.0204281 0)
(0.134333 -0.022787 0)
(0.135977 -0.025255 0)
(0.13804 -0.0278256 0)
(0.140877 -0.0303833 0)
(0.128645 -0.0158813 0)
(0.126077 -0.0164641 0)
(0.12479 -0.0178908 0)
(0.124395 -0.0199022 0)
(0.12462 -0.0222463 0)
(0.125332 -0.0248127 0)
(0.126429 -0.0275372 0)
(0.127875 -0.030371 0)
(0.129691 -0.0333422 0)
(0.132394 -0.0363067 0)
(0.121405 -0.0183062 0)
(0.118343 -0.0194795 0)
(0.116768 -0.0214004 0)
(0.11621 -0.0238626 0)
(0.116362 -0.0266532 0)
(0.117031 -0.0296514 0)
(0.118075 -0.0327914 0)
(0.119381 -0.0360324 0)
(0.120855 -0.0394388 0)
(0.123144 -0.0428253 0)
(0.113412 -0.0207626 0)
(0.109972 -0.0226416 0)
(0.108139 -0.0251535 0)
(0.107437 -0.0281321 0)
(0.107529 -0.0314247 0)
(0.108184 -0.0349394 0)
(0.109281 -0.0386233 0)
(0.110693 -0.0424597 0)
(0.11215 -0.0465716 0)
(0.11375 -0.0508164 0)
(0.172461 -0.00224524 0)
(0.175968 -0.00241546 0)
(0.179557 -0.00257637 0)
(0.183174 -0.00274014 0)
(0.186804 -0.002901 0)
(0.19049 -0.003047 0)
(0.19426 -0.00318007 0)
(0.198095 -0.0033169 0)
(0.20197 -0.00346693 0)
(0.205901 -0.00361891 0)
(0.209914 -0.00375371 0)
(0.214023 -0.0038662 0)
(0.218241 -0.00396376 0)
(0.222572 -0.00405227 0)
(0.227009 -0.00413101 0)
(0.231543 -0.00419747 0)
(0.236185 -0.00425085 0)
(0.240943 -0.00429127 0)
(0.245828 -0.00432341 0)
(0.250922 -0.00435666 0)
(0.170989 -0.00677973 0)
(0.174565 -0.00730159 0)
(0.178214 -0.00779145 0)
(0.18189 -0.0082707 0)
(0.185586 -0.00873535 0)
(0.189329 -0.00917424 0)
(0.193146 -0.00959151 0)
(0.197042 -0.010004 0)
(0.201006 -0.0104196 0)
(0.205049 -0.0108254 0)
(0.209182 -0.0111972 0)
(0.213409 -0.0115268 0)
(0.217729 -0.0118218 0)
(0.222137 -0.0120872 0)
(0.226626 -0.0123202 0)
(0.231191 -0.0125165 0)
(0.235847 -0.0126746 0)
(0.240607 -0.0127969 0)
(0.245511 -0.0128978 0)
(0.250635 -0.0130007 0)
(0.168256 -0.011431 0)
(0.171994 -0.0122882 0)
(0.175811 -0.01309 0)
(0.179625 -0.0138689 0)
(0.183443 -0.0146238 0)
(0.187311 -0.0153448 0)
(0.191254 -0.0160364 0)
(0.195248 -0.0167094 0)
(0.199276 -0.0173654 0)
(0.203378 -0.0179933 0)
(0.207605 -0.0185747 0)
(0.211963 -0.0191046 0)
(0.216419 -0.0195869 0)
(0.220947 -0.0200205 0)
(0.225552 -0.0203983 0)
(0.230243 -0.0207132 0)
(0.235002 -0.0209642 0)
(0.239874 -0.0211633 0)
(0.244878 -0.0213376 0)
(0.250092 -0.0215226 0)
(0.164131 -0.016292 0)
(0.168059 -0.0174401 0)
(0.172082 -0.0185177 0)
(0.176103 -0.0195758 0)
(0.180137 -0.0206079 0)
(0.184218 -0.0215952 0)
(0.188361 -0.0225403 0)
(0.192549 -0.0234514 0)
(0.19678 -0.0243318 0)
(0.201083 -0.0251672 0)
(0.205495 -0.0259402 0)
(0.21002 -0.0266474 0)
(0.214633 -0.0272893 0)
(0.219314 -0.0278604 0)
(0.224075 -0.0283543 0)
(0.228929 -0.0287653 0)
(0.233839 -0.029097 0)
(0.238876 -0.0293733 0)
(0.244021 -0.0296308 0)
(0.249339 -0.0299129 0)
(0.158768 -0.0214092 0)
(0.162984 -0.0228164 0)
(0.167313 -0.0241428 0)
(0.171597 -0.0254606 0)
(0.175865 -0.0267532 0)
(0.180164 -0.0279927 0)
(0.184536 -0.029181 0)
(0.188962 -0.0303147 0)
(0.193453 -0.0314023 0)
(0.198035 -0.0324253 0)
(0.202712 -0.033363 0)
(0.207469 -0.0342114 0)
(0.212301 -0.0349702 0)
(0.217221 -0.0356366 0)
(0.222228 -0.0362099 0)
(0.227298 -0.036692 0)
(0.232439 -0.0370954 0)
(0.237663 -0.0374504 0)
(0.242989 -0.0378006 0)
(0.248442 -0.0381822 0)
(0.15224 -0.0268194 0)
(0.156783 -0.0284656 0)
(0.161465 -0.03003 0)
(0.166086 -0.0316025 0)
(0.170706 -0.0331479 0)
(0.175345 -0.0346251 0)
(0.180044 -0.036035 0)
(0.184774 -0.0373662 0)
(0.189543 -0.0386224 0)
(0.194406 -0.0397869 0)
(0.199387 -0.0408442 0)
(0.204456 -0.0417909 0)
(0.209588 -0.0426263 0)
(0.2148 -0.0433538 0)
(0.2201 -0.0439791 0)
(0.225429 -0.0445131 0)
(0.230835 -0.044978 0)
(0.236289 -0.045405 0)
(0.24184 -0.0458361 0)
(0.247473 -0.0462916 0)
(0.144814 -0.0326157 0)
(0.149723 -0.0344864 0)
(0.154787 -0.0362731 0)
(0.15977 -0.0380688 0)
(0.164773 -0.0398177 0)
(0.169811 -0.0414857 0)
(0.174882 -0.0430606 0)
(0.17999 -0.0445429 0)
(0.18514 -0.0459223 0)
(0.190372 -0.0471779 0)
(0.195707 -0.048305 0)
(0.201127 -0.0493074 0)
(0.206611 -0.0501873 0)
(0.212162 -0.0509524 0)
(0.21777 -0.0516132 0)
(0.223391 -0.0521865 0)
(0.229098 -0.0526985 0)
(0.234825 -0.0531756 0)
(0.240644 -0.0536468 0)
(0.246495 -0.0541281 0)
(0.136575 -0.0388704 0)
(0.141904 -0.0409484 0)
(0.147405 -0.0429182 0)
(0.152829 -0.0448783 0)
(0.158262 -0.0467488 0)
(0.163757 -0.0485184 0)
(0.16927 -0.0501669 0)
(0.174806 -0.0517122 0)
(0.1804 -0.0531396 0)
(0.18608 -0.0544282 0)
(0.191835 -0.05558 0)
(0.197631 -0.0566046 0)
(0.203465 -0.0575088 0)
(0.209364 -0.0583016 0)
(0.215303 -0.0589934 0)
(0.221253 -0.0596006 0)
(0.227296 -0.0601434 0)
(0.233322 -0.0606378 0)
(0.239442 -0.0611027 0)
(0.245558 -0.0615706 0)
(0.127593 -0.0458149 0)
(0.133385 -0.0480502 0)
(0.139418 -0.0500706 0)
(0.14541 -0.0520245 0)
(0.151432 -0.053864 0)
(0.157497 -0.0555865 0)
(0.163549 -0.0571939 0)
(0.169581 -0.0587037 0)
(0.175634 -0.0600977 0)
(0.181744 -0.0613595 0)
(0.187905 -0.0624947 0)
(0.19408 -0.0635156 0)
(0.200272 -0.0644321 0)
(0.206519 -0.0652502 0)
(0.212784 -0.0659733 0)
(0.219065 -0.0666126 0)
(0.225455 -0.0671774 0)
(0.231807 -0.0676703 0)
(0.238251 -0.0681123 0)
(0.244662 -0.0685618 0)
(0.118094 -0.0542339 0)
(0.124551 -0.0560656 0)
(0.13139 -0.0576956 0)
(0.138162 -0.0593169 0)
(0.144883 -0.0608974 0)
(0.151549 -0.0624223 0)
(0.158132 -0.06389 0)
(0.16465 -0.0652915 0)
(0.171152 -0.0666013 0)
(0.177675 -0.067804 0)
(0.184212 -0.0689036 0)
(0.190733 -0.0699117 0)
(0.197251 -0.0708376 0)
(0.203808 -0.0716812 0)
(0.210363 -0.0724377 0)
(0.216949 -0.0731114 0)
(0.22365 -0.0737015 0)
(0.230307 -0.0742067 0)
(0.23705 -0.0746583 0)
(0.243766 -0.075119 0)
(0.108547 -0.0661356 0)
(0.116581 -0.0654064 0)
(0.124575 -0.0659137 0)
(0.132293 -0.0668653 0)
(0.139728 -0.0679965 0)
(0.146944 -0.069212 0)
(0.153974 -0.0704516 0)
(0.160878 -0.0716716 0)
(0.167728 -0.0728401 0)
(0.174566 -0.0739369 0)
(0.181383 -0.0749585 0)
(0.18815 -0.0759122 0)
(0.194901 -0.0768053 0)
(0.201687 -0.0776313 0)
(0.208445 -0.0783787 0)
(0.215235 -0.0790489 0)
(0.222132 -0.079636 0)
(0.228978 -0.0801505 0)
(0.235872 -0.080629 0)
(0.242754 -0.0810939 0)
(0.103544 -0.0765529 0)
(0.111864 -0.0751984 0)
(0.119995 -0.0748227 0)
(0.12803 -0.0750675 0)
(0.13584 -0.0756788 0)
(0.143416 -0.0765118 0)
(0.15078 -0.0774505 0)
(0.157988 -0.0784276 0)
(0.165109 -0.0794032 0)
(0.172184 -0.0803467 0)
(0.179203 -0.081243 0)
(0.186138 -0.082093 0)
(0.193046 -0.0829012 0)
(0.199985 -0.0836557 0)
(0.206878 -0.0843421 0)
(0.213801 -0.0849646 0)
(0.220795 -0.0855204 0)
(0.227746 -0.086032 0)
(0.23468 -0.0865179 0)
(0.241594 -0.0869228 0)
(0.100123 -0.085265 0)
(0.108482 -0.084143 0)
(0.116632 -0.0835138 0)
(0.124727 -0.083358 0)
(0.132683 -0.0835869 0)
(0.140453 -0.0840885 0)
(0.148035 -0.0847432 0)
(0.155465 -0.0854819 0)
(0.162793 -0.0862608 0)
(0.170055 -0.087042 0)
(0.177231 -0.0877992 0)
(0.184292 -0.0885268 0)
(0.191316 -0.0892285 0)
(0.198368 -0.0898895 0)
(0.20536 -0.0904972 0)
(0.212381 -0.0910614 0)
(0.219426 -0.0915863 0)
(0.226446 -0.0920886 0)
(0.233399 -0.0925418 0)
(0.240319 -0.0928393 0)
(0.0974149 -0.0932168 0)
(0.105763 -0.0923674 0)
(0.11392 -0.0917598 0)
(0.122018 -0.0914539 0)
(0.130025 -0.0914605 0)
(0.137897 -0.0917196 0)
(0.145615 -0.0921438 0)
(0.153189 -0.0926744 0)
(0.160658 -0.0932692 0)
(0.168056 -0.0938898 0)
(0.175353 -0.0945047 0)
(0.182513 -0.095105 0)
(0.189631 -0.0956969 0)
(0.196775 -0.0962648 0)
(0.203845 -0.0967978 0)
(0.21095 -0.0973087 0)
(0.21802 -0.0978017 0)
(0.225081 -0.0982708 0)
(0.232048 -0.0986439 0)
(0.238971 -0.0988531 0)
(0.0951513 -0.100762 0)
(0.103477 -0.100136 0)
(0.111629 -0.0996416 0)
(0.119732 -0.0993171 0)
(0.127761 -0.0992106 0)
(0.135694 -0.099311 0)
(0.143495 -0.0995663 0)
(0.151156 -0.0999281 0)
(0.158709 -0.10036 0)
(0.166195 -0.100832 0)
(0.173576 -0.101313 0)
(0.18081 -0.101794 0)
(0.188006 -0.102289 0)
(0.195223 -0.10278 0)
(0.202352 -0.103254 0)
(0.209524 -0.103719 0)
(0.21661 -0.104171 0)
(0.223691 -0.104577 0)
(0.230667 -0.104861 0)
(0.237593 -0.105062 0)
(0.0931836 -0.108079 0)
(0.10148 -0.107641 0)
(0.109642 -0.107263 0)
(0.117749 -0.106975 0)
(0.125791 -0.106827 0)
(0.133762 -0.106841 0)
(0.141617 -0.106989 0)
(0.149332 -0.107229 0)
(0.156936 -0.107532 0)
(0.164477 -0.107882 0)
(0.171917 -0.108249 0)
(0.179209 -0.108628 0)
(0.18647 -0.109041 0)
(0.193745 -0.109469 0)
(0.200915 -0.109892 0)
(0.208128 -0.110307 0)
(0.215222 -0.110696 0)
(0.22231 -0.111023 0)
(0.229288 -0.111259 0)
(0.236218 -0.111494 0)
(0.091435 -0.115262 0)
(0.0997152 -0.114973 0)
(0.107902 -0.114695 0)
(0.116008 -0.114469 0)
(0.124055 -0.114334 0)
(0.132046 -0.114319 0)
(0.139936 -0.114409 0)
(0.147687 -0.11457 0)
(0.155328 -0.114781 0)
(0.162909 -0.115038 0)
(0.170395 -0.115316 0)
(0.177735 -0.115613 0)
(0.185046 -0.115953 0)
(0.192359 -0.116317 0)
(0.199555 -0.11668 0)
(0.206785 -0.117025 0)
(0.213878 -0.117335 0)
(0.220962 -0.117594 0)
(0.227941 -0.117828 0)
(0.234877 -0.118033 0)
(0.0898706 -0.122344 0)
(0.0981612 -0.12216 0)
(0.106369 -0.121974 0)
(0.114477 -0.121824 0)
(0.122522 -0.121733 0)
(0.130519 -0.12172 0)
(0.138429 -0.12178 0)
(0.146209 -0.121888 0)
(0.153879 -0.122029 0)
(0.161497 -0.122219 0)
(0.169022 -0.122434 0)
(0.176402 -0.122672 0)
(0.183752 -0.122952 0)
(0.191077 -0.12325 0)
(0.198282 -0.123544 0)
(0.205511 -0.123814 0)
(0.212596 -0.124055 0)
(0.219675 -0.124279 0)
(0.226653 -0.124507 0)
(0.233594 -0.124604 0)
(0.0884749 -0.129339 0)
(0.0967864 -0.129234 0)
(0.105009 -0.12913 0)
(0.113121 -0.12905 0)
(0.121161 -0.129003 0)
(0.129158 -0.128995 0)
(0.137084 -0.129033 0)
(0.144889 -0.129105 0)
(0.152591 -0.129198 0)
(0.160244 -0.129351 0)
(0.167801 -0.129535 0)
(0.175208 -0.129746 0)
(0.182582 -0.12999 0)
(0.189906 -0.130234 0)
(0.197102 -0.130466 0)
(0.204324 -0.13068 0)
(0.211398 -0.130887 0)
(0.218468 -0.131096 0)
(0.225444 -0.131261 0)
(0.232384 -0.1313 0)
(0.0872454 -0.136279 0)
(0.0955698 -0.136246 0)
(0.1038 -0.1362 0)
(0.11191 -0.136168 0)
(0.119944 -0.13615 0)
(0.127943 -0.136145 0)
(0.135885 -0.136174 0)
(0.143717 -0.136238 0)
(0.151453 -0.136314 0)
(0.159139 -0.13646 0)
(0.166719 -0.13664 0)
(0.17414 -0.136846 0)
(0.181525 -0.137068 0)
(0.188841 -0.137272 0)
(0.196025 -0.137459 0)
(0.203233 -0.137639 0)
(0.210295 -0.137826 0)
(0.217354 -0.137995 0)
(0.22432 -0.13806 0)
(0.231257 -0.138141 0)
(0.0861712 -0.143207 0)
(0.0944982 -0.143233 0)
(0.102723 -0.143221 0)
(0.110824 -0.143214 0)
(0.118852 -0.143218 0)
(0.126859 -0.143226 0)
(0.134821 -0.143266 0)
(0.142681 -0.143345 0)
(0.150447 -0.143432 0)
(0.158161 -0.143579 0)
(0.165756 -0.143754 0)
(0.173182 -0.143947 0)
(0.180571 -0.144142 0)
(0.187881 -0.144311 0)
(0.195052 -0.144465 0)
(0.202244 -0.14462 0)
(0.209288 -0.144768 0)
(0.216328 -0.144861 0)
(0.223283 -0.144887 0)
(0.230216 -0.144972 0)
(0.0852229 -0.150133 0)
(0.0935462 -0.150181 0)
(0.101754 -0.150193 0)
(0.109846 -0.150208 0)
(0.11788 -0.150233 0)
(0.125905 -0.150257 0)
(0.133891 -0.15031 0)
(0.141773 -0.150399 0)
(0.149558 -0.150506 0)
(0.157288 -0.15065 0)
(0.164892 -0.150812 0)
(0.172324 -0.150987 0)
(0.179718 -0.15116 0)
(0.187024 -0.151315 0)
(0.194179 -0.151463 0)
(0.201348 -0.151602 0)
(0.208367 -0.1517 0)
(0.21539 -0.151733 0)
(0.222337 -0.151812 0)
(0.229273 -0.15182 0)
(0.084367 -0.157028 0)
(0.0926828 -0.157076 0)
(0.10088 -0.157121 0)
(0.108979 -0.157155 0)
(0.117036 -0.157193 0)
(0.125087 -0.157218 0)
(0.133095 -0.157281 0)
(0.140986 -0.157366 0)
(0.148772 -0.157508 0)
(0.156507 -0.157671 0)
(0.164119 -0.157838 0)
(0.17156 -0.158012 0)
(0.178959 -0.158182 0)
(0.186257 -0.15834 0)
(0.19339 -0.158486 0)
(0.200531 -0.1586 0)
(0.207529 -0.158659 0)
(0.214545 -0.158701 0)
(0.221496 -0.158797 0)
(0.228439 -0.158795 0)
(0.0835832 -0.163898 0)
(0.0918942 -0.163977 0)
(0.100107 -0.164048 0)
(0.108239 -0.164088 0)
(0.116333 -0.164127 0)
(0.12441 -0.164155 0)
(0.132423 -0.164248 0)
(0.140306 -0.164345 0)
(0.148079 -0.164512 0)
(0.155813 -0.164689 0)
(0.163435 -0.164851 0)
(0.170885 -0.165012 0)
(0.178282 -0.165174 0)
(0.18556 -0.165325 0)
(0.192665 -0.165452 0)
(0.199788 -0.165536 0)
(0.206784 -0.165591 0)
(0.213811 -0.165691 0)
(0.220771 -0.165711 0)
(0.22771 -0.165754 0)
(0.0828737 -0.170832 0)
(0.0911951 -0.170934 0)
(0.0994557 -0.170998 0)
(0.10764 -0.171032 0)
(0.115771 -0.171081 0)
(0.12386 -0.171134 0)
(0.131859 -0.171243 0)
(0.139718 -0.171345 0)
(0.14748 -0.171478 0)
(0.155218 -0.171635 0)
(0.162848 -0.1718 0)
(0.170295 -0.171974 0)
(0.17767 -0.172145 0)
(0.184921 -0.172295 0)
(0.192012 -0.172407 0)
(0.199142 -0.172487 0)
(0.206157 -0.17258 0)
(0.213192 -0.172692 0)
(0.220148 -0.172697 0)
(0.227076 -0.17271 0)
(0.0822658 -0.177855 0)
(0.0906211 -0.177894 0)
(0.0989479 -0.177944 0)
(0.107183 -0.177993 0)
(0.115336 -0.178048 0)
(0.123417 -0.178125 0)
(0.131394 -0.178219 0)
(0.139233 -0.178341 0)
(0.14699 -0.178463 0)
(0.154731 -0.178595 0)
(0.162352 -0.178747 0)
(0.16977 -0.178917 0)
(0.177113 -0.179083 0)
(0.184354 -0.179221 0)
(0.191463 -0.17933 0)
(0.198619 -0.179444 0)
(0.205645 -0.179579 0)
(0.212664 -0.179621 0)
(0.2196 -0.179698 0)
(0.226545 -0.179707 0)
(0.081803 -0.184799 0)
(0.0902064 -0.184853 0)
(0.0985917 -0.184913 0)
(0.106854 -0.184978 0)
(0.115001 -0.185026 0)
(0.123056 -0.185105 0)
(0.131019 -0.185191 0)
(0.138862 -0.185295 0)
(0.146623 -0.185402 0)
(0.154347 -0.185526 0)
(0.161926 -0.185672 0)
(0.169303 -0.185828 0)
(0.176637 -0.185974 0)
(0.183907 -0.186103 0)
(0.19105 -0.186237 0)
(0.198206 -0.186388 0)
(0.205211 -0.186517 0)
(0.212218 -0.186547 0)
(0.219149 -0.186614 0)
(0.22613 -0.186657 0)
(0.0815151 -0.191734 0)
(0.0899562 -0.19183 0)
(0.0983697 -0.191876 0)
(0.10662 -0.191933 0)
(0.114734 -0.192019 0)
(0.122776 -0.192083 0)
(0.130754 -0.192152 0)
(0.138615 -0.192232 0)
(0.146361 -0.192331 0)
(0.154032 -0.192451 0)
(0.161559 -0.192587 0)
(0.16893 -0.192728 0)
(0.176303 -0.192866 0)
(0.183608 -0.193006 0)
(0.190745 -0.193166 0)
(0.197853 -0.193326 0)
(0.204834 -0.193405 0)
(0.211934 -0.193525 0)
(0.218914 -0.193558 0)
(0.22574 -0.193606 0)
(0.0813808 -0.198763 0)
(0.0898392 -0.198794 0)
(0.0982279 -0.198834 0)
(0.106441 -0.198898 0)
(0.114538 -0.198961 0)
(0.122603 -0.199025 0)
(0.130614 -0.199088 0)
(0.138466 -0.199154 0)
(0.146152 -0.199236 0)
(0.153765 -0.199344 0)
(0.161299 -0.199467 0)
(0.168734 -0.199595 0)
(0.176138 -0.199734 0)
(0.183372 -0.19989 0)
(0.190448 -0.200057 0)
(0.197654 -0.200202 0)
(0.204703 -0.200286 0)
(0.21172 -0.20038 0)
(0.218733 -0.200423 0)
(0.225579 -0.200488 0)
(0.0813589 -0.205677 0)
(0.0897943 -0.205744 0)
(0.0981235 -0.205794 0)
(0.106313 -0.205846 0)
(0.114448 -0.205902 0)
(0.122559 -0.205966 0)
(0.130555 -0.206028 0)
(0.138334 -0.206096 0)
(0.145983 -0.206179 0)
(0.153659 -0.206279 0)
(0.161257 -0.206395 0)
(0.168629 -0.206523 0)
(0.175968 -0.206663 0)
(0.183275 -0.206827 0)
(0.190377 -0.206977 0)
(0.197518 -0.2071 0)
(0.204605 -0.207276 0)
(0.211625 -0.207247 0)
(0.218672 -0.207268 0)
(0.225489 -0.207211 0)
(0.00562713 -0.0897957 0)
(0.0168768 -0.0893131 0)
(0.0280896 -0.0880133 0)
(0.0392402 -0.0863566 0)
(0.050256 -0.0841337 0)
(0.0610733 -0.0816344 0)
(0.0715876 -0.0788838 0)
(0.0816812 -0.0759197 0)
(0.0912173 -0.0727923 0)
(0.0996182 -0.0694522 0)
(0.00557356 -0.09388 0)
(0.0167077 -0.0935163 0)
(0.0277703 -0.0923848 0)
(0.0387147 -0.0910366 0)
(0.049449 -0.0892031 0)
(0.05986 -0.0871515 0)
(0.0697954 -0.0849411 0)
(0.0791091 -0.0826173 0)
(0.0876102 -0.0803343 0)
(0.0952256 -0.0782716 0)
(0.00545867 -0.0983794 0)
(0.0163548 -0.0981516 0)
(0.0271449 -0.0972006 0)
(0.0377643 -0.0961551 0)
(0.048117 -0.0947189 0)
(0.0580536 -0.0930965 0)
(0.0674219 -0.0913814 0)
(0.0761344 -0.0896013 0)
(0.0841799 -0.0878983 0)
(0.0918613 -0.0864124 0)
(0.00530167 -0.103242 0)
(0.0158931 -0.103127 0)
(0.0263704 -0.102336 0)
(0.0366486 -0.10153 0)
(0.0466324 -0.100427 0)
(0.0561602 -0.0991314 0)
(0.0651294 -0.0977944 0)
(0.0735041 -0.0964261 0)
(0.0814337 -0.0951258 0)
(0.0892359 -0.0940146 0)
(0.00513158 -0.108406 0)
(0.015369 -0.108391 0)
(0.0255155 -0.107743 0)
(0.0354614 -0.107113 0)
(0.0451022 -0.106283 0)
(0.0542974 -0.105253 0)
(0.0629864 -0.104215 0)
(0.0711966 -0.103177 0)
(0.0791315 -0.102168 0)
(0.0870229 -0.10133 0)
(0.00495906 -0.113835 0)
(0.0148332 -0.113887 0)
(0.0246446 -0.113377 0)
(0.0342715 -0.11288 0)
(0.0435991 -0.112271 0)
(0.0525295 -0.111478 0)
(0.0610225 -0.110675 0)
(0.069152 -0.10989 0)
(0.0771161 -0.109106 0)
(0.0850672 -0.10848 0)
(0.00477233 -0.119499 0)
(0.0143016 -0.119581 0)
(0.0237837 -0.119219 0)
(0.0331045 -0.118818 0)
(0.0421567 -0.118369 0)
(0.0508636 -0.117784 0)
(0.0592234 -0.11717 0)
(0.0673122 -0.116575 0)
(0.0753011 -0.115974 0)
(0.0833033 -0.115513 0)
(0.00458886 -0.125372 0)
(0.0137925 -0.125446 0)
(0.0229538 -0.125225 0)
(0.0319843 -0.124892 0)
(0.0407986 -0.12456 0)
(0.0493123 -0.124155 0)
(0.057563 -0.1237 0)
(0.0656352 -0.123236 0)
(0.073657 -0.122786 0)
(0.0817162 -0.122458 0)
(0.00443376 -0.131428 0)
(0.0133216 -0.131468 0)
(0.0221711 -0.131356 0)
(0.0309271 -0.131089 0)
(0.0395192 -0.130855 0)
(0.0478746 -0.130593 0)
(0.0560382 -0.130269 0)
(0.064111 -0.129894 0)
(0.0721787 -0.129579 0)
(0.0803027 -0.129366 0)
(0.0042962 -0.137655 0)
(0.0128756 -0.137645 0)
(0.0214308 -0.137605 0)
(0.0299354 -0.137416 0)
(0.0383149 -0.137272 0)
(0.046544 -0.137105 0)
(0.0546505 -0.136884 0)
(0.0627364 -0.136605 0)
(0.0708577 -0.136405 0)
(0.0790541 -0.136276 0)
(0.00415586 -0.14403 0)
(0.0124478 -0.143964 0)
(0.0207372 -0.143972 0)
(0.0290125 -0.143867 0)
(0.0371961 -0.143803 0)
(0.0453186 -0.143694 0)
(0.0533917 -0.143553 0)
(0.061499 -0.143386 0)
(0.0696783 -0.143256 0)
(0.0779524 -0.143173 0)
(0.00401672 -0.150508 0)
(0.0120563 -0.150408 0)
(0.020108 -0.150451 0)
(0.0281664 -0.150419 0)
(0.0361752 -0.150413 0)
(0.0442026 -0.150348 0)
(0.0522539 -0.150273 0)
(0.0603864 -0.150194 0)
(0.0686227 -0.150083 0)
(0.0769698 -0.150037 0)
(0.00389672 -0.157062 0)
(0.0117182 -0.156956 0)
(0.0195512 -0.157026 0)
(0.0274003 -0.157044 0)
(0.0352562 -0.157069 0)
(0.0431994 -0.157048 0)
(0.0512324 -0.15704 0)
(0.0593864 -0.156997 0)
(0.0676673 -0.156906 0)
(0.0760711 -0.156915 0)
(0.00380226 -0.163684 0)
(0.0114269 -0.163592 0)
(0.0190533 -0.16367 0)
(0.0267074 -0.16373 0)
(0.0344332 -0.163786 0)
(0.0423055 -0.163812 0)
(0.050319 -0.163857 0)
(0.0584821 -0.163822 0)
(0.0667867 -0.163802 0)
(0.0752325 -0.163833 0)
(0.00372323 -0.170379 0)
(0.0111605 -0.170315 0)
(0.0185941 -0.170388 0)
(0.0260786 -0.170489 0)
(0.0336981 -0.170584 0)
(0.0415131 -0.170653 0)
(0.0495046 -0.170688 0)
(0.0576618 -0.170663 0)
(0.0659747 -0.170725 0)
(0.0744629 -0.170743 0)
(0.00364644 -0.177147 0)
(0.0109036 -0.177138 0)
(0.0181654 -0.177204 0)
(0.0255132 -0.177327 0)
(0.0330511 -0.177417 0)
(0.0408215 -0.177493 0)
(0.0487895 -0.177519 0)
(0.056932 -0.177568 0)
(0.0652543 -0.177664 0)
(0.0737978 -0.177738 0)
(0.0035674 -0.183998 0)
(0.0106584 -0.184058 0)
(0.017776 -0.18409 0)
(0.0250216 -0.184199 0)
(0.0325032 -0.184307 0)
(0.0402398 -0.184386 0)
(0.04818 -0.184433 0)
(0.0563076 -0.184554 0)
(0.0646551 -0.184608 0)
(0.0732755 -0.18474 0)
(0.00349103 -0.190936 0)
(0.0104392 -0.191041 0)
(0.017445 -0.191053 0)
(0.0246205 -0.191134 0)
(0.032065 -0.191208 0)
(0.0397745 -0.191275 0)
(0.047683 -0.191358 0)
(0.0558049 -0.191488 0)
(0.0642065 -0.191578 0)
(0.0729397 -0.191686 0)
(0.00342592 -0.197938 0)
(0.0102627 -0.198073 0)
(0.0171914 -0.198097 0)
(0.024327 -0.198143 0)
(0.0317409 -0.198189 0)
(0.0394177 -0.198262 0)
(0.0473008 -0.198382 0)
(0.0554337 -0.198473 0)
(0.063903 -0.19861 0)
(0.0727625 -0.198716 0)
(0.00337986 -0.205047 0)
(0.0101415 -0.205139 0)
(0.017018 -0.205178 0)
(0.0241314 -0.205188 0)
(0.0315246 -0.205199 0)
(0.0391669 -0.205271 0)
(0.0470296 -0.205378 0)
(0.0551894 -0.205461 0)
(0.0637462 -0.205566 0)
(0.0727212 -0.205649 0)
)


// ************************************************************************* //
