/*--------------------------------*- C++ -*----------------------------------*\
| =========                 |                                                 |
| \\      /  F ield         | foam-extend: Open Source CFD                    |
|  \\    /   O peration     | Version:     4.1                                |
|   \\  /    A nd           | Web:         http://www.foam-extend.org         |
|    \\/     M anipulation  |                                                 |
\*---------------------------------------------------------------------------*/
FoamFile
{
    version     2.0;
    format      ascii;
    class       vectorField;
    location    "2";
    object      residualD_iteration5;
}
// * * * * * * * * * * * * * * * * * * * * * * * * * * * * * * * * * * * * * //


1000
(
(0.0185033 -0.0124237 0)
(0.0164999 -0.0114345 0)
(0.0151687 -0.0107646 0)
(0.014225 -0.010392 0)
(0.0135755 -0.0102124 0)
(0.0131559 -0.0101758 0)
(0.0128907 -0.0102177 0)
(0.012739 -0.0103252 0)
(0.0127528 -0.0104276 0)
(0.0128859 -0.0103991 0)
(0.0165476 -0.0135972 0)
(0.0144733 -0.0128727 0)
(0.0131368 -0.0123518 0)
(0.0121939 -0.0120892 0)
(0.0115073 -0.0119793 0)
(0.0110978 -0.0119747 0)
(0.0108797 -0.0120281 0)
(0.0108019 -0.0121509 0)
(0.0108869 -0.0122631 0)
(0.0110652 -0.0123735 0)
(0.0146289 -0.0146922 0)
(0.0125231 -0.0142778 0)
(0.0111366 -0.013954 0)
(0.0102389 -0.0138086 0)
(0.00960827 -0.0137694 0)
(0.00922671 -0.0138043 0)
(0.00905122 -0.0139001 0)
(0.00901733 -0.0140678 0)
(0.00914448 -0.0142325 0)
(0.00934078 -0.0144197 0)
(0.0126605 -0.0157034 0)
(0.0106468 -0.0156103 0)
(0.00927918 -0.0155038 0)
(0.0084133 -0.0154787 0)
(0.00786844 -0.0155216 0)
(0.00753912 -0.0156267 0)
(0.00738561 -0.015776 0)
(0.00738199 -0.0159872 0)
(0.00751176 -0.016194 0)
(0.00771408 -0.0164462 0)
(0.0107117 -0.0166247 0)
(0.0088464 -0.0168408 0)
(0.00758156 -0.0169349 0)
(0.00678393 -0.0170441 0)
(0.00629086 -0.017178 0)
(0.00599793 -0.0173512 0)
(0.00586398 -0.0175497 0)
(0.00588871 -0.0178026 0)
(0.00602227 -0.0180621 0)
(0.00620907 -0.0183712 0)
(0.00870412 -0.0174357 0)
(0.00711787 -0.0179419 0)
(0.0060375 -0.0182289 0)
(0.00532546 -0.0184718 0)
(0.00487018 -0.018693 0)
(0.00461874 -0.0189221 0)
(0.00452377 -0.0191685 0)
(0.00455916 -0.0194542 0)
(0.0046773 -0.0197599 0)
(0.00483121 -0.0201187 0)
(0.00674488 -0.0180966 0)
(0.00543759 -0.0188693 0)
(0.00455407 -0.0193309 0)
(0.00396736 -0.0196864 0)
(0.00360203 -0.0199814 0)
(0.00341041 -0.0202694 0)
(0.00334406 -0.020558 0)
(0.00337038 -0.020873 0)
(0.00345774 -0.0212133 0)
(0.00357373 -0.0216001 0)
(0.00480985 -0.0186135 0)
(0.00380856 -0.0196015 0)
(0.00315057 -0.0201904 0)
(0.00271783 -0.0206329 0)
(0.0024715 -0.0209977 0)
(0.00234376 -0.0213354 0)
(0.0022914 -0.0216552 0)
(0.00229831 -0.0219926 0)
(0.00235479 -0.0223659 0)
(0.00244061 -0.02278 0)
(0.00287084 -0.0189618 0)
(0.00224411 -0.0200951 0)
(0.00185447 -0.0207821 0)
(0.00159961 -0.0212979 0)
(0.00144851 -0.021707 0)
(0.00135221 -0.022059 0)
(0.00131218 -0.022403 0)
(0.00132957 -0.0227725 0)
(0.00137544 -0.0231641 0)
(0.00142864 -0.023583 0)
(0.000950475 -0.019137 0)
(0.000759214 -0.020364 0)
(0.00061635 -0.0210831 0)
(0.000516369 -0.0216237 0)
(0.000472786 -0.022061 0)
(0.000448258 -0.0224363 0)
(0.000425794 -0.0227905 0)
(0.000425188 -0.0231707 0)
(0.000446241 -0.0235797 0)
(0.000468534 -0.0240158 0)
(0.0305356 -0.000555449 0)
(0.030814 -0.000377806 0)
(0.0308372 -0.00026622 0)
(0.0307937 -0.000206542 0)
(0.0307133 -0.000164991 0)
(0.0306409 -0.00014769 0)
(0.0306029 -0.000155229 0)
(0.0306058 -0.000148936 0)
(0.0306727 -0.000162868 0)
(0.0307805 -0.000198585 0)
(0.0302728 -0.001678 0)
(0.0304851 -0.0011614 0)
(0.0304473 -0.00081003 0)
(0.0303649 -0.000630183 0)
(0.0302617 -0.000546631 0)
(0.0301702 -0.000481294 0)
(0.0301262 -0.000476863 0)
(0.0301129 -0.000507088 0)
(0.0301481 -0.000570043 0)
(0.0302526 -0.000640529 0)
(0.0297607 -0.00278859 0)
(0.0298375 -0.00198586 0)
(0.0296967 -0.00144414 0)
(0.029529 -0.00110684 0)
(0.0293874 -0.000947032 0)
(0.0292677 -0.000878897 0)
(0.0291786 -0.000892269 0)
(0.0291626 -0.000941691 0)
(0.0291727 -0.00102677 0)
(0.02926 -0.00113011 0)
(0.0289953 -0.00393628 0)
(0.0288588 -0.00286402 0)
(0.0285918 -0.00217348 0)
(0.0283157 -0.00173993 0)
(0.0280934 -0.00151182 0)
(0.0279613 -0.00141113 0)
(0.0278517 -0.00140725 0)
(0.0278087 -0.0014632 0)
(0.0277813 -0.00157546 0)
(0.0278395 -0.00172464 0)
(0.0279968 -0.00510617 0)
(0.0275979 -0.00381061 0)
(0.0271687 -0.00299349 0)
(0.0267931 -0.00249416 0)
(0.0264857 -0.00221913 0)
(0.0262989 -0.00208645 0)
(0.026154 -0.00207072 0)
(0.0260678 -0.00214438 0)
(0.0260041 -0.00228149 0)
(0.0260506 -0.00246254 0)
(0.0267666 -0.00631204 0)
(0.026078 -0.00485974 0)
(0.0254913 -0.003945 0)
(0.0250154 -0.00339365 0)
(0.0246108 -0.00309783 0)
(0.024351 -0.00295543 0)
(0.0241717 -0.00293954 0)
(0.024052 -0.00301713 0)
(0.0239449 -0.00316256 0)
(0.0239405 -0.00336213 0)
(0.0253769 -0.00754867 0)
(0.0243609 -0.00602433 0)
(0.0235815 -0.00505569 0)
(0.023005 -0.00447506 0)
(0.0225234 -0.00416645 0)
(0.022198 -0.00402546 0)
(0.0219839 -0.00401393 0)
(0.0218451 -0.00408216 0)
(0.0216945 -0.00422564 0)
(0.0216176 -0.00443101 0)
(0.0238231 -0.00878289 0)
(0.0225013 -0.00728294 0)
(0.0215411 -0.00631559 0)
(0.0208631 -0.00574091 0)
(0.0203406 -0.00543121 0)
(0.0199588 -0.00530056 0)
(0.0196899 -0.00529462 0)
(0.0195052 -0.00535145 0)
(0.0192979 -0.00549016 0)
(0.0191283 -0.00568989 0)
(0.0221439 -0.0100185 0)
(0.0205566 -0.00861267 0)
(0.0194101 -0.00771008 0)
(0.0186228 -0.00716988 0)
(0.0180585 -0.00687848 0)
(0.0176368 -0.00675971 0)
(0.0173262 -0.00675707 0)
(0.0170985 -0.00680378 0)
(0.0168529 -0.00692644 0)
(0.0165619 -0.00707827 0)
(0.0203589 -0.0112471 0)
(0.018573 -0.0100058 0)
(0.0172937 -0.00920298 0)
(0.0164016 -0.00873463 0)
(0.0157838 -0.00848887 0)
(0.0153701 -0.00839271 0)
(0.015094 -0.00840785 0)
(0.0148736 -0.00846481 0)
(0.0146594 -0.0085754 0)
(0.014245 -0.00869092 0)
(0.0309694 -0.00021951 0)
(0.0311805 -0.00021697 0)
(0.0313906 -0.000216149 0)
(0.0316085 -0.000215976 0)
(0.0318596 -0.000214537 0)
(0.0321381 -0.000211096 0)
(0.0323915 -0.000196559 0)
(0.0326183 -0.000178319 0)
(0.0328695 -0.000171427 0)
(0.0331507 -0.000170773 0)
(0.0334314 -0.000166685 0)
(0.0337046 -0.000156371 0)
(0.0339772 -0.000141977 0)
(0.0342497 -0.00012842 0)
(0.0345227 -0.000118647 0)
(0.0348022 -0.000109802 0)
(0.0350943 -9.63545e-05 0)
(0.0354067 -7.53349e-05 0)
(0.0357407 -4.84473e-05 0)
(0.0360769 -1.94556e-05 0)
(0.0304716 -0.000680136 0)
(0.0307216 -0.000670509 0)
(0.0309727 -0.000666222 0)
(0.0312386 -0.000659367 0)
(0.0315118 -0.00063633 0)
(0.031787 -0.000607866 0)
(0.0320541 -0.000578847 0)
(0.0323168 -0.000557389 0)
(0.0325999 -0.000546395 0)
(0.0329025 -0.000525895 0)
(0.0332111 -0.000492585 0)
(0.0335182 -0.000456196 0)
(0.0338152 -0.000421403 0)
(0.0340996 -0.000388817 0)
(0.0343804 -0.000357345 0)
(0.0346704 -0.000322898 0)
(0.0349798 -0.000279183 0)
(0.0353097 -0.000223057 0)
(0.035638 -0.000157071 0)
(0.0359434 -8.24286e-05 0)
(0.0295434 -0.00119853 0)
(0.0299009 -0.00118279 0)
(0.0302205 -0.00115831 0)
(0.0305347 -0.00112707 0)
(0.0308735 -0.00108392 0)
(0.0312178 -0.00104465 0)
(0.031524 -0.00100803 0)
(0.0317944 -0.000972734 0)
(0.0320876 -0.000935783 0)
(0.0324055 -0.000881429 0)
(0.0327251 -0.000821059 0)
(0.0330335 -0.000769606 0)
(0.033327 -0.000722711 0)
(0.0336134 -0.000671539 0)
(0.0339044 -0.000614089 0)
(0.0342099 -0.000550554 0)
(0.0345431 -0.000477758 0)
(0.0348962 -0.000392504 0)
(0.0352494 -0.000297176 0)
(0.03559 -0.000184819 0)
(0.0281826 -0.00181339 0)
(0.0286654 -0.00176863 0)
(0.0291041 -0.00170348 0)
(0.0295203 -0.0016345 0)
(0.0299284 -0.00156587 0)
(0.0303133 -0.00151291 0)
(0.0306735 -0.00146052 0)
(0.0310145 -0.00140725 0)
(0.0313744 -0.00134619 0)
(0.0317348 -0.00126797 0)
(0.0320718 -0.00118837 0)
(0.0323872 -0.0011184 0)
(0.0326924 -0.00104892 0)
(0.0329979 -0.000972586 0)
(0.0333086 -0.000892635 0)
(0.0336299 -0.000808045 0)
(0.0339712 -0.000714675 0)
(0.0343271 -0.00060532 0)
(0.0346725 -0.000478419 0)
(0.0350432 -0.000327629 0)
(0.0265037 -0.00254205 0)
(0.0271624 -0.00244246 0)
(0.0277224 -0.00233274 0)
(0.0282193 -0.00223274 0)
(0.0287032 -0.00213706 0)
(0.0291521 -0.00205957 0)
(0.0295688 -0.00197665 0)
(0.0299706 -0.0019002 0)
(0.0303676 -0.00181246 0)
(0.0307514 -0.0017078 0)
(0.0311217 -0.0016073 0)
(0.0314838 -0.00151852 0)
(0.0318384 -0.00142866 0)
(0.0321801 -0.00133171 0)
(0.0325147 -0.00123336 0)
(0.0328615 -0.00113024 0)
(0.0332182 -0.00101518 0)
(0.0335969 -0.000880593 0)
(0.0339647 -0.000718197 0)
(0.0343631 -0.000527712 0)
(0.0244731 -0.00340981 0)
(0.0253071 -0.00323141 0)
(0.0260306 -0.00306013 0)
(0.0266668 -0.00292177 0)
(0.0272596 -0.0027955 0)
(0.0277901 -0.0026896 0)
(0.028241 -0.00257052 0)
(0.0286888 -0.00245483 0)
(0.029144 -0.00233055 0)
(0.0295845 -0.00219919 0)
(0.0300045 -0.00208213 0)
(0.0304081 -0.00198058 0)
(0.0307981 -0.00187645 0)
(0.0311719 -0.00176271 0)
(0.0315402 -0.0016432 0)
(0.0319274 -0.00151616 0)
(0.0323256 -0.00137334 0)
(0.0327379 -0.00120993 0)
(0.0331445 -0.00101388 0)
(0.0335758 -0.000786755 0)
(0.0222297 -0.00442125 0)
(0.0232423 -0.00413606 0)
(0.024104 -0.00388591 0)
(0.0248451 -0.00369701 0)
(0.0255078 -0.00352476 0)
(0.0261121 -0.00336815 0)
(0.0266526 -0.00321135 0)
(0.0271765 -0.00305533 0)
(0.027697 -0.00290037 0)
(0.0281984 -0.00275398 0)
(0.0286727 -0.00262729 0)
(0.0291259 -0.002512 0)
(0.0295632 -0.00238856 0)
(0.029989 -0.00225286 0)
(0.0304246 -0.00210843 0)
(0.0308752 -0.00195508 0)
(0.0313293 -0.00178483 0)
(0.0317884 -0.00159283 0)
(0.0322321 -0.00136727 0)
(0.0326966 -0.0011091 0)
(0.0197909 -0.00559364 0)
(0.0209418 -0.00517046 0)
(0.0219171 -0.00482422 0)
(0.0227539 -0.00455986 0)
(0.0235202 -0.00432091 0)
(0.0241953 -0.00410562 0)
(0.0248363 -0.00390623 0)
(0.0254539 -0.00371221 0)
(0.0260473 -0.00353239 0)
(0.0266065 -0.00337344 0)
(0.027133 -0.0032336 0)
(0.0276468 -0.00309825 0)
(0.0281589 -0.0029509 0)
(0.02867 -0.00279124 0)
(0.0291968 -0.00262375 0)
(0.0297232 -0.00244779 0)
(0.0302392 -0.00225433 0)
(0.0307592 -0.0020393 0)
(0.0312475 -0.0017922 0)
(0.0317413 -0.00151081 0)
(0.0172325 -0.00688021 0)
(0.0184538 -0.00629216 0)
(0.0195143 -0.00583614 0)
(0.0204311 -0.00547495 0)
(0.0212785 -0.00515641 0)
(0.0220428 -0.00488578 0)
(0.0227737 -0.00464418 0)
(0.0234772 -0.00442024 0)
(0.0241514 -0.00422326 0)
(0.0247893 -0.00405132 0)
(0.0254001 -0.00389393 0)
(0.026007 -0.00373675 0)
(0.0266171 -0.00356883 0)
(0.0272319 -0.0033914 0)
(0.027864 -0.00320768 0)
(0.0284806 -0.00301556 0)
(0.0290732 -0.00280476 0)
(0.029655 -0.00257342 0)
(0.0302057 -0.0023146 0)
(0.0307415 -0.0020198 0)
(0.0146661 -0.00814581 0)
(0.0158753 -0.00731673 0)
(0.0169628 -0.00676392 0)
(0.0179448 -0.00632756 0)
(0.0188542 -0.00597396 0)
(0.0197195 -0.00567382 0)
(0.020554 -0.0054045 0)
(0.0213646 -0.00516311 0)
(0.0221419 -0.00495601 0)
(0.0228776 -0.00477308 0)
(0.0235898 -0.00460131 0)
(0.0243063 -0.00442928 0)
(0.0250279 -0.00424943 0)
(0.0257536 -0.00406275 0)
(0.0264873 -0.00387042 0)
(0.0271896 -0.00366926 0)
(0.0278722 -0.00345157 0)
(0.0285254 -0.00321189 0)
(0.029152 -0.00294713 0)
(0.029746 -0.00263782 0)
(0.0130168 -0.00928607 0)
(0.0139066 -0.0084447 0)
(0.0149403 -0.0078324 0)
(0.0159895 -0.00731886 0)
(0.0169913 -0.00691109 0)
(0.0179522 -0.00656235 0)
(0.0188781 -0.00625676 0)
(0.019775 -0.00599213 0)
(0.0206271 -0.00576537 0)
(0.0214303 -0.00556095 0)
(0.0222142 -0.00536796 0)
(0.0230059 -0.00517833 0)
(0.0237958 -0.00498466 0)
(0.0245858 -0.00478653 0)
(0.0253757 -0.00458438 0)
(0.0261205 -0.00437282 0)
(0.0268515 -0.00415076 0)
(0.0275478 -0.00390393 0)
(0.028223 -0.00362951 0)
(0.0288551 -0.00329402 0)
(0.0119785 -0.0103918 0)
(0.0129406 -0.00956513 0)
(0.0139354 -0.00892839 0)
(0.0149591 -0.00838038 0)
(0.0159727 -0.00792593 0)
(0.0169545 -0.00753528 0)
(0.0179089 -0.00719541 0)
(0.0188294 -0.0069009 0)
(0.0196982 -0.00664323 0)
(0.0205184 -0.00640798 0)
(0.021325 -0.00618754 0)
(0.0221379 -0.00597446 0)
(0.0229389 -0.00575985 0)
(0.0237355 -0.00554225 0)
(0.0245275 -0.00532273 0)
(0.0252727 -0.00509409 0)
(0.0260075 -0.00486041 0)
(0.0267094 -0.00459979 0)
(0.027395 -0.00430442 0)
(0.0280352 -0.00393612 0)
(0.0110182 -0.0114387 0)
(0.0120147 -0.0106006 0)
(0.0130393 -0.00996447 0)
(0.0140798 -0.00940322 0)
(0.0151019 -0.0089238 0)
(0.0160971 -0.00850661 0)
(0.0170644 -0.00813929 0)
(0.0179902 -0.00781398 0)
(0.0188626 -0.00752344 0)
(0.0196913 -0.00725758 0)
(0.0205121 -0.00701082 0)
(0.0213351 -0.00677492 0)
(0.0221357 -0.00653978 0)
(0.0229281 -0.00630348 0)
(0.023712 -0.00606679 0)
(0.0244532 -0.00582103 0)
(0.0251904 -0.00557142 0)
(0.0258979 -0.00529295 0)
(0.0265928 -0.00497231 0)
(0.0272438 -0.0045813 0)
(0.0101288 -0.0125461 0)
(0.0111445 -0.0116958 0)
(0.012177 -0.0110236 0)
(0.0132331 -0.0104293 0)
(0.0142572 -0.00991862 0)
(0.0152595 -0.00947043 0)
(0.0162293 -0.00907287 0)
(0.0171578 -0.00871568 0)
(0.0180373 -0.00839284 0)
(0.018878 -0.00809814 0)
(0.0197131 -0.00782753 0)
(0.0205441 -0.00757154 0)
(0.0213427 -0.00731903 0)
(0.0221319 -0.00706791 0)
(0.0229099 -0.00681667 0)
(0.0236486 -0.00655497 0)
(0.02439 -0.00628761 0)
(0.0251068 -0.00598979 0)
(0.0258117 -0.0056509 0)
(0.0264755 -0.00525918 0)
(0.00933898 -0.0136151 0)
(0.0103512 -0.0127716 0)
(0.0113868 -0.0120793 0)
(0.0124345 -0.0114611 0)
(0.0134576 -0.0109221 0)
(0.0144587 -0.0104444 0)
(0.0154258 -0.0100167 0)
(0.0163605 -0.00962896 0)
(0.0172526 -0.00927692 0)
(0.0181068 -0.00895691 0)
(0.0189535 -0.00866517 0)
(0.0197881 -0.00839051 0)
(0.0205816 -0.00812122 0)
(0.0213657 -0.00785576 0)
(0.0221381 -0.00759006 0)
(0.0228785 -0.00731259 0)
(0.0236225 -0.00702631 0)
(0.024346 -0.00671152 0)
(0.0250593 -0.00636795 0)
(0.0257358 -0.00599019 0)
(0.0086553 -0.0146436 0)
(0.0096514 -0.0138143 0)
(0.0106773 -0.0131166 0)
(0.0117045 -0.0124844 0)
(0.0127209 -0.0119235 0)
(0.01371 -0.0114213 0)
(0.0146727 -0.0109673 0)
(0.0156169 -0.0105543 0)
(0.0165235 -0.0101787 0)
(0.0173888 -0.00983801 0)
(0.018242 -0.0095281 0)
(0.019075 -0.00923549 0)
(0.019861 -0.0089482 0)
(0.0206386 -0.00866568 0)
(0.0214017 -0.00838127 0)
(0.0221452 -0.00808741 0)
(0.0228913 -0.00778395 0)
(0.0236176 -0.00745956 0)
(0.0243389 -0.00712185 0)
(0.0250268 -0.00675079 0)
(0.00807945 -0.0156323 0)
(0.00905758 -0.0148273 0)
(0.0100514 -0.0141334 0)
(0.0110599 -0.0134934 0)
(0.012059 -0.0129177 0)
(0.0130288 -0.0123951 0)
(0.0139861 -0.0119186 0)
(0.0149374 -0.0114843 0)
(0.0158521 -0.0110881 0)
(0.0167209 -0.0107288 0)
(0.0175735 -0.0104016 0)
(0.0183995 -0.0100902 0)
(0.0191766 -0.0097829 0)
(0.0199497 -0.0094817 0)
(0.0207043 -0.00917636 0)
(0.0214484 -0.00886659 0)
(0.0221955 -0.00855182 0)
(0.022923 -0.00822593 0)
(0.0236525 -0.00789327 0)
(0.0243484 -0.00751215 0)
(0.00758112 -0.0165911 0)
(0.00854007 -0.0158118 0)
(0.00949908 -0.0151244 0)
(0.010488 -0.014481 0)
(0.0114626 -0.0138946 0)
(0.0124143 -0.0133538 0)
(0.0133649 -0.0128572 0)
(0.0143151 -0.0124038 0)
(0.0152267 -0.0119881 0)
(0.0160897 -0.011611 0)
(0.016936 -0.0112674 0)
(0.0177531 -0.0109383 0)
(0.0185229 -0.0106114 0)
(0.0192941 -0.0102932 0)
(0.0200455 -0.00997196 0)
(0.0207899 -0.00965248 0)
(0.0215379 -0.00933561 0)
(0.0222682 -0.00901225 0)
(0.0230047 -0.008677 0)
(0.0237065 -0.00829053 0)
(0.00713692 -0.0175245 0)
(0.00806635 -0.0167686 0)
(0.009001 -0.0160887 0)
(0.00996535 -0.0154452 0)
(0.0109186 -0.0148499 0)
(0.0118571 -0.0142937 0)
(0.0127973 -0.0137809 0)
(0.0137366 -0.0133124 0)
(0.0146349 -0.0128798 0)
(0.0154851 -0.0124865 0)
(0.0163221 -0.0121274 0)
(0.0171323 -0.0117824 0)
(0.0179008 -0.0114396 0)
(0.0186741 -0.0111085 0)
(0.0194272 -0.0107784 0)
(0.0201735 -0.0104566 0)
(0.0209238 -0.0101429 0)
(0.0216586 -0.00982016 0)
(0.0223984 -0.00947974 0)
(0.0231084 -0.00911387 0)
(0.00673758 -0.0184325 0)
(0.0076329 -0.0177008 0)
(0.00854539 -0.0170309 0)
(0.00948584 -0.0163905 0)
(0.0104256 -0.0157907 0)
(0.0113514 -0.0152255 0)
(0.0122745 -0.0147028 0)
(0.0131946 -0.0142249 0)
(0.0140735 -0.0137777 0)
(0.0149087 -0.0133675 0)
(0.015737 -0.0129901 0)
(0.0165434 -0.0126272 0)
(0.0173159 -0.0122696 0)
(0.0180954 -0.0119283 0)
(0.0188524 -0.0115927 0)
(0.0196015 -0.0112701 0)
(0.0203544 -0.0109562 0)
(0.0210917 -0.010631 0)
(0.0218322 -0.0102959 0)
(0.0225498 -0.00995806 0)
(0.00636903 -0.0193144 0)
(0.007237 -0.0186087 0)
(0.00812745 -0.0179528 0)
(0.0090537 -0.017321 0)
(0.00998389 -0.0167237 0)
(0.0108924 -0.0161559 0)
(0.0117922 -0.0156267 0)
(0.0126891 -0.0151401 0)
(0.0135473 -0.0146773 0)
(0.0143687 -0.0142466 0)
(0.0151907 -0.0138467 0)
(0.0159959 -0.0134632 0)
(0.016774 -0.0130914 0)
(0.0175605 -0.0127422 0)
(0.0183219 -0.0124029 0)
(0.0190735 -0.012078 0)
(0.0198282 -0.0117601 0)
(0.0205642 -0.0114363 0)
(0.0213068 -0.0111229 0)
(0.022024 -0.0107926 0)
(0.00603029 -0.0201697 0)
(0.0068781 -0.0194907 0)
(0.00775424 -0.0188537 0)
(0.00867372 -0.0182353 0)
(0.00959064 -0.0176446 0)
(0.0104764 -0.0170747 0)
(0.0113502 -0.0165371 0)
(0.012224 -0.0160389 0)
(0.0130637 -0.0155614 0)
(0.0138741 -0.0151111 0)
(0.0146927 -0.014691 0)
(0.0154984 -0.0142908 0)
(0.0162806 -0.0139088 0)
(0.0170723 -0.0135554 0)
(0.0178373 -0.0132146 0)
(0.0185914 -0.0128876 0)
(0.0193467 -0.0125703 0)
(0.0200804 -0.012259 0)
(0.0208242 -0.0119685 0)
(0.0215365 -0.0116437 0)
(0.00573609 -0.0210007 0)
(0.00656684 -0.0203514 0)
(0.00743565 -0.0197351 0)
(0.00834425 -0.0191303 0)
(0.0092409 -0.018545 0)
(0.0101018 -0.0179723 0)
(0.0109514 -0.0174283 0)
(0.0118048 -0.0169175 0)
(0.012631 -0.0164304 0)
(0.0134345 -0.0159667 0)
(0.014252 -0.0155326 0)
(0.0150574 -0.0151204 0)
(0.0158392 -0.0147292 0)
(0.016631 -0.0143692 0)
(0.0173969 -0.0140234 0)
(0.018152 -0.013694 0)
(0.0189048 -0.0133842 0)
(0.0196355 -0.0130908 0)
(0.0203701 -0.0128042 0)
(0.0210798 -0.0125101 0)
(0.00549048 -0.0218158 0)
(0.00630739 -0.0211958 0)
(0.00716543 -0.0205963 0)
(0.0080534 -0.0200024 0)
(0.00892675 -0.0194235 0)
(0.00976584 -0.018851 0)
(0.0105983 -0.0183072 0)
(0.0114365 -0.0177847 0)
(0.0122544 -0.0172868 0)
(0.0130529 -0.0168103 0)
(0.0138661 -0.0163621 0)
(0.0146655 -0.0159366 0)
(0.0154417 -0.0155335 0)
(0.0162314 -0.0151632 0)
(0.0169971 -0.0148094 0)
(0.0177499 -0.0144799 0)
(0.0184946 -0.0141798 0)
(0.0192158 -0.0138975 0)
(0.0199381 -0.013611 0)
(0.0206447 -0.0133457 0)
(0.00528132 -0.0226188 0)
(0.00608607 -0.0220168 0)
(0.00692224 -0.0214306 0)
(0.00778511 -0.0208478 0)
(0.00863883 -0.0202778 0)
(0.00946194 -0.0197071 0)
(0.0102851 -0.0191627 0)
(0.0111152 -0.0186311 0)
(0.0119265 -0.0181197 0)
(0.0127197 -0.0176328 0)
(0.0135258 -0.0171775 0)
(0.0143171 -0.0167449 0)
(0.0150898 -0.0163334 0)
(0.0158805 -0.0159548 0)
(0.0166429 -0.0155963 0)
(0.0173835 -0.0152697 0)
(0.0181145 -0.0149745 0)
(0.0188222 -0.0146898 0)
(0.0195434 -0.0144292 0)
(0.0202489 -0.0141777 0)
(0.00509106 -0.0233977 0)
(0.00587863 -0.0228101 0)
(0.00668722 -0.0222389 0)
(0.00752855 -0.0216671 0)
(0.00836855 -0.0211005 0)
(0.00918295 -0.0205344 0)
(0.0100036 -0.0199887 0)
(0.0108361 -0.0194629 0)
(0.0116417 -0.0189488 0)
(0.0124227 -0.0184525 0)
(0.0132186 -0.0179869 0)
(0.0140065 -0.0175442 0)
(0.0147796 -0.0171226 0)
(0.0155667 -0.0167355 0)
(0.0163156 -0.0163737 0)
(0.0170376 -0.0160481 0)
(0.0177576 -0.0157511 0)
(0.0184609 -0.0154625 0)
(0.019183 -0.0152253 0)
(0.0198907 -0.0150077 0)
(0.00489863 -0.0241541 0)
(0.00566577 -0.023592 0)
(0.00645254 -0.0230292 0)
(0.0072808 -0.0224659 0)
(0.00811333 -0.0218999 0)
(0.00892992 -0.021342 0)
(0.00975011 -0.0207956 0)
(0.0105781 -0.0202701 0)
(0.011375 -0.0197551 0)
(0.0121489 -0.019255 0)
(0.0129441 -0.0187828 0)
(0.0137361 -0.0183299 0)
(0.0145072 -0.017897 0)
(0.0152778 -0.0175027 0)
(0.0160051 -0.0171394 0)
(0.0167186 -0.0168063 0)
(0.0174455 -0.0164976 0)
(0.018166 -0.0162273 0)
(0.0188678 -0.0159956 0)
(0.0195331 -0.0158064 0)
(0.00469675 -0.0249178 0)
(0.0054418 -0.0243676 0)
(0.00621951 -0.023803 0)
(0.00704745 -0.0232463 0)
(0.00788401 -0.0226916 0)
(0.00870121 -0.0221368 0)
(0.00951607 -0.021593 0)
(0.0103323 -0.0210679 0)
(0.0111218 -0.0205528 0)
(0.0119025 -0.0200497 0)
(0.0127117 -0.0195703 0)
(0.0135033 -0.01911 0)
(0.0142508 -0.0186709 0)
(0.0149957 -0.0182684 0)
(0.0157309 -0.0178939 0)
(0.0164775 -0.0175533 0)
(0.0171917 -0.017239 0)
(0.0178734 -0.0169771 0)
(0.0186016 -0.0167602 0)
(0.0193134 -0.016599 0)
(0.00448674 -0.0256863 0)
(0.00521774 -0.0251352 0)
(0.00600328 -0.0245751 0)
(0.00684036 -0.0240197 0)
(0.00767927 -0.023468 0)
(0.00848444 -0.0229165 0)
(0.00927894 -0.022375 0)
(0.010089 -0.0218475 0)
(0.010898 -0.0213287 0)
(0.0116999 -0.020822 0)
(0.0124968 -0.0203357 0)
(0.0132539 -0.0198646 0)
(0.0140031 -0.0194187 0)
(0.0147861 -0.0190138 0)
(0.0155198 -0.0186243 0)
(0.0162352 -0.0182676 0)
(0.0169684 -0.0179647 0)
(0.0176645 -0.0176853 0)
(0.0183921 -0.0174734 0)
(0.0191153 -0.0173398 0)
(0.00428351 -0.0264315 0)
(0.00501651 -0.0258986 0)
(0.00581989 -0.0253474 0)
(0.00666219 -0.0247985 0)
(0.00747562 -0.0242434 0)
(0.00825317 -0.02369 0)
(0.00905645 -0.0231534 0)
(0.0098994 -0.0226303 0)
(0.0107098 -0.0221043 0)
(0.0114792 -0.0215835 0)
(0.0122758 -0.0210937 0)
(0.0130669 -0.0206251 0)
(0.0138158 -0.0201656 0)
(0.0145875 -0.0197437 0)
(0.0153409 -0.0193529 0)
(0.0160554 -0.0189894 0)
(0.0167914 -0.0186851 0)
(0.0174992 -0.01839 0)
(0.0182266 -0.0181699 0)
(0.019009 -0.0180207 0)
(0.000447343 -0.0244603 0)
(0.001362 -0.0240443 0)
(0.00232367 -0.0232751 0)
(0.00339666 -0.0221346 0)
(0.00458951 -0.0206932 0)
(0.00589204 -0.0189814 0)
(0.00730877 -0.0170899 0)
(0.00882524 -0.0150793 0)
(0.0104725 -0.0130041 0)
(0.0121218 -0.010884 0)
(0.000379887 -0.024912 0)
(0.00116698 -0.0245189 0)
(0.0019891 -0.0237971 0)
(0.0029185 -0.0227306 0)
(0.00396898 -0.0213712 0)
(0.00511954 -0.0197523 0)
(0.00639457 -0.0179362 0)
(0.00775835 -0.0159921 0)
(0.00928195 -0.0139414 0)
(0.010795 -0.011885 0)
(0.000315809 -0.0253104 0)
(0.000984463 -0.0249454 0)
(0.00170044 -0.0242614 0)
(0.00250561 -0.0232471 0)
(0.00343578 -0.021958 0)
(0.00446785 -0.0204215 0)
(0.00563363 -0.0186897 0)
(0.00690238 -0.0168274 0)
(0.00833562 -0.0148472 0)
(0.00977597 -0.0128965 0)
(0.0002725 -0.0256683 0)
(0.000837821 -0.0253223 0)
(0.00147845 -0.0246731 0)
(0.00219155 -0.0237087 0)
(0.00302551 -0.0224911 0)
(0.00397106 -0.0210305 0)
(0.00504417 -0.0193885 0)
(0.00622453 -0.0176207 0)
(0.00755232 -0.0157483 0)
(0.00890384 -0.0139157 0)
(0.000243077 -0.0259972 0)
(0.000732686 -0.025677 0)
(0.00130155 -0.0250645 0)
(0.00193799 -0.0241566 0)
(0.00268965 -0.0230048 0)
(0.0035554 -0.0216333 0)
(0.00455239 -0.0200971 0)
(0.00565007 -0.0184231 0)
(0.00688335 -0.0166496 0)
(0.00816025 -0.0149113 0)
(0.000207301 -0.0263071 0)
(0.000648819 -0.0260114 0)
(0.00115312 -0.0254293 0)
(0.00173427 -0.0245859 0)
(0.00242488 -0.0235013 0)
(0.00322404 -0.0222187 0)
(0.00414765 -0.020781 0)
(0.00517037 -0.0191943 0)
(0.00632119 -0.0175121 0)
(0.00753281 -0.0158692 0)
(0.000181352 -0.0266025 0)
(0.000577479 -0.0263289 0)
(0.00102787 -0.0257852 0)
(0.00157275 -0.0250007 0)
(0.002207 -0.0239833 0)
(0.00295349 -0.0227817 0)
(0.00381973 -0.02143 0)
(0.00477908 -0.0199281 0)
(0.00585816 -0.0183392 0)
(0.00700717 -0.016794 0)
(0.000173656 -0.0268844 0)
(0.000519145 -0.0266296 0)
(0.000930445 -0.0261294 0)
(0.00145194 -0.0253954 0)
(0.00203947 -0.0244453 0)
(0.00273389 -0.0233122 0)
(0.00355323 -0.0220418 0)
(0.00446062 -0.0206339 0)
(0.0054716 -0.0191462 0)
(0.00655476 -0.0176949 0)
(0.000159959 -0.0271533 0)
(0.000468011 -0.0269174 0)
(0.000860093 -0.0264555 0)
(0.00135592 -0.0257682 0)
(0.00191212 -0.0248905 0)
(0.00256281 -0.0238221 0)
(0.00332875 -0.0226317 0)
(0.00418112 -0.0213255 0)
(0.00512734 -0.019941 0)
(0.00614875 -0.0185759 0)
(0.000134528 -0.0274219 0)
(0.00043113 -0.0272036 0)
(0.000815347 -0.0267754 0)
(0.00127882 -0.026133 0)
(0.00180509 -0.0253244 0)
(0.00241911 -0.0243227 0)
(0.00312517 -0.0232126 0)
(0.00391866 -0.0220054 0)
(0.00480797 -0.0207161 0)
(0.00577574 -0.0194316 0)
(0.000118361 -0.0277011 0)
(0.000417385 -0.0274958 0)
(0.000783756 -0.0271005 0)
(0.00121605 -0.0264992 0)
(0.00170975 -0.0257468 0)
(0.00228731 -0.0248131 0)
(0.00293691 -0.0237834 0)
(0.00367609 -0.0226658 0)
(0.0045164 -0.0214609 0)
(0.00543401 -0.0202572 0)
(0.000119108 -0.0279876 0)
(0.000414329 -0.0277928 0)
(0.000748487 -0.0274297 0)
(0.00116047 -0.0268625 0)
(0.00162692 -0.0261566 0)
(0.0021658 -0.0252923 0)
(0.00276732 -0.0243403 0)
(0.00346123 -0.0233016 0)
(0.00425756 -0.0221777 0)
(0.00512828 -0.0210577 0)
(0.000121263 -0.0282755 0)
(0.00039883 -0.0280905 0)
(0.00070177 -0.027757 0)
(0.00110384 -0.0272203 0)
(0.0015503 -0.0265603 0)
(0.00205098 -0.0257663 0)
(0.00261371 -0.024885 0)
(0.00327241 -0.023917 0)
(0.00403238 -0.0228783 0)
(0.00486723 -0.0218399 0)
(0.000110379 -0.0285672 0)
(0.000362872 -0.0283895 0)
(0.000648516 -0.0280839 0)
(0.0010417 -0.02758 0)
(0.00146992 -0.026969 0)
(0.00193866 -0.026239 0)
(0.00247394 -0.0254185 0)
(0.00310793 -0.0245184 0)
(0.00384292 -0.023565 0)
(0.00465239 -0.0226015 0)
(8.97943e-05 -0.0288701 0)
(0.000319772 -0.0286962 0)
(0.00059985 -0.0284174 0)
(0.000977573 -0.0279499 0)
(0.00138628 -0.0273863 0)
(0.00183231 -0.0267097 0)
(0.00235011 -0.0259437 0)
(0.00296762 -0.0251129 0)
(0.00368282 -0.0242349 0)
(0.00446842 -0.0233461 0)
(7.24866e-05 -0.0291889 0)
(0.000286644 -0.0290152 0)
(0.000561891 -0.0287622 0)
(0.000915836 -0.0283335 0)
(0.00130369 -0.0278105 0)
(0.00173351 -0.027181 0)
(0.00223879 -0.0264726 0)
(0.00284408 -0.0257105 0)
(0.00353666 -0.0248964 0)
(0.00429809 -0.0240843 0)
(6.5363e-05 -0.029522 0)
(0.000266236 -0.0293477 0)
(0.000527278 -0.0291184 0)
(0.000851964 -0.0287329 0)
(0.00121991 -0.0282484 0)
(0.00163679 -0.0276602 0)
(0.00212934 -0.0270073 0)
(0.00271764 -0.0263048 0)
(0.00338528 -0.0255546 0)
(0.00411871 -0.0248076 0)
(6.35598e-05 -0.0298664 0)
(0.000245831 -0.0296981 0)
(0.00048264 -0.0294889 0)
(0.000777821 -0.0291406 0)
(0.00112503 -0.0286926 0)
(0.0015277 -0.028147 0)
(0.0020054 -0.027544 0)
(0.0025692 -0.0268937 0)
(0.00321532 -0.0262162 0)
(0.00392254 -0.0255251 0)
(5.79647e-05 -0.0302201 0)
(0.00021214 -0.030071 0)
(0.000419189 -0.0298719 0)
(0.000689021 -0.029557 0)
(0.00101562 -0.0291468 0)
(0.00139989 -0.0286485 0)
(0.00186053 -0.0280939 0)
(0.00240694 -0.0275007 0)
(0.00303172 -0.0268807 0)
(0.0037181 -0.0262518 0)
(4.40615e-05 -0.0305842 0)
(0.000164563 -0.0304637 0)
(0.000342934 -0.0302714 0)
(0.000585451 -0.0299774 0)
(0.000887268 -0.029599 0)
(0.00125379 -0.0291486 0)
(0.00170192 -0.0286434 0)
(0.00224692 -0.0281185 0)
(0.0028558 -0.0275485 0)
(0.00352988 -0.0269683 0)
)


// ************************************************************************* //
