/*--------------------------------*- C++ -*----------------------------------*\
| =========                 |                                                 |
| \\      /  F ield         | foam-extend: Open Source CFD                    |
|  \\    /   O peration     | Version:     4.1                                |
|   \\  /    A nd           | Web:         http://www.foam-extend.org         |
|    \\/     M anipulation  |                                                 |
\*---------------------------------------------------------------------------*/
FoamFile
{
    version     2.0;
    format      ascii;
    class       vectorField;
    location    "2";
    object      solidsCellD_iteration3;
}
// * * * * * * * * * * * * * * * * * * * * * * * * * * * * * * * * * * * * * //


1000
(
(8.63139e-07 -2.79852e-07 0)
(8.25734e-07 -2.65152e-07 0)
(8.03627e-07 -2.57746e-07 0)
(7.93043e-07 -2.56747e-07 0)
(7.90488e-07 -2.59546e-07 0)
(7.93877e-07 -2.65265e-07 0)
(8.0165e-07 -2.72987e-07 0)
(8.12641e-07 -2.82344e-07 0)
(8.25968e-07 -2.92853e-07 0)
(8.39397e-07 -3.04904e-07 0)
(7.82237e-07 -3.05872e-07 0)
(7.42188e-07 -2.97562e-07 0)
(7.18131e-07 -2.94386e-07 0)
(7.05989e-07 -2.96344e-07 0)
(7.02046e-07 -3.01183e-07 0)
(7.03883e-07 -3.08427e-07 0)
(7.09947e-07 -3.17293e-07 0)
(7.19017e-07 -3.27469e-07 0)
(7.30238e-07 -3.38509e-07 0)
(7.42042e-07 -3.50634e-07 0)
(6.97485e-07 -3.30486e-07 0)
(6.56427e-07 -3.29312e-07 0)
(6.31614e-07 -3.30685e-07 0)
(6.18511e-07 -3.35768e-07 0)
(6.13527e-07 -3.42681e-07 0)
(6.14175e-07 -3.5135e-07 0)
(6.18877e-07 -3.61166e-07 0)
(6.26524e-07 -3.71881e-07 0)
(6.36249e-07 -3.83177e-07 0)
(6.46876e-07 -3.95173e-07 0)
(6.09746e-07 -3.53255e-07 0)
(5.69424e-07 -3.59504e-07 0)
(5.44955e-07 -3.65571e-07 0)
(5.31643e-07 -3.73798e-07 0)
(5.26035e-07 -3.82786e-07 0)
(5.25833e-07 -3.92819e-07 0)
(5.2947e-07 -4.03489e-07 0)
(5.35921e-07 -4.14701e-07 0)
(5.44389e-07 -4.26292e-07 0)
(5.53885e-07 -4.38272e-07 0)
(5.19604e-07 -3.73718e-07 0)
(4.8178e-07 -3.87275e-07 0)
(4.58686e-07 -3.97992e-07 0)
(4.45915e-07 -4.09291e-07 0)
(4.40256e-07 -4.20228e-07 0)
(4.39516e-07 -4.31546e-07 0)
(4.423e-07 -4.43039e-07 0)
(4.47626e-07 -4.54747e-07 0)
(4.54881e-07 -4.66632e-07 0)
(4.63158e-07 -4.78694e-07 0)
(4.27551e-07 -3.91474e-07 0)
(3.93852e-07 -4.11841e-07 0)
(3.73235e-07 -4.26855e-07 0)
(3.61715e-07 -4.41007e-07 0)
(3.56449e-07 -4.53791e-07 0)
(3.55405e-07 -4.66322e-07 0)
(3.57491e-07 -4.78545e-07 0)
(3.61817e-07 -4.90721e-07 0)
(3.67852e-07 -5.02911e-07 0)
(3.74801e-07 -5.15129e-07 0)
(3.34001e-07 -4.06129e-07 0)
(3.06019e-07 -4.32441e-07 0)
(2.88859e-07 -4.51236e-07 0)
(2.79177e-07 -4.67882e-07 0)
(2.74629e-07 -4.82262e-07 0)
(2.73559e-07 -4.95854e-07 0)
(2.75079e-07 -5.08735e-07 0)
(2.7844e-07 -5.21351e-07 0)
(2.83205e-07 -5.33832e-07 0)
(2.88718e-07 -5.46239e-07 0)
(2.39335e-07 -4.17397e-07 0)
(2.18367e-07 -4.48481e-07 0)
(2.05488e-07 -4.70317e-07 0)
(1.98208e-07 -4.88938e-07 0)
(1.94695e-07 -5.04601e-07 0)
(1.93779e-07 -5.19032e-07 0)
(1.94807e-07 -5.32466e-07 0)
(1.97212e-07 -5.45448e-07 0)
(2.00658e-07 -5.58155e-07 0)
(2.0464e-07 -5.70704e-07 0)
(1.43926e-07 -4.25044e-07 0)
(1.30965e-07 -4.59455e-07 0)
(1.2298e-07 -4.83411e-07 0)
(1.18407e-07 -5.03453e-07 0)
(1.16168e-07 -5.20015e-07 0)
(1.15588e-07 -5.35032e-07 0)
(1.16215e-07 -5.48859e-07 0)
(1.17647e-07 -5.62123e-07 0)
(1.19696e-07 -5.75036e-07 0)
(1.22094e-07 -5.87742e-07 0)
(4.80872e-08 -4.289e-07 0)
(4.3658e-08 -4.65012e-07 0)
(4.0938e-08 -4.90073e-07 0)
(3.9411e-08 -5.10838e-07 0)
(3.86626e-08 -5.27844e-07 0)
(3.84356e-08 -5.43152e-07 0)
(3.8623e-08 -5.57161e-07 0)
(3.9106e-08 -5.7054e-07 0)
(3.97923e-08 -5.83526e-07 0)
(4.05832e-08 -5.96279e-07 0)
(1.32566e-06 -1.26794e-08 0)
(1.33611e-06 -9.31188e-09 0)
(1.34474e-06 -7.26824e-09 0)
(1.35504e-06 -6.17089e-09 0)
(1.36708e-06 -5.68057e-09 0)
(1.38153e-06 -5.58631e-09 0)
(1.39829e-06 -5.74734e-09 0)
(1.41727e-06 -6.10371e-09 0)
(1.43841e-06 -6.58767e-09 0)
(1.46148e-06 -7.10707e-09 0)
(1.31638e-06 -3.80481e-08 0)
(1.3252e-06 -2.81569e-08 0)
(1.33285e-06 -2.21838e-08 0)
(1.34247e-06 -1.89886e-08 0)
(1.35406e-06 -1.75551e-08 0)
(1.36816e-06 -1.73074e-08 0)
(1.3847e-06 -1.78383e-08 0)
(1.40351e-06 -1.8905e-08 0)
(1.4245e-06 -2.03293e-08 0)
(1.44741e-06 -2.18913e-08 0)
(1.29771e-06 -6.36502e-08 0)
(1.30349e-06 -4.78219e-08 0)
(1.30924e-06 -3.82899e-08 0)
(1.31764e-06 -3.32093e-08 0)
(1.32839e-06 -3.09662e-08 0)
(1.34193e-06 -3.06403e-08 0)
(1.35803e-06 -3.1563e-08 0)
(1.37646e-06 -3.33386e-08 0)
(1.39714e-06 -3.57089e-08 0)
(1.41977e-06 -3.83237e-08 0)
(1.27e-06 -8.96019e-08 0)
(1.27151e-06 -6.87451e-08 0)
(1.2745e-06 -5.62524e-08 0)
(1.28115e-06 -4.96565e-08 0)
(1.2907e-06 -4.67986e-08 0)
(1.30333e-06 -4.64907e-08 0)
(1.31879e-06 -4.78681e-08 0)
(1.33677e-06 -5.03958e-08 0)
(1.35703e-06 -5.37256e-08 0)
(1.37932e-06 -5.73731e-08 0)
(1.23357e-06 -1.16015e-07 0)
(1.22984e-06 -9.13349e-08 0)
(1.22944e-06 -7.66289e-08 0)
(1.23381e-06 -6.89944e-08 0)
(1.2419e-06 -6.58019e-08 0)
(1.25349e-06 -6.56722e-08 0)
(1.26816e-06 -6.75897e-08 0)
(1.28554e-06 -7.08911e-08 0)
(1.30528e-06 -7.51596e-08 0)
(1.32715e-06 -7.98099e-08 0)
(1.18895e-06 -1.42903e-07 0)
(1.17921e-06 -1.15859e-07 0)
(1.17497e-06 -9.9818e-08 0)
(1.17679e-06 -9.17121e-08 0)
(1.1832e-06 -8.85415e-08 0)
(1.19362e-06 -8.87881e-08 0)
(1.2074e-06 -9.13128e-08 0)
(1.22409e-06 -9.53881e-08 0)
(1.24327e-06 -1.00563e-07 0)
(1.26477e-06 -1.06186e-07 0)
(1.13663e-06 -1.70187e-07 0)
(1.12056e-06 -1.42415e-07 0)
(1.11229e-06 -1.26052e-07 0)
(1.1114e-06 -1.18104e-07 0)
(1.11599e-06 -1.15336e-07 0)
(1.12513e-06 -1.16164e-07 0)
(1.13797e-06 -1.19381e-07 0)
(1.1539e-06 -1.24255e-07 0)
(1.17247e-06 -1.30332e-07 0)
(1.19367e-06 -1.36899e-07 0)
(1.07722e-06 -1.97742e-07 0)
(1.05485e-06 -1.70945e-07 0)
(1.04253e-06 -1.55334e-07 0)
(1.03891e-06 -1.48192e-07 0)
(1.04162e-06 -1.46225e-07 0)
(1.04946e-06 -1.47864e-07 0)
(1.06133e-06 -1.5188e-07 0)
(1.07651e-06 -1.57586e-07 0)
(1.09451e-06 -1.64538e-07 0)
(1.11547e-06 -1.72004e-07 0)
(1.01139e-06 -2.25383e-07 0)
(9.83091e-07 -2.01211e-07 0)
(9.67042e-07 -1.87409e-07 0)
(9.60834e-07 -1.81732e-07 0)
(9.61728e-07 -1.80975e-07 0)
(9.6819e-07 -1.83691e-07 0)
(9.79001e-07 -1.88674e-07 0)
(9.93349e-07 -1.9527e-07 0)
(1.01059e-06 -2.03095e-07 0)
(1.03121e-06 -2.11338e-07 0)
(9.39827e-07 -2.52829e-07 0)
(9.06363e-07 -2.32771e-07 0)
(8.86987e-07 -2.2177e-07 0)
(8.78447e-07 -2.18198e-07 0)
(8.77605e-07 -2.19057e-07 0)
(8.82613e-07 -2.2315e-07 0)
(8.92216e-07 -2.29367e-07 0)
(9.05578e-07 -2.37154e-07 0)
(9.22032e-07 -2.46143e-07 0)
(9.41811e-07 -2.557e-07 0)
(1.48624e-06 -7.60201e-09 0)
(1.51309e-06 -7.86666e-09 0)
(1.54152e-06 -8.11023e-09 0)
(1.5714e-06 -8.3178e-09 0)
(1.60255e-06 -8.48255e-09 0)
(1.63491e-06 -8.60266e-09 0)
(1.66841e-06 -8.68581e-09 0)
(1.70291e-06 -8.74656e-09 0)
(1.73825e-06 -8.77968e-09 0)
(1.77437e-06 -8.76774e-09 0)
(1.81122e-06 -8.6976e-09 0)
(1.8487e-06 -8.57201e-09 0)
(1.88671e-06 -8.39839e-09 0)
(1.92518e-06 -8.1761e-09 0)
(1.96406e-06 -7.89519e-09 0)
(2.00322e-06 -7.54544e-09 0)
(2.04262e-06 -7.11815e-09 0)
(2.0821e-06 -6.60357e-09 0)
(2.12163e-06 -5.99316e-09 0)
(2.1609e-06 -5.29167e-09 0)
(1.47275e-06 -2.33436e-08 0)
(1.50065e-06 -2.40777e-08 0)
(1.53004e-06 -2.47406e-08 0)
(1.56077e-06 -2.52962e-08 0)
(1.59274e-06 -2.57378e-08 0)
(1.62585e-06 -2.60741e-08 0)
(1.66e-06 -2.63087e-08 0)
(1.69509e-06 -2.64526e-08 0)
(1.73101e-06 -2.6488e-08 0)
(1.76766e-06 -2.63963e-08 0)
(1.80499e-06 -2.61633e-08 0)
(1.84292e-06 -2.57885e-08 0)
(1.88138e-06 -2.52697e-08 0)
(1.92029e-06 -2.45926e-08 0)
(1.95956e-06 -2.37337e-08 0)
(1.99908e-06 -2.26736e-08 0)
(2.0388e-06 -2.13882e-08 0)
(2.07858e-06 -1.98516e-08 0)
(2.11845e-06 -1.80366e-08 0)
(2.1581e-06 -1.59443e-08 0)
(1.4462e-06 -4.05615e-08 0)
(1.47618e-06 -4.15224e-08 0)
(1.50753e-06 -4.23834e-08 0)
(1.53996e-06 -4.31256e-08 0)
(1.57345e-06 -4.37208e-08 0)
(1.60795e-06 -4.41815e-08 0)
(1.64344e-06 -4.44913e-08 0)
(1.67977e-06 -4.46502e-08 0)
(1.7168e-06 -4.46281e-08 0)
(1.75448e-06 -4.4411e-08 0)
(1.79279e-06 -4.39847e-08 0)
(1.83166e-06 -4.33391e-08 0)
(1.87101e-06 -4.24547e-08 0)
(1.91074e-06 -4.13027e-08 0)
(1.95079e-06 -3.98498e-08 0)
(1.99108e-06 -3.80654e-08 0)
(2.03152e-06 -3.59091e-08 0)
(2.07199e-06 -3.33504e-08 0)
(2.11252e-06 -3.03462e-08 0)
(2.15279e-06 -2.68875e-08 0)
(1.40735e-06 -6.00927e-08 0)
(1.44031e-06 -6.08928e-08 0)
(1.47443e-06 -6.16189e-08 0)
(1.50936e-06 -6.23127e-08 0)
(1.54517e-06 -6.2872e-08 0)
(1.58178e-06 -6.33007e-08 0)
(1.61917e-06 -6.35513e-08 0)
(1.65723e-06 -6.36155e-08 0)
(1.69591e-06 -6.3456e-08 0)
(1.73515e-06 -6.30558e-08 0)
(1.77494e-06 -6.23888e-08 0)
(1.81518e-06 -6.14272e-08 0)
(1.8558e-06 -6.01348e-08 0)
(1.89672e-06 -5.84758e-08 0)
(1.93789e-06 -5.64129e-08 0)
(1.97928e-06 -5.38956e-08 0)
(2.02078e-06 -5.08683e-08 0)
(2.0623e-06 -4.72959e-08 0)
(2.10384e-06 -4.31151e-08 0)
(2.14505e-06 -3.83165e-08 0)
(1.3572e-06 -8.26564e-08 0)
(1.39396e-06 -8.28366e-08 0)
(1.43171e-06 -8.30197e-08 0)
(1.46986e-06 -8.33563e-08 0)
(1.50863e-06 -8.36191e-08 0)
(1.54793e-06 -8.38058e-08 0)
(1.58783e-06 -8.38354e-08 0)
(1.62819e-06 -8.36783e-08 0)
(1.66902e-06 -8.32844e-08 0)
(1.71028e-06 -8.26195e-08 0)
(1.75192e-06 -8.1636e-08 0)
(1.79389e-06 -8.02897e-08 0)
(1.83614e-06 -7.8534e-08 0)
(1.87862e-06 -7.63271e-08 0)
(1.92131e-06 -7.36225e-08 0)
(1.96409e-06 -7.03543e-08 0)
(2.00698e-06 -6.64567e-08 0)
(2.04977e-06 -6.18827e-08 0)
(2.09261e-06 -5.65476e-08 0)
(2.13506e-06 -5.04318e-08 0)
(1.29721e-06 -1.08775e-07 0)
(1.33841e-06 -1.07812e-07 0)
(1.38042e-06 -1.0697e-07 0)
(1.42239e-06 -1.06575e-07 0)
(1.46473e-06 -1.06243e-07 0)
(1.50731e-06 -1.05957e-07 0)
(1.55025e-06 -1.05581e-07 0)
(1.59341e-06 -1.05046e-07 0)
(1.6368e-06 -1.04279e-07 0)
(1.68042e-06 -1.03233e-07 0)
(1.72429e-06 -1.01842e-07 0)
(1.76837e-06 -1.00042e-07 0)
(1.81259e-06 -9.77736e-08 0)
(1.85693e-06 -9.49861e-08 0)
(1.90141e-06 -9.16131e-08 0)
(1.94586e-06 -8.75783e-08 0)
(1.99038e-06 -8.28103e-08 0)
(2.03473e-06 -7.72464e-08 0)
(2.07911e-06 -7.07754e-08 0)
(2.12308e-06 -6.33492e-08 0)
(1.22885e-06 -1.38834e-07 0)
(1.27504e-06 -1.3617e-07 0)
(1.32195e-06 -1.33807e-07 0)
(1.36831e-06 -1.32274e-07 0)
(1.41475e-06 -1.31016e-07 0)
(1.46106e-06 -1.29986e-07 0)
(1.50738e-06 -1.28975e-07 0)
(1.55366e-06 -1.2788e-07 0)
(1.59997e-06 -1.26599e-07 0)
(1.64633e-06 -1.2505e-07 0)
(1.69274e-06 -1.2315e-07 0)
(1.73919e-06 -1.20814e-07 0)
(1.78565e-06 -1.17969e-07 0)
(1.83211e-06 -1.14553e-07 0)
(1.87856e-06 -1.10479e-07 0)
(1.92493e-06 -1.05664e-07 0)
(1.97131e-06 -1.00023e-07 0)
(2.01748e-06 -9.34703e-08 0)
(2.06363e-06 -8.58541e-08 0)
(2.10933e-06 -7.71046e-08 0)
(1.15363e-06 -1.72914e-07 0)
(1.20528e-06 -1.67938e-07 0)
(1.25753e-06 -1.63562e-07 0)
(1.30877e-06 -1.60445e-07 0)
(1.35969e-06 -1.57903e-07 0)
(1.41014e-06 -1.55809e-07 0)
(1.46023e-06 -1.53903e-07 0)
(1.50999e-06 -1.5204e-07 0)
(1.55952e-06 -1.50079e-07 0)
(1.60887e-06 -1.47899e-07 0)
(1.65807e-06 -1.45388e-07 0)
(1.70709e-06 -1.42442e-07 0)
(1.75594e-06 -1.38974e-07 0)
(1.80468e-06 -1.34904e-07 0)
(1.85329e-06 -1.30125e-07 0)
(1.90177e-06 -1.24538e-07 0)
(1.95019e-06 -1.18034e-07 0)
(1.99834e-06 -1.10492e-07 0)
(2.04644e-06 -1.01723e-07 0)
(2.09408e-06 -9.16456e-08 0)
(1.07295e-06 -2.11078e-07 0)
(1.13069e-06 -2.0318e-07 0)
(1.18871e-06 -1.9642e-07 0)
(1.24525e-06 -1.91291e-07 0)
(1.301e-06 -1.87141e-07 0)
(1.35585e-06 -1.83668e-07 0)
(1.40997e-06 -1.80599e-07 0)
(1.46342e-06 -1.77731e-07 0)
(1.51635e-06 -1.74885e-07 0)
(1.56882e-06 -1.719e-07 0)
(1.62091e-06 -1.68639e-07 0)
(1.67262e-06 -1.6498e-07 0)
(1.724e-06 -1.6082e-07 0)
(1.77516e-06 -1.56053e-07 0)
(1.82605e-06 -1.50544e-07 0)
(1.87674e-06 -1.44175e-07 0)
(1.92731e-06 -1.36803e-07 0)
(1.97756e-06 -1.28271e-07 0)
(2.02772e-06 -1.18354e-07 0)
(2.07745e-06 -1.06974e-07 0)
(9.88346e-07 -2.53467e-07 0)
(1.05346e-06 -2.41516e-07 0)
(1.11776e-06 -2.31913e-07 0)
(1.18003e-06 -2.24269e-07 0)
(1.24081e-06 -2.18051e-07 0)
(1.30021e-06 -2.12829e-07 0)
(1.35841e-06 -2.08308e-07 0)
(1.4156e-06 -2.04214e-07 0)
(1.47193e-06 -2.00315e-07 0)
(1.52756e-06 -1.96409e-07 0)
(1.58256e-06 -1.92325e-07 0)
(1.63697e-06 -1.87914e-07 0)
(1.69089e-06 -1.83044e-07 0)
(1.74445e-06 -1.7758e-07 0)
(1.79761e-06 -1.7136e-07 0)
(1.85052e-06 -1.64243e-07 0)
(1.90319e-06 -1.5605e-07 0)
(1.95554e-06 -1.4659e-07 0)
(2.00777e-06 -1.35607e-07 0)
(2.05965e-06 -1.23005e-07 0)
(9.19915e-07 -2.98587e-07 0)
(9.93242e-07 -2.81271e-07 0)
(1.06283e-06 -2.68698e-07 0)
(1.12954e-06 -2.58525e-07 0)
(1.19398e-06 -2.50165e-07 0)
(1.2566e-06 -2.43101e-07 0)
(1.31769e-06 -2.36967e-07 0)
(1.37748e-06 -2.31445e-07 0)
(1.43621e-06 -2.26267e-07 0)
(1.49404e-06 -2.21212e-07 0)
(1.55105e-06 -2.16086e-07 0)
(1.60731e-06 -2.10721e-07 0)
(1.66297e-06 -2.04962e-07 0)
(1.71814e-06 -1.98652e-07 0)
(1.7728e-06 -1.91611e-07 0)
(1.82713e-06 -1.83682e-07 0)
(1.88112e-06 -1.74666e-07 0)
(1.93477e-06 -1.64365e-07 0)
(1.98825e-06 -1.52516e-07 0)
(2.04147e-06 -1.3898e-07 0)
(8.83325e-07 -3.36998e-07 0)
(9.57038e-07 -3.18481e-07 0)
(1.02765e-06 -3.03829e-07 0)
(1.09589e-06 -2.91697e-07 0)
(1.16192e-06 -2.81545e-07 0)
(1.2261e-06 -2.7286e-07 0)
(1.28867e-06 -2.65235e-07 0)
(1.34985e-06 -2.58335e-07 0)
(1.40986e-06 -2.51886e-07 0)
(1.46886e-06 -2.45658e-07 0)
(1.52694e-06 -2.39445e-07 0)
(1.58416e-06 -2.33068e-07 0)
(1.64071e-06 -2.26364e-07 0)
(1.69667e-06 -2.19162e-07 0)
(1.75203e-06 -2.11281e-07 0)
(1.807e-06 -2.02561e-07 0)
(1.86154e-06 -1.92802e-07 0)
(1.91573e-06 -1.8182e-07 0)
(1.96969e-06 -1.69352e-07 0)
(2.02338e-06 -1.55193e-07 0)
(8.54564e-07 -3.72565e-07 0)
(9.27125e-07 -3.54035e-07 0)
(9.97615e-07 -3.38411e-07 0)
(1.0662e-06 -3.24963e-07 0)
(1.13295e-06 -3.13386e-07 0)
(1.19798e-06 -3.03278e-07 0)
(1.2615e-06 -2.94269e-07 0)
(1.32364e-06 -2.8605e-07 0)
(1.38457e-06 -2.78358e-07 0)
(1.44445e-06 -2.70962e-07 0)
(1.50334e-06 -2.63653e-07 0)
(1.56131e-06 -2.56243e-07 0)
(1.61857e-06 -2.48569e-07 0)
(1.67518e-06 -2.40456e-07 0)
(1.73111e-06 -2.31725e-07 0)
(1.78661e-06 -2.22219e-07 0)
(1.84161e-06 -2.11746e-07 0)
(1.89626e-06 -2.00129e-07 0)
(1.95061e-06 -1.87089e-07 0)
(2.0047e-06 -1.72371e-07 0)
(8.30159e-07 -4.06418e-07 0)
(9.01425e-07 -3.88077e-07 0)
(9.71267e-07 -3.71958e-07 0)
(1.03963e-06 -3.57624e-07 0)
(1.1065e-06 -3.44942e-07 0)
(1.17189e-06 -3.33632e-07 0)
(1.23592e-06 -3.23402e-07 0)
(1.29864e-06 -3.13981e-07 0)
(1.36018e-06 -3.05126e-07 0)
(1.42068e-06 -2.96619e-07 0)
(1.48017e-06 -2.88252e-07 0)
(1.53873e-06 -2.7984e-07 0)
(1.59655e-06 -2.71226e-07 0)
(1.65368e-06 -2.62236e-07 0)
(1.7101e-06 -2.52694e-07 0)
(1.76605e-06 -2.42451e-07 0)
(1.82146e-06 -2.31321e-07 0)
(1.8765e-06 -2.19127e-07 0)
(1.9312e-06 -2.05564e-07 0)
(1.98567e-06 -1.90408e-07 0)
(8.09086e-07 -4.3878e-07 0)
(8.79039e-07 -4.20723e-07 0)
(9.47972e-07 -4.04408e-07 0)
(1.01578e-06 -3.89509e-07 0)
(1.08239e-06 -3.76006e-07 0)
(1.14777e-06 -3.63727e-07 0)
(1.21195e-06 -3.52458e-07 0)
(1.27493e-06 -3.41974e-07 0)
(1.3368e-06 -3.32059e-07 0)
(1.39769e-06 -3.22517e-07 0)
(1.45759e-06 -3.13152e-07 0)
(1.51657e-06 -3.03789e-07 0)
(1.57482e-06 -2.94285e-07 0)
(1.63235e-06 -2.84467e-07 0)
(1.68918e-06 -2.74166e-07 0)
(1.74551e-06 -2.63236e-07 0)
(1.80127e-06 -2.51495e-07 0)
(1.85665e-06 -2.3876e-07 0)
(1.91167e-06 -2.24731e-07 0)
(1.96649e-06 -2.09299e-07 0)
(7.90541e-07 -4.69854e-07 0)
(8.59205e-07 -4.52137e-07 0)
(9.27158e-07 -4.35766e-07 0)
(9.94218e-07 -4.20507e-07 0)
(1.06033e-06 -4.06398e-07 0)
(1.12544e-06 -3.93352e-07 0)
(1.18951e-06 -3.8122e-07 0)
(1.25249e-06 -3.69817e-07 0)
(1.31448e-06 -3.58961e-07 0)
(1.37555e-06 -3.48485e-07 0)
(1.43569e-06 -3.38208e-07 0)
(1.49495e-06 -3.27972e-07 0)
(1.55351e-06 -3.17649e-07 0)
(1.61136e-06 -3.07071e-07 0)
(1.6685e-06 -2.96074e-07 0)
(1.72514e-06 -2.8451e-07 0)
(1.78119e-06 -2.72203e-07 0)
(1.83686e-06 -2.58975e-07 0)
(1.89217e-06 -2.44585e-07 0)
(1.94731e-06 -2.29019e-07 0)
(7.74032e-07 -4.99787e-07 0)
(8.41438e-07 -4.8242e-07 0)
(9.08391e-07 -4.66079e-07 0)
(9.74589e-07 -4.50609e-07 0)
(1.04006e-06 -4.36078e-07 0)
(1.10472e-06 -4.22445e-07 0)
(1.16849e-06 -4.09612e-07 0)
(1.2313e-06 -3.97434e-07 0)
(1.29321e-06 -3.8576e-07 0)
(1.35431e-06 -3.74458e-07 0)
(1.41456e-06 -3.63366e-07 0)
(1.47397e-06 -3.52345e-07 0)
(1.53273e-06 -3.41276e-07 0)
(1.59078e-06 -3.30001e-07 0)
(1.64818e-06 -3.18359e-07 0)
(1.70504e-06 -3.06206e-07 0)
(1.76133e-06 -2.93379e-07 0)
(1.81725e-06 -2.79728e-07 0)
(1.87282e-06 -2.651e-07 0)
(1.92822e-06 -2.49443e-07 0)
(7.59198e-07 -5.28672e-07 0)
(8.25411e-07 -5.11651e-07 0)
(8.91341e-07 -4.9541e-07 0)
(9.56635e-07 -4.79844e-07 0)
(1.02138e-06 -4.65031e-07 0)
(1.08546e-06 -4.50953e-07 0)
(1.1488e-06 -4.37553e-07 0)
(1.21129e-06 -4.24724e-07 0)
(1.27301e-06 -4.12346e-07 0)
(1.334e-06 -4.00323e-07 0)
(1.39422e-06 -3.88514e-07 0)
(1.45368e-06 -3.76795e-07 0)
(1.51255e-06 -3.65055e-07 0)
(1.57071e-06 -3.53139e-07 0)
(1.62826e-06 -3.40903e-07 0)
(1.6853e-06 -3.28214e-07 0)
(1.74178e-06 -3.14932e-07 0)
(1.79791e-06 -3.00953e-07 0)
(1.8537e-06 -2.86166e-07 0)
(1.90933e-06 -2.70405e-07 0)
(7.45713e-07 -5.56605e-07 0)
(8.10808e-07 -5.39928e-07 0)
(8.75713e-07 -5.23838e-07 0)
(9.40102e-07 -5.08251e-07 0)
(1.00406e-06 -4.93248e-07 0)
(1.06749e-06 -4.78826e-07 0)
(1.1303e-06 -4.64965e-07 0)
(1.19239e-06 -4.51593e-07 0)
(1.2538e-06 -4.38615e-07 0)
(1.3146e-06 -4.25975e-07 0)
(1.3747e-06 -4.13545e-07 0)
(1.4341e-06 -4.01218e-07 0)
(1.49297e-06 -3.88884e-07 0)
(1.55118e-06 -3.76395e-07 0)
(1.60881e-06 -3.63626e-07 0)
(1.66596e-06 -3.50468e-07 0)
(1.72259e-06 -3.36818e-07 0)
(1.7789e-06 -3.22594e-07 0)
(1.83486e-06 -3.07654e-07 0)
(1.89067e-06 -2.91846e-07 0)
(7.33296e-07 -5.83688e-07 0)
(7.97329e-07 -5.67362e-07 0)
(8.61242e-07 -5.51438e-07 0)
(9.24732e-07 -5.35862e-07 0)
(9.87883e-07 -5.20723e-07 0)
(1.05062e-06 -5.06033e-07 0)
(1.11286e-06 -4.918e-07 0)
(1.17448e-06 -4.77988e-07 0)
(1.23554e-06 -4.6452e-07 0)
(1.29606e-06 -4.51366e-07 0)
(1.35595e-06 -4.38413e-07 0)
(1.41523e-06 -4.25564e-07 0)
(1.47402e-06 -4.12713e-07 0)
(1.53219e-06 -3.99722e-07 0)
(1.58985e-06 -3.86494e-07 0)
(1.64707e-06 -3.72948e-07 0)
(1.70381e-06 -3.59004e-07 0)
(1.76025e-06 -3.44573e-07 0)
(1.81635e-06 -3.29474e-07 0)
(1.87232e-06 -3.13732e-07 0)
(7.21723e-07 -6.10033e-07 0)
(7.84737e-07 -5.94042e-07 0)
(8.47692e-07 -5.78274e-07 0)
(9.10294e-07 -5.62724e-07 0)
(9.72643e-07 -5.47494e-07 0)
(1.03469e-06 -5.32606e-07 0)
(1.09633e-06 -5.18091e-07 0)
(1.15745e-06 -5.03938e-07 0)
(1.2181e-06 -4.90082e-07 0)
(1.27831e-06 -4.76503e-07 0)
(1.33794e-06 -4.63103e-07 0)
(1.39703e-06 -4.49798e-07 0)
(1.45567e-06 -4.36493e-07 0)
(1.51377e-06 -4.2307e-07 0)
(1.5714e-06 -4.09456e-07 0)
(1.62866e-06 -3.95593e-07 0)
(1.68547e-06 -3.81397e-07 0)
(1.742e-06 -3.66761e-07 0)
(1.79821e-06 -3.51569e-07 0)
(1.8543e-06 -3.35929e-07 0)
(7.10786e-07 -6.35721e-07 0)
(7.72823e-07 -6.20017e-07 0)
(8.34845e-07 -6.04401e-07 0)
(8.96589e-07 -5.88899e-07 0)
(9.58162e-07 -5.73625e-07 0)
(1.01952e-06 -5.58604e-07 0)
(1.08057e-06 -5.43879e-07 0)
(1.14118e-06 -5.29452e-07 0)
(1.2014e-06 -5.15287e-07 0)
(1.26124e-06 -5.01347e-07 0)
(1.32058e-06 -4.87558e-07 0)
(1.37943e-06 -4.73855e-07 0)
(1.43791e-06 -4.60158e-07 0)
(1.49589e-06 -4.46378e-07 0)
(1.55348e-06 -4.32456e-07 0)
(1.61074e-06 -4.18334e-07 0)
(1.66758e-06 -4.03914e-07 0)
(1.72416e-06 -3.89105e-07 0)
(1.78045e-06 -3.73935e-07 0)
(1.83665e-06 -3.58353e-07 0)
(7.00291e-07 -6.60788e-07 0)
(7.61394e-07 -6.45327e-07 0)
(8.22523e-07 -6.29877e-07 0)
(8.83452e-07 -6.1445e-07 0)
(9.44279e-07 -5.99165e-07 0)
(1.00497e-06 -5.84053e-07 0)
(1.06544e-06 -5.69169e-07 0)
(1.12554e-06 -5.54514e-07 0)
(1.18532e-06 -5.40102e-07 0)
(1.24478e-06 -5.25872e-07 0)
(1.3038e-06 -5.11768e-07 0)
(1.3624e-06 -4.97742e-07 0)
(1.42069e-06 -4.83731e-07 0)
(1.47856e-06 -4.69665e-07 0)
(1.53608e-06 -4.5549e-07 0)
(1.5933e-06 -4.4114e-07 0)
(1.65013e-06 -4.26525e-07 0)
(1.70675e-06 -4.11627e-07 0)
(1.7631e-06 -3.96499e-07 0)
(1.81937e-06 -3.81e-07 0)
(6.90067e-07 -6.85273e-07 0)
(7.50287e-07 -6.70065e-07 0)
(8.10576e-07 -6.54779e-07 0)
(8.70732e-07 -6.39432e-07 0)
(9.30848e-07 -6.2415e-07 0)
(9.90905e-07 -6.08983e-07 0)
(1.0508e-06 -5.94e-07 0)
(1.11041e-06 -5.79183e-07 0)
(1.16975e-06 -5.64579e-07 0)
(1.22883e-06 -5.50118e-07 0)
(1.28752e-06 -5.35755e-07 0)
(1.34588e-06 -5.21461e-07 0)
(1.40399e-06 -5.07191e-07 0)
(1.46173e-06 -4.92887e-07 0)
(1.51915e-06 -4.7849e-07 0)
(1.5763e-06 -4.63937e-07 0)
(1.63311e-06 -4.49184e-07 0)
(1.68976e-06 -4.34279e-07 0)
(1.74616e-06 -4.19128e-07 0)
(1.80248e-06 -4.03757e-07 0)
(6.79963e-07 -7.0928e-07 0)
(7.39356e-07 -6.94313e-07 0)
(7.98857e-07 -6.79163e-07 0)
(8.58283e-07 -6.63894e-07 0)
(9.1773e-07 -6.48641e-07 0)
(9.7719e-07 -6.33466e-07 0)
(1.03655e-06 -6.18426e-07 0)
(1.09567e-06 -6.03494e-07 0)
(1.15458e-06 -5.88706e-07 0)
(1.21329e-06 -5.74048e-07 0)
(1.27169e-06 -5.5949e-07 0)
(1.32983e-06 -5.45003e-07 0)
(1.38776e-06 -5.30541e-07 0)
(1.44535e-06 -5.16046e-07 0)
(1.50265e-06 -5.01463e-07 0)
(1.55974e-06 -4.86761e-07 0)
(1.61654e-06 -4.71944e-07 0)
(1.67321e-06 -4.57028e-07 0)
(1.72963e-06 -4.41869e-07 0)
(1.78596e-06 -4.26589e-07 0)
(6.6984e-07 -7.32884e-07 0)
(7.2845e-07 -7.18097e-07 0)
(7.87208e-07 -7.03055e-07 0)
(8.45966e-07 -6.87887e-07 0)
(9.04803e-07 -6.72691e-07 0)
(9.63707e-07 -6.57531e-07 0)
(1.02255e-06 -6.42441e-07 0)
(1.0812e-06 -6.27444e-07 0)
(1.13971e-06 -6.12537e-07 0)
(1.19811e-06 -5.9773e-07 0)
(1.25626e-06 -5.83017e-07 0)
(1.31418e-06 -5.6837e-07 0)
(1.37193e-06 -5.53743e-07 0)
(1.42935e-06 -5.39083e-07 0)
(1.48655e-06 -5.2436e-07 0)
(1.5436e-06 -5.09577e-07 0)
(1.6004e-06 -4.94735e-07 0)
(1.65705e-06 -4.79733e-07 0)
(1.71345e-06 -4.64628e-07 0)
(1.76975e-06 -4.49441e-07 0)
(6.59545e-07 -7.56049e-07 0)
(7.17399e-07 -7.41412e-07 0)
(7.75462e-07 -7.2653e-07 0)
(8.33642e-07 -7.11494e-07 0)
(8.91924e-07 -6.96357e-07 0)
(9.50314e-07 -6.81203e-07 0)
(1.00868e-06 -6.66092e-07 0)
(1.06692e-06 -6.51045e-07 0)
(1.12509e-06 -6.36068e-07 0)
(1.18323e-06 -6.21176e-07 0)
(1.24115e-06 -6.06357e-07 0)
(1.29886e-06 -5.91583e-07 0)
(1.3564e-06 -5.7682e-07 0)
(1.4137e-06 -5.62042e-07 0)
(1.47085e-06 -5.47242e-07 0)
(1.52789e-06 -5.32411e-07 0)
(1.58462e-06 -5.17503e-07 0)
(1.64115e-06 -5.02443e-07 0)
(1.69754e-06 -4.87385e-07 0)
(1.75401e-06 -4.72283e-07 0)
(6.48852e-07 -7.78776e-07 0)
(7.0607e-07 -7.64343e-07 0)
(7.63562e-07 -7.49629e-07 0)
(8.21179e-07 -7.34697e-07 0)
(8.7895e-07 -7.19665e-07 0)
(9.36866e-07 -7.04549e-07 0)
(9.94828e-07 -6.89434e-07 0)
(1.05275e-06 -6.74361e-07 0)
(1.11068e-06 -6.59351e-07 0)
(1.16858e-06 -6.44401e-07 0)
(1.22626e-06 -6.29498e-07 0)
(1.28374e-06 -6.14634e-07 0)
(1.34118e-06 -5.99795e-07 0)
(1.39847e-06 -5.84948e-07 0)
(1.45555e-06 -5.70085e-07 0)
(1.51238e-06 -5.55198e-07 0)
(1.56902e-06 -5.40205e-07 0)
(1.62569e-06 -5.25188e-07 0)
(1.68205e-06 -5.10139e-07 0)
(1.73829e-06 -4.95096e-07 0)
(6.376e-07 -8.01305e-07 0)
(6.9424e-07 -7.87042e-07 0)
(7.51202e-07 -7.72439e-07 0)
(8.08335e-07 -7.57622e-07 0)
(8.65659e-07 -7.42655e-07 0)
(9.23215e-07 -7.27616e-07 0)
(9.80933e-07 -7.12545e-07 0)
(1.03866e-06 -6.97475e-07 0)
(1.09635e-06 -6.82432e-07 0)
(1.15397e-06 -6.67438e-07 0)
(1.21148e-06 -6.52494e-07 0)
(1.26897e-06 -6.3758e-07 0)
(1.32635e-06 -6.22678e-07 0)
(1.38341e-06 -6.0778e-07 0)
(1.44036e-06 -5.92867e-07 0)
(1.49727e-06 -5.77917e-07 0)
(1.55389e-06 -5.62888e-07 0)
(1.61043e-06 -5.47865e-07 0)
(1.66682e-06 -5.32808e-07 0)
(1.72303e-06 -5.17819e-07 0)
(6.25618e-07 -8.23429e-07 0)
(6.81747e-07 -8.09391e-07 0)
(7.38228e-07 -7.94967e-07 0)
(7.94939e-07 -7.80265e-07 0)
(8.52008e-07 -7.6541e-07 0)
(9.09425e-07 -7.50458e-07 0)
(9.66954e-07 -7.35436e-07 0)
(1.02441e-06 -7.20389e-07 0)
(1.08192e-06 -7.0536e-07 0)
(1.13955e-06 -6.90363e-07 0)
(1.19704e-06 -6.75397e-07 0)
(1.25432e-06 -6.6045e-07 0)
(1.31159e-06 -6.45502e-07 0)
(1.36868e-06 -6.30562e-07 0)
(1.42554e-06 -6.15607e-07 0)
(1.48237e-06 -6.00597e-07 0)
(1.539e-06 -5.85604e-07 0)
(1.5955e-06 -5.70499e-07 0)
(1.65191e-06 -5.55426e-07 0)
(1.70795e-06 -5.40393e-07 0)
(4.0781e-08 -6.09106e-07 0)
(1.2264e-07 -6.0102e-07 0)
(2.05343e-07 -5.84812e-07 0)
(2.8931e-07 -5.6158e-07 0)
(3.74895e-07 -5.31916e-07 0)
(4.62335e-07 -4.97125e-07 0)
(5.51665e-07 -4.58421e-07 0)
(6.42755e-07 -4.1703e-07 0)
(7.35632e-07 -3.74185e-07 0)
(8.29436e-07 -3.30745e-07 0)
(4.01967e-08 -6.22662e-07 0)
(1.20809e-07 -6.15362e-07 0)
(2.02045e-07 -6.00604e-07 0)
(2.84198e-07 -5.79466e-07 0)
(3.67511e-07 -5.52383e-07 0)
(4.52143e-07 -5.2045e-07 0)
(5.38049e-07 -4.84745e-07 0)
(6.25037e-07 -4.46317e-07 0)
(7.12765e-07 -4.06389e-07 0)
(8.00405e-07 -3.66107e-07 0)
(3.95876e-08 -6.36842e-07 0)
(1.18907e-07 -6.30257e-07 0)
(1.98623e-07 -6.16816e-07 0)
(2.78953e-07 -5.97583e-07 0)
(3.60048e-07 -5.72882e-07 0)
(4.41988e-07 -5.43616e-07 0)
(5.24706e-07 -5.10754e-07 0)
(6.08098e-07 -4.75177e-07 0)
(6.91819e-07 -4.38013e-07 0)
(7.75392e-07 -4.00189e-07 0)
(3.89738e-08 -6.51527e-07 0)
(1.17049e-07 -6.45533e-07 0)
(1.95359e-07 -6.33195e-07 0)
(2.74064e-07 -6.1554e-07 0)
(3.53269e-07 -5.92836e-07 0)
(4.32961e-07 -5.65818e-07 0)
(5.1308e-07 -5.35412e-07 0)
(5.93499e-07 -5.02404e-07 0)
(6.73879e-07 -4.67881e-07 0)
(7.53871e-07 -4.32618e-07 0)
(3.83822e-08 -6.66646e-07 0)
(1.15204e-07 -6.61169e-07 0)
(1.92181e-07 -6.49811e-07 0)
(2.69374e-07 -6.33536e-07 0)
(3.46858e-07 -6.12617e-07 0)
(4.24578e-07 -5.8764e-07 0)
(5.0246e-07 -5.59485e-07 0)
(5.80413e-07 -5.28851e-07 0)
(6.58101e-07 -4.96712e-07 0)
(7.35138e-07 -4.63774e-07 0)
(3.78232e-08 -6.82149e-07 0)
(1.13429e-07 -6.77097e-07 0)
(1.8914e-07 -6.66616e-07 0)
(2.64933e-07 -6.51527e-07 0)
(3.40858e-07 -6.32165e-07 0)
(4.16873e-07 -6.09004e-07 0)
(4.92833e-07 -5.82861e-07 0)
(5.68658e-07 -5.54397e-07 0)
(6.44064e-07 -5.24461e-07 0)
(7.18596e-07 -4.93732e-07 0)
(3.72447e-08 -6.97995e-07 0)
(1.11694e-07 -6.93299e-07 0)
(1.86181e-07 -6.83628e-07 0)
(2.60652e-07 -6.69582e-07 0)
(3.35155e-07 -6.51605e-07 0)
(4.09632e-07 -6.30092e-07 0)
(4.83933e-07 -6.05774e-07 0)
(5.57932e-07 -5.79274e-07 0)
(6.3141e-07 -5.5132e-07 0)
(7.03856e-07 -5.22591e-07 0)
(3.66688e-08 -7.14144e-07 0)
(1.10001e-07 -7.09745e-07 0)
(1.83295e-07 -7.00801e-07 0)
(2.56514e-07 -6.87681e-07 0)
(3.29719e-07 -6.70937e-07 0)
(4.02805e-07 -6.50914e-07 0)
(4.75625e-07 -6.28246e-07 0)
(5.48032e-07 -6.03506e-07 0)
(6.19865e-07 -5.77348e-07 0)
(6.90585e-07 -5.50441e-07 0)
(3.61369e-08 -7.30575e-07 0)
(1.08346e-07 -7.26423e-07 0)
(1.80469e-07 -7.18123e-07 0)
(2.525e-07 -7.05856e-07 0)
(3.24476e-07 -6.90224e-07 0)
(3.96299e-07 -6.71545e-07 0)
(4.67801e-07 -6.50362e-07 0)
(5.38813e-07 -6.27189e-07 0)
(6.09225e-07 -6.02663e-07 0)
(6.78501e-07 -5.77419e-07 0)
(3.5619e-08 -7.47252e-07 0)
(1.06696e-07 -7.43297e-07 0)
(1.7768e-07 -7.35567e-07 0)
(2.48593e-07 -7.24093e-07 0)
(3.19398e-07 -7.0947e-07 0)
(3.90051e-07 -6.91991e-07 0)
(4.60366e-07 -6.72149e-07 0)
(5.30143e-07 -6.5041e-07 0)
(5.99303e-07 -6.2738e-07 0)
(6.67347e-07 -6.03651e-07 0)
(3.50697e-08 -7.64121e-07 0)
(1.05038e-07 -7.60333e-07 0)
(1.74927e-07 -7.53117e-07 0)
(2.44757e-07 -7.42384e-07 0)
(3.14448e-07 -7.28686e-07 0)
(3.83991e-07 -7.12288e-07 0)
(4.53212e-07 -6.93664e-07 0)
(5.21877e-07 -6.73259e-07 0)
(5.8992e-07 -6.51587e-07 0)
(6.56901e-07 -6.29213e-07 0)
(3.45009e-08 -7.81119e-07 0)
(1.034e-07 -7.77504e-07 0)
(1.72224e-07 -7.70758e-07 0)
(2.40968e-07 -7.6071e-07 0)
(3.09582e-07 -7.47861e-07 0)
(3.78055e-07 -7.3245e-07 0)
(4.4624e-07 -7.14943e-07 0)
(5.13881e-07 -6.95761e-07 0)
(5.80915e-07 -6.75301e-07 0)
(6.46977e-07 -6.54141e-07 0)
(3.39482e-08 -7.98218e-07 0)
(1.01793e-07 -7.94796e-07 0)
(1.6955e-07 -7.88477e-07 0)
(2.37196e-07 -7.79055e-07 0)
(3.0475e-07 -7.66978e-07 0)
(3.72183e-07 -7.52479e-07 0)
(4.39366e-07 -7.36005e-07 0)
(5.06041e-07 -7.17916e-07 0)
(5.72156e-07 -6.98554e-07 0)
(6.3741e-07 -6.78517e-07 0)
(3.34151e-08 -8.15401e-07 0)
(1.00183e-07 -8.1218e-07 0)
(1.66851e-07 -8.06238e-07 0)
(2.33398e-07 -7.97392e-07 0)
(2.99899e-07 -7.86024e-07 0)
(3.6631e-07 -7.72378e-07 0)
(4.32507e-07 -7.56854e-07 0)
(4.98254e-07 -7.3975e-07 0)
(5.63516e-07 -7.21432e-07 0)
(6.28034e-07 -7.0243e-07 0)
(3.28709e-08 -8.32653e-07 0)
(9.85156e-08 -8.29627e-07 0)
(1.6407e-07 -8.2402e-07 0)
(2.29521e-07 -8.15713e-07 0)
(2.94962e-07 -8.05015e-07 0)
(3.60345e-07 -7.9217e-07 0)
(4.25561e-07 -7.7749e-07 0)
(4.90415e-07 -7.61288e-07 0)
(5.5487e-07 -7.43965e-07 0)
(6.18708e-07 -7.25888e-07 0)
(3.22892e-08 -8.49918e-07 0)
(9.67605e-08 -8.47095e-07 0)
(1.61173e-07 -8.41801e-07 0)
(2.25513e-07 -8.33997e-07 0)
(2.89868e-07 -8.239e-07 0)
(3.54208e-07 -8.11771e-07 0)
(4.18449e-07 -7.97875e-07 0)
(4.82438e-07 -7.82562e-07 0)
(5.46117e-07 -7.6615e-07 0)
(6.09318e-07 -7.48949e-07 0)
(3.16663e-08 -8.67186e-07 0)
(9.49129e-08 -8.64581e-07 0)
(1.58137e-07 -8.59566e-07 0)
(2.21325e-07 -8.52207e-07 0)
(2.84558e-07 -8.42692e-07 0)
(3.47833e-07 -8.31239e-07 0)
(4.11101e-07 -8.181e-07 0)
(4.7422e-07 -8.03641e-07 0)
(5.3713e-07 -7.88016e-07 0)
(5.99701e-07 -7.71649e-07 0)
(3.10097e-08 -8.84364e-07 0)
(9.29714e-08 -8.81956e-07 0)
(1.5494e-07 -8.77207e-07 0)
(2.16916e-07 -8.7027e-07 0)
(2.78983e-07 -8.61278e-07 0)
(3.41164e-07 -8.50456e-07 0)
(4.03426e-07 -8.3806e-07 0)
(4.65644e-07 -8.24381e-07 0)
(5.27758e-07 -8.09549e-07 0)
(5.89702e-07 -7.9394e-07 0)
(3.03197e-08 -9.0149e-07 0)
(9.09157e-08 -8.99259e-07 0)
(1.51538e-07 -8.94786e-07 0)
(2.12218e-07 -8.88238e-07 0)
(2.73046e-07 -8.79755e-07 0)
(3.34079e-07 -8.69556e-07 0)
(3.95281e-07 -8.57883e-07 0)
(4.56539e-07 -8.4491e-07 0)
(5.17802e-07 -8.30878e-07 0)
(5.79096e-07 -8.15996e-07 0)
(2.95923e-08 -9.18304e-07 0)
(8.87335e-08 -9.16195e-07 0)
(1.47903e-07 -9.11994e-07 0)
(2.07201e-07 -9.05828e-07 0)
(2.66737e-07 -8.97847e-07 0)
(3.2655e-07 -8.88266e-07 0)
(3.86589e-07 -8.77275e-07 0)
(4.46779e-07 -8.6503e-07 0)
(5.07143e-07 -8.51781e-07 0)
(5.67779e-07 -8.37638e-07 0)
)


// ************************************************************************* //
