/*--------------------------------*- C++ -*----------------------------------*\
| =========                 |                                                 |
| \\      /  F ield         | foam-extend: Open Source CFD                    |
|  \\    /   O peration     | Version:     4.1                                |
|   \\  /    A nd           | Web:         http://www.foam-extend.org         |
|    \\/     M anipulation  |                                                 |
\*---------------------------------------------------------------------------*/
FoamFile
{
    version     2.0;
    format      ascii;
    class       vectorField;
    location    "2";
    object      solidsCellD_iteration1;
}
// * * * * * * * * * * * * * * * * * * * * * * * * * * * * * * * * * * * * * //


1000
(
(7.80982e-07 -2.52052e-07 0)
(7.48726e-07 -2.37169e-07 0)
(7.29934e-07 -2.28641e-07 0)
(7.2131e-07 -2.25873e-07 0)
(7.19788e-07 -2.26459e-07 0)
(7.23534e-07 -2.29666e-07 0)
(7.3116e-07 -2.34622e-07 0)
(7.41652e-07 -2.41003e-07 0)
(7.53995e-07 -2.48522e-07 0)
(7.66654e-07 -2.57392e-07 0)
(7.07727e-07 -2.75475e-07 0)
(6.7313e-07 -2.66062e-07 0)
(6.52639e-07 -2.6113e-07 0)
(6.42567e-07 -2.60855e-07 0)
(6.39666e-07 -2.63135e-07 0)
(6.41902e-07 -2.67614e-07 0)
(6.47846e-07 -2.7353e-07 0)
(6.56401e-07 -2.80613e-07 0)
(6.66627e-07 -2.88596e-07 0)
(6.77452e-07 -2.97299e-07 0)
(6.31118e-07 -2.97699e-07 0)
(5.95573e-07 -2.94386e-07 0)
(5.74268e-07 -2.93345e-07 0)
(5.63287e-07 -2.95757e-07 0)
(5.59365e-07 -2.99813e-07 0)
(5.60391e-07 -3.05499e-07 0)
(5.64952e-07 -3.12231e-07 0)
(5.72022e-07 -3.19788e-07 0)
(5.80762e-07 -3.27961e-07 0)
(5.90389e-07 -3.36514e-07 0)
(5.51728e-07 -3.18285e-07 0)
(5.16796e-07 -3.21356e-07 0)
(4.95654e-07 -3.24354e-07 0)
(4.84381e-07 -3.2947e-07 0)
(4.79839e-07 -3.35307e-07 0)
(4.7999e-07 -3.42169e-07 0)
(4.83475e-07 -3.49633e-07 0)
(4.89343e-07 -3.57618e-07 0)
(4.96861e-07 -3.66017e-07 0)
(5.05357e-07 -3.74582e-07 0)
(4.70112e-07 -3.36833e-07 0)
(4.37354e-07 -3.46195e-07 0)
(4.17346e-07 -3.53194e-07 0)
(4.06423e-07 -3.60962e-07 0)
(4.01714e-07 -3.68477e-07 0)
(4.0129e-07 -3.76443e-07 0)
(4.03922e-07 -3.84613e-07 0)
(4.08731e-07 -3.93023e-07 0)
(4.1512e-07 -4.01661e-07 0)
(4.22458e-07 -4.10338e-07 0)
(3.86739e-07 -3.52954e-07 0)
(3.57592e-07 -3.68192e-07 0)
(3.39716e-07 -3.78882e-07 0)
(3.29792e-07 -3.89108e-07 0)
(3.25326e-07 -3.98211e-07 0)
(3.24576e-07 -4.07218e-07 0)
(3.26517e-07 -4.16025e-07 0)
(3.30368e-07 -4.24835e-07 0)
(3.35637e-07 -4.3372e-07 0)
(3.41752e-07 -4.42564e-07 0)
(3.02052e-07 -3.66284e-07 0)
(2.77836e-07 -3.86655e-07 0)
(2.62957e-07 -4.0059e-07 0)
(2.54599e-07 -4.1296e-07 0)
(2.50721e-07 -4.23439e-07 0)
(2.49885e-07 -4.33361e-07 0)
(2.51264e-07 -4.42731e-07 0)
(2.54216e-07 -4.51917e-07 0)
(2.58348e-07 -4.61044e-07 0)
(2.63173e-07 -4.7008e-07 0)
(2.16415e-07 -3.76536e-07 0)
(1.98251e-07 -4.01035e-07 0)
(1.87082e-07 -4.17585e-07 0)
(1.80769e-07 -4.31659e-07 0)
(1.77767e-07 -4.43235e-07 0)
(1.77028e-07 -4.53881e-07 0)
(1.77944e-07 -4.63719e-07 0)
(1.80031e-07 -4.73222e-07 0)
(1.83001e-07 -4.82536e-07 0)
(1.86478e-07 -4.91721e-07 0)
(1.30136e-07 -3.83492e-07 0)
(1.18883e-07 -4.10868e-07 0)
(1.11952e-07 -4.29259e-07 0)
(1.08004e-07 -4.44545e-07 0)
(1.06096e-07 -4.56888e-07 0)
(1.05598e-07 -4.68029e-07 0)
(1.06131e-07 -4.78197e-07 0)
(1.07377e-07 -4.8794e-07 0)
(1.09158e-07 -4.97417e-07 0)
(1.11252e-07 -5.06747e-07 0)
(4.34731e-08 -3.8699e-07 0)
(3.96422e-08 -4.15829e-07 0)
(3.72821e-08 -4.35174e-07 0)
(3.5944e-08 -4.51088e-07 0)
(3.52958e-08 -4.63819e-07 0)
(3.51108e-08 -4.75216e-07 0)
(3.52721e-08 -4.8554e-07 0)
(3.5684e-08 -4.95382e-07 0)
(3.62801e-08 -5.04919e-07 0)
(3.6978e-08 -5.14304e-07 0)
(1.19784e-06 -1.14446e-08 0)
(1.20772e-06 -8.37146e-09 0)
(1.21614e-06 -6.46672e-09 0)
(1.22624e-06 -5.39315e-09 0)
(1.23784e-06 -4.84307e-09 0)
(1.2516e-06 -4.6475e-09 0)
(1.26735e-06 -4.68597e-09 0)
(1.28502e-06 -4.88038e-09 0)
(1.30453e-06 -5.18226e-09 0)
(1.32564e-06 -5.52185e-09 0)
(1.18948e-06 -3.43396e-08 0)
(1.19796e-06 -2.53126e-08 0)
(1.20548e-06 -1.97274e-08 0)
(1.21501e-06 -1.6596e-08 0)
(1.22626e-06 -1.50066e-08 0)
(1.23975e-06 -1.44503e-08 0)
(1.2553e-06 -1.4583e-08 0)
(1.27282e-06 -1.51768e-08 0)
(1.29218e-06 -1.60838e-08 0)
(1.31312e-06 -1.71047e-08 0)
(1.17272e-06 -5.74415e-08 0)
(1.17859e-06 -4.29789e-08 0)
(1.18444e-06 -3.40427e-08 0)
(1.19287e-06 -2.90471e-08 0)
(1.20341e-06 -2.65386e-08 0)
(1.21641e-06 -2.57042e-08 0)
(1.23162e-06 -2.59752e-08 0)
(1.24887e-06 -2.6983e-08 0)
(1.26803e-06 -2.84922e-08 0)
(1.28877e-06 -3.01934e-08 0)
(1.14784e-06 -8.08567e-08 0)
(1.14998e-06 -6.17751e-08 0)
(1.15344e-06 -5.00063e-08 0)
(1.16031e-06 -4.34721e-08 0)
(1.1698e-06 -4.02342e-08 0)
(1.18207e-06 -3.9231e-08 0)
(1.19676e-06 -3.97028e-08 0)
(1.21363e-06 -4.1159e-08 0)
(1.23248e-06 -4.32833e-08 0)
(1.25291e-06 -4.56718e-08 0)
(1.11512e-06 -1.04657e-07 0)
(1.11264e-06 -8.20374e-08 0)
(1.11315e-06 -6.812e-08 0)
(1.11804e-06 -6.04799e-08 0)
(1.12625e-06 -5.6769e-08 0)
(1.13764e-06 -5.57441e-08 0)
(1.15171e-06 -5.64975e-08 0)
(1.16812e-06 -5.8441e-08 0)
(1.18661e-06 -6.11895e-08 0)
(1.20672e-06 -6.42732e-08 0)
(1.07498e-06 -1.28858e-07 0)
(1.06722e-06 -1.03988e-07 0)
(1.06439e-06 -8.87274e-08 0)
(1.06704e-06 -8.04909e-08 0)
(1.07377e-06 -7.66148e-08 0)
(1.08413e-06 -7.57504e-08 0)
(1.09747e-06 -7.68775e-08 0)
(1.11334e-06 -7.9351e-08 0)
(1.13144e-06 -8.27283e-08 0)
(1.15126e-06 -8.65111e-08 0)
(1.02789e-06 -1.53415e-07 0)
(1.01451e-06 -1.2772e-07 0)
(1.00813e-06 -1.12008e-07 0)
(1.0084e-06 -1.03741e-07 0)
(1.01352e-06 -1.0005e-07 0)
(1.02275e-06 -9.95484e-08 0)
(1.03529e-06 -1.01158e-07 0)
(1.05057e-06 -1.04218e-07 0)
(1.0683e-06 -1.08247e-07 0)
(1.08794e-06 -1.1274e-07 0)
(9.74359e-07 -1.78213e-07 0)
(9.55387e-07 -1.53183e-07 0)
(9.45417e-07 -1.37955e-07 0)
(9.43259e-07 -1.30243e-07 0)
(9.46709e-07 -1.27107e-07 0)
(9.5473e-07 -1.2719e-07 0)
(9.66396e-07 -1.29396e-07 0)
(9.81061e-07 -1.33096e-07 0)
(9.9841e-07 -1.37792e-07 0)
(1.01802e-06 -1.43021e-07 0)
(9.14969e-07 -2.03076e-07 0)
(8.90765e-07 -1.80174e-07 0)
(8.774e-07 -1.66355e-07 0)
(8.72874e-07 -1.59778e-07 0)
(8.74651e-07 -1.57561e-07 0)
(8.81393e-07 -1.58466e-07 0)
(8.92063e-07 -1.61421e-07 0)
(9.05974e-07 -1.65842e-07 0)
(9.22792e-07 -1.71279e-07 0)
(9.42464e-07 -1.77262e-07 0)
(8.50332e-07 -2.27768e-07 0)
(8.21602e-07 -2.08329e-07 0)
(8.05214e-07 -1.96785e-07 0)
(7.98483e-07 -1.91892e-07 0)
(7.98586e-07 -1.90937e-07 0)
(8.03897e-07 -1.92903e-07 0)
(8.13295e-07 -1.96788e-07 0)
(8.26075e-07 -2.02113e-07 0)
(8.41931e-07 -2.08479e-07 0)
(8.61325e-07 -2.15652e-07 0)
(1.34818e-06 -5.85894e-09 0)
(1.3726e-06 -6.00689e-09 0)
(1.39851e-06 -6.16274e-09 0)
(1.4258e-06 -6.30532e-09 0)
(1.45432e-06 -6.42532e-09 0)
(1.48401e-06 -6.51234e-09 0)
(1.51477e-06 -6.56245e-09 0)
(1.54648e-06 -6.58728e-09 0)
(1.57902e-06 -6.59071e-09 0)
(1.61231e-06 -6.56293e-09 0)
(1.64627e-06 -6.48718e-09 0)
(1.6808e-06 -6.35711e-09 0)
(1.71582e-06 -6.17464e-09 0)
(1.75123e-06 -5.94004e-09 0)
(1.78694e-06 -5.6476e-09 0)
(1.82284e-06 -5.28945e-09 0)
(1.85886e-06 -4.85699e-09 0)
(1.89482e-06 -4.34193e-09 0)
(1.93073e-06 -3.73387e-09 0)
(1.96623e-06 -3.03425e-09 0)
(1.33612e-06 -1.80714e-08 0)
(1.36143e-06 -1.84603e-08 0)
(1.38816e-06 -1.88753e-08 0)
(1.4162e-06 -1.92475e-08 0)
(1.44545e-06 -1.95544e-08 0)
(1.4758e-06 -1.97837e-08 0)
(1.50719e-06 -1.99203e-08 0)
(1.53948e-06 -1.99744e-08 0)
(1.57257e-06 -1.99415e-08 0)
(1.60635e-06 -1.98071e-08 0)
(1.64077e-06 -1.95446e-08 0)
(1.67572e-06 -1.91399e-08 0)
(1.71116e-06 -1.85876e-08 0)
(1.74697e-06 -1.78791e-08 0)
(1.78305e-06 -1.69963e-08 0)
(1.81929e-06 -1.59178e-08 0)
(1.85563e-06 -1.46185e-08 0)
(1.89188e-06 -1.30746e-08 0)
(1.92809e-06 -1.12554e-08 0)
(1.96391e-06 -9.16136e-09 0)
(1.31276e-06 -3.16397e-08 0)
(1.33986e-06 -3.20765e-08 0)
(1.36824e-06 -3.25742e-08 0)
(1.39775e-06 -3.30393e-08 0)
(1.42832e-06 -3.34178e-08 0)
(1.45989e-06 -3.36979e-08 0)
(1.4924e-06 -3.38457e-08 0)
(1.52574e-06 -3.38633e-08 0)
(1.5598e-06 -3.37318e-08 0)
(1.5945e-06 -3.34326e-08 0)
(1.62979e-06 -3.2936e-08 0)
(1.66559e-06 -3.22234e-08 0)
(1.70182e-06 -3.12783e-08 0)
(1.73837e-06 -3.00783e-08 0)
(1.77518e-06 -2.85909e-08 0)
(1.81214e-06 -2.67798e-08 0)
(1.84915e-06 -2.46034e-08 0)
(1.88607e-06 -2.20278e-08 0)
(1.92293e-06 -1.90034e-08 0)
(1.95937e-06 -1.5528e-08 0)
(1.27829e-06 -4.73583e-08 0)
(1.30796e-06 -4.75279e-08 0)
(1.33877e-06 -4.78217e-08 0)
(1.37047e-06 -4.81657e-08 0)
(1.4031e-06 -4.84385e-08 0)
(1.43653e-06 -4.86247e-08 0)
(1.47075e-06 -4.86596e-08 0)
(1.50565e-06 -4.85376e-08 0)
(1.54117e-06 -4.82265e-08 0)
(1.57724e-06 -4.76975e-08 0)
(1.61383e-06 -4.69116e-08 0)
(1.65087e-06 -4.58424e-08 0)
(1.68826e-06 -4.44611e-08 0)
(1.7259e-06 -4.27315e-08 0)
(1.76375e-06 -4.06091e-08 0)
(1.80172e-06 -3.80446e-08 0)
(1.83971e-06 -3.49824e-08 0)
(1.87759e-06 -3.1379e-08 0)
(1.9154e-06 -2.71629e-08 0)
(1.95274e-06 -2.23242e-08 0)
(1.23388e-06 -6.59083e-08 0)
(1.26683e-06 -6.54236e-08 0)
(1.30075e-06 -6.51564e-08 0)
(1.33526e-06 -6.51043e-08 0)
(1.37048e-06 -6.50407e-08 0)
(1.40629e-06 -6.49466e-08 0)
(1.44274e-06 -6.47182e-08 0)
(1.47969e-06 -6.43296e-08 0)
(1.51712e-06 -6.37338e-08 0)
(1.55498e-06 -6.28864e-08 0)
(1.59323e-06 -6.17337e-08 0)
(1.63182e-06 -6.0237e-08 0)
(1.67068e-06 -5.83553e-08 0)
(1.70974e-06 -5.60419e-08 0)
(1.74898e-06 -5.32429e-08 0)
(1.78825e-06 -4.98996e-08 0)
(1.82752e-06 -4.59441e-08 0)
(1.86663e-06 -4.13189e-08 0)
(1.90565e-06 -3.59279e-08 0)
(1.94418e-06 -2.97405e-08 0)
(1.18054e-06 -8.7773e-08 0)
(1.21738e-06 -8.62001e-08 0)
(1.25507e-06 -8.49703e-08 0)
(1.29298e-06 -8.42045e-08 0)
(1.33138e-06 -8.35378e-08 0)
(1.37011e-06 -8.29379e-08 0)
(1.40924e-06 -8.22578e-08 0)
(1.44867e-06 -8.14437e-08 0)
(1.48839e-06 -8.04241e-08 0)
(1.52838e-06 -7.91372e-08 0)
(1.56864e-06 -7.75175e-08 0)
(1.6091e-06 -7.55117e-08 0)
(1.64972e-06 -7.30644e-08 0)
(1.69047e-06 -7.01189e-08 0)
(1.73132e-06 -6.66103e-08 0)
(1.77212e-06 -6.24705e-08 0)
(1.81289e-06 -5.76189e-08 0)
(1.85345e-06 -5.19783e-08 0)
(1.89391e-06 -4.54213e-08 0)
(1.93388e-06 -3.78882e-08 0)
(1.11962e-06 -1.13316e-07 0)
(1.16087e-06 -1.10214e-07 0)
(1.20287e-06 -1.07616e-07 0)
(1.24472e-06 -1.05778e-07 0)
(1.28681e-06 -1.04202e-07 0)
(1.3289e-06 -1.0283e-07 0)
(1.3711e-06 -1.01471e-07 0)
(1.41335e-06 -1.00042e-07 0)
(1.45567e-06 -9.84398e-08 0)
(1.49808e-06 -9.65743e-08 0)
(1.5406e-06 -9.43698e-08 0)
(1.58318e-06 -9.17604e-08 0)
(1.62581e-06 -8.86762e-08 0)
(1.66846e-06 -8.50477e-08 0)
(1.7111e-06 -8.07965e-08 0)
(1.75363e-06 -7.58414e-08 0)
(1.79609e-06 -7.00841e-08 0)
(1.83831e-06 -6.34234e-08 0)
(1.88041e-06 -5.56924e-08 0)
(1.92202e-06 -4.681e-08 0)
(1.05241e-06 -1.42638e-07 0)
(1.09858e-06 -1.37535e-07 0)
(1.14542e-06 -1.33152e-07 0)
(1.19172e-06 -1.29828e-07 0)
(1.23789e-06 -1.26992e-07 0)
(1.28374e-06 -1.24531e-07 0)
(1.32936e-06 -1.22223e-07 0)
(1.37473e-06 -1.19952e-07 0)
(1.41992e-06 -1.17584e-07 0)
(1.46498e-06 -1.14999e-07 0)
(1.50996e-06 -1.12103e-07 0)
(1.55481e-06 -1.08812e-07 0)
(1.59955e-06 -1.05041e-07 0)
(1.64422e-06 -1.00701e-07 0)
(1.68877e-06 -9.56969e-08 0)
(1.73317e-06 -8.9927e-08 0)
(1.77745e-06 -8.32676e-08 0)
(1.82146e-06 -7.55888e-08 0)
(1.86535e-06 -6.66866e-08 0)
(1.90879e-06 -5.64723e-08 0)
(9.80191e-07 -1.75867e-07 0)
(1.03202e-06 -1.6833e-07 0)
(1.08425e-06 -1.61815e-07 0)
(1.13545e-06 -1.56568e-07 0)
(1.18603e-06 -1.52116e-07 0)
(1.23587e-06 -1.48231e-07 0)
(1.28508e-06 -1.44696e-07 0)
(1.33372e-06 -1.41342e-07 0)
(1.38192e-06 -1.38003e-07 0)
(1.42974e-06 -1.34532e-07 0)
(1.47726e-06 -1.30812e-07 0)
(1.52447e-06 -1.26739e-07 0)
(1.57143e-06 -1.22207e-07 0)
(1.61819e-06 -1.17107e-07 0)
(1.66472e-06 -1.11318e-07 0)
(1.71103e-06 -1.04716e-07 0)
(1.75719e-06 -9.71477e-08 0)
(1.80308e-06 -8.84523e-08 0)
(1.84885e-06 -7.84002e-08 0)
(1.89425e-06 -6.69048e-08 0)
(9.04182e-07 -2.13043e-07 0)
(9.63025e-07 -2.02158e-07 0)
(1.02117e-06 -1.9294e-07 0)
(1.07767e-06 -1.85219e-07 0)
(1.13283e-06 -1.78711e-07 0)
(1.18675e-06 -1.73074e-07 0)
(1.23962e-06 -1.68065e-07 0)
(1.29157e-06 -1.63446e-07 0)
(1.34278e-06 -1.59005e-07 0)
(1.39337e-06 -1.54559e-07 0)
(1.44344e-06 -1.49959e-07 0)
(1.49301e-06 -1.45073e-07 0)
(1.54218e-06 -1.39769e-07 0)
(1.59102e-06 -1.33914e-07 0)
(1.63951e-06 -1.27357e-07 0)
(1.68773e-06 -1.19952e-07 0)
(1.73574e-06 -1.11516e-07 0)
(1.78347e-06 -1.01866e-07 0)
(1.8311e-06 -9.07541e-08 0)
(1.87847e-06 -7.8076e-08 0)
(8.42966e-07 -2.50925e-07 0)
(9.09925e-07 -2.35853e-07 0)
(9.729e-07 -2.24104e-07 0)
(1.03321e-06 -2.14206e-07 0)
(1.09153e-06 -2.05791e-07 0)
(1.14824e-06 -1.98467e-07 0)
(1.20361e-06 -1.91946e-07 0)
(1.25784e-06 -1.8596e-07 0)
(1.31112e-06 -1.80284e-07 0)
(1.36362e-06 -1.74716e-07 0)
(1.41542e-06 -1.69087e-07 0)
(1.46659e-06 -1.63245e-07 0)
(1.51724e-06 -1.57045e-07 0)
(1.56746e-06 -1.50332e-07 0)
(1.61723e-06 -1.4294e-07 0)
(1.66669e-06 -1.34708e-07 0)
(1.71588e-06 -1.2544e-07 0)
(1.76477e-06 -1.14956e-07 0)
(1.81356e-06 -1.03004e-07 0)
(1.86215e-06 -8.94491e-08 0)
(8.10105e-07 -2.81933e-07 0)
(8.77432e-07 -2.65867e-07 0)
(9.41566e-07 -2.52549e-07 0)
(1.00332e-06 -2.41133e-07 0)
(1.06308e-06 -2.31266e-07 0)
(1.12115e-06 -2.22581e-07 0)
(1.1778e-06 -2.14768e-07 0)
(1.23321e-06 -2.07563e-07 0)
(1.28758e-06 -2.00742e-07 0)
(1.34108e-06 -1.94101e-07 0)
(1.39378e-06 -1.87463e-07 0)
(1.44575e-06 -1.80671e-07 0)
(1.49714e-06 -1.73574e-07 0)
(1.54802e-06 -1.66012e-07 0)
(1.5984e-06 -1.57816e-07 0)
(1.64843e-06 -1.48826e-07 0)
(1.69813e-06 -1.38855e-07 0)
(1.74753e-06 -1.27733e-07 0)
(1.79678e-06 -1.15211e-07 0)
(1.84583e-06 -1.01108e-07 0)
(7.84121e-07 -3.1093e-07 0)
(8.50373e-07 -2.94634e-07 0)
(9.14477e-07 -2.80483e-07 0)
(9.76636e-07 -2.67978e-07 0)
(1.03706e-06 -2.56932e-07 0)
(1.09592e-06 -2.47054e-07 0)
(1.15339e-06 -2.38058e-07 0)
(1.20962e-06 -2.29706e-07 0)
(1.26479e-06 -2.21784e-07 0)
(1.31903e-06 -2.14096e-07 0)
(1.37243e-06 -2.06461e-07 0)
(1.42504e-06 -1.9872e-07 0)
(1.47703e-06 -1.90724e-07 0)
(1.52846e-06 -1.82313e-07 0)
(1.57934e-06 -1.7332e-07 0)
(1.62984e-06 -1.63594e-07 0)
(1.67998e-06 -1.52959e-07 0)
(1.72981e-06 -1.41252e-07 0)
(1.77944e-06 -1.28207e-07 0)
(1.82888e-06 -1.13621e-07 0)
(7.62014e-07 -3.38542e-07 0)
(8.27049e-07 -3.22224e-07 0)
(8.90619e-07 -3.0759e-07 0)
(9.52639e-07 -2.94315e-07 0)
(1.01322e-06 -2.8233e-07 0)
(1.07242e-06 -2.71427e-07 0)
(1.13036e-06 -2.61378e-07 0)
(1.1871e-06 -2.51976e-07 0)
(1.24279e-06 -2.43027e-07 0)
(1.29757e-06 -2.34345e-07 0)
(1.35148e-06 -2.25755e-07 0)
(1.40457e-06 -2.17103e-07 0)
(1.45703e-06 -2.08245e-07 0)
(1.50889e-06 -1.99024e-07 0)
(1.5602e-06 -1.89282e-07 0)
(1.61109e-06 -1.78875e-07 0)
(1.66159e-06 -1.67637e-07 0)
(1.71178e-06 -1.554e-07 0)
(1.76175e-06 -1.41886e-07 0)
(1.81152e-06 -1.26936e-07 0)
(7.42853e-07 -3.64952e-07 0)
(8.06652e-07 -3.487e-07 0)
(8.69438e-07 -3.33803e-07 0)
(9.31005e-07 -3.20005e-07 0)
(9.91402e-07 -3.073e-07 0)
(1.05062e-06 -2.95557e-07 0)
(1.10871e-06 -2.84605e-07 0)
(1.16569e-06 -2.74271e-07 0)
(1.22167e-06 -2.64383e-07 0)
(1.27678e-06 -2.54779e-07 0)
(1.33103e-06 -2.45293e-07 0)
(1.38447e-06 -2.35781e-07 0)
(1.43728e-06 -2.26113e-07 0)
(1.48948e-06 -2.16138e-07 0)
(1.54111e-06 -2.05701e-07 0)
(1.59233e-06 -1.94667e-07 0)
(1.64314e-06 -1.82873e-07 0)
(1.69362e-06 -1.70148e-07 0)
(1.74387e-06 -1.56233e-07 0)
(1.79394e-06 -1.41065e-07 0)
(7.25958e-07 -3.90273e-07 0)
(7.88546e-07 -3.74169e-07 0)
(8.50451e-07 -3.59129e-07 0)
(9.11382e-07 -3.44967e-07 0)
(9.71372e-07 -3.31712e-07 0)
(1.03038e-06 -3.19291e-07 0)
(1.08839e-06 -3.0758e-07 0)
(1.14539e-06 -2.96437e-07 0)
(1.20147e-06 -2.85715e-07 0)
(1.25673e-06 -2.75278e-07 0)
(1.31117e-06 -2.64975e-07 0)
(1.36484e-06 -2.54675e-07 0)
(1.41788e-06 -2.44263e-07 0)
(1.47032e-06 -2.33595e-07 0)
(1.52222e-06 -2.22524e-07 0)
(1.57369e-06 -2.10914e-07 0)
(1.62474e-06 -1.98609e-07 0)
(1.67547e-06 -1.85448e-07 0)
(1.72597e-06 -1.71234e-07 0)
(1.7763e-06 -1.55956e-07 0)
(7.10898e-07 -4.14595e-07 0)
(7.72307e-07 -3.98685e-07 0)
(8.3329e-07 -3.83587e-07 0)
(8.93471e-07 -3.69185e-07 0)
(9.52906e-07 -3.55527e-07 0)
(1.01153e-06 -3.42574e-07 0)
(1.06929e-06 -3.3024e-07 0)
(1.12614e-06 -3.1841e-07 0)
(1.18217e-06 -3.06963e-07 0)
(1.23745e-06 -2.95789e-07 0)
(1.29196e-06 -2.84754e-07 0)
(1.34573e-06 -2.73742e-07 0)
(1.39893e-06 -2.6265e-07 0)
(1.45153e-06 -2.51346e-07 0)
(1.50361e-06 -2.39689e-07 0)
(1.55526e-06 -2.27544e-07 0)
(1.6065e-06 -2.14771e-07 0)
(1.65744e-06 -2.01241e-07 0)
(1.70814e-06 -1.86824e-07 0)
(1.75869e-06 -1.71453e-07 0)
(6.97332e-07 -4.37976e-07 0)
(7.57617e-07 -4.22283e-07 0)
(8.17651e-07 -4.07195e-07 0)
(8.77018e-07 -3.92648e-07 0)
(9.35803e-07 -3.78701e-07 0)
(9.93926e-07 -3.6533e-07 0)
(1.05132e-06 -3.52483e-07 0)
(1.1079e-06 -3.40071e-07 0)
(1.16374e-06 -3.27996e-07 0)
(1.21893e-06 -3.16181e-07 0)
(1.2734e-06 -3.04505e-07 0)
(1.3272e-06 -2.92864e-07 0)
(1.38046e-06 -2.81165e-07 0)
(1.43315e-06 -2.69282e-07 0)
(1.48534e-06 -2.57088e-07 0)
(1.53713e-06 -2.44461e-07 0)
(1.58852e-06 -2.31284e-07 0)
(1.63961e-06 -2.17465e-07 0)
(1.69048e-06 -2.02896e-07 0)
(1.74122e-06 -1.87428e-07 0)
(6.84967e-07 -4.6048e-07 0)
(7.44188e-07 -4.45016e-07 0)
(8.03263e-07 -4.29986e-07 0)
(8.61791e-07 -4.15361e-07 0)
(9.19867e-07 -4.01202e-07 0)
(9.7741e-07 -3.87498e-07 0)
(1.03434e-06 -3.74226e-07 0)
(1.09056e-06 -3.61326e-07 0)
(1.14614e-06 -3.48718e-07 0)
(1.20114e-06 -3.36357e-07 0)
(1.2555e-06 -3.24134e-07 0)
(1.30924e-06 -3.11955e-07 0)
(1.3625e-06 -2.99729e-07 0)
(1.41521e-06 -2.87336e-07 0)
(1.46747e-06 -2.7467e-07 0)
(1.51934e-06 -2.6163e-07 0)
(1.57083e-06 -2.48127e-07 0)
(1.62204e-06 -2.34083e-07 0)
(1.67305e-06 -2.19366e-07 0)
(1.72395e-06 -2.03879e-07 0)
(6.73557e-07 -4.82185e-07 0)
(7.3176e-07 -4.66964e-07 0)
(7.89889e-07 -4.52015e-07 0)
(8.47573e-07 -4.37347e-07 0)
(9.04908e-07 -4.23029e-07 0)
(9.61823e-07 -4.09062e-07 0)
(1.01823e-06 -3.9545e-07 0)
(1.07403e-06 -3.82155e-07 0)
(1.12928e-06 -3.69113e-07 0)
(1.18403e-06 -3.563e-07 0)
(1.23821e-06 -3.4362e-07 0)
(1.29185e-06 -3.30986e-07 0)
(1.34504e-06 -3.18307e-07 0)
(1.39773e-06 -3.05475e-07 0)
(1.45e-06 -2.92404e-07 0)
(1.5019e-06 -2.7902e-07 0)
(1.55346e-06 -2.65251e-07 0)
(1.60477e-06 -2.51009e-07 0)
(1.65588e-06 -2.36154e-07 0)
(1.70691e-06 -2.20752e-07 0)
(6.62885e-07 -5.03183e-07 0)
(7.20114e-07 -4.88199e-07 0)
(7.77319e-07 -4.73339e-07 0)
(8.34165e-07 -4.58656e-07 0)
(8.90748e-07 -4.44227e-07 0)
(9.47011e-07 -4.30064e-07 0)
(1.00286e-06 -4.16191e-07 0)
(1.0582e-06 -4.0259e-07 0)
(1.11308e-06 -3.89202e-07 0)
(1.16754e-06 -3.76014e-07 0)
(1.2215e-06 -3.62942e-07 0)
(1.27498e-06 -3.49911e-07 0)
(1.32806e-06 -3.36838e-07 0)
(1.38069e-06 -3.23628e-07 0)
(1.43292e-06 -3.10217e-07 0)
(1.48484e-06 -2.96546e-07 0)
(1.53644e-06 -2.82541e-07 0)
(1.58781e-06 -2.68112e-07 0)
(1.63901e-06 -2.53195e-07 0)
(1.69014e-06 -2.37871e-07 0)
(6.52751e-07 -5.23537e-07 0)
(7.09045e-07 -5.08761e-07 0)
(7.65353e-07 -4.94e-07 0)
(8.21379e-07 -4.79328e-07 0)
(8.77217e-07 -4.64831e-07 0)
(9.32824e-07 -4.50527e-07 0)
(9.8811e-07 -4.36454e-07 0)
(1.04297e-06 -4.22604e-07 0)
(1.09745e-06 -4.08942e-07 0)
(1.1516e-06 -3.9544e-07 0)
(1.2053e-06 -3.82034e-07 0)
(1.25859e-06 -3.68665e-07 0)
(1.31152e-06 -3.55261e-07 0)
(1.36405e-06 -3.41745e-07 0)
(1.41623e-06 -3.28065e-07 0)
(1.46813e-06 -3.14159e-07 0)
(1.51975e-06 -2.99951e-07 0)
(1.57117e-06 -2.85381e-07 0)
(1.62243e-06 -2.70492e-07 0)
(1.67363e-06 -2.55197e-07 0)
(6.42962e-07 -5.43279e-07 0)
(6.98363e-07 -5.28685e-07 0)
(7.5381e-07 -5.1404e-07 0)
(8.09043e-07 -4.99402e-07 0)
(8.64158e-07 -4.84866e-07 0)
(9.19122e-07 -4.70455e-07 0)
(9.73845e-07 -4.5623e-07 0)
(1.02822e-06 -4.4218e-07 0)
(1.0823e-06 -4.28312e-07 0)
(1.13611e-06 -4.14572e-07 0)
(1.18954e-06 -4.00906e-07 0)
(1.2426e-06 -3.87271e-07 0)
(1.29536e-06 -3.73605e-07 0)
(1.34777e-06 -3.59849e-07 0)
(1.39989e-06 -3.4595e-07 0)
(1.45176e-06 -3.31846e-07 0)
(1.50338e-06 -3.17479e-07 0)
(1.55482e-06 -3.02845e-07 0)
(1.60613e-06 -2.87975e-07 0)
(1.65739e-06 -2.72763e-07 0)
(6.33343e-07 -5.62459e-07 0)
(6.87893e-07 -5.48062e-07 0)
(7.42523e-07 -5.33531e-07 0)
(7.97004e-07 -5.18935e-07 0)
(8.51427e-07 -5.04381e-07 0)
(9.05772e-07 -4.89904e-07 0)
(9.59949e-07 -4.75589e-07 0)
(1.01385e-06 -4.61399e-07 0)
(1.06753e-06 -4.47373e-07 0)
(1.12098e-06 -4.33447e-07 0)
(1.17412e-06 -4.19571e-07 0)
(1.22695e-06 -4.05715e-07 0)
(1.27955e-06 -3.91835e-07 0)
(1.33184e-06 -3.7788e-07 0)
(1.38387e-06 -3.63796e-07 0)
(1.4357e-06 -3.49528e-07 0)
(1.4873e-06 -3.35058e-07 0)
(1.53877e-06 -3.20418e-07 0)
(1.59012e-06 -3.05508e-07 0)
(1.64143e-06 -2.9042e-07 0)
(6.23735e-07 -5.81191e-07 0)
(6.77482e-07 -5.66966e-07 0)
(7.31347e-07 -5.52532e-07 0)
(7.85118e-07 -5.37987e-07 0)
(8.38891e-07 -5.23448e-07 0)
(8.92655e-07 -5.08955e-07 0)
(9.46309e-07 -4.9458e-07 0)
(9.9975e-07 -4.8029e-07 0)
(1.05302e-06 -4.66113e-07 0)
(1.10614e-06 -4.52027e-07 0)
(1.15899e-06 -4.37996e-07 0)
(1.21161e-06 -4.23988e-07 0)
(1.26403e-06 -4.09957e-07 0)
(1.31619e-06 -3.95851e-07 0)
(1.36814e-06 -3.81623e-07 0)
(1.41991e-06 -3.67246e-07 0)
(1.47151e-06 -3.5273e-07 0)
(1.523e-06 -3.38067e-07 0)
(1.57438e-06 -3.23169e-07 0)
(1.6257e-06 -3.08139e-07 0)
(6.14004e-07 -5.99523e-07 0)
(6.66997e-07 -5.8542e-07 0)
(7.20138e-07 -5.71066e-07 0)
(7.73257e-07 -5.56596e-07 0)
(8.26432e-07 -5.42095e-07 0)
(8.79657e-07 -5.27615e-07 0)
(9.32821e-07 -5.13195e-07 0)
(9.8582e-07 -4.98859e-07 0)
(1.03871e-06 -4.84591e-07 0)
(1.09151e-06 -4.70387e-07 0)
(1.1441e-06 -4.56237e-07 0)
(1.19651e-06 -4.4211e-07 0)
(1.24876e-06 -4.2796e-07 0)
(1.30078e-06 -4.13736e-07 0)
(1.35264e-06 -3.9941e-07 0)
(1.40439e-06 -3.84979e-07 0)
(1.45599e-06 -3.70442e-07 0)
(1.50749e-06 -3.55709e-07 0)
(1.55887e-06 -3.40887e-07 0)
(1.61018e-06 -3.25925e-07 0)
(6.04019e-07 -6.17393e-07 0)
(6.56277e-07 -6.03416e-07 0)
(7.08733e-07 -5.89194e-07 0)
(7.61284e-07 -5.74831e-07 0)
(8.13915e-07 -5.60376e-07 0)
(8.66648e-07 -5.45921e-07 0)
(9.19358e-07 -5.31492e-07 0)
(9.71956e-07 -5.17117e-07 0)
(1.02451e-06 -5.02794e-07 0)
(1.07703e-06 -4.88525e-07 0)
(1.1294e-06 -4.743e-07 0)
(1.18159e-06 -4.60087e-07 0)
(1.23367e-06 -4.45844e-07 0)
(1.28558e-06 -4.3154e-07 0)
(1.3374e-06 -4.17164e-07 0)
(1.38914e-06 -4.02708e-07 0)
(1.4407e-06 -3.88131e-07 0)
(1.49213e-06 -3.73379e-07 0)
(1.54352e-06 -3.58572e-07 0)
(1.59496e-06 -3.43689e-07 0)
(5.93549e-07 -6.34835e-07 0)
(6.45177e-07 -6.21023e-07 0)
(6.97073e-07 -6.06945e-07 0)
(7.4907e-07 -5.92678e-07 0)
(8.01212e-07 -5.78323e-07 0)
(8.53494e-07 -5.63909e-07 0)
(9.05812e-07 -5.49495e-07 0)
(9.58089e-07 -5.35111e-07 0)
(1.01038e-06 -5.20772e-07 0)
(1.06267e-06 -5.06477e-07 0)
(1.1148e-06 -4.92211e-07 0)
(1.16679e-06 -4.77944e-07 0)
(1.21876e-06 -4.6365e-07 0)
(1.27065e-06 -4.49308e-07 0)
(1.3224e-06 -4.34912e-07 0)
(1.37399e-06 -4.20428e-07 0)
(1.42551e-06 -4.05795e-07 0)
(1.47705e-06 -3.91105e-07 0)
(1.52843e-06 -3.76287e-07 0)
(1.57972e-06 -3.61448e-07 0)
(5.82441e-07 -6.52067e-07 0)
(6.33489e-07 -6.38374e-07 0)
(6.84863e-07 -6.24411e-07 0)
(7.36395e-07 -6.10259e-07 0)
(7.88113e-07 -5.95984e-07 0)
(8.40046e-07 -5.81641e-07 0)
(8.92108e-07 -5.67275e-07 0)
(9.44178e-07 -5.52913e-07 0)
(9.96234e-07 -5.38578e-07 0)
(1.04827e-06 -5.24276e-07 0)
(1.10024e-06 -5.09991e-07 0)
(1.15221e-06 -4.95699e-07 0)
(1.20411e-06 -4.81384e-07 0)
(1.25581e-06 -4.6703e-07 0)
(1.30746e-06 -4.52615e-07 0)
(1.35911e-06 -4.38102e-07 0)
(1.41061e-06 -4.2346e-07 0)
(1.46206e-06 -4.08749e-07 0)
(1.51345e-06 -3.93949e-07 0)
(1.56475e-06 -3.79145e-07 0)
(5.70525e-07 -6.68827e-07 0)
(6.21054e-07 -6.55349e-07 0)
(6.71966e-07 -6.41566e-07 0)
(7.231e-07 -6.27556e-07 0)
(7.74559e-07 -6.13401e-07 0)
(8.26337e-07 -5.99162e-07 0)
(8.78216e-07 -5.84875e-07 0)
(9.30039e-07 -5.70573e-07 0)
(9.81932e-07 -5.56279e-07 0)
(1.03395e-06 -5.41995e-07 0)
(1.08588e-06 -5.27716e-07 0)
(1.13768e-06 -5.13424e-07 0)
(1.18948e-06 -4.99104e-07 0)
(1.24118e-06 -4.84746e-07 0)
(1.29277e-06 -4.7031e-07 0)
(1.34435e-06 -4.55775e-07 0)
(1.39583e-06 -4.41197e-07 0)
(1.44725e-06 -4.26398e-07 0)
(1.49863e-06 -4.11587e-07 0)
(1.54982e-06 -3.96703e-07 0)
(3.71827e-08 -5.23797e-07 0)
(1.11812e-07 -5.16631e-07 0)
(1.87232e-07 -5.02336e-07 0)
(2.63876e-07 -4.81771e-07 0)
(3.42076e-07 -4.55527e-07 0)
(4.22032e-07 -4.24737e-07 0)
(5.03795e-07 -3.90469e-07 0)
(5.87285e-07 -3.53869e-07 0)
(6.72406e-07 -3.16106e-07 0)
(7.58959e-07 -2.78068e-07 0)
(3.67394e-08 -5.33809e-07 0)
(1.10423e-07 -5.27319e-07 0)
(1.84696e-07 -5.14293e-07 0)
(2.59873e-07 -4.95574e-07 0)
(3.36193e-07 -4.71599e-07 0)
(4.13771e-07 -4.43348e-07 0)
(4.92574e-07 -4.11757e-07 0)
(5.72439e-07 -3.77819e-07 0)
(6.52964e-07 -3.42685e-07 0)
(7.3384e-07 -3.07157e-07 0)
(3.62984e-08 -5.443e-07 0)
(1.09039e-07 -5.38444e-07 0)
(1.8217e-07 -5.26587e-07 0)
(2.55893e-07 -5.09573e-07 0)
(3.30361e-07 -4.87731e-07 0)
(4.05607e-07 -4.61887e-07 0)
(4.81552e-07 -4.32876e-07 0)
(5.58061e-07 -4.01517e-07 0)
(6.34788e-07 -3.68823e-07 0)
(7.11573e-07 -3.35255e-07 0)
(3.58532e-08 -5.55248e-07 0)
(1.07662e-07 -5.4993e-07 0)
(1.79715e-07 -5.39075e-07 0)
(2.52118e-07 -5.23502e-07 0)
(3.24955e-07 -5.03486e-07 0)
(3.98191e-07 -4.79692e-07 0)
(4.71717e-07 -4.5291e-07 0)
(5.45379e-07 -4.23842e-07 0)
(6.18922e-07 -3.9341e-07 0)
(6.92186e-07 -3.6194e-07 0)
(3.54038e-08 -5.66603e-07 0)
(1.06259e-07 -5.61763e-07 0)
(1.77249e-07 -5.51802e-07 0)
(2.48395e-07 -5.37497e-07 0)
(3.19719e-07 -5.19113e-07 0)
(3.91153e-07 -4.97168e-07 0)
(4.62583e-07 -4.72408e-07 0)
(5.33868e-07 -4.45427e-07 0)
(6.04844e-07 -4.17015e-07 0)
(6.75243e-07 -3.87485e-07 0)
(3.49535e-08 -5.78325e-07 0)
(1.04854e-07 -5.73887e-07 0)
(1.74809e-07 -5.64713e-07 0)
(2.44773e-07 -5.51496e-07 0)
(3.14718e-07 -5.34526e-07 0)
(3.84563e-07 -5.14216e-07 0)
(4.54183e-07 -4.91239e-07 0)
(5.23437e-07 -4.66139e-07 0)
(5.92243e-07 -4.39594e-07 0)
(6.60254e-07 -4.11943e-07 0)
(3.44825e-08 -5.90383e-07 0)
(1.03428e-07 -5.86279e-07 0)
(1.72353e-07 -5.77827e-07 0)
(2.4118e-07 -5.65564e-07 0)
(3.09851e-07 -5.49833e-07 0)
(3.78269e-07 -5.30989e-07 0)
(4.46326e-07 -5.09605e-07 0)
(5.13856e-07 -4.86186e-07 0)
(5.80836e-07 -4.61324e-07 0)
(6.46872e-07 -4.354e-07 0)
(3.40018e-08 -6.02739e-07 0)
(1.01989e-07 -5.98904e-07 0)
(1.69891e-07 -5.91093e-07 0)
(2.37622e-07 -5.79661e-07 0)
(3.05116e-07 -5.65011e-07 0)
(3.72244e-07 -5.47472e-07 0)
(4.38917e-07 -5.27511e-07 0)
(5.04962e-07 -5.05591e-07 0)
(5.7039e-07 -4.82267e-07 0)
(6.34792e-07 -4.57933e-07 0)
(3.35257e-08 -6.15357e-07 0)
(1.00535e-07 -6.11743e-07 0)
(1.67414e-07 -6.04493e-07 0)
(2.34079e-07 -5.93808e-07 0)
(3.00462e-07 -5.80121e-07 0)
(3.66418e-07 -5.63738e-07 0)
(4.31861e-07 -5.45048e-07 0)
(4.96621e-07 -5.24463e-07 0)
(5.60722e-07 -5.02536e-07 0)
(6.23759e-07 -4.79648e-07 0)
(3.30452e-08 -6.28206e-07 0)
(9.90542e-08 -6.24774e-07 0)
(1.64911e-07 -6.18007e-07 0)
(2.30542e-07 -6.08003e-07 0)
(2.95863e-07 -5.95179e-07 0)
(3.60744e-07 -5.79811e-07 0)
(4.25085e-07 -5.62254e-07 0)
(4.88713e-07 -5.42888e-07 0)
(5.51662e-07 -5.22229e-07 0)
(6.13549e-07 -5.00644e-07 0)
(3.25439e-08 -6.41248e-07 0)
(9.75373e-08 -6.37973e-07 0)
(1.62378e-07 -6.31627e-07 0)
(2.26997e-07 -6.22248e-07 0)
(2.91294e-07 -6.102e-07 0)
(3.55168e-07 -5.95725e-07 0)
(4.18503e-07 -5.79182e-07 0)
(4.81118e-07 -5.60937e-07 0)
(5.43052e-07 -5.41405e-07 0)
(6.03958e-07 -5.20976e-07 0)
(3.20245e-08 -6.54427e-07 0)
(9.5996e-08 -6.51304e-07 0)
(1.59822e-07 -6.45333e-07 0)
(2.23434e-07 -6.36515e-07 0)
(2.86736e-07 -6.25158e-07 0)
(3.49643e-07 -6.11485e-07 0)
(4.12033e-07 -5.95855e-07 0)
(4.73722e-07 -5.78615e-07 0)
(5.34746e-07 -5.60074e-07 0)
(5.94799e-07 -5.40688e-07 0)
(3.14991e-08 -6.67697e-07 0)
(9.44405e-08 -6.64732e-07 0)
(1.57243e-07 -6.59098e-07 0)
(2.19841e-07 -6.50778e-07 0)
(2.8216e-07 -6.40033e-07 0)
(3.44117e-07 -6.27092e-07 0)
(4.05596e-07 -6.12295e-07 0)
(4.66416e-07 -5.95934e-07 0)
(5.26604e-07 -5.78298e-07 0)
(5.85895e-07 -5.5987e-07 0)
(3.09712e-08 -6.81022e-07 0)
(9.28627e-08 -6.78215e-07 0)
(1.54622e-07 -6.72876e-07 0)
(2.16194e-07 -6.65009e-07 0)
(2.77526e-07 -6.54826e-07 0)
(3.38537e-07 -6.42558e-07 0)
(3.99116e-07 -6.28516e-07 0)
(4.59097e-07 -6.12936e-07 0)
(5.18494e-07 -5.96163e-07 0)
(5.77088e-07 -5.78583e-07 0)
(3.04314e-08 -6.94378e-07 0)
(9.12396e-08 -6.91729e-07 0)
(1.5193e-07 -6.86655e-07 0)
(2.12457e-07 -6.79207e-07 0)
(2.72786e-07 -6.69548e-07 0)
(3.32837e-07 -6.57898e-07 0)
(3.92512e-07 -6.44506e-07 0)
(4.51662e-07 -6.29643e-07 0)
(5.10298e-07 -6.13672e-07 0)
(5.68243e-07 -5.96837e-07 0)
(2.98679e-08 -7.07716e-07 0)
(8.955e-08 -7.05235e-07 0)
(1.49137e-07 -7.00406e-07 0)
(2.08591e-07 -6.93336e-07 0)
(2.67886e-07 -6.84134e-07 0)
(3.26951e-07 -6.73032e-07 0)
(3.85706e-07 -6.60242e-07 0)
(4.44023e-07 -6.46089e-07 0)
(5.01912e-07 -6.30826e-07 0)
(5.59236e-07 -6.14722e-07 0)
(2.92736e-08 -7.2103e-07 0)
(8.77786e-08 -7.1872e-07 0)
(1.46216e-07 -7.141e-07 0)
(2.04551e-07 -7.0736e-07 0)
(2.62766e-07 -6.98605e-07 0)
(3.20807e-07 -6.88016e-07 0)
(3.7861e-07 -6.7581e-07 0)
(4.36076e-07 -6.6232e-07 0)
(4.9322e-07 -6.47661e-07 0)
(5.4992e-07 -6.32241e-07 0)
(2.86467e-08 -7.34217e-07 0)
(8.59148e-08 -7.32054e-07 0)
(1.43141e-07 -7.27644e-07 0)
(2.00294e-07 -7.2121e-07 0)
(2.57369e-07 -7.12843e-07 0)
(3.14334e-07 -7.0273e-07 0)
(3.7114e-07 -6.91093e-07 0)
(4.27719e-07 -6.78189e-07 0)
(4.84083e-07 -6.64158e-07 0)
(5.40149e-07 -6.49323e-07 0)
(2.79814e-08 -7.47311e-07 0)
(8.39332e-08 -7.4528e-07 0)
(1.39865e-07 -7.41097e-07 0)
(1.95753e-07 -7.34953e-07 0)
(2.51605e-07 -7.26965e-07 0)
(3.07421e-07 -7.17327e-07 0)
(3.6317e-07 -7.06238e-07 0)
(4.18797e-07 -6.93863e-07 0)
(4.74315e-07 -6.80444e-07 0)
(5.29703e-07 -6.66182e-07 0)
(2.72749e-08 -7.6006e-07 0)
(8.18232e-08 -7.58109e-07 0)
(1.36359e-07 -7.54155e-07 0)
(1.90886e-07 -7.48298e-07 0)
(2.45443e-07 -7.40685e-07 0)
(3.00037e-07 -7.31516e-07 0)
(3.54637e-07 -7.20942e-07 0)
(4.09201e-07 -7.09121e-07 0)
(4.6379e-07 -6.9626e-07 0)
(5.18459e-07 -6.82563e-07 0)
)


// ************************************************************************* //
