/*--------------------------------*- C++ -*----------------------------------*\
| =========                 |                                                 |
| \\      /  F ield         | foam-extend: Open Source CFD                    |
|  \\    /   O peration     | Version:     4.1                                |
|   \\  /    A nd           | Web:         http://www.foam-extend.org         |
|    \\/     M anipulation  |                                                 |
\*---------------------------------------------------------------------------*/
FoamFile
{
    version     2.0;
    format      ascii;
    class       vectorField;
    location    "2";
    object      solidsCellD_iteration16;
}
// * * * * * * * * * * * * * * * * * * * * * * * * * * * * * * * * * * * * * //


1000
(
(9.95196e-07 -3.92879e-07 0)
(9.41541e-07 -3.66912e-07 0)
(9.07773e-07 -3.51003e-07 0)
(8.88827e-07 -3.44397e-07 0)
(8.80244e-07 -3.43206e-07 0)
(8.79202e-07 -3.46143e-07 0)
(8.83771e-07 -3.51824e-07 0)
(8.92415e-07 -3.5958e-07 0)
(9.04418e-07 -3.68701e-07 0)
(9.18376e-07 -3.78676e-07 0)
(9.0014e-07 -4.29327e-07 0)
(8.43086e-07 -4.11937e-07 0)
(8.07112e-07 -4.01481e-07 0)
(7.86486e-07 -3.98577e-07 0)
(7.76512e-07 -3.99866e-07 0)
(7.74195e-07 -4.0455e-07 0)
(7.77504e-07 -4.11444e-07 0)
(7.84874e-07 -4.20132e-07 0)
(7.95489e-07 -4.29901e-07 0)
(8.07915e-07 -4.40547e-07 0)
(8.01319e-07 -4.63872e-07 0)
(7.43053e-07 -4.56059e-07 0)
(7.06244e-07 -4.51693e-07 0)
(6.84864e-07 -4.52852e-07 0)
(6.74131e-07 -4.56818e-07 0)
(6.7095e-07 -4.63331e-07 0)
(6.73285e-07 -4.71482e-07 0)
(6.79599e-07 -4.81052e-07 0)
(6.89022e-07 -4.91471e-07 0)
(7.00303e-07 -5.02524e-07 0)
(6.99391e-07 -4.95876e-07 0)
(6.4242e-07 -4.98057e-07 0)
(6.06358e-07 -5.00073e-07 0)
(5.85187e-07 -5.05459e-07 0)
(5.74307e-07 -5.12179e-07 0)
(5.70639e-07 -5.20542e-07 0)
(5.72173e-07 -5.29934e-07 0)
(5.7753e-07 -5.40359e-07 0)
(5.85798e-07 -5.514e-07 0)
(5.95873e-07 -5.62923e-07 0)
(5.95194e-07 -5.2469e-07 0)
(5.41838e-07 -5.36776e-07 0)
(5.08052e-07 -5.45091e-07 0)
(4.88123e-07 -5.54632e-07 0)
(4.77698e-07 -5.64048e-07 0)
(4.73861e-07 -5.74238e-07 0)
(4.74806e-07 -5.84858e-07 0)
(4.79276e-07 -5.96121e-07 0)
(4.86407e-07 -6.0779e-07 0)
(4.95161e-07 -6.19785e-07 0)
(4.89061e-07 -5.49784e-07 0)
(4.41762e-07 -5.7113e-07 0)
(4.11804e-07 -5.8534e-07 0)
(3.94001e-07 -5.98767e-07 0)
(3.84557e-07 -6.10702e-07 0)
(3.80887e-07 -6.22579e-07 0)
(3.81445e-07 -6.34327e-07 0)
(3.85074e-07 -6.46359e-07 0)
(3.91006e-07 -6.58625e-07 0)
(3.98308e-07 -6.71117e-07 0)
(3.81664e-07 -5.70548e-07 0)
(3.42449e-07 -5.99993e-07 0)
(3.17594e-07 -6.19385e-07 0)
(3.02759e-07 -6.36241e-07 0)
(2.94837e-07 -6.50378e-07 0)
(2.91666e-07 -6.63724e-07 0)
(2.91971e-07 -6.76456e-07 0)
(2.94765e-07 -6.89168e-07 0)
(2.99425e-07 -7.01956e-07 0)
(3.05177e-07 -7.14889e-07 0)
(2.73283e-07 -5.86573e-07 0)
(2.43896e-07 -6.22531e-07 0)
(2.25283e-07 -6.46059e-07 0)
(2.14166e-07 -6.65642e-07 0)
(2.08209e-07 -6.81551e-07 0)
(2.0577e-07 -6.96093e-07 0)
(2.05894e-07 -7.09642e-07 0)
(2.07851e-07 -7.22912e-07 0)
(2.11201e-07 -7.36131e-07 0)
(2.15348e-07 -7.4944e-07 0)
(1.64239e-07 -5.97471e-07 0)
(1.46048e-07 -6.37962e-07 0)
(1.34561e-07 -6.64369e-07 0)
(1.2766e-07 -6.85885e-07 0)
(1.2392e-07 -7.03032e-07 0)
(1.22358e-07 -7.18395e-07 0)
(1.22413e-07 -7.32527e-07 0)
(1.23604e-07 -7.46223e-07 0)
(1.25621e-07 -7.59756e-07 0)
(1.28115e-07 -7.73339e-07 0)
(5.48546e-08 -6.02966e-07 0)
(4.87071e-08 -6.45824e-07 0)
(4.47697e-08 -6.73698e-07 0)
(4.24139e-08 -6.96185e-07 0)
(4.1175e-08 -7.13974e-07 0)
(4.06434e-08 -7.29776e-07 0)
(4.06175e-08 -7.44175e-07 0)
(4.10009e-08 -7.58065e-07 0)
(4.16879e-08 -7.71771e-07 0)
(4.252e-08 -7.85511e-07 0)
(1.54832e-06 -1.78461e-08 0)
(1.56142e-06 -1.28488e-08 0)
(1.56995e-06 -9.71499e-09 0)
(1.57938e-06 -7.91024e-09 0)
(1.59005e-06 -6.93977e-09 0)
(1.60307e-06 -6.54396e-09 0)
(1.61854e-06 -6.57071e-09 0)
(1.6365e-06 -6.82912e-09 0)
(1.65693e-06 -7.26776e-09 0)
(1.67956e-06 -7.81733e-09 0)
(1.53695e-06 -5.35905e-08 0)
(1.54785e-06 -3.88921e-08 0)
(1.55501e-06 -2.9633e-08 0)
(1.5635e-06 -2.4349e-08 0)
(1.57352e-06 -2.1612e-08 0)
(1.58609e-06 -2.04819e-08 0)
(1.60124e-06 -2.05142e-08 0)
(1.61893e-06 -2.13422e-08 0)
(1.63913e-06 -2.27212e-08 0)
(1.66153e-06 -2.43328e-08 0)
(1.5143e-06 -8.96071e-08 0)
(1.52096e-06 -6.60572e-08 0)
(1.52544e-06 -5.12548e-08 0)
(1.53216e-06 -4.2734e-08 0)
(1.54101e-06 -3.83183e-08 0)
(1.55276e-06 -3.6616e-08 0)
(1.56726e-06 -3.67751e-08 0)
(1.58448e-06 -3.81572e-08 0)
(1.60421e-06 -4.04413e-08 0)
(1.62618e-06 -4.31306e-08 0)
(1.48073e-06 -1.26123e-07 0)
(1.48136e-06 -9.49693e-08 0)
(1.48199e-06 -7.54727e-08 0)
(1.48619e-06 -6.43154e-08 0)
(1.49335e-06 -5.85437e-08 0)
(1.50395e-06 -5.63718e-08 0)
(1.51756e-06 -5.66934e-08 0)
(1.5341e-06 -5.86532e-08 0)
(1.55318e-06 -6.17993e-08 0)
(1.57455e-06 -6.55339e-08 0)
(1.4367e-06 -1.63223e-07 0)
(1.42992e-06 -1.2616e-07 0)
(1.42581e-06 -1.03027e-07 0)
(1.42687e-06 -8.99177e-08 0)
(1.43195e-06 -8.32251e-08 0)
(1.44108e-06 -8.08371e-08 0)
(1.4536e-06 -8.14211e-08 0)
(1.46927e-06 -8.399e-08 0)
(1.48757e-06 -8.79719e-08 0)
(1.50823e-06 -9.27012e-08 0)
(1.38285e-06 -2.00976e-07 0)
(1.36767e-06 -1.60062e-07 0)
(1.35823e-06 -1.34554e-07 0)
(1.35577e-06 -1.20288e-07 0)
(1.35848e-06 -1.1316e-07 0)
(1.36594e-06 -1.1083e-07 0)
(1.37723e-06 -1.11804e-07 0)
(1.39192e-06 -1.15014e-07 0)
(1.40932e-06 -1.19818e-07 0)
(1.42916e-06 -1.25483e-07 0)
(1.31998e-06 -2.39275e-07 0)
(1.29589e-06 -1.96826e-07 0)
(1.28081e-06 -1.70365e-07 0)
(1.27462e-06 -1.55804e-07 0)
(1.27483e-06 -1.48752e-07 0)
(1.28052e-06 -1.46796e-07 0)
(1.29051e-06 -1.48313e-07 0)
(1.30414e-06 -1.52177e-07 0)
(1.3206e-06 -1.5775e-07 0)
(1.33959e-06 -1.64248e-07 0)
(1.24886e-06 -2.77915e-07 0)
(1.21596e-06 -2.36324e-07 0)
(1.19532e-06 -2.10417e-07 0)
(1.18541e-06 -1.96522e-07 0)
(1.18316e-06 -1.90113e-07 0)
(1.18708e-06 -1.88875e-07 0)
(1.19572e-06 -1.91123e-07 0)
(1.20825e-06 -1.9571e-07 0)
(1.22374e-06 -2.02025e-07 0)
(1.24179e-06 -2.09271e-07 0)
(1.17041e-06 -3.16663e-07 0)
(1.12932e-06 -2.78224e-07 0)
(1.10349e-06 -2.54373e-07 0)
(1.09008e-06 -2.42076e-07 0)
(1.08546e-06 -2.3687e-07 0)
(1.08758e-06 -2.36668e-07 0)
(1.09485e-06 -2.39825e-07 0)
(1.10622e-06 -2.452e-07 0)
(1.12073e-06 -2.52265e-07 0)
(1.13784e-06 -2.60033e-07 0)
(1.08557e-06 -3.55155e-07 0)
(1.03745e-06 -3.22e-07 0)
(1.00714e-06 -3.01541e-07 0)
(9.90674e-07 -2.91723e-07 0)
(9.83927e-07 -2.88281e-07 0)
(9.84456e-07 -2.89465e-07 0)
(9.90528e-07 -2.93766e-07 0)
(1.00075e-06 -3.00185e-07 0)
(1.01439e-06 -3.08117e-07 0)
(1.03026e-06 -3.16961e-07 0)
(1.70442e-06 -8.34293e-09 0)
(1.73146e-06 -8.51931e-09 0)
(1.76018e-06 -8.68172e-09 0)
(1.79048e-06 -8.81208e-09 0)
(1.82216e-06 -8.91295e-09 0)
(1.85513e-06 -8.97834e-09 0)
(1.88923e-06 -8.97447e-09 0)
(1.92435e-06 -8.9171e-09 0)
(1.96041e-06 -8.82931e-09 0)
(1.99731e-06 -8.69856e-09 0)
(2.03493e-06 -8.50822e-09 0)
(2.07318e-06 -8.25112e-09 0)
(2.11195e-06 -7.9201e-09 0)
(2.15116e-06 -7.51326e-09 0)
(2.1907e-06 -7.02924e-09 0)
(2.23047e-06 -6.45967e-09 0)
(2.27037e-06 -5.78905e-09 0)
(2.31023e-06 -4.99696e-09 0)
(2.35001e-06 -4.0661e-09 0)
(2.38929e-06 -2.98896e-09 0)
(1.68717e-06 -2.57869e-08 0)
(1.71564e-06 -2.61948e-08 0)
(1.74564e-06 -2.66047e-08 0)
(1.77706e-06 -2.69356e-08 0)
(1.80975e-06 -2.71382e-08 0)
(1.84359e-06 -2.7238e-08 0)
(1.87849e-06 -2.72104e-08 0)
(1.91436e-06 -2.70623e-08 0)
(1.9511e-06 -2.67857e-08 0)
(1.98861e-06 -2.63449e-08 0)
(2.02679e-06 -2.57262e-08 0)
(2.06556e-06 -2.49309e-08 0)
(2.10484e-06 -2.39402e-08 0)
(2.14453e-06 -2.27299e-08 0)
(2.18453e-06 -2.12759e-08 0)
(2.22473e-06 -1.95522e-08 0)
(2.26505e-06 -1.75207e-08 0)
(2.30529e-06 -1.51344e-08 0)
(2.34548e-06 -1.23347e-08 0)
(2.38511e-06 -9.10071e-09 0)
(1.65333e-06 -4.5306e-08 0)
(1.68462e-06 -4.56418e-08 0)
(1.71712e-06 -4.60101e-08 0)
(1.75069e-06 -4.63255e-08 0)
(1.78532e-06 -4.64861e-08 0)
(1.82092e-06 -4.65197e-08 0)
(1.85742e-06 -4.63598e-08 0)
(1.8947e-06 -4.6001e-08 0)
(1.93273e-06 -4.54302e-08 0)
(1.97142e-06 -4.46133e-08 0)
(2.01071e-06 -4.35358e-08 0)
(2.05051e-06 -4.21857e-08 0)
(2.09074e-06 -4.05173e-08 0)
(2.13131e-06 -3.84854e-08 0)
(2.17216e-06 -3.60533e-08 0)
(2.21317e-06 -3.31791e-08 0)
(2.25428e-06 -2.97953e-08 0)
(2.29532e-06 -2.58283e-08 0)
(2.33627e-06 -2.1169e-08 0)
(2.3767e-06 -1.5789e-08 0)
(1.60387e-06 -6.80559e-08 0)
(1.63916e-06 -6.78476e-08 0)
(1.67528e-06 -6.7751e-08 0)
(1.71202e-06 -6.77131e-08 0)
(1.74953e-06 -6.75431e-08 0)
(1.78766e-06 -6.72752e-08 0)
(1.82646e-06 -6.67898e-08 0)
(1.86583e-06 -6.6085e-08 0)
(1.9058e-06 -6.51305e-08 0)
(1.94627e-06 -6.38694e-08 0)
(1.98719e-06 -6.22646e-08 0)
(2.02851e-06 -6.02874e-08 0)
(2.07016e-06 -5.78832e-08 0)
(2.11206e-06 -5.49984e-08 0)
(2.15417e-06 -5.15877e-08 0)
(2.19639e-06 -4.75751e-08 0)
(2.23866e-06 -4.28669e-08 0)
(2.28082e-06 -3.73539e-08 0)
(2.32288e-06 -3.08707e-08 0)
(2.36443e-06 -2.34035e-08 0)
(1.54027e-06 -9.50659e-08 0)
(1.58062e-06 -9.36807e-08 0)
(1.62134e-06 -9.25761e-08 0)
(1.66209e-06 -9.17731e-08 0)
(1.70324e-06 -9.09198e-08 0)
(1.74463e-06 -9.00716e-08 0)
(1.78639e-06 -8.90426e-08 0)
(1.82847e-06 -8.78197e-08 0)
(1.8709e-06 -8.63255e-08 0)
(1.91363e-06 -8.44831e-08 0)
(1.95665e-06 -8.22496e-08 0)
(1.99993e-06 -7.95797e-08 0)
(2.04343e-06 -7.6399e-08 0)
(2.08708e-06 -7.26347e-08 0)
(2.13085e-06 -6.82219e-08 0)
(2.17465e-06 -6.30575e-08 0)
(2.21844e-06 -5.70222e-08 0)
(2.26207e-06 -4.99785e-08 0)
(2.30559e-06 -4.17086e-08 0)
(2.3486e-06 -3.22084e-08 0)
(1.46429e-06 -1.27118e-07 0)
(1.51046e-06 -1.2381e-07 0)
(1.5566e-06 -1.21026e-07 0)
(1.60212e-06 -1.18945e-07 0)
(1.64761e-06 -1.17e-07 0)
(1.69291e-06 -1.15237e-07 0)
(1.7382e-06 -1.13372e-07 0)
(1.78351e-06 -1.11384e-07 0)
(1.82891e-06 -1.09163e-07 0)
(1.87438e-06 -1.06605e-07 0)
(1.91995e-06 -1.03645e-07 0)
(1.96561e-06 -1.00213e-07 0)
(2.01132e-06 -9.62059e-08 0)
(2.05706e-06 -9.15321e-08 0)
(2.10281e-06 -8.60981e-08 0)
(2.1485e-06 -7.97844e-08 0)
(2.19413e-06 -7.24351e-08 0)
(2.23953e-06 -6.38966e-08 0)
(2.28482e-06 -5.39053e-08 0)
(2.32958e-06 -4.24281e-08 0)
(1.37807e-06 -1.64599e-07 0)
(1.4306e-06 -1.5865e-07 0)
(1.48273e-06 -1.53543e-07 0)
(1.53355e-06 -1.49628e-07 0)
(1.58387e-06 -1.46124e-07 0)
(1.63356e-06 -1.43046e-07 0)
(1.68286e-06 -1.40052e-07 0)
(1.73185e-06 -1.37056e-07 0)
(1.78062e-06 -1.33916e-07 0)
(1.82924e-06 -1.30497e-07 0)
(1.87773e-06 -1.26693e-07 0)
(1.92611e-06 -1.224e-07 0)
(1.97437e-06 -1.17491e-07 0)
(2.02253e-06 -1.11859e-07 0)
(2.07057e-06 -1.05382e-07 0)
(2.11846e-06 -9.79201e-08 0)
(2.16622e-06 -8.92787e-08 0)
(2.21368e-06 -7.92796e-08 0)
(2.26098e-06 -6.76256e-08 0)
(2.30775e-06 -5.42476e-08 0)
(1.28362e-06 -2.077e-07 0)
(1.34273e-06 -1.98218e-07 0)
(1.40121e-06 -1.90075e-07 0)
(1.45772e-06 -1.83691e-07 0)
(1.51333e-06 -1.78176e-07 0)
(1.5678e-06 -1.73382e-07 0)
(1.62153e-06 -1.6896e-07 0)
(1.67458e-06 -1.64722e-07 0)
(1.72711e-06 -1.60475e-07 0)
(1.77918e-06 -1.56045e-07 0)
(1.8309e-06 -1.51286e-07 0)
(1.88228e-06 -1.46053e-07 0)
(1.93337e-06 -1.40196e-07 0)
(1.98421e-06 -1.33585e-07 0)
(2.03482e-06 -1.26068e-07 0)
(2.08516e-06 -1.17474e-07 0)
(2.13527e-06 -1.0758e-07 0)
(2.18503e-06 -9.61726e-08 0)
(2.23456e-06 -8.29249e-08 0)
(2.28356e-06 -6.77381e-08 0)
(1.18315e-06 -2.56288e-07 0)
(1.24887e-06 -2.42669e-07 0)
(1.31375e-06 -2.311e-07 0)
(1.37618e-06 -2.21689e-07 0)
(1.43724e-06 -2.13695e-07 0)
(1.49678e-06 -2.06763e-07 0)
(1.55518e-06 -2.0055e-07 0)
(1.61256e-06 -1.94763e-07 0)
(1.66909e-06 -1.89166e-07 0)
(1.7249e-06 -1.83532e-07 0)
(1.78008e-06 -1.77665e-07 0)
(1.83473e-06 -1.71384e-07 0)
(1.8889e-06 -1.64508e-07 0)
(1.94267e-06 -1.56876e-07 0)
(1.99606e-06 -1.483e-07 0)
(2.04907e-06 -1.3857e-07 0)
(2.10174e-06 -1.27444e-07 0)
(2.154e-06 -1.14666e-07 0)
(2.20597e-06 -9.98983e-08 0)
(2.25742e-06 -8.30064e-08 0)
(1.07869e-06 -3.09646e-07 0)
(1.15159e-06 -2.90399e-07 0)
(1.22286e-06 -2.74842e-07 0)
(1.29144e-06 -2.61948e-07 0)
(1.35801e-06 -2.51168e-07 0)
(1.42277e-06 -2.41878e-07 0)
(1.48596e-06 -2.33678e-07 0)
(1.54779e-06 -2.26193e-07 0)
(1.60846e-06 -2.19133e-07 0)
(1.66812e-06 -2.12213e-07 0)
(1.72691e-06 -2.0519e-07 0)
(1.78494e-06 -1.97842e-07 0)
(1.84231e-06 -1.89952e-07 0)
(1.8991e-06 -1.81323e-07 0)
(1.95537e-06 -1.7173e-07 0)
(2.01114e-06 -1.60929e-07 0)
(2.06648e-06 -1.48661e-07 0)
(2.12133e-06 -1.34612e-07 0)
(2.17587e-06 -1.18446e-07 0)
(2.22991e-06 -9.99694e-08 0)
(9.99634e-07 -3.62723e-07 0)
(1.07782e-06 -3.38385e-07 0)
(1.15325e-06 -3.19506e-07 0)
(1.22609e-06 -3.03484e-07 0)
(1.29652e-06 -2.90001e-07 0)
(1.36488e-06 -2.78339e-07 0)
(1.4314e-06 -2.68035e-07 0)
(1.49632e-06 -2.58688e-07 0)
(1.55985e-06 -2.49958e-07 0)
(1.62216e-06 -2.41526e-07 0)
(1.68339e-06 -2.33123e-07 0)
(1.7437e-06 -2.24502e-07 0)
(1.80319e-06 -2.1542e-07 0)
(1.86196e-06 -2.05654e-07 0)
(1.92006e-06 -1.94961e-07 0)
(1.97758e-06 -1.83065e-07 0)
(2.03456e-06 -1.6972e-07 0)
(2.09105e-06 -1.54563e-07 0)
(2.14718e-06 -1.37263e-07 0)
(2.20284e-06 -1.17583e-07 0)
(9.55396e-07 -4.06648e-07 0)
(1.03436e-06 -3.8137e-07 0)
(1.11053e-06 -3.60592e-07 0)
(1.18456e-06 -3.42618e-07 0)
(1.25634e-06 -3.27147e-07 0)
(1.3261e-06 -3.13578e-07 0)
(1.39402e-06 -3.01468e-07 0)
(1.4603e-06 -2.90428e-07 0)
(1.52509e-06 -2.80103e-07 0)
(1.58857e-06 -2.70177e-07 0)
(1.65089e-06 -2.60378e-07 0)
(1.71217e-06 -2.50452e-07 0)
(1.77254e-06 -2.40145e-07 0)
(1.83209e-06 -2.29227e-07 0)
(1.89089e-06 -2.17448e-07 0)
(1.94904e-06 -2.04524e-07 0)
(2.0066e-06 -1.90231e-07 0)
(2.06363e-06 -1.74197e-07 0)
(2.12029e-06 -1.56088e-07 0)
(2.17649e-06 -1.35664e-07 0)
(9.18486e-07 -4.48306e-07 0)
(9.96665e-07 -4.22587e-07 0)
(1.07285e-06 -4.00715e-07 0)
(1.14721e-06 -3.81369e-07 0)
(1.2196e-06 -3.64335e-07 0)
(1.29012e-06 -3.4914e-07 0)
(1.35889e-06 -3.35411e-07 0)
(1.42604e-06 -3.22787e-07 0)
(1.4917e-06 -3.10935e-07 0)
(1.55601e-06 -2.99555e-07 0)
(1.61911e-06 -2.88386e-07 0)
(1.68113e-06 -2.77168e-07 0)
(1.74217e-06 -2.65643e-07 0)
(1.80232e-06 -2.53586e-07 0)
(1.86168e-06 -2.40748e-07 0)
(1.92034e-06 -2.26843e-07 0)
(1.97838e-06 -2.11658e-07 0)
(2.03589e-06 -1.94836e-07 0)
(2.093e-06 -1.7604e-07 0)
(2.14969e-06 -1.55052e-07 0)
(8.86207e-07 -4.88656e-07 0)
(9.63332e-07 -4.62819e-07 0)
(1.03894e-06 -4.40153e-07 0)
(1.11307e-06 -4.19678e-07 0)
(1.18551e-06 -4.01299e-07 0)
(1.2563e-06 -3.84663e-07 0)
(1.32548e-06 -3.69458e-07 0)
(1.39313e-06 -3.5536e-07 0)
(1.45933e-06 -3.42067e-07 0)
(1.52421e-06 -3.29305e-07 0)
(1.58788e-06 -3.16824e-07 0)
(1.65045e-06 -3.04364e-07 0)
(1.71201e-06 -2.9167e-07 0)
(1.77266e-06 -2.78529e-07 0)
(1.83248e-06 -2.64689e-07 0)
(1.89159e-06 -2.49879e-07 0)
(1.95006e-06 -2.33888e-07 0)
(2.008e-06 -2.16379e-07 0)
(2.06552e-06 -1.97034e-07 0)
(2.1227e-06 -1.75667e-07 0)
(8.58028e-07 -5.27211e-07 0)
(9.33813e-07 -5.01497e-07 0)
(1.0085e-06 -4.78398e-07 0)
(1.082e-06 -4.57145e-07 0)
(1.1541e-06 -4.37726e-07 0)
(1.22478e-06 -4.19903e-07 0)
(1.29401e-06 -4.03417e-07 0)
(1.36182e-06 -3.88e-07 0)
(1.4283e-06 -3.73391e-07 0)
(1.4935e-06 -3.59343e-07 0)
(1.55753e-06 -3.45627e-07 0)
(1.62047e-06 -3.31988e-07 0)
(1.6824e-06 -3.18184e-07 0)
(1.74342e-06 -3.0402e-07 0)
(1.80361e-06 -2.89238e-07 0)
(1.86308e-06 -2.73598e-07 0)
(1.92191e-06 -2.56881e-07 0)
(1.98023e-06 -2.3878e-07 0)
(2.03812e-06 -2.1901e-07 0)
(2.09576e-06 -1.97418e-07 0)
(8.33145e-07 -5.64234e-07 0)
(9.07486e-07 -5.38782e-07 0)
(9.8107e-07 -5.15453e-07 0)
(1.05367e-06 -4.93643e-07 0)
(1.12516e-06 -4.73416e-07 0)
(1.19543e-06 -4.54609e-07 0)
(1.26443e-06 -4.37023e-07 0)
(1.33217e-06 -4.2045e-07 0)
(1.39867e-06 -4.0466e-07 0)
(1.46399e-06 -3.89442e-07 0)
(1.52819e-06 -3.74588e-07 0)
(1.59133e-06 -3.59858e-07 0)
(1.6535e-06 -3.45024e-07 0)
(1.71478e-06 -3.29914e-07 0)
(1.77524e-06 -3.14266e-07 0)
(1.83499e-06 -2.9788e-07 0)
(1.89412e-06 -2.80529e-07 0)
(1.95274e-06 -2.61939e-07 0)
(2.01099e-06 -2.41867e-07 0)
(2.06903e-06 -2.20174e-07 0)
(8.11036e-07 -5.99757e-07 0)
(8.83892e-07 -5.74661e-07 0)
(9.56237e-07 -5.51268e-07 0)
(1.0278e-06 -5.29096e-07 0)
(1.09848e-06 -5.08266e-07 0)
(1.16813e-06 -4.88663e-07 0)
(1.23669e-06 -4.70159e-07 0)
(1.30414e-06 -4.5259e-07 0)
(1.37048e-06 -4.3576e-07 0)
(1.43573e-06 -4.19492e-07 0)
(1.49993e-06 -4.03606e-07 0)
(1.56314e-06 -3.87877e-07 0)
(1.62541e-06 -3.72102e-07 0)
(1.68683e-06 -3.56131e-07 0)
(1.74747e-06 -3.39699e-07 0)
(1.80743e-06 -3.22648e-07 0)
(1.86678e-06 -3.04752e-07 0)
(1.92567e-06 -2.85773e-07 0)
(1.98423e-06 -2.65503e-07 0)
(2.04259e-06 -2.43808e-07 0)
(7.91213e-07 -6.33906e-07 0)
(8.62602e-07 -6.09215e-07 0)
(9.33638e-07 -5.85865e-07 0)
(1.00408e-06 -5.63476e-07 0)
(1.07381e-06 -5.42196e-07 0)
(1.14269e-06 -5.21961e-07 0)
(1.21065e-06 -5.02701e-07 0)
(1.27765e-06 -4.84286e-07 0)
(1.34366e-06 -4.66553e-07 0)
(1.40869e-06 -4.49359e-07 0)
(1.47276e-06 -4.32553e-07 0)
(1.5359e-06 -4.1593e-07 0)
(1.59818e-06 -3.99309e-07 0)
(1.65966e-06 -3.82566e-07 0)
(1.72039e-06 -3.65442e-07 0)
(1.78049e-06 -3.4781e-07 0)
(1.84003e-06 -3.29461e-07 0)
(1.89914e-06 -3.10188e-07 0)
(1.95795e-06 -2.89805e-07 0)
(2.01658e-06 -2.682e-07 0)
(7.73245e-07 -6.6679e-07 0)
(8.4318e-07 -6.42524e-07 0)
(9.12898e-07 -6.19288e-07 0)
(9.82163e-07 -5.96786e-07 0)
(1.05087e-06 -5.7518e-07 0)
(1.11889e-06 -5.54457e-07 0)
(1.18615e-06 -5.34583e-07 0)
(1.25257e-06 -5.1546e-07 0)
(1.31813e-06 -4.96954e-07 0)
(1.38283e-06 -4.78958e-07 0)
(1.44666e-06 -4.61347e-07 0)
(1.50966e-06 -4.43936e-07 0)
(1.57186e-06 -4.26571e-07 0)
(1.63332e-06 -4.09147e-07 0)
(1.6941e-06 -3.91422e-07 0)
(1.75429e-06 -3.73295e-07 0)
(1.81396e-06 -3.5458e-07 0)
(1.87325e-06 -3.35091e-07 0)
(1.93224e-06 -3.14671e-07 0)
(1.99113e-06 -2.93238e-07 0)
(7.56761e-07 -6.98515e-07 0)
(8.25269e-07 -6.74676e-07 0)
(8.93689e-07 -6.51598e-07 0)
(9.61758e-07 -6.29057e-07 0)
(1.02942e-06 -6.0723e-07 0)
(1.09653e-06 -5.86136e-07 0)
(1.16301e-06 -5.6577e-07 0)
(1.22879e-06 -5.46062e-07 0)
(1.29383e-06 -5.26905e-07 0)
(1.35811e-06 -5.08225e-07 0)
(1.42164e-06 -4.89922e-07 0)
(1.48441e-06 -4.71828e-07 0)
(1.54647e-06 -4.53817e-07 0)
(1.60786e-06 -4.35805e-07 0)
(1.66862e-06 -4.17566e-07 0)
(1.72886e-06 -3.9903e-07 0)
(1.78862e-06 -3.80028e-07 0)
(1.84803e-06 -3.6039e-07 0)
(1.90716e-06 -3.40004e-07 0)
(1.96626e-06 -3.18817e-07 0)
(7.41419e-07 -7.29194e-07 0)
(8.08562e-07 -7.05768e-07 0)
(8.7571e-07 -6.82873e-07 0)
(9.42609e-07 -6.60349e-07 0)
(1.00923e-06 -6.38385e-07 0)
(1.07541e-06 -6.17015e-07 0)
(1.14108e-06 -5.9626e-07 0)
(1.20618e-06 -5.76072e-07 0)
(1.27064e-06 -5.56375e-07 0)
(1.33446e-06 -5.3712e-07 0)
(1.39762e-06 -5.1823e-07 0)
(1.46013e-06 -4.99553e-07 0)
(1.522e-06 -4.80991e-07 0)
(1.58327e-06 -4.62478e-07 0)
(1.64397e-06 -4.4381e-07 0)
(1.70421e-06 -4.24938e-07 0)
(1.76401e-06 -4.05715e-07 0)
(1.82349e-06 -3.85994e-07 0)
(1.88276e-06 -3.65708e-07 0)
(1.94198e-06 -3.44814e-07 0)
(7.26933e-07 -7.58929e-07 0)
(7.92783e-07 -7.35891e-07 0)
(8.58704e-07 -7.13194e-07 0)
(9.24482e-07 -6.90732e-07 0)
(9.9007e-07 -6.68691e-07 0)
(1.05533e-06 -6.47116e-07 0)
(1.12018e-06 -6.26058e-07 0)
(1.18457e-06 -6.05486e-07 0)
(1.24844e-06 -5.85347e-07 0)
(1.31177e-06 -5.65616e-07 0)
(1.37454e-06 -5.46233e-07 0)
(1.43675e-06 -5.27068e-07 0)
(1.49841e-06 -5.08043e-07 0)
(1.55953e-06 -4.89112e-07 0)
(1.62017e-06 -4.70091e-07 0)
(1.68037e-06 -4.50953e-07 0)
(1.74019e-06 -4.31566e-07 0)
(1.79971e-06 -4.11826e-07 0)
(1.85908e-06 -3.91689e-07 0)
(1.91839e-06 -3.7111e-07 0)
(7.13073e-07 -7.87806e-07 0)
(7.77696e-07 -7.65133e-07 0)
(8.42453e-07 -7.42642e-07 0)
(9.07147e-07 -7.20269e-07 0)
(9.71731e-07 -6.9819e-07 0)
(1.03608e-06 -6.76469e-07 0)
(1.10013e-06 -6.55184e-07 0)
(1.16382e-06 -6.34312e-07 0)
(1.22711e-06 -6.13823e-07 0)
(1.28996e-06 -5.93706e-07 0)
(1.35235e-06 -5.73924e-07 0)
(1.41425e-06 -5.54359e-07 0)
(1.47568e-06 -5.34954e-07 0)
(1.53665e-06 -5.15682e-07 0)
(1.59718e-06 -4.96375e-07 0)
(1.65733e-06 -4.77026e-07 0)
(1.71711e-06 -4.57531e-07 0)
(1.77668e-06 -4.37819e-07 0)
(1.83607e-06 -4.17866e-07 0)
(1.89547e-06 -3.97629e-07 0)
(6.9961e-07 -8.159e-07 0)
(7.63075e-07 -7.93577e-07 0)
(8.26723e-07 -7.71287e-07 0)
(8.90377e-07 -7.49013e-07 0)
(9.54004e-07 -7.26932e-07 0)
(1.01749e-06 -7.05122e-07 0)
(1.08079e-06 -6.83678e-07 0)
(1.14382e-06 -6.62588e-07 0)
(1.20655e-06 -6.4183e-07 0)
(1.26892e-06 -6.21406e-07 0)
(1.33092e-06 -6.01298e-07 0)
(1.39252e-06 -5.81404e-07 0)
(1.45372e-06 -5.61687e-07 0)
(1.51452e-06 -5.42136e-07 0)
(1.57493e-06 -5.22599e-07 0)
(1.63501e-06 -5.03088e-07 0)
(1.69476e-06 -4.83535e-07 0)
(1.75434e-06 -4.63885e-07 0)
(1.81372e-06 -4.44134e-07 0)
(1.87316e-06 -4.24291e-07 0)
(6.86293e-07 -8.43298e-07 0)
(7.48665e-07 -8.21296e-07 0)
(8.11265e-07 -7.99199e-07 0)
(8.73943e-07 -7.77039e-07 0)
(9.36688e-07 -7.54991e-07 0)
(9.99369e-07 -7.33144e-07 0)
(1.06197e-06 -7.11594e-07 0)
(1.12438e-06 -6.90344e-07 0)
(1.18658e-06 -6.69378e-07 0)
(1.24852e-06 -6.48716e-07 0)
(1.31017e-06 -6.28356e-07 0)
(1.3715e-06 -6.08208e-07 0)
(1.43249e-06 -5.88245e-07 0)
(1.49314e-06 -5.6847e-07 0)
(1.55345e-06 -5.48749e-07 0)
(1.61346e-06 -5.29117e-07 0)
(1.67319e-06 -5.09538e-07 0)
(1.73273e-06 -4.89977e-07 0)
(1.79213e-06 -4.70457e-07 0)
(1.85156e-06 -4.51006e-07 0)
(6.72882e-07 -8.70069e-07 0)
(7.34219e-07 -8.4837e-07 0)
(7.95837e-07 -8.26447e-07 0)
(8.57633e-07 -8.04417e-07 0)
(9.19573e-07 -7.82435e-07 0)
(9.81536e-07 -7.60592e-07 0)
(1.0435e-06 -7.38981e-07 0)
(1.10537e-06 -7.17627e-07 0)
(1.1671e-06 -6.96521e-07 0)
(1.22865e-06 -6.75687e-07 0)
(1.28999e-06 -6.55138e-07 0)
(1.35107e-06 -6.34793e-07 0)
(1.41188e-06 -6.14634e-07 0)
(1.4724e-06 -5.94672e-07 0)
(1.53262e-06 -5.74798e-07 0)
(1.59258e-06 -5.55083e-07 0)
(1.65229e-06 -5.35503e-07 0)
(1.7118e-06 -5.16037e-07 0)
(1.7712e-06 -4.96761e-07 0)
(1.83062e-06 -4.77706e-07 0)
(6.59125e-07 -8.96303e-07 0)
(7.19484e-07 -8.74834e-07 0)
(7.80189e-07 -8.53111e-07 0)
(8.41226e-07 -8.31247e-07 0)
(9.02439e-07 -8.0935e-07 0)
(9.63789e-07 -7.87543e-07 0)
(1.02519e-06 -7.65918e-07 0)
(1.08659e-06 -7.445e-07 0)
(1.14793e-06 -7.23295e-07 0)
(1.20916e-06 -7.02344e-07 0)
(1.27025e-06 -6.81664e-07 0)
(1.33114e-06 -6.61167e-07 0)
(1.39181e-06 -6.40846e-07 0)
(1.45224e-06 -6.2074e-07 0)
(1.51241e-06 -6.00761e-07 0)
(1.57237e-06 -5.80979e-07 0)
(1.63207e-06 -5.61387e-07 0)
(1.69159e-06 -5.42015e-07 0)
(1.75095e-06 -5.22977e-07 0)
(1.81036e-06 -5.04316e-07 0)
(6.44721e-07 -9.21987e-07 0)
(7.04245e-07 -9.00778e-07 0)
(7.6421e-07 -8.79287e-07 0)
(8.24532e-07 -8.57585e-07 0)
(8.85145e-07 -8.35808e-07 0)
(9.45961e-07 -8.1406e-07 0)
(1.00691e-06 -7.92451e-07 0)
(1.06794e-06 -7.71025e-07 0)
(1.12897e-06 -7.49783e-07 0)
(1.18997e-06 -7.28763e-07 0)
(1.25088e-06 -7.07983e-07 0)
(1.31163e-06 -6.87374e-07 0)
(1.37222e-06 -6.66938e-07 0)
(1.43262e-06 -6.46721e-07 0)
(1.49281e-06 -6.26657e-07 0)
(1.55279e-06 -6.06812e-07 0)
(1.61251e-06 -5.87196e-07 0)
(1.67211e-06 -5.67895e-07 0)
(1.73149e-06 -5.4908e-07 0)
(1.79085e-06 -5.30812e-07 0)
(6.29448e-07 -9.47346e-07 0)
(6.88201e-07 -9.2639e-07 0)
(7.47526e-07 -9.05096e-07 0)
(8.07279e-07 -8.8357e-07 0)
(8.67408e-07 -8.61913e-07 0)
(9.27815e-07 -8.40251e-07 0)
(9.88442e-07 -8.18697e-07 0)
(1.04922e-06 -7.97297e-07 0)
(1.11006e-06 -7.76048e-07 0)
(1.17091e-06 -7.54988e-07 0)
(1.23171e-06 -7.3414e-07 0)
(1.29242e-06 -7.13451e-07 0)
(1.35301e-06 -6.92943e-07 0)
(1.41343e-06 -6.72653e-07 0)
(1.47368e-06 -6.52485e-07 0)
(1.53376e-06 -6.32554e-07 0)
(1.59363e-06 -6.12942e-07 0)
(1.65332e-06 -5.9367e-07 0)
(1.71281e-06 -5.74976e-07 0)
(1.77217e-06 -5.57058e-07 0)
(6.13146e-07 -9.72241e-07 0)
(6.71276e-07 -9.51575e-07 0)
(7.30064e-07 -9.30531e-07 0)
(7.89387e-07 -9.092e-07 0)
(8.49171e-07 -8.87704e-07 0)
(9.09334e-07 -8.66173e-07 0)
(9.69788e-07 -8.44725e-07 0)
(1.03044e-06 -8.23386e-07 0)
(1.0912e-06 -8.02143e-07 0)
(1.15202e-06 -7.81066e-07 0)
(1.21283e-06 -7.60214e-07 0)
(1.27356e-06 -7.39497e-07 0)
(1.33421e-06 -7.18903e-07 0)
(1.39473e-06 -6.98539e-07 0)
(1.45509e-06 -6.78337e-07 0)
(1.51532e-06 -6.58337e-07 0)
(1.57543e-06 -6.38668e-07 0)
(1.63533e-06 -6.19354e-07 0)
(1.69508e-06 -6.00694e-07 0)
(1.75458e-06 -5.82999e-07 0)
(4.24687e-08 -7.99513e-07 0)
(1.27903e-07 -7.87907e-07 0)
(2.14753e-07 -7.65094e-07 0)
(3.03872e-07 -7.32075e-07 0)
(3.95861e-07 -6.90128e-07 0)
(4.91098e-07 -6.4079e-07 0)
(5.89698e-07 -5.85963e-07 0)
(6.91441e-07 -5.2744e-07 0)
(7.9622e-07 -4.67116e-07 0)
(9.03013e-07 -4.06377e-07 0)
(4.13702e-08 -8.14087e-07 0)
(1.2454e-07 -8.03464e-07 0)
(2.08855e-07 -7.82582e-07 0)
(2.95044e-07 -7.52286e-07 0)
(3.83609e-07 -7.13677e-07 0)
(4.74835e-07 -6.68052e-07 0)
(5.6887e-07 -6.17012e-07 0)
(6.65339e-07 -5.62175e-07 0)
(7.64135e-07 -5.05182e-07 0)
(8.63955e-07 -4.47733e-07 0)
(4.03678e-08 -8.28957e-07 0)
(1.21462e-07 -8.19234e-07 0)
(2.03485e-07 -8.00094e-07 0)
(2.86986e-07 -7.72274e-07 0)
(3.72425e-07 -7.36738e-07 0)
(4.59983e-07 -6.94632e-07 0)
(5.49846e-07 -6.47311e-07 0)
(6.41718e-07 -5.96198e-07 0)
(7.35596e-07 -5.42617e-07 0)
(8.30403e-07 -4.88118e-07 0)
(3.949e-08 -8.4416e-07 0)
(1.18739e-07 -8.35197e-07 0)
(1.98789e-07 -8.17554e-07 0)
(2.80013e-07 -7.91867e-07 0)
(3.62831e-07 -7.58997e-07 0)
(4.4735e-07 -7.19955e-07 0)
(5.33719e-07 -6.75922e-07 0)
(6.21654e-07 -6.28205e-07 0)
(7.11117e-07 -5.78003e-07 0)
(8.01259e-07 -5.26763e-07 0)
(3.86947e-08 -8.597e-07 0)
(1.16253e-07 -8.51424e-07 0)
(1.9449e-07 -8.35137e-07 0)
(2.73663e-07 -8.11379e-07 0)
(3.54135e-07 -7.80921e-07 0)
(4.35975e-07 -7.447e-07 0)
(5.19315e-07 -7.03741e-07 0)
(6.03914e-07 -6.59165e-07 0)
(6.89708e-07 -6.12072e-07 0)
(7.75932e-07 -5.63807e-07 0)
(3.79419e-08 -8.75563e-07 0)
(1.13974e-07 -8.67877e-07 0)
(1.90554e-07 -8.52761e-07 0)
(2.67908e-07 -8.30716e-07 0)
(3.46318e-07 -8.02396e-07 0)
(4.25846e-07 -7.68678e-07 0)
(5.0654e-07 -7.30496e-07 0)
(5.88214e-07 -6.88824e-07 0)
(6.70814e-07 -6.44679e-07 0)
(7.53633e-07 -5.99323e-07 0)
(3.72254e-08 -8.91723e-07 0)
(1.11824e-07 -8.84584e-07 0)
(1.86864e-07 -8.70513e-07 0)
(2.6256e-07 -8.5001e-07 0)
(3.39097e-07 -8.23624e-07 0)
(4.16569e-07 -7.92173e-07 0)
(4.94968e-07 -7.56515e-07 0)
(5.74116e-07 -7.17497e-07 0)
(6.53981e-07 -6.76054e-07 0)
(7.33885e-07 -6.33401e-07 0)
(3.65638e-08 -9.08167e-07 0)
(1.09784e-07 -9.01511e-07 0)
(1.83383e-07 -8.88375e-07 0)
(2.57544e-07 -8.69249e-07 0)
(3.32386e-07 -8.44599e-07 0)
(4.07998e-07 -8.15185e-07 0)
(4.8436e-07 -7.81817e-07 0)
(5.61299e-07 -7.45238e-07 0)
(6.38795e-07 -7.06299e-07 0)
(7.16205e-07 -6.66167e-07 0)
(3.59225e-08 -9.24882e-07 0)
(1.07813e-07 -9.18654e-07 0)
(1.80048e-07 -9.06364e-07 0)
(2.52753e-07 -8.88475e-07 0)
(3.26034e-07 -8.65403e-07 0)
(3.99964e-07 -8.37833e-07 0)
(4.74493e-07 -8.06538e-07 0)
(5.4948e-07 -7.72191e-07 0)
(6.24909e-07 -7.35554e-07 0)
(7.0018e-07 -6.97741e-07 0)
(3.52733e-08 -9.4183e-07 0)
(1.05889e-07 -9.35999e-07 0)
(1.76808e-07 -9.24471e-07 0)
(2.48127e-07 -9.07689e-07 0)
(3.19933e-07 -8.86051e-07 0)
(3.92315e-07 -8.60155e-07 0)
(4.65182e-07 -8.3074e-07 0)
(5.38423e-07 -7.98437e-07 0)
(6.12029e-07 -7.6392e-07 0)
(6.85439e-07 -7.28237e-07 0)
(3.46251e-08 -9.58982e-07 0)
(1.04e-07 -9.53533e-07 0)
(1.73614e-07 -9.42692e-07 0)
(2.43601e-07 -9.26907e-07 0)
(3.13997e-07 -9.06573e-07 0)
(3.84919e-07 -8.82204e-07 0)
(4.56264e-07 -8.54498e-07 0)
(5.27927e-07 -8.24062e-07 0)
(5.99908e-07 -7.91492e-07 0)
(6.71676e-07 -7.57767e-07 0)
(3.39916e-08 -9.7632e-07 0)
(1.02122e-07 -9.71225e-07 0)
(1.70428e-07 -9.61009e-07 0)
(2.3911e-07 -9.46128e-07 0)
(3.08148e-07 -9.26977e-07 0)
(3.77673e-07 -9.04004e-07 0)
(4.47602e-07 -8.77861e-07 0)
(5.17818e-07 -8.49131e-07 0)
(5.88326e-07 -8.18346e-07 0)
(6.58647e-07 -7.86425e-07 0)
(3.33606e-08 -9.9383e-07 0)
(1.00211e-07 -9.8904e-07 0)
(1.672e-07 -9.79399e-07 0)
(2.34578e-07 -9.65348e-07 0)
(3.02292e-07 -9.47272e-07 0)
(3.70465e-07 -9.25577e-07 0)
(4.3905e-07 -9.00869e-07 0)
(5.07921e-07 -8.737e-07 0)
(5.77086e-07 -8.44561e-07 0)
(6.46135e-07 -8.143e-07 0)
(3.27057e-08 -1.01146e-06 0)
(9.82227e-08 -1.00693e-06 0)
(1.63878e-07 -9.97829e-07 0)
(2.29928e-07 -9.8454e-07 0)
(2.96328e-07 -9.67448e-07 0)
(3.63181e-07 -9.46928e-07 0)
(4.30468e-07 -9.23544e-07 0)
(4.98072e-07 -8.97819e-07 0)
(5.66007e-07 -8.70208e-07 0)
(6.3391e-07 -8.41477e-07 0)
(3.20107e-08 -1.02917e-06 0)
(9.61344e-08 -1.02487e-06 0)
(1.6042e-07 -1.01627e-06 0)
(2.25103e-07 -1.00369e-06 0)
(2.90171e-07 -9.87508e-07 0)
(3.5571e-07 -9.68081e-07 0)
(4.21719e-07 -9.45926e-07 0)
(4.8811e-07 -9.21541e-07 0)
(5.54883e-07 -8.9535e-07 0)
(6.21716e-07 -8.68026e-07 0)
(3.12731e-08 -1.04688e-06 0)
(9.3935e-08 -1.04279e-06 0)
(1.56789e-07 -1.03468e-06 0)
(2.20045e-07 -1.02276e-06 0)
(2.83735e-07 -1.00742e-06 0)
(3.47936e-07 -9.89008e-07 0)
(4.12666e-07 -9.68005e-07 0)
(4.77875e-07 -9.44873e-07 0)
(5.43512e-07 -9.20002e-07 0)
(6.0935e-07 -8.9399e-07 0)
(3.04913e-08 -1.06457e-06 0)
(9.15991e-08 -1.06069e-06 0)
(1.52926e-07 -1.05302e-06 0)
(2.14672e-07 -1.04173e-06 0)
(2.76918e-07 -1.0272e-06 0)
(3.39734e-07 -1.00974e-06 0)
(4.03164e-07 -9.89831e-07 0)
(4.67161e-07 -9.67877e-07 0)
(5.31685e-07 -9.4424e-07 0)
(5.9655e-07 -9.19476e-07 0)
(2.96521e-08 -1.08213e-06 0)
(8.90793e-08 -1.07845e-06 0)
(1.48757e-07 -1.07119e-06 0)
(2.08886e-07 -1.06051e-06 0)
(2.69588e-07 -1.04674e-06 0)
(3.30947e-07 -1.03021e-06 0)
(3.93024e-07 -1.01133e-06 0)
(4.55756e-07 -9.90489e-07 0)
(5.19179e-07 -9.68028e-07 0)
(5.83079e-07 -9.44449e-07 0)
(2.87313e-08 -1.09958e-06 0)
(8.63095e-08 -1.0961e-06 0)
(1.44182e-07 -1.08924e-06 0)
(2.02564e-07 -1.07915e-06 0)
(2.61599e-07 -1.06613e-06 0)
(3.21398e-07 -1.05049e-06 0)
(3.82028e-07 -1.0326e-06 0)
(4.43461e-07 -1.01283e-06 0)
(5.05718e-07 -9.91519e-07 0)
(5.68662e-07 -9.69093e-07 0)
(2.77196e-08 -1.11659e-06 0)
(8.32784e-08 -1.11331e-06 0)
(1.39176e-07 -1.10685e-06 0)
(1.95649e-07 -1.09734e-06 0)
(2.52879e-07 -1.08508e-06 0)
(3.11005e-07 -1.07032e-06 0)
(3.70082e-07 -1.05342e-06 0)
(4.30183e-07 -1.03471e-06 0)
(4.91233e-07 -1.01453e-06 0)
(5.53231e-07 -9.93263e-07 0)
)


// ************************************************************************* //
