/*--------------------------------*- C++ -*----------------------------------*\
| =========                 |                                                 |
| \\      /  F ield         | foam-extend: Open Source CFD                    |
|  \\    /   O peration     | Version:     4.1                                |
|   \\  /    A nd           | Web:         http://www.foam-extend.org         |
|    \\/     M anipulation  |                                                 |
\*---------------------------------------------------------------------------*/
FoamFile
{
    version     2.0;
    format      ascii;
    class       volScalarField;
    location    "1";
    object      sigmaEq;
}
// * * * * * * * * * * * * * * * * * * * * * * * * * * * * * * * * * * * * * //

dimensions      [1 -1 -2 0 0 0 0];

internalField   nonuniform List<scalar> 
100000
(
95535.88253158357
94533.85194615737
94100.8737144238
94326.28958686572
95007.19905020391
96097.60869387424
97489.019824313
99119.16424131879
100919.441839404
102840.2738777637
104837.0708351204
106875.5789365018
108927.3726436171
110970.4052528301
112987.1628763854
114964.2283041037
116891.3322992338
118760.8554114296
120567.2661253237
122306.7369502699
123976.7931094813
125576.0452699642
127103.9605548197
128560.686050733
129946.8999999941
131263.6936800718
132512.4740638814
133694.8867752662
134812.7535924277
135868.0206228782
136862.7177624044
137798.9256884871
138678.7495281527
139504.2985516154
140277.6684573782
141000.9279953246
141676.1100558437
142305.2032741203
142890.1452925824
143432.8194414122
143935.0518956424
144398.6086626846
144825.194673634
145216.4540888186
145573.9699614703
145899.2641927183
146193.7988801182
146458.9777466502
146696.1470503808
146906.5968277089
147091.5629312731
147252.2289144645
147389.7275229076
147505.1422310263
147599.5091814775
147673.8190982987
147729.0189695429
147766.013687232
147785.6677384056
147788.8070176465
147776.2204601047
147748.6615550624
147706.8497926533
147651.4721156998
147583.1844258792
147502.6130079596
147410.3557717865
147306.9834070848
147193.0406543158
147069.0475919871
146935.5007631706
146792.8741525559
146641.6201590455
146482.1706429912
146314.9379263137
146140.3156368598
145958.6795322672
145770.3883368768
145575.7845999621
145375.1952677699
145168.9325967472
144957.2945632564
144740.5662335639
144519.0186883933
144292.9126103341
144062.4929492875
143828.0008615783
143589.6506433503
143347.6766583945
143102.2411598249
142853.6204679846
142601.8357945384
142347.411679541
142089.8764797949
141830.899417611
141568.0603772855
141308.2300271535
141040.1378020092
140797.6153840049
140509.3711094563
98981.98734359042
97828.24808971667
97224.60459074212
97275.80033216267
97778.92697261198
98694.95817437845
99917.20240465754
101386.398682984
103034.9488420424
104814.1714831178
106679.5571985625
108596.7250172684
110536.8086465698
112477.2188744738
114399.80701055
116290.507411023
118138.4023265581
119935.2514421659
121674.9389878944
123353.0964921369
124966.7510009286
126514.059585657
127994.0783161838
129406.5823071976
130751.9141229513
132030.8625344405
133244.5624754569
134394.414501975
135482.0197934534
136509.1255491656
137477.5822817237
138389.3095850606
139246.2664788477
140050.429481665
140803.7752531538
141508.2646111178
142165.8314433522
142778.375019455
143347.752267636
143875.7722235084
144364.1931562257
144814.7197409427
145229.0007125694
145608.6282272616
145955.1378687181
146270.0084003242
146554.6620901918
146810.4657267484
147038.7317433479
147240.7192115404
147417.6352667692
147570.6368050858
147700.8320177371
147809.2817304423
147897.0010661741
147964.9612279796
148014.0911037492
148045.2788156215
148059.3732576131
148057.1858009846
148039.4918628357
148007.0323136489
147960.51488039
147900.6155756053
147827.9801108848
147743.2252125069
147646.939835125
147539.6863228002
147422.0016312193
147294.3985443983
147157.3667528774
147011.3738219143
146856.866159012
146694.2700166362
146523.9924446859
146346.4221396717
146161.9302893427
145970.8713926947
145773.5840913909
145570.3918155448
145361.6037098383
145147.5151536757
144928.4091458081
144704.555849877
144476.2158273917
144243.6367784204
144007.0635702601
143766.7232377581
143522.8602425046
143275.6781947812
143025.465403302
142772.3751882439
142516.8721966973
142258.935614806
141999.5877591124
141738.1786545303
141477.1408544658
141214.2000672036
140952.2857280017
140688.2451380562
102426.518330743
101122.5515478217
100350.4779466737
100230.0614818585
100557.9149398544
101301.712871447
102356.3966937635
103665.6606920107
105162.9219836751
106800.4617176751
108533.932031826
110328.9114340193
112156.1739811369
113992.6624444925
115819.6537627822
117622.4819907369
119389.6207523599
121112.2404374533
122783.6629007031
124398.9950581043
125954.7786806193
127448.7257222979
128879.4864138222
130246.4669127273
131549.6758383737
132789.5999431262
133967.1016489763
135083.3349156589
136139.6783271143
137137.6789741055
138079.0057111203
138965.4135973605
139798.7138966084
140580.7488967775
141313.372741644
141998.4357045984
142637.7716030231
143233.1880467271
143786.4583476761
144299.3158216517
144773.4495928008
145210.5006191751
145612.0593998433
145979.6651444343
146314.8047495627
146618.9119553637
146893.3677525699
147139.5011607382
147358.5897167574
147551.8601572186
147720.4898115713
147865.6081191954
147988.2978499271
148089.5962294794
148170.4965237341
148231.9497113587
148274.8658864805
148300.1157015134
148308.5318171821
148300.9104614029
148278.0129300288
148240.5669806879
148189.2681430943
148124.7810018519
148047.7405535167
147958.7535440427
147858.3996496721
147747.2325297546
147625.7809614406
147494.5500559174
147354.0223647846
147204.6587980651
147046.8995030084
146881.164858744
146707.8564596148
146527.3579282381
146340.0357065716
146146.2399152818
145946.3052044307
145740.5513626882
145529.2842050802
145312.7962877833
145091.3681500318
144865.2681407207
144634.755142376
144400.076697196
144161.4762926845
143919.1831991095
143673.4372985348
143424.4495081017
143172.485494242
142917.7185558453
142660.5157756269
142400.918850386
142139.5765431441
141876.0714009313
141611.5093643731
141344.6634906113
141073.5518823919
140801.6629652871
105868.6489575777
104415.8183707749
103477.3964397136
103187.8119657381
103342.7790920798
103916.4195057507
104805.1380849718
105955.5268769363
107302.0203012705
108797.9107266372
110399.0810814666
112071.1490262087
113784.6041815029
115515.9880103932
117246.0623065474
118959.610008776
120644.5341380468
122291.4462162984
123893.1297861056
125444.1847221705
126940.6804605203
128379.8930142396
129760.0729839319
131080.2618126332
132340.1365421595
133539.882476285
134680.0893435765
135761.6645704779
136785.7624571557
137753.7273870199
138667.0457077366
139527.3063892686
140336.169555406
141095.3411501889
141806.5516467426
142471.5382155431
143092.031852813
143669.7470778868
144206.3720694657
144703.561958192
145162.9347088767
145586.0664499395
145974.4879834904
146329.683602581
146653.0900377432
146946.0950035199
147210.0369383547
147446.2056416176
147655.8426210065
147840.1413651347
148000.2483958621
148137.2646514099
148252.2465853414
148346.2070473336
148420.1166274151
148474.9052764316
148511.4636138265
148530.6441658774
148533.2626889732
148520.0996829568
148491.9018104519
148449.3831718831
148393.2265448569
148324.084616835
148242.5812745149
148149.3128756938
148044.8493750179
147929.7353279365
147804.4909980321
147669.613551631
147525.5781032358
147372.838572389
147211.8285610355
147042.9623543498
146866.6358585943
146683.2273729074
146493.0983930485
146296.5944958279
146094.0461524148
145885.7693444985
145672.0664297158
145453.2269555571
145229.5287021885
145001.2378961464
144768.6111231823
144531.89483426
144291.3292106263
144047.1436551774
143799.5678118298
143548.8151226924
143295.1118038287
143038.6456409454
142779.6383650951
142518.2191721963
142254.5366000752
141988.6538846238
141720.074174518
141449.9091513481
141171.6292446326
140897.7433783189
109307.5133735636
107707.10687771
106604.293960845
106147.8455993224
106132.1998756655
106537.6922708338
107262.0289355987
108254.6340766591
109450.9511030294
110805.3222384989
112273.9199068529
113822.4703752135
115421.247783223
117046.4562789793
118678.3979183836
120301.3517925991
121902.6888108732
123472.4920008756
125003.0307694594
126488.4162168911
127924.2591286698
129307.4097932179
130635.7262399486
131907.8893771347
133123.2478263599
134281.6878950902
135383.5261473042
136429.4224699894
137420.3073608011
138357.3212738851
139241.7652083288
140075.0606663414
140858.7155772804
141594.2968965822
142283.4089145596
142927.6744607977
143528.7200369747
144088.1644504449
144607.6088123861
145088.6289211333
145532.7698495047
145941.5407963295
146316.4114350436
146658.8100244385
146970.1216045384
147251.6863197079
147504.7989402536
147730.7090196722
147930.6208239979
148105.693434062
148257.0416525542
148385.7370677013
148492.808854685
148579.2445850495
148645.9914575202
148693.9576895667
148724.0136686043
148736.9931160376
148733.6942943504
148714.881381893
148681.2858212976
148633.6075343566
148572.5160667543
148498.6517339988
148412.6268489365
148315.0269434738
148206.4118526329
148087.3166737274
147958.2528076837
147819.7090986726
147672.15286772
147516.030751875
147351.7695289493
147179.7770776347
147000.4433026544
146814.1408898005
146621.2260723135
146422.0394929731
146216.9069934236
146006.1402194734
145790.0373961087
145568.8841478445
145342.9543124661
145112.5102625088
144877.8040837532
144639.0776916147
144396.5643110222
144150.4867178046
143901.0606258037
143648.4891814437
143392.9673879956
143134.6708920634
142873.7515673918
142610.3467649083
142344.462315936
142076.2909783639
141805.090809174
141532.6152415069
141251.8011106489
140978.0620241268
112742.2704766073
110995.5041530775
109730.1410954207
109109.0055759646
108924.9183898985
109164.21048505
109725.7326056722
110561.6732287299
111608.4681260782
112821.5372984078
114157.3920985742
115581.92874326
117065.2684263278
118583.3378229699
120116.0320215215
121647.1715963098
123163.6331936704
124655.0017697906
126113.0569666968
127531.4403362694
128905.3181383852
130231.1248926186
131506.3344118304
132729.2733978826
133898.9643062536
135014.9960847562
136077.4145278482
137086.6318706261
138043.3532391368
138948.5148789242
139803.2317795581
140608.7556096648
141366.4400702181
142077.7121575219
142744.0483172206
143366.9545035387
143947.9508925643
144488.559353305
144990.2920883433
145454.6434506875
145883.0841461823
146277.0551974832
146637.9635016062
146967.1796599423
147266.0358249463
147535.8234388572
147777.7922704955
147993.1503571194
148183.0637348673
148348.6561513661
148491.0096249504
148611.1653929557
148710.1245550032
148788.8486258397
148848.2605879318
148889.2461816492
148912.6548997783
148919.3009883936
148909.9645655041
148885.3929133817
148846.3017217468
148793.3762064892
148727.272168685
148648.6170638246
148558.0111794424
148456.0288151946
148343.2192965029
148220.1078589639
148087.196653097
147944.9658615403
147793.8746849454
147634.3621290936
147466.847802799
147291.7328593282
147109.4008894814
146920.218639608
146724.5367427705
146522.6905539219
146315.0008842273
146101.7745706741
145883.3051590933
145659.8737073409
145431.7493614593
145199.1897714558
144962.4415796424
144721.7411257379
144477.3138157858
144229.3750753901
143978.1269802653
143723.7636816156
143466.4538227218
143206.3696987878
142943.6108330048
142678.3517405913
142410.4933447955
142140.4302142166
141867.1866524011
141593.3089485253
141310.758499694
141038.2830306241
116172.0732270174
114280.1049790194
112853.9358374765
112070.1776105838
111719.7270756019
111794.707996364
112194.9666928518
112875.3848062932
113773.3679563893
114845.4322366598
116048.4685556609
117348.5974866086
118715.8440616614
120125.9129090246
121558.342112322
122996.5369173841
124426.9170731037
125838.6002972745
127222.9003208415
128573.0075826662
129883.6597028873
131150.887511714
132371.7874963007
133544.3381089826
134667.2410643571
135739.7899112719
136761.7602753104
137733.3182293697
138654.9438690721
139527.3677096563
140351.5175203865
141128.4746282108
141859.4370875631
142545.6897314299
143188.5795985436
143789.4945653028
144349.8466163019
144871.0586508173
145354.5525277749
145801.7398098224
146214.0150790867
146592.7495148687
146939.2859850091
147254.9362036699
147540.9779965799
147798.6527393399
148029.1641267796
148233.6776640734
148413.3200039418
148569.1784839702
148702.3014527448
148813.6989166225
148904.3429952835
148975.1683435902
149027.0729984009
149060.9194774595
149077.5356601931
149077.7156788964
149062.2209139329
149031.7811728032
148987.0958288426
148928.8348460821
148857.6397741062
148774.1247604883
148678.8776395412
148572.4610295122
148455.4133086898
148328.2494685957
148191.4620551878
148045.5222244362
147890.8806959067
147727.9685083921
147557.1977715413
147378.9625624841
147193.6397876718
147001.5898745193
146803.1574651813
146598.6722159818
146388.4494735605
146172.7907838816
145951.9844763526
145726.3064313362
145496.0204614877
145261.3787306033
145022.6218080642
144779.979732186
144533.6702459012
144283.9014030284
144030.8650031921
143774.7479443388
143515.7050564223
143253.9077562192
142989.4388869869
142722.4996220458
142452.9719863164
142181.3647678843
141906.6369298328
141631.7834138322
141347.9511055817
141076.6066908433
119596.0810266359
117560.0200241808
115974.7020200593
115030.286017602
114515.465998424
114427.9706214453
114668.500720731
115194.5570722278
115944.4876083803
116875.9161320166
117946.1461299224
119121.5699234283
120372.1674377872
121673.4715465096
123004.7112925247
124348.9192176847
125692.0932302431
127022.9129443514
128332.2517129111
129612.8688372383
130859.0872184863
132066.5462802786
133231.9751930497
134353.0097536547
135428.0349929175
136456.0531693277
137436.5718968677
138369.5112289185
139255.126442122
140093.9426912042
140886.6997191546
141634.3069748778
142337.8058367225
142998.3379944118
143617.1193453961
144195.4178526638
144734.5360025564
145235.7963834367
145700.5287417836
146130.060174202
146525.7078380806
146888.7717828678
147220.5293566968
147522.2319463209
147795.101882438
148040.3293682703
148259.0708053385
148452.4480263763
148621.5473183415
148767.4186210983
148891.0756328845
148993.496267664
149075.6228670366
149138.3624075241
149182.587189656
149209.1357943854
149218.8138267852
149212.3946771458
149190.6203807085
149154.2026699093
149103.8240343147
149040.13868241
148963.7734374569
148875.3286531436
148775.3792446203
148664.475734193
148543.1451555918
148411.8918459799
148271.1983484062
148121.5264276242
147963.3179725109
147796.9957025649
147622.9638871145
147441.6092093179
147253.3015769926
147058.3947610811
146857.2270505969
146650.1220268536
146437.3891913935
146219.324421916
145996.2104708483
145768.3177120249
145535.9043895576
145299.2170717561
145058.4903799063
144813.948421889
144565.802207983
144314.2537677014
144059.4871967931
143801.6852833075
143540.9946174424
143277.5908965471
143011.5483331428
142743.0982726886
142472.1066223096
142199.1857483448
141923.1973681168
141647.5434702905
141362.4303783924
141092.0027790902
123013.4537346456
120834.3702295206
119091.4864219899
117988.2891681062
117311.0178681771
117062.8308920806
117145.1498241611
117518.0204174036
118120.7011851076
118911.9295109096
119849.4472845047
120899.9581941882
122033.4439547918
123225.3134639513
124454.5301760196
125703.7934552152
126958.715341321
128207.5666014762
129440.8032224272
130650.7740046322
131831.4035999651
132977.9511896543
134086.7877628411
135155.2144627769
136181.3048058143
137163.7726357148
138101.8600350863
138995.2429817619
139843.9523147872
140648.3073956805
141408.8598187734
142126.3467552355
142801.6515970415
143435.7714390219
144029.7900031841
144584.8541553621
145102.1552331392
145582.9139112699
146028.3665338141
146439.7544431611
146818.3158811326
147165.278297447
147481.8522800842
147769.2276953726
148028.5701040263
148261.0173582932
148467.6775087247
148649.6276283108
148807.912577732
148943.5439692257
149057.499979631
149150.7255456511
149224.1323765041
149278.5989811892
149314.9711881446
149334.0629563421
149336.656960216
149323.5051887703
149295.329700918
149252.8235955709
149196.6519614062
149127.452726245
149045.8374741953
148952.3922978618
148847.678752582
148732.2348326063
148606.5758182833
148471.1950123928
148326.5645845949
148173.1365357109
148011.3435570635
147841.5996926127
147664.3010167156
147479.8264674078
147288.5386250882
147090.784301635
146886.8951418412
146677.1883608876
146461.9673258408
146241.5219639396
146016.129201354
145786.0536952474
145551.5479951614
145312.8530552134
145070.1978187483
144823.8009603396
144573.8678964372
144320.5959873892
144064.1642080474
143804.7531995123
143542.5058128172
143277.6029864341
143010.1167255087
142740.301954395
142468.0140858525
142193.9404601975
141916.8439114768
141640.465741365
141354.0717961696
141084.3821005782
126423.3547833237
124102.2868504631
122203.3551523126
120943.174648975
120105.30311862
119698.1625856051
119623.7706305457
119844.6449582527
120300.9190998545
120952.4426735307
121757.4171961277
122682.8928676883
123698.8935969205
124780.7474119542
125907.1948352975
127060.639440231
128226.3398919761
129392.1881263018
130548.2472245261
131686.4742095826
132800.4114814918
133884.9514144302
134936.1164648642
135950.8800596331
136927.0100992301
137862.9365552439
138757.6384134247
139610.5489210665
140421.4758085695
141190.5333095945
141918.0843963985
142604.6932128228
143251.0846521804
143858.1104149822
144426.7207189409
144957.9399532815
145452.8471277573
145912.5597960712
146338.2194951425
146730.9803898869
147092.0005406403
147422.433543822
147723.4219248833
147996.0928420766
148241.5539774158
148460.8896645703
148655.1584699366
148825.3917060795
148972.5918676033
149097.7313001106
149201.7517477214
149285.5643010684
149350.0492176238
149396.0557928708
149424.4026815059
149435.8785107673
149431.242334
149411.2241182417
149376.5253710196
149327.8199838159
149265.7550919378
149190.9518397114
149104.0060944611
149005.4892129493
148895.9489320383
148775.9102885626
148645.8764032954
148506.3291537787
148357.7299614523
148200.5207096462
148035.1245586557
147861.9465596409
147681.3742792858
147493.7785837721
147299.514387555
147098.9212233247
146892.3238084236
146680.032736758
146462.3450173199
146239.5444536077
146011.9020406641
145779.6766935336
145543.1153637356
145302.4536047278
145057.9150534911
144809.7134693065
144558.0494543821
144303.1166142584
144045.0901282486
143784.1496765614
143520.4356598721
143254.1343584049
142985.31510162
142714.2528749558
142440.7869716412
142165.66911223
141887.5502717037
141610.491819824
141322.8267598856
141053.7769990874
129824.9485778242
127362.9095086311
125309.3934616232
123893.9587707981
122897.2764798999
122332.8786027744
122103.2600734395
122173.3377093943
122484.0836514027
122996.4541345099
123669.1246826224
124469.5217988139
125367.7491733675
126339.0926788839
127362.1078369334
128418.9397625733
129494.5259299605
130576.4065988181
131654.2760777025
132719.7199729231
133765.9141923842
134787.3967996083
135779.8523618743
136739.9349861522
137665.1125686394
138553.5352775455
139403.9225718331
140215.4674024713
140987.7553732564
141720.6960215875
142414.4640685103
143069.4505405511
143686.2211281757
144265.4812172087
144808.0466197954
145314.8182574244
145786.761624964
146224.8899032702
146630.2486275322
147003.9035287674
147346.9311875351
147660.4101795807
147945.4138512766
148203.0054535213
148434.2336127977
148640.1280764394
148821.6969157308
148979.9246968473
149115.7705979653
149230.1667671542
149324.0176168227
149398.1995749336
149453.5606902982
149490.9202861028
149511.0691001915
149514.769747101
149502.7570228975
149475.7382465739
149434.3937786334
149379.377756546
149311.3188352207
149230.8208535097
149138.4634698326
149034.8028559565
148920.3725069207
148795.6840835803
148661.2281330849
148517.4747111117
148364.874112477
148203.8577359977
148034.8388572808
147858.2132047012
147674.3595416975
147483.6404001836
147286.4027758404
147082.9786624118
146873.6855998046
146658.8273395769
146438.6943367088
146213.5641081628
145983.7016154625
145749.3600011034
145510.7806794531
145268.1939860527
145021.8185904564
144771.8637989188
144518.5260427881
144261.9957600858
144002.4449884483
143740.0528151731
143474.9575345122
143207.3498376284
142937.2954565813
142665.0852397856
142390.5391346511
142114.4643546066
141835.3962399695
141557.7008879163
141268.8038973603
141000.3486596429
133217.4046454257
130615.3874121304
128408.7028984892
126839.6818022501
125685.9236662532
124965.925934782
124582.5500732399
124503.0404586453
124669.168524354
125042.9881152307
125583.6600479894
126259.0109243761
127039.2562546611
127899.6768248821
128818.6786818858
129778.1818830985
130762.8342036091
131759.8519443444
132758.5835031798
133750.2622866021
134727.7144071928
135685.1372994362
136617.8877977048
137522.3086445045
138395.5745204244
139235.560907235
140040.7310089032
140810.0397708469
141542.8524599407
142238.8750107303
142898.0942444632
143520.7279699561
144107.1823365776
144658.0158519085
145173.9091178662
145655.6386711765
146104.0555277479
146520.0673573369
146904.6224736305
147258.6970737742
147583.2851862916
147879.3892007197
148148.0121172807
148390.1521701393
148606.7978590256
148798.9233265711
148967.4851814431
149113.4202704802
149237.6434868946
149341.0458934278
149424.4937562736
149488.8280348853
149534.8637794232
149563.3896075172
149575.1676475752
149570.9338174939
149551.3980051598
149517.2442861473
149469.1313082172
149407.6928989798
149333.5386978837
149247.2547322626
149149.4039711096
149040.5269426417
148921.142465478
148791.7484161627
148652.822381052
148504.8222250927
148348.1867678064
148183.3365882176
148010.6747416334
147830.5872945212
147643.4438742887
147449.5983742853
147249.3896173037
147043.1418451772
146831.1652219969
146613.7564768173
146391.1993780547
146163.7650663916
145931.7124202251
145695.2888086562
145454.7301733042
145210.2617347934
144962.0973655628
144710.4420966572
144455.4884278571
144197.4239009172
143936.417568865
143672.647759514
143406.2503827901
143137.4193306199
142866.2153126831
142592.9424074663
142317.398186549
142040.4412800231
141760.4893696537
141482.2050472747
141192.133697098
140924.2588116324
136599.8934519314
133858.8759082202
131500.3993283498
129779.405903501
128470.2585019313
127596.2840944203
127060.6057315176
126832.7260680895
126855.1765412621
127091.0947665278
127500.1339164905
128050.5420404292
128712.6738420253
129461.8371039782
130276.3223956724
131137.8573259564
132030.8289694615
132942.1555625115
133860.8629455378
134777.8522716242
135685.6157433086
136578.0232154272
137450.1149530424
138297.9312310359
139118.3601168592
139909.0074660461
140668.0841787663
141394.310096084
142086.8320965039
142745.1537461337
143369.0746459371
143958.6395773145
144514.0949615655
145035.852069153
145524.4557822165
145980.5574310084
146404.8925555487
146798.2623690103
147161.5170042506
147495.5420718441
147801.2479712804
148079.5598200378
148331.4091810195
148557.7282367563
148759.444385487
148937.475175779
149092.7247530342
149226.0813107454
149338.4145870663
149430.5736990843
149503.385929972
149557.6559953087
149594.1652068897
149613.6707382985
149616.9054025527
149604.5777753153
149577.3722256009
149535.9489856265
149480.9444093965
149412.9714673794
149332.6202744162
149240.4585652405
149137.0321524254
149022.8654622417
148898.4621930974
148764.3060182563
148620.8611702579
148468.5729452981
148307.8683252516
148139.1567413184
147962.8307398694
147779.2664552734
147588.8241063484
147391.848671576
147188.670533304
146979.6059410543
146764.9574785078
146545.014677971
146320.0544751216
146090.341530172
145856.1285765994
145617.6572015973
145375.1579083985
145128.8508567108
144878.9452305137
144625.6419112179
144369.1295044699
144109.5925301502
143847.1970809406
143582.1201353552
143314.4947640201
143044.5169840921
142772.2411898962
142497.9828359723
142221.5153772209
141943.7463648861
141662.9760208881
141384.1562580517
141092.980197424
140825.6880841226
139971.5901121394
137092.5385242428
134583.613011825
132712.2147912137
131249.3204627383
130222.9613120674
129536.4229874319
129161.3972958436
129041.1368248729
129139.8479383781
129417.6780589825
129843.3130731731
130387.2721043879
131024.9197454664
131734.4614414831
132497.4619778818
133298.0762287002
134122.9502481247
134960.8093992372
135802.2415566318
136639.4214350253
137465.9049662361
138276.4268874847
139066.733915521
139833.4345868683
140573.870635287
141286.0048819696
141968.3252848831
142619.7626380438
143239.6195875266
143827.5093375325
144383.3041464501
144907.09091955
145399.133450146
145859.8403651321
146289.7371687146
146689.4431937271
147059.6523556628
147401.1157216312
147714.627352339
148001.0129840936
148261.1194562715
148495.8059414493
148705.9375999582
148892.3797377794
149055.9923620685
149197.626244317
149318.1200158972
149418.297384448
149498.9647150941
149560.9095320628
149604.899523869
149631.6815089586
149641.9805198716
149636.4993940335
149615.9187225028
149580.8967375693
149532.0692414723
149470.0497350022
149395.429792734
149308.779489101
149210.6477806123
149101.562869672
148982.0326515737
148852.5452930695
148713.5698660575
148565.5568704006
148408.9386727842
148244.1300583343
148071.5289453515
147891.5170277994
147704.4602154871
147510.709068371
147310.5994171996
147104.4529833545
146892.5778201168
146675.2687407961
146452.8079067169
146225.4652755836
145993.4989187594
145757.1553403883
145516.6702760686
145272.2687606377
145024.1658842186
144772.5660722527
144517.6660226152
144259.650485149
143998.7007133351
143734.9795902554
143468.6624230527
143199.8786666378
142928.8256843473
142655.550440372
142380.3785506289
142103.0581966449
141824.5445053329
141543.0211828589
141263.7231250643
140971.518814993
140704.8210683413
143331.6731440237
140315.5450856205
137657.4851686914
135637.2098911951
134022.1736262256
132844.9929049791
132009.0248642102
131488.0845625131
131226.105258061
131188.3439298188
131335.4421616657
131636.5373031436
132062.3342584885
132588.2802003861
133192.5238822595
133856.4958436867
134564.1453315805
135301.8705936606
136058.1183149406
136823.1820094171
137588.9351145833
138348.6333305646
139096.7171181603
139828.6486920731
140540.7643733838
141230.1477205218
141894.5181375751
142532.1350988923
143141.7157142413
143722.3635063456
144273.5065721404
144794.8453379047
145286.3074477684
145748.0091892745
146180.2226282868
146583.3469651344
146957.8847634987
147304.4219321701
147623.6096210015
147916.1494566641
148182.7816356404
148424.2738055683
148641.4118112209
148834.9928810764
149005.8193258237
149154.692686038
149282.4094589956
149389.7578812473
149477.5148266319
149546.443096567
149597.2896659268
149630.7844544982
149647.6390816299
149648.5457574367
149634.176687471
149605.1838472196
149562.1987278948
149505.8321293666
149436.674160314
149355.2944838002
149262.2426295273
149158.0482830601
149043.2215677449
148918.2534071547
148783.6160241618
148639.7635002398
148487.1322312925
148326.1413068275
148157.1930045084
147980.6734418399
147796.9531594972
147606.3875251683
147409.3171475066
147206.0684623899
146996.9543043908
146782.2743155079
146562.3153561543
146337.3520661648
146107.6472791244
145873.4523327059
145635.0074044128
145392.5422872696
145146.2764285445
144896.4197886594
144643.1719860281
144386.7253296405
144127.2604924549
143864.9554227149
143599.9692884557
143332.4754287806
143062.5991447848
142790.5384973674
142516.3322794428
142240.3154527504
141962.2102528705
141683.0184139099
141400.8084760735
141121.0918581053
140827.9398544224
140561.8530504997
146679.3229149084
143527.072368686
140721.1699456038
138553.5098599362
136787.9025292995
135461.4388948164
134477.4616750372
133811.8442502994
133409.1608949782
133235.7001527009
133252.5948125108
133429.4433137266
133737.1547769754
134151.2825556588
134649.9445022903
135214.4634252966
135828.6083034787
136478.552819736
137152.4860643628
137840.4259599536
138533.9608031461
139226.0595515163
139910.8796232741
140583.6081661745
141240.3170726529
141877.8378555925
142493.6512186487
143085.7918552615
143652.7660499011
144193.4802498964
144707.1788911749
145193.3915102624
145651.8869301844
146082.634052662
146485.7683209672
146861.5623445369
147210.401416491
147532.7628230673
147829.1971043246
148100.3126700183
148346.7633533686
148569.2368016049
148768.4446979812
148945.1154448826
149099.9874627276
149233.8029873684
149347.3034341218
149441.2258297194
149516.2994080926
149573.2426315569
149612.7611800925
149635.5464894148
149642.2742924084
149633.6033118435
149610.1744796861
149572.6105419451
149521.5156622873
149457.4750738562
149381.0549521345
149292.8025406634
149193.2463497802
149082.896335838
148962.2440970532
148831.7631589659
148691.9093943594
148543.1214995709
148385.821382425
148220.4144807911
148047.2902077826
147866.8225633695
147679.3706705022
147485.2791107939
147284.8782846195
147078.4849782822
146866.4029149713
146648.9231196496
146426.3242978374
146198.873398314
145966.8259964816
145730.4265652764
145489.9088113204
145245.4964973185
144997.4033742933
144745.8340633279
144490.9832376858
144233.0387703713
143972.1768893518
143708.5719906987
143442.3792488785
143173.7695808095
142902.8637104229
142629.8598933916
142354.7882406407
142077.9925252581
141799.1687173404
141519.3644482686
141236.5346837286
140956.4606942016
140662.4440137666
140396.9876805182
150013.7246777212
146726.3041026726
143773.8313951893
141460.2487084595
139545.6122737844
138071.3823909771
136940.8074800389
136131.7566903555
135589.4059267423
135281.0546678609
135168.3219099864
135221.2739693114
135411.0396327621
135713.2996093387
136106.1645722122
136570.8738675135
137091.0400231534
137652.6347393544
138243.6100806087
138853.7265176159
139474.3029092638
140098.0350239893
140718.8087883224
141331.5458761613
141932.061577896
142516.9417269419
143083.4334071348
143629.3504656181