/*--------------------------------*- C++ -*----------------------------------*\
| =========                 |                                                 |
| \\      /  F ield         | foam-extend: Open Source CFD                    |
|  \\    /   O peration     | Version:     4.1                                |
|   \\  /    A nd           | Web:         http://www.foam-extend.org         |
|    \\/     M anipulation  |                                                 |
\*---------------------------------------------------------------------------*/
FoamFile
{
    version     2.0;
    format      ascii;
    class       volVectorField;
    location    "5";
    object      D;
}
// * * * * * * * * * * * * * * * * * * * * * * * * * * * * * * * * * * * * * //

dimensions      [0 1 0 0 0 0 0];

internalField   nonuniform List<vector> 
100000
(
(2.8734e-06 -1.19211e-06 -4.62309e-07)
(2.84997e-06 -1.1761e-06 -8.23766e-08)
(2.82758e-06 -1.16083e-06 3.06115e-07)
(2.80618e-06 -1.14633e-06 6.87077e-07)
(2.78574e-06 -1.13254e-06 1.05279e-06)
(2.76621e-06 -1.11944e-06 1.3933e-06)
(2.74754e-06 -1.10699e-06 1.52183e-06)
(2.72971e-06 -1.09516e-06 1.53627e-06)
(2.71269e-06 -1.08393e-06 1.55951e-06)
(2.69642e-06 -1.07326e-06 1.64506e-06)
(2.6809e-06 -1.06313e-06 1.72597e-06)
(2.66607e-06 -1.05352e-06 1.82688e-06)
(2.65193e-06 -1.04439e-06 1.9268e-06)
(2.63843e-06 -1.03574e-06 2.02259e-06)
(2.62555e-06 -1.02754e-06 2.11446e-06)
(2.61328e-06 -1.01977e-06 2.20254e-06)
(2.60158e-06 -1.01241e-06 2.27948e-06)
(2.59043e-06 -1.00545e-06 2.34138e-06)
(2.57982e-06 -9.98857e-07 2.40105e-06)
(2.56972e-06 -9.92629e-07 2.45857e-06)
(2.56011e-06 -9.86747e-07 2.51404e-06)
(2.55098e-06 -9.81196e-07 2.56751e-06)
(2.5423e-06 -9.75962e-07 2.6199e-06)
(2.53407e-06 -9.71032e-07 2.67183e-06)
(2.52626e-06 -9.66394e-07 2.72188e-06)
(2.51886e-06 -9.62036e-07 2.7644e-06)
(2.51185e-06 -9.57946e-07 2.80541e-06)
(2.50523e-06 -9.54114e-07 2.84514e-06)
(2.49897e-06 -9.50528e-07 2.88366e-06)
(2.49306e-06 -9.47181e-07 2.92099e-06)
(2.4875e-06 -9.44061e-07 2.95719e-06)
(2.48227e-06 -9.41161e-07 2.99227e-06)
(2.47736e-06 -9.38473e-07 3.02627e-06)
(2.47275e-06 -9.35982e-07 3.05923e-06)
(2.46845e-06 -9.33687e-07 3.09116e-06)
(2.46443e-06 -9.31579e-07 3.1221e-06)
(2.46069e-06 -9.29651e-07 3.15209e-06)
(2.45722e-06 -9.27895e-07 3.18115e-06)
(2.45402e-06 -9.26305e-07 3.20933e-06)
(2.45106e-06 -9.24875e-07 3.23665e-06)
(2.44835e-06 -9.23598e-07 3.26313e-06)
(2.44587e-06 -9.22469e-07 3.28881e-06)
(2.44363e-06 -9.21482e-07 3.31371e-06)
(2.4416e-06 -9.20633e-07 3.33783e-06)
(2.43979e-06 -9.19914e-07 3.3613e-06)
(2.43819e-06 -9.19323e-07 3.38416e-06)
(2.43679e-06 -9.18854e-07 3.39052e-06)
(2.43559e-06 -9.18502e-07 3.39108e-06)
(2.43457e-06 -9.18264e-07 3.39135e-06)
(2.43374e-06 -9.18135e-07 3.39135e-06)
(2.43309e-06 -9.18111e-07 3.39108e-06)
(2.43261e-06 -9.18187e-07 3.39054e-06)
(2.43229e-06 -9.18362e-07 3.38975e-06)
(2.43214e-06 -9.1863e-07 3.3887e-06)
(2.43215e-06 -9.18989e-07 3.3874e-06)
(2.43231e-06 -9.19434e-07 3.38586e-06)
(2.43261e-06 -9.19964e-07 3.38406e-06)
(2.43307e-06 -9.20574e-07 3.38204e-06)
(2.43366e-06 -9.21263e-07 3.37978e-06)
(2.43439e-06 -9.22026e-07 3.37729e-06)
(2.43525e-06 -9.22862e-07 3.37457e-06)
(2.43624e-06 -9.23767e-07 3.37164e-06)
(2.43735e-06 -9.2474e-07 3.36827e-06)
(2.43858e-06 -9.25777e-07 3.36264e-06)
(2.43993e-06 -9.26876e-07 3.3568e-06)
(2.4414e-06 -9.28036e-07 3.35075e-06)
(2.44298e-06 -9.29253e-07 3.34451e-06)
(2.44466e-06 -9.30526e-07 3.33808e-06)
(2.44645e-06 -9.31852e-07 3.32975e-06)
(2.44834e-06 -9.3323e-07 3.319e-06)
(2.45033e-06 -9.34657e-07 3.30795e-06)
(2.45242e-06 -9.36132e-07 3.29662e-06)
(2.4546e-06 -9.37653e-07 3.28274e-06)
(2.45687e-06 -9.39219e-07 3.26401e-06)
(2.45923e-06 -9.40826e-07 3.24499e-06)
(2.46168e-06 -9.42475e-07 3.22566e-06)
(2.4642e-06 -9.44163e-07 3.20604e-06)
(2.46682e-06 -9.45889e-07 3.18612e-06)
(2.46951e-06 -9.47651e-07 3.16589e-06)
(2.47227e-06 -9.49449e-07 3.14538e-06)
(2.47512e-06 -9.51279e-07 3.12456e-06)
(2.47803e-06 -9.53142e-07 3.10344e-06)
(2.48102e-06 -9.55036e-07 3.082e-06)
(2.48407e-06 -9.56959e-07 3.06025e-06)
(2.4872e-06 -9.58911e-07 3.03818e-06)
(2.49038e-06 -9.60891e-07 3.01578e-06)
(2.49363e-06 -9.62896e-07 2.99307e-06)
(2.49695e-06 -9.64926e-07 2.97002e-06)
(2.50032e-06 -9.66981e-07 2.94663e-06)
(2.50375e-06 -9.69058e-07 2.92288e-06)
(2.50724e-06 -9.71157e-07 2.89876e-06)
(2.51079e-06 -9.73277e-07 2.87424e-06)
(2.51438e-06 -9.75416e-07 2.84929e-06)
(2.51803e-06 -9.77575e-07 2.82387e-06)
(2.52174e-06 -9.79752e-07 2.79795e-06)
(2.52549e-06 -9.81946e-07 2.77149e-06)
(2.52929e-06 -9.84157e-07 2.74448e-06)
(2.53314e-06 -9.86383e-07 2.7168e-06)
(2.53703e-06 -9.88625e-07 2.68965e-06)
(2.54098e-06 -9.90884e-07 2.66286e-06)
(2.85008e-06 -1.20176e-06 -8.10698e-07)
(2.82642e-06 -1.18607e-06 -4.3523e-07)
(2.80379e-06 -1.1711e-06 -7.28725e-08)
(2.78217e-06 -1.1569e-06 2.7126e-07)
(2.76151e-06 -1.14339e-06 5.99497e-07)
(2.74178e-06 -1.13055e-06 9.1217e-07)
(2.72292e-06 -1.11836e-06 1.22098e-06)
(2.70491e-06 -1.10677e-06 1.52658e-06)
(2.68771e-06 -1.09577e-06 1.81768e-06)
(2.67128e-06 -1.08532e-06 1.9073e-06)
(2.6556e-06 -1.0754e-06 1.92771e-06)
(2.64062e-06 -1.06598e-06 1.94858e-06)
(2.62633e-06 -1.05705e-06 1.97026e-06)
(2.6127e-06 -1.04859e-06 2.04397e-06)
(2.59969e-06 -1.04056e-06 2.11497e-06)
(2.58729e-06 -1.03296e-06 2.20284e-06)
(2.57548e-06 -1.02576e-06 2.28748e-06)
(2.56422e-06 -1.01894e-06 2.3686e-06)
(2.5535e-06 -1.0125e-06 2.4487e-06)
(2.54329e-06 -1.00641e-06 2.52691e-06)
(2.53358e-06 -1.00067e-06 2.60116e-06)
(2.52436e-06 -9.95243e-07 2.67193e-06)
(2.51559e-06 -9.90132e-07 2.73947e-06)
(2.50727e-06 -9.8532e-07 2.79521e-06)
(2.49937e-06 -9.80795e-07 2.84041e-06)
(2.49189e-06 -9.76546e-07 2.88468e-06)
(2.48481e-06 -9.7256e-07 2.92728e-06)
(2.47811e-06 -9.68827e-07 2.96829e-06)
(2.47178e-06 -9.65338e-07 3.00778e-06)
(2.4658e-06 -9.62081e-07 3.04582e-06)
(2.46018e-06 -9.5905e-07 3.08245e-06)
(2.45489e-06 -9.56231e-07 3.11774e-06)
(2.44991e-06 -9.53626e-07 3.15171e-06)
(2.44524e-06 -9.51219e-07 3.18445e-06)
(2.44088e-06 -9.48997e-07 3.21623e-06)
(2.43681e-06 -9.46962e-07 3.24683e-06)
(2.43301e-06 -9.45103e-07 3.27631e-06)
(2.42949e-06 -9.43414e-07 3.3047e-06)
(2.42624e-06 -9.41888e-07 3.33203e-06)
(2.42323e-06 -9.4052e-07 3.35835e-06)
(2.42047e-06 -9.39303e-07 3.3837e-06)
(2.41795e-06 -9.38232e-07 3.40812e-06)
(2.41566e-06 -9.373e-07 3.43164e-06)
(2.41359e-06 -9.36504e-07 3.45429e-06)
(2.41174e-06 -9.35837e-07 3.47611e-06)
(2.4101e-06 -9.35296e-07 3.49712e-06)
(2.40866e-06 -9.34875e-07 3.50431e-06)
(2.40741e-06 -9.3457e-07 3.50279e-06)
(2.40636e-06 -9.34377e-07 3.50086e-06)
(2.40549e-06 -9.34291e-07 3.49598e-06)
(2.4048e-06 -9.34308e-07 3.49078e-06)
(2.40428e-06 -9.34426e-07 3.48552e-06)
(2.40393e-06 -9.3464e-07 3.48134e-06)
(2.40374e-06 -9.34946e-07 3.47692e-06)
(2.40371e-06 -9.35341e-07 3.47224e-06)
(2.40384e-06 -9.35823e-07 3.46732e-06)
(2.40411e-06 -9.36387e-07 3.46216e-06)
(2.40453e-06 -9.37031e-07 3.45677e-06)
(2.40509e-06 -9.37753e-07 3.45116e-06)
(2.40579e-06 -9.38548e-07 3.44533e-06)
(2.40661e-06 -9.39414e-07 3.4393e-06)
(2.40757e-06 -9.4035e-07 3.43305e-06)
(2.40865e-06 -9.41352e-07 3.42661e-06)
(2.40985e-06 -9.42417e-07 3.41996e-06)
(2.41118e-06 -9.43544e-07 3.41311e-06)
(2.41261e-06 -9.44731e-07 3.40607e-06)
(2.41416e-06 -9.45974e-07 3.39885e-06)
(2.41581e-06 -9.47273e-07 3.39144e-06)
(2.41757e-06 -9.48624e-07 3.38386e-06)
(2.41943e-06 -9.50026e-07 3.37189e-06)
(2.42139e-06 -9.51478e-07 3.35242e-06)
(2.42345e-06 -9.52977e-07 3.33267e-06)
(2.4256e-06 -9.54521e-07 3.31264e-06)
(2.42784e-06 -9.56109e-07 3.29232e-06)
(2.43017e-06 -9.57739e-07 3.27172e-06)
(2.43259e-06 -9.59409e-07 3.25084e-06)
(2.43509e-06 -9.61119e-07 3.22969e-06)
(2.43767e-06 -9.62866e-07 3.20827e-06)
(2.44033e-06 -9.64649e-07 3.18658e-06)
(2.44306e-06 -9.66466e-07 3.16462e-06)
(2.44588e-06 -9.68317e-07 3.14238e-06)
(2.44876e-06 -9.70199e-07 3.11986e-06)
(2.45172e-06 -9.72113e-07 3.09705e-06)
(2.45474e-06 -9.74055e-07 3.07395e-06)
(2.45784e-06 -9.76026e-07 3.0502e-06)
(2.46099e-06 -9.78024e-07 3.02216e-06)
(2.46422e-06 -9.80048e-07 2.99377e-06)
(2.4675e-06 -9.82097e-07 2.96504e-06)
(2.47084e-06 -9.84169e-07 2.93594e-06)
(2.47424e-06 -9.86264e-07 2.90648e-06)
(2.4777e-06 -9.88381e-07 2.87662e-06)
(2.48121e-06 -9.90519e-07 2.84636e-06)
(2.48478e-06 -9.92676e-07 2.81565e-06)
(2.4884e-06 -9.94852e-07 2.7845e-06)
(2.49207e-06 -9.97046e-07 2.75289e-06)
(2.49579e-06 -9.99258e-07 2.72087e-06)
(2.49956e-06 -1.00149e-06 2.68847e-06)
(2.50337e-06 -1.00373e-06 2.65575e-06)
(2.50723e-06 -1.00599e-06 2.62388e-06)
(2.51114e-06 -1.00826e-06 2.59101e-06)
(2.82661e-06 -1.21134e-06 -1.15351e-06)
(2.8027e-06 -1.19598e-06 -7.87025e-07)
(2.77985e-06 -1.18133e-06 -4.33652e-07)
(2.75801e-06 -1.16742e-06 -9.79563e-08)
(2.73715e-06 -1.1542e-06 2.22136e-07)
(2.71722e-06 -1.14163e-06 5.27158e-07)
(2.69818e-06 -1.12969e-06 8.17808e-07)
(2.67999e-06 -1.11836e-06 1.09477e-06)
(2.66262e-06 -1.10759e-06 1.35886e-06)
(2.64604e-06 -1.09736e-06 1.61041e-06)
(2.6302e-06 -1.08766e-06 1.85015e-06)
(2.61508e-06 -1.07845e-06 2.07845e-06)
(2.60065e-06 -1.06971e-06 2.29941e-06)
(2.58689e-06 -1.06143e-06 2.35801e-06)
(2.57376e-06 -1.05359e-06 2.38442e-06)
(2.56124e-06 -1.04615e-06 2.41098e-06)
(2.5493e-06 -1.03912e-06 2.43758e-06)
(2.53794e-06 -1.03246e-06 2.46425e-06)
(2.52711e-06 -1.02617e-06 2.49097e-06)
(2.5168e-06 -1.02023e-06 2.54063e-06)
(2.507e-06 -1.01462e-06 2.6014e-06)
(2.49768e-06 -1.00932e-06 2.66972e-06)
(2.48883e-06 -1.00434e-06 2.73513e-06)
(2.48042e-06 -9.99649e-07 2.79653e-06)
(2.47244e-06 -9.9524e-07 2.84989e-06)
(2.46488e-06 -9.91101e-07 2.90119e-06)
(2.45773e-06 -9.87221e-07 2.95107e-06)
(2.45095e-06 -9.83591e-07 2.99913e-06)
(2.44455e-06 -9.802e-07 3.04532e-06)
(2.43852e-06 -9.77038e-07 3.08973e-06)
(2.43282e-06 -9.74097e-07 3.13043e-06)
(2.42747e-06 -9.71366e-07 3.16861e-06)
(2.42243e-06 -9.68838e-07 3.20519e-06)
(2.41771e-06 -9.6651e-07 3.24015e-06)
(2.41329e-06 -9.64369e-07 3.27359e-06)
(2.40917e-06 -9.62407e-07 3.30402e-06)
(2.40532e-06 -9.60619e-07 3.33146e-06)
(2.40175e-06 -9.58998e-07 3.35793e-06)
(2.39844e-06 -9.57539e-07 3.38345e-06)
(2.39539e-06 -9.56234e-07 3.40806e-06)
(2.39259e-06 -9.55078e-07 3.43179e-06)
(2.39002e-06 -9.54065e-07 3.45468e-06)
(2.38768e-06 -9.5319e-07 3.47675e-06)
(2.38557e-06 -9.52448e-07 3.49802e-06)
(2.38368e-06 -9.51835e-07 3.51853e-06)
(2.382e-06 -9.51344e-07 3.53831e-06)
(2.38052e-06 -9.50972e-07 3.54408e-06)
(2.37923e-06 -9.50714e-07 3.54132e-06)
(2.37814e-06 -9.50566e-07 3.53825e-06)
(2.37723e-06 -9.50524e-07 3.53491e-06)
(2.3765e-06 -9.50585e-07 3.53129e-06)
(2.37595e-06 -9.50744e-07 3.5274e-06)
(2.37557e-06 -9.50997e-07 3.52324e-06)
(2.37535e-06 -9.51342e-07 3.51884e-06)
(2.37528e-06 -9.51775e-07 3.51418e-06)
(2.37537e-06 -9.52293e-07 3.50928e-06)
(2.37562e-06 -9.52892e-07 3.50415e-06)
(2.376e-06 -9.53571e-07 3.49878e-06)
(2.37653e-06 -9.54325e-07 3.49319e-06)
(2.37719e-06 -9.55152e-07 3.48739e-06)
(2.37799e-06 -9.5605e-07 3.47982e-06)
(2.37891e-06 -9.57016e-07 3.47096e-06)
(2.37996e-06 -9.58047e-07 3.46178e-06)
(2.38114e-06 -9.59142e-07 3.45227e-06)
(2.38242e-06 -9.60297e-07 3.44245e-06)
(2.38383e-06 -9.61511e-07 3.42857e-06)
(2.38534e-06 -9.62781e-07 3.4108e-06)
(2.38697e-06 -9.64105e-07 3.39275e-06)
(2.3887e-06 -9.65482e-07 3.37234e-06)
(2.39053e-06 -9.66909e-07 3.34955e-06)
(2.39246e-06 -9.68385e-07 3.32639e-06)
(2.39449e-06 -9.69907e-07 3.30285e-06)
(2.39661e-06 -9.71475e-07 3.27897e-06)
(2.39882e-06 -9.73085e-07 3.25471e-06)
(2.40112e-06 -9.74738e-07 3.23011e-06)
(2.40351e-06 -9.7643e-07 3.20515e-06)
(2.40598e-06 -9.78161e-07 3.17986e-06)
(2.40853e-06 -9.79929e-07 3.15423e-06)
(2.41116e-06 -9.81732e-07 3.12827e-06)
(2.41387e-06 -9.8357e-07 3.10199e-06)
(2.41665e-06 -9.85441e-07 3.07536e-06)
(2.4195e-06 -9.87343e-07 3.05222e-06)
(2.42243e-06 -9.89276e-07 3.03878e-06)
(2.42543e-06 -9.91238e-07 3.02509e-06)
(2.42849e-06 -9.93227e-07 3.01118e-06)
(2.43162e-06 -9.95244e-07 2.99701e-06)
(2.43481e-06 -9.97287e-07 2.98819e-06)
(2.43806e-06 -9.99354e-07 2.98049e-06)
(2.44137e-06 -1.00144e-06 2.97254e-06)
(2.44474e-06 -1.00356e-06 2.96434e-06)
(2.44817e-06 -1.00569e-06 2.95588e-06)
(2.45165e-06 -1.00785e-06 2.94714e-06)
(2.45519e-06 -1.01002e-06 2.93812e-06)
(2.45878e-06 -1.01222e-06 2.92886e-06)
(2.46241e-06 -1.01443e-06 2.91934e-06)
(2.4661e-06 -1.01666e-06 2.90974e-06)
(2.46984e-06 -1.0189e-06 2.89991e-06)
(2.47362e-06 -1.02116e-06 2.89039e-06)
(2.47745e-06 -1.02344e-06 2.88216e-06)
(2.48132e-06 -1.02572e-06 2.88008e-06)
(2.80296e-06 -1.22085e-06 -1.49476e-06)
(2.77882e-06 -1.20583e-06 -1.13779e-06)
(2.75576e-06 -1.1915e-06 -7.9353e-07)
(2.73371e-06 -1.1779e-06 -4.66545e-07)
(2.71266e-06 -1.16496e-06 -1.54643e-07)
(2.69254e-06 -1.15268e-06 1.42545e-07)
(2.67332e-06 -1.141e-06 4.25762e-07)
(2.65496e-06 -1.12992e-06 6.95564e-07)
(2.63743e-06 -1.11939e-06 9.52785e-07)
(2.62069e-06 -1.10939e-06 1.19783e-06)
(2.60471e-06 -1.09991e-06 1.43138e-06)
(2.58945e-06 -1.09091e-06 1.65379e-06)
(2.57489e-06 -1.08238e-06 1.86579e-06)
(2.561e-06 -1.07429e-06 2.06775e-06)
(2.54775e-06 -1.06662e-06 2.26146e-06)
(2.53511e-06 -1.05937e-06 2.45046e-06)
(2.52307e-06 -1.0525e-06 2.63037e-06)
(2.51159e-06 -1.046e-06 2.80175e-06)
(2.50067e-06 -1.03986e-06 2.84096e-06)
(2.49027e-06 -1.03406e-06 2.87713e-06)
(2.48037e-06 -1.02859e-06 2.91278e-06)
(2.47096e-06 -1.02344e-06 2.94568e-06)
(2.46202e-06 -1.01858e-06 2.97406e-06)
(2.45353e-06 -1.01401e-06 3.00216e-06)
(2.44548e-06 -1.00972e-06 3.0289e-06)
(2.43784e-06 -1.0057e-06 3.0453e-06)
(2.43061e-06 -1.00193e-06 3.06218e-06)
(2.42377e-06 -9.984e-07 3.07951e-06)
(2.41731e-06 -9.95109e-07 3.09839e-06)
(2.4112e-06 -9.92043e-07 3.1179e-06)
(2.40545e-06 -9.89193e-07 3.13775e-06)
(2.40003e-06 -9.86552e-07 3.1579e-06)
(2.39494e-06 -9.8411e-07 3.18341e-06)
(2.39016e-06 -9.81861e-07 3.20952e-06)
(2.38569e-06 -9.79798e-07 3.23529e-06)
(2.38151e-06 -9.77911e-07 3.26491e-06)
(2.37762e-06 -9.76196e-07 3.29529e-06)
(2.374e-06 -9.74645e-07 3.32433e-06)
(2.37064e-06 -9.73252e-07 3.35208e-06)
(2.36754e-06 -9.72012e-07 3.3786e-06)
(2.36469e-06 -9.70918e-07 3.40393e-06)
(2.36208e-06 -9.69965e-07 3.42811e-06)
(2.35971e-06 -9.69148e-07 3.45119e-06)
(2.35755e-06 -9.68462e-07 3.4732e-06)
(2.35562e-06 -9.67901e-07 3.49419e-06)
(2.3539e-06 -9.67462e-07 3.51419e-06)
(2.35238e-06 -9.6714e-07 3.5197e-06)
(2.35106e-06 -9.6693e-07 3.51661e-06)
(2.34993e-06 -9.66829e-07 3.51299e-06)
(2.34898e-06 -9.66832e-07 3.50888e-06)
(2.34822e-06 -9.66935e-07 3.50787e-06)
(2.34763e-06 -9.67136e-07 3.50843e-06)
(2.34721e-06 -9.6743e-07 3.50903e-06)
(2.34696e-06 -9.67814e-07 3.50967e-06)
(2.34686e-06 -9.68285e-07 3.51032e-06)
(2.34692e-06 -9.6884e-07 3.511e-06)
(2.34713e-06 -9.69475e-07 3.51169e-06)
(2.34748e-06 -9.70188e-07 3.51238e-06)
(2.34798e-06 -9.70975e-07 3.51308e-06)
(2.34861e-06 -9.71835e-07 3.51378e-06)
(2.34937e-06 -9.72765e-07 3.51447e-06)
(2.35027e-06 -9.73761e-07 3.51903e-06)
(2.35129e-06 -9.74822e-07 3.51776e-06)
(2.35243e-06 -9.75946e-07 3.51665e-06)
(2.35369e-06 -9.77129e-07 3.51569e-06)
(2.35506e-06 -9.78371e-07 3.51487e-06)
(2.35655e-06 -9.79668e-07 3.51367e-06)
(2.35814e-06 -9.81018e-07 3.50868e-06)
(2.35984e-06 -9.82421e-07 3.50367e-06)
(2.36164e-06 -9.83873e-07 3.49864e-06)
(2.36354e-06 -9.85373e-07 3.49358e-06)
(2.36554e-06 -9.86919e-07 3.48848e-06)
(2.36763e-06 -9.8851e-07 3.48333e-06)
(2.36981e-06 -9.90144e-07 3.4781e-06)
(2.37208e-06 -9.91818e-07 3.4728e-06)
(2.37444e-06 -9.93533e-07 3.4674e-06)
(2.37688e-06 -9.95285e-07 3.4619e-06)
(2.3794e-06 -9.97074e-07 3.45631e-06)
(2.382e-06 -9.98898e-07 3.4506e-06)
(2.38468e-06 -1.00076e-06 3.44478e-06)
(2.38744e-06 -1.00265e-06 3.43881e-06)
(2.39026e-06 -1.00457e-06 3.43269e-06)
(2.39316e-06 -1.00652e-06 3.42641e-06)
(2.39612e-06 -1.0085e-06 3.41996e-06)
(2.39915e-06 -1.01051e-06 3.41332e-06)
(2.40225e-06 -1.01255e-06 3.40652e-06)
(2.40541e-06 -1.01461e-06 3.39951e-06)
(2.40863e-06 -1.01669e-06 3.39232e-06)
(2.41192e-06 -1.0188e-06 3.38491e-06)
(2.41526e-06 -1.02093e-06 3.37729e-06)
(2.41865e-06 -1.02308e-06 3.36947e-06)
(2.4221e-06 -1.02526e-06 3.36144e-06)
(2.42561e-06 -1.02745e-06 3.3532e-06)
(2.42916e-06 -1.02966e-06 3.34481e-06)
(2.43277e-06 -1.03189e-06 3.33626e-06)
(2.43643e-06 -1.03413e-06 3.32774e-06)
(2.44013e-06 -1.0364e-06 3.3236e-06)
(2.44388e-06 -1.03867e-06 3.32284e-06)
(2.44767e-06 -1.04097e-06 3.28619e-06)
(2.45151e-06 -1.04327e-06 3.23971e-06)
(2.77915e-06 -1.23029e-06 -1.83472e-06)
(2.75479e-06 -1.21562e-06 -1.4875e-06)
(2.73152e-06 -1.20161e-06 -1.15243e-06)
(2.70927e-06 -1.18832e-06 -8.34255e-07)
(2.68803e-06 -1.17568e-06 -5.30797e-07)
(2.66773e-06 -1.16368e-06 -2.4161e-07)
(2.64834e-06 -1.15228e-06 3.40376e-08)
(2.62982e-06 -1.14145e-06 2.96521e-07)
(2.61214e-06 -1.13117e-06 5.46849e-07)
(2.59525e-06 -1.12141e-06 7.85259e-07)
(2.57913e-06 -1.11215e-06 1.01256e-06)
(2.56373e-06 -1.10336e-06 1.23555e-06)
(2.54905e-06 -1.09504e-06 1.44842e-06)
(2.53503e-06 -1.08714e-06 1.6513e-06)
(2.52166e-06 -1.07967e-06 1.84455e-06)
(2.50892e-06 -1.07259e-06 2.02867e-06)
(2.49677e-06 -1.06589e-06 2.20404e-06)
(2.48519e-06 -1.05956e-06 2.37099e-06)
(2.47417e-06 -1.05357e-06 2.525e-06)
(2.46368e-06 -1.04793e-06 2.66794e-06)
(2.45369e-06 -1.0426e-06 2.80364e-06)
(2.4442e-06 -1.03758e-06 2.9326e-06)
(2.43518e-06 -1.03285e-06 3.05502e-06)
(2.42661e-06 -1.02841e-06 3.1712e-06)
(2.41848e-06 -1.02424e-06 3.28136e-06)
(2.41077e-06 -1.02033e-06 3.34902e-06)
(2.40347e-06 -1.01667e-06 3.37626e-06)
(2.39657e-06 -1.01325e-06 3.39889e-06)
(2.39004e-06 -1.01006e-06 3.42168e-06)
(2.38387e-06 -1.00709e-06 3.44461e-06)
(2.37806e-06 -1.00434e-06 3.46826e-06)
(2.37258e-06 -1.00179e-06 3.49249e-06)
(2.36743e-06 -9.99431e-07 3.51678e-06)
(2.3626e-06 -9.97265e-07 3.54112e-06)
(2.35808e-06 -9.95281e-07 3.56549e-06)
(2.35385e-06 -9.93472e-07 3.58988e-06)
(2.34991e-06 -9.9183e-07 3.61428e-06)
(2.34624e-06 -9.9035e-07 3.63869e-06)
(2.34284e-06 -9.89026e-07 3.66312e-06)
(2.3397e-06 -9.87851e-07 3.68754e-06)
(2.3368e-06 -9.8682e-07 3.71196e-06)
(2.33415e-06 -9.85928e-07 3.73637e-06)
(2.33173e-06 -9.85169e-07 3.76076e-06)
(2.32954e-06 -9.84539e-07 3.78512e-06)
(2.32757e-06 -9.84033e-07 3.80947e-06)
(2.3258e-06 -9.83647e-07 3.8321e-06)
(2.32425e-06 -9.83375e-07 3.83458e-06)
(2.32289e-06 -9.83214e-07 3.83737e-06)
(2.32172e-06 -9.83159e-07 3.84048e-06)
(2.32074e-06 -9.83208e-07 3.84388e-06)
(2.31995e-06 -9.83356e-07 3.84755e-06)
(2.31932e-06 -9.83599e-07 3.8515e-06)
(2.31887e-06 -9.83934e-07 3.85568e-06)
(2.31858e-06 -9.84358e-07 3.86012e-06)
(2.31845e-06 -9.84867e-07 3.86477e-06)
(2.31848e-06 -9.85459e-07 3.86964e-06)
(2.31865e-06 -9.8613e-07 3.8747e-06)
(2.31898e-06 -9.86878e-07 3.87995e-06)
(2.31944e-06 -9.87699e-07 3.88537e-06)
(2.32004e-06 -9.88592e-07 3.89096e-06)
(2.32077e-06 -9.89554e-07 3.8967e-06)
(2.32164e-06 -9.90581e-07 3.89941e-06)
(2.32263e-06 -9.91672e-07 3.89885e-06)
(2.32374e-06 -9.92825e-07 3.89524e-06)
(2.32497e-06 -9.94037e-07 3.89087e-06)
(2.32631e-06 -9.95306e-07 3.88649e-06)
(2.32777e-06 -9.9663e-07 3.88209e-06)
(2.32933e-06 -9.98007e-07 3.87767e-06)
(2.331e-06 -9.99435e-07 3.87323e-06)
(2.33277e-06 -1.00091e-06 3.86877e-06)
(2.33464e-06 -1.00244e-06 3.86425e-06)
(2.33661e-06 -1.00401e-06 3.85971e-06)
(2.33867e-06 -1.00562e-06 3.85417e-06)
(2.34083e-06 -1.00728e-06 3.80922e-06)
(2.34307e-06 -1.00898e-06 3.76366e-06)
(2.34539e-06 -1.01071e-06 3.71748e-06)
(2.34781e-06 -1.01249e-06 3.67072e-06)
(2.3503e-06 -1.0143e-06 3.62338e-06)
(2.35287e-06 -1.01614e-06 3.57551e-06)
(2.35552e-06 -1.01802e-06 3.52709e-06)
(2.35824e-06 -1.01993e-06 3.47814e-06)
(2.36104e-06 -1.02187e-06 3.42873e-06)
(2.36391e-06 -1.02384e-06 3.37883e-06)
(2.36684e-06 -1.02584e-06 3.32848e-06)
(2.36984e-06 -1.02787e-06 3.27767e-06)
(2.37291e-06 -1.02993e-06 3.22637e-06)
(2.37604e-06 -1.03201e-06 3.17465e-06)
(2.37923e-06 -1.03411e-06 3.12256e-06)
(2.38248e-06 -1.03624e-06 3.07008e-06)
(2.38579e-06 -1.03838e-06 3.01724e-06)
(2.38916e-06 -1.04055e-06 2.96407e-06)
(2.39258e-06 -1.04274e-06 2.91059e-06)
(2.39605e-06 -1.04495e-06 2.85686e-06)
(2.39957e-06 -1.04718e-06 2.80292e-06)
(2.40315e-06 -1.04943e-06 2.75703e-06)
(2.40677e-06 -1.05169e-06 2.71096e-06)
(2.41044e-06 -1.05397e-06 2.66499e-06)
(2.41416e-06 -1.05626e-06 2.61852e-06)
(2.41792e-06 -1.05857e-06 2.57262e-06)
(2.42172e-06 -1.06089e-06 2.52628e-06)
(2.75518e-06 -1.23966e-06 -2.10717e-06)
(2.73061e-06 -1.22534e-06 -1.82326e-06)
(2.70713e-06 -1.21167e-06 -1.51041e-06)
(2.6847e-06 -1.1987e-06 -1.20121e-06)
(2.66327e-06 -1.18636e-06 -9.06275e-07)
(2.6428e-06 -1.17465e-06 -6.25248e-07)
(2.62325e-06 -1.16352e-06 -3.57283e-07)
(2.60458e-06 -1.15296e-06 -1.01759e-07)
(2.58674e-06 -1.14293e-06 1.49412e-07)
(2.56971e-06 -1.13341e-06 3.88764e-07)
(2.55346e-06 -1.12438e-06 6.17e-07)
(2.53794e-06 -1.11581e-06 8.34432e-07)
(2.52313e-06 -1.10769e-06 1.04162e-06)
(2.50899e-06 -1.1e-06 1.23911e-06)
(2.49552e-06 -1.09271e-06 1.42722e-06)
(2.48266e-06 -1.08581e-06 1.60258e-06)
(2.47041e-06 -1.07929e-06 1.76388e-06)
(2.45874e-06 -1.07312e-06 1.91731e-06)
(2.44762e-06 -1.0673e-06 2.06315e-06)
(2.43704e-06 -1.06181e-06 2.20184e-06)
(2.42697e-06 -1.05662e-06 2.33349e-06)
(2.4174e-06 -1.05174e-06 2.45857e-06)
(2.4083e-06 -1.04715e-06 2.57728e-06)
(2.39966e-06 -1.04284e-06 2.68992e-06)
(2.39145e-06 -1.03879e-06 2.79668e-06)
(2.38368e-06 -1.035e-06 2.89783e-06)
(2.37631e-06 -1.03145e-06 2.9936e-06)
(2.36934e-06 -1.02814e-06 3.0842e-06)
(2.36275e-06 -1.02506e-06 3.16989e-06)
(2.35652e-06 -1.02219e-06 3.23821e-06)
(2.35065e-06 -1.01953e-06 3.30197e-06)
(2.34512e-06 -1.01707e-06 3.36258e-06)
(2.33992e-06 -1.0148e-06 3.42069e-06)
(2.33504e-06 -1.01272e-06 3.48558e-06)
(2.33047e-06 -1.01081e-06 3.54734e-06)
(2.32619e-06 -1.00908e-06 3.60609e-06)
(2.3222e-06 -1.00752e-06 3.66193e-06)
(2.31848e-06 -1.00611e-06 3.71501e-06)
(2.31504e-06 -1.00485e-06 3.76544e-06)
(2.31185e-06 -1.00375e-06 3.81337e-06)
(2.30892e-06 -1.00278e-06 3.85889e-06)
(2.30622e-06 -1.00195e-06 3.90209e-06)
(2.30376e-06 -1.00125e-06 3.94307e-06)
(2.30153e-06 -1.00068e-06 3.98188e-06)
(2.29952e-06 -1.00023e-06 4.01864e-06)
(2.29772e-06 -9.99893e-07 4.03197e-06)
(2.29613e-06 -9.99672e-07 4.02004e-06)
(2.29473e-06 -9.99561e-07 4.00707e-06)
(2.29353e-06 -9.99554e-07 3.99305e-06)
(2.29252e-06 -9.99649e-07 3.97805e-06)
(2.29169e-06 -9.99841e-07 3.96212e-06)
(2.29103e-06 -1.00013e-06 3.94526e-06)
(2.29054e-06 -1.0005e-06 3.92757e-06)
(2.29022e-06 -1.00097e-06 3.909e-06)
(2.29006e-06 -1.00152e-06 3.88966e-06)
(2.29006e-06 -1.00215e-06 3.86954e-06)
(2.2902e-06 -1.00285e-06 3.8487e-06)
(2.29049e-06 -1.00364e-06 3.82715e-06)
(2.29092e-06 -1.00449e-06 3.80493e-06)
(2.29149e-06 -1.00542e-06 3.77212e-06)
(2.2922e-06 -1.00641e-06 3.73812e-06)
(2.29303e-06 -1.00747e-06 3.702e-06)
(2.29399e-06 -1.00859e-06 3.66474e-06)
(2.29507e-06 -1.00977e-06 3.62654e-06)
(2.29627e-06 -1.01102e-06 3.58746e-06)
(2.29758e-06 -1.01231e-06 3.54751e-06)
(2.29901e-06 -1.01366e-06 3.50673e-06)
(2.30055e-06 -1.01507e-06 3.46515e-06)
(2.30219e-06 -1.01652e-06 3.4228e-06)
(2.30393e-06 -1.01802e-06 3.37971e-06)
(2.30577e-06 -1.01957e-06 3.3359e-06)
(2.30771e-06 -1.02117e-06 3.29139e-06)
(2.30974e-06 -1.02281e-06 3.24622e-06)
(2.31186e-06 -1.02449e-06 3.2004e-06)
(2.31408e-06 -1.02621e-06 3.15397e-06)
(2.31637e-06 -1.02796e-06 3.10693e-06)
(2.31876e-06 -1.02976e-06 3.05932e-06)
(2.32122e-06 -1.03159e-06 3.01116e-06)
(2.32376e-06 -1.03346e-06 2.96245e-06)
(2.32638e-06 -1.03535e-06 2.91325e-06)
(2.32907e-06 -1.03729e-06 2.86349e-06)
(2.33184e-06 -1.03925e-06 2.81327e-06)
(2.33468e-06 -1.04124e-06 2.76258e-06)
(2.33758e-06 -1.04326e-06 2.71148e-06)
(2.34055e-06 -1.0453e-06 2.66004e-06)
(2.34359e-06 -1.04737e-06 2.608e-06)
(2.34669e-06 -1.04947e-06 2.55553e-06)
(2.34985e-06 -1.0516e-06 2.50276e-06)
(2.35307e-06 -1.05374e-06 2.44963e-06)
(2.35635e-06 -1.05591e-06 2.39617e-06)
(2.35968e-06 -1.0581e-06 2.34243e-06)
(2.36307e-06 -1.0603e-06 2.2916e-06)
(2.36651e-06 -1.06253e-06 2.2455e-06)
(2.37e-06 -1.06478e-06 2.19918e-06)
(2.37355e-06 -1.06704e-06 2.15272e-06)
(2.37714e-06 -1.06932e-06 2.10602e-06)
(2.38078e-06 -1.07161e-06 2.0594e-06)
(2.38446e-06 -1.07392e-06 2.01228e-06)
(2.38819e-06 -1.07625e-06 1.96572e-06)
(2.39196e-06 -1.07858e-06 1.91862e-06)
(2.73105e-06 -1.24896e-06 -2.28764e-06)
(2.70628e-06 -1.235e-06 -2.05378e-06)
(2.68261e-06 -1.22167e-06 -1.82992e-06)
(2.65999e-06 -1.20902e-06 -1.56726e-06)
(2.63839e-06 -1.197e-06 -1.28097e-06)
(2.61776e-06 -1.18558e-06 -1.00218e-06)
(2.59805e-06 -1.17474e-06 -7.3325e-07)
(2.57923e-06 -1.16444e-06 -4.77096e-07)
(2.56125e-06 -1.15466e-06 -2.32815e-07)
(2.54409e-06 -1.14539e-06 -1.04969e-10)
(2.5277e-06 -1.13659e-06 2.21813e-07)
(2.51206e-06 -1.12825e-06 4.33306e-07)
(2.49713e-06 -1.12034e-06 6.34696e-07)
(2.48289e-06 -1.11285e-06 8.17153e-07)
(2.4693e-06 -1.10575e-06 9.89861e-07)
(2.45635e-06 -1.09904e-06 1.15425e-06)
(2.444e-06 -1.0927e-06 1.31062e-06)
(2.43224e-06 -1.0867e-06 1.45931e-06)
(2.42103e-06 -1.08104e-06 1.60061e-06)
(2.41036e-06 -1.0757e-06 1.735e-06)
(2.40021e-06 -1.07067e-06 1.86255e-06)
(2.39056e-06 -1.06593e-06 1.98368e-06)
(2.38139e-06 -1.06148e-06 2.0986e-06)
(2.37267e-06 -1.05729e-06 2.2076e-06)
(2.3644e-06 -1.05337e-06 2.31093e-06)
(2.35656e-06 -1.0497e-06 2.40879e-06)
(2.34913e-06 -1.04627e-06 2.50142e-06)
(2.3421e-06 -1.04306e-06 2.58898e-06)
(2.33545e-06 -1.04008e-06 2.67173e-06)
(2.32916e-06 -1.03732e-06 2.74989e-06)
(2.32324e-06 -1.03475e-06 2.82365e-06)
(2.31765e-06 -1.03239e-06 2.89316e-06)
(2.3124e-06 -1.03021e-06 2.95191e-06)
(2.30747e-06 -1.02821e-06 3.00464e-06)
(2.30285e-06 -1.02639e-06 3.05466e-06)
(2.29852e-06 -1.02474e-06 3.10432e-06)
(2.29449e-06 -1.02325e-06 3.15832e-06)
(2.29073e-06 -1.02192e-06 3.20963e-06)
(2.28724e-06 -1.02073e-06 3.25835e-06)
(2.28402e-06 -1.01969e-06 3.30462e-06)
(2.28104e-06 -1.01879e-06 3.34855e-06)
(2.27831e-06 -1.01802e-06 3.39023e-06)
(2.27581e-06 -1.01738e-06 3.42976e-06)
(2.27354e-06 -1.01687e-06 3.46716e-06)
(2.27149e-06 -1.01648e-06 3.5026e-06)
(2.26965e-06 -1.0162e-06 3.49713e-06)
(2.26803e-06 -1.01603e-06 3.4838e-06)
(2.2666e-06 -1.01597e-06 3.46945e-06)
(2.26536e-06 -1.01601e-06 3.45412e-06)
(2.26431e-06 -1.01615e-06 3.43783e-06)
(2.26345e-06 -1.01639e-06 3.42066e-06)
(2.26276e-06 -1.01672e-06 3.40259e-06)
(2.26224e-06 -1.01714e-06 3.38371e-06)
(2.26189e-06 -1.01764e-06 3.36352e-06)
(2.26169e-06 -1.01823e-06 3.33525e-06)
(2.26166e-06 -1.0189e-06 3.30572e-06)
(2.26177e-06 -1.01964e-06 3.275e-06)
(2.26203e-06 -1.02046e-06 3.24312e-06)
(2.26243e-06 -1.02135e-06 3.21012e-06)
(2.26297e-06 -1.02231e-06 3.17606e-06)
(2.26365e-06 -1.02333e-06 3.14065e-06)
(2.26445e-06 -1.02443e-06 3.10328e-06)
(2.26538e-06 -1.02558e-06 3.06497e-06)
(2.26643e-06 -1.02679e-06 3.02575e-06)
(2.2676e-06 -1.02806e-06 2.98565e-06)
(2.26889e-06 -1.02938e-06 2.94472e-06)
(2.27028e-06 -1.03076e-06 2.90296e-06)
(2.27179e-06 -1.03219e-06 2.86043e-06)
(2.2734e-06 -1.03367e-06 2.81715e-06)
(2.27511e-06 -1.0352e-06 2.77314e-06)
(2.27692e-06 -1.03678e-06 2.72843e-06)
(2.27883e-06 -1.03839e-06 2.68304e-06)
(2.28084e-06 -1.04006e-06 2.63699e-06)
(2.28293e-06 -1.04176e-06 2.59032e-06)
(2.28511e-06 -1.0435e-06 2.54304e-06)
(2.28738e-06 -1.04528e-06 2.49517e-06)
(2.28973e-06 -1.0471e-06 2.44671e-06)
(2.29217e-06 -1.04895e-06 2.39775e-06)
(2.29467e-06 -1.05084e-06 2.34819e-06)
(2.29727e-06 -1.05276e-06 2.29826e-06)
(2.29994e-06 -1.05471e-06 2.24783e-06)
(2.30267e-06 -1.05669e-06 2.19678e-06)
(2.30548e-06 -1.05871e-06 2.14538e-06)
(2.30835e-06 -1.06075e-06 2.09341e-06)
(2.31129e-06 -1.06281e-06 2.04129e-06)
(2.3143e-06 -1.06489e-06 1.98889e-06)
(2.31738e-06 -1.06701e-06 1.93582e-06)
(2.3205e-06 -1.06915e-06 1.8824e-06)
(2.32369e-06 -1.07131e-06 1.82869e-06)
(2.32694e-06 -1.0735e-06 1.78105e-06)
(2.33024e-06 -1.0757e-06 1.73479e-06)
(2.3336e-06 -1.07793e-06 1.68826e-06)
(2.337e-06 -1.08017e-06 1.64152e-06)
(2.34047e-06 -1.08244e-06 1.59456e-06)
(2.34398e-06 -1.08472e-06 1.54746e-06)
(2.34754e-06 -1.08701e-06 1.50013e-06)
(2.35114e-06 -1.08932e-06 1.45288e-06)
(2.35479e-06 -1.09165e-06 1.40514e-06)
(2.35849e-06 -1.09399e-06 1.35792e-06)
(2.36223e-06 -1.09634e-06 1.31012e-06)
(2.70676e-06 -1.25819e-06 -2.02854e-06)
(2.68179e-06 -1.2446e-06 -2.45907e-06)
(2.65794e-06 -1.23161e-06 -2.11112e-06)
(2.63515e-06 -1.2193e-06 -1.80602e-06)
(2.61339e-06 -1.20759e-06 -1.60685e-06)
(2.59259e-06 -1.19647e-06 -1.36196e-06)
(2.57274e-06 -1.18591e-06 -1.10078e-06)
(2.55377e-06 -1.17588e-06 -8.51994e-07)
(2.53566e-06 -1.16637e-06 -6.14729e-07)
(2.51837e-06 -1.15734e-06 -3.8868e-07)
(2.50186e-06 -1.14878e-06 -1.75093e-07)
(2.4861e-06 -1.14067e-06 1.89333e-08)
(2.47106e-06 -1.13297e-06 2.03524e-07)
(2.45672e-06 -1.12569e-06 3.79224e-07)
(2.44303e-06 -1.1188e-06 5.46464e-07)
(2.42998e-06 -1.11227e-06 7.05575e-07)
(2.41754e-06 -1.10611e-06 8.56926e-07)
(2.40569e-06 -1.10029e-06 1.00085e-06)
(2.3944e-06 -1.09479e-06 1.13758e-06)
(2.38365e-06 -1.08961e-06 1.26755e-06)
(2.37342e-06 -1.08473e-06 1.39092e-06)
(2.36369e-06 -1.08014e-06 1.50804e-06)
(2.35445e-06 -1.07582e-06 1.61914e-06)
(2.34566e-06 -1.07177e-06 1.72448e-06)
(2.33733e-06 -1.06797e-06 1.82428e-06)
(2.32942e-06 -1.06442e-06 1.91877e-06)
(2.32193e-06 -1.06111e-06 2.00819e-06)
(2.31484e-06 -1.05802e-06 2.09269e-06)
(2.30813e-06 -1.05515e-06 2.17249e-06)
(2.3018e-06 -1.05248e-06 2.2478e-06)
(2.29582e-06 -1.05002e-06 2.31881e-06)
(2.29018e-06 -1.04775e-06 2.38571e-06)
(2.28488e-06 -1.04566e-06 2.44863e-06)
(2.2799e-06 -1.04375e-06 2.50773e-06)
(2.27524e-06 -1.04202e-06 2.56316e-06)
(2.27087e-06 -1.04044e-06 2.61504e-06)
(2.26679e-06 -1.03903e-06 2.6635e-06)
(2.26299e-06 -1.03777e-06 2.70869e-06)
(2.25946e-06 -1.03666e-06 2.74991e-06)
(2.25619e-06 -1.03569e-06 2.79449e-06)
(2.25317e-06 -1.03485e-06 2.83682e-06)
(2.2504e-06 -1.03415e-06 2.87692e-06)
(2.24787e-06 -1.03357e-06 2.91497e-06)
(2.24556e-06 -1.03311e-06 2.95094e-06)
(2.24348e-06 -1.03278e-06 2.975e-06)
(2.24161e-06 -1.03255e-06 2.9602e-06)
(2.23994e-06 -1.03244e-06 2.94218e-06)
(2.23848e-06 -1.03242e-06 2.92252e-06)
(2.23721e-06 -1.03252e-06 2.90128e-06)
(2.23613e-06 -1.0327e-06 2.87851e-06)
(2.23523e-06 -1.03299e-06 2.8543e-06)
(2.23451e-06 -1.03336e-06 2.82866e-06)