/*--------------------------------*- C++ -*----------------------------------*\
| =========                 |                                                 |
| \\      /  F ield         | foam-extend: Open Source CFD                    |
|  \\    /   O peration     | Version:     4.1                                |
|   \\  /    A nd           | Web:         http://www.foam-extend.org         |
|    \\/     M anipulation  |                                                 |
\*---------------------------------------------------------------------------*/
FoamFile
{
    version     2.0;
    format      ascii;
    class       volScalarField;
    location    "5";
    object      epsilonEq;
}
// * * * * * * * * * * * * * * * * * * * * * * * * * * * * * * * * * * * * * //

dimensions      [0 0 0 0 0 0 0];

internalField   nonuniform List<scalar> 
100000
(
5.7805e-05
7.0867e-05
7.22267e-05
7.2918e-05
5.62664e-05
3.26363e-05
9.06486e-06
1.26131e-05
2.5093e-05
2.44446e-05
1.95044e-05
1.59467e-05
1.364e-05
1.33504e-05
1.30795e-05
1.32798e-05
1.31993e-05
1.35844e-05
1.45086e-05
1.54769e-05
1.63601e-05
1.70646e-05
1.77189e-05
1.78059e-05
1.72843e-05
1.68307e-05
1.64935e-05
1.63619e-05
1.63008e-05
1.6226e-05
1.61386e-05
1.60404e-05
1.59321e-05
1.58159e-05
1.57045e-05
1.55849e-05
1.54583e-05
1.5325e-05
1.51857e-05
1.50409e-05
1.48913e-05
1.47378e-05
1.4581e-05
1.44219e-05
1.42613e-05
1.39574e-05
1.39483e-05
1.3776e-05
1.36039e-05
1.33061e-05
1.30095e-05
1.27261e-05
1.25087e-05
1.22941e-05
1.2082e-05
1.18727e-05
1.1666e-05
1.14619e-05
1.12609e-05
1.10627e-05
1.08668e-05
1.06721e-05
1.04858e-05
1.03044e-05
1.01199e-05
1.00726e-05
1.00433e-05
1.00275e-05
1.00317e-05
9.86459e-06
9.3958e-06
8.95687e-06
8.83786e-06
8.72149e-06
8.55067e-06
8.38398e-06
8.29853e-06
8.21717e-06
8.13784e-06
8.06049e-06
7.98573e-06
7.91336e-06
7.84323e-06
7.77502e-06
7.69629e-06
7.4857e-06
7.28003e-06
7.07969e-06
6.88473e-06
6.69548e-06
6.51287e-06
6.33745e-06
6.16915e-06
6.00894e-06
5.85698e-06
5.71602e-06
5.58768e-06
5.43436e-06
5.29443e-06
5.99088e-06
5.50509e-05
6.65099e-05
6.69522e-05
6.7965e-05
6.9185e-05
7.0232e-05
6.02199e-05
4.59454e-05
2.61034e-05
7.26738e-06
8.92321e-06
1.69308e-05
2.50614e-05
2.33763e-05
1.97347e-05
1.67485e-05
1.40352e-05
1.23356e-05
1.10285e-05
1.05042e-05
1.03048e-05
1.04848e-05
1.03241e-05
9.86169e-06
9.59699e-06
9.88825e-06
1.01738e-05
1.04448e-05
1.0694e-05
1.09197e-05
1.10223e-05
1.10585e-05
1.07048e-05
1.10652e-05
1.10366e-05
1.09057e-05
1.06799e-05
1.04563e-05
1.02348e-05
1.00152e-05
9.79804e-06
9.58341e-06
9.37149e-06
9.16249e-06
8.95341e-06
8.5671e-06
8.34089e-06
8.13739e-06
7.94852e-06
7.76762e-06
7.57992e-06
7.38963e-06
7.20328e-06
7.0261e-06
6.85242e-06
6.68247e-06
6.51648e-06
6.35412e-06
6.1959e-06
6.04161e-06
5.83259e-06
5.59036e-06
5.36045e-06
5.20663e-06
5.05408e-06
4.78159e-06
4.41585e-06
4.08771e-06
3.86036e-06
3.89702e-06
3.98393e-06
3.92957e-06
3.94072e-06
3.97346e-06
4.01882e-06
4.07723e-06
4.14726e-06
4.22841e-06
4.32017e-06
4.42155e-06
4.53231e-06
4.5797e-06
4.45604e-06
4.3676e-06
4.45537e-06
4.57203e-06
4.54329e-06
4.58672e-06
4.70846e-06
4.90219e-06
5.15919e-06
5.47067e-06
5.82788e-06
6.22389e-06
6.65157e-06
7.10997e-06
7.59217e-06
8.08326e-06
8.6302e-06
9.70347e-06
5.43713e-05
6.57358e-05
6.52587e-05
6.46861e-05
6.42001e-05
6.37446e-05
6.39655e-05
6.48811e-05
6.57607e-05
5.54994e-05
4.27882e-05
3.26146e-05
1.78709e-05
5.83892e-06
1.02336e-05
1.62651e-05
2.2005e-05
2.73931e-05
2.48595e-05
2.26071e-05
2.05741e-05
1.84539e-05
1.60853e-05
1.42469e-05
1.29624e-05
1.1427e-05
1.00809e-05
8.89799e-06
7.93069e-06
7.05354e-06
6.2831e-06
5.73156e-06
5.42776e-06
5.18943e-06
4.92034e-06
4.66109e-06
4.5171e-06
4.45571e-06
4.39504e-06
4.33523e-06
4.27627e-06
4.21782e-06
4.15961e-06
4.10217e-06
4.04587e-06
3.61249e-06
3.2804e-06
3.27756e-06
3.26843e-06
3.28253e-06
3.33438e-06
3.42123e-06
3.50651e-06
3.60816e-06
3.72624e-06
3.86094e-06
4.01172e-06
4.178e-06
4.35905e-06
4.5681e-06
4.80354e-06
5.169e-06
5.33696e-06
5.51884e-06
5.76145e-06
6.08362e-06
6.34876e-06
6.46044e-06
6.6255e-06
6.90105e-06
7.39449e-06
7.90398e-06
8.42646e-06
8.96073e-06
9.50362e-06
1.00534e-05
1.06094e-05
1.117e-05
1.17346e-05
1.23023e-05
1.28196e-05
1.3237e-05
1.3732e-05
1.43093e-05
1.48999e-05
1.56122e-05
1.6327e-05
1.70671e-05
1.7811e-05
1.85544e-05
1.92979e-05
2.00423e-05
2.07885e-05
2.15382e-05
2.22916e-05
2.30546e-05
2.39853e-05
2.504e-05
2.47252e-05
2.45174e-05
5.39703e-05
6.49454e-05
6.4531e-05
6.40346e-05
6.3616e-05
6.32248e-05
6.28597e-05
6.25365e-05
6.22338e-05
6.19494e-05
6.16735e-05
6.10174e-05
6.05737e-05
5.12314e-05
4.12233e-05
3.25159e-05
2.53293e-05
1.39105e-05
5.66055e-06
9.32894e-06
1.32762e-05
1.65447e-05
1.96793e-05
2.27051e-05
2.57562e-05
2.64575e-05
2.4955e-05
2.3325e-05
2.184e-05
2.04837e-05
1.93956e-05
1.85339e-05
1.77911e-05
1.71032e-05
1.65434e-05
1.61713e-05
1.59015e-05
1.56616e-05
1.5475e-05
1.53386e-05
1.52498e-05
1.52048e-05
1.52021e-05
1.52379e-05
1.53118e-05
1.5246e-05
1.49218e-05
1.51038e-05
1.53078e-05
1.55307e-05
1.57774e-05
1.60503e-05
1.63438e-05
1.66572e-05
1.69884e-05
1.73368e-05
1.77008e-05
1.80794e-05
1.84717e-05
1.88764e-05
1.93646e-05
1.9766e-05
2.00329e-05
2.01749e-05
2.02956e-05
2.05922e-05
2.1058e-05
2.15312e-05
2.20947e-05
2.2753e-05
2.34177e-05
2.40897e-05
2.4727e-05
2.37178e-05
2.27096e-05
2.1703e-05
2.06985e-05
1.96969e-05
1.86992e-05
1.77054e-05
1.67171e-05
1.55853e-05
1.407e-05
1.25716e-05
1.10932e-05
9.63931e-06
8.01952e-06
6.42762e-06
4.97483e-06
3.80575e-06
3.21955e-06
3.49664e-06
4.45844e-06
5.75527e-06
6.91608e-06
8.10347e-06
9.3103e-06
1.07597e-05
1.27383e-05
2.06238e-05
4.91251e-05
6.34154e-05
6.38048e-05
6.33724e-05
6.30215e-05
6.26972e-05
6.2386e-05
6.20873e-05
6.13546e-05
6.06523e-05
6.01387e-05
5.96427e-05
5.90127e-05
5.83933e-05
5.7879e-05
5.78771e-05
5.81992e-05
5.84164e-05
5.12901e-05
4.46539e-05
3.8636e-05
3.30195e-05
2.77194e-05
2.29863e-05
1.74712e-05
1.07253e-05
5.80695e-06
4.05711e-06
5.76742e-06
7.96975e-06
1.01457e-05
1.21888e-05
1.38217e-05
1.57755e-05
1.75709e-05
1.89869e-05
2.01947e-05
2.1313e-05
2.23467e-05
2.33013e-05
2.41807e-05
2.4989e-05
2.57293e-05
2.6404e-05
2.70086e-05
2.63951e-05
2.53111e-05
2.4655e-05
2.39827e-05
2.32963e-05
2.24245e-05
2.14448e-05
2.04378e-05
1.9402e-05
1.83444e-05
1.72652e-05
1.61687e-05
1.5057e-05
1.39326e-05
1.23575e-05
1.07541e-05
8.93247e-06
7.38843e-06
5.90637e-06
4.55812e-06
3.54621e-06
3.24805e-06
3.75304e-06
4.78172e-06
6.08296e-06
7.52298e-06
9.04242e-06
1.0948e-05
1.32024e-05
1.47324e-05
1.62905e-05
1.78694e-05
1.94625e-05
2.10664e-05
2.26762e-05
2.42911e-05
2.5906e-05
2.75203e-05
2.91303e-05
3.07336e-05
3.23382e-05
3.3936e-05
3.55232e-05
3.71013e-05
3.86683e-05
4.02229e-05
4.16439e-05
4.28647e-05
4.40102e-05
4.5151e-05
4.63479e-05
4.76946e-05
4.91681e-05
4.92878e-05
4.88223e-05
3.70312e-05
5.35989e-05
6.04613e-05
6.27102e-05
6.24189e-05
6.17955e-05
6.10232e-05
6.04963e-05
5.99837e-05
5.92834e-05
5.8613e-05
5.83507e-05
5.8134e-05
5.84905e-05
5.88082e-05
5.90106e-05
5.9292e-05
5.96584e-05
5.97133e-05
5.95397e-05
5.93593e-05
5.91801e-05
5.89968e-05
5.88094e-05
5.86156e-05
5.63125e-05
5.20539e-05
4.78938e-05
4.39274e-05
4.02909e-05
3.71517e-05
3.43482e-05
3.22972e-05
3.06102e-05
2.89636e-05
2.73644e-05
2.55679e-05
2.39416e-05
2.24752e-05
2.11578e-05
1.99794e-05
1.89315e-05
1.80056e-05
1.71974e-05
1.62208e-05
1.72243e-05
1.79373e-05
1.8669e-05
1.94547e-05
2.02908e-05
2.11721e-05
2.20985e-05
2.30631e-05
2.40895e-05
2.5493e-05
2.69486e-05
2.84505e-05
2.99967e-05
3.16342e-05
3.33205e-05
3.50038e-05
3.66187e-05
3.81028e-05
3.94723e-05
4.08303e-05
4.22082e-05
4.36048e-05
4.50175e-05
4.64452e-05
4.78864e-05
4.93388e-05
5.08018e-05
5.22334e-05
5.20166e-05
5.18017e-05
5.1588e-05
5.13768e-05
5.11651e-05
5.09584e-05
5.07469e-05
5.05366e-05
5.03347e-05
5.01294e-05
4.99299e-05
4.9722e-05
4.95088e-05
4.93063e-05
4.91046e-05
4.89011e-05
4.84531e-05
4.79204e-05
4.73565e-05
4.68198e-05
4.6321e-05
4.61347e-05
4.59506e-05
4.57708e-05
4.55894e-05
4.54121e-05
4.52499e-05
1.47759e-05
5.31753e-05
5.1483e-05
5.34177e-05
5.91449e-05
6.03381e-05
5.96532e-05
5.89302e-05
5.86929e-05
5.8474e-05
5.83887e-05
5.88692e-05
5.91367e-05
5.94063e-05
5.98606e-05
6.00789e-05
5.99386e-05
5.97932e-05
5.96467e-05
5.94952e-05
5.93342e-05
5.9171e-05
5.90022e-05
5.88303e-05
5.86519e-05
5.84673e-05
5.82764e-05
5.80827e-05
5.78881e-05
5.69824e-05
5.60794e-05
5.51953e-05
5.4401e-05
5.4259e-05
5.41867e-05
5.41879e-05
5.42026e-05
5.42006e-05
5.42714e-05
5.40355e-05
5.37975e-05
5.35598e-05
5.33174e-05
5.30756e-05
5.32177e-05
5.4255e-05
5.42042e-05
5.41744e-05
5.41715e-05
5.41963e-05
5.42453e-05
5.43178e-05
5.44152e-05
5.45527e-05
5.47166e-05
5.48783e-05
5.50577e-05
5.52552e-05
5.54687e-05
5.52429e-05
5.50498e-05
5.48303e-05
5.45992e-05
5.4369e-05
5.414e-05
5.39116e-05
5.36843e-05
5.34581e-05
5.32328e-05
5.30089e-05
5.27863e-05
5.25646e-05
5.23441e-05
5.21249e-05
5.19071e-05
5.16908e-05
5.14755e-05
5.12622e-05
5.10491e-05
5.07767e-05
5.06268e-05
5.04178e-05
5.02084e-05
5.00019e-05
4.98361e-05
4.95228e-05
4.93192e-05
4.88026e-05
4.82431e-05
4.76789e-05
4.71619e-05
4.67814e-05
4.65922e-05
4.64039e-05
4.62177e-05
4.60317e-05
4.58499e-05
4.56669e-05
4.54881e-05
4.53211e-05
2.77571e-05
4.99209e-05
5.84771e-05
5.25931e-05
5.03043e-05
4.98345e-05
5.47025e-05
5.82786e-05
5.84235e-05
5.89451e-05
5.92557e-05
5.96196e-05
6.01813e-05
6.01418e-05
6.00424e-05
5.99354e-05
5.98206e-05
5.96983e-05
5.95705e-05
5.94384e-05
5.92966e-05
5.91503e-05
5.89958e-05
5.88365e-05
5.86723e-05
5.85029e-05
5.83257e-05
5.8141e-05
5.79527e-05
5.7762e-05
5.75681e-05
5.73691e-05
5.67984e-05
5.61145e-05
5.54921e-05
5.50479e-05
5.50225e-05
5.5023e-05
5.50846e-05
5.51809e-05
5.52712e-05
5.53871e-05
5.53749e-05
5.51546e-05
5.62512e-05
5.65274e-05
5.64702e-05
5.64403e-05
5.64375e-05
5.64611e-05
5.65102e-05
5.65814e-05
5.66764e-05
5.67689e-05
5.6534e-05
5.62993e-05
5.60639e-05
5.58287e-05
5.55942e-05
5.53634e-05
5.51746e-05
5.49445e-05
5.47126e-05
5.44811e-05
5.42505e-05
5.4021e-05
5.37919e-05
5.35641e-05
5.33373e-05
5.31116e-05
5.2887e-05
5.26633e-05
5.24408e-05
5.22193e-05
5.19987e-05
5.17796e-05
5.15606e-05
5.13444e-05
5.11257e-05
5.09145e-05
5.07035e-05
5.04861e-05
5.02735e-05
5.00569e-05
4.96765e-05
4.9155e-05
4.85816e-05
4.80234e-05
4.7514e-05
4.72541e-05
4.70601e-05
4.66888e-05
4.61596e-05
4.56372e-05
4.51232e-05
4.4615e-05
4.41196e-05
4.36248e-05
4.31519e-05
4.28597e-05
3.86865e-05
4.63606e-05
5.62169e-05
5.67092e-05
5.47852e-05
5.08882e-05
4.89213e-05
5.1123e-05
5.08817e-05
5.49002e-05
5.99413e-05
6.00682e-05
6.00028e-05
5.9932e-05
5.98606e-05
5.97844e-05
5.96944e-05
5.95945e-05
5.94867e-05
5.93731e-05
5.92487e-05
5.91192e-05
5.89809e-05
5.88344e-05
5.86809e-05
5.85222e-05
5.83572e-05
5.81845e-05
5.8006e-05
5.78233e-05
5.76364e-05
5.74448e-05
5.72478e-05
5.70464e-05
5.68409e-05
5.66324e-05
5.64198e-05
5.62045e-05
5.59414e-05
5.60133e-05
5.61099e-05
5.62417e-05
5.641e-05
5.68585e-05
5.8674e-05
5.86546e-05
5.85016e-05
5.82732e-05
5.80435e-05
5.78111e-05
5.75794e-05
5.73454e-05
5.71109e-05
5.68761e-05
5.6641e-05
5.64053e-05
5.61714e-05
5.59355e-05
5.56996e-05
5.54817e-05
5.52781e-05
5.50448e-05
5.48117e-05
5.45793e-05
5.43471e-05
5.37349e-05
5.3072e-05
5.24158e-05
5.17661e-05
5.11231e-05
5.04865e-05
4.98565e-05
4.92328e-05
4.86156e-05
4.80046e-05
4.74e-05
4.68014e-05
4.62091e-05
4.56229e-05
4.50416e-05
4.438e-05
4.31173e-05
4.15535e-05
3.99344e-05
3.83006e-05
3.67265e-05
3.52549e-05
3.40502e-05
3.28607e-05
3.16855e-05
3.04943e-05
2.8891e-05
2.72225e-05
2.56162e-05
2.45831e-05
2.429e-05
2.38677e-05
2.33293e-05
2.2825e-05
2.27346e-05
4.75037e-05
3.87052e-05
4.25139e-05
4.24335e-05
4.33008e-05
4.7861e-05
4.78511e-05
4.94163e-05
5.08926e-05
5.01969e-05
5.26418e-05
5.38955e-05
5.19094e-05
5.40521e-05
5.7304e-05
5.94403e-05
5.95584e-05
5.94812e-05
5.93937e-05
5.92991e-05
5.91923e-05
5.90782e-05
5.89552e-05
5.88229e-05
5.86813e-05
5.85326e-05
5.83778e-05
5.82157e-05
5.80467e-05
5.78725e-05
5.76934e-05
5.75094e-05
5.73191e-05
5.71233e-05
5.69221e-05
5.67181e-05
5.65098e-05
5.62997e-05
5.6085e-05
5.57438e-05
5.50689e-05
5.43933e-05
5.38477e-05
5.55312e-05
5.60682e-05
5.55043e-05
5.42512e-05
5.2971e-05
5.16876e-05
5.03972e-05
4.91028e-05
4.77909e-05
4.6456e-05
4.51206e-05
4.37863e-05
4.24557e-05
4.11245e-05
3.97973e-05
3.84811e-05
3.72044e-05
3.59124e-05
3.46145e-05
3.33246e-05
3.20447e-05
3.06959e-05
2.93456e-05
2.80764e-05
2.68295e-05
2.55945e-05
2.43728e-05
2.31645e-05
2.19702e-05
2.07911e-05
1.96281e-05
1.84829e-05
1.7003e-05
1.53958e-05
1.39028e-05
1.24584e-05
1.10146e-05
1.00193e-05
8.97448e-06
8.17691e-06
7.3742e-06
6.74114e-06
5.56201e-06
4.60511e-06
4.01534e-06
3.94167e-06
4.34956e-06
4.82347e-06
5.42622e-06
6.18409e-06
7.12934e-06
8.3675e-06
9.3022e-06
9.58156e-06
1.0298e-05
1.12565e-05
1.20948e-05
5.01664e-05
3.65345e-05
2.85071e-05
2.69019e-05
2.52166e-05
2.22198e-05
2.03077e-05
2.08593e-05
2.4095e-05
2.41377e-05
2.36714e-05
2.69319e-05
2.60222e-05
2.36772e-05
2.4594e-05
2.71231e-05
2.90571e-05
2.98686e-05
3.04774e-05
3.02034e-05
3.14633e-05
3.25541e-05
3.31226e-05
3.3539e-05
3.38071e-05
3.37229e-05
3.30106e-05
3.22468e-05
3.14344e-05
3.05784e-05
2.96828e-05
2.87515e-05
2.77858e-05
2.67888e-05
2.57613e-05
2.47093e-05
2.36327e-05
2.25373e-05
2.14486e-05
2.04159e-05
1.93504e-05
1.81941e-05
1.81976e-05
1.88837e-05
1.7749e-05
1.6529e-05
1.53438e-05
1.42586e-05
1.31722e-05
1.20864e-05
1.10042e-05
9.92755e-06
8.86592e-06
7.82822e-06
6.82547e-06
5.74197e-06
5.98783e-06
3.76817e-06
3.58658e-06
4.13561e-06
5.17614e-06
6.37751e-06
7.70385e-06
8.22891e-06
9.36273e-06
1.01638e-05
1.09733e-05
1.1844e-05
1.27237e-05
1.36101e-05
1.45024e-05
1.53994e-05
1.61957e-05
1.69744e-05
1.76828e-05
1.83876e-05
1.91576e-05
2.018e-05
2.14335e-05
2.28055e-05
2.38516e-05
2.40191e-05
2.38269e-05
2.36156e-05
2.34287e-05
2.37187e-05
2.40987e-05
2.44784e-05
2.4865e-05
2.52503e-05
2.56415e-05
2.56428e-05
2.55202e-05
2.53983e-05
2.54221e-05
2.61454e-05
2.66631e-05
2.7063e-05
2.74995e-05
2.81676e-05
3.46581e-05
3.90387e-05
3.64532e-05
3.33848e-05
3.03464e-05
2.95139e-05
3.02319e-05
3.092e-05
3.10498e-05
3.03474e-05
3.01648e-05
2.87921e-05
2.61763e-05
2.73021e-05
2.8682e-05
2.91576e-05
2.81212e-05
2.70737e-05
2.65514e-05
2.53604e-05
2.40286e-05
2.37179e-05
2.35151e-05
2.32643e-05
2.32001e-05
2.33771e-05
2.34752e-05
2.34232e-05
2.34674e-05
2.36033e-05
2.38259e-05
2.41296e-05
2.45101e-05
2.49618e-05
2.54823e-05
2.60667e-05
2.67112e-05
2.74117e-05
2.8162e-05
2.884e-05
2.92356e-05
2.90304e-05
2.71274e-05
2.75939e-05
2.82641e-05
2.8964e-05
2.90117e-05
2.90599e-05
2.91236e-05
2.92046e-05
2.92647e-05
2.9274e-05
2.92737e-05
2.92835e-05
2.92964e-05
2.93145e-05
2.93428e-05
2.93836e-05
2.94373e-05
2.95247e-05
2.95664e-05
2.95103e-05
2.95191e-05
2.95105e-05
2.94137e-05
2.91391e-05
2.87743e-05
2.84195e-05
2.80743e-05
2.77344e-05
2.74005e-05
2.73817e-05
2.7615e-05
2.78427e-05
2.80721e-05
2.82574e-05
2.79312e-05
2.76668e-05
2.74249e-05
2.72103e-05
2.79281e-05
2.86218e-05
2.92271e-05
2.96362e-05
2.99809e-05
2.94356e-05
2.89132e-05
2.83951e-05
2.78989e-05
2.7522e-05
2.71491e-05
2.678e-05
2.64167e-05
2.61489e-05
2.61847e-05
2.61731e-05
2.61619e-05
2.58144e-05
2.52815e-05
2.4642e-05
5.44554e-05
7.39774e-05
4.22708e-05
3.45651e-05
3.45298e-05
3.48466e-05
3.4456e-05
3.41093e-05
3.39547e-05
3.48678e-05
3.62485e-05
3.72151e-05
3.79412e-05
3.80606e-05
3.81676e-05
3.88398e-05
3.94996e-05
4.00893e-05
4.06135e-05
4.02639e-05
4.15971e-05
4.28002e-05
4.35175e-05
4.41361e-05
4.46463e-05
4.48425e-05
4.44718e-05
4.40388e-05
4.35312e-05
4.30512e-05
4.25969e-05
4.21664e-05
4.17584e-05
4.13722e-05
4.10062e-05
4.06619e-05
4.03349e-05
4.00284e-05
3.97367e-05
3.94631e-05
3.91433e-05
3.86412e-05
3.76757e-05
3.73995e-05
3.71278e-05
3.68612e-05
3.65979e-05
3.63403e-05
3.60859e-05
3.58353e-05
3.55902e-05
3.52842e-05
3.48152e-05
3.43482e-05
3.38815e-05
3.32511e-05
3.24673e-05
3.17531e-05
3.10212e-05
3.03315e-05
2.96733e-05
2.91251e-05
2.85691e-05
2.89725e-05
2.87331e-05
2.85074e-05
2.82053e-05
2.78366e-05
2.74655e-05
2.70425e-05
2.65604e-05
2.60525e-05
2.5671e-05
2.57296e-05
2.58146e-05
2.5917e-05
2.60393e-05
2.58969e-05
2.55086e-05
2.51244e-05
2.50439e-05
2.50181e-05
2.49945e-05
2.49507e-05
2.47486e-05
2.41499e-05
2.35557e-05
2.29659e-05
2.23806e-05
2.17997e-05
2.12232e-05
2.06511e-05
2.00838e-05
1.95565e-05
1.94455e-05
1.93341e-05
1.92225e-05
1.911e-05
1.89961e-05
1.88796e-05
8.4063e-05
0.000103345
7.44514e-05
4.71934e-05
3.6441e-05
3.45725e-05
3.37926e-05
3.30485e-05
3.23806e-05
3.20512e-05
3.14395e-05
3.05062e-05
2.98667e-05
2.93074e-05
2.93252e-05
2.94572e-05
2.95739e-05
2.96699e-05
2.97446e-05
2.97965e-05
2.98262e-05
2.9834e-05
2.98206e-05
2.97856e-05
2.97877e-05
2.98226e-05
2.98438e-05
2.97909e-05
2.97248e-05
2.96434e-05
2.95154e-05
2.93436e-05
2.9169e-05
2.89979e-05
2.88005e-05
2.85818e-05
2.83395e-05
2.80787e-05
2.77976e-05
2.74991e-05
2.71842e-05
2.68036e-05
2.66751e-05
2.63135e-05
2.59386e-05
2.5552e-05
2.51523e-05
2.47417e-05
2.43228e-05
2.38924e-05
2.34923e-05
2.31458e-05
2.27954e-05
2.24329e-05
2.20676e-05
2.16867e-05
2.12944e-05
2.091e-05
2.05323e-05
2.01544e-05
1.98611e-05
1.967e-05
1.94754e-05
1.92777e-05
1.90814e-05
1.91199e-05
1.92473e-05
1.9373e-05
1.95048e-05
1.9639e-05
1.97641e-05
1.99571e-05
1.98383e-05
1.97148e-05
1.96348e-05
1.92323e-05
1.91435e-05
1.90545e-05
1.89653e-05
1.88761e-05
1.87823e-05
1.86806e-05
1.85822e-05
1.84855e-05
1.83859e-05
1.82849e-05
1.8184e-05
1.80831e-05
1.79822e-05
1.78812e-05
1.778e-05
1.76784e-05
1.75765e-05
1.74744e-05
1.7372e-05
1.72693e-05
1.71667e-05
1.70639e-05
1.69585e-05
1.6839e-05
8.324e-05
9.42723e-05
0.000101803
8.34015e-05
5.53496e-05
3.60315e-05
3.1739e-05
3.09682e-05
3.0239e-05
2.94893e-05
2.83665e-05
2.76342e-05
2.70036e-05
2.64047e-05
2.58339e-05
2.52877e-05
2.47684e-05
2.42716e-05
2.37972e-05
2.33436e-05
2.29106e-05
2.24967e-05
2.21014e-05
2.17561e-05
2.14218e-05
2.10606e-05
2.07095e-05
2.04417e-05
2.02554e-05
2.00601e-05
1.98553e-05
1.96605e-05
1.94738e-05
1.92674e-05
1.90373e-05
1.87998e-05
1.85528e-05
1.82983e-05
1.80365e-05
1.77674e-05
1.74929e-05
1.668e-05
1.66883e-05
1.65668e-05
1.64594e-05
1.63548e-05
1.6254e-05
1.61538e-05
1.6058e-05
1.59645e-05
1.5872e-05
1.58461e-05
1.59859e-05
1.61289e-05
1.62773e-05
1.64294e-05
1.64606e-05
1.63854e-05
1.63115e-05
1.62385e-05
1.61672e-05
1.60973e-05
1.60284e-05
1.59612e-05
1.58956e-05
1.58312e-05
1.57678e-05
1.57058e-05
1.56634e-05
1.60279e-05
1.63403e-05
1.66632e-05
1.70421e-05
1.70197e-05
1.6943e-05
1.68658e-05
1.67882e-05
1.67101e-05
1.66317e-05
1.65534e-05
1.64761e-05
1.63979e-05
1.63182e-05
1.62601e-05
1.62106e-05
1.61614e-05
1.61124e-05
1.60638e-05
1.60154e-05
1.59671e-05
1.59191e-05
1.58626e-05
1.58056e-05
1.57491e-05
1.56929e-05
1.56373e-05
1.55815e-05
1.55271e-05
1.54717e-05
1.86387e-05
8.46699e-05
8.73477e-05
9.3381e-05
0.000100078
9.53896e-05
7.03225e-05
4.98078e-05
3.29323e-05
3.03088e-05
2.96073e-05
2.89405e-05
2.83074e-05
2.77029e-05
2.71294e-05
2.65815e-05
2.60588e-05
2.55625e-05
2.50884e-05
2.46359e-05
2.42036e-05
2.3791e-05
2.33965e-05
2.30195e-05
2.26591e-05
2.22605e-05
2.18852e-05
2.15416e-05
2.12286e-05
2.0944e-05
2.06881e-05
2.04573e-05
2.02533e-05
2.00346e-05
1.98006e-05
1.95744e-05
1.93573e-05
1.91487e-05
1.89472e-05
1.87543e-05
1.85679e-05
1.83897e-05
1.77549e-05
1.77069e-05
1.75832e-05
1.74847e-05
1.73867e-05
1.72925e-05
1.72e-05
1.71084e-05
1.70204e-05
1.69334e-05
1.68473e-05
1.67644e-05
1.66825e-05
1.66014e-05
1.6523e-05
1.6446e-05
1.63699e-05
1.62958e-05
1.62232e-05
1.61518e-05
1.6082e-05
1.60135e-05
1.5946e-05
1.588e-05
1.58156e-05
1.57705e-05
1.60915e-05
1.63511e-05
1.66198e-05
1.69223e-05
1.68531e-05
1.67824e-05
1.67128e-05
1.6644e-05
1.65763e-05
1.65095e-05
1.64436e-05
1.63786e-05
1.63143e-05
1.62551e-05
1.62044e-05
1.6154e-05
1.61041e-05
1.60546e-05
1.60055e-05
1.59567e-05
1.59082e-05
1.58599e-05
1.58119e-05
1.65938e-05
2.02927e-05
2.4685e-05
2.9123e-05
3.35497e-05
3.76258e-05
4.11613e-05
4.46929e-05
4.81934e-05
5.55823e-05
8.34796e-05
8.67948e-05
8.82077e-05
9.18495e-05
9.78047e-05
0.000103346
9.01429e-05
6.76941e-05
5.1411e-05
3.57717e-05
2.8993e-05
2.83553e-05
2.77442e-05
2.71652e-05
2.66138e-05
2.60877e-05
2.55864e-05
2.51073e-05
2.465e-05
2.42132e-05
2.37966e-05
2.33985e-05
2.3018e-05
2.26544e-05
2.23069e-05
2.19745e-05
2.16559e-05
2.13514e-05
2.10588e-05
2.07795e-05
2.05097e-05
2.02524e-05
2.00049e-05
1.97678e-05
1.954e-05
1.93201e-05
1.91097e-05
1.89064e-05
1.87116e-05
1.85232e-05
1.83435e-05
1.77559e-05
1.77097e-05
1.75692e-05
1.74704e-05
1.7373e-05
1.72767e-05
1.71843e-05
1.70931e-05
1.70035e-05
1.6917e-05
1.68312e-05
1.67467e-05
1.66651e-05
1.65845e-05
1.65052e-05
1.64281e-05
1.63525e-05
1.62779e-05
1.6205e-05
1.61338e-05
1.60638e-05
1.59953e-05
1.59279e-05
1.58619e-05
1.61879e-05
1.64614e-05
1.67432e-05
1.70357e-05
1.69615e-05
1.68885e-05
1.68165e-05
1.67456e-05
1.66757e-05
1.66069e-05
1.6539e-05
1.6472e-05
1.64059e-05
1.63406e-05
1.62762e-05
1.62124e-05
1.61495e-05
1.93483e-05
2.30132e-05
2.74126e-05
3.1819e-05
3.62213e-05
3.98958e-05
4.34205e-05
4.68914e-05
5.06101e-05
5.48651e-05
5.85156e-05
6.19493e-05
6.52673e-05
6.8465e-05
7.17517e-05
7.61383e-05
8.06363e-05
8.14245e-05
7.57104e-05
8.5033e-05
8.77338e-05
8.90535e-05
9.02601e-05
9.50614e-05
9.99654e-05
0.000104498
9.09219e-05
7.36639e-05
5.84945e-05
4.57848e-05
3.30079e-05
2.71984e-05
2.66418e-05
2.61099e-05
2.56036e-05
2.5121e-05
2.46603e-05
2.42201e-05
2.37998e-05
2.33984e-05
2.30146e-05
2.26476e-05
2.22966e-05
2.19612e-05
2.16395e-05
2.13324e-05
2.1037e-05
2.07547e-05
2.04829e-05
2.02225e-05
1.99734e-05
1.97331e-05
1.95033e-05
1.92813e-05
1.90687e-05
1.88633e-05
1.86669e-05
1.8477e-05
1.82943e-05
1.77656e-05
1.77151e-05
1.7554e-05
1.7453e-05
1.73562e-05
1.726e-05
1.71657e-05
1.70751e-05
1.69853e-05
1.68973e-05
1.68121e-05
1.67279e-05
1.66452e-05
1.65648e-05
1.64856e-05
1.64076e-05
1.63319e-05
1.62579e-05
1.61848e-05
1.61133e-05
1.60433e-05
1.59747e-05
1.62659e-05
1.65542e-05
1.68483e-05
1.71499e-05
1.70731e-05
1.69975e-05
1.69231e-05
1.68498e-05
1.67776e-05
1.71703e-05
2.06715e-05
2.41976e-05
2.81101e-05
3.2378e-05
3.66553e-05
4.03668e-05
4.38095e-05
4.72529e-05
5.07409e-05
5.47353e-05
5.84158e-05
6.1996e-05
6.5382e-05
6.85934e-05
7.17989e-05
7.51502e-05
7.92577e-05
8.2932e-05
8.36307e-05
8.36344e-05
8.35899e-05
8.35467e-05
8.38405e-05
8.48358e-05
8.58865e-05
8.67206e-05
8.78082e-05
7.11937e-05
8.00575e-05
8.49316e-05
8.86496e-05
8.98897e-05
9.1016e-05
9.21186e-05
9.63234e-05
0.000100265
0.000103942
9.82737e-05
8.57233e-05
7.30912e-05
6.14504e-05
5.13911e-05
4.10965e-05
3.19068e-05
2.51328e-05
2.4668e-05
2.4224e-05
2.37998e-05
2.33944e-05
2.30068e-05
2.26363e-05
2.22823e-05
2.1944e-05
2.16195e-05
2.13092e-05
2.10116e-05
2.07261e-05
2.04529e-05
2.01896e-05
1.99388e-05
1.96965e-05
1.94643e-05
1.92403e-05
1.90258e-05
1.88187e-05
1.86196e-05
1.84298e-05
1.82438e-05
1.77809e-05
1.77238e-05
1.75362e-05
1.74346e-05
1.73357e-05
1.72405e-05
1.7146e-05
1.70538e-05
1.69646e-05
1.68763e-05
1.67899e-05
1.6706e-05
1.66234e-05
1.65422e-05
1.64632e-05
1.63855e-05
1.63091e-05
1.62346e-05
1.61618e-05
1.60902e-05
1.63168e-05
1.83545e-05
2.18941e-05
2.54961e-05
2.87279e-05
3.2575e-05
3.6526e-05
4.02967e-05
4.35077e-05
4.67373e-05
4.99702e-05
5.33888e-05
5.71344e-05
6.04683e-05
6.38859e-05
6.7232e-05
7.03876e-05
7.3515e-05
7.67599e-05
8.00516e-05
8.40789e-05
8.52186e-05
8.58995e-05
8.58488e-05
8.57933e-05
8.5738e-05
8.6401e-05
8.73246e-05
8.83438e-05
8.92286e-05
9.00208e-05
8.98743e-05
8.82916e-05
8.67268e-05
8.51753e-05
8.36483e-05
8.11308e-05
7.85113e-05
7.63495e-05
7.34822e-05
7.57855e-05
8.35202e-05
8.83019e-05
8.9538e-05
9.06894e-05
9.17329e-05
9.26764e-05
9.35198e-05
9.59005e-05
9.90842e-05
0.000102008
0.000104702
0.000100796
9.11256e-05
8.21919e-05
7.39271e-05
6.61041e-05
5.91883e-05
5.18676e-05
4.52227e-05
3.92219e-05
3.38368e-05
2.9144e-05
2.55967e-05
2.24834e-05
2.15972e-05
2.12834e-05
2.09836e-05
2.06947e-05
2.04196e-05
2.01544e-05
1.99012e-05
1.96573e-05
1.94232e-05
1.91971e-05
1.89801e-05
1.8773e-05
1.85707e-05
1.8379e-05
1.81938e-05
1.78052e-05
1.77392e-05
1.75144e-05
1.74141e-05
1.73141e-05
1.72173e-05
1.72356e-05
1.90776e-05
2.10283e-05
2.30817e-05
2.52286e-05
2.74642e-05
2.97835e-05
3.2499e-05
3.54472e-05
3.84774e-05
4.13055e-05
4.38001e-05
4.66506e-05
4.98819e-05
5.31605e-05
5.67382e-05
5.99106e-05
6.28403e-05
6.58993e-05
6.90048e-05
7.19921e-05
7.48955e-05
7.78668e-05
8.09429e-05
8.40353e-05
8.67034e-05
8.73459e-05
8.79901e-05
8.82651e-05
8.81987e-05
8.81322e-05
8.79479e-05
8.62353e-05
8.46566e-05
8.32003e-05
8.16415e-05
8.00111e-05
7.83975e-05
7.68006e-05
7.52201e-05
7.36559e-05
7.21087e-05
6.98464e-05
6.71858e-05
6.40213e-05
6.01441e-05
5.65827e-05
5.33044e-05
5.00517e-05
4.58329e-05
4.14073e-05
3.69098e-05
3.17351e-05
7.33675e-05
7.48232e-05
8.0266e-05
8.59148e-05
9.26111e-05
9.40698e-05
9.39058e-05
9.24016e-05
9.32637e-05
9.40345e-05
9.47199e-05
9.53277e-05
9.66107e-05
9.89705e-05
0.00010111
0.000103045
0.000104776
0.000104878
9.80989e-05
9.18827e-05
8.61982e-05
8.10164e-05
7.63131e-05
7.20897e-05
6.83031e-05
6.50639e-05
6.23607e-05
5.9724e-05
5.72744e-05
5.49638e-05
5.30147e-05
5.14045e-05
5.01155e-05
4.91302e-05
4.84314e-05
4.80057e-05
4.78356e-05
4.79114e-05
4.82197e-05
4.87352e-05
4.9233e-05
4.98532e-05
5.10243e-05
5.19336e-05
5.30326e-05
5.42597e-05
5.56057e-05
5.71014e-05
5.87873e-05
6.04674e-05
6.22427e-05
6.41076e-05
6.60566e-05
6.81145e-05
7.02675e-05
7.24598e-05
7.46697e-05
7.70179e-05
8.0031e-05
8.31523e-05
8.62788e-05
8.90952e-05
9.00601e-05
8.9686e-05
8.86113e-05
8.66744e-05
8.41648e-05
8.15972e-05
7.92514e-05
7.75021e-05
7.57691e-05
7.40573e-05
7.25596e-05
7.11218e-05
6.94754e-05
6.78462e-05
6.62337e-05
6.4461e-05
6.23333e-05
6.04617e-05
5.88744e-05
5.65658e-05
5.3847e-05
5.10974e-05
4.77574e-05
4.44427e-05
4.11547e-05
3.78956e-05
3.46677e-05
3.04319e-05
2.59935e-05
2.14698e-05
1.79834e-05
1.60692e-05
1.41876e-05
1.19654e-05
9.8787e-06
8.02863e-06
6.26848e-06
5.12348e-06
7.32569e-05
7.48211e-05
7.59239e-05
8.03427e-05
8.74324e-05
9.41262e-05
9.83073e-05
9.95593e-05
0.000100212
9.82055e-05
9.63491e-05
9.51077e-05
9.56494e-05
9.61235e-05
9.65312e-05
9.68793e-05
9.71712e-05
9.80789e-05
9.94334e-05
0.000100632
0.000101685
0.000102598
0.000103383
0.000103933
0.000103718
0.000103475
0.000101094
9.84064e-05
9.60368e-05
9.39813e-05
9.22328e-05
9.07635e-05
8.95569e-05
8.85999e-05
8.78748e-05
8.73752e-05
8.70845e-05
8.69888e-05
8.70862e-05
8.73336e-05
8.77471e-05
8.83289e-05
8.79221e-05
8.75269e-05
8.73711e-05
8.73323e-05
8.74042e-05
8.74661e-05
8.57782e-05
8.40821e-05
8.23787e-05
8.067e-05
7.89575e-05
7.73707e-05
7.55655e-05
7.36017e-05
7.18063e-05
7.03725e-05
6.93276e-05
6.79114e-05
6.61559e-05
6.44167e-05
6.27145e-05
6.09122e-05
5.89896e-05
5.71996e-05
5.55211e-05
5.3858e-05
5.22107e-05
5.05791e-05
4.8963e-05
4.73626e-05
4.5745e-05
4.30406e-05
4.03549e-05
3.75673e-05
3.42812e-05
3.10222e-05
2.84715e-05
2.77135e-05
2.69578e-05
2.60418e-05
2.40818e-05
2.19383e-05
1.98261e-05
1.78932e-05
1.59828e-05
1.4102e-05
1.18856e-05
9.81536e-06
7.96863e-06
6.43414e-06
5.34599e-06
4.36308e-06
3.56709e-06
3.0975e-06
3.05454e-06
3.04851e-06
3.04181e-06
3.03527e-06
7.31478e-05
7.48416e-05
7.59298e-05
7.69244e-05
7.86156e-05
8.46323e-05
9.1652e-05
9.96596e-05
0.000103607
0.000104771
0.000105785
0.000106223
0.000104792
0.000103456
0.000102228
0.000101105
0.000100083
9.91544e-05
9.83159e-05
9.7563e-05
9.76661e-05
9.77329e-05
9.77645e-05
9.77585e-05
9.77247e-05
9.76582e-05
9.75672e-05
9.74505e-05
9.73205e-05
9.48131e-05
9.22681e-05
8.96911e-05
8.7083e-05
8.44501e-05
8.17926e-05
7.91136e-05
7.64185e-05
7.37062e-05
7.10085e-05
6.84478e-05
6.61159e-05
6.3639e-05
6.0425e-05
5.91694e-05
5.79912e-05
5.68069e-05
5.5619e-05
5.44267e-05
5.32304e-05
5.20319e-05
5.08321e-05
4.96308e-05
4.84365e-05
4.72517e-05
4.61524e-05
4.51756e-05
4.4201e-05
4.30913e-05
4.14279e-05
3.97808e-05
3.81499e-05
3.65354e-05
3.49372e-05
3.32279e-05
3.22301e-05
3.21031e-05
3.1972e-05
3.12449e-05
3.05155e-05
2.97844e-05
2.9052e-05
2.83189e-05
2.75854e-05
2.68521e-05
2.51618e-05
2.309e-05
2.10555e-05
1.91475e-05
1.72536e-05
1.53789e-05
1.34713e-05
1.12818e-05
9.31894e-06
7.55649e-06
6.41497e-06
5.33594e-06
4.36288e-06
3.5791e-06
3.12477e-06
3.0906e-06
3.08446e-06
3.07831e-06
3.07216e-06
3.05116e-06
3.04242e-06
3.08832e-06
3.18521e-06
3.32824e-06
3.5084e-06
3.73143e-06
7.30447e-05
7.48869e-05
7.59552e-05
7.69363e-05
7.78086e-05
7.85985e-05
8.13908e-05
8.63376e-05
9.12647e-05
9.8593e-05
0.00010543
0.000109665
0.000110541
0.000109313
0.000107122
0.000104893
0.000101682
9.83867e-05
9.51588e-05
9.20293e-05
8.89736e-05
8.59319e-05
8.29494e-05
8.00208e-05
7.71469e-05
7.43256e-05
7.15538e-05
6.88291e-05
6.59264e-05
6.31486e-05
6.05364e-05
5.79689e-05
5.54414e-05
5.29534e-05
5.05084e-05
4.80991e-05
4.57284e-05
4.33975e-05
4.11122e-05
3.88665e-05
3.66461e-05
3.39301e-05
3.18714e-05
3.19345e-05
3.20235e-05
3.21156e-05
3.22109e-05
3.23093e-05
3.24108e-05
3.2515e-05
3.26219e-05
3.27313e-05
3.28429e-05
3.30494e-05
3.31666e-05
3.32677e-05
3.30735e-05
3.24313e-05
3.17804e-05
3.11221e-05
3.04571e-05
2.97859e-05
2.91091e-05
2.84274e-05
2.77418e-05
2.69968e-05
2.50623e-05
2.31264e-05
2.12967e-05
1.94688e-05
1.7646e-05
1.5833e-05
1.40367e-05
1.19799e-05
9.99806e-06
8.32185e-06
7.179e-06
6.07825e-06
5.04719e-06
4.13712e-06
3.44396e-06
3.13116e-06
3.12525e-06
3.11928e-06
3.11328e-06
3.08255e-06
3.09805e-06
3.16876e-06
3.29004e-06
3.45554e-06
3.65835e-06
3.8917e-06
4.16118e-06
4.5277e-06
4.91084e-06
5.20652e-06
5.51224e-06
5.82629e-06
6.14319e-06
6.50856e-06
7.29468e-05
7.49604e-05
7.26241e-05
6.9687e-05
6.67983e-05
6.39002e-05
6.1027e-05
5.81576e-05
5.65131e-05
5.72533e-05
5.74915e-05
5.78633e-05
5.99159e-05
6.17173e-05
6.32364e-05
6.34142e-05
6.23836e-05
6.11905e-05
5.98461e-05
5.83593e-05
5.59681e-05
5.35653e-05
5.1158e-05
4.87471e-05
4.63067e-05
4.35308e-05
4.08104e-05
3.81474e-05
3.55826e-05
3.56022e-05
3.56287e-05
3.56632e-05
3.57076e-05
3.57563e-05
3.58135e-05
3.58799e-05
3.59484e-05
3.60222e-05
3.60772e-05
3.59993e-05
3.57411e-05
3.44182e-05
3.36615e-05
3.32668e-05
3.28486e-05
3.24088e-05
3.19485e-05
3.14691e-05
3.09718e-05
3.0458e-05
2.99286e-05