/*--------------------------------*- C++ -*----------------------------------*\
| =========                 |                                                 |
| \\      /  F ield         | foam-extend: Open Source CFD                    |
|  \\    /   O peration     | Version:     4.1                                |
|   \\  /    A nd           | Web:         http://www.foam-extend.org         |
|    \\/     M anipulation  |                                                 |
\*---------------------------------------------------------------------------*/
FoamFile
{
    version     2.0;
    format      ascii;
    class       volScalarField;
    location    "5";
    object      sigmaEq;
}
// * * * * * * * * * * * * * * * * * * * * * * * * * * * * * * * * * * * * * //

dimensions      [1 -1 -2 0 0 0 0];

internalField   nonuniform List<scalar> 
100000
(
1.33396e+07
1.63539e+07
1.66677e+07
1.68272e+07
1.29846e+07
7.53145e+06
2.09189e+06
2.9107e+06
5.79069e+06
5.64105e+06
4.50101e+06
3.68001e+06
3.14769e+06
3.08086e+06
3.01835e+06
3.06456e+06
3.04599e+06
3.13486e+06
3.34814e+06
3.57159e+06
3.77542e+06
3.93799e+06
4.08898e+06
4.10906e+06
3.98869e+06
3.884e+06
3.80619e+06
3.77581e+06
3.76172e+06
3.74447e+06
3.7243e+06
3.70163e+06
3.67664e+06
3.64983e+06
3.62413e+06
3.59651e+06
3.5673e+06
3.53655e+06
3.5044e+06
3.47098e+06
3.43645e+06
3.40103e+06
3.36485e+06
3.32814e+06
3.29108e+06
3.22095e+06
3.21884e+06
3.17909e+06
3.13935e+06
3.07064e+06
3.0022e+06
2.93679e+06
2.88661e+06
2.8371e+06
2.78815e+06
2.73985e+06
2.69214e+06
2.64505e+06
2.59866e+06
2.55294e+06
2.50773e+06
2.46279e+06
2.4198e+06
2.37794e+06
2.33536e+06
2.32446e+06
2.31769e+06
2.31405e+06
2.31501e+06
2.27644e+06
2.16826e+06
2.06697e+06
2.03951e+06
2.01265e+06
1.97323e+06
1.93476e+06
1.91504e+06
1.89627e+06
1.87796e+06
1.86011e+06
1.84286e+06
1.82616e+06
1.80998e+06
1.79423e+06
1.77607e+06
1.72747e+06
1.68001e+06
1.63377e+06
1.58878e+06
1.54511e+06
1.50297e+06
1.46249e+06
1.42365e+06
1.38668e+06
1.35161e+06
1.31908e+06
1.28947e+06
1.25408e+06
1.22179e+06
1.38251e+06
1.2704e+07
1.53484e+07
1.54505e+07
1.56842e+07
1.59658e+07
1.62074e+07
1.38969e+07
1.06028e+07
6.02385e+06
1.67709e+06
2.0592e+06
3.9071e+06
5.78339e+06
5.39452e+06
4.55416e+06
3.86505e+06
3.2389e+06
2.84669e+06
2.54504e+06
2.42404e+06
2.37804e+06
2.41957e+06
2.38249e+06
2.27578e+06
2.21469e+06
2.2819e+06
2.3478e+06
2.41034e+06
2.46785e+06
2.51993e+06
2.54361e+06
2.55195e+06
2.47034e+06
2.55351e+06
2.5469e+06
2.51671e+06
2.46459e+06
2.413e+06
2.36187e+06
2.31119e+06
2.26109e+06
2.21156e+06
2.16265e+06
2.11442e+06
2.06617e+06
1.97702e+06
1.92482e+06
1.87786e+06
1.83427e+06
1.79253e+06
1.74921e+06
1.7053e+06
1.66229e+06
1.62141e+06
1.58133e+06
1.54211e+06
1.5038e+06
1.46634e+06
1.42982e+06
1.39422e+06
1.34598e+06
1.29008e+06
1.23703e+06
1.20153e+06
1.16633e+06
1.10344e+06
1.01904e+06
943317
890852
899312
919368
906825
909398
916951
927419
940900
957061
975787
996963
1.02036e+06
1.04592e+06
1.05685e+06
1.02832e+06
1.00791e+06
1.02816e+06
1.05508e+06
1.04845e+06
1.05847e+06
1.08657e+06
1.13127e+06
1.19058e+06
1.26246e+06
1.34489e+06
1.43628e+06
1.53498e+06
1.64076e+06
1.75204e+06
1.86537e+06
1.99158e+06
2.23926e+06
1.25472e+07
1.51698e+07
1.50597e+07
1.49276e+07
1.48154e+07
1.47103e+07
1.47613e+07
1.49726e+07
1.51755e+07
1.28075e+07
9.87419e+06
7.52645e+06
4.12407e+06
1.34744e+06
2.36159e+06
3.75349e+06
5.07807e+06
6.32149e+06
5.73682e+06
5.21702e+06
4.74788e+06
4.2586e+06
3.71199e+06
3.28774e+06
2.99132e+06
2.63699e+06
2.32637e+06
2.05338e+06
1.83016e+06
1.62774e+06
1.44995e+06
1.32267e+06
1.25256e+06
1.19756e+06
1.13546e+06
1.07564e+06
1.04241e+06
1.02824e+06
1.01424e+06
1.00044e+06
986831
973344
959911
946654
933663
833651
757015
756361
754253
757508
769472
789516
809194
832652
859901
890986
925782
964154
1.00593e+06
1.05418e+06
1.10851e+06
1.19285e+06
1.23161e+06
1.27358e+06
1.32956e+06
1.40391e+06
1.4651e+06
1.49087e+06
1.52896e+06
1.59255e+06
1.70642e+06
1.824e+06
1.94457e+06
2.06786e+06
2.19314e+06
2.32001e+06
2.44832e+06
2.57769e+06
2.70798e+06
2.839e+06
2.95838e+06
3.05469e+06
3.16893e+06
3.30214e+06
3.43844e+06
3.60282e+06
3.76777e+06
3.93856e+06
4.11022e+06
4.28178e+06
4.45336e+06
4.62514e+06
4.79735e+06
4.97035e+06
5.14422e+06
5.32029e+06
5.53507e+06
5.77845e+06
5.70583e+06
5.65787e+06
1.24547e+07
1.49874e+07
1.48918e+07
1.47772e+07
1.46806e+07
1.45903e+07
1.45061e+07
1.44315e+07
1.43616e+07
1.4296e+07
1.42324e+07
1.40809e+07
1.39785e+07
1.18226e+07
9.51306e+06
7.50367e+06
5.84523e+06
3.21012e+06
1.30628e+06
2.15283e+06
3.06373e+06
3.81801e+06
4.54138e+06
5.23963e+06
5.94373e+06
6.10557e+06
5.75885e+06
5.3827e+06
5.04001e+06
4.72701e+06
4.4759e+06
4.27705e+06
4.10563e+06
3.94688e+06
3.8177e+06
3.73183e+06
3.66958e+06
3.61421e+06
3.57115e+06
3.53967e+06
3.51918e+06
3.5088e+06
3.50817e+06
3.51644e+06
3.53348e+06
3.5183e+06
3.4435e+06
3.48548e+06
3.53258e+06
3.584e+06
3.64094e+06
3.70391e+06
3.77164e+06
3.84398e+06
3.92039e+06
4.00081e+06
4.0848e+06
4.17217e+06
4.2627e+06
4.35609e+06
4.46875e+06
4.56137e+06
4.62299e+06
4.65574e+06
4.68359e+06
4.75205e+06
4.85954e+06
4.96874e+06
5.09877e+06
5.25068e+06
5.4041e+06
5.55915e+06
5.70623e+06
5.47334e+06
5.24068e+06
5.00839e+06
4.77657e+06
4.54543e+06
4.31519e+06
4.08587e+06
3.8578e+06
3.5966e+06
3.24693e+06
2.90114e+06
2.55996e+06
2.22446e+06
1.85066e+06
1.4833e+06
1.14804e+06
878249
742973
806917
1.02887e+06
1.32814e+06
1.59602e+06
1.87003e+06
2.14853e+06
2.483e+06
2.9396e+06
4.75934e+06
1.13366e+07
1.46343e+07
1.47242e+07
1.46244e+07
1.45434e+07
1.44686e+07
1.43968e+07
1.43278e+07
1.41588e+07
1.39967e+07
1.38782e+07
1.37637e+07
1.36183e+07
1.34754e+07
1.33567e+07
1.33563e+07
1.34306e+07
1.34807e+07
1.18362e+07
1.03047e+07
8.91599e+06
7.61988e+06
6.39679e+06
5.30454e+06
4.03182e+06
2.47507e+06
1.34006e+06
936256
1.33094e+06
1.83917e+06
2.34133e+06
2.81281e+06
3.18963e+06
3.64049e+06
4.05482e+06
4.3816e+06
4.66031e+06
4.91837e+06
5.15694e+06
5.37721e+06
5.58017e+06
5.7667e+06
5.93753e+06
6.09322e+06
6.23276e+06
6.09117e+06
5.84102e+06
5.68961e+06
5.53447e+06
5.37607e+06
5.17489e+06
4.9488e+06
4.71643e+06
4.47737e+06
4.23333e+06
3.98428e+06
3.73124e+06
3.47469e+06
3.21522e+06
2.85174e+06
2.48172e+06
2.06134e+06
1.70502e+06
1.36301e+06
1.05187e+06
818357
749550
866085
1.10347e+06
1.40376e+06
1.73607e+06
2.08671e+06
2.52647e+06
3.04671e+06
3.39979e+06
3.75935e+06
4.12371e+06
4.49134e+06
4.86148e+06
5.23297e+06
5.60564e+06
5.97832e+06
6.35085e+06
6.72238e+06
7.09237e+06
7.46266e+06
7.83139e+06
8.19766e+06
8.56185e+06
8.92345e+06
9.2822e+06
9.61014e+06
9.89185e+06
1.01562e+07
1.04195e+07
1.06957e+07
1.10064e+07
1.13465e+07
1.13741e+07
1.12667e+07
8.54565e+06
1.2369e+07
1.39526e+07
1.44716e+07
1.44044e+07
1.42605e+07
1.40823e+07
1.39607e+07
1.38424e+07
1.36808e+07
1.35261e+07
1.34655e+07
1.34155e+07
1.34978e+07
1.35711e+07
1.36178e+07
1.36828e+07
1.37673e+07
1.378e+07
1.37399e+07
1.36983e+07
1.3657e+07
1.36146e+07
1.35714e+07
1.35267e+07
1.29952e+07
1.20124e+07
1.10524e+07
1.01371e+07
9.29791e+06
8.57347e+06
7.9265e+06
7.4532e+06
7.06388e+06
6.68391e+06
6.31486e+06
5.90029e+06
5.525e+06
5.18659e+06
4.88257e+06
4.61063e+06
4.36881e+06
4.15513e+06
3.96863e+06
3.74327e+06
3.97484e+06
4.13939e+06
4.30822e+06
4.48955e+06
4.68249e+06
4.88587e+06
5.09966e+06
5.32225e+06
5.55911e+06
5.883e+06
6.21891e+06
6.56551e+06
6.92231e+06
7.30021e+06
7.68934e+06
8.07781e+06
8.45047e+06
8.79296e+06
9.10899e+06
9.42237e+06
9.74034e+06
1.00626e+07
1.03887e+07
1.07181e+07
1.10507e+07
1.13859e+07
1.17235e+07
1.20539e+07
1.20038e+07
1.19542e+07
1.19049e+07
1.18562e+07
1.18073e+07
1.17596e+07
1.17108e+07
1.16623e+07
1.16157e+07
1.15683e+07
1.15223e+07
1.14743e+07
1.14251e+07
1.13784e+07
1.13318e+07
1.12849e+07
1.11815e+07
1.10586e+07
1.09284e+07
1.08046e+07
1.06895e+07
1.06465e+07
1.0604e+07
1.05625e+07
1.05206e+07
1.04797e+07
1.04423e+07
3.40981e+06
1.22712e+07
1.18807e+07
1.23272e+07
1.36488e+07
1.39242e+07
1.37661e+07
1.35993e+07
1.35445e+07
1.3494e+07
1.34743e+07
1.35852e+07
1.36469e+07
1.37092e+07
1.3814e+07
1.38644e+07
1.3832e+07
1.37984e+07
1.37646e+07
1.37297e+07
1.36925e+07
1.36548e+07
1.36159e+07
1.35762e+07
1.35351e+07
1.34925e+07
1.34484e+07
1.34037e+07
1.33588e+07
1.31498e+07
1.29414e+07
1.27374e+07
1.25541e+07
1.25213e+07
1.25046e+07
1.25049e+07
1.25083e+07
1.25078e+07
1.25242e+07
1.24697e+07
1.24148e+07
1.23599e+07
1.2304e+07
1.22482e+07
1.2281e+07
1.25204e+07
1.25087e+07
1.25018e+07
1.25011e+07
1.25068e+07
1.25182e+07
1.25349e+07
1.25574e+07
1.25891e+07
1.26269e+07
1.26642e+07
1.27056e+07
1.27512e+07
1.28005e+07
1.27484e+07
1.27038e+07
1.26532e+07
1.25998e+07
1.25467e+07
1.24938e+07
1.24411e+07
1.23887e+07
1.23365e+07
1.22845e+07
1.22328e+07
1.21814e+07
1.21303e+07
1.20794e+07
1.20288e+07
1.19786e+07
1.19287e+07
1.1879e+07
1.18297e+07
1.17806e+07
1.17177e+07
1.16831e+07
1.16349e+07
1.15866e+07
1.15389e+07
1.15006e+07
1.14283e+07
1.13814e+07
1.12621e+07
1.1133e+07
1.10028e+07
1.08835e+07
1.07957e+07
1.0752e+07
1.07086e+07
1.06656e+07
1.06227e+07
1.05808e+07
1.05385e+07
1.04973e+07
1.04587e+07
6.40548e+06
1.15202e+07
1.34947e+07
1.21369e+07
1.16087e+07
1.15003e+07
1.26237e+07
1.34489e+07
1.34823e+07
1.36027e+07
1.36744e+07
1.37584e+07
1.3888e+07
1.38789e+07
1.38559e+07
1.38313e+07
1.38048e+07
1.37765e+07
1.3747e+07
1.37165e+07
1.36838e+07
1.36501e+07
1.36144e+07
1.35777e+07
1.35398e+07
1.35007e+07
1.34598e+07
1.34172e+07
1.33737e+07
1.33297e+07
1.32849e+07
1.3239e+07
1.31073e+07
1.29495e+07
1.28059e+07
1.27034e+07
1.26975e+07
1.26976e+07
1.27118e+07
1.2734e+07
1.27549e+07
1.27816e+07
1.27788e+07
1.2728e+07
1.29811e+07
1.30448e+07
1.30316e+07
1.30247e+07
1.3024e+07
1.30295e+07
1.30408e+07
1.30572e+07
1.30792e+07
1.31005e+07
1.30463e+07
1.29921e+07
1.29378e+07
1.28835e+07
1.28294e+07
1.27762e+07
1.27326e+07
1.26795e+07
1.2626e+07
1.25726e+07
1.25194e+07
1.24664e+07
1.24135e+07
1.23609e+07
1.23086e+07
1.22565e+07
1.22047e+07
1.21531e+07
1.21017e+07
1.20506e+07
1.19997e+07
1.19491e+07
1.18986e+07
1.18487e+07
1.17982e+07
1.17495e+07
1.17008e+07
1.16506e+07
1.16016e+07
1.15516e+07
1.14638e+07
1.13435e+07
1.12111e+07
1.10823e+07
1.09648e+07
1.09048e+07
1.086e+07
1.07743e+07
1.06522e+07
1.05317e+07
1.0413e+07
1.02958e+07
1.01815e+07
1.00673e+07
9.95813e+06
9.8907e+06
8.92765e+06
1.06986e+07
1.29731e+07
1.30867e+07
1.26427e+07
1.17434e+07
1.12895e+07
1.17976e+07
1.17419e+07
1.26693e+07
1.38326e+07
1.38619e+07
1.38468e+07
1.38305e+07
1.3814e+07
1.37964e+07
1.37756e+07
1.37526e+07
1.37277e+07
1.37015e+07
1.36728e+07
1.36429e+07
1.3611e+07
1.35772e+07
1.35417e+07
1.35051e+07
1.3467e+07
1.34272e+07
1.3386e+07
1.33438e+07
1.33007e+07
1.32565e+07
1.3211e+07
1.31646e+07
1.31171e+07
1.3069e+07
1.30199e+07
1.29703e+07
1.29096e+07
1.29262e+07
1.29484e+07
1.29789e+07
1.30177e+07
1.31212e+07
1.35402e+07
1.35357e+07
1.35004e+07
1.34477e+07
1.33947e+07
1.3341e+07
1.32875e+07
1.32335e+07
1.31794e+07
1.31253e+07
1.3071e+07
1.30166e+07
1.29626e+07
1.29082e+07
1.28538e+07
1.28035e+07
1.27565e+07
1.27027e+07
1.26488e+07
1.25952e+07
1.25416e+07
1.24004e+07
1.22474e+07
1.20959e+07
1.1946e+07
1.17976e+07
1.16507e+07
1.15053e+07
1.13614e+07
1.1219e+07
1.1078e+07
1.09385e+07
1.08003e+07
1.06636e+07
1.05284e+07
1.03942e+07
1.02415e+07
9.95015e+06
9.58926e+06
9.21563e+06
8.8386e+06
8.47536e+06
8.13575e+06
7.85773e+06
7.58324e+06
7.31203e+06
7.03716e+06
6.66716e+06
6.28212e+06
5.91143e+06
5.67302e+06
5.60538e+06
5.50792e+06
5.38369e+06
5.26732e+06
5.24645e+06
1.09624e+07
8.93196e+06
9.81091e+06
9.79234e+06
9.99249e+06
1.10448e+07
1.10426e+07
1.14038e+07
1.17444e+07
1.15839e+07
1.21481e+07
1.24374e+07
1.19791e+07
1.24736e+07
1.3224e+07
1.3717e+07
1.37443e+07
1.37264e+07
1.37062e+07
1.36844e+07
1.36598e+07
1.36334e+07
1.3605e+07
1.35745e+07
1.35418e+07
1.35075e+07
1.34718e+07
1.34344e+07
1.33954e+07
1.33552e+07
1.33139e+07
1.32714e+07
1.32275e+07
1.31823e+07
1.31359e+07
1.30888e+07
1.30407e+07
1.29922e+07
1.29427e+07
1.2864e+07
1.27082e+07
1.25523e+07
1.24264e+07
1.28149e+07
1.29388e+07
1.28087e+07
1.25195e+07
1.22241e+07
1.19279e+07
1.16301e+07
1.13314e+07
1.10287e+07
1.07206e+07
1.04124e+07
1.01045e+07
9.79748e+06
9.49026e+06
9.184e+06
8.88026e+06
8.58563e+06
8.28748e+06
7.98796e+06
7.6903e+06
7.39492e+06
7.08368e+06
6.77206e+06
6.47917e+06
6.19141e+06
5.90643e+06
5.6245e+06
5.34564e+06
5.07005e+06
4.79794e+06
4.52957e+06
4.26528e+06
3.92378e+06
3.55287e+06
3.20834e+06
2.87502e+06
2.54183e+06
2.31214e+06
2.07103e+06
1.88698e+06
1.70174e+06
1.55565e+06
1.28354e+06
1.06272e+06
926618
909615
1.00374e+06
1.11311e+06
1.2522e+06
1.4271e+06
1.64523e+06
1.93096e+06
2.14666e+06
2.21113e+06
2.37646e+06
2.59764e+06
2.79111e+06
1.15769e+07
8.43105e+06
6.57857e+06
6.20813e+06
5.81921e+06
5.12765e+06
4.6864e+06
4.81369e+06
5.56038e+06
5.57024e+06
5.46263e+06
6.21506e+06
6.00511e+06
5.46398e+06
5.67554e+06
6.25917e+06
6.70549e+06
6.89276e+06
7.03324e+06
6.97002e+06
7.26077e+06
7.51248e+06
7.64367e+06
7.73977e+06
7.80163e+06
7.78221e+06
7.61784e+06
7.44157e+06
7.2541e+06
7.05655e+06
6.84987e+06
6.63497e+06
6.4121e+06
6.18204e+06
5.94492e+06
5.70215e+06
5.4537e+06
5.20091e+06
4.94968e+06
4.71137e+06
4.46547e+06
4.19865e+06
4.19946e+06
4.35778e+06
4.09593e+06
3.8144e+06
3.54087e+06
3.29044e+06
3.03974e+06
2.78917e+06
2.53944e+06
2.29097e+06
2.04598e+06
1.80651e+06
1.57511e+06
1.32507e+06
1.38181e+06
869578
827671
954371
1.19449e+06
1.47173e+06
1.77781e+06
1.89898e+06
2.16063e+06
2.34549e+06
2.53229e+06
2.73324e+06
2.93623e+06
3.14079e+06
3.34672e+06
3.5537e+06
3.73748e+06
3.91717e+06
4.08064e+06
4.24329e+06
4.42098e+06
4.65692e+06
4.9462e+06
5.26281e+06
5.50421e+06
5.54287e+06
5.49852e+06
5.44975e+06
5.40662e+06
5.47355e+06
5.56125e+06
5.64887e+06
5.73808e+06
5.82699e+06
5.91728e+06
5.91756e+06
5.88928e+06
5.86116e+06
5.86665e+06
6.03355e+06
6.15303e+06
6.24531e+06
6.34604e+06
6.50021e+06
7.99801e+06
9.00893e+06
8.41227e+06
7.70418e+06
7.00301e+06
6.81091e+06
6.9766e+06
7.13537e+06
7.16534e+06
7.00325e+06
6.96112e+06
6.64434e+06
6.04069e+06
6.30048e+06
6.61892e+06
6.72868e+06
6.4895e+06
6.24778e+06
6.12726e+06
5.8524e+06
5.54507e+06
5.47337e+06
5.42655e+06
5.36869e+06
5.35387e+06
5.39472e+06
5.41735e+06
5.40534e+06
5.41555e+06
5.44691e+06
5.49829e+06
5.56837e+06
5.65617e+06
5.76042e+06
5.88053e+06
6.01539e+06
6.16412e+06
6.32577e+06
6.49893e+06
6.65539e+06
6.74668e+06
6.69931e+06
6.26017e+06
6.36782e+06
6.52247e+06
6.68399e+06
6.69501e+06
6.70613e+06
6.72084e+06
6.73952e+06
6.75339e+06
6.75553e+06
6.75547e+06
6.75774e+06
6.7607e+06
6.76488e+06
6.77142e+06
6.78083e+06
6.79323e+06
6.8134e+06
6.82301e+06
6.81006e+06
6.8121e+06
6.81011e+06
6.78778e+06
6.7244e+06
6.64022e+06
6.55836e+06
6.47867e+06
6.40024e+06
6.3232e+06
6.31886e+06
6.37269e+06
6.42524e+06
6.47819e+06
6.52094e+06
6.44567e+06
6.38465e+06
6.32883e+06
6.27929e+06
6.44496e+06
6.60504e+06
6.7447e+06
6.83913e+06
6.91867e+06
6.79284e+06
6.67227e+06
6.55271e+06
6.4382e+06
6.35124e+06
6.26517e+06
6.18e+06
6.09615e+06
6.03435e+06
6.04263e+06
6.03995e+06
6.03737e+06
5.95716e+06
5.83418e+06
5.68662e+06
1.25666e+07
1.70717e+07
9.75481e+06
7.97657e+06
7.96842e+06
8.04153e+06
7.95139e+06
7.87137e+06
7.83571e+06
8.04642e+06
8.36503e+06
8.58811e+06
8.75565e+06
8.78321e+06
8.80791e+06
8.96304e+06
9.11528e+06
9.25139e+06
9.37235e+06
9.29168e+06
9.59932e+06
9.87697e+06
1.00425e+07
1.01853e+07
1.0303e+07
1.03483e+07
1.02627e+07
1.01628e+07
1.00457e+07
9.9349e+06
9.83005e+06
9.73071e+06
9.63655e+06
9.54742e+06
9.46296e+06
9.38351e+06
9.30806e+06
9.23733e+06
9.17e+06
9.10687e+06
9.03306e+06
8.9172e+06
8.69438e+06
8.63065e+06
8.56796e+06
8.50643e+06
8.44567e+06
8.38622e+06
8.32752e+06
8.26968e+06
8.21313e+06
8.14251e+06
8.03427e+06
7.92651e+06
7.81881e+06
7.67332e+06
7.49245e+06
7.32763e+06
7.15873e+06
6.99957e+06
6.84768e+06
6.72118e+06
6.59287e+06
6.68595e+06
6.63071e+06
6.57863e+06
6.50892e+06
6.42382e+06
6.33819e+06
6.24057e+06
6.12933e+06
6.01211e+06
5.92407e+06
5.9376e+06
5.95721e+06
5.98084e+06
6.00907e+06
5.9762e+06
5.88661e+06
5.79794e+06
5.77937e+06
5.77341e+06
5.76796e+06
5.75786e+06
5.71123e+06
5.57306e+06
5.43592e+06
5.29983e+06
5.16476e+06
5.0307e+06
4.89766e+06
4.76565e+06
4.63471e+06
4.51305e+06
4.48742e+06
4.46172e+06
4.43596e+06
4.41001e+06
4.38372e+06
4.35684e+06
1.93992e+07
2.38488e+07
1.71811e+07
1.08908e+07
8.40946e+06
7.97827e+06
7.79829e+06
7.62657e+06
7.47244e+06
7.39644e+06
7.25527e+06
7.0399e+06
6.89231e+06
6.76324e+06
6.76736e+06
6.79783e+06
6.82474e+06
6.84689e+06
6.86414e+06
6.8761e+06
6.88297e+06
6.88477e+06
6.88167e+06
6.8736e+06
6.87409e+06
6.88213e+06
6.88704e+06
6.87482e+06
6.85957e+06
6.84079e+06
6.81125e+06
6.77161e+06
6.73131e+06
6.69182e+06
6.64626e+06
6.59581e+06
6.53988e+06
6.47969e+06
6.41483e+06
6.34594e+06
6.27328e+06
6.18543e+06
6.15579e+06
6.07235e+06
5.98583e+06
5.8966e+06
5.80437e+06
5.70963e+06
5.61295e+06
5.51364e+06
5.42131e+06
5.34133e+06
5.26047e+06
5.17683e+06
5.09253e+06
5.00462e+06
4.91408e+06
4.82539e+06
4.73821e+06
4.65101e+06
4.58334e+06
4.53924e+06
4.49433e+06
4.4487e+06
4.4034e+06
4.41229e+06
4.44168e+06
4.47069e+06
4.5011e+06
4.53207e+06
4.56094e+06
4.60548e+06
4.57808e+06
4.54958e+06
4.5311e+06
4.43821e+06
4.41774e+06
4.3972e+06
4.37662e+06
4.35602e+06
4.33438e+06
4.3109e+06
4.2882e+06
4.26589e+06
4.24289e+06
4.2196e+06
4.1963e+06
4.17302e+06
4.14974e+06
4.12644e+06
4.10308e+06
4.07964e+06
4.05613e+06
4.03254e+06
4.00891e+06
3.98522e+06
3.96154e+06
3.93782e+06
3.9135e+06
3.88593e+06
1.92092e+07
2.17551e+07
2.34931e+07
1.92465e+07
1.2773e+07
8.31495e+06
7.32438e+06
7.14651e+06
6.97823e+06
6.80523e+06
6.54611e+06
6.37713e+06
6.23159e+06
6.09339e+06
5.96167e+06
5.83562e+06
5.71579e+06
5.60115e+06
5.49165e+06
5.38699e+06
5.28706e+06
5.19153e+06
5.10033e+06
5.02064e+06
4.9435e+06
4.86014e+06
4.77911e+06
4.71731e+06
4.67432e+06
4.62926e+06
4.58199e+06
4.53703e+06
4.49394e+06
4.44633e+06
4.39323e+06
4.33843e+06
4.28142e+06
4.22268e+06
4.16226e+06
4.10017e+06
4.03683e+06
3.84922e+06
3.85114e+06
3.82311e+06
3.79832e+06
3.77418e+06
3.75091e+06
3.7278e+06
3.70569e+06
3.68411e+06
3.66277e+06
3.65679e+06
3.68905e+06
3.72204e+06
3.7563e+06
3.7914e+06
3.7986e+06
3.78124e+06
3.7642e+06
3.74734e+06
3.73089e+06
3.71476e+06
3.69886e+06
3.68335e+06
3.66821e+06
3.65335e+06
3.63872e+06
3.62442e+06
3.61463e+06
3.69876e+06
3.77085e+06
3.84536e+06
3.93279e+06
3.92762e+06
3.90993e+06
3.89211e+06
3.87419e+06
3.85618e+06
3.83807e+06
3.82002e+06
3.80218e+06
3.78414e+06
3.76574e+06
3.75233e+06
3.7409e+06
3.72954e+06
3.71826e+06
3.70703e+06
3.69585e+06
3.68472e+06
3.67364e+06
3.6606e+06
3.64745e+06
3.63441e+06
3.62143e+06
3.6086e+06
3.59572e+06
3.58319e+06
3.5704e+06
4.30124e+06
1.95392e+07
2.01572e+07
2.15495e+07
2.30949e+07
2.2013e+07
1.62283e+07
1.14941e+07
7.59976e+06
6.99433e+06
6.83245e+06
6.67857e+06
6.53247e+06
6.39297e+06
6.26063e+06
6.13419e+06
6.01357e+06
5.89904e+06
5.78963e+06
5.68521e+06
5.58545e+06
5.49023e+06
5.3992e+06
5.3122e+06
5.22902e+06
5.13704e+06
5.05044e+06
4.97113e+06
4.8989e+06
4.83323e+06
4.77418e+06
4.72091e+06
4.67383e+06
4.62336e+06
4.56937e+06
4.51718e+06
4.46707e+06
4.41892e+06
4.37243e+06
4.3279e+06
4.28491e+06
4.24378e+06
4.09729e+06
4.0862e+06
4.05766e+06
4.03494e+06
4.01233e+06
3.99058e+06
3.96923e+06
3.94809e+06
3.92779e+06
3.9077e+06
3.88784e+06
3.86872e+06
3.8498e+06
3.83108e+06
3.81301e+06
3.79522e+06
3.77766e+06
3.76056e+06
3.74382e+06
3.72734e+06
3.71122e+06
3.69543e+06
3.67985e+06
3.66461e+06
3.64975e+06
3.63935e+06
3.71343e+06
3.77333e+06
3.83533e+06
3.90515e+06
3.88918e+06
3.87287e+06
3.85679e+06
3.84093e+06
3.8253e+06
3.80989e+06
3.79468e+06
3.77967e+06
3.76485e+06
3.75119e+06
3.73948e+06
3.72786e+06
3.71634e+06
3.70491e+06
3.69357e+06
3.68231e+06
3.67111e+06
3.65999e+06
3.6489e+06
3.82933e+06
4.68292e+06
5.69654e+06
6.72069e+06
7.74224e+06
8.68287e+06
9.49875e+06
1.03137e+07
1.11215e+07
1.28267e+07
1.92645e+07
2.00296e+07
2.03556e+07
2.1196e+07
2.25703e+07
2.38491e+07
2.08022e+07
1.56217e+07
1.18641e+07
8.25501e+06
6.69068e+06
6.54353e+06
6.40251e+06
6.26888e+06
6.14165e+06
6.02024e+06
5.90456e+06
5.79399e+06
5.68845e+06
5.58767e+06
5.49152e+06
5.39966e+06
5.31185e+06
5.22794e+06
5.14774e+06
5.07104e+06
4.99751e+06
4.92725e+06
4.85973e+06
4.79526e+06
4.73301e+06
4.67363e+06
4.61652e+06
4.5618e+06
4.50924e+06
4.45848e+06
4.40993e+06
4.36301e+06
4.31807e+06
4.27459e+06
4.23311e+06
4.09752e+06
4.08686e+06
4.05443e+06
4.03163e+06
4.00915e+06
3.98693e+06
3.96562e+06
3.94457e+06
3.92388e+06
3.90393e+06
3.88412e+06
3.86463e+06
3.84579e+06
3.82719e+06
3.80888e+06
3.79111e+06
3.77366e+06
3.75644e+06
3.73962e+06
3.72319e+06
3.70703e+06
3.69121e+06
3.67568e+06
3.66044e+06
3.73566e+06
3.79878e+06
3.86382e+06
3.93132e+06
3.9142e+06
3.89734e+06
3.88074e+06
3.86437e+06
3.84825e+06
3.83236e+06
3.81669e+06
3.80123e+06
3.78598e+06
3.77092e+06
3.75604e+06
3.74133e+06
3.72681e+06
4.46499e+06
5.31074e+06
6.32599e+06
7.34285e+06
8.35877e+06
9.20673e+06
1.00201e+07
1.08211e+07
1.16793e+07
1.26612e+07
1.35036e+07
1.4296e+07
1.50617e+07
1.57996e+07
1.65581e+07
1.75704e+07
1.86084e+07
1.87903e+07
1.74716e+07
1.9623e+07
2.02463e+07
2.05508e+07
2.08292e+07
2.19373e+07
2.30689e+07
2.4115e+07
2.0982e+07
1.69994e+07
1.34987e+07
1.05657e+07
7.61721e+06
6.27656e+06
6.14811e+06
6.02537e+06
5.90853e+06
5.79715e+06
5.69084e+06
5.58926e+06
5.49227e+06
5.39963e+06
5.31106e+06
5.22636e+06
5.14537e+06
5.06796e+06
4.99373e+06
4.92285e+06
4.85469e+06
4.78954e+06
4.72683e+06
4.66672e+06
4.60924e+06
4.5538e+06
4.50077e+06
4.44953e+06
4.40046e+06
4.35307e+06
4.30775e+06
4.26392e+06
4.22175e+06
4.09974e+06
4.0881e+06
4.05093e+06
4.02762e+06
4.00527e+06
3.98307e+06
3.96131e+06
3.9404e+06
3.91967e+06
3.89938e+06
3.87972e+06
3.86028e+06
3.84119e+06
3.82265e+06
3.80438e+06
3.78638e+06
3.7689e+06
3.75181e+06
3.73496e+06
3.71846e+06
3.70231e+06
3.68647e+06
3.75367e+06
3.82021e+06
3.88807e+06
3.95768e+06
3.93994e+06
3.9225e+06
3.90532e+06
3.88841e+06
3.87176e+06
3.96239e+06
4.77035e+06
5.58405e+06
6.48696e+06
7.47184e+06
8.45893e+06
9.31542e+06
1.01099e+07
1.09045e+07
1.17094e+07
1.26312e+07
1.34806e+07
1.43068e+07
1.50882e+07
1.58293e+07
1.6569e+07
1.73424e+07
1.82902e+07
1.91381e+07
1.92994e+07
1.93002e+07
1.929e+07
1.928e+07
1.93478e+07
1.95775e+07
1.982e+07
2.00125e+07
2.02634e+07
1.64293e+07
1.84748e+07
1.95996e+07
2.04576e+07
2.07438e+07
2.10037e+07
2.12581e+07
2.22285e+07
2.3138e+07
2.39866e+07
2.26785e+07
1.97823e+07
1.68672e+07
1.41809e+07
1.18595e+07
9.48382e+06
7.3631e+06
5.79987e+06
5.69262e+06
5.59015e+06
5.49226e+06
5.3987e+06
5.30926e+06
5.22376e+06
5.14206e+06
5.06401e+06
4.98911e+06
4.91751e+06
4.84882e+06
4.78294e+06
4.7199e+06
4.65914e+06
4.60126e+06
4.54536e+06
4.49177e+06
4.44007e+06
4.39057e+06
4.34277e+06
4.29682e+06
4.25302e+06
4.21011e+06
4.10328e+06
4.0901e+06
4.04681e+06
4.02336e+06
4.00053e+06
3.97859e+06
3.95676e+06
3.93548e+06
3.9149e+06
3.89453e+06
3.87458e+06
3.85523e+06
3.83617e+06
3.81744e+06
3.79919e+06
3.78127e+06
3.76364e+06
3.74645e+06
3.72964e+06
3.71313e+06
3.76542e+06
4.23564e+06
5.05248e+06
5.88371e+06
6.62952e+06
7.51731e+06
8.42908e+06
9.29925e+06
1.00402e+07
1.07855e+07
1.15316e+07
1.23205e+07
1.31849e+07
1.39542e+07
1.47429e+07
1.55151e+07
1.62433e+07
1.6965e+07
1.77138e+07
1.84734e+07
1.94028e+07
1.96658e+07
1.9823e+07
1.98113e+07
1.97984e+07
1.97857e+07
1.99387e+07
2.01518e+07
2.0387e+07
2.05912e+07
2.0774e+07
2.07402e+07
2.0375e+07
2.00139e+07
1.96558e+07
1.93034e+07
1.87225e+07
1.8118e+07
1.76191e+07
1.69574e+07
1.7489e+07
1.92739e+07
2.03774e+07
2.06626e+07
2.09283e+07
2.11691e+07
2.13869e+07
2.15815e+07
2.21309e+07
2.28656e+07
2.35403e+07
2.41619e+07
2.32606e+07
2.1029e+07
1.89674e+07
1.70601e+07
1.52548e+07
1.36588e+07
1.19694e+07
1.0436e+07
9.0512e+06
7.8085e+06
6.72555e+06
5.90693e+06
5.18847e+06
4.98396e+06
4.91155e+06
4.84237e+06
4.7757e+06
4.71222e+06
4.65101e+06
4.59259e+06
4.53631e+06
4.48227e+06
4.4301e+06
4.38002e+06
4.33222e+06
4.28555e+06
4.24131e+06
4.19856e+06
4.1089e+06
4.09367e+06
4.04178e+06
4.01863e+06
3.99556e+06
3.97323e+06
3.97744e+06
4.40251e+06
4.85268e+06
5.32654e+06
5.82199e+06
6.33789e+06
6.87311e+06
7.49976e+06
8.18011e+06
8.8794e+06
9.53203e+06
1.01077e+07
1.07655e+07
1.15112e+07
1.22678e+07
1.30934e+07
1.38255e+07
1.45016e+07
1.52075e+07
1.59242e+07
1.66136e+07
1.72836e+07
1.79693e+07
1.86791e+07
1.93928e+07
2.00085e+07
2.01568e+07
2.03054e+07
2.03689e+07
2.03535e+07
2.03382e+07
2.02957e+07
1.99004e+07
1.95361e+07
1.92001e+07
1.88404e+07
1.84641e+07
1.80917e+07
1.77232e+07
1.73585e+07
1.69975e+07
1.66405e+07
1.61184e+07
1.55044e+07
1.47741e+07
1.38794e+07
1.30575e+07
1.2301e+07
1.15504e+07
1.05768e+07
9.55553e+06
8.51765e+06
7.32349e+06
1.6931e+07
1.72669e+07
1.85229e+07
1.98265e+07
2.13718e+07
2.17084e+07
2.16706e+07
2.13234e+07
2.15224e+07
2.17003e+07
2.18584e+07
2.19987e+07
2.22948e+07
2.28394e+07
2.33331e+07
2.37795e+07
2.4179e+07
2.42025e+07
2.26382e+07
2.12037e+07
1.98919e+07
1.86961e+07
1.76107e+07
1.66361e+07
1.57623e+07
1.50148e+07
1.43909e+07
1.37825e+07
1.32172e+07
1.26839e+07
1.22342e+07
1.18626e+07
1.15651e+07
1.13377e+07
1.11765e+07
1.10782e+07
1.1039e+07
1.10565e+07
1.11276e+07
1.12466e+07
1.13615e+07
1.15046e+07
1.17748e+07
1.19847e+07
1.22383e+07
1.25215e+07
1.28321e+07
1.31772e+07
1.35663e+07
1.3954e+07
1.43637e+07
1.47941e+07
1.52438e+07
1.57187e+07
1.62156e+07
1.67215e+07
1.72315e+07
1.77734e+07
1.84687e+07
1.9189e+07
1.99105e+07
2.05604e+07
2.07831e+07
2.06968e+07
2.04488e+07
2.00018e+07
1.94226e+07
1.88301e+07
1.82888e+07
1.78851e+07
1.74852e+07
1.70901e+07
1.67445e+07
1.64127e+07
1.60328e+07
1.56568e+07
1.52847e+07
1.48756e+07
1.43846e+07
1.39527e+07
1.35864e+07
1.30536e+07
1.24262e+07
1.17917e+07
1.10209e+07
1.0256e+07
9.49723e+06
8.74514e+06
8.00024e+06
7.02273e+06
5.9985e+06
4.95458e+06
4.15001e+06
3.70828e+06
3.27406e+06
2.76125e+06
2.2797e+06
1.85276e+06
1.44657e+06
1.18234e+06
1.69054e+07
1.72664e+07
1.75209e+07
1.85406e+07
2.01767e+07
2.17214e+07
2.26863e+07
2.29752e+07
2.31259e+07
2.26628e+07
2.22344e+07
2.19479e+07
2.20729e+07
2.21823e+07
2.22764e+07
2.23568e+07
2.24241e+07
2.26336e+07
2.29462e+07
2.32228e+07
2.34657e+07
2.36766e+07
2.38575e+07
2.39844e+07
2.39349e+07
2.38789e+07
2.33294e+07
2.27092e+07
2.21623e+07
2.1688e+07
2.12845e+07
2.09454e+07
2.0667e+07
2.04461e+07
2.02788e+07
2.01635e+07
2.00964e+07
2.00743e+07
2.00968e+07
2.01539e+07
2.02493e+07
2.03836e+07
2.02897e+07
2.01985e+07
2.01626e+07
2.01536e+07
2.01702e+07
2.01845e+07
1.9795e+07
1.94036e+07
1.90105e+07
1.86162e+07
1.8221e+07
1.78548e+07
1.74382e+07
1.6985e+07
1.65707e+07
1.62398e+07
1.59987e+07
1.56719e+07
1.52668e+07
1.48654e+07
1.44726e+07
1.40567e+07
1.3613e+07
1.31999e+07
1.28126e+07
1.24288e+07
1.20486e+07
1.16721e+07
1.12992e+07
1.09298e+07
1.05565e+07
9.93245e+06
9.31267e+06
8.66939e+06
7.91104e+06
7.15896e+06
6.57034e+06
6.39541e+06
6.22104e+06
6.00966e+06
5.55735e+06
5.06268e+06
4.57525e+06
4.12921e+06
3.68834e+06
3.2543e+06
2.74283e+06
2.26508e+06
1.83891e+06
1.4848e+06
1.23369e+06
1.00686e+06
823174
714809
704893
703502
701955
700446
1.68803e+07
1.72711e+07
1.75223e+07
1.77518e+07
1.81421e+07
1.95305e+07
2.11505e+07
2.29984e+07
2.39093e+07
2.41779e+07
2.44119e+07
2.45131e+07
2.41828e+07
2.38745e+07
2.35911e+07
2.3332e+07
2.3096e+07
2.28818e+07
2.26883e+07
2.25145e+07
2.25383e+07
2.25538e+07
2.2561e+07
2.25597e+07
2.25518e+07
2.25365e+07
2.25155e+07
2.24886e+07
2.24586e+07
2.188e+07
2.12926e+07
2.06979e+07
2.00961e+07
1.94885e+07
1.88752e+07
1.8257e+07
1.7635e+07
1.70091e+07
1.63866e+07
1.57956e+07
1.52575e+07
1.46859e+07
1.39442e+07
1.36545e+07
1.33826e+07
1.31093e+07
1.28352e+07
1.256e+07
1.22839e+07
1.20074e+07
1.17305e+07
1.14533e+07
1.11777e+07
1.09042e+07
1.06506e+07
1.04251e+07
1.02002e+07
9.94414e+06
9.56028e+06
9.18019e+06
8.80383e+06
8.43125e+06
8.06243e+06
7.66797e+06
7.43771e+06
7.40841e+06
7.37814e+06
7.21036e+06
7.04205e+06
6.87332e+06
6.70432e+06
6.53513e+06
6.36587e+06
6.19665e+06
5.80656e+06
5.32847e+06
4.85896e+06
4.41866e+06
3.9816e+06
3.54898e+06
3.10875e+06
2.6035e+06
2.15053e+06
1.7438e+06
1.48038e+06
1.23137e+06
1.00682e+06
825947
721101
713216
711799
710380
708960
704115
702096
712689
735049
768054
809631
861098
1.68565e+07
1.72816e+07
1.75281e+07
1.77545e+07
1.79558e+07
1.81381e+07
1.87825e+07
1.99241e+07
2.10611e+07
2.27522e+07
2.43301e+07
2.53074e+07
2.55095e+07
2.5226e+07
2.47204e+07
2.4206e+07
2.34652e+07
2.27046e+07
2.19597e+07
2.12375e+07
2.05324e+07
1.98304e+07
1.91422e+07
1.84663e+07
1.78031e+07
1.71521e+07
1.65124e+07
1.58836e+07
1.52138e+07
1.45727e+07
1.39699e+07
1.33774e+07
1.27942e+07
1.222e+07
1.16558e+07
1.10998e+07
1.05527e+07
1.00148e+07
9.48743e+06
8.96919e+06
8.45679e+06
7.83002e+06
7.35493e+06
7.36951e+06
7.39003e+06
7.4113e+06
7.43329e+06
7.456e+06
7.47942e+06
7.50347e+06
7.52813e+06
7.55338e+06
7.57914e+06
7.62678e+06
7.65384e+06
7.67716e+06
7.63235e+06
7.48414e+06
7.33395e+06
7.18203e+06
7.02856e+06
6.87367e+06
6.71749e+06
6.56018e+06
6.40195e+06
6.23004e+06
5.7836e+06
5.33686e+06
4.91462e+06
4.49279e+06
4.07215e+06
3.65376e+06
3.23923e+06
2.7646e+06
2.30724e+06
1.92043e+06
1.65669e+06
1.40267e+06
1.16474e+06
954721
794760
722575
721211
719834
718449
711358
714934
731252
759240
797433
844234
898084
960273
1.04485e+06
1.13327e+06
1.2015e+06
1.27206e+06
1.34453e+06
1.41766e+06
1.50198e+06
1.68339e+07
1.72986e+07
1.67594e+07
1.60816e+07
1.5415e+07
1.47462e+07
1.40832e+07
1.3421e+07
1.30415e+07
1.32123e+07
1.32673e+07
1.33531e+07
1.38267e+07
1.42424e+07
1.4593e+07
1.4634e+07
1.43962e+07
1.41209e+07
1.38106e+07
1.34675e+07
1.29157e+07
1.23612e+07
1.18057e+07
1.12493e+07
1.06862e+07
1.00456e+07
9.41779e+06
8.80324e+06
8.21136e+06
8.2159e+06
8.222e+06
8.22997e+06
8.24023e+06
8.25146e+06
8.26466e+06
8.27997e+06
8.29578e+06
8.31282e+06
8.32551e+06
8.30752e+06
8.24795e+06
7.94267e+06
7.76805e+06
7.67695e+06
7.58045e+06
7.47895e+06
7.37273e+06
7.26211e+06
7.14734e+06
7.02876e+06
6.9066e+06
6.80647e+06
6.73432e+06
6.65903e+06
6.55185e+06
6.41074e+06
6.16177e+06
5.77522e+06
5.39696e+06
5.01527e+06
4.63083e+06
4.24433e+06
3.85672e+06
3.46921e+06
3.07962e+06
2.63049e+06
2.2153e+06
1.95842e+06
1.70593e+06
1.46084e+06
1.22828e+06
1.01756e+06
845876
741361
730052
728757
723122
721132
732343
755959
790666
834883
886984
945487
1.01697e+06