/*--------------------------------*- C++ -*----------------------------------*\
| =========                 |                                                 |
| \\      /  F ield         | foam-extend: Open Source CFD                    |
|  \\    /   O peration     | Version:     4.1                                |
|   \\  /    A nd           | Web:         http://www.foam-extend.org         |
|    \\/     M anipulation  |                                                 |
\*---------------------------------------------------------------------------*/
FoamFile
{
    version     2.0;
    format      ascii;
    class       volScalarField;
    location    "5";
    object      sigmaHyd;
}
// * * * * * * * * * * * * * * * * * * * * * * * * * * * * * * * * * * * * * //

dimensions      [1 -1 -2 0 0 0 0];

internalField   nonuniform List<scalar> 
100000
(
-235311
-234709
-234825
-234574
-234521
-234370
-234276
-234159
-234059
-233955
-233858
-233762
-233670
-233581
-233494
-233409
-233328
-233248
-233171
-233096
-233022
-232951
-232882
-232815
-232749
-232685
-232624
-232562
-232504
-232441
-232389
-232313
-232263
-232237
-232178
-232127
-232077
-232028
-231980
-231933
-231888
-231843
-231800
-231757
-231715
-231674
-231633
-231593
-231555
-231516
-231479
-231442
-231406
-231370
-231335
-231300
-231266
-231233
-231200
-231168
-231136
-231104
-231073
-231042
-231011
-230981
-230952
-230922
-230893
-230865
-230836
-230808
-230781
-230753
-230726
-230699
-230673
-230647
-230621
-230595
-230569
-230543
-230518
-230493
-230468
-230443
-230418
-230392
-230368
-230343
-230319
-230296
-230273
-230251
-230232
-230210
-230203
-230178
-230217
-230078
-243834
-243024
-242995
-242574
-242370
-242066
-241827
-241565
-241327
-241087
-240858
-240634
-240417
-240205
-240000
-239799
-239605
-239415
-239230
-239050
-238875
-238704
-238538
-238375
-238217
-238062
-237914
-237765
-237633
-237483
-237406
-237199
-237164
-236938
-236886
-236701
-236590
-236460
-236345
-236229
-236118
-236009
-235902
-235798
-235695
-235595
-235496
-235399
-235304
-235211
-235120
-235030
-234942
-234855
-234770
-234686
-234604
-234523
-234443
-234365
-234288
-234212
-234138
-234064
-233992
-233920
-233850
-233781
-233712
-233645
-233579
-233513
-233449
-233385
-233322
-233260
-233200
-233139
-233080
-233021
-232962
-232904
-232847
-232791
-232736
-232680
-232625
-232570
-232517
-232464
-232412
-232360
-232310
-232260
-232215
-232164
-232131
-232072
-232084
-231886
-252353
-251334
-251161
-250570
-250216
-249758
-249373
-248968
-248591
-248216
-247855
-247502
-247160
-246827
-246503
-246187
-245879
-245579
-245287
-245002
-244725
-244454
-244190
-243932
-243681
-243435
-243196
-242962
-242734
-242511
-242293
-242088
-241850
-241640
-241462
-241262
-241075
-240886
-240703
-240522
-240346
-240172
-240003
-239837
-239674
-239514
-239357
-239204
-239053
-238905
-238759
-238616
-238476
-238338
-238203
-238070
-237940
-237812
-237686
-237562
-237440
-237320
-237202
-237085
-236971
-236858
-236747
-236638
-236530
-236424
-236320
-236217
-236115
-236015
-235917
-235820
-235725
-235630
-235538
-235447
-235355
-235265
-235179
-235091
-235012
-234922
-234836
-234750
-234666
-234584
-234504
-234425
-234349
-234272
-234202
-234122
-234067
-233968
-233963
-233684
-260865
-259639
-259322
-258560
-258056
-257445
-256914
-256366
-255850
-255339
-254847
-254366
-253899
-253444
-253001
-252569
-252149
-251739
-251340
-250950
-250570
-250200
-249839
-249486
-249142
-248805
-248478
-248156
-247845
-247535
-247237
-246935
-246605
-246365
-246101
-245830
-245571
-245312
-245061
-244813
-244571
-244334
-244101
-243873
-243650
-243431
-243216
-243005
-242798
-242595
-242396
-242200
-242008
-241820
-241634
-241452
-241274
-241098
-240926
-240756
-240589
-240425
-240264
-240105
-239948
-239794
-239643
-239494
-239347
-239202
-239059
-238919
-238781
-238645
-238512
-238379
-238251
-238122
-237999
-237870
-237742
-237621
-237504
-237384
-237276
-237157
-237035
-236924
-236810
-236701
-236593
-236486
-236383
-236278
-236180
-236072
-235991
-235861
-235829
-235515
-269369
-267935
-267474
-266542
-265889
-265123
-264448
-263756
-263102
-262456
-261832
-261223
-260631
-260054
-259493
-258946
-258413
-257893
-257386
-256892
-256411
-255940
-255482
-255034
-254597
-254170
-253753
-253345
-252947
-252557
-252175
-251803
-251431
-251077
-250732
-250391
-250059
-249732
-249413
-249099
-248792
-248491
-248195
-247906
-247622
-247344
-247071
-246804
-246541
-246283
-246030
-245782
-245538
-245298
-245063
-244831
-244605
-244382
-244163
-243948
-243736
-243528
-243323
-243122
-242923
-242728
-242536
-242347
-242160
-241977
-241796
-241618
-241443
-241270
-241101
-240931
-240770
-240603
-240452
-240305
-240134
-239973
-239834
-239679
-239591
-239411
-239250
-239096
-238955
-238814
-238680
-238545
-238415
-238282
-238159
-238023
-237915
-237757
-237700
-237353
-277862
-276221
-275616
-274514
-273712
-272793
-271973
-271137
-270345
-269563
-268809
-268071
-267355
-266657
-265977
-265314
-264669
-264040
-263426
-262828
-262244
-261674
-261118
-260576
-260046
-259528
-259023
-258528
-258045
-257572
-257109
-256656
-256207
-255782
-255361
-254948
-254545
-254149
-253761
-253381
-253008
-252643
-252285
-251934
-251590
-251253
-250922
-250598
-250279
-249967
-249660
-249358
-249063
-248772
-248487
-248206
-247931
-247663
-247397
-247137
-246880
-246628
-246380
-246135
-245895
-245659
-245426
-245197
-244971
-244749
-244531
-244316
-244104
-243895
-243692
-243488
-243298
-243096
-242943
-242718
-242479
-242322
-242145
-241948
-241834
-241645
-241401
-241266
-241088
-240928
-240764
-240603
-240445
-240285
-240134
-239971
-239838
-239652
-239571
-239195
-286343
-284494
-283746
-282475
-281523
-280451
-279486
-278508
-277577
-276661
-275775
-274910
-274069
-273250
-272452
-271674
-270916
-270177
-269457
-268754
-268069
-267400
-266747
-266109
-265487
-264879
-264285
-263704
-263136
-262582
-262038
-261508
-260987
-260480
-259985
-259499
-259024
-258559
-258103
-257656
-257218
-256789
-256369
-255957
-255553
-255157
-254768
-254387
-254013
-253645
-253285
-252931
-252584
-252241
-251907
-251576
-251252
-250937
-250627
-250321
-250020
-249723
-249432
-249145
-248863
-248585
-248312
-248043
-247778
-247517
-247261
-247007
-246758
-246510
-246270
-246019
-245796
-245509
-245357
-244976
-244899
-244594
-244398
-244168
-244207
-243711
-243593
-243364
-243216
-243020
-242841
-242652
-242470
-242283
-242107
-241917
-241758
-241545
-241441
-241037
-294810
-292754
-291862
-290422
-289321
-288096
-286987
-285866
-284797
-283746
-282730
-281737
-280772
-279831
-278916
-278023
-277153
-276305
-275477
-274671
-273883
-273115
-272366
-271634
-270919
-270220
-269538
-268871
-268219
-267582
-266958
-266349
-265752
-265170
-264600
-264042
-263496
-262962
-262438
-261925
-261422
-260929
-260446
-259973
-259509
-259054
-258607
-258169
-257739
-257317
-256904
-256496
-256097
-255703
-255319
-254936
-254568
-254212
-253851
-253501
-253154
-252814
-252479
-252150
-251826
-251507
-251193
-250885
-250581
-250282
-249988
-249697
-249412
-249130
-248852
-248579
-248304
-248044
-247750
-247546
-247324
-247036
-246786
-246557
-246267
-246059
-245875
-245603
-245384
-245151
-244933
-244712
-244499
-244283
-244079
-243862
-243677
-243437
-243309
-242878
-303259
-300997
-299962
-298353
-297104
-295727
-294473
-293209
-292003
-290818
-289671
-288551
-287462
-286400
-285367
-284359
-283377
-282420
-281486
-280576
-279687
-278820
-277974
-277147
-276340
-275552
-274782
-274029
-273293
-272574
-271870
-271182
-270509
-269851
-269207
-268577
-267960
-267356
-266765
-266185
-265617
-265061
-264516
-263981
-263457
-262943
-262439
-261945
-261460
-260984
-260518
-260058
-259610
-259163
-258734
-258294
-257864
-257469
-257075
-256673
-256286
-255899
-255522
-255149
-254784
-254424
-254070
-253721
-253379
-253041
-252709
-252382
-252060
-251742
-251430
-251120
-250820
-250519
-250232
-249957
-249662
-249371
-249105
-248827
-248613
-248313
-248039
-247764
-247510
-247254
-247007
-246759
-246519
-246277
-246046
-245803
-245592
-245326
-245174
-244715
-311690
-309222
-308045
-306267
-304870
-303340
-301942
-300537
-299194
-297874
-296597
-295350
-294137
-292955
-291804
-290682
-289588
-288522
-287482
-286468
-285478
-284512
-283570
-282649
-281750
-280872
-280014
-279175
-278355
-277554
-276770
-276004
-275254
-274521
-273804
-273102
-272414
-271741
-271082
-270436
-269804
-269184
-268576
-267981
-267397
-266825
-266263
-265712
-265172
-264641
-264121
-263608
-263107
-262605
-262126
-261607
-261168
-260766
-260284
-259845
-259406
-258977
-258556
-258142
-257734
-257334
-256940
-256552
-256170
-255795
-255425
-255061
-254702
-254349
-254002
-253660
-253322
-252992
-252662
-252347
-252033
-251717
-251408
-251105
-250803
-250507
-250219
-249925
-249642
-249358
-249082
-248806
-248538
-248268
-248011
-247740
-247504
-247212
-247035
-246550
-320100
-317427
-316107
-314162
-312616
-310935
-309394
-307846
-306366
-304913
-303506
-302132
-300796
-299494
-298225
-296989
-295784
-294609
-293464
-292346
-291255
-290191
-289152
-288137
-287147
-286179
-285233
-284309
-283406
-282523
-281659
-280815
-279988
-279180
-278389
-277615
-276858
-276116
-275389
-274678
-273980
-273297
-272628
-271971
-271328
-270697
-270078
-269471
-268876
-268292
-267721
-267156
-266616
-266061
-265590
-264978
-264680
-263958
-263550
-263000
-262534
-262049
-261587
-261128
-260679
-260237
-259803
-259376
-258955
-258542
-258135
-257734
-257339
-256950
-256568
-256191
-255820
-255455
-255096
-254744
-254394
-254049
-253712
-253376
-253051
-252721
-252399
-252078
-251764
-251453
-251148
-250846
-250550
-250254
-249969
-249673
-249411
-249093
-248892
-248380
-328488
-325610
-324148
-322035
-320342
-318509
-316825
-315136
-313520
-311933
-310396
-308896
-307437
-306015
-304630
-303279
-301963
-300680
-299429
-298208
-297017
-295854
-294719
-293611
-292529
-291472
-290439
-289429
-288443
-287478
-286535
-285612
-284710
-283827
-282963
-282117
-281289
-280479
-279685
-278907
-278146
-277399
-276668
-275951
-275248
-274558
-273882
-273219
-272569
-271930
-271304
-270690
-270087
-269498
-268912
-268371
-267753
-267172
-266674
-266136
-265622
-265106
-264602
-264103
-263614
-263132
-262658
-262192
-261733
-261281
-260837
-260399
-259969
-259544
-259127
-258715
-258310
-257912
-257519
-257132
-256751
-256375
-256004
-255638
-255278
-254921
-254571
-254223
-253881
-253543
-253210
-252880
-252557
-252234
-251924
-251601
-251313
-250970
-250745
-250207
-336850
-333768
-332165
-329885
-328045
-326061
-324234
-322404
-320652
-318932
-317266
-315640
-314058
-312516
-311015
-309551
-308124
-306733
-305377
-304053
-302761
-301501
-300270
-299069
-297895
-296749
-295629
-294535
-293465
-292419
-291396
-290396
-289417
-288460
-287523
-286606
-285708
-284829
-283968
-283125
-282299
-281490
-280696
-279919
-279156
-278409
-277676
-276957
-276252
-275559
-274881
-274213
-273561
-272915
-272288
-271657
-271032
-270444
-269869
-269286
-268723
-268162
-267614
-267073
-266542
-266020
-265506
-265000
-264503
-264013
-263532
-263057
-262590
-262131
-261678
-261232
-260793
-260361
-259935
-259516
-259102
-258694
-258293
-257896
-257506
-257120
-256739
-256363
-255992
-255626
-255266
-254909
-254559
-254209
-253872
-253523
-253210
-252841
-252592
-252028
-345186
-341901
-340156
-337709
-335723
-333589
-331619
-329649
-327761
-325909
-324114
-322362
-320658
-318998
-317380
-315803
-314266
-312767
-311305
-309879
-308488
-307130
-305804
-304509
-303245
-302010
-300803
-299624
-298471
-297344
-296242
-295164
-294109
-293078
-292068
-291080
-290113
-289165
-288238
-287329
-286439
-285567
-284712
-283874
-283053
-282247
-281457
-280682
-279922
-279176
-278444
-277726
-277020
-276328
-275645
-274979
-274314
-273666
-273038
-272414
-271805
-271204
-270613
-270032
-269460
-268898
-268344
-267800
-267264
-266737
-266218
-265707
-265204
-264709
-264221
-263741
-263268
-262802
-262343
-261891
-261446
-261006
-260573
-260146
-259725
-259310
-258900
-258495
-258097
-257703
-257315
-256931
-256554
-256178
-255815
-255440
-255102
-254706
-254434
-253844
-353493
-350005
-348120
-345507
-343375
-341090
-338979
-336869
-334846
-332862
-330938
-329061
-327236
-325456
-323723
-322033
-320386
-318780
-317214
-315685
-314194
-312739
-311318
-309931
-308576
-307252
-305959
-304695
-303460
-302252
-301071
-299916
-298786
-297680
-296598
-295539
-294502
-293487
-292493
-291519
-290565
-289630
-288714
-287816
-286936
-286072
-285226
-284395
-283580
-282781
-281996
-281226
-280470
-279726
-278997
-278279
-277573
-276883
-276206
-275538
-274883
-274238
-273605
-272982
-272369
-271766
-271173
-270590
-270016
-269451
-268895
-268347
-267809
-267278
-266756
-266241
-265735
-265235
-264744
-264259
-263782
-263311
-262847
-262389
-261938
-261493
-261054
-260621
-260194
-259772
-259357
-258946
-258542
-258139
-257750
-257350
-256986
-256566
-256269
-255654
-361769
-358079
-356054
-353276
-350998
-348564
-346312
-344062
-341904
-339789
-337737
-335736
-333789
-331891
-330042
-328240
-326484
-324771
-323100
-321470
-319880
-318328
-316812
-315333
-313887
-312476
-311096
-309748
-308430
-307142
-305882
-304650
-303445
-302265
-301111
-299981
-298875
-297793
-296732
-295693
-294676
-293679
-292701
-291744
-290804
-289883
-288980
-288094
-287225
-286372
-285535
-284713
-283907
-283114
-282336
-281572
-280820
-280082
-279359
-278647
-277948
-277261
-276585
-275921
-275267
-274624
-273992
-273370
-272757
-272155
-271562
-270978
-270404
-269838
-269281
-268732
-268192
-267660
-267135
-266618
-266109
-265607
-265112
-264624
-264143
-263669
-263201
-262739
-262284
-261834
-261392
-260953
-260523
-260094
-259679
-259253
-258864
-258418
-258098
-257457
-370012
-366121
-363956
-361014
-358591
-356008
-353616
-351227
-348935
-346688
-344509
-342384
-340316
-338300
-336337
-334423
-332557
-330738
-328963
-327232
-325543
-323894
-322285
-320713
-319178
-317678
-316213
-314781
-313381
-312013
-310675
-309366
-308085
-306832
-305606
-304406
-303231
-302081
-300955
-299851
-298770
-297711
-296673
-295656
-294658
-293680
-292720
-291779
-290856
-289950
-289060
-288187
-287331
-286489
-285662
-284851
-284053
-283270
-282501
-281745
-281002
-280272
-279554
-278848
-278154
-277471
-276799
-276139
-275488
-274848
-274219
-273599
-272989
-272388
-271796
-271213
-270639
-270074
-269517
-268968
-268427
-267894
-267369
-266851
-266340
-265836
-265339
-264849
-264366
-263889
-263418
-262953
-262497
-262041
-261601
-261149
-260735
-260264
-259920
-259254
-378221
-374129
-371826
-368719
-366152
-363421
-360888
-358361
-355936
-353558
-351253
-349004
-346815
-344683
-342605
-340579
-338605
-336680
-334802
-332970
-331182
-329437
-327734
-326071
-324446
-322859
-321308
-319793
-318312
-316863
-315447
-314061
-312706
-311380
-310082
-308812
-307569
-306352
-305159
-303992
-302848
-301727
-300628
-299551
-298495
-297460
-296444
-295448
-294471
-293512
-292571
-291647
-290740
-289850
-288975
-288116
-287272
-286443
-285629
-284829
-284043
-283270
-282510
-281763
-281029
-280306
-279595
-278896
-278208
-277531
-276864
-276208
-275563
-274927
-274301
-273684
-273077
-272479
-271889
-271308
-270736
-270172
-269616
-269068
-268527
-267994
-267469
-266950
-266439
-265934
-265437
-264945
-264462
-263980
-263514
-263036
-262598
-262102
-261733
-261043
-386392
-382101
-379659
-376389
-373678
-370800
-368128
-365464
-362905
-360398
-357966
-355594
-353286
-351036
-348845
-346708
-344626
-342595
-340614
-338682
-336796
-334956
-333159
-331404
-329691
-328017
-326381
-324782
-323220
-321692
-320198
-318736
-317306
-315908
-314539
-313199
-311887
-310603
-309345
-308114
-306907
-305725
-304566
-303430
-302316
-301223
-300152
-299101
-298070
-297059
-296066
-295091
-294135
-293195
-292273
-291367
-290477
-289603
-288744
-287900
-287070
-286255
-285454
-284666
-283891
-283128
-282379
-281641
-280915
-280201
-279498
-278806
-278125
-277455
-276794
-276144
-275503
-274872
-274251
-273638
-273035
-272440
-271853
-271275
-270705
-270143
-269589
-269042
-268503
-267971
-267446
-266927
-266418
-265910
-265418
-264916
-264452
-263931
-263539
-262825
-394525
-390035
-387456
-384023
-381170
-378145
-375334
-372532
-369842
-367205
-364648
-362153
-359726
-357360
-355055
-352808
-350618
-348482
-346399
-344367
-342384
-340448
-338558
-336713
-334911
-333150
-331430
-329748
-328105
-326498
-324926
-323389
-321885
-320414
-318973
-317564
-316184
-314834
-313511
-312216
-310947
-309703
-308484
-307290
-306118
-304969
-303842
-302737
-301653
-300589
-299545
-298520
-297513
-296525
-295555
-294602
-293666
-292747
-291844
-290956
-290083
-289226
-288383
-287554
-286739
-285937
-285149
-284373
-283610
-282859
-282120
-281392
-280676
-279970
-279276
-278592
-277918
-277255
-276601
-275957
-275322
-274697
-274080
-273472
-272873
-272282
-271699
-271124
-270557
-269998
-269446
-268901
-268365
-267832
-267314
-266786
-266298
-265752
-265336
-264598
-402616
-397929
-395213
-391619
-388623
-385452
-382503
-379565
-376743
-373978
-371295
-368679
-366133
-363651
-361234
-358877
-356580
-354340
-352155
-350023
-347943
-345913
-343930
-341995
-340104
-338257
-336453
-334689
-332965
-331279
-329631
-328019
-326441
-324897
-323386
-321908
-320460
-319044
-317657
-316298
-314967
-313663
-312384
-311130
-309901
-308696
-307514
-306355
-305217
-304101
-303006
-301931
-300875
-299839
-298821
-297822
-296840
-295875
-294928
-293997
-293081
-292182
-291297
-290428
-289573
-288732
-287905
-287092
-286291
-285503
-284728
-283965
-283213
-282474
-281745
-281028
-280322
-279626
-278940
-278264
-277599
-276942
-276296
-275658
-275029
-274410
-273798
-273196
-272601
-272014
-271436
-270864
-270302
-269743
-269200
-268647
-268135
-267564
-267125
-266362
-410665
-405782
-402930
-399175
-396037
-392721
-389635
-386561
-383608
-380715
-377908
-375170
-372506
-369910
-367380
-364915
-362511
-360167
-357880
-355650
-353473
-351348
-349274
-347249
-345271
-343338
-341450
-339604
-337800
-336036
-334311
-332624
-330972
-329357
-327774
-326227
-324709
-323231
-321778
-320358
-318965
-317601
-316263
-314951
-313665
-312404
-311167
-309954
-308763
-307595
-306449
-305324
-304219
-303135
-302070
-301024
-299997
-298987
-297996
-297021
-296064
-295122
-294197
-293287
-292392
-291513
-290647
-289796
-288958
-288134
-287323
-286524
-285738
-284964
-284202
-283451
-282712
-281984
-281266
-280559
-279863
-279176
-278500
-277833
-277175
-276526
-275887
-275256
-274634
-274021
-273416
-272817
-272230
-271645
-271077
-270499
-269961
-269366
-268903
-268118
-418670
-413591
-410603
-406688
-403410
-399950
-396727
-393518
-390435
-387414
-384484
-381626
-378845
-376134
-373493
-370918
-368409
-365961
-363574
-361245
-358972
-356754
-354588
-352474
-350408
-348390
-346419
-344492
-342608
-340767
-338966
-337204
-335480
-333793
-332141
-330526
-328941
-327398
-325881
-324398
-322943
-321518
-320121
-318751
-317408
-316091
-314799
-313533
-312290
-311070
-309873
-308698
-307545
-306413
-305301
-304209
-303136
-302082
-301047
-300029
-299029
-298046
-297080
-296130
-295196
-294277
-293374
-292485
-291610
-290750
-289903
-289069
-288248
-287440
-286645
-285861
-285089
-284329
-283580
-282842
-282115
-281398
-280691
-279995
-279308
-278631
-277964
-277306
-276656
-276016
-275384
-274760
-274146
-273536
-272943
-272339
-271778
-271158
-270672
-269863
-426627
-421354
-418232
-414158
-410740
-407136
-403778
-400435
-397222
-394075
-391022
-388044
-385146
-382321
-379569
-376887
-374272
-371722
-369234
-366808
-364440
-362128
-359872
-357668
-355516
-353414
-351359
-349351
-347389
-345470
-343593
-341757
-339959
-338201
-336474
-334794
-333121
-331534
-329951
-328412
-326896
-325412
-323956
-322529
-321129
-319757
-318411
-317091
-315795
-314524
-313277
-312053
-310851
-309672
-308513
-307375
-306257
-305159
-304080
-303020
-301977
-300953
-299946
-298956
-297983
-297026
-296085
-295159
-294247
-293351
-292468
-291599
-290744
-289902
-289073
-288257
-287453
-286660
-285880
-285111
-284353
-283606
-282870
-282145
-281430
-280724
-280029
-279343
-278667
-277999
-277341
-276691
-276051
-275416
-274797
-274170
-273584
-272940
-272430
-271599
-434536
-429070
-425814
-421582
-418025
-414278
-410785
-407309
-403968
-400695
-397520
-394422
-391408
-388471
-385609
-382819
-380099
-377447
-374860
-372336
-369874
-367470
-365123
-362831
-360593
-358406
-356269
-354181
-352140
-350144
-348193
-346283
-344416
-342586
-340796
-339043
-337322
-335660
-334013
-332407
-330829
-329284
-327769
-326284
-324828
-323400
-322000
-320627
-319280
-317958
-316661
-315388
-314138
-312911
-311705
-310522
-309359
-308217
-307094
-305992
-304907
-303842
-302793
-301765
-300752
-299758
-298779
-297816
-296868
-295936
-295018
-294114
-293225
-292349
-291487
-290638
-289802
-288978
-288166
-287366
-286578
-285802
-285036
-284282
-283538
-282804
-282081
-281368
-280664
-279970
-279286
-278610
-277945
-277284
-276641
-275989
-275378
-274711
-274177
-273324
-442395
-436737
-433348
-428959
-425264
-421375
-417748
-414139
-410670
-407272
-403976
-400760
-397631
-394581
-391610
-388713
-385890
-383136
-380450
-377830
-375273
-372777
-370340
-367961
-365637
-363366
-361148
-358980
-356861
-354790
-352764
-350782
-348843
-346943
-345073
-343257
-341331
-339740
-338029
-336372
-334735
-333131
-331558
-330015
-328503
-327021
-325567
-324141
-322742
-321370
-320023
-318701
-317403
-316129
-314878
-313649
-312442
-311256
-310091
-308946
-307819
-306713
-305624
-304556
-303505
-302472
-301456
-300456
-299473
-298504
-297551
-296613
-295690
-294781
-293886
-293004
-292135
-291280
-290437
-289607
-288789
-287983
-287188
-286405
-285632
-284871
-284120
-283380
-282649
-281929
-281219
-280517
-279826
-279140
-278473
-277796
-277162
-276470
-275913
-275038
-450201
-444353
-440831
-436287
-432454
-428424
-424664
-420924
-417328
-413806
-410389
-407055
-403812
-400651
-397571
-394568
-391641
-388787
-386003
-383287
-380636
-378049
-375523
-373056
-370647
-368294
-365994
-363747
-361551
-359403
-357304
-355249
-353242
-351271
-349356
-347440
-345633
-343848
-342058
-340321
-338619
-336952
-335321
-333721
-332154
-330617
-329109
-327631
-326181
-324758
-323362
-321992
-320647
-319326
-318029
-316755
-315504
-314275
-313066
-311878
-310708
-309562
-308424
-307326
-306236
-305168
-304115
-303079
-302060
-301056
-300068
-299096
-298139
-297196
-296268
-295354
-294454
-293567
-292694
-291833
-290985
-290149
-289326
-288514
-287713
-286924
-286146
-285378
-284621
-283874
-283138
-282410
-281695
-280984
-280292
-279591
-278933
-278218
-277638
-276740
-457953
-451915
-448263
-443563
-439594
-435425
-431532
-427661
-423939
-420294
-416757
-413307
-409950
-406678
-403490
-400382
-397353
-394398
-391517
-388705
-385962
-383284
-380669
-378116
-375623
-373187
-370807
-368481
-366208
-363986
-361815
-359690
-357626
-355587
-353680
-351667
-349355
-347886
-346120
-344241
-342488
-340749
-339060
-337402
-335779
-334187
-332627
-331097
-329596
-328123
-326678
-325260
-323868
-322501
-321158
-319840
-318545
-317273
-316023
-314795
-313585
-312400
-311225
-310079
-308954
-307846
-306757
-305684
-304629
-303590
-302568
-301561
-300570
-299594
-298634
-297688
-296756
-295838
-294934
-294043
-293166
-292301
-291448
-290608
-289779
-288962
-288157
-287362
-286579
-285806
-285044
-284291
-283551
-282815
-282098
-281373
-280691
-279953
-279350
-278431
-465648
-459423
-455640
-450787
-446683
-442374
-438350
-434350
-430503
-426735
-423079
-419513
-416043
-412661
-409366
-406154
-403023
-399969
-396991
-394085
-391249
-388481
-385778
-383139
-380562
-378044
-375584
-373180
-370830
-368532
-366286
-364090
-361942
-359842
-357788
-355796
-353798
-351824
-349967
-348102
-346291
-344508
-342764
-341053
-339376
-337732
-336119
-334538
-332986
-331464
-329970
-328504
-327065
-325652
-324265
-322903
-321565
-320250
-318959
-317687
-316432
-315203
-313921
-312808
-311647
-310506
-309382
-308272
-307181
-306106
-305049
-304009
-302984
-301976
-300983
-300005
-299042
-298093
-297158
-296238
-295330
-294436
-293555
-292686
-291830
-290986
-290153
-289332
-288523
-287724
-286936
-286158
-285393
-284633
-283892
-283143
-282437
-281676
-281049
-280109
-473286
-466874
-462962
-457956
-453718
-449271
-445117
-440988
-437017
-433127
-429354
-425673
-422091
-418600
-415198
-411883
-408650
-405498
-402424
-399424
-396497
-393639
-390849
-388125
-385464
-382865
-380325
-377843
-375417
-373045
-370726
-368457
-366237
-364064
-361923
-359847
-357659
-355809
-353854
-351954
-350081
-348243
-346443
-344677
-342946
-341249
-339585
-337952
-336351
-334779
-333237
-331724
-330238
-328780
-327348
-325942
-324561
-323205
-321873
-320565
-319277
-318029
-316753
-315507
-314332
-313143
-311985
-310838
-309712
-308603
-307511
-306437
-305380
-304338
-303313
-302304
-301310
-300330
-299366
-298415
-297479
-296556
-295646
-294749
-293866
-292994
-292135
-291287
-290451
-289627
-288814
-288011
-287220
-286436
-285671
-284898
-284169
-283385
-282735
-281775
-480863
-474266
-470226
-465069
-460697
-456114
-451831
-447574
-443479
-439470
-435579
-431784
-428091
-424491
-420984
-417566
-414233
-410983
-407813
-404720
-401703
-398756
-395880
-393071
-390327
-387647
-385028
-382469
-379968
-377522
-375130
-372791
-370501
-368263
-366067
-363925
-361808
-359756
-357745
-355774
-353843
-351949
-350093
-348273
-346488
-344739
-343023
-341340
-339689
-338068
-336479
-334918
-333387
-331883
-330408
-328958
-327538
-326138
-324780
-323420
-322170
-320783
-319366
-318236
-317078
-315779
-314589
-313391
-312229
-311082
-309956
-308847
-307757
-306683
-305626
-304585
-303560
-302550
-301556
-300576
-299610
-298658
-297721
-296796
-295885
-294986
-294100
-293227
-292365
-291515
-290677
-289849
-289034
-288225
-287436
-286640
-285888
-285081
-284408
-283427
-488379
-481599
-477431
-472124
-467620
-462901
-458490
-454106
-449889
-445760
-441753
-437845
-434042
-430335
-426723
-423203
-419771
-416424
-413160
-409974
-406868
-403832
-400870
-397976
-395151
-392391
-389694
-387058
-384481
-381962
-379498
-377088
-374729
-372422
-370156
-367949
-365759
-363665
-361588
-359563
-357574
-355624
-353713
-351839
-350002
-348200
-346433
-344700
-342999
-341331
-339693
-338086
-336509
-334960
-333439
-331946
-330479
-329037
-327623
-326225
-324863
-323492
-322190
-320919
-319625
-318368
-317130
-315912
-314715
-313536
-312377
-311236
-310113
-309008
-307919
-306847
-305792
-304752
-303727
-302718
-301724
-300744
-299778
-298826
-297888
-296962
-296050
-295150
-294263
-293387
-292524
-291671
-290832
-290000
-289187
-288368
-287592
-286762
-286066
-285066
-495831
-488869
-484575
-479119
-474484
-469631
-465092
-460583
-456245
-451997
-447875
-443855
-439942
-436128
-432413
-428791
-425261
-421817
-418460
-415183
-411987
-408864
-405817
-402840
-399933
-397094
-394319
-391607
-388957
-386365
-383830
-381351
-378925
-376552
-374227
-371954
-369723
-367547
-365413
-363324
-361276
-359270
-357304
-355376
-353485
-351632
-349814
-348031
-346282
-344565
-342881
-341227
-339605
-338011
-336447
-334910
-333402
-331918
-330462
-329026
-327613
-326225
-324793
-323532
-322220
-320934
-319665
-318414
-317183
-315971
-314779
-313605
-312450
-311313
-310193
-309090
-308004
-306935
-305881
-304843
-303820
-302812
-301818
-300839
-299873
-298921
-297983
-297057
-296144
-295243
-294356
-293478
-292615
-291759
-290923
-290080
-289281
-288429
-287711
-286690
-503218
-496075
-491657
-486053
-481288
-476301
-471637
-467003
-462544
-458179
-453943
-449811
-445791
-441871
-438053
-434331
-430703
-427164
-423715
-420347
-417070
-413854
-410722
-407662
-404674
-401755
-398904
-396117
-393393
-390729
-388124
-385576
-383082
-380643
-378253
-375918
-373625
-371390
-369196
-367050
-364945
-362884
-360862
-358881
-356939
-355034
-353165
-351333
-349535
-347771
-346040
-344341
-342673
-341035
-339427
-337848
-336296
-334772
-333274
-331801
-330353
-328929
-327530
-326164
-324812
-323486
-322179
-320894
-319629
-318384
-317159
-315953
-314766
-313597
-312446
-311313
-310197
-309098
-308015
-306948
-305897
-304861
-303840
-302833
-301841
-300863
-299898
-298947
-298009
-297083
-296171
-295269
-294382
-293502
-292643
-291777
-290956
-290082
-289340
-288300
-510537
-503216
-498673
-492923
-488030
-482911
-478121
-473364
-468787
-464305
-459956
-455714
-451586
-447562
-443642
-439820
-436095
-432461
-428918
-425460
-422093
-418796
-415579
-412438
-409371
-406375
-403447
-400585
-397788
-395054
-392379
-389763
-387203
-384699
-382247
-379849
-377499
-375200
-372948
-370743
-368582
-366465
-364389
-362355
-360360
-358405
-356486
-354605
-352759
-350948
-349170
-347426
-345713
-344032
-342381
-340759
-339166
-337601
-336062
-334550
-333062
-331603
-330158
-328758
-327371
-326011
-324670
-323351
-322052
-320775
-319517
-318279
-317060
-315861
-314679
-313516
-312370
-311242
-310130
-309034
-307955
-306891
-305843
-304810
-303791
-302787
-301796
-300820
-299856
-298906
-297969
-297044
-296133
-295230
-294347
-293459
-292615
-291718
-290955
-289896
-517788
-510290
-505624
-499729
-494708
-489458
-484545
-479666
-474970
-470373
-465912
-461561
-457326
-453199
-449177
-445257
-441435
-437709
-434076
-430531
-427117
-423693
-420392
-417169
-414022
-410950
-407946
-405012
-402142
-399337
-396594
-393910
-391285
-388716
-386201
-383741
-381331
-378973
-376663
-374400
-372184
-370012
-367883
-365796
-363750
-361744
-359776
-357846
-355953
-354095
-352271
-350482
-348725
-347000
-345306
-343643
-342009
-340403
-338826
-337275
-335751
-334254
-332781
-331337
-329914
-328516
-327139
-325786
-324454
-323143
-321853
-320583
-319333
-318103
-316891
-315698
-314522
-313365
-312224
-311101
-309994
-308902
-307827
-306767
-305722
-304692
-303676
-302674
-301686
-300712
-299751
-298801
-297867
-296940
-296035
-295124
-294257
-293340
-292553
-291476
-524968
-517294
-512507
-506468
-501321
-495942
-490906
-485906
-481093
-476382
-471810
-467351
-463011
-458781
-454659
-450642
-446724
-442904
-439176
-435535
-431999
-428546
-425153
-421856
-418629
-415481
-412402
-409395
-406454
-403579
-400768
-398018
-395327
-392695
-390118
-387596
-385127
-382709
-380342
-378023
-375751
-373524