/*--------------------------------*- C++ -*----------------------------------*\
| =========                 |                                                 |
| \\      /  F ield         | foam-extend: Open Source CFD                    |
|  \\    /   O peration     | Version:     4.1                                |
|   \\  /    A nd           | Web:         http://www.foam-extend.org         |
|    \\/     M anipulation  |                                                 |
\*---------------------------------------------------------------------------*/
FoamFile
{
    version     2.0;
    format      ascii;
    class       volScalarField;
    location    "1";
    object      epsilonEq;
}
// * * * * * * * * * * * * * * * * * * * * * * * * * * * * * * * * * * * * * //

dimensions      [0 0 0 0 0 0 0];

internalField   nonuniform List<scalar> 
100000
(
0.1401104690866386
0.2235919850947948
0.2023917652180837
0.08341168773873779
0.1238099716858262
0.1309931413883182
0.0809022216241783
0.152533859904482
0.143659131760347
0.09412148307749564
0.09158196399945745
0.1032913443965873
0.1057314049969388
0.09665827965496242
0.09279858486646141
0.08705533771400874
0.08382494486099801
0.07845048677959697
0.07769462320326086
0.07805737941557336
0.07718955802650686
0.07593764076760801
0.07634893777767235
0.07663244576377574
0.07688959400119301
0.07691898724513645
0.0772356099668447
0.07762754448368027
0.0780109664767543
0.07812451682231204
0.07761318135177885
0.07669979606098246
0.07610072171237017
0.0759778548735385
0.07585131406699916
0.07584905794565459
0.07596715081965308
0.07624992002979353
0.07683841144285475
0.07797907793578045
0.08039208281068586
0.08315550258034272
0.08577829803995281
0.086020309905722
0.08633957211902023
0.08498433754551535
0.08328551230979334
0.08142560867954521
0.08071922156438133
0.08049594197502406
0.0806199566536242
0.08077468684089349
0.08091199374688143
0.08104075016256175
0.08114881858221104
0.08125281098516514
0.08133406684148051
0.08140864380134431
0.08146937153621635
0.08151627823354173
0.08177760726638783
0.0818155807418348
0.0818275500257505
0.0817140305325962
0.08153218165589962
0.08134033191347373
0.0811401349929457
0.08094014657228496
0.08073742676799733
0.08053927504141019
0.08034105995687398
0.0801483176048499
0.07996370839989196
0.07978215044290936
0.07959062479861603
0.07957280233865165
0.07950720405610689
0.07950794861034147
0.0795158451773484
0.07938314745657903
0.07926241681031579
0.07914340716507146
0.07907202652981987
0.0790840477184747
0.07866164692622828
0.07808828902227129
0.07760244879106264
0.07714087446182921
0.07644995770202315
0.07393236538003535
0.07126636002275884
0.06994020999755875
0.06895366205890158
0.06792731503334011
0.06516258722873101
0.06170128655176525
0.05813567819981342
0.05468527113020284
0.05267505471522198
0.05219053777095541
0.1139924498732197
0.211075666652471
0.1736936338856244
0.1027791960199173
0.08641907240342875
0.1235169445293961
0.04884087985349293
0.1147033423089114
0.1637546367222353
0.08624733481947677
0.09706424133330599
0.09201457249716385
0.08389944835014422
0.08884236553287508
0.08852071140490851
0.08427571813760704
0.07957893591758081
0.07772078958149535
0.07812941668355113
0.08000239346587783
0.08051372986932877
0.08024991560450692
0.08004888820270148
0.07975539031657983
0.07938351871392466
0.07931184638852387
0.07966997788716465
0.07977686678305021
0.08003884856919451
0.08031249774298262
0.07968430608140295
0.07932151536373228
0.07963968742485518
0.07992658602436527
0.08016938505385703
0.08076093656048075
0.08130969119597324
0.08175562031187759
0.08216851647671689
0.08238885825828232
0.08290558526011578
0.0847646071630473
0.08815397399972272
0.09111441759094438
0.09373379289742573
0.09470181745763141
0.09436541358467218
0.09392716575129115
0.09310255298598147
0.09190135203033742
0.09067934194128417
0.08960996529164501
0.08888400085554966
0.08819800008250479
0.0875228292757812
0.08688387686017385
0.08626169078580256
0.08552802776806735
0.08465162364797746
0.08394111842063651
0.08352440304444624
0.08305005881479165
0.08232930062438423
0.08156672857285882
0.08089814054563342
0.08007737817248664
0.07909054538710705
0.07815568813879133
0.07727168434103605
0.07643451896544363
0.0756471711394552
0.07490796977009595
0.07421680544236067
0.07318821212878972
0.07211419852860897
0.07112547604221413
0.07007790041641444
0.06907406327898399
0.06811179578304809
0.06719000956324957
0.06632420377189099
0.06550175532807452
0.06468837942811775
0.06382555139280524
0.06300674858322387
0.06232208463409357
0.06172578245522184
0.06122789071006026
0.06083416961616619
0.06049498441271692
0.06014058670537047
0.06108398079511464
0.06205535822710551
0.06272876496168175
0.0627871977980112
0.06352396095783872
0.06480728748490705
0.06526560425414289
0.06450863282622829
0.06206503581774491
0.1367757811636327
0.2185674783943579
0.1539691696783492
0.1290325168794095
0.02183187315223223
0.1220894452103029
0.04000245530847883
0.09378434398484828
0.1687850655216943
0.1266227166807377
0.0868550432872567
0.09054091410874404
0.07946496386924058
0.076899135271268
0.08078574113030362
0.08450626943899417
0.0785947299723147
0.07530972428199641
0.07416998063491702
0.07536681513581045
0.07734413577411237
0.07768240223050804
0.07795331684534618
0.07832547632309458
0.07854097350512153
0.07894589160902392
0.07919935930741093
0.07926824858813608
0.07948519513007477
0.07954412263728645
0.0798172264413462
0.07993695291593365
0.08020315470079256
0.08213757698977074
0.08390294171835475
0.08435207945001844
0.08445951638397295
0.0842751114672452
0.08388776940103757
0.08349978606205481
0.08289094007269319
0.0825553248333398
0.08193383626741169
0.08277358481838319
0.0840465580907592
0.08551775480353262
0.08557697708067451
0.08490902594905028
0.08314945724172103
0.08102901121330594
0.0785469150159904
0.07586050655650686
0.07329157207809493
0.07097153254264471
0.06891776103366126
0.06672945454288828
0.06462037493804247
0.06261691313052553
0.06070731304644687
0.05886084494440381
0.05707897639081626
0.05610724477091161
0.05506968230766233
0.0536362149870066
0.05206175875152971
0.05060558538628376
0.04920830731880328
0.047853537834912
0.04656146429499381
0.04532522574860625
0.04414832412425432
0.04302900616998594
0.04199967549035543
0.04103754615832114
0.04002884837940356
0.03900800222024002
0.03805868176598626
0.03714976568443965
0.03627945939048422
0.03544588005427948
0.03464587650455056
0.03389430132548969
0.03315292653185248
0.03231708341332792
0.03018920719430312
0.02610423533623764
0.02209473340860734
0.01818596294028725
0.0144167154991794
0.01107737229163743
0.007835360587650352
0.006011969061275735
0.0065112624655444
0.005926477472395458
0.006335781346409548
0.00719016583557095
0.006467247137037562
0.005511135693612425
0.007520211166570955
0.02682034901759055
0.1593910349793604
0.2246500981174179
0.1387228202787076
0.1254870951404859
0.04278486906528335
0.1057698591896091
0.05370945986639172
0.08804550349044377
0.165137567133705
0.1594799372274369
0.07833376412241402
0.05090550660623528
0.08272638456722997
0.06546412690004044
0.06499706032109925
0.06768153769177226
0.06698442349042558
0.06425718260821997
0.06291417633205397
0.06482455915570492
0.06757828869203364
0.06775197953712563
0.06704254066036619
0.0663875305712384
0.06556652043599533
0.06444963456560678
0.06292303667963881
0.06206251219401674
0.0616978356751426
0.06132975122056634
0.06177661013941049
0.06181418023331491
0.06197314707086767
0.0621983585172586
0.06243822233341156
0.06227348052053934
0.06208298947583066
0.06191313389303576
0.06042598488111699
0.05900421546693812
0.05648177339295735
0.05418900648680044
0.05146671624657711
0.04913443285105473
0.04733606596817049
0.04703688231494047
0.04688458386323871
0.04656038377803837
0.04507495401667876
0.04355303574044237
0.04210331698549785
0.04061888557820435
0.0388123634136506
0.03705123900126922
0.03542062601939245
0.03324420729530054
0.03125183376979943
0.02943772446181438
0.02789816748486362
0.02626706688001341
0.0243339151531136
0.02309791339799743
0.02206723795938075
0.02120374621947445
0.02023833773590622
0.01945768814889064
0.01885746018837733
0.01827797495270321
0.01771946595796778
0.01717922850277424
0.01665458084133634
0.0142991357395423
0.00950093489494786
0.005544413270253058
0.003007293694624712
0.005555579768623932
0.0100066427552575
0.01442046896864073
0.01732750528973961
0.01987500608248671
0.02240322987949278
0.0249069843228657
0.0273538378332217
0.02992092293273965
0.03341745318132746
0.03597318430341807
0.03717203621899597
0.0385360117779442
0.0399939277801481
0.04155000261913636
0.04090984985956275
0.03924533970517742
0.03958796960245243
0.04007959304939252
0.03933959367428295
0.03781958534948695
0.03712141354953149
0.03542599712004185
0.03332735142077681
0.03497240361088918
0.1551697640590809
0.2482552510144448
0.150780622928305
0.1232601229846702
0.05338556022068172
0.0963901957158409
0.07232216461639064
0.08211725554142987
0.163869116563406
0.1463485258692805
0.1417033439801196
0.08655085471373057
0.008785095086652381
0.019985698711011
0.03838164339066817
0.04237330747269368
0.04489648085412828
0.04522665332841748
0.04406917277223091
0.04495529292549859
0.04528689535126196
0.04381985327837557
0.0429447257625265
0.04258829400688909
0.04227273083353458
0.04160442555521763
0.04082198693081698
0.03992252457057136
0.03950648208283274
0.03983004657201911
0.04110818648108303
0.04144771443895779
0.04172974869356851
0.03959424484738162
0.03658128830299826
0.03465009691754335
0.03235718676557885
0.03025194006582105
0.02831481731246057
0.02640351271748658
0.02449122523381389
0.02298632098122679
0.02168906780770913
0.02078073981222348
0.01975162049597993
0.01905734358645009
0.01961202124467739
0.02107073523494539
0.021804260509858
0.02217696086218098
0.02142085529411497
0.02063767844427414
0.01992358276513796
0.0191386200560793
0.0185144590366942
0.01806197397657529
0.02036157396625006
0.02455632273757532
0.02607264197564496
0.02582587003911028
0.02538483501274078
0.02483904890098685
0.02255497727918041
0.02075663468925604
0.01919979240765143
0.01816304780178833
0.01752914521702386
0.01684016059731377
0.01611188980551335
0.01535461762193163
0.01580615905335053
0.01937935433767327
0.02201645647403399
0.02204497860263165
0.02166972486650528
0.02089698625515274
0.02032489139036795
0.0181067348123695
0.01571779311878243
0.01473730839309089
0.01405571541460883
0.0132900022105914
0.01117236322190543
0.009899394737933867
0.008738230397931094
0.007376120419796048
0.0071181386251738
0.007456117377636387
0.007823090417653399
0.005084398460830268
0.003163218874888018
0.006914145779064647
0.008597304209053481
0.01041289794616578
0.01313222296684525
0.01416777601709924
0.01398823396458923
0.0136239422787979
0.013000759776593
0.01336011744031284
0.1239805230768286
0.27228777056739
0.1947267452360143
0.1270607444013922
0.09041349451072794
0.07056748227769542
0.1396880330620377
0.05414505832993502
0.1122484446679326
0.1249446303280124
0.1385924793077314
0.1626314018742222
0.1262169030811583
0.07041337783607114
0.03827585377030185
0.01664554457678818
0.01806150779047167
0.02419494497697255
0.02706454124241114
0.02934715206047269
0.03399553710835169
0.03893912076555582
0.04041215228954614
0.04176571235494082
0.04323765148815303
0.04354816596398518
0.04327069519483875
0.03840726768407601
0.0367495521569495
0.03642929795987634
0.03425665323567206
0.02956794451708972
0.02628370397053312
0.02402556322964816
0.02185176629184803
0.01997410678937006
0.01839483992459155
0.01686041153232389
0.01671136784287993
0.01684230841430987
0.01758487784309865
0.01833076338692037
0.02254947016048037
0.02506446078188111
0.02730635274391125
0.02942700538136464
0.0315083253818612
0.03376823632328706
0.03689392912137591
0.04027038650045831
0.04361960972591652
0.04650997594580408
0.0475216504720887
0.04790067641668719
0.04823544908352011
0.04869197110240517
0.0506542117164815
0.0527206628102516
0.05468811522625926
0.0566175371103553
0.0580622617655435
0.05962093341724105
0.05958321447136447
0.05862324701695829
0.05852475902839147
0.057882446482621
0.05566585989580764
0.0534924019087302
0.05127939684786482
0.04897022123705152
0.04652737592284416
0.04602985431299324
0.04824513149463321
0.05038938662639963
0.05246262009818647
0.05396635889273434
0.05536082645800536
0.05656833177838835
0.05621802529638213
0.05548949786341028
0.05473809071073119
0.05445619879855877
0.05439330948374228
0.05367073635741069
0.05294212186301504
0.0514742985493373
0.04946792458665678
0.04779819056721682
0.04624291656735953
0.0434473306910271
0.03905439870260118
0.03576940405727204
0.03371249009374849
0.03192111212040571
0.030330162103409
0.02788322883954559
0.025551686996119
0.02318036819245019
0.0220015385278388
0.02186544545557971
0.06336084839091127
0.2070502461680503
0.247814262318561
0.1659527869559586
0.1008602892523621
0.0201708034660474
0.1361736441285875
0.09200444457147955
0.04922413222197031
0.04694931390215485
0.04994638588101825
0.0712894879161288
0.09669857048668873
0.09498399325433811
0.1009977921587307
0.06000722140653512
0.03865837440006686
0.03425507960215746
0.02265934723711322
0.01484864794013748
0.009333255050897497
0.004264914137144483
0.005285319495665467
0.005932925580906109
0.008250900346747888
0.01118849444940545
0.01463349394511219
0.01339571551762865
0.004112343942964914
0.006283779139467642
0.010867779683041
0.01083260135861923
0.007611336461441336
0.006740710745702601
0.008452174988484005
0.01152483923513581
0.01545521594676207
0.01934067086594652
0.02303454530159975
0.02661766839481093
0.03078681478171226
0.03450024063413871
0.03792704666176641
0.04095873646368155
0.04329287012796523
0.04537497709712365
0.04632838284087019
0.04724573246222211
0.04897631736113178
0.05234288205210226
0.05371098134845198
0.05452429677534357
0.05526031133696716
0.05574356365292064
0.05464501923026163
0.05222969350877853
0.04659811344027091
0.03916317159516665
0.03545574001091607
0.0339705780860167
0.03251449541714664
0.03129291591950611
0.03273240726314759
0.03387996031115524
0.03494971235640236
0.0359577914880986
0.03648688126648159
0.03646346990871444
0.03690463510947809
0.03786117891613891
0.03843300792435531
0.03828040837084436
0.03810227622131954
0.03791051709210701
0.03776303630574877
0.03783836173210099
0.03816320290928022
0.03842658401691124
0.03867283793629345
0.03890412490159508
0.03708995178024525
0.03535441056863124
0.03593355387751736
0.03655593038815796
0.0372090267278172
0.03808785208106966
0.03867574794556165
0.03912024633328585
0.03971264738848018
0.04034996403360423
0.03652583038449203
0.03213831105638066
0.02850707683494376
0.02861430176899826
0.02895781857784875
0.02922919439603309
0.02933613226722451
0.0294465321402344
0.031184362925824
0.03373525399346444
0.1522044303580674
0.2212729003321229
0.2314992272564729
0.1847713635781677
0.09883205209945577
0.03915074327548476
0.09275476846413608
0.08536296338865487
0.0238407959178643
0.06483782331595832
0.04926739686933233
0.0374275876985204
0.0353905376355813
0.03659312849261998
0.05298864813634897
0.0503206064080765
0.02142606630224101
0.02278623601506444
0.03239651743497424
0.03691746218302227
0.04148311386445277
0.04476570953671073
0.04426106160774759
0.04183128196250821
0.03597731096989166
0.03085968630252742
0.02849034291242116
0.02338776476559053
0.02223490385558284
0.01605126659667544
0.009942288631517616
0.004143717472386638
0.004426342258840448
0.008187883840942481
0.01227149664917571
0.01619344682531431
0.01849013902821351
0.01998931021330578
0.02067561898671482
0.02132960633503336
0.02180911188066893
0.02203491944405447
0.01959138176586472
0.01524800553280198
0.01097324731812506
0.006905815989968791
0.003376215630654868
0.002234022819961875
0.005316892605230699
0.009207615029240199
0.01387568106752992
0.01756424497775595
0.01933779309981721
0.01926457712687902
0.01995243173982048
0.01997107714514199
0.02063540106471634
0.02249856922762118
0.02435784328264753
0.02674649408445246
0.02910683351765669
0.03134537202421813
0.03180207770707171
0.03094532325066278
0.03095046364031092
0.02996819481949979
0.02737125183396108
0.0247026816636458
0.02194736395468479
0.01938486230330395
0.01701267074413145
0.01471248045496788
0.01248543034844713
0.01034509487507181
0.009347274852792097
0.008827902119330785
0.008025875832904476
0.007307030120150206
0.00664203956105606
0.007888802510826449
0.01007257537388288
0.009979551147094754
0.00990460511874844
0.009888326153596796
0.009922867025141419
0.01021349767797748
0.01062535196750055
0.01087325123408359
0.01102033135321411
0.01119061600190064
0.0117941955230289
0.01214375393755863
0.007504922223727696
0.003757464707546775
0.003603238117027124
0.003493722488638216
0.006841273745046434
0.01037130339578935
0.01446138368841243
0.02278961267674572
0.2364611306952701
0.2541995570822867
0.21074477339245
0.176472512031864
0.09280290463948017
0.06406016109968096
0.02703231888211879
0.09986364427006403
0.02323773436790829
0.07825379455765212
0.08426911633117901
0.07684850098257007
0.0678057917982508
0.05890123727567707
0.05785077819831903
0.05236477007156264
0.02067896373549994
0.006950550640054825
0.01389362566866431
0.009900554382671083
0.007743694953820939
0.0057476129030509
0.00359123241837018
0.004759048438397627
0.006420220088177689
0.004346337929936101
0.00331939267677228
0.001416222236341878
0.007726246475385907
0.01646202249961086
0.01831364150608478
0.01721275928989087
0.01529035542126377
0.01303783041160862
0.009906738848865806
0.006611572300819797
0.003250880661943205
0.0009578600593018486
0.007480576276324351
0.01456679908790628
0.02154520629123789
0.02812430067908159
0.03387322525017075
0.03941001473870336
0.04335268365449616
0.04714717416562891
0.05026567812037468
0.05398122036691681
0.05633089727493274
0.05955725115298139
0.05991835902305791
0.0597043307996622
0.0592787315341427
0.05902701747783658
0.0576211324845845
0.05523539620084117
0.05320320364092043
0.05138253120769481
0.05029321879957301
0.05095977939436479
0.05219538050763966
0.0534416899293618
0.05506505657146822
0.0567147148743458
0.05815337728245271
0.05963991938895379
0.06127720611020242
0.06226022180434675
0.06360117052879417
0.06553811660102278
0.06747996912333938
0.06942887525720962
0.0713792680886179
0.07341943837294708
0.07430995707034173
0.07281731391656908
0.07145893270241782
0.06987840334075608
0.06832693044579066
0.06678822077559206
0.06320704194287942
0.05964352457009662
0.05614930504026693
0.05273763938108988
0.04937000277756454
0.04603501065766783
0.04262932191539754
0.03932685093510757
0.03607031464063149
0.03178541636630267
0.02799595043056897
0.02482997167638559
0.02103803611977278
0.0196486881954012
0.01926099301987916
0.01960494946819026
0.02093699529319084
0.0201908484376763
0.02124687400258506
0.02503487860875377
0.1603484643411442
0.1957245455691927
0.2077090073494017
0.167680884091294
0.15185116973223
0.07586123942793221
0.03607220917481825
0.06980507382974954
0.05715208318695045
0.04771633727064669
0.08742145475578539
0.08716729765380281
0.08739597431734757
0.08433353247917079
0.08430708998532081
0.08832775327600827
0.07504084690915525
0.05618732996863719
0.03227720021739541
0.008552407235550728
0.01341046393782555
0.01505366780207681
0.0126065292773443
0.009521462618166516
0.00134197518731113
0.01337236685230271
0.02205846472968855
0.0319493116234713
0.03686781343211981
0.04005615464191425
0.0440957518131074
0.0458498324340169
0.04746407193409821
0.05254559997828155
0.06029953213733329
0.06807277521142535
0.07446306841764049
0.08049149538191734
0.08595501677996994
0.0906436560037459
0.0954204325653142
0.1001164107566821
0.1045846157911012
0.1049930151576174
0.1032296075372019
0.1011785020279184
0.09937613366701295
0.09752876331087715
0.09569475644903963
0.09417256343734715
0.09287438832220199
0.0916929494417212
0.09062179784247507
0.09169910391921456
0.09304183353546537
0.09478318501326183
0.09609608669182614
0.09566356380134469
0.09548213768745284
0.09413740903957228
0.09033394599764977
0.08660694364068115
0.08427301646717737
0.08287705072453114
0.0813478872917692
0.08044217218814101
0.0794148604834958
0.07834119142885529
0.07756330192313264
0.07699823843143624
0.07580054954218969
0.07462273856504786
0.07346156547147283
0.07209019846168628
0.06936265839617096
0.06619056778362564
0.06337914885884734
0.06058886248250566
0.05762199765412371
0.05467875089766015
0.05176099347494748
0.04886853336804863
0.04585470584966424
0.04202986774995258
0.03813383576194188
0.03427155773237878
0.03043655712024739
0.02654784802415142
0.02292001356076762
0.01960753245787335
0.01916597172077023
0.01860852917212776
0.01798408430223547
0.0178396948761612
0.01758773649861266
0.01767464165339882
0.02111670130677439
0.0244307460114154
0.02735879492362238
0.02978097967489318
0.09214592984672137
0.1495523214905594
0.1774096030994076
0.1750113178390985
0.1648694616545381
0.1698362310362095
0.1188366562863048
0.0758204655863759
0.06688321223778053
0.02674361348433894
0.05865371768239136
0.07768835974682491
0.08519215317926876
0.08897824894136774
0.08554574121560769
0.08633416696475595
0.07858132756123998
0.07164746944152232
0.07009166180631309
0.06699431082370633
0.05997712589522267
0.04852751868519556
0.04085176647881883
0.03923183255266168
0.05437720637444798
0.0686130282952138
0.07683623223043259
0.08357514638193
0.08763272574348781
0.09890985284713064
0.1092181924941057
0.1189304082774977
0.1277161880580262
0.1360658444005234
0.1408439183703706
0.1455609974819388
0.1501076902812973
0.1544358504293254
0.1545280563091715
0.1551428897229014
0.1541049344361474
0.1517649994709959
0.1484908334550646
0.1427592860727524
0.1372101076483723
0.1320159338679458
0.1269556383448593
0.1213744697745735
0.1173147650358404
0.1142096618922949
0.1111092068791829
0.1080051812766852
0.1049019041785539
0.1018020581108817
0.09873476149902187
0.09566762940547358
0.09258855826963715
0.08951325063181639
0.08629068788981122
0.08169410548037886
0.07684018348830979
0.07210979785158583
0.067486902531503
0.06320155723718006
0.05924033520702109
0.0561542353904514
0.05297781019055739
0.05049080825274131
0.04819527949358049
0.04583992537087737
0.04347906969749474
0.04115571900533626
0.03826306365015581
0.03454270548536896
0.03173971990993336
0.03126705390302514
0.03082284959614625
0.03063422629911613
0.03036794906697004
0.02993499186315036
0.02950162261593835
0.02905468566870435
0.02857212360898196
0.02812700669073084
0.02765964502622258
0.02718202705702448
0.02669374516868052
0.02562692984303565
0.0244480416993246
0.0234742806171679
0.02249325981726451
0.02150178931015687
0.02018961315501825
0.01939377563199365
0.01860255790299344
0.01790062891246821
0.01724827198409031
0.01657180567709734
0.0158769403536343
0.01471828090724626
0.08419414491918366
0.1515383375470045
0.1596271455627307
0.1425818420452326
0.08314434210893434
0.09635847938042187
0.2113683012770098
0.1700168651560245
0.120496920165391
0.1110687446650161
0.04960427143660256
0.03395740612889957
0.03668577886509206
0.04640493119881487
0.05526822164270918
0.06170888946859627
0.0579527153434048
0.05188967165373315
0.06326120209842599
0.07460154111299286
0.08514607732751917
0.07812083141288677
0.06452081258590021
0.05638000584257588
0.05310748882851676
0.06021210586354842
0.07139735524437067
0.07775294460149536
0.08592866311822957
0.09475284121946702
0.1011906271538395
0.10982480833495
0.1181124916816247
0.1222203416594656
0.1233713210564387
0.1246935578177936
0.1254998746643
0.1213031943655998
0.1167803849526943
0.1121617096329116
0.1073994565768557
0.1026944378861505
0.09689509006143598
0.09136917248880126
0.08804345447732191
0.08514598817733597
0.08224406074849995
0.07932486528025338
0.07640596980768807
0.07347971576091207
0.07054634308527456
0.0675881503434354
0.06463102691902874
0.06166541283601965
0.05866414159495754
0.05539262582365346
0.05213794436364332
0.04889401209893186
0.04565870330542365
0.04380440021864457
0.04438173873693411
0.04489856805121047
0.04398800887783409
0.04314871689429238
0.04190828034681657
0.04017930782961294
0.0384712874192559
0.03708694503786086
0.03644656392378428
0.03563907589692741
0.03547537108718594
0.03522644857897377
0.03492108034098877
0.0347071852623029
0.03444458722753667
0.03340638356254143
0.03204427240107311
0.0305788736799306
0.02931604703684778
0.02805231014172525
0.02640872084236924
0.02373139573683635
0.02094444892563651
0.01895674212035922
0.01698717708991795
0.015114533391552
0.01370827369111969
0.01234537954975619
0.0106842425488871
0.009166966132830787
0.007785466605483971
0.006552598528392774
0.006116094230399049
0.005541129704331574
0.004631768674966146
0.003908638203262486
0.00359895627873627
0.003694286013554895
0.004049102509899652
0.00838899441831535
0.08074050908619551
0.1496166479073986
0.1535448918071468
0.1229994996719835
0.06403567414518951
0.04187032215489499
0.1159811081915905
0.2437811868965315
0.194297778197943
0.1559119362751775
0.1405413787567762
0.07780247167822604
0.06367381932179901
0.0586439107745888
0.04915185103877714
0.04218641174362233
0.03027755693764577
0.02197452133606306
0.03762991984589972
0.04214790188710113
0.04000899486633604
0.04282446587867279
0.05377238412742927
0.05547764274879228
0.04897582350205423
0.05835082665603297
0.05775491052983175
0.06005327545616945
0.06395376836559299
0.06572055917927491
0.06736148053258938
0.06871233584301298
0.07000979104274177
0.0710839136773445
0.06985344049214948
0.06793268114173656
0.06424970690027554
0.0606793148417593
0.05735538161181033
0.05372984505410638
0.05189725398090613
0.05103318003455098
0.0488147041794827
0.04923990653798997
0.04965197856419576
0.05001096981063178
0.05004601838101905
0.0500709889968429
0.05002037124873502
0.04991736194683766
0.04980450333022021
0.04969639256359244
0.04959192463934335
0.04947960095700749
0.04927933913460805
0.04811915915709945
0.04696932579461006
0.04583217894692631
0.04470240714449217
0.04358156240311989
0.04247824398813087
0.04138241593125022
0.04029652156419422
0.03918894541199835
0.03786125037840984
0.03534183540436193
0.03250105642785418
0.02974378625179621
0.02709519091000784
0.02443797550247411
0.02081344049108346
0.01773304212554897
0.01523201052305393
0.01357305907072253
0.01222082241723492
0.01098314843030704
0.009815970096954313
0.008264087462209333
0.006346372537727367
0.005250399797184399
0.005420849974712181
0.006336594690811054
0.006299914608208345
0.006206006959616926
0.006430564003836551
0.006563114193481492
0.007252165074416244
0.008170997024317755
0.00904629372524542
0.01014716787028227
0.01114293462917242
0.01220837524696702
0.01260813328900223
0.01291794385289852
0.01309002633840913
0.01326923396288951
0.01346252892978633
0.01373239256633706
0.01422134442757206
0.01639009007225552
0.07248475635535502
0.1456434254625349
0.1493328849691389
0.09232086091690996
0.04700480451090551
0.05392781555967238
0.057142924385789
0.1239846599987091
0.2153573959841568
0.2009546419334596
0.1802365380723886
0.1445404250924368
0.07912634692291119
0.06736925059863745
0.06162960648034661
0.03763847264628516
0.006453893033668983
0.01245032947911444
0.006219367002241001
0.01025675310103967
0.0277963535650983
0.044095774055339
0.06115163093371369
0.07698959378824262
0.08796010088617411
0.0739157602193921
0.0646621730067465
0.05527067281225414
0.04550474100578956
0.04691110473622192
0.04871904030990375
0.04607147321098846
0.04347634558295295
0.03834507701269722
0.03340716456605366
0.03035059141347464
0.02773786861820914
0.02985988591229784
0.03231199548554767
0.03454762680688735
0.03659664398444552
0.03790324984937792
0.03934479295250103
0.04088973376454659
0.04236832552475451
0.04355679125740481
0.0436439207332253
0.04348406034890562
0.04244711478222692
0.04131111556184666
0.04016374440124738
0.03901270203678246
0.03780585764889908
0.03649958392188032
0.03515687375190907
0.03385050992021032
0.03252312360593659
0.03110977106520794
0.02892206444397926
0.02628385307456658
0.02363331326215169
0.02097413398937074
0.01830362619343297
0.01555635721334386
0.01375501886868093
0.01256869908537973
0.01048681791727218
0.007933544855290273
0.004849263118283807
0.004147045180145836
0.005528483927489194
0.007431673218305284
0.0101079940779132
0.01272881694723737
0.0146034721458792
0.01543989247960039
0.01609238029882543
0.01674314498637084
0.01705010955806601
0.01715977145496881
0.01766929006386832
0.01745048245878367
0.01703128179853593
0.01665168434323923
0.01627125779765866
0.01613015927182509
0.01643676416952093
0.01675381142032191
0.0173904355716497
0.01823308930687297
0.0191402755225928
0.01995729133831217
0.02091320036703795
0.02184803649823964
0.02289591865894506
0.02396754201373956
0.02497397019177675
0.02572766162953592
0.02714958948269423
0.02991185224390111
0.07144837347420314
0.1498167005654432
0.1271685089713276
0.07522977455919364
0.05074062844674425
0.06293164120184638
0.07345995917085885
0.02971759498283699
0.06592354282093491
0.1101510782476687
0.1316539771226584
0.1435487304814993
0.117729649337293
0.08453105385669782
0.05245969052067254
0.02898304358735586
0.02005292623608343
0.004167743846407208
0.01501468718122529
0.03460812713484506
0.05184214021763644
0.06681051401364682
0.07326797468678969
0.07774308134748269
0.08146403955057277
0.08644579084236398
0.08370028149554583
0.07071297094441567
0.05880277030883881
0.04513030837263329
0.03048277601678281
0.02315229651217498
0.01981658082621052
0.0169871315306558
0.0167324415404025
0.01670317640837514
0.0168333630148762
0.01644033704724876
0.01603408117135469
0.01558128631567078
0.01470114441895795
0.01237065918417887
0.01109112228783881
0.01082626874621301
0.01029403965374154
0.009168848603184869
0.00807830877809745
0.007066928237260794
0.006161417046404155
0.005157653844334869
0.004036021503442043
0.002818754146308704
0.001689946634636991
0.00131564256044275
0.00224962002756942
0.002844620612656795
0.003671209571510706
0.005042958234698369
0.006974272079309702
0.008624478073821565
0.01005465461005115
0.0115606410186776
0.01316524703142926
0.01485160480646752
0.01625010844280171
0.01739121509339785
0.0181927424247472