/*--------------------------------*- C++ -*----------------------------------*\
| =========                 |                                                 |
| \\      /  F ield         | foam-extend: Open Source CFD                    |
|  \\    /   O peration     | Version:     4.1                                |
|   \\  /    A nd           | Web:         http://www.foam-extend.org         |
|    \\/     M anipulation  |                                                 |
\*---------------------------------------------------------------------------*/
FoamFile
{
    version     2.0;
    format      ascii;
    class       vectorField;
    location    "1";
    object      residualD_iteration18;
}
// * * * * * * * * * * * * * * * * * * * * * * * * * * * * * * * * * * * * * //


1000
(
(0.00348794 -0.00384783 0)
(0.00303082 -0.0034311 0)
(0.00267384 -0.0031011 0)
(0.00241624 -0.0028663 0)
(0.00222474 -0.00267907 0)
(0.00206972 -0.00252961 0)
(0.00195002 -0.00240275 0)
(0.00185725 -0.0022849 0)
(0.00176509 -0.00218576 0)
(0.00174875 -0.00209348 0)
(0.00311791 -0.00418933 0)
(0.00262705 -0.00383569 0)
(0.00225525 -0.00354362 0)
(0.0019895 -0.00332994 0)
(0.00180562 -0.00315319 0)
(0.00166268 -0.00301094 0)
(0.00155394 -0.00288904 0)
(0.0014706 -0.00277471 0)
(0.00139977 -0.00268277 0)
(0.00138121 -0.00258113 0)
(0.0027453 -0.00451725 0)
(0.00224481 -0.00423481 0)
(0.00188053 -0.00398591 0)
(0.00161606 -0.00380167 0)
(0.00143209 -0.00364236 0)
(0.00129525 -0.00351357 0)
(0.00119134 -0.00340079 0)
(0.00110884 -0.00329591 0)
(0.00104119 -0.00321209 0)
(0.00101179 -0.00312247 0)
(0.00237934 -0.00482118 0)
(0.00187676 -0.00461585 0)
(0.00152606 -0.00441514 0)
(0.00127608 -0.00426423 0)
(0.00109896 -0.00412529 0)
(0.00096562 -0.00401236 0)
(0.000870149 -0.00391108 0)
(0.000790322 -0.00381763 0)
(0.000727625 -0.00374244 0)
(0.000688397 -0.00366355 0)
(0.00199835 -0.00509899 0)
(0.00153007 -0.00497141 0)
(0.00121078 -0.00481937 0)
(0.000976697 -0.00470333 0)
(0.000810342 -0.00458745 0)
(0.000691421 -0.00448949 0)
(0.000606757 -0.00439943 0)
(0.000533093 -0.00431651 0)
(0.000471311 -0.00424873 0)
(0.000427843 -0.00417904 0)
(0.00163459 -0.00534143 0)
(0.00120925 -0.00528831 0)
(0.000922176 -0.00518201 0)
(0.000719643 -0.00509701 0)
(0.000577355 -0.0050024 0)
(0.000477919 -0.0049185 0)
(0.000399917 -0.00484015 0)
(0.000331502 -0.00476806 0)
(0.000274278 -0.00470768 0)
(0.000233482 -0.00464606 0)
(0.00126402 -0.00554424 0)
(0.000912397 -0.00555631 0)
(0.000675756 -0.00548949 0)
(0.0005124 -0.00543023 0)
(0.000395539 -0.00535437 0)
(0.000312564 -0.00528444 0)
(0.000244957 -0.00521755 0)
(0.000186983 -0.00515427 0)
(0.000139989 -0.00509907 0)
(0.000105991 -0.00504392 0)
(0.000895861 -0.00569986 0)
(0.000638856 -0.00576415 0)
(0.000462182 -0.00573121 0)
(0.000338591 -0.00569593 0)
(0.00024885 -0.00563431 0)
(0.000185302 -0.00557513 0)
(0.00013534 -0.00551518 0)
(9.42549e-05 -0.00545875 0)
(6.10611e-05 -0.00540762 0)
(3.60124e-05 -0.00535776 0)
(0.00053833 -0.00580553 0)
(0.000378319 -0.00590755 0)
(0.000264539 -0.00589989 0)
(0.000189032 -0.00587885 0)
(0.000136594 -0.00582751 0)
(9.92908e-05 -0.00577774 0)
(6.61561e-05 -0.0057225 0)
(3.79515e-05 -0.00566816 0)
(1.81926e-05 -0.00561841 0)
(3.52665e-06 -0.00557254 0)
(0.000179386 -0.00585912 0)
(0.000123229 -0.00598015 0)
(8.89988e-05 -0.00598534 0)
(6.40321e-05 -0.00597382 0)
(4.15645e-05 -0.00592758 0)
(2.88823e-05 -0.00588015 0)
(2.17671e-05 -0.00582872 0)
(1.25415e-05 -0.00577757 0)
(3.98989e-06 -0.00572809 0)
(-1.32361e-06 -0.00568302 0)
(0.00595008 -0.000180295 0)
(0.00605229 -0.000126128 0)
(0.00607417 -8.74709e-05 0)
(0.00605136 -6.18953e-05 0)
(0.00600544 -4.36979e-05 0)
(0.00595848 -2.89092e-05 0)
(0.00590343 -1.83719e-05 0)
(0.00585838 -1.34383e-05 0)
(0.00580686 -5.3472e-06 0)
(0.00576157 3.09412e-06 0)
(0.00590086 -0.000537157 0)
(0.0059777 -0.000377212 0)
(0.00598283 -0.000266576 0)
(0.00595657 -0.000187762 0)
(0.00590728 -0.000132771 0)
(0.00586201 -9.83454e-05 0)
(0.00580303 -6.72745e-05 0)
(0.0057537 -4.15659e-05 0)
(0.00570421 -1.85067e-05 0)
(0.00565739 3.11383e-07 0)
(0.00578506 -0.000899855 0)
(0.0058289 -0.000636775 0)
(0.00580621 -0.000458473 0)
(0.00576682 -0.000340157 0)
(0.00570707 -0.000251753 0)
(0.0056501 -0.000188655 0)
(0.005591 -0.000137244 0)
(0.00553551 -9.76105e-05 0)
(0.00548659 -6.2641e-05 0)
(0.00543596 -3.02781e-05 0)
(0.00561494 -0.00126444 0)
(0.00561229 -0.000915917 0)
(0.00555625 -0.000672663 0)
(0.00549262 -0.000512059 0)
(0.0054219 -0.000395974 0)
(0.00535237 -0.000312984 0)
(0.00528669 -0.000247145 0)
(0.00522104 -0.000193476 0)
(0.00516996 -0.000146539 0)
(0.00511109 -0.00010164 0)
(0.00539959 -0.00163321 0)
(0.00533142 -0.00121646 0)
(0.00523672 -0.000921833 0)
(0.00514741 -0.000724694 0)
(0.00505909 -0.000583305 0)
(0.00497614 -0.000481579 0)
(0.00490297 -0.000402085 0)
(0.00482974 -0.000336864 0)
(0.0047736 -0.000280583 0)
(0.00470127 -0.000226248 0)
(0.00514784 -0.0020042 0)
(0.00500618 -0.00153833 0)
(0.00486195 -0.00120607 0)
(0.00474028 -0.000982361 0)
(0.0046336 -0.00081997 0)
(0.00453713 -0.000703256 0)
(0.00445041 -0.00061314 0)
(0.00436764 -0.000539918 0)
(0.00430391 -0.000474523 0)
(0.00421729 -0.000411541 0)
(0.0048555 -0.00237567 0)
(0.00464164 -0.00188099 0)
(0.00445089 -0.00152404 0)
(0.00429339 -0.00128259 0)
(0.00416509 -0.00110712 0)
(0.00405069 -0.000979522 0)
(0.00394839 -0.000881569 0)
(0.00385432 -0.000804303 0)
(0.00378175 -0.000733744 0)
(0.00367871 -0.000666361 0)
(0.00454262 -0.00275004 0)
(0.00425289 -0.00224472 0)
(0.00401206 -0.00187679 0)
(0.00382078 -0.00162638 0)
(0.00366706 -0.00144355 0)
(0.00353467 -0.00130854 0)
(0.00341967 -0.00120524 0)
(0.0033136 -0.00112627 0)
(0.00322971 -0.00105219 0)
(0.00311268 -0.000985435 0)
(0.00420736 -0.0031221 0)
(0.00384706 -0.00262867 0)
(0.00355948 -0.00225993 0)
(0.00333836 -0.00200807 0)
(0.00316192 -0.00182163 0)
(0.00301809 -0.00168341 0)
(0.00289519 -0.00157736 0)
(0.00278093 -0.00149827 0)
(0.00268583 -0.00142812 0)
(0.00256346 -0.00137438 0)
(0.0038552 -0.00348796 0)
(0.00343072 -0.0030253 0)
(0.00310524 -0.0026701 0)
(0.00286186 -0.00242218 0)
(0.00267335 -0.00223371 0)
(0.00251888 -0.00209219 0)
(0.00238287 -0.00197854 0)
(0.0022596 -0.0018918 0)
(0.00214378 -0.00181382 0)
(0.00203478 -0.00175989 0)
(0.00572403 7.59219e-06 0)
(0.00568843 1.31774e-05 0)
(0.00565568 1.66669e-05 0)
(0.00562816 1.9381e-05 0)
(0.00560558 2.24862e-05 0)
(0.00558219 2.56882e-05 0)
(0.0055612 2.79471e-05 0)
(0.00554488 3.12226e-05 0)
(0.00552689 3.71032e-05 0)
(0.00550495 4.38767e-05 0)
(0.00548245 5.02907e-05 0)
(0.00545912 5.65389e-05 0)
(0.00543407 6.33451e-05 0)
(0.00540618 7.16787e-05 0)
(0.00537346 8.19947e-05 0)
(0.00533365 9.39444e-05 0)
(0.00528531 0.000107197 0)
(0.0052253 0.000122328 0)
(0.00515321 0.000140493 0)
(0.00505781 0.000161364 0)
(0.00562547 1.35576e-05 0)
(0.00560061 3.20102e-05 0)
(0.00557744 4.3947e-05 0)
(0.00555444 5.30846e-05 0)
(0.00553442 6.09922e-05 0)
(0.00551667 7.03517e-05 0)
(0.00550012 8.17524e-05 0)
(0.00548429 9.54993e-05 0)
(0.00546686 0.000111104 0)
(0.0054488 0.000126886 0)
(0.00543102 0.00014423 0)
(0.00541022 0.000164761 0)
(0.00538482 0.000188533 0)
(0.00535507 0.000215317 0)
(0.00532019 0.00024523 0)
(0.0052781 0.000278858 0)
(0.00522828 0.00031738 0)
(0.005168 0.000362757 0)
(0.00509502 0.000417565 0)
(0.00500482 0.000480398 0)
(0.00541528 -2.91408e-06 0)
(0.00540787 3.10421e-05 0)
(0.00540186 5.30585e-05 0)
(0.00539947 7.16581e-05 0)
(0.00539513 8.89813e-05 0)
(0.00538467 0.000107585 0)
(0.00537193 0.000127907 0)
(0.00536243 0.000149917 0)
(0.00535135 0.000173803 0)
(0.00533929 0.000199781 0)
(0.0053251 0.000230639 0)
(0.00530638 0.000267273 0)
(0.00528409 0.000308238 0)
(0.00525923 0.000352982 0)
(0.00522991 0.00040271 0)
(0.00519237 0.000459133 0)
(0.00514481 0.000524195 0)
(0.00508389 0.000600107 0)
(0.00500981 0.000690771 0)
(0.00491668 0.00079309 0)
(0.00510802 -5.76069e-05 0)
(0.00513339 -4.99347e-06 0)
(0.00515364 3.04395e-05 0)
(0.00516972 6.15921e-05 0)
(0.00517919 9.2347e-05 0)
(0.00518364 0.000124013 0)
(0.00518396 0.000155679 0)
(0.00518554 0.000188737 0)
(0.00517965 0.000224013 0)
(0.00516958 0.000262736 0)
(0.00515746 0.000307329 0)
(0.00514254 0.000358142 0)
(0.00512521 0.000414027 0)
(0.00510438 0.000475769 0)
(0.00507761 0.000546034 0)
(0.00504308 0.000626789 0)
(0.00499813 0.000720273 0)
(0.00494024 0.00082755 0)
(0.00487305 0.000953744 0)
(0.00478461 0.00109616 0)
(0.00471452 -0.000163039 0)
(0.00477197 -8.66697e-05 0)
(0.00482186 -3.00576e-05 0)
(0.00486641 2.00993e-05 0)
(0.00489894 6.76625e-05 0)
(0.00492288 0.000114907 0)
(0.00493782 0.000160259 0)
(0.00494901 0.000207668 0)
(0.00495454 0.000256949 0)
(0.00495607 0.000309201 0)
(0.0049521 0.000367564 0)
(0.0049416 0.000433211 0)
(0.00492646 0.000505443 0)
(0.00490678 0.00058548 0)
(0.00488053 0.000676347 0)
(0.00484802 0.000780344 0)
(0.00480554 0.000900531 0)
(0.00475257 0.00103838 0)
(0.00468773 0.00119905 0)
(0.00460584 0.00138256 0)
(0.00425326 -0.000326091 0)
(0.00435253 -0.000221879 0)
(0.00443491 -0.00013832 0)
(0.00450366 -6.25283e-05 0)
(0.00455565 8.08299e-06 0)
(0.00459465 7.66949e-05 0)
(0.00463226 0.000139964 0)
(0.00465825 0.000202191 0)
(0.00467465 0.000266322 0)
(0.00468451 0.000334259 0)
(0.00468671 0.00040936 0)
(0.00468151 0.000492277 0)
(0.00467136 0.000581835 0)
(0.00465725 0.000679783 0)
(0.00463722 0.00078998 0)
(0.00460941 0.000916019 0)
(0.00457071 0.00106109 0)
(0.00452415 0.00122898 0)
(0.00446276 0.0014245 0)
(0.00438628 0.00164814 0)
(0.00373087 -0.000555277 0)
(0.00386742 -0.000417604 0)
(0.0039846 -0.000299919 0)
(0.00408117 -0.000193251 0)
(0.00416403 -9.55004e-05 0)
(0.00422431 -5.06137e-06 0)
(0.00428216 8.01154e-05 0)
(0.00432652 0.00016283 0)
(0.00435699 0.000247119 0)
(0.00437513 0.000334909 0)
(0.00438321 0.000429067 0)
(0.00438464 0.000529664 0)
(0.00438145 0.000636105 0)
(0.00437302 0.00075155 0)
(0.004358 0.000881102 0)
(0.00433346 0.00102973 0)
(0.00429784 0.00120012 0)
(0.00425334 0.00139736 0)
(0.00419762 0.00162715 0)
(0.00412725 0.00188986 0)
(0.0031803 -0.000847108 0)
(0.00335507 -0.000673108 0)
(0.00350947 -0.000514198 0)
(0.00363589 -0.00037069 0)
(0.00374288 -0.000239347 0)
(0.00383127 -0.000120716 0)
(0.00390269 -1.06257e-05 0)
(0.0039588 9.60918e-05 0)
(0.00400095 0.000203189 0)
(0.00402951 0.000312592 0)
(0.00404771 0.000426248 0)
(0.0040586 0.000544324 0)
(0.00406315 0.000667921 0)
(0.00405961 0.000801708 0)
(0.00404694 0.000951517 0)
(0.00402291 0.00112288 0)
(0.00399008 0.00131832 0)
(0.003946 0.00154385 0)
(0.00389344 0.00180522 0)
(0.00382861 0.00210368 0)
(0.00262318 -0.00120519 0)
(0.00282214 -0.000989949 0)
(0.00299813 -0.000788853 0)
(0.00314923 -0.000605044 0)
(0.00327591 -0.000438574 0)
(0.00338804 -0.000285528 0)
(0.00347965 -0.00014418 0)
(0.00355383 -8.93185e-06 0)
(0.00361073 0.000124118 0)
(0.00365258 0.000257511 0)
(0.00368357 0.000392721 0)
(0.00370515 0.000530844 0)
(0.00371675 0.000674654 0)
(0.00371701 0.000829515 0)
(0.00370575 0.00100139 0)
(0.00368126 0.00119597 0)
(0.003649 0.00141559 0)
(0.00360717 0.00166785 0)
(0.00355608 0.00195851 0)
(0.00349473 0.00228821 0)
(0.00206725 -0.00160411 0)
(0.00226008 -0.0013621 0)
(0.00243834 -0.00111864 0)
(0.00260428 -0.000888628 0)
(0.00275394 -0.000680451 0)
(0.00288353 -0.000489344 0)
(0.00299597 -0.000313624 0)
(0.0030903 -0.000147657 0)
(0.00316461 1.36145e-05 0)
(0.00322247 0.000172621 0)
(0.00326785 0.000331034 0)
(0.00330118 0.000491293 0)
(0.00332126 0.000657402 0)
(0.00332788 0.00083482 0)
(0.00332196 0.00102958 0)
(0.00330233 0.00124727 0)
(0.00327353 0.00149052 0)
(0.00323626 0.00176743 0)
(0.00318942 0.00208481 0)
(0.00313382 0.00243983 0)
(0.00181976 -0.00184693 0)
(0.00194108 -0.00162488 0)
(0.00207546 -0.00137485 0)
(0.00221251 -0.0011299 0)
(0.00234904 -0.000898315 0)
(0.00247384 -0.000681087 0)
(0.00258756 -0.00047824 0)
(0.00268483 -0.000285004 0)
(0.00276395 -9.75042e-05 0)
(0.00282838 8.55846e-05 0)
(0.00288016 0.00026656 0)
(0.00291827 0.000449179 0)
(0.00294136 0.000637877 0)
(0.00295082 0.000837382 0)
(0.00294815 0.00105383 0)
(0.00293282 0.00129203 0)
(0.00290961 0.00155579 0)
(0.00287653 0.00185139 0)
(0.00283561 0.00218687 0)
(0.00278983 0.00255552 0)
(0.00160306 -0.00194876 0)
(0.00171339 -0.00172745 0)
(0.00184212 -0.00148806 0)
(0.00196682 -0.00124765 0)
(0.00208449 -0.00101241 0)
(0.00219605 -0.000785685 0)
(0.00229676 -0.000568681 0)
(0.0023836 -0.000358484 0)
(0.00245596 -0.000153584 0)
(0.00251592 4.66891e-05 0)
(0.00256354 0.00024517 0)
(0.00259696 0.000445999 0)
(0.00261545 0.000653105 0)
(0.00262178 0.000870313 0)
(0.00261693 0.00110378 0)
(0.0026 0.00135643 0)
(0.00257785 0.00163403 0)
(0.00254603 0.0019405 0)
(0.00250974 0.00228395 0)
(0.0024723 0.00265611 0)
(0.00133146 -0.00210278 0)
(0.00144978 -0.00185758 0)
(0.00156965 -0.00160701 0)
(0.0016844 -0.00135708 0)
(0.00179086 -0.00111273 0)
(0.00189208 -0.000875764 0)
(0.00198244 -0.000646075 0)
(0.00206208 -0.000421862 0)
(0.00213008 -0.000202431 0)
(0.00218685 1.30577e-05 0)
(0.00223149 0.000227692 0)
(0.00226187 0.000445415 0)
(0.0022778 0.000669172 0)
(0.00228282 0.000902062 0)
(0.00227774 0.00115048 0)
(0.00226185 0.00141556 0)
(0.00224091 0.00170423 0)
(0.00221249 0.00201878 0)
(0.00218332 0.0023677 0)
(0.00215212 0.0027425 0)
(0.00105988 -0.00224548 0)
(0.00118119 -0.00198409 0)
(0.00129851 -0.00172371 0)
(0.00140507 -0.001465 0)
(0.00150527 -0.00121131 0)
(0.00159697 -0.000963577 0)
(0.00167877 -0.000721561 0)
(0.00175185 -0.000484483 0)
(0.00181426 -0.000251535 0)
(0.00186581 -2.14128e-05 0)
(0.00190562 0.000208991 0)
(0.00193173 0.000443049 0)
(0.00194415 0.000682425 0)
(0.00194659 0.00092962 0)
(0.0019396 0.00119118 0)
(0.00192431 0.00146711 0)
(0.00190414 0.00176525 0)
(0.00187816 0.00208607 0)
(0.00185378 0.00243929 0)
(0.00182383 0.00281633 0)
(0.000808131 -0.0023838 0)
(0.000922882 -0.00210621 0)
(0.00103591 -0.00183213 0)
(0.00113513 -0.00156305 0)
(0.0012275 -0.00129925 0)
(0.00130975 -0.00104087 0)
(0.00138382 -0.000788043 0)
(0.00144975 -0.000539696 0)
(0.00150482 -0.000294314 0)
(0.00154902 -5.0583e-05 0)
(0.00158194 0.000194357 0)
(0.00160244 0.000443272 0)
(0.00161057 0.000696547 0)
(0.00160997 0.000956397 0)
(0.00160082 0.00122925 0)
(0.00158477 0.00151418 0)
(0.0015654 0.00181989 0)
(0.00154159 0.0021457 0)
(0.00151828 0.0025019 0)
(0.00148959 0.00287902 0)
(0.000578753 -0.00251262 0)
(0.000683878 -0.00222336 0)
(0.00078533 -0.00193747 0)
(0.0008762 -0.00165692 0)
(0.000957031 -0.00138185 0)
(0.00102947 -0.00111275 0)
(0.00109504 -0.000849544 0)
(0.00115208 -0.000589901 0)
(0.00119815 -0.000332126 0)
(0.00123368 -7.53543e-05 0)
(0.0012588 0.000182969 0)
(0.00127342 0.000445159 0)
(0.00127753 0.00071047 0)
(0.00127429 0.000981246 0)
(0.00126413 0.00126361 0)
(0.00124767 0.00155638 0)
(0.00122897 0.00186819 0)
(0.00120682 0.00219808 0)
(0.0011825 0.00255569 0)
(0.0011603 0.00293021 0)
(0.000366972 -0.00262587 0)
(0.000458533 -0.00232718 0)
(0.000545035 -0.00203146 0)
(0.000623382 -0.00174061 0)
(0.000692134 -0.0014554 0)
(0.000755046 -0.00117706 0)
(0.000811268 -0.000904235 0)
(0.000858545 -0.000633467 0)
(0.000895343 -0.00036376 0)
(0.000922417 -9.49375e-05 0)
(0.000940152 0.000175242 0)
(0.000949465 0.000448825 0)
(0.000950351 0.000724301 0)
(0.000945057 0.0010046 0)
(0.000933808 0.00129478 0)
(0.000917173 0.00159412 0)
(0.000898682 0.00191101 0)
(0.000876909 0.00224361 0)
(0.000853242 0.00260036 0)
(0.000840262 0.00297 0)
(0.00016806 -0.00272309 0)
(0.000239874 -0.00241814 0)
(0.000311721 -0.00211436 0)
(0.000375708 -0.00181482 0)
(0.000433782 -0.0015211 0)
(0.000486839 -0.00123446 0)
(0.000532906 -0.0009521 0)
(0.000570125 -0.000670286 0)
(0.000598082 -0.000389206 0)
(0.00061741 -0.000109335 0)
(0.000628321 0.000171288 0)
(0.00063247 0.000454503 0)
(0.000629964 0.000738382 0)
(0.000622416 0.00102692 0)
(0.000609035 0.00132391 0)
(0.00059105 0.00162868 0)
(0.000571319 0.00194953 0)
(0.00054875 0.00228298 0)
(0.0005292 0.00263677 0)
(0.000519631 0.00300015 0)
(-1.99837e-05 -0.00280271 0)
(3.15241e-05 -0.00249441 0)
(8.73306e-05 -0.00218521 0)
(0.000137577 -0.00187933 0)
(0.000184244 -0.00157868 0)
(0.000225352 -0.00128412 0)
(0.000259756 -0.00099232 0)
(0.000285817 -0.000700013 0)
(0.000304615 -0.000408545 0)
(0.000316172 -0.000118869 0)
(0.000320459 0.00017086 0)
(0.000319388 0.000462316 0)
(0.00031288 0.000753374 0)
(0.000302344 0.00104891 0)
(0.000286352 0.00135182 0)
(0.000266294 0.00166109 0)
(0.000244834 0.00198444 0)
(0.000222466 0.00231706 0)
(0.000207725 0.00266679 0)
(0.000194972 0.00302341 0)
(-0.000200436 -0.00286596 0)
(-0.000166181 -0.00255604 0)
(-0.000127917 -0.00224377 0)
(-9.17764e-05 -0.00193323 0)
(-5.97009e-05 -0.00162624 0)
(-3.31666e-05 -0.00132384 0)
(-1.17116e-05 -0.00102331 0)
(2.25846e-06 -0.000721835 0)
(1.2007e-05 -0.00042157 0)
(1.62255e-05 -0.000123749 0)
(1.49716e-05 0.000173646 0)
(9.67133e-06 0.000472098 0)
(-3.52417e-07 0.000769416 0)
(-1.37894e-05 0.0010709 0)
(-3.17522e-05 0.00137883 0)
(-5.32278e-05 0.00169157 0)
(-7.48548e-05 0.00201585 0)
(-9.46134e-05 0.00234669 0)
(-0.000109076 0.00269193 0)
(-0.000120612 0.00304184 0)
(-0.000372843 -0.00291341 0)
(-0.000355662 -0.0026031 0)
(-0.000335647 -0.00228899 0)
(-0.000316361 -0.00197444 0)
(-0.000301558 -0.00166152 0)
(-0.000290387 -0.00135223 0)
(-0.000281193 -0.00104457 0)
(-0.000278463 -0.000735937 0)
(-0.000276458 -0.000428816 0)
(-0.000278613 -0.000124609 0)
(-0.000284465 0.000179194 0)
(-0.000293541 0.000483755 0)
(-0.000307163 0.000786651 0)
(-0.000323997 0.00109313 0)
(-0.000344327 0.001405 0)
(-0.000367252 0.00171981 0)
(-0.00038821 0.00204373 0)
(-0.000405894 0.00237211 0)
(-0.000424219 0.00271198 0)
(-0.000427015 0.00305412 0)
(-0.000539869 -0.00294554 0)
(-0.000541459 -0.00263547 0)
(-0.000540297 -0.00231977 0)
(-0.000539699 -0.00200164 0)
(-0.000541686 -0.00168408 0)
(-0.000544323 -0.00136987 0)
(-0.000545608 -0.00105684 0)
(-0.000552855 -0.000742776 0)
(-0.00055883 -0.000430268 0)
(-0.000568256 -0.000121087 0)
(-0.000580199 0.000187941 0)
(-0.000594733 0.000497692 0)
(-0.000613415 0.000805434 0)
(-0.000634724 0.00111605 0)
(-0.000658281 0.00143077 0)
(-0.00068287 0.0017463 0)
(-0.000703921 0.00206909 0)
(-0.000723235 0.00239409 0)
(-0.000740651 0.00272766 0)
(-0.000740207 0.00305969 0)
(-0.000711056 -0.00296388 0)
(-0.000731849 -0.0026537 0)
(-0.000749211 -0.00233629 0)
(-0.0007656 -0.00201561 0)
(-0.000781976 -0.00169517 0)
(-0.000797102 -0.00137788 0)
(-0.000809371 -0.00106079 0)
(-0.000826351 -0.000742581 0)
(-0.000842216 -0.000425847 0)
(-0.00085995 -0.00011278 0)
(-0.000878704 0.000200452 0)
(-0.000898535 0.000514453 0)
(-0.00092086 0.000826128 0)
(-0.000944516 0.00113999 0)
(-0.000969216 0.00145654 0)
(-0.000993863 0.00177204 0)
(-0.00101532 0.00209291 0)
(-0.00103702 0.00241326 0)
(-0.00104632 0.00273959 0)
(-0.00104999 0.00306198 0)
(-0.000894313 -0.00296966 0)
(-0.000932932 -0.00265874 0)
(-0.000967134 -0.00234018 0)
(-0.000997817 -0.00201825 0)
(-0.00102776 -0.00169609 0)
(-0.00105511 -0.00137687 0)
(-0.00108021 -0.00105692 0)
(-0.00110468 -0.000735568 0)
(-0.00112876 -0.0004156 0)
(-0.00115232 -9.96307e-05 0)
(-0.00117554 0.000216375 0)
(-0.00119919 0.000533047 0)
(-0.00122433 0.000847191 0)
(-0.00124978 0.0011631 0)
(-0.00127496 0.00148052 0)
(-0.00129974 0.00179556 0)
(-0.00132191 0.00211359 0)
(-0.00134117 0.00242837 0)
(-0.00134808 0.00274562 0)
(-0.00134841 0.00305982 0)
(-0.00109185 -0.00296359 0)
(-0.00114565 -0.00265203 0)
(-0.00119506 -0.00233322 0)
(-0.00123904 -0.00201101 0)
(-0.00128248 -0.00168791 0)
(-0.00131915 -0.00136741 0)
(-0.00135556 -0.00104609 0)
(-0.0013861 -0.000722816 0)
(-0.00141753 -0.000401025 0)
(-0.00144862 -8.32411e-05 0)
(-0.00147818 0.000234713 0)
(-0.00150657 0.000553433 0)
(-0.00153487 0.000869385 0)
(-0.00156203 0.00118647 0)
(-0.00158719 0.00150403 0)
(-0.00161191 0.00181787 0)
(-0.00163378 0.00213232 0)
(-0.00164677 0.00244152 0)
(-0.00165976 0.00274968 0)
(-0.00165448 0.00305295 0)
(-0.00130265 -0.00294642 0)
(-0.00137125 -0.00263544 0)
(-0.00143509 -0.0023172 0)
(-0.00149112 -0.00199515 0)
(-0.00154598 -0.00167188 0)
(-0.001592 -0.00135032 0)
(-0.00163879 -0.00102877 0)
(-0.00167947 -0.000704748 0)
(-0.00171647 -0.000382027 0)
(-0.00175047 -6.35742e-05 0)
(-0.00178211 0.000255032 0)
(-0.00181181 0.000574664 0)
(-0.00184045 0.000891299 0)
(-0.00186681 0.00120828 0)
(-0.00189063 0.00152525 0)
(-0.00191388 0.00183763 0)
(-0.00193224 0.00214878 0)
(-0.00194325 0.00245126 0)
(-0.00195438 0.00275095 0)
(-0.00195421 0.0030425 0)
(-0.00152992 -0.00291943 0)
(-0.00161612 -0.00260862 0)
(-0.00169198 -0.00229299 0)
(-0.00175837 -0.0019721 0)
(-0.00182143 -0.00164931 0)
(-0.00187821 -0.00132759 0)
(-0.00192954 -0.00100601 0)
(-0.00197687 -0.000682938 0)
(-0.00201949 -0.000361121 0)
(-0.0020575 -4.29672e-05 0)
(-0.00209158 0.000275528 0)
(-0.00212188 0.000594627 0)
(-0.00214955 0.000910613 0)
(-0.00217352 0.00122771 0)
(-0.00219423 0.00154478 0)
(-0.0022137 0.00185474 0)
(-0.0022268 0.00216137 0)
(-0.00224179 0.00245919 0)
(-0.00224353 0.00275181 0)
(-0.00224479 0.00302883 0)
(-0.00178867 -0.00288357 0)
(-0.00188176 -0.00257418 0)
(-0.00196646 -0.00226189 0)
(-0.00204579 -0.00194274 0)
(-0.00211746 -0.00162038 0)
(-0.00218136 -0.00130037 0)
(-0.00223736 -0.000980375 0)
(-0.00228757 -0.000658205 0)
(-0.00233172 -0.000337727 0)
(-0.0023709 -2.19996e-05 0)
(-0.00240537 0.000294272 0)
(-0.00243401 0.000613015 0)
(-0.00245827 0.000929009 0)
(-0.00247885 0.00124391 0)
(-0.00249563 0.00155815 0)
(-0.00250806 0.00186843 0)
(-0.00251441 0.00217448 0)
(-0.00252635 0.00246702 0)
(-0.00253125 0.00274991 0)
(-0.00252948 0.0030155 0)
(-0.00207429 -0.00283971 0)
(-0.00217564 -0.00253444 0)
(-0.00227184 -0.00222519 0)
(-0.00235788 -0.0019083 0)
(-0.00243606 -0.00158868 0)
(-0.00250324 -0.00127055 0)
(-0.00256144 -0.000953408 0)
(-0.00261268 -0.000634879 0)
(-0.0026569 -0.000317331 0)
(-0.00269411 -2.8084e-06 0)
(-0.00272511 0.000312073 0)
(-0.00275086 0.000627073 0)
(-0.00277211 0.000939686 0)
(-0.00278652 0.00125535 0)
(-0.00279451 0.00156956 0)
(-0.00280044 0.0018754 0)
(-0.00280451 0.00218005 0)
(-0.00279821 0.00247353 0)
(-0.0027988 0.00274993 0)
(-0.00279789 0.00300134 0)
(-0.00239106 -0.00278962 0)
(-0.00250252 -0.00248842 0)
(-0.0026054 -0.00218304 0)
(-0.00269609 -0.00186991 0)
(-0.00277442 -0.00155502 0)
(-0.00284171 -0.00124231 0)
(-0.00289959 -0.000929278 0)
(-0.00294875 -0.000613178 0)
(-0.00298969 -0.000298764 0)
(-0.00302422 1.04354e-05 0)
(-0.00305249 0.000321573 0)
(-0.00307272 0.000636642 0)
(-0.00308786 0.000947 0)
(-0.00309787 0.00125685 0)
(-0.00309729 0.00156986 0)
(-0.00309144 0.00187601 0)
(-0.00308606 0.00217932 0)
(-0.00306752 0.00247133 0)
(-0.00305279 0.0027465 0)
(-0.00303366 0.00298512 0)
(-1.06708e-05 -0.00564583 0)
(-2.5417e-05 -0.00554022 0)
(-1.27704e-05 -0.00533535 0)
(3.46962e-05 -0.0050352 0)
(0.00013793 -0.00465477 0)
(0.000306158 -0.00420569 0)
(0.000543294 -0.00370621 0)
(0.00085013 -0.00317536 0)
(0.00120457 -0.00263774 0)
(0.00161797 -0.00212578 0)
(-2.09923e-05 -0.00560062 0)
(-5.97046e-05 -0.00550473 0)
(-7.00779e-05 -0.00531819 0)
(-4.92696e-05 -0.00504316 0)
(2.1131e-05 -0.0046946 0)
(0.000155001 -0.00428137 0)
(0.000353042 -0.00381924 0)
(0.000622646 -0.00332086 0)
(0.000948096 -0.00281158 0)
(0.00134517 -0.00228963 0)
(-2.53202e-05 -0.00555577 0)
(-7.5968e-05 -0.00546793 0)
(-0.000102066 -0.00529836 0)
(-9.66482e-05 -0.00504875 0)
(-5.18813e-05 -0.0047308 0)
(5.03539e-05 -0.00435271 0)
(0.000210357 -0.00392708 0)
(0.000433648 -0.00346389 0)
(0.000715217 -0.00298308 0)
(0.00106739 -0.00246457 0)
(-2.89677e-05 -0.00551341 0)
(-8.53498e-05 -0.00543377 0)
(-0.000126442 -0.00527913 0)
(-0.0001343 -0.00505125 0)
(-0.000110082 -0.0047598 0)
(-3.57606e-05 -0.00441269 0)
(9.05208e-05 -0.00401718 0)
(0.000271709 -0.00358326 0)
(0.000508739 -0.0031259 0)
(0.000810908 -0.00262307 0)
(-3.42638e-05 -0.00547335 0)
(-9.5074e-05 -0.00539929 0)
(-0.000146988 -0.00525719 0)
(-0.000167064 -0.00504867 0)
(-0.000159362 -0.00478091 0)
(-0.000109126 -0.00445959 0)
(-1.29586e-05 -0.00409066 0)
(0.000131916 -0.0036851 0)
(0.000328001 -0.00325075 0)
(0.00058334 -0.00276696 0)
(-3.67298e-05 -0.00543487 0)
(-0.000104394 -0.00536665 0)
(-0.000163447 -0.00523552 0)
(-0.000195923 -0.00504204 0)
(-0.000202759 -0.00479399 0)
(-0.000175453 -0.00449518 0)
(-0.000104721 -0.00414967 0)
(9.21568e-06 -0.00376923 0)
(0.000168626 -0.0033577 0)
(0.000381147 -0.00289514 0)
(-3.81085e-05 -0.00539886 0)
(-0.000112814 -0.00533488 0)
(-0.00017809 -0.00521325 0)
(-0.000223814 -0.00503323 0)
(-0.000242305 -0.0048016 0)
(-0.000234373 -0.00452221 0)
(-0.000187855 -0.00419736 0)
(-0.000101459 -0.00383811 0)
(2.56166e-05 -0.00344683 0)
(0.000198869 -0.00300445 0)
(-4.2758e-05 -0.00536496 0)
(-0.000121727 -0.00530424 0)
(-0.000192907 -0.00519016 0)
(-0.000251156 -0.00502123 0)
(-0.000281916 -0.00480313 0)
(-0.00028938 -0.00454038 0)
(-0.000264283 -0.00423296 0)
(-0.000204461 -0.00389133 0)
(-0.000107959 -0.00351789 0)
(2.85121e-05 -0.00309499 0)
(-4.83978e-05 -0.00533208 0)
(-0.000131624 -0.00527501 0)
(-0.000210394 -0.00516705 0)
(-0.000279179 -0.00500687 0)
(-0.000322857 -0.00479972 0)
(-0.000345992 -0.00455076 0)
(-0.00033953 -0.00425748 0)
(-0.000303708 -0.00392977 0)
(-0.000235371 -0.00357134 0)
(-0.000132481 -0.00316692 0)
(-5.12656e-05 -0.00530011 0)
(-0.000142464 -0.00524619 0)
(-0.000230793 -0.00514276 0)
(-0.000310008 -0.00498977 0)
(-0.000365554 -0.00479128 0)
(-0.000405101 -0.00455296 0)
(-0.000416325 -0.00427116 0)
(-0.000401796 -0.00395494 0)
(-0.000358198 -0.0036097 0)
(-0.000283851 -0.00322244 0)
(-5.29484e-05 -0.00526941 0)
(-0.000156897 -0.00521675 0)
(-0.000254875 -0.00511646 0)
(-0.000345741 -0.00496976 0)
(-0.000412922 -0.00477808 0)
(-0.000468032 -0.0045476 0)
(-0.000496548 -0.00427544 0)
(-0.000500724 -0.00396948 0)
(-0.000477997 -0.00363577 0)
(-0.000427379 -0.00326296 0)
(-5.7226e-05 -0.00523824 0)
(-0.000176723 -0.00518549 0)
(-0.000284051 -0.00508765 0)
(-0.000387864 -0.00494631 0)
(-0.000468339 -0.00476005 0)
(-0.000537563 -0.00453565 0)
(-0.000582549 -0.00427196 0)
(-0.000603347 -0.00397538 0)
(-0.000599182 -0.00365108 0)
(-0.000570648 -0.00328956 0)
(-6.47478e-05 -0.00520408 0)
(-0.000199986 -0.00515181 0)
(-0.000318026 -0.00505645 0)
(-0.000435648 -0.00491921 0)
(-0.0005318 -0.00473743 0)
(-0.000614752 -0.0045184 0)
(-0.000675505 -0.00426231 0)
(-0.000712861 -0.00397348 0)
(-0.000728302 -0.00365595 0)
(-0.000722407 -0.00330349 0)
(-7.31296e-05 -0.00516598 0)
(-0.00022337 -0.00511558 0)
(-0.000355466 -0.00502266 0)
(-0.000487697 -0.00488833 0)
(-0.000601352 -0.00471064 0)
(-0.000699344 -0.00449674 0)
(-0.000776303 -0.00424686 0)
(-0.00083256 -0.00396312 0)
(-0.000869433 -0.00365018 0)
(-0.000884942 -0.00330506 0)
(-8.08727e-05 -0.00512442 0)
(-0.000246573 -0.00507634 0)
(-0.000396837 -0.00498536 0)
(-0.00054514 -0.00485311 0)
(-0.000677256 -0.00467931 0)
(-0.000792347 -0.00447002 0)
(-0.000887504 -0.00422446 0)
(-0.000965461 -0.00394396 0)
(-0.00102236 -0.00363439 0)
(-0.00105899 -0.00329495 0)
(-8.90109e-05 -0.00507919 0)
(-0.000272705 -0.00503265 0)
(-0.000444539 -0.00494294 0)
(-0.000611082 -0.0048126 0)
(-0.000762561 -0.00464268 0)
(-0.000896875 -0.00443724 0)
(-0.00101393 -0.00419415 0)
(-0.00111507 -0.00391601 0)
(-0.00119126 -0.00360888 0)
(-0.00125168 -0.00327395 0)
(-9.9501e-05 -0.00502837 0)
(-0.000304901 -0.00498238 0)
(-0.000500388 -0.00489384 0)
(-0.000687787 -0.00476577 0)
(-0.000861302 -0.00459902 0)
(-0.001018 -0.00439624 0)
(-0.00115893 -0.0041553 0)
(-0.00128099 -0.00387933 0)
(-0.00138017 -0.00357463 0)
(-0.00145987 -0.00324397 0)
(-0.00011304 -0.00496825 0)
(-0.00034377 -0.0049229 0)
(-0.000565179 -0.00483616 0)
(-0.000776124 -0.00471052 0)
(-0.000973887 -0.00454668 0)
(-0.00115689 -0.00434622 0)
(-0.00132313 -0.00410794 0)
(-0.0014675 -0.00383396 0)
(-0.00159508 -0.00353124 0)
(-0.00169473 -0.00320509 0)
(-0.0001293 -0.00489808 0)
(-0.000388787 -0.00485349 0)
(-0.000639521 -0.00476922 0)
(-0.000880472 -0.00464628 0)
(-0.00110801 -0.00448458 0)
(-0.00132076 -0.00428678 0)
(-0.00151402 -0.00405229 0)
(-0.00168691 -0.00378179 0)
(-0.00183507 -0.00348096 0)
(-0.00195952 -0.00315757 0)
(-0.000147215 -0.00480958 0)
(-0.000439792 -0.0047672 0)
(-0.000722822 -0.00468531 0)
(-0.000996218 -0.00456513 0)
(-0.0012586 -0.00440715 0)
(-0.00150577 -0.00421334 0)
(-0.00173055 -0.00398353 0)
(-0.00194134 -0.00371832 0)
(-0.00211583 -0.00342171 0)
(-0.00226702 -0.0031034 0)
)


// ************************************************************************* //
