/*--------------------------------*- C++ -*----------------------------------*\
| =========                 |                                                 |
| \\      /  F ield         | foam-extend: Open Source CFD                    |
|  \\    /   O peration     | Version:     4.1                                |
|   \\  /    A nd           | Web:         http://www.foam-extend.org         |
|    \\/     M anipulation  |                                                 |
\*---------------------------------------------------------------------------*/
FoamFile
{
    version     2.0;
    format      ascii;
    class       vectorField;
    location    "1";
    object      residualD_iteration7;
}
// * * * * * * * * * * * * * * * * * * * * * * * * * * * * * * * * * * * * * //


1000
(
(0.0116112 -0.0100759 0)
(0.0101057 -0.00903284 0)
(0.00904333 -0.00823577 0)
(0.00827448 -0.00770362 0)
(0.00771509 -0.00732361 0)
(0.00730458 -0.00705828 0)
(0.0070038 -0.00685838 0)
(0.00677864 -0.00669982 0)
(0.00666779 -0.00655145 0)
(0.00672703 -0.00630365 0)
(0.0103419 -0.0110301 0)
(0.00877841 -0.0101754 0)
(0.00769955 -0.00947912 0)
(0.00692171 -0.00901228 0)
(0.00635501 -0.00867123 0)
(0.00597124 -0.00841933 0)
(0.00571819 -0.00821789 0)
(0.00556198 -0.00806695 0)
(0.0055172 -0.00792514 0)
(0.00558303 -0.00775163 0)
(0.00909186 -0.0119282 0)
(0.00751558 -0.0112912 0)
(0.00642054 -0.0107358 0)
(0.00566624 -0.0103495 0)
(0.00513361 -0.0100584 0)
(0.00478377 -0.00983534 0)
(0.00457433 -0.00965974 0)
(0.00446075 -0.00954095 0)
(0.00445235 -0.00943629 0)
(0.00452768 -0.00931638 0)
(0.00782682 -0.0127623 0)
(0.00631381 -0.0123566 0)
(0.00525509 -0.0119566 0)
(0.00453936 -0.0116611 0)
(0.00405986 -0.0114274 0)
(0.00374862 -0.0112479 0)
(0.00356353 -0.0111074 0)
(0.0034776 -0.0110205 0)
(0.00348007 -0.0109438 0)
(0.0035559 -0.010876 0)
(0.00659204 -0.0135181 0)
(0.00517924 -0.0133444 0)
(0.00420363 -0.0130892 0)
(0.00355756 -0.012887 0)
(0.00312715 -0.0127192 0)
(0.00284909 -0.0125904 0)
(0.00268708 -0.0124855 0)
(0.00262721 -0.0124293 0)
(0.00264019 -0.0123878 0)
(0.00270813 -0.0123648 0)
(0.00534662 -0.0141848 0)
(0.00412312 -0.0142256 0)
(0.0032761 -0.0141147 0)
(0.00270655 -0.0140076 0)
(0.00232631 -0.0138996 0)
(0.00209134 -0.0138118 0)
(0.00196318 -0.0137431 0)
(0.00192054 -0.0137119 0)
(0.00193469 -0.013701 0)
(0.00198812 -0.0137159 0)
(0.00413817 -0.0147349 0)
(0.00312837 -0.0149688 0)
(0.00243085 -0.0149876 0)
(0.00196142 -0.0149664 0)
(0.0016564 -0.0149111 0)
(0.00147198 -0.0148589 0)
(0.0013738 -0.0148192 0)
(0.00134013 -0.0148102 0)
(0.00134923 -0.0148238 0)
(0.00138727 -0.0148644 0)
(0.00294818 -0.015167 0)
(0.00218623 -0.0155587 0)
(0.0016667 -0.0156729 0)
(0.00131711 -0.0157155 0)
(0.00110108 -0.0157056 0)
(0.000970301 -0.0156879 0)
(0.00089688 -0.0156745 0)
(0.00086665 -0.0156833 0)
(0.000869697 -0.0157184 0)
(0.000897189 -0.0157829 0)
(0.00176192 -0.0154627 0)
(0.00128744 -0.0159603 0)
(0.000974261 -0.0161404 0)
(0.000764559 -0.0162315 0)
(0.000630741 -0.0162539 0)
(0.00054179 -0.0162536 0)
(0.00049504 -0.016258 0)
(0.000483988 -0.0162835 0)
(0.000489926 -0.0163286 0)
(0.000505372 -0.0164013 0)
(0.00058587 -0.0156108 0)
(0.000434691 -0.0161721 0)
(0.000322033 -0.0163797 0)
(0.000244137 -0.0164915 0)
(0.000203532 -0.0165341 0)
(0.000178049 -0.0165518 0)
(0.000157616 -0.0165635 0)
(0.000150842 -0.0165942 0)
(0.000155587 -0.0166502 0)
(0.000162368 -0.0167374 0)
(0.0197211 -0.000452618 0)
(0.0199493 -0.000303586 0)
(0.0199238 -0.000203816 0)
(0.0198305 -0.000137858 0)
(0.019694 -9.0562e-05 0)
(0.0195485 -6.38368e-05 0)
(0.0194171 -5.62011e-05 0)
(0.0193072 -4.09197e-05 0)
(0.0192312 -3.84993e-05 0)
(0.0191778 -4.93781e-05 0)
(0.0195283 -0.001367 0)
(0.0197087 -0.000926442 0)
(0.0196505 -0.000617839 0)
(0.0195318 -0.000427984 0)
(0.0193759 -0.000313342 0)
(0.0192167 -0.000222412 0)
(0.0190789 -0.000179847 0)
(0.0189612 -0.000163131 0)
(0.0188726 -0.000169393 0)
(0.018813 -0.000180245 0)
(0.0191733 -0.00227794 0)
(0.0192437 -0.00157557 0)
(0.0191168 -0.00108592 0)
(0.0189479 -0.000756715 0)
(0.0187619 -0.000559333 0)
(0.0185803 -0.000433672 0)
(0.0184165 -0.000375977 0)
(0.0182961 -0.000347254 0)
(0.0181912 -0.000347153 0)
(0.0181164 -0.000360779 0)
(0.0186516 -0.0032142 0)
(0.0185575 -0.00227021 0)
(0.0183321 -0.00162493 0)
(0.0180929 -0.00119454 0)
(0.0178599 -0.000926107 0)
(0.0176634 -0.000752725 0)
(0.0174782 -0.000661995 0)
(0.0173385 -0.00061675 0)
(0.0172093 -0.000609694 0)
(0.0171105 -0.000631422 0)
(0.0179756 -0.00416148 0)
(0.0176833 -0.00302165 0)
(0.0173307 -0.00224512 0)
(0.017014 -0.00173333 0)
(0.0167244 -0.00141029 0)
(0.0164899 -0.0011974 0)
(0.0162771 -0.00107685 0)
(0.0161114 -0.00101903 0)
(0.0159592 -0.00100354 0)
(0.0158383 -0.00102669 0)
(0.0171451 -0.00513064 0)
(0.0166367 -0.00384975 0)
(0.0161538 -0.00297525 0)
(0.0157514 -0.00239869 0)
(0.0153945 -0.00203547 0)
(0.0151131 -0.00179502 0)
(0.0148716 -0.00165357 0)
(0.0146795 -0.00158034 0)
(0.0144977 -0.0015542 0)
(0.0143349 -0.00157404 0)
(0.0162021 -0.00612238 0)
(0.0154554 -0.00476328 0)
(0.014824 -0.00382736 0)
(0.0143317 -0.00320694 0)
(0.0139134 -0.00281117 0)
(0.0135885 -0.00255262 0)
(0.0133183 -0.00239737 0)
(0.0131031 -0.00230343 0)
(0.0128894 -0.00225851 0)
(0.0126717 -0.0022644 0)
(0.0151497 -0.00711847 0)
(0.0141763 -0.00575144 0)
(0.01341 -0.00479365 0)
(0.0128292 -0.0041587 0)
(0.0123636 -0.00374264 0)
(0.0119966 -0.00347605 0)
(0.0116931 -0.00331375 0)
(0.0114461 -0.00320308 0)
(0.0111962 -0.00314015 0)
(0.0109072 -0.00312571 0)
(0.0140181 -0.00811849 0)
(0.0128389 -0.00679823 0)
(0.0119391 -0.00586653 0)
(0.0112751 -0.00524141 0)
(0.0107623 -0.00482124 0)
(0.0103536 -0.00454657 0)
(0.0100172 -0.00437366 0)
(0.00973906 -0.00424673 0)
(0.00947599 -0.0041636 0)
(0.00912613 -0.00410872 0)
(0.0128294 -0.00911542 0)
(0.0114845 -0.00789978 0)
(0.0104816 -0.0070205 0)
(0.00975032 -0.00643127 0)
(0.00920086 -0.00602538 0)
(0.00878419 -0.00574605 0)
(0.0084556 -0.00556081 0)
(0.00816068 -0.00541602 0)
(0.00789963 -0.00529945 0)
(0.00750186 -0.00521679 0)
(0.0191768 -5.37766e-05 0)
(0.0191815 -4.37956e-05 0)
(0.0191909 -3.62073e-05 0)
(0.0192075 -3.01351e-05 0)
(0.0192335 -2.55965e-05 0)
(0.0192682 -2.09651e-05 0)
(0.0192975 -9.54165e-06 0)
(0.0193235 4.61941e-06 0)
(0.0193614 1.44199e-05 0)
(0.0194072 2.27162e-05 0)
(0.019451 3.23547e-05 0)
(0.0194949 4.39042e-05 0)
(0.0195397 5.79983e-05 0)
(0.0195815 7.32957e-05 0)
(0.0196182 8.80617e-05 0)
(0.0196501 0.00010345 0)
(0.0196741 0.000121877 0)
(0.0196884 0.000144195 0)
(0.0196942 0.000170444 0)
(0.0196845 0.000201332 0)
(0.0188305 -0.00017804 0)
(0.018867 -0.000145466 0)
(0.0189053 -0.00012332 0)
(0.0189497 -0.000103357 0)
(0.018992 -7.8181e-05 0)
(0.0190335 -5.37372e-05 0)
(0.0190764 -2.87163e-05 0)
(0.019122 -4.56626e-06 0)
(0.0191743 1.86312e-05 0)
(0.0192263 4.9548e-05 0)
(0.0192757 8.60876e-05 0)
(0.0193271 0.000123283 0)
(0.019379 0.000162222 0)
(0.0194285 0.000204507 0)
(0.0194758 0.000250462 0)
(0.0195203 0.000301849 0)
(0.0195564 0.000361091 0)
(0.0195814 0.000429222 0)
(0.0195928 0.000507431 0)
(0.0195745 0.000598353 0)
(0.0181759 -0.000357431 0)
(0.0182841 -0.000300457 0)
(0.0183683 -0.000255334 0)
(0.0184443 -0.000215451 0)
(0.0185222 -0.000172656 0)
(0.0185998 -0.000132722 0)
(0.0186684 -8.97341e-05 0)
(0.0187275 -4.36993e-05 0)
(0.0187933 3.49253e-06 0)
(0.0188576 5.86872e-05 0)
(0.0189172 0.000117073 0)
(0.018975 0.000174899 0)
(0.01903 0.00023708 0)
(0.0190818 0.000307295 0)
(0.0191307 0.000385347 0)
(0.0191752 0.000471771 0)
(0.0192168 0.000569687 0)
(0.0192535 0.000683125 0)
(0.0192824 0.000814782 0)
(0.0192893 0.000968601 0)
(0.0172178 -0.000622405 0)
(0.0174155 -0.000531361 0)
(0.0175733 -0.000453264 0)
(0.0177118 -0.000383348 0)
(0.0178396 -0.000314513 0)
(0.0179531 -0.000252221 0)
(0.0180573 -0.00018506 0)
(0.0181489 -0.00011651 0)
(0.0182415 -4.65327e-05 0)
(0.0183263 3.21247e-05 0)
(0.0184021 0.000115118 0)
(0.0184729 0.000199411 0)
(0.01854 0.000289597 0)
(0.0186052 0.000388598 0)
(0.0186666 0.000495739 0)
(0.0187197 0.000613189 0)
(0.0187687 0.000745054 0)
(0.0188116 0.000899553 0)
(0.0188414 0.00108222 0)
(0.0188673 0.00129488 0)
(0.0160136 -0.000994408 0)
(0.0163264 -0.000853175 0)
(0.0165645 -0.000735206 0)
(0.0167641 -0.000631555 0)
(0.0169509 -0.00053001 0)
(0.0171139 -0.000438782 0)
(0.0172573 -0.000339894 0)
(0.0173865 -0.000243856 0)
(0.0175022 -0.000143497 0)
(0.0176032 -3.3766e-05 0)
(0.0176989 7.70022e-05 0)
(0.0177934 0.00018655 0)
(0.0178843 0.000302238 0)
(0.0179683 0.000428584 0)
(0.0180446 0.000564702 0)
(0.0181153 0.000713549 0)
(0.0181774 0.00088017 0)
(0.0182381 0.00107348 0)
(0.0182842 0.00130414 0)
(0.0183291 0.00156932 0)
(0.0145679 -0.0014999 0)
(0.0150028 -0.0012875 0)
(0.0153441 -0.00111341 0)
(0.0156313 -0.000964908 0)
(0.0158891 -0.000819994 0)
(0.0161112 -0.000689242 0)
(0.0162861 -0.000547506 0)
(0.016449 -0.000412377 0)
(0.0166004 -0.000278843 0)
(0.0167367 -0.000141252 0)
(0.0168635 -6.03717e-06 0)
(0.0169837 0.000127536 0)
(0.0170974 0.00026945 0)
(0.0172011 0.00042442 0)
(0.017294 0.000590466 0)
(0.0173852 0.000769253 0)
(0.0174677 0.000969361 0)
(0.0175464 0.00119794 0)
(0.0176153 0.00146976 0)
(0.0176833 0.00178206 0)
(0.0129603 -0.00213283 0)
(0.0135177 -0.00183505 0)
(0.0139527 -0.00159241 0)
(0.0143184 -0.00138436 0)
(0.0146343 -0.00118214 0)
(0.0149091 -0.000995585 0)
(0.0151394 -0.000811749 0)
(0.0153451 -0.000637707 0)
(0.015534 -0.000471157 0)
(0.0157098 -0.000306599 0)
(0.0158747 -0.000145218 0)
(0.0160287 1.656e-05 0)
(0.016172 0.000188004 0)
(0.0163036 0.000371685 0)
(0.0164275 0.000565283 0)
(0.0165473 0.000770787 0)
(0.0166552 0.00100057 0)
(0.0167594 0.00126106 0)
(0.0168517 0.00156707 0)
(0.0169465 0.00191896 0)
(0.0112218 -0.00290922 0)
(0.0118732 -0.00249963 0)
(0.0123886 -0.00217091 0)
(0.0128217 -0.00188624 0)
(0.0132085 -0.00162229 0)
(0.0135295 -0.00137728 0)
(0.0138205 -0.0011489 0)
(0.0140809 -0.000934509 0)
(0.0143177 -0.000731907 0)
(0.0145367 -0.000536102 0)
(0.0147412 -0.000344828 0)
(0.0149355 -0.000153261 0)
(0.0151208 4.68003e-05 0)
(0.0152928 0.000256888 0)
(0.0154581 0.000475405 0)
(0.0156141 0.000706361 0)
(0.0157528 0.000963017 0)
(0.0158926 0.00125129 0)
(0.016016 0.00158608 0)
(0.0161402 0.00197066 0)
(0.0094285 -0.00380243 0)
(0.0101141 -0.00328917 0)
(0.0106782 -0.0028736 0)
(0.0111591 -0.00249963 0)
(0.0115953 -0.0021562 0)
(0.0119709 -0.00184644 0)
(0.0123148 -0.00156523 0)
(0.012629 -0.00130577 0)
(0.0129226 -0.00106553 0)
(0.0131992 -0.000837481 0)
(0.0134598 -0.000616739 0)
(0.0137095 -0.000397788 0)
(0.0139485 -0.000172394 0)
(0.0141729 6.14998e-05 0)
(0.014392 0.000303365 0)
(0.0145976 0.000559762 0)
(0.0147814 0.00084286 0)
(0.014962 0.00115748 0)
(0.0151284 0.00151626 0)
(0.0152908 0.00192707 0)
(0.00762468 -0.00472211 0)
(0.00828389 -0.00405416 0)
(0.00885459 -0.00353614 0)
(0.0093656 -0.00308037 0)
(0.00983176 -0.00268421 0)
(0.0102654 -0.00233197 0)
(0.0106681 -0.00201223 0)
(0.0110479 -0.0017191 0)
(0.0114106 -0.00145058 0)
(0.0117548 -0.00119743 0)
(0.0120817 -0.000953512 0)
(0.0123983 -0.000712972 0)
(0.0127024 -0.000467129 0)
(0.0129903 -0.000213027 0)
(0.013271 4.99281e-05 0)
(0.0135323 0.00033003 0)
(0.013776 0.000635596 0)
(0.0140089 0.000974727 0)
(0.0142285 0.00135475 0)
(0.0144361 0.00179088 0)
(0.00666419 -0.00533802 0)
(0.00702406 -0.00472177 0)
(0.00748698 -0.00417549 0)
(0.0079877 -0.00366767 0)
(0.00848016 -0.00322994 0)
(0.00895481 -0.00283852 0)
(0.00940324 -0.00248391 0)
(0.00983262 -0.00216209 0)
(0.0102432 -0.00186837 0)
(0.010631 -0.00159166 0)
(0.0110001 -0.00132592 0)
(0.0113592 -0.00106533 0)
(0.0117022 -0.000800324 0)
(0.0120266 -0.000527117 0)
(0.0123431 -0.000245103 0)
(0.0126347 5.59565e-05 0)
(0.0129125 0.000378007 0)
(0.0131773 0.000736675 0)
(0.0134302 0.00113468 0)
(0.0136627 0.00159345 0)
(0.00597745 -0.00576928 0)
(0.00639521 -0.00518647 0)
(0.00683137 -0.00466558 0)
(0.0072989 -0.00416594 0)
(0.00777165 -0.00371675 0)
(0.0082331 -0.00330564 0)
(0.00867885 -0.0029304 0)
(0.00910897 -0.00258813 0)
(0.00952018 -0.00227222 0)
(0.00990863 -0.00197329 0)
(0.0102801 -0.00168727 0)
(0.0106418 -0.0014081 0)
(0.0109844 -0.00112511 0)
(0.0113077 -0.000834454 0)
(0.0116235 -0.000535516 0)
(0.0119145 -0.000215778 0)
(0.0121937 0.000120706 0)
(0.0124587 0.000495356 0)
(0.0127139 0.000909183 0)
(0.0129456 0.00138066 0)
(0.00525188 -0.00624158 0)
(0.00571126 -0.00562067 0)
(0.00617515 -0.00510105 0)
(0.00664941 -0.00460905 0)
(0.00711708 -0.00415727 0)
(0.00757331 -0.00373716 0)
(0.00801434 -0.00334887 0)
(0.00843825 -0.00298936 0)
(0.00884323 -0.00265382 0)
(0.00922644 -0.00233572 0)
(0.0095947 -0.00203251 0)
(0.0099539 -0.00173781 0)
(0.0102917 -0.00143989 0)
(0.010611 -0.00113541 0)
(0.0109231 -0.000823346 0)
(0.0112119 -0.000489392 0)
(0.0114924 -0.000140192 0)
(0.0117564 0.000246956 0)
(0.0120124 0.000671008 0)
(0.0122481 0.00114273 0)
(0.00454805 -0.00678535 0)
(0.00503685 -0.00613291 0)
(0.00551531 -0.00558496 0)
(0.00599893 -0.0050746 0)
(0.00646327 -0.00460591 0)
(0.00691715 -0.0041699 0)
(0.00735223 -0.00376421 0)
(0.00777026 -0.00338534 0)
(0.00817079 -0.00303027 0)
(0.00855025 -0.00269433 0)
(0.00891592 -0.00237587 0)
(0.00927275 -0.00206754 0)
(0.00960675 -0.0017563 0)
(0.00992414 -0.00143976 0)
(0.0102345 -0.00111576 0)
(0.0105214 -0.00077023 0)
(0.0108033 -0.000410581 0)
(0.0110685 -1.47074e-05 0)
(0.0113268 0.000411409 0)
(0.0115732 0.000875301 0)
(0.00391093 -0.00730634 0)
(0.00440422 -0.00664107 0)
(0.00488914 -0.0060731 0)
(0.00537093 -0.00554537 0)
(0.00583537 -0.00506016 0)
(0.00628594 -0.00460773 0)
(0.00671464 -0.00418305 0)
(0.00712847 -0.00378482 0)
(0.00752626 -0.0034116 0)
(0.00790276 -0.00305941 0)
(0.00826585 -0.00272685 0)
(0.00861954 -0.00240511 0)
(0.00894888 -0.00208003 0)
(0.00926361 -0.00175129 0)
(0.00957116 -0.00141535 0)
(0.00985637 -0.00105995 0)
(0.0101375 -0.000691937 0)
(0.0104038 -0.000291998 0)
(0.0106668 0.000129472 0)
(0.0109246 0.000585937 0)
(0.00334448 -0.0078093 0)
(0.00382918 -0.00713789 0)
(0.00431066 -0.00655546 0)
(0.00478431 -0.00601191 0)
(0.0052471 -0.00551108 0)
(0.00568987 -0.00504117 0)
(0.00611154 -0.00459756 0)
(0.00652196 -0.0041818 0)
(0.00691737 -0.00379226 0)
(0.00729052 -0.00342481 0)
(0.00765011 -0.00307838 0)
(0.00799898 -0.0027427 0)
(0.00832194 -0.00240299 0)
(0.00863226 -0.00206172 0)
(0.00893354 -0.00171363 0)
(0.00921655 -0.00135105 0)
(0.0094962 -0.00097821 0)
(0.00976343 -0.000579652 0)
(0.0100333 -0.000165392 0)
(0.010297 0.000287709 0)
(0.00285258 -0.00828605 0)
(0.00332279 -0.00761759 0)
(0.00378739 -0.00702715 0)
(0.00425254 -0.0064709 0)
(0.00470602 -0.00595498 0)
(0.0051368 -0.00546731 0)
(0.00555005 -0.0050063 0)
(0.00595525 -0.0045748 0)
(0.00634574 -0.00416953 0)
(0.00671294 -0.00378623 0)
(0.00706656 -0.00342472 0)
(0.00740792 -0.00307374 0)
(0.00772242 -0.00271907 0)
(0.00802727 -0.00236666 0)
(0.00832086 -0.0020081 0)
(0.00860054 -0.00164122 0)
(0.00887895 -0.00126807 0)
(0.00914736 -0.0008744 0)
(0.00942283 -0.000465598 0)
(0.00968739 -1.82171e-05 0)
(0.00242282 -0.00873979 0)
(0.00287529 -0.00807918 0)
(0.0033178 -0.0074834 0)
(0.00376983 -0.00691684 0)
(0.00420673 -0.00638632 0)
(0.00462371 -0.00588265 0)
(0.00502665 -0.00540701 0)
(0.00542346 -0.00496162 0)
(0.00580543 -0.00454124 0)
(0.00616382 -0.00414179 0)
(0.00650949 -0.00376446 0)
(0.00684196 -0.00339757 0)
(0.00714753 -0.00302847 0)
(0.00744663 -0.00266693 0)
(0.00773433 -0.00230165 0)
(0.00801141 -0.00193355 0)
(0.00828937 -0.00156337 0)
(0.00855938 -0.00117492 0)
(0.00883641 -0.000770566 0)
(0.00910411 -0.000339276 0)
(0.00204277 -0.00917195 0)
(0.00246942 -0.00852025 0)
(0.00289106 -0.00792087 0)
(0.00332206 -0.00734641 0)
(0.00374043 -0.00680415 0)
(0.00414348 -0.00628846 0)
(0.00453443 -0.00580133 0)
(0.00492053 -0.00534385 0)
(0.00529168 -0.00490923 0)
(0.00563992 -0.00449377 0)
(0.00597709 -0.00410034 0)
(0.00630131 -0.0037176 0)
(0.00660016 -0.00333553 0)
(0.00689482 -0.00296637 0)
(0.007179 -0.00259703 0)
(0.00745474 -0.00222925 0)
(0.00773241 -0.00186217 0)
(0.00800311 -0.0014779 0)
(0.00827866 -0.00108244 0)
(0.00855464 -0.000673258 0)
(0.00170373 -0.00958069 0)
(0.00210015 -0.00893738 0)
(0.00249908 -0.00833738 0)
(0.00290549 -0.00775913 0)
(0.00330657 -0.00721043 0)
(0.00369499 -0.00668673 0)
(0.00407213 -0.00618999 0)
(0.00444591 -0.00572095 0)
(0.0048049 -0.00527204 0)
(0.00514276 -0.00484045 0)
(0.00547166 -0.00443078 0)
(0.00578867 -0.00403255 0)
(0.00608303 -0.00363897 0)
(0.00637487 -0.00326309 0)
(0.00665671 -0.00289067 0)
(0.00693071 -0.00252316 0)
(0.00720662 -0.00215824 0)
(0.00747518 -0.00177984 0)
(0.00775081 -0.00140136 0)
(0.00803239 -0.00100963 0)
(0.00139316 -0.00996387 0)
(0.00176215 -0.00932903 0)
(0.00213626 -0.00873233 0)
(0.00252127 -0.00815547 0)
(0.00290591 -0.00760461 0)
(0.003278 -0.00707431 0)
(0.00363916 -0.00656766 0)
(0.00399895 -0.00608625 0)
(0.00434451 -0.00562248 0)
(0.00467187 -0.00517552 0)
(0.00499309 -0.00475133 0)
(0.00530409 -0.00434023 0)
(0.00559543 -0.0039377 0)
(0.00588566 -0.00355643 0)
(0.00616563 -0.00318135 0)
(0.00643703 -0.00281367 0)
(0.00670996 -0.00245198 0)
(0.00697506 -0.00208437 0)
(0.00725459 -0.00172505 0)
(0.00753392 -0.00134716 0)
(0.00110556 -0.0103225 0)
(0.00145095 -0.00969897 0)
(0.00180279 -0.00910873 0)
(0.00216965 -0.00853613 0)
(0.00253612 -0.00798363 0)
(0.00288936 -0.00744601 0)
(0.00323248 -0.00692932 0)
(0.00357685 -0.00643662 0)
(0.00390913 -0.00595976 0)
(0.00422694 -0.00550048 0)
(0.00454247 -0.0050652 0)
(0.00485002 -0.00464464 0)
(0.00514004 -0.00423531 0)
(0.00542962 -0.00384914 0)
(0.00570797 -0.00347109 0)
(0.00597684 -0.00310321 0)
(0.00624726 -0.00274742 0)
(0.00651182 -0.00239409 0)
(0.00679318 -0.00204698 0)
(0.00706955 -0.00168841 0)
(0.000843444 -0.0106623 0)
(0.00116739 -0.0100534 0)
(0.00150018 -0.00947032 0)
(0.00184719 -0.00890093 0)
(0.00219276 -0.00834572 0)
(0.00252584 -0.00780136 0)
(0.00285129 -0.0072768 0)
(0.00318064 -0.0067757 0)
(0.00350253 -0.0062887 0)
(0.00381328 -0.00581955 0)
(0.0041254 -0.00537526 0)
(0.00443092 -0.00494632 0)
(0.00471895 -0.00452989 0)
(0.00500584 -0.00413811 0)
(0.00528079 -0.00375687 0)
(0.00554709 -0.00339043 0)
(0.00581585 -0.00304243 0)
(0.00608177 -0.00270039 0)
(0.00635619 -0.00236148 0)
(0.00663213 -0.00202702 0)
(0.000604211 -0.010989 0)
(0.00090847 -0.0103926 0)
(0.0012216 -0.00981531 0)
(0.00154643 -0.00924751 0)
(0.00187161 -0.00869045 0)
(0.00218612 -0.00814133 0)
(0.00249719 -0.00761104 0)
(0.00281267 -0.00710276 0)
(0.0031261 -0.00660793 0)
(0.00343052 -0.00612996 0)
(0.00373813 -0.00567701 0)
(0.00403952 -0.00523986 0)
(0.00432341 -0.00481638 0)
(0.00460676 -0.00441968 0)
(0.0048795 -0.00403676 0)
(0.00514526 -0.00367363 0)
(0.00541321 -0.00333203 0)
(0.00567547 -0.00299456 0)
(0.00594133 -0.00267081 0)
(0.00621366 -0.00235909 0)
(0.000377796 -0.0113 0)
(0.000662862 -0.0107128 0)
(0.000954607 -0.0101412 0)
(0.0012592 -0.00957538 0)
(0.00156733 -0.00901746 0)
(0.00186474 -0.00846397 0)
(0.0021632 -0.00792927 0)
(0.00246694 -0.0074156 0)
(0.00277333 -0.00691671 0)
(0.00307391 -0.00643313 0)
(0.00337824 -0.00597291 0)
(0.00367565 -0.00552828 0)
(0.00395678 -0.00509878 0)
(0.00424026 -0.00469855 0)
(0.00451429 -0.00431503 0)
(0.00477948 -0.00395326 0)
(0.00504485 -0.00361282 0)
(0.00529769 -0.00327993 0)
(0.00556264 -0.00297872 0)
(0.00583147 -0.0026904 0)
(0.000152486 -0.011591 0)
(0.000418236 -0.0110166 0)
(0.000690455 -0.0104505 0)
(0.000977987 -0.00988578 0)
(0.00127078 -0.00932689 0)
(0.00155436 -0.0087722 0)
(0.00184345 -0.00823662 0)
(0.002144 -0.00772112 0)
(0.00244568 -0.00721871 0)
(0.0027394 -0.00672912 0)
(0.00303684 -0.00626197 0)
(0.00333045 -0.0058118 0)
(0.00361185 -0.00537856 0)
(0.00389767 -0.00497461 0)
(0.00417273 -0.00458777 0)
(0.00443523 -0.00422336 0)
(0.00469534 -0.00388262 0)
(0.00494367 -0.0035627 0)
(0.00521019 -0.00327828 0)
(0.00548228 -0.00301791 0)
(-8.2173e-05 -0.0118734 0)
(0.000167698 -0.0113087 0)
(0.000423194 -0.0107435 0)
(0.000695705 -0.0101807 0)
(0.000974114 -0.00962277 0)
(0.00125157 -0.00907215 0)
(0.00153478 -0.00853614 0)
(0.00183188 -0.00801764 0)
(0.0021281 -0.00750942 0)
(0.00241593 -0.00701409 0)
(0.00271033 -0.00654319 0)
(0.00300598 -0.00608978 0)
(0.0032925 -0.00565196 0)
(0.00358044 -0.00524243 0)
(0.00385207 -0.00485057 0)
(0.00411223 -0.00448263 0)
(0.00437563 -0.00414458 0)
(0.00463908 -0.00384038 0)
(0.00489813 -0.00356736 0)
(0.00514735 -0.00333112 0)
(-0.00032786 -0.0121487 0)
(-9.57923e-05 -0.0115868 0)
(0.000146601 -0.0110238 0)
(0.000408633 -0.0104671 0)
(0.000681335 -0.00991297 0)
(0.000955831 -0.0093645 0)
(0.00123653 -0.00882809 0)
(0.00152766 -0.00830729 0)
(0.00181653 -0.00779583 0)
(0.00210253 -0.00729816 0)
(0.00240382 -0.00682517 0)
(0.00270708 -0.00636764 0)
(0.00299209 -0.00592249 0)
(0.00327369 -0.00550554 0)
(0.00355154 -0.00511032 0)
(0.00383363 -0.00474394 0)
(0.0041053 -0.00441056 0)
(0.00435756 -0.00410532 0)
(0.00462212 -0.00384992 0)
(0.00488952 -0.00364491 0)
(-0.000590794 -0.0124114 0)
(-0.000375818 -0.0118542 0)
(-0.000139913 -0.0112988 0)
(0.000117667 -0.010748 0)
(0.00038947 -0.0101986 0)
(0.000660181 -0.00964893 0)
(0.000931486 -0.00910945 0)
(0.00121507 -0.00858719 0)
(0.00150904 -0.00807758 0)
(0.00180747 -0.00758074 0)
(0.00211081 -0.00710167 0)
(0.00240425 -0.00663475 0)
(0.00269246 -0.00618607 0)
(0.00299861 -0.00577059 0)
(0.00329034 -0.00537058 0)
(0.00356793 -0.00499633 0)
(0.00385741 -0.00466926 0)
(0.00412542 -0.00436623 0)
(0.00439296 -0.00412122 0)
(0.00466079 -0.00394296 0)
(-0.000868 -0.0126665 0)
(-0.000661785 -0.012117 0)
(-0.000427658 -0.01157 0)
(-0.000169219 -0.0110263 0)
(9.28333e-05 -0.0104748 0)
(0.000350912 -0.00992231 0)
(0.000623157 -0.00938773 0)
(0.000922034 -0.00887191 0)
(0.00122302 -0.00835958 0)
(0.00151181 -0.00785388 0)
(0.00181598 -0.00737237 0)
(0.00213154 -0.00690884 0)
(0.00243232 -0.00645648 0)
(0.00274001 -0.00603246 0)
(0.00304943 -0.00563291 0)
(0.00334414 -0.00525814 0)
(0.00364941 -0.00492265 0)
(0.0039367 -0.00462459 0)
(0.00421712 -0.00438646 0)
(0.00451172 -0.00422531 0)
(0.000139204 -0.0168405 0)
(0.000435739 -0.0165137 0)
(0.00077843 -0.0159183 0)
(0.00121325 -0.0150244 0)
(0.00175543 -0.0139056 0)
(0.002413 -0.0125784 0)
(0.00319623 -0.0111095 0)
(0.00409133 -0.00955491 0)
(0.00510233 -0.00797118 0)
(0.00621409 -0.00639184 0)
(8.73564e-05 -0.0169298 0)
(0.000284958 -0.0166166 0)
(0.000521829 -0.0160599 0)
(0.000847699 -0.0152193 0)
(0.00128206 -0.0141615 0)
(0.00182809 -0.0129037 0)
(0.00251094 -0.0114934 0)
(0.00330062 -0.00999371 0)
(0.00424444 -0.00842972 0)
(0.00528062 -0.00685792 0)
(4.53159e-05 -0.0169739 0)
(0.000162766 -0.0166778 0)
(0.000324756 -0.0161552 0)
(0.000563914 -0.0153599 0)
(0.000913082 -0.0143573 0)
(0.00137096 -0.0131684 0)
(0.00196925 -0.0118296 0)
(0.00267906 -0.0103998 0)
(0.00355159 -0.00888306 0)
(0.00450873 -0.00735722 0)
(1.85922e-05 -0.0169946 0)
(7.14235e-05 -0.0167127 0)
(0.000181151 -0.0162234 0)
(0.000356575 -0.0154756 0)
(0.000636568 -0.0145314 0)
(0.00102373 -0.0134107 0)
(0.00154183 -0.0121441 0)
(0.0021716 -0.0107843 0)
(0.00295246 -0.00933005 0)
(0.00381793 -0.00786772 0)
(8.80126e-09 -0.0170011 0)
(7.08542e-06 -0.0167371 0)
(7.01053e-05 -0.0162808 0)
(0.000193317 -0.0155822 0)
(0.000413288 -0.0146915 0)
(0.000735841 -0.0136421 0)
(0.001184 -0.012451 0)
(0.00174021 -0.011154 0)
(0.0024367 -0.0097604 0)
(0.00322161 -0.00835509 0)
(-2.07326e-05 -0.0169988 0)
(-4.21113e-05 -0.0167516 0)
(-1.84368e-05 -0.0163184 0)
(6.66304e-05 -0.0156713 0)
(0.000240178 -0.0148319 0)
(0.000509156 -0.0138459 0)
(0.000891781 -0.0127244 0)
(0.00137761 -0.011489 0)
(0.00199361 -0.0101599 0)
(0.00270414 -0.00881779 0)
(-3.46896e-05 -0.0169891 0)
(-8.19801e-05 -0.0167616 0)
(-8.96348e-05 -0.0163483 0)
(-3.22806e-05 -0.015749 0)
(9.79445e-05 -0.01496 0)
(0.000321876 -0.0140313 0)
(0.000648129 -0.0129737 0)
(0.00107082 -0.0118 0)
(0.0016157 -0.0105368 0)
(0.00225911 -0.00925933 0)
(-3.92506e-05 -0.016975 0)
(-0.000113661 -0.0167668 0)
(-0.00014471 -0.0163737 0)
(-0.000109708 -0.0158169 0)
(-1.69366e-05 -0.015076 0)
(0.000163477 -0.0141973 0)
(0.000440582 -0.0131996 0)
(0.000810373 -0.0120914 0)
(0.00129368 -0.0108956 0)
(0.00187501 -0.00968181 0)
(-4.74673e-05 -0.0169574 0)
(-0.000141629 -0.0167682 0)
(-0.000188084 -0.016395 0)
(-0.000176437 -0.0158747 0)
(-0.000112229 -0.0151807 0)
(3.02572e-05 -0.0143481 0)
(0.000260926 -0.0134065 0)
(0.000583971 -0.0123644 0)
(0.00101384 -0.0112341 0)
(0.00153786 -0.0100809 0)
(-6.10425e-05 -0.0169372 0)
(-0.000163511 -0.0167699 0)
(-0.000222261 -0.0164153 0)
(-0.000234922 -0.0159252 0)
(-0.000197075 -0.015274 0)
(-8.67539e-05 -0.0144857 0)
(0.00010172 -0.0135958 0)
(0.000382204 -0.0126148 0)
(0.000764354 -0.0115464 0)
(0.00123454 -0.0104519 0)
(-7.0277e-05 -0.0169186 0)
(-0.000176884 -0.0167745 0)
(-0.000252841 -0.0164365 0)
(-0.000286783 -0.0159706 0)
(-0.000275002 -0.015356 0)
(-0.000193309 -0.0146101 0)
(-4.0629e-05 -0.013768 0)
(0.000200758 -0.0128406 0)
(0.000538569 -0.0118317 0)
(0.00095779 -0.010797 0)
(-7.26955e-05 -0.0169069 0)
(-0.000188003 -0.0167811 0)
(-0.000286371 -0.0164576 0)
(-0.000336133 -0.0160121 0)
(-0.000346831 -0.015429 0)
(-0.00029153 -0.0147231 0)
(-0.000169149 -0.0139253 0)
(3.63888e-05 -0.013047 0)
(0.00033301 -0.0120972 0)
(0.000706138 -0.0111221 0)
(-7.52147e-05 -0.0169027 0)
(-0.000205998 -0.016787 0)
(-0.000326422 -0.0164782 0)
(-0.000389182 -0.0160515 0)
(-0.000417863 -0.0154978 0)
(-0.0003868 -0.0148292 0)
(-0.000290905 -0.0140713 0)
(-0.000116712 -0.0132405 0)
(0.000144287 -0.0123486 0)
(0.000478852 -0.0114288 0)
(-8.35824e-05 -0.0169028 0)
(-0.00023344 -0.0167923 0)
(-0.000371985 -0.0165005 0)
(-0.000449741 -0.016092 0)
(-0.00049449 -0.0155653 0)
(-0.000484883 -0.0149295 0)
(-0.000411819 -0.0142084 0)
(-0.000263263 -0.0134248 0)
(-3.13448e-05 -0.0125852 0)
(0.000270267 -0.0117177 0)
(-9.62613e-05 -0.0169052 0)
(-0.000265277 -0.0167988 0)
(-0.000419386 -0.0165257 0)
(-0.000516258 -0.0161344 0)
(-0.000577343 -0.0156319 0)
(-0.000586921 -0.0150251 0)
(-0.000534173 -0.0143422 0)
(-0.000407239 -0.0136045 0)
(-0.000202164 -0.0128108 0)
(6.89041e-05 -0.0119955 0)
(-0.000108565 -0.0169107 0)
(-0.000296257 -0.016807 0)
(-0.000466808 -0.0165518 0)
(-0.000586621 -0.0161776 0)
(-0.000665827 -0.0156996 0)
(-0.000694469 -0.0151221 0)
(-0.000661685 -0.014477 0)
(-0.000555272 -0.0137782 0)
(-0.000377634 -0.0130279 0)
(-0.000132841 -0.0122603 0)
(-0.000118736 -0.0169189 0)
(-0.000327059 -0.0168154 0)
(-0.000517989 -0.0165785 0)
(-0.000663904 -0.0162233 0)
(-0.000763725 -0.0157674 0)
(-0.000812747 -0.0152174 0)
(-0.00080133 -0.0146061 0)
(-0.000719138 -0.0139415 0)
(-0.000566425 -0.0132388 0)
(-0.000348217 -0.012514 0)
(-0.000129397 -0.016928 0)
(-0.000363904 -0.0168253 0)
(-0.000579851 -0.0166051 0)
(-0.000754611 -0.0162673 0)
(-0.000880031 -0.0158348 0)
(-0.000952397 -0.0153131 0)
(-0.00096393 -0.0147307 0)
(-0.000908589 -0.0141007 0)
(-0.000774657 -0.0134411 0)
(-0.000580944 -0.0127596 0)
(-0.000144128 -0.0169362 0)
(-0.000412887 -0.0168352 0)
(-0.000658953 -0.0166292 0)
(-0.000863044 -0.0163112 0)
(-0.00101689 -0.0159017 0)
(-0.00111692 -0.0154065 0)
(-0.00115453 -0.0148503 0)
(-0.00111981 -0.0142584 0)
(-0.00100608 -0.0136339 0)
(-0.000832284 -0.0129966 0)
(-0.000164156 -0.0169397 0)
(-0.000473686 -0.0168452 0)
(-0.000754382 -0.0166547 0)
(-0.000993895 -0.0163562 0)
(-0.00118237 -0.0159675 0)
(-0.00131165 -0.0154987 0)
(-0.00137244 -0.0149728 0)
(-0.00134613 -0.0144173 0)
(-0.00124983 -0.0138261 0)
(-0.00109272 -0.0132276 0)
)


// ************************************************************************* //
