/*--------------------------------*- C++ -*----------------------------------*\
| =========                 |                                                 |
| \\      /  F ield         | foam-extend: Open Source CFD                    |
|  \\    /   O peration     | Version:     4.1                                |
|   \\  /    A nd           | Web:         http://www.foam-extend.org         |
|    \\/     M anipulation  |                                                 |
\*---------------------------------------------------------------------------*/
FoamFile
{
    version     2.0;
    format      ascii;
    class       vectorField;
    location    "1";
    object      residualD_iteration11;
}
// * * * * * * * * * * * * * * * * * * * * * * * * * * * * * * * * * * * * * //


1000
(
(0.00653194 -0.00690749 0)
(0.00560094 -0.00612081 0)
(0.004905 -0.00549144 0)
(0.00439613 -0.00504682 0)
(0.00401642 -0.00469527 0)
(0.00371978 -0.00441788 0)
(0.00349041 -0.00418491 0)
(0.00330775 -0.0039744 0)
(0.00316509 -0.00379113 0)
(0.00316262 -0.00358181 0)
(0.0058096 -0.00754421 0)
(0.00483378 -0.00687695 0)
(0.00412243 -0.00631307 0)
(0.00360599 -0.00590479 0)
(0.00323196 -0.00557127 0)
(0.00295769 -0.00530155 0)
(0.00275803 -0.00506951 0)
(0.00261569 -0.00486451 0)
(0.00252216 -0.00468846 0)
(0.0025143 -0.00448864 0)
(0.00509805 -0.0081498 0)
(0.00411223 -0.00761642 0)
(0.00339904 -0.00713712 0)
(0.00289291 -0.00678028 0)
(0.00253391 -0.00648076 0)
(0.00228092 -0.00623304 0)
(0.00210482 -0.00601584 0)
(0.0019824 -0.0058287 0)
(0.00190581 -0.00567092 0)
(0.00189752 -0.00549638 0)
(0.00438573 -0.00871294 0)
(0.00343083 -0.00832433 0)
(0.00274435 -0.00793895 0)
(0.0022655 -0.00764215 0)
(0.00193202 -0.00737999 0)
(0.00170009 -0.00715776 0)
(0.00154078 -0.00696105 0)
(0.00143137 -0.00679426 0)
(0.00136261 -0.00665181 0)
(0.00134701 -0.00650423 0)
(0.00368666 -0.0092231 0)
(0.00279253 -0.00898171 0)
(0.00215947 -0.00868785 0)
(0.00172461 -0.00845158 0)
(0.00142238 -0.00823154 0)
(0.00121391 -0.0080396 0)
(0.00107269 -0.00786577 0)
(0.000979679 -0.00771943 0)
(0.000919125 -0.00759384 0)
(0.000899464 -0.0074682 0)
(0.00299387 -0.00967048 0)
(0.00220643 -0.00956886 0)
(0.00165025 -0.00936533 0)
(0.00126868 -0.00918694 0)
(0.00100604 -0.00900465 0)
(0.000829515 -0.0088404 0)
(0.000708829 -0.00868959 0)
(0.00062891 -0.00856049 0)
(0.000575787 -0.00844961 0)
(0.000554478 -0.00834364 0)
(0.00231589 -0.0100437 0)
(0.00166398 -0.0100638 0)
(0.00120476 -0.00994003 0)
(0.000892151 -0.00981598 0)
(0.000680189 -0.0096688 0)
(0.000536931 -0.00952717 0)
(0.000438455 -0.00939441 0)
(0.000373463 -0.00927905 0)
(0.00033017 -0.00917986 0)
(0.000310192 -0.00908977 0)
(0.00164647 -0.0103347 0)
(0.0011605 -0.0104542 0)
(0.000818032 -0.0103946 0)
(0.000583849 -0.0103127 0)
(0.000428159 -0.0101918 0)
(0.000322667 -0.0100708 0)
(0.000249624 -0.00995481 0)
(0.000200384 -0.00985131 0)
(0.000167712 -0.00976141 0)
(0.000152256 -0.00968439 0)
(0.000984726 -0.0105342 0)
(0.000682641 -0.0107222 0)
(0.000472038 -0.0107064 0)
(0.000329889 -0.0106535 0)
(0.000234514 -0.010552 0)
(0.000167766 -0.0104454 0)
(0.000122136 -0.0103398 0)
(9.31113e-05 -0.0102433 0)
(7.41098e-05 -0.0101588 0)
(6.41945e-05 -0.0100901 0)
(0.000328799 -0.0106338 0)
(0.000228382 -0.0108574 0)
(0.000155766 -0.0108654 0)
(0.000105432 -0.0108287 0)
(7.35816e-05 -0.010738 0)
(5.26769e-05 -0.0106398 0)
(3.67878e-05 -0.0105389 0)
(2.61384e-05 -0.0104456 0)
(2.00553e-05 -0.0103647 0)
(1.70531e-05 -0.0103017 0)
(0.0112853 -0.000314172 0)
(0.0114593 -0.000211693 0)
(0.011443 -0.000140424 0)
(0.0113745 -9.13203e-05 0)
(0.0112624 -5.69367e-05 0)
(0.0111391 -3.40017e-05 0)
(0.0110146 -1.9509e-05 0)
(0.0109004 -7.35406e-06 0)
(0.0107964 1.37054e-06 0)
(0.0107015 7.29981e-06 0)
(0.0111695 -0.000945386 0)
(0.011311 -0.000642943 0)
(0.0112737 -0.000429342 0)
(0.0111907 -0.000287091 0)
(0.0110678 -0.000189915 0)
(0.0109397 -0.000119319 0)
(0.0108092 -7.14721e-05 0)
(0.0106902 -3.80215e-05 0)
(0.0105847 -1.48116e-05 0)
(0.0104841 4.82525e-06 0)
(0.0109577 -0.00158021 0)
(0.0110282 -0.00109324 0)
(0.0109462 -0.000747658 0)
(0.0108338 -0.000514998 0)
(0.0106904 -0.000355447 0)
(0.0105482 -0.000242472 0)
(0.0104086 -0.000165982 0)
(0.0102857 -0.000110228 0)
(0.0101732 -7.13882e-05 0)
(0.0100626 -4.04008e-05 0)
(0.0106456 -0.00222486 0)
(0.0106134 -0.00157401 0)
(0.0104682 -0.00111113 0)
(0.0103126 -0.000799901 0)
(0.0101444 -0.000586147 0)
(0.00998713 -0.000432988 0)
(0.00983222 -0.000329036 0)
(0.00969652 -0.000253036 0)
(0.00957318 -0.000195008 0)
(0.0094463 -0.000150756 0)
(0.0102441 -0.00287808 0)
(0.0100842 -0.00209363 0)
(0.00985982 -0.00153288 0)
(0.00965362 -0.00115476 0)
(0.00945201 -0.000896099 0)
(0.00927065 -0.000710917 0)
(0.00909963 -0.000580752 0)
(0.0089506 -0.000483693 0)
(0.00881581 -0.0004065 0)
(0.00866819 -0.000349629 0)
(0.00975729 -0.0035425 0)
(0.00945783 -0.00266051 0)
(0.00914456 -0.0020265 0)
(0.00887932 -0.00159669 0)
(0.00863937 -0.00129977 0)
(0.00843093 -0.0010862 0)
(0.00823964 -0.000934022 0)
(0.0080734 -0.000820179 0)
(0.00792339 -0.000728255 0)
(0.00774866 -0.000659633 0)
(0.00920016 -0.00421573 0)
(0.00875212 -0.00327526 0)
(0.00834429 -0.00259339 0)
(0.0080159 -0.00212703 0)
(0.00773572 -0.00180076 0)
(0.00749986 -0.00156584 0)
(0.00728707 -0.0013968 0)
(0.0071026 -0.00126795 0)
(0.0069374 -0.00116029 0)
(0.00673142 -0.00107766 0)
(0.00858412 -0.00489438 0)
(0.00799109 -0.00393584 0)
(0.00749529 -0.00323159 0)
(0.00710601 -0.00274757 0)
(0.00678827 -0.00240284 0)
(0.00652495 -0.00215417 0)
(0.00629205 -0.00197453 0)
(0.00608496 -0.00183553 0)
(0.00589952 -0.00171502 0)
(0.0056564 -0.00162063 0)
(0.00792377 -0.00557475 0)
(0.00719729 -0.00463544 0)
(0.00661622 -0.00393534 0)
(0.00617253 -0.00344989 0)
(0.00581828 -0.00309566 0)
(0.00552802 -0.0028359 0)
(0.00527845 -0.0026464 0)
(0.00505361 -0.00249918 0)
(0.00486017 -0.00237296 0)
(0.00459836 -0.0022694 0)
(0.00723343 -0.00625135 0)
(0.00639641 -0.00537031 0)
(0.00574583 -0.00469411 0)
(0.0052619 -0.00422009 0)
(0.00488433 -0.00386304 0)
(0.00458049 -0.0035931 0)
(0.00432402 -0.00338681 0)
(0.00407964 -0.00322072 0)
(0.0038644 -0.00306805 0)
(0.00360918 -0.00295387 0)
(0.0106326 1.13523e-05 0)
(0.0105639 2.00943e-05 0)
(0.0105024 2.65399e-05 0)
(0.0104495 3.20031e-05 0)
(0.010402 3.61526e-05 0)
(0.010358 4.01442e-05 0)
(0.010317 4.57504e-05 0)
(0.0102812 5.25278e-05 0)
(0.0102493 6.00669e-05 0)
(0.0102164 6.82168e-05 0)
(0.010182 7.67916e-05 0)
(0.0101474 8.63927e-05 0)
(0.01011 9.81837e-05 0)
(0.0100669 0.000112394 0)
(0.0100162 0.000128565 0)
(0.00995665 0.00014655 0)
(0.00988491 0.000166576 0)
(0.00979678 0.000188927 0)
(0.00969134 0.000213923 0)
(0.00955903 0.000242829 0)
(0.0104246 2.08358e-05 0)
(0.0103762 4.97003e-05 0)
(0.010332 6.89735e-05 0)
(0.010293 8.56113e-05 0)
(0.0102561 0.000101251 0)
(0.010222 0.000115596 0)
(0.0101909 0.000131595 0)
(0.010162 0.00015056 0)
(0.010134 0.000172672 0)
(0.0101038 0.000197278 0)
(0.0100718 0.000223927 0)
(0.0100384 0.000253587 0)
(0.010002 0.00028828 0)
(0.00996087 0.000329081 0)
(0.00991407 0.000376212 0)
(0.00985941 0.000430316 0)
(0.00979198 0.00049187 0)
(0.00970744 0.000561317 0)
(0.00960715 0.00064064 0)
(0.00947695 0.000730841 0)
(0.0100249 -9.89457e-06 0)
(0.0100134 4.39777e-05 0)
(0.009997 8.00884e-05 0)
(0.00998279 0.00011022 0)
(0.00996784 0.000138866 0)
(0.00995007 0.000166623 0)
(0.00993137 0.000198272 0)
(0.00991259 0.000234058 0)
(0.00989469 0.000272396 0)
(0.00987255 0.000313135 0)
(0.00984714 0.000357663 0)
(0.00981854 0.000408318 0)
(0.0097857 0.000467113 0)
(0.00974798 0.000534559 0)
(0.0097038 0.000611094 0)
(0.00964984 0.000698577 0)
(0.00958435 0.000798899 0)
(0.00950407 0.000914066 0)
(0.00940978 0.00104912 0)
(0.0092879 0.00120384 0)
(0.00943958 -0.000101062 0)
(0.00948315 -1.80234e-05 0)
(0.00951067 4.02606e-05 0)
(0.00953308 9.08292e-05 0)
(0.00954812 0.000139941 0)
(0.00955498 0.000187446 0)
(0.00955747 0.000238549 0)
(0.00955446 0.000291961 0)
(0.00954789 0.00034706 0)
(0.00953511 0.000406456 0)
(0.00951879 0.000472413 0)
(0.00949844 0.000546465 0)
(0.00947259 0.000629717 0)
(0.00944118 0.000723348 0)
(0.00940271 0.000829203 0)
(0.00935303 0.000949402 0)
(0.0092927 0.00108627 0)
(0.00921806 0.00124451 0)
(0.00912958 0.00143127 0)
(0.00901799 0.00164595 0)
(0.00869686 -0.000274125 0)
(0.00880501 -0.000153705 0)
(0.00888372 -6.42487e-05 0)
(0.00895154 1.5735e-05 0)
(0.00900552 9.26975e-05 0)
(0.00904403 0.000164135 0)
(0.00907014 0.000238499 0)
(0.00908763 0.000314181 0)
(0.0090962 0.000391598 0)
(0.00909563 0.000473787 0)
(0.00908945 0.000562376 0)
(0.00907793 0.000658887 0)
(0.00906019 0.00076526 0)
(0.00903572 0.000884266 0)
(0.00900335 0.00101907 0)
(0.00896187 0.00117194 0)
(0.00890841 0.0013454 0)
(0.00884457 0.00154599 0)
(0.00876519 0.00178318 0)
(0.00866533 0.0020549 0)
(0.0078152 -0.000547947 0)
(0.00799857 -0.000377469 0)
(0.00813778 -0.000244994 0)
(0.00825734 -0.000126456 0)
(0.00835171 -1.32618e-05 0)
(0.00842589 9.07366e-05 0)
(0.00847915 0.000196406 0)
(0.00852063 0.000299711 0)
(0.00854966 0.00040195 0)
(0.00856741 0.000507905 0)
(0.00857573 0.000620033 0)
(0.00857501 0.000740359 0)
(0.00856662 0.000871594 0)
(0.00855054 0.00101712 0)
(0.00852444 0.00117982 0)
(0.00849127 0.00136241 0)
(0.00844547 0.00157041 0)
(0.00839011 0.00181071 0)
(0.00832069 0.00209527 0)
(0.00823392 0.00242161 0)
(0.00683063 -0.000923821 0)
(0.00708752 -0.00069879 0)
(0.00728589 -0.000515589 0)
(0.00745694 -0.000347206 0)
(0.00759445 -0.000188291 0)
(0.00770411 -4.23349e-05 0)
(0.00779206 9.88634e-05 0)
(0.00786106 0.000233627 0)
(0.00791247 0.000365738 0)
(0.00794944 0.000500181 0)
(0.00797435 0.000639794 0)
(0.0079879 0.000786621 0)
(0.00799179 0.000943749 0)
(0.00798643 0.00111536 0)
(0.00797079 0.00130462 0)
(0.007947 0.00151529 0)
(0.00790921 0.00175643 0)
(0.00786279 0.00203455 0)
(0.00780359 0.00236168 0)
(0.00773255 0.00273602 0)
(0.00577267 -0.00140948 0)
(0.00609292 -0.00111317 0)
(0.00635005 -0.000862664 0)
(0.00656749 -0.000632507 0)
(0.0067509 -0.000424544 0)
(0.00689413 -0.000232351 0)
(0.00701548 -5.14049e-05 0)
(0.00711237 0.000118981 0)
(0.00718887 0.000284485 0)
(0.00724765 0.000449884 0)
(0.0072917 0.000618253 0)
(0.0073236 0.00079194 0)
(0.00734484 0.000974966 0)
(0.00735329 0.00117247 0)
(0.0073502 0.00138844 0)
(0.00733746 0.00162789 0)
(0.00730889 0.00190043 0)
(0.00727449 0.00221275 0)
(0.00722761 0.00257718 0)
(0.00717377 0.0029919 0)
(0.00470197 -0.00199368 0)
(0.00505184 -0.00163566 0)
(0.00534494 -0.00132147 0)
(0.00559399 -0.00102588 0)
(0.00580819 -0.000756507 0)
(0.00598542 -0.000508086 0)
(0.00613708 -0.000278049 0)
(0.00626302 -6.29224e-05 0)
(0.00636815 0.000142101 0)
(0.00645476 0.000342302 0)
(0.00652469 0.000541745 0)
(0.0065805 0.00074395 0)
(0.00662337 0.000954656 0)
(0.00665049 0.00117975 0)
(0.00666543 0.00142341 0)
(0.00666917 0.0016925 0)
(0.00665587 0.00199569 0)
(0.00663725 0.0023394 0)
(0.006607 0.0027354 0)
(0.00657237 0.00318303 0)
(0.00363171 -0.00264104 0)
(0.003963 -0.00221203 0)
(0.004257 -0.0018168 0)
(0.00452372 -0.00144931 0)
(0.00475818 -0.00112128 0)
(0.00496686 -0.000822285 0)
(0.00514896 -0.000547959 0)
(0.00530782 -0.000292127 0)
(0.0054465 -5.04393e-05 0)
(0.00556653 0.000183071 0)
(0.00566878 0.000413294 0)
(0.0057556 0.000644366 0)
(0.00582727 0.00088293 0)
(0.00588106 0.0011354 0)
(0.00592265 0.00140633 0)
(0.00595076 0.00170409 0)
(0.00596342 0.00203591 0)
(0.00596925 0.00240878 0)
(0.00596317 0.00283198 0)
(0.00595132 0.00330679 0)
(0.00316326 -0.00301783 0)
(0.00330974 -0.00262821 0)
(0.00350616 -0.00221865 0)
(0.00372643 -0.00181931 0)
(0.0039481 -0.00145626 0)
(0.004161 -0.00112133 0)
(0.00435555 -0.000811307 0)
(0.00453145 -0.00052184 0)
(0.004689 -0.000248417 0)
(0.00482781 1.51117e-05 0)
(0.00494775 0.00027384 0)
(0.00505176 0.000531995 0)
(0.00513937 0.000796436 0)
(0.00520789 0.0010738 0)
(0.00526545 0.00136866 0)
(0.00530832 0.0016903 0)
(0.00533831 0.00204351 0)
(0.00536099 0.00243758 0)
(0.00537296 0.00287979 0)
(0.00537693 0.00337109 0)
(0.00276398 -0.0031582 0)
(0.00292918 -0.0027892 0)
(0.00311115 -0.00241103 0)
(0.00330632 -0.00202778 0)
(0.00350163 -0.00166347 0)
(0.00369165 -0.00131688 0)
(0.00386924 -0.000989995 0)
(0.00403224 -0.00068108 0)
(0.00418004 -0.000386145 0)
(0.00431107 -0.000100172 0)
(0.00442434 0.000180722 0)
(0.00452272 0.000460352 0)
(0.00460483 0.000745573 0)
(0.00466884 0.00104241 0)
(0.0047239 0.00135524 0)
(0.00476468 0.00169427 0)
(0.00479508 0.00206133 0)
(0.00481777 0.0024678 0)
(0.00483251 0.00292019 0)
(0.00484051 0.00341463 0)
(0.0022873 -0.00337935 0)
(0.00247793 -0.00296914 0)
(0.00266633 -0.0025806 0)
(0.00285546 -0.00219754 0)
(0.00303828 -0.00182948 0)
(0.0032151 -0.00147487 0)
(0.00337957 -0.00113635 0)
(0.00353066 -0.000812449 0)
(0.00366845 -0.000500327 0)
(0.00379072 -0.000196048 0)
(0.00389649 0.000103109 0)
(0.00398913 0.000400498 0)
(0.00406635 0.000703157 0)
(0.00412715 0.00101609 0)
(0.00418068 0.001343 0)
(0.0042206 0.00169511 0)
(0.00425264 0.00207271 0)
(0.00427623 0.0024878 0)
(0.00429465 0.00294477 0)
(0.00431025 0.00343477 0)
(0.0018114 -0.00362641 0)
(0.0020201 -0.00318694 0)
(0.00221395 -0.00277969 0)
(0.00240051 -0.00238308 0)
(0.0025744 -0.00200207 0)
(0.00274106 -0.00163489 0)
(0.00289387 -0.00128185 0)
(0.00303436 -0.000941883 0)
(0.00316286 -0.000613032 0)
(0.00327661 -0.000291684 0)
(0.00337501 2.40622e-05 0)
(0.00346223 0.000337446 0)
(0.00353506 0.000655995 0)
(0.0035933 0.000983426 0)
(0.00364533 0.00132304 0)
(0.00368392 0.00168593 0)
(0.0037174 0.00207186 0)
(0.0037426 0.00249284 0)
(0.00376524 0.00294917 0)
(0.00379026 0.00343212 0)
(0.0013752 -0.0038577 0)
(0.00158282 -0.00339557 0)
(0.00177573 -0.00296983 0)
(0.00195679 -0.00255905 0)
(0.00212483 -0.00216575 0)
(0.00228263 -0.0017864 0)
(0.00242562 -0.00141909 0)
(0.00255671 -0.00106433 0)
(0.00267635 -0.000720461 0)
(0.00278167 -0.000383752 0)
(0.00287273 -5.31242e-05 0)
(0.00295402 0.000274646 0)
(0.00302161 0.000607657 0)
(0.00307644 0.000947908 0)
(0.00312567 0.0012989 0)
(0.0031618 0.00167068 0)
(0.00319535 0.0020625 0)
(0.00322222 0.00248556 0)
(0.00324991 0.00293671 0)
(0.00328282 0.00341388 0)
(0.000979993 -0.00407979 0)
(0.001177 -0.00360121 0)
(0.00136203 -0.00315757 0)
(0.0015353 -0.00273106 0)
(0.00169627 -0.00232411 0)
(0.0018441 -0.00193051 0)
(0.00197737 -0.00154845 0)
(0.00209904 -0.00117947 0)
(0.00220964 -0.000821439 0)
(0.00230632 -0.00047028 0)
(0.00238973 -0.000125763 0)
(0.00246424 0.000215381 0)
(0.00252514 0.000561704 0)
(0.00257514 0.000913276 0)
(0.00261996 0.00127421 0)
(0.00265316 0.00165245 0)
(0.00268604 0.00204721 0)
(0.00271442 0.0024683 0)
(0.00274697 0.00291276 0)
(0.00278369 0.00338509 0)
(0.000624398 -0.00428044 0)
(0.00080503 -0.00379287 0)
(0.000976232 -0.00333598 0)
(0.00113964 -0.00289587 0)
(0.00128986 -0.00247498 0)
(0.00142651 -0.00206652 0)
(0.00154907 -0.0016702 0)
(0.00166041 -0.00128764 0)
(0.00176123 -0.000916066 0)
(0.00184864 -0.000550976 0)
(0.00192376 -0.000193089 0)
(0.00199053 0.000160839 0)
(0.00204356 0.000519236 0)
(0.00208771 0.000880274 0)
(0.00212728 0.00124903 0)
(0.00215749 0.00163092 0)
(0.00218948 0.00202554 0)
(0.00221865 0.00244204 0)
(0.00225366 0.00288094 0)
(0.00229119 0.00334362 0)
(0.000302677 -0.00446031 0)
(0.000464021 -0.00396874 0)
(0.000617571 -0.00350157 0)
(0.000766668 -0.00304934 0)
(0.000902565 -0.00261424 0)
(0.00102649 -0.00219184 0)
(0.00113693 -0.00178251 0)
(0.00123709 -0.00138738 0)
(0.00132764 -0.00100332 0)
(0.00140564 -0.000625208 0)
(0.00147242 -0.000254806 0)
(0.00153129 0.000111072 0)
(0.00157653 0.000479974 0)
(0.00161491 0.000848364 0)
(0.00164988 0.00122227 0)
(0.00167778 0.00160522 0)
(0.0017088 0.00199772 0)
(0.00173802 0.00240906 0)
(0.00177267 0.00284199 0)
(0.00181279 0.00328782 0)
(1.06703e-05 -0.00461921 0)
(0.000148884 -0.00412619 0)
(0.000281948 -0.00365083 0)
(0.000411938 -0.00318804 0)
(0.000531732 -0.00274061 0)
(0.000641529 -0.00230668 0)
(0.000739127 -0.00188607 0)
(0.000828253 -0.00147958 0)
(0.000908733 -0.00108415 0)
(0.000977737 -0.000693988 0)
(0.00103669 -0.000312003 0)
(0.00108832 6.48964e-05 0)
(0.00112707 0.000442737 0)
(0.00116071 0.000816674 0)
(0.00119201 0.00119362 0)
(0.00121788 0.00157636 0)
(0.00124726 0.00196633 0)
(0.00127565 0.00237296 0)
(0.00130917 0.00279527 0)
(0.00135541 0.00322364 0)
(-0.000256908 -0.00475703 0)
(-0.000144202 -0.00426286 0)
(-3.36962e-05 -0.00378153 0)
(7.52204e-05 -0.0033108 0)
(0.000178213 -0.0028545 0)
(0.000273045 -0.00241144 0)
(0.000357626 -0.00198096 0)
(0.000436133 -0.00156384 0)
(0.000506479 -0.00115755 0)
(0.000566441 -0.000756064 0)
(0.00061755 -0.000363437 0)
(0.000662318 2.33038e-05 0)
(0.000695601 0.000408536 0)
(0.0007252 0.000786611 0)
(0.000752955 0.00116522 0)
(0.000775848 0.00154725 0)
(0.000802366 0.00193425 0)
(0.000828835 0.00233457 0)
(0.000863221 0.00274078 0)
(0.000913543 0.00315556 0)
(-0.000507935 -0.00487372 0)
(-0.000420603 -0.00437831 0)
(-0.000332865 -0.00389362 0)
(-0.000244347 -0.00341815 0)
(-0.000158711 -0.00295563 0)
(-7.94006e-05 -0.00250463 0)
(-8.52282e-06 -0.00206499 0)
(5.87632e-05 -0.00163764 0)
(0.000118234 -0.00122066 0)
(0.000168656 -0.000809224 0)
(0.00021181 -0.000407898 0)
(0.00025024 -1.37582e-05 0)
(0.00027896 0.000376516 0)
(0.000305097 0.00075725 0)
(0.000329531 0.0011367 0)
(0.000348971 0.00151753 0)
(0.000372651 0.00190007 0)
(0.000397365 0.00228989 0)
(0.000434807 0.00268042 0)
(0.000483109 0.0030793 0)
(-0.000749115 -0.0049701 0)
(-0.000685369 -0.00447536 0)
(-0.000619319 -0.00398929 0)
(-0.000550897 -0.00351103 0)
(-0.000483615 -0.00304306 0)
(-0.000420696 -0.00258472 0)
(-0.000364577 -0.00213701 0)
(-0.000309518 -0.00170126 0)
(-0.000260512 -0.00127486 0)
(-0.00021874 -0.000855948 0)
(-0.000182042 -0.000448493 0)
(-0.000148129 -4.93815e-05 0)
(-0.000122388 0.000344318 0)
(-9.86801e-05 0.000727457 0)
(-7.66934e-05 0.00110823 0)
(-5.95876e-05 0.00148762 0)
(-3.70986e-05 0.00186393 0)
(-1.18305e-05 0.00224056 0)
(2.6805e-05 0.00262016 0)
(7.34881e-05 0.00299789 0)
(-0.000985318 -0.0050491 0)
(-0.000943145 -0.00455726 0)
(-0.000898535 -0.00407033 0)
(-0.000850817 -0.0035896 0)
(-0.000802068 -0.0031169 0)
(-0.00075546 -0.00265281 0)
(-0.000713159 -0.00219888 0)
(-0.000670234 -0.00175765 0)
(-0.000629541 -0.00132352 0)
(-0.000594282 -0.000898447 0)
(-0.000562076 -0.000485871 0)
(-0.000531421 -8.22441e-05 0)
(-0.000508428 0.000315015 0)
(-0.000487494 0.000700826 0)
(-0.000468083 0.00108246 0)
(-0.000452251 0.00145876 0)
(-0.000429827 0.00182688 0)
(-0.00040285 0.00219226 0)
(-0.000368025 0.00255919 0)
(-0.00031797 0.00291756 0)
(-0.0012217 -0.00511339 0)
(-0.00120088 -0.00462369 0)
(-0.00117766 -0.00413612 0)
(-0.00114942 -0.00365374 0)
(-0.00111692 -0.00317829 0)
(-0.00108515 -0.00271041 0)
(-0.00105414 -0.00225091 0)
(-0.00102314 -0.00180486 0)
(-0.000990264 -0.00136501 0)
(-0.000960965 -0.000934857 0)
(-0.000933033 -0.000518561 0)
(-0.000905724 -0.000111819 0)
(-0.000885542 0.000288106 0)
(-0.00086674 0.000675537 0)
(-0.000848252 0.001056 0)
(-0.000831517 0.00142718 0)
(-0.000807915 0.00178681 0)
(-0.000781616 0.00214486 0)
(-0.000750139 0.00249277 0)
(-0.000699464 0.00283235 0)
(-0.00146592 -0.00516266 0)
(-0.00146683 -0.00467441 0)
(-0.00146226 -0.00418766 0)
(-0.00145018 -0.00370538 0)
(-0.00143157 -0.00322812 0)
(-0.00141414 -0.00275646 0)
(-0.00139374 -0.00229295 0)
(-0.00137284 -0.00184331 0)
(-0.00134663 -0.00140258 0)
(-0.00132089 -0.000970208 0)
(-0.00129473 -0.000550127 0)
(-0.00126867 -0.000139145 0)
(-0.00124897 0.000263936 0)
(-0.00122897 0.000652146 0)
(-0.00120763 0.00103027 0)
(-0.00118823 0.00139698 0)
(-0.00116346 0.00175129 0)
(-0.00114041 0.00210019 0)
(-0.00110606 0.00242988 0)
(-0.00105809 0.0027462 0)
(-0.00172463 -0.00519518 0)
(-0.00174467 -0.00471301 0)
(-0.00175534 -0.00422843 0)
(-0.00175757 -0.00374617 0)
(-0.00175277 -0.0032678 0)
(-0.00174714 -0.00279354 0)
(-0.0017357 -0.00232965 0)
(-0.00171888 -0.00187735 0)
(-0.0016965 -0.00143522 0)
(-0.00167463 -0.00100095 0)
(-0.00165172 -0.00057802 0)
(-0.0016269 -0.000164521 0)
(-0.00160543 0.000239434 0)
(-0.00158121 0.000626961 0)
(-0.00155502 0.00100368 0)
(-0.00153276 0.00136861 0)
(-0.00150776 0.0017199 0)
(-0.00148462 0.00205325 0)
(-0.0014471 0.00236737 0)
(-0.00139687 0.00266093 0)
(-0.00200233 -0.00521977 0)
(-0.00203695 -0.00474078 0)
(-0.00206269 -0.00425733 0)
(-0.00207784 -0.00377565 0)
(-0.00208654 -0.00329815 0)
(-0.00208837 -0.002825 0)
(-0.00208402 -0.00236176 0)
(-0.00207006 -0.00190952 0)
(-0.0020498 -0.00146558 0)
(-0.00202973 -0.00102876 0)
(-0.00200697 -0.000604097 0)
(-0.00197896 -0.000190562 0)
(-0.00195103 0.000212404 0)
(-0.00191985 0.000599811 0)
(-0.00188932 0.00097817 0)
(-0.00186395 0.00134314 0)
(-0.0018345 0.00168707 0)
(-0.00180025 0.00200667 0)
(-0.00176446 0.00230613 0)
(-0.00172157 0.00257859 0)
(-0.00230192 -0.00523526 0)
(-0.00235136 -0.00475672 0)
(-0.0023907 -0.00427677 0)
(-0.0024174 -0.00379869 0)
(-0.00243316 -0.00332169 0)
(-0.00243951 -0.00285109 0)
(-0.00243757 -0.00238972 0)
(-0.00242616 -0.00193823 0)
(-0.00240837 -0.00149287 0)
(-0.00238802 -0.00105549 0)
(-0.00235963 -0.000632662 0)
(-0.00232275 -0.000220509 0)
(-0.00228805 0.000184533 0)
(-0.00225268 0.000574804 0)
(-0.00221461 0.000952032 0)
(-0.00217473 0.00131349 0)
(-0.00213209 0.00165064 0)
(-0.00209476 0.00196924 0)
(-0.00205807 0.00225308 0)
(-0.00200807 0.00249798 0)
(-0.00263164 -0.00523785 0)
(-0.00269634 -0.00476375 0)
(-0.0027456 -0.00428923 0)
(-0.00278108 -0.0038158 0)
(-0.0027994 -0.00334489 0)
(-0.00280675 -0.00287621 0)
(-0.00280707 -0.00241506 0)
(-0.0027982 -0.00196484 0)
(-0.00277769 -0.00152322 0)
(-0.00274857 -0.0010898 0)
(-0.00271223 -0.000667147 0)
(-0.00267202 -0.000252799 0)
(-0.00263089 0.000151695 0)
(-0.00257911 0.000539462 0)
(-0.00252334 0.000916298 0)
(-0.0024745 0.00127899 0)
(-0.0024175 0.00161419 0)
(-0.00236664 0.00192749 0)
(-0.00232074 0.00220074 0)
(-0.00226801 0.00242448 0)
(-0.00299257 -0.00523729 0)
(-0.00306612 -0.00476423 0)
(-0.00312215 -0.00429498 0)
(-0.00315874 -0.00382898 0)
(-0.00318023 -0.00336221 0)
(-0.0031909 -0.0028959 0)
(-0.00318966 -0.00243917 0)
(-0.00317199 -0.00199498 0)
(-0.00314236 -0.00155684 0)
(-0.00311 -0.00112396 0)
(-0.00306921 -0.000702979 0)
(-0.00301446 -0.00029239 0)
(-0.00295726 0.000109557 0)
(-0.00289604 0.000497441 0)
(-0.00282476 0.000873682 0)
(-0.00275429 0.00123416 0)
(-0.00267662 0.0015749 0)
(-0.00260329 0.00188388 0)
(-0.00253579 0.0021524 0)
(-0.00246619 0.00235304 0)
(-4.89753e-07 -0.0102536 0)
(1.10137e-05 -0.0100486 0)
(6.21953e-05 -0.00965732 0)
(0.000180312 -0.00908115 0)
(0.000382908 -0.00835761 0)
(0.000684776 -0.00750313 0)
(0.00109245 -0.00655841 0)
(0.00160375 -0.00555892 0)
(0.0021917 -0.0045522 0)
(0.00288847 -0.00358148 0)
(-2.87712e-05 -0.0101883 0)
(-7.35944e-05 -0.00999552 0)
(-8.15244e-05 -0.00963394 0)
(-2.55161e-05 -0.00909539 0)
(0.000112802 -0.00841869 0)
(0.000347097 -0.00761646 0)
(0.000692451 -0.00672198 0)
(0.00114032 -0.00577007 0)
(0.00168865 -0.00479558 0)
(0.00235382 -0.00381206 0)
(-4.64916e-05 -0.0101059 0)
(-0.000127835 -0.009925 0)
(-0.000173121 -0.00959147 0)
(-0.000160919 -0.00909089 0)
(-7.09604e-05 -0.00845983 0)
(0.000107322 -0.00771316 0)
(0.000393786 -0.00687623 0)
(0.000775032 -0.00598151 0)
(0.00126345 -0.00504624 0)
(0.00185677 -0.00407422 0)
(-5.68875e-05 -0.010021 0)
(-0.000164026 -0.00985176 0)
(-0.000236526 -0.00954548 0)
(-0.000257785 -0.00908262 0)
(-0.000208477 -0.00849633 0)
(-7.84123e-05 -0.00780284 0)
(0.00015047 -0.00701811 0)
(0.000465268 -0.00617324 0)
(0.000883626 -0.00527352 0)
(0.00139778 -0.00432912 0)
(-6.57236e-05 -0.00993524 0)
(-0.000189726 -0.00977699 0)
(-0.000284779 -0.0094958 0)
(-0.000333588 -0.00906748 0)
(-0.00031916 -0.00852172 0)
(-0.000231993 -0.00787642 0)
(-5.48039e-05 -0.00713995 0)
(0.000200518 -0.00633873 0)
(0.000554027 -0.00547415 0)
(0.000997428 -0.00455926 0)
(-7.42244e-05 -0.00985009 0)
(-0.000209741 -0.00970172 0)
(-0.000322376 -0.00943956 0)
(-0.000392922 -0.00904311 0)
(-0.000406877 -0.00853291 0)
(-0.000357377 -0.00792803 0)
(-0.000227697 -0.00723556 0)
(-2.65297e-05 -0.00647555 0)
(0.000264521 -0.00564924 0)
(0.000642143 -0.00476883 0)
(-7.951e-05 -0.00976576 0)
(-0.000226816 -0.00962893 0)
(-0.000353083 -0.0093809 0)
(-0.000442212 -0.00901401 0)
(-0.000482151 -0.00853569 0)
(-0.000464881 -0.00796601 0)
(-0.000378343 -0.00731272 0)
(-0.00022483 -0.00659024 0)
(1.05615e-05 -0.00580089 0)
(0.000328415 -0.00495599 0)
(-8.35688e-05 -0.0096844 0)
(-0.000242166 -0.00955751 0)
(-0.000379231 -0.00932102 0)
(-0.000485201 -0.00897964 0)
(-0.000548992 -0.00852844 0)
(-0.000560408 -0.00798902 0)
(-0.000511884 -0.00736988 0)
(-0.00040065 -0.00668272 0)
(-0.000214716 -0.00592985 0)
(4.91208e-05 -0.00512204 0)
(-8.99658e-05 -0.00960604 0)
(-0.000257461 -0.00948778 0)
(-0.000404647 -0.00926182 0)
(-0.000526874 -0.00894065 0)
(-0.000611492 -0.00851198 0)
(-0.000649528 -0.00799888 0)
(-0.000634232 -0.00741012 0)
(-0.000559687 -0.00675604 0)
(-0.000417085 -0.00603748 0)
(-0.000202316 -0.00526497 0)
(-9.68801e-05 -0.00952797 0)
(-0.000272325 -0.00942018 0)
(-0.000431362 -0.0092028 0)
(-0.000569718 -0.00889683 0)
(-0.000673304 -0.00848765 0)
(-0.000735663 -0.00799735 0)
(-0.000749373 -0.00743543 0)
(-0.000707288 -0.00681113 0)
(-0.000603166 -0.00612422 0)
(-0.000433447 -0.00538436 0)
(-0.000102161 -0.00945066 0)
(-0.000288031 -0.00935483 0)
(-0.000461247 -0.0091436 0)
(-0.000614803 -0.00884885 0)
(-0.000736808 -0.00845716 0)
(-0.00082106 -0.00798688 0)
(-0.000860725 -0.00744816 0)
(-0.000848931 -0.00684927 0)
(-0.000779634 -0.00619158 0)
(-0.000650622 -0.00548319 0)
(-0.00010695 -0.00937672 0)
(-0.000307065 -0.00929015 0)
(-0.000495853 -0.00908379 0)
(-0.000663655 -0.00879789 0)
(-0.000804216 -0.00842167 0)
(-0.000908809 -0.00796877 0)
(-0.000972544 -0.00744971 0)
(-0.000989268 -0.00687298 0)
(-0.000951428 -0.00624284 0)
(-0.00085889 -0.00556479 0)
(-0.000113523 -0.00930581 0)
(-0.000330704 -0.0092238 0)
(-0.000536195 -0.00902285 0)
(-0.000719001 -0.00874478 0)
(-0.000878509 -0.00838184 0)
(-0.00100313 -0.00794378 0)
(-0.00108985 -0.0074412 0)
(-0.00113254 -0.00688533 0)
(-0.00112318 -0.00628062 0)
(-0.00106389 -0.00562939 0)
(-0.000122434 -0.0092348 0)
(-0.000358141 -0.00915445 0)
(-0.000582309 -0.00896058 0)
(-0.000782964 -0.00868959 0)
(-0.000962247 -0.00833727 0)
(-0.00110756 -0.00791177 0)
(-0.00121655 -0.00742376 0)
(-0.00128278 -0.0068875 0)
(-0.00130011 -0.00630399 0)
(-0.00127194 -0.0056766 0)
(-0.000132559 -0.00916087 0)
(-0.00038831 -0.00908159 0)
(-0.000634434 -0.00889595 0)
(-0.000856629 -0.00863098 0)
(-0.00105681 -0.00828699 0)
(-0.00122367 -0.00787209 0)
(-0.00135474 -0.00739937 0)
(-0.00144444 -0.00688141 0)
(-0.00148897 -0.00631531 0)
(-0.00149081 -0.00571189 0)
(-0.000143523 -0.00908292 0)
(-0.00042241 -0.00900417 0)
(-0.000694051 -0.00882605 0)
(-0.000940703 -0.00856664 0)
(-0.00116338 -0.00823207 0)
(-0.00135356 -0.00782857 0)
(-0.00150823 -0.00737001 0)
(-0.00162322 -0.00686501 0)
(-0.00169602 -0.00631546 0)
(-0.00172466 -0.00573264 0)
(-0.000156421 -0.00899973 0)
(-0.000462922 -0.00892038 0)
(-0.000763074 -0.00874987 0)
(-0.00103725 -0.00849732 0)
(-0.00128524 -0.0081705 0)
(-0.00150129 -0.00777743 0)
(-0.00168228 -0.0073308 0)
(-0.00182532 -0.00683585 0)
(-0.00192445 -0.00630589 0)
(-0.00197938 -0.00574163 0)
(-0.000172426 -0.00890898 0)
(-0.000511744 -0.00882931 0)
(-0.000843601 -0.00866555 0)
(-0.00114975 -0.00842025 0)
(-0.00142829 -0.00810317 0)
(-0.00167407 -0.00772099 0)
(-0.00188385 -0.00728442 0)
(-0.00205577 -0.00680178 0)
(-0.00217742 -0.00628699 0)
(-0.00225956 -0.00574288 0)
(-0.00019223 -0.00880889 0)
(-0.000570582 -0.00872903 0)
(-0.000939028 -0.00857073 0)
(-0.00128151 -0.00833406 0)
(-0.00159489 -0.00802692 0)
(-0.0018747 -0.00765445 0)
(-0.00211702 -0.00722646 0)
(-0.00231657 -0.0067595 0)
(-0.00246469 -0.00625789 0)
(-0.00257173 -0.00573376 0)
(-0.000215333 -0.00869109 0)
(-0.000638654 -0.00861461 0)
(-0.00104966 -0.00846254 0)
(-0.00143626 -0.00823567 0)
(-0.00179225 -0.00793977 0)
(-0.00211057 -0.00757847 0)
(-0.00238647 -0.00716431 0)
(-0.00260854 -0.00671253 0)
(-0.00278318 -0.00622587 0)
(-0.00291526 -0.00572108 0)
)


// ************************************************************************* //
