/*--------------------------------*- C++ -*----------------------------------*\
| =========                 |                                                 |
| \\      /  F ield         | foam-extend: Open Source CFD                    |
|  \\    /   O peration     | Version:     4.1                                |
|   \\  /    A nd           | Web:         http://www.foam-extend.org         |
|    \\/     M anipulation  |                                                 |
\*---------------------------------------------------------------------------*/
FoamFile
{
    version     2.0;
    format      ascii;
    class       vectorField;
    location    "1";
    object      residualD_iteration10;
}
// * * * * * * * * * * * * * * * * * * * * * * * * * * * * * * * * * * * * * //


1000
(
(0.00734191 -0.00756952 0)
(0.00630045 -0.00671145 0)
(0.00552918 -0.00602792 0)
(0.00496512 -0.00554741 0)
(0.00454533 -0.00517155 0)
(0.00421987 -0.0048779 0)
(0.0039696 -0.0046333 0)
(0.00377027 -0.00441451 0)
(0.00362364 -0.0042217 0)
(0.003629 -0.00398977 0)
(0.00652891 -0.00827176 0)
(0.00543965 -0.00754576 0)
(0.00465242 -0.0069341 0)
(0.00408032 -0.00649405 0)
(0.00366513 -0.0061389 0)
(0.00336431 -0.00585321 0)
(0.00314812 -0.00560832 0)
(0.00299622 -0.00539535 0)
(0.002904 -0.00520958 0)
(0.00290469 -0.00499677 0)
(0.00572845 -0.00893826 0)
(0.00462931 -0.00836117 0)
(0.00383867 -0.00784406 0)
(0.00327904 -0.00746061 0)
(0.00288225 -0.00714266 0)
(0.00260613 -0.00688058 0)
(0.00241811 -0.00665235 0)
(0.002291 -0.00645991 0)
(0.00222004 -0.00629563 0)
(0.00222266 -0.00611263 0)
(0.00492602 -0.00955826 0)
(0.00386388 -0.00914185 0)
(0.00310296 -0.00872956 0)
(0.0025737 -0.00841224 0)
(0.00220722 -0.00813534 0)
(0.00195569 -0.00790139 0)
(0.00178648 -0.00769604 0)
(0.00167546 -0.0075261 0)
(0.00161347 -0.00737939 0)
(0.00161007 -0.00722838 0)
(0.00414107 -0.0101195 0)
(0.00314663 -0.00986662 0)
(0.00244523 -0.00955566 0)
(0.00196599 -0.00930478 0)
(0.00163478 -0.00907447 0)
(0.00140896 -0.00887449 0)
(0.00125946 -0.00869451 0)
(0.00116731 -0.00854706 0)
(0.0011147 -0.00842031 0)
(0.0011069 -0.00829548 0)
(0.00336088 -0.0106123 0)
(0.00248796 -0.0105136 0)
(0.00187301 -0.0103032 0)
(0.0014523 -0.0101168 0)
(0.00116402 -0.00992819 0)
(0.000973057 -0.00975869 0)
(0.000846984 -0.00960448 0)
(0.000769466 -0.0094759 0)
(0.000724083 -0.00936641 0)
(0.000712898 -0.00926458 0)
(0.00259966 -0.0110227 0)
(0.00187747 -0.0110592 0)
(0.00136985 -0.0109379 0)
(0.00102478 -0.0108119 0)
(0.000792602 -0.0106619 0)
(0.000638585 -0.0105172 0)
(0.000536779 -0.010383 0)
(0.000474159 -0.0102697 0)
(0.000437054 -0.0101741 0)
(0.000424885 -0.0100905 0)
(0.00184884 -0.0113433 0)
(0.00130938 -0.0114903 0)
(0.00093095 -0.0114395 0)
(0.000672783 -0.0113599 0)
(0.000503368 -0.0112392 0)
(0.000390595 -0.0111175 0)
(0.000315029 -0.0110022 0)
(0.000266993 -0.0109019 0)
(0.000238534 -0.0108176 0)
(0.000228908 -0.0107492 0)
(0.00110549 -0.0115631 0)
(0.000770101 -0.0117858 0)
(0.000538292 -0.011783 0)
(0.00038195 -0.0117357 0)
(0.00027789 -0.0116368 0)
(0.000205723 -0.0115307 0)
(0.00015862 -0.0114272 0)
(0.00013138 -0.0113351 0)
(0.000115295 -0.0112569 0)
(0.000108676 -0.0111976 0)
(0.000368871 -0.0116727 0)
(0.000258254 -0.0119356 0)
(0.00017751 -0.0119582 0)
(0.000121649 -0.0119285 0)
(8.76529e-05 -0.011842 0)
(6.54632e-05 -0.0117459 0)
(4.83945e-05 -0.0116475 0)
(3.80174e-05 -0.0115588 0)
(3.33255e-05 -0.0114853 0)
(3.15845e-05 -0.0114331 0)
(0.0126715 -0.000343076 0)
(0.0128571 -0.000230484 0)
(0.0128355 -0.000152543 0)
(0.0127571 -9.87567e-05 0)
(0.0126335 -6.10234e-05 0)
(0.0124978 -3.65822e-05 0)
(0.0123628 -2.22167e-05 0)
(0.0122398 -8.91597e-06 0)
(0.0121305 -6.67816e-07 0)
(0.0120323 3.34256e-06 0)
(0.0125415 -0.00103333 0)
(0.0126917 -0.000700639 0)
(0.0126475 -0.000465802 0)
(0.0125526 -0.000310742 0)
(0.0124165 -0.000206349 0)
(0.0122746 -0.000129249 0)
(0.0121334 -7.96915e-05 0)
(0.0120053 -4.66908e-05 0)
(0.0118933 -2.6136e-05 0)
(0.0117891 -9.43315e-06 0)
(0.0123047 -0.00172651 0)
(0.012376 -0.00119137 0)
(0.0122826 -0.00081225 0)
(0.012155 -0.000556333 0)
(0.0119964 -0.000384062 0)
(0.0118389 -0.000263251 0)
(0.0116862 -0.00018516 0)
(0.0115546 -0.000129861 0)
(0.0114339 -9.3987e-05 0)
(0.0113184 -6.74196e-05 0)
(0.0119562 -0.00243213 0)
(0.0119128 -0.00171585 0)
(0.0117493 -0.00120891 0)
(0.0115738 -0.000867707 0)
(0.0113872 -0.000636495 0)
(0.0112144 -0.00047238 0)
(0.0110449 -0.000364564 0)
(0.0108992 -0.000288417 0)
(0.0107654 -0.000233623 0)
(0.0106319 -0.000195707 0)
(0.0115075 -0.00314687 0)
(0.0113225 -0.00228336 0)
(0.0110704 -0.00166938 0)
(0.0108391 -0.00125585 0)
(0.0106151 -0.00097623 0)
(0.0104158 -0.000777666 0)
(0.0102281 -0.000641589 0)
(0.0100673 -0.000543747 0)
(0.00992015 -0.000469495 0)
(0.00976469 -0.000419843 0)
(0.0109617 -0.00387448 0)
(0.0106222 -0.00290373 0)
(0.0102725 -0.00220975 0)
(0.00997653 -0.00174001 0)
(0.00970915 -0.00141958 0)
(0.00947947 -0.0011909 0)
(0.00926972 -0.00103125 0)
(0.00909015 -0.000915231 0)
(0.00892533 -0.000825623 0)
(0.00873959 -0.000764461 0)
(0.0103379 -0.00461326 0)
(0.00983296 -0.00357854 0)
(0.00937813 -0.00283253 0)
(0.009013 -0.00232318 0)
(0.0087013 -0.00197092 0)
(0.00844159 -0.00171969 0)
(0.00820869 -0.0015421 0)
(0.00800948 -0.00140877 0)
(0.00782674 -0.00130137 0)
(0.00760529 -0.00122466 0)
(0.00964636 -0.00535797 0)
(0.00898096 -0.00430485 0)
(0.00842929 -0.00353488 0)
(0.00799726 -0.00300693 0)
(0.00764533 -0.00263448 0)
(0.00735571 -0.00236905 0)
(0.00710076 -0.00218045 0)
(0.00687708 -0.00203509 0)
(0.00667148 -0.00191285 0)
(0.00640616 -0.00182138 0)
(0.00890498 -0.00610515 0)
(0.00809201 -0.00507453 0)
(0.00744603 -0.00431099 0)
(0.00695395 -0.00378234 0)
(0.00656248 -0.00340004 0)
(0.00624259 -0.0031227 0)
(0.00596805 -0.00292312 0)
(0.00572388 -0.00276742 0)
(0.00551046 -0.00263613 0)
(0.0052208 -0.00252877 0)
(0.00812983 -0.00684901 0)
(0.007195 -0.00588381 0)
(0.00647279 -0.00514776 0)
(0.00593604 -0.00463354 0)
(0.00551894 -0.00424994 0)
(0.00518583 -0.00396188 0)
(0.00490656 -0.0037445 0)
(0.00464172 -0.00356821 0)
(0.00440925 -0.00340716 0)
(0.0041194 -0.00328624 0)
(0.0119649 6.57853e-06 0)
(0.0118977 1.59602e-05 0)
(0.0118377 2.30649e-05 0)
(0.0117865 2.90684e-05 0)
(0.0117411 3.35245e-05 0)
(0.0116996 3.77558e-05 0)
(0.0116604 4.4322e-05 0)
(0.0116258 5.22477e-05 0)
(0.0115962 6.03746e-05 0)
(0.0115663 6.89748e-05 0)
(0.0115345 7.80573e-05 0)
(0.0115027 8.81924e-05 0)
(0.0114685 0.000100624 0)
(0.0114285 0.000115428 0)
(0.011381 0.000131946 0)
(0.0113252 0.000150195 0)
(0.0112573 0.000170649 0)
(0.0111733 0.000193543 0)
(0.0110723 0.00021918 0)
(0.0109455 0.00024902 0)
(0.0117323 5.7941e-06 0)
(0.0116875 3.67882e-05 0)
(0.0116469 5.78579e-05 0)
(0.0116118 7.61225e-05 0)
(0.0115782 9.3907e-05 0)
(0.0115467 0.000110059 0)
(0.0115183 0.000127645 0)
(0.0114922 0.000147915 0)
(0.0114677 0.000171216 0)
(0.0114405 0.000197817 0)
(0.0114109 0.000226644 0)
(0.0113804 0.000258011 0)
(0.0113476 0.000294165 0)
(0.0113105 0.000336393 0)
(0.0112684 0.000384931 0)
(0.0112191 0.000440545 0)
(0.0111569 0.000503825 0)
(0.0110775 0.000575097 0)
(0.0109824 0.000656317 0)
(0.0108568 0.000749091 0)
(0.0112865 -3.87038e-05 0)
(0.0112842 1.86839e-05 0)
(0.0112742 5.82471e-05 0)
(0.0112651 9.12426e-05 0)
(0.0112554 0.000123128 0)
(0.0112432 0.000153704 0)
(0.0112294 0.000188283 0)
(0.0112146 0.000227073 0)
(0.0112013 0.000268249 0)
(0.011183 0.000312256 0)
(0.0111609 0.000359699 0)
(0.0111359 0.000412591 0)
(0.011107 0.000473581 0)
(0.0110733 0.000543485 0)
(0.0110334 0.000622577 0)
(0.0109841 0.000712607 0)
(0.0109239 0.000815653 0)
(0.0108497 0.000934041 0)
(0.0107623 0.0010727 0)
(0.0106476 0.00123225 0)
(0.0106341 -0.000148648 0)
(0.010693 -6.02107e-05 0)
(0.0107315 3.60173e-06 0)
(0.0107631 5.88511e-05 0)
(0.010787 0.000112748 0)
(0.0108017 0.000164444 0)
(0.0108114 0.000220177 0)
(0.0108143 0.000278076 0)
(0.0108139 0.000337393 0)
(0.0108065 0.000401297 0)
(0.010795 0.000471442 0)
(0.0107795 0.000549097 0)
(0.0107586 0.000635837 0)
(0.0107323 0.000732963 0)
(0.0106993 0.000842044 0)
(0.010655 0.000965332 0)
(0.0106006 0.0011054 0)
(0.0105327 0.00126773 0)
(0.0104506 0.00145954 0)
(0.0103477 0.00168087 0)
(0.00980715 -0.000346328 0)
(0.00993882 -0.000217529 0)
(0.0100333 -0.000120495 0)
(0.0101137 -3.41603e-05 0)
(0.0101805 4.94555e-05 0)
(0.0102301 0.000126693 0)
(0.0102659 0.00020772 0)
(0.0102921 0.000289491 0)
(0.0103081 0.000373134 0)
(0.0103137 0.00046192 0)
(0.0103138 0.000556345 0)
(0.0103091 0.000657589 0)
(0.0102982 0.000768369 0)
(0.0102806 0.000891808 0)
(0.0102551 0.00103071 0)
(0.0102206 0.00118747 0)
(0.0101742 0.00136486 0)
(0.0101185 0.0015701 0)
(0.0100471 0.00181325 0)
(0.00995738 0.00209232 0)
(0.00882349 -0.000652503 0)
(0.00903856 -0.000469031 0)
(0.00920031 -0.000326092 0)
(0.00933818 -0.000199012 0)
(0.0094502 -7.65922e-05 0)
(0.00953957 3.54893e-05 0)
(0.00960366 0.000150769 0)
(0.00965565 0.000262871 0)
(0.00969464 0.000373241 0)
(0.00972136 0.00048707 0)
(0.00973851 0.000605951 0)
(0.00974678 0.000731866 0)
(0.00974738 0.000868566 0)
(0.00973988 0.00101973 0)
(0.00972203 0.0011876 0)
(0.00969763 0.0013748 0)
(0.00966076 0.00158736 0)
(0.00961499 0.00183252 0)
(0.00955577 0.00212314 0)
(0.00948117 0.00245692 0)
(0.00772574 -0.00106703 0)
(0.00802256 -0.000823466 0)
(0.00824916 -0.000626267 0)
(0.0084436 -0.000446023 0)
(0.00860172 -0.000274289 0)
(0.00872939 -0.000116603 0)
(0.0088316 3.64261e-05 0)
(0.00891343 0.000181986 0)
(0.00897701 0.000323578 0)
(0.00902613 0.000466749 0)
(0.00906331 0.000614007 0)
(0.00908888 0.000767626 0)
(0.00910437 0.000931587 0)
(0.00911012 0.00110995 0)
(0.00910559 0.0013051 0)
(0.00909333 0.00152061 0)
(0.00906697 0.00176644 0)
(0.00903281 0.00204928 0)
(0.0089861 0.00238195 0)
(0.00892973 0.00276325 0)
(0.00654438 -0.00159976 0)
(0.00690985 -0.00127672 0)
(0.00719924 -0.00100779 0)
(0.00744367 -0.000761629 0)
(0.00765185 -0.000537981 0)
(0.00781475 -0.0003309 0)
(0.00795453 -0.000136073 0)
(0.00806829 4.69069e-05 0)
(0.0081606 0.000223518 0)
(0.00823507 0.000398981 0)
(0.00829472 0.000576261 0)
(0.00834215 0.000758003 0)
(0.00837878 0.000948952 0)
(0.00840213 0.0011539 0)
(0.0084143 0.00137609 0)
(0.00841698 0.0016205 0)
(0.00840315 0.00189769 0)
(0.008385 0.00221438 0)
(0.00835396 0.00258365 0)
(0.00831761 0.00300457 0)
(0.00534528 -0.00223662 0)
(0.00573987 -0.00184622 0)
(0.00606661 -0.00150936 0)
(0.00634447 -0.00119227 0)
(0.0065858 -0.000902467 0)
(0.00678572 -0.00063571 0)
(0.00695899 -0.000389292 0)
(0.00710541 -0.00015975 0)
(0.00723089 5.7718e-05 0)
(0.00733812 0.000268908 0)
(0.00742854 0.000478009 0)
(0.00750489 0.000688891 0)
(0.00756828 0.000907951 0)
(0.00761555 0.0011407 0)
(0.0076514 0.00139068 0)
(0.00767611 0.00166489 0)
(0.00768267 0.00197286 0)
(0.00768485 0.00232075 0)
(0.00767518 0.00272085 0)
(0.00766188 0.00317394 0)
(0.0041449 -0.00293453 0)
(0.0045184 -0.00245934 0)
(0.00484599 -0.00203478 0)
(0.00514192 -0.00164221 0)
(0.00540355 -0.00129287 0)
(0.00563848 -0.000975473 0)
(0.00584589 -0.000684654 0)
(0.00602988 -0.000414353 0)
(0.00619442 -0.000160388 0)
(0.0063407 8.38483e-05 0)
(0.00646913 0.000323456 0)
(0.00658248 0.000562926 0)
(0.00668074 0.000809529 0)
(0.00676084 0.00106934 0)
(0.00682952 0.00134637 0)
(0.0068843 0.00164928 0)
(0.00692309 0.00198566 0)
(0.00695511 0.00236258 0)
(0.006975 0.00278925 0)
(0.00698887 0.00326939 0)
(0.00360437 -0.00334202 0)
(0.0037666 -0.00291145 0)
(0.0039887 -0.00247074 0)
(0.00424009 -0.00204287 0)
(0.00449329 -0.00165704 0)
(0.00473741 -0.00130281 0)
(0.00496197 -0.000975994 0)
(0.0051679 -0.000672288 0)
(0.00535594 -0.000387052 0)
(0.00552503 -0.000113257 0)
(0.00567501 0.000154365 0)
(0.00580958 0.000420341 0)
(0.00592757 0.000692224 0)
(0.00602601 0.000976438 0)
(0.00611422 0.00127702 0)
(0.00618674 0.00160376 0)
(0.00624601 0.00196106 0)
(0.00629777 0.00235923 0)
(0.00633853 0.00280486 0)
(0.00636999 0.00330224 0)
(0.00315769 -0.00350786 0)
(0.00334697 -0.00310261 0)
(0.00355248 -0.00269585 0)
(0.00377618 -0.00228534 0)
(0.0040023 -0.00189813 0)
(0.00422324 -0.00153169 0)
(0.00443171 -0.0011878 0)
(0.00462588 -0.000864689 0)
(0.00480507 -0.000557857 0)
(0.00496701 -0.000261546 0)
(0.00511099 2.81112e-05 0)
(0.00524064 0.000315268 0)
(0.00535353 0.000607598 0)
(0.00544769 0.000911018 0)
(0.00553357 0.00122942 0)
(0.00560411 0.00157384 0)
(0.00566375 0.00194505 0)
(0.00571525 0.00235622 0)
(0.00575843 0.00281278 0)
(0.00579299 0.00331398 0)
(0.00263321 -0.00375365 0)
(0.00285239 -0.00330543 0)
(0.00306922 -0.00289042 0)
(0.00328921 -0.00248305 0)
(0.00350364 -0.00209371 0)
(0.00371195 -0.00172011 0)
(0.00390788 -0.0013651 0)
(0.00409037 -0.00102718 0)
(0.00425952 -0.000703126 0)
(0.00441254 -0.000388568 0)
(0.00454893 -8.09431e-05 0)
(0.0046728 0.000223507 0)
(0.00478048 0.000532797 0)
(0.00487111 0.000851841 0)
(0.00495503 0.00118397 0)
(0.00502429 0.00154146 0)
(0.00508534 0.00192328 0)
(0.00513705 0.00234348 0)
(0.00518316 0.0028049 0)
(0.00522481 0.00330118 0)
(0.002111 -0.00403668 0)
(0.00235199 -0.00355704 0)
(0.00257701 -0.00312131 0)
(0.00279668 -0.00269977 0)
(0.00300296 -0.00229717 0)
(0.00320214 -0.00191099 0)
(0.00338695 -0.00154144 0)
(0.0035592 -0.00118728 0)
(0.00371936 -0.00084637 0)
(0.00386402 -0.000514858 0)
(0.00399321 -0.000191042 0)
(0.00411175 0.000128877 0)
(0.00421496 0.000453602 0)
(0.00430302 0.000786721 0)
(0.00438533 0.00113127 0)
(0.0044529 0.00149944 0)
(0.00451528 0.00188953 0)
(0.00456825 0.00231566 0)
(0.00461813 0.00277604 0)
(0.00466953 0.00326432 0)
(0.00163344 -0.00430241 0)
(0.00187511 -0.00380059 0)
(0.00210121 -0.00334582 0)
(0.00231655 -0.0029096 0)
(0.00251829 -0.00249435 0)
(0.0027096 -0.00209574 0)
(0.00288502 -0.00171146 0)
(0.00304837 -0.00134203 0)
(0.00320021 -0.000985854 0)
(0.00333685 -0.000639013 0)
(0.00345901 -0.000300576 0)
(0.00357182 3.34746e-05 0)
(0.00366973 0.000372562 0)
(0.00375439 0.00071836 0)
(0.00383374 0.00107428 0)
(0.00389861 0.00145129 0)
(0.00396075 0.0018472 0)
(0.00401513 0.00227507 0)
(0.00406994 0.00272954 0)
(0.00412968 0.00321161 0)
(0.00120228 -0.00455837 0)
(0.00143401 -0.0040408 0)
(0.00165353 -0.00356798 0)
(0.00186167 -0.00311568 0)
(0.00205777 -0.00268658 0)
(0.00223967 -0.00227331 0)
(0.00240579 -0.00187367 0)
(0.00256041 -0.00148964 0)
(0.0027039 -0.00111911 0)
(0.00283237 -0.000757751 0)
(0.00294728 -0.000405472 0)
(0.00305344 -5.8021e-05 0)
(0.00314448 0.000294569 0)
(0.0032242 0.000651751 0)
(0.00329865 0.00101775 0)
(0.00336033 0.00140099 0)
(0.00342145 0.00179955 0)
(0.00347706 0.00222477 0)
(0.00353695 0.00267189 0)
(0.00360037 0.00314917 0)
(0.000817009 -0.00479237 0)
(0.00103277 -0.00426716 0)
(0.00123856 -0.00378135 0)
(0.00143769 -0.00331525 0)
(0.00162369 -0.0028718 0)
(0.00179452 -0.00244297 0)
(0.00195027 -0.00202846 0)
(0.0020951 -0.00163053 0)
(0.00222931 -0.00124614 0)
(0.00234881 -0.000870506 0)
(0.00245562 -0.000504554 0)
(0.00255392 -0.000143963 0)
(0.00263669 0.000221071 0)
(0.00271032 0.000587741 0)
(0.0027789 0.000961636 0)
(0.00283723 0.00134809 0)
(0.00289716 0.00174589 0)
(0.00295339 0.00216576 0)
(0.00301594 0.00260696 0)
(0.00307954 0.00307419 0)
(0.000471074 -0.0050052 0)
(0.000667896 -0.00447759 0)
(0.0008557 -0.00398184 0)
(0.00104105 -0.00350351 0)
(0.00121253 -0.00304533 0)
(0.00137059 -0.00260193 0)
(0.00151444 -0.00217407 0)
(0.00164838 -0.00176336 0)
(0.00177247 -0.0013661 0)
(0.00188256 -0.000976892 0)
(0.00198101 -0.000597852 0)
(0.00207109 -0.000224701 0)
(0.00214558 0.000151327 0)
(0.00221314 0.000525317 0)
(0.00227665 0.000904206 0)
(0.00233239 0.00129116 0)
(0.00239118 0.00168612 0)
(0.0024474 0.00210027 0)
(0.00250938 0.00253522 0)
(0.00257522 0.00298424 0)
(0.000159197 -0.00519693 0)
(0.000332408 -0.0046693 0)
(0.000499718 -0.00416565 0)
(0.000665583 -0.00367671 0)
(0.000820574 -0.00320584 0)
(0.000964561 -0.00275065 0)
(0.00109569 -0.00231143 0)
(0.0012187 -0.00188918 0)
(0.00133265 -0.0014801 0)
(0.00143359 -0.00107811 0)
(0.00152409 -0.000686681 0)
(0.00160665 -0.000301694 0)
(0.00167434 8.38137e-05 0)
(0.00173693 0.000463382 0)
(0.00179653 0.000845082 0)
(0.00185009 0.00123137 0)
(0.00190714 0.00162331 0)
(0.0019624 0.00203237 0)
(0.00202268 0.00245599 0)
(0.0020949 0.0028861 0)
(-0.000124549 -0.00536707 0)
(2.21363e-05 -0.00483941 0)
(0.000166716 -0.00433019 0)
(0.000310668 -0.00383351 0)
(0.000448687 -0.00335389 0)
(0.00057776 -0.00288961 0)
(0.000695867 -0.0024404 0)
(0.000808214 -0.00200713 0)
(0.000911849 -0.0015865 0)
(0.00100356 -0.0011723 0)
(0.00108607 -0.000769288 0)
(0.00116158 -0.000373571 0)
(0.00122371 1.98295e-05 0)
(0.0012822 0.000403599 0)
(0.00133813 0.000786757 0)
(0.00138858 0.001172 0)
(0.00144254 0.00156068 0)
(0.00149542 0.00196285 0)
(0.0015562 0.00236909 0)
(0.00163257 0.00278503 0)
(-0.00038909 -0.00551505 0)
(-0.000268433 -0.00498713 0)
(-0.000147201 -0.00447518 0)
(-2.41024e-05 -0.00397438 0)
(9.65634e-05 -0.00348891 0)
(0.000210002 -0.00301665 0)
(0.000314183 -0.00255788 0)
(0.000415093 -0.00211374 0)
(0.000507518 -0.00168161 0)
(0.000589474 -0.00125662 0)
(0.000663931 -0.00084417 0)
(0.00073299 -0.000440451 0)
(0.000790602 -4.17391e-05 0)
(0.000845704 0.000344718 0)
(0.000898291 0.00072859 0)
(0.0009451 0.00111242 0)
(0.000995883 0.00149625 0)
(0.00104643 0.00188701 0)
(0.00111038 0.0022765 0)
(0.00118414 0.00267613 0)
(-0.000641148 -0.00564173 0)
(-0.000544363 -0.00511572 0)
(-0.000445245 -0.00460318 0)
(-0.000342258 -0.00410038 0)
(-0.000240116 -0.00360972 0)
(-0.000143499 -0.00312982 0)
(-5.45781e-05 -0.00266251 0)
(3.36795e-05 -0.00220945 0)
(0.000115226 -0.00176723 0)
(0.000188347 -0.00133416 0)
(0.000256379 -0.000915101 0)
(0.000321029 -0.000506023 0)
(0.000375866 -0.000103667 0)
(0.000428725 0.000285368 0)
(0.000478856 0.000670646 0)
(0.000523129 0.00105297 0)
(0.000572361 0.00143003 0)
(0.000623232 0.00180671 0)
(0.000688332 0.00218508 0)
(0.000759822 0.00256244 0)
(-0.000884556 -0.00575069 0)
(-0.000809591 -0.00522909 0)
(-0.000731972 -0.00471652 0)
(-0.000649949 -0.00421183 0)
(-0.000566927 -0.00371644 0)
(-0.000487322 -0.00323051 0)
(-0.000412848 -0.00275661 0)
(-0.00033719 -0.0022977 0)
(-0.000264184 -0.00184718 0)
(-0.000197595 -0.0014074 0)
(-0.000133861 -0.000982796 0)
(-7.2261e-05 -0.000568807 0)
(-2.00607e-05 -0.000162537 0)
(2.99642e-05 0.000229491 0)
(7.72658e-05 0.000615795 0)
(0.000119976 0.000994881 0)
(0.000168872 0.00136331 0)
(0.000221464 0.00172843 0)
(0.000281878 0.00209415 0)
(0.000356231 0.00245083 0)
(-0.00112431 -0.00584513 0)
(-0.00107082 -0.00532688 0)
(-0.00101478 -0.00481435 0)
(-0.00095295 -0.00430827 0)
(-0.000886918 -0.00381003 0)
(-0.000822784 -0.00332004 0)
(-0.000760035 -0.00284023 0)
(-0.00069674 -0.00237618 0)
(-0.000631654 -0.00191956 0)
(-0.000571102 -0.00147422 0)
(-0.00051165 -0.00104541 0)
(-0.000453447 -0.000627807 0)
(-0.000404214 -0.000218442 0)
(-0.000356552 0.000175466 0)
(-0.000310386 0.00056065 0)
(-0.000266903 0.000934391 0)
(-0.000216948 0.00129431 0)
(-0.000165492 0.00165245 0)
(-0.000109409 0.00199843 0)
(-3.50982e-05 0.00233542 0)
(-0.00136876 -0.00592411 0)
(-0.0013371 -0.00540835 0)
(-0.00130037 -0.00489727 0)
(-0.00125537 -0.00439134 0)
(-0.00120372 -0.00389112 0)
(-0.00115453 -0.00339698 0)
(-0.00110277 -0.00291292 0)
(-0.00105004 -0.00244505 0)
(-0.000991717 -0.0019875 0)
(-0.000934645 -0.00153968 0)
(-0.000876956 -0.00110653 0)
(-0.000820186 -0.000684112 0)
(-0.000771639 -0.000271176 0)
(-0.000722821 0.000123714 0)
(-0.00067378 0.00050663 0)
(-0.000627787 0.000876111 0)
(-0.00057697 0.00123124 0)
(-0.000529815 0.00158035 0)
(-0.000471279 0.00190687 0)
(-0.000400045 0.00221953 0)
(-0.0016255 -0.00598559 0)
(-0.00161333 -0.00547733 0)
(-0.0015924 -0.00496868 0)
(-0.00156214 -0.0044626 0)
(-0.00152469 -0.00396112 0)
(-0.00148783 -0.00346427 0)
(-0.00144521 -0.00297987 0)
(-0.00139635 -0.00250925 0)
(-0.0013419 -0.00205004 0)
(-0.00128905 -0.00159987 0)
(-0.00123512 -0.00116329 0)
(-0.00117993 -0.000737947 0)
(-0.00112969 -0.000323938 0)
(-0.00107661 7.06498e-05 0)
(-0.00102278 0.000452767 0)
(-0.000974312 0.000821166 0)
(-0.000924006 0.00117359 0)
(-0.000877505 0.00150629 0)
(-0.000815837 0.00181699 0)
(-0.000741906 0.00210556 0)
(-0.0018998 -0.00603972 0)
(-0.0019023 -0.00553527 0)
(-0.00189664 -0.0050273 0)
(-0.00187987 -0.00452172 0)
(-0.00185641 -0.00402108 0)
(-0.00182689 -0.00352565 0)
(-0.00179133 -0.00304183 0)
(-0.00174526 -0.00257085 0)
(-0.00169323 -0.00210914 0)
(-0.0016427 -0.00165583 0)
(-0.00158934 -0.00121729 0)
(-0.00153102 -0.00079169 0)
(-0.00147408 -0.000378124 0)
(-0.00141404 1.71099e-05 0)
(-0.00135655 0.000401519 0)
(-0.0013057 0.000770386 0)
(-0.00125111 0.00111545 0)
(-0.00119229 0.00143375 0)
(-0.00113276 0.00172962 0)
(-0.00106833 0.00199615 0)
(-0.0021938 -0.00608463 0)
(-0.00221176 -0.00558052 0)
(-0.00221993 -0.00507586 0)
(-0.00221484 -0.00457419 0)
(-0.00219839 -0.00407418 0)
(-0.0021731 -0.00358125 0)
(-0.00213977 -0.00309892 0)
(-0.00209655 -0.00262818 0)
(-0.00204775 -0.00216463 0)
(-0.00199741 -0.00171049 0)
(-0.00193807 -0.00127341 0)
(-0.00187044 -0.000848558 0)
(-0.00180723 -0.000432072 0)
(-0.00174417 -3.31992e-05 0)
(-0.00167931 0.00035061 0)
(-0.00161258 0.000715943 0)
(-0.00154446 0.00105389 0)
(-0.00148405 0.00137206 0)
(-0.00142339 0.00165144 0)
(-0.00135012 0.00188908 0)
(-0.00251588 -0.00611589 0)
(-0.00254979 -0.00561626 0)
(-0.00256771 -0.00511732 0)
(-0.00257105 -0.00462045 0)
(-0.00255687 -0.00412649 0)
(-0.00253273 -0.00363497 0)
(-0.00250257 -0.00315223 0)
(-0.00246285 -0.00268238 0)
(-0.00241117 -0.00222252 0)
(-0.00235125 -0.00177218 0)
(-0.00228414 -0.00133443 0)
(-0.00221459 -0.000906269 0)
(-0.00214541 -0.000489752 0)
(-0.00206445 -9.33454e-05 0)
(-0.0019813 0.000290559 0)
(-0.00190691 0.000658063 0)
(-0.00182366 0.000993717 0)
(-0.00174891 0.00130626 0)
(-0.0016797 0.00157487 0)
(-0.00160389 0.00179045 0)
(-0.00286694 -0.00614422 0)
(-0.00291002 -0.00564553 0)
(-0.0029344 -0.00515184 0)
(-0.00293843 -0.00466232 0)
(-0.00292813 -0.00417161 0)
(-0.00290864 -0.00368161 0)
(-0.00287724 -0.00320334 0)
(-0.00282771 -0.00273979 0)
(-0.00276662 -0.00228278 0)
(-0.00270487 -0.0018317 0)
(-0.00263392 -0.00139501 0)
(-0.0025484 -0.000970789 0)
(-0.0024627 -0.000556243 0)
(-0.00237302 -0.000158406 0)
(-0.00227362 0.000224906 0)
(-0.00217704 0.000590334 0)
(-0.00207307 0.000932874 0)
(-0.00197567 0.00124014 0)
(-0.00188551 0.00150335 0)
(-0.00179199 0.00169535 0)
(1.2424e-05 -0.011397 0)
(5.08925e-05 -0.0111683 0)
(0.000131005 -0.0107354 0)
(0.00028346 -0.0100958 0)
(0.000525943 -0.0092934 0)
(0.000872815 -0.00834548 0)
(0.00133177 -0.00729732 0)
(0.00189838 -0.00618866 0)
(0.00254893 -0.00507105 0)
(0.00331349 -0.00398698 0)
(-2.05556e-05 -0.0113424 0)
(-4.69411e-05 -0.0111262 0)
(-3.51252e-05 -0.0107248 0)
(4.61705e-05 -0.0101253 0)
(0.000216034 -0.00937222 0)
(0.000487226 -0.0084794 0)
(0.000877467 -0.00748308 0)
(0.0013734 -0.00642379 0)
(0.00198148 -0.00533631 0)
(0.00270815 -0.00424088 0)
(-4.25405e-05 -0.0112652 0)
(-0.000113224 -0.0110615 0)
(-0.000145565 -0.0106897 0)
(-0.000115749 -0.0101299 0)
(-8.57277e-07 -0.00942455 0)
(0.000208426 -0.0085903 0)
(0.000535035 -0.00765484 0)
(0.000961054 -0.00665622 0)
(0.00150693 -0.00560915 0)
(0.00215851 -0.00452925 0)
(-5.55458e-05 -0.0111822 0)
(-0.000158467 -0.0109907 0)
(-0.000222441 -0.010648 0)
(-0.000231472 -0.0101286 0)
(-0.000162521 -0.00947117 0)
(-6.06033e-06 -0.00869395 0)
(0.000257893 -0.00781507 0)
(0.000613471 -0.00687041 0)
(0.0010841 -0.00586243 0)
(0.00165248 -0.0048147 0)
(-6.5943e-05 -0.0110964 0)
(-0.000190272 -0.0109172 0)
(-0.000280857 -0.0106018 0)
(-0.00032179 -0.0101202 0)
(-0.00029242 -0.00950659 0)
(-0.000183264 -0.00878235 0)
(2.45212e-05 -0.00795664 0)
(0.000316827 -0.00705884 0)
(0.000717855 -0.00608949 0)
(0.00121219 -0.00507492 0)
(-7.64035e-05 -0.0110098 0)
(-0.000214735 -0.0108417 0)
(-0.000326327 -0.0105467 0)
(-0.000391869 -0.0101009 0)
(-0.000394305 -0.0095263 0)
(-0.000326132 -0.00884674 0)
(-0.000170199 -0.00806963 0)
(6.38527e-05 -0.00721661 0)
(0.000397701 -0.00628983 0)
(0.000823085 -0.005314 0)
(-8.29699e-05 -0.0109228 0)
(-0.000235157 -0.010768 0)
(-0.000362989 -0.0104882 0)
(-0.000448808 -0.0100757 0)
(-0.00048052 -0.0095368 0)
(-0.000447416 -0.0088965 0)
(-0.000338155 -0.00816309 0)
(-0.000155556 -0.0073518 0)
(0.000118522 -0.00646687 0)
(0.000481309 -0.00553112 0)
(-8.70692e-05 -0.010838 0)
(-0.000252838 -0.010695 0)
(-0.000393233 -0.0104279 0)
(-0.000497121 -0.0100446 0)
(-0.0005553 -0.00953666 0)
(-0.00055388 -0.00893034 0)
(-0.00048562 -0.00823565 0)
(-0.000348114 -0.00746468 0)
(-0.00012674 -0.00662147 0)
(0.000179306 -0.00572747 0)
(-9.37989e-05 -0.0107556 0)
(-0.000269938 -0.0106231 0)
(-0.000421221 -0.010368 0)
(-0.000542773 -0.0100081 0)
(-0.000623375 -0.00952648 0)
(-0.000650916 -0.00895009 0)
(-0.000618758 -0.00829031 0)
(-0.00052035 -0.00755789 0)
(-0.00034501 -0.00675436 0)
(-9.06808e-05 -0.00590033 0)
(-0.000101706 -0.0106731 0)
(-0.000285748 -0.0105532 0)
(-0.000449148 -0.0103083 0)
(-0.00058819 -0.00996619 0)
(-0.000689172 -0.00950755 0)
(-0.000742755 -0.00895766 0)
(-0.000742057 -0.00832905 0)
(-0.000678278 -0.00763163 0)
(-0.000543922 -0.00686508 0)
(-0.000337369 -0.00604851 0)
(-0.000107519 -0.0105913 0)
(-0.000301099 -0.010486 0)
(-0.000479369 -0.0102487 0)
(-0.000634472 -0.00991968 0)
(-0.000755199 -0.00948171 0)
(-0.000832055 -0.00895554 0)
(-0.000859097 -0.00835425 0)
(-0.000827581 -0.00768693 0)
(-0.000730505 -0.00695509 0)
(-0.000567435 -0.00617515 0)
(-0.000111953 -0.0105138 0)
(-0.000319071 -0.0104199 0)
(-0.000513996 -0.0101886 0)
(-0.000683509 -0.00987014 0)
(-0.000823551 -0.00945059 0)
(-0.000921873 -0.00894538 0)
(-0.00097422 -0.00836772 0)
(-0.000972961 -0.00772704 0)
(-0.000909587 -0.00702851 0)
(-0.0007854 -0.00628413 0)
(-0.000117944 -0.0104408 0)
(-0.000341969 -0.0103524 0)
(-0.000554405 -0.0101277 0)
(-0.000738712 -0.00981879 0)
(-0.000897771 -0.00941536 0)
(-0.00101689 -0.0089284 0)
(-0.00109304 -0.00837086 0)
(-0.001119 -0.00775568 0)
(-0.00108569 -0.00708821 0)
(-0.000996363 -0.00637555 0)
(-0.000126743 -0.0103686 0)
(-0.0003694 -0.0102823 0)
(-0.000600628 -0.0100662 0)
(-0.000802659 -0.00976611 0)
(-0.000981155 -0.00937577 0)
(-0.00112121 -0.00890437 0)
(-0.00121992 -0.00836495 0)
(-0.00126996 -0.00777418 0)
(-0.00126409 -0.00713299 0)
(-0.00120698 -0.00644921 0)
(-0.000137152 -0.0102942 0)
(-0.000399791 -0.0102093 0)
(-0.000652486 -0.0100033 0)
(-0.000876079 -0.00971075 0)
(-0.00107494 -0.00933095 0)
(-0.00123635 -0.0088729 0)
(-0.00135706 -0.00835274 0)
(-0.00143044 -0.007785 0)
(-0.00145223 -0.00716587 0)
(-0.00142592 -0.0065113 0)
(-0.000148256 -0.0102166 0)
(-0.000433599 -0.0101326 0)
(-0.000711034 -0.00993588 0)
(-0.00095917 -0.00965039 0)
(-0.00117994 -0.00928239 0)
(-0.00136425 -0.00883862 0)
(-0.00150826 -0.00833658 0)
(-0.00160647 -0.00778574 0)
(-0.00165691 -0.00718795 0)
(-0.0016576 -0.00655856 0)
(-0.000160841 -0.0101349 0)
(-0.000473182 -0.0100504 0)
(-0.000778408 -0.00986318 0)
(-0.00105409 -0.00958614 0)
(-0.00129959 -0.00922801 0)
(-0.0015092 -0.00879754 0)
(-0.00167907 -0.00831092 0)
(-0.0018052 -0.00777378 0)
(-0.0018819 -0.00720085 0)
(-0.00190914 -0.00659424 0)
(-0.000176322 -0.0100471 0)
(-0.000521065 -0.00996223 0)
(-0.000857395 -0.00978343 0)
(-0.0011649 -0.009515 0)
(-0.00144051 -0.00916887 0)
(-0.00167922 -0.00875224 0)
(-0.00187723 -0.00827862 0)
(-0.00203216 -0.0077575 0)
(-0.00213048 -0.00720419 0)
(-0.00218466 -0.00662227 0)
(-0.000195744 -0.00995114 0)
(-0.000579512 -0.00986595 0)
(-0.000951922 -0.00969401 0)
(-0.0012951 -0.00943592 0)
(-0.00160493 -0.00910193 0)
(-0.00187703 -0.00869757 0)
(-0.00210685 -0.00823518 0)
(-0.0022882 -0.00773369 0)
(-0.00241195 -0.00719711 0)
(-0.00249019 -0.00663966 0)
(-0.000218816 -0.00983935 0)
(-0.000647736 -0.0097576 0)
(-0.00106226 -0.00959352 0)
(-0.00144909 -0.00934713 0)
(-0.00180099 -0.00902624 0)
(-0.00211059 -0.0086354 0)
(-0.0023725 -0.00818967 0)
(-0.00257346 -0.00770667 0)
(-0.00272199 -0.00718843 0)
(-0.00282386 -0.00665409 0)
)


// ************************************************************************* //
