/*--------------------------------*- C++ -*----------------------------------*\
| =========                 |                                                 |
| \\      /  F ield         | foam-extend: Open Source CFD                    |
|  \\    /   O peration     | Version:     4.1                                |
|   \\  /    A nd           | Web:         http://www.foam-extend.org         |
|    \\/     M anipulation  |                                                 |
\*---------------------------------------------------------------------------*/
FoamFile
{
    version     2.0;
    format      ascii;
    class       volScalarField;
    location    "1";
    object      sigmaEq;
}
// * * * * * * * * * * * * * * * * * * * * * * * * * * * * * * * * * * * * * //

dimensions      [1 -1 -2 0 0 0 0];

internalField   nonuniform List<scalar> 
1000
(
106351
121265
133198
142236
146436
148076
147829
146446
144587
141980
133125
135281
140496
146113
148473
149107
148247
146583
144276
141915
159216
149196
147006
148518
148593
147943
146320
144236
141605
139158
183823
162518
152715
149670
147108
144953
142453
139912
137001
134531
206255
174794
157600
149800
144365
140533
137070
134030
130903
128404
225914
185640
161661
149207
140826
135218
130730
127156
123831
121282
242284
194723
164896
148203
137006
129639
124117
119988
116478
113843
254943
201779
167320
147110
133471
124518
118040
113379
109695
106949
263563
206597
168928
146198
130741
120566
113331
108236
104409
101557
267884
208987
169656
145595
129156
118307
110646
105302
101393
98476.5
97696.8
64721.5
46348.1
38714.3
35963.7
36492.2
38462.6
41307.5
44376.5
47492.5
93595.1
64483.9
50566.6
46539.9
45788.2
46913.2
48662.6
50890.7
53127.2
55609.1
85356.7
64150.9
57763.9
58562.2
60103.8
61941.2
63532.1
65145.7
66451.8
68199.8
73497.3
64389.9
66828.8
72156.5
75661.5
78137.6
79647.1
80782.6
81310.4
82417
58846.5
65963.2
76827.5
85850.1
90888.4
93865.2
95309.9
96053.7
95948.1
96497.5
43289.5
69586.8
87120.2
98833.2
104956
108263
109618
110009
109383
109424
32361
75715.9
97318.8
110652
117395
120838
122053
122112
121058
120621
36781.7
84371.4
107160
121011
127884
131242
132251
131974
130601
129686
55473.2
95221.2
116490
129767
136267
139316
140033
139444
137838
136547
79924.8
107719
125187
136824
142419
144871
145154
144138
142444
140424
50683.4
53340.5
55851
58134.9
60145.5
61911.3
63411.1
64657.1
65644.1
66374
66840.7
67039.7
66954.4
66578.9
65872.2
64847
63395.4
61629.9
59217.9
56715.6
57642.7
58998.6
60547.6
62025.8
63387.3
64623.4
65690.7
66580.8
67274.5
67760.6
68024.4
68053.5
67826.1
67331.6
66526.4
65420
63904.8
62091.2
59652.2
57140.2
68731.3
68298.9
68432
68683.7
69015.4
69388.3
69733.7
70019
70206.9
70267.9
70175
69903.9
69424.6
68719.2
67739.6
66490.9
64866
62971.4
60492.3
57969.8
81573.4
79436.2
78109.9
77053.7
76232.8
75604.4
75086.3
74628
74180.2
73696.5
73139.4
72472.3
71657.3
70668.5
69453.7
68013
66241.3
64240.3
61713.3
59186.1
94522.7
90998.5
88370.2
86120.4
84198.2
82576.4
81177.4
79937.5
78807.6
77727.8
76654.9
75542.2
74346
73033.3
71549.1
69888.8
67951.7
65834.6
63265.3
60750
106569
102060
98382.3
95146.8
92283.3
89771
87563.8
85581.7
83788.5
82114.8
80517.6
78944.5
77349.1
75694.1
73924.1
72031.6
69923
67691
65094.9
62618.9
117130
112042
107610
103596
99983.9
96709.4
93798.2
91149.8
88750.2
86525.4
84435.3
82425.5
80448.5
78465.3
76422
74309.9
72045.6
69718.4
67124.1
64721.3
125792
120524
115757
111212
107108
103259
99790.3
96587
93656.8
90934.4
88385.3
85960.5
83615.2
81312.5
79003
76678.8
74269.5
71862.7
69295.7
67003.4
132529
127190
122486
117581
113146
108876
104968
101332
97979.2
94860.2
91941.2
89179.8
86534
83970.8
81447.1
78958.3
76450
74008.6
71516
69371.3
137104
132053
127887
123110
118580
114123
109901
105916
102186
98695.2
95419.7
92328.8
89387.3
86567.2
83832.7
81183.7
78583.1
76118.8
73719.9
71757.9
138877
133741
129776
125387
121024
116717
112551
108560
104767
101173
97770.4
94542
91466.3
88527.2
85702.7
83001.7
80407.3
78008.2
75775.7
74033.7
135347
132292
128730
124947
121018
117070
113177
109386
105732
102229
98879.3
95680.9
92624.6
89706.6
86918.6
84280.2
81792.5
79547.5
77551.9
76094.3
132444
129927
127075
123830
120379
116818
113239
109696
106233
102873
99632.8
96518.4
93533.2
90684
87975.4
85436
83083.6
81011.1
79254.2
78057.5
129147
127218
124899
122124
119117
115934
112685
109418
106186
103017
99936
96958.7
94097.7
91368.9
88788
86390.9
84209.2
82334
80823.9
79881.1
125584
124132
122308
119987
117416
114617
111711
108741
105766
102821
99934.3
97130.2
94429.2
91854.6
89431
87200.1
85204.4
83531.5
82256.5
81543.7
121919
120878
119471
117550
115374
112940
110371
107705
105005
102305
99640.6
97039.7
94529.2
92138
89897.8
87854.1
86057
84589.1
83536.9
83029.1
118240
117539
116487
114928
113113
111025
108783
106421
104001
101559
99133.5
96754.7
94454.1
92264.7
90223
88376.6
86780.7
85511.5
84662.3
84330.6
114622
114198
113444
112202
110709
108941
107009
104944
102805
100627
98449.9
96305.7
94228.4
92253.2
90419.8
88775.9
87379.3
86299.2
85631.3
85445.9
111113
110908
110401
109437
108233
106759
105121
103341
101478
99564.7
97639.9
95736.1
93888.6
92133.1
90510.9
89068.5
87864
86959.2
86448.8
86380.3
107737
107705
107403
106680
105733
104530
103165
101659
100065
98411.7
96738.4
95076.3
93460.1
91925.2
90512.6
89266.7
88244.1
87498.8
87122.2
87142.7
104506
104612
104480
103967
103250
102296
101188
99941.7
98605.5
97206.8
95780.6
94357
92969.3
91651.4
90442.9
89385
88531.4
87928.7
87662.4
87746.3
101421
101638
101650
101324
100816
100092
99223.2
98223.6
97134.9
95981.4
94795.2
93603.7
92438.3
91330.6
90317.4
89436.6
88737.6
88260.1
88082.2
88206.7
98475.3
98791.5
98928.2
98771.8
98455.9
97945.6
97302.5
96536.5
95683.5
94764.9
93808.9
92840.5
91888.1
90980.5
90151.6
89435
88875.3
88505.8
88396
88541.3
95663.4
96067.1
96324.1
96329.9
96194.8
95886.8
95456.3
94911
94281
93584.8
92846.9
92089.5
91338
90618.1
89960.1
89393.3
88957.2
88679.1
88619.2
88768.8
92974.9
93487.6
93850.5
94010.9
94053.9
93940
93711.5
93374.9
92954.5
92466.7
91932.3
91371.2
90805.6
90258.3
89755.9
89323.6
88995.1
88792.8
88766.8
88907
90426.4
91007.5
91516.7
91860.3
92071.2
92144.5
92105.9
91963.8
91737.1
91440.2
91091.2
90707.5
90309.3
89916.4
89551.9
89237.3
89000.6
88859.7
88854.3
88974.8
87969.3
88947.3
89369.8
89914.3
90274.5
90533
90670.6
90709.1
90657.4
90530.7
90344.4
90115.3
89861.5
89601.3
89354.9
89140.5
88980.7
88888.8
88894
88987.9
85722.9
86632.7
87483.5
88159.2
88719.3
89150.2
89461.3
89660.9
89761.7
89777.6
89724.6
89619.6
89480.8
89326
89173.6
89039.4
88941.4
88888.6
88899.9
88966.2
83652.6
84801.5
85819.4
86697.9
87451
88054.8
88522.5
88860.4
89083
89205.9
89247.5
89227.3
89165.7
89082.1
88995.5
88920.7
88872.7
88855.1
88876.6
88921.3
81943.6
83337.7
84596.3
85685.3
86612.3
87366.5
87957.5
88393.9
88692.8
88873.4
88958.5
88972.1
88939.1
88882.9
88825.7
88783.8
88771.7
88788.6
88835.3
88880.7
96382.5
99250
104275
110739
117768
124566
130493
135099
138233
139435
94632.8
97150
101605
107436
113930
120410
126303
131079
134564
136216
93215
95417.5
99330.9
104499
110333
116261
121843
126624
130579
133158
92041.8
93959.7
97387.3
101962
107198
112597
117781
122317
126197
129306
90993.8
92659.4
95649
99674
104339
109227
114023
118365
122117
125407
90044.5
91489.7
94093.9
97626.3
101758
106140
110489
114543
118071
121412
89131.8
90385.8
92653.4
95751.3
99406.1
103331
107263
111023
114283
117498
88229.8
89318.3
91291.9
94004.7
97225.1
100721
104246
107696
110692
113718
87305
88251.3
89971.5
92349.7
95187.9
98300.2
101451
104591
107322
110111
86333.6
87157.7
88658.9
90744.7
93244.7
96009.8
98821.1
101661
104145
106689
85290.1
86010
87324.2
89158.5
91365.1
93823.4
96331.9
98891
101144
103446
84152
84783.3
85938.5
87557.1
89510.8
91700.2
93943.6
96247.3
98292.3
100370
82890.7
83447.6
84469.8
85906.9
87647.1
89606.3
91622.6
93700.9
95563.8
97441.4
81484.3
81979.6
82892.4
84179.6
85743.6
87511.1
89339.3
91227.2
92937.6
94645.5
79888
80334.2
81160.9
82329.8
83755.3
85371.4
87052.7
88790.2
90383.7
91955
78088.5
78497.5
79260.3
80342
81666.6
83173.1
84751.5
86383.4
87902.9
89387.5
75993.8
76378.5
77102.1
78131.4
79397.8
80843.8
82370.1
83954.8
85445.3
86921.6
73642.3
74015.9
74725.3
75737.6
76989.9
78424.8
79953.6
81539.2
83064
84539.7
70785.4
71166.2
71896.4
72942.2
74243.8
75743.1
77356.7
79034.9
80682.9
82267.8
67717.6
68124
68907.9
70033.6
71442.8
73076
74848.8
76704.3
78548.6
80333.1
)
;

boundaryField
{
    left
    {
        type            symmetryPlane;
        value           nonuniform List<scalar> 
30
(
96315.9
94574.3
93163.5
91996.9
90955
90010.9
89102.9
88204.9
87283.5
86315.1
85274.2
84138.5
82879.3
81474.8
79880.4
78082.7
75989.7
73639.9
70784.2
67717.5
267308
208798
169613
145593
129151
118285
110605
105248
101331
98407.2
)
;
    }
    right
    {
        type            calculated;
        value           nonuniform List<scalar> 
30
(
56557.7
56980.6
57809.5
59025.3
60589.2
62461
64566.6
66858.2
69230.6
71638.2
73919.9
76002.9
77983.5
79823.3
81501
82999.1
84311.6
85435.6
86377
87144.4
87751.6
88214.1
88549.8
88777.3
88914.9
88981.6
88993
88970.1
88923.6
88886.4
)
;
    }
    down
    {
        type            symmetryPlane;
        value           nonuniform List<scalar> 
30
(
97587.8
64688.6
46024.8
38022.8
35032.1
35505
37532.2
40482.3
43669.9
46872.6
50188.4
52964.8
55556.9
57904.1
59962.6
61765
63293.2
64561.3
65566
66310
66788.3
66996.9
66919.7
66551.2
65850.8
64831.1
63384.5
61623.5
59215.1
56715.3
)
;
    }
    up
    {
        type            calculated;
        value           nonuniform List<scalar> 
30
(
67620.9
68026.8
68811
69937.6
71348.1
72984.1
74759.9
76621.5
78469.2
80264.9
81881.7
83286.8
84553.1
85649.2
86583.3
87343.1
87939
88379.1
88680.7
88863.3
88949.9
88964.6
88932.5
88877.2
88821.1
88780.2
88769.3
88786.8
88834.3
88876.5
)
;
    }
    hole
    {
        type            calculated;
        value           nonuniform List<scalar> 
20
(
103092
132299
160407
186734
210639
231536
248910
262330
271460
276050
100967
96341.4
87073.9
73454.8
55849.1
34705.7
10567.2
15959.1
44210.9
73494
)
;
    }
    frontAndBack
    {
        type            empty;
    }
}


// ************************************************************************* //
