/*--------------------------------*- C++ -*----------------------------------*\
| =========                 |                                                 |
| \\      /  F ield         | foam-extend: Open Source CFD                    |
|  \\    /   O peration     | Version:     4.1                                |
|   \\  /    A nd           | Web:         http://www.foam-extend.org         |
|    \\/     M anipulation  |                                                 |
\*---------------------------------------------------------------------------*/
FoamFile
{
    version     2.0;
    format      ascii;
    class       vectorField;
    location    "1";
    object      solidsCellD_iteration15;
}
// * * * * * * * * * * * * * * * * * * * * * * * * * * * * * * * * * * * * * //


1000
(
(4.58018e-07 -1.52811e-07 0)
(4.36047e-07 -1.44212e-07 0)
(4.22814e-07 -1.39627e-07 0)
(4.15916e-07 -1.38697e-07 0)
(4.13557e-07 -1.39993e-07 0)
(4.14518e-07 -1.42941e-07 0)
(4.17974e-07 -1.47029e-07 0)
(4.23148e-07 -1.52022e-07 0)
(4.29985e-07 -1.57556e-07 0)
(4.37183e-07 -1.63383e-07 0)
(4.14632e-07 -1.67159e-07 0)
(3.91325e-07 -1.62168e-07 0)
(3.77151e-07 -1.59906e-07 0)
(3.69502e-07 -1.60565e-07 0)
(3.66422e-07 -1.62952e-07 0)
(3.66687e-07 -1.66666e-07 0)
(3.69431e-07 -1.71263e-07 0)
(3.73902e-07 -1.76667e-07 0)
(3.79936e-07 -1.82393e-07 0)
(3.86399e-07 -1.8867e-07 0)
(3.69433e-07 -1.8074e-07 0)
(3.45634e-07 -1.79767e-07 0)
(3.31025e-07 -1.80091e-07 0)
(3.22995e-07 -1.82459e-07 0)
(3.19526e-07 -1.85984e-07 0)
(3.19329e-07 -1.9046e-07 0)
(3.2156e-07 -1.95572e-07 0)
(3.2552e-07 -2.01316e-07 0)
(3.30969e-07 -2.0725e-07 0)
(3.37014e-07 -2.13613e-07 0)
(3.22661e-07 -1.933e-07 0)
(2.99476e-07 -1.96482e-07 0)
(2.85119e-07 -1.99496e-07 0)
(2.77083e-07 -2.03621e-07 0)
(2.73471e-07 -2.08295e-07 0)
(2.72989e-07 -2.13518e-07 0)
(2.74756e-07 -2.19113e-07 0)
(2.78242e-07 -2.25163e-07 0)
(2.83105e-07 -2.31301e-07 0)
(2.88666e-07 -2.37798e-07 0)
(2.74839e-07 -2.04567e-07 0)
(2.53118e-07 -2.1186e-07 0)
(2.39618e-07 -2.17503e-07 0)
(2.32039e-07 -2.23341e-07 0)
(2.28527e-07 -2.29126e-07 0)
(2.27847e-07 -2.35094e-07 0)
(2.29239e-07 -2.41181e-07 0)
(2.32252e-07 -2.47536e-07 0)
(2.36535e-07 -2.53909e-07 0)
(2.41479e-07 -2.60538e-07 0)
(2.25942e-07 -2.14381e-07 0)
(2.06755e-07 -2.25501e-07 0)
(1.94808e-07 -2.33602e-07 0)
(1.87998e-07 -2.41046e-07 0)
(1.84754e-07 -2.47873e-07 0)
(1.83992e-07 -2.54519e-07 0)
(1.85107e-07 -2.61054e-07 0)
(1.87644e-07 -2.67683e-07 0)
(1.91266e-07 -2.74296e-07 0)
(1.95458e-07 -2.81092e-07 0)
(1.7644e-07 -2.22465e-07 0)
(1.60534e-07 -2.36928e-07 0)
(1.5061e-07 -2.47197e-07 0)
(1.44907e-07 -2.56072e-07 0)
(1.42164e-07 -2.63807e-07 0)
(1.41476e-07 -2.71043e-07 0)
(1.42341e-07 -2.77968e-07 0)
(1.4435e-07 -2.84846e-07 0)
(1.47223e-07 -2.91675e-07 0)
(1.50559e-07 -2.98615e-07 0)
(1.26407e-07 -2.28708e-07 0)
(1.14459e-07 -2.45866e-07 0)
(1.07023e-07 -2.57846e-07 0)
(1.02758e-07 -2.67837e-07 0)
(1.00708e-07 -2.76308e-07 0)
(1.00169e-07 -2.84036e-07 0)
(1.0076e-07 -2.91305e-07 0)
(1.02188e-07 -2.98393e-07 0)
(1.04262e-07 -3.05406e-07 0)
(1.06683e-07 -3.12474e-07 0)
(7.59835e-08 -2.32954e-07 0)
(6.85884e-08 -2.5197e-07 0)
(6.40268e-08 -2.65132e-07 0)
(6.13747e-08 -2.75937e-07 0)
(6.00604e-08 -2.84922e-07 0)
(5.9689e-08 -2.92974e-07 0)
(6.00582e-08 -3.00493e-07 0)
(6.0952e-08 -3.07764e-07 0)
(6.22036e-08 -3.14922e-07 0)
(6.36625e-08 -3.22086e-07 0)
(2.53806e-08 -2.35096e-07 0)
(2.28948e-08 -2.55098e-07 0)
(2.12996e-08 -2.68854e-07 0)
(2.03884e-08 -2.80048e-07 0)
(1.99849e-08 -2.893e-07 0)
(1.98613e-08 -2.97537e-07 0)
(1.99411e-08 -3.05153e-07 0)
(2.02312e-08 -3.1249e-07 0)
(2.06687e-08 -3.19729e-07 0)
(2.11577e-08 -3.26959e-07 0)
(7.07235e-07 -6.86931e-09 0)
(7.12449e-07 -4.95511e-09 0)
(7.16472e-07 -3.79228e-09 0)
(7.21202e-07 -3.16126e-09 0)
(7.26883e-07 -2.86307e-09 0)
(7.3375e-07 -2.80699e-09 0)
(7.41916e-07 -2.94168e-09 0)
(7.51269e-07 -3.15083e-09 0)
(7.61878e-07 -3.446e-09 0)
(7.73554e-07 -3.81649e-09 0)
(7.02151e-07 -2.06709e-08 0)
(7.06494e-07 -1.50399e-08 0)
(7.09978e-07 -1.15663e-08 0)
(7.14307e-07 -9.73083e-09 0)
(7.19707e-07 -8.95506e-09 0)
(7.26358e-07 -8.78454e-09 0)
(7.34396e-07 -9.12271e-09 0)
(7.43649e-07 -9.81656e-09 0)
(7.54131e-07 -1.07526e-08 0)
(7.65724e-07 -1.18067e-08 0)
(6.92082e-07 -3.45514e-08 0)
(6.94689e-07 -2.55713e-08 0)
(6.97094e-07 -2.00558e-08 0)
(7.00705e-07 -1.7045e-08 0)
(7.05621e-07 -1.57644e-08 0)
(7.11957e-07 -1.55909e-08 0)
(7.19693e-07 -1.62126e-08 0)
(7.28775e-07 -1.73443e-08 0)
(7.39021e-07 -1.8878e-08 0)
(7.50444e-07 -2.0632e-08 0)
(6.77139e-07 -4.86648e-08 0)
(6.77278e-07 -3.67915e-08 0)
(6.781e-07 -2.95966e-08 0)
(6.80695e-07 -2.57102e-08 0)
(6.84905e-07 -2.40515e-08 0)
(6.90794e-07 -2.38531e-08 0)
(6.9815e-07 -2.47237e-08 0)
(7.06977e-07 -2.62877e-08 0)
(7.16917e-07 -2.83808e-08 0)
(7.28121e-07 -3.0799e-08 0)
(6.57489e-07 -6.30263e-08 0)
(6.54631e-07 -4.89198e-08 0)
(6.53499e-07 -4.04445e-08 0)
(6.5481e-07 -3.59529e-08 0)
(6.58163e-07 -3.40981e-08 0)
(6.63461e-07 -3.39763e-08 0)
(6.70351e-07 -3.51177e-08 0)
(6.78829e-07 -3.71021e-08 0)
(6.88419e-07 -3.97169e-08 0)
(6.99392e-07 -4.27361e-08 0)
(6.3335e-07 -7.7701e-08 0)
(6.27096e-07 -6.21855e-08 0)
(6.23816e-07 -5.29123e-08 0)
(6.23707e-07 -4.81187e-08 0)
(6.26083e-07 -4.62576e-08 0)
(6.30695e-07 -4.63084e-08 0)
(6.37094e-07 -4.7749e-08 0)
(6.45177e-07 -5.01288e-08 0)
(6.54384e-07 -5.32389e-08 0)
(6.65078e-07 -5.67927e-08 0)
(6.05127e-07 -9.26302e-08 0)
(5.95232e-07 -7.66575e-08 0)
(5.89642e-07 -6.7152e-08 0)
(5.88036e-07 -6.238e-08 0)
(5.89391e-07 -6.06909e-08 0)
(5.93301e-07 -6.10253e-08 0)
(5.99187e-07 -6.28052e-08 0)
(6.06859e-07 -6.55318e-08 0)
(6.15683e-07 -6.90629e-08 0)
(6.26093e-07 -7.30388e-08 0)
(5.73072e-07 -1.07713e-07 0)
(5.59595e-07 -9.22715e-08 0)
(5.51752e-07 -8.31479e-08 0)
(5.48646e-07 -7.87924e-08 0)
(5.4903e-07 -7.74966e-08 0)
(5.5224e-07 -7.82523e-08 0)
(5.57602e-07 -8.04434e-08 0)
(5.64843e-07 -8.35262e-08 0)
(5.73294e-07 -8.74339e-08 0)
(5.83344e-07 -9.17221e-08 0)
(5.37601e-07 -1.22881e-07 0)
(5.20793e-07 -1.08884e-07 0)
(5.10829e-07 -1.00772e-07 0)
(5.06282e-07 -9.72121e-08 0)
(5.05698e-07 -9.65363e-08 0)
(5.08136e-07 -9.78304e-08 0)
(5.12917e-07 -1.00491e-07 0)
(5.19656e-07 -1.03941e-07 0)
(5.27759e-07 -1.08175e-07 0)
(5.37405e-07 -1.1253e-07 0)
(4.99125e-07 -1.37993e-07 0)
(4.79485e-07 -1.26295e-07 0)
(4.67676e-07 -1.19718e-07 0)
(4.61865e-07 -1.1733e-07 0)
(4.60378e-07 -1.17529e-07 0)
(4.62153e-07 -1.19533e-07 0)
(4.66498e-07 -1.22817e-07 0)
(4.72753e-07 -1.26857e-07 0)
(4.80656e-07 -1.3156e-07 0)
(4.89558e-07 -1.36436e-07 0)
(7.86291e-07 -4.1499e-09 0)
(8.00094e-07 -4.31009e-09 0)
(8.14705e-07 -4.44112e-09 0)
(8.30061e-07 -4.55463e-09 0)
(8.46085e-07 -4.65785e-09 0)
(8.62752e-07 -4.74593e-09 0)
(8.79975e-07 -4.79146e-09 0)
(8.97682e-07 -4.81485e-09 0)
(9.15872e-07 -4.84257e-09 0)
(9.34517e-07 -4.85967e-09 0)
(9.5355e-07 -4.8511e-09 0)
(9.72931e-07 -4.81354e-09 0)
(9.9262e-07 -4.74507e-09 0)
(1.01258e-06 -4.64967e-09 0)
(1.03278e-06 -4.53133e-09 0)
(1.05319e-06 -4.38575e-09 0)
(1.07376e-06 -4.20396e-09 0)
(1.09447e-06 -3.97489e-09 0)
(1.11524e-06 -3.69691e-09 0)
(1.13603e-06 -3.36891e-09 0)
(7.78779e-07 -1.27323e-08 0)
(7.93183e-07 -1.31609e-08 0)
(8.08331e-07 -1.35345e-08 0)
(8.24181e-07 -1.38581e-08 0)
(8.40654e-07 -1.41049e-08 0)
(8.57696e-07 -1.4309e-08 0)
(8.75272e-07 -1.4466e-08 0)
(8.93332e-07 -1.45858e-08 0)
(9.11851e-07 -1.46671e-08 0)
(9.30773e-07 -1.46761e-08 0)
(9.50053e-07 -1.46125e-08 0)
(9.69675e-07 -1.44895e-08 0)
(9.89609e-07 -1.42993e-08 0)
(1.00981e-06 -1.40293e-08 0)
(1.03024e-06 -1.36707e-08 0)
(1.05087e-06 -1.32152e-08 0)
(1.07166e-06 -1.26493e-08 0)
(1.09255e-06 -1.19543e-08 0)
(1.11352e-06 -1.11169e-08 0)
(1.13445e-06 -1.01319e-08 0)
(7.64123e-07 -2.20918e-08 0)
(7.79736e-07 -2.2669e-08 0)
(7.95948e-07 -2.31608e-08 0)
(8.12693e-07 -2.36077e-08 0)
(8.29992e-07 -2.39661e-08 0)
(8.47816e-07 -2.42719e-08 0)
(8.66113e-07 -2.44979e-08 0)
(8.84803e-07 -2.46451e-08 0)
(9.03896e-07 -2.47181e-08 0)
(9.23345e-07 -2.46923e-08 0)
(9.4313e-07 -2.45761e-08 0)
(9.6323e-07 -2.43748e-08 0)
(9.836e-07 -2.40596e-08 0)
(1.0042e-06 -2.36056e-08 0)
(1.02501e-06 -2.30043e-08 0)
(1.04601e-06 -2.22463e-08 0)
(1.06716e-06 -2.13068e-08 0)
(1.08844e-06 -2.01584e-08 0)
(1.1098e-06 -1.87689e-08 0)
(1.13113e-06 -1.71331e-08 0)
(7.42682e-07 -3.2639e-08 0)
(7.59972e-07 -3.31758e-08 0)
(7.7772e-07 -3.36248e-08 0)
(7.95844e-07 -3.40607e-08 0)
(8.14404e-07 -3.44162e-08 0)
(8.33338e-07 -3.47285e-08 0)
(8.5265e-07 -3.49443e-08 0)
(8.72274e-07 -3.50753e-08 0)
(8.92259e-07 -3.51226e-08 0)
(9.12545e-07 -3.50506e-08 0)
(9.33103e-07 -3.48558e-08 0)
(9.53908e-07 -3.45335e-08 0)
(9.74931e-07 -3.40549e-08 0)
(9.96149e-07 -3.33996e-08 0)
(1.01755e-06 -3.25647e-08 0)
(1.03912e-06 -3.15211e-08 0)
(1.06081e-06 -3.02365e-08 0)
(1.08263e-06 -2.86655e-08 0)
(1.10448e-06 -2.67513e-08 0)
(1.12634e-06 -2.45164e-08 0)
(7.15106e-07 -4.47334e-08 0)
(7.34565e-07 -4.49691e-08 0)
(7.54278e-07 -4.51822e-08 0)
(7.74112e-07 -4.54662e-08 0)
(7.94248e-07 -4.56899e-08 0)
(8.14608e-07 -4.59078e-08 0)
(8.35239e-07 -4.60377e-08 0)
(8.56093e-07 -4.60984e-08 0)
(8.77188e-07 -4.606e-08 0)
(8.98491e-07 -4.58805e-08 0)
(9.20011e-07 -4.55635e-08 0)
(9.41736e-07 -4.50991e-08 0)
(9.63636e-07 -4.44506e-08 0)
(9.8569e-07 -4.35913e-08 0)
(1.00789e-06 -4.25141e-08 0)
(1.03021e-06 -4.1178e-08 0)
(1.05264e-06 -3.95457e-08 0)
(1.07514e-06 -3.75638e-08 0)
(1.0977e-06 -3.51516e-08 0)
(1.12025e-06 -3.236e-08 0)
(6.82088e-07 -5.8692e-08 0)
(7.04022e-07 -5.83067e-08 0)
(7.26078e-07 -5.80133e-08 0)
(7.48003e-07 -5.79547e-08 0)
(7.70065e-07 -5.79047e-08 0)
(7.92183e-07 -5.79161e-08 0)
(8.14355e-07 -5.78484e-08 0)
(8.36665e-07 -5.77331e-08 0)
(8.59109e-07 -5.75361e-08 0)
(8.81679e-07 -5.72063e-08 0)
(9.04389e-07 -5.67406e-08 0)
(9.27229e-07 -5.61161e-08 0)
(9.50176e-07 -5.52832e-08 0)
(9.73212e-07 -5.42124e-08 0)
(9.96351e-07 -5.28849e-08 0)
(1.01956e-06 -5.12614e-08 0)
(1.04288e-06 -4.9289e-08 0)
(1.06621e-06 -4.69205e-08 0)
(1.08963e-06 -4.40581e-08 0)
(1.113e-06 -4.07427e-08 0)
(6.44586e-07 -7.45996e-08 0)
(6.69277e-07 -7.33102e-08 0)
(6.93942e-07 -7.22692e-08 0)
(7.18193e-07 -7.16531e-08 0)
(7.42353e-07 -7.11406e-08 0)
(7.66412e-07 -7.07769e-08 0)
(7.90368e-07 -7.04125e-08 0)
(8.14324e-07 -7.00428e-08 0)
(8.38308e-07 -6.96262e-08 0)
(8.62338e-07 -6.91063e-08 0)
(8.86421e-07 -6.84561e-08 0)
(9.10541e-07 -6.76364e-08 0)
(9.34691e-07 -6.65916e-08 0)
(9.58875e-07 -6.52948e-08 0)
(9.83111e-07 -6.37173e-08 0)
(1.00739e-06 -6.18182e-08 0)
(1.03173e-06 -5.95271e-08 0)
(1.05607e-06 -5.67937e-08 0)
(1.08045e-06 -5.35158e-08 0)
(1.10478e-06 -4.97171e-08 0)
(6.03351e-07 -9.26016e-08 0)
(6.30903e-07 -8.9983e-08 0)
(6.58369e-07 -8.78809e-08 0)
(6.85139e-07 -8.64508e-08 0)
(7.11664e-07 -8.532e-08 0)
(7.37826e-07 -8.4443e-08 0)
(7.63803e-07 -8.36856e-08 0)
(7.89611e-07 -8.29926e-08 0)
(8.15312e-07 -8.22989e-08 0)
(8.40941e-07 -8.15403e-08 0)
(8.66515e-07 -8.06674e-08 0)
(8.92038e-07 -7.96275e-08 0)
(9.17521e-07 -7.83617e-08 0)
(9.42992e-07 -7.68399e-08 0)
(9.6847e-07 -7.50237e-08 0)
(9.93954e-07 -7.28617e-08 0)
(1.01944e-06 -7.02753e-08 0)
(1.04491e-06 -6.72011e-08 0)
(1.07038e-06 -6.35347e-08 0)
(1.0958e-06 -5.9291e-08 0)
(5.59223e-07 -1.12605e-07 0)
(5.89719e-07 -1.08451e-07 0)
(6.20093e-07 -1.05146e-07 0)
(6.49502e-07 -1.02663e-07 0)
(6.78494e-07 -1.00693e-07 0)
(7.06937e-07 -9.91149e-08 0)
(7.35031e-07 -9.78026e-08 0)
(7.6281e-07 -9.66551e-08 0)
(7.90357e-07 -9.55921e-08 0)
(8.17711e-07 -9.45256e-08 0)
(8.44899e-07 -9.33837e-08 0)
(8.71952e-07 -9.21004e-08 0)
(8.98903e-07 -9.06108e-08 0)
(9.25793e-07 -8.8873e-08 0)
(9.52638e-07 -8.6833e-08 0)
(9.79447e-07 -8.44214e-08 0)
(1.00621e-06 -8.15581e-08 0)
(1.03291e-06 -7.81619e-08 0)
(1.0596e-06 -7.41428e-08 0)
(1.08621e-06 -6.94969e-08 0)
(5.13212e-07 -1.34461e-07 0)
(5.47361e-07 -1.27768e-07 0)
(5.80861e-07 -1.22949e-07 0)
(6.1312e-07 -1.19272e-07 0)
(6.4456e-07 -1.16436e-07 0)
(6.75327e-07 -1.14156e-07 0)
(7.05524e-07 -1.12273e-07 0)
(7.35271e-07 -1.10652e-07 0)
(7.64666e-07 -1.09201e-07 0)
(7.93759e-07 -1.07812e-07 0)
(8.22589e-07 -1.06397e-07 0)
(8.51205e-07 -1.04879e-07 0)
(8.79657e-07 -1.03181e-07 0)
(9.07989e-07 -1.01249e-07 0)
(9.36219e-07 -9.90121e-08 0)
(9.64368e-07 -9.63868e-08 0)
(9.92444e-07 -9.32969e-08 0)
(1.02043e-06 -8.96231e-08 0)
(1.04839e-06 -8.53029e-08 0)
(1.07628e-06 -8.0292e-08 0)
(4.76716e-07 -1.58098e-07 0)
(5.14136e-07 -1.48593e-07 0)
(5.50077e-07 -1.42166e-07 0)
(5.84749e-07 -1.37067e-07 0)
(6.18255e-07 -1.33137e-07 0)
(6.50876e-07 -1.29976e-07 0)
(6.82726e-07 -1.27367e-07 0)
(7.13981e-07 -1.25151e-07 0)
(7.44746e-07 -1.23195e-07 0)
(7.75087e-07 -1.21368e-07 0)
(8.0507e-07 -1.19573e-07 0)
(8.34764e-07 -1.17724e-07 0)
(8.64228e-07 -1.15735e-07 0)
(8.93508e-07 -1.13538e-07 0)
(9.22623e-07 -1.11055e-07 0)
(9.5161e-07 -1.08185e-07 0)
(9.80475e-07 -1.0487e-07 0)
(1.00925e-06 -1.00952e-07 0)
(1.03797e-06 -9.63782e-08 0)
(1.06662e-06 -9.10601e-08 0)
(4.57221e-07 -1.7856e-07 0)
(4.95194e-07 -1.68644e-07 0)
(5.31585e-07 -1.61219e-07 0)
(5.67015e-07 -1.55158e-07 0)
(6.01367e-07 -1.50312e-07 0)
(6.34825e-07 -1.46336e-07 0)
(6.67499e-07 -1.43009e-07 0)
(6.99525e-07 -1.4016e-07 0)
(7.30988e-07 -1.37634e-07 0)
(7.6196e-07 -1.35294e-07 0)
(7.92518e-07 -1.33043e-07 0)
(8.22736e-07 -1.30787e-07 0)
(8.5267e-07 -1.28429e-07 0)
(8.82363e-07 -1.25897e-07 0)
(9.11838e-07 -1.2311e-07 0)
(9.41155e-07 -1.1995e-07 0)
(9.70296e-07 -1.16385e-07 0)
(9.99337e-07 -1.12235e-07 0)
(1.02829e-06 -1.07438e-07 0)
(1.05713e-06 -1.01885e-07 0)
(4.41906e-07 -1.97442e-07 0)
(4.79455e-07 -1.87518e-07 0)
(5.15952e-07 -1.7966e-07 0)
(5.5167e-07 -1.7303e-07 0)
(5.86462e-07 -1.67528e-07 0)
(6.20426e-07 -1.62887e-07 0)
(6.5364e-07 -1.58928e-07 0)
(6.86188e-07 -1.55483e-07 0)
(7.18141e-07 -1.52402e-07 0)
(7.49572e-07 -1.49556e-07 0)
(7.80557e-07 -1.46849e-07 0)
(8.11166e-07 -1.4418e-07 0)
(8.41452e-07 -1.41447e-07 0)
(8.71457e-07 -1.38576e-07 0)
(9.01203e-07 -1.35487e-07 0)
(9.30767e-07 -1.32053e-07 0)
(9.60131e-07 -1.28249e-07 0)
(9.89373e-07 -1.23898e-07 0)
(1.01849e-06 -1.18919e-07 0)
(1.04751e-06 -1.13207e-07 0)
(4.28839e-07 -2.1585e-07 0)
(4.659e-07 -2.06051e-07 0)
(5.02173e-07 -1.97911e-07 0)
(5.37886e-07 -1.90823e-07 0)
(5.72799e-07 -1.84762e-07 0)
(6.07017e-07 -1.79538e-07 0)
(6.40542e-07 -1.75001e-07 0)
(6.73426e-07 -1.70994e-07 0)
(7.05729e-07 -1.67382e-07 0)
(7.37509e-07 -1.64048e-07 0)
(7.68831e-07 -1.60898e-07 0)
(7.99758e-07 -1.57826e-07 0)
(8.30337e-07 -1.54724e-07 0)
(8.60611e-07 -1.51527e-07 0)
(8.90603e-07 -1.48145e-07 0)
(9.20385e-07 -1.4446e-07 0)
(9.49954e-07 -1.4044e-07 0)
(9.79387e-07 -1.35915e-07 0)
(1.00867e-06 -1.30799e-07 0)
(1.03788e-06 -1.25006e-07 0)
(4.17684e-07 -2.33374e-07 0)
(4.54172e-07 -2.23817e-07 0)
(4.90077e-07 -2.15607e-07 0)
(5.25582e-07 -2.08262e-07 0)
(5.60442e-07 -2.0181e-07 0)
(5.94725e-07 -1.96133e-07 0)
(6.28383e-07 -1.91105e-07 0)
(6.61453e-07 -1.86603e-07 0)
(6.93979e-07 -1.82508e-07 0)
(7.26003e-07 -1.78718e-07 0)
(7.57574e-07 -1.75148e-07 0)
(7.88741e-07 -1.71688e-07 0)
(8.19548e-07 -1.68231e-07 0)
(8.50035e-07 -1.64724e-07 0)
(8.80229e-07 -1.61065e-07 0)
(9.10198e-07 -1.57154e-07 0)
(9.3994e-07 -1.52942e-07 0)
(9.69536e-07 -1.4827e-07 0)
(9.98975e-07 -1.43066e-07 0)
(1.02839e-06 -1.37258e-07 0)
(4.07993e-07 -2.50298e-07 0)
(4.43905e-07 -2.41008e-07 0)
(4.79409e-07 -2.32811e-07 0)
(5.14592e-07 -2.25314e-07 0)
(5.49291e-07 -2.18587e-07 0)
(5.83495e-07 -2.12552e-07 0)
(6.17155e-07 -2.07116e-07 0)
(6.50296e-07 -2.0219e-07 0)
(6.82942e-07 -1.9767e-07 0)
(7.15116e-07 -1.93469e-07 0)
(7.46853e-07 -1.89511e-07 0)
(7.78187e-07 -1.85689e-07 0)
(8.09158e-07 -1.81902e-07 0)
(8.39805e-07 -1.78107e-07 0)
(8.70151e-07 -1.74191e-07 0)
(9.00266e-07 -1.70079e-07 0)
(9.30149e-07 -1.65705e-07 0)
(9.5988e-07 -1.60924e-07 0)
(9.89483e-07 -1.55679e-07 0)
(1.01905e-06 -1.49903e-07 0)
(3.99544e-07 -2.66643e-07 0)
(4.34901e-07 -2.57636e-07 0)
(4.6997e-07 -2.49518e-07 0)
(5.04796e-07 -2.41957e-07 0)
(5.39245e-07 -2.3505e-07 0)
(5.73273e-07 -2.28741e-07 0)
(6.06842e-07 -2.22979e-07 0)
(6.39962e-07 -2.177e-07 0)
(6.72636e-07 -2.12811e-07 0)
(7.04873e-07 -2.08244e-07 0)
(7.36696e-07 -2.03934e-07 0)
(7.68125e-07 -1.99779e-07 0)
(7.99197e-07 -1.95688e-07 0)
(8.29948e-07 -1.91634e-07 0)
(8.60402e-07 -1.87486e-07 0)
(8.90623e-07 -1.83199e-07 0)
(9.20618e-07 -1.78693e-07 0)
(9.50464e-07 -1.73843e-07 0)
(9.80211e-07 -1.686e-07 0)
(1.00987e-06 -1.62887e-07 0)
(3.92134e-07 -2.82502e-07 0)
(4.26989e-07 -2.73768e-07 0)
(4.616e-07 -2.65759e-07 0)
(4.9605e-07 -2.58192e-07 0)
(5.30183e-07 -2.51167e-07 0)
(5.63973e-07 -2.44655e-07 0)
(5.97381e-07 -2.3864e-07 0)
(6.30403e-07 -2.33071e-07 0)
(6.63026e-07 -2.27868e-07 0)
(6.95249e-07 -2.2298e-07 0)
(7.2709e-07 -2.18359e-07 0)
(7.58556e-07 -2.13906e-07 0)
(7.89681e-07 -2.09543e-07 0)
(8.20493e-07 -2.05256e-07 0)
(8.51023e-07 -2.00907e-07 0)
(8.81325e-07 -1.96473e-07 0)
(9.11412e-07 -1.9187e-07 0)
(9.41365e-07 -1.86988e-07 0)
(9.71207e-07 -1.81778e-07 0)
(1.00097e-06 -1.76161e-07 0)
(3.85575e-07 -2.9793e-07 0)
(4.19943e-07 -2.89454e-07 0)
(4.54114e-07 -2.81568e-07 0)
(4.88166e-07 -2.74027e-07 0)
(5.21957e-07 -2.6693e-07 0)
(5.5548e-07 -2.60276e-07 0)
(5.88685e-07 -2.54066e-07 0)
(6.21561e-07 -2.48262e-07 0)
(6.54078e-07 -2.42795e-07 0)
(6.86238e-07 -2.37634e-07 0)
(7.18049e-07 -2.32742e-07 0)
(7.49512e-07 -2.28029e-07 0)
(7.80656e-07 -2.23429e-07 0)
(8.11502e-07 -2.1894e-07 0)
(8.42081e-07 -2.14423e-07 0)
(8.72447e-07 -2.0987e-07 0)
(9.02607e-07 -2.05204e-07 0)
(9.32649e-07 -2.0032e-07 0)
(9.62544e-07 -1.95168e-07 0)
(9.92425e-07 -1.8969e-07 0)
(3.7972e-07 -3.12978e-07 0)
(4.13608e-07 -3.04742e-07 0)
(4.47363e-07 -2.96982e-07 0)
(4.81013e-07 -2.89485e-07 0)
(5.14473e-07 -2.82355e-07 0)
(5.47721e-07 -2.75605e-07 0)
(5.80702e-07 -2.69246e-07 0)
(6.13403e-07 -2.63253e-07 0)
(6.45782e-07 -2.57569e-07 0)
(6.77845e-07 -2.52178e-07 0)
(7.09591e-07 -2.47057e-07 0)
(7.41017e-07 -2.4212e-07 0)
(7.7215e-07 -2.37317e-07 0)
(8.03004e-07 -2.32655e-07 0)
(8.33606e-07 -2.28001e-07 0)
(8.6401e-07 -2.2336e-07 0)
(8.94219e-07 -2.18661e-07 0)
(9.24304e-07 -2.13795e-07 0)
(9.54252e-07 -2.08733e-07 0)
(9.84225e-07 -2.03436e-07 0)
(3.74418e-07 -3.27697e-07 0)
(4.0786e-07 -3.19681e-07 0)
(4.41217e-07 -3.12043e-07 0)
(4.74497e-07 -3.04604e-07 0)
(5.07647e-07 -2.97472e-07 0)
(5.40622e-07 -2.90657e-07 0)
(5.73366e-07 -2.84185e-07 0)
(6.05876e-07 -2.7804e-07 0)
(6.38093e-07 -2.72176e-07 0)
(6.70035e-07 -2.66594e-07 0)
(7.01688e-07 -2.61279e-07 0)
(7.33052e-07 -2.56153e-07 0)
(7.6415e-07 -2.51178e-07 0)
(7.94993e-07 -2.46371e-07 0)
(8.25602e-07 -2.41608e-07 0)
(8.56023e-07 -2.36904e-07 0)
(8.86254e-07 -2.3219e-07 0)
(9.1635e-07 -2.27367e-07 0)
(9.4637e-07 -2.22429e-07 0)
(9.76361e-07 -2.17339e-07 0)
(3.6956e-07 -3.42133e-07 0)
(4.02601e-07 -3.34315e-07 0)
(4.35588e-07 -3.26795e-07 0)
(4.68538e-07 -3.19428e-07 0)
(5.01388e-07 -3.12307e-07 0)
(5.34088e-07 -3.05446e-07 0)
(5.66588e-07 -2.98888e-07 0)
(5.98895e-07 -2.92621e-07 0)
(6.30946e-07 -2.86612e-07 0)
(6.62759e-07 -2.8087e-07 0)
(6.94316e-07 -2.75391e-07 0)
(7.25616e-07 -2.70104e-07 0)
(7.56678e-07 -2.64986e-07 0)
(7.87508e-07 -2.60061e-07 0)
(8.18117e-07 -2.55213e-07 0)
(8.48544e-07 -2.50465e-07 0)
(8.7878e-07 -2.45753e-07 0)
(9.08894e-07 -2.41001e-07 0)
(9.38956e-07 -2.36215e-07 0)
(9.68959e-07 -2.31338e-07 0)
(3.65095e-07 -3.56317e-07 0)
(3.97769e-07 -3.48682e-07 0)
(4.30418e-07 -3.4128e-07 0)
(4.63054e-07 -3.33984e-07 0)
(4.95609e-07 -3.26879e-07 0)
(5.2804e-07 -3.19984e-07 0)
(5.60309e-07 -3.13362e-07 0)
(5.92421e-07 -3.06999e-07 0)
(6.24326e-07 -3.00875e-07 0)
(6.56025e-07 -2.95002e-07 0)
(6.87497e-07 -2.8939e-07 0)
(7.18736e-07 -2.83973e-07 0)
(7.49756e-07 -2.78737e-07 0)
(7.80558e-07 -2.73717e-07 0)
(8.11147e-07 -2.68802e-07 0)
(8.41561e-07 -2.64023e-07 0)
(8.71783e-07 -2.59329e-07 0)
(9.01923e-07 -2.5467e-07 0)
(9.31948e-07 -2.50051e-07 0)
(9.61994e-07 -2.45413e-07 0)
(3.60961e-07 -3.70277e-07 0)
(3.93298e-07 -3.62818e-07 0)
(4.25633e-07 -3.55525e-07 0)
(4.57961e-07 -3.48293e-07 0)
(4.90242e-07 -3.41205e-07 0)
(5.22429e-07 -3.34294e-07 0)
(5.54507e-07 -3.27629e-07 0)
(5.86436e-07 -3.21199e-07 0)
(6.18207e-07 -3.14985e-07 0)
(6.49787e-07 -3.09005e-07 0)
(6.81168e-07 -3.03277e-07 0)
(7.12342e-07 -2.97744e-07 0)
(7.43317e-07 -2.92405e-07 0)
(7.74089e-07 -2.87301e-07 0)
(8.04653e-07 -2.82329e-07 0)
(8.35046e-07 -2.77527e-07 0)
(8.65256e-07 -2.7287e-07 0)
(8.95388e-07 -2.68315e-07 0)
(9.25378e-07 -2.63868e-07 0)
(9.55424e-07 -2.59519e-07 0)
(3.57062e-07 -3.84051e-07 0)
(3.89085e-07 -3.76757e-07 0)
(4.21123e-07 -3.69555e-07 0)
(4.53173e-07 -3.62383e-07 0)
(4.85218e-07 -3.55321e-07 0)
(5.17187e-07 -3.4841e-07 0)
(5.49092e-07 -3.41714e-07 0)
(5.80856e-07 -3.35229e-07 0)
(6.12503e-07 -3.28938e-07 0)
(6.43996e-07 -3.22864e-07 0)
(6.75319e-07 -3.17043e-07 0)
(7.06455e-07 -3.11418e-07 0)
(7.37409e-07 -3.05993e-07 0)
(7.68167e-07 -3.00816e-07 0)
(7.98716e-07 -2.95791e-07 0)
(8.29094e-07 -2.90974e-07 0)
(8.59307e-07 -2.8636e-07 0)
(8.8939e-07 -2.81917e-07 0)
(9.19398e-07 -2.77665e-07 0)
(9.49404e-07 -2.7361e-07 0)
(3.53293e-07 -3.97675e-07 0)
(3.85023e-07 -3.90517e-07 0)
(4.16797e-07 -3.83397e-07 0)
(4.48611e-07 -3.76289e-07 0)
(4.80451e-07 -3.69261e-07 0)
(5.12241e-07 -3.6236e-07 0)
(5.43998e-07 -3.55638e-07 0)
(5.75656e-07 -3.49113e-07 0)
(6.07203e-07 -3.42765e-07 0)
(6.38617e-07 -3.36618e-07 0)
(6.69888e-07 -3.30717e-07 0)
(7.00996e-07 -3.25012e-07 0)
(7.31934e-07 -3.19507e-07 0)
(7.62683e-07 -3.14252e-07 0)
(7.93231e-07 -3.0917e-07 0)
(8.23617e-07 -3.04345e-07 0)
(8.53829e-07 -2.99777e-07 0)
(8.83884e-07 -2.95436e-07 0)
(9.13879e-07 -2.91392e-07 0)
(9.43878e-07 -2.87648e-07 0)
(3.49554e-07 -4.1118e-07 0)
(3.8104e-07 -4.04135e-07 0)
(4.1258e-07 -3.97087e-07 0)
(4.44201e-07 -3.90047e-07 0)
(4.75857e-07 -3.83053e-07 0)
(5.07519e-07 -3.76164e-07 0)
(5.39142e-07 -3.69433e-07 0)
(5.70712e-07 -3.6287e-07 0)
(6.02195e-07 -3.56466e-07 0)
(6.33574e-07 -3.50261e-07 0)
(6.64831e-07 -3.44298e-07 0)
(6.95939e-07 -3.38516e-07 0)
(7.26888e-07 -3.32926e-07 0)
(7.57656e-07 -3.27601e-07 0)
(7.88236e-07 -3.22481e-07 0)
(8.18668e-07 -3.17638e-07 0)
(8.48887e-07 -3.13087e-07 0)
(8.78982e-07 -3.08842e-07 0)
(9.08909e-07 -3.05006e-07 0)
(9.38897e-07 -3.01578e-07 0)
(3.45805e-07 -4.24566e-07 0)
(3.77059e-07 -4.17643e-07 0)
(4.08414e-07 -4.10668e-07 0)
(4.3988e-07 -4.03687e-07 0)
(4.71411e-07 -3.96739e-07 0)
(5.02962e-07 -3.89857e-07 0)
(5.34501e-07 -3.83112e-07 0)
(5.66009e-07 -3.76531e-07 0)
(5.97461e-07 -3.70098e-07 0)
(6.28837e-07 -3.63844e-07 0)
(6.60109e-07 -3.57814e-07 0)
(6.91239e-07 -3.51963e-07 0)
(7.22228e-07 -3.46304e-07 0)
(7.5307e-07 -3.40909e-07 0)
(7.83738e-07 -3.3574e-07 0)
(8.1423e-07 -3.3087e-07 0)
(8.44494e-07 -3.26314e-07 0)
(8.74674e-07 -3.22135e-07 0)
(9.04639e-07 -3.18492e-07 0)
(9.34561e-07 -3.15404e-07 0)
(3.41936e-07 -4.37914e-07 0)
(3.72981e-07 -4.31072e-07 0)
(4.04213e-07 -4.24169e-07 0)
(4.35557e-07 -4.17249e-07 0)
(4.6699e-07 -4.10325e-07 0)
(4.98461e-07 -4.03455e-07 0)
(5.29957e-07 -3.96711e-07 0)
(5.61455e-07 -3.90117e-07 0)
(5.92916e-07 -3.83656e-07 0)
(6.24308e-07 -3.77361e-07 0)
(6.55615e-07 -3.71272e-07 0)
(6.86823e-07 -3.65351e-07 0)
(7.17917e-07 -3.59635e-07 0)
(7.48854e-07 -3.54196e-07 0)
(7.79635e-07 -3.48949e-07 0)
(8.10273e-07 -3.44002e-07 0)
(8.40724e-07 -3.39458e-07 0)
(8.70979e-07 -3.35312e-07 0)
(9.01054e-07 -3.31769e-07 0)
(9.30989e-07 -3.2899e-07 0)
(3.37951e-07 -4.51191e-07 0)
(3.68871e-07 -4.44447e-07 0)
(3.99991e-07 -4.37616e-07 0)
(4.31248e-07 -4.30738e-07 0)
(4.62613e-07 -4.23842e-07 0)
(4.94064e-07 -4.16991e-07 0)
(5.25569e-07 -4.10267e-07 0)
(5.57086e-07 -4.03675e-07 0)
(5.88584e-07 -3.97179e-07 0)
(6.2005e-07 -3.90835e-07 0)
(6.51454e-07 -3.84723e-07 0)
(6.82758e-07 -3.78776e-07 0)
(7.13975e-07 -3.72981e-07 0)
(7.45078e-07 -3.67468e-07 0)
(7.76028e-07 -3.62193e-07 0)
(8.06855e-07 -3.57187e-07 0)
(8.37576e-07 -3.52587e-07 0)
(8.68061e-07 -3.48396e-07 0)
(8.98395e-07 -3.44877e-07 0)
(9.28457e-07 -3.42292e-07 0)
(2.12313e-08 -3.34255e-07 0)
(6.38648e-08 -3.29604e-07 0)
(1.06916e-07 -3.20409e-07 0)
(1.50686e-07 -3.07147e-07 0)
(1.95283e-07 -2.90325e-07 0)
(2.40789e-07 -2.7055e-07 0)
(2.87203e-07 -2.48644e-07 0)
(3.34393e-07 -2.25261e-07 0)
(3.82534e-07 -2.01129e-07 0)
(4.30979e-07 -1.76664e-07 0)
(2.07809e-08 -3.41886e-07 0)
(6.25004e-08 -3.37617e-07 0)
(1.04517e-07 -3.29186e-07 0)
(1.47102e-07 -3.16994e-07 0)
(1.90333e-07 -3.01487e-07 0)
(2.34225e-07 -2.83169e-07 0)
(2.78828e-07 -2.62724e-07 0)
(3.2383e-07 -2.40795e-07 0)
(3.69447e-07 -2.17951e-07 0)
(4.14594e-07 -1.95219e-07 0)
(2.03352e-08 -3.49641e-07 0)
(6.11452e-08 -3.45728e-07 0)
(1.02187e-07 -3.3798e-07 0)
(1.43625e-07 -3.2675e-07 0)
(1.85582e-07 -3.12436e-07 0)
(2.27993e-07 -2.955e-07 0)
(2.70949e-07 -2.76512e-07 0)
(3.14153e-07 -2.56081e-07 0)
(3.57826e-07 -2.34601e-07 0)
(4.01005e-07 -2.13279e-07 0)
(1.99516e-08 -3.57536e-07 0)
(5.99396e-08 -3.53919e-07 0)
(1.00156e-07 -3.46763e-07 0)
(1.40632e-07 -3.36372e-07 0)
(1.8152e-07 -3.2311e-07 0)
(2.22719e-07 -3.07385e-07 0)
(2.64307e-07 -2.89695e-07 0)
(3.06e-07 -2.70635e-07 0)
(3.47936e-07 -2.50538e-07 0)
(3.89372e-07 -2.30633e-07 0)
(1.96162e-08 -3.65581e-07 0)
(5.88534e-08 -3.62238e-07 0)
(9.82998e-08 -3.55631e-07 0)
(1.37914e-07 -3.46007e-07 0)
(1.77841e-07 -3.33694e-07 0)
(2.17976e-07 -3.19102e-07 0)
(2.58384e-07 -3.0265e-07 0)
(2.98826e-07 -2.8485e-07 0)
(3.39349e-07 -2.66027e-07 0)
(3.79391e-07 -2.47336e-07 0)
(1.92869e-08 -3.73774e-07 0)
(5.78731e-08 -3.70662e-07 0)
(9.66086e-08 -3.64526e-07 0)
(1.35471e-07 -3.55604e-07 0)
(1.7456e-07 -3.44151e-07 0)
(2.13801e-07 -3.30574e-07 0)
(2.53175e-07 -3.15257e-07 0)
(2.92525e-07 -2.98633e-07 0)
(3.31834e-07 -2.81027e-07 0)
(3.7068e-07 -2.63496e-07 0)
(1.89729e-08 -3.82099e-07 0)
(5.6959e-08 -3.79214e-07 0)
(9.50433e-08 -3.73502e-07 0)
(1.33241e-07 -3.65219e-07 0)
(1.71566e-07 -3.54555e-07 0)
(2.10018e-07 -3.41906e-07 0)
(2.48519e-07 -3.27632e-07 0)
(2.86937e-07 -3.12095e-07 0)
(3.25229e-07 -2.95618e-07 0)
(3.6307e-07 -2.79158e-07 0)
(1.87068e-08 -3.90561e-07 0)
(5.611e-08 -3.87879e-07 0)
(9.3597e-08 -3.82555e-07 0)
(1.31188e-07 -3.74851e-07 0)
(1.68841e-07 -3.64913e-07 0)
(2.06576e-07 -3.53108e-07 0)
(2.4431e-07 -3.39793e-07 0)
(2.81938e-07 -3.2527e-07 0)
(3.1938e-07 -3.09848e-07 0)
(3.56388e-07 -2.94391e-07 0)
(1.84568e-08 -3.99164e-07 0)
(5.531e-08 -3.96661e-07 0)
(9.22538e-08 -3.91694e-07 0)
(1.29273e-07 -3.84516e-07 0)
(1.66323e-07 -3.75251e-07 0)
(2.03431e-07 -3.64219e-07 0)
(2.40484e-07 -3.51784e-07 0)
(2.77423e-07 -3.38206e-07 0)
(3.1415e-07 -3.23768e-07 0)
(3.50463e-07 -3.09243e-07 0)
(1.81914e-08 -4.07894e-07 0)
(5.45495e-08 -4.05566e-07 0)
(9.09884e-08 -4.00924e-07 0)
(1.27477e-07 -3.9422e-07 0)
(1.63964e-07 -3.8558e-07 0)
(2.00514e-07 -3.75262e-07 0)
(2.36968e-07 -3.63633e-07 0)
(2.73303e-07 -3.50933e-07 0)
(3.09418e-07 -3.37414e-07 0)
(3.45134e-07 -3.23759e-07 0)
(1.79275e-08 -4.16743e-07 0)
(5.38383e-08 -4.14595e-07 0)
(8.97822e-08 -4.1025e-07 0)
(1.25782e-07 -4.03974e-07 0)
(1.61743e-07 -3.95909e-07 0)
(1.97775e-07 -3.86254e-07 0)
(2.33701e-07 -3.75366e-07 0)
(2.695e-07 -3.63481e-07 0)
(3.05084e-07 -3.50819e-07 0)
(3.40284e-07 -3.37981e-07 0)
(1.76915e-08 -4.25719e-07 0)
(5.31723e-08 -4.23742e-07 0)
(8.86235e-08 -4.1967e-07 0)
(1.24162e-07 -4.13785e-07 0)
(1.59639e-07 -4.06245e-07 0)
(1.95182e-07 -3.97207e-07 0)
(2.30632e-07 -3.87007e-07 0)
(2.65953e-07 -3.75877e-07 0)
(3.01073e-07 -3.64009e-07 0)
(3.35842e-07 -3.51943e-07 0)
(1.74784e-08 -4.3483e-07 0)
(5.25175e-08 -4.32994e-07 0)
(8.74875e-08 -4.29179e-07 0)
(1.22576e-07 -4.23655e-07 0)
(1.57608e-07 -4.16595e-07 0)
(1.92687e-07 -4.08129e-07 0)
(2.27701e-07 -3.98571e-07 0)
(2.62598e-07 -3.88139e-07 0)
(2.97325e-07 -3.77015e-07 0)
(3.3176e-07 -3.65679e-07 0)
(1.72609e-08 -4.44065e-07 0)
(5.18371e-08 -4.42338e-07 0)
(8.63441e-08 -4.38766e-07 0)
(1.20983e-07 -4.3358e-07 0)
(1.5559e-07 -4.26959e-07 0)
(1.90237e-07 -4.19025e-07 0)
(2.24848e-07 -4.10066e-07 0)
(2.59377e-07 -4.00293e-07 0)
(2.93785e-07 -3.89879e-07 0)
(3.27949e-07 -3.7923e-07 0)
(1.70238e-08 -4.53399e-07 0)
(5.11214e-08 -4.51764e-07 0)
(8.51782e-08 -4.48427e-07 0)
(1.19365e-07 -4.43556e-07 0)
(1.53555e-07 -4.37345e-07 0)
(1.87792e-07 -4.29912e-07 0)
(2.22028e-07 -4.21518e-07 0)
(2.56237e-07 -4.12367e-07 0)
(2.90364e-07 -4.02625e-07 0)
(3.24298e-07 -3.9262e-07 0)
(1.67721e-08 -4.62816e-07 0)
(5.03824e-08 -4.61268e-07 0)
(8.39866e-08 -4.58156e-07 0)
(1.1771e-07 -4.53588e-07 0)
(1.51477e-07 -4.47755e-07 0)
(1.85314e-07 -4.40786e-07 0)
(2.192e-07 -4.32929e-07 0)
(2.53127e-07 -4.24371e-07 0)
(2.8699e-07 -4.15261e-07 0)
(3.20752e-07 -4.05871e-07 0)
(1.65159e-08 -4.72307e-07 0)
(4.96239e-08 -4.70847e-07 0)
(8.27502e-08 -4.67944e-07 0)
(1.15992e-07 -4.63659e-07 0)
(1.49328e-07 -4.58193e-07 0)
(1.82773e-07 -4.51668e-07 0)
(2.16325e-07 -4.44327e-07 0)
(2.49959e-07 -4.36333e-07 0)
(2.83593e-07 -4.27816e-07 0)
(3.17195e-07 -4.19027e-07 0)
(1.62513e-08 -4.81866e-07 0)
(4.88224e-08 -4.80491e-07 0)
(8.14341e-08 -4.77777e-07 0)
(1.1417e-07 -4.73769e-07 0)
(1.4705e-07 -4.68652e-07 0)
(1.801e-07 -4.62555e-07 0)
(2.13321e-07 -4.55697e-07 0)
(2.46653e-07 -4.48236e-07 0)
(2.80111e-07 -4.40292e-07 0)
(3.13572e-07 -4.32075e-07 0)
(1.59648e-08 -4.91468e-07 0)
(4.79441e-08 -4.90179e-07 0)
(7.99944e-08 -4.87642e-07 0)
(1.12207e-07 -4.83904e-07 0)
(1.44614e-07 -4.79135e-07 0)
(1.77256e-07 -4.73456e-07 0)
(2.10127e-07 -4.67061e-07 0)
(2.43193e-07 -4.60113e-07 0)
(2.76435e-07 -4.52732e-07 0)
(3.09801e-07 -4.45088e-07 0)
(1.56502e-08 -5.01072e-07 0)
(4.69925e-08 -4.99873e-07 0)
(7.84328e-08 -4.97516e-07 0)
(1.10079e-07 -4.94047e-07 0)
(1.41993e-07 -4.89619e-07 0)
(1.74221e-07 -4.84351e-07 0)
(2.06733e-07 -4.78413e-07 0)
(2.39593e-07 -4.71956e-07 0)
(2.72647e-07 -4.65117e-07 0)
(3.05976e-07 -4.58039e-07 0)
)


// ************************************************************************* //
