/*--------------------------------*- C++ -*----------------------------------*\
| =========                 |                                                 |
| \\      /  F ield         | foam-extend: Open Source CFD                    |
|  \\    /   O peration     | Version:     4.1                                |
|   \\  /    A nd           | Web:         http://www.foam-extend.org         |
|    \\/     M anipulation  |                                                 |
\*---------------------------------------------------------------------------*/
FoamFile
{
    version     2.0;
    format      ascii;
    class       vectorField;
    location    "1";
    object      solidsCellD_iteration6;
}
// * * * * * * * * * * * * * * * * * * * * * * * * * * * * * * * * * * * * * //


1000
(
(3.88163e-07 -8.24778e-08 0)
(3.75852e-07 -8.16827e-08 0)
(3.6974e-07 -8.32762e-08 0)
(3.6803e-07 -8.66664e-08 0)
(3.69518e-07 -9.13116e-08 0)
(3.73442e-07 -9.68497e-08 0)
(3.79163e-07 -1.0307e-07 0)
(3.86111e-07 -1.09956e-07 0)
(3.9424e-07 -1.17149e-07 0)
(4.01372e-07 -1.24981e-07 0)
(3.52461e-07 -9.03328e-08 0)
(3.39261e-07 -9.1906e-08 0)
(3.32361e-07 -9.51363e-08 0)
(3.29975e-07 -9.97263e-08 0)
(3.30711e-07 -1.05254e-07 0)
(3.33725e-07 -1.11467e-07 0)
(3.3843e-07 -1.18179e-07 0)
(3.44263e-07 -1.25419e-07 0)
(3.51109e-07 -1.32732e-07 0)
(3.57536e-07 -1.40826e-07 0)
(3.14838e-07 -9.77261e-08 0)
(3.0125e-07 -1.01913e-07 0)
(2.93951e-07 -1.06853e-07 0)
(2.91071e-07 -1.12618e-07 0)
(2.9125e-07 -1.18932e-07 0)
(2.93589e-07 -1.25681e-07 0)
(2.97535e-07 -1.32752e-07 0)
(3.0264e-07 -1.40134e-07 0)
(3.08718e-07 -1.47449e-07 0)
(3.14724e-07 -1.5534e-07 0)
(2.75672e-07 -1.04532e-07 0)
(2.62366e-07 -1.11386e-07 0)
(2.55054e-07 -1.18031e-07 0)
(2.51895e-07 -1.24923e-07 0)
(2.51652e-07 -1.31995e-07 0)
(2.53485e-07 -1.39214e-07 0)
(2.56798e-07 -1.46554e-07 0)
(2.61287e-07 -1.54026e-07 0)
(2.66701e-07 -1.6138e-07 0)
(2.72286e-07 -1.6912e-07 0)
(2.35317e-07 -1.10595e-07 0)
(2.22838e-07 -1.20037e-07 0)
(2.15835e-07 -1.28353e-07 0)
(2.12683e-07 -1.36327e-07 0)
(2.12222e-07 -1.44076e-07 0)
(2.13619e-07 -1.51723e-07 0)
(2.16381e-07 -1.59316e-07 0)
(2.20231e-07 -1.66883e-07 0)
(2.24987e-07 -1.74291e-07 0)
(2.3e-07 -1.81935e-07 0)
(1.9385e-07 -1.15836e-07 0)
(1.82777e-07 -1.27658e-07 0)
(1.76524e-07 -1.37496e-07 0)
(1.73603e-07 -1.46479e-07 0)
(1.73018e-07 -1.54875e-07 0)
(1.74016e-07 -1.62923e-07 0)
(1.76288e-07 -1.70723e-07 0)
(1.79534e-07 -1.78391e-07 0)
(1.83569e-07 -1.85879e-07 0)
(1.87864e-07 -1.93479e-07 0)
(1.51612e-07 -1.20109e-07 0)
(1.42417e-07 -1.3402e-07 0)
(1.37192e-07 -1.45198e-07 0)
(1.34678e-07 -1.55053e-07 0)
(1.34081e-07 -1.63994e-07 0)
(1.34812e-07 -1.72395e-07 0)
(1.36612e-07 -1.80395e-07 0)
(1.39199e-07 -1.88176e-07 0)
(1.42413e-07 -1.95758e-07 0)
(1.45861e-07 -2.03343e-07 0)
(1.08745e-07 -1.23382e-07 0)
(1.01814e-07 -1.38968e-07 0)
(9.78806e-08 -1.512e-07 0)
(9.60029e-08 -1.61719e-07 0)
(9.55178e-08 -1.71122e-07 0)
(9.60175e-08 -1.79805e-07 0)
(9.73027e-08 -1.87987e-07 0)
(9.91739e-08 -1.9586e-07 0)
(1.0151e-07 -2.03516e-07 0)
(1.04022e-07 -2.11087e-07 0)
(6.54203e-08 -1.25592e-07 0)
(6.11454e-08 -1.4233e-07 0)
(5.87308e-08 -1.55291e-07 0)
(5.75242e-08 -1.66325e-07 0)
(5.71698e-08 -1.76047e-07 0)
(5.74635e-08 -1.84907e-07 0)
(5.82689e-08 -1.93226e-07 0)
(5.94149e-08 -2.01205e-07 0)
(6.0813e-08 -2.08952e-07 0)
(6.23322e-08 -2.16537e-07 0)
(2.18573e-08 -1.26711e-07 0)
(2.04002e-08 -1.44045e-07 0)
(1.95504e-08 -1.57383e-07 0)
(1.91555e-08 -1.68652e-07 0)
(1.90685e-08 -1.78521e-07 0)
(1.91505e-08 -1.87483e-07 0)
(1.93866e-08 -1.95855e-07 0)
(1.97727e-08 -2.0386e-07 0)
(2.02539e-08 -2.11639e-07 0)
(2.07584e-08 -2.19221e-07 0)
(5.87226e-07 -3.67466e-09 0)
(5.90698e-07 -2.79939e-09 0)
(5.94867e-07 -2.35107e-09 0)
(6.00257e-07 -2.19871e-09 0)
(6.07011e-07 -2.24056e-09 0)
(6.15046e-07 -2.42089e-09 0)
(6.2437e-07 -2.68068e-09 0)
(6.34767e-07 -2.98732e-09 0)
(6.4629e-07 -3.37207e-09 0)
(6.58776e-07 -3.78921e-09 0)
(5.83352e-07 -1.10584e-08 0)
(5.86287e-07 -8.48941e-09 0)
(5.90135e-07 -7.17103e-09 0)
(5.95277e-07 -6.76002e-09 0)
(6.01863e-07 -6.91376e-09 0)
(6.0974e-07 -7.41287e-09 0)
(6.18994e-07 -8.20847e-09 0)
(6.29343e-07 -9.20218e-09 0)
(6.40773e-07 -1.03323e-08 0)
(6.53229e-07 -1.15258e-08 0)
(5.75512e-07 -1.84845e-08 0)
(5.7744e-07 -1.44331e-08 0)
(5.80669e-07 -1.23772e-08 0)
(5.85401e-07 -1.16937e-08 0)
(5.9171e-07 -1.19797e-08 0)
(5.9942e-07 -1.28853e-08 0)
(6.08484e-07 -1.42214e-08 0)
(6.187e-07 -1.58469e-08 0)
(6.29972e-07 -1.76953e-08 0)
(6.42359e-07 -1.96766e-08 0)
(5.63848e-07 -2.6042e-08 0)
(5.6437e-07 -2.07515e-08 0)
(5.66668e-07 -1.818e-08 0)
(5.70835e-07 -1.73923e-08 0)
(5.76707e-07 -1.78363e-08 0)
(5.84117e-07 -1.91028e-08 0)
(5.92955e-07 -2.09393e-08 0)
(6.03047e-07 -2.31943e-08 0)
(6.14134e-07 -2.57762e-08 0)
(6.26468e-07 -2.85281e-08 0)
(5.48423e-07 -3.37542e-08 0)
(5.47263e-07 -2.75945e-08 0)
(5.48426e-07 -2.47076e-08 0)
(5.5183e-07 -2.396e-08 0)
(5.57197e-07 -2.46363e-08 0)
(5.64265e-07 -2.62941e-08 0)
(5.72808e-07 -2.86568e-08 0)
(5.827e-07 -3.15268e-08 0)
(5.93562e-07 -3.47953e-08 0)
(6.05862e-07 -3.82461e-08 0)
(5.29419e-07 -4.16479e-08 0)
(5.263e-07 -3.50758e-08 0)
(5.26219e-07 -3.21178e-08 0)
(5.28801e-07 -3.15701e-08 0)
(5.33601e-07 -3.2604e-08 0)
(5.40271e-07 -3.47089e-08 0)
(5.48527e-07 -3.75849e-08 0)
(5.58202e-07 -4.09981e-08 0)
(5.68848e-07 -4.4886e-08 0)
(5.81146e-07 -4.89698e-08 0)
(5.07063e-07 -4.97075e-08 0)
(5.01843e-07 -4.3247e-08 0)
(5.00427e-07 -4.05355e-08 0)
(5.0215e-07 -4.03797e-08 0)
(5.06341e-07 -4.18667e-08 0)
(5.12598e-07 -4.44547e-08 0)
(5.20557e-07 -4.78219e-08 0)
(5.30001e-07 -5.17172e-08 0)
(5.40434e-07 -5.61686e-08 0)
(5.5278e-07 -6.08026e-08 0)
(4.81506e-07 -5.78795e-08 0)
(4.742e-07 -5.21021e-08 0)
(4.71437e-07 -4.99841e-08 0)
(4.72279e-07 -5.04115e-08 0)
(4.75871e-07 -5.24653e-08 0)
(4.81713e-07 -5.55974e-08 0)
(4.89361e-07 -5.94674e-08 0)
(4.98601e-07 -6.38194e-08 0)
(5.08879e-07 -6.87749e-08 0)
(5.21264e-07 -7.38405e-08 0)
(4.53006e-07 -6.61244e-08 0)
(4.43742e-07 -6.15586e-08 0)
(4.39738e-07 -6.03898e-08 0)
(4.39698e-07 -6.16093e-08 0)
(4.42684e-07 -6.43689e-08 0)
(4.48029e-07 -6.81337e-08 0)
(4.55279e-07 -7.25576e-08 0)
(4.64204e-07 -7.73602e-08 0)
(4.74225e-07 -8.27155e-08 0)
(4.8645e-07 -8.79679e-08 0)
(4.2183e-07 -7.43486e-08 0)
(4.10866e-07 -7.14627e-08 0)
(4.05725e-07 -7.15573e-08 0)
(4.04845e-07 -7.38059e-08 0)
(4.0717e-07 -7.74432e-08 0)
(4.11973e-07 -8.19971e-08 0)
(4.18837e-07 -8.719e-08 0)
(4.27455e-07 -9.27544e-08 0)
(4.37449e-07 -9.88278e-08 0)
(4.48953e-07 -1.0472e-07 0)
(6.72039e-07 -4.14473e-09 0)
(6.86356e-07 -4.38743e-09 0)
(7.01419e-07 -4.58704e-09 0)
(7.17148e-07 -4.75857e-09 0)
(7.33489e-07 -4.90371e-09 0)
(7.50432e-07 -5.0259e-09 0)
(7.67917e-07 -5.12672e-09 0)
(7.8585e-07 -5.22899e-09 0)
(8.0422e-07 -5.34159e-09 0)
(8.23039e-07 -5.44053e-09 0)
(8.42262e-07 -5.51161e-09 0)
(8.61834e-07 -5.56085e-09 0)
(8.81734e-07 -5.60128e-09 0)
(9.01956e-07 -5.64214e-09 0)
(9.22485e-07 -5.68087e-09 0)
(9.43302e-07 -5.70683e-09 0)
(9.64396e-07 -5.71121e-09 0)
(9.85764e-07 -5.6886e-09 0)
(1.00735e-06 -5.64541e-09 0)
(1.02919e-06 -5.59374e-09 0)
(6.66705e-07 -1.25771e-08 0)
(6.81414e-07 -1.32955e-08 0)
(6.96831e-07 -1.38727e-08 0)
(7.12903e-07 -1.43608e-08 0)
(7.29583e-07 -1.47639e-08 0)
(7.46813e-07 -1.51176e-08 0)
(7.64551e-07 -1.54464e-08 0)
(7.82754e-07 -1.57664e-08 0)
(8.01397e-07 -1.60632e-08 0)
(8.20461e-07 -1.63041e-08 0)
(8.399e-07 -1.64964e-08 0)
(8.5969e-07 -1.66631e-08 0)
(8.79816e-07 -1.68122e-08 0)
(9.00253e-07 -1.69385e-08 0)
(9.20969e-07 -1.70305e-08 0)
(9.41951e-07 -1.70819e-08 0)
(9.63202e-07 -1.70856e-08 0)
(9.84712e-07 -1.70352e-08 0)
(1.00645e-06 -1.69425e-08 0)
(1.02843e-06 -1.6815e-08 0)
(6.56221e-07 -2.13945e-08 0)
(6.71735e-07 -2.25068e-08 0)
(6.87923e-07 -2.33718e-08 0)
(7.04641e-07 -2.41198e-08 0)
(7.21919e-07 -2.47669e-08 0)
(7.39746e-07 -2.53562e-08 0)
(7.58069e-07 -2.5904e-08 0)
(7.76801e-07 -2.64114e-08 0)
(7.95918e-07 -2.68571e-08 0)
(8.15424e-07 -2.7227e-08 0)
(8.35301e-07 -2.75508e-08 0)
(8.55522e-07 -2.78485e-08 0)
(8.76053e-07 -2.81059e-08 0)
(8.96857e-07 -2.83022e-08 0)
(9.17921e-07 -2.84301e-08 0)
(9.39265e-07 -2.84927e-08 0)
(9.60862e-07 -2.84857e-08 0)
(9.82709e-07 -2.84124e-08 0)
(1.00476e-06 -2.82941e-08 0)
(1.02704e-06 -2.81207e-08 0)
(6.40891e-07 -3.07944e-08 0)
(6.57506e-07 -3.21441e-08 0)
(6.74765e-07 -3.31837e-08 0)
(6.92475e-07 -3.41281e-08 0)
(7.107e-07 -3.49858e-08 0)
(7.29386e-07 -3.57852e-08 0)
(7.48501e-07 -3.65196e-08 0)
(7.67989e-07 -3.71881e-08 0)
(7.87866e-07 -3.77735e-08 0)
(8.08104e-07 -3.82811e-08 0)
(8.28658e-07 -3.87377e-08 0)
(8.49501e-07 -3.91425e-08 0)
(8.70609e-07 -3.94699e-08 0)
(8.91958e-07 -3.97105e-08 0)
(9.1355e-07 -3.98765e-08 0)
(9.35413e-07 -3.99578e-08 0)
(9.57499e-07 -3.99495e-08 0)
(9.79829e-07 -3.9859e-08 0)
(1.00233e-06 -3.97084e-08 0)
(1.02503e-06 -3.95062e-08 0)
(6.21052e-07 -4.09126e-08 0)
(6.39144e-07 -4.23374e-08 0)
(6.57837e-07 -4.34565e-08 0)
(6.76804e-07 -4.45433e-08 0)
(6.96206e-07 -4.55481e-08 0)
(7.15991e-07 -4.64917e-08 0)
(7.36175e-07 -4.73648e-08 0)
(7.56672e-07 -4.81768e-08 0)
(7.77501e-07 -4.88964e-08 0)
(7.98634e-07 -4.95247e-08 0)
(8.20038e-07 -5.00847e-08 0)
(8.41692e-07 -5.05685e-08 0)
(8.63576e-07 -5.09506e-08 0)
(8.85677e-07 -5.12298e-08 0)
(9.08003e-07 -5.14244e-08 0)
(9.30522e-07 -5.15164e-08 0)
(9.53268e-07 -5.15057e-08 0)
(9.76171e-07 -5.14053e-08 0)
(9.99281e-07 -5.12336e-08 0)
(1.02255e-06 -5.10186e-08 0)
(5.97241e-07 -5.18921e-08 0)
(6.17024e-07 -5.32028e-08 0)
(6.37419e-07 -5.42458e-08 0)
(6.57934e-07 -5.53717e-08 0)
(6.78832e-07 -5.64588e-08 0)
(7e-07 -5.75157e-08 0)
(7.21458e-07 -5.85014e-08 0)
(7.43168e-07 -5.94075e-08 0)
(7.65129e-07 -6.02172e-08 0)
(7.8733e-07 -6.09378e-08 0)
(8.09762e-07 -6.15849e-08 0)
(8.32406e-07 -6.21391e-08 0)
(8.55227e-07 -6.25716e-08 0)
(8.7821e-07 -6.28873e-08 0)
(9.01393e-07 -6.30931e-08 0)
(9.2471e-07 -6.31794e-08 0)
(9.48247e-07 -6.31582e-08 0)
(9.71885e-07 -6.30528e-08 0)
(9.95738e-07 -6.28793e-08 0)
(1.0197e-06 -6.26574e-08 0)
(5.70013e-07 -6.38116e-08 0)
(5.9178e-07 -6.47881e-08 0)
(6.1417e-07 -6.55981e-08 0)
(6.36482e-07 -6.66563e-08 0)
(6.59042e-07 -6.77322e-08 0)
(6.81788e-07 -6.8818e-08 0)
(7.04668e-07 -6.98596e-08 0)
(7.27739e-07 -7.08256e-08 0)
(7.51004e-07 -7.17103e-08 0)
(7.74453e-07 -7.25167e-08 0)
(7.98068e-07 -7.3241e-08 0)
(8.21826e-07 -7.38497e-08 0)
(8.45703e-07 -7.43138e-08 0)
(8.69705e-07 -7.46474e-08 0)
(8.93852e-07 -7.48537e-08 0)
(9.18115e-07 -7.49363e-08 0)
(9.42579e-07 -7.49161e-08 0)
(9.67114e-07 -7.48098e-08 0)
(9.91817e-07 -7.46246e-08 0)
(1.01657e-06 -7.4374e-08 0)
(5.3983e-07 -7.67492e-08 0)
(5.63809e-07 -7.7129e-08 0)
(5.88409e-07 -7.75438e-08 0)
(6.12766e-07 -7.83925e-08 0)
(6.37217e-07 -7.93438e-08 0)
(6.61722e-07 -8.03743e-08 0)
(6.86265e-07 -8.14065e-08 0)
(7.10882e-07 -8.23973e-08 0)
(7.35591e-07 -8.3332e-08 0)
(7.60399e-07 -8.4197e-08 0)
(7.85292e-07 -8.4968e-08 0)
(8.10243e-07 -8.56059e-08 0)
(8.3525e-07 -8.60914e-08 0)
(8.60367e-07 -8.64442e-08 0)
(8.85595e-07 -8.66664e-08 0)
(9.10926e-07 -8.67662e-08 0)
(9.36419e-07 -8.67554e-08 0)
(9.61941e-07 -8.66404e-08 0)
(9.87591e-07 -8.64173e-08 0)
(1.01324e-06 -8.61e-08 0)
(5.06948e-07 -9.07109e-08 0)
(5.33574e-07 -9.02109e-08 0)
(5.60717e-07 -9.00683e-08 0)
(5.87381e-07 -9.05326e-08 0)
(6.13973e-07 -9.12491e-08 0)
(6.404e-07 -9.21341e-08 0)
(6.66735e-07 -9.30826e-08 0)
(6.93007e-07 -9.40416e-08 0)
(7.19246e-07 -9.4979e-08 0)
(7.45469e-07 -9.58596e-08 0)
(7.71682e-07 -9.66467e-08 0)
(7.97889e-07 -9.73034e-08 0)
(8.24112e-07 -9.78222e-08 0)
(8.50424e-07 -9.82177e-08 0)
(8.76799e-07 -9.84812e-08 0)
(9.03255e-07 -9.86198e-08 0)
(9.29837e-07 -9.86263e-08 0)
(9.56409e-07 -9.84934e-08 0)
(9.83077e-07 -9.8212e-08 0)
(1.00972e-06 -9.77997e-08 0)
(4.72199e-07 -1.05985e-07 0)
(5.02665e-07 -1.03745e-07 0)
(5.32914e-07 -1.02884e-07 0)
(5.6223e-07 -1.02854e-07 0)
(5.9105e-07 -1.03257e-07 0)
(6.19457e-07 -1.03914e-07 0)
(6.47554e-07 -1.04708e-07 0)
(6.75426e-07 -1.05573e-07 0)
(7.03139e-07 -1.0646e-07 0)
(7.3073e-07 -1.07321e-07 0)
(7.58227e-07 -1.08111e-07 0)
(7.85651e-07 -1.08793e-07 0)
(8.13051e-07 -1.0936e-07 0)
(8.40501e-07 -1.09816e-07 0)
(8.67964e-07 -1.10143e-07 0)
(8.95489e-07 -1.10342e-07 0)
(9.23092e-07 -1.10389e-07 0)
(9.50682e-07 -1.10255e-07 0)
(9.78355e-07 -1.09927e-07 0)
(1.00604e-06 -1.09408e-07 0)
(4.40935e-07 -1.25632e-07 0)
(4.76567e-07 -1.20202e-07 0)
(5.10175e-07 -1.17893e-07 0)
(5.42281e-07 -1.16771e-07 0)
(5.73229e-07 -1.16431e-07 0)
(6.03395e-07 -1.16555e-07 0)
(6.32978e-07 -1.16965e-07 0)
(6.62148e-07 -1.17551e-07 0)
(6.91008e-07 -1.18228e-07 0)
(7.19632e-07 -1.18926e-07 0)
(7.48076e-07 -1.19595e-07 0)
(7.76378e-07 -1.20196e-07 0)
(8.04609e-07 -1.20713e-07 0)
(8.32839e-07 -1.2114e-07 0)
(8.6101e-07 -1.2145e-07 0)
(8.89212e-07 -1.21632e-07 0)
(9.17417e-07 -1.21655e-07 0)
(9.45616e-07 -1.21473e-07 0)
(9.73864e-07 -1.21076e-07 0)
(1.00213e-06 -1.20417e-07 0)
(4.25683e-07 -1.44254e-07 0)
(4.61649e-07 -1.3821e-07 0)
(4.95861e-07 -1.34628e-07 0)
(5.28974e-07 -1.32414e-07 0)
(5.61004e-07 -1.31191e-07 0)
(5.92204e-07 -1.30625e-07 0)
(6.22749e-07 -1.30487e-07 0)
(6.5279e-07 -1.30631e-07 0)
(6.82423e-07 -1.30945e-07 0)
(7.11737e-07 -1.31342e-07 0)
(7.40805e-07 -1.31765e-07 0)
(7.6967e-07 -1.32164e-07 0)
(7.98415e-07 -1.32515e-07 0)
(8.27098e-07 -1.32796e-07 0)
(8.55649e-07 -1.32978e-07 0)
(8.84199e-07 -1.33037e-07 0)
(9.12674e-07 -1.32944e-07 0)
(9.41136e-07 -1.32648e-07 0)
(9.69586e-07 -1.32133e-07 0)
(9.98014e-07 -1.31288e-07 0)
(4.15278e-07 -1.60606e-07 0)
(4.5056e-07 -1.54933e-07 0)
(4.84796e-07 -1.50999e-07 0)
(5.18239e-07 -1.48214e-07 0)
(5.50819e-07 -1.46373e-07 0)
(5.82639e-07 -1.45225e-07 0)
(6.13836e-07 -1.44572e-07 0)
(6.44501e-07 -1.44267e-07 0)
(6.74712e-07 -1.44195e-07 0)
(7.04559e-07 -1.44264e-07 0)
(7.34116e-07 -1.44408e-07 0)
(7.63422e-07 -1.4457e-07 0)
(7.92565e-07 -1.44718e-07 0)
(8.2159e-07 -1.44817e-07 0)
(8.50431e-07 -1.44838e-07 0)
(8.79236e-07 -1.44747e-07 0)
(9.07918e-07 -1.44519e-07 0)
(9.36573e-07 -1.44104e-07 0)
(9.65158e-07 -1.43461e-07 0)
(9.93694e-07 -1.4243e-07 0)
(4.07072e-07 -1.76199e-07 0)
(4.41689e-07 -1.70925e-07 0)
(4.75642e-07 -1.66895e-07 0)
(5.0909e-07 -1.63786e-07 0)
(5.41869e-07 -1.61512e-07 0)
(5.7403e-07 -1.59905e-07 0)
(6.0564e-07 -1.58814e-07 0)
(6.36735e-07 -1.58106e-07 0)
(6.67375e-07 -1.57669e-07 0)
(6.97645e-07 -1.57418e-07 0)
(7.27602e-07 -1.57283e-07 0)
(7.57273e-07 -1.57204e-07 0)
(7.86751e-07 -1.57141e-07 0)
(8.16068e-07 -1.57056e-07 0)
(8.45169e-07 -1.5691e-07 0)
(8.74205e-07 -1.56669e-07 0)
(9.03077e-07 -1.5631e-07 0)
(9.31907e-07 -1.55777e-07 0)
(9.60614e-07 -1.54999e-07 0)
(9.89264e-07 -1.53827e-07 0)
(4.00363e-07 -1.91063e-07 0)
(4.34414e-07 -1.86226e-07 0)
(4.68003e-07 -1.82302e-07 0)
(5.01295e-07 -1.79068e-07 0)
(5.34072e-07 -1.76526e-07 0)
(5.66377e-07 -1.74586e-07 0)
(5.98209e-07 -1.73144e-07 0)
(6.29572e-07 -1.72088e-07 0)
(6.60511e-07 -1.71322e-07 0)
(6.91097e-07 -1.70771e-07 0)
(7.21367e-07 -1.70367e-07 0)
(7.51331e-07 -1.7005e-07 0)
(7.81086e-07 -1.69779e-07 0)
(8.10649e-07 -1.69511e-07 0)
(8.39978e-07 -1.69203e-07 0)
(8.69221e-07 -1.68817e-07 0)
(8.98265e-07 -1.68328e-07 0)
(9.27243e-07 -1.67671e-07 0)
(9.56063e-07 -1.66759e-07 0)
(9.84832e-07 -1.65521e-07 0)
(3.94686e-07 -2.05434e-07 0)
(4.28263e-07 -2.00997e-07 0)
(4.61525e-07 -1.97244e-07 0)
(4.94574e-07 -1.94003e-07 0)
(5.27254e-07 -1.91317e-07 0)
(5.59576e-07 -1.89154e-07 0)
(5.91501e-07 -1.87447e-07 0)
(6.23018e-07 -1.8611e-07 0)
(6.54154e-07 -1.85064e-07 0)
(6.84967e-07 -1.8425e-07 0)
(7.15472e-07 -1.83604e-07 0)
(7.45665e-07 -1.83066e-07 0)
(7.75647e-07 -1.82601e-07 0)
(8.05413e-07 -1.82159e-07 0)
(8.34937e-07 -1.81695e-07 0)
(8.64351e-07 -1.81172e-07 0)
(8.93544e-07 -1.80553e-07 0)
(9.22643e-07 -1.79771e-07 0)
(9.51579e-07 -1.7876e-07 0)
(9.80458e-07 -1.77513e-07 0)
(3.89825e-07 -2.19444e-07 0)
(4.23004e-07 -2.15355e-07 0)
(4.55973e-07 -2.11791e-07 0)
(4.88763e-07 -2.08611e-07 0)
(5.21299e-07 -2.05874e-07 0)
(5.53556e-07 -2.03575e-07 0)
(5.85491e-07 -2.01679e-07 0)
(6.1708e-07 -2.00125e-07 0)
(6.48333e-07 -1.98851e-07 0)
(6.79294e-07 -1.97814e-07 0)
(7.09961e-07 -1.96955e-07 0)
(7.40323e-07 -1.96219e-07 0)
(7.7048e-07 -1.95574e-07 0)
(8.00403e-07 -1.94969e-07 0)
(8.30087e-07 -1.94352e-07 0)
(8.59635e-07 -1.93692e-07 0)
(8.88948e-07 -1.92947e-07 0)
(9.18153e-07 -1.92057e-07 0)
(9.47205e-07 -1.91e-07 0)
(9.76168e-07 -1.89734e-07 0)
(3.85642e-07 -2.33176e-07 0)
(4.18505e-07 -2.2938e-07 0)
(4.51196e-07 -2.2601e-07 0)
(4.8375e-07 -2.22933e-07 0)
(5.16112e-07 -2.20207e-07 0)
(5.48257e-07 -2.17834e-07 0)
(5.80148e-07 -2.15807e-07 0)
(6.11744e-07 -2.14089e-07 0)
(6.43044e-07 -2.1263e-07 0)
(6.74083e-07 -2.11407e-07 0)
(7.04848e-07 -2.10364e-07 0)
(7.35323e-07 -2.09455e-07 0)
(7.65607e-07 -2.08642e-07 0)
(7.95645e-07 -2.07882e-07 0)
(8.25449e-07 -2.07118e-07 0)
(8.55099e-07 -2.06325e-07 0)
(8.84512e-07 -2.05469e-07 0)
(9.13821e-07 -2.04506e-07 0)
(9.42967e-07 -2.03434e-07 0)
(9.71999e-07 -2.0211e-07 0)
(3.82002e-07 -2.46689e-07 0)
(4.14608e-07 -2.43147e-07 0)
(4.47059e-07 -2.39968e-07 0)
(4.79401e-07 -2.37008e-07 0)
(5.11582e-07 -2.34321e-07 0)
(5.43597e-07 -2.31911e-07 0)
(5.7541e-07 -2.29794e-07 0)
(6.06969e-07 -2.27953e-07 0)
(6.38263e-07 -2.26346e-07 0)
(6.69328e-07 -2.2497e-07 0)
(7.00141e-07 -2.23773e-07 0)
(7.30684e-07 -2.22715e-07 0)
(7.61048e-07 -2.21753e-07 0)
(7.91163e-07 -2.20848e-07 0)
(8.2105e-07 -2.19951e-07 0)
(8.50782e-07 -2.19045e-07 0)
(8.80282e-07 -2.1811e-07 0)
(9.09684e-07 -2.1711e-07 0)
(9.38892e-07 -2.16004e-07 0)
(9.67987e-07 -2.14651e-07 0)
(3.78815e-07 -2.6003e-07 0)
(4.11192e-07 -2.56725e-07 0)
(4.43445e-07 -2.53716e-07 0)
(4.75593e-07 -2.50866e-07 0)
(5.07607e-07 -2.48224e-07 0)
(5.39496e-07 -2.458e-07 0)
(5.71214e-07 -2.43626e-07 0)
(6.02707e-07 -2.41698e-07 0)
(6.33966e-07 -2.3998e-07 0)
(6.65024e-07 -2.38484e-07 0)
(6.95848e-07 -2.37162e-07 0)
(7.2642e-07 -2.35975e-07 0)
(7.56824e-07 -2.34883e-07 0)
(7.86983e-07 -2.33851e-07 0)
(8.16925e-07 -2.32841e-07 0)
(8.46721e-07 -2.3185e-07 0)
(8.76294e-07 -2.30866e-07 0)
(9.05756e-07 -2.29834e-07 0)
(9.35009e-07 -2.28673e-07 0)
(9.64155e-07 -2.27369e-07 0)
(3.76009e-07 -2.73245e-07 0)
(4.08186e-07 -2.70157e-07 0)
(4.40264e-07 -2.6729e-07 0)
(4.72242e-07 -2.64536e-07 0)
(5.04115e-07 -2.61944e-07 0)
(5.35883e-07 -2.59526e-07 0)
(5.67503e-07 -2.57323e-07 0)
(5.9892e-07 -2.5534e-07 0)
(6.30127e-07 -2.53547e-07 0)
(6.61157e-07 -2.51954e-07 0)
(6.91964e-07 -2.50522e-07 0)
(7.22535e-07 -2.49217e-07 0)
(7.52946e-07 -2.48004e-07 0)
(7.83126e-07 -2.46861e-07 0)
(8.13103e-07 -2.4576e-07 0)
(8.42948e-07 -2.44707e-07 0)
(8.72569e-07 -2.43678e-07 0)
(9.0206e-07 -2.426e-07 0)
(9.31356e-07 -2.41417e-07 0)
(9.60535e-07 -2.40178e-07 0)
(3.73536e-07 -2.8637e-07 0)
(4.05539e-07 -2.83458e-07 0)
(4.37457e-07 -2.80714e-07 0)
(4.69298e-07 -2.78051e-07 0)
(5.01051e-07 -2.75517e-07 0)
(5.32708e-07 -2.73121e-07 0)
(5.64231e-07 -2.70908e-07 0)
(5.9557e-07 -2.68884e-07 0)
(6.26716e-07 -2.67033e-07 0)
(6.57704e-07 -2.65349e-07 0)
(6.88476e-07 -2.63811e-07 0)
(7.19027e-07 -2.62395e-07 0)
(7.49431e-07 -2.61074e-07 0)
(7.79619e-07 -2.59842e-07 0)
(8.09621e-07 -2.58679e-07 0)
(8.39494e-07 -2.57579e-07 0)
(8.69134e-07 -2.56504e-07 0)
(8.98639e-07 -2.5538e-07 0)
(9.27964e-07 -2.54251e-07 0)
(9.5717e-07 -2.53034e-07 0)
(3.71383e-07 -2.99408e-07 0)
(4.03229e-07 -2.96638e-07 0)
(4.35013e-07 -2.94014e-07 0)
(4.66739e-07 -2.9144e-07 0)
(4.98378e-07 -2.88964e-07 0)
(5.29929e-07 -2.8659e-07 0)
(5.61363e-07 -2.84372e-07 0)
(5.92628e-07 -2.82305e-07 0)
(6.23715e-07 -2.80408e-07 0)
(6.54654e-07 -2.78648e-07 0)
(6.85386e-07 -2.77024e-07 0)
(7.15908e-07 -2.75521e-07 0)
(7.46297e-07 -2.74119e-07 0)
(7.76486e-07 -2.72823e-07 0)
(8.06495e-07 -2.71609e-07 0)
(8.36369e-07 -2.7046e-07 0)
(8.65998e-07 -2.69335e-07 0)
(8.95515e-07 -2.68207e-07 0)
(9.2484e-07 -2.67138e-07 0)
(9.54063e-07 -2.65972e-07 0)
(3.69536e-07 -3.12361e-07 0)
(4.01248e-07 -3.09735e-07 0)
(4.32922e-07 -3.07222e-07 0)
(4.64531e-07 -3.04725e-07 0)
(4.96061e-07 -3.02293e-07 0)
(5.27518e-07 -2.99939e-07 0)
(5.58875e-07 -2.97729e-07 0)
(5.90076e-07 -2.9564e-07 0)
(6.21107e-07 -2.93704e-07 0)
(6.51988e-07 -2.91883e-07 0)
(6.82673e-07 -2.9018e-07 0)
(7.13165e-07 -2.88594e-07 0)
(7.4354e-07 -2.87119e-07 0)
(7.73724e-07 -2.8576e-07 0)
(8.0372e-07 -2.84486e-07 0)
(8.33569e-07 -2.83277e-07 0)
(8.63179e-07 -2.8212e-07 0)
(8.92698e-07 -2.81036e-07 0)
(9.22025e-07 -2.79969e-07 0)
(9.51247e-07 -2.78909e-07 0)
(3.67973e-07 -3.25274e-07 0)
(3.99575e-07 -3.2279e-07 0)
(4.31137e-07 -3.20354e-07 0)
(4.62631e-07 -3.17914e-07 0)
(4.94065e-07 -3.15525e-07 0)
(5.25446e-07 -3.13206e-07 0)
(5.56738e-07 -3.11004e-07 0)
(5.87873e-07 -3.08896e-07 0)
(6.18849e-07 -3.06895e-07 0)
(6.4968e-07 -3.05004e-07 0)
(6.8033e-07 -3.03242e-07 0)
(7.10805e-07 -3.01602e-07 0)
(7.4117e-07 -3.00072e-07 0)
(7.71334e-07 -2.98654e-07 0)
(8.01292e-07 -2.97316e-07 0)
(8.31108e-07 -2.96059e-07 0)
(8.60716e-07 -2.94903e-07 0)
(8.90223e-07 -2.93853e-07 0)
(9.19549e-07 -2.92801e-07 0)
(9.48754e-07 -2.91819e-07 0)
(3.66657e-07 -3.38195e-07 0)
(3.98152e-07 -3.35787e-07 0)
(4.29605e-07 -3.33407e-07 0)
(4.61006e-07 -3.31028e-07 0)
(4.92371e-07 -3.28681e-07 0)
(5.2369e-07 -3.26395e-07 0)
(5.54923e-07 -3.24176e-07 0)
(5.85997e-07 -3.22055e-07 0)
(6.16913e-07 -3.20014e-07 0)
(6.47709e-07 -3.18069e-07 0)
(6.78346e-07 -3.16253e-07 0)
(7.0881e-07 -3.14555e-07 0)
(7.39149e-07 -3.12959e-07 0)
(7.69268e-07 -3.11468e-07 0)
(7.99189e-07 -3.1007e-07 0)
(8.28996e-07 -3.08795e-07 0)
(8.58608e-07 -3.07658e-07 0)
(8.88093e-07 -3.06568e-07 0)
(9.17377e-07 -3.05577e-07 0)
(9.46554e-07 -3.04684e-07 0)
(3.65543e-07 -3.51079e-07 0)
(3.9694e-07 -3.48745e-07 0)
(4.28307e-07 -3.46422e-07 0)
(4.59644e-07 -3.441e-07 0)
(4.90956e-07 -3.41777e-07 0)
(5.22221e-07 -3.39492e-07 0)
(5.53387e-07 -3.37266e-07 0)
(5.84403e-07 -3.35116e-07 0)
(6.15284e-07 -3.33041e-07 0)
(6.46071e-07 -3.3106e-07 0)
(6.76703e-07 -3.29196e-07 0)
(7.07142e-07 -3.27429e-07 0)
(7.37436e-07 -3.25752e-07 0)
(7.67521e-07 -3.24201e-07 0)
(7.97445e-07 -3.2278e-07 0)
(8.27276e-07 -3.21487e-07 0)
(8.56856e-07 -3.20303e-07 0)
(8.86273e-07 -3.19185e-07 0)
(9.15513e-07 -3.18275e-07 0)
(9.4477e-07 -3.1748e-07 0)
(3.64622e-07 -3.63932e-07 0)
(3.95933e-07 -3.61703e-07 0)
(4.27245e-07 -3.59416e-07 0)
(4.58538e-07 -3.57111e-07 0)
(4.89793e-07 -3.54828e-07 0)
(5.20991e-07 -3.52535e-07 0)
(5.521e-07 -3.50288e-07 0)
(5.83087e-07 -3.48116e-07 0)
(6.13968e-07 -3.46019e-07 0)
(6.44755e-07 -3.43993e-07 0)
(6.75351e-07 -3.42056e-07 0)
(7.05735e-07 -3.40224e-07 0)
(7.36019e-07 -3.38505e-07 0)
(7.66155e-07 -3.36905e-07 0)
(7.961e-07 -3.35422e-07 0)
(8.25844e-07 -3.34086e-07 0)
(8.55354e-07 -3.32848e-07 0)
(8.8485e-07 -3.31767e-07 0)
(9.14112e-07 -3.3089e-07 0)
(9.43218e-07 -3.30194e-07 0)
(3.63857e-07 -3.76857e-07 0)
(3.95106e-07 -3.74662e-07 0)
(4.26388e-07 -3.72389e-07 0)
(4.57638e-07 -3.70102e-07 0)
(4.88821e-07 -3.67797e-07 0)
(5.19956e-07 -3.6551e-07 0)
(5.51055e-07 -3.63258e-07 0)
(5.82062e-07 -3.61054e-07 0)
(6.12927e-07 -3.58899e-07 0)
(6.43645e-07 -3.56815e-07 0)
(6.74211e-07 -3.54834e-07 0)
(7.04664e-07 -3.52947e-07 0)
(7.35e-07 -3.51158e-07 0)
(7.65066e-07 -3.49509e-07 0)
(7.94966e-07 -3.47968e-07 0)
(8.24794e-07 -3.46553e-07 0)
(8.54351e-07 -3.45289e-07 0)
(8.83787e-07 -3.44212e-07 0)
(9.13082e-07 -3.43329e-07 0)
(9.42181e-07 -3.42731e-07 0)
(3.63253e-07 -3.89753e-07 0)
(3.94465e-07 -3.87623e-07 0)
(4.25694e-07 -3.8537e-07 0)
(4.56868e-07 -3.8307e-07 0)
(4.88025e-07 -3.80761e-07 0)
(5.19185e-07 -3.78459e-07 0)
(5.50281e-07 -3.76177e-07 0)
(5.81217e-07 -3.73935e-07 0)
(6.12037e-07 -3.71734e-07 0)
(6.4282e-07 -3.69593e-07 0)
(6.73448e-07 -3.67563e-07 0)
(7.03849e-07 -3.65636e-07 0)
(7.34166e-07 -3.63769e-07 0)
(7.64324e-07 -3.6204e-07 0)
(7.94244e-07 -3.60462e-07 0)
(8.24067e-07 -3.58983e-07 0)
(8.53708e-07 -3.57706e-07 0)
(8.83166e-07 -3.56542e-07 0)
(9.12526e-07 -3.55631e-07 0)
(9.41571e-07 -3.55022e-07 0)
(2.10055e-08 -2.26727e-07 0)
(6.30606e-08 -2.24198e-07 0)
(1.05146e-07 -2.19018e-07 0)
(1.4728e-07 -2.11686e-07 0)
(1.89403e-07 -2.02298e-07 0)
(2.31464e-07 -1.91325e-07 0)
(2.73394e-07 -1.7915e-07 0)
(3.15101e-07 -1.66086e-07 0)
(3.56966e-07 -1.52392e-07 0)
(3.98131e-07 -1.38072e-07 0)
(2.08546e-08 -2.34727e-07 0)
(6.25874e-08 -2.32461e-07 0)
(1.04263e-07 -2.27747e-07 0)
(1.45866e-07 -2.21104e-07 0)
(1.87296e-07 -2.12562e-07 0)
(2.28449e-07 -2.02517e-07 0)
(2.69224e-07 -1.91305e-07 0)
(3.09414e-07 -1.79229e-07 0)
(3.49189e-07 -1.66529e-07 0)
(3.87427e-07 -1.54028e-07 0)
(2.06108e-08 -2.43043e-07 0)
(6.18415e-08 -2.41014e-07 0)
(1.02949e-07 -2.36709e-07 0)
(1.43883e-07 -2.30655e-07 0)
(1.84552e-07 -2.2286e-07 0)
(2.24806e-07 -2.13646e-07 0)
(2.64539e-07 -2.03328e-07 0)
(3.03588e-07 -1.92184e-07 0)
(3.42014e-07 -1.8046e-07 0)
(3.78977e-07 -1.69207e-07 0)
(2.03503e-08 -2.51558e-07 0)
(6.10596e-08 -2.49705e-07 0)
(1.01638e-07 -2.45729e-07 0)
(1.4197e-07 -2.40147e-07 0)
(1.81999e-07 -2.32963e-07 0)
(2.21533e-07 -2.24429e-07 0)
(2.60479e-07 -2.14891e-07 0)
(2.98669e-07 -2.04619e-07 0)
(3.36056e-07 -1.93891e-07 0)
(3.72048e-07 -1.83734e-07 0)
(2.01142e-08 -2.60244e-07 0)
(6.02761e-08 -2.58558e-07 0)
(1.00335e-07 -2.54883e-07 0)
(1.40103e-07 -2.49718e-07 0)
(1.79539e-07 -2.43082e-07 0)
(2.18449e-07 -2.35196e-07 0)
(2.56733e-07 -2.26404e-07 0)
(2.94259e-07 -2.16942e-07 0)
(3.30878e-07 -2.07108e-07 0)
(3.66165e-07 -1.97837e-07 0)
(1.98836e-08 -2.69089e-07 0)
(5.95318e-08 -2.67529e-07 0)
(9.90806e-08 -2.64142e-07 0)
(1.38329e-07 -2.59355e-07 0)
(1.77223e-07 -2.5322e-07 0)
(2.15623e-07 -2.45935e-07 0)
(2.53348e-07 -2.37822e-07 0)
(2.90318e-07 -2.29111e-07 0)
(3.26341e-07 -2.2009e-07 0)
(3.61072e-07 -2.11606e-07 0)
(1.96334e-08 -2.78077e-07 0)
(5.88171e-08 -2.76621e-07 0)
(9.7873e-08 -2.7352e-07 0)
(1.36648e-07 -2.69065e-07 0)
(1.75051e-07 -2.63393e-07 0)
(2.12987e-07 -2.56669e-07 0)
(2.50265e-07 -2.49189e-07 0)
(2.8678e-07 -2.41175e-07 0)
(3.22335e-07 -2.32893e-07 0)
(3.56642e-07 -2.25099e-07 0)
(1.94084e-08 -2.87182e-07 0)
(5.81419e-08 -2.85826e-07 0)
(9.67251e-08 -2.82992e-07 0)
(1.35064e-07 -2.78847e-07 0)
(1.73041e-07 -2.73613e-07 0)
(2.10555e-07 -2.67418e-07 0)
(2.47443e-07 -2.60535e-07 0)
(2.83584e-07 -2.53164e-07 0)
(3.18779e-07 -2.45553e-07 0)
(3.52778e-07 -2.38371e-07 0)
(1.92232e-08 -2.96405e-07 0)
(5.75101e-08 -2.95139e-07 0)
(9.56574e-08 -2.92545e-07 0)
(1.33591e-07 -2.8871e-07 0)
(1.71176e-07 -2.83902e-07 0)
(2.08332e-07 -2.78199e-07 0)
(2.44874e-07 -2.71874e-07 0)
(2.80692e-07 -2.65097e-07 0)
(3.15599e-07 -2.58106e-07 0)
(3.49382e-07 -2.51486e-07 0)
(1.90342e-08 -3.05758e-07 0)
(5.6906e-08 -3.04555e-07 0)
(9.46643e-08 -3.02184e-07 0)
(1.32236e-07 -2.9866e-07 0)
(1.6945e-07 -2.94258e-07 0)
(2.06293e-07 -2.89019e-07 0)
(2.42532e-07 -2.83213e-07 0)
(2.78071e-07 -2.76996e-07 0)
(3.12745e-07 -2.70587e-07 0)
(3.46372e-07 -2.64491e-07 0)
(1.88275e-08 -3.15223e-07 0)
(5.63462e-08 -3.14067e-07 0)
(9.37505e-08 -3.11917e-07 0)
(1.3099e-07 -3.08697e-07 0)
(1.67867e-07 -3.04674e-07 0)
(2.04412e-07 -2.99875e-07 0)
(2.40387e-07 -2.94559e-07 0)
(2.75692e-07 -2.8888e-07 0)
(3.10179e-07 -2.83013e-07 0)
(3.43691e-07 -2.77401e-07 0)
(1.86356e-08 -3.24776e-07 0)
(5.58554e-08 -3.23683e-07 0)
(9.29276e-08 -3.21748e-07 0)
(1.29847e-07 -3.18817e-07 0)
(1.66426e-07 -3.15148e-07 0)
(2.02686e-07 -3.1077e-07 0)
(2.38426e-07 -3.05924e-07 0)
(2.73535e-07 -3.00752e-07 0)
(3.07872e-07 -2.9538e-07 0)
(3.41315e-07 -2.90215e-07 0)
(1.84813e-08 -3.34421e-07 0)
(5.54231e-08 -3.33415e-07 0)
(9.2184e-08 -3.31677e-07 0)
(1.28798e-07 -3.29016e-07 0)
(1.65113e-07 -3.25677e-07 0)
(2.0111e-07 -3.21704e-07 0)
(2.36638e-07 -3.17307e-07 0)
(2.7158e-07 -3.12599e-07 0)
(3.05808e-07 -3.07688e-07 0)
(3.39241e-07 -3.0296e-07 0)
(1.835e-08 -3.44184e-07 0)
(5.50096e-08 -3.43271e-07 0)
(9.14879e-08 -3.41699e-07 0)
(1.27821e-07 -3.39291e-07 0)
(1.63898e-07 -3.36268e-07 0)
(1.99663e-07 -3.3268e-07 0)
(2.35004e-07 -3.28708e-07 0)
(2.69808e-07 -3.24432e-07 0)
(3.03978e-07 -3.19986e-07 0)
(3.37442e-07 -3.15685e-07 0)
(1.82151e-08 -3.54076e-07 0)
(5.45895e-08 -3.53249e-07 0)
(9.08202e-08 -3.51818e-07 0)
(1.26905e-07 -3.49653e-07 0)
(1.62762e-07 -3.46937e-07 0)
(1.98322e-07 -3.4372e-07 0)
(2.33499e-07 -3.40131e-07 0)
(2.68209e-07 -3.36263e-07 0)
(3.02359e-07 -3.32281e-07 0)
(3.35881e-07 -3.28372e-07 0)
(1.80722e-08 -3.64094e-07 0)
(5.41765e-08 -3.63348e-07 0)
(9.01869e-08 -3.62054e-07 0)
(1.26042e-07 -3.60122e-07 0)
(1.61687e-07 -3.57677e-07 0)
(1.97067e-07 -3.54786e-07 0)
(2.32119e-07 -3.51561e-07 0)
(2.66785e-07 -3.48119e-07 0)
(3.00942e-07 -3.44576e-07 0)
(3.3455e-07 -3.41054e-07 0)
(1.79372e-08 -3.74231e-07 0)
(5.37952e-08 -3.73578e-07 0)
(8.95903e-08 -3.72404e-07 0)
(1.25228e-07 -3.70677e-07 0)
(1.60681e-07 -3.68501e-07 0)
(1.9591e-07 -3.65924e-07 0)
(2.30877e-07 -3.63062e-07 0)
(2.65515e-07 -3.60046e-07 0)
(2.99697e-07 -3.56879e-07 0)
(3.334e-07 -3.53748e-07 0)
(1.78195e-08 -3.84497e-07 0)
(5.34463e-08 -3.83929e-07 0)
(8.90222e-08 -3.82869e-07 0)
(1.24457e-07 -3.81335e-07 0)
(1.59742e-07 -3.79391e-07 0)
(1.94855e-07 -3.77109e-07 0)
(2.29762e-07 -3.74604e-07 0)
(2.64375e-07 -3.71971e-07 0)
(2.986e-07 -3.69195e-07 0)
(3.32422e-07 -3.66417e-07 0)
(1.77162e-08 -3.94882e-07 0)
(5.31185e-08 -3.94397e-07 0)
(8.84753e-08 -3.93449e-07 0)
(1.23727e-07 -3.92085e-07 0)
(1.58866e-07 -3.90373e-07 0)
(1.93893e-07 -3.88387e-07 0)
(2.28757e-07 -3.86233e-07 0)
(2.63367e-07 -3.83936e-07 0)
(2.97626e-07 -3.81568e-07 0)
(3.31591e-07 -3.79138e-07 0)
(1.7619e-08 -4.05413e-07 0)
(5.28091e-08 -4.0498e-07 0)
(8.7952e-08 -4.04142e-07 0)
(1.23046e-07 -4.02939e-07 0)
(1.5809e-07 -4.01442e-07 0)
(1.93064e-07 -3.99735e-07 0)
(2.27883e-07 -3.9789e-07 0)
(2.62497e-07 -3.95921e-07 0)
(2.96818e-07 -3.93927e-07 0)
(3.30981e-07 -3.91837e-07 0)
)


// ************************************************************************* //
