/*--------------------------------*- C++ -*----------------------------------*\
| =========                 |                                                 |
| \\      /  F ield         | foam-extend: Open Source CFD                    |
|  \\    /   O peration     | Version:     4.1                                |
|   \\  /    A nd           | Web:         http://www.foam-extend.org         |
|    \\/     M anipulation  |                                                 |
\*---------------------------------------------------------------------------*/
FoamFile
{
    version     2.0;
    format      ascii;
    class       vectorField;
    location    "1";
    object      solidsCellD_iteration7;
}
// * * * * * * * * * * * * * * * * * * * * * * * * * * * * * * * * * * * * * //


1000
(
(4.00354e-07 -9.30562e-08 0)
(3.86461e-07 -9.1166e-08 0)
(3.79235e-07 -9.19227e-08 0)
(3.76717e-07 -9.47542e-08 0)
(3.77618e-07 -9.90005e-08 0)
(3.81111e-07 -1.0426e-07 0)
(3.86516e-07 -1.1027e-07 0)
(3.93228e-07 -1.1699e-07 0)
(4.0124e-07 -1.24027e-07 0)
(4.08435e-07 -1.31599e-07 0)
(3.63318e-07 -1.01913e-07 0)
(3.48477e-07 -1.02589e-07 0)
(3.40444e-07 -1.05088e-07 0)
(3.37242e-07 -1.09188e-07 0)
(3.37383e-07 -1.14358e-07 0)
(3.39994e-07 -1.20306e-07 0)
(3.44434e-07 -1.26807e-07 0)
(3.50103e-07 -1.33888e-07 0)
(3.56901e-07 -1.41052e-07 0)
(3.63397e-07 -1.48964e-07 0)
(3.24383e-07 -1.10249e-07 0)
(3.09141e-07 -1.13768e-07 0)
(3.00691e-07 -1.18124e-07 0)
(2.9702e-07 -1.23483e-07 0)
(2.9664e-07 -1.29492e-07 0)
(2.98611e-07 -1.36007e-07 0)
(3.02337e-07 -1.42894e-07 0)
(3.07323e-07 -1.50151e-07 0)
(3.13392e-07 -1.57356e-07 0)
(3.19477e-07 -1.65121e-07 0)
(2.83889e-07 -1.17931e-07 0)
(2.68995e-07 -1.24359e-07 0)
(2.60571e-07 -1.30584e-07 0)
(2.5666e-07 -1.37165e-07 0)
(2.55914e-07 -1.43992e-07 0)
(2.5742e-07 -1.51023e-07 0)
(2.60539e-07 -1.58216e-07 0)
(2.64938e-07 -1.65597e-07 0)
(2.70355e-07 -1.7287e-07 0)
(2.76019e-07 -1.80538e-07 0)
(2.42238e-07 -1.24787e-07 0)
(2.28276e-07 -1.34047e-07 0)
(2.20248e-07 -1.42095e-07 0)
(2.16418e-07 -1.49856e-07 0)
(2.15505e-07 -1.57429e-07 0)
(2.1661e-07 -1.64942e-07 0)
(2.19202e-07 -1.72424e-07 0)
(2.22989e-07 -1.79932e-07 0)
(2.27759e-07 -1.87297e-07 0)
(2.32843e-07 -1.94917e-07 0)
(1.99463e-07 -1.30728e-07 0)
(1.87106e-07 -1.42593e-07 0)
(1.79964e-07 -1.52315e-07 0)
(1.76444e-07 -1.61186e-07 0)
(1.75461e-07 -1.69468e-07 0)
(1.76211e-07 -1.77423e-07 0)
(1.78349e-07 -1.85151e-07 0)
(1.81551e-07 -1.92787e-07 0)
(1.85601e-07 -2.00263e-07 0)
(1.89951e-07 -2.07879e-07 0)
(1.55956e-07 -1.35579e-07 0)
(1.45702e-07 -1.49735e-07 0)
(1.39744e-07 -1.60933e-07 0)
(1.36737e-07 -1.70766e-07 0)
(1.3582e-07 -1.79649e-07 0)
(1.36358e-07 -1.87995e-07 0)
(1.38055e-07 -1.95953e-07 0)
(1.40606e-07 -2.03725e-07 0)
(1.43829e-07 -2.11321e-07 0)
(1.47317e-07 -2.18948e-07 0)
(1.1184e-07 -1.39305e-07 0)
(1.04109e-07 -1.55303e-07 0)
(9.96305e-08 -1.67655e-07 0)
(9.73857e-08 -1.78219e-07 0)
(9.66738e-08 -1.87611e-07 0)
(9.70362e-08 -1.96275e-07 0)
(9.82443e-08 -2.04444e-07 0)
(1.00084e-07 -2.12325e-07 0)
(1.02423e-07 -2.20019e-07 0)
(1.04964e-07 -2.27657e-07 0)
(6.72701e-08 -1.41826e-07 0)
(6.2497e-08 -1.59086e-07 0)
(5.97536e-08 -1.72237e-07 0)
(5.83269e-08 -1.83366e-07 0)
(5.7832e-08 -1.93111e-07 0)
(5.80323e-08 -2.01971e-07 0)
(5.87886e-08 -2.10294e-07 0)
(5.9923e-08 -2.183e-07 0)
(6.13273e-08 -2.26095e-07 0)
(6.28628e-08 -2.33756e-07 0)
(2.24724e-08 -1.431e-07 0)
(2.08565e-08 -1.61023e-07 0)
(1.98885e-08 -1.7458e-07 0)
(1.94118e-08 -1.85966e-07 0)
(1.92821e-08 -1.9588e-07 0)
(1.93375e-08 -2.04861e-07 0)
(1.95521e-08 -2.13244e-07 0)
(1.9931e-08 -2.21282e-07 0)
(2.04172e-08 -2.29119e-07 0)
(2.09288e-08 -2.36794e-07 0)
(6.0793e-07 -4.14985e-09 0)
(6.11642e-07 -3.11812e-09 0)
(6.15784e-07 -2.56505e-09 0)
(6.21077e-07 -2.34344e-09 0)
(6.27688e-07 -2.33564e-09 0)
(6.35569e-07 -2.48791e-09 0)
(6.44755e-07 -2.73969e-09 0)
(6.55037e-07 -3.03028e-09 0)
(6.6648e-07 -3.41249e-09 0)
(6.7891e-07 -3.84105e-09 0)
(6.03855e-07 -1.24936e-08 0)
(6.06979e-07 -9.46206e-09 0)
(6.10766e-07 -7.81968e-09 0)
(6.15783e-07 -7.20935e-09 0)
(6.22205e-07 -7.24273e-09 0)
(6.29916e-07 -7.64637e-09 0)
(6.39024e-07 -8.39729e-09 0)
(6.4925e-07 -9.37345e-09 0)
(6.60587e-07 -1.05101e-08 0)
(6.7298e-07 -1.1715e-08 0)
(5.95641e-07 -2.08761e-08 0)
(5.97643e-07 -1.60873e-08 0)
(6.00739e-07 -1.35173e-08 0)
(6.05293e-07 -1.24882e-08 0)
(6.11407e-07 -1.2567e-08 0)
(6.18927e-07 -1.33406e-08 0)
(6.27819e-07 -1.46161e-08 0)
(6.37908e-07 -1.62115e-08 0)
(6.4907e-07 -1.80598e-08 0)
(6.61379e-07 -2.00554e-08 0)
(5.8343e-07 -2.94165e-08 0)
(5.83853e-07 -2.31349e-08 0)
(5.85914e-07 -1.9886e-08 0)
(5.8983e-07 -1.86464e-08 0)
(5.95458e-07 -1.88085e-08 0)
(6.02662e-07 -1.98931e-08 0)
(6.11304e-07 -2.16343e-08 0)
(6.21251e-07 -2.38418e-08 0)
(6.32201e-07 -2.64163e-08 0)
(6.44431e-07 -2.9191e-08 0)
(5.67295e-07 -3.81232e-08 0)
(5.65828e-07 -3.07668e-08 0)
(5.66621e-07 -2.70647e-08 0)
(5.69692e-07 -2.57798e-08 0)
(5.74756e-07 -2.61169e-08 0)
(5.81578e-07 -2.75512e-08 0)
(5.89897e-07 -2.97874e-08 0)
(5.99615e-07 -3.25967e-08 0)
(6.10317e-07 -3.58489e-08 0)
(6.2249e-07 -3.9324e-08 0)
(5.47419e-07 -4.70344e-08 0)
(5.43766e-07 -3.91175e-08 0)
(5.43179e-07 -3.52414e-08 0)
(5.45338e-07 -3.40884e-08 0)
(5.49763e-07 -3.47409e-08 0)
(5.56137e-07 -3.65935e-08 0)
(5.6414e-07 -3.9321e-08 0)
(5.73614e-07 -4.26573e-08 0)
(5.84069e-07 -4.65177e-08 0)
(5.96196e-07 -5.06223e-08 0)
(5.24073e-07 -5.61352e-08 0)
(5.1807e-07 -4.82479e-08 0)
(5.1599e-07 -4.45537e-08 0)
(5.17196e-07 -4.37466e-08 0)
(5.20949e-07 -4.48181e-08 0)
(5.26864e-07 -4.71346e-08 0)
(5.34539e-07 -5.03388e-08 0)
(5.43758e-07 -5.41355e-08 0)
(5.53966e-07 -5.85398e-08 0)
(5.66083e-07 -6.318e-08 0)
(4.97411e-07 -6.5353e-08 0)
(4.89083e-07 -5.81403e-08 0)
(4.85515e-07 -5.50168e-08 0)
(4.85748e-07 -5.47776e-08 0)
(4.88851e-07 -5.63946e-08 0)
(4.94308e-07 -5.92468e-08 0)
(5.01637e-07 -6.29464e-08 0)
(5.10618e-07 -6.71822e-08 0)
(5.20634e-07 -7.20716e-08 0)
(5.32715e-07 -7.71221e-08 0)
(4.67723e-07 -7.46478e-08 0)
(4.57221e-07 -6.86958e-08 0)
(4.52272e-07 -6.65489e-08 0)
(4.51536e-07 -6.71121e-08 0)
(4.53983e-07 -6.94305e-08 0)
(4.58899e-07 -7.2907e-08 0)
(4.65796e-07 -7.71493e-08 0)
(4.74429e-07 -8.18188e-08 0)
(4.84173e-07 -8.70868e-08 0)
(4.96031e-07 -9.22815e-08 0)
(4.353e-07 -8.39186e-08 0)
(4.22923e-07 -7.97565e-08 0)
(4.16729e-07 -7.89279e-08 0)
(4.15081e-07 -8.05579e-08 0)
(4.1683e-07 -8.37691e-08 0)
(4.21195e-07 -8.80297e-08 0)
(4.27715e-07 -9.30282e-08 0)
(4.36023e-07 -9.84405e-08 0)
(4.45742e-07 -1.04392e-07 0)
(4.56829e-07 -1.10197e-07 0)
(6.92172e-07 -4.20119e-09 0)
(7.06494e-07 -4.43341e-09 0)
(7.21567e-07 -4.62505e-09 0)
(7.37314e-07 -4.7902e-09 0)
(7.53681e-07 -4.93058e-09 0)
(7.70662e-07 -5.04791e-09 0)
(7.88176e-07 -5.13673e-09 0)
(8.06137e-07 -5.22414e-09 0)
(8.24547e-07 -5.32645e-09 0)
(8.43415e-07 -5.41668e-09 0)
(8.62683e-07 -5.47764e-09 0)
(8.82301e-07 -5.51476e-09 0)
(9.02248e-07 -5.54038e-09 0)
(9.22514e-07 -5.56518e-09 0)
(9.43081e-07 -5.58842e-09 0)
(9.63932e-07 -5.59822e-09 0)
(9.85052e-07 -5.58325e-09 0)
(1.00643e-06 -5.53721e-09 0)
(1.02803e-06 -5.46646e-09 0)
(1.04986e-06 -5.38236e-09 0)
(6.86475e-07 -1.2764e-08 0)
(7.01222e-07 -1.34482e-08 0)
(7.16679e-07 -1.40022e-08 0)
(7.32798e-07 -1.44693e-08 0)
(7.49522e-07 -1.48459e-08 0)
(7.66795e-07 -1.51741e-08 0)
(7.84579e-07 -1.54765e-08 0)
(8.0283e-07 -1.57712e-08 0)
(8.21528e-07 -1.60437e-08 0)
(8.40646e-07 -1.62521e-08 0)
(8.60137e-07 -1.64061e-08 0)
(8.79981e-07 -1.65337e-08 0)
(9.00162e-07 -1.66419e-08 0)
(9.20651e-07 -1.67238e-08 0)
(9.41416e-07 -1.67676e-08 0)
(9.62444e-07 -1.6765e-08 0)
(9.83734e-07 -1.67065e-08 0)
(1.00527e-06 -1.65846e-08 0)
(1.02702e-06 -1.64098e-08 0)
(1.04898e-06 -1.61868e-08 0)
(6.75303e-07 -2.17697e-08 0)
(6.90931e-07 -2.28222e-08 0)
(7.07207e-07 -2.36399e-08 0)
(7.24006e-07 -2.4346e-08 0)
(7.41364e-07 -2.49482e-08 0)
(7.59273e-07 -2.54955e-08 0)
(7.77668e-07 -2.59982e-08 0)
(7.96462e-07 -2.64572e-08 0)
(8.15648e-07 -2.68534e-08 0)
(8.35222e-07 -2.71654e-08 0)
(8.55162e-07 -2.74279e-08 0)
(8.75443e-07 -2.76649e-08 0)
(8.96032e-07 -2.7857e-08 0)
(9.1689e-07 -2.79796e-08 0)
(9.38005e-07 -2.80256e-08 0)
(9.59397e-07 -2.79974e-08 0)
(9.81037e-07 -2.78876e-08 0)
(1.00292e-06 -2.76952e-08 0)
(1.025e-06 -2.74386e-08 0)
(1.04729e-06 -2.71038e-08 0)
(6.58968e-07 -3.14479e-08 0)
(6.7579e-07 -3.2702e-08 0)
(6.93215e-07 -3.36596e-08 0)
(7.1107e-07 -3.45306e-08 0)
(7.29429e-07 -3.5316e-08 0)
(7.48235e-07 -3.605e-08 0)
(7.67459e-07 -3.67139e-08 0)
(7.87043e-07 -3.73105e-08 0)
(8.07017e-07 -3.78224e-08 0)
(8.27344e-07 -3.82474e-08 0)
(8.47978e-07 -3.86168e-08 0)
(8.68895e-07 -3.89331e-08 0)
(8.90073e-07 -3.91659e-08 0)
(9.11491e-07 -3.93025e-08 0)
(9.33148e-07 -3.9356e-08 0)
(9.55066e-07 -3.93141e-08 0)
(9.77204e-07 -3.91673e-08 0)
(9.99578e-07 -3.89146e-08 0)
(1.02211e-06 -3.85723e-08 0)
(1.04484e-06 -3.81468e-08 0)
(6.37864e-07 -4.19566e-08 0)
(6.56285e-07 -4.32331e-08 0)
(6.75228e-07 -4.42284e-08 0)
(6.94404e-07 -4.52063e-08 0)
(7.14002e-07 -4.61046e-08 0)
(7.33958e-07 -4.69523e-08 0)
(7.54293e-07 -4.77216e-08 0)
(7.74926e-07 -4.84328e-08 0)
(7.95876e-07 -4.9047e-08 0)
(8.17115e-07 -4.95601e-08 0)
(8.38619e-07 -5.00038e-08 0)
(8.60373e-07 -5.03726e-08 0)
(8.82353e-07 -5.06332e-08 0)
(9.04541e-07 -5.07799e-08 0)
(9.26947e-07 -5.08315e-08 0)
(9.49541e-07 -5.07673e-08 0)
(9.72352e-07 -5.05816e-08 0)
(9.95318e-07 -5.02783e-08 0)
(1.01848e-06 -4.98644e-08 0)
(1.04179e-06 -4.93711e-08 0)
(6.12536e-07 -5.34668e-08 0)
(6.32775e-07 -5.45545e-08 0)
(6.53529e-07 -5.54148e-08 0)
(6.74345e-07 -5.63847e-08 0)
(6.95513e-07 -5.73197e-08 0)
(7.16915e-07 -5.82394e-08 0)
(7.38556e-07 -5.90762e-08 0)
(7.60437e-07 -5.98404e-08 0)
(7.82557e-07 -6.051e-08 0)
(8.04901e-07 -6.10861e-08 0)
(8.27466e-07 -6.15913e-08 0)
(8.50237e-07 -6.20052e-08 0)
(8.73177e-07 -6.22887e-08 0)
(8.96269e-07 -6.24417e-08 0)
(9.19549e-07 -6.24731e-08 0)
(9.42962e-07 -6.23717e-08 0)
(9.66586e-07 -6.21405e-08 0)
(9.90307e-07 -6.17951e-08 0)
(1.01423e-06 -6.13362e-08 0)
(1.03826e-06 -6.07865e-08 0)
(5.8362e-07 -6.60508e-08 0)
(6.05972e-07 -6.67147e-08 0)
(6.28819e-07 -6.727e-08 0)
(6.51514e-07 -6.81097e-08 0)
(6.74406e-07 -6.89733e-08 0)
(6.9744e-07 -6.98632e-08 0)
(7.20563e-07 -7.07118e-08 0)
(7.43849e-07 -7.14951e-08 0)
(7.67312e-07 -7.2205e-08 0)
(7.90946e-07 -7.28386e-08 0)
(8.14734e-07 -7.33935e-08 0)
(8.38654e-07 -7.38323e-08 0)
(8.62682e-07 -7.41164e-08 0)
(8.86822e-07 -7.42571e-08 0)
(9.11099e-07 -7.42602e-08 0)
(9.35488e-07 -7.41271e-08 0)
(9.60065e-07 -7.38656e-08 0)
(9.84709e-07 -7.34858e-08 0)
(1.00951e-06 -7.29794e-08 0)
(1.03437e-06 -7.23593e-08 0)
(5.51612e-07 -7.98035e-08 0)
(5.76275e-07 -7.97533e-08 0)
(6.01415e-07 -7.98229e-08 0)
(6.26227e-07 -8.03728e-08 0)
(6.51085e-07 -8.1047e-08 0)
(6.75926e-07 -8.18202e-08 0)
(7.00775e-07 -8.26127e-08 0)
(7.25665e-07 -8.33784e-08 0)
(7.50623e-07 -8.41004e-08 0)
(7.75661e-07 -8.47598e-08 0)
(8.00768e-07 -8.533e-08 0)
(8.25923e-07 -8.57668e-08 0)
(8.51125e-07 -8.60423e-08 0)
(8.76423e-07 -8.61745e-08 0)
(9.01824e-07 -8.61672e-08 0)
(9.27319e-07 -8.60246e-08 0)
(9.52957e-07 -8.57443e-08 0)
(9.78626e-07 -8.53267e-08 0)
(1.00441e-06 -8.47521e-08 0)
(1.03019e-06 -8.4031e-08 0)
(5.16847e-07 -9.4703e-08 0)
(5.44193e-07 -9.36641e-08 0)
(5.71928e-07 -9.30852e-08 0)
(5.99096e-07 -9.31569e-08 0)
(6.26147e-07 -9.35128e-08 0)
(6.52968e-07 -9.40726e-08 0)
(6.79664e-07 -9.47258e-08 0)
(7.06266e-07 -9.54125e-08 0)
(7.32813e-07 -9.60977e-08 0)
(7.59326e-07 -9.67388e-08 0)
(7.85813e-07 -9.72942e-08 0)
(8.12282e-07 -9.7721e-08 0)
(8.38756e-07 -9.80031e-08 0)
(8.65303e-07 -9.81531e-08 0)
(8.91909e-07 -9.81627e-08 0)
(9.18581e-07 -9.80321e-08 0)
(9.45355e-07 -9.77414e-08 0)
(9.72117e-07 -9.72782e-08 0)
(9.9896e-07 -9.66201e-08 0)
(1.02578e-06 -9.57765e-08 0)
(4.80204e-07 -1.10943e-07 0)
(5.11362e-07 -1.08002e-07 0)
(5.4221e-07 -1.06596e-07 0)
(5.72063e-07 -1.06088e-07 0)
(6.01372e-07 -1.06075e-07 0)
(6.30234e-07 -1.06363e-07 0)
(6.58754e-07 -1.06821e-07 0)
(6.87025e-07 -1.07378e-07 0)
(7.15119e-07 -1.07983e-07 0)
(7.43071e-07 -1.08578e-07 0)
(7.70911e-07 -1.09112e-07 0)
(7.98667e-07 -1.09542e-07 0)
(8.26387e-07 -1.0985e-07 0)
(8.5414e-07 -1.10039e-07 0)
(8.81897e-07 -1.1009e-07 0)
(9.09696e-07 -1.09995e-07 0)
(9.37555e-07 -1.09722e-07 0)
(9.6539e-07 -1.09231e-07 0)
(9.93293e-07 -1.08504e-07 0)
(1.02119e-06 -1.07528e-07 0)
(4.47931e-07 -1.31236e-07 0)
(4.83941e-07 -1.25159e-07 0)
(5.18035e-07 -1.22277e-07 0)
(5.50667e-07 -1.20622e-07 0)
(5.82132e-07 -1.19822e-07 0)
(6.12796e-07 -1.19535e-07 0)
(6.4285e-07 -1.19573e-07 0)
(6.72471e-07 -1.19821e-07 0)
(7.01762e-07 -1.2019e-07 0)
(7.30793e-07 -1.20597e-07 0)
(7.59625e-07 -1.20987e-07 0)
(7.88304e-07 -1.21314e-07 0)
(8.16894e-07 -1.21554e-07 0)
(8.45466e-07 -1.21694e-07 0)
(8.73968e-07 -1.21708e-07 0)
(9.02477e-07 -1.21573e-07 0)
(9.30974e-07 -1.21258e-07 0)
(9.59451e-07 -1.207e-07 0)
(9.87964e-07 -1.19884e-07 0)
(1.01648e-06 -1.18745e-07 0)
(4.31959e-07 -1.50311e-07 0)
(4.68363e-07 -1.43655e-07 0)
(5.03034e-07 -1.39526e-07 0)
(5.36637e-07 -1.36787e-07 0)
(5.69164e-07 -1.35093e-07 0)
(6.00848e-07 -1.34096e-07 0)
(6.31861e-07 -1.33564e-07 0)
(6.62353e-07 -1.33349e-07 0)
(6.92418e-07 -1.3333e-07 0)
(7.2214e-07 -1.33414e-07 0)
(7.51597e-07 -1.33536e-07 0)
(7.80843e-07 -1.33643e-07 0)
(8.09948e-07 -1.33697e-07 0)
(8.38969e-07 -1.33673e-07 0)
(8.67852e-07 -1.33541e-07 0)
(8.96708e-07 -1.33263e-07 0)
(9.25476e-07 -1.32817e-07 0)
(9.54216e-07 -1.32128e-07 0)
(9.82934e-07 -1.31179e-07 0)
(1.01161e-06 -1.29838e-07 0)
(4.20791e-07 -1.67159e-07 0)
(4.56556e-07 -1.60834e-07 0)
(4.91279e-07 -1.56354e-07 0)
(5.2522e-07 -1.53053e-07 0)
(5.58291e-07 -1.50737e-07 0)
(5.9059e-07 -1.49149e-07 0)
(6.2225e-07 -1.48088e-07 0)
(6.5336e-07 -1.47406e-07 0)
(6.83996e-07 -1.46981e-07 0)
(7.14246e-07 -1.46716e-07 0)
(7.44189e-07 -1.46542e-07 0)
(7.73872e-07 -1.46395e-07 0)
(8.0337e-07 -1.46229e-07 0)
(8.3273e-07 -1.46009e-07 0)
(8.61899e-07 -1.45702e-07 0)
(8.91007e-07 -1.4526e-07 0)
(9.19983e-07 -1.44666e-07 0)
(9.48915e-07 -1.43844e-07 0)
(9.7777e-07 -1.42756e-07 0)
(1.00655e-06 -1.4123e-07 0)
(4.11847e-07 -1.83323e-07 0)
(4.46977e-07 -1.77364e-07 0)
(4.81432e-07 -1.72759e-07 0)
(5.15388e-07 -1.69113e-07 0)
(5.48655e-07 -1.66348e-07 0)
(5.81292e-07 -1.64283e-07 0)
(6.13359e-07 -1.62766e-07 0)
(6.44893e-07 -1.6166e-07 0)
(6.75953e-07 -1.6085e-07 0)
(7.06621e-07 -1.60246e-07 0)
(7.36962e-07 -1.59777e-07 0)
(7.67008e-07 -1.59375e-07 0)
(7.96836e-07 -1.58985e-07 0)
(8.26487e-07 -1.58567e-07 0)
(8.55914e-07 -1.58081e-07 0)
(8.85251e-07 -1.57477e-07 0)
(9.14419e-07 -1.56741e-07 0)
(9.43528e-07 -1.55793e-07 0)
(9.72505e-07 -1.54567e-07 0)
(1.00141e-06 -1.52908e-07 0)
(4.04469e-07 -1.98734e-07 0)
(4.39038e-07 -1.93198e-07 0)
(4.73136e-07 -1.88678e-07 0)
(5.06934e-07 -1.8489e-07 0)
(5.40198e-07 -1.81839e-07 0)
(5.72977e-07 -1.79424e-07 0)
(6.05258e-07 -1.77536e-07 0)
(6.37056e-07 -1.76062e-07 0)
(6.68412e-07 -1.74903e-07 0)
(6.99394e-07 -1.73983e-07 0)
(7.30045e-07 -1.7323e-07 0)
(7.6038e-07 -1.72575e-07 0)
(7.90481e-07 -1.71963e-07 0)
(8.20374e-07 -1.71349e-07 0)
(8.50026e-07 -1.70688e-07 0)
(8.79569e-07 -1.6993e-07 0)
(9.08909e-07 -1.69055e-07 0)
(9.38166e-07 -1.67978e-07 0)
(9.67262e-07 -1.66623e-07 0)
(9.96302e-07 -1.64906e-07 0)
(3.98197e-07 -2.13633e-07 0)
(4.32283e-07 -2.08491e-07 0)
(4.66051e-07 -2.04126e-07 0)
(4.99597e-07 -2.00315e-07 0)
(5.32763e-07 -1.97103e-07 0)
(5.6555e-07 -1.94447e-07 0)
(5.97917e-07 -1.92274e-07 0)
(6.29865e-07 -1.905e-07 0)
(6.61417e-07 -1.89046e-07 0)
(6.92621e-07 -1.87846e-07 0)
(7.23503e-07 -1.86835e-07 0)
(7.54063e-07 -1.85945e-07 0)
(7.84383e-07 -1.85124e-07 0)
(8.14475e-07 -1.84323e-07 0)
(8.44316e-07 -1.83494e-07 0)
(8.74027e-07 -1.8259e-07 0)
(9.03514e-07 -1.8158e-07 0)
(9.32893e-07 -1.80379e-07 0)
(9.62113e-07 -1.78934e-07 0)
(9.91268e-07 -1.77211e-07 0)
(3.9282e-07 -2.28143e-07 0)
(4.26492e-07 -2.23352e-07 0)
(4.59949e-07 -2.19168e-07 0)
(4.93227e-07 -2.15405e-07 0)
(5.2624e-07 -2.12126e-07 0)
(5.58949e-07 -2.09315e-07 0)
(5.91318e-07 -2.06934e-07 0)
(6.23332e-07 -2.04928e-07 0)
(6.54995e-07 -2.03228e-07 0)
(6.86342e-07 -2.01789e-07 0)
(7.1738e-07 -2.0055e-07 0)
(7.481e-07 -1.99446e-07 0)
(7.78587e-07 -1.98429e-07 0)
(8.0883e-07 -1.97454e-07 0)
(8.38823e-07 -1.96461e-07 0)
(8.68664e-07 -1.95415e-07 0)
(8.98269e-07 -1.94278e-07 0)
(9.27757e-07 -1.92975e-07 0)
(9.57097e-07 -1.91489e-07 0)
(9.86339e-07 -1.89753e-07 0)
(3.88185e-07 -2.42352e-07 0)
(4.21524e-07 -2.37862e-07 0)
(4.5468e-07 -2.33867e-07 0)
(4.87708e-07 -2.30195e-07 0)
(5.20529e-07 -2.26912e-07 0)
(5.53111e-07 -2.2401e-07 0)
(5.85425e-07 -2.21484e-07 0)
(6.17438e-07 -2.19298e-07 0)
(6.49139e-07 -2.17397e-07 0)
(6.80554e-07 -2.15755e-07 0)
(7.11682e-07 -2.14316e-07 0)
(7.42506e-07 -2.13022e-07 0)
(7.73111e-07 -2.11822e-07 0)
(8.03463e-07 -2.10682e-07 0)
(8.33569e-07 -2.09535e-07 0)
(8.6351e-07 -2.08355e-07 0)
(8.93215e-07 -2.0711e-07 0)
(9.22808e-07 -2.0574e-07 0)
(9.52244e-07 -2.04243e-07 0)
(9.81557e-07 -2.02467e-07 0)
(3.84147e-07 -2.56318e-07 0)
(4.17201e-07 -2.52092e-07 0)
(4.50094e-07 -2.48283e-07 0)
(4.82888e-07 -2.44721e-07 0)
(5.15509e-07 -2.41464e-07 0)
(5.47948e-07 -2.38513e-07 0)
(5.80171e-07 -2.35885e-07 0)
(6.12135e-07 -2.33564e-07 0)
(6.43819e-07 -2.315e-07 0)
(6.75249e-07 -2.29688e-07 0)
(7.06416e-07 -2.28078e-07 0)
(7.37299e-07 -2.26618e-07 0)
(7.67977e-07 -2.25255e-07 0)
(7.98402e-07 -2.23963e-07 0)
(8.28587e-07 -2.22678e-07 0)
(8.58609e-07 -2.21385e-07 0)
(8.884e-07 -2.20065e-07 0)
(9.18086e-07 -2.18661e-07 0)
(9.47583e-07 -2.1714e-07 0)
(9.76968e-07 -2.15358e-07 0)
(3.80604e-07 -2.70088e-07 0)
(4.13397e-07 -2.66108e-07 0)
(4.46069e-07 -2.62469e-07 0)
(4.78643e-07 -2.59012e-07 0)
(5.11079e-07 -2.55794e-07 0)
(5.43375e-07 -2.5282e-07 0)
(5.75489e-07 -2.50124e-07 0)
(6.07375e-07 -2.47704e-07 0)
(6.39011e-07 -2.45515e-07 0)
(6.70423e-07 -2.43566e-07 0)
(7.01592e-07 -2.41814e-07 0)
(7.32497e-07 -2.40209e-07 0)
(7.6321e-07 -2.38703e-07 0)
(7.93676e-07 -2.37277e-07 0)
(8.23914e-07 -2.35876e-07 0)
(8.53998e-07 -2.34499e-07 0)
(8.8386e-07 -2.33132e-07 0)
(9.13604e-07 -2.31703e-07 0)
(9.43146e-07 -2.30144e-07 0)
(9.72588e-07 -2.28429e-07 0)
(3.77471e-07 -2.83706e-07 0)
(4.10036e-07 -2.79951e-07 0)
(4.42506e-07 -2.76458e-07 0)
(4.74889e-07 -2.73098e-07 0)
(5.07166e-07 -2.69928e-07 0)
(5.39325e-07 -2.66953e-07 0)
(5.71323e-07 -2.64218e-07 0)
(6.03118e-07 -2.6173e-07 0)
(6.34688e-07 -2.59449e-07 0)
(6.66062e-07 -2.57387e-07 0)
(6.97206e-07 -2.5551e-07 0)
(7.28103e-07 -2.53774e-07 0)
(7.58821e-07 -2.52139e-07 0)
(7.89305e-07 -2.50595e-07 0)
(8.19577e-07 -2.491e-07 0)
(8.49706e-07 -2.47661e-07 0)
(8.79614e-07 -2.46252e-07 0)
(9.09383e-07 -2.44788e-07 0)
(9.38973e-07 -2.43228e-07 0)
(9.68445e-07 -2.41593e-07 0)
(3.74696e-07 -2.97207e-07 0)
(4.07063e-07 -2.93641e-07 0)
(4.3935e-07 -2.90277e-07 0)
(4.71576e-07 -2.87012e-07 0)
(5.03713e-07 -2.83899e-07 0)
(5.35741e-07 -2.80938e-07 0)
(5.67625e-07 -2.78183e-07 0)
(5.99325e-07 -2.75641e-07 0)
(6.30821e-07 -2.7329e-07 0)
(6.62141e-07 -2.71124e-07 0)
(6.93245e-07 -2.69129e-07 0)
(7.24119e-07 -2.67271e-07 0)
(7.54827e-07 -2.65521e-07 0)
(7.8532e-07 -2.63883e-07 0)
(8.15613e-07 -2.62323e-07 0)
(8.45769e-07 -2.60837e-07 0)
(8.75693e-07 -2.59388e-07 0)
(9.05475e-07 -2.57894e-07 0)
(9.35096e-07 -2.564e-07 0)
(9.64592e-07 -2.54807e-07 0)
(3.72269e-07 -3.10602e-07 0)
(4.04454e-07 -3.07193e-07 0)
(4.36588e-07 -3.03956e-07 0)
(4.68678e-07 -3.00785e-07 0)
(5.0068e-07 -2.97726e-07 0)
(5.32581e-07 -2.9478e-07 0)
(5.64356e-07 -2.92011e-07 0)
(5.95967e-07 -2.89418e-07 0)
(6.27393e-07 -2.8701e-07 0)
(6.58657e-07 -2.84758e-07 0)
(6.89717e-07 -2.82667e-07 0)
(7.2056e-07 -2.80714e-07 0)
(7.51251e-07 -2.78875e-07 0)
(7.81742e-07 -2.77168e-07 0)
(8.12039e-07 -2.75553e-07 0)
(8.42193e-07 -2.74019e-07 0)
(8.72104e-07 -2.72529e-07 0)
(9.019e-07 -2.71043e-07 0)
(9.31513e-07 -2.69617e-07 0)
(9.61026e-07 -2.681e-07 0)
(3.7017e-07 -3.23898e-07 0)
(4.02201e-07 -3.20646e-07 0)
(4.34204e-07 -3.17527e-07 0)
(4.66155e-07 -3.14433e-07 0)
(4.98025e-07 -3.11417e-07 0)
(5.29813e-07 -3.08486e-07 0)
(5.61497e-07 -3.05719e-07 0)
(5.93029e-07 -3.03097e-07 0)
(6.24389e-07 -3.00642e-07 0)
(6.55589e-07 -2.98319e-07 0)
(6.86597e-07 -2.9614e-07 0)
(7.17406e-07 -2.94095e-07 0)
(7.48079e-07 -2.92175e-07 0)
(7.7856e-07 -2.904e-07 0)
(8.08843e-07 -2.88724e-07 0)
(8.38971e-07 -2.87134e-07 0)
(8.68862e-07 -2.85619e-07 0)
(8.98657e-07 -2.8418e-07 0)
(9.28262e-07 -2.82773e-07 0)
(9.57771e-07 -2.81386e-07 0)
(3.6837e-07 -3.37137e-07 0)
(4.00271e-07 -3.34037e-07 0)
(4.32139e-07 -3.31001e-07 0)
(4.63953e-07 -3.27967e-07 0)
(4.95711e-07 -3.24992e-07 0)
(5.27404e-07 -3.22092e-07 0)
(5.59009e-07 -3.19328e-07 0)
(5.90463e-07 -3.16681e-07 0)
(6.2176e-07 -3.14156e-07 0)
(6.52908e-07 -3.11758e-07 0)
(6.83877e-07 -3.09513e-07 0)
(7.14664e-07 -3.07406e-07 0)
(7.45325e-07 -3.05425e-07 0)
(7.75785e-07 -3.03587e-07 0)
(8.06032e-07 -3.01846e-07 0)
(8.36126e-07 -3.0021e-07 0)
(8.66012e-07 -2.98696e-07 0)
(8.95785e-07 -2.97296e-07 0)
(9.25389e-07 -2.95928e-07 0)
(9.54877e-07 -2.94643e-07 0)
(3.66817e-07 -3.50365e-07 0)
(3.98591e-07 -3.47353e-07 0)
(4.3033e-07 -3.44379e-07 0)
(4.62033e-07 -3.41407e-07 0)
(4.93705e-07 -3.38473e-07 0)
(5.25322e-07 -3.35605e-07 0)
(5.56859e-07 -3.32823e-07 0)
(5.88247e-07 -3.30161e-07 0)
(6.1948e-07 -3.27593e-07 0)
(6.50585e-07 -3.25134e-07 0)
(6.81534e-07 -3.22827e-07 0)
(7.12307e-07 -3.20657e-07 0)
(7.42941e-07 -3.18605e-07 0)
(7.7336e-07 -3.16691e-07 0)
(8.0357e-07 -3.14886e-07 0)
(8.33652e-07 -3.13229e-07 0)
(8.63538e-07 -3.11734e-07 0)
(8.93283e-07 -3.10308e-07 0)
(9.22847e-07 -3.09019e-07 0)
(9.5231e-07 -3.07853e-07 0)
(3.65456e-07 -3.63545e-07 0)
(3.97116e-07 -3.60618e-07 0)
(4.28752e-07 -3.57702e-07 0)
(4.60374e-07 -3.54788e-07 0)
(4.91978e-07 -3.5188e-07 0)
(5.23535e-07 -3.49016e-07 0)
(5.54998e-07 -3.46228e-07 0)
(5.86326e-07 -3.43534e-07 0)
(6.17518e-07 -3.40925e-07 0)
(6.48608e-07 -3.38424e-07 0)
(6.79548e-07 -3.36066e-07 0)
(7.10298e-07 -3.33823e-07 0)
(7.40893e-07 -3.31686e-07 0)
(7.7128e-07 -3.29705e-07 0)
(8.01489e-07 -3.27872e-07 0)
(8.31594e-07 -3.26193e-07 0)
(8.6145e-07 -3.24654e-07 0)
(8.91143e-07 -3.23217e-07 0)
(9.20655e-07 -3.2202e-07 0)
(9.50174e-07 -3.20978e-07 0)
(3.64278e-07 -3.76687e-07 0)
(3.95832e-07 -3.73868e-07 0)
(4.27399e-07 -3.70989e-07 0)
(4.58967e-07 -3.681e-07 0)
(4.90509e-07 -3.65236e-07 0)
(5.21995e-07 -3.62367e-07 0)
(5.53399e-07 -3.59556e-07 0)
(5.8469e-07 -3.56838e-07 0)
(6.15875e-07 -3.54204e-07 0)
(6.46962e-07 -3.51655e-07 0)
(6.77874e-07 -3.49222e-07 0)
(7.08577e-07 -3.4691e-07 0)
(7.39161e-07 -3.44723e-07 0)
(7.69592e-07 -3.42685e-07 0)
(7.99829e-07 -3.40787e-07 0)
(8.29869e-07 -3.39067e-07 0)
(8.59664e-07 -3.37479e-07 0)
(8.89425e-07 -3.36077e-07 0)
(9.18964e-07 -3.34932e-07 0)
(9.48352e-07 -3.34021e-07 0)
(3.63237e-07 -3.89887e-07 0)
(3.94712e-07 -3.87107e-07 0)
(4.26241e-07 -3.84251e-07 0)
(4.57762e-07 -3.81386e-07 0)
(4.8923e-07 -3.78505e-07 0)
(5.20649e-07 -3.7564e-07 0)
(5.52033e-07 -3.72822e-07 0)
(5.83338e-07 -3.70069e-07 0)
(6.14511e-07 -3.67379e-07 0)
(6.45542e-07 -3.64774e-07 0)
(6.76427e-07 -3.6229e-07 0)
(7.07188e-07 -3.59912e-07 0)
(7.37826e-07 -3.57653e-07 0)
(7.68214e-07 -3.55567e-07 0)
(7.98421e-07 -3.53606e-07 0)
(8.2854e-07 -3.51799e-07 0)
(8.58401e-07 -3.50191e-07 0)
(8.88119e-07 -3.48796e-07 0)
(9.17694e-07 -3.47656e-07 0)
(9.47074e-07 -3.4687e-07 0)
(3.62342e-07 -4.03051e-07 0)
(3.9377e-07 -4.00344e-07 0)
(4.25245e-07 -3.97517e-07 0)
(4.5669e-07 -3.94646e-07 0)
(4.88122e-07 -3.91759e-07 0)
(5.19554e-07 -3.88876e-07 0)
(5.50935e-07 -3.86033e-07 0)
(5.82185e-07 -3.83249e-07 0)
(6.13321e-07 -3.80511e-07 0)
(6.44407e-07 -3.77838e-07 0)
(6.75354e-07 -3.75303e-07 0)
(7.06087e-07 -3.72889e-07 0)
(7.3672e-07 -3.70548e-07 0)
(7.67201e-07 -3.68374e-07 0)
(7.97446e-07 -3.66376e-07 0)
(8.27578e-07 -3.64503e-07 0)
(8.57539e-07 -3.62874e-07 0)
(8.87299e-07 -3.61397e-07 0)
(9.16954e-07 -3.60237e-07 0)
(9.46308e-07 -3.59458e-07 0)
(2.11516e-08 -2.44408e-07 0)
(6.35181e-08 -2.41536e-07 0)
(1.05964e-07 -2.3573e-07 0)
(1.48554e-07 -2.2746e-07 0)
(1.91246e-07 -2.16897e-07 0)
(2.33997e-07 -2.04531e-07 0)
(2.7675e-07 -1.90813e-07 0)
(3.19396e-07 -1.76117e-07 0)
(3.62323e-07 -1.60761e-07 0)
(4.04655e-07 -1.44783e-07 0)
(2.09463e-08 -2.52501e-07 0)
(6.28866e-08 -2.49906e-07 0)
(1.04811e-07 -2.44607e-07 0)
(1.46756e-07 -2.37083e-07 0)
(1.88642e-07 -2.27429e-07 0)
(2.30368e-07 -2.16064e-07 0)
(2.7186e-07 -2.03372e-07 0)
(3.1288e-07 -1.89721e-07 0)
(3.53645e-07 -1.75379e-07 0)
(3.92971e-07 -1.61228e-07 0)
(2.06584e-08 -2.60863e-07 0)
(6.20124e-08 -2.58523e-07 0)
(1.0329e-07 -2.5367e-07 0)
(1.44475e-07 -2.4678e-07 0)
(1.85511e-07 -2.37933e-07 0)
(2.26245e-07 -2.27471e-07 0)
(2.66606e-07 -2.15747e-07 0)
(3.06401e-07 -2.03103e-07 0)
(3.45742e-07 -1.89786e-07 0)
(3.83711e-07 -1.76931e-07 0)
(2.03699e-08 -2.694e-07 0)
(6.11345e-08 -2.67251e-07 0)
(1.01828e-07 -2.62762e-07 0)
(1.42345e-07 -2.56395e-07 0)
(1.82667e-07 -2.48219e-07 0)
(2.22607e-07 -2.38508e-07 0)
(2.62098e-07 -2.27641e-07 0)
(3.00949e-07 -2.15941e-07 0)
(3.39156e-07 -2.03686e-07 0)
(3.76056e-07 -1.91994e-07 0)
(2.01142e-08 -2.78093e-07 0)
(6.02835e-08 -2.76129e-07 0)
(1.00409e-07 -2.71975e-07 0)
(1.40306e-07 -2.66077e-07 0)
(1.79972e-07 -2.58506e-07 0)
(2.19222e-07 -2.49519e-07 0)
(2.57976e-07 -2.39476e-07 0)
(2.96086e-07 -2.28652e-07 0)
(3.33436e-07 -2.17355e-07 0)
(3.69548e-07 -2.06609e-07 0)
(1.98618e-08 -2.86936e-07 0)
(5.94876e-08 -2.85116e-07 0)
(9.90612e-08 -2.81274e-07 0)
(1.38399e-07 -2.75808e-07 0)
(1.77475e-07 -2.68792e-07 0)
(2.16157e-07 -2.60471e-07 0)
(2.54284e-07 -2.51181e-07 0)
(2.91765e-07 -2.41173e-07 0)
(3.28434e-07 -2.30757e-07 0)
(3.63911e-07 -2.20864e-07 0)
(1.9597e-08 -2.95913e-07 0)
(5.8731e-08 -2.94218e-07 0)
(9.77789e-08 -2.90684e-07 0)
(1.36614e-07 -2.856e-07 0)
(1.75153e-07 -2.79099e-07 0)
(2.13325e-07 -2.714e-07 0)
(2.50946e-07 -2.6281e-07 0)
(2.87904e-07 -2.53564e-07 0)
(3.24032e-07 -2.43955e-07 0)
(3.59014e-07 -2.3482e-07 0)
(1.93672e-08 -3.05003e-07 0)
(5.80226e-08 -3.03429e-07 0)
(9.65731e-08 -3.00182e-07 0)
(1.34949e-07 -2.95452e-07 0)
(1.73023e-07 -2.89441e-07 0)
(2.10726e-07 -2.82323e-07 0)
(2.47905e-07 -2.74393e-07 0)
(2.84435e-07 -2.65859e-07 0)
(3.20137e-07 -2.56991e-07 0)
(3.54746e-07 -2.48536e-07 0)
(1.91734e-08 -3.14208e-07 0)
(5.73614e-08 -3.12743e-07 0)
(9.54599e-08 -3.09757e-07 0)
(1.33406e-07 -3.05376e-07 0)
(1.71058e-07 -2.9984e-07 0)
(2.08364e-07 -2.93263e-07 0)
(2.45148e-07 -2.85949e-07 0)
(2.81305e-07 -2.78078e-07 0)
(3.16663e-07 -2.699e-07 0)
(3.50996e-07 -2.6207e-07 0)
(1.89701e-08 -3.2354e-07 0)
(5.67344e-08 -3.22161e-07 0)
(9.44309e-08 -3.19418e-07 0)
(1.31989e-07 -3.15379e-07 0)
(1.69243e-07 -3.10294e-07 0)
(2.06202e-07 -3.04227e-07 0)
(2.42639e-07 -2.97486e-07 0)
(2.78472e-07 -2.90239e-07 0)
(3.13547e-07 -2.82709e-07 0)
(3.47668e-07 -2.75464e-07 0)
(1.87537e-08 -3.32986e-07 0)
(5.61605e-08 -3.31678e-07 0)
(9.34851e-08 -3.29173e-07 0)
(1.30689e-07 -3.25464e-07 0)
(1.67578e-07 -3.20796e-07 0)
(2.04209e-07 -3.15214e-07 0)
(2.40345e-07 -3.09014e-07 0)
(2.75902e-07 -3.02361e-07 0)
(3.10745e-07 -2.95435e-07 0)
(3.44697e-07 -2.88736e-07 0)
(1.85593e-08 -3.42526e-07 0)
(5.5658e-08 -3.41301e-07 0)
(9.26269e-08 -3.39027e-07 0)
(1.29495e-07 -3.35628e-07 0)
(1.66062e-07 -3.31346e-07 0)
(2.0238e-07 -3.26227e-07 0)
(2.38249e-07 -3.20544e-07 0)
(2.73573e-07 -3.1445e-07 0)
(3.08222e-07 -3.0808e-07 0)
(3.42056e-07 -3.01892e-07 0)
(1.84024e-08 -3.52167e-07 0)
(5.52069e-08 -3.5104e-07 0)
(9.18413e-08 -3.48977e-07 0)
(1.2839e-07 -3.45868e-07 0)
(1.64674e-07 -3.41948e-07 0)
(2.00704e-07 -3.37272e-07 0)
(2.36333e-07 -3.3208e-07 0)
(2.71457e-07 -3.265e-07 0)
(3.0596e-07 -3.20653e-07 0)
(3.39744e-07 -3.14959e-07 0)
(1.82622e-08 -3.61929e-07 0)
(5.47645e-08 -3.60901e-07 0)
(9.10974e-08 -3.59023e-07 0)
(1.27349e-07 -3.56186e-07 0)
(1.63379e-07 -3.5261e-07 0)
(1.99154e-07 -3.48354e-07 0)
(2.34572e-07 -3.43625e-07 0)
(2.69532e-07 -3.38527e-07 0)
(3.03945e-07 -3.33199e-07 0)
(3.37725e-07 -3.27987e-07 0)
(1.81141e-08 -3.71825e-07 0)
(5.4311e-08 -3.70885e-07 0)
(9.03799e-08 -3.69168e-07 0)
(1.26363e-07 -3.66592e-07 0)
(1.62156e-07 -3.63349e-07 0)
(1.97705e-07 -3.59494e-07 0)
(2.32938e-07 -3.55188e-07 0)
(2.67781e-07 -3.50546e-07 0)
(3.02147e-07 -3.45731e-07 0)
(3.35953e-07 -3.40965e-07 0)
(1.79582e-08 -3.81848e-07 0)
(5.38655e-08 -3.80993e-07 0)
(8.96968e-08 -3.79431e-07 0)
(1.25427e-07 -3.77107e-07 0)
(1.60988e-07 -3.7416e-07 0)
(1.96338e-07 -3.70662e-07 0)
(2.31424e-07 -3.6676e-07 0)
(2.66202e-07 -3.62584e-07 0)
(3.00545e-07 -3.58253e-07 0)
(3.3441e-07 -3.53926e-07 0)
(1.78125e-08 -3.91993e-07 0)
(5.34518e-08 -3.91232e-07 0)
(8.90465e-08 -3.8981e-07 0)
(1.24531e-07 -3.87709e-07 0)
(1.59879e-07 -3.85054e-07 0)
(1.95057e-07 -3.819e-07 0)
(2.30035e-07 -3.78396e-07 0)
(2.6476e-07 -3.74682e-07 0)
(2.99102e-07 -3.70778e-07 0)
(3.33035e-07 -3.66886e-07 0)
(1.76836e-08 -4.02269e-07 0)
(5.30642e-08 -4.01594e-07 0)
(8.84134e-08 -4.00302e-07 0)
(1.23664e-07 -3.98414e-07 0)
(1.58818e-07 -3.96016e-07 0)
(1.93855e-07 -3.93186e-07 0)
(2.2875e-07 -3.90069e-07 0)
(2.63421e-07 -3.86775e-07 0)
(2.97787e-07 -3.83306e-07 0)
(3.31813e-07 -3.79813e-07 0)
(1.75649e-08 -4.12662e-07 0)
(5.26851e-08 -4.12072e-07 0)
(8.77835e-08 -4.10907e-07 0)
(1.22821e-07 -4.09209e-07 0)
(1.57799e-07 -4.07068e-07 0)
(1.9272e-07 -4.04562e-07 0)
(2.27544e-07 -4.01824e-07 0)
(2.62191e-07 -3.98906e-07 0)
(2.9657e-07 -3.95881e-07 0)
(3.30717e-07 -3.92782e-07 0)
(1.74466e-08 -4.23198e-07 0)
(5.23118e-08 -4.22665e-07 0)
(8.716e-08 -4.21627e-07 0)
(1.22002e-07 -4.2011e-07 0)
(1.56849e-07 -4.18206e-07 0)
(1.91687e-07 -4.16007e-07 0)
(2.26442e-07 -4.1361e-07 0)
(2.61084e-07 -4.11058e-07 0)
(2.95505e-07 -4.08443e-07 0)
(3.29833e-07 -4.05725e-07 0)
)


// ************************************************************************* //
