/*--------------------------------*- C++ -*----------------------------------*\
| =========                 |                                                 |
| \\      /  F ield         | foam-extend: Open Source CFD                    |
|  \\    /   O peration     | Version:     4.1                                |
|   \\  /    A nd           | Web:         http://www.foam-extend.org         |
|    \\/     M anipulation  |                                                 |
\*---------------------------------------------------------------------------*/
FoamFile
{
    version     2.0;
    format      ascii;
    class       vectorField;
    location    "1";
    object      solidsCellD_iteration8;
}
// * * * * * * * * * * * * * * * * * * * * * * * * * * * * * * * * * * * * * //


1000
(
(4.10733e-07 -1.02808e-07 0)
(3.9543e-07 -9.98561e-08 0)
(3.87187e-07 -9.97842e-08 0)
(3.8393e-07 -1.02047e-07 0)
(3.84286e-07 -1.05868e-07 0)
(3.87369e-07 -1.10811e-07 0)
(3.92466e-07 -1.16568e-07 0)
(3.98937e-07 -1.23072e-07 0)
(4.06805e-07 -1.29912e-07 0)
(4.14037e-07 -1.37205e-07 0)
(3.72554e-07 -1.12582e-07 0)
(3.56244e-07 -1.12372e-07 0)
(3.47177e-07 -1.14138e-07 0)
(3.43225e-07 -1.17726e-07 0)
(3.4282e-07 -1.22503e-07 0)
(3.4505e-07 -1.28145e-07 0)
(3.49229e-07 -1.34391e-07 0)
(3.54725e-07 -1.41263e-07 0)
(3.61446e-07 -1.48238e-07 0)
(3.67979e-07 -1.55926e-07 0)
(3.32492e-07 -1.21784e-07 0)
(3.15769e-07 -1.24619e-07 0)
(3.06276e-07 -1.28371e-07 0)
(3.01875e-07 -1.33294e-07 0)
(3.00979e-07 -1.38957e-07 0)
(3.02603e-07 -1.45195e-07 0)
(3.06108e-07 -1.5185e-07 0)
(3.1096e-07 -1.58928e-07 0)
(3.16986e-07 -1.65977e-07 0)
(3.23115e-07 -1.73564e-07 0)
(2.90863e-07 -1.30271e-07 0)
(2.74545e-07 -1.36232e-07 0)
(2.65114e-07 -1.41995e-07 0)
(2.60514e-07 -1.48227e-07 0)
(2.59297e-07 -1.54763e-07 0)
(2.60492e-07 -1.61556e-07 0)
(2.63415e-07 -1.68548e-07 0)
(2.67704e-07 -1.7578e-07 0)
(2.73089e-07 -1.82921e-07 0)
(2.78796e-07 -1.9046e-07 0)
(2.48105e-07 -1.37856e-07 0)
(2.32811e-07 -1.46867e-07 0)
(2.23856e-07 -1.54589e-07 0)
(2.19404e-07 -1.62089e-07 0)
(2.18068e-07 -1.69432e-07 0)
(2.18895e-07 -1.76753e-07 0)
(2.21314e-07 -1.84069e-07 0)
(2.25018e-07 -1.91457e-07 0)
(2.29768e-07 -1.98721e-07 0)
(2.34888e-07 -2.06251e-07 0)
(2.04222e-07 -1.44439e-07 0)
(1.90705e-07 -1.56258e-07 0)
(1.82755e-07 -1.6579e-07 0)
(1.78687e-07 -1.74486e-07 0)
(1.77333e-07 -1.82594e-07 0)
(1.77848e-07 -1.90398e-07 0)
(1.79846e-07 -1.97995e-07 0)
(1.82983e-07 -2.05534e-07 0)
(1.87017e-07 -2.12936e-07 0)
(1.91393e-07 -2.20497e-07 0)
(1.59638e-07 -1.49821e-07 0)
(1.48426e-07 -1.64113e-07 0)
(1.41801e-07 -1.75242e-07 0)
(1.38343e-07 -1.84981e-07 0)
(1.37129e-07 -1.93741e-07 0)
(1.3748e-07 -2.01968e-07 0)
(1.39068e-07 -2.09821e-07 0)
(1.41567e-07 -2.17518e-07 0)
(1.44777e-07 -2.25061e-07 0)
(1.48281e-07 -2.32658e-07 0)
(1.14461e-07 -1.53965e-07 0)
(1.06011e-07 -1.70246e-07 0)
(1.01035e-07 -1.8262e-07 0)
(9.84544e-08 -1.93151e-07 0)
(9.75295e-08 -2.0246e-07 0)
(9.77573e-08 -2.11038e-07 0)
(9.88838e-08 -2.19126e-07 0)
(1.00681e-07 -2.2695e-07 0)
(1.03007e-07 -2.34609e-07 0)
(1.0556e-07 -2.42239e-07 0)
(6.88367e-08 -1.56771e-07 0)
(6.3616e-08 -1.74416e-07 0)
(6.05713e-08 -1.8765e-07 0)
(5.89422e-08 -1.98791e-07 0)
(5.83157e-08 -2.08484e-07 0)
(5.8427e-08 -2.17275e-07 0)
(5.91321e-08 -2.25534e-07 0)
(6.02463e-08 -2.33496e-07 0)
(6.16457e-08 -2.41265e-07 0)
(6.31867e-08 -2.48927e-07 0)
(2.29941e-08 -1.58188e-07 0)
(2.12336e-08 -1.76552e-07 0)
(2.01583e-08 -1.90222e-07 0)
(1.96077e-08 -2.01642e-07 0)
(1.9437e-08 -2.11521e-07 0)
(1.94661e-08 -2.20448e-07 0)
(1.96601e-08 -2.28775e-07 0)
(2.00299e-08 -2.36773e-07 0)
(2.05164e-08 -2.44593e-07 0)
(2.1031e-08 -2.52281e-07 0)
(6.25703e-07 -4.58919e-09 0)
(6.29641e-07 -3.41258e-09 0)
(6.33753e-07 -2.76095e-09 0)
(6.38945e-07 -2.4722e-09 0)
(6.45408e-07 -2.4168e-09 0)
(6.53129e-07 -2.54068e-09 0)
(6.62162e-07 -2.78012e-09 0)
(6.7231e-07 -3.05439e-09 0)
(6.83646e-07 -3.43085e-09 0)
(6.95986e-07 -3.86341e-09 0)
(6.21449e-07 -1.38193e-08 0)
(6.24754e-07 -1.03589e-08 0)
(6.2848e-07 -8.41524e-09 0)
(6.33374e-07 -7.61265e-09 0)
(6.39631e-07 -7.52319e-09 0)
(6.47169e-07 -7.83217e-09 0)
(6.56118e-07 -8.53168e-09 0)
(6.66203e-07 -9.47997e-09 0)
(6.77425e-07 -1.06087e-08 0)
(6.89722e-07 -1.18104e-08 0)
(6.12909e-07 -2.30879e-08 0)
(6.14987e-07 -1.76119e-08 0)
(6.17958e-07 -1.45596e-08 0)
(6.22345e-07 -1.32046e-08 0)
(6.28263e-07 -1.30769e-08 0)
(6.3559e-07 -1.37118e-08 0)
(6.44302e-07 -1.49113e-08 0)
(6.54248e-07 -1.64595e-08 0)
(6.6528e-07 -1.82876e-08 0)
(6.77478e-07 -2.02761e-08 0)
(6.0022e-07 -3.25357e-08 0)
(6.00563e-07 -2.53316e-08 0)
(6.02407e-07 -2.1442e-08 0)
(6.0609e-07 -1.97725e-08 0)
(6.11482e-07 -1.9656e-08 0)
(6.18476e-07 -2.0551e-08 0)
(6.26918e-07 -2.21807e-08 0)
(6.36702e-07 -2.432e-08 0)
(6.47502e-07 -2.68595e-08 0)
(6.59598e-07 -2.96252e-08 0)
(5.83466e-07 -4.21606e-08 0)
(5.81732e-07 -3.36915e-08 0)
(5.82188e-07 -2.92153e-08 0)
(5.84953e-07 -2.74142e-08 0)
(5.89729e-07 -2.74151e-08 0)
(5.96306e-07 -2.86189e-08 0)
(6.04399e-07 -3.07108e-08 0)
(6.13932e-07 -3.3432e-08 0)
(6.24464e-07 -3.66329e-08 0)
(6.36478e-07 -4.00928e-08 0)
(5.62834e-07 -5.20085e-08 0)
(5.58709e-07 -4.28414e-08 0)
(5.57658e-07 -3.80922e-08 0)
(5.59428e-07 -3.6355e-08 0)
(5.63504e-07 -3.66256e-08 0)
(5.69591e-07 -3.8215e-08 0)
(5.7734e-07 -4.07728e-08 0)
(5.86604e-07 -4.40013e-08 0)
(5.96862e-07 -4.77953e-08 0)
(6.0879e-07 -5.18763e-08 0)
(5.38626e-07 -6.20651e-08 0)
(5.31927e-07 -5.28481e-08 0)
(5.29244e-07 -4.82176e-08 0)
(5.29973e-07 -4.67795e-08 0)
(5.33318e-07 -4.74323e-08 0)
(5.38906e-07 -4.94624e-08 0)
(5.46299e-07 -5.24785e-08 0)
(5.55284e-07 -5.61451e-08 0)
(5.65267e-07 -6.04616e-08 0)
(5.77135e-07 -6.50606e-08 0)
(5.11003e-07 -7.22451e-08 0)
(5.01767e-07 -6.36871e-08 0)
(4.97468e-07 -5.96009e-08 0)
(4.97137e-07 -5.87117e-08 0)
(4.99785e-07 -5.98867e-08 0)
(5.04875e-07 -6.24396e-08 0)
(5.11891e-07 -6.59406e-08 0)
(5.20608e-07 -7.00297e-08 0)
(5.30366e-07 -7.4812e-08 0)
(5.42133e-07 -7.98001e-08 0)
(4.80284e-07 -8.2506e-08 0)
(4.68679e-07 -7.52459e-08 0)
(4.62873e-07 -7.21536e-08 0)
(4.61494e-07 -7.20711e-08 0)
(4.63438e-07 -7.39392e-08 0)
(4.67947e-07 -7.71044e-08 0)
(4.74501e-07 -8.11355e-08 0)
(4.82841e-07 -8.56424e-08 0)
(4.92318e-07 -9.07852e-08 0)
(5.03815e-07 -9.58834e-08 0)
(4.46781e-07 -9.274e-08 0)
(4.33142e-07 -8.73625e-08 0)
(4.25993e-07 -8.56317e-08 0)
(4.2364e-07 -8.66434e-08 0)
(4.24851e-07 -8.9411e-08 0)
(4.28798e-07 -9.3351e-08 0)
(4.34977e-07 -9.81203e-08 0)
(4.42971e-07 -1.03347e-07 0)
(4.52414e-07 -1.09137e-07 0)
(4.63112e-07 -1.14822e-07 0)
(7.09207e-07 -4.22405e-09 0)
(7.23489e-07 -4.44529e-09 0)
(7.38528e-07 -4.62838e-09 0)
(7.5425e-07 -4.7864e-09 0)
(7.70601e-07 -4.92157e-09 0)
(7.8757e-07 -5.03391e-09 0)
(8.05073e-07 -5.11268e-09 0)
(8.23022e-07 -5.18785e-09 0)
(8.4143e-07 -5.28014e-09 0)
(8.603e-07 -5.3607e-09 0)
(8.79567e-07 -5.41107e-09 0)
(8.99185e-07 -5.43622e-09 0)
(9.19131e-07 -5.44734e-09 0)
(9.39391e-07 -5.45571e-09 0)
(9.59945e-07 -5.46192e-09 0)
(9.80776e-07 -5.45338e-09 0)
(1.00186e-06 -5.41722e-09 0)
(1.0232e-06 -5.34674e-09 0)
(1.04474e-06 -5.24807e-09 0)
(1.06648e-06 -5.13107e-09 0)
(7.0319e-07 -1.28492e-08 0)
(7.17927e-07 -1.34973e-08 0)
(7.33378e-07 -1.40262e-08 0)
(7.49496e-07 -1.44711e-08 0)
(7.66219e-07 -1.48232e-08 0)
(7.83491e-07 -1.51287e-08 0)
(8.01276e-07 -1.54077e-08 0)
(8.19531e-07 -1.56777e-08 0)
(8.38238e-07 -1.5924e-08 0)
(8.57361e-07 -1.60998e-08 0)
(8.76855e-07 -1.62174e-08 0)
(8.96702e-07 -1.63075e-08 0)
(9.16886e-07 -1.63748e-08 0)
(9.37375e-07 -1.64105e-08 0)
(9.58137e-07 -1.64026e-08 0)
(9.79157e-07 -1.63414e-08 0)
(1.00043e-06 -1.6216e-08 0)
(1.02192e-06 -1.60184e-08 0)
(1.04362e-06 -1.57573e-08 0)
(1.0655e-06 -1.54344e-08 0)
(6.91412e-07 -2.1972e-08 0)
(7.07093e-07 -2.29596e-08 0)
(7.23405e-07 -2.37289e-08 0)
(7.40233e-07 -2.43936e-08 0)
(7.57623e-07 -2.49538e-08 0)
(7.7556e-07 -2.54615e-08 0)
(7.93979e-07 -2.59205e-08 0)
(8.12792e-07 -2.63318e-08 0)
(8.32e-07 -2.66784e-08 0)
(8.51592e-07 -2.69354e-08 0)
(8.71544e-07 -2.71398e-08 0)
(8.91836e-07 -2.73163e-08 0)
(9.12432e-07 -2.74409e-08 0)
(9.33293e-07 -2.74867e-08 0)
(9.54406e-07 -2.74468e-08 0)
(9.75788e-07 -2.73223e-08 0)
(9.97411e-07 -2.7103e-08 0)
(1.01927e-06 -2.67842e-08 0)
(1.04131e-06 -2.63804e-08 0)
(1.06354e-06 -2.58744e-08 0)
(6.7419e-07 -3.18502e-08 0)
(6.91148e-07 -3.30032e-08 0)
(7.08674e-07 -3.38808e-08 0)
(7.26617e-07 -3.46819e-08 0)
(7.45052e-07 -3.53987e-08 0)
(7.63921e-07 -3.60686e-08 0)
(7.83201e-07 -3.66632e-08 0)
(8.0283e-07 -3.71886e-08 0)
(8.22848e-07 -3.76283e-08 0)
(8.4321e-07 -3.79743e-08 0)
(8.63871e-07 -3.82595e-08 0)
(8.84812e-07 -3.84869e-08 0)
(9.06008e-07 -3.86225e-08 0)
(9.2744e-07 -3.86518e-08 0)
(9.49106e-07 -3.85873e-08 0)
(9.71023e-07 -3.84142e-08 0)
(9.93151e-07 -3.81195e-08 0)
(1.0155e-06 -3.76941e-08 0)
(1.038e-06 -3.71475e-08 0)
(1.06068e-06 -3.64847e-08 0)
(6.51967e-07 -4.26661e-08 0)
(6.70627e-07 -4.37915e-08 0)
(6.89745e-07 -4.46667e-08 0)
(7.09068e-07 -4.5539e-08 0)
(7.28798e-07 -4.63339e-08 0)
(7.48865e-07 -4.70872e-08 0)
(7.69292e-07 -4.77554e-08 0)
(7.90003e-07 -4.83669e-08 0)
(8.11018e-07 -4.88783e-08 0)
(8.32307e-07 -4.92812e-08 0)
(8.53856e-07 -4.96116e-08 0)
(8.75652e-07 -4.98645e-08 0)
(8.97668e-07 -5.0001e-08 0)
(9.19887e-07 -5.00109e-08 0)
(9.42314e-07 -4.99124e-08 0)
(9.64921e-07 -4.96815e-08 0)
(9.87735e-07 -4.93085e-08 0)
(1.0107e-06 -4.87883e-08 0)
(1.03384e-06 -4.81163e-08 0)
(1.05712e-06 -4.73261e-08 0)
(6.25299e-07 -5.46169e-08 0)
(6.4589e-07 -5.54837e-08 0)
(6.66913e-07 -5.61679e-08 0)
(6.87954e-07 -5.69849e-08 0)
(7.09319e-07 -5.77705e-08 0)
(7.30885e-07 -5.85543e-08 0)
(7.52651e-07 -5.92469e-08 0)
(7.74642e-07 -5.98728e-08 0)
(7.96859e-07 -6.04066e-08 0)
(8.19284e-07 -6.08436e-08 0)
(8.41921e-07 -6.12087e-08 0)
(8.64755e-07 -6.14798e-08 0)
(8.87751e-07 -6.16103e-08 0)
(9.10889e-07 -6.15954e-08 0)
(9.34205e-07 -6.14443e-08 0)
(9.57648e-07 -6.11434e-08 0)
(9.81291e-07 -6.06877e-08 0)
(1.00502e-06 -6.0085e-08 0)
(1.02895e-06 -5.93205e-08 0)
(1.05297e-06 -5.84194e-08 0)
(5.94891e-07 -6.77703e-08 0)
(6.17708e-07 -6.81331e-08 0)
(6.4091e-07 -6.84451e-08 0)
(6.63904e-07 -6.90694e-08 0)
(6.8705e-07 -6.97241e-08 0)
(7.10298e-07 -7.04217e-08 0)
(7.33595e-07 -7.1082e-08 0)
(7.57031e-07 -7.16873e-08 0)
(7.80624e-07 -7.22263e-08 0)
(8.04373e-07 -7.26898e-08 0)
(8.28266e-07 -7.30744e-08 0)
(8.52277e-07 -7.33395e-08 0)
(8.76386e-07 -7.34391e-08 0)
(9.00596e-07 -7.33813e-08 0)
(9.24932e-07 -7.3172e-08 0)
(9.49374e-07 -7.28098e-08 0)
(9.73989e-07 -7.22902e-08 0)
(9.98666e-07 -7.16159e-08 0)
(1.02349e-06 -7.07634e-08 0)
(1.04836e-06 -6.97457e-08 0)
(5.61273e-07 -8.22367e-08 0)
(5.86488e-07 -8.17789e-08 0)
(6.12061e-07 -8.1519e-08 0)
(6.37236e-07 -8.17749e-08 0)
(6.62413e-07 -8.21781e-08 0)
(6.87512e-07 -8.26996e-08 0)
(7.12589e-07 -8.32564e-08 0)
(7.37676e-07 -8.38014e-08 0)
(7.62807e-07 -8.43135e-08 0)
(7.87998e-07 -8.47674e-08 0)
(8.13244e-07 -8.51341e-08 0)
(8.38526e-07 -8.53652e-08 0)
(8.63843e-07 -8.54257e-08 0)
(8.89242e-07 -8.53305e-08 0)
(9.14736e-07 -8.50829e-08 0)
(9.40312e-07 -8.4682e-08 0)
(9.66012e-07 -8.41124e-08 0)
(9.91744e-07 -8.33676e-08 0)
(1.01757e-06 -8.24122e-08 0)
(1.0434e-06 -8.12551e-08 0)
(5.24857e-07 -9.79713e-08 0)
(5.52788e-07 -9.64327e-08 0)
(5.81e-07 -9.54398e-08 0)
(6.08575e-07 -9.51289e-08 0)
(6.35989e-07 -9.51333e-08 0)
(6.63117e-07 -9.53726e-08 0)
(6.90089e-07 -9.57325e-08 0)
(7.16934e-07 -9.6148e-08 0)
(7.43704e-07 -9.65799e-08 0)
(7.70422e-07 -9.69783e-08 0)
(7.97096e-07 -9.72966e-08 0)
(8.23738e-07 -9.74871e-08 0)
(8.50373e-07 -9.75253e-08 0)
(8.77064e-07 -9.74199e-08 0)
(9.03804e-07 -9.71614e-08 0)
(9.30598e-07 -9.67427e-08 0)
(9.57473e-07 -9.61316e-08 0)
(9.84332e-07 -9.53103e-08 0)
(1.01126e-06 -9.42423e-08 0)
(1.03815e-06 -9.29316e-08 0)
(4.86556e-07 -1.15094e-07 0)
(5.18271e-07 -1.11519e-07 0)
(5.496e-07 -1.09594e-07 0)
(5.79884e-07 -1.08616e-07 0)
(6.09582e-07 -1.08191e-07 0)
(6.38801e-07 -1.08108e-07 0)
(6.67647e-07 -1.08228e-07 0)
(6.96219e-07 -1.08474e-07 0)
(7.24595e-07 -1.08792e-07 0)
(7.52811e-07 -1.09112e-07 0)
(7.80896e-07 -1.0938e-07 0)
(8.08883e-07 -1.09547e-07 0)
(8.36819e-07 -1.09586e-07 0)
(8.6477e-07 -1.09494e-07 0)
(8.92715e-07 -1.09251e-07 0)
(9.20684e-07 -1.0884e-07 0)
(9.48696e-07 -1.08219e-07 0)
(9.76674e-07 -1.07341e-07 0)
(1.00471e-06 -1.06178e-07 0)
(1.03273e-06 -1.04706e-07 0)
(4.53461e-07 -1.35933e-07 0)
(4.89739e-07 -1.2928e-07 0)
(5.24194e-07 -1.25854e-07 0)
(5.57226e-07 -1.23682e-07 0)
(5.8909e-07 -1.22428e-07 0)
(6.20139e-07 -1.21729e-07 0)
(6.50554e-07 -1.21392e-07 0)
(6.80515e-07 -1.21296e-07 0)
(7.10129e-07 -1.21347e-07 0)
(7.3946e-07 -1.21452e-07 0)
(7.68573e-07 -1.21549e-07 0)
(7.97519e-07 -1.21589e-07 0)
(8.26359e-07 -1.21535e-07 0)
(8.55158e-07 -1.21371e-07 0)
(8.8388e-07 -1.21069e-07 0)
(9.12586e-07 -1.20593e-07 0)
(9.41266e-07 -1.1991e-07 0)
(9.69916e-07 -1.18943e-07 0)
(9.9859e-07 -1.17672e-07 0)
(1.02725e-06 -1.16015e-07 0)
(4.36866e-07 -1.55319e-07 0)
(4.73589e-07 -1.48121e-07 0)
(5.08596e-07 -1.43484e-07 0)
(5.42565e-07 -1.40245e-07 0)
(5.75465e-07 -1.38091e-07 0)
(6.07514e-07 -1.36665e-07 0)
(6.38876e-07 -1.35739e-07 0)
(6.69704e-07 -1.35158e-07 0)
(7.00087e-07 -1.34799e-07 0)
(7.30105e-07 -1.34557e-07 0)
(7.59841e-07 -1.34364e-07 0)
(7.89352e-07 -1.34162e-07 0)
(8.18704e-07 -1.33903e-07 0)
(8.4795e-07 -1.33555e-07 0)
(8.77051e-07 -1.33088e-07 0)
(9.06103e-07 -1.32451e-07 0)
(9.35055e-07 -1.31621e-07 0)
(9.63967e-07 -1.30507e-07 0)
(9.92848e-07 -1.29088e-07 0)
(1.02166e-06 -1.27222e-07 0)
(4.2501e-07 -1.72545e-07 0)
(4.61135e-07 -1.65633e-07 0)
(4.96218e-07 -1.60643e-07 0)
(5.30528e-07 -1.56849e-07 0)
(5.63962e-07 -1.54073e-07 0)
(5.96617e-07 -1.5205e-07 0)
(6.28617e-07 -1.50582e-07 0)
(6.60052e-07 -1.49518e-07 0)
(6.90997e-07 -1.48733e-07 0)
(7.21536e-07 -1.48123e-07 0)
(7.51752e-07 -1.47616e-07 0)
(7.81695e-07 -1.47143e-07 0)
(8.11434e-07 -1.46648e-07 0)
(8.41015e-07 -1.46089e-07 0)
(8.70397e-07 -1.45433e-07 0)
(8.997e-07 -1.44617e-07 0)
(9.28861e-07 -1.43627e-07 0)
(9.57964e-07 -1.42368e-07 0)
(9.86982e-07 -1.40803e-07 0)
(1.01592e-06 -1.38754e-07 0)
(4.15388e-07 -1.89152e-07 0)
(4.50909e-07 -1.82571e-07 0)
(4.85739e-07 -1.77428e-07 0)
(5.2007e-07 -1.73274e-07 0)
(5.53695e-07 -1.70032e-07 0)
(5.86681e-07 -1.67517e-07 0)
(6.19079e-07 -1.65577e-07 0)
(6.5093e-07 -1.64071e-07 0)
(6.82291e-07 -1.62882e-07 0)
(7.13242e-07 -1.61914e-07 0)
(7.43849e-07 -1.61097e-07 0)
(7.74151e-07 -1.60353e-07 0)
(8.04216e-07 -1.59619e-07 0)
(8.34085e-07 -1.58849e-07 0)
(8.63725e-07 -1.58001e-07 0)
(8.93253e-07 -1.57011e-07 0)
(9.22608e-07 -1.5587e-07 0)
(9.51888e-07 -1.54477e-07 0)
(9.81032e-07 -1.52773e-07 0)
(1.0101e-06 -1.50602e-07 0)
(4.07395e-07 -2.04985e-07 0)
(4.42358e-07 -1.98808e-07 0)
(4.76837e-07 -1.93729e-07 0)
(5.11008e-07 -1.89415e-07 0)
(5.44629e-07 -1.85872e-07 0)
(5.77751e-07 -1.82993e-07 0)
(6.10356e-07 -1.80663e-07 0)
(6.42463e-07 -1.78771e-07 0)
(6.74115e-07 -1.77215e-07 0)
(7.05373e-07 -1.75915e-07 0)
(7.36285e-07 -1.74798e-07 0)
(7.66872e-07 -1.73788e-07 0)
(7.97203e-07 -1.72817e-07 0)
(8.27312e-07 -1.71838e-07 0)
(8.57173e-07 -1.70803e-07 0)
(8.86905e-07 -1.69648e-07 0)
(9.1643e-07 -1.68361e-07 0)
(9.4586e-07 -1.66837e-07 0)
(9.75127e-07 -1.65011e-07 0)
(1.00434e-06 -1.62788e-07 0)
(4.00572e-07 -2.20292e-07 0)
(4.35044e-07 -2.14496e-07 0)
(4.69188e-07 -2.09556e-07 0)
(5.031e-07 -2.05201e-07 0)
(5.36619e-07 -2.01481e-07 0)
(5.69741e-07 -1.98344e-07 0)
(6.02424e-07 -1.95711e-07 0)
(6.34674e-07 -1.93502e-07 0)
(6.66516e-07 -1.91634e-07 0)
(6.97991e-07 -1.90039e-07 0)
(7.29128e-07 -1.8865e-07 0)
(7.59933e-07 -1.8739e-07 0)
(7.90477e-07 -1.86194e-07 0)
(8.20779e-07 -1.85016e-07 0)
(8.50823e-07 -1.838e-07 0)
(8.8072e-07 -1.82494e-07 0)
(9.1039e-07 -1.81068e-07 0)
(9.39943e-07 -1.79424e-07 0)
(9.6934e-07 -1.77515e-07 0)
(9.98672e-07 -1.75291e-07 0)
(3.94711e-07 -2.35184e-07 0)
(4.28753e-07 -2.29738e-07 0)
(4.6257e-07 -2.24966e-07 0)
(4.96206e-07 -2.20644e-07 0)
(5.29563e-07 -2.16843e-07 0)
(5.62595e-07 -2.13532e-07 0)
(5.95269e-07 -2.10674e-07 0)
(6.27579e-07 -2.08216e-07 0)
(6.59524e-07 -2.06088e-07 0)
(6.91132e-07 -2.04237e-07 0)
(7.22419e-07 -2.02604e-07 0)
(7.53376e-07 -2.01115e-07 0)
(7.84077e-07 -1.99708e-07 0)
(8.14524e-07 -1.98345e-07 0)
(8.44712e-07 -1.96956e-07 0)
(8.74735e-07 -1.95505e-07 0)
(9.04523e-07 -1.93953e-07 0)
(9.34185e-07 -1.92212e-07 0)
(9.63707e-07 -1.9027e-07 0)
(9.93125e-07 -1.88042e-07 0)
(3.8965e-07 -2.49751e-07 0)
(4.23339e-07 -2.4461e-07 0)
(4.56834e-07 -2.40019e-07 0)
(4.90206e-07 -2.35776e-07 0)
(5.23355e-07 -2.31954e-07 0)
(5.56247e-07 -2.28536e-07 0)
(5.88854e-07 -2.25517e-07 0)
(6.21152e-07 -2.22866e-07 0)
(6.53125e-07 -2.20521e-07 0)
(6.84792e-07 -2.18451e-07 0)
(7.16159e-07 -2.16602e-07 0)
(7.47212e-07 -2.14907e-07 0)
(7.78021e-07 -2.13305e-07 0)
(8.0857e-07 -2.11767e-07 0)
(8.38865e-07 -2.10219e-07 0)
(8.68986e-07 -2.08633e-07 0)
(8.98871e-07 -2.06978e-07 0)
(9.28639e-07 -2.05176e-07 0)
(9.58257e-07 -2.03228e-07 0)
(9.87748e-07 -2.0098e-07 0)
(3.85232e-07 -2.64053e-07 0)
(4.1861e-07 -2.59181e-07 0)
(4.5182e-07 -2.5477e-07 0)
(4.84937e-07 -2.50627e-07 0)
(5.17867e-07 -2.46818e-07 0)
(5.506e-07 -2.43338e-07 0)
(5.83104e-07 -2.40205e-07 0)
(6.15341e-07 -2.37405e-07 0)
(6.47286e-07 -2.34883e-07 0)
(6.78959e-07 -2.32627e-07 0)
(7.10356e-07 -2.30592e-07 0)
(7.41458e-07 -2.28716e-07 0)
(7.72334e-07 -2.26938e-07 0)
(8.0295e-07 -2.25242e-07 0)
(8.33321e-07 -2.23553e-07 0)
(8.63519e-07 -2.21855e-07 0)
(8.93489e-07 -2.20128e-07 0)
(9.2335e-07 -2.18298e-07 0)
(9.53026e-07 -2.16338e-07 0)
(9.82598e-07 -2.14106e-07 0)
(3.81348e-07 -2.78136e-07 0)
(4.14435e-07 -2.73513e-07 0)
(4.474e-07 -2.69268e-07 0)
(4.80272e-07 -2.65225e-07 0)
(5.12998e-07 -2.61446e-07 0)
(5.45573e-07 -2.57934e-07 0)
(5.77953e-07 -2.54723e-07 0)
(6.10101e-07 -2.51812e-07 0)
(6.41986e-07 -2.4915e-07 0)
(6.7363e-07 -2.46742e-07 0)
(7.05021e-07 -2.44549e-07 0)
(7.36137e-07 -2.42514e-07 0)
(7.67042e-07 -2.40583e-07 0)
(7.97695e-07 -2.38747e-07 0)
(8.28115e-07 -2.3694e-07 0)
(8.58372e-07 -2.35158e-07 0)
(8.8841e-07 -2.33387e-07 0)
(9.18326e-07 -2.3154e-07 0)
(9.48047e-07 -2.29561e-07 0)
(9.7768e-07 -2.27415e-07 0)
(3.77903e-07 -2.92039e-07 0)
(4.10732e-07 -2.87647e-07 0)
(4.4347e-07 -2.83548e-07 0)
(4.76126e-07 -2.796e-07 0)
(5.08676e-07 -2.75865e-07 0)
(5.41096e-07 -2.72344e-07 0)
(5.73346e-07 -2.69083e-07 0)
(6.05389e-07 -2.66091e-07 0)
(6.37195e-07 -2.63324e-07 0)
(6.6879e-07 -2.60788e-07 0)
(7.00147e-07 -2.58456e-07 0)
(7.31249e-07 -2.56279e-07 0)
(7.62153e-07 -2.54211e-07 0)
(7.92823e-07 -2.52253e-07 0)
(8.23272e-07 -2.50351e-07 0)
(8.53571e-07 -2.48508e-07 0)
(8.83652e-07 -2.467e-07 0)
(9.13589e-07 -2.44831e-07 0)
(9.43361e-07 -2.42871e-07 0)
(9.73022e-07 -2.4082e-07 0)
(3.74835e-07 -3.05801e-07 0)
(4.0744e-07 -3.01605e-07 0)
(4.39971e-07 -2.97639e-07 0)
(4.7245e-07 -2.93787e-07 0)
(5.04841e-07 -2.90105e-07 0)
(5.37111e-07 -2.86589e-07 0)
(5.69227e-07 -2.83298e-07 0)
(6.01161e-07 -2.80241e-07 0)
(6.3288e-07 -2.77391e-07 0)
(6.64412e-07 -2.7474e-07 0)
(6.95722e-07 -2.72281e-07 0)
(7.26796e-07 -2.69975e-07 0)
(7.57689e-07 -2.67786e-07 0)
(7.88365e-07 -2.65731e-07 0)
(8.18835e-07 -2.6376e-07 0)
(8.49157e-07 -2.61871e-07 0)
(8.79251e-07 -2.6003e-07 0)
(9.09201e-07 -2.58146e-07 0)
(9.39006e-07 -2.56265e-07 0)
(9.68687e-07 -2.54279e-07 0)
(3.72135e-07 -3.19437e-07 0)
(4.04536e-07 -3.15408e-07 0)
(4.36891e-07 -3.11573e-07 0)
(4.69212e-07 -3.07816e-07 0)
(5.01446e-07 -3.04184e-07 0)
(5.33569e-07 -3.00676e-07 0)
(5.65559e-07 -2.97363e-07 0)
(5.97389e-07 -2.94248e-07 0)
(6.29028e-07 -2.9133e-07 0)
(6.60496e-07 -2.88584e-07 0)
(6.91759e-07 -2.86022e-07 0)
(7.22799e-07 -2.83612e-07 0)
(7.53673e-07 -2.81329e-07 0)
(7.84343e-07 -2.79199e-07 0)
(8.14813e-07 -2.77172e-07 0)
(8.45131e-07 -2.75238e-07 0)
(8.75211e-07 -2.73366e-07 0)
(9.05176e-07 -2.71501e-07 0)
(9.34967e-07 -2.697e-07 0)
(9.64665e-07 -2.67815e-07 0)
(3.69779e-07 -3.3296e-07 0)
(4.02004e-07 -3.29097e-07 0)
(4.34206e-07 -3.25382e-07 0)
(4.66365e-07 -3.21702e-07 0)
(4.98446e-07 -3.1811e-07 0)
(5.30438e-07 -3.14612e-07 0)
(5.62323e-07 -3.11295e-07 0)
(5.9406e-07 -3.08143e-07 0)
(6.25624e-07 -3.05171e-07 0)
(6.57021e-07 -3.02347e-07 0)
(6.88227e-07 -2.9969e-07 0)
(7.1923e-07 -2.97183e-07 0)
(7.50081e-07 -2.94813e-07 0)
(7.80739e-07 -2.92612e-07 0)
(8.11191e-07 -2.90523e-07 0)
(8.41484e-07 -2.88538e-07 0)
(8.71544e-07 -2.86648e-07 0)
(9.01505e-07 -2.84837e-07 0)
(9.31281e-07 -2.83073e-07 0)
(9.60973e-07 -2.81341e-07 0)
(3.67727e-07 -3.46409e-07 0)
(3.998e-07 -3.42704e-07 0)
(4.31845e-07 -3.39077e-07 0)
(4.63847e-07 -3.35457e-07 0)
(4.95799e-07 -3.31904e-07 0)
(5.27678e-07 -3.28433e-07 0)
(5.59472e-07 -3.25113e-07 0)
(5.91118e-07 -3.21933e-07 0)
(6.22613e-07 -3.18888e-07 0)
(6.53953e-07 -3.15984e-07 0)
(6.85118e-07 -3.13254e-07 0)
(7.16095e-07 -3.10678e-07 0)
(7.46932e-07 -3.08242e-07 0)
(7.7757e-07 -3.05975e-07 0)
(8.07989e-07 -3.03823e-07 0)
(8.38249e-07 -3.01795e-07 0)
(8.68304e-07 -2.99909e-07 0)
(8.98236e-07 -2.98144e-07 0)
(9.2801e-07 -2.96443e-07 0)
(9.57678e-07 -2.94839e-07 0)
(3.65919e-07 -3.59826e-07 0)
(3.97843e-07 -3.56221e-07 0)
(4.2974e-07 -3.5266e-07 0)
(4.61614e-07 -3.49102e-07 0)
(4.93464e-07 -3.45589e-07 0)
(5.25253e-07 -3.42147e-07 0)
(5.56968e-07 -3.38809e-07 0)
(5.88545e-07 -3.3561e-07 0)
(6.1997e-07 -3.32519e-07 0)
(6.51261e-07 -3.2955e-07 0)
(6.824e-07 -3.26753e-07 0)
(7.13361e-07 -3.2411e-07 0)
(7.44172e-07 -3.216e-07 0)
(7.74773e-07 -3.19255e-07 0)
(8.05158e-07 -3.17038e-07 0)
(8.35406e-07 -3.14987e-07 0)
(8.65457e-07 -3.13121e-07 0)
(8.95357e-07 -3.11347e-07 0)
(9.25095e-07 -3.09741e-07 0)
(9.54741e-07 -3.08284e-07 0)
(3.64288e-07 -3.73188e-07 0)
(3.96082e-07 -3.69675e-07 0)
(4.27858e-07 -3.66172e-07 0)
(4.59637e-07 -3.62674e-07 0)
(4.91403e-07 -3.59187e-07 0)
(5.23124e-07 -3.55752e-07 0)
(5.54759e-07 -3.52408e-07 0)
(5.86271e-07 -3.49175e-07 0)
(6.17652e-07 -3.46039e-07 0)
(6.48923e-07 -3.43023e-07 0)
(6.80051e-07 -3.40171e-07 0)
(7.10991e-07 -3.37453e-07 0)
(7.4177e-07 -3.34856e-07 0)
(7.72343e-07 -3.32441e-07 0)
(8.02728e-07 -3.30191e-07 0)
(8.32999e-07 -3.28115e-07 0)
(8.63024e-07 -3.26211e-07 0)
(8.92888e-07 -3.24442e-07 0)
(9.22569e-07 -3.22943e-07 0)
(9.52253e-07 -3.21636e-07 0)
(3.62824e-07 -3.86503e-07 0)
(3.94495e-07 -3.83099e-07 0)
(4.26188e-07 -3.79636e-07 0)
(4.57899e-07 -3.76168e-07 0)
(4.89596e-07 -3.72727e-07 0)
(5.21243e-07 -3.6929e-07 0)
(5.52816e-07 -3.65923e-07 0)
(5.84288e-07 -3.62665e-07 0)
(6.15654e-07 -3.595e-07 0)
(6.46922e-07 -3.56434e-07 0)
(6.78028e-07 -3.53508e-07 0)
(7.0893e-07 -3.50718e-07 0)
(7.39701e-07 -3.48065e-07 0)
(7.70317e-07 -3.45587e-07 0)
(8.00737e-07 -3.4327e-07 0)
(8.30964e-07 -3.41157e-07 0)
(8.6094e-07 -3.3921e-07 0)
(8.90867e-07 -3.37475e-07 0)
(9.20578e-07 -3.36046e-07 0)
(9.50146e-07 -3.34903e-07 0)
(3.61476e-07 -3.99861e-07 0)
(3.93049e-07 -3.96501e-07 0)
(4.24695e-07 -3.93068e-07 0)
(4.56352e-07 -3.89629e-07 0)
(4.87974e-07 -3.86177e-07 0)
(5.19551e-07 -3.82744e-07 0)
(5.51097e-07 -3.79368e-07 0)
(5.82576e-07 -3.76074e-07 0)
(6.13934e-07 -3.72857e-07 0)
(6.45158e-07 -3.69737e-07 0)
(6.76242e-07 -3.66756e-07 0)
(7.07198e-07 -3.63894e-07 0)
(7.38028e-07 -3.61166e-07 0)
(7.68624e-07 -3.58642e-07 0)
(7.99031e-07 -3.56259e-07 0)
(8.29339e-07 -3.54053e-07 0)
(8.59399e-07 -3.52091e-07 0)
(8.89299e-07 -3.50368e-07 0)
(9.19052e-07 -3.48956e-07 0)
(9.48614e-07 -3.47964e-07 0)
(3.60251e-07 -4.13178e-07 0)
(3.91767e-07 -4.09894e-07 0)
(4.23354e-07 -4.06497e-07 0)
(4.54936e-07 -4.0306e-07 0)
(4.86514e-07 -3.99602e-07 0)
(5.18094e-07 -3.9615e-07 0)
(5.49638e-07 -3.92754e-07 0)
(5.81074e-07 -3.89437e-07 0)
(6.12406e-07 -3.86171e-07 0)
(6.4368e-07 -3.82978e-07 0)
(6.74828e-07 -3.79945e-07 0)
(7.05777e-07 -3.77049e-07 0)
(7.36618e-07 -3.74239e-07 0)
(7.67312e-07 -3.71621e-07 0)
(7.97776e-07 -3.69202e-07 0)
(8.28118e-07 -3.66931e-07 0)
(8.58299e-07 -3.64939e-07 0)
(8.88264e-07 -3.6314e-07 0)
(9.18114e-07 -3.61715e-07 0)
(9.47674e-07 -3.60753e-07 0)
(2.12301e-08 -2.59927e-07 0)
(6.3771e-08 -2.56747e-07 0)
(1.06439e-07 -2.50372e-07 0)
(1.49342e-07 -2.41253e-07 0)
(1.92455e-07 -2.29627e-07 0)
(2.35747e-07 -2.16002e-07 0)
(2.79173e-07 -2.00891e-07 0)
(3.22612e-07 -1.84721e-07 0)
(3.66441e-07 -1.67871e-07 0)
(4.09797e-07 -1.50419e-07 0)
(2.0977e-08 -2.68033e-07 0)
(6.29999e-08 -2.65144e-07 0)
(1.05049e-07 -2.59314e-07 0)
(1.47206e-07 -2.50991e-07 0)
(1.89413e-07 -2.40334e-07 0)
(2.31577e-07 -2.27776e-07 0)
(2.73649e-07 -2.13751e-07 0)
(3.15364e-07 -1.98682e-07 0)
(3.56973e-07 -1.82871e-07 0)
(3.9726e-07 -1.67243e-07 0)
(2.06529e-08 -2.76368e-07 0)
(6.20194e-08 -2.7375e-07 0)
(1.03355e-07 -2.68401e-07 0)
(1.44675e-07 -2.60758e-07 0)
(1.85954e-07 -2.50963e-07 0)
(2.27043e-07 -2.39378e-07 0)
(2.67903e-07 -2.26393e-07 0)
(3.08311e-07 -2.12402e-07 0)
(3.48425e-07 -1.97663e-07 0)
(3.8727e-07 -1.83365e-07 0)
(2.03421e-08 -2.84861e-07 0)
(6.10648e-08 -2.82448e-07 0)
(1.0177e-07 -2.77497e-07 0)
(1.42364e-07 -2.70426e-07 0)
(1.82865e-07 -2.6136e-07 0)
(2.23092e-07 -2.50595e-07 0)
(2.63002e-07 -2.38537e-07 0)
(3.02385e-07 -2.25559e-07 0)
(3.41272e-07 -2.11937e-07 0)
(3.78954e-07 -1.98853e-07 0)
(2.00703e-08 -2.93501e-07 0)
(6.01599e-08 -2.91289e-07 0)
(1.00256e-07 -2.86707e-07 0)
(1.40183e-07 -2.80153e-07 0)
(1.79973e-07 -2.71745e-07 0)
(2.19448e-07 -2.61772e-07 0)
(2.58551e-07 -2.50609e-07 0)
(2.97117e-07 -2.38567e-07 0)
(3.35063e-07 -2.25956e-07 0)
(3.71872e-07 -2.13868e-07 0)
(1.98005e-08 -3.02284e-07 0)
(5.9323e-08 -3.00232e-07 0)
(9.88333e-08 -2.95986e-07 0)
(1.38167e-07 -2.89912e-07 0)
(1.77323e-07 -2.82109e-07 0)
(2.16178e-07 -2.72863e-07 0)
(2.5459e-07 -2.62517e-07 0)
(2.92455e-07 -2.51348e-07 0)
(3.29639e-07 -2.39677e-07 0)
(3.65734e-07 -2.28498e-07 0)
(1.95243e-08 -3.11197e-07 0)
(5.85331e-08 -3.09289e-07 0)
(9.74914e-08 -3.05369e-07 0)
(1.36296e-07 -2.99722e-07 0)
(1.74875e-07 -2.92483e-07 0)
(2.13175e-07 -2.83911e-07 0)
(2.51023e-07 -2.74324e-07 0)
(2.88303e-07 -2.63975e-07 0)
(3.24873e-07 -2.53171e-07 0)
(3.60402e-07 -2.42807e-07 0)
(1.92899e-08 -3.20222e-07 0)
(5.77976e-08 -3.18451e-07 0)
(9.62388e-08 -3.14837e-07 0)
(1.34562e-07 -3.09585e-07 0)
(1.7264e-07 -3.02879e-07 0)
(2.1043e-07 -2.94935e-07 0)
(2.47787e-07 -2.86063e-07 0)
(2.84584e-07 -2.76483e-07 0)
(3.20665e-07 -2.66481e-07 0)
(3.55756e-07 -2.56855e-07 0)
(1.90881e-08 -3.2936e-07 0)
(5.71119e-08 -3.27716e-07 0)
(9.50867e-08 -3.2438e-07 0)
(1.32957e-07 -3.1951e-07 0)
(1.70585e-07 -3.1332e-07 0)
(2.07942e-07 -3.05959e-07 0)
(2.44857e-07 -2.97754e-07 0)
(2.81236e-07 -2.88896e-07 0)
(3.16918e-07 -2.79641e-07 0)
(3.51673e-07 -2.70696e-07 0)
(1.88731e-08 -3.38625e-07 0)
(5.64645e-08 -3.37086e-07 0)
(9.4024e-08 -3.34009e-07 0)
(1.31484e-07 -3.29508e-07 0)
(1.68689e-07 -3.23804e-07 0)
(2.05665e-07 -3.16993e-07 0)
(2.42194e-07 -3.09407e-07 0)
(2.78206e-07 -3.01227e-07 0)
(3.13557e-07 -2.92674e-07 0)
(3.48044e-07 -2.84369e-07 0)
(1.86485e-08 -3.48003e-07 0)
(5.58755e-08 -3.46558e-07 0)
(9.30456e-08 -3.43732e-07 0)
(1.30131e-07 -3.39582e-07 0)
(1.66946e-07 -3.34327e-07 0)
(2.03567e-07 -3.28037e-07 0)
(2.39759e-07 -3.21034e-07 0)
(2.75457e-07 -3.13494e-07 0)
(3.1053e-07 -3.05599e-07 0)
(3.44796e-07 -2.97894e-07 0)
(1.84505e-08 -3.57483e-07 0)
(5.53579e-08 -3.56138e-07 0)
(9.21511e-08 -3.53554e-07 0)
(1.28884e-07 -3.49731e-07 0)
(1.65355e-07 -3.44891e-07 0)
(2.01637e-07 -3.39098e-07 0)
(2.37533e-07 -3.32649e-07 0)
(2.72961e-07 -3.2571e-07 0)
(3.07799e-07 -3.18424e-07 0)
(3.41901e-07 -3.11281e-07 0)
(1.82893e-08 -3.67071e-07 0)
(5.48853e-08 -3.65833e-07 0)
(9.13228e-08 -3.63472e-07 0)
(1.27722e-07 -3.59955e-07 0)
(1.6389e-07 -3.55502e-07 0)
(1.99859e-07 -3.50183e-07 0)
(2.35489e-07 -3.44259e-07 0)
(2.70685e-07 -3.37875e-07 0)
(3.05341e-07 -3.31161e-07 0)
(3.39352e-07 -3.24562e-07 0)
(1.81401e-08 -3.76785e-07 0)
(5.44141e-08 -3.7565e-07 0)
(9.05303e-08 -3.73487e-07 0)
(1.26616e-07 -3.70257e-07 0)
(1.6251e-07 -3.6617e-07 0)
(1.98203e-07 -3.61298e-07 0)
(2.33596e-07 -3.55867e-07 0)
(2.68601e-07 -3.50005e-07 0)
(3.03138e-07 -3.43855e-07 0)
(3.37109e-07 -3.37784e-07 0)
(1.79798e-08 -3.86631e-07 0)
(5.39277e-08 -3.85588e-07 0)
(8.97602e-08 -3.83603e-07 0)
(1.25555e-07 -3.80647e-07 0)
(1.61193e-07 -3.76912e-07 0)
(1.96639e-07 -3.72465e-07 0)
(2.31825e-07 -3.67489e-07 0)
(2.66689e-07 -3.62122e-07 0)
(3.01149e-07 -3.56523e-07 0)
(3.35113e-07 -3.50944e-07 0)
(1.78117e-08 -3.96605e-07 0)
(5.34481e-08 -3.95649e-07 0)
(8.90211e-08 -3.93834e-07 0)
(1.24537e-07 -3.91143e-07 0)
(1.59924e-07 -3.87725e-07 0)
(1.95147e-07 -3.83659e-07 0)
(2.30164e-07 -3.79119e-07 0)
(2.64938e-07 -3.7425e-07 0)
(2.99345e-07 -3.69172e-07 0)
(3.3334e-07 -3.64071e-07 0)
(1.7654e-08 -4.06701e-07 0)
(5.29973e-08 -4.05838e-07 0)
(8.83083e-08 -4.04179e-07 0)
(1.23551e-07 -4.01727e-07 0)
(1.587e-07 -3.98619e-07 0)
(1.93727e-07 -3.94919e-07 0)
(2.28611e-07 -3.90805e-07 0)
(2.63305e-07 -3.86425e-07 0)
(2.97684e-07 -3.81815e-07 0)
(3.31717e-07 -3.77187e-07 0)
(1.75113e-08 -4.16925e-07 0)
(5.25648e-08 -4.16148e-07 0)
(8.76008e-08 -4.14634e-07 0)
(1.22577e-07 -4.12408e-07 0)
(1.57503e-07 -4.09577e-07 0)
(1.92362e-07 -4.06225e-07 0)
(2.27135e-07 -4.02522e-07 0)
(2.61746e-07 -3.9859e-07 0)
(2.96127e-07 -3.94451e-07 0)
(3.30227e-07 -3.90261e-07 0)
(1.73744e-08 -4.27263e-07 0)
(5.21283e-08 -4.26571e-07 0)
(8.68787e-08 -4.25196e-07 0)
(1.21607e-07 -4.23176e-07 0)
(1.56324e-07 -4.20621e-07 0)
(1.91035e-07 -4.17615e-07 0)
(2.25707e-07 -4.14312e-07 0)
(2.60269e-07 -4.10789e-07 0)
(2.9464e-07 -4.07123e-07 0)
(3.28838e-07 -4.03366e-07 0)
(1.7233e-08 -4.37732e-07 0)
(5.16861e-08 -4.37103e-07 0)
(8.61455e-08 -4.35867e-07 0)
(1.20637e-07 -4.34047e-07 0)
(1.55182e-07 -4.31748e-07 0)
(1.89774e-07 -4.29071e-07 0)
(2.24348e-07 -4.26136e-07 0)
(2.58892e-07 -4.23009e-07 0)
(2.93284e-07 -4.19781e-07 0)
(3.27642e-07 -4.1644e-07 0)
)


// ************************************************************************* //
