/*--------------------------------*- C++ -*----------------------------------*\
| =========                 |                                                 |
| \\      /  F ield         | foam-extend: Open Source CFD                    |
|  \\    /   O peration     | Version:     4.1                                |
|   \\  /    A nd           | Web:         http://www.foam-extend.org         |
|    \\/     M anipulation  |                                                 |
\*---------------------------------------------------------------------------*/
FoamFile
{
    version     2.0;
    format      ascii;
    class       vectorField;
    location    "1";
    object      solidsCellD_iteration12;
}
// * * * * * * * * * * * * * * * * * * * * * * * * * * * * * * * * * * * * * //


1000
(
(4.41533e-07 -1.347e-07 0)
(4.21872e-07 -1.28139e-07 0)
(4.10394e-07 -1.25192e-07 0)
(4.04773e-07 -1.25432e-07 0)
(4.03369e-07 -1.27668e-07 0)
(4.05086e-07 -1.3137e-07 0)
(4.09131e-07 -1.36093e-07 0)
(4.14767e-07 -1.4167e-07 0)
(4.2201e-07 -1.47696e-07 0)
(4.29254e-07 -1.54026e-07 0)
(3.99949e-07 -1.47426e-07 0)
(3.79077e-07 -1.44163e-07 0)
(3.66706e-07 -1.43356e-07 0)
(3.60356e-07 -1.45093e-07 0)
(3.58212e-07 -1.48371e-07 0)
(3.59178e-07 -1.52808e-07 0)
(3.62445e-07 -1.58021e-07 0)
(3.67299e-07 -1.63991e-07 0)
(3.73622e-07 -1.70183e-07 0)
(3.80147e-07 -1.76977e-07 0)
(3.56532e-07 -1.59431e-07 0)
(3.35204e-07 -1.59838e-07 0)
(3.22394e-07 -1.61414e-07 0)
(3.15645e-07 -1.64724e-07 0)
(3.13085e-07 -1.69046e-07 0)
(3.13546e-07 -1.74179e-07 0)
(3.16255e-07 -1.79871e-07 0)
(3.20564e-07 -1.86132e-07 0)
(3.26275e-07 -1.92487e-07 0)
(3.32401e-07 -1.99303e-07 0)
(3.11542e-07 -1.70526e-07 0)
(2.90768e-07 -1.74733e-07 0)
(2.78145e-07 -1.7876e-07 0)
(2.71324e-07 -1.83658e-07 0)
(2.68567e-07 -1.89025e-07 0)
(2.687e-07 -1.94831e-07 0)
(2.70904e-07 -2.00957e-07 0)
(2.74716e-07 -2.07466e-07 0)
(2.79824e-07 -2.13988e-07 0)
(2.85498e-07 -2.20887e-07 0)
(2.65489e-07 -1.80472e-07 0)
(2.46025e-07 -1.88416e-07 0)
(2.34127e-07 -1.94828e-07 0)
(2.2766e-07 -2.01273e-07 0)
(2.24931e-07 -2.07643e-07 0)
(2.24804e-07 -2.14121e-07 0)
(2.26588e-07 -2.20676e-07 0)
(2.29892e-07 -2.27436e-07 0)
(2.34402e-07 -2.34162e-07 0)
(2.39471e-07 -2.41161e-07 0)
(2.18335e-07 -1.89127e-07 0)
(2.01153e-07 -2.00528e-07 0)
(1.9062e-07 -2.0917e-07 0)
(1.84785e-07 -2.17083e-07 0)
(1.82219e-07 -2.24394e-07 0)
(1.81927e-07 -2.31482e-07 0)
(1.83386e-07 -2.38426e-07 0)
(1.86183e-07 -2.45418e-07 0)
(1.9001e-07 -2.52353e-07 0)
(1.94322e-07 -2.59476e-07 0)
(1.70554e-07 -1.96236e-07 0)
(1.5631e-07 -2.10677e-07 0)
(1.47554e-07 -2.2129e-07 0)
(1.42647e-07 -2.30499e-07 0)
(1.40455e-07 -2.38624e-07 0)
(1.40154e-07 -2.4624e-07 0)
(1.41305e-07 -2.53525e-07 0)
(1.43529e-07 -2.60737e-07 0)
(1.46569e-07 -2.67871e-07 0)
(1.50008e-07 -2.75106e-07 0)
(1.22224e-07 -2.01727e-07 0)
(1.1151e-07 -2.18622e-07 0)
(1.04946e-07 -2.30777e-07 0)
(1.0128e-07 -2.40972e-07 0)
(9.96401e-08 -2.4977e-07 0)
(9.93896e-08 -2.57833e-07 0)
(1.00192e-07 -2.65432e-07 0)
(1.01779e-07 -2.72826e-07 0)
(1.03976e-07 -2.80122e-07 0)
(1.06477e-07 -2.87452e-07 0)
(7.34793e-08 -2.05458e-07 0)
(6.68511e-08 -2.24034e-07 0)
(6.28316e-08 -2.37251e-07 0)
(6.0545e-08 -2.48193e-07 0)
(5.948e-08 -2.57465e-07 0)
(5.92862e-08 -2.65807e-07 0)
(5.9789e-08 -2.73626e-07 0)
(6.07822e-08 -2.81192e-07 0)
(6.21076e-08 -2.88623e-07 0)
(6.36149e-08 -2.96024e-07 0)
(2.45435e-08 -2.07336e-07 0)
(2.23175e-08 -2.26799e-07 0)
(2.0904e-08 -2.4056e-07 0)
(2.01192e-08 -2.51854e-07 0)
(1.9804e-08 -2.61364e-07 0)
(1.97387e-08 -2.69884e-07 0)
(1.98604e-08 -2.77792e-07 0)
(2.01847e-08 -2.85409e-07 0)
(2.06488e-08 -2.9291e-07 0)
(2.11539e-08 -3.00366e-07 0)
(6.78843e-07 -6.0369e-09 0)
(6.83571e-07 -4.38683e-09 0)
(6.876e-07 -3.40716e-09 0)
(6.92471e-07 -2.89251e-09 0)
(6.98419e-07 -2.67866e-09 0)
(7.05576e-07 -2.69899e-09 0)
(7.14045e-07 -2.8763e-09 0)
(7.23679e-07 -3.09473e-09 0)
(7.34555e-07 -3.43494e-09 0)
(7.46482e-07 -3.84764e-09 0)
(6.74044e-07 -1.8178e-08 0)
(6.7799e-07 -1.33193e-08 0)
(6.81537e-07 -1.0389e-08 0)
(6.86042e-07 -8.93388e-09 0)
(6.91732e-07 -8.40346e-09 0)
(6.98681e-07 -8.38865e-09 0)
(7.0704e-07 -8.87668e-09 0)
(7.16589e-07 -9.68198e-09 0)
(7.2734e-07 -1.07186e-08 0)
(7.39198e-07 -1.18442e-08 0)
(6.64511e-07 -3.03713e-08 0)
(6.66899e-07 -2.26454e-08 0)
(6.69484e-07 -1.79995e-08 0)
(6.73343e-07 -1.55704e-08 0)
(6.78601e-07 -1.47163e-08 0)
(6.85273e-07 -1.48409e-08 0)
(6.93348e-07 -1.57058e-08 0)
(7.02741e-07 -1.70151e-08 0)
(7.13268e-07 -1.86845e-08 0)
(7.2498e-07 -2.05521e-08 0)
(6.50359e-07 -4.27938e-08 0)
(6.50532e-07 -3.25799e-08 0)
(6.51696e-07 -2.65586e-08 0)
(6.5465e-07 -2.34559e-08 0)
(6.59264e-07 -2.23649e-08 0)
(6.65537e-07 -2.25671e-08 0)
(6.73271e-07 -2.37372e-08 0)
(6.82444e-07 -2.55486e-08 0)
(6.92685e-07 -2.78479e-08 0)
(7.04219e-07 -3.04414e-08 0)
(6.31723e-07 -5.54319e-08 0)
(6.29224e-07 -4.33349e-08 0)
(6.2863e-07 -3.62773e-08 0)
(6.30431e-07 -3.27382e-08 0)
(6.34272e-07 -3.15604e-08 0)
(6.40016e-07 -3.1926e-08 0)
(6.47325e-07 -3.34394e-08 0)
(6.56184e-07 -3.57408e-08 0)
(6.66101e-07 -3.86188e-08 0)
(6.7746e-07 -4.18551e-08 0)
(6.08803e-07 -6.83463e-08 0)
(6.03264e-07 -5.51008e-08 0)
(6.00752e-07 -4.74339e-08 0)
(6.01286e-07 -4.37226e-08 0)
(6.04246e-07 -4.26422e-08 0)
(6.09373e-07 -4.32664e-08 0)
(6.16244e-07 -4.51468e-08 0)
(6.24754e-07 -4.78796e-08 0)
(6.34325e-07 -5.12859e-08 0)
(6.45472e-07 -5.50935e-08 0)
(5.81979e-07 -8.15144e-08 0)
(5.73173e-07 -6.79502e-08 0)
(5.68588e-07 -6.01834e-08 0)
(5.6779e-07 -5.66048e-08 0)
(5.69832e-07 -5.57733e-08 0)
(5.74333e-07 -5.67432e-08 0)
(5.8075e-07 -5.90066e-08 0)
(5.88898e-07 -6.21068e-08 0)
(5.9812e-07 -6.59626e-08 0)
(6.09058e-07 -7.02244e-08 0)
(5.5146e-07 -9.48303e-08 0)
(5.39442e-07 -8.1847e-08 0)
(5.32833e-07 -7.45238e-08 0)
(5.30693e-07 -7.14157e-08 0)
(5.31868e-07 -7.10222e-08 0)
(5.35743e-07 -7.24547e-08 0)
(5.41692e-07 -7.51567e-08 0)
(5.49468e-07 -7.86307e-08 0)
(5.58368e-07 -8.28917e-08 0)
(5.69025e-07 -8.74843e-08 0)
(5.17635e-07 -1.08236e-07 0)
(5.02628e-07 -9.6645e-08 0)
(4.94116e-07 -9.03414e-08 0)
(4.90676e-07 -8.80367e-08 0)
(4.90979e-07 -8.82951e-08 0)
(4.94148e-07 -9.02906e-08 0)
(4.99552e-07 -9.34773e-08 0)
(5.06867e-07 -9.73279e-08 0)
(5.15451e-07 -1.01916e-07 0)
(5.25739e-07 -1.06562e-07 0)
(4.80884e-07 -1.216e-07 0)
(4.6333e-07 -1.12166e-07 0)
(4.53154e-07 -1.07339e-07 0)
(4.48553e-07 -1.06188e-07 0)
(4.48015e-07 -1.07339e-07 0)
(4.50564e-07 -1.10064e-07 0)
(4.55569e-07 -1.13915e-07 0)
(4.6245e-07 -1.184e-07 0)
(4.70914e-07 -1.23512e-07 0)
(4.80411e-07 -1.28691e-07 0)
(7.59415e-07 -4.19325e-09 0)
(7.7341e-07 -4.37482e-09 0)
(7.88194e-07 -4.52823e-09 0)
(8.037e-07 -4.66113e-09 0)
(8.19858e-07 -4.77742e-09 0)
(8.36651e-07 -4.87168e-09 0)
(8.53988e-07 -4.92327e-09 0)
(8.71792e-07 -4.96554e-09 0)
(8.90075e-07 -5.02333e-09 0)
(9.08818e-07 -5.06721e-09 0)
(9.27951e-07 -5.07883e-09 0)
(9.47433e-07 -5.06066e-09 0)
(9.67234e-07 -5.01871e-09 0)
(9.87323e-07 -4.96377e-09 0)
(1.00767e-06 -4.89891e-09 0)
(1.02826e-06 -4.81168e-09 0)
(1.04906e-06 -4.68746e-09 0)
(1.07003e-06 -4.51836e-09 0)
(1.09113e-06 -4.30915e-09 0)
(1.11233e-06 -4.06383e-09 0)
(7.52423e-07 -1.28164e-08 0)
(7.66968e-07 -1.33336e-08 0)
(7.82245e-07 -1.37741e-08 0)
(7.98213e-07 -1.41424e-08 0)
(8.14792e-07 -1.44205e-08 0)
(8.31931e-07 -1.46582e-08 0)
(8.49596e-07 -1.48628e-08 0)
(8.67741e-07 -1.50465e-08 0)
(8.86344e-07 -1.51934e-08 0)
(9.05353e-07 -1.52567e-08 0)
(9.24722e-07 -1.5252e-08 0)
(9.44441e-07 -1.5208e-08 0)
(9.64485e-07 -1.51203e-08 0)
(9.84814e-07 -1.49748e-08 0)
(1.00539e-06 -1.47584e-08 0)
(1.0262e-06 -1.44584e-08 0)
(1.0472e-06 -1.40612e-08 0)
(1.06835e-06 -1.3557e-08 0)
(1.08964e-06 -1.29461e-08 0)
(1.11097e-06 -1.22243e-08 0)
(7.38775e-07 -2.21216e-08 0)
(7.54442e-07 -2.28664e-08 0)
(7.70709e-07 -2.34696e-08 0)
(7.87498e-07 -2.39954e-08 0)
(8.04846e-07 -2.44219e-08 0)
(8.22729e-07 -2.48008e-08 0)
(8.41089e-07 -2.5114e-08 0)
(8.59838e-07 -2.53614e-08 0)
(8.78989e-07 -2.55334e-08 0)
(8.98504e-07 -2.56037e-08 0)
(9.18362e-07 -2.56058e-08 0)
(9.38549e-07 -2.55554e-08 0)
(9.59021e-07 -2.54182e-08 0)
(9.79737e-07 -2.51641e-08 0)
(1.00068e-06 -2.47846e-08 0)
(1.02185e-06 -2.42732e-08 0)
(1.04321e-06 -2.36108e-08 0)
(1.06474e-06 -2.27832e-08 0)
(1.0864e-06 -2.17832e-08 0)
(1.10813e-06 -2.05924e-08 0)
(7.18816e-07 -3.24596e-08 0)
(7.36017e-07 -3.32379e-08 0)
(7.53703e-07 -3.38469e-08 0)
(7.71778e-07 -3.4415e-08 0)
(7.90312e-07 -3.4905e-08 0)
(8.09241e-07 -3.53567e-08 0)
(8.2856e-07 -3.57164e-08 0)
(8.48201e-07 -3.59972e-08 0)
(8.68215e-07 -3.61854e-08 0)
(8.88545e-07 -3.62601e-08 0)
(9.09157e-07 -3.62464e-08 0)
(9.30031e-07 -3.61416e-08 0)
(9.51137e-07 -3.59056e-08 0)
(9.72455e-07 -3.55181e-08 0)
(9.93978e-07 -3.49847e-08 0)
(1.0157e-06 -3.42808e-08 0)
(1.03759e-06 -3.33828e-08 0)
(1.05965e-06 -3.22588e-08 0)
(1.08179e-06 -3.08874e-08 0)
(1.10402e-06 -2.92744e-08 0)
(6.93122e-07 -4.41077e-08 0)
(7.1233e-07 -4.46874e-08 0)
(7.31845e-07 -4.51527e-08 0)
(7.51507e-07 -4.56597e-08 0)
(7.71517e-07 -4.61018e-08 0)
(7.9179e-07 -4.65285e-08 0)
(8.12367e-07 -4.68549e-08 0)
(8.33186e-07 -4.71205e-08 0)
(8.54268e-07 -4.72778e-08 0)
(8.75581e-07 -4.73045e-08 0)
(8.97128e-07 -4.72331e-08 0)
(9.18902e-07 -4.70531e-08 0)
(9.4087e-07 -4.67147e-08 0)
(9.63009e-07 -4.61949e-08 0)
(9.85324e-07 -4.54991e-08 0)
(1.00778e-06 -4.45933e-08 0)
(1.03039e-06 -4.34559e-08 0)
(1.05311e-06 -4.20514e-08 0)
(1.07593e-06 -4.03328e-08 0)
(1.09881e-06 -3.83427e-08 0)
(6.62329e-07 -5.73503e-08 0)
(6.83819e-07 -5.74409e-08 0)
(7.05521e-07 -5.75196e-08 0)
(7.27144e-07 -5.77976e-08 0)
(7.48977e-07 -5.8066e-08 0)
(7.70918e-07 -5.83753e-08 0)
(7.92954e-07 -5.8582e-08 0)
(8.15164e-07 -5.87345e-08 0)
(8.37543e-07 -5.88011e-08 0)
(8.6008e-07 -5.8755e-08 0)
(8.82786e-07 -5.86135e-08 0)
(9.05651e-07 -5.83458e-08 0)
(9.28645e-07 -5.78905e-08 0)
(9.51747e-07 -5.72272e-08 0)
(9.74981e-07 -5.63545e-08 0)
(9.98314e-07 -5.52473e-08 0)
(1.02179e-06 -5.3875e-08 0)
(1.04532e-06 -5.22149e-08 0)
(1.06898e-06 -5.01976e-08 0)
(1.09267e-06 -4.78588e-08 0)
(6.27316e-07 -7.2257e-08 0)
(6.51375e-07 -7.15897e-08 0)
(6.75531e-07 -7.10651e-08 0)
(6.99345e-07 -7.09249e-08 0)
(7.23155e-07 -7.0854e-08 0)
(7.4694e-07 -7.08848e-08 0)
(7.70669e-07 -7.08989e-08 0)
(7.9445e-07 -7.08885e-08 0)
(8.18311e-07 -7.08267e-08 0)
(8.42264e-07 -7.06813e-08 0)
(8.66308e-07 -7.04377e-08 0)
(8.90422e-07 -7.00455e-08 0)
(9.1459e-07 -6.94428e-08 0)
(9.38816e-07 -6.862e-08 0)
(9.63126e-07 -6.75714e-08 0)
(9.87505e-07 -6.62799e-08 0)
(1.012e-06 -6.46992e-08 0)
(1.03652e-06 -6.28034e-08 0)
(1.06112e-06 -6.05142e-08 0)
(1.08574e-06 -5.78511e-08 0)
(5.88744e-07 -8.89766e-08 0)
(6.15493e-07 -8.7156e-08 0)
(6.42287e-07 -8.57544e-08 0)
(6.68494e-07 -8.4966e-08 0)
(6.94548e-07 -8.44219e-08 0)
(7.20335e-07 -8.40669e-08 0)
(7.46001e-07 -8.37992e-08 0)
(7.71567e-07 -8.35688e-08 0)
(7.97085e-07 -8.33306e-08 0)
(8.22585e-07 -8.30377e-08 0)
(8.48076e-07 -8.26478e-08 0)
(8.7355e-07 -8.21013e-08 0)
(8.99013e-07 -8.13439e-08 0)
(9.24501e-07 -8.03691e-08 0)
(9.50034e-07 -7.9165e-08 0)
(9.75608e-07 -7.77093e-08 0)
(1.00124e-06 -7.5942e-08 0)
(1.02687e-06 -7.38276e-08 0)
(1.05255e-06 -7.12749e-08 0)
(1.0782e-06 -6.82983e-08 0)
(5.47303e-07 -1.07409e-07 0)
(5.76896e-07 -1.0422e-07 0)
(6.06492e-07 -1.01796e-07 0)
(6.35242e-07 -1.00141e-07 0)
(6.63675e-07 -9.89181e-08 0)
(6.91649e-07 -9.80275e-08 0)
(7.19352e-07 -9.73433e-08 0)
(7.46813e-07 -9.67846e-08 0)
(7.74108e-07 -9.62913e-08 0)
(8.0127e-07 -9.57894e-08 0)
(8.28316e-07 -9.52141e-08 0)
(8.55269e-07 -9.45014e-08 0)
(8.82158e-07 -9.36002e-08 0)
(9.09034e-07 -9.24947e-08 0)
(9.35908e-07 -9.11592e-08 0)
(9.62787e-07 -8.95562e-08 0)
(9.89669e-07 -8.76138e-08 0)
(1.01651e-06 -8.52865e-08 0)
(1.04338e-06 -8.24854e-08 0)
(1.07019e-06 -7.92131e-08 0)
(5.03974e-07 -1.27494e-07 0)
(5.37263e-07 -1.21921e-07 0)
(5.6998e-07 -1.18195e-07 0)
(6.0152e-07 -1.15551e-07 0)
(6.32328e-07 -1.13642e-07 0)
(6.62541e-07 -1.12209e-07 0)
(6.92262e-07 -1.11092e-07 0)
(7.21608e-07 -1.10187e-07 0)
(7.5067e-07 -1.09421e-07 0)
(7.79493e-07 -1.08697e-07 0)
(8.08107e-07 -1.07939e-07 0)
(8.36557e-07 -1.07078e-07 0)
(8.6489e-07 -1.06057e-07 0)
(8.93158e-07 -1.04847e-07 0)
(9.2137e-07 -1.03409e-07 0)
(9.49546e-07 -1.01689e-07 0)
(9.77695e-07 -9.96119e-08 0)
(1.00578e-06 -9.71013e-08 0)
(1.03387e-06 -9.40884e-08 0)
(1.06192e-06 -9.05363e-08 0)
(4.68623e-07 -1.50071e-07 0)
(5.05602e-07 -1.41605e-07 0)
(5.41002e-07 -1.3631e-07 0)
(5.75097e-07 -1.32323e-07 0)
(6.08028e-07 -1.29428e-07 0)
(6.40105e-07 -1.2722e-07 0)
(6.71463e-07 -1.2549e-07 0)
(7.02287e-07 -1.24097e-07 0)
(7.32683e-07 -1.22927e-07 0)
(7.62714e-07 -1.21858e-07 0)
(7.92444e-07 -1.20807e-07 0)
(8.21938e-07 -1.19703e-07 0)
(8.51255e-07 -1.18479e-07 0)
(8.80447e-07 -1.17089e-07 0)
(9.09515e-07 -1.15488e-07 0)
(9.385e-07 -1.13599e-07 0)
(9.67401e-07 -1.11369e-07 0)
(9.9624e-07 -1.08676e-07 0)
(1.02505e-06 -1.05471e-07 0)
(1.05381e-06 -1.01659e-07 0)
(4.50152e-07 -1.70161e-07 0)
(4.87679e-07 -1.61251e-07 0)
(5.23562e-07 -1.54886e-07 0)
(5.58478e-07 -1.49902e-07 0)
(5.92329e-07 -1.461e-07 0)
(6.25307e-07 -1.43113e-07 0)
(6.57543e-07 -1.40718e-07 0)
(6.8918e-07 -1.38756e-07 0)
(7.20306e-07 -1.37081e-07 0)
(7.50993e-07 -1.35568e-07 0)
(7.81319e-07 -1.3413e-07 0)
(8.11357e-07 -1.32691e-07 0)
(8.41163e-07 -1.31171e-07 0)
(8.70783e-07 -1.29514e-07 0)
(9.0022e-07 -1.2767e-07 0)
(9.29542e-07 -1.25543e-07 0)
(9.58717e-07 -1.23104e-07 0)
(9.87817e-07 -1.20208e-07 0)
(1.01685e-06 -1.16808e-07 0)
(1.04578e-06 -1.12771e-07 0)
(4.36085e-07 -1.88437e-07 0)
(4.73137e-07 -1.7963e-07 0)
(5.09137e-07 -1.72872e-07 0)
(5.44373e-07 -1.67342e-07 0)
(5.78708e-07 -1.62904e-07 0)
(6.12235e-07 -1.59285e-07 0)
(6.45053e-07 -1.56299e-07 0)
(6.77247e-07 -1.53788e-07 0)
(7.08892e-07 -1.51612e-07 0)
(7.40061e-07 -1.4965e-07 0)
(7.70835e-07 -1.47819e-07 0)
(8.01281e-07 -1.46033e-07 0)
(8.31452e-07 -1.44202e-07 0)
(8.61392e-07 -1.42265e-07 0)
(8.91103e-07 -1.40171e-07 0)
(9.20671e-07 -1.37807e-07 0)
(9.50062e-07 -1.35161e-07 0)
(9.79355e-07 -1.32082e-07 0)
(1.00854e-06 -1.28514e-07 0)
(1.03762e-06 -1.24313e-07 0)
(4.24264e-07 -2.06235e-07 0)
(4.60798e-07 -1.97626e-07 0)
(4.96576e-07 -1.90628e-07 0)
(5.31827e-07 -1.84676e-07 0)
(5.66315e-07 -1.79715e-07 0)
(6.00133e-07 -1.7555e-07 0)
(6.333e-07 -1.72028e-07 0)
(6.65865e-07 -1.69003e-07 0)
(6.97887e-07 -1.66349e-07 0)
(7.29432e-07 -1.63956e-07 0)
(7.60566e-07 -1.61742e-07 0)
(7.91347e-07 -1.59616e-07 0)
(8.21825e-07 -1.57478e-07 0)
(8.52042e-07 -1.55267e-07 0)
(8.82003e-07 -1.52926e-07 0)
(9.11791e-07 -1.50342e-07 0)
(9.41381e-07 -1.47508e-07 0)
(9.70858e-07 -1.44267e-07 0)
(1.00019e-06 -1.40565e-07 0)
(1.02945e-06 -1.36273e-07 0)
(4.14257e-07 -2.23185e-07 0)
(4.50234e-07 -2.14884e-07 0)
(4.8566e-07 -2.07868e-07 0)
(5.2073e-07 -2.01693e-07 0)
(5.55192e-07 -1.96376e-07 0)
(5.8911e-07 -1.91792e-07 0)
(6.22442e-07 -1.87816e-07 0)
(6.55224e-07 -1.84339e-07 0)
(6.875e-07 -1.81253e-07 0)
(7.19316e-07 -1.78459e-07 0)
(7.50724e-07 -1.75881e-07 0)
(7.81765e-07 -1.73426e-07 0)
(8.12487e-07 -1.70988e-07 0)
(8.42929e-07 -1.68512e-07 0)
(8.73099e-07 -1.65935e-07 0)
(9.03078e-07 -1.63146e-07 0)
(9.32839e-07 -1.6014e-07 0)
(9.62472e-07 -1.5676e-07 0)
(9.91944e-07 -1.52959e-07 0)
(1.02138e-06 -1.48642e-07 0)
(4.05614e-07 -2.39567e-07 0)
(4.41054e-07 -2.31578e-07 0)
(4.76115e-07 -2.24623e-07 0)
(5.10893e-07 -2.18338e-07 0)
(5.45226e-07 -2.12784e-07 0)
(5.79101e-07 -2.07878e-07 0)
(6.12469e-07 -2.03532e-07 0)
(6.45356e-07 -1.99675e-07 0)
(6.77784e-07 -1.96214e-07 0)
(7.09781e-07 -1.93061e-07 0)
(7.41382e-07 -1.90151e-07 0)
(7.72611e-07 -1.87388e-07 0)
(8.03517e-07 -1.84666e-07 0)
(8.34131e-07 -1.81941e-07 0)
(8.64463e-07 -1.79138e-07 0)
(8.94595e-07 -1.7617e-07 0)
(9.24496e-07 -1.73013e-07 0)
(9.54258e-07 -1.69522e-07 0)
(9.83882e-07 -1.65668e-07 0)
(1.01346e-06 -1.61371e-07 0)
(3.98123e-07 -2.55439e-07 0)
(4.33063e-07 -2.47765e-07 0)
(4.67736e-07 -2.40921e-07 0)
(5.02197e-07 -2.3461e-07 0)
(5.36321e-07 -2.28912e-07 0)
(5.70058e-07 -2.23766e-07 0)
(6.03372e-07 -2.19132e-07 0)
(6.36273e-07 -2.14965e-07 0)
(6.68764e-07 -2.11182e-07 0)
(7.00855e-07 -2.07712e-07 0)
(7.3257e-07 -2.04498e-07 0)
(7.63918e-07 -2.01449e-07 0)
(7.94945e-07 -1.98463e-07 0)
(8.25678e-07 -1.9551e-07 0)
(8.5613e-07 -1.925e-07 0)
(8.86373e-07 -1.89371e-07 0)
(9.16388e-07 -1.8609e-07 0)
(9.46262e-07 -1.82523e-07 0)
(9.76022e-07 -1.78661e-07 0)
(1.00569e-06 -1.74402e-07 0)
(3.91594e-07 -2.70894e-07 0)
(4.26097e-07 -2.63512e-07 0)
(4.6037e-07 -2.56806e-07 0)
(4.94505e-07 -2.5052e-07 0)
(5.28359e-07 -2.44739e-07 0)
(5.61899e-07 -2.39423e-07 0)
(5.95094e-07 -2.34569e-07 0)
(6.27936e-07 -2.30154e-07 0)
(6.60409e-07 -2.26099e-07 0)
(6.92518e-07 -2.22351e-07 0)
(7.24277e-07 -2.18865e-07 0)
(7.55685e-07 -2.15556e-07 0)
(7.86785e-07 -2.12326e-07 0)
(8.17594e-07 -2.09168e-07 0)
(8.48132e-07 -2.05975e-07 0)
(8.78462e-07 -2.02708e-07 0)
(9.0857e-07 -1.99334e-07 0)
(9.3855e-07 -1.9573e-07 0)
(9.68405e-07 -1.91887e-07 0)
(9.98153e-07 -1.87684e-07 0)
(3.8585e-07 -2.85992e-07 0)
(4.19939e-07 -2.78877e-07 0)
(4.53837e-07 -2.72316e-07 0)
(4.87633e-07 -2.66085e-07 0)
(5.21195e-07 -2.60261e-07 0)
(5.54515e-07 -2.54832e-07 0)
(5.87551e-07 -2.49816e-07 0)
(6.20284e-07 -2.45201e-07 0)
(6.52686e-07 -2.40918e-07 0)
(6.8476e-07 -2.3693e-07 0)
(7.16515e-07 -2.33205e-07 0)
(7.4794e-07 -2.29663e-07 0)
(7.79077e-07 -2.26217e-07 0)
(8.09932e-07 -2.22875e-07 0)
(8.40529e-07 -2.19528e-07 0)
(8.70927e-07 -2.16151e-07 0)
(9.01114e-07 -2.12717e-07 0)
(9.31183e-07 -2.09106e-07 0)
(9.6109e-07 -2.05299e-07 0)
(9.90944e-07 -2.01192e-07 0)
(3.80755e-07 -3.00777e-07 0)
(4.14439e-07 -2.93909e-07 0)
(4.47992e-07 -2.87491e-07 0)
(4.81449e-07 -2.81325e-07 0)
(5.14735e-07 -2.75494e-07 0)
(5.4783e-07 -2.69994e-07 0)
(5.80685e-07 -2.64855e-07 0)
(6.13282e-07 -2.60082e-07 0)
(6.45579e-07 -2.5561e-07 0)
(6.77585e-07 -2.51417e-07 0)
(7.09298e-07 -2.47484e-07 0)
(7.40707e-07 -2.43739e-07 0)
(7.71849e-07 -2.40106e-07 0)
(8.02724e-07 -2.36605e-07 0)
(8.33354e-07 -2.33133e-07 0)
(8.63798e-07 -2.29675e-07 0)
(8.94039e-07 -2.2621e-07 0)
(9.24155e-07 -2.2261e-07 0)
(9.54109e-07 -2.18858e-07 0)
(9.84043e-07 -2.14896e-07 0)
(3.76177e-07 -3.15288e-07 0)
(4.09492e-07 -3.08648e-07 0)
(4.42717e-07 -3.02363e-07 0)
(4.75868e-07 -2.96274e-07 0)
(5.089e-07 -2.90461e-07 0)
(5.41774e-07 -2.84916e-07 0)
(5.74437e-07 -2.79687e-07 0)
(6.06879e-07 -2.74787e-07 0)
(6.39049e-07 -2.7016e-07 0)
(6.70963e-07 -2.65794e-07 0)
(7.02608e-07 -2.61682e-07 0)
(7.33974e-07 -2.5776e-07 0)
(7.65097e-07 -2.53966e-07 0)
(7.95972e-07 -2.50332e-07 0)
(8.26618e-07 -2.46761e-07 0)
(8.57089e-07 -2.43247e-07 0)
(8.87359e-07 -2.39766e-07 0)
(9.17486e-07 -2.36191e-07 0)
(9.47506e-07 -2.32527e-07 0)
(9.77457e-07 -2.28731e-07 0)
(3.72028e-07 -3.29565e-07 0)
(4.05014e-07 -3.23129e-07 0)
(4.37937e-07 -3.16973e-07 0)
(4.70823e-07 -3.1097e-07 0)
(5.03615e-07 -3.05187e-07 0)
(5.36266e-07 -2.99615e-07 0)
(5.6873e-07 -2.94319e-07 0)
(6.01008e-07 -2.89316e-07 0)
(6.33043e-07 -2.84563e-07 0)
(6.64856e-07 -2.80047e-07 0)
(6.96426e-07 -2.7578e-07 0)
(7.27745e-07 -2.71706e-07 0)
(7.58843e-07 -2.67775e-07 0)
(7.89715e-07 -2.64031e-07 0)
(8.2037e-07 -2.60386e-07 0)
(8.50854e-07 -2.56833e-07 0)
(8.81131e-07 -2.53346e-07 0)
(9.11273e-07 -2.49816e-07 0)
(9.41331e-07 -2.46279e-07 0)
(9.71294e-07 -2.42642e-07 0)
(3.68277e-07 -3.4364e-07 0)
(4.00965e-07 -3.37388e-07 0)
(4.33618e-07 -3.31362e-07 0)
(4.66255e-07 -3.25445e-07 0)
(4.98808e-07 -3.19692e-07 0)
(5.31238e-07 -3.14102e-07 0)
(5.63514e-07 -3.08756e-07 0)
(5.95634e-07 -3.03669e-07 0)
(6.27551e-07 -2.98814e-07 0)
(6.59272e-07 -2.94174e-07 0)
(6.90775e-07 -2.8978e-07 0)
(7.22047e-07 -2.85581e-07 0)
(7.53113e-07 -2.8154e-07 0)
(7.83968e-07 -2.77708e-07 0)
(8.1461e-07 -2.74002e-07 0)
(8.45084e-07 -2.70417e-07 0)
(8.75346e-07 -2.66935e-07 0)
(9.05511e-07 -2.63473e-07 0)
(9.35535e-07 -2.60071e-07 0)
(9.65529e-07 -2.56622e-07 0)
(3.64881e-07 -3.57539e-07 0)
(3.97299e-07 -3.51465e-07 0)
(4.29705e-07 -3.45558e-07 0)
(4.62092e-07 -3.39713e-07 0)
(4.9442e-07 -3.33987e-07 0)
(5.26652e-07 -3.2839e-07 0)
(5.58772e-07 -3.23015e-07 0)
(5.90745e-07 -3.1787e-07 0)
(6.22554e-07 -3.12934e-07 0)
(6.54177e-07 -3.08192e-07 0)
(6.85604e-07 -3.03685e-07 0)
(7.16823e-07 -2.99373e-07 0)
(7.47855e-07 -2.95232e-07 0)
(7.78686e-07 -2.91321e-07 0)
(8.09308e-07 -2.87558e-07 0)
(8.39759e-07 -2.83944e-07 0)
(8.70006e-07 -2.80481e-07 0)
(9.00162e-07 -2.77104e-07 0)
(9.30155e-07 -2.73823e-07 0)
(9.60143e-07 -2.70611e-07 0)
(3.61763e-07 -3.71296e-07 0)
(3.93934e-07 -3.6539e-07 0)
(4.261e-07 -3.59577e-07 0)
(4.58258e-07 -3.53792e-07 0)
(4.90394e-07 -3.48097e-07 0)
(5.22449e-07 -3.4251e-07 0)
(5.5443e-07 -3.37114e-07 0)
(5.86267e-07 -3.31923e-07 0)
(6.17976e-07 -3.26911e-07 0)
(6.49527e-07 -3.22078e-07 0)
(6.80905e-07 -3.1748e-07 0)
(7.12093e-07 -3.1308e-07 0)
(7.43107e-07 -3.08856e-07 0)
(7.73923e-07 -3.04876e-07 0)
(8.04523e-07 -3.01059e-07 0)
(8.34952e-07 -2.9742e-07 0)
(8.65198e-07 -2.93983e-07 0)
(8.95308e-07 -2.90691e-07 0)
(9.2531e-07 -2.87554e-07 0)
(9.55261e-07 -2.84574e-07 0)
(3.58832e-07 -3.84946e-07 0)
(3.90769e-07 -3.79171e-07 0)
(4.22719e-07 -3.73434e-07 0)
(4.54685e-07 -3.67712e-07 0)
(4.86658e-07 -3.62052e-07 0)
(5.18569e-07 -3.56481e-07 0)
(5.50431e-07 -3.51066e-07 0)
(5.82182e-07 -3.45845e-07 0)
(6.13805e-07 -3.40779e-07 0)
(6.45288e-07 -3.35872e-07 0)
(6.76624e-07 -3.31193e-07 0)
(7.07788e-07 -3.26712e-07 0)
(7.38783e-07 -3.22411e-07 0)
(7.69581e-07 -3.18354e-07 0)
(8.00168e-07 -3.14476e-07 0)
(8.30596e-07 -3.1082e-07 0)
(8.60836e-07 -3.07414e-07 0)
(8.90914e-07 -3.04183e-07 0)
(9.20892e-07 -3.0121e-07 0)
(9.50834e-07 -2.9848e-07 0)
(3.55999e-07 -3.98509e-07 0)
(3.87742e-07 -3.92841e-07 0)
(4.19504e-07 -3.87166e-07 0)
(4.51316e-07 -3.81505e-07 0)
(4.83145e-07 -3.75876e-07 0)
(5.14956e-07 -3.70319e-07 0)
(5.46707e-07 -3.64899e-07 0)
(5.78381e-07 -3.59643e-07 0)
(6.09948e-07 -3.54522e-07 0)
(6.41402e-07 -3.49556e-07 0)
(6.72725e-07 -3.44813e-07 0)
(7.03882e-07 -3.40256e-07 0)
(7.34873e-07 -3.35871e-07 0)
(7.65673e-07 -3.31742e-07 0)
(7.96276e-07 -3.27821e-07 0)
(8.26738e-07 -3.2414e-07 0)
(8.56972e-07 -3.20727e-07 0)
(8.87064e-07 -3.17562e-07 0)
(9.16977e-07 -3.1476e-07 0)
(9.46918e-07 -3.12273e-07 0)
(3.53243e-07 -4.11983e-07 0)
(3.84796e-07 -4.06427e-07 0)
(4.16416e-07 -4.00808e-07 0)
(4.4811e-07 -3.95193e-07 0)
(4.79838e-07 -3.89612e-07 0)
(5.11556e-07 -3.84063e-07 0)
(5.43235e-07 -3.78628e-07 0)
(5.74855e-07 -3.73349e-07 0)
(6.06395e-07 -3.68192e-07 0)
(6.37845e-07 -3.63173e-07 0)
(6.69171e-07 -3.58362e-07 0)
(7.00329e-07 -3.53738e-07 0)
(7.3134e-07 -3.49285e-07 0)
(7.62198e-07 -3.45078e-07 0)
(7.92867e-07 -3.41094e-07 0)
(8.23353e-07 -3.37389e-07 0)
(8.53595e-07 -3.33964e-07 0)
(8.83758e-07 -3.30836e-07 0)
(9.13706e-07 -3.28174e-07 0)
(9.43567e-07 -3.25975e-07 0)
(3.50477e-07 -4.25444e-07 0)
(3.81863e-07 -4.19951e-07 0)
(4.13393e-07 -4.14385e-07 0)
(4.44995e-07 -4.08821e-07 0)
(4.76638e-07 -4.03256e-07 0)
(5.08281e-07 -3.97718e-07 0)
(5.3992e-07 -3.92273e-07 0)
(5.71533e-07 -3.86963e-07 0)
(6.03077e-07 -3.81769e-07 0)
(6.34524e-07 -3.76712e-07 0)
(6.65862e-07 -3.71845e-07 0)
(6.97084e-07 -3.67136e-07 0)
(7.2818e-07 -3.62608e-07 0)
(7.59092e-07 -3.58366e-07 0)
(7.89828e-07 -3.54317e-07 0)
(8.20429e-07 -3.50511e-07 0)
(8.50819e-07 -3.4708e-07 0)
(8.81017e-07 -3.43986e-07 0)
(9.11046e-07 -3.41388e-07 0)
(9.40911e-07 -3.39435e-07 0)
(3.47704e-07 -4.38848e-07 0)
(3.78994e-07 -4.33437e-07 0)
(4.10436e-07 -4.27931e-07 0)
(4.41959e-07 -4.22401e-07 0)
(4.73541e-07 -4.16845e-07 0)
(5.05169e-07 -4.11296e-07 0)
(5.36811e-07 -4.05851e-07 0)
(5.68423e-07 -4.00543e-07 0)
(5.99981e-07 -3.95315e-07 0)
(6.31486e-07 -3.90183e-07 0)
(6.62906e-07 -3.8527e-07 0)
(6.94188e-07 -3.80544e-07 0)
(7.25366e-07 -3.75944e-07 0)
(7.56415e-07 -3.71603e-07 0)
(7.87277e-07 -3.6752e-07 0)
(8.18007e-07 -3.63659e-07 0)
(8.48607e-07 -3.6017e-07 0)
(8.78968e-07 -3.57022e-07 0)
(9.09185e-07 -3.54433e-07 0)
(9.39126e-07 -3.52611e-07 0)
(2.12725e-08 -3.07846e-07 0)
(6.39558e-08 -3.03709e-07 0)
(1.06944e-07 -2.95516e-07 0)
(1.50473e-07 -2.83715e-07 0)
(1.94596e-07 -2.68722e-07 0)
(2.39344e-07 -2.51119e-07 0)
(2.84703e-07 -2.31609e-07 0)
(3.30536e-07 -2.10785e-07 0)
(3.77114e-07 -1.89243e-07 0)
(4.23703e-07 -1.67246e-07 0)
(2.08837e-08 -3.1571e-07 0)
(6.27807e-08 -3.11917e-07 0)
(1.04868e-07 -3.04405e-07 0)
(1.47357e-07 -2.9357e-07 0)
(1.90269e-07 -2.79758e-07 0)
(2.33572e-07 -2.63458e-07 0)
(2.77287e-07 -2.45258e-07 0)
(3.21099e-07 -2.25747e-07 0)
(3.65274e-07 -2.05379e-07 0)
(4.08637e-07 -1.85156e-07 0)
(2.04706e-08 -3.23714e-07 0)
(6.15307e-08 -3.20246e-07 0)
(1.02723e-07 -3.1334e-07 0)
(1.44162e-07 -3.03356e-07 0)
(1.85918e-07 -2.9061e-07 0)
(2.27886e-07 -2.75533e-07 0)
(2.70118e-07 -2.58633e-07 0)
(3.12324e-07 -2.40459e-07 0)
(3.54736e-07 -2.21338e-07 0)
(3.96336e-07 -2.02507e-07 0)
(2.0107e-08 -3.31855e-07 0)
(6.03927e-08 -3.28644e-07 0)
(1.00823e-07 -3.2226e-07 0)
(1.41376e-07 -3.13019e-07 0)
(1.82163e-07 -3.01205e-07 0)
(2.23045e-07 -2.87191e-07 0)
(2.64063e-07 -2.71457e-07 0)
(3.04944e-07 -2.54523e-07 0)
(3.4581e-07 -2.36685e-07 0)
(3.85891e-07 -2.19203e-07 0)
(1.97922e-08 -3.40134e-07 0)
(5.93582e-08 -3.37176e-07 0)
(9.90697e-08 -3.31275e-07 0)
(1.38824e-07 -3.2271e-07 0)
(1.78734e-07 -3.1174e-07 0)
(2.18665e-07 -2.9874e-07 0)
(2.58639e-07 -2.84125e-07 0)
(2.98434e-07 -2.68327e-07 0)
(3.38064e-07 -2.51664e-07 0)
(3.76956e-07 -2.35318e-07 0)
(1.94798e-08 -3.48554e-07 0)
(5.8421e-08 -3.45802e-07 0)
(9.74606e-08 -3.40324e-07 0)
(1.36517e-07 -3.32389e-07 0)
(1.75662e-07 -3.22187e-07 0)
(2.14799e-07 -3.10102e-07 0)
(2.53863e-07 -2.96508e-07 0)
(2.92711e-07 -2.81773e-07 0)
(3.31294e-07 -2.66229e-07 0)
(3.69178e-07 -2.50956e-07 0)
(1.91767e-08 -3.57105e-07 0)
(5.75466e-08 -3.54551e-07 0)
(9.59671e-08 -3.49464e-07 0)
(1.3441e-07 -3.42094e-07 0)
(1.72854e-07 -3.32605e-07 0)
(2.11288e-07 -3.2136e-07 0)
(2.49592e-07 -3.08708e-07 0)
(2.87636e-07 -2.94968e-07 0)
(3.25353e-07 -2.80466e-07 0)
(3.62403e-07 -2.66177e-07 0)
(1.89244e-08 -3.65777e-07 0)
(5.67372e-08 -3.6341e-07 0)
(9.45879e-08 -3.58682e-07 0)
(1.32472e-07 -3.51828e-07 0)
(1.70304e-07 -3.43001e-07 0)
(2.08096e-07 -3.32525e-07 0)
(2.45734e-07 -3.2075e-07 0)
(2.83104e-07 -3.07948e-07 0)
(3.20108e-07 -2.94422e-07 0)
(3.56478e-07 -2.81044e-07 0)
(1.86936e-08 -3.74575e-07 0)
(5.59793e-08 -3.72377e-07 0)
(9.3317e-08 -3.67977e-07 0)
(1.30673e-07 -3.61601e-07 0)
(1.6796e-07 -3.53399e-07 0)
(2.05196e-07 -3.43631e-07 0)
(2.42241e-07 -3.32668e-07 0)
(2.79025e-07 -3.20747e-07 0)
(3.15435e-07 -3.08133e-07 0)
(3.51248e-07 -2.95603e-07 0)
(1.84456e-08 -3.83498e-07 0)
(5.5264e-08 -3.81457e-07 0)
(9.21339e-08 -3.77358e-07 0)
(1.29005e-07 -3.71425e-07 0)
(1.65782e-07 -3.63804e-07 0)
(2.02527e-07 -3.54695e-07 0)
(2.39052e-07 -3.44481e-07 0)
(2.75323e-07 -3.33382e-07 0)
(3.11227e-07 -3.21623e-07 0)
(3.46568e-07 -3.09889e-07 0)
(1.81964e-08 -3.92539e-07 0)
(5.46071e-08 -3.9065e-07 0)
(9.10237e-08 -3.86833e-07 0)
(1.27451e-07 -3.81305e-07 0)
(1.63754e-07 -3.74219e-07 0)
(2.00044e-07 -3.65729e-07 0)
(2.36115e-07 -3.56209e-07 0)
(2.71934e-07 -3.45875e-07 0)
(3.07402e-07 -3.34916e-07 0)
(3.42338e-07 -3.23933e-07 0)
(1.79784e-08 -4.01697e-07 0)
(5.40092e-08 -3.99954e-07 0)
(8.99779e-08 -3.96404e-07 0)
(1.25991e-07 -3.91248e-07 0)
(1.61866e-07 -3.84651e-07 0)
(1.97725e-07 -3.76744e-07 0)
(2.3339e-07 -3.67876e-07 0)
(2.68812e-07 -3.58252e-07 0)
(3.03901e-07 -3.48037e-07 0)
(3.38507e-07 -3.37764e-07 0)
(1.77899e-08 -4.10981e-07 0)
(5.34353e-08 -4.09368e-07 0)
(8.89729e-08 -4.06068e-07 0)
(1.24587e-07 -4.01256e-07 0)
(1.60077e-07 -3.95113e-07 0)
(1.95534e-07 -3.87754e-07 0)
(2.3083e-07 -3.79493e-07 0)
(2.65902e-07 -3.70527e-07 0)
(3.00681e-07 -3.61011e-07 0)
(3.35048e-07 -3.51412e-07 0)
(1.76021e-08 -4.20392e-07 0)
(5.28441e-08 -4.18891e-07 0)
(8.79786e-08 -4.15824e-07 0)
(1.23201e-07 -4.11335e-07 0)
(1.58332e-07 -4.05612e-07 0)
(1.93421e-07 -3.98763e-07 0)
(2.28384e-07 -3.91069e-07 0)
(2.63161e-07 -3.82724e-07 0)
(2.97702e-07 -3.73878e-07 0)
(3.3189e-07 -3.64925e-07 0)
(1.73966e-08 -4.29925e-07 0)
(5.22252e-08 -4.28521e-07 0)
(8.69818e-08 -4.25673e-07 0)
(1.2182e-07 -4.21489e-07 0)
(1.56605e-07 -4.16161e-07 0)
(1.91354e-07 -4.09791e-07 0)
(2.26013e-07 -4.0263e-07 0)
(2.60547e-07 -3.94873e-07 0)
(2.94891e-07 -3.86667e-07 0)
(3.28939e-07 -3.78324e-07 0)
(1.71801e-08 -4.39571e-07 0)
(5.15976e-08 -4.38257e-07 0)
(8.59859e-08 -4.35617e-07 0)
(1.20438e-07 -4.31727e-07 0)
(1.54875e-07 -4.26763e-07 0)
(1.89301e-07 -4.20832e-07 0)
(2.23688e-07 -4.14179e-07 0)
(2.58024e-07 -4.06989e-07 0)
(2.92191e-07 -3.99389e-07 0)
(3.26152e-07 -3.91627e-07 0)
(1.6967e-08 -4.49318e-07 0)
(5.09728e-08 -4.48096e-07 0)
(8.49771e-08 -4.4565e-07 0)
(1.19036e-07 -4.42033e-07 0)
(1.53126e-07 -4.37419e-07 0)
(1.87245e-07 -4.31909e-07 0)
(2.21386e-07 -4.25744e-07 0)
(2.55519e-07 -4.19096e-07 0)
(2.89542e-07 -4.12065e-07 0)
(3.23427e-07 -4.04867e-07 0)
(1.67561e-08 -4.59165e-07 0)
(5.03305e-08 -4.58027e-07 0)
(8.39234e-08 -4.5576e-07 0)
(1.17577e-07 -4.52406e-07 0)
(1.51312e-07 -4.48117e-07 0)
(1.85135e-07 -4.43011e-07 0)
(2.1904e-07 -4.37309e-07 0)
(2.52964e-07 -4.31174e-07 0)
(2.86894e-07 -4.24691e-07 0)
(3.20727e-07 -4.18032e-07 0)
(1.65341e-08 -4.69087e-07 0)
(4.96391e-08 -4.68034e-07 0)
(8.27885e-08 -4.65934e-07 0)
(1.16038e-07 -4.62828e-07 0)
(1.49414e-07 -4.58866e-07 0)
(1.82941e-07 -4.54154e-07 0)
(2.16606e-07 -4.48898e-07 0)
(2.50363e-07 -4.43251e-07 0)
(2.84169e-07 -4.37309e-07 0)
(3.17994e-07 -4.31182e-07 0)
(1.62923e-08 -4.7907e-07 0)
(4.89003e-08 -4.78094e-07 0)
(8.15748e-08 -4.76166e-07 0)
(1.14397e-07 -4.73307e-07 0)
(1.47416e-07 -4.69654e-07 0)
(1.8066e-07 -4.65328e-07 0)
(2.14084e-07 -4.60507e-07 0)
(2.47732e-07 -4.55331e-07 0)
(2.81448e-07 -4.49903e-07 0)
(3.15326e-07 -4.44286e-07 0)
)


// ************************************************************************* //
