/*--------------------------------*- C++ -*----------------------------------*\
| =========                 |                                                 |
| \\      /  F ield         | foam-extend: Open Source CFD                    |
|  \\    /   O peration     | Version:     4.1                                |
|   \\  /    A nd           | Web:         http://www.foam-extend.org         |
|    \\/     M anipulation  |                                                 |
\*---------------------------------------------------------------------------*/
FoamFile
{
    version     2.0;
    format      ascii;
    class       vectorField;
    location    "1";
    object      solidsCellD_iteration9;
}
// * * * * * * * * * * * * * * * * * * * * * * * * * * * * * * * * * * * * * //


1000
(
(4.19777e-07 -1.11788e-07 0)
(4.03209e-07 -1.07831e-07 0)
(3.94041e-07 -1.06965e-07 0)
(3.90108e-07 -1.08675e-07 0)
(3.89964e-07 -1.1207e-07 0)
(3.92663e-07 -1.16686e-07 0)
(3.97467e-07 -1.22175e-07 0)
(4.03707e-07 -1.28443e-07 0)
(4.11418e-07 -1.35072e-07 0)
(4.18668e-07 -1.42094e-07 0)
(3.80597e-07 -1.224e-07 0)
(3.62968e-07 -1.21345e-07 0)
(3.52958e-07 -1.22402e-07 0)
(3.48321e-07 -1.25487e-07 0)
(3.47418e-07 -1.29865e-07 0)
(3.49293e-07 -1.3519e-07 0)
(3.53221e-07 -1.41165e-07 0)
(3.58544e-07 -1.47809e-07 0)
(3.65173e-07 -1.54579e-07 0)
(3.71721e-07 -1.62031e-07 0)
(3.3955e-07 -1.32397e-07 0)
(3.21497e-07 -1.34566e-07 0)
(3.11055e-07 -1.37725e-07 0)
(3.05985e-07 -1.42213e-07 0)
(3.04615e-07 -1.47521e-07 0)
(3.05915e-07 -1.53469e-07 0)
(3.09205e-07 -1.59874e-07 0)
(3.13917e-07 -1.66749e-07 0)
(3.19879e-07 -1.73621e-07 0)
(3.26028e-07 -1.8101e-07 0)
(2.96932e-07 -1.41622e-07 0)
(2.79331e-07 -1.47112e-07 0)
(2.68987e-07 -1.5241e-07 0)
(2.63754e-07 -1.58285e-07 0)
(2.62103e-07 -1.64514e-07 0)
(2.63003e-07 -1.71051e-07 0)
(2.65734e-07 -1.77822e-07 0)
(2.69906e-07 -1.84877e-07 0)
(2.75237e-07 -1.91865e-07 0)
(2.80959e-07 -1.99247e-07 0)
(2.53208e-07 -1.49876e-07 0)
(2.36714e-07 -1.58613e-07 0)
(2.26917e-07 -1.65991e-07 0)
(2.21893e-07 -1.73213e-07 0)
(2.20166e-07 -1.80306e-07 0)
(2.20729e-07 -1.87414e-07 0)
(2.22979e-07 -1.94538e-07 0)
(2.26588e-07 -2.01777e-07 0)
(2.31295e-07 -2.08912e-07 0)
(2.36425e-07 -2.1632e-07 0)
(2.08362e-07 -1.57046e-07 0)
(1.93795e-07 -1.68776e-07 0)
(1.85108e-07 -1.78085e-07 0)
(1.80539e-07 -1.86583e-07 0)
(1.78843e-07 -1.94491e-07 0)
(1.79136e-07 -2.02117e-07 0)
(1.80993e-07 -2.09554e-07 0)
(1.84052e-07 -2.16966e-07 0)
(1.88051e-07 -2.24262e-07 0)
(1.9243e-07 -2.31729e-07 0)
(1.6284e-07 -1.62917e-07 0)
(1.5076e-07 -1.77283e-07 0)
(1.43528e-07 -1.88297e-07 0)
(1.39658e-07 -1.9791e-07 0)
(1.38169e-07 -2.06516e-07 0)
(1.38342e-07 -2.14595e-07 0)
(1.39817e-07 -2.22313e-07 0)
(1.42254e-07 -2.299e-07 0)
(1.45434e-07 -2.37356e-07 0)
(1.48938e-07 -2.44881e-07 0)
(1.16739e-07 -1.67443e-07 0)
(1.07639e-07 -1.83932e-07 0)
(1.02211e-07 -1.96275e-07 0)
(9.93221e-08 -2.06735e-07 0)
(9.81982e-08 -2.15926e-07 0)
(9.82967e-08 -2.24383e-07 0)
(9.93399e-08 -2.32359e-07 0)
(1.01088e-07 -2.4009e-07 0)
(1.03391e-07 -2.47675e-07 0)
(1.05942e-07 -2.55253e-07 0)
(7.01988e-08 -1.70512e-07 0)
(6.45739e-08 -1.88454e-07 0)
(6.1253e-08 -2.01716e-07 0)
(5.94379e-08 -2.12825e-07 0)
(5.8689e-08 -2.22425e-07 0)
(5.87161e-08 -2.31114e-07 0)
(5.93694e-08 -2.39276e-07 0)
(6.04576e-08 -2.47154e-07 0)
(6.18446e-08 -2.54858e-07 0)
(6.33836e-08 -2.62479e-07 0)
(2.34482e-08 -1.72059e-07 0)
(2.15556e-08 -1.90771e-07 0)
(2.03831e-08 -2.04497e-07 0)
(1.97653e-08 -2.15905e-07 0)
(1.95556e-08 -2.25708e-07 0)
(1.95593e-08 -2.34546e-07 0)
(1.97336e-08 -2.42781e-07 0)
(2.00929e-08 -2.50699e-07 0)
(2.05765e-08 -2.58461e-07 0)
(2.10912e-08 -2.66117e-07 0)
(6.4127e-07 -4.9949e-09 0)
(6.45422e-07 -3.68464e-09 0)
(6.49505e-07 -2.94114e-09 0)
(6.54603e-07 -2.58912e-09 0)
(6.60921e-07 -2.48918e-09 0)
(6.68484e-07 -2.58525e-09 0)
(6.77364e-07 -2.81005e-09 0)
(6.87374e-07 -3.06873e-09 0)
(6.98591e-07 -3.4374e-09 0)
(7.10829e-07 -3.86892e-09 0)
(6.36857e-07 -1.50424e-08 0)
(6.40334e-07 -1.11867e-08 0)
(6.44005e-07 -8.96441e-09 0)
(6.48784e-07 -7.98027e-09 0)
(6.54881e-07 -7.77104e-09 0)
(6.62253e-07 -7.98986e-09 0)
(6.71042e-07 -8.63536e-09 0)
(6.80982e-07 -9.55024e-09 0)
(6.9208e-07 -1.06621e-08 0)
(7.04267e-07 -1.18511e-08 0)
(6.28028e-07 -2.51303e-08 0)
(6.30183e-07 -1.90192e-08 0)
(6.33041e-07 -1.55186e-08 0)
(6.37272e-07 -1.38605e-08 0)
(6.43004e-07 -1.35339e-08 0)
(6.50146e-07 -1.40315e-08 0)
(6.58682e-07 -1.51478e-08 0)
(6.6848e-07 -1.66397e-08 0)
(6.79377e-07 -1.84355e-08 0)
(6.91451e-07 -2.04034e-08 0)
(6.14914e-07 -3.54145e-08 0)
(6.15196e-07 -2.7359e-08 0)
(6.16842e-07 -2.28714e-08 0)
(6.20312e-07 -2.07997e-08 0)
(6.25482e-07 -2.04155e-08 0)
(6.32275e-07 -2.11235e-08 0)
(6.4052e-07 -2.26357e-08 0)
(6.5014e-07 -2.46962e-08 0)
(6.60788e-07 -2.71847e-08 0)
(6.72738e-07 -2.99213e-08 0)
(5.97614e-07 -4.5886e-08 0)
(5.95647e-07 -3.63904e-08 0)
(5.95798e-07 -3.11906e-08 0)
(5.98283e-07 -2.89036e-08 0)
(6.02792e-07 -2.85811e-08 0)
(6.09136e-07 -2.95582e-08 0)
(6.1701e-07 -3.15003e-08 0)
(6.2636e-07 -3.41199e-08 0)
(6.36722e-07 -3.72497e-08 0)
(6.48566e-07 -4.06701e-08 0)
(5.76313e-07 -5.65966e-08 0)
(5.71771e-07 -4.62758e-08 0)
(5.70298e-07 -4.07092e-08 0)
(5.71712e-07 -3.8421e-08 0)
(5.75467e-07 -3.83221e-08 0)
(5.81284e-07 -3.96513e-08 0)
(5.88788e-07 -4.20328e-08 0)
(5.97846e-07 -4.51391e-08 0)
(6.07913e-07 -4.88455e-08 0)
(6.19635e-07 -5.28756e-08 0)
(5.51343e-07 -6.75312e-08 0)
(5.44027e-07 -5.70854e-08 0)
(5.40795e-07 -5.15771e-08 0)
(5.41086e-07 -4.95423e-08 0)
(5.44058e-07 -4.97892e-08 0)
(5.49339e-07 -5.15342e-08 0)
(5.5646e-07 -5.43543e-08 0)
(5.65217e-07 -5.78777e-08 0)
(5.74985e-07 -6.20854e-08 0)
(5.86602e-07 -6.66158e-08 0)
(5.22874e-07 -7.85958e-08 0)
(5.12827e-07 -6.87901e-08 0)
(5.07863e-07 -6.37991e-08 0)
(5.07015e-07 -6.22928e-08 0)
(5.09243e-07 -6.30386e-08 0)
(5.13991e-07 -6.52914e-08 0)
(5.20709e-07 -6.85847e-08 0)
(5.29169e-07 -7.25156e-08 0)
(5.38684e-07 -7.71712e-08 0)
(5.50144e-07 -8.20714e-08 0)
(4.91246e-07 -8.97449e-08 0)
(4.78654e-07 -8.12665e-08 0)
(4.7207e-07 -7.72804e-08 0)
(4.70102e-07 -7.65818e-08 0)
(4.7158e-07 -7.80105e-08 0)
(4.7571e-07 -8.08626e-08 0)
(4.8194e-07 -8.46731e-08 0)
(4.89998e-07 -8.90081e-08 0)
(4.99223e-07 -9.40102e-08 0)
(5.10377e-07 -9.8995e-08 0)
(4.56792e-07 -1.00864e-07 0)
(4.4202e-07 -9.43487e-08 0)
(4.34003e-07 -9.17593e-08 0)
(4.31007e-07 -9.21753e-08 0)
(4.31721e-07 -9.45052e-08 0)
(4.35276e-07 -9.81207e-08 0)
(4.4113e-07 -1.0265e-07 0)
(4.48818e-07 -1.07682e-07 0)
(4.57994e-07 -1.13295e-07 0)
(4.68338e-07 -1.18849e-07 0)
(7.23985e-07 -4.22755e-09 0)
(7.38203e-07 -4.43804e-09 0)
(7.53187e-07 -4.61279e-09 0)
(7.68863e-07 -4.7638e-09 0)
(7.85174e-07 -4.89385e-09 0)
(8.02109e-07 -5.00134e-09 0)
(8.19578e-07 -5.07168e-09 0)
(8.37497e-07 -5.13665e-09 0)
(8.55882e-07 -5.21945e-09 0)
(8.7473e-07 -5.2903e-09 0)
(8.93973e-07 -5.33032e-09 0)
(9.13567e-07 -5.34392e-09 0)
(9.33487e-07 -5.34095e-09 0)
(9.53714e-07 -5.33287e-09 0)
(9.74229e-07 -5.32124e-09 0)
(9.95012e-07 -5.29319e-09 0)
(1.01604e-06 -5.23492e-09 0)
(1.0373e-06 -5.13947e-09 0)
(1.05874e-06 -5.01268e-09 0)
(1.08037e-06 -4.86272e-09 0)
(7.17685e-07 -1.28756e-08 0)
(7.32386e-07 -1.34882e-08 0)
(7.47804e-07 -1.39926e-08 0)
(7.63896e-07 -1.4416e-08 0)
(7.80594e-07 -1.47462e-08 0)
(7.97842e-07 -1.50318e-08 0)
(8.15606e-07 -1.52896e-08 0)
(8.33843e-07 -1.55362e-08 0)
(8.52534e-07 -1.57562e-08 0)
(8.71639e-07 -1.59011e-08 0)
(8.91111e-07 -1.59848e-08 0)
(9.10936e-07 -1.6039e-08 0)
(9.31096e-07 -1.60659e-08 0)
(9.51557e-07 -1.6055e-08 0)
(9.72288e-07 -1.5994e-08 0)
(9.93269e-07 -1.58722e-08 0)
(1.01448e-06 -1.56777e-08 0)
(1.03591e-06 -1.54024e-08 0)
(1.05753e-06 -1.50528e-08 0)
(1.07928e-06 -1.46283e-08 0)
(7.05366e-07 -2.20725e-08 0)
(7.21065e-07 -2.29952e-08 0)
(7.37381e-07 -2.3718e-08 0)
(7.54213e-07 -2.43438e-08 0)
(7.71605e-07 -2.48656e-08 0)
(7.89543e-07 -2.53368e-08 0)
(8.0796e-07 -2.5755e-08 0)
(8.26768e-07 -2.6121e-08 0)
(8.45975e-07 -2.642e-08 0)
(8.65558e-07 -2.66254e-08 0)
(8.85497e-07 -2.67751e-08 0)
(9.05774e-07 -2.68921e-08 0)
(9.26351e-07 -2.69491e-08 0)
(9.47187e-07 -2.69175e-08 0)
(9.68271e-07 -2.67905e-08 0)
(9.89614e-07 -2.65674e-08 0)
(1.01119e-06 -2.62356e-08 0)
(1.03298e-06 -2.57875e-08 0)
(1.05495e-06 -2.52325e-08 0)
(1.07707e-06 -2.45515e-08 0)
(6.87352e-07 -3.21018e-08 0)
(7.04402e-07 -3.31544e-08 0)
(7.21991e-07 -3.39567e-08 0)
(7.39987e-07 -3.46926e-08 0)
(7.58466e-07 -3.53456e-08 0)
(7.77368e-07 -3.59548e-08 0)
(7.96675e-07 -3.6484e-08 0)
(8.16321e-07 -3.69418e-08 0)
(8.36353e-07 -3.73126e-08 0)
(8.56721e-07 -3.75842e-08 0)
(8.77383e-07 -3.77889e-08 0)
(8.98319e-07 -3.79288e-08 0)
(9.19507e-07 -3.79678e-08 0)
(9.40925e-07 -3.78894e-08 0)
(9.6257e-07 -3.7705e-08 0)
(9.84453e-07 -3.73973e-08 0)
(1.00654e-06 -3.69503e-08 0)
(1.02884e-06 -3.63478e-08 0)
(1.05126e-06 -3.55917e-08 0)
(1.07385e-06 -3.46863e-08 0)
(6.64127e-07 -4.31701e-08 0)
(6.82968e-07 -4.4148e-08 0)
(7.02217e-07 -4.49098e-08 0)
(7.21649e-07 -4.56818e-08 0)
(7.41475e-07 -4.63789e-08 0)
(7.61616e-07 -4.70423e-08 0)
(7.82101e-07 -4.76153e-08 0)
(8.02858e-07 -4.81317e-08 0)
(8.23907e-07 -4.85456e-08 0)
(8.45217e-07 -4.88448e-08 0)
(8.66781e-07 -4.90667e-08 0)
(8.88588e-07 -4.92056e-08 0)
(9.1061e-07 -4.92185e-08 0)
(9.32825e-07 -4.90915e-08 0)
(9.55242e-07 -4.88404e-08 0)
(9.77829e-07 -4.84384e-08 0)
(1.00061e-06 -4.78726e-08 0)
(1.02353e-06 -4.71291e-08 0)
(1.04661e-06 -4.6192e-08 0)
(1.06982e-06 -4.50972e-08 0)
(6.36264e-07 -5.54993e-08 0)
(6.57138e-07 -5.61541e-08 0)
(6.78373e-07 -5.66719e-08 0)
(6.99593e-07 -5.73423e-08 0)
(7.21109e-07 -5.79855e-08 0)
(7.42798e-07 -5.86393e-08 0)
(7.64654e-07 -5.91964e-08 0)
(7.86721e-07 -5.96913e-08 0)
(8.09e-07 -6.00966e-08 0)
(8.31473e-07 -6.04016e-08 0)
(8.54147e-07 -6.0631e-08 0)
(8.77009e-07 -6.07609e-08 0)
(9.00025e-07 -6.0739e-08 0)
(9.23175e-07 -6.05562e-08 0)
(9.46489e-07 -6.02202e-08 0)
(9.69926e-07 -5.97149e-08 0)
(9.93549e-07 -5.90281e-08 0)
(1.01725e-06 -5.81596e-08 0)
(1.04114e-06 -5.70798e-08 0)
(1.06511e-06 -5.5816e-08 0)
(6.04524e-07 -6.91551e-08 0)
(6.27722e-07 -6.92335e-08 0)
(6.51214e-07 -6.9316e-08 0)
(6.74456e-07 -6.9733e-08 0)
(6.97805e-07 -7.01884e-08 0)
(7.21221e-07 -7.07026e-08 0)
(7.44654e-07 -7.11844e-08 0)
(7.68202e-07 -7.16204e-08 0)
(7.91887e-07 -7.1996e-08 0)
(8.15712e-07 -7.22955e-08 0)
(8.39668e-07 -7.25135e-08 0)
(8.63731e-07 -7.26064e-08 0)
(8.8788e-07 -7.25227e-08 0)
(9.12118e-07 -7.22665e-08 0)
(9.36473e-07 -7.18423e-08 0)
(9.60925e-07 -7.12453e-08 0)
(9.85536e-07 -7.04591e-08 0)
(1.0102e-06 -6.94794e-08 0)
(1.035e-06 -6.82677e-08 0)
(1.05984e-06 -6.68375e-08 0)
(5.6947e-07 -8.42606e-08 0)
(5.95148e-07 -8.34225e-08 0)
(6.21083e-07 -8.28507e-08 0)
(6.46564e-07 -8.28237e-08 0)
(6.72004e-07 -8.29682e-08 0)
(6.97312e-07 -8.32496e-08 0)
(7.22571e-07 -8.35809e-08 0)
(7.4781e-07 -8.39146e-08 0)
(7.73068e-07 -8.4224e-08 0)
(7.98368e-07 -8.44781e-08 0)
(8.23707e-07 -8.46447e-08 0)
(8.49068e-07 -8.4672e-08 0)
(8.74454e-07 -8.45191e-08 0)
(8.99907e-07 -8.41964e-08 0)
(9.25442e-07 -8.37047e-08 0)
(9.51051e-07 -8.30382e-08 0)
(9.76765e-07 -8.21689e-08 0)
(1.00251e-06 -8.10832e-08 0)
(1.02833e-06 -7.97307e-08 0)
(1.05415e-06 -7.812e-08 0)
(5.31591e-07 -1.00753e-07 0)
(5.60015e-07 -9.87524e-08 0)
(5.88633e-07 -9.73689e-08 0)
(6.16552e-07 -9.66922e-08 0)
(6.44269e-07 -9.63611e-08 0)
(6.7165e-07 -9.62926e-08 0)
(6.98844e-07 -9.63694e-08 0)
(7.25882e-07 -9.65222e-08 0)
(7.52822e-07 -9.67068e-08 0)
(7.7969e-07 -9.68664e-08 0)
(8.06497e-07 -9.695e-08 0)
(8.33257e-07 -9.69051e-08 0)
(8.59997e-07 -9.66996e-08 0)
(8.86774e-07 -9.6337e-08 0)
(9.1359e-07 -9.5805e-08 0)
(9.40448e-07 -9.5089e-08 0)
(9.67366e-07 -9.41454e-08 0)
(9.94264e-07 -9.29502e-08 0)
(1.02122e-06 -9.14532e-08 0)
(1.04814e-06 -8.96554e-08 0)
(4.91822e-07 -1.18692e-07 0)
(5.24005e-07 -1.14545e-07 0)
(5.5574e-07 -1.12128e-07 0)
(5.8639e-07 -1.10699e-07 0)
(6.16415e-07 -1.09875e-07 0)
(6.4593e-07 -1.09431e-07 0)
(6.75041e-07 -1.09221e-07 0)
(7.03853e-07 -1.09161e-07 0)
(7.32448e-07 -1.09193e-07 0)
(7.60865e-07 -1.0924e-07 0)
(7.89132e-07 -1.09242e-07 0)
(8.17285e-07 -1.09143e-07 0)
(8.45372e-07 -1.0891e-07 0)
(8.73453e-07 -1.08533e-07 0)
(9.01517e-07 -1.07988e-07 0)
(9.2959e-07 -1.07249e-07 0)
(9.57688e-07 -1.06266e-07 0)
(9.85744e-07 -1.04983e-07 0)
(1.01384e-06 -1.03364e-07 0)
(1.04192e-06 -1.01376e-07 0)
(4.58038e-07 -1.40017e-07 0)
(4.94525e-07 -1.32845e-07 0)
(5.29265e-07 -1.28907e-07 0)
(5.62621e-07 -1.26242e-07 0)
(5.94809e-07 -1.24547e-07 0)
(6.26173e-07 -1.23447e-07 0)
(6.56878e-07 -1.2274e-07 0)
(6.8711e-07 -1.22304e-07 0)
(7.16975e-07 -1.22037e-07 0)
(7.46538e-07 -1.21838e-07 0)
(7.75862e-07 -1.2164e-07 0)
(8.05002e-07 -1.21387e-07 0)
(8.34019e-07 -1.21035e-07 0)
(8.62974e-07 -1.20561e-07 0)
(8.91841e-07 -1.19932e-07 0)
(9.20673e-07 -1.19103e-07 0)
(9.49465e-07 -1.18036e-07 0)
(9.78218e-07 -1.16641e-07 0)
(1.00698e-06 -1.14893e-07 0)
(1.03572e-06 -1.12701e-07 0)
(4.40896e-07 -1.59631e-07 0)
(4.77867e-07 -1.51947e-07 0)
(5.13139e-07 -1.46836e-07 0)
(5.47399e-07 -1.43121e-07 0)
(5.80595e-07 -1.40524e-07 0)
(6.12933e-07 -1.38683e-07 0)
(6.44572e-07 -1.37368e-07 0)
(6.75659e-07 -1.36426e-07 0)
(7.06286e-07 -1.35725e-07 0)
(7.3653e-07 -1.35155e-07 0)
(7.66471e-07 -1.34644e-07 0)
(7.96173e-07 -1.34128e-07 0)
(8.25697e-07 -1.33548e-07 0)
(8.55095e-07 -1.3287e-07 0)
(8.84339e-07 -1.32058e-07 0)
(9.13515e-07 -1.31048e-07 0)
(9.4258e-07 -1.29819e-07 0)
(9.71594e-07 -1.28262e-07 0)
(1.00057e-06 -1.26353e-07 0)
(1.02947e-06 -1.23945e-07 0)
(4.28413e-07 -1.77166e-07 0)
(4.64824e-07 -1.69721e-07 0)
(5.00191e-07 -1.6425e-07 0)
(5.3479e-07 -1.59988e-07 0)
(5.68509e-07 -1.56768e-07 0)
(6.01441e-07 -1.54322e-07 0)
(6.33705e-07 -1.52454e-07 0)
(6.65389e-07 -1.51013e-07 0)
(6.96567e-07 -1.49867e-07 0)
(7.27321e-07 -1.4891e-07 0)
(7.57735e-07 -1.48065e-07 0)
(7.87863e-07 -1.4726e-07 0)
(8.17768e-07 -1.46427e-07 0)
(8.47497e-07 -1.45522e-07 0)
(8.7702e-07 -1.44506e-07 0)
(9.06445e-07 -1.43303e-07 0)
(9.3572e-07 -1.41902e-07 0)
(9.64925e-07 -1.4019e-07 0)
(9.94039e-07 -1.38128e-07 0)
(1.02306e-06 -1.35544e-07 0)
(4.1817e-07 -1.94136e-07 0)
(4.54004e-07 -1.86986e-07 0)
(4.8913e-07 -1.81337e-07 0)
(5.23753e-07 -1.76699e-07 0)
(5.57655e-07 -1.72998e-07 0)
(5.9091e-07 -1.70047e-07 0)
(6.23561e-07 -1.67691e-07 0)
(6.5565e-07 -1.65789e-07 0)
(6.87237e-07 -1.64221e-07 0)
(7.18394e-07 -1.62888e-07 0)
(7.49192e-07 -1.61716e-07 0)
(7.79674e-07 -1.60624e-07 0)
(8.099e-07 -1.59537e-07 0)
(8.39914e-07 -1.58405e-07 0)
(8.69692e-07 -1.57184e-07 0)
(8.99341e-07 -1.55796e-07 0)
(9.28811e-07 -1.54234e-07 0)
(9.58195e-07 -1.52382e-07 0)
(9.87437e-07 -1.50183e-07 0)
(1.01661e-06 -1.47484e-07 0)
(4.09611e-07 -2.10311e-07 0)
(4.4489e-07 -2.03543e-07 0)
(4.79667e-07 -1.97937e-07 0)
(5.14127e-07 -1.93122e-07 0)
(5.48022e-07 -1.89106e-07 0)
(5.81406e-07 -1.85776e-07 0)
(6.14254e-07 -1.83015e-07 0)
(6.46591e-07 -1.80709e-07 0)
(6.7846e-07 -1.78758e-07 0)
(7.09917e-07 -1.77076e-07 0)
(7.41013e-07 -1.75589e-07 0)
(7.71774e-07 -1.74215e-07 0)
(8.02262e-07 -1.72875e-07 0)
(8.32511e-07 -1.71521e-07 0)
(8.62508e-07 -1.70101e-07 0)
(8.92357e-07 -1.68539e-07 0)
(9.21997e-07 -1.66825e-07 0)
(9.51531e-07 -1.64839e-07 0)
(9.80902e-07 -1.62525e-07 0)
(1.01022e-06 -1.59782e-07 0)
(4.02279e-07 -2.25948e-07 0)
(4.37056e-07 -2.19546e-07 0)
(4.71493e-07 -2.1406e-07 0)
(5.05687e-07 -2.09187e-07 0)
(5.39476e-07 -2.04979e-07 0)
(5.72851e-07 -2.01374e-07 0)
(6.05767e-07 -1.98292e-07 0)
(6.38239e-07 -1.95653e-07 0)
(6.7029e-07 -1.93374e-07 0)
(7.01956e-07 -1.91381e-07 0)
(7.3327e-07 -1.89607e-07 0)
(7.64242e-07 -1.87969e-07 0)
(7.94935e-07 -1.8639e-07 0)
(8.25373e-07 -1.84824e-07 0)
(8.55546e-07 -1.83212e-07 0)
(8.85557e-07 -1.81491e-07 0)
(9.1534e-07 -1.79636e-07 0)
(9.44998e-07 -1.77533e-07 0)
(9.74505e-07 -1.75145e-07 0)
(1.00395e-06 -1.72405e-07 0)
(3.95966e-07 -2.41146e-07 0)
(4.30297e-07 -2.35088e-07 0)
(4.64393e-07 -2.29757e-07 0)
(4.98302e-07 -2.24902e-07 0)
(5.31918e-07 -2.20597e-07 0)
(5.65191e-07 -2.16801e-07 0)
(5.98088e-07 -2.13477e-07 0)
(6.30609e-07 -2.10574e-07 0)
(6.62755e-07 -2.08019e-07 0)
(6.94545e-07 -2.05754e-07 0)
(7.26e-07 -2.0372e-07 0)
(7.57116e-07 -2.01839e-07 0)
(7.87956e-07 -2.00035e-07 0)
(8.18533e-07 -1.98274e-07 0)
(8.48843e-07 -1.9648e-07 0)
(8.78976e-07 -1.9461e-07 0)
(9.08875e-07 -1.9263e-07 0)
(9.38643e-07 -1.90437e-07 0)
(9.68278e-07 -1.88022e-07 0)
(9.97807e-07 -1.85289e-07 0)
(3.90503e-07 -2.55996e-07 0)
(4.24461e-07 -2.50242e-07 0)
(4.58215e-07 -2.45082e-07 0)
(4.91845e-07 -2.40294e-07 0)
(5.25238e-07 -2.35951e-07 0)
(5.58356e-07 -2.32032e-07 0)
(5.91174e-07 -2.28531e-07 0)
(6.23673e-07 -2.25422e-07 0)
(6.55835e-07 -2.22636e-07 0)
(6.87675e-07 -2.20136e-07 0)
(7.19201e-07 -2.17872e-07 0)
(7.50403e-07 -2.1577e-07 0)
(7.81342e-07 -2.13757e-07 0)
(8.12013e-07 -2.11814e-07 0)
(8.42425e-07 -2.09856e-07 0)
(8.72652e-07 -2.07852e-07 0)
(9.02648e-07 -2.05771e-07 0)
(9.32521e-07 -2.03524e-07 0)
(9.62252e-07 -2.0111e-07 0)
(9.91858e-07 -1.98378e-07 0)
(3.85725e-07 -2.70558e-07 0)
(4.19346e-07 -2.65076e-07 0)
(4.52793e-07 -2.60088e-07 0)
(4.86147e-07 -2.55387e-07 0)
(5.19301e-07 -2.51044e-07 0)
(5.52247e-07 -2.4705e-07 0)
(5.84947e-07 -2.43424e-07 0)
(6.17374e-07 -2.40152e-07 0)
(6.49498e-07 -2.37176e-07 0)
(6.81332e-07 -2.34475e-07 0)
(7.1288e-07 -2.32011e-07 0)
(7.44123e-07 -2.29714e-07 0)
(7.75121e-07 -2.27515e-07 0)
(8.05854e-07 -2.25406e-07 0)
(8.36337e-07 -2.23303e-07 0)
(8.66639e-07 -2.21188e-07 0)
(8.96718e-07 -2.19041e-07 0)
(9.26683e-07 -2.16771e-07 0)
(9.5647e-07 -2.14357e-07 0)
(9.86162e-07 -2.11663e-07 0)
(3.81516e-07 -2.84876e-07 0)
(4.14816e-07 -2.79645e-07 0)
(4.47993e-07 -2.74819e-07 0)
(4.81078e-07 -2.70211e-07 0)
(5.1401e-07 -2.65889e-07 0)
(5.46781e-07 -2.61853e-07 0)
(5.79344e-07 -2.58137e-07 0)
(6.11669e-07 -2.54742e-07 0)
(6.43721e-07 -2.51613e-07 0)
(6.75518e-07 -2.48746e-07 0)
(7.0705e-07 -2.46109e-07 0)
(7.383e-07 -2.4364e-07 0)
(7.6932e-07 -2.41279e-07 0)
(8.00086e-07 -2.39026e-07 0)
(8.30614e-07 -2.36803e-07 0)
(8.60972e-07 -2.34606e-07 0)
(8.91115e-07 -2.32417e-07 0)
(9.21133e-07 -2.30138e-07 0)
(9.50964e-07 -2.27725e-07 0)
(9.80723e-07 -2.25132e-07 0)
(3.7777e-07 -2.98991e-07 0)
(4.10784e-07 -2.93991e-07 0)
(4.43707e-07 -2.89309e-07 0)
(4.76553e-07 -2.84793e-07 0)
(5.09291e-07 -2.80509e-07 0)
(5.4189e-07 -2.76455e-07 0)
(5.74307e-07 -2.72679e-07 0)
(6.06515e-07 -2.69191e-07 0)
(6.38476e-07 -2.65942e-07 0)
(6.70211e-07 -2.62935e-07 0)
(7.01701e-07 -2.60149e-07 0)
(7.3293e-07 -2.57528e-07 0)
(7.63946e-07 -2.55023e-07 0)
(7.94724e-07 -2.52645e-07 0)
(8.25278e-07 -2.50326e-07 0)
(8.55675e-07 -2.48069e-07 0)
(8.85856e-07 -2.4585e-07 0)
(9.15892e-07 -2.43561e-07 0)
(9.45778e-07 -2.41185e-07 0)
(9.75561e-07 -2.38705e-07 0)
(3.74418e-07 -3.12939e-07 0)
(4.07182e-07 -3.0814e-07 0)
(4.39874e-07 -3.03591e-07 0)
(4.72522e-07 -2.9917e-07 0)
(5.0508e-07 -2.94934e-07 0)
(5.3751e-07 -2.90878e-07 0)
(5.69777e-07 -2.87062e-07 0)
(6.01861e-07 -2.83499e-07 0)
(6.33722e-07 -2.80155e-07 0)
(6.65385e-07 -2.77022e-07 0)
(6.96822e-07 -2.74101e-07 0)
(7.28018e-07 -2.71345e-07 0)
(7.59019e-07 -2.68714e-07 0)
(7.89802e-07 -2.66236e-07 0)
(8.20373e-07 -2.63846e-07 0)
(8.50791e-07 -2.61546e-07 0)
(8.80983e-07 -2.593e-07 0)
(9.11032e-07 -2.57013e-07 0)
(9.40952e-07 -2.54728e-07 0)
(9.70752e-07 -2.52338e-07 0)
(3.71447e-07 -3.26742e-07 0)
(4.03984e-07 -3.22118e-07 0)
(4.36478e-07 -3.17702e-07 0)
(4.68944e-07 -3.13374e-07 0)
(5.01324e-07 -3.09183e-07 0)
(5.33588e-07 -3.05127e-07 0)
(5.65713e-07 -3.01282e-07 0)
(5.97678e-07 -2.97654e-07 0)
(6.2945e-07 -2.94233e-07 0)
(6.61043e-07 -2.90997e-07 0)
(6.92427e-07 -2.87966e-07 0)
(7.23586e-07 -2.851e-07 0)
(7.54566e-07 -2.82371e-07 0)
(7.8534e-07 -2.79813e-07 0)
(8.15907e-07 -2.77367e-07 0)
(8.46318e-07 -2.75024e-07 0)
(8.76496e-07 -2.72756e-07 0)
(9.06562e-07 -2.70501e-07 0)
(9.36462e-07 -2.68309e-07 0)
(9.66282e-07 -2.66043e-07 0)
(3.68831e-07 -3.40418e-07 0)
(4.01168e-07 -3.35964e-07 0)
(4.33485e-07 -3.31669e-07 0)
(4.65767e-07 -3.27418e-07 0)
(4.97976e-07 -3.23264e-07 0)
(5.3009e-07 -3.19214e-07 0)
(5.62096e-07 -3.15357e-07 0)
(5.93955e-07 -3.11686e-07 0)
(6.25644e-07 -3.08204e-07 0)
(6.57159e-07 -3.04884e-07 0)
(6.88482e-07 -3.01752e-07 0)
(7.19599e-07 -2.98784e-07 0)
(7.50553e-07 -2.95963e-07 0)
(7.81311e-07 -2.93332e-07 0)
(8.11861e-07 -2.90825e-07 0)
(8.42247e-07 -2.88436e-07 0)
(8.72405e-07 -2.8616e-07 0)
(9.02465e-07 -2.83965e-07 0)
(9.32344e-07 -2.81832e-07 0)
(9.62156e-07 -2.79741e-07 0)
(3.66518e-07 -3.54001e-07 0)
(3.9868e-07 -3.4971e-07 0)
(4.30818e-07 -3.45506e-07 0)
(4.62924e-07 -3.41315e-07 0)
(4.94987e-07 -3.37198e-07 0)
(5.26973e-07 -3.3317e-07 0)
(5.58875e-07 -3.29306e-07 0)
(5.90632e-07 -3.25601e-07 0)
(6.22242e-07 -3.22045e-07 0)
(6.53696e-07 -3.18642e-07 0)
(6.84976e-07 -3.15432e-07 0)
(7.16067e-07 -3.12389e-07 0)
(7.47005e-07 -3.09498e-07 0)
(7.77745e-07 -3.068e-07 0)
(8.08263e-07 -3.04231e-07 0)
(8.38618e-07 -3.01803e-07 0)
(8.68772e-07 -2.99535e-07 0)
(8.98797e-07 -2.97395e-07 0)
(9.28676e-07 -2.95347e-07 0)
(9.5846e-07 -2.93411e-07 0)
(3.64439e-07 -3.67533e-07 0)
(3.9643e-07 -3.63352e-07 0)
(4.28404e-07 -3.59217e-07 0)
(4.60365e-07 -3.55088e-07 0)
(4.9231e-07 -3.5101e-07 0)
(5.24191e-07 -3.47007e-07 0)
(5.56004e-07 -3.43125e-07 0)
(5.87687e-07 -3.39399e-07 0)
(6.19225e-07 -3.35795e-07 0)
(6.50625e-07 -3.32323e-07 0)
(6.81873e-07 -3.29041e-07 0)
(7.12944e-07 -3.25927e-07 0)
(7.43858e-07 -3.22961e-07 0)
(7.74565e-07 -3.20184e-07 0)
(8.05055e-07 -3.1755e-07 0)
(8.354e-07 -3.15099e-07 0)
(8.65548e-07 -3.12853e-07 0)
(8.9554e-07 -3.10723e-07 0)
(9.25385e-07 -3.08787e-07 0)
(9.55152e-07 -3.07026e-07 0)
(3.62521e-07 -3.81004e-07 0)
(3.94365e-07 -3.76919e-07 0)
(4.26201e-07 -3.72842e-07 0)
(4.58052e-07 -3.68774e-07 0)
(4.89897e-07 -3.64723e-07 0)
(5.21703e-07 -3.6073e-07 0)
(5.53428e-07 -3.56841e-07 0)
(5.85044e-07 -3.53081e-07 0)
(6.16533e-07 -3.49427e-07 0)
(6.4791e-07 -3.45904e-07 0)
(6.79146e-07 -3.42565e-07 0)
(7.102e-07 -3.39375e-07 0)
(7.41089e-07 -3.36321e-07 0)
(7.71775e-07 -3.33472e-07 0)
(8.02268e-07 -3.30801e-07 0)
(8.32636e-07 -3.28325e-07 0)
(8.62763e-07 -3.26049e-07 0)
(8.92733e-07 -3.23939e-07 0)
(9.22519e-07 -3.22126e-07 0)
(9.5231e-07 -3.20539e-07 0)
(3.60751e-07 -3.94416e-07 0)
(3.92455e-07 -3.90442e-07 0)
(4.24193e-07 -3.86409e-07 0)
(4.55963e-07 -3.82374e-07 0)
(4.87732e-07 -3.7837e-07 0)
(5.19459e-07 -3.74377e-07 0)
(5.5112e-07 -3.70467e-07 0)
(5.82692e-07 -3.6668e-07 0)
(6.14162e-07 -3.62996e-07 0)
(6.45534e-07 -3.59422e-07 0)
(6.76756e-07 -3.56009e-07 0)
(7.07781e-07 -3.52747e-07 0)
(7.38668e-07 -3.49633e-07 0)
(7.69398e-07 -3.46716e-07 0)
(7.99932e-07 -3.43978e-07 0)
(8.30276e-07 -3.41468e-07 0)
(8.60369e-07 -3.39156e-07 0)
(8.904e-07 -3.3708e-07 0)
(9.20218e-07 -3.35356e-07 0)
(9.49905e-07 -3.33965e-07 0)
(3.59069e-07 -4.07857e-07 0)
(3.90658e-07 -4.03931e-07 0)
(4.22338e-07 -3.99934e-07 0)
(4.54046e-07 -3.95935e-07 0)
(4.85738e-07 -3.91926e-07 0)
(5.17393e-07 -3.87938e-07 0)
(5.49023e-07 -3.84017e-07 0)
(5.80596e-07 -3.80196e-07 0)
(6.12061e-07 -3.76462e-07 0)
(6.43401e-07 -3.72838e-07 0)
(6.74608e-07 -3.69368e-07 0)
(7.05687e-07 -3.66029e-07 0)
(7.36638e-07 -3.62838e-07 0)
(7.67369e-07 -3.59878e-07 0)
(7.97911e-07 -3.57074e-07 0)
(8.28342e-07 -3.54466e-07 0)
(8.58535e-07 -3.52143e-07 0)
(8.88556e-07 -3.50084e-07 0)
(9.18424e-07 -3.48388e-07 0)
(9.48107e-07 -3.47174e-07 0)
(3.57483e-07 -4.21252e-07 0)
(3.89005e-07 -4.17405e-07 0)
(4.2062e-07 -4.1345e-07 0)
(4.52252e-07 -4.0946e-07 0)
(4.83894e-07 -4.05447e-07 0)
(5.15546e-07 -4.0144e-07 0)
(5.47174e-07 -3.97505e-07 0)
(5.78717e-07 -3.93667e-07 0)
(6.10165e-07 -3.89887e-07 0)
(6.41554e-07 -3.86187e-07 0)
(6.72829e-07 -3.82665e-07 0)
(7.0392e-07 -3.79297e-07 0)
(7.34899e-07 -3.76025e-07 0)
(7.65737e-07 -3.72967e-07 0)
(7.96354e-07 -3.70127e-07 0)
(8.26843e-07 -3.67457e-07 0)
(8.57178e-07 -3.65094e-07 0)
(8.87288e-07 -3.62967e-07 0)
(9.17274e-07 -3.61265e-07 0)
(9.46976e-07 -3.60106e-07 0)
(2.12679e-08 -2.73749e-07 0)
(6.39005e-08 -2.70293e-07 0)
(1.06707e-07 -2.63399e-07 0)
(1.49833e-07 -2.53511e-07 0)
(1.93273e-07 -2.4092e-07 0)
(2.3701e-07 -2.26154e-07 0)
(2.81007e-07 -2.09782e-07 0)
(3.25138e-07 -1.92278e-07 0)
(3.69759e-07 -1.7408e-07 0)
(4.14032e-07 -1.55311e-07 0)
(2.09733e-08 -2.81821e-07 0)
(6.30071e-08 -2.78669e-07 0)
(1.05109e-07 -2.72357e-07 0)
(1.47402e-07 -2.63311e-07 0)
(1.89845e-07 -2.51745e-07 0)
(2.32362e-07 -2.38111e-07 0)
(2.74923e-07 -2.22882e-07 0)
(3.17243e-07 -2.06534e-07 0)
(3.59593e-07 -1.89404e-07 0)
(4.00747e-07 -1.7245e-07 0)
(2.06197e-08 -2.9009e-07 0)
(6.19389e-08 -2.87224e-07 0)
(1.03271e-07 -2.81426e-07 0)
(1.4466e-07 -2.73105e-07 0)
(1.86108e-07 -2.62455e-07 0)
(2.27475e-07 -2.4986e-07 0)
(2.68749e-07 -2.3574e-07 0)
(3.09684e-07 -2.20539e-07 0)
(3.50469e-07 -2.04528e-07 0)
(3.90097e-07 -1.88926e-07 0)
(2.02911e-08 -2.98506e-07 0)
(6.09227e-08 -2.95859e-07 0)
(1.01584e-07 -2.90492e-07 0)
(1.42198e-07 -2.82789e-07 0)
(1.82812e-07 -2.72924e-07 0)
(2.23254e-07 -2.61215e-07 0)
(2.63505e-07 -2.48089e-07 0)
(3.03334e-07 -2.33963e-07 0)
(3.42805e-07 -2.19116e-07 0)
(3.81176e-07 -2.04771e-07 0)
(2.00059e-08 -3.07064e-07 0)
(5.99748e-08 -3.04632e-07 0)
(9.99925e-08 -2.99666e-07 0)
(1.399e-07 -2.92525e-07 0)
(1.79754e-07 -2.83369e-07 0)
(2.19386e-07 -2.72514e-07 0)
(2.58765e-07 -2.60347e-07 0)
(2.97705e-07 -2.47213e-07 0)
(3.36154e-07 -2.33423e-07 0)
(3.73569e-07 -2.20115e-07 0)
(1.9722e-08 -3.15761e-07 0)
(5.9105e-08 -3.13503e-07 0)
(9.85099e-08 -3.08896e-07 0)
(1.37792e-07 -3.02279e-07 0)
(1.76974e-07 -2.93774e-07 0)
(2.15939e-07 -2.83699e-07 0)
(2.54564e-07 -2.72407e-07 0)
(2.92736e-07 -2.60199e-07 0)
(3.30346e-07 -2.47402e-07 0)
(3.66969e-07 -2.35051e-07 0)
(1.94368e-08 -3.24586e-07 0)
(5.8288e-08 -3.22488e-07 0)
(9.71195e-08 -3.18225e-07 0)
(1.3585e-07 -3.12076e-07 0)
(1.74418e-07 -3.04177e-07 0)
(2.12786e-07 -2.94825e-07 0)
(2.50794e-07 -2.84346e-07 0)
(2.8832e-07 -2.73008e-07 0)
(3.25247e-07 -2.61129e-07 0)
(3.61235e-07 -2.49643e-07 0)
(1.9198e-08 -3.33524e-07 0)
(5.753e-08 -3.31578e-07 0)
(9.5828e-08 -3.27637e-07 0)
(1.34055e-07 -3.21918e-07 0)
(1.72091e-07 -3.14591e-07 0)
(2.09912e-07 -3.05908e-07 0)
(2.4738e-07 -2.96191e-07 0)
(2.84372e-07 -2.85674e-07 0)
(3.2075e-07 -2.74649e-07 0)
(3.56236e-07 -2.63952e-07 0)
(1.89884e-08 -3.42577e-07 0)
(5.68231e-08 -3.40772e-07 0)
(9.46419e-08 -3.37123e-07 0)
(1.32396e-07 -3.31816e-07 0)
(1.69955e-07 -3.25038e-07 0)
(2.07308e-07 -3.16976e-07 0)
(2.44293e-07 -3.07969e-07 0)
(2.80821e-07 -2.98222e-07 0)
(3.16748e-07 -2.87995e-07 0)
(3.51838e-07 -2.78029e-07 0)
(1.87635e-08 -3.51755e-07 0)
(5.61573e-08 -3.50072e-07 0)
(9.35474e-08 -3.46695e-07 0)
(1.3087e-07 -3.41779e-07 0)
(1.67982e-07 -3.35519e-07 0)
(2.04925e-07 -3.28039e-07 0)
(2.41486e-07 -3.19692e-07 0)
(2.77608e-07 -3.10667e-07 0)
(3.13156e-07 -3.01189e-07 0)
(3.47925e-07 -2.91909e-07 0)
(1.85318e-08 -3.61048e-07 0)
(5.55522e-08 -3.59477e-07 0)
(9.2536e-08 -3.56362e-07 0)
(1.29465e-07 -3.51814e-07 0)
(1.66164e-07 -3.46029e-07 0)
(2.02725e-07 -3.39101e-07 0)
(2.38918e-07 -3.31371e-07 0)
(2.74688e-07 -3.23026e-07 0)
(3.09915e-07 -3.1425e-07 0)
(3.44413e-07 -3.05617e-07 0)
(1.83295e-08 -3.70448e-07 0)
(5.50169e-08 -3.68992e-07 0)
(9.16043e-08 -3.66127e-07 0)
(1.28166e-07 -3.6192e-07 0)
(1.64499e-07 -3.56573e-07 0)
(2.00696e-07 -3.50171e-07 0)
(2.36563e-07 -3.43026e-07 0)
(2.7203e-07 -3.35317e-07 0)
(3.06983e-07 -3.27193e-07 0)
(3.41272e-07 -3.19168e-07 0)
(1.81627e-08 -3.79962e-07 0)
(5.45208e-08 -3.78621e-07 0)
(9.07326e-08 -3.75988e-07 0)
(1.26944e-07 -3.72099e-07 0)
(1.62955e-07 -3.67162e-07 0)
(1.98816e-07 -3.61257e-07 0)
(2.3439e-07 -3.54664e-07 0)
(2.69593e-07 -3.47543e-07 0)
(3.04331e-07 -3.40033e-07 0)
(3.3849e-07 -3.32593e-07 0)
(1.80042e-08 -3.89604e-07 0)
(5.40201e-08 -3.88369e-07 0)
(8.98903e-08 -3.85946e-07 0)
(1.25769e-07 -3.82356e-07 0)
(1.61486e-07 -3.77802e-07 0)
(1.97048e-07 -3.72366e-07 0)
(2.32362e-07 -3.66291e-07 0)
(2.67348e-07 -3.59725e-07 0)
(3.01935e-07 -3.52814e-07 0)
(3.36018e-07 -3.45939e-07 0)
(1.78323e-08 -3.99378e-07 0)
(5.35007e-08 -3.98237e-07 0)
(8.90652e-08 -3.96004e-07 0)
(1.24631e-07 -3.927e-07 0)
(1.6007e-07 -3.88512e-07 0)
(1.95362e-07 -3.83519e-07 0)
(2.30446e-07 -3.77925e-07 0)
(2.65266e-07 -3.71886e-07 0)
(2.99746e-07 -3.65556e-07 0)
(3.33788e-07 -3.59212e-07 0)
(1.7652e-08 -4.09277e-07 0)
(5.29854e-08 -4.08224e-07 0)
(8.82655e-08 -4.06175e-07 0)
(1.23526e-07 -4.03145e-07 0)
(1.58691e-07 -3.9929e-07 0)
(1.93737e-07 -3.94697e-07 0)
(2.28626e-07 -3.89565e-07 0)
(2.63331e-07 -3.84047e-07 0)
(2.97727e-07 -3.78268e-07 0)
(3.31771e-07 -3.72436e-07 0)
(1.74813e-08 -4.19295e-07 0)
(5.24939e-08 -4.18335e-07 0)
(8.74834e-08 -4.16455e-07 0)
(1.22441e-07 -4.13675e-07 0)
(1.57343e-07 -4.10144e-07 0)
(1.92167e-07 -4.05936e-07 0)
(2.26897e-07 -4.01251e-07 0)
(2.61491e-07 -3.96243e-07 0)
(2.95831e-07 -3.90966e-07 0)
(3.29885e-07 -3.85636e-07 0)
(1.73229e-08 -4.29437e-07 0)
(5.20119e-08 -4.28563e-07 0)
(8.66944e-08 -4.26838e-07 0)
(1.21352e-07 -4.24296e-07 0)
(1.55999e-07 -4.21058e-07 0)
(1.90625e-07 -4.17218e-07 0)
(2.25214e-07 -4.12962e-07 0)
(2.59695e-07 -4.08424e-07 0)
(2.94015e-07 -4.03645e-07 0)
(3.28107e-07 -3.98786e-07 0)
(1.7166e-08 -4.39685e-07 0)
(5.15141e-08 -4.38895e-07 0)
(8.58733e-08 -4.3732e-07 0)
(1.20246e-07 -4.34998e-07 0)
(1.54649e-07 -4.32052e-07 0)
(1.89092e-07 -4.28574e-07 0)
(2.23547e-07 -4.24734e-07 0)
(2.57952e-07 -4.20632e-07 0)
(2.92236e-07 -4.1635e-07 0)
(3.26401e-07 -4.11956e-07 0)
(1.70002e-08 -4.50051e-07 0)
(5.09993e-08 -4.49328e-07 0)
(8.50236e-08 -4.47903e-07 0)
(1.19114e-07 -4.45795e-07 0)
(1.53301e-07 -4.43122e-07 0)
(1.87586e-07 -4.39991e-07 0)
(2.21911e-07 -4.3654e-07 0)
(2.56281e-07 -4.32859e-07 0)
(2.90562e-07 -4.29039e-07 0)
(3.24863e-07 -4.25091e-07 0)
)


// ************************************************************************* //
