/*--------------------------------*- C++ -*----------------------------------*\
| =========                 |                                                 |
| \\      /  F ield         | foam-extend: Open Source CFD                    |
|  \\    /   O peration     | Version:     4.1                                |
|   \\  /    A nd           | Web:         http://www.foam-extend.org         |
|    \\/     M anipulation  |                                                 |
\*---------------------------------------------------------------------------*/
FoamFile
{
    version     2.0;
    format      ascii;
    class       vectorField;
    location    "1";
    object      solidsCellD_iteration10;
}
// * * * * * * * * * * * * * * * * * * * * * * * * * * * * * * * * * * * * * //


1000
(
(4.27797e-07 -1.20056e-07 0)
(4.10091e-07 -1.15162e-07 0)
(4.00081e-07 -1.1355e-07 0)
(3.95532e-07 -1.14735e-07 0)
(3.94929e-07 -1.17719e-07 0)
(3.97272e-07 -1.22014e-07 0)
(4.01803e-07 -1.27236e-07 0)
(4.07826e-07 -1.33265e-07 0)
(4.15377e-07 -1.39683e-07 0)
(4.22632e-07 -1.46452e-07 0)
(3.87729e-07 -1.31436e-07 0)
(3.6891e-07 -1.29588e-07 0)
(3.5804e-07 -1.29977e-07 0)
(3.52778e-07 -1.32581e-07 0)
(3.51422e-07 -1.3657e-07 0)
(3.52968e-07 -1.41583e-07 0)
(3.56659e-07 -1.47292e-07 0)
(3.61817e-07 -1.53702e-07 0)
(3.68345e-07 -1.6027e-07 0)
(3.74894e-07 -1.67489e-07 0)
(3.45808e-07 -1.4216e-07 0)
(3.26554e-07 -1.43699e-07 0)
(3.15248e-07 -1.46293e-07 0)
(3.09567e-07 -1.50362e-07 0)
(3.07764e-07 -1.55323e-07 0)
(3.08761e-07 -1.60985e-07 0)
(3.11847e-07 -1.67141e-07 0)
(3.1642e-07 -1.73805e-07 0)
(3.22304e-07 -1.80498e-07 0)
(3.28456e-07 -1.87687e-07 0)
(3.02313e-07 -1.52063e-07 0)
(2.83552e-07 -1.57098e-07 0)
(2.72376e-07 -1.61945e-07 0)
(2.66565e-07 -1.67474e-07 0)
(2.64514e-07 -1.73401e-07 0)
(2.6514e-07 -1.79682e-07 0)
(2.67685e-07 -1.86229e-07 0)
(2.71736e-07 -1.93098e-07 0)
(2.76999e-07 -1.99926e-07 0)
(2.82718e-07 -2.07143e-07 0)
(2.57731e-07 -1.6093e-07 0)
(2.40151e-07 -1.6939e-07 0)
(2.29588e-07 -1.76429e-07 0)
(2.24041e-07 -1.83377e-07 0)
(2.21952e-07 -1.90219e-07 0)
(2.22268e-07 -1.97107e-07 0)
(2.24355e-07 -2.04036e-07 0)
(2.27863e-07 -2.11113e-07 0)
(2.32513e-07 -2.1811e-07 0)
(2.37634e-07 -2.25381e-07 0)
(2.12033e-07 -1.68639e-07 0)
(1.96512e-07 -1.8026e-07 0)
(1.87154e-07 -1.8934e-07 0)
(1.82125e-07 -1.97634e-07 0)
(1.80115e-07 -2.05336e-07 0)
(1.80199e-07 -2.12777e-07 0)
(1.81918e-07 -2.20045e-07 0)
(1.84892e-07 -2.27317e-07 0)
(1.88842e-07 -2.34493e-07 0)
(1.93209e-07 -2.41849e-07 0)
(1.65679e-07 -1.74958e-07 0)
(1.52811e-07 -1.89363e-07 0)
(1.45024e-07 -2.00245e-07 0)
(1.40777e-07 -2.0972e-07 0)
(1.39035e-07 -2.18162e-07 0)
(1.39039e-07 -2.26083e-07 0)
(1.40404e-07 -2.33654e-07 0)
(1.42772e-07 -2.41118e-07 0)
(1.45912e-07 -2.48469e-07 0)
(1.49402e-07 -2.55903e-07 0)
(1.18759e-07 -1.79834e-07 0)
(1.0907e-07 -1.96483e-07 0)
(1.03228e-07 -2.08771e-07 0)
(1.00057e-07 -2.19144e-07 0)
(9.87481e-08 -2.28203e-07 0)
(9.87233e-08 -2.36527e-07 0)
(9.9684e-08 -2.44377e-07 0)
(1.0138e-07 -2.51998e-07 0)
(1.03652e-07 -2.59492e-07 0)
(1.06192e-07 -2.66995e-07 0)
(7.14063e-08 -1.83143e-07 0)
(6.54151e-08 -2.01328e-07 0)
(6.1841e-08 -2.14587e-07 0)
(5.98552e-08 -2.25644e-07 0)
(5.89925e-08 -2.35137e-07 0)
(5.89409e-08 -2.4371e-07 0)
(5.95427e-08 -2.51758e-07 0)
(6.06011e-08 -2.59536e-07 0)
(6.19705e-08 -2.67154e-07 0)
(6.35023e-08 -2.7471e-07 0)
(2.38511e-08 -1.8481e-07 0)
(2.18377e-08 -2.03808e-07 0)
(2.0577e-08 -2.17559e-07 0)
(1.98982e-08 -2.28935e-07 0)
(1.96513e-08 -2.38643e-07 0)
(1.96308e-08 -2.47376e-07 0)
(1.97865e-08 -2.55504e-07 0)
(2.01344e-08 -2.63325e-07 0)
(2.06129e-08 -2.71007e-07 0)
(2.11257e-08 -2.78606e-07 0)
(6.55112e-07 -5.36965e-09 0)
(6.59466e-07 -3.93641e-09 0)
(6.63526e-07 -3.10776e-09 0)
(6.68538e-07 -2.69699e-09 0)
(6.74721e-07 -2.55583e-09 0)
(6.82136e-07 -2.62521e-09 0)
(6.90868e-07 -2.83432e-09 0)
(7.00743e-07 -3.07847e-09 0)
(7.11842e-07 -3.43813e-09 0)
(7.23972e-07 -3.86526e-09 0)
(6.50556e-07 -1.61711e-08 0)
(6.54197e-07 -1.1952e-08 0)
(6.5782e-07 -9.47322e-09 0)
(6.62496e-07 -8.3197e-09 0)
(6.68444e-07 -7.99644e-09 0)
(6.75661e-07 -8.13104e-09 0)
(6.84296e-07 -8.72241e-09 0)
(6.94096e-07 -9.60124e-09 0)
(7.05072e-07 -1.06906e-08 0)
(7.17145e-07 -1.18614e-08 0)
(6.41469e-07 -2.70162e-08 0)
(6.43702e-07 -2.03206e-08 0)
(6.46457e-07 -1.64058e-08 0)
(6.5055e-07 -1.44682e-08 0)
(6.56108e-07 -1.39535e-08 0)
(6.63078e-07 -1.43191e-08 0)
(6.71447e-07 -1.535e-08 0)
(6.81101e-07 -1.67815e-08 0)
(6.91866e-07 -1.85381e-08 0)
(7.03814e-07 -2.04771e-08 0)
(6.27974e-07 -3.80712e-08 0)
(6.28209e-07 -2.92333e-08 0)
(6.29676e-07 -2.41919e-08 0)
(6.32954e-07 -2.17475e-08 0)
(6.37921e-07 -2.11108e-08 0)
(6.44525e-07 -2.16394e-08 0)
(6.52585e-07 -2.30339e-08 0)
(6.62046e-07 -2.50113e-08 0)
(6.72547e-07 -2.74399e-08 0)
(6.84352e-07 -3.0135e-08 0)
(6.10184e-07 -4.93234e-08 0)
(6.08015e-07 -3.88846e-08 0)
(6.0789e-07 -3.30141e-08 0)
(6.10123e-07 -3.02754e-08 0)
(6.14387e-07 -2.96475e-08 0)
(6.20514e-07 -3.04077e-08 0)
(6.28182e-07 -3.22012e-08 0)
(6.37357e-07 -3.47138e-08 0)
(6.47558e-07 -3.77625e-08 0)
(6.59232e-07 -4.11287e-08 0)
(5.88287e-07 -6.08288e-08 0)
(5.83374e-07 -4.94477e-08 0)
(5.81519e-07 -4.3123e-08 0)
(5.82609e-07 -4.03216e-08 0)
(5.86073e-07 -3.98727e-08 0)
(5.91639e-07 -4.09521e-08 0)
(5.98914e-07 -4.31592e-08 0)
(6.07776e-07 -4.61388e-08 0)
(6.17662e-07 -4.97473e-08 0)
(6.29181e-07 -5.37107e-08 0)
(5.62635e-07 -7.25704e-08 0)
(5.54768e-07 -6.09944e-08 0)
(5.51039e-07 -5.46712e-08 0)
(5.50931e-07 -5.208e-08 0)
(5.53563e-07 -5.19421e-08 0)
(5.5856e-07 -5.34127e-08 0)
(5.65427e-07 -5.60387e-08 0)
(5.73966e-07 -5.94165e-08 0)
(5.83535e-07 -6.3507e-08 0)
(5.9491e-07 -6.79536e-08 0)
(5.33411e-07 -8.44485e-08 0)
(5.22637e-07 -7.34924e-08 0)
(5.17071e-07 -6.76604e-08 0)
(5.15751e-07 -6.55774e-08 0)
(5.17595e-07 -6.59163e-08 0)
(5.22026e-07 -6.78792e-08 0)
(5.28466e-07 -7.09665e-08 0)
(5.36681e-07 -7.47386e-08 0)
(5.45971e-07 -7.92607e-08 0)
(5.57141e-07 -8.4061e-08 0)
(5.00973e-07 -9.64138e-08 0)
(4.87493e-07 -8.68096e-08 0)
(4.80204e-07 -8.19895e-08 0)
(4.77698e-07 -8.07134e-08 0)
(4.78748e-07 -8.17244e-08 0)
(4.82529e-07 -8.42736e-08 0)
(4.88459e-07 -8.78661e-08 0)
(4.9625e-07 -9.20311e-08 0)
(5.05242e-07 -9.68898e-08 0)
(5.1608e-07 -1.01757e-07 0)
(4.65673e-07 -1.08345e-07 0)
(4.49879e-07 -1.00776e-07 0)
(4.41073e-07 -9.73824e-08 0)
(4.37492e-07 -9.72367e-08 0)
(4.3775e-07 -9.91475e-08 0)
(4.40941e-07 -1.02448e-07 0)
(4.46489e-07 -1.0674e-07 0)
(4.53889e-07 -1.1158e-07 0)
(4.6281e-07 -1.17017e-07 0)
(4.72838e-07 -1.22438e-07 0)
(7.37054e-07 -4.22037e-09 0)
(7.512e-07 -4.4206e-09 0)
(7.66117e-07 -4.5876e-09 0)
(7.81738e-07 -4.73205e-09 0)
(7.97999e-07 -4.85723e-09 0)
(8.14889e-07 -4.9601e-09 0)
(8.32315e-07 -5.02327e-09 0)
(8.50197e-07 -5.07957e-09 0)
(8.68549e-07 -5.1535e-09 0)
(8.87364e-07 -5.21496e-09 0)
(9.06573e-07 -5.24506e-09 0)
(9.26131e-07 -5.24759e-09 0)
(9.46014e-07 -5.23103e-09 0)
(9.66198e-07 -5.20679e-09 0)
(9.86661e-07 -5.17712e-09 0)
(1.00738e-06 -5.12913e-09 0)
(1.02834e-06 -5.04851e-09 0)
(1.04951e-06 -4.92805e-09 0)
(1.07084e-06 -4.77326e-09 0)
(1.09232e-06 -4.59071e-09 0)
(7.305e-07 -1.28692e-08 0)
(7.45152e-07 -1.3448e-08 0)
(7.60527e-07 -1.39294e-08 0)
(7.7658e-07 -1.43329e-08 0)
(7.93241e-07 -1.46436e-08 0)
(8.10455e-07 -1.49116e-08 0)
(8.28187e-07 -1.51502e-08 0)
(8.46396e-07 -1.53746e-08 0)
(8.65061e-07 -1.55692e-08 0)
(8.84136e-07 -1.5685e-08 0)
(9.03575e-07 -1.57372e-08 0)
(9.23367e-07 -1.57572e-08 0)
(9.43491e-07 -1.57446e-08 0)
(9.63912e-07 -1.56875e-08 0)
(9.84596e-07 -1.55735e-08 0)
(1.00552e-06 -1.53909e-08 0)
(1.02667e-06 -1.51274e-08 0)
(1.04801e-06 -1.47742e-08 0)
(1.06952e-06 -1.43359e-08 0)
(1.09114e-06 -1.381e-08 0)
(7.17694e-07 -2.21148e-08 0)
(7.33391e-07 -2.29748e-08 0)
(7.49696e-07 -2.36544e-08 0)
(7.66518e-07 -2.42442e-08 0)
(7.839e-07 -2.47311e-08 0)
(8.01825e-07 -2.51689e-08 0)
(8.20227e-07 -2.55493e-08 0)
(8.39018e-07 -2.5873e-08 0)
(8.5821e-07 -2.6127e-08 0)
(8.77774e-07 -2.62843e-08 0)
(8.97688e-07 -2.63822e-08 0)
(9.17938e-07 -2.64414e-08 0)
(9.38483e-07 -2.64318e-08 0)
(9.59283e-07 -2.63239e-08 0)
(9.80323e-07 -2.61104e-08 0)
(1.00161e-06 -2.5789e-08 0)
(1.02312e-06 -2.53447e-08 0)
(1.04483e-06 -2.47672e-08 0)
(1.0667e-06 -2.40607e-08 0)
(1.0887e-06 -2.32054e-08 0)
(6.98968e-07 -3.22641e-08 0)
(7.16082e-07 -3.32202e-08 0)
(7.33714e-07 -3.39528e-08 0)
(7.51744e-07 -3.46283e-08 0)
(7.70249e-07 -3.52224e-08 0)
(7.89167e-07 -3.57752e-08 0)
(8.08484e-07 -3.62434e-08 0)
(8.28134e-07 -3.66381e-08 0)
(8.48165e-07 -3.69441e-08 0)
(8.68525e-07 -3.71459e-08 0)
(8.89175e-07 -3.72739e-08 0)
(9.10094e-07 -3.7329e-08 0)
(9.31259e-07 -3.72732e-08 0)
(9.52648e-07 -3.70887e-08 0)
(9.74257e-07 -3.67852e-08 0)
(9.96092e-07 -3.63429e-08 0)
(1.01812e-06 -3.57428e-08 0)
(1.04034e-06 -3.4963e-08 0)
(1.06268e-06 -3.39974e-08 0)
(1.08516e-06 -3.28502e-08 0)
(6.7484e-07 -4.35484e-08 0)
(6.93825e-07 -4.43856e-08 0)
(7.13177e-07 -4.50414e-08 0)
(7.32697e-07 -4.57191e-08 0)
(7.52596e-07 -4.63248e-08 0)
(7.72791e-07 -4.69039e-08 0)
(7.93315e-07 -4.73884e-08 0)
(8.14101e-07 -4.78155e-08 0)
(8.35167e-07 -4.8138e-08 0)
(8.56483e-07 -4.83402e-08 0)
(8.78047e-07 -4.8459e-08 0)
(8.99849e-07 -4.84873e-08 0)
(9.21859e-07 -4.83792e-08 0)
(9.44055e-07 -4.81174e-08 0)
(9.66444e-07 -4.77145e-08 0)
(9.88993e-07 -4.71413e-08 0)
(1.01172e-06 -4.63817e-08 0)
(1.03458e-06 -4.5414e-08 0)
(1.05759e-06 -4.42114e-08 0)
(1.0807e-06 -4.28117e-08 0)
(6.45903e-07 -5.62121e-08 0)
(6.67011e-07 -5.66665e-08 0)
(6.88423e-07 -5.70281e-08 0)
(7.09794e-07 -5.75597e-08 0)
(7.31432e-07 -5.80692e-08 0)
(7.53219e-07 -5.86006e-08 0)
(7.75144e-07 -5.90318e-08 0)
(7.97269e-07 -5.94042e-08 0)
(8.1959e-07 -5.96889e-08 0)
(8.42092e-07 -5.98696e-08 0)
(8.64784e-07 -5.99691e-08 0)
(8.87656e-07 -5.99615e-08 0)
(9.10673e-07 -5.97902e-08 0)
(9.33814e-07 -5.94423e-08 0)
(9.57109e-07 -5.89229e-08 0)
(9.80519e-07 -5.82131e-08 0)
(1.0041e-06 -5.72942e-08 0)
(1.02776e-06 -5.61579e-08 0)
(1.05157e-06 -5.47606e-08 0)
(1.07546e-06 -5.31322e-08 0)
(6.12963e-07 -7.03207e-08 0)
(6.36486e-07 -7.0133e-08 0)
(6.60225e-07 -7.00001e-08 0)
(6.83679e-07 -7.02202e-08 0)
(7.07201e-07 -7.0488e-08 0)
(7.30757e-07 -7.083e-08 0)
(7.54301e-07 -7.11447e-08 0)
(7.77938e-07 -7.14216e-08 0)
(8.01693e-07 -7.16426e-08 0)
(8.25572e-07 -7.17857e-08 0)
(8.49568e-07 -7.18428e-08 0)
(8.73659e-07 -7.17679e-08 0)
(8.97825e-07 -7.15051e-08 0)
(9.2207e-07 -7.1054e-08 0)
(9.4642e-07 -7.04167e-08 0)
(9.70858e-07 -6.95843e-08 0)
(9.9544e-07 -6.85296e-08 0)
(1.02007e-06 -6.72409e-08 0)
(1.04481e-06 -6.56658e-08 0)
(1.06959e-06 -6.38191e-08 0)
(5.76619e-07 -8.60081e-08 0)
(6.02696e-07 -8.48171e-08 0)
(6.28947e-07 -8.39515e-08 0)
(6.54695e-07 -8.36556e-08 0)
(6.80363e-07 -8.35558e-08 0)
(7.05848e-07 -8.36111e-08 0)
(7.3126e-07 -8.37296e-08 0)
(7.56623e-07 -8.38633e-08 0)
(7.81982e-07 -8.39799e-08 0)
(8.07364e-07 -8.40423e-08 0)
(8.32767e-07 -8.40152e-08 0)
(8.58181e-07 -8.3844e-08 0)
(8.83606e-07 -8.34825e-08 0)
(9.09085e-07 -8.29359e-08 0)
(9.34633e-07 -8.22015e-08 0)
(9.60245e-07 -8.12681e-08 0)
(9.85944e-07 -8.0096e-08 0)
(1.01167e-06 -7.86644e-08 0)
(1.03746e-06 -7.69085e-08 0)
(1.06324e-06 -7.4838e-08 0)
(5.37429e-07 -1.03196e-07 0)
(5.66285e-07 -1.00769e-07 0)
(5.95259e-07 -9.90176e-08 0)
(6.23482e-07 -9.79945e-08 0)
(6.51463e-07 -9.73469e-08 0)
(6.79062e-07 -9.6987e-08 0)
(7.06446e-07 -9.67946e-08 0)
(7.33644e-07 -9.66967e-08 0)
(7.6072e-07 -9.66437e-08 0)
(7.87706e-07 -9.65727e-08 0)
(8.14612e-07 -9.64279e-08 0)
(8.41455e-07 -9.61526e-08 0)
(8.68264e-07 -9.57078e-08 0)
(8.95093e-07 -9.50909e-08 0)
(9.21948e-07 -9.42859e-08 0)
(9.48833e-07 -9.32703e-08 0)
(9.75758e-07 -9.19904e-08 0)
(1.00266e-06 -9.04152e-08 0)
(1.0296e-06 -8.84811e-08 0)
(1.0565e-06 -8.61884e-08 0)
(4.9635e-07 -1.21898e-07 0)
(5.28941e-07 -1.17231e-07 0)
(5.61034e-07 -1.1435e-07 0)
(5.92007e-07 -1.12493e-07 0)
(6.22317e-07 -1.11287e-07 0)
(6.52089e-07 -1.10496e-07 0)
(6.81427e-07 -1.09968e-07 0)
(7.10439e-07 -1.09613e-07 0)
(7.39215e-07 -1.09368e-07 0)
(7.67791e-07 -1.09148e-07 0)
(7.96198e-07 -1.08889e-07 0)
(8.24476e-07 -1.08529e-07 0)
(8.52669e-07 -1.08026e-07 0)
(8.80838e-07 -1.07365e-07 0)
(9.08978e-07 -1.06517e-07 0)
(9.3711e-07 -1.05447e-07 0)
(9.6525e-07 -1.04097e-07 0)
(9.93342e-07 -1.02402e-07 0)
(1.02146e-06 -1.00317e-07 0)
(1.04955e-06 -9.78048e-08 0)
(4.61975e-07 -1.43668e-07 0)
(4.98639e-07 -1.36026e-07 0)
(5.33622e-07 -1.31606e-07 0)
(5.67253e-07 -1.28473e-07 0)
(5.99718e-07 -1.26357e-07 0)
(6.31347e-07 -1.2487e-07 0)
(6.62298e-07 -1.23807e-07 0)
(6.92755e-07 -1.23038e-07 0)
(7.22826e-07 -1.22459e-07 0)
(7.52574e-07 -1.21961e-07 0)
(7.82061e-07 -1.21471e-07 0)
(8.11348e-07 -1.20928e-07 0)
(8.40494e-07 -1.20279e-07 0)
(8.69556e-07 -1.19494e-07 0)
(8.98519e-07 -1.18537e-07 0)
(9.27431e-07 -1.17351e-07 0)
(9.56288e-07 -1.15894e-07 0)
(9.85098e-07 -1.14064e-07 0)
(1.01391e-06 -1.1183e-07 0)
(1.04268e-06 -1.09093e-07 0)
(4.44346e-07 -1.63463e-07 0)
(4.81523e-07 -1.55336e-07 0)
(5.1702e-07 -1.4978e-07 0)
(5.51524e-07 -1.45618e-07 0)
(5.84966e-07 -1.42598e-07 0)
(6.17546e-07 -1.40356e-07 0)
(6.49412e-07 -1.38666e-07 0)
(6.80712e-07 -1.3737e-07 0)
(7.11535e-07 -1.36335e-07 0)
(7.41955e-07 -1.35441e-07 0)
(7.72054e-07 -1.34614e-07 0)
(8.01898e-07 -1.33783e-07 0)
(8.31545e-07 -1.32885e-07 0)
(8.61046e-07 -1.31875e-07 0)
(8.90383e-07 -1.30715e-07 0)
(9.19637e-07 -1.29329e-07 0)
(9.48766e-07 -1.27694e-07 0)
(9.77837e-07 -1.25688e-07 0)
(1.00686e-06 -1.23281e-07 0)
(1.03579e-06 -1.20325e-07 0)
(4.31289e-07 -1.81266e-07 0)
(4.67939e-07 -1.73332e-07 0)
(5.03543e-07 -1.67407e-07 0)
(5.38383e-07 -1.62701e-07 0)
(5.72336e-07 -1.59055e-07 0)
(6.05495e-07 -1.56201e-07 0)
(6.37973e-07 -1.53945e-07 0)
(6.69857e-07 -1.52135e-07 0)
(7.0122e-07 -1.50635e-07 0)
(7.32141e-07 -1.49334e-07 0)
(7.62704e-07 -1.48153e-07 0)
(7.92968e-07 -1.47016e-07 0)
(8.2299e-07 -1.45845e-07 0)
(8.52817e-07 -1.44592e-07 0)
(8.82432e-07 -1.43213e-07 0)
(9.11933e-07 -1.41619e-07 0)
(9.41275e-07 -1.39801e-07 0)
(9.70537e-07 -1.37631e-07 0)
(9.99701e-07 -1.35065e-07 0)
(1.02877e-06 -1.31938e-07 0)
(4.20476e-07 -1.98545e-07 0)
(4.56573e-07 -1.90871e-07 0)
(4.91945e-07 -1.84747e-07 0)
(5.26808e-07 -1.79648e-07 0)
(5.60935e-07 -1.75507e-07 0)
(5.94408e-07 -1.72134e-07 0)
(6.27261e-07 -1.69375e-07 0)
(6.59538e-07 -1.67086e-07 0)
(6.913e-07 -1.65146e-07 0)
(7.22615e-07 -1.63451e-07 0)
(7.53554e-07 -1.61924e-07 0)
(7.84165e-07 -1.60483e-07 0)
(8.14504e-07 -1.59041e-07 0)
(8.44614e-07 -1.57546e-07 0)
(8.74482e-07 -1.55949e-07 0)
(9.04206e-07 -1.54158e-07 0)
(9.33743e-07 -1.5217e-07 0)
(9.63185e-07 -1.49852e-07 0)
(9.92482e-07 -1.47151e-07 0)
(1.02171e-06 -1.43919e-07 0)
(4.11395e-07 -2.15011e-07 0)
(4.46938e-07 -2.07694e-07 0)
(4.81963e-07 -2.01592e-07 0)
(5.16658e-07 -1.96301e-07 0)
(5.50773e-07 -1.91831e-07 0)
(5.84366e-07 -1.88065e-07 0)
(6.17406e-07 -1.84884e-07 0)
(6.49921e-07 -1.82175e-07 0)
(6.81956e-07 -1.79835e-07 0)
(7.13562e-07 -1.77774e-07 0)
(7.44792e-07 -1.75917e-07 0)
(7.75676e-07 -1.74179e-07 0)
(8.0627e-07 -1.72468e-07 0)
(8.36612e-07 -1.70737e-07 0)
(8.66695e-07 -1.68928e-07 0)
(8.96616e-07 -1.66953e-07 0)
(9.26323e-07 -1.64807e-07 0)
(9.55917e-07 -1.62354e-07 0)
(9.85348e-07 -1.59544e-07 0)
(1.01473e-06 -1.56274e-07 0)
(4.03592e-07 -2.30927e-07 0)
(4.38623e-07 -2.2396e-07 0)
(4.733e-07 -2.17957e-07 0)
(5.07721e-07 -2.1259e-07 0)
(5.41724e-07 -2.07914e-07 0)
(5.75297e-07 -2.03857e-07 0)
(6.08395e-07 -2.00338e-07 0)
(6.41036e-07 -1.97281e-07 0)
(6.73243e-07 -1.94597e-07 0)
(7.0505e-07 -1.92209e-07 0)
(7.36489e-07 -1.9005e-07 0)
(7.67577e-07 -1.88033e-07 0)
(7.98369e-07 -1.86068e-07 0)
(8.28895e-07 -1.84112e-07 0)
(8.59149e-07 -1.821e-07 0)
(8.89228e-07 -1.79961e-07 0)
(9.19078e-07 -1.7767e-07 0)
(9.48796e-07 -1.75103e-07 0)
(9.78369e-07 -1.72226e-07 0)
(1.00788e-06 -1.68965e-07 0)
(3.96858e-07 -2.46381e-07 0)
(4.31426e-07 -2.39749e-07 0)
(4.65746e-07 -2.33887e-07 0)
(4.99872e-07 -2.28524e-07 0)
(5.33691e-07 -2.23734e-07 0)
(5.67151e-07 -2.1947e-07 0)
(6.00218e-07 -2.15692e-07 0)
(6.32898e-07 -2.12355e-07 0)
(6.6519e-07 -2.0938e-07 0)
(6.97111e-07 -2.06704e-07 0)
(7.28682e-07 -2.04271e-07 0)
(7.59905e-07 -2.01996e-07 0)
(7.90836e-07 -1.99793e-07 0)
(8.21493e-07 -1.97632e-07 0)
(8.51878e-07 -1.95429e-07 0)
(8.82075e-07 -1.93138e-07 0)
(9.12039e-07 -1.90723e-07 0)
(9.41869e-07 -1.88072e-07 0)
(9.71572e-07 -1.85174e-07 0)
(1.00117e-06 -1.81931e-07 0)
(3.91017e-07 -2.61463e-07 0)
(4.25191e-07 -2.55133e-07 0)
(4.59149e-07 -2.49432e-07 0)
(4.92983e-07 -2.44121e-07 0)
(5.26562e-07 -2.39277e-07 0)
(5.59853e-07 -2.34874e-07 0)
(5.92828e-07 -2.30906e-07 0)
(6.25473e-07 -2.27348e-07 0)
(6.57771e-07 -2.24128e-07 0)
(6.89731e-07 -2.21203e-07 0)
(7.21365e-07 -2.18525e-07 0)
(7.52665e-07 -2.16016e-07 0)
(7.83686e-07 -2.13592e-07 0)
(8.14431e-07 -2.1124e-07 0)
(8.44912e-07 -2.08868e-07 0)
(8.752e-07 -2.06441e-07 0)
(9.0526e-07 -2.0393e-07 0)
(9.35195e-07 -2.0123e-07 0)
(9.64993e-07 -1.9834e-07 0)
(9.94671e-07 -1.95118e-07 0)
(3.85899e-07 -2.76235e-07 0)
(4.19709e-07 -2.70176e-07 0)
(4.53339e-07 -2.64638e-07 0)
(4.86874e-07 -2.59404e-07 0)
(5.20198e-07 -2.54546e-07 0)
(5.533e-07 -2.50054e-07 0)
(5.86144e-07 -2.45948e-07 0)
(6.18705e-07 -2.42216e-07 0)
(6.50953e-07 -2.38792e-07 0)
(6.82898e-07 -2.35653e-07 0)
(7.14545e-07 -2.32761e-07 0)
(7.45878e-07 -2.30043e-07 0)
(7.7695e-07 -2.27423e-07 0)
(8.07751e-07 -2.249e-07 0)
(8.38299e-07 -2.2238e-07 0)
(8.6866e-07 -2.19843e-07 0)
(8.98801e-07 -2.17267e-07 0)
(9.28827e-07 -2.14551e-07 0)
(9.58679e-07 -2.11674e-07 0)
(9.88451e-07 -2.0851e-07 0)
(3.8138e-07 -2.90739e-07 0)
(4.1484e-07 -2.84932e-07 0)
(4.48175e-07 -2.79549e-07 0)
(4.81417e-07 -2.74398e-07 0)
(5.145e-07 -2.69552e-07 0)
(5.47412e-07 -2.65009e-07 0)
(5.80104e-07 -2.60803e-07 0)
(6.12552e-07 -2.56935e-07 0)
(6.44717e-07 -2.53346e-07 0)
(6.76614e-07 -2.50026e-07 0)
(7.08236e-07 -2.46949e-07 0)
(7.39569e-07 -2.44048e-07 0)
(7.70657e-07 -2.41257e-07 0)
(8.01487e-07 -2.38585e-07 0)
(8.32075e-07 -2.35944e-07 0)
(8.62489e-07 -2.33326e-07 0)
(8.92691e-07 -2.30712e-07 0)
(9.22767e-07 -2.27994e-07 0)
(9.52664e-07 -2.25137e-07 0)
(9.82506e-07 -2.2209e-07 0)
(3.77344e-07 -3.05015e-07 0)
(4.1049e-07 -2.99439e-07 0)
(4.43546e-07 -2.94198e-07 0)
(4.76527e-07 -2.89134e-07 0)
(5.09396e-07 -2.8432e-07 0)
(5.42119e-07 -2.7975e-07 0)
(5.7465e-07 -2.75473e-07 0)
(6.06968e-07 -2.715e-07 0)
(6.3903e-07 -2.67779e-07 0)
(6.70855e-07 -2.64308e-07 0)
(7.02427e-07 -2.61071e-07 0)
(7.3373e-07 -2.58009e-07 0)
(7.64809e-07 -2.55068e-07 0)
(7.95648e-07 -2.52268e-07 0)
(8.26259e-07 -2.4953e-07 0)
(8.56707e-07 -2.46854e-07 0)
(8.86944e-07 -2.44215e-07 0)
(9.17035e-07 -2.415e-07 0)
(9.46991e-07 -2.38699e-07 0)
(9.76854e-07 -2.35782e-07 0)
(3.73717e-07 -3.19102e-07 0)
(4.06587e-07 -3.13728e-07 0)
(4.39388e-07 -3.0862e-07 0)
(4.72148e-07 -3.03649e-07 0)
(5.04817e-07 -2.98877e-07 0)
(5.37353e-07 -2.94296e-07 0)
(5.69717e-07 -2.8997e-07 0)
(6.01897e-07 -2.85912e-07 0)
(6.33848e-07 -2.82085e-07 0)
(6.65591e-07 -2.7848e-07 0)
(6.97102e-07 -2.75101e-07 0)
(7.28368e-07 -2.71897e-07 0)
(7.5943e-07 -2.68828e-07 0)
(7.9027e-07 -2.65924e-07 0)
(8.20896e-07 -2.63114e-07 0)
(8.51362e-07 -2.60395e-07 0)
(8.81608e-07 -2.57738e-07 0)
(9.11712e-07 -2.55039e-07 0)
(9.41704e-07 -2.52341e-07 0)
(9.71582e-07 -2.49539e-07 0)
(3.70481e-07 -3.33024e-07 0)
(4.03099e-07 -3.2783e-07 0)
(4.35678e-07 -3.22854e-07 0)
(4.68234e-07 -3.17975e-07 0)
(5.00705e-07 -3.13243e-07 0)
(5.33056e-07 -3.08656e-07 0)
(5.65262e-07 -3.04294e-07 0)
(5.9731e-07 -3.00163e-07 0)
(6.29161e-07 -2.9625e-07 0)
(6.60827e-07 -2.92535e-07 0)
(6.92281e-07 -2.8904e-07 0)
(7.23507e-07 -2.85722e-07 0)
(7.54544e-07 -2.82549e-07 0)
(7.85372e-07 -2.79563e-07 0)
(8.15992e-07 -2.76694e-07 0)
(8.46449e-07 -2.73937e-07 0)
(8.76681e-07 -2.71267e-07 0)
(9.06804e-07 -2.68613e-07 0)
(9.3677e-07 -2.66022e-07 0)
(9.66671e-07 -2.63366e-07 0)
(3.67603e-07 -3.46802e-07 0)
(3.99999e-07 -3.41782e-07 0)
(4.32377e-07 -3.36928e-07 0)
(4.64726e-07 -3.32124e-07 0)
(4.97007e-07 -3.27426e-07 0)
(5.29191e-07 -3.2284e-07 0)
(5.61266e-07 -3.1846e-07 0)
(5.93194e-07 -3.14282e-07 0)
(6.24954e-07 -3.10301e-07 0)
(6.56535e-07 -3.06494e-07 0)
(6.87923e-07 -3.02894e-07 0)
(7.19103e-07 -2.9947e-07 0)
(7.50111e-07 -2.96202e-07 0)
(7.80922e-07 -2.93141e-07 0)
(8.11522e-07 -2.90213e-07 0)
(8.41955e-07 -2.87416e-07 0)
(8.72168e-07 -2.84746e-07 0)
(9.02284e-07 -2.8216e-07 0)
(9.32225e-07 -2.79649e-07 0)
(9.62118e-07 -2.7719e-07 0)
(3.65023e-07 -3.60472e-07 0)
(3.97219e-07 -3.55618e-07 0)
(4.29398e-07 -3.50855e-07 0)
(4.61553e-07 -3.46112e-07 0)
(4.93672e-07 -3.41448e-07 0)
(5.25712e-07 -3.3688e-07 0)
(5.5767e-07 -3.32488e-07 0)
(5.89485e-07 -3.28272e-07 0)
(6.21159e-07 -3.24216e-07 0)
(6.52675e-07 -3.20324e-07 0)
(6.84018e-07 -3.16641e-07 0)
(7.15171e-07 -3.13136e-07 0)
(7.46162e-07 -3.09794e-07 0)
(7.76955e-07 -3.06664e-07 0)
(8.07527e-07 -3.03677e-07 0)
(8.37932e-07 -3.00846e-07 0)
(8.68142e-07 -2.9819e-07 0)
(8.98218e-07 -2.95669e-07 0)
(9.28161e-07 -2.93264e-07 0)
(9.58023e-07 -2.90987e-07 0)
(3.62663e-07 -3.74072e-07 0)
(3.94668e-07 -3.69335e-07 0)
(4.26664e-07 -3.64644e-07 0)
(4.58658e-07 -3.59963e-07 0)
(4.90644e-07 -3.55337e-07 0)
(5.22566e-07 -3.50791e-07 0)
(5.54426e-07 -3.4638e-07 0)
(5.86162e-07 -3.4214e-07 0)
(6.17759e-07 -3.38034e-07 0)
(6.49217e-07 -3.34071e-07 0)
(6.80524e-07 -3.30312e-07 0)
(7.11655e-07 -3.26733e-07 0)
(7.42624e-07 -3.23315e-07 0)
(7.73389e-07 -3.20107e-07 0)
(8.03938e-07 -3.17055e-07 0)
(8.34336e-07 -3.14202e-07 0)
(8.64539e-07 -3.11572e-07 0)
(8.94581e-07 -3.09077e-07 0)
(9.24494e-07 -3.06802e-07 0)
(9.54342e-07 -3.04726e-07 0)
(3.60445e-07 -3.87601e-07 0)
(3.92287e-07 -3.82966e-07 0)
(4.2413e-07 -3.78334e-07 0)
(4.55998e-07 -3.73713e-07 0)
(4.87869e-07 -3.69115e-07 0)
(5.19707e-07 -3.64581e-07 0)
(5.51471e-07 -3.60164e-07 0)
(5.83138e-07 -3.55889e-07 0)
(6.14683e-07 -3.51731e-07 0)
(6.46116e-07 -3.47713e-07 0)
(6.7741e-07 -3.43895e-07 0)
(7.08527e-07 -3.4024e-07 0)
(7.39478e-07 -3.36734e-07 0)
(7.7023e-07 -3.33453e-07 0)
(8.00786e-07 -3.30363e-07 0)
(8.3121e-07 -3.27484e-07 0)
(8.61396e-07 -3.24831e-07 0)
(8.9143e-07 -3.22373e-07 0)
(9.21281e-07 -3.20237e-07 0)
(9.51143e-07 -3.18358e-07 0)
(3.58354e-07 -4.01062e-07 0)
(3.90039e-07 -3.96537e-07 0)
(4.21768e-07 -3.91953e-07 0)
(4.53544e-07 -3.87371e-07 0)
(4.85331e-07 -3.8282e-07 0)
(5.17085e-07 -3.78289e-07 0)
(5.48783e-07 -3.73852e-07 0)
(5.80401e-07 -3.69551e-07 0)
(6.11925e-07 -3.65361e-07 0)
(6.43353e-07 -3.61291e-07 0)
(6.74639e-07 -3.574e-07 0)
(7.05738e-07 -3.53674e-07 0)
(7.36694e-07 -3.50105e-07 0)
(7.67493e-07 -3.46752e-07 0)
(7.98098e-07 -3.43595e-07 0)
(8.28515e-07 -3.40685e-07 0)
(8.58682e-07 -3.38005e-07 0)
(8.88779e-07 -3.35581e-07 0)
(9.18663e-07 -3.33552e-07 0)
(9.4843e-07 -3.31902e-07 0)
(3.56321e-07 -4.14537e-07 0)
(3.87873e-07 -4.10066e-07 0)
(4.19533e-07 -4.05524e-07 0)
(4.51237e-07 -4.00982e-07 0)
(4.82945e-07 -3.96433e-07 0)
(5.14627e-07 -3.91908e-07 0)
(5.46289e-07 -3.87461e-07 0)
(5.77905e-07 -3.83126e-07 0)
(6.09428e-07 -3.7889e-07 0)
(6.40832e-07 -3.74774e-07 0)
(6.72113e-07 -3.70826e-07 0)
(7.03268e-07 -3.67019e-07 0)
(7.34295e-07 -3.63373e-07 0)
(7.65114e-07 -3.5998e-07 0)
(7.95747e-07 -3.56756e-07 0)
(8.26259e-07 -3.53748e-07 0)
(8.56543e-07 -3.51057e-07 0)
(8.86646e-07 -3.48657e-07 0)
(9.16589e-07 -3.46668e-07 0)
(9.46355e-07 -3.45218e-07 0)
(3.54352e-07 -4.27964e-07 0)
(3.85826e-07 -4.23572e-07 0)
(4.17415e-07 -4.19077e-07 0)
(4.49042e-07 -4.14553e-07 0)
(4.80696e-07 -4.10004e-07 0)
(5.12369e-07 -4.05462e-07 0)
(5.44031e-07 -4.01004e-07 0)
(5.75628e-07 -3.96659e-07 0)
(6.07143e-07 -3.9238e-07 0)
(6.386e-07 -3.88188e-07 0)
(6.69952e-07 -3.84189e-07 0)
(7.01136e-07 -3.80357e-07 0)
(7.32209e-07 -3.76633e-07 0)
(7.63144e-07 -3.7314e-07 0)
(7.9387e-07 -3.69882e-07 0)
(8.24465e-07 -3.66812e-07 0)
(8.54914e-07 -3.64075e-07 0)
(8.8513e-07 -3.61612e-07 0)
(9.15215e-07 -3.59623e-07 0)
(9.45018e-07 -3.58254e-07 0)
(2.12814e-08 -2.86199e-07 0)
(6.39561e-08 -2.82493e-07 0)
(1.0685e-07 -2.75126e-07 0)
(1.50143e-07 -2.64539e-07 0)
(1.93847e-07 -2.51071e-07 0)
(2.37963e-07 -2.3527e-07 0)
(2.82462e-07 -2.17753e-07 0)
(3.27211e-07 -1.99038e-07 0)
(3.72543e-07 -1.79619e-07 0)
(4.17651e-07 -1.59666e-07 0)
(2.09508e-08 -2.94211e-07 0)
(6.29558e-08 -2.90823e-07 0)
(1.05071e-07 -2.84072e-07 0)
(1.47452e-07 -2.74371e-07 0)
(1.90081e-07 -2.61983e-07 0)
(2.32894e-07 -2.47373e-07 0)
(2.75881e-07 -2.31056e-07 0)
(3.18743e-07 -2.1355e-07 0)
(3.61758e-07 -1.95233e-07 0)
(4.03705e-07 -1.77083e-07 0)
(2.05732e-08 -3.02396e-07 0)
(6.18152e-08 -2.99306e-07 0)
(1.03112e-07 -2.93103e-07 0)
(1.44533e-07 -2.84171e-07 0)
(1.86107e-07 -2.7275e-07 0)
(2.27703e-07 -2.59243e-07 0)
(2.69334e-07 -2.44102e-07 0)
(3.10734e-07 -2.2781e-07 0)
(3.52115e-07 -2.10655e-07 0)
(3.92455e-07 -1.93874e-07 0)
(2.02304e-08 -3.10721e-07 0)
(6.07496e-08 -3.07864e-07 0)
(1.01341e-07 -3.02123e-07 0)
(1.41945e-07 -2.93853e-07 0)
(1.82634e-07 -2.8327e-07 0)
(2.23248e-07 -2.70711e-07 0)
(2.63786e-07 -2.56625e-07 0)
(3.04004e-07 -2.41468e-07 0)
(3.43989e-07 -2.25519e-07 0)
(3.82981e-07 -2.10031e-07 0)
(1.99338e-08 -3.19185e-07 0)
(5.9767e-08 -3.16557e-07 0)
(9.96857e-08 -3.11247e-07 0)
(1.39548e-07 -3.03579e-07 0)
(1.79435e-07 -2.93753e-07 0)
(2.19186e-07 -2.82108e-07 0)
(2.58791e-07 -2.69038e-07 0)
(2.98051e-07 -2.54924e-07 0)
(3.36938e-07 -2.40075e-07 0)
(3.74893e-07 -2.25659e-07 0)
(1.96386e-08 -3.27787e-07 0)
(5.88704e-08 -3.25345e-07 0)
(9.81534e-08 -3.20417e-07 0)
(1.37364e-07 -3.13312e-07 0)
(1.76544e-07 -3.0418e-07 0)
(2.15583e-07 -2.93363e-07 0)
(2.54378e-07 -2.81222e-07 0)
(2.92806e-07 -2.68082e-07 0)
(3.3078e-07 -2.54272e-07 0)
(3.67869e-07 -2.40856e-07 0)
(1.93462e-08 -3.36517e-07 0)
(5.80311e-08 -3.3425e-07 0)
(9.6723e-08 -3.29682e-07 0)
(1.35359e-07 -3.23082e-07 0)
(1.73893e-07 -3.14595e-07 0)
(2.12297e-07 -3.04543e-07 0)
(2.50425e-07 -2.93262e-07 0)
(2.88151e-07 -2.81038e-07 0)
(3.25377e-07 -2.68193e-07 0)
(3.61761e-07 -2.55685e-07 0)
(1.91028e-08 -3.45362e-07 0)
(5.72538e-08 -3.43261e-07 0)
(9.53985e-08 -3.39028e-07 0)
(1.33512e-07 -3.3289e-07 0)
(1.71484e-07 -3.25009e-07 0)
(2.09307e-07 -3.15663e-07 0)
(2.4685e-07 -3.05187e-07 0)
(2.83992e-07 -2.93828e-07 0)
(3.20611e-07 -2.81882e-07 0)
(3.56432e-07 -2.70208e-07 0)
(1.88859e-08 -3.54326e-07 0)
(5.65283e-08 -3.52376e-07 0)
(9.41818e-08 -3.48449e-07 0)
(1.31803e-07 -3.42748e-07 0)
(1.69274e-07 -3.35444e-07 0)
(2.06597e-07 -3.26752e-07 0)
(2.43617e-07 -3.17025e-07 0)
(2.80253e-07 -3.06478e-07 0)
(3.16371e-07 -2.95373e-07 0)
(3.51739e-07 -2.84474e-07 0)
(1.86524e-08 -3.63414e-07 0)
(5.58452e-08 -3.61599e-07 0)
(9.30568e-08 -3.57955e-07 0)
(1.30227e-07 -3.52666e-07 0)
(1.67229e-07 -3.45904e-07 0)
(2.04114e-07 -3.37824e-07 0)
(2.40676e-07 -3.2879e-07 0)
(2.76867e-07 -3.19003e-07 0)
(3.12562e-07 -3.08688e-07 0)
(3.47556e-07 -2.98516e-07 0)
(1.84144e-08 -3.72617e-07 0)
(5.52233e-08 -3.70932e-07 0)
(9.20124e-08 -3.67557e-07 0)
(1.28772e-07 -3.62649e-07 0)
(1.65339e-07 -3.56386e-07 0)
(2.01816e-07 -3.48884e-07 0)
(2.3798e-07 -3.40497e-07 0)
(2.73784e-07 -3.31423e-07 0)
(3.09117e-07 -3.21848e-07 0)
(3.43793e-07 -3.12363e-07 0)
(1.82073e-08 -3.81932e-07 0)
(5.46683e-08 -3.80374e-07 0)
(9.10429e-08 -3.77257e-07 0)
(1.27419e-07 -3.72702e-07 0)
(1.63599e-07 -3.66897e-07 0)
(1.99689e-07 -3.59942e-07 0)
(2.35499e-07 -3.52166e-07 0)
(2.70967e-07 -3.43757e-07 0)
(3.05989e-07 -3.34871e-07 0)
(3.40414e-07 -3.26033e-07 0)
(1.80339e-08 -3.91367e-07 0)
(5.41473e-08 -3.89929e-07 0)
(9.0127e-08 -3.87051e-07 0)
(1.26137e-07 -3.82825e-07 0)
(1.61974e-07 -3.77446e-07 0)
(1.97705e-07 -3.7101e-07 0)
(2.33196e-07 -3.63808e-07 0)
(2.68371e-07 -3.56015e-07 0)
(3.03145e-07 -3.47776e-07 0)
(3.37401e-07 -3.39557e-07 0)
(1.78658e-08 -4.0093e-07 0)
(5.36166e-08 -3.99601e-07 0)
(8.92342e-08 -3.96942e-07 0)
(1.24893e-07 -3.93024e-07 0)
(1.60414e-07 -3.88044e-07 0)
(1.95823e-07 -3.82092e-07 0)
(2.31029e-07 -3.75428e-07 0)
(2.6596e-07 -3.68217e-07 0)
(3.00554e-07 -3.60606e-07 0)
(3.347e-07 -3.52984e-07 0)
(1.76825e-08 -4.10622e-07 0)
(5.3064e-08 -4.09389e-07 0)
(8.83525e-08 -4.06931e-07 0)
(1.23674e-07 -4.03307e-07 0)
(1.58896e-07 -3.98705e-07 0)
(1.94012e-07 -3.93211e-07 0)
(2.28963e-07 -3.87049e-07 0)
(2.63703e-07 -3.8039e-07 0)
(2.98159e-07 -3.73384e-07 0)
(3.3223e-07 -3.66325e-07 0)
(1.749e-08 -4.20437e-07 0)
(5.25118e-08 -4.19292e-07 0)
(8.74888e-08 -4.17028e-07 0)
(1.22478e-07 -4.13686e-07 0)
(1.57402e-07 -4.09429e-07 0)
(1.92247e-07 -4.04352e-07 0)
(2.26979e-07 -3.98671e-07 0)
(2.61577e-07 -3.92552e-07 0)
(2.95918e-07 -3.8612e-07 0)
(3.29961e-07 -3.796e-07 0)
(1.73056e-08 -4.30366e-07 0)
(5.1977e-08 -4.29314e-07 0)
(8.66332e-08 -4.27228e-07 0)
(1.2129e-07 -4.24146e-07 0)
(1.55924e-07 -4.20224e-07 0)
(1.90519e-07 -4.15546e-07 0)
(2.25063e-07 -4.10329e-07 0)
(2.5952e-07 -4.04734e-07 0)
(2.93775e-07 -3.98831e-07 0)
(3.27799e-07 -3.92839e-07 0)
(1.71303e-08 -4.40411e-07 0)
(5.14427e-08 -4.39445e-07 0)
(8.57578e-08 -4.37525e-07 0)
(1.2008e-07 -4.3469e-07 0)
(1.54425e-07 -4.31074e-07 0)
(1.88791e-07 -4.26778e-07 0)
(2.23163e-07 -4.22005e-07 0)
(2.57475e-07 -4.16898e-07 0)
(2.91688e-07 -4.11515e-07 0)
(3.2572e-07 -4.06019e-07 0)
(1.69521e-08 -4.50555e-07 0)
(5.08811e-08 -4.49672e-07 0)
(8.48335e-08 -4.47909e-07 0)
(1.18832e-07 -4.45305e-07 0)
(1.52896e-07 -4.41994e-07 0)
(1.87041e-07 -4.38075e-07 0)
(2.21246e-07 -4.3373e-07 0)
(2.55453e-07 -4.2908e-07 0)
(2.89601e-07 -4.24211e-07 0)
(3.23681e-07 -4.19208e-07 0)
(1.67612e-08 -4.60799e-07 0)
(5.02918e-08 -4.59986e-07 0)
(8.38632e-08 -4.58382e-07 0)
(1.17531e-07 -4.56005e-07 0)
(1.51333e-07 -4.52981e-07 0)
(1.8528e-07 -4.49424e-07 0)
(2.1932e-07 -4.45486e-07 0)
(2.5347e-07 -4.41277e-07 0)
(2.87588e-07 -4.36892e-07 0)
(3.21779e-07 -4.3236e-07 0)
)


// ************************************************************************* //
