/*--------------------------------*- C++ -*----------------------------------*\
| =========                 |                                                 |
| \\      /  F ield         | foam-extend: Open Source CFD                    |
|  \\    /   O peration     | Version:     4.1                                |
|   \\  /    A nd           | Web:         http://www.foam-extend.org         |
|    \\/     M anipulation  |                                                 |
\*---------------------------------------------------------------------------*/
FoamFile
{
    version     2.0;
    format      ascii;
    class       vectorField;
    location    "1";
    object      solidsCellD_iteration1;
}
// * * * * * * * * * * * * * * * * * * * * * * * * * * * * * * * * * * * * * //


1000
(
(2.48479e-07 -1.71494e-08 0)
(2.47285e-07 -1.90612e-08 0)
(2.48531e-07 -2.14002e-08 0)
(2.51595e-07 -2.39826e-08 0)
(2.56033e-07 -2.67958e-08 0)
(2.61564e-07 -2.98036e-08 0)
(2.67909e-07 -3.29898e-08 0)
(2.74793e-07 -3.6444e-08 0)
(2.81835e-07 -4.02388e-08 0)
(2.8771e-07 -4.48279e-08 0)
(2.26388e-07 -1.89308e-08 0)
(2.24874e-07 -2.14312e-08 0)
(2.25673e-07 -2.42892e-08 0)
(2.28199e-07 -2.72796e-08 0)
(2.31943e-07 -3.04105e-08 0)
(2.36566e-07 -3.37194e-08 0)
(2.41794e-07 -3.71679e-08 0)
(2.4733e-07 -4.08084e-08 0)
(2.52875e-07 -4.46191e-08 0)
(2.57713e-07 -4.88117e-08 0)
(2.02895e-07 -2.06368e-08 0)
(2.01143e-07 -2.37769e-08 0)
(2.01547e-07 -2.70774e-08 0)
(2.03544e-07 -3.04409e-08 0)
(2.0663e-07 -3.38345e-08 0)
(2.10456e-07 -3.73019e-08 0)
(2.1477e-07 -4.08351e-08 0)
(2.19367e-07 -4.44214e-08 0)
(2.24043e-07 -4.79929e-08 0)
(2.28399e-07 -5.173e-08 0)
(1.78172e-07 -2.21936e-08 0)
(1.76342e-07 -2.59801e-08 0)
(1.76435e-07 -2.96941e-08 0)
(1.77954e-07 -3.33374e-08 0)
(1.80433e-07 -3.69363e-08 0)
(1.83587e-07 -4.04974e-08 0)
(1.87176e-07 -4.40196e-08 0)
(1.91061e-07 -4.74999e-08 0)
(1.95093e-07 -5.08903e-08 0)
(1.99027e-07 -5.43198e-08 0)
(1.5242e-07 -2.35704e-08 0)
(1.50654e-07 -2.79581e-08 0)
(1.50508e-07 -3.20717e-08 0)
(1.51616e-07 -3.5971e-08 0)
(1.53589e-07 -3.96943e-08 0)
(1.56158e-07 -4.32973e-08 0)
(1.59125e-07 -4.68069e-08 0)
(1.62379e-07 -5.01936e-08 0)
(1.6584e-07 -5.344e-08 0)
(1.69314e-07 -5.66509e-08 0)
(1.25808e-07 -2.47382e-08 0)
(1.24182e-07 -2.96736e-08 0)
(1.2393e-07 -3.41044e-08 0)
(1.24725e-07 -3.82208e-08 0)
(1.26264e-07 -4.20825e-08 0)
(1.2829e-07 -4.57395e-08 0)
(1.30683e-07 -4.92205e-08 0)
(1.3335e-07 -5.25269e-08 0)
(1.36234e-07 -5.56725e-08 0)
(1.39186e-07 -5.87328e-08 0)
(9.85297e-08 -2.56627e-08 0)
(9.7136e-08 -3.10624e-08 0)
(9.68634e-08 -3.57797e-08 0)
(9.74157e-08 -4.00795e-08 0)
(9.85603e-08 -4.40484e-08 0)
(1.00098e-07 -4.77595e-08 0)
(1.01944e-07 -5.12245e-08 0)
(1.04033e-07 -5.44867e-08 0)
(1.06314e-07 -5.75732e-08 0)
(1.0868e-07 -6.05375e-08 0)
(7.07463e-08 -2.63446e-08 0)
(6.9673e-08 -3.21219e-08 0)
(6.9438e-08 -3.70775e-08 0)
(6.98102e-08 -4.15052e-08 0)
(7.05929e-08 -4.55547e-08 0)
(7.16695e-08 -4.92975e-08 0)
(7.29839e-08 -5.2767e-08 0)
(7.44861e-08 -5.60061e-08 0)
(7.61365e-08 -5.90403e-08 0)
(7.78581e-08 -6.19142e-08 0)
(4.26085e-08 -2.67936e-08 0)
(4.19365e-08 -3.28241e-08 0)
(4.17762e-08 -3.79565e-08 0)
(4.19745e-08 -4.24957e-08 0)
(4.24205e-08 -4.66001e-08 0)
(4.30633e-08 -5.03545e-08 0)
(4.38635e-08 -5.38296e-08 0)
(4.47733e-08 -5.70706e-08 0)
(4.5765e-08 -6.00997e-08 0)
(4.68066e-08 -6.29456e-08 0)
(1.42418e-08 -2.70137e-08 0)
(1.39974e-08 -3.31536e-08 0)
(1.39348e-08 -3.838e-08 0)
(1.40067e-08 -4.29778e-08 0)
(1.41618e-08 -4.71021e-08 0)
(1.43692e-08 -5.08607e-08 0)
(1.46273e-08 -5.43247e-08 0)
(1.49318e-08 -5.75397e-08 0)
(1.52667e-08 -6.05415e-08 0)
(1.56152e-08 -6.33526e-08 0)
(3.64774e-07 -7.07438e-10 0)
(3.66888e-07 -6.42792e-10 0)
(3.70823e-07 -6.57434e-10 0)
(3.76182e-07 -7.24958e-10 0)
(3.82725e-07 -8.22862e-10 0)
(3.90255e-07 -9.44219e-10 0)
(3.98617e-07 -1.07697e-09 0)
(4.07625e-07 -1.21963e-09 0)
(4.1723e-07 -1.36501e-09 0)
(4.2731e-07 -1.51221e-09 0)
(3.62633e-07 -2.13511e-09 0)
(3.64637e-07 -1.95778e-09 0)
(3.6849e-07 -2.00646e-09 0)
(3.73822e-07 -2.21544e-09 0)
(3.8036e-07 -2.51529e-09 0)
(3.87868e-07 -2.87451e-09 0)
(3.96223e-07 -3.26858e-09 0)
(4.05222e-07 -3.69435e-09 0)
(4.14795e-07 -4.12728e-09 0)
(4.2485e-07 -4.56731e-09 0)
(3.583e-07 -3.58498e-09 0)
(3.60151e-07 -3.33708e-09 0)
(3.63888e-07 -3.4438e-09 0)
(3.69156e-07 -3.7957e-09 0)
(3.75668e-07 -4.29994e-09 0)
(3.83176e-07 -4.90874e-09 0)
(3.91532e-07 -5.57027e-09 0)
(4.00555e-07 -6.2743e-09 0)
(4.10164e-07 -6.98959e-09 0)
(4.2028e-07 -7.71714e-09 0)
(3.51811e-07 -5.08137e-09 0)
(3.53439e-07 -4.81133e-09 0)
(3.57002e-07 -5.01298e-09 0)
(3.62178e-07 -5.52942e-09 0)
(3.68621e-07 -6.24335e-09 0)
(3.76078e-07 -7.09976e-09 0)
(3.84409e-07 -8.03177e-09 0)
(3.93462e-07 -9.01829e-09 0)
(4.03103e-07 -1.00263e-08 0)
(4.13286e-07 -1.1042e-08 0)
(3.43164e-07 -6.63549e-09 0)
(3.4451e-07 -6.40662e-09 0)
(3.47867e-07 -6.74608e-09 0)
(3.52882e-07 -7.45522e-09 0)
(3.59242e-07 -8.38883e-09 0)
(3.66676e-07 -9.49125e-09 0)
(3.75007e-07 -1.0694e-08 0)
(3.84107e-07 -1.19609e-08 0)
(3.93817e-07 -1.32644e-08 0)
(4.04129e-07 -1.45689e-08 0)
(3.32405e-07 -8.25795e-09 0)
(3.33364e-07 -8.14834e-09 0)
(3.36482e-07 -8.67004e-09 0)
(3.4132e-07 -9.60127e-09 0)
(3.47567e-07 -1.07703e-08 0)
(3.54948e-07 -1.21243e-08 0)
(3.63268e-07 -1.35941e-08 0)
(3.72407e-07 -1.51353e-08 0)
(3.82221e-07 -1.67306e-08 0)
(3.92761e-07 -1.83217e-08 0)
(3.1956e-07 -9.94608e-09 0)
(3.20076e-07 -1.00507e-08 0)
(3.22913e-07 -1.08048e-08 0)
(3.27551e-07 -1.19936e-08 0)
(3.33641e-07 -1.34232e-08 0)
(3.40926e-07 -1.50351e-08 0)
(3.49221e-07 -1.67713e-08 0)
(3.58408e-07 -1.85877e-08 0)
(3.68387e-07 -2.04797e-08 0)
(3.79293e-07 -2.23622e-08 0)
(3.04669e-07 -1.16887e-08 0)
(3.0472e-07 -1.21176e-08 0)
(3.07212e-07 -1.31677e-08 0)
(3.11588e-07 -1.46481e-08 0)
(3.17457e-07 -1.63733e-08 0)
(3.24585e-07 -1.82623e-08 0)
(3.32804e-07 -2.02675e-08 0)
(3.42027e-07 -2.23532e-08 0)
(3.52214e-07 -2.454e-08 0)
(3.63645e-07 -2.67219e-08 0)
(2.878e-07 -1.34734e-08 0)
(2.87385e-07 -1.4337e-08 0)
(2.8949e-07 -1.57508e-08 0)
(2.9352e-07 -1.7563e-08 0)
(2.99084e-07 -1.96169e-08 0)
(3.05939e-07 -2.18236e-08 0)
(3.13943e-07 -2.41346e-08 0)
(3.2306e-07 -2.652e-08 0)
(3.33334e-07 -2.90271e-08 0)
(3.45365e-07 -3.15195e-08 0)
(2.6906e-07 -1.52813e-08 0)
(2.68222e-07 -1.66643e-08 0)
(2.69887e-07 -1.8513e-08 0)
(2.73472e-07 -2.07053e-08 0)
(2.78571e-07 -2.31287e-08 0)
(2.84914e-07 -2.57155e-08 0)
(2.92392e-07 -2.84269e-08 0)
(3.01023e-07 -3.12505e-08 0)
(3.10975e-07 -3.42769e-08 0)
(3.23243e-07 -3.7401e-08 0)
(4.37669e-07 -1.6525e-09 0)
(4.48796e-07 -1.77778e-09 0)
(4.60543e-07 -1.89621e-09 0)
(4.72852e-07 -2.01675e-09 0)
(4.85682e-07 -2.13515e-09 0)
(4.99022e-07 -2.2426e-09 0)
(5.12853e-07 -2.34054e-09 0)
(5.27119e-07 -2.44125e-09 0)
(5.41767e-07 -2.55167e-09 0)
(5.5677e-07 -2.66353e-09 0)
(5.72105e-07 -2.76274e-09 0)
(5.87738e-07 -2.84554e-09 0)
(6.03635e-07 -2.91734e-09 0)
(6.19766e-07 -2.98248e-09 0)
(6.36096e-07 -3.04044e-09 0)
(6.52587e-07 -3.08935e-09 0)
(6.69215e-07 -3.12864e-09 0)
(6.85955e-07 -3.15839e-09 0)
(7.0276e-07 -3.18204e-09 0)
(7.19645e-07 -3.20652e-09 0)
(4.35221e-07 -4.98991e-09 0)
(4.46418e-07 -5.37399e-09 0)
(4.58263e-07 -5.73453e-09 0)
(4.70702e-07 -6.08726e-09 0)
(4.83695e-07 -6.42925e-09 0)
(4.97215e-07 -6.75227e-09 0)
(5.11227e-07 -7.05938e-09 0)
(5.2568e-07 -7.36296e-09 0)
(5.40514e-07 -7.66885e-09 0)
(5.55688e-07 -7.96754e-09 0)
(5.71176e-07 -8.24114e-09 0)
(5.86956e-07 -8.48377e-09 0)
(6.03008e-07 -8.70085e-09 0)
(6.19293e-07 -8.89621e-09 0)
(6.35762e-07 -9.0677e-09 0)
(6.52377e-07 -9.21217e-09 0)
(6.69109e-07 -9.32857e-09 0)
(6.85925e-07 -9.41854e-09 0)
(7.02831e-07 -9.49284e-09 0)
(7.19831e-07 -9.56855e-09 0)
(4.30755e-07 -8.41322e-09 0)
(4.42156e-07 -9.04419e-09 0)
(4.54241e-07 -9.63428e-09 0)
(4.66915e-07 -1.02075e-08 0)
(4.80143e-07 -1.07631e-08 0)
(4.93908e-07 -1.12938e-08 0)
(5.08184e-07 -1.18029e-08 0)
(5.22905e-07 -1.22982e-08 0)
(5.38002e-07 -1.2781e-08 0)
(5.53443e-07 -1.32431e-08 0)
(5.69215e-07 -1.3671e-08 0)
(5.85291e-07 -1.4061e-08 0)
(6.01628e-07 -1.4416e-08 0)
(6.18176e-07 -1.47352e-08 0)
(6.34908e-07 -1.50132e-08 0)
(6.51804e-07 -1.5245e-08 0)
(6.68799e-07 -1.54297e-08 0)
(6.85873e-07 -1.55762e-08 0)
(7.03026e-07 -1.57046e-08 0)
(7.20249e-07 -1.58407e-08 0)
(4.23896e-07 -1.1991e-08 0)
(4.35589e-07 -1.2836e-08 0)
(4.48049e-07 -1.36291e-08 0)
(4.61148e-07 -1.44079e-08 0)
(4.74833e-07 -1.51675e-08 0)
(4.89058e-07 -1.58941e-08 0)
(5.03774e-07 -1.65898e-08 0)
(5.18917e-07 -1.72603e-08 0)
(5.34435e-07 -1.79083e-08 0)
(5.50304e-07 -1.85232e-08 0)
(5.66508e-07 -1.90921e-08 0)
(5.8301e-07 -1.96126e-08 0)
(5.99753e-07 -2.0085e-08 0)
(6.16688e-07 -2.05053e-08 0)
(6.33796e-07 -2.08689e-08 0)
(6.51064e-07 -2.11714e-08 0)
(6.68416e-07 -2.14155e-08 0)
(6.85866e-07 -2.16188e-08 0)
(7.03377e-07 -2.18084e-08 0)
(7.20914e-07 -2.2016e-08 0)
(4.14963e-07 -1.57572e-08 0)
(4.27084e-07 -1.67929e-08 0)
(4.40064e-07 -1.77692e-08 0)
(4.53711e-07 -1.87391e-08 0)
(4.6796e-07 -1.96904e-08 0)
(4.82764e-07 -2.06028e-08 0)
(4.98075e-07 -2.14773e-08 0)
(5.13806e-07 -2.23117e-08 0)
(5.29902e-07 -2.31122e-08 0)
(5.46334e-07 -2.38651e-08 0)
(5.63076e-07 -2.45553e-08 0)
(5.8009e-07 -2.51797e-08 0)
(5.9733e-07 -2.57382e-08 0)
(6.14775e-07 -2.62287e-08 0)
(6.32407e-07 -2.66506e-08 0)
(6.50153e-07 -2.70055e-08 0)
(6.68002e-07 -2.73023e-08 0)
(6.85901e-07 -2.75636e-08 0)
(7.0387e-07 -2.78214e-08 0)
(7.21834e-07 -2.81023e-08 0)
(4.03956e-07 -1.97392e-08 0)
(4.16688e-07 -2.09508e-08 0)
(4.30395e-07 -2.21022e-08 0)
(4.44802e-07 -2.32595e-08 0)
(4.59833e-07 -2.4397e-08 0)
(4.75404e-07 -2.54842e-08 0)
(4.91463e-07 -2.65219e-08 0)
(5.07917e-07 -2.75016e-08 0)
(5.247e-07 -2.84262e-08 0)
(5.41796e-07 -2.92833e-08 0)
(5.59188e-07 -3.00615e-08 0)
(5.76828e-07 -3.07582e-08 0)
(5.94665e-07 -3.13731e-08 0)
(6.1269e-07 -3.19086e-08 0)
(6.30901e-07 -3.23688e-08 0)
(6.4919e-07 -3.27618e-08 0)
(6.67586e-07 -3.3104e-08 0)
(6.86014e-07 -3.34182e-08 0)
(7.04521e-07 -3.37355e-08 0)
(7.23008e-07 -3.40707e-08 0)
(3.91047e-07 -2.40053e-08 0)
(4.04625e-07 -2.53821e-08 0)
(4.1931e-07 -2.66971e-08 0)
(4.34715e-07 -2.80187e-08 0)
(4.50739e-07 -2.93059e-08 0)
(4.67265e-07 -3.05336e-08 0)
(4.84197e-07 -3.16928e-08 0)
(5.01466e-07 -3.27838e-08 0)
(5.19027e-07 -3.3799e-08 0)
(5.36867e-07 -3.47231e-08 0)
(5.54973e-07 -3.55526e-08 0)
(5.73295e-07 -3.62904e-08 0)
(5.91797e-07 -3.6938e-08 0)
(6.10474e-07 -3.75012e-08 0)
(6.29286e-07 -3.79875e-08 0)
(6.48174e-07 -3.84094e-08 0)
(6.67177e-07 -3.87863e-08 0)
(6.86205e-07 -3.91374e-08 0)
(7.05317e-07 -3.94842e-08 0)
(7.24405e-07 -3.98385e-08 0)
(3.76299e-07 -2.86088e-08 0)
(3.91137e-07 -3.01381e-08 0)
(4.07168e-07 -3.1588e-08 0)
(4.23873e-07 -3.30306e-08 0)
(4.41097e-07 -3.44073e-08 0)
(4.58746e-07 -3.57097e-08 0)
(4.76696e-07 -3.6923e-08 0)
(4.94886e-07 -3.80604e-08 0)
(5.13298e-07 -3.91109e-08 0)
(5.31938e-07 -4.00593e-08 0)
(5.50786e-07 -4.09071e-08 0)
(5.69788e-07 -4.16612e-08 0)
(5.88924e-07 -4.23267e-08 0)
(6.08228e-07 -4.29101e-08 0)
(6.27642e-07 -4.34193e-08 0)
(6.47146e-07 -4.38663e-08 0)
(6.6677e-07 -4.42658e-08 0)
(6.86426e-07 -4.46296e-08 0)
(7.06188e-07 -4.49718e-08 0)
(7.25956e-07 -4.53162e-08 0)
(3.59667e-07 -3.37199e-08 0)
(3.76518e-07 -3.53651e-08 0)
(3.94463e-07 -3.68521e-08 0)
(4.1284e-07 -3.82902e-08 0)
(4.31504e-07 -3.96441e-08 0)
(4.50382e-07 -4.09119e-08 0)
(4.69401e-07 -4.20949e-08 0)
(4.88536e-07 -4.32061e-08 0)
(5.07802e-07 -4.42321e-08 0)
(5.27215e-07 -4.51608e-08 0)
(5.46766e-07 -4.59963e-08 0)
(5.66414e-07 -4.67477e-08 0)
(5.86168e-07 -4.74222e-08 0)
(6.06065e-07 -4.80243e-08 0)
(6.26039e-07 -4.85566e-08 0)
(6.46116e-07 -4.90271e-08 0)
(6.66328e-07 -4.94428e-08 0)
(6.86605e-07 -4.98056e-08 0)
(7.07022e-07 -5.01308e-08 0)
(7.27504e-07 -5.04617e-08 0)
(3.41355e-07 -3.99163e-08 0)
(3.61691e-07 -4.12645e-08 0)
(3.82293e-07 -4.24642e-08 0)
(4.0267e-07 -4.36574e-08 0)
(4.22873e-07 -4.48207e-08 0)
(4.42968e-07 -4.59431e-08 0)
(4.62985e-07 -4.70233e-08 0)
(4.82969e-07 -4.80548e-08 0)
(5.02979e-07 -4.90188e-08 0)
(5.23063e-07 -4.9904e-08 0)
(5.43222e-07 -5.07133e-08 0)
(5.63427e-07 -5.14552e-08 0)
(5.83711e-07 -5.21367e-08 0)
(6.04107e-07 -5.27576e-08 0)
(6.24559e-07 -5.33144e-08 0)
(6.45136e-07 -5.38102e-08 0)
(6.65847e-07 -5.42445e-08 0)
(6.86663e-07 -5.46164e-08 0)
(7.07657e-07 -5.49488e-08 0)
(7.28815e-07 -5.52878e-08 0)
(3.22365e-07 -4.8676e-08 0)
(3.48705e-07 -4.81393e-08 0)
(3.72341e-07 -4.85127e-08 0)
(3.94657e-07 -4.92131e-08 0)
(4.16217e-07 -5.00457e-08 0)
(4.37338e-07 -5.09403e-08 0)
(4.58181e-07 -5.18526e-08 0)
(4.78857e-07 -5.27506e-08 0)
(4.99461e-07 -5.36105e-08 0)
(5.20065e-07 -5.44178e-08 0)
(5.40678e-07 -5.51697e-08 0)
(5.61283e-07 -5.58717e-08 0)
(5.81946e-07 -5.6529e-08 0)
(6.02699e-07 -5.71369e-08 0)
(6.23482e-07 -5.7687e-08 0)
(6.44401e-07 -5.81803e-08 0)
(6.65435e-07 -5.86124e-08 0)
(6.86587e-07 -5.8991e-08 0)
(7.07914e-07 -5.93432e-08 0)
(7.29444e-07 -5.96854e-08 0)
(3.13964e-07 -5.63432e-08 0)
(3.40432e-07 -5.53463e-08 0)
(3.64933e-07 -5.50697e-08 0)
(3.88241e-07 -5.52499e-08 0)
(4.10715e-07 -5.56998e-08 0)
(4.3262e-07 -5.63129e-08 0)
(4.5414e-07 -5.70038e-08 0)
(4.75403e-07 -5.7723e-08 0)
(4.96518e-07 -5.8441e-08 0)
(5.1757e-07 -5.91355e-08 0)
(5.38572e-07 -5.97951e-08 0)
(5.5952e-07 -6.04207e-08 0)
(5.80502e-07 -6.10156e-08 0)
(6.01543e-07 -6.15709e-08 0)
(6.2259e-07 -6.2076e-08 0)
(6.43766e-07 -6.25342e-08 0)
(6.65028e-07 -6.29433e-08 0)
(6.86399e-07 -6.33198e-08 0)
(7.07905e-07 -6.36775e-08 0)
(7.29569e-07 -6.39754e-08 0)
(3.09211e-07 -6.27553e-08 0)
(3.34977e-07 -6.19295e-08 0)
(3.59532e-07 -6.14664e-08 0)
(3.83192e-07 -6.13518e-08 0)
(4.0615e-07 -6.15203e-08 0)
(4.28571e-07 -6.18894e-08 0)
(4.50593e-07 -6.23713e-08 0)
(4.72318e-07 -6.2915e-08 0)
(4.9385e-07 -6.34883e-08 0)
(5.15279e-07 -6.40632e-08 0)
(5.36613e-07 -6.46205e-08 0)
(5.57855e-07 -6.51561e-08 0)
(5.79111e-07 -6.56725e-08 0)
(6.00394e-07 -6.6159e-08 0)
(6.21665e-07 -6.66062e-08 0)
(6.43047e-07 -6.70215e-08 0)
(6.64487e-07 -6.74078e-08 0)
(6.86019e-07 -6.77776e-08 0)
(7.07642e-07 -6.81111e-08 0)
(7.29374e-07 -6.83301e-08 0)
(3.05948e-07 -6.86079e-08 0)
(3.3107e-07 -6.79828e-08 0)
(3.55442e-07 -6.75356e-08 0)
(3.79174e-07 -6.73103e-08 0)
(4.0236e-07 -6.73152e-08 0)
(4.251e-07 -6.75059e-08 0)
(4.47474e-07 -6.78182e-08 0)
(4.69541e-07 -6.82087e-08 0)
(4.91397e-07 -6.86464e-08 0)
(5.13133e-07 -6.91032e-08 0)
(5.34743e-07 -6.95558e-08 0)
(5.56233e-07 -6.99976e-08 0)
(5.77722e-07 -7.04333e-08 0)
(5.99212e-07 -7.08513e-08 0)
(6.20679e-07 -7.12435e-08 0)
(6.42231e-07 -7.16196e-08 0)
(6.63812e-07 -7.19824e-08 0)
(6.85466e-07 -7.23276e-08 0)
(7.07175e-07 -7.26022e-08 0)
(7.28953e-07 -7.27562e-08 0)
(3.03473e-07 -7.41614e-08 0)
(3.28117e-07 -7.37004e-08 0)
(3.5226e-07 -7.33365e-08 0)
(3.75958e-07 -7.30977e-08 0)
(3.99235e-07 -7.30193e-08 0)
(4.22162e-07 -7.30932e-08 0)
(4.44768e-07 -7.32811e-08 0)
(4.67075e-07 -7.35474e-08 0)
(4.89172e-07 -7.38655e-08 0)
(5.11146e-07 -7.4213e-08 0)
(5.32978e-07 -7.45668e-08 0)
(5.54675e-07 -7.4921e-08 0)
(5.7636e-07 -7.5285e-08 0)
(5.98023e-07 -7.56462e-08 0)
(6.19654e-07 -7.59949e-08 0)
(6.41348e-07 -7.63379e-08 0)
(6.63044e-07 -7.667e-08 0)
(6.84791e-07 -7.69691e-08 0)
(7.06566e-07 -7.7178e-08 0)
(7.28379e-07 -7.7326e-08 0)
(3.01467e-07 -7.95464e-08 0)
(3.25756e-07 -7.92239e-08 0)
(3.49709e-07 -7.8946e-08 0)
(3.73336e-07 -7.87339e-08 0)
(3.96636e-07 -7.86253e-08 0)
(4.1967e-07 -7.86355e-08 0)
(4.42424e-07 -7.8744e-08 0)
(4.64895e-07 -7.89207e-08 0)
(4.87167e-07 -7.91442e-08 0)
(5.09324e-07 -7.94014e-08 0)
(5.31333e-07 -7.96714e-08 0)
(5.53199e-07 -7.99508e-08 0)
(5.75049e-07 -8.02545e-08 0)
(5.96855e-07 -8.05692e-08 0)
(6.18624e-07 -8.08807e-08 0)
(6.40433e-07 -8.11861e-08 0)
(6.62222e-07 -8.14723e-08 0)
(6.8404e-07 -8.17134e-08 0)
(7.05864e-07 -8.18867e-08 0)
(7.27702e-07 -8.20599e-08 0)
(2.99789e-07 -8.48335e-08 0)
(3.23816e-07 -8.46203e-08 0)
(3.47628e-07 -8.44159e-08 0)
(3.71168e-07 -8.42495e-08 0)
(3.94459e-07 -8.41502e-08 0)
(4.17549e-07 -8.41391e-08 0)
(4.40397e-07 -8.42055e-08 0)
(4.62978e-07 -8.43242e-08 0)
(4.85377e-07 -8.44789e-08 0)
(5.07672e-07 -8.46681e-08 0)
(5.29819e-07 -8.48727e-08 0)
(5.51824e-07 -8.50912e-08 0)
(5.73811e-07 -8.53416e-08 0)
(5.95733e-07 -8.56094e-08 0)
(6.17616e-07 -8.5877e-08 0)
(6.39514e-07 -8.61311e-08 0)
(6.61376e-07 -8.63587e-08 0)
(6.83247e-07 -8.65496e-08 0)
(7.05106e-07 -8.6722e-08 0)
(7.26964e-07 -8.68725e-08 0)
(2.98374e-07 -9.00459e-08 0)
(3.22217e-07 -8.99105e-08 0)
(3.45914e-07 -8.97735e-08 0)
(3.6937e-07 -8.9663e-08 0)
(3.92633e-07 -8.95959e-08 0)
(4.15744e-07 -8.95861e-08 0)
(4.38646e-07 -8.96301e-08 0)
(4.61301e-07 -8.971e-08 0)
(4.8379e-07 -8.98135e-08 0)
(5.06189e-07 -8.99539e-08 0)
(5.28442e-07 -9.01122e-08 0)
(5.50559e-07 -9.02873e-08 0)
(5.72658e-07 -9.04933e-08 0)
(5.94675e-07 -9.07126e-08 0)
(6.16647e-07 -9.09289e-08 0)
(6.38613e-07 -9.11273e-08 0)
(6.60529e-07 -9.13047e-08 0)
(6.82437e-07 -9.14695e-08 0)
(7.04323e-07 -9.16375e-08 0)
(7.26196e-07 -9.17091e-08 0)
(2.97175e-07 -9.51941e-08 0)
(3.20892e-07 -9.51168e-08 0)
(3.4449e-07 -9.50399e-08 0)
(3.67871e-07 -9.49814e-08 0)
(3.91097e-07 -9.49467e-08 0)
(4.14207e-07 -9.49405e-08 0)
(4.37137e-07 -9.49685e-08 0)
(4.59838e-07 -9.5022e-08 0)
(4.82391e-07 -9.50902e-08 0)
(5.04869e-07 -9.52029e-08 0)
(5.27205e-07 -9.53385e-08 0)
(5.49413e-07 -9.54938e-08 0)
(5.71599e-07 -9.56727e-08 0)
(5.93691e-07 -9.58525e-08 0)
(6.15729e-07 -9.60236e-08 0)
(6.37744e-07 -9.61811e-08 0)
(6.59698e-07 -9.63334e-08 0)
(6.81634e-07 -9.64872e-08 0)
(7.03538e-07 -9.66082e-08 0)
(7.25423e-07 -9.66374e-08 0)
(2.96161e-07 -1.00302e-07 0)
(3.19787e-07 -1.00277e-07 0)
(3.43301e-07 -1.00244e-07 0)
(3.66617e-07 -1.0022e-07 0)
(3.89801e-07 -1.00207e-07 0)
(4.12897e-07 -1.00203e-07 0)
(4.35837e-07 -1.00225e-07 0)
(4.58567e-07 -1.00271e-07 0)
(4.81167e-07 -1.00328e-07 0)
(5.03704e-07 -1.00435e-07 0)
(5.26105e-07 -1.00568e-07 0)
(5.48386e-07 -1.00719e-07 0)
(5.70635e-07 -1.00883e-07 0)
(5.92782e-07 -1.01033e-07 0)
(6.14865e-07 -1.0117e-07 0)
(6.36915e-07 -1.01303e-07 0)
(6.58896e-07 -1.0144e-07 0)
(6.80852e-07 -1.01565e-07 0)
(7.02771e-07 -1.01613e-07 0)
(7.24664e-07 -1.01672e-07 0)
(2.95313e-07 -1.054e-07 0)
(3.18863e-07 -1.0542e-07 0)
(3.42305e-07 -1.05411e-07 0)
(3.65563e-07 -1.05406e-07 0)
(3.88704e-07 -1.05409e-07 0)
(4.11779e-07 -1.05415e-07 0)
(4.34719e-07 -1.05444e-07 0)
(4.57466e-07 -1.05503e-07 0)
(4.80102e-07 -1.05566e-07 0)
(5.02685e-07 -1.05675e-07 0)
(5.25135e-07 -1.05804e-07 0)
(5.47468e-07 -1.05946e-07 0)
(5.6976e-07 -1.06089e-07 0)
(5.91943e-07 -1.06213e-07 0)
(6.14056e-07 -1.06326e-07 0)
(6.36131e-07 -1.06441e-07 0)
(6.58132e-07 -1.0655e-07 0)
(6.80104e-07 -1.06618e-07 0)
(7.02033e-07 -1.06637e-07 0)
(7.2393e-07 -1.067e-07 0)
(2.94604e-07 -1.10498e-07 0)
(3.18089e-07 -1.10534e-07 0)
(3.41466e-07 -1.10543e-07 0)
(3.6467e-07 -1.10554e-07 0)
(3.8777e-07 -1.10572e-07 0)
(4.10822e-07 -1.10589e-07 0)
(4.33758e-07 -1.10629e-07 0)
(4.56517e-07 -1.10694e-07 0)
(4.7918e-07 -1.10773e-07 0)
(5.01798e-07 -1.10879e-07 0)
(5.2428e-07 -1.10998e-07 0)
(5.46646e-07 -1.11127e-07 0)
(5.68964e-07 -1.11254e-07 0)
(5.9117e-07 -1.11369e-07 0)
(6.13304e-07 -1.11477e-07 0)
(6.35398e-07 -1.11579e-07 0)
(6.57414e-07 -1.11652e-07 0)
(6.79396e-07 -1.11676e-07 0)
(7.01329e-07 -1.11734e-07 0)
(7.2323e-07 -1.1174e-07 0)
(2.94004e-07 -1.15573e-07 0)
(3.17431e-07 -1.15609e-07 0)
(3.40751e-07 -1.15642e-07 0)
(3.63908e-07 -1.15667e-07 0)
(3.86974e-07 -1.15694e-07 0)
(4.10006e-07 -1.15713e-07 0)
(4.32937e-07 -1.15759e-07 0)
(4.55705e-07 -1.15822e-07 0)
(4.78386e-07 -1.15926e-07 0)
(5.01024e-07 -1.16046e-07 0)
(5.23523e-07 -1.16169e-07 0)
(5.45905e-07 -1.16297e-07 0)
(5.68238e-07 -1.16423e-07 0)
(5.90461e-07 -1.16539e-07 0)
(6.12612e-07 -1.16646e-07 0)
(6.34719e-07 -1.1673e-07 0)
(6.56744e-07 -1.16773e-07 0)
(6.7873e-07 -1.16805e-07 0)
(7.0067e-07 -1.16875e-07 0)
(7.22581e-07 -1.16873e-07 0)
(2.93492e-07 -1.20629e-07 0)
(3.16867e-07 -1.20688e-07 0)
(3.40144e-07 -1.2074e-07 0)
(3.63263e-07 -1.20769e-07 0)
(3.86301e-07 -1.20798e-07 0)
(4.09317e-07 -1.20819e-07 0)
(4.32242e-07 -1.20887e-07 0)
(4.55014e-07 -1.20959e-07 0)
(4.77702e-07 -1.21081e-07 0)
(5.00344e-07 -1.21212e-07 0)
(5.22847e-07 -1.21331e-07 0)
(5.45237e-07 -1.2145e-07 0)
(5.67582e-07 -1.21568e-07 0)
(5.89818e-07 -1.2168e-07 0)
(6.1198e-07 -1.21773e-07 0)
(6.34092e-07 -1.21835e-07 0)
(6.56122e-07 -1.21876e-07 0)
(6.78121e-07 -1.21949e-07 0)
(7.00078e-07 -1.21964e-07 0)
(7.22001e-07 -1.21995e-07 0)
(2.93059e-07 -1.25733e-07 0)
(3.16393e-07 -1.25808e-07 0)
(3.39638e-07 -1.25855e-07 0)
(3.62729e-07 -1.2588e-07 0)
(3.85747e-07 -1.25916e-07 0)
(4.08752e-07 -1.25955e-07 0)
(4.31667e-07 -1.26036e-07 0)
(4.54431e-07 -1.26111e-07 0)
(4.77114e-07 -1.26209e-07 0)
(4.9975e-07 -1.26324e-07 0)
(5.22251e-07 -1.26446e-07 0)
(5.44649e-07 -1.26573e-07 0)
(5.67004e-07 -1.267e-07 0)
(5.89244e-07 -1.2681e-07 0)
(6.11405e-07 -1.26892e-07 0)
(6.33522e-07 -1.26951e-07 0)
(6.55571e-07 -1.27019e-07 0)
(6.77596e-07 -1.27102e-07 0)
(6.99568e-07 -1.27105e-07 0)
(7.2148e-07 -1.27115e-07 0)
(2.92713e-07 -1.30902e-07 0)
(3.16018e-07 -1.30931e-07 0)
(3.39239e-07 -1.30968e-07 0)
(3.62309e-07 -1.31003e-07 0)
(3.85316e-07 -1.31044e-07 0)
(4.08311e-07 -1.31101e-07 0)
(4.31213e-07 -1.3117e-07 0)
(4.53953e-07 -1.3126e-07 0)
(4.76615e-07 -1.3135e-07 0)
(4.99243e-07 -1.31446e-07 0)
(5.21749e-07 -1.31558e-07 0)
(5.44152e-07 -1.31684e-07 0)
(5.66501e-07 -1.31806e-07 0)
(5.8873e-07 -1.31907e-07 0)
(6.10894e-07 -1.31988e-07 0)
(6.3304e-07 -1.32071e-07 0)
(6.55122e-07 -1.32171e-07 0)
(6.7716e-07 -1.32201e-07 0)
(6.99123e-07 -1.32258e-07 0)
(7.21012e-07 -1.32265e-07 0)
(2.9247e-07 -1.36013e-07 0)
(3.1575e-07 -1.36053e-07 0)
(3.38952e-07 -1.36097e-07 0)
(3.62011e-07 -1.36144e-07 0)
(3.85008e-07 -1.3618e-07 0)
(4.07983e-07 -1.36238e-07 0)
(4.30854e-07 -1.36301e-07 0)
(4.53565e-07 -1.36378e-07 0)
(4.76214e-07 -1.36457e-07 0)
(4.98845e-07 -1.36548e-07 0)
(5.2135e-07 -1.36655e-07 0)
(5.43734e-07 -1.3677e-07 0)
(5.6606e-07 -1.36877e-07 0)
(5.88292e-07 -1.36973e-07 0)
(6.10496e-07 -1.37071e-07 0)
(6.32687e-07 -1.37182e-07 0)
(6.54765e-07 -1.37277e-07 0)
(6.76742e-07 -1.37299e-07 0)
(6.98712e-07 -1.37349e-07 0)
(7.2073e-07 -1.3738e-07 0)
(2.92334e-07 -1.41117e-07 0)
(3.15586e-07 -1.41187e-07 0)
(3.38776e-07 -1.41221e-07 0)
(3.61823e-07 -1.41263e-07 0)
(3.84794e-07 -1.41326e-07 0)
(4.07733e-07 -1.41374e-07 0)
(4.30574e-07 -1.41424e-07 0)
(4.53279e-07 -1.41484e-07 0)
(4.75939e-07 -1.41556e-07 0)
(4.98564e-07 -1.41645e-07 0)
(5.21026e-07 -1.41745e-07 0)
(5.43368e-07 -1.41849e-07 0)
(5.65718e-07 -1.4195e-07 0)
(5.8803e-07 -1.42053e-07 0)
(6.10246e-07 -1.42171e-07 0)
(6.32341e-07 -1.42288e-07 0)
(6.54402e-07 -1.42347e-07 0)
(6.76501e-07 -1.42435e-07 0)
(6.98472e-07 -1.42459e-07 0)
(7.20336e-07 -1.42495e-07 0)
(2.92286e-07 -1.46291e-07 0)
(3.15509e-07 -1.46313e-07 0)
(3.3868e-07 -1.46343e-07 0)
(3.617e-07 -1.46389e-07 0)
(3.84627e-07 -1.46436e-07 0)
(4.07542e-07 -1.46483e-07 0)
(4.30405e-07 -1.46529e-07 0)
(4.5314e-07 -1.46578e-07 0)
(4.75765e-07 -1.46639e-07 0)
(4.98306e-07 -1.46718e-07 0)
(5.20759e-07 -1.46808e-07 0)
(5.43199e-07 -1.46903e-07 0)
(5.65584e-07 -1.47005e-07 0)
(5.87792e-07 -1.4712e-07 0)
(6.0998e-07 -1.47242e-07 0)
(6.32184e-07 -1.47349e-07 0)
(6.54262e-07 -1.47411e-07 0)
(6.76299e-07 -1.4748e-07 0)
(6.98287e-07 -1.47512e-07 0)
(7.20173e-07 -1.4756e-07 0)
(2.92299e-07 -1.51379e-07 0)
(3.15493e-07 -1.51428e-07 0)
(3.38617e-07 -1.51465e-07 0)
(3.61577e-07 -1.51504e-07 0)
(3.84523e-07 -1.51545e-07 0)
(4.07509e-07 -1.51592e-07 0)
(4.30372e-07 -1.51637e-07 0)
(4.53008e-07 -1.51687e-07 0)
(4.75594e-07 -1.51748e-07 0)
(4.9823e-07 -1.51822e-07 0)
(5.20729e-07 -1.51908e-07 0)
(5.43081e-07 -1.52001e-07 0)
(5.65442e-07 -1.52105e-07 0)
(5.87727e-07 -1.52225e-07 0)
(6.09915e-07 -1.52336e-07 0)
(6.32104e-07 -1.52427e-07 0)
(6.54215e-07 -1.52556e-07 0)
(6.76257e-07 -1.52535e-07 0)
(6.98253e-07 -1.5255e-07 0)
(7.20029e-07 -1.52508e-07 0)
(1.59316e-08 -6.60899e-08 0)
(4.77405e-08 -6.57347e-08 0)
(7.93706e-08 -6.47781e-08 0)
(1.10715e-07 -6.35588e-08 0)
(1.41651e-07 -6.19227e-08 0)
(1.72095e-07 -6.00832e-08 0)
(2.01982e-07 -5.80588e-08 0)
(2.31318e-07 -5.58771e-08 0)
(2.60257e-07 -5.35754e-08 0)
(2.88991e-07 -5.1117e-08 0)
(1.61208e-08 -6.9096e-08 0)
(4.82975e-08 -6.88283e-08 0)
(8.02486e-08 -6.79955e-08 0)
(1.11834e-07 -6.70032e-08 0)
(1.42902e-07 -6.56538e-08 0)
(1.73319e-07 -6.41438e-08 0)
(2.0295e-07 -6.25169e-08 0)
(2.31698e-07 -6.08066e-08 0)
(2.59468e-07 -5.91263e-08 0)
(2.86177e-07 -5.76082e-08 0)
(1.62298e-08 -7.24076e-08 0)
(4.86094e-08 -7.22399e-08 0)
(8.07116e-08 -7.154e-08 0)
(1.12363e-07 -7.07705e-08 0)
(1.43397e-07 -6.97134e-08 0)
(1.73627e-07 -6.85193e-08 0)
(2.02876e-07 -6.7257e-08 0)
(2.31003e-07 -6.59468e-08 0)
(2.57894e-07 -6.46934e-08 0)
(2.83503e-07 -6.35998e-08 0)
(1.62739e-08 -7.59863e-08 0)
(4.87361e-08 -7.5902e-08 0)
(8.08843e-08 -7.53196e-08 0)
(1.12513e-07 -7.47263e-08 0)
(1.43441e-07 -7.39147e-08 0)
(1.73451e-07 -7.2961e-08 0)
(2.02361e-07 -7.1977e-08 0)
(2.30011e-07 -7.09699e-08 0)
(2.56334e-07 -7.00129e-08 0)
(2.81281e-07 -6.9195e-08 0)
(1.62757e-08 -7.97874e-08 0)
(4.87171e-08 -7.97761e-08 0)
(8.08295e-08 -7.92989e-08 0)
(1.12375e-07 -7.88353e-08 0)
(1.43153e-07 -7.82246e-08 0)
(1.72944e-07 -7.74662e-08 0)
(2.01566e-07 -7.67028e-08 0)
(2.28876e-07 -7.59383e-08 0)
(2.54834e-07 -7.51959e-08 0)
(2.79381e-07 -7.45793e-08 0)
(1.6245e-08 -8.37832e-08 0)
(4.85965e-08 -8.38215e-08 0)
(8.06095e-08 -8.34456e-08 0)
(1.12026e-07 -8.30802e-08 0)
(1.4263e-07 -8.26317e-08 0)
(1.7222e-07 -8.20484e-08 0)
(2.00611e-07 -8.14572e-08 0)
(2.27681e-07 -8.08792e-08 0)
(2.534e-07 -8.03021e-08 0)
(2.77712e-07 -7.98419e-08 0)
(1.61755e-08 -8.79517e-08 0)
(4.83948e-08 -8.8012e-08 0)
(8.02606e-08 -8.77457e-08 0)
(1.11514e-07 -8.74507e-08 0)
(1.41941e-07 -8.71199e-08 0)
(1.71346e-07 -8.66893e-08 0)
(1.99562e-07 -8.62374e-08 0)
(2.26467e-07 -8.57999e-08 0)
(2.52035e-07 -8.53571e-08 0)
(2.76231e-07 -8.5018e-08 0)
(1.60829e-08 -9.2274e-08 0)
(4.81359e-08 -9.23287e-08 0)
(7.98181e-08 -9.21658e-08 0)
(1.10888e-07 -9.19206e-08 0)
(1.41145e-07 -9.16763e-08 0)
(1.70384e-07 -9.13785e-08 0)
(1.9846e-07 -9.10439e-08 0)
(2.25263e-07 -9.07018e-08 0)
(2.50755e-07 -9.03707e-08 0)
(2.74924e-07 -9.01296e-08 0)
(1.59893e-08 -9.67314e-08 0)
(4.78423e-08 -9.67612e-08 0)
(7.93142e-08 -9.66787e-08 0)
(1.1019e-07 -9.64817e-08 0)
(1.4028e-07 -9.63095e-08 0)
(1.69381e-07 -9.61171e-08 0)
(1.97352e-07 -9.58785e-08 0)
(2.241e-07 -9.56028e-08 0)
(2.49577e-07 -9.53709e-08 0)
(2.73781e-07 -9.52136e-08 0)
(1.58901e-08 -1.01315e-07 0)
(4.75157e-08 -1.01307e-07 0)
(7.87654e-08 -1.01278e-07 0)
(1.0945e-07 -1.01139e-07 0)
(1.39375e-07 -1.01032e-07 0)
(1.68369e-07 -1.0091e-07 0)
(1.96273e-07 -1.00747e-07 0)
(2.23002e-07 -1.00541e-07 0)
(2.48505e-07 -1.00394e-07 0)
(2.72789e-07 -1.00299e-07 0)
(1.57743e-08 -1.06006e-07 0)
(4.71624e-08 -1.05958e-07 0)
(7.81936e-08 -1.05964e-07 0)
(1.08695e-07 -1.05887e-07 0)
(1.38467e-07 -1.0584e-07 0)
(1.67372e-07 -1.05759e-07 0)
(1.95238e-07 -1.05656e-07 0)
(2.21975e-07 -1.05533e-07 0)
(2.47534e-07 -1.05437e-07 0)
(2.71931e-07 -1.05376e-07 0)
(1.56488e-08 -1.10775e-07 0)
(4.6808e-08 -1.10701e-07 0)
(7.76311e-08 -1.10733e-07 0)
(1.07953e-07 -1.10709e-07 0)
(1.37585e-07 -1.10705e-07 0)
(1.66409e-07 -1.10656e-07 0)
(1.94252e-07 -1.10602e-07 0)
(2.21015e-07 -1.10544e-07 0)
(2.46652e-07 -1.10461e-07 0)
(2.71185e-07 -1.10428e-07 0)
(1.55305e-08 -1.15598e-07 0)
(4.6477e-08 -1.1552e-07 0)
(7.71023e-08 -1.15572e-07 0)
(1.07249e-07 -1.15585e-07 0)
(1.36752e-07 -1.15603e-07 0)
(1.65498e-07 -1.15588e-07 0)
(1.93321e-07 -1.15582e-07 0)
(2.20118e-07 -1.1555e-07 0)
(2.45845e-07 -1.15483e-07 0)
(2.70526e-07 -1.1549e-07 0)
(1.54276e-08 -1.20472e-07 0)
(4.61758e-08 -1.20404e-07 0)
(7.66138e-08 -1.20462e-07 0)
(1.06594e-07 -1.20506e-07 0)
(1.35977e-07 -1.20547e-07 0)
(1.64648e-07 -1.20566e-07 0)
(1.9245e-07 -1.20599e-07 0)
(2.19282e-07 -1.20574e-07 0)
(2.45101e-07 -1.20559e-07 0)
(2.69936e-07 -1.20582e-07 0)
(1.53363e-08 -1.25399e-07 0)
(4.58979e-08 -1.25352e-07 0)
(7.61634e-08 -1.25406e-07 0)
(1.05993e-07 -1.25481e-07 0)
(1.35266e-07 -1.2555e-07 0)
(1.63863e-07 -1.25601e-07 0)
(1.91642e-07 -1.25627e-07 0)
(2.18507e-07 -1.25609e-07 0)
(2.44421e-07 -1.25654e-07 0)
(2.69421e-07 -1.25667e-07 0)
(1.52503e-08 -1.30381e-07 0)
(4.56396e-08 -1.30374e-07 0)
(7.57521e-08 -1.30423e-07 0)
(1.05451e-07 -1.30513e-07 0)
(1.34622e-07 -1.30579e-07 0)
(1.6315e-07 -1.30635e-07 0)
(1.90908e-07 -1.30655e-07 0)
(2.17808e-07 -1.30691e-07 0)
(2.43825e-07 -1.30762e-07 0)
(2.68995e-07 -1.30816e-07 0)
(1.51699e-08 -1.35424e-07 0)
(4.54072e-08 -1.35468e-07 0)
(7.53887e-08 -1.35491e-07 0)
(1.04974e-07 -1.35571e-07 0)
(1.34054e-07 -1.3565e-07 0)
(1.6252e-07 -1.35709e-07 0)
(1.90261e-07 -1.35743e-07 0)
(2.17204e-07 -1.35832e-07 0)
(2.43329e-07 -1.35872e-07 0)
(2.68668e-07 -1.3597e-07 0)
(1.51006e-08 -1.4053e-07 0)
(4.52124e-08 -1.40607e-07 0)
(7.50849e-08 -1.40616e-07 0)
(1.04573e-07 -1.40675e-07 0)
(1.33573e-07 -1.4073e-07 0)
(1.6199e-07 -1.40779e-07 0)
(1.89722e-07 -1.4084e-07 0)
(2.16713e-07 -1.40936e-07 0)
(2.4295e-07 -1.41002e-07 0)
(2.68457e-07 -1.41082e-07 0)
(1.50481e-08 -1.45683e-07 0)
(4.50643e-08 -1.45782e-07 0)
(7.48502e-08 -1.458e-07 0)
(1.0426e-07 -1.45834e-07 0)
(1.33194e-07 -1.45868e-07 0)
(1.61577e-07 -1.45921e-07 0)
(1.89316e-07 -1.4601e-07 0)
(2.16352e-07 -1.46077e-07 0)
(2.42674e-07 -1.46177e-07 0)
(2.68338e-07 -1.46256e-07 0)
(1.50148e-08 -1.50915e-07 0)
(4.49681e-08 -1.50983e-07 0)
(7.46837e-08 -1.51012e-07 0)
(1.04035e-07 -1.51019e-07 0)
(1.32939e-07 -1.51027e-07 0)
(1.61317e-07 -1.51081e-07 0)
(1.89062e-07 -1.51159e-07 0)
(2.16112e-07 -1.5122e-07 0)
(2.42496e-07 -1.51297e-07 0)
(2.6832e-07 -1.51358e-07 0)
)


// ************************************************************************* //
