/*--------------------------------*- C++ -*----------------------------------*\
| =========                 |                                                 |
| \\      /  F ield         | foam-extend: Open Source CFD                    |
|  \\    /   O peration     | Version:     4.1                                |
|   \\  /    A nd           | Web:         http://www.foam-extend.org         |
|    \\/     M anipulation  |                                                 |
\*---------------------------------------------------------------------------*/
FoamFile
{
    version     2.0;
    format      ascii;
    class       vectorField;
    location    "1";
    object      solidsCellD_iteration19;
}
// * * * * * * * * * * * * * * * * * * * * * * * * * * * * * * * * * * * * * //


1000
(
(4.74802e-07 -1.71333e-07 0)
(4.50622e-07 -1.60713e-07 0)
(4.35652e-07 -1.54526e-07 0)
(4.27498e-07 -1.52454e-07 0)
(4.24211e-07 -1.52835e-07 0)
(4.24416e-07 -1.55053e-07 0)
(4.27287e-07 -1.58521e-07 0)
(4.32e-07 -1.62939e-07 0)
(4.38381e-07 -1.67986e-07 0)
(4.45499e-07 -1.73354e-07 0)
(4.29625e-07 -1.87334e-07 0)
(4.03951e-07 -1.80624e-07 0)
(3.87975e-07 -1.7694e-07 0)
(3.79023e-07 -1.76562e-07 0)
(3.75055e-07 -1.78083e-07 0)
(3.7463e-07 -1.811e-07 0)
(3.76844e-07 -1.85098e-07 0)
(3.80906e-07 -1.89944e-07 0)
(3.86595e-07 -1.95217e-07 0)
(3.92969e-07 -2.00992e-07 0)
(3.82626e-07 -2.02496e-07 0)
(3.56416e-07 -2.00147e-07 0)
(3.40052e-07 -1.99256e-07 0)
(3.30731e-07 -2.0073e-07 0)
(3.26366e-07 -2.03479e-07 0)
(3.2551e-07 -2.07323e-07 0)
(3.27238e-07 -2.1188e-07 0)
(3.30793e-07 -2.17112e-07 0)
(3.35918e-07 -2.22632e-07 0)
(3.41825e-07 -2.28549e-07 0)
(3.34094e-07 -2.16522e-07 0)
(3.0848e-07 -2.18707e-07 0)
(2.92437e-07 -2.20737e-07 0)
(2.8319e-07 -2.24125e-07 0)
(2.78715e-07 -2.2812e-07 0)
(2.77587e-07 -2.32785e-07 0)
(2.78894e-07 -2.37884e-07 0)
(2.81991e-07 -2.43476e-07 0)
(2.86556e-07 -2.49244e-07 0)
(2.91934e-07 -2.55349e-07 0)
(2.84438e-07 -2.29127e-07 0)
(2.60447e-07 -2.35803e-07 0)
(2.45416e-07 -2.40696e-07 0)
(2.36706e-07 -2.45962e-07 0)
(2.32385e-07 -2.51181e-07 0)
(2.31128e-07 -2.56666e-07 0)
(2.32115e-07 -2.62312e-07 0)
(2.34774e-07 -2.68258e-07 0)
(2.38764e-07 -2.74298e-07 0)
(2.43503e-07 -2.80584e-07 0)
(2.33805e-07 -2.40107e-07 0)
(2.12549e-07 -2.50971e-07 0)
(1.99218e-07 -2.58543e-07 0)
(1.91432e-07 -2.65567e-07 0)
(1.87499e-07 -2.7193e-07 0)
(1.8626e-07 -2.78166e-07 0)
(1.87e-07 -2.84317e-07 0)
(1.89207e-07 -2.90589e-07 0)
(1.92555e-07 -2.96901e-07 0)
(1.96553e-07 -3.03394e-07 0)
(1.82532e-07 -2.49164e-07 0)
(1.64917e-07 -2.63689e-07 0)
(1.53846e-07 -2.73623e-07 0)
(1.47355e-07 -2.82205e-07 0)
(1.4405e-07 -2.89566e-07 0)
(1.42966e-07 -2.96458e-07 0)
(1.43503e-07 -3.03053e-07 0)
(1.45232e-07 -3.09619e-07 0)
(1.47879e-07 -3.16178e-07 0)
(1.51053e-07 -3.22849e-07 0)
(1.30727e-07 -2.56155e-07 0)
(1.17538e-07 -2.73631e-07 0)
(1.09246e-07 -2.85441e-07 0)
(1.04384e-07 -2.95249e-07 0)
(1.01901e-07 -3.03415e-07 0)
(1.01057e-07 -3.10851e-07 0)
(1.01405e-07 -3.17825e-07 0)
(1.02635e-07 -3.24636e-07 0)
(1.04551e-07 -3.31399e-07 0)
(1.06855e-07 -3.38227e-07 0)
(7.85822e-08 -2.60908e-07 0)
(7.04164e-08 -2.80425e-07 0)
(6.5305e-08 -2.93541e-07 0)
(6.22882e-08 -3.04231e-07 0)
(6.07212e-08 -3.12962e-07 0)
(6.01705e-08 -3.20765e-07 0)
(6.03774e-08 -3.28011e-07 0)
(6.11335e-08 -3.35016e-07 0)
(6.22927e-08 -3.41932e-07 0)
(6.36841e-08 -3.48874e-07 0)
(2.62467e-08 -2.63305e-07 0)
(2.34909e-08 -2.83894e-07 0)
(2.17325e-08 -2.97671e-07 0)
(2.06998e-08 -3.08798e-07 0)
(2.0186e-08 -3.1782e-07 0)
(2.00031e-08 -3.25826e-07 0)
(2.00493e-08 -3.33188e-07 0)
(2.02931e-08 -3.40274e-07 0)
(2.06891e-08 -3.47273e-07 0)
(2.11535e-08 -3.54285e-07 0)
(7.35912e-07 -7.73733e-09 0)
(7.41598e-07 -5.56043e-09 0)
(7.45724e-07 -4.21324e-09 0)
(7.50336e-07 -3.45652e-09 0)
(7.55784e-07 -3.06788e-09 0)
(7.62412e-07 -2.94406e-09 0)
(7.70301e-07 -3.02773e-09 0)
(7.79435e-07 -3.20753e-09 0)
(7.89783e-07 -3.46623e-09 0)
(8.0123e-07 -3.79873e-09 0)
(7.30596e-07 -2.32606e-08 0)
(7.35283e-07 -1.68531e-08 0)
(7.38785e-07 -1.28486e-08 0)
(7.42983e-07 -1.06376e-08 0)
(7.48137e-07 -9.58873e-09 0)
(7.54562e-07 -9.24316e-09 0)
(7.623e-07 -9.43243e-09 0)
(7.71309e-07 -1.00023e-08 0)
(7.81546e-07 -1.08303e-08 0)
(7.92905e-07 -1.17921e-08 0)
(7.19967e-07 -3.88884e-08 0)
(7.22762e-07 -2.8635e-08 0)
(7.25047e-07 -2.22539e-08 0)
(7.28464e-07 -1.86746e-08 0)
(7.33083e-07 -1.69651e-08 0)
(7.39134e-07 -1.648e-08 0)
(7.46571e-07 -1.68542e-08 0)
(7.55376e-07 -1.77923e-08 0)
(7.65382e-07 -1.91552e-08 0)
(7.76557e-07 -2.07491e-08 0)
(7.04195e-07 -5.47598e-08 0)
(7.04305e-07 -4.1201e-08 0)
(7.04849e-07 -3.282e-08 0)
(7.0713e-07 -2.81569e-08 0)
(7.10993e-07 -2.59382e-08 0)
(7.1654e-07 -2.53319e-08 0)
(7.23563e-07 -2.58798e-08 0)
(7.32058e-07 -2.71822e-08 0)
(7.41744e-07 -2.90457e-08 0)
(7.52662e-07 -3.12451e-08 0)
(6.83501e-07 -7.08931e-08 0)
(6.80297e-07 -5.47792e-08 0)
(6.78702e-07 -4.48657e-08 0)
(6.79579e-07 -3.94156e-08 0)
(6.825e-07 -3.6876e-08 0)
(6.8739e-07 -3.62565e-08 0)
(6.93918e-07 -3.70072e-08 0)
(7.0203e-07 -3.86734e-08 0)
(7.11338e-07 -4.1013e-08 0)
(7.21955e-07 -4.377e-08 0)
(6.58146e-07 -8.73441e-08 0)
(6.51193e-07 -6.9591e-08 0)
(6.47207e-07 -5.87002e-08 0)
(6.46505e-07 -5.28158e-08 0)
(6.48364e-07 -5.0164e-08 0)
(6.52504e-07 -4.96437e-08 0)
(6.58475e-07 -5.06439e-08 0)
(6.66149e-07 -5.26665e-08 0)
(6.75036e-07 -5.5457e-08 0)
(6.85301e-07 -5.87078e-08 0)
(6.28507e-07 -1.04058e-07 0)
(6.1757e-07 -8.57042e-08 0)
(6.11051e-07 -7.44659e-08 0)
(6.08675e-07 -6.85189e-08 0)
(6.09408e-07 -6.59731e-08 0)
(6.1276e-07 -6.56834e-08 0)
(6.1814e-07 -6.69864e-08 0)
(6.25349e-07 -6.93338e-08 0)
(6.33811e-07 -7.25165e-08 0)
(6.43711e-07 -7.61654e-08 0)
(5.94941e-07 -1.20946e-07 0)
(5.80058e-07 -1.03065e-07 0)
(5.71047e-07 -9.21546e-08 0)
(5.67006e-07 -8.65815e-08 0)
(5.66641e-07 -8.43921e-08 0)
(5.69205e-07 -8.44878e-08 0)
(5.74e-07 -8.61758e-08 0)
(5.80719e-07 -8.88699e-08 0)
(5.88753e-07 -9.2412e-08 0)
(5.98223e-07 -9.63751e-08 0)
(5.57853e-07 -1.37909e-07 0)
(5.39298e-07 -1.21523e-07 0)
(5.2794e-07 -1.1162e-07 0)
(5.22314e-07 -1.06836e-07 0)
(5.20867e-07 -1.0525e-07 0)
(5.22604e-07 -1.05867e-07 0)
(5.26781e-07 -1.08008e-07 0)
(5.32957e-07 -1.11067e-07 0)
(5.40589e-07 -1.14955e-07 0)
(5.49631e-07 -1.19043e-07 0)
(5.1768e-07 -1.54784e-07 0)
(4.95982e-07 -1.40845e-07 0)
(4.82592e-07 -1.32541e-07 0)
(4.75597e-07 -1.28945e-07 0)
(4.73191e-07 -1.28226e-07 0)
(4.74215e-07 -1.29537e-07 0)
(4.77895e-07 -1.32264e-07 0)
(4.83543e-07 -1.35877e-07 0)
(4.90877e-07 -1.40195e-07 0)
(4.99239e-07 -1.44801e-07 0)
(8.13779e-07 -4.10935e-09 0)
(8.274e-07 -4.2408e-09 0)
(8.41844e-07 -4.35404e-09 0)
(8.57063e-07 -4.45445e-09 0)
(8.72975e-07 -4.54381e-09 0)
(8.89513e-07 -4.6162e-09 0)
(9.06614e-07 -4.64901e-09 0)
(9.24232e-07 -4.65667e-09 0)
(9.42335e-07 -4.6594e-09 0)
(9.60872e-07 -4.64769e-09 0)
(9.79792e-07 -4.60953e-09 0)
(9.99057e-07 -4.5405e-09 0)
(1.01863e-06 -4.4372e-09 0)
(1.03846e-06 -4.30088e-09 0)
(1.0585e-06 -4.13393e-09 0)
(1.07872e-06 -3.93287e-09 0)
(1.09907e-06 -3.68918e-09 0)
(1.11949e-06 -3.38884e-09 0)
(1.13993e-06 -3.0258e-09 0)
(1.16026e-06 -2.6003e-09 0)
(8.05795e-07 -1.26503e-08 0)
(8.2007e-07 -1.29892e-08 0)
(8.35102e-07 -1.3306e-08 0)
(8.50837e-07 -1.35844e-08 0)
(8.67204e-07 -1.37916e-08 0)
(8.84143e-07 -1.39502e-08 0)
(9.01619e-07 -1.40539e-08 0)
(9.1959e-07 -1.41117e-08 0)
(9.38019e-07 -1.41233e-08 0)
(9.5685e-07 -1.40602e-08 0)
(9.76043e-07 -1.39142e-08 0)
(9.95564e-07 -1.36919e-08 0)
(1.01538e-06 -1.3387e-08 0)
(1.03544e-06 -1.29895e-08 0)
(1.0557e-06 -1.24897e-08 0)
(1.07613e-06 -1.18751e-08 0)
(1.09667e-06 -1.1126e-08 0)
(1.11727e-06 -1.02152e-08 0)
(1.1379e-06 -9.11861e-09 0)
(1.15841e-06 -7.8375e-09 0)
(7.90126e-07 -2.20753e-08 0)
(8.05691e-07 -2.24909e-08 0)
(8.21866e-07 -2.28798e-08 0)
(8.38598e-07 -2.32365e-08 0)
(8.55871e-07 -2.35086e-08 0)
(8.73626e-07 -2.37231e-08 0)
(8.91838e-07 -2.38523e-08 0)
(9.1047e-07 -2.38977e-08 0)
(9.29505e-07 -2.38607e-08 0)
(9.48894e-07 -2.37147e-08 0)
(9.6861e-07 -2.34543e-08 0)
(9.88619e-07 -2.30804e-08 0)
(1.00888e-06 -2.25715e-08 0)
(1.02936e-06 -2.19064e-08 0)
(1.05003e-06 -2.10714e-08 0)
(1.07086e-06 -2.00475e-08 0)
(1.09178e-06 -1.87999e-08 0)
(1.11276e-06 -1.72914e-08 0)
(1.13375e-06 -1.54716e-08 0)
(1.15464e-06 -1.33472e-08 0)
(7.67198e-07 -3.28734e-08 0)
(7.84602e-07 -3.31577e-08 0)
(8.02442e-07 -3.34364e-08 0)
(8.20639e-07 -3.37208e-08 0)
(8.39235e-07 -3.39291e-08 0)
(8.58171e-07 -3.40932e-08 0)
(8.77464e-07 -3.41617e-08 0)
(8.97086e-07 -3.41414e-08 0)
(9.17037e-07 -3.40256e-08 0)
(9.37266e-07 -3.37714e-08 0)
(9.57761e-07 -3.3365e-08 0)
(9.78495e-07 -3.28012e-08 0)
(9.99435e-07 -3.20576e-08 0)
(1.02056e-06 -3.1111e-08 0)
(1.04183e-06 -2.99466e-08 0)
(1.06323e-06 -2.85249e-08 0)
(1.08471e-06 -2.68012e-08 0)
(1.10623e-06 -2.47223e-08 0)
(1.12776e-06 -2.22091e-08 0)
(1.1492e-06 -1.92928e-08 0)
(7.37718e-07 -4.5466e-08 0)
(7.57441e-07 -4.53351e-08 0)
(7.77388e-07 -4.52747e-08 0)
(7.97433e-07 -4.53147e-08 0)
(8.17718e-07 -4.53107e-08 0)
(8.38178e-07 -4.53093e-08 0)
(8.58862e-07 -4.52276e-08 0)
(8.79758e-07 -4.50684e-08 0)
(9.00872e-07 -4.47993e-08 0)
(9.22178e-07 -4.43712e-08 0)
(9.43676e-07 -4.37755e-08 0)
(9.65348e-07 -4.29997e-08 0)
(9.87174e-07 -4.20118e-08 0)
(1.00913e-06 -4.0779e-08 0)
(1.03121e-06 -3.92782e-08 0)
(1.05337e-06 -3.74556e-08 0)
(1.07559e-06 -3.52585e-08 0)
(1.09783e-06 -3.26221e-08 0)
(1.12008e-06 -2.94435e-08 0)
(1.14224e-06 -2.57748e-08 0)
(7.02469e-07 -6.01991e-08 0)
(7.24873e-07 -5.93117e-08 0)
(7.47319e-07 -5.86145e-08 0)
(7.69568e-07 -5.81904e-08 0)
(7.91865e-07 -5.78034e-08 0)
(8.14151e-07 -5.74945e-08 0)
(8.36491e-07 -5.71296e-08 0)
(8.58919e-07 -5.67202e-08 0)
(8.81433e-07 -5.62181e-08 0)
(9.04044e-07 -5.55646e-08 0)
(9.2676e-07 -5.47441e-08 0)
(9.4957e-07 -5.37317e-08 0)
(9.72464e-07 -5.2482e-08 0)
(9.95432e-07 -5.09557e-08 0)
(1.01848e-06 -4.91142e-08 0)
(1.04156e-06 -4.68997e-08 0)
(1.06468e-06 -4.42424e-08 0)
(1.08779e-06 -4.10756e-08 0)
(1.11091e-06 -3.72793e-08 0)
(1.13392e-06 -3.28955e-08 0)
(6.6244e-07 -7.7196e-08 0)
(6.87777e-07 -7.52467e-08 0)
(7.12998e-07 -7.36423e-08 0)
(7.37705e-07 -7.25141e-08 0)
(7.62249e-07 -7.15343e-08 0)
(7.86578e-07 -7.07386e-08 0)
(8.10803e-07 -6.99692e-08 0)
(8.3497e-07 -6.92074e-08 0)
(8.59092e-07 -6.83902e-08 0)
(8.83198e-07 -6.74541e-08 0)
(9.07307e-07 -6.63616e-08 0)
(9.31426e-07 -6.50732e-08 0)
(9.55557e-07 -6.35333e-08 0)
(9.79706e-07 -6.1698e-08 0)
(1.00388e-06 -5.95138e-08 0)
(1.02804e-06 -5.69165e-08 0)
(1.05221e-06 -5.3819e-08 0)
(1.07633e-06 -5.0148e-08 0)
(1.10044e-06 -4.57753e-08 0)
(1.12445e-06 -4.07269e-08 0)
(6.18542e-07 -9.65919e-08 0)
(6.46927e-07 -9.31362e-08 0)
(6.75129e-07 -9.02726e-08 0)
(7.02497e-07 -8.81535e-08 0)
(7.29522e-07 -8.63984e-08 0)
(7.56092e-07 -8.49539e-08 0)
(7.824e-07 -8.36691e-08 0)
(8.08468e-07 -8.24682e-08 0)
(8.34358e-07 -8.12664e-08 0)
(8.60109e-07 -7.99915e-08 0)
(8.85757e-07 -7.85857e-08 0)
(9.11325e-07 -7.69939e-08 0)
(9.36831e-07 -7.51505e-08 0)
(9.62294e-07 -7.30017e-08 0)
(9.87721e-07 -7.04815e-08 0)
(1.01309e-06 -6.75139e-08 0)
(1.03843e-06 -6.40036e-08 0)
(1.06368e-06 -5.9861e-08 0)
(1.0889e-06 -5.49527e-08 0)
(1.114e-06 -4.92956e-08 0)
(5.71724e-07 -1.18304e-07 0)
(6.03164e-07 -1.13116e-07 0)
(6.34371e-07 -1.08848e-07 0)
(6.64493e-07 -1.05486e-07 0)
(6.94076e-07 -1.02721e-07 0)
(7.23044e-07 -1.00413e-07 0)
(7.51567e-07 -9.84247e-08 0)
(7.79689e-07 -9.6631e-08 0)
(8.07492e-07 -9.4935e-08 0)
(8.3503e-07 -9.32379e-08 0)
(8.62355e-07 -9.14599e-08 0)
(8.89509e-07 -8.95283e-08 0)
(9.16522e-07 -8.73641e-08 0)
(9.43425e-07 -8.48988e-08 0)
(9.70225e-07 -8.20509e-08 0)
(9.96919e-07 -7.87253e-08 0)
(1.02353e-06 -7.48256e-08 0)
(1.05003e-06 -7.02405e-08 0)
(1.07647e-06 -6.48447e-08 0)
(1.10279e-06 -5.86418e-08 0)
(5.23032e-07 -1.42067e-07 0)
(5.58096e-07 -1.34209e-07 0)
(5.92433e-07 -1.28221e-07 0)
(6.2547e-07 -1.23445e-07 0)
(6.57609e-07 -1.19614e-07 0)
(6.88982e-07 -1.16421e-07 0)
(7.19705e-07 -1.13697e-07 0)
(7.49892e-07 -1.11283e-07 0)
(7.79625e-07 -1.09066e-07 0)
(8.08977e-07 -1.06925e-07 0)
(8.38015e-07 -1.04763e-07 0)
(8.66792e-07 -1.02491e-07 0)
(8.95349e-07 -1.00013e-07 0)
(9.23725e-07 -9.72474e-08 0)
(9.51935e-07 -9.40972e-08 0)
(9.79992e-07 -9.04513e-08 0)
(1.00793e-06 -8.62151e-08 0)
(1.03574e-06 -8.12409e-08 0)
(1.06348e-06 -7.54223e-08 0)
(1.09111e-06 -6.87356e-08 0)
(4.85345e-07 -1.66854e-07 0)
(5.2333e-07 -1.56283e-07 0)
(5.59889e-07 -1.48659e-07 0)
(5.95198e-07 -1.42386e-07 0)
(6.29345e-07 -1.37349e-07 0)
(6.62552e-07 -1.3315e-07 0)
(6.94937e-07 -1.29572e-07 0)
(7.26644e-07 -1.26433e-07 0)
(7.57767e-07 -1.23587e-07 0)
(7.88398e-07 -1.20894e-07 0)
(8.18621e-07 -1.18244e-07 0)
(8.48501e-07 -1.15535e-07 0)
(8.78083e-07 -1.12659e-07 0)
(9.0742e-07 -1.09526e-07 0)
(9.36528e-07 -1.0603e-07 0)
(9.65444e-07 -1.02044e-07 0)
(9.94201e-07 -9.74892e-08 0)
(1.02282e-06 -9.21845e-08 0)
(1.05136e-06 -8.60302e-08 0)
(1.0798e-06 -7.89698e-08 0)
(4.64815e-07 -1.87788e-07 0)
(5.03302e-07 -1.76813e-07 0)
(5.40285e-07 -1.68246e-07 0)
(5.76295e-07 -1.61037e-07 0)
(6.11196e-07 -1.55068e-07 0)
(6.45176e-07 -1.50008e-07 0)
(6.78322e-07 -1.45645e-07 0)
(7.10748e-07 -1.41796e-07 0)
(7.42535e-07 -1.38298e-07 0)
(7.73777e-07 -1.35009e-07 0)
(8.04556e-07 -1.31819e-07 0)
(8.34935e-07 -1.28617e-07 0)
(8.64962e-07 -1.25286e-07 0)
(8.94693e-07 -1.21735e-07 0)
(9.24148e-07 -1.17854e-07 0)
(9.53385e-07 -1.13512e-07 0)
(9.82425e-07 -1.08643e-07 0)
(1.01132e-06 -1.03056e-07 0)
(1.04012e-06 -9.66409e-08 0)
(1.0688e-06 -8.93277e-08 0)
(4.48194e-07 -2.07395e-07 0)
(4.86296e-07 -1.96297e-07 0)
(5.23347e-07 -1.87244e-07 0)
(5.59601e-07 -1.79425e-07 0)
(5.9489e-07 -1.72759e-07 0)
(6.2933e-07 -1.66988e-07 0)
(6.62966e-07 -1.61935e-07 0)
(6.95877e-07 -1.57425e-07 0)
(7.28137e-07 -1.53303e-07 0)
(7.59825e-07 -1.49435e-07 0)
(7.91018e-07 -1.45713e-07 0)
(8.21771e-07 -1.42018e-07 0)
(8.52134e-07 -1.38232e-07 0)
(8.82166e-07 -1.34268e-07 0)
(9.11889e-07 -1.30016e-07 0)
(9.41378e-07 -1.25342e-07 0)
(9.70646e-07 -1.20183e-07 0)
(9.99764e-07 -1.14354e-07 0)
(1.02876e-06 -1.07731e-07 0)
(1.05765e-06 -1.0025e-07 0)
(4.33815e-07 -2.26481e-07 0)
(4.71448e-07 -2.15433e-07 0)
(5.08267e-07 -2.0605e-07 0)
(5.44478e-07 -1.97731e-07 0)
(5.79863e-07 -1.90463e-07 0)
(6.14513e-07 -1.84059e-07 0)
(6.48418e-07 -1.78371e-07 0)
(6.81638e-07 -1.7324e-07 0)
(7.14223e-07 -1.68523e-07 0)
(7.46239e-07 -1.64097e-07 0)
(7.77746e-07 -1.59857e-07 0)
(8.08795e-07 -1.55682e-07 0)
(8.39431e-07 -1.51455e-07 0)
(8.69715e-07 -1.47095e-07 0)
(8.99674e-07 -1.42489e-07 0)
(9.29385e-07 -1.37511e-07 0)
(9.58864e-07 -1.32094e-07 0)
(9.88185e-07 -1.26058e-07 0)
(1.01736e-06 -1.19279e-07 0)
(1.04645e-06 -1.11711e-07 0)
(4.21448e-07 -2.44661e-07 0)
(4.58476e-07 -2.33777e-07 0)
(4.94912e-07 -2.24261e-07 0)
(5.30884e-07 -2.15636e-07 0)
(5.66181e-07 -2.0793e-07 0)
(6.00852e-07 -2.01025e-07 0)
(6.34855e-07 -1.94797e-07 0)
(6.6823e-07 -1.89117e-07 0)
(7.01007e-07 -1.8386e-07 0)
(7.33233e-07 -1.78914e-07 0)
(7.64955e-07 -1.74185e-07 0)
(7.96215e-07 -1.69553e-07 0)
(8.27056e-07 -1.64906e-07 0)
(8.57539e-07 -1.60175e-07 0)
(8.87688e-07 -1.55239e-07 0)
(9.17582e-07 -1.49989e-07 0)
(9.47238e-07 -1.44344e-07 0)
(9.76733e-07 -1.38138e-07 0)
(1.00607e-06 -1.31259e-07 0)
(1.03536e-06 -1.23678e-07 0)
(4.10658e-07 -2.62196e-07 0)
(4.47065e-07 -2.51522e-07 0)
(4.83046e-07 -2.41962e-07 0)
(5.18659e-07 -2.33132e-07 0)
(5.5374e-07 -2.251e-07 0)
(5.88286e-07 -2.17789e-07 0)
(6.22256e-07 -2.11104e-07 0)
(6.55664e-07 -2.04948e-07 0)
(6.88521e-07 -1.99208e-07 0)
(7.20856e-07 -1.93791e-07 0)
(7.52705e-07 -1.88612e-07 0)
(7.84102e-07 -1.83557e-07 0)
(8.15087e-07 -1.78523e-07 0)
(8.45717e-07 -1.73453e-07 0)
(8.76014e-07 -1.68214e-07 0)
(9.06052e-07 -1.62724e-07 0)
(9.35853e-07 -1.56887e-07 0)
(9.65487e-07 -1.50553e-07 0)
(9.94981e-07 -1.4363e-07 0)
(1.02445e-06 -1.36091e-07 0)
(4.01196e-07 -2.79076e-07 0)
(4.36986e-07 -2.68641e-07 0)
(4.7246e-07 -2.59113e-07 0)
(5.07657e-07 -2.50171e-07 0)
(5.42432e-07 -2.41913e-07 0)
(5.76762e-07 -2.34284e-07 0)
(6.10602e-07 -2.27229e-07 0)
(6.43945e-07 -2.20669e-07 0)
(6.76788e-07 -2.14507e-07 0)
(7.09145e-07 -2.08668e-07 0)
(7.41043e-07 -2.03083e-07 0)
(7.72509e-07 -1.97644e-07 0)
(8.03581e-07 -1.92258e-07 0)
(8.34306e-07 -1.86883e-07 0)
(8.64706e-07 -1.81375e-07 0)
(8.9485e-07 -1.75676e-07 0)
(9.24761e-07 -1.69684e-07 0)
(9.54509e-07 -1.63269e-07 0)
(9.8415e-07 -1.56351e-07 0)
(1.01377e-06 -1.48897e-07 0)
(3.92834e-07 -2.95393e-07 0)
(4.28028e-07 -2.85202e-07 0)
(4.62976e-07 -2.75746e-07 0)
(4.9773e-07 -2.66757e-07 0)
(5.32142e-07 -2.58341e-07 0)
(5.66193e-07 -2.50469e-07 0)
(5.99827e-07 -2.43116e-07 0)
(6.33026e-07 -2.36217e-07 0)
(6.65776e-07 -2.29691e-07 0)
(6.98084e-07 -2.23483e-07 0)
(7.29967e-07 -2.17538e-07 0)
(7.61446e-07 -2.11758e-07 0)
(7.92556e-07 -2.0606e-07 0)
(8.23333e-07 -2.00414e-07 0)
(8.53799e-07 -1.94673e-07 0)
(8.84016e-07 -1.888e-07 0)
(9.1401e-07 -1.82693e-07 0)
(9.4386e-07 -1.76242e-07 0)
(9.73618e-07 -1.69367e-07 0)
(1.00334e-06 -1.62041e-07 0)
(3.85378e-07 -3.11198e-07 0)
(4.19987e-07 -3.01248e-07 0)
(4.54421e-07 -2.91888e-07 0)
(4.88714e-07 -2.82895e-07 0)
(5.22736e-07 -2.74373e-07 0)
(5.56465e-07 -2.66323e-07 0)
(5.89841e-07 -2.58732e-07 0)
(6.22839e-07 -2.51553e-07 0)
(6.5544e-07 -2.44717e-07 0)
(6.87649e-07 -2.38192e-07 0)
(7.19474e-07 -2.31937e-07 0)
(7.50926e-07 -2.25859e-07 0)
(7.82039e-07 -2.19891e-07 0)
(8.12837e-07 -2.1401e-07 0)
(8.4334e-07 -2.08073e-07 0)
(8.73609e-07 -2.02061e-07 0)
(9.03669e-07 -1.95878e-07 0)
(9.33609e-07 -1.89426e-07 0)
(9.63444e-07 -1.82628e-07 0)
(9.9327e-07 -1.75476e-07 0)
(3.78664e-07 -3.26544e-07 0)
(4.12712e-07 -3.16825e-07 0)
(4.4665e-07 -3.07575e-07 0)
(4.80477e-07 -2.98604e-07 0)
(5.14099e-07 -2.9002e-07 0)
(5.47484e-07 -2.81839e-07 0)
(5.80571e-07 -2.74061e-07 0)
(6.13336e-07 -2.66652e-07 0)
(6.45756e-07 -2.59559e-07 0)
(6.77837e-07 -2.52768e-07 0)
(7.09575e-07 -2.46249e-07 0)
(7.40975e-07 -2.39916e-07 0)
(7.72063e-07 -2.33716e-07 0)
(8.02856e-07 -2.27635e-07 0)
(8.33374e-07 -2.21539e-07 0)
(8.63676e-07 -2.15421e-07 0)
(8.93785e-07 -2.09199e-07 0)
(9.23783e-07 -2.02773e-07 0)
(9.53667e-07 -1.9609e-07 0)
(9.83588e-07 -1.89152e-07 0)
(3.72548e-07 -3.41485e-07 0)
(4.06071e-07 -3.31982e-07 0)
(4.39526e-07 -3.22845e-07 0)
(4.72905e-07 -3.13914e-07 0)
(5.06131e-07 -3.05302e-07 0)
(5.39165e-07 -2.97025e-07 0)
(5.71956e-07 -2.89101e-07 0)
(6.04476e-07 -2.81507e-07 0)
(6.36701e-07 -2.74204e-07 0)
(6.68634e-07 -2.67192e-07 0)
(7.00263e-07 -2.60451e-07 0)
(7.31589e-07 -2.53902e-07 0)
(7.62627e-07 -2.47505e-07 0)
(7.93394e-07 -2.41258e-07 0)
(8.23908e-07 -2.35034e-07 0)
(8.54222e-07 -2.28844e-07 0)
(8.84359e-07 -2.22609e-07 0)
(9.14374e-07 -2.16239e-07 0)
(9.44308e-07 -2.09709e-07 0)
(9.74294e-07 -2.03018e-07 0)
(3.66908e-07 -3.56068e-07 0)
(3.99943e-07 -3.46764e-07 0)
(4.32938e-07 -3.37738e-07 0)
(4.65896e-07 -3.28863e-07 0)
(4.9874e-07 -3.20243e-07 0)
(5.31431e-07 -3.11897e-07 0)
(5.63929e-07 -3.03861e-07 0)
(5.96199e-07 -2.96119e-07 0)
(6.28222e-07 -2.88646e-07 0)
(6.59996e-07 -2.81452e-07 0)
(6.91503e-07 -2.74525e-07 0)
(7.22742e-07 -2.67794e-07 0)
(7.53723e-07 -2.61232e-07 0)
(7.84456e-07 -2.54848e-07 0)
(8.14955e-07 -2.48528e-07 0)
(8.4527e-07 -2.4229e-07 0)
(8.75409e-07 -2.36064e-07 0)
(9.0543e-07 -2.29787e-07 0)
(9.35412e-07 -2.2344e-07 0)
(9.65425e-07 -2.17012e-07 0)
(3.61644e-07 -3.70335e-07 0)
(3.94222e-07 -3.61213e-07 0)
(4.26791e-07 -3.52299e-07 0)
(4.59353e-07 -3.43485e-07 0)
(4.91831e-07 -3.34865e-07 0)
(5.24191e-07 -3.26471e-07 0)
(5.56407e-07 -3.18351e-07 0)
(5.88438e-07 -3.10495e-07 0)
(6.2027e-07 -3.02888e-07 0)
(6.51891e-07 -2.95546e-07 0)
(6.83283e-07 -2.88468e-07 0)
(7.14439e-07 -2.81587e-07 0)
(7.45363e-07 -2.74891e-07 0)
(7.76059e-07 -2.68397e-07 0)
(8.06537e-07 -2.62002e-07 0)
(8.36837e-07 -2.55736e-07 0)
(8.66958e-07 -2.49542e-07 0)
(8.96994e-07 -2.43383e-07 0)
(9.26981e-07 -2.37239e-07 0)
(9.57012e-07 -2.31097e-07 0)
(3.56653e-07 -3.84319e-07 0)
(3.88809e-07 -3.75371e-07 0)
(4.20986e-07 -3.66561e-07 0)
(4.53172e-07 -3.57805e-07 0)
(4.8531e-07 -3.49195e-07 0)
(5.17366e-07 -3.40773e-07 0)
(5.49328e-07 -3.32597e-07 0)
(5.81145e-07 -3.2466e-07 0)
(6.12806e-07 -3.16949e-07 0)
(6.44284e-07 -3.09485e-07 0)
(6.75566e-07 -3.02278e-07 0)
(7.0664e-07 -2.9527e-07 0)
(7.37506e-07 -2.8846e-07 0)
(7.68165e-07 -2.81875e-07 0)
(7.98617e-07 -2.75422e-07 0)
(8.28895e-07 -2.69141e-07 0)
(8.58999e-07 -2.63002e-07 0)
(8.89042e-07 -2.56973e-07 0)
(9.19004e-07 -2.51048e-07 0)
(9.49053e-07 -2.45238e-07 0)
(3.51827e-07 -3.98065e-07 0)
(3.836e-07 -3.89278e-07 0)
(4.15409e-07 -3.80558e-07 0)
(4.47253e-07 -3.7186e-07 0)
(4.79093e-07 -3.63271e-07 0)
(5.10887e-07 -3.54842e-07 0)
(5.42621e-07 -3.46627e-07 0)
(5.74246e-07 -3.38627e-07 0)
(6.05753e-07 -3.3083e-07 0)
(6.37107e-07 -3.23266e-07 0)
(6.68301e-07 -3.15956e-07 0)
(6.99315e-07 -3.08846e-07 0)
(7.30145e-07 -3.01943e-07 0)
(7.60782e-07 -2.95283e-07 0)
(7.91218e-07 -2.88781e-07 0)
(8.2148e-07 -2.82495e-07 0)
(8.51591e-07 -2.76417e-07 0)
(8.81618e-07 -2.70529e-07 0)
(9.11565e-07 -2.64845e-07 0)
(9.41601e-07 -2.59385e-07 0)
(3.4707e-07 -4.11609e-07 0)
(3.78482e-07 -4.02962e-07 0)
(4.09959e-07 -3.94327e-07 0)
(4.41513e-07 -3.85692e-07 0)
(4.73095e-07 -3.77134e-07 0)
(5.04667e-07 -3.68709e-07 0)
(5.36202e-07 -3.60469e-07 0)
(5.67672e-07 -3.52424e-07 0)
(5.99054e-07 -3.44566e-07 0)
(6.30318e-07 -3.36924e-07 0)
(6.61452e-07 -3.29531e-07 0)
(6.92432e-07 -3.22338e-07 0)
(7.23244e-07 -3.15355e-07 0)
(7.53875e-07 -3.08621e-07 0)
(7.84315e-07 -3.02068e-07 0)
(8.14594e-07 -2.95782e-07 0)
(8.44724e-07 -2.89767e-07 0)
(8.74733e-07 -2.84019e-07 0)
(9.04677e-07 -2.78588e-07 0)
(9.34677e-07 -2.73494e-07 0)
(3.42268e-07 -4.24991e-07 0)
(3.73351e-07 -4.1646e-07 0)
(4.0454e-07 -4.07905e-07 0)
(4.35856e-07 -3.99342e-07 0)
(4.67215e-07 -3.90821e-07 0)
(4.9861e-07 -3.82408e-07 0)
(5.29992e-07 -3.74159e-07 0)
(5.61342e-07 -3.66078e-07 0)
(5.92632e-07 -3.58166e-07 0)
(6.23842e-07 -3.50467e-07 0)
(6.5495e-07 -3.43013e-07 0)
(6.85926e-07 -3.35749e-07 0)
(7.16753e-07 -3.28687e-07 0)
(7.47416e-07 -3.21884e-07 0)
(7.77901e-07 -3.15292e-07 0)
(8.08246e-07 -3.09002e-07 0)
(8.3841e-07 -3.03028e-07 0)
(8.68437e-07 -2.97406e-07 0)
(8.98364e-07 -2.9222e-07 0)
(9.28349e-07 -2.8751e-07 0)
(3.37304e-07 -4.38216e-07 0)
(3.68129e-07 -4.29811e-07 0)
(3.99096e-07 -4.21344e-07 0)
(4.30192e-07 -4.12848e-07 0)
(4.61386e-07 -4.04376e-07 0)
(4.92636e-07 -3.95979e-07 0)
(5.23916e-07 -3.87721e-07 0)
(5.55194e-07 -3.79624e-07 0)
(5.86444e-07 -3.71687e-07 0)
(6.17646e-07 -3.63951e-07 0)
(6.48767e-07 -3.56443e-07 0)
(6.79773e-07 -3.49113e-07 0)
(7.10655e-07 -3.41981e-07 0)
(7.41406e-07 -3.35117e-07 0)
(7.72e-07 -3.2849e-07 0)
(8.02441e-07 -3.22178e-07 0)
(8.32683e-07 -3.16211e-07 0)
(8.62813e-07 -3.10673e-07 0)
(8.92761e-07 -3.05722e-07 0)
(9.22696e-07 -3.01422e-07 0)
(3.32101e-07 -4.51363e-07 0)
(3.6268e-07 -4.43057e-07 0)
(3.93468e-07 -4.34678e-07 0)
(4.24412e-07 -4.26257e-07 0)
(4.55478e-07 -4.17822e-07 0)
(4.86634e-07 -4.09444e-07 0)
(5.1786e-07 -4.01196e-07 0)
(5.49122e-07 -3.93101e-07 0)
(5.80385e-07 -3.85153e-07 0)
(6.11612e-07 -3.77386e-07 0)
(6.42784e-07 -3.69826e-07 0)
(6.73881e-07 -3.62438e-07 0)
(7.04883e-07 -3.55262e-07 0)
(7.3576e-07 -3.48356e-07 0)
(7.66513e-07 -3.41659e-07 0)
(7.97129e-07 -3.35283e-07 0)
(8.27567e-07 -3.2933e-07 0)
(8.57865e-07 -3.23831e-07 0)
(8.87948e-07 -3.19011e-07 0)
(9.17891e-07 -3.15085e-07 0)
(3.26633e-07 -4.64412e-07 0)
(3.57042e-07 -4.56222e-07 0)
(3.87686e-07 -4.47937e-07 0)
(4.18521e-07 -4.39578e-07 0)
(4.4952e-07 -4.31191e-07 0)
(4.80657e-07 -4.22851e-07 0)
(5.11893e-07 -4.14641e-07 0)
(5.43186e-07 -4.06566e-07 0)
(5.74502e-07 -3.98601e-07 0)
(6.05817e-07 -3.90804e-07 0)
(6.37099e-07 -3.83232e-07 0)
(6.68318e-07 -3.75824e-07 0)
(6.99474e-07 -3.68586e-07 0)
(7.3054e-07 -3.61626e-07 0)
(7.61504e-07 -3.54905e-07 0)
(7.92369e-07 -3.48476e-07 0)
(8.23123e-07 -3.42468e-07 0)
(8.53706e-07 -3.3693e-07 0)
(8.84122e-07 -3.32141e-07 0)
(9.14283e-07 -3.28473e-07 0)
(2.11814e-08 -3.61401e-07 0)
(6.37451e-08 -3.56236e-07 0)
(1.0685e-07 -3.46055e-07 0)
(1.50833e-07 -3.31336e-07 0)
(1.95915e-07 -3.12664e-07 0)
(2.42224e-07 -2.90718e-07 0)
(2.89772e-07 -2.66388e-07 0)
(3.38425e-07 -2.40436e-07 0)
(3.88251e-07 -2.13707e-07 0)
(4.38657e-07 -1.8677e-07 0)
(2.06794e-08 -3.68816e-07 0)
(6.22089e-08 -3.64077e-07 0)
(1.04167e-07 -3.54746e-07 0)
(1.46833e-07 -3.41221e-07 0)
(1.9039e-07 -3.24013e-07 0)
(2.3492e-07 -3.0369e-07 0)
(2.80471e-07 -2.80999e-07 0)
(3.26758e-07 -2.56653e-07 0)
(3.73928e-07 -2.31345e-07 0)
(4.20958e-07 -2.06093e-07 0)
(2.02119e-08 -3.76352e-07 0)
(6.07694e-08 -3.72008e-07 0)
(1.01673e-07 -3.63439e-07 0)
(1.43119e-07 -3.50999e-07 0)
(1.85279e-07 -3.35129e-07 0)
(2.28177e-07 -3.16352e-07 0)
(2.71899e-07 -2.95294e-07 0)
(3.16164e-07 -2.72613e-07 0)
(3.61184e-07 -2.48804e-07 0)
(4.06035e-07 -2.24979e-07 0)
(1.98105e-08 -3.84039e-07 0)
(5.95166e-08 -3.80031e-07 0)
(9.95187e-08 -3.72123e-07 0)
(1.39941e-07 -3.60628e-07 0)
(1.80932e-07 -3.4594e-07 0)
(2.22484e-07 -3.28517e-07 0)
(2.64676e-07 -3.08903e-07 0)
(3.07226e-07 -2.87734e-07 0)
(3.50293e-07 -2.65418e-07 0)
(3.93165e-07 -2.43086e-07 0)
(1.94479e-08 -3.91883e-07 0)
(5.83811e-08 -3.8818e-07 0)
(9.75586e-08 -3.8088e-07 0)
(1.37061e-07 -3.70243e-07 0)
(1.77013e-07 -3.5662e-07 0)
(2.17385e-07 -3.40453e-07 0)
(2.58252e-07 -3.22205e-07 0)
(2.99377e-07 -3.02433e-07 0)
(3.40834e-07 -2.81499e-07 0)
(3.8209e-07 -2.6047e-07 0)
(1.9106e-08 -3.9988e-07 0)
(5.73536e-08 -3.96439e-07 0)
(9.57855e-08 -3.89661e-07 0)
(1.34478e-07 -3.79798e-07 0)
(1.73523e-07 -3.67133e-07 0)
(2.12891e-07 -3.52089e-07 0)
(2.52602e-07 -3.35088e-07 0)
(2.92487e-07 -3.16612e-07 0)
(3.32553e-07 -2.97004e-07 0)
(3.7241e-07 -2.77237e-07 0)
(1.87861e-08 -4.0802e-07 0)
(5.63986e-08 -4.04828e-07 0)
(9.41511e-08 -3.9852e-07 0)
(1.32115e-07 -3.89358e-07 0)
(1.70343e-07 -3.77566e-07 0)
(2.08829e-07 -3.63544e-07 0)
(2.4755e-07 -3.47683e-07 0)
(2.86373e-07 -3.30396e-07 0)
(3.25267e-07 -3.12014e-07 0)
(3.6393e-07 -2.93414e-07 0)
(1.84964e-08 -4.16306e-07 0)
(5.55075e-08 -4.13333e-07 0)
(9.26378e-08 -4.07452e-07 0)
(1.29935e-07 -3.9892e-07 0)
(1.67434e-07 -3.87919e-07 0)
(2.05132e-07 -3.74824e-07 0)
(2.42984e-07 -3.60005e-07 0)
(2.80888e-07 -3.43818e-07 0)
(3.18782e-07 -3.26578e-07 0)
(3.56433e-07 -3.09075e-07 0)
(1.82177e-08 -4.24735e-07 0)
(5.46627e-08 -4.21959e-07 0)
(9.12166e-08 -4.16468e-07 0)
(1.27892e-07 -4.08502e-07 0)
(1.64729e-07 -3.98227e-07 0)
(2.01725e-07 -3.85974e-07 0)
(2.38803e-07 -3.72105e-07 0)
(2.75902e-07 -3.56932e-07 0)
(3.12943e-07 -3.40751e-07 0)
(3.49737e-07 -3.24267e-07 0)
(1.79401e-08 -4.33298e-07 0)
(5.38558e-08 -4.30708e-07 0)
(8.98601e-08 -4.25569e-07 0)
(1.25957e-07 -4.18113e-07 0)
(1.62176e-07 -4.08504e-07 0)
(1.98532e-07 -3.97018e-07 0)
(2.34924e-07 -3.84011e-07 0)
(2.71314e-07 -3.69774e-07 0)
(3.07626e-07 -3.54577e-07 0)
(3.43688e-07 -3.39043e-07 0)
(1.76719e-08 -4.41986e-07 0)
(5.30808e-08 -4.3958e-07 0)
(8.85449e-08 -4.34757e-07 0)
(1.24098e-07 -4.27761e-07 0)
(1.59736e-07 -4.18759e-07 0)
(1.95496e-07 -4.07976e-07 0)
(2.31274e-07 -3.95759e-07 0)
(2.67042e-07 -3.82386e-07 0)
(3.02727e-07 -3.68101e-07 0)
(3.38162e-07 -3.53454e-07 0)
(1.74176e-08 -4.50802e-07 0)
(5.23212e-08 -4.48562e-07 0)
(8.72511e-08 -4.44028e-07 0)
(1.22283e-07 -4.37451e-07 0)
(1.57371e-07 -4.29e-07 0)
(1.92572e-07 -4.18865e-07 0)
(2.27796e-07 -4.07377e-07 0)
(2.63013e-07 -3.94803e-07 0)
(2.98149e-07 -3.81359e-07 0)
(3.33049e-07 -3.67538e-07 0)
(1.71674e-08 -4.59738e-07 0)
(5.15532e-08 -4.5764e-07 0)
(8.59557e-08 -4.53376e-07 0)
(1.20473e-07 -4.47185e-07 0)
(1.55037e-07 -4.39235e-07 0)
(1.8971e-07 -4.29698e-07 0)
(2.24428e-07 -4.18886e-07 0)
(2.59146e-07 -4.07048e-07 0)
(2.93797e-07 -3.94382e-07 0)
(3.28255e-07 -3.81334e-07 0)
(1.69081e-08 -4.68781e-07 0)
(5.07601e-08 -4.66802e-07 0)
(8.46366e-08 -4.62793e-07 0)
(1.18635e-07 -4.56956e-07 0)
(1.5269e-07 -4.49466e-07 0)
(1.86863e-07 -4.40483e-07 0)
(2.21106e-07 -4.30299e-07 0)
(2.55366e-07 -4.19145e-07 0)
(2.89594e-07 -4.07212e-07 0)
(3.23684e-07 -3.94886e-07 0)
(1.66346e-08 -4.77909e-07 0)
(4.99368e-08 -4.76035e-07 0)
(8.32774e-08 -4.72267e-07 0)
(1.16748e-07 -4.66759e-07 0)
(1.50299e-07 -4.59697e-07 0)
(1.83986e-07 -4.51235e-07 0)
(2.17768e-07 -4.41637e-07 0)
(2.51603e-07 -4.31124e-07 0)
(2.85457e-07 -4.19878e-07 0)
(3.19217e-07 -4.08228e-07 0)
(1.63466e-08 -4.87103e-07 0)
(4.90785e-08 -4.85327e-07 0)
(8.18625e-08 -4.81787e-07 0)
(1.14785e-07 -4.76592e-07 0)
(1.47825e-07 -4.69928e-07 0)
(1.81023e-07 -4.61948e-07 0)
(2.14349e-07 -4.52901e-07 0)
(2.4779e-07 -4.42992e-07 0)
(2.8129e-07 -4.32392e-07 0)
(3.14765e-07 -4.21382e-07 0)
(1.60426e-08 -4.96344e-07 0)
(4.81705e-08 -4.94664e-07 0)
(8.03635e-08 -4.91336e-07 0)
(1.1271e-07 -4.86435e-07 0)
(1.45218e-07 -4.80153e-07 0)
(1.77917e-07 -4.72631e-07 0)
(2.10794e-07 -4.64111e-07 0)
(2.43844e-07 -4.54775e-07 0)
(2.77005e-07 -4.44786e-07 0)
(3.10234e-07 -4.34398e-07 0)
(1.57141e-08 -5.05608e-07 0)
(4.71851e-08 -5.04022e-07 0)
(7.87413e-08 -5.00891e-07 0)
(1.10474e-07 -4.96278e-07 0)
(1.42415e-07 -4.90359e-07 0)
(1.74592e-07 -4.83278e-07 0)
(2.07018e-07 -4.75255e-07 0)
(2.39661e-07 -4.66465e-07 0)
(2.72513e-07 -4.5706e-07 0)
(3.05509e-07 -4.47269e-07 0)
(1.53497e-08 -5.1487e-07 0)
(4.60928e-08 -5.13376e-07 0)
(7.69505e-08 -5.10437e-07 0)
(1.0802e-07 -5.06103e-07 0)
(1.39347e-07 -5.00543e-07 0)
(1.70975e-07 -4.93894e-07 0)
(2.02924e-07 -4.86353e-07 0)
(2.35167e-07 -4.78096e-07 0)
(2.67715e-07 -4.69265e-07 0)
(3.00503e-07 -4.60061e-07 0)
(1.49492e-08 -5.24049e-07 0)
(4.48988e-08 -5.22656e-07 0)
(7.49961e-08 -5.1991e-07 0)
(1.05346e-07 -5.15859e-07 0)
(1.36013e-07 -5.10658e-07 0)
(1.67065e-07 -5.0444e-07 0)
(1.98508e-07 -4.97383e-07 0)
(2.30364e-07 -4.89644e-07 0)
(2.62604e-07 -4.81375e-07 0)
(2.95234e-07 -4.72763e-07 0)
)


// ************************************************************************* //
