/*--------------------------------*- C++ -*----------------------------------*\
| =========                 |                                                 |
| \\      /  F ield         | foam-extend: Open Source CFD                    |
|  \\    /   O peration     | Version:     4.1                                |
|   \\  /    A nd           | Web:         http://www.foam-extend.org         |
|    \\/     M anipulation  |                                                 |
\*---------------------------------------------------------------------------*/
FoamFile
{
    version     2.0;
    format      ascii;
    class       vectorField;
    location    "1";
    object      solidsCellD_iteration11;
}
// * * * * * * * * * * * * * * * * * * * * * * * * * * * * * * * * * * * * * //


1000
(
(4.35001e-07 -1.27674e-07 0)
(4.16268e-07 -1.21913e-07 0)
(4.0549e-07 -1.19606e-07 0)
(4.0038e-07 -1.20301e-07 0)
(3.99358e-07 -1.22898e-07 0)
(4.01375e-07 -1.26887e-07 0)
(4.05653e-07 -1.31851e-07 0)
(4.11474e-07 -1.37649e-07 0)
(4.18867e-07 -1.43865e-07 0)
(4.2612e-07 -1.50402e-07 0)
(3.94136e-07 -1.39756e-07 0)
(3.74241e-07 -1.37172e-07 0)
(3.62586e-07 -1.36939e-07 0)
(3.56755e-07 -1.39093e-07 0)
(3.54986e-07 -1.42715e-07 0)
(3.5623e-07 -1.4743e-07 0)
(3.59701e-07 -1.52883e-07 0)
(3.64702e-07 -1.59067e-07 0)
(3.71127e-07 -1.65441e-07 0)
(3.77667e-07 -1.72439e-07 0)
(3.5143e-07 -1.51148e-07 0)
(3.31089e-07 -1.52099e-07 0)
(3.18997e-07 -1.54165e-07 0)
(3.12757e-07 -1.5784e-07 0)
(3.10558e-07 -1.6247e-07 0)
(3.11277e-07 -1.67859e-07 0)
(3.14168e-07 -1.73776e-07 0)
(3.18606e-07 -1.80233e-07 0)
(3.24405e-07 -1.86752e-07 0)
(3.30549e-07 -1.93749e-07 0)
(3.0715e-07 -1.61673e-07 0)
(2.87336e-07 -1.66278e-07 0)
(2.75403e-07 -1.70701e-07 0)
(2.69063e-07 -1.75902e-07 0)
(2.66645e-07 -1.8154e-07 0)
(2.67015e-07 -1.87576e-07 0)
(2.69385e-07 -1.93906e-07 0)
(2.73315e-07 -2.00592e-07 0)
(2.78502e-07 -2.07262e-07 0)
(2.84203e-07 -2.14316e-07 0)
(2.61797e-07 -1.71102e-07 0)
(2.43231e-07 -1.79296e-07 0)
(2.3197e-07 -1.86011e-07 0)
(2.25943e-07 -1.92698e-07 0)
(2.2352e-07 -1.99297e-07 0)
(2.23607e-07 -2.05974e-07 0)
(2.25538e-07 -2.12711e-07 0)
(2.28944e-07 -2.19626e-07 0)
(2.33526e-07 -2.26485e-07 0)
(2.38626e-07 -2.33618e-07 0)
(2.15335e-07 -1.79304e-07 0)
(1.98946e-07 -1.90814e-07 0)
(1.88974e-07 -1.99669e-07 0)
(1.83524e-07 -2.07766e-07 0)
(1.81224e-07 -2.15267e-07 0)
(1.81113e-07 -2.22526e-07 0)
(1.827e-07 -2.29628e-07 0)
(1.85586e-07 -2.36758e-07 0)
(1.89477e-07 -2.43812e-07 0)
(1.9382e-07 -2.51051e-07 0)
(1.68234e-07 -1.86035e-07 0)
(1.54646e-07 -2.00462e-07 0)
(1.46353e-07 -2.11208e-07 0)
(1.41761e-07 -2.20546e-07 0)
(1.39785e-07 -2.28826e-07 0)
(1.39632e-07 -2.36591e-07 0)
(1.40887e-07 -2.44015e-07 0)
(1.43184e-07 -2.51352e-07 0)
(1.46276e-07 -2.58594e-07 0)
(1.49744e-07 -2.65928e-07 0)
(1.20575e-07 -1.91232e-07 0)
(1.10349e-07 -2.08013e-07 0)
(1.0413e-07 -2.20235e-07 0)
(1.00701e-07 -2.30518e-07 0)
(9.92203e-08 -2.39444e-07 0)
(9.90792e-08 -2.47634e-07 0)
(9.99593e-08 -2.55356e-07 0)
(1.01601e-07 -2.62863e-07 0)
(1.03837e-07 -2.70257e-07 0)
(1.0636e-07 -2.77676e-07 0)
(7.24924e-08 -1.9476e-07 0)
(6.6168e-08 -2.13153e-07 0)
(6.23616e-08 -2.26394e-07 0)
(6.0219e-08 -2.37394e-07 0)
(5.92511e-08 -2.46774e-07 0)
(5.91259e-08 -2.5523e-07 0)
(5.96774e-08 -2.63161e-07 0)
(6.07038e-08 -2.70833e-07 0)
(6.20523e-08 -2.78358e-07 0)
(6.35731e-08 -2.85838e-07 0)
(2.42138e-08 -1.96537e-07 0)
(2.20895e-08 -2.15783e-07 0)
(2.07488e-08 -2.29542e-07 0)
(2.00145e-08 -2.40878e-07 0)
(1.97325e-08 -2.50486e-07 0)
(1.96889e-08 -2.59111e-07 0)
(1.98271e-08 -2.67127e-07 0)
(2.01632e-08 -2.74846e-07 0)
(2.06351e-08 -2.82438e-07 0)
(2.11445e-08 -2.89967e-07 0)
(6.67558e-07 -5.71614e-09 0)
(6.72105e-07 -4.16988e-09 0)
(6.76146e-07 -3.26263e-09 0)
(6.81082e-07 -2.79771e-09 0)
(6.87142e-07 -2.61863e-09 0)
(6.94421e-07 -2.66271e-09 0)
(7.03016e-07 -2.85584e-09 0)
(7.12765e-07 -3.08658e-09 0)
(7.23749e-07 -3.43661e-09 0)
(7.35774e-07 -3.85721e-09 0)
(6.62875e-07 -1.72138e-08 0)
(6.66672e-07 -1.26611e-08 0)
(6.70254e-07 -9.94674e-09 0)
(6.74838e-07 -8.63633e-09 0)
(6.8065e-07 -8.2059e-09 0)
(6.87726e-07 -8.26264e-09 0)
(6.96217e-07 -8.80123e-09 0)
(7.05886e-07 -9.64317e-09 0)
(7.16745e-07 -1.0707e-08 0)
(7.28708e-07 -1.18561e-08 0)
(6.53554e-07 -2.8759e-08 0)
(6.55865e-07 -2.15263e-08 0)
(6.5853e-07 -1.72304e-08 0)
(6.62498e-07 -1.50362e-08 0)
(6.67899e-07 -1.43455e-08 0)
(6.74712e-07 -1.45865e-08 0)
(6.82926e-07 -1.55331e-08 0)
(6.92445e-07 -1.69031e-08 0)
(7.03086e-07 -1.86169e-08 0)
(7.14912e-07 -2.05216e-08 0)
(6.39715e-07 -4.05249e-08 0)
(6.39914e-07 -3.09692e-08 0)
(6.41221e-07 -2.54174e-08 0)
(6.44328e-07 -2.26297e-08 0)
(6.49109e-07 -2.17572e-08 0)
(6.5554e-07 -2.2117e-08 0)
(6.63429e-07 -2.33968e-08 0)
(6.7274e-07 -2.52903e-08 0)
(6.83105e-07 -2.76549e-08 0)
(6.9477e-07 -3.03013e-08 0)
(6.21482e-07 -5.24976e-08 0)
(6.19137e-07 -4.11936e-08 0)
(6.18765e-07 -3.47047e-08 0)
(6.2077e-07 -3.1549e-08 0)
(6.24812e-07 -3.06358e-08 0)
(6.30738e-07 -3.11918e-08 0)
(6.38218e-07 -3.28417e-08 0)
(6.47228e-07 -3.52473e-08 0)
(6.57281e-07 -3.82109e-08 0)
(6.68792e-07 -4.15143e-08 0)
(5.99048e-07 -6.47358e-08 0)
(5.93805e-07 -5.23819e-08 0)
(5.91604e-07 -4.5358e-08 0)
(5.92402e-07 -4.20826e-08 0)
(5.95601e-07 -4.13062e-08 0)
(6.00937e-07 -4.21501e-08 0)
(6.08001e-07 -4.41894e-08 0)
(6.1668e-07 -4.70434e-08 0)
(6.26401e-07 -5.05505e-08 0)
(6.37727e-07 -5.44382e-08 0)
(5.72782e-07 -7.72198e-08 0)
(5.6442e-07 -6.46066e-08 0)
(5.60242e-07 -5.75313e-08 0)
(5.59772e-07 -5.44258e-08 0)
(5.62094e-07 -5.39281e-08 0)
(5.66832e-07 -5.51396e-08 0)
(5.73464e-07 -5.75792e-08 0)
(5.81799e-07 -6.08149e-08 0)
(5.91186e-07 -6.47866e-08 0)
(6.02333e-07 -6.91421e-08 0)
(5.42878e-07 -8.98464e-08 0)
(5.3145e-07 -7.78331e-08 0)
(5.25337e-07 -7.12244e-08 0)
(5.23588e-07 -6.86076e-08 0)
(5.25081e-07 -6.85663e-08 0)
(5.29222e-07 -7.0255e-08 0)
(5.35405e-07 -7.31441e-08 0)
(5.43392e-07 -7.6763e-08 0)
(5.52478e-07 -8.11521e-08 0)
(5.6338e-07 -8.58483e-08 0)
(5.09712e-07 -1.02562e-07 0)
(4.95431e-07 -9.19219e-08 0)
(4.87501e-07 -8.63296e-08 0)
(4.84505e-07 -8.45182e-08 0)
(4.85165e-07 -8.51386e-08 0)
(4.88625e-07 -8.74013e-08 0)
(4.94281e-07 -9.07848e-08 0)
(5.01824e-07 -9.47873e-08 0)
(5.10602e-07 -9.95069e-08 0)
(5.21152e-07 -1.0426e-07 0)
(4.7365e-07 -1.1524e-07 0)
(4.56934e-07 -1.06699e-07 0)
(4.4741e-07 -1.02559e-07 0)
(4.43295e-07 -1.01891e-07 0)
(4.43136e-07 -1.03408e-07 0)
(4.45993e-07 -1.06411e-07 0)
(4.51258e-07 -1.10475e-07 0)
(4.58388e-07 -1.15132e-07 0)
(4.67072e-07 -1.20401e-07 0)
(4.76818e-07 -1.25696e-07 0)
(7.48781e-07 -4.20785e-09 0)
(7.6285e-07 -4.39844e-09 0)
(7.777e-07 -4.55833e-09 0)
(7.93262e-07 -4.69676e-09 0)
(8.09471e-07 -4.81735e-09 0)
(8.26312e-07 -4.91583e-09 0)
(8.43693e-07 -4.97281e-09 0)
(8.61535e-07 -5.02164e-09 0)
(8.79853e-07 -5.08725e-09 0)
(8.98632e-07 -5.13973e-09 0)
(9.17802e-07 -5.16037e-09 0)
(9.37323e-07 -5.15231e-09 0)
(9.57164e-07 -5.12275e-09 0)
(9.773e-07 -5.08283e-09 0)
(9.97708e-07 -5.03532e-09 0)
(1.01836e-06 -4.9675e-09 0)
(1.03924e-06 -4.8648e-09 0)
(1.06031e-06 -4.71969e-09 0)
(1.08153e-06 -4.53733e-09 0)
(1.10287e-06 -4.3229e-09 0)
(7.41997e-07 -1.28463e-08 0)
(7.56596e-07 -1.33932e-08 0)
(7.71922e-07 -1.38533e-08 0)
(7.87932e-07 -1.42385e-08 0)
(8.04552e-07 -1.4532e-08 0)
(8.21728e-07 -1.47841e-08 0)
(8.39427e-07 -1.5005e-08 0)
(8.57603e-07 -1.52086e-08 0)
(8.76237e-07 -1.53788e-08 0)
(8.95279e-07 -1.54674e-08 0)
(9.14683e-07 -1.54903e-08 0)
(9.34438e-07 -1.54775e-08 0)
(9.54522e-07 -1.54266e-08 0)
(9.74898e-07 -1.53246e-08 0)
(9.9553e-07 -1.51586e-08 0)
(1.0164e-06 -1.49164e-08 0)
(1.03747e-06 -1.45849e-08 0)
(1.05872e-06 -1.41551e-08 0)
(1.08012e-06 -1.36294e-08 0)
(1.10159e-06 -1.3004e-08 0)
(7.2875e-07 -2.21257e-08 0)
(7.44434e-07 -2.29263e-08 0)
(7.60721e-07 -2.35661e-08 0)
(7.77528e-07 -2.41226e-08 0)
(7.94893e-07 -2.45779e-08 0)
(8.12798e-07 -2.49851e-08 0)
(8.3118e-07 -2.53306e-08 0)
(8.49951e-07 -2.56148e-08 0)
(8.69123e-07 -2.58266e-08 0)
(8.88662e-07 -2.5939e-08 0)
(9.08549e-07 -2.59877e-08 0)
(9.28767e-07 -2.59911e-08 0)
(9.49276e-07 -2.59166e-08 0)
(9.70034e-07 -2.57343e-08 0)
(9.91025e-07 -2.54364e-08 0)
(1.01225e-06 -2.50186e-08 0)
(1.03369e-06 -2.44636e-08 0)
(1.05531e-06 -2.37591e-08 0)
(1.07708e-06 -2.29037e-08 0)
(1.09894e-06 -2.18777e-08 0)
(7.09378e-07 -3.23756e-08 0)
(7.26541e-07 -3.32401e-08 0)
(7.44203e-07 -3.39084e-08 0)
(7.62257e-07 -3.45281e-08 0)
(7.80779e-07 -3.50681e-08 0)
(7.99705e-07 -3.55685e-08 0)
(8.19025e-07 -3.59804e-08 0)
(8.38671e-07 -3.63161e-08 0)
(8.58695e-07 -3.65613e-08 0)
(8.79041e-07 -3.66976e-08 0)
(8.99673e-07 -3.67529e-08 0)
(9.2057e-07 -3.67264e-08 0)
(9.41706e-07 -3.65787e-08 0)
(9.6306e-07 -3.6291e-08 0)
(9.84627e-07 -3.58707e-08 0)
(1.00641e-06 -3.52958e-08 0)
(1.02837e-06 -3.45448e-08 0)
(1.05051e-06 -3.35904e-08 0)
(1.07274e-06 -3.24189e-08 0)
(1.0951e-06 -3.10349e-08 0)
(6.84431e-07 -4.38507e-08 0)
(7.03536e-07 -4.45551e-08 0)
(7.22974e-07 -4.51123e-08 0)
(7.42569e-07 -4.57017e-08 0)
(7.62528e-07 -4.62226e-08 0)
(7.82765e-07 -4.67229e-08 0)
(8.03318e-07 -4.71254e-08 0)
(8.24123e-07 -4.7469e-08 0)
(8.45199e-07 -4.77062e-08 0)
(8.66515e-07 -4.78177e-08 0)
(8.88072e-07 -4.78387e-08 0)
(9.09861e-07 -4.77607e-08 0)
(9.31851e-07 -4.75352e-08 0)
(9.5402e-07 -4.71422e-08 0)
(9.76374e-07 -4.65906e-08 0)
(9.98877e-07 -4.58488e-08 0)
(1.02155e-06 -4.48979e-08 0)
(1.04434e-06 -4.3709e-08 0)
(1.06725e-06 -4.22447e-08 0)
(1.09025e-06 -4.05454e-08 0)
(6.54522e-07 -5.68164e-08 0)
(6.75833e-07 -5.70828e-08 0)
(6.97398e-07 -5.72983e-08 0)
(7.18901e-07 -5.76991e-08 0)
(7.40643e-07 -5.80838e-08 0)
(7.62511e-07 -5.85005e-08 0)
(7.84495e-07 -5.88151e-08 0)
(8.06666e-07 -5.90736e-08 0)
(8.29019e-07 -5.92456e-08 0)
(8.51541e-07 -5.93094e-08 0)
(8.74242e-07 -5.92853e-08 0)
(8.97113e-07 -5.9145e-08 0)
(9.2012e-07 -5.8829e-08 0)
(9.43244e-07 -5.83205e-08 0)
(9.6651e-07 -5.76217e-08 0)
(9.89884e-07 -5.67106e-08 0)
(1.01342e-06 -5.55622e-08 0)
(1.03701e-06 -5.41609e-08 0)
(1.06075e-06 -5.24497e-08 0)
(1.08454e-06 -5.04615e-08 0)
(6.20497e-07 -7.13395e-08 0)
(6.44302e-07 -7.09037e-08 0)
(6.68261e-07 -7.05687e-08 0)
(6.91903e-07 -7.06031e-08 0)
(7.15577e-07 -7.06956e-08 0)
(7.39253e-07 -7.08767e-08 0)
(7.62895e-07 -7.10356e-08 0)
(7.86608e-07 -7.1164e-08 0)
(8.10419e-07 -7.12392e-08 0)
(8.34339e-07 -7.12341e-08 0)
(8.58363e-07 -7.11371e-08 0)
(8.82469e-07 -7.09003e-08 0)
(9.06639e-07 -7.04643e-08 0)
(9.30878e-07 -6.98239e-08 0)
(9.5521e-07 -6.89779e-08 0)
(9.79622e-07 -6.79131e-08 0)
(1.00416e-06 -6.65925e-08 0)
(1.02874e-06 -6.49971e-08 0)
(1.05342e-06 -6.30611e-08 0)
(1.07812e-06 -6.08017e-08 0)
(5.82985e-07 -8.75626e-08 0)
(6.09415e-07 -8.60448e-08 0)
(6.35951e-07 -8.49029e-08 0)
(6.61938e-07 -8.43532e-08 0)
(6.87808e-07 -8.4024e-08 0)
(7.13451e-07 -8.38673e-08 0)
(7.38997e-07 -8.37862e-08 0)
(7.64467e-07 -8.37321e-08 0)
(7.89911e-07 -8.36661e-08 0)
(8.15357e-07 -8.35461e-08 0)
(8.40809e-07 -8.33333e-08 0)
(8.66258e-07 -8.29706e-08 0)
(8.91707e-07 -8.24073e-08 0)
(9.17194e-07 -8.16428e-08 0)
(9.4274e-07 -8.06703e-08 0)
(9.68337e-07 -7.94728e-08 0)
(9.94005e-07 -7.80001e-08 0)
(1.01969e-06 -7.6224e-08 0)
(1.04543e-06 -7.40662e-08 0)
(1.07115e-06 -7.15383e-08 0)
(5.42615e-07 -1.05395e-07 0)
(5.71856e-07 -1.02573e-07 0)
(6.01154e-07 -1.00475e-07 0)
(6.29652e-07 -9.91259e-08 0)
(6.57869e-07 -9.81812e-08 0)
(6.85664e-07 -9.75474e-08 0)
(7.13214e-07 -9.71013e-08 0)
(7.40551e-07 -9.67661e-08 0)
(7.67744e-07 -9.6487e-08 0)
(7.94825e-07 -9.61952e-08 0)
(8.21808e-07 -9.58304e-08 0)
(8.48713e-07 -9.53321e-08 0)
(8.75569e-07 -9.46549e-08 0)
(9.02428e-07 -9.37898e-08 0)
(9.29299e-07 -9.27161e-08 0)
(9.56188e-07 -9.14037e-08 0)
(9.83098e-07 -8.97894e-08 0)
(1.00998e-06 -8.78351e-08 0)
(1.03689e-06 -8.54643e-08 0)
(1.06375e-06 -8.26779e-08 0)
(5.00355e-07 -1.2481e-07 0)
(5.33311e-07 -1.19671e-07 0)
(5.65729e-07 -1.16354e-07 0)
(5.96996e-07 -1.14092e-07 0)
(6.27565e-07 -1.12524e-07 0)
(6.57567e-07 -1.11403e-07 0)
(6.87105e-07 -1.10573e-07 0)
(7.16293e-07 -1.09936e-07 0)
(7.45221e-07 -1.09424e-07 0)
(7.7393e-07 -1.08947e-07 0)
(8.0245e-07 -1.08433e-07 0)
(8.30823e-07 -1.07818e-07 0)
(8.59096e-07 -1.07052e-07 0)
(8.87324e-07 -1.06113e-07 0)
(9.15509e-07 -1.04966e-07 0)
(9.43673e-07 -1.03568e-07 0)
(9.71827e-07 -1.01851e-07 0)
(9.99925e-07 -9.97457e-08 0)
(1.02804e-06 -9.71939e-08 0)
(1.05612e-06 -9.41578e-08 0)
(4.65464e-07 -1.46996e-07 0)
(5.02289e-07 -1.38924e-07 0)
(5.37489e-07 -1.34053e-07 0)
(5.71362e-07 -1.3048e-07 0)
(6.04072e-07 -1.27963e-07 0)
(6.35937e-07 -1.26107e-07 0)
(6.67102e-07 -1.24701e-07 0)
(6.97753e-07 -1.23614e-07 0)
(7.27997e-07 -1.22733e-07 0)
(7.57898e-07 -1.21945e-07 0)
(7.87517e-07 -1.21169e-07 0)
(8.16919e-07 -1.20341e-07 0)
(8.46162e-07 -1.19401e-07 0)
(8.753e-07 -1.1831e-07 0)
(9.04326e-07 -1.17027e-07 0)
(9.33286e-07 -1.15487e-07 0)
(9.62175e-07 -1.13641e-07 0)
(9.9101e-07 -1.11376e-07 0)
(1.01983e-06 -1.08654e-07 0)
(1.04861e-06 -1.05375e-07 0)
(4.47394e-07 -1.66946e-07 0)
(4.84754e-07 -1.58412e-07 0)
(5.20451e-07 -1.52439e-07 0)
(5.55171e-07 -1.47854e-07 0)
(5.88828e-07 -1.44432e-07 0)
(6.21618e-07 -1.41808e-07 0)
(6.5368e-07 -1.39758e-07 0)
(6.85159e-07 -1.38122e-07 0)
(7.16145e-07 -1.3676e-07 0)
(7.4671e-07 -1.35551e-07 0)
(7.76934e-07 -1.34414e-07 0)
(8.06886e-07 -1.33275e-07 0)
(8.36623e-07 -1.32062e-07 0)
(8.66195e-07 -1.30726e-07 0)
(8.95593e-07 -1.2922e-07 0)
(9.24892e-07 -1.2746e-07 0)
(9.54055e-07 -1.25421e-07 0)
(9.8315e-07 -1.22967e-07 0)
(1.01219e-06 -1.2006e-07 0)
(1.04113e-06 -1.1656e-07 0)
(4.33812e-07 -1.84993e-07 0)
(4.70672e-07 -1.76606e-07 0)
(5.06484e-07 -1.70253e-07 0)
(5.41532e-07 -1.65124e-07 0)
(5.75687e-07 -1.61073e-07 0)
(6.09041e-07 -1.57827e-07 0)
(6.41701e-07 -1.55199e-07 0)
(6.7375e-07 -1.53031e-07 0)
(7.05266e-07 -1.51187e-07 0)
(7.36322e-07 -1.4955e-07 0)
(7.67001e-07 -1.4804e-07 0)
(7.97367e-07 -1.46574e-07 0)
(8.27475e-07 -1.4507e-07 0)
(8.57369e-07 -1.43471e-07 0)
(8.87043e-07 -1.41731e-07 0)
(9.16588e-07 -1.39749e-07 0)
(9.45965e-07 -1.37515e-07 0)
(9.75253e-07 -1.34887e-07 0)
(1.00444e-06 -1.31817e-07 0)
(1.03352e-06 -1.2815e-07 0)
(4.22474e-07 -2.02545e-07 0)
(4.58801e-07 -1.94386e-07 0)
(4.94386e-07 -1.87813e-07 0)
(5.29455e-07 -1.82276e-07 0)
(5.63774e-07 -1.77716e-07 0)
(5.97431e-07 -1.73937e-07 0)
(6.30452e-07 -1.70788e-07 0)
(6.62884e-07 -1.68125e-07 0)
(6.94788e-07 -1.65822e-07 0)
(7.26229e-07 -1.63772e-07 0)
(7.57276e-07 -1.61898e-07 0)
(7.87984e-07 -1.60111e-07 0)
(8.18403e-07 -1.58318e-07 0)
(8.48577e-07 -1.56461e-07 0)
(8.78503e-07 -1.54489e-07 0)
(9.08268e-07 -1.52299e-07 0)
(9.37843e-07 -1.49885e-07 0)
(9.67312e-07 -1.47103e-07 0)
(9.96634e-07 -1.43898e-07 0)
(1.02589e-06 -1.40133e-07 0)
(4.12912e-07 -2.19265e-07 0)
(4.48684e-07 -2.11439e-07 0)
(4.83921e-07 -2.04868e-07 0)
(5.18816e-07 -1.99123e-07 0)
(5.53116e-07 -1.9422e-07 0)
(5.86883e-07 -1.90035e-07 0)
(6.20081e-07 -1.86449e-07 0)
(6.52741e-07 -1.83349e-07 0)
(6.84908e-07 -1.8063e-07 0)
(7.1663e-07 -1.78197e-07 0)
(7.4796e-07 -1.75976e-07 0)
(7.78934e-07 -1.73876e-07 0)
(8.09603e-07 -1.71798e-07 0)
(8.40005e-07 -1.69691e-07 0)
(8.70143e-07 -1.67495e-07 0)
(9.00103e-07 -1.65111e-07 0)
(9.29847e-07 -1.62532e-07 0)
(9.5947e-07 -1.59613e-07 0)
(9.88932e-07 -1.56305e-07 0)
(1.01835e-06 -1.52509e-07 0)
(4.04673e-07 -2.35427e-07 0)
(4.39921e-07 -2.27932e-07 0)
(4.74802e-07 -2.2144e-07 0)
(5.09414e-07 -2.15602e-07 0)
(5.43595e-07 -2.10477e-07 0)
(5.77331e-07 -2.05986e-07 0)
(6.10575e-07 -2.02046e-07 0)
(6.43351e-07 -1.98581e-07 0)
(6.7568e-07 -1.95503e-07 0)
(7.07593e-07 -1.92727e-07 0)
(7.39125e-07 -1.90188e-07 0)
(7.70295e-07 -1.87795e-07 0)
(8.01154e-07 -1.85448e-07 0)
(8.31735e-07 -1.83105e-07 0)
(8.62038e-07 -1.80695e-07 0)
(8.92154e-07 -1.78138e-07 0)
(9.2204e-07 -1.75412e-07 0)
(9.5179e-07 -1.72381e-07 0)
(9.81398e-07 -1.69014e-07 0)
(1.01095e-06 -1.65232e-07 0)
(3.97547e-07 -2.51102e-07 0)
(4.32313e-07 -2.43932e-07 0)
(4.66823e-07 -2.37567e-07 0)
(5.01129e-07 -2.31718e-07 0)
(5.35114e-07 -2.26463e-07 0)
(5.68724e-07 -2.21749e-07 0)
(6.01927e-07 -2.17534e-07 0)
(6.34729e-07 -2.13775e-07 0)
(6.67132e-07 -2.1039e-07 0)
(6.9915e-07 -2.07312e-07 0)
(7.30804e-07 -2.04484e-07 0)
(7.62101e-07 -2.01819e-07 0)
(7.9309e-07 -1.99221e-07 0)
(8.23796e-07 -1.96661e-07 0)
(8.54224e-07 -1.94052e-07 0)
(8.84455e-07 -1.91339e-07 0)
(9.14454e-07 -1.88489e-07 0)
(9.44315e-07 -1.85378e-07 0)
(9.74058e-07 -1.81997e-07 0)
(1.0037e-06 -1.78244e-07 0)
(3.91351e-07 -2.66382e-07 0)
(4.25703e-07 -2.5951e-07 0)
(4.5983e-07 -2.53294e-07 0)
(4.93828e-07 -2.47484e-07 0)
(5.27557e-07 -2.42161e-07 0)
(5.60985e-07 -2.37291e-07 0)
(5.94082e-07 -2.32872e-07 0)
(6.26838e-07 -2.28878e-07 0)
(6.59235e-07 -2.25234e-07 0)
(6.91281e-07 -2.21892e-07 0)
(7.22989e-07 -2.18806e-07 0)
(7.54354e-07 -2.15893e-07 0)
(7.85425e-07 -2.13063e-07 0)
(8.16212e-07 -2.10305e-07 0)
(8.46731e-07 -2.0752e-07 0)
(8.77051e-07 -2.04671e-07 0)
(9.07144e-07 -2.01726e-07 0)
(9.37112e-07 -1.98573e-07 0)
(9.66948e-07 -1.95206e-07 0)
(9.9667e-07 -1.91492e-07 0)
(3.85911e-07 -2.81329e-07 0)
(4.19873e-07 -2.74727e-07 0)
(4.5365e-07 -2.68665e-07 0)
(4.87328e-07 -2.6292e-07 0)
(5.20784e-07 -2.57569e-07 0)
(5.54008e-07 -2.52598e-07 0)
(5.86959e-07 -2.48029e-07 0)
(6.19618e-07 -2.43848e-07 0)
(6.51955e-07 -2.39988e-07 0)
(6.83976e-07 -2.36418e-07 0)
(7.15688e-07 -2.33105e-07 0)
(7.47079e-07 -2.29972e-07 0)
(7.78193e-07 -2.26935e-07 0)
(8.09031e-07 -2.23999e-07 0)
(8.39614e-07 -2.21064e-07 0)
(8.70003e-07 -2.18105e-07 0)
(9.00177e-07 -2.15099e-07 0)
(9.30234e-07 -2.11933e-07 0)
(9.60123e-07 -2.08591e-07 0)
(9.89946e-07 -2.04955e-07 0)
(3.81097e-07 -2.95985e-07 0)
(4.14681e-07 -2.89633e-07 0)
(4.48138e-07 -2.8372e-07 0)
(4.815e-07 -2.7805e-07 0)
(5.14697e-07 -2.727e-07 0)
(5.47713e-07 -2.67669e-07 0)
(5.80499e-07 -2.62988e-07 0)
(6.13033e-07 -2.58659e-07 0)
(6.45276e-07 -2.54622e-07 0)
(6.77239e-07 -2.5086e-07 0)
(7.08917e-07 -2.4735e-07 0)
(7.40299e-07 -2.44023e-07 0)
(7.71424e-07 -2.40807e-07 0)
(8.02287e-07 -2.37717e-07 0)
(8.32906e-07 -2.34658e-07 0)
(8.63345e-07 -2.31619e-07 0)
(8.93576e-07 -2.28579e-07 0)
(9.23681e-07 -2.25419e-07 0)
(9.53616e-07 -2.22115e-07 0)
(9.83514e-07 -2.1861e-07 0)
(3.76784e-07 -3.1039e-07 0)
(4.10026e-07 -3.04268e-07 0)
(4.43179e-07 -2.98492e-07 0)
(4.76258e-07 -2.92904e-07 0)
(5.09221e-07 -2.8758e-07 0)
(5.42032e-07 -2.82513e-07 0)
(5.74641e-07 -2.77751e-07 0)
(6.07033e-07 -2.73306e-07 0)
(6.39161e-07 -2.69125e-07 0)
(6.71041e-07 -2.652e-07 0)
(7.0266e-07 -2.61521e-07 0)
(7.34006e-07 -2.58024e-07 0)
(7.65117e-07 -2.54653e-07 0)
(7.95984e-07 -2.51433e-07 0)
(8.26623e-07 -2.48277e-07 0)
(8.57092e-07 -2.4518e-07 0)
(8.87355e-07 -2.4212e-07 0)
(9.17473e-07 -2.38974e-07 0)
(9.47471e-07 -2.35743e-07 0)
(9.77387e-07 -2.32386e-07 0)
(3.72891e-07 -3.24583e-07 0)
(4.05831e-07 -3.18664e-07 0)
(4.38704e-07 -3.13019e-07 0)
(4.7154e-07 -3.07522e-07 0)
(5.04284e-07 -3.02233e-07 0)
(5.36889e-07 -2.97147e-07 0)
(5.69315e-07 -2.92327e-07 0)
(6.01556e-07 -2.87788e-07 0)
(6.33561e-07 -2.83491e-07 0)
(6.6535e-07 -2.79424e-07 0)
(6.96901e-07 -2.75596e-07 0)
(7.28205e-07 -2.71952e-07 0)
(7.59295e-07 -2.68448e-07 0)
(7.90162e-07 -2.65121e-07 0)
(8.20812e-07 -2.61892e-07 0)
(8.51296e-07 -2.58755e-07 0)
(8.81567e-07 -2.55682e-07 0)
(9.11699e-07 -2.52568e-07 0)
(9.41734e-07 -2.49452e-07 0)
(9.71663e-07 -2.46233e-07 0)
(3.69394e-07 -3.38593e-07 0)
(4.02059e-07 -3.32856e-07 0)
(4.34687e-07 -3.27343e-07 0)
(4.67296e-07 -3.21933e-07 0)
(4.9982e-07 -3.1668e-07 0)
(5.32223e-07 -3.11582e-07 0)
(5.64475e-07 -3.06719e-07 0)
(5.96571e-07 -3.02102e-07 0)
(6.28467e-07 -2.9771e-07 0)
(6.60171e-07 -2.93526e-07 0)
(6.91661e-07 -2.89575e-07 0)
(7.22921e-07 -2.85812e-07 0)
(7.53983e-07 -2.82201e-07 0)
(7.84835e-07 -2.7879e-07 0)
(8.15476e-07 -2.75501e-07 0)
(8.45951e-07 -2.72328e-07 0)
(8.76207e-07 -2.69252e-07 0)
(9.0636e-07 -2.66195e-07 0)
(9.36364e-07 -2.63199e-07 0)
(9.6632e-07 -2.60148e-07 0)
(3.66256e-07 -3.52442e-07 0)
(3.98674e-07 -3.46882e-07 0)
(4.31078e-07 -3.41489e-07 0)
(4.63459e-07 -3.36154e-07 0)
(4.95775e-07 -3.30931e-07 0)
(5.27995e-07 -3.2583e-07 0)
(5.60103e-07 -3.20942e-07 0)
(5.92066e-07 -3.16272e-07 0)
(6.23861e-07 -3.11807e-07 0)
(6.55475e-07 -3.07525e-07 0)
(6.86894e-07 -3.03466e-07 0)
(7.18105e-07 -2.99593e-07 0)
(7.49135e-07 -2.95884e-07 0)
(7.79966e-07 -2.92396e-07 0)
(8.10586e-07 -2.89048e-07 0)
(8.41038e-07 -2.85842e-07 0)
(8.71277e-07 -2.82776e-07 0)
(9.01422e-07 -2.79795e-07 0)
(9.31397e-07 -2.769e-07 0)
(9.61347e-07 -2.74067e-07 0)
(3.63407e-07 -3.66166e-07 0)
(3.95601e-07 -3.60773e-07 0)
(4.27785e-07 -3.55474e-07 0)
(4.59954e-07 -3.50199e-07 0)
(4.92093e-07 -3.45009e-07 0)
(5.24152e-07 -3.3992e-07 0)
(5.56133e-07 -3.35017e-07 0)
(5.87971e-07 -3.30305e-07 0)
(6.19674e-07 -3.25763e-07 0)
(6.51219e-07 -3.21394e-07 0)
(6.8259e-07 -3.17248e-07 0)
(7.13771e-07 -3.1329e-07 0)
(7.44784e-07 -3.09503e-07 0)
(7.756e-07 -3.05945e-07 0)
(8.06195e-07 -3.02541e-07 0)
(8.36622e-07 -2.99305e-07 0)
(8.66859e-07 -2.96259e-07 0)
(8.9696e-07 -2.93353e-07 0)
(9.26941e-07 -2.90584e-07 0)
(9.56856e-07 -2.87958e-07 0)
(3.60761e-07 -3.79801e-07 0)
(3.92744e-07 -3.74533e-07 0)
(4.24728e-07 -3.69308e-07 0)
(4.5672e-07 -3.64095e-07 0)
(4.88711e-07 -3.58941e-07 0)
(5.20639e-07 -3.53872e-07 0)
(5.52511e-07 -3.48949e-07 0)
(5.84266e-07 -3.44211e-07 0)
(6.15888e-07 -3.39617e-07 0)
(6.4737e-07 -3.35175e-07 0)
(6.78703e-07 -3.3095e-07 0)
(7.09861e-07 -3.26914e-07 0)
(7.40854e-07 -3.23051e-07 0)
(7.71645e-07 -3.19415e-07 0)
(8.02223e-07 -3.15948e-07 0)
(8.32645e-07 -3.12692e-07 0)
(8.62876e-07 -3.09675e-07 0)
(8.92944e-07 -3.06813e-07 0)
(9.22898e-07 -3.04191e-07 0)
(9.52801e-07 -3.01791e-07 0)
(3.58237e-07 -3.93358e-07 0)
(3.90041e-07 -3.88194e-07 0)
(4.21855e-07 -3.83029e-07 0)
(4.53706e-07 -3.77877e-07 0)
(4.85568e-07 -3.72752e-07 0)
(5.17404e-07 -3.67697e-07 0)
(5.49173e-07 -3.62769e-07 0)
(5.80855e-07 -3.57995e-07 0)
(6.12423e-07 -3.53347e-07 0)
(6.43877e-07 -3.48847e-07 0)
(6.75197e-07 -3.44561e-07 0)
(7.06345e-07 -3.4045e-07 0)
(7.37327e-07 -3.365e-07 0)
(7.68113e-07 -3.32792e-07 0)
(7.98702e-07 -3.29284e-07 0)
(8.29154e-07 -3.26002e-07 0)
(8.59373e-07 -3.2297e-07 0)
(8.89445e-07 -3.2016e-07 0)
(9.19335e-07 -3.17694e-07 0)
(9.49244e-07 -3.15514e-07 0)
(3.55816e-07 -4.06836e-07 0)
(3.87446e-07 -4.01784e-07 0)
(4.19131e-07 -3.9667e-07 0)
(4.50878e-07 -3.9156e-07 0)
(4.82647e-07 -3.86484e-07 0)
(5.14395e-07 -3.81433e-07 0)
(5.46095e-07 -3.76488e-07 0)
(5.77726e-07 -3.71689e-07 0)
(6.09269e-07 -3.67007e-07 0)
(6.40719e-07 -3.62455e-07 0)
(6.72036e-07 -3.58098e-07 0)
(7.03176e-07 -3.53917e-07 0)
(7.3417e-07 -3.49901e-07 0)
(7.65009e-07 -3.46118e-07 0)
(7.95656e-07 -3.42545e-07 0)
(8.26116e-07 -3.39237e-07 0)
(8.5633e-07 -3.36185e-07 0)
(8.86469e-07 -3.33409e-07 0)
(9.16393e-07 -3.31067e-07 0)
(9.46215e-07 -3.29147e-07 0)
(3.53419e-07 -4.20314e-07 0)
(3.84899e-07 -4.1532e-07 0)
(4.16505e-07 -4.10254e-07 0)
(4.4817e-07 -4.0519e-07 0)
(4.79857e-07 -4.00122e-07 0)
(5.11531e-07 -3.9508e-07 0)
(5.43193e-07 -3.90124e-07 0)
(5.74819e-07 -3.85293e-07 0)
(6.06364e-07 -3.8057e-07 0)
(6.37801e-07 -3.75976e-07 0)
(6.69122e-07 -3.71561e-07 0)
(7.00321e-07 -3.67297e-07 0)
(7.31393e-07 -3.63206e-07 0)
(7.6227e-07 -3.59385e-07 0)
(7.92964e-07 -3.55746e-07 0)
(8.2353e-07 -3.52337e-07 0)
(8.53877e-07 -3.49277e-07 0)
(8.84036e-07 -3.46531e-07 0)
(9.1403e-07 -3.44241e-07 0)
(9.43854e-07 -3.42545e-07 0)
(3.51051e-07 -4.3374e-07 0)
(3.82445e-07 -4.28826e-07 0)
(4.13971e-07 -4.23814e-07 0)
(4.45558e-07 -4.18776e-07 0)
(4.77188e-07 -4.13712e-07 0)
(5.0885e-07 -4.08656e-07 0)
(5.40513e-07 -4.03694e-07 0)
(5.7213e-07 -3.9886e-07 0)
(6.03678e-07 -3.94097e-07 0)
(6.3517e-07 -3.89427e-07 0)
(6.66567e-07 -3.84964e-07 0)
(6.97812e-07 -3.8068e-07 0)
(7.28948e-07 -3.76512e-07 0)
(7.59951e-07 -3.72592e-07 0)
(7.90755e-07 -3.68918e-07 0)
(8.21427e-07 -3.65451e-07 0)
(8.51962e-07 -3.62338e-07 0)
(8.82259e-07 -3.59534e-07 0)
(9.12418e-07 -3.57249e-07 0)
(9.42299e-07 -3.55659e-07 0)
(2.12809e-08 -2.97507e-07 0)
(6.39682e-08 -2.93575e-07 0)
(1.06919e-07 -2.85776e-07 0)
(1.50341e-07 -2.74554e-07 0)
(1.94269e-07 -2.60289e-07 0)
(2.38718e-07 -2.43545e-07 0)
(2.83667e-07 -2.24986e-07 0)
(3.2898e-07 -2.05169e-07 0)
(3.7496e-07 -1.8464e-07 0)
(4.20837e-07 -1.63616e-07 0)
(2.09191e-08 -3.05447e-07 0)
(6.28747e-08 -3.01847e-07 0)
(1.04981e-07 -2.94697e-07 0)
(1.47424e-07 -2.84402e-07 0)
(1.90206e-07 -2.71268e-07 0)
(2.33277e-07 -2.55773e-07 0)
(2.76645e-07 -2.38469e-07 0)
(3.20001e-07 -2.19914e-07 0)
(3.6362e-07 -2.00522e-07 0)
(4.06301e-07 -1.81287e-07 0)
(2.05219e-08 -3.13541e-07 0)
(6.16742e-08 -3.10253e-07 0)
(1.02921e-07 -3.03681e-07 0)
(1.44356e-07 -2.94197e-07 0)
(1.86029e-07 -2.8208e-07 0)
(2.27821e-07 -2.6775e-07 0)
(2.69768e-07 -2.51686e-07 0)
(3.11588e-07 -2.34407e-07 0)
(3.53508e-07 -2.1622e-07 0)
(3.94502e-07 -1.98367e-07 0)
(2.01677e-08 -3.21773e-07 0)
(6.05687e-08 -3.18729e-07 0)
(1.0108e-07 -3.12651e-07 0)
(1.41661e-07 -3.0387e-07 0)
(1.82405e-07 -2.9264e-07 0)
(2.23161e-07 -2.79317e-07 0)
(2.63952e-07 -2.64365e-07 0)
(3.04517e-07 -2.48277e-07 0)
(3.44963e-07 -2.31335e-07 0)
(3.84522e-07 -2.14805e-07 0)
(1.98614e-08 -3.30142e-07 0)
(5.95577e-08 -3.2734e-07 0)
(9.93716e-08 -3.21719e-07 0)
(1.3918e-07 -3.1358e-07 0)
(1.79083e-07 -3.03152e-07 0)
(2.1893e-07 -2.90794e-07 0)
(2.58731e-07 -2.76913e-07 0)
(2.98272e-07 -2.61914e-07 0)
(3.37549e-07 -2.46112e-07 0)
(3.75993e-07 -2.30687e-07 0)
(1.95567e-08 -3.38651e-07 0)
(5.86391e-08 -3.36045e-07 0)
(9.77979e-08 -3.30828e-07 0)
(1.36931e-07 -3.23286e-07 0)
(1.76095e-07 -3.13591e-07 0)
(2.15189e-07 -3.02106e-07 0)
(2.54127e-07 -2.89202e-07 0)
(2.92777e-07 -2.75224e-07 0)
(3.31072e-07 -2.60503e-07 0)
(3.68577e-07 -2.46115e-07 0)
(1.92585e-08 -3.47288e-07 0)
(5.7781e-08 -3.44869e-07 0)
(9.63336e-08 -3.40028e-07 0)
(1.34872e-07 -3.33023e-07 0)
(1.73361e-07 -3.24008e-07 0)
(2.11785e-07 -3.13329e-07 0)
(2.50007e-07 -3.01327e-07 0)
(2.87903e-07 -2.88307e-07 0)
(3.25388e-07 -2.7459e-07 0)
(3.62123e-07 -2.61151e-07 0)
(1.90107e-08 -3.56043e-07 0)
(5.69867e-08 -3.53802e-07 0)
(9.49803e-08 -3.49308e-07 0)
(1.32977e-07 -3.42793e-07 0)
(1.70879e-07 -3.34414e-07 0)
(2.08689e-07 -3.24474e-07 0)
(2.46285e-07 -3.13315e-07 0)
(2.8355e-07 -3.01198e-07 0)
(3.20375e-07 -2.88422e-07 0)
(3.56486e-07 -2.75857e-07 0)
(1.87867e-08 -3.6492e-07 0)
(5.62443e-08 -3.6284e-07 0)
(9.37355e-08 -3.58663e-07 0)
(1.31222e-07 -3.52608e-07 0)
(1.686e-07 -3.44832e-07 0)
(2.05881e-07 -3.35574e-07 0)
(2.42918e-07 -3.25197e-07 0)
(2.79636e-07 -3.13929e-07 0)
(3.15911e-07 -3.02032e-07 0)
(3.51516e-07 -2.9028e-07 0)
(1.85455e-08 -3.73922e-07 0)
(5.55448e-08 -3.71989e-07 0)
(9.2581e-08 -3.68105e-07 0)
(1.29599e-07 -3.62478e-07 0)
(1.66486e-07 -3.55265e-07 0)
(2.03302e-07 -3.46644e-07 0)
(2.39849e-07 -3.3699e-07 0)
(2.76087e-07 -3.26515e-07 0)
(3.11897e-07 -3.15442e-07 0)
(3.47078e-07 -3.04455e-07 0)
(1.83017e-08 -3.8304e-07 0)
(5.49057e-08 -3.81249e-07 0)
(9.15037e-08 -3.77642e-07 0)
(1.28094e-07 -3.72408e-07 0)
(1.64527e-07 -3.65713e-07 0)
(2.00911e-07 -3.57692e-07 0)
(2.3703e-07 -3.48711e-07 0)
(2.72848e-07 -3.38977e-07 0)
(3.08258e-07 -3.28676e-07 0)
(3.43076e-07 -3.1841e-07 0)
(1.80893e-08 -3.92273e-07 0)
(5.43297e-08 -3.9062e-07 0)
(9.0496e-08 -3.87275e-07 0)
(1.26687e-07 -3.82405e-07 0)
(1.62712e-07 -3.76185e-07 0)
(1.98687e-07 -3.68731e-07 0)
(2.34427e-07 -3.60382e-07 0)
(2.69876e-07 -3.51337e-07 0)
(3.0494e-07 -3.41756e-07 0)
(3.39467e-07 -3.3217e-07 0)
(1.79087e-08 -4.0163e-07 0)
(5.37825e-08 -4.00102e-07 0)
(8.95356e-08 -3.97002e-07 0)
(1.25344e-07 -3.92469e-07 0)
(1.61005e-07 -3.8669e-07 0)
(1.96599e-07 -3.79771e-07 0)
(2.31994e-07 -3.72014e-07 0)
(2.67122e-07 -3.63609e-07 0)
(3.01906e-07 -3.54703e-07 0)
(3.36228e-07 -3.45766e-07 0)
(1.77308e-08 -4.11115e-07 0)
(5.32216e-08 -4.09697e-07 0)
(8.8592e-08 -4.06824e-07 0)
(1.24029e-07 -4.02608e-07 0)
(1.59353e-07 -3.97239e-07 0)
(1.94601e-07 -3.90818e-07 0)
(2.29688e-07 -3.83616e-07 0)
(2.64546e-07 -3.75813e-07 0)
(2.9912e-07 -3.67558e-07 0)
(3.33297e-07 -3.59245e-07 0)
(1.75363e-08 -4.20726e-07 0)
(5.26358e-08 -4.19404e-07 0)
(8.76528e-08 -4.16742e-07 0)
(1.22729e-07 -4.12826e-07 0)
(1.5773e-07 -4.07844e-07 0)
(1.92662e-07 -4.01893e-07 0)
(2.27469e-07 -3.9521e-07 0)
(2.6211e-07 -3.87979e-07 0)
(2.96517e-07 -3.80349e-07 0)
(3.30586e-07 -3.72624e-07 0)
(1.73317e-08 -4.30454e-07 0)
(5.20459e-08 -4.29223e-07 0)
(8.67233e-08 -4.26762e-07 0)
(1.21441e-07 -4.23134e-07 0)
(1.56119e-07 -4.18508e-07 0)
(1.90754e-07 -4.12986e-07 0)
(2.25316e-07 -4.06799e-07 0)
(2.59786e-07 -4.00123e-07 0)
(2.94047e-07 -3.93085e-07 0)
(3.28059e-07 -3.85922e-07 0)
(1.71331e-08 -4.40292e-07 0)
(5.14664e-08 -4.39152e-07 0)
(8.57916e-08 -4.36879e-07 0)
(1.20146e-07 -4.33517e-07 0)
(1.54506e-07 -4.29235e-07 0)
(1.88863e-07 -4.24124e-07 0)
(2.23207e-07 -4.18414e-07 0)
(2.57506e-07 -4.12273e-07 0)
(2.91653e-07 -4.05786e-07 0)
(3.25616e-07 -3.99171e-07 0)
(1.69401e-08 -4.50237e-07 0)
(5.08784e-08 -4.49182e-07 0)
(8.48274e-08 -4.47082e-07 0)
(1.18812e-07 -4.43976e-07 0)
(1.5285e-07 -4.4001e-07 0)
(1.86944e-07 -4.35293e-07 0)
(2.21086e-07 -4.30038e-07 0)
(2.55208e-07 -4.244e-07 0)
(2.89287e-07 -4.18449e-07 0)
(3.23228e-07 -4.12353e-07 0)
(1.67401e-08 -4.6027e-07 0)
(5.02518e-08 -4.59299e-07 0)
(8.37978e-08 -4.57361e-07 0)
(1.17418e-07 -4.54496e-07 0)
(1.51137e-07 -4.50847e-07 0)
(1.84974e-07 -4.46516e-07 0)
(2.18911e-07 -4.41699e-07 0)
(2.52898e-07 -4.36535e-07 0)
(2.86883e-07 -4.31113e-07 0)
(3.20845e-07 -4.25532e-07 0)
(1.65237e-08 -4.70384e-07 0)
(4.95874e-08 -4.69487e-07 0)
(8.27056e-08 -4.67715e-07 0)
(1.15947e-07 -4.65088e-07 0)
(1.49357e-07 -4.61738e-07 0)
(1.82953e-07 -4.57782e-07 0)
(2.16688e-07 -4.53387e-07 0)
(2.50593e-07 -4.4868e-07 0)
(2.84519e-07 -4.43758e-07 0)
(3.18564e-07 -4.38669e-07 0)
)


// ************************************************************************* //
