/*--------------------------------*- C++ -*----------------------------------*\
| =========                 |                                                 |
| \\      /  F ield         | foam-extend: Open Source CFD                    |
|  \\    /   O peration     | Version:     4.1                                |
|   \\  /    A nd           | Web:         http://www.foam-extend.org         |
|    \\/     M anipulation  |                                                 |
\*---------------------------------------------------------------------------*/
FoamFile
{
    version     2.0;
    format      ascii;
    class       vectorField;
    location    "1";
    object      solidsCellD_iteration16;
}
// * * * * * * * * * * * * * * * * * * * * * * * * * * * * * * * * * * * * * //


1000
(
(4.62693e-07 -1.57976e-07 0)
(4.401e-07 -1.48804e-07 0)
(4.2637e-07 -1.43762e-07 0)
(4.19112e-07 -1.42507e-07 0)
(4.16489e-07 -1.43542e-07 0)
(4.17233e-07 -1.4628e-07 0)
(4.20519e-07 -1.50191e-07 0)
(4.25556e-07 -1.55021e-07 0)
(4.32258e-07 -1.60419e-07 0)
(4.39432e-07 -1.66113e-07 0)
(4.18801e-07 -1.72783e-07 0)
(3.94831e-07 -1.67306e-07 0)
(3.80146e-07 -1.6464e-07 0)
(3.72119e-07 -1.65002e-07 0)
(3.68789e-07 -1.67142e-07 0)
(3.6886e-07 -1.70656e-07 0)
(3.71451e-07 -1.75082e-07 0)
(3.75803e-07 -1.80327e-07 0)
(3.81737e-07 -1.85924e-07 0)
(3.88176e-07 -1.9206e-07 0)
(3.73097e-07 -1.8681e-07 0)
(3.48624e-07 -1.8545e-07 0)
(3.33523e-07 -1.85426e-07 0)
(3.25122e-07 -1.87536e-07 0)
(3.21396e-07 -1.9084e-07 0)
(3.21015e-07 -1.95134e-07 0)
(3.23103e-07 -2.00086e-07 0)
(3.26945e-07 -2.05685e-07 0)
(3.32304e-07 -2.11502e-07 0)
(3.38313e-07 -2.1774e-07 0)
(3.25835e-07 -1.99784e-07 0)
(3.01966e-07 -2.02681e-07 0)
(2.87139e-07 -2.05413e-07 0)
(2.7876e-07 -2.09327e-07 0)
(2.74901e-07 -2.13808e-07 0)
(2.74236e-07 -2.1887e-07 0)
(2.75874e-07 -2.2432e-07 0)
(2.79248e-07 -2.30241e-07 0)
(2.8403e-07 -2.36274e-07 0)
(2.89544e-07 -2.4266e-07 0)
(2.77502e-07 -2.11427e-07 0)
(2.55138e-07 -2.18539e-07 0)
(2.41214e-07 -2.23969e-07 0)
(2.33316e-07 -2.29641e-07 0)
(2.29572e-07 -2.35264e-07 0)
(2.28729e-07 -2.41093e-07 0)
(2.30009e-07 -2.47052e-07 0)
(2.32923e-07 -2.53292e-07 0)
(2.37127e-07 -2.59569e-07 0)
(2.42016e-07 -2.66099e-07 0)
(2.2813e-07 -2.21569e-07 0)
(2.08353e-07 -2.32612e-07 0)
(1.96018e-07 -2.40563e-07 0)
(1.88934e-07 -2.4788e-07 0)
(1.85495e-07 -2.54574e-07 0)
(1.84601e-07 -2.611e-07 0)
(1.85611e-07 -2.67523e-07 0)
(1.88056e-07 -2.74051e-07 0)
(1.91602e-07 -2.80578e-07 0)
(1.95742e-07 -2.87286e-07 0)
(1.78142e-07 -2.29927e-07 0)
(1.61749e-07 -2.44401e-07 0)
(1.515e-07 -2.54575e-07 0)
(1.45576e-07 -2.6336e-07 0)
(1.42676e-07 -2.70987e-07 0)
(1.41879e-07 -2.78122e-07 0)
(1.42651e-07 -2.8495e-07 0)
(1.44581e-07 -2.91737e-07 0)
(1.47392e-07 -2.98485e-07 0)
(1.50684e-07 -3.05347e-07 0)
(1.27615e-07 -2.36382e-07 0)
(1.15318e-07 -2.53618e-07 0)
(1.0764e-07 -2.65551e-07 0)
(1.03207e-07 -2.75488e-07 0)
(1.01035e-07 -2.83871e-07 0)
(1.00411e-07 -2.91509e-07 0)
(1.00933e-07 -2.9869e-07 0)
(1.02306e-07 -3.05697e-07 0)
(1.04337e-07 -3.12635e-07 0)
(1.06728e-07 -3.19633e-07 0)
(7.67117e-08 -2.40773e-07 0)
(6.91011e-08 -2.59918e-07 0)
(6.43847e-08 -2.73067e-07 0)
(6.163e-08 -2.83836e-07 0)
(6.02449e-08 -2.92744e-07 0)
(5.98236e-08 -3.0072e-07 0)
(6.01458e-08 -3.0816e-07 0)
(6.1e-08 -3.15353e-07 0)
(6.22275e-08 -3.22438e-07 0)
(6.36695e-08 -3.29538e-07 0)
(2.56234e-08 -2.4299e-07 0)
(2.30623e-08 -2.63148e-07 0)
(2.14225e-08 -2.76904e-07 0)
(2.04766e-08 -2.88074e-07 0)
(2.0041e-08 -2.97257e-07 0)
(1.99018e-08 -3.05421e-07 0)
(1.99727e-08 -3.1296e-07 0)
(2.02487e-08 -3.20223e-07 0)
(2.06745e-08 -3.27393e-07 0)
(2.11572e-08 -3.3456e-07 0)
(7.15251e-07 -7.10887e-09 0)
(7.20585e-07 -5.1201e-09 0)
(7.24635e-07 -3.9057e-09 0)
(7.29327e-07 -3.24204e-09 0)
(7.34935e-07 -2.91956e-09 0)
(7.41728e-07 -2.84068e-09 0)
(7.49809e-07 -2.96171e-09 0)
(7.59099e-07 -3.16838e-09 0)
(7.69627e-07 -3.45051e-09 0)
(7.81232e-07 -3.80769e-09 0)
(7.10106e-07 -2.13859e-08 0)
(7.14529e-07 -1.55373e-08 0)
(7.18014e-07 -1.19121e-08 0)
(7.22303e-07 -9.96841e-09 0)
(7.27628e-07 -9.1207e-09 0)
(7.34211e-07 -8.90608e-09 0)
(7.42156e-07 -9.19981e-09 0)
(7.51336e-07 -9.85979e-09 0)
(7.61746e-07 -1.07646e-08 0)
(7.73268e-07 -1.17954e-08 0)
(6.99879e-07 -3.57506e-08 0)
(7.02525e-07 -2.64153e-08 0)
(7.0489e-07 -2.06559e-08 0)
(7.08443e-07 -1.74826e-08 0)
(7.1327e-07 -1.60797e-08 0)
(7.1952e-07 -1.58206e-08 0)
(7.27163e-07 -1.63701e-08 0)
(7.36162e-07 -1.74485e-08 0)
(7.46338e-07 -1.89387e-08 0)
(7.57689e-07 -2.06543e-08 0)
(6.84699e-07 -5.03479e-08 0)
(6.84819e-07 -3.80054e-08 0)
(6.85559e-07 -3.04794e-08 0)
(6.88061e-07 -2.63727e-08 0)
(6.9217e-07 -2.45528e-08 0)
(6.97958e-07 -2.42406e-08 0)
(7.05212e-07 -2.50224e-08 0)
(7.13936e-07 -2.65125e-08 0)
(7.23799e-07 -2.85423e-08 0)
(7.34922e-07 -3.09041e-08 0)
(6.64753e-07 -6.52015e-08 0)
(6.61788e-07 -5.05287e-08 0)
(6.60522e-07 -4.16534e-08 0)
(6.61709e-07 -3.6893e-08 0)
(6.64937e-07 -3.4845e-08 0)
(6.70115e-07 -3.45842e-08 0)
(6.76897e-07 -3.56176e-08 0)
(6.85265e-07 -3.75099e-08 0)
(6.94769e-07 -4.00468e-08 0)
(7.05637e-07 -4.29969e-08 0)
(6.40273e-07 -8.03764e-08 0)
(6.33813e-07 -6.4223e-08 0)
(6.30328e-07 -5.4497e-08 0)
(6.30049e-07 -4.93984e-08 0)
(6.32278e-07 -4.73152e-08 0)
(6.36754e-07 -4.72043e-08 0)
(6.43026e-07 -4.85202e-08 0)
(6.50988e-07 -5.07987e-08 0)
(6.60097e-07 -5.38207e-08 0)
(6.70664e-07 -5.72939e-08 0)
(6.11649e-07 -9.58054e-08 0)
(6.01456e-07 -7.91563e-08 0)
(5.956e-07 -6.91616e-08 0)
(5.93771e-07 -6.40558e-08 0)
(5.94949e-07 -6.21254e-08 0)
(5.98698e-07 -6.22824e-08 0)
(6.04434e-07 -6.39264e-08 0)
(6.11971e-07 -6.65467e-08 0)
(6.20685e-07 -6.99825e-08 0)
(6.30944e-07 -7.38703e-08 0)
(5.7917e-07 -1.11391e-07 0)
(5.65293e-07 -9.52586e-08 0)
(5.57119e-07 -8.56301e-08 0)
(5.53743e-07 -8.09274e-08 0)
(5.53912e-07 -7.93796e-08 0)
(5.56936e-07 -7.9947e-08 0)
(5.62131e-07 -8.19945e-08 0)
(5.69219e-07 -8.49672e-08 0)
(5.77544e-07 -8.87735e-08 0)
(5.87422e-07 -9.29719e-08 0)
(5.43245e-07 -1.2706e-07 0)
(5.25943e-07 -1.12388e-07 0)
(5.15583e-07 -1.03768e-07 0)
(5.10726e-07 -9.98602e-08 0)
(5.09892e-07 -9.89252e-08 0)
(5.12129e-07 -1.00026e-07 0)
(5.16732e-07 -1.02538e-07 0)
(5.23306e-07 -1.05878e-07 0)
(5.31269e-07 -1.10014e-07 0)
(5.40737e-07 -1.1429e-07 0)
(5.04296e-07 -1.42669e-07 0)
(4.84072e-07 -1.30335e-07 0)
(4.71813e-07 -1.23269e-07 0)
(4.65663e-07 -1.20537e-07 0)
(4.63912e-07 -1.20473e-07 0)
(4.65472e-07 -1.22278e-07 0)
(4.69625e-07 -1.25404e-07 0)
(4.75702e-07 -1.29323e-07 0)
(4.83439e-07 -1.33914e-07 0)
(4.9218e-07 -1.3871e-07 0)
(7.93912e-07 -4.13649e-09 0)
(8.07658e-07 -4.29021e-09 0)
(8.22217e-07 -4.41519e-09 0)
(8.37531e-07 -4.52351e-09 0)
(8.53521e-07 -4.62278e-09 0)
(8.70143e-07 -4.7086e-09 0)
(8.87319e-07 -4.75256e-09 0)
(9.04995e-07 -4.77107e-09 0)
(9.2316e-07 -4.79028e-09 0)
(9.41772e-07 -4.79916e-09 0)
(9.6077e-07 -4.78378e-09 0)
(9.80116e-07 -4.73954e-09 0)
(9.99772e-07 -4.66281e-09 0)
(1.0197e-06 -4.5557e-09 0)
(1.03986e-06 -4.42207e-09 0)
(1.06022e-06 -4.25957e-09 0)
(1.08073e-06 -4.0607e-09 0)
(1.10136e-06 -3.81342e-09 0)
(1.12204e-06 -3.51427e-09 0)
(1.1427e-06 -3.16123e-09 0)
(7.8627e-07 -1.27054e-08 0)
(8.00633e-07 -1.31085e-08 0)
(8.15745e-07 -1.3464e-08 0)
(8.3156e-07 -1.37754e-08 0)
(8.47997e-07 -1.40131e-08 0)
(8.65e-07 -1.42066e-08 0)
(8.82535e-07 -1.43494e-08 0)
(9.00563e-07 -1.44508e-08 0)
(9.19053e-07 -1.4513e-08 0)
(9.37946e-07 -1.45054e-08 0)
(9.57201e-07 -1.44228e-08 0)
(9.76794e-07 -1.42748e-08 0)
(9.96693e-07 -1.40534e-08 0)
(1.01686e-06 -1.3747e-08 0)
(1.03724e-06 -1.33474e-08 0)
(1.05782e-06 -1.28466e-08 0)
(1.07853e-06 -1.22308e-08 0)
(1.09934e-06 -1.14783e-08 0)
(1.12022e-06 -1.05722e-08 0)
(1.14104e-06 -9.50791e-09 0)
(7.7133e-07 -2.20795e-08 0)
(7.86922e-07 -2.26094e-08 0)
(8.03119e-07 -2.30701e-08 0)
(8.19859e-07 -2.34938e-08 0)
(8.37148e-07 -2.38315e-08 0)
(8.54941e-07 -2.41157e-08 0)
(8.732e-07 -2.4317e-08 0)
(8.91866e-07 -2.44359e-08 0)
(9.1094e-07 -2.44794e-08 0)
(9.3037e-07 -2.44238e-08 0)
(9.50135e-07 -2.42708e-08 0)
(9.70208e-07 -2.40233e-08 0)
(9.90548e-07 -2.3655e-08 0)
(1.01112e-06 -2.31422e-08 0)
(1.03189e-06 -2.24756e-08 0)
(1.05284e-06 -2.16443e-08 0)
(1.07393e-06 -2.06217e-08 0)
(1.09512e-06 -1.93768e-08 0)
(1.11637e-06 -1.78702e-08 0)
(1.13758e-06 -1.61017e-08 0)
(7.4947e-07 -3.26886e-08 0)
(7.66786e-07 -3.31557e-08 0)
(7.84556e-07 -3.35584e-08 0)
(8.02698e-07 -3.39553e-08 0)
(8.21262e-07 -3.4272e-08 0)
(8.40184e-07 -3.45447e-08 0)
(8.59479e-07 -3.47199e-08 0)
(8.79096e-07 -3.48077e-08 0)
(8.99067e-07 -3.48123e-08 0)
(9.19332e-07 -3.46951e-08 0)
(9.3987e-07 -3.44451e-08 0)
(9.60654e-07 -3.40576e-08 0)
(9.81654e-07 -3.3507e-08 0)
(1.00285e-06 -3.27722e-08 0)
(1.02421e-06 -3.18475e-08 0)
(1.04574e-06 -3.07018e-08 0)
(1.06737e-06 -2.93001e-08 0)
(1.0891e-06 -2.75937e-08 0)
(1.11086e-06 -2.55162e-08 0)
(1.1326e-06 -2.30954e-08 0)
(7.21356e-07 -4.49148e-08 0)
(7.40881e-07 -4.50501e-08 0)
(7.60655e-07 -4.51889e-08 0)
(7.80546e-07 -4.54079e-08 0)
(8.00718e-07 -4.55695e-08 0)
(8.21096e-07 -4.57278e-08 0)
(8.41731e-07 -4.58016e-08 0)
(8.6259e-07 -4.58018e-08 0)
(8.83685e-07 -4.57039e-08 0)
(9.04986e-07 -4.54618e-08 0)
(9.26497e-07 -4.50712e-08 0)
(9.48205e-07 -4.45224e-08 0)
(9.70084e-07 -4.3782e-08 0)
(9.92111e-07 -4.28215e-08 0)
(1.01428e-06 -4.16297e-08 0)
(1.03655e-06 -4.01634e-08 0)
(1.05892e-06 -3.83804e-08 0)
(1.08134e-06 -3.62232e-08 0)
(1.10382e-06 -3.36022e-08 0)
(1.12626e-06 -3.05701e-08 0)
(6.87709e-07 -5.90838e-08 0)
(7.09769e-07 -5.85604e-08 0)
(7.31929e-07 -5.81576e-08 0)
(7.5394e-07 -5.80003e-08 0)
(7.76058e-07 -5.78588e-08 0)
(7.9821e-07 -5.77832e-08 0)
(8.20422e-07 -5.7636e-08 0)
(8.4276e-07 -5.74417e-08 0)
(8.65218e-07 -5.71653e-08 0)
(8.87795e-07 -5.67508e-08 0)
(9.10503e-07 -5.61894e-08 0)
(9.33331e-07 -5.54597e-08 0)
(9.56261e-07 -5.45146e-08 0)
(9.79278e-07 -5.33217e-08 0)
(1.00239e-06 -5.18566e-08 0)
(1.02557e-06 -5.00756e-08 0)
(1.04883e-06 -4.79202e-08 0)
(1.07209e-06 -4.53365e-08 0)
(1.09543e-06 -4.22196e-08 0)
(1.11871e-06 -3.86106e-08 0)
(6.49493e-07 -7.52888e-08 0)
(6.74357e-07 -7.38182e-08 0)
(6.99172e-07 -7.26243e-08 0)
(7.23545e-07 -7.18685e-08 0)
(7.47803e-07 -7.1228e-08 0)
(7.71924e-07 -7.07489e-08 0)
(7.9595e-07 -7.02736e-08 0)
(8.19963e-07 -6.97977e-08 0)
(8.4398e-07 -6.92756e-08 0)
(8.68024e-07 -6.86455e-08 0)
(8.92106e-07 -6.78759e-08 0)
(9.16221e-07 -6.69297e-08 0)
(9.40363e-07 -6.57524e-08 0)
(9.6454e-07 -6.4312e-08 0)
(9.88762e-07 -6.25732e-08 0)
(1.01301e-06 -6.04881e-08 0)
(1.0373e-06 -5.79808e-08 0)
(1.06158e-06 -5.49937e-08 0)
(1.08588e-06 -5.14174e-08 0)
(1.11013e-06 -4.72761e-08 0)
(6.07507e-07 -9.36707e-08 0)
(6.35286e-07 -9.08213e-08 0)
(6.62953e-07 -8.85118e-08 0)
(6.89883e-07 -8.68934e-08 0)
(7.16538e-07 -8.55906e-08 0)
(7.42803e-07 -8.45605e-08 0)
(7.68864e-07 -8.36596e-08 0)
(7.94738e-07 -8.283e-08 0)
(8.20484e-07 -8.20014e-08 0)
(8.46138e-07 -8.11056e-08 0)
(8.71724e-07 -8.00898e-08 0)
(8.97255e-07 -7.8902e-08 0)
(9.22744e-07 -7.74821e-08 0)
(9.48218e-07 -7.57935e-08 0)
(9.73687e-07 -7.37903e-08 0)
(9.99142e-07 -7.1413e-08 0)
(1.02459e-06 -6.85782e-08 0)
(1.05e-06 -6.52134e-08 0)
(1.0754e-06 -6.12101e-08 0)
(1.10073e-06 -5.6582e-08 0)
(5.62623e-07 -1.1414e-07 0)
(5.93374e-07 -1.09704e-07 0)
(6.23971e-07 -1.06137e-07 0)
(6.5357e-07 -1.03412e-07 0)
(6.82715e-07 -1.01223e-07 0)
(7.11295e-07 -9.94448e-08 0)
(7.39502e-07 -9.79484e-08 0)
(7.67368e-07 -9.6627e-08 0)
(7.94976e-07 -9.5395e-08 0)
(8.2237e-07 -9.41608e-08 0)
(8.49589e-07 -9.28491e-08 0)
(8.76668e-07 -9.13927e-08 0)
(9.0364e-07 -8.97236e-08 0)
(9.30541e-07 -8.77928e-08 0)
(9.57378e-07 -8.55381e-08 0)
(9.84157e-07 -8.2881e-08 0)
(1.01088e-06 -7.97392e-08 0)
(1.03753e-06 -7.60189e-08 0)
(1.06414e-06 -7.16289e-08 0)
(1.09067e-06 -6.65633e-08 0)
(5.15862e-07 -1.3652e-07 0)
(5.50257e-07 -1.29505e-07 0)
(5.83978e-07 -1.24365e-07 0)
(6.1644e-07 -1.20386e-07 0)
(6.48062e-07 -1.17278e-07 0)
(6.78987e-07 -1.14747e-07 0)
(7.09322e-07 -1.12636e-07 0)
(7.39182e-07 -1.10802e-07 0)
(7.6866e-07 -1.09147e-07 0)
(7.97814e-07 -1.07558e-07 0)
(8.26695e-07 -1.05944e-07 0)
(8.55356e-07 -1.04225e-07 0)
(8.83842e-07 -1.0232e-07 0)
(9.12193e-07 -1.00166e-07 0)
(9.40422e-07 -9.76869e-08 0)
(9.68547e-07 -9.4787e-08 0)
(9.96587e-07 -9.13898e-08 0)
(1.02453e-06 -8.73621e-08 0)
(1.05243e-06 -8.26408e-08 0)
(1.08025e-06 -7.71813e-08 0)
(4.79034e-07 -1.60474e-07 0)
(5.16599e-07 -1.50671e-07 0)
(5.52695e-07 -1.43915e-07 0)
(5.8753e-07 -1.38491e-07 0)
(6.21205e-07 -1.34256e-07 0)
(6.5398e-07 -1.30812e-07 0)
(6.85971e-07 -1.27942e-07 0)
(7.17342e-07 -1.25478e-07 0)
(7.48193e-07 -1.23285e-07 0)
(7.78604e-07 -1.21228e-07 0)
(8.08648e-07 -1.19206e-07 0)
(8.38394e-07 -1.17128e-07 0)
(8.67896e-07 -1.14903e-07 0)
(8.97197e-07 -1.12459e-07 0)
(9.26314e-07 -1.09707e-07 0)
(9.55283e-07 -1.06538e-07 0)
(9.84121e-07 -1.02892e-07 0)
(1.01286e-06 -9.85979e-08 0)
(1.04154e-06 -9.36022e-08 0)
(1.07013e-06 -8.7819e-08 0)
(4.59255e-07 -1.81058e-07 0)
(4.9736e-07 -1.70849e-07 0)
(5.33899e-07 -1.63113e-07 0)
(5.69478e-07 -1.56735e-07 0)
(6.03972e-07 -1.51581e-07 0)
(6.37567e-07 -1.47309e-07 0)
(6.70365e-07 -1.43703e-07 0)
(7.0249e-07 -1.40587e-07 0)
(7.3403e-07 -1.37803e-07 0)
(7.65066e-07 -1.35211e-07 0)
(7.95681e-07 -1.3271e-07 0)
(8.25944e-07 -1.30202e-07 0)
(8.55906e-07 -1.27586e-07 0)
(8.85613e-07 -1.24786e-07 0)
(9.15085e-07 -1.21708e-07 0)
(9.44381e-07 -1.18232e-07 0)
(9.73497e-07 -1.1432e-07 0)
(1.0025e-06 -1.09784e-07 0)
(1.03142e-06 -1.04555e-07 0)
(1.06023e-06 -9.85317e-08 0)
(4.43577e-07 -2.00132e-07 0)
(4.81269e-07 -1.89883e-07 0)
(5.17906e-07 -1.81699e-07 0)
(5.53763e-07 -1.74743e-07 0)
(5.88685e-07 -1.68923e-07 0)
(6.22774e-07 -1.63976e-07 0)
(6.56098e-07 -1.59724e-07 0)
(6.88735e-07 -1.55996e-07 0)
(7.20761e-07 -1.52638e-07 0)
(7.52254e-07 -1.49521e-07 0)
(7.83293e-07 -1.46545e-07 0)
(8.13941e-07 -1.43604e-07 0)
(8.44248e-07 -1.40591e-07 0)
(8.74262e-07 -1.37432e-07 0)
(9.04003e-07 -1.34034e-07 0)
(9.33547e-07 -1.3027e-07 0)
(9.62887e-07 -1.26107e-07 0)
(9.92103e-07 -1.21362e-07 0)
(1.0212e-06 -1.15944e-07 0)
(1.05019e-06 -1.09761e-07 0)
(4.30141e-07 -2.18722e-07 0)
(4.67354e-07 -2.08578e-07 0)
(5.03767e-07 -2.00099e-07 0)
(5.3961e-07 -1.92674e-07 0)
(5.74648e-07 -1.86284e-07 0)
(6.0898e-07 -1.80741e-07 0)
(6.42603e-07 -1.75898e-07 0)
(6.75571e-07 -1.71592e-07 0)
(7.07942e-07 -1.67687e-07 0)
(7.3978e-07 -1.64063e-07 0)
(7.7115e-07 -1.60625e-07 0)
(8.02109e-07 -1.57259e-07 0)
(8.32702e-07 -1.53859e-07 0)
(8.62978e-07 -1.50356e-07 0)
(8.92961e-07 -1.4665e-07 0)
(9.22725e-07 -1.42624e-07 0)
(9.52273e-07 -1.38233e-07 0)
(9.81683e-07 -1.33307e-07 0)
(1.01094e-06 -1.2775e-07 0)
(1.04013e-06 -1.21487e-07 0)
(4.18648e-07 -2.36421e-07 0)
(4.55278e-07 -2.26497e-07 0)
(4.91324e-07 -2.17932e-07 0)
(5.26952e-07 -2.10238e-07 0)
(5.61929e-07 -2.03445e-07 0)
(5.96315e-07 -1.97439e-07 0)
(6.30062e-07 -1.92092e-07 0)
(6.6321e-07 -1.87277e-07 0)
(6.95798e-07 -1.82873e-07 0)
(7.27872e-07 -1.78777e-07 0)
(7.5948e-07 -1.749e-07 0)
(7.9067e-07 -1.71128e-07 0)
(8.21483e-07 -1.67356e-07 0)
(8.51968e-07 -1.63528e-07 0)
(8.82149e-07 -1.59531e-07 0)
(9.12099e-07 -1.55269e-07 0)
(9.41822e-07 -1.50678e-07 0)
(9.71398e-07 -1.45602e-07 0)
(1.00082e-06 -1.39955e-07 0)
(1.0302e-06 -1.33679e-07 0)
(4.08654e-07 -2.53508e-07 0)
(4.44697e-07 -2.43837e-07 0)
(4.80328e-07 -2.35269e-07 0)
(5.15625e-07 -2.2741e-07 0)
(5.50426e-07 -2.2033e-07 0)
(5.84722e-07 -2.13953e-07 0)
(6.18464e-07 -2.08187e-07 0)
(6.51675e-07 -2.02933e-07 0)
(6.84374e-07 -1.98089e-07 0)
(7.16587e-07 -1.93565e-07 0)
(7.4835e-07 -1.89284e-07 0)
(7.79697e-07 -1.85134e-07 0)
(8.10669e-07 -1.81016e-07 0)
(8.4131e-07 -1.76888e-07 0)
(8.71642e-07 -1.72622e-07 0)
(9.01738e-07 -1.68152e-07 0)
(9.31603e-07 -1.63392e-07 0)
(9.61313e-07 -1.58204e-07 0)
(9.9089e-07 -1.5252e-07 0)
(1.02044e-06 -1.46278e-07 0)
(3.99927e-07 -2.69995e-07 0)
(4.354e-07 -2.60596e-07 0)
(4.70575e-07 -2.52096e-07 0)
(5.055e-07 -2.4416e-07 0)
(5.40038e-07 -2.36889e-07 0)
(5.74149e-07 -2.30228e-07 0)
(6.07793e-07 -2.24124e-07 0)
(6.40973e-07 -2.18504e-07 0)
(6.73689e-07 -2.13276e-07 0)
(7.05954e-07 -2.08372e-07 0)
(7.37792e-07 -2.03724e-07 0)
(7.69227e-07 -1.99227e-07 0)
(8.00296e-07 -1.94794e-07 0)
(8.3104e-07 -1.90394e-07 0)
(8.61479e-07 -1.85888e-07 0)
(8.9168e-07 -1.81235e-07 0)
(9.21655e-07 -1.7634e-07 0)
(9.51478e-07 -1.71082e-07 0)
(9.812e-07 -1.654e-07 0)
(1.01086e-06 -1.59228e-07 0)
(3.92256e-07 -2.85976e-07 0)
(4.27201e-07 -2.76843e-07 0)
(4.61901e-07 -2.68444e-07 0)
(4.96433e-07 -2.60491e-07 0)
(5.30643e-07 -2.53091e-07 0)
(5.64509e-07 -2.46217e-07 0)
(5.97983e-07 -2.39848e-07 0)
(6.31054e-07 -2.33926e-07 0)
(6.63707e-07 -2.2837e-07 0)
(6.95949e-07 -2.23133e-07 0)
(7.27796e-07 -2.18161e-07 0)
(7.59261e-07 -2.13353e-07 0)
(7.90381e-07 -2.08638e-07 0)
(8.21184e-07 -2.03997e-07 0)
(8.51696e-07 -1.99283e-07 0)
(8.81976e-07 -1.94477e-07 0)
(9.12038e-07 -1.89482e-07 0)
(9.41966e-07 -1.84192e-07 0)
(9.71792e-07 -1.78547e-07 0)
(1.00155e-06 -1.7248e-07 0)
(3.85453e-07 -3.01504e-07 0)
(4.19884e-07 -2.92625e-07 0)
(4.54125e-07 -2.84342e-07 0)
(4.88243e-07 -2.76407e-07 0)
(5.22102e-07 -2.68925e-07 0)
(5.55688e-07 -2.61899e-07 0)
(5.88944e-07 -2.55325e-07 0)
(6.21852e-07 -2.49157e-07 0)
(6.54389e-07 -2.43325e-07 0)
(6.86558e-07 -2.37804e-07 0)
(7.18369e-07 -2.32552e-07 0)
(7.49827e-07 -2.27475e-07 0)
(7.80962e-07 -2.22515e-07 0)
(8.11796e-07 -2.17664e-07 0)
(8.42355e-07 -2.12775e-07 0)
(8.72694e-07 -2.07847e-07 0)
(9.02828e-07 -2.02787e-07 0)
(9.32846e-07 -1.97495e-07 0)
(9.62731e-07 -1.91913e-07 0)
(9.92601e-07 -1.85997e-07 0)
(3.79366e-07 -3.16632e-07 0)
(4.13296e-07 -3.0799e-07 0)
(4.471e-07 -2.99828e-07 0)
(4.80802e-07 -2.9193e-07 0)
(5.14312e-07 -2.84407e-07 0)
(5.47603e-07 -2.77277e-07 0)
(5.80615e-07 -2.70545e-07 0)
(6.13332e-07 -2.64178e-07 0)
(6.4572e-07 -2.58119e-07 0)
(6.77786e-07 -2.5236e-07 0)
(7.09529e-07 -2.4687e-07 0)
(7.40948e-07 -2.41562e-07 0)
(7.72071e-07 -2.36393e-07 0)
(8.0291e-07 -2.31363e-07 0)
(8.33491e-07 -2.26332e-07 0)
(8.63867e-07 -2.21312e-07 0)
(8.94051e-07 -2.16217e-07 0)
(9.24117e-07 -2.10946e-07 0)
(9.54051e-07 -2.05463e-07 0)
(9.84012e-07 -1.99737e-07 0)
(3.73847e-07 -3.31412e-07 0)
(4.07312e-07 -3.22988e-07 0)
(4.40697e-07 -3.14944e-07 0)
(4.74008e-07 -3.071e-07 0)
(5.07182e-07 -2.99567e-07 0)
(5.40177e-07 -2.92366e-07 0)
(5.72936e-07 -2.85513e-07 0)
(6.05446e-07 -2.78984e-07 0)
(6.37665e-07 -2.72739e-07 0)
(6.69606e-07 -2.66781e-07 0)
(7.01255e-07 -2.61091e-07 0)
(7.32612e-07 -2.55588e-07 0)
(7.63697e-07 -2.50242e-07 0)
(7.94522e-07 -2.45063e-07 0)
(8.25106e-07 -2.39919e-07 0)
(8.555e-07 -2.34834e-07 0)
(8.85709e-07 -2.29724e-07 0)
(9.15785e-07 -2.24501e-07 0)
(9.45783e-07 -2.1915e-07 0)
(9.75779e-07 -2.13644e-07 0)
(3.68786e-07 -3.4589e-07 0)
(4.01827e-07 -3.37664e-07 0)
(4.34817e-07 -3.29736e-07 0)
(4.67773e-07 -3.21958e-07 0)
(5.00623e-07 -3.14432e-07 0)
(5.33324e-07 -3.07179e-07 0)
(5.65825e-07 -3.00233e-07 0)
(5.98122e-07 -2.93575e-07 0)
(6.30166e-07 -2.87178e-07 0)
(6.61972e-07 -2.81055e-07 0)
(6.9352e-07 -2.75198e-07 0)
(7.24808e-07 -2.6953e-07 0)
(7.55853e-07 -2.64037e-07 0)
(7.8666e-07 -2.58735e-07 0)
(8.17241e-07 -2.53504e-07 0)
(8.4764e-07 -2.48373e-07 0)
(8.77853e-07 -2.43267e-07 0)
(9.07941e-07 -2.38121e-07 0)
(9.37983e-07 -2.32931e-07 0)
(9.67995e-07 -2.27652e-07 0)
(3.64115e-07 -3.601e-07 0)
(3.96765e-07 -3.52057e-07 0)
(4.29394e-07 -3.44244e-07 0)
(4.62012e-07 -3.36534e-07 0)
(4.94547e-07 -3.29019e-07 0)
(5.2696e-07 -3.21727e-07 0)
(5.59218e-07 -3.14713e-07 0)
(5.91308e-07 -3.07955e-07 0)
(6.23196e-07 -3.01437e-07 0)
(6.54878e-07 -2.95181e-07 0)
(6.86334e-07 -2.89187e-07 0)
(7.17558e-07 -2.83385e-07 0)
(7.48558e-07 -2.77772e-07 0)
(7.79336e-07 -2.72372e-07 0)
(8.09898e-07 -2.67071e-07 0)
(8.40284e-07 -2.61909e-07 0)
(8.70479e-07 -2.56826e-07 0)
(9.00591e-07 -2.5178e-07 0)
(9.3061e-07 -2.46766e-07 0)
(9.60654e-07 -2.4174e-07 0)
(3.59758e-07 -3.7407e-07 0)
(3.92049e-07 -3.66203e-07 0)
(4.24344e-07 -3.58497e-07 0)
(4.56636e-07 -3.50848e-07 0)
(4.88878e-07 -3.43349e-07 0)
(5.2103e-07 -3.36037e-07 0)
(5.53079e-07 -3.28976e-07 0)
(5.8498e-07 -3.22148e-07 0)
(6.16725e-07 -3.15538e-07 0)
(6.48283e-07 -3.0917e-07 0)
(6.79645e-07 -3.03058e-07 0)
(7.108e-07 -2.97139e-07 0)
(7.41752e-07 -2.91421e-07 0)
(7.72499e-07 -2.85936e-07 0)
(8.03037e-07 -2.80577e-07 0)
(8.33401e-07 -2.75394e-07 0)
(8.63583e-07 -2.70353e-07 0)
(8.93692e-07 -2.65417e-07 0)
(9.23678e-07 -2.6059e-07 0)
(9.53728e-07 -2.55867e-07 0)
(3.55617e-07 -3.87841e-07 0)
(3.87576e-07 -3.80137e-07 0)
(4.19556e-07 -3.72522e-07 0)
(4.51553e-07 -3.64932e-07 0)
(4.83543e-07 -3.57458e-07 0)
(5.15466e-07 -3.50145e-07 0)
(5.47326e-07 -3.43049e-07 0)
(5.79057e-07 -3.36164e-07 0)
(6.10672e-07 -3.29474e-07 0)
(6.42133e-07 -3.23013e-07 0)
(6.73428e-07 -3.16806e-07 0)
(7.04539e-07 -3.10793e-07 0)
(7.35467e-07 -3.04988e-07 0)
(7.66197e-07 -2.99428e-07 0)
(7.9672e-07 -2.94018e-07 0)
(8.27068e-07 -2.88822e-07 0)
(8.57255e-07 -2.83828e-07 0)
(8.87327e-07 -2.79012e-07 0)
(9.17319e-07 -2.74394e-07 0)
(9.47337e-07 -2.69982e-07 0)
(3.51591e-07 -4.01448e-07 0)
(3.8324e-07 -3.93881e-07 0)
(4.14938e-07 -3.86349e-07 0)
(4.46686e-07 -3.78825e-07 0)
(4.78458e-07 -3.71383e-07 0)
(5.1019e-07 -3.64078e-07 0)
(5.41888e-07 -3.56956e-07 0)
(5.73499e-07 -3.50027e-07 0)
(6.05008e-07 -3.4328e-07 0)
(6.36389e-07 -3.36745e-07 0)
(6.67632e-07 -3.30459e-07 0)
(6.98714e-07 -3.24366e-07 0)
(7.29624e-07 -3.1848e-07 0)
(7.60346e-07 -3.12843e-07 0)
(7.90869e-07 -3.07376e-07 0)
(8.21228e-07 -3.02176e-07 0)
(8.51421e-07 -2.97232e-07 0)
(8.81468e-07 -2.9253e-07 0)
(9.11451e-07 -2.88132e-07 0)
(9.41451e-07 -2.84046e-07 0)
(3.47575e-07 -4.14923e-07 0)
(3.78957e-07 -4.07471e-07 0)
(4.10408e-07 -4.00014e-07 0)
(4.41953e-07 -3.9256e-07 0)
(4.73532e-07 -3.85154e-07 0)
(5.05124e-07 -3.77859e-07 0)
(5.36684e-07 -3.70728e-07 0)
(5.68199e-07 -3.63761e-07 0)
(5.99636e-07 -3.56958e-07 0)
(6.30976e-07 -3.50367e-07 0)
(6.62202e-07 -3.44019e-07 0)
(6.93282e-07 -3.37851e-07 0)
(7.24204e-07 -3.31879e-07 0)
(7.54949e-07 -3.26173e-07 0)
(7.85507e-07 -3.20668e-07 0)
(8.15919e-07 -3.15454e-07 0)
(8.46128e-07 -3.10533e-07 0)
(8.76207e-07 -3.05935e-07 0)
(9.0614e-07 -3.01754e-07 0)
(9.36129e-07 -2.98007e-07 0)
(3.43507e-07 -4.28269e-07 0)
(3.74654e-07 -4.20943e-07 0)
(4.05913e-07 -4.13564e-07 0)
(4.37285e-07 -4.06171e-07 0)
(4.68727e-07 -3.98811e-07 0)
(5.002e-07 -3.91524e-07 0)
(5.31674e-07 -3.8438e-07 0)
(5.63125e-07 -3.77397e-07 0)
(5.94529e-07 -3.70567e-07 0)
(6.25865e-07 -3.6393e-07 0)
(6.57105e-07 -3.57517e-07 0)
(6.88209e-07 -3.51278e-07 0)
(7.19175e-07 -3.45238e-07 0)
(7.49998e-07 -3.39466e-07 0)
(7.8065e-07 -3.33916e-07 0)
(8.11133e-07 -3.28672e-07 0)
(8.41397e-07 -3.23748e-07 0)
(8.71568e-07 -3.19225e-07 0)
(9.01533e-07 -3.15252e-07 0)
(9.31461e-07 -3.11859e-07 0)
(3.39292e-07 -4.4157e-07 0)
(3.70222e-07 -4.34328e-07 0)
(4.01343e-07 -4.27027e-07 0)
(4.32585e-07 -4.197e-07 0)
(4.63922e-07 -4.12365e-07 0)
(4.95311e-07 -4.05092e-07 0)
(5.26739e-07 -3.97952e-07 0)
(5.58179e-07 -3.90962e-07 0)
(5.89595e-07 -3.84108e-07 0)
(6.20951e-07 -3.77429e-07 0)
(6.52229e-07 -3.70957e-07 0)
(6.83415e-07 -3.64655e-07 0)
(7.1449e-07 -3.58564e-07 0)
(7.45417e-07 -3.52743e-07 0)
(7.76198e-07 -3.47113e-07 0)
(8.06834e-07 -3.41801e-07 0)
(8.37286e-07 -3.36893e-07 0)
(8.67561e-07 -3.32401e-07 0)
(8.97646e-07 -3.28539e-07 0)
(9.27585e-07 -3.25473e-07 0)
(3.34921e-07 -4.54793e-07 0)
(3.65714e-07 -4.47654e-07 0)
(3.96715e-07 -4.4043e-07 0)
(4.27864e-07 -4.33148e-07 0)
(4.59135e-07 -4.25848e-07 0)
(4.90506e-07 -4.18603e-07 0)
(5.21943e-07 -4.11488e-07 0)
(5.53407e-07 -4.045e-07 0)
(5.84864e-07 -3.97613e-07 0)
(6.16298e-07 -3.90893e-07 0)
(6.47678e-07 -3.84406e-07 0)
(6.78967e-07 -3.78074e-07 0)
(7.10175e-07 -3.71904e-07 0)
(7.41275e-07 -3.66018e-07 0)
(7.72237e-07 -3.60363e-07 0)
(8.03082e-07 -3.54989e-07 0)
(8.33816e-07 -3.50026e-07 0)
(8.64335e-07 -3.45491e-07 0)
(8.94699e-07 -3.41657e-07 0)
(9.24793e-07 -3.38804e-07 0)
(2.12176e-08 -3.41806e-07 0)
(6.38312e-08 -3.37011e-07 0)
(1.06892e-07 -3.27536e-07 0)
(1.50711e-07 -3.13862e-07 0)
(1.95436e-07 -2.96524e-07 0)
(2.4116e-07 -2.76136e-07 0)
(2.87885e-07 -2.53553e-07 0)
(3.35474e-07 -2.29448e-07 0)
(3.84071e-07 -2.04586e-07 0)
(4.33044e-07 -1.79426e-07 0)
(2.07516e-08 -3.49374e-07 0)
(6.24146e-08 -3.44973e-07 0)
(1.04408e-07 -3.36285e-07 0)
(1.47004e-07 -3.23714e-07 0)
(1.90317e-07 -3.07732e-07 0)
(2.34383e-07 -2.88848e-07 0)
(2.79245e-07 -2.67772e-07 0)
(3.24597e-07 -2.45162e-07 0)
(3.70639e-07 -2.21623e-07 0)
(4.16293e-07 -1.98184e-07 0)
(2.02993e-08 -3.57065e-07 0)
(6.10324e-08 -3.5303e-07 0)
(1.02027e-07 -3.45047e-07 0)
(1.43456e-07 -3.33471e-07 0)
(1.8546e-07 -3.1872e-07 0)
(2.28004e-07 -3.01264e-07 0)
(2.7117e-07 -2.81693e-07 0)
(3.1466e-07 -2.60628e-07 0)
(3.58703e-07 -2.38488e-07 0)
(4.02333e-07 -2.16463e-07 0)
(1.99107e-08 -3.64898e-07 0)
(5.98124e-08 -3.61169e-07 0)
(9.99582e-08 -3.53799e-07 0)
(1.40408e-07 -3.43091e-07 0)
(1.81316e-07 -3.29426e-07 0)
(2.2261e-07 -3.13224e-07 0)
(2.64363e-07 -2.94988e-07 0)
(3.06285e-07 -2.75333e-07 0)
(3.4853e-07 -2.54606e-07 0)
(3.90354e-07 -2.34018e-07 0)
(1.95666e-08 -3.72884e-07 0)
(5.87111e-08 -3.69437e-07 0)
(9.80702e-08 -3.62633e-07 0)
(1.37643e-07 -3.52717e-07 0)
(1.77569e-07 -3.40033e-07 0)
(2.17766e-07 -3.24998e-07 0)
(2.58298e-07 -3.08035e-07 0)
(2.98922e-07 -2.89677e-07 0)
(3.39698e-07 -2.70253e-07 0)
(3.80069e-07 -2.50902e-07 0)
(1.92334e-08 -3.81021e-07 0)
(5.77165e-08 -3.77812e-07 0)
(9.63548e-08 -3.71493e-07 0)
(1.35161e-07 -3.623e-07 0)
(1.74231e-07 -3.50501e-07 0)
(2.13503e-07 -3.3651e-07 0)
(2.52968e-07 -3.20715e-07 0)
(2.92458e-07 -3.03564e-07 0)
(3.31971e-07 -2.85387e-07 0)
(3.71091e-07 -2.67222e-07 0)
(1.89183e-08 -3.89291e-07 0)
(5.67909e-08 -3.86316e-07 0)
(9.47714e-08 -3.80432e-07 0)
(1.32895e-07 -3.71897e-07 0)
(1.71187e-07 -3.6091e-07 0)
(2.09645e-07 -3.47873e-07 0)
(2.48205e-07 -3.33148e-07 0)
(2.86728e-07 -3.17111e-07 0)
(3.25181e-07 -3.00087e-07 0)
(3.63244e-07 -2.83019e-07 0)
(1.86449e-08 -3.97702e-07 0)
(5.59309e-08 -3.94935e-07 0)
(9.33094e-08 -3.89447e-07 0)
(1.3081e-07 -3.81508e-07 0)
(1.68415e-07 -3.71264e-07 0)
(2.06138e-07 -3.59092e-07 0)
(2.43903e-07 -3.4535e-07 0)
(2.816e-07 -3.30349e-07 0)
(3.1916e-07 -3.14403e-07 0)
(3.56338e-07 -2.98363e-07 0)
(1.83861e-08 -4.06257e-07 0)
(5.51203e-08 -4.03672e-07 0)
(9.19484e-08 -3.98549e-07 0)
(1.28863e-07 -3.91148e-07 0)
(1.65851e-07 -3.81592e-07 0)
(2.02927e-07 -3.70211e-07 0)
(2.39983e-07 -3.57369e-07 0)
(2.76959e-07 -3.43332e-07 0)
(3.13763e-07 -3.28389e-07 0)
(3.50201e-07 -3.13306e-07 0)
(1.81183e-08 -4.14939e-07 0)
(5.43504e-08 -4.12532e-07 0)
(9.06621e-08 -4.07742e-07 0)
(1.27035e-07 -4.00824e-07 0)
(1.63446e-07 -3.91905e-07 0)
(1.99939e-07 -3.81254e-07 0)
(2.3637e-07 -3.69233e-07 0)
(2.72712e-07 -3.5609e-07 0)
(3.08873e-07 -3.42085e-07 0)
(3.44678e-07 -3.27892e-07 0)
(1.78555e-08 -4.2374e-07 0)
(5.3625e-08 -4.21518e-07 0)
(8.943e-08 -4.17029e-07 0)
(1.25299e-07 -4.10546e-07 0)
(1.6117e-07 -4.02213e-07 0)
(1.97122e-07 -3.92238e-07 0)
(2.32999e-07 -3.80972e-07 0)
(2.68783e-07 -3.68657e-07 0)
(3.0439e-07 -3.55524e-07 0)
(3.3965e-07 -3.42167e-07 0)
(1.76159e-08 -4.32668e-07 0)
(5.29343e-08 -4.30621e-07 0)
(8.82372e-08 -4.26409e-07 0)
(1.2363e-07 -4.20323e-07 0)
(1.58998e-07 -4.12523e-07 0)
(1.94439e-07 -4.03175e-07 0)
(2.29821e-07 -3.92608e-07 0)
(2.6511e-07 -3.81059e-07 0)
(3.00232e-07 -3.68733e-07 0)
(3.35033e-07 -3.56165e-07 0)
(1.7392e-08 -4.41731e-07 0)
(5.22474e-08 -4.39828e-07 0)
(8.70595e-08 -4.35873e-07 0)
(1.21985e-07 -4.30155e-07 0)
(1.56884e-07 -4.22842e-07 0)
(1.91846e-07 -4.14073e-07 0)
(2.26775e-07 -4.04156e-07 0)
(2.61623e-07 -3.93317e-07 0)
(2.96327e-07 -3.81746e-07 0)
(3.30766e-07 -3.6992e-07 0)
(1.71622e-08 -4.50914e-07 0)
(5.15357e-08 -4.49122e-07 0)
(8.58702e-08 -4.45414e-07 0)
(1.20328e-07 -4.40037e-07 0)
(1.54778e-07 -4.33169e-07 0)
(1.89292e-07 -4.24937e-07 0)
(2.23802e-07 -4.15628e-07 0)
(2.58257e-07 -4.05457e-07 0)
(2.92613e-07 -3.94604e-07 0)
(3.26757e-07 -3.83476e-07 0)
(1.69155e-08 -4.60193e-07 0)
(5.07927e-08 -4.58492e-07 0)
(8.46542e-08 -4.55022e-07 0)
(1.1864e-07 -4.49964e-07 0)
(1.52651e-07 -4.4351e-07 0)
(1.86736e-07 -4.35785e-07 0)
(2.20849e-07 -4.27047e-07 0)
(2.54955e-07 -4.17507e-07 0)
(2.89006e-07 -4.07332e-07 0)
(3.22893e-07 -3.96856e-07 0)
(1.66555e-08 -4.69548e-07 0)
(5.00245e-08 -4.67933e-07 0)
(8.34044e-08 -4.64693e-07 0)
(1.16905e-07 -4.59939e-07 0)
(1.50472e-07 -4.53867e-07 0)
(1.84135e-07 -4.46611e-07 0)
(2.17868e-07 -4.38418e-07 0)
(2.5166e-07 -4.29474e-07 0)
(2.85424e-07 -4.19937e-07 0)
(3.19109e-07 -4.10083e-07 0)
(1.63875e-08 -4.78968e-07 0)
(4.92277e-08 -4.77442e-07 0)
(8.20988e-08 -4.74413e-07 0)
(1.15095e-07 -4.69944e-07 0)
(1.48206e-07 -4.64243e-07 0)
(1.81448e-07 -4.57436e-07 0)
(2.14814e-07 -4.49765e-07 0)
(2.48288e-07 -4.41389e-07 0)
(2.81794e-07 -4.3245e-07 0)
(3.15299e-07 -4.23205e-07 0)
(1.61059e-08 -4.88445e-07 0)
(4.8377e-08 -4.87005e-07 0)
(8.0701e-08 -4.84166e-07 0)
(1.13165e-07 -4.79979e-07 0)
(1.45791e-07 -4.74631e-07 0)
(1.78604e-07 -4.68258e-07 0)
(2.11607e-07 -4.61074e-07 0)
(2.44751e-07 -4.53236e-07 0)
(2.78045e-07 -4.44873e-07 0)
(3.11387e-07 -4.36208e-07 0)
(1.57979e-08 -4.97954e-07 0)
(4.74406e-08 -4.966e-07 0)
(7.91675e-08 -4.93941e-07 0)
(1.11072e-07 -4.90027e-07 0)
(1.43187e-07 -4.85034e-07 0)
(1.75554e-07 -4.79083e-07 0)
(2.08174e-07 -4.72367e-07 0)
(2.41017e-07 -4.65047e-07 0)
(2.74078e-07 -4.57253e-07 0)
(3.07297e-07 -4.49167e-07 0)
(1.54595e-08 -5.07441e-07 0)
(4.64232e-08 -5.06181e-07 0)
(7.75012e-08 -5.03705e-07 0)
(1.08798e-07 -5.00065e-07 0)
(1.40375e-07 -4.9542e-07 0)
(1.72284e-07 -4.89887e-07 0)
(2.04507e-07 -4.83634e-07 0)
(2.37094e-07 -4.7681e-07 0)
(2.69938e-07 -4.69564e-07 0)
(3.03092e-07 -4.62058e-07 0)
)


// ************************************************************************* //
