/*--------------------------------*- C++ -*----------------------------------*\
| =========                 |                                                 |
| \\      /  F ield         | foam-extend: Open Source CFD                    |
|  \\    /   O peration     | Version:     4.1                                |
|   \\  /    A nd           | Web:         http://www.foam-extend.org         |
|    \\/     M anipulation  |                                                 |
\*---------------------------------------------------------------------------*/
FoamFile
{
    version     2.0;
    format      ascii;
    class       vectorField;
    location    "1";
    object      convergedD_cells;
}
// * * * * * * * * * * * * * * * * * * * * * * * * * * * * * * * * * * * * * //


100000
(
(5.74672e-07 -2.38414e-07 0.00370981)
(5.69988e-07 -2.35213e-07 0.00353828)
(5.65509e-07 -2.32158e-07 0.00263124)
(5.6123e-07 -2.29259e-07 0.00184159)
(5.57141e-07 -2.26502e-07 0.00139383)
(5.53234e-07 -2.23882e-07 0.000999367)
(5.49502e-07 -2.21392e-07 0.000554246)
(5.45936e-07 -2.19026e-07 -0.000278318)
(5.42531e-07 -2.1678e-07 -0.00153629)
(5.39278e-07 -2.14646e-07 -0.00205036)
(5.36173e-07 -2.1262e-07 -0.00225534)
(5.33208e-07 -2.10697e-07 -0.00248193)
(5.30379e-07 -2.08873e-07 -0.00264703)
(5.27679e-07 -2.07143e-07 -0.00278566)
(5.25104e-07 -2.05502e-07 -0.00291232)
(5.2265e-07 -2.03948e-07 -0.00292273)
(5.2031e-07 -2.02476e-07 -0.00297674)
(5.18081e-07 -2.01083e-07 -0.0030257)
(5.15958e-07 -1.99766e-07 -0.00308015)
(5.13938e-07 -1.9852e-07 -0.00312051)
(5.12017e-07 -1.97344e-07 -0.00318338)
(5.1019e-07 -1.96233e-07 -0.00327074)
(5.08455e-07 -1.95187e-07 -0.00340708)
(5.06808e-07 -1.94201e-07 -0.00353852)
(5.05246e-07 -1.93273e-07 -0.00363339)
(5.03766e-07 -1.92402e-07 -0.003661)
(5.02365e-07 -1.91584e-07 -0.00359955)
(5.01039e-07 -1.90817e-07 -0.00344586)
(4.99788e-07 -1.901e-07 -0.00329393)
(4.98607e-07 -1.89431e-07 -0.00314339)
(4.97495e-07 -1.88807e-07 -0.00298391)
(4.96449e-07 -1.88227e-07 -0.00282246)
(4.95467e-07 -1.87689e-07 -0.00266265)
(4.94545e-07 -1.87191e-07 -0.00249219)
(4.93684e-07 -1.86732e-07 -0.00238874)
(4.92881e-07 -1.86311e-07 -0.00238076)
(4.92133e-07 -1.85925e-07 -0.0024333)
(4.9144e-07 -1.85574e-07 -0.00245415)
(4.90798e-07 -1.85256e-07 -0.00246372)
(4.90207e-07 -1.8497e-07 -0.0024592)
(4.89665e-07 -1.84715e-07 -0.00244935)
(4.8917e-07 -1.84489e-07 -0.00243914)
(4.88721e-07 -1.84291e-07 -0.00254702)
(4.88316e-07 -1.84122e-07 -0.00271699)
(4.87954e-07 -1.83978e-07 -0.00288035)
(4.87633e-07 -1.8386e-07 -0.00308017)
(4.87353e-07 -1.83766e-07 -0.00327095)
(4.87112e-07 -1.83696e-07 -0.00340681)
(4.86909e-07 -1.83648e-07 -0.00351941)
(4.86743e-07 -1.83622e-07 -0.00362263)
(4.86612e-07 -1.83617e-07 -0.00371949)
(4.86516e-07 -1.83633e-07 -0.00381002)
(4.86453e-07 -1.83668e-07 -0.00389451)
(4.86423e-07 -1.83721e-07 -0.00390443)
(4.86424e-07 -1.83793e-07 -0.00376939)
(4.86456e-07 -1.83882e-07 -0.00364277)
(4.86518e-07 -1.83988e-07 -0.00353869)
(4.86608e-07 -1.8411e-07 -0.00343339)
(4.86727e-07 -1.84248e-07 -0.00331027)
(4.86873e-07 -1.84401e-07 -0.00321269)
(4.87045e-07 -1.84568e-07 -0.00319811)
(4.87242e-07 -1.84749e-07 -0.00318268)
(4.87465e-07 -1.84943e-07 -0.00316632)
(4.87712e-07 -1.85151e-07 -0.00314928)
(4.87982e-07 -1.85371e-07 -0.00313164)
(4.88275e-07 -1.85603e-07 -0.00311345)
(4.8859e-07 -1.85846e-07 -0.00309486)
(4.88927e-07 -1.86101e-07 -0.00307563)
(4.89285e-07 -1.86366e-07 -0.00306085)
(4.89663e-07 -1.86641e-07 -0.0030518)
(4.90061e-07 -1.86927e-07 -0.00304211)
(4.90479e-07 -1.87222e-07 -0.00303182)
(4.90915e-07 -1.87526e-07 -0.00302095)
(4.91369e-07 -1.87839e-07 -0.00300985)
(4.91841e-07 -1.88161e-07 -0.0029986)
(4.9233e-07 -1.88491e-07 -0.00298732)
(4.92836e-07 -1.88828e-07 -0.00297603)
(4.93359e-07 -1.89173e-07 -0.00296468)
(4.93897e-07 -1.89526e-07 -0.00295344)
(4.9445e-07 -1.89885e-07 -0.00294241)
(4.95019e-07 -1.90251e-07 -0.00293193)
(4.95602e-07 -1.90624e-07 -0.00292209)
(4.96199e-07 -1.91003e-07 -0.0029129)
(4.9681e-07 -1.91387e-07 -0.00290547)
(4.97434e-07 -1.91778e-07 -0.0029332)
(4.98072e-07 -1.92174e-07 -0.00299432)
(4.98722e-07 -1.92575e-07 -0.00304093)
(4.99385e-07 -1.92981e-07 -0.00307327)
(5.0006e-07 -1.93392e-07 -0.00310952)
(5.00746e-07 -1.93807e-07 -0.00315073)
(5.01444e-07 -1.94227e-07 -0.00319805)
(5.02153e-07 -1.94651e-07 -0.00323786)
(5.02872e-07 -1.95079e-07 -0.00328326)
(5.03602e-07 -1.95511e-07 -0.00333943)
(5.04343e-07 -1.95946e-07 -0.00340931)
(5.05093e-07 -1.96385e-07 -0.00349833)
(5.05853e-07 -1.96827e-07 -0.00361513)
(5.06623e-07 -1.97272e-07 -0.00377015)
(5.07401e-07 -1.97721e-07 -0.00397263)
(5.08191e-07 -1.98173e-07 -0.0043397)
(5.7001e-07 -2.40344e-07 0.00367547)
(5.65276e-07 -2.37207e-07 0.00305067)
(5.60751e-07 -2.34214e-07 0.0021683)
(5.56427e-07 -2.31373e-07 0.00137632)
(5.52296e-07 -2.28671e-07 0.000853143)
(5.48349e-07 -2.26104e-07 0.000314209)
(5.44578e-07 -2.23665e-07 -0.000421324)
(5.40976e-07 -2.21348e-07 -0.001361)
(5.37535e-07 -2.19147e-07 -0.00161658)
(5.3425e-07 -2.17057e-07 -0.00177533)
(5.31113e-07 -2.15073e-07 -0.0020618)
(5.28118e-07 -2.1319e-07 -0.00254182)
(5.2526e-07 -2.11404e-07 -0.00276524)
(5.22533e-07 -2.09711e-07 -0.00289767)
(5.19933e-07 -2.08106e-07 -0.00300857)
(5.17453e-07 -2.06585e-07 -0.00313689)
(5.15089e-07 -2.05145e-07 -0.00323251)
(5.12838e-07 -2.03783e-07 -0.00331142)
(5.10693e-07 -2.02494e-07 -0.00337985)
(5.08652e-07 -2.01277e-07 -0.00341723)
(5.06711e-07 -2.00127e-07 -0.0034547)
(5.04865e-07 -1.99043e-07 -0.00347724)
(5.03112e-07 -1.98021e-07 -0.00349537)
(5.01448e-07 -1.97058e-07 -0.00350902)
(4.99869e-07 -1.96153e-07 -0.00351812)
(4.98372e-07 -1.95304e-07 -0.0035281)
(4.96956e-07 -1.94506e-07 -0.00345668)
(4.95616e-07 -1.9376e-07 -0.00332469)
(4.9435e-07 -1.93062e-07 -0.00327552)
(4.93155e-07 -1.92411e-07 -0.00327222)
(4.9203e-07 -1.91805e-07 -0.00327268)
(4.90972e-07 -1.91241e-07 -0.00327239)
(4.89976e-07 -1.9072e-07 -0.00326749)
(4.89042e-07 -1.90239e-07 -0.00325792)
(4.8817e-07 -1.89794e-07 -0.0032042)
(4.87356e-07 -1.89387e-07 -0.0031896)
(4.86598e-07 -1.89015e-07 -0.00324789)
(4.85893e-07 -1.88678e-07 -0.00327465)
(4.85242e-07 -1.88372e-07 -0.00328137)
(4.84641e-07 -1.88099e-07 -0.00327955)
(4.84089e-07 -1.87855e-07 -0.00330455)
(4.83585e-07 -1.87641e-07 -0.00334208)
(4.83127e-07 -1.87455e-07 -0.00341658)
(4.82713e-07 -1.87296e-07 -0.00350684)
(4.82343e-07 -1.87162e-07 -0.00358856)
(4.82014e-07 -1.87054e-07 -0.00375747)
(4.81726e-07 -1.8697e-07 -0.00389797)
(4.81477e-07 -1.86909e-07 -0.00403113)
(4.81266e-07 -1.8687e-07 -0.00415712)
(4.81092e-07 -1.86853e-07 -0.0042762)
(4.80954e-07 -1.86857e-07 -0.0042563)
(4.80851e-07 -1.8688e-07 -0.00411678)
(4.80781e-07 -1.86923e-07 -0.00401321)
(4.80743e-07 -1.86984e-07 -0.00399925)
(4.80738e-07 -1.87063e-07 -0.00398411)
(4.80763e-07 -1.8716e-07 -0.00398899)
(4.80818e-07 -1.87273e-07 -0.00400348)
(4.80902e-07 -1.87401e-07 -0.0040162)
(4.81013e-07 -1.87546e-07 -0.00402699)
(4.81153e-07 -1.87705e-07 -0.00403599)
(4.81318e-07 -1.87878e-07 -0.00404302)
(4.81509e-07 -1.88065e-07 -0.00404843)
(4.81726e-07 -1.88266e-07 -0.00405215)
(4.81966e-07 -1.88479e-07 -0.0040421)
(4.8223e-07 -1.88704e-07 -0.00402853)
(4.82517e-07 -1.88941e-07 -0.00401443)
(4.82826e-07 -1.8919e-07 -0.00400016)
(4.83157e-07 -1.8945e-07 -0.00398532)
(4.83509e-07 -1.8972e-07 -0.00397209)
(4.83881e-07 -1.90001e-07 -0.00396792)
(4.84273e-07 -1.90291e-07 -0.0039632)
(4.84685e-07 -1.90591e-07 -0.00395804)
(4.85115e-07 -1.909e-07 -0.00395255)
(4.85563e-07 -1.91217e-07 -0.00394708)
(4.86029e-07 -1.91543e-07 -0.00394162)
(4.86512e-07 -1.91877e-07 -0.00393642)
(4.87012e-07 -1.92219e-07 -0.00393153)
(4.87529e-07 -1.92569e-07 -0.00392688)
(4.88061e-07 -1.92925e-07 -0.0039228)
(4.88608e-07 -1.93289e-07 -0.00391933)
(4.89171e-07 -1.93659e-07 -0.00391674)
(4.89748e-07 -1.94035e-07 -0.00391533)
(4.90339e-07 -1.94418e-07 -0.00391518)
(4.90944e-07 -1.94807e-07 -0.00391736)
(4.91563e-07 -1.95201e-07 -0.00397969)
(4.92194e-07 -1.956e-07 -0.00405449)
(4.92839e-07 -1.96005e-07 -0.0041337)
(4.93495e-07 -1.96415e-07 -0.00421033)
(4.94164e-07 -1.96829e-07 -0.00426376)
(4.94844e-07 -1.97248e-07 -0.00432422)
(4.95536e-07 -1.97672e-07 -0.00439319)
(4.96238e-07 -1.98099e-07 -0.00447357)
(4.96952e-07 -1.98531e-07 -0.00456829)
(4.97676e-07 -1.98966e-07 -0.00467141)
(4.9841e-07 -1.99405e-07 -0.00477986)
(4.99154e-07 -1.99847e-07 -0.00491273)
(4.99907e-07 -2.00293e-07 -0.00507624)
(5.00671e-07 -2.00741e-07 -0.00527319)
(5.01442e-07 -2.01194e-07 -0.00549799)
(5.02224e-07 -2.01648e-07 -0.00581457)
(5.65314e-07 -2.4226e-07 0.00303072)
(5.60533e-07 -2.39189e-07 0.00217815)
(5.55962e-07 -2.36258e-07 0.00136206)
(5.51595e-07 -2.33477e-07 0.000653773)
(5.47423e-07 -2.30832e-07 9.37428e-06)
(5.43437e-07 -2.2832e-07 -0.000661279)
(5.3963e-07 -2.25932e-07 -0.0011333)
(5.35992e-07 -2.23665e-07 -0.00112255)
(5.32518e-07 -2.21511e-07 -0.0012733)
(5.29201e-07 -2.19466e-07 -0.00152229)
(5.26034e-07 -2.17525e-07 -0.00175156)
(5.2301e-07 -2.15683e-07 -0.0020752)
(5.20124e-07 -2.13937e-07 -0.00260093)
(5.17371e-07 -2.12281e-07 -0.00296323)
(5.14745e-07 -2.10711e-07 -0.00320455)
(5.12242e-07 -2.09225e-07 -0.0033491)
(5.09855e-07 -2.07818e-07 -0.00350572)
(5.07581e-07 -2.06487e-07 -0.00356029)
(5.05416e-07 -2.05228e-07 -0.00359333)
(5.03355e-07 -2.04039e-07 -0.00358962)
(5.01395e-07 -2.02917e-07 -0.0036054)
(4.99531e-07 -2.01859e-07 -0.00362761)
(4.9776e-07 -2.00862e-07 -0.00364543)
(4.96078e-07 -1.99924e-07 -0.00365881)
(4.94483e-07 -1.99042e-07 -0.00379005)
(4.92971e-07 -1.98215e-07 -0.00398186)
(4.9154e-07 -1.97439e-07 -0.00410319)
(4.90185e-07 -1.96713e-07 -0.00418391)
(4.88906e-07 -1.96034e-07 -0.00415201)
(4.87698e-07 -1.95402e-07 -0.00411597)
(4.86559e-07 -1.94814e-07 -0.00408856)
(4.85488e-07 -1.94268e-07 -0.00408634)
(4.8448e-07 -1.93762e-07 -0.0040794)
(4.83537e-07 -1.93297e-07 -0.00406523)
(4.82653e-07 -1.92868e-07 -0.00404998)
(4.81828e-07 -1.92476e-07 -0.00405872)
(4.81059e-07 -1.92119e-07 -0.00414993)
(4.80345e-07 -1.91794e-07 -0.00422157)
(4.79683e-07 -1.91502e-07 -0.00426897)
(4.79073e-07 -1.91241e-07 -0.0043175)
(4.78512e-07 -1.9101e-07 -0.00436238)
(4.77999e-07 -1.90808e-07 -0.00440341)
(4.77532e-07 -1.90633e-07 -0.00445162)
(4.7711e-07 -1.90485e-07 -0.00453734)
(4.76731e-07 -1.90362e-07 -0.00457728)
(4.76394e-07 -1.90264e-07 -0.00461158)
(4.76098e-07 -1.90189e-07 -0.00464264)
(4.75841e-07 -1.90138e-07 -0.00467862)
(4.75623e-07 -1.90108e-07 -0.00468777)
(4.75442e-07 -1.901e-07 -0.00471154)
(4.75296e-07 -1.90112e-07 -0.00473279)
(4.75185e-07 -1.90144e-07 -0.00475138)
(4.75108e-07 -1.90194e-07 -0.00476138)
(4.75064e-07 -1.90263e-07 -0.0047508)
(4.75052e-07 -1.9035e-07 -0.00474003)
(4.7507e-07 -1.90454e-07 -0.00476018)
(4.75118e-07 -1.90574e-07 -0.00477857)
(4.75196e-07 -1.90709e-07 -0.00479535)
(4.75301e-07 -1.9086e-07 -0.0048102)
(4.75434e-07 -1.91026e-07 -0.00482342)
(4.75593e-07 -1.91205e-07 -0.00483474)
(4.75778e-07 -1.91398e-07 -0.0048446)
(4.75988e-07 -1.91605e-07 -0.00485288)
(4.76222e-07 -1.91824e-07 -0.00485977)
(4.7648e-07 -1.92055e-07 -0.00486567)
(4.76761e-07 -1.92297e-07 -0.00487054)
(4.77064e-07 -1.92551e-07 -0.00487464)
(4.77389e-07 -1.92816e-07 -0.00487765)
(4.77735e-07 -1.93092e-07 -0.00487983)
(4.78101e-07 -1.93377e-07 -0.00488824)
(4.78487e-07 -1.93672e-07 -0.00488904)
(4.78893e-07 -1.93977e-07 -0.00489154)
(4.79317e-07 -1.9429e-07 -0.0048939)
(4.79759e-07 -1.94612e-07 -0.00489645)
(4.80219e-07 -1.94943e-07 -0.00489934)
(4.80696e-07 -1.95281e-07 -0.00490279)
(4.81191e-07 -1.95628e-07 -0.0049069)
(4.81701e-07 -1.95981e-07 -0.00491165)
(4.82227e-07 -1.96342e-07 -0.00491724)
(4.82769e-07 -1.96709e-07 -0.00492389)
(4.83325e-07 -1.97084e-07 -0.00493194)
(4.83896e-07 -1.97464e-07 -0.0049416)
(4.84482e-07 -1.97851e-07 -0.00495312)
(4.85081e-07 -1.98243e-07 -0.00496729)
(4.85693e-07 -1.98641e-07 -0.00505073)
(4.86319e-07 -1.99044e-07 -0.00514041)
(4.86957e-07 -1.99453e-07 -0.00523551)
(4.87607e-07 -1.99866e-07 -0.00533669)
(4.8827e-07 -2.00284e-07 -0.00544548)
(4.88944e-07 -2.00707e-07 -0.00552719)
(4.89629e-07 -2.01134e-07 -0.005616)
(4.90326e-07 -2.01565e-07 -0.00571662)
(4.91033e-07 -2.02e-07 -0.00583144)
(4.91751e-07 -2.02439e-07 -0.00595533)
(4.92478e-07 -2.02881e-07 -0.00608737)
(4.93216e-07 -2.03327e-07 -0.00623673)
(4.93963e-07 -2.03776e-07 -0.00638997)
(4.9472e-07 -2.04228e-07 -0.00656438)
(4.95485e-07 -2.04683e-07 -0.00676764)
(4.96259e-07 -2.0514e-07 -0.00703221)
(5.60585e-07 -2.44162e-07 0.00199358)
(5.55758e-07 -2.41158e-07 0.00129725)
(5.51144e-07 -2.38292e-07 0.000447745)
(5.46735e-07 -2.35572e-07 -0.000194829)
(5.42524e-07 -2.32985e-07 -0.00101998)
(5.38501e-07 -2.30528e-07 -0.00100216)
(5.34658e-07 -2.28194e-07 -0.000916671)
(5.30986e-07 -2.25977e-07 -0.000961388)
(5.2748e-07 -2.23871e-07 -0.00106188)
(5.24132e-07 -2.21872e-07 -0.00127961)
(5.20935e-07 -2.19975e-07 -0.00148137)
(5.17884e-07 -2.18176e-07 -0.00175674)
(5.14972e-07 -2.16469e-07 -0.00211448)
(5.12193e-07 -2.14851e-07 -0.00242622)
(5.09543e-07 -2.13318e-07 -0.00269943)
(5.07016e-07 -2.11867e-07 -0.00294831)
(5.04608e-07 -2.10493e-07 -0.00318325)
(5.02313e-07 -2.09194e-07 -0.00340168)
(5.00128e-07 -2.07966e-07 -0.00356389)
(4.98047e-07 -2.06807e-07 -0.00366018)
(4.96068e-07 -2.05713e-07 -0.00371614)
(4.94187e-07 -2.04682e-07 -0.0038778)
(4.92399e-07 -2.0371e-07 -0.00418524)
(4.90701e-07 -2.02797e-07 -0.00444914)
(4.8909e-07 -2.01939e-07 -0.00469917)
(4.87563e-07 -2.01134e-07 -0.00485272)
(4.86117e-07 -2.0038e-07 -0.00497513)
(4.84749e-07 -1.99674e-07 -0.0050908)
(4.83456e-07 -1.99016e-07 -0.00512406)
(4.82235e-07 -1.98403e-07 -0.0051444)
(4.81084e-07 -1.97833e-07 -0.00510824)
(4.80001e-07 -1.97305e-07 -0.00507896)
(4.78983e-07 -1.96817e-07 -0.0050642)
(4.78027e-07 -1.96367e-07 -0.00509574)
(4.77133e-07 -1.95954e-07 -0.00512508)
(4.76297e-07 -1.95577e-07 -0.00512238)
(4.75519e-07 -1.95234e-07 -0.00515195)
(4.74794e-07 -1.94924e-07 -0.00522726)
(4.74124e-07 -1.94645e-07 -0.00528771)
(4.73504e-07 -1.94397e-07 -0.00534584)
(4.72934e-07 -1.94178e-07 -0.00539984)
(4.72412e-07 -1.93988e-07 -0.00544758)
(4.71936e-07 -1.93824e-07 -0.00552374)
(4.71506e-07 -1.93687e-07 -0.00571146)
(4.71119e-07 -1.93575e-07 -0.00589004)
(4.70774e-07 -1.93487e-07 -0.00589921)
(4.70471e-07 -1.93423e-07 -0.00581703)
(4.70206e-07 -1.93381e-07 -0.00573653)
(4.69981e-07 -1.93361e-07 -0.0056576)
(4.69792e-07 -1.93361e-07 -0.00558047)
(4.69639e-07 -1.93382e-07 -0.00550477)
(4.69522e-07 -1.93422e-07 -0.00543592)
(4.69438e-07 -1.93481e-07 -0.00546025)
(4.69387e-07 -1.93558e-07 -0.00548191)
(4.69367e-07 -1.93652e-07 -0.00551404)
(4.69379e-07 -1.93763e-07 -0.00555299)
(4.69421e-07 -1.9389e-07 -0.00557723)
(4.69492e-07 -1.94033e-07 -0.00560008)
(4.69591e-07 -1.9419e-07 -0.00562113)
(4.69717e-07 -1.94362e-07 -0.00564074)
(4.6987e-07 -1.94548e-07 -0.00565866)
(4.70049e-07 -1.94747e-07 -0.00567509)
(4.70253e-07 -1.9496e-07 -0.00569014)
(4.70481e-07 -1.95184e-07 -0.00570392)
(4.70733e-07 -1.95421e-07 -0.00571691)
(4.71008e-07 -1.95669e-07 -0.00572903)
(4.71305e-07 -1.95929e-07 -0.00574044)
(4.71624e-07 -1.96199e-07 -0.0057511)
(4.71963e-07 -1.96479e-07 -0.00576111)
(4.72324e-07 -1.9677e-07 -0.00577746)
(4.72704e-07 -1.9707e-07 -0.00579806)
(4.73103e-07 -1.97379e-07 -0.00581808)
(4.73522e-07 -1.97697e-07 -0.00583778)
(4.73958e-07 -1.98024e-07 -0.00585752)
(4.74412e-07 -1.98359e-07 -0.00587761)
(4.74884e-07 -1.98702e-07 -0.00589838)
(4.75372e-07 -1.99052e-07 -0.00591984)
(4.75876e-07 -1.9941e-07 -0.00593448)
(4.76396e-07 -1.99775e-07 -0.00594713)
(4.76932e-07 -2.00147e-07 -0.0059611)
(4.77483e-07 -2.00525e-07 -0.0059769)
(4.78048e-07 -2.00909e-07 -0.00599466)
(4.78627e-07 -2.013e-07 -0.0060147)
(4.7922e-07 -2.01696e-07 -0.00599612)
(4.79826e-07 -2.02097e-07 -0.00603044)
(4.80446e-07 -2.02504e-07 -0.00607389)
(4.81078e-07 -2.02917e-07 -0.00612198)
(4.81723e-07 -2.03334e-07 -0.00617533)
(4.82379e-07 -2.03756e-07 -0.00623496)
(4.83047e-07 -2.04182e-07 -0.00629124)
(4.83726e-07 -2.04612e-07 -0.00632516)
(4.84416e-07 -2.05047e-07 -0.00635505)
(4.85117e-07 -2.05485e-07 -0.00639491)
(4.85829e-07 -2.05927e-07 -0.00644599)
(4.8655e-07 -2.06373e-07 -0.00650916)
(4.87281e-07 -2.06822e-07 -0.00657778)
(4.88022e-07 -2.07275e-07 -0.00664621)
(4.88772e-07 -2.0773e-07 -0.00671128)
(4.8953e-07 -2.08189e-07 -0.00676169)
(4.90298e-07 -2.08649e-07 -0.00683285)
(5.55824e-07 -2.46051e-07 0.000452845)
(5.50952e-07 -2.43116e-07 4.54055e-05)
(5.46297e-07 -2.40315e-07 -0.000685885)
(5.41848e-07 -2.37657e-07 -0.00128526)
(5.37599e-07 -2.3513e-07 -0.00107408)
(5.3354e-07 -2.3273e-07 -0.000769664)
(5.29662e-07 -2.30449e-07 -0.000654543)
(5.25958e-07 -2.28284e-07 -0.000634831)
(5.22421e-07 -2.26227e-07 -0.000788383)
(5.19044e-07 -2.24275e-07 -0.00101568)
(5.15819e-07 -2.22423e-07 -0.00121106)
(5.12741e-07 -2.20667e-07 -0.00139287)
(5.09803e-07 -2.19001e-07 -0.00169512)
(5.07e-07 -2.17422e-07 -0.00197795)
(5.04327e-07 -2.15927e-07 -0.00213022)
(5.01778e-07 -2.14511e-07 -0.00228756)
(4.99348e-07 -2.13172e-07 -0.00251782)
(4.97033e-07 -2.11905e-07 -0.00272774)
(4.94828e-07 -2.10709e-07 -0.00292241)
(4.9273e-07 -2.09579e-07 -0.00321335)
(4.90733e-07 -2.08514e-07 -0.00356055)
(4.88834e-07 -2.0751e-07 -0.00393555)
(4.8703e-07 -2.06565e-07 -0.00429722)
(4.85317e-07 -2.05677e-07 -0.00463868)
(4.83691e-07 -2.04843e-07 -0.00494654)
(4.8215e-07 -2.04061e-07 -0.00514956)
(4.8069e-07 -2.03329e-07 -0.00533825)
(4.79308e-07 -2.02645e-07 -0.00551315)
(4.78002e-07 -2.02007e-07 -0.0056413)
(4.76769e-07 -2.01413e-07 -0.00571963)
(4.75606e-07 -2.00862e-07 -0.00578848)
(4.74511e-07 -2.00352e-07 -0.00586708)
(4.73482e-07 -1.99881e-07 -0.00592795)
(4.72516e-07 -1.99448e-07 -0.00599651)
(4.71611e-07 -1.99051e-07 -0.00605454)
(4.70765e-07 -1.98689e-07 -0.00610662)
(4.69977e-07 -1.98361e-07 -0.00609122)
(4.69243e-07 -1.98065e-07 -0.00608391)
(4.68563e-07 -1.978e-07 -0.00623231)
(4.67934e-07 -1.97565e-07 -0.00647752)
(4.67356e-07 -1.97359e-07 -0.00670132)
(4.66825e-07 -1.9718e-07 -0.00666552)
(4.66342e-07 -1.97029e-07 -0.00660012)
(4.65903e-07 -1.96903e-07 -0.00656941)
(4.65508e-07 -1.96801e-07 -0.00653574)
(4.65156e-07 -1.96724e-07 -0.00649832)
(4.64845e-07 -1.9667e-07 -0.00645761)
(4.64573e-07 -1.96638e-07 -0.00641471)
(4.6434e-07 -1.96627e-07 -0.00636927)
(4.64144e-07 -1.96636e-07 -0.00632191)
(4.63984e-07 -1.96666e-07 -0.00627233)
(4.6386e-07 -1.96715e-07 -0.00622076)
(4.63769e-07 -1.96782e-07 -0.00616732)
(4.63712e-07 -1.96866e-07 -0.00611175)
(4.63686e-07 -1.96968e-07 -0.00606366)
(4.63691e-07 -1.97087e-07 -0.00601746)
(4.63726e-07 -1.97221e-07 -0.00604701)
(4.63791e-07 -1.9737e-07 -0.00608147)
(4.63883e-07 -1.97535e-07 -0.00610129)
(4.64004e-07 -1.97713e-07 -0.00610045)
(4.6415e-07 -1.97906e-07 -0.00609614)
(4.64323e-07 -1.98111e-07 -0.00608852)
(4.64521e-07 -1.98329e-07 -0.00607792)
(4.64743e-07 -1.9856e-07 -0.00606459)
(4.64989e-07 -1.98802e-07 -0.00604891)
(4.65258e-07 -1.99056e-07 -0.00602869)
(4.65549e-07 -1.99321e-07 -0.00600314)
(4.65862e-07 -1.99597e-07 -0.00597534)
(4.66196e-07 -1.99882e-07 -0.00594538)
(4.6655e-07 -2.00178e-07 -0.00591461)
(4.66924e-07 -2.00483e-07 -0.00588614)
(4.67318e-07 -2.00797e-07 -0.00585576)
(4.6773e-07 -2.0112e-07 -0.0058239)
(4.68161e-07 -2.01451e-07 -0.00579098)
(4.68609e-07 -2.0179e-07 -0.00575721)
(4.69075e-07 -2.02138e-07 -0.00572311)
(4.69557e-07 -2.02492e-07 -0.00568865)
(4.70055e-07 -2.02854e-07 -0.00565391)
(4.70569e-07 -2.03223e-07 -0.0056192)
(4.71099e-07 -2.03599e-07 -0.00558468)
(4.71644e-07 -2.03982e-07 -0.00555079)
(4.72203e-07 -2.0437e-07 -0.00551785)
(4.72777e-07 -2.04764e-07 -0.00548609)
(4.73364e-07 -2.05164e-07 -0.00545609)
(4.73964e-07 -2.05569e-07 -0.00547001)
(4.74577e-07 -2.0598e-07 -0.00548102)
(4.75203e-07 -2.06396e-07 -0.00549488)
(4.75842e-07 -2.06817e-07 -0.00551326)
(4.76492e-07 -2.07242e-07 -0.00553718)
(4.77154e-07 -2.07672e-07 -0.0055674)
(4.77827e-07 -2.08106e-07 -0.00559951)
(4.78511e-07 -2.08544e-07 -0.00563729)
(4.79205e-07 -2.08986e-07 -0.00565772)
(4.7991e-07 -2.09432e-07 -0.00566552)
(4.80625e-07 -2.09881e-07 -0.00568181)
(4.8135e-07 -2.10333e-07 -0.00570418)
(4.82084e-07 -2.10789e-07 -0.00573645)
(4.82827e-07 -2.11248e-07 -0.00576965)
(4.83579e-07 -2.1171e-07 -0.00581948)
(4.84341e-07 -2.12173e-07 -0.00589676)
(5.5103e-07 -2.47925e-07 -0.00112106)
(5.46115e-07 -2.45061e-07 -0.00186325)
(5.4142e-07 -2.42326e-07 -0.00238734)
(5.36933e-07 -2.39733e-07 -0.0015499)
(5.32648e-07 -2.37266e-07 -0.00100531)
(5.28554e-07 -2.34923e-07 -0.000456342)
(5.24644e-07 -2.32698e-07 -0.000308134)
(5.20909e-07 -2.30585e-07 -0.000284842)
(5.17342e-07 -2.28579e-07 -0.000446766)
(5.13937e-07 -2.26675e-07 -0.000632745)
(5.10685e-07 -2.24869e-07 -0.000810503)
(5.07581e-07 -2.23156e-07 -0.00094965)
(5.04619e-07 -2.21532e-07 -0.0012431)
(5.01793e-07 -2.19993e-07 -0.00150771)
(4.99097e-07 -2.18536e-07 -0.00172243)
(4.96527e-07 -2.17156e-07 -0.00184554)
(4.94077e-07 -2.15852e-07 -0.00197299)
(4.91743e-07 -2.14619e-07 -0.00221839)
(4.89519e-07 -2.13454e-07 -0.00263096)
(4.87403e-07 -2.12355e-07 -0.00311315)
(4.85389e-07 -2.11319e-07 -0.00355513)
(4.83474e-07 -2.10343e-07 -0.00393019)
(4.81654e-07 -2.09425e-07 -0.00428284)
(4.79926e-07 -2.08562e-07 -0.00462056)
(4.78286e-07 -2.07753e-07 -0.00488995)
(4.7673e-07 -2.06994e-07 -0.00509011)
(4.75257e-07 -2.06285e-07 -0.00527611)
(4.73863e-07 -2.05622e-07 -0.00544845)
(4.72544e-07 -2.05005e-07 -0.00560758)
(4.71299e-07 -2.04432e-07 -0.00568673)
(4.70125e-07 -2.039e-07 -0.00576755)
(4.69019e-07 -2.03408e-07 -0.00590739)
(4.67979e-07 -2.02954e-07 -0.00604336)
(4.67003e-07 -2.02538e-07 -0.00617094)
(4.66088e-07 -2.02157e-07 -0.0062534)
(4.65233e-07 -2.01811e-07 -0.00634793)
(4.64435e-07 -2.01498e-07 -0.00637036)
(4.63692e-07 -2.01216e-07 -0.0062811)
(4.63003e-07 -2.00965e-07 -0.00618765)
(4.62366e-07 -2.00744e-07 -0.00610547)
(4.61779e-07 -2.0055e-07 -0.0060081)
(4.6124e-07 -2.00384e-07 -0.00596433)
(4.60748e-07 -2.00244e-07 -0.00593728)
(4.60302e-07 -2.0013e-07 -0.00590679)
(4.59899e-07 -2.0004e-07 -0.00587257)
(4.5954e-07 -1.99973e-07 -0.00583499)
(4.59221e-07 -1.99929e-07 -0.00579262)
(4.58942e-07 -1.99907e-07 -0.0057475)
(4.58702e-07 -1.99906e-07 -0.00569939)
(4.58499e-07 -1.99924e-07 -0.00564876)
(4.58333e-07 -1.99963e-07 -0.00559561)
(4.58201e-07 -2.0002e-07 -0.00553981)
(4.58104e-07 -2.00096e-07 -0.00548174)
(4.5804e-07 -2.00188e-07 -0.00542105)
(4.58008e-07 -2.00298e-07 -0.00537119)
(4.58007e-07 -2.00424e-07 -0.00531916)
(4.58036e-07 -2.00566e-07 -0.00526478)
(4.58094e-07 -2.00722e-07 -0.00520824)
(4.5818e-07 -2.00893e-07 -0.00514954)
(4.58294e-07 -2.01079e-07 -0.00514036)
(4.58435e-07 -2.01277e-07 -0.00516233)
(4.58602e-07 -2.01489e-07 -0.00517965)
(4.58794e-07 -2.01713e-07 -0.00519143)
(4.5901e-07 -2.0195e-07 -0.00518679)
(4.5925e-07 -2.02198e-07 -0.00517916)
(4.59513e-07 -2.02457e-07 -0.00516907)
(4.59798e-07 -2.02728e-07 -0.00515657)
(4.60105e-07 -2.03008e-07 -0.00514143)
(4.60433e-07 -2.03299e-07 -0.00511963)
(4.60781e-07 -2.036e-07 -0.0050893)
(4.6115e-07 -2.0391e-07 -0.00506364)
(4.61537e-07 -2.04229e-07 -0.00503699)
(4.61944e-07 -2.04556e-07 -0.00500758)
(4.62368e-07 -2.04892e-07 -0.00497659)
(4.62811e-07 -2.05236e-07 -0.00494485)
(4.63271e-07 -2.05588e-07 -0.0049127)
(4.63747e-07 -2.05947e-07 -0.00487034)
(4.6424e-07 -2.06313e-07 -0.00482699)
(4.64748e-07 -2.06686e-07 -0.00478364)
(4.65271e-07 -2.07066e-07 -0.0047407)
(4.65811e-07 -2.07453e-07 -0.00469699)
(4.66364e-07 -2.07845e-07 -0.00462451)
(4.66931e-07 -2.08243e-07 -0.00454983)
(4.67512e-07 -2.08647e-07 -0.00447826)
(4.68105e-07 -2.09055e-07 -0.00443436)
(4.68713e-07 -2.0947e-07 -0.00443937)
(4.69334e-07 -2.0989e-07 -0.00445463)
(4.69966e-07 -2.10314e-07 -0.00442322)
(4.7061e-07 -2.10743e-07 -0.00440309)
(4.71266e-07 -2.11177e-07 -0.00441833)
(4.71932e-07 -2.11614e-07 -0.00443847)
(4.7261e-07 -2.12056e-07 -0.00446687)
(4.73298e-07 -2.12501e-07 -0.00450414)
(4.73997e-07 -2.1295e-07 -0.00455043)
(4.74705e-07 -2.13403e-07 -0.00460616)
(4.75424e-07 -2.13859e-07 -0.00462414)
(4.76151e-07 -2.14318e-07 -0.00462239)
(4.76888e-07 -2.1478e-07 -0.00461459)
(4.77633e-07 -2.15245e-07 -0.00462406)
(4.78388e-07 -2.15711e-07 -0.00465875)
(5.46203e-07 -2.49785e-07 -0.00276823)
(5.41249e-07 -2.46993e-07 -0.00356851)
(5.36515e-07 -2.44326e-07 -0.00307925)
(5.31992e-07 -2.41797e-07 -0.00209438)
(5.27672e-07 -2.39393e-07 -0.00133541)
(5.23545e-07 -2.37109e-07 -0.00074934)
(5.19604e-07 -2.3494e-07 -0.000417299)
(5.15839e-07 -2.32881e-07 -0.000232192)
(5.12244e-07 -2.30926e-07 -0.000157665)
(5.08811e-07 -2.29071e-07 -0.000205587)
(5.05534e-07 -2.27311e-07 -0.000334789)
(5.02406e-07 -2.25642e-07 -0.000489692)
(4.9942e-07 -2.24061e-07 -0.00078254)
(4.96572e-07 -2.22563e-07 -0.00103075)
(4.93855e-07 -2.21144e-07 -0.00123712)
(4.91264e-07 -2.19802e-07 -0.00161885)
(4.88795e-07 -2.18533e-07 -0.00203096)
(4.86442e-07 -2.17334e-07 -0.00242106)
(4.84201e-07 -2.16202e-07 -0.00281281)
(4.82067e-07 -2.15134e-07 -0.0031987)
(4.80037e-07 -2.14128e-07 -0.00352715)
(4.78107e-07 -2.1318e-07 -0.0038842)
(4.76272e-07 -2.12289e-07 -0.00427075)
(4.74529e-07 -2.11453e-07 -0.00460283)
(4.72875e-07 -2.10668e-07 -0.00483408)
(4.71307e-07 -2.09934e-07 -0.00503124)
(4.69821e-07 -2.09247e-07 -0.0052144)
(4.68414e-07 -2.08607e-07 -0.00538405)
(4.67084e-07 -2.08011e-07 -0.00554062)
(4.65828e-07 -2.07458e-07 -0.00569862)
(4.64642e-07 -2.06945e-07 -0.00583456)
(4.63526e-07 -2.06472e-07 -0.00589247)
(4.62475e-07 -2.06036e-07 -0.00566126)
(4.61489e-07 -2.05637e-07 -0.00560614)
(4.60565e-07 -2.05273e-07 -0.00561315)
(4.597e-07 -2.04943e-07 -0.00561531)
(4.58893e-07 -2.04645e-07 -0.00559773)
(4.58141e-07 -2.04378e-07 -0.00551529)
(4.57444e-07 -2.04141e-07 -0.00539739)
(4.56798e-07 -2.03933e-07 -0.00531022)
(4.56203e-07 -2.03753e-07 -0.0052824)
(4.55657e-07 -2.03599e-07 -0.0052512)
(4.55157e-07 -2.03471e-07 -0.00521647)
(4.54703e-07 -2.03368e-07 -0.00517864)
(4.54293e-07 -2.0329e-07 -0.0051373)
(4.53926e-07 -2.03234e-07 -0.00509307)
(4.536e-07 -2.032e-07 -0.0050479)
(4.53315e-07 -2.03188e-07 -0.00500042)
(4.53068e-07 -2.03196e-07 -0.00495016)
(4.52858e-07 -2.03224e-07 -0.00489732)
(4.52685e-07 -2.03272e-07 -0.00484209)
(4.52547e-07 -2.03338e-07 -0.00478426)
(4.52443e-07 -2.03422e-07 -0.00472409)
(4.52373e-07 -2.03523e-07 -0.00466482)
(4.52334e-07 -2.0364e-07 -0.00460494)
(4.52327e-07 -2.03774e-07 -0.00454177)
(4.5235e-07 -2.03923e-07 -0.00447644)
(4.52402e-07 -2.04086e-07 -0.0044088)
(4.52482e-07 -2.04265e-07 -0.00433922)
(4.5259e-07 -2.04457e-07 -0.00426751)
(4.52725e-07 -2.04662e-07 -0.00419361)
(4.52886e-07 -2.0488e-07 -0.00411608)
(4.53071e-07 -2.0511e-07 -0.00403588)
(4.53282e-07 -2.05353e-07 -0.00402776)
(4.53516e-07 -2.05607e-07 -0.00400657)
(4.53773e-07 -2.05872e-07 -0.00398242)
(4.54052e-07 -2.06148e-07 -0.00395546)
(4.54353e-07 -2.06434e-07 -0.00392548)
(4.54676e-07 -2.0673e-07 -0.00388454)
(4.55018e-07 -2.07035e-07 -0.00383908)
(4.55381e-07 -2.0735e-07 -0.00379513)
(4.55763e-07 -2.07674e-07 -0.00375054)
(4.56163e-07 -2.08006e-07 -0.00370524)
(4.56582e-07 -2.08347e-07 -0.00366657)
(4.57018e-07 -2.08695e-07 -0.00359602)
(4.57472e-07 -2.09052e-07 -0.00353212)
(4.57942e-07 -2.09415e-07 -0.00346961)
(4.58429e-07 -2.09786e-07 -0.00339504)
(4.5893e-07 -2.10163e-07 -0.00329811)
(4.5945e-07 -2.10547e-07 -0.00319975)
(4.59984e-07 -2.10937e-07 -0.00310312)
(4.6053e-07 -2.11334e-07 -0.00300796)
(4.61091e-07 -2.11736e-07 -0.00291557)
(4.61666e-07 -2.12145e-07 -0.00282597)
(4.62253e-07 -2.12557e-07 -0.00274138)
(4.62856e-07 -2.12973e-07 -0.00272007)
(4.63472e-07 -2.13397e-07 -0.00271684)
(4.64097e-07 -2.13825e-07 -0.00271178)
(4.64734e-07 -2.14258e-07 -0.0026941)
(4.65383e-07 -2.14695e-07 -0.00268306)
(4.66044e-07 -2.15136e-07 -0.00267889)
(4.66715e-07 -2.15581e-07 -0.00268363)
(4.67397e-07 -2.1603e-07 -0.00269599)
(4.68089e-07 -2.16482e-07 -0.00270731)
(4.68791e-07 -2.16938e-07 -0.0027186)
(4.69503e-07 -2.17397e-07 -0.00273358)
(4.70224e-07 -2.1786e-07 -0.00275902)
(4.70955e-07 -2.18325e-07 -0.00277153)
(4.71693e-07 -2.18794e-07 -0.002807)
(4.72442e-07 -2.19263e-07 -0.0028648)
(5.41345e-07 -2.51631e-07 -0.00401941)
(5.36352e-07 -2.48912e-07 -0.00396106)
(5.31581e-07 -2.46314e-07 -0.00364863)
(5.27023e-07 -2.43852e-07 -0.0025537)
(5.22671e-07 -2.4151e-07 -0.00170018)
(5.18512e-07 -2.39287e-07 -0.00104605)
(5.14541e-07 -2.37175e-07 -0.000639994)
(5.10748e-07 -2.3517e-07 -0.000484191)
(5.07126e-07 -2.33267e-07 -0.000356498)
(5.03668e-07 -2.31462e-07 -0.000376403)
(5.00366e-07 -2.2975e-07 -0.000419606)
(4.97214e-07 -2.28126e-07 -0.000463103)
(4.94207e-07 -2.26588e-07 -0.000602232)
(4.91337e-07 -2.25132e-07 -0.000957333)
(4.886e-07 -2.23753e-07 -0.00142411)
(4.8599e-07 -2.22448e-07 -0.00192001)
(4.83502e-07 -2.21215e-07 -0.00235472)
(4.81132e-07 -2.20051e-07 -0.00269121)
(4.78874e-07 -2.18952e-07 -0.00305662)
(4.76724e-07 -2.17915e-07 -0.00340196)
(4.74679e-07 -2.16939e-07 -0.00372645)
(4.72733e-07 -2.16021e-07 -0.00407759)
(4.70884e-07 -2.15158e-07 -0.00441871)
(4.69128e-07 -2.14348e-07 -0.00473189)
(4.67461e-07 -2.13589e-07 -0.00494071)
(4.6588e-07 -2.12879e-07 -0.00507783)
(4.64381e-07 -2.12216e-07 -0.00520468)
(4.62963e-07 -2.11598e-07 -0.00532385)
(4.61622e-07 -2.11023e-07 -0.00512311)
(4.60354e-07 -2.10491e-07 -0.00491718)
(4.59159e-07 -2.09998e-07 -0.00470915)
(4.58032e-07 -2.09543e-07 -0.0047104)
(4.56972e-07 -2.09126e-07 -0.00472326)
(4.55976e-07 -2.08745e-07 -0.00473092)
(4.55042e-07 -2.08397e-07 -0.00473366)
(4.54169e-07 -2.08083e-07 -0.00473172)
(4.53353e-07 -2.078e-07 -0.00471569)
(4.52593e-07 -2.07548e-07 -0.00466788)
(4.51887e-07 -2.07326e-07 -0.00464764)
(4.51233e-07 -2.07131e-07 -0.00460739)
(4.5063e-07 -2.06964e-07 -0.00457358)
(4.50076e-07 -2.06824e-07 -0.00452965)
(4.49569e-07 -2.06708e-07 -0.00448217)
(4.49108e-07 -2.06617e-07 -0.00443172)
(4.48691e-07 -2.0655e-07 -0.00437789)
(4.48317e-07 -2.06505e-07 -0.00432123)
(4.47984e-07 -2.06482e-07 -0.00426158)
(4.47691e-07 -2.0648e-07 -0.0041983)
(4.47438e-07 -2.06498e-07 -0.00413217)
(4.47222e-07 -2.06535e-07 -0.00405705)
(4.47042e-07 -2.06592e-07 -0.00397836)
(4.46898e-07 -2.06667e-07 -0.00389613)
(4.46788e-07 -2.06759e-07 -0.00380967)
(4.46711e-07 -2.06868e-07 -0.00374045)