/*--------------------------------*- C++ -*----------------------------------*\
| =========                 |                                                 |
| \\      /  F ield         | foam-extend: Open Source CFD                    |
|  \\    /   O peration     | Version:     4.1                                |
|   \\  /    A nd           | Web:         http://www.foam-extend.org         |
|    \\/     M anipulation  |                                                 |
\*---------------------------------------------------------------------------*/
FoamFile
{
    version     2.0;
    format      ascii;
    class       volScalarField;
    location    "1";
    object      epsilonEq;
}
// * * * * * * * * * * * * * * * * * * * * * * * * * * * * * * * * * * * * * //

dimensions      [0 0 0 0 0 0 0];

internalField   nonuniform List<scalar> 
100000
(
0.0242065
0.0805488
0.111966
0.0899513
0.0746069
0.0811141
0.117851
0.167911
0.125434
0.0512543
0.0266901
0.0316898
0.0240883
0.0220739
0.0172976
0.0243215
0.025313
0.0229655
0.0208497
0.016115
0.0127078
0.0133148
0.0155659
0.0139652
0.00982075
0.00868955
0.0163527
0.020261
0.0180855
0.0182439
0.0223865
0.0283337
0.0358767
0.0436123
0.0508264
0.0564378
0.0630889
0.068991
0.0739108
0.0789
0.0803813
0.0754655
0.0706902
0.0674256
0.0641347
0.0656116
0.0650934
0.0649529
0.0651464
0.0654708
0.0594649
0.0481628
0.0382661
0.0345746
0.0342202
0.0317363
0.0305759
0.0323956
0.0378514
0.0419463
0.0470531
0.0524409
0.0576253
0.0620726
0.0662561
0.0703108
0.0742565
0.0780751
0.079319
0.079264
0.0792275
0.0792068
0.0792005
0.0792108
0.0792355
0.0792901
0.0793732
0.0794808
0.0796145
0.0797712
0.0799705
0.0802151
0.0804913
0.0808166
0.0834071
0.0853035
0.0872696
0.0891636
0.0906071
0.0922337
0.0940294
0.0961105
0.0986162
0.101265
0.103921
0.107338
0.111842
0.11736
0.125612
0.137526
0.0612857
0.131364
0.132708
0.113455
0.115043
0.137083
0.151448
0.0902445
0.0299188
0.0437861
0.0555359
0.048781
0.020836
0.0181651
0.023282
0.0300597
0.0348653
0.0345126
0.0324203
0.029184
0.0259814
0.0217203
0.0144186
0.00727183
0.00930545
0.0191516
0.0316033
0.0438731
0.0491945
0.0552103
0.0622262
0.0706549
0.0807258
0.0866966
0.0908816
0.0910673
0.0925779
0.0945106
0.0958179
0.0979343
0.100156
0.102249
0.098709
0.0937738
0.0875227
0.0793998
0.0706148
0.0651256
0.0595478
0.053853
0.0503411
0.0478029
0.0423531
0.0405731
0.0461887
0.0528351
0.0582597
0.0635819
0.0695754
0.0742422
0.0749638
0.0756489
0.0762973
0.0769177
0.0775066
0.0780632
0.078597
0.079103
0.0793633
0.0796472
0.0796334
0.0797176
0.0798192
0.0799372
0.0800749
0.0802354
0.080422
0.0806355
0.0808763
0.0811494
0.0814541
0.0817948
0.0821812
0.0826815
0.0847407
0.0855102
0.0869689
0.0890575
0.0913352
0.0924908
0.093703
0.0956882
0.0979781
0.100128
0.102173
0.104383
0.105878
0.106824
0.108136
0.102736
0.132463
0.159398
0.151548
0.136185
0.15205
0.113086
0.0434941
0.028491
0.0440848
0.0432416
0.0500938
0.071275
0.0666736
0.0464495
0.0299688
0.0212547
0.0127258
0.00764798
0.0115504
0.0149627
0.0161006
0.0243429
0.0414341
0.0565568
0.072149
0.079646
0.0890011
0.101866
0.105824
0.10634
0.103413
0.100993
0.0996902
0.101215
0.104987
0.105014
0.102971
0.104617
0.106633
0.10902
0.109741
0.109505
0.108977
0.113168
0.117159
0.108271
0.0963699
0.0850315
0.0743
0.0641826
0.0610224
0.0640294
0.0697535
0.0710155
0.0727966
0.0739703
0.0739502
0.0739484
0.0739529
0.0739745
0.0740088
0.0740495
0.0741046
0.0747213
0.0754526
0.0761606
0.0768364
0.0774964
0.0780521
0.0784812
0.079111
0.0797292
0.0803405
0.0809453
0.0815584
0.0821818
0.0828142
0.0831468
0.0833708
0.0836217
0.0839093
0.0842262
0.0845821
0.0834679
0.0823201
0.0807376
0.0791907
0.0779949
0.0776646
0.0769466
0.0753616
0.0733034
0.0711235
0.069043
0.06738
0.0650403
0.0617524
0.0578614
0.0541271
0.0431265
0.192768
0.178341
0.170243
0.161667
0.0894807
0.00952718
0.033129
0.0343998
0.0376505
0.0417559
0.0452968
0.0579713
0.0706826
0.0721895
0.0752792
0.0731346
0.067642
0.0565824
0.0442663
0.0248044
0.0129207
0.0329106
0.051231
0.0655028
0.0722007
0.0702591
0.0730981
0.0771323
0.0852586
0.0910365
0.0958287
0.099579
0.102563
0.106405
0.109571
0.111114
0.104723
0.0998763
0.104434
0.114008
0.122515
0.117736
0.111877
0.106237
0.100235
0.0954115
0.0915446
0.0870045
0.0837194
0.0796719
0.0756604
0.0713452
0.0678246
0.065251
0.0631152
0.0595524
0.0596462
0.0600841
0.0599288
0.058899
0.0578105
0.0566525
0.0554457
0.0541947
0.0528987
0.0514634
0.0498437
0.0481923
0.0465158
0.0445708
0.0430617
0.0414021
0.039707
0.0379815
0.0362288
0.0344613
0.03264
0.0307925
0.0289622
0.0271317
0.0252975
0.0234651
0.0214709
0.019616
0.0173624
0.014584
0.0119001
0.00967138
0.00778942
0.00565388
0.00395276
0.0052135
0.00858316
0.0129333
0.0171959
0.0215979
0.0256866
0.0303583
0.0358356
0.0428443
0.229032
0.238101
0.217301
0.0988722
0.0297516
0.0450787
0.0427152
0.046906
0.0471288
0.0498284
0.0496745
0.0601133
0.0662098
0.064578
0.0652121
0.0736516
0.0804759
0.0776157
0.0642708
0.0498359
0.0428023
0.0426647
0.0410449
0.0388985
0.0316392
0.0266184
0.0273982
0.0271148
0.0301695
0.0319735
0.038138
0.0470344
0.054858
0.0596741
0.062012
0.0665278
0.0656275
0.0569474
0.0529855
0.0485035
0.0337598
0.0273941
0.0219569
0.0105717
0.00394461
0.00535508
0.00473117
0.00486787
0.00549372
0.00629391
0.00711553
0.00767155
0.00611871
0.00643448
0.00856516
0.011079
0.0151927
0.0185992
0.0219142
0.0230622
0.0227368
0.0225662
0.0225905
0.0232963
0.024103
0.0249916
0.02594
0.0269418
0.0281839
0.0300224
0.0318304
0.0336576
0.0355625
0.03751
0.0394781
0.0414667
0.0438851
0.0460339
0.0480754
0.0501296
0.0522639
0.0556152
0.0591091
0.0608131
0.0636117
0.0647919
0.0657493
0.0687393
0.071511
0.0727471
0.0729203
0.072563
0.0722243
0.072028
0.0719604
0.0735296
0.0758081
0.0781901
0.0795068
0.0807073
0.239469
0.271772
0.17257
0.0983958
0.0658642
0.0404421
0.0192006
0.0286511
0.047212
0.0583025
0.0611044
0.0645733
0.0677799
0.0673019
0.0605717
0.0449353
0.0374264
0.042402
0.0519905
0.05332
0.0472208
0.0421385
0.0398893
0.0351159
0.0279107
0.0233472
0.0219048
0.0205343
0.0149211
0.00930264
0.0129824
0.0159987
0.0213014
0.0247594
0.0262699
0.0275483
0.026824
0.0321124
0.0454261
0.0623653
0.0746853
0.0735896
0.0714554
0.0713431
0.0712624
0.0711469
0.0709164
0.0706897
0.0704792
0.0703038
0.0701411
0.0700106
0.0699058
0.0695859
0.069654
0.0700308
0.0740506
0.0783541
0.0818192
0.084481
0.0871686
0.0897977
0.0923785
0.0915809
0.0912728
0.0908998
0.0904206
0.0899871
0.0899565
0.0900706
0.0902027
0.090293
0.0903519
0.0900801
0.0911157
0.0918704
0.0925495
0.0936794
0.0957136
0.0977939
0.099903
0.102001
0.103876
0.105569
0.10874
0.109421
0.109503
0.109873
0.110875
0.111911
0.11274
0.11345
0.113209
0.112544
0.112081
0.111705
0.111388
0.111593
0.111594
0.111362
0.217002
0.153036
0.124178
0.123349
0.0917678
0.0670693
0.0376566
0.0203222
0.00633866
0.0199382
0.030668
0.0411274
0.0522011
0.0442057
0.0388353
0.0459455
0.0521467
0.0539549
0.0520735
0.0448798
0.0408811
0.0437926
0.0422463
0.0331586
0.024878
0.021945
0.0207761
0.0201571
0.0331794
0.046929
0.0607109
0.0676212
0.0750556
0.0793403
0.0830638
0.0876871
0.0892974
0.0870175
0.0825933
0.0792239
0.0751339
0.0746309
0.0751813
0.0757017
0.0761987
0.0766539
0.0770105
0.0774149
0.0778088
0.0785137
0.079262
0.0800436
0.0808927
0.0807752
0.0790974
0.0773919
0.0756225
0.0738104
0.0719549
0.0724217
0.0758909
0.0819386
0.0871131
0.0914965
0.0958648
0.10007
0.104127
0.108051
0.111656
0.114828
0.118157
0.120375
0.122423
0.125345
0.128373
0.131215
0.133884
0.136591
0.139357
0.140153
0.146038
0.148034
0.149825
0.151118
0.148783
0.151832
0.157014
0.156063
0.155353
0.155833
0.156564
0.157393
0.158325
0.159391
0.160592
0.160302
0.158861
0.157812
0.157039
0.15692
0.115325
0.0572847
0.113614
0.133813
0.0978013
0.0731015
0.0452835
0.04005
0.0324513
0.0277409
0.0209524
0.0234864
0.0388432
0.0628812
0.0807811
0.0854994
0.0835907
0.0844706
0.0810853
0.0746884
0.0718074
0.0674928
0.0609223
0.0526575
0.027302
0.0174185
0.0350667
0.0555685
0.0703525
0.0793813
0.0846134
0.0874924
0.0743776
0.0710148
0.0711565
0.0715406
0.0724821
0.0682353
0.0615472
0.0581456
0.0563398
0.0525877
0.0513871
0.0508054
0.0500893
0.0492614
0.0487468
0.0495442
0.0524597
0.0564567
0.0602744
0.0639429
0.0672563
0.0695358
0.0717282
0.0739429
0.0760569
0.0780652
0.0799969
0.0819361
0.0842139
0.0862805
0.0875891
0.0918833
0.0956068
0.0991631
0.102567
0.105807
0.108543
0.112346
0.116944
0.120968
0.124627
0.128541
0.130923
0.133545
0.136174
0.13826
0.139561
0.140731
0.141769
0.142795
0.14377
0.144723
0.14578
0.148718
0.149846
0.150895
0.1513
0.151819
0.152451
0.150245
0.145383
0.140631
0.134717
0.126941
0.119938
0.112366
0.106425
0.102104
0.0475213
0.0498975
0.089593
0.148462
0.113463
0.0754934
0.0474891
0.0412616
0.0378125
0.0323649
0.0555202
0.0813605
0.100031
0.107846
0.109539
0.11003
0.110554
0.113081
0.113196
0.110707
0.108966
0.0849127
0.0518555
0.00710004
0.03487
0.0529992
0.0581112
0.0583937
0.0424992
0.028874
0.0157016
0.0146961
0.0169806
0.0186159
0.0208189
0.0247034
0.0278185
0.0296123
0.0363857
0.0409242
0.0440102
0.0454655
0.0469383
0.0495997
0.0523363
0.0552314
0.0587583
0.0624713
0.0662486
0.0691643
0.0715817
0.0738137
0.0756322
0.077466
0.0814593
0.0854615
0.0894237
0.0933331
0.0971933
0.101011
0.103233
0.103523
0.104453
0.105585
0.106727
0.108121
0.110213
0.11227
0.114506
0.116915
0.118941
0.121691
0.123215
0.123871
0.124337
0.1248
0.120973
0.111714
0.102473
0.0926025
0.0829671
0.0735807
0.0644718
0.0561448
0.048323
0.039733
0.0322399
0.0253352
0.0182111
0.00965926
0.00129227
0.0132446
0.0224976
0.0301374
0.039196
0.0469734
0.0527947
0.0592266
0.0648387
0.0827089
0.0469983
0.0442301
0.0692377
0.135729
0.12906
0.0862702
0.0554121
0.0427342
0.0499189
0.0723874
0.102535
0.112685
0.110667
0.10734
0.109804
0.108973
0.106854
0.10534
0.0905956
0.0612842
0.019714
0.0305472
0.0680289
0.0873542
0.0746689
0.0532978
0.0374426
0.02409
0.0234775
0.0294244
0.0339009
0.0380941
0.0429195
0.047776
0.0540058
0.060093
0.0642395
0.0705444
0.0786071
0.0822662
0.0875144
0.0925798
0.0952585
0.0973184
0.0996825
0.10342
0.106797
0.108653
0.108332
0.107397
0.106692
0.106005
0.10519
0.104284
0.105216
0.10634
0.107449
0.10853
0.109539
0.110527
0.111634
0.112812
0.114744
0.116518
0.108201
0.100109
0.0920827
0.0839695
0.075963
0.0668616
0.0571277
0.0474726
0.0381646
0.0297507
0.0226208
0.0127057
0.0046813
0.0165419
0.0245804
0.0334706
0.0427001
0.0518396
0.0611611
0.0729853
0.0846515
0.0978537
0.108753
0.119129
0.129597
0.134849
0.138992
0.139801
0.137096
0.134447
0.130923
0.126347
0.122055
0.117572
0.113602
0.106216
0.038328
0.0386141
0.0605404
0.11553
0.130532
0.0988835
0.0698759
0.0686854
0.0909339
0.116784
0.117707
0.115155
0.111967
0.103816
0.103008
0.085703
0.0588075
0.0415291
0.0609158
0.0975823
0.129801
0.125408
0.113707
0.0984272
0.0861605
0.0779276
0.0833948
0.090412
0.0976668
0.104343
0.110288
0.116009
0.119968
0.124675
0.128454
0.130597
0.132425
0.133975
0.132057
0.129878
0.128017
0.127413
0.125827
0.123092
0.120371
0.117512
0.115061
0.114615
0.114536
0.114825
0.113437
0.103487
0.0931994
0.0840332
0.0755064
0.0666671
0.0535772
0.0491889
0.0410607
0.0338314
0.027271
0.0225505
0.0207981
0.0114602
0.019532
0.0290662
0.0393782
0.0496659
0.0598859
0.0700147
0.0800478
0.0900415
0.0991035
0.10872
0.115853
0.121522
0.123963
0.12329
0.12265
0.12204
0.121366
0.120692
0.120297
0.119557
0.118801
0.118357
0.115668
0.112294
0.107416
0.101488
0.0966302
0.0918193
0.0871232
0.0826447
0.0784528
0.0742621
0.0700845
0.0657761
0.0619614
0.0589497
0.032199
0.0311006
0.0544924
0.0915594
0.101182
0.0926062
0.0819872
0.103199
0.116042
0.108599
0.104936
0.0962491
0.0872546
0.0477552
0.0427261
0.0698879
0.115995
0.164988
0.192018
0.181744
0.164113
0.146492
0.126825
0.124771
0.130194
0.135702
0.141207
0.145155
0.147698
0.145323
0.144463
0.144801
0.14668
0.147872
0.14526
0.133825
0.122484
0.111054
0.0978751
0.0862848
0.0754007
0.0687295
0.0610449
0.0527856
0.0440878
0.0345314
0.0267264
0.0210374
0.0183443
0.0176581
0.0161093
0.0257825
0.0355224
0.0450119
0.0534924
0.0614817
0.0691099
0.075971
0.0823353
0.0886358
0.0948714
0.101
0.107923
0.114437
0.11059
0.107059
0.103806
0.100519
0.0971951
0.0938454
0.0923017
0.0925582
0.0924324
0.0910094
0.0899441
0.0891225
0.0885248
0.0879972
0.0871216
0.0857564
0.0840749
0.0823655
0.0815267
0.0781242
0.0749652
0.0700054
0.0645532
0.059295
0.0543775
0.0543799
0.0547368
0.0552018
0.0561773
0.0572715
0.0571952
0.0559219
0.0546797
0.0533818
0.0521825
0.0512501
0.0346082
0.0299022
0.0719653
0.0995805
0.0773168
0.0432025
0.0647782
0.0790815
0.0759456
0.0676645
0.0501829
0.0322922
0.0646597
0.119026
0.163314
0.192622
0.191392
0.172526
0.149408
0.12822
0.109169
0.102747
0.0850251
0.0745951
0.0664685
0.06188
0.0571544
0.0519027
0.0464395
0.041268
0.0367275
0.0333174
0.0287551
0.0218564
0.00909429
0.00838119
0.00771434
0.00951264
0.0128444
0.015598
0.0171947
0.0200847
0.0230738
0.0276154
0.0339799
0.0403535
0.0477525
0.0566835
0.0658785
0.0750585
0.0810982
0.0784576
0.075334
0.0726196
0.0698622
0.0671348
0.0642985
0.0613502
0.0586108
0.0570642
0.0554464
0.0534972
0.0503541
0.0471331
0.0471319
0.0474114
0.0476096
0.0477335
0.0477851
0.0478215
0.0481933
0.0484235
0.0476609
0.0462447
0.0473802
0.0512195
0.0540805
0.0544695
0.0548712
0.0552853
0.0557143
0.0564346
0.0574646
0.0586861
0.0598765
0.0606956
0.0615093
0.0620455
0.0613293
0.0599251
0.0584779
0.0569184
0.0553957
0.0534143
0.0517666
0.0504634
0.0492164
0.0479265
0.0460873
0.0433023
0.0408299
0.0681872
0.0901406
0.0955217
0.0556912
0.0662026
0.12079
0.12796
0.118613
0.0496208
0.0248969
0.0786961
0.118035
0.113301
0.115697
0.103555
0.0833835
0.0553069
0.0295472
0.0209755
0.0137739
0.0131889
0.0167248
0.0227757
0.0318362
0.041981
0.0491379
0.0536619
0.058648
0.0635582
0.0636871
0.063891
0.0655708
0.0669319
0.0667058
0.0603128
0.053663
0.0469445
0.0402065
0.0333676
0.0274979
0.0240322
0.0197568
0.015697
0.012799
0.0116147
0.0103073
0.00891692
0.0081908
0.00561197
0.00306208
0.000666938
0.0036067
0.0065158
0.00683116
0.00664053
0.00625567
0.00326332
0.00289949
0.00730129
0.0116173
0.0159236
0.0204295
0.0250688
0.030275
0.0341447
0.0371374
0.0408562
0.0447775
0.0486916
0.0507788
0.0510853
0.0515203
0.052435
0.0532885
0.0544721
0.0554478
0.0565398
0.0577803
0.0590274
0.0602841
0.0609473
0.0600761
0.05913
0.0581592
0.057183
0.0560806
0.0547794
0.0535859
0.0523983
0.0507775
0.0481296
0.04544
0.0426513
0.0386951
0.0347364
0.0308048
0.0265242
0.021718
0.0185767
0.0434492
0.090318
0.0966112
0.0612476
0.0885405
0.163949
0.194655
0.139226
0.0830062
0.0830804
0.0644775
0.0587981
0.0545566
0.0492742
0.0395287
0.044721
0.0516593
0.0444012
0.0411956
0.0382296
0.0361455
0.0383246
0.0391146
0.039151
0.0413919
0.0466387
0.0466078
0.0450619
0.0426135
0.0362534
0.0318488
0.0272098
0.0224096
0.0174803
0.0100122
0.00733171
0.00691413
0.00648974
0.00608152
0.00523121
0.00364291
0.00270384
0.00200756
0.00178311
0.00654301
0.0120414
0.0133858
0.0141184
0.0139896
0.0135647
0.0110177
0.00577068
0.00105754
0.0060763
0.00973388
0.0135172
0.0178222
0.0228687
0.0277636
0.0313675
0.0349825
0.0388487
0.0438027
0.0487609
0.050474
0.0517051
0.0531267
0.0547149
0.0561229
0.0574803
0.0588855
0.0599441
0.0610089
0.0620835
0.0628985
0.0613369
0.0600826
0.0589511
0.0577814
0.056563
0.055149
0.0537453
0.0518442
0.0494813
0.0470832
0.0445395
0.0420138
0.0397791
0.0376481
0.0341367
0.0302467
0.0263955
0.0228094
0.0176614
0.0112768
0.00521161
0.00483477
0.0108749
0.0165392
0.0199789
0.0456307
0.110503
0.0674782
0.100815
0.178839
0.15365
0.0376316
0.0759598
0.108642
0.083185
0.0608535
0.0523307
0.036263
0.0404653
0.0664509
0.0707616
0.0688689
0.0600792
0.0495735
0.0466624
0.0446261
0.0427906
0.0371822
0.0312309
0.0229649
0.013421
0.00788179
0.00674002
0.00969029
0.0137117
0.0133355
0.0133031
0.0128367
0.0128143
0.0107194
0.00749508
0.00665347
0.00667575
0.00674433
0.0066576
0.00636722
0.00615845
0.00599654
0.00644143
0.00476622
0.00311814
0.00387712
0.00406231
0.00626533
0.0109928
0.0178979
0.0250883
0.0316281
0.0365386
0.041616
0.0471018
0.0513192
0.0536394
0.0545491
0.0552378
0.0559145
0.0566106
0.0573253
0.0581355
0.0591579
0.0601893
0.0616407
0.062354
0.0620152
0.061503
0.0608799
0.0602319
0.0596671
0.0583824
0.0564475
0.054059
0.051387
0.0488717
0.04629
0.0437269
0.0412436
0.0392515
0.0369116
0.0334512
0.030097
0.025432
0.019185
0.0127365
0.0056963
0.0016431
0.00737683
0.0126584
0.0183749
0.0249306
0.0287257
0.0309888
0.0332585
0.0355364
0.0375998
0.0375819
0.0617036
0.0939991
0.0972181
0.182263
0.120294
0.0324798
0.126291
0.118337
0.108399
0.0819109
0.0384354
0.0167434
0.044136
0.057048
0.0566831
0.0565471
0.0592917
0.0552865
0.0456023
0.0370289
0.0281406
0.0174643
0.0105101
0.00442896
0.00632821
0.0118429
0.0141383
0.0161867
0.0171209
0.013672
0.01158
0.0124668
0.0135342
0.0131838
0.0124594
0.00972144
0.00712591
0.00676269
0.00982964
0.0141329
0.0176357
0.0211757
0.0251062
0.0284331
0.0327382
0.0376031
0.0401114
0.0426028
0.0462641
0.0503664
0.0535165
0.0541676
0.0551349
0.0561892
0.0580343
0.0594438
0.0610855
0.0632806
0.0637517
0.0636946
0.0636143
0.0625865
0.0615355
0.0595293
0.0575016
0.0554135
0.0533311
0.0509719
0.0485633
0.0464094
0.0442616
0.0424617
0.0404473
0.0383323
0.0364617
0.035091
0.0324182
0.027771
0.0223238
0.0170405
0.0116577
0.00646359
0.00281361
0.0065852
0.0117916
0.017972
0.0237324
0.0283818
0.0319822
0.0342805
0.0365733
0.038857
0.0411285
0.0419818
0.0410155
0.0392288
0.0368568
0.0343768
0.0320005
0.027466
0.0613979
0.0666839
0.170071
0.0821005
0.0756147
0.143945
0.127342
0.124591
0.10439
0.0449269
0.00706912
0.0217335
0.0289033
0.0321999
0.0329829
0.0321119
0.026493
0.023388
0.0220785
0.0145753
0.00864921
0.0134072
0.014051
0.0121736
0.00963679
0.0103578
0.0114675
0.0126514
0.0111838
0.00911149
0.00762181
0.00688876
0.00993208
0.0152084
0.0229474
0.0295277
0.0336453
0.0380145
0.0432206
0.048621
0.0550391
0.0591112
0.0624733
0.0661862
0.0662326
0.0654558
0.0653292
0.0633722
0.0604604
0.0598641
0.059792
0.0597706
0.0591207
0.0573951
0.0554595
0.0536537
0.0531319
0.0521483
0.0509204
0.0499862
0.0487499
0.0464723
0.0441731
0.0417802
0.0394575
0.0371408
0.0343884
0.0309845
0.0283727
0.023647
0.0183374
0.0132789
0.00899336
0.00712793
0.007781
0.00977501
0.0130311
0.0181174
0.0229308
0.0272717
0.0313078
0.034786
0.0377623
0.0394585
0.0412096
0.0421618
0.0408787
0.0383523
0.0358924
0.0336222
0.0313679
0.0291314
0.0269197
0.024745
0.0222197
0.0196324
0.0175782
0.0158745
0.0146453
0.011859
0.086816
0.0998136
0.021474
0.104681
0.161378
0.147869
0.134172
0.106072
0.0679867
0.0428621
0.0454899
0.0381449
0.0266914
0.0182773
0.00921139
0.00931896
0.0113716
0.00954052
0.010311
0.0142043
0.0174402
0.00599895
0.00539738
0.00289953
0.00322185
0.0103933
0.0138203
0.0156489
0.0173645
0.0202488
0.0254243
0.030519
0.035465
0.0403176
0.0447352
0.0495082
0.0531296
0.0536265
0.0519904
0.0516567
0.0528245
0.0532088
0.0533816
0.0530583
0.0525213
0.051242
0.0499219
0.0490822
0.0463532
0.0430986
0.0411405
0.0394648
0.0375441
0.0354956
0.0334727
0.0313606
0.0290644
0.0265477
0.0247603
0.0232174
0.0192268
0.0154194
0.0124585
0.0103549
0.00852071
0.00789319
0.00875915
0.0117317
0.0150697
0.0196058
0.0241731
0.0286241
0.0331204
0.0376598
0.0414326
0.044767
0.047022
0.0459355
0.0437774
0.0415608
0.0387479
0.035772
0.0328952
0.0300518
0.0274109
0.0246345
0.0212523
0.0183153
0.0166252
0.0151144
0.0153775
0.0157161
0.0160419
0.0163561
0.0165585
0.017641
0.019481
0.0216306
0.0243652
0.0261704
0.0641274
0.0932133
0.134864
0.149253
0.169264
0.155806
0.121546
0.0823788
0.060259
0.060323
0.065709
0.0729402
0.0674096
0.0563478
0.0425929
0.0303215
0.0149254
0.00305464
0.00627347
0.014273
0.0208368
0.0181127
0.0158158
0.0155715
0.0139245
0.0133983
0.0158485
0.0226725
0.0273268
0.0305221
0.0335618
0.0361118
0.0372635
0.0368088
0.0347383
0.0326724
0.0302242
0.0278481
0.0264548
0.0256463
0.0240965
0.0239878
0.0236547
0.0232069
0.0226736
0.0219513
0.0206275
0.0192982
0.0181321
0.0142748
0.0119694
0.0125415
0.0142338
0.0153688
0.0164454
0.017985
0.0199445
0.022261
0.0248677
0.0268628
0.0292774
0.0314963
0.0339549
0.0365175
0.0392873
0.0421215
0.0438342
0.0448581
0.0456141
0.0439983
0.0416888
0.039374
0.0370633
0.0345843
0.0320968
0.030121
0.027975
0.0258851
0.0238339
0.0221566
0.0209128
0.0202322
0.0206412
0.0210467
0.0213972
0.0212441
0.0216571
0.0232136
0.0248381
0.0269754
0.0293257
0.0308074
0.0322561
0.0336584
0.03508
0.0367033
0.0385623
0.0405646
0.0420572
0.0414284
0.112815
0.133703
0.114939
0.144496
0.147169
0.117343
0.0836003
0.057075
0.0483035
0.0474396
0.0484143
0.0518347
0.0521605
0.0530211
0.0495409
0.0405439
0.0312822
0.0216143
0.0102583
0.00309489
0.0122871
0.0152449
0.0196908
0.0250343
0.0245554
0.0215901
0.0209149
0.020295
0.0193843
0.0196206
0.0167571
0.0136171
0.0100885
0.00644215
0.00445931
0.003424
0.00220471
0.000906495
0.00336062
0.00513208
0.00779918
0.0105095
0.0119845
0.0134351
0.0150751
0.0168892
0.0188607
0.02177
0.0244325
0.0265814
0.0309567
0.0368136
0.0425086
0.0450034
0.0464411
0.047842
0.0492778
0.0507424
0.0522402
0.0534214
0.0521909
0.0502416
0.0482869
0.0460898
0.0429082
0.0397714
0.0366774
0.0336063
0.0305687
0.0275479
0.0250381
0.0231134
0.0215985
0.020983
0.0211939
0.0214836
0.0217694
0.0234412
0.0252707
0.0271537
0.0292161
0.0316367
0.0341285
0.0361718
0.0381792
0.0401987
0.0421913
0.0440796
0.0455756
0.0468947
0.0463972
0.0458405
0.0453198
0.0448117
0.0445494
0.0454108
0.0462269
0.0469985
0.0466135
0.042421
0.104028
0.119855
0.0943085
0.0993942
0.0979549
0.0820418
0.0633
0.0386698
0.0310894
0.0326577
0.0342703
0.0402375
0.041361
0.0424977
0.042498
0.0425403
0.0426189
0.0412406
0.0355398
0.0322864
0.0272137
0.0191539
0.0158454
0.00862758
0.00659988
0.0109639
0.0136639
0.0117346
0.00736949
0.00331025
0.00202677
0.00688894
0.0112165
0.0139362
0.0164946
0.0191847
0.02178
0.0232928
0.0253294
0.0275351
0.029463
0.0322466
0.0349788
0.0367864
0.0384045
0.0400449
0.0417073
0.0433989
0.045394
0.0459803
0.0451357
0.0449956
0.0464646
0.0480727
0.0489037
0.0470778
0.0452194
0.0433436
0.0415172
0.0397755
0.0379589
0.0366303
0.0357379
0.0348653
0.0340064
0.0331652
0.033098
0.0331476
0.0335183
0.0338988
0.0343459
0.0349394
0.0356959
0.0365499
0.0377331
0.0391326
0.0404595
0.0417803
0.0431307
0.0444745
0.0458262
0.0471381
0.0473161
0.0473476
0.0473645
0.0472197
0.0470523
0.0468929
0.0467618
0.0466318
0.0466784
0.0477746
0.0488633
0.0499577
0.0473461
0.0446366
0.0414003
0.0385453
0.0374031
0.0359943
0.0940373
0.088945
0.0519449
0.0792468
0.0977494
0.0793111
0.0601962
0.0458844
0.0356504
0.0323536
0.0335954
0.0396015
0.0414016
0.0425055
0.0428043
0.0431426
0.0434607
0.0438009
0.0432916
0.0456695
0.0451329
0.0432227
0.0427771
0.03956
0.0316991
0.0295406
0.0289433
0.0267407
0.0257036
0.0268582
0.0274297
0.0282018
0.0287669
0.0286108
0.0296024
0.0304584
0.0308703
0.0299249
0.0306886
0.0323167
0.0326906
0.0325688
0.033395
0.0341166
0.0344334
0.0340969
0.0337021
0.033248
0.0327438
0.032537
0.0327585
0.0325182
0.0323859
0.0338308
0.0367278
0.0398284
0.0421943
0.0425489
0.0425771
0.0429718
0.0437206
0.044479
0.0453859
0.046375
0.0473876
0.0484301
0.0494939
0.0505794
0.0516824
0.0528013
0.0534558
0.0535698
0.0533243
0.0522543
0.0513022
0.0503799
0.0494188
0.0484822
0.0476085
0.0472323
0.0470543
0.0468822
0.0466837
0.0466744
0.0467042
0.0467443
0.0468562
0.0479661
0.0490641
0.04748
0.0447253
0.0421124
0.0391568
0.0343263
0.0335488
0.0335387
0.0337063
0.0350793
0.0367611
0.0318856
0.0393452
0.0465316
0.0403858
0.0786813
0.106525
0.0868082
0.043892
0.0475349
0.0450038
0.0355451
0.0344091
0.0400274
0.0420961
0.0429988
0.0434178
0.0436586
0.0429035
0.0422222
0.0425517
0.0433916
0.0434446
0.0405477
0.0439511
0.044556
0.0424316
0.0419247
0.0432561
0.043768
0.0425763
0.0422545
0.0416816
0.0402681
0.038959
0.037761
0.0367148
0.0357577
0.0339076
0.032553
0.0323449
0.0328808
0.0341441
0.0342048
0.0338878
0.0344494
0.0352151
0.0359637
0.0361618
0.0361605
0.0364156
0.0367558
0.037151
0.0381939
0.0396065
0.0406116
0.0415224
0.0444742
0.0477577
0.0511342
0.0542235
0.0563958
0.0572481
0.0575292
0.0573856
0.0572477
0.0571127
0.0569816
0.0568518
0.0567276
0.056607
0.0564931
0.0563813
0.0562717
0.0561656
0.0560621
0.0555637
0.0544145
0.0532922
0.0522017
0.0512312
0.0503178
0.0493784
0.0484431
0.047668
0.0481089
0.0470289
0.0441444
0.041589
0.0391715
0.035102
0.0309437
0.0285263
0.0285755
0.0286124
0.0254579
0.0269746
0.0258331
0.0215056
0.0154841
0.00226078
0.0263996
0.0359184
0.0605649
0.049271
0.0784322
0.106113
0.0868191
0.0443808
0.0271236
0.0476993
0.045483
0.0362826
0.0404306
0.0425175
0.0426744
0.041716
0.0411509
0.0405279
0.0389257
0.04152
0.0419812
0.0434588
0.0426126
0.0454771
0.0463439
0.0462994
0.0439302
0.044032
0.0441501
0.0435052
0.0425355
0.0422876
0.0423705
0.0424123
0.0424228
0.0424334
0.0422101
0.040796
0.0407621
0.0407575
0.0407363
0.0417512
0.0432716
0.0436474
0.0436138
0.0438501
0.0446028
0.045304
0.0459739
0.0459816
0.0459225
0.0458599
0.0457666
0.0461849
0.0467859
0.0470975
0.0471966
0.0472512
0.0488181
0.0509588
0.0530934
0.0551383
0.057002
0.057573
0.0574337
0.0573007
0.0571669
0.0570397
0.0569161
0.0567968
0.0566866
0.0565786
0.0563469
0.0561101
0.055877
0.0556354
0.0553949
0.0551659
0.054942
0.0547349
0.0536196
0.0496846
0.0458207
0.0422678
0.038386
0.0339485
0.030082
0.0263207
0.0214696
0.016485
0.0142933
0.0156024
0.0182601
0.0111266
0.00160908
0.00859888
0.0210155
0.0307786
0.0342281
0.0364281
0.0299765
0.0345841
0.0632041
0.0658085
0.0879561
0.105925
0.0805706
0.0437485
0.0199966
0.0209129
0.039405
0.0448889
0.0381262
0.040553
0.0400089
0.0393361
0.038498
0.0387114
0.0379161
0.0411157
0.0423278
0.0453649
0.0455349
0.0472149
0.0477905
0.0472969
0.0439613
0.0440358
0.0441283
0.0440397
0.0434562
0.042604
0.042359
0.0423912
0.0424128
0.0424011
0.0414274
0.0407829
0.0407681
0.0407595
0.0407464
0.0407211
0.0417648
0.0431495
0.0436463
0.0436138
0.0435775
0.0440744
0.0447217
0.0453251
0.045912
0.0459065
0.0458194
0.0460628
0.0459853
0.0461046
0.0465874
0.0467295
0.0467792
0.0468114
0.0476148
0.0495581
0.0514358
0.0532651
0.0550045
0.05664
0.057332
0.0571854
0.056928
0.0566768
0.0564286
0.0561802
0.0559346
0.0556972
0.0535621
0.0497215
0.0469824
0.0449113
0.0428154
0.0406584
0.0357865
0.030987
0.0259803
0.017531
0.00892355
0.00622457
0.00540045
0.00465973
0.00404729
0.00324962
0.00455493
0.0110556
0.0223727
0.0310612
0.0323193
0.0310997
0.0273684
0.0183282
0.0120185
0.0068547
0.00439052
0.0333962
0.0609447
0.0691492
0.101854
0.11152
0.0764406
0.0440874
0.0210678
0.0137168
0.015823
0.0249295
0.0311346
0.0372795
0.0374788
0.037678
0.03791
0.0381781
0.0395063
0.0432078
0.0459232
0.0459622
0.0472403
0.0474505
0.0475567
0.0473743
0.0440911
0.0440323
0.0439844
0.043991
0.0440698
0.0435153
0.042793
0.0423641
0.0423906
0.0422702
0.0407877
0.0407528
0.0407681
0.0407551
0.0407414
0.0407221
0.0406939
0.0416413
0.0428987
0.0436378
0.0436045
0.0435654
0.0435248
0.0441041
0.0446563
0.0451655
0.0456656
0.0460576
0.0460412
0.0459522
0.0458634
0.0457861
0.0461836
0.0462439
0.0462411
0.0462276
0.0462038
0.0472692
0.0488535
0.0500232
0.0510828
0.0508065
0.048394
0.0458996
0.0433263
0.0406799
0.0377246
0.0337826
0.030002
0.0260248
0.0214625
0.0148887
0.00728261
0.00456421
0.011717
0.0131003
0.0164219
0.0193449
0.0132852
0.0100114
0.0125155
0.0165703
0.0183116
0.0225762
0.0267189
0.0252495
0.0200222
0.0115008
0.00498268
0.00194183
0.00748684
0.0115129
0.0114895
0.0148959
0.0244253
0.0324657
0.0588091
0.0695919
0.101828
0.114837
0.088174
0.052931
0.0222263
0.0138902
0.011268
0.00650305
0.00567139
0.0163886
0.0233025
0.0310478
0.0373283
0.0388481
0.0439908
0.046543
0.0493163
0.0447306
0.0465524
0.0471812
0.0473134
0.0474286
0.0455365
0.0440139
0.0438334
0.0439303
0.044022
0.044118
0.0436981
0.0430074
0.0423623
0.0414923
0.0407375
0.0407282
0.0407375
0.0407385
0.0407264
0.0407056
0.0406827
0.0406501
0.0413994
0.0425371
0.0436208
0.0435816
0.0435406
0.0434999
0.0434533
0.0439485
0.0444262
0.044886
0.0456032
0.0459922
0.045905
0.0458173
0.0457283
0.0447137
0.0411795
0.0377241
0.0341359
0.0304821
0.0267584
0.0230007
0.0188865
0.0151011
0.0121095
0.00967801
0.00733864
0.00527974
0.00903923
0.0147719
0.0188592
0.0215461
0.0264594
0.0323069
0.0333405
0.0340799
0.0303384
0.0238508
0.0194486
0.0154593
0.0128537
0.0154666
0.0197763
0.0183296
0.0158055
0.0135142
0.00574954
0.00162723
0.00718904
0.00932279
0.00931104
0.0156252
0.0318998
0.0304798
0.0289258
0.034866
0.0265523
0.032533
0.0570513
0.0701106
0.0981725
0.108619
0.0933451
0.0734234
0.0386445
0.017312
0.0116621
0.00763882
0.00757971
0.00857086
0.00398808
0.00360841
0.0153334
0.0253182
0.0378379
0.0455941
0.0498283
0.044931
0.0459275
0.0466704
0.0470691
0.0472049
0.0468572
0.043937
0.0437656
0.0438573
0.0439607
0.0440943
0.0441682
0.0439126
0.0432102
0.0411209
0.0407208
0.0407203
0.0407165
0.0407186
0.0407056
0.0406817
0.0406582
0.0406325
0.0405937
0.0410446
0.0420641
0.0430503
0.0435469
0.0435
0.0424807
0.0399957
0.0374283
0.0349306
0.03274
0.0299008
0.0269908
0.0240226
0.0200638
0.0153179
0.01163
0.00766253
0.00617309
0.00860703
0.0134523
0.0200509
0.0271132
0.0325671
0.0354173
0.0384534
0.0424263
0.0469507
0.0504495
0.0523841
0.0496718
0.0454993
0.0412099
0.0331322
0.0247672
0.0180768
0.0135714
0.012869
0.0143873
0.0168996
0.016107
0.015032
0.010277
0.00445056
0.00139916
0.0019487
0.00328188
0.0115359
0.0254282
0.0294755
0.0319295
0.0462805
0.0358593
0.0237333
0.0216392
0.0157408
0.00421522
0.0334697
0.0572751
0.0725465
0.0924409
0.101154
0.0929998
0.075632
0.0579099
0.0430662
0.0302308
0.0165723
0.00986345
0.00803759
0.00776001
0.00569748
0.00941758
0.0121399
0.021521
0.0259428
0.0239887
0.0253624
0.0285966
0.0314096
0.0343129
0.0363619
0.0377341
0.0358676
0.0368629
0.0377006
0.038277
0.0386615
0.0387622
0.0386341
0.0376696
0.0358098
0.0347381
0.0335471
0.032463
0.031544
0.0304698
0.0292418
0.0278705
0.0263714
0.0247564
0.0230329
0.0212521
0.0202637
0.0189718
0.017388
0.0137216
0.0094019
0.00498337
0.00292004
0.0067125
0.0107204
0.0145321
0.0200097
0.0278365
0.0345897
0.0385046
0.041273
0.0441143
0.0473489
0.0509483
0.0543738
0.0553975
0.054554
0.053766