/*--------------------------------*- C++ -*----------------------------------*\
| =========                 |                                                 |
| \\      /  F ield         | foam-extend: Open Source CFD                    |
|  \\    /   O peration     | Version:     4.1                                |
|   \\  /    A nd           | Web:         http://www.foam-extend.org         |
|    \\/     M anipulation  |                                                 |
\*---------------------------------------------------------------------------*/
FoamFile
{
    version     2.0;
    format      ascii;
    class       volScalarField;
    location    "1";
    object      sigmaHyd;
}
// * * * * * * * * * * * * * * * * * * * * * * * * * * * * * * * * * * * * * //

dimensions      [1 -1 -2 0 0 0 0];

internalField   nonuniform List<scalar> 
100000
(
-47062.2
-46941.8
-46965
-46914.8
-46904.1
-46874.1
-46855.3
-46831.8
-46811.8
-46791
-46771.6
-46752.4
-46734
-46716.1
-46698.7
-46681.9
-46665.5
-46649.6
-46634.1
-46619.1
-46604.5
-46590.2
-46576.4
-46562.9
-46549.9
-46537
-46524.7
-46512.3
-46500.8
-46488.3
-46477.7
-46462.5
-46452.6
-46447.4
-46435.6
-46425.3
-46415.5
-46405.5
-46396
-46386.6
-46377.6
-46368.6
-46359.9
-46351.3
-46342.9
-46334.7
-46326.6
-46318.7
-46310.9
-46303.2
-46295.7
-46288.3
-46281.1
-46273.9
-46266.9
-46260
-46253.2
-46246.6
-46240
-46233.5
-46227.1
-46220.8
-46214.5
-46208.4
-46202.3
-46196.2
-46190.3
-46184.4
-46178.6
-46172.9
-46167.2
-46161.6
-46156.1
-46150.6
-46145.2
-46139.8
-46134.5
-46129.3
-46124.1
-46118.9
-46113.8
-46108.6
-46103.6
-46098.5
-46093.7
-46088.5
-46083.5
-46078.4
-46073.5
-46068.6
-46063.8
-46059.1
-46054.6
-46050.1
-46046.3
-46042
-46040.6
-46035.5
-46043.3
-46015.4
-48766.8
-48604.7
-48599
-48514.7
-48474
-48413.2
-48365.3
-48313
-48265.3
-48217.4
-48171.6
-48126.7
-48083.3
-48041
-47999.9
-47959.8
-47920.9
-47883
-47846
-47810
-47775
-47740.8
-47707.5
-47675
-47643.4
-47612.4
-47582.7
-47553
-47526.5
-47496.6
-47481.2
-47439.8
-47432.7
-47387.5
-47377.1
-47340.2
-47317.9
-47291.9
-47269
-47245.8
-47223.6
-47201.7
-47180.4
-47159.5
-47139
-47118.9
-47099.2
-47079.8
-47060.8
-47042.2
-47023.9
-47005.9
-46988.3
-46970.9
-46953.9
-46937.2
-46920.7
-46904.5
-46888.6
-46873
-46857.6
-46842.4
-46827.5
-46812.8
-46798.3
-46784
-46769.9
-46756.1
-46742.4
-46728.9
-46715.7
-46702.6
-46689.7
-46677
-46664.5
-46652.1
-46639.9
-46627.8
-46616
-46604.1
-46592.3
-46580.8
-46569.5
-46558.1
-46547.2
-46536
-46524.9
-46514.1
-46503.3
-46492.7
-46482.3
-46472
-46462
-46452
-46442.9
-46432.7
-46426.2
-46414.3
-46416.7
-46377.1
-50470.5
-50266.8
-50232.2
-50113.9
-50043.2
-49951.6
-49874.6
-49793.6
-49718.1
-49643.1
-49571
-49500.4
-49432
-49365.3
-49300.4
-49237.3
-49175.7
-49115.8
-49057.4
-49000.4
-48944.9
-48890.7
-48837.9
-48786.4
-48736.1
-48687
-48639.2
-48592.3
-48546.8
-48502.1
-48458.5
-48417.5
-48370
-48327.9
-48292.3
-48252.3
-48214.9
-48177
-48140.5
-48104.3
-48069.1
-48034.4
-48000.5
-47967.3
-47934.7
-47902.7
-47871.4
-47840.6
-47810.5
-47780.8
-47751.8
-47723.2
-47695.2
-47667.6
-47640.6
-47614
-47587.9
-47562.3
-47537.1
-47512.3
-47487.9
-47463.9
-47440.3
-47417
-47394.2
-47371.6
-47349.4
-47327.5
-47306
-47284.8
-47263.9
-47243.3
-47223
-47203
-47183.4
-47163.9
-47144.9
-47126
-47107.6
-47089.4
-47071
-47053
-47035.8
-47018.1
-47002.3
-46984.3
-46967.1
-46949.9
-46933.2
-46916.8
-46900.8
-46885
-46869.7
-46854.2
-46840.2
-46824.2
-46813.3
-46793.4
-46792.4
-46736.6
-52172.9
-51927.6
-51864.2
-51711.8
-51611.2
-51488.8
-51382.7
-51273
-51169.8
-51067.7
-50969.3
-50873.1
-50779.7
-50688.6
-50600.1
-50513.7
-50429.7
-50347.7
-50267.8
-50190
-50114
-50039.9
-49967.7
-49897.1
-49828.3
-49761
-49695.5
-49631.2
-49568.9
-49507
-49447.3
-49387
-49320.9
-49273
-49220.1
-49166
-49114.2
-49062.3
-49012
-48962.5
-48914.1
-48866.6
-48820.2
-48774.6
-48729.9
-48686.1
-48643.1
-48601
-48559.6
-48519
-48479.2
-48440
-48401.6
-48363.9
-48326.8
-48290.4
-48254.7
-48219.6
-48185.1
-48151.2
-48117.8
-48085
-48052.7
-48020.9
-47989.6
-47958.8
-47928.5
-47898.7
-47869.3
-47840.3
-47811.8
-47783.8
-47756.2
-47728.9
-47702.3
-47675.8
-47650.2
-47624.3
-47599.7
-47574.1
-47548.3
-47524.2
-47500.7
-47476.7
-47455.1
-47431.3
-47407
-47384.8
-47362
-47340.2
-47318.6
-47297.2
-47276.5
-47255.4
-47236
-47214.3
-47198
-47172.1
-47165.7
-47102.8
-53873.7
-53586.8
-53494.6
-53308.2
-53177.6
-53024.6
-52889.5
-52751.1
-52620.2
-52491
-52366.3
-52244.4
-52126.1
-52010.7
-51898.4
-51789
-51682.4
-51578.5
-51477.2
-51378.4
-51282
-51188
-51096.2
-51006.7
-50919.2
-50833.8
-50750.5
-50668.9
-50589.3
-50511.3
-50434.9
-50360.5
-50286
-50215.2
-50146.3
-50078.1
-50011.7
-49946.3
-49882.4
-49819.7
-49758.3
-49698
-49639
-49581.1
-49524.4
-49468.8
-49414.2
-49360.7
-49308.1
-49256.6
-49206
-49156.2
-49107.5
-49059.5
-49012.5
-48966.2
-48920.8
-48876.3
-48832.6
-48789.5
-48747.2
-48705.6
-48664.6
-48624.3
-48584.6
-48545.6
-48507.1
-48469.3
-48432
-48395.3
-48359.2
-48323.6
-48288.5
-48253.9
-48220
-48186.1
-48153.9
-48120.6
-48090.4
-48060.8
-48026.8
-47994.5
-47966.7
-47935.7
-47918.1
-47882
-47849.8
-47819
-47791
-47762.8
-47735.9
-47708.9
-47682.9
-47656.3
-47631.6
-47604.4
-47582.9
-47551.2
-47539.9
-47470.4
-55572.3
-55244
-55123
-54902.7
-54742.2
-54558.4
-54394.4
-54227.3
-54068.8
-53912.5
-53761.6
-53614.1
-53470.9
-53331.2
-53195.2
-53062.7
-52933.6
-52807.8
-52685.1
-52565.4
-52448.6
-52334.7
-52223.5
-52115
-52009
-51905.5
-51804.4
-51705.5
-51608.9
-51514.3
-51421.7
-51331.2
-51241.3
-51156.3
-51072.1
-50989.6
-50908.9
-50829.6
-50752.1
-50676
-50601.5
-50528.5
-50456.9
-50386.8
-50318
-50250.5
-50184.4
-50119.4
-50055.8
-49993.2
-49931.9
-49871.6
-49812.4
-49754.2
-49697.2
-49641.1
-49586.2
-49532.4
-49479.3
-49427.3
-49375.9
-49325.5
-49275.8
-49227
-49178.9
-49131.6
-49085.1
-49039.3
-48994.2
-48949.8
-48906.1
-48863
-48820.8
-48779
-48738.3
-48697.6
-48659.6
-48619.2
-48588.5
-48543.6
-48495.8
-48464.3
-48428.9
-48389.6
-48366.7
-48329
-48280.1
-48253.2
-48217.6
-48185.6
-48152.7
-48120.5
-48088.9
-48056.9
-48026.8
-47994.1
-47967.4
-47930.2
-47914.1
-47838.9
-57268.5
-56898.7
-56749
-56494.8
-56304.5
-56090.1
-55897
-55701.4
-55515.3
-55332
-55154.9
-54981.9
-54813.7
-54649.8
-54490.2
-54334.6
-54183.1
-54035.3
-53891.2
-53750.7
-53613.5
-53479.8
-53349.2
-53221.7
-53097.2
-52975.6
-52856.8
-52740.7
-52627.2
-52516.2
-52407.5
-52301.4
-52197.3
-52096
-51996.8
-51899.7
-51804.7
-51711.6
-51620.4
-51531.1
-51443.6
-51357.8
-51273.7
-51191.3
-51110.5
-51031.2
-50953.5
-50877.2
-50802.4
-50729
-50656.9
-50586.1
-50516.7
-50448.2
-50381.3
-50315.1
-50250.3
-50187.4
-50125.3
-50064
-50003.9
-49944.6
-49886.3
-49828.9
-49772.5
-49717
-49662.3
-49608.5
-49555.6
-49503.4
-49452.1
-49401.4
-49351.6
-49301.9
-49253.9
-49203.7
-49159.1
-49101.7
-49071.3
-48995.1
-48979.6
-48918.8
-48879.5
-48833.5
-48841.2
-48742.1
-48718.5
-48672.7
-48643.1
-48603.9
-48568.1
-48530.3
-48493.9
-48456.6
-48421.3
-48383.3
-48351.5
-48309
-48288
-48207.4
-58961.7
-58550.6
-58372.2
-58084.1
-57864.1
-57619.1
-57397.2
-57173
-56959.3
-56749.1
-56545.8
-56347.2
-56154.2
-55966.1
-55782.9
-55604.4
-55430.4
-55260.8
-55095.3
-54934
-54776.5
-54622.9
-54473
-54326.6
-54183.6
-54043.9
-53907.5
-53774.1
-53643.8
-53516.3
-53391.6
-53269.7
-53150.2
-53033.9
-52919.9
-52808.3
-52699.1
-52592.2
-52487.4
-52384.8
-52284.2
-52185.7
-52089.1
-51994.4
-51901.6
-51810.6
-51721.3
-51633.7
-51547.8
-51463.4
-51380.6
-51299.1
-51219.4
-51140.4
-51063.7
-50987.1
-50913.5
-50842.2
-50770.2
-50700.1
-50630.8
-50562.7
-50495.7
-50429.9
-50365.1
-50301.3
-50238.6
-50176.9
-50116.1
-50056.3
-49997.4
-49939.4
-49882.3
-49825.9
-49770.3
-49715.7
-49660.8
-49608.8
-49549.9
-49509.1
-49464.7
-49407.2
-49357
-49311.4
-49253.4
-49211.7
-49174.9
-49120.5
-49076.8
-49030.2
-48986.4
-48942.3
-48899.6
-48856.6
-48815.7
-48772.3
-48735.2
-48687.4
-48661.6
-48575.4
-60651.6
-60199.2
-59992.3
-59670.4
-59420.6
-59145.1
-58894.3
-58641.7
-58400.5
-58163.4
-57934
-57710
-57492.2
-57279.9
-57073.2
-56871.7
-56675.3
-56483.8
-56297.1
-56114.9
-55937.2
-55763.8
-55594.5
-55429.2
-55267.8
-55110.2
-54956.1
-54805.6
-54658.4
-54514.5
-54373.8
-54236.3
-54101.6
-53970
-53841.2
-53715.2
-53591.9
-53471.1
-53352.8
-53236.9
-53123.4
-53012.1
-52903
-52796.1
-52691.3
-52588.5
-52487.8
-52388.9
-52291.9
-52196.6
-52103.4
-52011.4
-51921.9
-51832.4
-51746.7
-51658.7
-51572.7
-51493.8
-51414.9
-51334.6
-51257.1
-51179.7
-51104.3
-51029.7
-50956.6
-50884.6
-50813.9
-50744.2
-50675.6
-50608.1
-50541.7
-50476.2
-50411.8
-50348.2
-50285.8
-50223.9
-50163.8
-50103.7
-50046.2
-49991.3
-49932.3
-49874.1
-49821
-49765.4
-49722.5
-49662.4
-49607.7
-49552.7
-49502
-49450.6
-49401.2
-49351.7
-49303.7
-49255.3
-49209.1
-49160.4
-49118.2
-49065.1
-49034.6
-48942.9
-62337.8
-61844.2
-61608.7
-61253.2
-60973.7
-60667.8
-60388.2
-60107.1
-59838.5
-59574.6
-59319.1
-59069.7
-58827.2
-58590.8
-58360.6
-58136.2
-57917.5
-57704.2
-57496.3
-57293.4
-57095.5
-56902.3
-56713.7
-56529.6
-56349.8
-56174.2
-56002.6
-55834.9
-55670.9
-55510.7
-55353.9
-55200.7
-55050.7
-54904.1
-54760.6
-54620.2
-54482.7
-54348.1
-54216.3
-54087.1
-53960.6
-53836.6
-53715.1
-53596
-53479.3
-53364.8
-53252.5
-53142.3
-53034.2
-52928
-52824
-52721.4
-52621.3
-52520.8
-52425
-52321.4
-52233.6
-52153
-52056.8
-51969
-51881.1
-51795.4
-51711.1
-51628.2
-51546.8
-51466.6
-51387.8
-51310.3
-51233.9
-51158.8
-51084.9
-51012.1
-50940.4
-50869.8
-50800.2
-50731.8
-50664.2
-50598.2
-50532.4
-50469.3
-50406.5
-50343.3
-50281.6
-50220.8
-50160.5
-50101.4
-50043.8
-49984.9
-49928.3
-49871.5
-49816.2
-49761.1
-49707.4
-49653.5
-49602
-49547.9
-49500.6
-49442.2
-49406.9
-49309.7
-64019.7
-63485.2
-63221.2
-62832
-62523
-62186.7
-61878.5
-61569
-61273
-60982.4
-60700.9
-60426.1
-60158.9
-59898.5
-59644.8
-59397.6
-59156.6
-58921.6
-58692.5
-58468.9
-58250.8
-58037.9
-57830.1
-57627.2
-57429.1
-57235.5
-57046.4
-56861.6
-56680.9
-56504.3
-56331.6
-56162.7
-55997.5
-55835.9
-55677.7
-55522.9
-55371.4
-55223
-55077.7
-54935.4
-54795.9
-54659.3
-54525.4
-54394.1
-54265.4
-54139.2
-54015.5
-53894.1
-53775.1
-53658.2
-53544.1
-53431.1
-53323.2
-53212
-53117.8
-52995.5
-52935.9
-52791.5
-52709.9
-52599.8
-52506.6
-52409.6
-52317.3
-52225.4
-52135.8
-52047.4
-51960.5
-51875.1
-51791
-51708.2
-51626.8
-51546.6
-51467.7
-51389.9
-51313.5
-51238.1
-51164
-51091
-51019.2
-50948.6
-50878.7
-50809.7
-50742.2
-50675
-50610.2
-50544.1
-50479.6
-50415.4
-50352.7
-50290.5
-50229.5
-50169
-50109.9
-50050.6
-49993.8
-49934.5
-49882
-49818.4
-49778.3
-49675.9
-65697.2
-65121.7
-64829.3
-64406.6
-64068.1
-63701.5
-63364.7
-63026.9
-62703.6
-62386.3
-62078.9
-61778.9
-61487.1
-61202.7
-60925.7
-60655.6
-60392.4
-60135.8
-59885.5
-59641.4
-59403.1
-59170.6
-58943.6
-58722
-58505.6
-58294.1
-58087.6
-57885.7
-57688.3
-57495.4
-57306.7
-57122.2
-56941.7
-56765.1
-56592.3
-56423.2
-56257.7
-56095.6
-55936.8
-55781.3
-55629
-55479.7
-55333.4
-55190
-55049.4
-54911.5
-54776.3
-54643.7
-54513.6
-54385.9
-54260.7
-54137.8
-54017.2
-53899.4
-53782.2
-53674.1
-53550.4
-53434.3
-53334.6
-53227
-53124.2
-53021
-52920.2
-52820.5
-52722.7
-52626.3
-52531.6
-52438.3
-52346.5
-52256.2
-52167.3
-52079.7
-51993.6
-51908.7
-51825.2
-51743
-51661.9
-51582.2
-51503.6
-51426.4
-51350.1
-51274.9
-51200.7
-51127.5
-51055.4
-50984.1
-50914
-50844.5
-50776.1
-50708.4
-50641.9
-50575.9
-50511.3
-50446.7
-50384.6
-50320.1
-50262.5
-50193.7
-50148.8
-50041.1
-67369.7
-66753.3
-66432.7
-65976.6
-65608.6
-65211.9
-64846.5
-64480.5
-64130
-63786.1
-63452.9
-63127.7
-62811.3
-62503
-62202.7
-61910
-61624.6
-61346.4
-61075
-60810.3
-60552
-60299.9
-60053.8
-59813.5
-59578.8
-59349.6
-59125.6
-58906.7
-58692.7
-58483.5
-58279
-58078.9
-57883.2
-57691.7
-57504.3
-57320.9
-57141.4
-56965.6
-56793.5
-56624.8
-56459.6
-56297.8
-56139.1
-55983.6
-55831.1
-55681.6
-55535
-55391.2
-55250.2
-55111.7
-54976
-54842.5
-54712.1
-54582.8
-54457.4
-54331.3
-54206.2
-54088.6
-53973.7
-53857
-53744.4
-53632.2
-53522.6
-53414.5
-53308.4
-53203.8
-53101.1
-53000
-52900.5
-52802.6
-52706.2
-52611.3
-52518
-52426
-52335.5
-52246.3
-52158.6
-52072.1
-51986.9
-51903
-51820.3
-51738.8
-51658.4
-51579.1
-51501
-51423.8
-51347.7
-51272.4
-51198.3
-51125.1
-51053
-50981.6
-50911.6
-50841.7
-50774.3
-50704.5
-50641.9
-50568
-50518.3
-50405.4
-69036.8
-68379.8
-68030.9
-67541.5
-67144.2
-66717.4
-66323.5
-65929.5
-65551.9
-65181.5
-64822.5
-64472.1
-64131.4
-63799.2
-63475.7
-63160.3
-62852.9
-62553.1
-62260.8
-61975.6
-61697.3
-61425.7
-61160.5
-60901.6
-60648.7
-60401.7
-60160.4
-59924.5
-59693.9
-59468.5
-59248.1
-59032.5
-58821.6
-58615.3
-58413.4
-58215.8
-58022.3
-57832.9
-57647.4
-57465.6
-57287.6
-57113.2
-56942.2
-56774.6
-56610.3
-56449.2
-56291.2
-56136.3
-55984.2
-55835
-55688.6
-55544.9
-55403.8
-55265.4
-55128.9
-54995.7
-54862.7
-54733
-54607.4
-54482.7
-54360.9
-54240.6
-54122.5
-54006.2
-53891.9
-53779.4
-53668.7
-53559.8
-53452.7
-53347.2
-53243.4
-53141.2
-53040.7
-52941.6
-52844.1
-52748.1
-52653.5
-52560.4
-52468.6
-52378.2
-52289
-52201.2
-52114.6
-52029.1
-51944.9
-51861.8
-51779.8
-51698.9
-51619.2
-51540.4
-51462.8
-51386
-51310.6
-51235.4
-51162.8
-51087.8
-51020.2
-50941.1
-50886.6
-50768.6
-70698.2
-70000.6
-69623.6
-69101
-68674.5
-68217.7
-67795.5
-67373.5
-66968.8
-66572
-66187.3
-65811.9
-65446.8
-65090.9
-64744.3
-64406.3
-64076.9
-63755.7
-63442.4
-63136.8
-62838.6
-62547.5
-62263.4
-61985.9
-61714.9
-61450.2
-61191.6
-60938.8
-60691.7
-60450.1
-60213.9
-59982.9
-59756.9
-59535.8
-59319.4
-59107.6
-58900.2
-58697.2
-58498.4
-58303.6
-58112.8
-57925.9
-57742.6
-57563
-57387
-57214.3
-57044.9
-56878.8
-56715.9
-56556
-56399.1
-56245
-56093.8
-55945.1
-55799.2
-55655.6
-55514.4
-55376.3
-55240.9
-55107.4
-54976.5
-54847.5
-54720.9
-54596.2
-54473.7
-54353.1
-54234.5
-54117.8
-54003
-53890
-53778.8
-53669.4
-53561.6
-53455.5
-53351
-53248.1
-53146.8
-53047
-52948.6
-52851.7
-52756.2
-52662.1
-52569.3
-52477.8
-52387.5
-52298.5
-52210.7
-52124.1
-52038.7
-51954.3
-51871.2
-51789
-51708.3
-51627.7
-51549.9
-51469.8
-51397.1
-51313
-51253.7
-51130.6
-72353.4
-71615.4
-71210.4
-70654.7
-70199.2
-69712.4
-69262
-68812.1
-68380.5
-67957.3
-67547.1
-67146.8
-66757.4
-66377.9
-66008.1
-65647.7
-65296.4
-64953.9
-64619.7
-64293.8
-63975.7
-63665.2
-63362.2
-63066.2
-62777.2
-62494.9
-62219
-61949.4
-61685.8
-61428.2
-61176.2
-60929.7
-60688.7
-60452.8
-60221.9
-59996
-59774.8
-59558.3
-59346.2
-59138.5
-58934.9
-58735.5
-58540.1
-58348.5
-58160.7
-57976.5
-57795.8
-57618.7
-57444.8
-57274.2
-57106.8
-56942.5
-56781.1
-56622.7
-56467
-56314.2
-56163.8
-56016.3
-55871.6
-55729.2
-55589.5
-55452
-55316.9
-55183.9
-55053.2
-54924.7
-54798.2
-54673.8
-54551.3
-54430.8
-54312.2
-54195.5
-54080.6
-53967.4
-53856
-53746.3
-53638.2
-53531.8
-53426.9
-53323.5
-53221.7
-53121.3
-53022.3
-52924.7
-52828.5
-52733.6
-52640
-52547.7
-52456.6
-52366.7
-52278.2
-52190.5
-52104.5
-52018.7
-51935.7
-51850.4
-51772.7
-51683.5
-51619.4
-51491.3
-74002
-73223.8
-72790.9
-72202.3
-71717.7
-71201.2
-70722.7
-70245
-69786.6
-69337.2
-68901.5
-68476.4
-68062.8
-67659.7
-67267
-66884.2
-66511.1
-66147.2
-65792.3
-65446.1
-65108.3
-64778.5
-64456.6
-64142.3
-63835.3
-63535.4
-63242.3
-62955.9
-62676
-62402.3
-62134.6
-61872.9
-61616.8
-61366.2
-61121
-60881
-60646
-60416
-60190.7
-59970.1
-59753.9
-59542
-59334.4
-59130.9
-58931.4
-58735.7
-58543.8
-58355.6
-58170.9
-57989.7
-57811.9
-57637.3
-57465.9
-57297.6
-57132.3
-56969.9
-56810.4
-56653.8
-56500
-56348.8
-56200.3
-56054.2
-55910.7
-55769.5
-55630.6
-55494.1
-55359.7
-55227.6
-55097.5
-54969.5
-54843.6
-54719.6
-54597.6
-54477.4
-54359.1
-54242.5
-54127.7
-54014.7
-53903.3
-53793.5
-53685.3
-53578.7
-53473.6
-53370
-53267.8
-53167.1
-53067.7
-52969.7
-52873
-52777.6
-52683.5
-52590.5
-52499.1
-52408.1
-52320
-52229.6
-52146.8
-52052.6
-51983.8
-51850.6
-75643.6
-74825.3
-74364.6
-73743.3
-73229.9
-72683.8
-72177.2
-71671.8
-71186.7
-70711.2
-70250.2
-69800.3
-69362.7
-68936.1
-68520.6
-68115.5
-67720.7
-67335.6
-66960
-66593.6
-66236.1
-65887.2
-65546.5
-65213.8
-64888.9
-64571.5
-64261.4
-63958.3
-63662
-63372.3
-63089.1
-62812
-62540.9
-62275.7
-62016.2
-61762.2
-61513.5
-61270
-61031.6
-60798.1
-60569.3
-60345.1
-60125.4
-59910
-59698.8
-59491.8
-59288.7
-59089.4
-58894
-58702.2
-58514
-58329.2
-58147.8
-57969.7
-57794.8
-57623
-57454.3
-57288.5
-57125.7
-56965.7
-56808.4
-56653.8
-56501.9
-56352.5
-56205.5
-56061
-55918.9
-55779
-55641.4
-55506
-55372.7
-55241.5
-55112.4
-54985.2
-54860
-54736.7
-54615.2
-54495.6
-54377.7
-54261.5
-54147.1
-54034.3
-53923
-53813.4
-53705.3
-53598.7
-53493.6
-53389.9
-53287.6
-53186.7
-53087.2
-52988.8
-52892.2
-52795.9
-52702.6
-52607.1
-52519.4
-52420.1
-52346.5
-52208.5
-77277.9
-76419.7
-75931.4
-75277.4
-74735.2
-74159.6
-73625.2
-73092.3
-72580.6
-72079.1
-71592.8
-71118.4
-70656.8
-70206.8
-69768.5
-69341.3
-68924.8
-68518.6
-68122.5
-67736
-67358.9
-66990.8
-66631.4
-66280.5
-65937.8
-65603
-65275.9
-64956.2
-64643.6
-64338.1
-64039.2
-63747
-63461
-63181.3
-62907.4
-62639.5
-62377.1
-62120.4
-61868.8
-61622.5
-61381.2
-61144.7
-60912.9
-60685.7
-60462.9
-60244.5
-60030.2
-59820
-59613.9
-59411.5
-59213
-59018.1
-58826.7
-58638.9
-58454.4
-58273.2
-58095.2
-57920.3
-57748.6
-57579.8
-57413.9
-57250.8
-57090.5
-56932.9
-56777.9
-56625.5
-56475.5
-56328
-56182.9
-56040
-55899.5
-55761.1
-55624.9
-55490.8
-55358.7
-55228.6
-55100.5
-54974.3
-54850
-54727.5
-54606.8
-54487.8
-54370.5
-54254.9
-54140.9
-54028.4
-53917.6
-53808.2
-53700.4
-53594
-53489.1
-53385.3
-53283.4
-53181.9
-53083.5
-52983
-52890.3
-52786.1
-52707.7
-52564.8
-78904.4
-78006.5
-77490.6
-76804.2
-76233.4
-75628.5
-75066.3
-74506
-73967.9
-73440.5
-72929.1
-72430.1
-71944.7
-71471.5
-71010.6
-70561.2
-70123.2
-69696.1
-69279.4
-68873
-68476.3
-68089.2
-67711.3
-67342.2
-66981.8
-66629.6
-66285.6
-65949.3
-65620.6
-65299.2
-64984.9
-64677.5
-64376.7
-64082.4
-63794.3
-63512.5
-63236.4
-62966.5
-62701.9
-62442.9
-62189.1
-61940.4
-61696.6
-61457.6
-61223.3
-60993.6
-60768.2
-60547.2
-60330.3
-60117.5
-59908.7
-59703.7
-59502.5
-59304.9
-59110.8
-58920.3
-58733.1
-58549.2
-58368.5
-58191
-58016.5
-57845
-57676.4
-57510.6
-57347.6
-57187.3
-57029.6
-56874.4
-56721.8
-56571.6
-56423.7
-56278.2
-56135
-55993.9
-55855
-55718.2
-55583.5
-55450.8
-55320.1
-55191.2
-55064.3
-54939.2
-54815.8
-54694.2
-54574.4
-54456.2
-54339.6
-54224.6
-54111.3
-53999.3
-53889.1
-53780
-53672.8
-53566.2
-53462.7
-53357.1
-53259.4
-53150.2
-53067.1
-52919.4
-80522.7
-79585.3
-79042.1
-78323.3
-77724.1
-77089.9
-76500.2
-75912.6
-75348.1
-74795
-74258.6
-73735.3
-73226.1
-72729.8
-72246.4
-71775
-71315.6
-70867.6
-70430.6
-70004.2
-69588.2
-69182.1
-68785.7
-68398.6
-68020.5
-67651.1
-67290.2
-66937.5
-66592.7
-66255.6
-65925.9
-65603.4
-65287.8
-64979.2
-64676.9
-64381.3
-64091.7
-63808.6
-63531
-63259.4
-62993.1
-62732.3
-62476.5
-62225.8
-61980
-61739
-61502.6
-61270.7
-61043.2
-60820
-60600.9
-60385.9
-60174.8
-59967.5
-59764
-59564.1
-59367.8
-59174.9
-58985.3
-58799.1
-58616.1
-58436.2
-58259.3
-58085.4
-57914.4
-57746.3
-57580.9
-57418.1
-57258
-57100.5
-56945.4
-56792.8
-56642.5
-56494.6
-56348.9
-56205.4
-56064.1
-55924.9
-55787.8
-55652.7
-55519.5
-55388.3
-55258.9
-55131.4
-55005.7
-54881.8
-54759.5
-54639
-54520.1
-54402.7
-54287.1
-54172.7
-54060.3
-53948.5
-53839.9
-53729.3
-53626.7
-53512.6
-53424.7
-53272.3
-82132.5
-81155.8
-80585.4
-79834.4
-79206.9
-78543.7
-77926.5
-77311.7
-76721.1
-76142.4
-75581.2
-75033.6
-74500.8
-73981.5
-73475.6
-72982.5
-72501.7
-72032.9
-71575.6
-71129.5
-70694.2
-70269.3
-69854.5
-69449.4
-69053.7
-68667.2
-68289.6
-67920.5
-67559.7
-67206.9
-66861.8
-66524.4
-66194.1
-65871
-65554.4
-65245.2
-64941.4
-64645.9
-64355.3
-64071.4
-63792.7
-63519.9
-63252.3
-62990
-62732.7
-62480.5
-62233.1
-61990.5
-61752.4
-61518.8
-61289.5
-61064.5
-60843.6
-60626.7
-60413.8
-60204.6
-59999.1
-59797.3
-59598.9
-59404.1
-59212.5
-59024.2
-58839.1
-58657.2
-58478.3
-58302.3
-58129.2
-57959
-57791.4
-57626.6
-57464.3
-57304.6
-57147.4
-56992.6
-56840.2
-56690.1
-56542.2
-56396.6
-56253.1
-56111.7
-55972.4
-55835.1
-55699.7
-55566.3
-55434.8
-55305.1
-55177.2
-55051.1
-54926.7
-54803.9
-54682.9
-54563.3
-54445.8
-54328.8
-54215.2
-54099.5
-53992.1
-53873.1
-53780.5
-53623.4
-83733.3
-82717.6
-82120
-81337.1
-80681.5
-79989.3
-79344.8
-78703.1
-78086.5
-77482.3
-76896.3
-76324.6
-75768.4
-75226.2
-74698.1
-74183.2
-73681.3
-73191.8
-72714.3
-72248.6
-71794
-71350.4
-70917.3
-70494.3
-70081.2
-69677.7
-69283.4
-68898
-68521.3
-68153
-67792.8
-67440.4
-67095.6
-66758.2
-66427.8
-66104.8
-65787.9
-65479.3
-65175.8
-64879.3
-64588.3
-64303.3
-64023.9
-63749.9
-63481.3
-63217.9
-62959.6
-62706.2
-62457.6
-62213.7
-61974.4
-61739.4
-61508.8
-61282.3
-61059.9
-60841.5
-60627
-60416.2
-60209.1
-60005.6
-59805.6
-59609
-59415.7
-59225.7
-59038.9
-58855.2
-58674.5
-58496.8
-58321.9
-58149.8
-57980.4
-57813.6
-57649.5
-57487.9
-57328.7
-57172
-57017.6
-56865.6
-56715.8
-56568.2
-56422.7
-56279.4
-56138.1
-55998.8
-55861.5
-55726.1
-55592.6
-55460.9
-55331.1
-55202.9
-55076.6
-54951.8
-54829
-54707
-54588.3
-54467.7
-54355.4
-54231.5
-54134.2
-53972.5
-85324.8
-84270.2
-83645.8
-82831
-82147.4
-81426.6
-80754.9
-80086.4
-79443.9
-78814.4
-78203.8
-77608.2
-77028.6
-76463.7
-75913.4
-75376.9
-74853.9
-74343.9
-73846.4
-73361.1
-72887.5
-72425.2
-71973.9
-71533.2
-71102.8
-70682.3
-70271.4
-69869.9
-69477.4
-69093.6
-68718.2
-68351
-67991.5
-67639.9
-67294.5
-66958.4
-66623.9
-66306.5
-65989.9
-65682
-65378.9
-65082.1
-64790.9
-64505.5
-64225.6
-63951.1
-63681.9
-63417.8
-63158.8
-62904.6
-62655.2
-62410.4
-62170
-61934.1
-61702.3
-61474.8
-61251.2
-61031.6
-60815.8
-60603.7
-60395.3
-60190.4
-59989
-59791
-59596.4
-59405
-59216.7
-59031.5
-58849.3
-58669.9
-58493.4
-58319.7
-58148.7
-57980.3
-57814.4
-57651.2
-57490.3
-57331.9
-57175.8
-57022
-56870.5
-56721.1
-56573.9
-56428.8
-56285.7
-56144.7
-56005.6
-55868.4
-55733.1
-55599.6
-55468
-55338
-55210.1
-55083
-54959.3
-54833.8
-54716.6
-54587.9
-54485.8
-54319.6
-86906.6
-85813.4
-85162.2
-84315.8
-83604.4
-82855
-82156.4
-81461.2
-80793
-80138.4
-79503.4
-78883.9
-78281.1
-77693.6
-77121.3
-76563.3
-76019.4
-75488.9
-74971.6
-74466.8
-73974.2
-73493.5
-73024.1
-72565.7
-72118.1
-71680.8
-71253.5
-70835.8
-70427.6
-70028.5
-69638.2
-69256.3
-68882.8
-68516.9
-68158.9
-67808.3
-67464.1
-67131.7
-66802.3
-66481.1
-66165.5
-65856.5
-65553.5
-65256.5
-64965.3
-64679.8
-64399.8
-64125.1
-63855.7
-63591.3
-63331.9
-63077.2
-62827.3
-62581.8
-62340.8
-62104.1
-61871.6
-61643.2
-61418.7
-61198.1
-60981.1
-60768.1
-60558.3
-60352.7
-60150.2
-59951.3
-59755.5
-59562.9
-59373.4
-59186.9
-59003.4
-58822.7
-58644.8
-58469.7
-58297.2
-58127.4
-57960.1
-57795.3
-57633
-57473.1
-57315.5
-57160.1
-57007
-56856.1
-56707.4
-56560.7
-56416
-56273.4
-56132.7
-55993.9
-55857
-55721.8
-55588.8
-55456.6
-55328
-55197.6
-55075.5
-54942
-54835.3
-54664.6
-88478.3
-87346.7
-86668.9
-85791.2
-85052.1
-84274.4
-83548.9
-82827.3
-82133.4
-81453.9
-80794.6
-80151.4
-79525.6
-78915.7
-78321.4
-77742.1
-77177.4
-76626.7
-76089.6
-75565.5
-75054.1
-74554.9
-74067.6
-73591.7
-73126.9
-72672.9
-72229.2
-71795.6
-71371.9
-70957.5
-70552.4
-70156
-69768.2
-69388.3
-69014.2
-68651.1
-68265.9
-67947.7
-67605.4
-67274.1
-66946.7
-66625.8
-66311.2
-66002.7
-65700.3
-65403.8
-65113.1
-64827.9
-64548.1
-64273.6
-64004.2
-63739.9
-63480.3
-63225.5
-62975.3
-62729.5
-62488.1
-62251
-62017.9
-61788.9
-61563.6
-61342.5
-61124.6
-60911
-60700.8
-60494.2
-60291
-60091
-59894.3
-59700.6
-59510.1
-59322.5
-59137.8
-58955.9
-58776.9
-58600.6
-58426.9
-58255.8
-58087.3
-57921.2
-57757.6
-57596.3
-57437.4
-57280.7
-57126.3
-56974
-56823.8
-56675.7
-56529.7
-56385.6
-56243.5
-56103.1
-55965.1
-55827.9
-55694.3
-55559
-55432.2
-55293.9
-55182.5
-55007.4
-90039.4
-88869.8
-88165.5
-87256.6
-86490.2
-85684.2
-84932.2
-84184.2
-83465
-82760.6
-82077.2
-81410.5
-80761.8
-80129.5
-79513.6
-78913.1
-78327.7
-77756.9
-77200.1
-76656.8
-76126.7
-75609.2
-75104.1
-74610.8
-74129
-73658.3
-73198.4
-72749
-72309.7
-71880.2
-71460.3
-71049.4
-70648.1
-70253.8
-69870.8
-69487.6
-69126.2
-68769.2
-68411.2
-68063.8
-67723.5
-67390.1
-67063.8
-66743.9
-66430.4
-66123
-65821.6
-65525.9
-65235.9
-64951.4
-64672.1
-64398.1
-64129
-63864.9
-63605.5
-63350.8
-63100.5
-62854.6
-62612.9
-62375.4
-62141.4
-61912.2
-61684.6
-61464.9
-61247
-61033.4
-60822.8
-60615.6
-60411.7
-60211
-60013.4
-59818.9
-59627.5
-59439
-59253.4
-59070.6
-58890.6
-58713.2
-58538.5
-58366.4
-58196.8
-58029.6
-57864.9
-57702.5
-57542.4
-57384.6
-57228.9
-57075.4
-56924
-56774.7
-56627.4
-56481.9
-56338.8
-56196.7
-56058.2
-55918
-55786.4
-55643.4
-55527.3
-55347.9
-91589.8
-90382.3
-89651.8
-88711.9
-87918.2
-87084.3
-86305.8
-85531.6
-84787.2
-84058.2
-83350.8
-82660.8
-81989.4
-81335
-80697.4
-80075.9
-79470
-78879.2
-78302.8
-77740.6
-77191.9
-76656.3
-76133.4
-75622.8
-75124.1
-74636.9
-74160.9
-73695.7
-73241.2
-72796.7
-72362.6
-71937.6
-71524.8
-71117
-70735.6
-70333
-69870.6
-69576.9
-69223.6
-68847.8
-68497.2
-68149.4
-67811.6
-67480
-67155.4
-66837.2
-66525.1
-66219.1
-65918.9
-65624.4
-65335.3
-65051.7
-64773.2
-64499.8
-64231.4
-63967.8
-63708.8
-63454.4
-63204.3
-62958.7
-62716.8
-62479.8
-62244.6
-62015.6
-61790.6
-61569
-61351.2
-61136.6
-60925.6
-60717.8
-60513.3
-60312
-60113.8
-59918.7
-59726.5
-59537.3
-59351
-59167.5
-58986.6
-58808.5
-58632.9
-58459.9
-58289.4
-58121.3
-57955.6
-57792.2
-57631.2
-57472.3
-57315.6
-57161
-57008.6
-56858
-56709.9
-56562.8
-56419.5
-56274.5
-56138.1
-55990.5
-55869.7
-55686
-93128.9
-91883.8
-91127.3
-90156.6
-89335.9
-88474.2
-87669.4
-86869.3
-86099.9
-85346.3
-84615.2
-83902.1
-83208.1
-82531.7
-81872.7
-81230.3
-80604
-79993.3
-79397.6
-78816.4
-78249.3
-77695.7
-77155.2
-76627.4
-76111.9
-75608.3
-75116.3
-74635.5
-74165.5
-73706
-73256.8
-72817.5
-72388
-71968.1
-71557.1
-71158.7
-70759.2
-70364.5
-69992.9
-69620
-69257.8
-68901.2
-68552.4
-68210.2
-67874.8
-67546
-67223.5
-66907.2
-66596.9
-66292.5
-65993.7
-65700.5
-65412.7
-65130.2
-64852.8
-64580.3
-64312.8
-64049.7
-63791.4
-63537
-63286.1
-63040.3
-62783.9
-62561.3
-62329.1
-62101
-61876.1
-61654.1
-61436
-61221
-61009.6
-60801.5
-60596.6
-60394.9
-60196.3
-60000.7
-59808.1
-59618.4
-59431.5
-59247.3
-59065.9
-58887
-58710.8
-58537.1
-58365.8
-58197
-58030.5
-57866.3
-57704.3
-57544.6
-57387.1
-57231.4
-57078.3
-56926.3
-56778.1
-56628.4
-56487.2
-56335
-56209.6
-56021.7
-94656.3
-93374
-92591.6
-91590.4
-90742.8
-89853.5
-89022.7
-88196.9
-87402.6
-86624.8
-85870.1
-85133.9
-84417.5
-83719.3
-83039.1
-82375.9
-81729.5
-81099
-80484.1
-79884.2
-79298.8
-78727.2
-78169.3
-77624.4
-77092.3
-76572.4
-76064.5
-75568.1
-75082.9
-74608.5
-74144.7
-73690.9
-73246.9
-72812.4
-72384.2
-71969
-71531.3
-71161.5
-70770.3
-70390.3
-70015.8
-69648.3
-69288.2
-68935.1
-68588.9
-68249.5
-67916.6
-67590.1
-67269.8
-66955.5
-66647.1
-66344.5
-66047.4
-65755.7
-65469.3
-65188.1
-64911.9
-64640.6
-64374.3
-64112.7
-63855.1
-63605.5
-63350.3
-63101.2
-62866.2
-62628.3
-62396.8
-62167.3
-61942.2
-61720.3
-61502
-61287.2
-61075.7
-60867.4
-60662.4
-60460.5
-60261.7
-60065.9
-59872.9
-59682.8
-59495.5
-59310.9
-59129
-58949.7
-58772.9
-58598.6
-58426.7
-58257.2
-58090.1
-57925.2
-57762.6
-57601.9
-57443.9
-57287
-57134
-56979.5
-56833.7
-56676.8
-56546.8
-56354.8
-96171.8
-94852.5
-94044.4
-93013
-92138.7
-91222.1
-90365.4
-89514.1
-88695.1
-87893.2
-87115.1
-86356.1
-85617.5
-84897.6
-84196.2
-83512.5
-82846
-82196
-81562.1
-80943.5
-80340
-79750.7
-79175.4
-78613.6
-78064.9
-77528.9
-77005.2
-76493.3
-75993
-75503.9
-75025.5
-74557.7
-74099.8
-73652.1
-73212.9
-72784.7
-72361.1
-71950.9
-71548.7
-71154.4
-70768.2
-70389.3
-70018.1
-69654.1
-69297.3
-68947.4
-68604.2
-68267.6
-67937.4
-67613.3
-67295.4
-66983.3
-66677.1
-66376.3
-66081.2
-65791.3
-65507.2
-65227.3
-64955.7
-64683.7
-64433.7
-64156.3
-63872.9
-63647
-63415.4
-63155.6
-62917.6
-62677.9
-62445.6
-62216.1
-61990.9
-61769.2
-61551.1
-61336.3
-61124.9
-60916.8
-60711.8
-60509.8
-60310.9
-60114.9
-59921.8
-59731.5
-59543.9
-59359
-59176.8
-58997
-58819.9
-58645.1
-58472.8
-58302.7
-58135.1
-57969.5
-57806.6
-57644.9
-57487.1
-57327.9
-57177.4
-57016
-56881.4
-56685.2
-97674.9
-96318.9
-95485.4
-94424
-93523.2
-92579.5
-91697.2
-90820.5
-89977.1
-89151.3
-88349.9
-87568.3
-86807.7
-86066.3
-85344
-84639.9
-83953.5
-83284.1
-82631.4
-81994.3
-81373
-80765.8
-80173.4
-79594.7
-79029.6
-78477.6
-77938.2
-77411
-76895.7
-76391.9
-75899.1
-75417.2
-74945.3
-74483.9
-74030.7
-73589.3
-73151.4
-72732.6
-72317.2
-71912.3
-71514.3
-71124.5
-70742.2
-70367.4
-70000
-69639.6
-69286.2
-68939.5
-68599.5
-68265.8
-67938.3
-67616.9
-67301.4
-66991.7
-66687.6
-66388.8
-66095.5
-65807.1
-65524.2
-65244.7
-64972.3
-64698
-64437.7
-64183.6
-63924.8
-63673.4
-63425.7
-63182.1
-62942.6
-62707
-62475.2
-62247
-62022.4
-61801.3
-61583.6
-61369.2
-61158.1
-60950.1
-60745.3
-60543.4
-60344.5
-60148.6
-59955.4
-59765
-59577.3
-59392.2
-59209.7
-59029.8
-58852.3
-58677.2
-58504.6
-58334.1
-58166.3
-57999.8
-57837.2
-57673.3
-57518.2
-57352.3
-57213.1
-57013
-99165.3
-97772.9
-96914.2
-95823
-94896
-93925.4
-93017.6
-92115.8
-91248.2
-90398.7
-89574.3
-88770.2
-87987.7
-87225
-86482
-85757.6
-85051.5
-84362.9
-83691.3
-83035.9
-82396.8
-81772.3
-81162.8
-80567.5
-79986.1
-79418.2
-78863.3
-78320.9
-77790.8
-77272.5
-76765.5
-76269.7
-75784.5
-75309.9
-74844.9
-74390.4
-73944.2
-73509
-73082.1
-72664.3
-72254.8
-71853.6
-71460.3
-71074.7
-70696.7
-70326
-69962.4
-69605.8
-69255.9
-68912.7
-68575.8
-68245.1
-67920.6
-67601.9
-67289.1
-66981.7
-66680
-66383.3
-66092
-65805
-65522.3
-65244.8
-64958.2
-64706.2
-64443.8
-64186.6
-63932.7
-63682.4
-63436.3
-63193.9
-62955.5
-62720.8
-62489.7
-62262.3
-62038.3
-61817.8
-61600.6
-61386.7
-61175.9
-60968.3
-60763.7
-60562.1
-60363.4
-60167.5
-59974.4
-59784
-59596.3
-59411.2
-59228.6
-59048.5
-58870.9
-58695.5
-58522.8
-58351.6
-58184.3
-58015.8
-57856.1
-57685.7
-57542
-57337.9
-100643
-99214.2
-98330.5
-97209.7
-96256.8
-95259.5
-94326.5
-93399.8
-92508.1
-91635.1