/*--------------------------------*- C++ -*----------------------------------*\
| =========                 |                                                 |
| \\      /  F ield         | foam-extend: Open Source CFD                    |
|  \\    /   O peration     | Version:     4.1                                |
|   \\  /    A nd           | Web:         http://www.foam-extend.org         |
|    \\/     M anipulation  |                                                 |
\*---------------------------------------------------------------------------*/
FoamFile
{
    version     2.0;
    format      ascii;
    class       volScalarField;
    location    "1";
    object      sigmaEq;
}
// * * * * * * * * * * * * * * * * * * * * * * * * * * * * * * * * * * * * * //

dimensions      [1 -1 -2 0 0 0 0];

internalField   nonuniform List<scalar> 
100000
(
5.58612e+09
1.85882e+10
2.58383e+10
2.0758e+10
1.7217e+10
1.87186e+10
2.71964e+10
3.87486e+10
2.89464e+10
1.18279e+10
6.15925e+09
7.31303e+09
5.55884e+09
5.09397e+09
3.99176e+09
5.61265e+09
5.84146e+09
5.29974e+09
4.81146e+09
3.71884e+09
2.93257e+09
3.07264e+09
3.59214e+09
3.22274e+09
2.26633e+09
2.00528e+09
3.77369e+09
4.67562e+09
4.17357e+09
4.21012e+09
5.16613e+09
6.53855e+09
8.27923e+09
1.00644e+10
1.17292e+10
1.30241e+10
1.4559e+10
1.5921e+10
1.70563e+10
1.82077e+10
1.85495e+10
1.74151e+10
1.63131e+10
1.55598e+10
1.48003e+10
1.51411e+10
1.50216e+10
1.49891e+10
1.50338e+10
1.51086e+10
1.37227e+10
1.11145e+10
8.83064e+09
7.97875e+09
7.89698e+09
7.32375e+09
7.05599e+09
7.47592e+09
8.73495e+09
9.6799e+09
1.08584e+10
1.21017e+10
1.32982e+10
1.43245e+10
1.52899e+10
1.62256e+10
1.71361e+10
1.80173e+10
1.83044e+10
1.82917e+10
1.82833e+10
1.82785e+10
1.8277e+10
1.82794e+10
1.82851e+10
1.82977e+10
1.83169e+10
1.83417e+10
1.83726e+10
1.84087e+10
1.84547e+10
1.85112e+10
1.85749e+10
1.865e+10
1.92478e+10
1.96854e+10
2.01391e+10
2.05762e+10
2.09093e+10
2.12847e+10
2.16991e+10
2.21793e+10
2.27576e+10
2.33688e+10
2.39817e+10
2.47704e+10
2.58096e+10
2.70831e+10
2.89873e+10
3.17368e+10
1.41429e+10
3.03148e+10
3.06249e+10
2.61819e+10
2.65484e+10
3.16346e+10
3.49494e+10
2.08256e+10
6.90434e+09
1.01045e+10
1.2816e+10
1.12571e+10
4.8083e+09
4.19196e+09
5.37277e+09
6.93685e+09
8.04584e+09
7.96444e+09
7.48161e+09
6.73477e+09
5.99571e+09
5.01238e+09
3.32736e+09
1.67812e+09
2.14741e+09
4.41961e+09
7.29306e+09
1.01246e+10
1.13526e+10
1.27408e+10
1.43599e+10
1.6305e+10
1.8629e+10
2.00069e+10
2.09727e+10
2.10155e+10
2.13641e+10
2.18101e+10
2.21118e+10
2.26002e+10
2.31129e+10
2.3596e+10
2.2779e+10
2.16401e+10
2.01975e+10
1.8323e+10
1.62957e+10
1.5029e+10
1.37418e+10
1.24276e+10
1.16172e+10
1.10314e+10
9.7738e+09
9.36303e+09
1.06589e+10
1.21927e+10
1.34445e+10
1.46727e+10
1.60559e+10
1.71328e+10
1.72993e+10
1.74574e+10
1.76071e+10
1.77502e+10
1.78861e+10
1.80146e+10
1.81378e+10
1.82545e+10
1.83146e+10
1.83801e+10
1.83769e+10
1.83964e+10
1.84198e+10
1.8447e+10
1.84788e+10
1.85159e+10
1.85589e+10
1.86082e+10
1.86638e+10
1.87268e+10
1.87971e+10
1.88757e+10
1.89649e+10
1.90804e+10
1.95556e+10
1.97331e+10
2.00697e+10
2.05517e+10
2.10774e+10
2.1344e+10
2.16238e+10
2.20819e+10
2.26103e+10
2.31065e+10
2.35785e+10
2.40884e+10
2.44334e+10
2.46516e+10
2.49545e+10
2.37083e+10
3.05685e+10
3.67842e+10
3.49726e+10
3.14273e+10
3.50884e+10
2.60968e+10
1.00371e+10
6.57485e+09
1.01734e+10
9.97884e+09
1.15601e+10
1.64481e+10
1.53862e+10
1.07191e+10
6.91588e+09
4.90493e+09
2.93673e+09
1.76492e+09
2.66548e+09
3.45294e+09
3.71552e+09
5.61758e+09
9.56172e+09
1.30516e+10
1.66498e+10
1.83798e+10
2.05387e+10
2.35075e+10
2.44209e+10
2.454e+10
2.38645e+10
2.33061e+10
2.30054e+10
2.33572e+10
2.42278e+10
2.42339e+10
2.37625e+10
2.41425e+10
2.46077e+10
2.51584e+10
2.53248e+10
2.52705e+10
2.51485e+10
2.61157e+10
2.70367e+10
2.49856e+10
2.22392e+10
1.96227e+10
1.71462e+10
1.48114e+10
1.40821e+10
1.4776e+10
1.6097e+10
1.63882e+10
1.67992e+10
1.70701e+10
1.70654e+10
1.7065e+10
1.70661e+10
1.7071e+10
1.7079e+10
1.70884e+10
1.71011e+10
1.72434e+10
1.74121e+10
1.75755e+10
1.77315e+10
1.78838e+10
1.8012e+10
1.81111e+10
1.82564e+10
1.8399e+10
1.85401e+10
1.86797e+10
1.88212e+10
1.8965e+10
1.9111e+10
1.91877e+10
1.92394e+10
1.92973e+10
1.93637e+10
1.94368e+10
1.9519e+10
1.92618e+10
1.89969e+10
1.86318e+10
1.82748e+10
1.79988e+10
1.79226e+10
1.77569e+10
1.73911e+10
1.69162e+10
1.64131e+10
1.5933e+10
1.55492e+10
1.50093e+10
1.42506e+10
1.33526e+10
1.24909e+10
9.95227e+09
4.4485e+10
4.11557e+10
3.92868e+10
3.73078e+10
2.06494e+10
2.19858e+09
7.64515e+09
7.93842e+09
8.68857e+09
9.63597e+09
1.04531e+10
1.3378e+10
1.63114e+10
1.66591e+10
1.73721e+10
1.68772e+10
1.56097e+10
1.30575e+10
1.02153e+10
5.72409e+09
2.98171e+09
7.59476e+09
1.18225e+10
1.5116e+10
1.66617e+10
1.62136e+10
1.68688e+10
1.77998e+10
1.96751e+10
2.10084e+10
2.21143e+10
2.29798e+10
2.36685e+10
2.45549e+10
2.52856e+10
2.56417e+10
2.41669e+10
2.30484e+10
2.41001e+10
2.63095e+10
2.82727e+10
2.71698e+10
2.58177e+10
2.45163e+10
2.31312e+10
2.2018e+10
2.11257e+10
2.0078e+10
1.93199e+10
1.83858e+10
1.74601e+10
1.64643e+10
1.56518e+10
1.50579e+10
1.45651e+10
1.37429e+10
1.37645e+10
1.38656e+10
1.38297e+10
1.35921e+10
1.33409e+10
1.30737e+10
1.27952e+10
1.25065e+10
1.22074e+10
1.18762e+10
1.15024e+10
1.11213e+10
1.07344e+10
1.02856e+10
9.93733e+09
9.55433e+09
9.16316e+09
8.76497e+09
8.36049e+09
7.95261e+09
7.53232e+09
7.10596e+09
6.68358e+09
6.26116e+09
5.83787e+09
5.41503e+09
4.95481e+09
4.52676e+09
4.00672e+09
3.36555e+09
2.74618e+09
2.23186e+09
1.79756e+09
1.30474e+09
9.12175e+08
1.20311e+09
1.98073e+09
2.98462e+09
3.96829e+09
4.98413e+09
5.92768e+09
7.00576e+09
8.26976e+09
9.88714e+09
5.28536e+10
5.49465e+10
5.01463e+10
2.28167e+10
6.86576e+09
1.04028e+10
9.85735e+09
1.08245e+10
1.08759e+10
1.14989e+10
1.14633e+10
1.38723e+10
1.52792e+10
1.49026e+10
1.50489e+10
1.69965e+10
1.85714e+10
1.79113e+10
1.48317e+10
1.15006e+10
9.87746e+09
9.84571e+09
9.4719e+09
8.97657e+09
7.30136e+09
6.14271e+09
6.32266e+09
6.25726e+09
6.9622e+09
7.37851e+09
8.80108e+09
1.08541e+10
1.26595e+10
1.37709e+10
1.43105e+10
1.53526e+10
1.51448e+10
1.31417e+10
1.22274e+10
1.11931e+10
7.79073e+09
6.32171e+09
5.06698e+09
2.43961e+09
9.10296e+08
1.23579e+09
1.09181e+09
1.12336e+09
1.26778e+09
1.45244e+09
1.64205e+09
1.77036e+09
1.41201e+09
1.48488e+09
1.97658e+09
2.5567e+09
3.50601e+09
4.29212e+09
5.05713e+09
5.32204e+09
5.24696e+09
5.20759e+09
5.21318e+09
5.37607e+09
5.56223e+09
5.76729e+09
5.98615e+09
6.21734e+09
6.50397e+09
6.92825e+09
7.34548e+09
7.76715e+09
8.20673e+09
8.65615e+09
9.11032e+09
9.56923e+09
1.01273e+10
1.06232e+10
1.10943e+10
1.15684e+10
1.20609e+10
1.28343e+10
1.36406e+10
1.40338e+10
1.46796e+10
1.4952e+10
1.51729e+10
1.58629e+10
1.65025e+10
1.67878e+10
1.68278e+10
1.67453e+10
1.66671e+10
1.66218e+10
1.66062e+10
1.69684e+10
1.74942e+10
1.80439e+10
1.83477e+10
1.86248e+10
5.5262e+10
6.27166e+10
3.98238e+10
2.27067e+10
1.51994e+10
9.33279e+09
4.43092e+09
6.61179e+09
1.08951e+10
1.34544e+10
1.4101e+10
1.49015e+10
1.56415e+10
1.55312e+10
1.39781e+10
1.03697e+10
8.63687e+09
9.78507e+09
1.19978e+10
1.23046e+10
1.08971e+10
9.72426e+09
9.20523e+09
8.10367e+09
6.44093e+09
5.38781e+09
5.05495e+09
4.73867e+09
3.44333e+09
2.14676e+09
2.99594e+09
3.69201e+09
4.9157e+09
5.71371e+09
6.06229e+09
6.35731e+09
6.19015e+09
7.41055e+09
1.0483e+10
1.4392e+10
1.72351e+10
1.69822e+10
1.64897e+10
1.64638e+10
1.64452e+10
1.64185e+10
1.63653e+10
1.6313e+10
1.62644e+10
1.6224e+10
1.61864e+10
1.61563e+10
1.61321e+10
1.60583e+10
1.6074e+10
1.6161e+10
1.70886e+10
1.80817e+10
1.88813e+10
1.94956e+10
2.01158e+10
2.07225e+10
2.13181e+10
2.11341e+10
2.10629e+10
2.09769e+10
2.08663e+10
2.07663e+10
2.07592e+10
2.07855e+10
2.0816e+10
2.08368e+10
2.08504e+10
2.07877e+10
2.10267e+10
2.12009e+10
2.13576e+10
2.16183e+10
2.20878e+10
2.25678e+10
2.30545e+10
2.35387e+10
2.39715e+10
2.43621e+10
2.50938e+10
2.5251e+10
2.527e+10
2.53553e+10
2.55866e+10
2.58256e+10
2.6017e+10
2.61807e+10
2.61252e+10
2.59717e+10
2.58648e+10
2.57781e+10
2.5705e+10
2.57523e+10
2.57525e+10
2.5699e+10
5.00774e+10
3.5316e+10
2.86565e+10
2.84651e+10
2.11772e+10
1.54775e+10
8.68998e+09
4.68973e+09
1.46277e+09
4.60113e+09
7.07723e+09
9.49094e+09
1.20464e+10
1.02013e+10
8.962e+09
1.06028e+10
1.20338e+10
1.24511e+10
1.2017e+10
1.03569e+10
9.43409e+09
1.0106e+10
9.74914e+09
7.65199e+09
5.74108e+09
5.06424e+09
4.79447e+09
4.65165e+09
7.65678e+09
1.08298e+10
1.40102e+10
1.56049e+10
1.73205e+10
1.83093e+10
1.91686e+10
2.02355e+10
2.06071e+10
2.0081e+10
1.906e+10
1.82824e+10
1.73386e+10
1.72225e+10
1.73495e+10
1.74696e+10
1.75843e+10
1.76894e+10
1.77716e+10
1.7865e+10
1.79559e+10
1.81185e+10
1.82912e+10
1.84716e+10
1.86675e+10
1.86404e+10
1.82532e+10
1.78597e+10
1.74513e+10
1.70332e+10
1.6605e+10
1.67127e+10
1.75133e+10
1.89089e+10
2.0103e+10
2.11146e+10
2.21227e+10
2.30931e+10
2.40294e+10
2.49348e+10
2.57667e+10
2.64988e+10
2.7267e+10
2.77788e+10
2.82515e+10
2.89257e+10
2.96246e+10
3.02803e+10
3.08962e+10
3.15209e+10
3.21592e+10
3.23429e+10
3.37011e+10
3.41616e+10
3.45751e+10
3.48733e+10
3.43346e+10
3.50382e+10
3.62339e+10
3.60145e+10
3.58506e+10
3.59614e+10
3.61301e+10
3.63214e+10
3.65366e+10
3.67826e+10
3.70597e+10
3.69927e+10
3.66602e+10
3.64182e+10
3.62397e+10
3.62123e+10
2.66134e+10
1.32196e+10
2.62187e+10
3.088e+10
2.25695e+10
1.68696e+10
1.045e+10
9.24232e+09
7.48876e+09
6.40175e+09
4.83517e+09
5.41995e+09
8.96381e+09
1.4511e+10
1.86418e+10
1.97306e+10
1.92902e+10
1.94932e+10
1.8712e+10
1.72358e+10
1.65709e+10
1.55753e+10
1.4059e+10
1.21517e+10
6.30047e+09
4.01965e+09
8.09232e+09
1.28235e+10
1.62352e+10
1.83188e+10
1.95262e+10
2.01905e+10
1.71641e+10
1.6388e+10
1.64207e+10
1.65094e+10
1.67266e+10
1.57466e+10
1.42032e+10
1.34182e+10
1.30015e+10
1.21356e+10
1.18586e+10
1.17243e+10
1.15591e+10
1.1368e+10
1.12493e+10
1.14333e+10
1.21061e+10
1.30285e+10
1.39095e+10
1.47561e+10
1.55207e+10
1.60467e+10
1.65527e+10
1.70637e+10
1.75516e+10
1.8015e+10
1.84608e+10
1.89083e+10
1.9434e+10
1.99109e+10
2.02129e+10
2.12038e+10
2.20631e+10
2.28838e+10
2.36692e+10
2.44169e+10
2.50484e+10
2.59259e+10
2.69871e+10
2.79156e+10
2.87602e+10
2.96633e+10
3.0213e+10
3.0818e+10
3.14248e+10
3.19061e+10
3.22063e+10
3.24764e+10
3.27158e+10
3.29526e+10
3.31778e+10
3.33976e+10
3.36416e+10
3.43194e+10
3.458e+10
3.48219e+10
3.49155e+10
3.50351e+10
3.51811e+10
3.4672e+10
3.355e+10
3.24532e+10
3.10885e+10
2.9294e+10
2.7678e+10
2.59307e+10
2.45596e+10
2.35624e+10
1.09665e+10
1.15148e+10
2.06753e+10
3.42605e+10
2.61839e+10
1.74215e+10
1.0959e+10
9.52191e+09
8.72595e+09
7.46881e+09
1.28124e+10
1.87755e+10
2.30841e+10
2.48876e+10
2.52782e+10
2.53916e+10
2.55124e+10
2.60955e+10
2.61223e+10
2.55477e+10
2.51459e+10
1.95952e+10
1.19666e+10
1.63847e+09
8.04691e+09
1.22306e+10
1.34103e+10
1.34755e+10
9.80751e+09
6.66323e+09
3.62345e+09
3.39141e+09
3.91861e+09
4.29598e+09
4.80437e+09
5.7008e+09
6.41964e+09
6.83361e+09
8.3967e+09
9.44404e+09
1.01562e+10
1.0492e+10
1.08319e+10
1.14461e+10
1.20776e+10
1.27457e+10
1.35596e+10
1.44165e+10
1.52881e+10
1.5961e+10
1.65188e+10
1.70339e+10
1.74536e+10
1.78768e+10
1.87983e+10
1.97219e+10
2.06362e+10
2.15384e+10
2.24292e+10
2.33102e+10
2.3823e+10
2.38899e+10
2.41044e+10
2.43658e+10
2.46293e+10
2.49509e+10
2.54338e+10
2.59085e+10
2.64244e+10
2.69804e+10
2.7448e+10
2.80824e+10
2.84342e+10
2.85857e+10
2.86931e+10
2.87999e+10
2.79169e+10
2.57801e+10
2.36477e+10
2.13698e+10
1.91462e+10
1.69802e+10
1.48781e+10
1.29565e+10
1.11515e+10
9.16914e+09
7.43998e+09
5.84659e+09
4.20257e+09
2.22906e+09
2.98216e+08
3.05644e+09
5.19175e+09
6.95478e+09
9.04522e+09
1.084e+10
1.21834e+10
1.36677e+10
1.49628e+10
1.90867e+10
1.08458e+10
1.0207e+10
1.59779e+10
3.13221e+10
2.97832e+10
1.99085e+10
1.27874e+10
9.86174e+09
1.15198e+10
1.67048e+10
2.3662e+10
2.60042e+10
2.55385e+10
2.47709e+10
2.53393e+10
2.51476e+10
2.46586e+10
2.43092e+10
2.09067e+10
1.41425e+10
4.54938e+09
7.04936e+09
1.5699e+10
2.01587e+10
1.72313e+10
1.22995e+10
8.6406e+09
5.55924e+09
5.41789e+09
6.79026e+09
7.82328e+09
8.79095e+09
9.90449e+09
1.10252e+10
1.24629e+10
1.38676e+10
1.48245e+10
1.62795e+10
1.81401e+10
1.89845e+10
2.01956e+10
2.13646e+10
2.19827e+10
2.24581e+10
2.30036e+10
2.38663e+10
2.46454e+10
2.50737e+10
2.49997e+10
2.47839e+10
2.46212e+10
2.44627e+10
2.42746e+10
2.40655e+10
2.42807e+10
2.454e+10
2.47959e+10
2.50454e+10
2.52783e+10
2.55063e+10
2.57616e+10
2.60336e+10
2.64793e+10
2.68889e+10
2.49695e+10
2.31022e+10
2.12499e+10
1.93776e+10
1.75299e+10
1.54296e+10
1.31833e+10
1.09552e+10
8.80722e+09
6.86554e+09
5.22018e+09
2.9321e+09
1.0803e+09
3.81736e+09
5.67239e+09
7.72397e+09
9.85386e+09
1.1963e+10
1.41141e+10
1.68428e+10
1.9535e+10
2.25816e+10
2.50969e+10
2.74914e+10
2.99069e+10
3.1119e+10
3.20752e+10
3.22618e+10
3.16376e+10
3.10263e+10
3.02129e+10
2.91569e+10
2.81665e+10
2.71319e+10
2.62159e+10
2.45114e+10
8.84492e+09
8.91095e+09
1.39709e+10
2.66608e+10
3.01227e+10
2.28193e+10
1.61252e+10
1.58505e+10
2.09847e+10
2.69501e+10
2.71632e+10
2.65742e+10
2.58385e+10
2.39576e+10
2.37711e+10
1.97776e+10
1.3571e+10
9.58365e+09
1.40575e+10
2.2519e+10
2.99541e+10
2.89403e+10
2.62401e+10
2.2714e+10
1.98832e+10
1.79833e+10
1.92449e+10
2.08643e+10
2.25385e+10
2.40791e+10
2.54511e+10
2.67714e+10
2.76849e+10
2.87711e+10
2.96433e+10
3.01378e+10
3.05595e+10
3.09174e+10
3.04748e+10
2.99719e+10
2.95423e+10
2.94031e+10
2.9037e+10
2.84059e+10
2.7778e+10
2.71181e+10
2.65525e+10
2.64496e+10
2.64313e+10
2.6498e+10
2.61779e+10
2.38817e+10
2.15076e+10
1.93923e+10
1.74246e+10
1.53847e+10
1.2364e+10
1.13513e+10
9.47554e+09
7.80725e+09
6.29332e+09
5.20397e+09
4.79957e+09
2.64465e+09
4.50739e+09
6.70758e+09
9.08728e+09
1.14614e+10
1.38198e+10
1.61572e+10
1.84726e+10
2.07788e+10
2.287e+10
2.50893e+10
2.67353e+10
2.80435e+10
2.86068e+10
2.84515e+10
2.83039e+10
2.8163e+10
2.80076e+10
2.78521e+10
2.77609e+10
2.759e+10
2.74157e+10
2.73131e+10
2.66925e+10
2.59141e+10
2.47883e+10
2.34202e+10
2.22993e+10
2.11891e+10
2.01054e+10
1.90719e+10
1.81045e+10
1.71374e+10
1.61733e+10
1.51791e+10
1.42988e+10
1.36038e+10
7.43053e+09
7.17705e+09
1.25752e+10
2.11291e+10
2.33496e+10
2.13707e+10
1.89201e+10
2.38151e+10
2.67789e+10
2.50614e+10
2.42161e+10
2.22113e+10
2.01357e+10
1.10204e+10
9.85988e+09
1.6128e+10
2.6768e+10
3.80741e+10
4.43119e+10
4.19409e+10
3.78722e+10
3.38058e+10
2.92673e+10
2.87932e+10
3.00448e+10
3.1316e+10
3.25862e+10
3.34972e+10
3.40842e+10
3.35362e+10
3.33376e+10
3.34155e+10
3.38492e+10
3.41244e+10
3.35215e+10
3.08828e+10
2.82656e+10
2.56278e+10
2.25866e+10
1.99119e+10
1.74002e+10
1.58607e+10
1.40873e+10
1.21813e+10
1.01741e+10
7.96877e+09
6.16764e+09
4.85479e+09
4.23329e+09
4.07494e+09
3.71753e+09
5.94981e+09
8.19748e+09
1.03874e+10
1.23444e+10
1.41881e+10
1.59484e+10
1.75318e+10
1.90005e+10
2.04544e+10
2.18934e+10
2.33078e+10
2.49052e+10
2.64086e+10
2.55208e+10
2.4706e+10
2.39552e+10
2.31967e+10
2.24296e+10
2.16566e+10
2.13004e+10
2.13596e+10
2.13306e+10
2.10022e+10
2.07563e+10
2.05667e+10
2.04288e+10
2.0307e+10
2.0105e+10
1.97899e+10
1.94019e+10
1.90074e+10
1.88138e+10
1.80287e+10
1.72997e+10
1.61551e+10
1.48969e+10
1.36835e+10
1.25486e+10
1.25492e+10
1.26316e+10
1.27389e+10
1.2964e+10
1.32165e+10
1.31989e+10
1.29051e+10
1.26184e+10
1.23189e+10
1.20421e+10
1.18269e+10
7.98651e+09
6.9005e+09
1.66074e+10
2.29801e+10
1.78423e+10
9.96982e+09
1.49488e+10
1.82496e+10
1.75259e+10
1.56149e+10
1.15807e+10
7.45205e+09
1.49215e+10
2.74676e+10
3.76879e+10
4.44511e+10
4.41674e+10
3.98137e+10
3.44787e+10
2.95891e+10
2.51928e+10
2.37109e+10
1.96212e+10
1.72142e+10
1.53389e+10
1.428e+10
1.31895e+10
1.19776e+10
1.07168e+10
9.52338e+09
8.47559e+09
7.68863e+09
6.63579e+09
5.04379e+09
2.09868e+09
1.93412e+09
1.78023e+09
2.19522e+09
2.9641e+09
3.59953e+09
3.96802e+09
4.63493e+09
5.32472e+09
6.37279e+09
7.84151e+09
9.31234e+09
1.10198e+10
1.30808e+10
1.52027e+10
1.73212e+10
1.8715e+10
1.81056e+10
1.73848e+10
1.67584e+10
1.6122e+10
1.54926e+10
1.48381e+10
1.41577e+10
1.35256e+10
1.31687e+10
1.27953e+10
1.23455e+10
1.16202e+10
1.08769e+10
1.08766e+10
1.09411e+10
1.09868e+10
1.10154e+10
1.10273e+10
1.10357e+10
1.11215e+10
1.11747e+10
1.09987e+10
1.06719e+10
1.09339e+10
1.18199e+10
1.24801e+10
1.25699e+10
1.26626e+10
1.27581e+10
1.28571e+10
1.30234e+10
1.32611e+10
1.35429e+10
1.38176e+10
1.40067e+10
1.41945e+10
1.43182e+10
1.41529e+10
1.38289e+10
1.34949e+10
1.3135e+10
1.27836e+10
1.23264e+10
1.19461e+10
1.16454e+10
1.13576e+10
1.106e+10
1.06355e+10
9.99283e+09
9.42228e+09
1.57355e+10
2.08017e+10
2.20435e+10
1.28518e+10
1.52775e+10
2.78747e+10
2.95292e+10
2.73723e+10
1.14509e+10
5.74544e+09
1.81606e+10
2.72387e+10
2.61464e+10
2.66993e+10
2.38973e+10
1.92423e+10
1.27631e+10
6.81858e+09
4.84051e+09
3.17859e+09
3.04359e+09
3.85958e+09
5.25594e+09
7.34682e+09
9.68792e+09
1.13395e+10
1.23835e+10
1.35341e+10
1.46673e+10
1.4697e+10
1.47441e+10
1.51317e+10
1.54458e+10
1.53937e+10
1.39183e+10
1.23838e+10
1.08334e+10
9.27843e+09
7.70021e+09
6.34566e+09
5.54589e+09
4.55927e+09
3.62238e+09
2.95363e+09
2.68033e+09
2.37861e+09
2.05775e+09
1.89019e+09
1.29507e+09
7.06635e+08
1.53909e+08
8.32315e+08
1.50365e+09
1.57642e+09
1.53243e+09
1.44362e+09
7.53074e+08
6.69113e+08
1.68491e+09
2.68091e+09
3.67468e+09
4.71451e+09
5.7851e+09
6.98653e+09
7.87955e+09
8.57016e+09
9.42835e+09
1.03333e+10
1.12365e+10
1.17182e+10
1.17889e+10
1.18893e+10
1.21004e+10
1.22973e+10
1.25705e+10
1.27956e+10
1.30476e+10
1.33339e+10
1.36217e+10
1.39117e+10
1.40648e+10
1.38637e+10
1.36454e+10
1.34213e+10
1.31961e+10
1.29417e+10
1.26414e+10
1.2366e+10
1.20919e+10
1.17179e+10
1.11068e+10
1.04862e+10
9.84261e+09
8.92963e+09
8.0161e+09
7.10881e+09
6.12096e+09
5.01185e+09
4.28694e+09
1.00267e+10
2.08426e+10
2.22949e+10
1.41341e+10
2.04324e+10
3.78344e+10
4.49203e+10
3.21292e+10
1.91553e+10
1.91724e+10
1.48794e+10
1.35688e+10
1.259e+10
1.1371e+10
9.12201e+09
1.03202e+10
1.19214e+10
1.02464e+10
9.50668e+09
8.82221e+09
8.34127e+09
8.84413e+09
9.02645e+09
9.03485e+09
9.55197e+09
1.07628e+10
1.07556e+10
1.03989e+10
9.83389e+09
8.36617e+09
7.34973e+09
6.27918e+09
5.17144e+09
4.03392e+09
2.3105e+09
1.69193e+09
1.59557e+09
1.49763e+09
1.40343e+09
1.2072e+09
8.40671e+08
6.23963e+08
4.63283e+08
4.11486e+08
1.50992e+09
2.77879e+09
3.08903e+09
3.25809e+09
3.22836e+09
3.13031e+09
2.54254e+09
1.33169e+09
2.44048e+08
1.40222e+09
2.24628e+09
3.11935e+09
4.11282e+09
5.2774e+09
6.40697e+09
7.23866e+09
8.07289e+09
8.9651e+09
1.01083e+10
1.12525e+10
1.16478e+10
1.19319e+10
1.226e+10
1.26265e+10
1.29514e+10
1.32647e+10
1.3589e+10
1.38333e+10
1.4079e+10
1.4327e+10
1.4515e+10
1.41547e+10
1.38652e+10
1.36041e+10
1.33342e+10
1.3053e+10
1.27267e+10
1.24028e+10
1.19641e+10
1.14188e+10
1.08654e+10
1.02783e+10
9.69549e+09
9.17978e+09
8.68801e+09
7.8777e+09
6.98001e+09
6.09127e+09
5.26371e+09
4.0757e+09
2.60233e+09
1.20268e+09
1.11572e+09
2.50959e+09
3.81673e+09
4.61052e+09
1.05302e+10
2.55007e+10
1.55719e+10
2.32651e+10
4.12705e+10
3.54576e+10
8.68422e+09
1.75292e+10
2.50713e+10
1.91965e+10
1.40431e+10
1.20763e+10
8.36837e+09
9.33813e+09
1.53348e+10
1.63296e+10
1.58928e+10
1.38644e+10
1.144e+10
1.07682e+10
1.02983e+10
9.87475e+09
8.58052e+09
7.20713e+09
5.29959e+09
3.09716e+09
1.81887e+09
1.55539e+09
2.23622e+09
3.16425e+09
3.07743e+09
3.06996e+09
2.96231e+09
2.95714e+09
2.4737e+09
1.72963e+09
1.53542e+09
1.54056e+09
1.55638e+09
1.53637e+09
1.46936e+09
1.42118e+09
1.38382e+09
1.48648e+09
1.0999e+09
7.19572e+08
8.9472e+08
9.37456e+08
1.44585e+09
2.53681e+09
4.13028e+09
5.78961e+09
7.2988e+09
8.43199e+09
9.60369e+09
1.08696e+10
1.18429e+10
1.23783e+10
1.25882e+10
1.27472e+10
1.29033e+10
1.3064e+10
1.32289e+10
1.34159e+10
1.36518e+10
1.38898e+10
1.42248e+10
1.43894e+10
1.43112e+10
1.4193e+10
1.40492e+10
1.38997e+10
1.37693e+10
1.34729e+10
1.30263e+10
1.24751e+10
1.18585e+10
1.12781e+10
1.06823e+10
1.00908e+10
9.51776e+09
9.05804e+09
8.51805e+09
7.7195e+09
6.94547e+09
5.86893e+09
4.42731e+09
2.93918e+09
1.31453e+09
3.79176e+08
1.70234e+09
2.92117e+09
4.24037e+09
5.75321e+09
6.62901e+09
7.15125e+09
7.67504e+09
8.20071e+09
8.67688e+09
8.67273e+09
1.42393e+10
2.16921e+10
2.24349e+10
4.20606e+10
2.77602e+10
7.49535e+09
2.9144e+10
2.73085e+10
2.50152e+10
1.89025e+10
8.86972e+09
3.86386e+09
1.01852e+10
1.31649e+10
1.30807e+10
1.30493e+10
1.36827e+10
1.27584e+10
1.05236e+10
8.54514e+09
6.49398e+09
4.03021e+09
2.4254e+09
1.02207e+09
1.46036e+09
2.73297e+09
3.26267e+09
3.7354e+09
3.95097e+09
3.15508e+09
2.67231e+09
2.87695e+09
3.12328e+09
3.04242e+09
2.87524e+09
2.24341e+09
1.64444e+09
1.56062e+09
2.26838e+09
3.26143e+09
4.06978e+09
4.88671e+09
5.79373e+09
6.56148e+09
7.55496e+09
8.67763e+09
9.25647e+09
9.83142e+09
1.06763e+10
1.1623e+10
1.235e+10
1.25002e+10
1.27234e+10
1.29667e+10
1.33925e+10
1.37178e+10
1.40967e+10
1.46032e+10
1.47119e+10
1.46988e+10
1.46802e+10
1.4443e+10
1.42005e+10
1.37375e+10
1.32696e+10
1.27877e+10
1.23072e+10
1.17628e+10
1.12069e+10
1.07099e+10
1.02142e+10
9.79886e+09
9.334e+09
8.84591e+09
8.41423e+09
8.09793e+09
7.48111e+09
6.40868e+09
5.15166e+09
3.93243e+09
2.69024e+09
1.4916e+09
6.49295e+08
1.51966e+09
2.72114e+09
4.14738e+09
5.47671e+09
6.54965e+09
7.38051e+09
7.91088e+09
8.43999e+09
8.96701e+09
9.49119e+09
9.68811e+09
9.46511e+09
9.05279e+09
8.5054e+09
7.93312e+09
7.38474e+09
6.3383e+09
1.41687e+10
1.53886e+10
3.92472e+10
1.89463e+10
1.74495e+10
3.3218e+10
2.93866e+10
2.87517e+10
2.40899e+10
1.03677e+10
1.63134e+09
5.01543e+09
6.66999e+09
7.43075e+09
7.61144e+09
7.41044e+09
6.11377e+09
5.39722e+09
5.09503e+09
3.36354e+09
1.99597e+09
3.09398e+09
3.24254e+09
2.8093e+09
2.22387e+09
2.39027e+09
2.64635e+09
2.91955e+09
2.58088e+09
2.10265e+09
1.75888e+09
1.58971e+09
2.29202e+09
3.50964e+09
5.29556e+09
6.81409e+09
7.7643e+09
8.77258e+09
9.97397e+09
1.12202e+10
1.27013e+10
1.36411e+10
1.44169e+10
1.52737e+10
1.52845e+10
1.51052e+10
1.5076e+10
1.46244e+10
1.39524e+10
1.38148e+10
1.37982e+10
1.37932e+10
1.36432e+10
1.3245e+10
1.27984e+10
1.23816e+10
1.22612e+10
1.20342e+10
1.17509e+10
1.15353e+10
1.125e+10
1.07244e+10
1.01938e+10
9.64158e+09
9.10558e+09
8.57095e+09
7.93579e+09
7.15028e+09
6.54755e+09
5.45701e+09
4.23171e+09
3.06437e+09
2.07539e+09
1.64491e+09
1.79561e+09
2.25577e+09
3.00719e+09
4.18094e+09
5.29173e+09
6.29346e+09
7.22488e+09
8.02754e+09
8.71438e+09
9.10581e+09
9.5099e+09
9.72965e+09
9.43355e+09
8.85053e+09
8.28285e+09
7.75897e+09
7.23876e+09
6.72262e+09
6.21223e+09
5.71039e+09
5.12763e+09
4.53055e+09
4.05651e+09
3.66334e+09
3.37968e+09
2.73669e+09
2.00345e+10
2.30339e+10
4.95555e+09
2.41572e+10
3.7241e+10
3.41237e+10
3.09629e+10
2.44781e+10
1.56892e+10
9.89125e+09
1.04977e+10
8.80268e+09
6.15957e+09
4.21783e+09
2.1257e+09
2.15053e+09
2.62421e+09
2.20166e+09
2.37946e+09
3.27793e+09
4.02466e+09
1.38437e+09
1.24555e+09
6.69122e+08
7.43504e+08
2.39846e+09
3.18929e+09
3.61128e+09
4.0072e+09
4.67281e+09
5.86715e+09
7.04285e+09
8.18423e+09
9.30406e+09
1.03235e+10
1.1425e+10
1.22607e+10
1.23753e+10
1.19978e+10
1.19208e+10
1.21903e+10
1.22789e+10
1.23188e+10
1.22442e+10
1.21203e+10
1.18251e+10
1.15204e+10
1.13267e+10
1.06969e+10
9.94584e+09
9.49397e+09
9.10726e+09
8.66402e+09
8.1913e+09
7.72448e+09
7.23707e+09
6.70717e+09
6.12639e+09
5.71391e+09
5.35787e+09
4.43695e+09
3.55833e+09
2.87503e+09
2.38959e+09
1.96632e+09
1.82151e+09
2.02134e+09
2.70731e+09
3.47762e+09
4.52441e+09
5.57841e+09
6.60556e+09
7.64316e+09
8.69072e+09
9.56137e+09
1.03308e+10
1.08512e+10
1.06005e+10
1.01025e+10
9.59096e+09
8.94182e+09
8.25507e+09
7.59119e+09
6.93503e+09
6.32558e+09
5.68487e+09
4.90437e+09
4.2266e+09
3.83659e+09
3.48793e+09
3.54865e+09
3.62678e+09
3.70198e+09
3.77448e+09
3.8212e+09
4.07099e+09
4.49563e+09
4.99168e+09
5.62274e+09
6.03932e+09
1.47986e+10
2.15108e+10
3.11225e+10
3.44429e+10
3.90608e+10
3.59551e+10
2.80492e+10
1.90105e+10
1.39059e+10
1.39207e+10
1.51636e+10
1.68324e+10
1.55561e+10
1.30033e+10
9.82913e+09
6.99726e+09
3.44431e+09
7.04917e+08
1.44772e+09
3.29377e+09
4.80849e+09
4.17985e+09
3.6498e+09
3.59343e+09
3.21334e+09
3.0919e+09
3.65735e+09
5.23212e+09
6.30618e+09
7.04357e+09
7.74503e+09
8.3335e+09
8.59926e+09
8.49434e+09
8.01653e+09
7.53978e+09
6.97482e+09
6.42648e+09
6.10495e+09
5.91839e+09
5.56073e+09
5.53565e+09
5.45878e+09
5.35543e+09
5.23238e+09
5.06568e+09
4.76019e+09
4.45342e+09
4.18434e+09
3.29418e+09
2.76217e+09
2.89418e+09
3.28473e+09
3.54665e+09
3.79509e+09
4.15038e+09
4.60259e+09
5.13715e+09
5.73869e+09
6.19912e+09
6.75633e+09
7.26838e+09
7.83576e+09
8.42712e+09
9.0663e+09
9.72035e+09
1.01156e+10
1.03519e+10
1.05263e+10
1.01534e+10
9.6205e+09
9.08631e+09
8.55307e+09
7.98098e+09
7.40695e+09
6.951e+09
6.45577e+09
5.97348e+09
5.50014e+09
5.11305e+09
4.82603e+09
4.66896e+09
4.76336e+09
4.85694e+09
4.93782e+09
4.90248e+09
4.99779e+09
5.35697e+09
5.73188e+09
6.2251e+09
6.76747e+09
7.1094e+09
7.44371e+09
7.76732e+09
8.09539e+09
8.46998e+09
8.899e+09
9.36105e+09
9.70551e+09
9.5604e+09
2.60343e+10
3.08546e+10
2.65244e+10
3.33452e+10
3.39622e+10
2.70791e+10
1.92924e+10
1.31711e+10
1.1147e+10
1.09476e+10
1.11725e+10
1.19619e+10
1.2037e+10
1.22356e+10
1.14325e+10
9.35629e+09
7.21898e+09
4.98792e+09
2.3673e+09
7.14204e+08
2.83549e+09
3.51805e+09
4.54403e+09
5.77714e+09
5.66662e+09
4.98234e+09
4.82653e+09
4.68346e+09
4.47329e+09
4.52782e+09
3.86702e+09
3.14241e+09
2.32812e+09
1.48665e+09
1.02907e+09
7.90155e+08
5.08779e+08
2.09191e+08
7.75527e+08
1.18433e+09
1.79981e+09
2.42528e+09
2.76564e+09
3.10042e+09
3.47887e+09
3.89751e+09
4.35247e+09
5.02385e+09
5.63826e+09
6.13418e+09
7.14387e+09
8.49545e+09
9.80968e+09
1.03854e+10
1.07172e+10
1.10405e+10
1.13718e+10
1.17098e+10
1.20554e+10
1.2328e+10
1.20441e+10
1.15942e+10
1.11431e+10
1.06361e+10
9.90188e+09
9.17801e+09
8.46401e+09
7.75531e+09
7.05432e+09
6.35722e+09
5.77802e+09
5.33387e+09
4.98426e+09
4.84222e+09
4.8909e+09
4.95775e+09
5.0237e+09
5.40951e+09
5.8317e+09
6.26624e+09
6.74219e+09
7.30078e+09
7.87582e+09
8.34733e+09
8.81059e+09
9.27661e+09
9.73645e+09
1.01722e+10
1.05174e+10
1.08218e+10
1.0707e+10
1.05786e+10
1.04584e+10
1.03412e+10
1.02806e+10
1.04794e+10
1.06678e+10
1.08458e+10
1.0757e+10
9.78947e+09
2.40065e+10
2.76589e+10
2.17635e+10
2.29371e+10
2.2605e+10
1.89327e+10
1.46077e+10
8.92381e+09
7.17449e+09
7.53639e+09
7.90852e+09
9.28557e+09
9.54484e+09
9.80717e+09
9.80723e+09
9.81699e+09
9.83513e+09
9.51707e+09
8.20149e+09
7.4507e+09
6.2801e+09
4.42012e+09
3.65662e+09
1.99098e+09
1.52305e+09
2.53013e+09
3.15321e+09
2.70799e+09
1.70065e+09
7.63904e+08
4.67716e+08
1.58975e+09
2.58843e+09
3.21604e+09
3.80644e+09
4.42724e+09
5.02615e+09
5.37525e+09
5.84525e+09
6.35426e+09
6.79915e+09
7.44153e+09
8.07204e+09
8.48917e+09
8.86259e+09
9.24114e+09
9.62475e+09
1.00151e+10
1.04755e+10
1.06108e+10
1.04159e+10
1.03836e+10
1.07226e+10
1.10937e+10
1.12855e+10
1.08641e+10
1.04353e+10
1.00024e+10
9.58088e+09
9.17896e+09
8.75974e+09
8.45315e+09
8.24721e+09
8.04583e+09
7.84763e+09
7.65352e+09
7.638e+09
7.64945e+09
7.73499e+09
7.82281e+09
7.92598e+09
8.06295e+09
8.23751e+09
8.43459e+09
8.70764e+09
9.0306e+09
9.33682e+09
9.64161e+09
9.95323e+09
1.02633e+10
1.05753e+10
1.0878e+10
1.09191e+10
1.09264e+10
1.09303e+10
1.08968e+10
1.08582e+10
1.08214e+10
1.07912e+10
1.07612e+10
1.07719e+10
1.10249e+10
1.12762e+10
1.15287e+10
1.0926e+10
1.03008e+10
9.55391e+09
8.89507e+09
8.63148e+09
8.30637e+09
2.17009e+10
2.05258e+10
1.19873e+10
1.82877e+10
2.25576e+10
1.83026e+10
1.38914e+10
1.05887e+10
8.22701e+09
7.46622e+09
7.75278e+09
9.13881e+09
9.55422e+09
9.80896e+09
9.87791e+09
9.95599e+09
1.00294e+10
1.01079e+10
9.99036e+09
1.05391e+10
1.04153e+10
9.97446e+09
9.87164e+09
9.12922e+09
7.31517e+09
6.81706e+09
6.67923e+09
6.17092e+09
5.93161e+09
6.19805e+09
6.32993e+09
6.50811e+09
6.63851e+09
6.60248e+09
6.83133e+09
7.02886e+09
7.12393e+09
6.90574e+09
7.08198e+09
7.4577e+09
7.54399e+09
7.51587e+09
7.70653e+09
7.87306e+09
7.94618e+09
7.86852e+09
7.77741e+09
7.67262e+09
7.55625e+09
7.50855e+09
7.55965e+09
7.5042e+09
7.47367e+09
7.80712e+09
8.47564e+09
9.19118e+09
9.73714e+09
9.81897e+09
9.82549e+09
9.91658e+09
1.00894e+10
1.02644e+10
1.04737e+10
1.07019e+10
1.09356e+10
1.11762e+10
1.14217e+10
1.16722e+10
1.19267e+10
1.21849e+10
1.2336e+10
1.23623e+10
1.23056e+10
1.20587e+10
1.1839e+10
1.16261e+10
1.14043e+10
1.11882e+10
1.09866e+10
1.08998e+10
1.08587e+10
1.0819e+10
1.07732e+10
1.0771e+10
1.07779e+10
1.07871e+10
1.0813e+10
1.10691e+10
1.13225e+10
1.09569e+10
1.03212e+10
9.71824e+09
9.0362e+09
7.92146e+09
7.74204e+09
7.7397e+09
7.77837e+09
8.09522e+09
8.48334e+09
7.35821e+09
9.07966e+09
1.07381e+10
9.3198e+09
1.81572e+10
2.45828e+10
2.00327e+10
1.01289e+10
1.09696e+10
1.03855e+10
8.20271e+09
7.94055e+09
9.23708e+09
9.71449e+09
9.9228e+09
1.00195e+10
1.00751e+10
9.9008e+09
9.74358e+09
9.81961e+09
1.00134e+10
1.00257e+10
9.35717e+09
1.01426e+10
1.02822e+10
9.7919e+09
9.67492e+09
9.98218e+09
1.01003e+10
9.8253e+09
9.75104e+09
9.61883e+09
9.29264e+09
8.99053e+09
8.71407e+09
8.47264e+09
8.25178e+09
7.82484e+09
7.51224e+09
7.46421e+09
7.58788e+09
7.8794e+09
7.89342e+09
7.82027e+09
7.94986e+09
8.12657e+09
8.29932e+09
8.34504e+09
8.34473e+09
8.4036e+09
8.48211e+09
8.57332e+09
8.81397e+09
9.13996e+09
9.3719e+09
9.58209e+09
1.02633e+10
1.1021e+10
1.18002e+10
1.25131e+10
1.30144e+10
1.32111e+10
1.3276e+10
1.32428e+10
1.3211e+10
1.31798e+10
1.31496e+10
1.31196e+10
1.3091e+10
1.30632e+10
1.30369e+10
1.30111e+10
1.29858e+10
1.29613e+10
1.29374e+10
1.28224e+10
1.25572e+10
1.22982e+10
1.20466e+10
1.18226e+10
1.16118e+10
1.1395e+10
1.11792e+10
1.10003e+10
1.11021e+10
1.08528e+10
1.01872e+10
9.59745e+09
9.03958e+09
8.10045e+09
7.14086e+09
6.58299e+09
6.59434e+09
6.60286e+09
5.87489e+09
6.2249e+09
5.96148e+09
4.96282e+09
3.57326e+09
5.21719e+08
6.09222e+09
8.28887e+09
1.39765e+10
1.13702e+10
1.80997e+10
2.44877e+10
2.00352e+10
1.02417e+10
6.25929e+09
1.10075e+10
1.04961e+10
8.37291e+09
9.33013e+09
9.81174e+09
9.84794e+09
9.62677e+09
9.49636e+09
9.35258e+09
8.98285e+09
9.58153e+09
9.68798e+09
1.0029e+10
9.83367e+09
1.04947e+10
1.06947e+10
1.06845e+10
1.01377e+10
1.01612e+10
1.01885e+10
1.00397e+10
9.81588e+09
9.75868e+09
9.77782e+09
9.78745e+09
9.78988e+09
9.79232e+09
9.74079e+09
9.41445e+09
9.40664e+09
9.40557e+09
9.40067e+09
9.63489e+09
9.98575e+09
1.00725e+10
1.00647e+10
1.01193e+10
1.02929e+10
1.04548e+10
1.06094e+10