# Time Dx Dy Dz magD
1 0 -3.41371e-07 0 3.41371e-07
