/*--------------------------------*- C++ -*----------------------------------*\
| =========                 |                                                 |
| \\      /  F ield         | foam-extend: Open Source CFD                    |
|  \\    /   O peration     | Version:     4.1                                |
|   \\  /    A nd           | Web:         http://www.foam-extend.org         |
|    \\/     M anipulation  |                                                 |
\*---------------------------------------------------------------------------*/
FoamFile
{
    version     2.0;
    format      ascii;
    class       volVectorField;
    location    "7";
    object      D_0;
}
// * * * * * * * * * * * * * * * * * * * * * * * * * * * * * * * * * * * * * //

dimensions      [0 1 0 0 0 0 0];

internalField   nonuniform List<vector> 
100000
(
(3.44808e-06 -1.43053e-06 1.23457e-06)
(3.41997e-06 -1.41132e-06 1.41753e-06)
(3.3931e-06 -1.39299e-06 1.21897e-06)
(3.36742e-06 -1.3756e-06 8.69622e-07)
(3.34289e-06 -1.35905e-06 1.67488e-07)
(3.31945e-06 -1.34333e-06 -5.48796e-07)
(3.29705e-06 -1.32839e-06 1.54908e-07)
(3.27566e-06 -1.3142e-06 2.97763e-06)
(3.25523e-06 -1.30072e-06 4.51082e-06)
(3.23571e-06 -1.28791e-06 4.7192e-06)
(3.21708e-06 -1.27576e-06 5.46509e-06)
(3.19929e-06 -1.26422e-06 5.62672e-06)
(3.18231e-06 -1.25328e-06 5.48466e-06)
(3.16612e-06 -1.24289e-06 5.35339e-06)
(3.15067e-06 -1.23305e-06 5.18689e-06)
(3.13594e-06 -1.22373e-06 5.01917e-06)
(3.1219e-06 -1.2149e-06 4.86265e-06)
(3.10852e-06 -1.20654e-06 4.71677e-06)
(3.09579e-06 -1.19863e-06 4.5823e-06)
(3.08367e-06 -1.19116e-06 4.40054e-06)
(3.07214e-06 -1.1841e-06 4.15089e-06)
(3.06118e-06 -1.17744e-06 3.91627e-06)
(3.05077e-06 -1.17116e-06 3.69605e-06)
(3.04089e-06 -1.16524e-06 3.48964e-06)
(3.03151e-06 -1.15967e-06 3.27148e-06)
(3.02263e-06 -1.15444e-06 3.0257e-06)
(3.01422e-06 -1.14954e-06 2.79536e-06)
(3.00627e-06 -1.14494e-06 2.57985e-06)
(2.99876e-06 -1.14064e-06 2.37862e-06)
(2.99168e-06 -1.13662e-06 2.1735e-06)
(2.985e-06 -1.13287e-06 1.9229e-06)
(2.97873e-06 -1.12939e-06 1.6757e-06)
(2.97284e-06 -1.12617e-06 1.44796e-06)
(2.96731e-06 -1.12318e-06 1.23094e-06)
(2.96214e-06 -1.12043e-06 1.03288e-06)
(2.95732e-06 -1.1179e-06 1.05476e-06)
(2.95283e-06 -1.11558e-06 1.08106e-06)
(2.94867e-06 -1.11348e-06 1.12038e-06)
(2.94482e-06 -1.11157e-06 1.15788e-06)
(2.94127e-06 -1.10985e-06 1.19361e-06)
(2.93802e-06 -1.10832e-06 1.22764e-06)
(2.93505e-06 -1.10696e-06 1.26002e-06)
(2.93236e-06 -1.10578e-06 1.28797e-06)
(2.92993e-06 -1.10476e-06 1.31041e-06)
(2.92776e-06 -1.1039e-06 1.33135e-06)
(2.92583e-06 -1.10319e-06 1.35086e-06)
(2.92415e-06 -1.10263e-06 1.36898e-06)
(2.92271e-06 -1.1022e-06 1.38574e-06)
(2.92149e-06 -1.10192e-06 1.40119e-06)
(2.92049e-06 -1.10176e-06 1.41537e-06)
(2.91971e-06 -1.10173e-06 1.42832e-06)
(2.91913e-06 -1.10183e-06 1.44006e-06)
(2.91875e-06 -1.10204e-06 1.43177e-06)
(2.91857e-06 -1.10236e-06 1.42233e-06)
(2.91858e-06 -1.10279e-06 1.4121e-06)
(2.91877e-06 -1.10332e-06 1.40109e-06)
(2.91914e-06 -1.10396e-06 1.38932e-06)
(2.91968e-06 -1.10469e-06 1.3768e-06)
(2.92039e-06 -1.10552e-06 1.36357e-06)
(2.92127e-06 -1.10643e-06 1.34964e-06)
(2.9223e-06 -1.10744e-06 1.33502e-06)
(2.92348e-06 -1.10852e-06 1.31973e-06)
(2.92482e-06 -1.10969e-06 1.3038e-06)
(2.9263e-06 -1.11093e-06 1.28721e-06)
(2.92792e-06 -1.11225e-06 1.26999e-06)
(2.92968e-06 -1.11364e-06 1.25215e-06)
(2.93157e-06 -1.1151e-06 1.2337e-06)
(2.93359e-06 -1.11663e-06 1.21465e-06)
(2.93574e-06 -1.11822e-06 1.19503e-06)
(2.93801e-06 -1.11988e-06 1.24166e-06)
(2.9404e-06 -1.12159e-06 1.34786e-06)
(2.9429e-06 -1.12336e-06 1.45766e-06)
(2.94552e-06 -1.12519e-06 1.57091e-06)
(2.94824e-06 -1.12706e-06 1.66874e-06)
(2.95108e-06 -1.12899e-06 1.76293e-06)
(2.95401e-06 -1.13097e-06 1.85972e-06)
(2.95705e-06 -1.133e-06 1.95689e-06)
(2.96018e-06 -1.13507e-06 2.05346e-06)
(2.96341e-06 -1.13718e-06 2.15238e-06)
(2.96673e-06 -1.13934e-06 2.25354e-06)
(2.97014e-06 -1.14154e-06 2.35687e-06)
(2.97364e-06 -1.14377e-06 2.46224e-06)
(2.97722e-06 -1.14604e-06 2.56955e-06)
(2.98089e-06 -1.14835e-06 2.67871e-06)
(2.98464e-06 -1.15069e-06 2.78963e-06)
(2.98846e-06 -1.15307e-06 2.90224e-06)
(2.99236e-06 -1.15548e-06 3.01646e-06)
(2.99634e-06 -1.15791e-06 3.13217e-06)
(3.00039e-06 -1.16038e-06 3.24929e-06)
(3.00451e-06 -1.16287e-06 3.36774e-06)
(3.00869e-06 -1.16539e-06 3.48738e-06)
(3.01294e-06 -1.16793e-06 3.6081e-06)
(3.01726e-06 -1.1705e-06 3.72831e-06)
(3.02164e-06 -1.17309e-06 3.84884e-06)
(3.02608e-06 -1.1757e-06 3.97002e-06)
(3.03059e-06 -1.17834e-06 4.09168e-06)
(3.03515e-06 -1.18099e-06 4.2136e-06)
(3.03976e-06 -1.18366e-06 4.33802e-06)
(3.04444e-06 -1.18635e-06 4.45718e-06)
(3.04917e-06 -1.18906e-06 4.56254e-06)
(3.4201e-06 -1.44211e-06 1.74561e-06)
(3.3917e-06 -1.42328e-06 1.80082e-06)
(3.36455e-06 -1.40533e-06 1.42375e-06)
(3.33861e-06 -1.38828e-06 8.15134e-07)
(3.31382e-06 -1.37207e-06 8.16531e-08)
(3.29013e-06 -1.35667e-06 -3.63149e-07)
(3.26751e-06 -1.34203e-06 -2.31844e-07)
(3.2459e-06 -1.32813e-06 2.17139e-06)
(3.22525e-06 -1.31492e-06 4.14196e-06)
(3.20554e-06 -1.30238e-06 5.35276e-06)
(3.18672e-06 -1.29048e-06 5.478e-06)
(3.16875e-06 -1.27918e-06 5.45492e-06)
(3.1516e-06 -1.26847e-06 5.65435e-06)
(3.13524e-06 -1.2583e-06 5.80122e-06)
(3.11963e-06 -1.24867e-06 5.84341e-06)
(3.10476e-06 -1.23955e-06 5.79443e-06)
(3.09057e-06 -1.23091e-06 5.63168e-06)
(3.07706e-06 -1.22273e-06 5.40771e-06)
(3.0642e-06 -1.215e-06 5.12925e-06)
(3.05195e-06 -1.2077e-06 4.86707e-06)
(3.0403e-06 -1.2008e-06 4.54988e-06)
(3.02923e-06 -1.19429e-06 4.22716e-06)
(3.01871e-06 -1.18816e-06 3.92323e-06)
(3.00872e-06 -1.18239e-06 3.65814e-06)
(2.99925e-06 -1.17696e-06 3.43602e-06)
(2.99027e-06 -1.17186e-06 3.22827e-06)
(2.98177e-06 -1.16707e-06 3.0343e-06)
(2.97373e-06 -1.16259e-06 2.85358e-06)
(2.96613e-06 -1.15841e-06 2.68563e-06)
(2.95897e-06 -1.1545e-06 2.52784e-06)
(2.95221e-06 -1.15086e-06 2.37794e-06)
(2.94587e-06 -1.14748e-06 2.23981e-06)
(2.93989e-06 -1.14435e-06 2.11333e-06)
(2.93428e-06 -1.14146e-06 1.99784e-06)
(2.92906e-06 -1.1388e-06 1.89271e-06)
(2.92417e-06 -1.13636e-06 1.79788e-06)
(2.91962e-06 -1.13412e-06 1.70122e-06)
(2.91539e-06 -1.1321e-06 1.60876e-06)
(2.91148e-06 -1.13027e-06 1.52598e-06)
(2.90788e-06 -1.12863e-06 1.45254e-06)
(2.90457e-06 -1.12717e-06 1.41582e-06)
(2.90154e-06 -1.12588e-06 1.44812e-06)
(2.89879e-06 -1.12476e-06 1.47882e-06)
(2.89631e-06 -1.12381e-06 1.50799e-06)
(2.89409e-06 -1.12301e-06 1.53238e-06)
(2.89212e-06 -1.12236e-06 1.55178e-06)
(2.89039e-06 -1.12185e-06 1.56984e-06)
(2.88889e-06 -1.12149e-06 1.58658e-06)
(2.88763e-06 -1.12125e-06 1.60206e-06)
(2.88659e-06 -1.12115e-06 1.61631e-06)
(2.88576e-06 -1.12117e-06 1.62937e-06)
(2.88513e-06 -1.12131e-06 1.64126e-06)
(2.88472e-06 -1.12157e-06 1.63993e-06)
(2.88449e-06 -1.12194e-06 1.63074e-06)
(2.88446e-06 -1.12241e-06 1.6208e-06)
(2.88461e-06 -1.12299e-06 1.61012e-06)
(2.88494e-06 -1.12367e-06 1.59874e-06)
(2.88544e-06 -1.12444e-06 1.58665e-06)
(2.88611e-06 -1.1253e-06 1.57389e-06)
(2.88695e-06 -1.12626e-06 1.56047e-06)
(2.88794e-06 -1.1273e-06 1.54641e-06)
(2.88909e-06 -1.12842e-06 1.53173e-06)
(2.89038e-06 -1.12962e-06 1.51643e-06)
(2.89183e-06 -1.1309e-06 1.5336e-06)
(2.89341e-06 -1.13225e-06 1.59609e-06)
(2.89513e-06 -1.13368e-06 1.65982e-06)
(2.89699e-06 -1.13517e-06 1.72705e-06)
(2.89897e-06 -1.13673e-06 1.79714e-06)
(2.90108e-06 -1.13835e-06 1.86723e-06)
(2.90332e-06 -1.14003e-06 1.94061e-06)
(2.90567e-06 -1.14178e-06 2.01714e-06)
(2.90814e-06 -1.14357e-06 2.09669e-06)
(2.91072e-06 -1.14543e-06 2.17916e-06)
(2.91341e-06 -1.14733e-06 2.2644e-06)
(2.9162e-06 -1.14929e-06 2.35234e-06)
(2.9191e-06 -1.15129e-06 2.44286e-06)
(2.9221e-06 -1.15334e-06 2.53584e-06)
(2.9252e-06 -1.15544e-06 2.63123e-06)
(2.92839e-06 -1.15758e-06 2.72891e-06)
(2.93168e-06 -1.15976e-06 2.8288e-06)
(2.93505e-06 -1.16198e-06 2.93081e-06)
(2.93852e-06 -1.16424e-06 3.03479e-06)
(2.94206e-06 -1.16654e-06 3.14067e-06)
(2.9457e-06 -1.16887e-06 3.24837e-06)
(2.94941e-06 -1.17123e-06 3.3578e-06)
(2.95319e-06 -1.17363e-06 3.46889e-06)
(2.95706e-06 -1.17606e-06 3.58152e-06)
(2.961e-06 -1.17852e-06 3.6956e-06)
(2.96501e-06 -1.181e-06 3.81104e-06)
(2.96909e-06 -1.18352e-06 3.92775e-06)
(2.97324e-06 -1.18606e-06 4.04559e-06)
(2.97746e-06 -1.18862e-06 4.16446e-06)
(2.98174e-06 -1.19121e-06 4.28422e-06)
(2.98608e-06 -1.19382e-06 4.40478e-06)
(2.99049e-06 -1.19646e-06 4.52598e-06)
(2.99495e-06 -1.19911e-06 4.64789e-06)
(2.99947e-06 -1.20178e-06 4.77019e-06)
(3.00405e-06 -1.20448e-06 4.8933e-06)
(3.00868e-06 -1.20719e-06 5.01875e-06)
(3.01337e-06 -1.20991e-06 5.14238e-06)
(3.39193e-06 -1.4536e-06 2.10235e-06)
(3.36324e-06 -1.43518e-06 1.88719e-06)
(3.33582e-06 -1.41759e-06 1.24259e-06)
(3.30962e-06 -1.40091e-06 5.7411e-07)
(3.28458e-06 -1.38504e-06 1.66038e-07)
(3.26067e-06 -1.36996e-06 -4.84666e-07)
(3.23782e-06 -1.35564e-06 -3.974e-07)
(3.216e-06 -1.34203e-06 1.03882e-06)
(3.19515e-06 -1.32911e-06 2.03513e-06)
(3.17525e-06 -1.31684e-06 3.0593e-06)
(3.15624e-06 -1.30519e-06 4.61842e-06)
(3.1381e-06 -1.29414e-06 4.96916e-06)
(3.12079e-06 -1.28366e-06 5.02582e-06)
(3.10427e-06 -1.27372e-06 5.31195e-06)
(3.08851e-06 -1.26431e-06 5.4742e-06)
(3.07349e-06 -1.25539e-06 5.48785e-06)
(3.05917e-06 -1.24694e-06 5.35336e-06)
(3.04553e-06 -1.23896e-06 5.14063e-06)
(3.03253e-06 -1.23141e-06 4.90892e-06)
(3.02017e-06 -1.22427e-06 4.68946e-06)
(3.0084e-06 -1.21754e-06 4.52197e-06)
(2.99722e-06 -1.21119e-06 4.38021e-06)
(2.98659e-06 -1.20521e-06 4.23463e-06)
(2.97651e-06 -1.19958e-06 4.00187e-06)
(2.96693e-06 -1.19429e-06 3.78387e-06)
(2.95786e-06 -1.18932e-06 3.58006e-06)
(2.94927e-06 -1.18467e-06 3.38989e-06)
(2.94115e-06 -1.18031e-06 3.21282e-06)
(2.93347e-06 -1.17624e-06 3.04837e-06)
(2.92622e-06 -1.17245e-06 2.89602e-06)
(2.91939e-06 -1.16892e-06 2.75535e-06)
(2.91296e-06 -1.16564e-06 2.62582e-06)
(2.90691e-06 -1.16261e-06 2.50702e-06)
(2.90125e-06 -1.15981e-06 2.3988e-06)
(2.89595e-06 -1.15724e-06 2.3005e-06)
(2.891e-06 -1.15489e-06 2.21177e-06)
(2.88639e-06 -1.15274e-06 2.1323e-06)
(2.8821e-06 -1.1508e-06 2.06175e-06)
(2.87813e-06 -1.14905e-06 1.99981e-06)
(2.87447e-06 -1.14748e-06 1.93922e-06)
(2.8711e-06 -1.14609e-06 1.87855e-06)
(2.86803e-06 -1.14488e-06 1.90306e-06)
(2.86522e-06 -1.14383e-06 1.93289e-06)
(2.86269e-06 -1.14294e-06 1.96215e-06)
(2.86042e-06 -1.1422e-06 1.99088e-06)
(2.8584e-06 -1.14161e-06 2.01906e-06)
(2.85662e-06 -1.14117e-06 2.04672e-06)
(2.85508e-06 -1.14086e-06 2.07384e-06)
(2.85377e-06 -1.14068e-06 2.10047e-06)
(2.85268e-06 -1.14063e-06 2.12414e-06)
(2.85181e-06 -1.1407e-06 2.14339e-06)
(2.85114e-06 -1.14089e-06 2.1622e-06)
(2.85068e-06 -1.1412e-06 2.16641e-06)
(2.85042e-06 -1.14161e-06 2.16508e-06)
(2.85034e-06 -1.14213e-06 2.1636e-06)
(2.85045e-06 -1.14275e-06 2.16197e-06)
(2.85074e-06 -1.14347e-06 2.16017e-06)
(2.8512e-06 -1.14429e-06 2.15821e-06)
(2.85184e-06 -1.14519e-06 2.15607e-06)
(2.85263e-06 -1.14618e-06 2.15375e-06)
(2.85359e-06 -1.14726e-06 2.15125e-06)
(2.8547e-06 -1.14842e-06 2.14854e-06)
(2.85596e-06 -1.14966e-06 2.14564e-06)
(2.85736e-06 -1.15097e-06 2.14252e-06)
(2.85891e-06 -1.15236e-06 2.13918e-06)
(2.8606e-06 -1.15381e-06 2.20014e-06)
(2.86242e-06 -1.15534e-06 2.26828e-06)
(2.86436e-06 -1.15693e-06 2.3398e-06)
(2.86644e-06 -1.15858e-06 2.41453e-06)
(2.86864e-06 -1.16029e-06 2.49048e-06)
(2.87095e-06 -1.16206e-06 2.56777e-06)
(2.87338e-06 -1.16389e-06 2.64806e-06)
(2.87593e-06 -1.16577e-06 2.73124e-06)
(2.87858e-06 -1.1677e-06 2.81719e-06)
(2.88134e-06 -1.16969e-06 2.9058e-06)
(2.88421e-06 -1.17172e-06 2.99696e-06)
(2.88717e-06 -1.17379e-06 3.09058e-06)
(2.89023e-06 -1.17592e-06 3.18656e-06)
(2.89339e-06 -1.17808e-06 3.26782e-06)
(2.89664e-06 -1.18029e-06 3.35103e-06)
(2.89998e-06 -1.18253e-06 3.43652e-06)
(2.90341e-06 -1.18481e-06 3.52418e-06)
(2.90692e-06 -1.18713e-06 3.61393e-06)
(2.91051e-06 -1.18949e-06 3.70566e-06)
(2.91419e-06 -1.19187e-06 3.79929e-06)
(2.91794e-06 -1.19429e-06 3.89472e-06)
(2.92177e-06 -1.19675e-06 3.99188e-06)
(2.92567e-06 -1.19923e-06 4.09065e-06)
(2.92965e-06 -1.20173e-06 4.19091e-06)
(2.93369e-06 -1.20427e-06 4.26777e-06)
(2.9378e-06 -1.20683e-06 4.33096e-06)
(2.94198e-06 -1.20942e-06 4.3953e-06)
(2.94623e-06 -1.21203e-06 4.4607e-06)
(2.95053e-06 -1.21466e-06 4.53005e-06)
(2.9549e-06 -1.21731e-06 4.6043e-06)
(2.95932e-06 -1.21999e-06 4.67939e-06)
(2.96381e-06 -1.22268e-06 4.75414e-06)
(2.96835e-06 -1.22539e-06 4.82824e-06)
(2.97294e-06 -1.22813e-06 4.90554e-06)
(2.97758e-06 -1.23087e-06 4.98119e-06)
(3.36356e-06 -1.46502e-06 2.294e-06)
(3.33459e-06 -1.447e-06 1.37853e-06)
(3.30691e-06 -1.4298e-06 6.849e-07)
(3.28046e-06 -1.41348e-06 2.11336e-07)
(3.25519e-06 -1.39796e-06 -6.8853e-07)
(3.23105e-06 -1.38321e-06 -4.18531e-07)
(3.20799e-06 -1.36921e-06 6.01084e-07)
(3.18596e-06 -1.3559e-06 9.45579e-07)
(3.16492e-06 -1.34327e-06 1.10025e-06)
(3.14483e-06 -1.33127e-06 1.76469e-06)
(3.12565e-06 -1.31989e-06 2.89507e-06)
(3.10734e-06 -1.30909e-06 4.23764e-06)
(3.08987e-06 -1.29885e-06 4.55658e-06)
(3.0732e-06 -1.28915e-06 4.53773e-06)
(3.0573e-06 -1.27995e-06 4.45726e-06)
(3.04214e-06 -1.27124e-06 4.36956e-06)
(3.02768e-06 -1.263e-06 4.28578e-06)
(3.01392e-06 -1.2552e-06 4.11578e-06)
(3.0008e-06 -1.24784e-06 3.90324e-06)
(2.98832e-06 -1.24088e-06 3.69938e-06)
(2.97645e-06 -1.23431e-06 3.5064e-06)
(2.96516e-06 -1.22813e-06 3.34641e-06)
(2.95443e-06 -1.2223e-06 3.20862e-06)
(2.94424e-06 -1.21682e-06 3.07862e-06)
(2.93458e-06 -1.21167e-06 2.95618e-06)
(2.92542e-06 -1.20684e-06 2.84106e-06)
(2.91674e-06 -1.20231e-06 2.73304e-06)
(2.90853e-06 -1.19808e-06 2.63187e-06)
(2.90077e-06 -1.19413e-06 2.53734e-06)
(2.89345e-06 -1.19045e-06 2.44925e-06)
(2.88654e-06 -1.18703e-06 2.3674e-06)
(2.88004e-06 -1.18386e-06 2.29159e-06)
(2.87393e-06 -1.18093e-06 2.22163e-06)
(2.8682e-06 -1.17823e-06 2.15736e-06)
(2.86283e-06 -1.17576e-06 2.09855e-06)
(2.85782e-06 -1.1735e-06 2.04506e-06)
(2.85314e-06 -1.17144e-06 2.0425e-06)
(2.8488e-06 -1.16958e-06 2.10487e-06)
(2.84477e-06 -1.1679e-06 2.16301e-06)
(2.84106e-06 -1.16642e-06 2.2171e-06)
(2.83764e-06 -1.1651e-06 2.26729e-06)
(2.8345e-06 -1.16396e-06 2.31378e-06)
(2.83165e-06 -1.16298e-06 2.35668e-06)
(2.82907e-06 -1.16216e-06 2.40091e-06)
(2.82675e-06 -1.16148e-06 2.44336e-06)
(2.82468e-06 -1.16096e-06 2.48249e-06)
(2.82285e-06 -1.16057e-06 2.5184e-06)
(2.82127e-06 -1.16032e-06 2.55123e-06)
(2.81991e-06 -1.1602e-06 2.58111e-06)
(2.81878e-06 -1.1602e-06 2.60814e-06)
(2.81787e-06 -1.16032e-06 2.63246e-06)
(2.81716e-06 -1.16056e-06 2.64924e-06)
(2.81666e-06 -1.16092e-06 2.62653e-06)
(2.81635e-06 -1.16138e-06 2.60196e-06)
(2.81623e-06 -1.16194e-06 2.57571e-06)
(2.81631e-06 -1.16261e-06 2.54774e-06)
(2.81656e-06 -1.16337e-06 2.51821e-06)
(2.81698e-06 -1.16423e-06 2.48466e-06)
(2.81757e-06 -1.16517e-06 2.44945e-06)
(2.81833e-06 -1.1662e-06 2.41291e-06)
(2.81925e-06 -1.16732e-06 2.37505e-06)
(2.82032e-06 -1.16852e-06 2.33599e-06)
(2.82155e-06 -1.16979e-06 2.29574e-06)
(2.82292e-06 -1.17114e-06 2.25437e-06)
(2.82443e-06 -1.17256e-06 2.21192e-06)
(2.82608e-06 -1.17405e-06 2.16844e-06)
(2.82786e-06 -1.1756e-06 2.12397e-06)
(2.82977e-06 -1.17722e-06 2.07855e-06)
(2.83181e-06 -1.17891e-06 2.03223e-06)
(2.83397e-06 -1.18065e-06 1.98504e-06)
(2.83625e-06 -1.18245e-06 1.93702e-06)
(2.83865e-06 -1.1843e-06 1.89282e-06)
(2.84116e-06 -1.18621e-06 1.92855e-06)
(2.84378e-06 -1.18817e-06 1.96663e-06)
(2.8465e-06 -1.19018e-06 2.007e-06)
(2.84933e-06 -1.19224e-06 2.04957e-06)
(2.85226e-06 -1.19434e-06 2.09429e-06)
(2.85529e-06 -1.19649e-06 2.14109e-06)
(2.85841e-06 -1.19868e-06 2.1899e-06)
(2.86162e-06 -1.20091e-06 2.24068e-06)
(2.86492e-06 -1.20318e-06 2.29336e-06)
(2.86832e-06 -1.20549e-06 2.34788e-06)
(2.87179e-06 -1.20783e-06 2.40414e-06)
(2.87535e-06 -1.2102e-06 2.46211e-06)
(2.87899e-06 -1.21261e-06 2.52168e-06)
(2.8827e-06 -1.21506e-06 2.58283e-06)
(2.8865e-06 -1.21753e-06 2.6455e-06)
(2.89036e-06 -1.22003e-06 2.70962e-06)
(2.8943e-06 -1.22256e-06 2.775e-06)
(2.89831e-06 -1.22512e-06 2.83945e-06)
(2.90238e-06 -1.2277e-06 2.9051e-06)
(2.90653e-06 -1.23031e-06 2.97192e-06)
(2.91073e-06 -1.23294e-06 3.03982e-06)
(2.915e-06 -1.23559e-06 3.10879e-06)
(2.91933e-06 -1.23827e-06 3.17882e-06)
(2.92371e-06 -1.24096e-06 3.24984e-06)
(2.92816e-06 -1.24368e-06 3.3222e-06)
(2.93266e-06 -1.24641e-06 3.39509e-06)
(2.93721e-06 -1.24916e-06 3.47124e-06)
(2.94182e-06 -1.25192e-06 3.54298e-06)
(3.33499e-06 -1.47635e-06 2.31921e-06)
(3.30576e-06 -1.45874e-06 1.41899e-06)
(3.27782e-06 -1.44193e-06 6.18707e-07)
(3.25113e-06 -1.42599e-06 -6.52151e-07)
(3.22564e-06 -1.41082e-06 3.58189e-07)
(3.20128e-06 -1.39642e-06 1.12282e-06)
(3.17801e-06 -1.38274e-06 1.07525e-06)
(3.15579e-06 -1.36974e-06 1.20874e-06)
(3.13457e-06 -1.35741e-06 1.55757e-06)
(3.1143e-06 -1.34569e-06 1.95672e-06)
(3.09495e-06 -1.33458e-06 2.68977e-06)
(3.07648e-06 -1.32404e-06 3.52078e-06)
(3.05886e-06 -1.31405e-06 4.00097e-06)
(3.04204e-06 -1.30457e-06 4.01001e-06)
(3.026e-06 -1.2956e-06 3.80729e-06)
(3.01071e-06 -1.28711e-06 3.52347e-06)
(2.99613e-06 -1.27907e-06 3.2548e-06)
(2.98224e-06 -1.27147e-06 3.01666e-06)
(2.96901e-06 -1.26429e-06 2.82013e-06)
(2.95641e-06 -1.25751e-06 2.61617e-06)
(2.94443e-06 -1.25112e-06 2.42296e-06)
(2.93304e-06 -1.2451e-06 2.23704e-06)
(2.92221e-06 -1.23943e-06 2.06191e-06)
(2.91193e-06 -1.2341e-06 1.92707e-06)
(2.90218e-06 -1.22909e-06 1.79999e-06)
(2.89293e-06 -1.2244e-06 1.6804e-06)
(2.88417e-06 -1.22001e-06 1.5681e-06)
(2.87588e-06 -1.2159e-06 1.46282e-06)
(2.86805e-06 -1.21208e-06 1.36435e-06)
(2.86065e-06 -1.20851e-06 1.27246e-06)
(2.85367e-06 -1.20521e-06 1.18696e-06)
(2.8471e-06 -1.20215e-06 1.10764e-06)
(2.84092e-06 -1.19932e-06 1.03429e-06)
(2.83513e-06 -1.19672e-06 1.0405e-06)
(2.8297e-06 -1.19434e-06 1.11344e-06)
(2.82462e-06 -1.19217e-06 1.18171e-06)
(2.81989e-06 -1.1902e-06 1.24547e-06)
(2.81549e-06 -1.18842e-06 1.30494e-06)
(2.81141e-06 -1.18683e-06 1.36028e-06)
(2.80764e-06 -1.18542e-06 1.4117e-06)
(2.80417e-06 -1.18419e-06 1.45932e-06)
(2.80098e-06 -1.18311e-06 1.50334e-06)
(2.79808e-06 -1.1822e-06 1.54385e-06)
(2.79545e-06 -1.18145e-06 1.58104e-06)
(2.79308e-06 -1.18084e-06 1.61499e-06)
(2.79097e-06 -1.18038e-06 1.64486e-06)
(2.7891e-06 -1.18005e-06 1.66907e-06)
(2.78747e-06 -1.17986e-06 1.69279e-06)
(2.78607e-06 -1.17979e-06 1.71754e-06)
(2.78489e-06 -1.17985e-06 1.73953e-06)
(2.78394e-06 -1.18003e-06 1.75893e-06)
(2.78319e-06 -1.18032e-06 1.74911e-06)
(2.78265e-06 -1.18072e-06 1.72145e-06)
(2.7823e-06 -1.18123e-06 1.69199e-06)
(2.78214e-06 -1.18184e-06 1.66093e-06)
(2.78218e-06 -1.18255e-06 1.62823e-06)
(2.78239e-06 -1.18336e-06 1.59404e-06)
(2.78277e-06 -1.18425e-06 1.55837e-06)
(2.78333e-06 -1.18524e-06 1.52129e-06)
(2.78405e-06 -1.18631e-06 1.48288e-06)
(2.78493e-06 -1.18747e-06 1.44317e-06)
(2.78597e-06 -1.1887e-06 1.40223e-06)
(2.78715e-06 -1.19001e-06 1.3601e-06)
(2.78849e-06 -1.19139e-06 1.31685e-06)
(2.78996e-06 -1.19285e-06 1.27274e-06)
(2.79158e-06 -1.19437e-06 1.22778e-06)
(2.79332e-06 -1.19596e-06 1.18186e-06)
(2.7952e-06 -1.19761e-06 1.13501e-06)
(2.7972e-06 -1.19932e-06 1.08727e-06)
(2.79933e-06 -1.2011e-06 1.0387e-06)
(2.80157e-06 -1.20293e-06 9.89312e-07)
(2.80394e-06 -1.20481e-06 9.39142e-07)
(2.80641e-06 -1.20675e-06 8.88226e-07)
(2.80899e-06 -1.20874e-06 8.366e-07)
(2.81168e-06 -1.21077e-06 7.84301e-07)
(2.81447e-06 -1.21286e-06 7.31356e-07)
(2.81737e-06 -1.21498e-06 7.1802e-07)
(2.82036e-06 -1.21716e-06 7.63001e-07)
(2.82344e-06 -1.21937e-06 8.09975e-07)
(2.82662e-06 -1.22163e-06 8.5892e-07)
(2.82989e-06 -1.22392e-06 9.09756e-07)
(2.83325e-06 -1.22625e-06 9.60395e-07)
(2.83669e-06 -1.22861e-06 1.0126e-06)
(2.84021e-06 -1.23101e-06 1.06648e-06)
(2.84381e-06 -1.23345e-06 1.1219e-06)
(2.84749e-06 -1.23591e-06 1.17619e-06)
(2.85125e-06 -1.23841e-06 1.23149e-06)
(2.85508e-06 -1.24093e-06 1.28817e-06)
(2.85898e-06 -1.24348e-06 1.34618e-06)
(2.86295e-06 -1.24606e-06 1.40548e-06)
(2.86699e-06 -1.24867e-06 1.466e-06)
(2.87109e-06 -1.25129e-06 1.52772e-06)
(2.87526e-06 -1.25395e-06 1.59061e-06)
(2.87949e-06 -1.25662e-06 1.67523e-06)
(2.88378e-06 -1.25931e-06 1.79011e-06)
(2.88813e-06 -1.26203e-06 1.9065e-06)
(2.89253e-06 -1.26476e-06 2.02444e-06)
(2.89699e-06 -1.26751e-06 2.14377e-06)
(2.9015e-06 -1.27029e-06 2.27635e-06)
(2.90607e-06 -1.27307e-06 2.45297e-06)
(3.30622e-06 -1.4876e-06 2.20278e-06)
(3.27674e-06 -1.47041e-06 1.39755e-06)
(3.24856e-06 -1.454e-06 -1.09842e-07)
(3.22164e-06 -1.43844e-06 -2.4641e-07)
(3.19593e-06 -1.42364e-06 1.03761e-06)
(3.17137e-06 -1.40958e-06 1.28131e-06)
(3.1479e-06 -1.39623e-06 1.69478e-06)
(3.1255e-06 -1.38355e-06 1.97468e-06)
(3.10409e-06 -1.37152e-06 2.25425e-06)
(3.08366e-06 -1.36009e-06 2.47979e-06)
(3.06415e-06 -1.34925e-06 2.57473e-06)
(3.04553e-06 -1.33898e-06 3.13929e-06)
(3.02775e-06 -1.32923e-06 3.62912e-06)
(3.0108e-06 -1.32e-06 3.95272e-06)
(2.99462e-06 -1.31125e-06 3.81171e-06)
(2.9792e-06 -1.30298e-06 3.72707e-06)
(2.9645e-06 -1.29515e-06 3.45591e-06)
(2.95049e-06 -1.28775e-06 3.06135e-06)
(2.93715e-06 -1.28076e-06 2.71357e-06)
(2.92445e-06 -1.27417e-06 2.47466e-06)
(2.91237e-06 -1.26795e-06 2.15206e-06)
(2.90088e-06 -1.26209e-06 1.84784e-06)
(2.88996e-06 -1.25659e-06 1.5613e-06)
(2.87959e-06 -1.25141e-06 1.29173e-06)
(2.86975e-06 -1.24655e-06 1.11268e-06)
(2.86042e-06 -1.242e-06 9.65493e-07)
(2.85158e-06 -1.23775e-06 8.2737e-07)
(2.84321e-06 -1.23377e-06 6.98004e-07)
(2.8353e-06 -1.23007e-06 5.77081e-07)
(2.82783e-06 -1.22663e-06 4.64295e-07)
(2.82078e-06 -1.22343e-06 3.59359e-07)
(2.81415e-06 -1.22048e-06 2.61995e-07)
(2.80791e-06 -1.21776e-06 2.48002e-07)
(2.80205e-06 -1.21526e-06 3.19678e-07)
(2.79656e-06 -1.21298e-06 3.86858e-07)
(2.79143e-06 -1.2109e-06 4.49738e-07)
(2.78664e-06 -1.20902e-06 5.08445e-07)
(2.78218e-06 -1.20733e-06 5.64013e-07)
(2.77805e-06 -1.20583e-06 6.13182e-07)
(2.77422e-06 -1.2045e-06 6.56167e-07)
(2.7707e-06 -1.20334e-06 6.95694e-07)
(2.76747e-06 -1.20234e-06 7.31947e-07)
(2.76452e-06 -1.2015e-06 7.65009e-07)
(2.76184e-06 -1.20081e-06 7.95023e-07)
(2.75943e-06 -1.20027e-06 8.22089e-07)
(2.75727e-06 -1.19987e-06 8.46346e-07)
(2.75536e-06 -1.19961e-06 8.67923e-07)
(2.75368e-06 -1.19947e-06 8.8691e-07)
(2.75224e-06 -1.19947e-06 9.03438e-07)
(2.75102e-06 -1.19958e-06 9.17564e-07)
(2.75003e-06 -1.19981e-06 9.17996e-07)
(2.74924e-06 -1.20015e-06 8.88391e-07)
(2.74865e-06 -1.20061e-06 8.57572e-07)
(2.74827e-06 -1.20116e-06 8.26463e-07)
(2.74808e-06 -1.20182e-06 7.93845e-07)
(2.74807e-06 -1.20258e-06 7.59722e-07)
(2.74824e-06 -1.20343e-06 7.24176e-07)
(2.74859e-06 -1.20437e-06 6.87258e-07)
(2.74911e-06 -1.20539e-06 6.49007e-07)
(2.74979e-06 -1.2065e-06 6.0949e-07)
(2.75064e-06 -1.2077e-06 5.68747e-07)
(2.75164e-06 -1.20897e-06 5.26836e-07)
(2.75279e-06 -1.21031e-06 4.83789e-07)
(2.75409e-06 -1.21173e-06 4.39668e-07)
(2.75553e-06 -1.21322e-06 3.9451e-07)
(2.7571e-06 -1.21478e-06 3.48353e-07)
(2.75881e-06 -1.2164e-06 3.01229e-07)
(2.76066e-06 -1.21808e-06 2.53182e-07)
(2.76262e-06 -1.21983e-06 2.04238e-07)
(2.76472e-06 -1.22163e-06 1.54863e-07)
(2.76693e-06 -1.22349e-06 1.05515e-07)
(2.76925e-06 -1.2254e-06 5.53926e-08)
(2.77169e-06 -1.22737e-06 9.81219e-09)
(2.77424e-06 -1.22938e-06 1.49167e-09)
(2.77689e-06 -1.23145e-06 -6.58893e-09)
(2.77965e-06 -1.23356e-06 -1.44379e-08)
(2.78251e-06 -1.23571e-06 -2.20678e-08)
(2.78546e-06 -1.23791e-06 -2.61672e-08)
(2.78851e-06 -1.24015e-06 -2.61919e-08)
(2.79166e-06 -1.24243e-06 -2.58825e-08)
(2.79489e-06 -1.24475e-06 -2.5277e-08)
(2.79821e-06 -1.2471e-06 -1.89927e-08)
(2.80161e-06 -1.24949e-06 7.19136e-08)
(2.8051e-06 -1.25191e-06 1.91305e-07)
(2.80866e-06 -1.25436e-06 3.41788e-07)
(2.81231e-06 -1.25685e-06 4.95312e-07)
(2.81603e-06 -1.25937e-06 6.51001e-07)
(2.81982e-06 -1.26192e-06 8.08527e-07)
(2.82369e-06 -1.26449e-06 9.68269e-07)
(2.82762e-06 -1.26709e-06 1.12989e-06)
(2.83162e-06 -1.26972e-06 1.29334e-06)
(2.83569e-06 -1.27237e-06 1.45858e-06)
(2.83982e-06 -1.27504e-06 1.63079e-06)
(2.84401e-06 -1.27773e-06 1.81288e-06)
(2.84826e-06 -1.28045e-06 1.99436e-06)
(2.85257e-06 -1.28318e-06 2.16346e-06)
(2.85693e-06 -1.28594e-06 2.33412e-06)
(2.86136e-06 -1.28871e-06 2.4672e-06)
(2.86583e-06 -1.2915e-06 2.58103e-06)
(2.87036e-06 -1.2943e-06 2.67393e-06)
(3.27726e-06 -1.49876e-06 1.68633e-06)
(3.24753e-06 -1.482e-06 5.24348e-07)
(3.21913e-06 -1.466e-06 -7.16909e-07)
(3.19199e-06 -1.45083e-06 3.40206e-07)
(3.16607e-06 -1.4364e-06 6.26863e-07)
(3.14131e-06 -1.4227e-06 1.10317e-06)
(3.11766e-06 -1.40968e-06 1.55651e-06)
(3.09507e-06 -1.39733e-06 1.98727e-06)
(3.0735e-06 -1.3856e-06 2.39693e-06)
(3.05291e-06 -1.37447e-06 2.52259e-06)
(3.03324e-06 -1.36391e-06 2.38211e-06)
(3.01447e-06 -1.3539e-06 2.62698e-06)
(2.99656e-06 -1.34441e-06 2.76281e-06)
(2.97947e-06 -1.33542e-06 3.12457e-06)
(2.96317e-06 -1.32691e-06 3.30643e-06)
(2.94762e-06 -1.31885e-06 3.34403e-06)
(2.93281e-06 -1.31124e-06 3.32121e-06)
(2.91869e-06 -1.30404e-06 3.29926e-06)
(2.90524e-06 -1.29725e-06 3.33048e-06)
(2.89244e-06 -1.29084e-06 3.05824e-06)
(2.88026e-06 -1.2848e-06 2.7374e-06)
(2.86867e-06 -1.27912e-06 2.36262e-06)
(2.85767e-06 -1.27377e-06 1.98341e-06)
(2.84721e-06 -1.26875e-06 1.6278e-06)
(2.83729e-06 -1.26405e-06 1.29483e-06)
(2.82787e-06 -1.25964e-06 9.836e-07)
(2.81896e-06 -1.25552e-06 7.13509e-07)
(2.81052e-06 -1.25168e-06 5.33328e-07)
(2.80254e-06 -1.2481e-06 3.65441e-07)
(2.795e-06 -1.24478e-06 2.08256e-07)
(2.78789e-06 -1.24171e-06 6.1885e-08)
(2.78119e-06 -1.23887e-06 -7.93409e-08)
(2.77488e-06 -1.23625e-06 -2.39874e-07)
(2.76897e-06 -1.23386e-06 -3.08174e-07)
(2.76342e-06 -1.23168e-06 -2.52286e-07)
(2.75823e-06 -1.22969e-06 -2.00104e-07)
(2.75339e-06 -1.2279e-06 -1.47928e-07)
(2.74888e-06 -1.2263e-06 -9.94229e-08)
(2.74469e-06 -1.22488e-06 -5.47363e-08)
(2.74082e-06 -1.22363e-06 -1.36591e-08)
(2.73725e-06 -1.22255e-06 2.39191e-08)
(2.73397e-06 -1.22163e-06 5.81795e-08)
(2.73097e-06 -1.22086e-06 8.92175e-08)
(2.72825e-06 -1.22025e-06 1.17172e-07)
(2.72579e-06 -1.21977e-06 1.4298e-07)
(2.72359e-06 -1.21944e-06 1.67187e-07)
(2.72163e-06 -1.21923e-06 1.88554e-07)
(2.71992e-06 -1.21916e-06 2.07169e-07)
(2.71843e-06 -1.21921e-06 2.23167e-07)
(2.71718e-06 -1.21938e-06 2.32079e-07)
(2.71614e-06 -1.21967e-06 2.05235e-07)
(2.71531e-06 -1.22006e-06 1.75818e-07)
(2.71469e-06 -1.22056e-06 1.4482e-07)
(2.71427e-06 -1.22117e-06 1.12232e-07)
(2.71403e-06 -1.22188e-06 7.81507e-08)
(2.71399e-06 -1.22268e-06 4.40752e-08)
(2.71413e-06 -1.22357e-06 1.05572e-08)
(2.71444e-06 -1.22455e-06 -2.40745e-08)
(2.71492e-06 -1.22562e-06 -5.97751e-08)
(2.71557e-06 -1.22677e-06 -9.55488e-08)
(2.71638e-06 -1.228e-06 -1.32272e-07)
(2.71734e-06 -1.22931e-06 -1.69972e-07)
(2.71846e-06 -1.23069e-06 -2.08614e-07)
(2.71972e-06 -1.23215e-06 -2.4816e-07)
(2.72112e-06 -1.23367e-06 -2.63506e-07)
(2.72266e-06 -1.23526e-06 -2.89833e-07)
(2.72434e-06 -1.23692e-06 -3.23233e-07)
(2.72615e-06 -1.23863e-06 -3.56944e-07)
(2.72808e-06 -1.24041e-06 -3.89329e-07)
(2.73014e-06 -1.24224e-06 -4.12301e-07)
(2.73231e-06 -1.24413e-06 -4.35303e-07)
(2.7346e-06 -1.24608e-06 -4.5833e-07)
(2.73701e-06 -1.24807e-06 -4.81385e-07)
(2.73952e-06 -1.25011e-06 -4.36553e-07)
(2.74214e-06 -1.2522e-06 -3.0014e-07)
(2.74486e-06 -1.25434e-06 -1.59697e-07)
(2.74768e-06 -1.25652e-06 -1.5263e-08)
(2.7506e-06 -1.25875e-06 1.32823e-07)
(2.75361e-06 -1.26101e-06 2.84587e-07)
(2.75673e-06 -1.26331e-06 4.39802e-07)
(2.75993e-06 -1.26565e-06 5.39602e-07)
(2.76321e-06 -1.26804e-06 6.25288e-07)
(2.76657e-06 -1.27045e-06 7.13372e-07)
(2.77002e-06 -1.2729e-06 8.037e-07)
(2.77355e-06 -1.27537e-06 8.95818e-07)
(2.77716e-06 -1.27787e-06 9.90239e-07)
(2.78086e-06 -1.28041e-06 1.05159e-06)
(2.78461e-06 -1.28298e-06 1.03433e-06)
(2.78843e-06 -1.28558e-06 1.0184e-06)
(2.79233e-06 -1.2882e-06 1.00571e-06)
(2.79629e-06 -1.29085e-06 1.00517e-06)
(2.80032e-06 -1.29352e-06 9.15609e-07)
(2.80441e-06 -1.29621e-06 8.26429e-07)
(2.80856e-06 -1.29892e-06 7.37761e-07)
(2.81277e-06 -1.30166e-06 6.42157e-07)
(2.81704e-06 -1.30441e-06 5.09501e-07)
(2.82137e-06 -1.30719e-06 3.71622e-07)
(2.82575e-06 -1.30998e-06 2.33137e-07)
(2.83019e-06 -1.31279e-06 9.73184e-08)
(2.83468e-06 -1.31561e-06 -4.19967e-08)
(3.24811e-06 -1.50984e-06 1.3244e-06)
(3.21815e-06 -1.49352e-06 2.70241e-07)
(3.18953e-06 -1.47793e-06 -8.84297e-07)
(3.16218e-06 -1.46316e-06 -3.67279e-07)
(3.13607e-06 -1.4491e-06 -2.29299e-08)
(3.11112e-06 -1.43576e-06 4.59222e-07)
(3.08729e-06 -1.42309e-06 8.98382e-07)
(3.06453e-06 -1.41106e-06 1.31564e-06)
(3.0428e-06 -1.39965e-06 1.23447e-06)
(3.02205e-06 -1.38881e-06 1.29155e-06)
(3.00223e-06 -1.37854e-06 1.61332e-06)
(2.98332e-06 -1.3688e-06 1.85205e-06)
(2.96528e-06 -1.35957e-06 1.98227e-06)
(2.94806e-06 -1.35083e-06 2.26668e-06)
(2.93164e-06 -1.34256e-06 2.48542e-06)
(2.91598e-06 -1.33473e-06 2.54158e-06)
(2.90105e-06 -1.32733e-06 2.59379e-06)
(2.88683e-06 -1.32035e-06 2.64247e-06)
(2.87328e-06 -1.31375e-06 2.66167e-06)
(2.86038e-06 -1.30753e-06 2.63747e-06)
(2.84811e-06 -1.30168e-06 2.6143e-06)
(2.83643e-06 -1.29616e-06 2.59208e-06)
(2.82534e-06 -1.29099e-06 2.46991e-06)
(2.8148e-06 -1.28613e-06 2.21416e-06)
(2.8048e-06 -1.28157e-06 1.97405e-06)
(2.79531e-06 -1.27731e-06 1.74895e-06)
(2.78632e-06 -1.27333e-06 1.52675e-06)
(2.77781e-06 -1.26962e-06 1.28297e-06)
(2.76976e-06 -1.26618e-06 1.0368e-06)
(2.76216e-06 -1.26298e-06 7.62336e-07)
(2.75498e-06 -1.26002e-06 5.20734e-07)
(2.74822e-06 -1.2573e-06 2.97137e-07)
(2.74186e-06 -1.25479e-06 9.0884e-08)
(2.73589e-06 -1.2525e-06 -9.86727e-08)
(2.73028e-06 -1.25042e-06 -2.72125e-07)
(2.72504e-06 -1.24853e-06 -4.30096e-07)
(2.72015e-06 -1.24684e-06 -5.76538e-07)
(2.71559e-06 -1.24533e-06 -7.12265e-07)
(2.71135e-06 -1.24399e-06 -7.98399e-07)
(2.70743e-06 -1.24282e-06 -7.55729e-07)
(2.70381e-06 -1.24182e-06 -7.17423e-07)
(2.70049e-06 -1.24098e-06 -6.83265e-07)
(2.69744e-06 -1.24028e-06 -6.53115e-07)
(2.69468e-06 -1.23974e-06 -6.26812e-07)
(2.69217e-06 -1.23933e-06 -6.04211e-07)
(2.68993e-06 -1.23906e-06 -5.85164e-07)
(2.68793e-06 -1.23892e-06 -5.69502e-07)
(2.68618e-06 -1.23891e-06 -5.57109e-07)
(2.68466e-06 -1.23902e-06 -5.47847e-07)
(2.68336e-06 -1.23925e-06 -5.4162e-07)
(2.68228e-06 -1.23959e-06 -5.70653e-07)
(2.68142e-06 -1.24004e-06 -6.06482e-07)