/*--------------------------------*- C++ -*----------------------------------*\
| =========                 |                                                 |
| \\      /  F ield         | foam-extend: Open Source CFD                    |
|  \\    /   O peration     | Version:     4.1                                |
|   \\  /    A nd           | Web:         http://www.foam-extend.org         |
|    \\/     M anipulation  |                                                 |
\*---------------------------------------------------------------------------*/
FoamFile
{
    version     2.0;
    format      ascii;
    class       volScalarField;
    location    "7";
    object      epsilonEq;
}
// * * * * * * * * * * * * * * * * * * * * * * * * * * * * * * * * * * * * * //

dimensions      [0 0 0 0 0 0 0];

internalField   nonuniform List<scalar> 
100000
(
1.65107e-05
1.52342e-05
1.50625e-05
1.64975e-05
1.65345e-05
1.43382e-05
1.2692e-05
1.11917e-05
9.22539e-06
7.71874e-06
6.8747e-06
6.23027e-06
6.48485e-06
6.68016e-06
1.35287e-05
1.87576e-05
2.03753e-05
1.25089e-05
2.82927e-05
5.53157e-05
4.14864e-05
2.23327e-05
1.96364e-05
3.15752e-05
5.29394e-05
7.44791e-05
9.14995e-05
9.3282e-05
9.07055e-05
8.77825e-05
8.48179e-05
8.05653e-05
7.13911e-05
6.364e-05
5.72331e-05
5.12239e-05
4.53073e-05
3.9587e-05
3.509e-05
3.17478e-05
2.87575e-05
2.56124e-05
2.2235e-05
1.9996e-05
1.889e-05
1.80536e-05
1.75025e-05
1.71159e-05
1.68894e-05
1.68336e-05
1.69366e-05
1.71989e-05
1.76167e-05
1.81756e-05
1.87673e-05
1.92793e-05
1.98452e-05
2.03919e-05
2.11143e-05
2.1648e-05
2.21417e-05
2.31365e-05
2.46029e-05
2.57806e-05
2.7395e-05
2.92806e-05
3.09139e-05
3.26719e-05
3.48445e-05
3.70105e-05
3.91188e-05
4.18402e-05
4.47932e-05
4.82059e-05
5.18159e-05
5.58672e-05
6.07247e-05
6.54984e-05
7.08749e-05
7.46213e-05
7.84306e-05
8.14911e-05
8.39984e-05
8.53135e-05
7.77994e-05
6.88857e-05
6.30371e-05
5.53903e-05
4.73337e-05
3.91222e-05
3.15544e-05
2.28062e-05
1.41524e-05
1.11953e-05
9.25389e-06
1.19818e-05
1.35213e-05
1.57271e-05
1.99797e-05
2.13606e-05
1.86936e-05
2.03108e-05
1.94228e-05
1.77258e-05
1.66017e-05
1.60712e-05
1.54949e-05
1.3222e-05
1.07414e-05
8.68699e-06
7.04764e-06
6.21549e-06
6.38472e-06
4.61991e-06
4.62637e-06
1.41018e-05
1.76181e-05
1.8786e-05
1.76381e-05
1.72641e-05
3.12558e-05
2.28755e-05
2.70716e-05
3.51508e-05
4.34837e-05
4.98159e-05
5.52935e-05
5.1572e-05
4.58668e-05
3.64369e-05
3.009e-05
2.5426e-05
2.1359e-05
1.87992e-05
1.81528e-05
1.92107e-05
1.8166e-05
1.51908e-05
1.25803e-05
1.03932e-05
8.75477e-06
7.39827e-06
6.38148e-06
6.25129e-06
6.12208e-06
6.27837e-06
6.49705e-06
6.73868e-06
6.95892e-06
7.15951e-06
7.46559e-06
7.80449e-06
8.137e-06
8.46097e-06
8.77588e-06
9.06513e-06
9.35169e-06
9.57928e-06
9.71205e-06
9.37262e-06
9.23992e-06
9.48364e-06
9.49501e-06
9.61361e-06
9.55228e-06
9.38196e-06
9.19391e-06
9.18767e-06
9.35593e-06
9.36157e-06
9.43262e-06
9.40219e-06
8.80581e-06
7.03083e-06
6.04524e-06
6.46149e-06
6.66777e-06
9.04685e-06
1.22711e-05
1.55176e-05
1.95281e-05
2.47893e-05
2.96347e-05
3.26934e-05
4.07262e-05
4.12627e-05
4.22679e-05
4.36329e-05
4.38046e-05
4.42751e-05
4.56097e-05
4.71937e-05
4.40349e-05
3.78756e-05
3.2089e-05
2.58681e-05
2.31276e-05
1.88844e-05
1.50951e-05
1.12238e-05
2.14543e-05
2.22221e-05
2.21225e-05
1.98751e-05
1.75704e-05
1.5424e-05
1.42985e-05
1.35065e-05
1.27688e-05
1.13118e-05
9.3135e-06
7.69937e-06
6.5554e-06
4.82515e-06
7.58363e-06
8.89573e-06
1.56963e-05
1.66711e-05
1.83304e-05
2.55717e-05
3.78366e-05
4.80178e-05
4.58606e-05
4.13721e-05
4.13669e-05
3.9933e-05
2.78867e-05
2.80049e-05
3.24585e-05
3.64269e-05
3.94391e-05
4.00357e-05
4.35848e-05
4.44674e-05
4.47133e-05
4.44928e-05
4.46112e-05
4.5266e-05
4.50321e-05
4.4361e-05
4.36411e-05
4.30213e-05
4.22697e-05
4.16681e-05
4.06207e-05
3.93317e-05
3.83567e-05
3.78074e-05
3.75793e-05
3.7799e-05
3.81771e-05
3.86918e-05
3.93347e-05
3.96754e-05
3.98691e-05
4.01625e-05
4.06098e-05
4.12191e-05
4.16848e-05
4.22428e-05
4.29004e-05
4.35261e-05
4.40017e-05
4.48517e-05
4.57082e-05
4.65181e-05
4.73652e-05
4.82711e-05
4.8872e-05
4.95806e-05
5.04159e-05
5.06456e-05
5.0657e-05
5.05696e-05
5.00839e-05
4.925e-05
4.77165e-05
4.62905e-05
4.27902e-05
3.94215e-05
3.6926e-05
3.48836e-05
3.16095e-05
2.89301e-05
3.50503e-05
4.48622e-05
4.90279e-05
5.15403e-05
5.4566e-05
5.72702e-05
6.03176e-05
6.3319e-05
6.478e-05
6.42106e-05
6.34877e-05
6.26421e-05
5.63713e-05
5.0604e-05
4.47331e-05
3.9753e-05
2.10341e-05
2.07893e-05
2.01845e-05
1.96053e-05
1.80864e-05
1.58353e-05
1.37693e-05
1.17862e-05
1.12042e-05
1.08024e-05
1.04409e-05
1.02219e-05
9.37561e-06
7.56984e-06
9.01675e-06
1.11045e-05
8.33839e-06
1.65746e-05
3.77863e-05
6.13786e-05
7.8305e-05
7.82487e-05
8.0772e-05
8.19619e-05
7.59557e-05
6.81013e-05
6.23675e-05
6.40933e-05
6.90334e-05
7.57424e-05
7.75348e-05
7.66104e-05
7.41894e-05
6.81062e-05
6.18695e-05
5.59738e-05
5.26065e-05
5.16316e-05
5.07817e-05
5.00032e-05
4.82694e-05
4.65061e-05
4.49107e-05
4.18188e-05
3.88706e-05
3.65072e-05
3.42499e-05
3.22619e-05
3.05963e-05
2.92291e-05
2.80585e-05
2.71183e-05
2.63302e-05
2.56971e-05
2.53023e-05
2.512e-05
2.51004e-05
2.51572e-05
2.57309e-05
2.6702e-05
2.7533e-05
2.81986e-05
2.96431e-05
3.21257e-05
3.50722e-05
3.82779e-05
4.18458e-05
4.5467e-05
4.8985e-05
5.25288e-05
5.47004e-05
5.71728e-05
5.97195e-05
6.34109e-05
6.7594e-05
7.15825e-05
7.42342e-05
7.47903e-05
7.50767e-05
7.54173e-05
7.58116e-05
7.46381e-05
7.03724e-05
6.83408e-05
6.78157e-05
6.99527e-05
7.15166e-05
7.14859e-05
7.34477e-05
7.42976e-05
7.23494e-05
7.07909e-05
6.88335e-05
6.55057e-05
6.25864e-05
5.98445e-05
5.7376e-05
5.51182e-05
5.37199e-05
5.16307e-05
1.419e-05
1.30811e-05
1.20435e-05
1.14345e-05
1.09025e-05
1.03773e-05
8.95959e-06
7.74239e-06
6.68408e-06
5.57091e-06
4.76402e-06
4.14438e-06
3.73866e-06
5.06154e-06
1.20923e-05
1.34385e-05
1.90995e-05
3.6201e-05
6.23519e-05
7.49436e-05
8.03262e-05
8.49759e-05
8.51726e-05
8.53149e-05
8.32973e-05
7.7273e-05
7.87272e-05
7.05617e-05
6.09194e-05
5.04764e-05
4.14229e-05
3.66942e-05
2.98258e-05
2.51471e-05
2.09727e-05
1.5967e-05
1.13225e-05
1.10482e-05
1.30911e-05
1.63665e-05
1.94815e-05
2.18318e-05
2.39958e-05
2.58512e-05
2.65165e-05
2.66096e-05
2.67163e-05
2.68477e-05
2.69474e-05
2.71687e-05
2.74178e-05
2.75018e-05
2.74301e-05
2.67762e-05
2.57131e-05
2.45015e-05
2.32827e-05
2.19693e-05
2.04325e-05
1.87848e-05
1.70371e-05
1.55457e-05
1.48677e-05
1.44368e-05
1.36589e-05
1.34828e-05
1.40681e-05
1.54082e-05
1.72953e-05
1.82786e-05
2.01048e-05
2.35129e-05
2.70762e-05
3.0854e-05
3.55642e-05
4.09403e-05
4.54501e-05
4.94635e-05
5.63346e-05
6.31683e-05
6.70237e-05
6.99757e-05
7.3303e-05
7.51457e-05
7.60803e-05
7.42807e-05
7.15734e-05
6.89538e-05
6.50184e-05
6.28712e-05
6.06421e-05
5.86376e-05
5.84344e-05
5.79842e-05
5.61953e-05
5.27389e-05
4.90932e-05
4.5036e-05
4.04628e-05
3.66179e-05
6.95991e-06
6.14692e-06
5.62014e-06
5.14212e-06
4.95262e-06
4.96872e-06
4.99028e-06
4.92256e-06
4.30107e-06
4.03971e-06
3.81016e-06
4.03396e-06
5.54829e-06
1.05673e-05
1.7752e-05
2.94916e-05
4.33347e-05
5.72928e-05
6.55878e-05
7.15875e-05
7.77911e-05
7.90332e-05
7.66665e-05
7.90264e-05
7.65865e-05
7.74529e-05
7.09291e-05
5.7816e-05
4.23733e-05
2.9294e-05
2.02906e-05
1.72507e-05
2.16389e-05
2.43872e-05
2.45616e-05
2.49214e-05
2.64073e-05
2.72431e-05
2.80479e-05
2.5495e-05
2.07228e-05
1.61885e-05
1.12834e-05
9.39165e-06
2.16943e-05
3.03678e-05
3.79407e-05
4.44328e-05
4.98507e-05
5.49015e-05
5.91592e-05
6.18711e-05
6.25484e-05
6.21559e-05
6.07519e-05
5.87622e-05
5.59562e-05
5.2452e-05
4.78186e-05
4.83638e-05
4.87621e-05
4.84075e-05
4.69458e-05
4.4328e-05
4.15013e-05
3.86673e-05
3.58305e-05
3.27841e-05
2.96842e-05
2.66718e-05
2.48868e-05
2.34465e-05
2.35568e-05
2.4216e-05
2.54043e-05
2.47563e-05
2.43272e-05
3.02021e-05
3.55612e-05
3.82844e-05
3.93871e-05
3.88992e-05
3.95045e-05
3.9433e-05
3.90175e-05
3.58281e-05
3.21132e-05
3.21258e-05
2.91588e-05
2.5063e-05
2.55131e-05
2.68751e-05
2.92171e-05
3.1131e-05
3.14541e-05
3.17166e-05
3.05619e-05
2.99527e-05
2.79857e-05
2.72158e-05
4.89297e-06
5.0014e-06
4.98935e-06
4.87521e-06
4.65668e-06
4.46752e-06
4.33471e-06
4.34002e-06
3.97055e-06
5.9723e-06
1.11112e-05
1.61038e-05
2.13087e-05
2.79042e-05
3.25961e-05
4.14134e-05
4.88982e-05
5.8562e-05
6.64939e-05
7.36909e-05
7.2105e-05
5.49869e-05
4.07149e-05
2.55458e-05
1.6842e-05
1.14105e-05
1.84262e-05
2.97502e-05
2.89387e-05
2.79948e-05
2.69972e-05
2.53752e-05
2.55813e-05
2.84008e-05
3.27056e-05
3.57358e-05
3.97341e-05
4.62037e-05
5.23629e-05
5.82479e-05
6.42668e-05
6.76205e-05
7.56918e-05
8.44154e-05
8.92208e-05
9.10308e-05
9.23787e-05
9.33907e-05
9.41171e-05
9.45095e-05
9.46014e-05
9.41309e-05
9.3163e-05
9.21526e-05
9.02152e-05
8.7986e-05
8.5881e-05
8.38023e-05
8.12547e-05
7.91837e-05
7.67413e-05
7.42109e-05
7.16751e-05
6.91118e-05
6.65192e-05
6.39029e-05
6.1065e-05
5.84015e-05
5.60314e-05
5.35893e-05
5.10676e-05
4.84362e-05
4.47589e-05
4.07417e-05
3.78425e-05
3.56466e-05
3.75417e-05
3.9224e-05
3.56172e-05
2.99969e-05
2.49157e-05
2.0277e-05
1.29147e-05
6.90416e-06
4.51291e-06
7.5197e-06
1.20587e-05
1.5699e-05
1.84656e-05
1.8253e-05
1.63228e-05
1.63823e-05
1.93191e-05
2.4465e-05
2.72101e-05
2.64975e-05
2.56533e-05
2.45795e-05
2.28745e-05
2.17781e-05
4.7978e-06
4.63734e-06
4.4303e-06
4.41794e-06
4.5006e-06
4.46386e-06
1.09351e-05
1.80102e-05
2.56259e-05
3.3117e-05
3.78476e-05
4.06527e-05
4.39999e-05
4.58415e-05
4.28886e-05
3.98276e-05
3.38396e-05
4.09476e-05
5.00761e-05
4.75274e-05
3.26686e-05
3.08402e-05
3.15348e-05
3.6346e-05
3.45595e-05
3.08952e-05
2.11847e-05
1.81481e-05
3.12192e-05
3.51623e-05
3.80898e-05
4.95563e-05
6.27153e-05
6.7897e-05
6.75989e-05
6.63994e-05
6.74648e-05
6.86019e-05
6.9577e-05
6.68717e-05
6.35426e-05
6.08024e-05
5.75975e-05
4.74398e-05
3.47571e-05
2.74918e-05
2.21398e-05
1.81997e-05
1.54493e-05
1.3176e-05
1.16866e-05
1.15517e-05
1.34083e-05
1.5508e-05
1.84381e-05
2.21258e-05
2.67078e-05
3.22258e-05
3.86363e-05
3.96737e-05
4.08854e-05
4.318e-05
4.60046e-05
4.90633e-05
5.23429e-05
5.49721e-05
5.39489e-05
5.32539e-05
5.26666e-05
5.20883e-05
5.15062e-05
5.03738e-05
4.75907e-05
4.54299e-05
4.36723e-05
4.15935e-05
3.86551e-05
3.17012e-05
2.53154e-05
1.85294e-05
1.35881e-05
1.26363e-05
1.78102e-05
1.87e-05
1.83575e-05
1.84322e-05
1.87979e-05
1.59677e-05
1.35961e-05
1.33742e-05
1.34691e-05
1.59708e-05
1.90016e-05
1.81197e-05
1.60718e-05
1.53379e-05
1.4835e-05
1.30457e-05
1.12127e-05
9.30225e-06
4.42958e-06
4.70331e-06
4.25229e-06
1.16412e-05
2.0531e-05
2.9948e-05
2.82205e-05
2.42928e-05
2.01075e-05
1.34601e-05
1.19216e-05
1.72272e-05
2.32826e-05
2.82597e-05
3.26879e-05
3.73179e-05
4.69449e-05
5.99401e-05
6.66674e-05
7.30305e-05
7.50558e-05
5.68969e-05
3.85379e-05
2.04555e-05
1.67041e-05
2.09677e-05
2.53416e-05
3.47477e-05
5.52502e-05
6.64835e-05
7.2902e-05
7.33914e-05
7.29298e-05
7.40721e-05
7.43699e-05
7.4768e-05
7.32741e-05
6.82081e-05
6.28257e-05
5.82832e-05
5.42519e-05
5.29641e-05
4.78092e-05
4.33364e-05
3.9513e-05
3.79937e-05
3.79887e-05
3.83467e-05
3.90471e-05
4.00646e-05
4.15514e-05
4.35612e-05
4.30046e-05
4.2137e-05
4.20603e-05
4.20671e-05
4.19061e-05
4.15886e-05
4.11221e-05
4.05148e-05
3.98848e-05
3.91672e-05
3.82295e-05
3.71808e-05
3.5736e-05
3.27536e-05
3.05733e-05
2.8858e-05
2.67409e-05
2.45768e-05
2.26177e-05
2.12374e-05
2.05471e-05
1.95967e-05
1.71535e-05
1.40905e-05
1.11874e-05
8.87946e-06
6.782e-06
5.32199e-06
5.06246e-06
5.14052e-06
7.87171e-06
1.37384e-05
2.01919e-05
2.5226e-05
2.96184e-05
3.34129e-05
3.58011e-05
3.64304e-05
3.57845e-05
3.50108e-05
3.52649e-05
3.56925e-05
3.42875e-05
3.3306e-05
3.19497e-05
3.02133e-05
2.84404e-05
2.71893e-05
4.14625e-06
5.86457e-06
1.41331e-05
2.04641e-05
2.31388e-05
2.74344e-05
3.95104e-05
5.14374e-05
6.26126e-05
7.32159e-05
8.31078e-05
8.21951e-05
7.62987e-05
7.12372e-05
6.57874e-05
5.77124e-05
4.83236e-05
3.92523e-05
4.33088e-05
3.91892e-05
3.97412e-05
4.09387e-05
4.00357e-05
4.43764e-05
5.01059e-05
5.1581e-05
4.48308e-05
4.0885e-05
4.03736e-05
4.36352e-05
4.00902e-05
3.31397e-05
2.83335e-05
3.13242e-05
3.91802e-05
4.73449e-05
5.24403e-05
5.68649e-05
6.05704e-05
6.36623e-05
6.54207e-05
6.67267e-05
6.75983e-05
6.80596e-05
6.81306e-05
6.78318e-05
6.71848e-05
6.6207e-05
6.49198e-05
6.33612e-05
6.15509e-05
5.89588e-05
5.6131e-05
5.40756e-05
5.20312e-05
4.9747e-05
4.72486e-05
4.45428e-05
4.16355e-05
3.85491e-05
3.52926e-05
3.15866e-05
2.77752e-05
2.34464e-05
1.90546e-05
1.52696e-05
1.49409e-05
1.4574e-05
1.42745e-05
1.4073e-05
1.39384e-05
1.34934e-05
1.28148e-05
1.21775e-05
1.15251e-05
1.08016e-05
1.00673e-05
9.36761e-06
8.56496e-06
8.60398e-06
8.79685e-06
8.94216e-06
8.97959e-06
1.03519e-05
1.16059e-05
1.48045e-05
1.8298e-05
2.08511e-05
2.39318e-05
2.83738e-05
3.17015e-05
3.41602e-05
3.52611e-05
3.57251e-05
3.61362e-05
3.56555e-05
3.57955e-05
3.58201e-05
3.50085e-05
3.40112e-05
4.34499e-05
5.00205e-05
6.03129e-05
7.55941e-05
8.99046e-05
9.52501e-05
8.5907e-05
7.55012e-05
6.5613e-05
5.62354e-05
4.68126e-05
4.01517e-05
3.17985e-05
2.58232e-05
2.13927e-05
2.54979e-05
4.1042e-05
5.66441e-05
5.87125e-05
5.89123e-05
5.81851e-05
5.92737e-05
6.44957e-05
6.20025e-05
4.93256e-05
3.02949e-05
1.39574e-05
6.40747e-06
5.57893e-06
4.51288e-06
9.60417e-06
1.27813e-05
1.53746e-05
1.78146e-05
1.79749e-05
1.78927e-05
1.94644e-05
2.23053e-05
2.46382e-05
2.65171e-05
2.79414e-05
2.89074e-05
2.94378e-05
2.9556e-05
2.92861e-05
2.86476e-05
2.76636e-05
2.63539e-05
2.47387e-05
2.27086e-05
2.00321e-05
1.69461e-05
1.65469e-05
1.62324e-05
1.59131e-05
1.5589e-05
1.50381e-05
1.49314e-05
1.46015e-05
1.42693e-05
1.39399e-05
1.36249e-05
1.32e-05
1.27656e-05
1.24055e-05
1.20067e-05
1.17226e-05
1.14776e-05
1.12547e-05
1.09991e-05
1.05768e-05
1.00526e-05
1.00245e-05
9.92784e-06
9.7998e-06
9.66399e-06
9.35544e-06
9.06565e-06
8.66396e-06
8.21251e-06
7.72777e-06
7.30135e-06
6.91018e-06
6.47911e-06
6.08386e-06
6.12268e-06
7.47639e-06
1.04202e-05
1.13863e-05
1.31089e-05
1.58681e-05
1.8932e-05
2.22721e-05
2.44937e-05
2.6356e-05
2.89615e-05
3.08236e-05
3.31339e-05
3.54677e-05
3.60411e-05
9.61451e-05
8.76379e-05
7.51287e-05
6.21294e-05
4.91131e-05
3.80228e-05
2.81976e-05
1.86971e-05
1.16495e-05
1.09958e-05
1.67978e-05
2.15527e-05
2.6772e-05
3.37621e-05
4.38837e-05
5.34546e-05
5.86011e-05
6.23198e-05
6.35284e-05
6.77054e-05
7.46245e-05
7.29947e-05
6.09741e-05
3.84927e-05
1.81943e-05
7.01268e-06
5.14342e-06
4.97794e-06
4.46395e-06
4.33397e-06
4.56814e-06
5.79608e-06
7.18727e-06
8.39396e-06
1.05392e-05
1.24414e-05
1.30261e-05
1.35314e-05
1.40386e-05
1.45511e-05
1.50686e-05
1.54953e-05
1.53087e-05
1.51088e-05
1.48958e-05
1.46722e-05
1.4439e-05
1.41972e-05
1.39328e-05
1.35824e-05
1.31242e-05
1.26311e-05
1.21689e-05
1.1711e-05
1.12626e-05
1.08268e-05
1.03989e-05
9.98324e-06
9.58249e-06
9.19148e-06
8.81425e-06
8.43472e-06
8.02517e-06
8.13483e-06
8.29806e-06
8.52121e-06
8.7545e-06
8.9545e-06
9.05676e-06
9.13883e-06
9.18573e-06
8.85901e-06
8.50154e-06
8.15468e-06
7.86361e-06
7.36025e-06
6.85715e-06
6.43736e-06
6.05025e-06
5.75376e-06
5.53988e-06
5.38296e-06
5.22296e-06
4.88275e-06
4.52458e-06
4.61013e-06
4.76524e-06
5.609e-06
7.63509e-06
7.87346e-06
8.85472e-06
1.01067e-05
1.12177e-05
1.27658e-05
1.41168e-05
1.62975e-05
1.78349e-05
1.87696e-05
2.04948e-05
2.20287e-05
4.56089e-05
3.23023e-05
2.05661e-05
1.2843e-05
1.59596e-05
1.86211e-05
1.83137e-05
1.80237e-05
1.77478e-05
1.74869e-05
1.80002e-05
2.54013e-05
3.8766e-05
4.90462e-05
5.62538e-05
5.91525e-05
6.35631e-05
6.41143e-05
7.1139e-05
7.18401e-05
5.84831e-05
3.91229e-05
2.27195e-05
1.02404e-05
7.47887e-06
6.79005e-06
5.45075e-06
4.58521e-06
4.97118e-06
5.01251e-06
5.25447e-06
5.10967e-06
4.53553e-06
5.73933e-06
5.26778e-06
4.9734e-06
5.80958e-06
7.02468e-06
7.57896e-06
8.11144e-06
8.61737e-06
9.06396e-06
9.46303e-06
9.64495e-06
9.84668e-06
9.62357e-06
9.17667e-06
8.74454e-06
8.31592e-06
7.86168e-06
7.59045e-06
7.41179e-06
7.25569e-06
7.11665e-06
6.99167e-06
6.87976e-06
6.78019e-06
6.69159e-06
6.61169e-06
6.54123e-06
6.62398e-06
6.73285e-06
6.93239e-06
7.18399e-06
7.36907e-06
7.52947e-06
7.60971e-06
7.69698e-06
7.72452e-06
7.45178e-06
6.93477e-06
6.46896e-06
6.13919e-06
5.87162e-06
5.55253e-06
5.26399e-06
5.18976e-06
5.13849e-06
5.14109e-06
5.13873e-06
4.97451e-06
4.78932e-06
4.48504e-06
4.78831e-06
5.17346e-06
5.28163e-06
5.23461e-06
5.19209e-06
5.12386e-06
7.01605e-06
8.08025e-06
7.7902e-06
7.23111e-06
7.193e-06
7.18826e-06
8.59684e-06
1.0385e-05
1.05036e-05
1.05454e-05
1.18768e-05
1.48641e-05
2.01548e-05
1.97771e-05
1.94022e-05
1.90506e-05
1.87184e-05
1.84046e-05
1.81079e-05
1.78259e-05
1.75596e-05
2.32176e-05
4.15127e-05
5.34687e-05
5.74826e-05
5.97517e-05
6.26497e-05
6.22885e-05
6.22371e-05
5.68052e-05
3.80393e-05
2.59698e-05
1.99628e-05
1.11365e-05
7.98155e-06
7.83514e-06
7.26029e-06
6.26485e-06
5.63965e-06
4.6864e-06
4.94526e-06
5.0682e-06
5.55943e-06
6.12576e-06
5.02938e-06
5.10606e-06
5.45051e-06
5.20135e-06
4.81262e-06
4.70753e-06
4.85149e-06
4.89227e-06
4.85041e-06
4.92147e-06
5.06958e-06
5.22047e-06
5.42733e-06
5.73329e-06
6.08497e-06
6.27473e-06
6.03871e-06
5.89927e-06
5.87329e-06
5.88078e-06
5.89449e-06
5.90982e-06
5.92632e-06
6.02835e-06
6.16577e-06
6.31491e-06
6.53656e-06
6.79705e-06
7.00371e-06
7.21468e-06
7.27491e-06
7.30931e-06
7.34363e-06
7.23948e-06
6.91712e-06
6.37803e-06
5.83529e-06
5.53282e-06
5.4051e-06
5.26931e-06
5.19599e-06
5.1351e-06
5.13534e-06
5.1407e-06
5.09344e-06
4.8584e-06
4.56906e-06
4.56797e-06
4.99835e-06
5.58052e-06
5.70654e-06
5.84326e-06
6.01708e-06
6.23509e-06
6.49928e-06
6.73213e-06
6.45874e-06
8.66357e-06
9.86948e-06
1.00317e-05
1.03923e-05
1.08507e-05
1.06616e-05
9.84964e-06
8.4645e-06
7.58146e-06
7.51832e-06
1.68576e-05
2.02796e-05
1.98945e-05
1.95112e-05
1.91525e-05
1.88127e-05
1.84926e-05
1.81888e-05
1.80734e-05
2.48419e-05
4.01783e-05
5.48727e-05
5.72811e-05
5.77648e-05
5.95894e-05
5.69008e-05
4.63487e-05
4.08906e-05
3.04115e-05
2.65978e-05
2.19378e-05
1.26492e-05
8.10853e-06
7.95586e-06
7.81215e-06
7.57584e-06
6.64741e-06
6.00205e-06
5.88311e-06
4.89517e-06
4.75469e-06
5.1249e-06
5.5033e-06
6.29946e-06
5.64782e-06
4.61563e-06
5.38693e-06
6.0565e-06
5.87627e-06
5.64091e-06
5.42743e-06
5.33703e-06
5.27877e-06
5.15142e-06
5.09101e-06
4.93865e-06
4.88013e-06
4.85111e-06
4.66e-06
4.72214e-06
4.87316e-06
5.04606e-06
5.22903e-06
5.41366e-06
5.59346e-06
5.79151e-06
6.00279e-06
6.17573e-06
6.32342e-06
6.45658e-06
6.43995e-06
6.39378e-06
6.33135e-06
6.25606e-06
5.71334e-06
5.42867e-06
5.06795e-06
4.85682e-06
4.76903e-06
4.7248e-06
4.73582e-06
4.74973e-06
4.75905e-06
4.76758e-06
4.77616e-06
4.8837e-06
5.12785e-06
5.45841e-06
6.25252e-06
7.10535e-06
7.62964e-06
7.85621e-06
8.09441e-06
8.34128e-06
8.64146e-06
8.95663e-06
9.29067e-06
9.61734e-06
9.93146e-06
1.08949e-05
1.07561e-05
1.11545e-05
1.07795e-05
9.91471e-06
7.58959e-06
5.69567e-06
5.62731e-06
6.10741e-06
6.74012e-06
7.57071e-06
1.6972e-05
2.04012e-05
2.00083e-05
1.96168e-05
1.92511e-05
1.89043e-05
1.85775e-05
1.99198e-05
2.79424e-05
3.94115e-05
5.08387e-05
5.48899e-05
5.43452e-05
5.7426e-05
5.04617e-05
3.52681e-05
2.97236e-05
3.07508e-05
2.76862e-05
2.4052e-05
1.52832e-05
9.69607e-06
9.23049e-06
9.1206e-06
9.02876e-06
8.95462e-06
8.4852e-06
7.53901e-06
7.39928e-06
7.42574e-06
6.34721e-06
5.13257e-06
4.57255e-06
4.45913e-06
4.66385e-06
5.2187e-06
4.93081e-06
5.06669e-06
5.88001e-06
6.70572e-06
7.2335e-06
7.04548e-06
6.73023e-06
6.49337e-06
6.32374e-06
6.21123e-06
6.10515e-06
6.14646e-06
6.18404e-06
5.87379e-06
5.61777e-06
5.41068e-06
5.24793e-06
5.1239e-06
5.03217e-06
4.96767e-06
4.95583e-06
4.96515e-06
4.98467e-06
5.01384e-06
4.972e-06
4.99676e-06
5.10636e-06
4.92459e-06
5.06978e-06
5.45085e-06
5.65386e-06
5.69517e-06
5.73163e-06
5.70156e-06
5.67562e-06
5.81297e-06
6.15151e-06
6.58398e-06
7.18124e-06
8.09849e-06
9.1063e-06
1.00055e-05
1.01717e-05
1.03651e-05
1.06211e-05
1.07927e-05
1.08409e-05
1.09041e-05
1.09625e-05
1.10069e-05
1.10168e-05
1.06118e-05
9.57701e-06
8.58047e-06
7.63049e-06
6.33242e-06
6.44463e-06
5.82577e-06
5.76585e-06
5.78218e-06
5.79797e-06
5.8176e-06
5.8681e-06
6.09283e-06
1.7084e-05
2.05194e-05
2.01184e-05
1.97193e-05
1.93462e-05
1.89931e-05
2.2257e-05
3.07526e-05
3.90512e-05
4.2472e-05
4.96437e-05
5.21441e-05
5.43794e-05
4.46972e-05
2.88277e-05
2.52328e-05
2.7594e-05
2.6059e-05
2.27455e-05
1.8704e-05
1.44969e-05
1.17936e-05
1.13682e-05
1.12029e-05
1.1136e-05
1.10882e-05
1.10163e-05
1.02535e-05
9.72139e-06
9.75472e-06
9.80165e-06
9.36967e-06
8.00424e-06
6.84231e-06
5.86551e-06
4.95713e-06
4.723e-06
4.77167e-06
4.64655e-06
4.71483e-06
4.97257e-06
5.5529e-06
6.06551e-06
6.46554e-06
6.81668e-06
7.10624e-06
7.27875e-06
7.58692e-06
7.63124e-06
7.60957e-06
7.58969e-06
7.51613e-06
7.35512e-06
7.14592e-06
6.89499e-06
6.61014e-06
6.30211e-06
5.98333e-06
6.07987e-06
6.35342e-06
6.53194e-06
6.45292e-06
6.50818e-06
6.65482e-06
6.1348e-06
6.05792e-06
6.05153e-06
6.15521e-06
6.51294e-06
6.90114e-06
7.24156e-06
7.65277e-06
8.51268e-06
9.49279e-06
1.05414e-05
1.0793e-05
1.08819e-05
1.08827e-05
1.09213e-05
1.09667e-05
1.10258e-05
1.10803e-05
1.11224e-05
1.06313e-05
9.61213e-06
8.62816e-06
7.55878e-06
6.52755e-06
5.86452e-06
5.21043e-06
4.7521e-06
4.3428e-06
5.9464e-06
6.39555e-06
5.77759e-06
5.7685e-06
5.78426e-06
5.80382e-06
5.80969e-06
5.8025e-06
1.71937e-05
2.06339e-05
2.02248e-05
1.98187e-05
1.94381e-05
2.42641e-05
3.32403e-05
3.61091e-05
3.67303e-05
4.18651e-05
5.14865e-05
4.97909e-05
3.96396e-05
2.73904e-05
2.64699e-05
2.57902e-05
2.2279e-05
2.01225e-05
2.21974e-05
1.59767e-05
1.25824e-05
1.24722e-05
1.21418e-05
1.17689e-05
1.15556e-05
1.14777e-05
1.14033e-05
1.10985e-05
1.01783e-05
9.96154e-06
9.92533e-06
9.88956e-06
9.85349e-06
8.96086e-06
7.77471e-06
6.82674e-06
5.6632e-06
4.90042e-06
4.613e-06
4.56538e-06
4.6164e-06
4.56888e-06
4.52285e-06
4.58923e-06
4.71893e-06
4.86275e-06
4.99894e-06
5.11201e-06
5.20409e-06
5.24787e-06
5.2507e-06
5.26569e-06
5.27387e-06
5.30609e-06
5.47077e-06
5.6442e-06
5.82474e-06
5.6224e-06
5.46905e-06
5.56884e-06
5.89467e-06
6.0786e-06
6.07101e-06
6.26947e-06
6.59597e-06
6.94961e-06
7.28615e-06
7.60255e-06
8.00833e-06
8.59762e-06
9.40496e-06
1.01191e-05
1.06069e-05
1.09739e-05
1.10248e-05
1.10604e-05
1.11049e-05
1.11596e-05
1.12075e-05
1.04311e-05
9.48991e-06
8.53149e-06
7.45657e-06
6.50835e-06
5.84196e-06
5.2045e-06
4.75794e-06
4.5978e-06
4.59343e-06
4.58893e-06
4.58429e-06
4.57948e-06
4.61216e-06
6.55867e-06
6.06459e-06
5.75456e-06
5.77044e-06
5.79005e-06
5.79595e-06
5.78905e-06
1.73015e-05
2.07446e-05
2.03276e-05
1.99144e-05
2.59148e-05
3.53855e-05
3.31097e-05
3.30408e-05
3.69608e-05
4.79451e-05
4.60831e-05
3.55976e-05
2.90926e-05
2.80243e-05
2.70232e-05
2.40908e-05
1.94491e-05
1.64559e-05
1.45434e-05
1.36793e-05
1.24995e-05
1.2397e-05
1.23008e-05
1.2057e-05
1.17236e-05
1.1451e-05
1.13665e-05
1.12994e-05
1.06965e-05
9.98026e-06
9.92124e-06
9.88664e-06
9.85184e-06
9.81711e-06
9.74834e-06
8.90561e-06
7.96597e-06
7.14191e-06
6.17789e-06
5.28056e-06
4.8799e-06
4.63852e-06
4.55222e-06
4.56159e-06
4.61812e-06
4.6404e-06
4.5801e-06
4.5854e-06
4.62861e-06
4.68683e-06
4.76524e-06
4.8689e-06
4.95565e-06
4.92626e-06
5.01719e-06
5.28169e-06
5.62998e-06
6.06465e-06
6.338e-06
6.60548e-06
6.8973e-06
7.21276e-06
7.49119e-06
7.80128e-06
8.17601e-06
8.57628e-06
9.05417e-06
9.50468e-06
9.76666e-06
1.02052e-05
1.06968e-05
1.1146e-05
1.12107e-05
1.12559e-05
1.09124e-05
1.00206e-05
9.14556e-06
8.26366e-06
7.18329e-06
6.39529e-06
5.70805e-06
5.11654e-06
4.71701e-06
4.60543e-06
4.60168e-06
4.59778e-06
4.59368e-06
4.58938e-06
4.58493e-06
4.58037e-06
4.57568e-06
4.57082e-06
4.36944e-06
5.31639e-06
6.42264e-06
5.79117e-06
5.75632e-06
5.77594e-06
5.78189e-06
5.77537e-06
1.74078e-05
2.08513e-05
2.04268e-05
2.71893e-05
3.71681e-05
3.15786e-05
2.95907e-05
3.6343e-05
4.04669e-05
4.09429e-05
3.2826e-05
3.03667e-05
2.91322e-05
2.79829e-05
2.55789e-05
2.09726e-05
1.72427e-05
1.59388e-05
9.70923e-06
5.53342e-06
8.5008e-06
1.1177e-05
1.22298e-05
1.21456e-05
1.20065e-05
1.17173e-05
1.14431e-05
1.12638e-05
1.11563e-05
1.04091e-05
9.91515e-06
9.88111e-06
9.84792e-06
9.81415e-06
9.7805e-06
9.7477e-06
9.71353e-06
9.15069e-06
8.52534e-06
7.82698e-06
7.21998e-06
6.62006e-06
5.98194e-06
5.53332e-06
5.27756e-06
5.21828e-06
5.21376e-06
5.21337e-06
5.25792e-06
5.41406e-06
5.65212e-06
5.97808e-06
6.40076e-06
6.82734e-06
7.02414e-06
7.24393e-06
7.4868e-06
7.7017e-06
7.96128e-06
8.2662e-06
8.59292e-06
8.94026e-06
9.30739e-06
9.41259e-06
9.50114e-06
9.63883e-06
9.90438e-06
1.03919e-05
1.09058e-05
1.0961e-05
1.02304e-05
9.40107e-06
8.58226e-06
7.68408e-06
6.78209e-06
6.11195e-06
5.45767e-06
4.95007e-06
4.64108e-06
4.61047e-06
4.60735e-06
4.60406e-06
4.60056e-06
4.59686e-06
4.59301e-06
4.58899e-06
4.58478e-06
4.58039e-06
4.57589e-06
4.57129e-06
4.56655e-06
4.56164e-06
4.55656e-06
4.36928e-06
6.07256e-06
6.07134e-06
5.74221e-06
5.76172e-06
5.76764e-06
5.76141e-06
1.75126e-05
2.0954e-05
2.80719e-05
3.85726e-05
3.09815e-05
2.67288e-05
3.63061e-05
3.53386e-05
3.17335e-05
3.16038e-05
3.16197e-05
3.01772e-05
2.89772e-05
2.71952e-05
2.25674e-05
1.80913e-05
1.6172e-05
1.32629e-05
6.2771e-06
4.70435e-06
4.66918e-06
5.75752e-06
8.24583e-06
1.04269e-05
1.18288e-05
1.19362e-05
1.17458e-05
1.15016e-05
1.12825e-05
1.09498e-05
1.02244e-05
9.87348e-06
9.84086e-06
9.80904e-06
9.77598e-06
9.74317e-06
9.7116e-06
9.67728e-06
9.64314e-06
9.61056e-06
9.16415e-06
8.70213e-06
8.29994e-06
7.92438e-06
7.622e-06
7.86078e-06
7.84919e-06
7.87874e-06
7.92923e-06
8.00694e-06
8.11762e-06
8.25565e-06
8.41954e-06
8.60827e-06
8.82141e-06
9.05829e-06
9.31794e-06
9.59956e-06
9.5782e-06
9.54616e-06
9.52256e-06
9.50534e-06
9.68444e-06
9.86673e-06
9.53945e-06
9.21278e-06
8.86121e-06
8.41131e-06
7.73295e-06
6.92402e-06
6.2981e-06
5.64672e-06
5.11219e-06
4.74003e-06
4.61574e-06
4.61335e-06
4.61076e-06
4.60794e-06
4.60494e-06
4.60181e-06
4.59853e-06
4.59507e-06
4.59145e-06
4.58767e-06
4.58375e-06
4.57967e-06
4.57538e-06
4.57092e-06
4.56635e-06
4.56168e-06
4.55689e-06
4.55195e-06
4.54684e-06
4.45676e-06
4.88695e-06
6.41632e-06
5.78033e-06
5.74745e-06
5.75338e-06
5.74739e-06
1.76154e-05
2.85225e-05
3.94421e-05
3.11671e-05
2.42326e-05
3.54849e-05
3.27209e-05
2.19952e-05
2.79934e-05
3.36309e-05
3.12589e-05
3.00096e-05
2.869e-05
2.41434e-05
1.90005e-05
1.68468e-05
1.58898e-05
9.1721e-06
4.71761e-06
4.7431e-06
4.76897e-06
4.79494e-06
4.74754e-06
5.23632e-06
6.95016e-06
8.99751e-06
1.01663e-05
1.12286e-05
1.15804e-05
1.13879e-05
1.09307e-05
1.02213e-05
9.85617e-06
9.8002e-06
9.76969e-06
9.73693e-06
9.70513e-06
9.67399e-06
9.63973e-06
9.60655e-06
9.5742e-06
9.53975e-06
9.5062e-06
9.42664e-06
9.75898e-06
9.82246e-06
9.81463e-06
9.8402e-06
9.89791e-06
9.87334e-06
9.84065e-06
9.80746e-06
9.7743e-06
9.74574e-06
9.73147e-06
9.71782e-06
9.73621e-06
9.75471e-06
9.06247e-06
8.36066e-06
7.84956e-06
7.33887e-06
7.00807e-06
6.71501e-06
6.40909e-06
6.02634e-06
5.58771e-06
5.0994e-06
4.75074e-06
4.61747e-06
4.61577e-06
4.61389e-06
4.61182e-06
4.60955e-06
4.60712e-06
4.60453e-06
4.60179e-06
4.59887e-06
4.59579e-06
4.59258e-06
4.58921e-06
4.58565e-06
4.58188e-06
4.57795e-06
4.57391e-06
4.56974e-06
4.56541e-06
4.56091e-06
4.5563e-06
4.55159e-06
4.54674e-06
4.54174e-06
4.53659e-06
4.53134e-06
4.28945e-06
5.64563e-06
6.04829e-06
5.73288e-06
5.73883e-06
5.73317e-06
2.43743e-05
3.99625e-05
3.20493e-05
2.22831e-05
3.41083e-05
3.02808e-05
1.65176e-05
2.19889e-05
3.41955e-05
3.23833e-05
3.10808e-05
2.98392e-05
2.57978e-05
2.03168e-05
1.76904e-05
1.66536e-05
1.26707e-05
5.88717e-06
4.75929e-06
4.78197e-06
4.80523e-06
4.82868e-06
4.85214e-06
4.87563e-06
4.89914e-06
4.88677e-06
5.37249e-06
6.41395e-06
7.81837e-06
8.8546e-06
9.49156e-06
9.80038e-06
9.82718e-06
1.00045e-05
9.92266e-06
9.85569e-06
9.79151e-06
9.73353e-06
9.68077e-06
9.63037e-06
9.58564e-06
9.54586e-06
9.50827e-06
9.64138e-06
1.00369e-05
1.00079e-05
9.98683e-06
9.96892e-06
9.95356e-06
9.94833e-06
9.63161e-06
9.08322e-06
8.51706e-06
7.93922e-06
7.35774e-06
6.7819e-06
6.22473e-06
5.82197e-06
5.77518e-06
5.43535e-06
5.22763e-06
5.03574e-06
4.76538e-06
4.61818e-06
4.61621e-06
4.61491e-06
4.61373e-06
4.61238e-06
4.61083e-06
4.60912e-06
4.60727e-06
4.60525e-06
4.60303e-06
4.60061e-06
4.59804e-06
4.59531e-06
4.59238e-06
4.58926e-06
4.58602e-06
4.58271e-06
4.57926e-06
4.57563e-06
4.57179e-06
4.56778e-06
4.56363e-06
4.55935e-06
4.5549e-06
4.55034e-06
4.5457e-06
4.54096e-06
4.53609e-06
4.53105e-06
4.52584e-06
4.52054e-06
4.51516e-06
4.60578e-06
6.2384e-06
5.75184e-06
5.72406e-06
5.71866e-06
3.39572e-05
3.33745e-05
2.22251e-05
3.21043e-05
2.82505e-05
1.40765e-05
1.7666e-05
3.06013e-05
3.35517e-05
3.21939e-05
3.08974e-05
2.75737e-05
2.21032e-05
1.8619e-05
1.71588e-05
1.5778e-05
8.44986e-06
4.78281e-06
4.80126e-06
4.82107e-06
4.84159e-06
4.86247e-06
4.88345e-06
4.90463e-06
4.92593e-06
4.94706e-06
4.96786e-06
4.98792e-06
4.92377e-06
5.01564e-06
5.31972e-06
5.73764e-06
6.04002e-06
6.31354e-06
6.57409e-06
6.8151e-06
7.07172e-06
7.28496e-06
7.45122e-06
7.56863e-06
7.6348e-06
7.6537e-06
7.53963e-06
7.78741e-06
7.5751e-06
7.27707e-06
6.95234e-06
6.60751e-06
6.24931e-06
5.91037e-06
5.6735e-06
5.44684e-06
5.19685e-06
5.00852e-06
4.90256e-06
4.90084e-06
4.93474e-06
4.89092e-06
4.73872e-06
4.62519e-06
4.56868e-06
4.59763e-06
4.61128e-06
4.60993e-06
4.60829e-06
4.60684e-06
4.60543e-06
4.60385e-06
4.60212e-06
4.60024e-06
4.5982e-06
4.59599e-06
4.5936e-06
4.59104e-06
4.58833e-06
4.58548e-06
4.58245e-06
4.57923e-06
4.57586e-06
4.57237e-06
4.56877e-06
4.565e-06
4.56108e-06
4.55702e-06
4.55282e-06
4.54848e-06
4.54398e-06
4.53934e-06
4.5346e-06
4.52979e-06
4.52488e-06
4.51982e-06
4.5146e-06
4.50928e-06
4.50386e-06
4.27727e-06
5.26517e-06
6.00579e-06
5.70932e-06
5.70411e-06
2.75779e-05
2.33067e-05
2.98283e-05
2.6333e-05
1.23069e-05
1.61347e-05
2.46323e-05
3.23287e-05
3.33471e-05
3.19972e-05
2.94731e-05
2.41194e-05
1.96062e-05
1.77306e-05
1.72112e-05
1.18352e-05
5.39636e-06
4.82789e-06
4.84323e-06
4.86009e-06
4.87779e-06
4.89611e-06
4.91466e-06
4.93341e-06
4.95256e-06
4.97155e-06
4.99016e-06
5.00861e-06
5.02637e-06
5.04328e-06
5.05968e-06
5.07491e-06
5.08909e-06
5.12301e-06
4.96758e-06
4.82676e-06
4.81515e-06
4.83024e-06
4.8649e-06
4.91038e-06
4.95738e-06
4.99156e-06
4.83475e-06
4.72866e-06
4.69167e-06
4.67334e-06
4.68606e-06
4.74251e-06
4.8538e-06
5.03132e-06