/*--------------------------------*- C++ -*----------------------------------*\
| =========                 |                                                 |
| \\      /  F ield         | foam-extend: Open Source CFD                    |
|  \\    /   O peration     | Version:     4.1                                |
|   \\  /    A nd           | Web:         http://www.foam-extend.org         |
|    \\/     M anipulation  |                                                 |
\*---------------------------------------------------------------------------*/
FoamFile
{
    version     2.0;
    format      ascii;
    class       volScalarField;
    location    "7";
    object      sigmaHyd;
}
// * * * * * * * * * * * * * * * * * * * * * * * * * * * * * * * * * * * * * //

dimensions      [1 -1 -2 0 0 0 0];

internalField   nonuniform List<scalar> 
100000
(
-329436
-328593
-328755
-328404
-328329
-328119
-327987
-327823
-327683
-327537
-327401
-327267
-327138
-327013
-326891
-326773
-326659
-326547
-326439
-326334
-326232
-326132
-326035
-325941
-325849
-325760
-325673
-325587
-325506
-325418
-325344
-325238
-325169
-325132
-325049
-324977
-324909
-324839
-324773
-324707
-324643
-324581
-324519
-324459
-324401
-324343
-324286
-324231
-324176
-324123
-324070
-324019
-323968
-323918
-323869
-323821
-323773
-323726
-323680
-323635
-323590
-323546
-323502
-323459
-323416
-323374
-323332
-323291
-323251
-323210
-323171
-323132
-323093
-323054
-323017
-322979
-322942
-322905
-322869
-322833
-322797
-322761
-322726
-322690
-322656
-322620
-322585
-322549
-322515
-322481
-322447
-322414
-322383
-322351
-322325
-322294
-322285
-322249
-322303
-322109
-341368
-340233
-340193
-339604
-339318
-338893
-338557
-338192
-337857
-337522
-337202
-336888
-336584
-336287
-336000
-335719
-335447
-335181
-334923
-334671
-334425
-334186
-333953
-333725
-333504
-333287
-333079
-332872
-332686
-332477
-332369
-332079
-332029
-331713
-331640
-331382
-331226
-331044
-330883
-330721
-330566
-330413
-330263
-330117
-329973
-329833
-329694
-329559
-329426
-329296
-329168
-329042
-328918
-328797
-328678
-328560
-328445
-328332
-328221
-328111
-328004
-327897
-327793
-327690
-327588
-327489
-327390
-327293
-327197
-327103
-327010
-326918
-326828
-326739
-326651
-326565
-326480
-326395
-326312
-326229
-326146
-326066
-325987
-325907
-325831
-325752
-325675
-325599
-325523
-325449
-325376
-325304
-325235
-325164
-325101
-325030
-324984
-324901
-324918
-324641
-353294
-351868
-351626
-350798
-350303
-349662
-349123
-348556
-348027
-347502
-346997
-346503
-346025
-345558
-345104
-344661
-344231
-343811
-343402
-343003
-342615
-342236
-341866
-341505
-341153
-340810
-340475
-340147
-339828
-339515
-339210
-338923
-338591
-338296
-338046
-337766
-337505
-337240
-336984
-336731
-336484
-336242
-336004
-335772
-335543
-335320
-335100
-334885
-334674
-334466
-334263
-334063
-333867
-333674
-333485
-333299
-333116
-332936
-332760
-332586
-332416
-332248
-332082
-331920
-331759
-331602
-331446
-331293
-331142
-330994
-330848
-330703
-330562
-330421
-330284
-330148
-330015
-329882
-329754
-329626
-329498
-329371
-329251
-329128
-329016
-328891
-328770
-328650
-328533
-328418
-328306
-328195
-328089
-327980
-327882
-327770
-327694
-327555
-327548
-327157
-365211
-363494
-363050
-361984
-361279
-360423
-359680
-358912
-358190
-357475
-356786
-356112
-355459
-354821
-354201
-353597
-353008
-352435
-351876
-351330
-350799
-350280
-349774
-349280
-348798
-348328
-347869
-347419
-346983
-346549
-346132
-345710
-345247
-344912
-344542
-344163
-343800
-343437
-343085
-342738
-342399
-342067
-341742
-341423
-341110
-340803
-340503
-340207
-339918
-339634
-339355
-339081
-338812
-338548
-338288
-338033
-337783
-337538
-337296
-337059
-336825
-336596
-336369
-336147
-335928
-335712
-335500
-335291
-335085
-334883
-334683
-334487
-334294
-334103
-333916
-333731
-333552
-333370
-333199
-333019
-332839
-332670
-332505
-332337
-332186
-332020
-331849
-331694
-331535
-331382
-331230
-331081
-330936
-330789
-330653
-330501
-330387
-330206
-330161
-329721
-377117
-375109
-374463
-373159
-372245
-371173
-370227
-369258
-368342
-367438
-366565
-365712
-364884
-364076
-363290
-362524
-361778
-361050
-360341
-359649
-358975
-358317
-357675
-357048
-356436
-355838
-355254
-354683
-354126
-353580
-353045
-352524
-352003
-351507
-351025
-350547
-350083
-349625
-349178
-348738
-348308
-347887
-347474
-347069
-346671
-346282
-345900
-345525
-345158
-344797
-344442
-344094
-343753
-343417
-343088
-342764
-342446
-342135
-341829
-341527
-341231
-340940
-340653
-340371
-340093
-339819
-339550
-339285
-339025
-338768
-338515
-338265
-338020
-337777
-337541
-337303
-337078
-336845
-336634
-336426
-336188
-335962
-335767
-335550
-335428
-335175
-334950
-334734
-334537
-334340
-334152
-333963
-333781
-333595
-333422
-333232
-333081
-332859
-332781
-332295
-389008
-386709
-385862
-384320
-383197
-381910
-380762
-379592
-378483
-377389
-376332
-375300
-374297
-373320
-372368
-371440
-370537
-369655
-368796
-367959
-367141
-366344
-365566
-364806
-364064
-363339
-362632
-361940
-361263
-360601
-359953
-359319
-358690
-358095
-357505
-356928
-356363
-355808
-355265
-354733
-354211
-353700
-353199
-352708
-352227
-351754
-351291
-350837
-350391
-349953
-349524
-349102
-348688
-348280
-347881
-347488
-347104
-346728
-346356
-345991
-345632
-345279
-344932
-344590
-344253
-343922
-343596
-343276
-342960
-342649
-342343
-342042
-341746
-341453
-341169
-340884
-340618
-340335
-340120
-339805
-339471
-339251
-339002
-338728
-338568
-338303
-337961
-337773
-337524
-337300
-337070
-336844
-336623
-336399
-336188
-335960
-335773
-335512
-335400
-334874
-400881
-398292
-397245
-395465
-394133
-392632
-391281
-389911
-388608
-387326
-386085
-384874
-383697
-382550
-381433
-380344
-379283
-378248
-377240
-376256
-375296
-374359
-373445
-372553
-371681
-370830
-369999
-369186
-368391
-367614
-366854
-366111
-365382
-364673
-363978
-363299
-362634
-361982
-361344
-360718
-360106
-359505
-358917
-358340
-357774
-357219
-356675
-356141
-355618
-355103
-354599
-354103
-353617
-353138
-352670
-352206
-351753
-351312
-350878
-350449
-350028
-349613
-349205
-348803
-348408
-348019
-347637
-347260
-346890
-346524
-346165
-345810
-345462
-345114
-344778
-344427
-344115
-343712
-343500
-342966
-342858
-342432
-342157
-341835
-341889
-341195
-341030
-340710
-340503
-340228
-339978
-339713
-339458
-339197
-338950
-338684
-338461
-338163
-338017
-337452
-412734
-409856
-408607
-406591
-405050
-403335
-401782
-400212
-398716
-397245
-395822
-394432
-393081
-391764
-390482
-389232
-388014
-386826
-385668
-384539
-383437
-382362
-381312
-380287
-379286
-378309
-377353
-376420
-375507
-374615
-373742
-372889
-372053
-371238
-370440
-369659
-368895
-368146
-367413
-366695
-365991
-365301
-364625
-363962
-363312
-362675
-362050
-361437
-360835
-360244
-359665
-359095
-358536
-357984
-357447
-356910
-356395
-355896
-355392
-354902
-354416
-353940
-353471
-353010
-352556
-352110
-351671
-351239
-350814
-350395
-349983
-349577
-349177
-348782
-348393
-348010
-347626
-347262
-346850
-346564
-346253
-345851
-345500
-345180
-344775
-344482
-344225
-343844
-343538
-343212
-342906
-342597
-342298
-341997
-341711
-341407
-341147
-340812
-340632
-340029
-424563
-421396
-419948
-417695
-415946
-414018
-412262
-410493
-408805
-407146
-405539
-403971
-402447
-400961
-399514
-398103
-396728
-395388
-394081
-392806
-391562
-390348
-389163
-388006
-386876
-385773
-384694
-383640
-382610
-381603
-380618
-379655
-378712
-377791
-376890
-376008
-375144
-374299
-373471
-372659
-371864
-371086
-370322
-369574
-368840
-368121
-367415
-366723
-366044
-365377
-364725
-364081
-363454
-362828
-362228
-361612
-361010
-360457
-359905
-359343
-358800
-358259
-357731
-357209
-356697
-356193
-355698
-355210
-354730
-354258
-353793
-353334
-352883
-352438
-352002
-351568
-351147
-350727
-350324
-349940
-349527
-349120
-348748
-348358
-348058
-347638
-347255
-346870
-346515
-346155
-345809
-345463
-345127
-344788
-344465
-344124
-343829
-343457
-343243
-342601
-436366
-432912
-431263
-428774
-426818
-424676
-422719
-420752
-418871
-417024
-415236
-413490
-411792
-410137
-408526
-406955
-405424
-403931
-402475
-401055
-399670
-398317
-396997
-395709
-394450
-393221
-392019
-390845
-389698
-388576
-387479
-386406
-385356
-384330
-383325
-382342
-381380
-380438
-379515
-378611
-377726
-376858
-376007
-375173
-374356
-373554
-372768
-371997
-371241
-370497
-369769
-369051
-368350
-367646
-366976
-366251
-365636
-365072
-364398
-363784
-363169
-362569
-361979
-361398
-360828
-360267
-359716
-359173
-358638
-358113
-357595
-357085
-356584
-356089
-355602
-355124
-354650
-354188
-353727
-353286
-352846
-352404
-351972
-351547
-351124
-350710
-350307
-349895
-349499
-349101
-348714
-348329
-347953
-347576
-347215
-346837
-346505
-346097
-345849
-345170
-448141
-444398
-442551
-439826
-437663
-435309
-433151
-430985
-428913
-426878
-424908
-422985
-421114
-419291
-417516
-415785
-414098
-412453
-410849
-409284
-407757
-406267
-404813
-403392
-402005
-400650
-399327
-398033
-396768
-395532
-394323
-393140
-391984
-390852
-389745
-388662
-387601
-386562
-385545
-384549
-383573
-382616
-381679
-380760
-379859
-378975
-378109
-377260
-376427
-375608
-374810
-374019
-373263
-372485
-371825
-370970
-370552
-369541
-368970
-368199
-367547
-366868
-366222
-365579
-364951
-364332
-363724
-363126
-362538
-361958
-361388
-360827
-360275
-359730
-359195
-358667
-358149
-357638
-357135
-356641
-356152
-355669
-355197
-354726
-354272
-353809
-353358
-352909
-352470
-352034
-351607
-351184
-350770
-350355
-349957
-349542
-349175
-348730
-348449
-347732
-459883
-455854
-453808
-450849
-448479
-445913
-443555
-441190
-438928
-436706
-434554
-432454
-430412
-428421
-426482
-424591
-422749
-420952
-419200
-417491
-415824
-414196
-412607
-411056
-409541
-408061
-406614
-405201
-403820
-402469
-401149
-399857
-398593
-397357
-396148
-394964
-393805
-392670
-391559
-390471
-389404
-388359
-387335
-386331
-385347
-384382
-383435
-382507
-381596
-380703
-379826
-378966
-378122
-377297
-376477
-375720
-374854
-374041
-373343
-372590
-371871
-371148
-370442
-369745
-369060
-368385
-367722
-367069
-366427
-365794
-365172
-364559
-363956
-363362
-362777
-362202
-361634
-361077
-360526
-359986
-359452
-358925
-358406
-357894
-357389
-356890
-356399
-355912
-355434
-354960
-354494
-354033
-353581
-353128
-352693
-352242
-351839
-351358
-351043
-350289
-471591
-467276
-465031
-461839
-459263
-456486
-453928
-451366
-448913
-446505
-444172
-441896
-439682
-437523
-435421
-433372
-431374
-429427
-427527
-425674
-423866
-422101
-420379
-418697
-417054
-415449
-413881
-412349
-410851
-409386
-407954
-406554
-405184
-403844
-402532
-401248
-399991
-398761
-397556
-396375
-395219
-394086
-392975
-391886
-390819
-389773
-388746
-387740
-386752
-385783
-384833
-383899
-382986
-382081
-381203
-380321
-379445
-378621
-377817
-377000
-376212
-375426
-374660
-373902
-373159
-372428
-371709
-371001
-370304
-369619
-368944
-368280
-367627
-366983
-366349
-365725
-365111
-364506
-363910
-363322
-362743
-362172
-361610
-361055
-360508
-359967
-359435
-358908
-358389
-357876
-357372
-356872
-356382
-355893
-355421
-354933
-354495
-353977
-353629
-352839
-483261
-478661
-476219
-472793
-470012
-467024
-464267
-461509
-458866
-456273
-453760
-451307
-448922
-446597
-444332
-442124
-439972
-437874
-435828
-433831
-431883
-429982
-428125
-426313
-424543
-422814
-421124
-419473
-417859
-416281
-414738
-413229
-411753
-410309
-408895
-407512
-406158
-404832
-403533
-402261
-401015
-399794
-398597
-397424
-396274
-395146
-394040
-392955
-391891
-390847
-389822
-388816
-387828
-386859
-385904
-384971
-384040
-383132
-382253
-381380
-380528
-379685
-378859
-378045
-377244
-376457
-375682
-374920
-374170
-373432
-372705
-371990
-371286
-370592
-369910
-369238
-368576
-367923
-367281
-366648
-366024
-365409
-364803
-364205
-363615
-363034
-362460
-361894
-361335
-360784
-360241
-359703
-359175
-358649
-358141
-357616
-357142
-356589
-356208
-355381
-494890
-490007
-487368
-483710
-480725
-477527
-474571
-471617
-468784
-466006
-463314
-460686
-458130
-455639
-453212
-450847
-448541
-446292
-444099
-441960
-439872
-437835
-435846
-433903
-432007
-430154
-428343
-426574
-424844
-423153
-421499
-419882
-418300
-416752
-415237
-413755
-412303
-410882
-409490
-408127
-406791
-405483
-404200
-402943
-401710
-400501
-399316
-398153
-397013
-395893
-394795
-393716
-392658
-391617
-390596
-389591
-388602
-387636
-386688
-385753
-384837
-383934
-383047
-382175
-381317
-380473
-379643
-378826
-378022
-377231
-376453
-375687
-374932
-374189
-373458
-372738
-372029
-371330
-370641
-369963
-369295
-368636
-367986
-367345
-366714
-366091
-365476
-364870
-364272
-363681
-363100
-362524
-361959
-361395
-360851
-360290
-359781
-359192
-358777
-357915
-506477
-501311
-498476
-494586
-491397
-487990
-484837
-481687
-478666
-475704
-472832
-470030
-467305
-464648
-462060
-459537
-457077
-454679
-452340
-450059
-447832
-445659
-443537
-441466
-439443
-437466
-435535
-433648
-431803
-429999
-428235
-426510
-424823
-423171
-421555
-419974
-418426
-416910
-415425
-413971
-412546
-411150
-409782
-408441
-407126
-405837
-404572
-403332
-402115
-400921
-399749
-398599
-397469
-396360
-395271
-394201
-393148
-392115
-391102
-390106
-389128
-388165
-387219
-386289
-385374
-384474
-383589
-382718
-381860
-381017
-380187
-379370
-378565
-377773
-376993
-376225
-375469
-374723
-373989
-373266
-372553
-371850
-371157
-370474
-369801
-369136
-368481
-367835
-367198
-366568
-365948
-365335
-364733
-364132
-363551
-362954
-362410
-361786
-361337
-360440
-518017
-512570
-509539
-505419
-502027
-498412
-495062
-491718
-488509
-485363
-482313
-479338
-476443
-473621
-470872
-468192
-465580
-463033
-460549
-458125
-455760
-453452
-451199
-448998
-446849
-444750
-442699
-440694
-438734
-436818
-434945
-433112
-431319
-429565
-427849
-426169
-424524
-422914
-421337
-419792
-418279
-416796
-415343
-413918
-412521
-411152
-409808
-408491
-407198
-405930
-404685
-403463
-402263
-401085
-399928
-398791
-397674
-396578
-395501
-394443
-393403
-392381
-391376
-390387
-389416
-388460
-387519
-386594
-385684
-384788
-383906
-383038
-382184
-381343
-380515
-379699
-378895
-378104
-377324
-376556
-375798
-375052
-374316
-373591
-372876
-372171
-371475
-370789
-370112
-369444
-368786
-368135
-367495
-366858
-366241
-365608
-365029
-364369
-363887
-362955
-529509
-523781
-520556
-516206
-512612
-508790
-505244
-501706
-498310
-494982
-491754
-488605
-485542
-482556
-479647
-476811
-474047
-471352
-468723
-466158
-463655
-461213
-458828
-456499
-454225
-452003
-449832
-447710
-445636
-443609
-441626
-439686
-437789
-435932
-434115
-432337
-430596
-428892
-427223
-425589
-423987
-422418
-420880
-419372
-417894
-416444
-415022
-413628
-412260
-410917
-409599
-408306
-407036
-405790
-404565
-403363
-402181
-401021
-399881
-398761
-397660
-396578
-395515
-394469
-393440
-392428
-391433
-390454
-389491
-388543
-387610
-386692
-385788
-384898
-384021
-383158
-382308
-381470
-380645
-379832
-379031
-378241
-377462
-376695
-375938
-375192
-374456
-373730
-373015
-372308
-371612
-370923
-370246
-369572
-368919
-368251
-367637
-366942
-366427
-365461
-540949
-534942
-531523
-526945
-523150
-519121
-515380
-511649
-508068
-504557
-501153
-497832
-494600
-491451
-488383
-485392
-482476
-479633
-476860
-474155
-471515
-468938
-466423
-463966
-461567
-459224
-456934
-454695
-452508
-450369
-448277
-446231
-444229
-442271
-440354
-438479
-436642
-434844
-433084
-431360
-429670
-428015
-426392
-424802
-423242
-421713
-420213
-418742
-417299
-415882
-414492
-413128
-411789
-410474
-409182
-407914
-406668
-405444
-404242
-403060
-401899
-400757
-399635
-398532
-397447
-396380
-395330
-394297
-393281
-392282
-391298
-390329
-389375
-388437
-387512
-386602
-385705
-384821
-383951
-383094
-382249
-381416
-380595
-379785
-378987
-378200
-377424
-376659
-375904
-375159
-374425
-373699
-372985
-372275
-371586
-370882
-370233
-369504
-368955
-367955
-552335
-546049
-542438
-537633
-533638
-529403
-525468
-521545
-517778
-514087
-510507
-507014
-503616
-500304
-497077
-493932
-490865
-487875
-484959
-482114
-479337
-476627
-473982
-471398
-468875
-466410
-464002
-461648
-459347
-457097
-454897
-452745
-450639
-448579
-446562
-444590
-442657
-440768
-438915
-437103
-435326
-433585
-431878
-430206
-428565
-426957
-425380
-423832
-422314
-420824
-419363
-417928
-416519
-415136
-413777
-412443
-411133
-409846
-408581
-407338
-406117
-404916
-403736
-402576
-401435
-400312
-399208
-398122
-397054
-396002
-394968
-393949
-392946
-391959
-390987
-390029
-389086
-388157
-387242
-386340
-385451
-384575
-383712
-382861
-382022
-381194
-380379
-379574
-378780
-377997
-377225
-376461
-375711
-374964
-374240
-373501
-372817
-372053
-371471
-370437
-563663
-557101
-553299
-548267
-544073
-539633
-535505
-531392
-527441
-523569
-519814
-516151
-512586
-509112
-505728
-502429
-499212
-496076
-493017
-490033
-487120
-484278
-481503
-478793
-476146
-473561
-471034
-468565
-466151
-463791
-461484
-459226
-457017
-454856
-452741
-450672
-448644
-446662
-444719
-442818
-440954
-439128
-437338
-435583
-433862
-432175
-430520
-428897
-427305
-425742
-424208
-422703
-421225
-419775
-418350
-416951
-415576
-414226
-412899
-411595
-410314
-409055
-407817
-406599
-405402
-404225
-403067
-401928
-400808
-399705
-398619
-397551
-396499
-395463
-394444
-393439
-392450
-391476
-390516
-389570
-388638
-387719
-386814
-385921
-385041
-384174
-383318
-382474
-381642
-380820
-380011
-379210
-378424
-377641
-376881
-376106
-375388
-374589
-373975
-372907
-574932
-568095
-564102
-558845
-554452
-549810
-545489
-541186
-537052
-533001
-529072
-525239
-521509
-517874
-514333
-510881
-507515
-504234
-501033
-497910
-494862
-491888
-488984
-486149
-483379
-480673
-478030
-475446
-472920
-470451
-468036
-465673
-463361
-461099
-458883
-456719
-454592
-452523
-450489
-448502
-446551
-444641
-442768
-440932
-439131
-437366
-435634
-433935
-432269
-430634
-429029
-427454
-425907
-424389
-422898
-421434
-419996
-418583
-417194
-415830
-414489
-413171
-411876
-410602
-409349
-408118
-406906
-405714
-404541
-403387
-402252
-401134
-400033
-398950
-397883
-396832
-395797
-394777
-393773
-392783
-391808
-390847
-389900
-388966
-388045
-387137
-386242
-385359
-384488
-383629
-382782
-381945
-381122
-380303
-379508
-378698
-377946
-377113
-376465
-375365
-586138
-579028
-574845
-569364
-564775
-559930
-555418
-550926
-546609
-542380
-538278
-534276
-530383
-526587
-522890
-519286
-515772
-512346
-509004
-505743
-502561
-499456
-496424
-493463
-490572
-487747
-484987
-482289
-479652
-477074
-474552
-472085
-469672
-467310
-464997
-462736
-460518
-458357
-456233
-454158
-452120
-450126
-448169
-446252
-444371
-442528
-440719
-438946
-437206
-435498
-433822
-432178
-430563
-428978
-427421
-425892
-424391
-422915
-421465
-420041
-418641
-417265
-415911
-414582
-413274
-411988
-410723
-409479
-408255
-407050
-405864
-404697
-403548
-402417
-401303
-400206
-399125
-398061
-397012
-395979
-394961
-393957
-392968
-391993
-391032
-390084
-389150
-388228
-387319
-386422
-385538
-384664
-383805
-382950
-382120
-381275
-380489
-379622
-378941
-377809
-597279
-589896
-585525
-579822
-575036
-569990
-565289
-560609
-556111
-551705
-547431
-543261
-539204
-535250
-531397
-527642
-523981
-520411
-516928
-513531
-510216
-506980
-503821
-500736
-497723
-494779
-491903
-489092
-486345
-483658
-481030
-478460
-475943
-473482
-471064
-468711
-466370
-464148
-461932
-459777
-457654
-455577
-453539
-451540
-449581
-447660
-445775
-443927
-442114
-440334
-438588
-436875
-435192
-433540
-431918
-430325
-428760
-427223
-425712
-424228
-422769
-421335
-419924
-418539
-417176
-415837
-414519
-413222
-411946
-410691
-409456
-408239
-407042
-405863
-404703
-403560
-402434
-401325
-400232
-399155
-398095
-397049
-396019
-395003
-394002
-393014
-392040
-391080
-390133
-389199
-388278
-387367
-386472
-385582
-384717
-383838
-383017
-382116
-381402
-380238
-608351
-600699
-596140
-590216
-585236
-579990
-575099
-570233
-565555
-560973
-556528
-552191
-547972
-543859
-539853
-535947
-532139
-528426
-524805
-521271
-517823
-514458
-511172
-507964
-504830
-501769
-498777
-495854
-492996
-490202
-487470
-484797
-482182
-479621
-477115
-474661
-472251
-469924
-467618
-465370
-463161
-460998
-458877
-456798
-454759
-452761
-450801
-448878
-446992
-445141
-443325
-441543
-439793
-438075
-436388
-434731
-433103
-431504
-429932
-428388
-426870
-425378
-423910
-422471
-421053
-419661
-418290
-416942
-415616
-414310
-413025
-411760
-410515
-409289
-408082
-406893
-405722
-404569
-403432
-402313
-401210
-400122
-399051
-397994
-396953
-395926
-394914
-393915
-392930
-391958
-391001
-390054
-389123
-388198
-387297
-386384
-385530
-384595
-383848
-382653
-619353
-611432
-606687
-600543
-595370
-589925
-584847
-579795
-574939
-570181
-565566
-561064
-556684
-552414
-548254
-544199
-540246
-536391
-532631
-528962
-525382
-521888
-518476
-515145
-511892
-508713
-505608
-502573
-499606
-496706
-493870
-491095
-488380
-485721
-483102
-480560
-477864
-475637
-473240
-470921
-468629
-466383
-464181
-462021
-459905
-457829
-455794
-453797
-451839
-449918
-448032
-446181
-444364
-442581
-440829
-439109
-437419
-435759
-434127
-432524
-430947
-429399
-427874
-426379
-424907
-423461
-422039
-420639
-419262
-417906
-416572
-415259
-413966
-412693
-411440
-410206
-408990
-407792
-406613
-405450
-404305
-403176
-402063
-400967
-399885
-398819
-397768
-396732
-395709
-394700
-393706
-392723
-391757
-390797
-389862
-388914
-388026
-387059
-386279
-385053
-630282
-622094
-617164
-610801
-605436
-599795
-594530
-589294
-584259
-579328
-574545
-569878
-565337
-560911
-556599
-552396
-548298
-544302
-540404
-536601
-532891
-529268
-525732
-522279
-518906
-515612
-512392
-509246
-506171
-503165
-500226
-497349
-494540
-491779
-489099
-486416
-483887
-481387
-478881
-476449
-474067
-471733
-469449
-467210
-465015
-462863
-460753
-458684
-456654
-454662
-452707
-450789
-448905
-447056
-445241
-443458
-441706
-439985
-438292
-436630
-434992
-433387
-431794
-430256
-428731
-427235
-425761
-424311
-422884
-421479
-420096
-418734
-417394
-416075
-414775
-413496
-412236
-410994
-409771
-408566
-407379
-406209
-405056
-403919
-402798
-401693
-400604
-399529
-398470
-397424
-396393
-395375
-394373
-393378
-392409
-391427
-390506
-389505
-388693
-387436
-641134
-632682
-627568
-620989
-615432
-609595
-604145
-598726
-593515
-588412
-583460
-578630
-573930
-569349
-564886
-560536
-556294
-552158
-548124
-544188
-540347
-536598
-532937
-529363
-525872
-522462
-519130
-515874
-512691
-509580
-506541
-503566
-500677
-497822
-495152
-492334
-489097
-487041
-484568
-481937
-479483
-477048
-474684
-472362
-470091
-467863
-465678
-463536
-461435
-459373
-457350
-455364
-453415
-451501
-449622
-447776
-445964
-444183
-442432
-440713
-439019
-437361
-435714
-434111
-432536
-430985
-429460
-427958
-426481
-425026
-423595
-422185
-420798
-419432
-418088
-416763
-415459
-414174
-412908
-411661
-410432
-409221
-408027
-406851
-405691
-404547
-403420
-402307
-401211
-400129
-399062
-398008
-396971
-395941
-394938
-393923
-392968
-391935
-391089
-389803
-651908
-643192
-637896
-631102
-625356
-619324
-613691
-608090
-602704
-597429
-592311
-587319
-582461
-577726
-573113
-568616
-564232
-559957
-555787
-551719
-547749
-543873
-540090
-536395
-532787
-529262
-525818
-522452
-519162
-515945
-512801
-509726
-506719
-503780
-500903
-498114
-495318
-492554
-489953
-487343
-484808
-482311
-479870
-477474
-475126
-472824
-470567
-468353
-466181
-464050
-461959
-459906
-457892
-455914
-453972
-452064
-450191
-448350
-446542
-444761
-443005
-441284
-439489
-437931
-436305
-434709
-433135
-431581
-430054
-428549
-427069
-425612
-424178
-422766
-421376
-420007
-418658
-417330
-416022
-414733
-413463
-412211
-410977
-409761
-408562
-407380
-406215
-405065
-403932
-402813
-401711
-400621
-399550
-398486
-397448
-396400
-395412
-394346
-393468
-392153
-662600
-653624
-648147
-641139
-635205
-628980
-623164
-617384
-611823
-606379
-601096
-595942
-590928
-586040
-581278
-576636
-572111
-567697
-563393
-559193
-555096
-551095
-547189
-543375
-539650
-536011
-532455
-528980
-525584
-522263
-519016
-515840
-512732
-509690
-506692
-503786
-500722
-498133
-495395
-492735
-490113
-487541
-485020
-482548
-480125
-477749
-475419
-473133
-470891
-468691
-466532
-464414
-462334
-460292
-458288
-456319
-454386
-452487
-450622
-448791
-446988
-445241
-443454
-441710
-440066
-438400
-436779
-435173
-433597
-432044
-430516
-429012
-427532
-426074
-424639
-423226
-421834
-420463
-419112
-417781
-416470
-415178
-413905
-412649
-411412
-410192
-408989
-407802
-406632
-405478
-404340
-403215
-402109
-401011
-399939
-398858
-397837
-396739
-395829
-394484
-673209
-663973
-658317
-651097
-644977
-638560
-632563
-626604
-620871
-615258
-609811
-604498
-599327
-594288
-589378
-584592
-579927
-575377
-570939
-566609
-562384
-558259
-554232
-550299
-546458
-542706
-539040
-535457
-531955
-528531
-525182
-521907
-518702
-515568
-512494
-509496
-506531
-503659
-500844
-498084
-495380
-492728
-490130
-487582
-485084
-482634
-480232
-477876
-475564
-473296
-471070
-468886
-466742
-464637
-462571
-460541
-458553
-456594
-454692
-452788
-451038
-449096
-447113
-445531
-443910
-442091
-440425
-438747
-437121
-435515
-433938
-432386
-430859
-429356
-427876
-426419
-424984
-423570
-422178
-420806
-419454
-418122
-416809
-415515
-414239
-412981
-411741
-410517
-409311
-408121
-406947
-405788
-404648
-403516
-402411
-401296
-400243
-399113
-398171
-396798
-683731
-674239
-668404
-660974
-654669
-648062
-641886
-635749
-629845
-624064
-618455
-612983
-607659
-602469
-597413
-592484
-587679
-582993
-578424
-573964
-569615
-565365
-561218
-557167
-553212
-549347
-545571
-541881
-538274
-534747
-531297
-527924
-524621
-521391
-518218
-515129
-512063
-509131
-506224
-503389
-500603
-497875
-495198
-492575
-490003
-487480
-485006
-482580
-480199
-477863
-475571
-473321
-471113
-468944
-466815
-464724
-462671
-460652
-458672
-456715
-454808
-452889
-451066
-449287
-447476
-445716
-443982
-442277
-440601
-438951
-437328
-435731
-434159
-432611
-431087
-429586
-428108
-426653
-425219
-423806
-422414
-421042
-419689
-418357
-417043
-415747
-414470
-413210
-411968
-410742
-409534
-408340
-407165
-406000
-404862
-403715
-402629
-401467
-400493
-399092
-694164
-684417
-678406
-670767
-664278
-657484
-651129
-644817
-638743
-632796
-627026
-621397
-615919
-610580
-605379
-600308
-595365
-590545
-585844
-581256
-576782
-572410
-568144
-563977
-559907
-555931
-552047
-548251
-544539
-540911
-537363
-533892
-530495
-527173
-523918
-520736
-517613
-514566
-511578
-508654
-505787
-502978
-500225
-497526
-494880
-492285
-489740
-487243
-484794
-482391
-480033
-477719
-475447
-473216
-471026
-468875
-466762
-464685
-462647
-460637
-458659
-456716
-454710
-452945
-451108
-449308
-447531
-445779
-444056
-442360
-440691
-439047
-437430
-435838
-434270
-432726
-431206
-429708
-428233
-426780
-425348
-423936
-422545
-421174
-419822
-418490
-417176
-415880
-414602
-413341
-412098
-410870
-409661
-408462
-407292
-406112
-404994
-403801
-402795
-401366
-704505
-694506
-688320
-680474
-673804
-666822
-660292
-653804
-647563
-641451
-635521
-629736
-624107
-618620
-613275
-608064
-602984
-598030
-593201
-588486
-583898
-579395
-575011
-570726
-566544
-562458
-558465
-554564
-550750
-547021
-543374
-539806
-536315
-532900
-529555
-526285
-523075
-519946
-516874
-513870
-510923
-508037
-505208
-502434
-499714
-497047
-494432
-491866
-489349
-486880
-484456
-482077
-479742
-477449
-475198
-472987
-470815
-468680
-466584
-464521
-462495
-460501
-458542
-456630
-454737
-452880
-451051
-449251
-447480
-445737
-444022
-442334
-440672
-439036
-437425
-435839
-434276
-432737
-431221
-429728
-428256
-426805
-425376
-423967
-422578
-421208
-419858
-418526
-417212
-415917
-414639
-413377
-412135
-410903
-409700
-408488
-407338
-406114
-405077
-403621
-714753
-704503
-698143
-690093
-683242
-676076
-669370
-662711
-656302
-650028
-643939
-638000
-632221
-626587
-621099
-615749
-610533
-605446
-600486
-595644
-590930
-586315
-581811
-577414
-573119
-568925
-564826
-560820
-556904
-553075
-549331
-545669
-542085
-538579
-535147
-531789
-528499
-525281
-522127
-519040
-516015
-513051
-510145
-507297
-504505
-501767
-499081
-496447
-493863
-491327
-488839
-486396
-483999
-481645
-479333
-477063
-474832
-472641
-470487
-468370
-466287
-464244
-462221
-460262
-458319
-456415
-454538
-452691
-450874
-449085
-447324
-445591
-443885
-442205
-440551
-438922
-437318
-435738
-434182
-432648
-431137
-429648
-428180
-426734
-425307
-423901
-422515
-421147
-419799
-418469
-417157
-415861
-414586
-413322
-412086
-410842
-409660
-408406
-407337
-405854
-724903
-714406
-707874
-699621
-692592
-685242
-678363
-671533
-664959
-658523
-652278
-646186
-640257
-634479
-628849
-623361
-618009
-612793
-607706
-602743
-597964
-593171
-588549
-584038
-579631
-575330
-571125
-567017
-563000
-559073
-555232
-551475
-547799
-544203
-540682
-537238
-533863
-530562
-527328
-524161
-521057
-518017
-515036
-512115
-509250
-506441
-503687
-500985
-498334
-495733
-493180
-490675
-488215
-485800
-483429
-481100
-478812
-476565
-474356
-472186
-470052
-467956
-465894
-463871
-461879
-459922
-457995
-456101
-454236
-452401
-450595
-448817
-447067
-445344
-443648
-441977
-440331
-438711
-437114
-435541
-433991
-432464
-430958
-429474
-428011
-426569
-425147
-423744
-422361
-420996
-419651
-418322
-417014
-415717
-414449
-413174
-411960
-410676
-409575
-408066
-734955
-724212
-717510
-709056
-701850
-694319
-687269
-680268
-673531
-666936
-660535
-654291
-648216
-642293
-636523
-630898
-625413
-620065
-614847
-609749
-604799
-599965
-595214
-590598
-586081
-581673
-577364
-573153
-569036
-565012
-561075
-557225
-553458
-549773
-546165
-542635
-539177
-535793
-532478
-529232
-526051
-522934