/*--------------------------------*- C++ -*----------------------------------*\
| =========                 |                                                 |
| \\      /  F ield         | foam-extend: Open Source CFD                    |
|  \\    /   O peration     | Version:     4.1                                |
|   \\  /    A nd           | Web:         http://www.foam-extend.org         |
|    \\/     M anipulation  |                                                 |
\*---------------------------------------------------------------------------*/
FoamFile
{
    version     2.0;
    format      ascii;
    class       volScalarField;
    location    "7";
    object      sigmaEq;
}
// * * * * * * * * * * * * * * * * * * * * * * * * * * * * * * * * * * * * * //

dimensions      [1 -1 -2 0 0 0 0];

internalField   nonuniform List<scalar> 
100000
(
3.74232e+06
3.56556e+06
3.55226e+06
3.81477e+06
3.79969e+06
3.27665e+06
2.89362e+06
2.55498e+06
2.07462e+06
1.71022e+06
1.48672e+06
1.39827e+06
1.55788e+06
1.7334e+06
3.42453e+06
4.20005e+06
4.52732e+06
3.15214e+06
7.4327e+06
1.35567e+07
9.96353e+06
5.73968e+06
4.11348e+06
6.54577e+06
1.17733e+07
1.66922e+07
1.99194e+07
1.99707e+07
1.92808e+07
1.89631e+07
1.84366e+07
1.7511e+07
1.56499e+07
1.40495e+07
1.25825e+07
1.11347e+07
9.77888e+06
8.65233e+06
7.70746e+06
6.85526e+06
6.15846e+06
5.27574e+06
4.63085e+06
4.1472e+06
3.89403e+06
3.658e+06
3.46663e+06
3.3759e+06
3.32771e+06
3.29087e+06
3.30955e+06
3.38888e+06
3.50661e+06
3.63803e+06
3.80051e+06
3.99282e+06
4.21343e+06
4.46194e+06
4.68024e+06
4.89971e+06
5.10879e+06
5.34017e+06
5.59551e+06
6.04082e+06
6.47366e+06
7.00885e+06
7.47606e+06
7.87779e+06
8.30039e+06
8.77565e+06
9.28599e+06
9.82645e+06
1.0529e+07
1.12382e+07
1.19542e+07
1.27781e+07
1.38302e+07
1.49567e+07
1.60736e+07
1.70123e+07
1.7762e+07
1.84073e+07
1.89422e+07
1.94522e+07
1.91181e+07
1.68826e+07
1.56323e+07
1.39421e+07
1.21045e+07
1.02238e+07
8.39006e+06
6.7602e+06
4.51869e+06
3.02668e+06
2.3117e+06
2.16265e+06
2.77139e+06
3.33185e+06
3.85766e+06
4.24327e+06
4.4329e+06
4.73854e+06
4.42541e+06
4.0395e+06
3.81328e+06
3.68755e+06
3.55372e+06
2.97255e+06
2.32519e+06
1.87367e+06
1.52057e+06
1.47062e+06
1.56085e+06
1.04068e+06
1.21782e+06
3.52048e+06
4.11949e+06
4.23138e+06
3.94775e+06
4.14425e+06
6.36755e+06
5.46017e+06
6.82048e+06
7.76021e+06
9.33407e+06
1.05579e+07
1.15451e+07
1.11414e+07
1.00449e+07
8.18955e+06
6.99619e+06
6.03679e+06
5.84121e+06
5.11986e+06
5.41044e+06
5.46347e+06
5.06137e+06
4.49251e+06
4.02232e+06
3.68812e+06
3.37543e+06
2.9946e+06
2.5855e+06
2.26646e+06
2.00463e+06
1.79547e+06
1.76e+06
1.81988e+06
1.87324e+06
1.91981e+06
1.95965e+06
1.98372e+06
2.00768e+06
2.02564e+06
2.08735e+06
2.14773e+06
2.20662e+06
2.26166e+06
2.3048e+06
2.24724e+06
2.33056e+06
2.5286e+06
2.80365e+06
3.016e+06
3.05777e+06
3.12698e+06
3.17415e+06
3.18532e+06
3.18485e+06
3.18618e+06
3.18136e+06
3.20497e+06
3.17044e+06
2.92087e+06
2.40212e+06
1.85307e+06
1.82396e+06
2.42422e+06
3.36013e+06
4.21647e+06
5.05253e+06
6.09793e+06
6.95041e+06
7.33673e+06
8.5536e+06
9.42248e+06
9.59134e+06
9.80348e+06
9.76245e+06
9.83989e+06
1.01336e+07
1.0423e+07
1.06254e+07
9.38399e+06
8.05435e+06
6.62645e+06
5.48612e+06
4.75493e+06
3.93476e+06
2.95821e+06
5.09966e+06
5.16075e+06
5.11436e+06
4.49854e+06
3.96975e+06
3.47105e+06
3.2006e+06
3.01597e+06
2.83445e+06
2.49964e+06
2.06135e+06
1.7191e+06
1.47821e+06
1.68864e+06
2.17274e+06
2.20083e+06
3.75362e+06
3.92101e+06
4.20479e+06
7.05187e+06
1.01438e+07
1.2286e+07
1.09093e+07
9.90675e+06
9.97441e+06
8.94748e+06
7.25503e+06
7.78668e+06
9.02042e+06
1.00017e+07
1.05763e+07
1.08241e+07
1.11102e+07
1.12214e+07
1.11912e+07
1.11008e+07
1.10908e+07
1.10038e+07
1.08289e+07
1.06766e+07
1.05628e+07
1.03055e+07
9.82775e+06
9.41942e+06
9.08182e+06
8.84663e+06
8.71042e+06
8.65381e+06
8.64237e+06
8.69337e+06
8.78058e+06
8.90074e+06
9.0486e+06
9.22764e+06
9.43607e+06
9.67066e+06
9.93056e+06
1.02143e+07
1.05158e+07
1.06748e+07
1.08639e+07
1.10574e+07
1.11826e+07
1.1279e+07
1.14362e+07
1.16708e+07
1.19097e+07
1.21119e+07
1.23089e+07
1.24807e+07
1.26417e+07
1.27816e+07
1.27681e+07
1.27366e+07
1.27009e+07
1.25554e+07
1.22848e+07
1.19975e+07
1.15125e+07
1.062e+07
9.79757e+06
9.04179e+06
8.4172e+06
7.79871e+06
7.67883e+06
9.76508e+06
1.07343e+07
1.12469e+07
1.18782e+07
1.25482e+07
1.32047e+07
1.39293e+07
1.45196e+07
1.46463e+07
1.44466e+07
1.4254e+07
1.36185e+07
1.24217e+07
1.11277e+07
9.97566e+06
4.86608e+06
4.77772e+06
4.63848e+06
4.4192e+06
3.96182e+06
3.44246e+06
2.96652e+06
2.50369e+06
2.53307e+06
2.44226e+06
2.36004e+06
2.35992e+06
2.20286e+06
2.4768e+06
2.13954e+06
2.57595e+06
1.91228e+06
4.10582e+06
1.03263e+07
1.55672e+07
1.79703e+07
1.78911e+07
1.86367e+07
1.85867e+07
1.71729e+07
1.55111e+07
1.41307e+07
1.5003e+07
1.61242e+07
1.71757e+07
1.73301e+07
1.68551e+07
1.53961e+07
1.37811e+07
1.23612e+07
1.11409e+07
1.03742e+07
9.9699e+06
9.62338e+06
9.30177e+06
8.96371e+06
8.58087e+06
8.24862e+06
7.9051e+06
7.62372e+06
7.41605e+06
7.01308e+06
6.63089e+06
6.31831e+06
6.07196e+06
5.88595e+06
5.76917e+06
5.72614e+06
5.70517e+06
5.64708e+06
5.63004e+06
5.65149e+06
5.69845e+06
5.76287e+06
5.94632e+06
6.08343e+06
6.13193e+06
6.13219e+06
6.48426e+06
7.07414e+06
7.70894e+06
8.39298e+06
9.13665e+06
9.94305e+06
1.07884e+07
1.16596e+07
1.24765e+07
1.30948e+07
1.37749e+07
1.4597e+07
1.56326e+07
1.64915e+07
1.69831e+07
1.71034e+07
1.71188e+07
1.72797e+07
1.72023e+07
1.66896e+07
1.60605e+07
1.5735e+07
1.61292e+07
1.6542e+07
1.65997e+07
1.684e+07
1.7159e+07
1.68229e+07
1.63834e+07
1.58447e+07
1.51389e+07
1.43752e+07
1.3791e+07
1.31859e+07
1.27104e+07
1.23572e+07
1.19655e+07
3.08194e+06
2.82625e+06
2.60402e+06
2.50659e+06
2.3817e+06
2.25628e+06
1.96077e+06
1.67864e+06
1.42605e+06
1.19996e+06
1.026e+06
901192
1.07419e+06
1.96944e+06
3.02794e+06
3.61442e+06
5.05024e+06
9.46705e+06
1.5802e+07
1.73299e+07
1.85198e+07
1.95298e+07
1.97376e+07
1.95462e+07
1.90908e+07
1.80172e+07
1.79624e+07
1.41907e+07
1.17728e+07
9.0876e+06
7.26823e+06
6.25274e+06
5.7235e+06
4.88513e+06
4.04956e+06
3.17906e+06
2.87367e+06
3.29649e+06
4.05762e+06
4.88414e+06
5.73851e+06
6.29379e+06
6.44679e+06
6.5663e+06
6.65361e+06
6.78459e+06
6.91865e+06
7.02083e+06
7.08557e+06
7.13465e+06
7.13245e+06
6.90671e+06
7.00329e+06
6.96642e+06
6.83869e+06
6.68202e+06
6.49661e+06
6.28941e+06
6.06488e+06
5.65602e+06
5.2103e+06
4.74136e+06
4.36942e+06
4.17212e+06
3.86854e+06
3.59314e+06
3.39528e+06
3.35643e+06
3.53817e+06
3.90209e+06
4.33573e+06
4.62078e+06
5.18563e+06
5.98795e+06
6.86025e+06
7.99106e+06
9.26839e+06
1.0487e+07
1.15751e+07
1.32392e+07
1.44437e+07
1.53613e+07
1.61647e+07
1.66659e+07
1.70046e+07
1.71102e+07
1.65009e+07
1.60419e+07
1.53329e+07
1.48695e+07
1.44111e+07
1.38601e+07
1.35421e+07
1.34329e+07
1.30795e+07
1.2417e+07
1.15469e+07
1.05966e+07
9.52415e+06
8.65194e+06
1.45187e+06
1.3e+06
1.18395e+06
1.14057e+06
1.14256e+06
1.14626e+06
1.15124e+06
1.15193e+06
963798
902279
887078
984408
1.25882e+06
2.55634e+06
4.69967e+06
8.14552e+06
1.08501e+07
1.39192e+07
1.55658e+07
1.65107e+07
1.78907e+07
1.78689e+07
1.74668e+07
1.69689e+07
1.66372e+07
1.6267e+07
1.53012e+07
1.21727e+07
7.9929e+06
5.82222e+06
4.42431e+06
4.38762e+06
5.07261e+06
5.5524e+06
5.50143e+06
5.48265e+06
5.74389e+06
6.09885e+06
6.34783e+06
5.59209e+06
5.4687e+06
5.16245e+06
4.68326e+06
1.83908e+06
2.74093e+06
4.42724e+06
6.08308e+06
7.51796e+06
8.7153e+06
9.67766e+06
1.04558e+07
1.11376e+07
1.15718e+07
1.18356e+07
1.1909e+07
1.17717e+07
1.14412e+07
1.08383e+07
9.93331e+06
1.02468e+07
1.05661e+07
1.08432e+07
1.07571e+07
1.02051e+07
9.50378e+06
8.77201e+06
8.06193e+06
7.36512e+06
6.65956e+06
5.96512e+06
5.31125e+06
4.89956e+06
4.89936e+06
4.91475e+06
5.14298e+06
5.41556e+06
5.46258e+06
5.91761e+06
6.72623e+06
7.48593e+06
7.7734e+06
7.87737e+06
7.78233e+06
7.9533e+06
8.08493e+06
7.46185e+06
6.47379e+06
6.42123e+06
6.20731e+06
5.38486e+06
5.06662e+06
5.40689e+06
5.94189e+06
6.67897e+06
7.2159e+06
7.26794e+06
7.17426e+06
6.98372e+06
6.50293e+06
6.32781e+06
1.12885e+06
1.15382e+06
1.15105e+06
1.11268e+06
1.06281e+06
1.0198e+06
993703
996733
954973
1.3311e+06
2.47767e+06
3.61819e+06
4.75804e+06
6.30445e+06
8.15871e+06
9.92919e+06
1.18769e+07
1.42053e+07
1.60628e+07
1.73407e+07
1.53584e+07
1.09496e+07
7.10719e+06
4.09138e+06
2.70006e+06
1.18523e+06
4.09562e+06
7.27549e+06
6.93425e+06
6.2016e+06
5.68228e+06
5.60581e+06
5.87452e+06
5.88244e+06
5.42107e+06
5.82434e+06
6.47978e+06
7.70326e+06
8.77918e+06
1.01823e+07
1.16667e+07
1.35309e+07
1.53398e+07
1.78263e+07
1.8837e+07
1.95362e+07
2.0045e+07
2.04849e+07
2.05771e+07
2.04015e+07
2.01998e+07
1.9776e+07
1.96747e+07
1.94557e+07
1.91613e+07
1.88512e+07
1.85292e+07
1.82067e+07
1.78049e+07
1.75446e+07
1.71575e+07
1.66955e+07
1.62094e+07
1.55865e+07
1.4918e+07
1.44565e+07
1.39428e+07
1.31595e+07
1.26157e+07
1.2056e+07
1.15042e+07
1.10019e+07
1.01646e+07
9.24025e+06
8.37327e+06
7.81552e+06
7.82017e+06
7.97108e+06
7.56273e+06
6.58457e+06
5.51604e+06
4.12656e+06
2.10591e+06
1.05078e+06
1.44915e+06
2.76838e+06
3.85486e+06
4.21472e+06
4.7001e+06
5.51021e+06
5.24485e+06
4.91164e+06
4.99015e+06
5.61303e+06
6.37866e+06
6.84283e+06
6.60897e+06
6.31806e+06
5.85853e+06
5.30736e+06
1.09561e+06
1.05947e+06
1.01668e+06
1.01556e+06
1.02948e+06
1.01392e+06
2.49455e+06
4.10507e+06
5.85592e+06
7.56725e+06
8.71763e+06
9.39271e+06
1.0032e+07
1.05991e+07
9.75766e+06
8.45785e+06
7.50901e+06
9.55806e+06
1.20455e+07
9.64052e+06
6.9388e+06
7.80241e+06
8.31309e+06
8.84453e+06
8.67419e+06
7.75181e+06
5.72574e+06
5.10057e+06
6.95243e+06
7.64533e+06
7.85774e+06
9.82662e+06
1.17969e+07
1.29739e+07
1.31086e+07
1.34258e+07
1.4264e+07
1.45291e+07
1.47592e+07
1.41069e+07
1.43782e+07
1.46756e+07
1.47284e+07
1.15957e+07
9.1379e+06
7.49084e+06
6.24895e+06
5.28432e+06
4.56794e+06
4.14927e+06
3.95302e+06
3.849e+06
3.99001e+06
4.36244e+06
4.95406e+06
5.75608e+06
6.75751e+06
8.04703e+06
9.61868e+06
9.86721e+06
1.01061e+07
1.0385e+07
1.08991e+07
1.15512e+07
1.23213e+07
1.28998e+07
1.263e+07
1.24326e+07
1.23163e+07
1.2179e+07
1.20548e+07
1.16816e+07
1.10049e+07
1.04291e+07
9.98302e+06
9.59575e+06
9.05912e+06
7.67997e+06
6.45825e+06
5.02735e+06
3.67197e+06
3.33628e+06
4.46807e+06
4.35919e+06
4.28506e+06
4.01137e+06
3.5245e+06
3.20343e+06
3.16587e+06
3.1117e+06
3.16287e+06
3.43528e+06
4.33419e+06
4.80613e+06
4.52054e+06
4.12918e+06
3.94027e+06
3.48447e+06
2.96251e+06
1.94617e+06
1.01366e+06
1.07675e+06
969868
2.64188e+06
4.5757e+06
6.10177e+06
5.63414e+06
4.78418e+06
3.95583e+06
3.00693e+06
3.39211e+06
4.81185e+06
6.55296e+06
7.58323e+06
8.57948e+06
9.6568e+06
1.28507e+07
1.55469e+07
1.75804e+07
1.90632e+07
1.74714e+07
1.25428e+07
7.8477e+06
3.78015e+06
3.39161e+06
4.31412e+06
5.35569e+06
8.96178e+06
1.33547e+07
1.62035e+07
1.81206e+07
1.78215e+07
1.79732e+07
1.90738e+07
2.03175e+07
1.95007e+07
1.87247e+07
1.76365e+07
1.65234e+07
1.5495e+07
1.45736e+07
1.31106e+07
1.19438e+07
1.06243e+07
9.54019e+06
9.03297e+06
8.84613e+06
8.72697e+06
9.00151e+06
9.54952e+06
1.01111e+07
1.06846e+07
1.1268e+07
1.18607e+07
1.19607e+07
1.17498e+07
1.15056e+07
1.12308e+07
1.09271e+07
1.05967e+07
1.02426e+07
9.8025e+06
9.31492e+06
9.00006e+06
8.63083e+06
7.78775e+06
7.16906e+06
6.94099e+06
6.45045e+06
5.94973e+06
5.44067e+06
4.99867e+06
4.9241e+06
4.8275e+06
4.52997e+06
3.82137e+06
3.11188e+06
2.49004e+06
2.0306e+06
1.55624e+06
1.24467e+06
1.26675e+06
2.19075e+06
3.54759e+06
5.1403e+06
6.50407e+06
7.35306e+06
7.72894e+06
8.3075e+06
8.65049e+06
8.57944e+06
8.43292e+06
8.26914e+06
8.27753e+06
7.8458e+06
7.69937e+06
7.52135e+06
7.15628e+06
6.77517e+06
6.44654e+06
1.2376e+06
2.00671e+06
3.8141e+06
5.33227e+06
5.77291e+06
7.20423e+06
1.01324e+07
1.28708e+07
1.5452e+07
1.78995e+07
2.02787e+07
2.02682e+07
1.90707e+07
1.78937e+07
1.64732e+07
1.4142e+07
1.15446e+07
9.60588e+06
1.02842e+07
9.27704e+06
9.27171e+06
9.26516e+06
8.99798e+06
9.56407e+06
1.06672e+07
1.10399e+07
1.03072e+07
9.67714e+06
9.60105e+06
1.05998e+07
1.01606e+07
9.90438e+06
1.00022e+07
1.11566e+07
1.26943e+07
1.36968e+07
1.41858e+07
1.51403e+07
1.59893e+07
1.65467e+07
1.69433e+07
1.72344e+07
1.74247e+07
1.75198e+07
1.75244e+07
1.74432e+07
1.72813e+07
1.70463e+07
1.67425e+07
1.63676e+07
1.59278e+07
1.54289e+07
1.48747e+07
1.41814e+07
1.34123e+07
1.26532e+07
1.18667e+07
1.10373e+07
1.0166e+07
9.25781e+06
8.28638e+06
7.27459e+06
6.33687e+06
5.4331e+06
4.51067e+06
3.73337e+06
3.65942e+06
3.58093e+06
3.49144e+06
3.42707e+06
3.38547e+06
3.35379e+06
3.28346e+06
3.09283e+06
2.90453e+06
2.73869e+06
2.56283e+06
2.38936e+06
2.17721e+06
1.9763e+06
1.96577e+06
1.98145e+06
1.98558e+06
2.2454e+06
2.65476e+06
3.61213e+06
4.76304e+06
5.55681e+06
6.08689e+06
7.0237e+06
7.9199e+06
8.52409e+06
8.89756e+06
9.01984e+06
8.93085e+06
8.65297e+06
8.59852e+06
8.54663e+06
8.43618e+06
8.24979e+06
1.10678e+07
1.25777e+07
1.49045e+07
1.84487e+07
2.16515e+07
2.2343e+07
2.00143e+07
1.76129e+07
1.53305e+07
1.31676e+07
1.09908e+07
9.32833e+06
7.24676e+06
5.97545e+06
4.88605e+06
6.04889e+06
9.60693e+06
1.28695e+07
1.34965e+07
1.32506e+07
1.23755e+07
1.23362e+07
1.334e+07
1.30087e+07
1.01253e+07
6.07956e+06
2.83891e+06
1.19589e+06
1.40998e+06
1.05423e+06
1.27397e+06
1.71165e+06
2.36511e+06
2.7805e+06
3.34444e+06
4.39989e+06
5.3334e+06
6.13938e+06
6.78972e+06
7.31412e+06
7.7264e+06
8.03259e+06
8.23823e+06
8.34863e+06
8.36945e+06
8.30495e+06
8.16073e+06
7.92691e+06
7.48864e+06
6.9724e+06
6.39543e+06
5.76275e+06
5.07954e+06
4.3046e+06
3.96061e+06
3.88418e+06
3.79359e+06
3.72882e+06
3.65021e+06
3.54233e+06
3.4241e+06
3.33729e+06
3.26215e+06
3.18764e+06
3.09163e+06
2.98249e+06
2.88227e+06
2.81488e+06
2.75894e+06
2.70632e+06
2.643e+06
2.52639e+06
2.40149e+06
2.29833e+06
2.27048e+06
2.24023e+06
2.21901e+06
2.1954e+06
2.15803e+06
2.09902e+06
1.99502e+06
1.89888e+06
1.82147e+06
1.76034e+06
1.69288e+06
1.76056e+06
1.84957e+06
2.46866e+06
2.83506e+06
3.09638e+06
3.68083e+06
4.40912e+06
5.16493e+06
5.76043e+06
6.12883e+06
6.72169e+06
7.19564e+06
7.68075e+06
8.14535e+06
8.36533e+06
2.20294e+07
2.0252e+07
1.75326e+07
1.45338e+07
1.15376e+07
8.93525e+06
6.67906e+06
4.46517e+06
2.76548e+06
2.45107e+06
3.72151e+06
4.55478e+06
5.93129e+06
7.9674e+06
1.04136e+07
1.25485e+07
1.35459e+07
1.42154e+07
1.44239e+07
1.42794e+07
1.59696e+07
1.56047e+07
1.32276e+07
7.88086e+06
3.13841e+06
1.42969e+06
1.24981e+06
1.06561e+06
1.02102e+06
1.01609e+06
1.0673e+06
1.39843e+06
1.45357e+06
1.06116e+06
1.09209e+06
1.20864e+06
1.29279e+06
1.38592e+06
1.48555e+06
1.59258e+06
1.70532e+06
1.81769e+06
1.92797e+06
2.04224e+06
2.16026e+06
2.28144e+06
2.40245e+06
2.50954e+06
2.62355e+06
2.75204e+06
2.88265e+06
3.0149e+06
3.14075e+06
3.0978e+06
3.02463e+06
2.95272e+06
2.87931e+06
2.80528e+06
2.71232e+06
2.60164e+06
2.51041e+06
2.41544e+06
2.32179e+06
2.21606e+06
2.15918e+06
2.16635e+06
2.22039e+06
2.27506e+06
2.32387e+06
2.32648e+06
2.32465e+06
2.31334e+06
2.23878e+06
2.15005e+06
2.0559e+06
1.96233e+06
1.86149e+06
1.7538e+06
1.66175e+06
1.55227e+06
1.46661e+06
1.40852e+06
1.36135e+06
1.24654e+06
1.10929e+06
1.01534e+06
1.076e+06
1.23886e+06
1.66285e+06
1.83218e+06
1.95564e+06
2.25533e+06
2.51897e+06
2.90066e+06
3.14298e+06
3.39388e+06
3.83522e+06
4.18782e+06
4.73199e+06
5.16264e+06
1.07079e+07
7.5843e+06
4.88762e+06
2.98557e+06
3.54549e+06
4.26982e+06
4.1998e+06
4.13375e+06
4.07093e+06
4.01154e+06
3.9817e+06
5.55806e+06
9.07808e+06
1.14969e+07
1.30134e+07
1.36275e+07
1.43041e+07
1.4399e+07
1.53335e+07
1.52527e+07
1.27009e+07
8.40212e+06
4.51806e+06
2.0588e+06
1.67015e+06
1.46752e+06
1.38996e+06
1.29128e+06
1.05718e+06
1.04617e+06
1.15887e+06
1.2903e+06
1.01441e+06
1.32955e+06
1.17688e+06
1.02929e+06
1.0422e+06
1.05079e+06
1.06932e+06
1.09398e+06
1.12102e+06
1.14891e+06
1.18106e+06
1.21806e+06
1.25698e+06
1.29746e+06
1.33897e+06
1.38649e+06
1.4471e+06
1.51179e+06
1.58042e+06
1.65255e+06
1.63766e+06
1.67103e+06
1.79211e+06
1.92383e+06
1.89556e+06
1.86008e+06
1.80111e+06
1.76538e+06
1.73937e+06
1.75064e+06
1.77951e+06
1.82917e+06
1.89026e+06
1.93604e+06
1.97231e+06
1.99077e+06
2.00265e+06
1.95994e+06
1.88308e+06
1.68384e+06
1.56253e+06
1.47662e+06
1.39382e+06
1.32115e+06
1.2642e+06
1.22521e+06
1.19746e+06
1.16956e+06
1.15313e+06
1.11454e+06
1.062e+06
1.10946e+06
1.2435e+06
1.35471e+06
1.36408e+06
1.37414e+06
1.26889e+06
1.50662e+06
1.78976e+06
1.80768e+06
1.70252e+06
1.65512e+06
1.91379e+06
2.13851e+06
2.25641e+06
2.36177e+06
2.37788e+06
2.71234e+06
3.25154e+06
4.61946e+06
4.53343e+06
4.44804e+06
4.36791e+06
4.29221e+06
4.22076e+06
4.15314e+06
4.08895e+06
4.02827e+06
5.37699e+06
9.54303e+06
1.23798e+07
1.32799e+07
1.3624e+07
1.39888e+07
1.38663e+07
1.32383e+07
1.18008e+07
8.25493e+06
5.70722e+06
4.14123e+06
2.31822e+06
1.84064e+06
1.78382e+06
1.5532e+06
1.39291e+06
1.38568e+06
1.35427e+06
1.11142e+06
1.08358e+06
1.34876e+06
1.62956e+06
1.23899e+06
1.11234e+06
1.20957e+06
1.10349e+06
1.1315e+06
1.2538e+06
1.29758e+06
1.29108e+06
1.26173e+06
1.24354e+06
1.23138e+06
1.22481e+06
1.2235e+06
1.22496e+06
1.19737e+06
1.17583e+06
1.18953e+06
1.20686e+06
1.22712e+06
1.2498e+06
1.27673e+06
1.31844e+06
1.25676e+06
1.25651e+06
1.29444e+06
1.28985e+06
1.30004e+06
1.32909e+06
1.37478e+06
1.4032e+06
1.42297e+06
1.41079e+06
1.39284e+06
1.37461e+06
1.28856e+06
1.22062e+06
1.14973e+06
1.07641e+06
1.08456e+06
1.13417e+06
1.14229e+06
1.14749e+06
1.14674e+06
1.14626e+06
1.14643e+06
1.19155e+06
1.28097e+06
1.37216e+06
1.5614e+06
1.74825e+06
1.82422e+06
1.83395e+06
1.84449e+06
1.85635e+06
1.88607e+06
1.91799e+06
1.85942e+06
1.97306e+06
2.33007e+06
2.34194e+06
2.4153e+06
2.51348e+06
2.41541e+06
2.325e+06
2.01159e+06
1.73405e+06
1.68785e+06
3.86661e+06
4.64822e+06
4.56046e+06
4.47315e+06
4.3914e+06
4.31397e+06
4.24104e+06
4.17183e+06
4.26617e+06
5.89924e+06
9.00204e+06
1.24197e+07
1.3078e+07
1.30672e+07
1.32422e+07
1.26631e+07
9.89676e+06
8.31431e+06
6.82575e+06
5.95729e+06
4.57833e+06
2.60587e+06
1.86863e+06
1.83498e+06
1.80328e+06
1.65341e+06
1.43529e+06
1.38841e+06
1.3815e+06
1.37496e+06
1.20093e+06
1.08026e+06
1.31376e+06
1.58241e+06
1.47614e+06
1.18886e+06
1.14821e+06
1.22e+06
1.16443e+06
1.07733e+06
1.05282e+06
1.05088e+06
1.06056e+06
1.08044e+06
1.10627e+06
1.13682e+06
1.17071e+06
1.20573e+06
1.22236e+06
1.2401e+06
1.25855e+06
1.27773e+06
1.30161e+06
1.34421e+06
1.39396e+06
1.44832e+06
1.37172e+06
1.25946e+06
1.20217e+06
1.19145e+06
1.18382e+06
1.19142e+06
1.20599e+06
1.22402e+06
1.21398e+06
1.25853e+06
1.23743e+06
1.2886e+06
1.39376e+06
1.4538e+06
1.4676e+06
1.40047e+06
1.39921e+06
1.398e+06
1.39685e+06
1.46251e+06
1.59695e+06
1.72985e+06
1.91478e+06
2.11526e+06
2.28692e+06
2.27992e+06
2.27298e+06
2.26614e+06
2.27618e+06
2.28814e+06
2.30425e+06
2.32092e+06
2.33333e+06
2.34125e+06
2.33828e+06
2.36925e+06
2.43884e+06
2.3423e+06
1.92973e+06
1.44315e+06
1.2937e+06
1.34705e+06
1.46016e+06
1.61481e+06
3.89286e+06
4.67624e+06
4.5867e+06
4.49749e+06
4.41413e+06
4.33509e+06
4.26058e+06
4.76166e+06
6.61698e+06
8.98493e+06
1.11024e+07
1.24007e+07
1.22766e+07
1.27789e+07
1.12426e+07
7.85472e+06
6.12919e+06
6.57597e+06
6.38934e+06
5.32956e+06
3.15221e+06
1.93369e+06
1.9006e+06
1.87133e+06
1.84579e+06
1.7888e+06
1.57601e+06
1.45694e+06
1.45821e+06
1.46161e+06
1.46724e+06
1.40354e+06
1.18669e+06
1.04799e+06
1.25039e+06
1.33289e+06
1.17093e+06
1.07982e+06
1.15929e+06
1.33744e+06
1.43233e+06
1.48948e+06
1.42805e+06
1.36446e+06
1.33732e+06
1.32478e+06
1.32472e+06
1.33506e+06
1.35443e+06
1.3824e+06
1.41821e+06
1.45308e+06
1.46348e+06
1.4862e+06
1.54108e+06
1.59309e+06
1.68981e+06
1.74642e+06
1.7429e+06
1.67266e+06
1.56133e+06
1.4521e+06
1.45322e+06
1.52333e+06
1.5336e+06
1.51879e+06
1.55345e+06
1.4416e+06
1.40273e+06
1.40139e+06
1.40005e+06
1.41671e+06
1.50599e+06
1.60297e+06
1.68861e+06
1.84837e+06
2.04728e+06
2.24907e+06
2.30609e+06
2.29894e+06
2.29185e+06
2.30112e+06
2.3123e+06
2.32705e+06
2.34283e+06
2.35507e+06
2.36649e+06
2.36104e+06
2.15344e+06
1.95213e+06
1.76776e+06
1.52115e+06
1.50615e+06
1.40456e+06
1.3066e+06
1.3336e+06
1.33723e+06
1.34174e+06
1.34434e+06
1.36435e+06
3.91857e+06
4.70347e+06
4.61211e+06
4.52112e+06
4.43603e+06
4.35557e+06
5.30242e+06
7.26656e+06
8.76356e+06
9.28008e+06
1.10197e+07
1.1898e+07
1.21474e+07
9.90414e+06
6.4971e+06
5.59464e+06
5.89622e+06
5.95906e+06
5.47389e+06
3.96328e+06
2.85565e+06
2.38009e+06
2.28258e+06
2.25845e+06
2.23962e+06
2.22526e+06
2.1084e+06
1.91046e+06
1.89366e+06
1.90071e+06
1.91085e+06
1.92375e+06
1.93949e+06
1.78439e+06
1.40531e+06
1.16125e+06
1.12613e+06
1.11371e+06
1.08277e+06
1.06373e+06
1.10148e+06
1.17647e+06
1.30607e+06
1.35907e+06
1.39826e+06
1.43478e+06
1.46836e+06
1.49913e+06
1.52674e+06
1.55099e+06
1.57243e+06
1.59067e+06
1.59495e+06
1.55426e+06
1.50574e+06
1.43554e+06
1.37318e+06
1.30418e+06
1.28143e+06
1.37816e+06
1.45579e+06
1.38555e+06
1.31251e+06
1.3247e+06
1.40689e+06
1.40533e+06
1.40383e+06
1.40342e+06
1.48482e+06
1.57345e+06
1.66034e+06
1.73484e+06
1.83495e+06
2.0009e+06
2.19366e+06
2.30279e+06
2.32489e+06
2.31805e+06
2.32836e+06
2.33886e+06
2.35259e+06
2.36735e+06
2.37897e+06
2.37412e+06
2.13355e+06
1.92648e+06
1.73744e+06
1.51496e+06
1.38127e+06
1.24147e+06
1.12924e+06
1.01769e+06
1.20828e+06
1.55306e+06
1.3892e+06
1.33044e+06
1.33407e+06
1.33858e+06
1.33992e+06
1.33822e+06
3.94379e+06
4.72987e+06
4.63666e+06
4.54407e+06
4.45722e+06
5.76652e+06
7.84137e+06
7.97708e+06
8.11914e+06
9.13356e+06
1.17105e+07
1.10707e+07
8.65068e+06
6.16359e+06
5.90906e+06
5.793e+06
4.96947e+06
4.51308e+06
4.72086e+06
3.54276e+06
2.91847e+06
2.89033e+06
2.79882e+06
2.71386e+06
2.68525e+06
2.66799e+06
2.63574e+06
2.44255e+06
2.33005e+06
2.32177e+06
2.31357e+06
2.30541e+06
2.29718e+06
2.28916e+06
2.281e+06
2.02031e+06
1.5408e+06
1.20706e+06
1.0853e+06
1.07008e+06
1.07569e+06
1.07622e+06
1.05319e+06
1.04959e+06
1.06495e+06
1.09058e+06
1.11999e+06
1.14893e+06
1.17536e+06
1.19811e+06
1.21713e+06
1.23351e+06
1.24857e+06
1.26409e+06
1.26757e+06
1.24466e+06
1.24097e+06
1.27508e+06
1.21194e+06
1.17766e+06
1.2575e+06
1.37855e+06
1.4084e+06
1.42838e+06
1.50277e+06
1.58356e+06
1.66991e+06
1.73687e+06
1.82532e+06
1.92782e+06
2.03473e+06
2.15282e+06
2.21657e+06
2.28732e+06
2.34854e+06
2.35808e+06
2.36793e+06
2.38095e+06
2.39458e+06
2.33288e+06
2.11423e+06
1.88785e+06
1.68008e+06
1.47686e+06
1.3701e+06
1.22365e+06
1.12039e+06
1.06216e+06
1.06074e+06
1.0597e+06
1.05863e+06
1.05753e+06
1.00437e+06
1.42341e+06
1.47349e+06
1.33033e+06
1.33087e+06
1.33539e+06
1.33674e+06
1.33512e+06
3.96857e+06
4.7554e+06
4.66036e+06
4.56614e+06
6.1478e+06
8.33695e+06
7.33939e+06
7.26896e+06
8.37229e+06
1.05054e+07
1.01217e+07
7.62357e+06
6.51868e+06
6.3644e+06
6.16815e+06
5.36476e+06
4.23329e+06
3.74379e+06
2.96066e+06
2.83463e+06
2.89967e+06
2.87709e+06
2.85584e+06
2.7804e+06
2.70448e+06
2.65847e+06
2.64312e+06
2.55829e+06
2.35325e+06
2.32072e+06
2.31268e+06
2.30482e+06
2.29685e+06
2.28893e+06
2.28115e+06
2.27311e+06
2.26511e+06
2.05209e+06
1.72782e+06
1.39638e+06
1.18589e+06
1.08261e+06
1.04683e+06
1.06052e+06
1.09282e+06
1.11848e+06
1.14172e+06
1.16124e+06
1.17705e+06
1.19026e+06
1.20264e+06
1.21647e+06
1.23471e+06
1.26038e+06
1.20781e+06
1.16253e+06
1.20072e+06
1.28478e+06
1.419e+06
1.50374e+06
1.57043e+06
1.64265e+06
1.71315e+06
1.7798e+06
1.86303e+06
1.9551e+06
2.05168e+06
2.15099e+06
2.1434e+06
2.15156e+06
2.21161e+06
2.29096e+06
2.37499e+06
2.40025e+06
2.41213e+06
2.25109e+06
2.04088e+06
1.83766e+06
1.61208e+06
1.41276e+06
1.32597e+06
1.2067e+06
1.10699e+06
1.05728e+06
1.06116e+06
1.06171e+06
1.06077e+06
1.05979e+06
1.05877e+06
1.05772e+06
1.05664e+06
1.05553e+06
1.05429e+06
1.09357e+06
1.55911e+06
1.3944e+06
1.32762e+06
1.33214e+06
1.3335e+06
1.33196e+06
3.99298e+06
4.78003e+06
4.68322e+06
6.44199e+06
8.74853e+06
7.02111e+06
6.44387e+06
8.23197e+06
8.80001e+06
8.68557e+06
7.16892e+06
6.90967e+06
6.68705e+06
6.42297e+06
5.70636e+06
4.57503e+06
3.87664e+06
3.43377e+06
1.83561e+06
1.23985e+06
1.91121e+06
2.55634e+06
2.83982e+06
2.8212e+06
2.77196e+06
2.70403e+06
2.64651e+06
2.62011e+06
2.47048e+06
2.3203e+06
2.31132e+06
2.30359e+06
2.29601e+06
2.28821e+06
2.28057e+06
2.27297e+06
2.26506e+06
2.25713e+06
2.24934e+06
2.24114e+06
2.02144e+06
1.80591e+06
1.63536e+06
1.49268e+06
1.37239e+06
1.29622e+06
1.25772e+06
1.23769e+06
1.23213e+06
1.23901e+06
1.25818e+06
1.2904e+06
1.33742e+06
1.39235e+06
1.55024e+06
1.64838e+06
1.70413e+06
1.75825e+06
1.8146e+06
1.88281e+06
1.95798e+06
2.03795e+06
2.12251e+06
2.1817e+06
2.17393e+06
2.16619e+06
2.15851e+06
2.16606e+06
2.23794e+06
2.31513e+06
2.28725e+06
2.12271e+06
1.92507e+06
1.73468e+06
1.5234e+06
1.38062e+06
1.25717e+06
1.15992e+06
1.10845e+06
1.07445e+06
1.05685e+06
1.05968e+06
1.06231e+06
1.06147e+06
1.0606e+06
1.05968e+06
1.05871e+06
1.05771e+06
1.05668e+06
1.05562e+06
1.05453e+06
1.0534e+06
1.05224e+06
999801
1.28456e+06
1.47563e+06
1.33042e+06
1.32887e+06
1.33022e+06
1.32875e+06
4.01704e+06
4.80384e+06
6.64546e+06
8.95217e+06
6.88228e+06
5.68333e+06
8.07197e+06
7.79577e+06
6.66938e+06
6.83714e+06
7.21562e+06
6.92701e+06
6.65129e+06
6.0774e+06
4.9605e+06
4.07012e+06
3.75052e+06
2.63193e+06
1.20334e+06
1.07354e+06
1.07019e+06
1.29223e+06
1.85493e+06
2.3846e+06
2.7085e+06
2.76542e+06
2.71158e+06
2.65605e+06
2.59816e+06
2.40855e+06
2.30949e+06
2.30188e+06
2.29448e+06
2.28711e+06
2.27948e+06
2.27201e+06
2.26463e+06
2.25674e+06
2.2489e+06
2.24129e+06
2.23314e+06
2.22514e+06
2.21742e+06
2.20926e+06
2.17221e+06
2.10437e+06
2.04641e+06
1.9978e+06
1.95833e+06
1.92702e+06
1.90321e+06
1.88667e+06
1.87606e+06
1.92353e+06
2.00932e+06
2.06392e+06
2.12377e+06
2.1887e+06
2.22019e+06
2.21231e+06
2.20442e+06
2.19657e+06
2.19341e+06
2.19671e+06
2.20032e+06
2.07149e+06
1.94518e+06
1.82641e+06
1.71753e+06
1.57233e+06
1.42488e+06
1.31034e+06
1.1931e+06
1.11853e+06
1.0964e+06
1.09648e+06
1.08431e+06
1.06442e+06
1.0577e+06
1.06235e+06
1.06183e+06
1.06104e+06
1.06021e+06
1.05935e+06
1.05845e+06
1.05752e+06
1.05653e+06
1.05551e+06
1.05447e+06
1.0534e+06
1.05229e+06
1.05116e+06
1.04999e+06
1.0488e+06
1.02758e+06
1.45141e+06
1.39232e+06
1.32557e+06
1.32693e+06
1.32552e+06
4.04061e+06
6.74899e+06
9.04734e+06
6.85474e+06
5.13646e+06
7.8833e+06
7.27771e+06
4.81058e+06
5.8581e+06
7.47683e+06
7.17541e+06
6.88834e+06
6.47855e+06
5.36177e+06
4.27775e+06
3.82278e+06
3.42757e+06
1.72388e+06
1.07665e+06
1.0826e+06
1.08866e+06
1.09476e+06
1.08935e+06
1.19572e+06
1.56262e+06
2.02897e+06
2.32595e+06
2.55873e+06
2.67667e+06
2.57953e+06
2.39584e+06
2.30942e+06
2.2924e+06
2.28523e+06
2.27806e+06
2.27054e+06
2.26325e+06
2.25598e+06
2.24812e+06
2.24041e+06
2.23286e+06
2.22491e+06
2.21705e+06
2.2094e+06
2.20136e+06
2.19333e+06
2.18558e+06
2.17755e+06
2.16951e+06
2.16181e+06
2.15413e+06
2.14624e+06
2.15767e+06
2.26e+06
2.25028e+06
2.24242e+06
2.23532e+06
2.23632e+06
2.2377e+06
2.17664e+06
1.99854e+06
1.82247e+06
1.65106e+06
1.49608e+06
1.40687e+06
1.35472e+06
1.27602e+06
1.20171e+06
1.12596e+06
1.09569e+06
1.09892e+06
1.09863e+06
1.09721e+06
1.09481e+06
1.07394e+06
1.05676e+06
1.05937e+06
1.06187e+06
1.06117e+06
1.06044e+06
1.05967e+06
1.05886e+06
1.058e+06
1.05711e+06
1.05619e+06
1.05523e+06
1.05423e+06
1.0532e+06
1.05214e+06
1.05106e+06
1.04994e+06
1.0488e+06
1.04762e+06
1.04642e+06
1.00567e+06
1.18526e+06
1.47064e+06
1.32615e+06
1.32357e+06
1.32223e+06
5.79576e+06
9.15057e+06
6.96284e+06
4.8629e+06
7.61388e+06
6.78638e+06
3.63674e+06
4.50758e+06
7.33548e+06
7.4337e+06
7.13432e+06
6.83311e+06
5.75467e+06
4.49906e+06
3.98323e+06
3.86404e+06
2.49528e+06
1.13834e+06
1.08638e+06
1.09169e+06
1.09715e+06
1.10267e+06
1.10821e+06
1.1138e+06
1.11942e+06
1.11989e+06
1.22748e+06
1.4446e+06
1.76217e+06
2.0171e+06
2.0885e+06
2.09424e+06
2.17314e+06
2.30424e+06
2.30448e+06
2.28893e+06
2.27419e+06
2.26081e+06
2.24864e+06
2.2392e+06
2.2316e+06
2.22419e+06
2.2164e+06
2.20864e+06
2.20106e+06
2.19313e+06
2.18519e+06
2.17783e+06
2.17382e+06
2.17036e+06
2.16774e+06
2.15652e+06
2.19938e+06
2.09469e+06
1.95023e+06
1.8047e+06
1.65998e+06
1.51899e+06
1.38741e+06
1.30742e+06
1.26922e+06
1.21339e+06
1.18043e+06
1.12496e+06
1.09731e+06
1.09736e+06
1.09741e+06
1.09738e+06
1.09726e+06
1.09706e+06
1.09482e+06
1.08625e+06
1.0658e+06
1.05607e+06
1.06112e+06
1.06103e+06
1.06037e+06
1.05966e+06
1.05892e+06
1.05816e+06
1.05737e+06
1.05654e+06
1.05566e+06
1.05475e+06
1.05381e+06
1.05283e+06
1.05181e+06
1.05076e+06
1.0497e+06
1.0486e+06
1.04748e+06
1.04633e+06
1.04514e+06
1.04393e+06
1.04269e+06
994291
1.3646e+06
1.38559e+06
1.32017e+06
1.3189e+06
7.78032e+06
7.23403e+06
4.90331e+06
7.25277e+06
6.25822e+06
3.03712e+06
3.65641e+06
6.42787e+06
7.68001e+06
7.38996e+06
7.092e+06
6.1623e+06
4.8395e+06
4.18708e+06
3.92538e+06
3.36201e+06
1.58648e+06
1.09188e+06
1.09618e+06
1.10082e+06
1.10566e+06
1.11059e+06
1.11557e+06
1.12062e+06
1.12572e+06
1.13082e+06
1.13585e+06
1.14069e+06
1.13266e+06
1.14988e+06
1.21702e+06
1.25926e+06
1.26994e+06
1.34821e+06
1.48996e+06
1.56547e+06
1.62477e+06
1.67415e+06
1.71177e+06
1.738e+06
1.75364e+06
1.75881e+06
1.75326e+06
1.73709e+06
1.71129e+06
1.67677e+06
1.63392e+06
1.58265e+06
1.52559e+06
1.46513e+06
1.40169e+06
1.34853e+06
1.32309e+06
1.27041e+06
1.20678e+06
1.16172e+06
1.14015e+06
1.14707e+06
1.18669e+06
1.21264e+06
1.18272e+06
1.13356e+06
1.1025e+06
1.09523e+06
1.09536e+06
1.09543e+06
1.09541e+06
1.09529e+06
1.09255e+06
1.07782e+06
1.05951e+06
1.05669e+06
1.0606e+06
1.06002e+06
1.05941e+06
1.05876e+06
1.05807e+06
1.05733e+06
1.05657e+06
1.05578e+06
1.05495e+06
1.05409e+06
1.05319e+06
1.05226e+06
1.0513e+06
1.0503e+06
1.04927e+06
1.04821e+06
1.04713e+06
1.04602e+06
1.04489e+06
1.04374e+06
1.04254e+06
1.04133e+06
1.04008e+06
1.02107e+06
1.11369e+06
1.46087e+06
1.31677e+06
1.31554e+06
5.96402e+06
5.11648e+06
6.77493e+06
5.74986e+06
2.63486e+06
3.4979e+06
5.19592e+06
7.20711e+06
7.65472e+06
7.3446e+06
6.59842e+06
5.29196e+06
4.41225e+06
4.05609e+06
3.92838e+06
2.30659e+06
1.09929e+06
1.10241e+06
1.10599e+06
1.10996e+06
1.11415e+06
1.1185e+06
1.12291e+06
1.1274e+06
1.13202e+06
1.13661e+06
1.14114e+06
1.14561e+06
1.14989e+06
1.154e+06
1.15802e+06
1.1618e+06
1.16554e+06
1.16319e+06
1.13593e+06
1.11839e+06
1.11016e+06
1.11252e+06
1.12085e+06
1.13145e+06
1.14218e+06
1.15183e+06
1.16019e+06
1.16694e+06
1.17345e+06
1.18081e+06
1.18932e+06
1.20072e+06
1.21714e+06
1.24053e+06
1.23677e+06
1.18526e+06
1.19354e+06
1.19916e+06
1.20464e+06