/*--------------------------------*- C++ -*----------------------------------*\
| =========                 |                                                 |
| \\      /  F ield         | foam-extend: Open Source CFD                    |
|  \\    /   O peration     | Version:     4.1                                |
|   \\  /    A nd           | Web:         http://www.foam-extend.org         |
|    \\/     M anipulation  |                                                 |
\*---------------------------------------------------------------------------*/
FoamFile
{
    version     2.0;
    format      ascii;
    class       volScalarField;
    location    "7";
    object      sigmaEq;
}
// * * * * * * * * * * * * * * * * * * * * * * * * * * * * * * * * * * * * * //

dimensions      [1 -1 -2 0 0 0 0];

internalField   nonuniform List<scalar> 
100000
(
3.81015e+06
3.51558e+06
3.47596e+06
3.80711e+06
3.81565e+06
3.30882e+06
2.92891e+06
2.58269e+06
2.12894e+06
1.78125e+06
1.58647e+06
1.43775e+06
1.4965e+06
1.54158e+06
3.12201e+06
4.32867e+06
4.702e+06
2.88666e+06
6.52909e+06
1.27652e+07
9.57379e+06
5.15369e+06
4.53148e+06
7.28658e+06
1.22168e+07
1.71875e+07
2.11153e+07
2.15266e+07
2.0932e+07
2.02575e+07
1.95734e+07
1.8592e+07
1.64749e+07
1.46862e+07
1.32076e+07
1.18209e+07
1.04555e+07
9.13546e+06
8.09769e+06
7.32642e+06
6.63634e+06
5.91056e+06
5.13116e+06
4.61445e+06
4.35923e+06
4.16623e+06
4.03904e+06
3.94982e+06
3.89755e+06
3.88468e+06
3.90846e+06
3.96897e+06
4.06538e+06
4.19436e+06
4.33092e+06
4.44907e+06
4.57965e+06
4.70582e+06
4.87254e+06
4.99568e+06
5.10963e+06
5.3392e+06
5.67759e+06
5.94937e+06
6.32193e+06
6.75707e+06
7.13399e+06
7.53967e+06
8.04103e+06
8.54089e+06
9.02742e+06
9.65544e+06
1.03369e+07
1.11244e+07
1.19575e+07
1.28924e+07
1.40134e+07
1.5115e+07
1.63557e+07
1.72203e+07
1.80994e+07
1.88056e+07
1.93842e+07
1.96877e+07
1.79537e+07
1.58967e+07
1.4547e+07
1.27824e+07
1.09232e+07
9.0282e+06
7.28179e+06
5.26296e+06
3.26593e+06
2.58352e+06
2.13551e+06
2.76504e+06
3.1203e+06
3.62932e+06
4.6107e+06
4.92937e+06
4.31391e+06
4.68712e+06
4.48219e+06
4.09058e+06
3.83117e+06
3.70875e+06
3.57574e+06
3.05123e+06
2.47879e+06
2.00469e+06
1.62638e+06
1.43434e+06
1.4734e+06
1.06613e+06
1.06762e+06
3.25425e+06
4.06571e+06
4.33524e+06
4.07032e+06
3.98402e+06
7.21289e+06
5.27896e+06
6.24729e+06
8.11173e+06
1.00347e+07
1.1496e+07
1.276e+07
1.19012e+07
1.05847e+07
8.40851e+06
6.94384e+06
5.86754e+06
4.92899e+06
4.33828e+06
4.1891e+06
4.43325e+06
4.19215e+06
3.50556e+06
2.90315e+06
2.39842e+06
2.02033e+06
1.70729e+06
1.47265e+06
1.4426e+06
1.41279e+06
1.44886e+06
1.49932e+06
1.55508e+06
1.6059e+06
1.65219e+06
1.72283e+06
1.80104e+06
1.87777e+06
1.95253e+06
2.0252e+06
2.09195e+06
2.15808e+06
2.2106e+06
2.24124e+06
2.16291e+06
2.13229e+06
2.18853e+06
2.19116e+06
2.21852e+06
2.20437e+06
2.16507e+06
2.12167e+06
2.12023e+06
2.15906e+06
2.16036e+06
2.17676e+06
2.16974e+06
2.03211e+06
1.6225e+06
1.39505e+06
1.49111e+06
1.53872e+06
2.08773e+06
2.8318e+06
3.58097e+06
4.50649e+06
5.72061e+06
6.83878e+06
7.54464e+06
9.39834e+06
9.52216e+06
9.75413e+06
1.00691e+07
1.01088e+07
1.02173e+07
1.05253e+07
1.08909e+07
1.01619e+07
8.74051e+06
7.40516e+06
5.96956e+06
5.33714e+06
4.35793e+06
3.48349e+06
2.59011e+06
4.95098e+06
5.12818e+06
5.1052e+06
4.58656e+06
4.0547e+06
3.55939e+06
3.29966e+06
3.11689e+06
2.94664e+06
2.61042e+06
2.14927e+06
1.77678e+06
1.51279e+06
1.1135e+06
1.75007e+06
2.05286e+06
3.62222e+06
3.84718e+06
4.23009e+06
5.90115e+06
8.73153e+06
1.1081e+07
1.05832e+07
9.5474e+06
9.54621e+06
9.21532e+06
6.4354e+06
6.46267e+06
7.49042e+06
8.4062e+06
9.10133e+06
9.239e+06
1.0058e+07
1.02617e+07
1.03185e+07
1.02676e+07
1.02949e+07
1.0446e+07
1.0392e+07
1.02372e+07
1.0071e+07
9.92799e+06
9.75454e+06
9.61572e+06
9.374e+06
9.07655e+06
8.85154e+06
8.72478e+06
8.67213e+06
8.72285e+06
8.81009e+06
8.92888e+06
9.07723e+06
9.15585e+06
9.20056e+06
9.26827e+06
9.3715e+06
9.51211e+06
9.61957e+06
9.74833e+06
9.9001e+06
1.00445e+07
1.01542e+07
1.03504e+07
1.0548e+07
1.07349e+07
1.09304e+07
1.11395e+07
1.12782e+07
1.14417e+07
1.16344e+07
1.16875e+07
1.16901e+07
1.16699e+07
1.15578e+07
1.13654e+07
1.10115e+07
1.06824e+07
9.87466e+06
9.09727e+06
8.52139e+06
8.05006e+06
7.29449e+06
6.67617e+06
8.08854e+06
1.03528e+07
1.13141e+07
1.18939e+07
1.25922e+07
1.32162e+07
1.39194e+07
1.46121e+07
1.49492e+07
1.48178e+07
1.4651e+07
1.44559e+07
1.30088e+07
1.16778e+07
1.0323e+07
9.17376e+06
4.85402e+06
4.79753e+06
4.65797e+06
4.52429e+06
4.17379e+06
3.65429e+06
3.17753e+06
2.71989e+06
2.58557e+06
2.49286e+06
2.40943e+06
2.3589e+06
2.1636e+06
1.74689e+06
2.08079e+06
2.56257e+06
1.92424e+06
3.8249e+06
8.71991e+06
1.41643e+07
1.80704e+07
1.80574e+07
1.86397e+07
1.89143e+07
1.75282e+07
1.57157e+07
1.43925e+07
1.47908e+07
1.59308e+07
1.7479e+07
1.78926e+07
1.76793e+07
1.71206e+07
1.57168e+07
1.42776e+07
1.2917e+07
1.214e+07
1.1915e+07
1.17188e+07
1.15392e+07
1.11391e+07
1.07322e+07
1.0364e+07
9.6505e+06
8.97015e+06
8.42473e+06
7.90382e+06
7.44505e+06
7.06068e+06
6.74517e+06
6.47504e+06
6.25806e+06
6.0762e+06
5.93011e+06
5.839e+06
5.79693e+06
5.7924e+06
5.80551e+06
5.9379e+06
6.16199e+06
6.35378e+06
6.50736e+06
6.84071e+06
7.41362e+06
8.09358e+06
8.83337e+06
9.65672e+06
1.04924e+07
1.13042e+07
1.2122e+07
1.26232e+07
1.31937e+07
1.37814e+07
1.46333e+07
1.55986e+07
1.6519e+07
1.7131e+07
1.72593e+07
1.73254e+07
1.7404e+07
1.7495e+07
1.72242e+07
1.62398e+07
1.5771e+07
1.56498e+07
1.61429e+07
1.65038e+07
1.64967e+07
1.69495e+07
1.71456e+07
1.6696e+07
1.63364e+07
1.58846e+07
1.51167e+07
1.4443e+07
1.38103e+07
1.32406e+07
1.27196e+07
1.23969e+07
1.19148e+07
3.27462e+06
3.01871e+06
2.77926e+06
2.63874e+06
2.51596e+06
2.39476e+06
2.0676e+06
1.7867e+06
1.54248e+06
1.28559e+06
1.09939e+06
956395
862767
1.16805e+06
2.79052e+06
3.1012e+06
4.40757e+06
8.35409e+06
1.43889e+07
1.72947e+07
1.85368e+07
1.96098e+07
1.96552e+07
1.9688e+07
1.92224e+07
1.78322e+07
1.81678e+07
1.62835e+07
1.40583e+07
1.16484e+07
9.55913e+06
8.4679e+06
6.88288e+06
5.80317e+06
4.83984e+06
3.6847e+06
2.61288e+06
2.54959e+06
3.02102e+06
3.77689e+06
4.49572e+06
5.03811e+06
5.53748e+06
5.96566e+06
6.11919e+06
6.14068e+06
6.1653e+06
6.19562e+06
6.21862e+06
6.2697e+06
6.32719e+06
6.34657e+06
6.33001e+06
6.17912e+06
5.9338e+06
5.6542e+06
5.37293e+06
5.06985e+06
4.71519e+06
4.33495e+06
3.93165e+06
3.58747e+06
3.43101e+06
3.33156e+06
3.15205e+06
3.11141e+06
3.24649e+06
3.55574e+06
3.99123e+06
4.21814e+06
4.63958e+06
5.42605e+06
6.24835e+06
7.12015e+06
8.20712e+06
9.44777e+06
1.04885e+07
1.14147e+07
1.30003e+07
1.45773e+07
1.5467e+07
1.61482e+07
1.69161e+07
1.73413e+07
1.7557e+07
1.71417e+07
1.65169e+07
1.59124e+07
1.50042e+07
1.45087e+07
1.39943e+07
1.35317e+07
1.34849e+07
1.3381e+07
1.29681e+07
1.21705e+07
1.13292e+07
1.03929e+07
9.33757e+06
8.45029e+06
1.60613e+06
1.41852e+06
1.29696e+06
1.18664e+06
1.14291e+06
1.14663e+06
1.1516e+06
1.13597e+06
992555
932240
879268
930913
1.28037e+06
2.4386e+06
4.09662e+06
6.80575e+06
1.00003e+07
1.32214e+07
1.51356e+07
1.65202e+07
1.79518e+07
1.82384e+07
1.76923e+07
1.82369e+07
1.76738e+07
1.78737e+07
1.63683e+07
1.33422e+07
9.77846e+06
6.76015e+06
4.68245e+06
3.98093e+06
4.9936e+06
5.62782e+06
5.66806e+06
5.75109e+06
6.09398e+06
6.28686e+06
6.47258e+06
5.88346e+06
4.7822e+06
3.73581e+06
2.60387e+06
2.1673e+06
5.00639e+06
7.00795e+06
8.75554e+06
1.02537e+07
1.1504e+07
1.26696e+07
1.36521e+07
1.42779e+07
1.44342e+07
1.43437e+07
1.40197e+07
1.35605e+07
1.2913e+07
1.21043e+07
1.10351e+07
1.11609e+07
1.12528e+07
1.1171e+07
1.08337e+07
1.02295e+07
9.57722e+06
8.92323e+06
8.26858e+06
7.56557e+06
6.8502e+06
6.15504e+06
5.74311e+06
5.41074e+06
5.43618e+06
5.58832e+06
5.86254e+06
5.71298e+06
5.61396e+06
6.96972e+06
8.20644e+06
8.83485e+06
9.08932e+06
8.97675e+06
9.11642e+06
9.09993e+06
9.00404e+06
8.26803e+06
7.41074e+06
7.41364e+06
6.72895e+06
5.78376e+06
5.88765e+06
6.20195e+06
6.74242e+06
7.18409e+06
7.25864e+06
7.31921e+06
7.05274e+06
6.91217e+06
6.45824e+06
6.28058e+06
1.12915e+06
1.15417e+06
1.15139e+06
1.12505e+06
1.07462e+06
1.03097e+06
1.00032e+06
1.00154e+06
916281
1.37822e+06
2.56411e+06
3.71626e+06
4.91739e+06
6.43943e+06
7.52219e+06
9.55695e+06
1.12842e+07
1.35143e+07
1.53448e+07
1.70056e+07
1.66396e+07
1.26893e+07
9.39575e+06
5.89519e+06
3.88662e+06
2.63319e+06
4.2522e+06
6.86542e+06
6.67816e+06
6.46034e+06
6.23013e+06
5.85581e+06
5.90338e+06
6.55403e+06
7.54745e+06
8.24672e+06
9.1694e+06
1.06624e+07
1.20837e+07
1.34418e+07
1.48308e+07
1.56047e+07
1.74673e+07
1.94805e+07
2.05894e+07
2.10071e+07
2.13182e+07
2.15517e+07
2.17193e+07
2.18099e+07
2.18311e+07
2.17225e+07
2.14992e+07
2.1266e+07
2.08189e+07
2.03045e+07
1.98187e+07
1.9339e+07
1.87511e+07
1.82732e+07
1.77095e+07
1.71256e+07
1.65404e+07
1.59489e+07
1.53506e+07
1.47468e+07
1.40919e+07
1.34773e+07
1.29303e+07
1.23668e+07
1.17848e+07
1.11776e+07
1.0329e+07
9.40194e+06
8.73288e+06
8.22614e+06
8.66347e+06
9.05168e+06
8.21936e+06
6.92237e+06
5.74978e+06
4.6793e+06
2.98032e+06
1.59327e+06
1.04144e+06
1.73532e+06
2.78277e+06
3.62285e+06
4.26128e+06
4.21223e+06
3.7668e+06
3.78053e+06
4.45826e+06
5.64577e+06
6.27926e+06
6.1148e+06
5.92e+06
5.67219e+06
5.27873e+06
5.02571e+06
1.10719e+06
1.07016e+06
1.02238e+06
1.01952e+06
1.0386e+06
1.03012e+06
2.52349e+06
4.1562e+06
5.91368e+06
7.64238e+06
8.73405e+06
9.38139e+06
1.01538e+07
1.05788e+07
9.89736e+06
9.19099e+06
7.80913e+06
9.44945e+06
1.1556e+07
1.09679e+07
7.5389e+06
7.11697e+06
7.27725e+06
8.38753e+06
7.97526e+06
7.12966e+06
4.88878e+06
4.18803e+06
7.20443e+06
8.11437e+06
8.78994e+06
1.14361e+07
1.44728e+07
1.56685e+07
1.55997e+07
1.53229e+07
1.55688e+07
1.58312e+07
1.60562e+07
1.54319e+07
1.46637e+07
1.40313e+07
1.32917e+07
1.09477e+07
8.02086e+06
6.34425e+06
5.10918e+06
4.19992e+06
3.56522e+06
3.04061e+06
2.6969e+06
2.66578e+06
3.09423e+06
3.57878e+06
4.25495e+06
5.10595e+06
6.16335e+06
7.43673e+06
8.91606e+06
9.15548e+06
9.4351e+06
9.96461e+06
1.06164e+07
1.13223e+07
1.20791e+07
1.26859e+07
1.24497e+07
1.22894e+07
1.21538e+07
1.20204e+07
1.1886e+07
1.16247e+07
1.09825e+07
1.04838e+07
1.00782e+07
9.5985e+06
8.9204e+06
7.31566e+06
5.84201e+06
4.27601e+06
3.13571e+06
2.91608e+06
4.11005e+06
4.31538e+06
4.23635e+06
4.25359e+06
4.33798e+06
3.68485e+06
3.13755e+06
3.08636e+06
3.10826e+06
3.68558e+06
4.38499e+06
4.18146e+06
3.70889e+06
3.5395e+06
3.42345e+06
3.01055e+06
2.58755e+06
2.14667e+06
1.02221e+06
1.08538e+06
981297
2.68642e+06
4.73791e+06
6.91108e+06
6.51243e+06
5.60603e+06
4.6402e+06
3.10619e+06
2.75114e+06
3.97551e+06
5.3729e+06
6.52147e+06
7.54337e+06
8.61183e+06
1.08334e+07
1.38323e+07
1.53848e+07
1.68532e+07
1.73206e+07
1.313e+07
8.89335e+06
4.7205e+06
3.85479e+06
4.83869e+06
5.84805e+06
8.0187e+06
1.275e+07
1.53423e+07
1.68235e+07
1.69365e+07
1.683e+07
1.70936e+07
1.71623e+07
1.72542e+07
1.69094e+07
1.57403e+07
1.44982e+07
1.345e+07
1.25197e+07
1.22225e+07
1.10329e+07
1.00007e+07
9.11838e+06
8.76779e+06
8.76663e+06
8.84925e+06
9.01087e+06
9.24567e+06
9.58878e+06
1.00526e+07
9.92415e+06
9.72392e+06
9.70623e+06
9.70779e+06
9.67065e+06
9.59736e+06
9.48971e+06
9.34956e+06
9.20418e+06
9.03859e+06
8.82219e+06
8.58018e+06
8.24678e+06
7.55853e+06
7.05537e+06
6.65955e+06
6.17098e+06
5.67157e+06
5.21947e+06
4.90094e+06
4.74164e+06
4.52232e+06
3.95849e+06
3.25166e+06
2.58172e+06
2.04911e+06
1.56508e+06
1.22815e+06
1.16826e+06
1.18627e+06
1.81655e+06
3.17041e+06
4.65968e+06
5.82138e+06
6.83501e+06
7.71067e+06
8.26179e+06
8.40701e+06
8.25795e+06
8.07943e+06
8.13805e+06
8.23673e+06
7.9125e+06
7.686e+06
7.37301e+06
6.9723e+06
6.56316e+06
6.27446e+06
956826
1.35336e+06
3.26149e+06
4.72249e+06
5.33972e+06
6.33102e+06
9.11777e+06
1.18702e+07
1.44491e+07
1.6896e+07
1.91787e+07
1.89681e+07
1.76074e+07
1.64394e+07
1.51817e+07
1.33183e+07
1.11516e+07
9.05822e+06
9.99435e+06
9.04366e+06
9.17105e+06
9.4474e+06
9.23902e+06
1.02407e+07
1.15629e+07
1.19033e+07
1.03456e+07
9.435e+06
9.31699e+06
1.00697e+07
9.25158e+06
7.64763e+06
6.53851e+06
7.22867e+06
9.04159e+06
1.09257e+07
1.21016e+07
1.31227e+07
1.39778e+07
1.46913e+07
1.50971e+07
1.53985e+07
1.55996e+07
1.57061e+07
1.57225e+07
1.56535e+07
1.55042e+07
1.52785e+07
1.49815e+07
1.46218e+07
1.42041e+07
1.36059e+07
1.29533e+07
1.2479e+07
1.20072e+07
1.14801e+07
1.09035e+07
1.02791e+07
9.6082e+06
8.89594e+06
8.14446e+06
7.28921e+06
6.40966e+06
5.41071e+06
4.39721e+06
3.52374e+06
3.4479e+06
3.36323e+06
3.29411e+06
3.24761e+06
3.21656e+06
3.11386e+06
2.95726e+06
2.81019e+06
2.65963e+06
2.49269e+06
2.32322e+06
2.16176e+06
1.97653e+06
1.98553e+06
2.03004e+06
2.06358e+06
2.07221e+06
2.3889e+06
2.67828e+06
3.41643e+06
4.22261e+06
4.81178e+06
5.52272e+06
6.54779e+06
7.31573e+06
7.88312e+06
8.13717e+06
8.24426e+06
8.33911e+06
8.2282e+06
8.2605e+06
8.26617e+06
8.07888e+06
7.84874e+06
1.00269e+07
1.15432e+07
1.39184e+07
1.74448e+07
2.07472e+07
2.19808e+07
1.98247e+07
1.74233e+07
1.51415e+07
1.29774e+07
1.08029e+07
9.26578e+06
7.33811e+06
5.9592e+06
4.93678e+06
5.88413e+06
9.47124e+06
1.30717e+07
1.3549e+07
1.35951e+07
1.34273e+07
1.36786e+07
1.48836e+07
1.43083e+07
1.13828e+07
6.99112e+06
3.22094e+06
1.47865e+06
1.28745e+06
1.04143e+06
2.21635e+06
2.94952e+06
3.54798e+06
4.11106e+06
4.14805e+06
4.12908e+06
4.49179e+06
5.14739e+06
5.68574e+06
6.11934e+06
6.44802e+06
6.67094e+06
6.79334e+06
6.82062e+06
6.75832e+06
6.61097e+06
6.3839e+06
6.08168e+06
5.70892e+06
5.24045e+06
4.62279e+06
3.91063e+06
3.81851e+06
3.74593e+06
3.67226e+06
3.59747e+06
3.47034e+06
3.44571e+06
3.36959e+06
3.29291e+06
3.21689e+06
3.1442e+06
3.04616e+06
2.9459e+06
2.86281e+06
2.77078e+06
2.70522e+06
2.64867e+06
2.59725e+06
2.53826e+06
2.4408e+06
2.31984e+06
2.31334e+06
2.29104e+06
2.26149e+06
2.23015e+06
2.15895e+06
2.09207e+06
1.99938e+06
1.89519e+06
1.78333e+06
1.68493e+06
1.59466e+06
1.49518e+06
1.40397e+06
1.41293e+06
1.72532e+06
2.40467e+06
2.62761e+06
3.02513e+06
3.66188e+06
4.36892e+06
5.13972e+06
5.6524e+06
6.08215e+06
6.68343e+06
7.11315e+06
7.64629e+06
8.18485e+06
8.31717e+06
2.21873e+07
2.02241e+07
1.73374e+07
1.43376e+07
1.13338e+07
8.7745e+06
6.50713e+06
4.31472e+06
2.68834e+06
2.5375e+06
3.87642e+06
4.9737e+06
6.17816e+06
7.79125e+06
1.0127e+07
1.23357e+07
1.35233e+07
1.43815e+07
1.46604e+07
1.56243e+07
1.7221e+07
1.68449e+07
1.40709e+07
8.88292e+06
4.19869e+06
1.61831e+06
1.18694e+06
1.14876e+06
1.03014e+06
1.00015e+06
1.05419e+06
1.33756e+06
1.6586e+06
1.93707e+06
2.43213e+06
2.87108e+06
3.00603e+06
3.12263e+06
3.23967e+06
3.35794e+06
3.47737e+06
3.57583e+06
3.53278e+06
3.48665e+06
3.43749e+06
3.3859e+06
3.33207e+06
3.27627e+06
3.21525e+06
3.13441e+06
3.02866e+06
2.91488e+06
2.8082e+06
2.70254e+06
2.59907e+06
2.49848e+06
2.39974e+06
2.30382e+06
2.21134e+06
2.12111e+06
2.03406e+06
1.94647e+06
1.85196e+06
1.87727e+06
1.91494e+06
1.96643e+06
2.02027e+06
2.06642e+06
2.09002e+06
2.10896e+06
2.11978e+06
2.04439e+06
1.96189e+06
1.88185e+06
1.81468e+06
1.69852e+06
1.58242e+06
1.48554e+06
1.39621e+06
1.32779e+06
1.27843e+06
1.24222e+06
1.2053e+06
1.12679e+06
1.04413e+06
1.06388e+06
1.09967e+06
1.29438e+06
1.76194e+06
1.81695e+06
2.0434e+06
2.33231e+06
2.5887e+06
2.94595e+06
3.25772e+06
3.76096e+06
4.11575e+06
4.33144e+06
4.72956e+06
5.08356e+06
1.05251e+07
7.45438e+06
4.74601e+06
2.96378e+06
3.68299e+06
4.29718e+06
4.22623e+06
4.15931e+06
4.09565e+06
4.03545e+06
4.15389e+06
5.86183e+06
8.946e+06
1.13184e+07
1.29817e+07
1.36506e+07
1.46684e+07
1.47956e+07
1.64167e+07
1.65785e+07
1.34961e+07
9.02836e+06
5.24295e+06
2.36316e+06
1.72589e+06
1.56694e+06
1.25787e+06
1.05812e+06
1.1472e+06
1.15673e+06
1.21257e+06
1.17915e+06
1.04666e+06
1.32446e+06
1.21564e+06
1.14771e+06
1.34067e+06
1.62108e+06
1.74899e+06
1.87187e+06
1.98862e+06
2.09168e+06
2.18378e+06
2.22576e+06
2.27231e+06
2.22082e+06
2.11769e+06
2.01797e+06
1.91906e+06
1.81423e+06
1.75164e+06
1.71041e+06
1.67439e+06
1.6423e+06
1.61346e+06
1.58764e+06
1.56466e+06
1.54421e+06
1.52577e+06
1.50951e+06
1.52861e+06
1.55373e+06
1.59978e+06
1.65784e+06
1.70056e+06
1.73757e+06
1.75609e+06
1.77623e+06
1.78258e+06
1.71964e+06
1.60033e+06
1.49284e+06
1.41674e+06
1.35499e+06
1.28135e+06
1.21477e+06
1.19764e+06
1.18581e+06
1.18641e+06
1.18586e+06
1.14796e+06
1.10523e+06
1.03501e+06
1.10499e+06
1.19387e+06
1.21884e+06
1.20799e+06
1.19817e+06
1.18243e+06
1.61909e+06
1.86467e+06
1.79774e+06
1.66872e+06
1.65992e+06
1.65883e+06
1.98389e+06
2.39655e+06
2.42392e+06
2.43356e+06
2.7408e+06
3.43018e+06
4.6511e+06
4.56396e+06
4.47743e+06
4.39629e+06
4.31962e+06
4.24721e+06
4.17874e+06
4.11368e+06
4.05221e+06
5.35792e+06
9.57986e+06
1.23389e+07
1.32652e+07
1.37889e+07
1.44576e+07
1.43743e+07
1.43624e+07
1.31089e+07
8.7783e+06
5.99302e+06
4.6068e+06
2.56996e+06
1.8419e+06
1.80811e+06
1.67545e+06
1.44573e+06
1.30146e+06
1.08148e+06
1.14121e+06
1.16959e+06
1.28294e+06
1.41364e+06
1.16063e+06
1.17832e+06
1.25781e+06
1.20031e+06
1.11061e+06
1.08635e+06
1.11957e+06
1.12898e+06
1.11933e+06
1.13572e+06
1.1699e+06
1.20472e+06
1.25246e+06
1.32307e+06
1.40422e+06
1.44801e+06
1.39355e+06
1.36137e+06
1.35538e+06
1.3571e+06
1.36027e+06
1.3638e+06
1.36761e+06
1.39116e+06
1.42287e+06
1.45729e+06
1.50844e+06
1.56855e+06
1.61624e+06
1.66493e+06
1.67883e+06
1.68676e+06
1.69468e+06
1.67065e+06
1.59626e+06
1.47185e+06
1.34661e+06
1.2768e+06
1.24733e+06
1.21599e+06
1.19907e+06
1.18502e+06
1.18508e+06
1.18632e+06
1.17541e+06
1.12117e+06
1.0544e+06
1.05415e+06
1.15347e+06
1.28781e+06
1.31689e+06
1.34845e+06
1.38856e+06
1.43887e+06
1.49983e+06
1.55357e+06
1.49048e+06
1.99929e+06
2.27757e+06
2.31502e+06
2.39821e+06
2.504e+06
2.46036e+06
2.27299e+06
1.95335e+06
1.74957e+06
1.735e+06
3.89022e+06
4.6799e+06
4.59103e+06
4.50258e+06
4.41981e+06
4.34139e+06
4.26752e+06
4.19742e+06
4.17078e+06
5.73275e+06
9.27192e+06
1.26629e+07
1.32187e+07
1.33303e+07
1.37514e+07
1.31309e+07
1.06959e+07
9.43629e+06
7.01803e+06
6.13795e+06
5.06257e+06
2.91905e+06
1.8712e+06
1.83597e+06
1.8028e+06
1.74827e+06
1.53402e+06
1.38509e+06
1.35764e+06
1.12965e+06
1.09724e+06
1.18267e+06
1.26999e+06
1.45372e+06
1.30334e+06
1.06515e+06
1.24314e+06
1.39765e+06
1.35606e+06
1.30175e+06
1.25248e+06
1.23162e+06
1.21818e+06
1.18879e+06
1.17485e+06
1.13969e+06
1.12618e+06
1.11949e+06
1.07538e+06
1.08972e+06
1.12457e+06
1.16447e+06
1.2067e+06
1.24931e+06
1.2908e+06
1.3365e+06
1.38526e+06
1.42517e+06
1.45925e+06
1.48998e+06
1.48614e+06
1.47549e+06
1.46108e+06
1.44371e+06
1.31846e+06
1.25277e+06
1.16953e+06
1.12081e+06
1.10054e+06
1.09034e+06
1.09288e+06
1.09609e+06
1.09824e+06
1.10021e+06
1.10219e+06
1.12701e+06
1.18335e+06
1.25963e+06
1.44289e+06
1.6397e+06
1.76069e+06
1.81297e+06
1.86794e+06
1.92491e+06
1.99418e+06
2.06692e+06
2.144e+06
2.21939e+06
2.29187e+06
2.51421e+06
2.48218e+06
2.57412e+06
2.48758e+06
2.28801e+06
1.75144e+06
1.31439e+06
1.29861e+06
1.4094e+06
1.55541e+06
1.74709e+06
3.91662e+06
4.70796e+06
4.6173e+06
4.52696e+06
4.44256e+06
4.36254e+06
4.28711e+06
4.59687e+06
6.44826e+06
9.09495e+06
1.1732e+07
1.26669e+07
1.25412e+07
1.32522e+07
1.1645e+07
8.13879e+06
6.85928e+06
7.09635e+06
6.38911e+06
5.55045e+06
3.52688e+06
2.23755e+06
2.13011e+06
2.10475e+06
2.08356e+06
2.06645e+06
1.95812e+06
1.73977e+06
1.70753e+06
1.71363e+06
1.46474e+06
1.18444e+06
1.0552e+06
1.02903e+06
1.07627e+06
1.20432e+06
1.13788e+06
1.16924e+06
1.35693e+06
1.54747e+06
1.66927e+06
1.62588e+06
1.55313e+06
1.49847e+06
1.45932e+06
1.43336e+06
1.40888e+06
1.41841e+06
1.42709e+06
1.35549e+06
1.29641e+06
1.24862e+06
1.21106e+06
1.18244e+06
1.16127e+06
1.14639e+06
1.14365e+06
1.1458e+06
1.15031e+06
1.15704e+06
1.14738e+06
1.1531e+06
1.17839e+06
1.13644e+06
1.16995e+06
1.25789e+06
1.30474e+06
1.31427e+06
1.32268e+06
1.31574e+06
1.30976e+06
1.34145e+06
1.41958e+06
1.51938e+06
1.65721e+06
1.86888e+06
2.10145e+06
2.30896e+06
2.34731e+06
2.39195e+06
2.45103e+06
2.49062e+06
2.50175e+06
2.51632e+06
2.5298e+06
2.54005e+06
2.54234e+06
2.44888e+06
2.21008e+06
1.98011e+06
1.76088e+06
1.46133e+06
1.48722e+06
1.34441e+06
1.33058e+06
1.33435e+06
1.33799e+06
1.34252e+06
1.35418e+06
1.40604e+06
3.94246e+06
4.73524e+06
4.64271e+06
4.55061e+06
4.4645e+06
4.38302e+06
5.13622e+06
7.09676e+06
9.01182e+06
9.80124e+06
1.14562e+07
1.20332e+07
1.25491e+07
1.03147e+07
6.65255e+06
5.82294e+06
6.36784e+06
6.01361e+06
5.24895e+06
4.3163e+06
3.34545e+06
2.7216e+06
2.62342e+06
2.58529e+06
2.56985e+06
2.55882e+06
2.54221e+06
2.3662e+06
2.2434e+06
2.25109e+06
2.26192e+06
2.16223e+06
1.84713e+06
1.57899e+06
1.35358e+06
1.14395e+06
1.08992e+06
1.10115e+06
1.07228e+06
1.08804e+06
1.14752e+06
1.28144e+06
1.39973e+06
1.49205e+06
1.57308e+06
1.6399e+06
1.67971e+06
1.75083e+06
1.76105e+06
1.75605e+06
1.75147e+06
1.73449e+06
1.69734e+06
1.64906e+06
1.59115e+06
1.52542e+06
1.45433e+06
1.38077e+06
1.40305e+06
1.46617e+06
1.50737e+06
1.48914e+06
1.50189e+06
1.53573e+06
1.41572e+06
1.39798e+06
1.39651e+06
1.42043e+06
1.50299e+06
1.59257e+06
1.67113e+06
1.76602e+06
1.96446e+06
2.19064e+06
2.43262e+06
2.49069e+06
2.5112e+06
2.51138e+06
2.5203e+06
2.53078e+06
2.5444e+06
2.55699e+06
2.5667e+06
2.45338e+06
2.21818e+06
1.99111e+06
1.74433e+06
1.50636e+06
1.35335e+06
1.20241e+06
1.09664e+06
1.00218e+06
1.37225e+06
1.4759e+06
1.33329e+06
1.33119e+06
1.33483e+06
1.33934e+06
1.3407e+06
1.33904e+06
3.96778e+06
4.76166e+06
4.66726e+06
4.57355e+06
4.48571e+06
5.59941e+06
7.67083e+06
8.33288e+06
8.47621e+06
9.66118e+06
1.18815e+07
1.14902e+07
9.14761e+06
6.32087e+06
6.10844e+06
5.95157e+06
5.14131e+06
4.64366e+06
5.12248e+06
3.68692e+06
2.90362e+06
2.87819e+06
2.80196e+06
2.7159e+06
2.66668e+06
2.6487e+06
2.63154e+06
2.56119e+06
2.34885e+06
2.29882e+06
2.29046e+06
2.28221e+06
2.27388e+06
2.06789e+06
1.79416e+06
1.5754e+06
1.30689e+06
1.13087e+06
1.06454e+06
1.05355e+06
1.06532e+06
1.05436e+06
1.04373e+06
1.05905e+06
1.08898e+06
1.12217e+06
1.1536e+06
1.17969e+06
1.20094e+06
1.21105e+06
1.2117e+06
1.21516e+06
1.21705e+06
1.22448e+06
1.26249e+06
1.30251e+06
1.34417e+06
1.29748e+06
1.26209e+06
1.28512e+06
1.36031e+06
1.40275e+06
1.401e+06
1.4468e+06
1.52215e+06
1.60376e+06
1.68142e+06
1.75443e+06
1.84808e+06
1.98407e+06
2.17037e+06
2.33519e+06
2.44774e+06
2.53245e+06
2.54419e+06
2.5524e+06
2.56267e+06
2.5753e+06
2.58634e+06
2.40718e+06
2.18998e+06
1.96881e+06
1.72075e+06
1.50193e+06
1.34815e+06
1.20104e+06
1.09799e+06
1.06103e+06
1.06002e+06
1.05898e+06
1.05791e+06
1.0568e+06
1.06434e+06
1.51354e+06
1.39952e+06
1.32797e+06
1.33164e+06
1.33617e+06
1.33753e+06
1.33594e+06
3.99266e+06
4.78721e+06
4.69098e+06
4.59564e+06
5.98034e+06
8.16589e+06
7.64069e+06
7.6248e+06
8.52941e+06
1.10643e+07
1.06346e+07
8.21483e+06
6.71367e+06
6.46714e+06
6.23611e+06
5.55942e+06
4.48826e+06
3.79752e+06
3.35617e+06
3.15676e+06
2.8845e+06
2.86085e+06
2.83864e+06
2.78238e+06
2.70544e+06
2.64254e+06
2.62303e+06
2.60755e+06
2.46842e+06
2.30314e+06
2.28952e+06
2.28153e+06
2.2735e+06
2.26549e+06
2.24962e+06
2.05514e+06
1.8383e+06
1.64813e+06
1.42567e+06
1.21859e+06
1.12613e+06
1.07043e+06
1.05051e+06
1.05268e+06
1.06572e+06
1.07086e+06
1.05695e+06
1.05817e+06
1.06814e+06
1.08158e+06
1.09967e+06
1.12359e+06
1.14361e+06
1.13683e+06
1.15781e+06
1.21885e+06
1.29923e+06
1.39953e+06
1.46262e+06
1.52434e+06
1.59169e+06
1.66448e+06
1.72874e+06
1.8003e+06
1.88677e+06
1.97914e+06
2.08942e+06
2.19339e+06
2.25384e+06
2.35504e+06
2.46848e+06
2.57215e+06
2.58709e+06
2.59752e+06
2.51825e+06
2.31245e+06
2.11051e+06
1.907e+06
1.65768e+06
1.47584e+06
1.31724e+06
1.18074e+06
1.08854e+06
1.06279e+06
1.06193e+06
1.06103e+06
1.06008e+06
1.05909e+06
1.05806e+06
1.05701e+06
1.05593e+06
1.05481e+06
1.00833e+06
1.22686e+06
1.48215e+06
1.33642e+06
1.32838e+06
1.33291e+06
1.33428e+06
1.33278e+06
4.01719e+06
4.81184e+06
4.71387e+06
6.27445e+06
8.57726e+06
7.28738e+06
6.82863e+06
8.38684e+06
9.33852e+06
9.44835e+06
7.57522e+06
7.00771e+06
6.72281e+06
6.4576e+06
5.90283e+06
4.83982e+06
3.97909e+06
3.67818e+06
2.24059e+06
1.27694e+06
1.96172e+06
2.57932e+06
2.82227e+06
2.80284e+06
2.77074e+06
2.70399e+06
2.64073e+06
2.59933e+06
2.57452e+06
2.40209e+06
2.28811e+06
2.28026e+06
2.2726e+06
2.2648e+06
2.25704e+06
2.24947e+06
2.24158e+06
2.1117e+06
1.96739e+06
1.80623e+06
1.66615e+06
1.52771e+06
1.38045e+06
1.27692e+06
1.2179e+06
1.20422e+06
1.20317e+06
1.20308e+06
1.21337e+06
1.2494e+06
1.30434e+06
1.37956e+06
1.4771e+06
1.57554e+06
1.62096e+06
1.67168e+06
1.72772e+06
1.77732e+06
1.83722e+06
1.90758e+06
1.98298e+06
2.06314e+06
2.14786e+06
2.17214e+06
2.19257e+06
2.22434e+06
2.28563e+06
2.39813e+06
2.51673e+06
2.52946e+06
2.36086e+06
2.16948e+06
1.98052e+06
1.77325e+06
1.5651e+06
1.41045e+06
1.25946e+06
1.14232e+06
1.07102e+06
1.06395e+06
1.06323e+06
1.06248e+06
1.06167e+06
1.06081e+06
1.05992e+06
1.059e+06
1.05803e+06
1.05701e+06
1.05597e+06
1.05491e+06
1.05382e+06
1.05269e+06
1.05151e+06
1.0083e+06
1.40136e+06
1.40108e+06
1.32513e+06
1.32963e+06
1.33099e+06
1.32956e+06
4.04137e+06
4.83554e+06
6.47814e+06
8.90136e+06
7.14958e+06
6.1682e+06
8.37832e+06
8.15505e+06
7.32313e+06
7.29318e+06
7.29686e+06
6.96398e+06
6.68705e+06
6.27582e+06
5.20787e+06
4.17492e+06
3.732e+06
3.06068e+06
1.44856e+06
1.08562e+06
1.0775e+06
1.32866e+06
1.90288e+06
2.40621e+06
2.72973e+06
2.75451e+06
2.71056e+06
2.65422e+06
2.60365e+06
2.52688e+06
2.35948e+06
2.2785e+06
2.27097e+06
2.26362e+06
2.256e+06
2.24842e+06
2.24114e+06
2.23322e+06
2.22534e+06
2.21782e+06
2.1148e+06
2.00818e+06
1.91537e+06
1.8287e+06
1.75892e+06
1.81403e+06
1.81135e+06
1.81817e+06
1.82982e+06
1.84775e+06
1.8733e+06
1.90515e+06
1.94297e+06
1.98652e+06
2.03571e+06
2.09037e+06
2.15029e+06
2.21528e+06
2.21035e+06
2.20296e+06
2.19751e+06
2.19354e+06
2.23487e+06
2.27694e+06
2.20141e+06
2.12603e+06
2.04489e+06
1.94107e+06
1.78453e+06
1.59785e+06
1.45341e+06
1.30309e+06
1.17974e+06
1.09385e+06
1.06517e+06
1.06462e+06
1.06402e+06
1.06337e+06
1.06268e+06
1.06196e+06
1.0612e+06
1.0604e+06
1.05956e+06
1.05869e+06
1.05779e+06
1.05685e+06
1.05586e+06
1.05483e+06
1.05377e+06
1.0527e+06
1.05159e+06
1.05045e+06
1.04927e+06
1.02848e+06
1.12776e+06
1.48069e+06
1.33392e+06
1.32633e+06
1.3277e+06
1.32632e+06
4.06509e+06
6.58211e+06
9.10201e+06
7.19241e+06
5.59215e+06
8.18881e+06
7.55098e+06
5.07582e+06
6.46001e+06
7.76097e+06
7.21358e+06
6.9253e+06
6.62076e+06
5.57155e+06
4.38473e+06
3.88771e+06
3.66687e+06
2.11664e+06
1.08868e+06
1.09456e+06
1.10053e+06
1.10652e+06
1.09559e+06
1.20838e+06
1.60388e+06
2.07635e+06
2.34608e+06
2.59121e+06
2.67241e+06
2.62798e+06
2.52248e+06
2.35877e+06
2.2745e+06
2.26158e+06
2.25454e+06
2.24698e+06
2.23965e+06
2.23246e+06
2.22455e+06
2.2169e+06
2.20943e+06
2.20148e+06
2.19374e+06
2.17538e+06
2.25207e+06
2.26672e+06
2.26492e+06
2.27082e+06
2.28413e+06
2.27846e+06
2.27092e+06
2.26326e+06
2.25561e+06
2.24902e+06
2.24572e+06
2.24257e+06
2.24682e+06
2.25109e+06
2.09134e+06
1.92938e+06
1.81144e+06
1.69359e+06
1.61725e+06
1.54962e+06
1.47902e+06
1.39069e+06
1.28947e+06
1.17678e+06
1.09633e+06
1.06557e+06
1.06518e+06
1.06474e+06
1.06427e+06
1.06374e+06
1.06318e+06
1.06258e+06
1.06195e+06
1.06128e+06
1.06057e+06
1.05983e+06
1.05905e+06
1.05823e+06
1.05736e+06
1.05645e+06
1.05552e+06
1.05456e+06
1.05356e+06
1.05252e+06
1.05145e+06
1.05037e+06
1.04925e+06
1.04809e+06
1.0469e+06
1.04569e+06
989874
1.30284e+06
1.39576e+06
1.32297e+06
1.32434e+06
1.32304e+06
5.62484e+06
9.22211e+06
7.39599e+06
5.14226e+06
7.87114e+06
6.98788e+06
3.81175e+06
5.07435e+06
7.89128e+06
7.47307e+06
7.1725e+06
6.88597e+06
5.95334e+06
4.6885e+06
4.0824e+06
3.84315e+06
2.924e+06
1.35858e+06
1.0983e+06
1.10353e+06
1.1089e+06
1.11431e+06
1.11972e+06
1.12515e+06
1.13057e+06
1.12772e+06
1.23981e+06
1.48014e+06
1.80424e+06
2.04337e+06
2.19036e+06
2.26163e+06
2.26781e+06
2.30872e+06
2.28985e+06
2.27439e+06
2.25958e+06
2.2462e+06
2.23402e+06
2.22239e+06
2.21207e+06
2.20289e+06
2.19422e+06
2.22493e+06
2.31621e+06
2.30951e+06
2.30465e+06
2.30052e+06
2.29698e+06
2.29577e+06
2.22268e+06
2.09613e+06
1.96548e+06
1.83213e+06
1.69794e+06
1.56505e+06
1.43648e+06
1.34353e+06
1.33273e+06
1.25431e+06
1.20638e+06
1.16209e+06
1.0997e+06
1.06573e+06
1.06528e+06
1.06498e+06
1.06471e+06
1.0644e+06
1.06404e+06
1.06364e+06
1.06322e+06
1.06275e+06
1.06224e+06
1.06168e+06
1.06109e+06
1.06046e+06
1.05978e+06
1.05906e+06
1.05831e+06
1.05755e+06
1.05675e+06
1.05591e+06
1.05503e+06
1.0541e+06
1.05315e+06
1.05216e+06
1.05113e+06
1.05008e+06
1.04901e+06
1.04791e+06
1.04679e+06
1.04563e+06
1.04442e+06
1.0432e+06
1.04196e+06
1.06287e+06
1.43963e+06
1.32735e+06
1.32094e+06
1.31969e+06
7.83627e+06
7.70181e+06
5.12886e+06
7.40869e+06
6.51934e+06
3.24841e+06
4.07677e+06
7.06183e+06
7.7427e+06
7.42936e+06
7.13018e+06
6.36315e+06
5.10075e+06
4.2967e+06
3.95973e+06
3.64108e+06
1.94997e+06
1.10373e+06
1.10798e+06
1.11255e+06
1.11729e+06
1.12211e+06
1.12695e+06
1.13184e+06
1.13675e+06
1.14163e+06
1.14643e+06
1.15106e+06
1.13625e+06
1.15746e+06
1.22763e+06
1.32407e+06
1.39385e+06
1.45697e+06
1.5171e+06
1.57272e+06
1.63194e+06
1.68115e+06
1.71951e+06
1.74661e+06
1.76188e+06
1.76624e+06
1.73991e+06
1.79709e+06
1.7481e+06
1.67932e+06
1.60439e+06
1.52481e+06
1.44215e+06
1.36393e+06
1.30927e+06
1.25696e+06
1.19927e+06
1.15581e+06
1.13136e+06
1.13096e+06
1.13879e+06
1.12867e+06
1.09355e+06
1.06735e+06
1.05431e+06
1.06099e+06
1.06414e+06
1.06383e+06
1.06345e+06
1.06312e+06
1.06279e+06
1.06243e+06
1.06203e+06
1.06159e+06
1.06112e+06
1.06061e+06
1.06006e+06
1.05947e+06
1.05885e+06
1.05819e+06
1.05749e+06
1.05674e+06
1.05597e+06
1.05516e+06
1.05433e+06
1.05346e+06
1.05256e+06
1.05162e+06
1.05065e+06
1.04965e+06
1.04861e+06
1.04754e+06
1.04645e+06
1.04534e+06
1.0442e+06
1.04303e+06
1.04183e+06
1.0406e+06
1.03935e+06
987062
1.21504e+06
1.38595e+06
1.31754e+06
1.31633e+06
6.36413e+06
5.37848e+06
6.88344e+06
6.07684e+06
2.84005e+06
3.72339e+06
5.68437e+06
7.46047e+06
7.69548e+06
7.38396e+06
6.80148e+06
5.56601e+06
4.52451e+06
4.09168e+06
3.97181e+06
2.7312e+06
1.24531e+06
1.11413e+06
1.11767e+06
1.12156e+06
1.12564e+06
1.12987e+06
1.13415e+06
1.13848e+06
1.1429e+06
1.14728e+06
1.15158e+06
1.15583e+06
1.15993e+06
1.16383e+06
1.16762e+06
1.17113e+06
1.17441e+06
1.18223e+06
1.14636e+06
1.11387e+06
1.11119e+06
1.11467e+06
1.12267e+06
1.13316e+06
1.14401e+06
1.1519e+06
1.11571e+06
1.09123e+06
1.08269e+06
1.07846e+06
1.0814e+06
1.09443e+06
1.12011e+06
1.16107e+06
1.1859e+06
1.19181e+06
1.19756e+06
1.19595e+06
1.15744e+06