/*--------------------------------*- C++ -*----------------------------------*\
| =========                 |                                                 |
| \\      /  F ield         | foam-extend: Open Source CFD                    |
|  \\    /   O peration     | Version:     4.1                                |
|   \\  /    A nd           | Web:         http://www.foam-extend.org         |
|    \\/     M anipulation  |                                                 |
\*---------------------------------------------------------------------------*/
FoamFile
{
    version     2.0;
    format      ascii;
    class       vectorField;
    location    "7";
    object      solidsCellD_iteration206;
}
// * * * * * * * * * * * * * * * * * * * * * * * * * * * * * * * * * * * * * //


100000
(
(4.02276e-06 -1.66895e-06 8.6537e-07)
(3.98997e-06 -1.64654e-06 8.8729e-07)
(3.95862e-06 -1.62516e-06 8.73618e-07)
(3.92866e-06 -1.60486e-06 8.45186e-07)
(3.90004e-06 -1.58556e-06 8.1787e-07)
(3.87269e-06 -1.56722e-06 7.91584e-07)
(3.84656e-06 -1.54979e-06 7.66315e-07)
(3.8216e-06 -1.53323e-06 7.1574e-07)
(3.79776e-06 -1.5175e-06 6.64522e-07)
(3.775e-06 -1.50257e-06 6.19221e-07)
(3.75326e-06 -1.48838e-06 5.79186e-07)
(3.7325e-06 -1.47492e-06 5.41128e-07)
(3.7127e-06 -1.46215e-06 5.05527e-07)
(3.6938e-06 -1.45004e-06 4.69768e-07)
(3.67578e-06 -1.43856e-06 4.104e-07)
(3.65859e-06 -1.42768e-06 2.98694e-07)
(3.64221e-06 -1.41738e-06 1.81533e-07)
(3.62661e-06 -1.40763e-06 4.91152e-08)
(3.61175e-06 -1.3984e-06 -1.94092e-08)
(3.59761e-06 -1.38968e-06 1.69336e-07)
(3.58416e-06 -1.38145e-06 3.80238e-07)
(3.57137e-06 -1.37368e-06 3.10441e-07)
(3.55923e-06 -1.36635e-06 1.53255e-07)
(3.5477e-06 -1.35945e-06 -1.66969e-08)
(3.53676e-06 -1.35295e-06 -8.92975e-08)
(3.5264e-06 -1.34685e-06 -5.57206e-08)
(3.51659e-06 -1.34113e-06 -7.33773e-08)
(3.50732e-06 -1.33576e-06 -1.14946e-08)
(3.49856e-06 -1.33074e-06 7.93784e-08)
(3.49029e-06 -1.32605e-06 1.80504e-07)
(3.4825e-06 -1.32169e-06 2.42798e-07)
(3.47518e-06 -1.31763e-06 2.84121e-07)
(3.46831e-06 -1.31386e-06 3.23042e-07)
(3.46186e-06 -1.31038e-06 3.53305e-07)
(3.45583e-06 -1.30716e-06 3.30358e-07)
(3.45021e-06 -1.30421e-06 2.69638e-07)
(3.44497e-06 -1.30151e-06 2.4824e-07)
(3.44012e-06 -1.29905e-06 2.28326e-07)
(3.43563e-06 -1.29683e-06 2.05093e-07)
(3.43149e-06 -1.29483e-06 1.84895e-07)
(3.42769e-06 -1.29304e-06 1.62878e-07)
(3.42423e-06 -1.29146e-06 1.43202e-07)
(3.42108e-06 -1.29008e-06 1.24174e-07)
(3.41825e-06 -1.28889e-06 1.10527e-07)
(3.41571e-06 -1.28788e-06 1.02711e-07)
(3.41347e-06 -1.28705e-06 8.94518e-08)
(3.41151e-06 -1.2864e-06 7.73508e-08)
(3.40983e-06 -1.28591e-06 6.76273e-08)
(3.4084e-06 -1.28557e-06 6.0211e-08)
(3.40724e-06 -1.28539e-06 5.50296e-08)
(3.40632e-06 -1.28536e-06 4.99918e-08)
(3.40565e-06 -1.28546e-06 4.62719e-08)
(3.40521e-06 -1.28571e-06 4.46967e-08)
(3.405e-06 -1.28608e-06 4.51989e-08)
(3.40501e-06 -1.28659e-06 4.77146e-08)
(3.40523e-06 -1.28721e-06 5.21892e-08)
(3.40566e-06 -1.28795e-06 5.7614e-08)
(3.4063e-06 -1.28881e-06 6.4378e-08)
(3.40712e-06 -1.28977e-06 7.51071e-08)
(3.40814e-06 -1.29084e-06 9.91665e-08)
(3.40935e-06 -1.29201e-06 1.25653e-07)
(3.41073e-06 -1.29328e-06 1.49457e-07)
(3.41229e-06 -1.29464e-06 1.78061e-07)
(3.41402e-06 -1.29609e-06 2.08218e-07)
(3.41591e-06 -1.29763e-06 2.38897e-07)
(3.41796e-06 -1.29925e-06 2.71369e-07)
(3.42017e-06 -1.30096e-06 3.00986e-07)
(3.42253e-06 -1.30274e-06 3.31114e-07)
(3.42503e-06 -1.30459e-06 3.62728e-07)
(3.42768e-06 -1.30652e-06 3.96085e-07)
(3.43047e-06 -1.30852e-06 4.34235e-07)
(3.43339e-06 -1.31059e-06 4.74087e-07)
(3.43644e-06 -1.31272e-06 5.25336e-07)
(3.43962e-06 -1.31491e-06 5.90721e-07)
(3.44292e-06 -1.31716e-06 6.53438e-07)
(3.44635e-06 -1.31947e-06 6.78851e-07)
(3.44989e-06 -1.32183e-06 6.19445e-07)
(3.45354e-06 -1.32425e-06 5.55544e-07)
(3.45731e-06 -1.32671e-06 4.89598e-07)
(3.46119e-06 -1.32923e-06 4.21649e-07)
(3.46516e-06 -1.33179e-06 3.51744e-07)
(3.46925e-06 -1.3344e-06 2.7991e-07)
(3.47343e-06 -1.33705e-06 2.25801e-07)
(3.4777e-06 -1.33974e-06 1.93812e-07)
(3.48208e-06 -1.34248e-06 1.26207e-07)
(3.48654e-06 -1.34525e-06 3.51409e-08)
(3.49109e-06 -1.34806e-06 -4.90149e-08)
(3.49573e-06 -1.3509e-06 -1.04786e-07)
(3.50045e-06 -1.35377e-06 -1.71807e-07)
(3.50526e-06 -1.35668e-06 -2.52719e-07)
(3.51014e-06 -1.35962e-06 -3.45889e-07)
(3.5151e-06 -1.36259e-06 -4.55492e-07)
(3.52014e-06 -1.36558e-06 -4.7295e-07)
(3.52525e-06 -1.36861e-06 -4.06705e-07)
(3.53043e-06 -1.37165e-06 -3.35394e-07)
(3.53568e-06 -1.37473e-06 -2.64458e-07)
(3.541e-06 -1.37782e-06 -1.94985e-07)
(3.54639e-06 -1.38094e-06 -1.25215e-07)
(3.55184e-06 -1.38408e-06 -5.13626e-08)
(3.55737e-06 -1.38724e-06 8.59172e-08)
(3.99012e-06 -1.68246e-06 7.48342e-07)
(3.95698e-06 -1.6605e-06 7.59736e-07)
(3.92531e-06 -1.63955e-06 7.59188e-07)
(3.89504e-06 -1.61966e-06 7.32887e-07)
(3.86612e-06 -1.60075e-06 7.04071e-07)
(3.83849e-06 -1.58278e-06 6.76354e-07)
(3.8121e-06 -1.5657e-06 6.49724e-07)
(3.78688e-06 -1.54948e-06 6.31141e-07)
(3.7628e-06 -1.53407e-06 6.13669e-07)
(3.7398e-06 -1.51945e-06 5.88457e-07)
(3.71784e-06 -1.50556e-06 5.5588e-07)
(3.69687e-06 -1.49238e-06 5.26477e-07)
(3.67687e-06 -1.47988e-06 4.80163e-07)
(3.65778e-06 -1.46802e-06 4.37405e-07)
(3.63957e-06 -1.45678e-06 4.58127e-07)
(3.62221e-06 -1.44614e-06 3.94376e-07)
(3.60567e-06 -1.43606e-06 2.71856e-07)
(3.58991e-06 -1.42652e-06 1.29187e-07)
(3.5749e-06 -1.4175e-06 -1.55883e-08)
(3.56061e-06 -1.40898e-06 -1.61966e-07)
(3.54702e-06 -1.40093e-06 -1.46071e-07)
(3.5341e-06 -1.39334e-06 -3.41309e-08)
(3.52183e-06 -1.38619e-06 1.73721e-07)
(3.51018e-06 -1.37945e-06 4.14146e-07)
(3.49912e-06 -1.37312e-06 6.03811e-07)
(3.48865e-06 -1.36717e-06 7.62399e-07)
(3.47873e-06 -1.36159e-06 9.09906e-07)
(3.46935e-06 -1.35636e-06 8.95288e-07)
(3.46049e-06 -1.35148e-06 8.09268e-07)
(3.45213e-06 -1.34692e-06 7.21885e-07)
(3.44425e-06 -1.34267e-06 6.33e-07)
(3.43684e-06 -1.33873e-06 5.53685e-07)
(3.42987e-06 -1.33508e-06 4.85351e-07)
(3.42333e-06 -1.33171e-06 4.36855e-07)
(3.41723e-06 -1.3286e-06 4.00101e-07)
(3.41153e-06 -1.32575e-06 3.66931e-07)
(3.40622e-06 -1.32315e-06 3.32013e-07)
(3.40129e-06 -1.32078e-06 2.91282e-07)
(3.39673e-06 -1.31865e-06 2.64128e-07)
(3.39253e-06 -1.31673e-06 2.44555e-07)
(3.38866e-06 -1.31503e-06 2.27509e-07)
(3.38513e-06 -1.31353e-06 2.12964e-07)
(3.38193e-06 -1.31222e-06 2.00831e-07)
(3.37903e-06 -1.31111e-06 1.91025e-07)
(3.37644e-06 -1.31017e-06 1.83465e-07)
(3.37414e-06 -1.30942e-06 1.78071e-07)
(3.37212e-06 -1.30883e-06 1.74772e-07)
(3.37038e-06 -1.3084e-06 1.73488e-07)
(3.3689e-06 -1.30813e-06 1.74157e-07)
(3.36768e-06 -1.30801e-06 1.76703e-07)
(3.36672e-06 -1.30803e-06 1.81071e-07)
(3.36599e-06 -1.3082e-06 1.87449e-07)
(3.3655e-06 -1.3085e-06 1.95764e-07)
(3.36524e-06 -1.30893e-06 2.05754e-07)
(3.3652e-06 -1.30948e-06 2.17353e-07)
(3.36538e-06 -1.31015e-06 2.30519e-07)
(3.36576e-06 -1.31094e-06 2.43595e-07)
(3.36635e-06 -1.31185e-06 2.55146e-07)
(3.36713e-06 -1.31286e-06 2.68358e-07)
(3.3681e-06 -1.31397e-06 2.83018e-07)
(3.36926e-06 -1.31518e-06 2.99081e-07)
(3.3706e-06 -1.31649e-06 3.16493e-07)
(3.37212e-06 -1.31789e-06 3.33773e-07)
(3.3738e-06 -1.31939e-06 3.43607e-07)
(3.37565e-06 -1.32096e-06 3.54283e-07)
(3.37766e-06 -1.32262e-06 3.65773e-07)
(3.37982e-06 -1.32437e-06 3.78053e-07)
(3.38214e-06 -1.32618e-06 3.9108e-07)
(3.3846e-06 -1.32808e-06 4.12207e-07)
(3.3872e-06 -1.33004e-06 4.3146e-07)
(3.38995e-06 -1.33207e-06 4.48171e-07)
(3.39283e-06 -1.33417e-06 4.77092e-07)
(3.39584e-06 -1.33633e-06 5.07945e-07)
(3.39898e-06 -1.33855e-06 5.41859e-07)
(3.40224e-06 -1.34084e-06 5.76945e-07)
(3.40562e-06 -1.34317e-06 6.13166e-07)
(3.40912e-06 -1.34557e-06 6.52996e-07)
(3.41274e-06 -1.34801e-06 6.98386e-07)
(3.41646e-06 -1.35051e-06 7.58913e-07)
(3.42029e-06 -1.35305e-06 8.16388e-07)
(3.42423e-06 -1.35565e-06 8.75323e-07)
(3.42827e-06 -1.35828e-06 9.2501e-07)
(3.43241e-06 -1.36096e-06 9.74242e-07)
(3.43664e-06 -1.36368e-06 1.00697e-06)
(3.44097e-06 -1.36644e-06 8.19766e-07)
(3.44539e-06 -1.36924e-06 6.17473e-07)
(3.4499e-06 -1.37207e-06 5.1766e-07)
(3.4545e-06 -1.37494e-06 4.33647e-07)
(3.45918e-06 -1.37784e-06 3.29444e-07)
(3.46394e-06 -1.38077e-06 2.17222e-07)
(3.46878e-06 -1.38374e-06 1.0224e-07)
(3.4737e-06 -1.38673e-06 -1.48481e-08)
(3.4787e-06 -1.38975e-06 -1.28988e-07)
(3.48376e-06 -1.39279e-06 -2.03713e-07)
(3.4889e-06 -1.39587e-06 -2.6542e-07)
(3.49411e-06 -1.39896e-06 -3.27734e-07)
(3.49938e-06 -1.40208e-06 -2.42466e-07)
(3.50473e-06 -1.40522e-06 -1.66104e-07)
(3.51013e-06 -1.40839e-06 -8.67756e-08)
(3.5156e-06 -1.41157e-06 -8.24994e-09)
(3.95725e-06 -1.69587e-06 6.13284e-07)
(3.92378e-06 -1.67437e-06 6.09997e-07)
(3.89179e-06 -1.65386e-06 6.06799e-07)
(3.86122e-06 -1.63439e-06 6.03198e-07)
(3.83201e-06 -1.61588e-06 5.90347e-07)
(3.80411e-06 -1.59829e-06 5.695e-07)
(3.77746e-06 -1.58157e-06 5.49452e-07)
(3.75199e-06 -1.5657e-06 5.3016e-07)
(3.72768e-06 -1.55062e-06 5.17224e-07)
(3.70445e-06 -1.53631e-06 5.09449e-07)
(3.68228e-06 -1.52272e-06 5.01879e-07)
(3.66112e-06 -1.50983e-06 4.96374e-07)
(3.64092e-06 -1.4976e-06 4.78964e-07)
(3.62164e-06 -1.48601e-06 4.25904e-07)
(3.60326e-06 -1.47502e-06 4.38582e-07)
(3.58574e-06 -1.46462e-06 4.31156e-07)
(3.56903e-06 -1.45477e-06 3.07871e-07)
(3.55311e-06 -1.44545e-06 1.77512e-07)
(3.53796e-06 -1.43664e-06 4.19216e-08)
(3.52353e-06 -1.42832e-06 -7.4917e-08)
(3.5098e-06 -1.42046e-06 -1.14258e-07)
(3.49676e-06 -1.41306e-06 9.38005e-08)
(3.48436e-06 -1.40608e-06 2.69764e-07)
(3.47259e-06 -1.39951e-06 3.94251e-07)
(3.46142e-06 -1.39334e-06 5.587e-07)
(3.45084e-06 -1.38754e-06 7.35213e-07)
(3.44082e-06 -1.38211e-06 8.65775e-07)
(3.43134e-06 -1.37703e-06 8.74877e-07)
(3.42238e-06 -1.37228e-06 8.59101e-07)
(3.41392e-06 -1.36785e-06 7.93048e-07)
(3.40596e-06 -1.36374e-06 7.4331e-07)
(3.39845e-06 -1.35991e-06 7.06162e-07)
(3.3914e-06 -1.35638e-06 6.892e-07)
(3.38479e-06 -1.35312e-06 6.7347e-07)
(3.37861e-06 -1.35012e-06 6.4444e-07)
(3.37283e-06 -1.34737e-06 6.06975e-07)
(3.36745e-06 -1.34487e-06 5.65568e-07)
(3.36245e-06 -1.3426e-06 4.90467e-07)
(3.35782e-06 -1.34056e-06 4.21528e-07)
(3.35355e-06 -1.33873e-06 3.59287e-07)
(3.34962e-06 -1.33711e-06 3.03502e-07)
(3.34603e-06 -1.33569e-06 2.53918e-07)
(3.34276e-06 -1.33447e-06 2.10314e-07)
(3.33981e-06 -1.33343e-06 1.94707e-07)
(3.33715e-06 -1.33257e-06 1.84572e-07)
(3.3348e-06 -1.33188e-06 1.7685e-07)
(3.33272e-06 -1.33136e-06 1.71649e-07)
(3.33093e-06 -1.331e-06 1.69105e-07)
(3.3294e-06 -1.33079e-06 1.68035e-07)
(3.32813e-06 -1.33074e-06 1.68499e-07)
(3.32711e-06 -1.33082e-06 1.71664e-07)
(3.32633e-06 -1.33104e-06 1.76782e-07)
(3.32579e-06 -1.3314e-06 1.83789e-07)
(3.32549e-06 -1.33188e-06 1.92628e-07)
(3.3254e-06 -1.33249e-06 2.03221e-07)
(3.32553e-06 -1.33321e-06 2.1553e-07)
(3.32586e-06 -1.33405e-06 2.29475e-07)
(3.3264e-06 -1.335e-06 2.42921e-07)
(3.32714e-06 -1.33606e-06 2.57351e-07)
(3.32807e-06 -1.33721e-06 2.73292e-07)
(3.32919e-06 -1.33847e-06 2.96668e-07)
(3.33048e-06 -1.33982e-06 3.27475e-07)
(3.33195e-06 -1.34127e-06 3.59659e-07)
(3.33359e-06 -1.3428e-06 3.95438e-07)
(3.3354e-06 -1.34442e-06 4.25425e-07)
(3.33736e-06 -1.34612e-06 4.54339e-07)
(3.33948e-06 -1.34789e-06 4.79827e-07)
(3.34176e-06 -1.34975e-06 5.08395e-07)
(3.34418e-06 -1.35168e-06 5.43455e-07)
(3.34674e-06 -1.35367e-06 5.79744e-07)
(3.34944e-06 -1.35574e-06 6.17223e-07)
(3.35228e-06 -1.35787e-06 6.49916e-07)
(3.35525e-06 -1.36007e-06 6.80907e-07)
(3.35835e-06 -1.36232e-06 6.79057e-07)
(3.36157e-06 -1.36463e-06 6.59133e-07)
(3.36491e-06 -1.367e-06 6.38221e-07)
(3.36837e-06 -1.36943e-06 6.36665e-07)
(3.37194e-06 -1.3719e-06 6.75096e-07)
(3.37562e-06 -1.37443e-06 7.12033e-07)
(3.37941e-06 -1.377e-06 7.44771e-07)
(3.38331e-06 -1.37962e-06 7.91903e-07)
(3.38731e-06 -1.38228e-06 8.64814e-07)
(3.39141e-06 -1.38499e-06 9.43318e-07)
(3.3956e-06 -1.38773e-06 9.72216e-07)
(3.39989e-06 -1.39052e-06 9.72692e-07)
(3.40426e-06 -1.39334e-06 9.72707e-07)
(3.40873e-06 -1.3962e-06 9.83143e-07)
(3.41328e-06 -1.3991e-06 9.67307e-07)
(3.41792e-06 -1.40202e-06 8.98887e-07)
(3.42264e-06 -1.40498e-06 8.31424e-07)
(3.42744e-06 -1.40797e-06 7.78018e-07)
(3.43231e-06 -1.41099e-06 7.17956e-07)
(3.43726e-06 -1.41403e-06 6.38073e-07)
(3.44229e-06 -1.4171e-06 5.61358e-07)
(3.44738e-06 -1.4202e-06 4.83718e-07)
(3.45254e-06 -1.42332e-06 4.13162e-07)
(3.45777e-06 -1.42646e-06 3.60058e-07)
(3.46307e-06 -1.42963e-06 3.0701e-07)
(3.46843e-06 -1.43281e-06 2.53559e-07)
(3.47385e-06 -1.43601e-06 2.07267e-07)
(3.92415e-06 -1.70919e-06 4.58136e-07)
(3.89036e-06 -1.68816e-06 4.55887e-07)
(3.85806e-06 -1.6681e-06 4.53707e-07)
(3.8272e-06 -1.64906e-06 4.5667e-07)
(3.79772e-06 -1.63095e-06 4.59644e-07)
(3.76955e-06 -1.61375e-06 4.62096e-07)
(3.74265e-06 -1.59741e-06 4.50212e-07)
(3.71695e-06 -1.58189e-06 4.40998e-07)
(3.69241e-06 -1.56715e-06 4.32043e-07)
(3.66897e-06 -1.55315e-06 4.27557e-07)
(3.64659e-06 -1.53987e-06 4.25405e-07)
(3.62523e-06 -1.52728e-06 4.23203e-07)
(3.60485e-06 -1.51533e-06 4.20962e-07)
(3.5854e-06 -1.504e-06 3.99878e-07)
(3.56685e-06 -1.49327e-06 3.53564e-07)
(3.54916e-06 -1.48311e-06 3.44899e-07)
(3.5323e-06 -1.4735e-06 3.40629e-07)
(3.51623e-06 -1.4644e-06 2.1489e-07)
(3.50094e-06 -1.45581e-06 1.5298e-07)
(3.48637e-06 -1.44769e-06 2.21844e-07)
(3.47252e-06 -1.44003e-06 4.50517e-07)
(3.45935e-06 -1.43281e-06 6.6785e-07)
(3.44683e-06 -1.42602e-06 8.78986e-07)
(3.43495e-06 -1.41962e-06 1.04789e-06)
(3.42367e-06 -1.41361e-06 1.21777e-06)
(3.41298e-06 -1.40798e-06 1.37068e-06)
(3.40286e-06 -1.4027e-06 1.36458e-06)
(3.39328e-06 -1.39776e-06 1.37571e-06)
(3.38423e-06 -1.39315e-06 1.36568e-06)
(3.37569e-06 -1.38886e-06 1.34806e-06)
(3.36763e-06 -1.38487e-06 1.32322e-06)
(3.36005e-06 -1.38118e-06 1.26355e-06)
(3.35292e-06 -1.37776e-06 1.26641e-06)
(3.34623e-06 -1.37461e-06 1.23923e-06)
(3.33997e-06 -1.37172e-06 1.21128e-06)
(3.33412e-06 -1.36908e-06 1.17873e-06)
(3.32867e-06 -1.36668e-06 1.14675e-06)
(3.3236e-06 -1.36451e-06 1.11926e-06)
(3.3189e-06 -1.36256e-06 1.09608e-06)
(3.31456e-06 -1.36082e-06 1.07186e-06)
(3.31057e-06 -1.35929e-06 1.04881e-06)
(3.30692e-06 -1.35795e-06 1.02981e-06)
(3.30359e-06 -1.35681e-06 1.01277e-06)
(3.30058e-06 -1.35585e-06 9.99172e-07)
(3.29787e-06 -1.35506e-06 9.76812e-07)
(3.29546e-06 -1.35445e-06 9.51357e-07)
(3.29333e-06 -1.354e-06 9.33907e-07)
(3.29148e-06 -1.3537e-06 9.2675e-07)
(3.2899e-06 -1.35356e-06 9.27893e-07)
(3.28858e-06 -1.35357e-06 9.4001e-07)
(3.28751e-06 -1.35371e-06 9.57237e-07)
(3.28669e-06 -1.35399e-06 9.79393e-07)
(3.2861e-06 -1.3544e-06 1.00628e-06)
(3.28574e-06 -1.35494e-06 1.02865e-06)
(3.28561e-06 -1.3556e-06 1.04959e-06)
(3.28569e-06 -1.35638e-06 1.07425e-06)
(3.28598e-06 -1.35727e-06 1.10229e-06)
(3.28648e-06 -1.35826e-06 1.13245e-06)
(3.28717e-06 -1.35937e-06 1.16123e-06)
(3.28805e-06 -1.36057e-06 1.19322e-06)
(3.28912e-06 -1.36187e-06 1.22833e-06)
(3.29038e-06 -1.36327e-06 1.26455e-06)
(3.2918e-06 -1.36475e-06 1.29778e-06)
(3.2934e-06 -1.36633e-06 1.33284e-06)
(3.29516e-06 -1.36798e-06 1.36957e-06)
(3.29709e-06 -1.36972e-06 1.40599e-06)
(3.29917e-06 -1.37154e-06 1.44391e-06)
(3.3014e-06 -1.37343e-06 1.48326e-06)
(3.30378e-06 -1.37539e-06 1.52399e-06)
(3.3063e-06 -1.37742e-06 1.56604e-06)
(3.30896e-06 -1.37952e-06 1.60935e-06)
(3.31176e-06 -1.38169e-06 1.65114e-06)
(3.31468e-06 -1.38392e-06 1.69148e-06)
(3.31774e-06 -1.3862e-06 1.73028e-06)
(3.32092e-06 -1.38855e-06 1.7596e-06)
(3.32422e-06 -1.39095e-06 1.78362e-06)
(3.32763e-06 -1.3934e-06 1.79274e-06)
(3.33117e-06 -1.39591e-06 1.80642e-06)
(3.33481e-06 -1.39846e-06 1.78815e-06)
(3.33856e-06 -1.40106e-06 1.76675e-06)
(3.34241e-06 -1.40371e-06 1.76005e-06)
(3.34637e-06 -1.4064e-06 1.75263e-06)
(3.35042e-06 -1.40913e-06 1.73658e-06)
(3.35457e-06 -1.4119e-06 1.71967e-06)
(3.35882e-06 -1.41472e-06 1.69254e-06)
(3.36315e-06 -1.41757e-06 1.74404e-06)
(3.36758e-06 -1.42045e-06 1.75651e-06)
(3.37209e-06 -1.42337e-06 1.73754e-06)
(3.37669e-06 -1.42632e-06 1.70944e-06)
(3.38136e-06 -1.42931e-06 1.67813e-06)
(3.38612e-06 -1.43232e-06 1.65191e-06)
(3.39095e-06 -1.43536e-06 1.61716e-06)
(3.39585e-06 -1.43843e-06 1.54685e-06)
(3.40083e-06 -1.44153e-06 1.46616e-06)
(3.40588e-06 -1.44465e-06 1.39504e-06)
(3.411e-06 -1.44779e-06 1.3233e-06)
(3.41618e-06 -1.45096e-06 1.2509e-06)
(3.42143e-06 -1.45414e-06 1.17826e-06)
(3.42674e-06 -1.45735e-06 1.10523e-06)
(3.43212e-06 -1.46057e-06 1.03817e-06)
(3.89082e-06 -1.72241e-06 3.29096e-07)
(3.85671e-06 -1.70186e-06 3.26325e-07)
(3.82413e-06 -1.68226e-06 3.28782e-07)
(3.79299e-06 -1.66365e-06 3.30748e-07)
(3.76324e-06 -1.64596e-06 3.37169e-07)
(3.73483e-06 -1.62916e-06 3.46924e-07)
(3.70768e-06 -1.61319e-06 3.56165e-07)
(3.68176e-06 -1.59804e-06 3.65051e-07)
(3.657e-06 -1.58364e-06 3.59406e-07)
(3.63335e-06 -1.56998e-06 3.56341e-07)
(3.61078e-06 -1.55701e-06 3.53275e-07)
(3.58923e-06 -1.54471e-06 3.50208e-07)
(3.56867e-06 -1.53305e-06 3.4715e-07)
(3.54905e-06 -1.522e-06 3.41412e-07)
(3.53033e-06 -1.51153e-06 3.19454e-07)
(3.51249e-06 -1.50162e-06 2.66573e-07)
(3.49548e-06 -1.49225e-06 3.04231e-07)
(3.47927e-06 -1.48338e-06 3.68627e-07)
(3.46384e-06 -1.475e-06 6.47994e-07)
(3.44915e-06 -1.4671e-06 8.81394e-07)
(3.43517e-06 -1.45964e-06 1.0964e-06)
(3.42188e-06 -1.45261e-06 1.31918e-06)
(3.40925e-06 -1.446e-06 1.56356e-06)
(3.39726e-06 -1.43978e-06 1.72979e-06)
(3.38588e-06 -1.43394e-06 1.80385e-06)
(3.37509e-06 -1.42847e-06 1.88668e-06)
(3.36487e-06 -1.42334e-06 1.93669e-06)
(3.3552e-06 -1.41855e-06 1.98423e-06)
(3.34605e-06 -1.41409e-06 2.0633e-06)
(3.33742e-06 -1.40993e-06 2.12459e-06)
(3.32928e-06 -1.40608e-06 2.11492e-06)
(3.32162e-06 -1.4025e-06 2.0732e-06)
(3.31441e-06 -1.39921e-06 2.02396e-06)
(3.30765e-06 -1.39617e-06 1.90649e-06)
(3.30132e-06 -1.3934e-06 1.77188e-06)
(3.29539e-06 -1.39086e-06 1.63337e-06)
(3.28987e-06 -1.38856e-06 1.53702e-06)
(3.28474e-06 -1.38649e-06 1.45127e-06)
(3.27998e-06 -1.38464e-06 1.37342e-06)
(3.27558e-06 -1.38299e-06 1.3032e-06)
(3.27153e-06 -1.38155e-06 1.22115e-06)
(3.26781e-06 -1.3803e-06 1.14427e-06)
(3.26443e-06 -1.37924e-06 1.07608e-06)
(3.26136e-06 -1.37836e-06 1.00557e-06)
(3.25859e-06 -1.37765e-06 9.41906e-07)
(3.25613e-06 -1.37711e-06 8.92562e-07)
(3.25395e-06 -1.37673e-06 8.47922e-07)
(3.25205e-06 -1.3765e-06 8.10175e-07)
(3.25041e-06 -1.37643e-06 7.79153e-07)
(3.24904e-06 -1.37649e-06 7.54646e-07)
(3.24793e-06 -1.3767e-06 7.36451e-07)
(3.24705e-06 -1.37704e-06 7.24381e-07)
(3.24642e-06 -1.37751e-06 7.18243e-07)
(3.24602e-06 -1.3781e-06 7.17868e-07)
(3.24584e-06 -1.37882e-06 7.23072e-07)
(3.24587e-06 -1.37964e-06 7.33702e-07)
(3.24612e-06 -1.38058e-06 7.49592e-07)
(3.24657e-06 -1.38163e-06 7.67463e-07)
(3.24722e-06 -1.38278e-06 7.97587e-07)
(3.24806e-06 -1.38403e-06 8.37357e-07)
(3.24909e-06 -1.38538e-06 8.82057e-07)
(3.2503e-06 -1.38682e-06 9.31905e-07)
(3.25168e-06 -1.38834e-06 1.00076e-06)
(3.25324e-06 -1.38996e-06 1.09626e-06)
(3.25496e-06 -1.39165e-06 1.19747e-06)
(3.25684e-06 -1.39343e-06 1.30419e-06)
(3.25888e-06 -1.39528e-06 1.41628e-06)
(3.26107e-06 -1.39721e-06 1.53355e-06)
(3.2634e-06 -1.39921e-06 1.65584e-06)
(3.26588e-06 -1.40128e-06 1.78087e-06)
(3.2685e-06 -1.40341e-06 1.87626e-06)
(3.27126e-06 -1.40561e-06 1.97482e-06)
(3.27414e-06 -1.40787e-06 2.07403e-06)
(3.27716e-06 -1.41019e-06 2.16892e-06)
(3.2803e-06 -1.41257e-06 2.25839e-06)
(3.28355e-06 -1.415e-06 2.34318e-06)
(3.28693e-06 -1.41748e-06 2.4155e-06)
(3.29042e-06 -1.42002e-06 2.47778e-06)
(3.29402e-06 -1.4226e-06 2.53105e-06)
(3.29773e-06 -1.42523e-06 2.58272e-06)
(3.30154e-06 -1.42791e-06 2.65011e-06)
(3.30546e-06 -1.43062e-06 2.7041e-06)
(3.30947e-06 -1.43338e-06 2.6863e-06)
(3.31358e-06 -1.43618e-06 2.67339e-06)
(3.31778e-06 -1.43902e-06 2.67082e-06)
(3.32207e-06 -1.4419e-06 2.73201e-06)
(3.32646e-06 -1.44481e-06 2.7941e-06)
(3.33092e-06 -1.44775e-06 2.78587e-06)
(3.33548e-06 -1.45073e-06 2.77682e-06)
(3.34011e-06 -1.45374e-06 2.74144e-06)
(3.34482e-06 -1.45678e-06 2.64726e-06)
(3.34961e-06 -1.45984e-06 2.55181e-06)
(3.35447e-06 -1.46294e-06 2.42247e-06)
(3.3594e-06 -1.46606e-06 2.26638e-06)
(3.36441e-06 -1.4692e-06 2.12133e-06)
(3.36948e-06 -1.47237e-06 1.9852e-06)
(3.37462e-06 -1.47556e-06 1.87312e-06)
(3.37982e-06 -1.47877e-06 1.76613e-06)
(3.38509e-06 -1.482e-06 1.68309e-06)
(3.39042e-06 -1.48524e-06 1.59059e-06)
(3.85726e-06 -1.73553e-06 2.69525e-07)
(3.82286e-06 -1.71548e-06 2.80997e-07)
(3.78999e-06 -1.69634e-06 2.91978e-07)
(3.75858e-06 -1.67818e-06 3.02326e-07)
(3.72859e-06 -1.66091e-06 3.12133e-07)
(3.69993e-06 -1.64452e-06 3.21411e-07)
(3.67256e-06 -1.62894e-06 3.30191e-07)
(3.64641e-06 -1.61415e-06 3.38496e-07)
(3.62144e-06 -1.6001e-06 3.46762e-07)
(3.5976e-06 -1.58677e-06 3.61614e-07)
(3.57484e-06 -1.57413e-06 3.75655e-07)
(3.55311e-06 -1.56214e-06 3.8892e-07)
(3.53238e-06 -1.55077e-06 4.0268e-07)
(3.51259e-06 -1.54e-06 4.49477e-07)
(3.49373e-06 -1.5298e-06 5.19926e-07)
(3.47573e-06 -1.52014e-06 5.47538e-07)
(3.45858e-06 -1.51101e-06 6.22984e-07)
(3.44224e-06 -1.50238e-06 6.95543e-07)
(3.42668e-06 -1.49422e-06 1.03523e-06)
(3.41186e-06 -1.48653e-06 1.36317e-06)
(3.39776e-06 -1.47928e-06 1.69866e-06)
(3.38436e-06 -1.47244e-06 1.99817e-06)
(3.37162e-06 -1.46602e-06 2.24061e-06)
(3.35952e-06 -1.45998e-06 2.46054e-06)
(3.34804e-06 -1.45431e-06 2.61857e-06)
(3.33715e-06 -1.449e-06 2.68165e-06)
(3.32684e-06 -1.44404e-06 2.71407e-06)
(3.31708e-06 -1.4394e-06 2.59084e-06)
(3.30785e-06 -1.43508e-06 2.4184e-06)
(3.29913e-06 -1.43106e-06 2.23247e-06)
(3.29091e-06 -1.42734e-06 2.05307e-06)
(3.28317e-06 -1.4239e-06 1.90928e-06)
(3.27589e-06 -1.42072e-06 1.77073e-06)
(3.26906e-06 -1.41781e-06 1.60613e-06)
(3.26265e-06 -1.41514e-06 1.45571e-06)
(3.25666e-06 -1.41272e-06 1.31753e-06)
(3.25108e-06 -1.41053e-06 1.17332e-06)
(3.24588e-06 -1.40855e-06 1.04293e-06)
(3.24106e-06 -1.4068e-06 9.25877e-07)
(3.2366e-06 -1.40525e-06 8.21695e-07)
(3.23249e-06 -1.40389e-06 7.29951e-07)
(3.22871e-06 -1.40273e-06 6.5019e-07)
(3.22527e-06 -1.40175e-06 5.82025e-07)
(3.22215e-06 -1.40095e-06 5.25019e-07)
(3.21933e-06 -1.40032e-06 4.78836e-07)
(3.21681e-06 -1.39985e-06 4.43058e-07)
(3.21458e-06 -1.39954e-06 4.17386e-07)
(3.21263e-06 -1.39939e-06 4.01447e-07)
(3.21095e-06 -1.39938e-06 3.94942e-07)
(3.20953e-06 -1.39951e-06 3.97338e-07)
(3.20836e-06 -1.39978e-06 4.04644e-07)
(3.20744e-06 -1.40018e-06 4.20663e-07)
(3.20676e-06 -1.40071e-06 4.45022e-07)
(3.20631e-06 -1.40136e-06 4.77535e-07)
(3.20609e-06 -1.40212e-06 5.17875e-07)
(3.20608e-06 -1.40301e-06 5.65816e-07)
(3.20628e-06 -1.404e-06 6.1772e-07)
(3.20669e-06 -1.40509e-06 6.75492e-07)
(3.2073e-06 -1.40629e-06 7.40207e-07)
(3.20809e-06 -1.40759e-06 8.1162e-07)
(3.20908e-06 -1.40898e-06 8.89517e-07)
(3.21025e-06 -1.41046e-06 9.73691e-07)
(3.21159e-06 -1.41203e-06 1.06394e-06)
(3.2131e-06 -1.41369e-06 1.16005e-06)
(3.21478e-06 -1.41542e-06 1.26184e-06)
(3.21662e-06 -1.41724e-06 1.36911e-06)
(3.21862e-06 -1.41913e-06 1.48171e-06)
(3.22077e-06 -1.4211e-06 1.59947e-06)
(3.22306e-06 -1.42313e-06 1.72221e-06)
(3.2255e-06 -1.42524e-06 1.84977e-06)
(3.22808e-06 -1.4274e-06 1.982e-06)
(3.23079e-06 -1.42964e-06 2.11876e-06)
(3.23364e-06 -1.43193e-06 2.25992e-06)
(3.23661e-06 -1.43428e-06 2.40532e-06)
(3.23971e-06 -1.43669e-06 2.56215e-06)
(3.24293e-06 -1.43915e-06 2.73063e-06)
(3.24626e-06 -1.44167e-06 2.86249e-06)
(3.24971e-06 -1.44423e-06 2.98489e-06)
(3.25327e-06 -1.44684e-06 3.1438e-06)
(3.25693e-06 -1.4495e-06 3.29617e-06)
(3.26071e-06 -1.4522e-06 3.39306e-06)
(3.26458e-06 -1.45495e-06 3.47609e-06)
(3.26855e-06 -1.45774e-06 3.55258e-06)
(3.27262e-06 -1.46056e-06 3.5921e-06)
(3.27677e-06 -1.46342e-06 3.59692e-06)
(3.28102e-06 -1.46632e-06 3.60649e-06)
(3.28537e-06 -1.46927e-06 3.56717e-06)
(3.2898e-06 -1.47224e-06 3.49258e-06)
(3.2943e-06 -1.47524e-06 3.37167e-06)
(3.29889e-06 -1.47827e-06 3.28365e-06)
(3.30356e-06 -1.48134e-06 3.19379e-06)
(3.3083e-06 -1.48443e-06 3.10284e-06)
(3.31312e-06 -1.48754e-06 3.01087e-06)
(3.31801e-06 -1.49069e-06 2.91794e-06)
(3.32297e-06 -1.49386e-06 2.81393e-06)
(3.328e-06 -1.49705e-06 2.66819e-06)
(3.33309e-06 -1.50026e-06 2.51364e-06)
(3.33825e-06 -1.50349e-06 2.34609e-06)
(3.34346e-06 -1.50675e-06 2.15676e-06)
(3.34875e-06 -1.51001e-06 1.98029e-06)
(3.82347e-06 -1.74855e-06 2.46704e-07)
(3.78879e-06 -1.729e-06 2.57586e-07)
(3.75565e-06 -1.71034e-06 2.68004e-07)
(3.72399e-06 -1.69263e-06 2.77812e-07)
(3.69375e-06 -1.6758e-06 2.87116e-07)
(3.66486e-06 -1.65982e-06 2.95908e-07)
(3.63727e-06 -1.64463e-06 3.04227e-07)
(3.61092e-06 -1.63022e-06 3.14246e-07)
(3.58575e-06 -1.61653e-06 3.25586e-07)
(3.56172e-06 -1.60354e-06 3.36369e-07)
(3.53878e-06 -1.59123e-06 3.52381e-07)
(3.51688e-06 -1.57955e-06 3.68776e-07)
(3.49598e-06 -1.56848e-06 3.84059e-07)
(3.47605e-06 -1.55799e-06 4.53333e-07)
(3.45703e-06 -1.54806e-06 5.75102e-07)
(3.43889e-06 -1.53866e-06 7.16602e-07)
(3.42161e-06 -1.52978e-06 9.74929e-07)
(3.40513e-06 -1.52138e-06 1.19975e-06)
(3.38945e-06 -1.51346e-06 1.50142e-06)
(3.37451e-06 -1.50598e-06 1.86256e-06)
(3.3603e-06 -1.49894e-06 2.21906e-06)
(3.34679e-06 -1.49231e-06 2.51666e-06)
(3.33394e-06 -1.48607e-06 2.75911e-06)
(3.32174e-06 -1.48021e-06 3.00382e-06)
(3.31017e-06 -1.47472e-06 3.0807e-06)
(3.29919e-06 -1.46958e-06 3.20368e-06)
(3.28878e-06 -1.46478e-06 3.15194e-06)
(3.27894e-06 -1.46029e-06 2.93989e-06)
(3.26963e-06 -1.45612e-06 2.70569e-06)
(3.26083e-06 -1.45225e-06 2.47436e-06)
(3.25253e-06 -1.44866e-06 2.23208e-06)
(3.24472e-06 -1.44535e-06 2.01186e-06)
(3.23737e-06 -1.4423e-06 1.80971e-06)
(3.23046e-06 -1.4395e-06 1.62347e-06)
(3.22399e-06 -1.43695e-06 1.45253e-06)
(3.21794e-06 -1.43464e-06 1.29635e-06)
(3.21229e-06 -1.43255e-06 1.1544e-06)
(3.20703e-06 -1.43069e-06 1.02617e-06)
(3.20214e-06 -1.42903e-06 9.11194e-07)
(3.19762e-06 -1.42757e-06 8.78851e-07)
(3.19346e-06 -1.42631e-06 8.85093e-07)
(3.18963e-06 -1.42523e-06 8.95637e-07)
(3.18613e-06 -1.42434e-06 9.35233e-07)
(3.18296e-06 -1.42362e-06 1.11289e-06)
(3.18009e-06 -1.42307e-06 1.34748e-06)
(3.17752e-06 -1.42268e-06 1.48218e-06)
(3.17524e-06 -1.42244e-06 1.59678e-06)
(3.17324e-06 -1.42235e-06 1.69655e-06)
(3.17151e-06 -1.42241e-06 1.78201e-06)
(3.17004e-06 -1.42261e-06 1.86741e-06)
(3.16883e-06 -1.42294e-06 1.94393e-06)
(3.16786e-06 -1.4234e-06 1.99544e-06)
(3.16714e-06 -1.42399e-06 2.011e-06)
(3.16664e-06 -1.4247e-06 2.00979e-06)
(3.16637e-06 -1.42552e-06 1.9924e-06)
(3.16632e-06 -1.42646e-06 1.96761e-06)
(3.16648e-06 -1.4275e-06 1.92992e-06)
(3.16685e-06 -1.42864e-06 1.87746e-06)
(3.16741e-06 -1.42989e-06 1.81065e-06)
(3.16816e-06 -1.43123e-06 1.86602e-06)
(3.16911e-06 -1.43267e-06 1.92303e-06)
(3.17023e-06 -1.4342e-06 1.96817e-06)
(3.17153e-06 -1.43581e-06 2.00677e-06)
(3.173e-06 -1.43751e-06 2.04443e-06)
(3.17464e-06 -1.43929e-06 2.08117e-06)
(3.17644e-06 -1.44114e-06 2.12115e-06)
(3.1784e-06 -1.44307e-06 2.16389e-06)
(3.18051e-06 -1.44507e-06 2.20344e-06)
(3.18276e-06 -1.44715e-06 2.2422e-06)
(3.18516e-06 -1.44928e-06 2.27974e-06)
(3.1877e-06 -1.45149e-06 2.31588e-06)
(3.19037e-06 -1.45375e-06 2.36011e-06)
(3.19317e-06 -1.45608e-06 2.45331e-06)
(3.19611e-06 -1.45846e-06 2.55054e-06)
(3.19916e-06 -1.4609e-06 2.64943e-06)
(3.20234e-06 -1.4634e-06 2.74991e-06)
(3.20563e-06 -1.46594e-06 2.86748e-06)
(3.20903e-06 -1.46854e-06 3.08214e-06)
(3.21254e-06 -1.47118e-06 3.26718e-06)
(3.21618e-06 -1.47387e-06 3.44128e-06)
(3.21992e-06 -1.4766e-06 3.57602e-06)
(3.22374e-06 -1.47937e-06 3.63021e-06)
(3.22767e-06 -1.48219e-06 3.64608e-06)
(3.23169e-06 -1.48505e-06 3.64925e-06)
(3.2358e-06 -1.48793e-06 3.64354e-06)
(3.24002e-06 -1.49085e-06 3.62839e-06)
(3.24433e-06 -1.49381e-06 3.58438e-06)
(3.24871e-06 -1.49681e-06 3.54584e-06)
(3.25317e-06 -1.49984e-06 3.44919e-06)
(3.25771e-06 -1.5029e-06 3.32088e-06)
(3.26234e-06 -1.50599e-06 3.2408e-06)
(3.26704e-06 -1.5091e-06 3.18636e-06)
(3.27181e-06 -1.51224e-06 3.12629e-06)
(3.27665e-06 -1.51541e-06 3.02151e-06)
(3.28157e-06 -1.5186e-06 2.85341e-06)
(3.28655e-06 -1.52182e-06 2.68387e-06)
(3.2916e-06 -1.52505e-06 2.51307e-06)
(3.29671e-06 -1.52831e-06 2.34091e-06)
(3.30188e-06 -1.53159e-06 2.16737e-06)
(3.30712e-06 -1.53488e-06 1.99338e-06)
(3.78947e-06 -1.76147e-06 2.23918e-07)
(3.75451e-06 -1.74244e-06 2.34204e-07)
(3.72112e-06 -1.72426e-06 2.44058e-07)
(3.68921e-06 -1.70702e-06 2.5564e-07)
(3.65874e-06 -1.69062e-06 2.69219e-07)
(3.62963e-06 -1.67506e-06 2.82135e-07)
(3.60184e-06 -1.66027e-06 2.94422e-07)
(3.57528e-06 -1.64624e-06 3.03886e-07)
(3.54993e-06 -1.63292e-06 3.24685e-07)
(3.52572e-06 -1.62028e-06 4.30257e-07)
(3.50261e-06 -1.6083e-06 5.31696e-07)
(3.48054e-06 -1.59693e-06 6.2564e-07)
(3.45949e-06 -1.58617e-06 7.15614e-07)
(3.4394e-06 -1.57597e-06 8.4186e-07)
(3.42024e-06 -1.56632e-06 9.66071e-07)
(3.40197e-06 -1.55719e-06 1.0851e-06)
(3.38456e-06 -1.54856e-06 1.25644e-06)
(3.36796e-06 -1.5404e-06 1.49279e-06)
(3.35216e-06 -1.53271e-06 1.90945e-06)
(3.33711e-06 -1.52545e-06 2.35175e-06)
(3.32279e-06 -1.51862e-06 2.70337e-06)
(3.30917e-06 -1.51219e-06 2.74307e-06)
(3.29623e-06 -1.50615e-06 2.72449e-06)
(3.28393e-06 -1.50048e-06 2.74389e-06)
(3.27226e-06 -1.49517e-06 2.81159e-06)
(3.2612e-06 -1.4902e-06 2.84772e-06)
(3.25071e-06 -1.48555e-06 2.88203e-06)
(3.24078e-06 -1.48123e-06 2.8416e-06)
(3.23139e-06 -1.47721e-06 2.59509e-06)
(3.22252e-06 -1.47348e-06 2.31693e-06)
(3.21415e-06 -1.47003e-06 2.07596e-06)
(3.20626e-06 -1.46685e-06 2.01053e-06)
(3.19884e-06 -1.46393e-06 1.97765e-06)
(3.19187e-06 -1.46125e-06 1.95065e-06)
(3.18533e-06 -1.45882e-06 1.93637e-06)
(3.17922e-06 -1.45662e-06 1.88782e-06)
(3.1735e-06 -1.45464e-06 1.84579e-06)
(3.16818e-06 -1.45288e-06 1.86108e-06)
(3.16324e-06 -1.45132e-06 1.89512e-06)
(3.15867e-06 -1.44996e-06 1.92337e-06)
(3.15445e-06 -1.44879e-06 1.95524e-06)
(3.15057e-06 -1.44781e-06 1.94791e-06)
(3.14702e-06 -1.447e-06 2.02691e-06)
(3.14379e-06 -1.44636e-06 2.10407e-06)
(3.14087e-06 -1.44589e-06 2.17951e-06)
(3.13825e-06 -1.44557e-06 2.21974e-06)
(3.13592e-06 -1.44541e-06 2.23931e-06)
(3.13387e-06 -1.4454e-06 2.26047e-06)
(3.1321e-06 -1.44552e-06 2.28316e-06)
(3.13059e-06 -1.44579e-06 2.30734e-06)
(3.12933e-06 -1.44618e-06 2.33293e-06)
(3.12832e-06 -1.44671e-06 2.35653e-06)
(3.12755e-06 -1.44735e-06 2.37529e-06)
(3.12701e-06 -1.44812e-06 2.39938e-06)