# Time Dx Dy Dz magD
1 0 -3.451361572265594e-07 -0.006178462161519438 0.006178462171159293
