# Time dispX dispY dispZ forceX forceY forceZ
0 0 0 0 0 0 0
1 1.067745267924367e-06 -8.155524330023565e-08 1.290445433606613e-05 100000.0204958064 -0.1256418488032572 -1.853012564208959e-11
