/*--------------------------------*- C++ -*----------------------------------*\
| =========                 |                                                 |
| \\      /  F ield         | foam-extend: Open Source CFD                    |
|  \\    /   O peration     | Version:     4.1                                |
|   \\  /    A nd           | Web:         http://www.foam-extend.org         |
|    \\/     M anipulation  |                                                 |
\*---------------------------------------------------------------------------*/
FoamFile
{
    version     2.0;
    format      ascii;
    class       volScalarField;
    location    "1";
    object      sigmaHyd;
}
// * * * * * * * * * * * * * * * * * * * * * * * * * * * * * * * * * * * * * //

dimensions      [1 -1 -2 0 0 0 0];

internalField   nonuniform List<scalar> 
100000
(
-47062.24962571423
-46941.80621134489
-46964.9869667563
-46914.80837901834
-46904.084804335
-46874.06772071639
-46855.26966974577
-46831.76207096405
-46811.77608822707
-46790.99475192145
-46771.59530665083
-46752.42574630109
-46734.02355059397
-46716.08111396723
-46698.72266527054
-46681.85015859325
-46665.46949660818
-46649.55518836224
-46634.08633173901
-46619.05762720486
-46604.42865623134
-46590.1978472713
-46576.34283207379
-46562.86052634972
-46549.72139159019
-46536.91971700451
-46524.44216897542
-46512.26725916961
-46500.39919672981
-46488.8131733922
-46477.50377405389
-46466.45848816319
-46455.66881239024
-46445.12340559037
-46434.81380811435
-46424.73655236153
-46414.8774577435
-46405.22572839667
-46395.78202886663
-46386.52784926396
-46377.47117300518
-46368.5883190647
-46359.88879116993
-46351.35356478006
-46342.98395624453
-46334.77067499237
-46326.70942106993
-46318.79478911513
-46311.02030011646
-46303.38130820847
-46295.87508799528
-46288.49313977551
-46281.23976858614
-46274.0947152946
-46267.06916436129
-46260.14769220307
-46253.33856242486
-46246.62792873051
-46240.01628286797
-46233.49600217888
-46227.07401602685
-46220.73354859615
-46214.47682860075
-46208.30495448867
-46202.21232121276
-46196.1947310969
-46190.24979510654
-46184.37500138023
-46178.56804332421
-46172.82623161776
-46167.15082715829
-46161.52738320609
-46155.96983682196
-46150.45782622953
-46145.01199024497
-46139.61475646707
-46134.26311567922
-46128.96489870554
-46123.70449505409
-46118.49491471133
-46113.32466030614
-46108.1979304496
-46103.11265597327
-46098.06233524507
-46093.05367016843
-46088.08092267368
-46083.15024393307
-46078.25473748791
-46073.40928091696
-46068.60924166806
-46063.89234766755
-46059.21280091746
-46054.75616627017
-46050.2621994213
-46046.51597039617
-46042.1823744271
-46040.82871718097
-46035.73876937741
-46043.5028111307
-46015.67419475529
-48766.84292717733
-48604.75036360005
-48599.04574884107
-48514.78256275077
-48474.05631160258
-48413.24890602768
-48365.33729142499
-48313.07788896679
-48265.34682173778
-48217.41376317203
-48171.66719523217
-48126.7850397346
-48083.3745996499
-48041.04562095727
-47999.92087570738
-47959.87855948755
-47920.91819235821
-47882.97146653874
-47846.02209620312
-47810.01147352553
-47774.93299497665
-47740.72460740011
-47707.36521590792
-47674.84029696934
-47643.09880457892
-47612.12134972287
-47581.88624372848
-47552.36086624832
-47523.5176855234
-47495.35069422811
-47467.81658794106
-47440.90467408642
-47414.59416660151
-47388.85946007528
-47363.68621216878
-47339.05954547073
-47314.94995426281
-47291.34965825854
-47268.24367509897
-47245.60718597421
-47223.44455868664
-47201.71171752083
-47180.41907833274
-47159.53924834963
-47139.072663931
-47118.99221437158
-47099.2898131814
-47079.96300321571
-47060.99304550952
-47042.368979461
-47024.08123593487
-47006.12021717504
-46988.47296889185
-46971.13501399318
-46954.09932993451
-46937.34951413803
-46920.8817987265
-46904.68210831158
-46888.75465132848
-46873.07810703497
-46857.65136414942
-46842.46998260913
-46827.52276536008
-46812.80355576822
-46798.30774687856
-46784.02679167459
-46769.95272402417
-46756.08649451469
-46742.41645325725
-46728.93880317649
-46715.65002732597
-46702.53703846827
-46689.60771120326
-46676.84612572369
-46664.25102078384
-46651.82380065086
-46639.54811253215
-46627.43311742591
-46615.45722283176
-46603.63893336018
-46591.9531171596
-46580.41302619121
-46569.00447533492
-46557.7310389759
-46546.59054498831
-46535.57159097368
-46524.69429610734
-46513.92700217212
-46503.30388745685
-46492.78942016599
-46482.46389628386
-46472.19699084243
-46462.28267053693
-46452.22599129606
-46443.15886829016
-46433.0224182923
-46426.44173446153
-46414.62738668821
-46416.99586900561
-46377.47133016147
-50470.61258413803
-50266.87346717581
-50232.30698175439
-50113.9667451444
-50043.25487174941
-49951.66196378887
-49874.65773705193
-49793.65232401073
-49718.1674172872
-49643.13092914148
-49571.04124708822
-49500.4757361503
-49432.0571956291
-49365.36165024835
-49300.49658241597
-49237.30116576645
-49175.77312295944
-49115.81439525481
-49057.38804420368
-49000.42959560492
-48944.90104034077
-48890.73831747568
-48837.89426104522
-48786.33528201291
-48736.00434617977
-48686.86886732635
-48638.88328067703
-48592.0177633268
-48546.22068872843
-48501.46872685089
-48457.71903028657
-48414.94743586086
-48373.11854214068
-48332.20336080987
-48292.17520677816
-48252.9924389617
-48214.64390373506
-48177.10228980077
-48140.33242711145
-48104.32423246482
-48069.04572154588
-48034.47552625155
-48000.60000957229
-47967.38067073639
-47934.81601629175
-47902.88055234746
-47871.54982352245
-47840.81689323831
-47810.65265142493
-47781.0483071159
-47751.98552530976
-47723.45199664322
-47695.4234446934
-47667.89959161767
-47640.85455404168
-47614.27800509107
-47588.15997783373
-47562.4830402953
-47537.24096038016
-47512.414734005
-47487.99502244817
-47463.97541135619
-47440.34167276541
-47417.07896692013
-47394.18369148605
-47371.64604441186
-47349.44967729201
-47327.59504053979
-47306.06557267625
-47284.85517710129
-47263.95686237246
-47243.36019026237
-47223.06053625554
-47203.04766512586
-47183.3144878653
-47163.85492115295
-47144.6615237763
-47125.72803134479
-47107.0487571311
-47088.61920588378
-47070.42883087462
-47052.47749183289
-47034.75801041781
-47017.27023549312
-47000.00229134489
-46982.95822046029
-46966.14016894076
-46949.53308640924
-46933.16754747064
-46916.99350277893
-46901.12829930818
-46885.36352830624
-46870.15901702663
-46854.65568040402
-46840.64614229574
-46824.64545456267
-46813.69797876899
-46793.83144341539
-46792.79361161782
-46737.01464448255
-52173.06505949201
-51927.75624591828
-51864.35085007798
-51711.97681615952
-51611.30620556482
-51488.95664445912
-51382.89494009021
-51273.17112563136
-51169.98451226513
-51067.84430749802
-50969.42782110452
-50873.20018060949
-50779.80454245527
-50688.74510682195
-50600.1592424773
-50513.82726193786
-50429.74402702918
-50347.78703854566
-50267.90448734527
-50190.00965795935
-50114.04403049811
-50039.93225038546
-49967.61834629726
-49897.03659834443
-49828.13356970361
-49760.85168585756
-49695.13542012913
-49630.92956544363
-49568.19379467324
-49506.87411718756
-49446.92869662915
-49388.31231802235
-49330.97839483606
-49274.89290320982
-49220.01760890152
-49166.30691490286
-49113.7364887295
-49062.26388716534
-49011.85554378203
-48962.47874625262
-48914.10546474582
-48866.70384845903
-48820.24967376194
-48774.70917768629
-48730.05495922542
-48686.26925256547
-48643.32121162895
-48601.18580471513
-48559.83952918198
-48519.26608606476
-48479.43725246371
-48440.33541654466
-48401.93889911558
-48364.22856890111
-48327.18546014826
-48290.79122145096
-48255.0269329654
-48219.87878225403
-48185.32800733553
-48151.35694889436
-48117.95214784946
-48085.09882592229
-48052.78127621968
-48020.98595378979
-47989.69887517259
-47958.90797788708
-47928.5979071325
-47898.75945244225
-47869.37823270822
-47840.44332720275
-47811.94370317286
-47783.86799160681
-47756.20496091955
-47728.94530204233
-47702.07857191828
-47675.59604796419
-47649.48751568203
-47623.74524292525
-47598.359642442
-47573.32450521494
-47548.62796701782
-47524.26748593298
-47500.23376773865
-47476.51927137671
-47453.12573684483
-47430.031159601
-47407.25701948108
-47384.77037395346
-47362.60778936498
-47340.69765488755
-47319.18475546708
-47297.79997891552
-47277.06396571883
-47255.9826773837
-47236.51945059207
-47214.84003830599
-47198.4697054472
-47172.59054904424
-47166.11361697661
-47103.32740810254
-53873.87111509665
-53586.9941073784
-53494.79297198858
-53308.4150498603
-53177.81885792334
-53024.74601955364
-52889.64050789159
-52751.23537952149
-52620.3404330768
-52491.15118558252
-52366.44278059406
-52244.58412357794
-52126.22726738666
-52010.85635520702
-51898.56066397356
-51789.13141752534
-51682.51248252994
-51578.59103549235
-51477.27273948873
-51378.4689592947
-51282.09173782881
-51188.06207199298
-51096.29417023452
-51006.72311388823
-50919.25960477828
-50833.84685968512
-50750.41507070675
-50668.89982995429
-50589.2341779506
-50511.36549382834
-50435.23639879368
-50360.7852842595
-50287.96814076554
-50216.72688993358
-50147.01632387791
-50078.78990386271
-50012.00165617525
-49946.60630292054
-49882.56624053486
-49819.83791143847
-49758.38193676709
-49698.16268580109
-49639.14227728797
-49581.28847691887
-49524.56334561154
-49468.93786249367
-49414.37943833051
-49360.85791616124
-49308.34311753212
-49256.80897046674
-49206.22608815324
-49156.56914329191
-49107.81221791595
-49059.93013079901
-49012.90048760889
-48966.69935061592
-48921.3030423734
-48876.69153525468
-48832.84527195298
-48789.74111670618
-48747.36076209793
-48705.68562022608
-48664.69683384855
-48624.37659036159
-48584.70699725169
-48545.67267582032
-48507.2563399661
-48469.44228682161
-48432.21604136985
-48395.56345237127
-48359.46844467102
-48323.9194093781
-48288.90183056769
-48254.40261405967
-48220.40855732085
-48186.91014504333
-48153.89157404535
-48121.34608787153
-48089.26134364141
-48057.62457486357
-48026.42926709433
-47995.66572115323
-47965.3225498386
-47935.39350375009
-47905.87121456594
-47876.74410502175
-47848.01683890825
-47819.66290402191
-47791.71621166331
-47764.09706220837
-47736.95071613896
-47709.98189250578
-47683.75755790427
-47657.15877394775
-47632.34383882672
-47605.0770844447
-47583.52577391438
-47551.72946915883
-47540.46040450103
-47470.96905562851
-55572.58237632658
-55244.22647865517
-55123.23723360965
-54902.9112059445
-54742.42706935578
-54558.6804879865
-54394.56928938215
-54227.51731617883
-54068.98905921437
-53912.75760516211
-53761.79649579168
-53614.32101048312
-53471.05308713268
-53331.37815530333
-53195.41409549594
-53062.90339682638
-52933.78919740945
-52807.91448590675
-52685.19156082256
-52565.4962027818
-52448.73597924189
-52334.80394666456
-52223.61066078044
-52115.06085790409
-52009.07248482494
-51905.55428312664
-51804.42673398172
-51705.62297444961
-51609.05498005127
-51514.66037223639
-51422.36608616044
-51332.10795624404
-51243.82351999246
-51157.45110819165
-51072.9306487573
-50990.20570683375
-50909.22329810543
-50829.93065857865
-50752.27653894643
-50676.21431114716
-50601.69481145667
-50528.67396905445
-50457.10707759495
-50386.95569121029
-50318.17419657771
-50250.72422533098
-50184.57198799678
-50119.6786041121
-50056.00959285386
-49993.52688410065
-49932.20172435488
-49872.00186650069
-49812.89715207001
-49754.85668730025
-49697.84796059324
-49641.85250466262
-49586.83313837142
-49532.77226312759
-49479.63636630109
-49427.41135298923
-49376.06270344591
-49325.57873352853
-49275.92388187108
-49227.08954064539
-49179.04446372318
-49131.77697645091
-49085.26680889867
-49039.4887601878
-48994.42952304839
-48950.06649969087
-48906.38815301828
-48863.37388382938
-48821.01037507749
-48779.2834665787
-48738.16973351749
-48697.66395295392
-48657.74674187269
-48618.40381388032
-48579.62599659834
-48541.39806276929
-48503.70705964309
-48466.54348323269
-48429.89797869225
-48393.74936850429
-48358.10237680133
-48322.93173232411
-48288.24874408968
-48254.01437827743
-48220.26702167158
-48186.91457510821
-48154.11585385682
-48121.54085238513
-48089.7925912155
-48057.68502225484
-48027.47068257495
-47994.75167291025
-47967.96850938642
-47930.72379182049
-47914.58845544347
-47839.3939411606
-57268.74596689071
-56898.98051343352
-56749.28605077729
-56495.04479972716
-56304.73567504679
-56090.33837996236
-55897.28649170487
-55701.62881862881
-55515.4961474901
-55332.26557736082
-55155.09576045039
-54982.06320806959
-54813.90169872023
-54649.98524915202
-54490.3855098744
-54334.83164335933
-54183.25082470902
-54035.47232020391
-53891.37492601473
-53750.82953441812
-53613.71522279971
-53479.91934178516
-53349.3268229908
-53221.83601232917
-53097.34078411852
-52975.7477095323
-52856.9572092833
-52740.88439254696
-52627.43983108371
-52516.54014629203
-52408.10758891008
-52302.06267361576
-52198.33251040612
-52096.8452402348
-51997.53434842043
-51900.33118478449
-51805.17336529958
-51712.00086910171
-51620.75399093341
-51531.37324607398
-51443.80836905128
-51358.00392227081
-51273.90806242337
-51191.47512154127
-51110.65532038127
-51031.40244699614
-50953.67480829734
-50877.42303326383
-50802.61632690697
-50729.20369489846
-50657.1569485492
-50586.43097662158
-50516.99594697226
-50448.81124480252
-50381.844151748
-50316.06745582972
-50251.4446387953
-50187.94870892936
-50125.54469882018
-50064.21000179006
-50003.91192257183
-49944.62853927049
-49886.32800871968
-49828.99143727845
-49772.59095148775
-49717.10135973426
-49662.50369338576
-49608.77306176139
-49555.89200067164
-49503.8329162704
-49452.58167564293
-49402.11474453941
-49352.41438856638
-49303.46442998994
-49255.24520749745
-49207.7366820219
-49160.92888800536
-49114.80059076313
-49069.33587934609
-49024.52520702397
-48980.34818303293
-48936.79304889047
-48893.84722689307
-48851.49648487745
-48809.72794812863
-48768.5263183354
-48727.89348901651
-48687.79468959253
-48648.25935903373
-48609.19027347127
-48570.75103617557
-48532.59629855645
-48495.34728939588
-48457.77695720836
-48422.20186924806
-48384.09935777224
-48352.14197885546
-48309.52750547462
-48288.58768936167
-48207.78228508399
-58962.03463366785
-58550.91878528894
-58372.54959566045
-58084.46512427567
-57864.36558877971
-57619.39869564949
-57397.45552828977
-57173.2411237359
-56959.54930258455
-56749.37947720077
-56546.0354465551
-56347.48610145401
-56154.48524082895
-55966.34697642428
-55783.16261788598
-55604.60760540765
-55430.6023213867
-55260.94622000305
-55095.51372101211
-54934.14878194255
-54776.71922161383
-54623.0878153119
-54473.13368582508
-54326.73141564333
-54183.76698558253
-54044.12877125959
-53907.70526290828
-53774.39884982307
-53644.10574431292
-53516.73547847088
-53392.19260581354
-53270.39143088886
-53151.24548031721
-53034.67564604608
-52920.60091892499
-52808.94850967631
-52699.64374502533
-52592.61807719531
-52487.80200964556
-52385.13274931741
-52284.54536182067
-52185.98081666834
-52089.38179962027
-51994.6891264524
-51901.85180302163
-51810.81502400579
-51721.52813943953
-51633.94442609406
-51548.01465739644
-51463.69441937272
-51380.93856447191
-51299.70566796346
-51219.95362123734
-51141.64350970087
-51064.73464961658
-50989.19294856551
-50914.97757103889
-50842.05966808907
-50770.4010439548
-50699.97034386019
-50630.73678637303
-50562.66892488651
-50495.73589290577
-50429.90876583464
-50365.16185586907
-50301.46814273385
-50238.79950735728
-50177.13122692257
-50116.43881719287
-50056.69654439179
-49997.88452320533
-49939.97853726234
-49882.95678418322
-49826.7994515491
-49771.48372781785
-49716.99213014603
-49663.30269826057
-49610.39982203546
-49558.26295982291
-49506.87655574042
-49456.22225720665
-49406.28539104317
-49357.0489442812
-49308.49758994767
-49260.61796910792
-49213.3906945811
-49166.81254673503
-49120.84758281723
-49075.52826194868
-49030.74892005201
-48986.6727645456
-48942.94941734838
-48900.20685703554
-48857.19287532385
-48816.27776329779
-48772.84061640607
-48735.73506750292
-48687.83931113818
-48662.10179155965
-48575.81252263575
-60651.98260326374
-60199.59607132633
-59992.62374884616
-59670.75649930313
-59420.94500414043
-59145.45220936898
-58894.67378820129
-58641.96443245322
-58400.77074332971
-58163.71619995479
-57934.25923795639
-57710.24266112115
-57492.45612892671
-57280.15587800068
-57073.4221471452
-56871.91963370521
-56675.53439968621
-56484.05614275389
-56297.33135262133
-56115.19270803715
-55937.48578030214
-55764.06570358326
-55594.78568306885
-55429.51365122446
-55268.11495900537
-55110.46623988014
-54956.4450508083
-54805.93814200141
-54658.82994023673
-54515.01852708686
-54374.39767439649
-54236.8691040087
-54102.3356690627
-53970.71089215369
-53841.90090637965
-53715.82389815005
-53592.39773429572
-53471.54324252733
-53353.18510399561
-53237.24898783174
-53123.6661769939
-53012.36563023074
-52903.28369223688
-52796.3596825573
-52691.52544621774
-52588.73060789415
-52487.91346254265
-52389.01328384199
-52291.99012696987
-52196.78057631566
-52103.34046863619
-52011.62072939409
-51921.57974536932
-51833.1631851731
-51746.33335895757
-51661.04632651573
-51577.26260132726
-51494.94742710422
-51414.05368485453
-51334.5517592337
-51256.39992351434
-51179.56333776704
-51104.01760924058
-51029.7225563834
-50956.65044265916
-50884.76422874996
-50814.04094086852
-50744.44917387479
-50675.96439088624
-50608.55170183554
-50542.19549000101
-50476.86172607672
-50412.53157867315
-50349.17835760913
-50286.7785809825
-50225.30919032395
-50164.75718945213
-50105.08914847241
-50046.28680374579
-49988.343438077
-49931.22306617556
-49874.91457023175
-49819.39977311153
-49764.66096736583
-49710.68347056431
-49657.43903015337
-49604.93182530189
-49553.11743415667
-49502.02710297598
-49451.5531450514
-49401.86006907419
-49352.58472881561
-49304.37306296576
-49255.94307882621
-49209.70859096783
-49160.96888077074
-49118.73650188858
-49065.59057858645
-49035.05286596966
-48943.33775790904
-62338.18029552836
-61844.63101232373
-61609.11260537287
-61253.56902734024
-60974.08781546743
-60668.15617220292
-60388.59861904808
-60107.46289645768
-59838.83509572906
-59574.95333655545
-59319.43946055682
-59070.01674127134
-58827.49205820639
-58591.08810275668
-58360.86415218774
-58136.4592875511
-57917.7432237769
-57704.48323415696
-57496.5161038254
-57293.64548253659
-57095.71149137514
-56902.54140541207
-56713.98295341662
-56529.87977520337
-56350.09143833575
-56174.47398388231
-56002.89592555114
-55835.22741918302
-55671.34235959938
-55511.13074848054
-55354.4668271498
-55201.25121519477
-55051.36575833402
-54904.7237693609
-54761.21452263719
-54620.75032727634
-54483.23286681067
-54348.58824726513
-54216.71665345151
-54087.54739179769
-53960.99639848969
-53836.98927026129
-53715.45804522146
-53596.32800774802
-53479.5287123946
-53364.99670322143
-53252.66506696534
-53142.48510318223
-53034.38664095859
-52928.31454738737
-52824.21580062599
-52722.03123462538
-52621.71620186275
-52523.21388709992
-52426.48696579725
-52331.47026939435
-52238.14935227757
-52146.44288413669
-52056.33580097316
-51967.77617497705
-51880.72034790251
-51795.14515443349
-51710.9957908835
-51628.25510299241
-51546.8650393011
-51466.80582238142
-51388.04675159479
-51310.5499316159
-51234.28467619773
-51159.22653987561
-51085.34038097761
-51012.59330041504
-50940.97728765949
-50870.44510773437
-50800.97738514929
-50732.55466918627
-50665.14411140666
-50598.73055435124
-50533.28417069632
-50468.79060309935
-50405.21645773867
-50342.55491222003
-50280.77255193843
-50219.85790767221
-50159.78893573523
-50100.54386252627
-50042.11596508987
-49984.4637881451
-49927.61335914418
-49871.45741883358
-49816.15696833005
-49761.34870198263
-49707.68217232993
-49653.8565814044
-49602.32392019226
-49548.30963246008
-49500.96263016374
-49442.60552226225
-49407.26161989586
-49310.1908243265
-64020.24767577428
-63485.62955378919
-63221.64967582996
-62832.47825717958
-62523.41813544144
-62187.11667721184
-61878.8683306693
-61569.36719311466
-61273.37030793378
-60982.72858480929
-60701.22794134171
-60426.46164955522
-60159.26923520572
-59898.81818278297
-59645.16255808128
-59397.91295293013
-59156.92774881192
-58921.94743243483
-58692.78860550209
-58469.24446416397
-58251.13217756292
-58038.26540000818
-57830.47224772581
-57627.59007630189
-57429.45560844483
-57235.91313096932
-57046.81937196019
-56862.0362320573
-56681.41110757452
-56504.84943744966
-56332.17456296417
-56163.31251869334
-55998.10364176457
-55836.47667416099
-55678.30088507415
-55523.48690962428
-55371.91211560035
-55223.50404142057
-55078.15853693664
-54935.78121273168
-54796.29453588778
-54659.6223307644
-54525.66754311345
-54394.35241998514
-54265.62493743405
-54139.3843003224
-54015.57742000766
-53894.14033996127
-53774.99601394604
-53658.08094846739
-53543.3486683755
-53430.72850332239
-53320.16565998438
-53211.6132775822
-53105.00547843266
-53000.30481515953
-52897.44994663807
-52796.38986270419
-52697.09275417457
-52599.49962405509
-52503.57210814975
-52409.27678537238
-52316.55258847882
-52225.37507664818
-52135.69987595057
-52047.49244380886
-51960.71644080744
-51875.33320284544
-51791.3118110994
-51708.61793662726
-51627.22005417447
-51547.08320396304
-51468.18723290536
-51390.49174227962
-51313.97612656218
-51238.60918890873
-51164.36247777023
-51091.21604455699
-51019.13889606734
-50948.10785302969
-50878.10073500666
-50809.09393996862
-50741.06434164759
-50673.98876414874
-50607.8470521221
-50542.61726174157
-50478.2851295427
-50414.80989339692
-50352.21904073998
-50290.39744184355
-50229.51133656069
-50169.18641781015
-50110.08567544464
-50050.88153332801
-49994.07165074735
-49934.79806014048
-49882.3598813459
-49818.7938985161
-49778.66427523077
-49676.26323346327
-65697.74529908173
-65122.18691419876
-64829.81069640219
-64407.1171502381
-64068.57002413709
-63701.98008098568
-63365.10199858702
-63027.33691609833
-62704.03923019776
-62386.72301337864
-62079.29924522043
-61779.26112117647
-61487.46293958774
-61203.03079203536
-60926.00962200749
-60655.97766631066
-60392.77929304155
-60136.13357195749
-59885.84239771121
-59641.67942144636
-59403.44125637501
-59170.93183421384
-58943.9607728222
-58722.34785590546
-58505.91679193766
-58294.50317383598
-58087.94932038763
-57886.08963175281
-57688.78940127634
-57495.89350415958
-57307.26480743026
-57122.79741503138
-56942.32851234575
-56765.75844713531
-56592.959953463
-56423.82330711994
-56258.24345465812
-56096.10517267891
-55937.31897453014
-55781.78098748814
-55629.3928278231
-55480.08311213063
-55333.73482492171
-55190.28352998917
-55049.64321523836
-54911.73720948858
-54776.48792778284
-54643.81586791429
-54513.65598987432
-54385.93476649794
-54260.59969880109
-54137.57061136539
-54016.79401167414
-53898.20646191984
-53781.75230170903
-53667.3717578338
-53555.01341879799
-53444.62653028663
-53336.15700434453
-53229.55751321829
-53124.77762834679
-53021.77440276484
-52920.50116328078
-52820.91318970417
-52722.97213163379
-52626.63484455608
-52531.86090497801
-52438.61406933574
-52346.85554937078
-52256.54987573468
-52167.6628571615
-52080.16027689027
-51994.00410452475
-51909.17011050169
-51825.62251520059
-51743.33366340838
-51662.27159828503
-51582.40994991214
-51503.71977402188
-51426.17371339689
-51349.74814112929
-51274.41398543209
-51200.1501867185
-51126.93050007509
-51054.73270331792
-50983.5298929479
-50913.30974731389
-50844.02791219015
-50775.7093616631
-50708.24066157739
-50641.78238783144
-50575.96009034474
-50511.43977187182
-50446.8790339609
-50384.80641836197
-50320.29513511278
-50262.78070011549
-50194.03360156276
-50149.12071950626
-50041.42948600545
-67370.29544272662
-66753.89393384744
-66433.21309774129
-65977.1151649072
-65609.15581734326
-65212.36989593247
-64846.95759950708
-64481.00783088327
-64130.49415174045
-63786.56441757391
-63453.30666533623
-63128.06624885062
-62811.74625854785
-62503.40662855344
-62203.0913643995
-61910.34459561254
-61625.00406034665
-61346.76278729062
-61075.40401372388
-60810.68107765109
-60552.38352679741
-60300.2878162838
-60054.19799496189
-59813.90863046722
-59579.23633008816
-59350.0060279152
-59126.03217218539
-58907.15016413184
-58693.2112439987
-58484.04381784601
-58279.51825980915
-58079.47290434933
-57883.78110085172
-57692.31489726126
-57504.93826238747
-57321.52933083477
-57141.97541756235
-56966.15897004079
-56793.96913268402
-56625.30761938296
-56460.06092087108
-56298.13990672573
-56139.44379519333
-55983.88973744235
-55831.37819099598
-55681.83276436503
-55535.16791800811
-55391.30113050374
-55250.15844662244
-55111.66970157601
-54975.75675173401
-54842.35337248957
-54711.39120739236
-54582.80208418001
-54456.53229779356
-54332.50922972566
-54210.68265698374
-54090.99451005115
-53973.38448854601
-53857.80463163488
-53744.20184753923
-53632.52505772439
-53522.72512860565
-53414.75742431266
-53308.57455152439
-53204.13112462377
-53101.38555547257
-53000.29645782535
-52900.82382978625
-52802.92743231013
-52706.57000442872
-52611.71516563026
-52518.32547914001
-52426.3684664934
-52335.80905438028
-52246.61460738476
-52158.75414131727
-52072.19574864014
-51986.91021637818
-51902.86851476008
-51820.04156673396
-51738.40178379529
-51657.92263473538
-51578.57679610843
-51500.34158491848
-51423.18540667828
-51347.09784480681
-51272.02850772472
-51198.00469412786
-51124.9047211722
-51052.89780987126
-50981.59538244797
-50911.67805920961
-50841.77869865861
-50774.46313518516
-50704.73666790676
-50642.15684192885
-50568.25835999646
-50518.55994948462
-50405.6586334342
-69037.46611942571
-68380.38396313347
-68031.48686537721
-67542.07926674216
-67144.80611223521
-66717.92826015137
-66324.07502097497
-65930.00876900322
-65552.39330317458
-65181.9438814766
-64822.92507139286
-64472.57309571142
-64131.80021878767
-63799.63090346475
-63476.08785136948
-63160.70737916029
-62853.29447986963
-62553.52373916945
-62261.16503230974
-61975.95315193047
-61697.65797172573
-61426.0399061309
-61160.892666332
-60901.99339397476
-60649.14140971576
-60402.14398997935
-60160.81181615758
-59924.97057823904
-59694.44512701157
-59469.0669774296
-59248.67979605127
-59033.12168066507
-58822.26214226321
-58615.9442194586
-58414.03239908447
-58216.40017524923
-58022.91699059132
-57833.46208353333
-57647.91674047268
-57466.16876608116
-57288.1047492267
-57113.62240991944
-56942.61917714617
-56774.99510128742
-56610.65793115601
-56449.51056648097
-56291.46727430313
-56136.44606902033
-55984.36052688202
-55835.1301331455
-55688.67473838929
-55544.92390093557
-55403.80888688778
-55265.25402675733
-55129.19078485024
-54995.5574940395
-54864.28964359487
-54735.32425877175
-54608.60529904273
-54484.0702290416
-54361.66806555484
-54241.34231734882
-54123.04259663462
-54006.71683787125
-53892.31649962474
-53779.79315604638
-53669.10182490656
-53560.19694031933
-53453.0346815099
-53347.57397847805
-53243.77310269575
-53141.59267548112
-53040.99309638018
-52941.93915416612
-52844.39218409618
-52748.31833906809
-52653.68142005364
-52560.45164086461
-52468.59190376668
-52378.07357585092
-52288.86687439415
-52200.94032359021
-52114.26519914883
-52028.81293066389
-51944.55727981341
-51861.46810884617
-51779.52926811799
-51698.69098311896
-51618.97742853587
-51540.26845990976
-51462.72648394175
-51385.96626471562
-51310.66594978394
-51235.45004334058
-51162.90628459876
-51087.98636530933
-51020.35327220425
-50941.33174037149
-50886.84738484456
-50768.79850897447
-70698.87308626353
-70001.239394609
-69624.22184324359
-69101.62060131959
-68675.14520387203
-68218.27062935599
-67796.08050754138
-67374.00757765508
-66969.36112172394
-66572.49187526433
-66187.80895484705
-65812.43139580516
-65447.29878027408
-65091.37993418997
-64744.7037730641
-64406.7627952248
-64077.35403606216
-63756.13198730261
-63442.84661541037
-63137.21738118989
-62838.99023757111
-62547.92480667085
-62263.77920343566
-61986.33097258421
-61715.36616569824
-61450.66537111426
-61192.03873920921
-60939.2954841211
-60692.2398961439
-60450.70373303926
-60214.5120285224
-59983.50318544191
-59757.51697618499
-59536.39990659239
-59320.00811313558
-59108.1994652637
-58900.83824348472
-58697.79261466269
-58498.93766862874
-58304.14941572783
-58113.3123457633
-57926.31235495957
-57743.03992993453
-57563.3906816403
-57387.26211160534
-57214.55584621429
-57045.17713709393
-56879.03508309924
-56716.03907656464
-56556.1056028098
-56399.15083554944
-56245.0947594669
-56093.85923443648
-55945.37084431793
-55799.55638983154
-55656.34532234843
-55515.67032986869
-55377.46608161602
-55241.66786406715
-55108.21527247492
-54977.04716442543
-54848.1072205729
-54721.33763175541
-54596.68575879197
-54474.09837256157
-54353.52448215285
-54234.91288561345
-54118.218460768
-54003.392834769
-53890.39099173812
-53779.17061665692
-53669.68599501481
-53561.89878126703
-53455.76813703335
-53351.25593748249
-53248.32175408291
-53146.93249177319
-53047.05018844064
-52948.63815738069
-52851.66695224189
-52756.1029310138
-52661.90930765679
-52569.06101430385
-52477.52477903473
-52387.27370271972
-52298.2722845635
-52210.50325877823
-52123.91765314624
-52038.53634833472
-51954.23941701578
-51871.18573270298
-51788.98470824393
-51708.3274243962
-51627.81282879598
-51550.06458549101
-51469.97152509398
-51397.30266674169
-51313.18248553462
-51253.91267356541
-51130.77862440227
-72354.09985951956
-71616.06922815203
-71211.04915754644
-70655.38425844937
-70199.80038116718
-69713.05800814602
-69262.6197458424
-68812.65784231486
-68381.08426457414
-67957.89641743318
-67547.63979389478
-67147.32953454318
-66757.92074094522
-66378.34742104466
-66008.61761587055
-65648.20339840867
-65296.8804530356
-64954.28737599826
-64620.15565445191
-64294.18162808632
-63976.10275994056
-63665.66044793472
-63362.59215478344
-63066.66679864864
-62777.65016051276
-62495.31896226084
-62219.46207737069
-61949.8731830047
-61686.35531227577
-61428.72156207963
-61176.78759360658
-60930.3774240822
-60689.3257277357
-60453.46754186379
-60222.64800035254
-59996.71641688852
-59775.5277048912
-59558.94218676725
-59346.82603655629
-59139.05060379622
-58935.48577221225
-58736.01787775106
-58540.52431011158