/*--------------------------------*- C++ -*----------------------------------*\
| =========                 |                                                 |
| \\      /  F ield         | foam-extend: Open Source CFD                    |
|  \\    /   O peration     | Version:     4.1                                |
|   \\  /    A nd           | Web:         http://www.foam-extend.org         |
|    \\/     M anipulation  |                                                 |
\*---------------------------------------------------------------------------*/
FoamFile
{
    version     2.0;
    format      ascii;
    class       volScalarField;
    location    "1";
    object      sigmaEq;
}
// * * * * * * * * * * * * * * * * * * * * * * * * * * * * * * * * * * * * * //

dimensions      [1 -1 -2 0 0 0 0];

internalField   nonuniform List<scalar> 
100000
(
32333185173.83967
51598150406.49111
46705791973.40392
19248851016.6318
28571531927.49835
30229186474.22729
18669743451.73346
35200121516.41892
33152107329.31085
21720342248.65284
21134299384.49018
23836464091.52015
24399554999.29357
22305756843.45286
21415058046.10648
20089693318.6174
19344218044.8457
18103958487.5993
17929528431.52174
18013241403.59386
17812974929.19389
17524070946.37108
17618985641.00131
17684410560.87133
17743752461.81377
17750535518.10841
17823602300.04108
17914048727.00314
18002530725.40484
18028734651.30278
17910734158.10281
17699952937.1498
17561705010.54696
17533351124.66273
17504149400.07673
17503628756.68952
17530880958.38148
17596135391.49081
17731941102.19725
17995171831.33395
18552019110.15827
19189731364.69447
19794991855.37372
19850840747.47431
19924516642.85082
19611770202.81124
19219733609.95231
18790525079.89505
18627512668.70338
18575986609.62094
18604605381.60558
18640312347.8985
18671998556.97264
18701711575.97579
18726650442.0487
18750648688.88426
18769400040.34166
18786610108.00253
18800624200.66531
18811448823.12501
18871755523.01258
18880518632.73111
18883280775.17319
18857083969.06066
18815118843.66914
18770845826.18624
18724646536.83362
18678495362.83499
18631713869.53785
18585986548.01774
18540244605.43246
18495765601.11921
18453163476.89815
18411265486.82524
18367067261.21908
18362954385.84269
18347816320.64005
18347988140.84803
18349810425.54194
18319187874.59516
18291326956.22672
18263863191.93957
18247390737.65074
18250164858.10955
18152687752.20653
18020374389.75491
17908257413.32215
17801740260.42212
17642297931.23611
17061315087.70047
16446083082.17511
16140048460.97509
15912383552.05421
15675534238.4631
15037520129.70716
14238758435.02275
13415925738.41848
12619677953.12373
12155781857.35892
12043970254.83587
26305949970.743
48709769227.4933
40083146281.29794
23718276004.59629
19942862862.32971
28503910276.0145
11270972273.88298
26470002071.28724
37789531551.28506
19903231112.18695
22399440307.686
21234132114.73012
19361411157.72559
20502084353.7404
20427856478.05581
19448242647.14008
18364369827.13403
17935566826.49893
18029865388.5118
18462090799.81796
18580091508.30664
18519211293.34775
18472820354.46957
18405090073.05688
18319273549.36723
18302733781.96705
18385379512.42261
18410046180.7039
18470503515.96796
18533653325.30368
18388686018.7853
18304965083.93822
18378389405.73581
18444596774.85352
18500627320.12085
18637139206.26479
18763774891.37844
18866681610.43329
18961965340.78082
19012813444.219
19132058136.94979
19561063191.47246
20343224769.16678
21026404059.4487
21630875284.02132
21854265567.14571
21776633904.15512
21675499788.75949
21485204535.22649
21208004314.69325
20926001986.4502
20679222759.61039
20511692505.12685
20353384634.42418
20197575986.71873
20050125429.27089
19906544027.4929
19737237177.24631
19534990072.61018
19371027327.83919
19274862241.02606
19165398188.02884
18999069374.8579
18823091209.12127
18668801664.37694
18479394962.88153
18251664320.10163
18035928032.02877
17831927155.6237
17638735145.87161
17457039493.72043
17286454562.32984
17126955102.08323
16889587414.33609
16641738121.98669
16413571394.35711
16171823173.01872
15940168448.99631
15718106719.16494
15505386822.28836
15305585485.821
15115789691.09412
14928087560.33487
14728973398.33967
14540018903.8209
14382019530.94467
14244411335.82042
14129513240.78314
14038654526.80758
13960381018.31929
13878596932.00857
14096303260.41107
14320467283.1782
14475868837.31117
14489353338.00259
14659375605.65509
14955527881.1324
15061293289.41759
14886607575.28345
14322700573.32575
31563641806.99216
50438648860.23645
35531346848.84981
29776734664.47912
5038124573.592053
28174487356.22375
9231335840.418194
21642540919.58037
38950399735.77561
29220626926.3241
20043471527.82847
20894057102.01786
18338068585.20937
17745954293.36954
18642863337.76237
19501446793.61404
18137245378.22647
17379167141.99917
17116149377.28854
17392341954.4178
17848646717.10285
17926708207.04031
17989226964.31066
18075109920.71413
18124840039.64343
18218282679.00552
18276775224.78714
18292672751.10833
18342737337.70956
18356335993.21995
18419359948.00297
18446989134.44623
18508420315.56752
18954825459.17786
19362217319.62032
19465864488.46579
19490657627.07068
19448102646.28735
19358716015.62405
19269181398.93573
19128678478.31382
19051228807.6938
18907808369.40269
19101596496.54997
19395359559.40597
19734866493.12291
19748533172.46335
19594390603.62699
19188336286.55101
18699002587.68599
18126211157.53624
17506270743.80928
16913439710.3296
16378045971.37955
15904098700.07568
15399104894.51268
14912394216.47134
14450056876.27512
14009379933.79543
13583271910.24703
13172071474.80375
12947825716.36422
12708388224.84516
12377588073.9246
12014252019.58378
11678212012.21933
11355763227.41614
11043124115.74892
10744953298.84472
10459667480.4476
10188074797.90484
9929770654.612141
9692232805.466637
9470202959.61257
9237426549.093128
9001846666.209236
8782772715.2276
8573022850.255303
8372182936.265589
8179818474.064495
7995202270.2809
7821761844.343775
7650675353.504418
7457788479.99875
6966740121.762259
6024054308.362533
5098784632.755539
4196760678.527825
3326934345.964478
2556316682.685561
1808160135.61162
1387377475.679016
1502599030.510246
1367648647.475875
1462103387.632973
1659269038.977911
1492441647.008668
1271800544.67979
1735433346.131759
6189311311.751665
36782546533.69855
51842330334.78876
32012958525.85559
28958560417.0352
9873431322.757696
24408429043.75594
12394490738.39809
20318193113.17933
38108669338.5473
36803062437.10084
18077022489.78785
11747424601.43891
19090704130.89922
15107106207.70164
14999321612.56136
15618816390.40899
15457943882.4059
14828580601.89692
14518656076.62784
14959513651.31652
15594989698.16161
15635072200.87515
15471355537.00758
15320199362.59348
15130735485.22969
14872992592.0631
14520700772.22434
14322118198.61925
14237962078.87906
14153019512.43839
14256140801.40242
14264810823.07267
14301495477.89254
14353467350.1366
14408820538.47959
14370803197.04754
14326843725.19169
14287646283.00825
13944458049.48853
13616357415.44726
13034255398.37477
12505155343.1078
11876934518.44087
11338715273.32032
10923707531.11627
10854665149.60165
10819519353.05509
10744703948.77809
10401912465.38741
10050700555.4867
9716150073.576427
9373588979.585617
8956699249.303984
8550285923.369821
8173990619.859795
7671740145.069355
7211961639.184483
6793321029.649471
6438038650.353144
6061630818.464634
5615518881.487752
5330287707.230176
5092439529.087865
4893172204.494104
4670385631.362975
4490235726.66707
4351721581.933231
4217994219.854588
4089107528.761795
3964437346.794056
3843364809.539154
3299800555.278992
2192523437.29566
1279479985.443013
693990852.6057028
1282056869.682446
2309225251.21327
3327800531.224784
3998655066.862988
4586539865.189241
5169976126.036796
5747765612.969007
6312424115.358852
6904828369.093764
7711719964.921721
8301504070.019554
8578162204.383684
8892925794.9102
9229367949.264946
9588462142.877623
9440734582.976017
9056616855.040943
9135685292.873638
9249136857.55212
9078367770.988375
8727596619.112373
8566480049.891881
8175230104.625041
7690927250.948496
8070554679.435965
35808407090.55714
57289673311.02572
34795528368.07037
28444643765.69311
12319744666.31117
22243891319.04021
16689730296.09015
18950135894.17612
37815949976.1706
33772736739.06472
32700771687.71989
19973274164.70705
2027329635.381319
4612084317.925615
8857302320.923426
9778455570.62162
10360726350.95268
10436919998.86557
10169809101.28406
10374298367.42275
10450822004.13738
10112273833.47128
9910321329.813808
9828067847.743637
9755245576.969519
9601021281.973299
9420458522.496225
9212890285.51647
9116880480.653709
9191549208.927486
9486504572.557621
9564857178.221027
9629942006.208115
9137133426.318834
8441835762.23037
7996176211.740772
7467043099.748967
6981216938.266397
6534188610.567824
6093118319.41998
5651821207.803205
5304535611.052336
5005169494.086722
4795555341.282341
4558066268.303061
4397848519.950022
4525851056.464012
4862477361.910476
5031752425.351846
5117760198.964841
4943274298.641916
4762541179.447879
4597749868.877991
4416604628.325994
4272567470.006353
4168147840.748144
4698824761.442322
5666843708.671227
6016763532.841146
5959816162.871603
5858038849.094027
5732088207.920042
5204994756.73394
4789992620.597548
4430721324.842638
4191472569.64346
4045187357.774737
3886190907.07241
3718128416.656927
3543373297.368837
3647575166.157814
4472158693.309216
5080720724.777074
5087302754.453459
5000705738.424295
4822381443.496786
4690359551.623374
4178477264.392961
3627183027.41133
3400917321.482512
3243626634.1405
3066923587.059555
2578237666.593562
2284475708.753969
2016514707.214868
1702181635.337549
1642647375.040108
1720642471.762243
1805328557.920015
1173322721.730062
729973586.5126196
1595572102.861073
1983993279.012342
2402976449.115179
3030512992.348905
3269486773.176747
3228053991.828283
3143986679.722593
3000175333.059923
3083104024.687579
28610889940.80659
62835639361.70537
44936941208.31099
29321710246.47512
20864652579.39876
16284803602.5451
32235699937.39331
12495013460.75423
25903487231.06137
28833376229.54133
31982879840.24572
37530323509.43588
29126977634.11345
16249241039.09334
8832889331.608118
3841279517.720351
4168040259.339616
5583448840.839819
6245663363.63334
6772419706.262926
7845123948.08116
8985950945.897497
9325881297.58757
9638241312.67865
9977919574.189159
10049576760.91966
9985545044.96279
8863215619.402157
8480665882.372961
8406761067.663771
7905381515.92432
6823371811.636088
6065470147.046104
5544360745.303423
5042715298.118775
4609409259.085398
4244963059.521127
3890864199.767052
3856469502.20306
3886686557.148432
4058048733.022764
4230176166.212392
5203723883.187777
5784106334.280255
6301466017.825675
6790847395.699532
7271152011.198737
7792669920.758554
8513983643.39444
9293166115.490377
10066063782.90381
10733071372.10863
10966534724.32816
11054002250.00474
11131257480.81233
11236608715.93965
11689433473.03419
12166306802.36575
12620334282.98291
13065585487.00507
13398983484.35619
13758676942.44024
13749972570.31488
13528441619.29807
13505713621.93649
13357487649.83562
12845967668.2633
12344400440.4762
11833706964.89188
11300820285.47343
10737086751.42558
10622274072.22921
11133491883.37689
11628319990.70761
12106758484.19688
12453775129.09254
12775575336.46277
13054230410.39731
12973390453.01126
12805268737.71007
12631867087.09181
12566815107.35971
12552302188.55591
12385554544.01785
12217412737.61886
11878684280.6163
11415674904.6131
11030351669.35773
10671442284.77528
10026307082.54471
9012553546.754116
8254477859.37047
7779805406.249651
7366410489.324395
6999268177.709768
6434591270.664366
5896543152.950539
5349315736.719274
5077278121.808954
5045872028.210702
14621734244.05645
47780826038.78083
57187906688.8987
38296796989.83659
23275451365.92972
4654800799.857092
31424687106.59711
21231794901.11066
11359415128.147
10834457054.34343
11526089049.46575
16451420288.33741
22315054727.6974
21919383058.69341
23307182805.86093
13847820324.58503
8921163323.092354
7905018369.728643
5229080131.641512
3426611063.108649
2153828088.668653
984210954.7256501
1219689114.384338
1369136672.516794
1904053926.172589
2581960257.555104
3376960141.179735
3091318965.606611
949002448.3765185
1450102878.338687
2507949157.624845
2499831082.758285
1756462260.332616
1555548633.623677
1950501920.419386
2659578285.03134
3566588295.406631
4463231738.29535
5315664300.369173
6142538860.340983
7104649565.010522
7961593992.493547
8752395383.484556
9452016107.003437
9990662337.222744
10471148560.87469
10691165270.97005
10902861337.43587
11302227083.3381
12079126627.40821
12394841849.64277
12582530025.07928
12752379539.30011
12863899304.52015
12610389053.1373
12053006194.33351
10753410793.90867
9037654983.499994
8182093848.672939
7839364173.696163
7503345096.264609
7221442135.27064
7553632445.341749
7818452379.497363
8065318236.092851
8297951881.868907
8420049523.034214
8414646902.011026
8516454256.033404
8737195134.493595
8869155674.851225
8833940393.271778
8792832974.150665
8748580867.409309
8714546839.788179
8731929630.484844
8806892979.064667
8867673234.671824
8924501062.221565
8977874977.291172
8559219641.595057
8158710131.222595
8292358587.119391
8435983935.728757
8586698475.650123
8789504326.40069
8925172602.821918
9027749153.835196
9164457089.649273
9311530161.600977
8429037781.036622
7416533320.703229
6578556192.679328
6603300408.230369
6682573517.965096
6745198706.776868
6769876677.051809
6795353570.823322
7196391444.420923
7785058613.87641
35124099313.40016
51062976999.72067
53422898597.64759
42639545441.11562
22807396638.33595
9034786909.727253
21404946568.64679
19699145397.38189
5501722134.891762
14962574611.375
11369399277.53823
8637135622.735476
8167047146.672606
8444568113.681533
12228149569.92669
11612447632.63304
4944476838.978696
5258362157.322563
7476119408.070978
8519414349.928215
9573026276.412176
10330548354.62555
10214091140.24944
9653372760.578817
8302456377.667305
7121466069.814018
6574694518.251039
5397176484.367044
5131131658.980656
3704138445.38664
2294374299.580988
956242493.6276857
1021463598.19395
1889511655.602111
2831883842.117471
3736949267.380225
4266955160.356964
4612917741.532104
4771296689.241882
4922216846.546161
5032871972.46206
5084981410.166416
4521088099.814936
3518770507.569687
2532287842.644244
1593649843.838952
779126683.9972771
515543727.6835097
1226975216.5917
2124834237.516969
3202080246.353059
4053287302.559066
4462567638.419355
4445671644.664388
4604407324.573956
4608710110.417383
4762015630.319156
5191977514.066426
5621040757.534046
6172267865.642877
6716961580.997699
7233547390.204185
7338941009.324241
7141228442.460642
7142414686.225596
6915737266.038413
6316442730.914096
5700618845.456722
5064776297.234953
4473429762.30091
3926000940.953413
3395187797.30028
2881253157.333953
2387329586.555033
2157063427.567407
2037208181.384027
1852125192.208725
1686237720.034662
1532778360.243706
1820492887.113796
2324440470.896049
2302973341.637251
2285678104.326562
2281921420.060799
2289892390.41725
2356961002.610188
2452004300.192434
2509211823.250059
2543153389.203257
2582449846.592456
2721737428.391285
2802404754.821221
1731905128.552545
867107240.2031021
831516488.5447209
806243651.2242037
1578755479.6261
2393377706.720619
3337242389.633638
5259141386.941319
54567953237.37002
58661436249.75847
48633409244.41154
40724425853.50708
21416054916.80312
14783114099.92637
6238227434.335105
23045456370.01477
5362554084.901914
18058567974.84279
19446719153.349
17734269457.51617
15647490414.98095
13592593217.46394
13350179584.22747
12084177708.82215
4772068554.346141
1603973224.628036
3206221308.153303
2284743319.077942
1787006527.804832
1326372208.396361
828745942.7008108
1098241947.322529
1481589251.117928
1003001060.754485
766013694.6397569
326820516.0788949
1782979955.858286
3798928269.140968
4226224962.942642
3972175220.744046
3528543558.753177
3008730094.986606
2286170503.584417
1525747454.035338
750203229.6792012
221044629.0696574
1726286832.997927
3361569020.286064
4971970682.593359
6490223233.634213
7816898134.654788
9094618785.85462
10004465458.72988
10880117115.14513
11599771873.93262
12457204700.05772
12999437832.67679
13743981035.3034
13827313620.70567
13777922492.22974
13679707277.10986
13621619417.96229
13297184419.5195
12746629892.50181
12277662378.67395
11857507201.77573
11606127415.28608
11759949091.00726
12045087809.45531
12332697676.00657
12707320747.2619
13088011124.84903
13420010142.10447
13763058320.5278
14140893717.73902
14367743493.31079
14677193198.9525
15124180754.08218
15572300566.92447
16022048136.27914
16472138789.68105
16942947316.83394
17148451631.61732
16803995519.20825
16490522931.32719
16125785386.32833
15767753179.79784
15412666332.82894
14586240448.35679
13763890285.40691
12957531932.36929
12170224472.5592
11393077564.05336
10623463997.92335
9837535826.630201
9075427138.870977
8323918763.222651
7335096084.531385
6460603945.515915
5729993463.78129
4854931412.255258
4534312660.4772
4444844543.049038
4524219108.043905
4831614298.428656
4659426562.540684
4903124769.827321
5777279678.943176
37003491771.03328
45167202823.65984
47932847849.86193
38695588636.45246
35042577630.5146
17506439867.98436
8324355963.419598
16108863191.48066
13188942273.91164
11011462447.07231
20174181866.7197
20115530227.80065
20168301765.54175
19461584418.27018
19455482304.3048
20383327679.07883
17317118517.49736
12966306915.83935
7448584665.552787
1973632438.973245
3094722447.190511
3473923338.940802
2909199064.00253
2197260604.192273
309686581.6871839
3085930812.069855
5090414937.620434
7372918066.954914
8507956945.873802
9243727994.287907
10175942726.10171
10580730561.69621
10953247369.40728
12125907687.29574
13915276647.07691
15709101971.86739
17183785019.45549
18574960472.75016
19835773103.06998
20917766770.09521
22020099822.76482
23103787097.69586
24134911336.40797
24229157344.06554
23822217123.96966
23348885083.3658
22932953923.15684
22506637687.1255
22083405334.39376
21732130024.00319
21432551151.27739
21159911409.62796
20912722579.03271
21161331673.66489
21471192354.33816
21873042695.36811
22176020005.80603
22076207031.07954
22034339466.33527
21724017470.67052
20846295230.22687
19986217763.23411
19447619184.73324
19125473244.12257
18772589375.02366
18563578197.26331
18326506265.42211
18078736483.58199
17899223520.72292
17768824253.40836
17492434509.73608
17220631976.54951
16952668954.95527
16636199645.00452
16006767322.1933
15274746411.60592
14625957428.96477
13982045188.27053
13297384074.02855
12618173284.07542
11944844648.0648
11277353854.16507
10581855196.07636
9699200249.989054
8800115945.063509
7908821015.164334
7023820873.903244
6126426467.111867
5289233898.638681
4524815182.586158
4422916550.946975
4294275962.798714
4150173300.515877
4116852663.729507
4058708422.756769
4078763458.47665
4873084916.947935
5637864464.172785
6313568059.297473
6872533771.129196
21264445349.24339
34512074190.1291
40940677638.32483
40387227193.63811
38046798843.35494
39192976392.97142
27423843758.37804
17497030519.9329
15434587439.48782
6171603111.770525
13535473311.32108
17928083018.49806
19659727656.75433
20533442063.39256
19741324895.90947
19923269299.55906
18134152514.1323
16534031409.58207
16174998878.37994
15460225574.70146
13840875206.58985
11198658158.12205
9427330725.881269
9053499819.845003
12548586086.41107
15833775760.43395
17731438207.02291
19286572241.98385
20222936710.03565
22825350657.03015
25204198267.87056
27445478833.2687
29472966474.92912
31399810246.27462
32502442700.85474
33590999418.90895
34640236218.76091
35639042406.7674
35660320686.73187
35802205320.66955
35562677177.57247
35022692185.61444
34267115412.70721
32944450632.17364
31663870995.77822
30465215507.98748
29297455002.65984
28009493024.90158
27072638085.19394
26356075821.29883
25640586202.88836
24924272602.31197
24208131733.51245
23492782640.97271
22784944961.31274
22077145247.41698
21366590369.91627
20656903991.95763
19913235666.87951
18852485880.08743
17732350035.7638
16640722581.13519
15573900584.193
14584974747.04156
13670846586.23563
12958669705.48878
12225648505.51324
11651724981.40184
11121987575.44165
10578444316.35632
10033631468.65263
9497473616.61606
8829937765.420572
7971393573.546682
7324550748.446159
7215473977.621186
7112965291.418365
7069436838.257568
7007988246.223856
6908075045.34239
6808066757.524234
6704927462.008696
6593566986.688146
6490847697.860962
6382995006.051366
6272775474.697958
6160095038.926272
5913906886.854382
5641855776.767216
5417141680.8849
5190752265.52258
4961951379.266971
4659141497.311903
4475486684.306228
4292897977.613872
4130914364.41574
3980370457.866995
3824262848.560923
3663909312.377145
3396526363.210676
19429418058.27315
34970385587.77027
36837033591.3994
32903502010.4383
19187155871.29254
22236572164.71274
48777300294.69456
39234661189.8518
27806981576.62869
25631248768.84986
11447139562.2929
7836324491.284516
8465948968.867399
10708830276.64959
12754204994.47135
14240512954.29145
13373703540.78572
11974539612.39996
14598738945.79061
17215740256.84451
19649094767.88903
18027884172.20464
14889418289.0539
13010770579.05597
12255574345.04233
13895101353.12656
16476312748.70093
17942987215.7297
19829691488.82221
21866040281.41547
23351683189.34758
25344186538.83461
27256728849.60569
28204694229.10744
28470304859.17815
28775436419.49082
28961509537.91538
27993044853.59996
26949319604.46791
25883471453.74884
24784489979.2744
23698716435.2655
22360405398.79292
21085193651.26183
20317720263.99736
19649074194.76984
18979398634.26922
18305738141.59694
17632146878.69725
16956857483.2874
16279925327.37105
15597265463.86971
14914852365.92971
14230479885.2353
13537878829.60559
12782913651.61234
12031833314.68692
11283233561.29197
10536623839.71315
10108707742.76413
10241939708.52326
10361208011.8178
10151078971.80787
9957396206.375164
9671141618.49613
9272147960.679909
8877989404.443668
8558525777.967889
8410745520.873295
8224402130.060169
8186624097.04291
8129180441.301636
8058710847.920484
8009350445.146823
7948750898.662309
7709165437.509559
7394832092.555334
7056663156.907063
6765241623.88795
6473610032.705828
6094320194.392902
5476475939.269927
4833334367.454579
4374632797.005975
3920117789.981066
3487969244.204308
3163447774.873774
2848933742.251429
2465594434.358562
2115453722.96095
1796646139.72707
1512138121.936794
1411406360.861319
1278722239.461133
1068869694.222957
901993431.522112
830528372.0160624
852527541.5895911
934408271.5153043
1935921788.842004
18632425173.73743
34526918747.86121
35433436570.88004
28384499924.30387
14777463264.2745
9662382035.744997
26764871121.13628
56257196976.12266
44837948814.90992
35979677601.96404
32432625866.94835
17954416541.12909
14693958305.03054
13533210178.75126
11342734855.10242
9735325786.989771
6987128524.072101
5071043385.245321
8683827656.74609
9726438897.023338
9232844969.15447
9882569048.924492
12409011721.71445
12802532942.02899
11302113115.85867
13465575382.16146
13328056276.11502
13858448182.19295
14758561930.52146
15166282887.52498
15544957045.98216
15856692886.84915
16156105625.2481
16403980079.38719
16120024728.95757
15676772571.16998
14826855438.52512
14002918809.63676
13235857295.03315
12399195012.48609
11976289380.2091
11776887700.28099
11264931733.72678
11363055354.92076
11458148899.42979
11540993033.22272
11549081164.85055
11554843614.65606
11543162595.86193
11519391218.501
11493346922.35851
11468398283.90594
11444290301.38693
11418369451.61711
11372155184.90955
11104421343.94603
10839075183.37155
10576656680.05992
10315940110.26742
10057283631.4892
9802671689.568663
9549788291.826973
9299197284.044819
9043602787.384237
8737211625.786886
8155808170.23737
7500243791.04327
6863950673.491435
6252736363.847962
5639532808.263255
4803101651.78849
4092240490.5113
3515079351.473984
3132244400.935967
2820189788.592673
2534572714.686241
2265223868.527919
1907097106.663692
1464547508.706316
1211630722.427169
1250965378.779734
1462291082.494858
1453826448.048079
1432155452.219291
1483976308.577666
1514564813.880344
1673576555.634517
1885614697.919482
2087606244.287405
2341654123.911293
2571446452.885943
2817317364.684697
2909569220.538976
2981063966.053505
3020775308.863645
3062130914.512964
3106737445.335306
3169013669.154707
3281848714.05509
3782328478.212811
16727251466.62039
33610021260.58499
34461434992.8782
21304814057.74845
10847262579.43973
12444880513.77055
13186828704.41285
28611844615.08672
49697860611.7285
46374148138.49068
41593047247.47428
33355482713.63925
18259926212.97951
15546750138.1471
14222216880.07999
8685801379.911961
1489359930.846689
2873152956.718717
1435238538.978692
2366943023.316847
6414543130.407301
10175947858.92439
14111914830.857
17766829335.7483
20298484819.88633
17057483127.55202
14922039924.63381
12754770648.98173
10501094078.25913
10825639554.51275
11242855456.13163
10631878433.30503
10033002826.8353
8848863926.00705
7709345669.089307
7003982633.878761
6401046604.202109
6890742902.837964
7456614342.818694
7972529263.127851
8445379381.02589
8746903811.394903
9079567604.423315
9436092407.203058
9777305890.327963
10051567213.24726
10071674015.35968
10034783157.43976
9795488026.667751
9533334360.426153
9268556400.287855
9002931239.257492
8724428688.207479
8422980905.049305
8113124711.979016
7811656135.433149
7505336216.754596
7179177938.124909
6674322563.995215
6065504555.669212
5453841522.035004
4840184766.777864
4223913736.946071
3589928587.694736
3174235123.541752
2900469019.703014
2420034903.985888
1830818043.528525
1119060719.603956
957010426.1875004
1275803983.266737
1715001511.916604
2332614017.97997
2937419295.516315
3370032033.664431
3563052110.677013
3713626222.805869
3863802689.1625
3934640667.246003
3959947258.838956
4077528476.277304
4027034413.565462
3930295799.662137
3842696386.901361
3754905645.613536
3722344447.344252
3793099423.7356
3866264173.920441
4013177439.61147
4207635993.893762
4416986659.059876
4605528770.379732
4826123161.624141
5041854576.516839
5283673536.679628
5530971233.939899
5763223890.410018
5937152683.739058
6265289880.621747
6902735133.207948
16488086186.35457
34573084745.8715
29346578993.38329
17360717205.96776
11709375795.40252
14522686431.19532
16952298270.1982
6857906534.500842
15213125266.36959
25419479595.61584
30381687028.30578
33126630111.11523
27168380616.2984
19507166274.62257
12106082427.84751
6688394674.005199
4627598362.173098
961787041.4785866
3464927811.05199
7986490877.271938
11963570819.45457
15417810926.22619
16907994158.48993
17940711080.18831
18799393742.43987
19949028655.93015
19315449575.89519
16318377910.24977
13569870071.27049
10414686547.53076
7034486773.103725
5342837656.655765
4573057113.74089
3920107276.305183
3861332663.169806
3854579171.163495
3884622234.202201
3793923933.980483
3700172578.004928
3595681457.462489
3392571788.990295
2854767504.041278
2559489758.732033
2498369710.664542
2375547612.401895
2115888139.196508
1864225102.637873
1630829593.214029
1421865472.247113
1190227810.231124
931389577.7173947
650481726.0712392
389987684.9162287
303609821.6406347
519143083.2852508
656450910.6131066
847202208.8101629
1163759592.6227
1609447402.917624
1990264170.8819
2320304910.011804
2667840235.079447
3038133930.329828
3427293416.877119
3750025025.261933
4013357329.245659
4198325174.941662
4474315837.940268
4794506176.385476
5201638280.967713
5388209393.309983
5690094060.866321
6012754129.330932
6319127823.895507
6641255693.77722
7006075964.33764
7382479883.560379
7639850419.031966
7523664380.944278
7535665733.895608
7583273594.555072
7607567832.113161
7600187102.432627
7678377944.062076
7768435315.215656
7865413354.398265
7956691638.583458
8071483806.032218
8076969719.170706
8066982469.803164
8109613358.829366
8124521620.784745
8144094265.890609
8320883021.282219
8966599856.096231
10294637312.80388
11602505414.75433
12959131467.64777
13994437085.88272
14961894772.47331
16466511464.28033
34353254228.19212
24272496345.33235
14580441227.97158
13711085584.75735
16001328178.74036
19907599603.8639
11362494339.21187
15805475123.74099
12986307001.34723
7830837114.378854
7215214624.830642
7730223527.474448
5010032325.980656
6228231260.832349
2032413183.31494
5218221866.863567
8795759093.207151
10465906893.42123
12769460825.4151
12819040380.75762
12926560586.66268
13437507667.23918
13934775505.52927
14622664373.59215
15627409957.70137
15018069143.8403
14020290333.28319
11633277286.5978
7494243310.980607
3167971574.070635
3832702527.129802
4938504017.317159
6045678995.622953
6101086930.81102
6161947195.699584
6127710720.075378
6176778354.278273
6369683657.025329
6515209070.009769
6689133844.031512
6833241677.666965
7137342811.454829
7512792235.065784
7906796227.775529
8265999082.521262
8419976702.085931
8561765462.120723
8541970963.15917
8541933247.705512
8573430128.938624
8633984083.376284
8714223865.409563
8805280004.046373
8921295450.322405
9066371581.51178
9265049186.338848
9506360506.520807
9558729497.201965
9476493577.917233
9412158898.507507
9378863293.736958
9360150270.581129
9335743244.238462
9295890319.644932
9258726894.384235
9093100116.08732
9007867430.821953
9095138916.435406
9172880430.229092
9244290264.03363
9302999270.6038
9432272892.71616
9600698245.51141
9942347769.502331
10357769734.29458
10765525876.55237
11113122674.70022
11488264227.6735
11904939707.02814
12053535755.05358
12094104354.40078
11937516635.02288
11799047093.95223
11644527385.97417
11418008859.11261
11220559397.54199
12050101995.3202
13074690508.93498
14224454256.43841
15395420163.27014
16619448558.80582
17632639746.42596
18471552443.60109
19583386885.03839
20628320990.64603
21423243505.22738
21576336316.52884
19947749890.09151
18810517208.51866
16706499537.38976
29981819136.30335
20439170355.46826
14027403147.3785
14276290209.0426
16272055145.14006
17769519353.09226
21315058483.38484
21827687667.60254
19674827939.5508
18438607560.18797
19514639819.53695
19671697860.03475
18234845898.07176
16754658891.56743
17179073363.28762
14215823615.45618
12260971436.10045
9868852177.183655
10414117130.87185
10698384308.79625
11139798664.83505
11197026559.75705
10707215194.37387
9286861070.318127
6851170823.387907
4577830217.50942
2731064406.751363
2650857045.002883
3650489219.939658