/*--------------------------------*- C++ -*----------------------------------*\
| =========                 |                                                 |
| \\      /  F ield         | foam-extend: Open Source CFD                    |
|  \\    /   O peration     | Version:     4.1                                |
|   \\  /    A nd           | Web:         http://www.foam-extend.org         |
|    \\/     M anipulation  |                                                 |
\*---------------------------------------------------------------------------*/
FoamFile
{
    version     2.0;
    format      ascii;
    class       volScalarField;
    location    "2";
    object      epsilonEq;
}
// * * * * * * * * * * * * * * * * * * * * * * * * * * * * * * * * * * * * * //

dimensions      [0 0 0 0 0 0 0];

internalField   nonuniform List<scalar> 
1000
(
9.2171e-07
1.05096e-06
1.15439e-06
1.23271e-06
1.26911e-06
1.28333e-06
1.28118e-06
1.2692e-06
1.25309e-06
1.23049e-06
1.15375e-06
1.17243e-06
1.21763e-06
1.26631e-06
1.28676e-06
1.29226e-06
1.28481e-06
1.27039e-06
1.25039e-06
1.22993e-06
1.37987e-06
1.29303e-06
1.27405e-06
1.28716e-06
1.28781e-06
1.28217e-06
1.26811e-06
1.25005e-06
1.22724e-06
1.20604e-06
1.59313e-06
1.40849e-06
1.32353e-06
1.29714e-06
1.27493e-06
1.25626e-06
1.2346e-06
1.21257e-06
1.18734e-06
1.16594e-06
1.78754e-06
1.51488e-06
1.36587e-06
1.29827e-06
1.25116e-06
1.21795e-06
1.18794e-06
1.1616e-06
1.13449e-06
1.11284e-06
1.95792e-06
1.60888e-06
1.40106e-06
1.29313e-06
1.22049e-06
1.17189e-06
1.133e-06
1.10202e-06
1.0732e-06
1.05111e-06
2.0998e-06
1.6876e-06
1.4291e-06
1.28442e-06
1.18738e-06
1.12354e-06
1.07568e-06
1.0399e-06
1.00947e-06
9.8664e-07
2.2095e-06
1.74875e-06
1.45011e-06
1.27496e-06
1.15675e-06
1.07916e-06
1.02301e-06
9.82618e-07
9.50687e-07
9.26895e-07
2.28421e-06
1.79051e-06
1.46404e-06
1.26705e-06
1.13308e-06
1.04491e-06
9.82203e-07
9.38047e-07
9.04882e-07
8.80157e-07
2.32166e-06
1.81122e-06
1.47035e-06
1.26183e-06
1.11935e-06
1.02533e-06
9.5893e-07
9.12617e-07
8.78736e-07
8.53463e-07
8.46705e-07
5.6092e-07
4.01684e-07
3.35524e-07
3.11686e-07
3.16266e-07
3.33342e-07
3.57998e-07
3.84596e-07
4.11602e-07
8.11157e-07
5.5886e-07
4.38244e-07
4.03346e-07
3.96831e-07
4.06581e-07
4.21743e-07
4.41052e-07
4.60436e-07
4.81945e-07
7.39758e-07
5.55975e-07
5.0062e-07
5.07539e-07
5.20899e-07
5.36824e-07
5.50611e-07
5.64596e-07
5.75916e-07
5.91065e-07
6.36977e-07
5.58046e-07
5.79183e-07
6.25356e-07
6.55733e-07
6.77193e-07
6.90275e-07
7.00116e-07
7.0469e-07
7.14281e-07
5.10003e-07
5.71681e-07
6.65839e-07
7.44034e-07
7.87699e-07
8.13498e-07
8.26019e-07
8.32466e-07
8.3155e-07
8.36312e-07
3.75175e-07
6.03085e-07
7.55042e-07
8.56554e-07
9.09623e-07
9.38277e-07
9.5002e-07
9.53414e-07
9.47982e-07
9.4834e-07
2.80462e-07
6.56205e-07
8.43429e-07
9.58983e-07
1.01743e-06
1.04726e-06
1.05779e-06
1.05831e-06
1.04917e-06
1.04538e-06
3.18774e-07
7.31219e-07
9.2872e-07
1.04876e-06
1.10833e-06
1.13743e-06
1.14617e-06
1.14377e-06
1.13188e-06
1.12394e-06
4.80768e-07
8.2525e-07
1.00958e-06
1.12465e-06
1.18098e-06
1.2074e-06
1.21362e-06
1.20852e-06
1.19459e-06
1.18341e-06
6.92681e-07
9.33562e-07
1.08496e-06
1.18581e-06
1.2343e-06
1.25554e-06
1.258e-06
1.2492e-06
1.23452e-06
1.217e-06
4.39256e-07
4.62284e-07
4.84042e-07
5.03836e-07
5.21261e-07
5.36565e-07
5.49563e-07
5.60361e-07
5.68916e-07
5.75242e-07
5.79286e-07
5.81011e-07
5.80271e-07
5.77017e-07
5.70893e-07
5.62007e-07
5.49427e-07
5.34126e-07
5.13222e-07
4.91536e-07
4.9957e-07
5.11321e-07
5.24746e-07
5.37557e-07
5.49357e-07
5.6007e-07
5.69319e-07
5.77034e-07
5.83045e-07
5.87259e-07
5.89545e-07
5.89797e-07
5.87826e-07
5.83541e-07
5.76562e-07
5.66973e-07
5.53842e-07
5.38123e-07
5.16986e-07
4.95215e-07
5.95672e-07
5.91924e-07
5.93078e-07
5.95258e-07
5.98134e-07
6.01365e-07
6.04359e-07
6.06832e-07
6.08459e-07
6.08989e-07
6.08184e-07
6.05834e-07
6.0168e-07
5.95566e-07
5.87076e-07
5.76254e-07
5.62172e-07
5.45752e-07
5.24266e-07
5.02405e-07
7.0697e-07
6.88447e-07
6.76952e-07
6.67799e-07
6.60684e-07
6.55238e-07
6.50748e-07
6.46776e-07
6.42895e-07
6.38703e-07
6.33875e-07
6.28093e-07
6.2103e-07
6.1246e-07
6.01932e-07
5.89446e-07
5.74091e-07
5.56749e-07
5.34849e-07
5.12946e-07
8.19196e-07
7.88654e-07
7.65875e-07
7.46377e-07
7.29718e-07
7.15662e-07
7.03538e-07
6.92791e-07
6.83e-07
6.73641e-07
6.64342e-07
6.54699e-07
6.44332e-07
6.32955e-07
6.20092e-07
6.05703e-07
5.88915e-07
5.70566e-07
5.48299e-07
5.265e-07
9.23598e-07
8.84517e-07
8.52647e-07
8.24605e-07
7.99789e-07
7.78016e-07
7.58886e-07
7.41708e-07
7.26167e-07
7.11662e-07
6.9782e-07
6.84186e-07
6.70359e-07
6.56015e-07
6.40676e-07
6.24274e-07
6.06e-07
5.86655e-07
5.64155e-07
5.42697e-07
1.01512e-06
9.71032e-07
9.32622e-07
8.97832e-07
8.66527e-07
8.38148e-07
8.12918e-07
7.89965e-07
7.69168e-07
7.49887e-07
7.31773e-07
7.14354e-07
6.9722e-07
6.80032e-07
6.62324e-07
6.44019e-07
6.24395e-07
6.04226e-07
5.81742e-07
5.60918e-07
1.0902e-06
1.04454e-06
1.00323e-06
9.63837e-07
9.28268e-07
8.94912e-07
8.64849e-07
8.37087e-07
8.11693e-07
7.88098e-07
7.66006e-07
7.44991e-07
7.24665e-07
7.04709e-07
6.84693e-07
6.6455e-07
6.43669e-07
6.2281e-07
6.00563e-07
5.80696e-07
1.14858e-06
1.10231e-06
1.06154e-06
1.01904e-06
9.80601e-07
9.43589e-07
9.09721e-07
8.78211e-07
8.49153e-07
8.22122e-07
7.96824e-07
7.72891e-07
7.49961e-07
7.27747e-07
7.05875e-07
6.84305e-07
6.62566e-07
6.41408e-07
6.19805e-07
6.01218e-07
1.18823e-06
1.14446e-06
1.10835e-06
1.06696e-06
1.0277e-06
9.89067e-07
9.52477e-07
9.17941e-07
8.85615e-07
8.55359e-07
8.26971e-07
8.00183e-07
7.7469e-07
7.50249e-07
7.2655e-07
7.03592e-07
6.81054e-07
6.59697e-07
6.38906e-07
6.21902e-07
1.2036e-06
1.15909e-06
1.12472e-06
1.08669e-06
1.04888e-06
1.01155e-06
9.75445e-07
9.40853e-07
9.0798e-07
8.76834e-07
8.47343e-07
8.19364e-07
7.92708e-07
7.67236e-07
7.42756e-07
7.19348e-07
6.96863e-07
6.76071e-07
6.56723e-07
6.41625e-07
1.173e-06
1.14653e-06
1.11566e-06
1.08288e-06
1.04882e-06
1.01461e-06
9.80864e-07
9.48014e-07
9.16346e-07
8.85981e-07
8.56954e-07
8.29234e-07
8.02746e-07
7.77457e-07
7.53295e-07
7.30429e-07
7.08868e-07
6.89412e-07
6.72117e-07
6.59484e-07
1.14785e-06
1.12603e-06
1.10132e-06
1.07319e-06
1.04329e-06
1.01242e-06
9.81406e-07
9.50699e-07
9.20686e-07
8.9157e-07
8.63484e-07
8.36493e-07
8.10621e-07
7.85928e-07
7.62453e-07
7.40446e-07
7.20058e-07
7.02097e-07
6.8687e-07
6.76499e-07
1.11928e-06
1.10256e-06
1.08246e-06
1.05841e-06
1.03235e-06
1.00476e-06
9.76603e-07
9.48289e-07
9.20275e-07
8.92813e-07
8.66112e-07
8.40309e-07
8.15513e-07
7.91864e-07
7.69496e-07
7.48721e-07
7.29813e-07
7.13562e-07
7.00474e-07
6.92303e-07
1.08839e-06
1.07581e-06
1.06001e-06
1.03989e-06
1.0176e-06
9.93348e-07
9.6816e-07
9.4242e-07
9.16643e-07
8.91111e-07
8.66097e-07
8.41795e-07
8.18386e-07
7.96073e-07
7.75068e-07
7.55735e-07
7.38438e-07
7.23939e-07
7.1289e-07
7.06712e-07
1.05664e-06
1.04761e-06
1.03542e-06
1.01877e-06
9.99906e-07
9.7881e-07
9.56546e-07
9.33443e-07
9.10042e-07
8.86641e-07
8.63552e-07
8.41011e-07
8.19253e-07
7.9853e-07
7.79115e-07
7.61402e-07
7.45827e-07
7.33106e-07
7.23986e-07
7.19586e-07
1.02475e-06
1.01867e-06
1.00956e-06
9.96047e-07
9.80314e-07
9.62213e-07
9.42784e-07
9.22313e-07
9.01343e-07
8.80179e-07
8.59157e-07
8.38541e-07
8.18603e-07
7.99627e-07
7.81933e-07
7.65931e-07
7.52099e-07
7.411e-07
7.3374e-07
7.30865e-07
9.93394e-07
9.89712e-07
9.83181e-07
9.72416e-07
9.59481e-07
9.44151e-07
9.27413e-07
9.09512e-07
8.90975e-07
8.721e-07
8.53232e-07
8.34649e-07
8.16646e-07
7.99527e-07
7.83638e-07
7.69391e-07
7.57287e-07
7.47926e-07
7.42138e-07
7.40531e-07
9.62978e-07
9.61199e-07
9.56812e-07
9.4845e-07
9.38016e-07
9.25246e-07
9.11045e-07
8.95623e-07
8.79478e-07
8.62894e-07
8.46212e-07
8.29713e-07
8.13701e-07
7.98487e-07
7.84428e-07
7.71927e-07
7.61488e-07
7.53646e-07
7.49223e-07
7.48629e-07
9.33722e-07
9.33444e-07
9.3083e-07
9.24557e-07
9.1635e-07
9.05926e-07
8.94099e-07
8.81047e-07
8.67226e-07
8.52902e-07
8.384e-07
8.23994e-07
8.09987e-07
7.96685e-07
7.84443e-07
7.73645e-07
7.64782e-07
7.58323e-07
7.55059e-07
7.55236e-07
9.05722e-07
9.06635e-07
9.05492e-07
9.01046e-07
8.94835e-07
8.86566e-07
8.7696e-07
8.66161e-07
8.54581e-07
8.42459e-07
8.30099e-07
8.1776e-07
8.05734e-07
7.94312e-07
7.83839e-07
7.7467e-07
7.67272e-07
7.62048e-07
7.59741e-07
7.60468e-07
8.78983e-07
8.8086e-07
8.80969e-07
8.78146e-07
8.7374e-07
8.67462e-07
8.59934e-07
8.51272e-07
8.41836e-07
8.31839e-07
8.21558e-07
8.11232e-07
8.01132e-07
7.91532e-07
7.82751e-07
7.75117e-07
7.69059e-07
7.64921e-07
7.63379e-07
7.64458e-07
8.53453e-07
8.56193e-07
8.57378e-07
8.56022e-07
8.53284e-07
8.48862e-07
8.43289e-07
8.3665e-07
8.29257e-07
8.21296e-07
8.1301e-07
8.04617e-07
7.96363e-07
7.88498e-07
7.81314e-07
7.75103e-07
7.70253e-07
7.6705e-07
7.66099e-07
7.67358e-07
8.29082e-07
8.32582e-07
8.34809e-07
8.34859e-07
8.33688e-07
8.31019e-07
8.27288e-07
8.22562e-07
8.17102e-07
8.11068e-07
8.04673e-07
7.98109e-07
7.91596e-07
7.85357e-07
7.79654e-07
7.74742e-07
7.70962e-07
7.68552e-07
7.68033e-07
7.69329e-07
8.05783e-07
8.10226e-07
8.13371e-07
8.14761e-07
8.15134e-07
8.14146e-07
8.12167e-07
8.09249e-07
8.05606e-07
8.01378e-07
7.96747e-07
7.91884e-07
7.86982e-07
7.82239e-07
7.77884e-07
7.74138e-07
7.71291e-07
7.69537e-07
7.69312e-07
7.70527e-07
7.83696e-07
7.88731e-07
7.93145e-07
7.96123e-07
7.9795e-07
7.98586e-07
7.98251e-07
7.9702e-07
7.95055e-07
7.92482e-07
7.89457e-07
7.86132e-07
7.8268e-07
7.79275e-07
7.76116e-07
7.7339e-07
7.71339e-07
7.70117e-07
7.70071e-07
7.71115e-07
7.62401e-07
7.70876e-07
7.74538e-07
7.79257e-07
7.82379e-07
7.84619e-07
7.85812e-07
7.86146e-07
7.85698e-07
7.846e-07
7.82985e-07
7.80999e-07
7.788e-07
7.76545e-07
7.74409e-07
7.72551e-07
7.71166e-07
7.7037e-07
7.70414e-07
7.71228e-07
7.42932e-07
7.50817e-07
7.58191e-07
7.64046e-07
7.68901e-07
7.72635e-07
7.75331e-07
7.77061e-07
7.77935e-07
7.78072e-07
7.77613e-07
7.76703e-07
7.75501e-07
7.74159e-07
7.72838e-07
7.71675e-07
7.70825e-07
7.70368e-07
7.70466e-07
7.7104e-07
7.24989e-07
7.34946e-07
7.43768e-07
7.51381e-07
7.57908e-07
7.63142e-07
7.67195e-07
7.70124e-07
7.72053e-07
7.73118e-07
7.73479e-07
7.73304e-07
7.7277e-07
7.72045e-07
7.71294e-07
7.70646e-07
7.7023e-07
7.70077e-07
7.70264e-07
7.70651e-07
7.10178e-07
7.2226e-07
7.33168e-07
7.42606e-07
7.5064e-07
7.57176e-07
7.62299e-07
7.66081e-07
7.68671e-07
7.70236e-07
7.70973e-07
7.71091e-07
7.70805e-07
7.70318e-07
7.69823e-07
7.6946e-07
7.69355e-07
7.69501e-07
7.69906e-07
7.70299e-07
8.35315e-07
8.60167e-07
9.03717e-07
9.59734e-07
1.02066e-06
1.07957e-06
1.13094e-06
1.17086e-06
1.19802e-06
1.20844e-06
8.20151e-07
8.41967e-07
8.80581e-07
9.3111e-07
9.87392e-07
1.04355e-06
1.09463e-06
1.13602e-06
1.16622e-06
1.18054e-06
8.07863e-07
8.26952e-07
8.60868e-07
9.05659e-07
9.5622e-07
1.0076e-06
1.05598e-06
1.09741e-06
1.13169e-06
1.15404e-06
7.97696e-07
8.14317e-07
8.44024e-07
8.83668e-07
9.29046e-07
9.75842e-07
1.02077e-06
1.06008e-06
1.09371e-06
1.12065e-06
7.88613e-07
8.03049e-07
8.28958e-07
8.63842e-07
9.0427e-07
9.46635e-07
9.88197e-07
1.02583e-06
1.05835e-06
1.08686e-06
7.80385e-07
7.9291e-07
8.1548e-07
8.46094e-07
8.81906e-07
9.19881e-07
9.57573e-07
9.92708e-07
1.02328e-06
1.05224e-06
7.72475e-07
7.83344e-07
8.02996e-07
8.29845e-07
8.61519e-07
8.95535e-07
9.2961e-07
9.62198e-07
9.90455e-07
1.01832e-06
7.64659e-07
7.74092e-07
7.91196e-07
8.14707e-07
8.42618e-07
8.72919e-07
9.03463e-07
9.33362e-07
9.59328e-07
9.85554e-07
7.56643e-07
7.64845e-07
7.79753e-07
8.00364e-07
8.24962e-07
8.51935e-07
8.79245e-07
9.06452e-07
9.30123e-07
9.54298e-07
7.48224e-07
7.55367e-07
7.68377e-07
7.86454e-07
8.08121e-07
8.32085e-07
8.56449e-07
8.81065e-07
9.02592e-07
9.24635e-07
7.39181e-07
7.4542e-07
7.5681e-07
7.72707e-07
7.91831e-07
8.13136e-07
8.34876e-07
8.57055e-07
8.76581e-07
8.96532e-07
7.29318e-07
7.34788e-07
7.448e-07
7.58828e-07
7.75761e-07
7.94735e-07
8.14178e-07
8.34143e-07
8.51867e-07
8.69875e-07
7.18386e-07
7.23213e-07
7.32072e-07
7.44526e-07
7.59608e-07
7.76588e-07
7.94062e-07
8.12075e-07
8.28219e-07
8.44492e-07
7.06197e-07
7.1049e-07
7.18401e-07
7.29557e-07
7.43112e-07
7.5843e-07
7.74274e-07
7.90636e-07
8.05459e-07
8.20261e-07
6.92363e-07
6.9623e-07
7.03394e-07
7.13525e-07
7.25879e-07
7.39886e-07
7.54457e-07
7.69515e-07
7.83325e-07
7.96944e-07
6.76767e-07
6.80311e-07
6.86922e-07
6.96297e-07
7.07777e-07
7.20833e-07
7.34513e-07
7.48657e-07
7.61825e-07
7.74692e-07
6.58613e-07
6.61947e-07
6.68218e-07
6.77138e-07
6.88115e-07
7.00646e-07
7.13874e-07
7.27608e-07
7.40526e-07
7.5332e-07
6.38234e-07
6.41471e-07
6.47619e-07
6.56392e-07
6.67246e-07
6.79682e-07
6.92931e-07
7.06673e-07
7.19888e-07
7.32678e-07
6.13473e-07
6.16773e-07
6.23102e-07
6.32166e-07
6.43447e-07
6.5644e-07
6.70425e-07
6.84969e-07
6.99252e-07
7.12988e-07
5.86886e-07
5.90408e-07
5.97201e-07
6.06958e-07
6.19171e-07
6.33326e-07
6.4869e-07
6.6477e-07
6.80755e-07
6.9622e-07
)
;

boundaryField
{
    left
    {
        type            symmetryPlane;
        value           nonuniform List<scalar> 
30
(
8.34738e-07
8.19644e-07
8.07417e-07
7.97306e-07
7.88277e-07
7.80094e-07
7.72225e-07
7.64442e-07
7.56457e-07
7.48064e-07
7.39043e-07
7.292e-07
7.18287e-07
7.06115e-07
6.92297e-07
6.76716e-07
6.58577e-07
6.38212e-07
6.13463e-07
5.86885e-07
2.31667e-06
1.80958e-06
1.46998e-06
1.26181e-06
1.11931e-06
1.02513e-06
9.58581e-07
9.12148e-07
8.78198e-07
8.52863e-07
)
;
    }
    right
    {
        type            calculated;
        value           nonuniform List<scalar> 
30
(
4.90167e-07
4.93832e-07
5.01015e-07
5.11552e-07
5.25107e-07
5.41329e-07
5.59577e-07
5.79438e-07
5.99998e-07
6.20865e-07
6.40639e-07
6.58691e-07
6.75857e-07
6.91802e-07
7.06342e-07
7.19326e-07
7.307e-07
7.40442e-07
7.48601e-07
7.55252e-07
7.60514e-07
7.64522e-07
7.67432e-07
7.69404e-07
7.70596e-07
7.71174e-07
7.71273e-07
7.71074e-07
7.70671e-07
7.70349e-07
)
;
    }
    down
    {
        type            symmetryPlane;
        value           nonuniform List<scalar> 
30
(
8.45761e-07
5.60635e-07
3.98881e-07
3.29531e-07
3.03612e-07
3.0771e-07
3.25279e-07
3.50846e-07
3.78473e-07
4.06229e-07
4.34966e-07
4.59029e-07
4.81493e-07
5.01835e-07
5.19676e-07
5.35296e-07
5.48541e-07
5.59531e-07
5.68238e-07
5.74687e-07
5.78832e-07
5.8064e-07
5.7997e-07
5.76777e-07
5.70707e-07
5.61869e-07
5.49332e-07
5.3407e-07
5.13197e-07
4.91533e-07
)
;
    }
    up
    {
        type            calculated;
        value           nonuniform List<scalar> 
30
(
5.86048e-07
5.89565e-07
5.96362e-07
6.06126e-07
6.1835e-07
6.32529e-07
6.47919e-07
6.64053e-07
6.80066e-07
6.95629e-07
7.09642e-07
7.21819e-07
7.32793e-07
7.42293e-07
7.50389e-07
7.56974e-07
7.62138e-07
7.65952e-07
7.68566e-07
7.70148e-07
7.70899e-07
7.71026e-07
7.70749e-07
7.70269e-07
7.69783e-07
7.69429e-07
7.69334e-07
7.69485e-07
7.69897e-07
7.70263e-07
)
;
    }
    hole
    {
        type            calculated;
        value           nonuniform List<scalar> 
20
(
8.93468e-07
1.1466e-06
1.39019e-06
1.61836e-06
1.82554e-06
2.00665e-06
2.15722e-06
2.27352e-06
2.35265e-06
2.39244e-06
8.75047e-07
8.34959e-07
7.54641e-07
6.36608e-07
4.84026e-07
3.00782e-07
9.1582e-08
1.38312e-07
3.83161e-07
6.36948e-07
)
;
    }
    frontAndBack
    {
        type            empty;
    }
}


// ************************************************************************* //
