/*--------------------------------*- C++ -*----------------------------------*\
| =========                 |                                                 |
| \\      /  F ield         | foam-extend: Open Source CFD                    |
|  \\    /   O peration     | Version:     4.1                                |
|   \\  /    A nd           | Web:         http://www.foam-extend.org         |
|    \\/     M anipulation  |                                                 |
\*---------------------------------------------------------------------------*/
FoamFile
{
    version     2.0;
    format      ascii;
    class       volScalarField;
    location    "2";
    object      sigmaEq;
}
// * * * * * * * * * * * * * * * * * * * * * * * * * * * * * * * * * * * * * //

dimensions      [1 -1 -2 0 0 0 0];

internalField   nonuniform List<scalar> 
1000
(
212702
242530
266397
284472
292871
296152
295658
292892
289174
283960
266251
270562
280992
292225
296946
298215
296494
293167
288552
283831
318432
298393
294012
297037
297186
295885
292640
288473
283210
278317
367645
325035
305431
299340
294215
289907
284907
279824
274002
269063
412509
349588
315201
299600
288730
281065
274140
268061
261806
256809
451827
371280
323323
298415
281652
270437
261461
254312
247662
242564
484569
389446
329793
296406
274012
259278
248235
239977
232955
227686
509886
403557
334640
294221
266942
249037
236079
226758
219389
213899
527126
413194
337856
292395
261481
241133
226662
216472
208819
203113
535768
417974
339311
291191
258312
236615
221292
210604
202785
196953
195394
129443
92696.2
77428.5
71927.5
72984.4
76925.2
82615
88753
94985
187190
128968
101133
93079.8
91576.4
93826.5
97325.2
101781
106254
111218
170713
128302
115528
117124
120208
123882
127064
130291
132904
136400
146995
128780
133658
144313
151323
156275
159294
161565
162621
164834
117693
131926
153655
171700
181777
187730
190620
192107
191896
192995
86578.9
139174
174240
197666
209913
216525
219235
220019
218765
218848
64722
151432
194638
221304
234791
241676
244106
244225
242115
241242
73563.3
168743
214320
242022
255768
262483
264501
263948
261203
259371
110946
190442
232979
259534
272535
278632
280067
278889
275676
273094
159850
215437
250374
273648
284838
289741
290308
288276
284888
280847
101367
106681
111702
116270
120291
123823
126822
129314
131288
132748
133681
134079
133909
133158
131744
129694
126791
123260
118436
113431
115285
117997
121095
124052
126775
129247
131381
133162
134549
135521
136049
136107
135652
134663
133053
130840
127810
124182
119304
114280
137463
136598
136864
137367
138031
138777
139467
140038
140414
140536
140350
139808
138849
137438
135479
132982
129732
125943
120985
115940
163147
158872
156220
154107
152466
151209
150173
149256
148360
147393
146279
144945
143315
141337
138907
136026
132483
128481
123427
118372
189045
181997
176740
172241
168396
165153
162355
159875
157615
155456
153310
151084
148692
146067
143098
139778
135903
131669
126531
121500
213138
204119
196765
190294
184567
179542
175128
171163
167577
164230
161035
157889
154698
151388
147848
144063
139846
135382
130190
125238
234259
224084
215220
207192
199968
193419
187596
182300
177500
173051
168871
164851
160897
156931
152844
148620
144091
139437
134248
129443
251585
241048
231515
222424
214216
206518
199581
193174
187314
181869
176771
171921
167230
162625
158006
153358
148539
143725
138591
134007
265057
254380
244971
235163
226293
217751
209936
202664
195958
189720
183882
178360
173068
167942
162894
157917
152900
148017
143032
138743
274207
264105
255774
246221
237161
228246
219802
211833
204373
197390
190839
184658
178775
173134
167665
162367
157166
152238
147440
143516
277754
267482
259551
250775
242048
233434
225103
217120
209534
202346
195541
189084
182933
177054
171405
166003
160815
156016
151551
148067
270693
264584
257459
249895
242036
234140
226353
218772
211465
204457
197759
191362
185249
179413
173837
168560
163585
159095
155104
152189
264888
259854
254150
247660
240759
233636
226478
219392
212466
205747
199266
193037
187066
181368
175951
170872
166167
162022
158508
156115
258295
254437
249799
244248
238234
231869
225370
218836
212371
206034
199872
193917
188195
182738
177576
172782
168418
164668
161648
159762
251168
248264
244617
239974
234831
229234
223421
217482
211533
205641
199869
194260
188858
183709
178862
174400
170409
167063
164513
163087
243839
241757
238942
235101
230748
225879
220741
215410
210010
204609
199281
194079
189058
184276
179796
175708
172114
169178
167074
166058
236480
235077
232975
229857
226226
222049
217565
212841
208002
203118
198267
193509
188908
184529
180446
176753
173561
171023
169325
168661
229245
228395
226888
224404
221419
217881
214018
209887
205610
201254
196900
192611
188457
184506
180840
177552
174759
172598
171263
170892
222226
221815
220803
218873
216465
213518
210241
206682
202957
199129
195280
191472
187777
184266
181022
178137
175728
173918
172898
172761
215474
215410
214807
213359
211465
209060
206331
203318
200129
196823
193477
190153
186920
183850
181025
178533
176488
174998
174244
174285
209013
209223
208960
207934
206500
204592
202375
199883
197211
194414
191561
188714
185939
183303
180886
178770
177063
175857
175325
175493
202842
203275
203300
202649
201632
200184
198446
196447
194270
191963
189590
187207
184877
182661
180635
178873
177475
176520
176164
176413
196951
197583
197856
197544
196912
195891
194605
193073
191367
189530
187618
185681
183776
181961
180303
178870
177751
177012
176792
177083
191327
192134
192648
192660
192390
191774
190913
189822
188562
187170
185694
184179
182676
181236
179920
178787
177914
177358
177238
177538
185950
186975
187701
188022
188108
187880
187423
186750
185909
184933
183865
182742
181611
180517
179512
178647
177990
177586
177534
177814
180853
182015
183033
183721
184142
184289
184212
183928
183474
182880
182182
181415
180619
179833
179104
178475
178001
177719
177709
177950
175939
177895
178740
179829
180549
181066
181341
181418
181315
181061
180689
180231
179723
179203
178710
178281
177961
177778
177788
177976
171446
173265
174967
176318
177439
178300
178923
179322
179524
179555
179449
179239
178962
178652
178347
178079
177883
177777
177800
177932
167305
169603
171639
173396
174902
176110
177045
177721
178166
178412
178495
178455
178331
178164
177991
177841
177745
177710
177753
177843
163887
166675
169193
171371
173225
174733
175915
176788
177386
177747
177917
177944
177878
177766
177651
177568
177543
177577
177671
177761
192765
198500
208550
221477
235536
249132
260986
270198
276465
278870
189266
194300
203211
214871
227860
240820
252607
262158
269129
272432
186430
190835
198662
208998
220666
232522
243687
253248
261159
266316
184084
187919
194775
203923
214395
225194
235561
244635
252395
258612
181988
185319
191298
199348
208678
218454
228045
236729
244234
250813
180089
182979
188188
195253
203517
212280
220978
229086
236141
242824
178264
180772
185307
191503
198812
206662
214525
222046
228566
234997
176460
178637
182584
188009
194450
201443
208491
215391
221383
227436
174610
176503
179943
184699
190376
196600
202903
209181
214644
220223
172667
174315
177318
181489
186489
192020
197642
203323
208290
213377
170580
172020
174648
178317
182730
187647
192664
197782
202288
206892
168304
169567
171877
175114
179022
183400
187887
192495
196585
200740
165781
166895
168940
171814
175294
179213
183245
187402
191128
194883
162969
163959
165785
168359
171487
175022
178679
182454
185875
189291
159776
160668
162322
164660
167511
170743
174105
177580
180767
183910
156177
156995
158521
160684
163333
166346
169503
172767
175806
178775
151988
152757
154204
156263
158796
161688
164740
167910
170891
173843
147285
148032
149451
151475
153980
156850
159907
163078
166128
169079
141571
142332
143793
145884
148488
151486
154713
158070
161366
164536
135435
136248
137816
140067
142886
146152
149698
153409
157097
160666
)
;

boundaryField
{
    left
    {
        type            symmetryPlane;
        value           nonuniform List<scalar> 
30
(
192632
189149
186327
183994
181910
180022
178206
176410
174567
172630
170548
168277
165759
162950
159761
156165
151979
147280
141568
135435
534616
417596
339225
291187
258302
236570
221211
210496
202661
196814
)
;
    }
    right
    {
        type            calculated;
        value           nonuniform List<scalar> 
30
(
113115
113961
115619
118051
121178
124922
129133
133716
138461
143276
147840
152006
155967
159647
163002
165998
168623
170871
172754
174289
175503
176428
177100
177555
177830
177963
177986
177940
177847
177773
)
;
    }
    down
    {
        type            symmetryPlane;
        value           nonuniform List<scalar> 
30
(
195176
129377
92049.6
76045.6
70064.3
71010
75064.4
80964.5
87339.9
93745.2
100377
105930
111114
115808
119925
123530
126586
129123
131132
132620
133577
133994
133839
133102
131702
129662
126769
123247
118430
113431
)
;
    }
    up
    {
        type            calculated;
        value           nonuniform List<scalar> 
30
(
135242
136054
137622
139875
142696
145968
149520
153243
156938
160530
163763
166574
169106
171298
173167
174686
175878
176758
177361
177727
177900
177929
177865
177754
177642
177561
177539
177574
177669
177753
)
;
    }
    hole
    {
        type            calculated;
        value           nonuniform List<scalar> 
20
(
206185
264599
320814
373468
421278
463073
497820
524659
542920
552101
201934
192683
174148
146910
111698
69411.3
21134.3
31918.3
88421.9
146988
)
;
    }
    frontAndBack
    {
        type            empty;
    }
}


// ************************************************************************* //
