/*--------------------------------*- C++ -*----------------------------------*\
| =========                 |                                                 |
| \\      /  F ield         | foam-extend: Open Source CFD                    |
|  \\    /   O peration     | Version:     4.1                                |
|   \\  /    A nd           | Web:         http://www.foam-extend.org         |
|    \\/     M anipulation  |                                                 |
\*---------------------------------------------------------------------------*/
FoamFile
{
    version     2.0;
    format      ascii;
    class       volScalarField;
    location    "2";
    object      sigmaHyd;
}
// * * * * * * * * * * * * * * * * * * * * * * * * * * * * * * * * * * * * * //

dimensions      [1 -1 -2 0 0 0 0];

internalField   nonuniform List<scalar> 
1000
(
-109274
-104605
-103381
-101168
-100060
-98799
-97992.6
-97154.2
-96757.7
-95596.5
-140422
-129788
-124908
-119285
-115687
-112229
-109664
-107264
-105565
-103144
-170399
-154029
-145636
-136738
-130757
-125191
-120961
-117043
-114144
-110448
-198474
-176726
-165036
-153066
-144840
-137299
-131481
-126181
-122100
-117443
-223966
-197333
-182648
-167890
-157626
-148295
-141036
-134489
-129329
-123848
-246248
-215343
-198036
-180840
-168792
-157899
-149373
-141748
-135625
-129480
-264772
-230311
-210822
-191599
-178067
-165874
-156293
-147775
-140839
-134168
-279079
-241874
-220701
-199913
-185234
-172040
-161641
-152437
-144862
-137803
-288805
-249729
-227408
-205554
-190093
-176216
-165258
-155588
-147573
-140257
-293737
-253782
-230927
-208555
-192712
-178495
-167254
-157346
-149104
-141655
108407
71210.5
46782.1
25122.4
8816.25
-5249.83
-16646
-26578.2
-34873.9
-42461.4
103346
67048.3
43143.8
22018.9
6107.75
-7602.98
-18703.6
-28384.9
-36440.9
-43887.1
93492.4
59110.9
36384
16348.8
1236.98
-11775.8
-22303.2
-31504.5
-39104.1
-46286.4
78979.6
47413.7
26414.7
7978.27
-5961.27
-17949.1
-27636.9
-36132.1
-43069.2
-49854.7
60213.9
32287.2
13525.3
-2843.32
-15267.7
-25930.7
-34538.8
-42119.1
-48217.4
-54468.4
37673.2
14107.1
-1975.23
-15862.4
-26469.1
-35540.2
-42855.6
-49331.9
-54439.8
-60013.5
11936.8
-6662.15
-19694.6
-30753
-39292.4
-46546.7
-52401.3
-57604.9
-61620.4
-66354.5
-16346.9
-29497.6
-39185.4
-47135.7
-53402.3
-58656.5
-62901.9
-66697
-69513.1
-73255.1
-46475.2
-53839
-59980.9
-64631.1
-68498.1
-71626.7
-74203.3
-76452.7
-78104.2
-80493.3
-77702.7
-79074.8
-81542.6
-82768.4
-84134.3
-85054.1
-85859.9
-86536.3
-86857
-87952.4
-48623.8
-54499.6
-59676.8
-64483.9
-68911.6
-73059.6
-76979.8
-80719.2
-84325.3
-87833.5
-91278.9
-94697.1
-98109.1
-101565
-105053
-108685
-112332
-116338
-120137
-124935
-49797.8
-55376.2
-60383.4
-65007.6
-69312.6
-73341.8
-77171.6
-80827.7
-84364.4
-87808.9
-91197.4
-94562.3
-97923.7
-101330
-104769
-108351
-111946
-115896
-119638
-124366
-51710.1
-56757.1
-61476.1
-65780.9
-69882.2
-73709
-77388.9
-80905
-84325.8
-87663.2
-90955.6
-94229.2
-97503.7
-100824
-104177
-107669
-111172
-115021
-118659
-123257
-54597.5
-58820.2
-63131.1
-66949.7
-70751
-74273.9
-77730.2
-81038
-84286.6
-87465.9
-90617
-93757.5
-96905.3
-100101
-103329
-106691
-110060
-113759
-117246
-121654
-58400
-61513.2
-65333.6
-68518.9
-71941.7
-75076.6
-78246.5
-81288.9
-84315.4
-87291.4
-90258.7
-93225.7
-96207.5
-99238.9
-102302
-105493
-108685
-112188
-115476
-119629
-63058.8
-64768.8
-68019.3
-70427.2
-73380.1
-76044.8
-78859
-81582.3
-84339.9
-87075.8
-89827.1
-92593.2
-95383.6
-98226.4
-101100
-104092
-107080
-110350
-113402
-117250
-68527.1
-68620.2
-71252.4
-72817.8
-75228.8
-77385.5
-79789.7
-82156.2
-84600
-87055.9
-89549.5
-92074.4
-94632.9
-97247
-99891.8
-102644
-105384
-108376
-111148
-114630
-74530.8
-72839.3
-74665.1
-75347.2
-77076.4
-78680.7
-80605.9
-82586.3
-84692.8
-86861.7
-89097.2
-91386.5
-93721
-96114.3
-98536.3
-101052
-103545
-106251
-108731
-111824
-81173.8
-77979.6
-78786.4
-78746.4
-79719.3
-80789.8
-82193.7
-83745.2
-85453.7
-87267.9
-89174.1
-91156.2
-93197
-95302.9
-97439.1
-99657.1
-101846
-104208
-106345
-108988
-86737.1
-83104.5
-82162.4
-81398.2
-81400
-81837.6
-82685.5
-83824.8
-85200
-86748.6
-88430.6
-90215
-92071.2
-93993.3
-95939.7
-97948
-99911
-101999
-103859
-106120
-92067.3
-89231.3
-86915
-85511.3
-84832.3
-84679.3
-84985.8
-85631.3
-86556.2
-87692.8
-88995.2
-90426
-91948.3
-93547.4
-95178.1
-96862
-98498.5
-100217
-101705
-103477
-94287.7
-91530.5
-89352.5
-87917.2
-87102.5
-86760.6
-86829.4
-87213.4
-87860
-88709.8
-89720.2
-90854.2
-92075.4
-93364.6
-94677.8
-96025.3
-97316.4
-98650.3
-99759.4
-101062
-96530.9
-93628.3
-91456.5
-89838.5
-88828.7
-88252
-88080
-88215.6
-88614.2
-89216.2
-89980.5
-90868.4
-91843
-92881
-93939.2
-95018
-96035.8
-97063.1
-97875.2
-98796.1
-97775.8
-94919.6
-92906.5
-91275.2
-90211.5
-89516
-89192.7
-89148.8
-89350.8
-89743.4
-90289.7
-90952.1
-91695
-92493
-93304.9
-94123.3
-94876.4
-95610.3
-96141.7
-96708.6
-98350.4
-95637.4
-93800.8
-92195.9
-91118.8
-90348.1
-89920.1
-89743.1
-89794.5
-90021.9
-90392.7
-90870.2
-91421.2
-92018.6
-92624.1
-93223.8
-93755.6
-94244.2
-94544.3
-94817.8
-98392.5
-95872.9
-94240.2
-92725.1
-91692.3
-90905.8
-90425.9
-90163.5
-90106.1
-90205.3
-90433.1
-90755.4
-91141.4
-91564.1
-91988.3
-92395.9
-92734.1
-93010.2
-93113.5
-93140.4
-97996.7
-95717.3
-94291.8
-92898.7
-91937.9
-91170.9
-90674.1
-90362.4
-90231.3
-90236.6
-90354.8
-90554.2
-90807.1
-91087.2
-91362.7
-91612.6
-91793
-91897.2
-91844.7
-91677.9
-97270.7
-95250.8
-94034.9
-92790.4
-91927.6
-91212.5
-90730.6
-90401.7
-90227.9
-90169.1
-90206.1
-90310.2
-90457
-90621.5
-90775.7
-90897.1
-90950.1
-90917.3
-90744.8
-90431.1
-96281.4
-94533.5
-93523.9
-92443.8
-91694.6
-91053.8
-90610
-90289.5
-90098.6
-90001.6
-89983.3
-90018
-90084.8
-90160.4
-90220.9
-90243.2
-90199.3
-90064.4
-89806.4
-89390.7
-95094.3
-93621.4
-92814.4
-91909.2
-91286.1
-90737.5
-90351.3
-90060.3
-89873.9
-89760.9
-89709.4
-89697.2
-89706.6
-89716.8
-89707.7
-89656.8
-89543
-89336.6
-89023.6
-88545.5
-93757.1
-92557.5
-91949.5
-91225.5
-90736.6
-90293.4
-89979.4
-89734.7
-89570.4
-89459.7
-89394
-89354.3
-89326.5
-89292.3
-89235.4
-89134.8
-88975.5
-88725.4
-88384.5
-87879
-92307.7
-91380.4
-90967.4
-90428.8
-90080.4
-89752.7
-89522.6
-89337.5
-89209.6
-89116.3
-89052
-89001.2
-88952.9
-88892
-88806
-88676
-88492.1
-88222.2
-87876.2
-87372.8
-90782.6
-90119.6
-89903.5
-89552.9
-89350
-89145.3
-89007.5
-88892.1
-88811.2
-88746.9
-88696
-88646.8
-88591.6
-88518.7
-88419
-88276.5
-88085.6
-87815.8
-87483.9
-87007
-89198.1
-88808.4
-88783.3
-88623.3
-88569.4
-88493.4
-88454.9
-88416.9
-88391.2
-88364.6
-88336.3
-88298.5
-88246.9
-88173.2
-88072.2
-87930.8
-87747.2
-87494
-87191.3
-86760.4
-87597.8
-87446.3
-87642.1
-87679.3
-87775.5
-87833
-87896.1
-87939.5
-87973.1
-87988.7
-87988
-87967.2
-87925.6
-87858.6
-87764.6
-87634.3
-87468.8
-87244.6
-86983
-86613
-85959.8
-86119.8
-86493.1
-86721.8
-86974.7
-87167.9
-87338.8
-87467.3
-87563.7
-87624.5
-87654.3
-87653.7
-87625.7
-87570.1
-87488.9
-87376.8
-87237.6
-87052.2
-86841
-86543.3
-84393.2
-84880
-85389.6
-85865
-86234.2
-86567.1
-86836.2
-87046.6
-87201.1
-87303.2
-87359.7
-87376.2
-87359.7
-87314.7
-87247
-87155.7
-87047.1
-86906.6
-86752.4
-86534.6
-82764
-83491.1
-84268.7
-84920.4
-85497.3
-85970.7
-86356.4
-86651
-86865.7
-87007.3
-87087.8
-87118
-87109.9
-87073.4
-87018.9
-86950.2
-86875.8
-86785.6
-86694.6
-86562.3
-81351
-82352.3
-83372.2
-84217
-84950.2
-85550.4
-86029.2
-86390.3
-86646.4
-86810.1
-86897.8
-86926
-86912.2
-86871.9
-86821
-86768.3
-86725.6
-86686.4
-86663.6
-86616.1
-79694.4
-81089.8
-82340.2
-83424.3
-84350.8
-85104.3
-85696.6
-86134.3
-86435.5
-86618.8
-86707.4
-86725
-86696.7
-86645.4
-86593.7
-86556.9
-86549.8
-86568.6
-86617.3
-86648.9
-135389
-134209
-132170
-129113
-125112
-120227
-114574
-108355
-101800
-95549.4
-129695
-128832
-127391
-125245
-122463
-119083
-115164
-110703
-105729
-99199.1
-124581
-123862
-122673
-120882
-118537
-115663
-112350
-108654
-104861
-100202
-119928
-119386
-118520
-117216
-115505
-113386
-110899
-108007
-104861
-100989
-115627
-115193
-114514
-113483
-112125
-110444
-108483
-106261
-103827
-101075
-111649
-111326
-110843
-110103
-109116
-107880
-106389
-104694
-102694
-100707
-107906
-107663
-107317
-106782
-106058
-105154
-104039
-102817
-101249
-99933.2
-104375
-104207
-103991
-103648
-103166
-102557
-101755
-100906
-99674.3
-98859.5
-100998
-100891
-100778
-100589
-100305
-99942.2
-99410.5
-98887
-97968.9
-97549.5
-97749.4
-97698.4
-97679.7
-97632.1
-97524.7
-97377.1
-97080
-96824.7
-96182.3
-96066.8
-94593.3
-94590.9
-94655
-94730.4
-94779.1
-94821.6
-94737
-94716.1
-94329.7
-94455.9
-91499.9
-91542.8
-91684.1
-91873.4
-92066.8
-92281.5
-92392.1
-92577
-92427.7
-92751.3
-88449
-88533.9
-88747.6
-89043.2
-89372.7
-89747.9
-90043.3
-90417.1
-90493
-90985.4
-85398
-85523.7
-85808.1
-86206.9
-86669
-87198.8
-87674.3
-88227.5
-88522.4
-89169.9
-82356.4
-82522
-82876.3
-83377
-83970.8
-84653.3
-85307.5
-86038.4
-86548.2
-87346.4
-79230.2
-79436.6
-79863.2
-80468.8
-81198.8
-82038.7
-82878.9
-83792.2
-84527.2
-85481
-76127.5
-76375.5
-76876.2
-77589.6
-78459.5
-79462.3
-80492.9
-81601.5
-82559.5
-83718.9
-72760.3
-73053.7
-73636.3
-74468.9
-75494.7
-76679
-77924.2
-79244
-80461.7
-81777.9
-69604.3
-69944.4
-70610.5
-71564.7
-72749.1
-74119.5
-75582.6
-77125
-78599.3
-80110.6
-65649.5
-66046.5
-66817.7
-67925.4
-69312
-70923
-72669
-74506.3
-76318.7
-78103
)
;

boundaryField
{
    left
    {
        type            symmetryPlane;
        value           nonuniform List<scalar> 
30
(
-135389
-129695
-124581
-119928
-115627
-111649
-107906
-104375
-100998
-97749.4
-94593.3
-91499.9
-88449
-85398
-82356.4
-79230.2
-76127.5
-72760.3
-69604.3
-65649.5
-293737
-253782
-230927
-208555
-192712
-178495
-167254
-157346
-149104
-141655
)
;
    }
    right
    {
        type            zeroGradient;
    }
    down
    {
        type            symmetryPlane;
        value           nonuniform List<scalar> 
30
(
108407
71210.5
46782.1
25122.4
8816.25
-5249.83
-16646
-26578.2
-34873.9
-42461.4
-48623.8
-54499.6
-59676.8
-64483.9
-68911.6
-73059.6
-76979.8
-80719.2
-84325.3
-87833.5
-91278.9
-94697.1
-98109.1
-101565
-105053
-108685
-112332
-116338
-120137
-124935
)
;
    }
    up
    {
        type            zeroGradient;
    }
    hole
    {
        type            zeroGradient;
    }
    frontAndBack
    {
        type            empty;
    }
}


// ************************************************************************* //
