/*--------------------------------*- C++ -*----------------------------------*\
| =========                 |                                                 |
| \\      /  F ield         | foam-extend: Open Source CFD                    |
|  \\    /   O peration     | Version:     4.1                                |
|   \\  /    A nd           | Web:         http://www.foam-extend.org         |
|    \\/     M anipulation  |                                                 |
\*---------------------------------------------------------------------------*/
FoamFile
{
    version     2.0;
    format      ascii;
    class       vectorField;
    location    "2";
    object      solidsCellD_iteration4;
}
// * * * * * * * * * * * * * * * * * * * * * * * * * * * * * * * * * * * * * //


1000
(
(8.87362e-07 -2.93471e-07 0)
(8.47774e-07 -2.77955e-07 0)
(8.24181e-07 -2.70151e-07 0)
(8.12605e-07 -2.69068e-07 0)
(8.09408e-07 -2.71994e-07 0)
(8.12407e-07 -2.77963e-07 0)
(8.19982e-07 -2.86032e-07 0)
(8.30901e-07 -2.95807e-07 0)
(8.44384e-07 -3.06689e-07 0)
(8.5807e-07 -3.19024e-07 0)
(8.04046e-07 -3.20702e-07 0)
(7.61686e-07 -3.11945e-07 0)
(7.36072e-07 -3.08582e-07 0)
(7.22916e-07 -3.10589e-07 0)
(7.1834e-07 -3.15651e-07 0)
(7.19793e-07 -3.23214e-07 0)
(7.25689e-07 -3.32459e-07 0)
(7.34755e-07 -3.43078e-07 0)
(7.46192e-07 -3.54511e-07 0)
(7.58312e-07 -3.67091e-07 0)
(7.16796e-07 -3.46494e-07 0)
(6.73388e-07 -3.45236e-07 0)
(6.47036e-07 -3.46663e-07 0)
(6.32928e-07 -3.51945e-07 0)
(6.27332e-07 -3.59176e-07 0)
(6.27635e-07 -3.68251e-07 0)
(6.3221e-07 -3.78512e-07 0)
(6.39911e-07 -3.89718e-07 0)
(6.4988e-07 -4.01484e-07 0)
(6.60833e-07 -4.14021e-07 0)
(6.26531e-07 -3.7037e-07 0)
(5.83925e-07 -3.76917e-07 0)
(5.5798e-07 -3.83269e-07 0)
(5.43709e-07 -3.91874e-07 0)
(5.37523e-07 -4.01289e-07 0)
(5.37018e-07 -4.1179e-07 0)
(5.40564e-07 -4.22966e-07 0)
(5.47097e-07 -4.34713e-07 0)
(5.55812e-07 -4.46849e-07 0)
(5.65624e-07 -4.59429e-07 0)
(5.33828e-07 -3.91819e-07 0)
(4.93888e-07 -4.06063e-07 0)
(4.69427e-07 -4.17313e-07 0)
(4.55781e-07 -4.2915e-07 0)
(4.4961e-07 -4.40624e-07 0)
(4.48607e-07 -4.52487e-07 0)
(4.51327e-07 -4.64542e-07 0)
(4.56736e-07 -4.76825e-07 0)
(4.64223e-07 -4.89301e-07 0)
(4.72792e-07 -5.02005e-07 0)
(4.39204e-07 -4.10441e-07 0)
(4.03627e-07 -4.3185e-07 0)
(3.81814e-07 -4.47631e-07 0)
(3.6954e-07 -4.62469e-07 0)
(3.63835e-07 -4.75881e-07 0)
(3.62562e-07 -4.89026e-07 0)
(3.64599e-07 -5.01864e-07 0)
(3.69007e-07 -5.14668e-07 0)
(3.7525e-07 -5.27485e-07 0)
(3.82455e-07 -5.40367e-07 0)
(3.43065e-07 -4.25835e-07 0)
(3.13537e-07 -4.53504e-07 0)
(2.95397e-07 -4.73255e-07 0)
(2.85099e-07 -4.90711e-07 0)
(2.80189e-07 -5.05799e-07 0)
(2.78936e-07 -5.20057e-07 0)
(2.80425e-07 -5.33595e-07 0)
(2.83859e-07 -5.46876e-07 0)
(2.88792e-07 -5.60024e-07 0)
(2.94511e-07 -5.73123e-07 0)
(2.45808e-07 -4.37671e-07 0)
(2.23684e-07 -4.70364e-07 0)
(2.10076e-07 -4.93307e-07 0)
(2.02347e-07 -5.12839e-07 0)
(1.98564e-07 -5.29278e-07 0)
(1.97513e-07 -5.44417e-07 0)
(1.9852e-07 -5.58541e-07 0)
(2.00985e-07 -5.7221e-07 0)
(2.04557e-07 -5.85611e-07 0)
(2.08686e-07 -5.9888e-07 0)
(1.4781e-07 -4.45705e-07 0)
(1.34139e-07 -4.81903e-07 0)
(1.25704e-07 -5.07061e-07 0)
(1.20845e-07 -5.28076e-07 0)
(1.18436e-07 -5.45463e-07 0)
(1.17782e-07 -5.61231e-07 0)
(1.18405e-07 -5.75769e-07 0)
(1.1987e-07 -5.89727e-07 0)
(1.21988e-07 -6.03355e-07 0)
(1.24475e-07 -6.168e-07 0)
(4.93856e-08 -4.49758e-07 0)
(4.4708e-08 -4.87732e-07 0)
(4.18343e-08 -5.14067e-07 0)
(4.02205e-08 -5.35841e-07 0)
(3.94177e-08 -5.53689e-07 0)
(3.91583e-08 -5.69765e-07 0)
(3.93423e-08 -5.84504e-07 0)
(3.98406e-08 -5.98594e-07 0)
(4.05502e-08 -6.12309e-07 0)
(4.13684e-08 -6.25806e-07 0)
(1.36492e-06 -1.33423e-08 0)
(1.37562e-06 -9.80462e-09 0)
(1.38426e-06 -7.65866e-09 0)
(1.39452e-06 -6.49239e-09 0)
(1.40653e-06 -5.97673e-09 0)
(1.421e-06 -5.88333e-09 0)
(1.43785e-06 -6.04232e-09 0)
(1.45698e-06 -6.42024e-09 0)
(1.47837e-06 -6.94482e-09 0)
(1.50176e-06 -7.49661e-09 0)
(1.35532e-06 -4.00313e-08 0)
(1.36432e-06 -2.96241e-08 0)
(1.37193e-06 -2.33689e-08 0)
(1.38146e-06 -1.99963e-08 0)
(1.393e-06 -1.84521e-08 0)
(1.40709e-06 -1.81892e-08 0)
(1.42371e-06 -1.8759e-08 0)
(1.44267e-06 -1.98898e-08 0)
(1.46389e-06 -2.14018e-08 0)
(1.48713e-06 -2.30707e-08 0)
(1.336e-06 -6.69678e-08 0)
(1.34179e-06 -5.02853e-08 0)
(1.34741e-06 -4.0268e-08 0)
(1.35566e-06 -3.49314e-08 0)
(1.36631e-06 -3.25603e-08 0)
(1.37981e-06 -3.22017e-08 0)
(1.39596e-06 -3.31662e-08 0)
(1.41451e-06 -3.50459e-08 0)
(1.43538e-06 -3.75699e-08 0)
(1.45832e-06 -4.03727e-08 0)
(1.30735e-06 -9.42326e-08 0)
(1.30864e-06 -7.22521e-08 0)
(1.31135e-06 -5.91014e-08 0)
(1.31776e-06 -5.2158e-08 0)
(1.32715e-06 -4.91491e-08 0)
(1.33968e-06 -4.88133e-08 0)
(1.35515e-06 -5.02557e-08 0)
(1.37321e-06 -5.29343e-08 0)
(1.39364e-06 -5.64817e-08 0)
(1.4162e-06 -6.0384e-08 0)
(1.26968e-06 -1.21942e-07 0)
(1.26545e-06 -9.59576e-08 0)
(1.2646e-06 -8.04683e-08 0)
(1.26861e-06 -7.24103e-08 0)
(1.27645e-06 -6.90418e-08 0)
(1.28789e-06 -6.89019e-08 0)
(1.30251e-06 -7.09194e-08 0)
(1.31994e-06 -7.44033e-08 0)
(1.33978e-06 -7.89366e-08 0)
(1.36189e-06 -8.38984e-08 0)
(1.22356e-06 -1.50099e-07 0)
(1.21301e-06 -1.21647e-07 0)
(1.20812e-06 -1.04763e-07 0)
(1.20945e-06 -9.62021e-08 0)
(1.21553e-06 -9.28452e-08 0)
(1.22573e-06 -9.30929e-08 0)
(1.23942e-06 -9.57448e-08 0)
(1.25611e-06 -1.00032e-07 0)
(1.27533e-06 -1.05517e-07 0)
(1.29702e-06 -1.11501e-07 0)
(1.16951e-06 -1.78652e-07 0)
(1.1523e-06 -1.49426e-07 0)
(1.14317e-06 -1.32222e-07 0)
(1.14166e-06 -1.23837e-07 0)
(1.14583e-06 -1.20897e-07 0)
(1.1547e-06 -1.21742e-07 0)
(1.16738e-06 -1.25104e-07 0)
(1.18326e-06 -1.30212e-07 0)
(1.2018e-06 -1.36632e-07 0)
(1.22313e-06 -1.43587e-07 0)
(1.10817e-06 -2.07507e-07 0)
(1.08432e-06 -1.79274e-07 0)
(1.07094e-06 -1.62866e-07 0)
(1.06658e-06 -1.55329e-07 0)
(1.06879e-06 -1.53232e-07 0)
(1.0763e-06 -1.54919e-07 0)
(1.08797e-06 -1.59108e-07 0)
(1.10308e-06 -1.65072e-07 0)
(1.12097e-06 -1.72388e-07 0)
(1.14196e-06 -1.80234e-07 0)
(1.04023e-06 -2.36452e-07 0)
(1.01016e-06 -2.10963e-07 0)
(9.92879e-07 -1.96441e-07 0)
(9.8582e-07 -1.90445e-07 0)
(9.86147e-07 -1.89623e-07 0)
(9.9224e-07 -1.92436e-07 0)
(1.00281e-06 -1.97625e-07 0)
(1.01703e-06 -2.04487e-07 0)
(1.03412e-06 -2.12661e-07 0)
(1.05462e-06 -2.21235e-07 0)
(9.66417e-07 -2.65193e-07 0)
(9.30937e-07 -2.4403e-07 0)
(9.10186e-07 -2.32438e-07 0)
(9.00716e-07 -2.2865e-07 0)
(8.99272e-07 -2.29525e-07 0)
(9.03899e-07 -2.33782e-07 0)
(9.13289e-07 -2.40255e-07 0)
(9.26559e-07 -2.48343e-07 0)
(9.42927e-07 -2.57686e-07 0)
(9.62403e-07 -2.67528e-07 0)
(1.52694e-06 -8.01662e-09 0)
(1.55426e-06 -8.2928e-09 0)
(1.58319e-06 -8.53637e-09 0)
(1.61359e-06 -8.73412e-09 0)
(1.64526e-06 -8.88566e-09 0)
(1.67815e-06 -8.99503e-09 0)
(1.71219e-06 -9.07653e-09 0)
(1.74724e-06 -9.13906e-09 0)
(1.78314e-06 -9.16136e-09 0)
(1.81983e-06 -9.12717e-09 0)
(1.85726e-06 -9.03543e-09 0)
(1.89533e-06 -8.89376e-09 0)
(1.93394e-06 -8.70921e-09 0)
(1.97303e-06 -8.4793e-09 0)
(2.01255e-06 -8.19072e-09 0)
(2.05236e-06 -7.83146e-09 0)
(2.09242e-06 -7.39422e-09 0)
(2.13258e-06 -6.87005e-09 0)
(2.17281e-06 -6.2494e-09 0)
(2.21281e-06 -5.53413e-09 0)
(1.51292e-06 -2.46141e-08 0)
(1.54137e-06 -2.53743e-08 0)
(1.5713e-06 -2.6027e-08 0)
(1.60258e-06 -2.65571e-08 0)
(1.63511e-06 -2.69744e-08 0)
(1.66877e-06 -2.72912e-08 0)
(1.70349e-06 -2.75075e-08 0)
(1.73914e-06 -2.76245e-08 0)
(1.77561e-06 -2.76128e-08 0)
(1.81284e-06 -2.74697e-08 0)
(1.85075e-06 -2.71976e-08 0)
(1.88926e-06 -2.67933e-08 0)
(1.92832e-06 -2.62477e-08 0)
(1.96786e-06 -2.55436e-08 0)
(2.00777e-06 -2.46551e-08 0)
(2.04794e-06 -2.35643e-08 0)
(2.08834e-06 -2.22506e-08 0)
(2.12882e-06 -2.06878e-08 0)
(2.1694e-06 -1.88435e-08 0)
(2.2098e-06 -1.67087e-08 0)
(1.48526e-06 -4.27493e-08 0)
(1.5159e-06 -4.37288e-08 0)
(1.54789e-06 -4.45662e-08 0)
(1.58096e-06 -4.52758e-08 0)
(1.61507e-06 -4.58346e-08 0)
(1.65018e-06 -4.62547e-08 0)
(1.68627e-06 -4.65213e-08 0)
(1.72321e-06 -4.66315e-08 0)
(1.76084e-06 -4.65455e-08 0)
(1.79913e-06 -4.62672e-08 0)
(1.83805e-06 -4.57906e-08 0)
(1.87753e-06 -4.50963e-08 0)
(1.91751e-06 -4.41605e-08 0)
(1.95789e-06 -4.29558e-08 0)
(1.99859e-06 -4.14498e-08 0)
(2.03954e-06 -3.96141e-08 0)
(2.08068e-06 -3.74103e-08 0)
(2.12185e-06 -3.48068e-08 0)
(2.1631e-06 -3.17538e-08 0)
(2.20413e-06 -2.82247e-08 0)
(1.44485e-06 -6.32704e-08 0)
(1.47864e-06 -6.4068e-08 0)
(1.51354e-06 -6.47516e-08 0)
(1.54919e-06 -6.54042e-08 0)
(1.5857e-06 -6.59172e-08 0)
(1.623e-06 -6.62915e-08 0)
(1.66105e-06 -6.64837e-08 0)
(1.69976e-06 -6.64801e-08 0)
(1.73908e-06 -6.62377e-08 0)
(1.77898e-06 -6.57632e-08 0)
(1.81941e-06 -6.50325e-08 0)
(1.8603e-06 -6.40022e-08 0)
(1.90158e-06 -6.26332e-08 0)
(1.94318e-06 -6.0896e-08 0)
(1.98504e-06 -5.87578e-08 0)
(2.02712e-06 -5.61664e-08 0)
(2.06934e-06 -5.30672e-08 0)
(2.11159e-06 -4.94226e-08 0)
(2.15389e-06 -4.51621e-08 0)
(2.19587e-06 -4.0261e-08 0)
(1.39266e-06 -8.69221e-08 0)
(1.43046e-06 -8.70594e-08 0)
(1.46916e-06 -8.71667e-08 0)
(1.50817e-06 -8.74397e-08 0)
(1.54776e-06 -8.76308e-08 0)
(1.58783e-06 -8.77366e-08 0)
(1.62847e-06 -8.76893e-08 0)
(1.66955e-06 -8.74496e-08 0)
(1.71109e-06 -8.69626e-08 0)
(1.75306e-06 -8.62112e-08 0)
(1.7954e-06 -8.51441e-08 0)
(1.83807e-06 -8.37047e-08 0)
(1.88102e-06 -8.18495e-08 0)
(1.92421e-06 -7.95445e-08 0)
(1.96762e-06 -7.67447e-08 0)
(2.01114e-06 -7.33792e-08 0)
(2.05478e-06 -6.93843e-08 0)
(2.09833e-06 -6.47101e-08 0)
(2.14195e-06 -5.92654e-08 0)
(2.1852e-06 -5.30183e-08 0)
(1.33029e-06 -1.14251e-07 0)
(1.37274e-06 -1.13168e-07 0)
(1.41589e-06 -1.12184e-07 0)
(1.45884e-06 -1.11678e-07 0)
(1.50212e-06 -1.11234e-07 0)
(1.54557e-06 -1.10839e-07 0)
(1.58936e-06 -1.1037e-07 0)
(1.63332e-06 -1.09735e-07 0)
(1.67749e-06 -1.08864e-07 0)
(1.72189e-06 -1.07718e-07 0)
(1.76653e-06 -1.06222e-07 0)
(1.81136e-06 -1.04306e-07 0)
(1.85635e-06 -1.01917e-07 0)
(1.90146e-06 -9.90137e-08 0)
(1.94671e-06 -9.55269e-08 0)
(1.99194e-06 -9.13734e-08 0)
(2.03725e-06 -8.64863e-08 0)
(2.0824e-06 -8.08004e-08 0)
(2.12761e-06 -7.42004e-08 0)
(2.17241e-06 -6.66262e-08 0)
(1.25924e-06 -1.45631e-07 0)
(1.3069e-06 -1.42726e-07 0)
(1.35513e-06 -1.40133e-07 0)
(1.40262e-06 -1.38433e-07 0)
(1.45012e-06 -1.37022e-07 0)
(1.49742e-06 -1.35853e-07 0)
(1.54467e-06 -1.34719e-07 0)
(1.59186e-06 -1.33501e-07 0)
(1.63905e-06 -1.32096e-07 0)
(1.68626e-06 -1.30428e-07 0)
(1.73352e-06 -1.28404e-07 0)
(1.78081e-06 -1.25937e-07 0)
(1.8281e-06 -1.22957e-07 0)
(1.8754e-06 -1.19411e-07 0)
(1.92269e-06 -1.15208e-07 0)
(1.96989e-06 -1.10259e-07 0)
(2.01712e-06 -1.04489e-07 0)
(2.06414e-06 -9.78036e-08 0)
(2.11117e-06 -9.00492e-08 0)
(2.15774e-06 -8.11453e-08 0)
(1.18114e-06 -1.81152e-07 0)
(1.23442e-06 -1.75764e-07 0)
(1.28814e-06 -1.71047e-07 0)
(1.34064e-06 -1.67687e-07 0)
(1.39273e-06 -1.64936e-07 0)
(1.44429e-06 -1.62668e-07 0)
(1.49543e-06 -1.60611e-07 0)
(1.5462e-06 -1.58608e-07 0)
(1.59671e-06 -1.56511e-07 0)
(1.64703e-06 -1.54197e-07 0)
(1.69718e-06 -1.51549e-07 0)
(1.74714e-06 -1.48461e-07 0)
(1.79691e-06 -1.4485e-07 0)
(1.84657e-06 -1.40642e-07 0)
(1.8961e-06 -1.35725e-07 0)
(1.94549e-06 -1.30001e-07 0)
(1.99484e-06 -1.23363e-07 0)
(2.04391e-06 -1.15687e-07 0)
(2.09293e-06 -1.06775e-07 0)
(2.14149e-06 -9.65343e-08 0)
(1.09741e-06 -2.20864e-07 0)
(1.15687e-06 -2.12344e-07 0)
(1.21645e-06 -2.05111e-07 0)
(1.27436e-06 -1.99641e-07 0)
(1.33141e-06 -1.95227e-07 0)
(1.38749e-06 -1.91544e-07 0)
(1.44279e-06 -1.883e-07 0)
(1.49739e-06 -1.85279e-07 0)
(1.55143e-06 -1.82287e-07 0)
(1.60499e-06 -1.79162e-07 0)
(1.65815e-06 -1.75762e-07 0)
(1.71091e-06 -1.71961e-07 0)
(1.76333e-06 -1.67657e-07 0)
(1.81551e-06 -1.62751e-07 0)
(1.86742e-06 -1.57105e-07 0)
(1.91912e-06 -1.50602e-07 0)
(1.97072e-06 -1.43096e-07 0)
(2.02197e-06 -1.34426e-07 0)
(2.07313e-06 -1.24353e-07 0)
(2.12384e-06 -1.12786e-07 0)
(1.00973e-06 -2.64767e-07 0)
(1.07659e-06 -2.51897e-07 0)
(1.14251e-06 -2.41732e-07 0)
(1.20625e-06 -2.33697e-07 0)
(1.26846e-06 -2.27185e-07 0)
(1.32922e-06 -2.21736e-07 0)
(1.38874e-06 -2.17028e-07 0)
(1.44721e-06 -2.12773e-07 0)
(1.5048e-06 -2.08723e-07 0)
(1.56165e-06 -2.04677e-07 0)
(1.61785e-06 -2.0046e-07 0)
(1.67343e-06 -1.95913e-07 0)
(1.72852e-06 -1.90906e-07 0)
(1.78321e-06 -1.85311e-07 0)
(1.83751e-06 -1.78961e-07 0)
(1.89154e-06 -1.71718e-07 0)
(1.94533e-06 -1.63391e-07 0)
(1.99878e-06 -1.53783e-07 0)
(2.05208e-06 -1.42619e-07 0)
(2.10501e-06 -1.29791e-07 0)
(9.39165e-07 -3.11573e-07 0)
(1.01395e-06 -2.93186e-07 0)
(1.08517e-06 -2.79967e-07 0)
(1.15349e-06 -2.69299e-07 0)
(1.21949e-06 -2.60568e-07 0)
(1.2836e-06 -2.53218e-07 0)
(1.34613e-06 -2.46854e-07 0)
(1.40732e-06 -2.41138e-07 0)
(1.46741e-06 -2.35788e-07 0)
(1.52655e-06 -2.30578e-07 0)
(1.58486e-06 -2.25309e-07 0)
(1.64238e-06 -2.19801e-07 0)
(1.69927e-06 -2.13903e-07 0)
(1.75566e-06 -2.07461e-07 0)
(1.81152e-06 -2.00292e-07 0)
(1.86704e-06 -1.92234e-07 0)
(1.9222e-06 -1.83071e-07 0)
(1.97701e-06 -1.72598e-07 0)
(2.03161e-06 -1.60531e-07 0)
(2.0859e-06 -1.46736e-07 0)
(9.01349e-07 -3.51734e-07 0)
(9.76569e-07 -3.32154e-07 0)
(1.04875e-06 -3.1676e-07 0)
(1.11859e-06 -3.04041e-07 0)
(1.18619e-06 -2.93431e-07 0)
(1.2519e-06 -2.84382e-07 0)
(1.31595e-06 -2.7646e-07 0)
(1.37858e-06 -2.69315e-07 0)
(1.44e-06 -2.62654e-07 0)
(1.50035e-06 -2.56239e-07 0)
(1.55975e-06 -2.49857e-07 0)
(1.61827e-06 -2.43315e-07 0)
(1.67608e-06 -2.36456e-07 0)
(1.73329e-06 -2.2911e-07 0)
(1.78987e-06 -2.21087e-07 0)
(1.84605e-06 -2.12221e-07 0)
(1.90176e-06 -2.02286e-07 0)
(1.9571e-06 -1.91094e-07 0)
(2.01218e-06 -1.78374e-07 0)
(2.06695e-06 -1.63942e-07 0)
(8.71523e-07 -3.88924e-07 0)
(9.45612e-07 -3.69356e-07 0)
(1.01767e-06 -3.52958e-07 0)
(1.08786e-06 -3.38887e-07 0)
(1.15619e-06 -3.26795e-07 0)
(1.22277e-06 -3.16256e-07 0)
(1.28778e-06 -3.0689e-07 0)
(1.3514e-06 -2.98377e-07 0)
(1.41376e-06 -2.90433e-07 0)
(1.47502e-06 -2.82815e-07 0)
(1.53525e-06 -2.75305e-07 0)
(1.59454e-06 -2.67708e-07 0)
(1.65308e-06 -2.59861e-07 0)
(1.71094e-06 -2.51587e-07 0)
(1.76811e-06 -2.42696e-07 0)
(1.82482e-06 -2.3302e-07 0)
(1.88099e-06 -2.2234e-07 0)
(1.93679e-06 -2.10483e-07 0)
(1.99225e-06 -1.97177e-07 0)
(2.04744e-06 -1.82187e-07 0)
(8.46174e-07 -4.24392e-07 0)
(9.18975e-07 -4.05039e-07 0)
(9.90384e-07 -3.88115e-07 0)
(1.06034e-06 -3.73117e-07 0)
(1.12879e-06 -3.59871e-07 0)
(1.19573e-06 -3.48079e-07 0)
(1.26127e-06 -3.37445e-07 0)
(1.32547e-06 -3.27688e-07 0)
(1.38846e-06 -3.18543e-07 0)
(1.45035e-06 -3.0978e-07 0)
(1.51121e-06 -3.01183e-07 0)
(1.57109e-06 -2.92561e-07 0)
(1.63021e-06 -2.83755e-07 0)
(1.6886e-06 -2.74581e-07 0)
(1.74625e-06 -2.64858e-07 0)
(1.80342e-06 -2.54419e-07 0)
(1.86e-06 -2.4306e-07 0)
(1.9162e-06 -2.30611e-07 0)
(1.97202e-06 -2.16787e-07 0)
(2.02758e-06 -2.01351e-07 0)
(8.24297e-07 -4.58294e-07 0)
(8.95776e-07 -4.39279e-07 0)
(9.66255e-07 -4.22157e-07 0)
(1.03565e-06 -4.06568e-07 0)
(1.10382e-06 -3.92467e-07 0)
(1.17074e-06 -3.7967e-07 0)
(1.23643e-06 -3.6796e-07 0)
(1.3009e-06 -3.57102e-07 0)
(1.36422e-06 -3.4686e-07 0)
(1.4265e-06 -3.37029e-07 0)
(1.48777e-06 -3.27403e-07 0)
(1.54809e-06 -3.17805e-07 0)
(1.60764e-06 -3.08084e-07 0)
(1.66645e-06 -2.98056e-07 0)
(1.72451e-06 -2.87547e-07 0)
(1.78206e-06 -2.76397e-07 0)
(1.839e-06 -2.64414e-07 0)
(1.89554e-06 -2.51425e-07 0)
(1.95168e-06 -2.37134e-07 0)
(2.0076e-06 -2.21396e-07 0)
(8.05056e-07 -4.90852e-07 0)
(8.75231e-07 -4.72229e-07 0)
(9.44707e-07 -4.55066e-07 0)
(1.01333e-06 -4.39109e-07 0)
(1.08098e-06 -4.24384e-07 0)
(1.14761e-06 -4.10795e-07 0)
(1.21319e-06 -3.98189e-07 0)
(1.27765e-06 -3.86377e-07 0)
(1.34107e-06 -3.7516e-07 0)
(1.40354e-06 -3.6436e-07 0)
(1.46506e-06 -3.5379e-07 0)
(1.52566e-06 -3.43292e-07 0)
(1.58553e-06 -3.32726e-07 0)
(1.64465e-06 -3.21911e-07 0)
(1.70304e-06 -3.10682e-07 0)
(1.7609e-06 -2.98883e-07 0)
(1.81814e-06 -2.86331e-07 0)
(1.87497e-06 -2.72851e-07 0)
(1.9314e-06 -2.58186e-07 0)
(1.98765e-06 -2.42293e-07 0)
(7.87937e-07 -5.22218e-07 0)
(8.56832e-07 -5.03993e-07 0)
(9.25288e-07 -4.86886e-07 0)
(9.93013e-07 -4.70725e-07 0)
(1.06001e-06 -4.55567e-07 0)
(1.12617e-06 -4.41371e-07 0)
(1.19143e-06 -4.28037e-07 0)
(1.2557e-06 -4.15417e-07 0)
(1.31905e-06 -4.03353e-07 0)
(1.38155e-06 -3.91698e-07 0)
(1.44316e-06 -3.80283e-07 0)
(1.50392e-06 -3.68972e-07 0)
(1.56399e-06 -3.57638e-07 0)
(1.62332e-06 -3.46103e-07 0)
(1.68196e-06 -3.34214e-07 0)
(1.74005e-06 -3.21818e-07 0)
(1.79752e-06 -3.08745e-07 0)
(1.85461e-06 -2.94838e-07 0)
(1.91131e-06 -2.79914e-07 0)
(1.96783e-06 -2.63943e-07 0)
(7.72576e-07 -5.52496e-07 0)
(8.40254e-07 -5.34662e-07 0)
(9.0766e-07 -5.17687e-07 0)
(9.74456e-07 -5.01439e-07 0)
(1.0407e-06 -4.85995e-07 0)
(1.10626e-06 -4.71342e-07 0)
(1.17106e-06 -4.57422e-07 0)
(1.23501e-06 -4.4413e-07 0)
(1.29815e-06 -4.31342e-07 0)
(1.36053e-06 -4.18942e-07 0)
(1.42212e-06 -4.06783e-07 0)
(1.48292e-06 -3.94748e-07 0)
(1.54309e-06 -3.8272e-07 0)
(1.60253e-06 -3.70528e-07 0)
(1.66133e-06 -3.58034e-07 0)
(1.71958e-06 -3.45092e-07 0)
(1.77725e-06 -3.31556e-07 0)
(1.83455e-06 -3.17306e-07 0)
(1.89148e-06 -3.02219e-07 0)
(1.94823e-06 -2.86169e-07 0)
(7.58635e-07 -5.8179e-07 0)
(8.25174e-07 -5.64344e-07 0)
(8.91527e-07 -5.47549e-07 0)
(9.57395e-07 -5.31294e-07 0)
(1.02283e-06 -5.15663e-07 0)
(1.08771e-06 -5.00665e-07 0)
(1.15196e-06 -4.86277e-07 0)
(1.21549e-06 -4.72428e-07 0)
(1.27831e-06 -4.59026e-07 0)
(1.34049e-06 -4.4599e-07 0)
(1.40194e-06 -4.33185e-07 0)
(1.46268e-06 -4.20515e-07 0)
(1.52285e-06 -4.07869e-07 0)
(1.58232e-06 -3.95086e-07 0)
(1.64119e-06 -3.82045e-07 0)
(1.69956e-06 -3.68621e-07 0)
(1.75737e-06 -3.547e-07 0)
(1.81486e-06 -3.40195e-07 0)
(1.87196e-06 -3.24974e-07 0)
(1.9289e-06 -3.08875e-07 0)
(7.45825e-07 -6.10205e-07 0)
(8.11276e-07 -5.93145e-07 0)
(8.76615e-07 -5.76546e-07 0)
(9.4156e-07 -5.60321e-07 0)
(1.00616e-06 -5.44566e-07 0)
(1.07033e-06 -5.29303e-07 0)
(1.13399e-06 -5.14542e-07 0)
(1.19703e-06 -5.0024e-07 0)
(1.25948e-06 -4.86335e-07 0)
(1.32137e-06 -4.72768e-07 0)
(1.38261e-06 -4.59419e-07 0)
(1.44321e-06 -4.46206e-07 0)
(1.50328e-06 -4.33021e-07 0)
(1.56271e-06 -4.19721e-07 0)
(1.6216e-06 -4.06206e-07 0)
(1.68003e-06 -3.9238e-07 0)
(1.73796e-06 -3.78157e-07 0)
(1.79557e-06 -3.63451e-07 0)
(1.85281e-06 -3.48092e-07 0)
(1.90991e-06 -3.32047e-07 0)
(7.33906e-07 -6.37851e-07 0)
(7.98314e-07 -6.21159e-07 0)
(8.62674e-07 -6.04744e-07 0)
(9.26704e-07 -5.88565e-07 0)
(9.90478e-07 -5.7273e-07 0)
(1.05393e-06 -5.57276e-07 0)
(1.11698e-06 -5.42234e-07 0)
(1.1795e-06 -5.2758e-07 0)
(1.24154e-06 -5.13277e-07 0)
(1.30309e-06 -4.99275e-07 0)
(1.36405e-06 -4.8547e-07 0)
(1.42445e-06 -4.7179e-07 0)
(1.48437e-06 -4.58136e-07 0)
(1.54371e-06 -4.44387e-07 0)
(1.60257e-06 -4.30474e-07 0)
(1.66103e-06 -4.16321e-07 0)
(1.71902e-06 -4.0185e-07 0)
(1.77672e-06 -3.86958e-07 0)
(1.83408e-06 -3.71501e-07 0)
(1.8913e-06 -3.55576e-07 0)
(7.22662e-07 -6.64814e-07 0)
(7.86071e-07 -6.48446e-07 0)
(8.49474e-07 -6.32203e-07 0)
(9.12624e-07 -6.16089e-07 0)
(9.75603e-07 -6.00219e-07 0)
(1.03836e-06 -5.84642e-07 0)
(1.10079e-06 -5.69399e-07 0)
(1.16279e-06 -5.54472e-07 0)
(1.22437e-06 -5.39853e-07 0)
(1.28555e-06 -5.25483e-07 0)
(1.3462e-06 -5.11284e-07 0)
(1.40635e-06 -4.97198e-07 0)
(1.46609e-06 -4.8314e-07 0)
(1.52531e-06 -4.69017e-07 0)
(1.58412e-06 -4.54781e-07 0)
(1.64258e-06 -4.40363e-07 0)
(1.70059e-06 -4.25674e-07 0)
(1.75834e-06 -4.10614e-07 0)
(1.81577e-06 -3.95161e-07 0)
(1.87311e-06 -3.79324e-07 0)
(7.11894e-07 -6.91147e-07 0)
(7.74348e-07 -6.7505e-07 0)
(8.36838e-07 -6.58985e-07 0)
(8.99155e-07 -6.42959e-07 0)
(9.61375e-07 -6.27094e-07 0)
(1.02345e-06 -6.1144e-07 0)
(1.08528e-06 -5.96048e-07 0)
(1.14675e-06 -5.80902e-07 0)
(1.20788e-06 -5.66027e-07 0)
(1.26867e-06 -5.51355e-07 0)
(1.32898e-06 -5.36832e-07 0)
(1.38887e-06 -5.22415e-07 0)
(1.44841e-06 -5.08036e-07 0)
(1.5075e-06 -4.93619e-07 0)
(1.56623e-06 -4.79126e-07 0)
(1.62465e-06 -4.64481e-07 0)
(1.68265e-06 -4.49599e-07 0)
(1.74043e-06 -4.34431e-07 0)
(1.79792e-06 -4.19036e-07 0)
(1.85533e-06 -4.03283e-07 0)
(7.01433e-07 -7.16882e-07 0)
(7.62985e-07 -7.01053e-07 0)
(8.2462e-07 -6.85166e-07 0)
(8.86149e-07 -6.69239e-07 0)
(9.4764e-07 -6.53392e-07 0)
(1.00906e-06 -6.37693e-07 0)
(1.07031e-06 -6.22201e-07 0)
(1.13127e-06 -6.06906e-07 0)
(1.19194e-06 -5.91836e-07 0)
(1.25233e-06 -5.76931e-07 0)
(1.31232e-06 -5.62147e-07 0)
(1.37194e-06 -5.47462e-07 0)
(1.4313e-06 -5.32823e-07 0)
(1.49026e-06 -5.18169e-07 0)
(1.54889e-06 -5.03456e-07 0)
(1.60723e-06 -4.8861e-07 0)
(1.6652e-06 -4.73578e-07 0)
(1.72302e-06 -4.58389e-07 0)
(1.78056e-06 -4.43003e-07 0)
(1.83801e-06 -4.2739e-07 0)
(6.91126e-07 -7.42107e-07 0)
(7.51836e-07 -7.26545e-07 0)
(8.12669e-07 -7.10815e-07 0)
(8.73451e-07 -6.94984e-07 0)
(9.34256e-07 -6.79177e-07 0)
(9.9506e-07 -6.6348e-07 0)
(1.05575e-06 -6.47928e-07 0)
(1.11622e-06 -6.32528e-07 0)
(1.17645e-06 -6.17286e-07 0)
(1.23647e-06 -6.02185e-07 0)
(1.29615e-06 -5.87201e-07 0)
(1.35554e-06 -5.72316e-07 0)
(1.41471e-06 -5.57479e-07 0)
(1.47352e-06 -5.4263e-07 0)
(1.53202e-06 -5.27729e-07 0)
(1.59029e-06 -5.12723e-07 0)
(1.64826e-06 -4.97613e-07 0)
(1.70609e-06 -4.82428e-07 0)
(1.76365e-06 -4.67029e-07 0)
(1.82111e-06 -4.51541e-07 0)
(6.8083e-07 -7.66924e-07 0)
(7.40744e-07 -7.51576e-07 0)
(8.00819e-07 -7.35968e-07 0)
(8.60915e-07 -7.20247e-07 0)
(9.21094e-07 -7.04512e-07 0)
(9.8133e-07 -6.88838e-07 0)
(1.0415e-06 -6.73237e-07 0)
(1.10148e-06 -6.57757e-07 0)
(1.16131e-06 -6.424e-07 0)
(1.22099e-06 -6.27163e-07 0)
(1.28042e-06 -6.12035e-07 0)
(1.3396e-06 -5.96994e-07 0)
(1.39858e-06 -5.81993e-07 0)
(1.45721e-06 -5.66977e-07 0)
(1.51561e-06 -5.51926e-07 0)
(1.57384e-06 -5.36826e-07 0)
(1.6318e-06 -5.21686e-07 0)
(1.68961e-06 -5.06441e-07 0)
(1.74714e-06 -4.91083e-07 0)
(1.80458e-06 -4.75689e-07 0)
(6.70386e-07 -7.91336e-07 0)
(7.2953e-07 -7.76135e-07 0)
(7.88893e-07 -7.60697e-07 0)
(8.48397e-07 -7.45115e-07 0)
(9.08009e-07 -7.29453e-07 0)
(9.67721e-07 -7.13789e-07 0)
(1.02741e-06 -6.9818e-07 0)
(1.08697e-06 -6.82648e-07 0)
(1.14645e-06 -6.67219e-07 0)
(1.20586e-06 -6.51898e-07 0)
(1.26506e-06 -6.36664e-07 0)
(1.32401e-06 -6.21494e-07 0)
(1.3828e-06 -6.06354e-07 0)
(1.4413e-06 -5.91218e-07 0)
(1.49965e-06 -5.76084e-07 0)
(1.55787e-06 -5.60925e-07 0)
(1.61576e-06 -5.45718e-07 0)
(1.67345e-06 -5.30398e-07 0)
(1.73097e-06 -5.15129e-07 0)
(1.78857e-06 -4.99834e-07 0)
(6.5956e-07 -8.1529e-07 0)
(7.18059e-07 -8.0031e-07 0)
(7.7684e-07 -7.85063e-07 0)
(8.35768e-07 -7.69585e-07 0)
(8.94859e-07 -7.54017e-07 0)
(9.5409e-07 -7.38392e-07 0)
(1.01336e-06 -7.22787e-07 0)
(1.0726e-06 -7.07244e-07 0)
(1.13183e-06 -6.91787e-07 0)
(1.19101e-06 -6.76402e-07 0)
(1.24995e-06 -6.61073e-07 0)
(1.30868e-06 -6.45811e-07 0)
(1.36736e-06 -6.30598e-07 0)
(1.42586e-06 -6.15384e-07 0)
(1.48413e-06 -6.00165e-07 0)
(1.54215e-06 -5.84939e-07 0)
(1.59995e-06 -5.69662e-07 0)
(1.65777e-06 -5.54365e-07 0)
(1.71527e-06 -5.39111e-07 0)
(1.77264e-06 -5.23895e-07 0)
(6.48188e-07 -8.39039e-07 0)
(7.06103e-07 -8.24258e-07 0)
(7.64346e-07 -8.09131e-07 0)
(8.22783e-07 -7.93775e-07 0)
(8.8142e-07 -7.78273e-07 0)
(9.40281e-07 -7.62724e-07 0)
(9.99302e-07 -7.47167e-07 0)
(1.05834e-06 -7.31629e-07 0)
(1.11732e-06 -7.16134e-07 0)
(1.17622e-06 -7.00699e-07 0)
(1.235e-06 -6.85333e-07 0)
(1.29373e-06 -6.70021e-07 0)
(1.35235e-06 -6.54729e-07 0)
(1.41063e-06 -6.39444e-07 0)
(1.46878e-06 -6.24168e-07 0)
(1.52688e-06 -6.08873e-07 0)
(1.58465e-06 -5.93536e-07 0)
(1.64236e-06 -5.78262e-07 0)
(1.69988e-06 -5.62998e-07 0)
(1.75722e-06 -5.47845e-07 0)
(6.36105e-07 -8.6241e-07 0)
(6.93498e-07 -8.47848e-07 0)
(7.51251e-07 -8.32894e-07 0)
(8.09265e-07 -8.17661e-07 0)
(8.67639e-07 -8.02289e-07 0)
(9.26346e-07 -7.86834e-07 0)
(9.85168e-07 -7.71317e-07 0)
(1.04393e-06 -7.55789e-07 0)
(1.10274e-06 -7.40303e-07 0)
(1.16165e-06 -7.24862e-07 0)
(1.2204e-06 -7.09465e-07 0)
(1.27894e-06 -6.94108e-07 0)
(1.33745e-06 -6.78755e-07 0)
(1.39576e-06 -6.63412e-07 0)
(1.45383e-06 -6.4809e-07 0)
(1.51186e-06 -6.32733e-07 0)
(1.56965e-06 -6.17387e-07 0)
(1.62732e-06 -6.02044e-07 0)
(1.68488e-06 -5.86762e-07 0)
(1.74206e-06 -5.71617e-07 0)
(4.15489e-08 -6.39388e-07 0)
(1.24969e-07 -6.30848e-07 0)
(2.09293e-07 -6.13788e-07 0)
(2.9496e-07 -5.89293e-07 0)
(3.82344e-07 -5.58041e-07 0)
(4.71686e-07 -5.2138e-07 0)
(5.63019e-07 -4.80566e-07 0)
(6.56195e-07 -4.3691e-07 0)
(7.51294e-07 -3.91692e-07 0)
(8.47256e-07 -3.45793e-07 0)
(4.08944e-08 -6.5371e-07 0)
(1.22923e-07 -6.45983e-07 0)
(2.05634e-07 -6.30444e-07 0)
(2.89337e-07 -6.08118e-07 0)
(3.74285e-07 -5.79542e-07 0)
(4.60653e-07 -5.45843e-07 0)
(5.48392e-07 -5.08131e-07 0)
(6.37294e-07 -4.67527e-07 0)
(7.2709e-07 -4.25267e-07 0)
(8.1671e-07 -3.82666e-07 0)
(4.02183e-08 -6.6863e-07 0)
(1.20817e-07 -6.61623e-07 0)
(2.01867e-07 -6.47456e-07 0)
(2.8361e-07 -6.27097e-07 0)
(3.66205e-07 -6.00978e-07 0)
(4.49752e-07 -5.70042e-07 0)
(5.34179e-07 -5.35276e-07 0)
(6.19388e-07 -4.97626e-07 0)
(7.05086e-07 -4.58229e-07 0)
(7.90594e-07 -4.18234e-07 0)
(3.95471e-08 -6.84012e-07 0)
(1.18798e-07 -6.776e-07 0)
(1.98334e-07 -6.64577e-07 0)
(2.78349e-07 -6.45856e-07 0)
(3.58958e-07 -6.2179e-07 0)
(4.40162e-07 -5.93193e-07 0)
(5.21904e-07 -5.60988e-07 0)
(6.04058e-07 -5.26022e-07 0)
(6.86306e-07 -4.89396e-07 0)
(7.68168e-07 -4.52112e-07 0)
(3.8913e-08 -6.99802e-07 0)
(1.1682e-07 -6.93913e-07 0)
(1.94941e-07 -6.81907e-07 0)
(2.7336e-07 -6.6463e-07 0)
(3.52167e-07 -6.42418e-07 0)
(4.31318e-07 -6.15954e-07 0)
(5.10739e-07 -5.86098e-07 0)
(5.90355e-07 -5.53616e-07 0)
(6.69821e-07 -5.19512e-07 0)
(7.48671e-07 -4.84684e-07 0)
(3.83262e-08 -7.15955e-07 0)
(1.14942e-07 -7.10498e-07 0)
(1.91732e-07 -6.99412e-07 0)
(2.6868e-07 -6.83378e-07 0)
(3.45856e-07 -6.62793e-07 0)
(4.23236e-07 -6.38223e-07 0)
(5.00666e-07 -6.10474e-07 0)
(5.78085e-07 -5.80276e-07 0)
(6.55192e-07 -5.48518e-07 0)
(7.31472e-07 -5.16023e-07 0)
(3.77198e-08 -7.3244e-07 0)
(1.13128e-07 -7.27355e-07 0)
(1.88638e-07 -7.17102e-07 0)
(2.64207e-07 -7.02169e-07 0)
(3.39902e-07 -6.83043e-07 0)
(4.1568e-07 -6.60197e-07 0)
(4.91391e-07 -6.34372e-07 0)
(5.66925e-07 -6.06253e-07 0)
(6.42039e-07 -5.76608e-07 0)
(7.16166e-07 -5.46231e-07 0)
(3.71198e-08 -7.49208e-07 0)
(1.11373e-07 -7.44459e-07 0)
(1.85642e-07 -7.34938e-07 0)
(2.5991e-07 -7.20997e-07 0)
(3.34262e-07 -7.03178e-07 0)
(4.08594e-07 -6.81904e-07 0)
(4.8277e-07 -6.57828e-07 0)
(5.56657e-07 -6.3158e-07 0)
(6.30066e-07 -6.03846e-07 0)
(7.02409e-07 -5.75401e-07 0)
(3.65757e-08 -7.66244e-07 0)
(1.09669e-07 -7.61789e-07 0)
(1.82726e-07 -7.52924e-07 0)
(2.55769e-07 -7.39902e-07 0)
(3.28848e-07 -7.23265e-07 0)
(4.01875e-07 -7.03415e-07 0)
(4.74686e-07 -6.80922e-07 0)
(5.47125e-07 -6.56351e-07 0)
(6.19058e-07 -6.30348e-07 0)
(6.89907e-07 -6.03669e-07 0)
(3.60491e-08 -7.83518e-07 0)
(1.07975e-07 -7.79304e-07 0)
(1.79863e-07 -7.71032e-07 0)
(2.51762e-07 -7.58862e-07 0)
(3.23632e-07 -7.43302e-07 0)
(3.95451e-07 -7.24738e-07 0)
(4.67033e-07 -7.03677e-07 0)
(5.38188e-07 -6.80636e-07 0)
(6.08819e-07 -6.56226e-07 0)
(6.78392e-07 -6.31159e-07 0)
(3.54852e-08 -8.00974e-07 0)
(1.06279e-07 -7.96968e-07 0)
(1.7705e-07 -7.89247e-07 0)
(2.47845e-07 -7.77869e-07 0)
(3.18571e-07 -7.63303e-07 0)
(3.89244e-07 -7.45907e-07 0)
(4.59693e-07 -7.26148e-07 0)
(5.29692e-07 -7.04525e-07 0)
(5.99162e-07 -6.81574e-07 0)
(6.67629e-07 -6.57959e-07 0)
(3.48997e-08 -8.18563e-07 0)
(1.04611e-07 -8.14769e-07 0)
(1.74303e-07 -8.07558e-07 0)
(2.4399e-07 -7.96916e-07 0)
(3.13614e-07 -7.83265e-07 0)
(3.83185e-07 -7.66938e-07 0)
(4.52562e-07 -7.48376e-07 0)
(5.21499e-07 -7.28057e-07 0)
(5.89919e-07 -7.06425e-07 0)
(6.57424e-07 -6.84116e-07 0)
(3.43366e-08 -8.36273e-07 0)
(1.02986e-07 -8.32708e-07 0)
(1.71599e-07 -8.25958e-07 0)
(2.40164e-07 -8.15993e-07 0)
(3.08708e-07 -8.03179e-07 0)
(3.7721e-07 -7.87833e-07 0)
(4.45554e-07 -7.7038e-07 0)
(5.1349e-07 -7.51246e-07 0)
(5.8095e-07 -7.30807e-07 0)
(6.47612e-07 -7.097e-07 0)
(3.38002e-08 -8.54096e-07 0)
(1.01363e-07 -8.50758e-07 0)
(1.68872e-07 -8.44414e-07 0)
(2.36318e-07 -8.35067e-07 0)
(3.03792e-07 -8.23021e-07 0)
(3.71248e-07 -8.08587e-07 0)
(4.38578e-07 -7.92165e-07 0)
(5.05553e-07 -7.74112e-07 0)
(5.72127e-07 -7.54793e-07 0)
(6.38025e-07 -7.34805e-07 0)
(3.32533e-08 -8.7201e-07 0)
(9.96763e-08 -8.68885e-07 0)
(1.66059e-07 -8.629e-07 0)
(2.32395e-07 -8.54123e-07 0)
(2.98792e-07 -8.42799e-07 0)
(3.65198e-07 -8.29229e-07 0)
(4.31521e-07 -8.13744e-07 0)
(4.97576e-07 -7.96679e-07 0)
(5.63319e-07 -7.7843e-07 0)
(6.28515e-07 -7.59449e-07 0)
(3.26645e-08 -8.89953e-07 0)
(9.7897e-08 -8.87034e-07 0)
(1.63125e-07 -8.81387e-07 0)
(2.28336e-07 -8.73141e-07 0)
(2.93628e-07 -8.62475e-07 0)
(3.58973e-07 -8.49689e-07 0)
(4.24301e-07 -8.3507e-07 0)
(4.89474e-07 -8.18963e-07 0)
(5.54423e-07 -8.01717e-07 0)
(6.18964e-07 -7.83673e-07 0)
(3.20319e-08 -9.07908e-07 0)
(9.60235e-08 -9.05202e-07 0)
(1.60049e-07 -8.99865e-07 0)
(2.24093e-07 -8.92091e-07 0)
(2.88245e-07 -8.82058e-07 0)
(3.52507e-07 -8.7002e-07 0)
(4.16847e-07 -8.56232e-07 0)
(4.81138e-07 -8.41055e-07 0)
(5.45308e-07 -8.24699e-07 0)
(6.09206e-07 -8.07567e-07 0)
(3.13658e-08 -9.25783e-07 0)
(9.40565e-08 -9.2327e-07 0)
(1.56809e-07 -9.18229e-07 0)
(2.19624e-07 -9.10912e-07 0)
(2.82592e-07 -9.01458e-07 0)
(3.45745e-07 -8.90122e-07 0)
(4.09071e-07 -8.77143e-07 0)
(4.72453e-07 -8.62832e-07 0)
(5.35818e-07 -8.47336e-07 0)
(5.99084e-07 -8.31054e-07 0)
(3.06668e-08 -9.43626e-07 0)
(9.19727e-08 -9.41279e-07 0)
(1.53357e-07 -9.36543e-07 0)
(2.14854e-07 -9.2965e-07 0)
(2.76567e-07 -9.20761e-07 0)
(3.38562e-07 -9.10107e-07 0)
(4.00822e-07 -8.97917e-07 0)
(4.63239e-07 -8.84394e-07 0)
(5.25747e-07 -8.69778e-07 0)
(5.88362e-07 -8.54302e-07 0)
(2.99284e-08 -9.6118e-07 0)
(8.97542e-08 -9.58953e-07 0)
(1.49659e-07 -9.54521e-07 0)
(2.09756e-07 -9.48061e-07 0)
(2.70163e-07 -9.39729e-07 0)
(3.30931e-07 -9.29741e-07 0)
(3.92023e-07 -9.18296e-07 0)
(4.53374e-07 -9.05542e-07 0)
(5.14985e-07 -8.91791e-07 0)
(5.76945e-07 -8.77142e-07 0)
)


// ************************************************************************* //
