/*--------------------------------*- C++ -*----------------------------------*\
| =========                 |                                                 |
| \\      /  F ield         | foam-extend: Open Source CFD                    |
|  \\    /   O peration     | Version:     4.1                                |
|   \\  /    A nd           | Web:         http://www.foam-extend.org         |
|    \\/     M anipulation  |                                                 |
\*---------------------------------------------------------------------------*/
FoamFile
{
    version     2.0;
    format      ascii;
    class       vectorField;
    location    "2";
    object      solidsCellD_iteration8;
}
// * * * * * * * * * * * * * * * * * * * * * * * * * * * * * * * * * * * * * //


1000
(
(9.43236e-07 -3.37711e-07 0)
(8.96871e-07 -3.17964e-07 0)
(8.6859e-07 -3.07025e-07 0)
(8.53644e-07 -3.03937e-07 0)
(8.4804e-07 -3.05531e-07 0)
(8.49338e-07 -3.10673e-07 0)
(8.55717e-07 -3.182e-07 0)
(8.65796e-07 -3.27631e-07 0)
(8.78965e-07 -3.38195e-07 0)
(8.92981e-07 -3.49769e-07 0)
(8.53892e-07 -3.69126e-07 0)
(8.04499e-07 -3.57003e-07 0)
(7.74143e-07 -3.50979e-07 0)
(7.57593e-07 -3.51302e-07 0)
(7.50543e-07 -3.55227e-07 0)
(7.50386e-07 -3.6204e-07 0)
(7.55281e-07 -3.70753e-07 0)
(7.63796e-07 -3.81068e-07 0)
(7.75198e-07 -3.92215e-07 0)
(7.87718e-07 -4.04413e-07 0)
(7.60714e-07 -3.98846e-07 0)
(7.10199e-07 -3.95228e-07 0)
(6.78997e-07 -3.94638e-07 0)
(6.61617e-07 -3.98611e-07 0)
(6.53714e-07 -4.04936e-07 0)
(6.52538e-07 -4.13392e-07 0)
(6.5629e-07 -4.23246e-07 0)
(6.63615e-07 -4.34296e-07 0)
(6.73704e-07 -4.45945e-07 0)
(6.85106e-07 -4.58348e-07 0)
(6.64419e-07 -4.26363e-07 0)
(6.14999e-07 -4.31607e-07 0)
(5.84333e-07 -4.36655e-07 0)
(5.6694e-07 -4.4436e-07 0)
(5.58704e-07 -4.53134e-07 0)
(5.56895e-07 -4.63228e-07 0)
(5.59713e-07 -4.74162e-07 0)
(5.65987e-07 -4.85898e-07 0)
(5.74857e-07 -4.98048e-07 0)
(5.85126e-07 -5.10723e-07 0)
(5.65797e-07 -4.51118e-07 0)
(5.19511e-07 -4.65103e-07 0)
(4.90695e-07 -4.75711e-07 0)
(4.74211e-07 -4.8708e-07 0)
(4.66193e-07 -4.98215e-07 0)
(4.64027e-07 -5.09899e-07 0)
(4.66111e-07 -5.21876e-07 0)
(4.7137e-07 -5.34287e-07 0)
(4.79048e-07 -5.46942e-07 0)
(4.88032e-07 -5.59938e-07 0)
(4.65153e-07 -4.72655e-07 0)
(4.24114e-07 -4.94776e-07 0)
(3.98541e-07 -5.10567e-07 0)
(3.83754e-07 -5.25373e-07 0)
(3.76395e-07 -5.38723e-07 0)
(3.74135e-07 -5.51877e-07 0)
(3.7568e-07 -5.64799e-07 0)
(3.80001e-07 -5.77842e-07 0)
(3.86421e-07 -5.90984e-07 0)
(3.93959e-07 -6.04328e-07 0)
(3.6316e-07 -4.90442e-07 0)
(3.29126e-07 -5.19706e-07 0)
(3.07895e-07 -5.40052e-07 0)
(2.95526e-07 -5.57861e-07 0)
(2.8929e-07 -5.73131e-07 0)
(2.87267e-07 -5.8757e-07 0)
(2.88387e-07 -6.01327e-07 0)
(2.9175e-07 -6.14948e-07 0)
(2.9681e-07 -6.28532e-07 0)
(3.02774e-07 -6.422e-07 0)
(2.60129e-07 -5.04156e-07 0)
(2.34589e-07 -5.39159e-07 0)
(2.18679e-07 -5.63128e-07 0)
(2.09413e-07 -5.83304e-07 0)
(2.04703e-07 -6.00141e-07 0)
(2.03116e-07 -6.15622e-07 0)
(2.03844e-07 -6.30078e-07 0)
(2.06226e-07 -6.44166e-07 0)
(2.09871e-07 -6.58105e-07 0)
(2.1418e-07 -6.72046e-07 0)
(1.56364e-07 -5.1347e-07 0)
(1.40562e-07 -5.52459e-07 0)
(1.30747e-07 -5.78953e-07 0)
(1.24972e-07 -6.0084e-07 0)
(1.21991e-07 -6.18771e-07 0)
(1.20962e-07 -6.3495e-07 0)
(1.21399e-07 -6.49901e-07 0)
(1.2285e-07 -6.64365e-07 0)
(1.25039e-07 -6.78583e-07 0)
(1.27632e-07 -6.92729e-07 0)
(5.22254e-08 -5.18164e-07 0)
(4.68783e-08 -5.59228e-07 0)
(4.35056e-08 -5.87016e-07 0)
(4.1545e-08 -6.09752e-07 0)
(4.0571e-08 -6.28238e-07 0)
(4.02077e-08 -6.44804e-07 0)
(4.03049e-08 -6.59991e-07 0)
(4.07821e-08 -6.74615e-07 0)
(4.15298e-08 -6.8897e-07 0)
(4.23937e-08 -7.03232e-07 0)
(1.45877e-06 -1.53264e-08 0)
(1.47048e-06 -1.11413e-08 0)
(1.47907e-06 -8.57024e-09 0)
(1.489e-06 -7.14039e-09 0)
(1.50052e-06 -6.43701e-09 0)
(1.51448e-06 -6.24396e-09 0)
(1.5309e-06 -6.38913e-09 0)
(1.54971e-06 -6.71513e-09 0)
(1.57095e-06 -7.2481e-09 0)
(1.59431e-06 -7.87305e-09 0)
(1.4483e-06 -4.60238e-08 0)
(1.45808e-06 -3.37137e-08 0)
(1.46547e-06 -2.61362e-08 0)
(1.47457e-06 -2.19932e-08 0)
(1.48553e-06 -2.00145e-08 0)
(1.49905e-06 -1.9408e-08 0)
(1.5152e-06 -1.98461e-08 0)
(1.5338e-06 -2.09624e-08 0)
(1.55481e-06 -2.25653e-08 0)
(1.57799e-06 -2.43477e-08 0)
(1.42733e-06 -7.69444e-08 0)
(1.43343e-06 -5.72538e-08 0)
(1.43851e-06 -4.51585e-08 0)
(1.44606e-06 -3.8456e-08 0)
(1.456e-06 -3.53156e-08 0)
(1.46883e-06 -3.45073e-08 0)
(1.48439e-06 -3.53163e-08 0)
(1.50257e-06 -3.71682e-08 0)
(1.52315e-06 -3.97902e-08 0)
(1.54597e-06 -4.27524e-08 0)
(1.39625e-06 -1.08311e-07 0)
(1.3971e-06 -8.22954e-08 0)
(1.39884e-06 -6.64353e-08 0)
(1.40422e-06 -5.77152e-08 0)
(1.41266e-06 -5.36468e-08 0)
(1.42447e-06 -5.26822e-08 0)
(1.43927e-06 -5.38517e-08 0)
(1.45687e-06 -5.64607e-08 0)
(1.47688e-06 -6.01165e-08 0)
(1.49922e-06 -6.4255e-08 0)
(1.35542e-06 -1.40182e-07 0)
(1.34987e-06 -1.09322e-07 0)
(1.34747e-06 -9.05893e-08 0)
(1.35012e-06 -8.04389e-08 0)
(1.35674e-06 -7.57952e-08 0)
(1.36727e-06 -7.48717e-08 0)
(1.3811e-06 -7.65143e-08 0)
(1.39794e-06 -7.99121e-08 0)
(1.41726e-06 -8.4558e-08 0)
(1.43907e-06 -8.97971e-08 0)
(1.30541e-06 -1.72609e-07 0)
(1.29256e-06 -1.38681e-07 0)
(1.28556e-06 -1.18149e-07 0)
(1.28515e-06 -1.07245e-07 0)
(1.28971e-06 -1.0247e-07 0)
(1.29878e-06 -1.01841e-07 0)
(1.31154e-06 -1.04056e-07 0)
(1.32753e-06 -1.08217e-07 0)
(1.34608e-06 -1.13793e-07 0)
(1.36729e-06 -1.20066e-07 0)
(1.24695e-06 -2.05534e-07 0)
(1.22636e-06 -1.70517e-07 0)
(1.21446e-06 -1.49421e-07 0)
(1.21082e-06 -1.38527e-07 0)
(1.2132e-06 -1.34059e-07 0)
(1.22073e-06 -1.33976e-07 0)
(1.23237e-06 -1.36865e-07 0)
(1.24745e-06 -1.41775e-07 0)
(1.26518e-06 -1.48229e-07 0)
(1.28578e-06 -1.55438e-07 0)
(1.18069e-06 -2.38769e-07 0)
(1.15243e-06 -2.04752e-07 0)
(1.13567e-06 -1.84388e-07 0)
(1.12881e-06 -1.74307e-07 0)
(1.12904e-06 -1.7062e-07 0)
(1.13502e-06 -1.71367e-07 0)
(1.14548e-06 -1.7507e-07 0)
(1.15964e-06 -1.80772e-07 0)
(1.17656e-06 -1.88064e-07 0)
(1.1965e-06 -1.96099e-07 0)
(1.10745e-06 -2.72109e-07 0)
(1.07206e-06 -2.41083e-07 0)
(1.05078e-06 -2.22758e-07 0)
(1.04085e-06 -2.14287e-07 0)
(1.039e-06 -2.11884e-07 0)
(1.0434e-06 -2.13747e-07 0)
(1.05262e-06 -2.18422e-07 0)
(1.06576e-06 -2.24964e-07 0)
(1.08178e-06 -2.33037e-07 0)
(1.10091e-06 -2.41626e-07 0)
(1.02805e-06 -3.05226e-07 0)
(9.86522e-07 -2.79027e-07 0)
(9.61319e-07 -2.63903e-07 0)
(9.48651e-07 -2.5783e-07 0)
(9.44865e-07 -2.57219e-07 0)
(9.47781e-07 -2.60539e-07 0)
(9.5588e-07 -2.66482e-07 0)
(9.68023e-07 -2.7421e-07 0)
(9.8337e-07 -2.83339e-07 0)
(1.00119e-06 -2.93073e-07 0)
(1.61972e-06 -8.43049e-09 0)
(1.6473e-06 -8.67439e-09 0)
(1.6765e-06 -8.8949e-09 0)
(1.7072e-06 -9.07496e-09 0)
(1.73924e-06 -9.21174e-09 0)
(1.77256e-06 -9.30364e-09 0)
(1.80699e-06 -9.33459e-09 0)
(1.84238e-06 -9.33389e-09 0)
(1.87868e-06 -9.31917e-09 0)
(1.91584e-06 -9.2601e-09 0)
(1.95373e-06 -9.13551e-09 0)
(1.99224e-06 -8.9478e-09 0)
(2.03131e-06 -8.70463e-09 0)
(2.07085e-06 -8.41327e-09 0)
(2.11079e-06 -8.06908e-09 0)
(2.15103e-06 -7.65348e-09 0)
(2.19151e-06 -7.14558e-09 0)
(2.23207e-06 -6.53028e-09 0)
(2.27271e-06 -5.7999e-09 0)
(2.31307e-06 -4.9588e-09 0)
(1.60409e-06 -2.59307e-08 0)
(1.63294e-06 -2.65836e-08 0)
(1.66327e-06 -2.7167e-08 0)
(1.69499e-06 -2.76314e-08 0)
(1.72797e-06 -2.79484e-08 0)
(1.76208e-06 -2.81601e-08 0)
(1.79723e-06 -2.82686e-08 0)
(1.83333e-06 -2.82892e-08 0)
(1.87029e-06 -2.81967e-08 0)
(1.90803e-06 -2.79394e-08 0)
(1.94644e-06 -2.75209e-08 0)
(1.98547e-06 -2.69637e-08 0)
(2.02504e-06 -2.62616e-08 0)
(2.06505e-06 -2.53934e-08 0)
(2.10543e-06 -2.43312e-08 0)
(2.14607e-06 -2.30471e-08 0)
(2.18694e-06 -2.15059e-08 0)
(2.22788e-06 -1.96744e-08 0)
(2.26888e-06 -1.75198e-08 0)
(2.30958e-06 -1.50272e-08 0)
(1.57342e-06 -4.51985e-08 0)
(1.60479e-06 -4.5992e-08 0)
(1.63741e-06 -4.66688e-08 0)
(1.67106e-06 -4.72253e-08 0)
(1.7058e-06 -4.76084e-08 0)
(1.74154e-06 -4.78656e-08 0)
(1.7782e-06 -4.79633e-08 0)
(1.81562e-06 -4.7897e-08 0)
(1.8538e-06 -4.76292e-08 0)
(1.89265e-06 -4.71249e-08 0)
(1.93212e-06 -4.64049e-08 0)
(1.97214e-06 -4.54787e-08 0)
(2.01263e-06 -4.43032e-08 0)
(2.05349e-06 -4.28299e-08 0)
(2.09468e-06 -4.10245e-08 0)
(2.13612e-06 -3.88571e-08 0)
(2.17777e-06 -3.62766e-08 0)
(2.21946e-06 -3.32358e-08 0)
(2.26121e-06 -2.96793e-08 0)
(2.30266e-06 -2.55617e-08 0)
(1.52859e-06 -6.72176e-08 0)
(1.56352e-06 -6.76951e-08 0)
(1.5994e-06 -6.80734e-08 0)
(1.63594e-06 -6.84397e-08 0)
(1.67332e-06 -6.86698e-08 0)
(1.71139e-06 -6.87991e-08 0)
(1.75018e-06 -6.87331e-08 0)
(1.78956e-06 -6.84659e-08 0)
(1.82958e-06 -6.79465e-08 0)
(1.87015e-06 -6.71486e-08 0)
(1.9112e-06 -6.6079e-08 0)
(1.95267e-06 -6.47167e-08 0)
(1.99451e-06 -6.29987e-08 0)
(2.03665e-06 -6.0878e-08 0)
(2.07906e-06 -5.83275e-08 0)
(2.12168e-06 -5.52875e-08 0)
(2.16444e-06 -5.16864e-08 0)
(2.20723e-06 -4.74542e-08 0)
(2.25002e-06 -4.25021e-08 0)
(2.29251e-06 -3.67928e-08 0)
(1.47088e-06 -9.28172e-08 0)
(1.51037e-06 -9.24221e-08 0)
(1.55043e-06 -9.20538e-08 0)
(1.59062e-06 -9.19042e-08 0)
(1.63132e-06 -9.16841e-08 0)
(1.67239e-06 -9.14311e-08 0)
(1.71395e-06 -9.09964e-08 0)
(1.75589e-06 -9.03847e-08 0)
(1.79823e-06 -8.94999e-08 0)
(1.84095e-06 -8.83025e-08 0)
(1.88401e-06 -8.679e-08 0)
(1.92738e-06 -8.49218e-08 0)
(1.97101e-06 -8.26181e-08 0)
(2.01486e-06 -7.98242e-08 0)
(2.05889e-06 -7.65046e-08 0)
(2.10302e-06 -7.25756e-08 0)
(2.14726e-06 -6.79503e-08 0)
(2.19143e-06 -6.25436e-08 0)
(2.23562e-06 -5.62228e-08 0)
(2.27946e-06 -4.89643e-08 0)
(1.40188e-06 -1.22651e-07 0)
(1.44658e-06 -1.20733e-07 0)
(1.49158e-06 -1.19036e-07 0)
(1.53613e-06 -1.1793e-07 0)
(1.58087e-06 -1.16911e-07 0)
(1.62559e-06 -1.16008e-07 0)
(1.67043e-06 -1.14983e-07 0)
(1.7154e-06 -1.13815e-07 0)
(1.76055e-06 -1.12404e-07 0)
(1.80587e-06 -1.10698e-07 0)
(1.85137e-06 -1.08665e-07 0)
(1.89703e-06 -1.06233e-07 0)
(1.94281e-06 -1.03302e-07 0)
(1.98867e-06 -9.98058e-08 0)
(2.03462e-06 -9.56858e-08 0)
(2.08058e-06 -9.08521e-08 0)
(2.1266e-06 -8.52026e-08 0)
(2.17246e-06 -7.8645e-08 0)
(2.21834e-06 -7.10063e-08 0)
(2.26384e-06 -6.22368e-08 0)
(1.32346e-06 -1.57081e-07 0)
(1.37395e-06 -1.52965e-07 0)
(1.42447e-06 -1.49364e-07 0)
(1.47391e-06 -1.46829e-07 0)
(1.52312e-06 -1.4462e-07 0)
(1.57193e-06 -1.42718e-07 0)
(1.6205e-06 -1.4086e-07 0)
(1.66891e-06 -1.38946e-07 0)
(1.71727e-06 -1.36867e-07 0)
(1.76559e-06 -1.34541e-07 0)
(1.81389e-06 -1.31892e-07 0)
(1.86217e-06 -1.2881e-07 0)
(1.9104e-06 -1.25177e-07 0)
(1.95858e-06 -1.20928e-07 0)
(2.00674e-06 -1.15981e-07 0)
(2.05483e-06 -1.10242e-07 0)
(2.1029e-06 -1.03588e-07 0)
(2.15077e-06 -9.59019e-08 0)
(2.19858e-06 -8.69716e-08 0)
(2.24597e-06 -7.67172e-08 0)
(1.23739e-06 -1.96266e-07 0)
(1.29393e-06 -1.89176e-07 0)
(1.35032e-06 -1.83083e-07 0)
(1.40508e-06 -1.78572e-07 0)
(1.4592e-06 -1.74763e-07 0)
(1.51251e-06 -1.71521e-07 0)
(1.56525e-06 -1.68557e-07 0)
(1.61752e-06 -1.65693e-07 0)
(1.66943e-06 -1.62787e-07 0)
(1.72105e-06 -1.59707e-07 0)
(1.77242e-06 -1.5633e-07 0)
(1.82355e-06 -1.52516e-07 0)
(1.87447e-06 -1.4814e-07 0)
(1.92524e-06 -1.43122e-07 0)
(1.97587e-06 -1.3736e-07 0)
(2.02633e-06 -1.30743e-07 0)
(2.07669e-06 -1.23114e-07 0)
(2.12677e-06 -1.14327e-07 0)
(2.17673e-06 -1.04127e-07 0)
(2.22623e-06 -9.24113e-08 0)
(1.14538e-06 -2.40119e-07 0)
(1.20829e-06 -2.29398e-07 0)
(1.27078e-06 -2.20403e-07 0)
(1.33118e-06 -2.13406e-07 0)
(1.39051e-06 -2.07605e-07 0)
(1.4486e-06 -2.02691e-07 0)
(1.50577e-06 -1.98334e-07 0)
(1.56212e-06 -1.94284e-07 0)
(1.61782e-06 -1.90351e-07 0)
(1.67295e-06 -1.8635e-07 0)
(1.72759e-06 -1.82112e-07 0)
(1.7818e-06 -1.77478e-07 0)
(1.83563e-06 -1.7231e-07 0)
(1.88919e-06 -1.66503e-07 0)
(1.94248e-06 -1.59923e-07 0)
(1.99551e-06 -1.52432e-07 0)
(2.04834e-06 -1.43837e-07 0)
(2.1008e-06 -1.33957e-07 0)
(2.15309e-06 -1.22512e-07 0)
(2.2049e-06 -1.09375e-07 0)
(1.04938e-06 -2.8822e-07 0)
(1.11961e-06 -2.72413e-07 0)
(1.18848e-06 -2.6007e-07 0)
(1.25488e-06 -2.50178e-07 0)
(1.31953e-06 -2.42082e-07 0)
(1.38259e-06 -2.35239e-07 0)
(1.44428e-06 -2.2927e-07 0)
(1.50482e-06 -2.23866e-07 0)
(1.56439e-06 -2.18778e-07 0)
(1.62312e-06 -2.13767e-07 0)
(1.68111e-06 -2.08626e-07 0)
(1.73847e-06 -2.03164e-07 0)
(1.79529e-06 -1.97218e-07 0)
(1.85168e-06 -1.9065e-07 0)
(1.90766e-06 -1.83294e-07 0)
(1.96328e-06 -1.74981e-07 0)
(2.01858e-06 -1.6549e-07 0)
(2.07348e-06 -1.5459e-07 0)
(2.12816e-06 -1.41984e-07 0)
(2.18239e-06 -1.27495e-07 0)
(9.74061e-07 -3.38182e-07 0)
(1.05096e-06 -3.16994e-07 0)
(1.12475e-06 -3.01445e-07 0)
(1.19578e-06 -2.88675e-07 0)
(1.26441e-06 -2.78173e-07 0)
(1.33104e-06 -2.69256e-07 0)
(1.39598e-06 -2.61485e-07 0)
(1.45949e-06 -2.54506e-07 0)
(1.52179e-06 -2.4802e-07 0)
(1.58301e-06 -2.4175e-07 0)
(1.64332e-06 -2.35467e-07 0)
(1.70283e-06 -2.28963e-07 0)
(1.76165e-06 -2.22052e-07 0)
(1.81992e-06 -2.14567e-07 0)
(1.87763e-06 -2.06322e-07 0)
(1.93488e-06 -1.97121e-07 0)
(1.99171e-06 -1.86738e-07 0)
(2.0481e-06 -1.74908e-07 0)
(2.10423e-06 -1.61333e-07 0)
(2.15995e-06 -1.45779e-07 0)
(9.33007e-07 -3.80909e-07 0)
(1.01059e-06 -3.58642e-07 0)
(1.08523e-06 -3.40964e-07 0)
(1.15765e-06 -3.26127e-07 0)
(1.22783e-06 -3.13657e-07 0)
(1.29605e-06 -3.02934e-07 0)
(1.36253e-06 -2.93503e-07 0)
(1.42751e-06 -2.84999e-07 0)
(1.49115e-06 -2.771e-07 0)
(1.55361e-06 -2.69522e-07 0)
(1.61505e-06 -2.62032e-07 0)
(1.67558e-06 -2.54412e-07 0)
(1.73534e-06 -2.46461e-07 0)
(1.79443e-06 -2.37997e-07 0)
(1.85286e-06 -2.28828e-07 0)
(1.91076e-06 -2.18743e-07 0)
(1.96815e-06 -2.07532e-07 0)
(2.0251e-06 -1.9492e-07 0)
(2.08172e-06 -1.80621e-07 0)
(2.13792e-06 -1.64354e-07 0)
(8.99919e-07 -4.20719e-07 0)
(9.76531e-07 -3.98338e-07 0)
(1.05116e-06 -3.79659e-07 0)
(1.12397e-06 -3.63475e-07 0)
(1.19488e-06 -3.49485e-07 0)
(1.26396e-06 -3.37214e-07 0)
(1.33141e-06 -3.26269e-07 0)
(1.39736e-06 -3.16309e-07 0)
(1.46194e-06 -3.07029e-07 0)
(1.52529e-06 -2.98156e-07 0)
(1.58757e-06 -2.89456e-07 0)
(1.64888e-06 -2.80707e-07 0)
(1.70935e-06 -2.717e-07 0)
(1.76908e-06 -2.62243e-07 0)
(1.82807e-06 -2.52147e-07 0)
(1.8865e-06 -2.41189e-07 0)
(1.94435e-06 -2.29178e-07 0)
(2.00175e-06 -2.15842e-07 0)
(2.05878e-06 -2.00898e-07 0)
(2.11542e-06 -1.84045e-07 0)
(8.71454e-07 -4.59086e-07 0)
(9.46887e-07 -4.36813e-07 0)
(1.02092e-06 -4.17482e-07 0)
(1.09353e-06 -4.00278e-07 0)
(1.16456e-06 -3.85046e-07 0)
(1.234e-06 -3.71439e-07 0)
(1.30196e-06 -3.59137e-07 0)
(1.36849e-06 -3.47838e-07 0)
(1.43368e-06 -3.37262e-07 0)
(1.49768e-06 -3.27156e-07 0)
(1.56058e-06 -3.17296e-07 0)
(1.62249e-06 -3.07458e-07 0)
(1.68352e-06 -2.9743e-07 0)
(1.74377e-06 -2.87022e-07 0)
(1.80324e-06 -2.7604e-07 0)
(1.86212e-06 -2.64267e-07 0)
(1.92039e-06 -2.51524e-07 0)
(1.9782e-06 -2.37548e-07 0)
(2.0356e-06 -2.22057e-07 0)
(2.09267e-06 -2.04781e-07 0)
(8.46775e-07 -4.95775e-07 0)
(9.20893e-07 -4.73808e-07 0)
(9.94015e-07 -4.54196e-07 0)
(1.06605e-06 -4.36322e-07 0)
(1.1368e-06 -4.20153e-07 0)
(1.20621e-06 -4.05457e-07 0)
(1.2743e-06 -3.91988e-07 0)
(1.34108e-06 -3.79494e-07 0)
(1.40662e-06 -3.67733e-07 0)
(1.47101e-06 -3.56481e-07 0)
(1.53434e-06 -3.45525e-07 0)
(1.59667e-06 -3.34648e-07 0)
(1.65812e-06 -3.23645e-07 0)
(1.71877e-06 -3.12329e-07 0)
(1.77863e-06 -3.00509e-07 0)
(1.83789e-06 -2.87978e-07 0)
(1.89652e-06 -2.74564e-07 0)
(1.95469e-06 -2.60015e-07 0)
(2.01244e-06 -2.44067e-07 0)
(2.0699e-06 -2.26527e-07 0)
(8.25063e-07 -5.31018e-07 0)
(8.97833e-07 -5.09442e-07 0)
(9.6993e-07 -4.89739e-07 0)
(1.04115e-06 -4.71433e-07 0)
(1.11135e-06 -4.54568e-07 0)
(1.18045e-06 -4.38999e-07 0)
(1.24839e-06 -4.24547e-07 0)
(1.31517e-06 -4.11018e-07 0)
(1.38082e-06 -3.98206e-07 0)
(1.4454e-06 -3.85916e-07 0)
(1.50897e-06 -3.73953e-07 0)
(1.57157e-06 -3.62114e-07 0)
(1.63331e-06 -3.50202e-07 0)
(1.69425e-06 -3.38041e-07 0)
(1.75442e-06 -3.25444e-07 0)
(1.81397e-06 -3.12222e-07 0)
(1.8729e-06 -2.98204e-07 0)
(1.93137e-06 -2.83158e-07 0)
(1.98944e-06 -2.66863e-07 0)
(2.04727e-06 -2.49187e-07 0)
(8.0582e-07 -5.64946e-07 0)
(8.77245e-07 -5.43803e-07 0)
(9.48232e-07 -5.24137e-07 0)
(1.01851e-06 -5.0558e-07 0)
(1.08801e-06 -4.8822e-07 0)
(1.15658e-06 -4.71967e-07 0)
(1.22417e-06 -4.56709e-07 0)
(1.29075e-06 -4.42302e-07 0)
(1.35632e-06 -4.28571e-07 0)
(1.42091e-06 -4.15357e-07 0)
(1.48456e-06 -4.02485e-07 0)
(1.54729e-06 -3.89766e-07 0)
(1.60919e-06 -3.77017e-07 0)
(1.67032e-06 -3.64082e-07 0)
(1.7307e-06 -3.50768e-07 0)
(1.79048e-06 -3.36918e-07 0)
(1.84965e-06 -3.22365e-07 0)
(1.90838e-06 -3.06903e-07 0)
(1.96674e-06 -2.90372e-07 0)
(2.02485e-06 -2.72622e-07 0)
(7.88607e-07 -5.97681e-07 0)
(8.5874e-07 -5.76982e-07 0)
(9.2857e-07 -5.5744e-07 0)
(9.97855e-07 -5.38761e-07 0)
(1.06653e-06 -5.21059e-07 0)
(1.13443e-06 -5.0428e-07 0)
(1.20153e-06 -4.8837e-07 0)
(1.26775e-06 -4.73227e-07 0)
(1.33308e-06 -4.58704e-07 0)
(1.39753e-06 -4.44677e-07 0)
(1.46112e-06 -4.30995e-07 0)
(1.52385e-06 -4.17484e-07 0)
(1.58582e-06 -4.03976e-07 0)
(1.64704e-06 -3.90336e-07 0)
(1.70756e-06 -3.76378e-07 0)
(1.7675e-06 -3.61967e-07 0)
(1.82686e-06 -3.46957e-07 0)
(1.88581e-06 -3.31172e-07 0)
(1.94441e-06 -3.14487e-07 0)
(2.00277e-06 -2.967e-07 0)
(7.73024e-07 -6.29339e-07 0)
(8.41905e-07 -6.09081e-07 0)
(9.10593e-07 -5.89716e-07 0)
(9.78857e-07 -5.71006e-07 0)
(1.04664e-06 -5.53073e-07 0)
(1.1138e-06 -5.35895e-07 0)
(1.18031e-06 -5.19463e-07 0)
(1.24606e-06 -5.03709e-07 0)
(1.31103e-06 -4.88511e-07 0)
(1.37523e-06 -4.73781e-07 0)
(1.43865e-06 -4.59388e-07 0)
(1.50129e-06 -4.45177e-07 0)
(1.56323e-06 -4.30994e-07 0)
(1.62447e-06 -4.16726e-07 0)
(1.68506e-06 -4.02199e-07 0)
(1.74511e-06 -3.87303e-07 0)
(1.80462e-06 -3.71922e-07 0)
(1.86376e-06 -3.55894e-07 0)
(1.92253e-06 -3.39096e-07 0)
(1.98112e-06 -3.21348e-07 0)
(7.58744e-07 -6.60019e-07 0)
(8.26409e-07 -6.402e-07 0)
(8.93988e-07 -6.21039e-07 0)
(9.61228e-07 -6.02352e-07 0)
(1.02811e-06 -5.84269e-07 0)
(1.0945e-06 -5.66793e-07 0)
(1.16035e-06 -5.49948e-07 0)
(1.22556e-06 -5.33696e-07 0)
(1.29009e-06 -5.17936e-07 0)
(1.35396e-06 -5.02608e-07 0)
(1.41713e-06 -4.87601e-07 0)
(1.4796e-06 -4.7278e-07 0)
(1.54145e-06 -4.58008e-07 0)
(1.60265e-06 -4.43189e-07 0)
(1.66325e-06 -4.28174e-07 0)
(1.72336e-06 -4.12876e-07 0)
(1.78298e-06 -3.97197e-07 0)
(1.84224e-06 -3.80984e-07 0)
(1.90116e-06 -3.64103e-07 0)
(1.95993e-06 -3.46494e-07 0)
(7.45475e-07 -6.89822e-07 0)
(8.11983e-07 -6.70427e-07 0)
(8.78483e-07 -6.51477e-07 0)
(9.44728e-07 -6.3285e-07 0)
(1.01072e-06 -6.14683e-07 0)
(1.07633e-06 -5.96993e-07 0)
(1.14149e-06 -5.7983e-07 0)
(1.20612e-06 -5.63179e-07 0)
(1.27017e-06 -5.46959e-07 0)
(1.33365e-06 -5.31127e-07 0)
(1.39652e-06 -5.15595e-07 0)
(1.45876e-06 -5.00245e-07 0)
(1.52045e-06 -4.8496e-07 0)
(1.58157e-06 -4.69668e-07 0)
(1.64214e-06 -4.54241e-07 0)
(1.70228e-06 -4.38613e-07 0)
(1.76196e-06 -4.22691e-07 0)
(1.8213e-06 -4.06324e-07 0)
(1.88034e-06 -3.89428e-07 0)
(1.93923e-06 -3.7199e-07 0)
(7.32982e-07 -7.1884e-07 0)
(7.98397e-07 -6.99832e-07 0)
(8.63858e-07 -6.81096e-07 0)
(9.2916e-07 -6.62561e-07 0)
(9.94287e-07 -6.44364e-07 0)
(1.05911e-06 -6.26526e-07 0)
(1.12358e-06 -6.09123e-07 0)
(1.18761e-06 -5.92152e-07 0)
(1.25115e-06 -5.7556e-07 0)
(1.31421e-06 -5.593e-07 0)
(1.37675e-06 -5.43317e-07 0)
(1.43874e-06 -5.27513e-07 0)
(1.50024e-06 -5.11792e-07 0)
(1.56124e-06 -4.96108e-07 0)
(1.62176e-06 -4.80347e-07 0)
(1.68189e-06 -4.64451e-07 0)
(1.74158e-06 -4.4833e-07 0)
(1.80097e-06 -4.31851e-07 0)
(1.8601e-06 -4.15023e-07 0)
(1.91908e-06 -3.97736e-07 0)
(7.21092e-07 -7.47143e-07 0)
(7.85467e-07 -7.28484e-07 0)
(8.49949e-07 -7.09971e-07 0)
(9.14347e-07 -6.91551e-07 0)
(9.7863e-07 -6.73355e-07 0)
(1.04268e-06 -6.55418e-07 0)
(1.10647e-06 -6.37834e-07 0)
(1.1699e-06 -6.20605e-07 0)
(1.23294e-06 -6.03715e-07 0)
(1.29558e-06 -5.87109e-07 0)
(1.35777e-06 -5.70759e-07 0)
(1.41949e-06 -5.54586e-07 0)
(1.4808e-06 -5.38512e-07 0)
(1.54166e-06 -5.22509e-07 0)
(1.60209e-06 -5.06476e-07 0)
(1.66218e-06 -4.90355e-07 0)
(1.72184e-06 -4.74071e-07 0)
(1.78127e-06 -4.57541e-07 0)
(1.84043e-06 -4.40799e-07 0)
(1.89948e-06 -4.23704e-07 0)
(7.0963e-07 -7.7479e-07 0)
(7.7303e-07 -7.5647e-07 0)
(8.36585e-07 -7.38172e-07 0)
(9.00105e-07 -7.19868e-07 0)
(9.63572e-07 -7.01693e-07 0)
(1.02689e-06 -6.83697e-07 0)
(1.09003e-06 -6.65997e-07 0)
(1.1529e-06 -6.48583e-07 0)
(1.21545e-06 -6.31463e-07 0)
(1.27766e-06 -6.14583e-07 0)
(1.3395e-06 -5.9793e-07 0)
(1.40095e-06 -5.81448e-07 0)
(1.46204e-06 -5.65079e-07 0)
(1.52276e-06 -5.48812e-07 0)
(1.58309e-06 -5.32546e-07 0)
(1.64309e-06 -5.16232e-07 0)
(1.70272e-06 -4.9983e-07 0)
(1.76215e-06 -4.83306e-07 0)
(1.82132e-06 -4.66618e-07 0)
(1.8804e-06 -4.49765e-07 0)
(6.98403e-07 -8.01867e-07 0)
(7.60889e-07 -7.83862e-07 0)
(8.23554e-07 -7.65753e-07 0)
(8.86237e-07 -7.47564e-07 0)
(9.48943e-07 -7.29436e-07 0)
(1.01158e-06 -7.11432e-07 0)
(1.07411e-06 -6.93658e-07 0)
(1.13644e-06 -6.76112e-07 0)
(1.19852e-06 -6.58792e-07 0)
(1.26034e-06 -6.41687e-07 0)
(1.32186e-06 -6.24805e-07 0)
(1.38305e-06 -6.08093e-07 0)
(1.44396e-06 -5.91499e-07 0)
(1.50452e-06 -5.75017e-07 0)
(1.56472e-06 -5.58554e-07 0)
(1.62464e-06 -5.4209e-07 0)
(1.68424e-06 -5.25619e-07 0)
(1.74364e-06 -5.09109e-07 0)
(1.80282e-06 -4.92506e-07 0)
(1.8619e-06 -4.75863e-07 0)
(6.8721e-07 -8.28447e-07 0)
(7.48822e-07 -8.1071e-07 0)
(8.10639e-07 -7.92758e-07 0)
(8.72561e-07 -7.74695e-07 0)
(9.3458e-07 -7.56641e-07 0)
(9.96599e-07 -7.38661e-07 0)
(1.05858e-06 -7.20835e-07 0)
(1.12041e-06 -7.0321e-07 0)
(1.18206e-06 -6.85761e-07 0)
(1.24352e-06 -6.68491e-07 0)
(1.30475e-06 -6.51432e-07 0)
(1.36572e-06 -6.34536e-07 0)
(1.42643e-06 -6.17755e-07 0)
(1.48682e-06 -6.01085e-07 0)
(1.5469e-06 -5.8446e-07 0)
(1.60675e-06 -5.67894e-07 0)
(1.66632e-06 -5.51392e-07 0)
(1.72569e-06 -5.34855e-07 0)
(1.78484e-06 -5.1837e-07 0)
(1.84391e-06 -5.01944e-07 0)
(6.75838e-07 -8.54569e-07 0)
(7.36609e-07 -8.37038e-07 0)
(7.97639e-07 -8.19269e-07 0)
(8.58909e-07 -8.0136e-07 0)
(9.2031e-07 -7.83383e-07 0)
(9.81789e-07 -7.65436e-07 0)
(1.04326e-06 -7.47599e-07 0)
(1.10466e-06 -7.29915e-07 0)
(1.16595e-06 -7.12376e-07 0)
(1.22711e-06 -6.95e-07 0)
(1.2881e-06 -6.77816e-07 0)
(1.34885e-06 -6.60769e-07 0)
(1.40938e-06 -6.43823e-07 0)
(1.46963e-06 -6.27008e-07 0)
(1.52963e-06 -6.10284e-07 0)
(1.58945e-06 -5.93641e-07 0)
(1.64896e-06 -5.77066e-07 0)
(1.70828e-06 -5.60522e-07 0)
(1.76738e-06 -5.44166e-07 0)
(1.82649e-06 -5.27944e-07 0)
(6.64039e-07 -8.80221e-07 0)
(7.24086e-07 -8.62934e-07 0)
(7.84485e-07 -8.4536e-07 0)
(8.45147e-07 -8.27582e-07 0)
(9.06014e-07 -8.09724e-07 0)
(9.67004e-07 -7.91825e-07 0)
(1.02805e-06 -7.73994e-07 0)
(1.0891e-06 -7.56292e-07 0)
(1.1501e-06 -7.38716e-07 0)
(1.21103e-06 -7.21267e-07 0)
(1.2718e-06 -7.03973e-07 0)
(1.33235e-06 -6.86814e-07 0)
(1.39274e-06 -6.69765e-07 0)
(1.45294e-06 -6.52843e-07 0)
(1.51289e-06 -6.36011e-07 0)
(1.57262e-06 -6.19296e-07 0)
(1.63205e-06 -6.02658e-07 0)
(1.69141e-06 -5.86145e-07 0)
(1.75054e-06 -5.69874e-07 0)
(1.80953e-06 -5.53856e-07 0)
(6.51632e-07 -9.05637e-07 0)
(7.11028e-07 -8.88563e-07 0)
(7.70878e-07 -8.71136e-07 0)
(8.31046e-07 -8.53499e-07 0)
(8.9146e-07 -8.35725e-07 0)
(9.52055e-07 -8.17902e-07 0)
(1.0128e-06 -8.00114e-07 0)
(1.07361e-06 -7.8241e-07 0)
(1.1344e-06 -7.64797e-07 0)
(1.19512e-06 -7.47296e-07 0)
(1.25572e-06 -7.29939e-07 0)
(1.31621e-06 -7.1269e-07 0)
(1.37655e-06 -6.95544e-07 0)
(1.43664e-06 -6.78552e-07 0)
(1.49652e-06 -6.61631e-07 0)
(1.55626e-06 -6.44806e-07 0)
(1.61575e-06 -6.2814e-07 0)
(1.67506e-06 -6.11637e-07 0)
(1.73422e-06 -5.95393e-07 0)
(1.7932e-06 -5.79549e-07 0)
(6.38477e-07 -9.30626e-07 0)
(6.97328e-07 -9.13815e-07 0)
(7.56704e-07 -8.96598e-07 0)
(8.16458e-07 -8.79113e-07 0)
(8.7655e-07 -8.61458e-07 0)
(9.36922e-07 -8.4372e-07 0)
(9.97482e-07 -8.25991e-07 0)
(1.0581e-06 -8.08323e-07 0)
(1.11874e-06 -7.90701e-07 0)
(1.1794e-06 -7.73151e-07 0)
(1.23998e-06 -7.55753e-07 0)
(1.30037e-06 -7.38472e-07 0)
(1.36065e-06 -7.21238e-07 0)
(1.42077e-06 -7.04143e-07 0)
(1.48063e-06 -6.87177e-07 0)
(1.54036e-06 -6.7028e-07 0)
(1.59992e-06 -6.5358e-07 0)
(1.65926e-06 -6.37003e-07 0)
(1.71849e-06 -6.20752e-07 0)
(1.77746e-06 -6.04948e-07 0)
(4.24812e-08 -7.17634e-07 0)
(1.27843e-07 -7.07644e-07 0)
(2.143e-07 -6.8793e-07 0)
(3.02503e-07 -6.59466e-07 0)
(3.9288e-07 -6.23231e-07 0)
(4.85685e-07 -5.80655e-07 0)
(5.80986e-07 -5.33301e-07 0)
(6.78579e-07 -4.82713e-07 0)
(7.7859e-07 -4.30401e-07 0)
(8.79765e-07 -3.7737e-07 0)
(4.15956e-08 -7.32746e-07 0)
(1.25126e-07 -7.23635e-07 0)
(2.09496e-07 -7.05612e-07 0)
(2.95246e-07 -6.79562e-07 0)
(3.82704e-07 -6.46279e-07 0)
(4.72029e-07 -6.0698e-07 0)
(5.63274e-07 -5.6299e-07 0)
(6.56105e-07 -5.15694e-07 0)
(7.50469e-07 -4.66429e-07 0)
(8.44922e-07 -4.16792e-07 0)
(4.07215e-08 -7.48261e-07 0)
(1.22449e-07 -7.39954e-07 0)
(2.04813e-07 -7.23448e-07 0)
(2.88204e-07 -6.99561e-07 0)
(3.72918e-07 -6.68981e-07 0)
(4.59023e-07 -6.32745e-07 0)
(5.4658e-07 -5.92011e-07 0)
(6.35369e-07 -5.47972e-07 0)
(7.25319e-07 -5.01792e-07 0)
(8.1534e-07 -4.5502e-07 0)
(3.99215e-08 -7.64122e-07 0)
(1.19991e-07 -7.56476e-07 0)
(2.00601e-07 -7.41252e-07 0)
(2.81968e-07 -7.19202e-07 0)
(3.64379e-07 -6.90932e-07 0)
(4.47832e-07 -6.57326e-07 0)
(5.32359e-07 -6.1947e-07 0)
(6.17754e-07 -5.78431e-07 0)
(7.0386e-07 -5.35334e-07 0)
(7.89859e-07 -4.91598e-07 0)
(3.91984e-08 -7.80316e-07 0)
(1.17702e-07 -7.73276e-07 0)
(1.96675e-07 -7.5921e-07 0)
(2.76204e-07 -7.38814e-07 0)
(3.5654e-07 -7.12634e-07 0)
(4.37656e-07 -6.81475e-07 0)
(5.19568e-07 -6.46315e-07 0)
(6.02109e-07 -6.08056e-07 0)
(6.85073e-07 -5.67775e-07 0)
(7.67734e-07 -5.26773e-07 0)
(3.8509e-08 -7.96826e-07 0)
(1.15581e-07 -7.90297e-07 0)
(1.93032e-07 -7.77254e-07 0)
(2.70914e-07 -7.58328e-07 0)
(3.49411e-07 -7.34004e-07 0)
(4.28521e-07 -7.0503e-07 0)
(5.08162e-07 -6.72299e-07 0)
(5.88211e-07 -6.36608e-07 0)
(6.68482e-07 -5.98969e-07 0)
(7.48276e-07 -5.60599e-07 0)
(3.78314e-08 -8.13629e-07 0)
(1.13567e-07 -8.07556e-07 0)
(1.89584e-07 -7.9545e-07 0)
(2.65962e-07 -7.77835e-07 0)
(3.42785e-07 -7.55196e-07 0)
(4.20098e-07 -7.28212e-07 0)
(4.97787e-07 -6.97692e-07 0)
(5.75691e-07 -6.64361e-07 0)
(6.53674e-07 -6.29138e-07 0)
(7.31043e-07 -5.93189e-07 0)
(3.72089e-08 -8.30686e-07 0)
(1.1165e-07 -8.25027e-07 0)
(1.86312e-07 -8.13764e-07 0)
(2.61296e-07 -7.97325e-07 0)
(3.36611e-07 -7.76214e-07 0)
(4.1229e-07 -7.51028e-07 0)
(4.88244e-07 -7.2253e-07 0)
(5.64283e-07 -6.91372e-07 0)
(6.403e-07 -6.58377e-07 0)
(7.15624e-07 -6.24658e-07 0)
(3.66245e-08 -8.47986e-07 0)
(1.09804e-07 -8.42698e-07 0)
(1.83186e-07 -8.32195e-07 0)
(2.56847e-07 -8.16837e-07 0)
(3.30768e-07 -7.97131e-07 0)
(4.04979e-07 -7.7358e-07 0)
(4.79367e-07 -7.46923e-07 0)
(5.53757e-07 -7.17756e-07 0)
(6.28064e-07 -6.86806e-07 0)
(7.01652e-07 -6.55131e-07 0)
(3.60281e-08 -8.65516e-07 0)
(1.08003e-07 -8.60553e-07 0)
(1.8017e-07 -8.50738e-07 0)
(2.52577e-07 -8.36372e-07 0)
(3.25176e-07 -8.1795e-07 0)
(3.98041e-07 -7.95894e-07 0)
(4.71006e-07 -7.70914e-07 0)
(5.43916e-07 -7.43573e-07 0)
(6.16714e-07 -7.14509e-07 0)
(6.88804e-07 -6.84714e-07 0)
(3.54182e-08 -8.83245e-07 0)
(1.0625e-07 -8.78573e-07 0)
(1.77229e-07 -8.69396e-07 0)
(2.48433e-07 -8.55942e-07 0)
(3.19773e-07 -8.38687e-07 0)
(3.91364e-07 -8.18003e-07 0)
(4.63024e-07 -7.94561e-07 0)
(5.346e-07 -7.68899e-07 0)
(6.06048e-07 -7.41567e-07 0)
(6.76823e-07 -7.13494e-07 0)
(3.48262e-08 -9.01136e-07 0)
(1.04546e-07 -8.96742e-07 0)
(1.74342e-07 -8.88154e-07 0)
(2.44365e-07 -8.75537e-07 0)
(3.14506e-07 -8.59344e-07 0)
(3.84871e-07 -8.39927e-07 0)
(4.55313e-07 -8.17902e-07 0)
(5.25668e-07 -7.93781e-07 0)
(5.95893e-07 -7.68037e-07 0)
(6.65514e-07 -7.41542e-07 0)
(3.42579e-08 -9.19171e-07 0)
(1.02849e-07 -9.15046e-07 0)
(1.71463e-07 -9.06999e-07 0)
(2.40314e-07 -8.95148e-07 0)
(3.09298e-07 -8.79932e-07 0)
(3.78479e-07 -8.61687e-07 0)
(4.47764e-07 -8.40972e-07 0)
(5.16983e-07 -8.18258e-07 0)
(5.861e-07 -7.93975e-07 0)
(6.54722e-07 -7.68942e-07 0)
(3.36837e-08 -9.37335e-07 0)
(1.01101e-07 -9.33461e-07 0)
(1.68538e-07 -9.25902e-07 0)
(2.36216e-07 -9.14761e-07 0)
(3.0406e-07 -9.00449e-07 0)
(3.72092e-07 -8.83289e-07 0)
(4.40263e-07 -8.63784e-07 0)
(5.08416e-07 -8.42368e-07 0)
(5.76532e-07 -8.19459e-07 0)
(6.44262e-07 -7.95785e-07 0)
(3.3075e-08 -9.5561e-07 0)
(9.92694e-08 -9.51965e-07 0)
(1.65526e-07 -9.44851e-07 0)
(2.32019e-07 -9.34374e-07 0)
(2.98713e-07 -9.2091e-07 0)
(3.65612e-07 -9.04761e-07 0)
(4.32695e-07 -8.86368e-07 0)
(4.99845e-07 -8.66157e-07 0)
(5.67026e-07 -8.44541e-07 0)
(6.33935e-07 -8.22114e-07 0)
(3.24293e-08 -9.73941e-07 0)
(9.73585e-08 -9.7051e-07 0)
(1.62406e-07 -9.63816e-07 0)
(2.27677e-07 -9.53966e-07 0)
(2.93187e-07 -9.4128e-07 0)
(3.58948e-07 -9.26056e-07 0)
(4.24962e-07 -9.08707e-07 0)
(4.91154e-07 -8.89648e-07 0)
(5.57433e-07 -8.69237e-07 0)
(6.23581e-07 -8.47977e-07 0)
(3.17578e-08 -9.92308e-07 0)
(9.53687e-08 -9.89091e-07 0)
(1.59136e-07 -9.82788e-07 0)
(2.23127e-07 -9.73516e-07 0)
(2.87412e-07 -9.61573e-07 0)
(3.52014e-07 -9.47226e-07 0)
(4.16961e-07 -9.30872e-07 0)
(4.82178e-07 -9.12913e-07 0)
(5.47574e-07 -8.93604e-07 0)
(6.12968e-07 -8.73458e-07 0)
(3.10574e-08 -1.01061e-06 0)
(9.32671e-08 -1.0076e-06 0)
(1.55657e-07 -1.00166e-06 0)
(2.18299e-07 -9.92943e-07 0)
(2.81299e-07 -9.8169e-07 0)
(3.44706e-07 -9.68177e-07 0)
(4.08552e-07 -9.52775e-07 0)
(4.72751e-07 -9.35844e-07 0)
(5.37261e-07 -9.17607e-07 0)
(6.01919e-07 -8.98502e-07 0)
(3.03078e-08 -1.02889e-06 0)
(9.09972e-08 -1.02607e-06 0)
(1.51893e-07 -1.02049e-06 0)
(2.131e-07 -1.0123e-06 0)
(2.74735e-07 -1.00172e-06 0)
(3.3688e-07 -9.89021e-07 0)
(3.99561e-07 -9.74541e-07 0)
(4.62714e-07 -9.58576e-07 0)
(5.2628e-07 -9.4139e-07 0)
(5.90203e-07 -9.23292e-07 0)
(2.94932e-08 -1.04688e-06 0)
(8.85412e-08 -1.04423e-06 0)
(1.4782e-07 -1.03901e-06 0)
(2.07488e-07 -1.03133e-06 0)
(2.67686e-07 -1.02141e-06 0)
(3.28494e-07 -1.00951e-06 0)
(3.89923e-07 -9.95918e-07 0)
(4.51981e-07 -9.8091e-07 0)
(5.14579e-07 -9.64744e-07 0)
(5.77782e-07 -9.47645e-07 0)
)


// ************************************************************************* //
