/*--------------------------------*- C++ -*----------------------------------*\
| =========                 |                                                 |
| \\      /  F ield         | foam-extend: Open Source CFD                    |
|  \\    /   O peration     | Version:     4.1                                |
|   \\  /    A nd           | Web:         http://www.foam-extend.org         |
|    \\/     M anipulation  |                                                 |
\*---------------------------------------------------------------------------*/
FoamFile
{
    version     2.0;
    format      ascii;
    class       vectorField;
    location    "2";
    object      solidsCellD_iteration11;
}
// * * * * * * * * * * * * * * * * * * * * * * * * * * * * * * * * * * * * * //


1000
(
(9.67504e-07 -3.62577e-07 0)
(9.1771e-07 -3.40021e-07 0)
(8.86894e-07 -3.26848e-07 0)
(8.70095e-07 -3.22191e-07 0)
(8.63113e-07 -3.22561e-07 0)
(8.63344e-07 -3.2675e-07 0)
(8.68904e-07 -3.33484e-07 0)
(8.78332e-07 -3.42208e-07 0)
(8.91027e-07 -3.52147e-07 0)
(9.05064e-07 -3.62966e-07 0)
(8.75475e-07 -3.96301e-07 0)
(8.22496e-07 -3.81803e-07 0)
(7.89552e-07 -3.7378e-07 0)
(7.71123e-07 -3.72668e-07 0)
(7.62709e-07 -3.75439e-07 0)
(7.61566e-07 -3.81325e-07 0)
(7.65754e-07 -3.89245e-07 0)
(7.73773e-07 -3.98872e-07 0)
(7.84878e-07 -4.09418e-07 0)
(7.97406e-07 -4.20927e-07 0)
(7.79653e-07 -4.2821e-07 0)
(7.25519e-07 -4.22708e-07 0)
(6.91718e-07 -4.20432e-07 0)
(6.725e-07 -4.23156e-07 0)
(6.63293e-07 -4.28449e-07 0)
(6.61213e-07 -4.36056e-07 0)
(6.6435e-07 -4.45171e-07 0)
(6.71261e-07 -4.55601e-07 0)
(6.81124e-07 -4.6672e-07 0)
(6.92539e-07 -4.78533e-07 0)
(6.80706e-07 -4.57764e-07 0)
(6.2779e-07 -4.61654e-07 0)
(5.94622e-07 -4.65361e-07 0)
(5.7549e-07 -4.72035e-07 0)
(5.66051e-07 -4.79911e-07 0)
(5.63418e-07 -4.89248e-07 0)
(5.65684e-07 -4.9952e-07 0)
(5.71597e-07 -5.1071e-07 0)
(5.8027e-07 -5.22388e-07 0)
(5.90533e-07 -5.34579e-07 0)
(5.79489e-07 -4.84364e-07 0)
(5.29931e-07 -4.97532e-07 0)
(4.98808e-07 -5.07133e-07 0)
(4.8075e-07 -5.17689e-07 0)
(4.71645e-07 -5.2808e-07 0)
(4.68739e-07 -5.3912e-07 0)
(4.70335e-07 -5.50517e-07 0)
(4.75296e-07 -5.62456e-07 0)
(4.82807e-07 -5.74706e-07 0)
(4.9177e-07 -5.87304e-07 0)
(4.76266e-07 -5.07519e-07 0)
(4.32355e-07 -5.29332e-07 0)
(4.0476e-07 -5.44446e-07 0)
(3.88591e-07 -5.58653e-07 0)
(3.80286e-07 -5.71396e-07 0)
(3.774e-07 -5.84005e-07 0)
(3.78534e-07 -5.96433e-07 0)
(3.82605e-07 -6.09066e-07 0)
(3.8888e-07 -6.21859e-07 0)
(3.96387e-07 -6.34882e-07 0)
(3.71756e-07 -5.26656e-07 0)
(3.35346e-07 -5.56055e-07 0)
(3.12447e-07 -5.76018e-07 0)
(2.98944e-07 -5.93427e-07 0)
(2.91945e-07 -6.08216e-07 0)
(2.89419e-07 -6.22192e-07 0)
(2.90207e-07 -6.35521e-07 0)
(2.93368e-07 -6.48782e-07 0)
(2.98309e-07 -6.62064e-07 0)
(3.04237e-07 -6.75471e-07 0)
(2.66243e-07 -5.41423e-07 0)
(2.38927e-07 -5.76926e-07 0)
(2.21774e-07 -6.00743e-07 0)
(2.11659e-07 -6.20671e-07 0)
(2.06394e-07 -6.37124e-07 0)
(2.04438e-07 -6.52218e-07 0)
(2.0492e-07 -6.66308e-07 0)
(2.07146e-07 -6.80079e-07 0)
(2.10701e-07 -6.93753e-07 0)
(2.1498e-07 -7.07483e-07 0)
(1.6002e-07 -5.51459e-07 0)
(1.43114e-07 -5.91197e-07 0)
(1.32538e-07 -6.17697e-07 0)
(1.26249e-07 -6.39443e-07 0)
(1.22926e-07 -6.57062e-07 0)
(1.2166e-07 -6.72904e-07 0)
(1.21945e-07 -6.87528e-07 0)
(1.23307e-07 -7.01703e-07 0)
(1.25445e-07 -7.15676e-07 0)
(1.28019e-07 -7.2964e-07 0)
(5.3445e-08 -5.56513e-07 0)
(4.77343e-08 -5.98458e-07 0)
(4.4096e-08 -6.26336e-07 0)
(4.19518e-08 -6.48988e-07 0)
(4.08665e-08 -6.67203e-07 0)
(4.04305e-08 -6.83466e-07 0)
(4.04718e-08 -6.98342e-07 0)
(4.09154e-08 -7.12688e-07 0)
(4.16484e-08 -7.26815e-07 0)
(4.25072e-08 -7.40918e-07 0)
(1.50063e-06 -1.64534e-08 0)
(1.51294e-06 -1.18986e-08 0)
(1.52146e-06 -9.07192e-09 0)
(1.53114e-06 -7.4659e-09 0)
(1.54226e-06 -6.63884e-09 0)
(1.55577e-06 -6.36599e-09 0)
(1.57175e-06 -6.46484e-09 0)
(1.59016e-06 -6.74733e-09 0)
(1.61105e-06 -7.25387e-09 0)
(1.6341e-06 -7.86685e-09 0)
(1.48972e-06 -4.94183e-08 0)
(1.49999e-06 -3.60159e-08 0)
(1.50725e-06 -2.76677e-08 0)
(1.51603e-06 -2.30169e-08 0)
(1.52655e-06 -2.06972e-08 0)
(1.5396e-06 -1.98384e-08 0)
(1.5553e-06 -2.01157e-08 0)
(1.57348e-06 -2.11256e-08 0)
(1.59413e-06 -2.26635e-08 0)
(1.61697e-06 -2.43935e-08 0)
(1.46798e-06 -8.26156e-08 0)
(1.4743e-06 -6.11682e-08 0)
(1.47908e-06 -4.78293e-08 0)
(1.48621e-06 -4.02876e-08 0)
(1.49564e-06 -3.65841e-08 0)
(1.50795e-06 -3.53819e-08 0)
(1.52302e-06 -3.59381e-08 0)
(1.54076e-06 -3.76118e-08 0)
(1.56095e-06 -4.01195e-08 0)
(1.5834e-06 -4.29979e-08 0)
(1.43574e-06 -1.163e-07 0)
(1.43645e-06 -8.79331e-08 0)
(1.43766e-06 -7.04107e-08 0)
(1.44246e-06 -6.05724e-08 0)
(1.45029e-06 -5.5748e-08 0)
(1.46153e-06 -5.42482e-08 0)
(1.47578e-06 -5.50678e-08 0)
(1.4929e-06 -5.7431e-08 0)
(1.51248e-06 -6.09119e-08 0)
(1.53439e-06 -6.49311e-08 0)
(1.39343e-06 -1.50519e-07 0)
(1.38727e-06 -1.16824e-07 0)
(1.38405e-06 -9.60786e-08 0)
(1.38593e-06 -8.45737e-08 0)
(1.39182e-06 -7.90159e-08 0)
(1.40171e-06 -7.74446e-08 0)
(1.41492e-06 -7.86452e-08 0)
(1.43124e-06 -8.17274e-08 0)
(1.45008e-06 -8.61359e-08 0)
(1.47138e-06 -9.12185e-08 0)
(1.34162e-06 -1.85336e-07 0)
(1.32766e-06 -1.48221e-07 0)
(1.31951e-06 -1.25415e-07 0)
(1.31812e-06 -1.12972e-07 0)
(1.3218e-06 -1.07151e-07 0)
(1.33012e-06 -1.05776e-07 0)
(1.3422e-06 -1.07473e-07 0)
(1.35761e-06 -1.11259e-07 0)
(1.37562e-06 -1.16548e-07 0)
(1.39623e-06 -1.22628e-07 0)
(1.28111e-06 -2.20689e-07 0)
(1.25885e-06 -1.82276e-07 0)
(1.24545e-06 -1.58734e-07 0)
(1.24062e-06 -1.46174e-07 0)
(1.24198e-06 -1.40555e-07 0)
(1.24866e-06 -1.39653e-07 0)
(1.25953e-06 -1.41966e-07 0)
(1.27397e-06 -1.46445e-07 0)
(1.2911e-06 -1.52554e-07 0)
(1.31098e-06 -1.5952e-07 0)
(1.21257e-06 -2.56371e-07 0)
(1.18212e-06 -2.18898e-07 0)
(1.16354e-06 -1.96012e-07 0)
(1.15526e-06 -1.84203e-07 0)
(1.15433e-06 -1.793e-07 0)
(1.15937e-06 -1.79183e-07 0)
(1.169e-06 -1.82273e-07 0)
(1.18243e-06 -1.87506e-07 0)
(1.19867e-06 -1.94404e-07 0)
(1.21775e-06 -2.02147e-07 0)
(1.13688e-06 -2.92165e-07 0)
(1.09881e-06 -2.57759e-07 0)
(1.07541e-06 -2.36934e-07 0)
(1.06386e-06 -2.26734e-07 0)
(1.06073e-06 -2.23083e-07 0)
(1.06408e-06 -2.24044e-07 0)
(1.0724e-06 -2.28071e-07 0)
(1.08474e-06 -2.34109e-07 0)
(1.10006e-06 -2.41758e-07 0)
(1.11825e-06 -2.50003e-07 0)
(1.05492e-06 -3.27726e-07 0)
(1.01031e-06 -2.98363e-07 0)
(9.82737e-07 -2.80831e-07 0)
(9.68306e-07 -2.73077e-07 0)
(9.63151e-07 -2.71216e-07 0)
(9.64976e-07 -2.73599e-07 0)
(9.72161e-07 -2.78837e-07 0)
(9.8344e-07 -2.85994e-07 0)
(9.98028e-07 -2.94603e-07 0)
(1.0149e-06 -3.03947e-07 0)
(1.65929e-06 -8.41429e-09 0)
(1.68666e-06 -8.62754e-09 0)
(1.71567e-06 -8.82486e-09 0)
(1.74621e-06 -8.98532e-09 0)
(1.77811e-06 -9.10753e-09 0)
(1.8113e-06 -9.18556e-09 0)
(1.84561e-06 -9.19472e-09 0)
(1.88089e-06 -9.16768e-09 0)
(1.91711e-06 -9.12629e-09 0)
(1.95417e-06 -9.03913e-09 0)
(1.99196e-06 -8.88481e-09 0)
(2.03038e-06 -8.66388e-09 0)
(2.06935e-06 -8.38004e-09 0)
(2.10876e-06 -8.04039e-09 0)
(2.14855e-06 -7.64249e-09 0)
(2.18862e-06 -7.1676e-09 0)
(2.22888e-06 -6.59315e-09 0)
(2.26918e-06 -5.90323e-09 0)
(2.3095e-06 -5.08916e-09 0)
(2.34945e-06 -4.15063e-09 0)
(1.6429e-06 -2.59277e-08 0)
(1.6716e-06 -2.64796e-08 0)
(1.70182e-06 -2.69941e-08 0)
(1.73343e-06 -2.73987e-08 0)
(1.7663e-06 -2.76571e-08 0)
(1.80032e-06 -2.78155e-08 0)
(1.83539e-06 -2.7866e-08 0)
(1.8714e-06 -2.782e-08 0)
(1.90829e-06 -2.76515e-08 0)
(1.94595e-06 -2.7307e-08 0)
(1.98427e-06 -2.67937e-08 0)
(2.02321e-06 -2.61337e-08 0)
(2.06267e-06 -2.53134e-08 0)
(2.10257e-06 -2.43075e-08 0)
(2.14282e-06 -2.30871e-08 0)
(2.18331e-06 -2.1622e-08 0)
(2.22399e-06 -1.98748e-08 0)
(2.26467e-06 -1.78112e-08 0)
(2.30537e-06 -1.53919e-08 0)
(2.34567e-06 -1.25968e-08 0)
(1.61075e-06 -4.53522e-08 0)
(1.64213e-06 -4.59586e-08 0)
(1.67472e-06 -4.6506e-08 0)
(1.70836e-06 -4.69543e-08 0)
(1.74307e-06 -4.72325e-08 0)
(1.77878e-06 -4.73892e-08 0)
(1.8154e-06 -4.73735e-08 0)
(1.85278e-06 -4.718e-08 0)
(1.89092e-06 -4.67774e-08 0)
(1.92972e-06 -4.61285e-08 0)
(1.96912e-06 -4.52527e-08 0)
(2.00907e-06 -4.41535e-08 0)
(2.04947e-06 -4.27789e-08 0)
(2.09023e-06 -4.10775e-08 0)
(2.1313e-06 -3.90141e-08 0)
(2.17259e-06 -3.65534e-08 0)
(2.21404e-06 -3.36372e-08 0)
(2.25551e-06 -3.02107e-08 0)
(2.29698e-06 -2.62025e-08 0)
(2.33806e-06 -2.15651e-08 0)
(1.56378e-06 -6.7743e-08 0)
(1.59891e-06 -6.7932e-08 0)
(1.63492e-06 -6.8101e-08 0)
(1.67158e-06 -6.8286e-08 0)
(1.70904e-06 -6.83391e-08 0)
(1.74718e-06 -6.8299e-08 0)
(1.786e-06 -6.80502e-08 0)
(1.8254e-06 -6.75934e-08 0)
(1.86543e-06 -6.68795e-08 0)
(1.90598e-06 -6.58719e-08 0)
(1.947e-06 -6.45724e-08 0)
(1.98843e-06 -6.29562e-08 0)
(2.03021e-06 -6.09549e-08 0)
(2.07227e-06 -5.85172e-08 0)
(2.11458e-06 -5.56109e-08 0)
(2.15706e-06 -5.21691e-08 0)
(2.19966e-06 -4.81116e-08 0)
(2.24224e-06 -4.33506e-08 0)
(2.28477e-06 -3.77735e-08 0)
(2.32693e-06 -3.13431e-08 0)
(1.50335e-06 -9.40018e-08 0)
(1.54328e-06 -9.31858e-08 0)
(1.58366e-06 -9.24994e-08 0)
(1.62412e-06 -9.20669e-08 0)
(1.66505e-06 -9.15729e-08 0)
(1.7063e-06 -9.10667e-08 0)
(1.74798e-06 -9.03663e-08 0)
(1.79001e-06 -8.94868e-08 0)
(1.83242e-06 -8.83277e-08 0)
(1.87516e-06 -8.6839e-08 0)
(1.91823e-06 -8.50171e-08 0)
(1.96159e-06 -8.2818e-08 0)
(2.0052e-06 -8.01523e-08 0)
(2.04899e-06 -7.69554e-08 0)
(2.09294e-06 -7.31828e-08 0)
(2.13697e-06 -6.8743e-08 0)
(2.18107e-06 -6.35397e-08 0)
(2.22507e-06 -5.74643e-08 0)
(2.26903e-06 -5.03512e-08 0)
(2.3126e-06 -4.21836e-08 0)
(1.4311e-06 -1.2485e-07 0)
(1.47652e-06 -1.22332e-07 0)
(1.52207e-06 -1.20166e-07 0)
(1.56708e-06 -1.18644e-07 0)
(1.61219e-06 -1.17225e-07 0)
(1.65721e-06 -1.15954e-07 0)
(1.70227e-06 -1.14551e-07 0)
(1.74742e-06 -1.13016e-07 0)
(1.79271e-06 -1.11243e-07 0)
(1.83812e-06 -1.09163e-07 0)
(1.88369e-06 -1.06741e-07 0)
(1.92939e-06 -1.03898e-07 0)
(1.97518e-06 -1.0052e-07 0)
(2.02102e-06 -9.65309e-08 0)
(2.06693e-06 -9.18632e-08 0)
(2.11281e-06 -8.64193e-08 0)
(2.15872e-06 -8.00771e-08 0)
(2.20445e-06 -7.27209e-08 0)
(2.25014e-06 -6.41355e-08 0)
(2.29541e-06 -5.42789e-08 0)
(1.34907e-06 -1.6065e-07 0)
(1.40054e-06 -1.55736e-07 0)
(1.45182e-06 -1.51487e-07 0)
(1.50191e-06 -1.48362e-07 0)
(1.55164e-06 -1.45591e-07 0)
(1.60089e-06 -1.43173e-07 0)
(1.6498e-06 -1.40814e-07 0)
(1.69849e-06 -1.38422e-07 0)
(1.74706e-06 -1.3588e-07 0)
(1.79555e-06 -1.33085e-07 0)
(1.84399e-06 -1.29954e-07 0)
(1.89236e-06 -1.2637e-07 0)
(1.94065e-06 -1.22202e-07 0)
(1.98886e-06 -1.1737e-07 0)
(2.03702e-06 -1.11787e-07 0)
(2.08508e-06 -1.05345e-07 0)
(2.13308e-06 -9.78903e-08 0)
(2.18084e-06 -8.9283e-08 0)
(2.22851e-06 -7.92693e-08 0)
(2.27573e-06 -6.77732e-08 0)
(1.2591e-06 -2.01592e-07 0)
(1.31686e-06 -1.93442e-07 0)
(1.3742e-06 -1.86467e-07 0)
(1.42978e-06 -1.81151e-07 0)
(1.4846e-06 -1.76609e-07 0)
(1.53845e-06 -1.72689e-07 0)
(1.59166e-06 -1.69087e-07 0)
(1.64431e-06 -1.65624e-07 0)
(1.69653e-06 -1.62139e-07 0)
(1.7484e-06 -1.58486e-07 0)
(1.79998e-06 -1.54529e-07 0)
(1.85128e-06 -1.50122e-07 0)
(1.90233e-06 -1.45122e-07 0)
(1.95319e-06 -1.39434e-07 0)
(2.00387e-06 -1.32948e-07 0)
(2.05436e-06 -1.25534e-07 0)
(2.10468e-06 -1.17002e-07 0)
(2.15472e-06 -1.07183e-07 0)
(2.20459e-06 -9.5781e-08 0)
(2.25398e-06 -8.26945e-08 0)
(1.16314e-06 -2.47542e-07 0)
(1.22735e-06 -2.35538e-07 0)
(1.29094e-06 -2.25438e-07 0)
(1.35226e-06 -2.17403e-07 0)
(1.41239e-06 -2.10653e-07 0)
(1.47115e-06 -2.04866e-07 0)
(1.52889e-06 -1.99703e-07 0)
(1.58574e-06 -1.94902e-07 0)
(1.64186e-06 -1.90258e-07 0)
(1.69735e-06 -1.85567e-07 0)
(1.7523e-06 -1.80646e-07 0)
(1.80677e-06 -1.75323e-07 0)
(1.86083e-06 -1.6944e-07 0)
(1.91456e-06 -1.62873e-07 0)
(1.96798e-06 -1.55478e-07 0)
(2.0211e-06 -1.47093e-07 0)
(2.07396e-06 -1.37494e-07 0)
(2.12645e-06 -1.26482e-07 0)
(2.17872e-06 -1.13734e-07 0)
(2.2305e-06 -9.91209e-08 0)
(1.06318e-06 -2.97937e-07 0)
(1.13465e-06 -2.80565e-07 0)
(1.20461e-06 -2.6683e-07 0)
(1.272e-06 -2.55653e-07 0)
(1.33752e-06 -2.46414e-07 0)
(1.40135e-06 -2.38534e-07 0)
(1.46374e-06 -2.31615e-07 0)
(1.5249e-06 -2.25327e-07 0)
(1.58502e-06 -2.1941e-07 0)
(1.64424e-06 -2.13602e-07 0)
(1.70267e-06 -2.07679e-07 0)
(1.76041e-06 -2.01435e-07 0)
(1.81757e-06 -1.94685e-07 0)
(1.87423e-06 -1.87269e-07 0)
(1.93046e-06 -1.79009e-07 0)
(1.98627e-06 -1.6971e-07 0)
(2.04172e-06 -1.59122e-07 0)
(2.09673e-06 -1.46995e-07 0)
(2.15149e-06 -1.32999e-07 0)
(2.20578e-06 -1.16946e-07 0)
(9.86064e-07 -3.49245e-07 0)
(1.06351e-06 -3.26638e-07 0)
(1.13805e-06 -3.09644e-07 0)
(1.20992e-06 -2.95473e-07 0)
(1.27939e-06 -2.83708e-07 0)
(1.34684e-06 -2.73634e-07 0)
(1.41253e-06 -2.64794e-07 0)
(1.47673e-06 -2.56823e-07 0)
(1.53966e-06 -2.49407e-07 0)
(1.60145e-06 -2.42243e-07 0)
(1.66226e-06 -2.35087e-07 0)
(1.72223e-06 -2.27715e-07 0)
(1.78146e-06 -2.19917e-07 0)
(1.84006e-06 -2.11505e-07 0)
(1.89808e-06 -2.0228e-07 0)
(1.95558e-06 -1.92015e-07 0)
(2.01262e-06 -1.80468e-07 0)
(2.0692e-06 -1.67341e-07 0)
(2.12548e-06 -1.52315e-07 0)
(2.18131e-06 -1.35139e-07 0)
(9.43535e-07 -3.92536e-07 0)
(1.02175e-06 -3.68933e-07 0)
(1.09708e-06 -3.49919e-07 0)
(1.17025e-06 -3.33737e-07 0)
(1.2412e-06 -3.19999e-07 0)
(1.31015e-06 -3.08077e-07 0)
(1.37734e-06 -2.97522e-07 0)
(1.44297e-06 -2.87962e-07 0)
(1.50721e-06 -2.79061e-07 0)
(1.57022e-06 -2.70517e-07 0)
(1.63214e-06 -2.62082e-07 0)
(1.69312e-06 -2.53526e-07 0)
(1.75326e-06 -2.44621e-07 0)
(1.81267e-06 -2.35167e-07 0)
(1.8714e-06 -2.2496e-07 0)
(1.92955e-06 -2.13752e-07 0)
(1.98715e-06 -2.01332e-07 0)
(2.04428e-06 -1.8738e-07 0)
(2.10106e-06 -1.71593e-07 0)
(2.15739e-06 -1.53692e-07 0)
(9.08721e-07 -4.33168e-07 0)
(9.86068e-07 -4.09311e-07 0)
(1.06143e-06 -3.8927e-07 0)
(1.13498e-06 -3.7175e-07 0)
(1.2066e-06 -3.56485e-07 0)
(1.27639e-06 -3.42992e-07 0)
(1.3445e-06 -3.30885e-07 0)
(1.41106e-06 -3.19822e-07 0)
(1.4762e-06 -3.09483e-07 0)
(1.54008e-06 -2.99584e-07 0)
(1.60282e-06 -2.8988e-07 0)
(1.66455e-06 -2.80138e-07 0)
(1.72539e-06 -2.70122e-07 0)
(1.78543e-06 -2.59625e-07 0)
(1.84472e-06 -2.48445e-07 0)
(1.90339e-06 -2.36322e-07 0)
(1.96146e-06 -2.23067e-07 0)
(2.01904e-06 -2.08361e-07 0)
(2.07624e-06 -1.91913e-07 0)
(2.13302e-06 -1.73441e-07 0)
(8.7854e-07 -4.72479e-07 0)
(9.54779e-07 -4.48628e-07 0)
(1.02956e-06 -4.27867e-07 0)
(1.10292e-06 -4.09281e-07 0)
(1.17464e-06 -3.9273e-07 0)
(1.24475e-06 -3.77859e-07 0)
(1.31333e-06 -3.64349e-07 0)
(1.38044e-06 -3.51892e-07 0)
(1.44618e-06 -3.40202e-07 0)
(1.51066e-06 -3.29014e-07 0)
(1.57401e-06 -3.18097e-07 0)
(1.63632e-06 -3.07216e-07 0)
(1.69771e-06 -2.96129e-07 0)
(1.75826e-06 -2.84634e-07 0)
(1.81802e-06 -2.72528e-07 0)
(1.87713e-06 -2.59554e-07 0)
(1.93563e-06 -2.4554e-07 0)
(1.99363e-06 -2.30175e-07 0)
(2.05121e-06 -2.13182e-07 0)
(2.10845e-06 -1.94313e-07 0)
(8.52292e-07 -5.10055e-07 0)
(9.27219e-07 -4.86439e-07 0)
(1.0011e-06 -4.65334e-07 0)
(1.07386e-06 -4.4603e-07 0)
(1.14528e-06 -4.28501e-07 0)
(1.21534e-06 -4.125e-07 0)
(1.28402e-06 -3.97774e-07 0)
(1.35135e-06 -3.84072e-07 0)
(1.41741e-06 -3.71147e-07 0)
(1.48226e-06 -3.58763e-07 0)
(1.54601e-06 -3.46702e-07 0)
(1.60873e-06 -3.34736e-07 0)
(1.67052e-06 -3.22627e-07 0)
(1.73146e-06 -3.10183e-07 0)
(1.7916e-06 -2.97202e-07 0)
(1.85109e-06 -2.8344e-07 0)
(1.90994e-06 -2.68735e-07 0)
(1.9683e-06 -2.52791e-07 0)
(2.02624e-06 -2.3536e-07 0)
(2.08392e-06 -2.16247e-07 0)
(8.29164e-07 -5.46153e-07 0)
(9.0271e-07 -5.22877e-07 0)
(9.75544e-07 -5.01623e-07 0)
(1.04746e-06 -4.81835e-07 0)
(1.11833e-06 -4.63564e-07 0)
(1.18804e-06 -4.46641e-07 0)
(1.25654e-06 -4.30882e-07 0)
(1.32384e-06 -4.16097e-07 0)
(1.38998e-06 -4.02074e-07 0)
(1.455e-06 -3.88604e-07 0)
(1.51897e-06 -3.75492e-07 0)
(1.58193e-06 -3.62519e-07 0)
(1.64399e-06 -3.49456e-07 0)
(1.7052e-06 -3.3613e-07 0)
(1.76563e-06 -3.22338e-07 0)
(1.82541e-06 -3.07866e-07 0)
(1.88455e-06 -2.92549e-07 0)
(1.94322e-06 -2.76115e-07 0)
(2.0015e-06 -2.58361e-07 0)
(2.05955e-06 -2.39128e-07 0)
(8.08656e-07 -5.80864e-07 0)
(8.80805e-07 -5.57997e-07 0)
(9.52484e-07 -5.36738e-07 0)
(1.02343e-06 -5.16653e-07 0)
(1.09356e-06 -4.9784e-07 0)
(1.1627e-06 -4.80184e-07 0)
(1.23082e-06 -4.63569e-07 0)
(1.2979e-06 -4.47861e-07 0)
(1.36392e-06 -4.32874e-07 0)
(1.42893e-06 -4.18433e-07 0)
(1.49295e-06 -4.04366e-07 0)
(1.55601e-06 -3.9047e-07 0)
(1.61821e-06 -3.7653e-07 0)
(1.67959e-06 -3.62397e-07 0)
(1.74021e-06 -3.47864e-07 0)
(1.8002e-06 -3.32752e-07 0)
(1.85958e-06 -3.16902e-07 0)
(1.91851e-06 -3.0007e-07 0)
(1.97709e-06 -2.82099e-07 0)
(2.03543e-06 -2.62824e-07 0)
(7.90308e-07 -6.14313e-07 0)
(8.61103e-07 -5.91883e-07 0)
(9.31567e-07 -5.70715e-07 0)
(1.00148e-06 -5.50469e-07 0)
(1.07073e-06 -5.31266e-07 0)
(1.13917e-06 -5.13036e-07 0)
(1.20675e-06 -4.95725e-07 0)
(1.27343e-06 -4.79239e-07 0)
(1.33919e-06 -4.63417e-07 0)
(1.40402e-06 -4.48119e-07 0)
(1.46795e-06 -4.33199e-07 0)
(1.53099e-06 -4.1847e-07 0)
(1.59322e-06 -4.03734e-07 0)
(1.65468e-06 -3.88874e-07 0)
(1.71543e-06 -3.73679e-07 0)
(1.77557e-06 -3.58004e-07 0)
(1.83513e-06 -3.41706e-07 0)
(1.89429e-06 -3.24569e-07 0)
(1.9531e-06 -3.06465e-07 0)
(2.0117e-06 -2.87211e-07 0)
(7.73703e-07 -6.46615e-07 0)
(8.43169e-07 -6.24626e-07 0)
(9.12422e-07 -6.03611e-07 0)
(9.81248e-07 -5.83299e-07 0)
(1.04955e-06 -5.63824e-07 0)
(1.11721e-06 -5.45156e-07 0)
(1.18416e-06 -5.27286e-07 0)
(1.25034e-06 -5.10151e-07 0)
(1.3157e-06 -4.93616e-07 0)
(1.38024e-06 -4.77573e-07 0)
(1.44398e-06 -4.61901e-07 0)
(1.50691e-06 -4.46433e-07 0)
(1.56909e-06 -4.30991e-07 0)
(1.63055e-06 -4.15483e-07 0)
(1.69135e-06 -3.9971e-07 0)
(1.7516e-06 -3.83553e-07 0)
(1.8113e-06 -3.66892e-07 0)
(1.87064e-06 -3.4953e-07 0)
(1.92963e-06 -3.31349e-07 0)
(1.98847e-06 -3.12197e-07 0)
(7.58492e-07 -6.77869e-07 0)
(8.26655e-07 -6.56319e-07 0)
(8.94726e-07 -6.3549e-07 0)
(9.62456e-07 -6.15177e-07 0)
(1.0298e-06 -5.95523e-07 0)
(1.09664e-06 -5.76528e-07 0)
(1.16289e-06 -5.58213e-07 0)
(1.22849e-06 -5.40543e-07 0)
(1.29338e-06 -5.23408e-07 0)
(1.35756e-06 -5.06726e-07 0)
(1.42103e-06 -4.90402e-07 0)
(1.48376e-06 -4.74289e-07 0)
(1.54583e-06 -4.58231e-07 0)
(1.60724e-06 -4.42159e-07 0)
(1.66804e-06 -4.25892e-07 0)
(1.72833e-06 -4.09336e-07 0)
(1.78814e-06 -3.92389e-07 0)
(1.8476e-06 -3.74863e-07 0)
(1.90673e-06 -3.56656e-07 0)
(1.96576e-06 -3.37689e-07 0)
(7.44357e-07 -7.08173e-07 0)
(8.11277e-07 -6.87047e-07 0)
(8.78192e-07 -6.66421e-07 0)
(9.44859e-07 -6.46154e-07 0)
(1.01127e-06 -6.26398e-07 0)
(1.07726e-06 -6.07162e-07 0)
(1.14279e-06 -5.88498e-07 0)
(1.20777e-06 -5.70394e-07 0)
(1.27214e-06 -5.52761e-07 0)
(1.3359e-06 -5.35539e-07 0)
(1.39903e-06 -5.18659e-07 0)
(1.46152e-06 -5.0199e-07 0)
(1.52342e-06 -4.85402e-07 0)
(1.58473e-06 -4.68848e-07 0)
(1.64549e-06 -4.52167e-07 0)
(1.7058e-06 -4.35285e-07 0)
(1.76566e-06 -4.18111e-07 0)
(1.82518e-06 -4.00468e-07 0)
(1.88445e-06 -3.823e-07 0)
(1.94359e-06 -3.63557e-07 0)
(7.31038e-07 -7.37622e-07 0)
(7.96788e-07 -7.16891e-07 0)
(8.62592e-07 -6.96477e-07 0)
(9.28249e-07 -6.76296e-07 0)
(9.93731e-07 -6.56492e-07 0)
(1.05889e-06 -6.37085e-07 0)
(1.12367e-06 -6.18152e-07 0)
(1.188e-06 -5.99699e-07 0)
(1.25183e-06 -5.8166e-07 0)
(1.31515e-06 -5.63984e-07 0)
(1.37793e-06 -5.46632e-07 0)
(1.44014e-06 -5.2949e-07 0)
(1.50185e-06 -5.12454e-07 0)
(1.56304e-06 -4.95498e-07 0)
(1.62374e-06 -4.78479e-07 0)
(1.68403e-06 -4.61334e-07 0)
(1.7439e-06 -4.43982e-07 0)
(1.80347e-06 -4.26273e-07 0)
(1.86283e-06 -4.08209e-07 0)
(1.92206e-06 -3.8969e-07 0)
(7.18352e-07 -7.66298e-07 0)
(7.82991e-07 -7.45932e-07 0)
(8.47745e-07 -7.25741e-07 0)
(9.12431e-07 -7.05668e-07 0)
(9.77004e-07 -6.85852e-07 0)
(1.04134e-06 -6.66324e-07 0)
(1.10538e-06 -6.4719e-07 0)
(1.16909e-06 -6.28459e-07 0)
(1.23238e-06 -6.10096e-07 0)
(1.29526e-06 -5.92051e-07 0)
(1.35767e-06 -5.74313e-07 0)
(1.41961e-06 -5.56786e-07 0)
(1.48111e-06 -5.39383e-07 0)
(1.54215e-06 -5.221e-07 0)
(1.60276e-06 -5.04805e-07 0)
(1.66299e-06 -4.87445e-07 0)
(1.72284e-06 -4.69958e-07 0)
(1.78245e-06 -4.52235e-07 0)
(1.84182e-06 -4.34299e-07 0)
(1.90113e-06 -4.16038e-07 0)
(7.06107e-07 -7.94271e-07 0)
(7.697e-07 -7.74255e-07 0)
(8.33458e-07 -7.5428e-07 0)
(8.97199e-07 -7.34319e-07 0)
(9.609e-07 -7.14515e-07 0)
(1.02445e-06 -6.94915e-07 0)
(1.08781e-06 -6.75644e-07 0)
(1.1509e-06 -6.56712e-07 0)
(1.21368e-06 -6.38099e-07 0)
(1.27612e-06 -6.19761e-07 0)
(1.33817e-06 -6.01706e-07 0)
(1.39982e-06 -5.83858e-07 0)
(1.4611e-06 -5.66151e-07 0)
(1.52199e-06 -5.48596e-07 0)
(1.58248e-06 -5.31071e-07 0)
(1.64265e-06 -5.13535e-07 0)
(1.70246e-06 -4.95958e-07 0)
(1.76207e-06 -4.78264e-07 0)
(1.82144e-06 -4.60445e-07 0)
(1.88078e-06 -4.42491e-07 0)
(6.94082e-07 -8.21624e-07 0)
(7.5669e-07 -8.01931e-07 0)
(8.19494e-07 -7.8215e-07 0)
(8.82344e-07 -7.62305e-07 0)
(9.45237e-07 -7.42541e-07 0)
(1.00806e-06 -7.2292e-07 0)
(1.07077e-06 -7.03561e-07 0)
(1.13329e-06 -6.84485e-07 0)
(1.19558e-06 -6.65668e-07 0)
(1.25761e-06 -6.47097e-07 0)
(1.31933e-06 -6.28798e-07 0)
(1.38073e-06 -6.10704e-07 0)
(1.44181e-06 -5.9276e-07 0)
(1.50255e-06 -5.74987e-07 0)
(1.56293e-06 -5.57272e-07 0)
(1.62301e-06 -5.396e-07 0)
(1.68279e-06 -5.21969e-07 0)
(1.74236e-06 -5.04318e-07 0)
(1.80175e-06 -4.86648e-07 0)
(1.86108e-06 -4.68982e-07 0)
(6.82052e-07 -8.48422e-07 0)
(7.43723e-07 -8.29023e-07 0)
(8.05627e-07 -8.09406e-07 0)
(8.67667e-07 -7.89687e-07 0)
(9.29827e-07 -7.69992e-07 0)
(9.91985e-07 -7.50387e-07 0)
(1.05412e-06 -7.30975e-07 0)
(1.11613e-06 -7.1181e-07 0)
(1.17798e-06 -6.92859e-07 0)
(1.23963e-06 -6.74116e-07 0)
(1.30106e-06 -6.55628e-07 0)
(1.36222e-06 -6.37341e-07 0)
(1.42311e-06 -6.19205e-07 0)
(1.4837e-06 -6.01245e-07 0)
(1.54397e-06 -5.8337e-07 0)
(1.60399e-06 -5.656e-07 0)
(1.66374e-06 -5.47946e-07 0)
(1.72327e-06 -5.3032e-07 0)
(1.78265e-06 -5.1282e-07 0)
(1.84197e-06 -4.95451e-07 0)
(6.69787e-07 -8.74738e-07 0)
(7.30568e-07 -8.55557e-07 0)
(7.91636e-07 -8.36126e-07 0)
(8.52979e-07 -8.16564e-07 0)
(9.14475e-07 -7.96948e-07 0)
(9.76069e-07 -7.7738e-07 0)
(1.03768e-06 -7.57959e-07 0)
(1.09925e-06 -7.38734e-07 0)
(1.16072e-06 -7.19684e-07 0)
(1.22207e-06 -7.00825e-07 0)
(1.28325e-06 -6.82206e-07 0)
(1.3442e-06 -6.63767e-07 0)
(1.40493e-06 -6.45467e-07 0)
(1.4654e-06 -6.27359e-07 0)
(1.5256e-06 -6.09377e-07 0)
(1.5856e-06 -5.91528e-07 0)
(1.64531e-06 -5.73824e-07 0)
(1.70483e-06 -5.5624e-07 0)
(1.76414e-06 -5.38916e-07 0)
(1.82348e-06 -5.21823e-07 0)
(6.5703e-07 -9.00554e-07 0)
(7.17037e-07 -8.81619e-07 0)
(7.77428e-07 -8.62393e-07 0)
(8.38125e-07 -8.42974e-07 0)
(8.99065e-07 -8.2348e-07 0)
(9.60156e-07 -8.03968e-07 0)
(1.02133e-06 -7.84559e-07 0)
(1.08254e-06 -7.65316e-07 0)
(1.14371e-06 -7.46223e-07 0)
(1.20482e-06 -7.27287e-07 0)
(1.26581e-06 -7.08564e-07 0)
(1.3266e-06 -6.90013e-07 0)
(1.38721e-06 -6.71602e-07 0)
(1.44763e-06 -6.53374e-07 0)
(1.50781e-06 -6.35286e-07 0)
(1.56777e-06 -6.17377e-07 0)
(1.62744e-06 -5.99633e-07 0)
(1.68701e-06 -5.82079e-07 0)
(1.74635e-06 -5.64895e-07 0)
(1.8056e-06 -5.48099e-07 0)
(6.43574e-07 -9.2609e-07 0)
(7.02878e-07 -9.07382e-07 0)
(7.62688e-07 -8.88323e-07 0)
(8.22865e-07 -8.69061e-07 0)
(8.83344e-07 -8.4967e-07 0)
(9.44035e-07 -8.30239e-07 0)
(1.0049e-06 -8.1087e-07 0)
(1.06586e-06 -7.91628e-07 0)
(1.12683e-06 -7.7251e-07 0)
(1.18776e-06 -7.53534e-07 0)
(1.2486e-06 -7.34745e-07 0)
(1.30933e-06 -7.16094e-07 0)
(1.36992e-06 -6.97585e-07 0)
(1.43029e-06 -6.79295e-07 0)
(1.49045e-06 -6.61118e-07 0)
(1.55046e-06 -6.4309e-07 0)
(1.61022e-06 -6.25326e-07 0)
(1.66979e-06 -6.078e-07 0)
(1.72919e-06 -5.90678e-07 0)
(1.78844e-06 -5.7413e-07 0)
(6.29277e-07 -9.51188e-07 0)
(6.88006e-07 -9.32747e-07 0)
(7.47321e-07 -9.13915e-07 0)
(8.07081e-07 -8.94829e-07 0)
(8.67225e-07 -8.75568e-07 0)
(9.27678e-07 -8.56225e-07 0)
(9.88358e-07 -8.36931e-07 0)
(1.04916e-06 -8.17746e-07 0)
(1.11002e-06 -7.98628e-07 0)
(1.17089e-06 -7.79601e-07 0)
(1.23172e-06 -7.60772e-07 0)
(1.29241e-06 -7.42102e-07 0)
(1.35298e-06 -7.23511e-07 0)
(1.41341e-06 -7.05113e-07 0)
(1.47361e-06 -6.86892e-07 0)
(1.53367e-06 -6.68799e-07 0)
(1.59358e-06 -6.5098e-07 0)
(1.65325e-06 -6.33397e-07 0)
(1.7128e-06 -6.16286e-07 0)
(1.77209e-06 -5.99854e-07 0)
(4.2532e-08 -7.55214e-07 0)
(1.2804e-07 -7.44472e-07 0)
(2.1478e-07 -7.23335e-07 0)
(3.03503e-07 -6.92766e-07 0)
(3.94694e-07 -6.53893e-07 0)
(4.88656e-07 -6.08199e-07 0)
(5.8548e-07 -5.57396e-07 0)
(6.84947e-07 -5.03161e-07 0)
(7.87109e-07 -4.4717e-07 0)
(8.90805e-07 -3.90567e-07 0)
(4.15377e-08 -7.7016e-07 0)
(1.25e-07 -7.60338e-07 0)
(2.09428e-07 -7.40995e-07 0)
(2.95464e-07 -7.12973e-07 0)
(3.83497e-07 -6.77213e-07 0)
(4.73729e-07 -6.34977e-07 0)
(5.6627e-07 -5.87709e-07 0)
(6.60742e-07 -5.36927e-07 0)
(7.57116e-07 -4.84081e-07 0)
(8.53964e-07 -4.30836e-07 0)
(4.05905e-08 -7.85434e-07 0)
(1.22104e-07 -7.76457e-07 0)
(2.0438e-07 -7.58728e-07 0)
(2.87885e-07 -7.32999e-07 0)
(3.72993e-07 -7.00098e-07 0)
(4.59801e-07 -6.61117e-07 0)
(5.48444e-07 -6.17304e-07 0)
(6.38646e-07 -5.69977e-07 0)
(7.30402e-07 -5.20349e-07 0)
(8.22573e-07 -4.70022e-07 0)
(3.97471e-08 -8.01035e-07 0)
(1.19495e-07 -7.92757e-07 0)
(1.99911e-07 -7.76406e-07 0)
(2.81265e-07 -7.52646e-07 0)
(3.63919e-07 -7.22212e-07 0)
(4.47901e-07 -6.86048e-07 0)
(5.33309e-07 -6.45299e-07 0)
(6.19885e-07 -6.01149e-07 0)
(7.07551e-07 -5.54733e-07 0)
(7.95427e-07 -5.0755e-07 0)
(3.89895e-08 -8.16957e-07 0)
(1.17099e-07 -8.09327e-07 0)
(1.95791e-07 -7.94223e-07 0)
(2.75201e-07 -7.72241e-07 0)
(3.55649e-07 -7.4404e-07 0)
(4.37139e-07 -7.10497e-07 0)
(5.19748e-07 -6.72618e-07 0)
(6.03264e-07 -6.31403e-07 0)
(6.87559e-07 -5.87931e-07 0)
(7.71855e-07 -5.43593e-07 0)
(3.82652e-08 -8.33193e-07 0)
(1.14897e-07 -8.2611e-07 0)
(1.91997e-07 -8.12096e-07 0)
(2.69678e-07 -7.91702e-07 0)
(3.48183e-07 -7.65485e-07 0)
(4.27532e-07 -7.34274e-07 0)
(5.07699e-07 -6.98984e-07 0)
(5.88533e-07 -6.60484e-07 0)
(6.69915e-07 -6.19795e-07 0)
(7.51119e-07 -5.78216e-07 0)
(3.75656e-08 -8.4972e-07 0)
(1.12814e-07 -8.43137e-07 0)
(1.88426e-07 -8.30109e-07 0)
(2.64537e-07 -8.11136e-07 0)
(3.41271e-07 -7.86722e-07 0)
(4.18708e-07 -7.57629e-07 0)
(4.96771e-07 -7.24695e-07 0)
(5.75291e-07 -6.88693e-07 0)
(6.54189e-07 -6.50558e-07 0)
(7.32764e-07 -6.11533e-07 0)
(3.69296e-08 -8.66508e-07 0)
(1.1084e-07 -8.60377e-07 0)
(1.85054e-07 -8.48235e-07 0)
(2.59711e-07 -8.30534e-07 0)
(3.3485e-07 -8.0775e-07 0)
(4.10548e-07 -7.80567e-07 0)
(4.86742e-07 -7.49782e-07 0)
(5.63249e-07 -7.16087e-07 0)
(6.40009e-07 -6.80318e-07 0)
(7.16353e-07 -6.43661e-07 0)
(3.63231e-08 -8.83545e-07 0)
(1.08937e-07 -8.77822e-07 0)
(1.81835e-07 -8.66478e-07 0)
(2.55111e-07 -8.49935e-07 0)
(3.28782e-07 -8.28643e-07 0)
(4.02917e-07 -8.03195e-07 0)
(4.77427e-07 -7.74367e-07 0)
(5.52157e-07 -7.42789e-07 0)
(6.27056e-07 -7.09196e-07 0)
(7.01495e-07 -6.74715e-07 0)
(3.57006e-08 -9.00813e-07 0)
(1.07083e-07 -8.95456e-07 0)
(1.78727e-07 -8.84834e-07 0)
(2.50692e-07 -8.69342e-07 0)
(3.22974e-07 -8.49411e-07 0)
(3.95678e-07 -8.25545e-07 0)
(4.68661e-07 -7.98497e-07 0)
(5.41798e-07 -7.68862e-07 0)
(6.15054e-07 -7.37277e-07 0)
(6.87838e-07 -7.04799e-07 0)
(3.50713e-08 -9.18282e-07 0)
(1.05281e-07 -9.13264e-07 0)
(1.75688e-07 -9.03305e-07 0)
(2.46396e-07 -8.88769e-07 0)
(3.17354e-07 -8.70073e-07 0)
(3.88708e-07 -8.47658e-07 0)
(4.60295e-07 -8.22238e-07 0)
(5.31992e-07 -7.94382e-07 0)
(6.03776e-07 -7.64644e-07 0)
(6.75103e-07 -7.3401e-07 0)
(3.4465e-08 -9.35926e-07 0)
(1.03518e-07 -9.31223e-07 0)
(1.72687e-07 -9.21875e-07 0)
(2.42168e-07 -9.0821e-07 0)
(3.11863e-07 -8.90638e-07 0)
(3.81921e-07 -8.69559e-07 0)
(4.52207e-07 -8.45635e-07 0)
(5.22583e-07 -8.19409e-07 0)
(5.93034e-07 -7.91369e-07 0)
(6.6308e-07 -7.6243e-07 0)
(3.38773e-08 -9.53729e-07 0)
(1.01746e-07 -9.49314e-07 0)
(1.69676e-07 -9.40529e-07 0)
(2.37937e-07 -9.27662e-07 0)
(3.06413e-07 -9.1112e-07 0)
(3.75218e-07 -8.91275e-07 0)
(4.44269e-07 -8.68727e-07 0)
(5.1342e-07 -8.43992e-07 0)
(5.82665e-07 -8.17517e-07 0)
(6.51597e-07 -7.90145e-07 0)
(3.32743e-08 -9.71665e-07 0)
(9.99086e-08 -9.67508e-07 0)
(1.666e-07 -9.59239e-07 0)
(2.33629e-07 -9.47112e-07 0)
(3.00902e-07 -9.31518e-07 0)
(3.6849e-07 -9.12809e-07 0)
(4.36354e-07 -8.91532e-07 0)
(5.04361e-07 -8.68176e-07 0)
(5.72513e-07 -8.43163e-07 0)
(6.40449e-07 -8.17246e-07 0)
(3.26314e-08 -9.89705e-07 0)
(9.79775e-08 -9.85781e-07 0)
(1.63419e-07 -9.77991e-07 0)
(2.29193e-07 -9.66553e-07 0)
(2.9525e-07 -9.51842e-07 0)
(3.61636e-07 -9.34189e-07 0)
(4.28339e-07 -9.14088e-07 0)
(4.95266e-07 -8.92014e-07 0)
(5.62394e-07 -8.68367e-07 0)
(6.29409e-07 -8.43794e-07 0)
(3.19494e-08 -1.00779e-06 0)
(9.59564e-08 -1.00408e-06 0)
(1.60108e-07 -9.96745e-07 0)
(2.2458e-07 -9.85957e-07 0)
(2.89383e-07 -9.72063e-07 0)
(3.54555e-07 -9.55383e-07 0)
(4.20114e-07 -9.36387e-07 0)
(4.86002e-07 -9.15521e-07 0)
(5.52135e-07 -8.9315e-07 0)
(6.183e-07 -8.69829e-07 0)
(3.12369e-08 -1.0259e-06 0)
(9.38378e-08 -1.0224e-06 0)
(1.56619e-07 -1.01549e-06 0)
(2.19722e-07 -1.00531e-06 0)
(2.83219e-07 -9.9219e-07 0)
(3.4715e-07 -9.76431e-07 0)
(4.11557e-07 -9.58481e-07 0)
(4.76379e-07 -9.38761e-07 0)
(5.41543e-07 -9.17575e-07 0)
(6.06868e-07 -8.95443e-07 0)
(3.04863e-08 -1.04392e-06 0)
(9.15807e-08 -1.04063e-06 0)
(1.52884e-07 -1.03411e-06 0)
(2.14533e-07 -1.02451e-06 0)
(2.76647e-07 -1.01212e-06 0)
(3.39288e-07 -9.97245e-07 0)
(4.02503e-07 -9.80291e-07 0)
(4.66214e-07 -9.61653e-07 0)
(5.3042e-07 -9.41604e-07 0)
(5.9492e-07 -9.20595e-07 0)
(2.96735e-08 -1.0619e-06 0)
(8.91207e-08 -1.0588e-06 0)
(1.48812e-07 -1.05266e-06 0)
(2.08911e-07 -1.04362e-06 0)
(2.69548e-07 -1.03195e-06 0)
(3.30818e-07 -1.01792e-06 0)
(3.92765e-07 -1.00193e-06 0)
(4.55342e-07 -9.84322e-07 0)
(5.18524e-07 -9.65379e-07 0)
(5.8221e-07 -9.45458e-07 0)
(2.87838e-08 -1.07953e-06 0)
(8.64426e-08 -1.07661e-06 0)
(1.4438e-07 -1.07086e-06 0)
(2.02798e-07 -1.06237e-06 0)
(2.61861e-07 -1.0514e-06 0)
(3.21673e-07 -1.03822e-06 0)
(3.82263e-07 -1.02317e-06 0)
(4.43682e-07 -1.00658e-06 0)
(5.05814e-07 -9.88721e-07 0)
(5.68703e-07 -9.69875e-07 0)
)


// ************************************************************************* //
