/*--------------------------------*- C++ -*----------------------------------*\
| =========                 |                                                 |
| \\      /  F ield         | foam-extend: Open Source CFD                    |
|  \\    /   O peration     | Version:     4.1                                |
|   \\  /    A nd           | Web:         http://www.foam-extend.org         |
|    \\/     M anipulation  |                                                 |
\*---------------------------------------------------------------------------*/
FoamFile
{
    version     2.0;
    format      ascii;
    class       vectorField;
    location    "6";
    object      solidsCellD_iteration0;
}
// * * * * * * * * * * * * * * * * * * * * * * * * * * * * * * * * * * * * * //


1000
(
(2.83401e-06 -1.17451e-06 0)
(2.68024e-06 -1.09054e-06 0)
(2.58276e-06 -1.03621e-06 0)
(2.52798e-06 -1.00945e-06 0)
(2.50262e-06 -9.98317e-07 0)
(2.49879e-06 -9.99313e-07 0)
(2.51082e-06 -1.00816e-06 0)
(2.53486e-06 -1.0228e-06 0)
(2.56749e-06 -1.04141e-06 0)
(2.60704e-06 -1.06282e-06 0)
(2.56298e-06 -1.28272e-06 0)
(2.39892e-06 -1.22315e-06 0)
(2.29485e-06 -1.1842e-06 0)
(2.23504e-06 -1.16788e-06 0)
(2.20564e-06 -1.16362e-06 0)
(2.198e-06 -1.16947e-06 0)
(2.2062e-06 -1.18181e-06 0)
(2.22603e-06 -1.19902e-06 0)
(2.25408e-06 -1.21988e-06 0)
(2.28828e-06 -1.24244e-06 0)
(2.2812e-06 -1.38531e-06 0)
(2.11341e-06 -1.35305e-06 0)
(2.00691e-06 -1.33134e-06 0)
(1.94473e-06 -1.32658e-06 0)
(1.91291e-06 -1.32989e-06 0)
(1.9025e-06 -1.34098e-06 0)
(1.90751e-06 -1.35698e-06 0)
(1.92374e-06 -1.37684e-06 0)
(1.94785e-06 -1.39984e-06 0)
(1.97783e-06 -1.42392e-06 0)
(1.99082e-06 -1.48046e-06 0)
(1.8263e-06 -1.47688e-06 0)
(1.72184e-06 -1.4733e-06 0)
(1.66015e-06 -1.48066e-06 0)
(1.62772e-06 -1.49185e-06 0)
(1.61567e-06 -1.50836e-06 0)
(1.61827e-06 -1.52807e-06 0)
(1.63138e-06 -1.55059e-06 0)
(1.65199e-06 -1.57563e-06 0)
(1.67793e-06 -1.60131e-06 0)
(1.69372e-06 -1.56631e-06 0)
(1.53958e-06 -1.59118e-06 0)
(1.44168e-06 -1.60561e-06 0)
(1.38338e-06 -1.62495e-06 0)
(1.35217e-06 -1.64392e-06 0)
(1.33962e-06 -1.66573e-06 0)
(1.3405e-06 -1.68903e-06 0)
(1.35091e-06 -1.71415e-06 0)
(1.36822e-06 -1.7411e-06 0)
(1.39022e-06 -1.76843e-06 0)
(1.39155e-06 -1.64108e-06 0)
(1.25458e-06 -1.69259e-06 0)
(1.16759e-06 -1.72389e-06 0)
(1.11548e-06 -1.75443e-06 0)
(1.08721e-06 -1.78064e-06 0)
(1.07526e-06 -1.80739e-06 0)
(1.07505e-06 -1.83402e-06 0)
(1.08311e-06 -1.86154e-06 0)
(1.09722e-06 -1.89024e-06 0)
(1.11525e-06 -1.91915e-06 0)
(1.08566e-06 -1.7031e-06 0)
(9.72034e-07 -1.77796e-06 0)
(8.99865e-07 -1.82405e-06 0)
(8.56449e-07 -1.8644e-06 0)
(8.32675e-07 -1.89695e-06 0)
(8.22287e-07 -1.92801e-06 0)
(8.21525e-07 -1.95753e-06 0)
(8.27495e-07 -1.98715e-06 0)
(8.38451e-07 -2.01735e-06 0)
(8.52509e-07 -2.04771e-06 0)
(7.77183e-07 -1.75096e-06 0)
(6.92075e-07 -1.84456e-06 0)
(6.38015e-07 -1.90254e-06 0)
(6.05395e-07 -1.95077e-06 0)
(5.87418e-07 -1.9884e-06 0)
(5.79387e-07 -2.02292e-06 0)
(5.78512e-07 -2.05476e-06 0)
(5.82612e-07 -2.08608e-06 0)
(5.90433e-07 -2.11748e-06 0)
(6.00486e-07 -2.14904e-06 0)
(4.67033e-07 -1.78349e-06 0)
(4.14335e-07 -1.89022e-06 0)
(3.80849e-07 -1.95651e-06 0)
(3.60599e-07 -2.01025e-06 0)
(3.4939e-07 -2.05144e-06 0)
(3.44308e-07 -2.08837e-06 0)
(3.43638e-07 -2.12183e-06 0)
(3.46025e-07 -2.15435e-06 0)
(3.50712e-07 -2.18659e-06 0)
(3.56747e-07 -2.21901e-06 0)
(1.55968e-07 -1.79988e-06 0)
(1.38107e-07 -1.91338e-06 0)
(1.26742e-07 -1.98397e-06 0)
(1.19852e-07 -2.04055e-06 0)
(1.16022e-07 -2.08359e-06 0)
(1.14265e-07 -2.12178e-06 0)
(1.14002e-07 -2.15608e-06 0)
(1.14773e-07 -2.18921e-06 0)
(1.16327e-07 -2.22189e-06 0)
(1.18333e-07 -2.25475e-06 0)
(4.41584e-06 -5.3686e-08 0)
(4.45671e-06 -3.86434e-08 0)
(4.48272e-06 -2.90464e-08 0)
(4.5112e-06 -2.3341e-08 0)
(4.5422e-06 -2.0101e-08 0)
(4.57978e-06 -1.85164e-08 0)
(4.62366e-06 -1.8045e-08 0)
(4.67432e-06 -1.83037e-08 0)
(4.73148e-06 -1.90863e-08 0)
(4.79443e-06 -2.00482e-08 0)
(4.38328e-06 -1.61023e-07 0)
(4.4177e-06 -1.16774e-07 0)
(4.43966e-06 -8.86049e-08 0)
(4.46546e-06 -7.19029e-08 0)
(4.4947e-06 -6.24566e-08 0)
(4.53104e-06 -5.7879e-08 0)
(4.57403e-06 -5.65721e-08 0)
(4.62396e-06 -5.7412e-08 0)
(4.68052e-06 -5.97827e-08 0)
(4.74277e-06 -6.2687e-08 0)
(4.31829e-06 -2.69283e-07 0)
(4.34042e-06 -1.98209e-07 0)
(4.3546e-06 -1.52995e-07 0)
(4.37525e-06 -1.26257e-07 0)
(4.40111e-06 -1.11193e-07 0)
(4.43508e-06 -1.03977e-07 0)
(4.47638e-06 -1.02025e-07 0)
(4.52493e-06 -1.03544e-07 0)
(4.58038e-06 -1.07513e-07 0)
(4.64138e-06 -1.12381e-07 0)
(4.22199e-06 -3.78876e-07 0)
(4.22662e-06 -2.84819e-07 0)
(4.22972e-06 -2.24966e-07 0)
(4.24304e-06 -1.89713e-07 0)
(4.26408e-06 -1.69954e-07 0)
(4.29466e-06 -1.60656e-07 0)
(4.33351e-06 -1.58355e-07 0)
(4.38008e-06 -1.60703e-07 0)
(4.43393e-06 -1.66285e-07 0)
(4.49315e-06 -1.73149e-07 0)
(4.09584e-06 -4.90105e-07 0)
(4.07881e-06 -3.78154e-07 0)
(4.0682e-06 -3.0687e-07 0)
(4.07244e-06 -2.65124e-07 0)
(4.08751e-06 -2.41901e-07 0)
(4.11388e-06 -2.31264e-07 0)
(4.14972e-06 -2.29017e-07 0)
(4.19387e-06 -2.324e-07 0)
(4.24575e-06 -2.39625e-07 0)
(4.30285e-06 -2.48521e-07 0)
(3.94171e-06 -6.03e-07 0)
(3.90015e-06 -4.79196e-07 0)
(3.87401e-06 -4.00287e-07 0)
(3.86793e-06 -3.54448e-07 0)
(3.87619e-06 -3.29222e-07 0)
(3.89775e-06 -3.18131e-07 0)
(3.93011e-06 -3.16417e-07 0)
(3.97152e-06 -3.21078e-07 0)
(4.02115e-06 -3.29988e-07 0)
(4.07595e-06 -3.40947e-07 0)
(3.76177e-06 -7.17346e-07 0)
(3.69431e-06 -5.88346e-07 0)
(3.65175e-06 -5.06015e-07 0)
(3.63472e-06 -4.58739e-07 0)
(3.63571e-06 -4.33133e-07 0)
(3.6521e-06 -4.22566e-07 0)
(3.6807e-06 -4.21934e-07 0)
(3.71916e-06 -4.28151e-07 0)
(3.76637e-06 -4.38835e-07 0)
(3.81884e-06 -4.51888e-07 0)
(3.55844e-06 -8.32621e-07 0)
(3.46526e-06 -7.05325e-07 0)
(3.40639e-06 -6.23936e-07 0)
(3.37839e-06 -5.77975e-07 0)
(3.372e-06 -5.53668e-07 0)
(3.38306e-06 -5.44638e-07 0)
(3.40771e-06 -5.45645e-07 0)
(3.44308e-06 -5.53714e-07 0)
(3.48774e-06 -5.6626e-07 0)
(3.53806e-06 -5.81495e-07 0)
(3.33429e-06 -9.48014e-07 0)
(3.21719e-06 -8.29184e-07 0)
(3.1431e-06 -7.53021e-07 0)
(3.10476e-06 -7.11077e-07 0)
(3.09128e-06 -6.89722e-07 0)
(3.09707e-06 -6.83212e-07 0)
(3.11764e-06 -6.86433e-07 0)
(3.14976e-06 -6.96609e-07 0)
(3.19168e-06 -7.11258e-07 0)
(3.24022e-06 -7.28714e-07 0)
(3.09195e-06 -1.06243e-06 0)
(2.95418e-06 -9.58324e-07 0)
(2.86693e-06 -8.91358e-07 0)
(2.81945e-06 -8.55932e-07 0)
(2.7995e-06 -8.39041e-07 0)
(2.80021e-06 -8.35938e-07 0)
(2.81647e-06 -8.41807e-07 0)
(2.84481e-06 -8.54313e-07 0)
(2.88321e-06 -8.71012e-07 0)
(2.92994e-06 -8.91254e-07 0)
(4.86328e-06 -2.10322e-08 0)
(4.93832e-06 -2.11455e-08 0)
(5.01823e-06 -2.13326e-08 0)
(5.10276e-06 -2.14428e-08 0)
(5.1914e-06 -2.14509e-08 0)
(5.28376e-06 -2.13487e-08 0)
(5.37946e-06 -2.11095e-08 0)
(5.47811e-06 -2.07302e-08 0)
(5.57938e-06 -2.01952e-08 0)
(5.68292e-06 -1.9497e-08 0)
(5.78841e-06 -1.86222e-08 0)
(5.89552e-06 -1.75579e-08 0)
(6.00391e-06 -1.62865e-08 0)
(6.11325e-06 -1.47878e-08 0)
(6.22324e-06 -1.30358e-08 0)
(6.33342e-06 -1.10005e-08 0)
(6.44359e-06 -8.64177e-09 0)
(6.55296e-06 -5.9177e-09 0)
(6.66168e-06 -2.75916e-09 0)
(6.7679e-06 8.61338e-10 0)
(4.81388e-06 -6.54073e-08 0)
(4.89298e-06 -6.54316e-08 0)
(4.97657e-06 -6.57038e-08 0)
(5.06432e-06 -6.58012e-08 0)
(5.15586e-06 -6.56258e-08 0)
(5.25082e-06 -6.51569e-08 0)
(5.34887e-06 -6.43048e-08 0)
(5.44964e-06 -6.30573e-08 0)
(5.55283e-06 -6.13635e-08 0)
(5.6581e-06 -5.91979e-08 0)
(5.76517e-06 -5.65173e-08 0)
(5.87373e-06 -5.32808e-08 0)
(5.9835e-06 -4.94338e-08 0)
(6.09416e-06 -4.49143e-08 0)
(6.20541e-06 -3.96428e-08 0)
(6.3168e-06 -3.35282e-08 0)
(6.42812e-06 -2.64495e-08 0)
(6.5386e-06 -1.82803e-08 0)
(6.64842e-06 -8.81269e-09 0)
(6.75575e-06 2.03595e-09 0)
(4.71694e-06 -1.16132e-07 0)
(4.80406e-06 -1.15162e-07 0)
(4.89485e-06 -1.147e-07 0)
(4.98886e-06 -1.14159e-07 0)
(5.08601e-06 -1.13273e-07 0)
(5.18595e-06 -1.1202e-07 0)
(5.2885e-06 -1.10214e-07 0)
(5.39337e-06 -1.07826e-07 0)
(5.50031e-06 -1.04754e-07 0)
(5.60903e-06 -1.00947e-07 0)
(5.71928e-06 -9.63251e-08 0)
(5.83078e-06 -9.0812e-08 0)
(5.94331e-06 -8.43115e-08 0)
(6.05655e-06 -7.67158e-08 0)
(6.17025e-06 -6.78884e-08 0)
(6.28401e-06 -5.7674e-08 0)
(6.39761e-06 -4.58682e-08 0)
(6.5103e-06 -3.22576e-08 0)
(6.6223e-06 -1.64942e-08 0)
(6.73179e-06 1.5634e-09 0)
(4.57508e-06 -1.76837e-07 0)
(4.67375e-06 -1.73459e-07 0)
(4.775e-06 -1.70963e-07 0)
(4.87817e-06 -1.68789e-07 0)
(4.98357e-06 -1.66355e-07 0)
(5.09084e-06 -1.63653e-07 0)
(5.20002e-06 -1.60349e-07 0)
(5.31086e-06 -1.56386e-07 0)
(5.42326e-06 -1.51591e-07 0)
(5.53699e-06 -1.45872e-07 0)
(5.65188e-06 -1.39097e-07 0)
(5.76772e-06 -1.31149e-07 0)
(5.8843e-06 -1.21881e-07 0)
(6.00134e-06 -1.11131e-07 0)
(6.11865e-06 -9.87009e-08 0)
(6.23584e-06 -8.43663e-08 0)
(6.35276e-06 -6.78344e-08 0)
(6.46869e-06 -4.88008e-08 0)
(6.58388e-06 -2.67727e-08 0)
(6.69654e-06 -1.5409e-09 0)
(4.39268e-06 -2.50756e-07 0)
(4.50583e-06 -2.43153e-07 0)
(4.62037e-06 -2.36936e-07 0)
(4.73516e-06 -2.31826e-07 0)
(4.85111e-06 -2.26751e-07 0)
(4.96781e-06 -2.21719e-07 0)
(5.08556e-06 -2.16205e-07 0)
(5.20414e-06 -2.10089e-07 0)
(5.3236e-06 -2.03108e-07 0)
(5.44379e-06 -1.95106e-07 0)
(5.56465e-06 -1.85892e-07 0)
(5.68604e-06 -1.75286e-07 0)
(5.8078e-06 -1.63085e-07 0)
(5.92974e-06 -1.49066e-07 0)
(6.0517e-06 -1.32961e-07 0)
(6.17333e-06 -1.14471e-07 0)
(6.29453e-06 -9.3209e-08 0)
(6.41463e-06 -6.87765e-08 0)
(6.53393e-06 -4.05325e-08 0)
(6.65071e-06 -8.19121e-09 0)
(4.1748e-06 -3.40169e-07 0)
(4.30474e-06 -3.26246e-07 0)
(4.43491e-06 -3.14341e-07 0)
(4.56344e-06 -3.04725e-07 0)
(4.69194e-06 -2.95704e-07 0)
(4.81986e-06 -2.87269e-07 0)
(4.94782e-06 -2.78679e-07 0)
(5.07569e-06 -2.6971e-07 0)
(5.20364e-06 -2.59989e-07 0)
(5.33163e-06 -2.49269e-07 0)
(5.45968e-06 -2.3728e-07 0)
(5.58772e-06 -2.23768e-07 0)
(5.71571e-06 -2.08456e-07 0)
(5.84349e-06 -1.91052e-07 0)
(5.971e-06 -1.71208e-07 0)
(6.09792e-06 -1.48544e-07 0)
(6.22422e-06 -1.22574e-07 0)
(6.34929e-06 -9.28002e-08 0)
(6.47349e-06 -5.84288e-08 0)
(6.59522e-06 -1.90874e-08 0)
(3.92732e-06 -4.46554e-07 0)
(4.07563e-06 -4.24161e-07 0)
(4.22318e-06 -4.04593e-07 0)
(4.36715e-06 -3.88797e-07 0)
(4.5098e-06 -3.74478e-07 0)
(4.65047e-06 -3.61484e-07 0)
(4.79001e-06 -3.4889e-07 0)
(4.92841e-06 -3.36292e-07 0)
(5.06599e-06 -3.23204e-07 0)
(5.20283e-06 -3.09256e-07 0)
(5.33906e-06 -2.94086e-07 0)
(5.4747e-06 -2.7735e-07 0)
(5.60978e-06 -2.58691e-07 0)
(5.74425e-06 -2.37733e-07 0)
(5.87806e-06 -2.14045e-07 0)
(6.01102e-06 -1.8716e-07 0)
(6.14313e-06 -1.56489e-07 0)
(6.27389e-06 -1.2143e-07 0)
(6.40368e-06 -8.10408e-08 0)
(6.53105e-06 -3.48576e-08 0)
(3.65634e-06 -5.70146e-07 0)
(3.8239e-06 -5.36984e-07 0)
(3.98995e-06 -5.07818e-07 0)
(4.1506e-06 -4.83987e-07 0)
(4.30857e-06 -4.62925e-07 0)
(4.46319e-06 -4.44107e-07 0)
(4.61544e-06 -4.26502e-07 0)
(4.76544e-06 -4.0946e-07 0)
(4.91363e-06 -3.92367e-07 0)
(5.06022e-06 -3.74699e-07 0)
(5.20545e-06 -3.5598e-07 0)
(5.34945e-06 -3.35756e-07 0)
(5.49231e-06 -3.13571e-07 0)
(5.6341e-06 -2.88956e-07 0)
(5.77483e-06 -2.61388e-07 0)
(5.9144e-06 -2.30304e-07 0)
(6.05287e-06 -1.95009e-07 0)
(6.18985e-06 -1.54796e-07 0)
(6.32577e-06 -1.08574e-07 0)
(6.45938e-06 -5.57809e-08 0)
(3.36838e-06 -7.10738e-07 0)
(3.55584e-06 -6.64825e-07 0)
(3.74077e-06 -6.24816e-07 0)
(3.91886e-06 -5.91387e-07 0)
(4.09267e-06 -5.62358e-07 0)
(4.26188e-06 -5.36594e-07 0)
(4.42743e-06 -5.13007e-07 0)
(4.58967e-06 -4.90681e-07 0)
(4.74911e-06 -4.68857e-07 0)
(4.90609e-06 -4.46857e-07 0)
(5.06093e-06 -4.24079e-07 0)
(5.21386e-06 -3.99955e-07 0)
(5.36508e-06 -3.73923e-07 0)
(5.5147e-06 -3.45415e-07 0)
(5.66283e-06 -3.13809e-07 0)
(5.80946e-06 -2.78446e-07 0)
(5.95472e-06 -2.38525e-07 0)
(6.09835e-06 -1.93234e-07 0)
(6.24083e-06 -1.41347e-07 0)
(6.38115e-06 -8.22152e-08 0)
(3.06857e-06 -8.65633e-07 0)
(3.27669e-06 -8.0447e-07 0)
(3.47999e-06 -7.52382e-07 0)
(3.67598e-06 -7.07809e-07 0)
(3.866e-06 -6.69452e-07 0)
(4.05036e-06 -6.35657e-07 0)
(4.22978e-06 -6.0521e-07 0)
(4.40481e-06 -5.76956e-07 0)
(4.57601e-06 -5.4993e-07 0)
(4.74384e-06 -5.23276e-07 0)
(4.90872e-06 -4.9623e-07 0)
(5.07097e-06 -4.68087e-07 0)
(5.23088e-06 -4.38163e-07 0)
(5.38866e-06 -4.05781e-07 0)
(5.54447e-06 -3.70215e-07 0)
(5.69842e-06 -3.30709e-07 0)
(5.85068e-06 -2.86356e-07 0)
(6.00118e-06 -2.36249e-07 0)
(6.15042e-06 -1.79027e-07 0)
(6.2977e-06 -1.13941e-07 0)
(2.84548e-06 -1.01125e-06 0)
(3.069e-06 -9.38568e-07 0)
(3.28345e-06 -8.77954e-07 0)
(3.49007e-06 -8.24964e-07 0)
(3.68996e-06 -7.78724e-07 0)
(3.8837e-06 -7.37635e-07 0)
(4.07199e-06 -7.00465e-07 0)
(4.25534e-06 -6.66049e-07 0)
(4.4343e-06 -6.33366e-07 0)
(4.60935e-06 -6.01492e-07 0)
(4.78091e-06 -5.69587e-07 0)
(4.94934e-06 -5.36869e-07 0)
(5.11497e-06 -5.02581e-07 0)
(5.27805e-06 -4.65976e-07 0)
(5.43882e-06 -4.26265e-07 0)
(5.59745e-06 -3.82637e-07 0)
(5.75415e-06 -3.34139e-07 0)
(5.909e-06 -2.79825e-07 0)
(6.06253e-06 -2.18306e-07 0)
(6.21429e-06 -1.48819e-07 0)
(2.71846e-06 -1.12795e-06 0)
(2.9431e-06 -1.0526e-06 0)
(3.15978e-06 -9.87396e-07 0)
(3.36942e-06 -9.29414e-07 0)
(3.57257e-06 -8.77832e-07 0)
(3.76973e-06 -8.31342e-07 0)
(3.96145e-06 -7.88822e-07 0)
(4.14815e-06 -7.49202e-07 0)
(4.33032e-06 -7.11504e-07 0)
(4.50838e-06 -6.74829e-07 0)
(4.68271e-06 -6.38341e-07 0)
(4.85367e-06 -6.01251e-07 0)
(5.0216e-06 -5.62792e-07 0)
(5.18675e-06 -5.22206e-07 0)
(5.34937e-06 -4.787e-07 0)
(5.50972e-06 -4.31461e-07 0)
(5.66802e-06 -3.79556e-07 0)
(5.82443e-06 -3.22065e-07 0)
(5.97954e-06 -2.57667e-07 0)
(6.13305e-06 -1.85662e-07 0)
(2.61007e-06 -1.24087e-06 0)
(2.83211e-06 -1.16352e-06 0)
(3.04842e-06 -1.09508e-06 0)
(3.25861e-06 -1.03313e-06 0)
(3.46306e-06 -9.77061e-07 0)
(3.66193e-06 -9.25822e-07 0)
(3.85562e-06 -8.78434e-07 0)
(4.04442e-06 -8.33955e-07 0)
(4.22873e-06 -7.91481e-07 0)
(4.40889e-06 -7.50166e-07 0)
(4.58526e-06 -7.09203e-07 0)
(4.75815e-06 -6.67821e-07 0)
(4.92789e-06 -6.2526e-07 0)
(5.09471e-06 -5.8077e-07 0)
(5.2589e-06 -5.3357e-07 0)
(5.42072e-06 -4.82864e-07 0)
(5.58046e-06 -4.27756e-07 0)
(5.7383e-06 -3.6737e-07 0)
(5.89486e-06 -3.00479e-07 0)
(6.05001e-06 -2.26454e-07 0)
(2.51458e-06 -1.34967e-06 0)
(2.73312e-06 -1.27121e-06 0)
(2.94748e-06 -1.20027e-06 0)
(3.15669e-06 -1.13502e-06 0)
(3.36097e-06 -1.07507e-06 0)
(3.56022e-06 -1.01961e-06 0)
(3.75471e-06 -9.678e-07 0)
(3.94457e-06 -9.18837e-07 0)
(4.13011e-06 -8.71902e-07 0)
(4.31161e-06 -8.2621e-07 0)
(4.48935e-06 -7.80998e-07 0)
(4.6636e-06 -7.35525e-07 0)
(4.83468e-06 -6.89057e-07 0)
(5.00279e-06 -6.40864e-07 0)
(5.16824e-06 -5.90193e-07 0)
(5.33129e-06 -5.36278e-07 0)
(5.49226e-06 -4.78272e-07 0)
(5.65138e-06 -4.15359e-07 0)
(5.80925e-06 -3.4642e-07 0)
(5.9659e-06 -2.70899e-07 0)
(2.43034e-06 -1.45395e-06 0)
(2.64463e-06 -1.375e-06 0)
(2.85599e-06 -1.30233e-06 0)
(3.06307e-06 -1.23454e-06 0)
(3.26604e-06 -1.1714e-06 0)
(3.46459e-06 -1.11232e-06 0)
(3.65887e-06 -1.05662e-06 0)
(3.84889e-06 -1.00362e-06 0)
(4.03486e-06 -9.52588e-07 0)
(4.21699e-06 -9.02829e-07 0)
(4.39549e-06 -8.53632e-07 0)
(4.57059e-06 -8.04302e-07 0)
(4.74257e-06 -7.54142e-07 0)
(4.91161e-06 -7.02457e-07 0)
(5.07803e-06 -6.48532e-07 0)
(5.24206e-06 -5.91648e-07 0)
(5.40408e-06 -5.31017e-07 0)
(5.56431e-06 -4.65893e-07 0)
(5.72334e-06 -3.95277e-07 0)
(5.88134e-06 -3.18693e-07 0)
(2.35534e-06 -1.55363e-06 0)
(2.56501e-06 -1.47473e-06 0)
(2.77272e-06 -1.40092e-06 0)
(2.9769e-06 -1.33116e-06 0)
(3.17773e-06 -1.26543e-06 0)
(3.37476e-06 -1.20328e-06 0)
(3.56802e-06 -1.14418e-06 0)
(3.75744e-06 -1.08758e-06 0)
(3.94316e-06 -1.03286e-06 0)
(4.1253e-06 -9.79383e-07 0)
(4.30401e-06 -9.26519e-07 0)
(4.47949e-06 -8.73621e-07 0)
(4.65197e-06 -8.20041e-07 0)
(4.8216e-06 -7.65129e-07 0)
(4.98872e-06 -7.08217e-07 0)
(5.15352e-06 -6.48641e-07 0)
(5.31639e-06 -5.85682e-07 0)
(5.47758e-06 -5.18671e-07 0)
(5.63762e-06 -4.46736e-07 0)
(5.79682e-06 -3.69478e-07 0)
(2.28804e-06 -1.64881e-06 0)
(2.49288e-06 -1.57032e-06 0)
(2.69652e-06 -1.49586e-06 0)
(2.8973e-06 -1.42468e-06 0)
(3.09539e-06 -1.35688e-06 0)
(3.29026e-06 -1.29217e-06 0)
(3.48189e-06 -1.23017e-06 0)
(3.67011e-06 -1.17043e-06 0)
(3.85501e-06 -1.11242e-06 0)
(4.03665e-06 -1.0556e-06 0)
(4.21511e-06 -9.99408e-07 0)
(4.39056e-06 -9.43253e-07 0)
(4.5632e-06 -8.86544e-07 0)
(4.73313e-06 -8.28683e-07 0)
(4.90069e-06 -7.69059e-07 0)
(5.06606e-06 -7.07066e-07 0)
(5.2296e-06 -6.42062e-07 0)
(5.39159e-06 -5.73458e-07 0)
(5.55251e-06 -5.00512e-07 0)
(5.71274e-06 -4.22903e-07 0)
(2.22701e-06 -1.73965e-06 0)
(2.42697e-06 -1.66186e-06 0)
(2.62631e-06 -1.58711e-06 0)
(2.82336e-06 -1.51493e-06 0)
(3.01831e-06 -1.44553e-06 0)
(3.21059e-06 -1.37872e-06 0)
(3.40012e-06 -1.31427e-06 0)
(3.58668e-06 -1.2518e-06 0)
(3.7703e-06 -1.19091e-06 0)
(3.95102e-06 -1.13113e-06 0)
(4.12885e-06 -1.07196e-06 0)
(4.30393e-06 -1.01288e-06 0)
(4.47642e-06 -9.53356e-07 0)
(4.6464e-06 -8.92845e-07 0)
(4.81419e-06 -8.30796e-07 0)
(4.97993e-06 -7.66667e-07 0)
(5.144e-06 -6.99897e-07 0)
(5.30662e-06 -6.29978e-07 0)
(5.46829e-06 -5.56294e-07 0)
(5.6294e-06 -4.78597e-07 0)
(2.17102e-06 -1.82643e-06 0)
(2.36613e-06 -1.7495e-06 0)
(2.56107e-06 -1.67473e-06 0)
(2.75421e-06 -1.6019e-06 0)
(2.94577e-06 -1.53128e-06 0)
(3.13516e-06 -1.46279e-06 0)
(3.32225e-06 -1.39629e-06 0)
(3.5068e-06 -1.33152e-06 0)
(3.68881e-06 -1.26814e-06 0)
(3.86827e-06 -1.20577e-06 0)
(4.04517e-06 -1.14398e-06 0)
(4.21961e-06 -1.08231e-06 0)
(4.39171e-06 -1.02028e-06 0)
(4.56154e-06 -9.57418e-07 0)
(4.72937e-06 -8.93231e-07 0)
(4.89532e-06 -8.27243e-07 0)
(5.05974e-06 -7.58968e-07 0)
(5.22288e-06 -6.87981e-07 0)
(5.38515e-06 -6.13787e-07 0)
(5.54701e-06 -5.36209e-07 0)
(2.11892e-06 -1.90942e-06 0)
(2.30932e-06 -1.83343e-06 0)
(2.49984e-06 -1.75885e-06 0)
(2.68903e-06 -1.68563e-06 0)
(2.87706e-06 -1.61411e-06 0)
(3.06336e-06 -1.5443e-06 0)
(3.24779e-06 -1.47612e-06 0)
(3.43009e-06 -1.40942e-06 0)
(3.61024e-06 -1.34393e-06 0)
(3.78821e-06 -1.27933e-06 0)
(3.96395e-06 -1.21526e-06 0)
(4.13754e-06 -1.15133e-06 0)
(4.30905e-06 -1.08712e-06 0)
(4.47855e-06 -1.02221e-06 0)
(4.64626e-06 -9.5617e-07 0)
(4.81228e-06 -8.88586e-07 0)
(4.97694e-06 -8.19052e-07 0)
(5.14047e-06 -7.47219e-07 0)
(5.30324e-06 -6.72707e-07 0)
(5.4657e-06 -5.95398e-07 0)
(2.06975e-06 -1.98891e-06 0)
(2.25557e-06 -1.9139e-06 0)
(2.44177e-06 -1.83964e-06 0)
(2.62701e-06 -1.76625e-06 0)
(2.81145e-06 -1.69409e-06 0)
(2.99457e-06 -1.62325e-06 0)
(3.17621e-06 -1.55373e-06 0)
(3.35611e-06 -1.48544e-06 0)
(3.53425e-06 -1.41818e-06 0)
(3.71057e-06 -1.3517e-06 0)
(3.88499e-06 -1.28569e-06 0)
(4.05758e-06 -1.21983e-06 0)
(4.22836e-06 -1.15374e-06 0)
(4.39738e-06 -1.08707e-06 0)
(4.56484e-06 -1.01945e-06 0)
(4.73082e-06 -9.50524e-07 0)
(4.89561e-06 -8.79955e-07 0)
(5.05943e-06 -8.07469e-07 0)
(5.22258e-06 -7.32788e-07 0)
(5.38552e-06 -6.55853e-07 0)
(2.02262e-06 -2.06519e-06 0)
(2.20402e-06 -1.99114e-06 0)
(2.38601e-06 -1.91729e-06 0)
(2.56737e-06 -1.84387e-06 0)
(2.74825e-06 -1.7713e-06 0)
(2.92816e-06 -1.69969e-06 0)
(3.10697e-06 -1.62913e-06 0)
(3.28442e-06 -1.55955e-06 0)
(3.46047e-06 -1.49084e-06 0)
(3.63504e-06 -1.4228e-06 0)
(3.80804e-06 -1.35518e-06 0)
(3.97951e-06 -1.28769e-06 0)
(4.14946e-06 -1.22003e-06 0)
(4.3179e-06 -1.15188e-06 0)
(4.48502e-06 -1.08294e-06 0)
(4.65088e-06 -1.0129e-06 0)
(4.81572e-06 -9.41498e-07 0)
(4.97973e-06 -8.68522e-07 0)
(5.14318e-06 -7.93789e-07 0)
(5.30647e-06 -7.17287e-07 0)
(1.9767e-06 -2.13853e-06 0)
(2.15387e-06 -2.06538e-06 0)
(2.33179e-06 -1.99199e-06 0)
(2.50937e-06 -1.91867e-06 0)
(2.68675e-06 -1.84586e-06 0)
(2.86352e-06 -1.77371e-06 0)
(3.03952e-06 -1.70236e-06 0)
(3.21452e-06 -1.63179e-06 0)
(3.38847e-06 -1.56193e-06 0)
(3.56126e-06 -1.49263e-06 0)
(3.7328e-06 -1.42369e-06 0)
(3.9031e-06 -1.35487e-06 0)
(4.07214e-06 -1.28591e-06 0)
(4.23995e-06 -1.21655e-06 0)
(4.40668e-06 -1.14652e-06 0)
(4.57235e-06 -1.07558e-06 0)
(4.73717e-06 -1.00353e-06 0)
(4.90129e-06 -9.302e-07 0)
(5.06494e-06 -8.55497e-07 0)
(5.22851e-06 -7.79449e-07 0)
(1.93123e-06 -2.20915e-06 0)
(2.10436e-06 -2.13687e-06 0)
(2.27836e-06 -2.06395e-06 0)
(2.4523e-06 -1.99083e-06 0)
(2.62631e-06 -1.91792e-06 0)
(2.80003e-06 -1.84543e-06 0)
(2.97331e-06 -1.77351e-06 0)
(3.14593e-06 -1.7022e-06 0)
(3.31783e-06 -1.63146e-06 0)
(3.48887e-06 -1.56118e-06 0)
(3.65893e-06 -1.4912e-06 0)
(3.82805e-06 -1.42132e-06 0)
(3.99618e-06 -1.35133e-06 0)
(4.16334e-06 -1.281e-06 0)
(4.32965e-06 -1.21011e-06 0)
(4.49508e-06 -1.13847e-06 0)
(4.65982e-06 -1.06591e-06 0)
(4.82399e-06 -9.92344e-07 0)
(4.98779e-06 -9.17725e-07 0)
(5.15155e-06 -8.4212e-07 0)
(1.88544e-06 -2.27729e-06 0)
(2.05472e-06 -2.20579e-06 0)
(2.22498e-06 -2.13338e-06 0)
(2.39545e-06 -2.06053e-06 0)
(2.56626e-06 -1.98766e-06 0)
(2.73711e-06 -1.915e-06 0)
(2.90783e-06 -1.84272e-06 0)
(3.07819e-06 -1.7709e-06 0)
(3.24812e-06 -1.69952e-06 0)
(3.41746e-06 -1.62852e-06 0)
(3.58611e-06 -1.55775e-06 0)
(3.75409e-06 -1.48707e-06 0)
(3.92136e-06 -1.41629e-06 0)
(4.08788e-06 -1.34521e-06 0)
(4.25374e-06 -1.27366e-06 0)
(4.41889e-06 -1.20147e-06 0)
(4.58351e-06 -1.12855e-06 0)
(4.7477e-06 -1.05483e-06 0)
(4.9116e-06 -9.80318e-07 0)
(5.07547e-06 -9.0512e-07 0)
(1.83862e-06 -2.34311e-06 0)
(2.00422e-06 -2.27245e-06 0)
(2.17091e-06 -2.20049e-06 0)
(2.33816e-06 -2.12796e-06 0)
(2.50601e-06 -2.05526e-06 0)
(2.6742e-06 -1.98257e-06 0)
(2.84255e-06 -1.91013e-06 0)
(3.01081e-06 -1.838e-06 0)
(3.1789e-06 -1.76621e-06 0)
(3.34667e-06 -1.69471e-06 0)
(3.51403e-06 -1.62339e-06 0)
(3.68098e-06 -1.55213e-06 0)
(3.84742e-06 -1.48077e-06 0)
(4.0133e-06 -1.40915e-06 0)
(4.17871e-06 -1.33711e-06 0)
(4.34359e-06 -1.26454e-06 0)
(4.5081e-06 -1.19136e-06 0)
(4.67228e-06 -1.11754e-06 0)
(4.83623e-06 -1.04315e-06 0)
(5.00013e-06 -9.68298e-07 0)
(1.79001e-06 -2.4069e-06 0)
(1.95199e-06 -2.33682e-06 0)
(2.11529e-06 -2.26549e-06 0)
(2.27973e-06 -2.19343e-06 0)
(2.4449e-06 -2.12098e-06 0)
(2.61074e-06 -2.04842e-06 0)
(2.77694e-06 -1.97595e-06 0)
(2.94332e-06 -1.9037e-06 0)
(3.10977e-06 -1.83168e-06 0)
(3.27619e-06 -1.75989e-06 0)
(3.44241e-06 -1.68822e-06 0)
(3.60842e-06 -1.61658e-06 0)
(3.7741e-06 -1.54483e-06 0)
(3.93938e-06 -1.47284e-06 0)
(4.10439e-06 -1.40047e-06 0)
(4.26905e-06 -1.32763e-06 0)
(4.43342e-06 -1.25427e-06 0)
(4.59749e-06 -1.1804e-06 0)
(4.76146e-06 -1.10611e-06 0)
(4.92547e-06 -1.03154e-06 0)
(1.73841e-06 -2.46859e-06 0)
(1.89733e-06 -2.39918e-06 0)
(2.05786e-06 -2.32862e-06 0)
(2.21959e-06 -2.25707e-06 0)
(2.38244e-06 -2.18498e-06 0)
(2.54617e-06 -2.11268e-06 0)
(2.71053e-06 -2.04035e-06 0)
(2.87531e-06 -1.96814e-06 0)
(3.04043e-06 -1.89608e-06 0)
(3.20573e-06 -1.82416e-06 0)
(3.37098e-06 -1.75233e-06 0)
(3.53615e-06 -1.68048e-06 0)
(3.70117e-06 -1.6085e-06 0)
(3.866e-06 -1.53628e-06 0)
(4.03065e-06 -1.4637e-06 0)
(4.19498e-06 -1.3907e-06 0)
(4.3592e-06 -1.31724e-06 0)
(4.52324e-06 -1.24335e-06 0)
(4.68715e-06 -1.16914e-06 0)
(4.85111e-06 -1.09476e-06 0)
(1.68317e-06 -2.52888e-06 0)
(1.83928e-06 -2.46031e-06 0)
(1.9973e-06 -2.39034e-06 0)
(2.15683e-06 -2.31935e-06 0)
(2.31776e-06 -2.24774e-06 0)
(2.47983e-06 -2.17579e-06 0)
(2.64279e-06 -2.10373e-06 0)
(2.80642e-06 -2.03168e-06 0)
(2.97054e-06 -1.9597e-06 0)
(3.13494e-06 -1.88779e-06 0)
(3.29945e-06 -1.81592e-06 0)
(3.46405e-06 -1.74398e-06 0)
(3.62856e-06 -1.67189e-06 0)
(3.79291e-06 -1.59955e-06 0)
(3.95723e-06 -1.52686e-06 0)
(4.12134e-06 -1.45376e-06 0)
(4.28533e-06 -1.38025e-06 0)
(4.44926e-06 -1.30634e-06 0)
(4.61312e-06 -1.23218e-06 0)
(4.77705e-06 -1.15793e-06 0)
(1.62355e-06 -2.58724e-06 0)
(1.77721e-06 -2.5196e-06 0)
(1.93314e-06 -2.45051e-06 0)
(2.09094e-06 -2.38026e-06 0)
(2.25047e-06 -2.30928e-06 0)
(2.41145e-06 -2.23785e-06 0)
(2.57351e-06 -2.16619e-06 0)
(2.73635e-06 -2.09443e-06 0)
(2.89984e-06 -2.02265e-06 0)
(3.06376e-06 -1.95087e-06 0)
(3.22781e-06 -1.87904e-06 0)
(3.39195e-06 -1.80711e-06 0)
(3.5561e-06 -1.735e-06 0)
(3.72011e-06 -1.66261e-06 0)
(3.88408e-06 -1.58987e-06 0)
(4.04794e-06 -1.51674e-06 0)
(4.21171e-06 -1.44321e-06 0)
(4.37547e-06 -1.36932e-06 0)
(4.53921e-06 -1.29519e-06 0)
(4.70302e-06 -1.22097e-06 0)
(1.18045e-07 -2.28853e-06 0)
(3.55678e-07 -2.25448e-06 0)
(5.98002e-07 -2.18779e-06 0)
(8.4764e-07 -2.09106e-06 0)
(1.10679e-06 -1.96802e-06 0)
(1.37683e-06 -1.82327e-06 0)
(1.65836e-06 -1.66205e-06 0)
(1.95103e-06 -1.48996e-06 0)
(2.25386e-06 -1.31265e-06 0)
(2.56551e-06 -1.13475e-06 0)
(1.15112e-07 -2.32356e-06 0)
(3.46629e-07 -2.29246e-06 0)
(5.82044e-07 -2.23149e-06 0)
(8.23538e-07 -2.14286e-06 0)
(1.07296e-06 -2.02973e-06 0)
(1.33152e-06 -1.89602e-06 0)
(1.5997e-06 -1.7462e-06 0)
(1.87718e-06 -1.58506e-06 0)
(2.16247e-06 -1.41779e-06 0)
(2.4544e-06 -1.24775e-06 0)
(1.12555e-07 -2.35946e-06 0)
(3.3872e-07 -2.33102e-06 0)
(5.68025e-07 -2.27524e-06 0)
(8.02217e-07 -2.19401e-06 0)
(1.0428e-06 -2.09009e-06 0)
(1.2908e-06 -1.96684e-06 0)
(1.54664e-06 -1.82809e-06 0)
(1.81026e-06 -1.67785e-06 0)
(2.08041e-06 -1.52065e-06 0)
(2.35624e-06 -1.35828e-06 0)
(1.10269e-07 -2.39631e-06 0)
(3.3167e-07 -2.37014e-06 0)
(5.5563e-07 -2.31878e-06 0)
(7.83563e-07 -2.24388e-06 0)
(1.01669e-06 -2.14786e-06 0)
(1.25582e-06 -2.03365e-06 0)
(1.50121e-06 -1.90467e-06 0)
(1.75275e-06 -1.76436e-06 0)
(2.00934e-06 -1.61699e-06 0)
(2.27013e-06 -1.46373e-06 0)
(1.08139e-07 -2.43408e-06 0)
(3.25113e-07 -2.40993e-06 0)
(5.44149e-07 -2.36252e-06 0)
(7.66377e-07 -2.29331e-06 0)
(9.92788e-07 -2.20444e-06 0)
(1.22402e-06 -2.09851e-06 0)
(1.46029e-06 -1.97853e-06 0)
(1.70143e-06 -1.84744e-06 0)
(1.94664e-06 -1.7091e-06 0)
(2.19464e-06 -1.56453e-06 0)
(1.06137e-07 -2.47271e-06 0)
(3.18969e-07 -2.45033e-06 0)
(5.33466e-07 -2.40634e-06 0)
(7.50537e-07 -2.34208e-06 0)
(9.7098e-07 -2.25947e-06 0)
(1.19527e-06 -2.16084e-06 0)
(1.42356e-06 -2.04891e-06 0)
(1.65557e-06 -1.9263e-06 0)
(1.89086e-06 -1.79646e-06 0)
(2.12781e-06 -1.66051e-06 0)
(1.04198e-07 -2.51216e-06 0)
(3.13036e-07 -2.49134e-06 0)
(5.23219e-07 -2.4504e-06 0)
(7.35476e-07 -2.39057e-06 0)
(9.50463e-07 -2.31357e-06 0)
(1.16853e-06 -2.2215e-06 0)
(1.38979e-06 -2.11684e-06 0)
(1.61387e-06 -2.00193e-06 0)
(1.84062e-06 -1.87984e-06 0)
(2.06812e-06 -1.75191e-06 0)
(1.023e-07 -2.55232e-06 0)
(3.07249e-07 -2.53288e-06 0)
(5.13291e-07 -2.49464e-06 0)
(7.21017e-07 -2.4387e-06 0)
(9.30972e-07 -2.36668e-06 0)
(1.14339e-06 -2.28047e-06 0)
(1.35838e-06 -2.18233e-06 0)
(1.57545e-06 -2.07444e-06 0)
(1.79472e-06 -1.95948e-06 0)
(2.01412e-06 -1.83902e-06 0)
(1.00408e-07 -2.59313e-06 0)
(3.015e-07 -2.57491e-06 0)
(5.03493e-07 -2.53907e-06 0)
(7.06874e-07 -2.48663e-06 0)
(9.12105e-07 -2.41906e-06 0)
(1.11933e-06 -2.33811e-06 0)
(1.32866e-06 -2.24585e-06 0)
(1.53952e-06 -2.1443e-06 0)
(1.75218e-06 -2.03582e-06 0)
(1.96457e-06 -1.92217e-06 0)
(9.85034e-08 -2.63445e-06 0)
(2.95732e-07 -2.61733e-06 0)
(4.93721e-07 -2.58364e-06 0)
(6.92881e-07 -2.53432e-06 0)
(8.93612e-07 -2.47073e-06 0)
(1.09599e-06 -2.3945e-06 0)
(1.30011e-06 -2.30753e-06 0)
(1.50538e-06 -2.21173e-06 0)
(1.71214e-06 -2.10917e-06 0)
(1.91841e-06 -2.00172e-06 0)
(9.65636e-08 -2.67621e-06 0)
(2.89875e-07 -2.66007e-06 0)
(4.83851e-07 -2.62832e-06 0)
(6.78851e-07 -2.5818e-06 0)
(8.75225e-07 -2.5218e-06 0)
(1.073e-06 -2.44983e-06 0)
(1.27227e-06 -2.36763e-06 0)
(1.47243e-06 -2.27702e-06 0)
(1.67384e-06 -2.17984e-06 0)
(1.87469e-06 -2.078e-06 0)
(9.4571e-08 -2.71826e-06 0)
(2.83875e-07 -2.70302e-06 0)
(4.73784e-07 -2.673e-06 0)
(6.64627e-07 -2.62903e-06 0)
(8.56714e-07 -2.57227e-06 0)
(1.05004e-06 -2.50414e-06 0)
(1.2447e-06 -2.42627e-06 0)
(1.44011e-06 -2.34036e-06 0)
(1.63662e-06 -2.24807e-06 0)
(1.8326e-06 -2.1513e-06 0)
(9.25055e-08 -2.7605e-06 0)
(2.7767e-07 -2.74606e-06 0)
(4.63414e-07 -2.71763e-06 0)
(6.50044e-07 -2.67596e-06 0)
(8.37843e-07 -2.62215e-06 0)
(1.0268e-06 -2.55752e-06 0)
(1.21699e-06 -2.48357e-06 0)
(1.4079e-06 -2.40192e-06 0)
(1.59984e-06 -2.31407e-06 0)
(1.79138e-06 -2.2219e-06 0)
(9.0347e-08 -2.80275e-06 0)
(2.712e-07 -2.78905e-06 0)
(4.52631e-07 -2.76207e-06 0)
(6.34938e-07 -2.72252e-06 0)
(8.1838e-07 -2.67139e-06 0)
(1.00296e-06 -2.60996e-06 0)
(1.18875e-06 -2.53958e-06 0)
(1.37531e-06 -2.46181e-06 0)
(1.56291e-06 -2.37802e-06 0)
(1.75033e-06 -2.29001e-06 0)
(8.80718e-08 -2.84489e-06 0)
(2.64392e-07 -2.83188e-06 0)
(4.41309e-07 -2.80624e-06 0)
(6.19117e-07 -2.76863e-06 0)
(7.98064e-07 -2.71999e-06 0)
(9.78177e-07 -2.66148e-06 0)
(1.15956e-06 -2.59439e-06 0)
(1.34185e-06 -2.52017e-06 0)
(1.52525e-06 -2.44009e-06 0)
(1.70873e-06 -2.35585e-06 0)
(8.56547e-08 -2.88668e-06 0)
(2.57167e-07 -2.8743e-06 0)
(4.29306e-07 -2.84991e-06 0)
(6.02371e-07 -2.81411e-06 0)
(7.76615e-07 -2.76777e-06 0)
(9.52111e-07 -2.71199e-06 0)
(1.12899e-06 -2.64794e-06 0)
(1.30698e-06 -2.57699e-06 0)
(1.48624e-06 -2.50032e-06 0)
(1.66588e-06 -2.41953e-06 0)
(8.30631e-08 -2.92803e-06 0)
(2.4942e-07 -2.91626e-06 0)
(4.16442e-07 -2.89304e-06 0)
(5.84441e-07 -2.85895e-06 0)
(7.53694e-07 -2.81477e-06 0)
(9.24338e-07 -2.76153e-06 0)
(1.09655e-06 -2.70033e-06 0)
(1.27012e-06 -2.63244e-06 0)
(1.4452e-06 -2.55895e-06 0)
(1.62099e-06 -2.48136e-06 0)
(8.0262e-08 -2.96844e-06 0)
(2.41041e-07 -2.95723e-06 0)
(4.02527e-07 -2.93514e-06 0)
(5.65058e-07 -2.90267e-06 0)
(7.28955e-07 -2.86057e-06 0)
(8.94435e-07 -2.80976e-06 0)
(1.06171e-06 -2.75126e-06 0)
(1.23067e-06 -2.68627e-06 0)
(1.40136e-06 -2.61578e-06 0)
(1.57323e-06 -2.54121e-06 0)
(7.71935e-08 -3.00814e-06 0)
(2.31855e-07 -2.99749e-06 0)
(3.8727e-07 -2.97649e-06 0)
(5.43818e-07 -2.9456e-06 0)
(7.01889e-07 -2.90549e-06 0)
(8.61788e-07 -2.85703e-06 0)
(1.02377e-06 -2.80114e-06 0)
(1.18778e-06 -2.73893e-06 0)
(1.35385e-06 -2.67133e-06 0)
(1.52161e-06 -2.59963e-06 0)
(7.38279e-08 -3.04572e-06 0)
(2.2178e-07 -3.03563e-06 0)
(3.70533e-07 -3.01571e-06 0)
(5.2053e-07 -2.9864e-06 0)
(6.72256e-07 -2.94829e-06 0)
(8.26091e-07 -2.90218e-06 0)
(9.82323e-07 -2.84891e-06 0)
(1.14094e-06 -2.7895e-06 0)
(1.30205e-06 -2.72481e-06 0)
(1.46549e-06 -2.65603e-06 0)
)


// ************************************************************************* //
