/*--------------------------------*- C++ -*----------------------------------*\
| =========                 |                                                 |
| \\      /  F ield         | foam-extend: Open Source CFD                    |
|  \\    /   O peration     | Version:     4.1                                |
|   \\  /    A nd           | Web:         http://www.foam-extend.org         |
|    \\/     M anipulation  |                                                 |
\*---------------------------------------------------------------------------*/
FoamFile
{
    version     2.0;
    format      ascii;
    class       vectorField;
    location    "6";
    object      solidsCellD_iteration3;
}
// * * * * * * * * * * * * * * * * * * * * * * * * * * * * * * * * * * * * * //


1000
(
(2.99315e-06 -1.21946e-06 0)
(2.8315e-06 -1.13758e-06 0)
(2.72924e-06 -1.08671e-06 0)
(2.6719e-06 -1.06431e-06 0)
(2.64551e-06 -1.0582e-06 0)
(2.64175e-06 -1.06472e-06 0)
(2.65466e-06 -1.07952e-06 0)
(2.68008e-06 -1.10058e-06 0)
(2.71461e-06 -1.12598e-06 0)
(2.75517e-06 -1.15516e-06 0)
(2.70759e-06 -1.33205e-06 0)
(2.53521e-06 -1.27609e-06 0)
(2.42599e-06 -1.24175e-06 0)
(2.36346e-06 -1.23065e-06 0)
(2.33294e-06 -1.23208e-06 0)
(2.32523e-06 -1.24401e-06 0)
(2.33416e-06 -1.26274e-06 0)
(2.3553e-06 -1.28669e-06 0)
(2.38525e-06 -1.31442e-06 0)
(2.421e-06 -1.34458e-06 0)
(2.41038e-06 -1.43873e-06 0)
(2.23415e-06 -1.41175e-06 0)
(2.1225e-06 -1.39575e-06 0)
(2.05748e-06 -1.39703e-06 0)
(2.02447e-06 -1.4066e-06 0)
(2.01392e-06 -1.42414e-06 0)
(2.0196e-06 -1.44675e-06 0)
(2.03714e-06 -1.47335e-06 0)
(2.06312e-06 -1.50305e-06 0)
(2.09484e-06 -1.53431e-06 0)
(2.10397e-06 -1.53762e-06 0)
(1.93124e-06 -1.54101e-06 0)
(1.82183e-06 -1.54421e-06 0)
(1.75735e-06 -1.55833e-06 0)
(1.72366e-06 -1.57627e-06 0)
(1.71144e-06 -1.59951e-06 0)
(1.71467e-06 -1.62594e-06 0)
(1.72905e-06 -1.65517e-06 0)
(1.75146e-06 -1.6868e-06 0)
(1.7792e-06 -1.71932e-06 0)
(1.79037e-06 -1.62677e-06 0)
(1.62858e-06 -1.66022e-06 0)
(1.52604e-06 -1.68248e-06 0)
(1.46514e-06 -1.70925e-06 0)
(1.43276e-06 -1.73536e-06 0)
(1.42005e-06 -1.76413e-06 0)
(1.42149e-06 -1.79426e-06 0)
(1.43304e-06 -1.82606e-06 0)
(1.452e-06 -1.85952e-06 0)
(1.47574e-06 -1.89344e-06 0)
(1.47128e-06 -1.70434e-06 0)
(1.32749e-06 -1.76591e-06 0)
(1.23638e-06 -1.80597e-06 0)
(1.18198e-06 -1.84455e-06 0)
(1.1527e-06 -1.87831e-06 0)
(1.14055e-06 -1.91224e-06 0)
(1.14083e-06 -1.94576e-06 0)
(1.14989e-06 -1.97995e-06 0)
(1.16547e-06 -2.0151e-06 0)
(1.18507e-06 -2.05045e-06 0)
(1.14809e-06 -1.76861e-06 0)
(1.02882e-06 -1.85481e-06 0)
(9.53235e-07 -1.91048e-06 0)
(9.07909e-07 -1.9594e-06 0)
(8.83271e-07 -1.99982e-06 0)
(8.72708e-07 -2.03826e-06 0)
(8.72358e-07 -2.07476e-06 0)
(8.79175e-07 -2.11107e-06 0)
(8.91339e-07 -2.14771e-06 0)
(9.06691e-07 -2.18441e-06 0)
(8.22008e-07 -1.81816e-06 0)
(7.32679e-07 -1.92413e-06 0)
(6.76063e-07 -1.99235e-06 0)
(6.42041e-07 -2.04955e-06 0)
(6.23391e-07 -2.09532e-06 0)
(6.15215e-07 -2.13737e-06 0)
(6.14648e-07 -2.17627e-06 0)
(6.19392e-07 -2.21431e-06 0)
(6.28114e-07 -2.25214e-06 0)
(6.3912e-07 -2.28993e-06 0)
(4.94036e-07 -1.85184e-06 0)
(4.38751e-07 -1.97163e-06 0)
(4.03683e-07 -2.04862e-06 0)
(3.82525e-07 -2.11165e-06 0)
(3.70869e-07 -2.16117e-06 0)
(3.65726e-07 -2.20573e-06 0)
(3.65284e-07 -2.24633e-06 0)
(3.68061e-07 -2.2856e-06 0)
(3.73268e-07 -2.32431e-06 0)
(3.79876e-07 -2.36295e-06 0)
(1.65012e-07 -1.8688e-06 0)
(1.46237e-07 -1.99571e-06 0)
(1.34327e-07 -2.07725e-06 0)
(1.2716e-07 -2.14328e-06 0)
(1.23199e-07 -2.19471e-06 0)
(1.21402e-07 -2.24057e-06 0)
(1.21202e-07 -2.28202e-06 0)
(1.22115e-07 -2.32191e-06 0)
(1.23846e-07 -2.36104e-06 0)
(1.26034e-07 -2.40008e-06 0)
(4.65794e-06 -5.56282e-08 0)
(4.69945e-06 -4.02266e-08 0)
(4.72601e-06 -3.05054e-08 0)
(4.75526e-06 -2.48437e-08 0)
(4.78753e-06 -2.17614e-08 0)
(4.82692e-06 -2.03994e-08 0)
(4.87323e-06 -2.01834e-08 0)
(4.92685e-06 -2.07467e-08 0)
(4.98763e-06 -2.18567e-08 0)
(5.05478e-06 -2.31456e-08 0)
(4.62377e-06 -1.66866e-07 0)
(4.65849e-06 -1.21576e-07 0)
(4.68082e-06 -9.30676e-08 0)
(4.70724e-06 -7.65109e-08 0)
(4.73765e-06 -6.75204e-08 0)
(4.77567e-06 -6.36106e-08 0)
(4.82103e-06 -6.3096e-08 0)
(4.87389e-06 -6.48347e-08 0)
(4.93403e-06 -6.81555e-08 0)
(5.00048e-06 -7.20409e-08 0)
(4.55541e-06 -2.79076e-07 0)
(4.57725e-06 -2.06389e-07 0)
(4.59145e-06 -1.60686e-07 0)
(4.61251e-06 -1.34215e-07 0)
(4.63935e-06 -1.19921e-07 0)
(4.67488e-06 -1.13822e-07 0)
(4.7184e-06 -1.13183e-07 0)
(4.76974e-06 -1.16173e-07 0)
(4.82861e-06 -1.21719e-07 0)
(4.89373e-06 -1.28229e-07 0)
(4.45411e-06 -3.92703e-07 0)
(4.45767e-06 -2.966e-07 0)
(4.46024e-06 -2.36226e-07 0)
(4.47367e-06 -2.01427e-07 0)
(4.49543e-06 -1.82762e-07 0)
(4.52731e-06 -1.75015e-07 0)
(4.56819e-06 -1.74552e-07 0)
(4.61743e-06 -1.78958e-07 0)
(4.67454e-06 -1.86753e-07 0)
(4.73781e-06 -1.95892e-07 0)
(4.32138e-06 -5.08099e-07 0)
(4.30237e-06 -3.93858e-07 0)
(4.29058e-06 -3.22125e-07 0)
(4.29447e-06 -2.81093e-07 0)
(4.30994e-06 -2.59322e-07 0)
(4.33737e-06 -2.50684e-07 0)
(4.37496e-06 -2.50804e-07 0)
(4.42157e-06 -2.56811e-07 0)
(4.47647e-06 -2.6686e-07 0)
(4.5375e-06 -2.78627e-07 0)
(4.15924e-06 -6.25303e-07 0)
(4.11463e-06 -4.99216e-07 0)
(4.08659e-06 -4.20047e-07 0)
(4.07967e-06 -3.7527e-07 0)
(4.08802e-06 -3.5192e-07 0)
(4.11036e-06 -3.43293e-07 0)
(4.14422e-06 -3.44446e-07 0)
(4.1878e-06 -3.52251e-07 0)
(4.24016e-06 -3.64553e-07 0)
(4.29876e-06 -3.78944e-07 0)
(3.96994e-06 -7.44064e-07 0)
(3.8983e-06 -6.13092e-07 0)
(3.85313e-06 -5.30864e-07 0)
(3.83479e-06 -4.85095e-07 0)
(3.83552e-06 -4.61843e-07 0)
(3.85244e-06 -4.54217e-07 0)
(3.88225e-06 -4.56928e-07 0)
(3.92256e-06 -4.66776e-07 0)
(3.97213e-06 -4.814e-07 0)
(4.02826e-06 -4.9841e-07 0)
(3.75598e-06 -8.63839e-07 0)
(3.65752e-06 -7.35205e-07 0)
(3.59535e-06 -6.54483e-07 0)
(3.5656e-06 -6.10571e-07 0)
(3.55863e-06 -5.8916e-07 0)
(3.57003e-06 -5.83574e-07 0)
(3.5957e-06 -5.88396e-07 0)
(3.63265e-06 -6.00557e-07 0)
(3.67929e-06 -6.17546e-07 0)
(3.73295e-06 -6.372e-07 0)
(3.52006e-06 -9.83794e-07 0)
(3.39661e-06 -8.64558e-07 0)
(3.31868e-06 -7.89826e-07 0)
(3.27825e-06 -7.50593e-07 0)
(3.264e-06 -7.32753e-07 0)
(3.27001e-06 -7.3026e-07 0)
(3.29148e-06 -7.3782e-07 0)
(3.325e-06 -7.52557e-07 0)
(3.36842e-06 -7.72101e-07 0)
(3.4196e-06 -7.94309e-07 0)
(3.26491e-06 -1.10277e-06 0)
(3.11988e-06 -9.99431e-07 0)
(3.02829e-06 -9.34856e-07 0)
(2.97849e-06 -9.02944e-07 0)
(2.95766e-06 -8.9029e-07 0)
(2.95855e-06 -8.919e-07 0)
(2.97583e-06 -9.02813e-07 0)
(3.00578e-06 -9.20605e-07 0)
(3.04586e-06 -9.42953e-07 0)
(3.09414e-06 -9.68703e-07 0)
(5.12827e-06 -2.44278e-08 0)
(5.20831e-06 -2.47831e-08 0)
(5.29339e-06 -2.51764e-08 0)
(5.38318e-06 -2.54721e-08 0)
(5.47711e-06 -2.56432e-08 0)
(5.57486e-06 -2.56816e-08 0)
(5.67608e-06 -2.55734e-08 0)
(5.78034e-06 -2.53307e-08 0)
(5.88725e-06 -2.49358e-08 0)
(5.99652e-06 -2.43653e-08 0)
(6.10786e-06 -2.35954e-08 0)
(6.22093e-06 -2.26183e-08 0)
(6.33543e-06 -2.14276e-08 0)
(6.45102e-06 -2.00063e-08 0)
(6.56744e-06 -1.83238e-08 0)
(6.68423e-06 -1.63458e-08 0)
(6.80119e-06 -1.40316e-08 0)
(6.91757e-06 -1.13377e-08 0)
(7.0335e-06 -8.20049e-09 0)
(7.14725e-06 -4.6026e-09 0)
(5.07635e-06 -7.56695e-08 0)
(5.16069e-06 -7.6423e-08 0)
(5.24962e-06 -7.73037e-08 0)
(5.34276e-06 -7.79372e-08 0)
(5.43975e-06 -7.82384e-08 0)
(5.54021e-06 -7.81997e-08 0)
(5.64384e-06 -7.77525e-08 0)
(5.75028e-06 -7.68984e-08 0)
(5.85921e-06 -7.55788e-08 0)
(5.97033e-06 -7.37546e-08 0)
(6.08335e-06 -7.13771e-08 0)
(6.19799e-06 -6.84131e-08 0)
(6.31398e-06 -6.48167e-08 0)
(6.43098e-06 -6.05241e-08 0)
(6.54871e-06 -5.5448e-08 0)
(6.66674e-06 -4.94961e-08 0)
(6.78488e-06 -4.25478e-08 0)
(6.90239e-06 -3.44759e-08 0)
(7.01948e-06 -2.50868e-08 0)
(7.13441e-06 -1.43155e-08 0)
(4.97422e-06 -1.33467e-07 0)
(5.06698e-06 -1.33652e-07 0)
(5.16353e-06 -1.34143e-07 0)
(5.26328e-06 -1.34452e-07 0)
(5.36616e-06 -1.34339e-07 0)
(5.47188e-06 -1.33798e-07 0)
(5.58031e-06 -1.32663e-07 0)
(5.6911e-06 -1.30911e-07 0)
(5.80398e-06 -1.28431e-07 0)
(5.9187e-06 -1.25169e-07 0)
(6.03508e-06 -1.21045e-07 0)
(6.15286e-06 -1.15989e-07 0)
(6.27178e-06 -1.09904e-07 0)
(6.39154e-06 -1.02675e-07 0)
(6.51187e-06 -9.41605e-08 0)
(6.63241e-06 -8.42046e-08 0)
(6.75294e-06 -7.26036e-08 0)
(6.87277e-06 -5.91565e-08 0)
(6.99213e-06 -4.35416e-08 0)
(7.10928e-06 -2.56368e-08 0)
(4.82494e-06 -2.01562e-07 0)
(4.92979e-06 -1.9966e-07 0)
(5.03732e-06 -1.98389e-07 0)
(5.14666e-06 -1.97344e-07 0)
(5.25822e-06 -1.95956e-07 0)
(5.37168e-06 -1.94223e-07 0)
(5.48708e-06 -1.91831e-07 0)
(5.60416e-06 -1.88725e-07 0)
(5.72283e-06 -1.84729e-07 0)
(5.8429e-06 -1.79753e-07 0)
(5.96423e-06 -1.73667e-07 0)
(6.08661e-06 -1.66347e-07 0)
(6.20981e-06 -1.57639e-07 0)
(6.33357e-06 -1.47381e-07 0)
(6.45771e-06 -1.35374e-07 0)
(6.58189e-06 -1.21389e-07 0)
(6.70594e-06 -1.05136e-07 0)
(6.82921e-06 -8.63365e-08 0)
(6.95192e-06 -6.45332e-08 0)
(7.07237e-06 -3.95492e-08 0)
(4.63286e-06 -2.83261e-07 0)
(4.75292e-06 -2.77359e-07 0)
(4.87447e-06 -2.72568e-07 0)
(4.99605e-06 -2.68817e-07 0)
(5.1187e-06 -2.6502e-07 0)
(5.24205e-06 -2.61181e-07 0)
(5.36647e-06 -2.56799e-07 0)
(5.49172e-06 -2.5175e-07 0)
(5.61788e-06 -2.45771e-07 0)
(5.74485e-06 -2.38705e-07 0)
(5.87254e-06 -2.30349e-07 0)
(6.00081e-06 -2.20519e-07 0)
(6.12952e-06 -2.09002e-07 0)
(6.25849e-06 -1.9558e-07 0)
(6.38759e-06 -1.79991e-07 0)
(6.51647e-06 -1.61931e-07 0)
(6.64507e-06 -1.41024e-07 0)
(6.77269e-06 -1.16904e-07 0)
(6.89973e-06 -8.89736e-08 0)
(7.02445e-06 -5.69848e-08 0)
(4.40353e-06 -3.8091e-07 0)
(4.54117e-06 -3.68809e-07 0)
(4.6791e-06 -3.58442e-07 0)
(4.81509e-06 -3.50355e-07 0)
(4.95093e-06 -3.42806e-07 0)
(5.08612e-06 -3.35772e-07 0)
(5.22135e-06 -3.28525e-07 0)
(5.35643e-06 -3.20814e-07 0)
(5.49156e-06 -3.1227e-07 0)
(5.62676e-06 -3.02649e-07 0)
(5.76209e-06 -2.91666e-07 0)
(5.89747e-06 -2.79056e-07 0)
(6.03282e-06 -2.64539e-07 0)
(6.16805e-06 -2.47827e-07 0)
(6.30308e-06 -2.28579e-07 0)
(6.43758e-06 -2.06413e-07 0)
(6.5716e-06 -1.8087e-07 0)
(6.70448e-06 -1.51486e-07 0)
(6.83669e-06 -1.17518e-07 0)
(6.96656e-06 -7.86191e-08 0)
(4.14314e-06 -4.96077e-07 0)
(4.3e-06 -4.75499e-07 0)
(4.45619e-06 -4.57481e-07 0)
(4.60833e-06 -4.43311e-07 0)
(4.75901e-06 -4.30599e-07 0)
(4.9076e-06 -4.19173e-07 0)
(5.055e-06 -4.08087e-07 0)
(5.2012e-06 -3.96914e-07 0)
(5.34655e-06 -3.85162e-07 0)
(5.49119e-06 -3.72455e-07 0)
(5.63524e-06 -3.58418e-07 0)
(5.77874e-06 -3.42694e-07 0)
(5.92169e-06 -3.24922e-07 0)
(6.06405e-06 -3.04739e-07 0)
(6.20581e-06 -2.81715e-07 0)
(6.34674e-06 -2.55392e-07 0)
(6.48697e-06 -2.25215e-07 0)
(6.62589e-06 -1.90614e-07 0)
(6.76401e-06 -1.50687e-07 0)
(6.89978e-06 -1.04991e-07 0)
(3.85808e-06 -6.29031e-07 0)
(4.03504e-06 -5.97525e-07 0)
(4.21054e-06 -5.69817e-07 0)
(4.38014e-06 -5.47635e-07 0)
(4.54685e-06 -5.28242e-07 0)
(4.71012e-06 -5.11095e-07 0)
(4.8709e-06 -4.95104e-07 0)
(5.02937e-06 -4.79608e-07 0)
(5.186e-06 -4.63973e-07 0)
(5.34106e-06 -4.47659e-07 0)
(5.49476e-06 -4.30172e-07 0)
(5.64719e-06 -4.11047e-07 0)
(5.79845e-06 -3.89831e-07 0)
(5.94865e-06 -3.66069e-07 0)
(6.09781e-06 -3.39236e-07 0)
(6.24584e-06 -3.08781e-07 0)
(6.3929e-06 -2.74041e-07 0)
(6.53846e-06 -2.34329e-07 0)
(6.68309e-06 -1.88582e-07 0)
(6.8254e-06 -1.3627e-07 0)
(3.55505e-06 -7.79668e-07 0)
(3.75268e-06 -7.3504e-07 0)
(3.94785e-06 -6.96272e-07 0)
(4.13569e-06 -6.644e-07 0)
(4.3191e-06 -6.37027e-07 0)
(4.49779e-06 -6.12943e-07 0)
(4.67269e-06 -5.91005e-07 0)
(4.84418e-06 -5.70276e-07 0)
(5.0128e-06 -5.4997e-07 0)
(5.17893e-06 -5.29386e-07 0)
(5.34289e-06 -5.07902e-07 0)
(5.50485e-06 -4.84944e-07 0)
(5.66505e-06 -4.59959e-07 0)
(5.82367e-06 -4.32385e-07 0)
(5.98077e-06 -4.01592e-07 0)
(6.1364e-06 -3.66932e-07 0)
(6.29077e-06 -3.27623e-07 0)
(6.44345e-06 -2.82858e-07 0)
(6.59505e-06 -2.31431e-07 0)
(6.74443e-06 -1.72746e-07 0)
(3.23965e-06 -9.45973e-07 0)
(3.45879e-06 -8.85092e-07 0)
(3.67328e-06 -8.33819e-07 0)
(3.88003e-06 -7.90516e-07 0)
(4.08062e-06 -7.53613e-07 0)
(4.27535e-06 -7.21355e-07 0)
(4.46496e-06 -6.92476e-07 0)
(4.65002e-06 -6.65779e-07 0)
(4.83113e-06 -6.40259e-07 0)
(5.0088e-06 -6.1503e-07 0)
(5.18342e-06 -5.89309e-07 0)
(5.35531e-06 -5.62383e-07 0)
(5.52477e-06 -5.33574e-07 0)
(5.69209e-06 -5.02205e-07 0)
(5.8574e-06 -4.67532e-07 0)
(6.02088e-06 -4.2881e-07 0)
(6.18275e-06 -3.85134e-07 0)
(6.34276e-06 -3.35589e-07 0)
(6.50155e-06 -2.78829e-07 0)
(6.65829e-06 -2.14158e-07 0)
(3.00232e-06 -1.10758e-06 0)
(3.23812e-06 -1.03212e-06 0)
(3.46507e-06 -9.71062e-07 0)
(3.68377e-06 -9.18496e-07 0)
(3.89525e-06 -8.73144e-07 0)
(4.10021e-06 -8.33209e-07 0)
(4.29939e-06 -7.97339e-07 0)
(4.4934e-06 -7.64284e-07 0)
(4.68284e-06 -7.3296e-07 0)
(4.86825e-06 -7.02405e-07 0)
(5.05004e-06 -6.71756e-07 0)
(5.22854e-06 -6.40216e-07 0)
(5.40415e-06 -6.07027e-07 0)
(5.57718e-06 -5.71432e-07 0)
(5.7478e-06 -5.32623e-07 0)
(5.9163e-06 -4.89792e-07 0)
(6.08288e-06 -4.41977e-07 0)
(6.24752e-06 -3.88225e-07 0)
(6.41083e-06 -3.27161e-07 0)
(6.57228e-06 -2.58035e-07 0)
(2.86789e-06 -1.23936e-06 0)
(3.10504e-06 -1.16056e-06 0)
(3.33419e-06 -1.09375e-06 0)
(3.55621e-06 -1.03523e-06 0)
(3.77139e-06 -9.8381e-07 0)
(3.98023e-06 -9.37934e-07 0)
(4.18329e-06 -8.96293e-07 0)
(4.38108e-06 -8.57697e-07 0)
(4.57412e-06 -8.2109e-07 0)
(4.76289e-06 -7.85521e-07 0)
(4.94776e-06 -7.50118e-07 0)
(5.12908e-06 -7.14069e-07 0)
(5.30725e-06 -6.76597e-07 0)
(5.48259e-06 -6.36926e-07 0)
(5.65526e-06 -5.94241e-07 0)
(5.82565e-06 -5.4773e-07 0)
(5.99394e-06 -4.96447e-07 0)
(6.16026e-06 -4.39472e-07 0)
(6.32518e-06 -3.75486e-07 0)
(6.48842e-06 -3.03723e-07 0)
(2.7542e-06 -1.36526e-06 0)
(2.98871e-06 -1.28485e-06 0)
(3.2174e-06 -1.21448e-06 0)
(3.43998e-06 -1.15147e-06 0)
(3.6566e-06 -1.09503e-06 0)
(3.86737e-06 -1.04394e-06 0)
(4.07268e-06 -9.97016e-07 0)
(4.27286e-06 -9.53214e-07 0)
(4.46833e-06 -9.11542e-07 0)
(4.65947e-06 -8.71095e-07 0)
(4.84661e-06 -8.31015e-07 0)
(5.03006e-06 -7.905e-07 0)
(5.21024e-06 -7.48777e-07 0)
(5.38743e-06 -7.05072e-07 0)
(5.56181e-06 -6.58581e-07 0)
(5.7338e-06 -6.08511e-07 0)
(5.90359e-06 -5.53951e-07 0)
(6.07142e-06 -4.94025e-07 0)
(6.23781e-06 -4.27473e-07 0)
(6.40271e-06 -3.53534e-07 0)
(2.65442e-06 -1.48615e-06 0)
(2.88534e-06 -1.40504e-06 0)
(3.11198e-06 -1.33217e-06 0)
(3.33348e-06 -1.26564e-06 0)
(3.54995e-06 -1.205e-06 0)
(3.76118e-06 -1.14932e-06 0)
(3.96744e-06 -1.09764e-06 0)
(4.16886e-06 -1.04905e-06 0)
(4.36575e-06 -1.00265e-06 0)
(4.55841e-06 -9.57586e-07 0)
(4.7471e-06 -9.1305e-07 0)
(4.93209e-06 -8.6826e-07 0)
(5.11378e-06 -8.22472e-07 0)
(5.2924e-06 -7.74927e-07 0)
(5.46817e-06 -7.24848e-07 0)
(5.64151e-06 -6.71473e-07 0)
(5.81259e-06 -6.13939e-07 0)
(5.98176e-06 -5.51414e-07 0)
(6.14948e-06 -4.827e-07 0)
(6.31593e-06 -4.07127e-07 0)
(2.56661e-06 -1.60194e-06 0)
(2.79318e-06 -1.52072e-06 0)
(3.01669e-06 -1.44627e-06 0)
(3.23597e-06 -1.37714e-06 0)
(3.45106e-06 -1.31313e-06 0)
(3.66161e-06 -1.25358e-06 0)
(3.86772e-06 -1.19776e-06 0)
(4.06938e-06 -1.14487e-06 0)
(4.26681e-06 -1.09413e-06 0)
(4.46022e-06 -1.04478e-06 0)
(4.6498e-06 -9.96057e-07 0)
(4.83576e-06 -9.47231e-07 0)
(5.01849e-06 -8.97598e-07 0)
(5.19817e-06 -8.46433e-07 0)
(5.37502e-06 -7.92992e-07 0)
(5.54945e-06 -7.36554e-07 0)
(5.72164e-06 -6.76308e-07 0)
(5.89197e-06 -6.11474e-07 0)
(6.0609e-06 -5.40952e-07 0)
(6.22875e-06 -4.64253e-07 0)
(2.4885e-06 -1.71276e-06 0)
(2.71036e-06 -1.63192e-06 0)
(2.93013e-06 -1.5565e-06 0)
(3.1464e-06 -1.48544e-06 0)
(3.35927e-06 -1.41874e-06 0)
(3.56826e-06 -1.35597e-06 0)
(3.77337e-06 -1.29657e-06 0)
(3.97446e-06 -1.23988e-06 0)
(4.17167e-06 -1.18525e-06 0)
(4.36517e-06 -1.13199e-06 0)
(4.55506e-06 -1.07942e-06 0)
(4.7415e-06 -1.02687e-06 0)
(4.92485e-06 -9.73682e-07 0)
(5.10523e-06 -9.19174e-07 0)
(5.28287e-06 -8.62647e-07 0)
(5.45815e-06 -8.03422e-07 0)
(5.63125e-06 -7.40748e-07 0)
(5.80259e-06 -6.73911e-07 0)
(5.97258e-06 -6.01974e-07 0)
(6.14168e-06 -5.24601e-07 0)
(2.41847e-06 -1.81883e-06 0)
(2.6354e-06 -1.73868e-06 0)
(2.85104e-06 -1.66276e-06 0)
(3.0638e-06 -1.59035e-06 0)
(3.27385e-06 -1.52159e-06 0)
(3.48064e-06 -1.45618e-06 0)
(3.68408e-06 -1.39375e-06 0)
(3.88397e-06 -1.33378e-06 0)
(4.08038e-06 -1.27569e-06 0)
(4.27342e-06 -1.21894e-06 0)
(4.46312e-06 -1.16289e-06 0)
(4.64961e-06 -1.10695e-06 0)
(4.8332e-06 -1.05051e-06 0)
(5.01396e-06 -9.92947e-07 0)
(5.19213e-06 -9.33606e-07 0)
(5.36803e-06 -8.71859e-07 0)
(5.54185e-06 -8.07028e-07 0)
(5.71403e-06 -7.38495e-07 0)
(5.88496e-06 -6.6551e-07 0)
(6.05514e-06 -5.87765e-07 0)
(2.35503e-06 -1.92039e-06 0)
(2.56701e-06 -1.84114e-06 0)
(2.77829e-06 -1.76509e-06 0)
(2.98723e-06 -1.69178e-06 0)
(3.19406e-06 -1.62145e-06 0)
(3.39819e-06 -1.55393e-06 0)
(3.59949e-06 -1.48897e-06 0)
(3.79768e-06 -1.42617e-06 0)
(3.99282e-06 -1.36508e-06 0)
(4.18496e-06 -1.30523e-06 0)
(4.37407e-06 -1.24608e-06 0)
(4.56024e-06 -1.1871e-06 0)
(4.74375e-06 -1.12774e-06 0)
(4.9246e-06 -1.06742e-06 0)
(5.10305e-06 -1.00554e-06 0)
(5.27936e-06 -9.41548e-07 0)
(5.45373e-06 -8.7485e-07 0)
(5.62661e-06 -8.04935e-07 0)
(5.79832e-06 -7.312e-07 0)
(5.96943e-06 -6.53283e-07 0)
(2.29688e-06 -2.01775e-06 0)
(2.50399e-06 -1.93953e-06 0)
(2.7108e-06 -1.86362e-06 0)
(2.91578e-06 -1.78977e-06 0)
(3.11914e-06 -1.71827e-06 0)
(3.3203e-06 -1.64906e-06 0)
(3.51911e-06 -1.582e-06 0)
(3.71527e-06 -1.51681e-06 0)
(3.90879e-06 -1.45313e-06 0)
(4.09967e-06 -1.39059e-06 0)
(4.28787e-06 -1.32873e-06 0)
(4.47342e-06 -1.26706e-06 0)
(4.65656e-06 -1.20511e-06 0)
(4.83727e-06 -1.14233e-06 0)
(5.01577e-06 -1.07821e-06 0)
(5.19232e-06 -1.01226e-06 0)
(5.36709e-06 -9.43992e-07 0)
(5.54053e-06 -8.72979e-07 0)
(5.71289e-06 -7.98684e-07 0)
(5.88477e-06 -7.20813e-07 0)
(2.24288e-06 -2.11122e-06 0)
(2.44522e-06 -2.03411e-06 0)
(2.6476e-06 -1.95852e-06 0)
(2.84856e-06 -1.88437e-06 0)
(3.04831e-06 -1.81201e-06 0)
(3.24633e-06 -1.74147e-06 0)
(3.44243e-06 -1.6727e-06 0)
(3.63632e-06 -1.60552e-06 0)
(3.82797e-06 -1.53966e-06 0)
(4.01736e-06 -1.47483e-06 0)
(4.20439e-06 -1.41062e-06 0)
(4.38909e-06 -1.34663e-06 0)
(4.57164e-06 -1.28241e-06 0)
(4.752e-06 -1.21749e-06 0)
(4.93038e-06 -1.15143e-06 0)
(5.10703e-06 -1.08382e-06 0)
(5.28207e-06 -1.01425e-06 0)
(5.45592e-06 -9.42349e-07 0)
(5.6288e-06 -8.67639e-07 0)
(5.80131e-06 -7.90051e-07 0)
(2.19201e-06 -2.20116e-06 0)
(2.38974e-06 -2.12516e-06 0)
(2.58774e-06 -2.04999e-06 0)
(2.7847e-06 -1.97572e-06 0)
(2.98082e-06 -1.90277e-06 0)
(3.17561e-06 -1.8312e-06 0)
(3.36891e-06 -1.76108e-06 0)
(3.56038e-06 -1.69229e-06 0)
(3.75001e-06 -1.62462e-06 0)
(3.93773e-06 -1.55786e-06 0)
(4.12342e-06 -1.49166e-06 0)
(4.30708e-06 -1.42566e-06 0)
(4.48887e-06 -1.35949e-06 0)
(4.66874e-06 -1.29273e-06 0)
(4.84688e-06 -1.22502e-06 0)
(5.02349e-06 -1.15601e-06 0)
(5.19868e-06 -1.08536e-06 0)
(5.37283e-06 -1.01274e-06 0)
(5.54612e-06 -9.37799e-07 0)
(5.71913e-06 -8.60611e-07 0)
(2.14337e-06 -2.28788e-06 0)
(2.33665e-06 -2.21293e-06 0)
(2.53039e-06 -2.13823e-06 0)
(2.72343e-06 -2.064e-06 0)
(2.91595e-06 -1.99066e-06 0)
(3.10753e-06 -1.91835e-06 0)
(3.29798e-06 -1.84718e-06 0)
(3.48698e-06 -1.77709e-06 0)
(3.67449e-06 -1.70796e-06 0)
(3.86045e-06 -1.63959e-06 0)
(4.04468e-06 -1.5717e-06 0)
(4.22719e-06 -1.50401e-06 0)
(4.40812e-06 -1.43618e-06 0)
(4.58739e-06 -1.36789e-06 0)
(4.76519e-06 -1.29881e-06 0)
(4.94167e-06 -1.22865e-06 0)
(5.11691e-06 -1.15711e-06 0)
(5.29125e-06 -1.08392e-06 0)
(5.46484e-06 -1.00897e-06 0)
(5.63824e-06 -9.32183e-07 0)
(2.09612e-06 -2.37161e-06 0)
(2.28512e-06 -2.29763e-06 0)
(2.47476e-06 -2.22347e-06 0)
(2.66399e-06 -2.14939e-06 0)
(2.85301e-06 -2.07585e-06 0)
(3.04143e-06 -2.00302e-06 0)
(3.22907e-06 -1.93105e-06 0)
(3.4156e-06 -1.85994e-06 0)
(3.60098e-06 -1.78964e-06 0)
(3.78513e-06 -1.71997e-06 0)
(3.96785e-06 -1.65072e-06 0)
(4.14917e-06 -1.58164e-06 0)
(4.32918e-06 -1.51246e-06 0)
(4.50781e-06 -1.44291e-06 0)
(4.6852e-06 -1.37271e-06 0)
(4.86147e-06 -1.30161e-06 0)
(5.03666e-06 -1.22935e-06 0)
(5.21112e-06 -1.15579e-06 0)
(5.38493e-06 -1.0809e-06 0)
(5.55861e-06 -1.00456e-06 0)
(2.04947e-06 -2.45259e-06 0)
(2.23439e-06 -2.37956e-06 0)
(2.42009e-06 -2.30594e-06 0)
(2.60569e-06 -2.23209e-06 0)
(2.79135e-06 -2.15848e-06 0)
(2.97672e-06 -2.08532e-06 0)
(3.16163e-06 -2.01281e-06 0)
(3.34576e-06 -1.94094e-06 0)
(3.52904e-06 -1.86975e-06 0)
(3.71139e-06 -1.79906e-06 0)
(3.89262e-06 -1.72872e-06 0)
(4.07275e-06 -1.65852e-06 0)
(4.25185e-06 -1.58826e-06 0)
(4.4298e-06 -1.51769e-06 0)
(4.60673e-06 -1.44658e-06 0)
(4.78273e-06 -1.37471e-06 0)
(4.95783e-06 -1.30191e-06 0)
(5.13234e-06 -1.22815e-06 0)
(5.30632e-06 -1.15331e-06 0)
(5.48019e-06 -1.07745e-06 0)
(2.00267e-06 -2.53111e-06 0)
(2.18371e-06 -2.45895e-06 0)
(2.36569e-06 -2.38587e-06 0)
(2.54784e-06 -2.31232e-06 0)
(2.73031e-06 -2.23877e-06 0)
(2.9128e-06 -2.16546e-06 0)
(3.09511e-06 -2.0926e-06 0)
(3.27694e-06 -2.02021e-06 0)
(3.45822e-06 -1.94832e-06 0)
(3.63885e-06 -1.87686e-06 0)
(3.81867e-06 -1.80569e-06 0)
(3.99765e-06 -1.73466e-06 0)
(4.17586e-06 -1.66357e-06 0)
(4.35314e-06 -1.59221e-06 0)
(4.52957e-06 -1.52039e-06 0)
(4.70529e-06 -1.44794e-06 0)
(4.88028e-06 -1.37478e-06 0)
(5.05482e-06 -1.30089e-06 0)
(5.22888e-06 -1.22612e-06 0)
(5.40285e-06 -1.15069e-06 0)
(1.955e-06 -2.60737e-06 0)
(2.13237e-06 -2.53605e-06 0)
(2.3108e-06 -2.46345e-06 0)
(2.48976e-06 -2.39026e-06 0)
(2.66926e-06 -2.3169e-06 0)
(2.84909e-06 -2.24359e-06 0)
(3.02899e-06 -2.17054e-06 0)
(3.20867e-06 -2.09784e-06 0)
(3.38809e-06 -2.0255e-06 0)
(3.56716e-06 -1.95349e-06 0)
(3.74568e-06 -1.88173e-06 0)
(3.92361e-06 -1.81008e-06 0)
(4.10095e-06 -1.73836e-06 0)
(4.27756e-06 -1.6664e-06 0)
(4.45353e-06 -1.59405e-06 0)
(4.62899e-06 -1.52121e-06 0)
(4.80387e-06 -1.44782e-06 0)
(4.97836e-06 -1.37376e-06 0)
(5.15244e-06 -1.29914e-06 0)
(5.32643e-06 -1.22408e-06 0)
(1.90574e-06 -2.68157e-06 0)
(2.07951e-06 -2.61086e-06 0)
(2.25459e-06 -2.53892e-06 0)
(2.43073e-06 -2.46624e-06 0)
(2.60755e-06 -2.39314e-06 0)
(2.78497e-06 -2.31994e-06 0)
(2.9627e-06 -2.24685e-06 0)
(3.14048e-06 -2.174e-06 0)
(3.31827e-06 -2.10142e-06 0)
(3.49598e-06 -2.02908e-06 0)
(3.67335e-06 -1.95694e-06 0)
(3.85029e-06 -1.88485e-06 0)
(4.02684e-06 -1.81269e-06 0)
(4.20285e-06 -1.74031e-06 0)
(4.37845e-06 -1.66761e-06 0)
(4.55368e-06 -1.59451e-06 0)
(4.72837e-06 -1.52092e-06 0)
(4.9027e-06 -1.44676e-06 0)
(5.07677e-06 -1.37228e-06 0)
(5.25095e-06 -1.29752e-06 0)
(1.85371e-06 -2.75365e-06 0)
(2.02443e-06 -2.68368e-06 0)
(2.19675e-06 -2.61252e-06 0)
(2.37017e-06 -2.54035e-06 0)
(2.54462e-06 -2.46765e-06 0)
(2.71991e-06 -2.39469e-06 0)
(2.89578e-06 -2.32172e-06 0)
(3.07199e-06 -2.24887e-06 0)
(3.24846e-06 -2.17621e-06 0)
(3.42501e-06 -2.10373e-06 0)
(3.60135e-06 -2.03136e-06 0)
(3.77743e-06 -1.95902e-06 0)
(3.95335e-06 -1.8866e-06 0)
(4.12896e-06 -1.81397e-06 0)
(4.30418e-06 -1.74105e-06 0)
(4.47899e-06 -1.66776e-06 0)
(4.65346e-06 -1.594e-06 0)
(4.82787e-06 -1.51987e-06 0)
(5.0019e-06 -1.44545e-06 0)
(5.17583e-06 -1.37091e-06 0)
(1.79822e-06 -2.82441e-06 0)
(1.96616e-06 -2.75529e-06 0)
(2.13593e-06 -2.68471e-06 0)
(2.30711e-06 -2.6131e-06 0)
(2.4796e-06 -2.54085e-06 0)
(2.65323e-06 -2.46825e-06 0)
(2.82775e-06 -2.39553e-06 0)
(3.00282e-06 -2.32282e-06 0)
(3.17823e-06 -2.25019e-06 0)
(3.35381e-06 -2.17767e-06 0)
(3.52941e-06 -2.10523e-06 0)
(3.705e-06 -2.03277e-06 0)
(3.88045e-06 -1.96019e-06 0)
(4.05547e-06 -1.88742e-06 0)
(4.2303e-06 -1.81436e-06 0)
(4.40498e-06 -1.74093e-06 0)
(4.57927e-06 -1.66708e-06 0)
(4.75347e-06 -1.59294e-06 0)
(4.92747e-06 -1.51856e-06 0)
(5.10135e-06 -1.44416e-06 0)
(1.73852e-06 -2.89322e-06 0)
(1.90399e-06 -2.82507e-06 0)
(2.07162e-06 -2.75537e-06 0)
(2.24103e-06 -2.68447e-06 0)
(2.41215e-06 -2.61283e-06 0)
(2.58474e-06 -2.54074e-06 0)
(2.75833e-06 -2.46838e-06 0)
(2.93253e-06 -2.39593e-06 0)
(3.10727e-06 -2.32348e-06 0)
(3.28245e-06 -2.25106e-06 0)
(3.45765e-06 -2.17863e-06 0)
(3.6327e-06 -2.10614e-06 0)
(3.80773e-06 -2.0335e-06 0)
(3.9825e-06 -1.96065e-06 0)
(4.15697e-06 -1.88751e-06 0)
(4.33134e-06 -1.81399e-06 0)
(4.50547e-06 -1.74017e-06 0)
(4.67948e-06 -1.66595e-06 0)
(4.85343e-06 -1.59157e-06 0)
(5.0271e-06 -1.51717e-06 0)
(1.25785e-07 -2.43993e-06 0)
(3.78927e-07 -2.40461e-06 0)
(6.36787e-07 -2.33504e-06 0)
(9.01954e-07 -2.23443e-06 0)
(1.17659e-06 -2.10633e-06 0)
(1.46208e-06 -1.95574e-06 0)
(1.75892e-06 -1.78806e-06 0)
(2.06662e-06 -1.609e-06 0)
(2.38423e-06 -1.42431e-06 0)
(2.70931e-06 -1.23855e-06 0)
(1.22671e-07 -2.48151e-06 0)
(3.69312e-07 -2.44933e-06 0)
(6.19833e-07 -2.38579e-06 0)
(8.76357e-07 -2.29375e-06 0)
(1.14068e-06 -2.17616e-06 0)
(1.41395e-06 -2.03727e-06 0)
(1.69655e-06 -1.8817e-06 0)
(1.988e-06 -1.71437e-06 0)
(2.28675e-06 -1.54062e-06 0)
(2.59106e-06 -1.3643e-06 0)
(1.19862e-07 -2.52441e-06 0)
(3.60625e-07 -2.49507e-06 0)
(6.04457e-07 -2.437e-06 0)
(8.53072e-07 -2.35279e-06 0)
(1.10791e-06 -2.24495e-06 0)
(1.36991e-06 -2.11709e-06 0)
(1.63941e-06 -1.97323e-06 0)
(1.91633e-06 -1.81746e-06 0)
(2.19939e-06 -1.65453e-06 0)
(2.48767e-06 -1.48681e-06 0)
(1.17291e-07 -2.56857e-06 0)
(3.52753e-07 -2.54164e-06 0)
(5.90683e-07 -2.48822e-06 0)
(8.32483e-07 -2.41064e-06 0)
(1.07933e-06 -2.31112e-06 0)
(1.33192e-06 -2.19274e-06 0)
(1.59051e-06 -2.05915e-06 0)
(1.85497e-06 -1.91389e-06 0)
(2.12423e-06 -1.76147e-06 0)
(2.39749e-06 -1.6036e-06 0)
(1.14895e-07 -2.61391e-06 0)
(3.45371e-07 -2.58912e-06 0)
(5.7786e-07 -2.53983e-06 0)
(8.13456e-07 -2.46818e-06 0)
(1.05312e-06 -2.37617e-06 0)
(1.29741e-06 -2.26645e-06 0)
(1.54653e-06 -2.14231e-06 0)
(1.80038e-06 -2.0068e-06 0)
(2.05814e-06 -1.86399e-06 0)
(2.31859e-06 -1.7154e-06 0)
(1.12657e-07 -2.66032e-06 0)
(3.3846e-07 -2.63736e-06 0)
(5.65936e-07 -2.59169e-06 0)
(7.95921e-07 -2.52519e-06 0)
(1.02921e-06 -2.43974e-06 0)
(1.26624e-06 -2.33768e-06 0)
(1.50712e-06 -2.22199e-06 0)
(1.75168e-06 -2.09544e-06 0)
(1.99944e-06 -1.96163e-06 0)
(2.24876e-06 -1.82214e-06 0)
(1.10473e-07 -2.70772e-06 0)
(3.31828e-07 -2.68637e-06 0)
(5.54551e-07 -2.64395e-06 0)
(7.79313e-07 -2.58204e-06 0)
(1.00679e-06 -2.50246e-06 0)
(1.23733e-06 -2.40729e-06 0)
(1.47099e-06 -2.29924e-06 0)
(1.70748e-06 -2.18082e-06 0)
(1.94661e-06 -2.05519e-06 0)
(2.18642e-06 -1.92412e-06 0)
(1.08344e-07 -2.756e-06 0)
(3.25412e-07 -2.73605e-06 0)
(5.43588e-07 -2.69651e-06 0)
(7.63449e-07 -2.63864e-06 0)
(9.85603e-07 -2.56428e-06 0)
(1.21024e-06 -2.47529e-06 0)
(1.43745e-06 -2.37411e-06 0)
(1.66683e-06 -2.26306e-06 0)
(1.8984e-06 -2.14493e-06 0)
(2.13006e-06 -2.02165e-06 0)
(1.06283e-07 -2.80507e-06 0)
(3.19116e-07 -2.78635e-06 0)
(5.32866e-07 -2.74938e-06 0)
(7.48058e-07 -2.69516e-06 0)
(9.65205e-07 -2.62547e-06 0)
(1.18445e-06 -2.54203e-06 0)
(1.40584e-06 -2.44704e-06 0)
(1.6289e-06 -2.34263e-06 0)
(1.85381e-06 -2.23132e-06 0)
(2.07842e-06 -2.11516e-06 0)
(1.04239e-07 -2.85482e-06 0)
(3.12851e-07 -2.83716e-06 0)
(5.22263e-07 -2.80248e-06 0)
(7.32964e-07 -2.75155e-06 0)
(9.45347e-07 -2.68606e-06 0)
(1.15955e-06 -2.60759e-06 0)
(1.37561e-06 -2.51818e-06 0)
(1.59299e-06 -2.4198e-06 0)
(1.81193e-06 -2.31472e-06 0)
(2.03039e-06 -2.20503e-06 0)
(1.02148e-07 -2.90509e-06 0)
(3.06538e-07 -2.88839e-06 0)
(5.11663e-07 -2.85577e-06 0)
(7.17965e-07 -2.80783e-06 0)
(9.25756e-07 -2.74613e-06 0)
(1.13518e-06 -2.67215e-06 0)
(1.34627e-06 -2.58777e-06 0)
(1.55845e-06 -2.49488e-06 0)
(1.77199e-06 -2.39546e-06 0)
(1.98501e-06 -2.29161e-06 0)
(1.00004e-07 -2.95573e-06 0)
(3.00152e-07 -2.93992e-06 0)
(5.00986e-07 -2.90916e-06 0)
(7.02892e-07 -2.86393e-06 0)
(9.06185e-07 -2.80567e-06 0)
(1.11099e-06 -2.73576e-06 0)
(1.31736e-06 -2.65596e-06 0)
(1.52471e-06 -2.56805e-06 0)
(1.73329e-06 -2.47375e-06 0)
(1.94143e-06 -2.37518e-06 0)
(9.78227e-08 -3.00662e-06 0)
(2.93647e-07 -2.99165e-06 0)
(4.90111e-07 -2.96258e-06 0)
(6.87566e-07 -2.91983e-06 0)
(8.86382e-07 -2.8647e-06 0)
(1.08666e-06 -2.7985e-06 0)
(1.28847e-06 -2.72286e-06 0)
(1.49123e-06 -2.63945e-06 0)
(1.69519e-06 -2.54981e-06 0)
(1.89889e-06 -2.45604e-06 0)
(9.55894e-08 -3.0576e-06 0)
(2.86931e-07 -3.04342e-06 0)
(4.78884e-07 -3.0159e-06 0)
(6.71798e-07 -2.97541e-06 0)
(8.66096e-07 -2.92314e-06 0)
(1.06187e-06 -2.86034e-06 0)
(1.25917e-06 -2.78852e-06 0)
(1.45751e-06 -2.7092e-06 0)
(1.65709e-06 -2.62385e-06 0)
(1.85664e-06 -2.53443e-06 0)
(9.32516e-08 -3.10857e-06 0)
(2.79883e-07 -3.09513e-06 0)
(4.67135e-07 -3.06902e-06 0)
(6.55375e-07 -3.03062e-06 0)
(8.45042e-07 -2.98101e-06 0)
(1.03624e-06 -2.92136e-06 0)
(1.22904e-06 -2.853e-06 0)
(1.42304e-06 -2.77743e-06 0)
(1.61838e-06 -2.69604e-06 0)
(1.814e-06 -2.61057e-06 0)
(9.07598e-08 -3.15926e-06 0)
(2.72402e-07 -3.14654e-06 0)
(4.54712e-07 -3.12173e-06 0)
(6.38071e-07 -3.08529e-06 0)
(8.22923e-07 -3.03812e-06 0)
(1.00941e-06 -2.98136e-06 0)
(1.19764e-06 -2.91623e-06 0)
(1.3873e-06 -2.84416e-06 0)
(1.57847e-06 -2.76641e-06 0)
(1.77028e-06 -2.68457e-06 0)
(8.80814e-08 -3.20961e-06 0)
(2.64398e-07 -3.19759e-06 0)
(4.41446e-07 -3.174e-06 0)
(6.19631e-07 -3.13936e-06 0)
(7.99408e-07 -3.09451e-06 0)
(9.80981e-07 -3.04047e-06 0)
(1.1645e-06 -2.97837e-06 0)
(1.34971e-06 -2.90959e-06 0)
(1.53669e-06 -2.83517e-06 0)
(1.72471e-06 -2.75673e-06 0)
(8.51944e-08 -3.25911e-06 0)
(2.55781e-07 -3.24774e-06 0)
(4.27165e-07 -3.22532e-06 0)
(5.998e-07 -3.19241e-06 0)
(7.74168e-07 -3.14973e-06 0)
(9.50539e-07 -3.09826e-06 0)
(1.1291e-06 -3.03907e-06 0)
(1.30967e-06 -2.97339e-06 0)
(1.49229e-06 -2.90217e-06 0)
(1.67647e-06 -2.82691e-06 0)
(8.20533e-08 -3.308e-06 0)
(2.46391e-07 -3.29725e-06 0)
(4.11596e-07 -3.27598e-06 0)
(5.78187e-07 -3.24471e-06 0)
(7.46691e-07 -3.20415e-06 0)
(9.17457e-07 -3.15518e-06 0)
(1.0907e-06 -3.0988e-06 0)
(1.26632e-06 -3.03606e-06 0)
(1.44437e-06 -2.96794e-06 0)
(1.62456e-06 -2.8957e-06 0)
(7.86329e-08 -3.35488e-06 0)
(2.36154e-07 -3.3447e-06 0)
(3.94602e-07 -3.32457e-06 0)
(5.54605e-07 -3.29495e-06 0)
(7.16753e-07 -3.25648e-06 0)
(8.81432e-07 -3.21001e-06 0)
(1.04889e-06 -3.15641e-06 0)
(1.21913e-06 -3.09663e-06 0)
(1.39232e-06 -3.03163e-06 0)
(1.56834e-06 -2.96246e-06 0)
)


// ************************************************************************* //
