/*--------------------------------*- C++ -*----------------------------------*\
| =========                 |                                                 |
| \\      /  F ield         | foam-extend: Open Source CFD                    |
|  \\    /   O peration     | Version:     4.1                                |
|   \\  /    A nd           | Web:         http://www.foam-extend.org         |
|    \\/     M anipulation  |                                                 |
\*---------------------------------------------------------------------------*/
FoamFile
{
    version     2.0;
    format      ascii;
    class       vectorField;
    location    "6";
    object      solidsCellD_iteration1;
}
// * * * * * * * * * * * * * * * * * * * * * * * * * * * * * * * * * * * * * //


1000
(
(2.911e-06 -1.19166e-06 0)
(2.75449e-06 -1.1096e-06 0)
(2.65555e-06 -1.05761e-06 0)
(2.60017e-06 -1.03343e-06 0)
(2.57481e-06 -1.02511e-06 0)
(2.57141e-06 -1.02912e-06 0)
(2.58417e-06 -1.04115e-06 0)
(2.60909e-06 -1.05924e-06 0)
(2.64263e-06 -1.08165e-06 0)
(2.68243e-06 -1.10765e-06 0)
(2.63308e-06 -1.30165e-06 0)
(2.46615e-06 -1.24459e-06 0)
(2.3605e-06 -1.20849e-06 0)
(2.30004e-06 -1.19516e-06 0)
(2.27056e-06 -1.19403e-06 0)
(2.26325e-06 -1.20319e-06 0)
(2.27206e-06 -1.21898e-06 0)
(2.29268e-06 -1.23983e-06 0)
(2.32163e-06 -1.2645e-06 0)
(2.35641e-06 -1.29125e-06 0)
(2.34401e-06 -1.40595e-06 0)
(2.17329e-06 -1.37682e-06 0)
(2.06515e-06 -1.35841e-06 0)
(2.00226e-06 -1.35702e-06 0)
(1.97031e-06 -1.36373e-06 0)
(1.96013e-06 -1.37829e-06 0)
(1.96568e-06 -1.39781e-06 0)
(1.98264e-06 -1.42126e-06 0)
(2.00763e-06 -1.44783e-06 0)
(2.03835e-06 -1.47565e-06 0)
(2.04595e-06 -1.50265e-06 0)
(1.87861e-06 -1.50286e-06 0)
(1.77253e-06 -1.50299e-06 0)
(1.71009e-06 -1.514e-06 0)
(1.67746e-06 -1.52879e-06 0)
(1.6656e-06 -1.54886e-06 0)
(1.66867e-06 -1.57209e-06 0)
(1.68247e-06 -1.59809e-06 0)
(1.70393e-06 -1.62652e-06 0)
(1.73068e-06 -1.65563e-06 0)
(1.74088e-06 -1.58988e-06 0)
(1.58415e-06 -1.61914e-06 0)
(1.4847e-06 -1.63768e-06 0)
(1.42565e-06 -1.66093e-06 0)
(1.39421e-06 -1.68361e-06 0)
(1.38182e-06 -1.70903e-06 0)
(1.38311e-06 -1.73584e-06 0)
(1.39414e-06 -1.76434e-06 0)
(1.41224e-06 -1.79454e-06 0)
(1.43504e-06 -1.82508e-06 0)
(1.43046e-06 -1.66582e-06 0)
(1.29123e-06 -1.72226e-06 0)
(1.20286e-06 -1.75799e-06 0)
(1.15006e-06 -1.79266e-06 0)
(1.12157e-06 -1.82273e-06 0)
(1.10972e-06 -1.85313e-06 0)
(1.10985e-06 -1.88324e-06 0)
(1.11844e-06 -1.91407e-06 0)
(1.13325e-06 -1.94591e-06 0)
(1.15202e-06 -1.97789e-06 0)
(1.11614e-06 -1.72877e-06 0)
(1.00064e-06 -1.80902e-06 0)
(9.27333e-07 -1.85983e-06 0)
(8.8333e-07 -1.90448e-06 0)
(8.59363e-07 -1.941e-06 0)
(8.49034e-07 -1.97577e-06 0)
(8.48543e-07 -2.00875e-06 0)
(8.54951e-07 -2.04164e-06 0)
(8.66482e-07 -2.07493e-06 0)
(8.81146e-07 -2.10825e-06 0)
(7.99088e-07 -1.7773e-06 0)
(7.12563e-07 -1.87669e-06 0)
(6.57656e-07 -1.93962e-06 0)
(6.24602e-07 -1.99227e-06 0)
(6.06463e-07 -2.03396e-06 0)
(5.98464e-07 -2.07222e-06 0)
(5.97785e-07 -2.10753e-06 0)
(6.02212e-07 -2.14208e-06 0)
(6.10456e-07 -2.17652e-06 0)
(6.20958e-07 -2.21095e-06 0)
(4.80246e-07 -1.81029e-06 0)
(4.26668e-07 -1.92304e-06 0)
(3.92656e-07 -1.99447e-06 0)
(3.72123e-07 -2.05274e-06 0)
(3.60797e-07 -2.09804e-06 0)
(3.55736e-07 -2.13873e-06 0)
(3.55199e-07 -2.17566e-06 0)
(3.57791e-07 -2.21142e-06 0)
(3.6273e-07 -2.24669e-06 0)
(3.69034e-07 -2.28195e-06 0)
(1.60398e-07 -1.82689e-06 0)
(1.42221e-07 -1.94653e-06 0)
(1.30671e-07 -2.02235e-06 0)
(1.23693e-07 -2.08353e-06 0)
(1.19832e-07 -2.13069e-06 0)
(1.18077e-07 -2.17264e-06 0)
(1.17851e-07 -2.2104e-06 0)
(1.18693e-07 -2.24675e-06 0)
(1.20334e-07 -2.28243e-06 0)
(1.22429e-07 -2.31811e-06 0)
(4.53012e-06 -5.43935e-08 0)
(4.57107e-06 -3.92862e-08 0)
(4.5974e-06 -2.97039e-08 0)
(4.62646e-06 -2.40659e-08 0)
(4.6583e-06 -2.09239e-08 0)
(4.69699e-06 -1.94606e-08 0)
(4.74229e-06 -1.9122e-08 0)
(4.79461e-06 -1.95233e-08 0)
(4.85375e-06 -2.04513e-08 0)
(4.91894e-06 -2.15604e-08 0)
(4.49687e-06 -1.63158e-07 0)
(4.53125e-06 -1.18732e-07 0)
(4.55345e-06 -9.06113e-08 0)
(4.57978e-06 -7.41183e-08 0)
(4.60984e-06 -6.49719e-08 0)
(4.64726e-06 -6.07535e-08 0)
(4.69163e-06 -5.98407e-08 0)
(4.7432e-06 -6.11064e-08 0)
(4.8017e-06 -6.391e-08 0)
(4.86618e-06 -6.72543e-08 0)
(4.43043e-06 -2.72868e-07 0)
(4.45234e-06 -2.01546e-07 0)
(4.46664e-06 -1.56439e-07 0)
(4.48774e-06 -1.30053e-07 0)
(4.51436e-06 -1.15493e-07 0)
(4.54936e-06 -1.08886e-07 0)
(4.59199e-06 -1.07595e-07 0)
(4.64215e-06 -1.09818e-07 0)
(4.6995e-06 -1.14503e-07 0)
(4.76272e-06 -1.20099e-07 0)
(4.33195e-06 -3.83958e-07 0)
(4.33614e-06 -2.8963e-07 0)
(4.33918e-06 -2.29979e-07 0)
(4.35283e-06 -1.95243e-07 0)
(4.37454e-06 -1.76197e-07 0)
(4.40604e-06 -1.67756e-07 0)
(4.44615e-06 -1.66387e-07 0)
(4.49429e-06 -1.69722e-07 0)
(4.54999e-06 -1.76311e-07 0)
(4.61141e-06 -1.84191e-07 0)
(4.20292e-06 -4.96741e-07 0)
(4.18518e-06 -3.84561e-07 0)
(4.1743e-06 -3.13616e-07 0)
(4.1787e-06 -2.72579e-07 0)
(4.1943e-06 -2.5029e-07 0)
(4.22152e-06 -2.40756e-07 0)
(4.25851e-06 -2.39711e-07 0)
(4.30415e-06 -2.44361e-07 0)
(4.3578e-06 -2.5289e-07 0)
(4.41707e-06 -2.6309e-07 0)
(4.04527e-06 -6.11258e-07 0)
(4.00263e-06 -4.87345e-07 0)
(3.976e-06 -4.08957e-07 0)
(3.96992e-06 -3.64049e-07 0)
(3.97858e-06 -3.39993e-07 0)
(4.00088e-06 -3.30255e-07 0)
(4.03428e-06 -3.30011e-07 0)
(4.07705e-06 -3.36214e-07 0)
(4.12833e-06 -3.46719e-07 0)
(4.18526e-06 -3.59269e-07 0)
(3.86119e-06 -7.27292e-07 0)
(3.79224e-06 -5.98397e-07 0)
(3.74898e-06 -5.1682e-07 0)
(3.73179e-06 -4.70732e-07 0)
(3.73305e-06 -4.46556e-07 0)
(3.75005e-06 -4.37601e-07 0)
(3.77957e-06 -4.38705e-07 0)
(3.81924e-06 -4.46738e-07 0)
(3.86796e-06 -4.59315e-07 0)
(3.92252e-06 -4.7425e-07 0)
(3.65312e-06 -8.4431e-07 0)
(3.55806e-06 -7.17443e-07 0)
(3.49824e-06 -6.37104e-07 0)
(3.46995e-06 -5.92623e-07 0)
(3.46372e-06 -5.70041e-07 0)
(3.47531e-06 -5.62901e-07 0)
(3.50077e-06 -5.65912e-07 0)
(3.5372e-06 -5.76067e-07 0)
(3.58319e-06 -5.908e-07 0)
(3.6355e-06 -6.08217e-07 0)
(3.42364e-06 -9.61488e-07 0)
(3.30429e-06 -8.43521e-07 0)
(3.22904e-06 -7.68772e-07 0)
(3.19029e-06 -7.2864e-07 0)
(3.17692e-06 -7.09339e-07 0)
(3.18321e-06 -7.05035e-07 0)
(3.20454e-06 -7.10567e-07 0)
(3.23763e-06 -7.23129e-07 0)
(3.28062e-06 -7.40285e-07 0)
(3.33086e-06 -7.60233e-07 0)
(3.17542e-06 -1.07771e-06 0)
(3.03512e-06 -9.74988e-07 0)
(2.94652e-06 -9.09871e-07 0)
(2.89853e-06 -8.76638e-07 0)
(2.87864e-06 -8.62169e-07 0)
(2.87983e-06 -8.61653e-07 0)
(2.89691e-06 -8.70234e-07 0)
(2.92628e-06 -8.85563e-07 0)
(2.96575e-06 -9.05289e-07 0)
(3.01366e-06 -9.28655e-07 0)
(4.99021e-06 -2.26847e-08 0)
(5.06783e-06 -2.29233e-08 0)
(5.15038e-06 -2.32289e-08 0)
(5.23758e-06 -2.34596e-08 0)
(5.32888e-06 -2.3586e-08 0)
(5.42396e-06 -2.35913e-08 0)
(5.52243e-06 -2.34501e-08 0)
(5.62391e-06 -2.31714e-08 0)
(5.72803e-06 -2.27468e-08 0)
(5.83446e-06 -2.21605e-08 0)
(5.94291e-06 -2.13849e-08 0)
(6.05304e-06 -2.04034e-08 0)
(6.16454e-06 -1.92038e-08 0)
(6.27707e-06 -1.77703e-08 0)
(6.39032e-06 -1.60763e-08 0)
(6.50384e-06 -1.40898e-08 0)
(6.61742e-06 -1.17704e-08 0)
(6.73029e-06 -9.07609e-09 0)
(6.84261e-06 -5.9412e-09 0)
(6.95258e-06 -2.34518e-09 0)
(4.93973e-06 -7.03972e-08 0)
(5.02146e-06 -7.08056e-08 0)
(5.10773e-06 -7.14383e-08 0)
(5.19819e-06 -7.18885e-08 0)
(5.29245e-06 -7.2055e-08 0)
(5.39017e-06 -7.19092e-08 0)
(5.49102e-06 -7.13642e-08 0)
(5.59467e-06 -7.04203e-08 0)
(5.70077e-06 -6.90323e-08 0)
(5.80902e-06 -6.71654e-08 0)
(5.91913e-06 -6.47585e-08 0)
(6.0308e-06 -6.17646e-08 0)
(6.14375e-06 -5.81346e-08 0)
(6.25766e-06 -5.38105e-08 0)
(6.37221e-06 -4.87105e-08 0)
(6.48696e-06 -4.27404e-08 0)
(6.6017e-06 -3.57781e-08 0)
(6.71568e-06 -2.76988e-08 0)
(6.82911e-06 -1.83055e-08 0)
(6.94022e-06 -7.5326e-09 0)
(4.84077e-06 -1.24546e-07 0)
(4.93065e-06 -1.24206e-07 0)
(5.02424e-06 -1.24334e-07 0)
(5.12107e-06 -1.24366e-07 0)
(5.22102e-06 -1.24036e-07 0)
(5.32381e-06 -1.23314e-07 0)
(5.42927e-06 -1.22017e-07 0)
(5.53707e-06 -1.20124e-07 0)
(5.64698e-06 -1.17535e-07 0)
(5.75872e-06 -1.14191e-07 0)
(5.87208e-06 -1.09996e-07 0)
(5.98679e-06 -1.04873e-07 0)
(6.1026e-06 -9.87275e-08 0)
(6.21917e-06 -9.1451e-08 0)
(6.33626e-06 -8.29016e-08 0)
(6.45347e-06 -7.2919e-08 0)
(6.57057e-06 -6.12979e-08 0)
(6.68685e-06 -4.78339e-08 0)
(6.80253e-06 -3.21988e-08 0)
(6.91586e-06 -1.42773e-08 0)
(4.69588e-06 -1.88828e-07 0)
(4.79744e-06 -1.86295e-07 0)
(4.90166e-06 -1.84592e-07 0)
(5.00778e-06 -1.83197e-07 0)
(5.11615e-06 -1.81523e-07 0)
(5.22643e-06 -1.79547e-07 0)
(5.33866e-06 -1.76939e-07 0)
(5.45258e-06 -1.73647e-07 0)
(5.56809e-06 -1.69499e-07 0)
(5.68498e-06 -1.64395e-07 0)
(5.80313e-06 -1.5819e-07 0)
(5.9223e-06 -1.50762e-07 0)
(6.04227e-06 -1.41966e-07 0)
(6.16276e-06 -1.31636e-07 0)
(6.28357e-06 -1.1957e-07 0)
(6.40433e-06 -1.05538e-07 0)
(6.52486e-06 -8.92498e-08 0)
(6.64451e-06 -7.04196e-08 0)
(6.76348e-06 -4.85811e-08 0)
(6.88005e-06 -2.35569e-08 0)
(4.50954e-06 -2.66513e-07 0)
(4.62579e-06 -2.59946e-07 0)
(4.74351e-06 -2.54705e-07 0)
(4.86146e-06 -2.50565e-07 0)
(4.98055e-06 -2.46442e-07 0)
(5.10041e-06 -2.42322e-07 0)
(5.22138e-06 -2.37682e-07 0)
(5.34322e-06 -2.32401e-07 0)
(5.46598e-06 -2.2622e-07 0)
(5.58955e-06 -2.18972e-07 0)
(5.71385e-06 -2.10447e-07 0)
(5.83874e-06 -2.00466e-07 0)
(5.96406e-06 -1.88824e-07 0)
(6.08962e-06 -1.75295e-07 0)
(6.21526e-06 -1.59612e-07 0)
(6.34062e-06 -1.41476e-07 0)
(6.46561e-06 -1.20511e-07 0)
(6.58955e-06 -9.63401e-08 0)
(6.71277e-06 -6.83539e-08 0)
(6.83356e-06 -3.62935e-08 0)
(4.28685e-06 -3.59908e-07 0)
(4.42014e-06 -3.47197e-07 0)
(4.55375e-06 -3.36443e-07 0)
(4.68568e-06 -3.27984e-07 0)
(4.81758e-06 -3.20101e-07 0)
(4.94891e-06 -3.12753e-07 0)
(5.08034e-06 -3.05201e-07 0)
(5.21168e-06 -2.97212e-07 0)
(5.34315e-06 -2.88415e-07 0)
(5.47471e-06 -2.78553e-07 0)
(5.60643e-06 -2.67341e-07 0)
(5.7382e-06 -2.54526e-07 0)
(5.86996e-06 -2.39829e-07 0)
(6.00158e-06 -2.2296e-07 0)
(6.13299e-06 -2.03576e-07 0)
(6.26383e-06 -1.81305e-07 0)
(6.39411e-06 -1.55678e-07 0)
(6.5232e-06 -1.26218e-07 0)
(6.65149e-06 -9.21643e-08 0)
(6.77736e-06 -5.31581e-08 0)
(4.03391e-06 -4.70559e-07 0)
(4.18583e-06 -4.49543e-07 0)
(4.33711e-06 -4.3129e-07 0)
(4.48474e-06 -4.16815e-07 0)
(4.63107e-06 -4.03784e-07 0)
(4.77545e-06 -3.92018e-07 0)
(4.91873e-06 -3.80583e-07 0)
(5.06088e-06 -3.69076e-07 0)
(5.20225e-06 -3.57003e-07 0)
(5.34294e-06 -3.43979e-07 0)
(5.4831e-06 -3.29639e-07 0)
(5.62274e-06 -3.1364e-07 0)
(5.76185e-06 -2.95629e-07 0)
(5.9004e-06 -2.75234e-07 0)
(6.03834e-06 -2.52033e-07 0)
(6.17544e-06 -2.25569e-07 0)
(6.31175e-06 -1.95275e-07 0)
(6.44672e-06 -1.60567e-07 0)
(6.58079e-06 -1.20525e-07 0)
(6.71247e-06 -7.46961e-08 0)
(3.75686e-06 -5.98755e-07 0)
(3.92834e-06 -5.67122e-07 0)
(4.09844e-06 -5.39406e-07 0)
(4.26308e-06 -5.17018e-07 0)
(4.42505e-06 -4.97332e-07 0)
(4.58372e-06 -4.79816e-07 0)
(4.74003e-06 -4.63425e-07 0)
(4.8941e-06 -4.47521e-07 0)
(5.0464e-06 -4.31478e-07 0)
(5.19717e-06 -4.14759e-07 0)
(5.34664e-06 -3.96887e-07 0)
(5.4949e-06 -3.77417e-07 0)
(5.64206e-06 -3.55898e-07 0)
(5.78819e-06 -3.31867e-07 0)
(5.93329e-06 -3.04807e-07 0)
(6.07724e-06 -2.7417e-07 0)
(6.22016e-06 -2.39275e-07 0)
(6.36158e-06 -1.99426e-07 0)
(6.502e-06 -1.53546e-07 0)
(6.64011e-06 -1.01097e-07 0)
(3.46229e-06 -7.44458e-07 0)
(3.65401e-06 -7.0019e-07 0)
(3.84338e-06 -6.61668e-07 0)
(4.02589e-06 -6.29677e-07 0)
(4.20413e-06 -6.02002e-07 0)
(4.3778e-06 -5.77505e-07 0)
(4.5478e-06 -5.55102e-07 0)
(4.71448e-06 -5.33887e-07 0)
(4.87837e-06 -5.13089e-07 0)
(5.03985e-06 -4.92018e-07 0)
(5.19923e-06 -4.70076e-07 0)
(5.3567e-06 -4.46702e-07 0)
(5.51248e-06 -4.21345e-07 0)
(5.6667e-06 -3.93439e-07 0)
(5.81944e-06 -3.62366e-07 0)
(5.9707e-06 -3.27473e-07 0)
(6.12065e-06 -2.87967e-07 0)
(6.26896e-06 -2.43039e-07 0)
(6.41618e-06 -1.91478e-07 0)
(6.56122e-06 -1.32677e-07 0)
(3.15549e-06 -9.05549e-07 0)
(3.36836e-06 -8.45734e-07 0)
(3.5767e-06 -7.94846e-07 0)
(3.77767e-06 -7.51466e-07 0)
(3.97263e-06 -7.14273e-07 0)
(4.1619e-06 -6.816e-07 0)
(4.34617e-06 -6.52233e-07 0)
(4.526e-06 -6.25011e-07 0)
(4.70198e-06 -5.98949e-07 0)
(4.87461e-06 -5.7318e-07 0)
(5.04431e-06 -5.46944e-07 0)
(5.21135e-06 -5.19542e-07 0)
(5.37606e-06 -4.90299e-07 0)
(5.53866e-06 -4.58538e-07 0)
(5.6993e-06 -4.23529e-07 0)
(5.8581e-06 -3.84519e-07 0)
(6.01529e-06 -3.40601e-07 0)
(6.17069e-06 -2.90865e-07 0)
(6.32489e-06 -2.33976e-07 0)
(6.47711e-06 -1.69229e-07 0)
(2.92537e-06 -1.05992e-06 0)
(3.15481e-06 -9.86707e-07 0)
(3.37513e-06 -9.26467e-07 0)
(3.58744e-06 -8.74177e-07 0)
(3.7928e-06 -8.2877e-07 0)
(3.99185e-06 -7.88575e-07 0)
(4.18531e-06 -7.52317e-07 0)
(4.37375e-06 -7.188e-07 0)
(4.55775e-06 -6.86977e-07 0)
(4.73783e-06 -6.5591e-07 0)
(4.91441e-06 -6.24757e-07 0)
(5.08782e-06 -5.92741e-07 0)
(5.25842e-06 -5.5911e-07 0)
(5.4265e-06 -5.23112e-07 0)
(5.59223e-06 -4.83952e-07 0)
(5.75586e-06 -4.40817e-07 0)
(5.91764e-06 -3.92751e-07 0)
(6.07753e-06 -3.38816e-07 0)
(6.23614e-06 -2.77649e-07 0)
(6.39296e-06 -2.08504e-07 0)
(2.79467e-06 -1.18429e-06 0)
(3.02543e-06 -1.10795e-06 0)
(3.2481e-06 -1.04247e-06 0)
(3.46365e-06 -9.84664e-07 0)
(3.67255e-06 -9.33532e-07 0)
(3.87529e-06 -8.87655e-07 0)
(4.07242e-06 -8.45826e-07 0)
(4.26443e-06 -8.06925e-07 0)
(4.45184e-06 -7.69945e-07 0)
(4.6351e-06 -7.33964e-07 0)
(4.81461e-06 -6.98136e-07 0)
(4.99067e-06 -6.61671e-07 0)
(5.16369e-06 -6.23808e-07 0)
(5.33394e-06 -5.83777e-07 0)
(5.50163e-06 -5.40776e-07 0)
(5.66708e-06 -4.93995e-07 0)
(5.83052e-06 -4.425e-07 0)
(5.99206e-06 -3.85385e-07 0)
(6.15226e-06 -3.21345e-07 0)
(6.31087e-06 -2.49638e-07 0)
(2.68376e-06 -1.30363e-06 0)
(2.91196e-06 -1.22545e-06 0)
(3.13426e-06 -1.15655e-06 0)
(3.35041e-06 -1.09448e-06 0)
(3.56071e-06 -1.03858e-06 0)
(3.7653e-06 -9.87711e-07 0)
(3.96457e-06 -9.40805e-07 0)
(4.15884e-06 -8.9687e-07 0)
(4.34854e-06 -8.54969e-07 0)
(4.53406e-06 -8.14229e-07 0)
(4.71571e-06 -7.73824e-07 0)
(4.89379e-06 -7.32977e-07 0)
(5.0687e-06 -6.90932e-07 0)
(5.24071e-06 -6.46929e-07 0)
(5.41004e-06 -6.00176e-07 0)
(5.57704e-06 -5.49886e-07 0)
(5.74195e-06 -4.95164e-07 0)
(5.90497e-06 -4.35148e-07 0)
(6.06664e-06 -3.6859e-07 0)
(6.22689e-06 -2.94784e-07 0)
(2.58628e-06 -1.41828e-06 0)
(2.81096e-06 -1.33919e-06 0)
(3.03133e-06 -1.26781e-06 0)
(3.2465e-06 -1.20233e-06 0)
(3.45667e-06 -1.14239e-06 0)
(3.66172e-06 -1.08711e-06 0)
(3.86188e-06 -1.03562e-06 0)
(4.05732e-06 -9.87046e-07 0)
(4.24836e-06 -9.40548e-07 0)
(4.4353e-06 -8.95313e-07 0)
(4.61841e-06 -8.50553e-07 0)
(4.79793e-06 -8.05522e-07 0)
(4.97425e-06 -7.5949e-07 0)
(5.14762e-06 -7.11716e-07 0)
(5.31827e-06 -6.61436e-07 0)
(5.48655e-06 -6.07897e-07 0)
(5.65273e-06 -5.50255e-07 0)
(5.81704e-06 -4.87687e-07 0)
(5.98003e-06 -4.19022e-07 0)
(6.14178e-06 -3.43655e-07 0)
(2.50037e-06 -1.52811e-06 0)
(2.72079e-06 -1.4487e-06 0)
(2.93815e-06 -1.37567e-06 0)
(3.15119e-06 -1.30763e-06 0)
(3.36007e-06 -1.24442e-06 0)
(3.56446e-06 -1.18541e-06 0)
(3.76449e-06 -1.1299e-06 0)
(3.96014e-06 -1.07716e-06 0)
(4.15167e-06 -1.02645e-06 0)
(4.33931e-06 -9.77042e-07 0)
(4.52324e-06 -9.28199e-07 0)
(4.70366e-06 -8.79223e-07 0)
(4.88094e-06 -8.29427e-07 0)
(5.05529e-06 -7.78103e-07 0)
(5.22696e-06 -7.24527e-07 0)
(5.39627e-06 -6.67986e-07 0)
(5.5635e-06 -6.07687e-07 0)
(5.72895e-06 -5.42862e-07 0)
(5.89311e-06 -4.72455e-07 0)
(6.05621e-06 -3.96019e-07 0)
(2.42392e-06 -1.63318e-06 0)
(2.6397e-06 -1.55395e-06 0)
(2.85342e-06 -1.47986e-06 0)
(3.06357e-06 -1.4099e-06 0)
(3.27031e-06 -1.34406e-06 0)
(3.47321e-06 -1.28191e-06 0)
(3.67225e-06 -1.22293e-06 0)
(3.86735e-06 -1.1665e-06 0)
(4.05866e-06 -1.112e-06 0)
(4.24636e-06 -1.05878e-06 0)
(4.43054e-06 -1.00619e-06 0)
(4.61139e-06 -9.53571e-07 0)
(4.78921e-06 -9.00295e-07 0)
(4.9642e-06 -8.45698e-07 0)
(5.13659e-06 -7.89098e-07 0)
(5.3067e-06 -7.29827e-07 0)
(5.47479e-06 -6.67154e-07 0)
(5.6412e-06 -6.00384e-07 0)
(5.80638e-06 -5.28623e-07 0)
(5.97067e-06 -4.51538e-07 0)
(2.35533e-06 -1.73364e-06 0)
(2.56627e-06 -1.65494e-06 0)
(2.77594e-06 -1.58027e-06 0)
(2.98268e-06 -1.50893e-06 0)
(3.18669e-06 -1.44104e-06 0)
(3.38745e-06 -1.37631e-06 0)
(3.58489e-06 -1.31438e-06 0)
(3.77881e-06 -1.25475e-06 0)
(3.96933e-06 -1.1969e-06 0)
(4.15655e-06 -1.14027e-06 0)
(4.34052e-06 -1.08428e-06 0)
(4.52138e-06 -1.02834e-06 0)
(4.69939e-06 -9.71886e-07 0)
(4.87471e-06 -9.14293e-07 0)
(5.04756e-06 -8.54936e-07 0)
(5.21825e-06 -7.93197e-07 0)
(5.38702e-06 -7.2842e-07 0)
(5.55422e-06 -6.60008e-07 0)
(5.72028e-06 -5.87234e-07 0)
(5.88561e-06 -5.09775e-07 0)
(2.29316e-06 -1.8297e-06 0)
(2.49922e-06 -1.75177e-06 0)
(2.7046e-06 -1.67688e-06 0)
(2.90761e-06 -1.60459e-06 0)
(3.10849e-06 -1.53512e-06 0)
(3.30666e-06 -1.46831e-06 0)
(3.502e-06 -1.4039e-06 0)
(3.69429e-06 -1.34151e-06 0)
(3.88356e-06 -1.28073e-06 0)
(4.06988e-06 -1.22109e-06 0)
(4.25325e-06 -1.16208e-06 0)
(4.43376e-06 -1.10317e-06 0)
(4.61166e-06 -1.04385e-06 0)
(4.78704e-06 -9.83557e-07 0)
(4.96013e-06 -9.21725e-07 0)
(5.13119e-06 -8.57795e-07 0)
(5.30047e-06 -7.91202e-07 0)
(5.46831e-06 -7.21447e-07 0)
(5.6351e-06 -6.47931e-07 0)
(5.80132e-06 -5.70306e-07 0)
(2.23614e-06 -1.92162e-06 0)
(2.43737e-06 -1.84461e-06 0)
(2.63835e-06 -1.76977e-06 0)
(2.83747e-06 -1.69688e-06 0)
(3.03495e-06 -1.62622e-06 0)
(3.23022e-06 -1.55773e-06 0)
(3.42314e-06 -1.49126e-06 0)
(3.61343e-06 -1.42654e-06 0)
(3.80112e-06 -1.36323e-06 0)
(3.98621e-06 -1.30097e-06 0)
(4.16867e-06 -1.23932e-06 0)
(4.34856e-06 -1.1778e-06 0)
(4.52609e-06 -1.11595e-06 0)
(4.70131e-06 -1.05327e-06 0)
(4.87443e-06 -9.89255e-07 0)
(5.0457e-06 -9.23424e-07 0)
(5.21533e-06 -8.55301e-07 0)
(5.38368e-06 -7.84468e-07 0)
(5.55108e-06 -7.10396e-07 0)
(5.71804e-06 -6.32846e-07 0)
(2.18314e-06 -2.00972e-06 0)
(2.37966e-06 -1.93371e-06 0)
(2.57624e-06 -1.8591e-06 0)
(2.7714e-06 -1.78585e-06 0)
(2.96534e-06 -1.71432e-06 0)
(3.15753e-06 -1.6445e-06 0)
(3.3478e-06 -1.57635e-06 0)
(3.53586e-06 -1.50969e-06 0)
(3.72171e-06 -1.44425e-06 0)
(3.90533e-06 -1.37976e-06 0)
(4.08665e-06 -1.31583e-06 0)
(4.26571e-06 -1.25205e-06 0)
(4.44265e-06 -1.188e-06 0)
(4.61754e-06 -1.12324e-06 0)
(4.79053e-06 -1.05734e-06 0)
(4.96186e-06 -9.89889e-07 0)
(5.13172e-06 -9.20493e-07 0)
(5.30044e-06 -8.48785e-07 0)
(5.46834e-06 -7.7432e-07 0)
(5.6359e-06 -6.9707e-07 0)
(2.13317e-06 -2.09431e-06 0)
(2.32512e-06 -2.01932e-06 0)
(2.51737e-06 -1.94505e-06 0)
(2.70857e-06 -1.87165e-06 0)
(2.89892e-06 -1.7995e-06 0)
(3.08794e-06 -1.72866e-06 0)
(3.27544e-06 -1.65918e-06 0)
(3.46113e-06 -1.59094e-06 0)
(3.64498e-06 -1.52374e-06 0)
(3.82697e-06 -1.45737e-06 0)
(4.00698e-06 -1.39149e-06 0)
(4.18504e-06 -1.32577e-06 0)
(4.36126e-06 -1.25983e-06 0)
(4.53566e-06 -1.19329e-06 0)
(4.7084e-06 -1.12578e-06 0)
(4.87967e-06 -1.05696e-06 0)
(5.04965e-06 -9.86505e-07 0)
(5.21864e-06 -9.14087e-07 0)
(5.38692e-06 -8.39425e-07 0)
(5.55496e-06 -7.62553e-07 0)
(2.08534e-06 -2.17569e-06 0)
(2.27287e-06 -2.10167e-06 0)
(2.4609e-06 -2.02783e-06 0)
(2.64822e-06 -1.95443e-06 0)
(2.835e-06 -1.88187e-06 0)
(3.02083e-06 -1.81028e-06 0)
(3.20552e-06 -1.73975e-06 0)
(3.38876e-06 -1.67025e-06 0)
(3.57054e-06 -1.60162e-06 0)
(3.7508e-06 -1.53368e-06 0)
(3.9294e-06 -1.46618e-06 0)
(4.10635e-06 -1.39882e-06 0)
(4.28173e-06 -1.33129e-06 0)
(4.45555e-06 -1.26325e-06 0)
(4.62794e-06 -1.19442e-06 0)
(4.79907e-06 -1.12448e-06 0)
(4.96908e-06 -1.05315e-06 0)
(5.13825e-06 -9.80199e-07 0)
(5.30682e-06 -9.05523e-07 0)
(5.47522e-06 -8.29027e-07 0)
(2.03879e-06 -2.2541e-06 0)
(2.22209e-06 -2.18099e-06 0)
(2.40604e-06 -2.10763e-06 0)
(2.58958e-06 -2.03434e-06 0)
(2.77289e-06 -1.96155e-06 0)
(2.95558e-06 -1.88942e-06 0)
(3.13748e-06 -1.81812e-06 0)
(3.31828e-06 -1.74761e-06 0)
(3.49797e-06 -1.67785e-06 0)
(3.67645e-06 -1.60867e-06 0)
(3.85359e-06 -1.53986e-06 0)
(4.02937e-06 -1.47116e-06 0)
(4.20385e-06 -1.40233e-06 0)
(4.37703e-06 -1.33309e-06 0)
(4.54901e-06 -1.26317e-06 0)
(4.71994e-06 -1.19231e-06 0)
(4.88991e-06 -1.1203e-06 0)
(5.05919e-06 -1.047e-06 0)
(5.22796e-06 -9.72373e-07 0)
(5.39664e-06 -8.96322e-07 0)
(1.99275e-06 -2.32978e-06 0)
(2.172e-06 -2.25756e-06 0)
(2.35204e-06 -2.18469e-06 0)
(2.53197e-06 -2.1116e-06 0)
(2.71193e-06 -2.03872e-06 0)
(2.89159e-06 -1.96624e-06 0)
(3.07078e-06 -1.8944e-06 0)
(3.2492e-06 -1.82316e-06 0)
(3.42682e-06 -1.75254e-06 0)
(3.60355e-06 -1.68239e-06 0)
(3.77922e-06 -1.61253e-06 0)
(3.95382e-06 -1.54277e-06 0)
(4.1274e-06 -1.4729e-06 0)
(4.29992e-06 -1.40268e-06 0)
(4.47145e-06 -1.33189e-06 0)
(4.64213e-06 -1.2603e-06 0)
(4.81202e-06 -1.18779e-06 0)
(4.98135e-06 -1.11429e-06 0)
(5.15028e-06 -1.03969e-06 0)
(5.31915e-06 -9.64116e-07 0)
(1.94644e-06 -2.40302e-06 0)
(2.12184e-06 -2.3316e-06 0)
(2.29818e-06 -2.25924e-06 0)
(2.47468e-06 -2.18641e-06 0)
(2.65147e-06 -2.11358e-06 0)
(2.82827e-06 -2.04095e-06 0)
(3.00487e-06 -1.96876e-06 0)
(3.18102e-06 -1.89701e-06 0)
(3.35666e-06 -1.82573e-06 0)
(3.5317e-06 -1.75484e-06 0)
(3.70597e-06 -1.6842e-06 0)
(3.87943e-06 -1.61364e-06 0)
(4.05213e-06 -1.54299e-06 0)
(4.22398e-06 -1.47202e-06 0)
(4.39506e-06 -1.40055e-06 0)
(4.56546e-06 -1.32843e-06 0)
(4.73525e-06 -1.25557e-06 0)
(4.90461e-06 -1.18193e-06 0)
(5.07363e-06 -1.10742e-06 0)
(5.2426e-06 -1.03224e-06 0)
(1.89917e-06 -2.47401e-06 0)
(2.07091e-06 -2.40338e-06 0)
(2.24373e-06 -2.33146e-06 0)
(2.41705e-06 -2.25897e-06 0)
(2.59089e-06 -2.1863e-06 0)
(2.76504e-06 -2.11367e-06 0)
(2.93926e-06 -2.0413e-06 0)
(3.11329e-06 -1.96926e-06 0)
(3.28708e-06 -1.89756e-06 0)
(3.46056e-06 -1.82615e-06 0)
(3.63352e-06 -1.75495e-06 0)
(3.80593e-06 -1.68382e-06 0)
(3.97778e-06 -1.61258e-06 0)
(4.14899e-06 -1.54105e-06 0)
(4.31963e-06 -1.4691e-06 0)
(4.48978e-06 -1.39661e-06 0)
(4.65946e-06 -1.32353e-06 0)
(4.8288e-06 -1.24974e-06 0)
(4.99786e-06 -1.1754e-06 0)
(5.16687e-06 -1.10056e-06 0)
(1.85022e-06 -2.54291e-06 0)
(2.01839e-06 -2.47287e-06 0)
(2.18786e-06 -2.40158e-06 0)
(2.35837e-06 -2.32958e-06 0)
(2.52954e-06 -2.25716e-06 0)
(2.70131e-06 -2.18465e-06 0)
(2.87338e-06 -2.11225e-06 0)
(3.04552e-06 -2.04007e-06 0)
(3.21769e-06 -1.96814e-06 0)
(3.38979e-06 -1.89643e-06 0)
(3.56159e-06 -1.82488e-06 0)
(3.73303e-06 -1.75335e-06 0)
(3.9041e-06 -1.68171e-06 0)
(4.07474e-06 -1.60981e-06 0)
(4.245e-06 -1.53754e-06 0)
(4.41493e-06 -1.46481e-06 0)
(4.58446e-06 -1.39155e-06 0)
(4.75368e-06 -1.3177e-06 0)
(4.92275e-06 -1.24346e-06 0)
(5.0919e-06 -1.16892e-06 0)
(1.79841e-06 -2.60971e-06 0)
(1.96354e-06 -2.54036e-06 0)
(2.13026e-06 -2.46984e-06 0)
(2.29806e-06 -2.39833e-06 0)
(2.46688e-06 -2.32631e-06 0)
(2.63654e-06 -2.25405e-06 0)
(2.80677e-06 -2.18178e-06 0)
(2.97733e-06 -2.10962e-06 0)
(3.14816e-06 -2.03764e-06 0)
(3.31909e-06 -1.96581e-06 0)
(3.48989e-06 -1.89407e-06 0)
(3.66048e-06 -1.82233e-06 0)
(3.83093e-06 -1.75045e-06 0)
(4.00114e-06 -1.67833e-06 0)
(4.17104e-06 -1.60587e-06 0)
(4.34061e-06 -1.53299e-06 0)
(4.50996e-06 -1.45959e-06 0)
(4.67922e-06 -1.38578e-06 0)
(4.84827e-06 -1.3116e-06 0)
(5.01726e-06 -1.23726e-06 0)
(1.74306e-06 -2.67517e-06 0)
(1.90541e-06 -2.60662e-06 0)
(2.0696e-06 -2.53669e-06 0)
(2.23517e-06 -2.46574e-06 0)
(2.40206e-06 -2.39417e-06 0)
(2.57006e-06 -2.32227e-06 0)
(2.73892e-06 -2.25026e-06 0)
(2.90833e-06 -2.17825e-06 0)
(3.07811e-06 -2.10634e-06 0)
(3.24811e-06 -2.03451e-06 0)
(3.41816e-06 -1.96272e-06 0)
(3.58824e-06 -1.89088e-06 0)
(3.7582e-06 -1.8189e-06 0)
(3.92788e-06 -1.74667e-06 0)
(4.0974e-06 -1.6741e-06 0)
(4.26681e-06 -1.60111e-06 0)
(4.436e-06 -1.52766e-06 0)
(4.60509e-06 -1.45382e-06 0)
(4.7741e-06 -1.3797e-06 0)
(4.94308e-06 -1.30549e-06 0)
(1.68343e-06 -2.73862e-06 0)
(1.8433e-06 -2.67103e-06 0)
(2.00536e-06 -2.60197e-06 0)
(2.16919e-06 -2.53177e-06 0)
(2.3347e-06 -2.46083e-06 0)
(2.50165e-06 -2.38944e-06 0)
(2.66959e-06 -2.31782e-06 0)
(2.83816e-06 -2.24612e-06 0)
(3.00729e-06 -2.1744e-06 0)
(3.17685e-06 -2.10269e-06 0)
(3.34649e-06 -2.03095e-06 0)
(3.51606e-06 -1.95911e-06 0)
(3.68561e-06 -1.8871e-06 0)
(3.85501e-06 -1.81483e-06 0)
(4.0242e-06 -1.74221e-06 0)
(4.19331e-06 -1.66917e-06 0)
(4.3623e-06 -1.59576e-06 0)
(4.53123e-06 -1.52185e-06 0)
(4.70015e-06 -1.44774e-06 0)
(4.86898e-06 -1.37348e-06 0)
(1.22187e-07 -2.35462e-06 0)
(3.68099e-07 -2.32022e-06 0)
(6.18676e-07 -2.25257e-06 0)
(8.76521e-07 -2.15462e-06 0)
(1.14377e-06 -2.02994e-06 0)
(1.42178e-06 -1.88335e-06 0)
(1.71105e-06 -1.72011e-06 0)
(2.01115e-06 -1.54584e-06 0)
(2.321e-06 -1.36623e-06 0)
(2.63883e-06 -1.18587e-06 0)
(1.19214e-07 -2.39266e-06 0)
(3.58926e-07 -2.36128e-06 0)
(6.02483e-07 -2.29948e-06 0)
(8.52032e-07 -2.20986e-06 0)
(1.10936e-06 -2.09538e-06 0)
(1.37558e-06 -1.96016e-06 0)
(1.65107e-06 -1.80872e-06 0)
(1.9354e-06 -1.64587e-06 0)
(2.22695e-06 -1.47692e-06 0)
(2.52449e-06 -1.30535e-06 0)
(1.16573e-07 -2.43187e-06 0)
(3.50757e-07 -2.40326e-06 0)
(5.88004e-07 -2.34678e-06 0)
(8.30011e-07 -2.26478e-06 0)
(1.07822e-06 -2.1598e-06 0)
(1.33353e-06 -2.03536e-06 0)
(1.59626e-06 -1.89535e-06 0)
(1.86629e-06 -1.7438e-06 0)
(2.14236e-06 -1.58534e-06 0)
(2.42385e-06 -1.42187e-06 0)
(1.14171e-07 -2.47229e-06 0)
(3.43367e-07 -2.44604e-06 0)
(5.75039e-07 -2.3941e-06 0)
(8.10536e-07 -2.31861e-06 0)
(1.05101e-06 -2.22177e-06 0)
(1.29715e-06 -2.10661e-06 0)
(1.54914e-06 -1.97664e-06 0)
(1.80685e-06 -1.83533e-06 0)
(2.06927e-06 -1.687e-06 0)
(2.3358e-06 -1.53292e-06 0)
(1.11916e-07 -2.51387e-06 0)
(3.36425e-07 -2.48971e-06 0)
(5.62928e-07 -2.44182e-06 0)
(7.92477e-07 -2.37214e-06 0)
(1.02598e-06 -2.28267e-06 0)
(1.26399e-06 -2.17598e-06 0)
(1.50665e-06 -2.05523e-06 0)
(1.75384e-06 -1.92338e-06 0)
(2.00488e-06 -1.78429e-06 0)
(2.25869e-06 -1.63911e-06 0)
(1.09787e-07 -2.55649e-06 0)
(3.29886e-07 -2.53415e-06 0)
(5.51605e-07 -2.48979e-06 0)
(7.75761e-07 -2.42516e-06 0)
(1.00307e-06 -2.34211e-06 0)
(1.23393e-06 -2.24289e-06 0)
(1.46847e-06 -2.13037e-06 0)
(1.70646e-06 -2.00718e-06 0)
(1.94762e-06 -1.87676e-06 0)
(2.19042e-06 -1.74035e-06 0)
(1.07711e-07 -2.60011e-06 0)
(3.23562e-07 -2.57935e-06 0)
(5.40724e-07 -2.53815e-06 0)
(7.59841e-07 -2.47802e-06 0)
(9.8149e-07 -2.40069e-06 0)
(1.20596e-06 -2.30819e-06 0)
(1.43338e-06 -2.20308e-06 0)
(1.66341e-06 -2.08773e-06 0)
(1.89604e-06 -1.96519e-06 0)
(2.12944e-06 -1.83693e-06 0)
(1.05677e-07 -2.6446e-06 0)
(3.174e-07 -2.62521e-06 0)
(5.30185e-07 -2.5868e-06 0)
(7.44557e-07 -2.53062e-06 0)
(9.60999e-07 -2.45835e-06 0)
(1.17968e-06 -2.37184e-06 0)
(1.40075e-06 -2.27338e-06 0)
(1.62376e-06 -2.16515e-06 0)
(1.84893e-06 -2.04985e-06 0)
(2.07426e-06 -1.92915e-06 0)
(1.03671e-07 -2.68986e-06 0)
(3.11305e-07 -2.67167e-06 0)
(5.19811e-07 -2.63575e-06 0)
(7.29636e-07 -2.58311e-06 0)
(9.41191e-07 -2.51537e-06 0)
(1.15457e-06 -2.43422e-06 0)
(1.3699e-06 -2.34172e-06 0)
(1.58671e-06 -2.2399e-06 0)
(1.8053e-06 -2.13119e-06 0)
(2.02367e-06 -2.01739e-06 0)
(1.01665e-07 -2.73577e-06 0)
(3.05208e-07 -2.71864e-06 0)
(5.09494e-07 -2.68492e-06 0)
(7.14914e-07 -2.63546e-06 0)
(9.21812e-07 -2.57176e-06 0)
(1.13024e-06 -2.49541e-06 0)
(1.34033e-06 -2.40828e-06 0)
(1.55156e-06 -2.31227e-06 0)
(1.76429e-06 -2.20957e-06 0)
(1.97659e-06 -2.10202e-06 0)
(9.96223e-08 -2.78222e-06 0)
(2.99037e-07 -2.76603e-06 0)
(4.99113e-07 -2.73428e-06 0)
(7.00204e-07 -2.68769e-06 0)
(9.02602e-07 -2.62764e-06 0)
(1.10636e-06 -2.55559e-06 0)
(1.31156e-06 -2.47329e-06 0)
(1.51769e-06 -2.38256e-06 0)
(1.72512e-06 -2.28528e-06 0)
(1.93207e-06 -2.18338e-06 0)
(9.75273e-08 -2.82904e-06 0)
(2.92748e-07 -2.81372e-06 0)
(4.88584e-07 -2.78373e-06 0)
(6.85357e-07 -2.73974e-06 0)
(8.83339e-07 -2.68297e-06 0)
(1.08258e-06 -2.6148e-06 0)
(1.28315e-06 -2.53687e-06 0)
(1.48455e-06 -2.4509e-06 0)
(1.68712e-06 -2.35853e-06 0)
(1.88925e-06 -2.26173e-06 0)
(9.53735e-08 -2.87609e-06 0)
(2.86295e-07 -2.86158e-06 0)
(4.77803e-07 -2.8332e-06 0)
(6.70211e-07 -2.79155e-06 0)
(8.63792e-07 -2.73775e-06 0)
(1.05859e-06 -2.67311e-06 0)
(1.2547e-06 -2.59915e-06 0)
(1.45161e-06 -2.51747e-06 0)
(1.64964e-06 -2.42956e-06 0)
(1.84737e-06 -2.33739e-06 0)
(9.31455e-08 -2.92322e-06 0)
(2.79611e-07 -2.90946e-06 0)
(4.66655e-07 -2.88254e-06 0)
(6.54595e-07 -2.84302e-06 0)
(8.43723e-07 -2.79194e-06 0)
(1.03409e-06 -2.73052e-06 0)
(1.22578e-06 -2.66018e-06 0)
(1.41836e-06 -2.58239e-06 0)
(1.61207e-06 -2.49858e-06 0)
(1.8057e-06 -2.41059e-06 0)
(9.08121e-08 -2.97029e-06 0)
(2.72607e-07 -2.95724e-06 0)
(4.54995e-07 -2.93165e-06 0)
(6.38311e-07 -2.89411e-06 0)
(8.22866e-07 -2.84554e-06 0)
(1.00873e-06 -2.78708e-06 0)
(1.19599e-06 -2.72002e-06 0)
(1.38428e-06 -2.64578e-06 0)
(1.57381e-06 -2.56574e-06 0)
(1.76353e-06 -2.48152e-06 0)
(8.83385e-08 -3.01706e-06 0)
(2.65192e-07 -3.00468e-06 0)
(4.42676e-07 -2.98034e-06 0)
(6.21149e-07 -2.94463e-06 0)
(8.00941e-07 -2.89835e-06 0)
(9.82156e-07 -2.84262e-06 0)
(1.1649e-06 -2.77859e-06 0)
(1.34888e-06 -2.70768e-06 0)
(1.53426e-06 -2.63109e-06 0)
(1.7202e-06 -2.55035e-06 0)
(8.56887e-08 -3.06346e-06 0)
(2.57264e-07 -3.05173e-06 0)
(4.29525e-07 -3.02853e-06 0)
(6.02857e-07 -2.99452e-06 0)
(7.77616e-07 -2.95042e-06 0)
(9.53954e-07 -2.89724e-06 0)
(1.13201e-06 -2.83608e-06 0)
(1.31157e-06 -2.76827e-06 0)
(1.49278e-06 -2.69482e-06 0)
(1.67492e-06 -2.61733e-06 0)
(8.28314e-08 -3.10897e-06 0)
(2.48724e-07 -3.09784e-06 0)
(4.15367e-07 -3.07576e-06 0)
(5.83179e-07 -3.04335e-06 0)
(7.52555e-07 -3.0013e-06 0)
(9.23709e-07 -2.95054e-06 0)
(1.09681e-06 -2.8921e-06 0)
(1.27174e-06 -2.8272e-06 0)
(1.44862e-06 -2.75678e-06 0)
(1.62692e-06 -2.68229e-06 0)
(7.9715e-08 -3.15382e-06 0)
(2.39409e-07 -3.14327e-06 0)
(3.99923e-07 -3.12229e-06 0)
(5.61723e-07 -3.09143e-06 0)
(7.2525e-07 -3.05136e-06 0)
(8.90799e-07 -3.00295e-06 0)
(1.05859e-06 -2.94715e-06 0)
(1.22858e-06 -2.88501e-06 0)
(1.40088e-06 -2.81751e-06 0)
(1.57516e-06 -2.74589e-06 0)
(7.63155e-08 -3.19664e-06 0)
(2.29244e-07 -3.18661e-06 0)
(3.83058e-07 -3.16673e-06 0)
(5.38291e-07 -3.13741e-06 0)
(6.95459e-07 -3.09932e-06 0)
(8.54918e-07 -3.05326e-06 0)
(1.01694e-06 -3.00007e-06 0)
(1.18156e-06 -2.94072e-06 0)
(1.34897e-06 -2.87611e-06 0)
(1.51902e-06 -2.80738e-06 0)
)


// ************************************************************************* //
