/*--------------------------------*- C++ -*----------------------------------*\
| =========                 |                                                 |
| \\      /  F ield         | foam-extend: Open Source CFD                    |
|  \\    /   O peration     | Version:     4.1                                |
|   \\  /    A nd           | Web:         http://www.foam-extend.org         |
|    \\/     M anipulation  |                                                 |
\*---------------------------------------------------------------------------*/
FoamFile
{
    version     2.0;
    format      ascii;
    class       vectorField;
    location    "6";
    object      solidsCellD_iteration9;
}
// * * * * * * * * * * * * * * * * * * * * * * * * * * * * * * * * * * * * * //


1000
(
(3.08229e-06 -1.2863e-06 0)
(2.91041e-06 -1.19837e-06 0)
(2.80106e-06 -1.14317e-06 0)
(2.73868e-06 -1.11812e-06 0)
(2.70874e-06 -1.11039e-06 0)
(2.70251e-06 -1.116e-06 0)
(2.71372e-06 -1.13034e-06 0)
(2.738e-06 -1.15124e-06 0)
(2.77222e-06 -1.17649e-06 0)
(2.81339e-06 -1.20491e-06 0)
(2.78729e-06 -1.40512e-06 0)
(2.60425e-06 -1.3445e-06 0)
(2.48779e-06 -1.30661e-06 0)
(2.42016e-06 -1.29336e-06 0)
(2.38603e-06 -1.29349e-06 0)
(2.37597e-06 -1.30466e-06 0)
(2.38348e-06 -1.32298e-06 0)
(2.4039e-06 -1.34683e-06 0)
(2.43393e-06 -1.37446e-06 0)
(2.47041e-06 -1.40447e-06 0)
(2.48066e-06 -1.51771e-06 0)
(2.29364e-06 -1.48761e-06 0)
(2.17466e-06 -1.46906e-06 0)
(2.1047e-06 -1.46879e-06 0)
(2.06829e-06 -1.47741e-06 0)
(2.05559e-06 -1.49445e-06 0)
(2.06011e-06 -1.51685e-06 0)
(2.07719e-06 -1.54358e-06 0)
(2.10347e-06 -1.57346e-06 0)
(2.13598e-06 -1.60493e-06 0)
(2.16471e-06 -1.62208e-06 0)
(1.9816e-06 -1.62399e-06 0)
(1.86508e-06 -1.62571e-06 0)
(1.79589e-06 -1.63895e-06 0)
(1.75913e-06 -1.65637e-06 0)
(1.74502e-06 -1.67941e-06 0)
(1.74723e-06 -1.70589e-06 0)
(1.76132e-06 -1.73547e-06 0)
(1.78408e-06 -1.7675e-06 0)
(1.81261e-06 -1.80056e-06 0)
(1.84167e-06 -1.71619e-06 0)
(1.67021e-06 -1.7498e-06 0)
(1.56111e-06 -1.7716e-06 0)
(1.49593e-06 -1.79817e-06 0)
(1.46079e-06 -1.82422e-06 0)
(1.44639e-06 -1.85314e-06 0)
(1.44696e-06 -1.88357e-06 0)
(1.45835e-06 -1.91592e-06 0)
(1.4777e-06 -1.95002e-06 0)
(1.50215e-06 -1.98475e-06 0)
(1.51302e-06 -1.79812e-06 0)
(1.36084e-06 -1.86137e-06 0)
(1.26404e-06 -1.90197e-06 0)
(1.20587e-06 -1.94102e-06 0)
(1.17415e-06 -1.97514e-06 0)
(1.16057e-06 -2.00951e-06 0)
(1.16016e-06 -2.04357e-06 0)
(1.16915e-06 -2.07851e-06 0)
(1.18507e-06 -2.1145e-06 0)
(1.20526e-06 -2.15088e-06 0)
(1.18045e-06 -1.86602e-06 0)
(1.05426e-06 -1.95525e-06 0)
(9.73998e-07 -2.01235e-06 0)
(9.25573e-07 -2.06231e-06 0)
(8.98971e-07 -2.10347e-06 0)
(8.87278e-07 -2.1426e-06 0)
(8.86416e-07 -2.17984e-06 0)
(8.93173e-07 -2.21705e-06 0)
(9.05602e-07 -2.25471e-06 0)
(9.21404e-07 -2.29259e-06 0)
(8.45081e-07 -1.9184e-06 0)
(7.50529e-07 -2.0285e-06 0)
(6.90429e-07 -2.09882e-06 0)
(6.54114e-07 -2.1575e-06 0)
(6.34068e-07 -2.20433e-06 0)
(6.25091e-07 -2.2473e-06 0)
(6.24141e-07 -2.28712e-06 0)
(6.28814e-07 -2.32617e-06 0)
(6.37711e-07 -2.36515e-06 0)
(6.49042e-07 -2.40429e-06 0)
(5.07837e-07 -1.954e-06 0)
(4.49306e-07 -2.07867e-06 0)
(4.12133e-07 -2.15823e-06 0)
(3.89586e-07 -2.22307e-06 0)
(3.77065e-07 -2.27386e-06 0)
(3.71389e-07 -2.31949e-06 0)
(3.70705e-07 -2.36111e-06 0)
(3.73475e-07 -2.4015e-06 0)
(3.7881e-07 -2.44145e-06 0)
(3.85611e-07 -2.48149e-06 0)
(1.69605e-07 -1.97194e-06 0)
(1.49779e-07 -2.10415e-06 0)
(1.37119e-07 -2.18846e-06 0)
(1.29452e-07 -2.25646e-06 0)
(1.25226e-07 -2.30929e-06 0)
(1.23267e-07 -2.35632e-06 0)
(1.22957e-07 -2.39886e-06 0)
(1.23854e-07 -2.43991e-06 0)
(1.25643e-07 -2.48035e-06 0)
(1.27905e-07 -2.52087e-06 0)
(4.80662e-06 -5.86809e-08 0)
(4.8496e-06 -4.2328e-08 0)
(4.87609e-06 -3.19876e-08 0)
(4.90488e-06 -2.59301e-08 0)
(4.93649e-06 -2.25902e-08 0)
(4.97522e-06 -2.11016e-08 0)
(5.02103e-06 -2.08551e-08 0)
(5.07436e-06 -2.13724e-08 0)
(5.13511e-06 -2.25237e-08 0)
(5.20246e-06 -2.39171e-08 0)
(4.7711e-06 -1.76065e-07 0)
(4.80694e-06 -1.27961e-07 0)
(4.82897e-06 -9.75693e-08 0)
(4.85475e-06 -7.98831e-08 0)
(4.88436e-06 -7.02277e-08 0)
(4.92164e-06 -6.58689e-08 0)
(4.96645e-06 -6.52075e-08 0)
(5.01897e-06 -6.69623e-08 0)
(5.07899e-06 -7.04448e-08 0)
(5.1456e-06 -7.45381e-08 0)
(4.70015e-06 -2.94413e-07 0)
(4.72237e-06 -2.17229e-07 0)
(4.73579e-06 -1.68513e-07 0)
(4.75586e-06 -1.40118e-07 0)
(4.7817e-06 -1.24727e-07 0)
(4.81633e-06 -1.18009e-07 0)
(4.85914e-06 -1.17173e-07 0)
(4.91007e-06 -1.20183e-07 0)
(4.96872e-06 -1.25948e-07 0)
(5.03389e-06 -1.32785e-07 0)
(4.59505e-06 -4.14291e-07 0)
(4.5979e-06 -3.12178e-07 0)
(4.59902e-06 -2.47838e-07 0)
(4.61097e-06 -2.10513e-07 0)
(4.6314e-06 -1.9037e-07 0)
(4.66224e-06 -1.81779e-07 0)
(4.70226e-06 -1.80991e-07 0)
(4.75096e-06 -1.854e-07 0)
(4.80767e-06 -1.9347e-07 0)
(4.87086e-06 -2.0307e-07 0)
(4.45737e-06 -5.35991e-07 0)
(4.43631e-06 -4.14544e-07 0)
(4.42223e-06 -3.3806e-07 0)
(4.4241e-06 -2.94027e-07 0)
(4.43785e-06 -2.70482e-07 0)
(4.46398e-06 -2.60823e-07 0)
(4.50051e-06 -2.60518e-07 0)
(4.5464e-06 -2.6652e-07 0)
(4.60071e-06 -2.76875e-07 0)
(4.66151e-06 -2.89191e-07 0)
(4.28918e-06 -6.59597e-07 0)
(4.24104e-06 -5.25472e-07 0)
(4.20982e-06 -4.40996e-07 0)
(4.20031e-06 -3.92869e-07 0)
(4.20648e-06 -3.67545e-07 0)
(4.22721e-06 -3.57782e-07 0)
(4.2598e-06 -3.5845e-07 0)
(4.30249e-06 -3.66217e-07 0)
(4.35403e-06 -3.78834e-07 0)
(4.41213e-06 -3.93823e-07 0)
(4.09298e-06 -7.84877e-07 0)
(4.01619e-06 -6.45432e-07 0)
(3.96686e-06 -5.57593e-07 0)
(3.94533e-06 -5.08281e-07 0)
(3.94347e-06 -4.82922e-07 0)
(3.95847e-06 -4.74101e-07 0)
(3.98681e-06 -4.76288e-07 0)
(4.02605e-06 -4.86028e-07 0)
(4.07456e-06 -5.00921e-07 0)
(4.12983e-06 -5.18504e-07 0)
(3.87132e-06 -9.11217e-07 0)
(3.76617e-06 -7.74115e-07 0)
(3.69889e-06 -6.87735e-07 0)
(3.66537e-06 -6.40267e-07 0)
(3.65551e-06 -6.16706e-07 0)
(3.66471e-06 -6.0993e-07 0)
(3.68867e-06 -6.14229e-07 0)
(3.72434e-06 -6.26229e-07 0)
(3.76966e-06 -6.43431e-07 0)
(3.822e-06 -6.63566e-07 0)
(3.62709e-06 -1.03776e-06 0)
(3.49556e-06 -9.10451e-07 0)
(3.41162e-06 -8.30302e-07 0)
(3.36687e-06 -7.87659e-07 0)
(3.34941e-06 -7.67732e-07 0)
(3.35298e-06 -7.64074e-07 0)
(3.37254e-06 -7.71106e-07 0)
(3.40457e-06 -7.85617e-07 0)
(3.44651e-06 -8.05268e-07 0)
(3.49587e-06 -8.27709e-07 0)
(3.36315e-06 -1.16329e-06 0)
(3.20892e-06 -1.05267e-06 0)
(3.11064e-06 -9.83117e-07 0)
(3.05606e-06 -9.48108e-07 0)
(3.03179e-06 -9.33546e-07 0)
(3.03019e-06 -9.34059e-07 0)
(3.04564e-06 -9.44458e-07 0)
(3.07408e-06 -9.61995e-07 0)
(3.11277e-06 -9.84308e-07 0)
(3.15875e-06 -1.0101e-06 0)
(5.27653e-06 -2.52597e-08 0)
(5.35724e-06 -2.55835e-08 0)
(5.44303e-06 -2.59454e-08 0)
(5.53359e-06 -2.62066e-08 0)
(5.62838e-06 -2.63447e-08 0)
(5.72705e-06 -2.635e-08 0)
(5.82916e-06 -2.61812e-08 0)
(5.93428e-06 -2.58668e-08 0)
(6.04214e-06 -2.54146e-08 0)
(6.15242e-06 -2.47873e-08 0)
(6.26478e-06 -2.39525e-08 0)
(6.37887e-06 -2.29018e-08 0)
(6.49439e-06 -2.16274e-08 0)
(6.61101e-06 -2.01207e-08 0)
(6.72845e-06 -1.83571e-08 0)
(6.84627e-06 -1.62937e-08 0)
(6.96425e-06 -1.38767e-08 0)
(7.08164e-06 -1.10572e-08 0)
(7.19859e-06 -7.77183e-09 0)
(7.3133e-06 -4.00138e-09 0)
(5.22219e-06 -7.82829e-08 0)
(5.30743e-06 -7.89199e-08 0)
(5.39728e-06 -7.96964e-08 0)
(5.49139e-06 -8.02173e-08 0)
(5.58935e-06 -8.0372e-08 0)
(5.69079e-06 -8.01887e-08 0)
(5.7954e-06 -7.95944e-08 0)
(5.90283e-06 -7.85935e-08 0)
(6.01279e-06 -7.71197e-08 0)
(6.12497e-06 -7.50989e-08 0)
(6.23906e-06 -7.25021e-08 0)
(6.35478e-06 -6.93198e-08 0)
(6.47184e-06 -6.54997e-08 0)
(6.58992e-06 -6.09693e-08 0)
(6.70873e-06 -5.56368e-08 0)
(6.82785e-06 -4.94004e-08 0)
(6.94708e-06 -4.21272e-08 0)
(7.06567e-06 -3.36827e-08 0)
(7.18381e-06 -2.38655e-08 0)
(7.29967e-06 -1.25923e-08 0)
(5.11539e-06 -1.38205e-07 0)
(5.20956e-06 -1.38157e-07 0)
(5.30738e-06 -1.38418e-07 0)
(5.40836e-06 -1.38502e-07 0)
(5.51248e-06 -1.38139e-07 0)
(5.61945e-06 -1.37357e-07 0)
(5.72904e-06 -1.35969e-07 0)
(5.84093e-06 -1.33947e-07 0)
(5.95495e-06 -1.31174e-07 0)
(6.07083e-06 -1.27573e-07 0)
(6.18836e-06 -1.231e-07 0)
(6.30727e-06 -1.17704e-07 0)
(6.42732e-06 -1.11261e-07 0)
(6.54818e-06 -1.03633e-07 0)
(6.66962e-06 -9.46788e-08 0)
(6.79128e-06 -8.42415e-08 0)
(6.91296e-06 -7.21038e-08 0)
(7.03396e-06 -5.80452e-08 0)
(7.15446e-06 -4.17267e-08 0)
(7.27268e-06 -2.29881e-08 0)
(4.95934e-06 -2.08939e-07 0)
(5.06625e-06 -2.06614e-07 0)
(5.1756e-06 -2.0492e-07 0)
(5.28662e-06 -2.03482e-07 0)
(5.39978e-06 -2.01701e-07 0)
(5.51474e-06 -1.99608e-07 0)
(5.63156e-06 -1.96833e-07 0)
(5.74998e-06 -1.93328e-07 0)
(5.87001e-06 -1.88904e-07 0)
(5.9914e-06 -1.83456e-07 0)
(6.114e-06 -1.76886e-07 0)
(6.23761e-06 -1.69078e-07 0)
(6.36202e-06 -1.59848e-07 0)
(6.48699e-06 -1.4902e-07 0)
(6.61234e-06 -1.36406e-07 0)
(6.73772e-06 -1.21764e-07 0)
(6.86299e-06 -1.04785e-07 0)
(6.98748e-06 -8.51485e-08 0)
(7.11136e-06 -6.23644e-08 0)
(7.23299e-06 -3.62271e-08 0)
(4.7587e-06 -2.93926e-07 0)
(4.88168e-06 -2.87301e-07 0)
(5.00567e-06 -2.81846e-07 0)
(5.12939e-06 -2.77508e-07 0)
(5.25407e-06 -2.7313e-07 0)
(5.37927e-06 -2.68761e-07 0)
(5.5054e-06 -2.6382e-07 0)
(5.63227e-06 -2.58221e-07 0)
(5.75999e-06 -2.51654e-07 0)
(5.88843e-06 -2.43951e-07 0)
(6.01755e-06 -2.34958e-07 0)
(6.14723e-06 -2.24492e-07 0)
(6.27734e-06 -2.12304e-07 0)
(6.40767e-06 -1.98158e-07 0)
(6.5381e-06 -1.81801e-07 0)
(6.6683e-06 -1.62909e-07 0)
(6.79822e-06 -1.41082e-07 0)
(6.92718e-06 -1.15906e-07 0)
(7.05551e-06 -8.67245e-08 0)
(7.18155e-06 -5.32884e-08 0)
(4.51916e-06 -3.95668e-07 0)
(4.66059e-06 -3.82401e-07 0)
(4.80172e-06 -3.71013e-07 0)
(4.94047e-06 -3.62067e-07 0)
(5.07885e-06 -3.5369e-07 0)
(5.21631e-06 -3.45908e-07 0)
(5.35353e-06 -3.37876e-07 0)
(5.49049e-06 -3.29402e-07 0)
(5.62745e-06 -3.20086e-07 0)
(5.76439e-06 -3.09671e-07 0)
(5.90139e-06 -2.97911e-07 0)
(6.03838e-06 -2.84529e-07 0)
(6.17532e-06 -2.69195e-07 0)
(6.31207e-06 -2.51608e-07 0)
(6.44858e-06 -2.31428e-07 0)
(6.58457e-06 -2.08259e-07 0)
(6.72008e-06 -1.81603e-07 0)
(6.85444e-06 -1.5096e-07 0)
(6.9881e-06 -1.15509e-07 0)
(7.11945e-06 -7.49033e-08 0)
(4.24739e-06 -5.15709e-07 0)
(4.40892e-06 -4.93394e-07 0)
(4.56901e-06 -4.73909e-07 0)
(4.72448e-06 -4.5853e-07 0)
(4.87814e-06 -4.44667e-07 0)
(5.02941e-06 -4.32187e-07 0)
(5.17919e-06 -4.20074e-07 0)
(5.32761e-06 -4.07913e-07 0)
(5.47511e-06 -3.952e-07 0)
(5.62179e-06 -3.81552e-07 0)
(5.7678e-06 -3.66599e-07 0)
(5.91317e-06 -3.49956e-07 0)
(6.05793e-06 -3.31214e-07 0)
(6.20205e-06 -3.09999e-07 0)
(6.34553e-06 -2.85887e-07 0)
(6.48819e-06 -2.58405e-07 0)
(6.63011e-06 -2.26948e-07 0)
(6.77072e-06 -1.90909e-07 0)
(6.91047e-06 -1.49308e-07 0)
(7.0479e-06 -1.01695e-07 0)
(3.95003e-06 -6.54407e-07 0)
(4.13236e-06 -6.20407e-07 0)
(4.31235e-06 -5.90669e-07 0)
(4.48577e-06 -5.66811e-07 0)
(4.65596e-06 -5.45893e-07 0)
(4.82228e-06 -5.27356e-07 0)
(4.9859e-06 -5.10083e-07 0)
(5.14703e-06 -4.93375e-07 0)
(5.30617e-06 -4.76591e-07 0)
(5.4636e-06 -4.59177e-07 0)
(5.61956e-06 -4.40625e-07 0)
(5.77418e-06 -4.20428e-07 0)
(5.92759e-06 -3.9809e-07 0)
(6.07987e-06 -3.73153e-07 0)
(6.23109e-06 -3.45093e-07 0)
(6.38115e-06 -3.13342e-07 0)
(6.53015e-06 -2.77178e-07 0)
(6.67766e-06 -2.35879e-07 0)
(6.82414e-06 -1.88305e-07 0)
(6.96831e-06 -1.33901e-07 0)
(3.63421e-06 -8.11491e-07 0)
(3.8375e-06 -7.63578e-07 0)
(4.03755e-06 -7.22185e-07 0)
(4.2296e-06 -6.88079e-07 0)
(4.41689e-06 -6.58719e-07 0)
(4.59907e-06 -6.32886e-07 0)
(4.77724e-06 -6.09377e-07 0)
(4.95182e-06 -5.87203e-07 0)
(5.12339e-06 -5.65564e-07 0)
(5.29233e-06 -5.43723e-07 0)
(5.45896e-06 -5.21029e-07 0)
(5.62355e-06 -4.9686e-07 0)
(5.78631e-06 -4.70622e-07 0)
(5.94741e-06 -4.41752e-07 0)
(6.10699e-06 -4.09614e-07 0)
(6.26503e-06 -3.73535e-07 0)
(6.42169e-06 -3.3267e-07 0)
(6.57662e-06 -2.86184e-07 0)
(6.73038e-06 -2.328e-07 0)
(6.88185e-06 -1.71871e-07 0)
(3.30596e-06 -9.84325e-07 0)
(3.53068e-06 -9.19015e-07 0)
(3.75014e-06 -8.64509e-07 0)
(3.96139e-06 -8.18508e-07 0)
(4.16617e-06 -7.79327e-07 0)
(4.36486e-06 -7.45088e-07 0)
(4.55822e-06 -7.1443e-07 0)
(4.74688e-06 -6.86117e-07 0)
(4.93145e-06 -6.59123e-07 0)
(5.11241e-06 -6.32516e-07 0)
(5.29022e-06 -6.05472e-07 0)
(5.46521e-06 -5.7723e-07 0)
(5.63772e-06 -5.47073e-07 0)
(5.80801e-06 -5.14314e-07 0)
(5.97625e-06 -4.78203e-07 0)
(6.14255e-06 -4.37958e-07 0)
(6.30713e-06 -3.92622e-07 0)
(6.46977e-06 -3.41232e-07 0)
(6.63108e-06 -2.82391e-07 0)
(6.79021e-06 -2.15317e-07 0)
(3.06104e-06 -1.15126e-06 0)
(3.30063e-06 -1.07141e-06 0)
(3.53206e-06 -1.00686e-06 0)
(3.75541e-06 -9.51206e-07 0)
(3.97139e-06 -9.03271e-07 0)
(4.18069e-06 -8.61082e-07 0)
(4.38401e-06 -8.23205e-07 0)
(4.582e-06 -7.88353e-07 0)
(4.77527e-06 -7.55403e-07 0)
(4.96431e-06 -7.2333e-07 0)
(5.1496e-06 -6.91227e-07 0)
(5.33154e-06 -6.58256e-07 0)
(5.51049e-06 -6.23616e-07 0)
(5.68677e-06 -5.86536e-07 0)
(5.86059e-06 -5.46197e-07 0)
(6.03213e-06 -5.0174e-07 0)
(6.20167e-06 -4.52175e-07 0)
(6.36916e-06 -3.96466e-07 0)
(6.53521e-06 -3.33199e-07 0)
(6.69923e-06 -2.61519e-07 0)
(2.9216e-06 -1.28758e-06 0)
(3.16287e-06 -1.20455e-06 0)
(3.39631e-06 -1.13423e-06 0)
(3.62281e-06 -1.07253e-06 0)
(3.84243e-06 -1.01836e-06 0)
(4.0556e-06 -9.70025e-07 0)
(4.26285e-06 -9.26191e-07 0)
(4.46469e-06 -8.85628e-07 0)
(4.66161e-06 -8.47229e-07 0)
(4.85406e-06 -8.09984e-07 0)
(5.04251e-06 -7.72985e-07 0)
(5.22732e-06 -7.35378e-07 0)
(5.40888e-06 -6.9634e-07 0)
(5.58749e-06 -6.55076e-07 0)
(5.76338e-06 -6.10758e-07 0)
(5.93683e-06 -5.62509e-07 0)
(6.10808e-06 -5.09375e-07 0)
(6.27725e-06 -4.50327e-07 0)
(6.44493e-06 -3.8402e-07 0)
(6.61076e-06 -3.09608e-07 0)
(2.80296e-06 -1.41804e-06 0)
(3.0418e-06 -1.33324e-06 0)
(3.27492e-06 -1.25933e-06 0)
(3.50201e-06 -1.19312e-06 0)
(3.72307e-06 -1.13383e-06 0)
(3.93817e-06 -1.08014e-06 0)
(4.14768e-06 -1.03089e-06 0)
(4.35191e-06 -9.84968e-07 0)
(4.55126e-06 -9.41348e-07 0)
(4.7461e-06 -8.99076e-07 0)
(4.93683e-06 -8.57268e-07 0)
(5.1238e-06 -8.15081e-07 0)
(5.30736e-06 -7.71687e-07 0)
(5.48781e-06 -7.26292e-07 0)
(5.6654e-06 -6.78076e-07 0)
(5.84043e-06 -6.26167e-07 0)
(6.01319e-06 -5.69658e-07 0)
(6.18388e-06 -5.07561e-07 0)
(6.35304e-06 -4.38608e-07 0)
(6.52058e-06 -3.61998e-07 0)
(2.6985e-06 -1.54381e-06 0)
(2.9339e-06 -1.45819e-06 0)
(3.16502e-06 -1.38161e-06 0)
(3.39107e-06 -1.31172e-06 0)
(3.61196e-06 -1.24807e-06 0)
(3.82753e-06 -1.18965e-06 0)
(4.03797e-06 -1.13549e-06 0)
(4.24343e-06 -1.08463e-06 0)
(4.4442e-06 -1.03612e-06 0)
(4.64056e-06 -9.89098e-07 0)
(4.83286e-06 -9.42713e-07 0)
(5.02137e-06 -8.96149e-07 0)
(5.20643e-06 -8.48594e-07 0)
(5.38832e-06 -7.99269e-07 0)
(5.56729e-06 -7.47377e-07 0)
(5.74366e-06 -6.92074e-07 0)
(5.91773e-06 -6.32507e-07 0)
(6.08977e-06 -5.67741e-07 0)
(6.2603e-06 -4.96603e-07 0)
(6.42943e-06 -4.18383e-07 0)
(2.60651e-06 -1.66426e-06 0)
(2.83756e-06 -1.57854e-06 0)
(3.06556e-06 -1.50027e-06 0)
(3.28936e-06 -1.42766e-06 0)
(3.50885e-06 -1.36051e-06 0)
(3.72371e-06 -1.2981e-06 0)
(3.93397e-06 -1.23964e-06 0)
(4.13966e-06 -1.18433e-06 0)
(4.34096e-06 -1.13135e-06 0)
(4.53808e-06 -1.0799e-06 0)
(4.73127e-06 -1.02922e-06 0)
(4.92076e-06 -9.78517e-07 0)
(5.10685e-06 -9.27017e-07 0)
(5.28978e-06 -8.73979e-07 0)
(5.46981e-06 -8.18634e-07 0)
(5.64728e-06 -7.60186e-07 0)
(5.82246e-06 -6.97841e-07 0)
(5.99569e-06 -6.30732e-07 0)
(6.16744e-06 -5.57802e-07 0)
(6.33805e-06 -4.78475e-07 0)
(2.52473e-06 -1.77958e-06 0)
(2.751e-06 -1.69427e-06 0)
(2.9752e-06 -1.61498e-06 0)
(3.19592e-06 -1.54035e-06 0)
(3.41315e-06 -1.47041e-06 0)
(3.62639e-06 -1.40465e-06 0)
(3.83559e-06 -1.34247e-06 0)
(4.04069e-06 -1.28323e-06 0)
(4.24179e-06 -1.22623e-06 0)
(4.43899e-06 -1.17076e-06 0)
(4.63248e-06 -1.11613e-06 0)
(4.82243e-06 -1.06159e-06 0)
(5.0091e-06 -1.00643e-06 0)
(5.19272e-06 -9.49953e-07 0)
(5.37351e-06 -8.91429e-07 0)
(5.55183e-06 -8.30132e-07 0)
(5.72791e-06 -7.65318e-07 0)
(5.90215e-06 -6.96204e-07 0)
(6.07502e-06 -6.21881e-07 0)
(6.24692e-06 -5.41884e-07 0)
(2.45151e-06 -1.88996e-06 0)
(2.67276e-06 -1.80541e-06 0)
(2.8927e-06 -1.72561e-06 0)
(3.10981e-06 -1.64958e-06 0)
(3.32415e-06 -1.57748e-06 0)
(3.53509e-06 -1.50898e-06 0)
(3.74258e-06 -1.44365e-06 0)
(3.94644e-06 -1.381e-06 0)
(4.14671e-06 -1.32044e-06 0)
(4.34343e-06 -1.26136e-06 0)
(4.53671e-06 -1.20313e-06 0)
(4.72667e-06 -1.14509e-06 0)
(4.91354e-06 -1.08658e-06 0)
(5.09751e-06 -1.02696e-06 0)
(5.27879e-06 -9.65539e-07 0)
(5.45771e-06 -9.01676e-07 0)
(5.63452e-06 -8.34692e-07 0)
(5.80961e-06 -7.63895e-07 0)
(5.98345e-06 -6.88534e-07 0)
(6.15645e-06 -6.08192e-07 0)
(2.38529e-06 -1.99565e-06 0)
(2.60146e-06 -1.9121e-06 0)
(2.8169e-06 -1.83219e-06 0)
(3.03009e-06 -1.75522e-06 0)
(3.24109e-06 -1.68148e-06 0)
(3.44927e-06 -1.61075e-06 0)
(3.65453e-06 -1.5428e-06 0)
(3.85666e-06 -1.47722e-06 0)
(4.0556e-06 -1.41355e-06 0)
(4.25136e-06 -1.35127e-06 0)
(4.44401e-06 -1.28983e-06 0)
(4.6336e-06 -1.22865e-06 0)
(4.82034e-06 -1.16711e-06 0)
(5.00438e-06 -1.10466e-06 0)
(5.18591e-06 -1.04065e-06 0)
(5.36523e-06 -9.74519e-07 0)
(5.54259e-06 -9.05669e-07 0)
(5.71839e-06 -8.33502e-07 0)
(5.89303e-06 -7.57403e-07 0)
(6.06699e-06 -6.76974e-07 0)
(2.32469e-06 -2.09699e-06 0)
(2.53582e-06 -2.01457e-06 0)
(2.74665e-06 -1.93482e-06 0)
(2.95575e-06 -1.85728e-06 0)
(3.16315e-06 -1.78232e-06 0)
(3.36826e-06 -1.70984e-06 0)
(3.57096e-06 -1.63971e-06 0)
(3.77097e-06 -1.57167e-06 0)
(3.96822e-06 -1.50532e-06 0)
(4.16267e-06 -1.44025e-06 0)
(4.35434e-06 -1.37599e-06 0)
(4.54327e-06 -1.31202e-06 0)
(4.72961e-06 -1.24779e-06 0)
(4.91347e-06 -1.18282e-06 0)
(5.09504e-06 -1.11653e-06 0)
(5.2746e-06 -1.04843e-06 0)
(5.45235e-06 -9.78009e-07 0)
(5.62873e-06 -9.04751e-07 0)
(5.80401e-06 -8.28144e-07 0)
(5.97878e-06 -7.47871e-07 0)
(2.26849e-06 -2.19429e-06 0)
(2.47468e-06 -2.11308e-06 0)
(2.68093e-06 -2.03367e-06 0)
(2.88586e-06 -1.95585e-06 0)
(3.08955e-06 -1.88e-06 0)
(3.29141e-06 -1.80615e-06 0)
(3.49131e-06 -1.73426e-06 0)
(3.68896e-06 -1.66416e-06 0)
(3.88427e-06 -1.59554e-06 0)
(4.07715e-06 -1.52807e-06 0)
(4.2676e-06 -1.46137e-06 0)
(4.45562e-06 -1.39497e-06 0)
(4.64134e-06 -1.3284e-06 0)
(4.82484e-06 -1.26124e-06 0)
(5.00628e-06 -1.19297e-06 0)
(5.18592e-06 -1.12319e-06 0)
(5.36394e-06 -1.05147e-06 0)
(5.54072e-06 -9.77357e-07 0)
(5.71653e-06 -9.00432e-07 0)
(5.89196e-06 -8.2053e-07 0)
(2.21563e-06 -2.2879e-06 0)
(2.41704e-06 -2.20789e-06 0)
(2.61877e-06 -2.12895e-06 0)
(2.81956e-06 -2.05104e-06 0)
(3.01951e-06 -1.9746e-06 0)
(3.21805e-06 -1.8997e-06 0)
(3.41503e-06 -1.82641e-06 0)
(3.61018e-06 -1.75463e-06 0)
(3.80336e-06 -1.68412e-06 0)
(3.9945e-06 -1.61463e-06 0)
(4.18355e-06 -1.54584e-06 0)
(4.3705e-06 -1.47735e-06 0)
(4.55544e-06 -1.40877e-06 0)
(4.73844e-06 -1.33972e-06 0)
(4.91962e-06 -1.26978e-06 0)
(5.09922e-06 -1.19859e-06 0)
(5.27737e-06 -1.1258e-06 0)
(5.45443e-06 -1.05103e-06 0)
(5.63067e-06 -9.73973e-07 0)
(5.80659e-06 -8.94558e-07 0)
(2.16515e-06 -2.37813e-06 0)
(2.36196e-06 -2.29928e-06 0)
(2.55931e-06 -2.22088e-06 0)
(2.75607e-06 -2.14304e-06 0)
(2.95231e-06 -2.06623e-06 0)
(3.14752e-06 -1.99057e-06 0)
(3.34154e-06 -1.91619e-06 0)
(3.53411e-06 -1.84305e-06 0)
(3.72508e-06 -1.771e-06 0)
(3.91439e-06 -1.69982e-06 0)
(4.10194e-06 -1.62928e-06 0)
(4.28772e-06 -1.55904e-06 0)
(4.47178e-06 -1.48875e-06 0)
(4.65418e-06 -1.41812e-06 0)
(4.835e-06 -1.34678e-06 0)
(5.01446e-06 -1.27444e-06 0)
(5.19265e-06 -1.2008e-06 0)
(5.36989e-06 -1.12554e-06 0)
(5.54644e-06 -1.04852e-06 0)
(5.72274e-06 -9.69625e-07 0)
(2.11623e-06 -2.46527e-06 0)
(2.30864e-06 -2.3875e-06 0)
(2.50177e-06 -2.30969e-06 0)
(2.69462e-06 -2.23205e-06 0)
(2.88724e-06 -2.15504e-06 0)
(3.07917e-06 -2.07884e-06 0)
(3.27025e-06 -2.00364e-06 0)
(3.46026e-06 -1.92944e-06 0)
(3.64903e-06 -1.85616e-06 0)
(3.83647e-06 -1.78362e-06 0)
(4.02249e-06 -1.71165e-06 0)
(4.20705e-06 -1.63997e-06 0)
(4.39018e-06 -1.56828e-06 0)
(4.57191e-06 -1.49636e-06 0)
(4.75231e-06 -1.42389e-06 0)
(4.93154e-06 -1.35061e-06 0)
(5.10966e-06 -1.27628e-06 0)
(5.28703e-06 -1.2007e-06 0)
(5.46376e-06 -1.12381e-06 0)
(5.64034e-06 -1.04549e-06 0)
(2.06809e-06 -2.54956e-06 0)
(2.2563e-06 -2.47283e-06 0)
(2.44538e-06 -2.39562e-06 0)
(2.63447e-06 -2.31824e-06 0)
(2.8236e-06 -2.24118e-06 0)
(3.01237e-06 -2.16464e-06 0)
(3.20063e-06 -2.08887e-06 0)
(3.38814e-06 -2.01389e-06 0)
(3.57476e-06 -1.93966e-06 0)
(3.76036e-06 -1.86606e-06 0)
(3.94485e-06 -1.79295e-06 0)
(4.12818e-06 -1.72011e-06 0)
(4.31037e-06 -1.6473e-06 0)
(4.49141e-06 -1.57434e-06 0)
(4.67133e-06 -1.50094e-06 0)
(4.85028e-06 -1.4269e-06 0)
(5.0283e-06 -1.35207e-06 0)
(5.2057e-06 -1.27631e-06 0)
(5.38254e-06 -1.19956e-06 0)
(5.5593e-06 -1.12186e-06 0)
(2.0199e-06 -2.63129e-06 0)
(2.20412e-06 -2.5555e-06 0)
(2.38936e-06 -2.47889e-06 0)
(2.57487e-06 -2.40185e-06 0)
(2.76071e-06 -2.32486e-06 0)
(2.94649e-06 -2.24817e-06 0)
(3.13208e-06 -2.17203e-06 0)
(3.31722e-06 -2.0965e-06 0)
(3.50179e-06 -2.02157e-06 0)
(3.68565e-06 -1.94716e-06 0)
(3.86869e-06 -1.87319e-06 0)
(4.05085e-06 -1.79946e-06 0)
(4.23213e-06 -1.72578e-06 0)
(4.41248e-06 -1.65201e-06 0)
(4.59192e-06 -1.57789e-06 0)
(4.77056e-06 -1.50328e-06 0)
(4.94845e-06 -1.42809e-06 0)
(5.12581e-06 -1.35222e-06 0)
(5.30274e-06 -1.27566e-06 0)
(5.47958e-06 -1.19853e-06 0)
(1.97089e-06 -2.71064e-06 0)
(2.15133e-06 -2.6358e-06 0)
(2.3329e-06 -2.55971e-06 0)
(2.5151e-06 -2.48305e-06 0)
(2.69789e-06 -2.40627e-06 0)
(2.88092e-06 -2.32958e-06 0)
(3.06405e-06 -2.25325e-06 0)
(3.24702e-06 -2.1774e-06 0)
(3.42969e-06 -2.102e-06 0)
(3.61194e-06 -2.02703e-06 0)
(3.79365e-06 -1.95243e-06 0)
(3.97472e-06 -1.87806e-06 0)
(4.15514e-06 -1.80373e-06 0)
(4.33482e-06 -1.72933e-06 0)
(4.51379e-06 -1.65466e-06 0)
(4.69214e-06 -1.57964e-06 0)
(4.86989e-06 -1.50421e-06 0)
(5.04718e-06 -1.42826e-06 0)
(5.22412e-06 -1.35193e-06 0)
(5.40101e-06 -1.27532e-06 0)
(1.92027e-06 -2.78791e-06 0)
(2.097e-06 -2.71373e-06 0)
(2.27511e-06 -2.63833e-06 0)
(2.45441e-06 -2.56221e-06 0)
(2.63443e-06 -2.4857e-06 0)
(2.81503e-06 -2.40915e-06 0)
(2.99595e-06 -2.33279e-06 0)
(3.177e-06 -2.25678e-06 0)
(3.35801e-06 -2.18111e-06 0)
(3.53885e-06 -2.10579e-06 0)
(3.71939e-06 -2.03079e-06 0)
(3.8995e-06 -1.95596e-06 0)
(4.07913e-06 -1.88115e-06 0)
(4.25822e-06 -1.80631e-06 0)
(4.43677e-06 -1.73127e-06 0)
(4.61488e-06 -1.65595e-06 0)
(4.79245e-06 -1.58032e-06 0)
(4.96967e-06 -1.50434e-06 0)
(5.14656e-06 -1.42824e-06 0)
(5.32348e-06 -1.35208e-06 0)
(1.86682e-06 -2.863e-06 0)
(2.04041e-06 -2.78962e-06 0)
(2.21568e-06 -2.71503e-06 0)
(2.3922e-06 -2.63944e-06 0)
(2.56982e-06 -2.56335e-06 0)
(2.74826e-06 -2.48705e-06 0)
(2.92731e-06 -2.41082e-06 0)
(3.10674e-06 -2.33482e-06 0)
(3.28638e-06 -2.25908e-06 0)
(3.46606e-06 -2.18359e-06 0)
(3.64562e-06 -2.10834e-06 0)
(3.8249e-06 -2.03323e-06 0)
(4.00388e-06 -1.95814e-06 0)
(4.18251e-06 -1.88299e-06 0)
(4.36072e-06 -1.80768e-06 0)
(4.53854e-06 -1.73217e-06 0)
(4.71592e-06 -1.6564e-06 0)
(4.89312e-06 -1.58043e-06 0)
(5.07002e-06 -1.50449e-06 0)
(5.24683e-06 -1.42873e-06 0)
(1.80985e-06 -2.93674e-06 0)
(1.98055e-06 -2.86424e-06 0)
(2.15325e-06 -2.79028e-06 0)
(2.32752e-06 -2.71529e-06 0)
(2.50317e-06 -2.63966e-06 0)
(2.67991e-06 -2.56373e-06 0)
(2.85754e-06 -2.48775e-06 0)
(3.03579e-06 -2.41187e-06 0)
(3.21441e-06 -2.33616e-06 0)
(3.3932e-06 -2.26063e-06 0)
(3.57201e-06 -2.18528e-06 0)
(3.75073e-06 -2.11001e-06 0)
(3.92925e-06 -2.03473e-06 0)
(4.10745e-06 -1.95943e-06 0)
(4.28533e-06 -1.88393e-06 0)
(4.46297e-06 -1.80823e-06 0)
(4.64027e-06 -1.73239e-06 0)
(4.81735e-06 -1.65643e-06 0)
(4.99424e-06 -1.58057e-06 0)
(5.17101e-06 -1.5051e-06 0)
(1.74861e-06 -3.00849e-06 0)
(1.91681e-06 -2.93701e-06 0)
(2.08737e-06 -2.86396e-06 0)
(2.25987e-06 -2.78972e-06 0)
(2.43408e-06 -2.71473e-06 0)
(2.60969e-06 -2.63929e-06 0)
(2.7864e-06 -2.56369e-06 0)
(2.96387e-06 -2.4881e-06 0)
(3.14186e-06 -2.41254e-06 0)
(3.32017e-06 -2.33705e-06 0)
(3.49859e-06 -2.26171e-06 0)
(3.6769e-06 -2.18641e-06 0)
(3.85507e-06 -2.11102e-06 0)
(4.03302e-06 -2.03557e-06 0)
(4.21064e-06 -1.96e-06 0)
(4.38805e-06 -1.8842e-06 0)
(4.56526e-06 -1.8083e-06 0)
(4.74226e-06 -1.73228e-06 0)
(4.91918e-06 -1.65645e-06 0)
(5.09592e-06 -1.58108e-06 0)
(1.27523e-07 -2.56228e-06 0)
(3.84259e-07 -2.52478e-06 0)
(6.46012e-07 -2.45119e-06 0)
(9.15639e-07 -2.34457e-06 0)
(1.1954e-06 -2.20894e-06 0)
(1.4867e-06 -2.04942e-06 0)
(1.79007e-06 -1.87183e-06 0)
(2.10497e-06 -1.68224e-06 0)
(2.4305e-06 -1.48673e-06 0)
(2.76387e-06 -1.29007e-06 0)
(1.24066e-07 -2.60539e-06 0)
(3.73636e-07 -2.57113e-06 0)
(6.27344e-07 -2.50384e-06 0)
(8.876e-07 -2.40617e-06 0)
(1.1563e-06 -2.28147e-06 0)
(1.43462e-06 -2.13413e-06 0)
(1.72305e-06 -1.96908e-06 0)
(2.02095e-06 -1.7916e-06 0)
(2.32707e-06 -1.6072e-06 0)
(2.63906e-06 -1.4202e-06 0)
(1.20963e-07 -2.64955e-06 0)
(3.64086e-07 -2.61824e-06 0)
(6.10563e-07 -2.55666e-06 0)
(8.62308e-07 -2.46712e-06 0)
(1.12093e-06 -2.35254e-06 0)
(1.38737e-06 -2.2167e-06 0)
(1.66213e-06 -2.06383e-06 0)
(1.94497e-06 -1.89839e-06 0)
(2.23494e-06 -1.72517e-06 0)
(2.53045e-06 -1.5472e-06 0)
(1.18188e-07 -2.69482e-06 0)
(3.55554e-07 -2.666e-06 0)
(5.95739e-07 -2.60927e-06 0)
(8.40221e-07 -2.52667e-06 0)
(1.09038e-06 -2.42078e-06 0)
(1.34695e-06 -2.29487e-06 0)
(1.61029e-06 -2.15275e-06 0)
(1.88018e-06 -1.99833e-06 0)
(2.15574e-06 -1.8361e-06 0)
(2.4357e-06 -1.6685e-06 0)
(1.15646e-07 -2.74114e-06 0)
(3.47683e-07 -2.71457e-06 0)
(5.82091e-07 -2.66218e-06 0)
(8.20001e-07 -2.58583e-06 0)
(1.06259e-06 -2.48781e-06 0)
(1.31043e-06 -2.37103e-06 0)
(1.56385e-06 -2.23887e-06 0)
(1.82266e-06 -2.09466e-06 0)
(2.0862e-06 -1.94252e-06 0)
(2.35288e-06 -1.78464e-06 0)
(1.13264e-07 -2.78847e-06 0)
(3.40395e-07 -2.76383e-06 0)
(5.69505e-07 -2.71524e-06 0)
(8.01527e-07 -2.64436e-06 0)
(1.03741e-06 -2.55325e-06 0)
(1.27765e-06 -2.44454e-06 0)
(1.52242e-06 -2.32132e-06 0)
(1.77152e-06 -2.1865e-06 0)
(2.02456e-06 -2.04386e-06 0)
(2.27968e-06 -1.89556e-06 0)
(1.10972e-07 -2.83675e-06 0)
(3.33455e-07 -2.81382e-06 0)
(5.57583e-07 -2.76863e-06 0)
(7.84176e-07 -2.70264e-06 0)
(1.01397e-06 -2.61775e-06 0)
(1.2474e-06 -2.51633e-06 0)
(1.48461e-06 -2.40118e-06 0)
(1.72526e-06 -2.27494e-06 0)
(1.96925e-06 -2.14096e-06 0)
(2.21444e-06 -2.00155e-06 0)
(1.08793e-07 -2.88585e-06 0)
(3.26794e-07 -2.86446e-06 0)
(5.46195e-07 -2.82227e-06 0)
(7.67724e-07 -2.76062e-06 0)
(9.91945e-07 -2.68127e-06 0)
(1.21921e-06 -2.58637e-06 0)
(1.44966e-06 -2.47853e-06 0)
(1.68287e-06 -2.36012e-06 0)
(1.91892e-06 -2.23413e-06 0)
(2.15557e-06 -2.10297e-06 0)
(1.0667e-07 -2.9357e-06 0)
(3.20286e-07 -2.91568e-06 0)
(5.35139e-07 -2.8762e-06 0)
(7.51842e-07 -2.81845e-06 0)
(9.70866e-07 -2.74409e-06 0)
(1.19249e-06 -2.65508e-06 0)
(1.41684e-06 -2.55381e-06 0)
(1.64343e-06 -2.44252e-06 0)
(1.87247e-06 -2.32382e-06 0)
(2.10173e-06 -2.2002e-06 0)
(1.04539e-07 -2.98621e-06 0)
(3.1385e-07 -2.96741e-06 0)
(5.24276e-07 -2.93034e-06 0)
(7.36334e-07 -2.8761e-06 0)
(9.50418e-07 -2.80625e-06 0)
(1.1668e-06 -2.72254e-06 0)
(1.38555e-06 -2.62723e-06 0)
(1.60616e-06 -2.5224e-06 0)
(1.82894e-06 -2.41036e-06 0)
(2.05173e-06 -2.29363e-06 0)
(1.0238e-07 -3.03726e-06 0)
(3.07427e-07 -3.01955e-06 0)
(5.13456e-07 -2.98468e-06 0)
(7.20974e-07 -2.93362e-06 0)
(9.30299e-07 -2.86783e-06 0)
(1.14171e-06 -2.78893e-06 0)
(1.35524e-06 -2.699e-06 0)
(1.57041e-06 -2.60005e-06 0)
(1.78751e-06 -2.49409e-06 0)
(2.00455e-06 -2.38362e-06 0)
(1.00208e-07 -3.08871e-06 0)
(3.00957e-07 -3.07201e-06 0)
(5.02557e-07 -3.03913e-06 0)
(7.05569e-07 -2.99095e-06 0)
(9.10252e-07 -2.92884e-06 0)
(1.11686e-06 -2.85431e-06 0)
(1.32547e-06 -2.76929e-06 0)
(1.53557e-06 -2.67567e-06 0)
(1.74745e-06 -2.57526e-06 0)
(1.95934e-06 -2.47047e-06 0)
(9.80058e-08 -3.14046e-06 0)
(2.94339e-07 -3.12468e-06 0)
(4.91434e-07 -3.09362e-06 0)
(6.89906e-07 -3.04806e-06 0)
(8.89995e-07 -2.98931e-06 0)
(1.09191e-06 -2.91878e-06 0)
(1.29576e-06 -2.83823e-06 0)
(1.50108e-06 -2.74946e-06 0)
(1.70812e-06 -2.65411e-06 0)
(1.91534e-06 -2.55449e-06 0)
(9.57221e-08 -3.19235e-06 0)
(2.87455e-07 -3.17742e-06 0)
(4.79931e-07 -3.14802e-06 0)
(6.7377e-07 -3.10487e-06 0)
(8.69232e-07 -3.0492e-06 0)
(1.06649e-06 -2.98232e-06 0)
(1.26569e-06 -2.90587e-06 0)
(1.46642e-06 -2.82154e-06 0)
(1.6689e-06 -2.73084e-06 0)
(1.87178e-06 -2.63594e-06 0)
(9.33082e-08 -3.24427e-06 0)
(2.80209e-07 -3.23012e-06 0)
(4.67897e-07 -3.20225e-06 0)
(6.56948e-07 -3.16133e-06 0)
(8.4767e-07 -3.1085e-06 0)
(1.04023e-06 -3.045e-06 0)
(1.2348e-06 -2.97232e-06 0)
(1.43104e-06 -2.89206e-06 0)
(1.62913e-06 -2.80565e-06 0)
(1.8279e-06 -2.71506e-06 0)
(9.07402e-08 -3.29596e-06 0)
(2.72538e-07 -3.28253e-06 0)
(4.5519e-07 -3.25609e-06 0)
(6.39224e-07 -3.21726e-06 0)
(8.2501e-07 -3.16706e-06 0)
(1.01274e-06 -3.10668e-06 0)
(1.20262e-06 -3.0375e-06 0)
(1.39441e-06 -2.96104e-06 0)
(1.58817e-06 -2.87859e-06 0)
(1.78298e-06 -2.79197e-06 0)
(8.80001e-08 -3.34733e-06 0)
(2.64351e-07 -3.3346e-06 0)
(4.4162e-07 -3.3095e-06 0)
(6.20324e-07 -3.27262e-06 0)
(8.00905e-07 -3.22492e-06 0)
(9.83601e-07 -3.16747e-06 0)
(1.16864e-06 -3.10158e-06 0)
(1.35585e-06 -3.02868e-06 0)
(1.54528e-06 -2.94991e-06 0)
(1.73614e-06 -2.86699e-06 0)
(8.50538e-08 -3.39787e-06 0)
(2.55524e-07 -3.3858e-06 0)
(4.26976e-07 -3.36198e-06 0)
(5.99958e-07 -3.32697e-06 0)
(7.74981e-07 -3.28162e-06 0)
(9.52344e-07 -3.22697e-06 0)
(1.1323e-06 -3.16422e-06 0)
(1.31472e-06 -3.09469e-06 0)
(1.49968e-06 -3.01942e-06 0)
(1.68657e-06 -2.93999e-06 0)
(8.18329e-08 -3.44782e-06 0)
(2.45859e-07 -3.43639e-06 0)
(4.10946e-07 -3.41381e-06 0)
(5.77709e-07 -3.38059e-06 0)
(7.46705e-07 -3.33754e-06 0)
(9.18314e-07 -3.2856e-06 0)
(1.09282e-06 -3.22588e-06 0)
(1.27018e-06 -3.15957e-06 0)
(1.45044e-06 -3.08768e-06 0)
(1.63323e-06 -3.01159e-06 0)
(7.83009e-08 -3.49577e-06 0)
(2.35275e-07 -3.48496e-06 0)
(3.93398e-07 -3.46362e-06 0)
(5.5337e-07 -3.43219e-06 0)
(7.15821e-07 -3.39141e-06 0)
(8.81187e-07 -3.34217e-06 0)
(1.04979e-06 -3.28545e-06 0)
(1.22172e-06 -3.22236e-06 0)
(1.39704e-06 -3.15385e-06 0)
(1.57556e-06 -3.08112e-06 0)
)


// ************************************************************************* //
