/*--------------------------------*- C++ -*----------------------------------*\
| =========                 |                                                 |
| \\      /  F ield         | foam-extend: Open Source CFD                    |
|  \\    /   O peration     | Version:     4.1                                |
|   \\  /    A nd           | Web:         http://www.foam-extend.org         |
|    \\/     M anipulation  |                                                 |
\*---------------------------------------------------------------------------*/
FoamFile
{
    version     2.0;
    format      ascii;
    class       vectorField;
    location    "6";
    object      solidsCellD_iteration15;
}
// * * * * * * * * * * * * * * * * * * * * * * * * * * * * * * * * * * * * * //


1000
(
(3.12054e-06 -1.32733e-06 0)
(2.94325e-06 -1.23475e-06 0)
(2.82983e-06 -1.17583e-06 0)
(2.76449e-06 -1.14815e-06 0)
(2.73233e-06 -1.13831e-06 0)
(2.72437e-06 -1.14225e-06 0)
(2.73423e-06 -1.15519e-06 0)
(2.75744e-06 -1.17482e-06 0)
(2.79079e-06 -1.19897e-06 0)
(2.8319e-06 -1.2262e-06 0)
(2.82133e-06 -1.44988e-06 0)
(2.6326e-06 -1.38532e-06 0)
(2.51198e-06 -1.34411e-06 0)
(2.44134e-06 -1.32844e-06 0)
(2.40504e-06 -1.32657e-06 0)
(2.39337e-06 -1.33614e-06 0)
(2.39969e-06 -1.35307e-06 0)
(2.41926e-06 -1.37569e-06 0)
(2.44869e-06 -1.40228e-06 0)
(2.48509e-06 -1.43111e-06 0)
(2.51055e-06 -1.56605e-06 0)
(2.31778e-06 -1.53281e-06 0)
(2.19463e-06 -1.51143e-06 0)
(2.12171e-06 -1.50904e-06 0)
(2.0832e-06 -1.51588e-06 0)
(2.06901e-06 -1.53144e-06 0)
(2.07247e-06 -1.55255e-06 0)
(2.08879e-06 -1.57815e-06 0)
(2.11456e-06 -1.60709e-06 0)
(2.14697e-06 -1.63753e-06 0)
(2.19044e-06 -1.67376e-06 0)
(2.00175e-06 -1.67336e-06 0)
(1.88121e-06 -1.6728e-06 0)
(1.80922e-06 -1.68428e-06 0)
(1.7705e-06 -1.70015e-06 0)
(1.755e-06 -1.72188e-06 0)
(1.75625e-06 -1.74718e-06 0)
(1.76965e-06 -1.77575e-06 0)
(1.79194e-06 -1.80693e-06 0)
(1.82031e-06 -1.83911e-06 0)
(1.8633e-06 -1.77088e-06 0)
(1.68662e-06 -1.80304e-06 0)
(1.57381e-06 -1.82311e-06 0)
(1.50607e-06 -1.8483e-06 0)
(1.46915e-06 -1.87304e-06 0)
(1.45351e-06 -1.90082e-06 0)
(1.45322e-06 -1.93021e-06 0)
(1.46401e-06 -1.96168e-06 0)
(1.48294e-06 -1.99501e-06 0)
(1.5072e-06 -2.02897e-06 0)
(1.5306e-06 -1.85546e-06 0)
(1.3738e-06 -1.91809e-06 0)
(1.27374e-06 -1.95749e-06 0)
(1.21333e-06 -1.99548e-06 0)
(1.18006e-06 -2.02852e-06 0)
(1.16542e-06 -2.06191e-06 0)
(1.16428e-06 -2.09508e-06 0)
(1.17274e-06 -2.12922e-06 0)
(1.18828e-06 -2.16453e-06 0)
(1.20829e-06 -2.20025e-06 0)
(1.19405e-06 -1.92557e-06 0)
(1.06403e-06 -2.01489e-06 0)
(9.8108e-07 -2.07125e-06 0)
(9.30822e-07 -2.12048e-06 0)
(9.02967e-07 -2.16076e-06 0)
(8.90413e-07 -2.19905e-06 0)
(8.88939e-07 -2.2355e-06 0)
(8.95269e-07 -2.272e-06 0)
(9.07391e-07 -2.30903e-06 0)
(9.23026e-07 -2.34633e-06 0)
(8.54748e-07 -1.97966e-06 0)
(7.57349e-07 -2.09043e-06 0)
(6.95241e-07 -2.16039e-06 0)
(6.5755e-07 -2.2186e-06 0)
(6.36578e-07 -2.26471e-06 0)
(6.26964e-07 -2.30695e-06 0)
(6.25561e-07 -2.34606e-06 0)
(6.29914e-07 -2.38447e-06 0)
(6.38581e-07 -2.42288e-06 0)
(6.49783e-07 -2.46151e-06 0)
(5.13621e-07 -2.01645e-06 0)
(4.5332e-07 -2.14219e-06 0)
(4.14906e-07 -2.22164e-06 0)
(3.91523e-07 -2.28618e-06 0)
(3.78436e-07 -2.33636e-06 0)
(3.72362e-07 -2.38135e-06 0)
(3.71394e-07 -2.42233e-06 0)
(3.7397e-07 -2.46211e-06 0)
(3.79169e-07 -2.50151e-06 0)
(3.8589e-07 -2.54109e-06 0)
(1.71537e-07 -2.03498e-06 0)
(1.51119e-07 -2.16848e-06 0)
(1.38036e-07 -2.25282e-06 0)
(1.30075e-07 -2.3206e-06 0)
(1.25655e-07 -2.37289e-06 0)
(1.23569e-07 -2.41931e-06 0)
(1.23165e-07 -2.46123e-06 0)
(1.23992e-07 -2.5017e-06 0)
(1.25736e-07 -2.54162e-06 0)
(1.27971e-07 -2.58171e-06 0)
(4.87258e-06 -6.05554e-08 0)
(4.91663e-06 -4.35985e-08 0)
(4.94305e-06 -3.28387e-08 0)
(4.97148e-06 -2.65022e-08 0)
(5.00246e-06 -2.29641e-08 0)
(5.04049e-06 -2.13234e-08 0)
(5.08558e-06 -2.09867e-08 0)
(5.13826e-06 -2.14545e-08 0)
(5.1984e-06 -2.25323e-08 0)
(5.26518e-06 -2.38647e-08 0)
(4.83639e-06 -1.81694e-07 0)
(4.8731e-06 -1.31814e-07 0)
(4.89494e-06 -1.00171e-07 0)
(4.92027e-06 -8.16337e-08 0)
(4.94919e-06 -7.14117e-08 0)
(4.98575e-06 -6.66636e-08 0)
(5.02981e-06 -6.56948e-08 0)
(5.08163e-06 -6.72286e-08 0)
(5.14104e-06 -7.05353e-08 0)
(5.20706e-06 -7.44937e-08 0)
(4.76421e-06 -3.03834e-07 0)
(4.78688e-06 -2.23781e-07 0)
(4.79985e-06 -1.73051e-07 0)
(4.81929e-06 -1.43302e-07 0)
(4.84432e-06 -1.26958e-07 0)
(4.87814e-06 -1.19568e-07 0)
(4.92015e-06 -1.18238e-07 0)
(4.97037e-06 -1.20888e-07 0)
(5.02836e-06 -1.26391e-07 0)
(5.09289e-06 -1.33013e-07 0)
(4.65728e-06 -4.27541e-07 0)
(4.65998e-06 -3.21611e-07 0)
(4.66028e-06 -2.54563e-07 0)
(4.67135e-06 -2.15424e-07 0)
(4.69082e-06 -1.94006e-07 0)
(4.72076e-06 -1.84509e-07 0)
(4.75989e-06 -1.83079e-07 0)
(4.8078e-06 -1.86991e-07 0)
(4.8638e-06 -1.94666e-07 0)
(4.92624e-06 -2.03948e-07 0)
(4.51725e-06 -5.53132e-07 0)
(4.4953e-06 -4.27074e-07 0)
(4.47993e-06 -3.47314e-07 0)
(4.48062e-06 -3.01077e-07 0)
(4.49322e-06 -2.75999e-07 0)
(4.5183e-06 -2.65241e-07 0)
(4.55385e-06 -2.64135e-07 0)
(4.59887e-06 -2.69503e-07 0)
(4.6524e-06 -2.79342e-07 0)
(4.71233e-06 -2.91257e-07 0)
(4.34622e-06 -6.80701e-07 0)
(4.29636e-06 -5.41382e-07 0)
(4.26334e-06 -4.53199e-07 0)
(4.25231e-06 -4.02567e-07 0)
(4.2571e-06 -3.7548e-07 0)
(4.27662e-06 -3.64439e-07 0)
(4.30811e-06 -3.64166e-07 0)
(4.34982e-06 -3.71207e-07 0)
(4.4005e-06 -3.83227e-07 0)
(4.45757e-06 -3.9774e-07 0)
(4.14676e-06 -8.09976e-07 0)
(4.0674e-06 -6.65004e-07 0)
(4.0157e-06 -5.73167e-07 0)
(3.99228e-06 -5.21119e-07 0)
(3.9888e-06 -4.93824e-07 0)
(4.00243e-06 -4.83592e-07 0)
(4.02954e-06 -4.84739e-07 0)
(4.06769e-06 -4.93682e-07 0)
(4.11526e-06 -5.07898e-07 0)
(4.16932e-06 -5.24927e-07 0)
(3.92152e-06 -9.40334e-07 0)
(3.81293e-06 -7.97597e-07 0)
(3.74278e-06 -7.07084e-07 0)
(3.70701e-06 -6.56767e-07 0)
(3.69529e-06 -6.31164e-07 0)
(3.70296e-06 -6.22891e-07 0)
(3.72556e-06 -6.26088e-07 0)
(3.76002e-06 -6.3724e-07 0)
(3.80427e-06 -6.53694e-07 0)
(3.8552e-06 -6.73217e-07 0)
(3.67344e-06 -1.0709e-06 0)
(3.53769e-06 -9.38068e-07 0)
(3.45038e-06 -8.53793e-07 0)
(3.40305e-06 -8.08289e-07 0)
(3.38353e-06 -7.86258e-07 0)
(3.38541e-06 -7.81042e-07 0)
(3.40351e-06 -7.86923e-07 0)
(3.43423e-06 -8.0055e-07 0)
(3.47505e-06 -8.19432e-07 0)
(3.5229e-06 -8.41244e-07 0)
(3.40548e-06 -1.20042e-06 0)
(3.24638e-06 -1.08462e-06 0)
(3.14431e-06 -1.01108e-06 0)
(3.08692e-06 -9.73262e-07 0)
(3.06045e-06 -9.5657e-07 0)
(3.05707e-06 -9.55471e-07 0)
(3.07101e-06 -9.64625e-07 0)
(3.09801e-06 -9.8117e-07 0)
(3.13544e-06 -1.00257e-06 0)
(3.17997e-06 -1.02769e-06 0)
(5.33884e-06 -2.51821e-08 0)
(5.41913e-06 -2.54556e-08 0)
(5.50455e-06 -2.57738e-08 0)
(5.59479e-06 -2.59975e-08 0)
(5.68929e-06 -2.61087e-08 0)
(5.78769e-06 -2.60946e-08 0)
(5.88955e-06 -2.5901e-08 0)
(5.99447e-06 -2.5545e-08 0)
(6.10213e-06 -2.50377e-08 0)
(6.21221e-06 -2.43567e-08 0)
(6.32435e-06 -2.34733e-08 0)
(6.43823e-06 -2.23714e-08 0)
(6.55352e-06 -2.10315e-08 0)
(6.66988e-06 -1.94375e-08 0)
(6.787e-06 -1.75671e-08 0)
(6.90444e-06 -1.53862e-08 0)
(7.02197e-06 -1.28457e-08 0)
(7.1388e-06 -9.89259e-09 0)
(7.25509e-06 -6.45606e-09 0)
(7.36896e-06 -2.50757e-09 0)
(5.28328e-06 -7.81396e-08 0)
(5.36823e-06 -7.85925e-08 0)
(5.4578e-06 -7.92383e-08 0)
(5.55167e-06 -7.96593e-08 0)
(5.64941e-06 -7.97307e-08 0)
(5.75065e-06 -7.9466e-08 0)
(5.85507e-06 -7.87708e-08 0)
(5.96232e-06 -7.76431e-08 0)
(6.07211e-06 -7.60306e-08 0)
(6.1841e-06 -7.3874e-08 0)
(6.298e-06 -7.11298e-08 0)
(6.41352e-06 -6.77703e-08 0)
(6.53036e-06 -6.37331e-08 0)
(6.64818e-06 -5.89437e-08 0)
(6.76669e-06 -5.33135e-08 0)
(6.88545e-06 -4.67434e-08 0)
(7.00425e-06 -3.90988e-08 0)
(7.12231e-06 -3.02346e-08 0)
(7.2398e-06 -1.99296e-08 0)
(7.35483e-06 -8.09589e-09 0)
(5.17414e-06 -1.38224e-07 0)
(5.26823e-06 -1.37831e-07 0)
(5.36595e-06 -1.37861e-07 0)
(5.46684e-06 -1.37766e-07 0)
(5.57087e-06 -1.37239e-07 0)
(5.67772e-06 -1.36292e-07 0)
(5.7872e-06 -1.34712e-07 0)
(5.89897e-06 -1.32471e-07 0)
(6.01287e-06 -1.29472e-07 0)
(6.12862e-06 -1.2564e-07 0)
(6.24599e-06 -1.20901e-07 0)
(6.36473e-06 -1.15187e-07 0)
(6.48457e-06 -1.08371e-07 0)
(6.60519e-06 -1.00321e-07 0)
(6.72636e-06 -9.08927e-08 0)
(6.84767e-06 -7.99203e-08 0)
(6.96894e-06 -6.7175e-08 0)
(7.08942e-06 -5.2416e-08 0)
(7.20931e-06 -3.52632e-08 0)
(7.32674e-06 -1.55697e-08 0)
(5.01467e-06 -2.09476e-07 0)
(5.12182e-06 -2.06635e-07 0)
(5.23133e-06 -2.04588e-07 0)
(5.34248e-06 -2.0285e-07 0)
(5.45572e-06 -2.00771e-07 0)
(5.57071e-06 -1.98381e-07 0)
(5.68753e-06 -1.95294e-07 0)
(5.80594e-06 -1.91462e-07 0)
(5.92591e-06 -1.86714e-07 0)
(6.04723e-06 -1.80922e-07 0)
(6.16972e-06 -1.73953e-07 0)
(6.2932e-06 -1.65683e-07 0)
(6.41745e-06 -1.55936e-07 0)
(6.54222e-06 -1.4453e-07 0)
(6.66732e-06 -1.31266e-07 0)
(6.79239e-06 -1.15887e-07 0)
(6.91726e-06 -9.80709e-08 0)
(7.04127e-06 -7.74662e-08 0)
(7.16458e-06 -5.3524e-08 0)
(7.28549e-06 -2.60573e-08 0)
(4.80968e-06 -2.95489e-07 0)
(4.93327e-06 -2.88122e-07 0)
(5.05773e-06 -2.82118e-07 0)
(5.18186e-06 -2.77292e-07 0)
(5.30684e-06 -2.72441e-07 0)
(5.43226e-06 -2.67627e-07 0)
(5.55854e-06 -2.62242e-07 0)
(5.68551e-06 -2.56187e-07 0)
(5.81327e-06 -2.49168e-07 0)
(5.9417e-06 -2.40987e-07 0)
(6.07078e-06 -2.31455e-07 0)
(6.20038e-06 -2.20386e-07 0)
(6.33036e-06 -2.07536e-07 0)
(6.46053e-06 -1.92658e-07 0)
(6.59075e-06 -1.75475e-07 0)
(6.72068e-06 -1.55649e-07 0)
(6.85025e-06 -1.32755e-07 0)
(6.9788e-06 -1.0634e-07 0)
(7.1066e-06 -7.56841e-08 0)
(7.23198e-06 -4.05512e-08 0)
(4.56498e-06 -3.98861e-07 0)
(4.70747e-06 -3.84553e-07 0)
(4.84943e-06 -3.72354e-07 0)
(4.98888e-06 -3.6268e-07 0)
(5.12781e-06 -3.53609e-07 0)
(5.26569e-06 -3.45185e-07 0)
(5.40323e-06 -3.36528e-07 0)
(5.54043e-06 -3.27443e-07 0)
(5.67756e-06 -3.17525e-07 0)
(5.8146e-06 -3.06476e-07 0)
(5.95163e-06 -2.9402e-07 0)
(6.0886e-06 -2.79884e-07 0)
(6.22547e-06 -2.6374e-07 0)
(6.36211e-06 -2.45264e-07 0)
(6.49844e-06 -2.24093e-07 0)
(6.63421e-06 -1.99805e-07 0)
(6.76941e-06 -1.71863e-07 0)
(6.9034e-06 -1.39721e-07 0)
(7.03659e-06 -1.02487e-07 0)
(7.16735e-06 -5.983e-08 0)
(4.28745e-06 -5.21153e-07 0)
(4.45048e-06 -4.97471e-07 0)
(4.61174e-06 -4.76862e-07 0)
(4.76822e-06 -4.6045e-07 0)
(4.92269e-06 -4.45619e-07 0)
(5.0746e-06 -4.32261e-07 0)
(5.2249e-06 -4.19302e-07 0)
(5.37374e-06 -4.06335e-07 0)
(5.52153e-06 -3.9283e-07 0)
(5.66841e-06 -3.78363e-07 0)
(5.81455e-06 -3.62542e-07 0)
(5.95998e-06 -3.44986e-07 0)
(6.10474e-06 -3.25282e-07 0)
(6.24881e-06 -3.03027e-07 0)
(6.39217e-06 -2.77762e-07 0)
(6.53465e-06 -2.48978e-07 0)
(6.67631e-06 -2.16016e-07 0)
(6.81659e-06 -1.78224e-07 0)
(6.95592e-06 -1.34557e-07 0)
(7.09285e-06 -8.45747e-08 0)
(3.98391e-06 -6.62748e-07 0)
(4.16811e-06 -6.26967e-07 0)
(4.34964e-06 -5.95699e-07 0)
(4.52435e-06 -5.70438e-07 0)
(4.69562e-06 -5.48245e-07 0)
(4.8628e-06 -5.2855e-07 0)
(5.02713e-06 -5.10187e-07 0)
(5.18883e-06 -4.92453e-07 0)
(5.34842e-06 -4.74665e-07 0)
(5.50618e-06 -4.5624e-07 0)
(5.66237e-06 -4.36648e-07 0)
(5.81715e-06 -4.15384e-07 0)
(5.97066e-06 -3.91933e-07 0)
(6.12296e-06 -3.65796e-07 0)
(6.27412e-06 -3.36412e-07 0)
(6.42405e-06 -3.03165e-07 0)
(6.57283e-06 -2.65284e-07 0)
(6.72007e-06 -2.21997e-07 0)
(6.8662e-06 -1.72109e-07 0)
(7.00995e-06 -1.15072e-07 0)
(3.66184e-06 -8.23343e-07 0)
(3.86721e-06 -7.73276e-07 0)
(4.06901e-06 -7.29962e-07 0)
(4.26255e-06 -6.9405e-07 0)
(4.45112e-06 -6.6305e-07 0)
(4.63435e-06 -6.35708e-07 0)
(4.81343e-06 -6.1081e-07 0)
(4.98875e-06 -5.87336e-07 0)
(5.16093e-06 -5.64449e-07 0)
(5.33035e-06 -5.41383e-07 0)
(5.49736e-06 -5.17463e-07 0)
(5.66224e-06 -4.92055e-07 0)
(5.82521e-06 -4.64534e-07 0)
(5.98643e-06 -4.34288e-07 0)
(6.14604e-06 -4.00642e-07 0)
(6.30403e-06 -3.62868e-07 0)
(6.46054e-06 -3.20083e-07 0)
(6.61527e-06 -2.71396e-07 0)
(6.76876e-06 -2.15489e-07 0)
(6.91992e-06 -1.51712e-07 0)
(3.32735e-06 -1.00009e-06 0)
(3.55403e-06 -9.32238e-07 0)
(3.77526e-06 -8.7533e-07 0)
(3.98812e-06 -8.2708e-07 0)
(4.19432e-06 -7.85889e-07 0)
(4.39426e-06 -7.49813e-07 0)
(4.58871e-06 -7.17482e-07 0)
(4.7783e-06 -6.87608e-07 0)
(4.96367e-06 -6.59132e-07 0)
(5.14531e-06 -6.31089e-07 0)
(5.32367e-06 -6.02628e-07 0)
(5.49913e-06 -5.72966e-07 0)
(5.672e-06 -5.41344e-07 0)
(5.84254e-06 -5.07029e-07 0)
(6.01096e-06 -4.69227e-07 0)
(6.17733e-06 -4.27095e-07 0)
(6.34189e-06 -3.79653e-07 0)
(6.50446e-06 -3.25872e-07 0)
(6.66562e-06 -2.6433e-07 0)
(6.82457e-06 -1.94233e-07 0)
(3.07972e-06 -1.16934e-06 0)
(3.32024e-06 -1.08716e-06 0)
(3.55287e-06 -1.02012e-06 0)
(3.77753e-06 -9.62031e-07 0)
(3.99484e-06 -9.11861e-07 0)
(4.20539e-06 -8.67611e-07 0)
(4.40986e-06 -8.27832e-07 0)
(4.60887e-06 -7.912e-07 0)
(4.80304e-06 -7.56562e-07 0)
(4.99286e-06 -7.22861e-07 0)
(5.17881e-06 -6.8916e-07 0)
(5.3613e-06 -6.54593e-07 0)
(5.5407e-06 -6.18316e-07 0)
(5.71731e-06 -5.79513e-07 0)
(5.89137e-06 -5.37321e-07 0)
(6.06307e-06 -4.90821e-07 0)
(6.23268e-06 -4.39009e-07 0)
(6.40019e-06 -3.80776e-07 0)
(6.5662e-06 -3.14684e-07 0)
(6.73013e-06 -2.39879e-07 0)
(2.93792e-06 -1.30651e-06 0)
(3.18019e-06 -1.22125e-06 0)
(3.41475e-06 -1.14862e-06 0)
(3.64243e-06 -1.08457e-06 0)
(3.8632e-06 -1.02814e-06 0)
(4.07749e-06 -9.77678e-07 0)
(4.28578e-06 -9.31831e-07 0)
(4.48855e-06 -8.89362e-07 0)
(4.68631e-06 -8.49138e-07 0)
(4.87949e-06 -8.10123e-07 0)
(5.06855e-06 -7.71383e-07 0)
(5.25388e-06 -7.32037e-07 0)
(5.43585e-06 -6.91221e-07 0)
(5.61476e-06 -6.48103e-07 0)
(5.79088e-06 -6.01809e-07 0)
(5.96447e-06 -5.51411e-07 0)
(6.13579e-06 -4.95941e-07 0)
(6.30499e-06 -4.343e-07 0)
(6.47265e-06 -3.65105e-07 0)
(6.63843e-06 -2.87547e-07 0)
(2.81645e-06 -1.43831e-06 0)
(3.05644e-06 -1.35104e-06 0)
(3.29068e-06 -1.27474e-06 0)
(3.51889e-06 -1.20616e-06 0)
(3.74103e-06 -1.14459e-06 0)
(3.95716e-06 -1.08871e-06 0)
(4.16762e-06 -1.03736e-06 0)
(4.37271e-06 -9.89438e-07 0)
(4.57283e-06 -9.43883e-07 0)
(4.76835e-06 -8.99722e-07 0)
(4.95965e-06 -8.56053e-07 0)
(5.1471e-06 -8.12001e-07 0)
(5.33104e-06 -7.66707e-07 0)
(5.51177e-06 -7.19346e-07 0)
(5.68958e-06 -6.69056e-07 0)
(5.86476e-06 -6.14917e-07 0)
(6.0376e-06 -5.56005e-07 0)
(6.20832e-06 -4.91268e-07 0)
(6.37749e-06 -4.19398e-07 0)
(6.54502e-06 -3.39661e-07 0)
(2.70917e-06 -1.56552e-06 0)
(2.94579e-06 -1.47726e-06 0)
(3.17806e-06 -1.39818e-06 0)
(3.40521e-06 -1.32585e-06 0)
(3.62711e-06 -1.25984e-06 0)
(3.84363e-06 -1.19914e-06 0)
(4.05495e-06 -1.1428e-06 0)
(4.26121e-06 -1.08983e-06 0)
(4.46269e-06 -1.03928e-06 0)
(4.65968e-06 -9.90257e-07 0)
(4.8525e-06 -9.41896e-07 0)
(5.04146e-06 -8.93351e-07 0)
(5.22687e-06 -8.43781e-07 0)
(5.40902e-06 -7.92392e-07 0)
(5.5882e-06 -7.38338e-07 0)
(5.76471e-06 -6.80738e-07 0)
(5.93887e-06 -6.18713e-07 0)
(6.11097e-06 -5.51274e-07 0)
(6.28152e-06 -4.77219e-07 0)
(6.45071e-06 -3.95905e-07 0)
(2.61458e-06 -1.68733e-06 0)
(2.84685e-06 -1.59882e-06 0)
(3.07597e-06 -1.51794e-06 0)
(3.30081e-06 -1.4428e-06 0)
(3.52128e-06 -1.37321e-06 0)
(3.73703e-06 -1.30845e-06 0)
(3.9481e-06 -1.24773e-06 0)
(4.15452e-06 -1.19022e-06 0)
(4.35648e-06 -1.1351e-06 0)
(4.55417e-06 -1.08155e-06 0)
(4.74783e-06 -1.02878e-06 0)
(4.93773e-06 -9.7599e-07 0)
(5.12413e-06 -9.22373e-07 0)
(5.3073e-06 -8.67182e-07 0)
(5.48753e-06 -8.09598e-07 0)
(5.66512e-06 -7.48802e-07 0)
(5.8404e-06 -6.83958e-07 0)
(6.01369e-06 -6.14163e-07 0)
(6.18552e-06 -5.38343e-07 0)
(6.35622e-06 -4.55951e-07 0)
(2.53045e-06 -1.80393e-06 0)
(2.75785e-06 -1.71573e-06 0)
(2.98312e-06 -1.63373e-06 0)
(3.20482e-06 -1.55648e-06 0)
(3.42297e-06 -1.48402e-06 0)
(3.63703e-06 -1.41583e-06 0)
(3.84698e-06 -1.3513e-06 0)
(4.05275e-06 -1.28977e-06 0)
(4.25444e-06 -1.23053e-06 0)
(4.45215e-06 -1.17285e-06 0)
(4.64606e-06 -1.11603e-06 0)
(4.83638e-06 -1.05931e-06 0)
(5.02332e-06 -1.00194e-06 0)
(5.20715e-06 -9.43236e-07 0)
(5.38812e-06 -8.82408e-07 0)
(5.56653e-06 -8.1872e-07 0)
(5.74272e-06 -7.51387e-07 0)
(5.91704e-06 -6.79595e-07 0)
(6.09e-06 -6.02415e-07 0)
(6.26202e-06 -5.19382e-07 0)
(2.45509e-06 -1.91545e-06 0)
(2.67736e-06 -1.82796e-06 0)
(2.89828e-06 -1.74537e-06 0)
(3.11631e-06 -1.66663e-06 0)
(3.33148e-06 -1.59193e-06 0)
(3.54317e-06 -1.52092e-06 0)
(3.75133e-06 -1.45315e-06 0)
(3.9558e-06 -1.38813e-06 0)
(4.15659e-06 -1.32523e-06 0)
(4.35375e-06 -1.26385e-06 0)
(4.5474e-06 -1.20334e-06 0)
(4.73768e-06 -1.14303e-06 0)
(4.92478e-06 -1.08223e-06 0)
(5.10892e-06 -1.02032e-06 0)
(5.29035e-06 -9.56545e-07 0)
(5.46936e-06 -8.90265e-07 0)
(5.64626e-06 -8.20755e-07 0)
(5.82143e-06 -7.47301e-07 0)
(5.99538e-06 -6.69112e-07 0)
(6.16852e-06 -5.8579e-07 0)
(2.38692e-06 -2.02215e-06 0)
(2.60399e-06 -1.93563e-06 0)
(2.82028e-06 -1.85287e-06 0)
(3.03429e-06 -1.77312e-06 0)
(3.24604e-06 -1.69669e-06 0)
(3.45488e-06 -1.62338e-06 0)
(3.66074e-06 -1.55291e-06 0)
(3.86339e-06 -1.48487e-06 0)
(4.06279e-06 -1.41878e-06 0)
(4.25894e-06 -1.35411e-06 0)
(4.4519e-06 -1.29032e-06 0)
(4.64176e-06 -1.22679e-06 0)
(4.82868e-06 -1.1629e-06 0)
(5.01286e-06 -1.0981e-06 0)
(5.1945e-06 -1.0317e-06 0)
(5.3739e-06 -9.6314e-07 0)
(5.55135e-06 -8.91767e-07 0)
(5.72723e-06 -8.16966e-07 0)
(5.90199e-06 -7.38072e-07 0)
(6.07609e-06 -6.54758e-07 0)
(2.32453e-06 -2.12436e-06 0)
(2.53642e-06 -2.03895e-06 0)
(2.74798e-06 -1.9563e-06 0)
(2.95777e-06 -1.87592e-06 0)
(3.16581e-06 -1.79821e-06 0)
(3.37149e-06 -1.72306e-06 0)
(3.57469e-06 -1.65036e-06 0)
(3.77516e-06 -1.57978e-06 0)
(3.9728e-06 -1.51094e-06 0)
(4.16758e-06 -1.4434e-06 0)
(4.35951e-06 -1.37672e-06 0)
(4.54866e-06 -1.31033e-06 0)
(4.73514e-06 -1.24371e-06 0)
(4.91912e-06 -1.17636e-06 0)
(5.10079e-06 -1.10765e-06 0)
(5.28041e-06 -1.03711e-06 0)
(5.45824e-06 -9.64172e-07 0)
(5.63469e-06 -8.88301e-07 0)
(5.81009e-06 -8.08956e-07 0)
(5.98505e-06 -7.25898e-07 0)
(2.2667e-06 -2.22239e-06 0)
(2.47348e-06 -2.13817e-06 0)
(2.6803e-06 -2.05584e-06 0)
(2.88579e-06 -1.97512e-06 0)
(3.09001e-06 -1.89647e-06 0)
(3.29235e-06 -1.8199e-06 0)
(3.49267e-06 -1.74537e-06 0)
(3.6907e-06 -1.67267e-06 0)
(3.88633e-06 -1.6015e-06 0)
(4.07947e-06 -1.53151e-06 0)
(4.27014e-06 -1.46232e-06 0)
(4.45834e-06 -1.39345e-06 0)
(4.64417e-06 -1.32444e-06 0)
(4.82776e-06 -1.25487e-06 0)
(5.00927e-06 -1.18417e-06 0)
(5.18896e-06 -1.11195e-06 0)
(5.36704e-06 -1.03771e-06 0)
(5.54389e-06 -9.61014e-07 0)
(5.71982e-06 -8.81439e-07 0)
(5.89546e-06 -7.98834e-07 0)
(2.21228e-06 -2.31661e-06 0)
(2.41411e-06 -2.23358e-06 0)
(2.61628e-06 -2.15169e-06 0)
(2.81751e-06 -2.07085e-06 0)
(3.01787e-06 -1.99156e-06 0)
(3.21678e-06 -1.9139e-06 0)
(3.41409e-06 -1.83792e-06 0)
(3.60954e-06 -1.76348e-06 0)
(3.80298e-06 -1.69035e-06 0)
(3.99432e-06 -1.61829e-06 0)
(4.18354e-06 -1.54697e-06 0)
(4.37062e-06 -1.47598e-06 0)
(4.55565e-06 -1.40492e-06 0)
(4.73871e-06 -1.33345e-06 0)
(4.91994e-06 -1.26106e-06 0)
(5.09956e-06 -1.18743e-06 0)
(5.27777e-06 -1.11215e-06 0)
(5.45489e-06 -1.03484e-06 0)
(5.63126e-06 -9.55217e-07 0)
(5.80739e-06 -8.73192e-07 0)
(2.1603e-06 -2.40733e-06 0)
(2.35738e-06 -2.32545e-06 0)
(2.55502e-06 -2.24408e-06 0)
(2.75208e-06 -2.1633e-06 0)
(2.94862e-06 -2.0836e-06 0)
(3.1441e-06 -2.00513e-06 0)
(3.33835e-06 -1.92801e-06 0)
(3.53114e-06 -1.85217e-06 0)
(3.72231e-06 -1.77746e-06 0)
(3.91176e-06 -1.70367e-06 0)
(4.09944e-06 -1.63057e-06 0)
(4.28532e-06 -1.5578e-06 0)
(4.46944e-06 -1.48502e-06 0)
(4.65188e-06 -1.41195e-06 0)
(4.83275e-06 -1.33815e-06 0)
(5.01222e-06 -1.26336e-06 0)
(5.19044e-06 -1.18725e-06 0)
(5.36775e-06 -1.10952e-06 0)
(5.54444e-06 -1.03e-06 0)
(5.72095e-06 -9.48625e-07 0)
(2.10988e-06 -2.49485e-06 0)
(2.30243e-06 -2.41406e-06 0)
(2.49571e-06 -2.33327e-06 0)
(2.68873e-06 -2.25266e-06 0)
(2.88153e-06 -2.17274e-06 0)
(3.07362e-06 -2.09369e-06 0)
(3.26485e-06 -2.01572e-06 0)
(3.455e-06 -1.93879e-06 0)
(3.64391e-06 -1.8628e-06 0)
(3.83145e-06 -1.78763e-06 0)
(4.01756e-06 -1.71308e-06 0)
(4.2022e-06 -1.63884e-06 0)
(4.38537e-06 -1.56465e-06 0)
(4.56713e-06 -1.49027e-06 0)
(4.74755e-06 -1.41532e-06 0)
(4.92678e-06 -1.33961e-06 0)
(5.10495e-06 -1.26286e-06 0)
(5.28239e-06 -1.18487e-06 0)
(5.45924e-06 -1.10555e-06 0)
(5.63605e-06 -1.02486e-06 0)
(2.06022e-06 -2.57942e-06 0)
(2.24843e-06 -2.49969e-06 0)
(2.43753e-06 -2.41948e-06 0)
(2.62666e-06 -2.33912e-06 0)
(2.81587e-06 -2.25912e-06 0)
(3.0047e-06 -2.17972e-06 0)
(3.19304e-06 -2.10114e-06 0)
(3.38062e-06 -2.0234e-06 0)
(3.56732e-06 -1.94645e-06 0)
(3.75299e-06 -1.87018e-06 0)
(3.93754e-06 -1.79448e-06 0)
(4.12092e-06 -1.71907e-06 0)
(4.30313e-06 -1.64374e-06 0)
(4.48419e-06 -1.5683e-06 0)
(4.66413e-06 -1.49244e-06 0)
(4.84308e-06 -1.416e-06 0)
(5.02115e-06 -1.33878e-06 0)
(5.19862e-06 -1.26066e-06 0)
(5.37558e-06 -1.18159e-06 0)
(5.55257e-06 -1.10164e-06 0)
(2.01044e-06 -2.66134e-06 0)
(2.19453e-06 -2.58255e-06 0)
(2.37967e-06 -2.50294e-06 0)
(2.56512e-06 -2.42292e-06 0)
(2.75094e-06 -2.34298e-06 0)
(2.9367e-06 -2.26341e-06 0)
(3.1223e-06 -2.18444e-06 0)
(3.30745e-06 -2.10613e-06 0)
(3.49205e-06 -2.02846e-06 0)
(3.67595e-06 -1.95138e-06 0)
(3.85903e-06 -1.8748e-06 0)
(4.04124e-06 -1.79849e-06 0)
(4.22253e-06 -1.72228e-06 0)
(4.4029e-06 -1.64602e-06 0)
(4.58237e-06 -1.56945e-06 0)
(4.76103e-06 -1.49245e-06 0)
(4.93898e-06 -1.41491e-06 0)
(5.1164e-06 -1.33674e-06 0)
(5.29346e-06 -1.25798e-06 0)
(5.47053e-06 -1.17873e-06 0)
(1.95975e-06 -2.74078e-06 0)
(2.13992e-06 -2.66296e-06 0)
(2.32129e-06 -2.58389e-06 0)
(2.50335e-06 -2.50425e-06 0)
(2.68603e-06 -2.42452e-06 0)
(2.86897e-06 -2.34493e-06 0)
(3.05204e-06 -2.26577e-06 0)
(3.23499e-06 -2.18711e-06 0)
(3.41767e-06 -2.10897e-06 0)
(3.59993e-06 -2.03132e-06 0)
(3.78166e-06 -1.95411e-06 0)
(3.96277e-06 -1.87714e-06 0)
(4.14321e-06 -1.80028e-06 0)
(4.32294e-06 -1.7234e-06 0)
(4.50196e-06 -1.64628e-06 0)
(4.68036e-06 -1.56888e-06 0)
(4.85817e-06 -1.49113e-06 0)
(5.03553e-06 -1.41297e-06 0)
(5.21262e-06 -1.33454e-06 0)
(5.38973e-06 -1.25595e-06 0)
(1.9073e-06 -2.81808e-06 0)
(2.08368e-06 -2.74095e-06 0)
(2.26148e-06 -2.66257e-06 0)
(2.44056e-06 -2.58348e-06 0)
(2.62039e-06 -2.50403e-06 0)
(2.80084e-06 -2.42458e-06 0)
(2.98166e-06 -2.34539e-06 0)
(3.16267e-06 -2.26657e-06 0)
(3.34367e-06 -2.18815e-06 0)
(3.52451e-06 -2.11015e-06 0)
(3.70507e-06 -2.03252e-06 0)
(3.88524e-06 -1.9551e-06 0)
(4.06493e-06 -1.87776e-06 0)
(4.2441e-06 -1.80044e-06 0)
(4.42274e-06 -1.72295e-06 0)
(4.60091e-06 -1.64527e-06 0)
(4.77858e-06 -1.56736e-06 0)
(4.95592e-06 -1.48924e-06 0)
(5.13295e-06 -1.41112e-06 0)
(5.31007e-06 -1.33312e-06 0)
(1.85188e-06 -2.89315e-06 0)
(2.02501e-06 -2.81682e-06 0)
(2.1999e-06 -2.73928e-06 0)
(2.37612e-06 -2.66076e-06 0)
(2.5535e-06 -2.58172e-06 0)
(2.73177e-06 -2.50253e-06 0)
(2.91069e-06 -2.42347e-06 0)
(3.09006e-06 -2.34467e-06 0)
(3.26968e-06 -2.26618e-06 0)
(3.44937e-06 -2.18801e-06 0)
(3.62897e-06 -2.11014e-06 0)
(3.80835e-06 -2.03244e-06 0)
(3.98744e-06 -1.95481e-06 0)
(4.16618e-06 -1.87719e-06 0)
(4.34453e-06 -1.79944e-06 0)
(4.52249e-06 -1.72157e-06 0)
(4.70005e-06 -1.64355e-06 0)
(4.87739e-06 -1.56548e-06 0)
(5.05444e-06 -1.48763e-06 0)
(5.23148e-06 -1.41017e-06 0)
(1.79271e-06 -2.96679e-06 0)
(1.96288e-06 -2.89138e-06 0)
(2.13513e-06 -2.81451e-06 0)
(2.30903e-06 -2.7366e-06 0)
(2.48442e-06 -2.65806e-06 0)
(2.66098e-06 -2.57925e-06 0)
(2.83847e-06 -2.50044e-06 0)
(3.01665e-06 -2.42179e-06 0)
(3.19526e-06 -2.34336e-06 0)
(3.37411e-06 -2.26516e-06 0)
(3.55302e-06 -2.18719e-06 0)
(3.73186e-06 -2.10933e-06 0)
(3.91053e-06 -2.03153e-06 0)
(4.08894e-06 -1.95375e-06 0)
(4.26706e-06 -1.87581e-06 0)
(4.4449e-06 -1.79777e-06 0)
(4.62246e-06 -1.7197e-06 0)
(4.79977e-06 -1.64166e-06 0)
(4.97687e-06 -1.56395e-06 0)
(5.1539e-06 -1.48692e-06 0)
(1.72908e-06 -3.03843e-06 0)
(1.89668e-06 -2.96405e-06 0)
(2.06674e-06 -2.88812e-06 0)
(2.23886e-06 -2.811e-06 0)
(2.41279e-06 -2.73312e-06 0)
(2.5882e-06 -2.65484e-06 0)
(2.76479e-06 -2.57645e-06 0)
(2.94224e-06 -2.4981e-06 0)
(3.12028e-06 -2.41983e-06 0)
(3.29867e-06 -2.3417e-06 0)
(3.47722e-06 -2.26376e-06 0)
(3.65574e-06 -2.18589e-06 0)
(3.83414e-06 -2.10798e-06 0)
(4.01236e-06 -2.03008e-06 0)
(4.19031e-06 -1.95207e-06 0)
(4.36807e-06 -1.87393e-06 0)
(4.54566e-06 -1.79579e-06 0)
(4.72303e-06 -1.71771e-06 0)
(4.9003e-06 -1.64006e-06 0)
(5.0774e-06 -1.56327e-06 0)
(1.27487e-07 -2.62279e-06 0)
(3.84223e-07 -2.58409e-06 0)
(6.46221e-07 -2.5082e-06 0)
(9.16491e-07 -2.39821e-06 0)
(1.19741e-06 -2.25834e-06 0)
(1.49048e-06 -2.09382e-06 0)
(1.79627e-06 -1.91069e-06 0)
(2.11423e-06 -1.71522e-06 0)
(2.44328e-06 -1.51378e-06 0)
(2.78082e-06 -1.31142e-06 0)
(1.23874e-07 -2.66545e-06 0)
(3.73129e-07 -2.63007e-06 0)
(6.26752e-07 -2.56067e-06 0)
(8.87301e-07 -2.45985e-06 0)
(1.15679e-06 -2.33121e-06 0)
(1.43649e-06 -2.17919e-06 0)
(1.72695e-06 -2.00892e-06 0)
(2.02754e-06 -1.82586e-06 0)
(2.33693e-06 -1.63574e-06 0)
(2.65291e-06 -1.44296e-06 0)
(1.20678e-07 -2.7091e-06 0)
(3.63293e-07 -2.67675e-06 0)
(6.09479e-07 -2.61322e-06 0)
(8.61274e-07 -2.52076e-06 0)
(1.1204e-06 -2.40252e-06 0)
(1.38789e-06 -2.26234e-06 0)
(1.66433e-06 -2.10461e-06 0)
(1.94944e-06 -1.93393e-06 0)
(2.24229e-06 -1.75525e-06 0)
(2.54136e-06 -1.57155e-06 0)
(1.17848e-07 -2.75385e-06 0)
(3.5457e-07 -2.72406e-06 0)
(5.94311e-07 -2.66554e-06 0)
(8.38655e-07 -2.58025e-06 0)
(1.08909e-06 -2.47097e-06 0)
(1.34642e-06 -2.34104e-06 0)
(1.61109e-06 -2.19436e-06 0)
(1.88284e-06 -2.035e-06 0)
(2.16087e-06 -1.86752e-06 0)
(2.4439e-06 -1.69436e-06 0)
(1.15257e-07 -2.79966e-06 0)
(3.46561e-07 -2.77217e-06 0)
(5.80398e-07 -2.71815e-06 0)
(8.18015e-07 -2.63932e-06 0)
(1.06067e-06 -2.53814e-06 0)
(1.30902e-06 -2.41761e-06 0)
(1.56347e-06 -2.28118e-06 0)
(1.82378e-06 -2.13229e-06 0)
(2.0894e-06 -1.97512e-06 0)
(2.3587e-06 -1.81186e-06 0)
(1.12829e-07 -2.84648e-06 0)
(3.39163e-07 -2.82099e-06 0)
(5.67604e-07 -2.77087e-06 0)
(7.99205e-07 -2.69769e-06 0)
(1.035e-06 -2.60362e-06 0)
(1.27552e-06 -2.49141e-06 0)
(1.52104e-06 -2.36417e-06 0)
(1.77131e-06 -2.22493e-06 0)
(2.02605e-06 -2.07749e-06 0)
(2.28339e-06 -1.924e-06 0)
(1.10508e-07 -2.89426e-06 0)
(3.32126e-07 -2.87055e-06 0)
(5.55506e-07 -2.82391e-06 0)
(7.81567e-07 -2.75579e-06 0)
(1.01111e-06 -2.66812e-06 0)
(1.24463e-06 -2.56341e-06 0)
(1.48234e-06 -2.44447e-06 0)
(1.72388e-06 -2.31403e-06 0)
(1.96923e-06 -2.17545e-06 0)
(2.21628e-06 -2.03107e-06 0)
(1.08301e-07 -2.94288e-06 0)
(3.25374e-07 -2.92076e-06 0)
(5.43963e-07 -2.87719e-06 0)
(7.64857e-07 -2.81355e-06 0)
(9.88695e-07 -2.73159e-06 0)
(1.21587e-06 -2.63357e-06 0)
(1.4466e-06 -2.52213e-06 0)
(1.68043e-06 -2.39971e-06 0)
(1.91755e-06 -2.26933e-06 0)
(2.15573e-06 -2.13341e-06 0)
(1.06139e-07 -2.99229e-06 0)
(3.18772e-07 -2.97157e-06 0)
(5.3275e-07 -2.93077e-06 0)
(7.48719e-07 -2.87115e-06 0)
(9.67234e-07 -2.79431e-06 0)
(1.18862e-06 -2.70232e-06 0)
(1.41303e-06 -2.59763e-06 0)
(1.64003e-06 -2.48251e-06 0)
(1.86988e-06 -2.35959e-06 0)
(2.10036e-06 -2.23142e-06 0)
(1.03967e-07 -3.04235e-06 0)
(3.12242e-07 -3.0229e-06 0)
(5.21717e-07 -2.98457e-06 0)
(7.32942e-07 -2.92854e-06 0)
(9.46401e-07 -2.85631e-06 0)
(1.16239e-06 -2.76977e-06 0)
(1.38103e-06 -2.67117e-06 0)
(1.60186e-06 -2.56267e-06 0)
(1.8252e-06 -2.44659e-06 0)
(2.04894e-06 -2.32548e-06 0)
(1.01775e-07 -3.09295e-06 0)
(3.05713e-07 -3.07467e-06 0)
(5.10702e-07 -3.03857e-06 0)
(7.17291e-07 -2.98578e-06 0)
(9.25877e-07 -2.91771e-06 0)
(1.13676e-06 -2.83608e-06 0)
(1.35003e-06 -2.743e-06 0)
(1.56522e-06 -2.6405e-06 0)
(1.78268e-06 -2.53066e-06 0)
(2.00042e-06 -2.41598e-06 0)
(9.95701e-08 -3.14398e-06 0)
(2.99113e-07 -3.12676e-06 0)
(4.99576e-07 -3.09267e-06 0)
(7.01566e-07 -3.04281e-06 0)
(9.05393e-07 -2.97851e-06 0)
(1.11135e-06 -2.90135e-06 0)
(1.31953e-06 -2.81327e-06 0)
(1.52949e-06 -2.71623e-06 0)
(1.74154e-06 -2.61207e-06 0)
(1.95391e-06 -2.50325e-06 0)
(9.73214e-08 -3.19533e-06 0)
(2.92335e-07 -3.17906e-06 0)
(4.88188e-07 -3.14681e-06 0)
(6.85538e-07 -3.09962e-06 0)
(8.84648e-07 -3.03874e-06 0)
(1.08578e-06 -2.96565e-06 0)
(1.28907e-06 -2.88214e-06 0)
(1.49409e-06 -2.79006e-06 0)
(1.70112e-06 -2.69109e-06 0)
(1.90861e-06 -2.58758e-06 0)
(9.49788e-08 -3.24681e-06 0)
(2.85272e-07 -3.23139e-06 0)
(4.76385e-07 -3.20084e-06 0)
(6.68984e-07 -3.1561e-06 0)
(8.63336e-07 -3.09835e-06 0)
(1.05968e-06 -3.02898e-06 0)
(1.25818e-06 -2.94965e-06 0)
(1.45845e-06 -2.86211e-06 0)
(1.66075e-06 -2.7679e-06 0)
(1.86371e-06 -2.66923e-06 0)
(9.24997e-08 -3.29829e-06 0)
(2.7783e-07 -3.28365e-06 0)
(4.64009e-07 -3.25467e-06 0)
(6.51682e-07 -3.21219e-06 0)
(8.41155e-07 -3.15733e-06 0)
(1.03266e-06 -3.0914e-06 0)
(1.22638e-06 -3.01591e-06 0)
(1.42201e-06 -2.93254e-06 0)
(1.61975e-06 -2.84271e-06 0)
(1.81841e-06 -2.74847e-06 0)
(8.98603e-08 -3.34949e-06 0)
(2.69935e-07 -3.33557e-06 0)
(4.50911e-07 -3.30807e-06 0)
(6.33408e-07 -3.2677e-06 0)
(8.17796e-07 -3.21553e-06 0)
(1.00432e-06 -3.15277e-06 0)
(1.19319e-06 -3.08087e-06 0)
(1.3842e-06 -3.00136e-06 0)
(1.57743e-06 -2.91558e-06 0)
(1.77196e-06 -2.8254e-06 0)
(8.70347e-08 -3.40034e-06 0)
(2.61481e-07 -3.38711e-06 0)
(4.36887e-07 -3.36099e-06 0)
(6.13875e-07 -3.32261e-06 0)
(7.9289e-07 -3.27297e-06 0)
(9.74207e-07 -3.2132e-06 0)
(1.15807e-06 -3.14466e-06 0)
(1.34432e-06 -3.06877e-06 0)
(1.53305e-06 -2.98676e-06 0)
(1.72345e-06 -2.90038e-06 0)
(8.39821e-08 -3.4503e-06 0)
(2.52334e-07 -3.43773e-06 0)
(4.21716e-07 -3.41292e-06 0)
(5.92775e-07 -3.37644e-06 0)
(7.66032e-07 -3.32922e-06 0)
(9.41819e-07 -3.27231e-06 0)
(1.12041e-06 -3.20696e-06 0)
(1.30168e-06 -3.1345e-06 0)
(1.48578e-06 -3.05607e-06 0)
(1.67203e-06 -2.97328e-06 0)
(8.06317e-08 -3.4996e-06 0)
(2.42289e-07 -3.48767e-06 0)
(4.05067e-07 -3.46413e-06 0)
(5.69669e-07 -3.4295e-06 0)
(7.36671e-07 -3.38463e-06 0)
(9.06479e-07 -3.33048e-06 0)
(1.0794e-06 -3.2682e-06 0)
(1.25542e-06 -3.19905e-06 0)
(1.43464e-06 -3.12406e-06 0)
(1.61663e-06 -3.04472e-06 0)
(7.69509e-08 -3.5468e-06 0)
(2.31268e-07 -3.53551e-06 0)
(3.86807e-07 -3.51323e-06 0)
(5.44334e-07 -3.48044e-06 0)
(7.04513e-07 -3.43791e-06 0)
(8.67822e-07 -3.38653e-06 0)
(1.03461e-06 -3.32733e-06 0)
(1.20504e-06 -3.26146e-06 0)
(1.37912e-06 -3.18993e-06 0)
(1.55667e-06 -3.11406e-06 0)
)


// ************************************************************************* //
