/*--------------------------------*- C++ -*----------------------------------*\
| =========                 |                                                 |
| \\      /  F ield         | foam-extend: Open Source CFD                    |
|  \\    /   O peration     | Version:     4.1                                |
|   \\  /    A nd           | Web:         http://www.foam-extend.org         |
|    \\/     M anipulation  |                                                 |
\*---------------------------------------------------------------------------*/
FoamFile
{
    version     2.0;
    format      ascii;
    class       vectorField;
    location    "6";
    object      solidsCellD_iteration6;
}
// * * * * * * * * * * * * * * * * * * * * * * * * * * * * * * * * * * * * * //


1000
(
(3.05068e-06 -1.25699e-06 0)
(2.88306e-06 -1.17222e-06 0)
(2.77676e-06 -1.11948e-06 0)
(2.7166e-06 -1.09612e-06 0)
(2.68829e-06 -1.08963e-06 0)
(2.68329e-06 -1.09616e-06 0)
(2.69542e-06 -1.11123e-06 0)
(2.7204e-06 -1.13275e-06 0)
(2.75504e-06 -1.15856e-06 0)
(2.79609e-06 -1.1878e-06 0)
(2.75915e-06 -1.37306e-06 0)
(2.58054e-06 -1.31506e-06 0)
(2.46719e-06 -1.27934e-06 0)
(2.40181e-06 -1.2676e-06 0)
(2.36933e-06 -1.26888e-06 0)
(2.3604e-06 -1.28094e-06 0)
(2.36869e-06 -1.29999e-06 0)
(2.38962e-06 -1.32444e-06 0)
(2.41987e-06 -1.35262e-06 0)
(2.45623e-06 -1.38326e-06 0)
(2.45595e-06 -1.48304e-06 0)
(2.2734e-06 -1.45496e-06 0)
(2.15756e-06 -1.43819e-06 0)
(2.08978e-06 -1.4392e-06 0)
(2.05493e-06 -1.44882e-06 0)
(2.04327e-06 -1.46666e-06 0)
(2.04844e-06 -1.48973e-06 0)
(2.06591e-06 -1.51697e-06 0)
(2.09231e-06 -1.54729e-06 0)
(2.12468e-06 -1.57926e-06 0)
(2.14345e-06 -1.58499e-06 0)
(1.96464e-06 -1.58826e-06 0)
(1.85115e-06 -1.59133e-06 0)
(1.78403e-06 -1.60558e-06 0)
(1.74868e-06 -1.62385e-06 0)
(1.7355e-06 -1.64757e-06 0)
(1.73829e-06 -1.67462e-06 0)
(1.7527e-06 -1.70462e-06 0)
(1.77554e-06 -1.73701e-06 0)
(1.80393e-06 -1.77043e-06 0)
(1.82378e-06 -1.67691e-06 0)
(1.65634e-06 -1.71122e-06 0)
(1.55003e-06 -1.73396e-06 0)
(1.48672e-06 -1.76128e-06 0)
(1.45285e-06 -1.78799e-06 0)
(1.43928e-06 -1.81745e-06 0)
(1.44037e-06 -1.84835e-06 0)
(1.45199e-06 -1.88103e-06 0)
(1.47139e-06 -1.9154e-06 0)
(1.49572e-06 -1.95037e-06 0)
(1.49851e-06 -1.75691e-06 0)
(1.34982e-06 -1.82025e-06 0)
(1.25545e-06 -1.86138e-06 0)
(1.19894e-06 -1.90091e-06 0)
(1.16833e-06 -1.93552e-06 0)
(1.15545e-06 -1.97031e-06 0)
(1.15546e-06 -2.00474e-06 0)
(1.16463e-06 -2.03993e-06 0)
(1.18059e-06 -2.07612e-06 0)
(1.2007e-06 -2.11263e-06 0)
(1.16922e-06 -1.82321e-06 0)
(1.04592e-06 -1.91198e-06 0)
(9.67662e-07 -1.96925e-06 0)
(9.20592e-07 -2.01946e-06 0)
(8.94883e-07 -2.06095e-06 0)
(8.83748e-07 -2.1004e-06 0)
(8.83211e-07 -2.13793e-06 0)
(8.90117e-07 -2.17533e-06 0)
(9.0258e-07 -2.21311e-06 0)
(9.18328e-07 -2.25106e-06 0)
(8.37086e-07 -1.87434e-06 0)
(7.44704e-07 -1.98353e-06 0)
(6.86099e-07 -2.05374e-06 0)
(6.50794e-07 -2.11249e-06 0)
(6.31388e-07 -2.15952e-06 0)
(6.22812e-07 -2.20272e-06 0)
(6.22104e-07 -2.24275e-06 0)
(6.269e-07 -2.28194e-06 0)
(6.3583e-07 -2.32099e-06 0)
(6.47122e-07 -2.36012e-06 0)
(5.03058e-07 -1.90908e-06 0)
(4.45877e-07 -2.03255e-06 0)
(4.0961e-07 -2.1118e-06 0)
(3.87672e-07 -2.17657e-06 0)
(3.75546e-07 -2.22749e-06 0)
(3.70136e-07 -2.27328e-06 0)
(3.69604e-07 -2.31506e-06 0)
(3.72432e-07 -2.35555e-06 0)
(3.77778e-07 -2.39554e-06 0)
(3.8456e-07 -2.43554e-06 0)
(1.68014e-07 -1.92659e-06 0)
(1.48624e-07 -2.05742e-06 0)
(1.36287e-07 -2.14135e-06 0)
(1.28842e-07 -2.2092e-06 0)
(1.24739e-07 -2.26211e-06 0)
(1.22858e-07 -2.30926e-06 0)
(1.2261e-07 -2.35193e-06 0)
(1.23534e-07 -2.39307e-06 0)
(1.25321e-07 -2.43353e-06 0)
(1.27572e-07 -2.47398e-06 0)
(4.75257e-06 -5.73607e-08 0)
(4.79488e-06 -4.14428e-08 0)
(4.82145e-06 -3.13975e-08 0)
(4.85054e-06 -2.55397e-08 0)
(4.88258e-06 -2.23416e-08 0)
(4.92178e-06 -2.09373e-08 0)
(4.96804e-06 -2.07257e-08 0)
(5.02175e-06 -2.1291e-08 0)
(5.08281e-06 -2.24583e-08 0)
(5.15041e-06 -2.38374e-08 0)
(4.71759e-06 -1.72081e-07 0)
(4.7529e-06 -1.25263e-07 0)
(4.7751e-06 -9.57759e-08 0)
(4.80124e-06 -7.86629e-08 0)
(4.83134e-06 -6.93704e-08 0)
(4.86913e-06 -6.52919e-08 0)
(4.91441e-06 -6.47806e-08 0)
(4.96733e-06 -6.66142e-08 0)
(5.02768e-06 -7.0115e-08 0)
(5.09456e-06 -7.42127e-08 0)
(4.64764e-06 -2.87767e-07 0)
(4.66963e-06 -2.12642e-07 0)
(4.68342e-06 -1.65372e-07 0)
(4.70398e-06 -1.37951e-07 0)
(4.7304e-06 -1.23173e-07 0)
(4.76561e-06 -1.16862e-07 0)
(4.80895e-06 -1.16246e-07 0)
(4.86029e-06 -1.1939e-07 0)
(4.91931e-06 -1.25208e-07 0)
(4.9848e-06 -1.32058e-07 0)
(4.54398e-06 -4.04918e-07 0)
(4.54707e-06 -3.0557e-07 0)
(4.54884e-06 -2.43146e-07 0)
(4.56149e-06 -2.07106e-07 0)
(4.58262e-06 -1.8779e-07 0)
(4.61408e-06 -1.79759e-07 0)
(4.65469e-06 -1.79294e-07 0)
(4.70387e-06 -1.83898e-07 0)
(4.76102e-06 -1.92061e-07 0)
(4.82459e-06 -2.01677e-07 0)
(4.40818e-06 -5.2386e-07 0)
(4.38793e-06 -4.05748e-07 0)
(4.37486e-06 -3.31577e-07 0)
(4.37764e-06 -2.89084e-07 0)
(4.39226e-06 -2.66537e-07 0)
(4.41911e-06 -2.57559e-07 0)
(4.45631e-06 -2.57674e-07 0)
(4.50274e-06 -2.63927e-07 0)
(4.55755e-06 -2.74421e-07 0)
(4.6188e-06 -2.86767e-07 0)
(4.24228e-06 -6.44648e-07 0)
(4.19557e-06 -5.14272e-07 0)
(4.16574e-06 -4.32404e-07 0)
(4.1574e-06 -3.86018e-07 0)
(4.16462e-06 -3.61826e-07 0)
(4.1862e-06 -3.5284e-07 0)
(4.21954e-06 -3.54002e-07 0)
(4.26284e-06 -3.62076e-07 0)
(4.31496e-06 -3.74874e-07 0)
(4.37364e-06 -3.89917e-07 0)
(4.0487e-06 -7.67054e-07 0)
(3.97401e-06 -6.31593e-07 0)
(3.92649e-06 -5.46551e-07 0)
(3.90639e-06 -4.99118e-07 0)
(3.90575e-06 -4.75e-07 0)
(3.92173e-06 -4.67021e-07 0)
(3.95091e-06 -4.69756e-07 0)
(3.99083e-06 -4.79868e-07 0)
(4.04001e-06 -4.95004e-07 0)
(4.09601e-06 -5.12691e-07 0)
(3.82996e-06 -8.90501e-07 0)
(3.72754e-06 -7.57427e-07 0)
(3.66246e-06 -6.7392e-07 0)
(3.63064e-06 -6.28386e-07 0)
(3.62213e-06 -6.06133e-07 0)
(3.63243e-06 -6.00236e-07 0)
(3.65732e-06 -6.05112e-07 0)
(3.69377e-06 -6.17533e-07 0)
(3.73986e-06 -6.35035e-07 0)
(3.79312e-06 -6.55335e-07 0)
(3.58885e-06 -1.01414e-06 0)
(3.46064e-06 -8.90743e-07 0)
(3.37929e-06 -8.13411e-07 0)
(3.33647e-06 -7.72686e-07 0)
(3.32052e-06 -7.54091e-07 0)
(3.3253e-06 -7.51346e-07 0)
(3.34588e-06 -7.5899e-07 0)
(3.37877e-06 -7.73969e-07 0)
(3.42152e-06 -7.93973e-07 0)
(3.47194e-06 -8.16682e-07 0)
(3.32819e-06 -1.13678e-06 0)
(3.17777e-06 -1.02979e-06 0)
(3.08236e-06 -9.62915e-07 0)
(3.0299e-06 -9.29738e-07 0)
(3.00724e-06 -9.16484e-07 0)
(3.00689e-06 -9.17935e-07 0)
(3.02335e-06 -9.28998e-07 0)
(3.05271e-06 -9.47067e-07 0)
(3.09223e-06 -9.6984e-07 0)
(3.13937e-06 -9.95975e-07 0)
(5.22458e-06 -2.51769e-08 0)
(5.30539e-06 -2.55329e-08 0)
(5.39126e-06 -2.59197e-08 0)
(5.48188e-06 -2.62014e-08 0)
(5.57669e-06 -2.63546e-08 0)
(5.67537e-06 -2.63746e-08 0)
(5.77749e-06 -2.62363e-08 0)
(5.88264e-06 -2.59592e-08 0)
(5.99048e-06 -2.55368e-08 0)
(6.10073e-06 -2.49375e-08 0)
(6.21307e-06 -2.41338e-08 0)
(6.32713e-06 -2.31187e-08 0)
(6.44264e-06 -2.18877e-08 0)
(6.55926e-06 -2.04299e-08 0)
(6.67671e-06 -1.87167e-08 0)
(6.79456e-06 -1.67073e-08 0)
(6.9126e-06 -1.4353e-08 0)
(7.0301e-06 -1.16063e-08 0)
(7.1472e-06 -8.40456e-09 0)
(7.26212e-06 -4.7324e-09 0)
(5.17121e-06 -7.79844e-08 0)
(5.25646e-06 -7.87271e-08 0)
(5.3463e-06 -7.95765e-08 0)
(5.44039e-06 -8.0162e-08 0)
(5.53834e-06 -8.03896e-08 0)
(5.63976e-06 -8.02746e-08 0)
(5.74435e-06 -7.97511e-08 0)
(5.85174e-06 -7.88237e-08 0)
(5.96166e-06 -7.74267e-08 0)
(6.07379e-06 -7.5502e-08 0)
(6.18785e-06 -7.30138e-08 0)
(6.30353e-06 -6.99439e-08 0)
(6.42056e-06 -6.6246e-08 0)
(6.53862e-06 -6.18528e-08 0)
(6.65741e-06 -5.66734e-08 0)
(6.77653e-06 -5.06101e-08 0)
(6.89579e-06 -4.35351e-08 0)
(7.01447e-06 -3.53155e-08 0)
(7.13273e-06 -2.57552e-08 0)
(7.24882e-06 -1.4779e-08 0)
(5.06624e-06 -1.37527e-07 0)
(5.16023e-06 -1.37668e-07 0)
(5.25793e-06 -1.38072e-07 0)
(5.35879e-06 -1.38278e-07 0)
(5.4628e-06 -1.3804e-07 0)
(5.56965e-06 -1.37377e-07 0)
(5.67915e-06 -1.36118e-07 0)
(5.79097e-06 -1.34237e-07 0)
(5.90489e-06 -1.31611e-07 0)
(6.0207e-06 -1.28175e-07 0)
(6.13816e-06 -1.23876e-07 0)
(6.25702e-06 -1.1866e-07 0)
(6.37702e-06 -1.12417e-07 0)
(6.49785e-06 -1.05018e-07 0)
(6.61927e-06 -9.63185e-08 0)
(6.74093e-06 -8.61668e-08 0)
(6.86264e-06 -7.43539e-08 0)
(6.98369e-06 -6.067e-08 0)
(7.10427e-06 -4.47883e-08 0)
(7.22265e-06 -2.65573e-08 0)
(4.91288e-06 -2.07631e-07 0)
(5.01936e-06 -2.05604e-07 0)
(5.12837e-06 -2.04147e-07 0)
(5.23911e-06 -2.02917e-07 0)
(5.35202e-06 -2.01341e-07 0)
(5.46676e-06 -1.99438e-07 0)
(5.58339e-06 -1.96869e-07 0)
(5.70165e-06 -1.93574e-07 0)
(5.82152e-06 -1.89365e-07 0)
(5.94279e-06 -1.84153e-07 0)
(6.06528e-06 -1.77835e-07 0)
(6.18879e-06 -1.70292e-07 0)
(6.31312e-06 -1.61351e-07 0)
(6.43803e-06 -1.50841e-07 0)
(6.56332e-06 -1.38577e-07 0)
(6.68868e-06 -1.24324e-07 0)
(6.81395e-06 -1.07784e-07 0)
(6.93847e-06 -8.86597e-08 0)
(7.06243e-06 -6.64812e-08 0)
(7.18417e-06 -4.10471e-08 0)
(4.71563e-06 -2.91668e-07 0)
(4.83785e-06 -2.85491e-07 0)
(4.96129e-06 -2.80392e-07 0)
(5.08455e-06 -2.76369e-07 0)
(5.2088e-06 -2.72299e-07 0)
(5.33364e-06 -2.68211e-07 0)
(5.45948e-06 -2.63569e-07 0)
(5.58609e-06 -2.58266e-07 0)
(5.71358e-06 -2.52004e-07 0)
(5.84185e-06 -2.44631e-07 0)
(5.97081e-06 -2.35976e-07 0)
(6.10034e-06 -2.25855e-07 0)
(6.2303e-06 -2.14036e-07 0)
(6.36052e-06 -2.00296e-07 0)
(6.49086e-06 -1.84385e-07 0)
(6.62099e-06 -1.65987e-07 0)
(6.75088e-06 -1.44715e-07 0)
(6.87982e-06 -1.20182e-07 0)
(7.00818e-06 -9.17661e-08 0)
(7.13427e-06 -5.92098e-08 0)
(4.48014e-06 -3.92061e-07 0)
(4.62047e-06 -3.79449e-07 0)
(4.76077e-06 -3.68587e-07 0)
(4.89881e-06 -3.60097e-07 0)
(5.03657e-06 -3.52163e-07 0)
(5.17351e-06 -3.44784e-07 0)
(5.31033e-06 -3.37181e-07 0)
(5.44694e-06 -3.29118e-07 0)
(5.58358e-06 -3.20206e-07 0)
(5.72025e-06 -3.10207e-07 0)
(5.857e-06 -2.98865e-07 0)
(5.99378e-06 -2.85907e-07 0)
(6.13052e-06 -2.71028e-07 0)
(6.2671e-06 -2.53939e-07 0)
(6.40348e-06 -2.34301e-07 0)
(6.53935e-06 -2.11723e-07 0)
(6.67477e-06 -1.85733e-07 0)
(6.80908e-06 -1.55853e-07 0)
(6.9427e-06 -1.21308e-07 0)
(7.07405e-06 -8.17447e-08 0)
(4.21287e-06 -5.10365e-07 0)
(4.37298e-06 -4.88949e-07 0)
(4.53197e-06 -4.70191e-07 0)
(4.68651e-06 -4.55453e-07 0)
(4.83938e-06 -4.4221e-07 0)
(4.98997e-06 -4.30302e-07 0)
(5.1392e-06 -4.18749e-07 0)
(5.28715e-06 -4.07118e-07 0)
(5.43423e-06 -3.94914e-07 0)
(5.58053e-06 -3.81773e-07 0)
(5.7262e-06 -3.67327e-07 0)
(5.87127e-06 -3.512e-07 0)
(6.01576e-06 -3.33005e-07 0)
(6.15964e-06 -3.1238e-07 0)
(6.30291e-06 -2.88899e-07 0)
(6.44538e-06 -2.62096e-07 0)
(6.58715e-06 -2.31405e-07 0)
(6.72763e-06 -1.9624e-07 0)
(6.86729e-06 -1.55665e-07 0)
(7.00464e-06 -1.09232e-07 0)
(3.92039e-06 -6.46896e-07 0)
(4.10102e-06 -6.14113e-07 0)
(4.27968e-06 -5.85362e-07 0)
(4.45198e-06 -5.6238e-07 0)
(4.62117e-06 -5.42269e-07 0)
(4.78669e-06 -5.24481e-07 0)
(4.9496e-06 -5.07908e-07 0)
(5.1101e-06 -4.91857e-07 0)
(5.2687e-06 -4.75699e-07 0)
(5.42564e-06 -4.58896e-07 0)
(5.58115e-06 -4.40948e-07 0)
(5.73536e-06 -4.21362e-07 0)
(5.88839e-06 -3.99663e-07 0)
(6.04033e-06 -3.75401e-07 0)
(6.19124e-06 -3.48054e-07 0)
(6.34102e-06 -3.1707e-07 0)
(6.48981e-06 -2.81764e-07 0)
(6.63709e-06 -2.41436e-07 0)
(6.7834e-06 -1.94991e-07 0)
(6.9274e-06 -1.41881e-07 0)
(3.60957e-06 -8.01449e-07 0)
(3.81106e-06 -7.55036e-07 0)
(4.00963e-06 -7.14884e-07 0)
(4.20043e-06 -6.81919e-07 0)
(4.3866e-06 -6.53607e-07 0)
(4.56782e-06 -6.28728e-07 0)
(4.74513e-06 -6.0609e-07 0)
(4.91895e-06 -5.84723e-07 0)
(5.08982e-06 -5.63836e-07 0)
(5.25811e-06 -5.42717e-07 0)
(5.42415e-06 -5.20726e-07 0)
(5.58818e-06 -4.97258e-07 0)
(5.75042e-06 -4.71745e-07 0)
(5.91106e-06 -4.43633e-07 0)
(6.0702e-06 -4.1229e-07 0)
(6.22784e-06 -3.77066e-07 0)
(6.38416e-06 -3.37151e-07 0)
(6.53877e-06 -2.91727e-07 0)
(6.69224e-06 -2.39559e-07 0)
(6.84344e-06 -1.80015e-07 0)
(3.28633e-06 -9.71618e-07 0)
(3.50934e-06 -9.08215e-07 0)
(3.72732e-06 -8.55265e-07 0)
(3.93723e-06 -8.10662e-07 0)
(4.14081e-06 -7.72709e-07 0)
(4.33839e-06 -7.39571e-07 0)
(4.53074e-06 -7.09918e-07 0)
(4.71845e-06 -6.82529e-07 0)
(4.90214e-06 -6.56391e-07 0)
(5.08228e-06 -6.30597e-07 0)
(5.25931e-06 -6.04341e-07 0)
(5.43357e-06 -5.7688e-07 0)
(5.6054e-06 -5.47522e-07 0)
(5.77505e-06 -5.15596e-07 0)
(5.9427e-06 -4.80357e-07 0)
(6.10845e-06 -4.41051e-07 0)
(6.27253e-06 -3.96745e-07 0)
(6.4347e-06 -3.46503e-07 0)
(6.59559e-06 -2.88954e-07 0)
(6.75433e-06 -2.23349e-07 0)
(3.04394e-06 -1.13688e-06 0)
(3.28267e-06 -1.05877e-06 0)
(3.51297e-06 -9.95847e-07 0)
(3.73507e-06 -9.41735e-07 0)
(3.94981e-06 -8.95155e-07 0)
(4.15791e-06 -8.5419e-07 0)
(4.36011e-06 -8.17429e-07 0)
(4.55704e-06 -7.836e-07 0)
(4.7493e-06 -7.51594e-07 0)
(4.9374e-06 -7.20418e-07 0)
(5.12181e-06 -6.89182e-07 0)
(5.30291e-06 -6.57065e-07 0)
(5.48108e-06 -6.23294e-07 0)
(5.65664e-06 -5.87116e-07 0)
(5.82976e-06 -5.47716e-07 0)
(6.00067e-06 -5.04268e-07 0)
(6.16962e-06 -4.55794e-07 0)
(6.33656e-06 -4.01298e-07 0)
(6.50209e-06 -3.39381e-07 0)
(6.66565e-06 -2.69236e-07 0)
(2.90639e-06 -1.2722e-06 0)
(3.14665e-06 -1.19081e-06 0)
(3.37903e-06 -1.12202e-06 0)
(3.60438e-06 -1.06183e-06 0)
(3.82284e-06 -1.00902e-06 0)
(4.03487e-06 -9.61967e-07 0)
(4.24103e-06 -9.1931e-07 0)
(4.44182e-06 -8.79833e-07 0)
(4.63775e-06 -8.42449e-07 0)
(4.82927e-06 -8.06171e-07 0)
(5.01684e-06 -7.70105e-07 0)
(5.20082e-06 -7.33415e-07 0)
(5.3816e-06 -6.95307e-07 0)
(5.55949e-06 -6.55002e-07 0)
(5.73469e-06 -6.11678e-07 0)
(5.90751e-06 -5.64498e-07 0)
(6.07817e-06 -5.125e-07 0)
(6.24679e-06 -4.54713e-07 0)
(6.41395e-06 -3.898e-07 0)
(6.57931e-06 -3.1695e-07 0)
(2.78982e-06 -1.40148e-06 0)
(3.02754e-06 -1.31846e-06 0)
(3.25952e-06 -1.24608e-06 0)
(3.48546e-06 -1.18135e-06 0)
(3.70538e-06 -1.12343e-06 0)
(3.91937e-06 -1.07105e-06 0)
(4.12781e-06 -1.02301e-06 0)
(4.33103e-06 -9.78222e-07 0)
(4.5294e-06 -9.35676e-07 0)
(4.72334e-06 -8.9443e-07 0)
(4.91321e-06 -8.53611e-07 0)
(5.09936e-06 -8.12391e-07 0)
(5.28216e-06 -7.69978e-07 0)
(5.46191e-06 -7.25587e-07 0)
(5.63881e-06 -6.78407e-07 0)
(5.81322e-06 -6.27611e-07 0)
(5.98539e-06 -5.72275e-07 0)
(6.15552e-06 -5.11474e-07 0)
(6.32416e-06 -4.4394e-07 0)
(6.49121e-06 -3.68884e-07 0)
(2.6874e-06 -1.52587e-06 0)
(2.92158e-06 -1.44213e-06 0)
(3.15153e-06 -1.36717e-06 0)
(3.37641e-06 -1.29881e-06 0)
(3.59618e-06 -1.23659e-06 0)
(3.81065e-06 -1.17951e-06 0)
(4.02005e-06 -1.12661e-06 0)
(4.22451e-06 -1.07694e-06 0)
(4.42433e-06 -1.02957e-06 0)
(4.61981e-06 -9.83627e-07 0)
(4.81127e-06 -9.38281e-07 0)
(4.99897e-06 -8.92729e-07 0)
(5.18328e-06 -8.46198e-07 0)
(5.36448e-06 -7.9792e-07 0)
(5.54276e-06 -7.47102e-07 0)
(5.71853e-06 -6.92947e-07 0)
(5.89199e-06 -6.34582e-07 0)
(6.06349e-06 -5.71137e-07 0)
(6.23347e-06 -5.01419e-07 0)
(6.40209e-06 -4.24725e-07 0)
(2.59726e-06 -1.64501e-06 0)
(2.82709e-06 -1.56123e-06 0)
(3.0539e-06 -1.48464e-06 0)
(3.27653e-06 -1.4136e-06 0)
(3.4949e-06 -1.34793e-06 0)
(3.70868e-06 -1.28691e-06 0)
(3.91793e-06 -1.22977e-06 0)
(4.12264e-06 -1.1757e-06 0)
(4.32301e-06 -1.12391e-06 0)
(4.51926e-06 -1.0736e-06 0)
(4.71163e-06 -1.024e-06 0)
(4.90032e-06 -9.74351e-07 0)
(5.08567e-06 -9.23921e-07 0)
(5.26792e-06 -8.71968e-07 0)
(5.44728e-06 -8.17735e-07 0)
(5.62414e-06 -7.60465e-07 0)
(5.79872e-06 -6.99345e-07 0)
(5.9714e-06 -6.33564e-07 0)
(6.1426e-06 -5.62036e-07 0)
(6.31266e-06 -4.84214e-07 0)
(2.51714e-06 -1.75907e-06 0)
(2.74221e-06 -1.67572e-06 0)
(2.96524e-06 -1.59816e-06 0)
(3.18481e-06 -1.52517e-06 0)
(3.40093e-06 -1.45675e-06 0)
(3.61311e-06 -1.39243e-06 0)
(3.82133e-06 -1.33163e-06 0)
(4.02547e-06 -1.27369e-06 0)
(4.22565e-06 -1.21792e-06 0)
(4.422e-06 -1.16363e-06 0)
(4.61468e-06 -1.11012e-06 0)
(4.80385e-06 -1.05669e-06 0)
(4.98981e-06 -1.00264e-06 0)
(5.17276e-06 -9.47288e-07 0)
(5.3529e-06 -8.89912e-07 0)
(5.53062e-06 -8.29812e-07 0)
(5.70611e-06 -7.66235e-07 0)
(5.8798e-06 -6.98442e-07 0)
(6.05209e-06 -6.25497e-07 0)
(6.22343e-06 -5.46992e-07 0)
(2.44537e-06 -1.86825e-06 0)
(2.66546e-06 -1.78568e-06 0)
(2.88428e-06 -1.70765e-06 0)
(3.10027e-06 -1.63329e-06 0)
(3.31353e-06 -1.56276e-06 0)
(3.52346e-06 -1.49575e-06 0)
(3.72998e-06 -1.43185e-06 0)
(3.93291e-06 -1.37055e-06 0)
(4.13229e-06 -1.31127e-06 0)
(4.32817e-06 -1.25342e-06 0)
(4.52067e-06 -1.19636e-06 0)
(4.70988e-06 -1.13947e-06 0)
(4.89606e-06 -1.08212e-06 0)
(5.07938e-06 -1.02365e-06 0)
(5.26003e-06 -9.63412e-07 0)
(5.43837e-06 -9.00758e-07 0)
(5.61459e-06 -8.35008e-07 0)
(5.78912e-06 -7.65515e-07 0)
(5.96237e-06 -6.91513e-07 0)
(6.13481e-06 -6.12637e-07 0)
(2.38043e-06 -1.97283e-06 0)
(2.59551e-06 -1.89124e-06 0)
(2.80988e-06 -1.81312e-06 0)
(3.02199e-06 -1.73786e-06 0)
(3.23197e-06 -1.66573e-06 0)
(3.43917e-06 -1.59656e-06 0)
(3.64351e-06 -1.53007e-06 0)
(3.84473e-06 -1.46589e-06 0)
(4.04281e-06 -1.40354e-06 0)
(4.23777e-06 -1.34254e-06 0)
(4.42965e-06 -1.28233e-06 0)
(4.61852e-06 -1.22234e-06 0)
(4.80461e-06 -1.162e-06 0)
(4.98801e-06 -1.10073e-06 0)
(5.16893e-06 -1.03791e-06 0)
(5.34768e-06 -9.72993e-07 0)
(5.52445e-06 -9.05366e-07 0)
(5.69969e-06 -8.34484e-07 0)
(5.87375e-06 -7.59727e-07 0)
(6.04713e-06 -6.80707e-07 0)
(2.32096e-06 -2.07312e-06 0)
(2.53109e-06 -1.99264e-06 0)
(2.74092e-06 -1.9147e-06 0)
(2.949e-06 -1.8389e-06 0)
(3.15543e-06 -1.7656e-06 0)
(3.35961e-06 -1.6947e-06 0)
(3.56142e-06 -1.62608e-06 0)
(3.76057e-06 -1.55947e-06 0)
(3.95699e-06 -1.49449e-06 0)
(4.15067e-06 -1.43074e-06 0)
(4.3416e-06 -1.36775e-06 0)
(4.52983e-06 -1.30502e-06 0)
(4.71554e-06 -1.24203e-06 0)
(4.89878e-06 -1.17827e-06 0)
(5.07976e-06 -1.11318e-06 0)
(5.25874e-06 -1.04629e-06 0)
(5.43592e-06 -9.77078e-07 0)
(5.61173e-06 -9.05091e-07 0)
(5.78643e-06 -8.29791e-07 0)
(5.96061e-06 -7.5086e-07 0)
(2.26579e-06 -2.16945e-06 0)
(2.47106e-06 -2.09016e-06 0)
(2.67639e-06 -2.01257e-06 0)
(2.88037e-06 -1.9365e-06 0)
(3.08314e-06 -1.86234e-06 0)
(3.28412e-06 -1.7901e-06 0)
(3.48318e-06 -1.71975e-06 0)
(3.68e-06 -1.65112e-06 0)
(3.87451e-06 -1.58391e-06 0)
(4.06665e-06 -1.51781e-06 0)
(4.25639e-06 -1.45242e-06 0)
(4.44374e-06 -1.38731e-06 0)
(4.62884e-06 -1.322e-06 0)
(4.81174e-06 -1.25606e-06 0)
(4.99259e-06 -1.18901e-06 0)
(5.17167e-06 -1.12044e-06 0)
(5.34912e-06 -1.04992e-06 0)
(5.52535e-06 -9.77054e-07 0)
(5.70057e-06 -9.01379e-07 0)
(5.87539e-06 -8.22768e-07 0)
(2.21387e-06 -2.26216e-06 0)
(2.41444e-06 -2.18405e-06 0)
(2.61533e-06 -2.10693e-06 0)
(2.81525e-06 -2.03078e-06 0)
(3.01434e-06 -1.95603e-06 0)
(3.21204e-06 -1.88277e-06 0)
(3.40823e-06 -1.81106e-06 0)
(3.60258e-06 -1.74078e-06 0)
(3.79501e-06 -1.67172e-06 0)
(3.98544e-06 -1.60365e-06 0)
(4.17381e-06 -1.53621e-06 0)
(4.36011e-06 -1.46904e-06 0)
(4.54444e-06 -1.40175e-06 0)
(4.72684e-06 -1.33394e-06 0)
(4.90744e-06 -1.26521e-06 0)
(5.08649e-06 -1.19523e-06 0)
(5.26409e-06 -1.12363e-06 0)
(5.4406e-06 -1.05007e-06 0)
(5.61624e-06 -9.74205e-07 0)
(5.79157e-06 -8.96031e-07 0)
(2.16427e-06 -2.35156e-06 0)
(2.36032e-06 -2.27459e-06 0)
(2.55689e-06 -2.198e-06 0)
(2.75284e-06 -2.12192e-06 0)
(2.94829e-06 -2.04681e-06 0)
(3.14272e-06 -1.97281e-06 0)
(3.33599e-06 -1.90003e-06 0)
(3.52781e-06 -1.82844e-06 0)
(3.71808e-06 -1.75788e-06 0)
(3.90671e-06 -1.68815e-06 0)
(4.0936e-06 -1.61899e-06 0)
(4.27873e-06 -1.55009e-06 0)
(4.4622e-06 -1.48111e-06 0)
(4.644e-06 -1.41173e-06 0)
(4.82425e-06 -1.34162e-06 0)
(5.00317e-06 -1.27048e-06 0)
(5.1808e-06 -1.198e-06 0)
(5.3575e-06 -1.1239e-06 0)
(5.53345e-06 -1.04804e-06 0)
(5.70916e-06 -9.70321e-07 0)
(2.11617e-06 -2.43794e-06 0)
(2.30789e-06 -2.36202e-06 0)
(2.5003e-06 -2.286e-06 0)
(2.69241e-06 -2.21011e-06 0)
(2.8843e-06 -2.13482e-06 0)
(3.07551e-06 -2.0603e-06 0)
(3.2659e-06 -1.98673e-06 0)
(3.45521e-06 -1.91409e-06 0)
(3.64329e-06 -1.84234e-06 0)
(3.83008e-06 -1.77128e-06 0)
(4.01545e-06 -1.70071e-06 0)
(4.19937e-06 -1.63039e-06 0)
(4.38191e-06 -1.56003e-06 0)
(4.56306e-06 -1.48937e-06 0)
(4.7429e-06 -1.41813e-06 0)
(4.92159e-06 -1.34604e-06 0)
(5.09917e-06 -1.27286e-06 0)
(5.27598e-06 -1.19841e-06 0)
(5.45213e-06 -1.12264e-06 0)
(5.62812e-06 -1.04542e-06 0)
(2.06879e-06 -2.52151e-06 0)
(2.25638e-06 -2.4466e-06 0)
(2.44482e-06 -2.37117e-06 0)
(2.63323e-06 -2.29555e-06 0)
(2.82169e-06 -2.22021e-06 0)
(3.00979e-06 -2.14536e-06 0)
(3.19741e-06 -2.07124e-06 0)
(3.38426e-06 -1.99784e-06 0)
(3.57022e-06 -1.92516e-06 0)
(3.75519e-06 -1.85306e-06 0)
(3.93905e-06 -1.78138e-06 0)
(4.12175e-06 -1.70992e-06 0)
(4.30336e-06 -1.63845e-06 0)
(4.48382e-06 -1.56676e-06 0)
(4.66319e-06 -1.4946e-06 0)
(4.84161e-06 -1.42175e-06 0)
(5.01907e-06 -1.34803e-06 0)
(5.19593e-06 -1.27338e-06 0)
(5.37222e-06 -1.19769e-06 0)
(5.54839e-06 -1.12103e-06 0)
(2.02135e-06 -2.60256e-06 0)
(2.20502e-06 -2.52858e-06 0)
(2.38968e-06 -2.45374e-06 0)
(2.57458e-06 -2.37845e-06 0)
(2.75979e-06 -2.30319e-06 0)
(2.94496e-06 -2.2282e-06 0)
(3.12994e-06 -2.15373e-06 0)
(3.31447e-06 -2.07979e-06 0)
(3.4984e-06 -2.00642e-06 0)
(3.68163e-06 -1.93352e-06 0)
(3.86405e-06 -1.861e-06 0)
(4.04559e-06 -1.78867e-06 0)
(4.22629e-06 -1.71636e-06 0)
(4.40607e-06 -1.64386e-06 0)
(4.58495e-06 -1.57097e-06 0)
(4.76305e-06 -1.49753e-06 0)
(4.94039e-06 -1.42345e-06 0)
(5.11724e-06 -1.34868e-06 0)
(5.29361e-06 -1.27312e-06 0)
(5.46988e-06 -1.19694e-06 0)
(1.97311e-06 -2.6813e-06 0)
(2.15305e-06 -2.60823e-06 0)
(2.3341e-06 -2.5339e-06 0)
(2.51574e-06 -2.45899e-06 0)
(2.69795e-06 -2.38394e-06 0)
(2.88042e-06 -2.30897e-06 0)
(3.06297e-06 -2.2343e-06 0)
(3.24533e-06 -2.16005e-06 0)
(3.42738e-06 -2.08622e-06 0)
(3.60902e-06 -2.01277e-06 0)
(3.79012e-06 -1.93964e-06 0)
(3.97059e-06 -1.86669e-06 0)
(4.15043e-06 -1.79373e-06 0)
(4.32953e-06 -1.72061e-06 0)
(4.50792e-06 -1.64718e-06 0)
(4.68574e-06 -1.57333e-06 0)
(4.86295e-06 -1.49901e-06 0)
(5.03974e-06 -1.4241e-06 0)
(5.21611e-06 -1.34872e-06 0)
(5.39241e-06 -1.27298e-06 0)
(1.92329e-06 -2.75798e-06 0)
(2.09958e-06 -2.68556e-06 0)
(2.27721e-06 -2.61191e-06 0)
(2.45601e-06 -2.53753e-06 0)
(2.63549e-06 -2.46276e-06 0)
(2.81555e-06 -2.38791e-06 0)
(2.99591e-06 -2.31322e-06 0)
(3.17636e-06 -2.23881e-06 0)
(3.35676e-06 -2.16473e-06 0)
(3.53701e-06 -2.09095e-06 0)
(3.71695e-06 -2.01742e-06 0)
(3.89644e-06 -1.94401e-06 0)
(4.07548e-06 -1.87059e-06 0)
(4.25397e-06 -1.79704e-06 0)
(4.43195e-06 -1.72325e-06 0)
(4.60952e-06 -1.64911e-06 0)
(4.78655e-06 -1.57457e-06 0)
(4.96321e-06 -1.49959e-06 0)
(5.13956e-06 -1.42439e-06 0)
(5.31594e-06 -1.34902e-06 0)
(1.87069e-06 -2.83252e-06 0)
(2.04389e-06 -2.76088e-06 0)
(2.21873e-06 -2.68803e-06 0)
(2.39478e-06 -2.61418e-06 0)
(2.57188e-06 -2.53981e-06 0)
(2.7498e-06 -2.46521e-06 0)
(2.92829e-06 -2.39064e-06 0)
(3.10714e-06 -2.31625e-06 0)
(3.28619e-06 -2.2421e-06 0)
(3.46528e-06 -2.16816e-06 0)
(3.64421e-06 -2.09438e-06 0)
(3.82285e-06 -2.0207e-06 0)
(4.00123e-06 -1.94701e-06 0)
(4.17927e-06 -1.87318e-06 0)
(4.35689e-06 -1.79912e-06 0)
(4.53411e-06 -1.72479e-06 0)
(4.71091e-06 -1.65009e-06 0)
(4.88757e-06 -1.57511e-06 0)
(5.06391e-06 -1.50003e-06 0)
(5.24014e-06 -1.42496e-06 0)
(1.81464e-06 -2.90574e-06 0)
(1.985e-06 -2.83497e-06 0)
(2.1573e-06 -2.76273e-06 0)
(2.33111e-06 -2.68945e-06 0)
(2.50625e-06 -2.61554e-06 0)
(2.68248e-06 -2.5413e-06 0)
(2.85957e-06 -2.46699e-06 0)
(3.03725e-06 -2.39273e-06 0)
(3.21527e-06 -2.3186e-06 0)
(3.39345e-06 -2.24461e-06 0)
(3.57162e-06 -2.17075e-06 0)
(3.7497e-06 -2.09693e-06 0)
(3.92762e-06 -2.02305e-06 0)
(4.10515e-06 -1.94906e-06 0)
(4.28239e-06 -1.87483e-06 0)
(4.45942e-06 -1.80032e-06 0)
(4.63609e-06 -1.72553e-06 0)
(4.81258e-06 -1.65056e-06 0)
(4.9889e-06 -1.57551e-06 0)
(5.16509e-06 -1.50066e-06 0)
(1.75438e-06 -2.97699e-06 0)
(1.92227e-06 -2.90723e-06 0)
(2.09244e-06 -2.83588e-06 0)
(2.26448e-06 -2.76333e-06 0)
(2.43821e-06 -2.69004e-06 0)
(2.61333e-06 -2.61631e-06 0)
(2.7895e-06 -2.54236e-06 0)
(2.96637e-06 -2.46836e-06 0)
(3.14373e-06 -2.39439e-06 0)
(3.32144e-06 -2.32046e-06 0)
(3.49921e-06 -2.2466e-06 0)
(3.67683e-06 -2.17275e-06 0)
(3.85434e-06 -2.09877e-06 0)
(4.0316e-06 -2.02465e-06 0)
(4.20853e-06 -1.95033e-06 0)
(4.38528e-06 -1.87572e-06 0)
(4.56179e-06 -1.80091e-06 0)
(4.73814e-06 -1.72586e-06 0)
(4.91443e-06 -1.65082e-06 0)
(5.09052e-06 -1.576e-06 0)
(1.27261e-07 -2.51526e-06 0)
(3.83419e-07 -2.47868e-06 0)
(6.44452e-07 -2.40681e-06 0)
(9.13086e-07 -2.30275e-06 0)
(1.19153e-06 -2.17032e-06 0)
(1.48115e-06 -2.01459e-06 0)
(1.78246e-06 -1.8412e-06 0)
(2.09494e-06 -1.65605e-06 0)
(2.41771e-06 -1.46504e-06 0)
(2.74797e-06 -1.27283e-06 0)
(1.23948e-07 -2.55829e-06 0)
(3.73216e-07 -2.52492e-06 0)
(6.26498e-07 -2.45923e-06 0)
(8.86065e-07 -2.36396e-06 0)
(1.15375e-06 -2.24229e-06 0)
(1.43071e-06 -2.09854e-06 0)
(1.71735e-06 -1.9375e-06 0)
(2.01312e-06 -1.76429e-06 0)
(2.31667e-06 -1.58432e-06 0)
(2.62574e-06 -1.40177e-06 0)
(1.20954e-07 -2.60251e-06 0)
(3.63989e-07 -2.57203e-06 0)
(6.10241e-07 -2.51194e-06 0)
(8.61531e-07 -2.42467e-06 0)
(1.11937e-06 -2.31295e-06 0)
(1.3847e-06 -2.18048e-06 0)
(1.65792e-06 -2.03142e-06 0)
(1.93888e-06 -1.87003e-06 0)
(2.22648e-06 -1.70111e-06 0)
(2.51933e-06 -1.52748e-06 0)
(1.18247e-07 -2.64787e-06 0)
(3.5569e-07 -2.61984e-06 0)
(5.95793e-07 -2.56451e-06 0)
(8.39994e-07 -2.48403e-06 0)
(1.08957e-06 -2.38082e-06 0)
(1.34523e-06 -2.25808e-06 0)
(1.60726e-06 -2.11956e-06 0)
(1.87551e-06 -1.96898e-06 0)
(2.14899e-06 -1.81088e-06 0)
(2.42657e-06 -1.64746e-06 0)
(1.15755e-07 -2.69432e-06 0)
(3.47984e-07 -2.66849e-06 0)
(5.82434e-07 -2.6174e-06 0)
(8.20204e-07 -2.54303e-06 0)
(1.06237e-06 -2.44752e-06 0)
(1.30949e-06 -2.33371e-06 0)
(1.56182e-06 -2.20493e-06 0)
(1.81922e-06 -2.06438e-06 0)
(2.08093e-06 -1.9162e-06 0)
(2.34548e-06 -1.76237e-06 0)
(1.13426e-07 -2.7418e-06 0)
(3.40821e-07 -2.71785e-06 0)
(5.70076e-07 -2.67048e-06 0)
(8.02063e-07 -2.60144e-06 0)
(1.03766e-06 -2.51269e-06 0)
(1.27734e-06 -2.40677e-06 0)
(1.52121e-06 -2.28673e-06 0)
(1.7691e-06 -2.15541e-06 0)
(2.02056e-06 -2.01655e-06 0)
(2.27378e-06 -1.87211e-06 0)
(1.11169e-07 -2.79024e-06 0)
(3.33984e-07 -2.76796e-06 0)
(5.58336e-07 -2.72392e-06 0)
(7.84975e-07 -2.65963e-06 0)
(1.0146e-06 -2.57696e-06 0)
(1.2476e-06 -2.47817e-06 0)
(1.48408e-06 -2.36603e-06 0)
(1.72372e-06 -2.24311e-06 0)
(1.96634e-06 -2.11273e-06 0)
(2.20985e-06 -1.97701e-06 0)
(1.09003e-07 -2.83951e-06 0)
(3.27406e-07 -2.8187e-06 0)
(5.47092e-07 -2.77763e-06 0)
(7.68733e-07 -2.71755e-06 0)
(9.92895e-07 -2.64029e-06 0)
(1.21985e-06 -2.54788e-06 0)
(1.44973e-06 -2.44287e-06 0)
(1.68208e-06 -2.32761e-06 0)
(1.91695e-06 -2.20503e-06 0)
(2.15212e-06 -2.07739e-06 0)
(1.06905e-07 -2.88953e-06 0)
(3.20973e-07 -2.87005e-06 0)
(5.36154e-07 -2.83162e-06 0)
(7.53038e-07 -2.77534e-06 0)
(9.72087e-07 -2.70296e-06 0)
(1.19352e-06 -2.6163e-06 0)
(1.41742e-06 -2.51772e-06 0)
(1.6433e-06 -2.4094e-06 0)
(1.87133e-06 -2.29393e-06 0)
(2.09927e-06 -2.17366e-06 0)
(1.0481e-07 -2.94021e-06 0)
(3.14599e-07 -2.92189e-06 0)
(5.25393e-07 -2.88583e-06 0)
(7.377e-07 -2.83298e-06 0)
(9.51887e-07 -2.76499e-06 0)
(1.16817e-06 -2.68352e-06 0)
(1.38659e-06 -2.59075e-06 0)
(1.60662e-06 -2.48873e-06 0)
(1.82853e-06 -2.37976e-06 0)
(2.05017e-06 -2.26621e-06 0)
(1.02676e-07 -2.99143e-06 0)
(3.08221e-07 -2.97414e-06 0)
(5.1467e-07 -2.94023e-06 0)
(7.22499e-07 -2.8905e-06 0)
(9.32001e-07 -2.82647e-06 0)
(1.1434e-06 -2.7497e-06 0)
(1.35671e-06 -2.66219e-06 0)
(1.57141e-06 -2.5659e-06 0)
(1.78777e-06 -2.46285e-06 0)
(2.00383e-06 -2.3554e-06 0)
(1.00514e-07 -3.04304e-06 0)
(3.01796e-07 -3.0267e-06 0)
(5.0388e-07 -2.99475e-06 0)
(7.07251e-07 -2.94785e-06 0)
(9.12179e-07 -2.88741e-06 0)
(1.11885e-06 -2.81491e-06 0)
(1.32733e-06 -2.73219e-06 0)
(1.53707e-06 -2.64111e-06 0)
(1.74834e-06 -2.54345e-06 0)
(1.95938e-06 -2.44152e-06 0)
(9.83244e-08 -3.09492e-06 0)
(2.95241e-07 -3.07948e-06 0)
(4.92885e-07 -3.04931e-06 0)
(6.9176e-07 -3.00498e-06 0)
(8.92153e-07 -2.94783e-06 0)
(1.09421e-06 -2.87922e-06 0)
(1.29801e-06 -2.80087e-06 0)
(1.50307e-06 -2.71452e-06 0)
(1.7096e-06 -2.62176e-06 0)
(1.91609e-06 -2.52486e-06 0)
(9.60678e-08 -3.14693e-06 0)
(2.88444e-07 -3.13232e-06 0)
(4.81529e-07 -3.10377e-06 0)
(6.75822e-07 -3.06181e-06 0)
(8.71644e-07 -3.00766e-06 0)
(1.06911e-06 -2.94264e-06 0)
(1.26834e-06 -2.86829e-06 0)
(1.46888e-06 -2.78625e-06 0)
(1.67095e-06 -2.69801e-06 0)
(1.8732e-06 -2.60569e-06 0)
(9.3691e-08 -3.19897e-06 0)
(2.81298e-07 -3.18513e-06 0)
(4.69651e-07 -3.15806e-06 0)
(6.59223e-07 -3.11829e-06 0)
(8.50362e-07 -3.06693e-06 0)
(1.04319e-06 -3.0052e-06 0)
(1.23785e-06 -2.93452e-06 0)
(1.43399e-06 -2.85644e-06 0)
(1.63174e-06 -2.77237e-06 0)
(1.82999e-06 -2.68422e-06 0)
(9.11604e-08 -3.25077e-06 0)
(2.73729e-07 -3.23765e-06 0)
(4.57111e-07 -3.21197e-06 0)
(6.41741e-07 -3.17424e-06 0)
(8.28006e-07 -3.12545e-06 0)
(1.01607e-06 -3.06677e-06 0)
(1.20611e-06 -2.9995e-06 0)
(1.39786e-06 -2.92511e-06 0)
(1.59138e-06 -2.8449e-06 0)
(1.78576e-06 -2.76059e-06 0)
(8.8456e-08 -3.30227e-06 0)
(2.65652e-07 -3.28984e-06 0)
(4.43727e-07 -3.26545e-06 0)
(6.23111e-07 -3.22962e-06 0)
(8.04243e-07 -3.18327e-06 0)
(9.87344e-07 -3.12746e-06 0)
(1.17262e-06 -3.06339e-06 0)
(1.35988e-06 -2.99249e-06 0)
(1.54915e-06 -2.91583e-06 0)
(1.73966e-06 -2.83511e-06 0)
(8.55503e-08 -3.35293e-06 0)
(2.56958e-07 -3.34116e-06 0)
(4.29304e-07 -3.31801e-06 0)
(6.03062e-07 -3.28401e-06 0)
(7.78723e-07 -3.23996e-06 0)
(9.56574e-07 -3.18687e-06 0)
(1.13685e-06 -3.12586e-06 0)
(1.3194e-06 -3.05824e-06 0)
(1.50427e-06 -2.98497e-06 0)
(1.69088e-06 -2.90763e-06 0)
(8.23832e-08 -3.40302e-06 0)
(2.47463e-07 -3.39189e-06 0)
(4.13548e-07 -3.36994e-06 0)
(5.81189e-07 -3.33768e-06 0)
(7.50923e-07 -3.29586e-06 0)
(9.23116e-07 -3.24542e-06 0)
(1.09803e-06 -3.18738e-06 0)
(1.27559e-06 -3.12287e-06 0)
(1.45583e-06 -3.0529e-06 0)
(1.63842e-06 -2.97877e-06 0)
(7.89196e-08 -3.45114e-06 0)
(2.37085e-07 -3.44061e-06 0)
(3.96326e-07 -3.41986e-06 0)
(5.57301e-07 -3.38933e-06 0)
(7.2061e-07 -3.34973e-06 0)
(8.86665e-07 -3.30191e-06 0)
(1.05576e-06 -3.2468e-06 0)
(1.22794e-06 -3.18543e-06 0)
(1.40329e-06 -3.11874e-06 0)
(1.58168e-06 -3.04786e-06 0)
)


// ************************************************************************* //
