/*--------------------------------*- C++ -*----------------------------------*\
| =========                 |                                                 |
| \\      /  F ield         | foam-extend: Open Source CFD                    |
|  \\    /   O peration     | Version:     4.1                                |
|   \\  /    A nd           | Web:         http://www.foam-extend.org         |
|    \\/     M anipulation  |                                                 |
\*---------------------------------------------------------------------------*/
FoamFile
{
    version     2.0;
    format      ascii;
    class       vectorField;
    location    "6";
    object      solidsCellD_iteration5;
}
// * * * * * * * * * * * * * * * * * * * * * * * * * * * * * * * * * * * * * //


1000
(
(3.03592e-06 -1.24554e-06 0)
(2.87008e-06 -1.16185e-06 0)
(2.765e-06 -1.10991e-06 0)
(2.70572e-06 -1.08704e-06 0)
(2.67803e-06 -1.08088e-06 0)
(2.67347e-06 -1.08761e-06 0)
(2.68591e-06 -1.1028e-06 0)
(2.71111e-06 -1.12439e-06 0)
(2.74581e-06 -1.15027e-06 0)
(2.78676e-06 -1.1797e-06 0)
(2.74599e-06 -1.36051e-06 0)
(2.56922e-06 -1.30337e-06 0)
(2.4571e-06 -1.26833e-06 0)
(2.39261e-06 -1.25701e-06 0)
(2.36077e-06 -1.25856e-06 0)
(2.35226e-06 -1.2708e-06 0)
(2.36081e-06 -1.28997e-06 0)
(2.38187e-06 -1.31448e-06 0)
(2.41211e-06 -1.34271e-06 0)
(2.44836e-06 -1.37344e-06 0)
(2.44435e-06 -1.46947e-06 0)
(2.26366e-06 -1.44199e-06 0)
(2.14908e-06 -1.42572e-06 0)
(2.08216e-06 -1.42705e-06 0)
(2.04791e-06 -1.43689e-06 0)
(2.03663e-06 -1.45488e-06 0)
(2.04201e-06 -1.47803e-06 0)
(2.05957e-06 -1.50529e-06 0)
(2.08592e-06 -1.53562e-06 0)
(2.11816e-06 -1.56761e-06 0)
(2.13345e-06 -1.57048e-06 0)
(1.95641e-06 -1.57407e-06 0)
(1.84416e-06 -1.57745e-06 0)
(1.77785e-06 -1.59192e-06 0)
(1.74304e-06 -1.61033e-06 0)
(1.73019e-06 -1.63414e-06 0)
(1.73316e-06 -1.66123e-06 0)
(1.74762e-06 -1.69121e-06 0)
(1.77041e-06 -1.72359e-06 0)
(1.79868e-06 -1.75696e-06 0)
(1.81533e-06 -1.66153e-06 0)
(1.64955e-06 -1.69589e-06 0)
(1.54438e-06 -1.71878e-06 0)
(1.48181e-06 -1.7462e-06 0)
(1.44842e-06 -1.77298e-06 0)
(1.43515e-06 -1.80246e-06 0)
(1.43639e-06 -1.83336e-06 0)
(1.44805e-06 -1.86599e-06 0)
(1.46738e-06 -1.90029e-06 0)
(1.49159e-06 -1.93517e-06 0)
(1.49165e-06 -1.74078e-06 0)
(1.3444e-06 -1.80391e-06 0)
(1.25101e-06 -1.84501e-06 0)
(1.19514e-06 -1.88453e-06 0)
(1.16496e-06 -1.91913e-06 0)
(1.15234e-06 -1.95391e-06 0)
(1.15247e-06 -1.9883e-06 0)
(1.16165e-06 -2.0234e-06 0)
(1.17755e-06 -2.05948e-06 0)
(1.19756e-06 -2.09586e-06 0)
(1.16392e-06 -1.80646e-06 0)
(1.04179e-06 -1.89479e-06 0)
(9.64338e-07 -1.95187e-06 0)
(9.17807e-07 -2.00197e-06 0)
(8.92442e-07 -2.04339e-06 0)
(8.81503e-07 -2.08278e-06 0)
(8.81055e-07 -2.12023e-06 0)
(8.87972e-07 -2.15752e-06 0)
(9.00392e-07 -2.19517e-06 0)
(9.16067e-07 -2.23295e-06 0)
(8.33302e-07 -1.85709e-06 0)
(7.41814e-07 -1.96566e-06 0)
(6.83809e-07 -2.03558e-06 0)
(6.48905e-07 -2.09413e-06 0)
(6.29737e-07 -2.14105e-06 0)
(6.21298e-07 -2.18414e-06 0)
(6.20658e-07 -2.22405e-06 0)
(6.25469e-07 -2.26312e-06 0)
(6.34373e-07 -2.30201e-06 0)
(6.45612e-07 -2.34094e-06 0)
(5.00797e-07 -1.89151e-06 0)
(4.44174e-07 -2.01422e-06 0)
(4.08266e-07 -2.0931e-06 0)
(3.86567e-07 -2.15762e-06 0)
(3.74589e-07 -2.20837e-06 0)
(3.69276e-07 -2.25404e-06 0)
(3.68789e-07 -2.29569e-06 0)
(3.71616e-07 -2.33603e-06 0)
(3.76939e-07 -2.37585e-06 0)
(3.83689e-07 -2.41565e-06 0)
(1.67264e-07 -1.90885e-06 0)
(1.48048e-07 -2.03885e-06 0)
(1.35841e-07 -2.12238e-06 0)
(1.28487e-07 -2.18996e-06 0)
(1.24428e-07 -2.24267e-06 0)
(1.22574e-07 -2.28968e-06 0)
(1.22348e-07 -2.33221e-06 0)
(1.23276e-07 -2.37319e-06 0)
(1.25051e-07 -2.41345e-06 0)
(1.27289e-07 -2.45368e-06 0)
(4.72781e-06 -5.68479e-08 0)
(4.76985e-06 -4.1098e-08 0)
(4.79644e-06 -3.11627e-08 0)
(4.82561e-06 -2.53722e-08 0)
(4.85777e-06 -2.2223e-08 0)
(4.8971e-06 -2.08445e-08 0)
(4.94346e-06 -2.06339e-08 0)
(4.99724e-06 -2.12125e-08 0)
(5.05833e-06 -2.23771e-08 0)
(5.12592e-06 -2.37342e-08 0)
(4.69306e-06 -1.70531e-07 0)
(4.72816e-06 -1.24207e-07 0)
(4.75042e-06 -9.50648e-08 0)
(4.77667e-06 -7.81503e-08 0)
(4.80692e-06 -6.89654e-08 0)
(4.84485e-06 -6.49749e-08 0)
(4.89023e-06 -6.44947e-08 0)
(4.94324e-06 -6.63278e-08 0)
(5.00364e-06 -6.97994e-08 0)
(5.07052e-06 -7.38624e-08 0)
(4.62354e-06 -2.85189e-07 0)
(4.64546e-06 -2.10843e-07 0)
(4.65938e-06 -1.64111e-07 0)
(4.68012e-06 -1.37047e-07 0)
(4.70672e-06 -1.22464e-07 0)
(4.7421e-06 -1.16264e-07 0)
(4.78558e-06 -1.15681e-07 0)
(4.83701e-06 -1.18825e-07 0)
(4.8961e-06 -1.2461e-07 0)
(4.9616e-06 -1.31411e-07 0)
(4.52053e-06 -4.0128e-07 0)
(4.52373e-06 -3.02978e-07 0)
(4.52575e-06 -2.41253e-07 0)
(4.53867e-06 -2.05673e-07 0)
(4.56004e-06 -1.86628e-07 0)
(4.59168e-06 -1.78753e-07 0)
(4.63246e-06 -1.7835e-07 0)
(4.68175e-06 -1.82964e-07 0)
(4.73899e-06 -1.91089e-07 0)
(4.80261e-06 -2.00632e-07 0)
(4.38555e-06 -5.19144e-07 0)
(4.36565e-06 -4.02301e-07 0)
(4.35298e-06 -3.28965e-07 0)
(4.35612e-06 -2.87009e-07 0)
(4.37105e-06 -2.64787e-07 0)
(4.39813e-06 -2.56005e-07 0)
(4.43553e-06 -2.56209e-07 0)
(4.48211e-06 -2.62473e-07 0)
(4.53704e-06 -2.72924e-07 0)
(4.59836e-06 -2.85184e-07 0)
(4.22068e-06 -6.38826e-07 0)
(4.17457e-06 -5.09875e-07 0)
(4.14529e-06 -4.28947e-07 0)
(4.1374e-06 -3.83162e-07 0)
(4.14501e-06 -3.59329e-07 0)
(4.16688e-06 -3.5056e-07 0)
(4.20046e-06 -3.51825e-07 0)
(4.24393e-06 -3.59919e-07 0)
(4.29622e-06 -3.72678e-07 0)
(4.35501e-06 -3.87629e-07 0)
(4.02825e-06 -7.60096e-07 0)
(3.95446e-06 -6.26142e-07 0)
(3.90766e-06 -5.42102e-07 0)
(3.88811e-06 -4.95314e-07 0)
(3.88794e-06 -4.7158e-07 0)
(3.90425e-06 -4.6383e-07 0)
(3.9337e-06 -4.66675e-07 0)
(3.97382e-06 -4.76824e-07 0)
(4.02321e-06 -4.91936e-07 0)
(4.07938e-06 -5.09539e-07 0)
(3.81081e-06 -8.82408e-07 0)
(3.70955e-06 -7.50835e-07 0)
(3.64535e-06 -6.68346e-07 0)
(3.61418e-06 -6.23463e-07 0)
(3.60619e-06 -6.0161e-07 0)
(3.61688e-06 -5.95943e-07 0)
(3.64208e-06 -6.00931e-07 0)
(3.67877e-06 -6.13407e-07 0)
(3.7251e-06 -6.30899e-07 0)
(3.77862e-06 -6.51133e-07 0)
(3.5711e-06 -1.00491e-06 0)
(3.44429e-06 -8.82944e-07 0)
(3.36398e-06 -8.06587e-07 0)
(3.3219e-06 -7.66494e-07 0)
(3.30652e-06 -7.48295e-07 0)
(3.31174e-06 -7.45782e-07 0)
(3.33266e-06 -7.53545e-07 0)
(3.36583e-06 -7.68594e-07 0)
(3.40884e-06 -7.88611e-07 0)
(3.45962e-06 -8.11301e-07 0)
(3.31191e-06 -1.12641e-06 0)
(3.16307e-06 -1.02072e-06 0)
(3.06883e-06 -9.54749e-07 0)
(3.0172e-06 -9.22152e-07 0)
(2.99515e-06 -9.09267e-07 0)
(2.99524e-06 -9.10945e-07 0)
(3.01203e-06 -9.22129e-07 0)
(3.04168e-06 -9.40278e-07 0)
(3.08144e-06 -9.63092e-07 0)
(3.12901e-06 -9.89243e-07 0)
(5.20002e-06 -2.50624e-08 0)
(5.28075e-06 -2.54267e-08 0)
(5.36653e-06 -2.58192e-08 0)
(5.45705e-06 -2.61049e-08 0)
(5.55176e-06 -2.62614e-08 0)
(5.65032e-06 -2.62856e-08 0)
(5.75233e-06 -2.61612e-08 0)
(5.85737e-06 -2.5902e-08 0)
(5.96509e-06 -2.54893e-08 0)
(6.07521e-06 -2.48959e-08 0)
(6.18741e-06 -2.41003e-08 0)
(6.30135e-06 -2.30968e-08 0)
(6.41672e-06 -2.18807e-08 0)
(6.53321e-06 -2.04383e-08 0)
(6.65053e-06 -1.87383e-08 0)
(6.76825e-06 -1.67419e-08 0)
(6.88617e-06 -1.44042e-08 0)
(7.00354e-06 -1.16797e-08 0)
(7.12051e-06 -8.50529e-09 0)
(7.23532e-06 -4.86456e-09 0)
(5.14707e-06 -7.76217e-08 0)
(5.2322e-06 -7.83917e-08 0)
(5.32192e-06 -7.92579e-08 0)
(5.41588e-06 -7.9859e-08 0)
(5.5137e-06 -8.01129e-08 0)
(5.615e-06 -8.00261e-08 0)
(5.71946e-06 -7.95315e-08 0)
(5.82672e-06 -7.86291e-08 0)
(5.9365e-06 -7.72513e-08 0)
(6.04849e-06 -7.53552e-08 0)
(6.1624e-06 -7.29053e-08 0)
(6.27793e-06 -6.98752e-08 0)
(6.39482e-06 -6.62171e-08 0)
(6.51273e-06 -6.18648e-08 0)
(6.63138e-06 -5.67276e-08 0)
(6.75036e-06 -5.07105e-08 0)
(6.86948e-06 -4.36901e-08 0)
(6.98802e-06 -3.55356e-08 0)
(7.10615e-06 -2.60511e-08 0)
(7.22213e-06 -1.51626e-08 0)
(5.04289e-06 -1.36857e-07 0)
(5.13667e-06 -1.37044e-07 0)
(5.23419e-06 -1.37487e-07 0)
(5.33489e-06 -1.37732e-07 0)
(5.43872e-06 -1.3754e-07 0)
(5.54539e-06 -1.36918e-07 0)
(5.65474e-06 -1.35703e-07 0)
(5.76641e-06 -1.33867e-07 0)
(5.88019e-06 -1.31287e-07 0)
(5.99583e-06 -1.27909e-07 0)
(6.11314e-06 -1.23674e-07 0)
(6.23184e-06 -1.18517e-07 0)
(6.35169e-06 -1.12334e-07 0)
(6.47238e-06 -1.05002e-07 0)
(6.59366e-06 -9.6376e-08 0)
(6.71517e-06 -8.63052e-08 0)
(6.83672e-06 -7.45837e-08 0)
(6.95762e-06 -6.10064e-08 0)
(7.07804e-06 -4.5247e-08 0)
(7.19629e-06 -2.71593e-08 0)
(4.89069e-06 -2.06558e-07 0)
(4.99685e-06 -2.04609e-07 0)
(5.1056e-06 -2.03229e-07 0)
(5.21608e-06 -2.02074e-07 0)
(5.32876e-06 -2.00571e-07 0)
(5.44328e-06 -1.9873e-07 0)
(5.5597e-06 -1.96227e-07 0)
(5.67778e-06 -1.93e-07 0)
(5.79746e-06 -1.8886e-07 0)
(5.91853e-06 -1.83731e-07 0)
(6.04085e-06 -1.77502e-07 0)
(6.1642e-06 -1.70043e-07 0)
(6.28837e-06 -1.61189e-07 0)
(6.41311e-06 -1.50776e-07 0)
(6.53824e-06 -1.38613e-07 0)
(6.66345e-06 -1.24469e-07 0)
(6.78855e-06 -1.08051e-07 0)
(6.91291e-06 -8.907e-08 0)
(7.03672e-06 -6.70598e-08 0)
(7.15831e-06 -4.18222e-08 0)
(4.69489e-06 -2.90075e-07 0)
(4.81665e-06 -2.8403e-07 0)
(4.93971e-06 -2.79054e-07 0)
(5.06266e-06 -2.75139e-07 0)
(5.1866e-06 -2.71174e-07 0)
(5.31117e-06 -2.67176e-07 0)
(5.43675e-06 -2.62634e-07 0)
(5.56313e-06 -2.57426e-07 0)
(5.6904e-06 -2.51266e-07 0)
(5.81845e-06 -2.44008e-07 0)
(5.94722e-06 -2.35469e-07 0)
(6.07654e-06 -2.25456e-07 0)
(6.20631e-06 -2.1375e-07 0)
(6.33634e-06 -2.00132e-07 0)
(6.4665e-06 -1.8435e-07 0)
(6.59646e-06 -1.66089e-07 0)
(6.72616e-06 -1.44969e-07 0)
(6.85493e-06 -1.20614e-07 0)
(6.98312e-06 -9.24114e-08 0)
(7.10903e-06 -6.01002e-08 0)
(4.46114e-06 -3.89804e-07 0)
(4.60087e-06 -3.77404e-07 0)
(4.74066e-06 -3.66724e-07 0)
(4.87827e-06 -3.58387e-07 0)
(5.01564e-06 -3.50599e-07 0)
(5.15223e-06 -3.4335e-07 0)
(5.28877e-06 -3.3589e-07 0)
(5.4251e-06 -3.27964e-07 0)
(5.56147e-06 -3.19192e-07 0)
(5.69788e-06 -3.09338e-07 0)
(5.83439e-06 -2.98133e-07 0)
(5.97094e-06 -2.85305e-07 0)
(6.10746e-06 -2.70563e-07 0)
(6.24382e-06 -2.53622e-07 0)
(6.38e-06 -2.3414e-07 0)
(6.51566e-06 -2.11728e-07 0)
(6.65088e-06 -1.85922e-07 0)
(6.78497e-06 -1.56253e-07 0)
(6.9184e-06 -1.2196e-07 0)
(7.04954e-06 -8.26847e-08 0)
(4.19582e-06 -5.07305e-07 0)
(4.35516e-06 -4.862e-07 0)
(4.51353e-06 -4.67702e-07 0)
(4.66754e-06 -4.53176e-07 0)
(4.81996e-06 -4.40137e-07 0)
(4.97014e-06 -4.28416e-07 0)
(5.11901e-06 -4.1705e-07 0)
(5.26663e-06 -4.05598e-07 0)
(5.41339e-06 -3.93566e-07 0)
(5.55938e-06 -3.80593e-07 0)
(5.70476e-06 -3.66307e-07 0)
(5.84955e-06 -3.50335e-07 0)
(5.99378e-06 -3.32304e-07 0)
(6.13741e-06 -3.11855e-07 0)
(6.28043e-06 -2.88558e-07 0)
(6.42265e-06 -2.61947e-07 0)
(6.56418e-06 -2.31469e-07 0)
(6.70442e-06 -1.96544e-07 0)
(6.84385e-06 -1.56252e-07 0)
(6.98097e-06 -1.10143e-07 0)
(3.90543e-06 -6.42876e-07 0)
(4.08518e-06 -6.10534e-07 0)
(4.26313e-06 -5.82137e-07 0)
(4.43482e-06 -5.59447e-07 0)
(4.60347e-06 -5.39607e-07 0)
(4.76852e-06 -5.22069e-07 0)
(4.93099e-06 -5.05728e-07 0)
(5.09109e-06 -4.89898e-07 0)
(5.24931e-06 -4.73945e-07 0)
(5.40589e-06 -4.57338e-07 0)
(5.56106e-06 -4.39575e-07 0)
(5.71494e-06 -4.20172e-07 0)
(5.86765e-06 -3.98665e-07 0)
(6.01928e-06 -3.74605e-07 0)
(6.16989e-06 -3.47466e-07 0)
(6.31936e-06 -3.16697e-07 0)
(6.46786e-06 -2.8163e-07 0)
(6.61486e-06 -2.41568e-07 0)
(6.7609e-06 -1.9543e-07 0)
(6.90463e-06 -1.42673e-07 0)
(3.59678e-06 -7.96351e-07 0)
(3.79736e-06 -7.50511e-07 0)
(3.99515e-06 -7.10814e-07 0)
(4.18528e-06 -6.78239e-07 0)
(4.37084e-06 -6.50282e-07 0)
(4.55152e-06 -6.25716e-07 0)
(4.72833e-06 -6.03361e-07 0)
(4.90168e-06 -5.82255e-07 0)
(5.07209e-06 -5.61606e-07 0)
(5.23995e-06 -5.40708e-07 0)
(5.40558e-06 -5.18929e-07 0)
(5.56921e-06 -4.9567e-07 0)
(5.73106e-06 -4.70373e-07 0)
(5.89132e-06 -4.42483e-07 0)
(6.05007e-06 -4.11368e-07 0)
(6.20734e-06 -3.76382e-07 0)
(6.36332e-06 -3.36728e-07 0)
(6.51759e-06 -2.91592e-07 0)
(6.67073e-06 -2.39751e-07 0)
(6.82162e-06 -1.80582e-07 0)
(3.27574e-06 -9.65439e-07 0)
(3.49784e-06 -9.02807e-07 0)
(3.71503e-06 -8.50417e-07 0)
(3.92424e-06 -8.06287e-07 0)
(4.12716e-06 -7.68736e-07 0)
(4.32413e-06 -7.35949e-07 0)
(4.51589e-06 -7.06613e-07 0)
(4.70305e-06 -6.79513e-07 0)
(4.8862e-06 -6.53635e-07 0)
(5.06583e-06 -6.28082e-07 0)
(5.24236e-06 -6.02057e-07 0)
(5.41614e-06 -5.74822e-07 0)
(5.58748e-06 -5.45696e-07 0)
(5.75667e-06 -5.14008e-07 0)
(5.92385e-06 -4.79013e-07 0)
(6.08916e-06 -4.39963e-07 0)
(6.25282e-06 -3.95936e-07 0)
(6.41459e-06 -3.46002e-07 0)
(6.57509e-06 -2.88795e-07 0)
(6.73347e-06 -2.23588e-07 0)
(3.03461e-06 -1.12988e-06 0)
(3.27278e-06 -1.0525e-06 0)
(3.50238e-06 -9.90182e-07 0)
(3.72375e-06 -9.36606e-07 0)
(3.93778e-06 -8.90475e-07 0)
(4.14521e-06 -8.49904e-07 0)
(4.34676e-06 -8.13497e-07 0)
(4.54306e-06 -7.79984e-07 0)
(4.73472e-06 -7.4826e-07 0)
(4.92225e-06 -7.17346e-07 0)
(5.10611e-06 -6.8636e-07 0)
(5.28667e-06 -6.54487e-07 0)
(5.46431e-06 -6.20965e-07 0)
(5.63934e-06 -5.8504e-07 0)
(5.81195e-06 -5.45899e-07 0)
(5.98239e-06 -5.02727e-07 0)
(6.15088e-06 -4.54543e-07 0)
(6.31737e-06 -4.00372e-07 0)
(6.48248e-06 -3.38814e-07 0)
(6.64564e-06 -2.69093e-07 0)
(2.89792e-06 -1.26451e-06 0)
(3.13754e-06 -1.18383e-06 0)
(3.36926e-06 -1.11563e-06 0)
(3.59392e-06 -1.05597e-06 0)
(3.81167e-06 -1.00364e-06 0)
(4.02303e-06 -9.57009e-07 0)
(4.22853e-06 -9.14731e-07 0)
(4.42868e-06 -8.75594e-07 0)
(4.624e-06 -8.38517e-07 0)
(4.81495e-06 -8.02526e-07 0)
(5.00196e-06 -7.66731e-07 0)
(5.18538e-06 -7.30304e-07 0)
(5.36562e-06 -6.92463e-07 0)
(5.543e-06 -6.5243e-07 0)
(5.71769e-06 -6.09383e-07 0)
(5.89003e-06 -5.62496e-07 0)
(6.06023e-06 -5.10803e-07 0)
(6.2284e-06 -4.53357e-07 0)
(6.39513e-06 -3.88823e-07 0)
(6.5601e-06 -3.16418e-07 0)
(2.7822e-06 -1.39309e-06 0)
(3.01924e-06 -1.3108e-06 0)
(3.25053e-06 -1.23901e-06 0)
(3.47576e-06 -1.17482e-06 0)
(3.69498e-06 -1.11739e-06 0)
(3.90829e-06 -1.06544e-06 0)
(4.11607e-06 -1.0178e-06 0)
(4.31865e-06 -9.73374e-07 0)
(4.51642e-06 -9.31159e-07 0)
(4.70978e-06 -8.90223e-07 0)
(4.89909e-06 -8.49695e-07 0)
(5.08468e-06 -8.08756e-07 0)
(5.26695e-06 -7.66625e-07 0)
(5.44618e-06 -7.22521e-07 0)
(5.62258e-06 -6.75633e-07 0)
(5.79652e-06 -6.25146e-07 0)
(5.96821e-06 -5.7013e-07 0)
(6.13791e-06 -5.09684e-07 0)
(6.30611e-06 -4.42545e-07 0)
(6.47276e-06 -3.67943e-07 0)
(2.68059e-06 -1.5167e-06 0)
(2.91406e-06 -1.43373e-06 0)
(3.1433e-06 -1.35938e-06 0)
(3.36746e-06 -1.29159e-06 0)
(3.58653e-06 -1.22987e-06 0)
(3.80032e-06 -1.17326e-06 0)
(4.00906e-06 -1.12078e-06 0)
(4.2129e-06 -1.07149e-06 0)
(4.41211e-06 -1.02448e-06 0)
(4.60701e-06 -9.78865e-07 0)
(4.7979e-06 -9.33827e-07 0)
(4.98505e-06 -8.88571e-07 0)
(5.16883e-06 -8.42337e-07 0)
(5.34951e-06 -7.94358e-07 0)
(5.52729e-06 -7.43845e-07 0)
(5.70258e-06 -6.90012e-07 0)
(5.87558e-06 -6.3198e-07 0)
(6.04663e-06 -5.68903e-07 0)
(6.21618e-06 -4.99587e-07 0)
(6.38438e-06 -4.23342e-07 0)
(2.59118e-06 -1.6351e-06 0)
(2.82029e-06 -1.55208e-06 0)
(3.04638e-06 -1.47613e-06 0)
(3.2683e-06 -1.40569e-06 0)
(3.48598e-06 -1.34054e-06 0)
(3.69907e-06 -1.28e-06 0)
(3.90767e-06 -1.2233e-06 0)
(4.11175e-06 -1.16965e-06 0)
(4.31152e-06 -1.11823e-06 0)
(4.50718e-06 -1.06827e-06 0)
(4.69898e-06 -1.01899e-06 0)
(4.88712e-06 -9.69657e-07 0)
(5.07194e-06 -9.19538e-07 0)
(5.25368e-06 -8.67896e-07 0)
(5.43254e-06 -8.13981e-07 0)
(5.60894e-06 -7.57045e-07 0)
(5.78305e-06 -6.96271e-07 0)
(5.95527e-06 -6.30866e-07 0)
(6.12603e-06 -5.59739e-07 0)
(6.29566e-06 -4.82355e-07 0)
(2.5117e-06 -1.74844e-06 0)
(2.73606e-06 -1.66586e-06 0)
(2.95838e-06 -1.58895e-06 0)
(3.17724e-06 -1.51656e-06 0)
(3.39267e-06 -1.44868e-06 0)
(3.60418e-06 -1.38486e-06 0)
(3.81176e-06 -1.32453e-06 0)
(4.01527e-06 -1.26702e-06 0)
(4.21483e-06 -1.21165e-06 0)
(4.4106e-06 -1.15773e-06 0)
(4.60271e-06 -1.10456e-06 0)
(4.79133e-06 -1.05145e-06 0)
(4.97677e-06 -9.97728e-07 0)
(5.15921e-06 -9.42701e-07 0)
(5.33887e-06 -8.85657e-07 0)
(5.51611e-06 -8.25902e-07 0)
(5.69114e-06 -7.62679e-07 0)
(5.86437e-06 -6.95265e-07 0)
(6.03621e-06 -6.22714e-07 0)
(6.20711e-06 -5.44643e-07 0)
(2.44047e-06 -1.85693e-06 0)
(2.65988e-06 -1.77512e-06 0)
(2.87801e-06 -1.69774e-06 0)
(3.09331e-06 -1.62399e-06 0)
(3.30588e-06 -1.55402e-06 0)
(3.51515e-06 -1.48754e-06 0)
(3.72104e-06 -1.42412e-06 0)
(3.92334e-06 -1.36327e-06 0)
(4.12211e-06 -1.3044e-06 0)
(4.31741e-06 -1.24693e-06 0)
(4.50934e-06 -1.19024e-06 0)
(4.69801e-06 -1.13369e-06 0)
(4.88368e-06 -1.07668e-06 0)
(5.0665e-06 -1.01855e-06 0)
(5.24667e-06 -9.5866e-07 0)
(5.42454e-06 -8.96358e-07 0)
(5.60029e-06 -8.30967e-07 0)
(5.77437e-06 -7.6185e-07 0)
(5.94716e-06 -6.88236e-07 0)
(6.11916e-06 -6.09795e-07 0)
(2.376e-06 -1.96085e-06 0)
(2.59042e-06 -1.88e-06 0)
(2.80413e-06 -1.80253e-06 0)
(3.01556e-06 -1.7279e-06 0)
(3.22487e-06 -1.65634e-06 0)
(3.43144e-06 -1.5877e-06 0)
(3.63515e-06 -1.52172e-06 0)
(3.83574e-06 -1.45801e-06 0)
(4.03322e-06 -1.39609e-06 0)
(4.22761e-06 -1.33549e-06 0)
(4.41894e-06 -1.27565e-06 0)
(4.60727e-06 -1.21602e-06 0)
(4.79286e-06 -1.15604e-06 0)
(4.97576e-06 -1.09512e-06 0)
(5.1562e-06 -1.03267e-06 0)
(5.33448e-06 -9.68101e-07 0)
(5.51079e-06 -9.00832e-07 0)
(5.68557e-06 -8.30322e-07 0)
(5.85916e-06 -7.55951e-07 0)
(6.0321e-06 -6.77357e-07 0)
(2.31696e-06 -2.0605e-06 0)
(2.52644e-06 -1.98075e-06 0)
(2.73564e-06 -1.90346e-06 0)
(2.94306e-06 -1.82829e-06 0)
(3.14885e-06 -1.75557e-06 0)
(3.35241e-06 -1.68522e-06 0)
(3.5536e-06 -1.61712e-06 0)
(3.75213e-06 -1.55099e-06 0)
(3.94797e-06 -1.48645e-06 0)
(4.14109e-06 -1.42312e-06 0)
(4.33148e-06 -1.36052e-06 0)
(4.51917e-06 -1.29817e-06 0)
(4.70438e-06 -1.23556e-06 0)
(4.88713e-06 -1.17216e-06 0)
(5.06763e-06 -1.10743e-06 0)
(5.24615e-06 -1.0409e-06 0)
(5.42286e-06 -9.72042e-07 0)
(5.5982e-06 -9.00424e-07 0)
(5.77245e-06 -8.25507e-07 0)
(5.94616e-06 -7.46978e-07 0)
(2.26216e-06 -2.15621e-06 0)
(2.46682e-06 -2.07763e-06 0)
(2.67153e-06 -2.0007e-06 0)
(2.87489e-06 -1.92526e-06 0)
(3.07704e-06 -1.85168e-06 0)
(3.27741e-06 -1.78e-06 0)
(3.47586e-06 -1.71018e-06 0)
(3.67209e-06 -1.64203e-06 0)
(3.86602e-06 -1.57529e-06 0)
(4.05762e-06 -1.50963e-06 0)
(4.24682e-06 -1.44465e-06 0)
(4.43364e-06 -1.37993e-06 0)
(4.61826e-06 -1.31502e-06 0)
(4.80066e-06 -1.24945e-06 0)
(4.98103e-06 -1.18276e-06 0)
(5.15964e-06 -1.11455e-06 0)
(5.33662e-06 -1.04438e-06 0)
(5.51239e-06 -9.71883e-07 0)
(5.68715e-06 -8.96578e-07 0)
(5.8615e-06 -8.18347e-07 0)
(2.21058e-06 -2.24834e-06 0)
(2.41057e-06 -2.17093e-06 0)
(2.61087e-06 -2.09445e-06 0)
(2.81019e-06 -2.01893e-06 0)
(3.00866e-06 -1.94477e-06 0)
(3.20578e-06 -1.87207e-06 0)
(3.40138e-06 -1.80089e-06 0)
(3.59515e-06 -1.73111e-06 0)
(3.78702e-06 -1.66253e-06 0)
(3.97692e-06 -1.59491e-06 0)
(4.16476e-06 -1.5279e-06 0)
(4.35054e-06 -1.46115e-06 0)
(4.53438e-06 -1.39425e-06 0)
(4.71628e-06 -1.32682e-06 0)
(4.89641e-06 -1.25847e-06 0)
(5.07499e-06 -1.18885e-06 0)
(5.25211e-06 -1.1176e-06 0)
(5.42817e-06 -1.0444e-06 0)
(5.60334e-06 -9.68881e-07 0)
(5.7782e-06 -8.91077e-07 0)
(2.1613e-06 -2.33719e-06 0)
(2.35679e-06 -2.26089e-06 0)
(2.5528e-06 -2.18493e-06 0)
(2.74815e-06 -2.10947e-06 0)
(2.943e-06 -2.03494e-06 0)
(3.13686e-06 -1.96151e-06 0)
(3.32958e-06 -1.88928e-06 0)
(3.52084e-06 -1.81819e-06 0)
(3.71056e-06 -1.74813e-06 0)
(3.89866e-06 -1.67887e-06 0)
(4.08503e-06 -1.61015e-06 0)
(4.26964e-06 -1.54168e-06 0)
(4.45262e-06 -1.47311e-06 0)
(4.63392e-06 -1.40411e-06 0)
(4.8137e-06 -1.33438e-06 0)
(4.99215e-06 -1.2636e-06 0)
(5.16931e-06 -1.19147e-06 0)
(5.34556e-06 -1.11772e-06 0)
(5.52104e-06 -1.04219e-06 0)
(5.69629e-06 -9.64825e-07 0)
(2.11347e-06 -2.42302e-06 0)
(2.30466e-06 -2.34775e-06 0)
(2.49652e-06 -2.27236e-06 0)
(2.68806e-06 -2.19708e-06 0)
(2.87937e-06 -2.12237e-06 0)
(3.07003e-06 -2.04842e-06 0)
(3.25989e-06 -1.9754e-06 0)
(3.44865e-06 -1.90329e-06 0)
(3.6362e-06 -1.83204e-06 0)
(3.82248e-06 -1.76146e-06 0)
(4.00732e-06 -1.69135e-06 0)
(4.19073e-06 -1.62147e-06 0)
(4.37278e-06 -1.55153e-06 0)
(4.55343e-06 -1.48126e-06 0)
(4.73279e-06 -1.4104e-06 0)
(4.91102e-06 -1.33867e-06 0)
(5.08813e-06 -1.26584e-06 0)
(5.26449e-06 -1.19171e-06 0)
(5.44018e-06 -1.11627e-06 0)
(5.61571e-06 -1.03938e-06 0)
(2.06634e-06 -2.50607e-06 0)
(2.25341e-06 -2.43179e-06 0)
(2.44132e-06 -2.35697e-06 0)
(2.62918e-06 -2.28195e-06 0)
(2.81709e-06 -2.2072e-06 0)
(3.00467e-06 -2.13293e-06 0)
(3.19176e-06 -2.05936e-06 0)
(3.37808e-06 -1.98649e-06 0)
(3.56352e-06 -1.91433e-06 0)
(3.74798e-06 -1.84273e-06 0)
(3.93132e-06 -1.77151e-06 0)
(4.11351e-06 -1.7005e-06 0)
(4.29463e-06 -1.62946e-06 0)
(4.47461e-06 -1.55817e-06 0)
(4.6535e-06 -1.48639e-06 0)
(4.83145e-06 -1.4139e-06 0)
(5.00846e-06 -1.34052e-06 0)
(5.18486e-06 -1.2662e-06 0)
(5.3607e-06 -1.19083e-06 0)
(5.53642e-06 -1.11446e-06 0)
(2.01912e-06 -2.58661e-06 0)
(2.20229e-06 -2.51325e-06 0)
(2.38644e-06 -2.43901e-06 0)
(2.57081e-06 -2.36431e-06 0)
(2.75549e-06 -2.28963e-06 0)
(2.94016e-06 -2.21523e-06 0)
(3.12463e-06 -2.14131e-06 0)
(3.30863e-06 -2.06792e-06 0)
(3.49205e-06 -1.99507e-06 0)
(3.67478e-06 -1.92267e-06 0)
(3.85668e-06 -1.85062e-06 0)
(4.03772e-06 -1.77876e-06 0)
(4.21794e-06 -1.70688e-06 0)
(4.39722e-06 -1.63479e-06 0)
(4.57563e-06 -1.56229e-06 0)
(4.75327e-06 -1.48921e-06 0)
(4.93016e-06 -1.41546e-06 0)
(5.10656e-06 -1.34101e-06 0)
(5.28249e-06 -1.26575e-06 0)
(5.4583e-06 -1.18985e-06 0)
(1.9711e-06 -2.66486e-06 0)
(2.15055e-06 -2.5924e-06 0)
(2.33112e-06 -2.51865e-06 0)
(2.51225e-06 -2.44434e-06 0)
(2.69394e-06 -2.36987e-06 0)
(2.87592e-06 -2.29548e-06 0)
(3.05796e-06 -2.22138e-06 0)
(3.23981e-06 -2.14766e-06 0)
(3.42135e-06 -2.07436e-06 0)
(3.6025e-06 -2.00142e-06 0)
(3.78309e-06 -1.92878e-06 0)
(3.96306e-06 -1.85629e-06 0)
(4.14241e-06 -1.78377e-06 0)
(4.32102e-06 -1.71107e-06 0)
(4.49895e-06 -1.63803e-06 0)
(4.67631e-06 -1.56454e-06 0)
(4.85307e-06 -1.49056e-06 0)
(5.02943e-06 -1.41597e-06 0)
(5.20536e-06 -1.34086e-06 0)
(5.3812e-06 -1.26537e-06 0)
(1.92149e-06 -2.74107e-06 0)
(2.09732e-06 -2.66924e-06 0)
(2.27448e-06 -2.59617e-06 0)
(2.45279e-06 -2.52238e-06 0)
(2.63177e-06 -2.44819e-06 0)
(2.81133e-06 -2.37391e-06 0)
(2.9912e-06 -2.29979e-06 0)
(3.17113e-06 -2.22592e-06 0)
(3.35103e-06 -2.15237e-06 0)
(3.53079e-06 -2.07911e-06 0)
(3.71023e-06 -2.00607e-06 0)
(3.88922e-06 -1.93313e-06 0)
(4.06777e-06 -1.86016e-06 0)
(4.24578e-06 -1.78703e-06 0)
(4.4233e-06 -1.71364e-06 0)
(4.60042e-06 -1.63987e-06 0)
(4.777e-06 -1.56567e-06 0)
(4.95321e-06 -1.49099e-06 0)
(5.12912e-06 -1.41605e-06 0)
(5.30509e-06 -1.34091e-06 0)
(1.86913e-06 -2.81514e-06 0)
(2.04188e-06 -2.74408e-06 0)
(2.21626e-06 -2.67182e-06 0)
(2.39182e-06 -2.59854e-06 0)
(2.56843e-06 -2.52475e-06 0)
(2.74586e-06 -2.45072e-06 0)
(2.92386e-06 -2.37671e-06 0)
(3.1022e-06 -2.30287e-06 0)
(3.28075e-06 -2.22925e-06 0)
(3.45936e-06 -2.15583e-06 0)
(3.63778e-06 -2.08255e-06 0)
(3.81591e-06 -2.00935e-06 0)
(3.99381e-06 -1.93612e-06 0)
(4.17138e-06 -1.86272e-06 0)
(4.34854e-06 -1.78906e-06 0)
(4.52528e-06 -1.71509e-06 0)
(4.70163e-06 -1.64073e-06 0)
(4.87786e-06 -1.56606e-06 0)
(5.05376e-06 -1.49122e-06 0)
(5.22954e-06 -1.41634e-06 0)
(1.81331e-06 -2.88789e-06 0)
(1.98325e-06 -2.8177e-06 0)
(2.1551e-06 -2.74604e-06 0)
(2.32842e-06 -2.67333e-06 0)
(2.50306e-06 -2.59999e-06 0)
(2.6788e-06 -2.52633e-06 0)
(2.85542e-06 -2.45258e-06 0)
(3.0326e-06 -2.37887e-06 0)
(3.21012e-06 -2.30527e-06 0)
(3.38779e-06 -2.23181e-06 0)
(3.56545e-06 -2.15845e-06 0)
(3.74305e-06 -2.08512e-06 0)
(3.92048e-06 -2.01171e-06 0)
(4.09752e-06 -1.93814e-06 0)
(4.27428e-06 -1.86433e-06 0)
(4.45086e-06 -1.7902e-06 0)
(4.62705e-06 -1.71574e-06 0)
(4.8031e-06 -1.64107e-06 0)
(4.97897e-06 -1.56626e-06 0)
(5.15471e-06 -1.49157e-06 0)
(1.7533e-06 -2.9587e-06 0)
(1.92077e-06 -2.88949e-06 0)
(2.09048e-06 -2.81871e-06 0)
(2.26203e-06 -2.74673e-06 0)
(2.43528e-06 -2.67402e-06 0)
(2.60993e-06 -2.60086e-06 0)
(2.78562e-06 -2.52747e-06 0)
(2.96197e-06 -2.45402e-06 0)
(3.13882e-06 -2.38058e-06 0)
(3.31605e-06 -2.30719e-06 0)
(3.49331e-06 -2.23384e-06 0)
(3.67042e-06 -2.16047e-06 0)
(3.84744e-06 -2.08697e-06 0)
(4.02421e-06 -2.01329e-06 0)
(4.20064e-06 -1.93939e-06 0)
(4.37692e-06 -1.86516e-06 0)
(4.55295e-06 -1.79068e-06 0)
(4.72884e-06 -1.71593e-06 0)
(4.90467e-06 -1.64112e-06 0)
(5.08027e-06 -1.56646e-06 0)
(1.27002e-07 -2.49473e-06 0)
(3.82621e-07 -2.45854e-06 0)
(6.43067e-07 -2.38735e-06 0)
(9.1101e-07 -2.28433e-06 0)
(1.18864e-06 -2.1532e-06 0)
(1.47734e-06 -1.99902e-06 0)
(1.7776e-06 -1.82734e-06 0)
(2.08891e-06 -1.64399e-06 0)
(2.41039e-06 -1.45485e-06 0)
(2.73928e-06 -1.26451e-06 0)
(1.2375e-07 -2.53753e-06 0)
(3.72596e-07 -2.50453e-06 0)
(6.25415e-07 -2.43949e-06 0)
(8.84421e-07 -2.34519e-06 0)
(1.15143e-06 -2.22475e-06 0)
(1.42759e-06 -2.08246e-06 0)
(1.7133e-06 -1.92307e-06 0)
(2.00804e-06 -1.75161e-06 0)
(2.31038e-06 -1.57348e-06 0)
(2.61818e-06 -1.39278e-06 0)
(1.20809e-07 -2.58157e-06 0)
(3.63522e-07 -2.55144e-06 0)
(6.09405e-07 -2.49196e-06 0)
(8.6024e-07 -2.40561e-06 0)
(1.11751e-06 -2.29506e-06 0)
(1.38215e-06 -2.16398e-06 0)
(1.65453e-06 -2.01648e-06 0)
(1.93454e-06 -1.85677e-06 0)
(2.22102e-06 -1.68963e-06 0)
(2.51267e-06 -1.51778e-06 0)
(1.18138e-07 -2.62679e-06 0)
(3.55343e-07 -2.59909e-06 0)
(5.9514e-07 -2.54433e-06 0)
(8.38965e-07 -2.46473e-06 0)
(1.08805e-06 -2.36262e-06 0)
(1.3431e-06 -2.2412e-06 0)
(1.60439e-06 -2.10416e-06 0)
(1.87177e-06 -1.95517e-06 0)
(2.14423e-06 -1.79877e-06 0)
(2.42071e-06 -1.63704e-06 0)
(1.15669e-07 -2.67312e-06 0)
(3.47721e-07 -2.6476e-06 0)
(5.81925e-07 -2.59705e-06 0)
(8.19384e-07 -2.52349e-06 0)
(1.06113e-06 -2.42903e-06 0)
(1.30772e-06 -2.31645e-06 0)
(1.55937e-06 -2.18906e-06 0)
(1.81599e-06 -2.05004e-06 0)
(2.07676e-06 -1.90348e-06 0)
(2.3403e-06 -1.75125e-06 0)
(1.13368e-07 -2.72049e-06 0)
(3.40624e-07 -2.69683e-06 0)
(5.69684e-07 -2.64997e-06 0)
(8.01406e-07 -2.58169e-06 0)
(1.03664e-06 -2.49393e-06 0)
(1.27584e-06 -2.38917e-06 0)
(1.51911e-06 -2.27043e-06 0)
(1.76629e-06 -2.14056e-06 0)
(2.0169e-06 -2.00324e-06 0)
(2.26919e-06 -1.86034e-06 0)
(1.1113e-07 -2.76883e-06 0)
(3.33841e-07 -2.74682e-06 0)
(5.58039e-07 -2.70327e-06 0)
(7.84445e-07 -2.63968e-06 0)
(1.01375e-06 -2.55794e-06 0)
(1.24633e-06 -2.46023e-06 0)
(1.48228e-06 -2.34932e-06 0)
(1.72127e-06 -2.22777e-06 0)
(1.96311e-06 -2.09886e-06 0)
(2.20575e-06 -1.96459e-06 0)
(1.0897e-07 -2.81802e-06 0)
(3.27305e-07 -2.79745e-06 0)
(5.46868e-07 -2.75684e-06 0)
(7.68301e-07 -2.69742e-06 0)
(9.92189e-07 -2.62102e-06 0)
(1.21877e-06 -2.52964e-06 0)
(1.44816e-06 -2.42579e-06 0)
(1.67993e-06 -2.31182e-06 0)
(1.91409e-06 -2.19062e-06 0)
(2.14845e-06 -2.06435e-06 0)
(1.06882e-07 -2.86796e-06 0)
(3.20908e-07 -2.8487e-06 0)
(5.35985e-07 -2.8107e-06 0)
(7.52686e-07 -2.75504e-06 0)
(9.71493e-07 -2.68346e-06 0)
(1.19259e-06 -2.59778e-06 0)
(1.41606e-06 -2.50028e-06 0)
(1.6414e-06 -2.39317e-06 0)
(1.86878e-06 -2.279e-06 0)
(2.09599e-06 -2.16003e-06 0)
(1.04804e-07 -2.91857e-06 0)
(3.14562e-07 -2.90044e-06 0)
(5.25263e-07 -2.86479e-06 0)
(7.37416e-07 -2.81252e-06 0)
(9.5139e-07 -2.74527e-06 0)
(1.16738e-06 -2.66472e-06 0)
(1.38541e-06 -2.57297e-06 0)
(1.60496e-06 -2.47208e-06 0)
(1.82627e-06 -2.36433e-06 0)
(2.04722e-06 -2.25202e-06 0)
(1.02682e-07 -2.96971e-06 0)
(3.08197e-07 -2.95259e-06 0)
(5.14571e-07 -2.91906e-06 0)
(7.22272e-07 -2.86988e-06 0)
(9.31592e-07 -2.80655e-06 0)
(1.14272e-06 -2.73064e-06 0)
(1.3557e-06 -2.64409e-06 0)
(1.56995e-06 -2.54886e-06 0)
(1.78576e-06 -2.44696e-06 0)
(2.00118e-06 -2.34067e-06 0)
(1.00522e-07 -3.02123e-06 0)
(3.01779e-07 -3.00504e-06 0)
(5.03816e-07 -2.97345e-06 0)
(7.07076e-07 -2.92707e-06 0)
(9.11848e-07 -2.8673e-06 0)
(1.11829e-06 -2.79561e-06 0)
(1.32646e-06 -2.71379e-06 0)
(1.5358e-06 -2.6237e-06 0)
(1.74656e-06 -2.52711e-06 0)
(1.95702e-06 -2.42627e-06 0)
(9.83326e-08 -3.07301e-06 0)
(2.9524e-07 -3.05771e-06 0)
(4.92863e-07 -3.02789e-06 0)
(6.9164e-07 -2.98405e-06 0)
(8.91894e-07 -2.92752e-06 0)
(1.09374e-06 -2.85968e-06 0)
(1.29727e-06 -2.78218e-06 0)
(1.50196e-06 -2.69675e-06 0)
(1.70803e-06 -2.605e-06 0)
(1.91397e-06 -2.50911e-06 0)
(9.60851e-08 -3.12493e-06 0)
(2.88474e-07 -3.11046e-06 0)
(4.81555e-07 -3.08223e-06 0)
(6.75763e-07 -3.04073e-06 0)
(8.71462e-07 -2.98717e-06 0)
(1.06875e-06 -2.92285e-06 0)
(1.26772e-06 -2.84931e-06 0)
(1.46793e-06 -2.76814e-06 0)
(1.66955e-06 -2.68083e-06 0)
(1.8713e-06 -2.58946e-06 0)
(9.3724e-08 -3.17687e-06 0)
(2.81364e-07 -3.16316e-06 0)
(4.69725e-07 -3.13638e-06 0)
(6.59229e-07 -3.09705e-06 0)
(8.50261e-07 -3.04624e-06 0)
(1.04293e-06 -2.98519e-06 0)
(1.23736e-06 -2.91526e-06 0)
(1.43317e-06 -2.83799e-06 0)
(1.63052e-06 -2.75479e-06 0)
(1.82828e-06 -2.66753e-06 0)
(9.12078e-08 -3.22856e-06 0)
(2.73826e-07 -3.21556e-06 0)
(4.57228e-07 -3.19015e-06 0)
(6.41813e-07 -3.15283e-06 0)
(8.2799e-07 -3.10457e-06 0)
(1.01592e-06 -3.04652e-06 0)
(1.20574e-06 -2.97996e-06 0)
(1.39719e-06 -2.90633e-06 0)
(1.59032e-06 -2.82693e-06 0)
(1.78424e-06 -2.74344e-06 0)
(8.85125e-08 -3.27993e-06 0)
(2.65776e-07 -3.26763e-06 0)
(4.43887e-07 -3.24349e-06 0)
(6.23254e-07 -3.20805e-06 0)
(8.04318e-07 -3.16219e-06 0)
(9.87295e-07 -3.10697e-06 0)
(1.17238e-06 -3.04357e-06 0)
(1.35935e-06 -2.97337e-06 0)
(1.54826e-06 -2.89747e-06 0)
(1.73834e-06 -2.81752e-06 0)
(8.56142e-08 -3.33047e-06 0)
(2.57112e-07 -3.31883e-06 0)
(4.29518e-07 -3.2959e-06 0)
(6.03288e-07 -3.26226e-06 0)
(7.78905e-07 -3.21867e-06 0)
(9.56652e-07 -3.16614e-06 0)
(1.13675e-06 -3.10576e-06 0)
(1.31905e-06 -3.0388e-06 0)
(1.50358e-06 -2.96624e-06 0)
(1.68978e-06 -2.88961e-06 0)
(8.24585e-08 -3.38043e-06 0)
(2.47661e-07 -3.36942e-06 0)
(4.13835e-07 -3.34768e-06 0)
(5.81515e-07 -3.31576e-06 0)
(7.5123e-07 -3.27437e-06 0)
(9.23344e-07 -3.22445e-06 0)
(1.0981e-06 -3.16699e-06 0)
(1.27543e-06 -3.10311e-06 0)
(1.45535e-06 -3.03379e-06 0)
(1.63755e-06 -2.96032e-06 0)
(7.90131e-08 -3.42842e-06 0)
(2.3734e-07 -3.418e-06 0)
(3.96702e-07 -3.39744e-06 0)
(5.57747e-07 -3.36723e-06 0)
(7.21069e-07 -3.32803e-06 0)
(8.87069e-07 -3.2807e-06 0)
(1.05603e-06 -3.22614e-06 0)
(1.22798e-06 -3.16533e-06 0)
(1.40303e-06 -3.09926e-06 0)
(1.58104e-06 -3.029e-06 0)
)


// ************************************************************************* //
