/*--------------------------------*- C++ -*----------------------------------*\
| =========                 |                                                 |
| \\      /  F ield         | foam-extend: Open Source CFD                    |
|  \\    /   O peration     | Version:     4.1                                |
|   \\  /    A nd           | Web:         http://www.foam-extend.org         |
|    \\/     M anipulation  |                                                 |
\*---------------------------------------------------------------------------*/
FoamFile
{
    version     2.0;
    format      ascii;
    class       vectorField;
    location    "8";
    object      solidsCellD_iteration227;
}
// * * * * * * * * * * * * * * * * * * * * * * * * * * * * * * * * * * * * * //


100000
(
(4.59743e-06 -1.90737e-06 0)
(4.55996e-06 -1.88176e-06 0)
(4.52413e-06 -1.85732e-06 0)
(4.4899e-06 -1.83413e-06 0)
(4.45719e-06 -1.81207e-06 0)
(4.42593e-06 -1.79111e-06 0)
(4.39607e-06 -1.77119e-06 0)
(4.36754e-06 -1.75226e-06 0)
(4.3403e-06 -1.73429e-06 0)
(4.31428e-06 -1.71722e-06 0)
(4.28943e-06 -1.70101e-06 0)
(4.26572e-06 -1.68563e-06 0)
(4.24308e-06 -1.67103e-06 0)
(4.22148e-06 -1.65719e-06 0)
(4.20089e-06 -1.64407e-06 0)
(4.18125e-06 -1.63163e-06 0)
(4.16253e-06 -1.61986e-06 0)
(4.14469e-06 -1.60871e-06 0)
(4.12771e-06 -1.59817e-06 0)
(4.11155e-06 -1.58821e-06 0)
(4.09618e-06 -1.57879e-06 0)
(4.08157e-06 -1.56991e-06 0)
(4.06769e-06 -1.56154e-06 0)
(4.05451e-06 -1.55365e-06 0)
(4.04201e-06 -1.54623e-06 0)
(4.03017e-06 -1.53926e-06 0)
(4.01896e-06 -1.53271e-06 0)
(4.00836e-06 -1.52658e-06 0)
(3.99835e-06 -1.52085e-06 0)
(3.9889e-06 -1.51549e-06 0)
(3.98e-06 -1.5105e-06 0)
(3.97163e-06 -1.50586e-06 0)
(3.96378e-06 -1.50156e-06 0)
(3.95641e-06 -1.49757e-06 0)
(3.94952e-06 -1.4939e-06 0)
(3.94309e-06 -1.49053e-06 0)
(3.93711e-06 -1.48744e-06 0)
(3.93156e-06 -1.48463e-06 0)
(3.92643e-06 -1.48209e-06 0)
(3.9217e-06 -1.4798e-06 0)
(3.91736e-06 -1.47776e-06 0)
(3.9134e-06 -1.47595e-06 0)
(3.90981e-06 -1.47437e-06 0)
(3.90657e-06 -1.47301e-06 0)
(3.90367e-06 -1.47186e-06 0)
(3.90111e-06 -1.47092e-06 0)
(3.89887e-06 -1.47017e-06 0)
(3.89694e-06 -1.4696e-06 0)
(3.89532e-06 -1.46922e-06 0)
(3.89398e-06 -1.46902e-06 0)
(3.89294e-06 -1.46898e-06 0)
(3.89217e-06 -1.4691e-06 0)
(3.89167e-06 -1.46938e-06 0)
(3.89142e-06 -1.46981e-06 0)
(3.89144e-06 -1.47038e-06 0)
(3.89169e-06 -1.47109e-06 0)
(3.89218e-06 -1.47194e-06 0)
(3.89291e-06 -1.47292e-06 0)
(3.89385e-06 -1.47402e-06 0)
(3.89502e-06 -1.47524e-06 0)
(3.8964e-06 -1.47658e-06 0)
(3.89798e-06 -1.47803e-06 0)
(3.89976e-06 -1.47958e-06 0)
(3.90173e-06 -1.48124e-06 0)
(3.90389e-06 -1.483e-06 0)
(3.90624e-06 -1.48486e-06 0)
(3.90876e-06 -1.4868e-06 0)
(3.91146e-06 -1.48884e-06 0)
(3.91432e-06 -1.49096e-06 0)
(3.91734e-06 -1.49317e-06 0)
(3.92053e-06 -1.49545e-06 0)
(3.92387e-06 -1.49781e-06 0)
(3.92736e-06 -1.50025e-06 0)
(3.93099e-06 -1.50275e-06 0)
(3.93477e-06 -1.50532e-06 0)
(3.93868e-06 -1.50796e-06 0)
(3.94273e-06 -1.51066e-06 0)
(3.94691e-06 -1.51342e-06 0)
(3.95121e-06 -1.51624e-06 0)
(3.95564e-06 -1.51912e-06 0)
(3.96019e-06 -1.52205e-06 0)
(3.96485e-06 -1.52503e-06 0)
(3.96963e-06 -1.52806e-06 0)
(3.97452e-06 -1.53113e-06 0)
(3.97951e-06 -1.53426e-06 0)
(3.98461e-06 -1.53742e-06 0)
(3.98981e-06 -1.54063e-06 0)
(3.99512e-06 -1.54388e-06 0)
(4.00051e-06 -1.54717e-06 0)
(4.006e-06 -1.55049e-06 0)
(4.01159e-06 -1.55385e-06 0)
(4.01726e-06 -1.55724e-06 0)
(4.02301e-06 -1.56067e-06 0)
(4.02885e-06 -1.56412e-06 0)
(4.03478e-06 -1.5676e-06 0)
(4.04078e-06 -1.57111e-06 0)
(4.04686e-06 -1.57465e-06 0)
(4.05302e-06 -1.57821e-06 0)
(4.05925e-06 -1.5818e-06 0)
(4.06556e-06 -1.58541e-06 0)
(4.56013e-06 -1.92281e-06 0)
(4.52226e-06 -1.89771e-06 0)
(4.48606e-06 -1.87376e-06 0)
(4.45147e-06 -1.85104e-06 0)
(4.41842e-06 -1.82942e-06 0)
(4.38684e-06 -1.80889e-06 0)
(4.35668e-06 -1.78937e-06 0)
(4.32786e-06 -1.77083e-06 0)
(4.30034e-06 -1.75323e-06 0)
(4.27405e-06 -1.73651e-06 0)
(4.24895e-06 -1.72063e-06 0)
(4.225e-06 -1.70557e-06 0)
(4.20213e-06 -1.69128e-06 0)
(4.18032e-06 -1.67774e-06 0)
(4.15951e-06 -1.66489e-06 0)
(4.13967e-06 -1.65273e-06 0)
(4.12076e-06 -1.64121e-06 0)
(4.10275e-06 -1.63031e-06 0)
(4.08559e-06 -1.62e-06 0)
(4.06927e-06 -1.61026e-06 0)
(4.05373e-06 -1.60106e-06 0)
(4.03897e-06 -1.59239e-06 0)
(4.02494e-06 -1.58421e-06 0)
(4.01163e-06 -1.57651e-06 0)
(3.99899e-06 -1.56927e-06 0)
(3.98702e-06 -1.56247e-06 0)
(3.97569e-06 -1.5561e-06 0)
(3.96497e-06 -1.55012e-06 0)
(3.95484e-06 -1.54454e-06 0)
(3.94529e-06 -1.53933e-06 0)
(3.93628e-06 -1.53448e-06 0)
(3.92782e-06 -1.52997e-06 0)
(3.91985e-06 -1.5258e-06 0)
(3.91238e-06 -1.52195e-06 0)
(3.9054e-06 -1.5184e-06 0)
(3.89889e-06 -1.51514e-06 0)
(3.89282e-06 -1.51216e-06 0)
(3.88719e-06 -1.50946e-06 0)
(3.88198e-06 -1.50702e-06 0)
(3.87717e-06 -1.50483e-06 0)
(3.87276e-06 -1.50288e-06 0)
(3.86872e-06 -1.50117e-06 0)
(3.86506e-06 -1.49968e-06 0)
(3.86175e-06 -1.49841e-06 0)
(3.85878e-06 -1.49734e-06 0)
(3.85615e-06 -1.49647e-06 0)
(3.85385e-06 -1.4958e-06 0)
(3.85186e-06 -1.49531e-06 0)
(3.85017e-06 -1.495e-06 0)
(3.84878e-06 -1.49486e-06 0)
(3.84767e-06 -1.49489e-06 0)
(3.84684e-06 -1.49508e-06 0)
(3.84628e-06 -1.49542e-06 0)
(3.84599e-06 -1.49591e-06 0)
(3.84594e-06 -1.49655e-06 0)
(3.84614e-06 -1.49732e-06 0)
(3.84658e-06 -1.49822e-06 0)
(3.84725e-06 -1.49925e-06 0)
(3.84815e-06 -1.5004e-06 0)
(3.84926e-06 -1.50168e-06 0)
(3.85058e-06 -1.50306e-06 0)
(3.85211e-06 -1.50456e-06 0)
(3.85384e-06 -1.50616e-06 0)
(3.85577e-06 -1.50787e-06 0)
(3.85788e-06 -1.50967e-06 0)
(3.86018e-06 -1.51157e-06 0)
(3.86265e-06 -1.51356e-06 0)
(3.8653e-06 -1.51564e-06 0)
(3.86811e-06 -1.5178e-06 0)
(3.87109e-06 -1.52004e-06 0)
(3.87422e-06 -1.52236e-06 0)
(3.87752e-06 -1.52476e-06 0)
(3.88096e-06 -1.52723e-06 0)
(3.88454e-06 -1.52977e-06 0)
(3.88827e-06 -1.53238e-06 0)
(3.89214e-06 -1.53505e-06 0)
(3.89614e-06 -1.53779e-06 0)
(3.90027e-06 -1.54059e-06 0)
(3.90452e-06 -1.54344e-06 0)
(3.9089e-06 -1.54635e-06 0)
(3.9134e-06 -1.54931e-06 0)
(3.91802e-06 -1.55232e-06 0)
(3.92275e-06 -1.55538e-06 0)
(3.92759e-06 -1.55849e-06 0)
(3.93254e-06 -1.56164e-06 0)
(3.93759e-06 -1.56484e-06 0)
(3.94274e-06 -1.56808e-06 0)
(3.948e-06 -1.57135e-06 0)
(3.95335e-06 -1.57467e-06 0)
(3.95879e-06 -1.57802e-06 0)
(3.96432e-06 -1.58141e-06 0)
(3.96994e-06 -1.58483e-06 0)
(3.97565e-06 -1.58828e-06 0)
(3.98144e-06 -1.59176e-06 0)
(3.98731e-06 -1.59527e-06 0)
(3.99327e-06 -1.59881e-06 0)
(3.99929e-06 -1.60238e-06 0)
(4.0054e-06 -1.60597e-06 0)
(4.01157e-06 -1.60958e-06 0)
(4.01783e-06 -1.61322e-06 0)
(4.52257e-06 -1.93814e-06 0)
(4.48432e-06 -1.91357e-06 0)
(4.44776e-06 -1.89012e-06 0)
(4.41282e-06 -1.86787e-06 0)
(4.37944e-06 -1.84671e-06 0)
(4.34755e-06 -1.82661e-06 0)
(4.31709e-06 -1.80751e-06 0)
(4.28799e-06 -1.78937e-06 0)
(4.2602e-06 -1.77214e-06 0)
(4.23366e-06 -1.75578e-06 0)
(4.20832e-06 -1.74025e-06 0)
(4.18413e-06 -1.72552e-06 0)
(4.16104e-06 -1.71154e-06 0)
(4.13902e-06 -1.69829e-06 0)
(4.11801e-06 -1.68574e-06 0)
(4.09798e-06 -1.67385e-06 0)
(4.07889e-06 -1.66259e-06 0)
(4.0607e-06 -1.65194e-06 0)
(4.04338e-06 -1.64187e-06 0)
(4.02689e-06 -1.63236e-06 0)
(4.0112e-06 -1.62338e-06 0)
(3.99629e-06 -1.61492e-06 0)
(3.98212e-06 -1.60694e-06 0)
(3.96867e-06 -1.59944e-06 0)
(3.95591e-06 -1.59238e-06 0)
(3.94382e-06 -1.58576e-06 0)
(3.93236e-06 -1.57955e-06 0)
(3.92153e-06 -1.57375e-06 0)
(3.91129e-06 -1.56832e-06 0)
(3.90162e-06 -1.56326e-06 0)
(3.89252e-06 -1.55855e-06 0)
(3.88394e-06 -1.55419e-06 0)
(3.87588e-06 -1.55014e-06 0)
(3.86833e-06 -1.54642e-06 0)
(3.86127e-06 -1.54299e-06 0)
(3.85466e-06 -1.53985e-06 0)
(3.84851e-06 -1.53699e-06 0)
(3.8428e-06 -1.5344e-06 0)
(3.83751e-06 -1.53206e-06 0)
(3.83263e-06 -1.52997e-06 0)
(3.82814e-06 -1.52812e-06 0)
(3.82403e-06 -1.5265e-06 0)
(3.8203e-06 -1.5251e-06 0)
(3.81692e-06 -1.52392e-06 0)
(3.81389e-06 -1.52294e-06 0)
(3.81119e-06 -1.52215e-06 0)
(3.80882e-06 -1.52155e-06 0)
(3.80677e-06 -1.52114e-06 0)
(3.80502e-06 -1.52091e-06 0)
(3.80357e-06 -1.52084e-06 0)
(3.80241e-06 -1.52094e-06 0)
(3.80152e-06 -1.52119e-06 0)
(3.80091e-06 -1.5216e-06 0)
(3.80055e-06 -1.52215e-06 0)
(3.80045e-06 -1.52284e-06 0)
(3.8006e-06 -1.52367e-06 0)
(3.80098e-06 -1.52463e-06 0)
(3.8016e-06 -1.52571e-06 0)
(3.80245e-06 -1.52692e-06 0)
(3.80351e-06 -1.52824e-06 0)
(3.80478e-06 -1.52968e-06 0)
(3.80626e-06 -1.53123e-06 0)
(3.80794e-06 -1.53288e-06 0)
(3.80982e-06 -1.53463e-06 0)
(3.81188e-06 -1.53647e-06 0)
(3.81413e-06 -1.53842e-06 0)
(3.81655e-06 -1.54045e-06 0)
(3.81915e-06 -1.54257e-06 0)
(3.82192e-06 -1.54477e-06 0)
(3.82485e-06 -1.54705e-06 0)
(3.82793e-06 -1.54942e-06 0)
(3.83118e-06 -1.55185e-06 0)
(3.83457e-06 -1.55436e-06 0)
(3.83811e-06 -1.55694e-06 0)
(3.84179e-06 -1.55958e-06 0)
(3.84561e-06 -1.56229e-06 0)
(3.84956e-06 -1.56506e-06 0)
(3.85364e-06 -1.56789e-06 0)
(3.85785e-06 -1.57077e-06 0)
(3.86219e-06 -1.57371e-06 0)
(3.86664e-06 -1.57671e-06 0)
(3.87121e-06 -1.57975e-06 0)
(3.87589e-06 -1.58284e-06 0)
(3.88068e-06 -1.58598e-06 0)
(3.88558e-06 -1.58916e-06 0)
(3.89058e-06 -1.59239e-06 0)
(3.89569e-06 -1.59566e-06 0)
(3.90089e-06 -1.59897e-06 0)
(3.90619e-06 -1.60231e-06 0)
(3.91159e-06 -1.60569e-06 0)
(3.91707e-06 -1.60911e-06 0)
(3.92264e-06 -1.61256e-06 0)
(3.9283e-06 -1.61603e-06 0)
(3.93404e-06 -1.61954e-06 0)
(3.93986e-06 -1.62308e-06 0)
(3.94576e-06 -1.62665e-06 0)
(3.95174e-06 -1.63024e-06 0)
(3.95779e-06 -1.63386e-06 0)
(3.96391e-06 -1.6375e-06 0)
(3.97011e-06 -1.64116e-06 0)
(4.48474e-06 -1.95336e-06 0)
(4.44612e-06 -1.92932e-06 0)
(4.40921e-06 -1.90639e-06 0)
(4.37394e-06 -1.88463e-06 0)
(4.34025e-06 -1.86394e-06 0)
(4.30806e-06 -1.84428e-06 0)
(4.27731e-06 -1.8256e-06 0)
(4.24794e-06 -1.80787e-06 0)
(4.21989e-06 -1.79102e-06 0)
(4.19311e-06 -1.77503e-06 0)
(4.16753e-06 -1.75985e-06 0)
(4.14312e-06 -1.74546e-06 0)
(4.11982e-06 -1.7318e-06 0)
(4.0976e-06 -1.71886e-06 0)
(4.07639e-06 -1.7066e-06 0)
(4.05618e-06 -1.69498e-06 0)
(4.03691e-06 -1.684e-06 0)
(4.01855e-06 -1.6736e-06 0)
(4.00107e-06 -1.66378e-06 0)
(3.98442e-06 -1.6545e-06 0)
(3.96859e-06 -1.64575e-06 0)
(3.95354e-06 -1.6375e-06 0)
(3.93923e-06 -1.62973e-06 0)
(3.92565e-06 -1.62242e-06 0)
(3.91277e-06 -1.61556e-06 0)
(3.90055e-06 -1.60912e-06 0)
(3.88898e-06 -1.60308e-06 0)
(3.87804e-06 -1.59744e-06 0)
(3.86769e-06 -1.59217e-06 0)
(3.85792e-06 -1.58727e-06 0)
(3.84872e-06 -1.58271e-06 0)
(3.84005e-06 -1.57848e-06 0)
(3.8319e-06 -1.57458e-06 0)
(3.82426e-06 -1.57098e-06 0)
(3.81711e-06 -1.56768e-06 0)
(3.81042e-06 -1.56466e-06 0)
(3.80419e-06 -1.56191e-06 0)
(3.7984e-06 -1.55943e-06 0)
(3.79303e-06 -1.5572e-06 0)
(3.78807e-06 -1.55522e-06 0)
(3.78351e-06 -1.55347e-06 0)
(3.77934e-06 -1.55194e-06 0)
(3.77553e-06 -1.55064e-06 0)
(3.77209e-06 -1.54954e-06 0)
(3.76899e-06 -1.54864e-06 0)
(3.76623e-06 -1.54794e-06 0)
(3.7638e-06 -1.54742e-06 0)
(3.76169e-06 -1.54709e-06 0)
(3.75988e-06 -1.54693e-06 0)
(3.75837e-06 -1.54693e-06 0)
(3.75715e-06 -1.5471e-06 0)
(3.75621e-06 -1.54742e-06 0)
(3.75554e-06 -1.54789e-06 0)
(3.75513e-06 -1.5485e-06 0)
(3.75498e-06 -1.54926e-06 0)
(3.75507e-06 -1.55014e-06 0)
(3.7554e-06 -1.55116e-06 0)
(3.75597e-06 -1.5523e-06 0)
(3.75676e-06 -1.55356e-06 0)
(3.75777e-06 -1.55494e-06 0)
(3.759e-06 -1.55642e-06 0)
(3.76043e-06 -1.55802e-06 0)
(3.76206e-06 -1.55972e-06 0)
(3.76388e-06 -1.56151e-06 0)
(3.7659e-06 -1.56341e-06 0)
(3.7681e-06 -1.56539e-06 0)
(3.77047e-06 -1.56747e-06 0)
(3.77302e-06 -1.56963e-06 0)
(3.77574e-06 -1.57187e-06 0)
(3.77863e-06 -1.5742e-06 0)
(3.78167e-06 -1.5766e-06 0)
(3.78486e-06 -1.57907e-06 0)
(3.78821e-06 -1.58162e-06 0)
(3.7917e-06 -1.58423e-06 0)
(3.79533e-06 -1.58691e-06 0)
(3.7991e-06 -1.58965e-06 0)
(3.80301e-06 -1.59246e-06 0)
(3.80704e-06 -1.59532e-06 0)
(3.81121e-06 -1.59824e-06 0)
(3.81549e-06 -1.60121e-06 0)
(3.8199e-06 -1.60424e-06 0)
(3.82442e-06 -1.60731e-06 0)
(3.82905e-06 -1.61043e-06 0)
(3.8338e-06 -1.6136e-06 0)
(3.83865e-06 -1.61682e-06 0)
(3.8436e-06 -1.62007e-06 0)
(3.84866e-06 -1.62337e-06 0)
(3.85382e-06 -1.62671e-06 0)
(3.85907e-06 -1.63008e-06 0)
(3.86441e-06 -1.63349e-06 0)
(3.86984e-06 -1.63694e-06 0)
(3.87537e-06 -1.64041e-06 0)
(3.88097e-06 -1.64392e-06 0)
(3.88666e-06 -1.64746e-06 0)
(3.89243e-06 -1.65102e-06 0)
(3.89828e-06 -1.65461e-06 0)
(3.90421e-06 -1.65823e-06 0)
(3.91021e-06 -1.66188e-06 0)
(3.91627e-06 -1.66555e-06 0)
(3.92242e-06 -1.66923e-06 0)
(4.44665e-06 -1.96846e-06 0)
(4.40767e-06 -1.94498e-06 0)
(4.37043e-06 -1.92257e-06 0)
(4.33484e-06 -1.90131e-06 0)
(4.30085e-06 -1.8811e-06 0)
(4.26837e-06 -1.86189e-06 0)
(4.23735e-06 -1.84365e-06 0)
(4.20772e-06 -1.82632e-06 0)
(4.17942e-06 -1.80987e-06 0)
(4.1524e-06 -1.79426e-06 0)
(4.1266e-06 -1.77944e-06 0)
(4.10198e-06 -1.76538e-06 0)
(4.07847e-06 -1.75206e-06 0)
(4.05605e-06 -1.73943e-06 0)
(4.03466e-06 -1.72746e-06 0)
(4.01427e-06 -1.71614e-06 0)
(3.99483e-06 -1.70542e-06 0)
(3.97631e-06 -1.69529e-06 0)
(3.95867e-06 -1.68572e-06 0)
(3.94188e-06 -1.67668e-06 0)
(3.92591e-06 -1.66816e-06 0)
(3.91072e-06 -1.66013e-06 0)
(3.89628e-06 -1.65257e-06 0)
(3.88258e-06 -1.64546e-06 0)
(3.86957e-06 -1.63879e-06 0)
(3.85724e-06 -1.63253e-06 0)
(3.84556e-06 -1.62667e-06 0)
(3.83451e-06 -1.6212e-06 0)
(3.82406e-06 -1.6161e-06 0)
(3.81419e-06 -1.61135e-06 0)
(3.80489e-06 -1.60694e-06 0)
(3.79613e-06 -1.60286e-06 0)
(3.78789e-06 -1.59909e-06 0)
(3.78017e-06 -1.59562e-06 0)
(3.77293e-06 -1.59245e-06 0)
(3.76616e-06 -1.58955e-06 0)
(3.75985e-06 -1.58693e-06 0)
(3.75399e-06 -1.58456e-06 0)
(3.74854e-06 -1.58244e-06 0)
(3.74351e-06 -1.58056e-06 0)
(3.73889e-06 -1.57891e-06 0)
(3.73464e-06 -1.57748e-06 0)
(3.73077e-06 -1.57627e-06 0)
(3.72726e-06 -1.57526e-06 0)
(3.72411e-06 -1.57445e-06 0)
(3.72129e-06 -1.57383e-06 0)
(3.71879e-06 -1.5734e-06 0)
(3.71662e-06 -1.57314e-06 0)
(3.71476e-06 -1.57306e-06 0)
(3.71319e-06 -1.57313e-06 0)
(3.71191e-06 -1.57337e-06 0)
(3.71092e-06 -1.57376e-06 0)
(3.71019e-06 -1.57429e-06 0)
(3.70973e-06 -1.57497e-06 0)
(3.70952e-06 -1.57579e-06 0)
(3.70957e-06 -1.57673e-06 0)
(3.70985e-06 -1.57781e-06 0)
(3.71036e-06 -1.579e-06 0)
(3.7111e-06 -1.58032e-06 0)
(3.71207e-06 -1.58175e-06 0)
(3.71324e-06 -1.58329e-06 0)
(3.71462e-06 -1.58493e-06 0)
(3.7162e-06 -1.58668e-06 0)
(3.71798e-06 -1.58852e-06 0)
(3.71995e-06 -1.59046e-06 0)
(3.7221e-06 -1.59249e-06 0)
(3.72443e-06 -1.59461e-06 0)
(3.72693e-06 -1.59681e-06 0)
(3.7296e-06 -1.5991e-06 0)
(3.73244e-06 -1.60146e-06 0)
(3.73543e-06 -1.6039e-06 0)
(3.73858e-06 -1.60641e-06 0)
(3.74188e-06 -1.609e-06 0)
(3.74532e-06 -1.61165e-06 0)
(3.74891e-06 -1.61436e-06 0)
(3.75263e-06 -1.61714e-06 0)
(3.75649e-06 -1.61998e-06 0)
(3.76048e-06 -1.62287e-06 0)
(3.76459e-06 -1.62583e-06 0)
(3.76883e-06 -1.62883e-06 0)
(3.77319e-06 -1.63189e-06 0)
(3.77766e-06 -1.635e-06 0)
(3.78225e-06 -1.63815e-06 0)
(3.78694e-06 -1.64135e-06 0)
(3.79174e-06 -1.64459e-06 0)
(3.79665e-06 -1.64788e-06 0)
(3.80166e-06 -1.65121e-06 0)
(3.80677e-06 -1.65457e-06 0)
(3.81197e-06 -1.65798e-06 0)
(3.81726e-06 -1.66141e-06 0)
(3.82265e-06 -1.66489e-06 0)
(3.82812e-06 -1.66839e-06 0)
(3.83368e-06 -1.67193e-06 0)
(3.83932e-06 -1.67549e-06 0)
(3.84504e-06 -1.67908e-06 0)
(3.85083e-06 -1.6827e-06 0)
(3.85671e-06 -1.68635e-06 0)
(3.86265e-06 -1.69002e-06 0)
(3.86867e-06 -1.69371e-06 0)
(3.87476e-06 -1.69742e-06 0)
(4.40829e-06 -1.98346e-06 0)
(4.36898e-06 -1.96054e-06 0)
(4.33141e-06 -1.93867e-06 0)
(4.29552e-06 -1.91792e-06 0)
(4.26124e-06 -1.89818e-06 0)
(4.22849e-06 -1.87944e-06 0)
(4.1972e-06 -1.86164e-06 0)
(4.16732e-06 -1.84474e-06 0)
(4.13879e-06 -1.82869e-06 0)
(4.11154e-06 -1.81345e-06 0)
(4.08553e-06 -1.799e-06 0)
(4.0607e-06 -1.7853e-06 0)
(4.037e-06 -1.7723e-06 0)
(4.01439e-06 -1.75999e-06 0)
(3.99283e-06 -1.74834e-06 0)
(3.97226e-06 -1.7373e-06 0)
(3.95266e-06 -1.72686e-06 0)
(3.93399e-06 -1.717e-06 0)
(3.9162e-06 -1.70768e-06 0)
(3.89927e-06 -1.69889e-06 0)
(3.88316e-06 -1.6906e-06 0)
(3.86783e-06 -1.68279e-06 0)
(3.85328e-06 -1.67545e-06 0)
(3.83945e-06 -1.66854e-06 0)
(3.82633e-06 -1.66207e-06 0)
(3.81389e-06 -1.656e-06 0)
(3.8021e-06 -1.65032e-06 0)
(3.79094e-06 -1.64503e-06 0)
(3.7804e-06 -1.64009e-06 0)
(3.77044e-06 -1.6355e-06 0)
(3.76104e-06 -1.63124e-06 0)
(3.75219e-06 -1.62731e-06 0)
(3.74387e-06 -1.62368e-06 0)
(3.73606e-06 -1.62035e-06 0)
(3.72874e-06 -1.6173e-06 0)
(3.7219e-06 -1.61453e-06 0)
(3.71552e-06 -1.61203e-06 0)
(3.70957e-06 -1.60977e-06 0)
(3.70406e-06 -1.60777e-06 0)
(3.69896e-06 -1.60599e-06 0)
(3.69427e-06 -1.60445e-06 0)
(3.68996e-06 -1.60312e-06 0)
(3.68602e-06 -1.602e-06 0)
(3.68245e-06 -1.60108e-06 0)
(3.67923e-06 -1.60036e-06 0)
(3.67635e-06 -1.59983e-06 0)
(3.6738e-06 -1.59948e-06 0)
(3.67157e-06 -1.5993e-06 0)
(3.66965e-06 -1.59929e-06 0)
(3.66803e-06 -1.59944e-06 0)
(3.6667e-06 -1.59975e-06 0)
(3.66565e-06 -1.6002e-06 0)
(3.66487e-06 -1.60081e-06 0)
(3.66436e-06 -1.60155e-06 0)
(3.6641e-06 -1.60243e-06 0)
(3.66409e-06 -1.60343e-06 0)
(3.66432e-06 -1.60457e-06 0)
(3.66479e-06 -1.60582e-06 0)
(3.66548e-06 -1.60719e-06 0)
(3.66639e-06 -1.60867e-06 0)
(3.66752e-06 -1.61026e-06 0)
(3.66885e-06 -1.61195e-06 0)
(3.67038e-06 -1.61375e-06 0)
(3.67211e-06 -1.61564e-06 0)
(3.67403e-06 -1.61762e-06 0)
(3.67614e-06 -1.6197e-06 0)
(3.67842e-06 -1.62186e-06 0)
(3.68087e-06 -1.62411e-06 0)
(3.6835e-06 -1.62643e-06 0)
(3.68628e-06 -1.62884e-06 0)
(3.68923e-06 -1.63132e-06 0)
(3.69233e-06 -1.63387e-06 0)
(3.69558e-06 -1.63649e-06 0)
(3.69898e-06 -1.63918e-06 0)
(3.70252e-06 -1.64193e-06 0)
(3.7062e-06 -1.64474e-06 0)
(3.71001e-06 -1.64762e-06 0)
(3.71395e-06 -1.65055e-06 0)
(3.71802e-06 -1.65353e-06 0)
(3.72221e-06 -1.65657e-06 0)
(3.72652e-06 -1.65966e-06 0)
(3.73095e-06 -1.6628e-06 0)
(3.73548e-06 -1.66598e-06 0)
(3.74013e-06 -1.66921e-06 0)
(3.74487e-06 -1.67248e-06 0)
(3.74974e-06 -1.6758e-06 0)
(3.7547e-06 -1.67916e-06 0)
(3.75976e-06 -1.68255e-06 0)
(3.76491e-06 -1.68599e-06 0)
(3.77016e-06 -1.68945e-06 0)
(3.77549e-06 -1.69295e-06 0)
(3.78091e-06 -1.69649e-06 0)
(3.78642e-06 -1.70005e-06 0)
(3.79201e-06 -1.70364e-06 0)
(3.79768e-06 -1.70726e-06 0)
(3.80342e-06 -1.71091e-06 0)
(3.80924e-06 -1.71458e-06 0)
(3.81514e-06 -1.71827e-06 0)
(3.8211e-06 -1.722e-06 0)
(3.82714e-06 -1.72573e-06 0)
(4.36968e-06 -1.99834e-06 0)
(4.33004e-06 -1.976e-06 0)
(4.29217e-06 -1.95467e-06 0)
(4.25599e-06 -1.93444e-06 0)
(4.22143e-06 -1.9152e-06 0)
(4.18841e-06 -1.89693e-06 0)
(4.15688e-06 -1.87958e-06 0)
(4.12676e-06 -1.8631e-06 0)
(4.098e-06 -1.84746e-06 0)
(4.07054e-06 -1.83262e-06 0)
(4.04432e-06 -1.81854e-06 0)
(4.01929e-06 -1.80519e-06 0)
(3.99541e-06 -1.79254e-06 0)
(3.97262e-06 -1.78055e-06 0)
(3.95089e-06 -1.76921e-06 0)
(3.93016e-06 -1.75847e-06 0)
(3.9104e-06 -1.74832e-06 0)
(3.89158e-06 -1.73872e-06 0)
(3.87365e-06 -1.72967e-06 0)
(3.85658e-06 -1.72112e-06 0)
(3.84034e-06 -1.71307e-06 0)
(3.8249e-06 -1.70549e-06 0)
(3.81022e-06 -1.69836e-06 0)
(3.79628e-06 -1.69167e-06 0)
(3.78304e-06 -1.68539e-06 0)
(3.7705e-06 -1.67952e-06 0)
(3.75861e-06 -1.67403e-06 0)
(3.74735e-06 -1.6689e-06 0)
(3.73671e-06 -1.66414e-06 0)
(3.72666e-06 -1.65971e-06 0)
(3.71718e-06 -1.65561e-06 0)
(3.70825e-06 -1.65182e-06 0)
(3.69984e-06 -1.64834e-06 0)
(3.69195e-06 -1.64514e-06 0)
(3.68456e-06 -1.64223e-06 0)
(3.67764e-06 -1.63959e-06 0)
(3.67118e-06 -1.6372e-06 0)
(3.66517e-06 -1.63507e-06 0)
(3.65959e-06 -1.63317e-06 0)
(3.65442e-06 -1.63151e-06 0)
(3.64966e-06 -1.63006e-06 0)
(3.64529e-06 -1.62884e-06 0)
(3.64129e-06 -1.62781e-06 0)
(3.63766e-06 -1.62699e-06 0)
(3.63438e-06 -1.62636e-06 0)
(3.63145e-06 -1.62591e-06 0)
(3.62884e-06 -1.62564e-06 0)
(3.62655e-06 -1.62555e-06 0)
(3.62458e-06 -1.62561e-06 0)
(3.6229e-06 -1.62584e-06 0)
(3.62152e-06 -1.62622e-06 0)
(3.62041e-06 -1.62675e-06 0)
(3.61958e-06 -1.62742e-06 0)
(3.61902e-06 -1.62822e-06 0)
(3.61871e-06 -1.62916e-06 0)
(3.61865e-06 -1.63023e-06 0)
(3.61883e-06 -1.63142e-06 0)
(3.61925e-06 -1.63273e-06 0)
(3.61989e-06 -1.63416e-06 0)
(3.62076e-06 -1.63569e-06 0)
(3.62183e-06 -1.63734e-06 0)
(3.62312e-06 -1.63908e-06 0)
(3.62461e-06 -1.64092e-06 0)
(3.62629e-06 -1.64286e-06 0)
(3.62816e-06 -1.6449e-06 0)
(3.63022e-06 -1.64702e-06 0)
(3.63245e-06 -1.64922e-06 0)
(3.63486e-06 -1.65151e-06 0)
(3.63744e-06 -1.65388e-06 0)
(3.64018e-06 -1.65632e-06 0)
(3.64308e-06 -1.65884e-06 0)
(3.64613e-06 -1.66143e-06 0)
(3.64934e-06 -1.66409e-06 0)
(3.65269e-06 -1.66681e-06 0)
(3.65618e-06 -1.6696e-06 0)
(3.65981e-06 -1.67245e-06 0)
(3.66357e-06 -1.67536e-06 0)
(3.66747e-06 -1.67833e-06 0)
(3.67148e-06 -1.68135e-06 0)
(3.67563e-06 -1.68442e-06 0)
(3.67991e-06 -1.68754e-06 0)
(3.68427e-06 -1.69071e-06 0)
(3.68876e-06 -1.69393e-06 0)
(3.69336e-06 -1.6972e-06 0)
(3.69806e-06 -1.70049e-06 0)
(3.70288e-06 -1.70382e-06 0)
(3.70781e-06 -1.70721e-06 0)
(3.71281e-06 -1.71064e-06 0)
(3.71791e-06 -1.7141e-06 0)
(3.7231e-06 -1.7176e-06 0)
(3.72838e-06 -1.72113e-06 0)
(3.73375e-06 -1.72469e-06 0)
(3.73921e-06 -1.72828e-06 0)
(3.74474e-06 -1.7319e-06 0)
(3.75036e-06 -1.73554e-06 0)
(3.75606e-06 -1.73922e-06 0)
(3.76183e-06 -1.74292e-06 0)
(3.76767e-06 -1.74664e-06 0)
(3.77358e-06 -1.75039e-06 0)
(3.77957e-06 -1.75414e-06 0)
(4.33082e-06 -2.01311e-06 0)
(4.29087e-06 -1.99135e-06 0)
(4.2527e-06 -1.97057e-06 0)
(4.21624e-06 -1.95087e-06 0)
(4.18142e-06 -1.93214e-06 0)
(4.14815e-06 -1.91435e-06 0)
(4.11638e-06 -1.89745e-06 0)
(4.08604e-06 -1.88142e-06 0)
(4.05706e-06 -1.86619e-06 0)
(4.02939e-06 -1.85175e-06 0)
(4.00298e-06 -1.83805e-06 0)
(3.97776e-06 -1.82507e-06 0)
(3.9537e-06 -1.81276e-06 0)
(3.93074e-06 -1.80111e-06 0)
(3.90885e-06 -1.79007e-06 0)
(3.88797e-06 -1.77964e-06 0)
(3.86806e-06 -1.76978e-06 0)
(3.8491e-06 -1.76046e-06 0)
(3.83103e-06 -1.75166e-06 0)
(3.81384e-06 -1.74337e-06 0)
(3.79747e-06 -1.73556e-06 0)
(3.78191e-06 -1.72822e-06 0)
(3.76711e-06 -1.72131e-06 0)
(3.75306e-06 -1.71483e-06 0)
(3.73973e-06 -1.70876e-06 0)
(3.72708e-06 -1.70308e-06 0)
(3.71509e-06 -1.69777e-06 0)
(3.70374e-06 -1.69283e-06 0)
(3.69301e-06 -1.68823e-06 0)
(3.68287e-06 -1.68397e-06 0)
(3.67331e-06 -1.68003e-06 0)
(3.66429e-06 -1.67639e-06 0)
(3.65581e-06 -1.67306e-06 0)
(3.64785e-06 -1.67e-06 0)
(3.64038e-06 -1.66722e-06 0)
(3.63339e-06 -1.66471e-06 0)
(3.62686e-06 -1.66245e-06 0)
(3.62078e-06 -1.66043e-06 0)
(3.61513e-06 -1.65865e-06 0)
(3.6099e-06 -1.6571e-06 0)
(3.60508e-06 -1.65576e-06 0)
(3.60065e-06 -1.65463e-06 0)
(3.59659e-06 -1.65371e-06 0)
(3.5929e-06 -1.65298e-06 0)
(3.58956e-06 -1.65244e-06 0)
(3.58657e-06 -1.65208e-06 0)
(3.58391e-06 -1.6519e-06 0)
(3.58157e-06 -1.65188e-06 0)
(3.57954e-06 -1.65203e-06 0)
(3.57781e-06 -1.65233e-06 0)
(3.57637e-06 -1.65278e-06 0)
(3.57522e-06 -1.65338e-06 0)
(3.57434e-06 -1.65412e-06 0)
(3.57372e-06 -1.65499e-06 0)
(3.57337e-06 -1.65599e-06 0)
(3.57326e-06 -1.65712e-06 0)
(3.57339e-06 -1.65838e-06 0)
(3.57376e-06 -1.65974e-06 0)
(3.57435e-06 -1.66122e-06 0)
(3.57517e-06 -1.66281e-06 0)
(3.5762e-06 -1.66451e-06 0)
(3.57744e-06 -1.6663e-06 0)
(3.57888e-06 -1.6682e-06 0)
(3.58052e-06 -1.67018e-06 0)
(3.58234e-06 -1.67226e-06 0)
(3.58435e-06 -1.67443e-06 0)
(3.58654e-06 -1.67668e-06 0)
(3.5889e-06 -1.67901e-06 0)
(3.59143e-06 -1.68142e-06 0)
(3.59413e-06 -1.68391e-06 0)
(3.59698e-06 -1.68646e-06 0)
(3.59999e-06 -1.68909e-06 0)
(3.60315e-06 -1.69179e-06 0)
(3.60645e-06 -1.69455e-06 0)
(3.6099e-06 -1.69738e-06 0)
(3.61348e-06 -1.70026e-06 0)
(3.6172e-06 -1.7032e-06 0)
(3.62104e-06 -1.7062e-06 0)
(3.62502e-06 -1.70926e-06 0)
(3.62912e-06 -1.71236e-06 0)
(3.63333e-06 -1.71552e-06 0)
(3.63766e-06 -1.71872e-06 0)
(3.6421e-06 -1.72197e-06 0)
(3.64665e-06 -1.72526e-06 0)
(3.65132e-06 -1.7286e-06 0)
(3.65608e-06 -1.73197e-06 0)
(3.66094e-06 -1.73538e-06 0)
(3.66589e-06 -1.73883e-06 0)
(3.67095e-06 -1.74232e-06 0)
(3.67609e-06 -1.74584e-06 0)
(3.68132e-06 -1.7494e-06 0)
(3.68664e-06 -1.75299e-06 0)
(3.69205e-06 -1.75661e-06 0)
(3.69754e-06 -1.76025e-06 0)
(3.7031e-06 -1.76393e-06 0)
(3.70874e-06 -1.76763e-06 0)
(3.71446e-06 -1.77135e-06 0)
(3.72025e-06 -1.7751e-06 0)
(3.72611e-06 -1.77888e-06 0)
(3.73205e-06 -1.78266e-06 0)
(4.2917e-06 -2.02776e-06 0)
(4.25145e-06 -2.0066e-06 0)
(4.21301e-06 -1.98638e-06 0)
(4.17628e-06 -1.96722e-06 0)
(4.14121e-06 -1.949e-06 0)
(4.10771e-06 -1.9317e-06 0)
(4.07571e-06 -1.91527e-06 0)
(4.04515e-06 -1.89968e-06 0)
(4.01597e-06 -1.88488e-06 0)
(3.98811e-06 -1.87084e-06 0)
(3.96151e-06 -1.85753e-06 0)
(3.93612e-06 -1.84491e-06 0)
(3.91188e-06 -1.83296e-06 0)
(3.88877e-06 -1.82164e-06 0)
(3.86672e-06 -1.81093e-06 0)
(3.84569e-06 -1.8008e-06 0)
(3.82565e-06 -1.79123e-06 0)
(3.80655e-06 -1.7822e-06 0)
(3.78835e-06 -1.77367e-06 0)
(3.77103e-06 -1.76564e-06 0)
(3.75455e-06 -1.75808e-06 0)
(3.73887e-06 -1.75097e-06 0)
(3.72397e-06 -1.74429e-06 0)
(3.70982e-06 -1.73802e-06 0)
(3.69638e-06 -1.73216e-06 0)
(3.68364e-06 -1.72668e-06 0)
(3.67156e-06 -1.72156e-06 0)
(3.66012e-06 -1.7168e-06 0)
(3.6493e-06 -1.71238e-06 0)
(3.63908e-06 -1.70828e-06 0)
(3.62944e-06 -1.7045e-06 0)
(3.62034e-06 -1.70102e-06 0)
(3.61179e-06 -1.69783e-06 0)
(3.60375e-06 -1.69492e-06 0)
(3.59621e-06 -1.69228e-06 0)
(3.58915e-06 -1.68989e-06 0)
(3.58255e-06 -1.68776e-06 0)
(3.57641e-06 -1.68586e-06 0)
(3.5707e-06 -1.6842e-06 0)
(3.56541e-06 -1.68275e-06 0)
(3.56052e-06 -1.68153e-06 0)
(3.55603e-06 -1.6805e-06 0)
(3.55192e-06 -1.67968e-06 0)
(3.54817e-06 -1.67905e-06 0)
(3.54478e-06 -1.6786e-06 0)
(3.54173e-06 -1.67833e-06 0)
(3.53902e-06 -1.67823e-06 0)
(3.53662e-06 -1.67829e-06 0)
(3.53454e-06 -1.67852e-06 0)
(3.53276e-06 -1.6789e-06 0)
(3.53128e-06 -1.67942e-06 0)
(3.53007e-06 -1.68009e-06 0)
(3.52914e-06 -1.6809e-06 0)
(3.52848e-06 -1.68184e-06 0)
(3.52807e-06 -1.68291e-06 0)
(3.52792e-06 -1.6841e-06 0)
(3.528e-06 -1.68541e-06 0)
(3.52832e-06 -1.68684e-06 0)
(3.52887e-06 -1.68838e-06 0)
(3.52964e-06 -1.69002e-06 0)
(3.53062e-06 -1.69177e-06 0)
(3.53182e-06 -1.69362e-06 0)
(3.53321e-06 -1.69556e-06 0)
(3.5348e-06 -1.69759e-06 0)
(3.53658e-06 -1.69972e-06 0)
(3.53854e-06 -1.70193e-06 0)
(3.54069e-06 -1.70423e-06 0)
(3.543e-06 -1.7066e-06 0)
(3.54549e-06 -1.70905e-06 0)
(3.54814e-06 -1.71158e-06 0)
(3.55094e-06 -1.71418e-06 0)
(3.55391e-06 -1.71685e-06 0)
(3.55702e-06 -1.71958e-06 0)
(3.56028e-06 -1.72238e-06 0)
(3.56368e-06 -1.72524e-06 0)
(3.56721e-06 -1.72816e-06 0)
(3.57088e-06 -1.73114e-06 0)
(3.57468e-06 -1.73417e-06 0)
(3.57861e-06 -1.73726e-06 0)
(3.58266e-06 -1.7404e-06 0)
(3.58683e-06 -1.74358e-06 0)
(3.59111e-06 -1.74682e-06 0)
(3.5955e-06 -1.7501e-06 0)
(3.60001e-06 -1.75342e-06 0)
(3.60462e-06 -1.75679e-06 0)
(3.60933e-06 -1.76019e-06 0)
(3.61414e-06 -1.76364e-06 0)
(3.61905e-06 -1.76712e-06 0)
(3.62405e-06 -1.77063e-06 0)
(3.62915e-06 -1.77418e-06 0)
(3.63433e-06 -1.77777e-06 0)
(3.6396e-06 -1.78138e-06 0)
(3.64495e-06 -1.78503e-06 0)
(3.65039e-06 -1.7887e-06 0)
(3.6559e-06 -1.7924e-06 0)
(3.6615e-06 -1.79613e-06 0)
(3.66716e-06 -1.79988e-06 0)
(3.6729e-06 -1.80365e-06 0)
(3.6787e-06 -1.80746e-06 0)
(3.68459e-06 -1.81126e-06 0)
(4.25233e-06 -2.0423e-06 0)
(4.21181e-06 -2.02174e-06 0)
(4.1731e-06 -2.0021e-06 0)
(4.13613e-06 -1.98348e-06 0)
(4.10082e-06 -1.96578e-06 0)
(4.06708e-06 -1.94898e-06 0)
(4.03487e-06 -1.93302e-06 0)
(4.00411e-06 -1.91788e-06 0)
(3.97473e-06 -1.90351e-06 0)
(3.94669e-06 -1.88989e-06 0)
(3.91991e-06 -1.87697e-06 0)
(3.89435e-06 -1.86473e-06 0)
(3.86996e-06 -1.85313e-06 0)
(3.84669e-06 -1.84216e-06 0)
(3.8245e-06 -1.83178e-06 0)
(3.80333e-06 -1.82196e-06 0)
(3.78316e-06 -1.81269e-06 0)
(3.76393e-06 -1.80394e-06 0)
(3.74562e-06 -1.79569e-06 0)
(3.72818e-06 -1.78792e-06 0)
(3.71159e-06 -1.7806e-06 0)
(3.6958e-06 -1.77373e-06 0)
(3.6808e-06 -1.76728e-06 0)
(3.66655e-06 -1.76124e-06 0)
(3.65301e-06 -1.75558e-06 0)
(3.64018e-06 -1.7503e-06 0)
(3.62801e-06 -1.74538e-06 0)
(3.61649e-06 -1.7408e-06 0)
(3.60559e-06 -1.73656e-06 0)
(3.59529e-06 -1.73263e-06 0)
(3.58557e-06 -1.72902e-06 0)
(3.5764e-06 -1.72569e-06 0)
(3.56777e-06 -1.72265e-06 0)
(3.55966e-06 -1.71989e-06 0)
(3.55206e-06 -1.71738e-06 0)
(3.54493e-06 -1.71513e-06 0)
(3.53827e-06 -1.71312e-06 0)
(3.53207e-06 -1.71135e-06 0)
(3.5263e-06 -1.7098e-06 0)
(3.52095e-06 -1.70847e-06 0)
(3.516e-06 -1.70735e-06 0)
(3.51145e-06 -1.70644e-06 0)
(3.50729e-06 -1.70571e-06 0)
(3.50348e-06 -1.70518e-06 0)
(3.50004e-06 -1.70482e-06 0)
(3.49694e-06 -1.70464e-06 0)
(3.49417e-06 -1.70463e-06 0)
(3.49173e-06 -1.70478e-06 0)
(3.4896e-06 -1.70508e-06 0)
(3.48777e-06 -1.70554e-06 0)
(3.48623e-06 -1.70614e-06 0)
(3.48498e-06 -1.70688e-06 0)
(3.484e-06 -1.70776e-06 0)
(3.48329e-06 -1.70877e-06 0)
(3.48283e-06 -1.7099e-06 0)
(3.48263e-06 -1.71116e-06 0)
(3.48267e-06 -1.71253e-06 0)
(3.48295e-06 -1.71401e-06 0)
(3.48345e-06 -1.71561e-06 0)
(3.48417e-06 -1.71731e-06 0)
(3.48511e-06 -1.71911e-06 0)
(3.48626e-06 -1.72101e-06 0)
(3.48761e-06 -1.723e-06 0)
(3.48915e-06 -1.72508e-06 0)
(3.49088e-06 -1.72726e-06 0)
(3.4928e-06 -1.72951e-06 0)
(3.4949e-06 -1.73185e-06 0)
(3.49717e-06 -1.73427e-06 0)
(3.49961e-06 -1.73677e-06 0)
(3.50221e-06 -1.73933e-06 0)
(3.50498e-06 -1.74197e-06 0)
(3.50789e-06 -1.74468e-06 0)
(3.51096e-06 -1.74745e-06 0)
(3.51417e-06 -1.75029e-06 0)
(3.51752e-06 -1.75319e-06 0)
(3.52101e-06 -1.75614e-06 0)
(3.52464e-06 -1.75916e-06 0)
(3.52839e-06 -1.76222e-06 0)
(3.53227e-06 -1.76534e-06 0)
(3.53627e-06 -1.76851e-06 0)
(3.54039e-06 -1.77173e-06 0)
(3.54463e-06 -1.775e-06 0)
(3.54897e-06 -1.77831e-06 0)
(3.55343e-06 -1.78167e-06 0)
(3.55799e-06 -1.78506e-06 0)
(3.56265e-06 -1.7885e-06 0)
(3.56742e-06 -1.79197e-06 0)
(3.57227e-06 -1.79548e-06 0)
(3.57723e-06 -1.79903e-06 0)
(3.58227e-06 -1.8026e-06 0)
(3.58741e-06 -1.80622e-06 0)
(3.59262e-06 -1.80986e-06 0)
(3.59793e-06 -1.81353e-06 0)
(3.60331e-06 -1.81723e-06 0)
(3.60877e-06 -1.82096e-06 0)
(3.61431e-06 -1.82471e-06 0)
(3.61993e-06 -1.82849e-06 0)
(3.62561e-06 -1.83229e-06 0)
(3.63137e-06 -1.83612e-06 0)
(3.63719e-06 -1.83995e-06 0)
(4.21272e-06 -2.05672e-06 0)
(4.17193e-06 -2.03677e-06 0)
(4.13298e-06 -2.01771e-06 0)
(4.09576e-06 -1.99965e-06 0)
(4.06023e-06 -1.98248e-06 0)
(4.02629e-06 -1.96618e-06 0)
(3.99387e-06 -1.95071e-06 0)
(3.96292e-06 -1.93603e-06 0)
(3.93336e-06 -1.9221e-06 0)
(3.90514e-06 -1.90889e-06 0)
(3.8782e-06 -1.89637e-06 0)
(3.85248e-06 -1.88451e-06 0)
(3.82794e-06 -1.87328e-06 0)
(3.80453e-06 -1.86265e-06 0)
(3.7822e-06 -1.8526e-06 0)