# Time dispX dispY dispZ forceX forceY forceZ
0 0 0 0 0 0 0
1 1.0668e-06 -8.20681e-08 1.493e-23 100000 0.000160171 -1.46444e-18
