/*--------------------------------*- C++ -*----------------------------------*\
| =========                 |                                                 |
| \\      /  F ield         | foam-extend: Open Source CFD                    |
|  \\    /   O peration     | Version:     4.1                                |
|   \\  /    A nd           | Web:         http://www.foam-extend.org         |
|    \\/     M anipulation  |                                                 |
\*---------------------------------------------------------------------------*/
FoamFile
{
    version     2.0;
    format      ascii;
    class       volVectorField;
    location    "1";
    object      D_predicted;
}
// * * * * * * * * * * * * * * * * * * * * * * * * * * * * * * * * * * * * * //

dimensions      [0 1 0 0 0 0 0];

internalField   nonuniform List<vector> 
100000
(
(5.65952e-07 -2.36657e-07 0)
(5.63078e-07 -2.33995e-07 0)
(5.60519e-07 -2.31692e-07 0)
(5.57734e-07 -2.29398e-07 0)
(5.54425e-07 -2.27121e-07 0)
(5.51023e-07 -2.24875e-07 0)
(5.47654e-07 -2.22711e-07 0)
(5.44179e-07 -2.20586e-07 0)
(5.40722e-07 -2.18533e-07 0)
(5.37454e-07 -2.16561e-07 0)
(5.34247e-07 -2.1455e-07 0)
(5.31109e-07 -2.12649e-07 0)
(5.28043e-07 -2.10843e-07 0)
(5.25112e-07 -2.09129e-07 0)
(5.2231e-07 -2.07501e-07 0)
(5.19762e-07 -2.05899e-07 0)
(5.17555e-07 -2.04398e-07 0)
(5.1545e-07 -2.02975e-07 0)
(5.13453e-07 -2.01622e-07 0)
(5.1155e-07 -2.00335e-07 0)
(5.09797e-07 -1.99172e-07 0)
(5.0809e-07 -1.98077e-07 0)
(5.06466e-07 -1.97013e-07 0)
(5.04928e-07 -1.96008e-07 0)
(5.03474e-07 -1.95067e-07 0)
(5.02117e-07 -1.94167e-07 0)
(5.00876e-07 -1.93327e-07 0)
(4.99694e-07 -1.92534e-07 0)
(4.98576e-07 -1.91789e-07 0)
(4.97521e-07 -1.91091e-07 0)
(4.96496e-07 -1.90446e-07 0)
(4.95525e-07 -1.89848e-07 0)
(4.94611e-07 -1.89291e-07 0)
(4.93724e-07 -1.88789e-07 0)
(4.92904e-07 -1.88332e-07 0)
(4.92138e-07 -1.87916e-07 0)
(4.91418e-07 -1.87541e-07 0)
(4.90711e-07 -1.8719e-07 0)
(4.90055e-07 -1.86872e-07 0)
(4.89446e-07 -1.86585e-07 0)
(4.88882e-07 -1.86328e-07 0)
(4.88366e-07 -1.86097e-07 0)
(4.87924e-07 -1.85877e-07 0)
(4.87516e-07 -1.85694e-07 0)
(4.87146e-07 -1.85539e-07 0)
(4.86808e-07 -1.85422e-07 0)
(4.86507e-07 -1.85328e-07 0)
(4.86295e-07 -1.85265e-07 0)
(4.86127e-07 -1.85214e-07 0)
(4.85991e-07 -1.85181e-07 0)
(4.85887e-07 -1.8517e-07 0)
(4.85813e-07 -1.85179e-07 0)
(4.85768e-07 -1.85207e-07 0)
(4.8578e-07 -1.85256e-07 0)
(4.85878e-07 -1.85327e-07 0)
(4.86005e-07 -1.85418e-07 0)
(4.86173e-07 -1.85535e-07 0)
(4.86364e-07 -1.85667e-07 0)
(4.86582e-07 -1.8581e-07 0)
(4.86817e-07 -1.85968e-07 0)
(4.87063e-07 -1.86142e-07 0)
(4.87328e-07 -1.8633e-07 0)
(4.87612e-07 -1.86532e-07 0)
(4.87914e-07 -1.86744e-07 0)
(4.88234e-07 -1.86968e-07 0)
(4.88571e-07 -1.87202e-07 0)
(4.88925e-07 -1.87447e-07 0)
(4.89295e-07 -1.87702e-07 0)
(4.89691e-07 -1.87971e-07 0)
(4.90115e-07 -1.88256e-07 0)
(4.90552e-07 -1.88549e-07 0)
(4.91004e-07 -1.8885e-07 0)
(4.9147e-07 -1.89159e-07 0)
(4.91949e-07 -1.89474e-07 0)
(4.92441e-07 -1.89796e-07 0)
(4.92944e-07 -1.90123e-07 0)
(4.9346e-07 -1.90456e-07 0)
(4.93987e-07 -1.90795e-07 0)
(4.94525e-07 -1.91138e-07 0)
(4.95073e-07 -1.91486e-07 0)
(4.95631e-07 -1.91837e-07 0)
(4.96199e-07 -1.92193e-07 0)
(4.96776e-07 -1.9255e-07 0)
(4.97357e-07 -1.9291e-07 0)
(4.97999e-07 -1.93302e-07 0)
(4.98698e-07 -1.93725e-07 0)
(4.99425e-07 -1.94149e-07 0)
(5.00178e-07 -1.94574e-07 0)
(5.00938e-07 -1.94998e-07 0)
(5.01705e-07 -1.95422e-07 0)
(5.02477e-07 -1.95844e-07 0)
(5.03241e-07 -1.9627e-07 0)
(5.04005e-07 -1.96692e-07 0)
(5.04769e-07 -1.9711e-07 0)
(5.05532e-07 -1.97521e-07 0)
(5.06285e-07 -1.97923e-07 0)
(5.07036e-07 -1.98303e-07 0)
(5.07754e-07 -1.98663e-07 0)
(5.08459e-07 -1.99001e-07 0)
(5.09097e-07 -1.99194e-07 0)
(5.61266e-07 -2.38753e-07 0)
(5.58382e-07 -2.36331e-07 0)
(5.55655e-07 -2.34057e-07 0)
(5.52715e-07 -2.31803e-07 0)
(5.49361e-07 -2.29517e-07 0)
(5.45755e-07 -2.27291e-07 0)
(5.42084e-07 -2.25161e-07 0)
(5.3843e-07 -2.2312e-07 0)
(5.35098e-07 -2.21094e-07 0)
(5.31718e-07 -2.19071e-07 0)
(5.28401e-07 -2.17128e-07 0)
(5.25208e-07 -2.15343e-07 0)
(5.22191e-07 -2.13548e-07 0)
(5.19364e-07 -2.11802e-07 0)
(5.16659e-07 -2.10144e-07 0)
(5.14251e-07 -2.08603e-07 0)
(5.12056e-07 -2.07126e-07 0)
(5.09955e-07 -2.05723e-07 0)
(5.07949e-07 -2.04394e-07 0)
(5.06022e-07 -2.03135e-07 0)
(5.04213e-07 -2.01994e-07 0)
(5.02485e-07 -2.00927e-07 0)
(5.00841e-07 -1.99923e-07 0)
(4.99275e-07 -1.98976e-07 0)
(4.97786e-07 -1.98084e-07 0)
(4.96387e-07 -1.97235e-07 0)
(4.95205e-07 -1.96405e-07 0)
(4.94023e-07 -1.95622e-07 0)
(4.92899e-07 -1.94871e-07 0)
(4.9184e-07 -1.94156e-07 0)
(4.90823e-07 -1.93482e-07 0)
(4.89857e-07 -1.9285e-07 0)
(4.88945e-07 -1.92262e-07 0)
(4.88089e-07 -1.91716e-07 0)
(4.8726e-07 -1.91241e-07 0)
(4.8648e-07 -1.90839e-07 0)
(4.85752e-07 -1.90478e-07 0)
(4.85038e-07 -1.9014e-07 0)
(4.84369e-07 -1.89834e-07 0)
(4.83748e-07 -1.89559e-07 0)
(4.83168e-07 -1.89322e-07 0)
(4.8263e-07 -1.89118e-07 0)
(4.82161e-07 -1.88924e-07 0)
(4.81749e-07 -1.88748e-07 0)
(4.81375e-07 -1.88599e-07 0)
(4.81066e-07 -1.88497e-07 0)
(4.80817e-07 -1.88421e-07 0)
(4.80602e-07 -1.88367e-07 0)
(4.8042e-07 -1.88335e-07 0)
(4.80269e-07 -1.88323e-07 0)
(4.80205e-07 -1.88327e-07 0)
(4.80218e-07 -1.8835e-07 0)
(4.80253e-07 -1.88393e-07 0)
(4.80302e-07 -1.88458e-07 0)
(4.80377e-07 -1.8854e-07 0)
(4.80492e-07 -1.88648e-07 0)
(4.80637e-07 -1.88776e-07 0)
(4.80805e-07 -1.88919e-07 0)
(4.80995e-07 -1.89077e-07 0)
(4.81207e-07 -1.89248e-07 0)
(4.81439e-07 -1.89433e-07 0)
(4.8169e-07 -1.89631e-07 0)
(4.8196e-07 -1.89841e-07 0)
(4.82253e-07 -1.9006e-07 0)
(4.82564e-07 -1.90288e-07 0)
(4.82893e-07 -1.90527e-07 0)
(4.83238e-07 -1.90776e-07 0)
(4.836e-07 -1.91035e-07 0)
(4.83981e-07 -1.91305e-07 0)
(4.84396e-07 -1.91594e-07 0)
(4.84825e-07 -1.91891e-07 0)
(4.85268e-07 -1.92197e-07 0)
(4.85725e-07 -1.92509e-07 0)
(4.86194e-07 -1.92828e-07 0)
(4.86677e-07 -1.93154e-07 0)
(4.87171e-07 -1.93485e-07 0)
(4.87677e-07 -1.93821e-07 0)
(4.88194e-07 -1.94162e-07 0)
(4.88721e-07 -1.94509e-07 0)
(4.89259e-07 -1.94859e-07 0)
(4.89807e-07 -1.95214e-07 0)
(4.90363e-07 -1.95571e-07 0)
(4.90928e-07 -1.95931e-07 0)
(4.91498e-07 -1.96293e-07 0)
(4.92166e-07 -1.9671e-07 0)
(4.92856e-07 -1.97136e-07 0)
(4.93553e-07 -1.97564e-07 0)
(4.94266e-07 -1.97992e-07 0)
(4.95017e-07 -1.98419e-07 0)
(4.95775e-07 -1.98845e-07 0)
(4.96537e-07 -1.99268e-07 0)
(4.97307e-07 -1.99683e-07 0)
(4.98083e-07 -2.00088e-07 0)
(4.98853e-07 -2.00488e-07 0)
(4.99609e-07 -2.00882e-07 0)
(5.00355e-07 -2.01266e-07 0)
(5.01101e-07 -2.01624e-07 0)
(5.01815e-07 -2.01978e-07 0)
(5.02538e-07 -2.02303e-07 0)
(5.03207e-07 -2.02565e-07 0)
(5.5655e-07 -2.4082e-07 0)
(5.53578e-07 -2.38723e-07 0)
(5.50689e-07 -2.36461e-07 0)
(5.47592e-07 -2.34237e-07 0)
(5.44013e-07 -2.31957e-07 0)
(5.40254e-07 -2.29689e-07 0)
(5.36634e-07 -2.27541e-07 0)
(5.33206e-07 -2.25501e-07 0)
(5.29873e-07 -2.23519e-07 0)
(5.26361e-07 -2.21508e-07 0)
(5.23035e-07 -2.19529e-07 0)
(5.19844e-07 -2.17662e-07 0)
(5.16793e-07 -2.15968e-07 0)
(5.1384e-07 -2.14337e-07 0)
(5.11109e-07 -2.12755e-07 0)
(5.08762e-07 -2.11263e-07 0)
(5.06564e-07 -2.09841e-07 0)
(5.04403e-07 -2.08483e-07 0)
(5.02332e-07 -2.07193e-07 0)
(5.00343e-07 -2.05971e-07 0)
(4.98485e-07 -2.04851e-07 0)
(4.96735e-07 -2.03811e-07 0)
(4.9507e-07 -2.02831e-07 0)
(4.93483e-07 -2.01908e-07 0)
(4.91985e-07 -2.0101e-07 0)
(4.90606e-07 -2.00144e-07 0)
(4.89346e-07 -1.99339e-07 0)
(4.88135e-07 -1.98579e-07 0)
(4.87019e-07 -1.97844e-07 0)
(4.85976e-07 -1.97153e-07 0)
(4.84985e-07 -1.96498e-07 0)
(4.84056e-07 -1.95859e-07 0)
(4.83182e-07 -1.95264e-07 0)
(4.82357e-07 -1.94714e-07 0)
(4.81578e-07 -1.94211e-07 0)
(4.80791e-07 -1.93816e-07 0)
(4.80051e-07 -1.93468e-07 0)
(4.79336e-07 -1.93148e-07 0)
(4.78655e-07 -1.92858e-07 0)
(4.78017e-07 -1.92607e-07 0)
(4.77423e-07 -1.92386e-07 0)
(4.76874e-07 -1.92193e-07 0)
(4.76374e-07 -1.92022e-07 0)
(4.75966e-07 -1.91859e-07 0)
(4.75647e-07 -1.91731e-07 0)
(4.75363e-07 -1.91627e-07 0)
(4.75115e-07 -1.91546e-07 0)
(4.74932e-07 -1.91495e-07 0)
(4.7483e-07 -1.91482e-07 0)
(4.74754e-07 -1.91492e-07 0)
(4.74707e-07 -1.9152e-07 0)
(4.74688e-07 -1.91568e-07 0)
(4.74698e-07 -1.9163e-07 0)
(4.74739e-07 -1.91702e-07 0)
(4.74805e-07 -1.91791e-07 0)
(4.7492e-07 -1.91911e-07 0)
(4.75056e-07 -1.92045e-07 0)
(4.75216e-07 -1.92195e-07 0)
(4.75397e-07 -1.92359e-07 0)
(4.756e-07 -1.92536e-07 0)
(4.75823e-07 -1.92727e-07 0)
(4.76065e-07 -1.92929e-07 0)
(4.76327e-07 -1.93145e-07 0)
(4.76608e-07 -1.93371e-07 0)
(4.76906e-07 -1.93608e-07 0)
(4.77221e-07 -1.93856e-07 0)
(4.77553e-07 -1.94112e-07 0)
(4.77902e-07 -1.94378e-07 0)
(4.78266e-07 -1.94653e-07 0)
(4.78667e-07 -1.94947e-07 0)
(4.79089e-07 -1.95247e-07 0)
(4.7953e-07 -1.95549e-07 0)
(4.79985e-07 -1.95858e-07 0)
(4.80453e-07 -1.96174e-07 0)
(4.80933e-07 -1.96495e-07 0)
(4.81425e-07 -1.96822e-07 0)
(4.81929e-07 -1.97154e-07 0)
(4.82443e-07 -1.97492e-07 0)
(4.82967e-07 -1.97833e-07 0)
(4.83502e-07 -1.98179e-07 0)
(4.84046e-07 -1.98528e-07 0)
(4.84598e-07 -1.9888e-07 0)
(4.85159e-07 -1.99234e-07 0)
(4.85725e-07 -1.9959e-07 0)
(4.86401e-07 -2.00009e-07 0)
(4.87088e-07 -2.0043e-07 0)
(4.87781e-07 -2.00852e-07 0)
(4.88481e-07 -2.01275e-07 0)
(4.89186e-07 -2.01697e-07 0)
(4.89935e-07 -2.02116e-07 0)
(4.90693e-07 -2.02533e-07 0)
(4.91453e-07 -2.02945e-07 0)
(4.92216e-07 -2.03353e-07 0)
(4.92981e-07 -2.03755e-07 0)
(4.93751e-07 -2.0415e-07 0)
(4.94509e-07 -2.0454e-07 0)
(4.95254e-07 -2.04915e-07 0)
(4.95974e-07 -2.05293e-07 0)
(4.96712e-07 -2.05638e-07 0)
(4.97408e-07 -2.05939e-07 0)
(5.51937e-07 -2.42982e-07 0)
(5.48752e-07 -2.41107e-07 0)
(5.45727e-07 -2.38909e-07 0)
(5.42375e-07 -2.36628e-07 0)
(5.38556e-07 -2.34326e-07 0)
(5.34963e-07 -2.3207e-07 0)
(5.31501e-07 -2.2989e-07 0)
(5.28108e-07 -2.27832e-07 0)
(5.24765e-07 -2.25829e-07 0)
(5.21309e-07 -2.23764e-07 0)
(5.18002e-07 -2.21801e-07 0)
(5.14803e-07 -2.19963e-07 0)
(5.11697e-07 -2.18244e-07 0)
(5.08728e-07 -2.16603e-07 0)
(5.05953e-07 -2.15116e-07 0)
(5.0347e-07 -2.13715e-07 0)
(5.0114e-07 -2.12379e-07 0)
(4.98913e-07 -2.11111e-07 0)
(4.96771e-07 -2.09899e-07 0)
(4.94705e-07 -2.08742e-07 0)
(4.92785e-07 -2.07665e-07 0)
(4.9101e-07 -2.06647e-07 0)
(4.89337e-07 -2.05641e-07 0)
(4.87746e-07 -2.04686e-07 0)
(4.86233e-07 -2.03786e-07 0)
(4.84862e-07 -2.02952e-07 0)
(4.8358e-07 -2.0217e-07 0)
(4.82368e-07 -2.01435e-07 0)
(4.81181e-07 -2.00737e-07 0)
(4.80058e-07 -2.00082e-07 0)
(4.79041e-07 -1.99454e-07 0)
(4.78063e-07 -1.98863e-07 0)
(4.77147e-07 -1.98316e-07 0)
(4.76279e-07 -1.97822e-07 0)
(4.75463e-07 -1.97366e-07 0)
(4.74702e-07 -1.9696e-07 0)
(4.73968e-07 -1.96627e-07 0)
(4.7327e-07 -1.96331e-07 0)
(4.72608e-07 -1.96044e-07 0)
(4.71995e-07 -1.95784e-07 0)
(4.71425e-07 -1.95554e-07 0)
(4.70896e-07 -1.95353e-07 0)
(4.70458e-07 -1.95196e-07 0)
(4.70108e-07 -1.95048e-07 0)
(4.69798e-07 -1.94924e-07 0)
(4.69587e-07 -1.94833e-07 0)
(4.69444e-07 -1.94769e-07 0)
(4.69332e-07 -1.94727e-07 0)
(4.69248e-07 -1.94705e-07 0)
(4.69192e-07 -1.94703e-07 0)
(4.69164e-07 -1.9472e-07 0)
(4.69162e-07 -1.94757e-07 0)
(4.69174e-07 -1.94822e-07 0)
(4.69212e-07 -1.94905e-07 0)
(4.69285e-07 -1.95009e-07 0)
(4.69395e-07 -1.95134e-07 0)
(4.69529e-07 -1.9527e-07 0)
(4.69686e-07 -1.95419e-07 0)
(4.69864e-07 -1.95583e-07 0)
(4.70064e-07 -1.9576e-07 0)
(4.70285e-07 -1.9595e-07 0)
(4.70525e-07 -1.96152e-07 0)
(4.70785e-07 -1.96366e-07 0)
(4.71064e-07 -1.96591e-07 0)
(4.7136e-07 -1.96826e-07 0)
(4.71673e-07 -1.9707e-07 0)
(4.72004e-07 -1.97324e-07 0)
(4.7235e-07 -1.97588e-07 0)
(4.72713e-07 -1.9786e-07 0)
(4.73103e-07 -1.98147e-07 0)
(4.73518e-07 -1.98448e-07 0)
(4.73947e-07 -1.98757e-07 0)
(4.7439e-07 -1.99072e-07 0)
(4.74845e-07 -1.99394e-07 0)
(4.75312e-07 -1.99722e-07 0)
(4.75791e-07 -2.00055e-07 0)
(4.76282e-07 -2.00392e-07 0)
(4.76785e-07 -2.00733e-07 0)
(4.77299e-07 -2.01077e-07 0)
(4.77823e-07 -2.01425e-07 0)
(4.78356e-07 -2.01777e-07 0)
(4.78897e-07 -2.02131e-07 0)
(4.79446e-07 -2.02487e-07 0)
(4.80009e-07 -2.02839e-07 0)
(4.80681e-07 -2.03249e-07 0)
(4.81367e-07 -2.03665e-07 0)
(4.8206e-07 -2.04082e-07 0)
(4.8276e-07 -2.04499e-07 0)
(4.83464e-07 -2.04915e-07 0)
(4.84179e-07 -2.05334e-07 0)
(4.84929e-07 -2.05751e-07 0)
(4.85696e-07 -2.06164e-07 0)
(4.86466e-07 -2.06571e-07 0)
(4.87237e-07 -2.06972e-07 0)
(4.8801e-07 -2.07364e-07 0)
(4.88786e-07 -2.07748e-07 0)
(4.89577e-07 -2.08114e-07 0)
(4.90346e-07 -2.0849e-07 0)
(4.91102e-07 -2.08852e-07 0)
(4.9182e-07 -2.09187e-07 0)
(5.47443e-07 -2.45039e-07 0)
(5.44317e-07 -2.43236e-07 0)
(5.40769e-07 -2.41269e-07 0)
(5.37086e-07 -2.38924e-07 0)
(5.33417e-07 -2.36615e-07 0)
(5.29852e-07 -2.34404e-07 0)
(5.26404e-07 -2.32221e-07 0)
(5.23121e-07 -2.3013e-07 0)
(5.19747e-07 -2.2804e-07 0)
(5.1628e-07 -2.25991e-07 0)
(5.12948e-07 -2.2407e-07 0)
(5.09689e-07 -2.22275e-07 0)
(5.06509e-07 -2.20609e-07 0)
(5.03467e-07 -2.19028e-07 0)
(5.00762e-07 -2.17532e-07 0)
(4.98281e-07 -2.16094e-07 0)
(4.9593e-07 -2.14778e-07 0)
(4.93684e-07 -2.13541e-07 0)
(4.91539e-07 -2.12369e-07 0)
(4.8949e-07 -2.11217e-07 0)
(4.8754e-07 -2.10095e-07 0)
(4.85725e-07 -2.09067e-07 0)
(4.84e-07 -2.08096e-07 0)
(4.82357e-07 -2.0718e-07 0)
(4.80807e-07 -2.0632e-07 0)
(4.79408e-07 -2.05525e-07 0)
(4.78081e-07 -2.04779e-07 0)
(4.76824e-07 -2.04079e-07 0)
(4.75615e-07 -2.03419e-07 0)
(4.7445e-07 -2.02797e-07 0)
(4.73349e-07 -2.02217e-07 0)
(4.72285e-07 -2.01671e-07 0)
(4.71323e-07 -2.0116e-07 0)
(4.70422e-07 -2.00692e-07 0)
(4.69581e-07 -2.00259e-07 0)
(4.68794e-07 -1.9986e-07 0)
(4.68072e-07 -1.99519e-07 0)
(4.67376e-07 -1.9923e-07 0)
(4.66685e-07 -1.9898e-07 0)
(4.66037e-07 -1.98763e-07 0)
(4.65449e-07 -1.98576e-07 0)
(4.65051e-07 -1.98429e-07 0)
(4.64733e-07 -1.98297e-07 0)
(4.64465e-07 -1.98177e-07 0)
(4.64233e-07 -1.9808e-07 0)
(4.64031e-07 -1.98007e-07 0)
(4.63861e-07 -1.97955e-07 0)
(4.63722e-07 -1.97923e-07 0)
(4.63614e-07 -1.9791e-07 0)
(4.63535e-07 -1.97916e-07 0)
(4.63485e-07 -1.9794e-07 0)
(4.63463e-07 -1.97984e-07 0)
(4.63469e-07 -1.98043e-07 0)
(4.63506e-07 -1.98115e-07 0)
(4.63589e-07 -1.9821e-07 0)
(4.63704e-07 -1.98324e-07 0)
(4.63831e-07 -1.98461e-07 0)
(4.63981e-07 -1.98618e-07 0)
(4.64154e-07 -1.98791e-07 0)
(4.64354e-07 -1.98969e-07 0)
(4.64574e-07 -1.9916e-07 0)
(4.64814e-07 -1.99363e-07 0)
(4.65073e-07 -1.99577e-07 0)
(4.6535e-07 -1.99802e-07 0)
(4.65645e-07 -2.00036e-07 0)
(4.65961e-07 -2.00279e-07 0)
(4.66299e-07 -2.0053e-07 0)
(4.66654e-07 -2.0079e-07 0)
(4.67024e-07 -2.01059e-07 0)
(4.67416e-07 -2.01338e-07 0)
(4.67841e-07 -2.01634e-07 0)
(4.6828e-07 -2.01938e-07 0)
(4.68732e-07 -2.02248e-07 0)
(4.69197e-07 -2.02564e-07 0)
(4.69675e-07 -2.02886e-07 0)
(4.70164e-07 -2.03213e-07 0)
(4.70665e-07 -2.03544e-07 0)
(4.71177e-07 -2.0388e-07 0)
(4.71698e-07 -2.0422e-07 0)
(4.7223e-07 -2.04564e-07 0)
(4.7277e-07 -2.0491e-07 0)
(4.73319e-07 -2.05259e-07 0)
(4.73876e-07 -2.05609e-07 0)
(4.74439e-07 -2.05961e-07 0)
(4.75122e-07 -2.06364e-07 0)
(4.75834e-07 -2.0678e-07 0)
(4.76553e-07 -2.07198e-07 0)
(4.77277e-07 -2.07616e-07 0)
(4.78006e-07 -2.08033e-07 0)
(4.78739e-07 -2.08448e-07 0)
(4.79456e-07 -2.08868e-07 0)
(4.80169e-07 -2.09287e-07 0)
(4.8091e-07 -2.09702e-07 0)
(4.81678e-07 -2.1011e-07 0)
(4.82447e-07 -2.10509e-07 0)
(4.83213e-07 -2.10906e-07 0)
(4.83986e-07 -2.11287e-07 0)
(4.84753e-07 -2.1169e-07 0)
(4.85549e-07 -2.12071e-07 0)
(4.86313e-07 -2.12438e-07 0)
(5.42896e-07 -2.47049e-07 0)
(5.39426e-07 -2.45384e-07 0)
(5.35818e-07 -2.43443e-07 0)
(5.32407e-07 -2.41034e-07 0)
(5.28522e-07 -2.38764e-07 0)
(5.24918e-07 -2.36619e-07 0)
(5.21461e-07 -2.34445e-07 0)
(5.18144e-07 -2.32404e-07 0)
(5.1463e-07 -2.30336e-07 0)
(5.11099e-07 -2.28307e-07 0)
(5.07731e-07 -2.26381e-07 0)
(5.0447e-07 -2.24607e-07 0)
(5.01267e-07 -2.22982e-07 0)
(4.98264e-07 -2.21445e-07 0)
(4.95595e-07 -2.20004e-07 0)
(4.93071e-07 -2.18611e-07 0)
(4.90689e-07 -2.17282e-07 0)
(4.8844e-07 -2.15993e-07 0)
(4.86311e-07 -2.14736e-07 0)
(4.84271e-07 -2.13579e-07 0)
(4.82322e-07 -2.1248e-07 0)
(4.80492e-07 -2.11476e-07 0)
(4.7875e-07 -2.10529e-07 0)
(4.77092e-07 -2.09636e-07 0)
(4.75557e-07 -2.08803e-07 0)
(4.74144e-07 -2.08029e-07 0)
(4.72803e-07 -2.07303e-07 0)
(4.71532e-07 -2.06622e-07 0)
(4.70327e-07 -2.05984e-07 0)
(4.6915e-07 -2.0538e-07 0)
(4.68034e-07 -2.04819e-07 0)
(4.66955e-07 -2.0431e-07 0)
(4.6593e-07 -2.03837e-07 0)
(4.64963e-07 -2.03399e-07 0)
(4.64086e-07 -2.02986e-07 0)
(4.63273e-07 -2.02606e-07 0)
(4.62587e-07 -2.02282e-07 0)
(4.6198e-07 -2.0201e-07 0)
(4.61394e-07 -2.01782e-07 0)
(4.60891e-07 -2.01595e-07 0)
(4.60465e-07 -2.01438e-07 0)
(4.60103e-07 -2.01286e-07 0)
(4.59788e-07 -2.01153e-07 0)
(4.59509e-07 -2.01043e-07 0)
(4.59267e-07 -2.00956e-07 0)
(4.59058e-07 -2.00891e-07 0)
(4.5888e-07 -2.00847e-07 0)
(4.58734e-07 -2.00823e-07 0)
(4.58619e-07 -2.00817e-07 0)
(4.58534e-07 -2.00831e-07 0)
(4.58479e-07 -2.00861e-07 0)
(4.58453e-07 -2.0091e-07 0)
(4.58455e-07 -2.00975e-07 0)
(4.58484e-07 -2.01058e-07 0)
(4.58567e-07 -2.01167e-07 0)
(4.58674e-07 -2.01292e-07 0)
(4.58806e-07 -2.0143e-07 0)
(4.5896e-07 -2.01581e-07 0)
(4.59137e-07 -2.01746e-07 0)
(4.59329e-07 -2.01929e-07 0)
(4.59538e-07 -2.02127e-07 0)
(4.59768e-07 -2.02336e-07 0)
(4.60019e-07 -2.02556e-07 0)
(4.60292e-07 -2.02778e-07 0)
(4.60584e-07 -2.03009e-07 0)
(4.60893e-07 -2.03249e-07 0)
(4.6122e-07 -2.03498e-07 0)
(4.61564e-07 -2.03756e-07 0)
(4.61934e-07 -2.04017e-07 0)
(4.62336e-07 -2.04281e-07 0)
(4.62773e-07 -2.04562e-07 0)
(4.63227e-07 -2.04852e-07 0)
(4.63693e-07 -2.05153e-07 0)
(4.64171e-07 -2.05462e-07 0)
(4.64661e-07 -2.05776e-07 0)
(4.65164e-07 -2.06095e-07 0)
(4.6568e-07 -2.06422e-07 0)
(4.66208e-07 -2.06753e-07 0)
(4.66746e-07 -2.07087e-07 0)
(4.67293e-07 -2.07425e-07 0)
(4.67848e-07 -2.07766e-07 0)
(4.68389e-07 -2.08125e-07 0)
(4.68928e-07 -2.08487e-07 0)
(4.69471e-07 -2.08853e-07 0)
(4.70059e-07 -2.09244e-07 0)
(4.70725e-07 -2.09678e-07 0)
(4.71404e-07 -2.10124e-07 0)
(4.72005e-07 -2.10623e-07 0)
(4.72612e-07 -2.11123e-07 0)
(4.73271e-07 -2.11601e-07 0)
(4.73935e-07 -2.12076e-07 0)
(4.74604e-07 -2.12547e-07 0)
(4.75279e-07 -2.13014e-07 0)
(4.75958e-07 -2.13476e-07 0)
(4.76643e-07 -2.1393e-07 0)
(4.77343e-07 -2.14378e-07 0)
(4.78088e-07 -2.14807e-07 0)
(4.78822e-07 -2.15251e-07 0)
(4.79597e-07 -2.15664e-07 0)
(4.80345e-07 -2.16066e-07 0)
(5.38256e-07 -2.49025e-07 0)
(5.34487e-07 -2.47406e-07 0)
(5.30949e-07 -2.4559e-07 0)
(5.27428e-07 -2.43312e-07 0)
(5.2378e-07 -2.40879e-07 0)
(5.20312e-07 -2.38613e-07 0)
(5.16789e-07 -2.36475e-07 0)
(5.13191e-07 -2.34535e-07 0)
(5.09496e-07 -2.32588e-07 0)
(5.05838e-07 -2.30661e-07 0)
(5.02412e-07 -2.28797e-07 0)
(4.99168e-07 -2.27012e-07 0)
(4.95999e-07 -2.25365e-07 0)
(4.93084e-07 -2.23864e-07 0)
(4.90395e-07 -2.22462e-07 0)
(4.87907e-07 -2.21083e-07 0)
(4.85514e-07 -2.19716e-07 0)
(4.83228e-07 -2.1842e-07 0)
(4.81066e-07 -2.17189e-07 0)
(4.79015e-07 -2.16019e-07 0)
(4.77053e-07 -2.14908e-07 0)
(4.75229e-07 -2.13897e-07 0)
(4.73491e-07 -2.12968e-07 0)
(4.71818e-07 -2.12097e-07 0)
(4.70298e-07 -2.11293e-07 0)
(4.6887e-07 -2.1054e-07 0)
(4.67515e-07 -2.09833e-07 0)
(4.6623e-07 -2.09171e-07 0)
(4.65013e-07 -2.08552e-07 0)
(4.63838e-07 -2.07983e-07 0)
(4.62702e-07 -2.07455e-07 0)
(4.6165e-07 -2.06966e-07 0)
(4.60765e-07 -2.06518e-07 0)
(4.59914e-07 -2.06113e-07 0)
(4.59108e-07 -2.05745e-07 0)
(4.58355e-07 -2.05409e-07 0)
(4.57663e-07 -2.05103e-07 0)
(4.57047e-07 -2.04836e-07 0)
(4.56527e-07 -2.04613e-07 0)
(4.56053e-07 -2.04425e-07 0)
(4.55645e-07 -2.04257e-07 0)
(4.55276e-07 -2.04112e-07 0)
(4.54946e-07 -2.03992e-07 0)
(4.54654e-07 -2.03895e-07 0)
(4.54397e-07 -2.03819e-07 0)
(4.54175e-07 -2.03765e-07 0)
(4.5399e-07 -2.0373e-07 0)
(4.53837e-07 -2.03714e-07 0)
(4.53715e-07 -2.03715e-07 0)
(4.53623e-07 -2.03736e-07 0)
(4.53562e-07 -2.03773e-07 0)
(4.53529e-07 -2.03829e-07 0)
(4.53524e-07 -2.039e-07 0)
(4.53553e-07 -2.03991e-07 0)
(4.53655e-07 -2.04098e-07 0)
(4.53783e-07 -2.04219e-07 0)
(4.53934e-07 -2.04352e-07 0)
(4.54109e-07 -2.045e-07 0)
(4.54306e-07 -2.04659e-07 0)
(4.54526e-07 -2.04831e-07 0)
(4.54766e-07 -2.05015e-07 0)
(4.55025e-07 -2.05215e-07 0)
(4.55302e-07 -2.05429e-07 0)
(4.55585e-07 -2.05663e-07 0)
(4.55876e-07 -2.05912e-07 0)
(4.56185e-07 -2.0617e-07 0)
(4.56511e-07 -2.06436e-07 0)
(4.56855e-07 -2.0671e-07 0)
(4.57217e-07 -2.06987e-07 0)
(4.57595e-07 -2.07271e-07 0)
(4.57999e-07 -2.07566e-07 0)
(4.58424e-07 -2.07876e-07 0)
(4.58851e-07 -2.08193e-07 0)
(4.59276e-07 -2.08531e-07 0)
(4.59662e-07 -2.08903e-07 0)
(4.60067e-07 -2.0929e-07 0)
(4.60486e-07 -2.09682e-07 0)
(4.60928e-07 -2.1008e-07 0)
(4.61359e-07 -2.10488e-07 0)
(4.61799e-07 -2.109e-07 0)
(4.62248e-07 -2.11314e-07 0)
(4.62705e-07 -2.11731e-07 0)
(4.63172e-07 -2.12148e-07 0)
(4.63647e-07 -2.12567e-07 0)
(4.64131e-07 -2.12982e-07 0)
(4.64715e-07 -2.1345e-07 0)
(4.65329e-07 -2.13933e-07 0)
(4.6595e-07 -2.14414e-07 0)
(4.66577e-07 -2.1489e-07 0)
(4.67211e-07 -2.15364e-07 0)
(4.67848e-07 -2.15838e-07 0)
(4.68485e-07 -2.16315e-07 0)
(4.69129e-07 -2.16788e-07 0)
(4.69782e-07 -2.17255e-07 0)
(4.70446e-07 -2.17715e-07 0)
(4.71114e-07 -2.18173e-07 0)
(4.71802e-07 -2.18617e-07 0)
(4.72481e-07 -2.19079e-07 0)
(4.73203e-07 -2.1951e-07 0)
(4.73901e-07 -2.19933e-07 0)
(5.33565e-07 -2.50884e-07 0)
(5.30007e-07 -2.49243e-07 0)
(5.26337e-07 -2.47514e-07 0)
(5.22467e-07 -2.45516e-07 0)
(5.18799e-07 -2.43158e-07 0)
(5.15168e-07 -2.40923e-07 0)
(5.11603e-07 -2.38775e-07 0)
(5.08091e-07 -2.3675e-07 0)
(5.04537e-07 -2.34748e-07 0)
(5.01015e-07 -2.32772e-07 0)
(4.97504e-07 -2.30983e-07 0)
(4.94157e-07 -2.29286e-07 0)
(4.90916e-07 -2.27704e-07 0)
(4.8806e-07 -2.26204e-07 0)
(4.8536e-07 -2.24748e-07 0)
(4.82833e-07 -2.23366e-07 0)
(4.804e-07 -2.22082e-07 0)
(4.78057e-07 -2.20838e-07 0)
(4.7586e-07 -2.19641e-07 0)
(4.73761e-07 -2.18507e-07 0)
(4.71767e-07 -2.17427e-07 0)
(4.69915e-07 -2.1643e-07 0)
(4.68169e-07 -2.15506e-07 0)
(4.66519e-07 -2.1464e-07 0)
(4.65023e-07 -2.13843e-07 0)
(4.63584e-07 -2.13092e-07 0)
(4.62218e-07 -2.12388e-07 0)
(4.60922e-07 -2.11728e-07 0)
(4.5986e-07 -2.11159e-07 0)
(4.5886e-07 -2.10631e-07 0)
(4.57871e-07 -2.10135e-07 0)
(4.56907e-07 -2.09682e-07 0)
(4.55983e-07 -2.09261e-07 0)
(4.55115e-07 -2.08874e-07 0)
(4.54301e-07 -2.0852e-07 0)
(4.53539e-07 -2.08199e-07 0)
(4.52833e-07 -2.0791e-07 0)
(4.52248e-07 -2.07664e-07 0)
(4.51733e-07 -2.07448e-07 0)
(4.5125e-07 -2.07246e-07 0)
(4.50849e-07 -2.07071e-07 0)
(4.50502e-07 -2.06927e-07 0)
(4.50193e-07 -2.06807e-07 0)
(4.49922e-07 -2.06709e-07 0)
(4.49686e-07 -2.06633e-07 0)
(4.49486e-07 -2.06578e-07 0)
(4.49319e-07 -2.06542e-07 0)
(4.49182e-07 -2.06526e-07 0)
(4.49075e-07 -2.06527e-07 0)
(4.48986e-07 -2.06557e-07 0)
(4.48924e-07 -2.06604e-07 0)
(4.4889e-07 -2.06673e-07 0)
(4.48882e-07 -2.06763e-07 0)
(4.48924e-07 -2.06871e-07 0)
(4.49031e-07 -2.06991e-07 0)
(4.49164e-07 -2.07125e-07 0)
(4.4932e-07 -2.07272e-07 0)
(4.49501e-07 -2.07432e-07 0)
(4.49706e-07 -2.07603e-07 0)
(4.49933e-07 -2.07787e-07 0)
(4.50132e-07 -2.08008e-07 0)
(4.50268e-07 -2.08283e-07 0)
(4.50405e-07 -2.08572e-07 0)
(4.50566e-07 -2.08878e-07 0)
(4.50745e-07 -2.09193e-07 0)
(4.50943e-07 -2.09517e-07 0)
(4.51158e-07 -2.09849e-07 0)
(4.5139e-07 -2.1019e-07 0)
(4.51638e-07 -2.10538e-07 0)
(4.51902e-07 -2.10893e-07 0)
(4.52182e-07 -2.11256e-07 0)
(4.52501e-07 -2.11639e-07 0)
(4.52835e-07 -2.12028e-07 0)
(4.53193e-07 -2.12422e-07 0)
(4.53566e-07 -2.12821e-07 0)
(4.53953e-07 -2.13223e-07 0)
(4.54353e-07 -2.13627e-07 0)
(4.54766e-07 -2.14034e-07 0)
(4.5519e-07 -2.14443e-07 0)
(4.5562e-07 -2.14853e-07 0)
(4.56061e-07 -2.15264e-07 0)
(4.56511e-07 -2.15677e-07 0)
(4.56971e-07 -2.16091e-07 0)
(4.57435e-07 -2.16508e-07 0)
(4.57904e-07 -2.16926e-07 0)
(4.58401e-07 -2.17354e-07 0)
(4.59002e-07 -2.17838e-07 0)
(4.59611e-07 -2.18321e-07 0)
(4.60229e-07 -2.18803e-07 0)
(4.60851e-07 -2.19285e-07 0)
(4.61449e-07 -2.19788e-07 0)
(4.62056e-07 -2.20288e-07 0)
(4.62674e-07 -2.20783e-07 0)
(4.633e-07 -2.21273e-07 0)
(4.63939e-07 -2.21758e-07 0)
(4.64579e-07 -2.22247e-07 0)
(4.65234e-07 -2.22727e-07 0)
(4.65878e-07 -2.2323e-07 0)
(4.66575e-07 -2.23696e-07 0)
(4.6725e-07 -2.24154e-07 0)
(5.29219e-07 -2.52605e-07 0)
(5.25571e-07 -2.51015e-07 0)
(5.21745e-07 -2.49412e-07 0)
(5.17667e-07 -2.475e-07 0)
(5.13678e-07 -2.45444e-07 0)
(5.0998e-07 -2.43278e-07 0)
(5.06313e-07 -2.41127e-07 0)
(5.02699e-07 -2.39131e-07 0)
(4.99108e-07 -2.37182e-07 0)
(4.95569e-07 -2.35267e-07 0)
(4.9217e-07 -2.33438e-07 0)
(4.88941e-07 -2.31669e-07 0)
(4.85953e-07 -2.29964e-07 0)
(4.83208e-07 -2.284e-07 0)
(4.80607e-07 -2.26913e-07 0)
(4.78097e-07 -2.25537e-07 0)
(4.75685e-07 -2.24242e-07 0)
(4.73379e-07 -2.23012e-07 0)
(4.71144e-07 -2.21844e-07 0)
(4.68995e-07 -2.20758e-07 0)
(4.66946e-07 -2.19729e-07 0)
(4.65013e-07 -2.18768e-07 0)
(4.632e-07 -2.17885e-07 0)
(4.61539e-07 -2.1706e-07 0)
(4.60181e-07 -2.16309e-07 0)
(4.58932e-07 -2.15607e-07 0)
(4.57748e-07 -2.14957e-07 0)
(4.56594e-07 -2.14356e-07 0)
(4.55504e-07 -2.13794e-07 0)
(4.54484e-07 -2.13269e-07 0)
(4.53509e-07 -2.1278e-07 0)
(4.52564e-07 -2.12324e-07 0)
(4.51662e-07 -2.11899e-07 0)
(4.50814e-07 -2.11506e-07 0)
(4.50022e-07 -2.11145e-07 0)
(4.49305e-07 -2.10819e-07 0)
(4.48699e-07 -2.10539e-07 0)
(4.48142e-07 -2.10285e-07 0)
(4.47641e-07 -2.10058e-07 0)
(4.47164e-07 -2.09868e-07 0)
(4.46725e-07 -2.09705e-07 0)
(4.46343e-07 -2.09576e-07 0)
(4.46012e-07 -2.09477e-07 0)
(4.45733e-07 -2.09405e-07 0)
(4.45492e-07 -2.09354e-07 0)
(4.45288e-07 -2.09324e-07 0)
(4.45112e-07 -2.09314e-07 0)
(4.44941e-07 -2.09332e-07 0)
(4.44731e-07 -2.09408e-07 0)
(4.44512e-07 -2.09525e-07 0)
(4.44324e-07 -2.0966e-07 0)
(4.44166e-07 -2.0981e-07 0)
(4.44032e-07 -2.09978e-07 0)
(4.43936e-07 -2.10171e-07 0)
(4.43878e-07 -2.1038e-07 0)
(4.43845e-07 -2.10604e-07 0)
(4.43836e-07 -2.10841e-07 0)
(4.43851e-07 -2.1109e-07 0)
(4.43889e-07 -2.11353e-07 0)
(4.43949e-07 -2.11627e-07 0)
(4.44031e-07 -2.11912e-07 0)
(4.44135e-07 -2.12208e-07 0)
(4.4426e-07 -2.12513e-07 0)
(4.44413e-07 -2.12825e-07 0)
(4.44584e-07 -2.13146e-07 0)
(4.44774e-07 -2.13474e-07 0)
(4.44981e-07 -2.13811e-07 0)
(4.45205e-07 -2.14156e-07 0)
(4.45446e-07 -2.14508e-07 0)
(4.45709e-07 -2.14866e-07 0)
(4.45967e-07 -2.15243e-07 0)
(4.46225e-07 -2.15651e-07 0)
(4.46508e-07 -2.16071e-07 0)
(4.46806e-07 -2.16497e-07 0)
(4.47116e-07 -2.16928e-07 0)
(4.47439e-07 -2.17362e-07 0)
(4.47774e-07 -2.17801e-07 0)
(4.4812e-07 -2.18243e-07 0)
(4.48474e-07 -2.1869e-07 0)
(4.48838e-07 -2.19139e-07 0)
(4.49214e-07 -2.19589e-07 0)
(4.496e-07 -2.20041e-07 0)
(4.49997e-07 -2.20494e-07 0)
(4.50403e-07 -2.20945e-07 0)
(4.50819e-07 -2.21396e-07 0)
(4.51259e-07 -2.21853e-07 0)
(4.51812e-07 -2.2237e-07 0)
(4.52375e-07 -2.22885e-07 0)
(4.52947e-07 -2.23398e-07 0)
(4.5353e-07 -2.23909e-07 0)
(4.54123e-07 -2.24418e-07 0)
(4.54775e-07 -2.24896e-07 0)
(4.55484e-07 -2.25344e-07 0)
(4.56199e-07 -2.25791e-07 0)
(4.56924e-07 -2.26231e-07 0)
(4.57645e-07 -2.26683e-07 0)
(4.58383e-07 -2.27126e-07 0)
(4.59117e-07 -2.27587e-07 0)
(4.59887e-07 -2.28024e-07 0)
(4.60626e-07 -2.2846e-07 0)
(5.24848e-07 -2.54318e-07 0)
(5.21097e-07 -2.52776e-07 0)
(5.17173e-07 -2.51245e-07 0)
(5.1278e-07 -2.49479e-07 0)
(5.08605e-07 -2.47611e-07 0)
(5.04777e-07 -2.45596e-07 0)
(5.01067e-07 -2.43537e-07 0)
(4.97286e-07 -2.41505e-07 0)
(4.93659e-07 -2.39609e-07 0)
(4.90105e-07 -2.37756e-07 0)
(4.86711e-07 -2.35895e-07 0)
(4.83468e-07 -2.34126e-07 0)
(4.80583e-07 -2.3246e-07 0)
(4.77829e-07 -2.3093e-07 0)
(4.75219e-07 -2.29481e-07 0)
(4.72767e-07 -2.28096e-07 0)
(4.70423e-07 -2.26783e-07 0)
(4.68189e-07 -2.25535e-07 0)
(4.66088e-07 -2.24343e-07 0)
(4.64056e-07 -2.23195e-07 0)
(4.62119e-07 -2.2211e-07 0)
(4.60428e-07 -2.21098e-07 0)
(4.58936e-07 -2.202e-07 0)
(4.57566e-07 -2.19382e-07 0)
(4.56283e-07 -2.18619e-07 0)
(4.55061e-07 -2.17919e-07 0)
(4.53857e-07 -2.17302e-07 0)
(4.52713e-07 -2.16732e-07 0)
(4.51634e-07 -2.16202e-07 0)
(4.50617e-07 -2.1571e-07 0)
(4.49661e-07 -2.15253e-07 0)
(4.48727e-07 -2.14831e-07 0)
(4.47794e-07 -2.14439e-07 0)
(4.46907e-07 -2.14077e-07 0)
(4.46104e-07 -2.13754e-07 0)
(4.45398e-07 -2.13484e-07 0)
(4.44743e-07 -2.13246e-07 0)
(4.44119e-07 -2.13046e-07 0)
(4.43431e-07 -2.12936e-07 0)
(4.42808e-07 -2.12847e-07 0)
(4.42209e-07 -2.12793e-07 0)
(4.4166e-07 -2.12768e-07 0)
(4.41153e-07 -2.12764e-07 0)
(4.40678e-07 -2.12789e-07 0)
(4.4022e-07 -2.1284e-07 0)
(4.3981e-07 -2.12908e-07 0)
(4.39466e-07 -2.12986e-07 0)
(4.39154e-07 -2.13083e-07 0)
(4.38865e-07 -2.13203e-07 0)
(4.38585e-07 -2.13353e-07 0)
(4.38334e-07 -2.1352e-07 0)
(4.38112e-07 -2.13705e-07 0)
(4.37917e-07 -2.13906e-07 0)
(4.37781e-07 -2.14132e-07 0)
(4.37675e-07 -2.14373e-07 0)
(4.37593e-07 -2.14629e-07 0)
(4.37534e-07 -2.14899e-07 0)
(4.37498e-07 -2.15182e-07 0)
(4.37483e-07 -2.15478e-07 0)
(4.3749e-07 -2.15786e-07 0)
(4.37518e-07 -2.16105e-07 0)
(4.37563e-07 -2.16432e-07 0)
(4.37625e-07 -2.16769e-07 0)
(4.37707e-07 -2.17115e-07 0)
(4.37806e-07 -2.17471e-07 0)
(4.37928e-07 -2.17835e-07 0)
(4.38077e-07 -2.18208e-07 0)
(4.38242e-07 -2.18589e-07 0)
(4.38424e-07 -2.18978e-07 0)
(4.38621e-07 -2.19374e-07 0)
(4.38833e-07 -2.19777e-07 0)
(4.39057e-07 -2.20187e-07 0)
(4.39327e-07 -2.20613e-07 0)
(4.39613e-07 -2.21044e-07 0)
(4.39911e-07 -2.2148e-07 0)
(4.40222e-07 -2.21919e-07 0)
(4.40606e-07 -2.22328e-07 0)
(4.41084e-07 -2.22694e-07 0)
(4.41574e-07 -2.23063e-07 0)
(4.42073e-07 -2.23435e-07 0)
(4.42582e-07 -2.23809e-07 0)
(4.431e-07 -2.24186e-07 0)
(4.43627e-07 -2.24564e-07 0)
(4.44162e-07 -2.24944e-07 0)
(4.44705e-07 -2.25324e-07 0)
(4.45277e-07 -2.2572e-07 0)
(4.45938e-07 -2.26177e-07 0)
(4.46593e-07 -2.26653e-07 0)
(4.47258e-07 -2.27126e-07 0)
(4.47934e-07 -2.27588e-07 0)
(4.48617e-07 -2.28049e-07 0)
(4.49308e-07 -2.28511e-07 0)
(4.50006e-07 -2.28972e-07 0)
(4.50713e-07 -2.29432e-07 0)
(4.51429e-07 -2.29887e-07 0)
(4.52153e-07 -2.3034e-07 0)
(4.52895e-07 -2.30784e-07 0)
(4.53633e-07 -2.31247e-07 0)
(4.54407e-07 -2.31687e-07 0)
(4.55149e-07 -2.32128e-07 0)
(5.20443e-07 -2.56024e-07 0)
(5.16498e-07 -2.54549e-07 0)
(5.12534e-07 -2.53079e-07 0)
(5.07933e-07 -2.51408e-07 0)
(5.03676e-07 -2.49642e-07 0)
(4.99568e-07 -2.47847e-07 0)
(4.95794e-07 -2.45885e-07 0)
(4.91933e-07 -2.43941e-07 0)
(4.88204e-07 -2.41988e-07 0)
(4.8468e-07 -2.40103e-07 0)
(4.81304e-07 -2.38281e-07 0)
(4.78105e-07 -2.36551e-07 0)