/*--------------------------------*- C++ -*----------------------------------*\
| =========                 |                                                 |
| \\      /  F ield         | foam-extend: Open Source CFD                    |
|  \\    /   O peration     | Version:     4.1                                |
|   \\  /    A nd           | Web:         http://www.foam-extend.org         |
|    \\/     M anipulation  |                                                 |
\*---------------------------------------------------------------------------*/
FoamFile
{
    version     2.0;
    format      ascii;
    class       volScalarField;
    location    "1";
    object      sigmaEq;
}
// * * * * * * * * * * * * * * * * * * * * * * * * * * * * * * * * * * * * * //

dimensions      [1 -1 -2 0 0 0 0];

internalField   nonuniform List<scalar> 
100000
(
95536
94533.9
94100.9
94326.3
95007.2
96097.6
97489
99119.2
100919
102840
104837
106876
108927
110970
112987
114964
116891
118761
120567
122307
123977
125576
127104
128560
129946
131263
132511
133693
134811
135863
136861
137792
138680
139513
140281
141007
141678
142307
142891
143433
143935
144399
144825
145217
145574
145899
146194
146459
146696
146907
147092
147253
147390
147506
147600
147674
147729
147766
147786
147789
147777
147749
147707
147652
147584
147503
147411
147307
147193
147069
146936
146793
146642
146482
146315
146140
145958
145770
145575
145375
145168
144956
144740
144518
144293
144063
143829
143591
143349
143103
142854
142602
142347
142090
141831
141568
141308
141040
140797
140509
98982.1
97828.3
97224.7
97275.9
97779
98695
99917.2
101386
103035
104814
106680
108597
110537
112477
114400
116290
118138
119935
121675
123353
124967
126514
127994
129406
130752
132030
133244
134394
135480
136509
137476
138393
139224
140054
140803
141508
142164
142778
143347
143875
144364
144814
145229
145609
145955
146270
146555
146811
147039
147241
147418
147571
147701
147810
147897
147965
148014
148045
148060
148057
148040
148007
147961
147901
147828
147744
147647
147540
147423
147295
147158
147012
146857
146694
146524
146346
146162
145971
145773
145570
145361
145146
144927
144703
144476
144245
144009
143768
143524
143276
143026
142772
142517
142259
141999
141738
141477
141214
140952
140688
102427
101123
100351
100230
100558
101302
102356
103666
105163
106800
108534
110329
112156
113993
115820
117622
119390
121112
122784
124399
125955
127449
128880
130247
131550
132790
133968
135085
136142
137144
138082
138975
139800
140573
141312
141993
142636
143231
143785
144298
144773
145210
145612
145979
146315
146619
146893
147140
147359
147552
147721
147866
147989
148090
148171
148232
148275
148300
148309
148301
148278
148241
148190
148125
148048
147959
147859
147748
147626
147495
147355
147205
147047
146881
146708
146527
146340
146146
145947
145742
145529
145311
145089
144863
144634
144402
144163
143920
143674
143424
143172
142917
142660
142400
142139
141875
141611
141344
141073
140801
105869
104416
103477
103188
103343
103916
104805
105956
107302
108798
110399
112071
113785
115516
117246
118960
120645
122291
123893
125444
126941
128380
129760
131081
132341
133541
134681
135763
136788
137756
138671
139527
140328
141094
141809
142471
143092
143669
144206
144703
145162
145586
145974
146329
146653
146946
147210
147446
147656
147840
148001
148138
148253
148347
148420
148475
148511
148531
148533
148520
148492
148450
148394
148325
148243
148150
148046
147931
147805
147670
147526
147374
147213
147044
146868
146684
146494
146297
146095
145888
145673
145451
145226
144993
144767
144538
144295
144049
143799
143548
143294
143037
142778
142517
142254
141988
141720
141449
141171
140897
109308
107707
106604
106148
106132
106538
107262
108255
109451
110805
112274
113822
115421
117046
118678
120301
121903
123473
125003
126489
127924
129308
130636
131908
133124
134283
135385
136431
137422
138359
139242
140072
140856
141596
142285
142927
143529
144087
144607
145088
145532
145941
146316
146658
146970
147251
147505
147731
147931
148106
148257
148386
148493
148580
148646
148694
148724
148737
148734
148715
148682
148634
148573
148499
148413
148316
148207
148088
147959
147821
147673
147517
147353
147181
147001
146814
146622
146420
146220
146013
145792
145564
145339
145104
144877
144645
144399
144147
143899
143646
143391
143133
142873
142609
142344
142076
141805
141532
141252
140978
112742
110996
109730
109109
108925
109164
109726
110562
111608
112822
114157
115582
117065
118583
120116
121647
123164
124655
126113
127532
128906
130231
131507
132730
133900
135016
136078
137088
138044
138949
139803
140607
141363
142078
142745
143367
143948
144488
144990
145454
145883
146277
146638
146967
147266
147536
147778
147993
148183
148349
148491
148612
148711
148789
148849
148889
148912
148919
148910
148886
148847
148794
148728
148650
148559
148457
148344
148221
148088
147946
147795
147636
147468
147294
147112
146923
146731
146526
146328
146109
145880
145663
145429
145182
144964
144736
144473
144224
143971
143720
143463
143205
142942
142678
142410
142140
141867
141593
141311
141038
116172
114280
112854
112070
111720
111795
112195
112875
113773
114845
116049
117349
118716
120126
121558
122997
124427
125839
127223
128573
129884
131151
132372
133545
134668
135741
136762
137734
138655
139527
140351
141127
141858
142546
143189
143790
144350
144871
145354
145801
146214
146592
146939
147255
147541
147798
148029
148234
148413
148569
148703
148814
148905
148976
149028
149061
149076
149077
149063
149033
148988
148930
148859
148775
148680
148573
148456
148329
148192
148046
147892
147729
147558
147380
147195
147004
146804
146595
146393
146125
145958
145725
145504
145251
145091
144725
144546
144281
144033
143777
143517
143256
142991
142724
142454
142182
141907
141632
141348
141077
119596
117560
115975
115030
114515
114428
114669
115195
115945
116876
117946
119122
120372
121674
123005
124349
125692
127023
128332
129613
130859
132067
133232
134354
135429
136457
137437
138370
139255
140094
140886
141633
142337
142998
143617
144196
144735
145236
145700
146130
146525
146888
147220
147522
147795
148040
148259
148452
148621
148767
148891
148993
149076
149138
149183
149209
149217
149211
149191
149156
149105
149042
148965
148876
148776
148665
148544
148412
148271
148122
147963
147797
147622
147441
147251
147056
146851
146647
146428
146220
146003
145764
145537
145311
145050
144803
144574
144319
144067
143807
143545
143281
143014
142745
142474
142200
141924
141648
141363
141092
123013
120834
119092
117988
117311
117063
117145
117518
118121
118912
119849
120900
122034
123225
124455
125704
126959
128208
129441
130651
131832
132978
134087
135156
136182
137164
138102
138996
139844
140648
141408
142126
142801
143436
144030
144585
145102
145583
146028
146440
146818
147165
147482
147769
148028
148261
148467
148649
148808
148943
149057
149151
149225
149279
149319
149333
149332
149323
149300
149256
149199
149129
149047
148953
148848
148732
148607
148471
148326
148173
148011
147841
147663
147478
147286
147088
146884
146672
146462
146245
146016
145780
145550
145310
145072
144826
144575
144318
144064
143805
143544
143279
143011
142741
142469
142195
141918
141641
141355
141085
126423
124102
122203
120943
120105
119698
119624
119845
120301
120952
121757
122683
123699
124781
125907
127061
128227
129392
130549
131687
132801
133885
134937
135951
136927
137863
138758
139611
140421
141190
141918
142604
143251
143858
144427
144958
145453
145913
146338
146731
147092
147422
147723
147996
148241
148461
148655
148825
148972
149097
149201
149284
149348
149391
149423
149422
149429
149424
149379
149334
149268
149193
149105
149006
148896
148776
148646
148506
148357
148200
148034
147861
147680
147492
147297
147097
146890
146679
146463
146240
146012
145780
145545
145307
145059
144806
144555
144301
144045
143784
143521
143255
142986
142715
142442
142166
141888
141611
141323
141054
129825
127363
125309
123894
122897
122333
122103
122173
122484
122996
123669
124470
125368
126339
127362
128419
129495
130577
131655
132720
133766
134788
135780
136740
137666
138554
139404
140216
140988
141721
142414
143069
143686
144265
144808
145315
145787
146225
146630
147004
147347
147660
147945
148203
148434
148640
148821
148980
149115
149230
149323
149397
149451
149490
149512
149513
149543
149474
149435
149379
149309
149230
149137
149034
148920
148795
148660
148517
148364
148203
148034
147857
147673
147482
147285
147081
146873
146658
146439
146215
145984
145749
145511
145269
145023
144772
144518
144261
144001
143739
143475
143207
142937
142665
142391
142115
141836
141558
141269
141001
133217
130615
128409
126840
125686
124966
124583
124503
124669
125043
125584
126259
127039
127900
128819
129778
130763
131760
132759
133751
134728
135685
136618
137523
138396
139236
140041
140810
141543
142239
142898
143520
144107
144658
145174
145656
146104
146520
146904
147259
147583
147879
148148
148390
148607
148799
148967
149113
149238
149342
149425
149491
149537
149569
149578
149584
149549
149503
149467
149402
149331
149245
149148
149039
148920
148791
148652
148504
148347
148182
148010
147829
147642
147448
147248
147042
146831
146614
146392
146165
145932
145696
145456
145211
144963
144710
144454
144196
143935
143672
143406
143137
142866
142593
142318
142041
141761
141483
141192
140925
136600
133859
131500
129779
128470
127596
127061
126833
126855
127091
127500
128051
128713
129462
130276
131138
132031
132942
133861
134778
135686
136578
137450
138298
139119
139909
140668
141394
142087
142745
143369
143959
144514
145036
145524
145980
146405
146798
147161
147495
147801
148079
148331
148558
148759
148938
149093
149226
149339
149431
149504
149559
149597
149617
149622
149604
149573
149534
149485
149413
149333
149240
149137
149022
148898
148763
148620
148468
148307
148138
147962
147778
147588
147391
147188
146979
146765
146545
146321
146091
145857
145618
145376
145129
144879
144626
144369
144109
143846
143581
143314
143044
142772
142498
142221
141944
141663
141384
141093
140826
139972
137092
134584
132712
131249
130223
129536
129161
129041
129140
129418
129843
130387
131025
131735
132498
133298
134123
134961
135802
136640
137466
138277
139067
139834
140574
141286
141969
142620
143240
143828
144383
144907
145399
145860
146290
146689
147059
147401
147714
148001
148261
148496
148706
148892
149056
149198
149319
149419
149500
149562
149607
149633
149644
149637
149615
149579
149532
149471
149395
149309
149210
149101
148981
148852
148713
148565
148408
148243
148071
147891
147704
147510
147310
147104
146892
146675
146453
146226
145994
145758
145517
145273
145025
144773
144518
144259
143998
143734
143468
143199
142928
142655
142380
142103
141824
141543
141264
140972
140705
143332
140315
137657
135637
134022
132845
132009
131488
131226
131188
131335
131637
132062
132588
133193
133857
134564
135302
136058
136823
137589
138349
139097
139829
140541
141230
141895
142532
143142
143723
144274
144795
145286
145748
146180
146583
146958
147304
147623
147916
148183
148424
148641
148835
149006
149155
149283
149390
149478
149547
149598
149632
149649
149649
149635
149604
149560
149505
149437
149356
149263
149158
149043
148918
148783
148639
148486
148325
148156
147980
147796
147606
147409
147206
146997
146782
146562
146338
146108
145874
145636
145393
145147
144897
144643
144387
144127
143865
143599
143332
143062
142790
142516
142240
141962
141683
141401
141121
140828
140562
146679
143527
140721
138553
136788
135461
134477
133812
133409
133236
133253
133429
133737
134151
134650
135215
135829
136479
137153
137841
138534
139226
139911
140584
141241
141878
142494
143086
143653
144194
144708
145194
145652
146083
146486
146861
147210
147532
147829
148100
148346
148569
148768
148945
149100
149234
149348
149442
149517
149574
149614
149636
149643
149634
149610
149572
149521
149457
149381
149293
149193
149083
148962
148832
148692
148543
148385
148220
148047
147866
147679
147485
147284
147078
146866
146649
146426
146199
145967
145731
145490
145246
144998
144746
144491
144233
143972
143708
143442
143173
142902
142629
142354
142078
141799
141519
141236
140956
140662
140397
150014
146726
143774
141460
139546
138071
136941
136132
135589
135281
135168
135221
135411
135713
136106
136571
137091
137653
138244
138854
139474
140098
140719
141332
141932
142517
143084
143630
144153
144654
145129
145580
146004
146403
146777
147124
147447
147744
148018
148267
148493
148696
148877
149037
149175
149294
149393
149473
149536
149580
149608
149620
149616
149598
149565
149518
149458
149387
149303
149208
149102
148986
148859
148723
148577
148424
148261
148092
147914
147730
147539
147341
147137
146928
146713
146493
146268
146038
145804
145565
145323
145076
144826
144573
144316
144057
143795
143530
143262
142992
142721
142447
142171
141893
141614
141334
141050
140770
140475
140210
153334
149912
146815
144357
142294
140674
139398
138447
137766
137324
137082
137011
137083
137274
137561
137925
138351
138824
139331
139863
140410
140965
141521
142073
142616
143148
143664
144163
144643
145102
145539
145953
146343
146710
147053
147372
147668
147940
148190
148417
148622
148805
148968
149110
149232
149335
149419
149485
149534
149566
149583
149583
149569
149540
149498
149443
149375
149295
149204
149102
148989
148866
148733
148591
148441
148282
148115
147941
147759
147571
147376
147175
146968
146755
146537
146314
146086
145854
145617
145377
145132
144884
144632
144377
144119
143858
143595
143329
143060
142789
142517
142242
141965
141687
141407
141126
140842
140562
140266
140002
156639
153085
149843
147242
145033
143268
141849
140756
139938
139362
138992
138799
138753
138832
139013
139277
139608
139992
140415
140868
141340
141825
142316
142806
143292
143770
144235
144687
145122
145539
145936
146313
146669
147003
147315
147606
147874
148120
148346
148550
148734
148897
149040
149164
149269
149356
149426
149478
149513
149533
149537
149526
149501
149462
149411
149346
149270
149182
149083
148974
148854
148725
148586
148438
148282
148118
147947
147768
147582
147389
147191
146986
146776
146560
146339
146113
145883
145648
145409
145166
144920
144670
144416
144160
143900
143638
143373
143106
142836
142565
142291
142015
141738
141459
141179
140898
140613
140333
140037
139773
159929
156242
152857
150115
147762
145853
144291
143059
142105
141397
140899
140583
140420
140387
140462
140626
140862
141156
141495
141868
142265
142680
143104
143533
143960
144383
144797
145201
145590
145964
146322
146661
146982
147283
147564
147824
148064
148285
148486
148667
148829
148971
149095
149201
149289
149360
149413
149451
149473
149479
149471
149449
149413
149364
149303
149229
149144
149048
148941
148825
148698
148562
148417
148264
148102
147933
147756
147573
147383
147186
146984
146775
146561
146343
146119
145890
145657
145420
145179
144934
144685
144433
144178
143920
143659
143396
143130
142861
142591
142318
142044
141768
141490
141210
140929
140648
140363
140082
139786
139523
163203
159384
155858
152975
150479
148428
146725
145355
144265
143426
142801
142363
142084
141939
141908
141971
142112
142316
142570
142863
143185
143528
143886
144252
144621
144988
145350
145704
146048
146379
146696
146997
147282
147549
147798
148029
148240
148433
148610
148767
148907
149029
149133
149220
149291
149345
149383
149405
149413
149406
149386
149352
149305
149246
149174
149091
148998
148893
148779
148654
148521
148378
148227
148067
147900
147726
147544
147356
147162
146961
146755
146543
146326
146104
145877
145645
145410
145170
144927
144679
144429
144175
143919
143659
143397
143132
142865
142595
142324
142050
141775
141498
141220
140940
140659
140377
140092
139811
139514
139252
166459
162510
158843
155821
153184
150993
149150
147643
146418
145449
144698
144139
143743
143487
143350
143313
143358
143471
143640
143852
144099
144371
144661
144964
145273
145584
145893
146198
146495
146783
147058
147321
147569
147802
148019
148219
148400
148567
148718
148852
148969
149070
149154
149222
149274
149311
149333
149341
149335
149314
149281
149235
149177
149107
149026
148933
148831
148718
148595
148463
148323
148173
148015
147850
147677
147498
147311
147118
146920
146715
146505
146289
146068
145843
145613
145379
145141
144899
144653
144404
144151
143896
143638
143377
143113
142847
142579
142308
142036
141762
141486
141208
140929
140649
140367
140085
139800
139519
139222
138961
169697
165618
161813
158653
155875
153546
151565
149922
148564
147465
146589
145909
145397
145030
144788
144650
144599
144622
144705
144837
145007
145207
145430
145668
145917
146171
146428
146682
146932
147175
147409
147633
147844
148043
148227
148397
148547
148685
148811
148921
149016
149094
149158
149207
149241
149261
149266
149259
149238
149204
149158
149100
149030
148949
148857
148756
148644
148522
148392
148252
148104
147948
147783
147612
147434
147249
147057
146860
146656
146447
146233
146014
145790
145562
145329
145092
144851
144606
144358
144107
143853
143596
143336
143073
142808
142541
142272
142000
141727
141452
141176
140898
140618
140338
140056
139773
139488
139207
138909
138649
172916
168709
164765
161470
158553
156086
153968
152190
150701
149474
148473
147673
147046
146569
146220
145982
145836
145768
145765
145816
145909
146037
146191
146365
146553
146750
146953
147156
147359
147557
147749
147932
148107
148270
148421
148559
148674
148788
148890
148975
149047
149103
149146
149175
149190
149192
149181
149158
149122
149075
149015
148945
148864
148772
148670
148558
148437
148307
148168
148021
147865
147702
147531
147353
147169
146979
146782
146580
146372
146159
145941
145718
145491
145259
145023
144783
144540
144293
144043
143790
143533
143275
143013
142749
142483
142214
141944
141672
141398
141122
140845
140567
140287
140006
139724
139441
139156
138875
138577
138317
176115
171781
167701
164270
161217
158613
156360
154449
152829
151474
150350
149431
148689
148101
147647
147308
147067
146909
146820
146789
146805
146860
146945
147054
147181
147321
147469
147621
147775
147927
148076
148220
148357
148485
148605
148718
148798
148872
148953
149013
149061
149096
149117
149126
149122
149107
149079
149040
148989
148927
148855
148772
148678
148575
148463
148341
148211
148072
147925
147770
147607
147437
147259
147075
146885
146689
146487
146280
146068
145851
145629
145402
145171
144936
144697
144455
144209
143959
143707
143452
143194
142933
142670
142405
142137
141867
141596
141323
141048
140772
140494
140215
139935
139654
139372
139089
138804
138523
138225
137966
179294
174834
170618
167054
163865
161126
158739
156696
154947
153466
152219
151181
150324
149628
149069
148629
148293
148043
147868
147755
147694
147676
147692
147736
147801
147883
147976
148076
148181
148288
148393
148495
148594
148686
148775
148847
148886
148955
149009
149040
149063
149073
149072
149061
149038
149004
148959
148904
148838
148762
148676
148580
148475
148360
148237
148105
147966
147818
147662
147500
147330
147153
146967
146775
146580
146379
146172
145961
145744
145522
145296
145066
144832
144593
144351
144106
143857
143606
143351
143094
142834
142571
142307
142040
141771
141501
141228
140954
140679
140402
140124
139845
139564
139283
139000
138718
138432
138152
137854
137596
182452
177867
173517
169821
166496
163625
161105
158931
157054
155447
154079
152923
151953
151147
150484
149944
149512
149172
148911
148716
148577
148486
148432
148410
148414
148436
148474
148522
148578
148637
148698
148758
148816
148869
148924
148996
149009
148999
149037
149050
149045
149034
149011
148979
148937
148885
148823
148751
148670
148579
148480
148371
148253
148127
147993
147851
147701
147545
147381
147210
147032
146848
146654
146457
146256
146050
145838
145622
145400
145174
144944
144710
144472
144230
143985
143737
143486
143232
142975
142716
142454
142190
141924
141656
141386
141114
140841
140566
140290
140012
139734
139454
139174
138892
138609
138327
138042
137762
137464
137206
185588
180878
176396
172569
169111
166108
163457
161154
159149
157419
155930
154657
153574
152659
151892
151252
150725
150294
149946
149670
149453
149288
149165
149077
149018
148982
148963
148959
148965
148977
148993
149012
149027
149046
149049
149085
148949
149083
149046
149037
149008
148976
148932
148881
148819
148749
148670
148582
148485
148380
148266
148144
148014
147876
147731
147578
147419
147252
147080
146902
146718
146532
146326
146116
145913
145701
145485
145263
145037
144807
144573
144334
144093
143848
143600
143349
143095
142839
142580
142318
142055
141789
141521
141252
140981
140708
140434
140159
139882
139604
139325
139045
138764
138482
138200
137917
137632
137353
137055
136798
188701
183869
179254
175298
171709
168575
165794
163363
161232
159379
157770
156381
155186
154164
153292
152553
151931
151410
150976
150617
150323
150083
149890
149736
149614
149518
149444
149387
149343
149309
149281
149259
149237
149220
149192
149146
149152
149139
149070
149017
148966
148907
148842
148768
148687
148598
148501
148396
148284
148163
148035
147900
147757
147608
147451
147288
147118
146942
146761
146574
146382
146186
145971
145765
145554
145336
145113
144886
144655
144420
144182
143940
143695
143446
143195
142941
142685
142426
142165
141902
141636
141369
141100
140829
140557
140283
140008
139732
139455
139176
138897
138617
138336
138054
137772
137489
137204
136925
136627
136372
191791
186836
182092
178007
174288
171025
168115
165558
163303
161328
159600
158096
156790
155659
154685
153847
153130
152518
151998
151557
151185
150871
150608
150387
150202
150047
149916
149806
149711
149630
149557
149492
149432
149374
149318
149249
149173
149135
149070
148991
148913
148828
148738
148643
148541
148432
148317
148195
148066
147931
147788
147639
147484
147322
147154
146979
146799
146612
146422
146223
146029
145841
145620
145383
145173
144955
144723
144492
144255
144015
143772
143526
143278
143026
142772
142515
142256
141995
141732
141467
141199
140931
140660
140388
140115
139840
139564
139287
139009
138731
138451
138171
137889
137608
137325
137043
136758
136480
136182
135928
194857
189781
184907
180696
176848
173457
170421
167738
165360
163264
161419
159801
158383
157146
156069
155133
154321
153619
153012
152489
152040
151652
151318
151030
150782
150567
150379
150215
150070
149940
149823
149714
149612
149513
149418
149315
149230
149151
149048
148946
148841
148732
148620
148502
148379
148251
148118
147979
147833
147682
147525
147363
147194
147020
146841
146656
146465
146270
146068
145864
145644
145455
145100
145015
144763
144543
144308
144073
143833
143590
143343
143094
142842
142587
142330
142071
141809
141546
141280
141013
140744
140474
140202
139929
139654
139379
139102
138824
138546
138267
137987
137706
137425
137143
136861
136579
136295
136016
135719
135466
197897
192702
187700
183363
179388
175872
172709
169903
167402
165187
163226
161494
159967
158624
157444
156410
155504
154712
154019
153415
152887
152425
152020
151665
151353
151078
150834
150616
150419
150241
150078
149925
149782
149645
149513
149382
149253
149138
149013
148886
148756
148623
148487
148347
148204
148056
147904
147747
147585
147418
147247
147070
146889
146703
146512
146317
146116
145913
145703
145493
145269
145037
144832
144614
144363
144119
143882
143639
143395
143148
142897
142644
142389
142131
141871
141609
141344
141078
140811
140542
140271
139999
139726
139451
139176
138899
138622
138344
138065
137785
137505
137224
136943
136662
136379
136098
135814
135536
135239
134987
200912
195598
190470
186009
181908
178267
174980
172051
169430
167097
165020
163176
161540
160092
158811
157678
156679
155797
155018
154331
153727
153190
152714
152292
151917
151581
151279
151007
150759
150532
150322
150126
149942
149765
149597
149432
149275
149123
148968
148813
148657
148499
148340
148178
148014
147846
147675
147500
147322
147139
146953
146762
146568
146369
146166
145959
145749
145534
145315
145093
144866
144634
144398
144173
143932
143687
143442
143193
142943
142690
142435
142178
141918
141657
141394
141129
140862
140594
140324
140053
139781
139507
139232
138957
138680
138403
138125
137846
137566
137286
137006
136725
136444
136163
135881
135600
135316
135039
134743
134491
203900
198469
193216
188632
184407
180642
177233
174183
171442
168992
166801
164846
163102
161549
160167
158938
157845
156873
156009
155241
154560
153948
153400
152911
152472
152075
151716
151389
151090
150814
150558
150318
150091
149876
149670
149472
149279
149094
148910
148728
148545
148363
148180
147996
147810
147622
147432
147239
147044
146846
146644
146439
146231
146019
145805
145586
145365
145140
144911
144679
144443
144201
143969
143734
143484
143234
142982
142728
142473
142215
141956
141694
141431
141167
140900
140632
140363
140092
139820
139547
139273
138998
138722
138445
138167
137889
137610
137331
137051
136771
136490
136209
135928
135647
135366
135085
134802
134525
134229
133979
206862
201314
195937
191232
186884
182997
179467
176297
173439
170873
168568
166503
164652
162996
161514
160188
159002
157941
156991
156140
155382
154698
154078
153522
153018
152561
152145
151763
151412
151086
150783
150499
150231
149976
149733
149500
149274
149056
148842
148630
148421
148214
148007
147800
147593
147385
147175
146965
146752
146537
146320
146101
145879
145655
145428
145198
144966
144730
144492
144251
144008
143762
143515
143269
143017
142762
142506
142247
141986
141724
141460
141195
140928
140659
140390
140119
139847
139574
139300
139025
138749
138472
138195
137917
137638
137359
137080
136800
136519
136239
135958
135677
135396
135116
134834
134554
134271
133995
133700
133450
209795
204132
198633
193808
189338
185332
181681
178393
175418
172738
170321
168147
166190
164431
162849
161428
160150
159001
157965
157035
156207
155436
154746
154123
153557
153039
152565
152128
151725
151350
151000
150671
150361
150067
149786
149517
149257
149006
148761
148522
148285
148052
147821
147591
147362
147134
146905
146676
146446
146215
145983
145749
145513
145276
145036
144795
144551
144306
144058
143808
143557
143303
143050
142795
142536
142276
142013
141749
141483
141216
140948
140679
140408
140136
139864
139590
139315
139040
138763
138486
138209
137931
137652
137373
137093
136813
136533
136252
135972
135691
135410
135130
134849
134568
134287
134007
133725
133450
133155
132906
212700
206923
201302
196360
191769
187644
183875
180470
177380
174587
172059
169777
167715
165854
164174
162658
161289
160053
158932
157920
156994
156162
155408
154716
154088
153509
152977
152485
152029
151604
151207
150834
150482
150147
149829
149523
149230
148946
148671
148402
148138
147879
147623
147370
147120
146870
146622
146374
146127
145879
145631
145382
145133
144882
144630
144377
144123
143867
143610
143351
143091
142830
142567
142304
142039
141773
141505
141235
140965
140693
140421
140147
139873
139598
139322
139045
138768
138490
138211
137932
137653
137373
137093
136813
136532
136252
135971
135690
135409
135128
134847
134566
134285
134005
133724
133445
133164
132889
132595
132348
215575
209686
203946
198886
194177
189934
186049
182528
179324
176419
173782
171393
169227
167265
165487
163876
162417
161091
159891
158787
157884
156885
156068
155307
154613
153971
153381
152833
152325
151850
151406
150988
150593
150218
149861
149520
149192
148876
148569
148271
147980
147694
147414
147138
146865
146595
146327
146060
145795
145531
145267
145003
144739
144475
144211
143946
143680
143414
143147
142879
142610
142341
142071
141800
141528
141256
140982
140707
140431
140155
139878
139601
139323
139044
138765
138485
138205
137925
137644
137363
137082
136801
136519
136238
135956
135675
135393
135112
134831
134550
134269
133988
133707
133427
133147
132869
132588
132314
132021
131774
218420
212420
206561
201386
196560
192202
188200
184566
181249
178234
175489
172993
170725
168662
166787
165082
163531
162117
160831
159653
158581
157609
156710
155887
155126
154425
153776
153173
152612
152088
151596
151133
150695
150280
149885
149507
149144
148795
148457
148129
147810
147499
147193
146894
146598
146307
146019
145734
145451
145169
144889
144611
144333
144055
143778
143501
143225
142948
142671
142393
142116
141838
141560
141282
141003
140724
140444
140164
139884
139603
139321
139040
138758
138476
138193
137911
137628
137345
137062
136779
136497
136214
135931
135648
135366
135084
134801
134520
134238
133957
133676
133395
133115
132835
132556
132278
131997
131724
131432
131186
221235
215124
209149
203860
198918
194445
190330
186583
183156
180031
177179
174579
172208
170047
168076
166278
164637
163138
161767
160517
159381
158316
157345
156455
155631
154869
154162
153505
152891
152317
151777
151269
150789
150333
149899
149484
149087
148704
148335
147978
147631
147293
146962
146638
146321
146008
145700
145395
145094
144796
144500
144206
143914
143623
143333
143044
142756
142468
142181
141894
141608
141322
141036
140751
140465
140179
139893
139608
139322
139036
138750
138464
138179
137893
137607
137322
137037
136751
136466
136182
135897
135613
135329
135045
134761
134478
134196
133913
133631
133350
133069
132789
132509
132230
131950
131673
131393
131121
130830
130585
224018
217799
211708
206306
201251
196665
192437
188580
185042
181810
178852
176149
173677
171418
169352
167462
165732
164148
162696
161366
160142
159011
157974
157016
156128
155306
154541
153828
153162
152537
151950
151397
150873
150376
149904
149452
149020
148604
148204
147817
147441
147076
146720
146373
146032
145698
145370
145046
144727
144411
144099
143789
143483
143178
142875
142574
142275
141976
141679
141383
141088
140793
140499
140206
139913
139621
139329
139038
138747
138456
138166
137876
137586
137297
137008
136720
136432
136144
135857
135570
135284
134998
134712
134428
134143
133859
133576
133293
133011
132730
132449
132169
131889
131610
131332
131055
130776
130504
130214
129970
226769
220442
214238
208725
203557
198860
194521
190554
186908
183569
180507
177702
175131
172775
170615
168633
166816
165147
163613
162203
160906
159702
158594
157568
156617
155734
154911
154143
153424
152750
152115
151516
150949
150412
149900
149412
148944
148495
148063
147646
147242
146850
146469
146097
145734
145378
145029
144686
144348
144015
143686
143362
143040
142722
142406
142093
141781
141472
141165
140859
140555