/*--------------------------------*- C++ -*----------------------------------*\
| =========                 |                                                 |
| \\      /  F ield         | foam-extend: Open Source CFD                    |
|  \\    /   O peration     | Version:     4.1                                |
|   \\  /    A nd           | Web:         http://www.foam-extend.org         |
|    \\/     M anipulation  |                                                 |
\*---------------------------------------------------------------------------*/
FoamFile
{
    version     2.0;
    format      ascii;
    class       volScalarField;
    location    "1";
    object      epsilonEq;
}
// * * * * * * * * * * * * * * * * * * * * * * * * * * * * * * * * * * * * * //

dimensions      [0 0 0 0 0 0 0];

internalField   nonuniform List<scalar> 
1000
(
4.60855e-07
5.25482e-07
5.77193e-07
6.16355e-07
6.34554e-07
6.41664e-07
6.40591e-07
6.346e-07
6.26543e-07
6.15248e-07
5.76876e-07
5.86217e-07
6.08815e-07
6.33154e-07
6.43382e-07
6.46132e-07
6.42405e-07
6.35195e-07
6.25197e-07
6.14967e-07
6.89937e-07
6.46517e-07
6.37025e-07
6.4358e-07
6.43904e-07
6.41085e-07
6.34053e-07
6.25024e-07
6.13622e-07
6.0302e-07
7.96564e-07
7.04243e-07
6.61766e-07
6.48569e-07
6.37466e-07
6.28132e-07
6.17298e-07
6.06286e-07
5.93672e-07
5.82969e-07
8.9377e-07
7.57442e-07
6.82935e-07
6.49133e-07
6.25582e-07
6.08975e-07
5.9397e-07
5.80798e-07
5.67247e-07
5.56419e-07
9.78959e-07
8.04441e-07
7.00532e-07
6.46565e-07
6.10245e-07
5.85946e-07
5.66498e-07
5.51009e-07
5.366e-07
5.25555e-07
1.0499e-06
8.438e-07
7.14551e-07
6.42212e-07
5.93692e-07
5.6177e-07
5.37842e-07
5.19949e-07
5.04736e-07
4.9332e-07
1.10475e-06
8.74374e-07
7.25054e-07
6.37478e-07
5.78374e-07
5.39579e-07
5.11505e-07
4.91309e-07
4.75344e-07
4.63448e-07
1.14211e-06
8.95253e-07
7.32022e-07
6.33523e-07
5.66542e-07
5.22455e-07
4.91101e-07
4.69023e-07
4.52441e-07
4.40079e-07
1.16083e-06
9.0561e-07
7.35174e-07
6.30913e-07
5.59677e-07
5.12665e-07
4.79465e-07
4.56309e-07
4.39368e-07
4.26732e-07
4.23353e-07
2.8046e-07
2.00842e-07
1.67762e-07
1.55843e-07
1.58133e-07
1.66671e-07
1.78999e-07
1.92298e-07
2.05801e-07
4.05579e-07
2.7943e-07
2.19122e-07
2.01673e-07
1.98415e-07
2.03291e-07
2.10871e-07
2.20526e-07
2.30218e-07
2.40973e-07
3.69879e-07
2.77987e-07
2.5031e-07
2.53769e-07
2.6045e-07
2.68412e-07
2.75306e-07
2.82298e-07
2.87958e-07
2.95532e-07
3.18488e-07
2.79023e-07
2.89591e-07
3.12678e-07
3.27867e-07
3.38596e-07
3.45138e-07
3.50058e-07
3.52345e-07
3.5714e-07
2.55002e-07
2.85841e-07
3.32919e-07
3.72017e-07
3.9385e-07
4.06749e-07
4.1301e-07
4.16233e-07
4.15775e-07
4.18156e-07
1.87588e-07
3.01543e-07
3.77521e-07
4.28277e-07
4.54811e-07
4.69138e-07
4.7501e-07
4.76707e-07
4.73991e-07
4.7417e-07
1.40231e-07
3.28102e-07
4.21715e-07
4.79492e-07
5.08713e-07
5.23632e-07
5.28897e-07
5.29153e-07
5.24583e-07
5.22692e-07
1.59387e-07
3.65609e-07
4.6436e-07
5.24381e-07
5.54165e-07
5.68714e-07
5.73087e-07
5.71887e-07
5.65939e-07
5.61971e-07
2.40384e-07
4.12625e-07
5.04788e-07
5.62323e-07
5.90492e-07
6.03702e-07
6.06811e-07
6.04259e-07
5.97297e-07
5.91704e-07
3.46341e-07
4.66781e-07
5.42478e-07
5.92904e-07
6.17148e-07
6.27772e-07
6.29001e-07
6.24598e-07
6.17258e-07
6.08502e-07
2.19628e-07
2.31142e-07
2.42021e-07
2.51918e-07
2.6063e-07
2.68282e-07
2.74782e-07
2.80181e-07
2.84458e-07
2.87621e-07
2.89643e-07
2.90505e-07
2.90136e-07
2.88509e-07
2.85446e-07
2.81003e-07
2.74713e-07
2.67063e-07
2.56611e-07
2.45768e-07
2.49785e-07
2.55661e-07
2.62373e-07
2.68778e-07
2.74678e-07
2.80035e-07
2.8466e-07
2.88517e-07
2.91523e-07
2.93629e-07
2.94772e-07
2.94899e-07
2.93913e-07
2.9177e-07
2.88281e-07
2.83487e-07
2.76921e-07
2.69062e-07
2.58493e-07
2.47607e-07
2.97836e-07
2.95962e-07
2.96539e-07
2.97629e-07
2.99067e-07
3.00683e-07
3.02179e-07
3.03416e-07
3.0423e-07
3.04494e-07
3.04092e-07
3.02917e-07
3.0084e-07
2.97783e-07
2.93538e-07
2.88127e-07
2.81086e-07
2.72876e-07
2.62133e-07
2.51202e-07
3.53485e-07
3.44223e-07
3.38476e-07
3.33899e-07
3.30342e-07
3.27619e-07
3.25374e-07
3.23388e-07
3.21447e-07
3.19352e-07
3.16937e-07
3.14046e-07
3.10515e-07
3.0623e-07
3.00966e-07
2.94723e-07
2.87046e-07
2.78375e-07
2.67424e-07
2.56473e-07
4.09598e-07
3.94327e-07
3.82938e-07
3.73188e-07
3.64859e-07
3.57831e-07
3.51769e-07
3.46396e-07
3.415e-07
3.36821e-07
3.32171e-07
3.2735e-07
3.22166e-07
3.16477e-07
3.10046e-07
3.02851e-07
2.94457e-07
2.85283e-07
2.7415e-07
2.6325e-07
4.61799e-07
4.42259e-07
4.26323e-07
4.12303e-07
3.99894e-07
3.89008e-07
3.79443e-07
3.70854e-07
3.63084e-07
3.55831e-07
3.4891e-07
3.42093e-07
3.35179e-07
3.28008e-07
3.20338e-07
3.12137e-07
3.03e-07
2.93328e-07
2.82078e-07
2.71349e-07
5.07562e-07
4.85516e-07
4.66311e-07
4.48916e-07
4.33264e-07
4.19074e-07
4.06459e-07
3.94983e-07
3.84584e-07
3.74943e-07
3.65886e-07
3.57177e-07
3.4861e-07
3.40016e-07
3.31162e-07
3.2201e-07
3.12198e-07
3.02113e-07
2.90871e-07
2.80459e-07
5.451e-07
5.2227e-07
5.01616e-07
4.81919e-07
4.64134e-07
4.47456e-07
4.32424e-07
4.18544e-07
4.05846e-07
3.94049e-07
3.83003e-07
3.72495e-07
3.62332e-07
3.52354e-07
3.42346e-07
3.32275e-07
3.21835e-07
3.11405e-07
3.00282e-07
2.90348e-07
5.74291e-07
5.51156e-07
5.30771e-07
5.0952e-07
4.90301e-07
4.71795e-07
4.5486e-07
4.39105e-07
4.24577e-07
4.11061e-07
3.98412e-07
3.86446e-07
3.74981e-07
3.63874e-07
3.52937e-07
3.42153e-07
3.31283e-07
3.20704e-07
3.09903e-07
3.00609e-07
5.94116e-07
5.72228e-07
5.54177e-07
5.33478e-07
5.13848e-07
4.94533e-07
4.76238e-07
4.58971e-07
4.42808e-07
4.27679e-07
4.13485e-07
4.00092e-07
3.87345e-07
3.75124e-07
3.63275e-07
3.51796e-07
3.40527e-07
3.29848e-07
3.19453e-07
3.10951e-07
6.018e-07
5.79544e-07
5.62361e-07
5.43345e-07
5.24438e-07
5.05774e-07
4.87723e-07
4.70426e-07
4.5399e-07
4.38417e-07
4.23672e-07
4.09682e-07
3.96354e-07
3.83618e-07
3.71378e-07
3.59674e-07
3.48432e-07
3.38035e-07
3.28362e-07
3.20813e-07
5.86502e-07
5.73266e-07
5.57828e-07
5.41439e-07
5.24411e-07
5.07304e-07
4.90432e-07
4.74007e-07
4.58173e-07
4.4299e-07
4.28477e-07
4.14617e-07
4.01373e-07
3.88729e-07
3.76647e-07
3.65214e-07
3.54434e-07
3.44706e-07
3.36058e-07
3.29742e-07
5.73924e-07
5.63017e-07
5.50658e-07
5.36596e-07
5.21644e-07
5.06212e-07
4.90703e-07
4.75349e-07
4.60343e-07
4.45785e-07
4.31742e-07
4.18246e-07
4.0531e-07
3.92964e-07
3.81227e-07
3.70223e-07
3.60029e-07
3.51048e-07
3.43435e-07
3.38249e-07
5.59639e-07
5.51279e-07
5.41231e-07
5.29204e-07
5.16173e-07
5.02382e-07
4.88302e-07
4.74144e-07
4.60138e-07
4.46407e-07
4.33056e-07
4.20154e-07
4.07757e-07
3.95932e-07
3.84748e-07
3.74361e-07
3.64906e-07
3.56781e-07
3.50237e-07
3.46151e-07
5.44196e-07
5.37905e-07
5.30003e-07
5.19944e-07
5.08801e-07
4.96674e-07
4.8408e-07
4.7121e-07
4.58321e-07
4.45556e-07
4.33049e-07
4.20898e-07
4.09193e-07
3.98036e-07
3.87534e-07
3.77867e-07
3.69219e-07
3.6197e-07
3.56445e-07
3.53356e-07
5.28318e-07
5.23806e-07
5.17708e-07
5.09385e-07
4.99953e-07
4.89405e-07
4.78273e-07
4.66722e-07
4.55021e-07
4.4332e-07
4.31776e-07
4.20505e-07
4.09627e-07
3.99265e-07
3.89557e-07
3.80701e-07
3.72914e-07
3.66553e-07
3.61993e-07
3.59793e-07
5.12374e-07
5.09334e-07
5.04778e-07
4.98023e-07
4.90157e-07
4.81107e-07
4.71392e-07
4.61156e-07
4.50672e-07
4.4009e-07
4.29578e-07
4.1927e-07
4.09301e-07
3.99814e-07
3.90967e-07
3.82965e-07
3.7605e-07
3.7055e-07
3.6687e-07
3.65432e-07
4.96697e-07
4.94856e-07
4.9159e-07
4.86208e-07
4.7974e-07
4.72076e-07
4.63707e-07
4.54756e-07
4.45488e-07
4.3605e-07
4.26616e-07
4.17325e-07
4.08323e-07
3.99764e-07
3.91819e-07
3.84695e-07
3.78643e-07
3.73963e-07
3.71069e-07
3.70265e-07
4.81489e-07
4.806e-07
4.78406e-07
4.74225e-07
4.69008e-07
4.62623e-07
4.55522e-07
4.47811e-07
4.39739e-07
4.31447e-07
4.23106e-07
4.14857e-07
4.06851e-07
3.99244e-07
3.92214e-07
3.85963e-07
3.80744e-07
3.76823e-07
3.74612e-07
3.74315e-07
4.66861e-07
4.66722e-07
4.65415e-07
4.62279e-07
4.58175e-07
4.52963e-07
4.4705e-07
4.40523e-07
4.33613e-07
4.26451e-07
4.192e-07
4.11997e-07
4.04994e-07
3.98343e-07
3.92221e-07
3.86822e-07
3.82391e-07
3.79162e-07
3.7753e-07
3.77618e-07
4.52861e-07
4.53317e-07
4.52746e-07
4.50523e-07
4.47417e-07
4.43283e-07
4.3848e-07
4.33081e-07
4.2729e-07
4.21229e-07
4.15049e-07
4.0888e-07
4.02867e-07
3.97156e-07
3.91919e-07
3.87335e-07
3.83636e-07
3.81024e-07
3.7987e-07
3.80234e-07
4.39492e-07
4.4043e-07
4.40484e-07
4.39073e-07
4.3687e-07
4.33731e-07
4.29967e-07
4.25636e-07
4.20918e-07
4.15919e-07
4.10779e-07
4.05616e-07
4.00566e-07
3.95766e-07
3.91376e-07
3.87559e-07
3.8453e-07
3.8246e-07
3.81689e-07
3.82229e-07
4.26726e-07
4.28097e-07
4.28689e-07
4.28011e-07
4.26642e-07
4.24431e-07
4.21644e-07
4.18325e-07
4.14629e-07
4.10648e-07
4.06505e-07
4.02309e-07
3.98182e-07
3.94249e-07
3.90657e-07
3.87552e-07
3.85126e-07
3.83525e-07
3.83049e-07
3.83679e-07
4.14541e-07
4.16291e-07
4.17404e-07
4.1743e-07
4.16844e-07
4.1551e-07
4.13644e-07
4.11281e-07
4.08551e-07
4.05534e-07
4.02337e-07
3.99055e-07
3.95798e-07
3.92679e-07
3.89827e-07
3.87371e-07
3.85481e-07
3.84276e-07
3.84016e-07
3.84665e-07
4.02891e-07
4.05113e-07
4.06686e-07
4.07381e-07
4.07567e-07
4.07073e-07
4.06083e-07
4.04625e-07
4.02803e-07
4.00689e-07
3.98373e-07
3.95942e-07
3.93491e-07
3.91119e-07
3.88942e-07
3.87069e-07
3.85645e-07
3.84769e-07
3.84656e-07
3.85264e-07
3.91848e-07
3.94366e-07
3.96572e-07
3.98061e-07
3.98975e-07
3.99293e-07
3.99126e-07
3.9851e-07
3.97528e-07
3.96241e-07
3.94728e-07
3.93066e-07
3.9134e-07
3.89638e-07
3.88058e-07
3.86695e-07
3.85669e-07
3.85059e-07
3.85035e-07
3.85558e-07
3.812e-07
3.85438e-07
3.87269e-07
3.89629e-07
3.91189e-07
3.9231e-07
3.92906e-07
3.93073e-07
3.92849e-07
3.923e-07
3.91493e-07
3.905e-07
3.894e-07
3.88272e-07
3.87205e-07
3.86276e-07
3.85583e-07
3.85185e-07
3.85207e-07
3.85614e-07
3.71466e-07
3.75409e-07
3.79095e-07
3.82023e-07
3.8445e-07
3.86317e-07
3.87666e-07
3.88531e-07
3.88968e-07
3.89036e-07
3.88806e-07
3.88352e-07
3.8775e-07
3.87079e-07
3.86419e-07
3.85837e-07
3.85413e-07
3.85184e-07
3.85233e-07
3.8552e-07
3.62495e-07
3.67473e-07
3.71884e-07
3.75691e-07
3.78954e-07
3.81571e-07
3.83598e-07
3.85062e-07
3.86027e-07
3.86559e-07
3.86739e-07
3.86652e-07
3.86385e-07
3.86022e-07
3.85647e-07
3.85323e-07
3.85115e-07
3.85039e-07
3.85132e-07
3.85325e-07
3.55089e-07
3.6113e-07
3.66584e-07
3.71303e-07
3.7532e-07
3.78588e-07
3.81149e-07
3.8304e-07
3.84336e-07
3.85118e-07
3.85487e-07
3.85546e-07
3.85403e-07
3.85159e-07
3.84911e-07
3.8473e-07
3.84678e-07
3.8475e-07
3.84953e-07
3.8515e-07
4.17658e-07
4.30083e-07
4.51859e-07
4.79867e-07
5.10328e-07
5.39786e-07
5.65471e-07
5.85429e-07
5.99008e-07
6.04219e-07
4.10075e-07
4.20983e-07
4.4029e-07
4.65555e-07
4.93696e-07
5.21777e-07
5.47315e-07
5.68008e-07
5.83112e-07
5.90269e-07
4.03931e-07
4.13476e-07
4.30434e-07
4.5283e-07
4.7811e-07
5.03799e-07
5.27988e-07
5.48703e-07
5.65844e-07
5.77018e-07
3.98848e-07
4.07159e-07
4.22012e-07
4.41834e-07
4.64523e-07
4.87921e-07
5.10383e-07
5.30042e-07
5.46855e-07
5.60326e-07
3.94307e-07
4.01524e-07
4.14479e-07
4.31921e-07
4.52135e-07
4.73317e-07
4.94098e-07
5.12913e-07
5.29173e-07
5.43428e-07
3.90193e-07
3.96455e-07
4.0774e-07
4.23047e-07
4.40953e-07
4.5994e-07
4.78786e-07
4.96354e-07
5.1164e-07
5.26118e-07
3.86238e-07
3.91672e-07
4.01498e-07
4.14922e-07
4.3076e-07
4.47767e-07
4.64805e-07
4.81099e-07
4.95227e-07
5.09159e-07
3.82329e-07
3.87046e-07
3.95598e-07
4.07354e-07
4.21309e-07
4.3646e-07
4.51731e-07
4.66681e-07
4.79664e-07
4.92777e-07
3.78322e-07
3.82422e-07
3.89877e-07
4.00182e-07
4.12481e-07
4.25968e-07
4.39622e-07
4.53226e-07
4.65061e-07
4.77149e-07
3.74112e-07
3.77683e-07
3.84189e-07
3.93227e-07
4.0406e-07
4.16043e-07
4.28225e-07
4.40533e-07
4.51296e-07
4.62317e-07
3.6959e-07
3.7271e-07
3.78405e-07
3.86354e-07
3.95916e-07
4.06568e-07
4.17438e-07
4.28527e-07
4.38291e-07
4.48266e-07
3.64659e-07
3.67394e-07
3.724e-07
3.79414e-07
3.8788e-07
3.97368e-07
4.07089e-07
4.17071e-07
4.25933e-07
4.34937e-07
3.59193e-07
3.61606e-07
3.66036e-07
3.72263e-07
3.79804e-07
3.88294e-07
3.97031e-07
4.06037e-07
4.1411e-07
4.22246e-07
3.53098e-07
3.55245e-07
3.59201e-07
3.64778e-07
3.71556e-07
3.79215e-07
3.87137e-07
3.95318e-07
4.02729e-07
4.10131e-07
3.46181e-07
3.48115e-07
3.51697e-07
3.56762e-07
3.62939e-07
3.69943e-07
3.77228e-07
3.84757e-07
3.91663e-07
3.98472e-07
3.38383e-07
3.40156e-07
3.43461e-07
3.48149e-07
3.53889e-07
3.60417e-07
3.67256e-07
3.74328e-07
3.80913e-07
3.87346e-07
3.29306e-07
3.30973e-07
3.34109e-07
3.38569e-07
3.44057e-07
3.50323e-07
3.56937e-07
3.63804e-07
3.70263e-07
3.7666e-07
3.19117e-07
3.20736e-07
3.2381e-07
3.28196e-07
3.33623e-07
3.39841e-07
3.46466e-07
3.53337e-07
3.59944e-07
3.66339e-07
3.06737e-07
3.08387e-07
3.11551e-07
3.16083e-07
3.21723e-07
3.2822e-07
3.35213e-07
3.42485e-07
3.49626e-07
3.56494e-07
2.93443e-07
2.95204e-07
2.98601e-07
3.03479e-07
3.09586e-07
3.16663e-07
3.24345e-07
3.32385e-07
3.40377e-07
3.4811e-07
)
;

boundaryField
{
    left
    {
        type            symmetryPlane;
        value           nonuniform List<scalar> 
30
(
4.17369e-07
4.09822e-07
4.03708e-07
3.98653e-07
3.94138e-07
3.90047e-07
3.86112e-07
3.82221e-07
3.78228e-07
3.74032e-07
3.69521e-07
3.646e-07
3.59144e-07
3.53057e-07
3.46148e-07
3.38358e-07
3.29289e-07
3.19106e-07
3.06732e-07
2.93443e-07
1.15833e-06
9.04792e-07
7.34988e-07
6.30905e-07
5.59654e-07
5.12567e-07
4.7929e-07
4.56074e-07
4.39099e-07
4.26431e-07
)
;
    }
    right
    {
        type            calculated;
        value           nonuniform List<scalar> 
30
(
2.45083e-07
2.46916e-07
2.50508e-07
2.55776e-07
2.62553e-07
2.70664e-07
2.79788e-07
2.89719e-07
2.99999e-07
3.10432e-07
3.2032e-07
3.29346e-07
3.37929e-07
3.45901e-07
3.53171e-07
3.59663e-07
3.6535e-07
3.70221e-07
3.743e-07
3.77626e-07
3.80257e-07
3.82261e-07
3.83716e-07
3.84702e-07
3.85298e-07
3.85587e-07
3.85636e-07
3.85537e-07
3.85336e-07
3.85174e-07
)
;
    }
    down
    {
        type            symmetryPlane;
        value           nonuniform List<scalar> 
30
(
4.2288e-07
2.80317e-07
1.99441e-07
1.64766e-07
1.51806e-07
1.53855e-07
1.6264e-07
1.75423e-07
1.89236e-07
2.03115e-07
2.17483e-07
2.29514e-07
2.40747e-07
2.50918e-07
2.59838e-07
2.67648e-07
2.74271e-07
2.79766e-07
2.84119e-07
2.87343e-07
2.89416e-07
2.9032e-07
2.89985e-07
2.88389e-07
2.85353e-07
2.80935e-07
2.74666e-07
2.67035e-07
2.56599e-07
2.45766e-07
)
;
    }
    up
    {
        type            calculated;
        value           nonuniform List<scalar> 
30
(
2.93024e-07
2.94783e-07
2.98181e-07
3.03063e-07
3.09175e-07
3.16265e-07
3.2396e-07
3.32026e-07
3.40033e-07
3.47815e-07
3.54821e-07
3.60909e-07
3.66397e-07
3.71147e-07
3.75194e-07
3.78487e-07
3.81069e-07
3.82976e-07
3.84283e-07
3.85074e-07
3.85449e-07
3.85513e-07
3.85374e-07
3.85135e-07
3.84891e-07
3.84714e-07
3.84667e-07
3.84743e-07
3.84949e-07
3.85131e-07
)
;
    }
    hole
    {
        type            calculated;
        value           nonuniform List<scalar> 
20
(
4.46734e-07
5.73298e-07
6.95097e-07
8.09181e-07
9.1277e-07
1.00332e-06
1.07861e-06
1.13676e-06
1.17633e-06
1.19622e-06
4.37523e-07
4.1748e-07
3.7732e-07
3.18304e-07
2.42013e-07
1.50391e-07
4.5791e-08
6.91562e-08
1.91581e-07
3.18474e-07
)
;
    }
    frontAndBack
    {
        type            empty;
    }
}


// ************************************************************************* //
