/*--------------------------------*- C++ -*----------------------------------*\
| =========                 |                                                 |
| \\      /  F ield         | foam-extend: Open Source CFD                    |
|  \\    /   O peration     | Version:     4.1                                |
|   \\  /    A nd           | Web:         http://www.foam-extend.org         |
|    \\/     M anipulation  |                                                 |
\*---------------------------------------------------------------------------*/
FoamFile
{
    version     2.0;
    format      ascii;
    class       vectorField;
    location    "1";
    object      solidsCellD_iteration3;
}
// * * * * * * * * * * * * * * * * * * * * * * * * * * * * * * * * * * * * * //


1000
(
(3.30635e-07 -4.49492e-08 0)
(3.24293e-07 -4.70441e-08 0)
(3.22224e-07 -5.05052e-08 0)
(3.23328e-07 -5.48575e-08 0)
(3.26734e-07 -5.98831e-08 0)
(3.31907e-07 -6.54028e-08 0)
(3.38399e-07 -7.13551e-08 0)
(3.45783e-07 -7.77854e-08 0)
(3.53808e-07 -8.457e-08 0)
(3.60453e-07 -9.23401e-08 0)
(3.00898e-07 -4.93278e-08 0)
(2.93933e-07 -5.29313e-08 0)
(2.91165e-07 -5.75448e-08 0)
(2.91622e-07 -6.27693e-08 0)
(2.94323e-07 -6.84582e-08 0)
(2.98547e-07 -7.45323e-08 0)
(3.03894e-07 -8.09303e-08 0)
(3.09946e-07 -8.76645e-08 0)
(3.16487e-07 -9.45324e-08 0)
(3.22303e-07 -1.02147e-07 0)
(2.69263e-07 -5.34245e-08 0)
(2.61998e-07 -5.87029e-08 0)
(2.58893e-07 -6.44179e-08 0)
(2.58769e-07 -7.04513e-08 0)
(2.60792e-07 -7.67027e-08 0)
(2.6424e-07 -8.31531e-08 0)
(2.68696e-07 -8.97704e-08 0)
(2.73869e-07 -9.65137e-08 0)
(2.7953e-07 -1.03209e-07 0)
(2.84886e-07 -1.10388e-07 0)
(2.3619e-07 -5.7163e-08 0)
(2.2897e-07 -6.41285e-08 0)
(2.25736e-07 -7.09109e-08 0)
(2.25216e-07 -7.76653e-08 0)
(2.26629e-07 -8.44154e-08 0)
(2.2943e-07 -9.11472e-08 0)
(2.33171e-07 -9.78751e-08 0)
(2.37639e-07 -1.04582e-07 0)
(2.42621e-07 -1.11166e-07 0)
(2.47555e-07 -1.1801e-07 0)
(2.01912e-07 -6.04557e-08 0)
(1.9508e-07 -6.90384e-08 0)
(1.91847e-07 -7.68701e-08 0)
(1.91107e-07 -8.42997e-08 0)
(1.92131e-07 -9.14452e-08 0)
(1.94383e-07 -9.84009e-08 0)
(1.97503e-07 -1.05233e-07 0)
(2.01273e-07 -1.11917e-07 0)
(2.05601e-07 -1.18412e-07 0)
(2.10014e-07 -1.25007e-07 0)
(1.6662e-07 -6.32581e-08 0)
(1.60442e-07 -7.33229e-08 0)
(1.57449e-07 -8.20777e-08 0)
(1.56649e-07 -9.01202e-08 0)
(1.57387e-07 -9.76625e-08 0)
(1.59119e-07 -1.04843e-07 0)
(1.61657e-07 -1.11741e-07 0)
(1.64798e-07 -1.18413e-07 0)
(1.68449e-07 -1.24863e-07 0)
(1.72235e-07 -1.31298e-07 0)
(1.30478e-07 -6.55085e-08 0)
(1.25319e-07 -7.68488e-08 0)
(1.22765e-07 -8.6426e-08 0)
(1.21994e-07 -9.5001e-08 0)
(1.22468e-07 -1.02872e-07 0)
(1.23772e-07 -1.10252e-07 0)
(1.2576e-07 -1.17229e-07 0)
(1.28256e-07 -1.2392e-07 0)
(1.31172e-07 -1.30362e-07 0)
(1.34225e-07 -1.36697e-07 0)
(9.36663e-08 -6.72054e-08 0)
(8.97894e-08 -7.9568e-08 0)
(8.78446e-08 -8.98093e-08 0)
(8.72498e-08 -9.87851e-08 0)
(8.75207e-08 -1.06921e-07 0)
(8.84202e-08 -1.14448e-07 0)
(8.98464e-08 -1.21515e-07 0)
(9.16666e-08 -1.28233e-07 0)
(9.37938e-08 -1.34659e-07 0)
(9.602e-08 -1.40897e-07 0)
(5.63985e-08 -6.83456e-08 0)
(5.40188e-08 -8.1411e-08 0)
(5.28038e-08 -9.2109e-08 0)
(5.2377e-08 -1.01404e-07 0)
(5.24928e-08 -1.09727e-07 0)
(5.30531e-08 -1.17357e-07 0)
(5.39482e-08 -1.24492e-07 0)
(5.50434e-08 -1.31254e-07 0)
(5.6303e-08 -1.37718e-07 0)
(5.7648e-08 -1.4394e-07 0)
(1.88559e-08 -6.89244e-08 0)
(1.80133e-08 -8.23358e-08 0)
(1.75907e-08 -9.3279e-08 0)
(1.74737e-08 -1.02727e-07 0)
(1.75285e-08 -1.11126e-07 0)
(1.76941e-08 -1.18797e-07 0)
(1.79783e-08 -1.25946e-07 0)
(1.83539e-08 -1.32698e-07 0)
(1.87789e-08 -1.39149e-07 0)
(1.92205e-08 -1.45328e-07 0)
(4.9259e-07 -1.94219e-09 0)
(4.95275e-07 -1.58321e-09 0)
(4.99427e-07 -1.45895e-09 0)
(5.04984e-07 -1.50269e-09 0)
(5.11963e-07 -1.66036e-09 0)
(5.20181e-07 -1.88303e-09 0)
(5.29557e-07 -2.13834e-09 0)
(5.39868e-07 -2.44297e-09 0)
(5.51108e-07 -2.77042e-09 0)
(5.6315e-07 -3.09743e-09 0)
(4.8953e-07 -5.84357e-09 0)
(4.9188e-07 -4.80208e-09 0)
(4.95858e-07 -4.46278e-09 0)
(5.01282e-07 -4.60803e-09 0)
(5.08165e-07 -5.06376e-09 0)
(5.16287e-07 -5.73162e-09 0)
(5.25616e-07 -6.52391e-09 0)
(5.35912e-07 -7.42263e-09 0)
(5.47119e-07 -8.37274e-09 0)
(5.59145e-07 -9.35395e-09 0)
(4.83282e-07 -9.79366e-09 0)
(4.85054e-07 -8.17999e-09 0)
(4.88693e-07 -7.69096e-09 0)
(4.93922e-07 -7.9579e-09 0)
(5.00651e-07 -8.72758e-09 0)
(5.08692e-07 -9.84484e-09 0)
(5.17939e-07 -1.1158e-08 0)
(5.28142e-07 -1.26299e-08 0)
(5.39271e-07 -1.42064e-08 0)
(5.51285e-07 -1.58475e-08 0)
(4.73972e-07 -1.38266e-08 0)
(4.74972e-07 -1.17813e-08 0)
(4.78068e-07 -1.12592e-08 0)
(4.83015e-07 -1.17138e-08 0)
(4.89516e-07 -1.28078e-08 0)
(4.97341e-07 -1.43595e-08 0)
(5.06447e-07 -1.61971e-08 0)
(5.16603e-07 -1.82551e-08 0)
(5.27654e-07 -2.04686e-08 0)
(5.39692e-07 -2.27433e-08 0)
(4.6162e-07 -1.79936e-08 0)
(4.61707e-07 -1.57041e-08 0)
(4.64153e-07 -1.52549e-08 0)
(4.68651e-07 -1.59697e-08 0)
(4.74883e-07 -1.74218e-08 0)
(4.82524e-07 -1.94193e-08 0)
(4.91459e-07 -2.17862e-08 0)
(5.01531e-07 -2.44111e-08 0)
(5.12483e-07 -2.72345e-08 0)
(5.2456e-07 -3.01057e-08 0)
(4.46373e-07 -2.23028e-08 0)
(4.45361e-07 -2.00196e-08 0)
(4.47067e-07 -1.97606e-08 0)
(4.51071e-07 -2.08225e-08 0)
(4.57e-07 -2.2697e-08 0)
(4.64434e-07 -2.51619e-08 0)
(4.73202e-07 -2.80294e-08 0)
(4.83165e-07 -3.11724e-08 0)
(4.94045e-07 -3.4565e-08 0)
(5.06268e-07 -3.79968e-08 0)
(4.28303e-07 -2.67176e-08 0)
(4.26131e-07 -2.47462e-08 0)
(4.27073e-07 -2.48485e-08 0)
(4.30547e-07 -2.63566e-08 0)
(4.36107e-07 -2.87095e-08 0)
(4.43308e-07 -3.16509e-08 0)
(4.519e-07 -3.49941e-08 0)
(4.61729e-07 -3.86254e-08 0)
(4.72554e-07 -4.25649e-08 0)
(4.85028e-07 -4.65216e-08 0)
(4.07534e-07 -3.12179e-08 0)
(4.04179e-07 -2.98796e-08 0)
(4.04323e-07 -3.05469e-08 0)
(4.07239e-07 -3.25969e-08 0)
(4.12372e-07 -3.5492e-08 0)
(4.19313e-07 -3.89362e-08 0)
(4.27735e-07 -4.27511e-08 0)
(4.3748e-07 -4.68433e-08 0)
(4.4831e-07 -5.12863e-08 0)
(4.61099e-07 -5.57052e-08 0)
(3.84221e-07 -3.578e-08 0)
(3.79711e-07 -3.53744e-08 0)
(3.79132e-07 -3.68051e-08 0)
(3.8148e-07 -3.95163e-08 0)
(3.86161e-07 -4.30309e-08 0)
(3.92736e-07 -4.70483e-08 0)
(4.00882e-07 -5.13873e-08 0)
(4.10435e-07 -5.59484e-08 0)
(4.21128e-07 -6.08433e-08 0)
(4.34113e-07 -6.55954e-08 0)
(3.58555e-07 -4.03427e-08 0)
(3.52983e-07 -4.11065e-08 0)
(3.5166e-07 -4.34982e-08 0)
(3.53436e-07 -4.70115e-08 0)
(3.57591e-07 -5.12491e-08 0)
(3.6363e-07 -5.59622e-08 0)
(3.71313e-07 -6.10057e-08 0)
(3.80526e-07 -6.62918e-08 0)
(3.91076e-07 -7.19406e-08 0)
(4.03729e-07 -7.7449e-08 0)
(5.7573e-07 -3.39557e-09 0)
(5.89281e-07 -3.63756e-09 0)
(6.03551e-07 -3.84371e-09 0)
(6.18452e-07 -4.02923e-09 0)
(6.33908e-07 -4.19238e-09 0)
(6.49921e-07 -4.33292e-09 0)
(6.66497e-07 -4.4639e-09 0)
(6.8355e-07 -4.60052e-09 0)
(7.00993e-07 -4.74064e-09 0)
(7.1883e-07 -4.86834e-09 0)
(7.37059e-07 -4.97316e-09 0)
(7.55636e-07 -5.06044e-09 0)
(7.74526e-07 -5.1411e-09 0)
(7.93724e-07 -5.21854e-09 0)
(8.13215e-07 -5.28803e-09 0)
(8.32972e-07 -5.34535e-09 0)
(8.52982e-07 -5.38979e-09 0)
(8.73229e-07 -5.42003e-09 0)
(8.93656e-07 -5.44133e-09 0)
(9.14316e-07 -5.46394e-09 0)
(5.71846e-07 -1.02622e-08 0)
(5.85644e-07 -1.09914e-08 0)
(6.00146e-07 -1.15999e-08 0)
(6.15273e-07 -1.2136e-08 0)
(6.30992e-07 -1.26127e-08 0)
(6.4726e-07 -1.30427e-08 0)
(6.64045e-07 -1.34477e-08 0)
(6.81296e-07 -1.38411e-08 0)
(6.98953e-07 -1.42153e-08 0)
(7.16996e-07 -1.45567e-08 0)
(7.35402e-07 -1.48598e-08 0)
(7.54149e-07 -1.51323e-08 0)
(7.7323e-07 -1.53829e-08 0)
(7.92618e-07 -1.56097e-08 0)
(8.12271e-07 -1.58052e-08 0)
(8.32162e-07 -1.59679e-08 0)
(8.52286e-07 -1.60983e-08 0)
(8.72628e-07 -1.61956e-08 0)
(8.93194e-07 -1.62741e-08 0)
(9.14026e-07 -1.63515e-08 0)
(5.64196e-07 -1.7335e-08 0)
(5.78484e-07 -1.84901e-08 0)
(5.93525e-07 -1.94435e-08 0)
(6.09133e-07 -2.02939e-08 0)
(6.25278e-07 -2.10662e-08 0)
(6.41974e-07 -2.17774e-08 0)
(6.59224e-07 -2.24485e-08 0)
(6.76937e-07 -2.30851e-08 0)
(6.95006e-07 -2.36773e-08 0)
(7.13428e-07 -2.42215e-08 0)
(7.32217e-07 -2.47196e-08 0)
(7.51357e-07 -2.51767e-08 0)
(7.70817e-07 -2.55924e-08 0)
(7.90545e-07 -2.59595e-08 0)
(8.10517e-07 -2.62721e-08 0)
(8.30743e-07 -2.65306e-08 0)
(8.51167e-07 -2.67354e-08 0)
(8.71793e-07 -2.68989e-08 0)
(8.92617e-07 -2.70474e-08 0)
(9.13672e-07 -2.72002e-08 0)
(5.52953e-07 -2.47253e-08 0)
(5.67938e-07 -2.62009e-08 0)
(5.83707e-07 -2.74264e-08 0)
(6.00029e-07 -2.85549e-08 0)
(6.16905e-07 -2.96009e-08 0)
(6.34305e-07 -3.05701e-08 0)
(6.52191e-07 -3.14814e-08 0)
(6.70498e-07 -3.23383e-08 0)
(6.89176e-07 -3.31377e-08 0)
(7.08218e-07 -3.38815e-08 0)
(7.27613e-07 -3.45693e-08 0)
(7.47322e-07 -3.51973e-08 0)
(7.67299e-07 -3.57587e-08 0)
(7.87503e-07 -3.62496e-08 0)
(8.07938e-07 -3.66727e-08 0)
(8.28624e-07 -3.70223e-08 0)
(8.4949e-07 -3.73014e-08 0)
(8.70568e-07 -3.75358e-08 0)
(8.91822e-07 -3.77605e-08 0)
(9.13226e-07 -3.80083e-08 0)
(5.38285e-07 -3.25053e-08 0)
(5.54217e-07 -3.4206e-08 0)
(5.71019e-07 -3.56325e-08 0)
(5.8831e-07 -3.6991e-08 0)
(6.06108e-07 -3.82688e-08 0)
(6.24398e-07 -3.9462e-08 0)
(6.43166e-07 -4.05945e-08 0)
(6.62306e-07 -4.16605e-08 0)
(6.81802e-07 -4.26628e-08 0)
(7.01636e-07 -4.35982e-08 0)
(7.2177e-07 -4.44577e-08 0)
(7.42165e-07 -4.52324e-08 0)
(7.62793e-07 -4.59169e-08 0)
(7.83649e-07 -4.65138e-08 0)
(8.04739e-07 -4.70303e-08 0)
(8.25998e-07 -4.74602e-08 0)
(8.47459e-07 -4.78148e-08 0)
(8.69041e-07 -4.81274e-08 0)
(8.90832e-07 -4.84411e-08 0)
(9.12719e-07 -4.87935e-08 0)
(5.20636e-07 -4.07408e-08 0)
(5.37721e-07 -4.25626e-08 0)
(5.55754e-07 -4.41014e-08 0)
(5.74211e-07 -4.56296e-08 0)
(5.93186e-07 -4.71019e-08 0)
(6.12604e-07 -4.85033e-08 0)
(6.3248e-07 -4.98455e-08 0)
(6.52659e-07 -5.11035e-08 0)
(6.73108e-07 -5.22813e-08 0)
(6.93841e-07 -5.33794e-08 0)
(7.14847e-07 -5.43865e-08 0)
(7.36091e-07 -5.52889e-08 0)
(7.57526e-07 -5.60824e-08 0)
(7.79152e-07 -5.67757e-08 0)
(8.00991e-07 -5.73716e-08 0)
(8.22934e-07 -5.78696e-08 0)
(8.45074e-07 -5.82954e-08 0)
(8.67292e-07 -5.86863e-08 0)
(8.8972e-07 -5.90896e-08 0)
(9.12209e-07 -5.95317e-08 0)
(5.00274e-07 -4.9523e-08 0)
(5.18801e-07 -5.13379e-08 0)
(5.38388e-07 -5.2888e-08 0)
(5.58304e-07 -5.45147e-08 0)
(5.7868e-07 -5.61206e-08 0)
(5.9942e-07 -5.76889e-08 0)
(6.20469e-07 -5.91967e-08 0)
(6.41782e-07 -6.06217e-08 0)
(6.63329e-07 -6.19581e-08 0)
(6.85111e-07 -6.31991e-08 0)
(7.07116e-07 -6.43324e-08 0)
(7.29301e-07 -6.53439e-08 0)
(7.51634e-07 -6.62308e-08 0)
(7.74122e-07 -6.7006e-08 0)
(7.96749e-07 -6.76704e-08 0)
(8.19473e-07 -6.82319e-08 0)
(8.42393e-07 -6.87257e-08 0)
(8.65372e-07 -6.91843e-08 0)
(8.88536e-07 -6.9646e-08 0)
(9.11716e-07 -7.01331e-08 0)
(4.77518e-07 -5.88847e-08 0)
(4.97834e-07 -6.05408e-08 0)
(5.19273e-07 -6.19981e-08 0)
(5.4093e-07 -6.36475e-08 0)
(5.62895e-07 -6.53175e-08 0)
(5.85147e-07 -6.6988e-08 0)
(6.07568e-07 -6.86028e-08 0)
(6.30151e-07 -7.01477e-08 0)
(6.52899e-07 -7.16061e-08 0)
(6.75824e-07 -7.29596e-08 0)
(6.98902e-07 -7.41917e-08 0)
(7.2207e-07 -7.52908e-08 0)
(7.45311e-07 -7.62601e-08 0)
(7.68686e-07 -7.71128e-08 0)
(7.9216e-07 -7.78478e-08 0)
(8.15746e-07 -7.84772e-08 0)
(8.39515e-07 -7.90317e-08 0)
(8.63307e-07 -7.95329e-08 0)
(8.87274e-07 -8.00078e-08 0)
(9.11244e-07 -8.04894e-08 0)
(4.5243e-07 -6.89304e-08 0)
(4.75189e-07 -7.02154e-08 0)
(4.98931e-07 -7.14565e-08 0)
(5.22644e-07 -7.30138e-08 0)
(5.46475e-07 -7.46694e-08 0)
(5.7037e-07 -7.63494e-08 0)
(5.94288e-07 -7.79977e-08 0)
(6.18235e-07 -7.95947e-08 0)
(6.42231e-07 -8.11133e-08 0)
(6.66297e-07 -8.25286e-08 0)
(6.90421e-07 -8.38232e-08 0)
(7.14564e-07 -8.49893e-08 0)
(7.38742e-07 -8.60358e-08 0)
(7.63029e-07 -8.697e-08 0)
(7.87366e-07 -8.77825e-08 0)
(8.1182e-07 -8.84856e-08 0)
(8.36445e-07 -8.9098e-08 0)
(8.6109e-07 -8.96244e-08 0)
(8.85889e-07 -9.00843e-08 0)
(9.10711e-07 -9.05305e-08 0)
(4.25519e-07 -8.034e-08 0)
(4.52123e-07 -8.06221e-08 0)
(4.78877e-07 -8.14369e-08 0)
(5.05027e-07 -8.2707e-08 0)
(5.30858e-07 -8.41606e-08 0)
(5.56421e-07 -8.56979e-08 0)
(5.81777e-07 -8.72659e-08 0)
(6.0699e-07 -8.8823e-08 0)
(6.32131e-07 -9.03286e-08 0)
(6.57248e-07 -9.17532e-08 0)
(6.82342e-07 -9.30788e-08 0)
(7.07383e-07 -9.42963e-08 0)
(7.32423e-07 -9.54118e-08 0)
(7.57538e-07 -9.64241e-08 0)
(7.82667e-07 -9.73172e-08 0)
(8.07924e-07 -9.8101e-08 0)
(8.33306e-07 -9.87785e-08 0)
(8.58737e-07 -9.93402e-08 0)
(8.84319e-07 -9.98021e-08 0)
(9.09996e-07 -1.00217e-07 0)
(3.99315e-07 -9.63384e-08 0)
(4.32021e-07 -9.35571e-08 0)
(4.62274e-07 -9.31074e-08 0)
(4.90983e-07 -9.35322e-08 0)
(5.18668e-07 -9.44198e-08 0)
(5.45697e-07 -9.55737e-08 0)
(5.72261e-07 -9.68741e-08 0)
(5.98507e-07 -9.82347e-08 0)
(6.24554e-07 -9.9594e-08 0)
(6.50484e-07 -1.00913e-07 0)
(6.76307e-07 -1.02169e-07 0)
(7.02007e-07 -1.03347e-07 0)
(7.27678e-07 -1.04446e-07 0)
(7.53383e-07 -1.05457e-07 0)
(7.79048e-07 -1.06358e-07 0)
(8.04837e-07 -1.07155e-07 0)
(8.30678e-07 -1.07838e-07 0)
(8.56585e-07 -1.084e-07 0)
(8.8261e-07 -1.08855e-07 0)
(9.08764e-07 -1.09216e-07 0)
(3.87185e-07 -1.11408e-07 0)
(4.20038e-07 -1.0796e-07 0)
(4.51021e-07 -1.06349e-07 0)
(4.80804e-07 -1.05814e-07 0)
(5.09556e-07 -1.05978e-07 0)
(5.37565e-07 -1.06592e-07 0)
(5.65011e-07 -1.07471e-07 0)
(5.92047e-07 -1.08495e-07 0)
(6.18798e-07 -1.09585e-07 0)
(6.45354e-07 -1.10692e-07 0)
(6.71729e-07 -1.11777e-07 0)
(6.97929e-07 -1.12818e-07 0)
(7.2407e-07 -1.13805e-07 0)
(7.50194e-07 -1.14721e-07 0)
(7.7622e-07 -1.15541e-07 0)
(8.02342e-07 -1.16269e-07 0)
(8.28443e-07 -1.16891e-07 0)
(8.54602e-07 -1.17407e-07 0)
(8.80817e-07 -1.17819e-07 0)
(9.0712e-07 -1.18061e-07 0)
(3.79655e-07 -1.2439e-07 0)
(4.11729e-07 -1.2133e-07 0)
(4.4267e-07 -1.19395e-07 0)
(4.72758e-07 -1.18337e-07 0)
(5.02038e-07 -1.17974e-07 0)
(5.30638e-07 -1.18113e-07 0)
(5.587e-07 -1.18582e-07 0)
(5.86331e-07 -1.19259e-07 0)
(6.13632e-07 -1.20061e-07 0)
(6.40691e-07 -1.20928e-07 0)
(6.67517e-07 -1.21812e-07 0)
(6.94125e-07 -1.22679e-07 0)
(7.20652e-07 -1.23517e-07 0)
(7.47114e-07 -1.24302e-07 0)
(7.73435e-07 -1.25011e-07 0)
(7.99816e-07 -1.25646e-07 0)
(8.2612e-07 -1.26195e-07 0)
(8.52467e-07 -1.26655e-07 0)
(8.78807e-07 -1.26994e-07 0)
(9.05198e-07 -1.2708e-07 0)
(3.74093e-07 -1.36484e-07 0)
(4.05446e-07 -1.33836e-07 0)
(4.3609e-07 -1.31903e-07 0)
(4.66162e-07 -1.30619e-07 0)
(4.95639e-07 -1.29928e-07 0)
(5.24569e-07 -1.29711e-07 0)
(5.53034e-07 -1.29842e-07 0)
(5.81082e-07 -1.30214e-07 0)
(6.08792e-07 -1.30745e-07 0)
(6.36246e-07 -1.31377e-07 0)
(6.63439e-07 -1.32052e-07 0)
(6.90389e-07 -1.32735e-07 0)
(7.17244e-07 -1.33415e-07 0)
(7.43994e-07 -1.34063e-07 0)
(7.70578e-07 -1.34656e-07 0)
(7.97189e-07 -1.35195e-07 0)
(8.23676e-07 -1.35666e-07 0)
(8.5018e-07 -1.36055e-07 0)
(8.76625e-07 -1.3628e-07 0)
(9.03101e-07 -1.36228e-07 0)
(3.69706e-07 -1.4799e-07 0)
(4.00504e-07 -1.45723e-07 0)
(4.30794e-07 -1.43941e-07 0)
(4.60734e-07 -1.42602e-07 0)
(4.90224e-07 -1.41725e-07 0)
(5.19308e-07 -1.41263e-07 0)
(5.48005e-07 -1.41134e-07 0)
(5.76314e-07 -1.41251e-07 0)
(6.04304e-07 -1.41541e-07 0)
(6.32053e-07 -1.41951e-07 0)
(6.59538e-07 -1.42425e-07 0)
(6.86769e-07 -1.42929e-07 0)
(7.13903e-07 -1.43456e-07 0)
(7.409e-07 -1.43976e-07 0)
(7.67715e-07 -1.4446e-07 0)
(7.94526e-07 -1.44906e-07 0)
(8.21178e-07 -1.45292e-07 0)
(8.47816e-07 -1.45581e-07 0)
(8.74357e-07 -1.45675e-07 0)
(9.00922e-07 -1.4556e-07 0)
(3.6605e-07 -1.59127e-07 0)
(3.96416e-07 -1.57192e-07 0)
(4.26416e-07 -1.55583e-07 0)
(4.56172e-07 -1.54274e-07 0)
(4.85594e-07 -1.53312e-07 0)
(5.14729e-07 -1.52697e-07 0)
(5.43542e-07 -1.52384e-07 0)
(5.72002e-07 -1.52301e-07 0)
(6.00176e-07 -1.5239e-07 0)
(6.28139e-07 -1.52608e-07 0)
(6.55849e-07 -1.52904e-07 0)
(6.8331e-07 -1.53248e-07 0)
(7.10679e-07 -1.53641e-07 0)
(7.37886e-07 -1.54046e-07 0)
(7.64909e-07 -1.5443e-07 0)
(7.91884e-07 -1.54782e-07 0)
(8.18677e-07 -1.55066e-07 0)
(8.45429e-07 -1.5524e-07 0)
(8.72066e-07 -1.55237e-07 0)
(8.98711e-07 -1.55123e-07 0)
(3.62923e-07 -1.70025e-07 0)
(3.92946e-07 -1.68355e-07 0)
(4.22729e-07 -1.66907e-07 0)
(4.52287e-07 -1.65674e-07 0)
(4.81614e-07 -1.64701e-07 0)
(5.1074e-07 -1.6401e-07 0)
(5.39595e-07 -1.63577e-07 0)
(5.68133e-07 -1.63348e-07 0)
(5.96423e-07 -1.63276e-07 0)
(6.24537e-07 -1.63337e-07 0)
(6.52415e-07 -1.63485e-07 0)
(6.80059e-07 -1.63694e-07 0)
(7.07618e-07 -1.63967e-07 0)
(7.3499e-07 -1.64264e-07 0)
(7.62187e-07 -1.64547e-07 0)
(7.89296e-07 -1.64793e-07 0)
(8.16206e-07 -1.64967e-07 0)
(8.43059e-07 -1.65037e-07 0)
(8.69788e-07 -1.64997e-07 0)
(8.96496e-07 -1.64862e-07 0)
(3.60241e-07 -1.80742e-07 0)
(3.90011e-07 -1.79278e-07 0)
(4.19604e-07 -1.77989e-07 0)
(4.48986e-07 -1.76859e-07 0)
(4.78208e-07 -1.75926e-07 0)
(5.07281e-07 -1.75208e-07 0)
(5.36129e-07 -1.74699e-07 0)
(5.64697e-07 -1.74363e-07 0)
(5.93053e-07 -1.74163e-07 0)
(6.21265e-07 -1.74097e-07 0)
(6.4926e-07 -1.74122e-07 0)
(6.7704e-07 -1.74218e-07 0)
(7.04745e-07 -1.74383e-07 0)
(7.3224e-07 -1.7457e-07 0)
(7.59566e-07 -1.74744e-07 0)
(7.86781e-07 -1.7488e-07 0)
(8.13789e-07 -1.74952e-07 0)
(8.40737e-07 -1.74957e-07 0)
(8.67542e-07 -1.74907e-07 0)
(8.94299e-07 -1.74686e-07 0)
(3.57921e-07 -1.91319e-07 0)
(3.87513e-07 -1.90028e-07 0)
(4.1694e-07 -1.88892e-07 0)
(4.46182e-07 -1.87871e-07 0)
(4.7529e-07 -1.86993e-07 0)
(5.04288e-07 -1.86269e-07 0)
(5.33102e-07 -1.85707e-07 0)
(5.6167e-07 -1.85289e-07 0)
(5.90059e-07 -1.84987e-07 0)
(6.18333e-07 -1.84821e-07 0)
(6.46403e-07 -1.8475e-07 0)
(6.74274e-07 -1.84757e-07 0)
(7.02073e-07 -1.84828e-07 0)
(7.29653e-07 -1.84911e-07 0)
(7.57067e-07 -1.84979e-07 0)
(7.84365e-07 -1.85019e-07 0)
(8.11458e-07 -1.85024e-07 0)
(8.38487e-07 -1.84998e-07 0)
(8.65347e-07 -1.84897e-07 0)
(8.92148e-07 -1.84604e-07 0)
(3.55901e-07 -2.01805e-07 0)
(3.85355e-07 -2.00676e-07 0)
(4.14654e-07 -1.99667e-07 0)
(4.43776e-07 -1.98735e-07 0)
(4.72776e-07 -1.97901e-07 0)
(5.01697e-07 -1.97174e-07 0)
(5.30469e-07 -1.96575e-07 0)
(5.59023e-07 -1.96104e-07 0)
(5.87426e-07 -1.95734e-07 0)
(6.15734e-07 -1.95501e-07 0)
(6.43844e-07 -1.9536e-07 0)
(6.71768e-07 -1.95297e-07 0)
(6.99616e-07 -1.95288e-07 0)
(7.27243e-07 -1.9528e-07 0)
(7.54716e-07 -1.9526e-07 0)
(7.82079e-07 -1.95231e-07 0)
(8.09243e-07 -1.95194e-07 0)
(8.3633e-07 -1.95129e-07 0)
(8.63233e-07 -1.94932e-07 0)
(8.9007e-07 -1.94653e-07 0)
(3.5415e-07 -2.12251e-07 0)
(3.83486e-07 -2.11263e-07 0)
(4.12679e-07 -2.10345e-07 0)
(4.41693e-07 -2.09474e-07 0)
(4.70599e-07 -2.08676e-07 0)
(4.99454e-07 -2.07956e-07 0)
(5.28187e-07 -2.07344e-07 0)
(5.56723e-07 -2.0685e-07 0)
(5.85128e-07 -2.06446e-07 0)
(6.13448e-07 -2.06164e-07 0)
(6.4157e-07 -2.05965e-07 0)
(6.69512e-07 -2.05833e-07 0)
(6.97375e-07 -2.05744e-07 0)
(7.25025e-07 -2.05655e-07 0)
(7.52536e-07 -2.05565e-07 0)
(7.79951e-07 -2.05488e-07 0)
(8.07165e-07 -2.05406e-07 0)
(8.34287e-07 -2.05267e-07 0)
(8.61229e-07 -2.05011e-07 0)
(8.88096e-07 -2.04759e-07 0)
(3.52638e-07 -2.22682e-07 0)
(3.81867e-07 -2.2179e-07 0)
(4.10958e-07 -2.20943e-07 0)
(4.3988e-07 -2.20125e-07 0)
(4.68715e-07 -2.19366e-07 0)
(4.97518e-07 -2.18666e-07 0)
(5.26218e-07 -2.18054e-07 0)
(5.54734e-07 -2.17541e-07 0)
(5.8313e-07 -2.17118e-07 0)
(6.11445e-07 -2.16786e-07 0)
(6.39556e-07 -2.16522e-07 0)
(6.67493e-07 -2.16316e-07 0)
(6.95355e-07 -2.16152e-07 0)
(7.23018e-07 -2.16001e-07 0)
(7.50557e-07 -2.15868e-07 0)
(7.78004e-07 -2.15754e-07 0)
(8.05242e-07 -2.15614e-07 0)
(8.32387e-07 -2.15401e-07 0)
(8.59355e-07 -2.15177e-07 0)
(8.8625e-07 -2.14896e-07 0)
(3.51334e-07 -2.33082e-07 0)
(3.80462e-07 -2.32251e-07 0)
(4.09464e-07 -2.31479e-07 0)
(4.38317e-07 -2.30715e-07 0)
(4.67096e-07 -2.29994e-07 0)
(4.95857e-07 -2.29311e-07 0)
(5.24528e-07 -2.28698e-07 0)
(5.53025e-07 -2.28156e-07 0)
(5.81404e-07 -2.27717e-07 0)
(6.09699e-07 -2.27346e-07 0)
(6.37788e-07 -2.2703e-07 0)
(6.6571e-07 -2.26769e-07 0)
(6.9357e-07 -2.26549e-07 0)
(7.21242e-07 -2.26355e-07 0)
(7.48796e-07 -2.26186e-07 0)
(7.76252e-07 -2.26023e-07 0)
(8.03491e-07 -2.25819e-07 0)
(8.30653e-07 -2.25587e-07 0)
(8.57638e-07 -2.254e-07 0)
(8.84555e-07 -2.25111e-07 0)
(3.50216e-07 -2.43444e-07 0)
(3.79261e-07 -2.42691e-07 0)
(4.08197e-07 -2.41988e-07 0)
(4.36991e-07 -2.41267e-07 0)
(4.65722e-07 -2.40567e-07 0)
(4.94449e-07 -2.39897e-07 0)
(5.23096e-07 -2.39298e-07 0)
(5.51572e-07 -2.38743e-07 0)
(5.79926e-07 -2.38287e-07 0)
(6.08188e-07 -2.37883e-07 0)
(6.3625e-07 -2.37515e-07 0)
(6.64164e-07 -2.37196e-07 0)
(6.92028e-07 -2.36925e-07 0)
(7.19706e-07 -2.36686e-07 0)
(7.47256e-07 -2.36467e-07 0)
(7.74696e-07 -2.36243e-07 0)
(8.01933e-07 -2.36002e-07 0)
(8.29113e-07 -2.3581e-07 0)
(8.56122e-07 -2.35583e-07 0)
(8.8305e-07 -2.35333e-07 0)
(3.49287e-07 -2.53822e-07 0)
(3.78267e-07 -2.53154e-07 0)
(4.07148e-07 -2.52486e-07 0)
(4.35893e-07 -2.51788e-07 0)
(4.64585e-07 -2.51108e-07 0)
(4.93287e-07 -2.50467e-07 0)
(5.21904e-07 -2.49881e-07 0)
(5.50347e-07 -2.49314e-07 0)
(5.78669e-07 -2.48802e-07 0)
(6.06902e-07 -2.48345e-07 0)
(6.34952e-07 -2.4794e-07 0)
(6.6287e-07 -2.47589e-07 0)
(6.90737e-07 -2.47284e-07 0)
(7.18399e-07 -2.47004e-07 0)
(7.45919e-07 -2.46732e-07 0)
(7.73347e-07 -2.46466e-07 0)
(8.00604e-07 -2.46234e-07 0)
(8.27803e-07 -2.46062e-07 0)
(8.54817e-07 -2.45806e-07 0)
(8.81731e-07 -2.45565e-07 0)
(3.48549e-07 -2.64263e-07 0)
(3.77471e-07 -2.63608e-07 0)
(4.06309e-07 -2.62957e-07 0)
(4.35019e-07 -2.62295e-07 0)
(4.63687e-07 -2.6164e-07 0)
(4.92362e-07 -2.61017e-07 0)
(5.20942e-07 -2.60415e-07 0)
(5.49334e-07 -2.59844e-07 0)
(5.77618e-07 -2.59295e-07 0)
(6.05845e-07 -2.58789e-07 0)
(6.33907e-07 -2.58338e-07 0)
(6.61828e-07 -2.57943e-07 0)
(6.89672e-07 -2.57589e-07 0)
(7.17296e-07 -2.57254e-07 0)
(7.44799e-07 -2.56938e-07 0)
(7.72249e-07 -2.56669e-07 0)
(7.99533e-07 -2.56464e-07 0)
(8.2672e-07 -2.56226e-07 0)
(8.53698e-07 -2.55999e-07 0)
(8.80579e-07 -2.55782e-07 0)
(3.47996e-07 -2.74669e-07 0)
(3.76872e-07 -2.74049e-07 0)
(4.05681e-07 -2.73433e-07 0)
(4.3437e-07 -2.72808e-07 0)
(4.63017e-07 -2.72161e-07 0)
(4.91649e-07 -2.7152e-07 0)
(5.20174e-07 -2.70901e-07 0)
(5.48526e-07 -2.70305e-07 0)
(5.768e-07 -2.69732e-07 0)
(6.05041e-07 -2.69199e-07 0)
(6.33106e-07 -2.68713e-07 0)
(6.60996e-07 -2.68266e-07 0)
(6.88794e-07 -2.67853e-07 0)
(7.16407e-07 -2.67475e-07 0)
(7.43949e-07 -2.67149e-07 0)
(7.71439e-07 -2.66886e-07 0)
(7.9868e-07 -2.66649e-07 0)
(8.25765e-07 -2.66362e-07 0)
(8.52732e-07 -2.66162e-07 0)
(8.79775e-07 -2.65974e-07 0)
(3.47638e-07 -2.85058e-07 0)
(3.76479e-07 -2.84507e-07 0)
(4.05266e-07 -2.83906e-07 0)
(4.33931e-07 -2.83283e-07 0)
(4.62532e-07 -2.82668e-07 0)
(4.91106e-07 -2.82014e-07 0)
(5.19589e-07 -2.81363e-07 0)
(5.4794e-07 -2.80734e-07 0)
(5.76239e-07 -2.80135e-07 0)
(6.04477e-07 -2.79568e-07 0)
(6.32483e-07 -2.79032e-07 0)
(6.60313e-07 -2.78538e-07 0)
(6.88137e-07 -2.78095e-07 0)
(7.15845e-07 -2.77692e-07 0)
(7.43391e-07 -2.77345e-07 0)
(7.70727e-07 -2.77058e-07 0)
(7.97911e-07 -2.76757e-07 0)
(8.25145e-07 -2.76518e-07 0)
(8.52094e-07 -2.76311e-07 0)
(8.78905e-07 -2.76143e-07 0)
(3.47444e-07 -2.95528e-07 0)
(3.76261e-07 -2.9498e-07 0)
(4.05019e-07 -2.9437e-07 0)
(4.3364e-07 -2.93752e-07 0)
(4.62172e-07 -2.93108e-07 0)
(4.90711e-07 -2.92458e-07 0)
(5.1923e-07 -2.918e-07 0)
(5.47625e-07 -2.91139e-07 0)
(5.75879e-07 -2.90492e-07 0)
(6.04008e-07 -2.8988e-07 0)
(6.32001e-07 -2.89311e-07 0)
(6.59959e-07 -2.88784e-07 0)
(6.8783e-07 -2.883e-07 0)
(7.1539e-07 -2.8787e-07 0)
(7.42878e-07 -2.87495e-07 0)
(7.70346e-07 -2.87164e-07 0)
(7.97538e-07 -2.86839e-07 0)
(8.24676e-07 -2.86596e-07 0)
(8.51652e-07 -2.86371e-07 0)
(8.78444e-07 -2.86234e-07 0)
(3.47392e-07 -3.05981e-07 0)
(3.76185e-07 -3.0547e-07 0)
(4.04879e-07 -3.04865e-07 0)
(4.33417e-07 -3.04212e-07 0)
(4.61972e-07 -3.03553e-07 0)
(4.90597e-07 -3.02888e-07 0)
(5.19109e-07 -3.02199e-07 0)
(5.47375e-07 -3.01503e-07 0)
(5.75578e-07 -3.0083e-07 0)
(6.03829e-07 -3.0019e-07 0)
(6.31885e-07 -2.99589e-07 0)
(6.59722e-07 -2.99028e-07 0)
(6.87559e-07 -2.98503e-07 0)
(7.15221e-07 -2.9804e-07 0)
(7.42687e-07 -2.97633e-07 0)
(7.70131e-07 -2.97249e-07 0)
(7.97383e-07 -2.96963e-07 0)
(8.2451e-07 -2.96636e-07 0)
(8.51526e-07 -2.96389e-07 0)
(8.78158e-07 -2.96198e-07 0)
(1.95299e-08 -1.51399e-07 0)
(5.85681e-08 -1.50123e-07 0)
(9.74818e-08 -1.47254e-07 0)
(1.36148e-07 -1.43367e-07 0)
(1.74471e-07 -1.38312e-07 0)
(2.12398e-07 -1.32471e-07 0)
(2.49852e-07 -1.26011e-07 0)
(2.86788e-07 -1.19039e-07 0)
(3.23483e-07 -1.11654e-07 0)
(3.59468e-07 -1.03794e-07 0)
(1.95781e-08 -1.5795e-07 0)
(5.86832e-08 -1.56871e-07 0)
(9.75978e-08 -1.54307e-07 0)
(1.36159e-07 -1.50895e-07 0)
(1.7422e-07 -1.46437e-07 0)
(2.1169e-07 -1.41245e-07 0)
(2.48424e-07 -1.35505e-07 0)
(2.84295e-07 -1.29304e-07 0)
(3.19269e-07 -1.22831e-07 0)
(3.52743e-07 -1.16558e-07 0)
(1.9519e-08 -1.6495e-07 0)
(5.84773e-08 -1.64053e-07 0)
(9.71648e-08 -1.61769e-07 0)
(1.35424e-07 -1.5878e-07 0)
(1.73084e-07 -1.54864e-07 0)
(2.10009e-07 -1.50248e-07 0)
(2.46029e-07 -1.45136e-07 0)
(2.8104e-07 -1.39607e-07 0)
(3.14926e-07 -1.33884e-07 0)
(3.47322e-07 -1.28534e-07 0)
(1.93945e-08 -1.72265e-07 0)
(5.81224e-08 -1.71506e-07 0)
(9.6528e-08 -1.6944e-07 0)
(1.3446e-07 -1.66764e-07 0)
(1.71755e-07 -1.63264e-07 0)
(2.08221e-07 -1.59087e-07 0)
(2.43724e-07 -1.54479e-07 0)
(2.78131e-07 -1.49531e-07 0)
(3.11292e-07 -1.44483e-07 0)
(3.42966e-07 -1.39873e-07 0)
(1.92541e-08 -1.7983e-07 0)
(5.76628e-08 -1.79183e-07 0)
(9.57612e-08 -1.77307e-07 0)
(1.33354e-07 -1.74874e-07 0)
(1.70292e-07 -1.71728e-07 0)
(2.0637e-07 -1.67938e-07 0)
(2.41443e-07 -1.63779e-07 0)
(2.75421e-07 -1.59362e-07 0)
(3.08091e-07 -1.54893e-07 0)
(3.39275e-07 -1.50868e-07 0)
(1.91148e-08 -1.87607e-07 0)
(5.71708e-08 -1.87032e-07 0)
(9.49405e-08 -1.85348e-07 0)
(1.32186e-07 -1.83111e-07 0)
(1.6877e-07 -1.80271e-07 0)
(2.0453e-07 -1.76837e-07 0)
(2.39261e-07 -1.73079e-07 0)
(2.72902e-07 -1.69137e-07 0)
(3.0522e-07 -1.65169e-07 0)
(3.36054e-07 -1.61631e-07 0)
(1.89376e-08 -1.95563e-07 0)
(5.66604e-08 -1.95031e-07 0)
(9.40883e-08 -1.93547e-07 0)
(1.30987e-07 -1.91469e-07 0)
(1.67245e-07 -1.88892e-07 0)
(2.02709e-07 -1.85792e-07 0)
(2.37169e-07 -1.82406e-07 0)
(2.70544e-07 -1.78888e-07 0)
(3.02609e-07 -1.75353e-07 0)
(3.33215e-07 -1.72209e-07 0)
(1.87499e-08 -2.0368e-07 0)
(5.61483e-08 -2.0317e-07 0)
(9.32219e-08 -2.01873e-07 0)
(1.2978e-07 -1.99941e-07 0)
(1.65749e-07 -1.97601e-07 0)
(2.00945e-07 -1.94821e-07 0)
(2.35168e-07 -1.9178e-07 0)
(2.68333e-07 -1.88617e-07 0)
(3.0023e-07 -1.85452e-07 0)
(3.30717e-07 -1.82638e-07 0)
(1.86005e-08 -2.11949e-07 0)
(5.5654e-08 -2.11441e-07 0)
(9.23694e-08 -2.10308e-07 0)
(1.28611e-07 -2.08529e-07 0)
(1.64294e-07 -2.06413e-07 0)
(1.99262e-07 -2.03924e-07 0)
(2.33291e-07 -2.01193e-07 0)
(2.66292e-07 -1.98329e-07 0)
(2.98079e-07 -1.95498e-07 0)
(3.28522e-07 -1.92984e-07 0)
(1.84639e-08 -2.20361e-07 0)
(5.51579e-08 -2.1983e-07 0)
(9.15346e-08 -2.18839e-07 0)
(1.275e-07 -2.17228e-07 0)
(1.62911e-07 -2.15323e-07 0)
(1.97676e-07 -2.13091e-07 0)
(2.31554e-07 -2.10642e-07 0)
(2.64433e-07 -2.08063e-07 0)
(2.96146e-07 -2.05545e-07 0)
(3.26587e-07 -2.03306e-07 0)
(1.83001e-08 -2.2888e-07 0)
(5.46632e-08 -2.28318e-07 0)
(9.07434e-08 -2.27454e-07 0)
(1.26455e-07 -2.26023e-07 0)
(1.61621e-07 -2.24326e-07 0)
(1.96195e-07 -2.22322e-07 0)
(2.29947e-07 -2.20138e-07 0)
(2.62734e-07 -2.17854e-07 0)
(2.94402e-07 -2.15619e-07 0)
(3.24874e-07 -2.13612e-07 0)
(1.81252e-08 -2.37467e-07 0)
(5.42116e-08 -2.36901e-07 0)
(9.00335e-08 -2.36157e-07 0)
(1.25488e-07 -2.34904e-07 0)
(1.60431e-07 -2.33408e-07 0)
(1.94822e-07 -2.31621e-07 0)
(2.28459e-07 -2.29689e-07 0)
(2.61174e-07 -2.27689e-07 0)
(2.92821e-07 -2.25688e-07 0)
(3.23363e-07 -2.23881e-07 0)
(1.79796e-08 -2.46119e-07 0)
(5.38294e-08 -2.45584e-07 0)
(8.94099e-08 -2.44951e-07 0)
(1.24604e-07 -2.43863e-07 0)
(1.59342e-07 -2.42548e-07 0)
(1.93564e-07 -2.40975e-07 0)
(2.27092e-07 -2.39292e-07 0)
(2.59743e-07 -2.37532e-07 0)
(2.91397e-07 -2.3574e-07 0)
(3.2204e-07 -2.34138e-07 0)
(1.78715e-08 -2.54852e-07 0)
(5.34964e-08 -2.54369e-07 0)
(8.88429e-08 -2.53823e-07 0)
(1.23798e-07 -2.52888e-07 0)
(1.5835e-07 -2.51745e-07 0)
(1.92421e-07 -2.50387e-07 0)
(2.25841e-07 -2.48938e-07 0)
(2.58439e-07 -2.47387e-07 0)
(2.90122e-07 -2.45828e-07 0)
(3.20882e-07 -2.44429e-07 0)
(1.77757e-08 -2.63675e-07 0)
(5.31738e-08 -2.6325e-07 0)
(8.83033e-08 -2.62771e-07 0)
(1.23058e-07 -2.61987e-07 0)
(1.57442e-07 -2.61018e-07 0)
(1.91372e-07 -2.59873e-07 0)
(2.2469e-07 -2.58612e-07 0)
(2.57259e-07 -2.57254e-07 0)
(2.88993e-07 -2.55947e-07 0)
(3.19886e-07 -2.54718e-07 0)
(1.76716e-08 -2.72582e-07 0)
(5.28501e-08 -2.72234e-07 0)
(8.77879e-08 -2.71819e-07 0)
(1.22373e-07 -2.71175e-07 0)
(1.56604e-07 -2.70345e-07 0)
(1.90406e-07 -2.69374e-07 0)
(2.23651e-07 -2.68288e-07 0)
(2.56223e-07 -2.67164e-07 0)
(2.88029e-07 -2.66085e-07 0)
(3.19077e-07 -2.65042e-07 0)
(1.75626e-08 -2.81579e-07 0)
(5.25415e-08 -2.81329e-07 0)
(8.73093e-08 -2.80957e-07 0)
(1.21749e-07 -2.80418e-07 0)
(1.55846e-07 -2.79737e-07 0)
(1.89547e-07 -2.78932e-07 0)
(2.22751e-07 -2.78034e-07 0)
(2.55347e-07 -2.77153e-07 0)
(2.8724e-07 -2.76227e-07 0)
(3.1845e-07 -2.75377e-07 0)
(1.74635e-08 -2.90677e-07 0)
(5.2269e-08 -2.90509e-07 0)
(8.68833e-08 -2.90179e-07 0)
(1.21195e-07 -2.89736e-07 0)
(1.55186e-07 -2.89165e-07 0)
(1.8882e-07 -2.88505e-07 0)
(2.22009e-07 -2.87807e-07 0)
(2.54638e-07 -2.87127e-07 0)
(2.86625e-07 -2.86394e-07 0)
(3.1801e-07 -2.85698e-07 0)
(1.73863e-08 -2.99863e-07 0)
(5.20468e-08 -2.99761e-07 0)
(8.65231e-08 -2.99488e-07 0)
(1.20725e-07 -2.99118e-07 0)
(1.54635e-07 -2.98657e-07 0)
(1.88235e-07 -2.98151e-07 0)
(2.21427e-07 -2.97654e-07 0)
(2.54094e-07 -2.97124e-07 0)
(2.86161e-07 -2.96612e-07 0)
(3.17731e-07 -2.9607e-07 0)
(1.73322e-08 -3.09159e-07 0)
(5.18783e-08 -3.09068e-07 0)
(8.62279e-08 -3.08852e-07 0)
(1.2035e-07 -3.08549e-07 0)
(1.54233e-07 -3.0819e-07 0)
(1.8783e-07 -3.0783e-07 0)
(2.21014e-07 -3.07492e-07 0)
(2.53691e-07 -3.07129e-07 0)
(2.85849e-07 -3.06819e-07 0)
(3.17639e-07 -3.06433e-07 0)
)


// ************************************************************************* //
