/*--------------------------------*- C++ -*----------------------------------*\
| =========                 |                                                 |
| \\      /  F ield         | foam-extend: Open Source CFD                    |
|  \\    /   O peration     | Version:     4.1                                |
|   \\  /    A nd           | Web:         http://www.foam-extend.org         |
|    \\/     M anipulation  |                                                 |
\*---------------------------------------------------------------------------*/
FoamFile
{
    version     2.0;
    format      ascii;
    class       vectorField;
    location    "1";
    object      solidsCellD_iteration2;
}
// * * * * * * * * * * * * * * * * * * * * * * * * * * * * * * * * * * * * * //


1000
(
(2.97227e-07 -3.15285e-08 0)
(2.93335e-07 -3.39545e-08 0)
(2.92885e-07 -3.72958e-08 0)
(2.95007e-07 -4.11847e-08 0)
(2.99014e-07 -4.55367e-08 0)
(3.04486e-07 -5.02393e-08 0)
(3.11049e-07 -5.52332e-08 0)
(3.18345e-07 -6.0633e-08 0)
(3.26029e-07 -6.64094e-08 0)
(3.32341e-07 -7.31738e-08 0)
(2.70683e-07 -3.46952e-08 0)
(2.66314e-07 -3.81923e-08 0)
(2.65272e-07 -4.24267e-08 0)
(2.66785e-07 -4.69949e-08 0)
(2.70087e-07 -5.18566e-08 0)
(2.74619e-07 -5.70258e-08 0)
(2.80031e-07 -6.24058e-08 0)
(2.85958e-07 -6.8072e-08 0)
(2.92126e-07 -7.39056e-08 0)
(2.97522e-07 -8.03559e-08 0)
(2.42412e-07 -3.76503e-08 0)
(2.37785e-07 -4.23634e-08 0)
(2.36381e-07 -4.74102e-08 0)
(2.37326e-07 -5.26192e-08 0)
(2.39943e-07 -5.79109e-08 0)
(2.43673e-07 -6.33456e-08 0)
(2.48166e-07 -6.88912e-08 0)
(2.53165e-07 -7.45278e-08 0)
(2.58445e-07 -8.01206e-08 0)
(2.63372e-07 -8.60639e-08 0)
(2.12769e-07 -4.03581e-08 0)
(2.08124e-07 -4.62971e-08 0)
(2.06513e-07 -5.21152e-08 0)
(2.07019e-07 -5.78361e-08 0)
(2.09011e-07 -6.35046e-08 0)
(2.12065e-07 -6.91354e-08 0)
(2.15822e-07 -7.4722e-08 0)
(2.20098e-07 -8.02683e-08 0)
(2.24706e-07 -8.56951e-08 0)
(2.29218e-07 -9.12728e-08 0)
(1.81983e-07 -4.27563e-08 0)
(1.77558e-07 -4.9847e-08 0)
(1.75831e-07 -5.64231e-08 0)
(1.76023e-07 -6.2632e-08 0)
(1.77561e-07 -6.85621e-08 0)
(1.80037e-07 -7.43216e-08 0)
(1.83158e-07 -7.99539e-08 0)
(1.86755e-07 -8.5423e-08 0)
(1.90739e-07 -9.07064e-08 0)
(1.94759e-07 -9.60143e-08 0)
(1.50229e-07 -4.47991e-08 0)
(1.46203e-07 -5.29501e-08 0)
(1.44539e-07 -6.0154e-08 0)
(1.44543e-07 -6.67972e-08 0)
(1.45717e-07 -7.30132e-08 0)
(1.47651e-07 -7.8913e-08 0)
(1.50184e-07 -8.45538e-08 0)
(1.53162e-07 -8.99558e-08 0)
(1.56508e-07 -9.51419e-08 0)
(1.59947e-07 -1.00263e-07 0)
(1.17678e-07 -4.64163e-08 0)
(1.14295e-07 -5.54885e-08 0)
(1.12841e-07 -6.32603e-08 0)
(1.12734e-07 -7.02737e-08 0)
(1.13571e-07 -7.67153e-08 0)
(1.15036e-07 -8.27505e-08 0)
(1.17009e-07 -8.84133e-08 0)
(1.19364e-07 -9.37926e-08 0)
(1.22029e-07 -9.89307e-08 0)
(1.24799e-07 -1.03928e-07 0)
(8.44991e-08 -4.76154e-08 0)
(8.19476e-08 -5.74403e-08 0)
(8.0825e-08 -6.56757e-08 0)
(8.07141e-08 -7.29516e-08 0)
(8.12609e-08 -7.95745e-08 0)
(8.22815e-08 -8.5702e-08 0)
(8.36921e-08 -9.14087e-08 0)
(8.54006e-08 -9.67822e-08 0)
(8.73403e-08 -1.01873e-07 0)
(8.93619e-08 -1.06753e-07 0)
(5.0889e-08 -4.84074e-08 0)
(4.93179e-08 -5.87402e-08 0)
(4.86099e-08 -6.732e-08 0)
(4.84956e-08 -7.48225e-08 0)
(4.87896e-08 -8.15707e-08 0)
(4.94122e-08 -8.77405e-08 0)
(5.02853e-08 -9.34784e-08 0)
(5.13166e-08 -9.8879e-08 0)
(5.24723e-08 -1.03985e-07 0)
(5.36942e-08 -1.08836e-07 0)
(1.70125e-08 -4.87989e-08 0)
(1.64538e-08 -5.93652e-08 0)
(1.62047e-08 -6.81299e-08 0)
(1.61817e-08 -7.57457e-08 0)
(1.62913e-08 -8.25439e-08 0)
(1.64862e-08 -8.87392e-08 0)
(1.67666e-08 -9.44717e-08 0)
(1.7116e-08 -9.98402e-08 0)
(1.75059e-08 -1.04912e-07 0)
(1.791e-08 -1.09715e-07 0)
(4.39803e-07 -1.35789e-09 0)
(4.42198e-07 -1.16262e-09 0)
(4.46281e-07 -1.12965e-09 0)
(4.51797e-07 -1.20599e-09 0)
(4.58662e-07 -1.34575e-09 0)
(4.66688e-07 -1.54024e-09 0)
(4.75751e-07 -1.7588e-09 0)
(4.85646e-07 -1.99129e-09 0)
(4.96341e-07 -2.24081e-09 0)
(5.07705e-07 -2.49883e-09 0)
(4.37141e-07 -4.09228e-09 0)
(4.39301e-07 -3.53466e-09 0)
(4.43254e-07 -3.44262e-09 0)
(4.48691e-07 -3.69269e-09 0)
(4.55501e-07 -4.1282e-09 0)
(4.63463e-07 -4.68566e-09 0)
(4.72496e-07 -5.33066e-09 0)
(4.82379e-07 -6.04325e-09 0)
(4.93043e-07 -6.78539e-09 0)
(5.04393e-07 -7.54557e-09 0)
(4.31715e-07 -6.84856e-09 0)
(4.33497e-07 -6.01246e-09 0)
(4.37215e-07 -5.90754e-09 0)
(4.42524e-07 -6.32228e-09 0)
(4.49241e-07 -7.05856e-09 0)
(4.57159e-07 -8.01241e-09 0)
(4.66146e-07 -9.09219e-09 0)
(4.75986e-07 -1.02674e-08 0)
(4.86623e-07 -1.14922e-08 0)
(4.97993e-07 -1.27542e-08 0)
(4.23612e-07 -9.6731e-09 0)
(4.24883e-07 -8.6495e-09 0)
(4.28232e-07 -8.60652e-09 0)
(4.33353e-07 -9.23426e-09 0)
(4.39918e-07 -1.02761e-08 0)
(4.47695e-07 -1.16138e-08 0)
(4.56594e-07 -1.31282e-08 0)
(4.6642e-07 -1.47762e-08 0)
(4.7703e-07 -1.65045e-08 0)
(4.88445e-07 -1.82651e-08 0)
(4.12842e-07 -1.25756e-08 0)
(4.13507e-07 -1.14951e-08 0)
(4.16413e-07 -1.15915e-08 0)
(4.21224e-07 -1.24848e-08 0)
(4.27611e-07 -1.3855e-08 0)
(4.35277e-07 -1.55792e-08 0)
(4.44082e-07 -1.75353e-08 0)
(4.5388e-07 -1.96504e-08 0)
(4.64466e-07 -2.18722e-08 0)
(4.75965e-07 -2.4113e-08 0)
(3.99509e-07 -1.55707e-08 0)
(3.99423e-07 -1.45936e-08 0)
(4.01823e-07 -1.49183e-08 0)
(4.06291e-07 -1.61359e-08 0)
(4.12469e-07 -1.78764e-08 0)
(4.2e-07 -2.00033e-08 0)
(4.28706e-07 -2.23874e-08 0)
(4.38458e-07 -2.49382e-08 0)
(4.49053e-07 -2.76298e-08 0)
(4.60743e-07 -3.0333e-08 0)
(3.83661e-07 -1.86544e-08 0)
(3.8277e-07 -1.79743e-08 0)
(3.84638e-07 -1.86372e-08 0)
(3.88729e-07 -2.02501e-08 0)
(3.9464e-07 -2.24021e-08 0)
(4.02005e-07 -2.49366e-08 0)
(4.10604e-07 -2.77338e-08 0)
(4.20299e-07 -3.07045e-08 0)
(4.30938e-07 -3.38593e-08 0)
(4.42943e-07 -3.70102e-08 0)
(3.65384e-07 -2.18034e-08 0)
(3.63665e-07 -2.16471e-08 0)
(3.64961e-07 -2.27837e-08 0)
(3.68635e-07 -2.48531e-08 0)
(3.74216e-07 -2.7466e-08 0)
(3.81374e-07 -3.04311e-08 0)
(3.89848e-07 -3.36371e-08 0)
(3.99509e-07 -3.70057e-08 0)
(4.10237e-07 -4.0597e-08 0)
(4.22663e-07 -4.4168e-08 0)
(3.44794e-07 -2.49983e-08 0)
(3.42252e-07 -2.55789e-08 0)
(3.43e-07 -2.73363e-08 0)
(3.46221e-07 -2.9942e-08 0)
(3.51422e-07 -3.30687e-08 0)
(3.58262e-07 -3.65181e-08 0)
(3.66497e-07 -4.01751e-08 0)
(3.76008e-07 -4.39651e-08 0)
(3.86689e-07 -4.79849e-08 0)
(3.99497e-07 -5.19104e-08 0)
(3.2205e-07 -2.82034e-08 0)
(3.18738e-07 -2.96779e-08 0)
(3.18894e-07 -3.21924e-08 0)
(3.21615e-07 -3.54371e-08 0)
(3.26327e-07 -3.91544e-08 0)
(3.32645e-07 -4.31884e-08 0)
(3.40389e-07 -4.74488e-08 0)
(3.49499e-07 -5.18744e-08 0)
(3.59947e-07 -5.65908e-08 0)
(3.72671e-07 -6.12789e-08 0)
(5.19494e-07 -2.73441e-09 0)
(5.32174e-07 -2.92973e-09 0)
(5.45532e-07 -3.10503e-09 0)
(5.59492e-07 -3.27464e-09 0)
(5.73997e-07 -3.4326e-09 0)
(5.89045e-07 -3.5666e-09 0)
(6.0463e-07 -3.68007e-09 0)
(6.20679e-07 -3.79842e-09 0)
(6.3712e-07 -3.93551e-09 0)
(6.5394e-07 -4.07324e-09 0)
(6.71127e-07 -4.18908e-09 0)
(6.88643e-07 -4.28223e-09 0)
(7.06453e-07 -4.36449e-09 0)
(7.24542e-07 -4.44226e-09 0)
(7.4289e-07 -4.51324e-09 0)
(7.61468e-07 -4.57349e-09 0)
(7.80261e-07 -4.62132e-09 0)
(7.99249e-07 -4.65594e-09 0)
(8.1838e-07 -4.68273e-09 0)
(8.37692e-07 -4.712e-09 0)
(5.16252e-07 -8.25485e-09 0)
(5.29096e-07 -8.85508e-09 0)
(5.42626e-07 -9.38474e-09 0)
(5.56771e-07 -9.87264e-09 0)
(5.71493e-07 -1.03188e-08 0)
(5.86761e-07 -1.07224e-08 0)
(6.02542e-07 -1.10965e-08 0)
(6.18784e-07 -1.14663e-08 0)
(6.35425e-07 -1.18393e-08 0)
(6.52437e-07 -1.21938e-08 0)
(6.69797e-07 -1.25092e-08 0)
(6.87482e-07 -1.27884e-08 0)
(7.05476e-07 -1.30424e-08 0)
(7.23745e-07 -1.32736e-08 0)
(7.42245e-07 -1.34768e-08 0)
(7.60951e-07 -1.36486e-08 0)
(7.79852e-07 -1.37873e-08 0)
(7.98925e-07 -1.38936e-08 0)
(8.18178e-07 -1.39828e-08 0)
(8.37636e-07 -1.40764e-08 0)
(5.10005e-07 -1.39245e-08 0)
(5.23197e-07 -1.48974e-08 0)
(5.37127e-07 -1.57428e-08 0)
(5.51646e-07 -1.65202e-08 0)
(5.66717e-07 -1.72414e-08 0)
(5.82343e-07 -1.79103e-08 0)
(5.9851e-07 -1.85388e-08 0)
(6.15138e-07 -1.91444e-08 0)
(6.32134e-07 -1.97269e-08 0)
(6.4948e-07 -2.02721e-08 0)
(6.6718e-07 -2.07721e-08 0)
(6.85215e-07 -2.12313e-08 0)
(7.03547e-07 -2.16519e-08 0)
(7.22124e-07 -2.20286e-08 0)
(7.40924e-07 -2.23551e-08 0)
(7.59947e-07 -2.26282e-08 0)
(7.79134e-07 -2.28466e-08 0)
(7.98478e-07 -2.30223e-08 0)
(8.17984e-07 -2.31828e-08 0)
(8.37661e-07 -2.33575e-08 0)
(5.00698e-07 -1.98433e-08 0)
(5.14391e-07 -2.11114e-08 0)
(5.28889e-07 -2.22132e-08 0)
(5.43997e-07 -2.32493e-08 0)
(5.59681e-07 -2.42285e-08 0)
(5.75909e-07 -2.51426e-08 0)
(5.92634e-07 -2.59988e-08 0)
(6.09791e-07 -2.68173e-08 0)
(6.27326e-07 -2.7601e-08 0)
(6.45221e-07 -2.83363e-08 0)
(6.63463e-07 -2.90162e-08 0)
(6.82011e-07 -2.96408e-08 0)
(7.00813e-07 -3.02046e-08 0)
(7.19826e-07 -3.07024e-08 0)
(7.39052e-07 -3.11345e-08 0)
(7.58498e-07 -3.14966e-08 0)
(7.78088e-07 -3.17911e-08 0)
(7.97851e-07 -3.20422e-08 0)
(8.17754e-07 -3.22857e-08 0)
(8.37762e-07 -3.25607e-08 0)
(4.88564e-07 -2.60528e-08 0)
(5.02956e-07 -2.75555e-08 0)
(5.18256e-07 -2.88667e-08 0)
(5.34152e-07 -3.01266e-08 0)
(5.50612e-07 -3.13314e-08 0)
(5.67605e-07 -3.24663e-08 0)
(5.85095e-07 -3.35412e-08 0)
(6.02987e-07 -3.45659e-08 0)
(6.21242e-07 -3.55438e-08 0)
(6.39836e-07 -3.64582e-08 0)
(6.58737e-07 -3.72992e-08 0)
(6.77905e-07 -3.80618e-08 0)
(6.97298e-07 -3.8739e-08 0)
(7.16908e-07 -3.93309e-08 0)
(7.36736e-07 -3.9845e-08 0)
(7.56712e-07 -4.02812e-08 0)
(7.76854e-07 -4.06503e-08 0)
(7.97095e-07 -4.09826e-08 0)
(8.17495e-07 -4.13219e-08 0)
(8.37958e-07 -4.1705e-08 0)
(4.73852e-07 -3.25938e-08 0)
(4.89144e-07 -3.42701e-08 0)
(5.05452e-07 -3.57385e-08 0)
(5.22344e-07 -3.71905e-08 0)
(5.39815e-07 -3.86027e-08 0)
(5.57791e-07 -3.99451e-08 0)
(5.76245e-07 -4.12279e-08 0)
(5.95047e-07 -4.24429e-08 0)
(6.14147e-07 -4.35876e-08 0)
(6.33544e-07 -4.46502e-08 0)
(6.53226e-07 -4.56231e-08 0)
(6.73148e-07 -4.64971e-08 0)
(6.9326e-07 -4.72648e-08 0)
(7.13563e-07 -4.79338e-08 0)
(7.3407e-07 -4.85139e-08 0)
(7.54672e-07 -4.90125e-08 0)
(7.75437e-07 -4.94512e-08 0)
(7.96265e-07 -4.98626e-08 0)
(8.17257e-07 -5.02912e-08 0)
(8.38284e-07 -5.07603e-08 0)
(4.56787e-07 -3.95452e-08 0)
(4.73255e-07 -4.13227e-08 0)
(4.9087e-07 -4.2888e-08 0)
(5.09031e-07 -4.44811e-08 0)
(5.27734e-07 -4.60481e-08 0)
(5.46876e-07 -4.75601e-08 0)
(5.66381e-07 -4.90087e-08 0)
(5.86186e-07 -5.03866e-08 0)
(6.06251e-07 -5.1677e-08 0)
(6.26574e-07 -5.2863e-08 0)
(6.47137e-07 -5.39395e-08 0)
(6.67892e-07 -5.48995e-08 0)
(6.88804e-07 -5.57391e-08 0)
(7.09879e-07 -5.64715e-08 0)
(7.31094e-07 -5.71083e-08 0)
(7.52399e-07 -5.76628e-08 0)
(7.73871e-07 -5.81627e-08 0)
(7.9539e-07 -5.86366e-08 0)
(8.1706e-07 -5.91171e-08 0)
(8.38736e-07 -5.96231e-08 0)
(4.3757e-07 -4.6947e-08 0)
(4.55606e-07 -4.87313e-08 0)
(4.7487e-07 -5.03177e-08 0)
(4.94595e-07 -5.19944e-08 0)
(5.1473e-07 -5.36545e-08 0)
(5.35221e-07 -5.52824e-08 0)
(5.55947e-07 -5.68374e-08 0)
(5.76873e-07 -5.83184e-08 0)
(5.97991e-07 -5.97048e-08 0)
(6.19311e-07 -6.09747e-08 0)
(6.40808e-07 -6.21222e-08 0)
(6.62416e-07 -6.31443e-08 0)
(6.8412e-07 -6.40444e-08 0)
(7.05972e-07 -6.48371e-08 0)
(7.27928e-07 -6.55317e-08 0)
(7.49988e-07 -6.61423e-08 0)
(7.72211e-07 -6.66913e-08 0)
(7.94462e-07 -6.71975e-08 0)
(8.16866e-07 -6.76825e-08 0)
(8.39282e-07 -6.81806e-08 0)
(4.16222e-07 -5.49503e-08 0)
(4.36546e-07 -5.66044e-08 0)
(4.5797e-07 -5.81066e-08 0)
(4.79598e-07 -5.97555e-08 0)
(5.01423e-07 -6.14203e-08 0)
(5.23386e-07 -6.30569e-08 0)
(5.45428e-07 -6.46304e-08 0)
(5.67539e-07 -6.61368e-08 0)
(5.89735e-07 -6.75516e-08 0)
(6.12036e-07 -6.88506e-08 0)
(6.34427e-07 -7.00287e-08 0)
(6.56866e-07 -7.10893e-08 0)
(6.79369e-07 -7.2042e-08 0)
(7.01995e-07 -7.28962e-08 0)
(7.24681e-07 -7.36521e-08 0)
(7.4748e-07 -7.43198e-08 0)
(7.70439e-07 -7.49119e-08 0)
(7.9344e-07 -7.54317e-08 0)
(8.16597e-07 -7.58993e-08 0)
(8.39803e-07 -7.63765e-08 0)
(3.93097e-07 -6.42982e-08 0)
(4.17162e-07 -6.52821e-08 0)
(4.41486e-07 -6.64265e-08 0)
(4.65384e-07 -6.78049e-08 0)
(4.89026e-07 -6.92753e-08 0)
(5.12471e-07 -7.07668e-08 0)
(5.35763e-07 -7.22476e-08 0)
(5.58959e-07 -7.36942e-08 0)
(5.82124e-07 -7.50719e-08 0)
(6.05308e-07 -7.63529e-08 0)
(6.28508e-07 -7.75323e-08 0)
(6.51693e-07 -7.8616e-08 0)
(6.74909e-07 -7.96128e-08 0)
(6.98216e-07 -8.05236e-08 0)
(7.21553e-07 -8.13399e-08 0)
(7.45019e-07 -8.20668e-08 0)
(7.68616e-07 -8.27051e-08 0)
(7.92291e-07 -8.32499e-08 0)
(8.16136e-07 -8.37275e-08 0)
(8.40115e-07 -8.42036e-08 0)
(3.69858e-07 -7.7617e-08 0)
(4.00162e-07 -7.58978e-08 0)
(4.27856e-07 -7.59164e-08 0)
(4.54071e-07 -7.65909e-08 0)
(4.79367e-07 -7.75861e-08 0)
(5.04095e-07 -7.87539e-08 0)
(5.28433e-07 -8.00043e-08 0)
(5.52515e-07 -8.1276e-08 0)
(5.76451e-07 -8.25198e-08 0)
(6.00321e-07 -8.37015e-08 0)
(6.2413e-07 -8.48118e-08 0)
(6.47861e-07 -8.58532e-08 0)
(6.71598e-07 -8.68294e-08 0)
(6.95393e-07 -8.77329e-08 0)
(7.19175e-07 -8.85495e-08 0)
(7.43088e-07 -8.9281e-08 0)
(7.67082e-07 -8.99205e-08 0)
(7.91169e-07 -9.04722e-08 0)
(8.15407e-07 -9.09671e-08 0)
(8.39816e-07 -9.14239e-08 0)
(3.5932e-07 -8.98543e-08 0)
(3.89751e-07 -8.75214e-08 0)
(4.18242e-07 -8.65654e-08 0)
(4.45513e-07 -8.64423e-08 0)
(4.71828e-07 -8.68405e-08 0)
(4.97464e-07 -8.75683e-08 0)
(5.22607e-07 -8.84757e-08 0)
(5.47401e-07 -8.9472e-08 0)
(5.71966e-07 -9.04956e-08 0)
(5.96392e-07 -9.15031e-08 0)
(6.20691e-07 -9.24739e-08 0)
(6.4486e-07 -9.34017e-08 0)
(6.6901e-07 -9.42838e-08 0)
(6.93174e-07 -9.51053e-08 0)
(7.17281e-07 -9.58502e-08 0)
(7.415e-07 -9.65227e-08 0)
(7.65742e-07 -9.71157e-08 0)
(7.90069e-07 -9.76458e-08 0)
(8.14494e-07 -9.81279e-08 0)
(8.39048e-07 -9.84905e-08 0)
(3.53044e-07 -1.00277e-07 0)
(3.82709e-07 -9.82698e-08 0)
(4.11186e-07 -9.70449e-08 0)
(4.38779e-07 -9.64741e-08 0)
(4.65603e-07 -9.64359e-08 0)
(4.91803e-07 -9.67786e-08 0)
(5.1752e-07 -9.73536e-08 0)
(5.42858e-07 -9.80683e-08 0)
(5.67924e-07 -9.88588e-08 0)
(5.92807e-07 -9.96756e-08 0)
(6.17513e-07 -1.00485e-07 0)
(6.42048e-07 -1.01271e-07 0)
(6.66545e-07 -1.02029e-07 0)
(6.91014e-07 -1.02739e-07 0)
(7.15391e-07 -1.03387e-07 0)
(7.39852e-07 -1.03982e-07 0)
(7.64291e-07 -1.04522e-07 0)
(7.88794e-07 -1.0502e-07 0)
(8.13343e-07 -1.05446e-07 0)
(8.37977e-07 -1.05666e-07 0)
(3.48547e-07 -1.09903e-07 0)
(3.77511e-07 -1.08249e-07 0)
(4.05727e-07 -1.07045e-07 0)
(4.33334e-07 -1.06298e-07 0)
(4.60363e-07 -1.05999e-07 0)
(4.86888e-07 -1.06056e-07 0)
(5.12989e-07 -1.06358e-07 0)
(5.38717e-07 -1.06824e-07 0)
(5.64161e-07 -1.07397e-07 0)
(5.89409e-07 -1.08025e-07 0)
(6.14449e-07 -1.08667e-07 0)
(6.39294e-07 -1.09302e-07 0)
(6.64086e-07 -1.09929e-07 0)
(6.88817e-07 -1.10526e-07 0)
(7.13435e-07 -1.11078e-07 0)
(7.38104e-07 -1.11598e-07 0)
(7.6271e-07 -1.12085e-07 0)
(7.87357e-07 -1.12528e-07 0)
(8.12004e-07 -1.12848e-07 0)
(8.36707e-07 -1.12954e-07 0)
(3.45052e-07 -1.19055e-07 0)
(3.73486e-07 -1.17705e-07 0)
(4.01397e-07 -1.1664e-07 0)
(4.28905e-07 -1.15867e-07 0)
(4.55977e-07 -1.1543e-07 0)
(4.82668e-07 -1.15294e-07 0)
(5.09002e-07 -1.15389e-07 0)
(5.34985e-07 -1.15652e-07 0)
(5.60697e-07 -1.1603e-07 0)
(5.86222e-07 -1.16482e-07 0)
(6.1153e-07 -1.16963e-07 0)
(6.36631e-07 -1.17455e-07 0)
(6.61676e-07 -1.17961e-07 0)
(6.86628e-07 -1.18459e-07 0)
(7.11455e-07 -1.18931e-07 0)
(7.36303e-07 -1.19384e-07 0)
(7.61057e-07 -1.19808e-07 0)
(7.85822e-07 -1.20169e-07 0)
(8.10553e-07 -1.20375e-07 0)
(8.35319e-07 -1.20459e-07 0)
(3.42164e-07 -1.27919e-07 0)
(3.70196e-07 -1.26834e-07 0)
(3.97857e-07 -1.25924e-07 0)
(4.25226e-07 -1.25194e-07 0)
(4.52265e-07 -1.24701e-07 0)
(4.79031e-07 -1.24453e-07 0)
(5.05496e-07 -1.24412e-07 0)
(5.31637e-07 -1.24522e-07 0)
(5.57532e-07 -1.24744e-07 0)
(5.83262e-07 -1.25046e-07 0)
(6.0878e-07 -1.25386e-07 0)
(6.34092e-07 -1.25751e-07 0)
(6.59349e-07 -1.26154e-07 0)
(6.8449e-07 -1.26569e-07 0)
(7.09502e-07 -1.2697e-07 0)
(7.34496e-07 -1.27353e-07 0)
(7.59375e-07 -1.27696e-07 0)
(7.84238e-07 -1.27959e-07 0)
(8.09045e-07 -1.28099e-07 0)
(8.33866e-07 -1.28215e-07 0)
(3.39708e-07 -1.36606e-07 0)
(3.6743e-07 -1.35735e-07 0)
(3.94906e-07 -1.34965e-07 0)
(4.22125e-07 -1.34313e-07 0)
(4.49104e-07 -1.3383e-07 0)
(4.75889e-07 -1.3354e-07 0)
(5.02419e-07 -1.3342e-07 0)
(5.28654e-07 -1.33426e-07 0)
(5.54672e-07 -1.33527e-07 0)
(5.80551e-07 -1.33711e-07 0)
(6.06229e-07 -1.33936e-07 0)
(6.31711e-07 -1.34194e-07 0)
(6.57142e-07 -1.34505e-07 0)
(6.82432e-07 -1.34838e-07 0)
(7.07599e-07 -1.35162e-07 0)
(7.32713e-07 -1.35458e-07 0)
(7.57694e-07 -1.35706e-07 0)
(7.82641e-07 -1.35884e-07 0)
(8.07515e-07 -1.36016e-07 0)
(8.32378e-07 -1.36101e-07 0)
(3.37605e-07 -1.45158e-07 0)
(3.65104e-07 -1.44448e-07 0)
(3.92425e-07 -1.4381e-07 0)
(4.19507e-07 -1.43259e-07 0)
(4.46414e-07 -1.42827e-07 0)
(4.7318e-07 -1.42532e-07 0)
(4.99733e-07 -1.42367e-07 0)
(5.26018e-07 -1.423e-07 0)
(5.52114e-07 -1.42306e-07 0)
(5.78097e-07 -1.42397e-07 0)
(6.03892e-07 -1.42534e-07 0)
(6.29505e-07 -1.42709e-07 0)
(6.55072e-07 -1.42939e-07 0)
(6.80478e-07 -1.43188e-07 0)
(7.05763e-07 -1.43426e-07 0)
(7.30972e-07 -1.43632e-07 0)
(7.56037e-07 -1.43798e-07 0)
(7.81058e-07 -1.43932e-07 0)
(8.05987e-07 -1.4406e-07 0)
(8.30885e-07 -1.44028e-07 0)
(3.35786e-07 -1.53597e-07 0)
(3.63133e-07 -1.53017e-07 0)
(3.9032e-07 -1.52503e-07 0)
(4.17292e-07 -1.5205e-07 0)
(4.44122e-07 -1.51674e-07 0)
(4.70848e-07 -1.51384e-07 0)
(4.97396e-07 -1.51186e-07 0)
(5.23703e-07 -1.51065e-07 0)
(5.49848e-07 -1.50999e-07 0)
(5.75902e-07 -1.51028e-07 0)
(6.01779e-07 -1.51109e-07 0)
(6.27488e-07 -1.51234e-07 0)
(6.5315e-07 -1.51405e-07 0)
(6.78642e-07 -1.51582e-07 0)
(7.04011e-07 -1.51745e-07 0)
(7.29295e-07 -1.51883e-07 0)
(7.5443e-07 -1.52008e-07 0)
(7.79512e-07 -1.52126e-07 0)
(8.04485e-07 -1.52189e-07 0)
(8.29414e-07 -1.52093e-07 0)
(3.34205e-07 -1.61965e-07 0)
(3.61439e-07 -1.61505e-07 0)
(3.88521e-07 -1.61089e-07 0)
(4.15402e-07 -1.6071e-07 0)
(4.42158e-07 -1.60375e-07 0)
(4.68838e-07 -1.60088e-07 0)
(4.95369e-07 -1.59875e-07 0)
(5.21683e-07 -1.5973e-07 0)
(5.47858e-07 -1.59627e-07 0)
(5.7396e-07 -1.59628e-07 0)
(5.99891e-07 -1.59684e-07 0)
(6.25664e-07 -1.59782e-07 0)
(6.51384e-07 -1.59912e-07 0)
(6.76931e-07 -1.60033e-07 0)
(7.02359e-07 -1.60137e-07 0)
(7.27702e-07 -1.60235e-07 0)
(7.52895e-07 -1.60338e-07 0)
(7.78025e-07 -1.60419e-07 0)
(8.03032e-07 -1.60376e-07 0)
(8.27985e-07 -1.60331e-07 0)
(3.32842e-07 -1.7031e-07 0)
(3.5998e-07 -1.69954e-07 0)
(3.86977e-07 -1.69602e-07 0)
(4.13777e-07 -1.69271e-07 0)
(4.40466e-07 -1.68972e-07 0)
(4.67103e-07 -1.68703e-07 0)
(4.93614e-07 -1.68499e-07 0)
(5.19929e-07 -1.6836e-07 0)
(5.46124e-07 -1.68254e-07 0)
(5.72254e-07 -1.68237e-07 0)
(5.98215e-07 -1.68268e-07 0)
(6.24024e-07 -1.68333e-07 0)
(6.49774e-07 -1.68416e-07 0)
(6.75354e-07 -1.68484e-07 0)
(7.00823e-07 -1.68544e-07 0)
(7.26212e-07 -1.68612e-07 0)
(7.5145e-07 -1.68675e-07 0)
(7.76612e-07 -1.68676e-07 0)
(8.01648e-07 -1.68593e-07 0)
(8.2662e-07 -1.68565e-07 0)
(3.31671e-07 -1.78647e-07 0)
(3.58724e-07 -1.7835e-07 0)
(3.85641e-07 -1.78048e-07 0)
(4.12372e-07 -1.7776e-07 0)
(4.39006e-07 -1.77499e-07 0)
(4.65607e-07 -1.77255e-07 0)
(4.92102e-07 -1.77069e-07 0)
(5.18414e-07 -1.76932e-07 0)
(5.4462e-07 -1.76834e-07 0)
(5.70764e-07 -1.76795e-07 0)
(5.96734e-07 -1.76791e-07 0)
(6.22557e-07 -1.76818e-07 0)
(6.48321e-07 -1.76861e-07 0)
(6.73922e-07 -1.76899e-07 0)
(6.99421e-07 -1.76943e-07 0)
(7.24844e-07 -1.76987e-07 0)
(7.50107e-07 -1.76996e-07 0)
(7.75291e-07 -1.76932e-07 0)
(8.00346e-07 -1.7691e-07 0)
(8.25337e-07 -1.76801e-07 0)
(3.30666e-07 -1.86946e-07 0)
(3.57641e-07 -1.86678e-07 0)
(3.84486e-07 -1.86434e-07 0)
(4.11161e-07 -1.86188e-07 0)
(4.37752e-07 -1.85959e-07 0)
(4.64325e-07 -1.85726e-07 0)
(4.90806e-07 -1.85554e-07 0)
(5.17115e-07 -1.85408e-07 0)
(5.43322e-07 -1.85334e-07 0)
(5.69466e-07 -1.85295e-07 0)
(5.95431e-07 -1.85279e-07 0)
(6.21255e-07 -1.8529e-07 0)
(6.47029e-07 -1.85316e-07 0)
(6.72647e-07 -1.85345e-07 0)
(6.98167e-07 -1.85377e-07 0)
(7.23605e-07 -1.85388e-07 0)
(7.48877e-07 -1.85349e-07 0)
(7.74074e-07 -1.85291e-07 0)
(7.99145e-07 -1.85296e-07 0)
(8.24156e-07 -1.85175e-07 0)
(3.29804e-07 -1.95205e-07 0)
(3.56712e-07 -1.95002e-07 0)
(3.83503e-07 -1.94809e-07 0)
(4.10132e-07 -1.94589e-07 0)
(4.36688e-07 -1.94378e-07 0)
(4.6324e-07 -1.94157e-07 0)
(4.89708e-07 -1.94019e-07 0)
(5.1601e-07 -1.93885e-07 0)
(5.42207e-07 -1.93831e-07 0)
(5.68337e-07 -1.93795e-07 0)
(5.94292e-07 -1.9376e-07 0)
(6.20119e-07 -1.93741e-07 0)
(6.45905e-07 -1.9374e-07 0)
(6.71536e-07 -1.93747e-07 0)
(6.97061e-07 -1.93747e-07 0)
(7.22495e-07 -1.93715e-07 0)
(7.4777e-07 -1.93663e-07 0)
(7.72986e-07 -1.93665e-07 0)
(7.98081e-07 -1.93585e-07 0)
(8.23107e-07 -1.93528e-07 0)
(3.29084e-07 -2.03521e-07 0)
(3.55937e-07 -2.03376e-07 0)
(3.82686e-07 -2.03198e-07 0)
(4.09278e-07 -2.02992e-07 0)
(4.35809e-07 -2.02806e-07 0)
(4.62345e-07 -2.02622e-07 0)
(4.88795e-07 -2.02499e-07 0)
(5.15077e-07 -2.02369e-07 0)
(5.41255e-07 -2.02273e-07 0)
(5.6737e-07 -2.02206e-07 0)
(5.93323e-07 -2.02163e-07 0)
(6.19161e-07 -2.02143e-07 0)
(6.44957e-07 -2.02137e-07 0)
(6.70583e-07 -2.02127e-07 0)
(6.96091e-07 -2.02095e-07 0)
(7.21521e-07 -2.02047e-07 0)
(7.46818e-07 -2.02025e-07 0)
(7.72061e-07 -2.02039e-07 0)
(7.97167e-07 -2.01934e-07 0)
(8.22181e-07 -2.0185e-07 0)
(3.28509e-07 -2.11936e-07 0)
(3.55318e-07 -2.1175e-07 0)
(3.82035e-07 -2.1158e-07 0)
(4.08602e-07 -2.11407e-07 0)
(4.35118e-07 -2.11237e-07 0)
(4.61637e-07 -2.11086e-07 0)
(4.88062e-07 -2.10941e-07 0)
(5.14306e-07 -2.10831e-07 0)
(5.40458e-07 -2.10724e-07 0)
(5.66571e-07 -2.1063e-07 0)
(5.92539e-07 -2.10566e-07 0)
(6.18386e-07 -2.10531e-07 0)
(6.44167e-07 -2.10503e-07 0)
(6.69767e-07 -2.10465e-07 0)
(6.95269e-07 -2.10416e-07 0)
(7.20726e-07 -2.10389e-07 0)
(7.46054e-07 -2.10403e-07 0)
(7.71297e-07 -2.10328e-07 0)
(7.96381e-07 -2.10303e-07 0)
(8.21367e-07 -2.10215e-07 0)
(3.28086e-07 -2.20282e-07 0)
(3.5486e-07 -2.2013e-07 0)
(3.81554e-07 -2.1999e-07 0)
(4.08109e-07 -2.19847e-07 0)
(4.34611e-07 -2.19674e-07 0)
(4.61097e-07 -2.19526e-07 0)
(4.87478e-07 -2.19376e-07 0)
(5.13689e-07 -2.19244e-07 0)
(5.39836e-07 -2.19116e-07 0)
(5.65966e-07 -2.19006e-07 0)
(5.9194e-07 -2.18924e-07 0)
(6.17762e-07 -2.18861e-07 0)
(6.43507e-07 -2.18798e-07 0)
(6.69103e-07 -2.18739e-07 0)
(6.94646e-07 -2.18702e-07 0)
(7.20147e-07 -2.18699e-07 0)
(7.4545e-07 -2.18689e-07 0)
(7.70604e-07 -2.18584e-07 0)
(7.95687e-07 -2.18559e-07 0)
(8.20831e-07 -2.18519e-07 0)
(3.27824e-07 -2.28622e-07 0)
(3.54566e-07 -2.28549e-07 0)
(3.81245e-07 -2.28407e-07 0)
(4.07784e-07 -2.28255e-07 0)
(4.34248e-07 -2.28122e-07 0)
(4.60687e-07 -2.27954e-07 0)
(4.87033e-07 -2.27789e-07 0)
(5.13247e-07 -2.27633e-07 0)
(5.3942e-07 -2.27491e-07 0)
(5.65549e-07 -2.27367e-07 0)
(5.91471e-07 -2.27261e-07 0)
(6.1724e-07 -2.27171e-07 0)
(6.43014e-07 -2.27092e-07 0)
(6.68704e-07 -2.27029e-07 0)
(6.94254e-07 -2.27e-07 0)
(7.19619e-07 -2.26988e-07 0)
(7.44879e-07 -2.26912e-07 0)
(7.7018e-07 -2.26902e-07 0)
(7.95252e-07 -2.26831e-07 0)
(8.20191e-07 -2.26805e-07 0)
(3.27696e-07 -2.37099e-07 0)
(3.54415e-07 -2.36973e-07 0)
(3.81072e-07 -2.36833e-07 0)
(4.07572e-07 -2.36688e-07 0)
(4.33978e-07 -2.36522e-07 0)
(4.60389e-07 -2.36347e-07 0)
(4.86772e-07 -2.36167e-07 0)
(5.1303e-07 -2.35984e-07 0)
(5.39163e-07 -2.35809e-07 0)
(5.65191e-07 -2.35657e-07 0)
(5.91104e-07 -2.3553e-07 0)
(6.16995e-07 -2.35416e-07 0)
(6.42814e-07 -2.3532e-07 0)
(6.68367e-07 -2.35258e-07 0)
(6.93869e-07 -2.3522e-07 0)
(7.19362e-07 -2.35176e-07 0)
(7.44634e-07 -2.35094e-07 0)
(7.69848e-07 -2.35059e-07 0)
(7.94943e-07 -2.35001e-07 0)
(8.19882e-07 -2.35004e-07 0)
(3.2768e-07 -2.45484e-07 0)
(3.54377e-07 -2.45415e-07 0)
(3.80977e-07 -2.45282e-07 0)
(4.07403e-07 -2.4512e-07 0)
(4.33835e-07 -2.44942e-07 0)
(4.60333e-07 -2.44756e-07 0)
(4.86716e-07 -2.44554e-07 0)
(5.12855e-07 -2.44349e-07 0)
(5.38941e-07 -2.44157e-07 0)
(5.65086e-07 -2.43984e-07 0)
(5.91058e-07 -2.43834e-07 0)
(6.16837e-07 -2.43704e-07 0)
(6.42623e-07 -2.4359e-07 0)
(6.68269e-07 -2.43513e-07 0)
(6.93757e-07 -2.43449e-07 0)
(7.19229e-07 -2.43374e-07 0)
(7.44548e-07 -2.4338e-07 0)
(7.69758e-07 -2.432e-07 0)
(7.94877e-07 -2.43117e-07 0)
(8.1967e-07 -2.42994e-07 0)
(1.82307e-08 -1.14407e-07 0)
(5.46462e-08 -1.1362e-07 0)
(9.08884e-08 -1.11668e-07 0)
(1.26828e-07 -1.09107e-07 0)
(1.6235e-07 -1.05724e-07 0)
(1.97392e-07 -1.01858e-07 0)
(2.31883e-07 -9.75829e-08 0)
(2.65802e-07 -9.29596e-08 0)
(2.99362e-07 -8.80493e-08 0)
(3.32387e-07 -8.27882e-08 0)
(1.83525e-08 -1.19509e-07 0)
(5.49897e-08 -1.18874e-07 0)
(9.13925e-08 -1.17147e-07 0)
(1.27394e-07 -1.14967e-07 0)
(1.6284e-07 -1.12064e-07 0)
(1.97621e-07 -1.08728e-07 0)
(2.31597e-07 -1.05058e-07 0)
(2.64658e-07 -1.01104e-07 0)
(2.96722e-07 -9.70231e-08 0)
(3.27455e-07 -9.31233e-08 0)
(1.83726e-08 -1.25027e-07 0)
(5.5026e-08 -1.24547e-07 0)
(9.1375e-08 -1.23043e-07 0)
(1.2724e-07 -1.2121e-07 0)
(1.62448e-07 -1.18763e-07 0)
(1.96839e-07 -1.15906e-07 0)
(2.30247e-07 -1.12767e-07 0)
(2.62556e-07 -1.09382e-07 0)
(2.93632e-07 -1.05928e-07 0)
(3.23302e-07 -1.02758e-07 0)
(1.8322e-08 -1.30876e-07 0)
(5.48803e-08 -1.30511e-07 0)
(9.10873e-08 -1.29191e-07 0)
(1.26756e-07 -1.27617e-07 0)
(1.6171e-07 -1.25533e-07 0)
(1.95751e-07 -1.23028e-07 0)
(2.28729e-07 -1.20301e-07 0)
(2.60506e-07 -1.17386e-07 0)
(2.90953e-07 -1.14457e-07 0)
(3.19949e-07 -1.11838e-07 0)
(1.82393e-08 -1.36986e-07 0)
(5.46022e-08 -1.36717e-07 0)
(9.06121e-08 -1.35559e-07 0)
(1.26048e-07 -1.34174e-07 0)
(1.60738e-07 -1.32388e-07 0)
(1.94473e-07 -1.30183e-07 0)
(2.27101e-07 -1.27813e-07 0)
(2.58507e-07 -1.25317e-07 0)
(2.88542e-07 -1.22816e-07 0)
(3.171e-07 -1.20619e-07 0)
(1.81398e-08 -1.43324e-07 0)
(5.42546e-08 -1.43111e-07 0)
(9.00261e-08 -1.42112e-07 0)
(1.25205e-07 -1.40878e-07 0)
(1.59622e-07 -1.39341e-07 0)
(1.93102e-07 -1.37421e-07 0)
(2.25451e-07 -1.35353e-07 0)
(2.56581e-07 -1.3321e-07 0)
(2.86334e-07 -1.31065e-07 0)
(3.14603e-07 -1.29211e-07 0)
(1.80028e-08 -1.49864e-07 0)
(5.38585e-08 -1.4967e-07 0)
(8.93633e-08 -1.48846e-07 0)
(1.2427e-07 -1.47727e-07 0)
(1.58429e-07 -1.46383e-07 0)
(1.91673e-07 -1.44724e-07 0)
(2.23808e-07 -1.42925e-07 0)
(2.54731e-07 -1.41077e-07 0)
(2.84289e-07 -1.39236e-07 0)
(3.12392e-07 -1.37659e-07 0)
(1.78501e-08 -1.5658e-07 0)
(5.34364e-08 -1.56377e-07 0)
(8.86526e-08 -1.55718e-07 0)
(1.23282e-07 -1.54692e-07 0)
(1.57206e-07 -1.5351e-07 0)
(1.90236e-07 -1.52091e-07 0)
(2.22188e-07 -1.50537e-07 0)
(2.52957e-07 -1.48921e-07 0)
(2.82399e-07 -1.4734e-07 0)
(3.10434e-07 -1.45995e-07 0)
(1.7718e-08 -1.63451e-07 0)
(5.30111e-08 -1.63225e-07 0)
(8.79253e-08 -1.627e-07 0)
(1.22287e-07 -1.61773e-07 0)
(1.55977e-07 -1.60742e-07 0)
(1.88824e-07 -1.59531e-07 0)
(2.20628e-07 -1.58192e-07 0)
(2.5129e-07 -1.56766e-07 0)
(2.80671e-07 -1.55416e-07 0)
(3.08703e-07 -1.54275e-07 0)
(1.75922e-08 -1.70478e-07 0)
(5.25737e-08 -1.70214e-07 0)
(8.71917e-08 -1.69788e-07 0)
(1.21309e-07 -1.68979e-07 0)
(1.54773e-07 -1.68094e-07 0)
(1.8746e-07 -1.67047e-07 0)
(2.19156e-07 -1.65894e-07 0)
(2.49744e-07 -1.64659e-07 0)
(2.79101e-07 -1.6352e-07 0)
(3.07174e-07 -1.62552e-07 0)
(1.74462e-08 -1.77639e-07 0)
(5.21285e-08 -1.7733e-07 0)
(8.64762e-08 -1.76983e-07 0)
(1.20364e-07 -1.76301e-07 0)
(1.53622e-07 -1.75554e-07 0)
(1.86161e-07 -1.74643e-07 0)
(2.17771e-07 -1.73654e-07 0)
(2.48314e-07 -1.72626e-07 0)
(2.77674e-07 -1.71651e-07 0)
(3.05823e-07 -1.70814e-07 0)
(1.72911e-08 -1.84887e-07 0)
(5.17092e-08 -1.84554e-07 0)
(8.58135e-08 -1.84281e-07 0)
(1.19472e-07 -1.83719e-07 0)
(1.52538e-07 -1.83091e-07 0)
(1.84937e-07 -1.82307e-07 0)
(2.16472e-07 -1.81472e-07 0)
(2.46986e-07 -1.80625e-07 0)
(2.76374e-07 -1.79761e-07 0)
(3.04632e-07 -1.79035e-07 0)
(1.71558e-08 -1.92198e-07 0)
(5.13409e-08 -1.91875e-07 0)
(8.52162e-08 -1.91667e-07 0)
(1.18646e-07 -1.91209e-07 0)
(1.51534e-07 -1.90677e-07 0)
(1.838e-07 -1.9002e-07 0)
(2.15262e-07 -1.89341e-07 0)
(2.45758e-07 -1.88619e-07 0)
(2.75195e-07 -1.87859e-07 0)
(3.03583e-07 -1.87261e-07 0)
(1.70478e-08 -1.99577e-07 0)
(5.10146e-08 -1.99287e-07 0)
(8.46701e-08 -1.9912e-07 0)
(1.17886e-07 -1.9876e-07 0)
(1.50612e-07 -1.98325e-07 0)
(1.82755e-07 -1.97796e-07 0)
(2.14146e-07 -1.97257e-07 0)
(2.4463e-07 -1.96631e-07 0)
(2.7413e-07 -1.96024e-07 0)
(3.02658e-07 -1.95526e-07 0)
(1.69519e-08 -2.0703e-07 0)
(5.07058e-08 -2.06785e-07 0)
(8.41576e-08 -2.06646e-07 0)
(1.1719e-07 -2.06382e-07 0)
(1.49767e-07 -2.06053e-07 0)
(1.81796e-07 -2.05649e-07 0)
(2.1312e-07 -2.05187e-07 0)
(2.43605e-07 -2.04654e-07 0)
(2.73179e-07 -2.04215e-07 0)
(3.01861e-07 -2.03773e-07 0)
(1.68538e-08 -2.14555e-07 0)
(5.04051e-08 -2.14382e-07 0)
(8.36766e-08 -2.14271e-07 0)
(1.16553e-07 -2.14088e-07 0)
(1.48996e-07 -2.13819e-07 0)
(1.80922e-07 -2.135e-07 0)
(2.12196e-07 -2.13113e-07 0)
(2.42699e-07 -2.1274e-07 0)
(2.72361e-07 -2.12422e-07 0)
(3.0121e-07 -2.12105e-07 0)
(1.67554e-08 -2.22164e-07 0)
(5.01237e-08 -2.22077e-07 0)
(8.32377e-08 -2.21967e-07 0)
(1.1598e-07 -2.21831e-07 0)
(1.48307e-07 -2.21651e-07 0)
(1.8015e-07 -2.21414e-07 0)
(2.11394e-07 -2.21133e-07 0)
(2.41929e-07 -2.20922e-07 0)
(2.71689e-07 -2.20643e-07 0)
(3.00705e-07 -2.20469e-07 0)
(1.66671e-08 -2.29862e-07 0)
(4.98788e-08 -2.29841e-07 0)
(8.28555e-08 -2.29742e-07 0)
(1.15482e-07 -2.29642e-07 0)
(1.47717e-07 -2.29498e-07 0)
(1.79501e-07 -2.29325e-07 0)
(2.10733e-07 -2.29163e-07 0)
(2.41307e-07 -2.2905e-07 0)
(2.71169e-07 -2.28891e-07 0)
(3.00359e-07 -2.28773e-07 0)
(1.65987e-08 -2.37627e-07 0)
(4.96838e-08 -2.37659e-07 0)
(8.25435e-08 -2.37596e-07 0)
(1.15075e-07 -2.37521e-07 0)
(1.47237e-07 -2.37421e-07 0)
(1.78989e-07 -2.37336e-07 0)
(2.10224e-07 -2.37301e-07 0)
(2.40839e-07 -2.37241e-07 0)
(2.70783e-07 -2.37236e-07 0)
(3.00148e-07 -2.37202e-07 0)
(1.65527e-08 -2.45496e-07 0)
(4.95452e-08 -2.45523e-07 0)
(8.23032e-08 -2.45498e-07 0)
(1.14766e-07 -2.45439e-07 0)
(1.46902e-07 -2.45373e-07 0)
(1.7865e-07 -2.45368e-07 0)
(2.09881e-07 -2.45407e-07 0)
(2.40503e-07 -2.45437e-07 0)
(2.70526e-07 -2.45514e-07 0)
(3.00093e-07 -2.45553e-07 0)
)


// ************************************************************************* //
