/*--------------------------------*- C++ -*----------------------------------*\
| =========                 |                                                 |
| \\      /  F ield         | foam-extend: Open Source CFD                    |
|  \\    /   O peration     | Version:     4.1                                |
|   \\  /    A nd           | Web:         http://www.foam-extend.org         |
|    \\/     M anipulation  |                                                 |
\*---------------------------------------------------------------------------*/
FoamFile
{
    version     2.0;
    format      ascii;
    class       volScalarField;
    location    "1";
    object      sigmaHyd;
}
// * * * * * * * * * * * * * * * * * * * * * * * * * * * * * * * * * * * * * //

dimensions      [1 -1 -2 0 0 0 0];

internalField   nonuniform List<scalar> 
1000
(
-54636.9
-52302.5
-51690.4
-50584.1
-50029.8
-49399.5
-48996.3
-48577.1
-48378.9
-47798.3
-70210.8
-64894
-62454
-59642.6
-57843.5
-56114.3
-54831.8
-53632.2
-52782.3
-51572.2
-85199.3
-77014.3
-72818.1
-68369.2
-65378.7
-62595.6
-60480.5
-58521.3
-57071.9
-55223.9
-99236.9
-88363
-82518
-76532.9
-72419.8
-68649.3
-65740.3
-63090.4
-61049.9
-58721.6
-111983
-98666.5
-91324
-83944.9
-78813.2
-74147.6
-70518.2
-67244.3
-64664.4
-61923.9
-123124
-107671
-99018.1
-90420
-84396.2
-78949.3
-74686.7
-70873.9
-67812.4
-64739.8
-132386
-115155
-105411
-95799.3
-89033.3
-82937.1
-78146.6
-73887.7
-70419.3
-67084.1
-139539
-120937
-110351
-99956.6
-92617.2
-86020.2
-80820.4
-76218.6
-72430.8
-68901.6
-144402
-124865
-113704
-102777
-95046.5
-88108.2
-82629.2
-77794.2
-73786.5
-70128.6
-146869
-126891
-115463
-104278
-96356
-89247.4
-83627.2
-78673.1
-74552
-70827.3
54203.6
35605.3
23391
12561.2
4408.12
-2624.91
-8323.01
-13289.1
-17437
-21230.7
51673.1
33524.2
21571.9
11009.4
3053.87
-3801.49
-9351.8
-14192.4
-18220.4
-21943.5
46746.2
29555.4
18192
8174.41
618.49
-5887.88
-11151.6
-15752.2
-19552.1
-23143.2
39489.8
23706.8
13207.4
3989.14
-2980.64
-8974.56
-13818.4
-18066
-21534.6
-24927.4
30107
16143.6
6762.64
-1421.66
-7633.84
-12965.3
-17269.4
-21059.6
-24108.7
-27234.2
18836.6
7053.54
-987.614
-7931.19
-13234.6
-17770.1
-21427.8
-24666
-27219.9
-30006.8
5968.41
-3331.08
-9847.31
-15376.5
-19646.2
-23273.3
-26200.6
-28802.4
-30810.2
-33177.3
-8173.44
-14748.8
-19592.7
-23567.9
-26701.2
-29328.2
-31451
-33348.5
-34756.5
-36627.5
-23237.6
-26919.5
-29990.5
-32315.6
-34249.1
-35813.3
-37101.7
-38226.4
-39052.1
-40246.7
-38851.4
-39537.4
-40771.3
-41384.2
-42067.1
-42527
-42929.9
-43268.1
-43428.5
-43976.2
-24311.9
-27249.8
-29838.4
-32241.9
-34455.8
-36529.8
-38489.9
-40359.6
-42162.7
-43916.7
-45639.5
-47348.6
-49054.5
-50782.6
-52526.5
-54342.3
-56165.8
-58168.9
-60068.3
-62467.4
-24898.9
-27688.1
-30191.7
-32503.8
-34656.3
-36670.9
-38585.8
-40413.8
-42182.2
-43904.4
-45598.7
-47281.1
-48961.9
-50665.2
-52384.7
-54175.4
-55973.1
-57948.2
-59818.9
-62183
-25855.1
-28378.6
-30738
-32890.4
-34941.1
-36854.5
-38694.5
-40452.5
-42162.9
-43831.6
-45477.8
-47114.6
-48751.8
-50412.1
-52088.5
-53834.5
-55586.2
-57510.4
-59329.4
-61628.5
-27298.8
-29410.1
-31565.5
-33474.9
-35375.5
-37136.9
-38865.1
-40519
-42143.3
-43733
-45308.5
-46878.7
-48452.6
-50050.4
-51664.3
-53345.3
-55030
-56879.7
-58623.2
-60826.9
-29200
-30756.6
-32666.8
-34259.5
-35970.9
-37538.3
-39123.3
-40644.4
-42157.7
-43645.7
-45129.4
-46612.9
-48103.8
-49619.5
-51151.1
-52746.3
-54342.7
-56093.9
-57737.8
-59814.5
-31529.4
-32384.4
-34009.7
-35213.6
-36690.1
-38022.4
-39429.5
-40791.2
-42169.9
-43537.9
-44913.5
-46296.6
-47691.8
-49113.2
-50550.2
-52046.2
-53539.9
-55175
-56701.1
-58624.8
-34263.5
-34310.1
-35626.2
-36408.9
-37614.4
-38692.8
-39894.9
-41078.1
-42300
-43528
-44774.8
-46037.2
-47316.5
-48623.5
-49945.9
-51322
-52692.1
-54188
-55573.8
-57315.1
-37265.4
-36419.6
-37332.5
-37673.6
-38538.2
-39340.3
-40303
-41293.2
-42346.4
-43430.8
-44548.6
-45693.2
-46860.5
-48057.1
-49268.1
-50525.9
-51772.4
-53125.5
-54365.5
-55912.2
-40586.9
-38989.8
-39393.2
-39373.2
-39859.6
-40394.9
-41096.9
-41872.6
-42726.9
-43634
-44587.1
-45578.1
-46598.5
-47651.5
-48719.5
-49828.6
-50922.9
-52103.9
-53172.4
-54494.1
-43368.5
-41552.3
-41081.2
-40699.1
-40700
-40918.8
-41342.8
-41912.4
-42600
-43374.3
-44215.3
-45107.5
-46035.6
-46996.6
-47969.9
-48974
-49955.5
-50999.5
-51929.5
-53059.8
-46033.7
-44615.6
-43457.5
-42755.7
-42416.1
-42339.6
-42492.9
-42815.7
-43278.1
-43846.4
-44497.6
-45213
-45974.2
-46773.7
-47589
-48431
-49249.3
-50108.6
-50852.7
-51738.5
-47143.9
-45765.2
-44676.2
-43958.6
-43551.2
-43380.3
-43414.7
-43606.7
-43930
-44354.9
-44860.1
-45427.1
-46037.7
-46682.3
-47338.9
-48012.7
-48658.2
-49325.1
-49879.7
-50531
-48265.5
-46814.2
-45728.2
-44919.3
-44414.3
-44126
-44040
-44107.8
-44307.1
-44608.1
-44990.2
-45434.2
-45921.5
-46440.5
-46969.6
-47509
-48017.9
-48531.6
-48937.6
-49398.1
-48887.9
-47459.8
-46453.2
-45637.6
-45105.8
-44758
-44596.3
-44574.4
-44675.4
-44871.7
-45144.9
-45476
-45847.5
-46246.5
-46652.5
-47061.7
-47438.2
-47805.1
-48070.9
-48354.3
-49175.2
-47818.7
-46900.4
-46097.9
-45559.4
-45174
-44960.1
-44871.5
-44897.2
-45010.9
-45196.3
-45435.1
-45710.6
-46009.3
-46312
-46611.9
-46877.8
-47122.1
-47272.1
-47408.9
-49196.2
-47936.4
-47120.1
-46362.6
-45846.1
-45452.9
-45213
-45081.8
-45053.1
-45102.6
-45216.6
-45377.7
-45570.7
-45782.1
-45994.2
-46198
-46367.1
-46505.1
-46556.8
-46570.2
-48998.4
-47858.6
-47145.9
-46449.3
-45969
-45585.5
-45337.1
-45181.2
-45115.7
-45118.3
-45177.4
-45277.1
-45403.6
-45543.6
-45681.4
-45806.3
-45896.5
-45948.6
-45922.4
-45838.9
-48635.4
-47625.4
-47017.4
-46395.2
-45963.8
-45606.3
-45365.3
-45200.9
-45114
-45084.5
-45103
-45155.1
-45228.5
-45310.7
-45387.9
-45448.6
-45475.1
-45458.7
-45372.4
-45215.5
-48140.7
-47266.8
-46761.9
-46221.9
-45847.3
-45526.9
-45305
-45144.8
-45049.3
-45000.8
-44991.6
-45009
-45042.4
-45080.2
-45110.5
-45121.6
-45099.7
-45032.2
-44903.2
-44695.4
-47547.2
-46810.7
-46407.2
-45954.6
-45643
-45368.8
-45175.6
-45030.2
-44937
-44880.4
-44854.7
-44848.6
-44853.3
-44858.4
-44853.9
-44828.4
-44771.5
-44668.3
-44511.8
-44272.8
-46878.5
-46278.7
-45974.7
-45612.7
-45368.3
-45146.7
-44989.7
-44867.3
-44785.2
-44729.8
-44697
-44677.2
-44663.2
-44646.1
-44617.7
-44567.4
-44487.7
-44362.7
-44192.2
-43939.5
-46153.8
-45690.2
-45483.7
-45214.4
-45040.2
-44876.4
-44761.3
-44668.8
-44604.8
-44558.2
-44526
-44500.6
-44476.4
-44446
-44403
-44338
-44246
-44111.1
-43938.1
-43686.4
-45391.3
-45059.8
-44951.7
-44776.4
-44675
-44572.7
-44503.7
-44446.1
-44405.6
-44373.4
-44348
-44323.4
-44295.8
-44259.3
-44209.5
-44138.3
-44042.8
-43907.9
-43741.9
-43503.5
-44599
-44404.2
-44391.7
-44311.6
-44284.7
-44246.7
-44227.4
-44208.4
-44195.6
-44182.3
-44168.2
-44149.3
-44123.5
-44086.6
-44036.1
-43965.4
-43873.6
-43747
-43595.6
-43380.2
-43798.9
-43723.1
-43821.1
-43839.7
-43887.8
-43916.5
-43948
-43969.8
-43986.5
-43994.3
-43994
-43983.6
-43962.8
-43929.3
-43882.3
-43817.1
-43734.4
-43622.3
-43491.5
-43306.5
-42979.9
-43059.9
-43246.5
-43360.9
-43487.4
-43584
-43669.4
-43733.6
-43781.9
-43812.3
-43827.2
-43826.9
-43812.9
-43785.1
-43744.5
-43688.4
-43618.8
-43526.1
-43420.5
-43271.6
-42196.6
-42440
-42694.8
-42932.5
-43117.1
-43283.6
-43418.1
-43523.3
-43600.5
-43651.6
-43679.9
-43688.1
-43679.9
-43657.3
-43623.5
-43577.9
-43523.5
-43453.3
-43376.2
-43267.3
-41382
-41745.5
-42134.3
-42460.2
-42748.6
-42985.4
-43178.2
-43325.5
-43432.8
-43503.6
-43543.9
-43559
-43554.9
-43536.7
-43509.4
-43475.1
-43437.9
-43392.8
-43347.3
-43281.1
-40675.5
-41176.1
-41686.1
-42108.5
-42475.1
-42775.2
-43014.6
-43195.2
-43323.2
-43405.1
-43448.9
-43463
-43456.1
-43436
-43410.5
-43384.1
-43362.8
-43343.2
-43331.8
-43308
-39847.2
-40544.9
-41170.1
-41712.1
-42175.4
-42552.1
-42848.3
-43067.2
-43217.8
-43309.4
-43353.7
-43362.5
-43348.3
-43322.7
-43296.8
-43278.4
-43274.9
-43284.3
-43308.6
-43324.4
-67694.6
-67104.6
-66085.1
-64556.3
-62555.8
-60113.4
-57287.1
-54177.5
-50899.8
-47774.7
-64847.5
-64416
-63695.3
-62622.3
-61231.4
-59541.7
-57582.2
-55351.3
-52864.6
-49599.6
-62290.7
-61930.9
-61336.3
-60441
-59268.4
-57831.3
-56174.9
-54326.9
-52430.5
-50101.1
-59963.9
-59692.9
-59260.2
-58607.8
-57752.3
-56693.1
-55449.7
-54003.6
-52430.5
-50494.6
-57813.3
-57596.4
-57256.9
-56741.3
-56062.3
-55222
-54241.4
-53130.6
-51913.6
-50537.3
-55824.6
-55663.2
-55421.5
-55051.5
-54558.1
-53939.8
-53194.6
-52347
-51347
-50353.6
-53952.9
-53831.6
-53658.6
-53390.9
-53029.2
-52577
-52019.4
-51408.5
-50624.3
-49966.6
-52187.3
-52103.6
-51995.3
-51823.8
-51583.2
-51278.7
-50877.5
-50453.2
-49837.2
-49429.8
-50498.8
-50445.5
-50388.8
-50294.7
-50152.6
-49971.1
-49705.3
-49443.5
-48984.4
-48774.7
-48874.7
-48849.2
-48839.9
-48816.1
-48762.3
-48688.6
-48540
-48412.4
-48091.2
-48033.4
-47296.6
-47295.5
-47327.5
-47365.2
-47389.6
-47410.8
-47368.5
-47358.1
-47164.9
-47227.9
-45750
-45771.4
-45842.1
-45936.7
-46033.4
-46140.8
-46196
-46288.5
-46213.8
-46375.7
-44224.5
-44267
-44373.8
-44521.6
-44686.4
-44874
-45021.7
-45208.6
-45246.5
-45492.7
-42699
-42761.8
-42904
-43103.4
-43334.5
-43599.4
-43837.2
-44113.8
-44261.2
-44585
-41178.2
-41261
-41438.2
-41688.5
-41985.4
-42326.6
-42653.7
-43019.2
-43274.1
-43673.2
-39615.1
-39718.3
-39931.6
-40234.4
-40599.4
-41019.4
-41439.5
-41896.1
-42263.6
-42740.5
-38063.8
-38187.8
-38438.1
-38794.8
-39229.7
-39731.2
-40246.4
-40800.8
-41279.7
-41859.4
-36380.1
-36526.8
-36818.1
-37234.5
-37747.4
-38339.5
-38962.1
-39622
-40230.9
-40889
-34802.1
-34972.2
-35305.2
-35782.3
-36374.6
-37059.8
-37791.3
-38562.5
-39299.7
-40055.3
-32824.7
-33023.3
-33408.8
-33962.7
-34656
-35461.5
-36334.5
-37253.1
-38159.3
-39051.5
)
;

boundaryField
{
    left
    {
        type            symmetryPlane;
        value           nonuniform List<scalar> 
30
(
-67694.6
-64847.5
-62290.7
-59963.9
-57813.3
-55824.6
-53952.9
-52187.3
-50498.8
-48874.7
-47296.6
-45750
-44224.5
-42699
-41178.2
-39615.1
-38063.8
-36380.1
-34802.1
-32824.7
-146869
-126891
-115463
-104278
-96356
-89247.4
-83627.2
-78673.1
-74552
-70827.3
)
;
    }
    right
    {
        type            zeroGradient;
    }
    down
    {
        type            symmetryPlane;
        value           nonuniform List<scalar> 
30
(
54203.6
35605.3
23391
12561.2
4408.12
-2624.91
-8323.01
-13289.1
-17437
-21230.7
-24311.9
-27249.8
-29838.4
-32241.9
-34455.8
-36529.8
-38489.9
-40359.6
-42162.7
-43916.7
-45639.5
-47348.6
-49054.5
-50782.6
-52526.5
-54342.3
-56165.8
-58168.9
-60068.3
-62467.4
)
;
    }
    up
    {
        type            zeroGradient;
    }
    hole
    {
        type            zeroGradient;
    }
    frontAndBack
    {
        type            empty;
    }
}


// ************************************************************************* //
