/*--------------------------------*- C++ -*----------------------------------*\
| =========                 |                                                 |
| \\      /  F ield         | foam-extend: Open Source CFD                    |
|  \\    /   O peration     | Version:     4.1                                |
|   \\  /    A nd           | Web:         http://www.foam-extend.org         |
|    \\/     M anipulation  |                                                 |
\*---------------------------------------------------------------------------*/
FoamFile
{
    version     2.0;
    format      ascii;
    class       vectorField;
    location    "1";
    object      solidsCellD_iteration14;
}
// * * * * * * * * * * * * * * * * * * * * * * * * * * * * * * * * * * * * * //


1000
(
(4.52975e-07 -1.4723e-07 0)
(4.31703e-07 -1.39254e-07 0)
(4.19004e-07 -1.35169e-07 0)
(4.12493e-07 -1.34597e-07 0)
(4.10425e-07 -1.3618e-07 0)
(4.11617e-07 -1.39359e-07 0)
(4.15253e-07 -1.43641e-07 0)
(4.20568e-07 -1.48814e-07 0)
(4.27533e-07 -1.54498e-07 0)
(4.3475e-07 -1.60474e-07 0)
(4.10137e-07 -1.61081e-07 0)
(3.87568e-07 -1.56618e-07 0)
(3.73944e-07 -1.54798e-07 0)
(3.66689e-07 -1.55787e-07 0)
(3.63894e-07 -1.58445e-07 0)
(3.64374e-07 -1.6238e-07 0)
(3.67279e-07 -1.67164e-07 0)
(3.7187e-07 -1.72742e-07 0)
(3.77996e-07 -1.7861e-07 0)
(3.84483e-07 -1.85043e-07 0)
(3.65481e-07 -1.74176e-07 0)
(3.42433e-07 -1.73624e-07 0)
(3.28371e-07 -1.7433e-07 0)
(3.20732e-07 -1.76984e-07 0)
(3.1754e-07 -1.80753e-07 0)
(3.17546e-07 -1.85429e-07 0)
(3.19926e-07 -1.90717e-07 0)
(3.23996e-07 -1.9662e-07 0)
(3.29532e-07 -2.02682e-07 0)
(3.35607e-07 -2.09182e-07 0)
(3.19252e-07 -1.86285e-07 0)
(2.96803e-07 -1.89781e-07 0)
(2.82973e-07 -1.93103e-07 0)
(2.75308e-07 -1.97462e-07 0)
(2.71958e-07 -2.02348e-07 0)
(2.71667e-07 -2.07747e-07 0)
(2.7357e-07 -2.13504e-07 0)
(2.77161e-07 -2.19695e-07 0)
(2.82105e-07 -2.2595e-07 0)
(2.87708e-07 -2.32567e-07 0)
(2.71973e-07 -1.97146e-07 0)
(2.50939e-07 -2.04638e-07 0)
(2.37927e-07 -2.10514e-07 0)
(2.30689e-07 -2.16535e-07 0)
(2.27418e-07 -2.22499e-07 0)
(2.26909e-07 -2.28621e-07 0)
(2.28424e-07 -2.34851e-07 0)
(2.31531e-07 -2.4133e-07 0)
(2.3589e-07 -2.4781e-07 0)
(2.4088e-07 -2.54551e-07 0)
(2.23609e-07 -2.06604e-07 0)
(2.05035e-07 -2.17809e-07 0)
(1.9352e-07 -2.26074e-07 0)
(1.87008e-07 -2.3366e-07 0)
(1.83972e-07 -2.40634e-07 0)
(1.83355e-07 -2.47414e-07 0)
(1.84579e-07 -2.54073e-07 0)
(1.87201e-07 -2.60812e-07 0)
(1.90892e-07 -2.67523e-07 0)
(1.95126e-07 -2.74418e-07 0)
(1.74635e-07 -2.14388e-07 0)
(1.59237e-07 -2.28844e-07 0)
(1.49669e-07 -2.39217e-07 0)
(1.44209e-07 -2.48194e-07 0)
(1.41636e-07 -2.56046e-07 0)
(1.41069e-07 -2.63398e-07 0)
(1.42024e-07 -2.7043e-07 0)
(1.44104e-07 -2.7741e-07 0)
(1.47032e-07 -2.84332e-07 0)
(1.50405e-07 -2.91362e-07 0)
(1.25124e-07 -2.20401e-07 0)
(1.13554e-07 -2.37479e-07 0)
(1.06383e-07 -2.49511e-07 0)
(1.02302e-07 -2.59562e-07 0)
(1.00378e-07 -2.68132e-07 0)
(9.99297e-08 -2.75961e-07 0)
(1.00587e-07 -2.8333e-07 0)
(1.02067e-07 -2.9051e-07 0)
(1.04181e-07 -2.97609e-07 0)
(1.06631e-07 -3.04758e-07 0)
(7.5215e-08 -2.24489e-07 0)
(6.80545e-08 -2.43371e-07 0)
(6.36593e-08 -2.56548e-07 0)
(6.11192e-08 -2.67393e-07 0)
(5.98816e-08 -2.76465e-07 0)
(5.9565e-08 -2.84603e-07 0)
(5.99764e-08 -2.92212e-07 0)
(6.09026e-08 -2.99573e-07 0)
(6.21788e-08 -3.06813e-07 0)
(6.36545e-08 -3.1405e-07 0)
(2.51236e-08 -2.2655e-07 0)
(2.27179e-08 -2.46386e-07 0)
(2.1178e-08 -2.60143e-07 0)
(2.03051e-08 -2.71366e-07 0)
(1.99294e-08 -2.80696e-07 0)
(1.9824e-08 -2.89019e-07 0)
(1.99165e-08 -2.96722e-07 0)
(2.02174e-08 -3.04143e-07 0)
(2.0664e-08 -3.11462e-07 0)
(2.11588e-08 -3.18761e-07 0)
(6.98575e-07 -6.6119e-09 0)
(7.03637e-07 -4.77865e-09 0)
(7.07657e-07 -3.67178e-09 0)
(7.12425e-07 -3.07526e-09 0)
(7.18184e-07 -2.80284e-09 0)
(7.25135e-07 -2.77258e-09 0)
(7.3339e-07 -2.92107e-09 0)
(7.42826e-07 -3.13048e-09 0)
(7.53516e-07 -3.44154e-09 0)
(7.65269e-07 -3.82746e-09 0)
(6.93578e-07 -1.99018e-08 0)
(6.97795e-07 -1.45067e-08 0)
(7.01294e-07 -1.11986e-08 0)
(7.05671e-07 -9.48164e-09 0)
(7.11156e-07 -8.78104e-09 0)
(7.17893e-07 -8.65568e-09 0)
(7.26026e-07 -9.04273e-09 0)
(7.35367e-07 -9.77306e-09 0)
(7.45932e-07 -1.07435e-08 0)
(7.57605e-07 -1.1821e-08 0)
(6.83672e-07 -3.32606e-08 0)
(6.86208e-07 -2.46654e-08 0)
(6.88664e-07 -1.94139e-08 0)
(6.92345e-07 -1.65798e-08 0)
(6.97361e-07 -1.54319e-08 0)
(7.03795e-07 -1.53505e-08 0)
(7.11631e-07 -1.60512e-08 0)
(7.20808e-07 -1.724e-08 0)
(7.31138e-07 -1.88185e-08 0)
(7.42649e-07 -2.06103e-08 0)
(6.68971e-07 -4.68534e-08 0)
(6.69115e-07 -3.54876e-08 0)
(6.70037e-07 -2.86505e-08 0)
(6.72736e-07 -2.50029e-08 0)
(6.77065e-07 -2.352e-08 0)
(6.83069e-07 -2.34446e-08 0)
(6.90537e-07 -2.44099e-08 0)
(6.99469e-07 -2.60543e-08 0)
(7.09499e-07 -2.82151e-08 0)
(7.20804e-07 -3.0692e-08 0)
(6.4963e-07 -6.06835e-08 0)
(6.46876e-07 -4.71924e-08 0)
(6.45903e-07 -3.91488e-08 0)
(6.47359e-07 -3.49475e-08 0)
(6.50857e-07 -3.33015e-08 0)
(6.56288e-07 -3.33297e-08 0)
(6.63304e-07 -3.45878e-08 0)
(6.71899e-07 -3.66743e-08 0)
(6.81587e-07 -3.93741e-08 0)
(6.92678e-07 -4.24651e-08 0)
(6.25861e-07 -7.48152e-08 0)
(6.1982e-07 -5.99954e-08 0)
(6.16769e-07 -5.12117e-08 0)
(6.16852e-07 -4.67474e-08 0)
(6.19403e-07 -4.51267e-08 0)
(6.24171e-07 -4.5354e-08 0)
(6.30712e-07 -4.6932e-08 0)
(6.38926e-07 -4.94236e-08 0)
(6.48243e-07 -5.26285e-08 0)
(6.59074e-07 -5.62663e-08 0)
(5.98063e-07 -8.92029e-08 0)
(5.88495e-07 -7.39667e-08 0)
(5.83206e-07 -6.49917e-08 0)
(5.81843e-07 -6.05837e-08 0)
(5.83405e-07 -5.91572e-08 0)
(5.87494e-07 -5.96867e-08 0)
(5.93542e-07 -6.16168e-08 0)
(6.0136e-07 -6.44599e-08 0)
(6.10303e-07 -6.80935e-08 0)
(6.20873e-07 -7.21627e-08 0)
(5.66473e-07 -1.03742e-07 0)
(5.53436e-07 -8.90523e-08 0)
(5.45965e-07 -8.04776e-08 0)
(5.43151e-07 -7.65024e-08 0)
(5.43775e-07 -7.54816e-08 0)
(5.47188e-07 -7.6445e-08 0)
(5.52728e-07 -7.87946e-08 0)
(5.60133e-07 -8.19986e-08 0)
(5.68719e-07 -8.60168e-08 0)
(5.78953e-07 -9.04022e-08 0)
(5.315e-07 -1.18368e-07 0)
(5.15237e-07 -1.05106e-07 0)
(5.05713e-07 -9.75461e-08 0)
(5.01501e-07 -9.43688e-08 0)
(5.01186e-07 -9.39777e-08 0)
(5.03847e-07 -9.54861e-08 0)
(5.08817e-07 -9.83084e-08 0)
(5.15732e-07 -1.01881e-07 0)
(5.23981e-07 -1.06224e-07 0)
(5.33821e-07 -1.10668e-07 0)
(4.93548e-07 -1.32943e-07 0)
(4.74541e-07 -1.21936e-07 0)
(4.63227e-07 -1.15894e-07 0)
(4.57782e-07 -1.13882e-07 0)
(4.56583e-07 -1.14372e-07 0)
(4.58595e-07 -1.16596e-07 0)
(4.63142e-07 -1.20054e-07 0)
(4.69589e-07 -1.2423e-07 0)
(4.77664e-07 -1.29056e-07 0)
(4.86744e-07 -1.34023e-07 0)
(7.78067e-07 -4.16471e-09 0)
(7.9193e-07 -4.33134e-09 0)
(8.06596e-07 -4.46965e-09 0)
(8.21999e-07 -4.58944e-09 0)
(8.38066e-07 -4.69688e-09 0)
(8.54773e-07 -4.78646e-09 0)
(8.72033e-07 -4.83294e-09 0)
(8.89771e-07 -4.86211e-09 0)
(9.07992e-07 -4.89999e-09 0)
(9.26669e-07 -4.92595e-09 0)
(9.45734e-07 -4.92366e-09 0)
(9.65148e-07 -4.89178e-09 0)
(9.84873e-07 -4.83113e-09 0)
(1.00487e-06 -4.7483e-09 0)
(1.02512e-06 -4.64714e-09 0)
(1.04559e-06 -4.52026e-09 0)
(1.06624e-06 -4.35645e-09 0)
(1.08702e-06 -4.14587e-09 0)
(1.1079e-06 -3.88939e-09 0)
(1.12881e-06 -3.5875e-09 0)
(7.70713e-07 -1.27614e-08 0)
(7.85161e-07 -1.32184e-08 0)
(8.00351e-07 -1.36136e-08 0)
(8.16239e-07 -1.39505e-08 0)
(8.32746e-07 -1.42061e-08 0)
(8.49819e-07 -1.44205e-08 0)
(8.67424e-07 -1.45927e-08 0)
(8.85513e-07 -1.47332e-08 0)
(9.04059e-07 -1.4835e-08 0)
(9.23009e-07 -1.48597e-08 0)
(9.42318e-07 -1.48138e-08 0)
(9.6197e-07 -1.47158e-08 0)
(9.8194e-07 -1.45584e-08 0)
(1.00218e-06 -1.43279e-08 0)
(1.02266e-06 -1.40139e-08 0)
(1.04335e-06 -1.36067e-08 0)
(1.0642e-06 -1.30928e-08 0)
(1.08518e-06 -1.24572e-08 0)
(1.10625e-06 -1.16912e-08 0)
(1.1273e-06 -1.07897e-08 0)
(7.56365e-07 -2.21064e-08 0)
(7.71997e-07 -2.2737e-08 0)
(7.88226e-07 -2.32642e-08 0)
(8.04986e-07 -2.37354e-08 0)
(8.22301e-07 -2.41143e-08 0)
(8.40145e-07 -2.44426e-08 0)
(8.58463e-07 -2.4695e-08 0)
(8.77174e-07 -2.4873e-08 0)
(8.96286e-07 -2.49761e-08 0)
(9.15756e-07 -2.49793e-08 0)
(9.35564e-07 -2.49003e-08 0)
(9.55692e-07 -2.47474e-08 0)
(9.76097e-07 -2.44889e-08 0)
(9.96735e-07 -2.40979e-08 0)
(1.01758e-06 -2.3566e-08 0)
(1.03864e-06 -2.28847e-08 0)
(1.05986e-06 -2.20314e-08 0)
(1.08122e-06 -2.09833e-08 0)
(1.10267e-06 -1.97169e-08 0)
(1.12413e-06 -1.82214e-08 0)
(7.35377e-07 -3.25905e-08 0)
(7.52642e-07 -3.32032e-08 0)
(7.70371e-07 -3.37021e-08 0)
(7.8848e-07 -3.41786e-08 0)
(8.07034e-07 -3.45758e-08 0)
(8.25968e-07 -3.49317e-08 0)
(8.45285e-07 -3.51916e-08 0)
(8.64915e-07 -3.53693e-08 0)
(8.84911e-07 -3.54598e-08 0)
(9.05211e-07 -3.54328e-08 0)
(9.25787e-07 -3.52949e-08 0)
(9.46615e-07 -3.50416e-08 0)
(9.67666e-07 -3.46393e-08 0)
(9.88917e-07 -3.40676e-08 0)
(1.01036e-06 -3.33269e-08 0)
(1.03197e-06 -3.23896e-08 0)
(1.05373e-06 -3.12264e-08 0)
(1.07562e-06 -2.97959e-08 0)
(1.09757e-06 -2.80537e-08 0)
(1.11955e-06 -2.60153e-08 0)
(7.08377e-07 -4.45459e-08 0)
(7.2776e-07 -4.489e-08 0)
(7.47412e-07 -4.51826e-08 0)
(7.67194e-07 -4.5536e-08 0)
(7.87293e-07 -4.58275e-08 0)
(8.07629e-07 -4.61106e-08 0)
(8.28245e-07 -4.63002e-08 0)
(8.49089e-07 -4.64247e-08 0)
(8.7018e-07 -4.64465e-08 0)
(8.91487e-07 -4.63302e-08 0)
(9.13016e-07 -4.609e-08 0)
(9.34759e-07 -4.57155e-08 0)
(9.56683e-07 -4.51644e-08 0)
(9.78765e-07 -4.44113e-08 0)
(1.001e-06 -4.34535e-08 0)
(1.02336e-06 -4.22523e-08 0)
(1.04585e-06 -4.07762e-08 0)
(1.06842e-06 -3.89768e-08 0)
(1.09107e-06 -3.67845e-08 0)
(1.11372e-06 -3.42473e-08 0)
(6.76038e-07 -5.82813e-08 0)
(6.97837e-07 -5.80449e-08 0)
(7.19785e-07 -5.78682e-08 0)
(7.41618e-07 -5.79151e-08 0)
(7.63612e-07 -5.79641e-08 0)
(7.85677e-07 -5.80691e-08 0)
(8.07807e-07 -5.80855e-08 0)
(8.30087e-07 -5.80528e-08 0)
(8.52511e-07 -5.79371e-08 0)
(8.75072e-07 -5.76953e-08 0)
(8.97784e-07 -5.73314e-08 0)
(9.20634e-07 -5.68194e-08 0)
(9.43598e-07 -5.61047e-08 0)
(9.66655e-07 -5.51611e-08 0)
(9.89824e-07 -5.39761e-08 0)
(1.01307e-06 -5.25152e-08 0)
(1.03644e-06 -5.07327e-08 0)
(1.05984e-06 -4.85894e-08 0)
(1.08333e-06 -4.59955e-08 0)
(1.10681e-06 -4.29909e-08 0)
(6.39295e-07 -7.38745e-08 0)
(6.63794e-07 -7.27795e-08 0)
(6.88304e-07 -7.1901e-08 0)
(7.12421e-07 -7.14343e-08 0)
(7.36475e-07 -7.10596e-08 0)
(7.60451e-07 -7.08184e-08 0)
(7.84337e-07 -7.05717e-08 0)
(8.08239e-07 -7.03135e-08 0)
(8.32186e-07 -7.00069e-08 0)
(8.56194e-07 -6.96035e-08 0)
(8.80268e-07 -6.90808e-08 0)
(9.0439e-07 -6.83955e-08 0)
(9.28547e-07 -6.74891e-08 0)
(9.52744e-07 -6.63405e-08 0)
(9.77003e-07 -6.49291e-08 0)
(1.00131e-06 -6.32224e-08 0)
(1.0257e-06 -6.11568e-08 0)
(1.0501e-06 -5.86904e-08 0)
(1.07456e-06 -5.57274e-08 0)
(1.09899e-06 -5.22912e-08 0)
(5.98872e-07 -9.1475e-08 0)
(6.26179e-07 -8.91042e-08 0)
(6.53438e-07 -8.72223e-08 0)
(6.80035e-07 -8.59931e-08 0)
(7.06416e-07 -8.5047e-08 0)
(7.32463e-07 -8.43325e-08 0)
(7.58345e-07 -8.37272e-08 0)
(7.84079e-07 -8.31782e-08 0)
(8.09725e-07 -8.26263e-08 0)
(8.35318e-07 -8.2013e-08 0)
(8.60869e-07 -8.12917e-08 0)
(8.86379e-07 -8.04068e-08 0)
(9.11857e-07 -7.93005e-08 0)
(9.37334e-07 -7.79504e-08 0)
(9.6283e-07 -7.6327e-08 0)
(9.88345e-07 -7.43893e-08 0)
(1.01388e-06 -7.20632e-08 0)
(1.03941e-06 -6.92959e-08 0)
(1.06495e-06 -6.59849e-08 0)
(1.09045e-06 -6.21464e-08 0)
(5.55562e-07 -1.10984e-07 0)
(5.8578e-07 -1.07131e-07 0)
(6.15913e-07 -1.04104e-07 0)
(6.4512e-07 -1.0188e-07 0)
(6.7394e-07 -1.00144e-07 0)
(7.02238e-07 -9.87813e-08 0)
(7.30212e-07 -9.76645e-08 0)
(7.57894e-07 -9.67004e-08 0)
(7.85365e-07 -9.58154e-08 0)
(8.12663e-07 -9.49259e-08 0)
(8.39811e-07 -9.39623e-08 0)
(8.66835e-07 -9.2859e-08 0)
(8.93769e-07 -9.15546e-08 0)
(9.20656e-07 -9.00157e-08 0)
(9.47514e-07 -8.8198e-08 0)
(9.74351e-07 -8.60435e-08 0)
(1.00116e-06 -8.3473e-08 0)
(1.02791e-06 -8.04194e-08 0)
(1.05466e-06 -7.67897e-08 0)
(1.08134e-06 -7.2584e-08 0)
(5.10368e-07 -1.32285e-07 0)
(5.44252e-07 -1.25938e-07 0)
(5.7751e-07 -1.2146e-07 0)
(6.09546e-07 -1.18107e-07 0)
(6.4079e-07 -1.15562e-07 0)
(6.71385e-07 -1.13549e-07 0)
(7.01435e-07 -1.11906e-07 0)
(7.31059e-07 -1.1051e-07 0)
(7.60354e-07 -1.09275e-07 0)
(7.89366e-07 -1.08096e-07 0)
(8.18133e-07 -1.06888e-07 0)
(8.46701e-07 -1.05578e-07 0)
(8.7512e-07 -1.04094e-07 0)
(9.03437e-07 -1.02389e-07 0)
(9.31668e-07 -1.00405e-07 0)
(9.59834e-07 -9.8068e-08 0)
(9.87942e-07 -9.53007e-08 0)
(1.01597e-06 -9.20002e-08 0)
(1.04398e-06 -8.80992e-08 0)
(1.07193e-06 -8.35566e-08 0)
(4.74222e-07 -1.55584e-07 0)
(5.115e-07 -1.46401e-07 0)
(5.47271e-07 -1.40327e-07 0)
(5.81765e-07 -1.35576e-07 0)
(6.15094e-07 -1.31972e-07 0)
(6.47548e-07 -1.29112e-07 0)
(6.79247e-07 -1.26781e-07 0)
(7.1037e-07 -1.24824e-07 0)
(7.41024e-07 -1.23117e-07 0)
(7.71273e-07 -1.2153e-07 0)
(8.01181e-07 -1.19971e-07 0)
(8.30818e-07 -1.18358e-07 0)
(8.60242e-07 -1.16611e-07 0)
(8.89502e-07 -1.1467e-07 0)
(9.18611e-07 -1.12467e-07 0)
(9.47607e-07 -1.0991e-07 0)
(9.76493e-07 -1.06942e-07 0)
(1.0053e-06 -1.03417e-07 0)
(1.03406e-06 -9.92837e-08 0)
(1.06275e-06 -9.44494e-08 0)
(4.55044e-07 -1.75923e-07 0)
(4.92878e-07 -1.66322e-07 0)
(5.29109e-07 -1.5923e-07 0)
(5.64379e-07 -1.53507e-07 0)
(5.98577e-07 -1.48991e-07 0)
(6.31887e-07 -1.45327e-07 0)
(6.64427e-07 -1.42294e-07 0)
(6.96334e-07 -1.39726e-07 0)
(7.27696e-07 -1.3747e-07 0)
(7.58583e-07 -1.35393e-07 0)
(7.89073e-07 -1.334e-07 0)
(8.1924e-07 -1.31403e-07 0)
(8.49141e-07 -1.29312e-07 0)
(8.7882e-07 -1.27058e-07 0)
(9.08292e-07 -1.24572e-07 0)
(9.3762e-07 -1.21742e-07 0)
(9.66782e-07 -1.18538e-07 0)
(9.95851e-07 -1.14791e-07 0)
(1.02484e-06 -1.10444e-07 0)
(1.05371e-06 -1.05378e-07 0)
(4.40116e-07 -1.9461e-07 0)
(4.77512e-07 -1.85035e-07 0)
(5.13855e-07 -1.77523e-07 0)
(5.49425e-07 -1.71241e-07 0)
(5.84076e-07 -1.66076e-07 0)
(6.17906e-07 -1.61759e-07 0)
(6.51e-07 -1.58108e-07 0)
(6.83439e-07 -1.54959e-07 0)
(7.153e-07 -1.52165e-07 0)
(7.46652e-07 -1.496e-07 0)
(7.77575e-07 -1.47172e-07 0)
(8.08139e-07 -1.44786e-07 0)
(8.38396e-07 -1.4234e-07 0)
(8.68389e-07 -1.39768e-07 0)
(8.98133e-07 -1.36997e-07 0)
(9.27708e-07 -1.33906e-07 0)
(9.5709e-07 -1.30474e-07 0)
(9.86357e-07 -1.26532e-07 0)
(1.01551e-06 -1.22007e-07 0)
(1.04455e-06 -1.16783e-07 0)
(4.27435e-07 -2.12827e-07 0)
(4.64336e-07 -2.03399e-07 0)
(5.00456e-07 -1.95618e-07 0)
(5.36028e-07 -1.8889e-07 0)
(5.70812e-07 -1.83178e-07 0)
(6.04908e-07 -1.78288e-07 0)
(6.38324e-07 -1.74072e-07 0)
(6.71111e-07 -1.70377e-07 0)
(7.03329e-07 -1.6707e-07 0)
(7.35039e-07 -1.64036e-07 0)
(7.66306e-07 -1.61185e-07 0)
(7.97193e-07 -1.58416e-07 0)
(8.27748e-07 -1.55624e-07 0)
(8.58012e-07 -1.52742e-07 0)
(8.88005e-07 -1.49695e-07 0)
(9.17798e-07 -1.46363e-07 0)
(9.47382e-07 -1.42725e-07 0)
(9.76838e-07 -1.38613e-07 0)
(1.00614e-06 -1.33954e-07 0)
(1.03538e-06 -1.28647e-07 0)
(4.16636e-07 -2.30171e-07 0)
(4.52969e-07 -2.21006e-07 0)
(4.88729e-07 -2.13172e-07 0)
(5.24102e-07 -2.06197e-07 0)
(5.58842e-07 -2.00105e-07 0)
(5.93015e-07 -1.94774e-07 0)
(6.26573e-07 -1.90079e-07 0)
(6.59556e-07 -1.85902e-07 0)
(6.92007e-07 -1.82128e-07 0)
(7.2397e-07 -1.78656e-07 0)
(7.55494e-07 -1.75404e-07 0)
(7.86628e-07 -1.72267e-07 0)
(8.17416e-07 -1.69138e-07 0)
(8.47898e-07 -1.65961e-07 0)
(8.78094e-07 -1.62652e-07 0)
(9.08075e-07 -1.591e-07 0)
(9.37831e-07 -1.55278e-07 0)
(9.67446e-07 -1.51022e-07 0)
(9.96904e-07 -1.46273e-07 0)
(1.02634e-06 -1.40948e-07 0)
(4.07269e-07 -2.46926e-07 0)
(4.43041e-07 -2.38042e-07 0)
(4.78411e-07 -2.30236e-07 0)
(5.13474e-07 -2.23122e-07 0)
(5.48063e-07 -2.16767e-07 0)
(5.82169e-07 -2.11089e-07 0)
(6.15741e-07 -2.05998e-07 0)
(6.48806e-07 -2.01411e-07 0)
(6.81387e-07 -1.97229e-07 0)
(7.13511e-07 -1.93363e-07 0)
(7.45211e-07 -1.89741e-07 0)
(7.76518e-07 -1.86261e-07 0)
(8.07476e-07 -1.82816e-07 0)
(8.38121e-07 -1.79365e-07 0)
(8.68471e-07 -1.75808e-07 0)
(8.98599e-07 -1.72064e-07 0)
(9.28496e-07 -1.68084e-07 0)
(9.58245e-07 -1.6372e-07 0)
(9.87863e-07 -1.58927e-07 0)
(1.01744e-06 -1.53631e-07 0)
(3.99119e-07 -2.63123e-07 0)
(4.34353e-07 -2.54534e-07 0)
(4.69304e-07 -2.46816e-07 0)
(5.04023e-07 -2.39651e-07 0)
(5.38377e-07 -2.33127e-07 0)
(5.7232e-07 -2.27186e-07 0)
(6.05813e-07 -2.2178e-07 0)
(6.38869e-07 -2.16854e-07 0)
(6.7149e-07 -2.12319e-07 0)
(7.03687e-07 -2.08102e-07 0)
(7.35482e-07 -2.04144e-07 0)
(7.66892e-07 -2.00346e-07 0)
(7.97957e-07 -1.96611e-07 0)
(8.28709e-07 -1.92911e-07 0)
(8.5917e-07 -1.89131e-07 0)
(8.89405e-07 -1.85217e-07 0)
(9.19414e-07 -1.81109e-07 0)
(9.49277e-07 -1.76674e-07 0)
(9.79037e-07 -1.71881e-07 0)
(1.00871e-06 -1.66641e-07 0)
(3.91983e-07 -2.78856e-07 0)
(4.26737e-07 -2.70547e-07 0)
(4.6125e-07 -2.62948e-07 0)
(4.9561e-07 -2.55786e-07 0)
(5.29663e-07 -2.49155e-07 0)
(5.63381e-07 -2.43021e-07 0)
(5.96728e-07 -2.37372e-07 0)
(6.29699e-07 -2.3217e-07 0)
(6.62281e-07 -2.27334e-07 0)
(6.94475e-07 -2.22811e-07 0)
(7.26296e-07 -2.18554e-07 0)
(7.5775e-07 -2.1447e-07 0)
(7.88873e-07 -2.10472e-07 0)
(8.19691e-07 -2.06548e-07 0)
(8.50229e-07 -2.02574e-07 0)
(8.80547e-07 -1.98517e-07 0)
(9.10647e-07 -1.94314e-07 0)
(9.40617e-07 -1.89848e-07 0)
(9.70472e-07 -1.85084e-07 0)
(1.00024e-06 -1.79928e-07 0)
(3.8568e-07 -2.94183e-07 0)
(4.19971e-07 -2.86134e-07 0)
(4.54065e-07 -2.78665e-07 0)
(4.88045e-07 -2.71538e-07 0)
(5.21773e-07 -2.64845e-07 0)
(5.5524e-07 -2.58577e-07 0)
(5.88399e-07 -2.52743e-07 0)
(6.21237e-07 -2.47319e-07 0)
(6.53725e-07 -2.42231e-07 0)
(6.85865e-07 -2.37445e-07 0)
(7.17665e-07 -2.32927e-07 0)
(7.49122e-07 -2.28593e-07 0)
(7.80269e-07 -2.24364e-07 0)
(8.11123e-07 -2.20244e-07 0)
(8.41713e-07 -2.16107e-07 0)
(8.72095e-07 -2.11935e-07 0)
(9.02271e-07 -2.07672e-07 0)
(9.32329e-07 -2.03202e-07 0)
(9.62237e-07 -1.9849e-07 0)
(9.92119e-07 -1.9346e-07 0)
(3.80065e-07 -3.09151e-07 0)
(4.13899e-07 -3.01345e-07 0)
(4.476e-07 -2.94006e-07 0)
(4.81199e-07 -2.86931e-07 0)
(5.14613e-07 -2.80212e-07 0)
(5.47823e-07 -2.73856e-07 0)
(5.80773e-07 -2.67882e-07 0)
(6.1345e-07 -2.62278e-07 0)
(6.45811e-07 -2.56982e-07 0)
(6.77864e-07 -2.51975e-07 0)
(7.09606e-07 -2.47234e-07 0)
(7.41033e-07 -2.42682e-07 0)
(7.72173e-07 -2.38255e-07 0)
(8.03038e-07 -2.33968e-07 0)
(8.33654e-07 -2.29699e-07 0)
(8.64076e-07 -2.25442e-07 0)
(8.94302e-07 -2.21147e-07 0)
(9.24405e-07 -2.16695e-07 0)
(9.54363e-07 -2.12062e-07 0)
(9.84333e-07 -2.07203e-07 0)
(3.74992e-07 -3.23809e-07 0)
(4.08405e-07 -3.16224e-07 0)
(4.4173e-07 -3.09011e-07 0)
(4.7498e-07 -3.02e-07 0)
(5.08103e-07 -2.95285e-07 0)
(5.41057e-07 -2.88871e-07 0)
(5.73785e-07 -2.82791e-07 0)
(6.06283e-07 -2.77043e-07 0)
(6.38495e-07 -2.71576e-07 0)
(6.70436e-07 -2.66382e-07 0)
(7.02093e-07 -2.61453e-07 0)
(7.33463e-07 -2.56715e-07 0)
(7.64574e-07 -2.5212e-07 0)
(7.95431e-07 -2.47693e-07 0)
(8.26057e-07 -2.43318e-07 0)
(8.56499e-07 -2.39001e-07 0)
(8.8675e-07 -2.34692e-07 0)
(9.16862e-07 -2.30278e-07 0)
(9.46891e-07 -2.25759e-07 0)
(9.76878e-07 -2.21094e-07 0)
(3.7036e-07 -3.38198e-07 0)
(4.03395e-07 -3.30814e-07 0)
(4.36371e-07 -3.23723e-07 0)
(4.69312e-07 -3.16787e-07 0)
(5.02156e-07 -3.1009e-07 0)
(5.34852e-07 -3.03636e-07 0)
(5.67351e-07 -2.97476e-07 0)
(5.99659e-07 -2.91612e-07 0)
(6.31715e-07 -2.86005e-07 0)
(6.63536e-07 -2.80654e-07 0)
(6.95104e-07 -2.75564e-07 0)
(7.26416e-07 -2.70669e-07 0)
(7.57495e-07 -2.65933e-07 0)
(7.88343e-07 -2.61391e-07 0)
(8.18971e-07 -2.56936e-07 0)
(8.49422e-07 -2.52577e-07 0)
(8.79678e-07 -2.48268e-07 0)
(9.09807e-07 -2.43917e-07 0)
(9.39877e-07 -2.39543e-07 0)
(9.69875e-07 -2.35075e-07 0)
(3.66125e-07 -3.52353e-07 0)
(3.98814e-07 -3.45152e-07 0)
(4.31475e-07 -3.38183e-07 0)
(4.64123e-07 -3.31324e-07 0)
(4.96689e-07 -3.24646e-07 0)
(5.29131e-07 -3.18163e-07 0)
(5.61413e-07 -3.11944e-07 0)
(5.93539e-07 -3.05987e-07 0)
(6.25458e-07 -3.00269e-07 0)
(6.57172e-07 -2.9479e-07 0)
(6.88662e-07 -2.89569e-07 0)
(7.19918e-07 -2.84545e-07 0)
(7.50959e-07 -2.79694e-07 0)
(7.81782e-07 -2.75059e-07 0)
(8.12394e-07 -2.70539e-07 0)
(8.42833e-07 -2.66149e-07 0)
(8.73074e-07 -2.61855e-07 0)
(9.03229e-07 -2.5759e-07 0)
(9.33262e-07 -2.53373e-07 0)
(9.63299e-07 -2.49128e-07 0)
(3.6223e-07 -3.663e-07 0)
(3.94604e-07 -3.59276e-07 0)
(4.26972e-07 -3.52419e-07 0)
(4.59331e-07 -3.45626e-07 0)
(4.91638e-07 -3.38969e-07 0)
(5.23851e-07 -3.32472e-07 0)
(5.55953e-07 -3.26214e-07 0)
(5.87907e-07 -3.20193e-07 0)
(6.197e-07 -3.14389e-07 0)
(6.51304e-07 -3.08803e-07 0)
(6.82708e-07 -3.03466e-07 0)
(7.13903e-07 -2.98328e-07 0)
(7.44903e-07 -2.93374e-07 0)
(7.75699e-07 -2.88657e-07 0)
(8.06288e-07 -2.8408e-07 0)
(8.36706e-07 -2.79667e-07 0)
(8.66935e-07 -2.75404e-07 0)
(8.97082e-07 -2.71237e-07 0)
(9.27079e-07 -2.67177e-07 0)
(9.57113e-07 -2.63205e-07 0)
(3.58587e-07 -3.80075e-07 0)
(3.90667e-07 -3.73218e-07 0)
(4.22757e-07 -3.66452e-07 0)
(4.54852e-07 -3.59719e-07 0)
(4.86938e-07 -3.5309e-07 0)
(5.18945e-07 -3.46596e-07 0)
(5.50885e-07 -3.4031e-07 0)
(5.82683e-07 -3.34237e-07 0)
(6.14361e-07 -3.28355e-07 0)
(6.45882e-07 -3.22677e-07 0)
(6.77232e-07 -3.17247e-07 0)
(7.08393e-07 -3.12017e-07 0)
(7.39373e-07 -3.06979e-07 0)
(7.70157e-07 -3.0219e-07 0)
(8.00729e-07 -2.97561e-07 0)
(8.3113e-07 -2.93129e-07 0)
(8.61361e-07 -2.88904e-07 0)
(8.91459e-07 -2.8484e-07 0)
(9.21471e-07 -2.8096e-07 0)
(9.51466e-07 -2.77263e-07 0)
(3.55092e-07 -3.93714e-07 0)
(3.86899e-07 -3.86992e-07 0)
(4.1874e-07 -3.80307e-07 0)
(4.50613e-07 -3.73636e-07 0)
(4.82506e-07 -3.67041e-07 0)
(5.14344e-07 -3.60559e-07 0)
(5.46146e-07 -3.5425e-07 0)
(5.77845e-07 -3.48141e-07 0)
(6.09428e-07 -3.42202e-07 0)
(6.40874e-07 -3.3645e-07 0)
(6.72175e-07 -3.30939e-07 0)
(7.0331e-07 -3.25628e-07 0)
(7.34275e-07 -3.20511e-07 0)
(7.65047e-07 -3.15645e-07 0)
(7.95616e-07 -3.10957e-07 0)
(8.26023e-07 -3.06514e-07 0)
(8.56251e-07 -3.0233e-07 0)
(8.86319e-07 -2.98356e-07 0)
(9.16315e-07 -2.9467e-07 0)
(9.46302e-07 -2.91265e-07 0)
(3.5165e-07 -4.07245e-07 0)
(3.8323e-07 -4.00634e-07 0)
(4.14851e-07 -3.94018e-07 0)
(4.46543e-07 -3.87414e-07 0)
(4.78264e-07 -3.80851e-07 0)
(5.09984e-07 -3.74381e-07 0)
(5.41658e-07 -3.68065e-07 0)
(5.73273e-07 -3.61918e-07 0)
(6.04795e-07 -3.55923e-07 0)
(6.36208e-07 -3.50112e-07 0)
(6.67496e-07 -3.44538e-07 0)
(6.9863e-07 -3.3915e-07 0)
(7.29602e-07 -3.33948e-07 0)
(7.6039e-07 -3.29012e-07 0)
(7.90985e-07 -3.24284e-07 0)
(8.21434e-07 -3.1982e-07 0)
(8.51665e-07 -3.15645e-07 0)
(8.81766e-07 -3.1176e-07 0)
(9.11695e-07 -3.0827e-07 0)
(9.41673e-07 -3.05158e-07 0)
(3.48228e-07 -4.20668e-07 0)
(3.79589e-07 -4.14175e-07 0)
(4.11037e-07 -4.07626e-07 0)
(4.42586e-07 -4.01076e-07 0)
(4.7419e-07 -3.94561e-07 0)
(5.05805e-07 -3.88099e-07 0)
(5.374e-07 -3.81768e-07 0)
(5.68956e-07 -3.75602e-07 0)
(6.00446e-07 -3.69575e-07 0)
(6.31857e-07 -3.63711e-07 0)
(6.63157e-07 -3.5807e-07 0)
(6.94308e-07 -3.52614e-07 0)
(7.25314e-07 -3.47343e-07 0)
(7.5617e-07 -3.42332e-07 0)
(7.86848e-07 -3.3755e-07 0)
(8.17347e-07 -3.33062e-07 0)
(8.47612e-07 -3.28882e-07 0)
(8.77794e-07 -3.2505e-07 0)
(9.07759e-07 -3.21736e-07 0)
(9.37666e-07 -3.18951e-07 0)
(3.44723e-07 -4.3406e-07 0)
(3.75887e-07 -4.27642e-07 0)
(4.07223e-07 -4.21159e-07 0)
(4.38659e-07 -4.14668e-07 0)
(4.70171e-07 -4.08174e-07 0)
(5.01707e-07 -4.01725e-07 0)
(5.33259e-07 -3.9539e-07 0)
(5.64804e-07 -3.89203e-07 0)
(5.96304e-07 -3.83145e-07 0)
(6.27724e-07 -3.77243e-07 0)
(6.59053e-07 -3.71543e-07 0)
(6.90277e-07 -3.6601e-07 0)
(7.21382e-07 -3.60675e-07 0)
(7.52323e-07 -3.55625e-07 0)
(7.831e-07 -3.5077e-07 0)
(8.13736e-07 -3.46195e-07 0)
(8.44176e-07 -3.4202e-07 0)
(8.74419e-07 -3.38225e-07 0)
(9.04486e-07 -3.34999e-07 0)
(9.34404e-07 -3.32503e-07 0)
(3.41138e-07 -4.47387e-07 0)
(3.72185e-07 -4.41061e-07 0)
(4.03417e-07 -4.34646e-07 0)
(4.3477e-07 -4.28195e-07 0)
(4.66215e-07 -4.21723e-07 0)
(4.97732e-07 -4.15281e-07 0)
(5.29291e-07 -4.08959e-07 0)
(5.60849e-07 -4.02776e-07 0)
(5.92378e-07 -3.96684e-07 0)
(6.23868e-07 -3.90722e-07 0)
(6.55289e-07 -3.8499e-07 0)
(6.86598e-07 -3.79436e-07 0)
(7.17815e-07 -3.74025e-07 0)
(7.48914e-07 -3.6889e-07 0)
(7.79847e-07 -3.64005e-07 0)
(8.10654e-07 -3.59374e-07 0)
(8.41346e-07 -3.55141e-07 0)
(8.71798e-07 -3.51298e-07 0)
(9.02101e-07 -3.48091e-07 0)
(9.32129e-07 -3.45771e-07 0)
(2.12461e-08 -3.26114e-07 0)
(6.38993e-08 -3.21619e-07 0)
(1.06935e-07 -3.12732e-07 0)
(1.50635e-07 -2.99916e-07 0)
(1.9509e-07 -2.83653e-07 0)
(2.40364e-07 -2.64543e-07 0)
(2.86451e-07 -2.43371e-07 0)
(3.33219e-07 -2.20773e-07 0)
(3.80874e-07 -1.97436e-07 0)
(4.28744e-07 -1.73727e-07 0)
(2.08135e-08 -3.33817e-07 0)
(6.25902e-08 -3.29692e-07 0)
(1.04631e-07 -3.21542e-07 0)
(1.47189e-07 -3.09764e-07 0)
(1.90324e-07 -2.94773e-07 0)
(2.34035e-07 -2.77072e-07 0)
(2.78364e-07 -2.57312e-07 0)
(3.22997e-07 -2.36123e-07 0)
(3.68168e-07 -2.14037e-07 0)
(4.12762e-07 -1.92073e-07 0)
(2.03768e-08 -3.41646e-07 0)
(6.12644e-08 -3.37868e-07 0)
(1.02353e-07 -3.30377e-07 0)
(1.43793e-07 -3.19525e-07 0)
(1.8569e-07 -3.05688e-07 0)
(2.27965e-07 -2.89318e-07 0)
(2.70699e-07 -2.70966e-07 0)
(3.13594e-07 -2.51224e-07 0)
(3.56881e-07 -2.30465e-07 0)
(3.99572e-07 -2.09906e-07 0)
(1.99988e-08 -3.49614e-07 0)
(6.00776e-08 -3.46118e-07 0)
(1.0036e-07 -3.39198e-07 0)
(1.4086e-07 -3.29156e-07 0)
(1.81718e-07 -3.16334e-07 0)
(2.2282e-07 -3.01128e-07 0)
(2.64235e-07 -2.84034e-07 0)
(3.05678e-07 -2.65623e-07 0)
(3.47286e-07 -2.46214e-07 0)
(3.88305e-07 -2.27053e-07 0)
(1.96697e-08 -3.57726e-07 0)
(5.90064e-08 -3.54499e-07 0)
(9.8534e-08 -3.48108e-07 0)
(1.38191e-07 -3.38805e-07 0)
(1.78114e-07 -3.26899e-07 0)
(2.18186e-07 -3.12791e-07 0)
(2.58463e-07 -2.96898e-07 0)
(2.98707e-07 -2.79708e-07 0)
(3.38958e-07 -2.61542e-07 0)
(3.78648e-07 -2.4357e-07 0)
(1.93452e-08 -3.65985e-07 0)
(5.80391e-08 -3.62981e-07 0)
(9.68675e-08 -3.57046e-07 0)
(1.35789e-07 -3.48424e-07 0)
(1.74896e-07 -3.3735e-07 0)
(2.14107e-07 -3.24225e-07 0)
(2.53387e-07 -3.09432e-07 0)
(2.92583e-07 -2.93383e-07 0)
(3.31672e-07 -2.76404e-07 0)
(3.70225e-07 -2.59565e-07 0)
(1.90345e-08 -3.74375e-07 0)
(5.71373e-08 -3.71589e-07 0)
(9.53247e-08 -3.66068e-07 0)
(1.33598e-07 -3.58063e-07 0)
(1.71959e-07 -3.47755e-07 0)
(2.10407e-07 -3.35531e-07 0)
(2.48849e-07 -3.2175e-07 0)
(2.87154e-07 -3.0676e-07 0)
(3.25272e-07 -2.90884e-07 0)
(3.62874e-07 -2.75089e-07 0)
(1.8773e-08 -3.82897e-07 0)
(5.6301e-08 -3.8031e-07 0)
(9.39e-08 -3.75168e-07 0)
(1.31582e-07 -3.67723e-07 0)
(1.69289e-07 -3.58121e-07 0)
(2.07043e-07 -3.46718e-07 0)
(2.44749e-07 -3.33871e-07 0)
(2.823e-07 -3.19873e-07 0)
(3.19611e-07 -3.05028e-07 0)
(3.56428e-07 -2.90209e-07 0)
(1.85294e-08 -3.91556e-07 0)
(5.55148e-08 -3.89146e-07 0)
(9.25804e-08 -3.84351e-07 0)
(1.29704e-07 -3.77417e-07 0)
(1.66827e-07 -3.68474e-07 0)
(2.03976e-07 -3.57824e-07 0)
(2.41027e-07 -3.45837e-07 0)
(2.77922e-07 -3.32765e-07 0)
(3.14556e-07 -3.18883e-07 0)
(3.50721e-07 -3.04971e-07 0)
(1.82696e-08 -4.00341e-07 0)
(5.47695e-08 -3.98102e-07 0)
(9.1342e-08 -3.93624e-07 0)
(1.2795e-07 -3.87155e-07 0)
(1.64527e-07 -3.78824e-07 0)
(2.01139e-07 -3.6887e-07 0)
(2.37616e-07 -3.57672e-07 0)
(2.73935e-07 -3.45462e-07 0)
(3.0999e-07 -3.32481e-07 0)
(3.45597e-07 -3.19416e-07 0)
(1.80105e-08 -4.09246e-07 0)
(5.40766e-08 -4.07179e-07 0)
(9.01673e-08 -4.02994e-07 0)
(1.26301e-07 -3.96945e-07 0)
(1.62369e-07 -3.89177e-07 0)
(1.98483e-07 -3.79873e-07 0)
(2.34456e-07 -3.69402e-07 0)
(2.70265e-07 -3.57992e-07 0)
(3.05818e-07 -3.45852e-07 0)
(3.40942e-07 -3.33585e-07 0)
(1.77806e-08 -4.18276e-07 0)
(5.34332e-08 -4.16372e-07 0)
(8.90457e-08 -4.12459e-07 0)
(1.24734e-07 -4.06795e-07 0)
(1.60336e-07 -3.9954e-07 0)
(1.95979e-07 -3.90844e-07 0)
(2.31499e-07 -3.81049e-07 0)
(2.66855e-07 -3.70381e-07 0)
(3.01971e-07 -3.59021e-07 0)
(3.36696e-07 -3.47508e-07 0)
(1.75756e-08 -4.27438e-07 0)
(5.28051e-08 -4.25672e-07 0)
(8.79529e-08 -4.22013e-07 0)
(1.23208e-07 -4.16706e-07 0)
(1.58384e-07 -4.09923e-07 0)
(1.93585e-07 -4.01792e-07 0)
(2.2869e-07 -3.92628e-07 0)
(2.63646e-07 -3.82647e-07 0)
(2.98394e-07 -3.7202e-07 0)
(3.32814e-07 -3.6122e-07 0)
(1.73678e-08 -4.36725e-07 0)
(5.2154e-08 -4.3507e-07 0)
(8.68588e-08 -4.31652e-07 0)
(1.21684e-07 -4.26677e-07 0)
(1.56458e-07 -4.20328e-07 0)
(1.91247e-07 -4.12722e-07 0)
(2.25972e-07 -4.04148e-07 0)
(2.60582e-07 -3.94816e-07 0)
(2.95037e-07 -3.84887e-07 0)
(3.29216e-07 -3.74763e-07 0)
(1.71411e-08 -4.46119e-07 0)
(5.14704e-08 -4.44557e-07 0)
(8.57489e-08 -4.41369e-07 0)
(1.20144e-07 -4.36707e-07 0)
(1.54524e-07 -4.30764e-07 0)
(1.88926e-07 -4.23653e-07 0)
(2.23299e-07 -4.15634e-07 0)
(2.57615e-07 -4.06915e-07 0)
(2.91816e-07 -3.97649e-07 0)
(3.25794e-07 -3.88162e-07 0)
(1.69012e-08 -4.55605e-07 0)
(5.07685e-08 -4.54131e-07 0)
(8.46221e-08 -4.51164e-07 0)
(1.18579e-07 -4.46802e-07 0)
(1.52561e-07 -4.41233e-07 0)
(1.86589e-07 -4.34579e-07 0)
(2.20638e-07 -4.2709e-07 0)
(2.54699e-07 -4.18956e-07 0)
(2.88664e-07 -4.10316e-07 0)
(3.22497e-07 -4.01435e-07 0)
(1.66594e-08 -4.65174e-07 0)
(5.00543e-08 -4.63789e-07 0)
(8.34609e-08 -4.61026e-07 0)
(1.16965e-07 -4.56945e-07 0)
(1.50545e-07 -4.51739e-07 0)
(1.84207e-07 -4.45522e-07 0)
(2.17951e-07 -4.38542e-07 0)
(2.51749e-07 -4.30965e-07 0)
(2.85513e-07 -4.22914e-07 0)
(3.19213e-07 -4.14624e-07 0)
(1.64127e-08 -4.74821e-07 0)
(4.93052e-08 -4.73521e-07 0)
(8.22311e-08 -4.70945e-07 0)
(1.15262e-07 -4.67138e-07 0)
(1.48418e-07 -4.62274e-07 0)
(1.81718e-07 -4.56478e-07 0)
(2.15162e-07 -4.49975e-07 0)
(2.48689e-07 -4.42927e-07 0)
(2.82306e-07 -4.35442e-07 0)
(3.15894e-07 -4.27716e-07 0)
(1.61474e-08 -4.84524e-07 0)
(4.8488e-08 -4.83309e-07 0)
(8.08908e-08 -4.80908e-07 0)
(1.13437e-07 -4.77364e-07 0)
(1.46157e-07 -4.72842e-07 0)
(1.79087e-07 -4.67458e-07 0)
(2.12217e-07 -4.61413e-07 0)
(2.45512e-07 -4.54871e-07 0)
(2.78944e-07 -4.47944e-07 0)
(3.12466e-07 -4.40779e-07 0)
(1.58566e-08 -4.94248e-07 0)
(4.76056e-08 -4.93119e-07 0)
(7.94422e-08 -4.90896e-07 0)
(1.11466e-07 -4.87615e-07 0)
(1.43738e-07 -4.83425e-07 0)
(1.76296e-07 -4.78444e-07 0)
(2.09108e-07 -4.7285e-07 0)
(2.42232e-07 -4.66795e-07 0)
(2.75509e-07 -4.60403e-07 0)
(3.09024e-07 -4.53787e-07 0)
)


// ************************************************************************* //
