# Time dispX dispY dispZ forceX forceY forceZ
0 2.10092e-06 -1.8027e-07 0 0 0 0
1 1.0668e-06 -8.2068e-08 1.493e-23 100000 0.00262214 -1.6268e-17
