/*--------------------------------*- C++ -*----------------------------------*\
| =========                 |                                                 |
| \\      /  F ield         | foam-extend: Open Source CFD                    |
|  \\    /   O peration     | Version:     4.1                                |
|   \\  /    A nd           | Web:         http://www.foam-extend.org         |
|    \\/     M anipulation  |                                                 |
\*---------------------------------------------------------------------------*/
FoamFile
{
    version     2.0;
    format      ascii;
    class       vectorField;
    location    "2";
    object      residualD_iteration17;
}
// * * * * * * * * * * * * * * * * * * * * * * * * * * * * * * * * * * * * * //


1000
(
(0.0037752 -0.00416426 0)
(0.00327692 -0.00370781 0)
(0.00288343 -0.00334472 0)
(0.00259893 -0.00308611 0)
(0.00238889 -0.0028794 0)
(0.00221689 -0.00271364 0)
(0.00208432 -0.00257302 0)
(0.00197941 -0.00244222 0)
(0.00187534 -0.00233222 0)
(0.00185734 -0.00222743 0)
(0.00337047 -0.00453436 0)
(0.00283699 -0.00414711 0)
(0.00242915 -0.00382574 0)
(0.00213376 -0.00358968 0)
(0.0019329 -0.00339403 0)
(0.00177708 -0.00323578 0)
(0.00165697 -0.00310028 0)
(0.00156383 -0.00297328 0)
(0.00148584 -0.00287039 0)
(0.00146652 -0.00275691 0)
(0.00296536 -0.00489184 0)
(0.00242166 -0.00458239 0)
(0.00202547 -0.00430756 0)
(0.00173244 -0.00410321 0)
(0.00152939 -0.00392709 0)
(0.00138089 -0.00378344 0)
(0.00126723 -0.0036572 0)
(0.00117519 -0.0035408 0)
(0.0011024 -0.003447 0)
(0.00107248 -0.0033472 0)
(0.00256966 -0.00522314 0)
(0.00202103 -0.00499656 0)
(0.00164072 -0.00477459 0)
(0.00136638 -0.00460704 0)
(0.00117103 -0.00445327 0)
(0.00102501 -0.00432685 0)
(0.000921413 -0.00421283 0)
(0.000833535 -0.00410908 0)
(0.000767204 -0.00402456 0)
(0.000726853 -0.00393667 0)
(0.00215673 -0.00552474 0)
(0.00164398 -0.00538263 0)
(0.00129903 -0.00521418 0)
(0.00104299 -0.00508432 0)
(0.000859342 -0.00495574 0)
(0.000729328 -0.00484595 0)
(0.000638233 -0.00474473 0)
(0.000558668 -0.00465275 0)
(0.0004936 -0.00457632 0)
(0.000448525 -0.004498 0)
(0.00176669 -0.00578796 0)
(0.00129877 -0.00572782 0)
(0.000986646 -0.00560952 0)
(0.000766009 -0.00551264 0)
(0.000610186 -0.00540739 0)
(0.000502972 -0.00531296 0)
(0.000418625 -0.00522485 0)
(0.000344382 -0.00514454 0)
(0.000283448 -0.00507636 0)
(0.000240864 -0.00500728 0)
(0.00136823 -0.00600813 0)
(0.00098201 -0.00601849 0)
(0.000723239 -0.00594384 0)
(0.000545729 -0.00587554 0)
(0.000418554 -0.00579099 0)
(0.000329453 -0.00571162 0)
(0.000255946 -0.00563606 0)
(0.000192552 -0.00556492 0)
(0.000142278 -0.0055022 0)
(0.00010674 -0.00544032 0)
(0.000969716 -0.00617701 0)
(0.000689695 -0.00624388 0)
(0.000496549 -0.00620665 0)
(0.00036194 -0.00616559 0)
(0.000264144 -0.00609624 0)
(0.000195313 -0.00602842 0)
(0.000140859 -0.00596049 0)
(9.63585e-05 -0.00589682 0)
(6.14705e-05 -0.00583896 0)
(3.57895e-05 -0.00578322 0)
(0.000583202 -0.00629203 0)
(0.000409326 -0.00639994 0)
(0.000285155 -0.00639025 0)
(0.000202967 -0.00636462 0)
(0.000146082 -0.00630596 0)
(0.00010583 -0.00624876 0)
(6.91101e-05 -0.00618675 0)
(3.81242e-05 -0.00612558 0)
(1.78059e-05 -0.00606932 0)
(3.15166e-06 -0.00601821 0)
(0.000194318 -0.00635066 0)
(0.000133368 -0.00647987 0)
(9.67142e-05 -0.00648336 0)
(6.9259e-05 -0.0064676 0)
(4.41935e-05 -0.00641482 0)
(3.1022e-05 -0.00635991 0)
(2.36502e-05 -0.00630133 0)
(1.3146e-05 -0.00624369 0)
(3.88292e-06 -0.00618837 0)
(-1.49972e-06 -0.00613842 0)
(0.00645954 -0.000194131 0)
(0.00656306 -0.000134817 0)
(0.00658752 -9.29534e-05 0)
(0.00655963 -6.57367e-05 0)
(0.00650544 -4.5981e-05 0)
(0.0064506 -2.8878e-05 0)
(0.00638713 -1.76227e-05 0)
(0.00633697 -1.3704e-05 0)
(0.00627677 -4.1255e-06 0)
(0.00622418 5.67141e-06 0)
(0.00640856 -0.000578771 0)
(0.0064823 -0.000404429 0)
(0.00648671 -0.000283239 0)
(0.00645635 -0.000196764 0)
(0.00639949 -0.000137736 0)
(0.00634807 -0.000101209 0)
(0.00627901 -6.65292e-05 0)
(0.00622313 -3.87476e-05 0)
(0.00616682 -1.35536e-05 0)
(0.00611312 6.09364e-06 0)
(0.00628203 -0.000970091 0)
(0.00632132 -0.000684007 0)
(0.00629396 -0.000488955 0)
(0.00624952 -0.000359318 0)
(0.00618109 -0.000262171 0)
(0.00611598 -0.000193445 0)
(0.00604739 -0.000136608 0)
(0.00598416 -9.3564e-05 0)
(0.00592891 -5.67525e-05 0)
(0.00587243 -2.34837e-05 0)
(0.00609433 -0.00136275 0)
(0.00608544 -0.000984193 0)
(0.00602208 -0.000718566 0)
(0.00595052 -0.000542667 0)
(0.00587139 -0.000414866 0)
(0.00579303 -0.000323966 0)
(0.00571701 -0.000252424 0)
(0.00564077 -0.000193567 0)
(0.00558244 -0.000142674 0)
(0.00551731 -9.54289e-05 0)
(0.00585817 -0.00176094 0)
(0.00577815 -0.0013065 0)
(0.00567333 -0.000985172 0)
(0.00557456 -0.000769655 0)
(0.00547635 -0.00061496 0)
(0.00538332 -0.000503605 0)
(0.00530052 -0.000416863 0)
(0.00521676 -0.00034463 0)
(0.00515206 -0.00028293 0)
(0.00507107 -0.000225501 0)
(0.00558366 -0.00216331 0)
(0.00542439 -0.0016537 0)
(0.00526441 -0.00129075 0)
(0.00512982 -0.00104622 0)
(0.00501232 -0.000868464 0)
(0.00490493 -0.000739928 0)
(0.00480726 -0.000640782 0)
(0.0047138 -0.000560223 0)
(0.00464012 -0.000489082 0)
(0.00454245 -0.000422083 0)
(0.00526347 -0.0025658 0)
(0.00502764 -0.00202502 0)
(0.00481765 -0.0016342 0)
(0.00464272 -0.00136875 0)
(0.00450162 -0.00117632 0)
(0.00437453 -0.00103556 0)
(0.00425886 -0.000927546 0)
(0.00415335 -0.000842472 0)
(0.00407045 -0.000765327 0)
(0.00395439 -0.000692727 0)
(0.00492241 -0.00297131 0)
(0.00460462 -0.00241882 0)
(0.00434093 -0.00201576 0)
(0.00412853 -0.00174011 0)
(0.00395874 -0.00153942 0)
(0.00381196 -0.00139025 0)
(0.00368244 -0.00127615 0)
(0.00356364 -0.00118849 0)
(0.003468 -0.00110678 0)
(0.00333551 -0.00103372 0)
(0.00455768 -0.00337491 0)
(0.00416291 -0.00283508 0)
(0.0038479 -0.00243071 0)
(0.00360295 -0.00215356 0)
(0.00340707 -0.00194805 0)
(0.00324799 -0.00179494 0)
(0.00311048 -0.0016777 0)
(0.00298217 -0.00158956 0)
(0.0028749 -0.00151127 0)
(0.00273713 -0.00144986 0)
(0.00417486 -0.00377265 0)
(0.00370958 -0.00326587 0)
(0.00335212 -0.00287603 0)
(0.00308389 -0.00260299 0)
(0.00287551 -0.00239464 0)
(0.00270535 -0.00223762 0)
(0.00255464 -0.00211188 0)
(0.00241633 -0.00201502 0)
(0.00228715 -0.00192723 0)
(0.00216402 -0.00186482 0)
(0.00618116 1.00024e-05 0)
(0.00613942 1.5702e-05 0)
(0.00610085 1.99046e-05 0)
(0.00606943 2.32605e-05 0)
(0.006044 2.64748e-05 0)
(0.00601479 2.92358e-05 0)
(0.00598686 3.11865e-05 0)
(0.00596701 3.48861e-05 0)
(0.00594748 4.14766e-05 0)
(0.00592295 4.85573e-05 0)
(0.00589742 5.49176e-05 0)
(0.00587145 6.10723e-05 0)
(0.00584449 6.80657e-05 0)
(0.0058154 7.71428e-05 0)
(0.00578154 8.86553e-05 0)
(0.00574019 0.00010175 0)
(0.00568979 0.000115761 0)
(0.00562713 0.000131461 0)
(0.00555114 0.000150209 0)
(0.00545067 0.000172039 0)
(0.00607512 1.95587e-05 0)
(0.00604538 3.97692e-05 0)
(0.00601858 5.33067e-05 0)
(0.00599161 6.29721e-05 0)
(0.00596706 7.09274e-05 0)
(0.00594345 8.0417e-05 0)
(0.0059208 9.24489e-05 0)
(0.00590089 0.000107318 0)
(0.00588073 0.000123547 0)
(0.00586017 0.000139069 0)
(0.00584065 0.000156365 0)
(0.00581826 0.000177666 0)
(0.00579087 0.00020296 0)
(0.00575904 0.000231842 0)
(0.0057219 0.00026419 0)
(0.00567687 0.000300262 0)
(0.00562351 0.000341131 0)
(0.00555899 0.000389156 0)
(0.00548126 0.00044725 0)
(0.00538755 0.000514149 0)
(0.00584658 5.29772e-06 0)
(0.00583456 4.26493e-05 0)
(0.00582541 6.69449e-05 0)
(0.00582202 8.63906e-05 0)
(0.00581617 0.000104211 0)
(0.00580017 0.00012333 0)
(0.00578037 0.000144525 0)
(0.00576699 0.000167907 0)
(0.00575402 0.000192703 0)
(0.00574059 0.000218957 0)
(0.00572534 0.000250722 0)
(0.00570495 0.000289226 0)
(0.00568057 0.000332716 0)
(0.00565425 0.00038042 0)
(0.00562406 0.000433392 0)
(0.00558481 0.000493311 0)
(0.00553331 0.000562192 0)
(0.00546617 0.000642721 0)
(0.00538489 0.000739788 0)
(0.00528531 0.00084958 0)
(0.00551069 -4.90748e-05 0)
(0.00553539 7.64668e-06 0)
(0.00555555 4.55802e-05 0)
(0.00557143 7.82471e-05 0)
(0.00557912 0.000110751 0)
(0.00557911 0.000144265 0)
(0.00557428 0.000177979 0)
(0.00557403 0.000213303 0)
(0.00556609 0.000249635 0)
(0.00555313 0.000289027 0)
(0.00553892 0.000335497 0)
(0.00552259 0.000389249 0)
(0.00550414 0.000448462 0)
(0.00548242 0.000513852 0)
(0.00545473 0.000588173 0)
(0.00541825 0.000673392 0)
(0.00536859 0.000771938 0)
(0.0053043 0.000885424 0)
(0.00523135 0.00102041 0)
(0.00513767 0.00117317 0)
(0.00508056 -0.000158871 0)
(0.00513895 -7.66902e-05 0)
(0.0051908 -1.60477e-05 0)
(0.00523818 3.73927e-05 0)
(0.00527148 8.84103e-05 0)
(0.0052935 0.000138564 0)
(0.00530474 0.000186158 0)
(0.00531427 0.000236265 0)
(0.00531853 0.000286976 0)
(0.00531898 0.000340595 0)
(0.00531421 0.00040178 0)
(0.00530227 0.0004713 0)
(0.00528526 0.00054763 0)
(0.00526388 0.000632033 0)
(0.00523578 0.000727835 0)
(0.00520038 0.000837339 0)
(0.00515319 0.000964077 0)
(0.00509496 0.00111024 0)
(0.00502502 0.00128208 0)
(0.00493952 0.0014789 0)
(0.00457687 -0.000331251 0)
(0.00468189 -0.000218861 0)
(0.00476891 -0.000129455 0)
(0.00484126 -4.84955e-05 0)
(0.00489348 2.70741e-05 0)
(0.0049305 0.000100006 0)
(0.00496823 0.000166725 0)
(0.00499467 0.000232219 0)
(0.00501015 0.00029879 0)
(0.00501922 0.000369627 0)
(0.00502066 0.000448855 0)
(0.00501374 0.000536475 0)
(0.00500157 0.000630686 0)
(0.00498645 0.000733489 0)
(0.00496592 0.000849217 0)
(0.00493599 0.000981665 0)
(0.00489345 0.00113474 0)
(0.00484329 0.00131302 0)
(0.00477771 0.00152201 0)
(0.00469787 0.00176187 0)
(0.00400574 -0.000574567 0)
(0.00415042 -0.000426669 0)
(0.0042745 -0.00030112 0)
(0.0043765 -0.000186681 0)
(0.00446279 -8.16447e-05 0)
(0.00452224 1.44517e-05 0)
(0.00458286 0.000105265 0)
(0.0046305 0.000192542 0)
(0.00466147 0.000280608 0)
(0.00467818 0.000372726 0)
(0.00468404 0.000472178 0)
(0.0046834 0.000578284 0)
(0.00467927 0.000689963 0)
(0.00467142 0.000810777 0)
(0.00465738 0.000946402 0)
(0.0046319 0.00110242 0)
(0.0045935 0.00128238 0)
(0.00454555 0.00149199 0)
(0.0044867 0.00173716 0)
(0.00441327 0.00201814 0)
(0.00340451 -0.000885319 0)
(0.0035914 -0.000697756 0)
(0.00375662 -0.000527744 0)
(0.00389048 -0.000373657 0)
(0.00400247 -0.000232622 0)
(0.00409347 -0.000106352 0)
(0.00416738 1.08345e-05 0)
(0.00422534 0.000123453 0)
(0.00426765 0.000235971 0)
(0.00429472 0.000351054 0)
(0.00431112 0.000470893 0)
(0.00432129 0.00059507 0)
(0.00432682 0.000724445 0)
(0.00432549 0.000864236 0)
(0.00431441 0.00102095 0)
(0.00428977 0.00120102 0)
(0.00425513 0.00140747 0)
(0.00420756 0.00164728 0)
(0.00415173 0.00192535 0)
(0.00408387 0.00224293 0)
(0.00279773 -0.00126688 0)
(0.00300877 -0.00103592 0)
(0.00319537 -0.000821058 0)
(0.00335506 -0.000623355 0)
(0.00348673 -0.000444719 0)
(0.00360412 -0.000280793 0)
(0.00369971 -0.000130265 0)
(0.00377639 1.30306e-05 0)
(0.00383382 0.00015351 0)
(0.00387479 0.000294069 0)
(0.00390561 0.000436413 0)
(0.00392875 0.000581307 0)
(0.00394333 0.000731553 0)
(0.00394698 0.00089315 0)
(0.00393752 0.00107292 0)
(0.00391208 0.0012777 0)
(0.00387817 0.00150955 0)
(0.0038339 0.00177751 0)
(0.00377972 0.00208542 0)
(0.00371556 0.0024344 0)
(0.00219382 -0.00169296 0)
(0.00239838 -0.00143174 0)
(0.00258536 -0.00117046 0)
(0.00275849 -0.000923391 0)
(0.00291418 -0.000700425 0)
(0.00304913 -0.000496101 0)
(0.00316651 -0.000309303 0)
(0.00326472 -0.000133376 0)
(0.0033404 3.69341e-05 0)
(0.0033985 0.000204342 0)
(0.00344547 0.000370773 0)
(0.00348216 0.000538557 0)
(0.00350638 0.000711925 0)
(0.00351701 0.000896963 0)
(0.00351326 0.00110069 0)
(0.0034933 0.00132982 0)
(0.00346346 0.00158619 0)
(0.00342501 0.00187969 0)
(0.00337677 0.00221445 0)
(0.00332066 0.00258874 0)
(0.00192552 -0.00195128 0)
(0.00205091 -0.0017109 0)
(0.00218754 -0.00144229 0)
(0.00232902 -0.00117856 0)
(0.0024718 -0.000930089 0)
(0.00260226 -0.000698271 0)
(0.00272174 -0.000482799 0)
(0.00282296 -0.000278331 0)
(0.00290318 -8.07007e-05 0)
(0.0029683 0.00011168 0)
(0.00302262 0.000301379 0)
(0.00306465 0.000492317 0)
(0.00309186 0.000689189 0)
(0.00310507 0.000897126 0)
(0.00310438 0.00112342 0)
(0.00308924 0.00137375 0)
(0.00306623 0.00165095 0)
(0.00303291 0.00196311 0)
(0.0029926 0.00231611 0)
(0.00294945 0.00270407 0)
(0.00169356 -0.00205455 0)
(0.00180711 -0.00181645 0)
(0.0019382 -0.00156062 0)
(0.00206712 -0.00130275 0)
(0.00218887 -0.00105092 0)
(0.00230526 -0.000809411 0)
(0.00241069 -0.00057929 0)
(0.0025 -0.000357443 0)
(0.00257263 -0.000141892 0)
(0.00263323 6.82875e-05 0)
(0.00268325 0.00027613 0)
(0.00271974 0.00048608 0)
(0.00274105 0.000702252 0)
(0.00274997 0.000928611 0)
(0.00274623 0.00117261 0)
(0.00272916 0.00143758 0)
(0.00270762 0.00172856 0)
(0.00267651 0.00205091 0)
(0.00264259 0.00241196 0)
(0.00260945 0.00280335 0)
(0.00139984 -0.00221477 0)
(0.00152253 -0.00195057 0)
(0.00164501 -0.00168297 0)
(0.00176442 -0.0014158 0)
(0.00187494 -0.00115531 0)
(0.00198102 -0.000903533 0)
(0.0020752 -0.000660845 0)
(0.00215663 -0.000424906 0)
(0.0022252 -0.000194479 0)
(0.00228321 3.13397e-05 0)
(0.00233033 0.000255796 0)
(0.002363 0.000483346 0)
(0.00238054 0.000716968 0)
(0.00238704 0.000959549 0)
(0.00238253 0.00121889 0)
(0.00236662 0.0014961 0)
(0.00234632 0.00179794 0)
(0.00231968 0.00212763 0)
(0.00229426 0.00249392 0)
(0.00226705 0.00288723 0)
(0.00110433 -0.00236534 0)
(0.00123195 -0.00208381 0)
(0.00135318 -0.00180577 0)
(0.00146417 -0.00152921 0)
(0.00156921 -0.00125901 0)
(0.00166564 -0.000996289 0)
(0.00175071 -0.000741187 0)
(0.00182576 -0.000492055 0)
(0.00188936 -0.000247618 0)
(0.00194257 -6.67804e-06 0)
(0.00198467 0.000234066 0)
(0.00201236 0.000478673 0)
(0.00202542 0.000728602 0)
(0.00202833 0.000985853 0)
(0.00202127 0.0012586 0)
(0.00200623 0.00154624 0)
(0.00198707 0.00185744 0)
(0.00196357 0.0021929 0)
(0.00194272 0.00256283 0)
(0.00191465 0.00295732 0)
(0.000831819 -0.00251034 0)
(0.000952538 -0.00221154 0)
(0.00107112 -0.00191915 0)
(0.00117525 -0.00163212 0)
(0.00127278 -0.00135152 0)
(0.00135938 -0.00107828 0)
(0.00143682 -0.000812328 0)
(0.0015053 -0.000551633 0)
(0.001562 -0.000294275 0)
(0.0016077 -3.91947e-05 0)
(0.00164217 0.000216667 0)
(0.00166339 0.000476815 0)
(0.00167144 0.000741134 0)
(0.00167076 0.00101122 0)
(0.00166118 0.00129547 0)
(0.00164535 0.00159157 0)
(0.00162746 0.00191013 0)
(0.00160618 0.00225002 0)
(0.00158495 0.0026218 0)
(0.00155682 0.00301562 0)
(0.000585829 -0.0026458 0)
(0.000696578 -0.0023347 0)
(0.000803288 -0.00202977 0)
(0.00089936 -0.00173084 0)
(0.000984739 -0.00143874 0)
(0.00106134 -0.0011548 0)
(0.00113093 -0.000878348 0)
(0.0011911 -0.000606017 0)
(0.00123887 -0.000335752 0)
(0.00127541 -6.70897e-05 0)
(0.00130112 0.000202742 0)
(0.0013157 0.000476796 0)
(0.00131945 0.000753468 0)
(0.00131611 0.00103454 0)
(0.00130568 0.00132838 0)
(0.0012895 0.0016319 0)
(0.00127236 0.00195614 0)
(0.00125197 0.00229929 0)
(0.00122861 0.00267138 0)
(0.00120853 0.00306233 0)
(0.000359608 -0.00276452 0)
(0.000456792 -0.00244374 0)
(0.00054753 -0.0021289 0)
(0.000630451 -0.0018193 0)
(0.000703296 -0.00151694 0)
(0.000771011 -0.00122361 0)
(0.000832153 -0.000937371 0)
(0.000882858 -0.000653541 0)
(0.000921212 -0.000370819 0)
(0.000948764 -8.95867e-05 0)
(0.000966253 0.000192638 0)
(0.000975072 0.000478634 0)
(0.000975772 0.000765677 0)
(0.000970629 0.00105633 0)
(0.000959306 0.00135785 0)
(0.000942968 0.00166754 0)
(0.000925523 0.00199634 0)
(0.000904464 0.00234124 0)
(0.000882033 0.0027119 0)
(0.000873634 0.00309744 0)
(0.000147414 -0.0028664 0)
(0.000223573 -0.00253929 0)
(0.000299176 -0.00221643 0)
(0.000367215 -0.00189787 0)
(0.00042995 -0.00158667 0)
(0.000488864 -0.00128481 0)
(0.000540271 -0.000988856 0)
(0.000580677 -0.000693606 0)
(0.000609873 -0.000399057 0)
(0.000629359 -0.00010638 0)
(0.000639547 0.000186657 0)
(0.000643047 0.000482621 0)
(0.000640686 0.000778037 0)
(0.000633599 0.00107691 0)
(0.000620133 0.00138498 0)
(0.00060209 0.00169965 0)
(0.000582494 0.00203185 0)
(0.000560268 0.00237692 0)
(0.000543116 0.0027444 0)
(0.000537611 0.00312241 0)
(-5.24423e-05 -0.00294978 0)
(1.88387e-06 -0.0026195 0)
(6.11298e-05 -0.00229103 0)
(0.000115616 -0.00196587 0)
(0.000167703 -0.00164729 0)
(0.000214789 -0.00133737 0)
(0.000253821 -0.00103187 0)
(0.000282007 -0.00072582 0)
(0.000301482 -0.000420583 0)
(0.000313178 -0.000117939 0)
(0.00031691 0.000184301 0)
(0.000315526 0.000488598 0)
(0.000309566 0.000790964 0)
(0.000299813 0.00109664 0)
(0.000283835 0.00141031 0)
(0.000263432 0.00172905 0)
(0.00024177 0.00206337 0)
(0.00022037 0.00240745 0)
(0.000208496 0.0027702 0)
(0.00019705 0.00314004 0)
(-0.000243333 -0.00301591 0)
(-0.000206775 -0.00268413 0)
(-0.000165395 -0.00235235 0)
(-0.00012482 -0.00202225 0)
(-8.77688e-05 -0.00169706 0)
(-5.66035e-05 -0.00137938 0)
(-3.19637e-05 -0.00106516 0)
(-1.71981e-05 -0.0007497 0)
(-7.06292e-06 -0.000435462 0)
(-2.13894e-06 -0.00012469 0)
(-2.90913e-06 0.000185088 0)
(-7.43524e-06 0.000496262 0)
(-1.62318e-05 0.000804594 0)
(-2.84708e-05 0.00111595 0)
(-4.60471e-05 0.00143437 0)
(-6.7603e-05 0.00175633 0)
(-8.87075e-05 0.00209142 0)
(-0.000106939 0.00243363 0)
(-0.000119832 0.00279048 0)
(-0.000130166 0.00315253 0)
(-0.000423899 -0.00306588 0)
(-0.000404611 -0.00273352 0)
(-0.000381942 -0.00239978 0)
(-0.000358965 -0.00206544 0)
(-0.000340941 -0.00173429 0)
(-0.000326967 -0.0014098 0)
(-0.000315534 -0.00108842 0)
(-0.000312699 -0.000765489 0)
(-0.000309927 -0.000444149 0)
(-0.000310448 -0.00012709 0)
(-0.000314535 0.000188832 0)
(-0.000321647 0.000505809 0)
(-0.000333464 0.00081935 0)
(-0.000348972 0.00113545 0)
(-0.00036878 0.00145763 0)
(-0.00039134 0.00178159 0)
(-0.000411015 0.00211625 0)
(-0.000427766 0.00245531 0)
(-0.000446248 0.00280555 0)
(-0.000445312 0.00315854 0)
(-0.000596528 -0.00310024 0)
(-0.000596648 -0.00276795 0)
(-0.000593706 -0.00243245 0)
(-0.00059088 -0.00209438 0)
(-0.000591481 -0.00175851 0)
(-0.000592576 -0.00142892 0)
(-0.000591709 -0.00110201 0)
(-0.000599038 -0.000773372 0)
(-0.000603988 -0.000446459 0)
(-0.000611457 -0.000124738 0)
(-0.00062112 0.000195958 0)
(-0.000633165 0.000517612 0)
(-0.000649815 0.00083553 0)
(-0.000669798 0.00115553 0)
(-0.00069274 0.00148055 0)
(-0.000716598 0.00180531 0)
(-0.000736662 0.00213867 0)
(-0.000756281 0.0024732 0)
(-0.000773401 0.00281664 0)
(-0.000769443 0.00315817 0)
(-0.000772694 -0.00312024 0)
(-0.000792934 -0.00278783 0)
(-0.00080948 -0.00245035 0)
(-0.000824768 -0.00210951 0)
(-0.000840883 -0.00177049 0)
(-0.000855551 -0.0014375 0)
(-0.000865992 -0.00110649 0)
(-0.000883091 -0.000773841 0)
(-0.000898077 -0.000442745 0)
(-0.00091392 -0.000117567 0)
(-0.00093018 0.000206877 0)
(-0.000947087 0.000532329 0)
(-0.000966838 0.000853785 0)
(-0.000988573 0.00117683 0)
(-0.001012 0.00150374 0)
(-0.00103569 0.00182843 0)
(-0.00105706 0.00215931 0)
(-0.00107947 0.00248849 0)
(-0.00108639 0.00282396 0)
(-0.00108876 0.00315463 0)
(-0.00096225 -0.00312695 0)
(-0.00100093 -0.00279391 0)
(-0.00103487 -0.00245491 0)
(-0.00106504 -0.00211266 0)
(-0.00109552 -0.00177187 0)
(-0.00112348 -0.00143681 0)
(-0.00114768 -0.00110282 0)
(-0.00117137 -0.000767228 0)
(-0.00119409 -0.000432978 0)
(-0.0012154 -0.000105141 0)
(-0.00123568 0.000221657 0)
(-0.00125619 0.000549337 0)
(-0.00127867 0.000872921 0)
(-0.001302 0.00119786 0)
(-0.00132563 0.00152554 0)
(-0.00134987 0.00184948 0)
(-0.00137232 0.00217678 0)
(-0.0013913 0.00250028 0)
(-0.00139601 0.00282516 0)
(-0.00139398 0.0031457 0)
(-0.00116745 -0.00312139 0)
(-0.00122125 -0.00278765 0)
(-0.00127078 -0.00244829 0)
(-0.0013147 -0.00210586 0)
(-0.00135912 -0.00176415 0)
(-0.00139607 -0.0014277 0)
(-0.00143239 -0.00109191 0)
(-0.0014613 -0.000754321 0)
(-0.00149109 -0.000418682 0)
(-0.00152042 -8.93962e-05 0)
(-0.00154744 0.00023898 0)
(-0.00157297 0.000568379 0)
(-0.00159888 0.000893579 0)
(-0.00162411 0.00121967 0)
(-0.00164789 0.00154733 0)
(-0.00167246 0.00186969 0)
(-0.00169384 0.00219304 0)
(-0.00170498 0.00251027 0)
(-0.00171796 0.00282478 0)
(-0.00170966 0.00313256 0)
(-0.00138576 -0.00310431 0)
(-0.00145492 -0.00277109 0)
(-0.00151928 -0.00243264 0)
(-0.00157485 -0.00209059 0)
(-0.00163052 -0.00174859 0)
(-0.00167643 -0.00141093 0)
(-0.00172416 -0.00107469 0)
(-0.00176411 -0.000735932 0)
(-0.00179906 -0.00039961 0)
(-0.00183045 -7.01469e-05 0)
(-0.00185904 0.00025838 0)
(-0.00188582 0.000588336 0)
(-0.00191214 0.00091413 0)
(-0.00193664 0.00124015 0)
(-0.0019593 0.00156708 0)
(-0.00198206 0.00188764 0)
(-0.00199891 0.00220748 0)
(-0.0020079 0.0025165 0)
(-0.00201794 0.0028213 0)
(-0.00201714 0.00311628 0)
(-0.00162098 -0.00307724 0)
(-0.00170907 -0.00274453 0)
(-0.00178482 -0.00240875 0)
(-0.00185012 -0.00206796 0)
(-0.00191372 -0.00172656 0)
(-0.0019707 -0.00138864 0)
(-0.00202189 -0.00105227 0)
(-0.00206868 -0.000714239 0)
(-0.00210987 -0.000378792 0)
(-0.00214556 -4.99148e-05 0)
(-0.00217682 0.000278169 0)
(-0.00220431 0.000607468 0)
(-0.00222962 0.000932695 0)
(-0.00225162 0.00125871 0)
(-0.00227102 0.00158538 0)
(-0.00228902 0.00190322 0)
(-0.00229985 0.00221788 0)
(-0.00231418 0.00252162 0)
(-0.00231239 0.00281849 0)
(-0.00231231 0.00309665 0)
(-0.00189073 -0.00304104 0)
(-0.00198342 -0.00271028 0)
(-0.00206707 -0.00237813 0)
(-0.00214668 -0.00203932 0)
(-0.00221901 -0.00169811 0)
(-0.00228305 -0.00136149 0)
(-0.00233801 -0.00102654 0)
(-0.0023869 -0.000689794 0)
(-0.00242926 -0.00035612 0)
(-0.00246603 -2.99113e-05 0)
(-0.00249765 0.000296087 0)
(-0.00252328 0.000625355 0)
(-0.00254512 0.000950631 0)
(-0.00256377 0.00127386 0)
(-0.00257847 0.00159709 0)
(-0.00258821 0.00191595 0)
(-0.0025915 0.00222977 0)
(-0.00260161 0.00252683 0)
(-0.00260426 0.00281255 0)
(-0.00260035 0.00307891 0)
(-0.00218621 -0.00299716 0)
(-0.00228692 -0.00267041 0)
(-0.00238238 -0.00234199 0)
(-0.0024684 -0.00200569 0)
(-0.00254736 -0.0016669 0)
(-0.0026144 -0.0013317 0)
(-0.00267132 -0.000999884 0)
(-0.00272081 -0.000667605 0)
(-0.0027626 -0.000337148 0)
(-0.0027967 -1.15431e-05 0)
(-0.00282436 0.000313451 0)
(-0.00284697 0.000638092 0)
(-0.00286559 0.000959038 0)
(-0.00287707 0.00128399 0)
(-0.00288123 0.00160824 0)
(-0.00288426 0.00192132 0)
(-0.00288604 0.00223267 0)
(-0.00287419 0.00253112 0)
(-0.00287114 0.00280908 0)
(-0.00286856 0.00306018 0)
(-0.00251456 -0.00294742 0)
(-0.0026251 -0.00262492 0)
(-0.00272759 -0.00230011 0)
(-0.0028182 -0.00196693 0)
(-0.00289634 -0.00163322 0)
(-0.00296291 -0.00130457 0)
(-0.00301923 -0.000977459 0)
(-0.00306587 -0.00064694 0)
(-0.0031035 -0.000319046 0)
(-0.00313452 1.50948e-07 0)
(-0.0031592 0.000320246 0)
(-0.00317549 0.000646007 0)
(-0.00318686 0.000965766 0)
(-0.00319301 0.0012838 0)
(-0.00318742 0.00160652 0)
(-0.00317697 0.00192045 0)
(-0.00316805 0.00223041 0)
(-0.00314438 0.00252712 0)
(-0.00312446 0.00280301 0)
(-0.00310152 0.00304016 0)
(-1.18348e-05 -0.0060973 0)
(-2.86619e-05 -0.00598202 0)
(-1.76154e-05 -0.00575731 0)
(2.86733e-05 -0.00542854 0)
(0.000136543 -0.00501343 0)
(0.00031587 -0.00452259 0)
(0.000569621 -0.00397842 0)
(0.000897319 -0.00339952 0)
(0.00127449 -0.00281379 0)
(0.0017134 -0.00225689 0)
(-2.35896e-05 -0.0060468 0)
(-6.79062e-05 -0.00594153 0)
(-8.24978e-05 -0.0057366 0)
(-6.57861e-05 -0.00543427 0)
(6.02383e-06 -0.00505301 0)
(0.00014858 -0.00460042 0)
(0.000360505 -0.00409549 0)
(0.000648058 -0.00355094 0)
(0.000996608 -0.0029947 0)
(0.00141791 -0.002427 0)
(-2.85102e-05 -0.00599606 0)
(-8.72212e-05 -0.00589907 0)
(-0.000119783 -0.00571223 0)
(-0.000119489 -0.00543716 0)
(-7.55615e-05 -0.00508815 0)
(3.30036e-05 -0.00467347 0)
(0.000204122 -0.00420733 0)
(0.000441602 -0.00370082 0)
(0.000743821 -0.00317449 0)
(0.00111789 -0.0026102 0)
(-3.23948e-05 -0.00594733 0)
(-9.76281e-05 -0.00585934 0)
(-0.0001476 -0.00568862 0)
(-0.000161185 -0.00543685 0)
(-0.000139547 -0.00511632 0)
(-6.13487e-05 -0.00473568 0)
(7.31717e-05 -0.0043015 0)
(0.00026471 -0.00382627 0)
(0.000518463 -0.00332476 0)
(0.000839725 -0.00277679 0)
(-3.86276e-05 -0.00590124 0)
(-0.000108594 -0.00581894 0)
(-0.000170969 -0.00566217 0)
(-0.000197294 -0.00543145 0)
(-0.000193334 -0.00513642 0)
(-0.000141179 -0.00478353 0)
(-3.91449e-05 -0.00437778 0)
(0.000113061 -0.00393284 0)
(0.00032206 -0.00345566 0)
(0.000593879 -0.00292747 0)
(-4.13593e-05 -0.0058568 0)
(-0.000119037 -0.00578069 0)
(-0.000189114 -0.00563557 0)
(-0.000228435 -0.00542126 0)
(-0.000239756 -0.00514761 0)
(-0.00021265 -0.00481896 0)
(-0.000137915 -0.00443884 0)
(-1.8722e-05 -0.00402084 0)
(0.000150497 -0.0035677 0)
(0.000377008 -0.0030615 0)
(-4.24968e-05 -0.00581441 0)
(-0.000127941 -0.00574337 0)
(-0.000204125 -0.005608 0)
(-0.000257828 -0.00540892 0)
(-0.00028097 -0.0051532 0)
(-0.000274516 -0.00484553 0)
(-0.000225916 -0.00448805 0)
(-0.000136 -0.00409246 0)
(-1.71337e-06 -0.00366045 0)
(0.000182565 -0.00317534 0)
(-4.78434e-05 -0.00577451 0)
(-0.00013711 -0.00570712 0)
(-0.000218459 -0.00557966 0)
(-0.000285852 -0.00539339 0)
(-0.000321409 -0.00515235 0)
(-0.000330801 -0.00486274 0)
(-0.000305292 -0.00452427 0)
(-0.000244041 -0.0041471 0)
(-0.000143379 -0.00373384 0)
(7.64072e-07 -0.00326949 0)
(-5.4451e-05 -0.00573624 0)
(-0.000146824 -0.00567235 0)
(-0.000235295 -0.00555177 0)
(-0.000313853 -0.00537538 0)
(-0.000362462 -0.00514614 0)
(-0.000388544 -0.00487167 0)
(-0.00038343 -0.00454865 0)
(-0.000348377 -0.00418617 0)
(-0.000278819 -0.00378898 0)
(-0.000170997 -0.00334438 0)
(-5.70951e-05 -0.00569877 0)
(-0.000156781 -0.00563833 0)
(-0.000255097 -0.00552304 0)
(-0.00034444 -0.00535434 0)
(-0.000404997 -0.00513474 0)
(-0.000449331 -0.0048721 0)
(-0.00046393 -0.00456156 0)
(-0.00045181 -0.00421154 0)
(-0.000408549 -0.00382874 0)
(-0.000330927 -0.00340236 0)
(-5.76986e-05 -0.00566228 0)
(-0.000170669 -0.0056043 0)
(-0.000278939 -0.00549241 0)
(-0.000380255 -0.00533017 0)
(-0.000452927 -0.00511849 0)
(-0.000514756 -0.00486471 0)
(-0.000548369 -0.00456458 0)
(-0.000555447 -0.00422589 0)
(-0.000533123 -0.0038558 0)
(-0.00048031 -0.003445 0)
(-6.15506e-05 -0.00562571 0)
(-0.000191483 -0.005569 0)
(-0.000308726 -0.00545937 0)
(-0.000423374 -0.00530263 0)
(-0.000510616 -0.00509732 0)
(-0.000587802 -0.00485035 0)
(-0.000638523 -0.00455938 0)
(-0.000661739 -0.00423102 0)
(-0.000657948 -0.00387142 0)
(-0.000628383 -0.00347338 0)
(-6.98176e-05 -0.00558702 0)
(-0.000216923 -0.00553134 0)
(-0.000344102 -0.00542398 0)
(-0.00047303 -0.00527158 0)
(-0.000577734 -0.00507133 0)
(-0.000668968 -0.00483015 0)
(-0.000735076 -0.00454752 0)
(-0.000774617 -0.00422786 0)
(-0.000791504 -0.00387623 0)
(-0.00078557 -0.00348863 0)
(-7.91832e-05 -0.00554496 0)
(-0.000242085 -0.00549072 0)
(-0.000383102 -0.00538593 0)
(-0.000527192 -0.00523664 0)
(-0.000650958 -0.00504083 0)
(-0.000756968 -0.00480512 0)
(-0.00083887 -0.00452953 0)
(-0.000898382 -0.00421612 0)
(-0.000938046 -0.00387034 0)
(-0.000953848 -0.00349079 0)
(-8.72385e-05 -0.00549931 0)
(-0.00026582 -0.00544656 0)
(-0.00042593 -0.00534426 0)
(-0.000586644 -0.00519718 0)
(-0.000729607 -0.00500542 0)
(-0.000852479 -0.00477481 0)
(-0.000953219 -0.00450441 0)
(-0.00103633 -0.00419539 0)
(-0.00109643 -0.00385391 0)
(-0.00113427 -0.00348051 0)
(-9.51644e-05 -0.00544952 0)
(-0.000292017 -0.00539771 0)
(-0.00047543 -0.0052974 0)
(-0.000654778 -0.00515228 0)
(-0.000817122 -0.00496438 0)
(-0.00095958 -0.00473813 0)
(-0.00108417 -0.00447117 0)
(-0.00119212 -0.0041653 0)
(-0.00127193 -0.00382696 0)
(-0.00133501 -0.00345889 0)
(-0.000105687 -0.00539386 0)
(-0.000325101 -0.0053423 0)
(-0.000533866 -0.00524355 0)
(-0.000734264 -0.00510068 0)
(-0.000918906 -0.00491615 0)
(-0.00108497 -0.0046932 0)
(-0.00123518 -0.00442933 0)
(-0.00136469 -0.00412608 0)
(-0.00146884 -0.00379077 0)
(-0.0015505 -0.00342814 0)
(-0.000119956 -0.00532886 0)
(-0.000366163 -0.00527774 0)
(-0.000602226 -0.00518081 0)
(-0.000826276 -0.00504061 0)
(-0.00103584 -0.00485953 0)
(-0.00123004 -0.00463949 0)
(-0.00140668 -0.00437862 0)
(-0.00155928 -0.00407788 0)
(-0.00169345 -0.00374517 0)
(-0.00179493 -0.003388 0)
(-0.000137474 -0.00525333 0)
(-0.000414099 -0.00520293 0)
(-0.000680798 -0.00510849 0)
(-0.00093608 -0.00497137 0)
(-0.00117703 -0.00479295 0)
(-0.00140255 -0.00457611 0)
(-0.00160708 -0.00431924 0)
(-0.0017895 -0.00402265 0)
(-0.00194217 -0.0036928 0)
(-0.00206846 -0.00333997 0)
(-0.000156852 -0.00515898 0)
(-0.000468507 -0.00511121 0)
(-0.000768669 -0.00501918 0)
(-0.00105793 -0.00488531 0)
(-0.00133618 -0.00471133 0)
(-0.00159786 -0.00449889 0)
(-0.00183518 -0.00424696 0)
(-0.00205817 -0.00395574 0)
(-0.00223698 -0.00363097 0)
(-0.00238945 -0.00328583 0)
)


// ************************************************************************* //
