/*--------------------------------*- C++ -*----------------------------------*\
| =========                 |                                                 |
| \\      /  F ield         | foam-extend: Open Source CFD                    |
|  \\    /   O peration     | Version:     4.1                                |
|   \\  /    A nd           | Web:         http://www.foam-extend.org         |
|    \\/     M anipulation  |                                                 |
\*---------------------------------------------------------------------------*/
FoamFile
{
    version     2.0;
    format      ascii;
    class       vectorField;
    location    "2";
    object      residualD_iteration8;
}
// * * * * * * * * * * * * * * * * * * * * * * * * * * * * * * * * * * * * * //


1000
(
(0.00973184 -0.00914356 0)
(0.00840895 -0.00814821 0)
(0.00745618 -0.00737134 0)
(0.00676264 -0.00683829 0)
(0.00625225 -0.00643918 0)
(0.00586759 -0.00614226 0)
(0.00557853 -0.00590494 0)
(0.00535377 -0.00570257 0)
(0.00521846 -0.00551791 0)
(0.00525279 -0.00525707 0)
(0.00865939 -0.0100037 0)
(0.00728219 -0.00917348 0)
(0.00631262 -0.00848523 0)
(0.00560996 -0.00800595 0)
(0.00509851 -0.00763714 0)
(0.00474141 -0.00735049 0)
(0.00449593 -0.00711113 0)
(0.00433362 -0.00691546 0)
(0.00426165 -0.00673743 0)
(0.00429628 -0.00652713 0)
(0.00760321 -0.0108156 0)
(0.0062154 -0.0101745 0)
(0.00523628 -0.00960788 0)
(0.00455229 -0.00919911 0)
(0.00406836 -0.0088752 0)
(0.00374279 -0.00861564 0)
(0.00353598 -0.00839824 0)
(0.00341024 -0.00823017 0)
(0.00336959 -0.00808301 0)
(0.0034112 -0.00791633 0)
(0.00653908 -0.0115707 0)
(0.00520403 -0.0111322 0)
(0.00426028 -0.0106997 0)
(0.00361285 -0.0103722 0)
(0.00317248 -0.0100989 0)
(0.00288016 -0.0098758 0)
(0.00269621 -0.00968824 0)
(0.00259412 -0.00954829 0)
(0.00256434 -0.00942502 0)
(0.0026038 -0.00930316 0)
(0.0055016 -0.0122541 0)
(0.0042531 -0.0120206 0)
(0.00338365 -0.0117152 0)
(0.00279967 -0.0114696 0)
(0.00240372 -0.0112545 0)
(0.00214206 -0.0110752 0)
(0.00198062 -0.0109192 0)
(0.00190246 -0.0108067 0)
(0.00188358 -0.0107124 0)
(0.00191693 -0.0106282 0)
(0.00446176 -0.0128557 0)
(0.00337465 -0.0128129 0)
(0.00261658 -0.0126345 0)
(0.00210295 -0.0124712 0)
(0.00175594 -0.0123083 0)
(0.00153502 -0.012166 0)
(0.00140376 -0.0120423 0)
(0.00134269 -0.0119526 0)
(0.00132842 -0.0118831 0)
(0.00135238 -0.0118309 0)
(0.00345192 -0.0133545 0)
(0.00255399 -0.0134815 0)
(0.00192897 -0.0134164 0)
(0.00150642 -0.013329 0)
(0.00122785 -0.0132131 0)
(0.00105257 -0.0131016 0)
(0.000949689 -0.0130031 0)
(0.000901094 -0.0129328 0)
(0.000888318 -0.0128835 0)
(0.00090341 -0.0128546 0)
(0.00245754 -0.0137456 0)
(0.00178293 -0.0140117 0)
(0.00131731 -0.0140322 0)
(0.00100208 -0.0140015 0)
(0.000802302 -0.0139238 0)
(0.000676191 -0.013842 0)
(0.000599614 -0.0137673 0)
(0.000560057 -0.0137129 0)
(0.000548173 -0.0136806 0)
(0.00055871 -0.0136725 0)
(0.00146896 -0.0140135 0)
(0.00104922 -0.0143736 0)
(0.00076673 -0.0144527 0)
(0.000576925 -0.0144635 0)
(0.000453527 -0.0144138 0)
(0.000370061 -0.0143493 0)
(0.000322097 -0.0142899 0)
(0.000303133 -0.0142479 0)
(0.000298531 -0.0142241 0)
(0.00030369 -0.0142254 0)
(0.000489166 -0.0141473 0)
(0.000353517 -0.0145607 0)
(0.000253 -0.0146675 0)
(0.000183629 -0.0146984 0)
(0.000145216 -0.0146656 0)
(0.000120627 -0.0146157 0)
(0.000101268 -0.0145627 0)
(9.26688e-05 -0.0145248 0)
(9.30063e-05 -0.014509 0)
(9.57748e-05 -0.0145218 0)
(0.016665 -0.00041194 0)
(0.0168768 -0.000276101 0)
(0.016848 -0.000183692 0)
(0.0167543 -0.000120727 0)
(0.0166152 -7.60966e-05 0)
(0.0164644 -4.94766e-05 0)
(0.0163215 -3.79161e-05 0)
(0.0161959 -2.26054e-05 0)
(0.0160952 -1.72147e-05 0)
(0.016012 -2.09704e-05 0)
(0.0164974 -0.00124302 0)
(0.0166666 -0.000840951 0)
(0.0166101 -0.000558427 0)
(0.0164946 -0.000378151 0)
(0.0163387 -0.000262973 0)
(0.0161774 -0.000174211 0)
(0.0160282 -0.00012601 0)
(0.0158962 -9.98786e-05 0)
(0.0157878 -9.24948e-05 0)
(0.0156981 -8.94001e-05 0)
(0.0161918 -0.0020739 0)
(0.0162627 -0.00142959 0)
(0.0161458 -0.000977269 0)
(0.015988 -0.000671692 0)
(0.0158049 -0.000478152 0)
(0.015624 -0.000348149 0)
(0.0154552 -0.000276857 0)
(0.0153205 -0.00023256 0)
(0.0151988 -0.00021359 0)
(0.0150952 -0.000206922 0)
(0.0157432 -0.0029248 0)
(0.0156688 -0.00205977 0)
(0.0154644 -0.00145898 0)
(0.0152461 -0.00105587 0)
(0.0150247 -0.000794583 0)
(0.0148287 -0.000616858 0)
(0.0146399 -0.000512361 0)
(0.0144879 -0.000448452 0)
(0.0143465 -0.000415652 0)
(0.014221 -0.000407148 0)
(0.0151635 -0.00378566 0)
(0.0149129 -0.00274234 0)
(0.0145963 -0.00201657 0)
(0.014309 -0.0015325 0)
(0.0140393 -0.00121724 0)
(0.0138101 -0.00100106 0)
(0.0135975 -0.000865849 0)
(0.0134246 -0.000783282 0)
(0.0132644 -0.000735113 0)
(0.0131157 -0.000720893 0)
(0.0144536 -0.00466397 0)
(0.0140112 -0.00349174 0)
(0.0135764 -0.00267303 0)
(0.0132112 -0.00212525 0)
(0.0128841 -0.00176712 0)
(0.0126151 -0.0015204 0)
(0.0123764 -0.00136127 0)
(0.0121802 -0.00126022 0)
(0.0119954 -0.00119796 0)
(0.011809 -0.00117577 0)
(0.0136452 -0.0055602 0)
(0.0129939 -0.00431342 0)
(0.0124275 -0.00343545 0)
(0.0119797 -0.00284383 0)
(0.0115979 -0.00245127 0)
(0.0112914 -0.00218268 0)
(0.011026 -0.00200628 0)
(0.0108074 -0.00188435 0)
(0.0105964 -0.00180196 0)
(0.0103626 -0.0017634 0)
(0.0127448 -0.00646239 0)
(0.0118935 -0.00520093 0)
(0.0112074 -0.00429831 0)
(0.0106788 -0.00368883 0)
(0.0102516 -0.00327438 0)
(0.00990813 -0.00299368 0)
(0.00961459 -0.00280753 0)
(0.00936728 -0.00267 0)
(0.00912576 -0.00256957 0)
(0.00883098 -0.002511 0)
(0.0117781 -0.00736834 0)
(0.0107438 -0.00614166 0)
(0.00994029 -0.00525525 0)
(0.0093375 -0.00464985 0)
(0.00886503 -0.00422755 0)
(0.00848361 -0.00393571 0)
(0.00816229 -0.00373762 0)
(0.00788783 -0.00358525 0)
(0.00763676 -0.00346788 0)
(0.00729785 -0.00337727 0)
(0.0107653 -0.0082714 0)
(0.00958161 -0.0071318 0)
(0.00868555 -0.00628581 0)
(0.00802539 -0.00570607 0)
(0.00752097 -0.00529016 0)
(0.00712875 -0.00498946 0)
(0.0068095 -0.00477467 0)
(0.00651489 -0.00460103 0)
(0.00625613 -0.00444938 0)
(0.00589132 -0.00433676 0)
(0.0159723 -2.14413e-05 0)
(0.0159348 -1.11462e-05 0)
(0.0159034 -3.11738e-06 0)
(0.0158804 3.56925e-06 0)
(0.0158645 8.45163e-06 0)
(0.0158545 1.31279e-05 0)
(0.0158431 2.25496e-05 0)
(0.0158326 3.40239e-05 0)
(0.0158309 4.34269e-05 0)
(0.0158326 5.24944e-05 0)
(0.0158319 6.24171e-05 0)
(0.0158315 7.36381e-05 0)
(0.0158304 8.72449e-05 0)
(0.0158246 0.000102648 0)
(0.0158125 0.000118617 0)
(0.0157938 0.00013581 0)
(0.0157649 0.000155677 0)
(0.0157223 0.000178594 0)
(0.0156662 0.000204776 0)
(0.0155896 0.000235629 0)
(0.0156731 -7.98639e-05 0)
(0.0156639 -4.60719e-05 0)
(0.0156575 -2.25473e-05 0)
(0.0156571 -1.68077e-06 0)
(0.0156557 2.13008e-05 0)
(0.0156545 4.25226e-05 0)
(0.0156558 6.45654e-05 0)
(0.0156599 8.7652e-05 0)
(0.015668 0.000112258 0)
(0.0156735 0.00014278 0)
(0.0156758 0.000176866 0)
(0.0156789 0.000212055 0)
(0.0156816 0.000250453 0)
(0.0156816 0.000293743 0)
(0.0156785 0.000342225 0)
(0.0156705 0.000397162 0)
(0.0156511 0.000459912 0)
(0.0156165 0.000530915 0)
(0.015567 0.000611864 0)
(0.015487 0.000705488 0)
(0.0151047 -0.000189641 0)
(0.0151546 -0.000128847 0)
(0.0151875 -8.34267e-05 0)
(0.0152158 -4.46785e-05 0)
(0.0152444 -5.21894e-06 0)
(0.0152714 3.19292e-05 0)
(0.0152937 7.28585e-05 0)
(0.0153111 0.000117584 0)
(0.0153323 0.000164049 0)
(0.015349 0.000215694 0)
(0.0153606 0.00027012 0)
(0.0153703 0.000326853 0)
(0.015377 0.000390118 0)
(0.0153799 0.00046211 0)
(0.0153782 0.000542703 0)
(0.0153693 0.000633018 0)
(0.015353 0.000735721 0)
(0.0153271 0.000854153 0)
(0.0152909 0.00099223 0)
(0.01523 0.0011528 0)
(0.014273 -0.00037729 0)
(0.0144007 -0.000282468 0)
(0.0144958 -0.000207453 0)
(0.0145769 -0.000141875 0)
(0.0146486 -7.75237e-05 0)
(0.0147083 -1.74629e-05 0)
(0.0147608 4.75321e-05 0)
(0.014803 0.000114211 0)
(0.0148436 0.000182003 0)
(0.0148761 0.000256052 0)
(0.014902 0.000335035 0)
(0.0149238 0.000418425 0)
(0.0149412 0.000509466 0)
(0.0149551 0.000610115 0)
(0.0149636 0.00072076 0)
(0.0149618 0.000843748 0)
(0.0149525 0.000982518 0)
(0.0149333 0.00114439 0)
(0.0149003 0.00133592 0)
(0.0148554 0.00155848 0)
(0.0132233 -0.00066528 0)
(0.0134477 -0.000523556 0)
(0.0136123 -0.000410972 0)
(0.0137495 -0.000311921 0)
(0.0138739 -0.000214994 0)
(0.0139772 -0.00012649 0)
(0.0140632 -3.17045e-05 0)
(0.0141368 6.17747e-05 0)
(0.0141975 0.000158189 0)
(0.0142447 0.000261562 0)
(0.0142866 0.000367771 0)
(0.0143261 0.000476427 0)
(0.0143608 0.000592849 0)
(0.0143887 0.000720997 0)
(0.014409 0.000861837 0)
(0.0144216 0.00101814 0)
(0.0144236 0.00119373 0)
(0.0144204 0.00139713 0)
(0.0144017 0.00163912 0)
(0.0143736 0.00191747 0)
(0.0119675 -0.00107836 0)
(0.0122977 -0.000871267 0)
(0.0125495 -0.000706189 0)
(0.0127609 -0.000562786 0)
(0.0129449 -0.000422715 0)
(0.0130991 -0.000295288 0)
(0.0132154 -0.000160107 0)
(0.0133193 -3.03714e-05 0)
(0.01341 9.68831e-05 0)
(0.0134864 0.000227369 0)
(0.0135534 0.000358766 0)
(0.0136129 0.00049261 0)
(0.0136655 0.000636088 0)
(0.013709 0.000793475 0)
(0.0137418 0.000964682 0)
(0.0137702 0.00115177 0)
(0.0137877 0.00136222 0)
(0.0137989 0.00160349 0)
(0.0137988 0.00189001 0)
(0.013791 0.00221951 0)
(0.0105687 -0.00161236 0)
(0.0110039 -0.00132997 0)
(0.0113367 -0.00110183 0)
(0.0116177 -0.000899835 0)
(0.0118551 -0.000703991 0)
(0.0120555 -0.000523611 0)
(0.0122195 -0.000347117 0)
(0.0123599 -0.000180138 0)
(0.012482 -1.99713e-05 0)
(0.0125905 0.000139527 0)
(0.012688 0.00029921 0)
(0.0127742 0.000462107 0)
(0.0128501 0.000635061 0)
(0.012915 0.000821274 0)
(0.0129706 0.00102042 0)
(0.0130201 0.00123516 0)
(0.0130562 0.00147722 0)
(0.013087 0.00175329 0)
(0.0131059 0.00207776 0)
(0.0131221 0.00245067 0)
(0.00905853 -0.00228144 0)
(0.00957666 -0.00189936 0)
(0.00998211 -0.00159027 0)
(0.0103229 -0.00131465 0)
(0.0106219 -0.0010606 0)
(0.0108632 -0.000824573 0)
(0.0110774 -0.000603593 0)
(0.0112623 -0.000396664 0)
(0.011424 -0.000199741 0)
(0.0115682 -7.12698e-06 0)
(0.0116982 0.000183742 0)
(0.0118169 0.00037658 0)
(0.0119256 0.000578102 0)
(0.0120204 0.000791332 0)
(0.0121062 0.00101676 0)
(0.0121826 0.00125886 0)
(0.0122415 0.00153016 0)
(0.0122998 0.00183699 0)
(0.0123438 0.00219398 0)
(0.0123865 0.00260284 0)
(0.00751094 -0.00306457 0)
(0.00805898 -0.0025959 0)
(0.00850685 -0.00220779 0)
(0.00888813 -0.00184905 0)
(0.00922873 -0.00151945 0)
(0.00951647 -0.00121892 0)
(0.00977457 -0.000943893 0)
(0.0100037 -0.000689658 0)
(0.0102122 -0.000452159 0)
(0.0104038 -0.000224505 0)
(0.0105791 -2.25223e-06 0)
(0.0107419 0.000219375 0)
(0.0108925 0.000448081 0)
(0.0110273 0.000687518 0)
(0.0111536 0.000938884 0)
(0.011268 0.00120904 0)
(0.011362 0.00150936 0)
(0.0114531 0.00184517 0)
(0.0115315 0.00222954 0)
(0.0116069 0.00266756 0)
(0.00595613 -0.00389182 0)
(0.00647837 -0.00329794 0)
(0.00692923 -0.00281056 0)
(0.00733352 -0.00237094 0)
(0.00769819 -0.00198415 0)
(0.00803318 -0.00163673 0)
(0.00833849 -0.00132004 0)
(0.00862058 -0.00102824 0)
(0.00888524 -0.000758008 0)
(0.00913242 -0.000501074 0)
(0.00936222 -0.000251876 0)
(0.0095792 -5.05456e-06 0)
(0.00978216 0.000247808 0)
(0.00996738 0.0005111 0)
(0.0101435 0.000786828 0)
(0.0103034 0.00108366 0)
(0.0104463 0.00140981 0)
(0.010581 0.00177276 0)
(0.0107034 0.00218116 0)
(0.0108171 0.00264565 0)
(0.00518481 -0.00440423 0)
(0.00543647 -0.0038637 0)
(0.00577423 -0.00335409 0)
(0.00614989 -0.00286965 0)
(0.00652407 -0.00244346 0)
(0.00688546 -0.00205797 0)
(0.00722354 -0.00170592 0)
(0.00754305 -0.00138318 0)
(0.00784522 -0.00108487 0)
(0.00812726 -0.000801589 0)
(0.00839035 -0.000527684 0)
(0.00864065 -0.000257782 0)
(0.00887434 1.71341e-05 0)
(0.00908835 0.000302115 0)
(0.00929372 0.000599172 0)
(0.00947903 0.000918646 0)
(0.00965062 0.00126361 0)
(0.00981256 0.00164735 0)
(0.00996315 0.00207447 0)
(0.0100988 0.00255921 0)
(0.0046013 -0.00469545 0)
(0.00490014 -0.00418798 0)
(0.0052154 -0.00371124 0)
(0.00555879 -0.0032418 0)
(0.00590812 -0.0028104 0)
(0.00625004 -0.00240948 0)
(0.00657825 -0.00203901 0)
(0.00689219 -0.00169673 0)
(0.00719029 -0.00137678 0)
(0.00746892 -0.00107134 0)
(0.00772997 -0.000776517 0)
(0.00797907 -0.000487032 0)
(0.00820989 -0.000193212 0)
(0.00842109 0.000109829 0)
(0.00862503 0.000424087 0)
(0.00880908 0.000761918 0)
(0.00898138 0.00112118 0)
(0.00914292 0.00151992 0)
(0.00929536 0.00196069 0)
(0.0094315 0.00245334 0)
(0.00395528 -0.00504974 0)
(0.00429297 -0.00449993 0)
(0.00463088 -0.00402107 0)
(0.00497697 -0.00355971 0)
(0.00531801 -0.00312783 0)
(0.00565077 -0.00272002 0)
(0.00597012 -0.00233832 0)
(0.00627488 -0.00198063 0)
(0.00656454 -0.00164271 0)
(0.00683559 -0.00131895 0)
(0.00709068 -0.00100698 0)
(0.00733519 -0.000701588 0)
(0.00756071 -0.000392311 0)
(0.00776796 -7.49966e-05 0)
(0.00796892 0.000252286 0)
(0.00815098 0.000603631 0)
(0.00832438 0.000974475 0)
(0.00848483 0.00138415 0)
(0.00863836 0.00183215 0)
(0.00877967 0.00232137 0)
(0.00332053 -0.00546579 0)
(0.00368656 -0.00488252 0)
(0.00403788 -0.0043782 0)
(0.00438974 -0.00390082 0)
(0.00472542 -0.00345425 0)
(0.0050528 -0.0030328 0)
(0.00536371 -0.00263564 0)
(0.0056604 -0.00226053 0)
(0.00594322 -0.0019048 0)
(0.00620787 -0.00156408 0)
(0.00645764 -0.0012369 0)
(0.00669806 -0.000917475 0)
(0.00691931 -0.000594215 0)
(0.00712432 -0.000264152 0)
(0.00732358 7.50535e-05 0)
(0.00750356 0.000437324 0)
(0.00767819 0.000817222 0)
(0.00783934 0.00123393 0)
(0.00799536 0.00168166 0)
(0.00814687 0.00216218 0)
(0.00274343 -0.00586138 0)
(0.00311346 -0.00526039 0)
(0.00346999 -0.00473629 0)
(0.00381978 -0.00424282 0)
(0.00415411 -0.00378192 0)
(0.00447647 -0.0033464 0)
(0.00477969 -0.00293251 0)
(0.00506989 -0.00254021 0)
(0.0053471 -0.00216802 0)
(0.00560603 -0.00181181 0)
(0.00585079 -0.00147062 0)
(0.00608669 -0.00113772 0)
(0.00630291 -0.000800485 0)
(0.00650493 -0.000458091 0)
(0.00670122 -0.000107311 0)
(0.00687866 0.000264162 0)
(0.00705245 0.000650738 0)
(0.00721444 0.00106971 0)
(0.00737504 0.00151143 0)
(0.00753641 0.00198524 0)
(0.00222698 -0.00624347 0)
(0.00258845 -0.0056314 0)
(0.00294104 -0.00509076 0)
(0.003284 -0.00458115 0)
(0.00361576 -0.00410567 0)
(0.00393004 -0.0036541 0)
(0.00422533 -0.00322296 0)
(0.00450955 -0.00281461 0)
(0.00478138 -0.00242719 0)
(0.00503447 -0.00205618 0)
(0.00527382 -0.00170123 0)
(0.00550398 -0.00135474 0)
(0.00571349 -0.00100342 0)
(0.00591078 -0.000649153 0)
(0.00610122 -0.000287397 0)
(0.00627556 9.03904e-05 0)
(0.00644768 0.000480094 0)
(0.00661043 0.00089624 0)
(0.00677689 0.00133029 0)
(0.00694263 0.00180023 0)
(0.0017734 -0.00660172 0)
(0.00212005 -0.00598755 0)
(0.00245795 -0.00543626 0)
(0.0027931 -0.00491318 0)
(0.00311587 -0.00442276 0)
(0.00341899 -0.00395416 0)
(0.00370508 -0.00350665 0)
(0.00398185 -0.00308341 0)
(0.00424657 -0.00268113 0)
(0.00449217 -0.00229489 0)
(0.0047245 -0.0019254 0)
(0.00494689 -0.0015646 0)
(0.0051478 -0.00119954 0)
(0.0053391 -0.000835196 0)
(0.00552236 -0.000464596 0)
(0.00569293 -8.37047e-05 0)
(0.00586347 0.000304993 0)
(0.00602686 0.000715331 0)
(0.0061973 0.00114355 0)
(0.00636278 0.00160476 0)
(0.00137324 -0.00693799 0)
(0.00170188 -0.00632704 0)
(0.00202006 -0.00576802 0)
(0.00234239 -0.00523342 0)
(0.00264987 -0.00472787 0)
(0.00293994 -0.00424362 0)
(0.00321505 -0.00378202 0)
(0.0034822 -0.00334543 0)
(0.0037376 -0.00292905 0)
(0.00397408 -0.00252766 0)
(0.00419824 -0.00214339 0)
(0.00441193 -0.00176807 0)
(0.00460388 -0.0013902 0)
(0.00478893 -0.00101794 0)
(0.00496629 -0.000641918 0)
(0.0051339 -0.000260801 0)
(0.00530337 0.000124365 0)
(0.00546731 0.000528828 0)
(0.00563776 0.000951297 0)
(0.00580538 0.00139372 0)
(0.00101737 -0.00725312 0)
(0.00132122 -0.00664708 0)
(0.00161897 -0.00608216 0)
(0.00192107 -0.005538 0)
(0.00221104 -0.00501988 0)
(0.00248724 -0.00452363 0)
(0.00275011 -0.00405064 0)
(0.00300657 -0.00360218 0)
(0.0032516 -0.00317258 0)
(0.00347848 -0.00275636 0)
(0.00369441 -0.00235735 0)
(0.00390004 -0.00196772 0)
(0.00408486 -0.00157842 0)
(0.00426484 -0.00119974 0)
(0.0044381 -0.000820617 0)
(0.00460365 -0.000440392 0)
(0.00477181 -5.85621e-05 0)
(0.00493527 0.000340919 0)
(0.00510346 0.00075229 0)
(0.00527823 0.00117341 0)
(0.000698153 -0.00754561 0)
(0.000973268 -0.00694388 0)
(0.00124833 -0.00637576 0)
(0.0015268 -0.00582566 0)
(0.00179955 -0.00529989 0)
(0.00206105 -0.0047951 0)
(0.00231067 -0.0043122 0)
(0.00255588 -0.00385208 0)
(0.00278984 -0.00340916 0)
(0.00300699 -0.00297825 0)
(0.00321478 -0.00256484 0)
(0.00341306 -0.00216168 0)
(0.00359255 -0.00176251 0)
(0.00376872 -0.00137853 0)
(0.00393863 -0.000997424 0)
(0.00410143 -0.000618153 0)
(0.00426677 -0.000239332 0)
(0.0044274 0.00015309 0)
(0.00459545 0.000546081 0)
(0.00477485 0.000951628 0)
(0.000404365 -0.00781363 0)
(0.000652506 -0.00721596 0)
(0.000903174 -0.00664807 0)
(0.00116014 -0.00609665 0)
(0.00141588 -0.00556687 0)
(0.00166143 -0.00505458 0)
(0.00189626 -0.00456157 0)
(0.00212896 -0.00408929 0)
(0.00235067 -0.00363273 0)
(0.0025577 -0.00318845 0)
(0.00275754 -0.00276293 0)
(0.0029494 -0.00234931 0)
(0.00312485 -0.00194311 0)
(0.00329827 -0.00155527 0)
(0.00346531 -0.00117271 0)
(0.00362465 -0.000794347 0)
(0.00378648 -0.000420126 0)
(0.00394368 -3.9734e-05 0)
(0.0041152 0.000334905 0)
(0.00429158 0.000724985 0)
(0.000129823 -0.00805817 0)
(0.000354062 -0.00746725 0)
(0.000582134 -0.00690224 0)
(0.000819697 -0.00635201 0)
(0.0010569 -0.00581863 0)
(0.00128454 -0.00529852 0)
(0.00150271 -0.00479593 0)
(0.00172141 -0.00431328 0)
(0.00193097 -0.00384481 0)
(0.00212876 -0.00339026 0)
(0.00232249 -0.00295598 0)
(0.00251034 -0.00253505 0)
(0.00268366 -0.0021237 0)
(0.00285551 -0.00173206 0)
(0.0030203 -0.00134727 0)
(0.0031768 -0.000969736 0)
(0.00333623 -0.000602418 0)
(0.00349315 -0.000236773 0)
(0.00366603 0.000126613 0)
(0.00383928 0.000494713 0)
(-0.00012589 -0.00828444 0)
(7.65051e-05 -0.00770331 0)
(0.000283969 -0.00714178 0)
(0.000500756 -0.00659214 0)
(0.000717633 -0.00605479 0)
(0.000926445 -0.00552807 0)
(0.00112841 -0.00501804 0)
(0.00133321 -0.00452826 0)
(0.00153327 -0.00405019 0)
(0.00172423 -0.00358715 0)
(0.00191413 -0.00314557 0)
(0.00209946 -0.00271796 0)
(0.00227045 -0.00230105 0)
(0.00243938 -0.00190501 0)
(0.00260076 -0.00151813 0)
(0.00275488 -0.0011432 0)
(0.00291313 -0.000784384 0)
(0.00307167 -0.000430025 0)
(0.00323821 -7.72581e-05 0)
(0.00341233 0.000268007 0)
(-0.000366723 -0.00849704 0)
(-0.000185113 -0.00792389 0)
(1.37739e-06 -0.00736527 0)
(0.000196531 -0.00681561 0)
(0.000394388 -0.00627563 0)
(0.000585927 -0.00574426 0)
(0.000774675 -0.00522798 0)
(0.000966145 -0.00473206 0)
(0.00115794 -0.00424692 0)
(0.0013426 -0.00377659 0)
(0.00152805 -0.00332856 0)
(0.00170961 -0.00289504 0)
(0.00187697 -0.00247305 0)
(0.00204276 -0.00207371 0)
(0.00220225 -0.00168679 0)
(0.00235644 -0.00131649 0)
(0.00251495 -0.000964986 0)
(0.00267097 -0.000615905 0)
(0.00283059 -0.000281651 0)
(0.0030025 4.21904e-05 0)
(-0.000602245 -0.00869374 0)
(-0.000441401 -0.00812671 0)
(-0.000275647 -0.00757181 0)
(-9.92731e-05 -0.00702298 0)
(8.264e-05 -0.00648116 0)
(0.000257801 -0.00594513 0)
(0.000434431 -0.00542427 0)
(0.000614357 -0.00492378 0)
(0.00079915 -0.00443653 0)
(0.000980191 -0.00396224 0)
(0.00116318 -0.00350813 0)
(0.00134201 -0.0030681 0)
(0.00150752 -0.00264116 0)
(0.00167387 -0.00223963 0)
(0.00183557 -0.00185367 0)
(0.00199098 -0.00148599 0)
(0.0021488 -0.00113698 0)
(0.00229751 -0.000794973 0)
(0.00245768 -0.000482206 0)
(0.00262612 -0.000183159 0)
(-0.00084251 -0.00887142 0)
(-0.000701373 -0.00831541 0)
(-0.000553385 -0.00776434 0)
(-0.000393057 -0.00721553 0)
(-0.000226184 -0.00667235 0)
(-6.45677e-05 -0.00613409 0)
(0.000102496 -0.00561268 0)
(0.000278815 -0.00510957 0)
(0.00045927 -0.00461966 0)
(0.000634669 -0.00414116 0)
(0.000812098 -0.00368171 0)
(0.000987984 -0.0032374 0)
(0.00115438 -0.00280817 0)
(0.00132418 -0.00240489 0)
(0.00148918 -0.0020173 0)
(0.00164474 -0.00164826 0)
(0.00179943 -0.00130033 0)
(0.00194519 -0.000974203 0)
(0.00210782 -0.000677523 0)
(0.00227968 -0.000404861 0)
(-0.00109553 -0.00904219 0)
(-0.000969617 -0.00849272 0)
(-0.000837597 -0.00794181 0)
(-0.000691954 -0.0073939 0)
(-0.000539757 -0.00685159 0)
(-0.000385073 -0.00631604 0)
(-0.000224637 -0.00579476 0)
(-5.13985e-05 -0.00528971 0)
(0.000124977 -0.00479514 0)
(0.000295956 -0.00431187 0)
(0.000471206 -0.00384956 0)
(0.000649509 -0.00340364 0)
(0.000822138 -0.00297229 0)
(0.000997022 -0.00256551 0)
(0.00116224 -0.00217372 0)
(0.00131754 -0.00180254 0)
(0.0014758 -0.00146012 0)
(0.00163601 -0.00114918 0)
(0.0017943 -0.000866035 0)
(0.00194955 -0.000616817 0)
(-0.00136257 -0.00920421 0)
(-0.00125357 -0.00865587 0)
(-0.00113527 -0.00810769 0)
(-0.00100112 -0.00756478 0)
(-0.000855581 -0.00702435 0)
(-0.000704446 -0.00649102 0)
(-0.000546232 -0.00597 0)
(-0.000377477 -0.00546364 0)
(-0.000206904 -0.00496623 0)
(-3.75448e-05 -0.00448127 0)
(0.000144074 -0.00401863 0)
(0.00033133 -0.00357082 0)
(0.000506683 -0.00313388 0)
(0.000679735 -0.00272116 0)
(0.000851501 -0.00232782 0)
(0.00102611 -0.00195942 0)
(0.00119622 -0.00162348 0)
(0.00135162 -0.00131103 0)
(0.00151279 -0.0010454 0)
(0.00168215 -0.000827107 0)
(-0.00165123 -0.00935204 0)
(-0.00155926 -0.00880833 0)
(-0.00144947 -0.0082669 0)
(-0.00132192 -0.00772941 0)
(-0.00117792 -0.00719439 0)
(-0.00102918 -0.00666078 0)
(-0.000877577 -0.0061376 0)
(-0.000715055 -0.00563083 0)
(-0.00054091 -0.00513638 0)
(-0.000360376 -0.00465383 0)
(-0.000173519 -0.0041875 0)
(9.6475e-06 -0.00373284 0)
(0.000189209 -0.00329384 0)
(0.00038389 -0.00288311 0)
(0.000572654 -0.00248741 0)
(0.000748821 -0.00211362 0)
(0.000935702 -0.00178171 0)
(0.0011068 -0.00147414 0)
(0.00127352 -0.00121921 0)
(0.0014442 -0.00102555 0)
(-0.0019606 -0.00949537 0)
(-0.00187822 -0.00895506 0)
(-0.001773 -0.00842 0)
(-0.00164525 -0.00788957 0)
(-0.00150807 -0.00735473 0)
(-0.00136847 -0.00682004 0)
(-0.00121637 -0.0063015 0)
(-0.00104129 -0.00580133 0)
(-0.000858583 -0.00530693 0)
(-0.000682159 -0.00481918 0)
(-0.00049343 -0.00435183 0)
(-0.000290797 -0.00390105 0)
(-9.60212e-05 -0.00346127 0)
(0.000103695 -0.00304494 0)
(0.000309772 -0.0026498 0)
(0.000506528 -0.00227696 0)
(0.000711975 -0.00193601 0)
(0.000904328 -0.00163478 0)
(0.00108805 -0.00138671 0)
(0.00128056 -0.0012149 0)
(7.3567e-05 -0.0145516 0)
(0.000237115 -0.0142632 0)
(0.000445609 -0.0137294 0)
(0.000738839 -0.0129332 0)
(0.00113362 -0.0119361 0)
(0.00164142 -0.0107557 0)
(0.00227212 -0.00944932 0)
(0.00301515 -0.00806735 0)
(0.00386164 -0.00666658 0)
(0.00482129 -0.00528477 0)
(2.88073e-05 -0.0145633 0)
(0.000106246 -0.0142878 0)
(0.000223246 -0.0137901 0)
(0.000422087 -0.0130411 0)
(0.000722747 -0.0120998 0)
(0.00113345 -0.0109824 0)
(0.00167714 -0.00973153 0)
(0.00232919 -0.00840233 0)
(0.00312095 -0.00702494 0)
(0.00402192 -0.00564048 0)
(-5.10307e-06 -0.0145381 0)
(6.61359e-06 -0.0142774 0)
(6.09961e-05 -0.0138122 0)
(0.000187338 -0.0131065 0)
(0.000415059 -0.0122172 0)
(0.000748215 -0.0111646 0)
(0.00121576 -0.00998153 0)
(0.00179138 -0.00871932 0)
(0.00251564 -0.00738567 0)
(0.00333756 -0.00603243 0)
(-2.60265e-05 -0.014497 0)
(-6.54027e-05 -0.0142495 0)
(-5.49149e-05 -0.0138164 0)
(1.7807e-05 -0.0131561 0)
(0.00018563 -0.0123214 0)
(0.000454736 -0.0113334 0)
(0.000848153 -0.0102168 0)
(0.00134634 -0.00901834 0)
(0.00198447 -0.007736 0)
(0.00271667 -0.00643143 0)
(-4.11264e-05 -0.0144466 0)
(-0.000115883 -0.0142146 0)
(-0.000143742 -0.013813 0)
(-0.000114945 -0.0131979 0)
(9.18503e-07 -0.0124135 0)
(0.000211836 -0.0114898 0)
(0.000539635 -0.0104394 0)
(0.000967406 -0.00929662 0)
(0.00152612 -0.00806469 0)
(0.00217909 -0.00680606 0)
(-5.74521e-05 -0.0143909 0)
(-0.000154356 -0.0141732 0)
(-0.00021369 -0.0137943 0)
(-0.000217478 -0.0132245 0)
(-0.000142355 -0.0124869 0)
(1.9652e-05 -0.0116189 0)
(0.000286374 -0.0106292 0)
(0.000647578 -0.00954085 0)
(0.00112985 -0.00836411 0)
(0.00170915 -0.00715789 0)
(-6.81409e-05 -0.0143307 0)
(-0.000185618 -0.0141304 0)
(-0.000269612 -0.0137692 0)
(-0.000298157 -0.0132418 0)
(-0.000260897 -0.0125491 0)
(-0.000140432 -0.011731 0)
(7.27097e-05 -0.0107969 0)
(0.000374462 -0.00976194 0)
(0.000788967 -0.00864112 0)
(0.00130162 -0.00748888 0)
(-7.24553e-05 -0.0142694 0)
(-0.000210971 -0.0140857 0)
(-0.000313514 -0.013741 0)
(-0.000362997 -0.0132513 0)
(-0.000358933 -0.0125998 0)
(-0.000277554 -0.0118253 0)
(-0.000111261 -0.0109424 0)
(0.000139875 -0.00996226 0)
(0.000495502 -0.00889803 0)
(0.000947158 -0.00780047 0)
(-8.00176e-05 -0.0142076 0)
(-0.000233968 -0.0140397 0)
(-0.000349995 -0.0137111 0)
(-0.000420755 -0.013253 0)
(-0.000442957 -0.0126393 0)
(-0.00039616 -0.0119044 0)
(-0.000272568 -0.0110688 0)
(-6.5544e-05 -0.0101431 0)
(0.000238953 -0.00913361 0)
(0.000634559 -0.0080884 0)
(-9.1008e-05 -0.014144 0)
(-0.000252986 -0.0139947 0)
(-0.000381515 -0.013681 0)
(-0.000473684 -0.0132479 0)
(-0.00051987 -0.0126681 0)
(-0.000503014 -0.0119701 0)
(-0.000417183 -0.0111778 0)
(-0.000249644 -0.010302 0)
(9.14156e-06 -0.00934416 0)
(0.000352291 -0.00834933 0)
(-9.86354e-05 -0.0140813 0)
(-0.000267176 -0.0139526 0)
(-0.000412123 -0.0136514 0)
(-0.000523085 -0.0132376 0)
(-0.000592675 -0.0126876 0)
(-0.000602361 -0.0120241 0)
(-0.000548812 -0.0112708 0)
(-0.000417763 -0.0104386 0)
(-0.000201168 -0.00953041 0)
(9.31361e-05 -0.00858622 0)
(-0.000101961 -0.0140249 0)
(-0.00028139 -0.0139124 0)
(-0.000446158 -0.0136216 0)
(-0.000572115 -0.0132237 0)
(-0.000662878 -0.0127002 0)
(-0.000696826 -0.0120683 0)
(-0.000671357 -0.0113504 0)
(-0.000574144 -0.0105578 0)
(-0.000396207 -0.00969856 0)
(-0.000145701 -0.00880421 0)
(-0.000106034 -0.0139756 0)
(-0.00030149 -0.0138715 0)
(-0.000486165 -0.0135915 0)
(-0.000625945 -0.0132084 0)
(-0.000735217 -0.0127089 0)
(-0.000791741 -0.0121059 0)
(-0.000791549 -0.0114191 0)
(-0.000724209 -0.0106651 0)
(-0.000579933 -0.00985275 0)
(-0.000367081 -0.00900385 0)
(-0.000114463 -0.0139295 0)
(-0.000328603 -0.0138291 0)
(-0.000531778 -0.0135624 0)
(-0.000688023 -0.0131936 0)
(-0.00081482 -0.0127149 0)
(-0.00089235 -0.0121369 0)
(-0.000914845 -0.0114789 0)
(-0.000872614 -0.0107629 0)
(-0.000757076 -0.00999164 0)
(-0.000577612 -0.00918554 0)
(-0.000125879 -0.0138834 0)
(-0.000359375 -0.0137861 0)
(-0.000581071 -0.0135346 0)
(-0.000757769 -0.0131785 0)
(-0.000902499 -0.0127177 0)
(-0.00100003 -0.0121617 0)
(-0.00104364 -0.0115343 0)
(-0.00102387 -0.0108548 0)
(-0.000935986 -0.0101193 0)
(-0.000787798 -0.00935641 0)
(-0.000137434 -0.0138374 0)
(-0.000391372 -0.0137422 0)
(-0.000633551 -0.013505 0)
(-0.000833977 -0.0131612 0)
(-0.000998234 -0.0127195 0)
(-0.00111652 -0.0121864 0)
(-0.00118173 -0.0115888 0)
(-0.00118453 -0.0109385 0)
(-0.00112495 -0.0102377 0)
(-0.00100354 -0.0095129 0)
(-0.000148645 -0.013791 0)
(-0.000426172 -0.0136958 0)
(-0.000692165 -0.0134734 0)
(-0.000919252 -0.0131435 0)
(-0.00110575 -0.0127185 0)
(-0.00124668 -0.0122071 0)
(-0.00133543 -0.0116355 0)
(-0.00136435 -0.0110105 0)
(-0.00133024 -0.0103487 0)
(-0.00123547 -0.00965853 0)
(-0.000161607 -0.0137425 0)
(-0.000468316 -0.0136473 0)
(-0.000761959 -0.0134384 0)
(-0.00101913 -0.0131216 0)
(-0.00123326 -0.0127152 0)
(-0.00140022 -0.0122264 0)
(-0.00151428 -0.0116768 0)
(-0.00157094 -0.0110789 0)
(-0.00155638 -0.0104501 0)
(-0.00148706 -0.00979627 0)
(-0.000178654 -0.0136901 0)
(-0.000522044 -0.0135949 0)
(-0.000848378 -0.0133973 0)
(-0.00113764 -0.0130961 0)
(-0.00138287 -0.0127082 0)
(-0.00158018 -0.0122396 0)
(-0.00172288 -0.0117097 0)
(-0.00180232 -0.0111425 0)
(-0.00180984 -0.0105411 0)
(-0.00176201 -0.00992372 0)
(-0.000200267 -0.0136281 0)
(-0.000586742 -0.0135371 0)
(-0.000951233 -0.0133522 0)
(-0.00127992 -0.0130678 0)
(-0.00156337 -0.0126978 0)
(-0.00179369 -0.0122499 0)
(-0.00196328 -0.0117447 0)
(-0.00205509 -0.0112059 0)
(-0.00208265 -0.010632 0)
(-0.00205429 -0.0100475 0)
)


// ************************************************************************* //
