/*--------------------------------*- C++ -*----------------------------------*\
| =========                 |                                                 |
| \\      /  F ield         | foam-extend: Open Source CFD                    |
|  \\    /   O peration     | Version:     4.1                                |
|   \\  /    A nd           | Web:         http://www.foam-extend.org         |
|    \\/     M anipulation  |                                                 |
\*---------------------------------------------------------------------------*/
FoamFile
{
    version     2.0;
    format      ascii;
    class       vectorField;
    location    "2";
    object      solidsCellD_iteration2;
}
// * * * * * * * * * * * * * * * * * * * * * * * * * * * * * * * * * * * * * //


1000
(
(8.2973e-07 -2.66432e-07 0)
(7.94776e-07 -2.52062e-07 0)
(7.74288e-07 -2.44537e-07 0)
(7.64722e-07 -2.43075e-07 0)
(7.62769e-07 -2.452e-07 0)
(7.66455e-07 -2.50102e-07 0)
(7.74301e-07 -2.56866e-07 0)
(7.85204e-07 -2.65192e-07 0)
(7.98189e-07 -2.74692e-07 0)
(8.11285e-07 -2.85738e-07 0)
(7.52021e-07 -2.9124e-07 0)
(7.1457e-07 -2.82823e-07 0)
(6.92238e-07 -2.79268e-07 0)
(6.81153e-07 -2.8057e-07 0)
(6.7781e-07 -2.84581e-07 0)
(6.79955e-07 -2.90921e-07 0)
(6.86084e-07 -2.98768e-07 0)
(6.95029e-07 -3.07877e-07 0)
(7.05878e-07 -3.17883e-07 0)
(7.1726e-07 -3.28843e-07 0)
(6.70635e-07 -3.14712e-07 0)
(6.32214e-07 -3.12973e-07 0)
(6.09102e-07 -3.13677e-07 0)
(5.97069e-07 -3.17936e-07 0)
(5.92678e-07 -3.23889e-07 0)
(5.93609e-07 -3.31542e-07 0)
(5.98348e-07 -3.40287e-07 0)
(6.0582e-07 -3.49895e-07 0)
(6.15163e-07 -3.60089e-07 0)
(6.25362e-07 -3.70848e-07 0)
(5.86325e-07 -3.3645e-07 0)
(5.48578e-07 -3.41673e-07 0)
(5.25732e-07 -3.46775e-07 0)
(5.13445e-07 -3.53968e-07 0)
(5.08417e-07 -3.61875e-07 0)
(5.08468e-07 -3.70808e-07 0)
(5.1212e-07 -3.80335e-07 0)
(5.1838e-07 -3.90387e-07 0)
(5.26474e-07 -4.00821e-07 0)
(5.35547e-07 -4.11535e-07 0)
(4.99675e-07 -3.56019e-07 0)
(4.64257e-07 -3.68084e-07 0)
(4.4267e-07 -3.77545e-07 0)
(4.3083e-07 -3.87623e-07 0)
(4.25686e-07 -3.97345e-07 0)
(4.2517e-07 -4.07467e-07 0)
(4.27955e-07 -4.1776e-07 0)
(4.33107e-07 -4.28252e-07 0)
(4.4002e-07 -4.38927e-07 0)
(4.47903e-07 -4.49701e-07 0)
(4.1116e-07 -3.73015e-07 0)
(3.79612e-07 -3.91468e-07 0)
(3.60325e-07 -4.04931e-07 0)
(3.4961e-07 -4.17684e-07 0)
(3.44779e-07 -4.29142e-07 0)
(3.43938e-07 -4.40391e-07 0)
(3.46018e-07 -4.51358e-07 0)
(3.50181e-07 -4.62264e-07 0)
(3.55912e-07 -4.73189e-07 0)
(3.62513e-07 -4.84094e-07 0)
(3.212e-07 -3.87037e-07 0)
(2.94995e-07 -4.11081e-07 0)
(2.78935e-07 -4.2807e-07 0)
(2.69917e-07 -4.43154e-07 0)
(2.65732e-07 -4.56106e-07 0)
(2.64823e-07 -4.68352e-07 0)
(2.66328e-07 -4.79919e-07 0)
(2.69548e-07 -4.91223e-07 0)
(2.74063e-07 -5.02401e-07 0)
(2.79292e-07 -5.13471e-07 0)
(2.30167e-07 -3.97807e-07 0)
(2.10526e-07 -4.26353e-07 0)
(1.98469e-07 -4.46184e-07 0)
(1.91672e-07 -4.63105e-07 0)
(1.88435e-07 -4.77255e-07 0)
(1.8764e-07 -4.90286e-07 0)
(1.88652e-07 -5.0236e-07 0)
(1.90946e-07 -5.13998e-07 0)
(1.94204e-07 -5.25368e-07 0)
(1.97982e-07 -5.3656e-07 0)
(1.38417e-07 -4.05106e-07 0)
(1.26264e-07 -4.36784e-07 0)
(1.18786e-07 -4.58622e-07 0)
(1.14525e-07 -4.76872e-07 0)
(1.12465e-07 -4.91858e-07 0)
(1.11947e-07 -5.05415e-07 0)
(1.12552e-07 -5.17845e-07 0)
(1.1392e-07 -5.29749e-07 0)
(1.15865e-07 -5.41302e-07 0)
(1.1814e-07 -5.52637e-07 0)
(4.62438e-08 -4.08775e-07 0)
(4.20986e-08 -4.42041e-07 0)
(3.9552e-08 -4.64923e-07 0)
(3.81191e-08 -4.83856e-07 0)
(3.74253e-08 -4.99261e-07 0)
(3.72277e-08 -5.13094e-07 0)
(3.74114e-08 -5.25687e-07 0)
(3.78682e-08 -5.37682e-07 0)
(3.85193e-08 -5.49289e-07 0)
(3.92728e-08 -5.60666e-07 0)
(1.27287e-06 -1.20951e-08 0)
(1.28303e-06 -8.8913e-09 0)
(1.2916e-06 -6.93894e-09 0)
(1.30185e-06 -5.87419e-09 0)
(1.31378e-06 -5.36596e-09 0)
(1.32804e-06 -5.24351e-09 0)
(1.34448e-06 -5.36781e-09 0)
(1.36304e-06 -5.65203e-09 0)
(1.38364e-06 -6.05806e-09 0)
(1.40603e-06 -6.50847e-09 0)
(1.26399e-06 -3.62968e-08 0)
(1.27262e-06 -2.68894e-08 0)
(1.28025e-06 -2.11636e-08 0)
(1.28988e-06 -1.80733e-08 0)
(1.3014e-06 -1.66195e-08 0)
(1.31534e-06 -1.62615e-08 0)
(1.33158e-06 -1.66451e-08 0)
(1.34998e-06 -1.75257e-08 0)
(1.37042e-06 -1.87419e-08 0)
(1.39266e-06 -2.0083e-08 0)
(1.24614e-06 -6.07051e-08 0)
(1.25194e-06 -4.56543e-08 0)
(1.25777e-06 -3.65065e-08 0)
(1.26624e-06 -3.15737e-08 0)
(1.27698e-06 -2.92972e-08 0)
(1.2904e-06 -2.88078e-08 0)
(1.30624e-06 -2.94972e-08 0)
(1.32431e-06 -3.09761e-08 0)
(1.34449e-06 -3.29948e-08 0)
(1.36648e-06 -3.52305e-08 0)
(1.21964e-06 -8.54484e-08 0)
(1.22142e-06 -6.56133e-08 0)
(1.22467e-06 -5.35998e-08 0)
(1.23148e-06 -4.71769e-08 0)
(1.2411e-06 -4.4267e-08 0)
(1.25369e-06 -4.3745e-08 0)
(1.26894e-06 -4.47992e-08 0)
(1.28658e-06 -4.69169e-08 0)
(1.30641e-06 -4.97614e-08 0)
(1.32807e-06 -5.28949e-08 0)
(1.18479e-06 -1.10597e-07 0)
(1.18164e-06 -8.71259e-08 0)
(1.1817e-06 -7.29654e-08 0)
(1.18639e-06 -6.55096e-08 0)
(1.19462e-06 -6.22351e-08 0)
(1.20625e-06 -6.18321e-08 0)
(1.22078e-06 -6.33388e-08 0)
(1.23789e-06 -6.61305e-08 0)
(1.25726e-06 -6.97972e-08 0)
(1.27855e-06 -7.38172e-08 0)
(1.14208e-06 -1.36171e-07 0)
(1.13328e-06 -1.10433e-07 0)
(1.12973e-06 -9.49756e-08 0)
(1.13201e-06 -8.70255e-08 0)
(1.13867e-06 -8.37209e-08 0)
(1.14919e-06 -8.36294e-08 0)
(1.16291e-06 -8.56707e-08 0)
(1.17939e-06 -8.91539e-08 0)
(1.19828e-06 -9.36274e-08 0)
(1.21924e-06 -9.85224e-08 0)
(1.09199e-06 -1.62124e-07 0)
(1.0772e-06 -1.35643e-07 0)
(1.06985e-06 -1.1984e-07 0)
(1.06958e-06 -1.11998e-07 0)
(1.07452e-06 -1.09029e-07 0)
(1.08383e-06 -1.0945e-07 0)
(1.09667e-06 -1.12121e-07 0)
(1.11247e-06 -1.16335e-07 0)
(1.13085e-06 -1.21626e-07 0)
(1.15159e-06 -1.27388e-07 0)
(1.03507e-06 -1.88328e-07 0)
(1.01433e-06 -1.62712e-07 0)
(1.00317e-06 -1.47571e-07 0)
(1.00031e-06 -1.40448e-07 0)
(1.00347e-06 -1.382e-07 0)
(1.01152e-06 -1.39359e-07 0)
(1.02344e-06 -1.42766e-07 0)
(1.03854e-06 -1.47748e-07 0)
(1.05643e-06 -1.53849e-07 0)
(1.07703e-06 -1.60467e-07 0)
(9.71963e-07 -2.14601e-07 0)
(9.45632e-07 -1.91416e-07 0)
(9.3091e-07 -1.77941e-07 0)
(9.25574e-07 -1.72157e-07 0)
(9.26989e-07 -1.71013e-07 0)
(9.33716e-07 -1.7316e-07 0)
(9.44616e-07 -1.77462e-07 0)
(9.58922e-07 -1.83287e-07 0)
(9.76148e-07 -1.90236e-07 0)
(9.96595e-07 -1.97653e-07 0)
(9.03322e-07 -2.4069e-07 0)
(8.72118e-07 -2.21343e-07 0)
(8.5422e-07 -2.10464e-07 0)
(8.46626e-07 -2.06624e-07 0)
(8.46342e-07 -2.06963e-07 0)
(8.51628e-07 -2.10376e-07 0)
(8.61291e-07 -2.1581e-07 0)
(8.74551e-07 -2.22737e-07 0)
(8.90903e-07 -2.30793e-07 0)
(9.10754e-07 -2.3953e-07 0)
(1.43e-06 -6.94085e-09 0)
(1.45598e-06 -7.15883e-09 0)
(1.4835e-06 -7.37156e-09 0)
(1.51244e-06 -7.5632e-09 0)
(1.54264e-06 -7.72278e-09 0)
(1.57403e-06 -7.83633e-09 0)
(1.60655e-06 -7.90198e-09 0)
(1.64004e-06 -7.94446e-09 0)
(1.67437e-06 -7.97454e-09 0)
(1.70948e-06 -7.97264e-09 0)
(1.74529e-06 -7.91352e-09 0)
(1.7817e-06 -7.7938e-09 0)
(1.81863e-06 -7.62178e-09 0)
(1.856e-06 -7.39982e-09 0)
(1.89373e-06 -7.1204e-09 0)
(1.93172e-06 -6.77359e-09 0)
(1.9699e-06 -6.34967e-09 0)
(2.00812e-06 -5.83948e-09 0)
(2.04635e-06 -5.23456e-09 0)
(2.08428e-06 -4.53974e-09 0)
(1.41715e-06 -2.13363e-08 0)
(1.4441e-06 -2.19414e-08 0)
(1.47252e-06 -2.25255e-08 0)
(1.50227e-06 -2.30329e-08 0)
(1.53324e-06 -2.3444e-08 0)
(1.56535e-06 -2.37538e-08 0)
(1.5985e-06 -2.39574e-08 0)
(1.63258e-06 -2.40778e-08 0)
(1.66748e-06 -2.4112e-08 0)
(1.7031e-06 -2.40334e-08 0)
(1.73939e-06 -2.38127e-08 0)
(1.77625e-06 -2.34446e-08 0)
(1.81363e-06 -2.29292e-08 0)
(1.85142e-06 -2.22565e-08 0)
(1.88953e-06 -2.14054e-08 0)
(1.92787e-06 -2.03542e-08 0)
(1.96637e-06 -1.90772e-08 0)
(2.00488e-06 -1.75497e-08 0)
(2.04343e-06 -1.57453e-08 0)
(2.08171e-06 -1.36692e-08 0)
(1.39201e-06 -3.71509e-08 0)
(1.4209e-06 -3.79298e-08 0)
(1.45113e-06 -3.86827e-08 0)
(1.48248e-06 -3.93519e-08 0)
(1.51489e-06 -3.9896e-08 0)
(1.54832e-06 -4.03144e-08 0)
(1.58273e-06 -4.05817e-08 0)
(1.61797e-06 -4.07096e-08 0)
(1.65393e-06 -4.06777e-08 0)
(1.69053e-06 -4.04616e-08 0)
(1.72775e-06 -4.00371e-08 0)
(1.76552e-06 -3.93937e-08 0)
(1.80374e-06 -3.85142e-08 0)
(1.84232e-06 -3.73717e-08 0)
(1.88119e-06 -3.59328e-08 0)
(1.92028e-06 -3.4163e-08 0)
(1.95949e-06 -3.20203e-08 0)
(1.99867e-06 -2.94739e-08 0)
(2.03789e-06 -2.64817e-08 0)
(2.07678e-06 -2.30448e-08 0)
(1.35509e-06 -5.52107e-08 0)
(1.38676e-06 -5.58033e-08 0)
(1.41961e-06 -5.64057e-08 0)
(1.45332e-06 -5.70071e-08 0)
(1.48794e-06 -5.74996e-08 0)
(1.52338e-06 -5.78732e-08 0)
(1.55961e-06 -5.80687e-08 0)
(1.59652e-06 -5.80946e-08 0)
(1.63406e-06 -5.79193e-08 0)
(1.67216e-06 -5.75106e-08 0)
(1.71079e-06 -5.68357e-08 0)
(1.74987e-06 -5.58706e-08 0)
(1.78932e-06 -5.45807e-08 0)
(1.82904e-06 -5.29286e-08 0)
(1.86901e-06 -5.08747e-08 0)
(1.90915e-06 -4.83698e-08 0)
(1.94938e-06 -4.5358e-08 0)
(1.98958e-06 -4.18023e-08 0)
(2.02977e-06 -3.76402e-08 0)
(2.06959e-06 -3.28689e-08 0)
(1.30748e-06 -7.62039e-08 0)
(1.3427e-06 -7.61861e-08 0)
(1.37895e-06 -7.62538e-08 0)
(1.4157e-06 -7.64918e-08 0)
(1.45313e-06 -7.66816e-08 0)
(1.49113e-06 -7.68101e-08 0)
(1.52976e-06 -7.67822e-08 0)
(1.56887e-06 -7.65837e-08 0)
(1.60846e-06 -7.61654e-08 0)
(1.64848e-06 -7.54795e-08 0)
(1.68889e-06 -7.44775e-08 0)
(1.72963e-06 -7.31191e-08 0)
(1.77064e-06 -7.13561e-08 0)
(1.81188e-06 -6.91442e-08 0)
(1.85331e-06 -6.64372e-08 0)
(1.89481e-06 -6.31754e-08 0)
(1.93638e-06 -5.92921e-08 0)
(1.97783e-06 -5.47379e-08 0)
(2.01927e-06 -4.94284e-08 0)
(2.0603e-06 -4.33432e-08 0)
(1.25043e-06 -1.00628e-07 0)
(1.28983e-06 -9.95194e-08 0)
(1.33012e-06 -9.86067e-08 0)
(1.37052e-06 -9.81354e-08 0)
(1.41136e-06 -9.77435e-08 0)
(1.45249e-06 -9.73988e-08 0)
(1.49402e-06 -9.69638e-08 0)
(1.5358e-06 -9.63849e-08 0)
(1.57784e-06 -9.55854e-08 0)
(1.62013e-06 -9.45041e-08 0)
(1.66267e-06 -9.30791e-08 0)
(1.70542e-06 -9.12506e-08 0)
(1.74832e-06 -8.89561e-08 0)
(1.79134e-06 -8.61442e-08 0)
(1.83449e-06 -8.27555e-08 0)
(1.8776e-06 -7.87213e-08 0)
(1.92074e-06 -7.39661e-08 0)
(1.9637e-06 -6.84226e-08 0)
(2.00665e-06 -6.1977e-08 0)
(2.04915e-06 -5.45778e-08 0)
(1.18536e-06 -1.28856e-07 0)
(1.2295e-06 -1.26155e-07 0)
(1.27443e-06 -1.23807e-07 0)
(1.31904e-06 -1.2224e-07 0)
(1.3638e-06 -1.20944e-07 0)
(1.40851e-06 -1.19857e-07 0)
(1.45329e-06 -1.18787e-07 0)
(1.49807e-06 -1.17645e-07 0)
(1.5429e-06 -1.16318e-07 0)
(1.58779e-06 -1.14714e-07 0)
(1.63276e-06 -1.12757e-07 0)
(1.67778e-06 -1.10369e-07 0)
(1.72281e-06 -1.07477e-07 0)
(1.76787e-06 -1.04018e-07 0)
(1.81291e-06 -9.99173e-08 0)
(1.85785e-06 -9.50948e-08 0)
(1.90279e-06 -8.94605e-08 0)
(1.94749e-06 -8.29226e-08 0)
(1.99215e-06 -7.53252e-08 0)
(2.03635e-06 -6.65946e-08 0)
(1.11368e-06 -1.60976e-07 0)
(1.16305e-06 -1.56128e-07 0)
(1.21312e-06 -1.51881e-07 0)
(1.26244e-06 -1.48792e-07 0)
(1.31152e-06 -1.46239e-07 0)
(1.36021e-06 -1.44104e-07 0)
(1.40861e-06 -1.42138e-07 0)
(1.45672e-06 -1.4021e-07 0)
(1.50461e-06 -1.38178e-07 0)
(1.55236e-06 -1.35915e-07 0)
(1.59998e-06 -1.33318e-07 0)
(1.64744e-06 -1.30295e-07 0)
(1.69475e-06 -1.26759e-07 0)
(1.74196e-06 -1.22628e-07 0)
(1.78906e-06 -1.17809e-07 0)
(1.83601e-06 -1.12203e-07 0)
(1.88289e-06 -1.05693e-07 0)
(1.92949e-06 -9.81566e-08 0)
(1.97603e-06 -8.93973e-08 0)
(2.02211e-06 -7.93368e-08 0)
(1.03675e-06 -1.97098e-07 0)
(1.09204e-06 -1.89569e-07 0)
(1.14775e-06 -1.8307e-07 0)
(1.20221e-06 -1.78033e-07 0)
(1.25595e-06 -1.73892e-07 0)
(1.30887e-06 -1.70376e-07 0)
(1.36111e-06 -1.67232e-07 0)
(1.41273e-06 -1.64273e-07 0)
(1.46385e-06 -1.61323e-07 0)
(1.51456e-06 -1.58222e-07 0)
(1.56492e-06 -1.54845e-07 0)
(1.61492e-06 -1.5108e-07 0)
(1.66463e-06 -1.46827e-07 0)
(1.71412e-06 -1.41979e-07 0)
(1.76336e-06 -1.36414e-07 0)
(1.8124e-06 -1.30009e-07 0)
(1.8613e-06 -1.22617e-07 0)
(1.90991e-06 -1.14078e-07 0)
(1.95843e-06 -1.04169e-07 0)
(2.00655e-06 -9.28195e-08 0)
(9.55923e-07 -2.37425e-07 0)
(1.0185e-06 -2.26176e-07 0)
(1.08037e-06 -2.16903e-07 0)
(1.14038e-06 -2.09367e-07 0)
(1.19898e-06 -2.03166e-07 0)
(1.25626e-06 -1.97898e-07 0)
(1.3124e-06 -1.9329e-07 0)
(1.36756e-06 -1.89085e-07 0)
(1.42192e-06 -1.85058e-07 0)
(1.47562e-06 -1.81008e-07 0)
(1.52872e-06 -1.76778e-07 0)
(1.58128e-06 -1.72233e-07 0)
(1.63338e-06 -1.67245e-07 0)
(1.68513e-06 -1.6168e-07 0)
(1.7365e-06 -1.55383e-07 0)
(1.78761e-06 -1.48209e-07 0)
(1.8385e-06 -1.39976e-07 0)
(1.8891e-06 -1.305e-07 0)
(1.93958e-06 -1.19533e-07 0)
(1.98977e-06 -1.06992e-07 0)
(8.90458e-07 -2.79866e-07 0)
(9.61382e-07 -2.63611e-07 0)
(1.02841e-06 -2.51507e-07 0)
(1.09263e-06 -2.41584e-07 0)
(1.15468e-06 -2.33331e-07 0)
(1.215e-06 -2.26281e-07 0)
(1.27386e-06 -2.20097e-07 0)
(1.33149e-06 -2.14486e-07 0)
(1.38811e-06 -2.09193e-07 0)
(1.44387e-06 -2.04e-07 0)
(1.49888e-06 -1.98729e-07 0)
(1.55317e-06 -1.93227e-07 0)
(1.60689e-06 -1.87346e-07 0)
(1.66015e-06 -1.80928e-07 0)
(1.71292e-06 -1.73803e-07 0)
(1.76538e-06 -1.65808e-07 0)
(1.81752e-06 -1.56748e-07 0)
(1.86936e-06 -1.46437e-07 0)
(1.92105e-06 -1.34628e-07 0)
(1.97252e-06 -1.21188e-07 0)
(8.55461e-07 -3.15444e-07 0)
(9.26751e-07 -2.98042e-07 0)
(9.94875e-07 -2.84045e-07 0)
(1.0606e-06 -2.72325e-07 0)
(1.1242e-06 -2.62407e-07 0)
(1.186e-06 -2.53837e-07 0)
(1.24626e-06 -2.4624e-07 0)
(1.30521e-06 -2.39312e-07 0)
(1.36303e-06 -2.32796e-07 0)
(1.4199e-06 -2.26469e-07 0)
(1.4759e-06 -2.20142e-07 0)
(1.53109e-06 -2.13652e-07 0)
(1.58565e-06 -2.06842e-07 0)
(1.63965e-06 -1.99546e-07 0)
(1.69309e-06 -1.9159e-07 0)
(1.74616e-06 -1.82815e-07 0)
(1.79884e-06 -1.73027e-07 0)
(1.8512e-06 -1.62059e-07 0)
(1.90337e-06 -1.49661e-07 0)
(1.95531e-06 -1.35623e-07 0)
(8.27953e-07 -3.48451e-07 0)
(8.98105e-07 -3.30974e-07 0)
(9.66131e-07 -3.16061e-07 0)
(1.03222e-06 -3.031e-07 0)
(1.09652e-06 -2.91848e-07 0)
(1.15915e-06 -2.81943e-07 0)
(1.22032e-06 -2.7304e-07 0)
(1.28016e-06 -2.64859e-07 0)
(1.33886e-06 -2.57155e-07 0)
(1.39656e-06 -2.49709e-07 0)
(1.45333e-06 -2.42326e-07 0)
(1.50924e-06 -2.34835e-07 0)
(1.56446e-06 -2.27081e-07 0)
(1.61908e-06 -2.18893e-07 0)
(1.67307e-06 -2.10101e-07 0)
(1.72665e-06 -2.00555e-07 0)
(1.77978e-06 -1.90074e-07 0)
(1.83258e-06 -1.78495e-07 0)
(1.88514e-06 -1.65541e-07 0)
(1.93748e-06 -1.50957e-07 0)
(8.04613e-07 -3.79837e-07 0)
(8.73489e-07 -3.6249e-07 0)
(9.40905e-07 -3.47099e-07 0)
(1.0068e-06 -3.33302e-07 0)
(1.07122e-06 -3.21014e-07 0)
(1.13421e-06 -3.09977e-07 0)
(1.19587e-06 -2.99918e-07 0)
(1.25627e-06 -2.90592e-07 0)
(1.31555e-06 -2.81777e-07 0)
(1.37384e-06 -2.73267e-07 0)
(1.43118e-06 -2.64866e-07 0)
(1.48763e-06 -2.56407e-07 0)
(1.54339e-06 -2.47741e-07 0)
(1.5985e-06 -2.38699e-07 0)
(1.65295e-06 -2.29117e-07 0)
(1.70697e-06 -2.18854e-07 0)
(1.76049e-06 -2.0774e-07 0)
(1.81367e-06 -1.956e-07 0)
(1.86658e-06 -1.82132e-07 0)
(1.91927e-06 -1.67134e-07 0)
(7.84432e-07 -4.09845e-07 0)
(8.52021e-07 -3.92705e-07 0)
(9.18575e-07 -3.77107e-07 0)
(9.83952e-07 -3.62775e-07 0)
(1.04814e-06 -3.49711e-07 0)
(1.11113e-06 -3.37758e-07 0)
(1.17295e-06 -3.26714e-07 0)
(1.2336e-06 -3.16375e-07 0)
(1.2932e-06 -3.06548e-07 0)
(1.35185e-06 -2.97048e-07 0)
(1.40958e-06 -2.8769e-07 0)
(1.46643e-06 -2.78315e-07 0)
(1.52259e-06 -2.6879e-07 0)
(1.57808e-06 -2.58951e-07 0)
(1.63292e-06 -2.48637e-07 0)
(1.68729e-06 -2.37714e-07 0)
(1.74115e-06 -2.26012e-07 0)
(1.79465e-06 -2.13347e-07 0)
(1.84786e-06 -1.9943e-07 0)
(1.90088e-06 -1.84198e-07 0)
(7.66655e-07 -4.38645e-07 0)
(8.32985e-07 -4.21779e-07 0)
(8.98599e-07 -4.06107e-07 0)
(9.63272e-07 -3.91427e-07 0)
(1.027e-06 -3.77787e-07 0)
(1.08974e-06 -3.65109e-07 0)
(1.15146e-06 -3.53248e-07 0)
(1.21213e-06 -3.42038e-07 0)
(1.27183e-06 -3.31315e-07 0)
(1.33067e-06 -3.20922e-07 0)
(1.38862e-06 -3.1069e-07 0)
(1.44573e-06 -3.00475e-07 0)
(1.50218e-06 -2.90162e-07 0)
(1.55796e-06 -2.79595e-07 0)
(1.61309e-06 -2.68614e-07 0)
(1.66775e-06 -2.57081e-07 0)
(1.72189e-06 -2.44833e-07 0)
(1.77567e-06 -2.31693e-07 0)
(1.82915e-06 -2.17446e-07 0)
(1.88246e-06 -2.02111e-07 0)
(7.50817e-07 -4.66367e-07 0)
(8.15922e-07 -4.498e-07 0)
(8.80568e-07 -4.34136e-07 0)
(9.44427e-07 -4.19248e-07 0)
(1.00755e-06 -4.05207e-07 0)
(1.06987e-06 -3.91975e-07 0)
(1.13132e-06 -3.79454e-07 0)
(1.19182e-06 -3.67512e-07 0)
(1.25146e-06 -3.56011e-07 0)
(1.31033e-06 -3.44831e-07 0)
(1.36837e-06 -3.33818e-07 0)
(1.42562e-06 -3.22845e-07 0)
(1.48226e-06 -3.11814e-07 0)
(1.53823e-06 -3.00574e-07 0)
(1.59359e-06 -2.88974e-07 0)
(1.64846e-06 -2.76871e-07 0)
(1.70282e-06 -2.64118e-07 0)
(1.75683e-06 -2.50576e-07 0)
(1.81055e-06 -2.36119e-07 0)
(1.86411e-06 -2.20681e-07 0)
(7.36562e-07 -4.93088e-07 0)
(8.00505e-07 -4.7682e-07 0)
(8.64161e-07 -4.61232e-07 0)
(9.27156e-07 -4.46244e-07 0)
(9.89585e-07 -4.31932e-07 0)
(1.05136e-06 -4.18277e-07 0)
(1.1124e-06 -4.05221e-07 0)
(1.17261e-06 -3.92661e-07 0)
(1.23207e-06 -3.80489e-07 0)
(1.29083e-06 -3.68624e-07 0)
(1.34885e-06 -3.56927e-07 0)
(1.40614e-06 -3.45286e-07 0)
(1.46287e-06 -3.3361e-07 0)
(1.51895e-06 -3.21757e-07 0)
(1.57446e-06 -3.09585e-07 0)
(1.62949e-06 -2.96965e-07 0)
(1.68402e-06 -2.83778e-07 0)
(1.73823e-06 -2.69928e-07 0)
(1.79214e-06 -2.55319e-07 0)
(1.84591e-06 -2.39747e-07 0)
(7.23578e-07 -5.18883e-07 0)
(7.86428e-07 -5.02916e-07 0)
(8.49093e-07 -4.8745e-07 0)
(9.11212e-07 -4.7243e-07 0)
(9.72892e-07 -4.5793e-07 0)
(1.03405e-06 -4.43941e-07 0)
(1.0946e-06 -4.30444e-07 0)
(1.15442e-06 -4.17369e-07 0)
(1.21359e-06 -4.04627e-07 0)
(1.27217e-06 -3.92182e-07 0)
(1.33007e-06 -3.79904e-07 0)
(1.38732e-06 -3.67695e-07 0)
(1.44405e-06 -3.55461e-07 0)
(1.50017e-06 -3.43066e-07 0)
(1.55575e-06 -3.30391e-07 0)
(1.61089e-06 -3.17332e-07 0)
(1.66556e-06 -3.03802e-07 0)
(1.71992e-06 -2.89722e-07 0)
(1.77399e-06 -2.74947e-07 0)
(1.82794e-06 -2.59335e-07 0)
(7.11601e-07 -5.43848e-07 0)
(7.73412e-07 -5.28191e-07 0)
(8.3511e-07 -5.1286e-07 0)
(8.96358e-07 -4.97837e-07 0)
(9.57265e-07 -4.83197e-07 0)
(1.01776e-06 -4.68947e-07 0)
(1.07776e-06 -4.551e-07 0)
(1.13714e-06 -4.41614e-07 0)
(1.19597e-06 -4.28413e-07 0)
(1.25429e-06 -4.15493e-07 0)
(1.312e-06 -4.02736e-07 0)
(1.36913e-06 -3.90048e-07 0)
(1.42579e-06 -3.77337e-07 0)
(1.48188e-06 -3.64475e-07 0)
(1.53749e-06 -3.51371e-07 0)
(1.59269e-06 -3.37952e-07 0)
(1.64746e-06 -3.24149e-07 0)
(1.70194e-06 -3.09863e-07 0)
(1.75614e-06 -2.94917e-07 0)
(1.81023e-06 -2.7941e-07 0)
(7.00414e-07 -5.68092e-07 0)
(7.61231e-07 -5.52734e-07 0)
(8.2199e-07 -5.37531e-07 0)
(8.82379e-07 -5.22521e-07 0)
(9.4251e-07 -5.0779e-07 0)
(1.00233e-06 -4.93352e-07 0)
(1.06176e-06 -4.79246e-07 0)
(1.12066e-06 -4.65448e-07 0)
(1.1791e-06 -4.51889e-07 0)
(1.23711e-06 -4.38576e-07 0)
(1.29458e-06 -4.25406e-07 0)
(1.35154e-06 -4.12299e-07 0)
(1.40807e-06 -3.99165e-07 0)
(1.4641e-06 -3.85899e-07 0)
(1.51969e-06 -3.72435e-07 0)
(1.57492e-06 -3.58716e-07 0)
(1.62975e-06 -3.44666e-07 0)
(1.68432e-06 -3.3017e-07 0)
(1.73863e-06 -3.1515e-07 0)
(1.79283e-06 -2.99736e-07 0)
(6.89819e-07 -5.91686e-07 0)
(7.49681e-07 -5.76577e-07 0)
(8.09528e-07 -5.61505e-07 0)
(8.69081e-07 -5.46534e-07 0)
(9.28453e-07 -5.31759e-07 0)
(9.87609e-07 -5.17193e-07 0)
(1.04645e-06 -5.02894e-07 0)
(1.10486e-06 -4.88843e-07 0)
(1.16289e-06 -4.75003e-07 0)
(1.22056e-06 -4.61355e-07 0)
(1.27776e-06 -4.47827e-07 0)
(1.3345e-06 -4.34356e-07 0)
(1.39087e-06 -4.20867e-07 0)
(1.4468e-06 -4.07276e-07 0)
(1.50235e-06 -3.9353e-07 0)
(1.55758e-06 -3.79567e-07 0)
(1.61244e-06 -3.65295e-07 0)
(1.66706e-06 -3.50636e-07 0)
(1.72144e-06 -3.35668e-07 0)
(1.77573e-06 -3.20259e-07 0)
(6.79623e-07 -6.14651e-07 0)
(7.38572e-07 -5.99754e-07 0)
(7.97545e-07 -5.84832e-07 0)
(8.56296e-07 -5.69923e-07 0)
(9.14936e-07 -5.5513e-07 0)
(9.73441e-07 -5.40468e-07 0)
(1.03171e-06 -5.26025e-07 0)
(1.08963e-06 -5.11765e-07 0)
(1.14724e-06 -4.97719e-07 0)
(1.20455e-06 -4.83821e-07 0)
(1.26144e-06 -4.70016e-07 0)
(1.31795e-06 -4.56263e-07 0)
(1.37415e-06 -4.42498e-07 0)
(1.42996e-06 -4.28655e-07 0)
(1.48545e-06 -4.14681e-07 0)
(1.54065e-06 -4.00504e-07 0)
(1.59551e-06 -3.86054e-07 0)
(1.65017e-06 -3.71331e-07 0)
(1.7046e-06 -3.56395e-07 0)
(1.75897e-06 -3.41065e-07 0)
(6.69655e-07 -6.37035e-07 0)
(7.27737e-07 -6.22375e-07 0)
(7.85882e-07 -6.07599e-07 0)
(8.43873e-07 -5.92755e-07 0)
(9.01814e-07 -5.77961e-07 0)
(9.59695e-07 -5.63242e-07 0)
(1.01741e-06 -5.48721e-07 0)
(1.07485e-06 -5.34325e-07 0)
(1.13203e-06 -5.20123e-07 0)
(1.18898e-06 -5.06031e-07 0)
(1.24557e-06 -4.92e-07 0)
(1.30184e-06 -4.78006e-07 0)
(1.35787e-06 -4.64007e-07 0)
(1.41356e-06 -4.49948e-07 0)
(1.46896e-06 -4.35769e-07 0)
(1.5241e-06 -4.21409e-07 0)
(1.57895e-06 -4.06845e-07 0)
(1.63363e-06 -3.92134e-07 0)
(1.68812e-06 -3.7713e-07 0)
(1.74254e-06 -3.61952e-07 0)
(6.5976e-07 -6.58979e-07 0)
(7.17026e-07 -6.44534e-07 0)
(7.74395e-07 -6.29875e-07 0)
(8.31668e-07 -6.15098e-07 0)
(8.88953e-07 -6.00338e-07 0)
(9.46248e-07 -5.85621e-07 0)
(1.00344e-06 -5.71044e-07 0)
(1.0604e-06 -5.56549e-07 0)
(1.11716e-06 -5.42177e-07 0)
(1.17376e-06 -5.27909e-07 0)
(1.23007e-06 -5.13713e-07 0)
(1.28612e-06 -4.99558e-07 0)
(1.34198e-06 -4.85395e-07 0)
(1.39753e-06 -4.71168e-07 0)
(1.45282e-06 -4.56826e-07 0)
(1.50791e-06 -4.42342e-07 0)
(1.56275e-06 -4.27735e-07 0)
(1.61746e-06 -4.13004e-07 0)
(1.67198e-06 -3.97997e-07 0)
(1.72641e-06 -3.82874e-07 0)
(6.498e-07 -6.80557e-07 0)
(7.06297e-07 -6.66239e-07 0)
(7.62934e-07 -6.51678e-07 0)
(8.1955e-07 -6.36999e-07 0)
(8.76233e-07 -6.22288e-07 0)
(9.32983e-07 -6.076e-07 0)
(9.89671e-07 -5.92967e-07 0)
(1.04617e-06 -5.78431e-07 0)
(1.10255e-06 -5.63966e-07 0)
(1.15883e-06 -5.49571e-07 0)
(1.21489e-06 -5.35245e-07 0)
(1.27074e-06 -5.20958e-07 0)
(1.32642e-06 -5.06658e-07 0)
(1.38182e-06 -4.92294e-07 0)
(1.43702e-06 -4.77838e-07 0)
(1.49207e-06 -4.63297e-07 0)
(1.54692e-06 -4.48674e-07 0)
(1.60163e-06 -4.33836e-07 0)
(1.65613e-06 -4.18932e-07 0)
(1.71054e-06 -4.03874e-07 0)
(6.39636e-07 -7.01662e-07 0)
(6.95387e-07 -6.87493e-07 0)
(7.51335e-07 -6.73087e-07 0)
(8.07381e-07 -6.58534e-07 0)
(8.63517e-07 -6.4387e-07 0)
(9.19763e-07 -6.29209e-07 0)
(9.75982e-07 -6.14567e-07 0)
(1.03208e-06 -5.99983e-07 0)
(1.08813e-06 -5.85453e-07 0)
(1.14415e-06 -5.70983e-07 0)
(1.19999e-06 -5.56569e-07 0)
(1.25562e-06 -5.42178e-07 0)
(1.31112e-06 -5.27765e-07 0)
(1.36639e-06 -5.13306e-07 0)
(1.42155e-06 -4.98795e-07 0)
(1.4766e-06 -4.84225e-07 0)
(1.53139e-06 -4.69543e-07 0)
(1.58599e-06 -4.54664e-07 0)
(1.6405e-06 -4.39781e-07 0)
(1.69507e-06 -4.24828e-07 0)
(6.29038e-07 -7.22339e-07 0)
(6.84157e-07 -7.08384e-07 0)
(7.39542e-07 -6.9413e-07 0)
(7.95031e-07 -6.79669e-07 0)
(8.50666e-07 -6.65118e-07 0)
(9.06448e-07 -6.5049e-07 0)
(9.62271e-07 -6.35859e-07 0)
(1.01806e-06 -6.21261e-07 0)
(1.07386e-06 -6.06707e-07 0)
(1.12965e-06 -5.922e-07 0)
(1.18524e-06 -5.77727e-07 0)
(1.24066e-06 -5.63267e-07 0)
(1.29606e-06 -5.48792e-07 0)
(1.35133e-06 -5.34285e-07 0)
(1.40641e-06 -5.1974e-07 0)
(1.46127e-06 -5.05127e-07 0)
(1.51599e-06 -4.9036e-07 0)
(1.57072e-06 -4.75571e-07 0)
(1.62521e-06 -4.60659e-07 0)
(1.67958e-06 -4.45758e-07 0)
(6.17851e-07 -7.42876e-07 0)
(6.72394e-07 -7.29034e-07 0)
(7.27255e-07 -7.14901e-07 0)
(7.82267e-07 -7.00558e-07 0)
(8.37465e-07 -6.86069e-07 0)
(8.92893e-07 -6.71505e-07 0)
(9.48475e-07 -6.56913e-07 0)
(1.00407e-06 -6.42319e-07 0)
(1.05963e-06 -6.27749e-07 0)
(1.11515e-06 -6.13216e-07 0)
(1.17058e-06 -5.98713e-07 0)
(1.226e-06 -5.84213e-07 0)
(1.28134e-06 -5.69699e-07 0)
(1.33638e-06 -5.55168e-07 0)
(1.39135e-06 -5.40592e-07 0)
(1.44629e-06 -5.25929e-07 0)
(1.50098e-06 -5.11143e-07 0)
(1.55561e-06 -4.96328e-07 0)
(1.61011e-06 -4.81438e-07 0)
(1.66446e-06 -4.6659e-07 0)
(6.05906e-07 -7.62932e-07 0)
(6.59938e-07 -7.49336e-07 0)
(7.14326e-07 -7.35383e-07 0)
(7.68926e-07 -7.21172e-07 0)
(8.23871e-07 -7.06798e-07 0)
(8.79161e-07 -6.92326e-07 0)
(9.3456e-07 -6.77792e-07 0)
(9.89885e-07 -6.63235e-07 0)
(1.04528e-06 -6.48688e-07 0)
(1.10081e-06 -6.34157e-07 0)
(1.15621e-06 -6.19642e-07 0)
(1.21143e-06 -6.05126e-07 0)
(1.26666e-06 -5.9059e-07 0)
(1.32172e-06 -5.76034e-07 0)
(1.37661e-06 -5.61423e-07 0)
(1.43147e-06 -5.46723e-07 0)
(1.48616e-06 -5.32022e-07 0)
(1.54075e-06 -5.17063e-07 0)
(1.59526e-06 -5.02154e-07 0)
(1.64946e-06 -4.87189e-07 0)
(3.94818e-08 -5.72114e-07 0)
(1.18718e-07 -5.64516e-07 0)
(1.98749e-07 -5.49226e-07 0)
(2.79989e-07 -5.27319e-07 0)
(3.62775e-07 -4.99328e-07 0)
(4.47329e-07 -4.66512e-07 0)
(5.33696e-07 -4.29993e-07 0)
(6.21769e-07 -3.90951e-07 0)
(7.11511e-07 -3.5058e-07 0)
(8.02356e-07 -3.09739e-07 0)
(3.89711e-08 -5.84222e-07 0)
(1.17115e-07 -5.77365e-07 0)
(1.95839e-07 -5.63444e-07 0)
(2.75434e-07 -5.43538e-07 0)
(3.56131e-07 -5.18009e-07 0)
(4.38073e-07 -4.87933e-07 0)
(5.21221e-07 -4.54298e-07 0)
(6.05399e-07 -4.18117e-07 0)
(6.90218e-07 -3.80581e-07 0)
(7.75117e-07 -3.42672e-07 0)
(3.84411e-08 -5.96919e-07 0)
(1.15456e-07 -5.90751e-07 0)
(1.92833e-07 -5.7809e-07 0)
(2.7077e-07 -5.60012e-07 0)
(3.49412e-07 -5.3678e-07 0)
(4.28819e-07 -5.09274e-07 0)
(5.08924e-07 -4.78386e-07 0)
(5.89614e-07 -4.44952e-07 0)
(6.70526e-07 -4.10057e-07 0)
(7.51373e-07 -3.74413e-07 0)
(3.79014e-08 -6.10138e-07 0)
(1.13806e-07 -6.04538e-07 0)
(1.89918e-07 -5.92946e-07 0)
(2.6636e-07 -5.76393e-07 0)
(3.43225e-07 -5.55105e-07 0)
(4.2049e-07 -5.29759e-07 0)
(4.98086e-07 -5.01234e-07 0)
(5.75874e-07 -4.70259e-07 0)
(6.53541e-07 -4.37854e-07 0)
(7.30854e-07 -4.04583e-07 0)
(3.73674e-08 -6.23802e-07 0)
(1.12144e-07 -6.18704e-07 0)
(1.87032e-07 -6.08062e-07 0)
(2.62069e-07 -5.92836e-07 0)
(3.37304e-07 -5.73276e-07 0)
(4.12681e-07 -5.49886e-07 0)
(4.88117e-07 -5.23519e-07 0)
(5.63498e-07 -4.94806e-07 0)
(6.38552e-07 -4.64635e-07 0)
(7.12962e-07 -4.33524e-07 0)
(3.68483e-08 -6.37866e-07 0)
(1.10512e-07 -6.33176e-07 0)
(1.84225e-07 -6.2338e-07 0)
(2.57952e-07 -6.09294e-07 0)
(3.3171e-07 -5.91236e-07 0)
(4.05444e-07 -5.69588e-07 0)
(4.79023e-07 -5.45135e-07 0)
(5.52338e-07 -5.1847e-07 0)
(6.25177e-07 -4.90357e-07 0)
(6.97145e-07 -4.61312e-07 0)
(3.63099e-08 -6.52296e-07 0)
(1.08892e-07 -6.47938e-07 0)
(1.81456e-07 -6.38927e-07 0)
(2.53935e-07 -6.2584e-07 0)
(3.26339e-07 -6.09097e-07 0)
(3.98596e-07 -5.89024e-07 0)
(4.70571e-07 -5.66292e-07 0)
(5.42119e-07 -5.41463e-07 0)
(6.1309e-07 -5.15203e-07 0)
(6.83033e-07 -4.88042e-07 0)
(3.5769e-08 -6.67044e-07 0)
(1.07289e-07 -6.62953e-07 0)
(1.78726e-07 -6.54646e-07 0)
(2.50016e-07 -6.42433e-07 0)
(3.21177e-07 -6.26845e-07 0)
(3.92095e-07 -6.08184e-07 0)
(4.62645e-07 -5.87003e-07 0)
(5.32657e-07 -5.6381e-07 0)
(6.02034e-07 -5.39236e-07 0)
(6.70301e-07 -5.13798e-07 0)
(3.52545e-08 -6.82076e-07 0)
(1.05704e-07 -6.78207e-07 0)
(1.76025e-07 -6.70514e-07 0)
(2.46176e-07 -6.591e-07 0)
(3.1616e-07 -6.44553e-07 0)
(3.8586e-07 -6.27152e-07 0)
(4.55138e-07 -6.07361e-07 0)
(5.23811e-07 -5.85626e-07 0)
(5.91816e-07 -5.62581e-07 0)
(6.58682e-07 -5.3871e-07 0)
(3.47473e-08 -6.97369e-07 0)
(1.04112e-07 -6.93681e-07 0)
(1.73337e-07 -6.86517e-07 0)
(2.42402e-07 -6.75844e-07 0)
(3.11261e-07 -6.6224e-07 0)
(3.79835e-07 -6.45948e-07 0)
(4.47968e-07 -6.274e-07 0)
(5.15455e-07 -6.07006e-07 0)
(5.82258e-07 -5.85354e-07 0)
(6.47934e-07 -5.62897e-07 0)
(3.42158e-08 -7.12881e-07 0)
(1.02503e-07 -7.09344e-07 0)
(1.7066e-07 -7.02646e-07 0)
(2.38666e-07 -6.92662e-07 0)
(3.06448e-07 -6.79914e-07 0)
(3.73958e-07 -6.64609e-07 0)
(4.41036e-07 -6.4718e-07 0)
(5.07457e-07 -6.2803e-07 0)
(5.73192e-07 -6.0762e-07 0)
(6.3785e-07 -5.86414e-07 0)
(3.36668e-08 -7.28539e-07 0)
(1.00897e-07 -7.25157e-07 0)
(1.68004e-07 -7.18881e-07 0)
(2.34953e-07 -7.09524e-07 0)
(3.01689e-07 -6.97544e-07 0)
(3.68171e-07 -6.83136e-07 0)
(4.34252e-07 -6.66725e-07 0)
(4.99694e-07 -6.48696e-07 0)
(5.64468e-07 -6.29374e-07 0)
(6.28245e-07 -6.09295e-07 0)
(3.31244e-08 -7.44298e-07 0)
(9.93044e-08 -7.41088e-07 0)
(1.65356e-07 -7.35193e-07 0)
(2.31238e-07 -7.26402e-07 0)
(2.96942e-07 -7.15107e-07 0)
(3.62419e-07 -7.01524e-07 0)
(4.27537e-07 -6.86054e-07 0)
(4.92056e-07 -6.69002e-07 0)
(5.55954e-07 -6.50674e-07 0)
(6.18952e-07 -6.31641e-07 0)
(3.25914e-08 -7.60127e-07 0)
(9.77016e-08 -7.57097e-07 0)
(1.62678e-07 -7.51535e-07 0)
(2.27487e-07 -7.43264e-07 0)
(2.92161e-07 -7.32604e-07 0)
(3.56644e-07 -7.19787e-07 0)
(4.20812e-07 -7.05174e-07 0)
(4.84446e-07 -6.88993e-07 0)
(5.47524e-07 -6.71628e-07 0)
(6.09811e-07 -6.53527e-07 0)
(3.20471e-08 -7.76009e-07 0)
(9.60476e-08 -7.73162e-07 0)
(1.59924e-07 -7.67895e-07 0)
(2.23653e-07 -7.60109e-07 0)
(2.87287e-07 -7.50051e-07 0)
(3.5077e-07 -7.37946e-07 0)
(4.1399e-07 -7.24066e-07 0)
(4.7676e-07 -7.08689e-07 0)
(5.39056e-07 -6.92233e-07 0)
(6.00684e-07 -6.74943e-07 0)
(3.14715e-08 -7.91891e-07 0)
(9.43156e-08 -7.89243e-07 0)
(1.57061e-07 -7.84253e-07 0)
(2.19692e-07 -7.7691e-07 0)
(2.8226e-07 -7.67374e-07 0)
(3.44723e-07 -7.55897e-07 0)
(4.06994e-07 -7.42701e-07 0)
(4.68914e-07 -7.28138e-07 0)
(5.30449e-07 -7.12487e-07 0)
(5.91451e-07 -6.96011e-07 0)
(3.08591e-08 -8.07771e-07 0)
(9.24951e-08 -8.05329e-07 0)
(1.54065e-07 -8.00575e-07 0)
(2.15556e-07 -7.9362e-07 0)
(2.7702e-07 -7.84605e-07 0)
(3.38436e-07 -7.73721e-07 0)
(3.99744e-07 -7.61199e-07 0)
(4.60802e-07 -7.4741e-07 0)
(5.2158e-07 -7.32432e-07 0)
(5.81956e-07 -7.1674e-07 0)
(3.02133e-08 -8.23549e-07 0)
(9.05811e-08 -8.21287e-07 0)
(1.50912e-07 -8.1677e-07 0)
(2.11203e-07 -8.10176e-07 0)
(2.71513e-07 -8.01611e-07 0)
(3.31845e-07 -7.91277e-07 0)
(3.9215e-07 -7.79416e-07 0)
(4.52313e-07 -7.66303e-07 0)
(5.12302e-07 -7.52046e-07 0)
(5.72051e-07 -7.37014e-07 0)
(2.95321e-08 -8.39254e-07 0)
(8.85527e-08 -8.37158e-07 0)
(1.47558e-07 -8.32893e-07 0)
(2.06568e-07 -8.2664e-07 0)
(2.65649e-07 -8.18519e-07 0)
(3.24834e-07 -8.08742e-07 0)
(3.84078e-07 -7.97529e-07 0)
(4.43283e-07 -7.85028e-07 0)
(5.02423e-07 -7.71502e-07 0)
(5.61513e-07 -7.57129e-07 0)
(2.88128e-08 -8.54641e-07 0)
(8.64004e-08 -8.5265e-07 0)
(1.43978e-07 -8.48641e-07 0)
(2.01617e-07 -8.42718e-07 0)
(2.59406e-07 -8.35031e-07 0)
(3.1737e-07 -8.25803e-07 0)
(3.75456e-07 -8.1519e-07 0)
(4.33591e-07 -8.03338e-07 0)
(4.9182e-07 -7.90476e-07 0)
(5.50233e-07 -7.76758e-07 0)
)


// ************************************************************************* //
