/*--------------------------------*- C++ -*----------------------------------*\
| =========                 |                                                 |
| \\      /  F ield         | foam-extend: Open Source CFD                    |
|  \\    /   O peration     | Version:     4.1                                |
|   \\  /    A nd           | Web:         http://www.foam-extend.org         |
|    \\/     M anipulation  |                                                 |
\*---------------------------------------------------------------------------*/
FoamFile
{
    version     2.0;
    format      ascii;
    class       vectorField;
    location    "2";
    object      solidsCellD_iteration9;
}
// * * * * * * * * * * * * * * * * * * * * * * * * * * * * * * * * * * * * * //


1000
(
(9.5228e-07 -3.46691e-07 0)
(9.0465e-07 -3.25939e-07 0)
(8.75444e-07 -3.14207e-07 0)
(8.59823e-07 -3.10565e-07 0)
(8.53718e-07 -3.11734e-07 0)
(8.54632e-07 -3.16549e-07 0)
(8.60719e-07 -3.23807e-07 0)
(8.70566e-07 -3.33002e-07 0)
(8.83578e-07 -3.43355e-07 0)
(8.97612e-07 -3.54657e-07 0)
(8.61936e-07 -3.78945e-07 0)
(8.11223e-07 -3.65976e-07 0)
(7.79924e-07 -3.59243e-07 0)
(7.62689e-07 -3.59063e-07 0)
(7.55141e-07 -3.62589e-07 0)
(7.54629e-07 -3.69085e-07 0)
(7.59273e-07 -3.77528e-07 0)
(7.67615e-07 -3.87613e-07 0)
(7.78925e-07 -3.98556e-07 0)
(7.9146e-07 -4.10518e-07 0)
(7.67773e-07 -4.09458e-07 0)
(7.15927e-07 -4.05175e-07 0)
(6.83776e-07 -4.03992e-07 0)
(6.65727e-07 -4.07529e-07 0)
(6.57351e-07 -4.13499e-07 0)
(6.5585e-07 -4.21665e-07 0)
(6.59387e-07 -4.3127e-07 0)
(6.66572e-07 -4.42116e-07 0)
(6.76597e-07 -4.53589e-07 0)
(6.88019e-07 -4.65794e-07 0)
(6.70488e-07 -4.37714e-07 0)
(6.19785e-07 -4.42487e-07 0)
(5.88206e-07 -4.4707e-07 0)
(5.7018e-07 -4.54417e-07 0)
(5.61509e-07 -4.62885e-07 0)
(5.59406e-07 -4.72723e-07 0)
(5.62033e-07 -4.83436e-07 0)
(5.68188e-07 -4.94996e-07 0)
(5.77005e-07 -5.06991e-07 0)
(5.87289e-07 -5.19509e-07 0)
(5.709e-07 -4.63138e-07 0)
(5.23414e-07 -4.76849e-07 0)
(4.93755e-07 -4.87113e-07 0)
(4.767e-07 -4.98204e-07 0)
(4.68291e-07 -5.0909e-07 0)
(4.65862e-07 -5.20559e-07 0)
(4.67776e-07 -5.32345e-07 0)
(4.7294e-07 -5.44606e-07 0)
(4.80575e-07 -5.57133e-07 0)
(4.89569e-07 -5.70006e-07 0)
(4.69293e-07 -4.85262e-07 0)
(4.27204e-07 -5.07294e-07 0)
(4.00894e-07 -5.22863e-07 0)
(3.85605e-07 -5.3747e-07 0)
(3.77905e-07 -5.5062e-07 0)
(3.75422e-07 -5.63595e-07 0)
(3.76827e-07 -5.76358e-07 0)
(3.81071e-07 -5.89274e-07 0)
(3.87454e-07 -6.02309e-07 0)
(3.94997e-07 -6.1556e-07 0)
(3.66362e-07 -5.03538e-07 0)
(3.3146e-07 -5.32875e-07 0)
(3.09622e-07 -5.53107e-07 0)
(2.96841e-07 -5.70791e-07 0)
(2.90329e-07 -5.85906e-07 0)
(2.88129e-07 -6.00197e-07 0)
(2.89137e-07 -6.13819e-07 0)
(2.92438e-07 -6.27331e-07 0)
(2.97468e-07 -6.40827e-07 0)
(3.03431e-07 -6.54424e-07 0)
(2.62408e-07 -5.17634e-07 0)
(2.36217e-07 -5.52845e-07 0)
(2.19855e-07 -5.76783e-07 0)
(2.1028e-07 -5.96889e-07 0)
(2.05372e-07 -6.13607e-07 0)
(2.03656e-07 -6.28967e-07 0)
(2.043e-07 -6.43311e-07 0)
(2.06634e-07 -6.57305e-07 0)
(2.10255e-07 -6.71171e-07 0)
(2.14562e-07 -6.8506e-07 0)
(1.57726e-07 -5.2721e-07 0)
(1.4152e-07 -5.66498e-07 0)
(1.31429e-07 -5.93018e-07 0)
(1.25468e-07 -6.14874e-07 0)
(1.22364e-07 -6.32713e-07 0)
(1.21251e-07 -6.48789e-07 0)
(1.21637e-07 -6.63643e-07 0)
(1.23061e-07 -6.78024e-07 0)
(1.25238e-07 -6.92176e-07 0)
(1.27829e-07 -7.0628e-07 0)
(5.26795e-08 -5.32035e-07 0)
(4.72003e-08 -5.73446e-07 0)
(4.37303e-08 -6.0129e-07 0)
(4.17027e-08 -6.24015e-07 0)
(4.06896e-08 -6.42425e-07 0)
(4.03009e-08 -6.58901e-07 0)
(4.03784e-08 -6.73996e-07 0)
(4.08451e-08 -6.88541e-07 0)
(4.15899e-08 -7.02838e-07 0)
(4.24539e-08 -7.17068e-07 0)
(1.47434e-06 -1.57321e-08 0)
(1.48626e-06 -1.14133e-08 0)
(1.49482e-06 -8.75043e-09 0)
(1.50466e-06 -7.25731e-09 0)
(1.51604e-06 -6.50939e-09 0)
(1.52983e-06 -6.28853e-09 0)
(1.5461e-06 -6.41906e-09 0)
(1.56477e-06 -6.72948e-09 0)
(1.5859e-06 -7.25465e-09 0)
(1.60915e-06 -7.87856e-09 0)
(1.4637e-06 -4.72469e-08 0)
(1.47366e-06 -3.45415e-08 0)
(1.481e-06 -2.66854e-08 0)
(1.48998e-06 -2.23608e-08 0)
(1.50078e-06 -2.02624e-08 0)
(1.51413e-06 -1.95657e-08 0)
(1.53012e-06 -1.99498e-08 0)
(1.54858e-06 -2.10326e-08 0)
(1.56946e-06 -2.26186e-08 0)
(1.59253e-06 -2.43885e-08 0)
(1.44245e-06 -7.89869e-08 0)
(1.44862e-06 -5.86611e-08 0)
(1.45359e-06 -4.61175e-08 0)
(1.46099e-06 -3.9112e-08 0)
(1.47074e-06 -3.57726e-08 0)
(1.48338e-06 -3.48269e-08 0)
(1.49877e-06 -3.55528e-08 0)
(1.5168e-06 -3.73484e-08 0)
(1.53724e-06 -3.99381e-08 0)
(1.55994e-06 -4.28797e-08 0)
(1.41094e-06 -1.1119e-07 0)
(1.41174e-06 -8.43228e-08 0)
(1.41328e-06 -6.78647e-08 0)
(1.41844e-06 -5.87424e-08 0)
(1.42667e-06 -5.44063e-08 0)
(1.43827e-06 -5.32546e-08 0)
(1.45287e-06 -5.43067e-08 0)
(1.4703e-06 -5.68369e-08 0)
(1.49016e-06 -6.04417e-08 0)
(1.51236e-06 -6.45511e-08 0)
(1.36957e-06 -1.43907e-07 0)
(1.36378e-06 -1.12021e-07 0)
(1.36108e-06 -9.25645e-08 0)
(1.36345e-06 -8.19284e-08 0)
(1.3698e-06 -7.69613e-08 0)
(1.3801e-06 -7.58111e-08 0)
(1.39371e-06 -7.73038e-08 0)
(1.41037e-06 -8.06e-08 0)
(1.42952e-06 -8.51748e-08 0)
(1.45115e-06 -9.03743e-08 0)
(1.31889e-06 -1.77197e-07 0)
(1.30562e-06 -1.42115e-07 0)
(1.2982e-06 -1.20767e-07 0)
(1.29743e-06 -1.09311e-07 0)
(1.30167e-06 -1.04167e-07 0)
(1.31047e-06 -1.03277e-07 0)
(1.32299e-06 -1.05316e-07 0)
(1.33877e-06 -1.09355e-07 0)
(1.35714e-06 -1.14843e-07 0)
(1.37813e-06 -1.21065e-07 0)
(1.25967e-06 -2.11e-07 0)
(1.23846e-06 -1.74755e-07 0)
(1.22601e-06 -1.5278e-07 0)
(1.22193e-06 -1.4129e-07 0)
(1.22394e-06 -1.36416e-07 0)
(1.23116e-06 -1.36048e-07 0)
(1.24253e-06 -1.38741e-07 0)
(1.25738e-06 -1.43508e-07 0)
(1.2749e-06 -1.49852e-07 0)
(1.29525e-06 -1.56993e-07 0)
(1.19256e-06 -2.4512e-07 0)
(1.16349e-06 -2.09855e-07 0)
(1.14607e-06 -1.88586e-07 0)
(1.13869e-06 -1.77888e-07 0)
(1.1385e-06 -1.73772e-07 0)
(1.14414e-06 -1.74219e-07 0)
(1.1543e-06 -1.77714e-07 0)
(1.1682e-06 -1.83258e-07 0)
(1.18488e-06 -1.90423e-07 0)
(1.20451e-06 -1.9837e-07 0)
(1.11841e-06 -2.79348e-07 0)
(1.08203e-06 -2.47103e-07 0)
(1.05998e-06 -2.27885e-07 0)
(1.04946e-06 -2.18797e-07 0)
(1.04715e-06 -2.15955e-07 0)
(1.05116e-06 -2.17505e-07 0)
(1.06006e-06 -2.2196e-07 0)
(1.07291e-06 -2.2833e-07 0)
(1.08868e-06 -2.36262e-07 0)
(1.10748e-06 -2.44738e-07 0)
(1.03806e-06 -3.1335e-07 0)
(9.954e-07 -2.86013e-07 0)
(9.69329e-07 -2.70031e-07 0)
(9.56018e-07 -2.63362e-07 0)
(9.51736e-07 -2.62313e-07 0)
(9.54259e-07 -2.65308e-07 0)
(9.62033e-07 -2.71012e-07 0)
(9.7387e-07 -2.78544e-07 0)
(9.8895e-07 -2.87498e-07 0)
(1.00642e-06 -2.97099e-07 0)
(1.63449e-06 -8.43399e-09 0)
(1.66201e-06 -8.66714e-09 0)
(1.69115e-06 -8.87932e-09 0)
(1.72181e-06 -9.05237e-09 0)
(1.75381e-06 -9.18402e-09 0)
(1.7871e-06 -9.27108e-09 0)
(1.82149e-06 -9.29359e-09 0)
(1.85685e-06 -9.28268e-09 0)
(1.89313e-06 -9.25848e-09 0)
(1.93027e-06 -9.1897e-09 0)
(1.96813e-06 -9.05477e-09 0)
(2.00663e-06 -8.8555e-09 0)
(2.04567e-06 -8.59824e-09 0)
(2.08517e-06 -8.29043e-09 0)
(2.12507e-06 -7.92841e-09 0)
(2.16526e-06 -7.49329e-09 0)
(2.20568e-06 -6.96327e-09 0)
(2.24617e-06 -6.32301e-09 0)
(2.28671e-06 -5.56451e-09 0)
(2.32695e-06 -4.69045e-09 0)
(1.61859e-06 -2.5957e-08 0)
(1.64739e-06 -2.65745e-08 0)
(1.6777e-06 -2.71333e-08 0)
(1.70939e-06 -2.75763e-08 0)
(1.74234e-06 -2.78714e-08 0)
(1.77643e-06 -2.80632e-08 0)
(1.81156e-06 -2.81505e-08 0)
(1.84764e-06 -2.81477e-08 0)
(1.88459e-06 -2.80289e-08 0)
(1.92231e-06 -2.77406e-08 0)
(1.9607e-06 -2.72883e-08 0)
(1.9997e-06 -2.66952e-08 0)
(2.03925e-06 -2.59526e-08 0)
(2.07923e-06 -2.50378e-08 0)
(2.11958e-06 -2.39225e-08 0)
(2.16018e-06 -2.25778e-08 0)
(2.201e-06 -2.09676e-08 0)
(2.24187e-06 -1.90584e-08 0)
(2.28278e-06 -1.68154e-08 0)
(2.32336e-06 -1.42211e-08 0)
(1.58737e-06 -4.5299e-08 0)
(1.61876e-06 -4.60275e-08 0)
(1.65138e-06 -4.6658e-08 0)
(1.68504e-06 -4.71756e-08 0)
(1.71978e-06 -4.75202e-08 0)
(1.75552e-06 -4.77409e-08 0)
(1.79218e-06 -4.77978e-08 0)
(1.8296e-06 -4.76862e-08 0)
(1.86777e-06 -4.73708e-08 0)
(1.90661e-06 -4.68149e-08 0)
(1.94607e-06 -4.60401e-08 0)
(1.98607e-06 -4.50545e-08 0)
(2.02654e-06 -4.38114e-08 0)
(2.06739e-06 -4.22607e-08 0)
(2.10854e-06 -4.03681e-08 0)
(2.14995e-06 -3.81022e-08 0)
(2.19154e-06 -3.54093e-08 0)
(2.23318e-06 -3.2239e-08 0)
(2.27485e-06 -2.85313e-08 0)
(2.31619e-06 -2.42388e-08 0)
(1.54175e-06 -6.74691e-08 0)
(1.57677e-06 -6.78463e-08 0)
(1.61271e-06 -6.81493e-08 0)
(1.64931e-06 -6.84504e-08 0)
(1.68673e-06 -6.86166e-08 0)
(1.72484e-06 -6.86854e-08 0)
(1.76365e-06 -6.85538e-08 0)
(1.80305e-06 -6.82191e-08 0)
(1.84308e-06 -6.76308e-08 0)
(1.88366e-06 -6.67585e-08 0)
(1.92471e-06 -6.56084e-08 0)
(1.96618e-06 -6.41587e-08 0)
(2.00801e-06 -6.23439e-08 0)
(2.05014e-06 -6.01156e-08 0)
(2.09252e-06 -5.74452e-08 0)
(2.13511e-06 -5.42706e-08 0)
(2.17783e-06 -5.05171e-08 0)
(2.22056e-06 -4.61079e-08 0)
(2.26328e-06 -4.09463e-08 0)
(2.30568e-06 -3.49944e-08 0)
(1.48304e-06 -9.33212e-08 0)
(1.52271e-06 -9.27786e-08 0)
(1.56291e-06 -9.22969e-08 0)
(1.6032e-06 -9.2047e-08 0)
(1.64399e-06 -9.17291e-08 0)
(1.68515e-06 -9.13861e-08 0)
(1.72676e-06 -9.08562e-08 0)
(1.76874e-06 -9.01495e-08 0)
(1.81112e-06 -8.91672e-08 0)
(1.85386e-06 -8.78661e-08 0)
(1.89694e-06 -8.6245e-08 0)
(1.94032e-06 -8.42629e-08 0)
(1.98396e-06 -8.18356e-08 0)
(2.02779e-06 -7.89048e-08 0)
(2.07181e-06 -7.54326e-08 0)
(2.11592e-06 -7.13326e-08 0)
(2.16013e-06 -6.65144e-08 0)
(2.20426e-06 -6.08844e-08 0)
(2.24839e-06 -5.42985e-08 0)
(2.29217e-06 -4.67354e-08 0)
(1.41284e-06 -1.23533e-07 0)
(1.45783e-06 -1.21403e-07 0)
(1.50304e-06 -1.1954e-07 0)
(1.54777e-06 -1.18287e-07 0)
(1.59266e-06 -1.17126e-07 0)
(1.6375e-06 -1.16093e-07 0)
(1.68243e-06 -1.14932e-07 0)
(1.72748e-06 -1.13633e-07 0)
(1.77269e-06 -1.12094e-07 0)
(1.81806e-06 -1.10256e-07 0)
(1.86359e-06 -1.08087e-07 0)
(1.90928e-06 -1.05514e-07 0)
(1.95508e-06 -1.0243e-07 0)
(2.00095e-06 -9.87665e-08 0)
(2.04691e-06 -9.44617e-08 0)
(2.09285e-06 -8.94236e-08 0)
(2.13885e-06 -8.3543e-08 0)
(2.18469e-06 -7.67196e-08 0)
(2.23053e-06 -6.87655e-08 0)
(2.27598e-06 -5.96334e-08 0)
(1.3331e-06 -1.58466e-07 0)
(1.38396e-06 -1.54066e-07 0)
(1.43477e-06 -1.50235e-07 0)
(1.48446e-06 -1.47492e-07 0)
(1.53387e-06 -1.45084e-07 0)
(1.58286e-06 -1.42999e-07 0)
(1.63156e-06 -1.40962e-07 0)
(1.68008e-06 -1.38879e-07 0)
(1.72853e-06 -1.36637e-07 0)
(1.77693e-06 -1.34147e-07 0)
(1.82529e-06 -1.31331e-07 0)
(1.87362e-06 -1.28076e-07 0)
(1.92189e-06 -1.24261e-07 0)
(1.9701e-06 -1.19813e-07 0)
(2.01828e-06 -1.14651e-07 0)
(2.06638e-06 -1.08677e-07 0)
(2.11445e-06 -1.01757e-07 0)
(2.1623e-06 -9.37654e-08 0)
(2.21009e-06 -8.44758e-08 0)
(2.25745e-06 -7.38091e-08 0)
(1.24558e-06 -1.9829e-07 0)
(1.30259e-06 -1.90819e-07 0)
(1.35934e-06 -1.84414e-07 0)
(1.41441e-06 -1.79621e-07 0)
(1.4688e-06 -1.75553e-07 0)
(1.52231e-06 -1.72071e-07 0)
(1.57524e-06 -1.68881e-07 0)
(1.62765e-06 -1.65807e-07 0)
(1.67969e-06 -1.62697e-07 0)
(1.73142e-06 -1.59418e-07 0)
(1.78288e-06 -1.55841e-07 0)
(1.83409e-06 -1.51823e-07 0)
(1.88508e-06 -1.47233e-07 0)
(1.9359e-06 -1.41988e-07 0)
(1.98657e-06 -1.35982e-07 0)
(2.03707e-06 -1.29099e-07 0)
(2.08744e-06 -1.21171e-07 0)
(2.13754e-06 -1.12042e-07 0)
(2.18749e-06 -1.01445e-07 0)
(2.23698e-06 -8.92761e-08 0)
(1.15211e-06 -2.429e-07 0)
(1.21551e-06 -2.31717e-07 0)
(1.27842e-06 -2.22332e-07 0)
(1.33916e-06 -2.14969e-07 0)
(1.39879e-06 -2.08833e-07 0)
(1.45713e-06 -2.03611e-07 0)
(1.51452e-06 -1.98971e-07 0)
(1.57107e-06 -1.94658e-07 0)
(1.62694e-06 -1.90478e-07 0)
(1.68222e-06 -1.86238e-07 0)
(1.73699e-06 -1.81766e-07 0)
(1.79132e-06 -1.76896e-07 0)
(1.84526e-06 -1.71484e-07 0)
(1.8989e-06 -1.6542e-07 0)
(1.95227e-06 -1.58567e-07 0)
(2.00536e-06 -1.50778e-07 0)
(2.05823e-06 -1.4185e-07 0)
(2.11074e-06 -1.31597e-07 0)
(2.16305e-06 -1.19723e-07 0)
(2.21488e-06 -1.06098e-07 0)
(1.05465e-06 -2.91819e-07 0)
(1.12534e-06 -2.75439e-07 0)
(1.19462e-06 -2.62604e-07 0)
(1.26139e-06 -2.52261e-07 0)
(1.32637e-06 -2.43765e-07 0)
(1.38972e-06 -2.36562e-07 0)
(1.45168e-06 -2.30263e-07 0)
(1.51246e-06 -2.24552e-07 0)
(1.57225e-06 -2.19179e-07 0)
(1.63117e-06 -2.13895e-07 0)
(1.68935e-06 -2.08488e-07 0)
(1.74687e-06 -2.02761e-07 0)
(1.80384e-06 -1.96543e-07 0)
(1.86036e-06 -1.89689e-07 0)
(1.91646e-06 -1.82031e-07 0)
(1.97218e-06 -1.73391e-07 0)
(2.02758e-06 -1.63537e-07 0)
(2.08255e-06 -1.52233e-07 0)
(2.13729e-06 -1.39169e-07 0)
(2.19158e-06 -1.24164e-07 0)
(9.78638e-07 -3.42266e-07 0)
(1.05575e-06 -3.20559e-07 0)
(1.12982e-06 -3.04498e-07 0)
(1.20118e-06 -2.91235e-07 0)
(1.27013e-06 -2.80292e-07 0)
(1.33708e-06 -2.70974e-07 0)
(1.4023e-06 -2.62833e-07 0)
(1.46609e-06 -2.55514e-07 0)
(1.52863e-06 -2.4871e-07 0)
(1.59009e-06 -2.42136e-07 0)
(1.65061e-06 -2.35557e-07 0)
(1.71031e-06 -2.28761e-07 0)
(1.76931e-06 -2.21552e-07 0)
(1.82773e-06 -2.13756e-07 0)
(1.88559e-06 -2.05185e-07 0)
(1.94297e-06 -1.95631e-07 0)
(1.99991e-06 -1.84864e-07 0)
(2.05641e-06 -1.72606e-07 0)
(2.11263e-06 -1.58555e-07 0)
(2.16842e-06 -1.42464e-07 0)
(9.37037e-07 -3.85221e-07 0)
(1.01487e-06 -3.62468e-07 0)
(1.08977e-06 -3.44315e-07 0)
(1.16248e-06 -3.29004e-07 0)
(1.23296e-06 -3.16091e-07 0)
(1.30147e-06 -3.04951e-07 0)
(1.36823e-06 -2.95133e-07 0)
(1.43347e-06 -2.86266e-07 0)
(1.49735e-06 -2.78026e-07 0)
(1.56004e-06 -2.70121e-07 0)
(1.62168e-06 -2.62312e-07 0)
(1.6824e-06 -2.54378e-07 0)
(1.74233e-06 -2.46107e-07 0)
(1.80157e-06 -2.37311e-07 0)
(1.86015e-06 -2.27798e-07 0)
(1.91818e-06 -2.1734e-07 0)
(1.97568e-06 -2.0573e-07 0)
(2.03273e-06 -1.92675e-07 0)
(2.08944e-06 -1.77887e-07 0)
(2.14572e-06 -1.61078e-07 0)
(9.03322e-07 -4.2534e-07 0)
(9.8022e-07 -4.02426e-07 0)
(1.05514e-06 -3.83266e-07 0)
(1.12823e-06 -3.66615e-07 0)
(1.19942e-06 -3.52181e-07 0)
(1.26879e-06 -3.39486e-07 0)
(1.3365e-06 -3.28141e-07 0)
(1.40269e-06 -3.17804e-07 0)
(1.46751e-06 -3.08163e-07 0)
(1.53108e-06 -2.98943e-07 0)
(1.59355e-06 -2.89906e-07 0)
(1.65505e-06 -2.80824e-07 0)
(1.71569e-06 -2.71479e-07 0)
(1.77556e-06 -2.61676e-07 0)
(1.8347e-06 -2.5122e-07 0)
(1.89324e-06 -2.39876e-07 0)
(1.95121e-06 -2.27453e-07 0)
(2.00872e-06 -2.13664e-07 0)
(2.06584e-06 -1.98224e-07 0)
(2.12256e-06 -1.80835e-07 0)
(8.74236e-07 -4.6407e-07 0)
(9.49982e-07 -4.41227e-07 0)
(1.02431e-06 -4.21392e-07 0)
(1.09722e-06 -4.03703e-07 0)
(1.16852e-06 -3.88013e-07 0)
(1.23823e-06 -3.73968e-07 0)
(1.30644e-06 -3.61251e-07 0)
(1.37321e-06 -3.49557e-07 0)
(1.43863e-06 -3.38601e-07 0)
(1.50283e-06 -3.2813e-07 0)
(1.56593e-06 -3.17915e-07 0)
(1.62801e-06 -3.07729e-07 0)
(1.68921e-06 -2.97348e-07 0)
(1.7496e-06 -2.86578e-07 0)
(1.80921e-06 -2.75223e-07 0)
(1.86821e-06 -2.63051e-07 0)
(1.92659e-06 -2.49889e-07 0)
(1.98451e-06 -2.35453e-07 0)
(2.04201e-06 -2.19467e-07 0)
(2.09917e-06 -2.01664e-07 0)
(8.48991e-07 -5.01101e-07 0)
(9.23425e-07 -4.78543e-07 0)
(9.96846e-07 -4.58404e-07 0)
(1.06917e-06 -4.4003e-07 0)
(1.14019e-06 -4.23387e-07 0)
(1.20987e-06 -4.0824e-07 0)
(1.2782e-06 -3.94339e-07 0)
(1.34521e-06 -3.81432e-07 0)
(1.41096e-06 -3.69276e-07 0)
(1.47555e-06 -3.57641e-07 0)
(1.53907e-06 -3.46315e-07 0)
(1.60157e-06 -3.35076e-07 0)
(1.66318e-06 -3.23704e-07 0)
(1.72397e-06 -3.12013e-07 0)
(1.78397e-06 -2.99808e-07 0)
(1.84334e-06 -2.86868e-07 0)
(1.90209e-06 -2.73028e-07 0)
(1.96036e-06 -2.58018e-07 0)
(2.01821e-06 -2.41581e-07 0)
(2.07579e-06 -2.23521e-07 0)
(8.2677e-07 -5.36675e-07 0)
(8.99845e-07 -5.14491e-07 0)
(9.72235e-07 -4.94243e-07 0)
(1.04373e-06 -4.75419e-07 0)
(1.11421e-06 -4.58066e-07 0)
(1.18356e-06 -4.42029e-07 0)
(1.25173e-06 -4.27128e-07 0)
(1.31873e-06 -4.13169e-07 0)
(1.38459e-06 -3.99946e-07 0)
(1.44936e-06 -3.87257e-07 0)
(1.51311e-06 -3.7491e-07 0)
(1.57588e-06 -3.62693e-07 0)
(1.63777e-06 -3.50398e-07 0)
(1.69884e-06 -3.3785e-07 0)
(1.75914e-06 -3.24855e-07 0)
(1.81881e-06 -3.11219e-07 0)
(1.87785e-06 -2.96772e-07 0)
(1.93643e-06 -2.81267e-07 0)
(1.99461e-06 -2.64492e-07 0)
(2.05254e-06 -2.46301e-07 0)
(8.07075e-07 -5.70908e-07 0)
(8.78789e-07 -5.49152e-07 0)
(9.50055e-07 -5.28928e-07 0)
(1.0206e-06 -5.09838e-07 0)
(1.09036e-06 -4.91974e-07 0)
(1.15917e-06 -4.75236e-07 0)
(1.22699e-06 -4.59512e-07 0)
(1.29378e-06 -4.44659e-07 0)
(1.35955e-06 -4.30502e-07 0)
(1.42432e-06 -4.16874e-07 0)
(1.48814e-06 -4.03602e-07 0)
(1.55103e-06 -3.9049e-07 0)
(1.61307e-06 -3.77344e-07 0)
(1.67433e-06 -3.6401e-07 0)
(1.73483e-06 -3.50292e-07 0)
(1.79472e-06 -3.36024e-07 0)
(1.854e-06 -3.21043e-07 0)
(1.91284e-06 -3.05129e-07 0)
(1.97131e-06 -2.88124e-07 0)
(2.02954e-06 -2.6987e-07 0)
(7.8946e-07 -6.03926e-07 0)
(8.59862e-07 -5.82615e-07 0)
(9.29951e-07 -5.62503e-07 0)
(9.99494e-07 -5.43279e-07 0)
(1.06841e-06 -5.25056e-07 0)
(1.13654e-06 -5.07776e-07 0)
(1.20385e-06 -4.91385e-07 0)
(1.27027e-06 -4.75782e-07 0)
(1.33579e-06 -4.60818e-07 0)
(1.40041e-06 -4.46362e-07 0)
(1.46416e-06 -4.32265e-07 0)
(1.52704e-06 -4.18347e-07 0)
(1.58914e-06 -4.04429e-07 0)
(1.65049e-06 -3.90383e-07 0)
(1.71112e-06 -3.76015e-07 0)
(1.77117e-06 -3.61185e-07 0)
(1.83064e-06 -3.45751e-07 0)
(1.8897e-06 -3.2952e-07 0)
(1.94841e-06 -3.12368e-07 0)
(2.00688e-06 -2.94097e-07 0)
(7.73517e-07 -6.35844e-07 0)
(8.42642e-07 -6.14975e-07 0)
(9.11565e-07 -5.95034e-07 0)
(9.80067e-07 -5.75767e-07 0)
(1.04807e-06 -5.57299e-07 0)
(1.11545e-06 -5.39607e-07 0)
(1.18215e-06 -5.22682e-07 0)
(1.24809e-06 -5.06456e-07 0)
(1.31324e-06 -4.90804e-07 0)
(1.3776e-06 -4.7563e-07 0)
(1.44117e-06 -4.60806e-07 0)
(1.50395e-06 -4.46175e-07 0)
(1.56602e-06 -4.31571e-07 0)
(1.62738e-06 -4.1689e-07 0)
(1.68808e-06 -4.0195e-07 0)
(1.74823e-06 -3.86637e-07 0)
(1.80785e-06 -3.70834e-07 0)
(1.86709e-06 -3.54367e-07 0)
(1.92598e-06 -3.37114e-07 0)
(1.98469e-06 -3.18905e-07 0)
(7.58912e-07 -6.66759e-07 0)
(8.2679e-07 -6.46332e-07 0)
(8.94581e-07 -6.2659e-07 0)
(9.62033e-07 -6.07338e-07 0)
(1.02912e-06 -5.88711e-07 0)
(1.09571e-06 -5.70712e-07 0)
(1.16174e-06 -5.53362e-07 0)
(1.22713e-06 -5.36626e-07 0)
(1.29183e-06 -5.20398e-07 0)
(1.35584e-06 -5.04611e-07 0)
(1.41916e-06 -4.89161e-07 0)
(1.48176e-06 -4.73906e-07 0)
(1.54372e-06 -4.58703e-07 0)
(1.60504e-06 -4.43468e-07 0)
(1.66575e-06 -4.28037e-07 0)
(1.72596e-06 -4.12323e-07 0)
(1.78568e-06 -3.96227e-07 0)
(1.84505e-06 -3.79582e-07 0)
(1.90408e-06 -3.62266e-07 0)
(1.96297e-06 -3.44212e-07 0)
(7.45342e-07 -6.96773e-07 0)
(8.12034e-07 -6.76771e-07 0)
(8.7872e-07 -6.57238e-07 0)
(9.45155e-07 -6.38042e-07 0)
(1.01133e-06 -6.19327e-07 0)
(1.07712e-06 -6.01105e-07 0)
(1.14245e-06 -5.83426e-07 0)
(1.20725e-06 -5.66279e-07 0)
(1.27145e-06 -5.49578e-07 0)
(1.33507e-06 -5.33274e-07 0)
(1.39807e-06 -5.17287e-07 0)
(1.46044e-06 -5.01493e-07 0)
(1.52225e-06 -4.85771e-07 0)
(1.58347e-06 -4.7006e-07 0)
(1.64415e-06 -4.54216e-07 0)
(1.70438e-06 -4.38174e-07 0)
(1.76416e-06 -4.21841e-07 0)
(1.8236e-06 -4.05055e-07 0)
(1.88276e-06 -3.87743e-07 0)
(1.94177e-06 -3.69876e-07 0)
(7.32565e-07 -7.25978e-07 0)
(7.98138e-07 -7.06367e-07 0)
(8.63761e-07 -6.87049e-07 0)
(9.29231e-07 -6.67945e-07 0)
(9.94526e-07 -6.49193e-07 0)
(1.05951e-06 -6.30815e-07 0)
(1.12413e-06 -6.12887e-07 0)
(1.18831e-06 -5.95409e-07 0)
(1.25199e-06 -5.78323e-07 0)
(1.31519e-06 -5.61583e-07 0)
(1.37785e-06 -5.45137e-07 0)
(1.43996e-06 -5.28883e-07 0)
(1.50157e-06 -5.12721e-07 0)
(1.56268e-06 -4.96612e-07 0)
(1.6233e-06 -4.80434e-07 0)
(1.68352e-06 -4.64125e-07 0)
(1.74332e-06 -4.476e-07 0)
(1.8028e-06 -4.30717e-07 0)
(1.86205e-06 -4.13486e-07 0)
(1.92115e-06 -3.95795e-07 0)
(7.20405e-07 -7.54448e-07 0)
(7.84915e-07 -7.35194e-07 0)
(8.49536e-07 -7.161e-07 0)
(9.14079e-07 -6.97109e-07 0)
(9.78508e-07 -6.78355e-07 0)
(1.0427e-06 -6.59869e-07 0)
(1.10662e-06 -6.41754e-07 0)
(1.17019e-06 -6.24011e-07 0)
(1.23337e-06 -6.06618e-07 0)
(1.29613e-06 -5.89523e-07 0)
(1.35844e-06 -5.72703e-07 0)
(1.42028e-06 -5.56074e-07 0)
(1.48169e-06 -5.39553e-07 0)
(1.54265e-06 -5.23123e-07 0)
(1.60319e-06 -5.06671e-07 0)
(1.66336e-06 -4.9014e-07 0)
(1.72313e-06 -4.73462e-07 0)
(1.78265e-06 -4.56541e-07 0)
(1.84192e-06 -4.39409e-07 0)
(1.90109e-06 -4.21933e-07 0)
(7.08683e-07 -7.82247e-07 0)
(7.72194e-07 -7.63337e-07 0)
(8.35865e-07 -7.44459e-07 0)
(8.99508e-07 -7.25584e-07 0)
(9.63101e-07 -7.06847e-07 0)
(1.02655e-06 -6.88299e-07 0)
(1.0898e-06 -6.7006e-07 0)
(1.15279e-06 -6.52126e-07 0)
(1.21547e-06 -6.34496e-07 0)
(1.2778e-06 -6.1712e-07 0)
(1.33976e-06 -5.99992e-07 0)
(1.40132e-06 -5.83049e-07 0)
(1.46252e-06 -5.6623e-07 0)
(1.52333e-06 -5.49533e-07 0)
(1.58376e-06 -5.32848e-07 0)
(1.64385e-06 -5.1613e-07 0)
(1.70358e-06 -4.99343e-07 0)
(1.76311e-06 -4.82434e-07 0)
(1.82238e-06 -4.65377e-07 0)
(1.88159e-06 -4.48165e-07 0)
(6.97194e-07 -8.09459e-07 0)
(7.59768e-07 -7.90868e-07 0)
(8.22528e-07 -7.72183e-07 0)
(8.85314e-07 -7.53422e-07 0)
(9.48131e-07 -7.3473e-07 0)
(1.01088e-06 -7.16169e-07 0)
(1.07352e-06 -6.97851e-07 0)
(1.13595e-06 -6.79781e-07 0)
(1.19815e-06 -6.6195e-07 0)
(1.26009e-06 -6.44345e-07 0)
(1.32172e-06 -6.26983e-07 0)
(1.38302e-06 -6.09803e-07 0)
(1.44403e-06 -5.92755e-07 0)
(1.50469e-06 -5.75841e-07 0)
(1.56499e-06 -5.58962e-07 0)
(1.62501e-06 -5.42098e-07 0)
(1.68471e-06 -5.25245e-07 0)
(1.7442e-06 -5.0836e-07 0)
(1.80349e-06 -4.9141e-07 0)
(1.86269e-06 -4.74435e-07 0)
(6.8573e-07 -8.36154e-07 0)
(7.4741e-07 -8.17842e-07 0)
(8.09302e-07 -7.99315e-07 0)
(8.71312e-07 -7.80681e-07 0)
(9.33425e-07 -7.62061e-07 0)
(9.95537e-07 -7.43522e-07 0)
(1.05761e-06 -7.25151e-07 0)
(1.11955e-06 -7.06999e-07 0)
(1.18132e-06 -6.89036e-07 0)
(1.24289e-06 -6.71264e-07 0)
(1.30423e-06 -6.5372e-07 0)
(1.3653e-06 -6.36353e-07 0)
(1.42611e-06 -6.19115e-07 0)
(1.48662e-06 -6.02013e-07 0)
(1.5468e-06 -5.84972e-07 0)
(1.60675e-06 -5.68006e-07 0)
(1.66642e-06 -5.51125e-07 0)
(1.72587e-06 -5.3423e-07 0)
(1.78513e-06 -5.17416e-07 0)
(1.84432e-06 -5.00685e-07 0)
(6.7407e-07 -8.62384e-07 0)
(7.34893e-07 -8.44282e-07 0)
(7.95982e-07 -8.25939e-07 0)
(8.57324e-07 -8.0746e-07 0)
(9.18804e-07 -7.88918e-07 0)
(9.80368e-07 -7.70413e-07 0)
(1.04193e-06 -7.52032e-07 0)
(1.10344e-06 -7.3382e-07 0)
(1.16483e-06 -7.15764e-07 0)
(1.2261e-06 -6.97881e-07 0)
(1.2872e-06 -6.8021e-07 0)
(1.34806e-06 -6.62692e-07 0)
(1.4087e-06 -6.45288e-07 0)
(1.46906e-06 -6.28039e-07 0)
(1.52917e-06 -6.10895e-07 0)
(1.58908e-06 -5.93851e-07 0)
(1.6487e-06 -5.76903e-07 0)
(1.70812e-06 -5.60019e-07 0)
(1.76733e-06 -5.43349e-07 0)
(1.82654e-06 -5.26847e-07 0)
(6.61965e-07 -8.88134e-07 0)
(7.22046e-07 -8.70277e-07 0)
(7.82489e-07 -8.52132e-07 0)
(8.43211e-07 -8.33788e-07 0)
(9.0415e-07 -8.15366e-07 0)
(9.6522e-07 -7.96912e-07 0)
(1.02636e-06 -7.78538e-07 0)
(1.0875e-06 -7.60308e-07 0)
(1.14861e-06 -7.42212e-07 0)
(1.20964e-06 -7.24255e-07 0)
(1.27053e-06 -7.06475e-07 0)
(1.3312e-06 -6.88843e-07 0)
(1.39171e-06 -6.71333e-07 0)
(1.45202e-06 -6.53971e-07 0)
(1.51209e-06 -6.36719e-07 0)
(1.57193e-06 -6.19607e-07 0)
(1.63148e-06 -6.02604e-07 0)
(1.69094e-06 -5.85749e-07 0)
(1.75018e-06 -5.69183e-07 0)
(1.80929e-06 -5.52918e-07 0)
(6.49225e-07 -9.13633e-07 0)
(7.08637e-07 -8.95993e-07 0)
(7.68521e-07 -8.78002e-07 0)
(8.2874e-07 -8.59805e-07 0)
(8.89224e-07 -8.41473e-07 0)
(9.49897e-07 -8.23096e-07 0)
(1.01073e-06 -8.04763e-07 0)
(1.07163e-06 -7.86531e-07 0)
(1.13253e-06 -7.68402e-07 0)
(1.19336e-06 -7.50397e-07 0)
(1.25409e-06 -7.32551e-07 0)
(1.31469e-06 -7.14825e-07 0)
(1.37516e-06 -6.97217e-07 0)
(1.43539e-06 -6.79788e-07 0)
(1.4954e-06 -6.62446e-07 0)
(1.55527e-06 -6.45219e-07 0)
(1.61488e-06 -6.28192e-07 0)
(1.67431e-06 -6.11353e-07 0)
(1.73359e-06 -5.94825e-07 0)
(1.79269e-06 -5.78759e-07 0)
(6.35709e-07 -9.38701e-07 0)
(6.94566e-07 -9.21326e-07 0)
(7.53969e-07 -9.03551e-07 0)
(8.13775e-07 -8.85513e-07 0)
(8.7393e-07 -8.67303e-07 0)
(9.34374e-07 -8.4901e-07 0)
(9.95018e-07 -8.30742e-07 0)
(1.05575e-06 -8.12553e-07 0)
(1.1165e-06 -7.94417e-07 0)
(1.17728e-06 -7.7636e-07 0)
(1.23798e-06 -7.58473e-07 0)
(1.29852e-06 -7.40719e-07 0)
(1.35893e-06 -7.23025e-07 0)
(1.41919e-06 -7.05489e-07 0)
(1.47921e-06 -6.88102e-07 0)
(1.53908e-06 -6.70805e-07 0)
(1.59879e-06 -6.53736e-07 0)
(1.65828e-06 -6.3683e-07 0)
(1.71765e-06 -6.20302e-07 0)
(1.77677e-06 -6.04301e-07 0)
(4.2519e-08 -7.31456e-07 0)
(1.27972e-07 -7.2119e-07 0)
(2.14568e-07 -7.00957e-07 0)
(3.02994e-07 -6.71723e-07 0)
(3.93697e-07 -6.34524e-07 0)
(4.86947e-07 -5.90808e-07 0)
(5.8282e-07 -5.42192e-07 0)
(6.81105e-07 -4.9027e-07 0)
(7.81907e-07 -4.3661e-07 0)
(8.84e-07 -3.82262e-07 0)
(4.15919e-08 -7.46534e-07 0)
(1.25133e-07 -7.3716e-07 0)
(2.09556e-07 -7.18655e-07 0)
(2.95441e-07 -6.91882e-07 0)
(3.83137e-07 -6.57691e-07 0)
(4.72814e-07 -6.17315e-07 0)
(5.64548e-07 -5.72121e-07 0)
(6.57984e-07 -5.23546e-07 0)
(7.5309e-07 -4.72963e-07 0)
(8.48409e-07 -4.21999e-07 0)
(4.06883e-08 -7.61983e-07 0)
(1.22368e-07 -7.53428e-07 0)
(2.04729e-07 -7.36473e-07 0)
(2.88189e-07 -7.11908e-07 0)
(3.73072e-07 -6.80473e-07 0)
(4.59455e-07 -6.43227e-07 0)
(5.47426e-07 -6.01359e-07 0)
(6.36741e-07 -5.56109e-07 0)
(7.27362e-07 -5.08657e-07 0)
(8.18167e-07 -4.60581e-07 0)
(3.98705e-08 -7.77768e-07 0)
(1.19849e-07 -7.69886e-07 0)
(2.00415e-07 -7.54247e-07 0)
(2.81803e-07 -7.31565e-07 0)
(3.64326e-07 -7.02496e-07 0)
(4.47994e-07 -6.67945e-07 0)
(5.32861e-07 -6.29022e-07 0)
(6.18702e-07 -5.86836e-07 0)
(7.05392e-07 -5.42513e-07 0)
(7.92081e-07 -4.97516e-07 0)
(3.9134e-08 -7.93879e-07 0)
(1.17516e-07 -7.86619e-07 0)
(1.96412e-07 -7.7217e-07 0)
(2.7592e-07 -7.51186e-07 0)
(3.5632e-07 -7.24257e-07 0)
(4.37595e-07 -6.92217e-07 0)
(5.19781e-07 -6.56052e-07 0)
(6.02697e-07 -6.16702e-07 0)
(6.86164e-07 -5.75242e-07 0)
(7.69431e-07 -5.33021e-07 0)
(3.84305e-08 -8.10303e-07 0)
(1.15363e-07 -8.03568e-07 0)
(1.92709e-07 -7.90164e-07 0)
(2.70539e-07 -7.70695e-07 0)
(3.49062e-07 -7.45669e-07 0)
(4.28282e-07 -7.15867e-07 0)
(5.08136e-07 -6.82189e-07 0)
(5.88493e-07 -6.45459e-07 0)
(6.69189e-07 -6.06694e-07 0)
(7.49511e-07 -5.67152e-07 0)
(3.77439e-08 -8.27018e-07 0)
(1.13321e-07 -8.20755e-07 0)
(1.89212e-07 -8.08306e-07 0)
(2.65515e-07 -7.90189e-07 0)
(3.42327e-07 -7.66891e-07 0)
(4.19709e-07 -7.39126e-07 0)
(4.97558e-07 -7.07713e-07 0)
(5.75709e-07 -6.73394e-07 0)
(6.54048e-07 -6.37096e-07 0)
(7.31876e-07 -6.00026e-07 0)
(3.71169e-08 -8.43988e-07 0)
(1.11383e-07 -8.38154e-07 0)
(1.85901e-07 -8.26565e-07 0)
(2.60789e-07 -8.09658e-07 0)
(3.36062e-07 -7.87927e-07 0)
(4.11771e-07 -7.62001e-07 0)
(4.87837e-07 -7.32658e-07 0)
(5.64072e-07 -7.00563e-07 0)
(6.40385e-07 -6.66545e-07 0)
(7.16103e-07 -6.31755e-07 0)
(3.65248e-08 -8.61202e-07 0)
(1.09516e-07 -8.55754e-07 0)
(1.82741e-07 -8.44938e-07 0)
(2.56285e-07 -8.29142e-07 0)
(3.30137e-07 -8.0885e-07 0)
(4.04345e-07 -7.84597e-07 0)
(4.78803e-07 -7.57138e-07 0)
(5.53342e-07 -7.27082e-07 0)
(6.27893e-07 -6.9516e-07 0)
(7.01817e-07 -6.62463e-07 0)
(3.59185e-08 -8.78646e-07 0)
(1.07696e-07 -8.73539e-07 0)
(1.79693e-07 -8.63424e-07 0)
(2.51962e-07 -8.48644e-07 0)
(3.24469e-07 -8.29665e-07 0)
(3.973e-07 -8.0694e-07 0)
(4.70298e-07 -7.81198e-07 0)
(5.43319e-07 -7.53014e-07 0)
(6.16313e-07 -7.23024e-07 0)
(6.88685e-07 -6.92254e-07 0)
(3.53015e-08 -8.9629e-07 0)
(1.05927e-07 -8.91492e-07 0)
(1.7672e-07 -8.82026e-07 0)
(2.47767e-07 -8.68174e-07 0)
(3.18991e-07 -8.50389e-07 0)
(3.90522e-07 -8.29067e-07 0)
(4.62183e-07 -8.04898e-07 0)
(5.33832e-07 -7.78431e-07 0)
(6.05434e-07 -7.50219e-07 0)
(6.7644e-07 -7.21218e-07 0)
(3.47053e-08 -9.141e-07 0)
(1.04205e-07 -9.09595e-07 0)
(1.73795e-07 -9.00728e-07 0)
(2.43646e-07 -8.87726e-07 0)
(3.13649e-07 -8.71027e-07 0)
(3.8393e-07 -8.50999e-07 0)
(4.54344e-07 -8.28279e-07 0)
(5.24737e-07 -8.03388e-07 0)
(5.95077e-07 -7.76806e-07 0)
(6.64885e-07 -7.49429e-07 0)
(3.41313e-08 -9.32062e-07 0)
(1.02484e-07 -9.27833e-07 0)
(1.70873e-07 -9.19515e-07 0)
(2.39537e-07 -9.07292e-07 0)
(3.08363e-07 -8.91591e-07 0)
(3.77435e-07 -8.72761e-07 0)
(4.46665e-07 -8.51377e-07 0)
(5.15891e-07 -8.27927e-07 0)
(5.8509e-07 -8.02848e-07 0)
(6.53859e-07 -7.76973e-07 0)
(3.35478e-08 -9.50154e-07 0)
(1.00707e-07 -9.4618e-07 0)
(1.67898e-07 -9.38361e-07 0)
(2.35369e-07 -9.2686e-07 0)
(3.03035e-07 -9.12081e-07 0)
(3.70937e-07 -8.94357e-07 0)
(4.39028e-07 -8.74207e-07 0)
(5.07163e-07 -8.52088e-07 0)
(5.75328e-07 -8.28418e-07 0)
(6.43171e-07 -8.0394e-07 0)
(3.29274e-08 -9.68357e-07 0)
(9.88425e-08 -9.64613e-07 0)
(1.64831e-07 -9.57253e-07 0)
(2.31095e-07 -9.46426e-07 0)
(2.9759e-07 -9.3251e-07 0)
(3.64336e-07 -9.15815e-07 0)
(4.31316e-07 -8.96804e-07 0)
(4.98422e-07 -8.75921e-07 0)
(5.65623e-07 -8.53574e-07 0)
(6.3261e-07 -8.30382e-07 0)
(3.22696e-08 -9.86613e-07 0)
(9.68959e-08 -9.83085e-07 0)
(1.6165e-07 -9.76157e-07 0)
(2.26666e-07 -9.65967e-07 0)
(2.91955e-07 -9.52845e-07 0)
(3.57538e-07 -9.37094e-07 0)
(4.23425e-07 -9.19152e-07 0)
(4.89547e-07 -8.99446e-07 0)
(5.55815e-07 -8.78333e-07 0)
(6.22012e-07 -8.56342e-07 0)
(3.15851e-08 -1.0049e-06 0)
(9.48652e-08 -1.00159e-06 0)
(1.58311e-07 -9.95063e-07 0)
(2.22018e-07 -9.85464e-07 0)
(2.86056e-07 -9.73098e-07 0)
(3.50454e-07 -9.58243e-07 0)
(4.15246e-07 -9.41318e-07 0)
(4.80364e-07 -9.22731e-07 0)
(5.45721e-07 -9.02755e-07 0)
(6.11136e-07 -8.81907e-07 0)
(3.08691e-08 -1.02312e-06 0)
(9.27143e-08 -1.02001e-06 0)
(1.54751e-07 -1.01387e-06 0)
(2.17074e-07 -1.00483e-06 0)
(2.79795e-07 -9.93171e-07 0)
(3.42969e-07 -9.79169e-07 0)
(4.06631e-07 -9.63214e-07 0)
(4.70701e-07 -9.45678e-07 0)
(5.35149e-07 -9.26801e-07 0)
(5.99799e-07 -9.07027e-07 0)
(3.00994e-08 -1.04131e-06 0)
(9.0383e-08 -1.03839e-06 0)
(1.50888e-07 -1.03262e-06 0)
(2.11739e-07 -1.02412e-06 0)
(2.7306e-07 -1.01315e-06 0)
(3.34936e-07 -9.9998e-07 0)
(3.97401e-07 -9.84963e-07 0)
(4.60397e-07 -9.68419e-07 0)
(5.23877e-07 -9.50616e-07 0)
(5.87766e-07 -9.31882e-07 0)
(2.92603e-08 -1.0592e-06 0)
(8.78545e-08 -1.05645e-06 0)
(1.46698e-07 -1.05105e-06 0)
(2.05965e-07 -1.04307e-06 0)
(2.65805e-07 -1.03278e-06 0)
(3.26306e-07 -1.02043e-06 0)
(3.87486e-07 -1.00632e-06 0)
(4.4937e-07 -9.9076e-07 0)
(5.11857e-07 -9.74002e-07 0)
(5.75003e-07 -9.56296e-07 0)
)


// ************************************************************************* //
