/*--------------------------------*- C++ -*----------------------------------*\
| =========                 |                                                 |
| \\      /  F ield         | foam-extend: Open Source CFD                    |
|  \\    /   O peration     | Version:     4.1                                |
|   \\  /    A nd           | Web:         http://www.foam-extend.org         |
|    \\/     M anipulation  |                                                 |
\*---------------------------------------------------------------------------*/
FoamFile
{
    version     2.0;
    format      ascii;
    class       vectorField;
    location    "2";
    object      solidsCellD_iteration14;
}
// * * * * * * * * * * * * * * * * * * * * * * * * * * * * * * * * * * * * * //


1000
(
(9.85479e-07 -3.82133e-07 0)
(9.33144e-07 -3.57362e-07 0)
(9.00407e-07 -3.42411e-07 0)
(8.82208e-07 -3.36487e-07 0)
(8.74179e-07 -3.35843e-07 0)
(8.73586e-07 -3.39222e-07 0)
(8.78505e-07 -3.45273e-07 0)
(8.87427e-07 -3.53373e-07 0)
(8.99693e-07 -3.62781e-07 0)
(9.13694e-07 -3.73038e-07 0)
(8.91476e-07 -4.17626e-07 0)
(8.35824e-07 -4.01249e-07 0)
(8.0091e-07 -3.9164e-07 0)
(7.81057e-07 -3.89362e-07 0)
(7.71617e-07 -3.9117e-07 0)
(7.69709e-07 -3.96275e-07 0)
(7.73332e-07 -4.03526e-07 0)
(7.8094e-07 -4.12547e-07 0)
(7.91748e-07 -4.22587e-07 0)
(8.04221e-07 -4.33531e-07 0)
(7.93704e-07 -4.51238e-07 0)
(7.36863e-07 -4.44234e-07 0)
(7.01092e-07 -4.40597e-07 0)
(6.80474e-07 -4.42301e-07 0)
(6.70275e-07 -4.46731e-07 0)
(6.67482e-07 -4.53626e-07 0)
(6.70107e-07 -4.62113e-07 0)
(6.76651e-07 -4.71987e-07 0)
(6.8625e-07 -4.82651e-07 0)
(6.97598e-07 -4.93966e-07 0)
(6.92808e-07 -4.82377e-07 0)
(6.37257e-07 -4.85157e-07 0)
(6.02192e-07 -4.87763e-07 0)
(5.81735e-07 -4.93595e-07 0)
(5.71364e-07 -5.00719e-07 0)
(5.6807e-07 -5.09419e-07 0)
(5.69869e-07 -5.19118e-07 0)
(5.75443e-07 -5.29813e-07 0)
(5.83873e-07 -5.41076e-07 0)
(5.94038e-07 -5.5283e-07 0)
(5.89664e-07 -5.10409e-07 0)
(5.37639e-07 -5.22874e-07 0)
(5.04766e-07 -5.31636e-07 0)
(4.85496e-07 -5.41526e-07 0)
(4.75543e-07 -5.51283e-07 0)
(4.72042e-07 -5.61767e-07 0)
(4.73221e-07 -5.72658e-07 0)
(4.77884e-07 -5.84159e-07 0)
(4.85171e-07 -5.96031e-07 0)
(4.94024e-07 -6.08238e-07 0)
(4.8454e-07 -5.3482e-07 0)
(4.38444e-07 -5.56327e-07 0)
(4.09306e-07 -5.70852e-07 0)
(3.92074e-07 -5.84547e-07 0)
(3.83034e-07 -5.96763e-07 0)
(3.79642e-07 -6.08893e-07 0)
(3.80413e-07 -6.20877e-07 0)
(3.8422e-07 -6.3312e-07 0)
(3.90295e-07 -6.4557e-07 0)
(3.97693e-07 -6.58249e-07 0)
(3.78158e-07 -5.55009e-07 0)
(3.39937e-07 -5.84437e-07 0)
(3.15763e-07 -6.04028e-07 0)
(3.01392e-07 -6.21075e-07 0)
(2.93797e-07 -6.35436e-07 0)
(2.90856e-07 -6.48999e-07 0)
(2.91344e-07 -6.61936e-07 0)
(2.94287e-07 -6.74841e-07 0)
(2.99066e-07 -6.87802e-07 0)
(3.04898e-07 -7.00904e-07 0)
(2.70792e-07 -5.70592e-07 0)
(2.42131e-07 -6.06392e-07 0)
(2.24027e-07 -6.30019e-07 0)
(2.1326e-07 -6.49716e-07 0)
(2.07552e-07 -6.65813e-07 0)
(2.05289e-07 -6.80545e-07 0)
(2.05547e-07 -6.94281e-07 0)
(2.07612e-07 -7.07726e-07 0)
(2.11045e-07 -7.21104e-07 0)
(2.15251e-07 -7.34565e-07 0)
(1.62743e-07 -5.81187e-07 0)
(1.45001e-07 -6.21414e-07 0)
(1.33835e-07 -6.47851e-07 0)
(1.27149e-07 -6.69442e-07 0)
(1.23557e-07 -6.86753e-07 0)
(1.221e-07 -7.02278e-07 0)
(1.22244e-07 -7.16579e-07 0)
(1.23506e-07 -7.30442e-07 0)
(1.25572e-07 -7.44131e-07 0)
(1.281e-07 -7.57852e-07 0)
(5.43548e-08 -5.86526e-07 0)
(4.83627e-08 -6.29062e-07 0)
(4.45253e-08 -6.56937e-07 0)
(4.22425e-08 -6.79476e-07 0)
(4.10634e-08 -6.97413e-07 0)
(4.05656e-08 -7.13374e-07 0)
(4.05613e-08 -7.27937e-07 0)
(4.09696e-08 -7.41985e-07 0)
(4.16774e-08 -7.55839e-07 0)
(4.25215e-08 -7.69712e-07 0)
(1.53164e-06 -1.73491e-08 0)
(1.54447e-06 -1.25073e-08 0)
(1.55297e-06 -9.48107e-09 0)
(1.56248e-06 -7.74346e-09 0)
(1.5733e-06 -6.82305e-09 0)
(1.58648e-06 -6.47586e-09 0)
(1.60212e-06 -6.53007e-09 0)
(1.62022e-06 -6.79123e-09 0)
(1.64082e-06 -7.25879e-09 0)
(1.66359e-06 -7.8371e-09 0)
(1.52043e-06 -5.21064e-08 0)
(1.53112e-06 -3.78615e-08 0)
(1.53829e-06 -2.89196e-08 0)
(1.54686e-06 -2.38622e-08 0)
(1.55705e-06 -2.12724e-08 0)
(1.56977e-06 -2.02315e-08 0)
(1.58511e-06 -2.03572e-08 0)
(1.60296e-06 -2.12555e-08 0)
(1.62331e-06 -2.27e-08 0)
(1.64587e-06 -2.43584e-08 0)
(1.4981e-06 -8.71172e-08 0)
(1.50465e-06 -6.43072e-08 0)
(1.50921e-06 -5.00128e-08 0)
(1.51606e-06 -4.18312e-08 0)
(1.5251e-06 -3.76706e-08 0)
(1.53703e-06 -3.61459e-08 0)
(1.55172e-06 -3.64562e-08 0)
(1.56913e-06 -3.79487e-08 0)
(1.58901e-06 -4.03211e-08 0)
(1.61114e-06 -4.30866e-08 0)
(1.465e-06 -1.22629e-07 0)
(1.46565e-06 -9.24514e-08 0)
(1.46647e-06 -7.36438e-08 0)
(1.47087e-06 -6.29456e-08 0)
(1.47825e-06 -5.75109e-08 0)
(1.48906e-06 -5.55758e-08 0)
(1.50288e-06 -5.60809e-08 0)
(1.51963e-06 -5.8195e-08 0)
(1.53888e-06 -6.14721e-08 0)
(1.56043e-06 -6.53218e-08 0)
(1.42158e-06 -1.58705e-07 0)
(1.41501e-06 -1.22823e-07 0)
(1.41119e-06 -1.00523e-07 0)
(1.41252e-06 -8.79722e-08 0)
(1.41787e-06 -8.16817e-08 0)
(1.42726e-06 -7.95826e-08 0)
(1.44e-06 -8.03913e-08 0)
(1.45591e-06 -8.31544e-08 0)
(1.47438e-06 -8.72991e-08 0)
(1.49527e-06 -9.21694e-08 0)
(1.36843e-06 -1.95415e-07 0)
(1.35367e-06 -1.55835e-07 0)
(1.34467e-06 -1.31269e-07 0)
(1.34257e-06 -1.17637e-07 0)
(1.34561e-06 -1.10971e-07 0)
(1.35336e-06 -1.0898e-07 0)
(1.36491e-06 -1.10215e-07 0)
(1.37985e-06 -1.13639e-07 0)
(1.39747e-06 -1.18626e-07 0)
(1.41757e-06 -1.24456e-07 0)
(1.30639e-06 -2.32672e-07 0)
(1.28293e-06 -1.91636e-07 0)
(1.26842e-06 -1.66195e-07 0)
(1.26269e-06 -1.52331e-07 0)
(1.26329e-06 -1.45784e-07 0)
(1.26932e-06 -1.442e-07 0)
(1.27961e-06 -1.46004e-07 0)
(1.29353e-06 -1.5009e-07 0)
(1.31022e-06 -1.55861e-07 0)
(1.32952e-06 -1.6254e-07 0)
(1.23616e-06 -2.70266e-07 0)
(1.2041e-06 -2.30117e-07 0)
(1.18417e-06 -2.05265e-07 0)
(1.17482e-06 -1.92097e-07 0)
(1.17303e-06 -1.86215e-07 0)
(1.17733e-06 -1.85373e-07 0)
(1.18632e-06 -1.87923e-07 0)
(1.19917e-06 -1.92741e-07 0)
(1.21492e-06 -1.99269e-07 0)
(1.23332e-06 -2.06701e-07 0)
(1.15867e-06 -3.07971e-07 0)
(1.11862e-06 -2.70942e-07 0)
(1.09362e-06 -2.4815e-07 0)
(1.08085e-06 -2.36584e-07 0)
(1.07675e-06 -2.31922e-07 0)
(1.0793e-06 -2.32128e-07 0)
(1.08694e-06 -2.35595e-07 0)
(1.09865e-06 -2.41203e-07 0)
(1.11344e-06 -2.48476e-07 0)
(1.13092e-06 -2.56411e-07 0)
(1.07482e-06 -3.45429e-07 0)
(1.02792e-06 -3.13601e-07 0)
(9.98553e-07 -2.94165e-07 0)
(9.82793e-07 -2.85069e-07 0)
(9.76598e-07 -2.82181e-07 0)
(9.77578e-07 -2.83783e-07 0)
(9.84045e-07 -2.88415e-07 0)
(9.9464e-07 -2.95092e-07 0)
(1.00862e-06 -3.03259e-07 0)
(1.02483e-06 -3.12274e-07 0)
(1.68858e-06 -8.37115e-09 0)
(1.71574e-06 -8.56044e-09 0)
(1.74456e-06 -8.73618e-09 0)
(1.77494e-06 -8.87801e-09 0)
(1.80671e-06 -8.98705e-09 0)
(1.83976e-06 -9.05619e-09 0)
(1.87395e-06 -9.05484e-09 0)
(1.90913e-06 -9.00814e-09 0)
(1.94524e-06 -8.93902e-09 0)
(1.98221e-06 -8.82535e-09 0)
(2.0199e-06 -8.6481e-09 0)
(2.05821e-06 -8.40335e-09 0)
(2.09705e-06 -8.08842e-09 0)
(2.13633e-06 -7.70586e-09 0)
(2.17597e-06 -7.2543e-09 0)
(2.21584e-06 -6.72036e-09 0)
(2.25588e-06 -6.08481e-09 0)
(2.29589e-06 -5.32941e-09 0)
(2.33587e-06 -4.44122e-09 0)
(2.3754e-06 -3.41523e-09 0)
(1.67161e-06 -2.58428e-08 0)
(1.70017e-06 -2.63047e-08 0)
(1.73024e-06 -2.67544e-08 0)
(1.76174e-06 -2.71108e-08 0)
(1.7945e-06 -2.73312e-08 0)
(1.82841e-06 -2.74519e-08 0)
(1.86338e-06 -2.74537e-08 0)
(1.89931e-06 -2.73446e-08 0)
(1.93611e-06 -2.71077e-08 0)
(1.97368e-06 -2.66993e-08 0)
(2.01191e-06 -2.61172e-08 0)
(2.05074e-06 -2.5372e-08 0)
(2.09009e-06 -2.44451e-08 0)
(2.12986e-06 -2.33108e-08 0)
(2.16995e-06 -2.19425e-08 0)
(2.21027e-06 -2.03123e-08 0)
(2.25072e-06 -1.83827e-08 0)
(2.29113e-06 -1.61132e-08 0)
(2.3315e-06 -1.34538e-08 0)
(2.37138e-06 -1.03825e-08 0)
(1.63837e-06 -4.53329e-08 0)
(1.6697e-06 -4.57693e-08 0)
(1.70223e-06 -4.62042e-08 0)
(1.73582e-06 -4.65671e-08 0)
(1.77048e-06 -4.67689e-08 0)
(1.80613e-06 -4.68467e-08 0)
(1.84268e-06 -4.67379e-08 0)
(1.88001e-06 -4.64382e-08 0)
(1.91808e-06 -4.59269e-08 0)
(1.95681e-06 -4.51688e-08 0)
(1.99614e-06 -4.41653e-08 0)
(2.03599e-06 -4.29098e-08 0)
(2.07629e-06 -4.13512e-08 0)
(2.11693e-06 -3.94411e-08 0)
(2.15785e-06 -3.71437e-08 0)
(2.19897e-06 -3.44195e-08 0)
(2.24021e-06 -3.1205e-08 0)
(2.28141e-06 -2.74348e-08 0)
(2.32257e-06 -2.30158e-08 0)
(2.36325e-06 -1.79087e-08 0)
(1.58977e-06 -6.79579e-08 0)
(1.62501e-06 -6.78951e-08 0)
(1.66109e-06 -6.78947e-08 0)
(1.69781e-06 -6.79364e-08 0)
(1.7353e-06 -6.78468e-08 0)
(1.77344e-06 -6.76622e-08 0)
(1.81226e-06 -6.72615e-08 0)
(1.85165e-06 -6.66466e-08 0)
(1.89164e-06 -6.57781e-08 0)
(1.93215e-06 -6.46071e-08 0)
(1.97311e-06 -6.31144e-08 0)
(2.01447e-06 -6.12715e-08 0)
(2.05617e-06 -5.90154e-08 0)
(2.09813e-06 -5.62938e-08 0)
(2.14031e-06 -5.30671e-08 0)
(2.18263e-06 -4.92629e-08 0)
(2.22502e-06 -4.47932e-08 0)
(2.26735e-06 -3.9556e-08 0)
(2.30959e-06 -3.34082e-08 0)
(2.35138e-06 -2.63235e-08 0)
(1.52729e-06 -9.4697e-08 0)
(1.5675e-06 -9.35207e-08 0)
(1.6081e-06 -9.25697e-08 0)
(1.64874e-06 -9.19013e-08 0)
(1.68981e-06 -9.11778e-08 0)
(1.73116e-06 -9.04544e-08 0)
(1.77291e-06 -8.95411e-08 0)
(1.81497e-06 -8.84425e-08 0)
(1.8574e-06 -8.70681e-08 0)
(1.90013e-06 -8.53515e-08 0)
(1.94317e-06 -8.32684e-08 0)
(1.98649e-06 -8.07728e-08 0)
(2.03003e-06 -7.77815e-08 0)
(2.07373e-06 -7.42245e-08 0)
(2.11758e-06 -7.00457e-08 0)
(2.16146e-06 -6.51464e-08 0)
(2.20537e-06 -5.9418e-08 0)
(2.24915e-06 -5.27321e-08 0)
(2.29285e-06 -4.4891e-08 0)
(2.33607e-06 -3.58856e-08 0)
(1.45262e-06 -1.26315e-07 0)
(1.49853e-06 -1.23294e-07 0)
(1.54445e-06 -1.20736e-07 0)
(1.58979e-06 -1.1886e-07 0)
(1.63516e-06 -1.17105e-07 0)
(1.68038e-06 -1.15523e-07 0)
(1.72558e-06 -1.13821e-07 0)
(1.77084e-06 -1.11995e-07 0)
(1.8162e-06 -1.09935e-07 0)
(1.86166e-06 -1.07549e-07 0)
(1.90723e-06 -1.04787e-07 0)
(1.95291e-06 -1.01573e-07 0)
(1.99866e-06 -9.7796e-08 0)
(2.04443e-06 -9.33715e-08 0)
(2.09024e-06 -8.82177e-08 0)
(2.136e-06 -8.2224e-08 0)
(2.18175e-06 -7.52476e-08 0)
(2.22728e-06 -6.71494e-08 0)
(2.27273e-06 -5.76813e-08 0)
(2.31768e-06 -4.68084e-08 0)
(1.36787e-06 -1.63185e-07 0)
(1.42003e-06 -1.57612e-07 0)
(1.47186e-06 -1.5282e-07 0)
(1.52243e-06 -1.49194e-07 0)
(1.57254e-06 -1.45955e-07 0)
(1.62209e-06 -1.43115e-07 0)
(1.67124e-06 -1.4035e-07 0)
(1.72012e-06 -1.37572e-07 0)
(1.76883e-06 -1.34648e-07 0)
(1.81741e-06 -1.31455e-07 0)
(1.86589e-06 -1.27898e-07 0)
(1.91428e-06 -1.23866e-07 0)
(1.96256e-06 -1.19227e-07 0)
(2.01073e-06 -1.13887e-07 0)
(2.05881e-06 -1.07738e-07 0)
(2.10676e-06 -1.00654e-07 0)
(2.15462e-06 -9.24546e-08 0)
(2.20221e-06 -8.29764e-08 0)
(2.24965e-06 -7.19356e-08 0)
(2.2966e-06 -5.92627e-08 0)
(1.27498e-06 -2.05504e-07 0)
(1.33362e-06 -1.96501e-07 0)
(1.39169e-06 -1.88786e-07 0)
(1.44788e-06 -1.8279e-07 0)
(1.50321e-06 -1.77632e-07 0)
(1.55746e-06 -1.73154e-07 0)
(1.61101e-06 -1.69028e-07 0)
(1.66392e-06 -1.6507e-07 0)
(1.71635e-06 -1.611e-07 0)
(1.76836e-06 -1.56953e-07 0)
(1.82004e-06 -1.52488e-07 0)
(1.8714e-06 -1.47558e-07 0)
(1.92248e-06 -1.42015e-07 0)
(1.97333e-06 -1.35742e-07 0)
(2.02396e-06 -1.28605e-07 0)
(2.07436e-06 -1.2045e-07 0)
(2.12456e-06 -1.11065e-07 0)
(2.17444e-06 -1.00255e-07 0)
(2.22411e-06 -8.76997e-08 0)
(2.27328e-06 -7.33025e-08 0)
(1.17609e-06 -2.53132e-07 0)
(1.24128e-06 -2.40096e-07 0)
(1.3057e-06 -2.29067e-07 0)
(1.36773e-06 -2.20158e-07 0)
(1.42847e-06 -2.12616e-07 0)
(1.48772e-06 -2.061e-07 0)
(1.54589e-06 -2.00266e-07 0)
(1.60308e-06 -1.94837e-07 0)
(1.65948e-06 -1.89587e-07 0)
(1.71519e-06 -1.84297e-07 0)
(1.7703e-06 -1.78778e-07 0)
(1.82489e-06 -1.7285e-07 0)
(1.87903e-06 -1.66339e-07 0)
(1.93278e-06 -1.59099e-07 0)
(1.98619e-06 -1.5096e-07 0)
(2.03927e-06 -1.41733e-07 0)
(2.09202e-06 -1.31178e-07 0)
(2.14439e-06 -1.19066e-07 0)
(2.19649e-06 -1.05059e-07 0)
(2.24809e-06 -8.9027e-08 0)
(1.07319e-06 -3.05411e-07 0)
(1.14559e-06 -2.86831e-07 0)
(1.21639e-06 -2.71936e-07 0)
(1.28455e-06 -2.59668e-07 0)
(1.35074e-06 -2.49453e-07 0)
(1.41517e-06 -2.4068e-07 0)
(1.47807e-06 -2.32948e-07 0)
(1.53966e-06 -2.25901e-07 0)
(1.60015e-06 -2.19261e-07 0)
(1.65968e-06 -2.12751e-07 0)
(1.71835e-06 -2.06134e-07 0)
(1.77629e-06 -1.99195e-07 0)
(1.83359e-06 -1.91727e-07 0)
(1.89035e-06 -1.83545e-07 0)
(1.94662e-06 -1.74448e-07 0)
(2.00243e-06 -1.6421e-07 0)
(2.05783e-06 -1.52572e-07 0)
(2.11277e-06 -1.3925e-07 0)
(2.16742e-06 -1.23905e-07 0)
(2.22159e-06 -1.06345e-07 0)
(9.94822e-07 -3.57833e-07 0)
(1.07272e-06 -3.34114e-07 0)
(1.14783e-06 -3.15918e-07 0)
(1.22032e-06 -3.00569e-07 0)
(1.29041e-06 -2.87717e-07 0)
(1.35845e-06 -2.76639e-07 0)
(1.42467e-06 -2.66874e-07 0)
(1.48935e-06 -2.58034e-07 0)
(1.55268e-06 -2.4979e-07 0)
(1.61483e-06 -2.41829e-07 0)
(1.67593e-06 -2.33888e-07 0)
(1.73612e-06 -2.25732e-07 0)
(1.79554e-06 -2.17127e-07 0)
(1.85426e-06 -2.07865e-07 0)
(1.91236e-06 -1.97721e-07 0)
(1.9699e-06 -1.86438e-07 0)
(2.02693e-06 -1.7377e-07 0)
(2.08349e-06 -1.59382e-07 0)
(2.1397e-06 -1.42945e-07 0)
(2.19545e-06 -1.24213e-07 0)
(9.51184e-07 -4.01513e-07 0)
(1.02988e-06 -3.76843e-07 0)
(1.10574e-06 -3.56709e-07 0)
(1.17946e-06 -3.3939e-07 0)
(1.25094e-06 -3.24558e-07 0)
(1.32042e-06 -3.11595e-07 0)
(1.38808e-06 -3.00059e-07 0)
(1.45414e-06 -2.89566e-07 0)
(1.51876e-06 -2.79771e-07 0)
(1.58209e-06 -2.70358e-07 0)
(1.64428e-06 -2.61068e-07 0)
(1.70547e-06 -2.51654e-07 0)
(1.76578e-06 -2.41871e-07 0)
(1.8253e-06 -2.31499e-07 0)
(1.8841e-06 -2.20312e-07 0)
(1.94228e-06 -2.08034e-07 0)
(1.99988e-06 -1.94449e-07 0)
(2.05698e-06 -1.79204e-07 0)
(2.11371e-06 -1.61977e-07 0)
(2.16997e-06 -1.4251e-07 0)
(9.15026e-07 -4.42784e-07 0)
(9.92908e-07 -4.17739e-07 0)
(1.0688e-06 -3.96539e-07 0)
(1.14287e-06 -3.77867e-07 0)
(1.21499e-06 -3.61488e-07 0)
(1.28525e-06 -3.46923e-07 0)
(1.3538e-06 -3.33795e-07 0)
(1.42074e-06 -3.2175e-07 0)
(1.48624e-06 -3.10461e-07 0)
(1.55041e-06 -2.99634e-07 0)
(1.61339e-06 -2.89013e-07 0)
(1.67533e-06 -2.7835e-07 0)
(1.73631e-06 -2.67392e-07 0)
(1.79645e-06 -2.55922e-07 0)
(1.85581e-06 -2.43711e-07 0)
(1.91451e-06 -2.30479e-07 0)
(1.97258e-06 -2.16026e-07 0)
(2.03015e-06 -2.00006e-07 0)
(2.08731e-06 -1.82103e-07 0)
(2.14405e-06 -1.62074e-07 0)
(8.83501e-07 -4.82761e-07 0)
(9.60314e-07 -4.57641e-07 0)
(1.03563e-06 -4.35672e-07 0)
(1.10949e-06 -4.15894e-07 0)
(1.18167e-06 -3.98192e-07 0)
(1.25223e-06 -3.8221e-07 0)
(1.32121e-06 -3.67632e-07 0)
(1.38867e-06 -3.54145e-07 0)
(1.45472e-06 -3.41451e-07 0)
(1.51947e-06 -3.29278e-07 0)
(1.58304e-06 -3.17384e-07 0)
(1.64553e-06 -3.05521e-07 0)
(1.70705e-06 -2.93435e-07 0)
(1.76769e-06 -2.80915e-07 0)
(1.82752e-06 -2.67734e-07 0)
(1.88666e-06 -2.53619e-07 0)
(1.94517e-06 -2.3838e-07 0)
(2.00315e-06 -2.21685e-07 0)
(2.06071e-06 -2.03238e-07 0)
(2.11794e-06 -1.82827e-07 0)
(8.56016e-07 -5.20961e-07 0)
(9.31504e-07 -4.96006e-07 0)
(1.00591e-06 -4.73639e-07 0)
(1.07915e-06 -4.53104e-07 0)
(1.15101e-06 -4.34386e-07 0)
(1.22148e-06 -4.17238e-07 0)
(1.29052e-06 -4.01403e-07 0)
(1.35817e-06 -3.86625e-07 0)
(1.42451e-06 -3.72646e-07 0)
(1.4896e-06 -3.59222e-07 0)
(1.55355e-06 -3.4613e-07 0)
(1.61643e-06 -3.33128e-07 0)
(1.67833e-06 -3.19967e-07 0)
(1.73935e-06 -3.06453e-07 0)
(1.79955e-06 -2.92358e-07 0)
(1.85906e-06 -2.7743e-07 0)
(1.91792e-06 -2.61481e-07 0)
(1.97628e-06 -2.44201e-07 0)
(2.03421e-06 -2.25328e-07 0)
(2.0919e-06 -2.04687e-07 0)
(8.31761e-07 -5.57652e-07 0)
(9.0583e-07 -5.32988e-07 0)
(9.79154e-07 -5.10419e-07 0)
(1.05152e-06 -4.89355e-07 0)
(1.1228e-06 -4.69854e-07 0)
(1.19288e-06 -4.51745e-07 0)
(1.26171e-06 -4.34835e-07 0)
(1.3293e-06 -4.18927e-07 0)
(1.39569e-06 -4.038e-07 0)
(1.46092e-06 -3.8924e-07 0)
(1.52505e-06 -3.75045e-07 0)
(1.58816e-06 -3.60985e-07 0)
(1.65031e-06 -3.46824e-07 0)
(1.71159e-06 -3.3239e-07 0)
(1.77206e-06 -3.17452e-07 0)
(1.83185e-06 -3.01793e-07 0)
(1.89101e-06 -2.85221e-07 0)
(1.94968e-06 -2.67454e-07 0)
(2.00797e-06 -2.48275e-07 0)
(2.06604e-06 -2.27527e-07 0)
(8.10228e-07 -5.92885e-07 0)
(8.82844e-07 -5.68599e-07 0)
(9.54966e-07 -5.45988e-07 0)
(1.02633e-06 -5.24586e-07 0)
(1.09682e-06 -5.04504e-07 0)
(1.1663e-06 -4.85621e-07 0)
(1.23471e-06 -4.67815e-07 0)
(1.30204e-06 -4.50939e-07 0)
(1.36828e-06 -4.34802e-07 0)
(1.43346e-06 -4.19223e-07 0)
(1.49762e-06 -4.04025e-07 0)
(1.5608e-06 -3.88997e-07 0)
(1.62307e-06 -3.7392e-07 0)
(1.6845e-06 -3.58647e-07 0)
(1.74516e-06 -3.42943e-07 0)
(1.80515e-06 -3.2663e-07 0)
(1.86454e-06 -3.09521e-07 0)
(1.92347e-06 -2.91366e-07 0)
(1.98207e-06 -2.71983e-07 0)
(2.04044e-06 -2.51221e-07 0)
(7.90941e-07 -6.26787e-07 0)
(8.62138e-07 -6.02919e-07 0)
(9.32986e-07 -5.80369e-07 0)
(1.00326e-06 -5.58771e-07 0)
(1.07283e-06 -5.3826e-07 0)
(1.14156e-06 -5.18765e-07 0)
(1.2094e-06 -5.00225e-07 0)
(1.2763e-06 -4.8253e-07 0)
(1.34223e-06 -4.65517e-07 0)
(1.40721e-06 -4.49038e-07 0)
(1.47126e-06 -4.32946e-07 0)
(1.53439e-06 -4.17047e-07 0)
(1.59667e-06 -4.01143e-07 0)
(1.65816e-06 -3.85117e-07 0)
(1.71893e-06 -3.68734e-07 0)
(1.77906e-06 -3.5185e-07 0)
(1.83863e-06 -3.34294e-07 0)
(1.89779e-06 -3.15843e-07 0)
(1.95663e-06 -2.96343e-07 0)
(2.01526e-06 -2.75648e-07 0)
(7.73472e-07 -6.59469e-07 0)
(8.43266e-07 -6.36034e-07 0)
(9.12837e-07 -6.13611e-07 0)
(9.81965e-07 -5.91917e-07 0)
(1.05054e-06 -5.711e-07 0)
(1.11844e-06 -5.51135e-07 0)
(1.1856e-06 -5.32001e-07 0)
(1.25196e-06 -5.13622e-07 0)
(1.31747e-06 -4.95859e-07 0)
(1.38213e-06 -4.78599e-07 0)
(1.44596e-06 -4.61722e-07 0)
(1.50895e-06 -4.45054e-07 0)
(1.57117e-06 -4.2842e-07 0)
(1.63265e-06 -4.11728e-07 0)
(1.69345e-06 -3.94754e-07 0)
(1.75369e-06 -3.77383e-07 0)
(1.8134e-06 -3.59465e-07 0)
(1.87274e-06 -3.40798e-07 0)
(1.93175e-06 -3.21248e-07 0)
(1.99064e-06 -3.00702e-07 0)
(7.5746e-07 -6.91035e-07 0)
(8.25872e-07 -6.68031e-07 0)
(8.94188e-07 -6.45777e-07 0)
(9.62155e-07 -6.24057e-07 0)
(1.02972e-06 -6.03035e-07 0)
(1.09675e-06 -5.82715e-07 0)
(1.16317e-06 -5.63107e-07 0)
(1.22891e-06 -5.44162e-07 0)
(1.29392e-06 -5.25768e-07 0)
(1.35819e-06 -5.0784e-07 0)
(1.42172e-06 -4.90286e-07 0)
(1.4845e-06 -4.72948e-07 0)
(1.54658e-06 -4.5568e-07 0)
(1.60799e-06 -4.3841e-07 0)
(1.66879e-06 -4.20933e-07 0)
(1.72907e-06 -4.03159e-07 0)
(1.78887e-06 -3.84957e-07 0)
(1.84832e-06 -3.66138e-07 0)
(1.90748e-06 -3.46603e-07 0)
(1.96658e-06 -3.26282e-07 0)
(7.42565e-07 -7.21591e-07 0)
(8.09655e-07 -6.99004e-07 0)
(8.76743e-07 -6.7694e-07 0)
(9.43582e-07 -6.55249e-07 0)
(1.01015e-06 -6.34103e-07 0)
(1.07629e-06 -6.1352e-07 0)
(1.14193e-06 -5.93538e-07 0)
(1.20702e-06 -5.74131e-07 0)
(1.27147e-06 -5.55211e-07 0)
(1.33529e-06 -5.36721e-07 0)
(1.39846e-06 -5.18591e-07 0)
(1.46098e-06 -5.0068e-07 0)
(1.52287e-06 -4.82869e-07 0)
(1.58417e-06 -4.65108e-07 0)
(1.64492e-06 -4.47209e-07 0)
(1.70521e-06 -4.29106e-07 0)
(1.76505e-06 -4.10683e-07 0)
(1.82457e-06 -3.91772e-07 0)
(1.88387e-06 -3.72317e-07 0)
(1.94308e-06 -3.52265e-07 0)
(7.28507e-07 -7.51237e-07 0)
(7.94351e-07 -7.29041e-07 0)
(8.60258e-07 -7.0718e-07 0)
(9.26021e-07 -6.85562e-07 0)
(9.91603e-07 -6.64349e-07 0)
(1.05685e-06 -6.43574e-07 0)
(1.1217e-06 -6.23301e-07 0)
(1.18611e-06 -6.03522e-07 0)
(1.24999e-06 -5.84174e-07 0)
(1.31334e-06 -5.65215e-07 0)
(1.37613e-06 -5.466e-07 0)
(1.43836e-06 -5.28207e-07 0)
(1.50005e-06 -5.0994e-07 0)
(1.56122e-06 -4.91768e-07 0)
(1.6219e-06 -4.73523e-07 0)
(1.68216e-06 -4.55157e-07 0)
(1.74201e-06 -4.36567e-07 0)
(1.80158e-06 -4.17621e-07 0)
(1.86097e-06 -3.98301e-07 0)
(1.92027e-06 -3.78532e-07 0)
(7.15082e-07 -7.80059e-07 0)
(7.79745e-07 -7.58228e-07 0)
(8.44533e-07 -7.36581e-07 0)
(9.09258e-07 -7.15058e-07 0)
(9.73873e-07 -6.93818e-07 0)
(1.03825e-06 -6.72905e-07 0)
(1.10232e-06 -6.52415e-07 0)
(1.16605e-06 -6.32345e-07 0)
(1.22937e-06 -6.12655e-07 0)
(1.29226e-06 -5.93315e-07 0)
(1.35468e-06 -5.74306e-07 0)
(1.41661e-06 -5.55518e-07 0)
(1.47808e-06 -5.36876e-07 0)
(1.5391e-06 -5.18369e-07 0)
(1.59967e-06 -4.99843e-07 0)
(1.65988e-06 -4.81266e-07 0)
(1.71971e-06 -4.6256e-07 0)
(1.77932e-06 -4.4363e-07 0)
(1.83872e-06 -4.24472e-07 0)
(1.89811e-06 -4.05018e-07 0)
(7.02082e-07 -8.08129e-07 0)
(7.65629e-07 -7.8665e-07 0)
(8.29352e-07 -7.65209e-07 0)
(8.93071e-07 -7.43791e-07 0)
(9.56764e-07 -7.22553e-07 0)
(1.02031e-06 -7.01557e-07 0)
(1.08366e-06 -6.80916e-07 0)
(1.14674e-06 -6.60633e-07 0)
(1.20952e-06 -6.40681e-07 0)
(1.27194e-06 -6.21038e-07 0)
(1.33398e-06 -6.01706e-07 0)
(1.39562e-06 -5.82593e-07 0)
(1.45687e-06 -5.63641e-07 0)
(1.51772e-06 -5.44858e-07 0)
(1.57818e-06 -5.26103e-07 0)
(1.63831e-06 -5.0736e-07 0)
(1.69811e-06 -4.88587e-07 0)
(1.75773e-06 -4.69706e-07 0)
(1.81712e-06 -4.50722e-07 0)
(1.87654e-06 -4.31629e-07 0)
(6.89263e-07 -8.35533e-07 0)
(7.51756e-07 -8.14376e-07 0)
(8.14466e-07 -7.93129e-07 0)
(8.77242e-07 -7.71825e-07 0)
(9.40082e-07 -7.50622e-07 0)
(1.00285e-06 -7.29595e-07 0)
(1.06553e-06 -7.08854e-07 0)
(1.128e-06 -6.88417e-07 0)
(1.19027e-06 -6.68259e-07 0)
(1.25227e-06 -6.4838e-07 0)
(1.31397e-06 -6.28798e-07 0)
(1.37535e-06 -6.09431e-07 0)
(1.4364e-06 -5.90236e-07 0)
(1.4971e-06 -5.71232e-07 0)
(1.55746e-06 -5.52292e-07 0)
(1.61752e-06 -5.33424e-07 0)
(1.6773e-06 -5.14614e-07 0)
(1.73686e-06 -4.95806e-07 0)
(1.79628e-06 -4.77023e-07 0)
(1.85569e-06 -4.58287e-07 0)
(6.76383e-07 -8.62335e-07 0)
(7.37878e-07 -8.41481e-07 0)
(7.99639e-07 -8.20405e-07 0)
(8.6156e-07 -7.99229e-07 0)
(9.23621e-07 -7.78093e-07 0)
(9.8569e-07 -7.57074e-07 0)
(1.04775e-06 -7.36275e-07 0)
(1.10971e-06 -7.1574e-07 0)
(1.17152e-06 -6.95444e-07 0)
(1.23314e-06 -6.75391e-07 0)
(1.29453e-06 -6.55617e-07 0)
(1.35567e-06 -6.36054e-07 0)
(1.41653e-06 -6.16665e-07 0)
(1.4771e-06 -5.97474e-07 0)
(1.53736e-06 -5.78379e-07 0)
(1.59737e-06 -5.59422e-07 0)
(1.65712e-06 -5.40601e-07 0)
(1.71665e-06 -5.21864e-07 0)
(1.77606e-06 -5.03299e-07 0)
(1.83547e-06 -4.84925e-07 0)
(6.632e-07 -8.88625e-07 0)
(7.23757e-07 -8.67997e-07 0)
(7.84631e-07 -8.47115e-07 0)
(8.45815e-07 -8.261e-07 0)
(9.07171e-07 -8.05047e-07 0)
(9.68649e-07 -7.84064e-07 0)
(1.03016e-06 -7.63255e-07 0)
(1.09166e-06 -7.42657e-07 0)
(1.15309e-06 -7.2226e-07 0)
(1.2144e-06 -7.02089e-07 0)
(1.27554e-06 -6.82182e-07 0)
(1.33649e-06 -6.62467e-07 0)
(1.39721e-06 -6.42915e-07 0)
(1.45768e-06 -6.23579e-07 0)
(1.51789e-06 -6.04377e-07 0)
(1.57788e-06 -5.85346e-07 0)
(1.6376e-06 -5.66499e-07 0)
(1.69715e-06 -5.4784e-07 0)
(1.7565e-06 -5.29493e-07 0)
(1.81591e-06 -5.11466e-07 0)
(6.49443e-07 -9.14385e-07 0)
(7.09179e-07 -8.94011e-07 0)
(7.69334e-07 -8.73349e-07 0)
(8.29834e-07 -8.5249e-07 0)
(8.90608e-07 -8.31558e-07 0)
(9.51566e-07 -8.10634e-07 0)
(1.01264e-06 -7.89839e-07 0)
(1.07377e-06 -7.69229e-07 0)
(1.13489e-06 -7.4879e-07 0)
(1.19596e-06 -7.28544e-07 0)
(1.25693e-06 -7.08535e-07 0)
(1.31773e-06 -6.8871e-07 0)
(1.37836e-06 -6.69043e-07 0)
(1.43879e-06 -6.49588e-07 0)
(1.49901e-06 -6.3029e-07 0)
(1.559e-06 -6.11202e-07 0)
(1.61872e-06 -5.9233e-07 0)
(1.67834e-06 -5.73719e-07 0)
(1.73772e-06 -5.55564e-07 0)
(1.79705e-06 -5.37904e-07 0)
(6.34879e-07 -9.39836e-07 0)
(6.93866e-07 -9.19704e-07 0)
(7.53406e-07 -8.99228e-07 0)
(8.13354e-07 -8.78538e-07 0)
(8.73657e-07 -8.57722e-07 0)
(9.34211e-07 -8.36883e-07 0)
(9.94962e-07 -8.16136e-07 0)
(1.05584e-06 -7.95538e-07 0)
(1.11677e-06 -7.75085e-07 0)
(1.17768e-06 -7.54802e-07 0)
(1.23853e-06 -7.34726e-07 0)
(1.29928e-06 -7.14806e-07 0)
(1.35991e-06 -6.95053e-07 0)
(1.42034e-06 -6.75534e-07 0)
(1.48058e-06 -6.56142e-07 0)
(1.54066e-06 -6.36948e-07 0)
(1.60052e-06 -6.18069e-07 0)
(1.66018e-06 -5.99493e-07 0)
(1.71965e-06 -5.81436e-07 0)
(1.77899e-06 -5.64088e-07 0)
(6.19364e-07 -9.64835e-07 0)
(6.77746e-07 -9.44982e-07 0)
(7.36767e-07 -9.24747e-07 0)
(7.96292e-07 -9.04247e-07 0)
(8.56251e-07 -8.83579e-07 0)
(9.1656e-07 -8.62851e-07 0)
(9.77135e-07 -8.42196e-07 0)
(1.03788e-06 -8.21662e-07 0)
(1.09872e-06 -8.01214e-07 0)
(1.15959e-06 -7.80895e-07 0)
(1.22044e-06 -7.60798e-07 0)
(1.28119e-06 -7.40858e-07 0)
(1.34185e-06 -7.21024e-07 0)
(1.40237e-06 -7.01411e-07 0)
(1.4627e-06 -6.8198e-07 0)
(1.5229e-06 -6.62722e-07 0)
(1.58296e-06 -6.43782e-07 0)
(1.64279e-06 -6.25161e-07 0)
(1.70248e-06 -6.07129e-07 0)
(1.76192e-06 -5.89966e-07 0)
(4.24972e-08 -7.83821e-07 0)
(1.27971e-07 -7.72516e-07 0)
(2.14796e-07 -7.5029e-07 0)
(3.03796e-07 -7.18129e-07 0)
(3.95515e-07 -6.77257e-07 0)
(4.90301e-07 -6.29197e-07 0)
(5.88264e-07 -5.75781e-07 0)
(6.89186e-07 -5.18765e-07 0)
(7.93023e-07 -4.59967e-07 0)
(8.98712e-07 -4.00678e-07 0)
(4.14321e-08 -7.9853e-07 0)
(1.24716e-07 -7.88183e-07 0)
(2.09078e-07 -7.67839e-07 0)
(2.95228e-07 -7.38335e-07 0)
(3.83616e-07 -7.00719e-07 0)
(4.74487e-07 -6.56276e-07 0)
(5.67989e-07 -6.06551e-07 0)
(6.63738e-07 -5.53136e-07 0)
(7.61664e-07 -4.97596e-07 0)
(8.60425e-07 -4.41622e-07 0)
(4.04453e-08 -8.13538e-07 0)
(1.21694e-07 -8.04072e-07 0)
(2.03811e-07 -7.85424e-07 0)
(2.87322e-07 -7.58327e-07 0)
(3.72654e-07 -7.23706e-07 0)
(4.59944e-07 -6.82685e-07 0)
(5.49376e-07 -6.36584e-07 0)
(6.40652e-07 -5.86794e-07 0)
(7.33774e-07 -5.34594e-07 0)
(8.27642e-07 -4.81561e-07 0)
(3.95782e-08 -8.28875e-07 0)
(1.19004e-07 -8.20146e-07 0)
(1.99191e-07 -8.02953e-07 0)
(2.80464e-07 -7.77933e-07 0)
(3.63232e-07 -7.45906e-07 0)
(4.4756e-07 -7.07859e-07 0)
(5.33591e-07 -6.64967e-07 0)
(6.21046e-07 -6.18495e-07 0)
(7.09874e-07 -5.69612e-07 0)
(7.9921e-07 -5.19798e-07 0)
(3.87978e-08 -8.44542e-07 0)
(1.16548e-07 -8.36486e-07 0)
(1.94954e-07 -8.20612e-07 0)
(2.74211e-07 -7.97467e-07 0)
(3.5468e-07 -7.67788e-07 0)
(4.36395e-07 -7.32493e-07 0)
(5.1948e-07 -6.92603e-07 0)
(6.03699e-07 -6.49196e-07 0)
(6.88968e-07 -6.03361e-07 0)
(7.7451e-07 -5.56475e-07 0)
(3.80537e-08 -8.60527e-07 0)
(1.14297e-07 -8.53046e-07 0)
(1.91067e-07 -8.38314e-07 0)
(2.68536e-07 -8.1684e-07 0)
(3.46984e-07 -7.89244e-07 0)
(4.2645e-07 -7.56392e-07 0)
(5.06959e-07 -7.19214e-07 0)
(5.8834e-07 -6.78643e-07 0)
(6.70515e-07 -6.35696e-07 0)
(7.52767e-07 -5.91666e-07 0)
(3.73416e-08 -8.76807e-07 0)
(1.12171e-07 -8.69857e-07 0)
(1.87417e-07 -8.56149e-07 0)
(2.63263e-07 -8.36176e-07 0)
(3.39869e-07 -8.10468e-07 0)
(4.17331e-07 -7.79831e-07 0)
(4.95613e-07 -7.45118e-07 0)
(5.74542e-07 -7.07146e-07 0)
(6.54073e-07 -6.66851e-07 0)
(7.33515e-07 -6.25471e-07 0)
(3.66919e-08 -8.93362e-07 0)
(1.10154e-07 -8.86886e-07 0)
(1.83973e-07 -8.74096e-07 0)
(2.58316e-07 -8.55463e-07 0)
(3.3326e-07 -8.31456e-07 0)
(4.08903e-07 -8.02811e-07 0)
(4.85206e-07 -7.70338e-07 0)
(5.61999e-07 -7.34761e-07 0)
(6.39246e-07 -6.96924e-07 0)
(7.16296e-07 -6.58012e-07 0)
(3.60658e-08 -9.10181e-07 0)
(1.08207e-07 -9.04128e-07 0)
(1.8068e-07 -8.92166e-07 0)
(2.53593e-07 -8.74744e-07 0)
(3.27009e-07 -8.52285e-07 0)
(4.01013e-07 -8.25445e-07 0)
(4.75537e-07 -7.95006e-07 0)
(5.50443e-07 -7.61625e-07 0)
(6.25702e-07 -7.26048e-07 0)
(7.00699e-07 -6.89406e-07 0)
(3.54247e-08 -9.27232e-07 0)
(1.06308e-07 -9.21569e-07 0)
(1.77488e-07 -9.10353e-07 0)
(2.49043e-07 -8.9402e-07 0)
(3.21014e-07 -8.7297e-07 0)
(3.93514e-07 -8.47771e-07 0)
(4.66428e-07 -8.19178e-07 0)
(5.39645e-07 -7.87809e-07 0)
(6.13147e-07 -7.54316e-07 0)
(6.86357e-07 -7.19761e-07 0)
(3.47801e-08 -9.44488e-07 0)
(1.04451e-07 -9.39193e-07 0)
(1.74351e-07 -9.28657e-07 0)
(2.44603e-07 -9.13306e-07 0)
(3.15195e-07 -8.93537e-07 0)
(3.8628e-07 -8.69839e-07 0)
(4.57721e-07 -8.42928e-07 0)
(5.29408e-07 -8.13397e-07 0)
(6.01336e-07 -7.8182e-07 0)
(6.72969e-07 -7.49185e-07 0)
(3.41563e-08 -9.61928e-07 0)
(1.02621e-07 -9.56975e-07 0)
(1.71236e-07 -9.47059e-07 0)
(2.40214e-07 -9.326e-07 0)
(3.09486e-07 -9.13994e-07 0)
(3.79213e-07 -8.91672e-07 0)
(4.4928e-07 -8.66302e-07 0)
(5.19563e-07 -8.38452e-07 0)
(5.90065e-07 -8.08635e-07 0)
(6.6031e-07 -7.77769e-07 0)
(3.35442e-08 -9.79538e-07 0)
(1.00769e-07 -9.74884e-07 0)
(1.68093e-07 -9.6554e-07 0)
(2.35801e-07 -9.51898e-07 0)
(3.03792e-07 -9.34353e-07 0)
(3.72204e-07 -9.13296e-07 0)
(4.40965e-07 -8.89341e-07 0)
(5.09944e-07 -8.63031e-07 0)
(5.79153e-07 -8.34834e-07 0)
(6.48183e-07 -8.056e-07 0)
(3.29113e-08 -9.97275e-07 0)
(9.8841e-08 -9.9288e-07 0)
(1.64867e-07 -9.84067e-07 0)
(2.31284e-07 -9.7118e-07 0)
(2.98007e-07 -9.54607e-07 0)
(3.65136e-07 -9.34713e-07 0)
(4.32638e-07 -9.12065e-07 0)
(5.00397e-07 -8.87178e-07 0)
(5.6843e-07 -8.60491e-07 0)
(6.36369e-07 -8.32764e-07 0)
(3.22363e-08 -1.0151e-06 0)
(9.68121e-08 -1.01093e-06 0)
(1.61515e-07 -1.00262e-06 0)
(2.26607e-07 -9.90434e-07 0)
(2.92044e-07 -9.74762e-07 0)
(3.579e-07 -9.55949e-07 0)
(4.24169e-07 -9.34513e-07 0)
(4.90771e-07 -9.1095e-07 0)
(5.57693e-07 -8.85667e-07 0)
(6.24616e-07 -8.59332e-07 0)
(3.15188e-08 -1.03294e-06 0)
(9.4679e-08 -1.02899e-06 0)
(1.58007e-07 -1.02115e-06 0)
(2.21719e-07 -1.00962e-06 0)
(2.85825e-07 -9.94788e-07 0)
(3.5039e-07 -9.76976e-07 0)
(4.15436e-07 -9.56678e-07 0)
(4.80914e-07 -9.34354e-07 0)
(5.46751e-07 -9.10381e-07 0)
(6.12738e-07 -8.85342e-07 0)
(3.07632e-08 -1.05078e-06 0)
(9.24257e-08 -1.04704e-06 0)
(1.54288e-07 -1.03964e-06 0)
(2.16542e-07 -1.02873e-06 0)
(2.79257e-07 -1.01469e-06 0)
(3.42494e-07 -9.97829e-07 0)
(4.063e-07 -9.78608e-07 0)
(4.70622e-07 -9.57453e-07 0)
(5.35403e-07 -9.34703e-07 0)
(6.00464e-07 -9.10895e-07 0)
(2.99588e-08 -1.06851e-06 0)
(9.00075e-08 -1.06497e-06 0)
(1.50287e-07 -1.05797e-06 0)
(2.10983e-07 -1.04767e-06 0)
(2.72215e-07 -1.03439e-06 0)
(3.34062e-07 -1.01843e-06 0)
(3.9658e-07 -1.00023e-06 0)
(4.59695e-07 -9.8018e-07 0)
(5.23439e-07 -9.58598e-07 0)
(5.87586e-07 -9.35958e-07 0)
(2.90808e-08 -1.08615e-06 0)
(8.73568e-08 -1.08281e-06 0)
(1.45905e-07 -1.07621e-06 0)
(2.0493e-07 -1.06648e-06 0)
(2.64569e-07 -1.05394e-06 0)
(3.24931e-07 -1.03886e-06 0)
(3.86071e-07 -1.02164e-06 0)
(4.47957e-07 -1.00266e-06 0)
(5.10585e-07 -9.8221e-07 0)
(5.73831e-07 -9.60705e-07 0)
(2.81167e-08 -1.10339e-06 0)
(8.44607e-08 -1.10025e-06 0)
(1.41117e-07 -1.09404e-06 0)
(1.98317e-07 -1.08489e-06 0)
(2.56242e-07 -1.07308e-06 0)
(3.15016e-07 -1.05888e-06 0)
(3.74683e-07 -1.04263e-06 0)
(4.3532e-07 -1.0247e-06 0)
(4.96804e-07 -1.00537e-06 0)
(5.59163e-07 -9.84992e-07 0)
)


// ************************************************************************* //
