/*--------------------------------*- C++ -*----------------------------------*\
| =========                 |                                                 |
| \\      /  F ield         | foam-extend: Open Source CFD                    |
|  \\    /   O peration     | Version:     4.1                                |
|   \\  /    A nd           | Web:         http://www.foam-extend.org         |
|    \\/     M anipulation  |                                                 |
\*---------------------------------------------------------------------------*/
FoamFile
{
    version     2.0;
    format      ascii;
    class       vectorField;
    location    "1";
    object      solidsCellD_iteration5;
}
// * * * * * * * * * * * * * * * * * * * * * * * * * * * * * * * * * * * * * //


1000
(
(3.734059045340892e-07 -7.102137481050092e-08 0)
(3.628723169114795e-07 -7.130918549294973e-08 0)
(3.57982891508224e-07 -7.36997689913103e-08 0)
(3.57149245025265e-07 -7.759496152234339e-08 0)
(3.592621319786532e-07 -8.256790818850308e-08 0)
(3.636252121920792e-07 -8.830087108797444e-08 0)
(3.696527729434952e-07 -9.464191175771296e-08 0)
(3.768125377979122e-07 -1.01598176799683e-07 0)
(3.850073228831722e-07 -1.088586311434024e-07 0)
(3.92043424895529e-07 -1.16883749402445e-07 0)
(3.392948688296518e-07 -7.778776666895283e-08 0)
(3.279380785601077e-07 -8.021728425160829e-08 0)
(3.222741964225352e-07 -8.41227549589044e-08 0)
(3.207722568441794e-07 -8.913230269238591e-08 0)
(3.22151758158203e-07 -9.493439589480051e-08 0)
(3.255815521455941e-07 -1.013221127634565e-07 0)
(3.305423776205927e-07 -1.081536958931127e-07 0)
(3.365122401570697e-07 -1.154527490155011e-07 0)
(3.433537014784863e-07 -1.228265544860451e-07 0)
(3.496652202993665e-07 -1.310066674553725e-07 0)
(3.032376256389446e-07 -8.415905440787724e-08 0)
(2.915119476875195e-07 -8.8938805995859e-08 0)
(2.854779171723742e-07 -9.438311337396409e-08 0)
(2.834495200286359e-07 -1.004701859781076e-07 0)
(2.842286318063021e-07 -1.069997021345481e-07 0)
(2.869482801749693e-07 -1.138916155464893e-07 0)
(2.911017498107865e-07 -1.210500563138411e-07 0)
(2.962953535485686e-07 -1.284527203401292e-07 0)
(3.023280633095054e-07 -1.357825926721184e-07 0)
(3.08206054252682e-07 -1.436917238966887e-07 0)
(2.656662911708233e-07 -9.00187868885063e-08 0)
(2.54143698287662e-07 -9.718919051224542e-08 0)
(2.4806272432676e-07 -1.041496627734781e-07 0)
(2.457163256103316e-07 -1.112577624248471e-07 0)
(2.460048048532722e-07 -1.184766252626065e-07 0)
(2.48172601161181e-07 -1.257823144607818e-07 0)
(2.516681707874415e-07 -1.331658843425642e-07 0)
(2.562142856037338e-07 -1.406205915485874e-07 0)
(2.615740233669333e-07 -1.479554346685895e-07 0)
(2.670273292951413e-07 -1.556526282599185e-07 0)
(2.268739732206998e-07 -9.522136404114973e-08 0)
(2.160560014658251e-07 -1.047073177107533e-07 0)
(2.101887185507953e-07 -1.131662880077218e-07 0)
(2.077745017322805e-07 -1.212436726057228e-07 0)
(2.077906276037002e-07 -1.290603233591578e-07 0)
(2.094867253966314e-07 -1.367339358763897e-07 0)
(2.124078295936804e-07 -1.443272465632161e-07 0)
(2.16286395969645e-07 -1.518407158045172e-07 0)
(2.209792927489993e-07 -1.591854079063965e-07 0)
(2.258717089922335e-07 -1.667337108641733e-07 0)
(1.869976894188871e-07 -9.970326535232318e-08 0)
(1.773524113789759e-07 -1.113164716173265e-07 0)
(1.720803529980265e-07 -1.211265403856207e-07 0)
(1.698115583406131e-07 -1.300986178723091e-07 0)
(1.696554200914477e-07 -1.38489450415694e-07 0)
(1.709060352873789e-07 -1.465152969857229e-07 0)
(1.732992659930072e-07 -1.542747130984577e-07 0)
(1.765585064206344e-07 -1.618605312332631e-07 0)
(1.805353311757638e-07 -1.69245139224864e-07 0)
(1.847314228129568e-07 -1.767036226849527e-07 0)
(1.463042400463444e-07 -1.033538973185166e-07 0)
(1.382879021744921e-07 -1.168265878458833e-07 0)
(1.338680175237734e-07 -1.278219507930395e-07 0)
(1.318927381665831e-07 -1.375642171656368e-07 0)
(1.316395806237938e-07 -1.464383184903629e-07 0)
(1.325672788604323e-07 -1.547727638072621e-07 0)
(1.344571175112824e-07 -1.626959206871609e-07 0)
(1.370535301122325e-07 -1.703683326958443e-07 0)
(1.402249834385782e-07 -1.778172887906099e-07 0)
(1.436004680112048e-07 -1.852317228737294e-07 0)
(1.04960894942704e-07 -1.061375404456339e-07 0)
(9.892423834024887e-08 -1.210992110767672e-07 0)
(9.559100547024501e-08 -1.330374574656933e-07 0)
(9.411356700413448e-08 -1.433677740527136e-07 0)
(9.386749402374868e-08 -1.526460898328662e-07 0)
(9.450324836778878e-08 -1.612198533998481e-07 0)
(9.58563674595224e-08 -1.692961073690456e-07 0)
(9.774338442459056e-08 -1.770393140666278e-07 0)
(1.000533399495444e-07 -1.845344960284856e-07 0)
(1.025120492291934e-07 -1.919075371577617e-07 0)
(6.315979198067507e-08 -1.080141093685111e-07 0)
(5.944240400444713e-08 -1.240031212609756e-07 0)
(5.738663437085137e-08 -1.365909167981757e-07 0)
(5.641889200832093e-08 -1.473755377998244e-07 0)
(5.621267133715893e-08 -1.569341430678787e-07 0)
(5.660272442633976e-08 -1.656680771927824e-07 0)
(5.745352907974395e-08 -1.738584033712574e-07 0)
(5.859880650510361e-08 -1.816843434533587e-07 0)
(5.997424821375802e-08 -1.892572618691339e-07 0)
(6.146178233289201e-08 -1.966386725869458e-07 0)
(2.110712671482331e-08 -1.089646939536421e-07 0)
(1.982424186591889e-08 -1.254691617879568e-07 0)
(1.910483399564067e-08 -1.384073108759601e-07 0)
(1.880078695075794e-08 -1.494057125985343e-07 0)
(1.875757871335335e-08 -1.590858419245898e-07 0)
(1.886613249302449e-08 -1.678996233201496e-07 0)
(1.912433707938611e-08 -1.761341304006784e-07 0)
(1.951464922560429e-08 -1.839787398102589e-07 0)
(1.998417186520618e-08 -1.915674866064691e-07 0)
(2.047535632571002e-08 -1.989286613977246e-07 0)
(5.624621135454707e-07 -3.161897481450323e-09 0)
(5.656764237530756e-07 -2.454657013798312e-09 0)
(5.698557262559379e-07 -2.116221925583649e-09 0)
(5.75326656051796e-07 -2.031233261347732e-09 0)
(5.822030135302012e-07 -2.121908453222494e-09 0)
(5.903628527673184e-07 -2.328086750055378e-09 0)
(5.997889565691726e-07 -2.588910479707567e-09 0)
(6.102590109477503e-07 -2.908784188548569e-09 0)
(6.218076480928005e-07 -3.290825201797741e-09 0)
(6.342879904094332e-07 -3.686036684562044e-09 0)
(5.588196272451578e-07 -9.508742425408029e-09 0)
(5.615527838696432e-07 -7.433534519746127e-09 0)
(5.65454242107942e-07 -6.459901796065235e-09 0)
(5.707089971413646e-07 -6.247387263372128e-09 0)
(5.774395925457314e-07 -6.508728483777693e-09 0)
(5.854597558079124e-07 -7.095883577478044e-09 0)
(5.948220711411699e-07 -7.922614844324685e-09 0)
(6.05255508148462e-07 -8.915722612756814e-09 0)
(6.16731610693685e-07 -1.001663184617586e-08 0)
(6.291869207111201e-07 -1.117540810610417e-08 0)
(5.514123065532003e-07 -1.590648326274302e-08 0)
(5.532647455465788e-07 -1.263400016436789e-08 0)
(5.566311972755292e-07 -1.111659683158418e-08 0)
(5.615406053933458e-07 -1.078948294128855e-08 0)
(5.680291053334119e-07 -1.127095709662388e-08 0)
(5.759089934196793e-07 -1.228723815752603e-08 0)
(5.851174770488958e-07 -1.36556248555022e-08 0)
(5.954199263880962e-07 -1.528118415929063e-08 0)
(6.067587733222828e-07 -1.709657122811219e-08 0)
(6.191623192588798e-07 -1.902919093137397e-08 0)
(5.40388802600538e-07 -2.240304883900482e-08 0)
(5.410276821285262e-07 -1.815915969787758e-08 0)
(5.435777678825299e-07 -1.628682500497883e-08 0)
(5.480094982084791e-07 -1.595936707586206e-08 0)
(5.541234777160483e-07 -1.667366064973202e-08 0)
(5.617179571653711e-07 -1.809660668314309e-08 0)
(5.707223850778145e-07 -1.999527259693145e-08 0)
(5.809250226854691e-07 -2.226033901938708e-08 0)
(5.921090632432815e-07 -2.480393833802595e-08 0)
(6.044866373579833e-07 -2.748293666009742e-08 0)
(5.257956498206188e-07 -2.903900940899616e-08 0)
(5.249853811125196e-07 -2.414652650748653e-08 0)
(5.265494524815822e-07 -2.209492171744009e-08 0)
(5.303081708694478e-07 -2.18857030241659e-08 0)
(5.359874649113211e-07 -2.288610416850594e-08 0)
(5.432859632977493e-07 -2.474049263962716e-08 0)
(5.520285808526124e-07 -2.719159061311095e-08 0)
(5.620644902606175e-07 -3.007273638747607e-08 0)
(5.730537695363236e-07 -3.329850598638684e-08 0)
(5.854164973833859e-07 -3.666255143480292e-08 0)
(5.078164982605968e-07 -3.582566225005376e-08 0)
(5.053018049238187e-07 -3.067901576190248e-08 0)
(5.057692616640803e-07 -2.86602164584433e-08 0)
(5.088028390972763e-07 -2.871426816664136e-08 0)
(5.139967393354799e-07 -3.01059529389577e-08 0)
(5.20956189950378e-07 -3.242922392937974e-08 0)
(5.294450567211475e-07 -3.540798601843654e-08 0)
(5.392952670661666e-07 -3.884077743048352e-08 0)
(5.50105337518273e-07 -4.268970038509146e-08 0)
(5.625145341604176e-07 -4.668184561914404e-08 0)
(4.866199568866377e-07 -4.274985196006656e-08 0)
(4.822891786478461e-07 -3.779575689272529e-08 0)
(4.815949147468531e-07 -3.608689590363395e-08 0)
(4.838694339247327e-07 -3.657506079084695e-08 0)
(4.885267445929886e-07 -3.844703404117909e-08 0)
(4.951258883228835e-07 -4.126407359103972e-08 0)
(5.033497371889091e-07 -4.474095908647844e-08 0)
(5.12992085095478e-07 -4.867376647275555e-08 0)
(5.236281951044306e-07 -5.310037458913962e-08 0)
(5.361500952436881e-07 -5.765057607633986e-08 0)
(4.623585251951074e-07 -4.978631104624199e-08 0)
(4.562100490915534e-07 -4.550983788140517e-08 0)
(4.543281141869015e-07 -4.440959929500602e-08 0)
(4.558208005344416e-07 -4.548875282010434e-08 0)
(4.599277468775934e-07 -4.794279654407144e-08 0)
(4.661624508377694e-07 -5.130481463666921e-08 0)
(4.741178841307988e-07 -5.528675061751234e-08 0)
(4.835939097965131e-07 -5.96932885683665e-08 0)
(4.941208521621448e-07 -6.463933728696156e-08 0)
(5.067662077191787e-07 -6.96381217386541e-08 0)
(4.352549278263787e-07 -5.689219245465992e-08 0)
(4.273889823277421e-07 -5.375946819267594e-08 0)
(4.244255994957157e-07 -5.356543107666918e-08 0)
(4.251338864406087e-07 -5.541672026838008e-08 0)
(4.286826036511651e-07 -5.857340232225124e-08 0)
(4.344657660587866e-07 -6.256965481146245e-08 0)
(4.420620977674858e-07 -6.711206608512153e-08 0)
(4.512603567921642e-07 -7.19853552999587e-08 0)
(4.615516560711367e-07 -7.735297337575956e-08 0)
(4.741254092437636e-07 -8.25870961759207e-08 0)
(4.055530475708352e-07 -6.398122181278194e-08 0)
(3.961748603069696e-07 -6.239484757349019e-08 0)
(3.921947663228248e-07 -6.339095929556379e-08 0)
(3.921464807307342e-07 -6.621906759775192e-08 0)
(3.950790555751844e-07 -7.022622895609989e-08 0)
(4.003235101982355e-07 -7.500720218960332e-08 0)
(4.075164472061054e-07 -8.032109501804622e-08 0)
(4.16416900301651e-07 -8.596524841172226e-08 0)
(4.266654639792201e-07 -9.207946331106742e-08 0)
(4.385993008585093e-07 -9.798853385782904e-08 0)
(6.474800295482671e-07 -4.03021566986337e-09 0)
(6.617129801283719e-07 -4.281191005868398e-09 0)
(6.766890929457622e-07 -4.486507510979428e-09 0)
(6.923257461757477e-07 -4.662043275169306e-09 0)
(7.085569995850636e-07 -4.810544500638508e-09 0)
(7.253765510921028e-07 -4.936904432935993e-09 0)
(7.427489488397e-07 -5.051660353209539e-09 0)
(7.605822419367487e-07 -5.171778196123815e-09 0)
(7.78834931249855e-07 -5.294167698254171e-09 0)
(7.975208509701336e-07 -5.398957473998624e-09 0)
(8.166105633427051e-07 -5.478078371153071e-09 0)
(8.360515039781898e-07 -5.538936943311622e-09 0)
(8.558185723951484e-07 -5.594243073507031e-09 0)
(8.759073716556758e-07 -5.650475026138112e-09 0)
(8.96306436195074e-07 -5.702497685282741e-09 0)
(9.169951475123221e-07 -5.741439127290507e-09 0)
(9.3796297535116e-07 -5.762456444557284e-09 0)
(9.592046004811607e-07 -5.762029833490749e-09 0)
(9.806680273650036e-07 -5.746140189209335e-09 0)
(1.002386269746388e-06 -5.725911387939334e-09 0)
(6.425675220080688e-07 -1.221441010260883e-08 0)
(6.571552477780065e-07 -1.296004248999245e-08 0)
(6.724513391415215e-07 -1.355410741283165e-08 0)
(6.883937737917417e-07 -1.405779403035018e-08 0)
(7.049453698699174e-07 -1.448707018624515e-08 0)
(7.220480610068282e-07 -1.486911487047602e-08 0)
(7.396600623319116e-07 -1.522677044864214e-08 0)
(7.577356790141427e-07 -1.557176431454998e-08 0)
(7.762397138407261e-07 -1.588780044690508e-08 0)
(7.951575016938735e-07 -1.615733595336755e-08 0)
(8.144507553114116e-07 -1.638797268764128e-08 0)
(8.340926221219861e-07 -1.65944103022888e-08 0)
(8.540718032390886e-07 -1.678336995131693e-08 0)
(8.743655250399679e-07 -1.695051601020676e-08 0)
(8.949401440930962e-07 -1.708477961529203e-08 0)
(9.15779962944523e-07 -1.718233117518745e-08 0)
(9.368897614631039e-07 -1.72405639058544e-08 0)
(9.58259894211149e-07 -1.725534342212469e-08 0)
(9.798699677231533e-07 -1.723843479213344e-08 0)
(1.001750216553558e-06 -1.719858589805959e-08 0)
(6.328746266841362e-07 -2.072425107306003e-08 0)
(6.481782976001551e-07 -2.188210452646354e-08 0)
(6.64187513624139e-07 -2.278733923996891e-08 0)
(6.807387756390247e-07 -2.357385401260281e-08 0)
(6.97840156797162e-07 -2.426651194880008e-08 0)
(7.154896291559443e-07 -2.489779694848321e-08 0)
(7.336540609813394e-07 -2.54889658861635e-08 0)
(7.522461231944469e-07 -2.604141991690455e-08 0)
(7.712108749085812e-07 -2.653274240171005e-08 0)
(7.90558064355086e-07 -2.696126051112698e-08 0)
(8.102778423298734e-07 -2.734861347341824e-08 0)
(8.303454978965866e-07 -2.770544394023349e-08 0)
(8.507280092646395e-07 -2.80226920474842e-08 0)
(8.713866880972757e-07 -2.8285829226379e-08 0)
(8.92305913491957e-07 -2.848772446329305e-08 0)
(9.13504204686735e-07 -2.863117689205062e-08 0)
(9.349481194157706e-07 -2.871558140566101e-08 0)
(9.566375654963408e-07 -2.874877829303231e-08 0)
(9.785365355408173e-07 -2.875282757252565e-08 0)
(1.000684597228158e-06 -2.872272328635902e-08 0)
(6.187052527988107e-07 -2.972073833004349e-08 0)
(6.350015442733105e-07 -3.114900501368821e-08 0)
(6.519881528866449e-07 -3.226656161745514e-08 0)
(6.694511638938244e-07 -3.328481841652374e-08 0)
(6.874398050417957e-07 -3.421577881105264e-08 0)
(7.059082094453717e-07 -3.507753126225519e-08 0)
(7.248200318787021e-07 -3.587784122037639e-08 0)
(7.441200601932554e-07 -3.661349718846952e-08 0)
(7.638024584946337e-07 -3.72688913437775e-08 0)
(7.838515116112471e-07 -3.785991384858657e-08 0)
(8.042306527550526e-07 -3.840426872551418e-08 0)
(8.249076916988453e-07 -3.889351540712166e-08 0)
(8.458533330406879e-07 -3.930854052467892e-08 0)
(8.670408985626432e-07 -3.964481286165654e-08 0)
(8.884729144178552e-07 -3.991248173712377e-08 0)
(9.101777771303182e-07 -4.010319363900475e-08 0)
(9.321033485493925e-07 -4.02167190921449e-08 0)
(9.542713983062072e-07 -4.026926487096278e-08 0)
(9.766216902397726e-07 -4.028714975232155e-08 0)
(9.991675803091692e-07 -4.028133435628265e-08 0)
(6.003139946810915e-07 -3.931907229213591e-08 0)
(6.179426906956435e-07 -4.08770954927474e-08 0)
(6.362640621448287e-07 -4.211786760231017e-08 0)
(6.549126338519676e-07 -4.331260669283352e-08 0)
(6.740103872780893e-07 -4.442273504080719e-08 0)
(6.93519551957654e-07 -4.545730171115194e-08 0)
(7.134523949300738e-07 -4.64298153320747e-08 0)
(7.337132425621579e-07 -4.733654969304905e-08 0)
(7.543182558748495e-07 -4.81578826009854e-08 0)
(7.75242745465977e-07 -4.890186847775759e-08 0)
(7.964448919087472e-07 -4.957694210791756e-08 0)
(8.17899423075907e-07 -5.016966386577591e-08 0)
(8.395870164472023e-07 -5.066459157778231e-08 0)
(8.61499094808239e-07 -5.106617074679919e-08 0)
(8.836449945970253e-07 -5.138889091592168e-08 0)
(9.059851112265592e-07 -5.161805599295994e-08 0)
(9.285554065939701e-07 -5.176013590395702e-08 0)
(9.51276411193096e-07 -5.183758501477529e-08 0)
(9.742188991679992e-07 -5.187891030629048e-08 0)
(9.97303473091653e-07 -5.190907954638419e-08 0)
(5.782475466426209e-07 -4.963488747957032e-08 0)
(5.974181876337478e-07 -5.115756145943989e-08 0)
(6.173117599185843e-07 -5.238346753051636e-08 0)
(6.373970420069948e-07 -5.366170675922576e-08 0)
(6.579006207184333e-07 -5.489519350667907e-08 0)
(6.787218878917732e-07 -5.608133908621578e-08 0)
(6.99893743739329e-07 -5.721090742173971e-08 0)
(7.213279798177123e-07 -5.825411544817393e-08 0)
(7.430193424423732e-07 -5.920257482910636e-08 0)
(7.64966590911555e-07 -6.006820098319673e-08 0)
(7.871565197268929e-07 -6.085326215154243e-08 0)
(8.095665779444468e-07 -6.153743226156181e-08 0)
(8.32160673995016e-07 -6.210628974764847e-08 0)
(8.549299615755254e-07 -6.257042076281051e-08 0)
(8.77909150045168e-07 -6.293260775138128e-08 0)
(9.010188122971479e-07 -6.31845543894329e-08 0)
(9.243516257886711e-07 -6.334813560103307e-08 0)
(9.477836527374204e-07 -6.345329244325592e-08 0)
(9.714383985768704e-07 -6.353100353267853e-08 0)
(9.951926390345017e-07 -6.359747162235343e-08 0)
(5.529539261767473e-07 -6.075167816532157e-08 0)
(5.73958581037616e-07 -6.203968706318767e-08 0)
(5.957315470274292e-07 -6.310944683593771e-08 0)
(6.175208752959659e-07 -6.437957936281201e-08 0)
(6.396212822098527e-07 -6.565910525670567e-08 0)
(6.61955860484957e-07 -6.693224862263917e-08 0)
(6.84480424591779e-07 -6.816056259451563e-08 0)
(7.072190971200568e-07 -6.930526593132057e-08 0)
(7.301655790344179e-07 -7.036222612358817e-08 0)
(7.533097589664902e-07 -7.133712374659818e-08 0)
(7.766344261125518e-07 -7.222094647611674e-08 0)
(8.001148896350912e-07 -7.298474214529481e-08 0)
(8.237273492294175e-07 -7.361310014679419e-08 0)
(8.474768644111935e-07 -7.412275501276727e-08 0)
(8.713753344646963e-07 -7.451259785319648e-08 0)
(8.953884435594224e-07 -7.478728886800176e-08 0)
(9.196103853190622e-07 -7.498025610801667e-08 0)
(9.439048871840423e-07 -7.511441025568902e-08 0)
(9.683805636921498e-07 -7.521167934058407e-08 0)
(9.929003954399763e-07 -7.528558008202698e-08 0)
(5.248675110491619e-07 -7.273002926555733e-08 0)
(5.479695962433895e-07 -7.354986904747799e-08 0)
(5.718562327693819e-07 -7.431888947847498e-08 0)
(5.956100137489635e-07 -7.546015587133061e-08 0)
(6.195149778435952e-07 -7.668242884706453e-08 0)
(6.435512017546316e-07 -7.796264968386704e-08 0)
(6.676596765283944e-07 -7.922678277783187e-08 0)
(6.918728821672419e-07 -8.043751612119723e-08 0)
(7.162030187944485e-07 -8.157867020430922e-08 0)
(7.406530654662859e-07 -8.263844797681523e-08 0)
(7.652064609618399e-07 -8.359479161724658e-08 0)
(7.898285876331828e-07 -8.441596320558186e-08 0)
(8.145138953417811e-07 -8.509395920527307e-08 0)
(8.393206098665103e-07 -8.564857960903731e-08 0)
(8.64238997616334e-07 -8.607800915724531e-08 0)
(8.8926836345973e-07 -8.639380346331478e-08 0)
(9.144753663307747e-07 -8.662109624864609e-08 0)
(9.397101525200429e-07 -8.677195221629558e-08 0)
(9.650939277933929e-07 -8.685638808880358e-08 0)
(9.904777578784094e-07 -8.689267856325908e-08 0)
(4.941638331270079e-07 -8.561287331579325e-08 0)
(5.198662291357543e-07 -8.568609734871636e-08 0)
(5.462330932056918e-07 -8.599781594959404e-08 0)
(5.722318451685552e-07 -8.685211682390925e-08 0)
(5.98214215043527e-07 -8.792381207518076e-08 0)
(6.24103111653346e-07 -8.912280761971048e-08 0)
(6.49934957432055e-07 -9.035361008214877e-08 0)
(6.757332528270976e-07 -9.157374207692003e-08 0)
(7.01521748554844e-07 -9.274932867384673e-08 0)
(7.273157617567309e-07 -9.385139669151159e-08 0)
(7.531191006143398e-07 -9.484985579566464e-08 0)
(7.789235358931816e-07 -9.571545055765192e-08 0)
(8.0475252381127e-07 -9.644985434765175e-08 0)
(8.306797151539018e-07 -9.706803191354033e-08 0)
(8.566702356358584e-07 -9.755894934933007e-08 0)
(8.827574117542171e-07 -9.79354694810725e-08 0)
(9.089939849039505e-07 -9.82031193466919e-08 0)
(9.35226889815565e-07 -9.835888318165221e-08 0)
(9.615746588307466e-07 -9.840428924387209e-08 0)
(9.879080737507897e-07 -9.836722738726146e-08 0)
(4.616056875422446e-07 -9.980591978519937e-08 0)
(4.911710968836636e-07 -9.833759361133606e-08 0)
(5.206295942666935e-07 -9.803560078999111e-08 0)
(5.492372385263806e-07 -9.847815209160741e-08 0)
(5.774043493717244e-07 -9.928330668348936e-08 0)
(6.05196282464693e-07 -1.002921718919203e-07 0)
(6.327118040111438e-07 -1.014033324639581e-07 0)
(6.600250763335588e-07 -1.025575001926811e-07 0)
(6.871994725447358e-07 -1.03705046921643e-07 0)
(7.142771005197992e-07 -1.048060123831458e-07 0)
(7.412794786330904e-07 -1.058263572345764e-07 0)
(7.682146763014485e-07 -1.067352460414161e-07 0)
(7.951351309872114e-07 -1.075335196920867e-07 0)
(8.221173480715336e-07 -1.08227559810115e-07 0)
(8.49115106743936e-07 -1.08798076358797e-07 0)
(8.762003459794183e-07 -1.092541857073658e-07 0)
(9.033828918452439e-07 -1.095798252813524e-07 0)
(9.305707686927327e-07 -1.097532614431836e-07 0)
(9.578580454912195e-07 -1.097683918709096e-07 0)
(9.851719960814871e-07 -1.096476184237027e-07 0)
(4.316129044778026e-07 -1.186326244532103e-07 0)
(4.666736268911709e-07 -1.139371232217616e-07 0)
(4.995851014157084e-07 -1.1222748602154e-07 0)
(5.309619149084034e-07 -1.116424240256944e-07 0)
(5.612031037080659e-07 -1.117505245850889e-07 0)
(5.906899001415873e-07 -1.122690017428578e-07 0)
(6.19624752684759e-07 -1.13032675911074e-07 0)
(6.481681020924104e-07 -1.139346580710052e-07 0)
(6.764277351020711e-07 -1.148942848481406e-07 0)
(7.044818745160382e-07 -1.158539714503145e-07 0)
(7.323762707371139e-07 -1.167728849312241e-07 0)
(7.601324639790245e-07 -1.176179939247092e-07 0)
(7.878313213629824e-07 -1.183835336529129e-07 0)
(8.155448615383758e-07 -1.190643679215351e-07 0)
(8.432051441908174e-07 -1.196341839895632e-07 0)
(8.709311953828819e-07 -1.200904312863403e-07 0)
(8.986742203749503e-07 -1.204042698780995e-07 0)
(9.264322578312431e-07 -1.205468911376676e-07 0)
(9.542535727334745e-07 -1.205084791099863e-07 0)
(9.821241237833154e-07 -1.202739305744823e-07 0)
(4.172154345859065e-07 -1.365610873921965e-07 0)
(4.525409226783552e-07 -1.312215762949845e-07 0)
(4.860896225137584e-07 -1.2823048267818e-07 0)
(5.185053945272591e-07 -1.265592341518337e-07 0)
(5.49838779713005e-07 -1.258097947052337e-07 0)
(5.803608788009494e-07 -1.256668331353924e-07 0)
(6.102476270322441e-07 -1.259083992467645e-07 0)
(6.39651618430299e-07 -1.263918238883746e-07 0)
(6.686765552741219e-07 -1.270125077786419e-07 0)
(6.974132127430841e-07 -1.276968625507244e-07 0)
(7.259206445382511e-07 -1.28391004869555e-07 0)
(7.542312251281631e-07 -1.290538757776008e-07 0)
(7.824411517537705e-07 -1.296711117176235e-07 0)
(8.106046175394846e-07 -1.302242060660473e-07 0)
(8.38645592990533e-07 -1.306831694661334e-07 0)
(8.667191278024998e-07 -1.310353985869809e-07 0)
(8.947296280023136e-07 -1.312470587878337e-07 0)
(9.227475184508129e-07 -1.31291983647041e-07 0)
(9.507671908709575e-07 -1.311556909118459e-07 0)
(9.787983111951593e-07 -1.307555345548387e-07 0)
(4.076587016977327e-07 -1.522158529530168e-07 0)
(4.42259436553376e-07 -1.472773355743158e-07 0)
(4.758002112248335e-07 -1.439298915085057e-07 0)
(5.085345351423895e-07 -1.41686157047891e-07 0)
(5.404173141150635e-07 -1.40327794398472e-07 0)
(5.715580623563425e-07 -1.396184196798817e-07 0)
(6.020949792659926e-07 -1.393623417964706e-07 0)
(6.321247809471226e-07 -1.394193637309363e-07 0)
(6.617295311666713e-07 -1.396780445588008e-07 0)
(6.910007702660318e-07 -1.400569554051596e-07 0)
(7.199949677222482e-07 -1.404921997588212e-07 0)
(7.487441699757296e-07 -1.40935375448377e-07 0)
(7.773554410335672e-07 -1.413650806235333e-07 0)
(8.058655569306217e-07 -1.417517139027709e-07 0)
(8.342006775323398e-07 -1.420636700433714e-07 0)
(8.625319990548917e-07 -1.422822513830653e-07 0)
(8.907473386735777e-07 -1.423739666026022e-07 0)
(9.189581817439013e-07 -1.423143029712546e-07 0)
(9.471103492114385e-07 -1.420658691882095e-07 0)
(9.752455005395497e-07 -1.414887016349618e-07 0)
(4.002612186868603e-07 -1.670346060205214e-07 0)
(4.341685349081387e-07 -1.625216184356642e-07 0)
(4.674127663395506e-07 -1.591111032388103e-07 0)
(5.001394635311202e-07 -1.565669905894172e-07 0)
(5.322224818396271e-07 -1.547985275461238e-07 0)
(5.637020974803309e-07 -1.536508770650369e-07 0)
(5.94654499861429e-07 -1.529795781412575e-07 0)
(6.251167948195198e-07 -1.526571342930429e-07 0)
(6.551512295374315e-07 -1.525757379744119e-07 0)
(6.84843401433786e-07 -1.526558133103305e-07 0)
(7.142347121106318e-07 -1.528298016591482e-07 0)
(7.433477918823197e-07 -1.530462318135572e-07 0)
(7.722969195348825e-07 -1.532803665788344e-07 0)
(8.01101398448168e-07 -1.534937029469069e-07 0)
(8.296999269609501e-07 -1.536523442060436e-07 0)
(8.582634622006216e-07 -1.537342806139993e-07 0)
(8.866670678750269e-07 -1.537083391110401e-07 0)
(9.150494297162761e-07 -1.535435566176172e-07 0)
(9.433180235012127e-07 -1.531671471739569e-07 0)
(9.71555969442324e-07 -1.524434004130499e-07 0)
(3.942790969656596e-07 -1.811519172328142e-07 0)
(4.276173980426184e-07 -1.770815186781544e-07 0)
(4.604913947722177e-07 -1.73798045140699e-07 0)
(4.930654673730751e-07 -1.711496707623576e-07 0)
(5.251455914047202e-07 -1.691341996820028e-07 0)
(5.567715462085939e-07 -1.676753693022497e-07 0)
(5.879507110642623e-07 -1.666767173705136e-07 0)
(6.186817162762499e-07 -1.660305286262239e-07 0)
(6.490125997423926e-07 -1.656421345357226e-07 0)
(6.790188542706983e-07 -1.654415465547897e-07 0)
(7.087208073199079e-07 -1.653624790321536e-07 0)
(7.381280348934243e-07 -1.653553837329959e-07 0)
(7.673589669557305e-07 -1.65396211244751e-07 0)
(7.964115730996525e-07 -1.654394343735983e-07 0)
(8.252407048033659e-07 -1.65448751754504e-07 0)
(8.54011953101128e-07 -1.653979500737495e-07 0)
(8.825876841805185e-07 -1.652543062615458e-07 0)
(9.11114809326553e-07 -1.64973795773451e-07 0)
(9.394907855630512e-07 -1.644624612728528e-07 0)
(9.678342042073345e-07 -1.636621673373075e-07 0)
(3.892408713497415e-07 -1.948038461064859e-07 0)
(4.221164748094371e-07 -1.9113135249655e-07 0)
(4.546685604069473e-07 -1.880306099144301e-07 0)
(4.870122361623928e-07 -1.853908616228062e-07 0)
(5.189980074114168e-07 -1.832494617040272e-07 0)
(5.506495979838766e-07 -1.815883125017945e-07 0)
(5.819279671430427e-07 -1.803465670126984e-07 0)
(6.128116430618001e-07 -1.794402582674651e-07 0)
(6.433373863446913e-07 -1.787917369771562e-07 0)
(6.735690351572059e-07 -1.783450608631692e-07 0)
(7.035056161374117e-07 -1.78037754304479e-07 0)
(7.331453985384833e-07 -1.778258997922038e-07 0)
(7.626092942803935e-07 -1.776880758194649e-07 0)
(7.918702634817073e-07 -1.775723606672191e-07 0)
(8.209016668103136e-07 -1.77440277069547e-07 0)
(8.498441192200298e-07 -1.772619872509441e-07 0)
(8.785685198381853e-07 -1.76997732584081e-07 0)
(9.072151565578009e-07 -1.765945742927574e-07 0)
(9.356993398798701e-07 -1.759777306141135e-07 0)
(9.641427473612345e-07 -1.75164776843108e-07 0)
(3.8492728525339e-07 -2.081257574376285e-07 0)
(4.174200375473742e-07 -2.047904877793566e-07 0)
(4.497016101690327e-07 -2.018821022542165e-07 0)
(4.81798246325766e-07 -1.993153163243963e-07 0)
(5.136522000036327e-07 -1.971386770525235e-07 0)
(5.452534521760274e-07 -1.953609422451762e-07 0)
(5.765500464692696e-07 -1.939490373060443e-07 0)
(6.075071711827573e-07 -1.92843815842827e-07 0)
(6.381503214078209e-07 -1.919845695069665e-07 0)
(6.685330770765657e-07 -1.91332136391031e-07 0)
(6.986368552761261e-07 -1.908282517245757e-07 0)
(7.284525999203521e-07 -1.904360063820056e-07 0)
(7.580999576460721e-07 -1.901355702360264e-07 0)
(7.875227674439256e-07 -1.898709929125369e-07 0)
(8.167224702381801e-07 -1.896007817052496e-07 0)
(8.458003255718645e-07 -1.892933147346177e-07 0)
(8.746449940027422e-07 -1.889057790492957e-07 0)
(9.033968169372177e-07 -1.883920823059892e-07 0)
(9.319878460211814e-07 -1.877238250522756e-07 0)
(9.605123125338617e-07 -1.868925578377449e-07 0)
(3.812183141832868e-07 -2.211959596325796e-07 0)
(4.134145051280203e-07 -2.181391465072913e-07 0)
(4.454455307717375e-07 -2.154265322879952e-07 0)
(4.773213245809436e-07 -2.129699863860035e-07 0)
(5.090215010730437e-07 -2.10817681941107e-07 0)
(5.405266491398135e-07 -2.089829962837173e-07 0)
(5.717884388131649e-07 -2.074571058261804e-07 0)
(6.027598052651365e-07 -2.062033640570889e-07 0)
(6.334565318807896e-07 -2.051759192043017e-07 0)
(6.639254615186041e-07 -2.043546328416199e-07 0)
(6.941349504396831e-07 -2.036848225227555e-07 0)
(7.240736693214025e-07 -2.031361079372417e-07 0)
(7.538568038737369e-07 -2.026858097240242e-07 0)
(7.833983553517472e-07 -2.022778540383644e-07 0)
(8.127230639165747e-07 -2.018711092475933e-07 0)
(8.419054534237394e-07 -2.014347798852623e-07 0)
(8.708494439603224e-07 -2.009348213501575e-07 0)
(8.99701678103549e-07 -2.00344389008665e-07 0)
(9.283822473503914e-07 -1.996577269945737e-07 0)
(9.569695917974572e-07 -1.987605435738211e-07 0)
(3.779976679963813e-07 -2.340706710453044e-07 0)
(4.099641309366891e-07 -2.312530308505539e-07 0)
(4.417774180231448e-07 -2.287303357344721e-07 0)
(4.734651005255919e-07 -2.263966107840877e-07 0)
(5.050045790872821e-07 -2.242937828399666e-07 0)
(5.363954797039423e-07 -2.224352311372571e-07 0)
(5.675914389093245e-07 -2.208327653232162e-07 0)
(5.985359307719635e-07 -2.194685803098029e-07 0)
(6.29239926016554e-07 -2.183088040791351e-07 0)
(6.597465117566776e-07 -2.173520940572987e-07 0)
(6.90012796015815e-07 -2.165458325133078e-07 0)
(7.200271911942303e-07 -2.158649771004145e-07 0)
(7.498963455729324e-07 -2.152804596033301e-07 0)
(7.795175439272884e-07 -2.14738302106318e-07 0)
(8.089272832460476e-07 -2.142043316140075e-07 0)
(8.38190478442917e-07 -2.136569570857127e-07 0)
(8.672214572718787e-07 -2.130742067468513e-07 0)
(8.961626874067229e-07 -2.124426882465663e-07 0)
(9.249047321754489e-07 -2.117193743914621e-07 0)
(9.535454378115142e-07 -2.107692935079294e-07 0)
(3.751832215389341e-07 -2.467989993152885e-07 0)
(4.06953929394546e-07 -2.442024392126462e-07 0)
(4.385933837018123e-07 -2.418467305009769e-07 0)
(4.701131846326504e-07 -2.396238216156601e-07 0)
(5.01503637526404e-07 -2.375714200172714e-07 0)
(5.327818031231056e-07 -2.357061997716847e-07 0)
(5.638988135238284e-07 -2.340553768950489e-07 0)
(5.947934550214254e-07 -2.326154283423138e-07 0)
(6.254770178631301e-07 -2.313608589707379e-07 0)
(6.559888487279119e-07 -2.303022174641965e-07 0)
(6.862746580145166e-07 -2.293884123116127e-07 0)
(7.163252782386109e-07 -2.285976204927961e-07 0)
(7.462356949568296e-07 -2.278962090563066e-07 0)
(7.759014884836982e-07 -2.272357119036229e-07 0)
(8.053643036054723e-07 -2.265940856042788e-07 0)
(8.346942748212525e-07 -2.25959841069271e-07 0)
(8.637986728038439e-07 -2.253273663134385e-07 0)
(8.927991129686269e-07 -2.246635425098807e-07 0)