/*--------------------------------*- C++ -*----------------------------------*\
| =========                 |                                                 |
| \\      /  F ield         | foam-extend: Open Source CFD                    |
|  \\    /   O peration     | Version:     4.1                                |
|   \\  /    A nd           | Web:         http://www.foam-extend.org         |
|    \\/     M anipulation  |                                                 |
\*---------------------------------------------------------------------------*/
FoamFile
{
    version     2.0;
    format      ascii;
    class       vectorField;
    location    "1";
    object      solidsCellD_iteration0;
}
// * * * * * * * * * * * * * * * * * * * * * * * * * * * * * * * * * * * * * //


1000
(
(1.714872359899105e-07 0 0)
(1.73031286508159e-07 0 0)
(1.757438421959848e-07 0 0)
(1.794037168168116e-07 0 0)
(1.838480107499062e-07 0 0)
(1.889435380900867e-07 0 0)
(1.945662846002726e-07 0 0)
(2.005696288353647e-07 0 0)
(2.066947393109684e-07 0 0)
(2.123207949175907e-07 0 0)
(1.562844671836105e-07 0 0)
(1.576408923437072e-07 0 0)
(1.600169912598917e-07 0 0)
(1.632019858727674e-07 0 0)
(1.670245942665682e-07 0 0)
(1.713251139730597e-07 0 0)
(1.75938776005584e-07 0 0)
(1.80680496033362e-07 0 0)
(1.853236621144031e-07 0 0)
(1.895899394136828e-07 0 0)
(1.400863966634325e-07 0 0)
(1.412588818173809e-07 0 0)
(1.432994026136232e-07 0 0)
(1.460135641387554e-07 0 0)
(1.492371474743048e-07 0 0)
(1.528172597016145e-07 0 0)
(1.566061413760756e-07 0 0)
(1.604624060270648e-07 0 0)
(1.642553714043979e-07 0 0)
(1.678782406097373e-07 0 0)
(1.230381392851125e-07 0 0)
(1.240268107637173e-07 0 0)
(1.25741710106388e-07 0 0)
(1.280121757780048e-07 0 0)
(1.30692501110647e-07 0 0)
(1.3365184007052e-07 0 0)
(1.367745433257053e-07 0 0)
(1.39964783469897e-07 0 0)
(1.431498400181717e-07 0 0)
(1.46282935194499e-07 0 0)
(1.052655306738407e-07 0 0)
(1.060766559854607e-07 0 0)
(1.074857622009426e-07 0 0)
(1.093482093200743e-07 0 0)
(1.115410065920864e-07 0 0)
(1.139588849842571e-07 0 0)
(1.165166016321113e-07 0 0)
(1.191509681112467e-07 0 0)
(1.218195294647321e-07 0 0)
(1.244985593464818e-07 0 0)
(8.68932340217092e-08 0 0)
(8.753700184090726e-08 0 0)
(8.866255421850979e-08 0 0)
(9.015044493488579e-08 0 0)
(9.190052426962815e-08 0 0)
(9.38314910527234e-08 0 0)
(9.588271459348559e-08 0 0)
(9.80132019670142e-08 0 0)
(1.001977391316556e-07 0 0)
(1.024230970541606e-07 0 0)
(6.80448984228643e-08 0 0)
(6.853343137223503e-08 0 0)
(6.93950613106552e-08 0 0)
(7.053407030701093e-08 0 0)
(7.187244128290704e-08 0 0)
(7.335048897815626e-08 0 0)
(7.492702825958021e-08 0 0)
(7.65763729899296e-08 0 0)
(7.828379719954206e-08 0 0)
(8.004179756230407e-08 0 0)
(4.884095144234972e-08 0 0)
(4.918548726258174e-08 0 0)
(4.979677394382847e-08 0 0)
(5.060300192619311e-08 0 0)
(5.154840015685718e-08 0 0)
(5.259288476937153e-08 0 0)
(5.371066822039334e-08 0 0)
(5.488680465199235e-08 0 0)
(5.611334350442749e-08 0 0)
(5.738637197055748e-08 0 0)
(2.939525850698487e-08 0 0)
(2.9602893684526e-08 0 0)
(2.996972201445409e-08 0 0)
(3.045095670134623e-08 0 0)
(3.101358684444321e-08 0 0)
(3.163515242974858e-08 0 0)
(3.230208142740278e-08 0 0)
(3.30070986204722e-08 0 0)
(3.374670502278271e-08 0 0)
(3.451912588019417e-08 0 0)
(9.812070029457551e-09 0 0)
(9.882861449406736e-09 0 0)
(1.000562599431656e-08 0 0)
(1.016549994879209e-08 0 0)
(1.035165204572744e-08 0 0)
(1.055711577131685e-08 0 0)
(1.077799863819821e-08 0 0)
(1.101248488221958e-08 0 0)
(1.125987936608943e-08 0 0)
(1.151971491355785e-08 0 0)
(2.50496682438e-07 0 0)
(2.525337303354905e-07 0 0)
(2.561338680943202e-07 0 0)
(2.609228099195587e-07 0 0)
(2.666288004303014e-07 0 0)
(2.730410839936185e-07 0 0)
(2.799891498950049e-07 0 0)
(2.873337836275923e-07 0 0)
(2.949641926950172e-07 0 0)
(3.027960846223988e-07 0 0)
(2.49044012253156e-07 0 0)
(2.510899440306675e-07 0 0)
(2.546962240772345e-07 0 0)
(2.594965302439097e-07 0 0)
(2.652206512548831e-07 0 0)
(2.716546141350689e-07 0 0)
(2.786220016862155e-07 0 0)
(2.859782813320891e-07 0 0)
(2.936109518945329e-07 0 0)
(3.014388376151399e-07 0 0)
(2.461693082958275e-07 0 0)
(2.482265707169727e-07 0 0)
(2.518441920179023e-07 0 0)
(2.566639657789174e-07 0 0)
(2.624190768725409e-07 0 0)
(2.688962234537958e-07 0 0)
(2.759178205219904e-07 0 0)
(2.833371195065974e-07 0 0)
(2.910382334596699e-07 0 0)
(2.989345509760647e-07 0 0)
(2.418542760396384e-07 0 0)
(2.43918904168663e-07 0 0)
(2.475445316637086e-07 0 0)
(2.523819577000146e-07 0 0)
(2.581682852681898e-07 0 0)
(2.646908270429909e-07 0 0)
(2.717707489542725e-07 0 0)
(2.79260040652231e-07 0 0)
(2.870422019636383e-07 0 0)
(2.950295369022784e-07 0 0)
(2.360820798162673e-07 0 0)
(2.381450480040135e-07 0 0)
(2.41770090009721e-07 0 0)
(2.466215014015718e-07 0 0)
(2.524456693886187e-07 0 0)
(2.590355359334371e-07 0 0)
(2.662141608325814e-07 0 0)
(2.73831451812357e-07 0 0)
(2.817640225797552e-07 0 0)
(2.899121662053794e-07 0 0)
(2.288411595192361e-07 0 0)
(2.30886398036076e-07 0 0)
(2.344890988639144e-07 0 0)
(2.393302874996996e-07 0 0)
(2.451707169165743e-07 0 0)
(2.518161866889124e-07 0 0)
(2.591013294480348e-07 0 0)
(2.66884205074449e-07 0 0)
(2.750410961925674e-07 0 0)
(2.834581738105614e-07 0 0)
(2.201350742088467e-07 0 0)
(2.221418753340111e-07 0 0)
(2.256895752124235e-07 0 0)
(2.304806047638004e-07 0 0)
(2.362970837118862e-07 0 0)
(2.429675232946228e-07 0 0)
(2.503511908484599e-07 0 0)
(2.583290064782688e-07 0 0)
(2.667892732349779e-07 0 0)
(2.756069501613505e-07 0 0)
(2.099865667161021e-07 0 0)
(2.119262662108826e-07 0 0)
(2.153659234081713e-07 0 0)
(2.200326934231103e-07 0 0)
(2.257361710620343e-07 0 0)
(2.323402618020041e-07 0 0)
(2.397519081515976e-07 0 0)
(2.479104872442755e-07 0 0)
(2.567610779919711e-07 0 0)
(2.662020976948649e-07 0 0)
(1.984458781223003e-07 0 0)
(2.002839167945614e-07 0 0)
(2.035477720369982e-07 0 0)
(2.079892062258598e-07 0 0)
(2.134417075635689e-07 0 0)
(2.198033108904879e-07 0 0)
(2.270398613044394e-07 0 0)
(2.351949465894372e-07 0 0)
(2.443844446421406e-07 0 0)
(2.54730894791648e-07 0 0)
(1.85588907130611e-07 0 0)
(1.872821216599407e-07 0 0)
(1.902964437619495e-07 0 0)
(1.943983605733557e-07 0 0)
(1.994291917993985e-07 0 0)
(2.052900772473925e-07 0 0)
(2.11960587180731e-07 0 0)
(2.195525032422081e-07 0 0)
(2.284323004136655e-07 0 0)
(2.39521907007956e-07 0 0)
(3.107374895951529e-07 0 0)
(3.192835674214399e-07 0 0)
(3.283884861775798e-07 0 0)
(3.380351949886808e-07 0 0)
(3.48192900456729e-07 0 0)
(3.58821162522975e-07 0 0)
(3.698770233634348e-07 0 0)
(3.8132077448123e-07 0 0)
(3.931162792167357e-07 0 0)
(4.052262275321772e-07 0 0)
(4.176079958469791e-07 0 0)
(4.302159104779274e-07 0 0)
(4.430085743756095e-07 0 0)
(4.559525528141682e-07 0 0)
(4.690173401639228e-07 0 0)
(4.821703844940363e-07 0 0)
(4.953818627108814e-07 0 0)
(5.086204633447326e-07 0 0)
(5.218296452077857e-07 0 0)
(5.349652627895917e-07 0 0)
(3.093719664304394e-07 0 0)
(3.179378292027034e-07 0 0)
(3.270967518362298e-07 0 0)
(3.36830355476338e-07 0 0)
(3.471033472811233e-07 0 0)
(3.578680427272821e-07 0 0)
(3.69070811437094e-07 0 0)
(3.806568502017365e-07 0 0)
(3.925729497310676e-07 0 0)
(4.047715298448408e-07 0 0)
(4.17216835858122e-07 0 0)
(4.298861448558392e-07 0 0)
(4.42758308597354e-07 0 0)
(4.557991088017511e-07 0 0)
(4.689651205479662e-07 0 0)
(4.822193796189938e-07 0 0)
(4.955246139427849e-07 0 0)
(5.088377113580825e-07 0 0)
(5.221340873040956e-07 0 0)
(5.353630967579863e-07 0 0)
(3.069180977136886e-07 0 0)
(3.155681732606811e-07 0 0)
(3.248429891654979e-07 0 0)
(3.347107901701799e-07 0 0)
(3.451277945312017e-07 0 0)
(3.560465857619971e-07 0 0)
(3.674208042316141e-07 0 0)
(3.792020999025462e-07 0 0)
(3.913343567289002e-07 0 0)
(4.037564457712187e-07 0 0)
(4.164169655738009e-07 0 0)
(4.29285695307685e-07 0 0)
(4.423428444554078e-07 0 0)
(4.555587446585796e-07 0 0)
(4.689003211615834e-07 0 0)
(4.823443661437005e-07 0 0)
(4.958371978600987e-07 0 0)
(5.093242138388688e-07 0 0)
(5.227948438685006e-07 0 0)
(5.361803432606038e-07 0 0)
(3.030945762452506e-07 0 0)
(3.118969406599661e-07 0 0)
(3.2139545710913e-07 0 0)
(3.315361170909666e-07 0 0)
(3.422512708145861e-07 0 0)
(3.534726195529082e-07 0 0)
(3.651397462882299e-07 0 0)
(3.772001129304592e-07 0 0)
(3.896046837395338e-07 0 0)
(4.023064335282505e-07 0 0)
(4.15262493509594e-07 0 0)
(4.284338650850528e-07 0 0)
(4.417820182520698e-07 0 0)
(4.55271494638845e-07 0 0)
(4.68876341695246e-07 0 0)
(4.825714001699954e-07 0 0)
(4.963095103645002e-07 0 0)
(5.100519770687408e-07 0 0)
(5.237765597307877e-07 0 0)
(5.374004082062339e-07 0 0)
(2.981097424020528e-07 0 0)
(3.071265583325742e-07 0 0)
(3.169209385184306e-07 0 0)
(3.274152429303291e-07 0 0)
(3.385233987790344e-07 0 0)
(3.501624869631658e-07 0 0)
(3.622556273476726e-07 0 0)
(3.747298791842183e-07 0 0)
(3.875199619765434e-07 0 0)
(4.005790341506515e-07 0 0)
(4.138794872393652e-07 0 0)
(4.273925033308179e-07 0 0)
(4.410759399415939e-07 0 0)
(4.548999607635255e-07 0 0)
(4.688471316993992e-07 0 0)
(4.82860593590274e-07 0 0)
(4.969255940946788e-07 0 0)
(5.109807057413194e-07 0 0)
(5.250297875512975e-07 0 0)
(5.389796573450075e-07 0 0)
(2.919074333111601e-07 0 0)
(3.012944878423709e-07 0 0)
(3.11555928119441e-07 0 0)
(3.225626295018156e-07 0 0)
(3.341933213989379e-07 0 0)
(3.463491074463593e-07 0 0)
(3.589500165846433e-07 0 0)
(3.719224983610022e-07 0 0)
(3.851956863824305e-07 0 0)
(3.987125136939957e-07 0 0)
(4.124385790838132e-07 0 0)
(4.263478110712999e-07 0 0)
(4.404073920220852e-07 0 0)
(4.54596967656143e-07 0 0)
(4.689064372029042e-07 0 0)
(4.83273035823523e-07 0 0)
(4.976913190769292e-07 0 0)
(5.121046594730836e-07 0 0)
(5.265254005169069e-07 0 0)
(5.408668410725875e-07 0 0)
(2.844635210782645e-07 0 0)
(2.944286284472699e-07 0 0)
(3.05386040296757e-07 0 0)
(3.171235632106182e-07 0 0)
(3.294659268410735e-07 0 0)
(3.422835119207872e-07 0 0)
(3.554827643576896e-07 0 0)
(3.689932684296151e-07 0 0)
(3.827625672665913e-07 0 0)
(3.967529607210398e-07 0 0)
(4.109320054392908e-07 0 0)
(4.252649940314816e-07 0 0)
(4.397305448071364e-07 0 0)
(4.543220467800242e-07 0 0)
(4.690067448206084e-07 0 0)
(4.837570315110387e-07 0 0)
(4.985598491356843e-07 0 0)
(5.133737799011716e-07 0 0)
(5.282022037293013e-07 0 0)
(5.429831221569496e-07 0 0)
(2.757790068805153e-07 0 0)
(2.866951274346617e-07 0 0)
(2.986774867310768e-07 0 0)
(3.113905879122756e-07 0 0)
(3.246162977234687e-07 0 0)
(3.382199721269582e-07 0 0)
(3.521125701571457e-07 0 0)
(3.662278733269936e-07 0 0)
(3.805230935482643e-07 0 0)
(3.949823458129103e-07 0 0)
(4.095946943723975e-07 0 0)
(4.243302661604233e-07 0 0)
(4.391730690756648e-07 0 0)
(4.54135352871937e-07 0 0)
(4.69178473443032e-07 0 0)
(4.843031860003655e-07 0 0)
(4.994797440775588e-07 0 0)
(5.147000194494136e-07 0 0)
(5.299577988416649e-07 0 0)
(5.452250073930404e-07 0 0)
(2.657575986796883e-07 0 0)
(2.78346096750441e-07 0 0)
(2.918505757946901e-07 0 0)
(3.058184015726157e-07 0 0)
(3.200495340146046e-07 0 0)
(3.344633550877141e-07 0 0)
(3.490278831031662e-07 0 0)
(3.637239373499757e-07 0 0)
(3.785344166237343e-07 0 0)
(3.9345098748485e-07 0 0)
(4.08467046158318e-07 0 0)
(4.235705566237386e-07 0 0)
(4.387672597433268e-07 0 0)
(4.54066651387821e-07 0 0)
(4.694291011854175e-07 0 0)
(4.848830134414509e-07 0 0)
(5.003921695244439e-07 0 0)
(5.15994879722572e-07 0 0)
(5.316687278516915e-07 0 0)
(5.474322551420862e-07 0 0)
(2.544377332194856e-07 0 0)
(2.700215937340998e-07 0 0)
(2.855895624143451e-07 0 0)
(3.009820411217956e-07 0 0)
(3.16238954940021e-07 0 0)
(3.314274560411961e-07 0 0)
(3.465988511804509e-07 0 0)
(3.617858802013448e-07 0 0)
(3.770104575095438e-07 0 0)
(3.92294043147525e-07 0 0)
(4.076412755941886e-07 0 0)
(4.230470590787326e-07 0 0)
(4.385331042721137e-07 0 0)
(4.541033550674314e-07 0 0)
(4.697309810508147e-07 0 0)
(4.854612821747348e-07 0 0)
(5.012394723477611e-07 0 0)
(5.171563488676895e-07 0 0)
(5.331880347259327e-07 0 0)
(5.494021325848005e-07 0 0)
(2.424746385435905e-07 0 0)
(2.62900574979582e-07 0 0)
(2.80653806851908e-07 0 0)
(2.972884796263203e-07 0 0)
(3.133767407468237e-07 0 0)
(3.291868141456669e-07 0 0)
(3.448557754045336e-07 0 0)
(3.604504974313637e-07 0 0)
(3.760128388086362e-07 0 0)
(3.915838356252656e-07 0 0)
(4.071790521519015e-07 0 0)
(4.228045289668522e-07 0 0)
(4.38498813084134e-07 0 0)
(4.542569991740438e-07 0 0)
(4.700663735991607e-07 0 0)
(4.859872735097385e-07 0 0)
(5.019447543187882e-07 0 0)
(5.180579453122593e-07 0 0)
(5.343113867429016e-07 0 0)
(5.507759195828438e-07 0 0)
(2.377554837216822e-07 0 0)
(2.58099518205782e-07 0 0)
(2.766165338107287e-07 0 0)
(2.940107721612911e-07 0 0)
(3.107354777791481e-07 0 0)
(3.270654314529468e-07 0 0)
(3.431659407594014e-07 0 0)
(3.591234051061619e-07 0 0)
(3.749974237301784e-07 0 0)
(3.908419074184174e-07 0 0)
(4.066778181630629e-07 0 0)
(4.225221976488356e-07 0 0)
(4.384200916031203e-07 0 0)
(4.543530473939783e-07 0 0)
(4.703273312039033e-07 0 0)
(4.86408163581564e-07 0 0)
(5.0252158912929e-07 0 0)
(5.187767536417249e-07 0 0)
(5.351795911679217e-07 0 0)
(5.517544989121738e-07 0 0)
(2.355209444987478e-07 0 0)
(2.551338987126056e-07 0 0)
(2.736902521843684e-07 0 0)
(2.913926683531162e-07 0 0)
(3.084950430505281e-07 0 0)
(3.251972293510284e-07 0 0)
(3.416386440719106e-07 0 0)
(3.578949762661962e-07 0 0)
(3.740338335658519e-07 0 0)
(3.901183672773477e-07 0 0)
(4.061704802638472e-07 0 0)
(4.222160342790777e-07 0 0)
(4.383017282175008e-07 0 0)
(4.54394569849735e-07 0 0)
(4.70519785068062e-07 0 0)
(4.867335532010673e-07 0 0)
(5.029882197915477e-07 0 0)
(5.193535211839544e-07 0 0)
(5.358592080883159e-07 0 0)
(5.524981012717478e-07 0 0)
(2.342499904389417e-07 0 0)
(2.532281861136266e-07 0 0)
(2.715964601803582e-07 0 0)
(2.893683669816227e-07 0 0)
(3.066616109495214e-07 0 0)
(3.23606845400671e-07 0 0)
(3.403002811645673e-07 0 0)
(3.567933471615755e-07 0 0)
(3.731527079042957e-07 0 0)
(3.894430284694112e-07 0 0)
(4.056822346969831e-07 0 0)
(4.219033799056794e-07 0 0)
(4.381525840345975e-07 0 0)
(4.54385341949883e-07 0 0)
(4.706477823334283e-07 0 0)
(4.869710465870667e-07 0 0)
(5.033484983561572e-07 0 0)
(5.19805379238521e-07 0 0)
(5.363871696276822e-07 0 0)
(5.530696133202026e-07 0 0)
(2.334415330681336e-07 0 0)
(2.519574597320434e-07 0 0)
(2.701002049338701e-07 0 0)
(2.878351617670425e-07 0 0)
(3.052025400132869e-07 0 0)
(3.222906173835395e-07 0 0)
(3.391546252262955e-07 0 0)
(3.558235504623665e-07 0 0)
(3.723611420032823e-07 0 0)
(3.888261848987583e-07 0 0)
(4.052261931997513e-07 0 0)
(4.215987514549249e-07 0 0)
(4.379872208222971e-07 0 0)
(4.543382544294003e-07 0 0)
(4.707223431367457e-07 0 0)
(4.871379279574084e-07 0 0)
(5.036181435055917e-07 0 0)
(5.20153419274135e-07 0 0)
(5.367949997574124e-07 0 0)
(5.535094388912899e-07 0 0)
(2.328832612920597e-07 0 0)
(2.510671524968337e-07 0 0)
(2.690126311564493e-07 0 0)
(2.86672434004773e-07 0 0)
(3.040536673928903e-07 0 0)
(3.212203982139402e-07 0 0)
(3.381935789266071e-07 0 0)
(3.549862411492704e-07 0 0)
(3.716613648222341e-07 0 0)
(3.882685888221504e-07 0 0)
(4.048014104552246e-07 0 0)
(4.213009046587591e-07 0 0)
(4.378065892637398e-07 0 0)
(4.542577318273361e-07 0 0)
(4.707503031428174e-07 0 0)
(4.872499176178232e-07 0 0)
(5.038177974812038e-07 0 0)
(5.204193034772767e-07 0 0)
(5.371071818339195e-07 0 0)
(5.538447072760052e-07 0 0)
(2.324923077162655e-07 0 0)
(2.504250926786673e-07 0 0)
(2.682117063465456e-07 0 0)
(2.85785971821258e-07 0 0)
(3.031541299876455e-07 0 0)
(3.203623073526636e-07 0 0)
(3.374036010517072e-07 0 0)
(3.542798067056545e-07 0 0)
(3.710551593575597e-07 0 0)
(3.877707147449166e-07 0 0)
(4.044070712257383e-07 0 0)
(4.210101205760456e-07 0 0)
(4.376157540896232e-07 0 0)
(4.541558265512294e-07 0 0)
(4.707425542410758e-07 0 0)
(4.873194234631071e-07 0 0)
(5.039613966819329e-07 0 0)
(5.206175416692504e-07 0 0)
(5.37340295379391e-07 0 0)
(5.540937140099176e-07 0 0)
(2.32229409819461e-07 0 0)
(2.499700494571987e-07 0 0)
(2.67625903507799e-07 0 0)
(2.851143504566134e-07 0 0)
(3.024561304776452e-07 0 0)
(3.196814078535675e-07 0 0)
(3.367619385772994e-07 0 0)
(3.536907288218253e-07 0 0)
(3.705340173920685e-07 0 0)
(3.873267952970027e-07 0 0)
(4.040405835350546e-07 0 0)
(4.207261317368371e-07 0 0)
(4.374158077422413e-07 0 0)
(4.540416699445323e-07 0 0)
(4.707111120302802e-07 0 0)
(4.87355619202829e-07 0 0)
(5.04057091133212e-07 0 0)
(5.207560597097019e-07 0 0)
(5.375049141931353e-07 0 0)
(5.542702210605245e-07 0 0)
(2.320574733774599e-07 0 0)
(2.496573550493852e-07 0 0)
(2.672033413327344e-07 0 0)
(2.846138470432408e-07 0 0)
(3.019220209794052e-07 0 0)
(3.191458123464765e-07 0 0)
(3.362426168088446e-07 0 0)
(3.531988444003796e-07 0 0)
(3.700833834090313e-07 0 0)
(3.869287455538033e-07 0 0)
(4.037031677238358e-07 0 0)
(4.204593955238809e-07 0 0)
(4.372173515288683e-07 0 0)
(4.53920203204924e-07 0 0)
(4.706608407694168e-07 0 0)
(4.873612375004617e-07 0 0)
(5.041081901765416e-07 0 0)
(5.208404166076624e-07 0 0)
(5.376109911828958e-07 0 0)
(5.543876803430524e-07 0 0)
(2.31948436810004e-07 0 0)
(2.494470405160481e-07 0 0)
(2.669041507966572e-07 0 0)
(2.842508373877141e-07 0 0)
(3.015222914784239e-07 0 0)
(3.187305216797431e-07 0 0)
(3.358254601261081e-07 0 0)
(3.527903015065479e-07 0 0)
(3.696971659062673e-07 0 0)
(3.86577212149699e-07 0 0)
(4.033993950165278e-07 0 0)
(4.202180036834013e-07 0 0)
(4.370314814898019e-07 0 0)
(4.537946013426818e-07 0 0)
(4.70590391477193e-07 0 0)
(4.873345984019601e-07 0 0)
(5.04117923656056e-07 0 0)
(5.208794481584056e-07 0 0)
(5.376710498029815e-07 0 0)
(5.544587209829644e-07 0 0)
(2.318905390745188e-07 0 0)
(2.49312137876889e-07 0 0)
(2.667011829798365e-07 0 0)
(2.839966570833321e-07 0 0)
(3.012286830289691e-07 0 0)
(3.184101156665751e-07 0 0)
(3.354896999001618e-07 0 0)
(3.524518721567663e-07 0 0)
(3.69372277600675e-07 0 0)
(3.862784095412827e-07 0 0)
(4.031378729933512e-07 0 0)
(4.200051283542009e-07 0 0)
(4.368586410229496e-07 0 0)
(4.536620259343312e-07 0 0)
(4.704974150878173e-07 0 0)
(4.872783330502724e-07 0 0)
(5.040958637962703e-07 0 0)
(5.208858817362688e-07 0 0)
(5.376959569184461e-07 0 0)
(5.544903342915442e-07 0 0)
(2.318795750920679e-07 0 0)
(2.492385409291924e-07 0 0)
(2.665744400786653e-07 0 0)
(2.838228323824148e-07 0 0)
(3.010101946858862e-07 0 0)
(3.181561596790898e-07 0 0)
(3.352136479764476e-07 0 0)
(3.521712506857894e-07 0 0)
(3.69105098568369e-07 0 0)
(3.860335798065087e-07 0 0)
(4.029190395384373e-07 0 0)
(4.198152009491573e-07 0 0)
(4.366908877681481e-07 0 0)
(4.535195171201445e-07 0 0)
(4.703874373757856e-07 0 0)
(4.87204657960051e-07 0 0)
(5.040553816874147e-07 0 0)
(5.208682091338969e-07 0 0)
(5.376885039999705e-07 0 0)
(5.54484490199479e-07 0 0)
(2.319100410685897e-07 0 0)
(2.492162784754736e-07 0 0)
(2.665032328983272e-07 0 0)
(2.836992692857243e-07 0 0)
(3.008350751435992e-07 0 0)
(3.179414724225304e-07 0 0)
(3.34978695494543e-07 0 0)
(3.519382255837067e-07 0 0)
(3.68889331204681e-07 0 0)
(3.85834667135953e-07 0 0)
(4.027312048152703e-07 0 0)
(4.196368374171967e-07 0 0)
(4.365235212892573e-07 0 0)
(4.533745868323587e-07 0 0)
(4.702762544464067e-07 0 0)
(4.871276224109539e-07 0 0)
(5.040017511653802e-07 0 0)
(5.208245569645806e-07 0 0)
(5.37648489084288e-07 0 0)
(5.544499572378515e-07 0 0)
(2.31974330067492e-07 0 0)
(2.492330344077536e-07 0 0)
(2.66464441139246e-07 0 0)
(2.835985596320281e-07 0 0)
(3.006796228409844e-07 0 0)
(3.177511431754675e-07 0 0)
(3.347782191681863e-07 0 0)
(3.517480484333655e-07 0 0)
(3.687151904909738e-07 0 0)
(3.856655660395357e-07 0 0)
(4.025582949439821e-07 0 0)
(4.194648401401609e-07 0 0)
(4.363658808663394e-07 0 0)
(4.532452079152532e-07 0 0)
(4.701772057687944e-07 0 0)
(4.87047622471679e-07 0 0)
(5.039283790053002e-07 0 0)
(5.207554180569083e-07 0 0)
(5.375894645436677e-07 0 0)
(5.544058485943843e-07 0 0)
(2.320635556451245e-07 0 0)
(2.492735320756215e-07 0 0)
(2.664380585341793e-07 0 0)
(2.835054492345613e-07 0 0)
(3.005389845783738e-07 0 0)
(3.175902869451446e-07 0 0)
(3.346189901273026e-07 0 0)
(3.515981421375016e-07 0 0)
(3.685677340985914e-07 0 0)
(3.85508662209076e-07 0 0)
(4.023944492377332e-07 0 0)
(4.193115932232906e-07 0 0)
(4.362379905999246e-07 0 0)
(4.53141537544526e-07 0 0)
(4.700833457872075e-07 0 0)
(4.869525424031688e-07 0 0)
(5.038383564805469e-07 0 0)
(5.206861596918691e-07 0 0)
(5.375380709905341e-07 0 0)
(5.543512233504289e-07 0 0)
(2.321651584458543e-07 0 0)
(2.493205385705627e-07 0 0)
(2.664127434887949e-07 0 0)
(2.83422604112731e-07 0 0)
(3.004283971421726e-07 0 0)
(3.174762203247754e-07 0 0)
(3.345064093413401e-07 0 0)
(3.514767968026538e-07 0 0)
(3.684294287589093e-07 0 0)
(3.853599812065419e-07 0 0)
(4.022567254560512e-07 0 0)
(4.192003831114524e-07 0 0)
(4.361448982626309e-07 0 0)
(4.530448578692618e-07 0 0)
(4.699771647726975e-07 0 0)
(4.868550613556561e-07 0 0)
(5.037662973512437e-07 0 0)
(5.206391721937325e-07 0 0)
(5.37496737470761e-07 0 0)
(5.542745698998469e-07 0 0)
(2.322622243425212e-07 0 0)
(2.493580103228342e-07 0 0)
(2.663885946892632e-07 0 0)
(2.833664940062492e-07 0 0)
(3.003671964399658e-07 0 0)
(3.174131357996168e-07 0 0)
(3.344235183757741e-07 0 0)
(3.513622768035462e-07 0 0)
(3.68299344073764e-07 0 0)
(3.852455167792516e-07 0 0)
(4.021720857080024e-07 0 0)
(4.191270345816865e-07 0 0)
(4.360544974627871e-07 0 0)
(4.529358416473079e-07 0 0)
(4.698827481089641e-07 0 0)
(4.868065680652187e-07 0 0)
(5.037297751352323e-07 0 0)
(5.205488968504578e-07 0 0)
(5.37418095189569e-07 0 0)
(5.542974933375203e-07 0 0)
(2.323389284641132e-07 0 0)
(2.493780835273959e-07 0 0)
(2.663757695326508e-07 0 0)
(2.833504647312755e-07 0 0)
(3.003490783280685e-07 0 0)
(3.173692719469044e-07 0 0)
(3.343381617499003e-07 0 0)
(3.512577012818166e-07 0 0)
(3.682172958299388e-07 0 0)
(3.851962329226386e-07 0 0)
(4.021181278196934e-07 0 0)
(4.190352244496134e-07 0 0)
(4.35958117262685e-07 0 0)
(4.528931564781704e-07 0 0)
(4.69857457549439e-07 0 0)
(4.867203513061287e-07 0 0)
(5.036434505027092e-07 0 0)
(5.205171527185508e-07 0 0)
(5.373501443494022e-07 0 0)
(5.541905894578481e-07 0 0)
(2.323890415913635e-07 0 0)
(2.493875148329055e-07 0 0)
(2.663840192713065e-07 0 0)
(2.833589991945808e-07 0 0)
(3.00326367214594e-07 0 0)
(3.173058664577986e-07 0 0)
(3.342731163022638e-07 0 0)
(3.512281108471112e-07 0 0)
(3.681961371792857e-07 0 0)
(3.85133804136353e-07 0 0)
(4.020421702353202e-07 0 0)
(4.190100097838351e-07 0 0)
(4.359453136936977e-07 0 0)
(4.528298736963448e-07 0 0)
(4.698092992627519e-07 0 0)
(4.86709586786041e-07 0 0)
(5.0359977103802e-07 0 0)
(5.204717886504525e-07 0 0)
(5.372985777149464e-07 0 0)
(5.541461891008252e-07 0 0)
(2.324187274380417e-07 0 0)
(2.494041997004606e-07 0 0)
(2.663979897914996e-07 0 0)
(2.833304951918545e-07 0 0)
(3.002884617474467e-07 0 0)
(3.173048079453156e-07 0 0)
(3.342828275143338e-07 0 0)
(3.511940176545241e-07 0 0)
(3.681505354132292e-07 0 0)
(3.851357660368591e-07 0 0)
(4.020437562548221e-07 0 0)
(4.189688463800817e-07 0 0)
(4.359289297648811e-07 0 0)
(4.528356587194526e-07 0 0)
(4.697972705923715e-07 0 0)
(4.867299393581971e-07 0 0)
(5.036251422588752e-07 0 0)
(5.20500893148071e-07 0 0)
(5.373095504060424e-07 0 0)
(5.540687414819098e-07 0 0)
(1.178997390167451e-08 0 0)
(3.531910848715873e-08 0 0)
(5.869656203885044e-08 0 0)
(8.183416004478471e-08 0 0)
(1.046622255808331e-07 0 0)
(1.271446377206475e-07 0 0)
(1.492933518178089e-07 0 0)
(1.71200197593252e-07 0 0)
(1.931211669766996e-07 0 0)
(2.156716421345477e-07 0 0)
(1.201865861332576e-08 0 0)
(3.600053616319554e-08 0 0)
(5.980961855616622e-08 0 0)
(8.333943427066983e-08 0 0)
(1.065075271400327e-07 0 0)
(1.292619245779019e-07 0 0)
(1.515799928971104e-07 0 0)
(1.734730968686775e-07 0 0)
(1.949865885564557e-07 0 0)
(2.160911250499582e-07 0 0)
(1.221219126518766e-08 0 0)
(3.657225556371002e-08 0 0)
(6.073280625567449e-08 0 0)
(8.456857414823933e-08 0 0)
(1.079823558036981e-07 0 0)
(1.308997860206925e-07 0 0)
(1.532529149253861e-07 0 0)
(1.749681348699491e-07 0 0)
(1.959372678773378e-07 0 0)
(2.158931006342064e-07 0 0)
(1.237181599038149e-08 0 0)
(3.703876303523063e-08 0 0)
(6.147559702051013e-08 0 0)
(8.553951773665597e-08 0 0)
(1.091190414042363e-07 0 0)
(1.321170535675163e-07 0 0)
(1.544253945362047e-07 0 0)
(1.759114731755669e-07 0 0)
(1.963986225046651e-07 0 0)
(2.156031651351196e-07 0 0)
(1.249886672819179e-08 0 0)
(3.740542651163278e-08 0 0)
(6.205003550417005e-08 0 0)
(8.627515323709361e-08 0 0)
(1.099574310840517e-07 0 0)
(1.329807773576237e-07 0 0)
(1.552080563056103e-07 0 0)
(1.764753207950617e-07 0 0)
(1.965933276330048e-07 0 0)
(2.153319486913569e-07 0 0)
(1.259512239831723e-08 0 0)
(3.76791847137131e-08 0 0)
(6.247095469468777e-08 0 0)
(8.680208989882506e-08 0 0)
(1.105410680926341e-07 0 0)
(1.335582196424762e-07 0 0)
(1.556980410220655e-07 0 0)
(1.767844827594309e-07 0 0)
(1.96641958569502e-07 0 0)
(2.15102299509273e-07 0 0)
(1.26630006655611e-08 0 0)
(3.786879150221657e-08 0 0)
(6.27557703029935e-08 0 0)
(8.714931239967541e-08 0 0)
(1.109135627486361e-07 0 0)
(1.339101951410274e-07 0 0)
(1.559732388980961e-07 0 0)
(1.769254381120305e-07 0 0)
(1.966131019354822e-07 0 0)
(2.149199195922941e-07 0 0)
(1.270550320770487e-08 0 0)
(3.798455961411834e-08 0 0)
(6.29240300875657e-08 0 0)
(8.734746155564958e-08 0 0)
(1.111175187631139e-07 0 0)
(1.340901889552487e-07 0 0)
(1.56093865347904e-07 0 0)
(1.769554296345878e-07 0 0)
(1.965433289012436e-07 0 0)
(2.147808923876989e-07 0 0)
(1.272599838464468e-08 0 0)
(3.803761025936308e-08 0 0)
(6.29962136862514e-08 0 0)
(8.742731213813004e-08 0 0)
(1.11193310008368e-07 0 0)
(1.341451323281985e-07 0 0)
(1.561076570742648e-07 0 0)
(1.769140195795696e-07 0 0)
(1.964527488721945e-07 0 0)
(2.146777584054317e-07 0 0)
(1.272807788446681e-08 0 0)
(3.803919884898925e-08 0 0)
(6.299219423955156e-08 0 0)
(8.74170849988627e-08 0 0)
(1.111754624336277e-07 0 0)
(1.341123065973023e-07 0 0)
(1.560497815485179e-07 0 0)
(1.768279703952979e-07 0 0)
(1.96353371549604e-07 0 0)
(2.14604801024807e-07 0 0)
(1.271557550548199e-08 0 0)
(3.800081587545763e-08 0 0)
(6.293099715465006e-08 0 0)
(8.734143912664549e-08 0 0)
(1.110907126708505e-07 0 0)
(1.340169912960646e-07 0 0)
(1.559412182436759e-07 0 0)
(1.767114357282064e-07 0 0)
(1.962505400027002e-07 0 0)
(2.145581204432679e-07 0 0)
(1.269245478853281e-08 0 0)
(3.793448355465382e-08 0 0)
(6.283156891987529e-08 0 0)
(8.722282803527836e-08 0 0)
(1.109603241973014e-07 0 0)
(1.33875937516723e-07 0 0)
(1.557930592916808e-07 0 0)
(1.765702353023969e-07 0 0)
(1.961457153066836e-07 0 0)
(2.145353722622371e-07 0 0)
(1.266249390251558e-08 0 0)
(3.785231424980747e-08 0 0)
(6.271257052544691e-08 0 0)
(8.708219861704557e-08 0 0)
(1.108029341763282e-07 0 0)
(1.337029773491083e-07 0 0)
(1.556141937176949e-07 0 0)
(1.76409660897016e-07 0 0)
(1.960418742215517e-07 0 0)
(2.145369411834666e-07 0 0)
(1.262916729024747e-08 0 0)
(3.776552372559422e-08 0 0)
(6.25905740084145e-08 0 0)
(8.693713645265873e-08 0 0)
(1.106340898585636e-07 0 0)
(1.335108417546968e-07 0 0)
(1.554151043756735e-07 0 0)
(1.762385736563621e-07 0 0)
(1.959455838802314e-07 0 0)
(2.145645443122183e-07 0 0)
(1.259593977446454e-08 0 0)
(3.768371556138997e-08 0 0)
(6.247803434658448e-08 0 0)
(8.679920676583432e-08 0 0)
(1.104638181507084e-07 0 0)
(1.333094133534129e-07 0 0)
(1.552065955612523e-07 0 0)
(1.76067575367657e-07 0 0)
(1.958633994761837e-07 0 0)
(2.146157520355267e-07 0 0)
(1.256649951866877e-08 0 0)
(3.761448163677723e-08 0 0)
(6.238227944773403e-08 0 0)
(8.667311808057728e-08 0 0)
(1.10296063770118e-07 0 0)
(1.33105036656339e-07 0 0)
(1.549982613432257e-07 0 0)
(1.759058658655884e-07 0 0)
(1.957971417886314e-07 0 0)
(2.14679405280423e-07 0 0)
(1.254426089195624e-08 0 0)
(3.756264971523356e-08 0 0)
(6.230547517635953e-08 0 0)
(8.655834627057419e-08 0 0)
(1.10131588773035e-07 0 0)
(1.32903568940849e-07 0 0)
(1.548002641958522e-07 0 0)
(1.757609765678281e-07 0 0)
(1.957428597953124e-07 0 0)
(2.147374161208132e-07 0 0)
(1.253115475735581e-08 0 0)
(3.752916370463269e-08 0 0)
(6.224533205683154e-08 0 0)
(8.645241309311022e-08 0 0)
(1.099732312657249e-07 0 0)
(1.327161103688492e-07 0 0)
(1.546274940242452e-07 0 0)
(1.756407536324779e-07 0 0)
(1.956934867686191e-07 0 0)
(2.147734300454557e-07 0 0)
(1.252656008458885e-08 0 0)
(3.751095612553243e-08 0 0)
(6.219722402265551e-08 0 0)
(8.635532814665706e-08 0 0)
(1.098322570752974e-07 0 0)
(1.325651765886475e-07 0 0)
(1.545023459892625e-07 0 0)
(1.75553007084225e-07 0 0)
(1.956413609868404e-07 0 0)
(2.147842377823819e-07 0 0)
(1.252719635781227e-08 0 0)
(3.750388904700924e-08 0 0)
(6.215833683888812e-08 0 0)
(8.627451780551287e-08 0 0)
(1.097364436907136e-07 0 0)
(1.324898103775016e-07 0 0)
(1.544484792204178e-07 0 0)
(1.7549279825109e-07 0 0)
(1.955781361181308e-07 0 0)
(2.147968755735955e-07 0 0)
)


// ************************************************************************* //
