/*--------------------------------*- C++ -*----------------------------------*\
| =========                 |                                                 |
| \\      /  F ield         | foam-extend: Open Source CFD                    |
|  \\    /   O peration     | Version:     4.1                                |
|   \\  /    A nd           | Web:         http://www.foam-extend.org         |
|    \\/     M anipulation  |                                                 |
\*---------------------------------------------------------------------------*/
FoamFile
{
    version     2.0;
    format      ascii;
    class       vectorField;
    location    "1";
    object      solidsCellD_iteration6;
}
// * * * * * * * * * * * * * * * * * * * * * * * * * * * * * * * * * * * * * //


1000
(
(3.881636778090668e-07 -8.247774020052567e-08 0)
(3.758519319178041e-07 -8.168262725580887e-08 0)
(3.697405505851258e-07 -8.327608983878932e-08 0)
(3.680303205470498e-07 -8.6666342497788e-08 0)
(3.695179635183219e-07 -9.131154819992926e-08 0)
(3.73442316722547e-07 -9.684960256400779e-08 0)
(3.791633306680207e-07 -1.030694886158861e-07 0)
(3.861111183038715e-07 -1.099562245127347e-07 0)
(3.942399430795312e-07 -1.171488184966525e-07 0)
(4.013722841342463e-07 -1.249804270032882e-07 0)
(3.524609155222052e-07 -9.033275523915703e-08 0)
(3.392612839048745e-07 -9.190588171717136e-08 0)
(3.323610296359644e-07 -9.513619050550798e-08 0)
(3.299754839209227e-07 -9.972622648102345e-08 0)
(3.307110160118696e-07 -1.052540342032856e-07 0)
(3.337249633486441e-07 -1.114667772723892e-07 0)
(3.384305138970031e-07 -1.181790168673171e-07 0)
(3.442636874982173e-07 -1.254185902310263e-07 0)
(3.511088231272231e-07 -1.327319797224971e-07 0)
(3.575358664556831e-07 -1.408260876981076e-07 0)
(3.148379696335924e-07 -9.772602384332823e-08 0)
(3.012504310619983e-07 -1.019131483044084e-07 0)
(2.939509219211924e-07 -1.068528497249211e-07 0)
(2.910710248581069e-07 -1.126176210567371e-07 0)
(2.912503602434628e-07 -1.189318613991125e-07 0)
(2.935889641849801e-07 -1.256809428854931e-07 0)
(2.975348702932031e-07 -1.327521554968494e-07 0)
(3.026397359309183e-07 -1.401341660189869e-07 0)
(3.08717756253615e-07 -1.474493546479005e-07 0)
(3.14723997673983e-07 -1.553400756056792e-07 0)
(2.756723611806584e-07 -1.045320884874222e-07 0)
(2.623663810813101e-07 -1.113862800397301e-07 0)
(2.550537050537975e-07 -1.180311814411132e-07 0)
(2.518948915810618e-07 -1.249227060085506e-07 0)
(2.516518250119961e-07 -1.31995013439065e-07 0)
(2.534846678130634e-07 -1.392142755243346e-07 0)
(2.567979465994642e-07 -1.465543069712943e-07 0)
(2.612869133984438e-07 -1.540263452377489e-07 0)
(2.667011827933572e-07 -1.613801080545638e-07 0)
(2.722863215143247e-07 -1.691198125156211e-07 0)
(2.35316959062768e-07 -1.105946643092475e-07 0)
(2.228381791906141e-07 -1.200368403497307e-07 0)
(2.158346655826796e-07 -1.283532361264484e-07 0)
(2.126831450139824e-07 -1.363267479367473e-07 0)
(2.122217763863633e-07 -1.440754375667544e-07 0)
(2.136192475524817e-07 -1.517233221714928e-07 0)
(2.163810806539547e-07 -1.593154351282995e-07 0)
(2.202308682824519e-07 -1.668825921984436e-07 0)
(2.249870213222682e-07 -1.742908700839063e-07 0)
(2.300001914653747e-07 -1.819349644367921e-07 0)
(1.93850300414637e-07 -1.158360671055967e-07 0)
(1.827771066124712e-07 -1.276580196584581e-07 0)
(1.765246219203986e-07 -1.374961488543241e-07 0)
(1.736029000293492e-07 -1.464792951235083e-07 0)
(1.730185016162817e-07 -1.548748081627484e-07 0)
(1.740157424870352e-07 -1.629225305705095e-07 0)
(1.762879411496289e-07 -1.70722948931003e-07 0)
(1.795344848654719e-07 -1.783910207574817e-07 0)
(1.835694528373587e-07 -1.858785583458557e-07 0)
(1.87863657747188e-07 -1.934793209236331e-07 0)
(1.5161163980724e-07 -1.201089682227606e-07 0)
(1.424175780790381e-07 -1.340197939386097e-07 0)
(1.37191924138107e-07 -1.451980139537467e-07 0)
(1.346776704228524e-07 -1.550526327855324e-07 0)
(1.340809157170605e-07 -1.639939512990256e-07 0)
(1.348123836102177e-07 -1.723953702823974e-07 0)
(1.366125779633344e-07 -1.803950889598493e-07 0)
(1.391988120399998e-07 -1.881758931311755e-07 0)
(1.424128075847891e-07 -1.957579345005014e-07 0)
(1.458610535567778e-07 -2.033425549534766e-07 0)
(1.087447959107085e-07 -1.233819282708549e-07 0)
(1.018141373572176e-07 -1.389680251221538e-07 0)
(9.788071483574407e-08 -1.512002513955754e-07 0)
(9.600296071967157e-08 -1.617191681186713e-07 0)
(9.55178954196272e-08 -1.711218835689351e-07 0)
(9.601756254369774e-08 -1.798049675869791e-07 0)
(9.730272038752271e-08 -1.879873101322476e-07 0)
(9.917393769164491e-08 -1.958597075550319e-07 0)
(1.015097610118439e-07 -2.035162578751317e-07 0)
(1.040217981351497e-07 -2.110871535700198e-07 0)
(6.542032622454508e-08 -1.255920855392093e-07 0)
(6.114542713887646e-08 -1.423300897456696e-07 0)
(5.873080222681603e-08 -1.552911945970565e-07 0)
(5.752425759013035e-08 -1.663249227384874e-07 0)
(5.716988761211478e-08 -1.760468913944697e-07 0)
(5.746351070105814e-08 -1.849070523647776e-07 0)
(5.826889264544039e-08 -1.932254188217815e-07 0)
(5.9414917716504e-08 -2.012046395715828e-07 0)
(6.081301610454254e-08 -2.089517748031467e-07 0)
(6.233223428301411e-08 -2.165366497878913e-07 0)
(2.185736306269718e-08 -1.267106021592709e-07 0)
(2.040019188001364e-08 -1.440443988947938e-07 0)
(1.955038197888553e-08 -1.573829306823186e-07 0)
(1.91555523196485e-08 -1.686520607920527e-07 0)
(1.906847107227759e-08 -1.78521099942639e-07 0)
(1.915053671058791e-08 -1.874832989159548e-07 0)
(1.938664571615282e-08 -1.958545103486769e-07 0)
(1.977269171198909e-08 -2.038600817821469e-07 0)
(2.025386859063726e-08 -2.116385080423908e-07 0)
(2.075837338568628e-08 -2.192213517191787e-07 0)
(5.872259611708961e-07 -3.674656149474174e-09 0)
(5.906985538486256e-07 -2.799387996936812e-09 0)
(5.948673729240245e-07 -2.351057353094191e-09 0)
(6.002573970243482e-07 -2.198705232390181e-09 0)
(6.070117344312993e-07 -2.240559244403713e-09 0)
(6.150462483638062e-07 -2.420883333622351e-09 0)
(6.243700608853399e-07 -2.680674755163526e-09 0)
(6.347669536288648e-07 -2.987320236301533e-09 0)
(6.462902437766016e-07 -3.372072222917566e-09 0)
(6.58775860004675e-07 -3.789205450763862e-09 0)
(5.833526499442524e-07 -1.105840801770301e-08 0)
(5.862876079350258e-07 -8.489392559937426e-09 0)
(5.901353774794327e-07 -7.171005499044062e-09 0)
(5.952774596622016e-07 -6.760005664692918e-09 0)
(6.018635371810232e-07 -6.913742555100719e-09 0)
(6.097407795265911e-07 -7.412853384832321e-09 0)
(6.189942015090714e-07 -8.208458976523822e-09 0)
(6.293435132851736e-07 -9.202172491736862e-09 0)
(6.407735440610888e-07 -1.033225334501356e-08 0)
(6.532289231490045e-07 -1.152576606369163e-08 0)
(5.755118246145479e-07 -1.848451185525599e-08 0)
(5.774398619526745e-07 -1.443308770302906e-08 0)
(5.806689543737588e-07 -1.237719571243645e-08 0)
(5.854008350594053e-07 -1.169371387344375e-08 0)
(5.917098254465755e-07 -1.19797186533585e-08 0)
(5.994205213991465e-07 -1.288522616872637e-08 0)
(6.084845298539542e-07 -1.422132903711548e-08 0)
(6.187000357406056e-07 -1.584690211240059e-08 0)
(6.299720455952774e-07 -1.769531760143519e-08 0)
(6.423589319174676e-07 -1.967662986595178e-08 0)
(5.638480959016987e-07 -2.60419076667807e-08 0)
(5.643699520154303e-07 -2.075142595656511e-08 0)
(5.66668206552434e-07 -1.817996022338238e-08 0)
(5.708350844696448e-07 -1.739227174061548e-08 0)
(5.767073922798135e-07 -1.783621819516058e-08 0)
(5.841175237910929e-07 -1.910278518922449e-08 0)
(5.929548577338258e-07 -2.093923867195199e-08 0)
(6.030477650628982e-07 -2.319423633967678e-08 0)
(6.141341634954751e-07 -2.577612521770282e-08 0)
(6.264679178507033e-07 -2.85280474094095e-08 0)
(5.484228033047639e-07 -3.375411532321309e-08 0)
(5.472629113667407e-07 -2.75944282791869e-08 0)
(5.484267516299901e-07 -2.470752709864596e-08 0)
(5.518302583251895e-07 -2.395996756588799e-08 0)
(5.57197792525281e-07 -2.463623198606891e-08 0)
(5.642657630941732e-07 -2.62940832106564e-08 0)
(5.72808424684348e-07 -2.865678889930035e-08 0)
(5.827003664598419e-07 -3.152678735928732e-08 0)
(5.935624014009549e-07 -3.479530698783236e-08 0)
(6.058620274015822e-07 -3.824609263817024e-08 0)
(5.29419536496632e-07 -4.164783532305504e-08 0)
(5.26300335570121e-07 -3.507568549072089e-08 0)
(5.262194242692598e-07 -3.211768509936978e-08 0)
(5.288012646362464e-07 -3.157005730328622e-08 0)
(5.336008326675816e-07 -3.260389463678904e-08 0)
(5.402709468505797e-07 -3.470888264056939e-08 0)
(5.485273347265655e-07 -3.758487074878781e-08 0)
(5.582024527646484e-07 -4.099806931716175e-08 0)
(5.68848313578739e-07 -4.488595333820352e-08 0)
(5.811466701434261e-07 -4.896972996966682e-08 0)
(5.070633360866802e-07 -4.970742753700298e-08 0)
(5.018436063954902e-07 -4.324696939743507e-08 0)
(5.004271758781389e-07 -4.053540137625456e-08 0)
(5.021500654453319e-07 -4.037963032197079e-08 0)
(5.063417672512008e-07 -4.186661594383087e-08 0)
(5.125978465277983e-07 -4.445462674257497e-08 0)
(5.205572159285664e-07 -4.782181425034001e-08 0)
(5.300012616949218e-07 -5.171709271552476e-08 0)
(5.404339374962695e-07 -5.616856183481638e-08 0)
(5.527798014677744e-07 -6.080260140558947e-08 0)
(4.815059587567793e-07 -5.787941002105401e-08 0)
(4.741999995583191e-07 -5.210198391789741e-08 0)
(4.714367847704788e-07 -4.998399673928599e-08 0)
(4.722789239874033e-07 -5.041142517057418e-08 0)
(4.758716265578799e-07 -5.246517985289258e-08 0)
(4.817130503446252e-07 -5.559732335791583e-08 0)
(4.89361409122245e-07 -5.94672908866264e-08 0)
(4.986014824828008e-07 -6.381931508279756e-08 0)
(5.088793107294359e-07 -6.877478983191534e-08 0)
(5.21264098456641e-07 -7.384048470472164e-08 0)
(4.530059676752562e-07 -6.612430984314479e-08 0)
(4.43742328053472e-07 -6.15584790001143e-08 0)
(4.397379394125874e-07 -6.038971223114931e-08 0)
(4.396984495156137e-07 -6.160917810712868e-08 0)
(4.426844868633857e-07 -6.436876946377154e-08 0)
(4.48029275570582e-07 -6.813363121965422e-08 0)
(4.552791002842477e-07 -7.255747165122298e-08 0)
(4.642043500371712e-07 -7.736015427066439e-08 0)
(4.742248149805357e-07 -8.271543171881467e-08 0)
(4.864504062077569e-07 -8.796783020670706e-08 0)
(4.218306256243127e-07 -7.434853542239395e-08 0)
(4.10866190812787e-07 -7.146264168778063e-08 0)
(4.057253502760019e-07 -7.155719713686651e-08 0)
(4.048450149109167e-07 -7.380580333682017e-08 0)
(4.071702107007418e-07 -7.744310035012479e-08 0)
(4.119734688177297e-07 -8.199704515024609e-08 0)
(4.188375701541075e-07 -8.718994738347774e-08 0)
(4.274556268601436e-07 -9.275429416697693e-08 0)
(4.374487646019171e-07 -9.882769375098682e-08 0)
(4.489531931795373e-07 -1.047199404961554e-07 0)
(6.720394511243559e-07 -4.144725047517862e-09 0)
(6.863564204531929e-07 -4.387423431935381e-09 0)
(7.014191656571794e-07 -4.587035965410881e-09 0)
(7.171487016747913e-07 -4.758565417588495e-09 0)
(7.334890845110904e-07 -4.903710249897591e-09 0)
(7.504327746511049e-07 -5.025899512908043e-09 0)
(7.679168478368619e-07 -5.126720594598167e-09 0)
(7.858501118782843e-07 -5.228994126636696e-09 0)
(8.042201795007754e-07 -5.341596708646927e-09 0)
(8.230397818058914e-07 -5.440538719396391e-09 0)
(8.422618726429756e-07 -5.511616572462311e-09 0)
(8.61833967867036e-07 -5.560859162353724e-09 0)
(8.817345159087819e-07 -5.601285133476282e-09 0)
(9.019561140197933e-07 -5.642146795533411e-09 0)
(9.224852038670782e-07 -5.680886000100333e-09 0)
(9.433025683994409e-07 -5.706843351538975e-09 0)
(9.643967981702935e-07 -5.711222229080744e-09 0)
(9.857639447310307e-07 -5.688608578671744e-09 0)
(1.007354402409737e-06 -5.645421118359521e-09 0)
(1.029191371861855e-06 -5.593750446944423e-09 0)
(6.667056394475032e-07 -1.257709715307316e-08 0)
(6.814140766238373e-07 -1.329546036160595e-08 0)
(6.968315284201555e-07 -1.387269275135619e-08 0)
(7.129032479367196e-07 -1.436080614918196e-08 0)
(7.295831197802704e-07 -1.476386068771601e-08 0)
(7.468131109444601e-07 -1.51176539430506e-08 0)
(7.645512386592376e-07 -1.544637096593793e-08 0)
(7.827542512008221e-07 -1.576639034604459e-08 0)
(8.013977670071481e-07 -1.606325890313868e-08 0)
(8.204609624254226e-07 -1.63041339779719e-08 0)
(8.398999496855676e-07 -1.649646131771017e-08 0)
(8.596900064141755e-07 -1.666313641367899e-08 0)
(8.79816652705373e-07 -1.681224524367869e-08 0)
(9.002535325774895e-07 -1.693853313916821e-08 0)
(9.209693140262892e-07 -1.703057387760077e-08 0)
(9.419509834618966e-07 -1.708191934723088e-08 0)
(9.632022927338801e-07 -1.708561549691394e-08 0)
(9.847122441066743e-07 -1.703524509563045e-08 0)
(1.006451634608358e-06 -1.694258461878588e-08 0)
(1.028433001027408e-06 -1.681499370227064e-08 0)
(6.562208625128804e-07 -2.139447564107282e-08 0)
(6.717354907280755e-07 -2.250676440880967e-08 0)
(6.879230937350337e-07 -2.337181622566335e-08 0)
(7.04641752649357e-07 -2.411976910790476e-08 0)
(7.219189018851715e-07 -2.476693069210212e-08 0)
(7.397460257777232e-07 -2.535619953346618e-08 0)
(7.580693019483886e-07 -2.59040247324906e-08 0)
(7.768012224049569e-07 -2.641138603221648e-08 0)
(7.959183101507357e-07 -2.685708217959053e-08 0)
(8.154248063828579e-07 -2.722708074855934e-08 0)
(8.353013146941242e-07 -2.755086545752978e-08 0)
(8.555225188477835e-07 -2.784853545564397e-08 0)
(8.760534731043657e-07 -2.810590235284828e-08 0)
(8.96857076226211e-07 -2.83022311782883e-08 0)
(9.179211580512883e-07 -2.843018805700612e-08 0)
(9.392656648750405e-07 -2.849276887023775e-08 0)
(9.608626831424458e-07 -2.848577035472253e-08 0)
(9.827089454300842e-07 -2.841242183456753e-08 0)
(1.004759974480845e-06 -2.829410854216143e-08 0)
(1.027041477814586e-06 -2.812077232397466e-08 0)
(6.408914111784075e-07 -3.079438930439063e-08 0)
(6.575064924412497e-07 -3.214411116590638e-08 0)
(6.74765155905071e-07 -3.318368939458216e-08 0)
(6.924755683014891e-07 -3.412812849332231e-08 0)
(7.107001736408752e-07 -3.498585654313096e-08 0)
(7.29386403663662e-07 -3.5785172924607e-08 0)
(7.4850158648529e-07 -3.651959454110539e-08 0)
(7.679891849702337e-07 -3.718815741440482e-08 0)
(7.878662269500408e-07 -3.777356857606191e-08 0)
(8.081044021431634e-07 -3.828114726507931e-08 0)
(8.286587074377658e-07 -3.873772037620657e-08 0)
(8.495016063967946e-07 -3.914253819562365e-08 0)
(8.706089649432335e-07 -3.946999403309018e-08 0)
(8.919580699793697e-07 -3.971057827508449e-08 0)
(9.135506658342555e-07 -3.987654201412115e-08 0)
(9.354131407547614e-07 -3.995788697564044e-08 0)
(9.574994763439978e-07 -3.994961246475785e-08 0)
(9.798291469130549e-07 -3.985906081666635e-08 0)
(1.002328624582121e-06 -3.970851591635888e-08 0)
(1.025032059263999e-06 -3.950629542568249e-08 0)
(6.210522849737517e-07 -4.091253746290155e-08 0)
(6.39144539693547e-07 -4.233734094382212e-08 0)
(6.578373477888766e-07 -4.345649110175467e-08 0)
(6.768039856690203e-07 -4.454328172105378e-08 0)
(6.962061328560099e-07 -4.554815047110572e-08 0)
(7.159912750902033e-07 -4.649169535499122e-08 0)
(7.361757874987844e-07 -4.73647839835275e-08 0)
(7.566725853963309e-07 -4.817679175827484e-08 0)
(7.775013060625456e-07 -4.8896413642355e-08 0)
(7.986343439659264e-07 -4.952473108145323e-08 0)
(8.200379358729262e-07 -5.008472831331094e-08 0)
(8.416925274393197e-07 -5.056856933302104e-08 0)
(8.635768272777455e-07 -5.095064131763163e-08 0)
(8.856770971692364e-07 -5.122990478379157e-08 0)
(9.08003076917717e-07 -5.14244521500816e-08 0)
(9.305224833494077e-07 -5.151652408833916e-08 0)
(9.532683440804898e-07 -5.150574357498619e-08 0)
(9.7617124617007e-07 -5.140540455194173e-08 0)
(9.992818408748034e-07 -5.123363743179934e-08 0)
(1.022546311382883e-06 -5.101873880722146e-08 0)
(5.972413787901855e-07 -5.189207470743064e-08 0)
(6.170240735635347e-07 -5.320280601229036e-08 0)
(6.374198110065746e-07 -5.424581211028844e-08 0)
(6.579342140784755e-07 -5.537166921628046e-08 0)
(6.788319245067573e-07 -5.645878564758828e-08 0)
(7.000008385314949e-07 -5.75157541134554e-08 0)
(7.214585302931602e-07 -5.850140449685331e-08 0)
(7.431684153035908e-07 -5.940751419719791e-08 0)
(7.651291800436906e-07 -6.021728000681397e-08 0)
(7.873303148268102e-07 -6.093790523545044e-08 0)
(8.097622727510839e-07 -6.158502546389815e-08 0)
(8.324065309144654e-07 -6.213915413798238e-08 0)
(8.552271266309232e-07 -6.257167456453751e-08 0)
(8.782103057663222e-07 -6.288737344444723e-08 0)
(9.013931472792638e-07 -6.30931582740063e-08 0)
(9.247105500216448e-07 -6.31794663550128e-08 0)
(9.482477185019141e-07 -6.315829298127882e-08 0)
(9.71885689332831e-07 -6.305287817374292e-08 0)
(9.957380477441082e-07 -6.287939184567193e-08 0)
(1.019699260636575e-06 -6.265750474393614e-08 0)
(5.700133684882392e-07 -6.381153241505738e-08 0)
(5.917805383246458e-07 -6.478807906732835e-08 0)
(6.141707924505667e-07 -6.559811950422908e-08 0)
(6.364819247806431e-07 -6.665629228740374e-08 0)
(6.590423221748434e-07 -6.773223321443614e-08 0)
(6.817881250878638e-07 -6.881803260161789e-08 0)
(7.046686402787909e-07 -6.985961030002485e-08 0)
(7.277389498706759e-07 -7.082567706535789e-08 0)
(7.510041016936378e-07 -7.171037100158897e-08 0)
(7.744529245669348e-07 -7.251678680328043e-08 0)
(7.980679755376759e-07 -7.324114338412127e-08 0)
(8.218260215017618e-07 -7.384983796643051e-08 0)
(8.457037919113699e-07 -7.431389031671135e-08 0)
(8.697056065747572e-07 -7.464748704238112e-08 0)
(8.938529353957483e-07 -7.485384042606872e-08 0)
(9.181156339783995e-07 -7.493644666545671e-08 0)
(9.425792351256916e-07 -7.491621915639944e-08 0)
(9.671142158712113e-07 -7.480989253032374e-08 0)
(9.918171936293431e-07 -7.462469703383332e-08 0)
(1.016573991808734e-06 -7.437408958552995e-08 0)
(5.398307929129204e-07 -7.674916496218902e-08 0)
(5.638096706896442e-07 -7.712895884797325e-08 0)
(5.884091292578755e-07 -7.754373983218136e-08 0)
(6.12765855915485e-07 -7.839247052147249e-08 0)
(6.372176410058447e-07 -7.934378713565714e-08 0)
(6.617223119131553e-07 -8.037429084384532e-08 0)
(6.862652495281135e-07 -8.140656007861003e-08 0)
(7.108821720328118e-07 -8.23973260606017e-08 0)
(7.355916948648407e-07 -8.333210894538263e-08 0)
(7.603995598242888e-07 -8.419705044603114e-08 0)
(7.852920632406018e-07 -8.496811159106294e-08 0)
(8.102431987600176e-07 -8.560599386678877e-08 0)
(8.352503279175904e-07 -8.609152212908053e-08 0)
(8.603676978070376e-07 -8.644432241144446e-08 0)
(8.855958720838452e-07 -8.666649302499773e-08 0)
(9.109268653097163e-07 -8.676631584701013e-08 0)
(9.364191276340072e-07 -8.675549642961475e-08 0)
(9.61941678877119e-07 -8.664055207316453e-08 0)
(9.87591451602563e-07 -8.641739749206842e-08 0)
(1.013244057209834e-06 -8.610012145679335e-08 0)
(5.069481893485868e-07 -9.071087564781673e-08 0)
(5.33574517447384e-07 -9.021088206366769e-08 0)
(5.607174418805188e-07 -9.006822568279447e-08 0)
(5.873809165618699e-07 -9.053261587931167e-08 0)
(6.139736283358953e-07 -9.124910637589485e-08 0)
(6.40400504855946e-07 -9.213408486574497e-08 0)
(6.667358270772536e-07 -9.30825924389287e-08 0)
(6.930071391398343e-07 -9.404170133069798e-08 0)
(7.192460305062585e-07 -9.497909391204922e-08 0)
(7.454690091191855e-07 -9.585968841577599e-08 0)
(7.716828375285902e-07 -9.664681691028623e-08 0)
(7.978892320540508e-07 -9.730352238396959e-08 0)
(8.241127313018818e-07 -9.78222955480435e-08 0)
(8.504240091132591e-07 -9.821782415615642e-08 0)
(8.76799456084226e-07 -9.848139153475975e-08 0)
(9.032556893039632e-07 -9.861996940866196e-08 0)
(9.298373475004624e-07 -9.862642269769035e-08 0)
(9.564097244818921e-07 -9.849351781652734e-08 0)
(9.830774999700985e-07 -9.821212303059148e-08 0)
(1.009723361763725e-06 -9.779983243844963e-08 0)
(4.721993479070376e-07 -1.05985385739958e-07 0)
(5.026651210974409e-07 -1.037451386898356e-07 0)
(5.329138875539339e-07 -1.028836194638256e-07 0)
(5.622305349488589e-07 -1.028535234140083e-07 0)
(5.910504782573958e-07 -1.032569692011219e-07 0)
(6.194570952976379e-07 -1.039142917578119e-07 0)
(6.475547223008142e-07 -1.047080198925074e-07 0)
(6.754268969772227e-07 -1.055729181922259e-07 0)
(7.031394358944051e-07 -1.064605675738034e-07 0)
(7.307305599973894e-07 -1.073206365020156e-07 0)
(7.582274144715332e-07 -1.081108510705383e-07 0)
(7.856510146686004e-07 -1.087932193923187e-07 0)
(8.130514813230258e-07 -1.093599030841028e-07 0)
(8.405020159458828e-07 -1.098159825329864e-07 0)
(8.679645147516873e-07 -1.101428042826099e-07 0)
(8.954891947324561e-07 -1.103420751110429e-07 0)
(9.230922058977505e-07 -1.10389526576711e-07 0)
(9.506827966086306e-07 -1.102546834703707e-07 0)
(9.783559560316832e-07 -1.099268383021584e-07 0)
(1.006036333044638e-06 -1.094083542823266e-07 0)
(4.409350459538824e-07 -1.256315509940014e-07 0)
(4.765668337198615e-07 -1.202020574067266e-07 0)
(5.101752737749905e-07 -1.178927975274432e-07 0)
(5.422813043207444e-07 -1.167710558584383e-07 0)
(5.732289817726241e-07 -1.164307099643136e-07 0)
(6.033949646204266e-07 -1.165545219970279e-07 0)
(6.329781691025063e-07 -1.169648099214777e-07 0)
(6.621480273159589e-07 -1.175509963623323e-07 0)
(6.91008209331654e-07 -1.182283731186096e-07 0)
(7.196320617542372e-07 -1.189257591697663e-07 0)
(7.480768598583759e-07 -1.195947391963536e-07 0)
(7.763783850011686e-07 -1.201958257062419e-07 0)
(8.046090493502668e-07 -1.207135528484222e-07 0)
(8.32839623217281e-07 -1.211404170926864e-07 0)
(8.61010142906837e-07 -1.214505664217e-07 0)
(8.892125581778263e-07 -1.216319410692933e-07 0)
(9.174178167548716e-07 -1.216551782216912e-07 0)
(9.456170156397103e-07 -1.214732824920115e-07 0)
(9.738650512518416e-07 -1.210759100188226e-07 0)
(1.002132312492238e-06 -1.204176966370602e-07 0)
(4.256837604039405e-07 -1.442539610776857e-07 0)
(4.61649315053182e-07 -1.382096352675721e-07 0)
(4.958617671958008e-07 -1.346279739837355e-07 0)
(5.289740386356442e-07 -1.324135169773752e-07 0)
(5.610047016278459e-07 -1.311911212905424e-07 0)
(5.9220481552153e-07 -1.306251556350077e-07 0)
(6.227494546060984e-07 -1.304875096848513e-07 0)
(6.527904545544957e-07 -1.306314746787733e-07 0)
(6.824236538852468e-07 -1.309449434967468e-07 0)
(7.117371911776522e-07 -1.313424316225797e-07 0)
(7.408049766456036e-07 -1.317649665694359e-07 0)
(7.696705137431343e-07 -1.321646036599508e-07 0)
(7.984160087764955e-07 -1.325155961337332e-07 0)
(8.270981772713641e-07 -1.327967064423367e-07 0)
(8.556498160835134e-07 -1.329785754701237e-07 0)
(8.841998663833742e-07 -1.330368715668481e-07 0)
(9.12675030930683e-07 -1.32943778587839e-07 0)
(9.41136302299965e-07 -1.326479341247777e-07 0)
(9.695870624157914e-07 -1.321336374713277e-07 0)
(9.980146452899719e-07 -1.312880882675374e-07 0)
(4.152777974605151e-07 -1.606062646399109e-07 0)
(4.505605905618427e-07 -1.54933092684455e-07 0)
(4.847966788134517e-07 -1.509987596585003e-07 0)
(5.182391783358872e-07 -1.482137952439635e-07 0)
(5.508192128003511e-07 -1.463726959130996e-07 0)
(5.826395912987727e-07 -1.452253930504855e-07 0)
(6.138364935772095e-07 -1.445721070036807e-07 0)
(6.445016658072484e-07 -1.442675523243226e-07 0)
(6.747120742133626e-07 -1.44194634041049e-07 0)
(7.045595740170486e-07 -1.442638820933037e-07 0)
(7.341167149142426e-07 -1.444079758037941e-07 0)
(7.634224910720424e-07 -1.445706937917874e-07 0)
(7.925658474016465e-07 -1.447179553195053e-07 0)
(8.215906545460717e-07 -1.448176356018695e-07 0)
(8.504312428015264e-07 -1.448379321174269e-07 0)
(8.792364279130883e-07 -1.447468395619253e-07 0)
(9.079182152692389e-07 -1.445192269144224e-07 0)
(9.36573245710786e-07 -1.441039212340098e-07 0)
(9.651590206005763e-07 -1.434611695753255e-07 0)
(9.936950903443889e-07 -1.424300203846898e-07 0)
(4.070721354917362e-07 -1.761992266006446e-07 0)
(4.416892758173537e-07 -1.709252811292522e-07 0)
(4.756423867365964e-07 -1.668951333629225e-07 0)
(5.090904108943226e-07 -1.637857029648191e-07 0)
(5.418696962012094e-07 -1.61512167925604e-07 0)
(5.740306407368262e-07 -1.59905090555858e-07 0)
(6.056405059998998e-07 -1.588143004649736e-07 0)
(6.367355052826318e-07 -1.581060722510674e-07 0)
(6.673751829198962e-07 -1.576688311055819e-07 0)
(6.976450398130635e-07 -1.574178679805122e-07 0)
(7.276022944078577e-07 -1.572832323864987e-07 0)
(7.572730032817577e-07 -1.572041324319563e-07 0)
(7.867510772929307e-07 -1.571418166462584e-07 0)
(8.160683316836323e-07 -1.570558814393355e-07 0)
(8.45169748073779e-07 -1.569100741931875e-07 0)
(8.742054065598701e-07 -1.566690955949735e-07 0)
(9.030778898560416e-07 -1.563103107166366e-07 0)
(9.319079698672067e-07 -1.557773279566995e-07 0)
(9.60614326742864e-07 -1.549988733660167e-07 0)
(9.892649130089179e-07 -1.538267499275571e-07 0)
(4.00363540724651e-07 -1.910628666991913e-07 0)
(4.344143387712804e-07 -1.862258712689056e-07 0)
(4.680034977306384e-07 -1.823018383709082e-07 0)
(5.012953657570525e-07 -1.79067846504787e-07 0)
(5.340723274919568e-07 -1.765259350236704e-07 0)
(5.663777165892524e-07 -1.745860520480055e-07 0)
(5.982093865053342e-07 -1.731441936247846e-07 0)
(6.295724846334836e-07 -1.720882344176732e-07 0)
(6.605110182492398e-07 -1.713216820657004e-07 0)
(6.910973518053026e-07 -1.707709392835757e-07 0)
(7.213673614516839e-07 -1.703673597652799e-07 0)
(7.513314412157315e-07 -1.700499669487486e-07 0)
(7.810867436070025e-07 -1.697797397456278e-07 0)
(8.106492502104405e-07 -1.695110205207257e-07 0)
(8.399781773180466e-07 -1.692029367460645e-07 0)
(8.692215098330019e-07 -1.688174846544226e-07 0)
(8.982662764929199e-07 -1.683286121819738e-07 0)
(9.272437870665721e-07 -1.676712802842569e-07 0)
(9.560635893848598e-07 -1.667594943495007e-07 0)
(9.84833240910046e-07 -1.6552102431858e-07 0)
(3.94685972864218e-07 -2.054342574166542e-07 0)
(4.282633500663959e-07 -2.009966333855854e-07 0)
(4.615256464334216e-07 -1.97243906099651e-07 0)
(4.94574666835252e-07 -1.940029065227461e-07 0)
(5.272547949269159e-07 -1.913167259708643e-07 0)
(5.595768334999144e-07 -1.891539111493371e-07 0)
(5.915014500056702e-07 -1.874467365221314e-07 0)
(6.230181426895554e-07 -1.861099863222536e-07 0)
(6.54154636497492e-07 -1.850643147133675e-07 0)
(6.849676608178084e-07 -1.842505763147066e-07 0)
(7.154721140007463e-07 -1.836037603022776e-07 0)
(7.456651637842726e-07 -1.830662748237364e-07 0)
(7.756469895069371e-07 -1.826013348776491e-07 0)
(8.054132410725327e-07 -1.821594165939332e-07 0)
(8.349373084581192e-07 -1.816950970518932e-07 0)
(8.643517415538953e-07 -1.81172153368844e-07 0)
(8.935448679167152e-07 -1.805534033380235e-07 0)
(9.226436831690633e-07 -1.797710283381468e-07 0)
(9.515799646322898e-07 -1.787606482569254e-07 0)
(9.804587292065491e-07 -1.775134721924592e-07 0)
(3.898250271431829e-07 -2.194438229320902e-07 0)
(4.23004005738133e-07 -2.153546303698039e-07 0)
(4.559731272903651e-07 -2.117903875905676e-07 0)
(4.887632141846827e-07 -2.086108592494419e-07 0)
(5.212995805761389e-07 -2.058739131969538e-07 0)
(5.53556462661754e-07 -2.03575326641518e-07 0)
(5.854915824781287e-07 -2.016784889807855e-07 0)
(6.170803356628062e-07 -2.001250504934909e-07 0)
(6.483333201937143e-07 -1.988510037310157e-07 0)
(6.792943121770807e-07 -1.978144252946095e-07 0)
(7.099616283912759e-07 -1.969548726395398e-07 0)
(7.403231703820541e-07 -1.962198426041088e-07 0)
(7.704799355331693e-07 -1.955748337588678e-07 0)
(8.004031910910393e-07 -1.949700873858542e-07 0)
(8.300873710877435e-07 -1.943532423113502e-07 0)
(8.596352867570051e-07 -1.936930936080671e-07 0)
(8.889485538884718e-07 -1.929469904527802e-07 0)
(9.181545920743332e-07 -1.920568498635743e-07 0)
(9.472058547299933e-07 -1.910004597345651e-07 0)
(9.761696268766217e-07 -1.897342800513393e-07 0)
(3.856418962924871e-07 -2.331757148183185e-07 0)
(4.18505801125569e-07 -2.293800254923211e-07 0)
(4.511968211196944e-07 -2.260102231946521e-07 0)
(4.837505024562393e-07 -2.229327197615314e-07 0)
(5.161129951185577e-07 -2.202065410781323e-07 0)
(5.482577386441042e-07 -2.178340400144144e-07 0)
(5.801484045877019e-07 -2.158067882199077e-07 0)
(6.117449795658466e-07 -2.140892230691258e-07 0)
(6.430442941416865e-07 -2.126298068396907e-07 0)
(6.74083072668368e-07 -2.114067890199417e-07 0)
(7.048483540768284e-07 -2.103643307402066e-07 0)
(7.353236053265235e-07 -2.094550794981578e-07 0)
(7.656074584011972e-07 -2.086429777324913e-07 0)
(7.956449269517688e-07 -2.078827028539208e-07 0)
(8.254488457064734e-07 -2.071192798272319e-07 0)
(8.550998866038316e-07 -2.063262517958271e-07 0)
(8.845132720271737e-07 -2.054691179620073e-07 0)
(9.138227876130544e-07 -2.04506540677932e-07 0)
(9.429682493367856e-07 -2.034335714374172e-07 0)
(9.720003175053159e-07 -2.021104135650987e-07 0)
(3.820027390244232e-07 -2.466885073027728e-07 0)
(4.146086283903594e-07 -2.431470528124399e-07 0)
(4.470590016581584e-07 -2.399674549067799e-07 0)
(4.794012155044309e-07 -2.370076821114263e-07 0)
(5.115822162616238e-07 -2.343203339642963e-07 0)
(5.435981073328835e-07 -2.319110045839748e-07 0)
(5.754108491769027e-07 -2.297944124964921e-07 0)
(6.06969259080876e-07 -2.279533923634791e-07 0)
(6.382636718312344e-07 -2.263456692931384e-07 0)
(6.693285176241725e-07 -2.249698964094162e-07 0)
(7.001413755744512e-07 -2.237736572470091e-07 0)
(7.30683969731564e-07 -2.22714927015696e-07 0)
(7.610484548586407e-07 -2.217535666843396e-07 0)
(7.911630190802073e-07 -2.208491460387091e-07 0)
(8.21050109340486e-07 -2.199524682198259e-07 0)
(8.507820429292014e-07 -2.190481485505005e-07 0)
(8.802840880024384e-07 -2.181107646773461e-07 0)
(9.096855340613441e-07 -2.171098703019006e-07 0)
(9.388932695268804e-07 -2.160038530686282e-07 0)
(9.679888610971431e-07 -2.146510115523949e-07 0)
(3.788154589562838e-07 -2.600296471860459e-07 0)
(4.11192369176721e-07 -2.567244376525038e-07 0)
(4.434453425163335e-07 -2.537154456889681e-07 0)
(4.755935521682503e-07 -2.50865849990057e-07 0)
(5.076081561011152e-07 -2.482237720039639e-07 0)
(5.394963470138817e-07 -2.457999301673455e-07 0)
(5.712145286345858e-07 -2.436254861422397e-07 0)
(6.027079465098402e-07 -2.416976513452703e-07 0)
(6.339669258217474e-07 -2.39979733411884e-07 0)
(6.650247680489643e-07 -2.384842575620593e-07 0)
(6.958483474007786e-07 -2.371619471917369e-07 0)
(7.264205875102876e-07 -2.359753467481875e-07 0)
(7.568242701735711e-07 -2.348833054011693e-07 0)
(7.869832992183294e-07 -2.338516122152407e-07 0)
(8.169228471251636e-07 -2.32842688207459e-07 0)
(8.467226908377892e-07 -2.318500121055873e-07 0)
(8.762989948153614e-07 -2.308639879155024e-07 0)
(9.057589888310551e-07 -2.298338015687715e-07 0)