/*--------------------------------*- C++ -*----------------------------------*\
| =========                 |                                                 |
| \\      /  F ield         | foam-extend: Open Source CFD                    |
|  \\    /   O peration     | Version:     4.1                                |
|   \\  /    A nd           | Web:         http://www.foam-extend.org         |
|    \\/     M anipulation  |                                                 |
\*---------------------------------------------------------------------------*/
FoamFile
{
    version     2.0;
    format      ascii;
    class       vectorField;
    location    "1";
    object      solidsCellD_iteration8;
}
// * * * * * * * * * * * * * * * * * * * * * * * * * * * * * * * * * * * * * //


1000
(
(4.107329172704555e-07 -1.028075800352365e-07 0)
(3.95429755583678e-07 -9.985590135480241e-08 0)
(3.871868584155773e-07 -9.978401021830637e-08 0)
(3.839297729921326e-07 -1.020470722300685e-07 0)
(3.842858098717396e-07 -1.058676729117911e-07 0)
(3.873689321611964e-07 -1.108104999526232e-07 0)
(3.924658937500108e-07 -1.165674117985404e-07 0)
(3.989375934633756e-07 -1.230718668847542e-07 0)
(4.068057318493452e-07 -1.299117491793832e-07 0)
(4.140368862791482e-07 -1.372050079622005e-07 0)
(3.725537829595715e-07 -1.125817630842664e-07 0)
(3.562439006980544e-07 -1.123721396939947e-07 0)
(3.471769454435928e-07 -1.141374192469945e-07 0)
(3.43225378314983e-07 -1.17726185685979e-07 0)
(3.428204972427647e-07 -1.225026037796969e-07 0)
(3.450506985415902e-07 -1.28145159099925e-07 0)
(3.492287796782526e-07 -1.343906452276465e-07 0)
(3.547248424079042e-07 -1.412630625396471e-07 0)
(3.614462183358186e-07 -1.482376984502669e-07 0)
(3.679793051060014e-07 -1.559253645290991e-07 0)
(3.324920339408739e-07 -1.217837881879124e-07 0)
(3.157695150815498e-07 -1.246184164419851e-07 0)
(3.062761292827121e-07 -1.28370734807951e-07 0)
(3.018748478262189e-07 -1.33293986628352e-07 0)
(3.009788815536868e-07 -1.389571433426644e-07 0)
(3.026029831416492e-07 -1.451952313658639e-07 0)
(3.061084463887933e-07 -1.518502306583792e-07 0)
(3.109599743603947e-07 -1.589282828721098e-07 0)
(3.169858278999281e-07 -1.659766455332574e-07 0)
(3.2311553653817e-07 -1.735637012934644e-07 0)
(2.908634095686919e-07 -1.302709119351465e-07 0)
(2.745451412095963e-07 -1.3623147531571e-07 0)
(2.651144388139769e-07 -1.41995208977323e-07 0)
(2.605137219868731e-07 -1.482271650383797e-07 0)
(2.592976001938103e-07 -1.547626010036591e-07 0)
(2.604919165695715e-07 -1.615555463469879e-07 0)
(2.63414705057643e-07 -1.685480161972018e-07 0)
(2.677045836131169e-07 -1.757795603279836e-07 0)
(2.730896929360174e-07 -1.829212911166972e-07 0)
(2.78796531114633e-07 -1.904598746026973e-07 0)
(2.4810518216021e-07 -1.378557489494505e-07 0)
(2.328116356193829e-07 -1.468666272392916e-07 0)
(2.238565873504245e-07 -1.545892724936252e-07 0)
(2.194039526527663e-07 -1.620886081471167e-07 0)
(2.180684450125075e-07 -1.694317913345264e-07 0)
(2.188949286413771e-07 -1.767532399497201e-07 0)
(2.21314504107364e-07 -1.840688471413801e-07 0)
(2.250180928704725e-07 -1.914569583317956e-07 0)
(2.297677347396362e-07 -1.987210809467721e-07 0)
(2.348877989809943e-07 -2.062512324215809e-07 0)
(2.04222008158425e-07 -1.444387823401193e-07 0)
(1.907049029343529e-07 -1.562578443271414e-07 0)
(1.82754683907678e-07 -1.657893264990455e-07 0)
(1.786872117250045e-07 -1.744858805990167e-07 0)
(1.773335333493941e-07 -1.825942043737712e-07 0)
(1.778484785143316e-07 -1.903979803759433e-07 0)
(1.798461503914272e-07 -1.979943456064845e-07 0)
(1.829828000751805e-07 -2.0553413655919e-07 0)
(1.870174059492133e-07 -2.129360835492842e-07 0)
(1.913932555877643e-07 -2.204967479910632e-07 0)
(1.596376492972606e-07 -1.49821145072555e-07 0)
(1.484257904056654e-07 -1.641129376245419e-07 0)
(1.418012453463248e-07 -1.75241487770581e-07 0)
(1.383434976754899e-07 -1.849806303246061e-07 0)
(1.371294300422684e-07 -1.937403135013703e-07 0)
(1.374803505451664e-07 -2.019679359700199e-07 0)
(1.390677484979436e-07 -2.098209966244409e-07 0)
(1.415668043552127e-07 -2.175173863602536e-07 0)
(1.447767321368073e-07 -2.250612089357412e-07 0)
(1.482810171906643e-07 -2.326575350375331e-07 0)
(1.144609614606362e-07 -1.539647733774854e-07 0)
(1.06010887213563e-07 -1.702460570116742e-07 0)
(1.010354350490734e-07 -1.826199804364442e-07 0)
(9.845447634694854e-08 -1.931509039916921e-07 0)
(9.75295370725052e-08 -2.024602789562157e-07 0)
(9.775741680677953e-08 -2.11037596016388e-07 0)
(9.888382682374076e-08 -2.191261437153925e-07 0)
(1.006811204539434e-07 -2.269497862657478e-07 0)
(1.030074693733969e-07 -2.346087395897522e-07 0)
(1.055596083823618e-07 -2.422387068669018e-07 0)
(6.883675916343866e-08 -1.567711793485568e-07 0)
(6.361606776641423e-08 -1.744156113791574e-07 0)
(6.057136657968926e-08 -1.876501600698628e-07 0)
(5.894223491746157e-08 -1.987911451923315e-07 0)
(5.831577210694413e-08 -2.084834709125574e-07 0)
(5.842699492065499e-08 -2.172746148436497e-07 0)
(5.913214447476782e-08 -2.255342680339287e-07 0)
(6.024634172617203e-08 -2.334955175164945e-07 0)
(6.164576685954309e-08 -2.412645870666148e-07 0)
(6.318670434375527e-08 -2.48927101097571e-07 0)
(2.299414490495727e-08 -1.581878528046953e-07 0)
(2.123358693575314e-08 -1.765518050477522e-07 0)
(2.015829993966341e-08 -1.902222118838854e-07 0)
(1.960770452755669e-08 -2.016415985512258e-07 0)
(1.943702578178521e-08 -2.115204839692909e-07 0)
(1.946611575821128e-08 -2.204480597347467e-07 0)
(1.966012723347652e-08 -2.287750652879654e-07 0)
(2.002988984939067e-08 -2.367723985846778e-07 0)
(2.051640849006075e-08 -2.445927302764961e-07 0)
(2.103098599999778e-08 -2.522808479333604e-07 0)
(6.257037539077439e-07 -4.589175263414148e-09 0)
(6.296417222347676e-07 -3.412570383831927e-09 0)
(6.337531011163958e-07 -2.76093895875061e-09 0)
(6.389451877153023e-07 -2.472189405212848e-09 0)
(6.454079771698126e-07 -2.41679073596975e-09 0)
(6.531288000782262e-07 -2.540666193957985e-09 0)
(6.621622219315942e-07 -2.780110734638232e-09 0)
(6.723098146902507e-07 -3.054385399414013e-09 0)
(6.836459410437409e-07 -3.430847967423792e-09 0)
(6.959867569306968e-07 -3.863407681603543e-09 0)
(6.214492473275015e-07 -1.381924530032581e-08 0)
(6.247540205052779e-07 -1.035889261523318e-08 0)
(6.284804070624898e-07 -8.415202690992107e-09 0)
(6.333746740777256e-07 -7.612615578694453e-09 0)
(6.396308692554347e-07 -7.523156435507241e-09 0)
(6.471689632917968e-07 -7.832141067814158e-09 0)
(6.561185426629717e-07 -8.531651569024529e-09 0)
(6.662035151984696e-07 -9.479948397146847e-09 0)
(6.77424827854795e-07 -1.060872800777249e-08 0)
(6.897221216619031e-07 -1.181033345727909e-08 0)
(6.129097032777801e-07 -2.308783745392789e-08 0)
(6.149873335773603e-07 -1.761186625105804e-08 0)
(6.179585225443473e-07 -1.455949544686192e-08 0)
(6.223448170472296e-07 -1.320450102304873e-08 0)
(6.282632388652857e-07 -1.307687119255632e-08 0)
(6.35590347932636e-07 -1.371180450926756e-08 0)
(6.443024178545458e-07 -1.491130265223745e-08 0)
(6.542477951453594e-07 -1.645947975817759e-08 0)
(6.652799038207731e-07 -1.82875578160596e-08 0)
(6.774777750313844e-07 -2.027606587261919e-08 0)
(6.002198889743351e-07 -3.253566295832405e-08 0)
(6.005636688584354e-07 -2.533156211919824e-08 0)
(6.024072667683795e-07 -2.144189530304819e-08 0)
(6.060901948847776e-07 -1.977243819489223e-08 0)
(6.114818245264531e-07 -1.965590048636754e-08 0)
(6.184764686061981e-07 -2.055089641690337e-08 0)
(6.269180456608644e-07 -2.218065196585672e-08 0)
(6.367022317292301e-07 -2.431999095543074e-08 0)
(6.475021943503332e-07 -2.685949182169476e-08 0)
(6.595982589251156e-07 -2.962515929722704e-08 0)
(5.834666799354534e-07 -4.216048299492919e-08 0)
(5.81732676707981e-07 -3.369142669322581e-08 0)
(5.821886159984653e-07 -2.921523983305278e-08 0)
(5.849531960789463e-07 -2.741411425431316e-08 0)
(5.897290461244109e-07 -2.741499347825422e-08 0)
(5.963064388849044e-07 -2.861878130358986e-08 0)
(6.043989473489798e-07 -3.071073706244706e-08 0)
(6.139325819831844e-07 -3.343197807351724e-08 0)
(6.244639046293055e-07 -3.663285799208845e-08 0)
(6.364780604597227e-07 -4.009278578614455e-08 0)
(5.62834356833108e-07 -5.200839939455105e-08 0)
(5.587095378972074e-07 -4.284131419820259e-08 0)
(5.576579334444437e-07 -3.809204119909393e-08 0)
(5.594278631648437e-07 -3.635490005522881e-08 0)
(5.635038948915512e-07 -3.662545985533974e-08 0)
(5.695917438981181e-07 -3.821487666285888e-08 0)
(5.773400419495754e-07 -4.077266381854594e-08 0)
(5.866041808566347e-07 -4.40011964678658e-08 0)
(5.968620254275611e-07 -4.779523958725974e-08 0)
(6.0879064509552e-07 -5.187619269097895e-08 0)
(5.386260371069372e-07 -6.206502122773728e-08 0)
(5.319277552547199e-07 -5.284799346882374e-08 0)
(5.292443522306075e-07 -4.821747956733782e-08 0)
(5.29972786477715e-07 -4.677938307381993e-08 0)
(5.333181667067197e-07 -4.743220257845042e-08 0)
(5.389061625150048e-07 -4.946232281772023e-08 0)
(5.462988685257694e-07 -5.247838886221178e-08 0)
(5.552839107579554e-07 -5.61450121842706e-08 0)
(5.652672221160888e-07 -6.046145301706617e-08 0)
(5.771350908001617e-07 -6.506054505813127e-08 0)
(5.110035282517338e-07 -7.224493223390783e-08 0)
(5.017676122291377e-07 -6.368696142442123e-08 0)
(4.974682091588197e-07 -5.960078265395935e-08 0)
(4.971367817805338e-07 -5.87115936376412e-08 0)
(4.997850297413612e-07 -5.988651931834385e-08 0)
(5.048748556858546e-07 -6.243941584336435e-08 0)
(5.118915873949553e-07 -6.594046622805529e-08 0)
(5.206085713815456e-07 -7.002961820346294e-08 0)
(5.303663994423659e-07 -7.48119188626299e-08 0)
(5.421333941914058e-07 -7.979999174301501e-08 0)
(4.802843669226723e-07 -8.250591062547708e-08 0)
(4.686796816779917e-07 -7.524573453699743e-08 0)
(4.628737356847515e-07 -7.215345608138241e-08 0)
(4.614942488403166e-07 -7.207096054436154e-08 0)
(4.63438040541412e-07 -7.393904448316571e-08 0)
(4.679469563530167e-07 -7.71042940738823e-08 0)
(4.745008842142498e-07 -8.113535407377039e-08 0)
(4.828414390971936e-07 -8.564225538136874e-08 0)
(4.923179444711472e-07 -9.078509834364135e-08 0)
(5.038147745212315e-07 -9.588323223121846e-08 0)
(4.467809559432499e-07 -9.273988660175977e-08 0)
(4.331421215251374e-07 -8.736234927056394e-08 0)
(4.259927703977369e-07 -8.563153858302961e-08 0)
(4.236406247217721e-07 -8.664323843694963e-08 0)
(4.248509974293639e-07 -8.941083920983608e-08 0)
(4.287985089362295e-07 -9.335082290422671e-08 0)
(4.34977161978902e-07 -9.812017306929399e-08 0)
(4.429713898111746e-07 -1.033473191067133e-07 0)
(4.524144827972874e-07 -1.091366043639218e-07 0)
(4.631122330498915e-07 -1.148219565507937e-07 0)
(7.092069070549629e-07 -4.22404739020955e-09 0)
(7.234888338939155e-07 -4.445287940789247e-09 0)
(7.385279960489751e-07 -4.628371992558866e-09 0)
(7.542504758098389e-07 -4.786395909190354e-09 0)
(7.70601155177689e-07 -4.921569158398666e-09 0)
(7.875705713688093e-07 -5.033909060248113e-09 0)
(8.05073284575152e-07 -5.11268978221395e-09 0)
(8.230226092722915e-07 -5.187859816280094e-09 0)
(8.414307091178325e-07 -5.280145581176581e-09 0)
(8.603002314401631e-07 -5.360706995719126e-09 0)
(8.795674901233848e-07 -5.411082664604502e-09 0)
(8.991852249333797e-07 -5.436232117804662e-09 0)
(9.191317203627015e-07 -5.447349507663525e-09 0)
(9.393910045467153e-07 -5.455724294271132e-09 0)
(9.599456853086181e-07 -5.461930981565426e-09 0)
(9.807766530651372e-07 -5.453397994515042e-09 0)
(1.001865260475809e-06 -5.417241858232695e-09 0)
(1.023201928467819e-06 -5.34675721276255e-09 0)
(1.044738680077855e-06 -5.24808821028062e-09 0)
(1.066483744619667e-06 -5.13108420900622e-09 0)
(7.031904883062103e-07 -1.2849180894496e-08 0)
(7.179274660140424e-07 -1.349730936155554e-08 0)
(7.333782774450107e-07 -1.4026205169365e-08 0)
(7.494961137316803e-07 -1.447110812537559e-08 0)
(7.662189314789653e-07 -1.482322220821955e-08 0)
(7.834912158931392e-07 -1.512872056034128e-08 0)
(8.012758192724e-07 -1.540766198222677e-08 0)
(8.195310789258742e-07 -1.567770719434072e-08 0)
(8.382381096010169e-07 -1.592398084328935e-08 0)
(8.573617348172123e-07 -1.60998468024277e-08 0)
(8.768551104780319e-07 -1.621746065184575e-08 0)
(8.967023132541208e-07 -1.630755615671081e-08 0)
(9.168864110448083e-07 -1.637483354894657e-08 0)
(9.373751925822673e-07 -1.641056036623091e-08 0)
(9.581373965497484e-07 -1.640265118970941e-08 0)
(9.791572689589434e-07 -1.634145833374649e-08 0)
(1.000425836552846e-06 -1.621603622963936e-08 0)
(1.021925123678736e-06 -1.601841377323828e-08 0)
(1.04362367900914e-06 -1.575731093025943e-08 0)
(1.065500553571055e-06 -1.543441282079709e-08 0)
(6.914122907487459e-07 -2.197197004610184e-08 0)
(7.070937374992071e-07 -2.295961078054418e-08 0)
(7.234048136063299e-07 -2.372885168632662e-08 0)
(7.40233407321296e-07 -2.439360985536734e-08 0)
(7.576228036756425e-07 -2.495376058072377e-08 0)
(7.755602380702426e-07 -2.546148853601006e-08 0)
(7.939794007042867e-07 -2.592053371119885e-08 0)
(8.127918693437588e-07 -2.633186751912761e-08 0)
(8.32000626444567e-07 -2.667846684187563e-08 0)
(8.515924111899618e-07 -2.693544020755012e-08 0)
(8.715438472023661e-07 -2.713988453178126e-08 0)
(8.918361723723224e-07 -2.731634150876589e-08 0)
(9.124320335946598e-07 -2.744095612234966e-08 0)
(9.332929885839942e-07 -2.748679186560847e-08 0)
(9.544066499715567e-07 -2.744685395919005e-08 0)
(9.757884152437626e-07 -2.73223829649699e-08 0)
(9.974117113129734e-07 -2.71030533282925e-08 0)
(1.019268907371626e-06 -2.678430261872961e-08 0)
(1.04131167762577e-06 -2.638050715843105e-08 0)
(1.063535481551174e-06 -2.587443382250331e-08 0)
(6.741899318527258e-07 -3.185019516449503e-08 0)
(6.911487583885872e-07 -3.300320904035057e-08 0)
(7.086745340571379e-07 -3.388079553637164e-08 0)
(7.26616819617828e-07 -3.468189566923547e-08 0)
(7.45052121655354e-07 -3.539872854106958e-08 0)
(7.639211438273884e-07 -3.606859556929353e-08 0)
(7.832016706539302e-07 -3.666319496707486e-08 0)
(8.028304549288435e-07 -3.718868060308175e-08 0)
(8.228479915604122e-07 -3.762832916705269e-08 0)
(8.432099503773728e-07 -3.79743582026688e-08 0)
(8.638714523799106e-07 -3.825956658057009e-08 0)
(8.848118577866882e-07 -3.848695619923426e-08 0)
(9.06008261302261e-07 -3.86226364315786e-08 0)
(9.274406058414999e-07 -3.865194337735033e-08 0)
(9.491067064641558e-07 -3.85874227021665e-08 0)
(9.710231219538481e-07 -3.841429645125388e-08 0)
(9.931509525614706e-07 -3.811958459496814e-08 0)
(1.015505101325717e-06 -3.769419334927292e-08 0)
(1.038000715045481e-06 -3.714761498509775e-08 0)
(1.060683555645364e-06 -3.648476731450051e-08 0)
(6.519670072102309e-07 -4.266603302373027e-08 0)
(6.706269884552253e-07 -4.379141618832219e-08 0)
(6.897453392314536e-07 -4.46666466817843e-08 0)
(7.090678939936475e-07 -4.553898340042846e-08 0)
(7.287987682446258e-07 -4.633387545602139e-08 0)
(7.488652071970619e-07 -4.70872603329601e-08 0)
(7.692920575283779e-07 -4.775544648204931e-08 0)
(7.900029813583613e-07 -4.836693753780128e-08 0)
(8.110178448915549e-07 -4.887837566790325e-08 0)
(8.323073192185575e-07 -4.928124814093909e-08 0)
(8.538560266355808e-07 -4.961168574976589e-08 0)
(8.756519262257757e-07 -4.986463674864084e-08 0)
(8.976687293295468e-07 -5.000109155065663e-08 0)
(9.198869672896556e-07 -5.001104126646277e-08 0)
(9.423147201657265e-07 -4.991247962164573e-08 0)
(9.649218166403715e-07 -4.968159144425387e-08 0)
(9.877349685972496e-07 -4.930861052868802e-08 0)
(1.010698173468556e-06 -4.878839265446239e-08 0)
(1.033837316329426e-06 -4.811639192089661e-08 0)
(1.05711889897445e-06 -4.732623363942038e-08 0)
(6.252991295933908e-07 -5.461682152595176e-08 0)
(6.458905758844064e-07 -5.548368645101647e-08 0)
(6.669130694261971e-07 -5.616787510885812e-08 0)
(6.879544369993243e-07 -5.69848905941924e-08 0)
(7.093190530793309e-07 -5.777048848984444e-08 0)
(7.308855506280456e-07 -5.855429025850396e-08 0)
(7.52651037287366e-07 -5.924697520805734e-08 0)
(7.746425963186118e-07 -5.987286075318081e-08 0)
(7.968590901949262e-07 -6.040672358588199e-08 0)
(8.19284810546083e-07 -6.084373901668359e-08 0)
(8.419213095433641e-07 -6.120877182949467e-08 0)
(8.647552433532537e-07 -6.147992513627622e-08 0)
(8.877513642222384e-07 -6.16104394142669e-08 0)
(9.10889809369663e-07 -6.159558948121331e-08 0)
(9.342051298408536e-07 -6.144445874666566e-08 0)
(9.576486420110246e-07 -6.114353924290179e-08 0)
(9.812910320379362e-07 -6.068783041284887e-08 0)
(1.005023617931127e-06 -6.008513619460715e-08 0)
(1.0289481672394e-06 -5.932070646944367e-08 0)
(1.052972422227878e-06 -5.841953710592578e-08 0)
(5.948914609641547e-07 -6.777027065372195e-08 0)
(6.177079755159919e-07 -6.813302199812244e-08 0)
(6.409098566338599e-07 -6.844501488274437e-08 0)
(6.639046163730877e-07 -6.906933700886208e-08 0)
(6.870498254797347e-07 -6.972411584402868e-08 0)
(7.102978570168375e-07 -7.042169391407509e-08 0)
(7.335951327215088e-07 -7.10820470847482e-08 0)
(7.570310820561444e-07 -7.168731763465213e-08 0)
(7.806247800235925e-07 -7.2226346478257e-08 0)
(8.043738089011716e-07 -7.268990040588829e-08 0)
(8.282659377271113e-07 -7.30745317939808e-08 0)
(8.522776902685e-07 -7.33396558456126e-08 0)
(8.763867915407742e-07 -7.343926319117117e-08 0)
(9.005960145707467e-07 -7.338142616457369e-08 0)
(9.249327872525321e-07 -7.317214523548274e-08 0)
(9.49373997706767e-07 -7.280997299654094e-08 0)
(9.739894466078755e-07 -7.229035341648654e-08 0)
(9.986666717363912e-07 -7.161612618407904e-08 0)
(1.023486724900718e-06 -7.076362297656863e-08 0)
(1.048360277868389e-06 -6.974587176815066e-08 0)
(5.612731330139951e-07 -8.223657426867769e-08 0)
(5.864884253137821e-07 -8.177886485188851e-08 0)
(6.120613780267286e-07 -8.151889304187711e-08 0)
(6.372362559358711e-07 -8.177482718923188e-08 0)
(6.624130417110812e-07 -8.217809138913768e-08 0)
(6.875120353991025e-07 -8.269965710949394e-08 0)
(7.125890231779506e-07 -8.325649162698687e-08 0)
(7.376765007857819e-07 -8.380149572948254e-08 0)
(7.628069950798668e-07 -8.431356373331186e-08 0)
(7.879986390216374e-07 -8.476752148993485e-08 0)
(8.132443992361156e-07 -8.513421639542427e-08 0)
(8.385262175690374e-07 -8.536532234217119e-08 0)
(8.638437134721563e-07 -8.542589451281763e-08 0)
(8.892428484242674e-07 -8.533072431560621e-08 0)
(9.147360106567532e-07 -8.508306800557646e-08 0)
(9.403123340830462e-07 -8.468221771168571e-08 0)
(9.660129935501078e-07 -8.411260207780659e-08 0)
(9.91744542031114e-07 -8.336777843620553e-08 0)
(1.017570731333197e-06 -8.24124115070168e-08 0)
(1.043399364323064e-06 -8.125534439739735e-08 0)
(5.248572636068829e-07 -9.797122635666453e-08 0)
(5.527878260670492e-07 -9.643255125719557e-08 0)
(5.810006132011855e-07 -9.543968633283371e-08 0)
(6.085756222915425e-07 -9.512887748029498e-08 0)
(6.359895114577138e-07 -9.513330187635781e-08 0)
(6.631175999518305e-07 -9.537257840183152e-08 0)
(6.90089253806643e-07 -9.573254558284887e-08 0)
(7.169347663795315e-07 -9.614811820630596e-08 0)
(7.437044057752583e-07 -9.658001722934902e-08 0)
(7.70422041934994e-07 -9.697840583094721e-08 0)
(7.970964399120739e-07 -9.729676114911426e-08 0)
(8.237385255406549e-07 -9.748723937264318e-08 0)
(8.503736246410836e-07 -9.75254688645062e-08 0)
(8.77064247816968e-07 -9.742008380385123e-08 0)
(9.038044292526832e-07 -9.71616468095971e-08 0)
(9.305986223592081e-07 -9.674291802317445e-08 0)
(9.574733983165815e-07 -9.613187228670708e-08 0)
(9.843325615629031e-07 -9.53105214360086e-08 0)
(1.011258604971771e-06 -9.42425279889789e-08 0)
(1.038155379497155e-06 -9.293180146173778e-08 0)
(4.865564509145051e-07 -1.150935396972477e-07 0)
(5.182712790911833e-07 -1.11518670325649e-07 0)
(5.496000338995746e-07 -1.095935067537111e-07 0)
(5.798843396430735e-07 -1.086160712171454e-07 0)
(6.095826129029493e-07 -1.081911006132217e-07 0)
(6.38801735888432e-07 -1.081081050539011e-07 0)
(6.676477498895049e-07 -1.08228417908506e-07 0)
(6.962195805487884e-07 -1.084743706143631e-07 0)
(7.24595152656162e-07 -1.087919265685708e-07 0)
(7.5281124646645e-07 -1.091122164510206e-07 0)
(7.808964039190282e-07 -1.093805937281113e-07 0)
(8.088837305323317e-07 -1.095472002299675e-07 0)
(8.368199591686144e-07 -1.095861108629952e-07 0)
(8.647703337963977e-07 -1.094946178659918e-07 0)
(8.927154027375267e-07 -1.092513098518108e-07 0)
(9.206848730336832e-07 -1.08839943056268e-07 0)
(9.486962066145082e-07 -1.082187523011333e-07 0)
(9.766749603874099e-07 -1.073407741838434e-07 0)
(1.004709156233148e-06 -1.061783961526591e-07 0)
(1.032728717075803e-06 -1.047066671209499e-07 0)
(4.534611596114533e-07 -1.359327935921155e-07 0)
(4.897391549181956e-07 -1.292798541321113e-07 0)
(5.241938194736497e-07 -1.258535837700672e-07 0)
(5.572261672427102e-07 -1.236820555266062e-07 0)
(5.890899190581074e-07 -1.224276284908687e-07 0)
(6.201396364878387e-07 -1.217293943351625e-07 0)
(6.50554182381627e-07 -1.213919473904379e-07 0)
(6.805155907528339e-07 -1.212960815591933e-07 0)
(7.101290693293811e-07 -1.213469576815041e-07 0)
(7.394608915346057e-07 -1.214517386491106e-07 0)
(7.685738232607016e-07 -1.21549622114206e-07 0)
(7.975192302802834e-07 -1.215892808393303e-07 0)
(8.263592878018893e-07 -1.215355974883425e-07 0)
(8.551587252457737e-07 -1.213716978896372e-07 0)
(8.838805216439722e-07 -1.210689594763477e-07 0)
(9.125867156922656e-07 -1.205935457276419e-07 0)
(9.412666848350599e-07 -1.199107652560756e-07 0)
(9.699165692056116e-07 -1.189430513791836e-07 0)
(9.98590782675865e-07 -1.176723164644133e-07 0)
(1.02724680777907e-06 -1.160154920699573e-07 0)
(4.368665821608301e-07 -1.553185436712906e-07 0)
(4.735894399572479e-07 -1.481211437513754e-07 0)
(5.085960146006755e-07 -1.434841872375416e-07 0)
(5.425653399354421e-07 -1.402445230629981e-07 0)
(5.754648888784987e-07 -1.380904703233237e-07 0)
(6.075141061336881e-07 -1.366653337220184e-07 0)
(6.388767474690412e-07 -1.357386397113201e-07 0)
(6.697041449950939e-07 -1.351582434787774e-07 0)
(7.00086975532094e-07 -1.347988514127811e-07 0)
(7.301055026628415e-07 -1.345567622967622e-07 0)
(7.598416638737265e-07 -1.343646042521037e-07 0)
(7.893526922368195e-07 -1.341624339414609e-07 0)
(8.187040331164971e-07 -1.339029754814032e-07 0)
(8.479508666890876e-07 -1.335557377584146e-07 0)
(8.770515563028058e-07 -1.3308860542728e-07 0)
(9.061034491779856e-07 -1.324509207732303e-07 0)
(9.350554682259188e-07 -1.316214067385674e-07 0)
(9.639672984235128e-07 -1.305069595691635e-07 0)
(9.92848562994785e-07 -1.290881260220144e-07 0)
(1.0216645964987e-06 -1.272221857892447e-07 0)
(4.250098965067386e-07 -1.725445523289152e-07 0)
(4.611351080340282e-07 -1.656331418908784e-07 0)
(4.962185903951826e-07 -1.606425854286413e-07 0)
(5.305281076845155e-07 -1.568490565407736e-07 0)
(5.639628309184757e-07 -1.540730697580498e-07 0)
(5.96617078999299e-07 -1.520497940455511e-07 0)
(6.286175747306795e-07 -1.505817970609067e-07 0)
(6.600528113517617e-07 -1.495183556515409e-07 0)
(6.90997319014606e-07 -1.487327884980488e-07 0)
(7.215362265504106e-07 -1.481228020873209e-07 0)
(7.517520493753397e-07 -1.476158796486571e-07 0)
(7.816957077575456e-07 -1.471435170293205e-07 0)
(8.11434277971894e-07 -1.466481735262235e-07 0)
(8.410153869562389e-07 -1.46089769125516e-07 0)
(8.703979940215478e-07 -1.454333900492423e-07 0)
(8.997005812803703e-07 -1.446169734888613e-07 0)
(9.288616993513728e-07 -1.436272239244859e-07 0)
(9.579651132222796e-07 -1.423685364524827e-07 0)
(9.869832869828504e-07 -1.408027953251909e-07 0)
(1.015917608251993e-06 -1.387546604348277e-07 0)
(4.153883522985832e-07 -1.891520951504044e-07 0)
(4.509090311855833e-07 -1.825711361826286e-07 0)
(4.857391379879723e-07 -1.774278672008579e-07 0)
(5.200701381974307e-07 -1.732735219874673e-07 0)
(5.536949132184108e-07 -1.700316666507049e-07 0)
(5.866815046981164e-07 -1.675173867836085e-07 0)
(6.190797141043755e-07 -1.655771334709735e-07 0)
(6.509300138515904e-07 -1.640711128469157e-07 0)
(6.822918259232815e-07 -1.6288174380347e-07 0)
(7.132423045824824e-07 -1.619147328149994e-07 0)
(7.438498639456558e-07 -1.61096841408618e-07 0)
(7.741515993681906e-07 -1.603533995855158e-07 0)
(8.042163246216373e-07 -1.596195814234774e-07 0)
(8.340854756635907e-07 -1.588493080757975e-07 0)
(8.637252621089544e-07 -1.580015741541562e-07 0)
(8.932540845503796e-07 -1.570114518767603e-07 0)
(9.226087993544254e-07 -1.55869887781131e-07 0)
(9.518892360990893e-07 -1.544768553127701e-07 0)
(9.81033114168383e-07 -1.527735355648352e-07 0)
(1.010103988199836e-06 -1.506019408486287e-07 0)
(4.0739540923088e-07 -2.049846065184634e-07 0)
(4.423587211311107e-07 -1.988082130879829e-07 0)
(4.768372032247539e-07 -1.937289475968756e-07 0)
(5.1100792452438e-07 -1.894146413796796e-07 0)
(5.446290338312265e-07 -1.858717936420398e-07 0)
(5.777512440249989e-07 -1.829924573862769e-07 0)
(6.103563590315294e-07 -1.806633668343606e-07 0)
(6.424634105017395e-07 -1.787709660772262e-07 0)
(6.741152139340877e-07 -1.772156845778888e-07 0)
(7.053729740370724e-07 -1.759153154128352e-07 0)
(7.362852313423137e-07 -1.747987373257918e-07 0)
(7.668722179586262e-07 -1.737885573344466e-07 0)
(7.972039119897588e-07 -1.728173935539154e-07 0)
(8.273123362340392e-07 -1.718383804587412e-07 0)
(8.571735355962188e-07 -1.708034884323813e-07 0)
(8.869055777457667e-07 -1.696487042051141e-07 0)
(9.164308898410975e-07 -1.683611227434538e-07 0)
(9.458607502369793e-07 -1.668370594139515e-07 0)
(9.751279876479361e-07 -1.650117024695011e-07 0)
(1.004340357761681e-06 -1.627886954065606e-07 0)
(4.005723755373251e-07 -2.202915175391955e-07 0)
(4.350441194987198e-07 -2.144962360665376e-07 0)
(4.691879272995276e-07 -2.095554575129563e-07 0)
(5.030999515650502e-07 -2.052003212689336e-07 0)
(5.366197474542027e-07 -2.014812636267508e-07 0)
(5.697418049697835e-07 -1.98343535731687e-07 0)
(6.024240320662652e-07 -1.957108504344657e-07 0)
(6.34674730775663e-07 -1.935021567647161e-07 0)
(6.665162344276017e-07 -1.916343698242466e-07 0)
(6.979909322522185e-07 -1.900392041860103e-07 0)
(7.291281794756981e-07 -1.886501647498218e-07 0)
(7.599329730048425e-07 -1.87390774144175e-07 0)
(7.904773173530875e-07 -1.861945282963127e-07 0)
(8.207798097137297e-07 -1.8501650288093e-07 0)
(8.50823335442881e-07 -1.838009063899336e-07 0)
(8.807209077563657e-07 -1.824943521315513e-07 0)
(9.103912564935823e-07 -1.810684360736568e-07 0)
(9.39944201752398e-07 -1.794237940655446e-07 0)
(9.69341317155539e-07 -1.775155920152352e-07 0)
(9.98673706332911e-07 -1.75291554044778e-07 0)
(3.947112708490849e-07 -2.351836658441817e-07 0)
(4.287535976177598e-07 -2.297376743600974e-07 0)
(4.625708424700833e-07 -2.249656162863985e-07 0)
(4.962066889749203e-07 -2.206442436516894e-07 0)
(5.295633665782007e-07 -2.168426426931126e-07 0)
(5.625957507514826e-07 -2.135323540888064e-07 0)
(5.952698250928643e-07 -2.106742947404849e-07 0)
(6.275791616054535e-07 -2.082164940972838e-07 0)
(6.595244088458399e-07 -2.060879694266507e-07 0)
(6.91132845403853e-07 -2.042371039620566e-07 0)
(7.224191839360498e-07 -2.026039891086445e-07 0)
(7.533762847053582e-07 -2.01115725550604e-07 0)
(7.840774910158756e-07 -1.997090563067957e-07 0)
(8.145248533023777e-07 -1.983458024338381e-07 0)
(8.447127783722322e-07 -1.969572813402221e-07 0)
(8.747363542464491e-07 -1.955057276916062e-07 0)
(9.045238982089567e-07 -1.939530606946023e-07 0)
(9.341859928791352e-07 -1.922120003205889e-07 0)
(9.637082654050412e-07 -1.902697220290539e-07 0)
(9.931262691022182e-07 -1.880420227697089e-07 0)
(3.896501999028399e-07 -2.497505513014252e-07 0)
(4.233396264958929e-07 -2.446097340688285e-07 0)
(4.568345509978442e-07 -2.400182533427265e-07 0)
(4.902065503522435e-07 -2.357758028742951e-07 0)
(5.233556261664915e-07 -2.319535012843856e-07 0)
(5.562474548534389e-07 -2.285358318816512e-07 0)
(5.888545277867562e-07 -2.255169704066765e-07 0)
(6.211526204937316e-07 -2.22866228661174e-07 0)
(6.531253319064857e-07 -2.205214403743986e-07 0)
(6.847925576550533e-07 -2.184510057090902e-07 0)
(7.161597942088098e-07 -2.166026138722022e-07 0)
(7.472119671434339e-07 -2.149079504898733e-07 0)
(7.780212971757681e-07 -2.133054013330875e-07 0)
(8.085701469969188e-07 -2.117686182366492e-07 0)
(8.388652332176522e-07 -2.102206924473728e-07 0)
(8.689861787710455e-07 -2.086345882308964e-07 0)
(8.988724762508871e-07 -2.069776830604616e-07 0)
(9.286401920795613e-07 -2.051760406450621e-07 0)
(9.582583645983394e-07 -2.032280288946721e-07 0)
(9.877502394320695e-07 -2.009802726401699e-07 0)
(3.852325174458344e-07 -2.640531315735941e-07 0)
(4.186104015001484e-07 -2.591811364382729e-07 0)
(4.518209924310685e-07 -2.547697830188984e-07 0)
(4.849378720354053e-07 -2.506265663310698e-07 0)
(5.178673048058061e-07 -2.468173626978408e-07 0)
(5.506008400973506e-07 -2.433374598667969e-07 0)
(5.831043597655367e-07 -2.402050789637642e-07 0)
(6.153416445964101e-07 -2.374055349044072e-07 0)
(6.472870585646883e-07 -2.348833847384932e-07 0)
(6.789594482784378e-07 -2.326275736882828e-07 0)
(7.103565619489226e-07 -2.305927618372119e-07 0)
(7.414587900661819e-07 -2.287167057793094e-07 0)
(7.723340662914241e-07 -2.269391042106731e-07 0)
(8.029498565019694e-07 -2.252434309465244e-07 0)
(8.333199919477685e-07 -2.235546855061604e-07 0)
(8.635179771655956e-07 -2.218595281437599e-07 0)
(8.934917547929547e-07 -2.201282304433626e-07 0)
(9.233515627031692e-07 -2.182979726513924e-07 0)
(9.530281115935007e-07 -2.163379950871434e-07 0)
(9.825998176643019e-07 -2.141064734997607e-07 0)
(3.813488819652656e-07 -2.781353062361676e-07 0)
(4.14435406348898e-07 -2.735129727924502e-07 0)
(4.474005792324916e-07 -2.692681668752679e-07 0)
(4.802724525677203e-07 -2.652247920984042e-07 0)
(5.129989442029401e-07 -2.614459061113599e-07 0)
(5.455737120300743e-07 -2.579340571566241e-07 0)
(5.779540316330318e-07 -2.547231815324589e-07 0)
(6.101014008934322e-07 -2.518122418637981e-07 0)
(6.419868209903206e-07 -2.491506708922881e-07 0)
(6.73630956940699e-07 -2.467425416626922e-07 0)
(7.050214185203484e-07 -2.445492450417946e-07 0)
(7.361378975634026e-07 -2.425145974027181e-07 0)
(7.670418942047515e-07 -2.405836733416073e-07 0)
(7.976951526831079e-07 -2.387479602814013e-07 0)
(8.281103956266228e-07 -2.369421420039822e-07 0)
(8.583734966190926e-07 -2.351583168330788e-07 0)
(8.884177985592122e-07 -2.333843610115902e-07 0)
(9.183296495981317e-07 -2.315389593780146e-07 0)