/*--------------------------------*- C++ -*----------------------------------*\
| =========                 |                                                 |
| \\      /  F ield         | foam-extend: Open Source CFD                    |
|  \\    /   O peration     | Version:     4.1                                |
|   \\  /    A nd           | Web:         http://www.foam-extend.org         |
|    \\/     M anipulation  |                                                 |
\*---------------------------------------------------------------------------*/
FoamFile
{
    version     2.0;
    format      ascii;
    class       vectorField;
    location    "1";
    object      solidsCellD_iteration4;
}
// * * * * * * * * * * * * * * * * * * * * * * * * * * * * * * * * * * * * * //


1000
(
(3.548580690550447e-07 -5.856786857715464e-08 0)
(3.463327483707409e-07 -5.984719998441129e-08 0)
(3.427777356185298e-07 -6.290930848997297e-08 0)
(3.428900671715627e-07 -6.717798011899955e-08 0)
(3.456540039059759e-07 -7.233100965278142e-08 0)
(3.504377012841351e-07 -7.810059598976891e-08 0)
(3.56731017917872e-07 -8.439968923758729e-08 0)
(3.64042877678832e-07 -9.124815746596596e-08 0)
(3.722238397259831e-07 -9.840603135698718e-08 0)
(3.791265023756959e-07 -1.064596579625223e-07 0)
(3.227074357133265e-07 -6.415789048373143e-08 0)
(3.134299686355221e-07 -6.731362451511656e-08 0)
(3.091057887508591e-07 -7.174127180663303e-08 0)
(3.085489838844991e-07 -7.701403199074362e-08 0)
(3.106167765371395e-07 -8.292635025781408e-08 0)
(3.144570930362615e-07 -8.93186743341506e-08 0)
(3.196364946819961e-07 -9.60967257808419e-08 0)
(3.25684314732843e-07 -1.032726522771932e-07 0)
(3.324406135871956e-07 -1.1053404732322e-07 0)
(3.385734273035799e-07 -1.186034828327995e-07 0)
(2.885735430495034e-07 -6.943157014503478e-08 0)
(2.789587437921787e-07 -7.462674008677165e-08 0)
(2.743145051798616e-07 -8.039565431275204e-08 0)
(2.731859963203374e-07 -8.662838773927829e-08 0)
(2.745972410798973e-07 -9.319723222773532e-08 0)
(2.776993715923653e-07 -1.000541856307477e-07 0)
(2.820287433386988e-07 -1.071165393795736e-07 0)
(2.872563112420062e-07 -1.143511097152768e-07 0)
(2.931615702028739e-07 -1.215159614175131e-07 0)
(2.988427883868362e-07 -1.292373867115658e-07 0)
(2.529753909513414e-07 -7.427767173985244e-08 0)
(2.434712517962347e-07 -8.154144875031618e-08 0)
(2.387612204491461e-07 -8.860866167896624e-08 0)
(2.372827805065032e-07 -9.574191614098232e-08 0)
(2.381174321392809e-07 -1.029177194388445e-07 0)
(2.406153329255007e-07 -1.101181014740605e-07 0)
(2.442647760331642e-07 -1.173520013882416e-07 0)
(2.488145227742919e-07 -1.245950416726735e-07 0)
(2.540441689246674e-07 -1.317225777648138e-07 0)
(2.59294671851996e-07 -1.391669080219312e-07 0)
(2.16136483974168e-07 -7.855670448424354e-08 0)
(2.071883187165111e-07 -8.782606787105656e-08 0)
(2.025889225387935e-07 -9.619072090118578e-08 0)
(2.009742502820296e-07 -1.041586008831034e-07 0)
(2.014846252925795e-07 -1.118410474496497e-07 0)
(2.034743605698913e-07 -1.193410688318768e-07 0)
(2.065297295202427e-07 -1.267354017516832e-07 0)
(2.10383506409324e-07 -1.3399535424728e-07 0)
(2.14942514321946e-07 -1.410799266233728e-07 0)
(2.196476814030409e-07 -1.483184128937916e-07 0)
(1.78272640465176e-07 -8.222574482553247e-08 0)
(1.702174229163484e-07 -9.333151088077113e-08 0)
(1.660283283886528e-07 -1.028538872888378e-07 0)
(1.644732857142748e-07 -1.115824273509544e-07 0)
(1.647735188055665e-07 -1.19751581884518e-07 0)
(1.66276172779599e-07 -1.275477069140266e-07 0)
(1.687645992668651e-07 -1.350601441985594e-07 0)
(1.719883642479766e-07 -1.423596384321336e-07 0)
(1.758467634680349e-07 -1.49437767876685e-07 0)
(1.798885758979322e-07 -1.565365998164784e-07 0)
(1.395431381516879e-07 -8.521387415824487e-08 0)
(1.328372318234753e-07 -9.791192448577924e-08 0)
(1.293029827046132e-07 -1.08444671238285e-07 0)
(1.279158320240737e-07 -1.178305203893452e-07 0)
(1.280288743021872e-07 -1.264089203788496e-07 0)
(1.29148648760485e-07 -1.344546905786602e-07 0)
(1.31105001401489e-07 -1.420885587712797e-07 0)
(1.336750311967684e-07 -1.494452103107536e-07 0)
(1.367589090296138e-07 -1.565530491024522e-07 0)
(1.400181320176924e-07 -1.635797787141772e-07 0)
(1.001394744267708e-07 -8.747934770020824e-08 0)
(9.510651404272771e-08 -1.014506165771786e-07 0)
(9.243284619906665e-08 -1.12798576526417e-07 0)
(9.138919202747199e-08 -1.226852942552301e-07 0)
(9.139004438678467e-08 -1.315979973410586e-07 0)
(9.215384319000465e-08 -1.398331827922361e-07 0)
(9.355944316104546e-08 -1.475889155199451e-07 0)
(9.543953741399871e-08 -1.549938885588005e-07 0)
(9.769288067708364e-08 -1.62114871113918e-07 0)
(1.000655613803012e-07 -1.690728225900192e-07 0)
(6.028204460555588e-08 -8.900682034286566e-08 0)
(5.719289452318957e-08 -1.038597216126338e-07 0)
(5.552769960426439e-08 -1.157589401767194e-07 0)
(5.481542954744893e-08 -1.260264319553068e-07 0)
(5.476067403124475e-08 -1.351750075198664e-07 0)
(5.524725093834942e-08 -1.435560538243978e-07 0)
(5.613818498856913e-08 -1.514015555158662e-07 0)
(5.726603631781306e-08 -1.588571570327254e-07 0)
(5.859549417900637e-08 -1.660375004097892e-07 0)
(6.002969715407172e-08 -1.729990237428494e-07 0)
(2.01543646264379e-08 -8.97817464581762e-08 0)
(1.906319912855173e-08 -1.050562983894774e-07 0)
(1.848699747852336e-08 -1.172735626203388e-07 0)
(1.828317184324471e-08 -1.277301051064597e-07 0)
(1.828365255554307e-08 -1.36971862947085e-07 0)
(1.841679326456136e-08 -1.454094208735957e-07 0)
(1.869751617360242e-08 -1.532888970338872e-07 0)
(1.908843584791478e-08 -1.607524300124048e-07 0)
(1.953685653713393e-08 -1.679311502822133e-07 0)
(2.000569413400725e-08 -1.748552099461968e-07 0)
(5.318530620947582e-07 -2.605115301024878e-09 0)
(5.347882999506819e-07 -2.075944513535581e-09 0)
(5.389443429762506e-07 -1.849364844849232e-09 0)
(5.444589660818045e-07 -1.82419722529027e-09 0)
(5.514158501557652e-07 -1.956522212759362e-09 0)
(5.596483260094347e-07 -2.180044289295327e-09 0)
(5.691125080036263e-07 -2.433310067152286e-09 0)
(5.7957962764306e-07 -2.759491077224786e-09 0)
(5.910611898534024e-07 -3.127566805104142e-09 0)
(6.034334436246911e-07 -3.486975760607556e-09 0)
(5.284740007111071e-07 -7.826718556891569e-09 0)
(5.309944205253649e-07 -6.269353567290143e-09 0)
(5.349337388526506e-07 -5.647931752796498e-09 0)
(5.40271145239841e-07 -5.615698177637829e-09 0)
(5.471051043156422e-07 -5.960789756647477e-09 0)
(5.552170478437345e-07 -6.613436357466369e-09 0)
(5.646234093259632e-07 -7.444610684516065e-09 0)
(5.750701672518364e-07 -8.407420077377347e-09 0)
(5.865110491308244e-07 -9.445223524476623e-09 0)
(5.988616173005667e-07 -1.053334395620454e-08 0)
(5.21580076768658e-07 -1.311120258777114e-08 0)
(5.233555235633185e-07 -1.064337818661307e-08 0)
(5.268631515237663e-07 -9.668992017962662e-09 0)
(5.31940616423493e-07 -9.679997875078738e-09 0)
(5.385710546872845e-07 -1.032165881138976e-08 0)
(5.465709295798098e-07 -1.140623795660841e-08 0)
(5.558687659004102e-07 -1.276121998318772e-08 0)
(5.661872201127398e-07 -1.433723838051184e-08 0)
(5.775159190785235e-07 -1.606734372783639e-08 0)
(5.898320105149499e-07 -1.789636957429599e-08 0)
(5.113237689896016e-07 -1.845732201722593e-08 0)
(5.12099531957847e-07 -1.528826479433763e-08 0)
(5.149172414192636e-07 -1.410812939866737e-08 0)
(5.196256926205139e-07 -1.421527344888679e-08 0)
(5.259625451748949e-07 -1.515821611231655e-08 0)
(5.336894671962407e-07 -1.668210074212253e-08 0)
(5.42803754483757e-07 -1.858465499461335e-08 0)
(5.530494659459238e-07 -2.079362905486357e-08 0)
(5.642609185077626e-07 -2.322470492773794e-08 0)
(5.765801575682595e-07 -2.575416544763723e-08 0)
(4.977314894090713e-07 -2.392058933045899e-08 0)
(4.973211146745875e-07 -2.032677829583967e-08 0)
(4.99315401425485e-07 -1.909425471311765e-08 0)
(5.034506762387329e-07 -1.938556392976264e-08 0)
(5.09438078849908e-07 -2.06616562147382e-08 0)
(5.169238397130287e-07 -2.264904111375636e-08 0)
(5.258116593156384e-07 -2.5115910803713e-08 0)
(5.359340423375017e-07 -2.792321936856772e-08 0)
(5.469871380552963e-07 -3.101155155630658e-08 0)
(5.593032805414058e-07 -3.419410560977916e-08 0)
(4.809855330545809e-07 -2.94984677226546e-08 0)
(4.791610813068477e-07 -2.580761504359998e-08 0)
(4.80216685006695e-07 -2.470575407482875e-08 0)
(4.837272644707669e-07 -2.531248170688955e-08 0)
(4.893267830816627e-07 -2.700069272361315e-08 0)
(4.965465976369769e-07 -2.946670532788312e-08 0)
(5.052152204301627e-07 -3.246140371127366e-08 0)
(5.151854485728601e-07 -3.581641129145684e-08 0)
(5.261028418521621e-07 -3.95195596462803e-08 0)
(5.385165103839928e-07 -4.331165504977182e-08 0)
(4.611820660778933e-07 -3.518306165775919e-08 0)
(4.578696687083394e-07 -3.175696880096961e-08 0)
(4.579566651555219e-07 -3.101907681000105e-08 0)
(4.608091667319037e-07 -3.208927032740563e-08 0)
(4.65949194557375e-07 -3.427059367037403e-08 0)
(4.728745462737266e-07 -3.722896275287223e-08 0)
(4.813129801829551e-07 -4.071740520541557e-08 0)
(4.910944278478025e-07 -4.45818175475074e-08 0)
(5.018815460440553e-07 -4.886459792142596e-08 0)
(5.144805509976491e-07 -5.320893665215208e-08 0)
(4.384781054911877e-07 -4.098233522613527e-08 0)
(4.33654664712374e-07 -3.820941750306734e-08 0)
(4.327352106662449e-07 -3.807885214479059e-08 0)
(4.349074904943159e-07 -3.973406657544126e-08 0)
(4.3953825032808e-07 -4.24985604148016e-08 0)
(4.461556976300586e-07 -4.59915434765017e-08 0)
(4.543806555937874e-07 -4.997942710592597e-08 0)
(4.640417518037478e-07 -5.432899795678659e-08 0)
(4.74776516836366e-07 -5.913600393786408e-08 0)
(4.875919050497566e-07 -6.393458011657701e-08 0)
(4.130577339903243e-07 -4.684958690915015e-08 0)
(4.067829506084587e-07 -4.512611356844107e-08 0)
(4.049688210668455e-07 -4.583684320360815e-08 0)
(4.064662898255735e-07 -4.822962901764779e-08 0)
(4.105807231200782e-07 -5.167841331728628e-08 0)
(4.167865302997362e-07 -5.579372864618554e-08 0)
(4.246942470136042e-07 -6.033878166978472e-08 0)
(4.341206905162079e-07 -6.516524647512285e-08 0)
(4.446582402244028e-07 -7.040991573797182e-08 0)
(4.575236290469641e-07 -7.549183541257709e-08 0)
(3.851452149073685e-07 -5.270706278148265e-08 0)
(3.775572095984642e-07 -5.236500701910861e-08 0)
(3.748594794080844e-07 -5.416588993348273e-08 0)
(3.757054486793477e-07 -5.746346998550303e-08 0)
(3.792573027044363e-07 -6.171698816989779e-08 0)
(3.849164893944675e-07 -6.659435319263557e-08 0)
(3.92386116516672e-07 -7.189306552048514e-08 0)
(4.01507559749306e-07 -7.748012000368324e-08 0)
(4.119707975341627e-07 -8.348348232604954e-08 0)
(4.243200499429317e-07 -8.927675224967601e-08 0)
(6.164362205787459e-07 -3.810179827386513e-09 0)
(6.304575699666198e-07 -4.063700542543309e-09 0)
(6.452230649831947e-07 -4.269839704273583e-09 0)
(6.606412471971577e-07 -4.445549405940549e-09 0)
(6.766207844059344e-07 -4.595492370937542e-09 0)
(6.931612110110059e-07 -4.725300999254949e-09 0)
(7.102795585602166e-07 -4.854628224102959e-09 0)
(7.278855876524829e-07 -4.993029296633601e-09 0)
(7.458864004653217e-07 -5.122327464142958e-09 0)
(7.642904272271647e-07 -5.227773251958195e-09 0)
(7.830987681060235e-07 -5.310991849616823e-09 0)
(8.02265858267724e-07 -5.382187668968263e-09 0)
(8.217597379889056e-07 -5.451921654285679e-09 0)
(8.415753421760151e-07 -5.521741881626585e-09 0)
(8.617007829832323e-07 -5.583560206404325e-09 0)
(8.821093007965503e-07 -5.631367071488258e-09 0)
(9.02784317086038e-07 -5.665863910651532e-09 0)
(9.237128374668142e-07 -5.686506595921089e-09 0)
(9.44841454745021e-07 -5.697568550861243e-09 0)
(9.662226793313523e-07 -5.706400886247003e-09 0)
(6.120226721618236e-07 -1.15326438291816e-08 0)
(6.263598177251344e-07 -1.228792526071447e-08 0)
(6.414041385853971e-07 -1.288628731682728e-08 0)
(6.570801100416133e-07 -1.339684509542664e-08 0)
(6.733578688157833e-07 -1.384921127035865e-08 0)
(6.901846762571512e-07 -1.425978718834681e-08 0)
(7.07528866841446e-07 -1.464653019370679e-08 0)
(7.253411651847846e-07 -1.501303377967478e-08 0)
(7.43561434326661e-07 -1.53400898544973e-08 0)
(7.62175957319376e-07 -1.563017394944142e-08 0)
(7.811598429987842e-07 -1.589419887758043e-08 0)
(8.004938191848307e-07 -1.613711151073496e-08 0)
(8.201752800925774e-07 -1.636094516473918e-08 0)
(8.40183919183032e-07 -1.6560753615768e-08 0)
(8.604770672756571e-07 -1.672656348780774e-08 0)
(8.810262810499995e-07 -1.685864346838054e-08 0)
(9.018258335861337e-07 -1.696069553529675e-08 0)
(9.228653045913981e-07 -1.703173401497024e-08 0)
(9.441463299347901e-07 -1.708096907863225e-08 0)
(9.657204411857093e-07 -1.711594225327218e-08 0)
(6.032601774543043e-07 -1.952285120944088e-08 0)
(6.182055525468946e-07 -2.06964775677077e-08 0)
(6.338943559851515e-07 -2.162625054769184e-08 0)
(6.501307075047247e-07 -2.244408211907602e-08 0)
(6.668924214633656e-07 -2.317999276708291e-08 0)
(6.841967399909298e-07 -2.385064019975467e-08 0)
(7.020543057099367e-07 -2.447851273651086e-08 0)
(7.203752674712867e-07 -2.506634610364958e-08 0)
(7.390461763628248e-07 -2.559470746782871e-08 0)
(7.580746301050636e-07 -2.607770883438338e-08 0)
(7.774741021730833e-07 -2.652557395692917e-08 0)
(7.972325660755509e-07 -2.693397812924638e-08 0)
(8.173208924596367e-07 -2.729823148511229e-08 0)
(8.37692527629104e-07 -2.761266135290417e-08 0)
(8.583199973258521e-07 -2.78721435078661e-08 0)
(8.792120875480113e-07 -2.807928276094031e-08 0)
(9.003220116086588e-07 -2.823665795984464e-08 0)
(9.216574457283527e-07 -2.835531400004964e-08 0)
(9.432023946058208e-07 -2.845491946529961e-08 0)
(9.65009020228655e-07 -2.853744333365573e-08 0)
(5.904548900019869e-07 -2.790300338695659e-08 0)
(6.062672211931874e-07 -2.937613239903755e-08 0)
(6.228140989062041e-07 -3.05589953600192e-08 0)
(6.398599398391409e-07 -3.164639282859399e-08 0)
(6.574394426714138e-07 -3.264614764403192e-08 0)
(6.755220390393404e-07 -3.356098635087206e-08 0)
(6.940727741335431e-07 -3.441380995314562e-08 0)
(7.130309706939668e-07 -3.520286655318738e-08 0)
(7.323526780839493e-07 -3.591946728911003e-08 0)
(7.520404719630492e-07 -3.65888896925496e-08 0)
(7.720817169753573e-07 -3.721303529687402e-08 0)
(7.924426558688211e-07 -3.777241921080752e-08 0)
(8.130823472278449e-07 -3.825708644210471e-08 0)
(8.339636459605454e-07 -3.866987316734219e-08 0)
(8.550842433270543e-07 -3.901768454871333e-08 0)
(8.764670199967489e-07 -3.929318996837434e-08 0)
(8.980504840059117e-07 -3.950031055640806e-08 0)
(9.198617790785297e-07 -3.966247483715516e-08 0)
(9.418658292968973e-07 -3.980756672197115e-08 0)
(9.640401848865539e-07 -3.995290213667808e-08 0)
(5.737466097452531e-07 -3.677092973520805e-08 0)
(5.907149797440253e-07 -3.842877283870068e-08 0)
(6.084750238254369e-07 -3.977953129394198e-08 0)
(6.26625462467916e-07 -4.107450708413488e-08 0)
(6.452381828430299e-07 -4.228054324957534e-08 0)
(6.642973317740406e-07 -4.339278490510338e-08 0)
(6.838124666066213e-07 -4.444841867501031e-08 0)
(7.036706128577271e-07 -4.54317786459334e-08 0)
(7.238776764481562e-07 -4.634106171535992e-08 0)
(7.44417452486445e-07 -4.718995917817372e-08 0)
(7.652483614558389e-07 -4.796576445665398e-08 0)
(7.86339905737177e-07 -4.86474783893533e-08 0)
(8.07672110630791e-07 -4.923248158929635e-08 0)
(8.292416048268726e-07 -4.973124374039715e-08 0)
(8.510521258841665e-07 -5.01525503074522e-08 0)
(8.730446455724661e-07 -5.048508633216852e-08 0)
(8.952573388806581e-07 -5.074249931279901e-08 0)
(9.175987406106248e-07 -5.095486090249906e-08 0)
(9.40172564030863e-07 -5.115897272004152e-08 0)
(9.628578090149932e-07 -5.138008011903089e-08 0)
(5.537156469357441e-07 -4.62169009835684e-08 0)
(5.720502826305799e-07 -4.791839983743625e-08 0)
(5.912185549100514e-07 -4.931598968617955e-08 0)
(6.106661041792386e-07 -5.073292322187566e-08 0)
(6.305754582859787e-07 -5.209297491160069e-08 0)
(6.508650195924216e-07 -5.338527861631491e-08 0)
(6.715848096478635e-07 -5.463420423721585e-08 0)
(6.925701680963099e-07 -5.579337754976675e-08 0)
(7.138053084418982e-07 -5.686641079691e-08 0)
(7.353109774587745e-07 -5.786371190816546e-08 0)
(7.570799038389327e-07 -5.876611117155965e-08 0)
(7.790853854577546e-07 -5.955207325054731e-08 0)
(8.012884912279866e-07 -6.02253053169562e-08 0)
(8.236831577762389e-07 -6.080345140141875e-08 0)
(8.462930912055049e-07 -6.128543462773536e-08 0)
(8.690146503905405e-07 -6.166472787668563e-08 0)
(8.919483412722323e-07 -6.197147597108551e-08 0)
(9.149670662290251e-07 -6.22404295850401e-08 0)
(9.382142533397915e-07 -6.25146636784522e-08 0)
(9.615361484472112e-07 -6.280880013577747e-08 0)
(5.306708101409086e-07 -5.631981788904897e-08 0)
(5.506603554491091e-07 -5.789369534203244e-08 0)
(5.715696258156845e-07 -5.921420990139624e-08 0)
(5.926160561169152e-07 -6.067369056569042e-08 0)
(6.140521259803608e-07 -6.212587798199048e-08 0)
(6.357809266091271e-07 -6.355600254777859e-08 0)
(6.577637751444891e-07 -6.494149039817873e-08 0)
(6.799772093875241e-07 -6.624258772846969e-08 0)
(7.0240199015127e-07 -6.745486754236118e-08 0)
(7.250435694298565e-07 -6.857650324825166e-08 0)
(7.478927540608878e-07 -6.958732435328071e-08 0)
(7.709189949067998e-07 -7.046668320478765e-08 0)
(7.940930998564978e-07 -7.121877207124406e-08 0)
(8.174157830191445e-07 -7.186445817535981e-08 0)
(8.408775825702836e-07 -7.239907612542016e-08 0)
(8.644389786130284e-07 -7.282748089252706e-08 0)
(8.88205761388702e-07 -7.319111406918578e-08 0)
(9.120400138610456e-07 -7.351772449950426e-08 0)
(9.360709453632266e-07 -7.384109249179998e-08 0)
(9.601252435443848e-07 -7.417378669942693e-08 0)
(5.050290127509177e-07 -6.71229626188958e-08 0)
(5.269774367886546e-07 -6.836700303578675e-08 0)
(5.498864631794127e-07 -6.948308398202236e-08 0)
(5.728013604085606e-07 -7.088934621182317e-08 0)
(5.959381665581415e-07 -7.235113757829828e-08 0)
(6.192976778820718e-07 -7.384716647370245e-08 0)
(6.427636344818634e-07 -7.531116368652903e-08 0)
(6.663578187364333e-07 -7.671638041951796e-08 0)
(6.90093064362476e-07 -7.80377755895306e-08 0)
(7.139825538516534e-07 -7.92568827995473e-08 0)
(7.380081670342051e-07 -8.035339828847146e-08 0)
(7.621153123114698e-07 -8.131023919615491e-08 0)
(7.86287293661111e-07 -8.213594182499324e-08 0)
(8.105816588086475e-07 -8.285061007505615e-08 0)
(8.349719743031749e-07 -8.344792499299723e-08 0)
(8.594737358354889e-07 -8.394009811899536e-08 0)
(8.841634199271491e-07 -8.436132016685856e-08 0)
(9.08876950834531e-07 -8.472772352491989e-08 0)
(9.337712822820803e-07 -8.505984476601144e-08 0)
(9.586601497274863e-07 -8.537820843284008e-08 0)
(4.76889928522127e-07 -7.871614696925769e-08 0)
(5.013680813246251e-07 -7.937883089072198e-08 0)
(5.266718777592681e-07 -8.014766999807563e-08 0)
(5.517515862021517e-07 -8.136402316865444e-08 0)
(5.768845367057499e-07 -8.275502094607599e-08 0)
(6.020073331555918e-07 -8.422528665189342e-08 0)
(6.271064634690975e-07 -8.569827239182364e-08 0)
(6.521995416170958e-07 -8.714287663449467e-08 0)
(6.773122428093332e-07 -8.85159102083732e-08 0)
(7.024668148488054e-07 -8.9790329458465e-08 0)
(7.276579376620142e-07 -9.094654731474377e-08 0)
(7.528540398396702e-07 -9.196969442086511e-08 0)
(7.780714106648119e-07 -9.287242284941992e-08 0)
(8.033823371324805e-07 -9.366845744512326e-08 0)
(8.287392260707023e-07 -9.434352959642954e-08 0)
(8.542083462630503e-07 -9.491263249229633e-08 0)
(8.798509262032303e-07 -9.539158781333996e-08 0)
(9.055005324374724e-07 -9.577924655557195e-08 0)
(9.312963606911143e-07 -9.608409016786278e-08 0)
(9.570926589081069e-07 -9.634254152468661e-08 0)
(4.469043248105919e-07 -9.164056177519909e-08 0)
(4.752576364839687e-07 -9.100330643505277e-08 0)
(5.03625972607086e-07 -9.125544180215119e-08 0)
(5.312492698067143e-07 -9.213540244416506e-08 0)
(5.585047925461564e-07 -9.329500244609113e-08 0)
(5.854293030929572e-07 -9.460473025694315e-08 0)
(6.121083172875849e-07 -9.598585065096158e-08 0)
(6.386090400889508e-07 -9.738198886124333e-08 0)
(6.650042932945588e-07 -9.873712141713292e-08 0)
(6.913445187616219e-07 -1.00021454384402e-07 0)
(7.176329592379928e-07 -1.012139696404626e-07 0)
(7.438499210924991e-07 -1.022952985805075e-07 0)
(7.700470452735069e-07 -1.032738462215744e-07 0)
(7.963017664117238e-07 -1.041550146921402e-07 0)
(8.225641244743456e-07 -1.049183179099062e-07 0)
(8.489453122843945e-07 -1.055760742781212e-07 0)
(8.754436617634411e-07 -1.061199293977784e-07 0)
(9.019768105823189e-07 -1.065336189046399e-07 0)
(9.286358980494057e-07 -1.068141439524307e-07 0)
(9.553544606795991e-07 -1.070034086266694e-07 0)
(4.18564735956399e-07 -1.093242708513785e-07 0)
(4.527335773686803e-07 -1.054721584405386e-07 0)
(4.84608839562416e-07 -1.043762859534865e-07 0)
(5.149339646540508e-07 -1.043059941719495e-07 0)
(5.441709268130153e-07 -1.04822847393654e-07 0)
(5.726945441490829e-07 -1.056908940474337e-07 0)
(6.007012649418497e-07 -1.067608963611867e-07 0)
(6.283455254366353e-07 -1.07928136591057e-07 0)
(6.557510566024071e-07 -1.09115051651964e-07 0)
(6.830000365391124e-07 -1.1027963917082e-07 0)
(7.101086203451237e-07 -1.113919982019637e-07 0)
(7.370712656961619e-07 -1.124271938946135e-07 0)
(7.639783066452453e-07 -1.133868622367315e-07 0)
(7.908999655755713e-07 -1.142662933062023e-07 0)
(8.177683762236375e-07 -1.150387439664302e-07 0)
(8.447478804235026e-07 -1.157070614033937e-07 0)
(8.717581517311207e-07 -1.16243501088822e-07 0)
(8.988182257131608e-07 -1.166335414726783e-07 0)
(9.259627184712367e-07 -1.1687020219478e-07 0)
(9.53199652416774e-07 -1.169719397283712e-07 0)
(4.052080549912737e-07 -1.261442995516899e-07 0)
(4.39569135780762e-07 -1.216334909058004e-07 0)
(4.721206431522612e-07 -1.192806670370601e-07 0)
(5.035102650326487e-07 -1.181587381386033e-07 0)
(5.338276572062243e-07 -1.178648406193491e-07 0)
(5.633656188332101e-07 -1.181134614690492e-07 0)
(5.922956777226635e-07 -1.186957148800324e-07 0)
(6.207769390579897e-07 -1.194743467126924e-07 0)
(6.489309799317754e-07 -1.203533087989958e-07 0)
(6.768454244472509e-07 -1.212734600835438e-07 0)
(7.045443304369557e-07 -1.221885691947194e-07 0)
(7.320400782006793e-07 -1.230650269827483e-07 0)
(7.594470630673665e-07 -1.238973765513315e-07 0)
(7.868120607743312e-07 -1.246685981058742e-07 0)
(8.140590740316222e-07 -1.25347602668755e-07 0)
(8.413855885810316e-07 -1.259290232619286e-07 0)
(8.686595785669856e-07 -1.263749179366211e-07 0)
(8.959738249002306e-07 -1.266810946225576e-07 0)
(9.233063089175917e-07 -1.268408835916986e-07 0)
(9.506956885028111e-07 -1.268099110431528e-07 0)
(3.966139651838876e-07 -1.407496869135748e-07 0)
(4.302158292830559e-07 -1.366513282711075e-07 0)
(4.627295511349929e-07 -1.339415035200033e-07 0)
(4.944208514656942e-07 -1.322603680629684e-07 0)
(5.252790223339158e-07 -1.313825790555179e-07 0)
(5.554222407815986e-07 -1.310913872570163e-07 0)
(5.849895668360395e-07 -1.312035071697195e-07 0)
(6.140912942622693e-07 -1.315866084635585e-07 0)
(6.428215820101537e-07 -1.321365164452886e-07 0)
(6.712620572389505e-07 -1.32781911334151e-07 0)
(6.994335110145188e-07 -1.334645055631579e-07 0)
(7.273576944798056e-07 -1.34144135651724e-07 0)
(7.551664918759922e-07 -1.348095310853068e-07 0)
(7.828822479987524e-07 -1.35433029262881e-07 0)
(8.104315862918664e-07 -1.359822408757802e-07 0)
(8.380199680875826e-07 -1.364471727705014e-07 0)
(8.654963136112826e-07 -1.367890986584466e-07 0)
(8.929980023174346e-07 -1.370085839277131e-07 0)
(9.204535752451372e-07 -1.37081563248432e-07 0)
(9.479361716765049e-07 -1.368963484845893e-07 0)
(3.901080470792175e-07 -1.544584311536066e-07 0)
(4.229971894407714e-07 -1.507977779490981e-07 0)
(4.552064349233301e-07 -1.480610970132777e-07 0)
(4.868744969830711e-07 -1.461126435146901e-07 0)
(5.179309869908905e-07 -1.448561080793441e-07 0)
(5.484059073798775e-07 -1.441577152292202e-07 0)
(5.78386127080001e-07 -1.438849250681996e-07 0)
(6.079177217296101e-07 -1.439205170566692e-07 0)
(6.370705542528971e-07 -1.441627193721048e-07 0)
(6.65919968751812e-07 -1.445381893752025e-07 0)
(6.944741363140143e-07 -1.449834266080721e-07 0)
(7.227542289957626e-07 -1.454564427855165e-07 0)
(7.509028504008509e-07 -1.459436803596763e-07 0)
(7.789162197617244e-07 -1.464087313011963e-07 0)
(8.067349169503206e-07 -1.468192167714931e-07 0)
(8.345579884262425e-07 -1.471634896471888e-07 0)
(8.622184084250247e-07 -1.474055678190787e-07 0)
(8.898821983255605e-07 -1.475393201907148e-07 0)
(9.174441889427739e-07 -1.475026207038585e-07 0)
(9.450168008664142e-07 -1.471715248028579e-07 0)
(3.84917608899822e-07 -1.675041102439081e-07 0)
(4.172412967511919e-07 -1.642792861873549e-07 0)
(4.490771129131663e-07 -1.616898097150363e-07 0)
(4.806009707449243e-07 -1.596611190554099e-07 0)
(5.116555803213785e-07 -1.581859416329071e-07 0)
(5.422780647615226e-07 -1.572058725515067e-07 0)
(5.724877436999335e-07 -1.566359805979805e-07 0)
(6.022818763633817e-07 -1.563784427494211e-07 0)
(6.317185000752016e-07 -1.563429142448673e-07 0)
(6.608684976153699e-07 -1.564630924359812e-07 0)
(6.897216812634425e-07 -1.566764510522538e-07 0)
(7.182922850434562e-07 -1.569446475784886e-07 0)
(7.467278610895552e-07 -1.572553954727322e-07 0)
(7.749944392572011e-07 -1.575647014718462e-07 0)
(8.030493241205353e-07 -1.578403597594642e-07 0)
(8.310783375814779e-07 -1.580677101958913e-07 0)
(8.589083389617172e-07 -1.582110488527449e-07 0)
(8.867101867472571e-07 -1.582460969145487e-07 0)
(9.143711280746063e-07 -1.580791575464291e-07 0)
(9.420364774209075e-07 -1.576575303669365e-07 0)
(3.805646989961336e-07 -1.801251322082672e-07 0)
(4.124417985419235e-07 -1.772839300042384e-07 0)
(4.439655010575869e-07 -1.748825371077574e-07 0)
(4.752795498623788e-07 -1.728765312327783e-07 0)
(5.062464314751618e-07 -1.712973397443581e-07 0)
(5.36906563252093e-07 -1.70139619469828e-07 0)
(5.672199407768043e-07 -1.693529587376336e-07 0)
(5.97157097829962e-07 -1.688606286264046e-07 0)
(6.267741305915207e-07 -1.685886025651556e-07 0)
(6.561383714306632e-07 -1.684833810918661e-07 0)
(6.852197200059876e-07 -1.684867156808454e-07 0)
(7.140244443402404e-07 -1.685681376554495e-07 0)
(7.427004768420105e-07 -1.687182725877374e-07 0)
(7.711820192247107e-07 -1.68885748890457e-07 0)
(7.994484377209581e-07 -1.690387486024875e-07 0)
(8.276455685276035e-07 -1.691550259331136e-07 0)
(8.556220984821639e-07 -1.691950079358923e-07 0)
(8.83540704830376e-07 -1.69117039704844e-07 0)
(9.113018883837822e-07 -1.688387258640008e-07 0)
(9.390557350915015e-07 -1.683977030932303e-07 0)
(3.768283455072512e-07 -1.924559309958339e-07 0)
(4.083406012357179e-07 -1.899275839203098e-07 0)
(4.396259930026767e-07 -1.877148047298336e-07 0)
(4.707116928174886e-07 -1.857895543034267e-07 0)
(5.015641684653912e-07 -1.841900520678359e-07 0)
(5.321932088404429e-07 -1.829361193328836e-07 0)
(5.625302074250401e-07 -1.820018324507862e-07 0)
(5.925338011606882e-07 -1.813319331643045e-07 0)
(6.222600948786614e-07 -1.808697962282205e-07 0)
(6.517718932710542e-07 -1.805775172204242e-07 0)
(6.810210440884127e-07 -1.804016329842371e-07 0)
(7.100088312474206e-07 -1.803214326816289e-07 0)
(7.388771770736103e-07 -1.803290551633843e-07 0)
(7.675250976402267e-07 -1.803663772715459e-07 0)
(7.959683564456888e-07 -1.804022119660284e-07 0)
(8.243002946735809e-07 -1.804052403128006e-07 0)
(8.523959833507414e-07 -1.803333359087335e-07 0)
(8.804186036874325e-07 -1.801463267276142e-07 0)
(9.08278340850069e-07 -1.798115493032486e-07 0)
(9.361052560366108e-07 -1.793622947007852e-07 0)
(3.736188954482133e-07 -2.045650782346216e-07 0)
(4.048538240276194e-07 -2.022893976922515e-07 0)
(4.359235157503733e-07 -2.002658464567733e-07 0)
(4.668079839307744e-07 -1.984542526130029e-07 0)
(4.975312692746593e-07 -1.96889793363403e-07 0)
(5.280823676504362e-07 -1.955971681123489e-07 0)
(5.583913163891467e-07 -1.945690888692537e-07 0)
(5.884102410202134e-07 -1.937698285773843e-07 0)
(6.181931914179642e-07 -1.931590415201672e-07 0)
(6.477970541796198e-07 -1.927157177706953e-07 0)
(6.771581547701512e-07 -1.923902893930574e-07 0)
(7.062778264529039e-07 -1.921714380591037e-07 0)
(7.352893015212655e-07 -1.920488125727774e-07 0)
(7.640578666630584e-07 -1.919597198363048e-07 0)
(7.926294086063404e-07 -1.918749919335272e-07 0)
(8.210655668944997e-07 -1.917589094294524e-07 0)
(8.49259601779764e-07 -1.915767386191768e-07 0)
(8.773798499951285e-07 -1.913104383254972e-07 0)
(9.053221182719435e-07 -1.909598310150338e-07 0)
(9.332059927897607e-07 -1.904500391479158e-07 0)
(3.708435142281181e-07 -2.16504159437385e-07 0)
(4.018782927724468e-07 -2.144442349931235e-07 0)
(4.32754664239354e-07 -2.126030087731416e-07 0)
(4.634756706160335e-07 -2.109143974272603e-07 0)
(4.940596251377334e-07 -2.094082857491155e-07 0)
(5.245097318653094e-07 -2.081072506047525e-07 0)
(5.547632423523971e-07 -2.07018853136578e-07 0)
(5.847661648529785e-07 -2.061241899534854e-07 0)
(6.145697155016184e-07 -2.053980533260635e-07 0)
(6.442241198561888e-07 -2.048355647576013e-07 0)
(6.736513139753041e-07 -2.043892279355404e-07 0)
(7.028535972580707e-07 -2.040541580634326e-07 0)
(7.319524908512088e-07 -2.038132932956551e-07 0)
(7.607984790433921e-07 -2.03602867578851e-07 0)
(7.894534414678255e-07 -2.033997215911926e-07 0)
(8.179685689862357e-07 -2.031745388548014e-07 0)
(8.462471869192878e-07 -2.029068845722869e-07 0)
(8.744518543081702e-07 -2.025988524657846e-07 0)
(9.024522910640949e-07 -2.022168119399604e-07 0)
(9.303813002236633e-07 -2.016334776066951e-07 0)
(3.684293696742067e-07 -2.283222803437817e-07 0)
(3.993025745096397e-07 -2.264591604842976e-07 0)
(4.300273236932357e-07 -2.24775013048515e-07 0)
(4.606043821201331e-07 -2.231940516918782e-07 0)
(4.910527723610038e-07 -2.21742997311939e-07 0)
(5.214029444083704e-07 -2.204442421358441e-07 0)
(5.51594654841999e-07 -2.19317266450631e-07 0)
(5.815669601838327e-07 -2.183563755401761e-07 0)
(6.113695001949616e-07 -2.175500152768415e-07 0)
(6.410441683871891e-07 -2.169025133212671e-07 0)
(6.704997321720876e-07 -2.163670070568261e-07 0)
(6.997420037866484e-07 -2.159400005949403e-07 0)
(7.288780867645398e-07 -2.155970214604112e-07 0)
(7.577625382371519e-07 -2.152786485166828e-07 0)
(7.864669702937334e-07 -2.149731781983047e-07 0)
(8.150454865889312e-07 -2.146625779842599e-07 0)
(8.433945317050321e-07 -2.143450909700014e-07 0)
(8.71656344957889e-07 -2.140070387682379e-07 0)