/*--------------------------------*- C++ -*----------------------------------*\
| =========                 |                                                 |
| \\      /  F ield         | foam-extend: Open Source CFD                    |
|  \\    /   O peration     | Version:     4.1                                |
|   \\  /    A nd           | Web:         http://www.foam-extend.org         |
|    \\/     M anipulation  |                                                 |
\*---------------------------------------------------------------------------*/
FoamFile
{
    version     2.0;
    format      ascii;
    class       vectorField;
    location    "1";
    object      solidsCellD_iteration2;
}
// * * * * * * * * * * * * * * * * * * * * * * * * * * * * * * * * * * * * * //


1000
(
(2.972266850463107e-07 -3.152851103805701e-08 0)
(2.933346955364456e-07 -3.395443833543087e-08 0)
(2.92884715043225e-07 -3.729572938303931e-08 0)
(2.950070301499168e-07 -4.118468748434391e-08 0)
(2.990145041459881e-07 -4.553666367914134e-08 0)
(3.044859113477123e-07 -5.023924186103826e-08 0)
(3.110491507417035e-07 -5.523318872701376e-08 0)
(3.183451580160195e-07 -6.063298722619854e-08 0)
(3.260291247467518e-07 -6.640940337371607e-08 0)
(3.323414037588149e-07 -7.317375645232195e-08 0)
(2.706825926491622e-07 -3.469521157244971e-08 0)
(2.663141774163802e-07 -3.819224183629258e-08 0)
(2.652717407493373e-07 -4.242670976515407e-08 0)
(2.667854946988995e-07 -4.699487396594651e-08 0)
(2.700869249402886e-07 -5.185653123832449e-08 0)
(2.7461885707153e-07 -5.702578471503323e-08 0)
(2.80030934813364e-07 -6.24057977502808e-08 0)
(2.859581346407738e-07 -6.807195400175171e-08 0)
(2.921258831250718e-07 -7.390551707270955e-08 0)
(2.975215835776782e-07 -8.035582750934793e-08 0)
(2.424124578382408e-07 -3.765030781436883e-08 0)
(2.377848490232806e-07 -4.236331670949396e-08 0)
(2.363812530265411e-07 -4.741020266357836e-08 0)
(2.373265031467765e-07 -5.261917037047989e-08 0)
(2.399430156223746e-07 -5.791090481504907e-08 0)
(2.436735024808151e-07 -6.334561020922461e-08 0)
(2.481663009660808e-07 -6.889113008742314e-08 0)
(2.531655240550426e-07 -7.4527751802018e-08 0)
(2.584446016079005e-07 -8.012053244242098e-08 0)
(2.63372090373351e-07 -8.606390118834901e-08 0)
(2.127685751275045e-07 -4.03580810626454e-08 0)
(2.081240113110014e-07 -4.629704158760056e-08 0)
(2.065134022191604e-07 -5.211518006044159e-08 0)
(2.070185731367949e-07 -5.783606110732821e-08 0)
(2.090109303441208e-07 -6.350455055235754e-08 0)
(2.120651342686056e-07 -6.913540370897563e-08 0)
(2.158215962292493e-07 -7.472197786682778e-08 0)
(2.200975679910401e-07 -8.026826801692001e-08 0)
(2.247060840653304e-07 -8.569509203614545e-08 0)
(2.29217641565735e-07 -9.127276622153289e-08 0)
(1.819833895499274e-07 -4.275625144217323e-08 0)
(1.775576378696265e-07 -4.984695157827791e-08 0)
(1.758312208901392e-07 -5.642308838093544e-08 0)
(1.76023247124433e-07 -6.263193936857313e-08 0)
(1.77561287904931e-07 -6.856207506178627e-08 0)
(1.800370946299172e-07 -7.432158494826399e-08 0)
(1.831578105185696e-07 -7.995386635904412e-08 0)
(1.867550897980035e-07 -8.542296457574736e-08 0)
(1.907395102483538e-07 -9.070632254595971e-08 0)
(1.94759206185269e-07 -9.601422871449469e-08 0)
(1.502289602340832e-07 -4.479902578115266e-08 0)
(1.462026948567291e-07 -5.295006640660352e-08 0)
(1.445394888624089e-07 -6.015391489188061e-08 0)
(1.445432247312135e-07 -6.679714207972721e-08 0)
(1.457171657529836e-07 -7.301316038804928e-08 0)
(1.476512931022871e-07 -7.891299940073746e-08 0)
(1.501835923398743e-07 -8.455369988302136e-08 0)
(1.531619439105513e-07 -8.995579492328935e-08 0)
(1.565080924543945e-07 -9.514182084593223e-08 0)
(1.599469892567337e-07 -1.002627471725028e-07 0)
(1.17677737966902e-07 -4.641625742242818e-08 0)
(1.142953092472894e-07 -5.548844729938916e-08 0)
(1.128414574278471e-07 -6.326023400683926e-08 0)
(1.127337612969423e-07 -7.02736565829041e-08 0)
(1.135713269206161e-07 -7.67152987002654e-08 0)
(1.150361461136456e-07 -8.275047288357973e-08 0)
(1.170085627782063e-07 -8.841327863491082e-08 0)
(1.193640841812167e-07 -9.379252669441622e-08 0)
(1.220293244234395e-07 -9.8930604127355e-08 0)
(1.247991434262543e-07 -1.039282405180743e-07 0)
(8.449907815449434e-08 -4.761536745026898e-08 0)
(8.194758934481048e-08 -5.744029822768729e-08 0)
(8.082499065060717e-08 -6.567562289341011e-08 0)
(8.071409124046601e-08 -7.295151916227656e-08 0)
(8.126090342318961e-08 -7.957449544103747e-08 0)
(8.228151450918108e-08 -8.570190668604606e-08 0)
(8.369209662204802e-08 -9.14085995330477e-08 0)
(8.540065147469467e-08 -9.67821680734565e-08 0)
(8.734033953443872e-08 -1.018726760961691e-07 0)
(8.936187905146541e-08 -1.067529858014274e-07 0)
(5.088902992420517e-08 -4.840736410448158e-08 0)
(4.931793703062675e-08 -5.874019038336033e-08 0)
(4.860986733388789e-08 -6.731997924158012e-08 0)
(4.84956125976083e-08 -7.48224380922312e-08 0)
(4.878957107481327e-08 -8.157069257710158e-08 0)
(4.941225070883131e-08 -8.774042201180829e-08 0)
(5.028531108727297e-08 -9.347838091053484e-08 0)
(5.131657373041875e-08 -9.887889776120002e-08 0)
(5.247234940179464e-08 -1.039845702413649e-07 0)
(5.369417153618848e-08 -1.088355617763812e-07 0)
(1.701248765920929e-08 -4.879881022789395e-08 0)
(1.645383147853666e-08 -5.936517567466072e-08 0)
(1.620473198223086e-08 -6.812980661676445e-08 0)
(1.618172713171684e-08 -7.574560527292231e-08 0)
(1.629128035960529e-08 -8.254387490186001e-08 0)
(1.648618197081599e-08 -8.873915481698719e-08 0)
(1.676663084840441e-08 -9.447166296740574e-08 0)
(1.711604679686958e-08 -9.984018706263898e-08 0)
(1.750589515431872e-08 -1.049118094028034e-07 0)
(1.791003218552565e-08 -1.097149699691412e-07 0)
(4.39802995508643e-07 -1.357886063775979e-09 0)
(4.421978550856864e-07 -1.1626208754183e-09 0)
(4.462812488380935e-07 -1.129646729829961e-09 0)
(4.51797058959853e-07 -1.205992850031144e-09 0)
(4.586620517346843e-07 -1.345746998166834e-09 0)
(4.666878712997561e-07 -1.54023500373158e-09 0)
(4.757506226247556e-07 -1.758801971872136e-09 0)
(4.856455885675477e-07 -1.991290036315712e-09 0)
(4.963405565678414e-07 -2.240806643561677e-09 0)
(5.077052195983191e-07 -2.498832524602179e-09 0)
(4.371410755254436e-07 -4.092280798960386e-09 0)
(4.39301153466482e-07 -3.534653678950087e-09 0)
(4.432541367590502e-07 -3.442616604054568e-09 0)
(4.486911077405714e-07 -3.69268731098135e-09 0)
(4.555011324262565e-07 -4.128202476315348e-09 0)
(4.634633374336773e-07 -4.685660878946204e-09 0)
(4.724963776592446e-07 -5.330657963416366e-09 0)
(4.823789189400457e-07 -6.043246831868836e-09 0)
(4.930431542672744e-07 -6.785386623602279e-09 0)
(5.043929144164679e-07 -7.545571329197207e-09 0)
(4.317148392055628e-07 -6.848558443405982e-09 0)
(4.334968912042647e-07 -6.012453917548965e-09 0)
(4.372153857719132e-07 -5.907535237262657e-09 0)
(4.425238156783209e-07 -6.322277906801298e-09 0)
(4.492408229532724e-07 -7.058553368773611e-09 0)
(4.571592974878696e-07 -8.01241180580407e-09 0)
(4.661465244842939e-07 -9.092191372198944e-09 0)
(4.759863938384588e-07 -1.026738298487818e-08 0)
(4.866228556301195e-07 -1.149222661207787e-08 0)
(4.979933198831394e-07 -1.275421491039358e-08 0)
(4.236120886681791e-07 -9.673096111847978e-09 0)
(4.248827306292174e-07 -8.649490461793546e-09 0)
(4.282322407382748e-07 -8.606515937167331e-09 0)
(4.333532110817671e-07 -9.234255991620157e-09 0)
(4.399178973422061e-07 -1.027612712551879e-08 0)
(4.476951085844463e-07 -1.161381309461349e-08 0)
(4.565942355507445e-07 -1.312816069541998e-08 0)
(4.664203094340563e-07 -1.477624558632862e-08 0)
(4.770296219539404e-07 -1.650444879181058e-08 0)
(4.884452368140017e-07 -1.826511336053453e-08 0)
(4.128422835862246e-07 -1.257558206771738e-08 0)
(4.13506796960945e-07 -1.149509217251172e-08 0)
(4.164128262737247e-07 -1.159146570645127e-08 0)
(4.212244477536241e-07 -1.248483668422389e-08 0)
(4.276109943170337e-07 -1.385497763749532e-08 0)
(4.352772210623191e-07 -1.557923990358508e-08 0)
(4.440818166545337e-07 -1.753524668962587e-08 0)
(4.538801042678658e-07 -1.965038570996233e-08 0)
(4.644660832136816e-07 -2.187215482416091e-08 0)
(4.759653922040229e-07 -2.411296714744858e-08 0)
(3.995089296991666e-07 -1.557065865248793e-08 0)
(3.994227906984045e-07 -1.459358482395098e-08 0)
(4.018231397897072e-07 -1.491826156803783e-08 0)
(4.06291470487453e-07 -1.613591631207554e-08 0)
(4.124692172396589e-07 -1.787639116777579e-08 0)
(4.199998670603351e-07 -2.000325662386079e-08 0)
(4.287060150819215e-07 -2.238738602873507e-08 0)
(4.384580396573879e-07 -2.493820687874038e-08 0)
(4.490533824980122e-07 -2.762977237237979e-08 0)
(4.607432977575047e-07 -3.033295496433708e-08 0)
(3.836608671587106e-07 -1.865441260554249e-08 0)
(3.827698554004209e-07 -1.797424671281501e-08 0)
(3.846377809159535e-07 -1.863722134269101e-08 0)
(3.887295438486792e-07 -2.025011811032949e-08 0)
(3.946404595214125e-07 -2.240212430292425e-08 0)
(4.020051798644732e-07 -2.493660433531523e-08 0)
(4.106039511070434e-07 -2.773383051231908e-08 0)
(4.202993251824849e-07 -3.070451727705549e-08 0)
(4.309384916355693e-07 -3.385925267623256e-08 0)
(4.429435232730597e-07 -3.70101970519253e-08 0)
(3.653844802963405e-07 -2.180341026904436e-08 0)
(3.636649488527076e-07 -2.164709944255684e-08 0)
(3.649610001688908e-07 -2.278369035111253e-08 0)
(3.686348870479896e-07 -2.485310451943722e-08 0)
(3.742164346083436e-07 -2.746600095465643e-08 0)
(3.813737490247091e-07 -3.043111031407643e-08 0)
(3.898484858526379e-07 -3.363704751706937e-08 0)
(3.995093856087882e-07 -3.700572663401669e-08 0)
(4.102370408037953e-07 -4.05970079695471e-08 0)
(4.226628416765964e-07 -4.416794177638836e-08 0)
(3.447945085929346e-07 -2.499825895492236e-08 0)
(3.422517814091621e-07 -2.557887869209697e-08 0)
(3.429995643792945e-07 -2.733627265180973e-08 0)
(3.462207951934923e-07 -2.994200678739214e-08 0)
(3.514225339055359e-07 -3.306865581141612e-08 0)
(3.582617127256264e-07 -3.651804123692618e-08 0)
(3.664968693696648e-07 -4.017504727090473e-08 0)
(3.760083855681754e-07 -4.396503583076695e-08 0)
(3.866893786007156e-07 -4.798492392357214e-08 0)
(3.994967078633246e-07 -5.191036372739173e-08 0)
(3.220502318309264e-07 -2.820335359225691e-08 0)
(3.187377303446944e-07 -2.967790589865512e-08 0)
(3.188936326574283e-07 -3.219238331620064e-08 0)
(3.216153505446251e-07 -3.5437025352494e-08 0)
(3.263273308056039e-07 -3.91543952891182e-08 0)
(3.326447543357537e-07 -4.318840723156982e-08 0)
(3.40388616845465e-07 -4.744877723994354e-08 0)
(3.494995346196079e-07 -5.187440364893818e-08 0)
(3.599471557092332e-07 -5.659074167913594e-08 0)
(3.726708586897936e-07 -6.127891761309512e-08 0)
(5.194945317321541e-07 -2.734412114627225e-09 0)
(5.321737793362435e-07 -2.92973140390412e-09 0)
(5.455317832066329e-07 -3.105032965723616e-09 0)
(5.594920225958314e-07 -3.274637292775557e-09 0)
(5.739969281564548e-07 -3.432603706700001e-09 0)
(5.890449949975632e-07 -3.566597861322033e-09 0)
(6.046300655326146e-07 -3.680069494017941e-09 0)
(6.206793471999221e-07 -3.798421684459634e-09 0)
(6.371203180564269e-07 -3.935510370314596e-09 0)
(6.53939944921747e-07 -4.073238574268682e-09 0)
(6.711272177352529e-07 -4.189076216377302e-09 0)
(6.886428748617455e-07 -4.282225072507574e-09 0)
(7.064532297997861e-07 -4.364487071617231e-09 0)
(7.24542509051314e-07 -4.442261696167914e-09 0)
(7.428900701270421e-07 -4.513237581916041e-09 0)
(7.614676957325019e-07 -4.573489102447775e-09 0)
(7.80260681981907e-07 -4.621318129767569e-09 0)
(7.992490884579299e-07 -4.655937703848481e-09 0)
(8.183801099982835e-07 -4.682729813992567e-09 0)
(8.376921631878937e-07 -4.712005082577291e-09 0)
(5.162524728286339e-07 -8.254849719506011e-09 0)
(5.290958865889903e-07 -8.855077489806799e-09 0)
(5.426258916153306e-07 -9.384744547824058e-09 0)
(5.567706256980825e-07 -9.872637356789877e-09 0)
(5.714935002380284e-07 -1.031882795257417e-08 0)
(5.867611032302776e-07 -1.072240435026017e-08 0)
(6.025423815260366e-07 -1.109645331552734e-08 0)
(6.187838367886222e-07 -1.146630510692457e-08 0)
(6.354251404950638e-07 -1.183929412806426e-08 0)
(6.524372554528246e-07 -1.21937967536432e-08 0)
(6.69796638389162e-07 -1.250923725696592e-08 0)
(6.874822036502534e-07 -1.278841552070905e-08 0)
(7.054759418316503e-07 -1.304241959203495e-08 0)
(7.237449341861774e-07 -1.32735984703513e-08 0)
(7.422452956689958e-07 -1.347678624900752e-08 0)
(7.609513625359788e-07 -1.364859428846307e-08 0)
(7.798521165384868e-07 -1.378730225860597e-08 0)
(7.989248707372825e-07 -1.389363025825293e-08 0)
(8.18178140995109e-07 -1.398278737781414e-08 0)
(8.376357758127981e-07 -1.407637672758409e-08 0)
(5.100045991742287e-07 -1.392446267795803e-08 0)
(5.231968381658523e-07 -1.489743062768272e-08 0)
(5.371273104967999e-07 -1.574278535977522e-08 0)
(5.516461491440146e-07 -1.652017395498297e-08 0)
(5.667168282620108e-07 -1.724142681009071e-08 0)
(5.82342795535594e-07 -1.791031059209329e-08 0)
(5.985099985299369e-07 -1.853885038048445e-08 0)
(6.151380305222428e-07 -1.914440181206923e-08 0)
(6.321336757321986e-07 -1.972688570501991e-08 0)
(6.494798994718126e-07 -2.027212706496052e-08 0)
(6.671798008498736e-07 -2.077208978892379e-08 0)
(6.852155172129855e-07 -2.123130509213191e-08 0)
(7.035471139094358e-07 -2.165191844800935e-08 0)
(7.22124502890692e-07 -2.202858197377401e-08 0)
(7.409242342982923e-07 -2.235513046229529e-08 0)
(7.599472662126733e-07 -2.262816799418617e-08 0)
(7.791336251925484e-07 -2.284661811137183e-08 0)
(7.984781707098188e-07 -2.302234692707908e-08 0)
(8.179843982573407e-07 -2.318284890835798e-08 0)
(8.376613738037537e-07 -2.335745515366053e-08 0)
(5.006979412310043e-07 -1.984333774757891e-08 0)
(5.14390652976123e-07 -2.111135502844208e-08 0)
(5.288891730463504e-07 -2.221316391441462e-08 0)
(5.439965812002549e-07 -2.32492688038433e-08 0)
(5.596807487441393e-07 -2.422851363665397e-08 0)
(5.759085927076417e-07 -2.514263188911319e-08 0)
(5.9263367741129e-07 -2.599882485223604e-08 0)
(6.097912446748838e-07 -2.681730144388368e-08 0)
(6.273259500803424e-07 -2.760103508595813e-08 0)
(6.452214081024299e-07 -2.833627740495419e-08 0)
(6.634629777825517e-07 -2.901625017690672e-08 0)
(6.820113302224192e-07 -2.964077555805742e-08 0)
(7.008128904417372e-07 -3.020456582938811e-08 0)
(7.198265789109117e-07 -3.070237742203889e-08 0)
(7.390525326376333e-07 -3.113449222638597e-08 0)
(7.584976637598553e-07 -3.149656875529794e-08 0)
(7.780884794935337e-07 -3.179111571229362e-08 0)
(7.978515325064839e-07 -3.204217847986125e-08 0)
(8.177539285781054e-07 -3.228567878591434e-08 0)
(8.377616378523335e-07 -3.256070612132517e-08 0)
(4.885640936876132e-07 -2.605279500302486e-08 0)
(5.029560010245177e-07 -2.755549576190937e-08 0)
(5.182559950716925e-07 -2.886666285506505e-08 0)
(5.341521508310037e-07 -3.01265570820782e-08 0)
(5.50611950318275e-07 -3.133137377117206e-08 0)
(5.676047328121914e-07 -3.246627172932035e-08 0)
(5.850955311699411e-07 -3.354122395927766e-08 0)
(6.029872446138466e-07 -3.456591057542392e-08 0)
(6.212416966111862e-07 -3.554380865225634e-08 0)
(6.398356327011632e-07 -3.645823040208121e-08 0)
(6.587374998042702e-07 -3.729919557943995e-08 0)
(6.779049281209198e-07 -3.806180682980377e-08 0)
(6.972978067293818e-07 -3.873900486441222e-08 0)
(7.169081525283857e-07 -3.933094071242625e-08 0)
(7.367359053546584e-07 -3.984495613385066e-08 0)
(7.567123106488894e-07 -4.028123508243273e-08 0)
(7.768541945297456e-07 -4.065030769523212e-08 0)
(7.970950145105422e-07 -4.098257231024689e-08 0)
(8.174952970174812e-07 -4.132193796228946e-08 0)
(8.379579012768428e-07 -4.170499241836643e-08 0)
(4.738517029630461e-07 -3.259381236105973e-08 0)
(4.891435629900055e-07 -3.427013842388677e-08 0)
(5.054518865261323e-07 -3.573854544309547e-08 0)
(5.22344145386765e-07 -3.719045949843868e-08 0)
(5.39815313486728e-07 -3.860269985189203e-08 0)
(5.57790763877143e-07 -3.994507794921368e-08 0)
(5.762450372826106e-07 -4.122795113472188e-08 0)
(5.95047546080564e-07 -4.244288168990157e-08 0)
(6.14146836475935e-07 -4.358759129132947e-08 0)
(6.335439838575253e-07 -4.465020793001036e-08 0)
(6.532261215778528e-07 -4.562312256805975e-08 0)
(6.731485555594679e-07 -4.649709887805747e-08 0)
(6.93260415861923e-07 -4.726485506087447e-08 0)
(7.13562806678877e-07 -4.793384260094495e-08 0)
(7.340704319806589e-07 -4.85139329537637e-08 0)
(7.546718943595067e-07 -4.901253817033485e-08 0)
(7.754370918298082e-07 -4.945123326889616e-08 0)
(7.962652624055474e-07 -4.986258316010792e-08 0)
(8.172576139304966e-07 -5.029122069443001e-08 0)
(8.382841445577884e-07 -5.076028887629752e-08 0)
(4.567871992276871e-07 -3.954518839502137e-08 0)
(4.732551123924961e-07 -4.132273741001889e-08 0)
(4.908703794604478e-07 -4.288798173937584e-08 0)
(5.09031225860574e-07 -4.448107113053095e-08 0)
(5.277342225351335e-07 -4.604811044583562e-08 0)
(5.46876247580028e-07 -4.75600853810935e-08 0)
(5.663807945223554e-07 -4.900871205155939e-08 0)
(5.861856528927768e-07 -5.038658489374497e-08 0)
(6.062513107593434e-07 -5.167702535782399e-08 0)
(6.265743513732016e-07 -5.28629859936424e-08 0)
(6.471372360078501e-07 -5.393952655497081e-08 0)
(6.678921041808471e-07 -5.489946671748519e-08 0)
(6.888039608218022e-07 -5.57391243053896e-08 0)
(7.09879335640047e-07 -5.647153102902246e-08 0)
(7.310944481352368e-07 -5.710828541341674e-08 0)
(7.523987915648502e-07 -5.766282413842918e-08 0)
(7.73871261318342e-07 -5.816266678848295e-08 0)
(7.953906026374984e-07 -5.86365933484956e-08 0)
(8.170602983149192e-07 -5.911708036711623e-08 0)
(8.38735806825599e-07 -5.962306772099731e-08 0)
(4.375700670668716e-07 -4.694695777459638e-08 0)
(4.556055855318288e-07 -4.873129426930836e-08 0)
(4.748702593836882e-07 -5.03176700539699e-08 0)
(4.945951264124886e-07 -5.199440019507619e-08 0)
(5.147298554873963e-07 -5.365445792161773e-08 0)
(5.352207049525821e-07 -5.528239060595006e-08 0)
(5.559473613952511e-07 -5.683744503829102e-08 0)
(5.768730827160541e-07 -5.831837046808709e-08 0)
(5.979915209964306e-07 -5.970478767445916e-08 0)
(6.193110317621866e-07 -6.097469894738882e-08 0)
(6.408078011177107e-07 -6.212217623152167e-08 0)
(6.624165185391441e-07 -6.314427038770425e-08 0)
(6.841197904653821e-07 -6.404445253277197e-08 0)
(7.059717311176075e-07 -6.483709327486175e-08 0)
(7.279277541706276e-07 -6.553168712872891e-08 0)
(7.499885727467795e-07 -6.614229970687431e-08 0)
(7.722108022785591e-07 -6.669132223572736e-08 0)
(7.944616443288075e-07 -6.719745677389339e-08 0)
(8.168666315241925e-07 -6.768249508022754e-08 0)
(8.392824536709571e-07 -6.818064276663932e-08 0)
(4.162225278481629e-07 -5.495028289034197e-08 0)
(4.365457073520381e-07 -5.660439496112743e-08 0)
(4.579698728034375e-07 -5.810663872887018e-08 0)
(4.795983941743963e-07 -5.975553400491271e-08 0)
(5.014229992314549e-07 -6.14203215030413e-08 0)
(5.233860536440469e-07 -6.305693328032039e-08 0)
(5.454279066913464e-07 -6.463037768529919e-08 0)
(5.675386605548544e-07 -6.613678591610805e-08 0)
(5.897353012195224e-07 -6.755160932591698e-08 0)
(6.120359359188804e-07 -6.885060468759119e-08 0)
(6.344270842242788e-07 -7.002874791950427e-08 0)
(6.568664155119694e-07 -7.108931139398485e-08 0)
(6.793688942115893e-07 -7.204205316661954e-08 0)
(7.019952549140839e-07 -7.289625029659477e-08 0)
(7.246814804003548e-07 -7.365212905754972e-08 0)
(7.474802012555947e-07 -7.431981501196702e-08 0)
(7.704389494866867e-07 -7.491192665028327e-08 0)
(7.934402378510831e-07 -7.543170047651531e-08 0)
(8.165967493985331e-07 -7.589927153253606e-08 0)
(8.398027391762343e-07 -7.637648727433734e-08 0)
(3.930965767285304e-07 -6.42981441062966e-08 0)
(4.171625366822385e-07 -6.528207618352395e-08 0)
(4.414858793249852e-07 -6.642653422841503e-08 0)
(4.653838808939259e-07 -6.780494314041335e-08 0)
(4.890260840292985e-07 -6.927526530897929e-08 0)
(5.124715542207001e-07 -7.076685386700139e-08 0)
(5.357635112209577e-07 -7.224757621742586e-08 0)
(5.589587812262652e-07 -7.369419899301872e-08 0)
(5.821238573375901e-07 -7.507189283544723e-08 0)
(6.053080447429876e-07 -7.635289191551217e-08 0)
(6.285079558456985e-07 -7.753236513169464e-08 0)
(6.51692680677739e-07 -7.86159798050588e-08 0)
(6.749087098602602e-07 -7.961277598405455e-08 0)
(6.982157182263977e-07 -8.052358176981691e-08 0)
(7.21552845399452e-07 -8.133995068385907e-08 0)
(7.450189468058685e-07 -8.206678767519374e-08 0)
(7.686161181251118e-07 -8.270505518554136e-08 0)
(7.922908713149768e-07 -8.324994663039426e-08 0)
(8.161364642133323e-07 -8.372751580841862e-08 0)
(8.401155820053922e-07 -8.420359263070496e-08 0)
(3.698577893455798e-07 -7.761693042565633e-08 0)
(4.00161962817728e-07 -7.589782716638508e-08 0)
(4.278555836351183e-07 -7.591637612951067e-08 0)
(4.540710899283283e-07 -7.659091976675867e-08 0)
(4.793675252644627e-07 -7.758610626189633e-08 0)
(5.040946990910931e-07 -7.875391628169495e-08 0)
(5.284329513078985e-07 -8.000432736290337e-08 0)
(5.52514676532223e-07 -8.127603860572264e-08 0)
(5.76450762068963e-07 -8.25198091976018e-08 0)
(6.003209095582358e-07 -8.370154775691152e-08 0)
(6.241304128779191e-07 -8.481185851070828e-08 0)
(6.47860776836724e-07 -8.58532151012322e-08 0)
(6.715977635694043e-07 -8.682939948826487e-08 0)
(6.953928391961547e-07 -8.773287500810503e-08 0)
(7.19174926541697e-07 -8.854952253248738e-08 0)
(7.430882838236695e-07 -8.928102405673387e-08 0)
(7.670823427406195e-07 -8.992045952983868e-08 0)
(7.911693898167663e-07 -9.047221133276586e-08 0)
(8.15407129768376e-07 -9.09670971355898e-08 0)
(8.398165826115898e-07 -9.142385440872226e-08 0)
(3.593199096729073e-07 -8.98542615159873e-08 0)
(3.897507219652496e-07 -8.7521373634287e-08 0)
(4.182415959996629e-07 -8.656539900232129e-08 0)
(4.455131524350808e-07 -8.644225591109725e-08 0)
(4.718282171795274e-07 -8.684053782790638e-08 0)
(4.974641764402557e-07 -8.756825472956813e-08 0)
(5.226074160811619e-07 -8.847572450356824e-08 0)
(5.474011876194871e-07 -8.947202218999589e-08 0)
(5.719656755103034e-07 -9.049561431592378e-08 0)
(5.963921825404059e-07 -9.15031475716183e-08 0)
(6.20691011256368e-07 -9.247396310695152e-08 0)
(6.448599342452155e-07 -9.340169118408133e-08 0)
(6.690102228110219e-07 -9.428386589372884e-08 0)
(6.931740318102867e-07 -9.51053647175251e-08 0)
(7.172807058698838e-07 -9.585017468874765e-08 0)
(7.415000260722279e-07 -9.652272218236688e-08 0)
(7.657421227962508e-07 -9.711575538949181e-08 0)
(7.900687484540458e-07 -9.764577981065229e-08 0)
(8.14494569677802e-07 -9.812787557095203e-08 0)
(8.390480011364051e-07 -9.849047343003474e-08 0)
(3.530442118091562e-07 -1.002769932901972e-07 0)
(3.82709082271349e-07 -9.826980916582199e-08 0)
(4.111859430985737e-07 -9.704492938059336e-08 0)
(4.38778909792444e-07 -9.647405568549403e-08 0)
(4.656026463261795e-07 -9.643592703902088e-08 0)
(4.918026798560103e-07 -9.677860688586207e-08 0)
(5.175198597883739e-07 -9.735362267412551e-08 0)
(5.428581443924586e-07 -9.806827926161074e-08 0)
(5.679237208408331e-07 -9.885887449768955e-08 0)
(5.928071737729186e-07 -9.967564812699837e-08 0)
(6.175126813865854e-07 -1.004850327713379e-07 0)
(6.420483300375251e-07 -1.012711245226603e-07 0)
(6.665449380091731e-07 -1.020287856386926e-07 0)
(6.910140577335956e-07 -1.027389388121804e-07 0)
(7.153916105062197e-07 -1.033866636970314e-07 0)
(7.398523346011281e-07 -1.039817391017182e-07 0)
(7.642906887438795e-07 -1.045224186756618e-07 0)
(7.887939833921338e-07 -1.050204838048309e-07 0)
(8.133429495569548e-07 -1.054456232615697e-07 0)
(8.379770635295358e-07 -1.056662938359182e-07 0)
(3.485470009089296e-07 -1.099032745014861e-07 0)
(3.775107036185792e-07 -1.08248579625326e-07 0)
(4.057274511367962e-07 -1.070446728819088e-07 0)
(4.33333768563381e-07 -1.062975502051484e-07 0)
(4.603631513796969e-07 -1.059991156946666e-07 0)
(4.868878569126946e-07 -1.060559814466484e-07 0)
(5.129889260540866e-07 -1.063575492158744e-07 0)
(5.387169631264191e-07 -1.068242356269022e-07 0)
(5.641615226697161e-07 -1.073965729755437e-07 0)
(5.894089021811256e-07 -1.080246461384673e-07 0)
(6.144492718146903e-07 -1.08666747139775e-07 0)
(6.392938130150549e-07 -1.093024324371897e-07 0)
(6.640862903670087e-07 -1.099293485761327e-07 0)
(6.88816759449989e-07 -1.105260599211775e-07 0)
(7.134347878838421e-07 -1.110781767958021e-07 0)
(7.381037810873714e-07 -1.11598196914324e-07 0)
(7.627103743432935e-07 -1.120850837911092e-07 0)
(7.873571279055025e-07 -1.125283611205535e-07 0)
(8.120045397126582e-07 -1.128484725905524e-07 0)
(8.36706903784211e-07 -1.129540528882349e-07 0)
(3.450517441284633e-07 -1.190550329091502e-07 0)
(3.734865390553506e-07 -1.177048059913259e-07 0)
(4.013970530051522e-07 -1.166401105204087e-07 0)
(4.289055335588718e-07 -1.158674797121508e-07 0)
(4.559766444645086e-07 -1.154296960164984e-07 0)
(4.826680132359177e-07 -1.152936163114967e-07 0)
(5.090018197406641e-07 -1.153893618172354e-07 0)
(5.349847940200666e-07 -1.156519034724841e-07 0)
(5.606972511203207e-07 -1.160303591920816e-07 0)
(5.862215935182153e-07 -1.164821478151215e-07 0)
(6.115299183042152e-07 -1.169632862381229e-07 0)
(6.36631351376517e-07 -1.174546269929834e-07 0)
(6.616756334906527e-07 -1.179614334726475e-07 0)
(6.866281003423191e-07 -1.184595430222e-07 0)
(7.114554684396495e-07 -1.189309356842472e-07 0)
(7.363033971981618e-07 -1.19384042736385e-07 0)
(7.610569421930084e-07 -1.198084251572527e-07 0)
(7.858221461022392e-07 -1.20168640361578e-07 0)
(8.105535920350671e-07 -1.203749389157894e-07 0)
(8.353193780828136e-07 -1.204590998304167e-07 0)
(3.421637377718454e-07 -1.279186913549038e-07 0)
(3.701961175483196e-07 -1.268339284586346e-07 0)
(3.97857259800967e-07 -1.259237912430141e-07 0)
(4.252259647127698e-07 -1.251937656264801e-07 0)
(4.522653954842702e-07 -1.247006516012633e-07 0)
(4.790309652920737e-07 -1.244535070813255e-07 0)
(5.05495753349377e-07 -1.244119161294542e-07 0)
(5.31636716417912e-07 -1.245224591021878e-07 0)
(5.575320526341075e-07 -1.247436283581255e-07 0)
(5.832618048511384e-07 -1.250458107144895e-07 0)
(6.08779900759333e-07 -1.253863870314461e-07 0)
(6.340924372124689e-07 -1.257510836328077e-07 0)
(6.593494272699416e-07 -1.261544230850559e-07 0)
(6.844900499963917e-07 -1.26569267894147e-07 0)
(7.095016517018095e-07 -1.269701984874146e-07 0)
(7.344961108472731e-07 -1.273530720691726e-07 0)
(7.593748884362961e-07 -1.276964185899769e-07 0)
(7.842384890072195e-07 -1.279588208393756e-07 0)
(8.090451136293566e-07 -1.280985746664818e-07 0)
(8.33865869856177e-07 -1.282153969771348e-07 0)
(3.397077362846239e-07 -1.366055888731364e-07 0)
(3.674302400198359e-07 -1.357353684683166e-07 0)
(3.949064412065436e-07 -1.349649122778583e-07 0)
(4.221248062803711e-07 -1.343129201802224e-07 0)
(4.491043293782988e-07 -1.338302555501073e-07 0)
(4.758886435471385e-07 -1.335397478945362e-07 0)
(5.024192416106922e-07 -1.334195497523884e-07 0)
(5.286540684097714e-07 -1.334262895156901e-07 0)
(5.546717972954752e-07 -1.335271149489618e-07 0)
(5.805506310398899e-07 -1.337105501208549e-07 0)
(6.062287862100557e-07 -1.33936040778276e-07 0)
(6.317112641683753e-07 -1.341943066411244e-07 0)
(6.571419099333586e-07 -1.345049869285482e-07 0)
(6.824322176196319e-07 -1.348379162425314e-07 0)
(7.075987136352693e-07 -1.351617955770632e-07 0)
(7.327127666835529e-07 -1.354581886059572e-07 0)
(7.5769385232853e-07 -1.357057867309943e-07 0)
(7.826412613703259e-07 -1.3588445569866e-07 0)
(8.07515130970835e-07 -1.360164181180146e-07 0)
(8.323786895345898e-07 -1.361008731569278e-07 0)
(3.376046436426881e-07 -1.451580024677994e-07 0)
(3.651044563346002e-07 -1.444478167849863e-07 0)
(3.924251014665277e-07 -1.438104248928788e-07 0)
(4.195071920944731e-07 -1.43258647368775e-07 0)
(4.464143283709608e-07 -1.42826961456065e-07 0)
(4.731803338805331e-07 -1.425323302982749e-07 0)
(4.997330579832198e-07 -1.423673785905659e-07 0)
(5.260180464633695e-07 -1.423002943185963e-07 0)
(5.521141790872308e-07 -1.423060455905386e-07 0)
(5.780969558280653e-07 -1.423973670574501e-07 0)
(6.038915759485385e-07 -1.425340279618158e-07 0)
(6.295050389367214e-07 -1.427093099932818e-07 0)
(6.550718391612479e-07 -1.429388045283347e-07 0)
(6.804784735570217e-07 -1.431879629580321e-07 0)
(7.057629583012425e-07 -1.434263187491773e-07 0)
(7.3097231003751e-07 -1.436320082363258e-07 0)
(7.560374630332597e-07 -1.437982827159552e-07 0)
(7.810580504736081e-07 -1.439321885816215e-07 0)
(8.059875802668903e-07 -1.440600166818767e-07 0)
(8.308858746430692e-07 -1.440278148976324e-07 0)
(3.357858314115857e-07 -1.535973816352665e-07 0)
(3.63132846517869e-07 -1.530166849262882e-07 0)
(3.903202422911032e-07 -1.525033286472288e-07 0)
(4.172917337743638e-07 -1.520503204155041e-07 0)
(4.441217192290702e-07 -1.516744167026654e-07 0)
(4.708480464980262e-07 -1.513835936794294e-07 0)
(4.973960436091886e-07 -1.51186372676647e-07 0)
(5.237031175974347e-07 -1.510649456309681e-07 0)
(5.498480957733477e-07 -1.50998741017309e-07 0)
(5.759022614991229e-07 -1.510279129954092e-07 0)
(6.017794074724e-07 -1.511089284983948e-07 0)
(6.274882382350371e-07 -1.512336698800964e-07 0)
(6.53149938949849e-07 -1.514048290868849e-07 0)
(6.786414810098448e-07 -1.515824836898093e-07 0)
(7.040106055121237e-07 -1.517451907565424e-07 0)
(7.292949047701101e-07 -1.518841049471481e-07 0)
(7.544306695319389e-07 -1.520084834269186e-07 0)
(7.795128795544649e-07 -1.521260470280329e-07 0)
(8.044851422475564e-07 -1.52189384020474e-07 0)
(8.294142160202124e-07 -1.520931921901855e-07 0)
(3.342055128037076e-07 -1.619646119840011e-07 0)
(3.614386283346748e-07 -1.615051476883364e-07 0)
(3.885215518426538e-07 -1.610892121828187e-07 0)
(4.154024582072921e-07 -1.607096569531219e-07 0)
(4.421576358877256e-07 -1.603747882870028e-07 0)
(4.688377330656343e-07 -1.60088503143352e-07 0)
(4.953688073906094e-07 -1.598753382642556e-07 0)
(5.216827863482409e-07 -1.597297529692263e-07 0)
(5.478583273177209e-07 -1.59627363170376e-07 0)
(5.739596822041367e-07 -1.596278317177236e-07 0)
(5.998909433759298e-07 -1.596835750540052e-07 0)
(6.256641157912572e-07 -1.597822612012506e-07 0)
(6.513839410059914e-07 -1.599122373357645e-07 0)
(6.769306861363894e-07 -1.600326281436111e-07 0)
(7.023578796311432e-07 -1.601371144574596e-07 0)
(7.277023004580427e-07 -1.602349179682908e-07 0)
(7.528966590153052e-07 -1.603376948546252e-07 0)
(7.780257067377771e-07 -1.604186009573049e-07 0)