/*--------------------------------*- C++ -*----------------------------------*\
| =========                 |                                                 |
| \\      /  F ield         | foam-extend: Open Source CFD                    |
|  \\    /   O peration     | Version:     4.1                                |
|   \\  /    A nd           | Web:         http://www.foam-extend.org         |
|    \\/     M anipulation  |                                                 |
\*---------------------------------------------------------------------------*/
FoamFile
{
    version     2.0;
    format      ascii;
    class       volScalarField;
    location    "1";
    object      epsilonEq;
}
// * * * * * * * * * * * * * * * * * * * * * * * * * * * * * * * * * * * * * //

dimensions      [0 0 0 0 0 0 0];

internalField   nonuniform List<scalar> 
100000
(
3.20386e-06
6.30462e-06
6.13405e-06
5.90731e-06
5.70653e-06
5.51108e-06
5.32644e-06
5.14903e-06
4.97803e-06
4.81482e-06
4.65755e-06
4.50835e-06
4.36659e-06
4.23135e-06
4.10219e-06
3.97638e-06
3.85593e-06
3.74067e-06
3.63117e-06
3.52603e-06
3.4239e-06
3.32657e-06
3.23398e-06
3.14445e-06
3.0579e-06
2.97551e-06
2.01289e-06
9.5405e-07
8.37351e-07
8.38062e-07
8.38766e-07
8.39388e-07
8.40065e-07
8.40715e-07
8.41251e-07
8.41821e-07
8.42338e-07
8.42835e-07
8.43293e-07
8.43718e-07
8.44105e-07
8.44428e-07
8.44686e-07
8.44897e-07
8.4507e-07
8.45225e-07
8.45354e-07
8.45459e-07
8.455e-07
8.45503e-07
8.45455e-07
8.45394e-07
8.4531e-07
8.45229e-07
8.45151e-07
8.45038e-07
8.44919e-07
8.44755e-07
8.44576e-07
8.44359e-07
8.44099e-07
8.43855e-07
8.4361e-07
8.43376e-07
8.43156e-07
8.42922e-07
8.42689e-07
8.42447e-07
8.42189e-07
8.41953e-07
8.4174e-07
8.4155e-07
8.41403e-07
8.41273e-07
8.41185e-07
8.41143e-07
8.41099e-07
8.41069e-07
8.4108e-07
8.41156e-07
8.41333e-07
8.41613e-07
8.42664e-07
8.58997e-07
8.75933e-07
8.83094e-07
8.88061e-07
9.03247e-07
9.22511e-07
9.37878e-07
9.398e-07
9.42328e-07
9.45597e-07
9.49812e-07
9.62535e-07
9.84691e-07
1.00612e-06
1.04331e-06
1.07449e-06
1.10257e-06
3.20472e-06
6.29763e-06
6.12549e-06
5.89899e-06
5.69871e-06
5.50317e-06
5.31865e-06
5.14369e-06
4.97167e-06
4.8082e-06
4.65325e-06
4.50673e-06
4.36453e-06
4.22761e-06
4.09945e-06
3.97458e-06
3.85571e-06
3.7412e-06
3.63122e-06
3.52657e-06
3.42628e-06
3.32887e-06
3.23488e-06
3.14585e-06
3.06059e-06
2.97898e-06
2.24275e-06
1.0922e-06
8.41699e-07
8.42285e-07
8.42861e-07
8.43434e-07
8.44068e-07
8.44481e-07
8.44967e-07
8.45435e-07
8.45877e-07
8.46307e-07
8.46697e-07
8.47035e-07
8.47341e-07
8.47615e-07
8.47831e-07
8.47999e-07
8.48126e-07
8.48228e-07
8.48289e-07
8.48339e-07
8.48343e-07
8.48317e-07
8.48235e-07
8.48134e-07
8.48024e-07
8.47896e-07
8.47789e-07
8.47644e-07
8.4751e-07
8.47337e-07
8.47123e-07
8.46913e-07
8.46652e-07
8.46393e-07
8.46142e-07
8.45882e-07
8.45651e-07
8.45417e-07
8.45167e-07
8.44927e-07
8.44673e-07
8.44431e-07
8.44234e-07
8.44049e-07
8.43906e-07
8.4381e-07
8.43731e-07
8.43699e-07
8.43694e-07
8.43701e-07
8.43765e-07
8.49178e-07
8.6579e-07
8.82387e-07
8.86601e-07
8.93651e-07
9.12618e-07
9.32101e-07
9.38303e-07
9.39106e-07
9.40213e-07
9.41694e-07
9.43615e-07
9.46063e-07
9.49146e-07
9.67805e-07
9.84522e-07
1.0084e-06
1.02341e-06
1.03041e-06
1.03618e-06
1.04188e-06
3.20266e-06
6.28405e-06
6.11453e-06
5.88868e-06
5.68905e-06
5.49544e-06
5.30824e-06
5.13562e-06
4.96627e-06
4.80256e-06
4.64665e-06
4.5005e-06
4.36019e-06
4.22371e-06
4.09633e-06
3.9721e-06
3.85376e-06
3.74013e-06
3.6313e-06
3.52675e-06
3.42607e-06
3.32942e-06
3.23631e-06
3.14772e-06
3.06254e-06
2.98116e-06
2.48012e-06
1.26508e-06
8.45977e-07
8.46458e-07
8.46937e-07
8.47454e-07
8.4786e-07
8.48248e-07
8.48666e-07
8.48992e-07
8.4935e-07
8.49687e-07
8.49996e-07
8.50273e-07
8.50517e-07
8.50713e-07
8.5085e-07
8.50965e-07
8.51046e-07
8.51112e-07
8.51144e-07
8.51169e-07
8.51127e-07
8.51038e-07
8.50913e-07
8.5076e-07
8.50611e-07
8.50438e-07
8.50309e-07
8.50141e-07
8.4996e-07
8.49789e-07
8.4956e-07
8.49331e-07
8.49066e-07
8.48781e-07
8.48521e-07
8.48249e-07
8.4799e-07
8.4775e-07
8.47493e-07
8.47242e-07
8.46998e-07
8.46744e-07
8.46531e-07
8.46361e-07
8.46215e-07
8.46123e-07
8.46066e-07
8.46034e-07
8.5593e-07
8.72808e-07
8.85764e-07
8.91359e-07
9.02553e-07
9.21565e-07
9.40222e-07
9.40155e-07
9.40276e-07
9.40574e-07
9.41058e-07
9.41779e-07
9.4277e-07
9.44068e-07
9.45727e-07
9.53798e-07
9.69258e-07
9.8635e-07
1.00451e-06
1.00704e-06
1.00924e-06
1.01164e-06
1.0125e-06
1.00916e-06
3.20034e-06
6.27e-06
6.10029e-06
5.87646e-06
5.67901e-06
5.48683e-06
5.29854e-06
5.12445e-06
4.95678e-06
4.79465e-06
4.63991e-06
4.49366e-06
4.35573e-06
4.21892e-06
4.09181e-06
3.96909e-06
3.85047e-06
3.73882e-06
3.62965e-06
3.52511e-06
3.42583e-06
3.33038e-06
3.23685e-06
3.14774e-06
3.06302e-06
2.98249e-06
2.72501e-06
1.4354e-06
8.50218e-07
8.50572e-07
8.50931e-07
8.51271e-07
8.51611e-07
8.51928e-07
8.5223e-07
8.52488e-07
8.52747e-07
8.52978e-07
8.53198e-07
8.53411e-07
8.5358e-07
8.537e-07
8.53767e-07
8.53816e-07
8.53826e-07
8.53843e-07
8.53833e-07
8.53806e-07
8.53725e-07
8.53596e-07
8.53451e-07
8.53254e-07
8.53071e-07
8.52862e-07
8.52684e-07
8.52499e-07
8.52272e-07
8.52082e-07
8.51845e-07
8.5158e-07
8.51312e-07
8.51015e-07
8.50731e-07
8.50458e-07
8.50178e-07
8.49914e-07
8.49661e-07
8.49386e-07
8.4912e-07
8.48873e-07
8.48635e-07
8.48449e-07
8.48311e-07
8.63037e-07
8.80207e-07
8.90326e-07
8.97306e-07
9.11967e-07
9.31038e-07
9.43876e-07
9.43324e-07
9.42887e-07
9.42595e-07
9.4245e-07
9.42478e-07
9.42675e-07
9.43006e-07
9.43508e-07
9.44225e-07
9.45173e-07
9.57417e-07
9.71411e-07
9.90385e-07
9.95053e-07
9.95672e-07
9.96104e-07
9.95891e-07
9.95588e-07
9.93836e-07
9.88532e-07
3.19672e-06
6.25453e-06
6.08638e-06
5.86206e-06
5.6644e-06
5.47543e-06
5.28705e-06
5.11306e-06
4.94732e-06
4.78656e-06
4.63261e-06
4.48517e-06
4.34772e-06
4.2127e-06
4.08615e-06
3.9646e-06
3.84679e-06
3.73465e-06
3.62809e-06
3.524e-06
3.42336e-06
3.32843e-06
3.23661e-06
3.1486e-06
3.06405e-06
2.98317e-06
2.90572e-06
1.59094e-06
8.52753e-07
8.54554e-07
8.54777e-07
8.55005e-07
8.55243e-07
8.55463e-07
8.55661e-07
8.55839e-07
8.56002e-07
8.56151e-07
8.56296e-07
8.56436e-07
8.56531e-07
8.56593e-07
8.566e-07
8.56587e-07
8.56536e-07
8.56494e-07
8.56428e-07
8.56332e-07
8.56219e-07
8.56049e-07
8.55869e-07
8.55632e-07
8.55408e-07
8.55169e-07
8.54926e-07
8.54718e-07
8.54468e-07
8.54229e-07
8.53984e-07
8.53697e-07
8.53405e-07
8.53102e-07
8.52783e-07
8.52483e-07
8.52206e-07
8.51918e-07
8.51646e-07
8.51373e-07
8.51074e-07
8.54188e-07
8.70992e-07
8.88317e-07
8.95954e-07
9.04295e-07
9.21997e-07
9.41162e-07
9.48353e-07
9.47481e-07
9.467e-07
9.46003e-07
9.45377e-07
9.44856e-07
9.44467e-07
9.44193e-07
9.44079e-07
9.44101e-07
9.44197e-07
9.44426e-07
9.44803e-07
9.59633e-07
9.74113e-07
9.88626e-07
9.88335e-07
9.87898e-07
9.8723e-07
9.86279e-07
9.84652e-07
9.83017e-07
9.80131e-07
9.74289e-07
3.1924e-06
6.23614e-06
6.06857e-06
5.84654e-06
5.64947e-06
5.46272e-06
5.27653e-06
5.10009e-06
4.93445e-06
4.77572e-06
4.62307e-06
4.47638e-06
4.33939e-06
4.20564e-06
4.0796e-06
3.95839e-06
3.84202e-06
3.731e-06
3.62398e-06
3.52084e-06
3.42143e-06
3.32703e-06
3.23559e-06
3.14784e-06
3.06349e-06
2.98267e-06
2.90551e-06
1.81487e-06
9.01466e-07
8.58495e-07
8.58603e-07
8.58714e-07
8.58827e-07
8.58938e-07
8.59038e-07
8.59118e-07
8.59178e-07
8.59237e-07
8.59289e-07
8.5934e-07
8.59364e-07
8.59377e-07
8.59335e-07
8.5927e-07
8.59167e-07
8.59053e-07
8.5893e-07
8.58762e-07
8.58607e-07
8.58392e-07
8.58161e-07
8.57892e-07
8.57613e-07
8.57349e-07
8.57055e-07
8.56795e-07
8.5653e-07
8.56241e-07
8.55963e-07
8.55671e-07
8.55347e-07
8.55025e-07
8.54699e-07
8.54354e-07
8.54048e-07
8.53754e-07
8.63065e-07
8.80112e-07
8.95348e-07
9.02982e-07
9.14272e-07
9.33046e-07
9.52227e-07
9.53413e-07
9.5231e-07
9.51272e-07
9.50301e-07
9.49361e-07
9.4852e-07
9.47714e-07
9.46977e-07
9.46383e-07
9.45853e-07
9.45415e-07
9.45119e-07
9.44921e-07
9.44748e-07
9.49901e-07
9.62535e-07
9.77451e-07
9.84611e-07
9.83658e-07
9.82575e-07
9.81291e-07
9.79757e-07
9.77958e-07
9.7556e-07
9.73319e-07
9.69974e-07
9.64156e-07
3.1883e-06
6.21853e-06
6.05163e-06
5.82995e-06
5.63138e-06
5.44558e-06
5.26273e-06
5.08731e-06
4.9215e-06
4.7629e-06
4.61377e-06
4.46639e-06
4.32914e-06
4.19734e-06
4.07183e-06
3.95216e-06
3.83551e-06
3.7246e-06
3.6195e-06
3.51786e-06
3.41827e-06
3.32355e-06
3.23282e-06
3.14627e-06
3.06323e-06
2.98299e-06
2.90545e-06
2.07081e-06
1.02136e-06
8.62388e-07
8.62367e-07
8.62355e-07
8.62348e-07
8.62342e-07
8.62324e-07
8.62302e-07
8.62268e-07
8.62237e-07
8.62188e-07
8.62142e-07
8.62078e-07
8.62013e-07
8.61907e-07
8.61781e-07
8.61639e-07
8.61459e-07
8.61296e-07
8.6108e-07
8.60871e-07
8.60623e-07
8.60333e-07
8.60035e-07
8.59703e-07
8.59392e-07
8.59072e-07
8.5874e-07
8.58436e-07
8.5813e-07
8.57802e-07
8.57482e-07
8.57146e-07
8.56783e-07
8.56472e-07
8.73237e-07
8.90474e-07
9.02438e-07
9.11565e-07
9.266e-07
9.45438e-07
9.60442e-07
9.59052e-07
9.57719e-07
9.56432e-07
9.55209e-07
9.54047e-07
9.52946e-07
9.51892e-07
9.50882e-07
9.49959e-07
9.48778e-07
9.48254e-07
9.47477e-07
9.46824e-07
9.46209e-07
9.45954e-07
9.45171e-07
9.52775e-07
9.65556e-07
9.82229e-07
9.81782e-07
9.80405e-07
9.7891e-07
9.77258e-07
9.75409e-07
9.73311e-07
9.70996e-07
9.68179e-07
9.65648e-07
9.62126e-07
9.56457e-07
3.18221e-06
6.19629e-06
6.03058e-06
5.81226e-06
5.61377e-06
5.42741e-06
5.24746e-06
5.07278e-06
4.90883e-06
4.7494e-06
4.60087e-06
4.45661e-06
4.31784e-06
4.18743e-06
4.06331e-06
3.94366e-06
3.82939e-06
3.7188e-06
3.61286e-06
3.51188e-06
3.41415e-06
3.3206e-06
3.23021e-06
3.14358e-06
3.0608e-06
2.98133e-06
2.90465e-06
2.33638e-06
1.19576e-06
8.66153e-07
8.65987e-07
8.65854e-07
8.65739e-07
8.65631e-07
8.65511e-07
8.65393e-07
8.65261e-07
8.65133e-07
8.64992e-07
8.64862e-07
8.64717e-07
8.64564e-07
8.64394e-07
8.64191e-07
8.63998e-07
8.63755e-07
8.63538e-07
8.63285e-07
8.63006e-07
8.62728e-07
8.62392e-07
8.62048e-07
8.61678e-07
8.61296e-07
8.60949e-07
8.60577e-07
8.60208e-07
8.59877e-07
8.59528e-07
8.6806e-07
8.85043e-07
9.02428e-07
9.11295e-07
9.21909e-07
9.4039e-07
9.59247e-07
9.66659e-07
9.65151e-07
9.63663e-07
9.62206e-07
9.60769e-07
9.59375e-07
9.58038e-07
9.56752e-07
9.55515e-07
9.54335e-07
9.53185e-07
9.52099e-07
9.51045e-07
9.50079e-07
9.49158e-07
9.4825e-07
9.47434e-07
9.46673e-07
9.45933e-07
9.55626e-07
9.68987e-07
9.81485e-07
9.79873e-07
9.78165e-07
9.76361e-07
9.74436e-07
9.7237e-07
9.70124e-07
9.67695e-07
9.65091e-07
9.62079e-07
9.59419e-07
9.5584e-07
9.50332e-07
3.17643e-06
6.17445e-06
6.00927e-06
5.79258e-06
5.5952e-06
5.40737e-06
5.2302e-06
5.05662e-06
4.89304e-06
4.73517e-06
4.58753e-06
4.44463e-06
4.30697e-06
4.17599e-06
4.05232e-06
3.93529e-06
3.82079e-06
3.71112e-06
3.6067e-06
3.50641e-06
3.40901e-06
3.31581e-06
3.22607e-06
3.13992e-06
3.05752e-06
2.97856e-06
2.9027e-06
2.6104e-06
1.3816e-06
8.69897e-07
8.6959e-07
8.69324e-07
8.69084e-07
8.68861e-07
8.68631e-07
8.68411e-07
8.68181e-07
8.67958e-07
8.67732e-07
8.67515e-07
8.67294e-07
8.6705e-07
8.66814e-07
8.66527e-07
8.66263e-07
8.6596e-07
8.65659e-07
8.65371e-07
8.65032e-07
8.6471e-07
8.64341e-07
8.63932e-07
8.63531e-07
8.63097e-07
8.62694e-07
8.6502e-07
8.81672e-07
8.98778e-07
9.11973e-07
9.22445e-07
9.37514e-07
9.55994e-07
9.7478e-07
9.73101e-07
9.71484e-07
9.69881e-07
9.68311e-07
9.6678e-07
9.65254e-07
9.6374e-07
9.62258e-07
9.60798e-07
9.5939e-07
9.58038e-07
9.5673e-07
9.55473e-07
9.54254e-07
9.53054e-07
9.5191e-07
9.50813e-07
9.49723e-07
9.48673e-07
9.47696e-07
9.46743e-07
9.58479e-07
9.72316e-07
9.80517e-07
9.78678e-07
9.76776e-07
9.74783e-07
9.72688e-07
9.70464e-07
9.68104e-07
9.65596e-07
9.62935e-07
9.60159e-07
9.5704e-07
9.5432e-07
9.50718e-07
9.4536e-07
3.18619e-06
6.14877e-06
5.98541e-06
5.76979e-06
5.57565e-06
5.38711e-06
5.2104e-06
5.04005e-06
4.87632e-06
4.71933e-06
4.57206e-06
4.4311e-06
4.29523e-06
4.16478e-06
4.04049e-06
3.92353e-06
3.81218e-06
3.70371e-06
3.5989e-06
3.4987e-06
3.40227e-06
3.31032e-06
3.22186e-06
3.13642e-06
3.05428e-06
2.97544e-06
2.89979e-06
2.827e-06
1.5483e-06
8.71288e-07
8.73115e-07
8.72717e-07
8.7235e-07
8.72004e-07
8.71657e-07
8.71317e-07
8.70975e-07
8.70646e-07
8.70335e-07
8.70022e-07
8.69735e-07
8.69418e-07
8.69122e-07
8.68772e-07
8.68421e-07
8.6807e-07
8.67682e-07
8.6734e-07
8.6696e-07
8.66567e-07
8.66164e-07
8.65696e-07
8.81038e-07
8.97774e-07
9.13696e-07
9.2421e-07
9.37143e-07
9.55296e-07
9.73678e-07
9.8168e-07
9.79899e-07
9.7814e-07
9.76416e-07
9.747e-07
9.73027e-07
9.71402e-07
9.69785e-07
9.6819e-07
9.66621e-07
9.65055e-07
9.63516e-07
9.62008e-07
9.60535e-07
9.59105e-07
9.5772e-07
9.56369e-07
9.55053e-07
9.53775e-07
9.52521e-07
9.51287e-07
9.50082e-07
9.48903e-07
9.48234e-07
9.61471e-07
9.7571e-07
9.79985e-07
9.77964e-07
9.75878e-07
9.73723e-07
9.71494e-07
9.69169e-07
9.66741e-07
9.64195e-07
9.61533e-07
9.58748e-07
9.55888e-07
9.52724e-07
9.4999e-07
9.46403e-07
9.41202e-07
3.19108e-06
6.05688e-06
5.96013e-06
5.74602e-06
5.55348e-06
5.36587e-06
5.19029e-06
5.02135e-06
4.85843e-06
4.70331e-06
4.55563e-06
4.41546e-06
4.28175e-06
4.15204e-06
4.0288e-06
3.91245e-06
3.8011e-06
3.69343e-06
3.59028e-06
3.4914e-06
3.39558e-06
3.3037e-06
3.21562e-06
3.13101e-06
3.04971e-06
2.97138e-06
2.89614e-06
2.82397e-06
1.80048e-06
9.24595e-07
8.76528e-07
8.75994e-07
8.75503e-07
8.75046e-07
8.74599e-07
8.74154e-07
8.73717e-07
8.73276e-07
8.72869e-07
8.7245e-07
8.72082e-07
8.71692e-07
8.7131e-07
8.70907e-07
8.70466e-07
8.70066e-07
8.69618e-07
8.69195e-07
8.83583e-07
8.99976e-07
9.16757e-07
9.28064e-07
9.40177e-07
9.57504e-07
9.75474e-07
9.90448e-07
9.89131e-07
9.86819e-07
9.85018e-07
9.8321e-07
9.8143e-07
9.79628e-07
9.77843e-07
9.76108e-07
9.7439e-07
9.72715e-07
9.71069e-07
9.69417e-07
9.67777e-07
9.66155e-07
9.64553e-07
9.62983e-07
9.61455e-07
9.59952e-07
9.58486e-07
9.57054e-07
9.55637e-07
9.54236e-07
9.52865e-07
9.51518e-07
9.50184e-07
9.518e-07
9.64325e-07
9.79063e-07
9.79883e-07
9.77752e-07
9.75558e-07
9.7329e-07
9.70955e-07
9.68545e-07
9.66043e-07
9.63445e-07
9.60761e-07
9.5798e-07
9.5511e-07
9.52194e-07
9.49006e-07
9.46273e-07
9.42707e-07
9.37652e-07
3.10413e-06
5.8292e-06
5.8748e-06
5.7206e-06
5.53067e-06
5.34302e-06
5.16794e-06
5.00102e-06
4.83929e-06
4.68556e-06
4.53939e-06
4.39863e-06
4.26601e-06
4.13925e-06
4.01549e-06
3.89906e-06
3.78961e-06
3.68371e-06
3.58093e-06
3.48206e-06
3.38689e-06
3.29597e-06
3.20889e-06
3.12517e-06
3.04476e-06
2.96728e-06
2.89247e-06
2.82039e-06
2.08634e-06
1.06484e-06
8.79912e-07
8.79237e-07
8.78618e-07
8.78042e-07
8.77493e-07
8.76939e-07
8.76408e-07
8.75854e-07
8.75346e-07
8.74829e-07
8.74357e-07
8.73892e-07
8.73402e-07
8.74718e-07
8.90123e-07
9.05972e-07
9.22229e-07
9.34181e-07
9.46645e-07
9.63365e-07
9.80807e-07
9.98585e-07
9.97826e-07
9.95896e-07
9.93961e-07
9.92137e-07
9.90157e-07
9.88233e-07
9.86463e-07
9.84593e-07
9.82772e-07
9.80962e-07
9.79134e-07
9.77338e-07
9.75585e-07
9.73851e-07
9.72137e-07
9.70442e-07
9.68747e-07
9.67072e-07
9.65423e-07
9.63785e-07
9.62175e-07
9.60603e-07
9.59057e-07
9.57533e-07
9.56033e-07
9.54542e-07
9.53049e-07
9.5157e-07
9.5412e-07
9.6708e-07
9.82207e-07
9.79984e-07
9.77731e-07
9.75434e-07
9.73077e-07
9.70666e-07
9.68206e-07
9.65676e-07
9.63073e-07
9.60391e-07
9.57632e-07
9.54788e-07
9.51877e-07
9.48935e-07
9.45756e-07
9.43042e-07
9.39509e-07
9.34598e-07
3.11356e-06
5.70966e-06
5.63997e-06
5.61433e-06
5.50552e-06
5.31953e-06
5.14451e-06
4.9791e-06
4.81823e-06
4.66675e-06
4.52129e-06
4.38198e-06
4.2497e-06
4.12308e-06
4.00261e-06
3.88658e-06
3.7764e-06
3.67087e-06
3.56963e-06
3.47262e-06
3.37882e-06
3.28835e-06
3.2014e-06
3.11808e-06
3.03829e-06
2.9616e-06
2.88749e-06
2.81607e-06
2.38211e-06
1.26811e-06
8.83192e-07
8.82365e-07
8.81618e-07
8.80913e-07
8.80257e-07
8.79591e-07
8.78969e-07
8.78323e-07
8.77715e-07
8.874e-07
9.02058e-07
9.17175e-07
9.32187e-07
9.44057e-07
9.57143e-07
9.73487e-07
9.90217e-07
1.00734e-06
1.00729e-06
1.0053e-06
1.00335e-06
1.00136e-06
9.99373e-07
9.97421e-07
9.95436e-07
9.93485e-07
9.9157e-07
9.89633e-07
9.87753e-07
9.85865e-07
9.83967e-07
9.821e-07
9.80255e-07
9.78412e-07
9.76595e-07
9.7481e-07
9.73026e-07
9.71266e-07
9.69519e-07
9.67783e-07
9.66068e-07
9.64383e-07
9.62715e-07
9.61061e-07
9.59436e-07
9.57827e-07
9.56222e-07
9.54627e-07
9.53048e-07
9.56306e-07
9.69669e-07
9.82716e-07
9.80406e-07
9.78071e-07
9.757e-07
9.73284e-07
9.70804e-07
9.6827e-07
9.65682e-07
9.63038e-07
9.60338e-07
9.57584e-07
9.54768e-07
9.5189e-07
9.4896e-07
9.46007e-07
9.42832e-07
9.40129e-07
9.36627e-07
9.31852e-07
3.12348e-06
5.70954e-06
5.57793e-06
5.37865e-06
5.34402e-06
5.31114e-06
5.12095e-06
4.9556e-06
4.79651e-06
4.64591e-06
4.50218e-06
4.3635e-06
4.23209e-06
4.1078e-06
3.98735e-06
3.87192e-06
3.76299e-06
3.65854e-06
3.55793e-06
3.46136e-06
3.36842e-06
3.27919e-06
3.1933e-06
3.11067e-06
3.03139e-06
2.95533e-06
2.88189e-06
2.81116e-06
2.68595e-06
1.42458e-06
8.8639e-07
8.85423e-07
8.8455e-07
8.83706e-07
8.94306e-07
9.07327e-07
9.20859e-07
9.34884e-07
9.47268e-07
9.59446e-07
9.73753e-07
9.89181e-07
1.005e-06
1.01911e-06
1.01704e-06
1.015e-06
1.01296e-06
1.01091e-06
1.00891e-06
1.00686e-06
1.00484e-06
1.00283e-06
1.00077e-06
9.98761e-07
9.96763e-07
9.94736e-07
9.92756e-07
9.90805e-07
9.88843e-07
9.86914e-07
9.85004e-07
9.83082e-07
9.81183e-07
9.79307e-07
9.77431e-07
9.75583e-07
9.73756e-07
9.71939e-07
9.70129e-07
9.68342e-07
9.66555e-07
9.64786e-07
9.63054e-07
9.61344e-07
9.59638e-07
9.57938e-07
9.56249e-07
9.5456e-07
9.58218e-07
9.71974e-07
9.83379e-07
9.80976e-07
9.78547e-07
9.76094e-07
9.73618e-07
9.71101e-07
9.68542e-07
9.65939e-07
9.63283e-07
9.60577e-07
9.57822e-07
9.55016e-07
9.52162e-07
9.49269e-07
9.46336e-07
9.43393e-07
9.40243e-07
9.37555e-07
9.34075e-07
9.29412e-07
3.13301e-06
5.70834e-06
5.577e-06
5.40395e-06
5.25126e-06
5.05976e-06
4.99943e-06
4.94947e-06
4.78466e-06
4.62593e-06
4.48154e-06
4.34479e-06
4.21329e-06
4.0891e-06
3.97134e-06
3.85772e-06
3.74897e-06
3.64476e-06
3.5449e-06
3.44941e-06
3.35766e-06
3.2695e-06
3.18448e-06
3.10259e-06
3.0239e-06
2.94839e-06
2.87542e-06
2.80534e-06
2.73877e-06
1.6799e-06
9.43003e-07
9.36792e-07
9.4862e-07
9.59502e-07
9.70789e-07
9.83765e-07
9.97417e-07
1.01159e-06
1.02619e-06
1.02936e-06
1.02723e-06
1.02513e-06
1.023e-06
1.0209e-06
1.01877e-06
1.01664e-06
1.01456e-06
1.01243e-06
1.01034e-06
1.00828e-06
1.00618e-06
1.00412e-06
1.00205e-06
9.99945e-07
9.97901e-07
9.95857e-07
9.93786e-07
9.91773e-07
9.89787e-07
9.87799e-07
9.85843e-07
9.83898e-07
9.81941e-07
9.80006e-07
9.78092e-07
9.76181e-07
9.74285e-07
9.7242e-07
9.70561e-07
9.68711e-07
9.66878e-07
9.65061e-07
9.63246e-07
9.6145e-07
9.59676e-07
9.57907e-07
9.56136e-07
9.59947e-07
9.74029e-07
9.84201e-07
9.81731e-07
9.79246e-07
9.76735e-07
9.7419e-07
9.71614e-07
9.69001e-07
9.66356e-07
9.63675e-07
9.6096e-07
9.58212e-07
9.55423e-07
9.52587e-07
9.49711e-07
9.46796e-07
9.43854e-07
9.40924e-07
9.37809e-07
9.35159e-07
9.3173e-07
9.27192e-07
3.17785e-06
5.70492e-06
5.57452e-06
5.4016e-06
5.24818e-06
5.10013e-06
4.95902e-06
4.79139e-06
4.63488e-06
4.54021e-06
4.47066e-06
4.34972e-06
4.21331e-06
4.08488e-06
3.96359e-06
3.84836e-06
3.73968e-06
3.63636e-06
3.53756e-06
3.44332e-06
3.35319e-06
3.26719e-06
3.18519e-06
3.10725e-06
3.03352e-06
2.96438e-06
2.91703e-06
2.9203e-06
2.91591e-06
2.03732e-06
1.09757e-06
1.01822e-06
1.03002e-06
1.04244e-06
1.04241e-06
1.04019e-06
1.03796e-06
1.03575e-06
1.03352e-06
1.03131e-06
1.02909e-06
1.02691e-06
1.02471e-06
1.02252e-06
1.02035e-06
1.01813e-06
1.01597e-06
1.01381e-06
1.01163e-06
1.00952e-06
1.0074e-06
1.00525e-06
1.00314e-06
1.00101e-06
9.98868e-07
9.96772e-07
9.94681e-07
9.9259e-07
9.90552e-07
9.8854e-07
9.86523e-07
9.84523e-07
9.82534e-07
9.80539e-07
9.78566e-07
9.76618e-07
9.74669e-07
9.72726e-07
9.70806e-07
9.68903e-07
9.67003e-07
9.65116e-07
9.63245e-07
9.61383e-07
9.59526e-07
9.57681e-07
9.61333e-07
9.75726e-07
9.85159e-07
9.82618e-07
9.80061e-07
9.77495e-07
9.74899e-07
9.72281e-07
9.69643e-07
9.66979e-07
9.64282e-07
9.6155e-07
9.58789e-07
9.56004e-07
9.53188e-07
9.50336e-07
9.47454e-07
9.44538e-07
9.41598e-07
9.38667e-07
9.35559e-07
9.32923e-07
9.29524e-07
9.25097e-07
3.24592e-06
5.6353e-06
5.57016e-06
5.39766e-06
5.24421e-06
5.09619e-06
4.95572e-06
4.8203e-06
4.69158e-06
4.56755e-06
4.436e-06
4.30697e-06
4.18411e-06
4.07031e-06
3.96465e-06
3.86549e-06
3.77227e-06
3.6846e-06
3.60211e-06
3.52506e-06
3.45272e-06
3.38482e-06
3.32126e-06
3.26248e-06
3.20872e-06
3.15993e-06
3.11572e-06
3.07078e-06
3.01541e-06
2.12073e-06
1.12631e-06
1.0517e-06
1.04934e-06
1.04701e-06
1.04468e-06
1.04237e-06
1.04005e-06
1.03774e-06
1.03542e-06
1.03311e-06
1.03082e-06
1.02855e-06
1.02629e-06
1.024e-06
1.02177e-06
1.01951e-06
1.01723e-06
1.01502e-06
1.01282e-06
1.0106e-06
1.00844e-06
1.00626e-06
1.00406e-06
1.0019e-06
9.99724e-07
9.97535e-07
9.95395e-07
9.93274e-07
9.9116e-07
9.89092e-07
9.87052e-07
9.84997e-07
9.82949e-07
9.80914e-07
9.78886e-07
9.76865e-07
9.7488e-07
9.72906e-07
9.70928e-07
9.68957e-07
9.67002e-07
9.65053e-07
9.63104e-07
9.61171e-07
9.59254e-07
9.62384e-07
9.77041e-07
9.86157e-07
9.83575e-07
9.80982e-07
9.78376e-07
9.75737e-07
9.73066e-07
9.70375e-07
9.67675e-07
9.64958e-07
9.62217e-07
9.59453e-07
9.56666e-07
9.53852e-07
9.51008e-07
9.48143e-07
9.45264e-07
9.42365e-07
9.39453e-07
9.36556e-07
9.33488e-07
9.30874e-07
9.27496e-07
9.23164e-07
3.18664e-06
5.4871e-06
5.56453e-06
5.39231e-06
5.23931e-06
5.09136e-06
4.95076e-06
4.81655e-06
4.688e-06
4.56473e-06
4.4471e-06
4.33485e-06
4.22838e-06
4.1258e-06
4.02729e-06
3.93311e-06
3.84334e-06
3.75798e-06
3.67631e-06
3.59814e-06
3.52273e-06
3.45009e-06
3.37994e-06
3.3126e-06
3.24818e-06
3.18662e-06
3.12714e-06
3.06956e-06
3.01419e-06
2.08822e-06
1.11736e-06
1.05421e-06
1.05171e-06
1.04927e-06
1.04682e-06
1.04442e-06
1.04199e-06
1.03959e-06
1.03717e-06
1.03478e-06
1.03242e-06
1.03004e-06
1.02772e-06
1.02537e-06
1.02301e-06
1.02072e-06
1.01839e-06
1.01607e-06
1.01383e-06
1.01158e-06
1.00932e-06
1.0071e-06
1.00487e-06
1.00262e-06
1.00041e-06
9.98191e-07
9.95975e-07
9.93803e-07
9.91658e-07
9.89515e-07
9.87406e-07
9.85319e-07
9.8322e-07
9.81112e-07
9.79036e-07
9.76974e-07
9.74926e-07
9.72884e-07
9.70865e-07
9.68844e-07
9.66823e-07
9.64812e-07
9.62811e-07
9.60819e-07
9.63106e-07
9.78035e-07
9.87278e-07
9.84632e-07
9.81983e-07
9.79329e-07
9.76659e-07
9.73966e-07
9.71243e-07
9.68512e-07
9.65766e-07
9.63005e-07
9.60228e-07
9.57435e-07
9.54621e-07
9.51788e-07
9.48936e-07
9.46064e-07
9.43171e-07
9.40267e-07
9.37365e-07
9.34491e-07
9.31462e-07
9.28884e-07
9.25554e-07
9.21332e-07
3.14946e-06
5.37627e-06
5.43586e-06
5.38552e-06
5.23328e-06
5.08547e-06
4.94479e-06
4.8112e-06
4.68341e-06
4.56047e-06
4.44288e-06
4.33146e-06
4.22383e-06
4.12155e-06
4.02389e-06
3.93021e-06
3.84062e-06
3.75526e-06
3.67336e-06
3.59506e-06
3.51978e-06
3.4473e-06
3.37724e-06
3.30996e-06
3.24569e-06
3.18433e-06
3.12513e-06
3.06779e-06
3.01245e-06
2.06069e-06
1.11117e-06
1.05664e-06
1.05399e-06
1.05142e-06
1.04886e-06
1.04634e-06
1.04382e-06
1.0413e-06
1.03881e-06
1.03631e-06
1.03387e-06
1.03143e-06
1.02898e-06
1.0266e-06
1.02417e-06
1.02176e-06
1.01941e-06
1.01703e-06
1.01468e-06
1.0124e-06
1.0101e-06
1.00779e-06
1.00553e-06
1.00325e-06
1.00094e-06
9.98677e-07
9.96433e-07
9.94191e-07
9.91989e-07
9.8982e-07
9.87652e-07
9.8548e-07
9.83335e-07
9.81196e-07
9.79066e-07
9.76952e-07
9.74867e-07
9.72779e-07
9.70691e-07
9.68606e-07
9.66531e-07
9.64451e-07
9.62375e-07
9.63404e-07
9.78545e-07
9.88384e-07
9.85705e-07
9.83024e-07
9.80333e-07
9.77628e-07
9.74898e-07
9.72147e-07
9.69379e-07
9.6661e-07
9.63836e-07
9.6105e-07
9.5825e-07
9.55436e-07
9.52609e-07
9.49774e-07
9.46925e-07
9.44057e-07
9.41179e-07
9.38293e-07
9.35403e-07
9.32539e-07
9.29527e-07
9.26965e-07
9.23667e-07
9.19541e-07
3.16344e-06
5.24037e-06
5.30989e-06
5.3584e-06
5.22577e-06
5.07819e-06
4.93846e-06
4.80433e-06
4.67732e-06
4.55566e-06
4.43784e-06
4.32587e-06
4.21913e-06
4.11768e-06
4.0201e-06
3.9263e-06
3.83648e-06
3.7511e-06
3.66942e-06
3.59128e-06
3.51608e-06
3.44379e-06
3.37397e-06
3.3068e-06
3.24264e-06
3.18147e-06
3.12247e-06
3.06533e-06
3.00998e-06
2.03817e-06
1.10729e-06
1.05893e-06
1.05615e-06
1.05344e-06
1.05077e-06
1.04813e-06
1.04551e-06
1.04289e-06
1.04032e-06
1.03774e-06
1.03518e-06
1.03268e-06
1.03016e-06
1.02766e-06
1.02521e-06
1.02271e-06
1.02026e-06
1.01786e-06
1.01544e-06
1.01306e-06
1.01074e-06
1.00838e-06
1.00602e-06
1.00371e-06
1.00138e-06
9.99042e-07
9.96736e-07
9.94465e-07
9.92203e-07
9.89954e-07
9.87736e-07
9.85524e-07
9.83315e-07
9.81121e-07
9.78952e-07
9.76791e-07
9.74639e-07
9.72506e-07
9.70385e-07
9.68261e-07
9.66129e-07
9.63992e-07
9.63421e-07
9.78736e-07
9.89562e-07
9.86816e-07
9.84078e-07
9.81343e-07
9.78611e-07
9.7586e-07
9.73094e-07
9.70311e-07
9.67521e-07
9.64726e-07
9.61919e-07
9.59104e-07
9.56289e-07
9.53468e-07
9.50633e-07
9.47789e-07
9.44931e-07
9.42063e-07
9.39198e-07
9.36334e-07
9.33473e-07
9.30646e-07
9.27674e-07
9.25134e-07
9.21863e-07
9.17819e-07
3.1771e-06
5.24704e-06
5.19549e-06
5.20131e-06
5.21716e-06
5.07011e-06
4.93076e-06
4.79777e-06
4.66981e-06
4.54782e-06
4.4322e-06
4.3211e-06
4.21385e-06
4.11188e-06
4.01463e-06
3.92148e-06
3.83192e-06
3.74659e-06
3.66507e-06
3.58704e-06
3.51185e-06
3.43948e-06
3.36983e-06
3.303e-06
3.23913e-06
3.17811e-06
3.11903e-06
3.06214e-06
3.007e-06
2.02063e-06
1.10526e-06
1.06108e-06
1.05819e-06
1.05535e-06
1.05257e-06
1.0498e-06
1.0471e-06
1.04438e-06
1.04168e-06
1.03906e-06
1.03639e-06
1.03378e-06
1.03122e-06
1.02862e-06
1.02607e-06
1.02356e-06
1.02102e-06
1.01852e-06
1.01608e-06
1.01363e-06
1.01121e-06
1.00882e-06
1.00642e-06
1.00401e-06
1.00164e-06
9.99292e-07
9.96932e-07
9.94584e-07
9.92281e-07
9.89992e-07
9.87705e-07
9.85435e-07
9.83188e-07
9.80951e-07
9.78717e-07
9.76503e-07
9.74302e-07
9.72114e-07
9.69928e-07
9.6775e-07
9.65567e-07
9.62953e-07
9.78432e-07
9.9077e-07
9.87989e-07
9.85216e-07
9.82442e-07
9.79661e-07
9.76864e-07
9.74059e-07
9.71257e-07
9.68458e-07
9.65651e-07
9.62833e-07
9.6001e-07
9.57189e-07
9.54363e-07
9.51524e-07
9.48681e-07
9.4584e-07
9.42988e-07
9.40126e-07
9.37266e-07
9.3441e-07
9.31566e-07
9.28761e-07
9.25821e-07
9.23311e-07
9.20085e-07
9.16138e-07
3.19007e-06
5.2526e-06
5.13721e-06
5.08468e-06
5.09808e-06
5.06003e-06
4.92189e-06
4.78917e-06
4.66227e-06
4.54123e-06
4.42406e-06
4.31369e-06
4.20768e-06
4.1065e-06
4.00947e-06
3.91621e-06
3.82651e-06
3.74118e-06
3.65982e-06
3.58183e-06
3.50672e-06
3.43443e-06
3.36501e-06
3.29852e-06
3.23493e-06
3.17427e-06
3.11523e-06
3.05848e-06
3.00371e-06
2.00775e-06
1.10472e-06
1.06313e-06
1.06012e-06
1.05714e-06
1.05425e-06
1.05137e-06
1.04853e-06
1.04576e-06
1.04295e-06
1.0402e-06
1.0375e-06
1.03477e-06
1.03211e-06
1.02949e-06
1.02684e-06
1.02423e-06
1.02167e-06
1.01909e-06
1.01655e-06
1.01406e-06
1.01159e-06
1.0091e-06
1.00666e-06
1.00423e-06
1.00179e-06
9.99372e-07
9.96978e-07
9.94588e-07
9.92208e-07
9.89859e-07
9.87539e-07
9.85225e-07
9.82909e-07
9.80617e-07
9.78341e-07
9.76091e-07
9.73846e-07
9.71619e-07
9.69389e-07
9.67157e-07
9.6478e-07
9.77738e-07
9.91989e-07
9.89144e-07
9.86322e-07
9.83515e-07
9.80707e-07
9.77892e-07
9.75071e-07
9.72245e-07
9.69415e-07
9.66575e-07
9.63738e-07
9.60909e-07
9.58087e-07
9.55264e-07
9.5243e-07
9.49586e-07
9.46742e-07
9.43898e-07
9.41047e-07
9.38201e-07
9.35366e-07
9.32532e-07
9.29706e-07
9.26914e-07
9.23992e-07
9.215e-07
9.18309e-07
9.14445e-07
3.20278e-06
5.25723e-06
5.14059e-06
4.99442e-06
4.97255e-06
4.985e-06
4.91145e-06
4.78002e-06
4.65372e-06
4.53173e-06
4.41623e-06
4.30675e-06
4.20118e-06
4.09991e-06
4.00258e-06
3.90949e-06
3.82026e-06
3.73512e-06
3.65386e-06
3.57608e-06
3.50131e-06
3.42917e-06
3.35972e-06
3.29346e-06
3.23006e-06
3.16976e-06
3.11114e-06
3.05427e-06
2.99991e-06
1.99903e-06
1.10552e-06
1.06507e-06
1.06194e-06
1.05883e-06
1.05579e-06
1.05285e-06
1.04986e-06
1.04697e-06
1.04411e-06
1.04124e-06
1.03844e-06
1.03567e-06
1.03289e-06
1.03018e-06
1.02751e-06
1.02481e-06
1.02214e-06
1.01954e-06
1.01694e-06
1.01434e-06
1.0118e-06
1.00928e-06
1.00677e-06
1.00427e-06
1.0018e-06
9.99339e-07
9.96882e-07
9.94443e-07
9.92025e-07
9.89623e-07
9.87237e-07
9.84873e-07
9.82511e-07
9.80163e-07
9.77829e-07
9.7553e-07
9.73244e-07
9.70964e-07
9.68682e-07
9.66407e-07
9.76572e-07
9.93612e-07
9.90403e-07
9.87526e-07
9.84652e-07
9.81778e-07
9.78923e-07
9.76072e-07
9.73229e-07
9.70381e-07
9.67531e-07
9.64676e-07
9.61824e-07
9.58978e-07
9.5614e-07
9.53308e-07
9.50476e-07
9.47643e-07
9.44802e-07
9.41956e-07
9.39113e-07
9.36282e-07
9.33461e-07
9.30644e-07
9.27843e-07
9.25081e-07
9.22196e-07
9.19722e-07
9.16552e-07
9.12756e-07
3.21527e-06
5.2605e-06
5.14353e-06
4.9961e-06
4.86812e-06
4.85288e-06
4.86737e-06
4.7686e-06
4.64394e-06
4.52384e-06
4.40745e-06
4.2976e-06
4.19293e-06
4.09252e-06
3.99559e-06
3.90268e-06
3.81363e-06
3.72857e-06
3.64743e-06
3.56983e-06
3.49529e-06
3.42344e-06
3.35405e-06
3.28793e-06
3.22467e-06
3.16429e-06
3.10633e-06
3.04977e-06
2.99498e-06
1.99437e-06
1.1077e-06
1.0669e-06
1.0636e-06
1.06041e-06
1.05722e-06
1.05415e-06
1.05109e-06
1.04806e-06
1.04511e-06
1.04218e-06
1.03925e-06
1.0364e-06
1.03359e-06
1.03077e-06
1.02801e-06
1.02528e-06
1.02254e-06
1.01982e-06
1.01716e-06
1.01452e-06
1.01189e-06
1.0093e-06
1.00674e-06
1.00419e-06
1.00165e-06
9.99127e-07
9.96632e-07
9.94148e-07
9.91676e-07
9.8923e-07
9.86801e-07
9.84384e-07
9.81975e-07
9.79589e-07
9.77223e-07
9.74868e-07
9.72525e-07
9.70187e-07
9.67862e-07
9.74924e-07
9.9254e-07
9.91603e-07
9.88685e-07
9.85781e-07
9.82887e-07
9.80002e-07
9.77117e-07
9.74228e-07
9.71342e-07
9.68472e-07
9.65611e-07
9.62753e-07
9.59898e-07
9.57049e-07
9.54209e-07
9.51367e-07
9.48518e-07
9.45671e-07
9.42832e-07
9.40007e-07
9.3719e-07
9.34373e-07
9.31558e-07
9.28753e-07
9.2597e-07
9.23232e-07
9.20377e-07
9.17926e-07
9.1479e-07
9.1107e-07
3.22711e-06
5.26225e-06
5.14572e-06
4.99723e-06
4.8689e-06
4.74326e-06
4.73023e-06
4.74374e-06
4.63259e-06
4.51317e-06
4.39805e-06
4.28892e-06
4.18464e-06
4.0846e-06
3.98791e-06
3.89503e-06
3.80609e-06
3.72124e-06
3.64028e-06
3.56283e-06
3.4884e-06
3.41691e-06
3.34783e-06
3.2817e-06
3.21895e-06
3.15851e-06
3.10019e-06
3.04454e-06
2.99007e-06
1.99385e-06
1.11093e-06
1.06863e-06
1.06516e-06
1.06184e-06
1.05858e-06
1.05536e-06
1.05218e-06
1.04905e-06
1.04598e-06
1.04295e-06
1.03998e-06
1.03702e-06
1.03412e-06
1.03126e-06
1.0284e-06
1.02558e-06
1.02279e-06
1.02002e-06
1.01726e-06
1.01455e-06
1.01187e-06