/*--------------------------------*- C++ -*----------------------------------*\
| =========                 |                                                 |
| \\      /  F ield         | foam-extend: Open Source CFD                    |
|  \\    /   O peration     | Version:     4.1                                |
|   \\  /    A nd           | Web:         http://www.foam-extend.org         |
|    \\/     M anipulation  |                                                 |
\*---------------------------------------------------------------------------*/
FoamFile
{
    version     2.0;
    format      ascii;
    class       volScalarField;
    location    "1";
    object      sigmaEq;
}
// * * * * * * * * * * * * * * * * * * * * * * * * * * * * * * * * * * * * * //

dimensions      [1 -1 -2 0 0 0 0];

internalField   nonuniform List<scalar> 
100000
(
739351
1.45491e+06
1.41555e+06
1.36322e+06
1.31689e+06
1.27179e+06
1.22918e+06
1.18824e+06
1.14878e+06
1.11111e+06
1.07482e+06
1.04039e+06
1.00768e+06
976466
946660
917625
889831
863232
837963
813700
790131
767670
746303
725643
705670
686657
464514
220165
193235
193399
193561
193705
193861
194011
194135
194266
194386
194500
194606
194704
194793
194868
194927
194976
195016
195052
195082
195106
195115
195116
195105
195091
195072
195053
195035
195009
194981
194943
194902
194852
194792
194736
194679
194625
194574
194520
194467
194411
194351
194297
194248
194204
194170
194140
194120
194110
194100
194093
194095
194113
194154
194218
194461
198230
202138
203791
204937
208442
212887
216433
216877
217460
218215
219187
222124
227236
232181
240765
247960
254439
739551
1.4533e+06
1.41357e+06
1.36131e+06
1.31509e+06
1.26996e+06
1.22738e+06
1.187e+06
1.14731e+06
1.10958e+06
1.07383e+06
1.04001e+06
1.0072e+06
975603
946027
917211
889780
863354
837975
813824
790679
768201
746510
725964
706289
687457
517558
252046
194238
194373
194506
194639
194785
194880
194992
195100
195202
195302
195392
195470
195540
195603
195653
195692
195721
195745
195759
195771
195771
195766
195747
195723
195698
195668
195644
195610
195579
195539
195490
195441
195381
195322
195264
195204
195150
195096
195039
194983
194925
194869
194823
194781
194748
194725
194707
194700
194699
194700
194715
195964
199798
203628
204600
206227
210604
215100
216532
216717
216972
217314
217757
218322
219034
223340
227197
232707
236172
237786
239119
240433
739076
1.45017e+06
1.41104e+06
1.35893e+06
1.31286e+06
1.26818e+06
1.22498e+06
1.18514e+06
1.14606e+06
1.10828e+06
1.0723e+06
1.03858e+06
1.0062e+06
974702
945306
916639
889329
863107
837991
813866
790631
768327
746841
726397
706740
687960
572335
291942
195225
195337
195447
195566
195660
195750
195846
195921
196004
196082
196153
196217
196273
196318
196350
196376
196395
196411
196418
196424
196414
196393
196365
196329
196295
196255
196225
196186
196145
196105
196052
195999
195938
195873
195813
195750
195690
195635
195575
195517
195461
195403
195353
195314
195280
195259
195246
195239
197522
201417
204407
205698
208281
212669
216974
216959
216987
217055
217167
217334
217562
217862
218245
220107
223675
227619
231809
232395
232901
233454
233654
232882
738539
1.44692e+06
1.40776e+06
1.35611e+06
1.31054e+06
1.26619e+06
1.22274e+06
1.18257e+06
1.14387e+06
1.10646e+06
1.07075e+06
1.037e+06
1.00517e+06
973596
944263
915943
888569
862805
837612
813486
790577
768549
746965
726403
706850
688267
628849
331245
196204
196286
196369
196447
196526
196599
196669
196728
196788
196841
196892
196941
196980
197008
197023
197034
197037
197041
197038
197032
197013
196984
196950
196905
196863
196814
196773
196730
196678
196634
196580
196518
196457
196388
196322
196260
196195
196134
196076
196012
195951
195894
195839
195796
195764
199162
203125
205460
207071
210454
214855
217818
217690
217589
217522
217488
217495
217540
217617
217733
217898
218117
220942
224172
228550
229628
229770
229870
229821
229751
229347
228123
737705
1.44335e+06
1.40455e+06
1.35278e+06
1.30717e+06
1.26356e+06
1.22009e+06
1.17994e+06
1.14169e+06
1.10459e+06
1.06906e+06
1.03504e+06
1.00332e+06
972162
942958
914908
887722
861842
837252
813231
790005
768098
746911
726599
707087
688423
670551
367140
196789
197205
197256
197309
197364
197415
197460
197501
197539
197573
197607
197639
197661
197675
197677
197674
197662
197652
197637
197615
197589
197550
197508
197453
197402
197347
197291
197243
197185
197130
197073
197007
196940
196870
196796
196727
196663
196596
196534
196471
196402
197120
200998
204996
206759
208683
212769
217191
218851
218649
218469
218308
218164
218044
217954
217891
217864
217870
217892
217945
218031
221454
224795
228145
228077
227977
227822
227603
227227
226850
226184
224836
736707
1.43911e+06
1.40044e+06
1.3492e+06
1.30372e+06
1.26063e+06
1.21766e+06
1.17694e+06
1.13872e+06
1.10209e+06
1.06686e+06
1.03301e+06
1.0014e+06
970531
941446
913475
886621
860999
836303
812501
789560
767775
746674
726425
706959
688307
670501
418815
208031
198114
198139
198165
198191
198217
198240
198258
198272
198285
198297
198309
198315
198318
198308
198293
198269
198243
198215
198176
198140
198091
198037
197975
197911
197850
197782
197722
197661
197594
197530
197463
197388
197314
197238
197159
197088
197020
199169
203103
206619
208381
210986
215318
219745
220018
219764
219524
219300
219083
218889
218703
218533
218396
218274
218173
218104
218059
218019
219208
222123
225566
227218
226998
226748
226452
226098
225683
225129
224612
223840
222498
735761
1.43505e+06
1.39653e+06
1.34537e+06
1.29955e+06
1.25667e+06
1.21448e+06
1.17399e+06
1.13573e+06
1.09913e+06
1.06472e+06
1.03071e+06
999033
968617
939654
912037
885119
859523
835270
811814
788830
766973
746036
726063
706898
688383
670487
477879
235698
199013
199008
199005
199003
199002
198998
198993
198985
198978
198966
198956
198941
198926
198902
198872
198840
198798
198761
198711
198662
198605
198538
198470
198393
198321
198247
198171
198101
198030
197954
197881
197803
197719
197647
201516
205494
208255
210361
213831
218178
221640
221320
221012
220715
220433
220165
219911
219667
219434
219221
218949
218828
218648
218498
218356
218297
218116
219871
222821
226668
226565
226247
225902
225521
225094
224610
224076
223426
222842
222029
220721
734357
1.42991e+06
1.39167e+06
1.34129e+06
1.29549e+06
1.25248e+06
1.21095e+06
1.17064e+06
1.13281e+06
1.09601e+06
1.06174e+06
1.02845e+06
996424
966331
937686
910074
883705
858185
833737
810433
787881
766292
745433
725442
706339
687998
670304
539165
275945
199881
199843
199813
199786
199761
199733
199706
199676
199646
199613
199584
199550
199515
199476
199429
199384
199328
199278
199220
199155
199091
199014
198934
198849
198761
198681
198595
198509
198433
198353
200322
204241
208253
210299
212748
217013
221365
223075
222727
222384
222047
221716
221394
221086
220789
220504
220231
219966
219715
219472
219249
219037
218827
218639
218463
218292
220529
223612
226497
226125
225730
225314
224870
224393
223875
223314
222713
222018
221404
220578
219307
733022
1.42487e+06
1.38676e+06
1.33675e+06
1.2912e+06
1.24785e+06
1.20697e+06
1.16691e+06
1.12916e+06
1.09273e+06
1.05866e+06
1.02568e+06
993917
963690
935151
908144
881720
856412
832315
809171
786694
765188
744478
724598
705582
687360
669855
602400
318832
200745
200675
200613
200558
200506
200453
200403
200349
200298
200246
200196
200145
200088
200034
199968
199907
199837
199768
199701
199623
199549
199463
199369
199276
199176
199083
199620
203463
207410
210455
212872
216349
220614
224949
224562
224189
223819
223456
223103
222751
222402
222059
221723
221398
221086
220784
220494
220213
219936
219671
219418
219167
218925
218699
218479
221187
224381
226273
225849
225410
224950
224466
223953
223409
222830
222216
221575
220855
220228
219396
218160
735274
1.41895e+06
1.38125e+06
1.33149e+06
1.28669e+06
1.24318e+06
1.2024e+06
1.16309e+06
1.1253e+06
1.08908e+06
1.05509e+06
1.02256e+06
991206
961103
932422
905431
879733
854703
830516
807393
785139
763920
743505
723790
704834
686640
669183
652384
357301
201067
201488
201396
201312
201232
201152
201073
200994
200918
200847
200774
200708
200635
200567
200486
200405
200324
200234
200155
200068
199977
199884
199776
203316
207179
210853
213279
216264
220453
224695
226542
226131
225725
225327
224931
224545
224170
223797
223428
223066
222705
222350
222002
221662
221332
221012
220701
220397
220102
219813
219528
219250
218978
218823
221878
225164
226150
225684
225203
224705
224191
223654
223094
222507
221892
221249
220589
219859
219228
218401
217201
736404
1.39774e+06
1.37541e+06
1.32601e+06
1.28157e+06
1.23828e+06
1.19776e+06
1.15877e+06
1.12118e+06
1.08538e+06
1.0513e+06
1.01895e+06
988097
958163
929724
902874
877176
852331
828526
805709
783595
762393
742067
722540
703779
685702
668340
651686
415494
213368
202276
202152
202039
201934
201830
201728
201627
201525
201431
201335
201250
201160
201072
200978
200877
200784
200681
200584
203904
207687
211559
214169
216964
220962
225109
228565
228261
227727
227312
226895
226484
226068
225656
225256
224859
224473
224093
223712
223333
222959
222589
222227
221874
221527
221189
220859
220532
220208
219892
219581
219273
219646
222536
225938
226127
225635
225129
224605
224067
223510
222933
222333
221714
221072
220410
219737
219001
218371
217548
216381
716339
1.3452e+06
1.35572e+06
1.32014e+06
1.27631e+06
1.233e+06
1.1926e+06
1.15408e+06
1.11676e+06
1.08128e+06
1.04755e+06
1.01507e+06
984465
955212
926652
899783
874527
850088
826369
803552
781589
760609
740514
721194
702637
684758
667494
650860
481463
245733
203057
202901
202758
202625
202498
202371
202248
202120
202003
201884
201775
201667
201554
201858
205413
209071
212822
215580
218457
222315
226340
230443
230268
229822
229376
228955
228498
228054
227645
227214
226794
226376
225954
225540
225135
224735
224339
223948
223557
223170
222790
222412
222040
221678
221321
220969
220623
220279
219934
219593
220181
223172
226663
226150
225630
225100
224556
224000
223432
222848
222248
221629
220992
220336
219664
218985
218251
217625
216810
215676
718514
1.31761e+06
1.30153e+06
1.29561e+06
1.27051e+06
1.22758e+06
1.1872e+06
1.14902e+06
1.1119e+06
1.07694e+06
1.04337e+06
1.01123e+06
980700
951481
923680
896903
871477
847124
823760
801374
779728
758850
738785
719557
701145
683446
666343
649861
549717
292640
203813
203623
203450
203288
203136
202983
202839
202690
202550
204785
208167
211656
215120
217859
220879
224651
228512
232463
232450
231993
231543
231082
230625
230174
229716
229266
228824
228377
227943
227507
227069
226638
226213
225787
225368
224956
224544
224138
223735
223335
222939
222550
222165
221783
221408
221037
220667
220299
219934
220686
223770
226781
226248
225709
225162
224604
224032
223447
222850
222240
221617
220981
220331
219667
218991
218309
217577
216953
216145
215043
720804
1.31759e+06
1.28721e+06
1.24123e+06
1.23324e+06
1.22565e+06
1.18176e+06
1.1436e+06
1.10689e+06
1.07213e+06
1.03896e+06
1.00696e+06
976637
947955
920157
893520
868383
844279
821060
798776
777328
756735
736916
717847
699551
681999
665052
648729
619834
328750
204551
204328
204127
203932
206378
209383
212506
215742
218600
221411
224712
228272
231922
235180
234702
234231
233759
233286
232824
232352
231886
231422
230947
230483
230022
229554
229097
228647
228195
227749
227309
226865
226427
225994
225561
225134
224713
224294
223876
223464
223051
222643
222243
221849
221455
221063
220673
220283
221127
224302
226934
226379
225819
225252
224681
224100
223510
222909
222296
221672
221036
220388
219730
219062
218385
217706
216979
216359
215556
214480
723002
1.31731e+06
1.287e+06
1.24707e+06
1.21183e+06
1.16764e+06
1.15371e+06
1.14219e+06
1.10415e+06
1.06752e+06
1.0342e+06
1.00264e+06
972297
943638
916462
890243
865148
841100
818055
796019
774845
754500
734880
715983
697823
680399
663559
647387
632023
387669
217616
216183
218912
221424
224028
227023
230173
233443
236814
237545
237053
236568
236077
235591
235100
234609
234128
233637
233156
232680
232194
231719
231242
230757
230285
229813
229335
228871
228412
227954
227502
227053
226602
226155
225713
225273
224835
224405
223976
223549
223126
222706
222288
221873
221464
221056
220647
221526
224776
227123
226553
225980
225400
224813
224219
223616
223005
222387
221760
221126
220482
219828
219164
218491
217812
217136
216417
215806
215015
213967
733349
1.31652e+06
1.28643e+06
1.24652e+06
1.21112e+06
1.17695e+06
1.14439e+06
1.10571e+06
1.06959e+06
1.04774e+06
1.03169e+06
1.00378e+06
972302
942664
914674
888083
863003
839161
816360
794613
773813
753967
735043
717058
700043
684087
673162
673915
672902
470150
253286
234974
237698
240563
240556
240045
239530
239020
238504
237994
237482
236979
236472
235967
235466
234954
234455
233957
233454
232965
232476
231980
231494
231003
230508
230024
229542
229059
228589
228125
227659
227198
226739
226278
225823
225373
224924
224475
224032
223593
223154
222719
222287
221858
221429
221003
221846
225168
227344
226758
226168
225576
224977
224373
223764
223149
222527
221896
221259
220616
219967
219308
218643
217970
217292
216615
215898
215290
214505
213484
749058
1.30045e+06
1.28542e+06
1.24561e+06
1.2102e+06
1.17604e+06
1.14363e+06
1.11238e+06
1.08267e+06
1.05405e+06
1.02369e+06
993915
965563
939301
914920
892037
870525
850292
831255
813475
796781
781113
766445
752881
740474
729214
719013
708641
695865
489400
259917
242700
242155
241617
241079
240548
240010
239479
238942
238411
237881
237357
236836
236308
235792
235271
234744
234236
233727
233215
232717
232213
231707
231208
230705
230200
229707
229217
228729
228252
227781
227307
226834
226365
225897
225430
224972
224517
224060
223605
223154
222705
222255
221809
221366
222089
225471
227575
226979
226381
225779
225170
224554
223933
223310
222683
222050
221412
220769
220120
219463
218802
218138
217469
216797
216128
215420
214817
214038
213038
735378
1.26625e+06
1.28412e+06
1.24438e+06
1.20907e+06
1.17493e+06
1.14248e+06
1.11151e+06
1.08185e+06
1.0534e+06
1.02625e+06
1.00035e+06
975781
952109
929375
907640
886924
867226
848379
830339
812938
796174
779985
764445
749580
735374
721647
708360
695581
481898
257853
243280
242703
242140
241574
241019
240460
239904
239347
238795
238250
237702
237166
236624
236080
235550
235013
234477
233962
233441
232919
232409
231893
231374
230863
230352
229840
229339
228844
228350
227863
227381
226897
226410
225931
225456
224983
224512
224046
223579
223113
222649
222187
221728
222255
225700
227833
227223
226611
225999
225383
224761
224133
223503
222869
222232
221591
220947
220297
219643
218985
218322
217655
216985
216315
215652
214953
214358
213589
212615
726799
1.24068e+06
1.25443e+06
1.24281e+06
1.20768e+06
1.17357e+06
1.1411e+06
1.11028e+06
1.08079e+06
1.05242e+06
1.02528e+06
999567
974730
951128
928591
906971
886297
866599
847699
829630
812256
795532
779363
763838
749006
734845
721183
707952
695181
475544
256425
243840
243229
242635
242044
241462
240880
240300
239725
239148
238585
238021
237458
236908
236348
235790
235249
234699
234157
233631
233099
232568
232046
231518
230987
230464
229946
229429
228920
228420
227920
227418
226923
226430
225938
225451
224969
224487
224006
223524
223046
222566
222087
222324
225818
228089
227470
226852
226231
225606
224976
224342
223703
223064
222424
221781
221135
220485
219833
219179
218521
217859
217195
216529
215862
215201
214506
213915
213154
212202
730026
1.20932e+06
1.22536e+06
1.23655e+06
1.20595e+06
1.17189e+06
1.13964e+06
1.10869e+06
1.07938e+06
1.05131e+06
1.02412e+06
998278
973646
950234
927715
906068
885341
865638
846790
828756
811403
794720
778609
763108
748302
734185
720569
707383
694611
470348
255528
244368
243728
243102
242486
241876
241273
240666
240074
239480
238887
238312
237729
237151
236586
236011
235445
234891
234333
233784
233247
232703
232159
231624
231089
230548
230016
229492
228970
228451
227939
227429
226919
226413
225912
225413
224917
224424
223935
223445
222953
222460
222328
225862
228360
227727
227095
226464
225833
225198
224560
223918
223274
222629
221981
221332
220682
220031
219377
218720
218061
217399
216738
216077
215417
214765
214079
213492
212738
211804
733177
1.21086e+06
1.19896e+06
1.2003e+06
1.20396e+06
1.17003e+06
1.13787e+06
1.10718e+06
1.07765e+06
1.0495e+06
1.02282e+06
997177
972428
948896
926453
904957
884290
864598
845785
827778
810428
793726
777652
762230
747493
733410
719777
706649
693923
466299
255059
244864
244198
243543
242901
242261
241638
241011
240389
239782
239168
238565
237974
237374
236785
236205
235620
235043
234480
233915
233356
232805
232252
231695
231148
230606
230061
229519
228988
228460
227932
227408
226890
226373
225858
225347
224839
224334
223830
223327
222823
222220
225792
228639
227997
227357
226717
226076
225430
224783
224136
223490
222843
222192
221541
220890
220238
219582
218926
218271
217613
216952
216292
215633
214977
214330
213651
213072
212327
211416
736171
1.21214e+06
1.18551e+06
1.17339e+06
1.17648e+06
1.1677e+06
1.13582e+06
1.10519e+06
1.07591e+06
1.04798e+06
1.02094e+06
995467
971002
947654
925263
903741
883040
863350
844573
826576
809244
792561
776540
761197
746522
732523
718900
705803
693164
463326
254935
245338
244643
243955
243290
242624
241969
241330
240681
240046
239423
238793
238179
237574
236963
236361
235770
235175
234588
234015
233443
232870
232306
231745
231183
230624
230072
229520
228971
228429
227894
227360
226825
226296
225771
225252
224734
224220
223705
223190
222642
225632
228921
228264
227613
226965
226317
225667
225016
224364
223711
223056
222401
221748
221097
220446
219791
219135
218479
217823
217165
216508
215854
215200
214548
213903
213229
212654
211917
211026
739104
1.21321e+06
1.18629e+06
1.15256e+06
1.14751e+06
1.15039e+06
1.13341e+06
1.10308e+06
1.07394e+06
1.04578e+06
1.01913e+06
993867
969503
946133
923673
902190
881598
861951
843198
825250
807994
791347
775321
760029
745399
731484
717955
704832
692286
461315
255119
245785
245062
244344
243645
242965
242277
241608
240949
240285
239640
239000
238359
237734
237118
236494
235879
235278
234678
234079
233493
232911
232331
231754
231185
230617
230050
229487
228929
228375
227824
227278
226733
226191
225653
225122
224595
224069
223542
223017
225363
229295
228555
227891
227227
226564
225905
225247
224591
223934
223276
222618
221959
221303
220648
219994
219341
218687
218031
217374
216718
216065
215414
214764
214118
213480
212814
212244
211512
210636
741985
1.21396e+06
1.18697e+06
1.15295e+06
1.12341e+06
1.11989e+06
1.12324e+06
1.10045e+06
1.07168e+06
1.04396e+06
1.0171e+06
991753
967600
944427
922059
900619
880068
860438
841714
823808
806606
790023
774011
758753
744154
730220
716846
703792
691150
460240
255622
246207
245447
244709
243975
243266
242560
241860
241179
240502
239827
239169
238521
237871
237233
236603
235970
235343
234730
234121
233513
232915
232326
231737
231150
230568
229992
229419
228848
228284
227723
227166
226610
226059
225513
224970
224429
223889
223353
224982
229048
228831
228158
227488
226820
226154
225489
224822
224156
223493
222833
222174
221515
220857
220202
219546
218889
218232
217577
216925
216275
215624
214975
214328
213685
213053
212395
211829
211105
210247
744717
1.21436e+06
1.18747e+06
1.15321e+06
1.12359e+06
1.0946e+06
1.09159e+06
1.09471e+06
1.06906e+06
1.0415e+06
1.01493e+06
989751
965686
942600
920286
898854
878328
858747
840065
822192
805015
788518
772577
757316
742834
728886
715428
702587
690016
460120
256368
246608
245807
245040
244288
243545
242811
242089
241379
240681
239994
239311
238643
237982
237324
236672
236029
235389
234753
234126
233509
232894
232287
231686
231090
230495
229904
229320
228739
228161
227587
227019
226456
225895
225339
224783
224231
223681
224502
228586
229123
228436
227752
227074
226401
225728
225056
224385
223718
223050
222383
221718
221060
220403
219749
219093
218436
217780
217126
216476
215827
215180
214536
213894
213256
212626
211971
211407
210691
209849
747238
1.21441e+06
1.18764e+06
1.15345e+06
1.12354e+06
1.09468e+06
1.06722e+06
1.06203e+06
1.06488e+06
1.03907e+06
1.01268e+06
987465
963404
940440
918266
896914
876441
856943
838321
820469
803260
786772
771017
755762
741242
727514
714039
701027
688695
460958
257395
246975
246153
245343
244567
243797
243020
242291
241567
240838
240127
239432
238740
238055
237382
236717
236055
235398
234750
234107
233472
232842
232220
231603
230993
230388
229787
229190
228598
228011
227429
226851
226276
225704
225136
224568
224005
223913
228001
229404
228714
228025
227342
226658
225975
225293
224616
223941
223269
222599
221930
221265
220602
219939
219280
218624
217973
217322
216672
216024
215378
214734
214094
213457
212824
212199
211550
210989
210277
209449
749622
1.21426e+06
1.18745e+06
1.15343e+06
1.12341e+06
1.09429e+06
1.06707e+06
1.0408e+06
1.03205e+06
1.03375e+06
1.00999e+06
985038
961109
938207
916089
894823
874426
854998
836389
818568
801477
784892
769118
754140
739619
725783
712551
699604
687089
462643
258789
247315
246467
245630
244810
244034
243247
242454
241708
240971
240235
239512
238804
238103
237411
236729
236055
235382
234717
234060
233411
232765
232127
231497
230873
230253
229637
229027
228424
227828
227239
226653
226067
225482
224903
224329
223525
227316
229686
228982
228285
227591
226902
226216
225530
224846
224162
223480
222803
222133
221468
220803
220138
219475
218816
218160
217505
216853
216206
215563
214922
214282
213646
213012
212383
211765
211122
210566
209862
209049
752016
1.21398e+06
1.1869e+06
1.15308e+06
1.12316e+06
1.09398e+06
1.06664e+06
1.0402e+06
1.01502e+06
1.00131e+06
1.00196e+06
982443
958585
935728
913692
892524
872159
852823
834358
816469
799433
783086
767197
752139
737929
724141
710729
697961
685616
465331
260477
247647
246750
245891
245038
244223
243123
242623
241824
241063
240309
239566
238836
238121
237414
236714
236022
235336
234656
233982
233316
232659
232009
231364
230726
230094
229467
228845
228231
227626
227027
226433
225831
225234
224649
224067
226522
230000
229262
228552
227847
227146
226449
225757
225065
224376
223690
223010
222333
221658
220987
220319
219656
218997
218343
217689
217035
216384
215737
215095
214457
213822
213191
212563
211939
211322
210683
210130
209435
208638
754464
1.21354e+06
1.18613e+06
1.15256e+06
1.12261e+06
1.0933e+06
1.06592e+06
1.03968e+06
1.01442e+06
990244
970081
969417
955812
933061
911080
890089
869875
850449
832078
814421
797264
780924
765348
750274
735904
722293
708987
696152
683959
468848
262524
247949
247027
246127
245251
244386
243564
242751
241931
241137
240361
239597
238849
238113
237389
236673
235965
235263
234569
233880
233197
232524
231861
231204
230550
229904
229266
228637
228013
227394
226782
226177
225567
224971
224374
225629
230107
229533
228811
228097
227390
226686
225984
225282
224584
223894
223208
222529
221852
221177
220504
219835
219168
218505
217847
217194
216546
215902
215258
214618
213983
213354
212728
212106
211485
210873
210239
209690
208999
208213
756871
1.21286e+06
1.18529e+06
1.15149e+06
1.12188e+06
1.09271e+06
1.06497e+06
1.03859e+06
1.01341e+06
989389
966426
938889
936579
934773
908441
887394
867389
848211
829664
812002
795120
778783
763174
748294
733944
720287
707145
694280
681991
473218
265048
248215
247264
246338
245433
244542
243670
242840
242012
241192
240394
239608
238838
238080
237336
236602
235878
235162
234452
233749
233055
232371
231692
231020
230354
229697
229047
228402
227766
227135
226517
225909
225293
224676
224634
229098
229816
229080
228351
227633
226918
226206
225496
224792
224095
223404
222713
222026
221346
220674
220007
219339
218673
218010
217352
216697
216047
215402
214763
214130
213503
212877
212252
211631
211015
210409
209784
209239
208552
207779
759106
1.21189e+06
1.18428e+06
1.15051e+06
1.1207e+06
1.09151e+06
1.06399e+06
1.03755e+06
1.01239e+06
988342
965356
943495
920479
903868
903862
884788
864665
845598
827313
809612
792706
776513
760914
746114
731972
718204
704964
692450
680231
478281
267921
248465
247477
246517
245584
244664
243779
242920
242063
241221
240399
239593
238801
238022
237261
236512
235770
235035
234309
233595
232887
232187
231495
230813
230138
229469
228805
228150
227503
226864
226223
225611
224767
224145
227968
230091
229342
228608
227879
227155
226430
225709
224996
224292
223593
222898
222206
221519
220836
220158
219485
218817
218156
217500
216847
216195
215545
214900
214263
213634
213010
212387
211767
211150
210538
209936
209313
208769
208090
207330
761187
1.21061e+06
1.18306e+06
1.14911e+06
1.11927e+06
1.09049e+06
1.06276e+06
1.0362e+06
1.01099e+06
987073
964098
942165
921265
901191
871629
869480
869317
842888
824695
807142
790205
774127
758713
743748
729578
716226
702986
690124
678130
484201
271303
248688
247672
246679
245716
244776
243857
242965
242088
241227
240382
239551
238738
237942
237163
236395
235637
234889
234149
233417
232693
231980
231276
230581
229893
229214
228543
227878
227218
226569
225923
225284
224662
226761
230415
229612
228862
228119
227383
226651
225923
225201
224486
223777
223072
222374
221685
221001
220318
219639
218964
218295
217631
216971
216317
215670
215028
214390
213757
213128
212503
211883
211270
210661
210054
209455
208835
208292
207619
206871
763046
1.20881e+06
1.18153e+06
1.14791e+06
1.11779e+06
1.08868e+06
1.06123e+06
1.03491e+06
1.00958e+06
985557
962770
940912
919860
899785
880343
860870
836206
835342
827271
804556
787828
771506
756095
741588
727391
713702
700689
688156
676008
490639
275202
248889
247842
246821
245827
244857
243914
242996
242095
241208
240340
239491
238659
237841
237040
236255
235481
234715
233958
233214
232478
231752
231033
230326
229629
228938
228253
227574
226905
226245
225592
224944
225428
230212
229894
229130
228372
227619
226873
226135
225406
224681
223962
223250
222544
221844
221148
220458
219775
219102
218434
217767
217101
216438
215784
215138
214497
213862
213232
212607
211986
211371
211422
212387
213334
214278
215168
216148
216930
217676
764865
1.20715e+06
1.1796e+06
1.14617e+06
1.1162e+06
1.08725e+06
1.05967e+06
1.03328e+06
1.00807e+06
984027
961192
939370
918322
898253
878857
860158
842249
819919
801346
801106
790232
769153
753668
738848
724931
711543
698359
685722
673795
497844
279629
249073
247994
246941
245917
244922
243949
242999
242073
241167
240278
239404
238551
237716
236898
236092
235298
234517
233746
232985
232233
231493
230766
230050
229340
228634
227937
227251
226572
225899
225231
224242
228761
230178
229395
228622
227859
227103
226355
225610
224874
224145
223426
222713
222006
221304
220605
219912
219226
218549
217877
217210
216549
215895
215246
215854
216933
217997
219046
220080
221098
221984
222720
223555
224495
225432
226318
227275
228077
228630
766652
1.20497e+06
1.17754e+06
1.14453e+06
1.1144e+06
1.08539e+06
1.05776e+06
1.03147e+06
1.00632e+06
982256
959419
937696
916712
896490
877065
858596
840727
823541
807182
784469
766523
766676
757667
736487
722362
708910
695970
683458
671420
505616
284677
249230
248119
247042
245987
244957
243958
242985
242035
241102
240187
239295
238425
237568
236726
235902
235096
234301
233510
232729
231964
231215
230476
229743
229019
228306
227601
226904
226211
225527
224853
227216
230467
229663
228878
228100
227332
226571
225816
225067
224330
223600
222877
222156
221445
220743
220049
219359
219836
221048
222239
223412
224568
225706
226658
227558
228580
229632
230667
231684
232684
233668
233924
233188
232457
231736
231006
230326
229577
228537
768562
1.20306e+06
1.17527e+06
1.14207e+06
1.11239e+06
1.08349e+06
1.05581e+06
1.02946e+06
1.00442e+06
980445
957606
935733
914788
894783
875328
856661
838937
821969
805433
789549
774458
753711
732113
732400
729161
707587
693439
680925
669038
514094
290287
249374
248230
247115
246027
244971
243948
242946
241966
241013
240083
239168
238270
237392
236536
235698
234870
234054
233249
232458
231682
230915
230160
229414
228681
227957
227239
226529
225827
225136
225586
230629
229932
229132
228346
227565
226789
226019
225260
224513
223774
223258
224623
225963
227282
228580
229854
230988
232060
233210
234387
235543
236676
237787
238877
238606
237817
237038
236264
235497
234740
233993
233255
232525
231799
231084
230362
229691
228951
227925
770287
1.20053e+06
1.17301e+06
1.14002e+06
1.11009e+06
1.08131e+06
1.05369e+06
1.02736e+06
1.00237e+06
978274
955505
933852
912809
892599
873380
854957
837026
819909
803604
787843
772597
757962
744026
727573
701879
698347
700561
683677
666701
523015
296461
249494
248310
247164
246052
244966
243908
242879
241880
240906
239950
239009
238090
237198
236326
235466
234616
233783
232968
232164
231369
230587
229822
229068
228321
227581
226851
226134
225426
224433
228858
230216
229395
228590
227794
227507
229021
230510
231974
233411
234804
236057
237335
238656
239954
241221
242460
243677
243629
242783
241948
241121
240300
239487
238684
237890
237103
236324
235554
234795
234048
233307
232573
231844
231123
230415
229703
229039
228307
227292
772111
1.19808e+06
1.17054e+06
1.13731e+06
1.10743e+06
1.07898e+06
1.05142e+06
1.02478e+06
999994
976290
953334
931413
910653
890687
871250
852732
835075
818071
801532
785821
770846
756178
742081
728758
715907
703591
681082
664697
666236
545098
304155
249586
248376
247199
246052
244934
243852
242803
241777
240770
239789
238834
237899
236983
236087
235211
234349
233501
232666
231845
231038
230245
229465
228695
227935
227186
226450
225723
225004
226997
232943
234585
236211
237804
239343
240811
242294
243755
245183
246580
247951
249065
248153
247251
246357
245470
244594
243729
242875
242030
241192
240365
239549
238744
237947
237155
236370
235595
234833
234081
233338
232600
231870
231148
230435
229735
229029
228366
227638
226636
773261
1.19479e+06
1.16757e+06
1.1349e+06
1.10481e+06
1.07599e+06
1.04891e+06
1.02258e+06
997481
973652
951049
929298
908308
888270
869085
850695
832955
815946
799598
783893
768743
754135
740194
726885
714016
701639
689661
678205
663829
534886
297561
254981
251496
248137
246029
244888
243780
242700
241646
240617
239615
238639
237682
236743
235828
234936
234058
233192
232341
231509
230692
229883
229084
228300
228364
230317
232229
234102
236497
244490
246790
248408
249989
251538
253056
254013
253030
252058
251092
250140
249205
248285
247372
246464
245567
244681
243810
242949
242096
241253
240421
239599
238787
237983
237186
236398
235621
234855
234099
233349