/*--------------------------------*- C++ -*----------------------------------*\
| =========                 |                                                 |
| \\      /  F ield         | foam-extend: Open Source CFD                    |
|  \\    /   O peration     | Version:     4.1                                |
|   \\  /    A nd           | Web:         http://www.foam-extend.org         |
|    \\/     M anipulation  |                                                 |
\*---------------------------------------------------------------------------*/
FoamFile
{
    version     2.0;
    format      ascii;
    class       volScalarField;
    location    "1";
    object      sigmaHyd;
}
// * * * * * * * * * * * * * * * * * * * * * * * * * * * * * * * * * * * * * //

dimensions      [1 -1 -2 0 0 0 0];

internalField   nonuniform List<scalar> 
100000
(
-47062.21296077281
-46941.77024116222
-46964.96619729435
-46914.78110712314
-46904.06406876555
-46874.05065090907
-46855.25314964318
-46831.74562450913
-46811.76370930543
-46790.97354688842
-46771.5840128069
-46752.40281981666
-46734.00978721311
-46716.0635276051
-46698.70526628471
-46681.82665297597
-46665.45026945614
-46649.53317054468
-46634.06817654976
-46619.02984819832
-46604.40405325594
-46590.17315484196
-46576.32142846817
-46562.83334282938
-46549.69492076703
-46536.89245440275
-46524.41249536679
-46512.2423238399
-46500.37044735668
-46488.78536554921
-46477.47610317499
-46466.43201786927
-46455.64283229384
-46445.0995275414
-46434.7930595323
-46424.71404707319
-46414.85422968106
-46405.20585690068
-46395.76085087741
-46386.51178457518
-46377.45194360035
-46368.57433207126
-46359.87197637328
-46351.33866516679
-46342.96858642781
-46334.7557827375
-46326.6944848564
-46318.77942540304
-46311.00550469814
-46303.36755971757
-46295.86064499272
-46288.48019717983
-46281.22181405887
-46274.08112374353
-46267.05389158687
-46260.1360912961
-46253.32386822119
-46246.61343027482
-46240.00104834328
-46233.48315405943
-46227.05638419079
-46220.71752852111
-46214.46345436692
-46208.29108361508
-46202.19743387964
-46196.17964635052
-46190.23495058625
-46184.36061990789
-46178.55399152482
-46172.81251734162
-46167.13376800736
-46161.51538946967
-46155.95506271494
-46150.45052833625
-46144.99965248651
-46139.60042403369
-46134.25088018832
-46128.94908804302
-46123.69322673787
-46118.48158884513
-46113.31258613579
-46108.18472043917
-46103.09681513784
-46098.04766695515
-46093.03694852723
-46088.06389717029
-46083.13082558463
-46078.2362703258
-46073.39116851126
-46068.58773171117
-46063.87057449202
-46059.19127295596
-46054.73370485723
-46050.23495568144
-46046.48943615313
-46042.15072229997
-46040.79314328708
-46035.69380273754
-46043.44629086261
-46015.60832118791
-48766.81957698664
-48604.70974537708
-48599.01618385344
-48514.74147117893
-48474.01995434155
-48413.20558955981
-48365.30077008284
-48313.03410374371
-48265.29647288581
-48217.37122349662
-48171.6246463464
-48126.74297130714
-48083.33217301776
-48041.00170088719
-47999.88286707836
-47959.84029597492
-47920.879709474
-47882.93582426014
-47845.98406380937
-47809.98130285877
-47774.89560143085
-47740.69252558556
-47707.34112659661
-47674.81052328752
-47643.07192539947
-47612.09742679287
-47581.86043292331
-47552.33508668774
-47523.49745385041
-47495.32396685861
-47467.79183788838
-47440.87993446404
-47414.56722557077
-47388.83360939495
-47363.66062371548
-47339.02979307533
-47314.92296820141
-47291.32347417904
-47268.21526716968
-47245.58246145356
-47223.40996387336
-47201.68338007365
-47180.38860127974
-47159.51198033351
-47139.04061588076
-47118.96210670897
-47099.26433501425
-47079.93561963937
-47060.9647981337
-47042.34104699826
-47024.0538260051
-47006.0930271633
-46988.44893925905
-46971.1121401221
-46954.07352041152
-46937.32428215048
-46920.85591322659
-46904.66015767898
-46888.72900806728
-46873.05472984469
-46857.62988372205
-46842.44729581512
-46827.50002424147
-46812.78133573116
-46798.28469213634
-46784.00375854514
-46769.93240578686
-46756.06467649613
-46742.39477467188
-46728.91710945291
-46715.62630607666
-46702.51715358107
-46689.58457294758
-46676.82365707047
-46664.22971474994
-46651.79823444979
-46639.5248420124
-46627.40530028445
-46615.43560658669
-46603.61192320515
-46591.9306953632
-46580.38839404797
-46568.98216450225
-46557.70868788981
-46546.56656646832
-46535.55194062136
-46524.66770603257
-46513.90551306703
-46503.28266104233
-46492.7705055277
-46482.44065377799
-46472.17573960854
-46462.25913393922
-46452.19968993538
-46443.13280193073
-46432.98816192253
-46426.40963684671
-46414.5829476849
-46416.9475661729
-46377.39539864027
-50470.54839521372
-50266.81216534496
-50232.25358560509
-50113.91233559786
-50043.20742365735
-49951.61011057525
-49874.61534293012
-49793.60764515854
-49718.13098357846
-49643.08644795893
-49570.99882288746
-49500.4323193712
-49432.01794574923
-49365.31744091977
-49300.4526512888
-49237.25934871955
-49175.72706408297
-49115.76954984988
-49057.34363098183
-49000.3879729443
-48944.85398336213
-48890.69040319764
-48837.8504594248
-48786.28789578893
-48735.9595430293
-48686.82332346241
-48638.83934068561
-48591.96847866688
-48546.17418628665
-48501.42165826883
-48457.67621608386
-48414.90496577688
-48373.07689403762
-48332.16180488039
-48292.13061293989
-48252.95546888142
-48214.60956907847
-48177.06705976614
-48140.30297362051
-48104.29347948739
-48069.01574868362
-48034.44742900675
-48000.56689603798
-47967.353592149
-47934.78775573255
-47902.85012129068
-47871.52211430504
-47840.78598372354
-47810.62456695851
-47781.02113205125
-47751.95947942276
-47723.42409919784
-47695.40005922406
-47667.87283990451
-47640.82837694527
-47614.25311693211
-47588.13396647562
-47562.4582204061
-47537.2135455724
-47512.38800189699
-47487.97009296744
-47463.9487413279
-47440.31320880228
-47417.05305574927
-47394.15816599779
-47371.61876408821
-47349.42538407829
-47327.56882505523
-47306.04014789021
-47284.83071221346
-47263.93219122372
-47243.3365308565
-47223.0359030749
-47203.02272744697
-47183.28973320028
-47163.82993560283
-47144.63659134947
-47125.70318330891
-47107.02356467384
-47088.59182215365
-47070.40252016685
-47052.45027047193
-47034.73086880448
-47017.23924325129
-46999.97373643782
-46982.92826433024
-46966.10857594902
-46949.5003564732
-46933.13377727035
-46916.9572199059
-46901.09064743479
-46885.32300567617
-46870.11682710061
-46854.60888385757
-46840.59760971474
-46824.59019156586
-46813.64156802963
-46793.76305742751
-46792.72543047441
-46736.92122171343
-52173.01142802844
-51927.685667511
-51864.28699029468
-51711.90655460759
-51611.24411378669
-51488.88990777254
-51382.82944759329
-51273.10468146887
-51169.9127278952
-51067.77168331154
-50969.3643583759
-50873.13451754417
-50779.73793209301
-50688.68709852025
-50600.09567000508
-50513.77120521323
-50429.68581264403
-50347.73229708803
-50267.8498514751
-50189.95852867472
-50113.99279784749
-50039.88470872437
-49967.57190734105
-49896.99283832121
-49828.08988250324
-49760.80643468763
-49695.08927215987
-49630.88705073801
-49568.15011549927
-49506.8312868623
-49446.88518282593
-49388.26773872368
-49330.93658666861
-49274.85158457582
-49219.97420166296
-49166.26666040455
-49113.69269192342
-49062.21794394873
-49011.80903300463
-48962.43355249098
-48914.06069095134
-48866.66070187034
-48820.20456020354
-48774.66436338734
-48730.0134650734
-48686.22606623974
-48643.27713526043
-48601.1426327201
-48559.79938829428
-48519.224895968
-48479.39735261015
-48440.2957976949
-48401.90002877079
-48364.19045636636
-48327.14810362167
-48290.75465673637
-48254.9924191955
-48219.84422202432
-48185.29342007012
-48151.32391075572
-48117.92014395852
-48085.0670954018
-48052.75022670745
-48020.95543521401
-47989.66903725384
-47958.87778763183
-47928.56887141801
-47898.72984924038
-47869.34863905494
-47840.41355671628
-47811.9133262964
-47783.83702775702
-47756.17405607562
-47728.9141492047
-47702.04743873628
-47675.56441136707
-47649.455876806
-47623.71294659973
-47598.32719459056
-47573.29046739356
-47548.59519328449
-47524.23377691608
-47500.20000566677
-47476.48640168874
-47453.08949560986
-47429.99992157841
-47407.2223153734
-47384.73622276649
-47362.5734095868
-47340.66707340463
-47319.14880828413
-47297.76490923133
-47277.02446430377
-47255.94244549573
-47236.47397520934
-47214.79330158189
-47198.41509407134
-47172.53909614649
-47166.04866050286
-47103.25894126582
-53873.78888367784
-53586.92191474605
-53494.71621559592
-53308.33403563423
-53177.74749046569
-53024.66994913004
-52889.57548407698
-52751.16476607021
-52620.28710513749
-52491.07912989367
-52366.38067730143
-52244.51460682507
-52126.16249919534
-52010.78766819283
-51898.49464927847
-51789.06330013135
-51682.44889861743
-51578.52282946124
-51477.20652502943
-51378.40145422798
-51282.0253750492
-51187.99387612526
-51096.22894986414
-51006.65309777464
-50919.19449852339
-50833.78318979854
-50750.35168530388
-50668.83558199235
-50589.17360177447
-50511.30627755764
-50435.17612930908
-50360.72846479531
-50287.91060482094
-50216.67170869684
-50146.9631796781
-50078.73809661646
-50011.95106935194
-49946.55856112119
-49882.51865174298
-49819.79094560388
-49758.33667018358
-49698.11826254998
-49639.09934218242
-49581.24496108777
-49524.52154701637
-49468.89660500946
-49414.33868667568
-49360.81756055787
-49308.30405449407
-49256.76984403872
-49206.18750959128
-49156.5306752684
-49107.77388653954
-49059.89248090035
-49012.8625781034
-48966.66109789171
-48921.2657369321
-48876.65489083507
-48832.80760800594
-48789.70359481148
-48747.32325569388
-48705.64765678567
-48664.65845574257
-48624.33785928255
-48584.66862079902
-48545.63404305232
-48507.21796144113
-48469.40469590499
-48432.1790217812
-48395.5261969432
-48359.43198262207
-48323.88259869577
-48288.86466719464
-48254.3652298052
-48220.37180937027
-48186.87236744514
-48153.85525956839
-48121.30919874641
-48089.22344797387
-48057.58759619508
-48026.39192973998
-47995.62667773643
-47965.28368294886
-47935.35321417245
-47905.83019484836
-47876.70233549702
-47847.97356182411
-47819.61796585353
-47791.66991825583
-47764.04864904925
-47736.9004847748
-47709.92958552709
-47683.70222066545
-47657.10135211502
-47632.28123053315
-47605.01373470126
-47583.45388974275
-47551.66015664661
-47540.3767577224
-47470.89480068496
-55572.47160908573
-55244.12024357587
-55123.14659608007
-54902.80720700099
-54742.33684248986
-54558.57686348543
-54394.48643132997
-54227.4279825391
-54068.90109045526
-53912.66135026755
-53761.70641146573
-53614.23802779723
-53470.96292261317
-53331.29572932254
-53195.33215000477
-53062.82414515338
-52933.71014127078
-52807.83984520297
-52685.11723765889
-52565.42571220539
-52448.66610853276
-52334.73665535836
-52223.54427815396
-52114.99667526243
-52009.00649760992
-51905.48998572297
-51804.36704276394
-51705.55985980129
-51608.99423487015
-51514.59923660969
-51422.3061289091
-51332.04872673355
-51243.76361839932
-51157.39007748463
-51072.86964617785
-50990.14560547302
-50909.16341726606
-50829.87088372306
-50752.21751922831
-50676.15459896359
-50601.63547029024
-50528.61498182468
-50457.04933929208
-50386.89644752788
-50318.11585839042
-50250.66843946921
-50184.51632503884
-50119.62307293832
-50055.95351667402
-49993.47353991435
-49932.15010438725
-49871.95142140945
-49812.84681053853
-49754.8065281306
-49697.80178081371
-49641.80475678477
-49586.78855933383
-49532.72712126245
-49479.59518688401
-49427.36830123862
-49376.02282187106
-49325.53589330887
-49275.88538397411
-49227.04982019345
-49179.00838200932
-49131.74092131949
-49085.22793532057
-49039.45049727704
-48994.3902277738
-48950.02932937413
-48906.35060068269
-48863.33738124069
-48820.97349390539
-48779.24326258501
-48738.13157393427
-48697.62383121013
-48657.70590494538
-48618.36407490118
-48579.58522239828
-48541.35657234449
-48503.66609991741
-48466.50166498921
-48429.85283658481
-48393.7073768431
-48358.0580166162
-48322.8894555076
-48288.20370669375
-48253.97031613291
-48220.22294616188
-48186.87193066636
-48154.06791685153
-48121.4944562118
-48089.74016591617
-48057.63462617879
-48027.41188818995
-47994.69804171415
-47967.90090742434
-47930.66641729252
-47914.50964394024
-47839.33165556801
-57268.64663405194
-56898.87619352386
-56749.18183674918
-56494.93756478497
-56304.63049354177
-56090.23701907089
-55897.19577090554
-55701.53388113671
-55515.40110443775
-55332.17201995283
-55155.00135301752
-54981.97016610298
-54813.81054553537
-54649.88876011543
-54490.29155891013
-54334.74231878281
-54183.16308834202
-54035.38261712276
-53891.28702456977
-53750.74070824928
-53613.62859534124
-53479.83240067043
-53349.24231787943
-53221.75132656049
-53097.25822991887
-52975.66471148402
-52856.87695432314
-52740.80476963651
-52627.36165835908
-52516.46432950619
-52408.03255340455
-52301.98942271644
-52198.26087533468
-52096.77572869544
-51997.46571447799
-51900.26474673267
-51805.10907452345
-51711.93759275695
-51620.69135663726
-51531.31347221848
-51443.74934282935
-51357.94617905566
-51273.85282316857
-51191.42006301879
-51110.60057550062
-51031.34859105155
-50953.61984574533
-50877.3717034396
-50802.56298864722
-50729.1538081917
-50657.10554660988
-50586.38098939059
-50516.94421451995
-50448.76043378564
-50381.79595688497
-50316.01821797837
-50251.39573573578
-50187.89801033341
-50125.49548003058
-50064.15951937852
-50003.86245219869
-49944.57750562925
-49886.27875065706
-49828.94104617993
-49772.54001744483
-49717.05205665763
-49662.45430694563
-49608.72460047768
-49555.84141386066
-49503.78389050129
-49452.53186169048
-49402.06579326832
-49352.36671349545
-49303.41621731721
-49255.19652901102
-49207.69046023835
-49160.88136495253
-49114.7530732001
-49069.29008616271
-49024.47728166378
-48980.30034764558
-48936.74483201698
-48893.7980804683
-48851.44542396381
-48809.67741865796
-48768.47593557232
-48727.84116584022
-48687.73874823863
-48648.20195522476
-48609.13386831169
-48570.68968481811
-48532.53543099729
-48495.28135354847
-48457.70875923429
-48422.12884496117
-48384.02638312549
-48352.06035943605
-48309.44951172367
-48288.49460122041
-48207.70116434052
-58961.90403037142
-58550.78822901451
-58372.42686421172
-58084.33947933178
-57864.24880116424
-57619.27710479528
-57397.33747594276
-57173.12385121525
-56959.43493965424
-56749.26485541698
-56545.92524812939
-56347.37730471603
-56154.37812630952
-55966.24478522847
-55783.05587495604
-55604.50694011382
-55430.50287094344
-55260.85068383872
-55095.42007265296
-54934.05685350206
-54776.62819295735
-54622.99989863683
-54473.04694559146
-54326.64656081149
-54183.68292452489
-54044.0442522007
-53907.62335286103
-53774.31679822211
-53644.02572976212
-53516.65519471108
-53392.11347205142
-53270.31248208592
-53151.16761841196
-53034.59756061541
-52920.52413305426
-52808.87172538573
-52699.56749379965
-52592.54152779457
-52487.72636922929
-52385.05695078963
-52284.47077754654
-52185.90743332873
-52089.30839956894
-51994.6173581218
-51901.78014160399
-51810.74435887076
-51721.45932744376
-51633.87623842051
-51547.94794994846
-51463.62877292171
-51380.87450559517
-51299.64255490236
-51219.89177443125
-51141.58230771888
-51064.67557616153
-50989.13428740131
-50914.92237477807
-50842.00490581498
-50770.34803234386
-50699.91896296248
-50630.68597984646
-50562.61840538792
-50495.68652894977
-50429.86153608137
-50365.11549421094
-50301.42135097056
-50238.75290191666
-50177.08472393137
-50116.39214002838
-50056.65123786916
-49997.83887687843
-49939.93263151142
-49882.91072781037
-49826.75204708967
-49771.4361700891
-49716.9433139977
-49663.25428522211
-49610.35041578415
-49558.21376543024
-49506.82680069964
-49456.17284626169
-49406.23509085258
-49356.99861587614
-49308.44638297475
-49260.56674646121
-49213.33895378437
-49166.76116791322
-49120.79568497768
-49075.47460563663
-49030.6958311358
-48986.61684938546
-48942.89281987525
-48900.14765402339
-48857.1330894552
-48816.21188373114
-48772.775033363
-48735.66056875294
-48687.76633458709
-48662.01442712874
-48575.73212845781
-60651.83312958116
-60199.45603897158
-59992.48703210175
-59670.62623084788
-59420.81263360832
-59145.32544723002
-58894.54683323844
-58641.83957185624
-58400.65033991094
-58163.59438680374
-57934.13943383104
-57710.12618416719
-57492.33779591775
-57280.04265331371
-57073.31003219811
-56871.80726815802
-56675.42388973614
-56483.94507453288
-56297.22224846789
-56115.08372121214
-55937.38007215109
-55763.9599876867
-55594.68280143279
-55429.41106396871
-55268.0144793205
-55110.36706160266
-54956.34829879638
-54805.84208112369
-54658.73712515378
-54514.92648843692
-54374.30710587838
-54236.77995974643
-54102.24980383997
-53970.62509881276
-53841.81787580662
-53715.74305020049
-53592.31864155168
-53471.46596294428
-53353.10908885406
-53237.17478490568
-53123.59266132744
-53012.29468955153
-52903.21502873638
-52796.29026786258
-52691.4593737577
-52588.66336707613
-52487.84519188108
-52388.94984152828
-52291.92420328806
-52196.71684394989
-52103.27799112859
-52011.55965336704
-51921.51547402204
-51833.10055428409
-51746.27142717037
-51660.98608185883
-51577.20388954427
-51494.88548311309
-51413.99271554882
-51334.48864686711
-51256.33754223154
-51179.50481873564
-51103.95697921835
-51029.66154599922
-50956.58703588307
-50884.70295003943
-50813.97974289883
-50744.38875164919
-50675.90215349435
-50608.49297851055
-50542.13511198893
-50476.80322914003
-50412.47272920743
-50349.11975002524
-50286.72122088022
-50225.2547855357
-50164.69873527063
-50105.03193539123
-50046.23403260877
-49988.28511106024
-49931.16614992204
-49874.85798482325
-49819.34340762956
-49764.60302073503
-49710.62300927411
-49657.38019054984
-49604.8708819012
-49553.05454805338
-49501.96229827731
-49451.48761057232
-49401.79000554379
-49352.51525884384
-49304.29961609825
-49255.86804699497
-49209.63040757408
-49160.88978635873
-49118.650479702
-49065.50321369961
-49034.95712040936
-48943.23875443872
-62338.0246010784
-61844.47959813768
-61608.96849067196
-61253.41228807887
-60973.94382017061
-60668.01052943459
-60388.45857941399
-60107.32324604144
-59838.69681341988
-59574.81571874235
-59319.30480607134
-59069.88483111179
-58827.36364141875
-58590.96090702654
-58360.73837733108
-58136.33458405083
-57917.6221535397
-57704.3658787258
-57496.39964729281
-57293.53301777564
-57095.59990564039
-56902.43282028804
-56713.87541909642
-56529.7750075318
-56349.98696275755
-56174.37152945472
-56002.79476717496
-55835.12767011734
-55671.24671167615
-55511.03311825356
-55354.37237380741
-55201.15449729666
-55051.27372060779
-54904.62830949402
-54761.12046929281
-54620.6556874697
-54483.14289030921
-54348.49462354127
-54216.62650157753
-54087.45713988256
-53960.90829603946
-53836.90433761967
-53715.37208455647
-53596.24108287589
-53479.44347899439
-53364.91367300526
-53252.58823438995
-53142.40601239284
-53034.30793972828
-52928.23682970613
-52824.1373603391
-52721.95615975023
-52621.64165494746
-52523.14392062157
-52426.41463473337
-52331.40706943725
-52238.07602266858
-52146.37771096754
-52056.26971110208
-51967.71093262269
-51880.66162235679
-51795.08331074213
-51710.93872928539
-51628.19173469021
-51546.80728866869
-51466.75144908274
-51387.9913337746
-51310.4950422587
-51234.23160741886
-51159.17100689579
-51085.2841670294
-51012.5428907046
-50940.9197738805
-50870.38820575855
-50800.92242757588
-50732.49746943186
-50665.08908394646
-50598.67365619409
-50533.22841088886
-50468.73106554477
-50405.1603006043
-50342.49467881738
-50280.71478263832
-50219.7989463894
-50159.73121204084
-50100.48605176675
-50042.05788264782
-49984.4035664159
-49927.55316679999
-49871.39654878865
-49816.09468369883
-49761.28580128142
-49707.61621706715
-49653.78861830283
-49602.25299456902
-49548.23531621658
-49500.88739706526
-49442.51952503389
-49407.17979870578
-49310.08782237427
-64020.06917637574
-63485.46031909577
-63221.4789394445
-62832.31286779936
-62523.26437132531
-62186.96254786792
-61878.71012040861
-61569.21763953
-61273.22329054352
-60982.58555438263
-60701.08429148325
-60426.32085136075
-60159.1295472828
-59898.68045048624
-59645.0265435505
-59397.77916688896
-59156.79432195289
-58921.81534517195
-58692.65876457398
-58469.11609928463
-58251.00447515699
-58038.13988997073
-57830.35053241436
-57627.46874011956
-57429.33541090114
-57235.79690880451
-57046.70607483604
-56861.92110667057
-56681.30613914735
-56504.73060066445
-56332.06863214527
-56163.19928475086
-55998.00625286057
-55836.37766650042
-55678.20594045826
-55523.38714671123
-55371.82113365512
-55223.41170657406
-55078.06606997158
-54935.69468989153
-54796.21145295648
-54659.53318326467
-54525.57940836981
-54394.27260247958
-54265.53810004798
-54139.30373035199
-54015.49969670649
-53894.05870365565
-53774.9157633834
-53658.0079536377
-53543.27439196231
-53430.65634283946
-53320.09705423317
-53211.54158009737
-53104.9367370923
-53000.23109865068
-52897.37490803969
-52796.31996484579
-52697.01957624127
-52599.42852427442
-52503.50304918332
-52409.20079023746
-52316.48071154174
-52225.30302358298
-52135.629150369
-52047.42171282852
-51960.64449404725
-51875.26235888741
-51791.24119461902
-51708.54791262162
-51627.15045984661
-51547.01776020096
-51468.11963035867
-51390.42675797113
-51313.91073808733
-51238.54400693547
-51164.29978830244
-51091.15199898283
-51019.0754411874
-50948.0454465995
-50878.03837409819
-50809.03050670846
-50741.00023490567
-50673.92370952022
-50607.78293693744
-50542.55022765812
-50478.21826259112
-50414.74150281167
-50352.14892337981
-50290.32714413546
-50229.4383327067
-50169.11382339278
-50110.00900500589
-50050.80568899117
-49993.9908392923
-49934.71774388768
-49882.27580647242
-49818.71082312425
-49778.57753416804
-49676.16710836548
-65697.559222996
-65122.00012587189
-64829.62680891547
-64406.94500757768
-64068.3984710116
-63701.81136176481
-63364.93833344353
-63027.16788804252
-62703.88087149407
-62386.55987879224
-62079.14084996971
-61779.10439060773
-61487.31049845018
-61202.88143400757
-60925.86124933611
-60655.8332954518
-60392.63731760874
-60135.99566203998
-59885.70730642566
-59641.54553851994
-59403.31092957229
-59170.80318496365
-58943.83489646679
-58722.22338984589
-58505.7952740859
-58294.38307863883
-58087.8263525182
-57885.97056869032
-57688.6676144976
-57495.77511890084
-57307.15589701555
-57122.67808727176
-56942.21486782111
-56765.6442533721
-56592.84888964384
-56423.71546828036
-56258.13481989446
-56096.00200547717
-55937.21580190778
-55781.67859282946
-55629.29643946241
-55479.97860217724
-55333.63733776893
-55190.18809150308
-55049.54938457905
-54911.64248541636
-54776.39128014536
-54643.7223468009
-54513.5647602953
-54385.84987906709
-54260.51130062827
-54137.48493650162
-54016.70885651314
-53898.12311696799
-53781.66969231538
-53667.29245535602
-53554.93710007314
-53444.551032965
-53336.08331005301
-53229.48459100764
-53124.70711465148
-53021.70463649673
-52920.43235649243
-52820.84684324949
-52722.90599489971
-52626.56901044184
-52531.79634923932
-52438.54965325585
-52346.79168683022
-52256.48632394912
-52167.59854372242
-52080.09436986162
-51993.94080008822
-51909.10579367421
-51825.5583027624
-51743.2681914922
-51662.20617595027
-51582.3437315266
-51503.65328611417
-51426.10784536422
-51349.68149762304
-51274.34828758175
-51200.08442430323
-51126.86388454806
-51054.66664097746
-50983.46285743249
-50913.24346897304
-50843.96077146326
-50775.64261142198
-50708.17262533837
-50641.71406775798
-50575.89183371513
-50511.3696223871
-50446.80991421455
-50384.733493432
-50320.22596367341
-50262.70420496253
-50193.96652910103
-50149.04149548561
-50041.36933868289
-67370.08774191959
-66753.70255620984
-66433.02224864696
-65976.92507491857
-65608.97008006301
-65212.18941820347
-64846.78169119304
-64480.81826869282
-64130.32141935822
-63786.39747263022
-63453.1382131741
-63127.90507951638
-62811.58288857815
-62503.24584570066
-62202.9295704851
-61910.18966531695
-61624.84941027616
-61346.61010195717
-61075.25342473477
-60810.53459276747
-60552.23747750103
-60300.14550301691
-60054.05586206825
-59813.77089419988
-59579.10287704037
-59349.87059420261
-59125.90037233402
-58907.02496547474
-58693.08404531422
-58483.92349949951
-58279.39485495842
-58079.35536019364
-57883.66767931385
-57692.19975479301
-57504.82454629027
-57321.41936409473
-57141.86600565421
-56966.05085395416
-56793.86429694774
-56625.20062814887
-56459.95812287827
-56298.03851547097
-56139.34678251135
-55983.79135765155
-55831.28400538938
-55681.73945065637
-55535.07524862844
-55391.21187447314
-55250.07250724447
-55111.58279356474
-54975.67081401568
-54842.26715765025
-54711.30474091515
-54582.71862101732
-54456.44593287124
-54332.42587197746
-54210.59960602278
-54090.91015837373
-53973.30233998286
-53857.72269853285
-53744.11948635978
-53632.44259349093
-53522.64347005029
-53414.67504833495
-53308.49170120974
-53204.04920823664
-53101.30470612109
-53000.21660613382
-52900.74454082535
-52802.84936053227
-52706.49312341936
-52611.63900852357
-52518.251224511
-52426.29500139775
-52335.73663982697
-52246.54343131674
-52158.68358490946
-52072.12612534285
-51986.84109886287
-51902.79919577291
-51819.97225848925
-51738.33214541462
-51657.85295974912
-51578.50656457981
-51500.27098015121
-51423.11434070286
-51347.02580699562
-51271.95550938039
-51197.93025900306
-51124.83064956721
-51052.82091761867
-50981.51986291658
-50911.59867815574
-50841.70178875689
-50774.38127945462
-50704.65939425329
-50642.07179326228
-50568.18511474149
-50518.47082999353
-50405.59291543306
-69037.24896911407
-68380.17074618445
-68031.27621809255
-67541.87286988448
-67144.60493057419
-66717.72884547852
-66323.87992866922
-65929.81541385183
-65552.19720544093
-65181.75721991702
-64822.74191837354
-64472.39406978305
-64131.62346970547
-63799.45639772627
-63475.91995568358
-63160.54198253019
-62853.12949049994
-62553.36286042558
-62261.00640311945
-61975.79734912069
-61697.50301761977
-61425.89052712283
-61160.74168187123
-60901.84394894719
-60648.99532778291
-60402.00086221543
-60160.67369556452
-59924.83393794887
-59694.30910465133
-59468.93335670325
-59248.54692298782
-59032.9962219411
-58822.1334962511
-58615.81661078142
-58413.90883765493
-58216.27817595417
-58022.79741595699
-57833.34426538277
-57647.80078298904
-57466.05320917271
-57287.9920179138
-57113.51143816394
-56942.5092260398
-56774.88682511295
-56610.54923981527
-56449.40468193712
-56291.36441169478
-56136.3428027836
-55984.25714539681
-55835.02741335746
-55688.5762018226
-55544.82878011447
-55403.71291558124
-55265.15868763501
-55129.09841258468
-54995.46662166732
-54864.19997092728
-54735.23711772388
-54608.51863792107
-54483.98697040848
-54361.58638627499
-54241.26292574697
-54122.96431291354
-54006.63986510834
-53892.24044314976
-53779.7184202036
-53669.02763265984
-53560.12328460383
-53452.96187719994
-53347.50120552692
-53243.70037078414
-53141.51970472701
-53040.92065768181
-52941.86576386308
-52844.31869491201
-52748.24419397827
-52653.60799507658
-52560.37670164425
-52468.51799728096
-52378.00027374507
-52288.79313424052
-52200.86624570991
-52114.19162864375
-52028.73907324094
-51944.48462562922
-51861.39444585561
-51779.45609784964
-51698.61749735099
-51618.90443828883
-51540.19471879412
-51462.65314858702
-51385.89289310241
-51310.59180622717
-51235.377445238
-51162.83070552081
-51087.91486075022
-51020.27575568637
-50941.26444654409
-50886.76433212091
-50768.73729077604
-70698.63960221857
-70001.01086893234
-69624.00064596529
-69101.40773131247
-68674.93038336298
-68218.06411935683
-67795.8733972183
-67373.80658051599
-66969.16227771813
-66572.29921659452
-66187.61810875474
-65812.24363820432
-65447.11042424112
-65091.19681153825
-64744.52159252655
-64406.58496898912
-64077.1775919042
-63755.95905166963
-63442.67641362308
-63137.04892318813
-62838.82740640613
-62547.7627760289
-62263.62149821817
-61986.17618680136
-61715.2105895021
-61450.51608567562
-61191.8927258589
-60939.14800877067
-60692.0972823213
-60450.56303535171
-60214.37428256657
-59983.36661840179
-59757.38189541426
-59536.26797106474
-59319.87843240625
-59108.07197606819
-58900.71246516863
-58697.66897425813
-58498.81521990728
-58304.0294143463
-58113.194287051
-57926.1965806568
-57742.92683592693
-57563.27954789358
-57387.15300015334
-57214.44889245548
-57045.07219754578
-56878.93122685944
-56715.93741608971
-56556.00507649495
-56399.05132766254
-56244.99613959081
-56093.76214937153
-55945.27447384916
-55799.46062991594
-55656.25050439733
-55515.57625481075
-55377.37218435013
-55241.57465148092
-55108.12200621062
-54976.95455116848
-54848.01448046757
-54721.24579437736
-54596.59420135836
-54474.00705675219
-54353.4333298534
-54234.82356217995
-54118.12977711587
-54003.30539745036
-53890.30521763251
-53779.08540036026
-53669.60341068533
-53561.81792251534
-53455.68878133452
-53351.17704194954
-53248.24490144699
-53146.85562613555
-53046.97341926159
-52948.56362036567
-52851.5923421856
-52756.02699187357
-52661.83507253134
-52568.98650515071
-52477.44906110824
-52387.19687527261
-52298.19404826149
-52210.42653204394
-52123.84023879379
-52038.45972921485
-51954.16024291144
-51871.10700362552
-51788.90785223265
-51708.24664169562
-51627.73518192226
-51549.98077703873
-51469.89201490433
-51397.21639794442
-51313.10551560227
-51253.82358630886
-51130.70443039136
-72353.85618968627
-71615.82923066552
-71210.80942276678
-70655.15094778231
-70199.57401986109
-69712.83066475163
-69262.40448663736
-68812.44038010061
-68380.87150514917
-67957.68477393707
-67547.43429956208
-67147.12716524734
-66757.7229321874
-66378.15204028558
-66008.42489780046
-65648.0143358612
-65296.69474833955
-64954.10489774861
-64619.97464708853
-64294.00537360578
-63975.93151506058
-63665.48781555514
-63362.42540218981
-63066.50210465534
-62777.48752844388
-62495.15943764052
-62219.3047907474
-61949.71853459797
-61686.20392464317
-61428.57178041284
-61176.63995777118
-60930.23331157166
-60689.18330068263
-60453.32778509766
-60222.51074999682
-59996.58163335905
-59775.39537171177
-59558.81244528171
-59346.69828156741
-59138.92307486798
-58935.36182047056
-58735.8938296469