/*--------------------------------*- C++ -*----------------------------------*\
| =========                 |                                                 |
| \\      /  F ield         | foam-extend: Open Source CFD                    |
|  \\    /   O peration     | Version:     4.1                                |
|   \\  /    A nd           | Web:         http://www.foam-extend.org         |
|    \\/     M anipulation  |                                                 |
\*---------------------------------------------------------------------------*/
FoamFile
{
    version     2.0;
    format      ascii;
    class       vectorField;
    location    "10";
    object      solidsCellD_iteration210;
}
// * * * * * * * * * * * * * * * * * * * * * * * * * * * * * * * * * * * * * //


100000
(
(5.74679e-06 -2.38422e-06 1.17072e-06)
(5.69995e-06 -2.3522e-06 1.19072e-06)
(5.65517e-06 -2.32166e-06 1.21002e-06)
(5.61237e-06 -2.29266e-06 1.22794e-06)
(5.57149e-06 -2.26509e-06 1.2448e-06)
(5.53242e-06 -2.23889e-06 1.26059e-06)
(5.49509e-06 -2.21399e-06 1.2754e-06)
(5.45943e-06 -2.19033e-06 1.28927e-06)
(5.42538e-06 -2.16786e-06 1.30227e-06)
(5.39285e-06 -2.14652e-06 1.31445e-06)
(5.36179e-06 -2.12626e-06 1.32584e-06)
(5.33215e-06 -2.10704e-06 1.33651e-06)
(5.30385e-06 -2.08879e-06 1.34649e-06)
(5.27686e-06 -2.07149e-06 1.35582e-06)
(5.25111e-06 -2.05509e-06 1.36456e-06)
(5.22656e-06 -2.03955e-06 1.37272e-06)
(5.20316e-06 -2.02483e-06 1.38035e-06)
(5.18087e-06 -2.01089e-06 1.38747e-06)
(5.15965e-06 -1.99772e-06 1.39412e-06)
(5.13944e-06 -1.98526e-06 1.40033e-06)
(5.12023e-06 -1.9735e-06 1.40613e-06)
(5.10196e-06 -1.96239e-06 1.41153e-06)
(5.08461e-06 -1.95193e-06 1.41656e-06)
(5.06814e-06 -1.94207e-06 1.42126e-06)
(5.05252e-06 -1.93279e-06 1.42564e-06)
(5.03772e-06 -1.92407e-06 1.42971e-06)
(5.02371e-06 -1.91589e-06 1.4335e-06)
(5.01045e-06 -1.90823e-06 1.43704e-06)
(4.99794e-06 -1.90106e-06 1.44033e-06)
(4.98613e-06 -1.89436e-06 1.44341e-06)
(4.975e-06 -1.88812e-06 1.44626e-06)
(4.96455e-06 -1.88232e-06 1.44893e-06)
(4.95473e-06 -1.87695e-06 1.45139e-06)
(4.94551e-06 -1.87197e-06 1.45369e-06)
(4.9369e-06 -1.86738e-06 1.45584e-06)
(4.92886e-06 -1.86316e-06 1.45783e-06)
(4.92139e-06 -1.8593e-06 1.45969e-06)
(4.91445e-06 -1.85579e-06 1.46143e-06)
(4.90804e-06 -1.85261e-06 1.46305e-06)
(4.90213e-06 -1.84975e-06 1.46457e-06)
(4.8967e-06 -1.8472e-06 1.466e-06)
(4.89175e-06 -1.84494e-06 1.46735e-06)
(4.88726e-06 -1.84297e-06 1.46863e-06)
(4.88321e-06 -1.84127e-06 1.46983e-06)
(4.87959e-06 -1.83983e-06 1.47097e-06)
(4.87639e-06 -1.83865e-06 1.47206e-06)
(4.87359e-06 -1.83771e-06 1.4731e-06)
(4.87118e-06 -1.83701e-06 1.4741e-06)
(4.86915e-06 -1.83653e-06 1.47507e-06)
(4.86748e-06 -1.83627e-06 1.47601e-06)
(4.86618e-06 -1.83622e-06 1.47693e-06)
(4.86521e-06 -1.83638e-06 1.47783e-06)
(4.86459e-06 -1.83673e-06 1.47872e-06)
(4.86428e-06 -1.83726e-06 1.4796e-06)
(4.8643e-06 -1.83798e-06 1.48049e-06)
(4.86462e-06 -1.83887e-06 1.48137e-06)
(4.86523e-06 -1.83993e-06 1.48227e-06)
(4.86614e-06 -1.84115e-06 1.48317e-06)
(4.86732e-06 -1.84253e-06 1.4841e-06)
(4.86878e-06 -1.84406e-06 1.48059e-06)
(4.8705e-06 -1.84573e-06 1.47623e-06)
(4.87247e-06 -1.84754e-06 1.47194e-06)
(4.8747e-06 -1.84948e-06 1.46773e-06)
(4.87717e-06 -1.85156e-06 1.4636e-06)
(4.87987e-06 -1.85376e-06 1.45953e-06)
(4.8828e-06 -1.85607e-06 1.45554e-06)
(4.88595e-06 -1.85851e-06 1.45162e-06)
(4.88932e-06 -1.86105e-06 1.44777e-06)
(4.8929e-06 -1.86371e-06 1.444e-06)
(4.89668e-06 -1.86646e-06 1.44031e-06)
(4.90066e-06 -1.86932e-06 1.43668e-06)
(4.90484e-06 -1.87227e-06 1.43314e-06)
(4.9092e-06 -1.87531e-06 1.42967e-06)
(4.91374e-06 -1.87844e-06 1.42627e-06)
(4.91846e-06 -1.88166e-06 1.42294e-06)
(4.92335e-06 -1.88495e-06 1.41968e-06)
(4.92841e-06 -1.88833e-06 1.4165e-06)
(4.93363e-06 -1.89178e-06 1.41338e-06)
(4.93902e-06 -1.89531e-06 1.41034e-06)
(4.94455e-06 -1.8989e-06 1.40737e-06)
(4.95024e-06 -1.90256e-06 1.40447e-06)
(4.95607e-06 -1.90629e-06 1.40163e-06)
(4.96204e-06 -1.91007e-06 1.39886e-06)
(4.96815e-06 -1.91392e-06 1.39614e-06)
(4.97439e-06 -1.91782e-06 1.39349e-06)
(4.98077e-06 -1.92178e-06 1.39089e-06)
(4.98727e-06 -1.92579e-06 1.38835e-06)
(4.9939e-06 -1.92986e-06 1.38586e-06)
(5.00064e-06 -1.93396e-06 1.38342e-06)
(5.00751e-06 -1.93812e-06 1.38103e-06)
(5.01449e-06 -1.94232e-06 1.37868e-06)
(5.02157e-06 -1.94656e-06 1.37635e-06)
(5.02877e-06 -1.95084e-06 1.37405e-06)
(5.03607e-06 -1.95515e-06 1.37176e-06)
(5.04347e-06 -1.95951e-06 1.36946e-06)
(5.05098e-06 -1.96389e-06 1.36713e-06)
(5.05858e-06 -1.96832e-06 1.36477e-06)
(5.06627e-06 -1.97277e-06 1.3623e-06)
(5.07406e-06 -1.97725e-06 1.36007e-06)
(5.08195e-06 -1.98177e-06 1.3579e-06)
(5.70017e-06 -2.40351e-06 1.02965e-06)
(5.65284e-06 -2.37214e-06 1.04688e-06)
(5.60758e-06 -2.34221e-06 1.06354e-06)
(5.56434e-06 -2.3138e-06 1.07894e-06)
(5.52303e-06 -2.28678e-06 1.09341e-06)
(5.48356e-06 -2.26111e-06 1.10691e-06)
(5.44585e-06 -2.23672e-06 1.11954e-06)
(5.40983e-06 -2.21355e-06 1.13134e-06)
(5.37542e-06 -2.19154e-06 1.14236e-06)
(5.34257e-06 -2.17064e-06 1.15265e-06)
(5.3112e-06 -2.1508e-06 1.16224e-06)
(5.28125e-06 -2.13197e-06 1.17119e-06)
(5.25267e-06 -2.11411e-06 1.17954e-06)
(5.2254e-06 -2.09717e-06 1.1873e-06)
(5.19939e-06 -2.08112e-06 1.19454e-06)
(5.17459e-06 -2.06591e-06 1.20128e-06)
(5.15096e-06 -2.05151e-06 1.20754e-06)
(5.12844e-06 -2.03789e-06 1.21336e-06)
(5.10699e-06 -2.025e-06 1.21876e-06)
(5.08659e-06 -2.01283e-06 1.22378e-06)
(5.06717e-06 -2.00133e-06 1.22843e-06)
(5.04872e-06 -1.99049e-06 1.23274e-06)
(5.03118e-06 -1.98027e-06 1.23673e-06)
(5.01454e-06 -1.97064e-06 1.24042e-06)
(4.99875e-06 -1.96159e-06 1.24383e-06)
(4.98378e-06 -1.95309e-06 1.24698e-06)
(4.96962e-06 -1.94512e-06 1.24989e-06)
(4.95622e-06 -1.93766e-06 1.25258e-06)
(4.94356e-06 -1.93068e-06 1.25506e-06)
(4.93161e-06 -1.92417e-06 1.25735e-06)
(4.92036e-06 -1.9181e-06 1.25946e-06)
(4.90978e-06 -1.91247e-06 1.26143e-06)
(4.89981e-06 -1.90725e-06 1.26316e-06)
(4.89047e-06 -1.90244e-06 1.26475e-06)
(4.88176e-06 -1.898e-06 1.26628e-06)
(4.87361e-06 -1.89393e-06 1.26765e-06)
(4.86603e-06 -1.89021e-06 1.26892e-06)
(4.85899e-06 -1.88683e-06 1.27009e-06)
(4.85247e-06 -1.88378e-06 1.27116e-06)
(4.84647e-06 -1.88104e-06 1.27214e-06)
(4.84095e-06 -1.87861e-06 1.27306e-06)
(4.83591e-06 -1.87647e-06 1.27391e-06)
(4.83132e-06 -1.8746e-06 1.2747e-06)
(4.82719e-06 -1.87301e-06 1.27543e-06)
(4.82348e-06 -1.87168e-06 1.27612e-06)
(4.8202e-06 -1.87059e-06 1.27677e-06)
(4.81731e-06 -1.86975e-06 1.27739e-06)
(4.81482e-06 -1.86914e-06 1.27959e-06)
(4.81272e-06 -1.86876e-06 1.28965e-06)
(4.81098e-06 -1.86858e-06 1.29864e-06)
(4.80959e-06 -1.86862e-06 1.3066e-06)
(4.80856e-06 -1.86885e-06 1.31357e-06)
(4.80786e-06 -1.86928e-06 1.31958e-06)
(4.80749e-06 -1.86989e-06 1.32467e-06)
(4.80743e-06 -1.87069e-06 1.32888e-06)
(4.80768e-06 -1.87165e-06 1.33223e-06)
(4.80823e-06 -1.87278e-06 1.33477e-06)
(4.80907e-06 -1.87407e-06 1.33653e-06)
(4.81018e-06 -1.87551e-06 1.33612e-06)
(4.81158e-06 -1.8771e-06 1.33097e-06)
(4.81323e-06 -1.87883e-06 1.32516e-06)
(4.81514e-06 -1.8807e-06 1.31871e-06)
(4.81731e-06 -1.88271e-06 1.31166e-06)
(4.81971e-06 -1.88484e-06 1.30402e-06)
(4.82235e-06 -1.88709e-06 1.29581e-06)
(4.82522e-06 -1.88946e-06 1.28706e-06)
(4.82831e-06 -1.89195e-06 1.27778e-06)
(4.83162e-06 -1.89455e-06 1.268e-06)
(4.83514e-06 -1.89725e-06 1.25773e-06)
(4.83886e-06 -1.90006e-06 1.24699e-06)
(4.84278e-06 -1.90296e-06 1.23581e-06)
(4.8469e-06 -1.90596e-06 1.22683e-06)
(4.8512e-06 -1.90904e-06 1.22306e-06)
(4.85568e-06 -1.91222e-06 1.21937e-06)
(4.86034e-06 -1.91548e-06 1.21575e-06)
(4.86517e-06 -1.91882e-06 1.2122e-06)
(4.87017e-06 -1.92224e-06 1.20872e-06)
(4.87534e-06 -1.92573e-06 1.20532e-06)
(4.88066e-06 -1.9293e-06 1.20198e-06)
(4.88613e-06 -1.93293e-06 1.19871e-06)
(4.89176e-06 -1.93664e-06 1.19551e-06)
(4.89753e-06 -1.9404e-06 1.19237e-06)
(4.90344e-06 -1.94423e-06 1.18929e-06)
(4.90949e-06 -1.94811e-06 1.18627e-06)
(4.91568e-06 -1.95205e-06 1.1833e-06)
(4.92199e-06 -1.95605e-06 1.18038e-06)
(4.92843e-06 -1.9601e-06 1.17751e-06)
(4.935e-06 -1.9642e-06 1.17469e-06)
(4.94169e-06 -1.96834e-06 1.1719e-06)
(4.94849e-06 -1.97253e-06 1.16915e-06)
(4.9554e-06 -1.97676e-06 1.16643e-06)
(4.96243e-06 -1.98104e-06 1.16373e-06)
(4.96957e-06 -1.98535e-06 1.16104e-06)
(4.9768e-06 -1.98971e-06 1.15835e-06)
(4.98414e-06 -1.9941e-06 1.15565e-06)
(4.99158e-06 -1.99852e-06 1.15295e-06)
(4.99912e-06 -2.00297e-06 1.15026e-06)
(5.00675e-06 -2.00746e-06 1.14753e-06)
(5.01447e-06 -2.01198e-06 1.14516e-06)
(5.02229e-06 -2.01652e-06 1.14249e-06)
(5.65322e-06 -2.42267e-06 8.88414e-07)
(5.6054e-06 -2.39196e-06 9.0284e-07)
(5.5597e-06 -2.36266e-06 9.16835e-07)
(5.51603e-06 -2.33484e-06 9.29704e-07)
(5.47431e-06 -2.30839e-06 9.41758e-07)
(5.43444e-06 -2.28327e-06 9.5297e-07)
(5.39637e-06 -2.25939e-06 9.63407e-07)
(5.35999e-06 -2.23671e-06 9.73116e-07)
(5.32525e-06 -2.21518e-06 9.82155e-07)
(5.29208e-06 -2.19473e-06 9.90542e-07)
(5.2604e-06 -2.17532e-06 9.98327e-07)
(5.23017e-06 -2.1569e-06 1.00554e-06)
(5.20131e-06 -2.13943e-06 1.01224e-06)
(5.17378e-06 -2.12287e-06 1.01843e-06)
(5.14752e-06 -2.10718e-06 1.02416e-06)
(5.12248e-06 -2.09231e-06 1.02946e-06)
(5.09861e-06 -2.07824e-06 1.03435e-06)
(5.07588e-06 -2.06493e-06 1.03886e-06)
(5.05422e-06 -2.05234e-06 1.04301e-06)
(5.03361e-06 -2.04046e-06 1.04682e-06)
(5.01401e-06 -2.02923e-06 1.05032e-06)
(4.99537e-06 -2.01865e-06 1.05353e-06)
(4.97766e-06 -2.00868e-06 1.05647e-06)
(4.96084e-06 -1.9993e-06 1.05915e-06)
(4.94489e-06 -1.99048e-06 1.06159e-06)
(4.92977e-06 -1.9822e-06 1.06382e-06)
(4.91545e-06 -1.97445e-06 1.06584e-06)
(4.90191e-06 -1.96718e-06 1.06767e-06)
(4.88911e-06 -1.9604e-06 1.06933e-06)
(4.87703e-06 -1.95408e-06 1.07082e-06)
(4.86565e-06 -1.9482e-06 1.07217e-06)
(4.85493e-06 -1.94273e-06 1.07338e-06)
(4.84486e-06 -1.93768e-06 1.07446e-06)
(4.83542e-06 -1.93302e-06 1.07542e-06)
(4.82659e-06 -1.92874e-06 1.07627e-06)
(4.81833e-06 -1.92482e-06 1.07702e-06)
(4.81065e-06 -1.92124e-06 1.07768e-06)
(4.8035e-06 -1.918e-06 1.07826e-06)
(4.79689e-06 -1.91508e-06 1.07877e-06)
(4.79078e-06 -1.91247e-06 1.07922e-06)
(4.78517e-06 -1.91016e-06 1.07962e-06)
(4.78004e-06 -1.90813e-06 1.07996e-06)
(4.77537e-06 -1.90638e-06 1.09153e-06)
(4.77115e-06 -1.9049e-06 1.10718e-06)
(4.76736e-06 -1.90367e-06 1.12155e-06)
(4.76399e-06 -1.90269e-06 1.1347e-06)
(4.76103e-06 -1.90195e-06 1.14667e-06)
(4.75847e-06 -1.90143e-06 1.15749e-06)
(4.75628e-06 -1.90114e-06 1.16723e-06)
(4.75447e-06 -1.90105e-06 1.1759e-06)
(4.75301e-06 -1.90117e-06 1.18356e-06)
(4.75191e-06 -1.90149e-06 1.19024e-06)
(4.75114e-06 -1.902e-06 1.19598e-06)
(4.75069e-06 -1.90269e-06 1.2008e-06)
(4.75057e-06 -1.90355e-06 1.20475e-06)
(4.75075e-06 -1.90459e-06 1.20786e-06)
(4.75123e-06 -1.90579e-06 1.21016e-06)
(4.75201e-06 -1.90714e-06 1.21168e-06)
(4.75306e-06 -1.90865e-06 1.20883e-06)
(4.75439e-06 -1.91031e-06 1.20342e-06)
(4.75598e-06 -1.9121e-06 1.19737e-06)
(4.75783e-06 -1.91403e-06 1.19069e-06)
(4.75993e-06 -1.9161e-06 1.18341e-06)
(4.76227e-06 -1.91829e-06 1.17555e-06)
(4.76485e-06 -1.9206e-06 1.16713e-06)
(4.76766e-06 -1.92302e-06 1.15817e-06)
(4.77069e-06 -1.92556e-06 1.14869e-06)
(4.77394e-06 -1.92821e-06 1.13871e-06)
(4.7774e-06 -1.93097e-06 1.12825e-06)
(4.78106e-06 -1.93382e-06 1.11733e-06)
(4.78492e-06 -1.93677e-06 1.10596e-06)
(4.78897e-06 -1.93982e-06 1.09416e-06)
(4.79322e-06 -1.94295e-06 1.08195e-06)
(4.79764e-06 -1.94617e-06 1.06934e-06)
(4.80224e-06 -1.94948e-06 1.05635e-06)
(4.80701e-06 -1.95286e-06 1.043e-06)
(4.81195e-06 -1.95632e-06 1.02929e-06)
(4.81706e-06 -1.95986e-06 1.01525e-06)
(4.82232e-06 -1.96347e-06 1.00088e-06)
(4.82773e-06 -1.96714e-06 9.89663e-07)
(4.8333e-06 -1.97089e-06 9.86169e-07)
(4.83901e-06 -1.97469e-06 9.82736e-07)
(4.84487e-06 -1.97855e-06 9.79361e-07)
(4.85086e-06 -1.98248e-06 9.7604e-07)
(4.85698e-06 -1.98646e-06 9.72769e-07)
(4.86323e-06 -1.99049e-06 9.69546e-07)
(4.86962e-06 -1.99458e-06 9.66369e-07)
(4.87612e-06 -1.99871e-06 9.63234e-07)
(4.88275e-06 -2.00289e-06 9.60137e-07)
(4.88949e-06 -2.00712e-06 9.57073e-07)
(4.89634e-06 -2.01139e-06 9.54037e-07)
(4.90331e-06 -2.0157e-06 9.51023e-07)
(4.91038e-06 -2.02005e-06 9.48027e-07)
(4.91755e-06 -2.02443e-06 9.45048e-07)
(4.92483e-06 -2.02886e-06 9.42088e-07)
(4.93221e-06 -2.03331e-06 9.39154e-07)
(4.93968e-06 -2.0378e-06 9.36282e-07)
(4.94724e-06 -2.04232e-06 9.33427e-07)
(4.95489e-06 -2.04688e-06 9.30939e-07)
(4.96264e-06 -2.05145e-06 9.28197e-07)
(5.60593e-06 -2.4417e-06 7.47001e-07)
(5.55765e-06 -2.41166e-06 7.5861e-07)
(5.51151e-06 -2.38299e-06 7.69932e-07)
(5.46743e-06 -2.35579e-06 7.8025e-07)
(5.42531e-06 -2.32993e-06 7.89882e-07)
(5.38508e-06 -2.30536e-06 7.98787e-07)
(5.34664e-06 -2.28201e-06 8.07026e-07)
(5.30993e-06 -2.25984e-06 8.14634e-07)
(5.27487e-06 -2.23878e-06 8.21666e-07)
(5.24139e-06 -2.21879e-06 8.28145e-07)
(5.20942e-06 -2.19982e-06 8.34109e-07)
(5.17891e-06 -2.18182e-06 8.39588e-07)
(5.14978e-06 -2.16476e-06 8.44624e-07)
(5.122e-06 -2.14858e-06 8.49241e-07)
(5.0955e-06 -2.13325e-06 8.53454e-07)
(5.07023e-06 -2.11873e-06 8.57311e-07)
(5.04614e-06 -2.105e-06 8.60814e-07)
(5.02319e-06 -2.09201e-06 8.64003e-07)
(5.00134e-06 -2.07973e-06 8.66891e-07)
(4.98053e-06 -2.06813e-06 8.69499e-07)
(4.96074e-06 -2.05719e-06 8.7184e-07)
(4.94193e-06 -2.04688e-06 8.73948e-07)
(4.92405e-06 -2.03717e-06 8.75824e-07)
(4.90707e-06 -2.02803e-06 8.7749e-07)
(4.89096e-06 -2.01945e-06 8.7896e-07)
(4.87569e-06 -2.0114e-06 8.80252e-07)
(4.86123e-06 -2.00386e-06 8.81378e-07)
(4.84755e-06 -1.9968e-06 8.8235e-07)
(4.83462e-06 -1.99022e-06 8.83183e-07)
(4.82241e-06 -1.98409e-06 8.83887e-07)
(4.8109e-06 -1.97839e-06 8.84471e-07)
(4.80007e-06 -1.97311e-06 8.84945e-07)
(4.78988e-06 -1.96822e-06 8.85325e-07)
(4.78033e-06 -1.96372e-06 8.85612e-07)
(4.77139e-06 -1.9596e-06 8.85812e-07)
(4.76303e-06 -1.95583e-06 8.85937e-07)
(4.75524e-06 -1.9524e-06 8.85996e-07)
(4.748e-06 -1.94929e-06 8.85996e-07)
(4.74129e-06 -1.94651e-06 8.96137e-07)
(4.73509e-06 -1.94403e-06 9.16903e-07)
(4.72939e-06 -1.94184e-06 9.36205e-07)
(4.72417e-06 -1.93993e-06 9.54104e-07)
(4.71942e-06 -1.9383e-06 9.70644e-07)
(4.71511e-06 -1.93693e-06 9.85879e-07)
(4.71124e-06 -1.93581e-06 9.99853e-07)
(4.7078e-06 -1.93493e-06 1.01262e-06)
(4.70476e-06 -1.93428e-06 1.02421e-06)
(4.70212e-06 -1.93386e-06 1.03469e-06)
(4.69986e-06 -1.93366e-06 1.04409e-06)
(4.69797e-06 -1.93367e-06 1.04401e-06)
(4.69644e-06 -1.93387e-06 1.04022e-06)
(4.69527e-06 -1.93427e-06 1.0363e-06)
(4.69443e-06 -1.93486e-06 1.03227e-06)
(4.69392e-06 -1.93563e-06 1.02813e-06)
(4.69372e-06 -1.93657e-06 1.02389e-06)
(4.69384e-06 -1.93768e-06 1.01957e-06)
(4.69426e-06 -1.93895e-06 1.01516e-06)
(4.69497e-06 -1.94038e-06 1.01063e-06)
(4.69596e-06 -1.94195e-06 1.00485e-06)
(4.69722e-06 -1.94367e-06 9.99024e-07)
(4.69875e-06 -1.94553e-06 9.93148e-07)
(4.70054e-06 -1.94753e-06 9.87231e-07)
(4.70258e-06 -1.94965e-06 9.81276e-07)
(4.70486e-06 -1.95189e-06 9.75287e-07)
(4.70738e-06 -1.95426e-06 9.6927e-07)
(4.71013e-06 -1.95674e-06 9.63228e-07)
(4.7131e-06 -1.95934e-06 9.57165e-07)
(4.71628e-06 -1.96204e-06 9.51085e-07)
(4.71968e-06 -1.96484e-06 9.44993e-07)
(4.72328e-06 -1.96775e-06 9.3889e-07)
(4.72709e-06 -1.97075e-06 9.32782e-07)
(4.73108e-06 -1.97384e-06 9.26669e-07)
(4.73526e-06 -1.97702e-06 9.20555e-07)
(4.73963e-06 -1.98029e-06 9.14441e-07)
(4.74417e-06 -1.98364e-06 9.08331e-07)
(4.74888e-06 -1.98707e-06 9.02227e-07)
(4.75376e-06 -1.99057e-06 8.96129e-07)
(4.75881e-06 -1.99415e-06 8.83481e-07)
(4.76401e-06 -1.9978e-06 8.6896e-07)
(4.76937e-06 -2.00152e-06 8.5413e-07)
(4.77487e-06 -2.0053e-06 8.39004e-07)
(4.78053e-06 -2.00914e-06 8.236e-07)
(4.78632e-06 -2.01305e-06 8.07929e-07)
(4.79225e-06 -2.01701e-06 7.92002e-07)
(4.79831e-06 -2.02102e-06 7.75833e-07)
(4.8045e-06 -2.02509e-06 7.59411e-07)
(4.81083e-06 -2.02922e-06 7.55005e-07)
(4.81727e-06 -2.03339e-06 7.51588e-07)
(4.82384e-06 -2.03761e-06 7.48211e-07)
(4.83052e-06 -2.04187e-06 7.44873e-07)
(4.83731e-06 -2.04617e-06 7.41568e-07)
(4.84421e-06 -2.05052e-06 7.38295e-07)
(4.85122e-06 -2.0549e-06 7.35055e-07)
(4.85833e-06 -2.05932e-06 7.31853e-07)
(4.86554e-06 -2.06378e-06 7.28694e-07)
(4.87286e-06 -2.06827e-06 7.25594e-07)
(4.88026e-06 -2.0728e-06 7.22584e-07)
(4.88776e-06 -2.07735e-06 7.19628e-07)
(4.89535e-06 -2.08193e-06 7.17028e-07)
(4.90303e-06 -2.08654e-06 7.14188e-07)
(5.55831e-06 -2.46058e-06 6.05429e-07)
(5.50959e-06 -2.43123e-06 6.14204e-07)
(5.46304e-06 -2.40322e-06 6.22845e-07)
(5.41855e-06 -2.37665e-06 6.30603e-07)
(5.37606e-06 -2.35137e-06 6.37796e-07)
(5.33547e-06 -2.32737e-06 6.44377e-07)
(5.29669e-06 -2.30456e-06 6.5041e-07)
(5.25965e-06 -2.28291e-06 6.55903e-07)
(5.22428e-06 -2.26234e-06 6.60928e-07)
(5.1905e-06 -2.24282e-06 6.65487e-07)
(5.15826e-06 -2.2243e-06 6.69628e-07)
(5.12747e-06 -2.20673e-06 6.73359e-07)
(5.0981e-06 -2.19008e-06 6.76726e-07)
(5.07007e-06 -2.17429e-06 6.79749e-07)
(5.04333e-06 -2.15933e-06 6.82444e-07)
(5.01784e-06 -2.14518e-06 6.84846e-07)
(4.99354e-06 -2.13178e-06 6.86966e-07)
(4.97039e-06 -2.11912e-06 6.88824e-07)
(4.94834e-06 -2.10715e-06 6.90442e-07)
(4.92736e-06 -2.09585e-06 6.91842e-07)
(4.90739e-06 -2.0852e-06 6.93022e-07)
(4.8884e-06 -2.07516e-06 6.94013e-07)
(4.87036e-06 -2.06571e-06 6.94825e-07)
(4.85322e-06 -2.05683e-06 6.95473e-07)
(4.83697e-06 -2.04849e-06 6.95968e-07)
(4.82155e-06 -2.04067e-06 6.96322e-07)
(4.80695e-06 -2.03335e-06 6.96548e-07)
(4.79314e-06 -2.02651e-06 6.96656e-07)
(4.78008e-06 -2.02013e-06 6.96658e-07)
(4.76774e-06 -2.01419e-06 6.96565e-07)
(4.75612e-06 -2.00868e-06 6.96385e-07)
(4.74517e-06 -2.00358e-06 6.96126e-07)
(4.73487e-06 -1.99886e-06 6.95797e-07)
(4.72521e-06 -1.99453e-06 6.95405e-07)
(4.71616e-06 -1.99057e-06 6.94953e-07)
(4.70771e-06 -1.98695e-06 7.06493e-07)
(4.69982e-06 -1.98366e-06 7.31433e-07)
(4.69248e-06 -1.9807e-06 7.54754e-07)
(4.68568e-06 -1.97805e-06 7.76512e-07)
(4.6794e-06 -1.9757e-06 7.96776e-07)
(4.67361e-06 -1.97364e-06 8.15596e-07)
(4.66831e-06 -1.97186e-06 8.28254e-07)
(4.66347e-06 -1.97034e-06 8.25135e-07)
(4.65908e-06 -1.96908e-06 8.21832e-07)
(4.65513e-06 -1.96807e-06 8.18356e-07)
(4.65161e-06 -1.9673e-06 8.14716e-07)
(4.6485e-06 -1.96675e-06 8.10924e-07)
(4.64578e-06 -1.96643e-06 8.06989e-07)
(4.64345e-06 -1.96632e-06 8.02921e-07)
(4.64149e-06 -1.96642e-06 7.98728e-07)
(4.63989e-06 -1.96671e-06 7.94422e-07)
(4.63865e-06 -1.9672e-06 7.90005e-07)
(4.63774e-06 -1.96787e-06 7.85491e-07)
(4.63716e-06 -1.96872e-06 7.8088e-07)
(4.63691e-06 -1.96974e-06 7.76186e-07)
(4.63696e-06 -1.97092e-06 7.71411e-07)
(4.63731e-06 -1.97226e-06 7.66564e-07)
(4.63796e-06 -1.97376e-06 7.61166e-07)
(4.63888e-06 -1.9754e-06 7.54964e-07)
(4.64008e-06 -1.97719e-06 7.4872e-07)
(4.64155e-06 -1.97911e-06 7.42436e-07)
(4.64328e-06 -1.98116e-06 7.36118e-07)
(4.64526e-06 -1.98335e-06 7.29769e-07)
(4.64748e-06 -1.98565e-06 7.23394e-07)
(4.64994e-06 -1.98808e-06 7.16996e-07)
(4.65263e-06 -1.99062e-06 7.10578e-07)
(4.65554e-06 -1.99326e-06 7.04146e-07)
(4.65867e-06 -1.99602e-06 6.97702e-07)
(4.662e-06 -1.99887e-06 6.91249e-07)
(4.66555e-06 -2.00183e-06 6.84791e-07)
(4.66929e-06 -2.00488e-06 6.78331e-07)
(4.67323e-06 -2.00802e-06 6.7187e-07)
(4.67735e-06 -2.01125e-06 6.65411e-07)
(4.68165e-06 -2.01456e-06 6.58955e-07)
(4.68614e-06 -2.01795e-06 6.52505e-07)
(4.69079e-06 -2.02143e-06 6.46063e-07)
(4.69561e-06 -2.02497e-06 6.39629e-07)
(4.7006e-06 -2.02859e-06 6.33209e-07)
(4.70574e-06 -2.03228e-06 6.268e-07)
(4.71104e-06 -2.03604e-06 6.20401e-07)
(4.71649e-06 -2.03987e-06 6.14015e-07)
(4.72208e-06 -2.04375e-06 6.07652e-07)
(4.72781e-06 -2.04769e-06 6.01302e-07)
(4.73368e-06 -2.05169e-06 5.94971e-07)
(4.73968e-06 -2.05574e-06 5.88647e-07)
(4.74582e-06 -2.05985e-06 5.82323e-07)
(4.75208e-06 -2.06401e-06 5.76023e-07)
(4.75846e-06 -2.06822e-06 5.6974e-07)
(4.76497e-06 -2.07247e-06 5.6347e-07)
(4.77158e-06 -2.07677e-06 5.57206e-07)
(4.77831e-06 -2.08111e-06 5.3958e-07)
(4.78515e-06 -2.08549e-06 5.2558e-07)
(4.7921e-06 -2.08991e-06 5.2214e-07)
(4.79915e-06 -2.09437e-06 5.18757e-07)
(4.8063e-06 -2.09886e-06 5.15439e-07)
(4.81354e-06 -2.10338e-06 5.12201e-07)
(4.82088e-06 -2.10794e-06 5.0907e-07)
(4.82832e-06 -2.11252e-06 5.06009e-07)
(4.83584e-06 -2.11714e-06 5.03284e-07)
(4.84345e-06 -2.12178e-06 5.00332e-07)
(5.51037e-06 -2.47933e-06 4.39627e-07)
(5.46123e-06 -2.45068e-06 4.53474e-07)
(5.41427e-06 -2.42334e-06 4.66994e-07)
(5.3694e-06 -2.3974e-06 4.79137e-07)
(5.32655e-06 -2.37273e-06 4.85514e-07)
(5.28561e-06 -2.34931e-06 4.89761e-07)
(5.24651e-06 -2.32705e-06 4.9358e-07)
(5.20916e-06 -2.30592e-06 4.96958e-07)
(5.17349e-06 -2.28586e-06 4.99958e-07)
(5.13943e-06 -2.26682e-06 5.02591e-07)
(5.10691e-06 -2.24876e-06 5.04894e-07)
(5.07588e-06 -2.23163e-06 5.06874e-07)
(5.04625e-06 -2.21538e-06 5.08566e-07)
(5.01799e-06 -2.2e-06 5.0999e-07)
(4.99104e-06 -2.18542e-06 5.1116e-07)
(4.96533e-06 -2.17163e-06 5.12103e-07)
(4.94083e-06 -2.15858e-06 5.12828e-07)
(4.91749e-06 -2.14625e-06 5.13358e-07)
(4.89525e-06 -2.1346e-06 5.13701e-07)
(4.87409e-06 -2.12361e-06 5.1388e-07)
(4.85395e-06 -2.11325e-06 5.13895e-07)
(4.8348e-06 -2.10349e-06 5.13772e-07)
(4.8166e-06 -2.09431e-06 5.13516e-07)
(4.79931e-06 -2.08568e-06 5.1314e-07)
(4.78291e-06 -2.07759e-06 5.12653e-07)
(4.76736e-06 -2.07e-06 5.12065e-07)
(4.75263e-06 -2.06291e-06 5.11386e-07)
(4.73868e-06 -2.05629e-06 5.10627e-07)
(4.7255e-06 -2.05011e-06 5.09797e-07)
(4.71305e-06 -2.04438e-06 5.08905e-07)
(4.70131e-06 -2.03906e-06 5.07957e-07)
(4.69025e-06 -2.03414e-06 5.06959e-07)
(4.67984e-06 -2.0296e-06 5.05921e-07)
(4.67008e-06 -2.02544e-06 5.34232e-07)
(4.66093e-06 -2.02163e-06 5.6198e-07)
(4.65238e-06 -2.01817e-06 5.88006e-07)
(4.6444e-06 -2.01504e-06 6.03222e-07)
(4.63697e-06 -2.01222e-06 6.00433e-07)
(4.63008e-06 -2.00971e-06 5.97421e-07)
(4.62371e-06 -2.00749e-06 5.94201e-07)
(4.61784e-06 -2.00556e-06 5.90783e-07)
(4.61245e-06 -2.0039e-06 5.87182e-07)
(4.60753e-06 -2.0025e-06 5.83407e-07)
(4.60307e-06 -2.00136e-06 5.79469e-07)
(4.59904e-06 -2.00045e-06 5.75379e-07)
(4.59545e-06 -1.99979e-06 5.71143e-07)
(4.59226e-06 -1.99935e-06 5.66775e-07)
(4.58947e-06 -1.99912e-06 5.62279e-07)
(4.58707e-06 -1.99911e-06 5.57669e-07)
(4.58504e-06 -1.9993e-06 5.52948e-07)
(4.58338e-06 -1.99968e-06 5.48129e-07)
(4.58206e-06 -2.00026e-06 5.43213e-07)
(4.58109e-06 -2.00101e-06 5.38214e-07)
(4.58045e-06 -2.00194e-06 5.33131e-07)
(4.58013e-06 -2.00304e-06 5.27975e-07)
(4.58011e-06 -2.00429e-06 5.22751e-07)
(4.5804e-06 -2.00571e-06 5.17465e-07)
(4.58099e-06 -2.00728e-06 5.11221e-07)
(4.58185e-06 -2.00899e-06 5.04595e-07)
(4.58299e-06 -2.01084e-06 4.97933e-07)
(4.5844e-06 -2.01283e-06 4.91241e-07)
(4.58606e-06 -2.01494e-06 4.84522e-07)
(4.58798e-06 -2.01719e-06 4.77779e-07)
(4.59014e-06 -2.01955e-06 4.71017e-07)
(4.59254e-06 -2.02203e-06 4.64239e-07)
(4.59517e-06 -2.02463e-06 4.57448e-07)
(4.59802e-06 -2.02733e-06 4.50647e-07)
(4.60109e-06 -2.03014e-06 4.4384e-07)
(4.60437e-06 -2.03305e-06 4.37029e-07)
(4.60786e-06 -2.03605e-06 4.30217e-07)
(4.61154e-06 -2.03915e-06 4.23407e-07)
(4.61542e-06 -2.04234e-06 4.166e-07)
(4.61948e-06 -2.04561e-06 4.09798e-07)
(4.62373e-06 -2.04897e-06 4.03003e-07)
(4.62815e-06 -2.05241e-06 3.96212e-07)
(4.63275e-06 -2.05593e-06 3.88539e-07)
(4.63751e-06 -2.05952e-06 3.80878e-07)
(4.64244e-06 -2.06318e-06 3.73241e-07)
(4.64752e-06 -2.06692e-06 3.65613e-07)
(4.65276e-06 -2.07071e-06 3.58022e-07)
(4.65815e-06 -2.07458e-06 3.50433e-07)
(4.66369e-06 -2.0785e-06 3.42877e-07)
(4.66936e-06 -2.08248e-06 3.35337e-07)
(4.67517e-06 -2.08652e-06 3.27836e-07)
(4.6811e-06 -2.0906e-06 3.20375e-07)
(4.68718e-06 -2.09475e-06 3.12895e-07)
(4.69338e-06 -2.09895e-06 3.05429e-07)
(4.69971e-06 -2.1032e-06 2.99206e-07)
(4.70615e-06 -2.10749e-06 2.93359e-07)
(4.7127e-06 -2.11182e-06 2.87526e-07)
(4.71937e-06 -2.11619e-06 2.81704e-07)
(4.72614e-06 -2.12061e-06 2.75897e-07)
(4.73303e-06 -2.12506e-06 2.70107e-07)
(4.74001e-06 -2.12955e-06 2.64339e-07)
(4.7471e-06 -2.13408e-06 2.58596e-07)
(4.75428e-06 -2.13864e-06 2.52887e-07)
(4.76156e-06 -2.14323e-06 2.47228e-07)
(4.76893e-06 -2.14785e-06 2.41578e-07)
(4.77638e-06 -2.1525e-06 2.37238e-07)
(4.78393e-06 -2.15716e-06 2.33366e-07)
(5.46211e-06 -2.49793e-06 2.36722e-07)
(5.41256e-06 -2.47e-06 2.46391e-07)
(5.36522e-06 -2.44334e-06 2.55954e-07)
(5.31999e-06 -2.41805e-06 2.64317e-07)
(5.27679e-06 -2.394e-06 2.71965e-07)
(5.23552e-06 -2.37117e-06 2.78776e-07)
(5.1961e-06 -2.34947e-06 2.84896e-07)
(5.15846e-06 -2.32888e-06 2.90294e-07)
(5.1225e-06 -2.30933e-06 2.95063e-07)
(5.08818e-06 -2.29078e-06 2.99213e-07)
(5.0554e-06 -2.27318e-06 3.02809e-07)
(5.02412e-06 -2.25649e-06 3.05877e-07)
(4.99426e-06 -2.24068e-06 3.08435e-07)
(4.96578e-06 -2.2257e-06 3.10543e-07)
(4.93861e-06 -2.21151e-06 3.12211e-07)
(4.9127e-06 -2.19809e-06 3.13485e-07)
(4.88801e-06 -2.1854e-06 3.14377e-07)
(4.86448e-06 -2.17341e-06 3.14916e-07)
(4.84207e-06 -2.16208e-06 3.15125e-07)
(4.82073e-06 -2.1514e-06 3.15038e-07)
(4.80043e-06 -2.14134e-06 3.14658e-07)
(4.78112e-06 -2.13187e-06 3.14013e-07)
(4.76278e-06 -2.12296e-06 3.1312e-07)
(4.74535e-06 -2.11459e-06 3.11997e-07)
(4.72881e-06 -2.10675e-06 3.10664e-07)
(4.71312e-06 -2.0994e-06 3.09134e-07)
(4.69826e-06 -2.09254e-06 3.07422e-07)
(4.6842e-06 -2.08613e-06 3.05539e-07)
(4.67089e-06 -2.08017e-06 3.03502e-07)
(4.65833e-06 -2.07464e-06 3.01326e-07)
(4.64648e-06 -2.06951e-06 3.04183e-07)
(4.63531e-06 -2.06478e-06 3.36103e-07)
(4.62481e-06 -2.06042e-06 3.66027e-07)
(4.61495e-06 -2.05643e-06 3.63305e-07)
(4.6057e-06 -2.05279e-06 3.59911e-07)
(4.59705e-06 -2.04949e-06 3.56244e-07)
(4.58898e-06 -2.04651e-06 3.52321e-07)
(4.58147e-06 -2.04384e-06 3.48155e-07)
(4.57449e-06 -2.04147e-06 3.44791e-07)
(4.56803e-06 -2.03939e-06 3.42137e-07)
(4.56208e-06 -2.03758e-06 3.39308e-07)
(4.55662e-06 -2.03605e-06 3.36312e-07)
(4.55162e-06 -2.03477e-06 3.3316e-07)
(4.54708e-06 -2.03374e-06 3.29859e-07)
(4.54298e-06 -2.03295e-06 3.26419e-07)
(4.53931e-06 -2.03239e-06 3.22846e-07)
(4.53605e-06 -2.03206e-06 3.19151e-07)
(4.53319e-06 -2.03193e-06 3.15337e-07)
(4.53072e-06 -2.03202e-06 3.11417e-07)
(4.52863e-06 -2.0323e-06 3.07148e-07)
(4.5269e-06 -2.03278e-06 3.01913e-07)
(4.52552e-06 -2.03344e-06 2.96582e-07)
(4.52448e-06 -2.03427e-06 2.91165e-07)
(4.52378e-06 -2.03528e-06 2.85667e-07)
(4.52339e-06 -2.03646e-06 2.80093e-07)
(4.52332e-06 -2.03779e-06 2.74453e-07)
(4.52354e-06 -2.03928e-06 2.68654e-07)
(4.52406e-06 -2.04092e-06 2.61634e-07)
(4.52487e-06 -2.0427e-06 2.54572e-07)
(4.52595e-06 -2.04462e-06 2.47475e-07)
(4.5273e-06 -2.04667e-06 2.40344e-07)
(4.5289e-06 -2.04885e-06 2.33186e-07)
(4.53076e-06 -2.05116e-06 2.26004e-07)
(4.53286e-06 -2.05358e-06 2.18801e-07)
(4.5352e-06 -2.05612e-06 2.1158e-07)
(4.53777e-06 -2.05877e-06 2.04346e-07)
(4.54057e-06 -2.06153e-06 1.971e-07)
(4.54358e-06 -2.06439e-06 1.89847e-07)
(4.5468e-06 -2.06735e-06 1.82589e-07)
(4.55023e-06 -2.07041e-06 1.75327e-07)
(4.55385e-06 -2.07356e-06 1.68065e-07)
(4.55767e-06 -2.07679e-06 1.60805e-07)
(4.56168e-06 -2.08012e-06 1.53547e-07)
(4.56586e-06 -2.08352e-06 1.46294e-07)
(4.57023e-06 -2.08701e-06 1.39046e-07)
(4.57477e-06 -2.09057e-06 1.31809e-07)
(4.57947e-06 -2.09421e-06 1.2457e-07)
(4.58434e-06 -2.09791e-06 1.17363e-07)
(4.58935e-06 -2.10169e-06 1.10124e-07)
(4.59454e-06 -2.10552e-06 1.0298e-07)
(4.59989e-06 -2.10942e-06 9.58505e-08)
(4.60535e-06 -2.11339e-06 8.86469e-08)
(4.61096e-06 -2.11741e-06 8.15088e-08)
(4.6167e-06 -2.1215e-06 7.43431e-08)
(4.62258e-06 -2.12562e-06 6.72686e-08)
(4.62861e-06 -2.12978e-06 6.0287e-08)
(4.63476e-06 -2.13402e-06 5.32229e-08)
(4.64101e-06 -2.1383e-06 4.61432e-08)
(4.64739e-06 -2.14263e-06 3.91104e-08)
(4.65388e-06 -2.147e-06 3.20897e-08)
(4.66048e-06 -2.15141e-06 2.51027e-08)
(4.66719e-06 -2.15586e-06 1.81416e-08)
(4.67401e-06 -2.16035e-06 1.12131e-08)
(4.68093e-06 -2.16487e-06 4.32175e-09)
(4.68795e-06 -2.16943e-06 -2.52948e-09)
(4.69507e-06 -2.17402e-06 -9.33373e-09)
(4.70228e-06 -2.17865e-06 -2.55891e-08)
(4.70959e-06 -2.1833e-06 -4.84819e-08)
(4.71698e-06 -2.18799e-06 -7.15554e-08)
(4.72446e-06 -2.19268e-06 -9.46654e-08)
(5.41352e-06 -2.51639e-06 -4.79278e-08)
(5.36359e-06 -2.48919e-06 -3.69127e-08)
(5.31588e-06 -2.46322e-06 -2.60063e-08)
(5.2703e-06 -2.43859e-06 -1.69981e-08)
(5.22678e-06 -2.41517e-06 -9.05252e-09)
(5.18519e-06 -2.39294e-06 -2.43482e-09)
(5.14548e-06 -2.37182e-06 3.12656e-09)
(5.10755e-06 -2.35177e-06 7.57886e-09)
(5.07133e-06 -2.33274e-06 1.10535e-08)
(5.03674e-06 -2.31469e-06 1.35879e-08)
(5.00372e-06 -2.29757e-06 1.5239e-08)
(4.97221e-06 -2.28133e-06 1.60889e-08)
(4.94213e-06 -2.26595e-06 1.616e-08)
(4.91343e-06 -2.25139e-06 1.55108e-08)
(4.88606e-06 -2.2376e-06 1.42043e-08)
(4.85996e-06 -2.22455e-06 1.22676e-08)
(4.83508e-06 -2.21222e-06 9.75271e-09)
(4.81138e-06 -2.20058e-06 6.69358e-09)
(4.7888e-06 -2.18958e-06 3.11727e-09)
(4.7673e-06 -2.17922e-06 -9.25607e-10)
(4.74684e-06 -2.16946e-06 -5.41529e-09)
(4.72739e-06 -2.16027e-06 -1.03129e-08)
(4.7089e-06 -2.15164e-06 -1.55936e-08)
(4.69133e-06 -2.14354e-06 -2.12321e-08)
(4.67466e-06 -2.13595e-06 -2.72009e-08)
(4.65885e-06 -2.12885e-06 -3.34744e-08)
(4.64387e-06 -2.12222e-06 -3.37383e-08)
(4.62968e-06 -2.11604e-06 4.29652e-09)
(4.61627e-06 -2.1103e-06 3.99615e-08)
(4.6036e-06 -2.10497e-06 7.33572e-08)
(4.59164e-06 -2.10004e-06 1.04576e-07)
(4.58037e-06 -2.0955e-06 1.33708e-07)
(4.56977e-06 -2.09132e-06 1.37198e-07)
(4.55981e-06 -2.08751e-06 1.34036e-07)
(4.55047e-06 -2.08403e-06 1.30635e-07)
(4.54174e-06 -2.08089e-06 1.27008e-07)
(4.53358e-06 -2.07806e-06 1.23169e-07)
(4.52598e-06 -2.07554e-06 1.19129e-07)
(4.51892e-06 -2.07332e-06 1.149e-07)
(4.51238e-06 -2.07137e-06 1.10493e-07)
(4.50635e-06 -2.0697e-06 1.0592e-07)
(4.50081e-06 -2.0683e-06 1.0119e-07)
(4.49574e-06 -2.06714e-06 9.63138e-08)
(4.49113e-06 -2.06623e-06 9.12988e-08)
(4.48696e-06 -2.06555e-06 8.61556e-08)
(4.48322e-06 -2.0651e-06 8.08891e-08)
(4.47989e-06 -2.06487e-06 7.55114e-08)
(4.47696e-06 -2.06485e-06 7.00264e-08)
(4.47443e-06 -2.06503e-06 6.4446e-08)
(4.47226e-06 -2.06541e-06 5.8772e-08)
(4.47047e-06 -2.06598e-06 5.30154e-08)
(4.46903e-06 -2.06673e-06 4.71793e-08)
(4.46793e-06 -2.06765e-06 4.12691e-08)
(4.46716e-06 -2.06874e-06 3.52916e-08)