# Time dispX dispY dispZ forceX forceY forceZ
0 1.05046e-06 -9.0135e-08 0 0 0 0
1 1.0668e-06 -8.2068e-08 1.493e-23 100000 0.00182342 -1.04844e-17
