/*--------------------------------*- C++ -*----------------------------------*\
| =========                 |                                                 |
| \\      /  F ield         | foam-extend: Open Source CFD                    |
|  \\    /   O peration     | Version:     4.1                                |
|   \\  /    A nd           | Web:         http://www.foam-extend.org         |
|    \\/     M anipulation  |                                                 |
\*---------------------------------------------------------------------------*/
FoamFile
{
    version     2.0;
    format      ascii;
    class       vectorField;
    location    "1";
    object      solidsCellD_iteration5;
}
// * * * * * * * * * * * * * * * * * * * * * * * * * * * * * * * * * * * * * //


1000
(
(3.73406e-07 -7.10214e-08 0)
(3.62872e-07 -7.13092e-08 0)
(3.57983e-07 -7.36998e-08 0)
(3.57149e-07 -7.7595e-08 0)
(3.59262e-07 -8.2568e-08 0)
(3.63625e-07 -8.83009e-08 0)
(3.69653e-07 -9.4642e-08 0)
(3.76812e-07 -1.01598e-07 0)
(3.85007e-07 -1.08859e-07 0)
(3.92043e-07 -1.16884e-07 0)
(3.39295e-07 -7.77878e-08 0)
(3.27938e-07 -8.02173e-08 0)
(3.22274e-07 -8.41228e-08 0)
(3.20772e-07 -8.91324e-08 0)
(3.22152e-07 -9.49345e-08 0)
(3.25581e-07 -1.01322e-07 0)
(3.30542e-07 -1.08154e-07 0)
(3.36512e-07 -1.15453e-07 0)
(3.43354e-07 -1.22827e-07 0)
(3.49665e-07 -1.31007e-07 0)
(3.03237e-07 -8.41591e-08 0)
(2.91512e-07 -8.89389e-08 0)
(2.85478e-07 -9.43832e-08 0)
(2.83449e-07 -1.0047e-07 0)
(2.84228e-07 -1.07e-07 0)
(2.86948e-07 -1.13892e-07 0)
(2.91102e-07 -1.2105e-07 0)
(2.96295e-07 -1.28453e-07 0)
(3.02328e-07 -1.35783e-07 0)
(3.08206e-07 -1.43692e-07 0)
(2.65666e-07 -9.00189e-08 0)
(2.54144e-07 -9.71893e-08 0)
(2.48063e-07 -1.0415e-07 0)
(2.45716e-07 -1.11258e-07 0)
(2.46005e-07 -1.18477e-07 0)
(2.48172e-07 -1.25782e-07 0)
(2.51668e-07 -1.33166e-07 0)
(2.56214e-07 -1.40621e-07 0)
(2.61574e-07 -1.47956e-07 0)
(2.67027e-07 -1.55653e-07 0)
(2.26874e-07 -9.52214e-08 0)
(2.16056e-07 -1.04707e-07 0)
(2.10189e-07 -1.13166e-07 0)
(2.07774e-07 -1.21244e-07 0)
(2.07791e-07 -1.2906e-07 0)
(2.09487e-07 -1.36734e-07 0)
(2.12408e-07 -1.44327e-07 0)
(2.16286e-07 -1.51841e-07 0)
(2.20979e-07 -1.59185e-07 0)
(2.25872e-07 -1.66734e-07 0)
(1.86998e-07 -9.97033e-08 0)
(1.77352e-07 -1.11317e-07 0)
(1.7208e-07 -1.21127e-07 0)
(1.69811e-07 -1.30099e-07 0)
(1.69655e-07 -1.3849e-07 0)
(1.70906e-07 -1.46515e-07 0)
(1.73299e-07 -1.54275e-07 0)
(1.76558e-07 -1.61861e-07 0)
(1.80535e-07 -1.69245e-07 0)
(1.84731e-07 -1.76704e-07 0)
(1.46304e-07 -1.03354e-07 0)
(1.38288e-07 -1.16827e-07 0)
(1.33868e-07 -1.27822e-07 0)
(1.31893e-07 -1.37564e-07 0)
(1.3164e-07 -1.46438e-07 0)
(1.32567e-07 -1.54773e-07 0)
(1.34457e-07 -1.62696e-07 0)
(1.37053e-07 -1.70368e-07 0)
(1.40225e-07 -1.77817e-07 0)
(1.436e-07 -1.85232e-07 0)
(1.04961e-07 -1.06138e-07 0)
(9.89242e-08 -1.21099e-07 0)
(9.55909e-08 -1.33038e-07 0)
(9.41135e-08 -1.43368e-07 0)
(9.38674e-08 -1.52646e-07 0)
(9.45032e-08 -1.6122e-07 0)
(9.58563e-08 -1.69296e-07 0)
(9.77433e-08 -1.77039e-07 0)
(1.00053e-07 -1.84535e-07 0)
(1.02512e-07 -1.91908e-07 0)
(6.31597e-08 -1.08014e-07 0)
(5.94424e-08 -1.24003e-07 0)
(5.73866e-08 -1.36591e-07 0)
(5.64189e-08 -1.47376e-07 0)
(5.62126e-08 -1.56934e-07 0)
(5.66027e-08 -1.65668e-07 0)
(5.74535e-08 -1.73858e-07 0)
(5.85988e-08 -1.81684e-07 0)
(5.99742e-08 -1.89257e-07 0)
(6.14618e-08 -1.96639e-07 0)
(2.11071e-08 -1.08965e-07 0)
(1.98242e-08 -1.25469e-07 0)
(1.91048e-08 -1.38407e-07 0)
(1.88008e-08 -1.49406e-07 0)
(1.87576e-08 -1.59086e-07 0)
(1.88661e-08 -1.679e-07 0)
(1.91243e-08 -1.76134e-07 0)
(1.95146e-08 -1.83979e-07 0)
(1.99842e-08 -1.91568e-07 0)
(2.04753e-08 -1.98929e-07 0)
(5.62462e-07 -3.1619e-09 0)
(5.65676e-07 -2.45466e-09 0)
(5.69855e-07 -2.11623e-09 0)
(5.75326e-07 -2.03124e-09 0)
(5.82203e-07 -2.12191e-09 0)
(5.90363e-07 -2.32809e-09 0)
(5.99789e-07 -2.58891e-09 0)
(6.10259e-07 -2.90879e-09 0)
(6.21807e-07 -3.29082e-09 0)
(6.34288e-07 -3.68604e-09 0)
(5.58819e-07 -9.50876e-09 0)
(5.61553e-07 -7.43355e-09 0)
(5.65454e-07 -6.45991e-09 0)
(5.70709e-07 -6.2474e-09 0)
(5.77439e-07 -6.50874e-09 0)
(5.85459e-07 -7.09589e-09 0)
(5.94822e-07 -7.92262e-09 0)
(6.05255e-07 -8.91573e-09 0)
(6.16731e-07 -1.00166e-08 0)
(6.29187e-07 -1.11754e-08 0)
(5.51412e-07 -1.59065e-08 0)
(5.53264e-07 -1.2634e-08 0)
(5.56631e-07 -1.11166e-08 0)
(5.6154e-07 -1.07895e-08 0)
(5.68029e-07 -1.1271e-08 0)
(5.75909e-07 -1.22873e-08 0)
(5.85117e-07 -1.36556e-08 0)
(5.9542e-07 -1.52812e-08 0)
(6.06759e-07 -1.70966e-08 0)
(6.19162e-07 -1.90292e-08 0)
(5.40389e-07 -2.24031e-08 0)
(5.41027e-07 -1.81592e-08 0)
(5.43577e-07 -1.62869e-08 0)
(5.48009e-07 -1.59594e-08 0)
(5.54123e-07 -1.66737e-08 0)
(5.61718e-07 -1.80966e-08 0)
(5.70722e-07 -1.99953e-08 0)
(5.80925e-07 -2.22604e-08 0)
(5.92109e-07 -2.4804e-08 0)
(6.04486e-07 -2.74829e-08 0)
(5.25795e-07 -2.9039e-08 0)
(5.24985e-07 -2.41466e-08 0)
(5.26549e-07 -2.2095e-08 0)
(5.30308e-07 -2.18857e-08 0)
(5.35987e-07 -2.28861e-08 0)
(5.43286e-07 -2.47405e-08 0)
(5.52028e-07 -2.71916e-08 0)
(5.62064e-07 -3.00728e-08 0)
(5.73053e-07 -3.32985e-08 0)
(5.85416e-07 -3.66626e-08 0)
(5.07816e-07 -3.58257e-08 0)
(5.05302e-07 -3.06791e-08 0)
(5.05769e-07 -2.86603e-08 0)
(5.08803e-07 -2.87143e-08 0)
(5.13996e-07 -3.0106e-08 0)
(5.20956e-07 -3.24293e-08 0)
(5.29445e-07 -3.5408e-08 0)
(5.39295e-07 -3.88408e-08 0)
(5.50105e-07 -4.26897e-08 0)
(5.62514e-07 -4.66819e-08 0)
(4.8662e-07 -4.27499e-08 0)
(4.82289e-07 -3.77958e-08 0)
(4.81595e-07 -3.60869e-08 0)
(4.83869e-07 -3.65751e-08 0)
(4.88526e-07 -3.84471e-08 0)
(4.95126e-07 -4.12641e-08 0)
(5.03349e-07 -4.4741e-08 0)
(5.12992e-07 -4.86738e-08 0)
(5.23628e-07 -5.31004e-08 0)
(5.3615e-07 -5.76506e-08 0)
(4.62358e-07 -4.97864e-08 0)
(4.5621e-07 -4.55099e-08 0)
(4.54328e-07 -4.44097e-08 0)
(4.55821e-07 -4.54888e-08 0)
(4.59928e-07 -4.79429e-08 0)
(4.66162e-07 -5.13049e-08 0)
(4.74118e-07 -5.52868e-08 0)
(4.83594e-07 -5.96933e-08 0)
(4.94121e-07 -6.46394e-08 0)
(5.06766e-07 -6.96382e-08 0)
(4.35255e-07 -5.68922e-08 0)
(4.27389e-07 -5.37595e-08 0)
(4.24425e-07 -5.35655e-08 0)
(4.25134e-07 -5.54168e-08 0)
(4.28682e-07 -5.85735e-08 0)
(4.34466e-07 -6.25697e-08 0)
(4.42062e-07 -6.71121e-08 0)
(4.5126e-07 -7.19854e-08 0)
(4.61551e-07 -7.7353e-08 0)
(4.74125e-07 -8.25871e-08 0)
(4.05553e-07 -6.39813e-08 0)
(3.96175e-07 -6.23949e-08 0)
(3.92195e-07 -6.3391e-08 0)
(3.92146e-07 -6.62191e-08 0)
(3.95079e-07 -7.02263e-08 0)
(4.00323e-07 -7.50073e-08 0)
(4.07516e-07 -8.03212e-08 0)
(4.16417e-07 -8.59653e-08 0)
(4.26665e-07 -9.20795e-08 0)
(4.38599e-07 -9.79886e-08 0)
(6.4748e-07 -4.03022e-09 0)
(6.61713e-07 -4.28119e-09 0)
(6.76689e-07 -4.48651e-09 0)
(6.92325e-07 -4.66204e-09 0)
(7.08557e-07 -4.81054e-09 0)
(7.25376e-07 -4.9369e-09 0)
(7.42749e-07 -5.05166e-09 0)
(7.60582e-07 -5.17177e-09 0)
(7.78835e-07 -5.29416e-09 0)
(7.97521e-07 -5.39895e-09 0)
(8.1661e-07 -5.47807e-09 0)
(8.36051e-07 -5.53893e-09 0)
(8.55818e-07 -5.59424e-09 0)
(8.75907e-07 -5.65047e-09 0)
(8.96306e-07 -5.70249e-09 0)
(9.16995e-07 -5.74143e-09 0)
(9.37963e-07 -5.76245e-09 0)
(9.59204e-07 -5.76202e-09 0)
(9.80668e-07 -5.74613e-09 0)
(1.00239e-06 -5.7259e-09 0)
(6.42567e-07 -1.22144e-08 0)
(6.57155e-07 -1.296e-08 0)
(6.72451e-07 -1.35541e-08 0)
(6.88393e-07 -1.40578e-08 0)
(7.04945e-07 -1.44871e-08 0)
(7.22048e-07 -1.48691e-08 0)
(7.3966e-07 -1.52268e-08 0)
(7.57735e-07 -1.55718e-08 0)
(7.76239e-07 -1.58878e-08 0)
(7.95157e-07 -1.61573e-08 0)
(8.1445e-07 -1.6388e-08 0)
(8.34092e-07 -1.65944e-08 0)
(8.54071e-07 -1.67833e-08 0)
(8.74365e-07 -1.69505e-08 0)
(8.9494e-07 -1.70848e-08 0)
(9.1578e-07 -1.71823e-08 0)
(9.36889e-07 -1.72405e-08 0)
(9.58259e-07 -1.72553e-08 0)
(9.7987e-07 -1.72384e-08 0)
(1.00175e-06 -1.71986e-08 0)
(6.32874e-07 -2.07243e-08 0)
(6.48178e-07 -2.18821e-08 0)
(6.64187e-07 -2.27873e-08 0)
(6.80738e-07 -2.35738e-08 0)
(6.9784e-07 -2.42665e-08 0)
(7.15489e-07 -2.48978e-08 0)
(7.33654e-07 -2.5489e-08 0)
(7.52246e-07 -2.60414e-08 0)
(7.71211e-07 -2.65327e-08 0)
(7.90558e-07 -2.69612e-08 0)
(8.10277e-07 -2.73486e-08 0)
(8.30345e-07 -2.77054e-08 0)
(8.50728e-07 -2.80227e-08 0)
(8.71386e-07 -2.82858e-08 0)
(8.92306e-07 -2.84877e-08 0)
(9.13504e-07 -2.86311e-08 0)
(9.34948e-07 -2.87156e-08 0)
(9.56637e-07 -2.87487e-08 0)
(9.78536e-07 -2.87528e-08 0)
(1.00068e-06 -2.87227e-08 0)
(6.18705e-07 -2.97207e-08 0)
(6.35001e-07 -3.1149e-08 0)
(6.51988e-07 -3.22666e-08 0)
(6.69451e-07 -3.32848e-08 0)
(6.87439e-07 -3.42158e-08 0)
(7.05908e-07 -3.50775e-08 0)
(7.2482e-07 -3.58778e-08 0)
(7.4412e-07 -3.66135e-08 0)
(7.63802e-07 -3.72689e-08 0)
(7.83851e-07 -3.78599e-08 0)
(8.0423e-07 -3.84042e-08 0)
(8.24907e-07 -3.88935e-08 0)
(8.45853e-07 -3.93085e-08 0)
(8.67041e-07 -3.96448e-08 0)
(8.88473e-07 -3.99124e-08 0)
(9.10177e-07 -4.01031e-08 0)
(9.32103e-07 -4.02167e-08 0)
(9.54271e-07 -4.02692e-08 0)
(9.76621e-07 -4.02871e-08 0)
(9.99167e-07 -4.02813e-08 0)
(6.00314e-07 -3.93191e-08 0)
(6.17942e-07 -4.08771e-08 0)
(6.36264e-07 -4.21179e-08 0)
(6.54912e-07 -4.33126e-08 0)
(6.7401e-07 -4.44227e-08 0)
(6.93519e-07 -4.54573e-08 0)
(7.13452e-07 -4.64298e-08 0)
(7.33713e-07 -4.73365e-08 0)
(7.54318e-07 -4.81578e-08 0)
(7.75242e-07 -4.89018e-08 0)
(7.96445e-07 -4.95769e-08 0)
(8.17899e-07 -5.01696e-08 0)
(8.39587e-07 -5.06645e-08 0)
(8.61499e-07 -5.10661e-08 0)
(8.83645e-07 -5.13888e-08 0)
(9.05985e-07 -5.1618e-08 0)
(9.28555e-07 -5.17601e-08 0)
(9.51276e-07 -5.18375e-08 0)
(9.74218e-07 -5.18789e-08 0)
(9.97303e-07 -5.1909e-08 0)
(5.78247e-07 -4.96349e-08 0)
(5.97418e-07 -5.11576e-08 0)
(6.17311e-07 -5.23835e-08 0)
(6.37397e-07 -5.36617e-08 0)
(6.579e-07 -5.48952e-08 0)
(6.78722e-07 -5.60813e-08 0)
(6.99893e-07 -5.72109e-08 0)
(7.21328e-07 -5.82541e-08 0)
(7.43019e-07 -5.92025e-08 0)
(7.64966e-07 -6.00681e-08 0)
(7.87156e-07 -6.08532e-08 0)
(8.09566e-07 -6.15374e-08 0)
(8.3216e-07 -6.21062e-08 0)
(8.5493e-07 -6.25703e-08 0)
(8.77909e-07 -6.29325e-08 0)
(9.01018e-07 -6.31845e-08 0)
(9.24351e-07 -6.33481e-08 0)
(9.47783e-07 -6.34532e-08 0)
(9.71438e-07 -6.35309e-08 0)
(9.95192e-07 -6.35974e-08 0)
(5.52954e-07 -6.07517e-08 0)
(5.73958e-07 -6.20397e-08 0)
(5.95731e-07 -6.31094e-08 0)
(6.17521e-07 -6.43796e-08 0)
(6.39621e-07 -6.56591e-08 0)
(6.61956e-07 -6.69322e-08 0)
(6.8448e-07 -6.81605e-08 0)
(7.07219e-07 -6.93052e-08 0)
(7.30165e-07 -7.03622e-08 0)
(7.53309e-07 -7.13371e-08 0)
(7.76634e-07 -7.22209e-08 0)
(8.00114e-07 -7.29847e-08 0)
(8.23727e-07 -7.3613e-08 0)
(8.47476e-07 -7.41227e-08 0)
(8.71375e-07 -7.45125e-08 0)
(8.95388e-07 -7.47872e-08 0)
(9.1961e-07 -7.49802e-08 0)
(9.43904e-07 -7.51143e-08 0)
(9.6838e-07 -7.52116e-08 0)
(9.929e-07 -7.52855e-08 0)
(5.24867e-07 -7.27301e-08 0)
(5.47969e-07 -7.35499e-08 0)
(5.71856e-07 -7.43189e-08 0)
(5.9561e-07 -7.54602e-08 0)
(6.19515e-07 -7.66824e-08 0)
(6.43551e-07 -7.79626e-08 0)
(6.67659e-07 -7.92267e-08 0)
(6.91873e-07 -8.04375e-08 0)
(7.16203e-07 -8.15786e-08 0)
(7.40653e-07 -8.26384e-08 0)
(7.65206e-07 -8.35947e-08 0)
(7.89828e-07 -8.44159e-08 0)
(8.14513e-07 -8.50939e-08 0)
(8.3932e-07 -8.56485e-08 0)
(8.64239e-07 -8.60779e-08 0)
(8.89268e-07 -8.63937e-08 0)
(9.14475e-07 -8.6621e-08 0)
(9.3971e-07 -8.67719e-08 0)
(9.65093e-07 -8.68563e-08 0)
(9.90477e-07 -8.68926e-08 0)
(4.94164e-07 -8.56129e-08 0)
(5.19866e-07 -8.56861e-08 0)
(5.46233e-07 -8.59978e-08 0)
(5.72232e-07 -8.68521e-08 0)
(5.98214e-07 -8.79238e-08 0)
(6.24103e-07 -8.91228e-08 0)
(6.49935e-07 -9.03536e-08 0)
(6.75733e-07 -9.15737e-08 0)
(7.01521e-07 -9.27493e-08 0)
(7.27315e-07 -9.38513e-08 0)
(7.53119e-07 -9.48498e-08 0)
(7.78923e-07 -9.57153e-08 0)
(8.04752e-07 -9.64497e-08 0)
(8.30679e-07 -9.70679e-08 0)
(8.5667e-07 -9.75588e-08 0)
(8.82757e-07 -9.79354e-08 0)
(9.08993e-07 -9.8203e-08 0)
(9.35226e-07 -9.83588e-08 0)
(9.61574e-07 -9.84042e-08 0)
(9.87908e-07 -9.83671e-08 0)
(4.61605e-07 -9.9806e-08 0)
(4.91171e-07 -9.83376e-08 0)
(5.20629e-07 -9.80356e-08 0)
(5.49237e-07 -9.84782e-08 0)
(5.77404e-07 -9.92833e-08 0)
(6.05196e-07 -1.00292e-07 0)
(6.32711e-07 -1.01403e-07 0)
(6.60025e-07 -1.02557e-07 0)
(6.87199e-07 -1.03705e-07 0)
(7.14277e-07 -1.04806e-07 0)
(7.41279e-07 -1.05826e-07 0)
(7.68214e-07 -1.06735e-07 0)
(7.95135e-07 -1.07533e-07 0)
(8.22117e-07 -1.08227e-07 0)
(8.49115e-07 -1.08798e-07 0)
(8.762e-07 -1.09254e-07 0)
(9.03382e-07 -1.0958e-07 0)
(9.3057e-07 -1.09753e-07 0)
(9.57858e-07 -1.09768e-07 0)
(9.85171e-07 -1.09647e-07 0)
(4.31613e-07 -1.18633e-07 0)
(4.66673e-07 -1.13937e-07 0)
(4.99585e-07 -1.12228e-07 0)
(5.30962e-07 -1.11642e-07 0)
(5.61203e-07 -1.11751e-07 0)
(5.9069e-07 -1.12269e-07 0)
(6.19624e-07 -1.13033e-07 0)
(6.48168e-07 -1.13935e-07 0)
(6.76427e-07 -1.14894e-07 0)
(7.04481e-07 -1.15854e-07 0)
(7.32376e-07 -1.16773e-07 0)
(7.60132e-07 -1.17618e-07 0)
(7.87831e-07 -1.18383e-07 0)
(8.15544e-07 -1.19064e-07 0)
(8.43205e-07 -1.19634e-07 0)
(8.70931e-07 -1.2009e-07 0)
(8.98674e-07 -1.20404e-07 0)
(9.26432e-07 -1.20547e-07 0)
(9.54253e-07 -1.20508e-07 0)
(9.82124e-07 -1.20274e-07 0)
(4.17215e-07 -1.36561e-07 0)
(4.52541e-07 -1.31222e-07 0)
(4.86089e-07 -1.28231e-07 0)
(5.18505e-07 -1.26559e-07 0)
(5.49838e-07 -1.2581e-07 0)
(5.80361e-07 -1.25667e-07 0)
(6.10247e-07 -1.25908e-07 0)
(6.39651e-07 -1.26392e-07 0)
(6.68676e-07 -1.27012e-07 0)
(6.97413e-07 -1.27697e-07 0)
(7.2592e-07 -1.28391e-07 0)
(7.54231e-07 -1.29054e-07 0)
(7.82441e-07 -1.29671e-07 0)
(8.10604e-07 -1.30224e-07 0)
(8.38645e-07 -1.30683e-07 0)
(8.66719e-07 -1.31035e-07 0)
(8.94729e-07 -1.31247e-07 0)
(9.22747e-07 -1.31292e-07 0)
(9.50767e-07 -1.31156e-07 0)
(9.78798e-07 -1.30755e-07 0)
(4.07658e-07 -1.52216e-07 0)
(4.42259e-07 -1.47277e-07 0)
(4.758e-07 -1.4393e-07 0)
(5.08534e-07 -1.41686e-07 0)
(5.40417e-07 -1.40328e-07 0)
(5.71558e-07 -1.39618e-07 0)
(6.02095e-07 -1.39362e-07 0)
(6.32124e-07 -1.39419e-07 0)
(6.61729e-07 -1.39678e-07 0)
(6.91e-07 -1.40057e-07 0)
(7.19995e-07 -1.40492e-07 0)
(7.48744e-07 -1.40935e-07 0)
(7.77355e-07 -1.41365e-07 0)
(8.05865e-07 -1.41752e-07 0)
(8.342e-07 -1.42063e-07 0)
(8.62531e-07 -1.42282e-07 0)
(8.90747e-07 -1.42374e-07 0)
(9.18958e-07 -1.42314e-07 0)
(9.4711e-07 -1.42066e-07 0)
(9.75245e-07 -1.41489e-07 0)
(4.00261e-07 -1.67035e-07 0)
(4.34168e-07 -1.62522e-07 0)
(4.67412e-07 -1.59111e-07 0)
(5.00139e-07 -1.56567e-07 0)
(5.32222e-07 -1.54799e-07 0)
(5.63702e-07 -1.53651e-07 0)
(5.94654e-07 -1.5298e-07 0)
(6.25116e-07 -1.52657e-07 0)
(6.55151e-07 -1.52576e-07 0)
(6.84843e-07 -1.52656e-07 0)
(7.14234e-07 -1.5283e-07 0)
(7.43347e-07 -1.53046e-07 0)
(7.72296e-07 -1.5328e-07 0)
(8.01101e-07 -1.53493e-07 0)
(8.29699e-07 -1.53652e-07 0)
(8.58263e-07 -1.53734e-07 0)
(8.86666e-07 -1.53708e-07 0)
(9.15049e-07 -1.53543e-07 0)
(9.43317e-07 -1.53167e-07 0)
(9.71555e-07 -1.52443e-07 0)
(3.94279e-07 -1.81152e-07 0)
(4.27617e-07 -1.77082e-07 0)
(4.60491e-07 -1.73798e-07 0)
(4.93065e-07 -1.7115e-07 0)
(5.25145e-07 -1.69134e-07 0)
(5.56771e-07 -1.67675e-07 0)
(5.8795e-07 -1.66677e-07 0)
(6.18681e-07 -1.6603e-07 0)
(6.49012e-07 -1.65642e-07 0)
(6.79018e-07 -1.65441e-07 0)
(7.0872e-07 -1.65362e-07 0)
(7.38128e-07 -1.65355e-07 0)
(7.67358e-07 -1.65396e-07 0)
(7.96411e-07 -1.65439e-07 0)
(8.2524e-07 -1.65448e-07 0)
(8.54011e-07 -1.65398e-07 0)
(8.82587e-07 -1.65254e-07 0)
(9.11114e-07 -1.64974e-07 0)
(9.3949e-07 -1.64462e-07 0)
(9.67833e-07 -1.63662e-07 0)
(3.89241e-07 -1.94804e-07 0)
(4.22116e-07 -1.91131e-07 0)
(4.54668e-07 -1.88031e-07 0)
(4.87012e-07 -1.85391e-07 0)
(5.18998e-07 -1.8325e-07 0)
(5.50649e-07 -1.81588e-07 0)
(5.81928e-07 -1.80347e-07 0)
(6.12811e-07 -1.7944e-07 0)
(6.43337e-07 -1.78792e-07 0)
(6.73569e-07 -1.78345e-07 0)
(7.03505e-07 -1.78038e-07 0)
(7.33145e-07 -1.77826e-07 0)
(7.62609e-07 -1.77688e-07 0)
(7.9187e-07 -1.77572e-07 0)
(8.20901e-07 -1.7744e-07 0)
(8.49843e-07 -1.77262e-07 0)
(8.78568e-07 -1.76998e-07 0)
(9.07214e-07 -1.76594e-07 0)
(9.35698e-07 -1.75978e-07 0)
(9.64142e-07 -1.75165e-07 0)
(3.84927e-07 -2.08126e-07 0)
(4.1742e-07 -2.04791e-07 0)
(4.49701e-07 -2.01882e-07 0)
(4.81798e-07 -1.99315e-07 0)
(5.13652e-07 -1.97139e-07 0)
(5.45253e-07 -1.95361e-07 0)
(5.7655e-07 -1.93949e-07 0)
(6.07507e-07 -1.92844e-07 0)
(6.3815e-07 -1.91984e-07 0)
(6.68533e-07 -1.91332e-07 0)
(6.98636e-07 -1.90828e-07 0)
(7.28452e-07 -1.90436e-07 0)
(7.581e-07 -1.90135e-07 0)
(7.87522e-07 -1.8987e-07 0)
(8.16722e-07 -1.896e-07 0)
(8.458e-07 -1.89293e-07 0)
(8.74644e-07 -1.88906e-07 0)
(9.03396e-07 -1.88392e-07 0)
(9.31987e-07 -1.87724e-07 0)
(9.60511e-07 -1.86892e-07 0)
(3.81218e-07 -2.21196e-07 0)
(4.13414e-07 -2.18139e-07 0)
(4.45445e-07 -2.15427e-07 0)
(4.77321e-07 -2.1297e-07 0)
(5.09021e-07 -2.10818e-07 0)
(5.40526e-07 -2.08983e-07 0)
(5.71788e-07 -2.07457e-07 0)
(6.02759e-07 -2.06203e-07 0)
(6.33456e-07 -2.05176e-07 0)
(6.63925e-07 -2.04355e-07 0)
(6.94134e-07 -2.03685e-07 0)
(7.24073e-07 -2.03136e-07 0)
(7.53856e-07 -2.02685e-07 0)
(7.83398e-07 -2.02277e-07 0)
(8.12723e-07 -2.0187e-07 0)
(8.41905e-07 -2.01434e-07 0)
(8.70848e-07 -2.00935e-07 0)
(8.99701e-07 -2.00344e-07 0)
(9.28381e-07 -1.99658e-07 0)
(9.56968e-07 -1.98761e-07 0)
(3.77997e-07 -2.34071e-07 0)
(4.09964e-07 -2.31253e-07 0)
(4.41777e-07 -2.2873e-07 0)
(4.73465e-07 -2.26397e-07 0)
(5.05004e-07 -2.24294e-07 0)
(5.36395e-07 -2.22435e-07 0)
(5.67591e-07 -2.20833e-07 0)
(5.98535e-07 -2.19469e-07 0)
(6.29239e-07 -2.18309e-07 0)
(6.59746e-07 -2.17352e-07 0)
(6.90012e-07 -2.16546e-07 0)
(7.20027e-07 -2.15865e-07 0)
(7.49896e-07 -2.1528e-07 0)
(7.79517e-07 -2.14738e-07 0)
(8.08927e-07 -2.14203e-07 0)
(8.38191e-07 -2.13654e-07 0)
(8.6722e-07 -2.13074e-07 0)
(8.96161e-07 -2.12443e-07 0)
(9.24903e-07 -2.11719e-07 0)
(9.53544e-07 -2.10769e-07 0)
(3.75183e-07 -2.46799e-07 0)
(4.06954e-07 -2.44202e-07 0)
(4.38593e-07 -2.41847e-07 0)
(4.70113e-07 -2.39624e-07 0)
(5.01503e-07 -2.37572e-07 0)
(5.32781e-07 -2.35706e-07 0)
(5.63898e-07 -2.34055e-07 0)
(5.94793e-07 -2.32615e-07 0)
(6.25476e-07 -2.31361e-07 0)
(6.55988e-07 -2.30302e-07 0)
(6.86274e-07 -2.29388e-07 0)
(7.16325e-07 -2.28598e-07 0)
(7.46235e-07 -2.27896e-07 0)
(7.75901e-07 -2.27235e-07 0)
(8.05366e-07 -2.26593e-07 0)
(8.34693e-07 -2.2596e-07 0)
(8.63795e-07 -2.25329e-07 0)
(8.92797e-07 -2.24664e-07 0)
(9.21583e-07 -2.23872e-07 0)
(9.50266e-07 -2.22949e-07 0)
(3.72718e-07 -2.59429e-07 0)
(4.04318e-07 -2.57033e-07 0)
(4.35808e-07 -2.54811e-07 0)
(4.67178e-07 -2.52678e-07 0)
(4.98442e-07 -2.50676e-07 0)
(5.29618e-07 -2.48821e-07 0)
(5.60655e-07 -2.47151e-07 0)
(5.91491e-07 -2.45668e-07 0)
(6.2214e-07 -2.44354e-07 0)
(6.52635e-07 -2.43217e-07 0)
(6.82911e-07 -2.42212e-07 0)
(7.12966e-07 -2.4132e-07 0)
(7.42884e-07 -2.4051e-07 0)
(7.72569e-07 -2.39745e-07 0)
(8.02069e-07 -2.39016e-07 0)
(8.31445e-07 -2.38323e-07 0)
(8.60597e-07 -2.37647e-07 0)
(8.8963e-07 -2.36928e-07 0)
(9.18456e-07 -2.36093e-07 0)
(9.47173e-07 -2.35224e-07 0)
(3.70559e-07 -2.71994e-07 0)
(4.02009e-07 -2.69756e-07 0)
(4.3336e-07 -2.67645e-07 0)
(4.64609e-07 -2.65593e-07 0)
(4.9577e-07 -2.63647e-07 0)
(5.26855e-07 -2.6182e-07 0)
(5.57818e-07 -2.60151e-07 0)
(5.88594e-07 -2.58639e-07 0)
(6.19198e-07 -2.57283e-07 0)
(6.49661e-07 -2.5607e-07 0)
(6.79908e-07 -2.54975e-07 0)
(7.09944e-07 -2.53984e-07 0)
(7.39855e-07 -2.53076e-07 0)
(7.69548e-07 -2.52228e-07 0)
(7.99071e-07 -2.51439e-07 0)
(8.28478e-07 -2.50702e-07 0)
(8.57649e-07 -2.49975e-07 0)
(8.86698e-07 -2.49198e-07 0)
(9.1555e-07 -2.484e-07 0)
(9.44296e-07 -2.47538e-07 0)
(3.68687e-07 -2.84493e-07 0)
(3.99999e-07 -2.82374e-07 0)
(4.31233e-07 -2.8037e-07 0)
(4.62384e-07 -2.78401e-07 0)
(4.93454e-07 -2.76512e-07 0)
(5.24456e-07 -2.74713e-07 0)
(5.5535e-07 -2.73047e-07 0)
(5.8607e-07 -2.71503e-07 0)
(6.16626e-07 -2.70111e-07 0)
(6.47048e-07 -2.68834e-07 0)
(6.77258e-07 -2.67664e-07 0)
(7.07267e-07 -2.66598e-07 0)
(7.37164e-07 -2.65618e-07 0)
(7.66859e-07 -2.64713e-07 0)
(7.96392e-07 -2.63879e-07 0)
(8.25801e-07 -2.63092e-07 0)
(8.54964e-07 -2.62309e-07 0)
(8.84024e-07 -2.61514e-07 0)
(9.12884e-07 -2.60771e-07 0)
(9.41649e-07 -2.59933e-07 0)
(3.67085e-07 -2.96921e-07 0)
(3.98282e-07 -2.94926e-07 0)
(4.29423e-07 -2.93021e-07 0)
(4.60481e-07 -2.91124e-07 0)
(4.91463e-07 -2.89279e-07 0)
(5.22392e-07 -2.87504e-07 0)
(5.53226e-07 -2.8585e-07 0)
(5.83897e-07 -2.84294e-07 0)
(6.14405e-07 -2.82873e-07 0)
(6.44776e-07 -2.81546e-07 0)
(6.74943e-07 -2.80309e-07 0)
(7.04927e-07 -2.79171e-07 0)
(7.34815e-07 -2.78127e-07 0)
(7.64508e-07 -2.77168e-07 0)
(7.9403e-07 -2.76279e-07 0)
(8.23416e-07 -2.75431e-07 0)
(8.52563e-07 -2.74609e-07 0)
(8.81631e-07 -2.73851e-07 0)
(9.10503e-07 -2.73102e-07 0)
(9.39272e-07 -2.72344e-07 0)
(3.65745e-07 -3.09323e-07 0)
(3.96848e-07 -3.07456e-07 0)
(4.27899e-07 -3.0562e-07 0)
(4.58865e-07 -3.03776e-07 0)
(4.89771e-07 -3.01971e-07 0)
(5.20642e-07 -3.00236e-07 0)
(5.51423e-07 -2.98592e-07 0)
(5.8204e-07 -2.97024e-07 0)
(6.125e-07 -2.95545e-07 0)
(6.42826e-07 -2.94157e-07 0)
(6.72962e-07 -2.9287e-07 0)
(7.02934e-07 -2.91686e-07 0)
(7.32816e-07 -2.90594e-07 0)
(7.62489e-07 -2.89582e-07 0)
(7.91974e-07 -2.88631e-07 0)
(8.21331e-07 -2.87735e-07 0)
(8.50482e-07 -2.86913e-07 0)
(8.79551e-07 -2.86188e-07 0)
(9.08423e-07 -2.8543e-07 0)
(9.3718e-07 -2.84729e-07 0)
(3.64642e-07 -3.21757e-07 0)
(3.95658e-07 -3.19952e-07 0)
(4.26623e-07 -3.18163e-07 0)
(4.57515e-07 -3.16374e-07 0)
(4.88367e-07 -3.14612e-07 0)
(5.1919e-07 -3.12908e-07 0)
(5.4992e-07 -3.11248e-07 0)
(5.80476e-07 -3.09667e-07 0)
(6.10882e-07 -3.08152e-07 0)
(6.41181e-07 -3.06719e-07 0)
(6.71314e-07 -3.05386e-07 0)
(7.0128e-07 -3.04154e-07 0)
(7.31135e-07 -3.03002e-07 0)
(7.60764e-07 -3.01923e-07 0)
(7.90215e-07 -3.00917e-07 0)
(8.19571e-07 -3.00005e-07 0)
(8.48735e-07 -2.99204e-07 0)
(8.77787e-07 -2.98433e-07 0)
(9.06618e-07 -2.97716e-07 0)
(9.35343e-07 -2.97073e-07 0)
(3.63747e-07 -3.34168e-07 0)
(3.94682e-07 -3.3242e-07 0)
(4.25581e-07 -3.30685e-07 0)
(4.56423e-07 -3.28948e-07 0)
(4.87235e-07 -3.27209e-07 0)
(5.18008e-07 -3.255e-07 0)
(5.48675e-07 -3.23835e-07 0)
(5.79179e-07 -3.22228e-07 0)
(6.09557e-07 -3.20685e-07 0)
(6.39855e-07 -3.19222e-07 0)
(6.69985e-07 -3.17847e-07 0)
(6.99924e-07 -3.16551e-07 0)
(7.29731e-07 -3.15327e-07 0)
(7.59329e-07 -3.14195e-07 0)
(7.88794e-07 -3.13171e-07 0)
(8.18179e-07 -3.12246e-07 0)
(8.47307e-07 -3.11401e-07 0)
(8.76275e-07 -3.10584e-07 0)
(9.05076e-07 -3.0994e-07 0)
(9.33914e-07 -3.0937e-07 0)
(3.63054e-07 -3.46549e-07 0)
(3.93923e-07 -3.44901e-07 0)
(4.24778e-07 -3.432e-07 0)
(4.55585e-07 -3.41473e-07 0)
(4.86344e-07 -3.39766e-07 0)
(5.17051e-07 -3.38047e-07 0)
(5.47665e-07 -3.36361e-07 0)
(5.78147e-07 -3.34734e-07 0)
(6.08534e-07 -3.33173e-07 0)
(6.38832e-07 -3.31667e-07 0)
(6.68917e-07 -3.30225e-07 0)
(6.98795e-07 -3.2887e-07 0)
(7.28603e-07 -3.27613e-07 0)
(7.58267e-07 -3.26441e-07 0)
(7.87745e-07 -3.25362e-07 0)
(8.17017e-07 -3.24395e-07 0)
(8.46073e-07 -3.23495e-07 0)
(8.75143e-07 -3.22713e-07 0)
(9.03953e-07 -3.22084e-07 0)
(9.32615e-07 -3.21581e-07 0)
(3.6253e-07 -3.59011e-07 0)
(3.93354e-07 -3.57392e-07 0)
(4.2418e-07 -3.55697e-07 0)
(4.54945e-07 -3.53982e-07 0)
(4.85631e-07 -3.5225e-07 0)
(5.16282e-07 -3.50537e-07 0)
(5.469e-07 -3.4885e-07 0)
(5.77411e-07 -3.47193e-07 0)
(6.07771e-07 -3.45574e-07 0)
(6.37985e-07 -3.44012e-07 0)
(6.68045e-07 -3.42534e-07 0)
(6.98011e-07 -3.41137e-07 0)
(7.27868e-07 -3.39815e-07 0)
(7.57431e-07 -3.38594e-07 0)
(7.86857e-07 -3.37465e-07 0)
(8.16227e-07 -3.36431e-07 0)
(8.45311e-07 -3.35494e-07 0)
(8.74306e-07 -3.34721e-07 0)
(9.03149e-07 -3.34077e-07 0)
(9.31801e-07 -3.33641e-07 0)
(3.62173e-07 -3.71457e-07 0)
(3.92966e-07 -3.69888e-07 0)
(4.23735e-07 -3.68201e-07 0)
(4.54421e-07 -3.66466e-07 0)
(4.85096e-07 -3.64734e-07 0)
(5.15791e-07 -3.63011e-07 0)
(5.46402e-07 -3.61288e-07 0)
(5.7682e-07 -3.59588e-07 0)
(6.07133e-07 -3.5793e-07 0)
(6.37429e-07 -3.56324e-07 0)
(6.6755e-07 -3.54801e-07 0)
(6.97439e-07 -3.53361e-07 0)
(7.27269e-07 -3.5197e-07 0)
(7.56927e-07 -3.50681e-07 0)
(7.86354e-07 -3.49515e-07 0)
(8.15708e-07 -3.4842e-07 0)
(8.44865e-07 -3.47475e-07 0)
(8.73865e-07 -3.46615e-07 0)
(9.02766e-07 -3.45939e-07 0)
(9.31328e-07 -3.45486e-07 0)
(2.07462e-08 -2.062e-07 0)
(6.22625e-08 -2.04053e-07 0)
(1.03761e-07 -1.99561e-07 0)
(1.45204e-07 -1.93268e-07 0)
(1.8652e-07 -1.8518e-07 0)
(2.27655e-07 -1.75753e-07 0)
(2.68532e-07 -1.65287e-07 0)
(3.09074e-07 -1.54034e-07 0)
(3.49643e-07 -1.42197e-07 0)
(3.89438e-07 -1.29752e-07 0)
(2.06566e-08 -2.13969e-07 0)
(6.19668e-08 -2.1207e-07 0)
(1.03181e-07 -2.08001e-07 0)
(1.44222e-07 -2.02332e-07 0)
(1.84972e-07 -1.95019e-07 0)
(2.25333e-07 -1.86438e-07 0)
(2.65177e-07 -1.76871e-07 0)
(3.0433e-07 -1.66545e-07 0)
(3.42898e-07 -1.55684e-07 0)
(3.79869e-07 -1.4503e-07 0)
(2.04663e-08 -2.22108e-07 0)
(6.13748e-08 -2.20424e-07 0)
(1.02113e-07 -2.16728e-07 0)
(1.42592e-07 -2.11598e-07 0)
(1.82685e-07 -2.04971e-07 0)
(2.22251e-07 -1.97145e-07 0)
(2.6115e-07 -1.88392e-07 0)
(2.99249e-07 -1.78924e-07 0)
(3.36548e-07 -1.68983e-07 0)
(3.72324e-07 -1.59506e-07 0)
(2.02408e-08 -2.3048e-07 0)
(6.07121e-08 -2.28955e-07 0)
(1.00986e-07 -2.25554e-07 0)
(1.40942e-07 -2.20846e-07 0)
(1.80477e-07 -2.14764e-07 0)
(2.19403e-07 -2.07543e-07 0)
(2.57604e-07 -1.9949e-07 0)
(2.94929e-07 -1.90812e-07 0)
(3.31289e-07 -1.81785e-07 0)
(3.66189e-07 -1.73316e-07 0)
(2.00285e-08 -2.39046e-07 0)
(6.00132e-08 -2.37664e-07 0)
(9.98263e-08 -2.34528e-07 0)
(1.39282e-07 -2.30183e-07 0)
(1.78296e-07 -2.2459e-07 0)
(2.16673e-07 -2.17937e-07 0)
(2.54286e-07 -2.10538e-07 0)
(2.91026e-07 -2.02595e-07 0)
(3.26711e-07 -1.94383e-07 0)
(3.60988e-07 -1.86726e-07 0)
(1.98255e-08 -2.47783e-07 0)
(5.93344e-08 -2.46507e-07 0)
(9.86884e-08 -2.43635e-07 0)
(1.37671e-07 -2.39607e-07 0)
(1.76199e-07 -2.34456e-07 0)
(2.14125e-07 -2.28327e-07 0)
(2.51251e-07 -2.21523e-07 0)
(2.87511e-07 -2.14257e-07 0)
(3.22685e-07 -2.0678e-07 0)
(3.56481e-07 -1.9983e-07 0)
(1.95945e-08 -2.56675e-07 0)
(5.86732e-08 -2.5548e-07 0)
(9.75761e-08 -2.52868e-07 0)
(1.36119e-07 -2.49117e-07 0)
(1.74205e-07 -2.4437e-07 0)
(2.11717e-07 -2.38734e-07 0)
(2.48456e-07 -2.32486e-07 0)
(2.84328e-07 -2.25843e-07 0)
(3.1911e-07 -2.19024e-07 0)
(3.52549e-07 -2.12683e-07 0)
(1.93749e-08 -2.65693e-07 0)
(5.80406e-08 -2.64577e-07 0)
(9.65014e-08 -2.62203e-07 0)
(1.34632e-07 -2.58713e-07 0)
(1.72335e-07 -2.54346e-07 0)
(2.09475e-07 -2.49179e-07 0)
(2.45875e-07 -2.43456e-07 0)
(2.81429e-07 -2.37375e-07 0)
(3.15916e-07 -2.31143e-07 0)
(3.49112e-07 -2.25335e-07 0)
(1.91997e-08 -2.74837e-07 0)
(5.74457e-08 -2.73789e-07 0)
(9.54886e-08 -2.71628e-07 0)
(1.33239e-07 -2.68405e-07 0)
(1.70582e-07 -2.64404e-07 0)
(2.07408e-07 -2.59674e-07 0)
(2.43513e-07 -2.54439e-07 0)
(2.78795e-07 -2.48868e-07 0)
(3.13053e-07 -2.43173e-07 0)
(3.46092e-07 -2.37854e-07 0)
(1.90289e-08 -2.84115e-07 0)
(5.68691e-08 -2.83106e-07 0)
(9.45343e-08 -2.81143e-07 0)
(1.31951e-07 -2.78193e-07 0)
(1.68954e-07 -2.74541e-07 0)
(2.05501e-07 -2.70218e-07 0)
(2.41354e-07 -2.65438e-07 0)
(2.76405e-07 -2.60348e-07 0)
(3.10482e-07 -2.55157e-07 0)
(3.43422e-07 -2.50293e-07 0)
(1.88342e-08 -2.935e-07 0)
(5.63222e-08 -2.92515e-07 0)
(9.36519e-08 -2.90749e-07 0)
(1.30763e-07 -2.88071e-07 0)
(1.67458e-07 -2.84751e-07 0)
(2.0374e-07 -2.80814e-07 0)
(2.39372e-07 -2.76463e-07 0)
(2.74234e-07 -2.7184e-07 0)
(3.08171e-07 -2.67118e-07 0)
(3.41049e-07 -2.62665e-07 0)
(1.86434e-08 -3.02965e-07 0)
(5.58386e-08 -3.02025e-07 0)
(9.28631e-08 -3.00453e-07 0)
(1.29672e-07 -2.98038e-07 0)
(1.66094e-07 -2.95032e-07 0)
(2.02122e-07 -2.91463e-07 0)
(2.37555e-07 -2.87521e-07 0)
(2.72261e-07 -2.83343e-07 0)
(3.06093e-07 -2.79043e-07 0)
(3.38951e-07 -2.74964e-07 0)
(1.84895e-08 -3.12517e-07 0)
(5.54226e-08 -3.11653e-07 0)
(9.21619e-08 -3.10256e-07 0)
(1.28678e-07 -3.08086e-07 0)
(1.64854e-07 -3.05374e-07 0)
(2.00647e-07 -3.02157e-07 0)
(2.359e-07 -2.98612e-07 0)
(2.70472e-07 -2.94837e-07 0)
(3.04234e-07 -2.90925e-07 0)
(3.37121e-07 -2.87213e-07 0)
(1.83672e-08 -3.22182e-07 0)
(5.50393e-08 -3.21405e-07 0)
(9.15142e-08 -3.20151e-07 0)
(1.27762e-07 -3.18209e-07 0)
(1.63717e-07 -3.15776e-07 0)
(1.99302e-07 -3.12898e-07 0)
(2.34392e-07 -3.09729e-07 0)
(2.68853e-07 -3.06326e-07 0)
(3.02586e-07 -3.0281e-07 0)
(3.35536e-07 -2.9946e-07 0)
(1.82481e-08 -3.31971e-07 0)
(5.46551e-08 -3.31273e-07 0)
(9.0894e-08 -3.30137e-07 0)
(1.26911e-07 -3.28413e-07 0)
(1.62661e-07 -3.26253e-07 0)
(1.98062e-07 -3.23706e-07 0)
(2.33007e-07 -3.20871e-07 0)
(2.67396e-07 -3.17818e-07 0)
(3.01134e-07 -3.14705e-07 0)
(3.34171e-07 -3.11681e-07 0)
(1.81196e-08 -3.41876e-07 0)
(5.42738e-08 -3.41258e-07 0)
(9.03036e-08 -3.40235e-07 0)
(1.26114e-07 -3.3872e-07 0)
(1.61671e-07 -3.36797e-07 0)
(1.96909e-07 -3.34538e-07 0)
(2.31747e-07 -3.32018e-07 0)
(2.66109e-07 -3.29337e-07 0)
(2.99881e-07 -3.26608e-07 0)
(3.33031e-07 -3.23909e-07 0)
(1.79936e-08 -3.51893e-07 0)
(5.3919e-08 -3.51368e-07 0)
(8.97505e-08 -3.50444e-07 0)
(1.25371e-07 -3.49103e-07 0)
(1.60756e-07 -3.47419e-07 0)
(1.95861e-07 -3.4544e-07 0)
(2.30632e-07 -3.43238e-07 0)
(2.64989e-07 -3.40935e-07 0)
(2.9881e-07 -3.38525e-07 0)
(3.32084e-07 -3.36162e-07 0)
(1.78833e-08 -3.62034e-07 0)
(5.36006e-08 -3.61592e-07 0)
(8.92365e-08 -3.6076e-07 0)
(1.24682e-07 -3.59588e-07 0)
(1.59923e-07 -3.58106e-07 0)
(1.94933e-07 -3.56385e-07 0)
(2.29664e-07 -3.54501e-07 0)
(2.64023e-07 -3.52537e-07 0)
(2.97907e-07 -3.50459e-07 0)
(3.31324e-07 -3.48398e-07 0)
(1.77916e-08 -3.72291e-07 0)
(5.33165e-08 -3.71924e-07 0)
(8.87624e-08 -3.71189e-07 0)
(1.24053e-07 -3.70159e-07 0)
(1.59174e-07 -3.6888e-07 0)
(1.94121e-07 -3.67418e-07 0)
(2.28833e-07 -3.6585e-07 0)
(2.63207e-07 -3.64174e-07 0)
(2.97145e-07 -3.62458e-07 0)
(3.30724e-07 -3.6069e-07 0)
(1.77125e-08 -3.82692e-07 0)
(5.3064e-08 -3.82363e-07 0)
(8.83278e-08 -3.81722e-07 0)
(1.23492e-07 -3.80831e-07 0)
(1.58549e-07 -3.79741e-07 0)
(1.93468e-07 -3.78524e-07 0)
(2.28154e-07 -3.77225e-07 0)
(2.62538e-07 -3.75827e-07 0)
(2.96553e-07 -3.74443e-07 0)
(3.30344e-07 -3.7297e-07 0)
)


// ************************************************************************* //
