/*--------------------------------*- C++ -*----------------------------------*\
| =========                 |                                                 |
| \\      /  F ield         | foam-extend: Open Source CFD                    |
|  \\    /   O peration     | Version:     4.1                                |
|   \\  /    A nd           | Web:         http://www.foam-extend.org         |
|    \\/     M anipulation  |                                                 |
\*---------------------------------------------------------------------------*/
FoamFile
{
    version     2.0;
    format      ascii;
    class       regIOobject;
    location    "7/uniform";
    object      profilingInfo;
}
// * * * * * * * * * * * * * * * * * * * * * * * * * * * * * * * * * * * * * //

profilingInfo
(

    {
        id              9;
        parentId        8;
        description     "Foam::Time::writeObject - outputTime";
        calls           7;
        totalTime       5.84729;
        childTime       0;
        onStack         1;
    }

    {
        id              8;
        parentId        1;
        description     "Foam::Time::writeObject";
        calls           7;
        totalTime       5.8474;
        childTime       5.84729;
        onStack         1;
    }

    {
        id              1;
        description     "application::main";
        calls           1;
        totalTime       952.772;
        childTime       803.239;
        onStack         1;
    }

    {
        id              10;
        parentId        1;
        description     "FO::forceDisp1::execute";
        calls           6;
        totalTime       0.000356;
        childTime       0;
        onStack         0;
    }

    {
        id              3;
        parentId        2;
        description     "FO::forceDisp1::start";
        calls           1;
        totalTime       3.7e-05;
        childTime       0;
        onStack         0;
    }

    {
        id              11;
        parentId        1;
        description     "FO::pointDisp::execute";
        calls           6;
        totalTime       8.4e-05;
        childTime       0;
        onStack         0;
    }

    {
        id              4;
        parentId        2;
        description     "FO::pointDisp::start";
        calls           1;
        totalTime       5e-06;
        childTime       0;
        onStack         0;
    }

    {
        id              2;
        parentId        1;
        description     "functionObjectList::read";
        calls           1;
        totalTime       0.001481;
        childTime       4.2e-05;
        onStack         0;
    }

    {
        id              5;
        parentId        1;
        description     "fvMatrix::solve_D";
        calls           1495;
        totalTime       797.39;
        childTime       794.073;
        onStack         0;
    }

    {
        id              6;
        parentId        5;
        description     "lduMatrix::solver_Dx";
        calls           1495;
        totalTime       363.324;
        childTime       0;
        onStack         0;
    }

    {
        id              7;
        parentId        5;
        description     "lduMatrix::solver_Dy";
        calls           1495;
        totalTime       430.749;
        childTime       0;
        onStack         0;
    }
);


// ************************************************************************* //
