# Time dispX dispY dispZ forceX forceY forceZ
0 0 0 0 0 0 0
1 1.06678e-06 -8.21229e-08 -0.0107718 100000 -1.53356 -3.48425e-10
