# Time Dx Dy Dz magD
1 0 -3.41293e-07 -0.0175539 0.0175539
