/*--------------------------------*- C++ -*----------------------------------*\
| =========                 |                                                 |
| \\      /  F ield         | foam-extend: Open Source CFD                    |
|  \\    /   O peration     | Version:     4.1                                |
|   \\  /    A nd           | Web:         http://www.foam-extend.org         |
|    \\/     M anipulation  |                                                 |
\*---------------------------------------------------------------------------*/
FoamFile
{
    version     2.0;
    format      ascii;
    class       volScalarField;
    location    "6";
    object      epsilonEq;
}
// * * * * * * * * * * * * * * * * * * * * * * * * * * * * * * * * * * * * * //

dimensions      [0 0 0 0 0 0 0];

internalField   nonuniform List<scalar> 
1000
(
2.76513e-06
3.15289e-06
3.46316e-06
3.69813e-06
3.80732e-06
3.84998e-06
3.84355e-06
3.8076e-06
3.75926e-06
3.69149e-06
3.46126e-06
3.5173e-06
3.65289e-06
3.79893e-06
3.86029e-06
3.87679e-06
3.85443e-06
3.81117e-06
3.75118e-06
3.6898e-06
4.13962e-06
3.8791e-06
3.82215e-06
3.86148e-06
3.86342e-06
3.84651e-06
3.80432e-06
3.75014e-06
3.68173e-06
3.61812e-06
4.77939e-06
4.22546e-06
3.9706e-06
3.89141e-06
3.8248e-06
3.76879e-06
3.70379e-06
3.63772e-06
3.56203e-06
3.49782e-06
5.36262e-06
4.54465e-06
4.09761e-06
3.8948e-06
3.75349e-06
3.65385e-06
3.56382e-06
3.48479e-06
3.40348e-06
3.33852e-06
5.87376e-06
4.82665e-06
4.20319e-06
3.87939e-06
3.66147e-06
3.51568e-06
3.39899e-06
3.30605e-06
3.2196e-06
3.15333e-06
6.29939e-06
5.0628e-06
4.28731e-06
3.85327e-06
3.56215e-06
3.37062e-06
3.22705e-06
3.1197e-06
3.02842e-06
2.95992e-06
6.62851e-06
5.24624e-06
4.35032e-06
3.82487e-06
3.47025e-06
3.23748e-06
3.06903e-06
2.94785e-06
2.85206e-06
2.78069e-06
6.85264e-06
5.37152e-06
4.39213e-06
3.80114e-06
3.39925e-06
3.13473e-06
2.94661e-06
2.81414e-06
2.71465e-06
2.64047e-06
6.96499e-06
5.43366e-06
4.41105e-06
3.78548e-06
3.35806e-06
3.07599e-06
2.87679e-06
2.73785e-06
2.63621e-06
2.56039e-06
2.54012e-06
1.68276e-06
1.20505e-06
1.00657e-06
9.35057e-07
9.48798e-07
1.00003e-06
1.07399e-06
1.15379e-06
1.23481e-06
2.43347e-06
1.67658e-06
1.31473e-06
1.21004e-06
1.19049e-06
1.21974e-06
1.26523e-06
1.32316e-06
1.38131e-06
1.44584e-06
2.21927e-06
1.66792e-06
1.50186e-06
1.52262e-06
1.5627e-06
1.61047e-06
1.65183e-06
1.69379e-06
1.72775e-06
1.77319e-06
1.91093e-06
1.67414e-06
1.73755e-06
1.87607e-06
1.9672e-06
2.03158e-06
2.07083e-06
2.10035e-06
2.11407e-06
2.14284e-06
1.53001e-06
1.71504e-06
1.99752e-06
2.2321e-06
2.3631e-06
2.44049e-06
2.47806e-06
2.4974e-06
2.49465e-06
2.50893e-06
1.12553e-06
1.80926e-06
2.26513e-06
2.56966e-06
2.72887e-06
2.81483e-06
2.85006e-06
2.86024e-06
2.84395e-06
2.84502e-06
8.41385e-07
1.96861e-06
2.53029e-06
2.87695e-06
3.05228e-06
3.14179e-06
3.17338e-06
3.17492e-06
3.1475e-06
3.13615e-06
9.56323e-07
2.19366e-06
2.78616e-06
3.14628e-06
3.32499e-06
3.41229e-06
3.43852e-06
3.43132e-06
3.39563e-06
3.37182e-06
1.4423e-06
2.47575e-06
3.02873e-06
3.37394e-06
3.54295e-06
3.62221e-06
3.64087e-06
3.62555e-06
3.58378e-06
3.55022e-06
2.07804e-06
2.80069e-06
3.25487e-06
3.55743e-06
3.70289e-06
3.76663e-06
3.77401e-06
3.74759e-06
3.70355e-06
3.65101e-06
1.31777e-06
1.38685e-06
1.45213e-06
1.51151e-06
1.56378e-06
1.60969e-06
1.64869e-06
1.68108e-06
1.70675e-06
1.72573e-06
1.73786e-06
1.74303e-06
1.74081e-06
1.73105e-06
1.71268e-06
1.68602e-06
1.64828e-06
1.60238e-06
1.53967e-06
1.47461e-06
1.49871e-06
1.53396e-06
1.57424e-06
1.61267e-06
1.64807e-06
1.68021e-06
1.70796e-06
1.7311e-06
1.74914e-06
1.76178e-06
1.76863e-06
1.76939e-06
1.76348e-06
1.75062e-06
1.72969e-06
1.70092e-06
1.66152e-06
1.61437e-06
1.55096e-06
1.48564e-06
1.78701e-06
1.77577e-06
1.77923e-06
1.78578e-06
1.7944e-06
1.8041e-06
1.81308e-06
1.82049e-06
1.82538e-06
1.82697e-06
1.82455e-06
1.8175e-06
1.80504e-06
1.7867e-06
1.76123e-06
1.72876e-06
1.68652e-06
1.63726e-06
1.5728e-06
1.50721e-06
2.12091e-06
2.06534e-06
2.03086e-06
2.0034e-06
1.98205e-06
1.96571e-06
1.95224e-06
1.94033e-06
1.92868e-06
1.91611e-06
1.90162e-06
1.88428e-06
1.86309e-06
1.83738e-06
1.8058e-06
1.76834e-06
1.72227e-06
1.67025e-06
1.60455e-06
1.53884e-06
2.45759e-06
2.36596e-06
2.29763e-06
2.23913e-06
2.18915e-06
2.14699e-06
2.11061e-06
2.07837e-06
2.049e-06
2.02092e-06
1.99303e-06
1.9641e-06
1.933e-06
1.89886e-06
1.86028e-06
1.81711e-06
1.76674e-06
1.7117e-06
1.6449e-06
1.5795e-06
2.77079e-06
2.65355e-06
2.55794e-06
2.47382e-06
2.39937e-06
2.33405e-06
2.27666e-06
2.22512e-06
2.1785e-06
2.13499e-06
2.09346e-06
2.05256e-06
2.01108e-06
1.96805e-06
1.92203e-06
1.87282e-06
1.818e-06
1.75997e-06
1.69247e-06
1.62809e-06
3.04537e-06
2.9131e-06
2.79787e-06
2.69349e-06
2.59958e-06
2.51444e-06
2.43875e-06
2.3699e-06
2.3075e-06
2.24966e-06
2.19532e-06
2.14306e-06
2.09166e-06
2.0401e-06
1.98697e-06
1.93206e-06
1.87319e-06
1.81268e-06
1.74523e-06
1.68275e-06
3.2706e-06
3.13362e-06
3.00969e-06
2.89151e-06
2.7848e-06
2.68473e-06
2.59455e-06
2.51126e-06
2.43508e-06
2.3643e-06
2.29802e-06
2.23497e-06
2.17399e-06
2.11413e-06
2.05408e-06
1.99365e-06
1.93101e-06
1.86843e-06
1.80169e-06
1.74209e-06
3.44574e-06
3.30694e-06
3.18463e-06
3.05712e-06
2.9418e-06
2.83077e-06
2.72916e-06
2.63463e-06
2.54746e-06
2.46637e-06
2.39047e-06
2.31867e-06
2.24988e-06
2.18324e-06
2.11762e-06
2.05292e-06
1.9877e-06
1.92422e-06
1.85942e-06
1.80365e-06
3.56469e-06
3.43337e-06
3.32506e-06
3.20087e-06
3.08309e-06
2.9672e-06
2.85743e-06
2.75382e-06
2.65685e-06
2.56608e-06
2.48091e-06
2.40055e-06
2.32407e-06
2.25075e-06
2.17965e-06
2.11078e-06
2.04316e-06
1.97909e-06
1.91672e-06
1.86571e-06
3.6108e-06
3.47726e-06
3.37417e-06
3.26007e-06
3.14663e-06
3.03464e-06
2.92634e-06
2.82256e-06
2.72394e-06
2.6305e-06
2.54203e-06
2.45809e-06
2.37812e-06
2.30171e-06
2.22827e-06
2.15804e-06
2.09059e-06
2.02821e-06
1.97017e-06
1.92488e-06
3.51901e-06
3.43959e-06
3.34697e-06
3.24863e-06
3.14647e-06
3.04382e-06
2.94259e-06
2.84404e-06
2.74904e-06
2.65794e-06
2.57086e-06
2.4877e-06
2.40824e-06
2.33237e-06
2.25988e-06
2.19129e-06
2.1266e-06
2.06824e-06
2.01635e-06
1.97845e-06
3.44355e-06
3.3781e-06
3.30395e-06
3.21958e-06
3.12987e-06
3.03727e-06
2.94422e-06
2.8521e-06
2.76206e-06
2.67471e-06
2.59045e-06
2.50948e-06
2.43186e-06
2.35778e-06
2.28736e-06
2.22134e-06
2.16017e-06
2.10629e-06
2.06061e-06
2.0295e-06
3.35783e-06
3.30768e-06
3.24739e-06
3.17522e-06
3.09704e-06
3.01429e-06
2.92981e-06
2.84487e-06
2.76083e-06
2.67844e-06
2.59834e-06
2.52093e-06
2.44654e-06
2.37559e-06
2.30849e-06
2.24616e-06
2.18944e-06
2.14069e-06
2.10142e-06
2.07691e-06
3.26518e-06
3.22743e-06
3.18002e-06
3.11966e-06
3.05281e-06
2.98004e-06
2.90448e-06
2.82726e-06
2.74993e-06
2.67333e-06
2.59829e-06
2.52539e-06
2.45516e-06
2.38822e-06
2.32521e-06
2.2672e-06
2.21531e-06
2.17182e-06
2.13867e-06
2.12014e-06
3.16991e-06
3.14284e-06
3.10625e-06
3.05631e-06
2.99972e-06
2.93643e-06
2.86964e-06
2.80033e-06
2.73013e-06
2.65992e-06
2.59065e-06
2.52303e-06
2.45776e-06
2.39559e-06
2.33734e-06
2.28421e-06
2.23748e-06
2.19932e-06
2.17196e-06
2.15876e-06
3.07424e-06
3.056e-06
3.02867e-06
2.98814e-06
2.94094e-06
2.88664e-06
2.82835e-06
2.76694e-06
2.70403e-06
2.64054e-06
2.57747e-06
2.51562e-06
2.45581e-06
2.39888e-06
2.3458e-06
2.29779e-06
2.2563e-06
2.2233e-06
2.20122e-06
2.19259e-06
2.98018e-06
2.96914e-06
2.94954e-06
2.91725e-06
2.87844e-06
2.83245e-06
2.78224e-06
2.72854e-06
2.67293e-06
2.6163e-06
2.5597e-06
2.50395e-06
2.44994e-06
2.39858e-06
2.35091e-06
2.30817e-06
2.27186e-06
2.24378e-06
2.22641e-06
2.22159e-06
2.88893e-06
2.8836e-06
2.87044e-06
2.84535e-06
2.81405e-06
2.77574e-06
2.73313e-06
2.68687e-06
2.63843e-06
2.58868e-06
2.53864e-06
2.48914e-06
2.4411e-06
2.39546e-06
2.35328e-06
2.31578e-06
2.28446e-06
2.26094e-06
2.24767e-06
2.24589e-06
2.80117e-06
2.80033e-06
2.79249e-06
2.77367e-06
2.74905e-06
2.71778e-06
2.6823e-06
2.64314e-06
2.60168e-06
2.55871e-06
2.5152e-06
2.47198e-06
2.42996e-06
2.39006e-06
2.35333e-06
2.32093e-06
2.29435e-06
2.27497e-06
2.26518e-06
2.26571e-06
2.71717e-06
2.7199e-06
2.71648e-06
2.70314e-06
2.6845e-06
2.6597e-06
2.63088e-06
2.59848e-06
2.56374e-06
2.52738e-06
2.4903e-06
2.45328e-06
2.4172e-06
2.38294e-06
2.35152e-06
2.32401e-06
2.30182e-06
2.28615e-06
2.27922e-06
2.2814e-06
2.63695e-06
2.64258e-06
2.64291e-06
2.63444e-06
2.62122e-06
2.60239e-06
2.5798e-06
2.55381e-06
2.52551e-06
2.49552e-06
2.46467e-06
2.4337e-06
2.4034e-06
2.37459e-06
2.34825e-06
2.32535e-06
2.30718e-06
2.29476e-06
2.29014e-06
2.29337e-06
2.56036e-06
2.56858e-06
2.57213e-06
2.56807e-06
2.55985e-06
2.54659e-06
2.52987e-06
2.50995e-06
2.48777e-06
2.46389e-06
2.43903e-06
2.41385e-06
2.38909e-06
2.36549e-06
2.34394e-06
2.32531e-06
2.31076e-06
2.30115e-06
2.2983e-06
2.30207e-06
2.48725e-06
2.49774e-06
2.50443e-06
2.50458e-06
2.50106e-06
2.49306e-06
2.48186e-06
2.46769e-06
2.45131e-06
2.4332e-06
2.41402e-06
2.39433e-06
2.37479e-06
2.35607e-06
2.33896e-06
2.32423e-06
2.31289e-06
2.30566e-06
2.3041e-06
2.30799e-06
2.41735e-06
2.43068e-06
2.44011e-06
2.44428e-06
2.4454e-06
2.44244e-06
2.4365e-06
2.42775e-06
2.41682e-06
2.40413e-06
2.39024e-06
2.37565e-06
2.36095e-06
2.34672e-06
2.33365e-06
2.32241e-06
2.31387e-06
2.30861e-06
2.30794e-06
2.31158e-06
2.35109e-06
2.36619e-06
2.37943e-06
2.38837e-06
2.39385e-06
2.39576e-06
2.39475e-06
2.39106e-06
2.38517e-06
2.37745e-06
2.36837e-06
2.3584e-06
2.34804e-06
2.33783e-06
2.32835e-06
2.32017e-06
2.31402e-06
2.31035e-06
2.31021e-06
2.31335e-06
2.2872e-06
2.31263e-06
2.32361e-06
2.33777e-06
2.34714e-06
2.35386e-06
2.35744e-06
2.35844e-06
2.35709e-06
2.3538e-06
2.34896e-06
2.343e-06
2.3364e-06
2.32963e-06
2.32323e-06
2.31765e-06
2.3135e-06
2.31111e-06
2.31124e-06
2.31368e-06
2.2288e-06
2.25245e-06
2.27457e-06
2.29214e-06
2.3067e-06
2.3179e-06
2.32599e-06
2.33118e-06
2.33381e-06
2.33422e-06
2.33284e-06
2.33011e-06
2.3265e-06
2.32248e-06
2.31851e-06
2.31502e-06
2.31248e-06
2.3111e-06
2.3114e-06
2.31312e-06
2.17497e-06
2.20484e-06
2.2313e-06
2.25414e-06
2.27373e-06
2.28942e-06
2.30159e-06
2.31037e-06
2.31616e-06
2.31935e-06
2.32044e-06
2.31991e-06
2.31831e-06
2.31613e-06
2.31388e-06
2.31194e-06
2.31069e-06
2.31023e-06
2.31079e-06
2.31195e-06
2.13053e-06
2.16678e-06
2.1995e-06
2.22782e-06
2.25192e-06
2.27153e-06
2.2869e-06
2.29824e-06
2.30601e-06
2.31071e-06
2.31292e-06
2.31327e-06
2.31242e-06
2.31095e-06
2.30947e-06
2.30838e-06
2.30807e-06
2.3085e-06
2.30972e-06
2.3109e-06
2.50595e-06
2.5805e-06
2.71115e-06
2.8792e-06
3.06197e-06
3.23871e-06
3.39282e-06
3.51258e-06
3.59405e-06
3.62532e-06
2.46045e-06
2.5259e-06
2.64174e-06
2.79333e-06
2.96217e-06
3.13066e-06
3.28389e-06
3.40805e-06
3.49867e-06
3.54161e-06
2.42359e-06
2.48086e-06
2.5826e-06
2.71698e-06
2.86866e-06
3.02279e-06
3.16793e-06
3.29222e-06
3.39506e-06
3.46211e-06
2.39309e-06
2.44295e-06
2.53207e-06
2.651e-06
2.78714e-06
2.92753e-06
3.0623e-06
3.18025e-06
3.28113e-06
3.36196e-06
2.36584e-06
2.40915e-06
2.48688e-06
2.59153e-06
2.71281e-06
2.8399e-06
2.96459e-06
3.07748e-06
3.17504e-06
3.26057e-06
2.34116e-06
2.37873e-06
2.44644e-06
2.53828e-06
2.64572e-06
2.75964e-06
2.87272e-06
2.97812e-06
3.06984e-06
3.15671e-06
2.31743e-06
2.35003e-06
2.40899e-06
2.48953e-06
2.58456e-06
2.6866e-06
2.78883e-06
2.88659e-06
2.97136e-06
3.05496e-06
2.29398e-06
2.32228e-06
2.37359e-06
2.44412e-06
2.52785e-06
2.61876e-06
2.71039e-06
2.80009e-06
2.87798e-06
2.95666e-06
2.26993e-06
2.29453e-06
2.33926e-06
2.40109e-06
2.47489e-06
2.55581e-06
2.63773e-06
2.71936e-06
2.79037e-06
2.86289e-06
2.24467e-06
2.2661e-06
2.30513e-06
2.35936e-06
2.42436e-06
2.49626e-06
2.56935e-06
2.6432e-06
2.70777e-06
2.7739e-06
2.21754e-06
2.23626e-06
2.27043e-06
2.31812e-06
2.37549e-06
2.43941e-06
2.50463e-06
2.57116e-06
2.62974e-06
2.6896e-06
2.18795e-06
2.20437e-06
2.2344e-06
2.27648e-06
2.32728e-06
2.38421e-06
2.44253e-06
2.50243e-06
2.5556e-06
2.60962e-06
2.15516e-06
2.16964e-06
2.19621e-06
2.23358e-06
2.27882e-06
2.32976e-06
2.38219e-06
2.43622e-06
2.48466e-06
2.53348e-06
2.11859e-06
2.13147e-06
2.1552e-06
2.18867e-06
2.22933e-06
2.27529e-06
2.32282e-06
2.37191e-06
2.41638e-06
2.46078e-06
2.07709e-06
2.08869e-06
2.11018e-06
2.14057e-06
2.17764e-06
2.21966e-06
2.26337e-06
2.30854e-06
2.34998e-06
2.39083e-06
2.0303e-06
2.04093e-06
2.06077e-06
2.08889e-06
2.12333e-06
2.1625e-06
2.20354e-06
2.24597e-06
2.28548e-06
2.32408e-06
1.97584e-06
1.98584e-06
2.00465e-06
2.03142e-06
2.06434e-06
2.10194e-06
2.14162e-06
2.18282e-06
2.22158e-06
2.25996e-06
1.9147e-06
1.92441e-06
1.94286e-06
1.96918e-06
2.00174e-06
2.03905e-06
2.07879e-06
2.12002e-06
2.15966e-06
2.19803e-06
1.84042e-06
1.85032e-06
1.86931e-06
1.8965e-06
1.93034e-06
1.96932e-06
2.01128e-06
2.05491e-06
2.09775e-06
2.13896e-06
1.76066e-06
1.77122e-06
1.7916e-06
1.82087e-06
1.85751e-06
1.89998e-06
1.94607e-06
1.99431e-06
2.04226e-06
2.08866e-06
)
;

boundaryField
{
    left
    {
        type            symmetryPlane;
        value           nonuniform List<scalar> 
30
(
2.50421e-06
2.45893e-06
2.42225e-06
2.39192e-06
2.36483e-06
2.34028e-06
2.31667e-06
2.29333e-06
2.26937e-06
2.24419e-06
2.21713e-06
2.1876e-06
2.15486e-06
2.11834e-06
2.07689e-06
2.03015e-06
1.97573e-06
1.91464e-06
1.84039e-06
1.76066e-06
6.95e-06
5.42875e-06
4.40993e-06
3.78543e-06
3.35792e-06
3.07541e-06
2.87574e-06
2.73645e-06
2.63459e-06
2.55859e-06
)
;
    }
    right
    {
        type            calculated;
        value           nonuniform List<scalar> 
30
(
1.4705e-06
1.4815e-06
1.50305e-06
1.53466e-06
1.57532e-06
1.62399e-06
1.67873e-06
1.73831e-06
1.8e-06
1.86259e-06
1.92192e-06
1.97607e-06
2.02757e-06
2.07541e-06
2.11903e-06
2.15798e-06
2.1921e-06
2.22133e-06
2.2458e-06
2.26576e-06
2.28154e-06
2.29357e-06
2.30229e-06
2.30821e-06
2.31179e-06
2.31352e-06
2.31382e-06
2.31322e-06
2.31201e-06
2.31105e-06
)
;
    }
    down
    {
        type            symmetryPlane;
        value           nonuniform List<scalar> 
30
(
2.53728e-06
1.6819e-06
1.19664e-06
9.88593e-07
9.10836e-07
9.2313e-07
9.75837e-07
1.05254e-06
1.13542e-06
1.21869e-06
1.3049e-06
1.37709e-06
1.44448e-06
1.50551e-06
1.55903e-06
1.60589e-06
1.64562e-06
1.67859e-06
1.70472e-06
1.72406e-06
1.73649e-06
1.74192e-06
1.73991e-06
1.73033e-06
1.71212e-06
1.68561e-06
1.648e-06
1.60221e-06
1.53959e-06
1.4746e-06
)
;
    }
    up
    {
        type            calculated;
        value           nonuniform List<scalar> 
30
(
1.75814e-06
1.7687e-06
1.78909e-06
1.81838e-06
1.85505e-06
1.89759e-06
1.94376e-06
1.99216e-06
2.0402e-06
2.08689e-06
2.12893e-06
2.16546e-06
2.19838e-06
2.22688e-06
2.25117e-06
2.27092e-06
2.28641e-06
2.29786e-06
2.3057e-06
2.31044e-06
2.3127e-06
2.31308e-06
2.31225e-06
2.31081e-06
2.30935e-06
2.30829e-06
2.308e-06
2.30846e-06
2.30969e-06
2.31079e-06
)
;
    }
    hole
    {
        type            calculated;
        value           nonuniform List<scalar> 
20
(
2.6804e-06
3.43979e-06
4.17058e-06
4.85509e-06
5.47662e-06
6.01994e-06
6.47166e-06
6.82057e-06
7.05796e-06
7.17731e-06
2.62514e-06
2.50488e-06
2.26392e-06
1.90982e-06
1.45208e-06
9.02347e-07
2.74746e-07
4.14937e-07
1.14948e-06
1.91084e-06
)
;
    }
    frontAndBack
    {
        type            empty;
    }
}


// ************************************************************************* //
