/*--------------------------------*- C++ -*----------------------------------*\
| =========                 |                                                 |
| \\      /  F ield         | foam-extend: Open Source CFD                    |
|  \\    /   O peration     | Version:     4.1                                |
|   \\  /    A nd           | Web:         http://www.foam-extend.org         |
|    \\/     M anipulation  |                                                 |
\*---------------------------------------------------------------------------*/
FoamFile
{
    version     2.0;
    format      ascii;
    class       volSymmTensorField;
    location    "6";
    object      epsilon;
}
// * * * * * * * * * * * * * * * * * * * * * * * * * * * * * * * * * * * * * //

dimensions      [0 0 0 0 0 0 0];

internalField   nonuniform List<symmTensor> 
1000
(
(1.95632e-06 -2.1132e-06 -1.04782e-21 1.0606e-08 -1.98943e-21 -4.12843e-36)
(3.0553e-06 -1.64064e-06 5.92394e-21 -1.17241e-06 1.28161e-21 0)
(3.5782e-06 -1.30223e-06 -6.43948e-21 -1.71735e-06 -4.5935e-21 0)
(3.88536e-06 -1.06352e-06 -2.46884e-21 -2.06433e-06 -5.67996e-22 0)
(4.03482e-06 -8.81881e-07 -4.14399e-22 -2.23375e-06 1.10578e-22 0)
(4.09816e-06 -7.4548e-07 2.59947e-21 -2.31978e-06 1.65753e-21 0)
(4.10908e-06 -6.37104e-07 -4.65327e-21 -2.34521e-06 -2.61427e-21 0)
(4.08574e-06 -5.52887e-07 1.01975e-21 -2.33697e-06 6.11815e-22 0)
(4.05108e-06 -4.81832e-07 -1.86284e-21 -2.30944e-06 -1.09535e-21 0)
(3.99028e-06 -4.20937e-07 -2.29954e-21 -2.26955e-06 -1.44801e-21 0)
(2.67939e-06 -2.53947e-06 2.94145e-21 -1.51799e-07 -1.72258e-21 1.1368e-36)
(3.57074e-06 -1.74672e-06 -5.94852e-21 -1.23455e-06 -1.57454e-21 0)
(3.964e-06 -1.23363e-06 -5.49998e-21 -1.71565e-06 -1.4744e-21 0)
(4.17816e-06 -8.95104e-07 -4.28603e-21 -2.03102e-06 -2.95159e-21 0)
(4.26317e-06 -6.58662e-07 -9.37531e-22 -2.18081e-06 -8.35697e-22 0)
(4.27916e-06 -4.95005e-07 3.72776e-21 -2.25905e-06 2.19169e-21 0)
(4.25453e-06 -3.75271e-07 -4.36086e-21 -2.28059e-06 -2.97979e-21 0)
(4.20552e-06 -2.90818e-07 1.76859e-21 -2.27476e-06 1.49652e-21 0)
(4.14418e-06 -2.24487e-07 -3.29399e-21 -2.24401e-06 -2.55448e-21 0)
(4.07351e-06 -1.77168e-07 -1.21806e-21 -2.21691e-06 -1.36209e-21 0)
(3.51975e-06 -2.85019e-06 3.63241e-21 -4.52569e-07 2.21724e-22 -6.96486e-37)
(4.11168e-06 -1.79363e-06 -4.64591e-21 -1.33916e-06 -2.02678e-21 0)
(4.32517e-06 -1.13889e-06 4.25956e-21 -1.70372e-06 1.91946e-21 0)
(4.41797e-06 -7.20707e-07 -3.84472e-21 -1.95668e-06 -1.84732e-21 0)
(4.42297e-06 -4.42021e-07 -9.39109e-22 -2.06933e-06 -7.10218e-22 0)
(4.38351e-06 -2.58665e-07 -3.58597e-21 -2.13006e-06 -2.09776e-21 0)
(4.32007e-06 -1.32295e-07 6.60526e-27 -2.14277e-06 -1.78625e-26 0)
(4.24327e-06 -4.91708e-08 -1.2343e-23 -2.13651e-06 1.63771e-23 0)
(4.1601e-06 1.08872e-08 -2.53783e-22 -2.10551e-06 -1.20398e-21 0)
(4.07392e-06 5.45813e-08 3.93936e-22 -2.08586e-06 -2.98673e-22 0)
(4.43533e-06 -3.00845e-06 1.25527e-20 -8.62802e-07 -2.50053e-21 2.69819e-35)
(4.6582e-06 -1.77118e-06 2.66805e-21 -1.47713e-06 1.9891e-21 0)
(4.65446e-06 -1.02245e-06 2.00395e-21 -1.68382e-06 1.85688e-21 0)
(4.60542e-06 -5.53074e-07 1.16357e-21 -1.85023e-06 8.10253e-22 0)
(4.51966e-06 -2.49165e-07 8.40625e-21 -1.91254e-06 5.03177e-21 0)
(4.42015e-06 -5.55593e-08 -6.32472e-23 -1.94877e-06 -1.45322e-22 0)
(4.31646e-06 7.21598e-08 -3.01103e-23 -1.94981e-06 1.41758e-22 0)
(4.21324e-06 1.52271e-07 -7.96902e-23 -1.94198e-06 1.41268e-22 0)
(4.11077e-06 2.05219e-07 1.83062e-21 -1.91298e-06 9.08527e-22 0)
(4.01403e-06 2.4397e-07 -1.72121e-22 -1.90006e-06 -3.6768e-22 0)
(5.37415e-06 -2.9891e-06 -9.47422e-21 -1.34277e-06 2.43023e-22 -2.86197e-43)
(5.18757e-06 -1.67336e-06 4.30022e-21 -1.63558e-06 1.75128e-21 0)
(4.94569e-06 -8.88725e-07 3.53528e-21 -1.65802e-06 1.72446e-21 0)
(4.74426e-06 -4.02615e-07 3.67891e-21 -1.72225e-06 1.90228e-21 0)
(4.56298e-06 -9.38057e-08 -2.21038e-21 -1.7257e-06 -1.17188e-21 0)
(4.40214e-06 9.86512e-08 3.15812e-21 -1.73283e-06 1.42541e-21 0)
(4.25922e-06 2.21543e-07 9.98269e-22 -1.72057e-06 6.02708e-22 0)
(4.13133e-06 2.96007e-07 -1.9476e-21 -1.71053e-06 -7.17974e-22 0)
(4.0135e-06 3.41037e-07 4.50072e-21 -1.68558e-06 1.74132e-21 0)
(3.90836e-06 3.7445e-07 4.19652e-22 -1.6791e-06 -5.10954e-23 0)
(6.27852e-06 -2.78143e-06 -1.37444e-22 -1.84605e-06 -1.07784e-24 6.1827e-39)
(5.67611e-06 -1.49917e-06 -1.12197e-21 -1.79994e-06 -3.39804e-22 0)
(5.19422e-06 -7.41785e-07 5.54948e-21 -1.62956e-06 2.3966e-21 0)
(4.84128e-06 -2.76207e-07 1.45457e-21 -1.58616e-06 4.33968e-22 0)
(4.56631e-06 1.57499e-08 -2.06557e-21 -1.52805e-06 -8.14021e-22 0)
(4.34663e-06 1.94982e-07 -5.24539e-21 -1.50446e-06 -2.56193e-21 0)
(4.16719e-06 3.06656e-07 4.32092e-23 -1.47847e-06 -7.19444e-22 0)
(4.01729e-06 3.72627e-07 -2.78118e-22 -1.46583e-06 9.03759e-22 0)
(3.88713e-06 4.09206e-07 1.4305e-21 -1.44589e-06 1.09845e-21 0)
(3.77571e-06 4.36849e-07 3.67158e-21 -1.44507e-06 1.50593e-21 0)
(7.08974e-06 -2.39062e-06 3.57539e-21 -2.32385e-06 -4.64677e-22 -1.10488e-36)
(6.10041e-06 -1.25304e-06 -1.94831e-21 -1.95482e-06 2.76344e-22 0)
(5.39641e-06 -5.85369e-07 1.6345e-21 -1.60161e-06 1.21104e-21 0)
(4.90452e-06 -1.77082e-07 5.057e-22 -1.45575e-06 -3.55936e-22 0)
(4.54449e-06 7.66848e-08 2.93521e-21 -1.33929e-06 5.50518e-22 0)
(4.27219e-06 2.30862e-07 -1.12532e-22 -1.28645e-06 -4.75342e-22 0)
(4.0609e-06 3.25201e-07 8.75352e-22 -1.24762e-06 1.41909e-21 0)
(3.89228e-06 3.79945e-07 3.04867e-21 -1.23232e-06 2.41661e-21 0)
(3.75279e-06 4.08001e-07 -1.45841e-21 -1.2177e-06 -7.29173e-22 0)
(3.63653e-06 4.29769e-07 4.1939e-22 -1.2215e-06 -7.76215e-22 0)
(7.75324e-06 -1.8375e-06 0 -2.72982e-06 0 0)
(6.43958e-06 -9.44457e-07 9.4141e-21 -2.08585e-06 2.85178e-21 0)
(5.55007e-06 -4.22458e-07 -9.9301e-21 -1.57745e-06 -2.72053e-21 0)
(4.94283e-06 -1.04319e-07 -3.76593e-22 -1.34439e-06 -6.21996e-22 0)
(4.51264e-06 9.22488e-08 -9.46044e-22 -1.17842e-06 9.86811e-23 0)
(4.19739e-06 2.10855e-07 4.91515e-21 -1.10066e-06 1.8407e-21 0)
(3.96055e-06 2.82506e-07 1.72885e-21 -1.05102e-06 6.65583e-22 0)
(3.77719e-06 3.23589e-07 -2.38416e-21 -1.03333e-06 -4.43652e-22 0)
(3.63103e-06 3.4332e-07 1.00933e-22 -1.02353e-06 -4.25157e-22 0)
(3.51124e-06 3.59062e-07 -1.1399e-21 -1.03079e-06 -9.33943e-22 0)
(8.22309e-06 -1.15726e-06 6.43513e-21 -3.02461e-06 6.54845e-22 2.97014e-36)
(6.67594e-06 -5.87821e-07 -5.28753e-22 -2.18081e-06 -1.05955e-21 0)
(5.65313e-06 -2.5558e-07 -3.30559e-21 -1.55978e-06 -6.60265e-22 0)
(4.96331e-06 -5.34294e-08 2.75738e-21 -1.26335e-06 8.76446e-22 0)
(4.48311e-06 7.10345e-08 -1.10824e-21 -1.06144e-06 -2.53894e-22 0)
(4.13746e-06 1.45835e-07 -2.83013e-21 -9.65563e-07 -4.06312e-22 0)
(3.88277e-06 1.90663e-07 1.82513e-24 -9.08117e-07 -6.69562e-22 0)
(3.68922e-06 2.16185e-07 -3.33566e-23 -8.88632e-07 4.0041e-22 0)
(3.53882e-06 2.2791e-07 -3.02013e-23 -8.82505e-07 2.18519e-22 0)
(3.41673e-06 2.37479e-07 -1.16041e-21 -8.92105e-07 -7.33966e-22 0)
(8.46577e-06 -3.95482e-07 -5.41155e-21 -3.1785e-06 9.63204e-22 1.76629e-36)
(6.79675e-06 -1.99992e-07 -4.39246e-21 -2.22867e-06 -1.476e-21 0)
(5.70405e-06 -8.58562e-08 3.36063e-21 -1.54737e-06 1.0774e-21 0)
(4.97098e-06 -1.64006e-08 -5.25063e-21 -1.21699e-06 -6.7961e-22 0)
(4.46461e-06 2.63215e-08 2.11909e-21 -9.95798e-07 -6.5917e-22 0)
(4.10312e-06 5.1968e-08 -9.2854e-22 -8.90216e-07 1.41699e-22 0)
(3.8392e-06 6.72906e-08 -1.82783e-25 -8.28618e-07 6.80837e-22 0)
(3.64044e-06 7.59953e-08 -7.48906e-22 -8.08213e-07 4.04636e-22 0)
(3.48799e-06 7.99184e-08 -2.62658e-21 -8.04117e-07 -1.10096e-21 0)
(3.36487e-06 8.31582e-08 1.30107e-21 -8.15085e-07 9.66557e-23 0)
(1.14826e-06 1.03876e-07 -7.44431e-22 -3.09959e-06 3.36986e-21 -4.23728e-36)
(7.67894e-07 -4.64389e-08 1.10691e-21 -2.04968e-06 1.58466e-21 0)
(5.86373e-07 -1.23055e-07 1.46114e-23 -1.42845e-06 -7.13866e-22 0)
(6.20034e-07 -1.64015e-07 -5.86815e-23 -1.07224e-06 5.06126e-22 0)
(7.08129e-07 -1.83119e-07 -6.66507e-22 -8.66822e-07 -4.60112e-22 0)
(8.46237e-07 -1.89831e-07 8.82336e-22 -7.5174e-07 3.64051e-22 0)
(9.90476e-07 -1.89333e-07 1.23648e-22 -6.90848e-07 1.48114e-22 0)
(1.14021e-06 -1.84986e-07 -1.63408e-22 -6.61799e-07 2.71007e-22 0)
(1.28032e-06 -1.77596e-07 8.78809e-22 -6.52594e-07 2.37534e-22 0)
(1.41425e-06 -1.72212e-07 -8.16156e-23 -6.49943e-07 -1.17458e-22 0)
(1.08719e-06 2.88878e-07 4.11594e-23 -2.94742e-06 1.47286e-22 -2.45341e-38)
(7.98558e-07 -1.45706e-07 -1.94651e-21 -2.00543e-06 -2.78652e-21 0)
(6.66302e-07 -3.66006e-07 1.48382e-21 -1.44289e-06 1.46255e-21 0)
(7.24742e-07 -4.82997e-07 1.07725e-21 -1.12108e-06 7.79751e-22 0)
(8.24516e-07 -5.37078e-07 -2.74318e-22 -9.34455e-07 -3.57133e-22 0)
(9.66043e-07 -5.55479e-07 -2.93683e-21 -8.29189e-07 -1.08433e-21 0)
(1.10912e-06 -5.53236e-07 -4.84722e-23 -7.72457e-07 -4.1003e-25 0)
(1.25535e-06 -5.39933e-07 -4.95764e-22 -7.44425e-07 -3.016e-22 0)
(1.38947e-06 -5.18032e-07 3.11006e-22 -7.33538e-07 -1.51125e-23 0)
(1.51921e-06 -5.01936e-07 7.71773e-22 -7.29243e-07 -6.33431e-23 0)
(9.71784e-07 4.12469e-07 -6.03014e-22 -2.65465e-06 -2.79133e-21 -1.69367e-36)
(8.55578e-07 -2.58405e-07 -1.48421e-21 -1.91957e-06 -1.30549e-21 0)
(8.12776e-07 -5.96503e-07 2.31051e-21 -1.46769e-06 6.05047e-22 0)
(9.16581e-07 -7.74631e-07 4.99306e-22 -1.21086e-06 5.61917e-22 0)
(1.0373e-06 -8.55727e-07 1.35292e-21 -1.05956e-06 6.35319e-22 0)
(1.1848e-06 -8.81834e-07 -1.31808e-21 -9.72832e-07 -6.59137e-22 0)
(1.32545e-06 -8.76353e-07 -2.13628e-21 -9.23989e-07 -6.13865e-22 0)
(1.46502e-06 -8.5381e-07 -7.27765e-22 -8.97943e-07 -1.64656e-22 0)
(1.58788e-06 -8.18525e-07 3.67489e-23 -8.84009e-07 -3.07487e-24 0)
(1.70999e-06 -7.92089e-07 1.04932e-21 -8.76834e-07 4.69213e-22 0)
(8.29856e-07 4.43449e-07 -2.16628e-21 -2.25149e-06 -3.07286e-23 1.00124e-35)
(9.48008e-07 -3.89192e-07 9.81206e-22 -1.80145e-06 -1.34398e-21 0)
(1.02603e-06 -8.05208e-07 -5.86229e-21 -1.5015e-06 -4.49284e-21 0)
(1.19049e-06 -1.02207e-06 -1.32448e-21 -1.33409e-06 8.68769e-23 0)
(1.33865e-06 -1.11814e-06 -8.04069e-23 -1.23134e-06 1.72729e-22 0)
(1.49322e-06 -1.14605e-06 1.73998e-21 -1.17013e-06 7.82955e-22 0)
(1.62969e-06 -1.13516e-06 -4.80288e-22 -1.13222e-06 -2.57799e-24 0)
(1.75928e-06 -1.10305e-06 1.45776e-21 -1.1089e-06 9.80958e-22 0)
(1.86625e-06 -1.0562e-06 -2.58789e-21 -1.091e-06 -4.98179e-22 0)
(1.97712e-06 -1.02012e-06 2.32829e-21 -1.07973e-06 3.54916e-22 0)
(6.94512e-07 3.59202e-07 5.85392e-22 -1.77836e-06 -2.12784e-21 -4.38887e-37)
(1.08219e-06 -5.41639e-07 4.89046e-21 -1.66336e-06 4.50773e-21 0)
(1.29833e-06 -9.85419e-07 -4.65762e-21 -1.54178e-06 -3.1221e-21 0)
(1.53081e-06 -1.21277e-06 -2.17812e-21 -1.47963e-06 -1.1794e-21 0)
(1.70876e-06 -1.30872e-06 1.92109e-21 -1.43394e-06 8.11183e-22 0)
(1.86954e-06 -1.3311e-06 2.57685e-21 -1.40279e-06 1.05887e-21 0)
(1.99953e-06 -1.31214e-06 1.46519e-21 -1.37784e-06 9.49995e-22 0)
(2.11583e-06 -1.27024e-06 2.58739e-21 -1.35769e-06 7.88833e-22 0)
(2.20334e-06 -1.21407e-06 -5.73487e-22 -1.33542e-06 -6.33003e-22 0)
(2.29947e-06 -1.16943e-06 -3.53161e-21 -1.31904e-06 -3.5249e-22 0)
(6.03859e-07 1.5064e-07 -5.72252e-23 -1.28198e-06 1.40248e-22 -9.34773e-40)
(1.26507e-06 -7.15494e-07 3.07427e-21 -1.519e-06 1.54097e-21 0)
(1.61988e-06 -1.13193e-06 2.4951e-21 -1.58432e-06 2.24638e-21 0)
(1.91849e-06 -1.33879e-06 -1.22448e-21 -1.63297e-06 -8.21891e-22 0)
(2.1237e-06 -1.41813e-06 -2.24464e-21 -1.64726e-06 -9.91926e-22 0)
(2.28757e-06 -1.42705e-06 -1.4164e-21 -1.64785e-06 -5.65672e-22 0)
(2.40817e-06 -1.3972e-06 2.285e-21 -1.63677e-06 1.1662e-21 0)
(2.50792e-06 -1.34543e-06 -2.73749e-21 -1.61995e-06 -1.46955e-21 0)
(2.57362e-06 -1.28232e-06 4.54715e-21 -1.5937e-06 1.38199e-21 0)
(2.65179e-06 -1.23053e-06 1.55172e-22 -1.57155e-06 -6.28566e-22 0)
(5.9672e-07 -1.76837e-07 2.67908e-21 -8.11582e-07 -4.91293e-21 -2.87631e-37)
(1.50329e-06 -9.06738e-07 -8.48088e-21 -1.38337e-06 -4.65051e-21 0)
(1.98002e-06 -1.2415e-06 2.89704e-21 -1.62552e-06 1.94633e-21 0)
(2.33331e-06 -1.39742e-06 -2.64979e-22 -1.77975e-06 7.52556e-22 0)
(2.55825e-06 -1.44405e-06 1.24971e-21 -1.85099e-06 5.98246e-22 0)
(2.71978e-06 -1.43202e-06 -5.20492e-22 -1.88194e-06 -1.93585e-22 0)
(2.82748e-06 -1.38871e-06 -3.18778e-21 -1.88425e-06 -1.34754e-21 0)
(2.90767e-06 -1.32744e-06 1.83909e-21 -1.87078e-06 8.12206e-22 0)
(2.95052e-06 -1.25978e-06 -1.67279e-21 -1.84135e-06 -7.3412e-22 0)
(3.00799e-06 -1.20238e-06 3.48746e-21 -1.81361e-06 8.71791e-22 0)
(7.0783e-07 -6.03578e-07 -9.98092e-22 -4.13587e-07 1.43532e-21 4.28234e-38)
(1.80149e-06 -1.10738e-06 -2.76642e-21 -1.27053e-06 -3.24084e-21 0)
(2.36706e-06 -1.31255e-06 -4.0674e-21 -1.66172e-06 -3.89271e-21 0)
(2.75447e-06 -1.39078e-06 1.51065e-21 -1.90603e-06 7.3972e-22 0)
(2.98672e-06 -1.39072e-06 4.02593e-21 -2.02548e-06 1.96768e-21 0)
(3.13818e-06 -1.35143e-06 3.66718e-21 -2.08236e-06 1.78919e-21 0)
(3.22877e-06 -1.29267e-06 -5.71401e-22 -2.09654e-06 1.08901e-22 0)
(3.28644e-06 -1.22266e-06 2.10431e-21 -2.08589e-06 8.92517e-22 0)
(3.30682e-06 -1.15258e-06 -2.06953e-21 -2.05558e-06 -1.48567e-21 0)
(3.34104e-06 -1.09098e-06 7.34947e-22 -2.02245e-06 7.11224e-22 0)
(9.63888e-07 -1.09735e-06 2.87778e-21 -1.27334e-07 3.87516e-21 -1.03285e-35)
(2.16175e-06 -1.30604e-06 3.97649e-21 -1.19265e-06 5.08276e-21 0)
(2.76991e-06 -1.34517e-06 4.22911e-21 -1.69026e-06 1.18635e-21 0)
(3.16381e-06 -1.32567e-06 6.13542e-22 -2.00045e-06 -6.37446e-22 0)
(3.38741e-06 -1.26872e-06 1.27845e-22 -2.15445e-06 -1.88813e-22 0)
(3.51973e-06 -1.19818e-06 -9.26006e-23 -2.23045e-06 -2.65797e-23 0)
(3.58877e-06 -1.12311e-06 3.34589e-21 -2.25311e-06 1.76859e-21 0)
(3.62153e-06 -1.04665e-06 -4.46782e-21 -2.24538e-06 -2.89557e-21 0)
(3.62095e-06 -9.76286e-07 4.12894e-21 -2.21507e-06 1.70916e-21 0)
(3.6305e-06 -9.1264e-07 4.44394e-22 -2.18162e-06 2.35466e-22 0)
(1.37971e-06 -1.6164e-06 4.31308e-21 1.89339e-08 -7.20661e-21 -1.17661e-35)
(2.58174e-06 -1.48892e-06 4.23152e-21 -1.1584e-06 2.08635e-21 0)
(3.1768e-06 -1.341e-06 5.6584e-21 -1.70903e-06 2.8429e-21 0)
(3.54425e-06 -1.21253e-06 2.7238e-21 -2.05442e-06 2.13395e-21 0)
(3.73997e-06 -1.09341e-06 -4.30233e-21 -2.22555e-06 -2.38754e-21 0)
(3.84212e-06 -9.89771e-07 -3.86066e-21 -2.31115e-06 -2.11827e-21 0)
(3.88333e-06 -8.98628e-07 1.01334e-22 -2.33785e-06 -6.01243e-23 0)
(3.88737e-06 -8.17384e-07 -2.03009e-21 -2.32971e-06 -1.16294e-21 0)
(3.86725e-06 -7.50335e-07 2.11081e-21 -2.30382e-06 1.94139e-21 0)
(3.84391e-06 -6.86881e-07 2.87467e-21 -2.26076e-06 6.56739e-22 0)
(1.53908e-06 -1.59102e-07 4.26851e-22 -6.63856e-07 -1.55752e-24 0)
(1.64898e-06 -1.42283e-07 7.93616e-22 -6.67985e-07 -2.39382e-22 0)
(1.749e-06 -1.28888e-07 4.27587e-23 -6.74823e-07 -5.6088e-25 0)
(1.84037e-06 -1.1654e-07 -6.77821e-22 -6.79661e-07 -3.65905e-22 0)
(1.92201e-06 -1.0554e-07 -2.70258e-21 -6.81605e-07 -1.24964e-22 0)
(1.99546e-06 -9.57984e-08 -4.11311e-22 -6.80388e-07 4.93095e-22 0)
(2.06068e-06 -8.70371e-08 2.39162e-21 -6.75048e-07 2.54833e-22 0)
(2.11836e-06 -7.92097e-08 -2.39937e-21 -6.6541e-07 -1.34419e-22 0)
(2.16873e-06 -7.21038e-08 2.12747e-22 -6.50877e-07 7.20426e-22 0)
(2.21212e-06 -6.56249e-08 1.3167e-21 -6.31115e-07 2.44843e-22 0)
(2.24861e-06 -5.96184e-08 2.2377e-22 -6.05585e-07 6.77944e-22 0)
(2.27831e-06 -5.39695e-08 2.60647e-21 -5.73765e-07 2.46532e-22 0)
(2.30093e-06 -4.85478e-08 2.38845e-21 -5.34969e-07 -4.67653e-22 0)
(2.31659e-06 -4.32234e-08 -2.5933e-21 -4.88418e-07 -2.27551e-22 0)
(2.32408e-06 -3.78693e-08 -3.85163e-21 -4.33125e-07 6.66897e-24 0)
(2.32428e-06 -3.23228e-08 2.03958e-21 -3.67951e-07 3.25922e-22 0)
(2.31338e-06 -2.64564e-08 -5.05988e-23 -2.91408e-07 -1.12354e-22 0)
(2.29599e-06 -1.99965e-08 1.42037e-21 -2.0191e-07 2.74134e-22 0)
(2.25939e-06 -1.29817e-08 1.18846e-21 -9.69355e-08 -1.16057e-23 0)
(2.22414e-06 -4.22393e-09 2.96533e-22 2.46872e-08 3.08463e-23 -3.27164e-37)
(1.63249e-06 -4.63743e-07 1.2134e-23 -7.36128e-07 1.33584e-23 0)
(1.72693e-06 -4.15539e-07 -1.146e-21 -7.30156e-07 -1.27478e-22 0)
(1.8155e-06 -3.76981e-07 5.92435e-22 -7.28597e-07 1.32069e-22 0)
(1.89649e-06 -3.41455e-07 1.89995e-21 -7.26356e-07 6.48427e-22 0)
(1.96973e-06 -3.09668e-07 -1.11047e-21 -7.22104e-07 -4.18479e-24 0)
(2.03589e-06 -2.81496e-07 -1.62647e-21 -7.15734e-07 -5.29146e-22 0)
(2.09507e-06 -2.56072e-07 1.09079e-21 -7.0598e-07 5.22839e-22 0)
(2.14756e-06 -2.33321e-07 2.81614e-22 -6.92657e-07 2.54802e-22 0)
(2.19359e-06 -2.12613e-07 -2.52099e-21 -6.75027e-07 -7.88305e-22 0)
(2.23326e-06 -1.93695e-07 -1.50295e-21 -6.52701e-07 -2.76297e-22 0)
(2.26662e-06 -1.76118e-07 -3.338e-23 -6.2507e-07 -9.39653e-25 0)
(2.29369e-06 -1.59553e-07 4.6097e-21 -5.91565e-07 3.85938e-22 0)
(2.31409e-06 -1.43622e-07 2.12294e-22 -5.51467e-07 2.10881e-22 0)
(2.32792e-06 -1.27947e-07 -1.07619e-21 -5.03974e-07 2.21872e-22 0)
(2.33393e-06 -1.12155e-07 -2.33886e-22 -4.48087e-07 -2.57814e-22 0)
(2.33299e-06 -9.57677e-08 -2.49406e-22 -3.82671e-07 -2.23484e-22 0)
(2.32128e-06 -7.84107e-08 -8.90973e-22 -3.06252e-07 2.00224e-22 0)
(2.30341e-06 -5.92713e-08 -6.45037e-22 -2.17275e-07 -5.87985e-23 0)
(2.26677e-06 -3.84762e-08 3.59045e-21 -1.13288e-07 4.90903e-22 0)
(2.23176e-06 -1.25186e-08 9.23501e-22 6.82322e-09 2.32166e-22 -3.0515e-36)
(1.80156e-06 -7.33164e-07 6.68113e-22 -8.70775e-07 -1.41561e-22 0)
(1.86798e-06 -6.60408e-07 1.44604e-21 -8.46354e-07 4.46188e-22 0)
(1.93564e-06 -6.01075e-07 -3.69538e-21 -8.29075e-07 -3.18709e-22 0)
(1.99783e-06 -5.46486e-07 3.99207e-22 -8.13769e-07 2.95906e-22 0)
(2.05585e-06 -4.96964e-07 2.02931e-21 -7.97973e-07 -1.14743e-22 0)
(2.10878e-06 -4.52987e-07 -3.12532e-21 -7.8202e-07 -1.9204e-22 0)
(2.15704e-06 -4.12974e-07 -1.66654e-21 -7.64041e-07 -3.06139e-22 0)
(2.20014e-06 -3.77041e-07 3.76271e-21 -7.43846e-07 2.43275e-22 0)
(2.23831e-06 -3.44165e-07 2.13194e-21 -7.20446e-07 -1.78379e-22 0)
(2.27128e-06 -3.1402e-07 -2.78702e-21 -6.93346e-07 -3.67202e-22 0)
(2.29902e-06 -2.85906e-07 -3.19106e-21 -6.61815e-07 -6.31841e-22 0)
(2.32132e-06 -2.59324e-07 1.26923e-21 -6.25199e-07 7.7117e-23 0)
(2.33778e-06 -2.3368e-07 2.19328e-21 -5.82719e-07 3.58054e-22 0)
(2.34837e-06 -2.08373e-07 7.60834e-23 -5.3353e-07 -3.60907e-22 0)
(2.35181e-06 -1.82809e-07 1.42407e-22 -4.76619e-07 9.39446e-23 0)
(2.3489e-06 -1.5621e-07 -3.18204e-21 -4.10856e-07 -3.49381e-22 0)
(2.33591e-06 -1.27977e-07 -1.57023e-21 -3.34804e-07 -4.74032e-23 0)
(2.31733e-06 -9.6777e-08 -5.81036e-22 -2.46955e-07 -2.48659e-22 0)
(2.28085e-06 -6.28303e-08 1.23417e-21 -1.44988e-07 2.14426e-22 0)
(2.24649e-06 -2.04655e-08 1.12476e-21 -2.78589e-08 4.90585e-22 -4.88796e-36)
(2.03928e-06 -9.47209e-07 7.05836e-22 -1.05653e-06 2.32482e-22 0)
(2.06722e-06 -8.60739e-07 -6.46559e-22 -1.00845e-06 -9.14805e-24 0)
(2.10625e-06 -7.87418e-07 3.58188e-22 -9.69886e-07 -3.06353e-22 0)
(2.14215e-06 -7.20269e-07 -4.92652e-23 -9.3706e-07 -3.22732e-22 0)
(2.17901e-06 -6.57798e-07 2.52768e-22 -9.05495e-07 -1.45377e-22 0)
(2.21329e-06 -6.02145e-07 -8.95549e-22 -8.76364e-07 -1.78273e-22 0)
(2.24615e-06 -5.5083e-07 -1.1229e-21 -8.47005e-07 -3.34372e-22 0)
(2.2759e-06 -5.04476e-07 -5.273e-22 -8.17216e-07 -3.03174e-22 0)
(2.30288e-06 -4.61726e-07 2.29545e-22 -7.85721e-07 1.46709e-22 0)
(2.32626e-06 -4.22295e-07 9.83188e-22 -7.5187e-07 5.71159e-22 0)
(2.3459e-06 -3.85307e-07 -1.71356e-21 -7.14793e-07 -3.64673e-22 0)
(2.36136e-06 -3.50149e-07 1.09492e-21 -6.73724e-07 3.16304e-22 0)
(2.37211e-06 -3.16069e-07 2.57037e-21 -6.27813e-07 2.49261e-22 0)
(2.37798e-06 -2.82281e-07 -1.03879e-21 -5.76166e-07 -3.00157e-22 0)
(2.37768e-06 -2.48009e-07 -2.37706e-21 -5.17762e-07 -2.28003e-22 0)
(2.37191e-06 -2.12206e-07 -1.48757e-21 -4.51484e-07 -2.87358e-22 0)
(2.35704e-06 -1.74072e-07 1.05496e-21 -3.75957e-07 -5.48052e-23 0)
(2.33742e-06 -1.31788e-07 1.27326e-21 -2.89753e-07 2.56903e-22 0)
(2.30118e-06 -8.56491e-08 3.46195e-22 -1.90746e-07 5.51349e-23 0)
(2.26776e-06 -2.79878e-08 -7.75343e-22 -7.79935e-08 -4.74731e-22 -2.47341e-36)
(2.32783e-06 -1.09073e-06 1.35808e-21 -1.27663e-06 -2.36718e-22 0)
(2.31093e-06 -1.004e-06 6.43729e-22 -1.20369e-06 -8.50169e-22 0)
(2.31659e-06 -9.25222e-07 -1.45973e-21 -1.14059e-06 2.5397e-22 0)
(2.32098e-06 -8.53723e-07 -6.62091e-22 -1.08764e-06 -2.66574e-23 0)
(2.33247e-06 -7.84437e-07 2.30291e-21 -1.03752e-06 2.75756e-22 0)
(2.34399e-06 -7.22324e-07 -1.29828e-21 -9.9261e-07 4.14451e-22 0)
(2.35798e-06 -6.63911e-07 -1.42002e-21 -9.49544e-07 -3.8452e-22 0)
(2.37126e-06 -6.10608e-07 1.17323e-21 -9.08057e-07 -2.23329e-22 0)
(2.38434e-06 -5.60887e-07 -5.67513e-22 -8.66664e-07 2.41704e-22 0)
(2.39576e-06 -5.14607e-07 -3.33533e-23 -8.24515e-07 2.65306e-22 0)
(2.40527e-06 -4.70842e-07 -1.27127e-21 -7.80614e-07 -1.17265e-22 0)
(2.41212e-06 -4.28935e-07 -1.47042e-21 -7.34059e-07 -7.34246e-22 0)
(2.41566e-06 -3.88048e-07 4.44894e-21 -6.83928e-07 5.40038e-22 0)
(2.41557e-06 -3.47261e-07 5.28899e-22 -6.29272e-07 2.59449e-22 0)
(2.41051e-06 -3.05664e-07 -8.79513e-22 -5.69067e-07 -2.19871e-22 0)
(2.40109e-06 -2.61979e-07 6.71318e-22 -5.02222e-07 1.25074e-22 0)
(2.38379e-06 -2.15241e-07 -2.92407e-21 -4.27453e-07 -7.14451e-22 0)
(2.36283e-06 -1.63195e-07 1.21395e-21 -3.43446e-07 3.70241e-22 0)
(2.3269e-06 -1.06195e-07 -5.59394e-22 -2.48336e-07 -1.56512e-22 0)
(2.29465e-06 -3.4837e-08 2.61067e-22 -1.41331e-07 8.49536e-23 3.98596e-40)
(2.64553e-06 -1.15436e-06 -6.32549e-22 -1.51047e-06 -8.14604e-22 0)
(2.58229e-06 -1.08178e-06 -9.83273e-22 -1.41645e-06 6.25716e-22 0)
(2.55355e-06 -1.00669e-06 -9.87016e-22 -1.3292e-06 3.01982e-22 0)
(2.52397e-06 -9.39856e-07 -7.43441e-22 -1.25628e-06 -7.9465e-22 0)
(2.50812e-06 -8.70828e-07 1.62911e-21 -1.18728e-06 1.19099e-21 0)
(2.49452e-06 -8.08197e-07 1.69187e-21 -1.12571e-06 3.05255e-22 0)
(2.48748e-06 -7.4771e-07 2.66133e-21 -1.06802e-06 1.97094e-22 0)
(2.48221e-06 -6.91589e-07 -3.36277e-21 -1.01372e-06 -5.93717e-22 0)
(2.47945e-06 -6.38432e-07 -2.22148e-21 -9.61334e-07 -4.69449e-23 0)
(2.47715e-06 -5.88263e-07 -2.43268e-22 -9.09791e-07 -5.87933e-22 0)
(2.47493e-06 -5.40271e-07 3.18693e-21 -8.58041e-07 3.56688e-22 0)
(2.47176e-06 -4.93813e-07 -6.0881e-22 -8.05078e-07 -5.58059e-22 0)
(2.46684e-06 -4.48058e-07 -1.888e-21 -7.49938e-07 -2.71598e-22 0)
(2.45972e-06 -4.02015e-07 8.77706e-22 -6.91647e-07 4.27021e-22 0)
(2.44901e-06 -3.54698e-07 -1.24711e-21 -6.29204e-07 -2.3466e-22 0)
(2.43524e-06 -3.04655e-07 -6.6572e-22 -5.61576e-07 -1.45257e-22 0)
(2.41505e-06 -2.50802e-07 -2.64099e-22 -4.87611e-07 -1.07534e-22 0)
(2.39245e-06 -1.905e-07 1.36434e-21 -4.06148e-07 3.60559e-22 0)
(2.35692e-06 -1.24159e-07 1.66062e-21 -3.1568e-07 5.47797e-22 0)
(2.32613e-06 -4.09183e-08 -1.30773e-21 -2.15641e-07 -8.87286e-22 -3.99489e-36)
(2.96981e-06 -1.13667e-06 -2.76988e-22 -1.73632e-06 2.58337e-22 0)
(2.86344e-06 -1.09251e-06 5.61923e-22 -1.62828e-06 3.12954e-22 0)
(2.80285e-06 -1.03031e-06 2.87964e-21 -1.52031e-06 3.63985e-22 0)
(2.73962e-06 -9.76665e-07 -4.57943e-21 -1.4289e-06 -9.20359e-22 0)
(2.69646e-06 -9.15208e-07 -3.17456e-22 -1.34234e-06 3.54256e-22 0)
(2.65719e-06 -8.57742e-07 3.07752e-22 -1.26425e-06 -3.36512e-22 0)
(2.6282e-06 -8.00187e-07 3.25496e-21 -1.19198e-06 1.03455e-21 0)
(2.60346e-06 -7.45234e-07 1.30173e-21 -1.12465e-06 1.35168e-22 0)
(2.58382e-06 -6.92092e-07 -1.7915e-21 -1.06101e-06 -8.30903e-22 0)
(2.56684e-06 -6.40944e-07 -7.87027e-22 -9.99834e-07 -3.92595e-22 0)
(2.55192e-06 -5.9128e-07 -1.27342e-21 -9.40032e-07 -1.67311e-22 0)
(2.53785e-06 -5.42528e-07 3.37205e-22 -8.80512e-07 1.74617e-22 0)
(2.52367e-06 -4.93949e-07 1.09917e-21 -8.20279e-07 5.17579e-22 0)
(2.50879e-06 -4.44533e-07 0 -7.58346e-07 0 0)
(2.49181e-06 -3.9327e-07 2.32995e-22 -6.93759e-07 -1.91383e-22 0)
(2.47316e-06 -3.38588e-07 1.27377e-21 -6.25567e-07 3.12544e-22 0)
(2.4497e-06 -2.79325e-07 -6.17738e-22 -5.52788e-07 -9.46903e-23 0)
(2.42523e-06 -2.12546e-07 -2.29034e-21 -4.74461e-07 -8.08904e-22 0)
(2.39014e-06 -1.38715e-07 1.9421e-21 -3.89481e-07 7.02085e-22 0)
(2.3609e-06 -4.59175e-08 -5.90585e-22 -2.97558e-07 -5.23479e-22 -1.15892e-36)
(3.27672e-06 -1.04006e-06 2.76166e-21 -1.93516e-06 3.44315e-22 0)
(3.13534e-06 -1.03543e-06 -2.19637e-21 -1.82423e-06 -4.78964e-22 0)
(3.04961e-06 -9.95022e-07 1.98624e-21 -1.70564e-06 9.52364e-22 0)
(2.95687e-06 -9.61597e-07 6.51829e-22 -1.60062e-06 2.95319e-22 0)
(2.88861e-06 -9.1556e-07 -5.07831e-21 -1.50124e-06 -1.88039e-21 0)
(2.8255e-06 -8.69168e-07 1.18622e-21 -1.40924e-06 5.33347e-22 0)
(2.77498e-06 -8.2022e-07 1.33662e-21 -1.32408e-06 1.69977e-22 0)
(2.73102e-06 -7.71082e-07 4.78449e-21 -1.24446e-06 1.31176e-21 0)
(2.69415e-06 -7.21977e-07 -1.24971e-21 -1.16968e-06 -1.66514e-22 0)
(2.66205e-06 -6.73211e-07 -3.49179e-22 -1.09854e-06 2.66615e-22 0)
(2.63383e-06 -6.24708e-07 3.3909e-22 -1.03008e-06 -2.39982e-22 0)
(2.60825e-06 -5.76075e-07 -3.34894e-22 -9.63291e-07 2.10095e-22 0)
(2.5842e-06 -5.26757e-07 3.88592e-22 -8.97218e-07 5.42294e-22 0)
(2.561e-06 -4.75824e-07 4.47696e-21 -8.30941e-07 1.12909e-21 0)
(2.53726e-06 -4.22319e-07 -1.90628e-21 -7.63604e-07 -6.1185e-22 0)
(2.51331e-06 -3.6462e-07 -3.66411e-21 -6.9438e-07 -9.83522e-22 0)
(2.48631e-06 -3.01547e-07 3.00489e-21 -6.22505e-07 1.00459e-21 0)
(2.45979e-06 -2.29935e-07 5.85428e-22 -5.47268e-07 1.80877e-22 0)
(2.42522e-06 -1.50308e-07 -1.72659e-21 -4.68061e-07 -6.86399e-22 0)
(2.39783e-06 -4.99802e-08 5.15798e-22 -3.84993e-07 3.10858e-22 -6.10374e-39)
(3.54981e-06 -8.82511e-07 -2.54646e-21 -2.08868e-06 -1.00506e-21 0)
(3.38246e-06 -9.22962e-07 -9.01301e-22 -1.97882e-06 1.85017e-22 0)
(3.27883e-06 -9.13883e-07 8.10659e-22 -1.86067e-06 -2.04018e-22 0)
(3.1636e-06 -9.03109e-07 2.89854e-21 -1.74616e-06 5.6963e-22 0)
(3.07305e-06 -8.77675e-07 -2.03305e-21 -1.63811e-06 -3.80262e-22 0)
(2.98961e-06 -8.45454e-07 -1.5197e-21 -1.53539e-06 1.49233e-22 0)
(2.91934e-06 -8.082e-07 0 -1.43986e-06 0 0)
(2.85782e-06 -7.67654e-07 2.39493e-21 -1.35041e-06 7.3703e-22 0)
(2.80479e-06 -7.25193e-07 3.48918e-21 -1.26662e-06 1.23354e-21 0)
(2.75832e-06 -6.81343e-07 1.27129e-21 -1.1875e-06 2.02345e-22 0)
(2.71726e-06 -6.36407e-07 -2.22374e-21 -1.11213e-06 -6.80981e-22 0)
(2.68038e-06 -5.90195e-07 -3.78746e-21 -1.03957e-06 -6.95708e-22 0)
(2.6465e-06 -5.42313e-07 -1.86249e-21 -9.68951e-07 -8.71128e-22 0)
(2.6149e-06 -4.91936e-07 3.57986e-21 -8.99452e-07 8.04937e-22 0)
(2.58426e-06 -4.38176e-07 3.97248e-21 -8.30357e-07 1.35457e-21 0)
(2.55484e-06 -3.79423e-07 -1.88973e-21 -7.61016e-07 -6.74095e-22 0)
(2.52417e-06 -3.14518e-07 -6.91381e-22 -6.90942e-07 -3.10476e-22 0)
(2.49546e-06 -2.40188e-07 2.46658e-21 -6.19719e-07 9.99335e-22 0)
(2.46145e-06 -1.57051e-07 -2.25902e-21 -5.47244e-07 -9.97912e-22 0)
(2.43569e-06 -5.23628e-08 4.64153e-24 -4.73898e-07 3.19493e-24 -3.99577e-43)
(3.76104e-06 -6.66566e-07 2.06014e-21 -2.19978e-06 5.53679e-22 0)
(3.59582e-06 -7.37659e-07 -1.55831e-21 -2.09994e-06 -3.12995e-22 0)
(3.48013e-06 -7.73603e-07 5.50969e-23 -2.00121e-06 -3.91565e-22 0)
(3.3552e-06 -7.91947e-07 -7.84786e-22 -1.89003e-06 1.51107e-22 0)
(3.24576e-06 -7.96381e-07 -1.44367e-21 -1.78056e-06 1.08553e-23 0)
(3.14539e-06 -7.87291e-07 -1.26498e-21 -1.67231e-06 -7.49555e-22 0)
(3.05671e-06 -7.68911e-07 -1.05418e-21 -1.56837e-06 -1.1637e-21 0)
(2.97836e-06 -7.43008e-07 -7.47326e-23 -1.46951e-06 5.72033e-23 0)
(2.9096e-06 -7.11703e-07 8.01931e-23 -1.376e-06 -4.42211e-23 0)
(2.84909e-06 -6.76227e-07 2.50589e-21 -1.28762e-06 4.40258e-22 0)
(2.79556e-06 -6.37425e-07 3.16917e-21 -1.20381e-06 1.3105e-21 0)
(2.74778e-06 -5.95593e-07 -1.99823e-21 -1.12391e-06 -9.87611e-22 0)
(2.7045e-06 -5.50676e-07 -3.155e-21 -1.04722e-06 -1.18588e-21 0)
(2.66493e-06 -5.02111e-07 -2.0672e-21 -9.73055e-07 -7.21378e-22 0)
(2.62779e-06 -4.49178e-07 8.4414e-22 -9.00878e-07 4.11588e-22 0)
(2.59329e-06 -3.90376e-07 3.96225e-23 -8.30222e-07 4.38409e-24 0)
(2.55932e-06 -3.2461e-07 -1.12527e-21 -7.60919e-07 -3.91785e-22 0)
(2.52886e-06 -2.48586e-07 2.17146e-23 -6.92879e-07 5.39498e-24 0)
(2.496e-06 -1.62937e-07 1.09267e-21 -6.2654e-07 5.06651e-22 0)
(2.47284e-06 -5.45906e-08 -2.94008e-22 -5.62686e-07 -2.28027e-22 -3.50857e-39)
(3.8801e-06 -4.87748e-07 7.48418e-22 -2.22289e-06 4.34439e-22 0)
(3.72772e-06 -5.47725e-07 1.49023e-21 -2.12156e-06 1.02007e-21 0)
(3.60232e-06 -6.17966e-07 1.54668e-21 -2.03786e-06 4.53227e-22 0)
(3.47923e-06 -6.56923e-07 4.17628e-22 -1.94002e-06 6.82177e-23 0)
(3.36471e-06 -6.82116e-07 5.49392e-22 -1.83773e-06 7.33184e-22 0)
(3.25887e-06 -6.92382e-07 1.40949e-22 -1.73465e-06 -4.80401e-22 0)
(3.16276e-06 -6.91177e-07 -2.87913e-21 -1.63301e-06 -1.06824e-21 0)
(3.07593e-06 -6.8043e-07 -1.02887e-21 -1.53456e-06 -2.2982e-22 0)
(2.99809e-06 -6.62036e-07 1.02406e-21 -1.44007e-06 2.22356e-22 0)
(2.92834e-06 -6.37395e-07 -1.2573e-21 -1.34987e-06 -2.53627e-22 0)
(2.86579e-06 -6.07495e-07 3.20446e-21 -1.26388e-06 1.40478e-21 0)
(2.80951e-06 -5.72861e-07 1.96473e-21 -1.18184e-06 7.73956e-22 0)
(2.75848e-06 -5.33654e-07 -2.88218e-22 -1.10341e-06 2.20471e-22 0)
(2.71207e-06 -4.8955e-07 7.24064e-22 -1.02822e-06 4.41473e-22 0)
(2.66925e-06 -4.40019e-07 1.14606e-21 -9.56042e-07 3.31697e-22 0)
(2.63023e-06 -3.83801e-07 -8.04083e-23 -8.86718e-07 -2.17823e-23 0)
(2.59341e-06 -3.19968e-07 6.8413e-22 -8.20437e-07 3.5226e-22 0)
(2.56141e-06 -2.45489e-07 3.63353e-22 -7.575e-07 1.11887e-22 0)
(2.52963e-06 -1.61161e-07 -1.09474e-21 -6.98936e-07 -5.26608e-22 0)
(2.50826e-06 -5.4139e-08 -5.38483e-22 -6.45676e-07 -5.9729e-22 -9.24753e-37)
(3.83669e-06 -3.44691e-07 -5.12188e-21 -2.13951e-06 -1.65963e-21 0)
(3.73547e-06 -4.11019e-07 -2.51691e-21 -2.08792e-06 -1.45658e-21 0)
(3.6236e-06 -4.86709e-07 2.20277e-21 -2.01526e-06 1.16578e-22 0)
(3.51462e-06 -5.38332e-07 -1.22026e-21 -1.93211e-06 7.85886e-22 0)
(3.4087e-06 -5.75208e-07 -2.34831e-21 -1.84086e-06 -1.18121e-21 0)
(3.30835e-06 -5.97614e-07 2.84092e-21 -1.74666e-06 7.09421e-22 0)
(3.21476e-06 -6.08004e-07 -2.62798e-35 -1.65183e-06 -1.06055e-35 0)
(3.12826e-06 -6.08148e-07 -3.00382e-21 -1.55841e-06 -1.64635e-21 0)
(3.04902e-06 -5.997e-07 -5.67008e-36 -1.46754e-06 -4.41069e-36 0)
(2.9767e-06 -5.83944e-07 -7.93002e-22 -1.37992e-06 -5.92477e-22 0)
(2.91081e-06 -5.61828e-07 -7.75663e-22 -1.29585e-06 -5.56381e-22 0)
(2.8508e-06 -5.33913e-07 1.22401e-21 -1.21543e-06 3.01067e-22 0)
(2.796e-06 -5.00444e-07 -1.20048e-21 -1.13865e-06 -3.15e-22 0)
(2.74603e-06 -4.61241e-07 -3.50005e-35 -1.06546e-06 -1.08082e-35 0)