/*--------------------------------*- C++ -*----------------------------------*\
| =========                 |                                                 |
| \\      /  F ield         | foam-extend: Open Source CFD                    |
|  \\    /   O peration     | Version:     4.1                                |
|   \\  /    A nd           | Web:         http://www.foam-extend.org         |
|    \\/     M anipulation  |                                                 |
\*---------------------------------------------------------------------------*/
FoamFile
{
    version     2.0;
    format      ascii;
    class       volScalarField;
    location    "6";
    object      sigmaEq;
}
// * * * * * * * * * * * * * * * * * * * * * * * * * * * * * * * * * * * * * //

dimensions      [1 -1 -2 0 0 0 0];

internalField   nonuniform List<scalar> 
1000
(
638107
727591
799190
853415
878613
888457
886973
878676
867521
851881
798752
811686
842975
876675
890837
894644
889483
879501
865657
851493
955297
895178
882035
891110
891559
887656
877920
865418
849630
834950
1.10294e+06
975106
916292
898019
882645
869721
854720
839473
822007
807188
1.23753e+06
1.04877e+06
945602
898799
866191
843196
822420
804182
785419
770427
1.35548e+06
1.11384e+06
969968
895244
844955
811310
784382
762935
742985
727692
1.45371e+06
1.16834e+06
989379
889217
822035
777835
744705
719930
698865
683058
1.52966e+06
1.21067e+06
1.00392e+06
882662
800826
747110
708238
680274
658168
641697
1.58138e+06
1.23958e+06
1.01357e+06
877185
784443
723399
679986
649417
626457
609340
1.60731e+06
1.25392e+06
1.01793e+06
873572
774937
709844
663875
631812
608356
590859
586181
388329
278089
232286
215782
218953
230776
247845
266259
284955
561570
386903
303400
279239
274729
281479
291976
305344
318763
333654
512140
384906
346583
351373
360623
371647
381192
390874
398711
409199
440984
386339
400973
432939
453969
468826
477883
484696
487862
494502
353079
395779
460965
515101
545330
563191
571860
576322
575688
578985
259737
417521
522721
592999
629739
649576
657706
660056
656295
656543
194166
454296
583913
663912
704372
725028
732319
732674
726346
723727
220690
506228
642960
726065
767305
787450
793504
791844
783608
778113
332839
571327
698938
778601
817604
835895
840200
836666
827027
819282
479549
646312
751123
820945
854513
869223
870924
864828
854665
842542
304100
320043
335106
348810
360873
371468
380467
387943
393865
398244
401044
402238
401726
399473
395233
389082
380372
369779
355307
340294
345856
353992
363285
372155
380324
387741
394144
399485
403647
406564
408146
408321
406957
403990
399158
392520
383429
372547
357913
342841
412388
409793
410592
412102
414093
416330
418402
420114
421241
421608
421050
419424
416548
412315
406437
398945
389196
377828
362954
347819
489441
476617
468659
462322
457397
453626
450518
447768
445081
442179
438836
434834
429944
424011
416722
408078
397448
385442
370280
355116
567136
545991
530221
516722
505189
495458
487065
479625
472846
466367
459929
453253
446076
438200
429295
419333
407710
395007
379592
364500
639414
612358
590294
570881
553700
538626
525383
513490
502731
492689
483106
473667
464095
454164
443545
432189
419538
406146
390569
375713
702778
672253
645661
621576
599904
580256
562789
546899
532501
519152
506612
494553
482691
470792
458532
445859
432274
418310
402745
388328
754754
723143
694545
667272
642647
619554
598742
579522
561941
545607
530312
515763
501691
487875
474018
460073
445617
431176
415774
402020
795172
763139
734914
705489
678878
653254
629807
607992
587875
569161
551647
535079
519204
503825
488683
473750
458700
444052
429096
416228
822622
792316
767322
738662
711482
684739
659407
635498
613118
592171
572518
553973
536324
519403
502996
487102
471499
456713
442319
430547
833261
802445
778654
752324
726145
700303
675308
651359
628602
607039
586622
567252
548798
531163
514216
498010
482444
468049
454654
444202
812080
793753
772377
749684
726108
702421
679060
656317
634394
613371
593276
574085
555748
538240
521512
505681
490755
477285
465312
456566
794665
779562
762449
742980
722277
700909
679435
658176
637398
617240
597797
579110
561199
544104
527852
512616
498502
486067
475525
468345
774885
763310
749397
732744
714701
695606
676110
656508
637114
618101
599616
581752
564586
548214
532728
518346
505255
494004
484943
479287
753503
744792
733851
719922
704494
687702
670264
652445
634599
616923
599606
582781
566575
551127
536586
523201
511226
501189
493539
489262
731517
725270
716826
705302
692243
677638
662224
646230
630029
613828
597843
582238
567175
552828
539387
527125
516342
507535
501221
498175
709440
705232
698924
689571
678679
666147
652696
638524
624007
609355
594801
580528
566725
553588
541338
530260
520684
513069
507974
505983
687734
685185
680663
673211
664256
653643
642055
629662
616829
603762
590699
577834
565371
553519
542519
532655
524276
517795
513788
512675
666677
665446
662409
656619
649396
640555
630723
620047
608870
597388
585839
574417
563332
552799
543065
534411
527184
521755
518693
518282
646423
646230
644421
640078
634396
627179
618992
609955
600387
590470
580431
570458
560760
551551
543076
535600
529465
524993
522733
522856
627038
627670
626879
623801
619501
613777
607126
599650
591633
583241
574684
566142
557816
549909
542657
536310
531188
527572
525974
526478
608527
609826
609901
607947
604897
600551
595339
589342
582809
575889
568771
561622
554630
547983
541905
536620
532426
529561
528493
529240
590852
592749
593569
592631
590735
587674
583815
579219
574101
568589
562853
557043
551328
545883
540910
536610
533252
531035
530376
531248
573980
576403
577945
577979
577169
575321
572738
569466
565686
561509
557082
552537
548028
543709
539761
536360
533743
532074
531715
532613
557849
560926
563103
564066
564323
563640
562269
560249
557727
554800
551594
548227
544834
541550
538535
535942
533971
532757
532601
533442
542559
546045
549100
551162
552427
552867
552635
551783
550423
548641
546547
544245
541856
539498
537311
535424
534004
533158
533126
533849
527816
533684
536219
539486
541647
543198
544024
544255
543945
543184
542067
540692
539169
537608
536129
534843
533884
533333
533364
533927
514337
519796
524901
528955
532316
534901
536768
537965
538570
538665
538347
537718
536885
535956
535042
534236
533648
533331
533399
533797
501916
508809
514917
520187
524706
528329
531135
533163
534498
535235
535485
535364
534994
534492
533973
533524
533236
533130
533260
533528
491662
500026
507578
514112
519674
524199
527745
530364
532157
533240
533751
533832
533634
533297
532954
532703
532630
532731
533012
533284
578295
595500
625650
664431
706609
747396
782959
810595
829396
836611
567797
582900
609633
644614
683579
722461
757820
786473
807386
817295
559290
572505
595985
626995
661999
697567
731060
759743
783476
798948
552251
563758
584324
611770
643186
675583
706684
733904
757184
775836
545963
555957
573894
598044
626033
655363
684136
710187
732701
752439
540267
548938
564563
585758
610550
636840
662935
687259
708424
728472
534791
542315
555920
574508
596436
619986
643576
666137
685699
704990
529379
535910
547751
564028
583351
604329
625474
646174
664150
682307
523830
529508
539829
554098
571128
589801
608708
627544
643931
660668
518002
522946
531953
544468
559468
576059
592926
609968
624871
640132
511741
516060
523945
534951
548191
562940
577991
593346
606864
620676
504912
508700
515631
525343
537065
550201
563661
577484
589754
602221
497344
500686
506819
515441
525882
537638
549735
562205
573383
584648
488906
491878
497355
505078
514462
525067
536036
547363
557625
567873
479328
482005
486965
493979
502532
512229
522316
532741
542302
551730
468531
470985
475562
482052
490000
499039
508509
518301
527418
536325
455963
458271
462612
468788
476387
485063
494220
503729
512672
521530
441854
444095
448352
454426
461940
470549
479722
489235
498384
507238
424712
426997
431379
437653
445463
454459
464140
474210
484097
493607
406306
408744
413447
420202
428657
438456
449093
460226
471292
481999
)
;

boundaryField
{
    left
    {
        type            symmetryPlane;
        value           nonuniform List<scalar> 
30
(
577895
567446
558981
551981
545730
540065
534617
529229
523701
517890
511645
504831
497276
488849
479282
468496
455938
441839
424705
406305
1.60385e+06
1.25279e+06
1.01768e+06
873561
774906
709709
663633
631487
607983
590443
)
;
    }
    right
    {
        type            calculated;
        value           nonuniform List<scalar> 
30
(
339346
341884
346857
354152
363535
374766
387399
401149
415384
429829
443519
456017
467901
478940
489006
497995
505869
512614
518262
522867
526509
529285
531299
532664
533489
533890
533958
533820
533542
533319
)
;
    }
    down
    {
        type            symmetryPlane;
        value           nonuniform List<scalar> 
30
(
585527
388132
276149
228137
210193
213030
225193
242894
262020
281236
301131
317789
333341
347424
359775
370590
379759
387368
393396
397860
400730
401981
401518
399307
395105
388986
380307
369741
355291
340292
)
;
    }
    up
    {
        type            calculated;
        value           nonuniform List<scalar> 
30
(
405725
408161
412866
419626
428088
437905
448559
459729
470815
481589
491290
499721
507318
513895
519500
524059
527634
530274
532084
533180
533699
533787
533595
533263
532926
532681
532616
532721
533006
533259
)
;
    }
    hole
    {
        type            calculated;
        value           nonuniform List<scalar> 
20
(
618555
793797
962442
1.1204e+06
1.26383e+06
1.38922e+06
1.49346e+06
1.57398e+06
1.62876e+06
1.6563e+06
605802
578049
522444
440729
335095
208234
63402.9
95754.8
265266
440964
)
;
    }
    frontAndBack
    {
        type            empty;
    }
}


// ************************************************************************* //
