/*--------------------------------*- C++ -*----------------------------------*\
| =========                 |                                                 |
| \\      /  F ield         | foam-extend: Open Source CFD                    |
|  \\    /   O peration     | Version:     4.1                                |
|   \\  /    A nd           | Web:         http://www.foam-extend.org         |
|    \\/     M anipulation  |                                                 |
\*---------------------------------------------------------------------------*/
FoamFile
{
    version     2.0;
    format      ascii;
    class       volSymmTensorField;
    location    "6";
    object      sigma;
}
// * * * * * * * * * * * * * * * * * * * * * * * * * * * * * * * * * * * * * //

dimensions      [1 -1 -2 0 0 0 0];

internalField   nonuniform List<symmTensor> 
1000
(
(527926 -325107 -1.61203e-10 228585 -3.06067e-10 226953)
(687303 -252407 9.11376e-10 36885.1 1.9717e-10 217257)
(765207 -200343 -9.90689e-10 -49494.2 -7.06693e-10 214714)
(807866 -163619 -3.79822e-10 -107471 -8.7384e-11 210119)
(828558 -135674 -6.37537e-11 -135838 1.7012e-11 207816)
(835684 -114689 3.99918e-10 -151691 2.55004e-10 205198)
(835689 -98016 -7.15888e-10 -157279 -4.02196e-10 203523)
(830358 -85059.5 1.56884e-10 -157752 9.41253e-11 201782)
(824202 -74128 -2.86592e-10 -154341 -1.68515e-10 200958)
(812436 -64759.6 -3.53775e-10 -150614 -2.22772e-10 198547)
(703859 -390688 4.52531e-10 268291 -2.65013e-10 291645)
(818904 -268727 -9.15156e-10 79628.4 -2.42237e-10 269560)
(869270 -189789 -8.4615e-10 -4522.55 -2.26831e-10 259424)
(890539 -137708 -6.5939e-10 -64719.3 -4.5409e-10 247746)
(896145 -101333 -1.44236e-10 -95236 -1.28569e-10 240273)
(891422 -76154.7 5.73502e-10 -114456 3.37183e-10 233090)
(882306 -57734.1 -6.70901e-10 -123097 -4.58429e-10 227763)
(869783 -44741.3 2.7209e-10 -127184 2.30234e-10 222780)
(856815 -34536.4 -5.06768e-10 -125983 -3.92997e-10 219250)
(840917 -27256.5 -1.87394e-10 -126840 -2.09552e-10 214223)
(895404 -438490 5.58833e-10 284279 3.41114e-11 353905)
(952471 -275943 -7.14755e-10 113881 -3.11812e-10 319906)
(967886 -175214 6.55318e-10 40363.7 2.95301e-10 302475)
(963682 -110878 -5.91496e-10 -17032 -2.84202e-10 283995)
(952030 -68003.2 -1.44478e-10 -46786 -1.09264e-10 271573)
(934398 -39794.6 -5.51687e-10 -67689.7 -3.22732e-10 260012)
(915853 -20353.2 1.01619e-15 -78430.4 -2.74808e-15 251227)
(895900 -7564.73 -1.89892e-12 -85604.7 2.51956e-12 243088)
(877083 1674.95 -3.90436e-11 -86856.3 -1.85227e-10 237068)
(856149 8397.12 6.06055e-11 -91510.7 -4.59497e-11 229391)
(1.09457e+06 -462838 1.93118e-09 279476 -3.84697e-10 412215)
(1.08369e+06 -272489 4.10469e-10 139795 3.06015e-10 367046)
(1.05884e+06 -157300 3.08301e-10 83718.6 2.85674e-10 342767)
(1.02643e+06 -85088.3 1.7901e-10 33255.1 1.24654e-10 317906)
(996152 -38333 1.29327e-09 6583.55 7.74118e-10 300821)
(965181 -8547.58 -9.73034e-12 -14652.1 -2.23572e-11 285159)
(937147 11101.5 -4.63235e-12 -26896.3 2.1809e-11 273075)
(910258 23426.4 -1.226e-11 -36698.3 2.17336e-11 262068)
(886019 31572.2 2.81635e-10 -40712.2 1.39773e-10 253592)
(861464 37533.9 -2.64802e-11 -48395.7 -5.65662e-11 243920)
(1.29195e+06 -459861 -1.45757e-09 258580 3.73881e-11 465159)
(1.20793e+06 -257440 6.61572e-10 158218 2.69427e-10 409845)
(1.14022e+06 -136727 5.43889e-10 124266 2.65302e-10 379346)
(1.07858e+06 -61940.8 5.65985e-10 83733.4 2.92659e-10 348694)
(1.02937e+06 -14431.6 -3.40058e-10 61884.9 -1.80289e-10 327378)
(985251 15177.1 4.85865e-10 41408.9 2.19293e-10 307998)
(948187 34083.6 1.5358e-10 28219.2 9.27243e-11 292922)
(914912 45539.6 -2.99631e-10 16163.4 -1.10457e-10 279323)
(886067 52467.2 6.92418e-10 9286.53 2.67895e-10 268606)
(858508 57607.7 6.45619e-11 -1100.65 -7.86083e-12 257222)
(1.47737e+06 -427912 -2.11452e-11 227431 -1.65821e-13 511439)
(1.3205e+06 -230642 -1.72611e-10 170337 -5.22775e-11 447251)
(1.21042e+06 -114121 8.53766e-10 160604 3.68707e-10 411306)
(1.1204e+06 -42493.4 2.2378e-10 131567 6.67644e-11 375591)
(1.05308e+06 2423.06 -3.1778e-10 115485 -1.25234e-10 350569)
(996656 29997.2 -8.06983e-10 96488.4 -3.94143e-10 327943)
(951343 47177.8 6.64757e-12 82780.1 -1.10684e-10 310237)
(912444 57327.2 -4.27873e-11 68887.5 1.3904e-10 294399)
(879703 62954.8 2.20077e-10 59237.6 1.68993e-10 281682)
(849797 67207.6 5.64858e-10 46600.3 2.31681e-10 268919)
(1.64064e+06 -367787 5.50061e-10 192397 -7.14888e-11 549911)
(1.41686e+06 -192775 -2.9974e-10 177597 4.25144e-11 478338)
(1.26808e+06 -90056.8 2.51461e-10 191460 1.86314e-10 437861)
(1.15248e+06 -27243.3 7.78e-11 173975 -5.47594e-11 397936)
(1.06898e+06 11797.7 4.51571e-10 163786 8.4695e-11 369830)
(1.00177e+06 35517.2 -1.73126e-11 146592 -7.31296e-11 344508)
(949363 50030.9 1.34669e-10 132667 2.18321e-10 324609)
(905731 58453 4.69026e-10 117330 3.71785e-10 306918)
(869864 62769.4 -2.24371e-10 105173 -1.12181e-10 292511)
(838123 66118.3 6.45215e-11 90734.2 -1.19418e-10 278657)
(1.77243e+06 -282692 0 159654 0 579626)
(1.49306e+06 -145301 1.44832e-09 181455 4.38735e-10 502354)
(1.31224e+06 -64993.6 -1.52771e-09 215694 -4.18544e-10 458379)
(1.17564e+06 -16049.1 -5.79375e-11 208375 -9.56916e-11 415204)
(1.07897e+06 14192.1 -1.45545e-10 203423 1.51817e-11 384718)
(1.00307e+06 32439.2 7.56178e-10 187982 2.83184e-10 357315)
(945031 43462.4 2.65978e-10 174020 1.02397e-10 335715)
(897707 49782.9 -3.66794e-10 157627 -6.82542e-11 316600)
(859487 52818.5 1.55281e-11 143401 -6.54088e-11 300866)
(826398 55240.4 -1.7537e-10 127624 -1.43684e-10 286207)
(1.86492e+06 -178040 9.90021e-10 134500 1.00745e-10 599825)
(1.54574e+06 -90434.1 -8.13466e-11 183158 -1.63008e-10 518668)
(1.34202e+06 -39320 -5.08553e-10 232343 -1.01579e-10 472309)
(1.19051e+06 -8219.91 4.24212e-10 232558 1.34838e-10 426919)
(1.08452e+06 10928.4 -1.70498e-10 231511 -3.90606e-11 394809)
(1.00252e+06 22436.1 -4.35405e-10 217440 -6.25096e-11 365988)
(940578 29332.7 2.80789e-13 203519 -1.0301e-10 343229)
(890718 33259.2 -5.13179e-12 186432 6.16015e-11 323145)
(850932 35063.1 -4.64636e-12 170728 3.36183e-11 306498)
(816955 36535.3 -1.78525e-10 154056 -1.12918e-10 291303)
(1.9125e+06 -60843.4 -8.32547e-10 121070 1.48185e-10 610070)
(1.57274e+06 -30768 -6.75763e-10 184213 -2.27077e-10 527086)
(1.35716e+06 -13208.6 5.1702e-10 241559 1.65754e-10 479617)
(1.19792e+06 -2523.16 -8.07789e-10 245924 -1.04555e-10 433153)
(1.08711e+06 4049.47 3.26013e-10 247048 -1.01411e-10 400248)
(1.00197e+06 7995.08 -1.42852e-10 233763 2.17998e-11 370720)
(938020 10352.4 -2.81205e-14 219895 1.04744e-10 347374)
(886864 11691.6 -1.15216e-10 202455 6.22517e-11 326796)
(846292 12295.1 -4.04089e-10 185967 -1.69378e-10 309678)
(811877 12793.6 2.00165e-10 168808 1.48701e-11 294206)
(-48498.5 15980.9 -1.14528e-10 -702013 5.1844e-10 -225153)
(-29761.3 -7144.44 1.70295e-10 -463235 2.43794e-10 -147899)
(-6951.59 -18931.6 2.24791e-12 -316924 -1.09826e-10 -97162.8)
(43212.5 -25233.1 -9.02792e-12 -217137 7.78655e-11 -52177.4)
(90632.3 -28172.1 -1.02539e-10 -151668 -7.07864e-11 -18310.7)
(141094 -29204.7 1.35744e-10 -104749 5.60078e-11 10903.5)
(186953 -29128.2 1.90227e-11 -71711.8 2.27867e-11 34572.5)
(230617 -28459.4 -2.51397e-11 -46614.5 4.16934e-11 55200.8)
(269404 -27322.5 1.35201e-10 -27968.6 3.65438e-11 72430.5)
(305766 -26494.1 -1.25563e-11 -11802.2 -1.80705e-11 88189)
(-47382 44442.7 6.33222e-12 -668091 2.26594e-11 -214642)
(-16399.1 -22416.4 -2.99462e-10 -447781 -4.28696e-10 -139254)
(12901.6 -56308.7 2.28279e-10 -311590 2.25008e-10 -89606.4)
(65767.1 -74307.3 1.65731e-10 -218206 1.19962e-10 -45731.6)
(114163 -82627.4 -4.22028e-11 -156448 -5.49435e-11 -12685.3)
(164413 -85458.2 -4.5182e-10 -111777 -1.6682e-10 15790.8)
(209480 -85113.3 -7.45726e-12 -79993.6 -6.30815e-14 38845.9)
(252084 -83066.6 -7.62714e-11 -55573.7 -4.64e-11 58953.2)
(289450 -79697.3 4.7847e-11 -37167.1 -2.32499e-12 75684.9)
(324875 -77220.9 1.18734e-10 -21041.2 -9.7451e-12 91150.1)
(-44671.3 63456.7 -9.27713e-11 -602584 -4.29436e-10 -194176)
(8858.57 -39754.6 -2.2834e-10 -418088 -2.00844e-10 -122769)
(49475.8 -91769.7 3.55462e-10 -301365 9.30842e-11 -75566.7)
(107057 -119174 7.68164e-11 -220241 8.64487e-11 -33955.3)
(157015 -131650 2.08142e-10 -165579 9.77413e-11 -2569.11)
(206734 -135667 -2.02782e-10 -125209 -1.01406e-10 24457.3)
(250237 -134824 -3.28658e-10 -95830.1 -9.44408e-11 46322)
(290821 -131355 -1.11964e-10 -72712.7 -2.53317e-11 65432.4)
(325506 -125927 5.65368e-12 -54785.2 -4.73057e-13 81216.2)
(359208 -121860 1.61434e-10 -38764.3 7.21866e-11 96133.2)
(-36364.5 68223 -3.33274e-10 -510418 -4.72748e-12 -164035)
(47372.8 -59875.7 1.50955e-10 -375621 -2.06766e-10 -98474.5)
(102990 -123878 -9.01891e-10 -285861 -6.91206e-10 -54861.3)
(166581 -157242 -2.03766e-10 -221816 1.33657e-11 -16570.3)
(218327 -172022 -1.23703e-11 -177056 2.65737e-11 12381.1)
(267005 -176315 2.67689e-10 -142742 1.20455e-10 37278.9)
(308121 -174639 -7.38904e-11 -116789 -3.96614e-13 57399.7)
(345702 -169701 2.24271e-10 -95556.8 1.50917e-10 75043.6)
(376567 -162492 -3.98137e-10 -78395.2 -7.6643e-11 89451.4)
(407716 -156941 3.58198e-10 -62568.5 5.46024e-11 103544)
(-18211.7 55261.9 9.00603e-11 -398654 -3.27361e-10 -125060)
(99432.7 -83329.1 7.52379e-10 -322960 6.93496e-10 -67058)
(171652 -151603 -7.16557e-10 -265289 -4.80323e-10 -28091)
(241414 -186580 -3.35095e-10 -221730 -1.81446e-10 5905.35)
(294595 -201342 2.95552e-10 -188896 1.24797e-10 31709.8)
(341478 -204784 3.96439e-10 -161958 1.62903e-10 53856)
(379355 -201868 2.25414e-10 -140240 1.46153e-10 71734.4)
(412991 -195422 3.9806e-10 -121397 1.21359e-10 87478.2)
(439119 -186781 -8.82288e-11 -105306 -9.7385e-11 100144)
(466891 -179913 -5.43324e-10 -89801.7 -5.42293e-11 113127)
(14657 23175.4 -8.80388e-12 -275472 2.15766e-11 -78244.3)
(165326 -110076 4.72965e-10 -262991 2.37072e-10 -29299.3)
(253314 -174143 3.83862e-10 -239640 3.45597e-10 4102.4)
(328097 -205968 -1.88381e-10 -218281 -1.26445e-10 32944.9)
(381698 -218173 -3.4533e-10 -198450 -1.52604e-10 54974.3)
(425748 -219546 -2.17907e-10 -179701 -8.70264e-11 73814.2)
(459496 -214953 3.51539e-10 -162803 1.79415e-10 89007.9)
(488293 -206990 -4.21152e-10 -146764 -2.26084e-10 102459)
(509009 -197281 6.99562e-10 -132118 2.12613e-10 113067)
(532612 -189313 2.38726e-11 -117133 -9.67024e-11 124643)
(67011.2 -27205.7 4.12167e-10 -149651 -7.55836e-10 -24791.9)
(245112 -139498 -1.30475e-09 -198990 -7.15462e-10 13836.8)
(345523 -191000 4.45698e-10 -209175 2.99436e-10 40904.2)
(422842 -214987 -4.0766e-11 -209937 1.15778e-10 63871.5)
(475184 -222161 1.92263e-10 -203160 9.20379e-11 81607.3)
(515101 -220311 -8.00758e-11 -192855 -2.97822e-11 96673.9)
(543830 -213648 -4.90427e-10 -181052 -2.07314e-10 108833)
(566975 -204221 2.82937e-10 -168172 1.24955e-10 119641)
(581906 -193813 -2.57352e-10 -155304 -1.12942e-10 127981)
(600582 -184982 5.36532e-10 -141204 1.34122e-10 137813)
(142848 -92858.2 -1.53553e-10 -29677.5 2.20818e-10 33951.2)
(338416 -170366 -4.25604e-10 -134202 -4.9859e-10 61264.3)
(445548 -201931 -6.25754e-10 -174265 -5.98878e-10 81385.1)
(521662 -213967 2.32408e-10 -195338 1.13803e-10 97897.3)
(570408 -213957 6.19374e-10 -200700 3.02721e-10 110912)
(604622 -207912 5.64181e-10 -198539 2.75259e-10 121825)
(627377 -198872 -8.79079e-11 -191902 1.6754e-11 130642)
(644131 -188102 3.23739e-10 -182382 1.3731e-10 138525)
(653115 -177320 -3.18389e-10 -171870 -2.28564e-10 144373)
(666152 -167842 1.13069e-10 -159002 1.09419e-10 152145)
(244816 -168822 4.42735e-10 76935.6 5.96179e-10 96525.5)
(444397 -200929 6.11768e-10 -71665.3 7.81963e-10 111820)
(550716 -206949 6.50632e-10 -135464 1.82515e-10 124576)
(620974 -203949 9.43911e-11 -173528 -9.80686e-11 134234)
(663406 -195187 1.96684e-11 -189188 -2.90481e-11 142265)
(690260 -184335 -1.42462e-11 -194383 -4.08918e-12 148763)
(706233 -172787 5.14753e-10 -192518 2.72091e-10 154115)
(715945 -161023 -6.87357e-10 -186657 -4.45472e-10 158786)
(719286 -150198 6.35221e-10 -178564 2.62948e-10 162216)
(725718 -140406 6.83683e-11 -168456 3.62256e-11 167178)
(373646 -248677 6.63551e-10 164295 -1.10871e-09 161383)
(561423 -229065 6.51003e-10 -13982.6 3.20976e-10 164232)
(658095 -206308 8.70522e-10 -93569.6 4.37369e-10 169358)
(717173 -186543 4.19046e-10 -144160 3.28299e-10 171904)
(750121 -168217 -6.61896e-10 -167653 -3.67314e-10 174740)
(767746 -152272 -5.93947e-10 -178910 -3.25888e-10 176651)
(775760 -138250 1.55898e-11 -181345 -9.24988e-12 178324)
(777785 -125751 -3.12322e-10 -178688 -1.78914e-10 179729)
(775356 -115436 3.2474e-10 -174039 2.98676e-10 180395)
(774041 -105674 4.42257e-10 -165140 1.01037e-10 182670)
(337770 -24477.3 6.56693e-11 -1143.82 -2.39618e-13 100988)
(366880 -21889.7 1.22095e-10 10424.7 -3.6828e-11 113192)
(393022 -19828.9 6.57825e-12 20125.2 -8.62893e-14 123944)
(417062 -17929.2 -1.0428e-10 29364.9 -5.62931e-11 133928)
(438818 -16236.9 -4.15781e-10 38261.8 -1.92252e-11 143124)
(458733 -14738.2 -6.32786e-11 47064.1 7.58608e-11 151739)
(476910 -13390.3 3.67941e-10 56027.6 3.92051e-11 159881)
(493548 -12186.1 -3.69134e-10 65276.8 -2.06798e-11 167648)
(508788 -11092.9 3.27303e-11 75002.3 1.10835e-10 175137)
(522749 -10096.1 2.02569e-10 85328.8 3.76681e-11 182423)
(535519 -9172.06 3.44262e-11 96412.3 1.04299e-10 189579)
(547188 -8303 4.00995e-10 108407 3.7928e-11 196679)
(557755 -7468.89 3.67455e-10 121462 -7.19466e-11 203765)
(567341 -6649.75 -3.98969e-10 135802 -3.50079e-11 210943)
(575737 -5826.04 -5.92558e-10 151552 1.026e-12 218187)
(583311 -4972.74 3.13782e-10 169122 5.01419e-11 225730)
(589208 -4070.21 -7.78443e-12 188472 -1.72853e-11 233304)
(594854 -3076.39 2.18519e-10 210562 4.21745e-11 241625)
(597114 -1997.19 1.8284e-10 234601 -1.78549e-12 249515)
(601655 -649.835 4.56204e-11 263278 4.74558e-12 259480)
(354578 -71345.1 1.86676e-12 -9824.25 2.05513e-12 103426)
(380693 -63929 -1.76307e-10 2680.3 -1.9612e-11 115012)
(404719 -57997.1 9.11439e-11 13319.7 2.03183e-11 125412)
(426784 -52531.5 2.92299e-10 23268.8 9.9758e-11 135016)
(446993 -47641.2 -1.70842e-10 32864.1 -6.43814e-13 143957)
(465539 -43307.1 -2.50226e-10 42212.4 -8.1407e-11 152325)
(482598 -39395.8 1.67814e-10 51667.2 8.04368e-11 160279)
(498266 -35895.6 4.33252e-11 61310.3 3.92003e-11 167873)
(512693 -32709.7 -3.87845e-10 71368 -1.21278e-10 175218)
(525951 -29799.2 -2.31223e-10 81956.7 -4.25072e-11 182372)
(538121 -27095 -5.13538e-12 93245.5 -1.44562e-13 189410)
(549273 -24546.6 7.09185e-10 105389 5.93752e-11 196399)
(559395 -22095.7 3.26606e-11 118539 3.24432e-11 203380)
(568597 -19684.1 -1.65567e-10 132921 3.41342e-11 210455)
(576665 -17254.7 -3.59824e-11 148661 -3.96637e-11 217598)
(583957 -14733.5 -3.83702e-11 166164 -3.43822e-11 225036)
(589624 -12063.2 -1.37073e-10 185388 3.08037e-11 232504)
(595079 -9118.67 -9.92364e-11 207281 -9.04593e-12 240708)
(597212 -5919.41 5.52376e-10 231050 7.55235e-11 248479)
(601647 -1925.94 1.42077e-10 259348 3.57178e-11 258299)
(384561 -112795 1.02787e-10 -26567.5 -2.17786e-11 107398)
(405262 -101601 2.22468e-10 -12328.1 6.86443e-11 117880)
(425472 -92473.1 -5.6852e-10 130.986 -4.90322e-11 127681)
(443980 -84074.8 6.14164e-11 11426.6 4.5524e-11 136622)
(461425 -76456 3.12202e-10 22374.8 -1.76527e-11 145140)
(477516 -69690.3 -4.80819e-10 32777.2 -2.95446e-11 153088)
(492583 -63534.4 -2.5639e-10 43186 -4.70983e-11 160731)
(506516 -58006.3 5.78879e-10 53595.7 3.74269e-11 168034)
(519494 -52948.4 3.2799e-10 64300.4 -2.74429e-11 175138)
(531498 -48310.8 -4.28772e-10 75401 -5.64926e-11 182070)
(542602 -43985.5 -4.90932e-10 87090.1 -9.72064e-11 188908)
(552834 -39896 1.95267e-10 99522.3 1.18642e-11 195707)
(562167 -35950.8 3.37428e-10 112859 5.50853e-11 202508)
(570691 -32057.3 1.17051e-11 127323 -5.55241e-11 209404)
(578184 -28124.5 2.19087e-11 143042 1.4453e-11 216368)
(584989 -24032.4 -4.89544e-10 160412 -5.37509e-11 223620)
(590267 -19688.7 -2.41574e-10 179388 -7.29279e-12 230896)
(595401 -14888.8 -8.93901e-11 200896 -3.82552e-11 238889)
(597344 -9666.19 1.89873e-10 224139 3.29887e-11 246445)
(601609 -3148.54 1.7304e-10 251709 7.54746e-11 255995)
(427130 -145724 1.0859e-10 -49147.5 3.57665e-11 113395)
(440198 -132421 -9.94707e-11 -32981.5 -1.40739e-12 122165)
(455156 -121141 5.51059e-11 -18094.9 -4.71313e-11 131118)
(468612 -110811 -7.57926e-12 -5113.73 -4.96511e-11 139049)
(482177 -101200 3.88874e-11 7637.42 -2.23657e-11 146944)
(494768 -92637.7 -1.37777e-10 19436 -2.74267e-11 154261)
(507001 -84743 -1.72753e-10 31131.2 -5.14419e-11 161440)
(518448 -77611.7 -8.1123e-11 42584.1 -4.66421e-11 168310)
(529346 -71034.8 3.53145e-11 54176.6 2.25707e-11 175057)
(539546 -64968.5 1.5126e-10 65987.6 8.78706e-11 181660)
(549112 -59278 -2.63625e-10 78236.4 -5.61036e-11 188205)
(558013 -53869.1 1.68449e-10 91077.2 4.86622e-11 194727)
(566204 -48626.1 3.95441e-10 104678 3.83479e-11 201265)
(573745 -43427.9 -1.59814e-10 119261 -4.61779e-11 207902)
(580402 -38155.3 -3.65701e-10 134950 -3.50774e-11 214606)
(586498 -32647.1 -2.28857e-10 152129 -4.42089e-11 221588)
(591207 -26780.2 1.62301e-10 170747 -8.43157e-12 228586)
(595873 -20275.1 1.95886e-10 191692 3.95235e-11 236270)
(597540 -13176.8 5.32608e-11 214166 8.48229e-12 243512)
(601552 -4305.82 -1.19283e-10 240667 -7.30355e-11 252666)
(479420 -167804 2.08935e-10 -75112.3 -3.64181e-11 121292)
(483286 -154462 9.90352e-11 -57425.1 -1.30795e-10 127758)
(492092 -142342 -2.24573e-10 -39782.2 3.90724e-11 135693)
(499383 -131342 -1.0186e-10 -25020.8 -4.10114e-12 142309)
(508259 -120683 3.54294e-10 -10200.9 4.24239e-11 149417)
(516542 -111127 -1.99736e-10 3219.01 6.37617e-11 155928)
(525278 -102140 -2.18464e-10 16428.4 -5.9157e-11 162512)
(533639 -93939.7 1.80498e-10 29129.6 -3.43583e-11 168831)
(541938 -86290.3 -8.73098e-11 41783.7 3.71852e-11 175117)
(549876 -79170.3 -5.13128e-12 54449 4.08164e-11 181298)
(557502 -72437.2 -1.9558e-10 67366 -1.80408e-11 187460)
(564719 -65990 -2.26218e-10 80690.5 -1.12961e-10 193623)
(571456 -59699.7 6.84452e-10 94595.9 8.30827e-11 199816)
(577738 -53424.8 8.13691e-11 109301 3.99153e-11 206112)
(583321 -47025.2 -1.3531e-10 124925 -3.38263e-11 212474)
(588499 -40304.4 1.0328e-10 141835 1.92422e-11 219100)
(592468 -33114 -4.49856e-10 159969 -1.09916e-10 225731)
(596517 -25106.9 1.86762e-10 180168 5.69601e-11 233005)
(597818 -16337.7 -8.60606e-11 201628 -2.40787e-11 239834)
(601483 -5359.54 4.01642e-11 226717 1.30698e-11 248460)
(537972 -177593 -9.73153e-11 -101411 -1.25324e-10 130968)
(531795 -166428 -1.51273e-10 -83395.7 9.6264e-11 134520)
(534125 -154876 -1.51849e-10 -63221.9 4.64587e-11 141271)
(534575 -144593 -1.14375e-10 -47002.2 -1.22254e-10 146272)
(538270 -133974 2.50633e-10 -30253.4 1.83229e-10 152405)
(541711 -124338 2.60287e-10 -15247.2 4.69622e-11 157939)
(546474 -115032 4.09435e-10 -526.815 3.03221e-11 163784)
(551318 -106398 -5.1735e-10 13482.6 -9.1341e-11 169440)
(556622 -98220.3 -3.41766e-10 27269.9 -7.22229e-12 175167)
(561950 -90502 -3.74258e-11 40881.9 -9.04512e-11 180850)
(567322 -83118.6 4.90296e-10 54557.6 5.48751e-11 186564)
(572579 -75971.2 -9.36631e-11 68450.8 -8.58553e-11 192309)
(577618 -68932.1 -2.90462e-10 82729.2 -4.17842e-11 198104)
(582427 -61848.4 1.35032e-10 97601.4 6.56955e-11 204009)
(586749 -54568.9 -1.91863e-10 113177 -3.61015e-11 209978)
(590844 -46870 -1.02419e-10 129796 -2.23473e-11 216192)
(593942 -38584.9 -4.06306e-11 147379 -1.65438e-11 222396)
(597258 -29307.7 2.09898e-10 166704 5.54705e-11 229189)
(598130 -19101.4 2.5548e-10 186961 8.42765e-11 235527)
(601385 -6295.12 -2.0119e-10 210343 -1.36506e-10 243518)
(599219 -174872 -4.26135e-11 -124801 3.97441e-11 142326)
(583048 -168079 8.64497e-11 -107985 4.81468e-11 142519)
(579194 -158509 4.43021e-10 -85908 5.59977e-11 147986)
(572717 -150256 -7.04528e-10 -68594 -1.41594e-10 151237)
(571084 -140801 -4.88394e-11 -50269.1 5.45009e-11 156244)
(569522 -131960 4.73464e-11 -33775.7 -5.17711e-11 160724)
(570055 -123106 5.00763e-10 -17664.8 1.59161e-10 165717)
(571164 -114651 2.00266e-10 -2390.62 2.07951e-11 170632)
(573218 -106476 -2.75615e-10 12474.8 -1.27831e-10 175708)
(575707 -98606.8 -1.21081e-10 26987.9 -6.03993e-11 180808)
(578591 -90966.1 -1.95911e-10 41367.1 -2.57402e-11 185987)
(581670 -83465.9 5.18777e-11 55768 2.68641e-11 191231)
(584802 -75992.2 1.69104e-10 70348.5 7.96276e-11 196545)
(587943 -68389.7 0 85305.9 0 201975)
(590823 -60503.2 3.58453e-11 100735 -2.94436e-11 207468)
(593670 -52090.5 1.95964e-10 116942 4.80836e-11 213184)
(595753 -42973.1 -9.50366e-11 133831 -1.45677e-11 218875)
(598201 -32699.4 -3.5236e-10 152095 -1.24447e-10 225089)
(598558 -21340.7 2.98784e-10 170925 1.08013e-10 230845)
(601294 -7064.23 -9.08593e-11 192300 -8.05353e-11 238078)
(658905 -160009 4.24871e-10 -142923 5.29716e-11 154795)
(633641 -159297 -3.37903e-10 -129369 -7.36868e-11 151282)
(624245 -153080 3.05575e-10 -107333 1.46518e-10 155074)
(611393 -147938 1.00281e-10 -89758.7 4.54336e-11 156490)
(604484 -140855 -7.81279e-10 -70877.7 -2.89291e-10 160082)
(598105 -133718 1.82495e-10 -53392.8 8.20534e-11 163414)
(594333 -126188 2.05633e-10 -36291.6 2.61503e-11 167412)
(591682 -118628 7.36075e-10 -19930.3 2.0181e-10 171525)
(590385 -111073 -1.92263e-10 -4049.71 -2.56176e-11 175901)
(589950 -103571 -5.37199e-11 11399.6 4.10176e-11 180405)
(590253 -96109 5.21677e-11 26573.6 -3.69203e-11 185048)
(591072 -88627 -5.15221e-11 41604.1 3.23223e-11 189803)
(592220 -81039.6 5.97834e-11 56617.7 8.34299e-11 194651)
(593622 -73203.7 6.88763e-10 71784.9 1.73705e-10 199622)
(594999 -64972.1 -2.93274e-10 87174.7 -9.41308e-11 204652)
(596540 -56095.3 -5.63709e-10 103049 -1.51311e-10 209877)
(597564 -46391.8 4.62291e-10 119284 1.54553e-10 215054)
(599104 -35374.6 9.00658e-11 136480 2.78272e-11 220675)
(598936 -23124.4 -2.6563e-10 153816 -1.056e-10 225826)
(601148 -7689.25 7.93536e-11 173021 4.78242e-11 232251)
(714716 -135771 -3.91762e-10 -152743 -1.54624e-10 168592)
(682336 -141994 -1.38662e-10 -142477 2.84641e-11 161958)
(668068 -140597 1.24717e-10 -122624 -3.13874e-11 163633)
(650258 -138940 4.45929e-10 -105090 8.76354e-11 163550)
(638348 -135027 -3.12776e-10 -86445.6 -5.85018e-11 165571)
(627734 -130070 -2.338e-10 -68420.3 2.2959e-11 167794)
(619840 -124339 0 -50806.2 0 170710)
(613598 -118101 3.6845e-10 -33823.3 1.13389e-10 173932)
(608987 -111568 5.36797e-10 -17384.2 1.89775e-10 177481)
(605606 -104822 1.95583e-10 -1442.98 3.11299e-11 181249)
(603248 -97908.8 -3.42114e-10 14111.6 -1.04766e-10 185208)
(601690 -90799.2 -5.82687e-10 29390.8 -1.07032e-10 189324)
(600717 -83432.7 -2.86537e-10 44493.7 -1.3402e-10 193563)
(600230 -75682.5 5.50748e-10 59559.6 1.23836e-10 197937)
(599952 -67411.8 6.11151e-10 74626.2 2.08396e-10 202373)
(600033 -58372.8 -2.90727e-10 89900.8 -1.03707e-10 206980)
(599859 -48387.3 -1.06366e-10 105227 -4.77655e-11 211526)
(600349 -36952 3.79474e-10 121090 1.53744e-10 216432)
(599554 -24161.7 -3.47542e-10 136679 -1.53525e-10 220870)
(601081 -8055.82 7.14082e-13 153453 4.91528e-13 226360)
(758768 -102549 3.16944e-10 -158281 8.51813e-11 180146)
(725805 -113486 -2.3974e-10 -150466 -4.8153e-11 172602)
(706050 -119016 8.47645e-12 -137234 -6.02408e-11 170645)
(685242 -121838 -1.20736e-10 -121716 2.32473e-11 169058)
(668409 -122520 -2.22103e-10 -104870 1.67004e-12 169062)
(653876 -121122 -1.94613e-10 -87308.3 -1.15316e-10 169970)
(641995 -118294 -1.62181e-10 -69556.8 -1.79031e-10 171732)
(632306 -114309 -1.14973e-11 -51981.1 8.80051e-12 174098)
(624585 -109493 1.23374e-11 -34739.1 -6.80324e-12 176954)
(618492 -104035 3.85522e-10 -17924.9 6.7732e-11 180170)
(613750 -98065.5 4.87565e-10 -1538.23 2.01615e-10 183663)
(610105 -91629.7 -3.0742e-10 14460.4 -1.5194e-10 187370)
(607302 -84719.3 -4.85385e-10 30114.1 -1.82443e-10 191225)
(605207 -77247.9 -3.18031e-10 45516.1 -1.10981e-10 195217)
(603535 -69104.3 1.29868e-10 60662.8 6.33212e-11 199259)
(602398 -60057.9 6.09576e-12 75704 6.74476e-13 203431)
(601248 -49940 -1.73118e-10 90442.9 -6.02746e-11 207507)
(600899 -38244.1 3.34071e-12 105247 8.29996e-13 211844)
(599707 -25067.2 1.68104e-10 119316 7.79462e-11 215707)
(600839 -8398.55 -4.52319e-11 133835 -3.50811e-11 220402)
(788156 -75038.1 1.15141e-10 -150767 6.68368e-11 191217)
(758823 -84265.4 2.29267e-10 -141068 1.56935e-10 185326)
(734720 -95071.6 2.37951e-10 -133000 6.97272e-11 180516)
(712866 -101065 6.42505e-11 -120864 1.0495e-11 177600)
(693838 -104941 8.45218e-11 -106538 1.12798e-10 176190)
(677237 -106520 2.16845e-11 -90996.2 -7.39078e-11 175872)
(663087 -106335 -4.42943e-10 -74723.4 -1.64344e-10 176509)
(651069 -104681 -1.58287e-10 -58236.9 -3.5357e-11 177850)
(641015 -101852 1.57547e-10 -41779.2 3.42086e-11 179771)
(632645 -98060.8 -1.93431e-10 -25540.7 -3.90195e-11 182131)
(625727 -93460.8 4.92994e-10 -9606.44 2.1612e-10 184836)
(620040 -88132.5 3.02266e-10 5986.43 1.1907e-10 187808)
(615351 -82100.7 -4.43412e-11 21214.4 3.39186e-11 190970)
(611533 -75315.5 1.11394e-10 36102.9 6.79189e-11 194291)
(608331 -67695.3 1.76317e-10 50594.1 5.10303e-11 197678)
(605826 -59046.3 -1.23705e-11 64756.9 -3.35112e-12 201175)
(603560 -49225.9 1.05251e-10 78352.8 5.41938e-11 204574)
(602207 -37767.6 5.59005e-11 91605 1.72133e-11 208144)
(600408 -24794 -1.68421e-10 103706 -8.10167e-11 211234)
(600800 -8329.08 -8.28436e-11 115579 -9.18907e-11 214914)
(786088 -53029.3 -7.87982e-10 -133327 -2.55328e-10 195828)
(764789 -63233.8 -3.87217e-10 -131117 -2.24089e-10 190102)
(743056 -74878.3 3.38888e-10 -124462 1.79352e-11 185578)
(723308 -82820.3 -1.87732e-10 -114650 1.20906e-10 182597)
(705321 -88493.6 -3.61278e-10 -102304 -1.81724e-10 180905)
(689172 -91940.6 4.37064e-10 -88521.2 1.09142e-10 180195)
(674916 -93539.1 -4.04305e-24 -73788.9 -1.63161e-24 180338)
(662406 -93561.3 -4.62127e-10 -58620.4 -2.53284e-10 181136)
(651559 -92261.5 -8.72321e-25 -43297.5 -6.78568e-25 182479)
(642197 -89837.5 -1.22e-10 -28052.1 -9.11503e-11 184243)
(634159 -86435 -1.19333e-10 -13019.4 -8.5597e-11 186342)
(627283 -82140.4 1.88309e-10 1708.32 4.6318e-11 188697)
(621388 -76991.5 -1.84689e-10 16057.3 -4.84616e-11 191234)
(616377 -70960.1 -5.38469e-24 29993.6 -1.6628e-24 193911)
(612046 -63989.9 1.78358e-10 43415.8 5.56345e-11 196639)
(608471 -55923.8 -1.75621e-10 56319.6 -6.07837e-11 199437)
(605289 -46651.6 -1.0713e-10 68440.2 -5.73957e-11 202119)
(603083 -35769 1.70967e-10 79880.8 7.47289e-11 204889)
(600787 -23431.9 -2.09879e-24 89855.1 -1.03529e-24 207193)
(600620 -7849.93 -5.0886e-11 99040.3 -4.75975e-11 209898)
(785368 -30675.2 -1.58452e-10 -117077 -1.07088e-10 200487)
(765886 -42350 3.64942e-10 -117690 4.47432e-11 194459)
(747182 -54895.4 -4.78503e-10 -114021 -1.59883e-10 189948)
(728967 -64305.9 1.27577e-10 -107008 1.26057e-10 186588)
(712122 -71553.2 7.13822e-11 -97154.6 -2.31197e-10 184490)
(696509 -76697.8 -2.71499e-24 -85534.1 -1.29979e-24 183293)
(682416 -79968.4 8.94627e-11 -72631.6 -5.34066e-11 182935)
(669733 -81604.3 -2.08888e-10 -59009.1 -5.33099e-11 183217)
(658474 -81802.7 -1.21615e-10 -44990.7 -9.83378e-11 184045)
(648515 -80742 -2.86295e-24 -30865 -1.1491e-24 185295)
(639763 -78554.2 -1.17941e-10 -16821 -8.74613e-11 186883)
(632095 -75328.2 -1.99309e-24 -3006.56 -5.38832e-25 188727)
(625382 -71111.5 -4.1548e-10 10453.9 -2.08193e-10 190751)
(619551 -65895.4 -2.25599e-10 23471.1 -1.45496e-10 192907)
(614447 -59647.2 6.8803e-11 35901.2 -8.33028e-12 195105)
(610143 -52245.1 6.75006e-11 47674.5 6.11022e-13 197345)
(606363 -43614.6 -1.0826e-10 58500 -6.05216e-11 199459)
(603600 -33414.5 -5.3628e-26 68375.3 2.0969e-26 201593)
(601051 -21836.5 -1.05145e-10 76546.8 -5.44133e-11 203279)
(600492 -7289.69 -2.21368e-10 83481.2 -2.46311e-10 205192)
(778748 -13450.9 6.37217e-11 -101839 -9.28384e-11 203073)
(761967 -24923.3 -2.42512e-10 -104832 -9.15947e-11 197141)
(746181 -37590.1 -1.002e-24 -102982 -4.91059e-25 192960)
(729925 -47686.6 1.14297e-10 -98019.9 -4.67216e-11 189572)
(714687 -55912.5 1.18774e-10 -90145.9 1.1915e-10 187362)
(700115 -62226.2 1.92674e-24 -80388.6 5.73968e-25 185918)
(686680 -66748.7 2.56102e-25 -69192.2 -7.00056e-25 185246)
(674293 -69652.8 -9.1408e-11 -57108.9 4.52231e-11 185155)
(663056 -71083.5 0 -44474 0 185575)
(652901 -71186.6 -4.8356e-24 -31600.2 -2.07492e-24 186390)
(643791 -70075 0 -18708.2 0 187525)
(635652 -67831 3.83631e-10 -5984.17 1.12736e-10 188900)
(628402 -64505.2 7.46134e-11 6409.94 -2.09807e-11 190443)
(621996 -60102.6 -2.96801e-10 18340.3 -1.35218e-10 192101)
(616328 -54610.1 -1.11015e-10 29629.1 -7.04823e-11 193787)
(611471 -47938.5 -1.78605e-10 40152.5 -6.8617e-11 195487)
(607234 -40046.5 -6.75924e-11 49602.9 -1.08259e-11 197051)
(604025 -30658.1 1.74082e-10 57892.7 8.08371e-11 198575)
(601282 -19989.3 1.72431e-10 64314.6 8.85673e-11 199679)
(600375 -6656.56 -1.71536e-10 69146.7 -1.96637e-10 200856)
(768314 978.771 -4.78954e-11 -87426.6 1.52499e-10 204266)
(754084 -10229.7 -1.01739e-10 -91978.5 -1.24775e-10 198632)
(741081 -22643.1 -3.40101e-10 -91690.3 -2.0913e-10 194817)
(726870 -32956.2 -1.213e-10 -88591.3 3.99806e-11 191484)
(713396 -41705.2 3.35789e-10 -82573.5 1.91637e-10 189247)
(700107 -48762.2 2.20028e-10 -74620.5 7.03719e-11 187646)
(687626 -54171.7 -2.64778e-24 -65101.8 -1.57349e-24 186757)
(675861 -58037.9 -2.10157e-10 -54562.6 -6.37818e-11 186389)
(664990 -60454.2 2.05444e-10 -43335.6 6.17917e-11 186496)
(654980 -61528.6 -1.13504e-10 -31751.7 -9.39089e-11 186969)
(645850 -61349.4 -1.13087e-10 -20054.3 -8.92172e-11 187739)
(637562 -59986.8 8.02008e-11 -8459.98 -2.36688e-11 188731)
(630076 -57489.3 1.11806e-10 2839.83 8.03046e-11 189875)
(623377 -53870.8 0 13675.5 0 191116)
(617401 -49134.3 0 23842.3 0 192373)
(612222 -43220.4 -1.7973e-10 33173 -7.20476e-11 193619)
(607727 -36118.6 3.16587e-24 41350.3 1.50594e-24 194723)
(604243 -27617.8 6.84581e-11 48216.9 1.98813e-11 195738)
(601420 -17951.7 0 53117.2 0 196361)
(600266 -5957.73 -1.73175e-10 56164.6 -1.98043e-10 196929)
(755357 12378.1 3.12003e-10 -74178.4 1.88213e-10 204354)
(743525 1784.72 3.75391e-10 -79789.5 6.75042e-11 199121)
(733038 -10011.1 -4.61393e-10 -80606.1 -1.76031e-10 195730)
(720867 -20160.4 -2.26822e-10 -78923.6 -8.30635e-11 192583)
(709207 -29066.6 3.26104e-10 -74414.4 1.92123e-10 190438)
(697361 -36518.7 1.12655e-10 -68013.4 -3.59283e-11 188804)
(686039 -42504.1 2.58198e-24 -60012.8 2.07175e-24 187808)