/*--------------------------------*- C++ -*----------------------------------*\
| =========                 |                                                 |
| \\      /  F ield         | foam-extend: Open Source CFD                    |
|  \\    /   O peration     | Version:     4.1                                |
|   \\  /    A nd           | Web:         http://www.foam-extend.org         |
|    \\/     M anipulation  |                                                 |
\*---------------------------------------------------------------------------*/
FoamFile
{
    version     2.0;
    format      ascii;
    class       vectorField;
    location    "6";
    object      solidsCellD_iteration19;
}
// * * * * * * * * * * * * * * * * * * * * * * * * * * * * * * * * * * * * * //


1000
(
(3.13732e-06 -1.34585e-06 0)
(2.95783e-06 -1.25125e-06 0)
(2.84267e-06 -1.19073e-06 0)
(2.77607e-06 -1.1619e-06 0)
(2.74298e-06 -1.15115e-06 0)
(2.73426e-06 -1.15437e-06 0)
(2.74354e-06 -1.16668e-06 0)
(2.76629e-06 -1.18573e-06 0)
(2.79918e-06 -1.2094e-06 0)
(2.84022e-06 -1.23617e-06 0)
(2.83632e-06 -1.47006e-06 0)
(2.64523e-06 -1.40378e-06 0)
(2.5228e-06 -1.36115e-06 0)
(2.45086e-06 -1.34444e-06 0)
(2.41367e-06 -1.34171e-06 0)
(2.40131e-06 -1.35057e-06 0)
(2.40711e-06 -1.36691e-06 0)
(2.42626e-06 -1.38897e-06 0)
(2.45535e-06 -1.4151e-06 0)
(2.49166e-06 -1.44343e-06 0)
(2.52374e-06 -1.58781e-06 0)
(2.32856e-06 -1.55319e-06 0)
(2.20366e-06 -1.53059e-06 0)
(2.12944e-06 -1.52731e-06 0)
(2.09004e-06 -1.53337e-06 0)
(2.07519e-06 -1.54831e-06 0)
(2.07815e-06 -1.56886e-06 0)
(2.09407e-06 -1.59395e-06 0)
(2.11951e-06 -1.62247e-06 0)
(2.15178e-06 -1.65247e-06 0)
(2.20187e-06 -1.69698e-06 0)
(2.01075e-06 -1.69558e-06 0)
(1.88853e-06 -1.69404e-06 0)
(1.81532e-06 -1.70479e-06 0)
(1.77575e-06 -1.71997e-06 0)
(1.7596e-06 -1.74115e-06 0)
(1.76039e-06 -1.76595e-06 0)
(1.7734e-06 -1.79407e-06 0)
(1.7954e-06 -1.82488e-06 0)
(1.82358e-06 -1.85666e-06 0)
(1.8729e-06 -1.79544e-06 0)
(1.69395e-06 -1.82699e-06 0)
(1.57961e-06 -1.84631e-06 0)
(1.51074e-06 -1.87092e-06 0)
(1.47301e-06 -1.8951e-06 0)
(1.45679e-06 -1.92239e-06 0)
(1.4561e-06 -1.95134e-06 0)
(1.46654e-06 -1.98241e-06 0)
(1.48516e-06 -2.0154e-06 0)
(1.50922e-06 -2.04902e-06 0)
(1.53846e-06 -1.88118e-06 0)
(1.3796e-06 -1.94356e-06 0)
(1.27815e-06 -1.98243e-06 0)
(1.21676e-06 -2.02e-06 0)
(1.18281e-06 -2.05257e-06 0)
(1.16769e-06 -2.08556e-06 0)
(1.16617e-06 -2.11834e-06 0)
(1.1743e-06 -2.15213e-06 0)
(1.18957e-06 -2.18714e-06 0)
(1.20939e-06 -2.22255e-06 0)
(1.20014e-06 -1.95227e-06 0)
(1.06842e-06 -2.04165e-06 0)
(9.84316e-07 -2.09767e-06 0)
(9.3327e-07 -2.14661e-06 0)
(9.04853e-07 -2.18652e-06 0)
(8.91902e-07 -2.22447e-06 0)
(8.90102e-07 -2.26058e-06 0)
(8.9615e-07 -2.29677e-06 0)
(9.08046e-07 -2.33353e-06 0)
(9.2352e-07 -2.37056e-06 0)
(8.59069e-07 -2.00711e-06 0)
(7.60428e-07 -2.1182e-06 0)
(6.97464e-07 -2.18798e-06 0)
(6.59176e-07 -2.24602e-06 0)
(6.37771e-07 -2.29182e-06 0)
(6.27851e-07 -2.33377e-06 0)
(6.26206e-07 -2.37258e-06 0)
(6.30361e-07 -2.41071e-06 0)
(6.38871e-07 -2.44888e-06 0)
(6.49955e-07 -2.48726e-06 0)
(5.1622e-07 -2.0444e-06 0)
(4.55148e-07 -2.17064e-06 0)
(4.16185e-07 -2.25005e-06 0)
(3.92436e-07 -2.31448e-06 0)
(3.79097e-07 -2.3644e-06 0)
(3.72843e-07 -2.40914e-06 0)
(3.71713e-07 -2.44985e-06 0)
(3.74151e-07 -2.48936e-06 0)
(3.79258e-07 -2.52852e-06 0)
(3.85912e-07 -2.56788e-06 0)
(1.72403e-07 -2.06319e-06 0)
(1.51715e-07 -2.19727e-06 0)
(1.38469e-07 -2.28164e-06 0)
(1.30386e-07 -2.34935e-06 0)
(1.25856e-07 -2.40141e-06 0)
(1.23711e-07 -2.4476e-06 0)
(1.23273e-07 -2.48926e-06 0)
(1.24054e-07 -2.52948e-06 0)
(1.25756e-07 -2.56916e-06 0)
(1.27967e-07 -2.60904e-06 0)
(4.90126e-06 -6.14234e-08 0)
(4.94578e-06 -4.42038e-08 0)
(4.97231e-06 -3.32597e-08 0)
(5.00062e-06 -2.67975e-08 0)
(5.03136e-06 -2.31689e-08 0)
(5.06915e-06 -2.14605e-08 0)
(5.11397e-06 -2.10728e-08 0)
(5.16642e-06 -2.15112e-08 0)
(5.2263e-06 -2.25525e-08 0)
(5.29286e-06 -2.38469e-08 0)
(4.86484e-06 -1.84283e-07 0)
(4.90189e-06 -1.33627e-07 0)
(4.92375e-06 -1.01453e-07 0)
(4.94895e-06 -8.25405e-08 0)
(4.97762e-06 -7.20454e-08 0)
(5.01395e-06 -6.71222e-08 0)
(5.05771e-06 -6.60045e-08 0)
(5.10929e-06 -6.74143e-08 0)
(5.16845e-06 -7.06131e-08 0)
(5.23424e-06 -7.44791e-08 0)
(4.79209e-06 -3.08171e-07 0)
(4.81495e-06 -2.26844e-07 0)
(4.8278e-06 -1.75249e-07 0)
(4.84705e-06 -1.44932e-07 0)
(4.87178e-06 -1.28158e-07 0)
(4.90532e-06 -1.20457e-07 0)
(4.94703e-06 -1.18879e-07 0)
(4.99697e-06 -1.21336e-07 0)
(5.05472e-06 -1.26668e-07 0)
(5.119e-06 -1.33131e-07 0)
(4.68433e-06 -4.33636e-07 0)
(4.68701e-06 -3.2602e-07 0)
(4.68702e-06 -2.57786e-07 0)
(4.69779e-06 -2.1787e-07 0)
(4.71691e-06 -1.95892e-07 0)
(4.7465e-06 -1.85988e-07 0)
(4.7853e-06 -1.84235e-07 0)
(4.83288e-06 -1.87886e-07 0)
(4.88863e-06 -1.95331e-07 0)
(4.95078e-06 -2.04394e-07 0)
(4.54326e-06 -5.60999e-07 0)
(4.52096e-06 -4.32933e-07 0)
(4.50513e-06 -3.51736e-07 0)
(4.50539e-06 -3.04539e-07 0)
(4.51756e-06 -2.78777e-07 0)
(4.54223e-06 -2.67521e-07 0)
(4.57742e-06 -2.66025e-07 0)
(4.62207e-06 -2.71074e-07 0)
(4.67532e-06 -2.80638e-07 0)
(4.73489e-06 -2.92291e-07 0)
(4.37101e-06 -6.90345e-07 0)
(4.32046e-06 -5.48787e-07 0)
(4.28673e-06 -4.58987e-07 0)
(4.2751e-06 -4.07264e-07 0)
(4.27938e-06 -3.79387e-07 0)
(4.29843e-06 -3.67774e-07 0)
(4.32949e-06 -3.67061e-07 0)
(4.37079e-06 -3.73745e-07 0)
(4.42115e-06 -3.85445e-07 0)
(4.4778e-06 -3.99655e-07 0)
(4.17014e-06 -8.21404e-07 0)
(4.08974e-06 -6.7405e-07 0)
(4.03711e-06 -5.80481e-07 0)
(4.01292e-06 -5.27258e-07 0)
(4.00882e-06 -4.99106e-07 0)
(4.02189e-06 -4.8825e-07 0)
(4.04849e-06 -4.8892e-07 0)
(4.08618e-06 -4.97484e-07 0)
(4.13339e-06 -5.11352e-07 0)
(4.18694e-06 -5.28054e-07 0)
(3.94339e-06 -9.53568e-07 0)
(3.8334e-06 -8.0839e-07 0)
(3.76207e-06 -7.16091e-07 0)
(3.72537e-06 -6.64556e-07 0)
(3.7129e-06 -6.3806e-07 0)
(3.71993e-06 -6.29126e-07 0)
(3.74196e-06 -6.3182e-07 0)
(3.77589e-06 -6.42584e-07 0)
(3.81973e-06 -6.58672e-07 0)
(3.87008e-06 -6.7787e-07 0)
(3.6937e-06 -1.08592e-06 0)
(3.5562e-06 -9.50707e-07 0)
(3.46749e-06 -8.64642e-07 0)
(3.41908e-06 -8.17913e-07 0)
(3.3987e-06 -7.94972e-07 0)
(3.39987e-06 -7.89079e-07 0)
(3.41738e-06 -7.9444e-07 0)
(3.44753e-06 -8.07676e-07 0)
(3.48788e-06 -8.26213e-07 0)
(3.53512e-06 -8.47757e-07 0)
(3.42404e-06 -1.21722e-06 0)
(3.26288e-06 -1.09917e-06 0)
(3.15923e-06 -1.0239e-06 0)
(3.10065e-06 -9.84877e-07 0)
(3.07326e-06 -9.67266e-07 0)
(3.06913e-06 -9.65474e-07 0)
(3.08241e-06 -9.74072e-07 0)
(3.1088e-06 -9.9019e-07 0)
(3.14566e-06 -1.01121e-06 0)
(3.18965e-06 -1.03606e-06 0)
(5.36632e-06 -2.51415e-08 0)
(5.44643e-06 -2.53863e-08 0)
(5.53168e-06 -2.56867e-08 0)
(5.62179e-06 -2.58973e-08 0)
(5.71618e-06 -2.59947e-08 0)
(5.81446e-06 -2.59649e-08 0)
(5.91619e-06 -2.57586e-08 0)
(6.02102e-06 -2.53869e-08 0)
(6.12859e-06 -2.48546e-08 0)
(6.23857e-06 -2.41447e-08 0)
(6.3506e-06 -2.32317e-08 0)
(6.46436e-06 -2.20984e-08 0)
(6.57953e-06 -2.07237e-08 0)
(6.69575e-06 -1.90887e-08 0)
(6.81273e-06 -1.71697e-08 0)
(6.92998e-06 -1.49333e-08 0)
(7.04728e-06 -1.23309e-08 0)
(7.16383e-06 -9.30654e-09 0)
(7.27977e-06 -5.78495e-09 0)
(7.39319e-06 -1.73896e-09 0)
(5.3103e-06 -7.80576e-08 0)
(5.39511e-06 -7.84208e-08 0)
(5.48457e-06 -7.90098e-08 0)
(5.57833e-06 -7.93856e-08 0)
(5.67596e-06 -7.94174e-08 0)
(5.77709e-06 -7.91072e-08 0)
(5.88141e-06 -7.83586e-08 0)
(5.98858e-06 -7.7169e-08 0)
(6.09828e-06 -7.54868e-08 0)
(6.21018e-06 -7.32581e-08 0)
(6.32399e-06 -7.04315e-08 0)
(6.4394e-06 -6.69727e-08 0)
(6.55612e-06 -6.28208e-08 0)
(6.6738e-06 -5.79039e-08 0)
(6.79215e-06 -5.21326e-08 0)
(6.91071e-06 -4.54033e-08 0)
(7.02927e-06 -3.75755e-08 0)
(7.14703e-06 -2.84955e-08 0)
(7.26418e-06 -1.79313e-08 0)
(7.37879e-06 -5.80153e-09 0)
(5.20015e-06 -1.38208e-07 0)
(5.29418e-06 -1.37653e-07 0)
(5.39187e-06 -1.3758e-07 0)
(5.49275e-06 -1.37395e-07 0)
(5.59675e-06 -1.36782e-07 0)
(5.70353e-06 -1.35744e-07 0)
(5.81292e-06 -1.34066e-07 0)
(5.92464e-06 -1.31724e-07 0)
(6.03848e-06 -1.28615e-07 0)
(6.15417e-06 -1.24662e-07 0)
(6.27147e-06 -1.19779e-07 0)
(6.39012e-06 -1.13892e-07 0)
(6.50985e-06 -1.06883e-07 0)
(6.63036e-06 -9.86221e-08 0)
(6.75139e-06 -8.89597e-08 0)
(6.87252e-06 -7.77215e-08 0)
(6.99356e-06 -6.4668e-08 0)
(7.11374e-06 -4.9549e-08 0)
(7.23326e-06 -3.19658e-08 0)
(7.35025e-06 -1.17837e-08 0)
(5.03918e-06 -2.0971e-07 0)
(5.14645e-06 -2.06617e-07 0)
(5.25605e-06 -2.04399e-07 0)
(5.36727e-06 -2.0251e-07 0)
(5.48055e-06 -2.00284e-07 0)
(5.59554e-06 -1.97746e-07 0)
(5.71235e-06 -1.94511e-07 0)
(5.83075e-06 -1.90528e-07 0)
(5.95069e-06 -1.85617e-07 0)
(6.07195e-06 -1.79643e-07 0)
(6.19438e-06 -1.72462e-07 0)
(6.31778e-06 -1.6395e-07 0)
(6.44195e-06 -1.53938e-07 0)
(6.56663e-06 -1.42242e-07 0)
(6.6916e-06 -1.28648e-07 0)
(6.8165e-06 -1.12891e-07 0)
(6.94116e-06 -9.46356e-08 0)
(7.06488e-06 -7.3523e-08 0)
(7.18786e-06 -4.89818e-08 0)
(7.30834e-06 -2.08336e-08 0)
(4.83229e-06 -2.96222e-07 0)
(4.95615e-06 -2.88488e-07 0)
(5.08084e-06 -2.8221e-07 0)
(5.20518e-06 -2.77141e-07 0)
(5.33031e-06 -2.72062e-07 0)
(5.45583e-06 -2.67028e-07 0)
(5.58216e-06 -2.61432e-07 0)
(5.70917e-06 -2.55157e-07 0)
(5.83695e-06 -2.47907e-07 0)
(5.96539e-06 -2.39478e-07 0)
(6.09445e-06 -2.29667e-07 0)
(6.22399e-06 -2.18286e-07 0)
(6.3539e-06 -2.05097e-07 0)
(6.48398e-06 -1.89845e-07 0)
(6.61407e-06 -1.72239e-07 0)
(6.74384e-06 -1.51926e-07 0)
(6.8732e-06 -1.28468e-07 0)
(7.00148e-06 -1.01399e-07 0)
(7.12897e-06 -6.9976e-08 0)
(7.25396e-06 -3.39659e-08 0)
(4.58536e-06 -4.00368e-07 0)
(4.72832e-06 -3.85558e-07 0)
(4.87067e-06 -3.72955e-07 0)
(5.01044e-06 -3.62915e-07 0)
(5.14961e-06 -3.53508e-07 0)
(5.28766e-06 -3.44763e-07 0)
(5.42537e-06 -3.35809e-07 0)
(5.56269e-06 -3.2643e-07 0)
(5.69988e-06 -3.16207e-07 0)
(5.83696e-06 -3.04834e-07 0)
(5.974e-06 -2.92024e-07 0)
(6.11095e-06 -2.77499e-07 0)
(6.24776e-06 -2.60938e-07 0)
(6.38433e-06 -2.42007e-07 0)
(6.52057e-06 -2.20322e-07 0)
(6.6562e-06 -1.95443e-07 0)
(6.79121e-06 -1.66817e-07 0)
(6.92498e-06 -1.33876e-07 0)
(7.05787e-06 -9.57081e-08 0)
(7.18827e-06 -5.19828e-08 0)
(4.3053e-06 -5.2375e-07 0)
(4.46898e-06 -4.99407e-07 0)
(4.6308e-06 -4.78235e-07 0)
(4.78773e-06 -4.61311e-07 0)
(4.94258e-06 -4.46013e-07 0)
(5.09476e-06 -4.32223e-07 0)
(5.24533e-06 -4.18859e-07 0)
(5.39438e-06 -4.055e-07 0)
(5.54232e-06 -3.91594e-07 0)
(5.68927e-06 -3.7671e-07 0)
(5.83544e-06 -3.60448e-07 0)
(5.98087e-06 -3.42423e-07 0)
(6.12561e-06 -3.22224e-07 0)
(6.26964e-06 -2.99431e-07 0)
(6.41294e-06 -2.73559e-07 0)
(6.5553e-06 -2.44076e-07 0)
(6.69678e-06 -2.10308e-07 0)
(6.83685e-06 -1.71578e-07 0)
(6.97592e-06 -1.26816e-07 0)
(7.11251e-06 -7.55845e-08 0)
(3.9991e-06 -6.66738e-07 0)
(4.18413e-06 -6.30121e-07 0)
(4.3664e-06 -5.98091e-07 0)
(4.54171e-06 -5.72141e-07 0)
(4.71348e-06 -5.49323e-07 0)
(4.88106e-06 -5.29061e-07 0)
(5.04573e-06 -5.10171e-07 0)
(5.20768e-06 -4.91928e-07 0)
(5.36746e-06 -4.73633e-07 0)
(5.52535e-06 -4.54691e-07 0)
(5.68161e-06 -4.34566e-07 0)
(5.83644e-06 -4.1275e-07 0)
(5.98997e-06 -3.88722e-07 0)
(6.14226e-06 -3.61958e-07 0)
(6.29337e-06 -3.31869e-07 0)
(6.44319e-06 -2.97818e-07 0)
(6.59181e-06 -2.59012e-07 0)
(6.73883e-06 -2.14657e-07 0)
(6.88471e-06 -1.63527e-07 0)
(7.02816e-06 -1.05076e-07 0)
(3.67435e-06 -8.29042e-07 0)
(3.88065e-06 -7.77941e-07 0)
(4.08329e-06 -7.33664e-07 0)
(4.27754e-06 -6.96873e-07 0)
(4.4667e-06 -6.65079e-07 0)
(4.65046e-06 -6.37007e-07 0)
(4.82996e-06 -6.11432e-07 0)
(5.00563e-06 -5.87312e-07 0)
(5.17806e-06 -5.63792e-07 0)
(5.34767e-06 -5.40095e-07 0)
(5.51482e-06 -5.15539e-07 0)
(5.6798e-06 -4.89483e-07 0)
(5.84283e-06 -4.61287e-07 0)
(6.00406e-06 -4.30314e-07 0)
(6.16363e-06 -3.9586e-07 0)
(6.3215e-06 -3.57172e-07 0)
(6.47785e-06 -3.1335e-07 0)
(6.63239e-06 -2.63474e-07 0)
(6.78563e-06 -2.06191e-07 0)
(6.93651e-06 -1.40857e-07 0)
(3.33717e-06 -1.0077e-06 0)
(3.56477e-06 -9.38678e-07 0)
(3.78684e-06 -8.80603e-07 0)
(4.00047e-06 -8.31254e-07 0)
(4.20737e-06 -7.89066e-07 0)
(4.40792e-06 -7.52078e-07 0)
(4.60289e-06 -7.18907e-07 0)
(4.79292e-06 -6.8824e-07 0)
(4.97862e-06 -6.58997e-07 0)
(5.16053e-06 -6.30202e-07 0)
(5.3391e-06 -6.00994e-07 0)
(5.51472e-06 -5.70578e-07 0)
(5.6877e-06 -5.38176e-07 0)
(5.85828e-06 -5.03028e-07 0)
(6.02667e-06 -4.64312e-07 0)
(6.19295e-06 -4.2116e-07 0)
(6.35737e-06 -3.72571e-07 0)
(6.51977e-06 -3.17489e-07 0)
(6.68071e-06 -2.54449e-07 0)
(6.83941e-06 -1.82676e-07 0)
(3.08835e-06 -1.1781e-06 0)
(3.32943e-06 -1.09485e-06 0)
(3.56268e-06 -1.02661e-06 0)
(3.78798e-06 -9.6735e-07 0)
(4.00593e-06 -9.16074e-07 0)
(4.21707e-06 -8.70785e-07 0)
(4.42207e-06 -8.30036e-07 0)
(4.62153e-06 -7.92482e-07 0)
(4.81606e-06 -7.56953e-07 0)
(5.00617e-06 -7.22386e-07 0)
(5.19236e-06 -6.87831e-07 0)
(5.37503e-06 -6.52404e-07 0)
(5.55456e-06 -6.15241e-07 0)
(5.73122e-06 -5.75502e-07 0)
(5.90528e-06 -5.32295e-07 0)
(6.0769e-06 -4.84681e-07 0)
(6.24641e-06 -4.31628e-07 0)
(6.41376e-06 -3.72009e-07 0)
(6.57958e-06 -3.04336e-07 0)
(6.74332e-06 -2.27789e-07 0)
(2.94552e-06 -1.31574e-06 0)
(3.1883e-06 -1.22942e-06 0)
(3.42345e-06 -1.15564e-06 0)
(3.65171e-06 -1.09045e-06 0)
(3.87303e-06 -1.0329e-06 0)
(4.08784e-06 -9.81351e-07 0)
(4.2966e-06 -9.34467e-07 0)
(4.49978e-06 -8.90998e-07 0)
(4.69786e-06 -8.49802e-07 0)
(4.89131e-06 -8.09838e-07 0)
(5.08059e-06 -7.7016e-07 0)
(5.26608e-06 -7.29867e-07 0)
(5.44815e-06 -6.88078e-07 0)
(5.62709e-06 -6.4394e-07 0)
(5.80319e-06 -5.96554e-07 0)
(5.9767e-06 -5.44973e-07 0)
(6.14792e-06 -4.88199e-07 0)
(6.31698e-06 -4.25121e-07 0)
(6.48447e-06 -3.54308e-07 0)
(6.65009e-06 -2.7499e-07 0)
(2.82274e-06 -1.44827e-06 0)
(3.06328e-06 -1.35982e-06 0)
(3.29807e-06 -1.28232e-06 0)
(3.52682e-06 -1.21256e-06 0)
(3.74945e-06 -1.14982e-06 0)
(3.96606e-06 -1.09281e-06 0)
(4.17694e-06 -1.04037e-06 0)
(4.3824e-06 -9.91379e-07 0)
(4.58283e-06 -9.44784e-07 0)
(4.7786e-06 -8.99602e-07 0)
(4.97011e-06 -8.54916e-07 0)
(5.15771e-06 -8.09838e-07 0)
(5.34173e-06 -7.63492e-07 0)
(5.52248e-06 -7.15038e-07 0)
(5.70027e-06 -6.63586e-07 0)
(5.87537e-06 -6.08206e-07 0)
(6.04811e-06 -5.4794e-07 0)
(6.21871e-06 -4.81724e-07 0)
(6.38776e-06 -4.0821e-07 0)
(6.55516e-06 -3.26704e-07 0)
(2.71414e-06 -1.57615e-06 0)
(2.95134e-06 -1.48664e-06 0)
(3.18415e-06 -1.40632e-06 0)
(3.4118e-06 -1.33276e-06 0)
(3.63417e-06 -1.26554e-06 0)
(3.85113e-06 -1.20367e-06 0)
(4.06283e-06 -1.14617e-06 0)
(4.26942e-06 -1.09208e-06 0)
(4.47118e-06 -1.04042e-06 0)
(4.66841e-06 -9.90307e-07 0)
(4.86141e-06 -9.40854e-07 0)
(5.05049e-06 -8.91206e-07 0)
(5.23596e-06 -8.40512e-07 0)
(5.41812e-06 -7.87959e-07 0)
(5.59727e-06 -7.32682e-07 0)
(5.77371e-06 -6.73789e-07 0)
(5.94778e-06 -6.10366e-07 0)
(6.11976e-06 -5.41418e-07 0)
(6.29022e-06 -4.65699e-07 0)
(6.45928e-06 -3.82609e-07 0)
(2.61835e-06 -1.69861e-06 0)
(2.85115e-06 -1.60878e-06 0)
(3.0808e-06 -1.52659e-06 0)
(3.30612e-06 -1.45017e-06 0)
(3.52701e-06 -1.37933e-06 0)
(3.74315e-06 -1.31335e-06 0)
(3.95457e-06 -1.25142e-06 0)
(4.1613e-06 -1.19273e-06 0)
(4.36351e-06 -1.13645e-06 0)
(4.5614e-06 -1.08174e-06 0)
(4.75521e-06 -1.02782e-06 0)
(4.9452e-06 -9.73855e-07 0)
(5.13164e-06 -9.19048e-07 0)
(5.31481e-06 -8.62633e-07 0)
(5.49499e-06 -8.03772e-07 0)
(5.67251e-06 -7.41636e-07 0)
(5.8477e-06 -6.7536e-07 0)
(6.02089e-06 -6.04031e-07 0)
(6.19261e-06 -5.26536e-07 0)
(6.36318e-06 -4.42371e-07 0)
(2.53311e-06 -1.81583e-06 0)
(2.76101e-06 -1.72625e-06 0)
(2.98676e-06 -1.64288e-06 0)
(3.20889e-06 -1.5643e-06 0)
(3.42742e-06 -1.49053e-06 0)
(3.64182e-06 -1.42106e-06 0)
(3.85208e-06 -1.35529e-06 0)
(4.05812e-06 -1.29253e-06 0)
(4.26002e-06 -1.23206e-06 0)
(4.45789e-06 -1.17317e-06 0)
(4.65191e-06 -1.11513e-06 0)
(4.84229e-06 -1.05718e-06 0)
(5.02925e-06 -9.98564e-07 0)
(5.21306e-06 -9.38581e-07 0)
(5.39398e-06 -8.76431e-07 0)
(5.57232e-06 -8.11364e-07 0)
(5.74842e-06 -7.42569e-07 0)
(5.92264e-06 -6.69224e-07 0)
(6.0955e-06 -5.90366e-07 0)
(6.26742e-06 -5.0557e-07 0)
(2.45674e-06 -1.92789e-06 0)
(2.67944e-06 -1.83897e-06 0)
(2.90077e-06 -1.75497e-06 0)
(3.11917e-06 -1.67485e-06 0)
(3.33466e-06 -1.5988e-06 0)
(3.54666e-06 -1.52646e-06 0)
(3.75509e-06 -1.4574e-06 0)
(3.95978e-06 -1.3911e-06 0)
(4.16074e-06 -1.32693e-06 0)
(4.35802e-06 -1.26427e-06 0)
(4.55175e-06 -1.20249e-06 0)
(4.74206e-06 -1.1409e-06 0)
(4.92916e-06 -1.0788e-06 0)
(5.11328e-06 -1.01557e-06 0)
(5.29465e-06 -9.50434e-07 0)
(5.47359e-06 -8.82742e-07 0)
(5.6504e-06 -8.11746e-07 0)
(5.82548e-06 -7.36727e-07 0)
(5.99932e-06 -6.56863e-07 0)
(6.17241e-06 -5.718e-07 0)
(2.38762e-06 -2.03505e-06 0)
(2.60503e-06 -1.94706e-06 0)
(2.82166e-06 -1.86285e-06 0)
(3.03597e-06 -1.78168e-06 0)
(3.24799e-06 -1.70387e-06 0)
(3.4571e-06 -1.62919e-06 0)
(3.66319e-06 -1.55738e-06 0)
(3.86601e-06 -1.48802e-06 0)
(4.06554e-06 -1.42061e-06 0)
(4.26177e-06 -1.35462e-06 0)
(4.45477e-06 -1.2895e-06 0)
(4.64465e-06 -1.22464e-06 0)
(4.83156e-06 -1.15942e-06 0)
(5.0157e-06 -1.09326e-06 0)
(5.19728e-06 -1.02547e-06 0)
(5.37659e-06 -9.55468e-07 0)
(5.55395e-06 -8.8259e-07 0)
(5.72973e-06 -8.0622e-07 0)
(5.9044e-06 -7.25661e-07 0)
(6.07847e-06 -6.40638e-07 0)
(2.32434e-06 -2.13763e-06 0)
(2.53646e-06 -2.05074e-06 0)
(2.74828e-06 -1.96662e-06 0)
(2.95831e-06 -1.88479e-06 0)
(3.16659e-06 -1.80565e-06 0)
(3.37248e-06 -1.72911e-06 0)
(3.57585e-06 -1.65502e-06 0)
(3.77644e-06 -1.58307e-06 0)
(3.97417e-06 -1.51286e-06 0)
(4.16899e-06 -1.44396e-06 0)
(4.36094e-06 -1.37591e-06 0)
(4.55007e-06 -1.30816e-06 0)
(4.73653e-06 -1.24017e-06 0)
(4.92045e-06 -1.17143e-06 0)
(5.10205e-06 -1.1013e-06 0)
(5.28157e-06 -1.0293e-06 0)
(5.45931e-06 -9.54846e-07 0)
(5.63565e-06 -8.77406e-07 0)
(5.81099e-06 -7.96415e-07 0)
(5.98589e-06 -7.11684e-07 0)
(2.26564e-06 -2.23596e-06 0)
(2.47258e-06 -2.15026e-06 0)
(2.67959e-06 -2.06643e-06 0)
(2.88526e-06 -1.98424e-06 0)
(3.08963e-06 -1.90413e-06 0)
(3.29211e-06 -1.82613e-06 0)
(3.49254e-06 -1.75019e-06 0)
(3.69063e-06 -1.67607e-06 0)
(3.8863e-06 -1.60349e-06 0)
(4.07947e-06 -1.5321e-06 0)
(4.27012e-06 -1.46151e-06 0)
(4.45829e-06 -1.39125e-06 0)
(4.64408e-06 -1.32084e-06 0)
(4.82761e-06 -1.24985e-06 0)
(5.00904e-06 -1.17771e-06 0)
(5.18862e-06 -1.10401e-06 0)
(5.36661e-06 -1.02825e-06 0)
(5.54337e-06 -9.49992e-07 0)
(5.71923e-06 -8.68796e-07 0)
(5.89483e-06 -7.8455e-07 0)
(2.21041e-06 -2.3304e-06 0)
(2.41233e-06 -2.24588e-06 0)
(2.61459e-06 -2.16249e-06 0)
(2.81591e-06 -2.08016e-06 0)
(3.01635e-06 -1.99939e-06 0)
(3.21533e-06 -1.92027e-06 0)
(3.41268e-06 -1.84284e-06 0)
(3.60814e-06 -1.76695e-06 0)
(3.80158e-06 -1.69238e-06 0)
(3.99292e-06 -1.61889e-06 0)
(4.18211e-06 -1.54614e-06 0)
(4.36916e-06 -1.47373e-06 0)
(4.55413e-06 -1.40125e-06 0)
(4.73711e-06 -1.32833e-06 0)
(4.91825e-06 -1.25449e-06 0)
(5.09776e-06 -1.17937e-06 0)
(5.27588e-06 -1.10256e-06 0)
(5.45291e-06 -1.02371e-06 0)
(5.6292e-06 -9.42497e-07 0)
(5.80532e-06 -8.58871e-07 0)
(2.15764e-06 -2.42126e-06 0)
(2.35472e-06 -2.3379e-06 0)
(2.55237e-06 -2.25503e-06 0)
(2.74944e-06 -2.17273e-06 0)
(2.94597e-06 -2.09154e-06 0)
(3.14144e-06 -2.01158e-06 0)
(3.33569e-06 -1.93299e-06 0)
(3.52844e-06 -1.85567e-06 0)
(3.71958e-06 -1.77949e-06 0)
(3.909e-06 -1.70425e-06 0)
(4.09662e-06 -1.6297e-06 0)
(4.28244e-06 -1.55549e-06 0)
(4.46649e-06 -1.48126e-06 0)
(4.64883e-06 -1.40673e-06 0)
(4.82959e-06 -1.33147e-06 0)
(5.00894e-06 -1.25519e-06 0)
(5.18707e-06 -1.17756e-06 0)
(5.36429e-06 -1.09831e-06 0)
(5.5409e-06 -1.01723e-06 0)
(5.71742e-06 -9.34298e-07 0)
(2.10643e-06 -2.50886e-06 0)
(2.29888e-06 -2.42659e-06 0)
(2.49208e-06 -2.34429e-06 0)
(2.68503e-06 -2.26216e-06 0)
(2.87775e-06 -2.18072e-06 0)
(3.06977e-06 -2.10018e-06 0)
(3.26095e-06 -2.02071e-06 0)
(3.45102e-06 -1.94228e-06 0)
(3.63985e-06 -1.86482e-06 0)
(3.82732e-06 -1.78817e-06 0)
(4.01335e-06 -1.71215e-06 0)
(4.1979e-06 -1.63645e-06 0)
(4.38098e-06 -1.5608e-06 0)
(4.56263e-06 -1.48495e-06 0)
(4.74294e-06 -1.40852e-06 0)
(4.92206e-06 -1.33132e-06 0)
(5.10013e-06 -1.25307e-06 0)
(5.27746e-06 -1.17358e-06 0)
(5.45428e-06 -1.09274e-06 0)
(5.63107e-06 -1.01055e-06 0)
(2.05591e-06 -2.59347e-06 0)
(2.24394e-06 -2.51224e-06 0)
(2.43288e-06 -2.43051e-06 0)
(2.62188e-06 -2.34863e-06 0)
(2.81094e-06 -2.26711e-06 0)
(2.99964e-06 -2.1862e-06 0)
(3.18786e-06 -2.10611e-06 0)
(3.37533e-06 -2.02686e-06 0)
(3.56192e-06 -1.94841e-06 0)
(3.74749e-06 -1.87066e-06 0)
(3.93194e-06 -1.79348e-06 0)
(4.11522e-06 -1.71659e-06 0)
(4.29732e-06 -1.63979e-06 0)
(4.47826e-06 -1.56288e-06 0)
(4.65809e-06 -1.48553e-06 0)
(4.83693e-06 -1.40761e-06 0)
(5.01489e-06 -1.32891e-06 0)
(5.19227e-06 -1.24932e-06 0)
(5.3692e-06 -1.16877e-06 0)
(5.5462e-06 -1.08736e-06 0)
(2.00521e-06 -2.67535e-06 0)
(2.18904e-06 -2.59507e-06 0)
(2.37395e-06 -2.51394e-06 0)
(2.5592e-06 -2.43239e-06 0)
(2.74481e-06 -2.35093e-06 0)
(2.9304e-06 -2.26984e-06 0)
(3.11583e-06 -2.18935e-06 0)
(3.30084e-06 -2.10953e-06 0)
(3.4853e-06 -2.03035e-06 0)
(3.66906e-06 -1.95178e-06 0)
(3.85202e-06 -1.87371e-06 0)
(4.0341e-06 -1.79592e-06 0)
(4.21527e-06 -1.71823e-06 0)
(4.39552e-06 -1.64049e-06 0)
(4.57487e-06 -1.56244e-06 0)
(4.75342e-06 -1.48397e-06 0)
(4.93127e-06 -1.40497e-06 0)
(5.10863e-06 -1.32535e-06 0)
(5.28563e-06 -1.24516e-06 0)
(5.46272e-06 -1.1645e-06 0)
(1.95353e-06 -2.75471e-06 0)
(2.13338e-06 -2.67541e-06 0)
(2.31445e-06 -2.59482e-06 0)
(2.49625e-06 -2.51365e-06 0)
(2.67867e-06 -2.43239e-06 0)
(2.86139e-06 -2.35128e-06 0)
(3.04425e-06 -2.2706e-06 0)
(3.22701e-06 -2.19042e-06 0)
(3.40952e-06 -2.11077e-06 0)
(3.59163e-06 -2.03163e-06 0)
(3.77323e-06 -1.95292e-06 0)
(3.95421e-06 -1.87447e-06 0)
(4.13452e-06 -1.79613e-06 0)
(4.31413e-06 -1.71777e-06 0)
(4.49305e-06 -1.63918e-06 0)
(4.67133e-06 -1.56032e-06 0)
(4.84906e-06 -1.48112e-06 0)
(5.02638e-06 -1.40156e-06 0)
(5.20341e-06 -1.32173e-06 0)
(5.38053e-06 -1.24179e-06 0)
(1.90002e-06 -2.83189e-06 0)
(2.07599e-06 -2.75328e-06 0)
(2.25344e-06 -2.67339e-06 0)
(2.43222e-06 -2.59278e-06 0)
(2.61175e-06 -2.5118e-06 0)
(2.79194e-06 -2.43082e-06 0)
(2.97251e-06 -2.35011e-06 0)
(3.1533e-06 -2.26977e-06 0)
(3.33411e-06 -2.18985e-06 0)
(3.51478e-06 -2.11035e-06 0)
(3.69519e-06 -2.03124e-06 0)
(3.87522e-06 -1.95233e-06 0)
(4.0548e-06 -1.87352e-06 0)
(4.23386e-06 -1.79472e-06 0)
(4.41241e-06 -1.71576e-06 0)
(4.59049e-06 -1.63663e-06 0)
(4.7681e-06 -1.5573e-06 0)
(4.94538e-06 -1.47781e-06 0)
(5.12241e-06 -1.39833e-06 0)
(5.29952e-06 -1.31905e-06 0)
(1.84338e-06 -2.90681e-06 0)
(2.01608e-06 -2.82899e-06 0)
(2.19058e-06 -2.74996e-06 0)
(2.36643e-06 -2.66992e-06 0)
(2.54348e-06 -2.58936e-06 0)
(2.72144e-06 -2.50866e-06 0)
(2.90011e-06 -2.42807e-06 0)
(3.07925e-06 -2.34776e-06 0)
(3.25866e-06 -2.26777e-06 0)
(3.43818e-06 -2.18811e-06 0)
(3.61763e-06 -2.10877e-06 0)
(3.79689e-06 -2.02959e-06 0)
(3.97587e-06 -1.95048e-06 0)
(4.15452e-06 -1.8714e-06 0)
(4.33279e-06 -1.79219e-06 0)
(4.5107e-06 -1.71288e-06 0)
(4.68824e-06 -1.63345e-06 0)
(4.86553e-06 -1.55402e-06 0)
(5.04256e-06 -1.47486e-06 0)
(5.21962e-06 -1.39619e-06 0)
(1.78288e-06 -2.98024e-06 0)
(1.95258e-06 -2.90337e-06 0)
(2.12438e-06 -2.82502e-06 0)
(2.29789e-06 -2.74561e-06 0)
(2.47291e-06 -2.66556e-06 0)
(2.64915e-06 -2.58524e-06 0)
(2.82637e-06 -2.50492e-06 0)
(3.00431e-06 -2.42478e-06 0)
(3.18273e-06 -2.34485e-06 0)
(3.36141e-06 -2.26518e-06 0)
(3.54019e-06 -2.18574e-06 0)
(3.71892e-06 -2.10642e-06 0)
(3.8975e-06 -2.02716e-06 0)
(4.07584e-06 -1.94791e-06 0)
(4.25393e-06 -1.86852e-06 0)
(4.43176e-06 -1.78905e-06 0)
(4.6093e-06 -1.70958e-06 0)
(4.78665e-06 -1.63017e-06 0)
(4.96377e-06 -1.5512e-06 0)
(5.1408e-06 -1.47301e-06 0)
(1.71776e-06 -3.05165e-06 0)
(1.88485e-06 -2.97583e-06 0)
(2.05443e-06 -2.89844e-06 0)
(2.22613e-06 -2.81984e-06 0)
(2.3997e-06 -2.74047e-06 0)
(2.5748e-06 -2.6607e-06 0)
(2.75112e-06 -2.58083e-06 0)
(2.92834e-06 -2.501e-06 0)
(3.10619e-06 -2.42125e-06 0)
(3.28444e-06 -2.34167e-06 0)
(3.46286e-06 -2.26227e-06 0)
(3.6413e-06 -2.18294e-06 0)
(3.81964e-06 -2.10358e-06 0)
(3.99782e-06 -2.02423e-06 0)
(4.17579e-06 -1.94478e-06 0)
(4.35358e-06 -1.86522e-06 0)
(4.53121e-06 -1.78568e-06 0)
(4.70868e-06 -1.70624e-06 0)
(4.88602e-06 -1.62733e-06 0)
(5.06323e-06 -1.54945e-06 0)
(1.27437e-07 -2.64994e-06 0)
(3.84104e-07 -2.61072e-06 0)
(6.46156e-07 -2.53385e-06 0)
(9.16638e-07 -2.4224e-06 0)
(1.19804e-06 -2.28068e-06 0)
(1.49191e-06 -2.11399e-06 0)
(1.79884e-06 -1.92844e-06 0)
(2.11826e-06 -1.7304e-06 0)
(2.44899e-06 -1.52636e-06 0)
(2.7885e-06 -1.32152e-06 0)
(1.23772e-07 -2.69238e-06 0)
(3.72838e-07 -2.65653e-06 0)
(6.26401e-07 -2.58623e-06 0)
(8.87032e-07 -2.48408e-06 0)
(1.15685e-06 -2.35374e-06 0)
(1.43718e-06 -2.19971e-06 0)
(1.72859e-06 -2.0272e-06 0)
(2.03046e-06 -1.84172e-06 0)
(2.34141e-06 -1.64914e-06 0)
(2.65927e-06 -1.45384e-06 0)
(1.20555e-07 -2.73582e-06 0)
(3.62917e-07 -2.70303e-06 0)
(6.08965e-07 -2.63867e-06 0)
(8.60768e-07 -2.54501e-06 0)
(1.1201e-06 -2.42522e-06 0)
(1.38808e-06 -2.28319e-06 0)
(1.66528e-06 -2.12339e-06 0)
(1.95145e-06 -1.95046e-06 0)
(2.24565e-06 -1.76945e-06 0)
(2.54639e-06 -1.58325e-06 0)
(1.17707e-07 -2.78035e-06 0)
(3.54147e-07 -2.75017e-06 0)
(5.93673e-07 -2.6909e-06 0)
(8.37964e-07 -2.60451e-06 0)
(1.0885e-06 -2.4938e-06 0)
(1.34618e-06 -2.36217e-06 0)
(1.61146e-06 -2.21357e-06 0)
(1.88407e-06 -2.0521e-06 0)
(2.16323e-06 -1.8824e-06 0)
(2.44769e-06 -1.70681e-06 0)
(1.15088e-07 -2.82596e-06 0)
(3.46089e-07 -2.79811e-06 0)
(5.79657e-07 -2.7434e-06 0)
(8.17162e-07 -2.66355e-06 0)
(1.05984e-06 -2.56106e-06 0)
(1.30843e-06 -2.43896e-06 0)
(1.56334e-06 -2.30073e-06 0)
(1.82434e-06 -2.14988e-06 0)
(2.09088e-06 -1.99059e-06 0)
(2.3614e-06 -1.825e-06 0)
(1.12648e-07 -2.87259e-06 0)
(3.38643e-07 -2.84676e-06 0)
(5.66781e-07 -2.796e-06 0)
(7.98213e-07 -2.72188e-06 0)
(1.03396e-06 -2.62661e-06 0)
(1.27461e-06 -2.51293e-06 0)
(1.52046e-06 -2.384e-06 0)
(1.77127e-06 -2.24291e-06 0)
(2.02677e-06 -2.09346e-06 0)
(2.28512e-06 -1.93774e-06 0)
(1.10321e-07 -2.92018e-06 0)
(3.31566e-07 -2.89616e-06 0)
(5.54614e-07 -2.84893e-06 0)
(7.80442e-07 -2.77992e-06 0)
(1.00989e-06 -2.69113e-06 0)
(1.24345e-06 -2.58504e-06 0)
(1.48137e-06 -2.46452e-06 0)
(1.72331e-06 -2.33233e-06 0)
(1.96927e-06 -2.19185e-06 0)
(2.21714e-06 -2.04533e-06 0)
(1.08091e-07 -2.96863e-06 0)
(3.24771e-07 -2.94621e-06 0)
(5.43004e-07 -2.90209e-06 0)
(7.63605e-07 -2.83762e-06 0)
(9.87288e-07 -2.7546e-06 0)
(1.21443e-06 -2.65529e-06 0)
(1.44527e-06 -2.54234e-06 0)
(1.67938e-06 -2.41826e-06 0)
(1.91696e-06 -2.28606e-06 0)
(2.15577e-06 -2.14809e-06 0)
(1.059e-07 -3.01786e-06 0)
(3.18125e-07 -2.99687e-06 0)
(5.31713e-07 -2.95554e-06 0)
(7.47339e-07 -2.89513e-06 0)
(9.6564e-07 -2.81728e-06 0)
(1.18691e-06 -2.72408e-06 0)
(1.41135e-06 -2.61795e-06 0)
(1.63851e-06 -2.50123e-06 0)
(1.86867e-06 -2.37657e-06 0)
(2.09963e-06 -2.24644e-06 0)
(1.03715e-07 -3.06775e-06 0)
(3.11549e-07 -3.04804e-06 0)
(5.20588e-07 -3.00921e-06 0)
(7.31421e-07 -2.95244e-06 0)
(9.44613e-07 -2.87924e-06 0)
(1.16041e-06 -2.79152e-06 0)
(1.37898e-06 -2.69154e-06 0)
(1.59987e-06 -2.58151e-06 0)
(1.82341e-06 -2.46375e-06 0)
(2.04749e-06 -2.34077e-06 0)
(1.0152e-07 -3.1182e-06 0)
(3.04955e-07 -3.09965e-06 0)
(5.09464e-07 -3.06307e-06 0)
(7.15607e-07 -3.00956e-06 0)
(9.2387e-07 -2.94056e-06 0)
(1.13448e-06 -2.8578e-06 0)
(1.3476e-06 -2.76339e-06 0)
(1.56276e-06 -2.65941e-06 0)
(1.78032e-06 -2.54794e-06 0)
(1.9983e-06 -2.43146e-06 0)
(9.92961e-08 -3.16906e-06 0)
(2.98262e-07 -3.15158e-06 0)
(4.98204e-07 -3.11703e-06 0)
(6.99686e-07 -3.06648e-06 0)
(9.03125e-07 -3.00127e-06 0)
(1.10874e-06 -2.92301e-06 0)
(1.3167e-06 -2.83364e-06 0)
(1.52655e-06 -2.73516e-06 0)
(1.73862e-06 -2.62942e-06 0)
(1.95112e-06 -2.51884e-06 0)
(9.70104e-08 -3.22023e-06 0)
(2.91371e-07 -3.2037e-06 0)
(4.86657e-07 -3.17101e-06 0)
(6.83435e-07 -3.12315e-06 0)
(8.82077e-07 -3.06138e-06 0)
(1.08281e-06 -2.98722e-06 0)
(1.2858e-06 -2.90245e-06 0)
(1.49064e-06 -2.80897e-06 0)
(1.69759e-06 -2.70846e-06 0)
(1.9051e-06 -2.60323e-06 0)
(9.4626e-08 -3.27153e-06 0)
(2.84195e-07 -3.25586e-06 0)
(4.74677e-07 -3.22487e-06 0)
(6.66636e-07 -3.17947e-06 0)
(8.60436e-07 -3.12086e-06 0)
(1.05631e-06 -3.05044e-06 0)
(1.25444e-06 -2.96988e-06 0)
(1.45444e-06 -2.88096e-06 0)
(1.65656e-06 -2.78523e-06 0)
(1.85945e-06 -2.68489e-06 0)
(9.21105e-08 -3.3228e-06 0)
(2.76645e-07 -3.30792e-06 0)
(4.62109e-07 -3.27851e-06 0)
(6.49065e-07 -3.23539e-06 0)
(8.37899e-07 -3.17969e-06 0)
(1.02885e-06 -3.11272e-06 0)
(1.22212e-06 -3.03603e-06 0)
(1.41738e-06 -2.9513e-06 0)
(1.61484e-06 -2.85997e-06 0)
(1.81333e-06 -2.76408e-06 0)
(8.94348e-08 -3.37378e-06 0)
(2.68631e-07 -3.35963e-06 0)
(4.48787e-07 -3.3317e-06 0)
(6.30483e-07 -3.29071e-06 0)
(8.14144e-07 -3.2377e-06 0)
(1.00003e-06 -3.17393e-06 0)
(1.18834e-06 -3.10084e-06 0)
(1.37887e-06 -3.01998e-06 0)
(1.57173e-06 -2.93272e-06 0)
(1.76597e-06 -2.84091e-06 0)
(8.65614e-08 -3.42438e-06 0)
(2.60027e-07 -3.41093e-06 0)
(4.345e-07 -3.38438e-06 0)
(6.10592e-07 -3.34538e-06 0)
(7.8878e-07 -3.29493e-06 0)
(9.69351e-07 -3.23417e-06 0)
(1.15254e-06 -3.16444e-06 0)
(1.33821e-06 -3.08721e-06 0)
(1.52646e-06 -3.00373e-06 0)
(1.71649e-06 -2.91576e-06 0)
(8.3445e-08 -3.47404e-06 0)
(2.50697e-07 -3.46126e-06 0)
(4.19023e-07 -3.43603e-06 0)
(5.89079e-07 -3.39895e-06 0)
(7.61396e-07 -3.35092e-06 0)
(9.36311e-07 -3.29303e-06 0)
(1.11411e-06 -3.22652e-06 0)
(1.29469e-06 -3.15273e-06 0)
(1.47818e-06 -3.07284e-06 0)
(1.66397e-06 -2.98848e-06 0)
(8.00167e-08 -3.52301e-06 0)
(2.40437e-07 -3.51087e-06 0)
(4.02023e-07 -3.48692e-06 0)
(5.65482e-07 -3.4517e-06 0)
(7.31403e-07 -3.40603e-06 0)
(9.00198e-07 -3.35092e-06 0)
(1.0722e-06 -3.2875e-06 0)
(1.24739e-06 -3.21703e-06 0)
(1.42592e-06 -3.1406e-06 0)
(1.60733e-06 -3.05969e-06 0)
(7.62498e-08 -3.56977e-06 0)
(2.29175e-07 -3.55829e-06 0)
(3.83371e-07 -3.53562e-06 0)
(5.39602e-07 -3.50226e-06 0)
(6.98533e-07 -3.45895e-06 0)
(8.60667e-07 -3.40662e-06 0)
(1.02638e-06 -3.3463e-06 0)
(1.19581e-06 -3.27915e-06 0)
(1.36908e-06 -3.20619e-06 0)
(1.54593e-06 -3.12879e-06 0)
)


// ************************************************************************* //
