/*--------------------------------*- C++ -*----------------------------------*\
| =========                 |                                                 |
| \\      /  F ield         | foam-extend: Open Source CFD                    |
|  \\    /   O peration     | Version:     4.1                                |
|   \\  /    A nd           | Web:         http://www.foam-extend.org         |
|    \\/     M anipulation  |                                                 |
\*---------------------------------------------------------------------------*/
FoamFile
{
    version     2.0;
    format      ascii;
    class       vectorField;
    location    "6";
    object      solidsCellD_iteration16;
}
// * * * * * * * * * * * * * * * * * * * * * * * * * * * * * * * * * * * * * //


1000
(
(3.12521e-06 -1.33249e-06 0)
(2.94731e-06 -1.23934e-06 0)
(2.83339e-06 -1.17997e-06 0)
(2.76769e-06 -1.15196e-06 0)
(2.73526e-06 -1.14186e-06 0)
(2.72708e-06 -1.14559e-06 0)
(2.73678e-06 -1.15835e-06 0)
(2.75985e-06 -1.17782e-06 0)
(2.79306e-06 -1.20183e-06 0)
(2.83415e-06 -1.22893e-06 0)
(2.8255e-06 -1.45551e-06 0)
(2.63611e-06 -1.39046e-06 0)
(2.51498e-06 -1.34884e-06 0)
(2.44396e-06 -1.33288e-06 0)
(2.4074e-06 -1.33076e-06 0)
(2.39554e-06 -1.34013e-06 0)
(2.40171e-06 -1.35689e-06 0)
(2.42116e-06 -1.37935e-06 0)
(2.4505e-06 -1.40581e-06 0)
(2.48687e-06 -1.4345e-06 0)
(2.51421e-06 -1.57212e-06 0)
(2.32077e-06 -1.5385e-06 0)
(2.19713e-06 -1.51676e-06 0)
(2.12383e-06 -1.51412e-06 0)
(2.08507e-06 -1.52073e-06 0)
(2.07069e-06 -1.53612e-06 0)
(2.07401e-06 -1.55707e-06 0)
(2.09022e-06 -1.58252e-06 0)
(2.11589e-06 -1.61134e-06 0)
(2.14826e-06 -1.64166e-06 0)
(2.19361e-06 -1.68024e-06 0)
(2.00424e-06 -1.67956e-06 0)
(1.88323e-06 -1.67871e-06 0)
(1.81089e-06 -1.68999e-06 0)
(1.77193e-06 -1.70566e-06 0)
(1.75625e-06 -1.72723e-06 0)
(1.75737e-06 -1.75239e-06 0)
(1.77066e-06 -1.78083e-06 0)
(1.79287e-06 -1.81191e-06 0)
(1.82119e-06 -1.84397e-06 0)
(1.86596e-06 -1.77774e-06 0)
(1.68864e-06 -1.80972e-06 0)
(1.57541e-06 -1.82958e-06 0)
(1.50735e-06 -1.8546e-06 0)
(1.4702e-06 -1.87918e-06 0)
(1.45439e-06 -1.90682e-06 0)
(1.45399e-06 -1.93608e-06 0)
(1.46469e-06 -1.96744e-06 0)
(1.48353e-06 -2.00067e-06 0)
(1.50774e-06 -2.03453e-06 0)
(1.53279e-06 -1.86265e-06 0)
(1.3754e-06 -1.9252e-06 0)
(1.27495e-06 -1.96445e-06 0)
(1.21427e-06 -2.00232e-06 0)
(1.1808e-06 -2.03522e-06 0)
(1.16603e-06 -2.06849e-06 0)
(1.16478e-06 -2.10154e-06 0)
(1.17315e-06 -2.13559e-06 0)
(1.18862e-06 -2.17081e-06 0)
(1.20857e-06 -2.20644e-06 0)
(1.19575e-06 -1.93303e-06 0)
(1.06525e-06 -2.02236e-06 0)
(9.8197e-07 -2.07863e-06 0)
(9.31491e-07 -2.12776e-06 0)
(9.03479e-07 -2.16794e-06 0)
(8.90815e-07 -2.20613e-06 0)
(8.8925e-07 -2.24248e-06 0)
(8.955e-07 -2.27889e-06 0)
(9.07559e-07 -2.31584e-06 0)
(9.2315e-07 -2.35306e-06 0)
(8.55956e-07 -1.98734e-06 0)
(7.58208e-07 -2.09818e-06 0)
(6.95858e-07 -2.16809e-06 0)
(6.57999e-07 -2.22626e-06 0)
(6.36905e-07 -2.27227e-06 0)
(6.27206e-07 -2.31443e-06 0)
(6.25735e-07 -2.35345e-06 0)
(6.30032e-07 -2.39178e-06 0)
(6.38657e-07 -2.43011e-06 0)
(6.49828e-07 -2.46867e-06 0)
(5.14349e-07 -2.02426e-06 0)
(4.53833e-07 -2.15014e-06 0)
(4.15264e-07 -2.22958e-06 0)
(3.91778e-07 -2.29408e-06 0)
(3.78621e-07 -2.34418e-06 0)
(3.72496e-07 -2.38909e-06 0)
(3.71481e-07 -2.43e-06 0)
(3.74018e-07 -2.4697e-06 0)
(3.79193e-07 -2.50903e-06 0)
(3.85897e-07 -2.54854e-06 0)
(1.7178e-07 -2.04287e-06 0)
(1.51286e-07 -2.17653e-06 0)
(1.38159e-07 -2.26087e-06 0)
(1.30163e-07 -2.32863e-06 0)
(1.25711e-07 -2.38084e-06 0)
(1.2361e-07 -2.4272e-06 0)
(1.23196e-07 -2.46904e-06 0)
(1.2401e-07 -2.50943e-06 0)
(1.25741e-07 -2.54928e-06 0)
(1.27971e-07 -2.58932e-06 0)
(4.8806e-06 -6.07949e-08 0)
(4.92476e-06 -4.37635e-08 0)
(4.95122e-06 -3.29521e-08 0)
(4.97961e-06 -2.6583e-08 0)
(5.01051e-06 -2.30206e-08 0)
(5.04846e-06 -2.13571e-08 0)
(5.09348e-06 -2.10067e-08 0)
(5.14608e-06 -2.14721e-08 0)
(5.20615e-06 -2.25368e-08 0)
(5.27286e-06 -2.38559e-08 0)
(4.84435e-06 -1.82409e-07 0)
(4.88114e-06 -1.32311e-07 0)
(4.90298e-06 -1.00517e-07 0)
(4.92827e-06 -8.18713e-08 0)
(4.95711e-06 -7.15774e-08 0)
(4.9936e-06 -6.67851e-08 0)
(5.03757e-06 -6.57719e-08 0)
(5.08932e-06 -6.72718e-08 0)
(5.14865e-06 -7.05473e-08 0)
(5.2146e-06 -7.44823e-08 0)
(4.772e-06 -3.05033e-07 0)
(4.79472e-06 -2.24625e-07 0)
(4.80764e-06 -1.73651e-07 0)
(4.82703e-06 -1.4374e-07 0)
(4.85197e-06 -1.27273e-07 0)
(4.88571e-06 -1.19798e-07 0)
(4.92762e-06 -1.18395e-07 0)
(4.97776e-06 -1.20992e-07 0)
(5.03568e-06 -1.26452e-07 0)
(5.10013e-06 -1.33036e-07 0)
(4.66484e-06 -4.29224e-07 0)
(4.66752e-06 -3.22824e-07 0)
(4.66773e-06 -2.55446e-07 0)
(4.67872e-06 -2.16086e-07 0)
(4.69809e-06 -1.94507e-07 0)
(4.72792e-06 -1.84897e-07 0)
(4.76695e-06 -1.83378e-07 0)
(4.81476e-06 -1.87216e-07 0)
(4.87068e-06 -1.94827e-07 0)
(4.93304e-06 -2.04053e-07 0)
(4.52451e-06 -5.55307e-07 0)
(4.50245e-06 -4.28683e-07 0)
(4.48695e-06 -3.48523e-07 0)
(4.48752e-06 -3.02017e-07 0)
(4.5e-06 -2.76746e-07 0)
(4.52496e-06 -2.65849e-07 0)
(4.5604e-06 -2.64635e-07 0)
(4.60531e-06 -2.6991e-07 0)
(4.65875e-06 -2.79672e-07 0)
(4.71858e-06 -2.91518e-07 0)
(4.35314e-06 -6.83377e-07 0)
(4.30308e-06 -5.43419e-07 0)
(4.26985e-06 -4.54784e-07 0)
(4.25865e-06 -4.03846e-07 0)
(4.26329e-06 -3.76538e-07 0)
(4.28268e-06 -3.65335e-07 0)
(4.31404e-06 -3.64937e-07 0)
(4.35563e-06 -3.71877e-07 0)
(4.40621e-06 -3.83809e-07 0)
(4.46316e-06 -3.98241e-07 0)
(4.15328e-06 -8.13152e-07 0)
(4.07362e-06 -6.67502e-07 0)
(4.02166e-06 -5.75177e-07 0)
(3.99801e-06 -5.22795e-07 0)
(3.99436e-06 -4.95259e-07 0)
(4.00783e-06 -4.84849e-07 0)
(4.03479e-06 -4.8586e-07 0)
(4.0728e-06 -4.94697e-07 0)
(4.12026e-06 -5.08818e-07 0)
(4.17417e-06 -5.25759e-07 0)
(3.92762e-06 -9.44012e-07 0)
(3.81863e-06 -8.00584e-07 0)
(3.74814e-06 -7.09566e-07 0)
(3.7121e-06 -6.58902e-07 0)
(3.70017e-06 -6.33047e-07 0)
(3.70766e-06 -6.24585e-07 0)
(3.73009e-06 -6.27639e-07 0)
(3.76439e-06 -6.38681e-07 0)
(3.80852e-06 -6.55033e-07 0)
(3.85928e-06 -6.74467e-07 0)
(3.67909e-06 -1.07507e-06 0)
(3.54284e-06 -9.41572e-07 0)
(3.45514e-06 -8.5679e-07 0)
(3.40749e-06 -8.10937e-07 0)
(3.38773e-06 -7.88647e-07 0)
(3.3894e-06 -7.83237e-07 0)
(3.40733e-06 -7.88971e-07 0)
(3.43788e-06 -8.02487e-07 0)
(3.47856e-06 -8.21271e-07 0)
(3.52623e-06 -8.43004e-07 0)
(3.41065e-06 -1.2051e-06 0)
(3.25097e-06 -1.08866e-06 0)
(3.14845e-06 -1.01463e-06 0)
(3.09072e-06 -9.76469e-07 0)
(3.06399e-06 -9.59514e-07 0)
(3.06039e-06 -9.58216e-07 0)
(3.07414e-06 -9.67212e-07 0)
(3.10096e-06 -9.83636e-07 0)
(3.13822e-06 -1.00493e-06 0)
(3.18259e-06 -1.02996e-06 0)
(5.34646e-06 -2.51687e-08 0)
(5.42669e-06 -2.54357e-08 0)
(5.51206e-06 -2.57478e-08 0)
(5.60226e-06 -2.59663e-08 0)
(5.69672e-06 -2.60736e-08 0)
(5.79509e-06 -2.60573e-08 0)
(5.8969e-06 -2.58621e-08 0)
(6.00178e-06 -2.55012e-08 0)
(6.10942e-06 -2.49854e-08 0)
(6.21947e-06 -2.42962e-08 0)
(6.33158e-06 -2.3406e-08 0)
(6.44542e-06 -2.22974e-08 0)
(6.56068e-06 -2.09493e-08 0)
(6.677e-06 -1.93435e-08 0)
(6.79408e-06 -1.74579e-08 0)
(6.91147e-06 -1.526e-08 0)
(7.02894e-06 -1.27025e-08 0)
(7.1457e-06 -9.73112e-09 0)
(7.26189e-06 -6.27342e-09 0)
(7.37564e-06 -2.29989e-09 0)
(5.29078e-06 -7.81127e-08 0)
(5.37568e-06 -7.85402e-08 0)
(5.46522e-06 -7.91678e-08 0)
(5.55905e-06 -7.95766e-08 0)
(5.65675e-06 -7.96389e-08 0)
(5.75795e-06 -7.93636e-08 0)
(5.86233e-06 -7.86542e-08 0)
(5.96955e-06 -7.75081e-08 0)
(6.07931e-06 -7.58765e-08 0)
(6.19128e-06 -7.37032e-08 0)
(6.30515e-06 -7.09401e-08 0)
(6.42063e-06 -6.75556e-08 0)
(6.53744e-06 -6.34872e-08 0)
(6.65522e-06 -5.86614e-08 0)
(6.77369e-06 -5.29902e-08 0)
(6.89239e-06 -4.63748e-08 0)
(7.01113e-06 -3.86803e-08 0)
(7.1291e-06 -2.97586e-08 0)
(7.2465e-06 -1.93848e-08 0)
(7.36142e-06 -7.47194e-09 0)
(5.18135e-06 -1.38212e-07 0)
(5.27542e-06 -1.37771e-07 0)
(5.37312e-06 -1.3777e-07 0)
(5.47401e-06 -1.37652e-07 0)
(5.57803e-06 -1.37105e-07 0)
(5.68484e-06 -1.36136e-07 0)
(5.79428e-06 -1.34531e-07 0)
(5.90603e-06 -1.32262e-07 0)
(6.01991e-06 -1.29233e-07 0)
(6.13564e-06 -1.25371e-07 0)
(6.253e-06 -1.20596e-07 0)
(6.37171e-06 -1.14835e-07 0)
(6.49152e-06 -1.07967e-07 0)
(6.61211e-06 -9.9858e-08 0)
(6.73324e-06 -9.0364e-08 0)
(6.8545e-06 -7.93184e-08 0)
(6.9757e-06 -6.64899e-08 0)
(7.0961e-06 -5.16344e-08 0)
(7.21588e-06 -3.43644e-08 0)
(7.33319e-06 -1.45382e-08 0)
(5.02145e-06 -2.09525e-07 0)
(5.12864e-06 -2.06615e-07 0)
(5.23816e-06 -2.04521e-07 0)
(5.34933e-06 -2.02744e-07 0)
(5.46258e-06 -2.00627e-07 0)
(5.57755e-06 -1.98197e-07 0)
(5.69436e-06 -1.95069e-07 0)
(5.81276e-06 -1.91194e-07 0)
(5.93272e-06 -1.86403e-07 0)
(6.05401e-06 -1.80567e-07 0)
(6.17649e-06 -1.73543e-07 0)
(6.29994e-06 -1.65207e-07 0)
(6.42417e-06 -1.55388e-07 0)
(6.54892e-06 -1.43903e-07 0)
(6.67398e-06 -1.30548e-07 0)
(6.79901e-06 -1.15068e-07 0)
(6.92381e-06 -9.71344e-08 0)
(7.04774e-06 -7.63944e-08 0)
(7.17096e-06 -5.22889e-08 0)
(7.29174e-06 -2.46362e-08 0)
(4.81593e-06 -2.9567e-07 0)
(4.93959e-06 -2.88203e-07 0)
(5.0641e-06 -2.82125e-07 0)
(5.18829e-06 -2.77234e-07 0)
(5.31331e-06 -2.72321e-07 0)
(5.43875e-06 -2.67447e-07 0)
(5.56503e-06 -2.62006e-07 0)
(5.692e-06 -2.55891e-07 0)
(5.81977e-06 -2.48812e-07 0)
(5.9482e-06 -2.40568e-07 0)
(6.07727e-06 -2.30963e-07 0)
(6.20685e-06 -2.19809e-07 0)
(6.33681e-06 -2.06867e-07 0)
(6.46695e-06 -1.91888e-07 0)
(6.59714e-06 -1.74591e-07 0)
(6.72702e-06 -1.54634e-07 0)
(6.85653e-06 -1.31589e-07 0)
(6.985e-06 -1.05e-07 0)
(7.11271e-06 -7.41346e-08 0)
(7.23798e-06 -3.87613e-08 0)
(4.5706e-06 -3.99253e-07 0)
(4.71322e-06 -3.84807e-07 0)
(4.85528e-06 -3.72498e-07 0)
(4.99482e-06 -3.62725e-07 0)
(5.1338e-06 -3.53563e-07 0)
(5.27172e-06 -3.45052e-07 0)
(5.4093e-06 -3.36315e-07 0)
(5.54653e-06 -3.27152e-07 0)
(5.68367e-06 -3.17154e-07 0)
(5.82071e-06 -3.0602e-07 0)
(5.95774e-06 -2.93469e-07 0)
(6.09471e-06 -2.79227e-07 0)
(6.23156e-06 -2.62971e-07 0)
(6.36817e-06 -2.44373e-07 0)
(6.50448e-06 -2.23064e-07 0)
(6.64021e-06 -1.98619e-07 0)
(6.77535e-06 -1.70495e-07 0)
(6.90928e-06 -1.38137e-07 0)
(7.04239e-06 -1.00648e-07 0)
(7.17306e-06 -5.76979e-08 0)
(4.29235e-06 -5.21842e-07 0)
(4.45556e-06 -4.97979e-07 0)
(4.61697e-06 -4.77217e-07 0)
(4.77357e-06 -4.60665e-07 0)
(4.92814e-06 -4.45706e-07 0)
(5.08011e-06 -4.32233e-07 0)
(5.23048e-06 -4.19163e-07 0)
(5.37938e-06 -4.0609e-07 0)
(5.5272e-06 -3.9248e-07 0)
(5.6741e-06 -3.77902e-07 0)
(5.82024e-06 -3.61962e-07 0)
(5.96566e-06 -3.4428e-07 0)
(6.11042e-06 -3.24443e-07 0)
(6.25447e-06 -3.02045e-07 0)
(6.39782e-06 -2.76618e-07 0)
(6.54027e-06 -2.47648e-07 0)
(6.68188e-06 -2.1447e-07 0)
(6.8221e-06 -1.76423e-07 0)
(6.96136e-06 -1.32458e-07 0)
(7.0982e-06 -8.21337e-08 0)
(3.98807e-06 -6.63817e-07 0)
(4.17249e-06 -6.27806e-07 0)
(4.35422e-06 -5.9633e-07 0)
(4.52909e-06 -5.7088e-07 0)
(4.70049e-06 -5.48516e-07 0)
(4.86777e-06 -5.28667e-07 0)
(5.0322e-06 -5.10161e-07 0)
(5.19395e-06 -4.9229e-07 0)
(5.35359e-06 -4.74368e-07 0)
(5.51137e-06 -4.55805e-07 0)
(5.66758e-06 -4.3607e-07 0)
(5.82237e-06 -4.14658e-07 0)
(5.97588e-06 -3.91053e-07 0)
(6.12818e-06 -3.6475e-07 0)
(6.27934e-06 -3.35178e-07 0)
(6.42924e-06 -3.01717e-07 0)
(6.57798e-06 -2.63587e-07 0)
(6.72515e-06 -2.20009e-07 0)
(6.87121e-06 -1.69784e-07 0)
(7.01489e-06 -1.12363e-07 0)
(3.66524e-06 -8.24878e-07 0)
(3.87086e-06 -7.74529e-07 0)
(4.07289e-06 -7.30953e-07 0)
(4.26662e-06 -6.94799e-07 0)
(4.45534e-06 -6.63581e-07 0)
(4.63871e-06 -6.36038e-07 0)
(4.8179e-06 -6.10956e-07 0)
(4.99331e-06 -5.87308e-07 0)
(5.16555e-06 -5.64252e-07 0)
(5.33501e-06 -5.41018e-07 0)
(5.50205e-06 -5.16928e-07 0)
(5.66696e-06 -4.91347e-07 0)
(5.82995e-06 -4.63646e-07 0)
(5.99118e-06 -4.33208e-07 0)
(6.15078e-06 -3.99347e-07 0)
(6.30874e-06 -3.61327e-07 0)
(6.4652e-06 -3.18264e-07 0)
(6.61989e-06 -2.69253e-07 0)
(6.7733e-06 -2.12976e-07 0)
(6.92439e-06 -1.48778e-07 0)
(3.33e-06 -1.00215e-06 0)
(3.55693e-06 -9.33974e-07 0)
(3.77838e-06 -8.76747e-07 0)
(3.99144e-06 -8.28195e-07 0)
(4.19782e-06 -7.8673e-07 0)
(4.39792e-06 -7.50404e-07 0)
(4.5925e-06 -7.17846e-07 0)
(4.78221e-06 -6.87758e-07 0)
(4.96766e-06 -6.59077e-07 0)
(5.14936e-06 -6.30834e-07 0)
(5.32778e-06 -6.02174e-07 0)
(5.50328e-06 -5.72311e-07 0)
(5.67619e-06 -5.40482e-07 0)
(5.84675e-06 -5.05947e-07 0)
(6.01516e-06 -4.67902e-07 0)
(6.18151e-06 -4.25496e-07 0)
(6.34603e-06 -3.77746e-07 0)
(6.50855e-06 -3.23611e-07 0)
(6.66966e-06 -2.61668e-07 0)
(6.82855e-06 -1.91122e-07 0)
(3.08204e-06 -1.17172e-06 0)
(3.3227e-06 -1.08924e-06 0)
(3.55549e-06 -1.02187e-06 0)
(3.78032e-06 -9.63455e-07 0)
(3.99779e-06 -9.12981e-07 0)
(4.2085e-06 -8.68447e-07 0)
(4.4131e-06 -8.28407e-07 0)
(4.61223e-06 -7.91527e-07 0)
(4.80648e-06 -7.56651e-07 0)
(4.99637e-06 -7.2272e-07 0)
(5.18238e-06 -6.88793e-07 0)
(5.36493e-06 -6.53997e-07 0)
(5.54437e-06 -6.17484e-07 0)
(5.72099e-06 -5.78435e-07 0)
(5.89506e-06 -5.35973e-07 0)
(6.06674e-06 -4.89174e-07 0)
(6.23633e-06 -4.37031e-07 0)
(6.4038e-06 -3.78423e-07 0)
(6.56976e-06 -3.11908e-07 0)
(6.73365e-06 -2.36638e-07 0)
(2.93996e-06 -1.30901e-06 0)
(3.18236e-06 -1.22345e-06 0)
(3.41707e-06 -1.15051e-06 0)
(3.64489e-06 -1.08615e-06 0)
(3.86581e-06 -1.02941e-06 0)
(4.08024e-06 -9.78652e-07 0)
(4.28865e-06 -9.32526e-07 0)
(4.49152e-06 -8.89789e-07 0)
(4.68935e-06 -8.49307e-07 0)
(4.8826e-06 -8.1004e-07 0)
(5.07172e-06 -7.71051e-07 0)
(5.25709e-06 -7.31453e-07 0)
(5.43909e-06 -6.90378e-07 0)
(5.61801e-06 -6.46991e-07 0)
(5.79413e-06 -6.00408e-07 0)
(5.96769e-06 -5.49693e-07 0)
(6.13899e-06 -4.93876e-07 0)
(6.30816e-06 -4.31849e-07 0)
(6.47578e-06 -3.62222e-07 0)
(6.64153e-06 -2.84194e-07 0)
(2.81812e-06 -1.441e-06 0)
(3.05825e-06 -1.35341e-06 0)
(3.29263e-06 -1.27678e-06 0)
(3.52098e-06 -1.20787e-06 0)
(3.74325e-06 -1.14598e-06 0)
(3.9595e-06 -1.0898e-06 0)
(4.17008e-06 -1.03816e-06 0)
(4.37526e-06 -9.89951e-07 0)
(4.57545e-06 -9.44119e-07 0)
(4.77103e-06 -8.99688e-07 0)
(4.96239e-06 -8.55749e-07 0)
(5.14988e-06 -8.11424e-07 0)
(5.33384e-06 -7.65851e-07 0)
(5.51458e-06 -7.18202e-07 0)
(5.69238e-06 -6.67604e-07 0)
(5.86754e-06 -6.13135e-07 0)
(6.04036e-06 -5.53863e-07 0)
(6.21105e-06 -4.88732e-07 0)
(6.3802e-06 -4.16423e-07 0)
(6.54771e-06 -3.36216e-07 0)
(2.71047e-06 -1.56839e-06 0)
(2.94725e-06 -1.47978e-06 0)
(3.17965e-06 -1.40037e-06 0)
(3.40693e-06 -1.3277e-06 0)
(3.62895e-06 -1.26136e-06 0)
(3.8456e-06 -1.20035e-06 0)
(4.05701e-06 -1.1437e-06 0)
(4.26335e-06 -1.09043e-06 0)
(4.4649e-06 -1.03959e-06 0)
(4.66195e-06 -9.90273e-07 0)
(4.85481e-06 -9.41622e-07 0)
(5.04381e-06 -8.92784e-07 0)
(5.22923e-06 -8.42916e-07 0)
(5.41139e-06 -7.91221e-07 0)
(5.59056e-06 -7.36843e-07 0)
(5.76705e-06 -6.78901e-07 0)
(5.94119e-06 -6.16505e-07 0)
(6.11326e-06 -5.48667e-07 0)
(6.2838e-06 -4.7417e-07 0)
(6.45296e-06 -3.92385e-07 0)
(2.61555e-06 -1.69037e-06 0)
(2.84795e-06 -1.6015e-06 0)
(3.07722e-06 -1.52027e-06 0)
(3.30218e-06 -1.44477e-06 0)
(3.52276e-06 -1.37485e-06 0)
(3.73862e-06 -1.30976e-06 0)
(3.94978e-06 -1.24871e-06 0)
(4.15628e-06 -1.19089e-06 0)
(4.3583e-06 -1.13546e-06 0)
(4.55604e-06 -1.08161e-06 0)
(4.74974e-06 -1.02853e-06 0)
(4.93966e-06 -9.7543e-07 0)
(5.12607e-06 -9.21498e-07 0)
(5.30924e-06 -8.65985e-07 0)
(5.48945e-06 -8.08064e-07 0)
(5.66702e-06 -7.46916e-07 0)
(5.84228e-06 -6.81694e-07 0)
(6.01556e-06 -6.11494e-07 0)
(6.18736e-06 -5.35232e-07 0)
(6.35803e-06 -4.52372e-07 0)
(2.53111e-06 -1.80714e-06 0)
(2.75864e-06 -1.71856e-06 0)
(2.98404e-06 -1.63619e-06 0)
(3.20586e-06 -1.55857e-06 0)
(3.4241e-06 -1.48576e-06 0)
(3.63826e-06 -1.41723e-06 0)
(3.84829e-06 -1.35237e-06 0)
(4.05413e-06 -1.29051e-06 0)
(4.25587e-06 -1.23095e-06 0)
(4.45362e-06 -1.17295e-06 0)
(4.64756e-06 -1.1158e-06 0)
(4.83789e-06 -1.05875e-06 0)
(5.02483e-06 -1.00106e-06 0)
(5.20866e-06 -9.42017e-07 0)
(5.38961e-06 -8.8084e-07 0)
(5.56801e-06 -8.16792e-07 0)
(5.74417e-06 -7.49074e-07 0)
(5.91847e-06 -6.76875e-07 0)
(6.09141e-06 -5.99256e-07 0)
(6.26341e-06 -5.15756e-07 0)
(2.45547e-06 -1.9188e-06 0)
(2.67786e-06 -1.83092e-06 0)
(2.89888e-06 -1.74795e-06 0)
(3.11701e-06 -1.66884e-06 0)
(3.33227e-06 -1.59377e-06 0)
(3.54405e-06 -1.5224e-06 0)
(3.75228e-06 -1.4543e-06 0)
(3.95681e-06 -1.38893e-06 0)
(4.15764e-06 -1.3257e-06 0)
(4.35483e-06 -1.26397e-06 0)
(4.5485e-06 -1.20313e-06 0)
(4.73878e-06 -1.14248e-06 0)
(4.92588e-06 -1.08134e-06 0)
(5.11001e-06 -1.01908e-06 0)
(5.29143e-06 -9.54947e-07 0)
(5.47042e-06 -8.88301e-07 0)
(5.6473e-06 -8.18401e-07 0)
(5.82245e-06 -7.4454e-07 0)
(5.99637e-06 -6.65913e-07 0)
(6.16951e-06 -5.82131e-07 0)
(2.38704e-06 -2.02563e-06 0)
(2.6042e-06 -1.93871e-06 0)
(2.82058e-06 -1.85555e-06 0)
(3.03468e-06 -1.77542e-06 0)
(3.2465e-06 -1.69862e-06 0)
(3.45542e-06 -1.62494e-06 0)
(3.66134e-06 -1.55411e-06 0)
(3.86404e-06 -1.48573e-06 0)
(4.06348e-06 -1.41928e-06 0)
(4.25964e-06 -1.35427e-06 0)
(4.4526e-06 -1.29012e-06 0)
(4.64246e-06 -1.22624e-06 0)
(4.82938e-06 -1.16199e-06 0)
(5.01355e-06 -1.09684e-06 0)
(5.19518e-06 -1.03008e-06 0)
(5.37456e-06 -9.61144e-07 0)
(5.55198e-06 -8.89379e-07 0)
(5.72783e-06 -8.1417e-07 0)
(5.90257e-06 -7.3484e-07 0)
(6.07668e-06 -6.51077e-07 0)
(2.32441e-06 -2.12793e-06 0)
(2.53636e-06 -2.04212e-06 0)
(2.74799e-06 -1.95907e-06 0)
(2.95784e-06 -1.8783e-06 0)
(3.16595e-06 -1.8002e-06 0)
(3.3717e-06 -1.72469e-06 0)
(3.57495e-06 -1.65161e-06 0)
(3.77545e-06 -1.58067e-06 0)
(3.97311e-06 -1.51147e-06 0)
(4.1679e-06 -1.44357e-06 0)
(4.35983e-06 -1.37653e-06 0)
(4.54897e-06 -1.30978e-06 0)
(4.73545e-06 -1.24279e-06 0)
(4.91941e-06 -1.17508e-06 0)
(5.10106e-06 -1.10601e-06 0)
(5.28065e-06 -1.03509e-06 0)
(5.45846e-06 -9.61755e-07 0)
(5.63489e-06 -8.85476e-07 0)
(5.81027e-06 -8.05701e-07 0)
(5.98522e-06 -7.22205e-07 0)
(2.26634e-06 -2.22605e-06 0)
(2.47316e-06 -2.14142e-06 0)
(2.68004e-06 -2.05868e-06 0)
(2.88558e-06 -1.97756e-06 0)
(3.08985e-06 -1.89852e-06 0)
(3.29223e-06 -1.82157e-06 0)
(3.49258e-06 -1.74667e-06 0)
(3.69063e-06 -1.6736e-06 0)
(3.88626e-06 -1.60205e-06 0)
(4.07942e-06 -1.53169e-06 0)
(4.27007e-06 -1.46213e-06 0)
(4.45827e-06 -1.39289e-06 0)
(4.64409e-06 -1.32351e-06 0)
(4.82766e-06 -1.25357e-06 0)
(5.00916e-06 -1.1825e-06 0)
(5.18882e-06 -1.1099e-06 0)
(5.36688e-06 -1.03527e-06 0)
(5.54371e-06 -9.58166e-07 0)
(5.71962e-06 -8.78169e-07 0)
(5.89525e-06 -7.95135e-07 0)
(2.21171e-06 -2.32032e-06 0)
(2.41357e-06 -2.23689e-06 0)
(2.61576e-06 -2.15459e-06 0)
(2.81702e-06 -2.07335e-06 0)
(3.0174e-06 -1.99366e-06 0)
(3.21634e-06 -1.91561e-06 0)
(3.41366e-06 -1.83925e-06 0)
(3.60911e-06 -1.76442e-06 0)
(3.80255e-06 -1.69092e-06 0)
(3.99389e-06 -1.61848e-06 0)
(4.1831e-06 -1.54678e-06 0)
(4.37018e-06 -1.47541e-06 0)
(4.5552e-06 -1.40399e-06 0)
(4.73824e-06 -1.33214e-06 0)
(4.91945e-06 -1.25937e-06 0)
(5.09904e-06 -1.18536e-06 0)
(5.27723e-06 -1.10968e-06 0)
(5.45433e-06 -1.03197e-06 0)
(5.63067e-06 -9.51938e-07 0)
(5.80681e-06 -8.69497e-07 0)
(2.15952e-06 -2.41108e-06 0)
(2.35661e-06 -2.3288e-06 0)
(2.55425e-06 -2.24702e-06 0)
(2.75132e-06 -2.16583e-06 0)
(2.94786e-06 -2.08573e-06 0)
(3.14333e-06 -2.00687e-06 0)
(3.33758e-06 -1.92936e-06 0)
(3.53037e-06 -1.85313e-06 0)
(3.72153e-06 -1.77802e-06 0)
(3.91097e-06 -1.70386e-06 0)
(4.09864e-06 -1.63038e-06 0)
(4.28451e-06 -1.55722e-06 0)
(4.46862e-06 -1.48407e-06 0)
(4.65104e-06 -1.41062e-06 0)
(4.83187e-06 -1.33644e-06 0)
(5.01131e-06 -1.26127e-06 0)
(5.18952e-06 -1.18476e-06 0)
(5.3668e-06 -1.10664e-06 0)
(5.54347e-06 -1.02672e-06 0)
(5.71998e-06 -9.44939e-07 0)
(2.1089e-06 -2.49863e-06 0)
(2.30142e-06 -2.41744e-06 0)
(2.49469e-06 -2.33623e-06 0)
(2.68769e-06 -2.25521e-06 0)
(2.88047e-06 -2.17488e-06 0)
(3.07254e-06 -2.09544e-06 0)
(3.26376e-06 -2.01707e-06 0)
(3.45389e-06 -1.93974e-06 0)
(3.64277e-06 -1.86337e-06 0)
(3.83031e-06 -1.78781e-06 0)
(4.0164e-06 -1.71287e-06 0)
(4.20102e-06 -1.63825e-06 0)
(4.38417e-06 -1.56368e-06 0)
(4.56591e-06 -1.48892e-06 0)
(4.7463e-06 -1.41359e-06 0)
(4.9255e-06 -1.33749e-06 0)
(5.10365e-06 -1.26035e-06 0)
(5.28105e-06 -1.18198e-06 0)
(5.4579e-06 -1.10226e-06 0)
(5.63471e-06 -1.02119e-06 0)
(2.05901e-06 -2.58322e-06 0)
(2.24718e-06 -2.50307e-06 0)
(2.43624e-06 -2.42245e-06 0)
(2.62534e-06 -2.34167e-06 0)
(2.81451e-06 -2.26127e-06 0)
(3.00331e-06 -2.18146e-06 0)
(3.19161e-06 -2.10249e-06 0)
(3.37917e-06 -2.02435e-06 0)
(3.56584e-06 -1.947e-06 0)
(3.75148e-06 -1.87035e-06 0)
(3.93602e-06 -1.79426e-06 0)
(4.11938e-06 -1.71846e-06 0)
(4.30157e-06 -1.64275e-06 0)
(4.4826e-06 -1.56694e-06 0)
(4.66251e-06 -1.49069e-06 0)
(4.84144e-06 -1.41386e-06 0)
(5.01948e-06 -1.33627e-06 0)
(5.19692e-06 -1.25776e-06 0)
(5.37388e-06 -1.17831e-06 0)
(5.55087e-06 -1.09799e-06 0)
(2.009e-06 -2.66513e-06 0)
(2.19302e-06 -2.58593e-06 0)
(2.3781e-06 -2.50591e-06 0)
(2.5635e-06 -2.42547e-06 0)
(2.74926e-06 -2.34512e-06 0)
(2.93498e-06 -2.26514e-06 0)
(3.12053e-06 -2.18577e-06 0)
(3.30565e-06 -2.10706e-06 0)
(3.49022e-06 -2.029e-06 0)
(3.67408e-06 -1.95153e-06 0)
(3.85714e-06 -1.87456e-06 0)
(4.03932e-06 -1.79786e-06 0)
(4.22059e-06 -1.72127e-06 0)
(4.40093e-06 -1.64464e-06 0)
(4.58037e-06 -1.56767e-06 0)
(4.75901e-06 -1.4903e-06 0)
(4.93693e-06 -1.41238e-06 0)
(5.11434e-06 -1.33384e-06 0)
(5.29138e-06 -1.25471e-06 0)
(5.46846e-06 -1.1751e-06 0)
(1.95805e-06 -2.74455e-06 0)
(2.13814e-06 -2.66633e-06 0)
(2.31943e-06 -2.58684e-06 0)
(2.50142e-06 -2.50679e-06 0)
(2.68404e-06 -2.42664e-06 0)
(2.86692e-06 -2.34665e-06 0)
(3.04993e-06 -2.26708e-06 0)
(3.23284e-06 -2.18803e-06 0)
(3.41548e-06 -2.10949e-06 0)
(3.5977e-06 -2.03145e-06 0)
(3.77941e-06 -1.95385e-06 0)
(3.96049e-06 -1.8765e-06 0)
(4.1409e-06 -1.79925e-06 0)
(4.32061e-06 -1.72199e-06 0)
(4.4996e-06 -1.64449e-06 0)
(4.67797e-06 -1.56671e-06 0)
(4.85576e-06 -1.48859e-06 0)
(5.03311e-06 -1.41007e-06 0)
(5.21019e-06 -1.33128e-06 0)
(5.3873e-06 -1.25234e-06 0)
(1.90532e-06 -2.82182e-06 0)
(2.08159e-06 -2.74429e-06 0)
(2.25931e-06 -2.6655e-06 0)
(2.43832e-06 -2.58599e-06 0)
(2.61807e-06 -2.50613e-06 0)
(2.79845e-06 -2.42627e-06 0)
(2.97921e-06 -2.34668e-06 0)
(3.16015e-06 -2.26746e-06 0)
(3.34111e-06 -2.18864e-06 0)
(3.52192e-06 -2.11025e-06 0)
(3.70244e-06 -2.03224e-06 0)
(3.88258e-06 -1.95443e-06 0)
(4.06225e-06 -1.87671e-06 0)
(4.2414e-06 -1.79901e-06 0)
(4.42001e-06 -1.72113e-06 0)
(4.59816e-06 -1.64308e-06 0)
(4.77582e-06 -1.5648e-06 0)
(4.95315e-06 -1.48634e-06 0)
(5.13018e-06 -1.40787e-06 0)
(5.3073e-06 -1.32955e-06 0)
(1.84958e-06 -2.89686e-06 0)
(2.02261e-06 -2.82012e-06 0)
(2.1974e-06 -2.74218e-06 0)
(2.37352e-06 -2.66324e-06 0)
(2.55082e-06 -2.58379e-06 0)
(2.729e-06 -2.5042e-06 0)
(2.90787e-06 -2.42473e-06 0)
(3.08718e-06 -2.34554e-06 0)
(3.26675e-06 -2.26665e-06 0)
(3.44639e-06 -2.18809e-06 0)
(3.62597e-06 -2.10985e-06 0)
(3.80532e-06 -2.03176e-06 0)
(3.98439e-06 -1.95374e-06 0)
(4.16311e-06 -1.87574e-06 0)
(4.34144e-06 -1.79762e-06 0)
(4.5194e-06 -1.71937e-06 0)
(4.69695e-06 -1.64099e-06 0)
(4.87429e-06 -1.56257e-06 0)
(5.05134e-06 -1.48439e-06 0)
(5.22838e-06 -1.40662e-06 0)
(1.79007e-06 -2.97045e-06 0)
(1.96012e-06 -2.89464e-06 0)
(2.13226e-06 -2.81737e-06 0)
(2.30606e-06 -2.73905e-06 0)
(2.48135e-06 -2.6601e-06 0)
(2.65783e-06 -2.58088e-06 0)
(2.83525e-06 -2.50168e-06 0)
(3.01337e-06 -2.42264e-06 0)
(3.19194e-06 -2.34381e-06 0)
(3.37075e-06 -2.26522e-06 0)
(3.54963e-06 -2.18687e-06 0)
(3.72845e-06 -2.10864e-06 0)
(3.90711e-06 -2.03046e-06 0)
(4.0855e-06 -1.95229e-06 0)
(4.26362e-06 -1.87397e-06 0)
(4.44146e-06 -1.79556e-06 0)
(4.61902e-06 -1.71714e-06 0)
(4.79635e-06 -1.63874e-06 0)
(4.97346e-06 -1.56072e-06 0)
(5.15049e-06 -1.4834e-06 0)
(1.72605e-06 -3.04203e-06 0)
(1.89352e-06 -2.96726e-06 0)
(2.06346e-06 -2.89094e-06 0)
(2.23548e-06 -2.81341e-06 0)
(2.40932e-06 -2.73513e-06 0)
(2.58465e-06 -2.65645e-06 0)
(2.76117e-06 -2.57767e-06 0)
(2.93856e-06 -2.49893e-06 0)
(3.11656e-06 -2.42027e-06 0)
(3.29492e-06 -2.34176e-06 0)
(3.47344e-06 -2.26345e-06 0)
(3.65194e-06 -2.18519e-06 0)
(3.83034e-06 -2.1069e-06 0)
(4.00855e-06 -2.02863e-06 0)
(4.18652e-06 -1.95024e-06 0)
(4.36429e-06 -1.87173e-06 0)
(4.5419e-06 -1.79323e-06 0)
(4.71931e-06 -1.71481e-06 0)
(4.8966e-06 -1.63684e-06 0)
(5.07374e-06 -1.55978e-06 0)
(1.27473e-07 -2.63034e-06 0)
(3.8419e-07 -2.59149e-06 0)
(6.46198e-07 -2.51533e-06 0)
(9.16517e-07 -2.40492e-06 0)
(1.19756e-06 -2.26454e-06 0)
(1.49085e-06 -2.0994e-06 0)
(1.79695e-06 -1.9156e-06 0)
(2.11531e-06 -1.71941e-06 0)
(2.44481e-06 -1.51724e-06 0)
(2.78289e-06 -1.31418e-06 0)
(1.23845e-07 -2.67294e-06 0)
(3.73043e-07 -2.63743e-06 0)
(6.26643e-07 -2.56777e-06 0)
(8.87203e-07 -2.46657e-06 0)
(1.15677e-06 -2.33746e-06 0)
(1.43664e-06 -2.18487e-06 0)
(1.72737e-06 -2.01397e-06 0)
(2.0283e-06 -1.83023e-06 0)
(2.33812e-06 -1.63942e-06 0)
(2.6546e-06 -1.44593e-06 0)
(1.20642e-07 -2.71653e-06 0)
(3.6318e-07 -2.68405e-06 0)
(6.09319e-07 -2.62028e-06 0)
(8.61104e-07 -2.52748e-06 0)
(1.12028e-06 -2.40881e-06 0)
(1.3879e-06 -2.2681e-06 0)
(1.66455e-06 -2.10979e-06 0)
(1.94995e-06 -1.93848e-06 0)
(2.24317e-06 -1.75913e-06 0)
(2.54268e-06 -1.57474e-06 0)
(1.17808e-07 -2.76121e-06 0)
(3.54443e-07 -2.73131e-06 0)
(5.94113e-07 -2.67257e-06 0)
(8.38432e-07 -2.58697e-06 0)
(1.08889e-06 -2.47728e-06 0)
(1.34631e-06 -2.34688e-06 0)
(1.61115e-06 -2.19965e-06 0)
(1.88313e-06 -2.03969e-06 0)
(2.16147e-06 -1.87159e-06 0)
(2.44488e-06 -1.69774e-06 0)
(1.15207e-07 -2.80696e-06 0)
(3.46419e-07 -2.77937e-06 0)
(5.80169e-07 -2.72515e-06 0)
(8.17745e-07 -2.64603e-06 0)
(1.0604e-06 -2.54448e-06 0)
(1.30881e-06 -2.42351e-06 0)
(1.56338e-06 -2.28656e-06 0)
(1.82388e-06 -2.13712e-06 0)
(2.08975e-06 -1.97935e-06 0)
(2.35938e-06 -1.81543e-06 0)
(1.12776e-07 -2.85373e-06 0)
(3.39006e-07 -2.82814e-06 0)
(5.6735e-07 -2.77783e-06 0)
(7.98896e-07 -2.70438e-06 0)
(1.03467e-06 -2.60997e-06 0)
(1.27522e-06 -2.49735e-06 0)
(1.52083e-06 -2.36962e-06 0)
(1.77124e-06 -2.22986e-06 0)
(2.02619e-06 -2.08185e-06 0)
(2.2838e-06 -1.92773e-06 0)
(1.10454e-07 -2.90145e-06 0)
(3.31958e-07 -2.87765e-06 0)
(5.55235e-07 -2.83084e-06 0)
(7.81221e-07 -2.76246e-06 0)
(1.01074e-06 -2.67448e-06 0)
(1.24426e-06 -2.56937e-06 0)
(1.48202e-06 -2.44999e-06 0)
(1.72367e-06 -2.31904e-06 0)
(1.96918e-06 -2.17992e-06 0)
(2.21645e-06 -2.03493e-06 0)
(1.08239e-07 -2.95003e-06 0)
(3.25195e-07 -2.92781e-06 0)
(5.43676e-07 -2.88409e-06 0)
(7.64479e-07 -2.82021e-06 0)
(9.88269e-07 -2.73794e-06 0)
(1.21544e-06 -2.63956e-06 0)
(1.44619e-06 -2.52768e-06 0)
(1.6801e-06 -2.40479e-06 0)
(1.91733e-06 -2.27388e-06 0)
(2.15568e-06 -2.13738e-06 0)
(1.06068e-07 -2.99938e-06 0)
(3.18583e-07 -2.97858e-06 0)
(5.32445e-07 -2.93762e-06 0)
(7.4831e-07 -2.87778e-06 0)
(9.66763e-07 -2.80065e-06 0)
(1.18811e-06 -2.70832e-06 0)
(1.41253e-06 -2.60321e-06 0)
(1.63956e-06 -2.48763e-06 0)
(1.86949e-06 -2.36421e-06 0)
(2.10009e-06 -2.23548e-06 0)
(1.03894e-07 -3.04939e-06 0)
(3.12043e-07 -3.02987e-06 0)
(5.21391e-07 -2.99139e-06 0)
(7.32499e-07 -2.93515e-06 0)
(9.45883e-07 -2.86264e-06 0)
(1.16182e-06 -2.77576e-06 0)
(1.38043e-06 -2.67677e-06 0)
(1.60127e-06 -2.56782e-06 0)
(1.82466e-06 -2.45126e-06 0)
(2.04848e-06 -2.32962e-06 0)
(1.01704e-07 -3.09995e-06 0)
(3.05499e-07 -3.08159e-06 0)
(5.1035e-07 -3.04534e-06 0)
(7.16809e-07 -2.99235e-06 0)
(9.25304e-07 -2.92401e-06 0)
(1.13611e-06 -2.84207e-06 0)
(1.34932e-06 -2.7486e-06 0)
(1.5645e-06 -2.64568e-06 0)
(1.78198e-06 -2.53536e-06 0)
(1.99978e-06 -2.42017e-06 0)
(9.94944e-08 -3.15093e-06 0)
(2.98875e-07 -3.13364e-06 0)
(4.9919e-07 -3.09941e-06 0)
(7.01034e-07 -3.04935e-06 0)
(9.04751e-07 -2.98479e-06 0)
(1.11061e-06 -2.90732e-06 0)
(1.31872e-06 -2.81887e-06 0)
(1.52865e-06 -2.72142e-06 0)
(1.7407e-06 -2.6168e-06 0)
(1.9531e-06 -2.50747e-06 0)
(9.7235e-08 -3.20223e-06 0)
(2.92065e-07 -3.18589e-06 0)
(4.87761e-07 -3.1535e-06 0)
(6.84947e-07 -3.10612e-06 0)
(8.83924e-07 -3.04499e-06 0)
(1.08494e-06 -2.97159e-06 0)
(1.28815e-06 -2.88772e-06 0)
(1.49311e-06 -2.79523e-06 0)
(1.70012e-06 -2.69582e-06 0)
(1.90761e-06 -2.59182e-06 0)
(9.488e-08 -3.25366e-06 0)
(2.8497e-07 -3.23818e-06 0)
(4.75911e-07 -3.20749e-06 0)
(6.68329e-07 -3.16255e-06 0)
(8.62524e-07 -3.10456e-06 0)
(1.05874e-06 -3.03489e-06 0)
(1.25713e-06 -2.95521e-06 0)
(1.45733e-06 -2.86727e-06 0)
(1.65958e-06 -2.77263e-06 0)
(1.86252e-06 -2.67348e-06 0)
(9.23914e-08 -3.30509e-06 0)
(2.77501e-07 -3.29038e-06 0)
(4.63485e-07 -3.26127e-06 0)
(6.50957e-07 -3.2186e-06 0)
(8.40251e-07 -3.1635e-06 0)
(1.0316e-06 -3.09727e-06 0)
(1.2252e-06 -3.02144e-06 0)
(1.42073e-06 -2.93768e-06 0)
(1.61839e-06 -2.84742e-06 0)
(1.81701e-06 -2.75271e-06 0)
(8.97437e-08 -3.35623e-06 0)
(2.69577e-07 -3.34224e-06 0)
(4.50329e-07 -3.31461e-06 0)
(6.32604e-07 -3.27405e-06 0)
(8.16791e-07 -3.22164e-06 0)
(1.00314e-06 -3.1586e-06 0)
(1.19186e-06 -3.08636e-06 0)
(1.38274e-06 -3.00647e-06 0)
(1.57586e-06 -2.92026e-06 0)
(1.77031e-06 -2.82961e-06 0)
(8.69064e-08 -3.407e-06 0)
(2.61085e-07 -3.3937e-06 0)
(4.36235e-07 -3.36746e-06 0)
(6.12978e-07 -3.32889e-06 0)
(7.91768e-07 -3.27902e-06 0)
(9.72882e-07 -3.21897e-06 0)
(1.15656e-06 -3.1501e-06 0)
(1.34265e-06 -3.07383e-06 0)
(1.53125e-06 -2.9914e-06 0)
(1.72155e-06 -2.90456e-06 0)
(8.38368e-08 -3.45688e-06 0)
(2.51889e-07 -3.44424e-06 0)
(4.20983e-07 -3.41931e-06 0)
(5.9177e-07 -3.38265e-06 0)
(7.64773e-07 -3.3352e-06 0)
(9.40323e-07 -3.27801e-06 0)
(1.11869e-06 -3.21234e-06 0)
(1.29978e-06 -3.1395e-06 0)
(1.48371e-06 -3.06065e-06 0)
(1.66985e-06 -2.97742e-06 0)
(8.04649e-08 -3.50609e-06 0)
(2.41785e-07 -3.49409e-06 0)
(4.0424e-07 -3.47043e-06 0)
(5.68534e-07 -3.43562e-06 0)
(7.35244e-07 -3.39052e-06 0)
(9.04776e-07 -3.33611e-06 0)
(1.07744e-06 -3.27351e-06 0)
(1.25324e-06 -3.20398e-06 0)
(1.43228e-06 -3.12858e-06 0)
(1.61412e-06 -3.0488e-06 0)
(7.67601e-08 -3.55317e-06 0)
(2.30699e-07 -3.54181e-06 0)
(3.85876e-07 -3.51942e-06 0)
(5.43054e-07 -3.48646e-06 0)
(7.02895e-07 -3.44371e-06 0)
(8.65886e-07 -3.39206e-06 0)
(1.03238e-06 -3.33255e-06 0)
(1.20254e-06 -3.26632e-06 0)
(1.37641e-06 -3.19438e-06 0)
(1.55379e-06 -3.11808e-06 0)
)


// ************************************************************************* //
