/*--------------------------------*- C++ -*----------------------------------*\
| =========                 |                                                 |
| \\      /  F ield         | foam-extend: Open Source CFD                    |
|  \\    /   O peration     | Version:     4.1                                |
|   \\  /    A nd           | Web:         http://www.foam-extend.org         |
|    \\/     M anipulation  |                                                 |
\*---------------------------------------------------------------------------*/
FoamFile
{
    version     2.0;
    format      ascii;
    class       vectorField;
    location    "6";
    object      solidsCellD_iteration18;
}
// * * * * * * * * * * * * * * * * * * * * * * * * * * * * * * * * * * * * * //


1000
(
(3.13358e-06 -1.34172e-06 0)
(2.95457e-06 -1.24756e-06 0)
(2.83979e-06 -1.18739e-06 0)
(2.77346e-06 -1.15881e-06 0)
(2.74058e-06 -1.14826e-06 0)
(2.73202e-06 -1.15163e-06 0)
(2.74142e-06 -1.16408e-06 0)
(2.76427e-06 -1.18326e-06 0)
(2.79725e-06 -1.20704e-06 0)
(2.83831e-06 -1.23391e-06 0)
(2.83297e-06 -1.46555e-06 0)
(2.6424e-06 -1.39966e-06 0)
(2.52037e-06 -1.35733e-06 0)
(2.44871e-06 -1.34085e-06 0)
(2.41171e-06 -1.3383e-06 0)
(2.3995e-06 -1.34732e-06 0)
(2.40541e-06 -1.36379e-06 0)
(2.42465e-06 -1.38597e-06 0)
(2.45382e-06 -1.41221e-06 0)
(2.49015e-06 -1.44065e-06 0)
(2.52079e-06 -1.58296e-06 0)
(2.32615e-06 -1.54865e-06 0)
(2.20163e-06 -1.52631e-06 0)
(2.12769e-06 -1.52322e-06 0)
(2.08848e-06 -1.52945e-06 0)
(2.07378e-06 -1.54452e-06 0)
(2.07684e-06 -1.56519e-06 0)
(2.09285e-06 -1.59039e-06 0)
(2.11836e-06 -1.61901e-06 0)
(2.15067e-06 -1.64911e-06 0)
(2.19932e-06 -1.69181e-06 0)
(2.00873e-06 -1.69063e-06 0)
(1.88688e-06 -1.6893e-06 0)
(1.81394e-06 -1.70021e-06 0)
(1.77455e-06 -1.71554e-06 0)
(1.75854e-06 -1.73684e-06 0)
(1.75943e-06 -1.76174e-06 0)
(1.77253e-06 -1.78996e-06 0)
(1.79459e-06 -1.82085e-06 0)
(1.82282e-06 -1.85273e-06 0)
(1.87075e-06 -1.78997e-06 0)
(1.69229e-06 -1.82165e-06 0)
(1.5783e-06 -1.84114e-06 0)
(1.50968e-06 -1.86587e-06 0)
(1.47212e-06 -1.89017e-06 0)
(1.45603e-06 -1.91757e-06 0)
(1.45543e-06 -1.94662e-06 0)
(1.46594e-06 -1.97777e-06 0)
(1.48464e-06 -2.01084e-06 0)
(1.50875e-06 -2.04453e-06 0)
(1.5367e-06 -1.87546e-06 0)
(1.37829e-06 -1.93789e-06 0)
(1.27715e-06 -1.97688e-06 0)
(1.21598e-06 -2.01453e-06 0)
(1.18217e-06 -2.04721e-06 0)
(1.16716e-06 -2.08028e-06 0)
(1.16572e-06 -2.11314e-06 0)
(1.17393e-06 -2.14701e-06 0)
(1.18926e-06 -2.18208e-06 0)
(1.20912e-06 -2.21756e-06 0)
(1.19879e-06 -1.94634e-06 0)
(1.06743e-06 -2.03569e-06 0)
(9.83581e-07 -2.09179e-06 0)
(9.3271e-07 -2.14079e-06 0)
(9.04416e-07 -2.18078e-06 0)
(8.91555e-07 -2.2188e-06 0)
(8.89827e-07 -2.25498e-06 0)
(8.95937e-07 -2.29124e-06 0)
(9.07884e-07 -2.32805e-06 0)
(9.23395e-07 -2.36514e-06 0)
(8.58105e-07 -2.00102e-06 0)
(7.59738e-07 -2.11201e-06 0)
(6.96962e-07 -2.18184e-06 0)
(6.58806e-07 -2.23992e-06 0)
(6.37496e-07 -2.28578e-06 0)
(6.27644e-07 -2.32779e-06 0)
(6.26053e-07 -2.36667e-06 0)
(6.30251e-07 -2.40485e-06 0)
(6.38798e-07 -2.44307e-06 0)
(6.49911e-07 -2.4815e-06 0)
(5.15641e-07 -2.0382e-06 0)
(4.5474e-07 -2.16431e-06 0)
(4.15897e-07 -2.24373e-06 0)
(3.9223e-07 -2.30818e-06 0)
(3.78947e-07 -2.35816e-06 0)
(3.72733e-07 -2.40295e-06 0)
(3.71637e-07 -2.44371e-06 0)
(3.74105e-07 -2.48329e-06 0)
(3.79234e-07 -2.52249e-06 0)
(3.85905e-07 -2.56189e-06 0)
(1.7221e-07 -2.05693e-06 0)
(1.51582e-07 -2.19088e-06 0)
(1.38373e-07 -2.27523e-06 0)
(1.30317e-07 -2.34296e-06 0)
(1.2581e-07 -2.39506e-06 0)
(1.23679e-07 -2.4413e-06 0)
(1.23249e-07 -2.48301e-06 0)
(1.24039e-07 -2.52328e-06 0)
(1.2575e-07 -2.56301e-06 0)
(1.27968e-07 -2.60293e-06 0)
(4.89489e-06 -6.12262e-08 0)
(4.93929e-06 -4.4064e-08 0)
(4.9658e-06 -3.316e-08 0)
(4.99413e-06 -2.673e-08 0)
(5.02492e-06 -2.31239e-08 0)
(5.06276e-06 -2.14236e-08 0)
(5.10763e-06 -2.10482e-08 0)
(5.16013e-06 -2.15034e-08 0)
(5.22007e-06 -2.25477e-08 0)
(5.28667e-06 -2.38458e-08 0)
(4.85852e-06 -1.83694e-07 0)
(4.89549e-06 -1.33212e-07 0)
(4.91734e-06 -1.0115e-07 0)
(4.94256e-06 -8.23142e-08 0)
(4.97128e-06 -7.18889e-08 0)
(5.00766e-06 -6.7015e-08 0)
(5.05148e-06 -6.59261e-08 0)
(5.10311e-06 -6.73643e-08 0)
(5.16233e-06 -7.05843e-08 0)
(5.22816e-06 -7.4475e-08 0)
(4.7859e-06 -3.07187e-07 0)
(4.80871e-06 -2.26146e-07 0)
(4.82158e-06 -1.74742e-07 0)
(4.84087e-06 -1.44545e-07 0)
(4.86566e-06 -1.27865e-07 0)
(4.89926e-06 -1.20238e-07 0)
(4.94103e-06 -1.1871e-07 0)
(4.99102e-06 -1.21212e-07 0)
(5.04883e-06 -1.26589e-07 0)
(5.11315e-06 -1.33098e-07 0)
(4.67832e-06 -4.3225e-07 0)
(4.68099e-06 -3.25013e-07 0)
(4.68107e-06 -2.57048e-07 0)
(4.6919e-06 -2.17301e-07 0)
(4.71109e-06 -1.95441e-07 0)
(4.74076e-06 -1.8563e-07 0)
(4.77962e-06 -1.83953e-07 0)
(4.82727e-06 -1.87662e-07 0)
(4.88307e-06 -1.9516e-07 0)
(4.94528e-06 -2.0428e-07 0)
(4.53748e-06 -5.59216e-07 0)
(4.51525e-06 -4.31589e-07 0)
(4.49952e-06 -3.5072e-07 0)
(4.49987e-06 -3.03738e-07 0)
(4.51213e-06 -2.78126e-07 0)
(4.53689e-06 -2.66983e-07 0)
(4.57215e-06 -2.65578e-07 0)
(4.61688e-06 -2.70695e-07 0)
(4.67019e-06 -2.80321e-07 0)
(4.72983e-06 -2.92039e-07 0)
(4.3655e-06 -6.88177e-07 0)
(4.31509e-06 -5.47096e-07 0)
(4.28151e-06 -4.5766e-07 0)
(4.27002e-06 -4.06183e-07 0)
(4.2744e-06 -3.78482e-07 0)
(4.29356e-06 -3.66997e-07 0)
(4.3247e-06 -3.66381e-07 0)
(4.36609e-06 -3.73144e-07 0)
(4.41651e-06 -3.84919e-07 0)
(4.47325e-06 -3.99201e-07 0)
(4.16494e-06 -8.18843e-07 0)
(4.08476e-06 -6.72001e-07 0)
(4.03234e-06 -5.78815e-07 0)
(4.00831e-06 -5.25848e-07 0)
(4.00434e-06 -4.97889e-07 0)
(4.01753e-06 -4.8717e-07 0)
(4.04424e-06 -4.87944e-07 0)
(4.08203e-06 -4.96594e-07 0)
(4.12931e-06 -5.10544e-07 0)
(4.18297e-06 -5.27324e-07 0)
(3.93852e-06 -9.50602e-07 0)
(3.82883e-06 -8.05955e-07 0)
(3.75777e-06 -7.14049e-07 0)
(3.72126e-06 -6.6278e-07 0)
(3.70896e-06 -6.36483e-07 0)
(3.71612e-06 -6.27694e-07 0)
(3.73827e-06 -6.30497e-07 0)
(3.77231e-06 -6.41347e-07 0)
(3.81624e-06 -6.5752e-07 0)
(3.8667e-06 -6.76792e-07 0)
(3.68918e-06 -1.08256e-06 0)
(3.55207e-06 -9.47865e-07 0)
(3.46367e-06 -8.62192e-07 0)
(3.41549e-06 -8.15731e-07 0)
(3.39529e-06 -7.92989e-07 0)
(3.39662e-06 -7.87244e-07 0)
(3.41425e-06 -7.9272e-07 0)
(3.44451e-06 -8.06043e-07 0)
(3.48497e-06 -8.24657e-07 0)
(3.53233e-06 -8.46257e-07 0)
(3.4199e-06 -1.21346e-06 0)
(3.2592e-06 -1.0959e-06 0)
(3.15588e-06 -1.02102e-06 0)
(3.09757e-06 -9.82257e-07 0)
(3.07038e-06 -9.64845e-07 0)
(3.06641e-06 -9.63203e-07 0)
(3.07983e-06 -9.71923e-07 0)
(3.10635e-06 -9.88135e-07 0)
(3.14332e-06 -1.00924e-06 0)
(3.18743e-06 -1.03414e-06 0)
(5.36017e-06 -2.51484e-08 0)
(5.44031e-06 -2.54025e-08 0)
(5.5256e-06 -2.57057e-08 0)
(5.61573e-06 -2.59172e-08 0)
(5.71014e-06 -2.60173e-08 0)
(5.80844e-06 -2.5994e-08 0)
(5.9102e-06 -2.5794e-08 0)
(6.01504e-06 -2.54251e-08 0)
(6.12264e-06 -2.48949e-08 0)
(6.23263e-06 -2.41897e-08 0)
(6.34468e-06 -2.32848e-08 0)
(6.45847e-06 -2.2162e-08 0)
(6.57367e-06 -2.07979e-08 0)
(6.68992e-06 -1.91721e-08 0)
(6.80693e-06 -1.72613e-08 0)
(6.92423e-06 -1.50346e-08 0)
(7.04158e-06 -1.24457e-08 0)
(7.15819e-06 -9.4388e-09 0)
(7.27422e-06 -5.93859e-09 0)
(7.38774e-06 -1.91587e-09 0)
(5.30425e-06 -7.80746e-08 0)
(5.38909e-06 -7.84575e-08 0)
(5.47857e-06 -7.90558e-08 0)
(5.57235e-06 -7.9443e-08 0)
(5.67e-06 -7.94869e-08 0)
(5.77115e-06 -7.919e-08 0)
(5.87549e-06 -7.84536e-08 0)
(5.98266e-06 -7.72745e-08 0)
(6.09238e-06 -7.56062e-08 0)
(6.2043e-06 -7.33969e-08 0)
(6.31813e-06 -7.05939e-08 0)
(6.43357e-06 -6.71612e-08 0)
(6.55031e-06 -6.30363e-08 0)
(6.66802e-06 -5.81463e-08 0)
(6.7864e-06 -5.24034e-08 0)
(6.90501e-06 -4.57078e-08 0)
(7.02363e-06 -3.79218e-08 0)
(7.14146e-06 -2.88925e-08 0)
(7.25868e-06 -1.83888e-08 0)
(7.37339e-06 -6.32643e-09 0)
(5.19432e-06 -1.38209e-07 0)
(5.28837e-06 -1.37686e-07 0)
(5.38605e-06 -1.37632e-07 0)
(5.48693e-06 -1.3747e-07 0)
(5.59094e-06 -1.36882e-07 0)
(5.69773e-06 -1.3587e-07 0)
(5.80713e-06 -1.34217e-07 0)
(5.91885e-06 -1.31896e-07 0)
(6.03271e-06 -1.28811e-07 0)
(6.14841e-06 -1.24889e-07 0)
(6.26572e-06 -1.20042e-07 0)
(6.38439e-06 -1.14194e-07 0)
(6.50414e-06 -1.07228e-07 0)
(6.62468e-06 -9.90133e-08 0)
(6.74574e-06 -8.9401e-08 0)
(6.86692e-06 -7.82213e-08 0)
(6.988e-06 -6.52386e-08 0)
(7.10825e-06 -5.0203e-08 0)
(7.22785e-06 -3.27167e-08 0)
(7.34494e-06 -1.26462e-08 0)
(5.03368e-06 -2.09648e-07 0)
(5.14092e-06 -2.06612e-07 0)
(5.2505e-06 -2.04434e-07 0)
(5.3617e-06 -2.02583e-07 0)
(5.47497e-06 -2.00393e-07 0)
(5.58995e-06 -1.97888e-07 0)
(5.70675e-06 -1.94685e-07 0)
(5.82515e-06 -1.90731e-07 0)
(5.9451e-06 -1.85858e-07 0)
(6.06636e-06 -1.79931e-07 0)
(6.18881e-06 -1.72802e-07 0)
(6.31223e-06 -1.64346e-07 0)
(6.43641e-06 -1.54394e-07 0)
(6.56111e-06 -1.42763e-07 0)
(6.68611e-06 -1.29242e-07 0)
(6.81105e-06 -1.13571e-07 0)
(6.93576e-06 -9.54157e-08 0)
(7.05954e-06 -7.44215e-08 0)
(7.1826e-06 -5.00151e-08 0)
(7.30317e-06 -2.20224e-08 0)
(4.82721e-06 -2.96041e-07 0)
(4.951e-06 -2.88391e-07 0)
(5.07564e-06 -2.82178e-07 0)
(5.19993e-06 -2.77168e-07 0)
(5.32502e-06 -2.72141e-07 0)
(5.45051e-06 -2.67155e-07 0)
(5.57683e-06 -2.61607e-07 0)
(5.70382e-06 -2.5538e-07 0)
(5.8316e-06 -2.48185e-07 0)
(5.96003e-06 -2.3982e-07 0)
(6.08909e-06 -2.30077e-07 0)
(6.21865e-06 -2.18767e-07 0)
(6.34857e-06 -2.05654e-07 0)
(6.47867e-06 -1.90485e-07 0)
(6.60879e-06 -1.72973e-07 0)
(6.7386e-06 -1.52771e-07 0)
(6.868e-06 -1.29442e-07 0)
(6.99634e-06 -1.02525e-07 0)
(7.1239e-06 -7.12769e-08 0)
(7.24898e-06 -3.54655e-08 0)
(4.58077e-06 -4.0001e-07 0)
(4.72362e-06 -3.85315e-07 0)
(4.86588e-06 -3.72807e-07 0)
(5.00558e-06 -3.62853e-07 0)
(5.14468e-06 -3.53523e-07 0)
(5.28269e-06 -3.44848e-07 0)
(5.42035e-06 -3.35962e-07 0)
(5.55765e-06 -3.26652e-07 0)
(5.69482e-06 -3.16504e-07 0)
(5.83189e-06 -3.0521e-07 0)
(5.96892e-06 -2.92481e-07 0)
(6.10587e-06 -2.78042e-07 0)
(6.2427e-06 -2.61574e-07 0)
(6.37928e-06 -2.42746e-07 0)
(6.51554e-06 -2.21176e-07 0)
(6.65121e-06 -1.96434e-07 0)
(6.78625e-06 -1.67965e-07 0)
(6.92007e-06 -1.35209e-07 0)
(7.05304e-06 -9.72546e-08 0)
(7.18352e-06 -5.37703e-08 0)
(4.30127e-06 -5.23144e-07 0)
(4.46479e-06 -4.98951e-07 0)
(4.62648e-06 -4.7791e-07 0)
(4.78331e-06 -4.61103e-07 0)
(4.93807e-06 -4.4591e-07 0)
(5.09018e-06 -4.32222e-07 0)
(5.24069e-06 -4.1895e-07 0)
(5.38969e-06 -4.05681e-07 0)
(5.53759e-06 -3.91872e-07 0)
(5.68453e-06 -3.77087e-07 0)
(5.83068e-06 -3.60924e-07 0)
(5.97611e-06 -3.43004e-07 0)
(6.12085e-06 -3.22916e-07 0)
(6.26489e-06 -3.00245e-07 0)
(6.4082e-06 -2.74513e-07 0)
(6.5506e-06 -2.45192e-07 0)
(6.69212e-06 -2.11611e-07 0)
(6.83223e-06 -1.73096e-07 0)
(6.97136e-06 -1.28583e-07 0)
(7.10804e-06 -7.76325e-08 0)
(3.99565e-06 -6.65813e-07 0)
(4.18049e-06 -6.29385e-07 0)
(4.36259e-06 -5.9753e-07 0)
(4.53776e-06 -5.71738e-07 0)
(4.70941e-06 -5.49059e-07 0)
(4.8769e-06 -5.28929e-07 0)
(5.04149e-06 -5.10161e-07 0)
(5.20338e-06 -4.92037e-07 0)
(5.36311e-06 -4.73862e-07 0)
(5.52096e-06 -4.5504e-07 0)
(5.67721e-06 -4.35037e-07 0)
(5.83202e-06 -4.13346e-07 0)
(5.98555e-06 -3.8945e-07 0)
(6.13784e-06 -3.62831e-07 0)
(6.28897e-06 -3.32906e-07 0)
(6.43881e-06 -2.9904e-07 0)
(6.58747e-06 -2.60448e-07 0)
(6.73454e-06 -2.16334e-07 0)
(6.88048e-06 -1.65487e-07 0)
(7.024e-06 -1.07356e-07 0)
(3.67149e-06 -8.27725e-07 0)
(3.87758e-06 -7.76862e-07 0)
(4.08002e-06 -7.32807e-07 0)
(4.27411e-06 -6.96214e-07 0)
(4.46313e-06 -6.64598e-07 0)
(4.64677e-06 -6.36691e-07 0)
(4.82617e-06 -6.11272e-07 0)
(5.00175e-06 -5.87304e-07 0)
(5.17412e-06 -5.63932e-07 0)
(5.34368e-06 -5.40383e-07 0)
(5.5108e-06 -5.15973e-07 0)
(5.67575e-06 -4.90067e-07 0)
(5.83877e-06 -4.62027e-07 0)
(6.00001e-06 -4.31224e-07 0)
(6.15958e-06 -3.96958e-07 0)
(6.31748e-06 -3.58478e-07 0)
(6.47387e-06 -3.14895e-07 0)
(6.62846e-06 -2.65284e-07 0)
(6.78175e-06 -2.08318e-07 0)
(6.9327e-06 -1.43339e-07 0)
(3.3349e-06 -1.00595e-06 0)
(3.56229e-06 -9.37192e-07 0)
(3.78417e-06 -8.79384e-07 0)
(3.99762e-06 -8.30282e-07 0)
(4.20435e-06 -7.88321e-07 0)
(4.40475e-06 -7.51539e-07 0)
(4.5996e-06 -7.18564e-07 0)
(4.78953e-06 -6.88082e-07 0)
(4.97515e-06 -6.59019e-07 0)
(5.15699e-06 -6.304e-07 0)
(5.33551e-06 -6.01366e-07 0)
(5.51109e-06 -5.71125e-07 0)
(5.68405e-06 -5.38905e-07 0)
(5.85463e-06 -5.03952e-07 0)
(6.02303e-06 -4.65448e-07 0)
(6.18933e-06 -4.22527e-07 0)
(6.35379e-06 -3.74202e-07 0)
(6.51622e-06 -3.1941e-07 0)
(6.67722e-06 -2.56716e-07 0)
(6.83598e-06 -1.8533e-07 0)
(3.08635e-06 -1.17609e-06 0)
(3.3273e-06 -1.09308e-06 0)
(3.5604e-06 -1.02511e-06 0)
(3.78555e-06 -9.66114e-07 0)
(4.00334e-06 -9.15087e-07 0)
(4.21434e-06 -8.70036e-07 0)
(4.41922e-06 -8.29514e-07 0)
(4.61858e-06 -7.92176e-07 0)
(4.81301e-06 -7.56857e-07 0)
(5.00305e-06 -7.22493e-07 0)
(5.18918e-06 -6.88139e-07 0)
(5.37182e-06 -6.52913e-07 0)
(5.55132e-06 -6.15956e-07 0)
(5.72797e-06 -5.76437e-07 0)
(5.90204e-06 -5.33465e-07 0)
(6.07368e-06 -4.86104e-07 0)
(6.24321e-06 -4.33337e-07 0)
(6.4106e-06 -3.74029e-07 0)
(6.57647e-06 -3.06721e-07 0)
(6.74026e-06 -2.3058e-07 0)
(2.94376e-06 -1.31362e-06 0)
(3.18641e-06 -1.22753e-06 0)
(3.42142e-06 -1.15402e-06 0)
(3.64954e-06 -1.08909e-06 0)
(3.87073e-06 -1.03179e-06 0)
(4.08542e-06 -9.80489e-07 0)
(4.29407e-06 -9.33848e-07 0)
(4.49714e-06 -8.90614e-07 0)
(4.69514e-06 -8.49647e-07 0)
(4.88853e-06 -8.09907e-07 0)
(5.07776e-06 -7.7045e-07 0)
(5.26322e-06 -7.30379e-07 0)
(5.44526e-06 -6.88817e-07 0)
(5.62419e-06 -6.44919e-07 0)
(5.80031e-06 -5.97786e-07 0)
(5.97383e-06 -5.46475e-07 0)
(6.14508e-06 -4.90003e-07 0)
(6.31418e-06 -4.27252e-07 0)
(6.48171e-06 -3.56813e-07 0)
(6.64738e-06 -2.77906e-07 0)
(2.82127e-06 -1.44598e-06 0)
(3.06167e-06 -1.35779e-06 0)
(3.29633e-06 -1.28057e-06 0)
(3.52496e-06 -1.21107e-06 0)
(3.74747e-06 -1.1486e-06 0)
(3.96397e-06 -1.09185e-06 0)
(4.17475e-06 -1.03966e-06 0)
(4.38012e-06 -9.90926e-07 0)
(4.58047e-06 -9.44577e-07 0)
(4.77618e-06 -8.99636e-07 0)
(4.96764e-06 -8.55192e-07 0)
(5.1552e-06 -8.10355e-07 0)
(5.33921e-06 -7.64254e-07 0)
(5.51996e-06 -7.16058e-07 0)
(5.69775e-06 -6.64875e-07 0)
(5.87287e-06 -6.09781e-07 0)
(6.04564e-06 -5.4983e-07 0)
(6.21627e-06 -4.83956e-07 0)
(6.38536e-06 -4.10823e-07 0)
(6.5528e-06 -3.29731e-07 0)
(2.71296e-06 -1.5737e-06 0)
(2.95002e-06 -1.48447e-06 0)
(3.18271e-06 -1.40444e-06 0)
(3.41024e-06 -1.33115e-06 0)
(3.6325e-06 -1.2642e-06 0)
(3.84935e-06 -1.20261e-06 0)
(4.06096e-06 -1.14538e-06 0)
(4.26747e-06 -1.09155e-06 0)
(4.46917e-06 -1.04016e-06 0)
(4.66633e-06 -9.90305e-07 0)
(4.8593e-06 -9.41112e-07 0)
(5.04835e-06 -8.91723e-07 0)
(5.23381e-06 -8.41291e-07 0)
(5.41596e-06 -7.89014e-07 0)
(5.59512e-06 -7.34021e-07 0)
(5.77157e-06 -6.7543e-07 0)
(5.94567e-06 -6.12333e-07 0)
(6.11769e-06 -5.43738e-07 0)
(6.28818e-06 -4.68408e-07 0)
(6.45727e-06 -3.85735e-07 0)
(2.61744e-06 -1.69601e-06 0)
(2.85011e-06 -1.60647e-06 0)
(3.07964e-06 -1.52459e-06 0)
(3.30484e-06 -1.44845e-06 0)
(3.52564e-06 -1.3779e-06 0)
(3.74169e-06 -1.3122e-06 0)
(3.95303e-06 -1.25056e-06 0)
(4.15968e-06 -1.19215e-06 0)
(4.36183e-06 -1.13614e-06 0)
(4.55967e-06 -1.08171e-06 0)
(4.75345e-06 -1.02806e-06 0)
(4.94342e-06 -9.7437e-07 0)
(5.12985e-06 -9.19842e-07 0)
(5.31302e-06 -8.63719e-07 0)
(5.49321e-06 -8.05156e-07 0)
(5.67074e-06 -7.43339e-07 0)
(5.84596e-06 -6.77398e-07 0)
(6.01918e-06 -6.06431e-07 0)
(6.19093e-06 -5.2933e-07 0)
(6.36154e-06 -4.45583e-07 0)
(2.53245e-06 -1.81308e-06 0)
(2.76023e-06 -1.72381e-06 0)
(2.98587e-06 -1.64076e-06 0)
(3.2079e-06 -1.56248e-06 0)
(3.42634e-06 -1.48901e-06 0)
(3.64067e-06 -1.41984e-06 0)
(3.85086e-06 -1.35436e-06 0)
(4.05683e-06 -1.29189e-06 0)
(4.25868e-06 -1.23171e-06 0)
(4.45651e-06 -1.17311e-06 0)
(4.65051e-06 -1.11536e-06 0)
(4.84087e-06 -1.05769e-06 0)
(5.02783e-06 -9.99371e-07 0)
(5.21164e-06 -9.39695e-07 0)
(5.39257e-06 -8.77854e-07 0)
(5.57093e-06 -8.1312e-07 0)
(5.74705e-06 -7.44669e-07 0)
(5.9213e-06 -6.71695e-07 0)
(6.09418e-06 -5.93235e-07 0)
(6.26614e-06 -5.08854e-07 0)
(2.45631e-06 -1.92501e-06 0)
(2.67891e-06 -1.83642e-06 0)
(2.90014e-06 -1.75274e-06 0)
(3.11845e-06 -1.67294e-06 0)
(3.33388e-06 -1.5972e-06 0)
(3.54581e-06 -1.52517e-06 0)
(3.75418e-06 -1.45642e-06 0)
(3.95881e-06 -1.39041e-06 0)
(4.15974e-06 -1.32654e-06 0)
(4.35699e-06 -1.26419e-06 0)
(4.55069e-06 -1.20271e-06 0)
(4.741e-06 -1.14141e-06 0)
(4.9281e-06 -1.07962e-06 0)
(5.11222e-06 -1.0167e-06 0)
(5.29361e-06 -9.51892e-07 0)
(5.47256e-06 -8.84544e-07 0)
(5.6494e-06 -8.13901e-07 0)
(5.8245e-06 -7.39259e-07 0)
(5.99837e-06 -6.59794e-07 0)
(6.17148e-06 -5.75142e-07 0)
(2.38741e-06 -2.03207e-06 0)
(2.60474e-06 -1.94442e-06 0)
(2.82129e-06 -1.86054e-06 0)
(3.03553e-06 -1.77969e-06 0)
(3.24749e-06 -1.7022e-06 0)
(3.45655e-06 -1.62784e-06 0)
(3.66258e-06 -1.55635e-06 0)
(3.86536e-06 -1.4873e-06 0)
(4.06487e-06 -1.42019e-06 0)
(4.26108e-06 -1.35451e-06 0)
(4.45406e-06 -1.28971e-06 0)
(4.64393e-06 -1.22516e-06 0)
(4.83085e-06 -1.16025e-06 0)
(5.01499e-06 -1.09442e-06 0)
(5.19659e-06 -1.02696e-06 0)
(5.37593e-06 -9.57311e-07 0)
(5.55331e-06 -8.84793e-07 0)
(5.72911e-06 -8.08803e-07 0)
(5.90381e-06 -7.28642e-07 0)
(6.0779e-06 -6.44025e-07 0)
(2.32433e-06 -2.13456e-06 0)
(2.5364e-06 -2.04801e-06 0)
(2.74816e-06 -1.96423e-06 0)
(2.95813e-06 -1.88273e-06 0)
(3.16636e-06 -1.80392e-06 0)
(3.37221e-06 -1.72771e-06 0)
(3.57554e-06 -1.65395e-06 0)
(3.7761e-06 -1.58232e-06 0)
(3.97381e-06 -1.51242e-06 0)
(4.16862e-06 -1.44385e-06 0)
(4.36057e-06 -1.37612e-06 0)
(4.54971e-06 -1.30869e-06 0)
(4.73617e-06 -1.24102e-06 0)
(4.92011e-06 -1.17261e-06 0)
(5.10172e-06 -1.10283e-06 0)
(5.28126e-06 -1.03118e-06 0)
(5.45903e-06 -9.57092e-07 0)
(5.6354e-06 -8.80034e-07 0)
(5.81075e-06 -7.99438e-07 0)
(5.98567e-06 -7.15106e-07 0)
(2.26583e-06 -2.23282e-06 0)
(2.47273e-06 -2.14746e-06 0)
(2.6797e-06 -2.06398e-06 0)
(2.88533e-06 -1.98212e-06 0)
(3.08968e-06 -1.90235e-06 0)
(3.29213e-06 -1.82469e-06 0)
(3.49253e-06 -1.74908e-06 0)
(3.69061e-06 -1.67529e-06 0)
(3.88627e-06 -1.60303e-06 0)
(4.07943e-06 -1.53197e-06 0)
(4.27009e-06 -1.46172e-06 0)
(4.45827e-06 -1.39178e-06 0)
(4.64407e-06 -1.3217e-06 0)
(4.82762e-06 -1.25105e-06 0)
(5.00907e-06 -1.17926e-06 0)
(5.18868e-06 -1.10593e-06 0)
(5.36669e-06 -1.03054e-06 0)
(5.54347e-06 -9.5266e-07 0)
(5.71935e-06 -8.71854e-07 0)
(5.89496e-06 -7.88e-07 0)
(2.21079e-06 -2.32721e-06 0)
(2.41269e-06 -2.24303e-06 0)
(2.61494e-06 -2.15999e-06 0)
(2.81624e-06 -2.078e-06 0)
(3.01666e-06 -1.99757e-06 0)
(3.21563e-06 -1.91879e-06 0)
(3.41297e-06 -1.8417e-06 0)
(3.60843e-06 -1.76615e-06 0)
(3.80187e-06 -1.69192e-06 0)
(3.99321e-06 -1.61877e-06 0)
(4.18241e-06 -1.54636e-06 0)
(4.36947e-06 -1.47427e-06 0)
(4.55446e-06 -1.40214e-06 0)
(4.73746e-06 -1.32957e-06 0)
(4.91863e-06 -1.25607e-06 0)
(5.09817e-06 -1.18132e-06 0)
(5.27631e-06 -1.10489e-06 0)
(5.45337e-06 -1.02641e-06 0)
(5.62967e-06 -9.45583e-07 0)
(5.8058e-06 -8.62341e-07 0)
(2.15821e-06 -2.41805e-06 0)
(2.3553e-06 -2.33502e-06 0)
(2.55295e-06 -2.2525e-06 0)
(2.75002e-06 -2.17055e-06 0)
(2.94655e-06 -2.08969e-06 0)
(3.14202e-06 -2.01009e-06 0)
(3.33627e-06 -1.93185e-06 0)
(3.52904e-06 -1.85487e-06 0)
(3.72019e-06 -1.77903e-06 0)
(3.90961e-06 -1.70414e-06 0)
(4.09726e-06 -1.62994e-06 0)
(4.28309e-06 -1.55605e-06 0)
(4.46716e-06 -1.48218e-06 0)
(4.64953e-06 -1.408e-06 0)
(4.83032e-06 -1.33309e-06 0)
(5.0097e-06 -1.25718e-06 0)
(5.18786e-06 -1.17992e-06 0)
(5.3651e-06 -1.10104e-06 0)
(5.54173e-06 -1.02033e-06 0)
(5.71825e-06 -9.37777e-07 0)
(2.10719e-06 -2.50564e-06 0)
(2.29967e-06 -2.4237e-06 0)
(2.49289e-06 -2.34175e-06 0)
(2.68586e-06 -2.25996e-06 0)
(2.8786e-06 -2.17887e-06 0)
(3.07063e-06 -2.09868e-06 0)
(3.26183e-06 -2.01957e-06 0)
(3.45192e-06 -1.94149e-06 0)
(3.64077e-06 -1.86437e-06 0)
(3.82826e-06 -1.78807e-06 0)
(4.01432e-06 -1.7124e-06 0)
(4.19889e-06 -1.63705e-06 0)
(4.382e-06 -1.56175e-06 0)
(4.56368e-06 -1.48625e-06 0)
(4.74402e-06 -1.41018e-06 0)
(4.92317e-06 -1.33335e-06 0)
(5.10126e-06 -1.25545e-06 0)
(5.27862e-06 -1.17633e-06 0)
(5.45545e-06 -1.09585e-06 0)
(5.63225e-06 -1.01403e-06 0)
(2.05688e-06 -2.59024e-06 0)
(2.24495e-06 -2.50935e-06 0)
(2.43394e-06 -2.42797e-06 0)
(2.62296e-06 -2.34643e-06 0)
(2.81206e-06 -2.26526e-06 0)
(3.0008e-06 -2.1847e-06 0)
(3.18905e-06 -2.10497e-06 0)
(3.37655e-06 -2.02608e-06 0)
(3.56317e-06 -1.94797e-06 0)
(3.74876e-06 -1.87059e-06 0)
(3.93324e-06 -1.79375e-06 0)
(4.11655e-06 -1.71722e-06 0)
(4.29869e-06 -1.64077e-06 0)
(4.47966e-06 -1.56422e-06 0)
(4.65952e-06 -1.48723e-06 0)
(4.83839e-06 -1.40966e-06 0)
(5.01637e-06 -1.33132e-06 0)
(5.19378e-06 -1.25208e-06 0)
(5.37072e-06 -1.1719e-06 0)
(5.54771e-06 -1.09084e-06 0)
(2.00639e-06 -2.67214e-06 0)
(2.19029e-06 -2.59219e-06 0)
(2.37526e-06 -2.51141e-06 0)
(2.56056e-06 -2.43021e-06 0)
(2.74622e-06 -2.3491e-06 0)
(2.93185e-06 -2.26836e-06 0)
(3.11732e-06 -2.18823e-06 0)
(3.30237e-06 -2.10876e-06 0)
(3.48687e-06 -2.02994e-06 0)
(3.67066e-06 -1.95173e-06 0)
(3.85366e-06 -1.87401e-06 0)
(4.03577e-06 -1.79657e-06 0)
(4.21698e-06 -1.71924e-06 0)
(4.39726e-06 -1.64187e-06 0)
(4.57665e-06 -1.56416e-06 0)
(4.75522e-06 -1.48605e-06 0)
(4.9331e-06 -1.4074e-06 0)
(5.11048e-06 -1.32813e-06 0)
(5.28749e-06 -1.24829e-06 0)
(5.46459e-06 -1.16798e-06 0)
(1.95495e-06 -2.75152e-06 0)
(2.13488e-06 -2.67255e-06 0)
(2.31603e-06 -2.59231e-06 0)
(2.49789e-06 -2.51149e-06 0)
(2.68038e-06 -2.43058e-06 0)
(2.86315e-06 -2.34983e-06 0)
(3.04606e-06 -2.26951e-06 0)
(3.22887e-06 -2.18968e-06 0)
(3.41143e-06 -2.11039e-06 0)
(3.59358e-06 -2.0316e-06 0)
(3.77521e-06 -1.95326e-06 0)
(3.95623e-06 -1.87516e-06 0)
(4.13658e-06 -1.79717e-06 0)
(4.31622e-06 -1.71917e-06 0)
(4.49517e-06 -1.64092e-06 0)
(4.67348e-06 -1.56242e-06 0)
(4.85123e-06 -1.48357e-06 0)
(5.02856e-06 -1.40434e-06 0)
(5.20561e-06 -1.32486e-06 0)
(5.38273e-06 -1.24525e-06 0)
(1.90169e-06 -2.82873e-06 0)
(2.07776e-06 -2.75045e-06 0)
(2.25531e-06 -2.67092e-06 0)
(2.43416e-06 -2.59065e-06 0)
(2.61376e-06 -2.51002e-06 0)
(2.79402e-06 -2.4294e-06 0)
(2.97465e-06 -2.34905e-06 0)
(3.1555e-06 -2.26907e-06 0)
(3.33635e-06 -2.18949e-06 0)
(3.51708e-06 -2.11036e-06 0)
(3.69753e-06 -2.03161e-06 0)
(3.8776e-06 -1.95305e-06 0)
(4.0572e-06 -1.87459e-06 0)
(4.2363e-06 -1.79614e-06 0)
(4.41487e-06 -1.71753e-06 0)
(4.59297e-06 -1.63875e-06 0)
(4.7706e-06 -1.55976e-06 0)
(4.9479e-06 -1.4806e-06 0)
(5.12493e-06 -1.40145e-06 0)
(5.30205e-06 -1.3225e-06 0)
(1.84534e-06 -2.90368e-06 0)
(2.01816e-06 -2.82621e-06 0)
(2.19275e-06 -2.74752e-06 0)
(2.36869e-06 -2.66783e-06 0)
(2.54582e-06 -2.58762e-06 0)
(2.72386e-06 -2.50727e-06 0)
(2.9026e-06 -2.42705e-06 0)
(3.08179e-06 -2.34709e-06 0)
(3.26126e-06 -2.26745e-06 0)
(3.44082e-06 -2.18815e-06 0)
(3.62032e-06 -2.10917e-06 0)
(3.79961e-06 -2.03033e-06 0)
(3.97862e-06 -1.95157e-06 0)
(4.1573e-06 -1.87284e-06 0)
(4.3356e-06 -1.79398e-06 0)
(4.51353e-06 -1.71501e-06 0)
(4.69107e-06 -1.63591e-06 0)
(4.86838e-06 -1.55682e-06 0)
(5.04542e-06 -1.47798e-06 0)
(5.22247e-06 -1.3996e-06 0)
(1.78516e-06 -2.97717e-06 0)
(1.95498e-06 -2.90063e-06 0)
(2.1269e-06 -2.82263e-06 0)
(2.3005e-06 -2.74356e-06 0)
(2.47561e-06 -2.66385e-06 0)
(2.65194e-06 -2.58388e-06 0)
(2.82923e-06 -2.50393e-06 0)
(3.00723e-06 -2.42414e-06 0)
(3.1857e-06 -2.34456e-06 0)
(3.36443e-06 -2.26524e-06 0)
(3.54324e-06 -2.18615e-06 0)
(3.72201e-06 -2.10718e-06 0)
(3.90061e-06 -2.02827e-06 0)
(4.07898e-06 -1.94937e-06 0)
(4.25708e-06 -1.87031e-06 0)
(4.43492e-06 -1.79119e-06 0)
(4.61247e-06 -1.71206e-06 0)
(4.78982e-06 -1.63298e-06 0)
(4.96693e-06 -1.55432e-06 0)
(5.14396e-06 -1.47642e-06 0)
(1.7204e-06 -3.04864e-06 0)
(1.88761e-06 -2.97315e-06 0)
(2.05732e-06 -2.8961e-06 0)
(2.22913e-06 -2.81783e-06 0)
(2.40278e-06 -2.7388e-06 0)
(2.57796e-06 -2.65938e-06 0)
(2.75435e-06 -2.57987e-06 0)
(2.93163e-06 -2.50038e-06 0)
(3.10954e-06 -2.42098e-06 0)
(3.28782e-06 -2.34175e-06 0)
(3.46629e-06 -2.26271e-06 0)
(3.64475e-06 -2.18371e-06 0)
(3.82312e-06 -2.1047e-06 0)
(4.00131e-06 -2.0257e-06 0)
(4.17928e-06 -1.94658e-06 0)
(4.35707e-06 -1.86736e-06 0)
(4.5347e-06 -1.78816e-06 0)
(4.71215e-06 -1.70905e-06 0)
(4.88948e-06 -1.63045e-06 0)
(5.06667e-06 -1.55284e-06 0)
(1.27447e-07 -2.64387e-06 0)
(3.84128e-07 -2.60476e-06 0)
(6.46163e-07 -2.5281e-06 0)
(9.1659e-07 -2.41698e-06 0)
(1.19788e-06 -2.27568e-06 0)
(1.49156e-06 -2.10946e-06 0)
(1.79823e-06 -1.92446e-06 0)
(2.11732e-06 -1.72698e-06 0)
(2.44767e-06 -1.52352e-06 0)
(2.78672e-06 -1.31923e-06 0)
(1.23793e-07 -2.68635e-06 0)
(3.72896e-07 -2.65061e-06 0)
(6.26468e-07 -2.5805e-06 0)
(8.87071e-07 -2.47864e-06 0)
(1.15681e-06 -2.34869e-06 0)
(1.43699e-06 -2.1951e-06 0)
(1.72819e-06 -2.02309e-06 0)
(2.02977e-06 -1.83814e-06 0)
(2.34036e-06 -1.6461e-06 0)
(2.65779e-06 -1.45136e-06 0)
(1.2058e-07 -2.72983e-06 0)
(3.62992e-07 -2.69714e-06 0)
(6.09063e-07 -2.63296e-06 0)
(8.60855e-07 -2.53956e-06 0)
(1.12014e-06 -2.42012e-06 0)
(1.388e-06 -2.2785e-06 0)
(1.66503e-06 -2.11915e-06 0)
(1.95096e-06 -1.94673e-06 0)
(2.24485e-06 -1.76623e-06 0)
(2.5452e-06 -1.58058e-06 0)
(1.17737e-07 -2.77441e-06 0)
(3.54233e-07 -2.74432e-06 0)
(5.93797e-07 -2.68521e-06 0)
(8.38091e-07 -2.59905e-06 0)
(1.0886e-06 -2.48866e-06 0)
(1.3462e-06 -2.35741e-06 0)
(1.61133e-06 -2.20924e-06 0)
(1.88374e-06 -2.04823e-06 0)
(2.16265e-06 -1.87902e-06 0)
(2.44678e-06 -1.70396e-06 0)
(1.15123e-07 -2.82006e-06 0)
(3.46184e-07 -2.79229e-06 0)
(5.79803e-07 -2.73773e-06 0)
(8.17325e-07 -2.6581e-06 0)
(1.05999e-06 -2.5559e-06 0)
(1.30852e-06 -2.43416e-06 0)
(1.56332e-06 -2.29632e-06 0)
(1.82416e-06 -2.14589e-06 0)
(2.0905e-06 -1.98707e-06 0)
(2.36074e-06 -1.82199e-06 0)
(1.12686e-07 -2.86674e-06 0)
(3.38749e-07 -2.84098e-06 0)
(5.66944e-07 -2.79035e-06 0)
(7.98407e-07 -2.71643e-06 0)
(1.03416e-06 -2.62143e-06 0)
(1.27477e-06 -2.50808e-06 0)
(1.52055e-06 -2.37952e-06 0)
(1.77123e-06 -2.23884e-06 0)
(2.02656e-06 -2.08982e-06 0)
(2.28467e-06 -1.93459e-06 0)
(1.10361e-07 -2.91437e-06 0)
(3.31681e-07 -2.89041e-06 0)
(5.54794e-07 -2.8433e-06 0)
(7.80667e-07 -2.77449e-06 0)
(1.01013e-06 -2.68594e-06 0)
(1.24368e-06 -2.58016e-06 0)
(1.48155e-06 -2.45999e-06 0)
(1.7234e-06 -2.32818e-06 0)
(1.96921e-06 -2.18811e-06 0)
(2.21689e-06 -2.04205e-06 0)
(1.08135e-07 -2.96286e-06 0)
(3.24897e-07 -2.9405e-06 0)
(5.43202e-07 -2.89649e-06 0)
(7.63861e-07 -2.83221e-06 0)
(9.87574e-07 -2.74941e-06 0)
(1.21472e-06 -2.65039e-06 0)
(1.44553e-06 -2.53777e-06 0)
(1.67958e-06 -2.41405e-06 0)
(1.91704e-06 -2.28224e-06 0)
(2.15571e-06 -2.14471e-06 0)
(1.0595e-07 -3.01213e-06 0)
(3.18262e-07 -2.99119e-06 0)
(5.31932e-07 -2.94997e-06 0)
(7.47627e-07 -2.88974e-06 0)
(9.65973e-07 -2.8121e-06 0)
(1.18727e-06 -2.71917e-06 0)
(1.4117e-06 -2.61336e-06 0)
(1.63881e-06 -2.49698e-06 0)
(1.8689e-06 -2.37269e-06 0)
(2.09974e-06 -2.24298e-06 0)
(1.03769e-07 -3.06206e-06 0)
(3.11699e-07 -3.0424e-06 0)
(5.20831e-07 -3.00367e-06 0)
(7.31745e-07 -2.94706e-06 0)
(9.44995e-07 -2.87407e-06 0)
(1.16083e-06 -2.78661e-06 0)
(1.37942e-06 -2.68694e-06 0)
(1.60028e-06 -2.57723e-06 0)
(1.82377e-06 -2.45983e-06 0)
(2.04777e-06 -2.33725e-06 0)
(1.01576e-07 -3.11254e-06 0)
(3.05122e-07 -3.09406e-06 0)
(5.09735e-07 -3.05756e-06 0)
(7.15973e-07 -3.00421e-06 0)
(9.24307e-07 -2.93541e-06 0)
(1.13497e-06 -2.85291e-06 0)
(1.34812e-06 -2.75879e-06 0)
(1.56328e-06 -2.65512e-06 0)
(1.78082e-06 -2.54399e-06 0)
(1.99874e-06 -2.4279e-06 0)
(9.93576e-08 -3.16344e-06 0)
(2.9845e-07 -3.14603e-06 0)
(4.98507e-07 -3.11156e-06 0)
(7.00099e-07 -3.06116e-06 0)
(9.03624e-07 -2.99614e-06 0)
(1.10931e-06 -2.91813e-06 0)
(1.31732e-06 -2.82905e-06 0)
(1.52719e-06 -2.73087e-06 0)
(1.73925e-06 -2.62546e-06 0)
(1.95172e-06 -2.51526e-06 0)
(9.708e-08 -3.21466e-06 0)
(2.91585e-07 -3.19819e-06 0)
(4.86998e-07 -3.16558e-06 0)
(6.83901e-07 -3.11786e-06 0)
(8.82646e-07 -3.05629e-06 0)
(1.08346e-06 -2.98236e-06 0)
(1.28652e-06 -2.89787e-06 0)
(1.4914e-06 -2.80468e-06 0)
(1.69837e-06 -2.70449e-06 0)
(1.90587e-06 -2.59964e-06 0)
(9.47046e-08 -3.266e-06 0)
(2.84434e-07 -3.25039e-06 0)
(4.7506e-07 -3.21948e-06 0)
(6.6716e-07 -3.17422e-06 0)
(8.61082e-07 -3.1158e-06 0)
(1.05706e-06 -3.04561e-06 0)
(1.25527e-06 -2.96532e-06 0)
(1.45534e-06 -2.87669e-06 0)
(1.6575e-06 -2.78129e-06 0)
(1.8604e-06 -2.68131e-06 0)
(9.21978e-08 -3.31732e-06 0)
(2.76911e-07 -3.3025e-06 0)
(4.62538e-07 -3.27316e-06 0)
(6.49654e-07 -3.23017e-06 0)
(8.3863e-07 -3.17465e-06 0)
(1.02971e-06 -3.10792e-06 0)
(1.22308e-06 -3.03149e-06 0)
(1.41843e-06 -2.94706e-06 0)
(1.61595e-06 -2.85605e-06 0)
(1.81448e-06 -2.76051e-06 0)
(8.95316e-08 -3.36835e-06 0)
(2.68926e-07 -3.35425e-06 0)
(4.49269e-07 -3.3264e-06 0)
(6.31146e-07 -3.28553e-06 0)
(8.14971e-07 -3.23271e-06 0)
(1.001e-06 -3.16917e-06 0)
(1.18944e-06 -3.09634e-06 0)
(1.38008e-06 -3.01577e-06 0)
(1.57303e-06 -2.92883e-06 0)
(1.76733e-06 -2.83737e-06 0)
(8.667e-08 -3.41901e-06 0)
(2.60359e-07 -3.40559e-06 0)
(4.35044e-07 -3.37913e-06 0)
(6.1134e-07 -3.34026e-06 0)
(7.89717e-07 -3.28998e-06 0)
(9.7046e-07 -3.22944e-06 0)
(1.1538e-06 -3.15998e-06 0)
(1.3396e-06 -3.08305e-06 0)
(1.52797e-06 -2.99988e-06 0)
(1.71809e-06 -2.91225e-06 0)
(8.35684e-08 -3.46874e-06 0)
(2.51071e-07 -3.45599e-06 0)
(4.19638e-07 -3.43085e-06 0)
(5.89925e-07 -3.39388e-06 0)
(7.62458e-07 -3.34603e-06 0)
(9.37573e-07 -3.28836e-06 0)
(1.11555e-06 -3.22211e-06 0)
(1.29629e-06 -3.14862e-06 0)
(1.47993e-06 -3.06903e-06 0)
(1.66583e-06 -2.98501e-06 0)
(8.01576e-08 -3.51778e-06 0)
(2.4086e-07 -3.50567e-06 0)
(4.0272e-07 -3.48181e-06 0)
(5.66442e-07 -3.4467e-06 0)
(7.32612e-07 -3.40121e-06 0)
(9.0164e-07 -3.34632e-06 0)
(1.07385e-06 -3.28315e-06 0)
(1.24924e-06 -3.21297e-06 0)
(1.42793e-06 -3.13685e-06 0)
(1.60948e-06 -3.05628e-06 0)
(7.64099e-08 -3.56465e-06 0)
(2.29653e-07 -3.55319e-06 0)
(3.84158e-07 -3.5306e-06 0)
(5.40688e-07 -3.49735e-06 0)
(6.99906e-07 -3.45421e-06 0)
(8.62311e-07 -3.4021e-06 0)
(1.02827e-06 -3.34203e-06 0)
(1.19793e-06 -3.27515e-06 0)
(1.3714e-06 -3.2025e-06 0)
(1.54843e-06 -3.12544e-06 0)
)


// ************************************************************************* //
