/*--------------------------------*- C++ -*----------------------------------*\
| =========                 |                                                 |
| \\      /  F ield         | foam-extend: Open Source CFD                    |
|  \\    /   O peration     | Version:     4.1                                |
|   \\  /    A nd           | Web:         http://www.foam-extend.org         |
|    \\/     M anipulation  |                                                 |
\*---------------------------------------------------------------------------*/
FoamFile
{
    version     2.0;
    format      ascii;
    class       vectorField;
    location    "6";
    object      solidsCellD_iteration4;
}
// * * * * * * * * * * * * * * * * * * * * * * * * * * * * * * * * * * * * * //


1000
(
(3.01738e-06 -1.23308e-06 0)
(2.85354e-06 -1.15039e-06 0)
(2.74979e-06 -1.09912e-06 0)
(2.69146e-06 -1.07663e-06 0)
(2.66443e-06 -1.07065e-06 0)
(2.66029e-06 -1.07741e-06 0)
(2.67299e-06 -1.09256e-06 0)
(2.69834e-06 -1.11404e-06 0)
(2.73302e-06 -1.13982e-06 0)
(2.77385e-06 -1.16928e-06 0)
(2.7294e-06 -1.34688e-06 0)
(2.55471e-06 -1.29047e-06 0)
(2.44393e-06 -1.25595e-06 0)
(2.38039e-06 -1.24489e-06 0)
(2.34923e-06 -1.24655e-06 0)
(2.34114e-06 -1.25879e-06 0)
(2.3499e-06 -1.27791e-06 0)
(2.37104e-06 -1.3023e-06 0)
(2.4012e-06 -1.33042e-06 0)
(2.43727e-06 -1.36104e-06 0)
(2.42969e-06 -1.45474e-06 0)
(2.25111e-06 -1.42767e-06 0)
(2.13792e-06 -1.41173e-06 0)
(2.0719e-06 -1.41321e-06 0)
(2.03827e-06 -1.42309e-06 0)
(2.02738e-06 -1.44104e-06 0)
(2.03294e-06 -1.4641e-06 0)
(2.05053e-06 -1.49119e-06 0)
(2.07675e-06 -1.52136e-06 0)
(2.10879e-06 -1.55316e-06 0)
(2.12076e-06 -1.55474e-06 0)
(1.94574e-06 -1.55842e-06 0)
(1.83486e-06 -1.56191e-06 0)
(1.76942e-06 -1.5764e-06 0)
(1.73515e-06 -1.59477e-06 0)
(1.72263e-06 -1.61848e-06 0)
(1.72576e-06 -1.64542e-06 0)
(1.74023e-06 -1.67519e-06 0)
(1.76288e-06 -1.70735e-06 0)
(1.79094e-06 -1.74048e-06 0)
(1.8046e-06 -1.64487e-06 0)
(1.64069e-06 -1.67901e-06 0)
(1.53678e-06 -1.7018e-06 0)
(1.47501e-06 -1.72911e-06 0)
(1.44211e-06 -1.75576e-06 0)
(1.42914e-06 -1.78507e-06 0)
(1.43051e-06 -1.81577e-06 0)
(1.44215e-06 -1.84814e-06 0)
(1.46134e-06 -1.88218e-06 0)
(1.48537e-06 -1.91675e-06 0)
(1.48293e-06 -1.7233e-06 0)
(1.33726e-06 -1.78592e-06 0)
(1.24496e-06 -1.82674e-06 0)
(1.18981e-06 -1.86602e-06 0)
(1.16008e-06 -1.9004e-06 0)
(1.14771e-06 -1.93494e-06 0)
(1.14793e-06 -1.96908e-06 0)
(1.15708e-06 -2.0039e-06 0)
(1.17286e-06 -2.03967e-06 0)
(1.19272e-06 -2.07569e-06 0)
(1.15716e-06 -1.78832e-06 0)
(1.03634e-06 -1.87587e-06 0)
(9.59773e-07 -1.9325e-06 0)
(9.1383e-07 -1.98223e-06 0)
(8.88831e-07 -2.02336e-06 0)
(8.78085e-07 -2.06246e-06 0)
(8.77703e-07 -2.09962e-06 0)
(8.84593e-07 -2.1366e-06 0)
(8.96926e-07 -2.17391e-06 0)
(9.12485e-07 -2.21129e-06 0)
(8.28481e-07 -1.83844e-06 0)
(7.37996e-07 -1.94602e-06 0)
(6.80651e-07 -2.01534e-06 0)
(6.46181e-07 -2.07345e-06 0)
(6.2726e-07 -2.12e-06 0)
(6.18948e-07 -2.16275e-06 0)
(6.18361e-07 -2.20235e-06 0)
(6.23165e-07 -2.24107e-06 0)
(6.32013e-07 -2.27959e-06 0)
(6.43165e-07 -2.31811e-06 0)
(4.9792e-07 -1.8725e-06 0)
(4.41925e-07 -1.99408e-06 0)
(4.06407e-07 -2.07227e-06 0)
(3.84964e-07 -2.13627e-06 0)
(3.73137e-07 -2.18661e-06 0)
(3.6792e-07 -2.23193e-06 0)
(3.67474e-07 -2.27324e-06 0)
(3.70284e-07 -2.31321e-06 0)
(3.75561e-07 -2.35263e-06 0)
(3.82257e-07 -2.39201e-06 0)
(1.66311e-07 -1.88966e-06 0)
(1.47287e-07 -2.01844e-06 0)
(1.35223e-07 -2.10124e-06 0)
(1.2797e-07 -2.16828e-06 0)
(1.23954e-07 -2.22056e-06 0)
(1.22125e-07 -2.26719e-06 0)
(1.21921e-07 -2.30937e-06 0)
(1.22849e-07 -2.34996e-06 0)
(1.24604e-07 -2.38982e-06 0)
(1.26819e-07 -2.42961e-06 0)
(4.6972e-06 -5.62912e-08 0)
(4.73897e-06 -4.07193e-08 0)
(4.76553e-06 -3.08958e-08 0)
(4.79474e-06 -2.51652e-08 0)
(4.82699e-06 -2.20576e-08 0)
(4.86638e-06 -2.06964e-08 0)
(4.91278e-06 -2.04783e-08 0)
(4.96657e-06 -2.10632e-08 0)
(5.02758e-06 -2.22138e-08 0)
(5.09506e-06 -2.35352e-08 0)
(4.66271e-06 -1.68849e-07 0)
(4.6976e-06 -1.23043e-07 0)
(4.7199e-06 -9.42528e-08 0)
(4.74623e-06 -7.75186e-08 0)
(4.77659e-06 -6.84174e-08 0)
(4.8146e-06 -6.44925e-08 0)
(4.86003e-06 -6.40167e-08 0)
(4.91305e-06 -6.58194e-08 0)
(4.97342e-06 -6.9228e-08 0)
(5.04019e-06 -7.32203e-08 0)
(4.59371e-06 -2.82394e-07 0)
(4.61555e-06 -2.08853e-07 0)
(4.62961e-06 -1.62664e-07 0)
(4.65052e-06 -1.35937e-07 0)
(4.67727e-06 -1.21515e-07 0)
(4.71276e-06 -1.15383e-07 0)
(4.75633e-06 -1.14786e-07 0)
(4.80778e-06 -1.17881e-07 0)
(4.86686e-06 -1.2358e-07 0)
(4.93227e-06 -1.30278e-07 0)
(4.49146e-06 -3.97334e-07 0)
(4.4948e-06 -3.00107e-07 0)
(4.49709e-06 -2.39075e-07 0)
(4.51028e-06 -2.03929e-07 0)
(4.53188e-06 -1.85112e-07 0)
(4.56365e-06 -1.77338e-07 0)
(4.60454e-06 -1.7694e-07 0)
(4.65387e-06 -1.81497e-07 0)
(4.71114e-06 -1.8951e-07 0)
(4.7747e-06 -1.98903e-07 0)
(4.35749e-06 -5.14026e-07 0)
(4.33799e-06 -3.98481e-07 0)
(4.32574e-06 -3.25964e-07 0)
(4.32927e-06 -2.84509e-07 0)
(4.3445e-06 -2.62562e-07 0)
(4.37177e-06 -2.53913e-07 0)
(4.40931e-06 -2.54133e-07 0)
(4.45598e-06 -2.60324e-07 0)
(4.51097e-06 -2.70637e-07 0)
(4.57224e-06 -2.82715e-07 0)
(4.19385e-06 -6.32499e-07 0)
(4.14843e-06 -5.05004e-07 0)
(4.11974e-06 -4.24992e-07 0)
(4.11233e-06 -3.7976e-07 0)
(4.12034e-06 -3.56223e-07 0)
(4.14248e-06 -3.47597e-07 0)
(4.17623e-06 -3.48878e-07 0)
(4.21982e-06 -3.56895e-07 0)
(4.27222e-06 -3.69508e-07 0)
(4.33101e-06 -3.84259e-07 0)
(4.00281e-06 -7.52529e-07 0)
(3.93004e-06 -6.20103e-07 0)
(3.88402e-06 -5.37035e-07 0)
(3.86505e-06 -4.90828e-07 0)
(3.86536e-06 -4.67404e-07 0)
(3.882e-06 -4.59795e-07 0)
(3.91167e-06 -4.62651e-07 0)
(3.95193e-06 -4.72733e-07 0)
(4.00146e-06 -4.877e-07 0)
(4.05771e-06 -5.05097e-07 0)
(3.78693e-06 -8.73604e-07 0)
(3.68699e-06 -7.43535e-07 0)
(3.62376e-06 -6.62015e-07 0)
(3.59327e-06 -6.17709e-07 0)
(3.5858e-06 -5.96166e-07 0)
(3.59688e-06 -5.9063e-07 0)
(3.62234e-06 -5.95624e-07 0)
(3.65921e-06 -6.08043e-07 0)
(3.70576e-06 -6.25396e-07 0)
(3.75945e-06 -6.45429e-07 0)
(3.5489e-06 -9.94864e-07 0)
(3.42368e-06 -8.7431e-07 0)
(3.34452e-06 -7.98858e-07 0)
(3.30323e-06 -7.59307e-07 0)
(3.28842e-06 -7.414e-07 0)
(3.29406e-06 -7.39006e-07 0)
(3.31529e-06 -7.46771e-07 0)
(3.34869e-06 -7.61774e-07 0)
(3.39195e-06 -7.81668e-07 0)
(3.44301e-06 -8.04206e-07 0)
(3.2915e-06 -1.11514e-06 0)
(3.14446e-06 -1.01069e-06 0)
(3.05149e-06 -9.45524e-07 0)
(3.00076e-06 -9.13396e-07 0)
(2.97933e-06 -9.00758e-07 0)
(2.97983e-06 -9.02532e-07 0)
(2.9969e-06 -9.13701e-07 0)
(3.02677e-06 -9.31793e-07 0)
(3.06675e-06 -9.54496e-07 0)
(3.11473e-06 -9.80531e-07 0)
(5.16898e-06 -2.48424e-08 0)
(5.24949e-06 -2.52092e-08 0)
(5.33506e-06 -2.56025e-08 0)
(5.42537e-06 -2.58884e-08 0)
(5.51982e-06 -2.60464e-08 0)
(5.6181e-06 -2.6074e-08 0)
(5.71986e-06 -2.59642e-08 0)
(5.82467e-06 -2.57232e-08 0)
(5.93215e-06 -2.53175e-08 0)
(6.04198e-06 -2.47248e-08 0)
(6.1539e-06 -2.39332e-08 0)
(6.26756e-06 -2.29401e-08 0)
(6.38266e-06 -2.17384e-08 0)
(6.49887e-06 -2.03095e-08 0)
(6.61592e-06 -1.86194e-08 0)
(6.73336e-06 -1.66318e-08 0)
(6.85099e-06 -1.43076e-08 0)
(6.96805e-06 -1.16042e-08 0)
(7.08469e-06 -8.45672e-09 0)
(7.19916e-06 -4.84506e-09 0)
(5.11653e-06 -7.69399e-08 0)
(5.2014e-06 -7.77196e-08 0)
(5.29087e-06 -7.85901e-08 0)
(5.38457e-06 -7.91981e-08 0)
(5.48211e-06 -7.9475e-08 0)
(5.58314e-06 -7.94167e-08 0)
(5.68732e-06 -7.89513e-08 0)
(5.79433e-06 -7.80704e-08 0)
(5.90382e-06 -7.67035e-08 0)
(6.01551e-06 -7.4828e-08 0)
(6.12911e-06 -7.24115e-08 0)
(6.24433e-06 -6.94179e-08 0)
(6.36092e-06 -6.57947e-08 0)
(6.47855e-06 -6.14751e-08 0)
(6.59692e-06 -5.63694e-08 0)
(6.71561e-06 -5.03868e-08 0)
(6.83442e-06 -4.34102e-08 0)
(6.95262e-06 -3.5312e-08 0)
(7.07043e-06 -2.58937e-08 0)
(7.1861e-06 -1.508e-08 0)
(5.01328e-06 -1.35655e-07 0)
(5.1067e-06 -1.35858e-07 0)
(5.2039e-06 -1.36326e-07 0)
(5.30428e-06 -1.36603e-07 0)
(5.40777e-06 -1.36453e-07 0)
(5.5141e-06 -1.35871e-07 0)
(5.62314e-06 -1.34693e-07 0)
(5.73454e-06 -1.32892e-07 0)
(5.84802e-06 -1.30349e-07 0)
(5.96335e-06 -1.27025e-07 0)
(6.08034e-06 -1.22851e-07 0)
(6.19873e-06 -1.17746e-07 0)
(6.31829e-06 -1.1161e-07 0)
(6.43868e-06 -1.04328e-07 0)
(6.55967e-06 -9.57605e-08 0)
(6.68088e-06 -8.57533e-08 0)
(6.8021e-06 -7.41048e-08 0)
(6.92264e-06 -6.06129e-08 0)
(7.04271e-06 -4.49491e-08 0)
(7.16062e-06 -2.6974e-08 0)
(4.86244e-06 -2.0474e-07 0)
(4.96812e-06 -2.02836e-07 0)
(5.07642e-06 -2.01522e-07 0)
(5.18649e-06 -2.00435e-07 0)
(5.29876e-06 -1.99001e-07 0)
(5.41289e-06 -1.97214e-07 0)
(5.52896e-06 -1.94763e-07 0)
(5.64669e-06 -1.91589e-07 0)
(5.76601e-06 -1.87511e-07 0)
(5.88672e-06 -1.8246e-07 0)
(6.0087e-06 -1.7631e-07 0)
(6.13173e-06 -1.68922e-07 0)
(6.2556e-06 -1.60138e-07 0)
(6.38003e-06 -1.49801e-07 0)
(6.50485e-06 -1.37719e-07 0)
(6.62974e-06 -1.23659e-07 0)
(6.7545e-06 -1.07335e-07 0)
(6.8785e-06 -8.84632e-08 0)
(7.00197e-06 -6.65803e-08 0)
(7.12318e-06 -4.14938e-08 0)
(4.66832e-06 -2.87527e-07 0)
(4.78942e-06 -2.81582e-07 0)
(4.91192e-06 -2.76715e-07 0)
(5.03437e-06 -2.72901e-07 0)
(5.15783e-06 -2.69032e-07 0)
(5.28195e-06 -2.65112e-07 0)
(5.40711e-06 -2.60653e-07 0)
(5.53308e-06 -2.55521e-07 0)
(5.65996e-06 -2.49449e-07 0)
(5.78763e-06 -2.42296e-07 0)
(5.91602e-06 -2.33858e-07 0)
(6.04498e-06 -2.23934e-07 0)
(6.1744e-06 -2.12318e-07 0)
(6.30408e-06 -1.98798e-07 0)
(6.43391e-06 -1.83114e-07 0)
(6.56352e-06 -1.64956e-07 0)
(6.69286e-06 -1.43951e-07 0)
(6.82125e-06 -1.19731e-07 0)
(6.94907e-06 -9.16914e-08 0)
(7.07458e-06 -5.95712e-08 0)
(4.43661e-06 -3.86386e-07 0)
(4.5755e-06 -3.74165e-07 0)
(4.71457e-06 -3.63657e-07 0)
(4.85154e-06 -3.55458e-07 0)
(4.98832e-06 -3.47797e-07 0)
(5.12438e-06 -3.40654e-07 0)
(5.26046e-06 -3.33314e-07 0)
(5.39634e-06 -3.25504e-07 0)
(5.53225e-06 -3.16856e-07 0)
(5.66823e-06 -3.07133e-07 0)
(5.80432e-06 -2.96046e-07 0)
(5.94046e-06 -2.8332e-07 0)
(6.07659e-06 -2.68682e-07 0)
(6.21258e-06 -2.51855e-07 0)
(6.34838e-06 -2.32493e-07 0)
(6.48366e-06 -2.10208e-07 0)
(6.61847e-06 -1.84546e-07 0)
(6.75216e-06 -1.55041e-07 0)
(6.88518e-06 -1.20943e-07 0)
(7.01588e-06 -8.18961e-08 0)
(4.17353e-06 -5.02873e-07 0)
(4.33186e-06 -4.82054e-07 0)
(4.48937e-06 -4.63807e-07 0)
(4.64264e-06 -4.4947e-07 0)
(4.79439e-06 -4.36604e-07 0)
(4.94397e-06 -4.2504e-07 0)
(5.09229e-06 -4.13831e-07 0)
(5.23939e-06 -4.02535e-07 0)
(5.38563e-06 -3.90659e-07 0)
(5.53112e-06 -3.77833e-07 0)
(5.67602e-06 -3.63673e-07 0)
(5.82036e-06 -3.47817e-07 0)
(5.96415e-06 -3.2991e-07 0)
(6.10735e-06 -3.09597e-07 0)
(6.24994e-06 -2.86444e-07 0)
(6.3917e-06 -2.59987e-07 0)
(6.53278e-06 -2.2968e-07 0)
(6.67256e-06 -1.94947e-07 0)
(6.81154e-06 -1.54882e-07 0)
(6.94819e-06 -1.09031e-07 0)
(3.88559e-06 -6.37269e-07 0)
(4.06418e-06 -6.05351e-07 0)
(4.24116e-06 -5.77301e-07 0)
(4.41201e-06 -5.54876e-07 0)
(4.57989e-06 -5.35276e-07 0)
(4.74427e-06 -5.17954e-07 0)
(4.90609e-06 -5.01813e-07 0)
(5.06557e-06 -4.86176e-07 0)
(5.2232e-06 -4.70404e-07 0)
(5.37922e-06 -4.53956e-07 0)
(5.53386e-06 -4.36334e-07 0)
(5.68723e-06 -4.17066e-07 0)
(5.83943e-06 -3.95707e-07 0)
(5.99055e-06 -3.71807e-07 0)
(6.14062e-06 -3.44836e-07 0)
(6.28957e-06 -3.14244e-07 0)
(6.43755e-06 -2.7937e-07 0)
(6.58403e-06 -2.39524e-07 0)
(6.72958e-06 -1.93634e-07 0)
(6.87282e-06 -1.41159e-07 0)
(3.57951e-06 -7.89454e-07 0)
(3.77886e-06 -7.44204e-07 0)
(3.97559e-06 -7.04964e-07 0)
(4.1648e-06 -6.72751e-07 0)
(4.34951e-06 -6.45113e-07 0)
(4.52943e-06 -6.20819e-07 0)
(4.7055e-06 -5.98706e-07 0)
(4.87814e-06 -5.77824e-07 0)
(5.04788e-06 -5.57373e-07 0)
(5.2151e-06 -5.36647e-07 0)
(5.38012e-06 -5.15026e-07 0)
(5.54314e-06 -4.91924e-07 0)
(5.70438e-06 -4.66795e-07 0)
(5.86402e-06 -4.39083e-07 0)
(6.02214e-06 -4.08153e-07 0)
(6.17879e-06 -3.73359e-07 0)
(6.33418e-06 -3.33916e-07 0)
(6.48786e-06 -2.89013e-07 0)
(6.64046e-06 -2.37431e-07 0)
(6.79081e-06 -1.78558e-07 0)
(3.26104e-06 -9.57273e-07 0)
(3.48193e-06 -8.95473e-07 0)
(3.69803e-06 -8.43637e-07 0)
(3.90625e-06 -7.99944e-07 0)
(4.10826e-06 -7.62747e-07 0)
(4.30436e-06 -7.30262e-07 0)
(4.49529e-06 -7.01196e-07 0)
(4.68164e-06 -6.74338e-07 0)
(4.864e-06 -6.48668e-07 0)
(5.04289e-06 -6.23298e-07 0)
(5.21872e-06 -5.97444e-07 0)
(5.39177e-06 -5.70382e-07 0)
(5.56239e-06 -5.41436e-07 0)
(5.73085e-06 -5.09935e-07 0)
(5.8973e-06 -4.75133e-07 0)
(6.0619e-06 -4.36285e-07 0)
(6.22489e-06 -3.92476e-07 0)
(6.386e-06 -3.42782e-07 0)
(6.54587e-06 -2.85841e-07 0)
(6.70365e-06 -2.20944e-07 0)
(3.02157e-06 -1.12057e-06 0)
(3.25884e-06 -1.04404e-06 0)
(3.4874e-06 -9.82331e-07 0)
(3.70772e-06 -9.2927e-07 0)
(3.92075e-06 -8.83547e-07 0)
(4.12721e-06 -8.43326e-07 0)
(4.32783e-06 -8.07225e-07 0)
(4.52323e-06 -7.73977e-07 0)
(4.71404e-06 -7.42481e-07 0)
(4.90077e-06 -7.11772e-07 0)
(5.08384e-06 -6.80979e-07 0)
(5.2636e-06 -6.49296e-07 0)
(5.44045e-06 -6.15968e-07 0)
(5.6147e-06 -5.80242e-07 0)
(5.78652e-06 -5.41304e-07 0)
(5.95621e-06 -4.98344e-07 0)
(6.12396e-06 -4.50382e-07 0)
(6.28976e-06 -3.96458e-07 0)
(6.45419e-06 -3.35176e-07 0)
(6.61671e-06 -2.65791e-07 0)
(2.88591e-06 -1.25409e-06 0)
(3.12457e-06 -1.17424e-06 0)
(3.35529e-06 -1.10668e-06 0)
(3.57892e-06 -1.04757e-06 0)
(3.79566e-06 -9.95697e-07 0)
(4.00603e-06 -9.49456e-07 0)
(4.21058e-06 -9.07518e-07 0)
(4.40981e-06 -8.68676e-07 0)
(4.60425e-06 -8.31857e-07 0)
(4.79438e-06 -7.96102e-07 0)
(4.98058e-06 -7.60529e-07 0)
(5.16319e-06 -7.24316e-07 0)
(5.34263e-06 -6.86689e-07 0)
(5.51921e-06 -6.46874e-07 0)
(5.6931e-06 -6.04047e-07 0)
(5.8647e-06 -5.5739e-07 0)
(6.03416e-06 -5.05931e-07 0)
(6.20163e-06 -4.48746e-07 0)
(6.36766e-06 -3.84508e-07 0)
(6.53199e-06 -3.12472e-07 0)
(2.77116e-06 -1.38162e-06 0)
(3.0072e-06 -1.30017e-06 0)
(3.23746e-06 -1.22902e-06 0)
(3.46164e-06 -1.16539e-06 0)
(3.67984e-06 -1.10844e-06 0)
(3.89215e-06 -1.05691e-06 0)
(4.09897e-06 -1.00964e-06 0)
(4.30062e-06 -9.65541e-07 0)
(4.49751e-06 -9.23617e-07 0)
(4.69004e-06 -8.82948e-07 0)
(4.87853e-06 -8.42668e-07 0)
(5.06329e-06 -8.01965e-07 0)
(5.24476e-06 -7.60069e-07 0)
(5.4232e-06 -7.16203e-07 0)
(5.59881e-06 -6.69552e-07 0)
(5.77201e-06 -6.19311e-07 0)
(5.94296e-06 -5.64545e-07 0)
(6.11195e-06 -5.04379e-07 0)
(6.27945e-06 -4.37561e-07 0)
(6.44545e-06 -3.63351e-07 0)
(2.67044e-06 -1.50413e-06 0)
(2.90289e-06 -1.422e-06 0)
(3.13109e-06 -1.34833e-06 0)
(3.3542e-06 -1.28114e-06 0)
(3.57224e-06 -1.21993e-06 0)
(3.78502e-06 -1.16376e-06 0)
(3.99279e-06 -1.11169e-06 0)
(4.1957e-06 -1.06276e-06 0)
(4.39403e-06 -1.01606e-06 0)
(4.58809e-06 -9.70748e-07 0)
(4.77814e-06 -9.25981e-07 0)
(4.96445e-06 -8.80981e-07 0)
(5.14743e-06 -8.35e-07 0)
(5.32732e-06 -7.87273e-07 0)
(5.50433e-06 -7.37012e-07 0)
(5.67888e-06 -6.83441e-07 0)
(5.85113e-06 -6.25678e-07 0)
(6.02146e-06 -5.62899e-07 0)
(6.1903e-06 -4.93922e-07 0)
(6.35784e-06 -4.1807e-07 0)
(2.58182e-06 -1.62146e-06 0)
(2.80991e-06 -1.53928e-06 0)
(3.03497e-06 -1.46402e-06 0)
(3.25583e-06 -1.3942e-06 0)
(3.47249e-06 -1.32959e-06 0)
(3.68458e-06 -1.26953e-06 0)
(3.89221e-06 -1.21326e-06 0)
(4.09535e-06 -1.15999e-06 0)
(4.29422e-06 -1.10893e-06 0)
(4.48903e-06 -1.05929e-06 0)
(4.67998e-06 -1.01031e-06 0)
(4.86728e-06 -9.61246e-07 0)
(5.05131e-06 -9.11397e-07 0)
(5.23226e-06 -8.60022e-07 0)
(5.41035e-06 -8.06373e-07 0)
(5.586e-06 -7.49715e-07 0)
(5.75937e-06 -6.89228e-07 0)
(5.93087e-06 -6.24139e-07 0)
(6.10091e-06 -5.53356e-07 0)
(6.26986e-06 -4.7635e-07 0)
(2.50302e-06 -1.73376e-06 0)
(2.72639e-06 -1.65201e-06 0)
(2.94768e-06 -1.5758e-06 0)
(3.16551e-06 -1.50404e-06 0)
(3.37992e-06 -1.43673e-06 0)
(3.59044e-06 -1.37342e-06 0)
(3.79705e-06 -1.31353e-06 0)
(3.99961e-06 -1.25644e-06 0)
(4.19827e-06 -1.20145e-06 0)
(4.39317e-06 -1.14787e-06 0)
(4.58443e-06 -1.09501e-06 0)
(4.77221e-06 -1.04219e-06 0)
(4.95687e-06 -9.88759e-07 0)
(5.13853e-06 -9.34014e-07 0)
(5.31741e-06 -8.77256e-07 0)
(5.49391e-06 -8.17795e-07 0)
(5.66819e-06 -7.54877e-07 0)
(5.8407e-06 -6.87788e-07 0)
(6.01182e-06 -6.15575e-07 0)
(6.18203e-06 -5.37876e-07 0)
(2.43237e-06 -1.84126e-06 0)
(2.6508e-06 -1.76025e-06 0)
(2.86793e-06 -1.68357e-06 0)
(3.08222e-06 -1.61047e-06 0)
(3.2938e-06 -1.54107e-06 0)
(3.50209e-06 -1.47511e-06 0)
(3.70702e-06 -1.41218e-06 0)
(3.90837e-06 -1.35176e-06 0)
(4.10622e-06 -1.29329e-06 0)
(4.30065e-06 -1.23618e-06 0)
(4.49173e-06 -1.17981e-06 0)
(4.67956e-06 -1.12357e-06 0)
(4.86446e-06 -1.06687e-06 0)
(5.0465e-06 -1.00905e-06 0)
(5.22592e-06 -9.49461e-07 0)
(5.40304e-06 -8.8747e-07 0)
(5.57804e-06 -8.22395e-07 0)
(5.75139e-06 -7.53604e-07 0)
(5.92345e-06 -6.80324e-07 0)
(6.09475e-06 -6.02265e-07 0)
(2.3684e-06 -1.94422e-06 0)
(2.58186e-06 -1.86415e-06 0)
(2.79461e-06 -1.78737e-06 0)
(3.00505e-06 -1.71338e-06 0)
(3.21338e-06 -1.64242e-06 0)
(3.41899e-06 -1.57432e-06 0)
(3.62175e-06 -1.50883e-06 0)
(3.82139e-06 -1.44557e-06 0)
(4.01796e-06 -1.38407e-06 0)
(4.21149e-06 -1.32385e-06 0)
(4.40196e-06 -1.26435e-06 0)
(4.58948e-06 -1.20505e-06 0)
(4.77429e-06 -1.1454e-06 0)
(4.95642e-06 -1.0848e-06 0)
(5.13611e-06 -1.02267e-06 0)
(5.31364e-06 -9.58426e-07 0)
(5.4892e-06 -8.91474e-07 0)
(5.66325e-06 -8.21288e-07 0)
(5.8361e-06 -7.47253e-07 0)
(6.00833e-06 -6.69047e-07 0)
(2.3098e-06 -2.04293e-06 0)
(2.51836e-06 -1.96394e-06 0)
(2.72662e-06 -1.88733e-06 0)
(2.93307e-06 -1.81281e-06 0)
(3.13791e-06 -1.74068e-06 0)
(3.34052e-06 -1.6709e-06 0)
(3.54077e-06 -1.60331e-06 0)
(3.73836e-06 -1.53764e-06 0)
(3.9333e-06 -1.47354e-06 0)
(4.12556e-06 -1.41061e-06 0)
(4.31511e-06 -1.34837e-06 0)
(4.502e-06 -1.28636e-06 0)
(4.68644e-06 -1.22409e-06 0)
(4.86842e-06 -1.16102e-06 0)
(5.04816e-06 -1.09663e-06 0)
(5.22593e-06 -1.03042e-06 0)
(5.40188e-06 -9.61875e-07 0)
(5.57649e-06 -8.9058e-07 0)
(5.74999e-06 -8.16004e-07 0)
(5.923e-06 -7.37842e-07 0)
(2.25541e-06 -2.13774e-06 0)
(2.45917e-06 -2.05989e-06 0)
(2.66297e-06 -1.98363e-06 0)
(2.86538e-06 -1.90883e-06 0)
(3.06659e-06 -1.83586e-06 0)
(3.26603e-06 -1.76474e-06 0)
(3.46356e-06 -1.69544e-06 0)
(3.65886e-06 -1.62778e-06 0)
(3.85191e-06 -1.56148e-06 0)
(4.04267e-06 -1.49623e-06 0)
(4.23105e-06 -1.43163e-06 0)
(4.41706e-06 -1.36727e-06 0)
(4.6009e-06 -1.30272e-06 0)
(4.78252e-06 -1.23749e-06 0)
(4.96214e-06 -1.17114e-06 0)
(5.13999e-06 -1.10325e-06 0)
(5.31622e-06 -1.0334e-06 0)
(5.49124e-06 -9.61227e-07 0)
(5.66526e-06 -8.86258e-07 0)
(5.8389e-06 -8.08365e-07 0)
(2.20419e-06 -2.22898e-06 0)
(2.40332e-06 -2.15228e-06 0)
(2.60273e-06 -2.07646e-06 0)
(2.80111e-06 -2.00156e-06 0)
(2.99865e-06 -1.928e-06 0)
(3.19486e-06 -1.85587e-06 0)
(3.38956e-06 -1.78522e-06 0)
(3.58243e-06 -1.71593e-06 0)
(3.77344e-06 -1.64782e-06 0)
(3.96252e-06 -1.58063e-06 0)
(4.14953e-06 -1.51402e-06 0)
(4.3345e-06 -1.44765e-06 0)
(4.51757e-06 -1.38113e-06 0)
(4.69868e-06 -1.31405e-06 0)
(4.87804e-06 -1.24604e-06 0)
(5.05587e-06 -1.17674e-06 0)
(5.23224e-06 -1.10581e-06 0)
(5.40756e-06 -1.03293e-06 0)
(5.58199e-06 -9.57732e-07 0)
(5.75613e-06 -8.80258e-07 0)
(2.15525e-06 -2.31697e-06 0)
(2.3499e-06 -2.24135e-06 0)
(2.54502e-06 -2.16603e-06 0)
(2.73946e-06 -2.09119e-06 0)
(2.93339e-06 -2.01726e-06 0)
(3.12636e-06 -1.94439e-06 0)
(3.3182e-06 -1.8727e-06 0)
(3.50859e-06 -1.80211e-06 0)
(3.69746e-06 -1.73253e-06 0)
(3.88476e-06 -1.66373e-06 0)
(4.0703e-06 -1.59543e-06 0)
(4.25411e-06 -1.52735e-06 0)
(4.4363e-06 -1.45917e-06 0)
(4.61681e-06 -1.39052e-06 0)
(4.79582e-06 -1.32113e-06 0)
(4.97351e-06 -1.25068e-06 0)
(5.14992e-06 -1.17887e-06 0)
(5.32543e-06 -1.10543e-06 0)
(5.50016e-06 -1.03019e-06 0)
(5.6747e-06 -9.53153e-07 0)
(2.10772e-06 -2.40197e-06 0)
(2.29807e-06 -2.32735e-06 0)
(2.48907e-06 -2.25258e-06 0)
(2.67969e-06 -2.1779e-06 0)
(2.87011e-06 -2.10378e-06 0)
(3.05991e-06 -2.03041e-06 0)
(3.24891e-06 -1.95793e-06 0)
(3.43681e-06 -1.88633e-06 0)
(3.62354e-06 -1.81557e-06 0)
(3.80901e-06 -1.74546e-06 0)
(3.99304e-06 -1.67578e-06 0)
(4.17563e-06 -1.60631e-06 0)
(4.3569e-06 -1.53676e-06 0)
(4.53676e-06 -1.46686e-06 0)
(4.71535e-06 -1.39634e-06 0)
(4.89283e-06 -1.32495e-06 0)
(5.06918e-06 -1.25242e-06 0)
(5.2448e-06 -1.17859e-06 0)
(5.41976e-06 -1.10343e-06 0)
(5.59458e-06 -1.02684e-06 0)
(2.06084e-06 -2.4842e-06 0)
(2.24709e-06 -2.41055e-06 0)
(2.43414e-06 -2.33633e-06 0)
(2.62111e-06 -2.2619e-06 0)
(2.80814e-06 -2.18773e-06 0)
(2.99488e-06 -2.11403e-06 0)
(3.18114e-06 -2.04101e-06 0)
(3.36662e-06 -1.96867e-06 0)
(3.55124e-06 -1.897e-06 0)
(3.73489e-06 -1.82587e-06 0)
(3.91742e-06 -1.75511e-06 0)
(4.09881e-06 -1.68452e-06 0)
(4.27915e-06 -1.61389e-06 0)
(4.45834e-06 -1.54297e-06 0)
(4.63647e-06 -1.47155e-06 0)
(4.81366e-06 -1.39938e-06 0)
(4.98992e-06 -1.32631e-06 0)
(5.1656e-06 -1.25226e-06 0)
(5.34072e-06 -1.17718e-06 0)
(5.51572e-06 -1.10109e-06 0)
(2.01383e-06 -2.56394e-06 0)
(2.19619e-06 -2.49118e-06 0)
(2.37951e-06 -2.41752e-06 0)
(2.56301e-06 -2.34341e-06 0)
(2.74683e-06 -2.26931e-06 0)
(2.93067e-06 -2.19548e-06 0)
(3.11432e-06 -2.12211e-06 0)
(3.29749e-06 -2.04925e-06 0)
(3.48009e-06 -1.9769e-06 0)
(3.66203e-06 -1.905e-06 0)
(3.84312e-06 -1.8334e-06 0)
(4.02336e-06 -1.76197e-06 0)
(4.20281e-06 -1.69051e-06 0)
(4.38131e-06 -1.6188e-06 0)
(4.55894e-06 -1.54665e-06 0)
(4.73584e-06 -1.4739e-06 0)
(4.912e-06 -1.40045e-06 0)
(5.0877e-06 -1.32629e-06 0)
(5.2629e-06 -1.25128e-06 0)
(5.43801e-06 -1.17564e-06 0)
(1.96599e-06 -2.64141e-06 0)
(2.14466e-06 -2.56953e-06 0)
(2.32441e-06 -2.49636e-06 0)
(2.5047e-06 -2.42262e-06 0)
(2.68556e-06 -2.34872e-06 0)
(2.86671e-06 -2.2749e-06 0)
(3.04794e-06 -2.20134e-06 0)
(3.22895e-06 -2.12815e-06 0)
(3.40968e-06 -2.05537e-06 0)
(3.59004e-06 -1.98293e-06 0)
(3.76984e-06 -1.91075e-06 0)
(3.94902e-06 -1.8387e-06 0)
(4.1276e-06 -1.76661e-06 0)
(4.30542e-06 -1.69429e-06 0)
(4.48259e-06 -1.62161e-06 0)
(4.65923e-06 -1.54846e-06 0)
(4.83527e-06 -1.47477e-06 0)
(5.01092e-06 -1.40047e-06 0)
(5.18613e-06 -1.3256e-06 0)
(5.36126e-06 -1.25033e-06 0)
(1.91658e-06 -2.71686e-06 0)
(2.09164e-06 -2.64559e-06 0)
(2.26802e-06 -2.57309e-06 0)
(2.44549e-06 -2.49986e-06 0)
(2.62364e-06 -2.42624e-06 0)
(2.80238e-06 -2.35252e-06 0)
(2.98142e-06 -2.27894e-06 0)
(3.16053e-06 -2.20561e-06 0)
(3.33963e-06 -2.13257e-06 0)
(3.51862e-06 -2.05981e-06 0)
(3.69725e-06 -1.98724e-06 0)
(3.87545e-06 -1.91476e-06 0)
(4.05323e-06 -1.84222e-06 0)
(4.23046e-06 -1.76949e-06 0)
(4.40726e-06 -1.69646e-06 0)
(4.58366e-06 -1.62303e-06 0)
(4.75951e-06 -1.54913e-06 0)
(4.935e-06 -1.47472e-06 0)
(5.11021e-06 -1.40002e-06 0)
(5.28551e-06 -1.32507e-06 0)
(1.86442e-06 -2.79016e-06 0)
(2.03642e-06 -2.71965e-06 0)
(2.21003e-06 -2.64796e-06 0)
(2.38476e-06 -2.57524e-06 0)
(2.56053e-06 -2.502e-06 0)
(2.73713e-06 -2.42853e-06 0)
(2.91432e-06 -2.35507e-06 0)
(3.09184e-06 -2.28175e-06 0)
(3.2696e-06 -2.20865e-06 0)
(3.44743e-06 -2.13573e-06 0)
(3.62504e-06 -2.06294e-06 0)
(3.80237e-06 -1.99019e-06 0)
(3.97953e-06 -1.9174e-06 0)
(4.15634e-06 -1.84441e-06 0)
(4.33277e-06 -1.77113e-06 0)
(4.50876e-06 -1.6975e-06 0)
(4.68439e-06 -1.62345e-06 0)
(4.85995e-06 -1.54904e-06 0)
(5.03511e-06 -1.47442e-06 0)
(5.21018e-06 -1.39971e-06 0)
(1.80881e-06 -2.86214e-06 0)
(1.97802e-06 -2.79251e-06 0)
(2.14908e-06 -2.72141e-06 0)
(2.32156e-06 -2.64926e-06 0)
(2.49537e-06 -2.57646e-06 0)
(2.6703e-06 -2.50336e-06 0)
(2.84611e-06 -2.43015e-06 0)
(3.02249e-06 -2.35697e-06 0)
(3.19919e-06 -2.28389e-06 0)
(3.37606e-06 -2.21093e-06 0)
(3.55292e-06 -2.13807e-06 0)
(3.72976e-06 -2.06521e-06 0)
(3.90645e-06 -1.99224e-06 0)
(4.08269e-06 -1.91908e-06 0)
(4.25872e-06 -1.84566e-06 0)
(4.43458e-06 -1.77188e-06 0)
(4.61004e-06 -1.69773e-06 0)
(4.78539e-06 -1.62334e-06 0)
(4.96053e-06 -1.54875e-06 0)
(5.13555e-06 -1.47419e-06 0)
(1.74901e-06 -2.9322e-06 0)
(1.91574e-06 -2.86353e-06 0)
(2.08465e-06 -2.7933e-06 0)
(2.25536e-06 -2.72187e-06 0)
(2.42778e-06 -2.64971e-06 0)
(2.60166e-06 -2.57711e-06 0)
(2.77655e-06 -2.50427e-06 0)
(2.95205e-06 -2.43133e-06 0)
(3.12809e-06 -2.35843e-06 0)
(3.30454e-06 -2.28556e-06 0)
(3.48101e-06 -2.2127e-06 0)
(3.65732e-06 -2.1398e-06 0)
(3.83359e-06 -2.06675e-06 0)
(4.00958e-06 -1.9935e-06 0)
(4.18526e-06 -1.91999e-06 0)
(4.36082e-06 -1.84613e-06 0)
(4.53612e-06 -1.77195e-06 0)
(4.71129e-06 -1.6975e-06 0)
(4.8864e-06 -1.62291e-06 0)
(5.06122e-06 -1.5484e-06 0)
(1.26553e-07 -2.47022e-06 0)
(3.81256e-07 -2.43443e-06 0)
(6.40737e-07 -2.36402e-06 0)
(9.07605e-07 -2.26214e-06 0)
(1.18404e-06 -2.13246e-06 0)
(1.47143e-06 -1.97999e-06 0)
(1.77027e-06 -1.81021e-06 0)
(2.08006e-06 -1.62888e-06 0)
(2.39989e-06 -1.44181e-06 0)
(2.72713e-06 -1.2536e-06 0)
(1.23369e-07 -2.51256e-06 0)
(3.71426e-07 -2.47995e-06 0)
(6.23422e-07 -2.41563e-06 0)
(8.81496e-07 -2.3224e-06 0)
(1.14745e-06 -2.20332e-06 0)
(1.42246e-06 -2.06266e-06 0)
(1.70689e-06 -1.90509e-06 0)
(2.00026e-06 -1.73558e-06 0)
(2.30107e-06 -1.5595e-06 0)
(2.60736e-06 -1.38086e-06 0)
(1.20493e-07 -2.5562e-06 0)
(3.62535e-07 -2.52644e-06 0)
(6.07701e-07 -2.46764e-06 0)
(8.57728e-07 -2.38231e-06 0)
(1.11406e-06 -2.27305e-06 0)
(1.37767e-06 -2.14351e-06 0)
(1.64889e-06 -1.99775e-06 0)
(1.92762e-06 -1.83991e-06 0)
(2.21266e-06 -1.67475e-06 0)
(2.50287e-06 -1.50485e-06 0)
(1.17865e-07 -2.60106e-06 0)
(3.54503e-07 -2.57371e-06 0)
(5.93658e-07 -2.5196e-06 0)
(8.36768e-07 -2.44096e-06 0)
(1.08502e-06 -2.34008e-06 0)
(1.33912e-06 -2.22012e-06 0)
(1.59933e-06 -2.08472e-06 0)
(1.86553e-06 -1.93751e-06 0)
(2.13666e-06 -1.78299e-06 0)
(2.41179e-06 -1.62309e-06 0)
(1.15425e-07 -2.64706e-06 0)
(3.46987e-07 -2.62186e-06 0)
(5.8062e-07 -2.57192e-06 0)
(8.17441e-07 -2.49928e-06 0)
(1.05843e-06 -2.40597e-06 0)
(1.30415e-06 -2.29476e-06 0)
(1.55481e-06 -2.16892e-06 0)
(1.81032e-06 -2.03157e-06 0)
(2.06986e-06 -1.88679e-06 0)
(2.33212e-06 -1.73631e-06 0)
(1.1316e-07 -2.69412e-06 0)
(3.39974e-07 -2.67076e-06 0)
(5.68528e-07 -2.62448e-06 0)
(7.99668e-07 -2.55704e-06 0)
(1.03421e-06 -2.47037e-06 0)
(1.27261e-06 -2.36689e-06 0)
(1.51495e-06 -2.2496e-06 0)
(1.76111e-06 -2.12132e-06 0)
(2.01057e-06 -1.98569e-06 0)
(2.26164e-06 -1.84443e-06 0)
(1.10948e-07 -2.74217e-06 0)
(3.33262e-07 -2.72042e-06 0)
(5.57009e-07 -2.67743e-06 0)
(7.82868e-07 -2.61462e-06 0)
(1.01154e-06 -2.5339e-06 0)
(1.24337e-06 -2.4374e-06 0)
(1.47845e-06 -2.32784e-06 0)
(1.71648e-06 -2.2078e-06 0)
(1.95724e-06 -2.08048e-06 0)
(2.19873e-06 -1.94776e-06 0)
(1.08795e-07 -2.79107e-06 0)
(3.26784e-07 -2.77076e-06 0)
(5.45935e-07 -2.73065e-06 0)
(7.66845e-07 -2.67196e-06 0)
(9.90145e-07 -2.59652e-06 0)
(1.21603e-06 -2.50628e-06 0)
(1.4446e-06 -2.4037e-06 0)
(1.67545e-06 -2.29114e-06 0)
(1.90861e-06 -2.17143e-06 0)
(2.14188e-06 -2.04661e-06 0)
(1.06721e-07 -2.84074e-06 0)
(3.20439e-07 -2.82172e-06 0)
(5.35123e-07 -2.78418e-06 0)
(7.51327e-07 -2.72921e-06 0)
(9.69577e-07 -2.65851e-06 0)
(1.19002e-06 -2.5739e-06 0)
(1.41272e-06 -2.4776e-06 0)
(1.63721e-06 -2.37179e-06 0)
(1.86364e-06 -2.25901e-06 0)
(2.08982e-06 -2.14141e-06 0)
(1.04669e-07 -2.89108e-06 0)
(3.1413e-07 -2.87317e-06 0)
(5.24445e-07 -2.83795e-06 0)
(7.36134e-07 -2.78632e-06 0)
(9.49581e-07 -2.71989e-06 0)
(1.16495e-06 -2.64034e-06 0)
(1.38228e-06 -2.5497e-06 0)
(1.60103e-06 -2.45002e-06 0)
(1.82145e-06 -2.34357e-06 0)
(2.04143e-06 -2.23254e-06 0)
(1.02564e-07 -2.94194e-06 0)
(3.07778e-07 -2.92503e-06 0)
(5.13786e-07 -2.8919e-06 0)
(7.21053e-07 -2.84331e-06 0)
(9.29878e-07 -2.78074e-06 0)
(1.14043e-06 -2.70577e-06 0)
(1.35275e-06 -2.62025e-06 0)
(1.56627e-06 -2.52614e-06 0)
(1.78124e-06 -2.42545e-06 0)
(1.99574e-06 -2.32036e-06 0)
(1.00403e-07 -2.99317e-06 0)
(3.01364e-07 -2.97718e-06 0)
(5.03065e-07 -2.94596e-06 0)
(7.05913e-07 -2.90014e-06 0)
(9.10217e-07 -2.84108e-06 0)
(1.11612e-06 -2.77025e-06 0)
(1.32368e-06 -2.68939e-06 0)
(1.53233e-06 -2.60034e-06 0)
(1.7423e-06 -2.50488e-06 0)
(1.95188e-06 -2.40516e-06 0)
(9.8211e-08 -3.04467e-06 0)
(2.94841e-07 -3.02956e-06 0)
(4.9216e-07 -3.00006e-06 0)
(6.90533e-07 -2.95676e-06 0)
(8.9034e-07 -2.9009e-06 0)
(1.09169e-06 -2.83385e-06 0)
(1.29465e-06 -2.75723e-06 0)
(1.49868e-06 -2.67278e-06 0)
(1.70399e-06 -2.58206e-06 0)
(1.90909e-06 -2.48722e-06 0)
(9.59745e-08 -3.09629e-06 0)
(2.8811e-07 -3.082e-06 0)
(4.80905e-07 -3.05407e-06 0)
(6.74719e-07 -3.01308e-06 0)
(8.69989e-07 -2.96014e-06 0)
(1.0668e-06 -2.89655e-06 0)
(1.26524e-06 -2.82383e-06 0)
(1.46481e-06 -2.74356e-06 0)
(1.6657e-06 -2.65721e-06 0)
(1.86663e-06 -2.56681e-06 0)
(9.3634e-08 -3.14793e-06 0)
(2.81043e-07 -3.13439e-06 0)
(4.69124e-07 -3.1079e-06 0)
(6.58249e-07 -3.06903e-06 0)
(8.48871e-07 -3.01879e-06 0)
(1.04109e-06 -2.95841e-06 0)
(1.235e-06 -2.88926e-06 0)
(1.4302e-06 -2.81282e-06 0)
(1.62683e-06 -2.7305e-06 0)
(1.8238e-06 -2.64413e-06 0)
(9.11351e-08 -3.1993e-06 0)
(2.73539e-07 -3.18648e-06 0)
(4.56665e-07 -3.16132e-06 0)
(6.40895e-07 -3.12443e-06 0)
(8.26683e-07 -3.07669e-06 0)
(1.01418e-06 -3.01928e-06 0)
(1.2035e-06 -2.95342e-06 0)
(1.39433e-06 -2.88056e-06 0)
(1.58677e-06 -2.80198e-06 0)
(1.77993e-06 -2.7193e-06 0)
(8.84469e-08 -3.25034e-06 0)
(2.65509e-07 -3.23821e-06 0)
(4.43359e-07 -3.2143e-06 0)
(6.224e-07 -3.17925e-06 0)
(8.03095e-07 -3.13388e-06 0)
(9.85654e-07 -3.07925e-06 0)
(1.17025e-06 -3.0165e-06 0)
(1.35663e-06 -2.94701e-06 0)
(1.54487e-06 -2.87186e-06 0)
(1.73421e-06 -2.79265e-06 0)
(8.55505e-08 -3.30053e-06 0)
(2.56866e-07 -3.28906e-06 0)
(4.29035e-07 -3.26634e-06 0)
(6.02508e-07 -3.23305e-06 0)
(7.77777e-07 -3.18991e-06 0)
(9.55121e-07 -3.13793e-06 0)
(1.13474e-06 -3.07815e-06 0)
(1.31648e-06 -3.01185e-06 0)
(1.50035e-06 -2.93996e-06 0)
(1.68585e-06 -2.86402e-06 0)
(8.24004e-08 -3.35013e-06 0)
(2.47448e-07 -3.33927e-06 0)
(4.13415e-07 -3.31773e-06 0)
(5.80824e-07 -3.28613e-06 0)
(7.50212e-07 -3.24515e-06 0)
(9.2194e-07 -3.19573e-06 0)
(1.09624e-06 -3.13883e-06 0)
(1.27302e-06 -3.07554e-06 0)
(1.45231e-06 -3.00684e-06 0)
(1.63382e-06 -2.93401e-06 0)
(7.8969e-08 -3.39776e-06 0)
(2.37175e-07 -3.38746e-06 0)
(3.96359e-07 -3.36709e-06 0)
(5.57161e-07 -3.33718e-06 0)
(7.20179e-07 -3.29836e-06 0)
(8.85812e-07 -3.25148e-06 0)
(1.05432e-06 -3.19743e-06 0)
(1.22573e-06 -3.13715e-06 0)
(1.40016e-06 -3.07164e-06 0)
(1.5775e-06 -3.00196e-06 0)
)


// ************************************************************************* //
