/*--------------------------------*- C++ -*----------------------------------*\
| =========                 |                                                 |
| \\      /  F ield         | foam-extend: Open Source CFD                    |
|  \\    /   O peration     | Version:     4.1                                |
|   \\  /    A nd           | Web:         http://www.foam-extend.org         |
|    \\/     M anipulation  |                                                 |
\*---------------------------------------------------------------------------*/
FoamFile
{
    version     2.0;
    format      ascii;
    class       vectorField;
    location    "6";
    object      solidsCellD_iteration10;
}
// * * * * * * * * * * * * * * * * * * * * * * * * * * * * * * * * * * * * * //


1000
(
(3.09031e-06 -1.29457e-06 0)
(2.9173e-06 -1.2057e-06 0)
(2.8071e-06 -1.14976e-06 0)
(2.74411e-06 -1.12418e-06 0)
(2.7137e-06 -1.11604e-06 0)
(2.70712e-06 -1.12133e-06 0)
(2.71806e-06 -1.1354e-06 0)
(2.74212e-06 -1.15606e-06 0)
(2.77618e-06 -1.1811e-06 0)
(2.81735e-06 -1.20927e-06 0)
(2.79442e-06 -1.41416e-06 0)
(2.61019e-06 -1.35274e-06 0)
(2.49287e-06 -1.31418e-06 0)
(2.42462e-06 -1.30046e-06 0)
(2.39004e-06 -1.30019e-06 0)
(2.37965e-06 -1.31106e-06 0)
(2.38692e-06 -1.3291e-06 0)
(2.40717e-06 -1.35273e-06 0)
(2.4371e-06 -1.38015e-06 0)
(2.47359e-06 -1.40993e-06 0)
(2.48692e-06 -1.52747e-06 0)
(2.2987e-06 -1.49675e-06 0)
(2.17885e-06 -1.47763e-06 0)
(2.10828e-06 -1.47694e-06 0)
(2.07144e-06 -1.48522e-06 0)
(2.05844e-06 -1.50197e-06 0)
(2.06276e-06 -1.52412e-06 0)
(2.07969e-06 -1.55064e-06 0)
(2.10589e-06 -1.58034e-06 0)
(2.13841e-06 -1.61161e-06 0)
(2.17009e-06 -1.63252e-06 0)
(1.98582e-06 -1.63398e-06 0)
(1.86847e-06 -1.63525e-06 0)
(1.7987e-06 -1.64814e-06 0)
(1.76154e-06 -1.66526e-06 0)
(1.74715e-06 -1.68804e-06 0)
(1.74918e-06 -1.7143e-06 0)
(1.76315e-06 -1.74369e-06 0)
(1.78584e-06 -1.77556e-06 0)
(1.81437e-06 -1.80845e-06 0)
(1.84619e-06 -1.72724e-06 0)
(1.67365e-06 -1.76057e-06 0)
(1.56378e-06 -1.78204e-06 0)
(1.49808e-06 -1.80833e-06 0)
(1.46258e-06 -1.83414e-06 0)
(1.44793e-06 -1.86284e-06 0)
(1.44834e-06 -1.89307e-06 0)
(1.45963e-06 -1.92526e-06 0)
(1.47891e-06 -1.95921e-06 0)
(1.50336e-06 -1.99381e-06 0)
(1.51669e-06 -1.80972e-06 0)
(1.36356e-06 -1.87285e-06 0)
(1.26608e-06 -1.91323e-06 0)
(1.20746e-06 -1.95207e-06 0)
(1.17542e-06 -1.98598e-06 0)
(1.16163e-06 -2.02017e-06 0)
(1.16109e-06 -2.05407e-06 0)
(1.16999e-06 -2.08886e-06 0)
(1.18586e-06 -2.12473e-06 0)
(1.20604e-06 -2.161e-06 0)
(1.18329e-06 -1.87806e-06 0)
(1.05631e-06 -1.96733e-06 0)
(9.75494e-07 -2.0243e-06 0)
(9.26692e-07 -2.07412e-06 0)
(8.99837e-07 -2.11511e-06 0)
(8.87976e-07 -2.15409e-06 0)
(8.87002e-07 -2.19118e-06 0)
(8.93691e-07 -2.22827e-06 0)
(9.06079e-07 -2.26582e-06 0)
(9.21869e-07 -2.30362e-06 0)
(8.471e-07 -1.93079e-06 0)
(7.51959e-07 -2.04105e-06 0)
(6.91446e-07 -2.11131e-06 0)
(6.54849e-07 -2.16991e-06 0)
(6.34618e-07 -2.21661e-06 0)
(6.25518e-07 -2.25945e-06 0)
(6.24485e-07 -2.29914e-06 0)
(6.29106e-07 -2.33808e-06 0)
(6.37972e-07 -2.37697e-06 0)
(6.49292e-07 -2.41603e-06 0)
(5.09044e-07 -1.96663e-06 0)
(4.50147e-07 -2.09155e-06 0)
(4.12721e-07 -2.1711e-06 0)
(3.90003e-07 -2.23589e-06 0)
(3.77369e-07 -2.28658e-06 0)
(3.71614e-07 -2.33208e-06 0)
(3.70878e-07 -2.37359e-06 0)
(3.73619e-07 -2.41388e-06 0)
(3.78936e-07 -2.45374e-06 0)
(3.8573e-07 -2.49372e-06 0)
(1.70008e-07 -1.98469e-06 0)
(1.50061e-07 -2.11719e-06 0)
(1.37313e-07 -2.20153e-06 0)
(1.29585e-07 -2.26949e-06 0)
(1.25321e-07 -2.32223e-06 0)
(1.23339e-07 -2.36915e-06 0)
(1.2301e-07 -2.41158e-06 0)
(1.23895e-07 -2.45254e-06 0)
(1.2568e-07 -2.49289e-06 0)
(1.27939e-07 -2.53336e-06 0)
(4.82046e-06 -5.90557e-08 0)
(4.86364e-06 -4.25798e-08 0)
(4.89011e-06 -3.21542e-08 0)
(4.91882e-06 -2.6038e-08 0)
(4.95029e-06 -2.26569e-08 0)
(4.98887e-06 -2.11416e-08 0)
(5.03454e-06 -2.08793e-08 0)
(5.08773e-06 -2.13822e-08 0)
(5.14836e-06 -2.25244e-08 0)
(5.2156e-06 -2.39135e-08 0)
(4.78479e-06 -1.77194e-07 0)
(4.82081e-06 -1.28726e-07 0)
(4.84278e-06 -9.80781e-08 0)
(4.86846e-06 -8.02226e-08 0)
(4.89792e-06 -7.04531e-08 0)
(4.93505e-06 -6.60101e-08 0)
(4.97971e-06 -6.52945e-08 0)
(5.03208e-06 -6.70133e-08 0)
(5.09198e-06 -7.04734e-08 0)
(5.15848e-06 -7.45484e-08 0)
(4.71359e-06 -2.96299e-07 0)
(4.73589e-06 -2.1853e-07 0)
(4.74921e-06 -1.69401e-07 0)
(4.76913e-06 -1.40725e-07 0)
(4.7948e-06 -1.25147e-07 0)
(4.82927e-06 -1.18296e-07 0)
(4.87191e-06 -1.17375e-07 0)
(4.9227e-06 -1.20325e-07 0)
(4.98121e-06 -1.26051e-07 0)
(5.04625e-06 -1.32858e-07 0)
(4.60811e-06 -4.16948e-07 0)
(4.61091e-06 -3.14052e-07 0)
(4.61185e-06 -2.49158e-07 0)
(4.62361e-06 -2.11461e-07 0)
(4.64384e-06 -1.91065e-07 0)
(4.67449e-06 -1.82295e-07 0)
(4.71432e-06 -1.81389e-07 0)
(4.76287e-06 -1.85715e-07 0)
(4.81943e-06 -1.93725e-07 0)
(4.88247e-06 -2.03284e-07 0)
(4.46994e-06 -5.39429e-07 0)
(4.44868e-06 -4.17039e-07 0)
(4.43432e-06 -3.39884e-07 0)
(4.43594e-06 -2.95399e-07 0)
(4.44945e-06 -2.71548e-07 0)
(4.47536e-06 -2.61672e-07 0)
(4.51168e-06 -2.61219e-07 0)
(4.5574e-06 -2.67114e-07 0)
(4.61154e-06 -2.77388e-07 0)
(4.67217e-06 -2.8965e-07 0)
(4.30115e-06 -6.63829e-07 0)
(4.25264e-06 -5.28644e-07 0)
(4.22104e-06 -4.4341e-07 0)
(4.21121e-06 -3.9477e-07 0)
(4.21709e-06 -3.69095e-07 0)
(4.23757e-06 -3.59083e-07 0)
(4.26993e-06 -3.59576e-07 0)
(4.31241e-06 -3.67217e-07 0)
(4.36378e-06 -3.79736e-07 0)
(4.42168e-06 -3.94658e-07 0)
(4.10427e-06 -7.89917e-07 0)
(4.02693e-06 -6.4934e-07 0)
(3.9771e-06 -5.60687e-07 0)
(3.95517e-06 -5.10819e-07 0)
(3.95297e-06 -4.85075e-07 0)
(3.96769e-06 -4.75979e-07 0)
(3.99578e-06 -4.77973e-07 0)
(4.0348e-06 -4.87567e-07 0)
(4.08311e-06 -5.02342e-07 0)
(4.13814e-06 -5.19842e-07 0)
(3.88186e-06 -9.1707e-07 0)
(3.77598e-06 -7.78817e-07 0)
(3.7081e-06 -6.91596e-07 0)
(3.67411e-06 -6.43552e-07 0)
(3.66386e-06 -6.19584e-07 0)
(3.67275e-06 -6.12518e-07 0)
(3.69643e-06 -6.16611e-07 0)
(3.73185e-06 -6.28452e-07 0)
(3.77695e-06 -6.4552e-07 0)
(3.829e-06 -6.65556e-07 0)
(3.63682e-06 -1.04443e-06 0)
(3.50439e-06 -9.15994e-07 0)
(3.41976e-06 -8.35011e-07 0)
(3.37447e-06 -7.91791e-07 0)
(3.35658e-06 -7.71446e-07 0)
(3.3598e-06 -7.67485e-07 0)
(3.37906e-06 -7.74299e-07 0)
(3.41082e-06 -7.8864e-07 0)
(3.45253e-06 -8.08147e-07 0)
(3.50157e-06 -8.30471e-07 0)
(3.37203e-06 -1.17078e-06 0)
(3.21678e-06 -1.0591e-06 0)
(3.11771e-06 -9.8874e-07 0)
(3.06255e-06 -9.53169e-07 0)
(3.03782e-06 -9.38188e-07 0)
(3.03586e-06 -9.38386e-07 0)
(3.051e-06 -9.48548e-07 0)
(3.07915e-06 -9.65892e-07 0)
(3.11759e-06 -9.8803e-07 0)
(3.16325e-06 -1.01369e-06 0)
(5.2896e-06 -2.52526e-08 0)
(5.37023e-06 -2.55661e-08 0)
(5.45596e-06 -2.59202e-08 0)
(5.54647e-06 -2.61749e-08 0)
(5.6412e-06 -2.63081e-08 0)
(5.73983e-06 -2.63088e-08 0)
(5.84189e-06 -2.61328e-08 0)
(5.94698e-06 -2.58098e-08 0)
(6.05481e-06 -2.53487e-08 0)
(6.16506e-06 -2.4712e-08 0)
(6.27738e-06 -2.38673e-08 0)
(6.39143e-06 -2.28055e-08 0)
(6.50692e-06 -2.15175e-08 0)
(6.6235e-06 -1.99946e-08 0)
(6.74088e-06 -1.82129e-08 0)
(6.85864e-06 -1.61296e-08 0)
(6.97654e-06 -1.36903e-08 0)
(7.09384e-06 -1.08458e-08 0)
(7.21068e-06 -7.53241e-09 0)
(7.32526e-06 -3.72937e-09 0)
(5.23501e-06 -7.82765e-08 0)
(5.3202e-06 -7.88797e-08 0)
(5.41e-06 -7.96332e-08 0)
(5.50407e-06 -8.01341e-08 0)
(5.60199e-06 -8.02694e-08 0)
(5.70341e-06 -8.00685e-08 0)
(5.80798e-06 -7.94549e-08 0)
(5.91538e-06 -7.8432e-08 0)
(6.02532e-06 -7.69327e-08 0)
(6.13747e-06 -7.48829e-08 0)
(6.25153e-06 -7.22546e-08 0)
(6.36721e-06 -6.9038e-08 0)
(6.48424e-06 -6.51783e-08 0)
(6.60228e-06 -6.06018e-08 0)
(6.72104e-06 -5.52163e-08 0)
(6.8401e-06 -4.89191e-08 0)
(6.95926e-06 -4.15769e-08 0)
(7.07777e-06 -3.30545e-08 0)
(7.19581e-06 -2.31486e-08 0)
(7.31153e-06 -1.17741e-08 0)
(5.12771e-06 -1.38247e-07 0)
(5.22188e-06 -1.38136e-07 0)
(5.3197e-06 -1.38354e-07 0)
(5.42067e-06 -1.38403e-07 0)
(5.52478e-06 -1.38004e-07 0)
(5.63173e-06 -1.37189e-07 0)
(5.74131e-06 -1.35763e-07 0)
(5.85318e-06 -1.33699e-07 0)
(5.96718e-06 -1.30881e-07 0)
(6.08305e-06 -1.27232e-07 0)
(6.20055e-06 -1.22707e-07 0)
(6.31944e-06 -1.17253e-07 0)
(6.43945e-06 -1.10743e-07 0)
(6.56028e-06 -1.0304e-07 0)
(6.68168e-06 -9.39987e-08 0)
(6.80328e-06 -8.34631e-08 0)
(6.92489e-06 -7.12129e-08 0)
(7.04581e-06 -5.70249e-08 0)
(7.16621e-06 -4.0555e-08 0)
(7.28431e-06 -2.1642e-08 0)
(4.97095e-06 -2.09101e-07 0)
(5.07793e-06 -2.0668e-07 0)
(5.18732e-06 -2.04916e-07 0)
(5.29838e-06 -2.03417e-07 0)
(5.41157e-06 -2.01578e-07 0)
(5.52654e-06 -1.99428e-07 0)
(5.64337e-06 -1.96593e-07 0)
(5.7618e-06 -1.93024e-07 0)
(5.88182e-06 -1.88535e-07 0)
(6.00321e-06 -1.83017e-07 0)
(6.1258e-06 -1.76371e-07 0)
(6.24938e-06 -1.68478e-07 0)
(6.37377e-06 -1.59154e-07 0)
(6.49872e-06 -1.4822e-07 0)
(6.62403e-06 -1.35486e-07 0)
(6.74936e-06 -1.20709e-07 0)
(6.87457e-06 -1.03577e-07 0)
(6.99898e-06 -8.37637e-08 0)
(7.12278e-06 -6.07701e-08 0)
(7.2443e-06 -3.43911e-08 0)
(4.76941e-06 -2.94304e-07 0)
(4.89253e-06 -2.87539e-07 0)
(5.01663e-06 -2.81977e-07 0)
(5.14044e-06 -2.77545e-07 0)
(5.26519e-06 -2.73076e-07 0)
(5.39044e-06 -2.68623e-07 0)
(5.51662e-06 -2.63593e-07 0)
(5.64351e-06 -2.57905e-07 0)
(5.77125e-06 -2.51246e-07 0)
(5.8997e-06 -2.43447e-07 0)
(6.02882e-06 -2.34351e-07 0)
(6.15849e-06 -2.23774e-07 0)
(6.28859e-06 -2.11465e-07 0)
(6.4189e-06 -1.97184e-07 0)
(6.5493e-06 -1.80676e-07 0)
(6.67946e-06 -1.61612e-07 0)
(6.80933e-06 -1.39591e-07 0)
(6.93824e-06 -1.1419e-07 0)
(7.06648e-06 -8.47439e-08 0)
(7.19242e-06 -5.10029e-08 0)
(4.5288e-06 -3.96381e-07 0)
(4.67046e-06 -3.82913e-07 0)
(4.81177e-06 -3.71369e-07 0)
(4.95067e-06 -3.62285e-07 0)
(5.08917e-06 -3.53773e-07 0)
(5.22673e-06 -3.45869e-07 0)
(5.36402e-06 -3.37711e-07 0)
(5.50104e-06 -3.29114e-07 0)
(5.63804e-06 -3.19678e-07 0)
(5.77501e-06 -3.09139e-07 0)
(5.91202e-06 -2.97249e-07 0)
(6.04903e-06 -2.83729e-07 0)
(6.18597e-06 -2.68247e-07 0)
(6.32271e-06 -2.50494e-07 0)
(6.4592e-06 -2.30131e-07 0)
(6.59516e-06 -2.06757e-07 0)
(6.73063e-06 -1.79869e-07 0)
(6.86495e-06 -1.48958e-07 0)
(6.99854e-06 -1.13189e-07 0)
(7.12981e-06 -7.22195e-08 0)
(4.25583e-06 -5.16874e-07 0)
(4.41769e-06 -4.94294e-07 0)
(4.57802e-06 -4.74593e-07 0)
(4.7337e-06 -4.59017e-07 0)
(4.88754e-06 -4.44966e-07 0)
(5.03894e-06 -4.32314e-07 0)
(5.18883e-06 -4.20035e-07 0)
(5.33735e-06 -4.07714e-07 0)
(5.48492e-06 -3.94847e-07 0)
(5.63165e-06 -3.81042e-07 0)
(5.7777e-06 -3.65929e-07 0)
(5.9231e-06 -3.49118e-07 0)
(6.06788e-06 -3.30196e-07 0)
(6.212e-06 -3.08787e-07 0)
(6.35548e-06 -2.84462e-07 0)
(6.49812e-06 -2.56744e-07 0)
(6.64001e-06 -2.25019e-07 0)
(6.78059e-06 -1.88671e-07 0)
(6.92029e-06 -1.46707e-07 0)
(7.05766e-06 -9.86768e-08 0)
(3.95718e-06 -6.56154e-07 0)
(4.1399e-06 -6.21801e-07 0)
(4.32022e-06 -5.9177e-07 0)
(4.49391e-06 -5.67643e-07 0)
(4.66432e-06 -5.46481e-07 0)
(4.83082e-06 -5.27718e-07 0)
(4.99459e-06 -5.10231e-07 0)
(5.15584e-06 -4.93323e-07 0)
(5.31509e-06 -4.76346e-07 0)
(5.4726e-06 -4.58742e-07 0)
(5.62862e-06 -4.39995e-07 0)
(5.7833e-06 -4.196e-07 0)
(5.93675e-06 -3.97054e-07 0)
(6.08905e-06 -3.71892e-07 0)
(6.24028e-06 -3.43589e-07 0)
(6.39034e-06 -3.11572e-07 0)
(6.53933e-06 -2.75105e-07 0)
(6.68682e-06 -2.3346e-07 0)
(6.83327e-06 -1.85482e-07 0)
(6.97739e-06 -1.30619e-07 0)
(3.64005e-06 -8.13934e-07 0)
(3.84377e-06 -7.65594e-07 0)
(4.04417e-06 -7.23834e-07 0)
(4.23653e-06 -6.89381e-07 0)
(4.42409e-06 -6.59705e-07 0)
(4.60648e-06 -6.33581e-07 0)
(4.78484e-06 -6.09802e-07 0)
(4.95959e-06 -5.87378e-07 0)
(5.13129e-06 -5.655e-07 0)
(5.30034e-06 -5.4343e-07 0)
(5.46708e-06 -5.20507e-07 0)
(5.63174e-06 -4.96107e-07 0)
(5.79457e-06 -4.69631e-07 0)
(5.95573e-06 -4.40506e-07 0)
(6.11535e-06 -4.08095e-07 0)
(6.27341e-06 -3.71717e-07 0)
(6.43008e-06 -3.30515e-07 0)
(6.58502e-06 -2.83649e-07 0)
(6.73876e-06 -2.29828e-07 0)
(6.89022e-06 -1.68404e-07 0)
(3.31048e-06 -9.8753e-07 0)
(3.53561e-06 -9.21701e-07 0)
(3.75544e-06 -8.66732e-07 0)
(3.96701e-06 -8.20302e-07 0)
(4.17208e-06 -7.80739e-07 0)
(4.37102e-06 -7.46153e-07 0)
(4.56461e-06 -7.15178e-07 0)
(4.75347e-06 -6.86569e-07 0)
(4.93821e-06 -6.59299e-07 0)
(5.11934e-06 -6.32425e-07 0)
(5.29728e-06 -6.05119e-07 0)
(5.4724e-06 -5.76615e-07 0)
(5.64502e-06 -5.46188e-07 0)
(5.81539e-06 -5.13146e-07 0)
(5.98371e-06 -4.76732e-07 0)
(6.15007e-06 -4.36156e-07 0)
(6.31469e-06 -3.90453e-07 0)
(6.47736e-06 -3.38651e-07 0)
(6.6387e-06 -2.79344e-07 0)
(6.79785e-06 -2.11746e-07 0)
(3.06498e-06 -1.15491e-06 0)
(3.30474e-06 -1.07459e-06 0)
(3.53642e-06 -1.00956e-06 0)
(3.76004e-06 -9.53437e-07 0)
(3.9763e-06 -9.05081e-07 0)
(4.18586e-06 -8.62505e-07 0)
(4.38943e-06 -8.24271e-07 0)
(4.58764e-06 -7.89087e-07 0)
(4.78112e-06 -7.55826e-07 0)
(4.97034e-06 -7.23453e-07 0)
(5.1558e-06 -6.91059e-07 0)
(5.33788e-06 -6.57797e-07 0)
(5.51697e-06 -6.2286e-07 0)
(5.69335e-06 -5.8547e-07 0)
(5.86727e-06 -5.44802e-07 0)
(6.03889e-06 -4.99988e-07 0)
(6.20849e-06 -4.50033e-07 0)
(6.37604e-06 -3.93889e-07 0)
(6.54213e-06 -3.30135e-07 0)
(6.70619e-06 -2.57912e-07 0)
(2.92505e-06 -1.29141e-06 0)
(3.16652e-06 -1.20794e-06 0)
(3.40019e-06 -1.13718e-06 0)
(3.62694e-06 -1.07503e-06 0)
(3.8468e-06 -1.02043e-06 0)
(4.06021e-06 -9.71698e-07 0)
(4.26769e-06 -9.27488e-07 0)
(4.46974e-06 -8.86573e-07 0)
(4.66686e-06 -8.47839e-07 0)
(4.85949e-06 -8.1027e-07 0)
(5.04809e-06 -7.72954e-07 0)
(5.23305e-06 -7.35034e-07 0)
(5.41473e-06 -6.95677e-07 0)
(5.59344e-06 -6.54081e-07 0)
(5.76943e-06 -6.09415e-07 0)
(5.94295e-06 -5.60789e-07 0)
(6.11426e-06 -5.07251e-07 0)
(6.28349e-06 -4.47753e-07 0)
(6.45122e-06 -3.80948e-07 0)
(6.61709e-06 -3.05988e-07 0)
(2.80583e-06 -1.42214e-06 0)
(3.04492e-06 -1.33685e-06 0)
(3.27827e-06 -1.26249e-06 0)
(3.5056e-06 -1.19583e-06 0)
(3.7269e-06 -1.13612e-06 0)
(3.94223e-06 -1.08202e-06 0)
(4.15195e-06 -1.03238e-06 0)
(4.35638e-06 -9.8609e-07 0)
(4.55591e-06 -9.42116e-07 0)
(4.75092e-06 -8.995e-07 0)
(4.9418e-06 -8.57357e-07 0)
(5.1289e-06 -8.14837e-07 0)
(5.31258e-06 -7.71105e-07 0)
(5.49313e-06 -7.25361e-07 0)
(5.67081e-06 -6.76782e-07 0)
(5.84592e-06 -6.24483e-07 0)
(6.01874e-06 -5.67557e-07 0)
(6.18949e-06 -5.05001e-07 0)
(6.3587e-06 -4.35544e-07 0)
(6.52628e-06 -3.58392e-07 0)
(2.70081e-06 -1.54822e-06 0)
(2.93646e-06 -1.46208e-06 0)
(3.16783e-06 -1.38502e-06 0)
(3.39413e-06 -1.31467e-06 0)
(3.61524e-06 -1.25058e-06 0)
(3.83102e-06 -1.19174e-06 0)
(4.04167e-06 -1.13718e-06 0)
(4.24732e-06 -1.08592e-06 0)
(4.44826e-06 -1.03705e-06 0)
(4.64478e-06 -9.8966e-07 0)
(4.83722e-06 -9.42922e-07 0)
(5.02586e-06 -8.96008e-07 0)
(5.21104e-06 -8.48098e-07 0)
(5.39302e-06 -7.9841e-07 0)
(5.57208e-06 -7.46141e-07 0)
(5.74853e-06 -6.90436e-07 0)
(5.92266e-06 -6.30443e-07 0)
(6.09476e-06 -5.65212e-07 0)
(6.26534e-06 -4.93571e-07 0)
(6.43454e-06 -4.14817e-07 0)
(2.6083e-06 -1.66896e-06 0)
(2.83961e-06 -1.58269e-06 0)
(3.06786e-06 -1.50393e-06 0)
(3.29189e-06 -1.43084e-06 0)
(3.51161e-06 -1.36324e-06 0)
(3.72667e-06 -1.30039e-06 0)
(3.93712e-06 -1.24151e-06 0)
(4.14299e-06 -1.18579e-06 0)
(4.34446e-06 -1.13242e-06 0)
(4.54173e-06 -1.0806e-06 0)
(4.73505e-06 -1.02955e-06 0)
(4.92466e-06 -9.7848e-07 0)
(5.11085e-06 -9.2661e-07 0)
(5.29388e-06 -8.73194e-07 0)
(5.474e-06 -8.1746e-07 0)
(5.65154e-06 -7.58601e-07 0)
(5.82678e-06 -6.95823e-07 0)
(6.00007e-06 -6.28246e-07 0)
(6.17189e-06 -5.54821e-07 0)
(6.34256e-06 -4.74967e-07 0)
(2.52605e-06 -1.78456e-06 0)
(2.75257e-06 -1.69869e-06 0)
(2.97701e-06 -1.61887e-06 0)
(3.19795e-06 -1.54375e-06 0)
(3.4154e-06 -1.47335e-06 0)
(3.62883e-06 -1.40713e-06 0)
(3.83822e-06 -1.34452e-06 0)
(4.04349e-06 -1.28486e-06 0)
(4.24474e-06 -1.22745e-06 0)
(4.44208e-06 -1.17159e-06 0)
(4.6357e-06 -1.11657e-06 0)
(4.82577e-06 -1.06165e-06 0)
(5.01254e-06 -1.00611e-06 0)
(5.19624e-06 -9.49241e-07 0)
(5.37711e-06 -8.90318e-07 0)
(5.5555e-06 -8.28601e-07 0)
(5.73165e-06 -7.63352e-07 0)
(5.90595e-06 -6.93774e-07 0)
(6.07888e-06 -6.18962e-07 0)
(6.25085e-06 -5.38444e-07 0)
(2.4524e-06 -1.89519e-06 0)
(2.67388e-06 -1.81007e-06 0)
(2.89406e-06 -1.72974e-06 0)
(3.11138e-06 -1.6532e-06 0)
(3.32592e-06 -1.58062e-06 0)
(3.53705e-06 -1.51164e-06 0)
(3.74471e-06 -1.44587e-06 0)
(3.94873e-06 -1.38278e-06 0)
(4.14915e-06 -1.3218e-06 0)
(4.34599e-06 -1.26231e-06 0)
(4.53939e-06 -1.20368e-06 0)
(4.72946e-06 -1.14525e-06 0)
(4.91642e-06 -1.08634e-06 0)
(5.10047e-06 -1.02632e-06 0)
(5.28183e-06 -9.64489e-07 0)
(5.46081e-06 -9.00204e-07 0)
(5.63768e-06 -8.32785e-07 0)
(5.81284e-06 -7.6153e-07 0)
(5.98674e-06 -6.85686e-07 0)
(6.15982e-06 -6.04834e-07 0)
(2.3858e-06 -2.00112e-06 0)
(2.60219e-06 -1.917e-06 0)
(2.81783e-06 -1.83654e-06 0)
(3.03123e-06 -1.75905e-06 0)
(3.24242e-06 -1.6848e-06 0)
(3.45077e-06 -1.6136e-06 0)
(3.65619e-06 -1.54517e-06 0)
(3.85846e-06 -1.47915e-06 0)
(4.05754e-06 -1.41504e-06 0)
(4.25342e-06 -1.35234e-06 0)
(4.44617e-06 -1.29049e-06 0)
(4.63587e-06 -1.2289e-06 0)
(4.82269e-06 -1.16695e-06 0)
(5.00679e-06 -1.10409e-06 0)
(5.18839e-06 -1.03966e-06 0)
(5.36778e-06 -9.73109e-07 0)
(5.5452e-06 -9.03827e-07 0)
(5.72106e-06 -8.31208e-07 0)
(5.89577e-06 -7.54634e-07 0)
(6.0698e-06 -6.73714e-07 0)
(2.32486e-06 -2.10266e-06 0)
(2.53619e-06 -2.01967e-06 0)
(2.7472e-06 -1.93937e-06 0)
(2.95647e-06 -1.8613e-06 0)
(3.16405e-06 -1.78582e-06 0)
(3.36931e-06 -1.71284e-06 0)
(3.57215e-06 -1.64224e-06 0)
(3.7723e-06 -1.57373e-06 0)
(3.96968e-06 -1.50693e-06 0)
(4.16424e-06 -1.44142e-06 0)
(4.35601e-06 -1.37674e-06 0)
(4.54503e-06 -1.31235e-06 0)
(4.73144e-06 -1.2477e-06 0)
(4.91537e-06 -1.18232e-06 0)
(5.097e-06 -1.11561e-06 0)
(5.27662e-06 -1.04709e-06 0)
(5.45444e-06 -9.76235e-07 0)
(5.63087e-06 -9.02531e-07 0)
(5.80622e-06 -8.25461e-07 0)
(5.98107e-06 -7.44719e-07 0)
(2.26836e-06 -2.20015e-06 0)
(2.47471e-06 -2.11836e-06 0)
(2.68112e-06 -2.0384e-06 0)
(2.8862e-06 -1.96003e-06 0)
(3.09004e-06 -1.88367e-06 0)
(3.29204e-06 -1.8093e-06 0)
(3.49207e-06 -1.73693e-06 0)
(3.68985e-06 -1.66635e-06 0)
(3.88526e-06 -1.59727e-06 0)
(4.07824e-06 -1.52935e-06 0)
(4.26878e-06 -1.46221e-06 0)
(4.45689e-06 -1.39538e-06 0)
(4.64268e-06 -1.32838e-06 0)
(4.82624e-06 -1.2608e-06 0)
(5.00774e-06 -1.19211e-06 0)
(5.18744e-06 -1.12191e-06 0)
(5.36552e-06 -1.04976e-06 0)
(5.54236e-06 -9.75213e-07 0)
(5.71823e-06 -8.97844e-07 0)
(5.89374e-06 -8.17488e-07 0)
(2.21521e-06 -2.29393e-06 0)
(2.41674e-06 -2.21334e-06 0)
(2.61861e-06 -2.13384e-06 0)
(2.81954e-06 -2.05538e-06 0)
(3.01962e-06 -1.97841e-06 0)
(3.21828e-06 -1.903e-06 0)
(3.41537e-06 -1.82921e-06 0)
(3.61063e-06 -1.75694e-06 0)
(3.80391e-06 -1.68596e-06 0)
(3.99514e-06 -1.616e-06 0)
(4.18428e-06 -1.54676e-06 0)
(4.3713e-06 -1.47784e-06 0)
(4.55631e-06 -1.40881e-06 0)
(4.73936e-06 -1.33934e-06 0)
(4.9206e-06 -1.26898e-06 0)
(5.10025e-06 -1.19738e-06 0)
(5.27846e-06 -1.12417e-06 0)
(5.45558e-06 -1.04897e-06 0)
(5.63188e-06 -9.71487e-07 0)
(5.80789e-06 -8.91635e-07 0)
(2.16445e-06 -2.3843e-06 0)
(2.36137e-06 -2.30486e-06 0)
(2.55882e-06 -2.22591e-06 0)
(2.75569e-06 -2.14752e-06 0)
(2.95205e-06 -2.07017e-06 0)
(3.14736e-06 -1.99398e-06 0)
(3.34148e-06 -1.9191e-06 0)
(3.53414e-06 -1.84546e-06 0)
(3.72521e-06 -1.77293e-06 0)
(3.91459e-06 -1.70128e-06 0)
(4.10222e-06 -1.63028e-06 0)
(4.28807e-06 -1.55959e-06 0)
(4.47219e-06 -1.48886e-06 0)
(4.65465e-06 -1.41781e-06 0)
(4.83553e-06 -1.34605e-06 0)
(5.01503e-06 -1.27329e-06 0)
(5.19327e-06 -1.19924e-06 0)
(5.37057e-06 -1.12356e-06 0)
(5.54719e-06 -1.04613e-06 0)
(5.72357e-06 -9.66826e-07 0)
(2.11527e-06 -2.47155e-06 0)
(2.30776e-06 -2.39321e-06 0)
(2.50097e-06 -2.31484e-06 0)
(2.69391e-06 -2.23665e-06 0)
(2.88662e-06 -2.1591e-06 0)
(3.07863e-06 -2.08237e-06 0)
(3.2698e-06 -2.00665e-06 0)
(3.45989e-06 -1.93195e-06 0)
(3.64874e-06 -1.85818e-06 0)
(3.83625e-06 -1.78516e-06 0)
(4.02235e-06 -1.71273e-06 0)
(4.20697e-06 -1.64059e-06 0)
(4.39016e-06 -1.56846e-06 0)
(4.57194e-06 -1.49611e-06 0)
(4.75239e-06 -1.42322e-06 0)
(4.93167e-06 -1.34952e-06 0)
(5.10985e-06 -1.27479e-06 0)
(5.28727e-06 -1.19881e-06 0)
(5.46406e-06 -1.12152e-06 0)
(5.64073e-06 -1.04281e-06 0)
(2.06686e-06 -2.55595e-06 0)
(2.25513e-06 -2.47865e-06 0)
(2.44428e-06 -2.40088e-06 0)
(2.63343e-06 -2.32295e-06 0)
(2.82263e-06 -2.24534e-06 0)
(3.01147e-06 -2.16827e-06 0)
(3.1998e-06 -2.09197e-06 0)
(3.38738e-06 -2.01648e-06 0)
(3.57407e-06 -1.94176e-06 0)
(3.75974e-06 -1.86767e-06 0)
(3.9443e-06 -1.79409e-06 0)
(4.12769e-06 -1.72079e-06 0)
(4.30993e-06 -1.64754e-06 0)
(4.49102e-06 -1.57414e-06 0)
(4.671e-06 -1.50033e-06 0)
(4.84999e-06 -1.42588e-06 0)
(5.02806e-06 -1.35066e-06 0)
(5.20552e-06 -1.2745e-06 0)
(5.38242e-06 -1.19737e-06 0)
(5.55926e-06 -1.11931e-06 0)
(2.0184e-06 -2.63776e-06 0)
(2.20266e-06 -2.56141e-06 0)
(2.38794e-06 -2.48424e-06 0)
(2.5735e-06 -2.40665e-06 0)
(2.75939e-06 -2.32911e-06 0)
(2.94523e-06 -2.25188e-06 0)
(3.13088e-06 -2.17521e-06 0)
(3.31608e-06 -2.09917e-06 0)
(3.50071e-06 -2.02374e-06 0)
(3.68463e-06 -1.94884e-06 0)
(3.86773e-06 -1.87439e-06 0)
(4.04995e-06 -1.80021e-06 0)
(4.23128e-06 -1.72608e-06 0)
(4.41169e-06 -1.65187e-06 0)
(4.59118e-06 -1.57733e-06 0)
(4.76987e-06 -1.50232e-06 0)
(4.94782e-06 -1.42674e-06 0)
(5.12523e-06 -1.35049e-06 0)
(5.30223e-06 -1.27358e-06 0)
(5.47915e-06 -1.19611e-06 0)
(1.96912e-06 -2.71718e-06 0)
(2.14956e-06 -2.64178e-06 0)
(2.33116e-06 -2.56513e-06 0)
(2.51339e-06 -2.48793e-06 0)
(2.69622e-06 -2.41059e-06 0)
(2.87929e-06 -2.33336e-06 0)
(3.06247e-06 -2.25651e-06 0)
(3.2455e-06 -2.18014e-06 0)
(3.42823e-06 -2.10424e-06 0)
(3.61053e-06 -2.02878e-06 0)
(3.7923e-06 -1.9537e-06 0)
(3.97343e-06 -1.87887e-06 0)
(4.1539e-06 -1.80409e-06 0)
(4.33365e-06 -1.72925e-06 0)
(4.51267e-06 -1.65416e-06 0)
(4.69108e-06 -1.57874e-06 0)
(4.86888e-06 -1.50293e-06 0)
(5.04622e-06 -1.42661e-06 0)
(5.22323e-06 -1.34995e-06 0)
(5.40019e-06 -1.27302e-06 0)
(1.91819e-06 -2.7945e-06 0)
(2.09492e-06 -2.71978e-06 0)
(2.27303e-06 -2.64382e-06 0)
(2.45236e-06 -2.56715e-06 0)
(2.6324e-06 -2.49009e-06 0)
(2.81303e-06 -2.413e-06 0)
(2.99399e-06 -2.33612e-06 0)
(3.17509e-06 -2.25959e-06 0)
(3.35616e-06 -2.18341e-06 0)
(3.53706e-06 -2.1076e-06 0)
(3.71765e-06 -2.03212e-06 0)
(3.89782e-06 -1.95682e-06 0)
(4.07752e-06 -1.88157e-06 0)
(4.25668e-06 -1.80629e-06 0)
(4.43529e-06 -1.73083e-06 0)
(4.61345e-06 -1.65511e-06 0)
(4.79109e-06 -1.5791e-06 0)
(4.96837e-06 -1.50277e-06 0)
(5.14532e-06 -1.42635e-06 0)
(5.32232e-06 -1.3499e-06 0)
(1.86443e-06 -2.86965e-06 0)
(2.03799e-06 -2.79571e-06 0)
(2.21325e-06 -2.72057e-06 0)
(2.38978e-06 -2.64444e-06 0)
(2.56742e-06 -2.5678e-06 0)
(2.74589e-06 -2.49097e-06 0)
(2.92497e-06 -2.41421e-06 0)
(3.10445e-06 -2.33769e-06 0)
(3.28414e-06 -2.26144e-06 0)
(3.46388e-06 -2.18545e-06 0)
(3.6435e-06 -2.10973e-06 0)
(3.82285e-06 -2.03415e-06 0)
(4.0019e-06 -1.95861e-06 0)
(4.1806e-06 -1.88303e-06 0)
(4.35889e-06 -1.8073e-06 0)
(4.53678e-06 -1.73138e-06 0)
(4.71423e-06 -1.65524e-06 0)
(4.8915e-06 -1.57893e-06 0)
(5.06847e-06 -1.50269e-06 0)
(5.24535e-06 -1.42667e-06 0)
(1.8071e-06 -2.94342e-06 0)
(1.97777e-06 -2.87037e-06 0)
(2.15045e-06 -2.79587e-06 0)
(2.32471e-06 -2.72033e-06 0)
(2.50038e-06 -2.64417e-06 0)
(2.67715e-06 -2.5677e-06 0)
(2.8548e-06 -2.49119e-06 0)
(3.0331e-06 -2.4148e-06 0)
(3.21177e-06 -2.33859e-06 0)
(3.39063e-06 -2.26257e-06 0)
(3.56952e-06 -2.18674e-06 0)
(3.74831e-06 -2.111e-06 0)
(3.92691e-06 -2.03527e-06 0)
(4.1052e-06 -1.95953e-06 0)
(4.28317e-06 -1.88362e-06 0)
(4.46089e-06 -1.80751e-06 0)
(4.63828e-06 -1.7313e-06 0)
(4.81544e-06 -1.655e-06 0)
(4.99241e-06 -1.57885e-06 0)
(5.16926e-06 -1.50314e-06 0)
(1.74548e-06 -3.01521e-06 0)
(1.91363e-06 -2.94318e-06 0)
(2.08416e-06 -2.86958e-06 0)
(2.25666e-06 -2.79482e-06 0)
(2.43088e-06 -2.71928e-06 0)
(2.60651e-06 -2.64331e-06 0)
(2.78325e-06 -2.56719e-06 0)
(2.96078e-06 -2.49109e-06 0)
(3.13883e-06 -2.41503e-06 0)
(3.31722e-06 -2.33905e-06 0)
(3.49571e-06 -2.26323e-06 0)
(3.67411e-06 -2.18747e-06 0)
(3.85238e-06 -2.11163e-06 0)
(4.03042e-06 -2.03575e-06 0)
(4.20816e-06 -1.95975e-06 0)
(4.38568e-06 -1.88355e-06 0)
(4.563e-06 -1.80728e-06 0)
(4.7401e-06 -1.73093e-06 0)
(4.91712e-06 -1.65481e-06 0)
(5.09396e-06 -1.57923e-06 0)
(1.27537e-07 -2.57473e-06 0)
(3.84315e-07 -2.53698e-06 0)
(6.46156e-07 -2.46292e-06 0)
(9.15948e-07 -2.3556e-06 0)
(1.19597e-06 -2.21909e-06 0)
(1.48765e-06 -2.05854e-06 0)
(1.79153e-06 -1.8798e-06 0)
(2.10705e-06 -1.689e-06 0)
(2.43329e-06 -1.49227e-06 0)
(2.76749e-06 -1.29442e-06 0)
(1.24044e-07 -2.61778e-06 0)
(3.73585e-07 -2.58328e-06 0)
(6.27306e-07 -2.51556e-06 0)
(8.87651e-07 -2.41723e-06 0)
(1.15654e-06 -2.29171e-06 0)
(1.43516e-06 -2.14339e-06 0)
(1.72401e-06 -1.97725e-06 0)
(2.02245e-06 -1.79861e-06 0)
(2.32924e-06 -1.61303e-06 0)
(2.64202e-06 -1.42483e-06 0)
(1.20916e-07 -2.66186e-06 0)
(3.63963e-07 -2.63033e-06 0)
(6.10404e-07 -2.56834e-06 0)
(8.62181e-07 -2.47818e-06 0)
(1.12093e-06 -2.36284e-06 0)
(1.3876e-06 -2.22608e-06 0)
(1.66272e-06 -2.07219e-06 0)
(1.94602e-06 -1.90566e-06 0)
(2.23658e-06 -1.7313e-06 0)
(2.5328e-06 -1.55215e-06 0)
(1.18127e-07 -2.70703e-06 0)
(3.55381e-07 -2.678e-06 0)
(5.95496e-07 -2.6209e-06 0)
(8.39968e-07 -2.53773e-06 0)
(1.09021e-06 -2.43113e-06 0)
(1.34695e-06 -2.30437e-06 0)
(1.61057e-06 -2.16129e-06 0)
(1.88085e-06 -2.00583e-06 0)
(2.15693e-06 -1.84251e-06 0)
(2.4375e-06 -1.67376e-06 0)
(1.15574e-07 -2.75326e-06 0)
(3.47475e-07 -2.72649e-06 0)
(5.81784e-07 -2.67376e-06 0)
(8.1965e-07 -2.59689e-06 0)
(1.06227e-06 -2.4982e-06 0)
(1.31023e-06 -2.38062e-06 0)
(1.56388e-06 -2.24757e-06 0)
(1.82301e-06 -2.10237e-06 0)
(2.08699e-06 -1.94917e-06 0)
(2.3542e-06 -1.79019e-06 0)
(1.13181e-07 -2.8005e-06 0)
(3.4016e-07 -2.77567e-06 0)
(5.69149e-07 -2.72676e-06 0)
(8.01099e-07 -2.65539e-06 0)
(1.03698e-06 -2.56365e-06 0)
(1.2773e-06 -2.4542e-06 0)
(1.52224e-06 -2.33013e-06 0)
(1.77159e-06 -2.19438e-06 0)
(2.025e-06 -2.05073e-06 0)
(2.28058e-06 -1.90136e-06 0)
(1.10882e-07 -2.84868e-06 0)
(3.33199e-07 -2.82559e-06 0)
(5.57186e-07 -2.78009e-06 0)
(7.83686e-07 -2.71365e-06 0)
(1.01344e-06 -2.62816e-06 0)
(1.24691e-06 -2.52604e-06 0)
(1.48424e-06 -2.4101e-06 0)
(1.72509e-06 -2.28297e-06 0)
(1.96938e-06 -2.14803e-06 0)
(2.21497e-06 -2.0076e-06 0)
(1.08697e-07 -2.89769e-06 0)
(3.26518e-07 -2.87614e-06 0)
(5.45765e-07 -2.83367e-06 0)
(7.67181e-07 -2.77159e-06 0)
(9.91338e-07 -2.69168e-06 0)
(1.2186e-06 -2.59613e-06 0)
(1.44913e-06 -2.48752e-06 0)
(1.68249e-06 -2.36827e-06 0)
(1.91879e-06 -2.24136e-06 0)
(2.15577e-06 -2.10922e-06 0)
(1.06568e-07 -2.94745e-06 0)
(3.19991e-07 -2.92729e-06 0)
(5.34678e-07 -2.88752e-06 0)
(7.51249e-07 -2.82938e-06 0)
(9.70185e-07 -2.7545e-06 0)
(1.19178e-06 -2.66486e-06 0)
(1.41616e-06 -2.56287e-06 0)
(1.64286e-06 -2.45078e-06 0)
(1.8721e-06 -2.3312e-06 0)
(2.10163e-06 -2.20665e-06 0)
(1.04428e-07 -2.99787e-06 0)
(3.13538e-07 -2.97893e-06 0)
(5.23785e-07 -2.9416e-06 0)
(7.35691e-07 -2.88699e-06 0)
(9.49666e-07 -2.81664e-06 0)
(1.16599e-06 -2.73233e-06 0)
(1.38474e-06 -2.63632e-06 0)
(1.60542e-06 -2.53074e-06 0)
(1.82835e-06 -2.41786e-06 0)
(2.05136e-06 -2.30024e-06 0)
(1.02262e-07 -3.04883e-06 0)
(3.07098e-07 -3.03101e-06 0)
(5.12932e-07 -2.99587e-06 0)
(7.20281e-07 -2.94445e-06 0)
(9.29474e-07 -2.87819e-06 0)
(1.1408e-06 -2.79871e-06 0)
(1.3543e-06 -2.70813e-06 0)
(1.5695e-06 -2.60845e-06 0)
(1.78671e-06 -2.50169e-06 0)
(2.00393e-06 -2.39036e-06 0)
(1.00086e-07 -3.10019e-06 0)
(3.00609e-07 -3.08339e-06 0)
(5.01995e-07 -3.05026e-06 0)
(7.04823e-07 -3.00173e-06 0)
(9.09353e-07 -2.93916e-06 0)
(1.11586e-06 -2.86409e-06 0)
(1.3244e-06 -2.77843e-06 0)
(1.5345e-06 -2.68411e-06 0)
(1.74646e-06 -2.58294e-06 0)
(1.95848e-06 -2.47733e-06 0)
(9.78769e-08 -3.15186e-06 0)
(2.93965e-07 -3.13599e-06 0)
(4.90828e-07 -3.10468e-06 0)
(6.89099e-07 -3.05879e-06 0)
(8.89014e-07 -2.99959e-06 0)
(1.0908e-06 -2.92853e-06 0)
(1.29457e-06 -2.84737e-06 0)
(1.49986e-06 -2.75793e-06 0)
(1.70694e-06 -2.66185e-06 0)
(1.91425e-06 -2.56146e-06 0)
(9.55837e-08 -3.20368e-06 0)
(2.87051e-07 -3.18865e-06 0)
(4.79275e-07 -3.15902e-06 0)
(6.72893e-07 -3.11554e-06 0)
(8.6816e-07 -3.05944e-06 0)
(1.06527e-06 -2.99205e-06 0)
(1.26436e-06 -2.91501e-06 0)
(1.46504e-06 -2.83003e-06 0)
(1.66752e-06 -2.73863e-06 0)
(1.87046e-06 -2.64299e-06 0)
(9.31583e-08 -3.25552e-06 0)
(2.79773e-07 -3.24127e-06 0)
(4.67184e-07 -3.21318e-06 0)
(6.55991e-07 -3.17194e-06 0)
(8.46496e-07 -3.11869e-06 0)
(1.03888e-06 -3.05469e-06 0)
(1.23331e-06 -2.98144e-06 0)
(1.42948e-06 -2.90056e-06 0)
(1.62754e-06 -2.81347e-06 0)
(1.82634e-06 -2.72217e-06 0)
(9.05782e-08 -3.30712e-06 0)
(2.72064e-07 -3.2936e-06 0)
(4.54413e-07 -3.26694e-06 0)
(6.38176e-07 -3.2278e-06 0)
(8.23721e-07 -3.1772e-06 0)
(1.01125e-06 -3.11634e-06 0)
(1.20097e-06 -3.04661e-06 0)
(1.39265e-06 -2.96954e-06 0)
(1.58636e-06 -2.88644e-06 0)
(1.78117e-06 -2.79913e-06 0)
(8.78244e-08 -3.3584e-06 0)
(2.63834e-07 -3.34557e-06 0)
(4.4077e-07 -3.32027e-06 0)
(6.19172e-07 -3.28309e-06 0)
(7.99486e-07 -3.235e-06 0)
(9.81953e-07 -3.17708e-06 0)
(1.16681e-06 -3.11066e-06 0)
(1.35388e-06 -3.03717e-06 0)
(1.54323e-06 -2.95778e-06 0)
(1.73406e-06 -2.8742e-06 0)
(8.48612e-08 -3.40885e-06 0)
(2.54954e-07 -3.39668e-06 0)
(4.2604e-07 -3.37267e-06 0)
(5.98686e-07 -3.33736e-06 0)
(7.73407e-07 -3.29164e-06 0)
(9.5051e-07 -3.23653e-06 0)
(1.13025e-06 -3.17327e-06 0)
(1.3125e-06 -3.10317e-06 0)
(1.49736e-06 -3.02729e-06 0)
(1.68418e-06 -2.94723e-06 0)
(8.16191e-08 -3.45869e-06 0)
(2.45226e-07 -3.44716e-06 0)
(4.09906e-07 -3.4244e-06 0)
(5.76294e-07 -3.3909e-06 0)
(7.44952e-07 -3.34748e-06 0)
(9.16264e-07 -3.2951e-06 0)
(1.09052e-06 -3.23487e-06 0)
(1.26768e-06 -3.16801e-06 0)
(1.44781e-06 -3.09554e-06 0)
(1.63051e-06 -3.01884e-06 0)
(7.80619e-08 -3.50652e-06 0)
(2.34568e-07 -3.49562e-06 0)
(3.92238e-07 -3.4741e-06 0)
(5.51787e-07 -3.4424e-06 0)
(7.13853e-07 -3.40127e-06 0)
(8.78882e-07 -3.3516e-06 0)
(1.04719e-06 -3.2944e-06 0)
(1.21891e-06 -3.23078e-06 0)
(1.39406e-06 -3.1617e-06 0)
(1.57248e-06 -3.08839e-06 0)
)


// ************************************************************************* //
