/*--------------------------------*- C++ -*----------------------------------*\
| =========                 |                                                 |
| \\      /  F ield         | foam-extend: Open Source CFD                    |
|  \\    /   O peration     | Version:     4.1                                |
|   \\  /    A nd           | Web:         http://www.foam-extend.org         |
|    \\/     M anipulation  |                                                 |
\*---------------------------------------------------------------------------*/
FoamFile
{
    version     2.0;
    format      ascii;
    class       vectorField;
    location    "6";
    object      solidsCellD_iteration11;
}
// * * * * * * * * * * * * * * * * * * * * * * * * * * * * * * * * * * * * * //


1000
(
(3.09752e-06 -1.30219e-06 0)
(2.92347e-06 -1.21245e-06 0)
(2.81251e-06 -1.15581e-06 0)
(2.74895e-06 -1.12975e-06 0)
(2.71813e-06 -1.12121e-06 0)
(2.71122e-06 -1.1262e-06 0)
(2.72191e-06 -1.14001e-06 0)
(2.74577e-06 -1.16044e-06 0)
(2.77967e-06 -1.18528e-06 0)
(2.82084e-06 -1.21322e-06 0)
(2.80083e-06 -1.42248e-06 0)
(2.61552e-06 -1.36033e-06 0)
(2.49742e-06 -1.32114e-06 0)
(2.42859e-06 -1.30697e-06 0)
(2.3936e-06 -1.30634e-06 0)
(2.38291e-06 -1.3169e-06 0)
(2.38996e-06 -1.33469e-06 0)
(2.41006e-06 -1.35809e-06 0)
(2.43989e-06 -1.38533e-06 0)
(2.47636e-06 -1.41488e-06 0)
(2.49254e-06 -1.53646e-06 0)
(2.30324e-06 -1.50515e-06 0)
(2.1826e-06 -1.4855e-06 0)
(2.11147e-06 -1.48442e-06 0)
(2.07423e-06 -1.49236e-06 0)
(2.06096e-06 -1.50884e-06 0)
(2.06508e-06 -1.53075e-06 0)
(2.08188e-06 -1.55707e-06 0)
(2.108e-06 -1.58659e-06 0)
(2.1405e-06 -1.61767e-06 0)
(2.17493e-06 -1.64213e-06 0)
(1.98961e-06 -1.64316e-06 0)
(1.8715e-06 -1.644e-06 0)
(1.8012e-06 -1.65656e-06 0)
(1.76368e-06 -1.67339e-06 0)
(1.74903e-06 -1.69594e-06 0)
(1.75088e-06 -1.72197e-06 0)
(1.76473e-06 -1.75118e-06 0)
(1.78734e-06 -1.78289e-06 0)
(1.81585e-06 -1.81563e-06 0)
(1.85026e-06 -1.73741e-06 0)
(1.67673e-06 -1.77048e-06 0)
(1.56616e-06 -1.79162e-06 0)
(1.49998e-06 -1.81765e-06 0)
(1.46415e-06 -1.84321e-06 0)
(1.44927e-06 -1.8717e-06 0)
(1.44952e-06 -1.90174e-06 0)
(1.46071e-06 -1.93377e-06 0)
(1.47993e-06 -1.96759e-06 0)
(1.50435e-06 -2.00205e-06 0)
(1.51999e-06 -1.82038e-06 0)
(1.36599e-06 -1.8834e-06 0)
(1.2679e-06 -1.92356e-06 0)
(1.20886e-06 -1.9622e-06 0)
(1.17653e-06 -1.99591e-06 0)
(1.16254e-06 -2.02992e-06 0)
(1.16187e-06 -2.06365e-06 0)
(1.17068e-06 -2.0983e-06 0)
(1.18649e-06 -2.13405e-06 0)
(1.20665e-06 -2.1702e-06 0)
(1.18585e-06 -1.88914e-06 0)
(1.05815e-06 -1.97842e-06 0)
(9.76823e-07 -2.03526e-06 0)
(9.27676e-07 -2.08495e-06 0)
(9.00587e-07 -2.12578e-06 0)
(8.88568e-07 -2.1646e-06 0)
(8.87486e-07 -2.20155e-06 0)
(8.94102e-07 -2.23851e-06 0)
(9.06443e-07 -2.27595e-06 0)
(9.22211e-07 -2.31364e-06 0)
(8.48916e-07 -1.94219e-06 0)
(7.53239e-07 -2.05258e-06 0)
(6.92348e-07 -2.12278e-06 0)
(6.55493e-07 -2.18128e-06 0)
(6.3509e-07 -2.22785e-06 0)
(6.25874e-07 -2.27055e-06 0)
(6.24761e-07 -2.31012e-06 0)
(6.29327e-07 -2.34894e-06 0)
(6.38157e-07 -2.38774e-06 0)
(6.4946e-07 -2.42671e-06 0)
(5.1013e-07 -1.97825e-06 0)
(4.509e-07 -2.10337e-06 0)
(4.13241e-07 -2.18291e-06 0)
(3.90367e-07 -2.24764e-06 0)
(3.77627e-07 -2.29821e-06 0)
(3.71799e-07 -2.3436e-06 0)
(3.71013e-07 -2.385e-06 0)
(3.73721e-07 -2.42518e-06 0)
(3.79017e-07 -2.46495e-06 0)
(3.85801e-07 -2.50485e-06 0)
(1.7037e-07 -1.99642e-06 0)
(1.50313e-07 -2.12916e-06 0)
(1.37485e-07 -2.21351e-06 0)
(1.29701e-07 -2.28143e-06 0)
(1.25403e-07 -2.33407e-06 0)
(1.23397e-07 -2.38089e-06 0)
(1.23051e-07 -2.4232e-06 0)
(1.23924e-07 -2.46406e-06 0)
(1.25702e-07 -2.50432e-06 0)
(1.27958e-07 -2.54472e-06 0)
(4.8329e-06 -5.94022e-08 0)
(4.87628e-06 -4.28133e-08 0)
(4.90273e-06 -3.23091e-08 0)
(4.93136e-06 -2.61387e-08 0)
(4.96271e-06 -2.27197e-08 0)
(5.00116e-06 -2.11791e-08 0)
(5.04669e-06 -2.09009e-08 0)
(5.09975e-06 -2.13903e-08 0)
(5.16027e-06 -2.25229e-08 0)
(5.2274e-06 -2.39054e-08 0)
(4.79711e-06 -1.78236e-07 0)
(4.83328e-06 -1.29435e-07 0)
(4.85522e-06 -9.85516e-08 0)
(4.8808e-06 -8.05392e-08 0)
(4.91013e-06 -7.06626e-08 0)
(4.94711e-06 -6.61417e-08 0)
(4.99163e-06 -6.53733e-08 0)
(5.04387e-06 -6.70552e-08 0)
(5.10365e-06 -7.04897e-08 0)
(5.17004e-06 -7.45431e-08 0)
(4.72568e-06 -2.98042e-07 0)
(4.74806e-06 -2.19736e-07 0)
(4.76128e-06 -1.70225e-07 0)
(4.78108e-06 -1.41293e-07 0)
(4.80659e-06 -1.25539e-07 0)
(4.8409e-06 -1.18564e-07 0)
(4.88339e-06 -1.17558e-07 0)
(4.93404e-06 -1.20447e-07 0)
(4.99243e-06 -1.2613e-07 0)
(5.05735e-06 -1.32903e-07 0)
(4.61985e-06 -4.19401e-07 0)
(4.62262e-06 -3.15788e-07 0)
(4.6234e-06 -2.50384e-07 0)
(4.63498e-06 -2.12343e-07 0)
(4.65502e-06 -1.91711e-07 0)
(4.6855e-06 -1.82773e-07 0)
(4.72517e-06 -1.81752e-07 0)
(4.77356e-06 -1.85994e-07 0)
(4.82999e-06 -1.9394e-07 0)
(4.89289e-06 -2.0345e-07 0)
(4.48124e-06 -5.42603e-07 0)
(4.4598e-06 -4.19348e-07 0)
(4.44519e-06 -3.41575e-07 0)
(4.44658e-06 -2.96673e-07 0)
(4.45987e-06 -2.72537e-07 0)
(4.48558e-06 -2.62456e-07 0)
(4.52172e-06 -2.61859e-07 0)
(4.56727e-06 -2.67648e-07 0)
(4.62127e-06 -2.77836e-07 0)
(4.68173e-06 -2.90036e-07 0)
(4.31191e-06 -6.67736e-07 0)
(4.26307e-06 -5.31578e-07 0)
(4.23112e-06 -4.45645e-07 0)
(4.221e-06 -3.96531e-07 0)
(4.22662e-06 -3.70529e-07 0)
(4.24687e-06 -3.60281e-07 0)
(4.27901e-06 -3.60606e-07 0)
(4.32132e-06 -3.68122e-07 0)
(4.37251e-06 -3.80539e-07 0)
(4.43022e-06 -3.95385e-07 0)
(4.11441e-06 -7.94566e-07 0)
(4.03659e-06 -6.52953e-07 0)
(3.9863e-06 -5.63547e-07 0)
(3.96401e-06 -5.13165e-07 0)
(3.9615e-06 -4.87061e-07 0)
(3.97596e-06 -4.77706e-07 0)
(4.00382e-06 -4.79513e-07 0)
(4.04263e-06 -4.88966e-07 0)
(4.09076e-06 -5.03622e-07 0)
(4.14556e-06 -5.2103e-07 0)
(3.89133e-06 -9.22468e-07 0)
(3.78479e-06 -7.83158e-07 0)
(3.71636e-06 -6.9516e-07 0)
(3.68195e-06 -6.46582e-07 0)
(3.67134e-06 -6.22234e-07 0)
(3.67994e-06 -6.14893e-07 0)
(3.70337e-06 -6.18789e-07 0)
(3.73856e-06 -6.30477e-07 0)
(3.78346e-06 -6.47412e-07 0)
(3.83524e-06 -6.67343e-07 0)
(3.64556e-06 -1.05058e-06 0)
(3.51233e-06 -9.21106e-07 0)
(3.42705e-06 -8.39351e-07 0)
(3.38127e-06 -7.95595e-07 0)
(3.363e-06 -7.74861e-07 0)
(3.36589e-06 -7.70613e-07 0)
(3.38488e-06 -7.77217e-07 0)
(3.41639e-06 -7.91396e-07 0)
(3.45789e-06 -8.10765e-07 0)
(3.50664e-06 -8.32974e-07 0)
(3.38001e-06 -1.17767e-06 0)
(3.22383e-06 -1.06502e-06 0)
(3.12404e-06 -9.93917e-07 0)
(3.06835e-06 -9.57823e-07 0)
(3.04321e-06 -9.42449e-07 0)
(3.04091e-06 -9.42349e-07 0)
(3.05577e-06 -9.52283e-07 0)
(3.08365e-06 -9.69444e-07 0)
(3.12185e-06 -9.91413e-07 0)
(3.16723e-06 -1.01695e-06 0)
(5.30132e-06 -2.524e-08 0)
(5.38188e-06 -2.5544e-08 0)
(5.46754e-06 -2.5891e-08 0)
(5.55799e-06 -2.61396e-08 0)
(5.65267e-06 -2.62682e-08 0)
(5.75125e-06 -2.62645e-08 0)
(5.85327e-06 -2.60824e-08 0)
(5.95832e-06 -2.57518e-08 0)
(6.06611e-06 -2.52824e-08 0)
(6.17633e-06 -2.46367e-08 0)
(6.28861e-06 -2.37826e-08 0)
(6.40262e-06 -2.27102e-08 0)
(6.51807e-06 -2.14092e-08 0)
(6.6346e-06 -1.98706e-08 0)
(6.75193e-06 -1.80711e-08 0)
(6.86962e-06 -1.5968e-08 0)
(6.98744e-06 -1.35066e-08 0)
(7.10465e-06 -1.06374e-08 0)
(7.22137e-06 -7.29648e-09 0)
(7.3358e-06 -3.46155e-09 0)
(5.2465e-06 -7.82536e-08 0)
(5.33164e-06 -7.88249e-08 0)
(5.42139e-06 -7.95571e-08 0)
(5.51542e-06 -8.00397e-08 0)
(5.61331e-06 -8.01577e-08 0)
(5.71468e-06 -7.9941e-08 0)
(5.81922e-06 -7.93098e-08 0)
(5.92659e-06 -7.82659e-08 0)
(6.0365e-06 -7.67422e-08 0)
(6.14861e-06 -7.46653e-08 0)
(6.26263e-06 -7.20076e-08 0)
(6.37828e-06 -6.87583e-08 0)
(6.49527e-06 -6.48604e-08 0)
(6.61326e-06 -6.02389e-08 0)
(6.73197e-06 -5.48014e-08 0)
(6.85098e-06 -4.84446e-08 0)
(6.97006e-06 -4.10344e-08 0)
(7.08848e-06 -3.24354e-08 0)
(7.2064e-06 -2.2442e-08 0)
(7.32198e-06 -1.09681e-08 0)
(5.13877e-06 -1.38258e-07 0)
(5.23293e-06 -1.38088e-07 0)
(5.33072e-06 -1.38266e-07 0)
(5.43168e-06 -1.38281e-07 0)
(5.53577e-06 -1.37851e-07 0)
(5.6427e-06 -1.37006e-07 0)
(5.75226e-06 -1.35545e-07 0)
(5.86412e-06 -1.33441e-07 0)
(5.9781e-06 -1.30581e-07 0)
(6.09394e-06 -1.26886e-07 0)
(6.21141e-06 -1.22313e-07 0)
(6.33027e-06 -1.16803e-07 0)
(6.45024e-06 -1.10228e-07 0)
(6.57103e-06 -1.0245e-07 0)
(6.69238e-06 -9.33248e-08 0)
(6.81392e-06 -8.26926e-08 0)
(6.93546e-06 -7.03318e-08 0)
(7.05629e-06 -5.60168e-08 0)
(7.17659e-06 -3.93979e-08 0)
(7.29455e-06 -2.03143e-08 0)
(4.98136e-06 -2.09212e-07 0)
(5.08839e-06 -2.067e-07 0)
(5.19781e-06 -2.04871e-07 0)
(5.30889e-06 -2.03317e-07 0)
(5.4221e-06 -2.01423e-07 0)
(5.53708e-06 -1.99221e-07 0)
(5.65391e-06 -1.9633e-07 0)
(5.77233e-06 -1.92702e-07 0)
(5.89235e-06 -1.88152e-07 0)
(6.01372e-06 -1.82569e-07 0)
(6.13629e-06 -1.7585e-07 0)
(6.25986e-06 -1.67876e-07 0)
(6.38422e-06 -1.58459e-07 0)
(6.50913e-06 -1.47422e-07 0)
(6.6344e-06 -1.34572e-07 0)
(6.75968e-06 -1.19662e-07 0)
(6.88481e-06 -1.02379e-07 0)
(7.00915e-06 -8.23912e-08 0)
(7.13285e-06 -5.91916e-08 0)
(7.25424e-06 -3.25758e-08 0)
(4.77901e-06 -2.94606e-07 0)
(4.90224e-06 -2.87708e-07 0)
(5.02642e-06 -2.82048e-07 0)
(5.15031e-06 -2.77528e-07 0)
(5.27512e-06 -2.72974e-07 0)
(5.40042e-06 -2.68442e-07 0)
(5.52662e-06 -2.6333e-07 0)
(5.65354e-06 -2.57558e-07 0)
(5.78128e-06 -2.50814e-07 0)
(5.90973e-06 -2.42924e-07 0)
(6.03884e-06 -2.33731e-07 0)
(6.16851e-06 -2.23047e-07 0)
(6.29858e-06 -2.10621e-07 0)
(6.42886e-06 -1.96208e-07 0)
(6.55923e-06 -1.79552e-07 0)
(6.68935e-06 -1.6032e-07 0)
(6.81916e-06 -1.38107e-07 0)
(6.94799e-06 -1.12485e-07 0)
(7.07615e-06 -8.27772e-08 0)
(7.20198e-06 -4.87366e-08 0)
(4.53742e-06 -3.96985e-07 0)
(4.67928e-06 -3.83329e-07 0)
(4.82075e-06 -3.71639e-07 0)
(4.95978e-06 -3.62424e-07 0)
(5.09838e-06 -3.53788e-07 0)
(5.23602e-06 -3.45769e-07 0)
(5.37337e-06 -3.37495e-07 0)
(5.51043e-06 -3.28784e-07 0)
(5.64747e-06 -3.19235e-07 0)
(5.78446e-06 -3.08579e-07 0)
(5.92148e-06 -2.96565e-07 0)
(6.05849e-06 -2.82913e-07 0)
(6.19542e-06 -2.67285e-07 0)
(6.33214e-06 -2.49372e-07 0)
(6.4686e-06 -2.28829e-07 0)
(6.60453e-06 -2.05254e-07 0)
(6.73994e-06 -1.78137e-07 0)
(6.8742e-06 -1.46961e-07 0)
(7.00772e-06 -1.10879e-07 0)
(7.13889e-06 -6.95488e-08 0)
(4.26336e-06 -5.17893e-07 0)
(4.4255e-06 -4.95064e-07 0)
(4.58606e-06 -4.75162e-07 0)
(4.74193e-06 -4.594e-07 0)
(4.89591e-06 -4.45174e-07 0)
(5.04744e-06 -4.32361e-07 0)
(5.19743e-06 -4.19926e-07 0)
(5.34602e-06 -4.07456e-07 0)
(5.49364e-06 -3.94443e-07 0)
(5.64041e-06 -3.8049e-07 0)
(5.78649e-06 -3.65223e-07 0)
(5.93191e-06 -3.4825e-07 0)
(6.07669e-06 -3.29155e-07 0)
(6.22081e-06 -3.07556e-07 0)
(6.36427e-06 -2.83023e-07 0)
(6.50689e-06 -2.55073e-07 0)
(6.64874e-06 -2.23082e-07 0)
(6.78926e-06 -1.86427e-07 0)
(6.92889e-06 -1.44102e-07 0)
(7.06619e-06 -9.56593e-08 0)
(3.96355e-06 -6.57709e-07 0)
(4.14662e-06 -6.23029e-07 0)
(4.32722e-06 -5.92721e-07 0)
(4.50115e-06 -5.6834e-07 0)
(4.67176e-06 -5.46949e-07 0)
(4.83842e-06 -5.27974e-07 0)
(5.00233e-06 -5.10288e-07 0)
(5.16368e-06 -4.93192e-07 0)
(5.32302e-06 -4.76033e-07 0)
(5.48059e-06 -4.58245e-07 0)
(5.63667e-06 -4.39314e-07 0)
(5.79137e-06 -4.18727e-07 0)
(5.94485e-06 -3.95979e-07 0)
(6.09716e-06 -3.70599e-07 0)
(6.24839e-06 -3.42058e-07 0)
(6.39843e-06 -3.09776e-07 0)
(6.54739e-06 -2.73009e-07 0)
(6.69484e-06 -2.3102e-07 0)
(6.84124e-06 -1.8264e-07 0)
(6.98531e-06 -1.27319e-07 0)
(3.64524e-06 -8.16133e-07 0)
(3.84935e-06 -7.67398e-07 0)
(4.05007e-06 -7.25291e-07 0)
(4.2427e-06 -6.90513e-07 0)
(4.43049e-06 -6.60539e-07 0)
(4.61308e-06 -6.34141e-07 0)
(4.79161e-06 -6.10109e-07 0)
(4.96649e-06 -5.87447e-07 0)
(5.13832e-06 -5.65344e-07 0)
(5.30746e-06 -5.43052e-07 0)
(5.47427e-06 -5.1991e-07 0)
(5.639e-06 -4.95287e-07 0)
(5.80188e-06 -4.68578e-07 0)
(5.96307e-06 -4.39205e-07 0)
(6.1227e-06 -4.06525e-07 0)
(6.28077e-06 -3.6985e-07 0)
(6.43742e-06 -3.28314e-07 0)
(6.59234e-06 -2.81069e-07 0)
(6.74605e-06 -2.26811e-07 0)
(6.89747e-06 -1.64893e-07 0)
(3.31449e-06 -9.90443e-07 0)
(3.53998e-06 -9.24141e-07 0)
(3.76013e-06 -8.68736e-07 0)
(3.972e-06 -8.219e-07 0)
(4.17732e-06 -7.81976e-07 0)
(4.3765e-06 -7.4706e-07 0)
(4.57029e-06 -7.15783e-07 0)
(4.75932e-06 -6.86892e-07 0)
(4.94422e-06 -6.59354e-07 0)
(5.12548e-06 -6.32223e-07 0)
(5.30353e-06 -6.04663e-07 0)
(5.47875e-06 -5.75905e-07 0)
(5.65144e-06 -5.45215e-07 0)
(5.82188e-06 -5.11894e-07 0)
(5.99025e-06 -4.75181e-07 0)
(6.15663e-06 -4.34277e-07 0)
(6.32127e-06 -3.88207e-07 0)
(6.48395e-06 -3.35994e-07 0)
(6.64527e-06 -2.76221e-07 0)
(6.80441e-06 -2.08099e-07 0)
(3.06847e-06 -1.15824e-06 0)
(3.30839e-06 -1.07749e-06 0)
(3.54028e-06 -1.01201e-06 0)
(3.76415e-06 -9.55444e-07 0)
(3.98065e-06 -9.06688e-07 0)
(4.19045e-06 -8.63742e-07 0)
(4.39423e-06 -8.25166e-07 0)
(4.59264e-06 -7.89663e-07 0)
(4.78629e-06 -7.56099e-07 0)
(4.97567e-06 -7.23437e-07 0)
(5.16125e-06 -6.90757e-07 0)
(5.34345e-06 -6.57211e-07 0)
(5.52264e-06 -6.21982e-07 0)
(5.6991e-06 -5.84286e-07 0)
(5.87308e-06 -5.43293e-07 0)
(6.04475e-06 -4.98124e-07 0)
(6.21438e-06 -4.4778e-07 0)
(6.38195e-06 -3.91201e-07 0)
(6.54806e-06 -3.26959e-07 0)
(6.71212e-06 -2.54194e-07 0)
(2.9281e-06 -1.2949e-06 0)
(3.16975e-06 -1.21102e-06 0)
(3.40362e-06 -1.13984e-06 0)
(3.63058e-06 -1.07727e-06 0)
(3.85066e-06 -1.02226e-06 0)
(4.06429e-06 -9.73151e-07 0)
(4.27196e-06 -9.2858e-07 0)
(4.47419e-06 -8.87324e-07 0)
(4.67147e-06 -8.48265e-07 0)
(4.86424e-06 -8.1038e-07 0)
(5.05297e-06 -7.72755e-07 0)
(5.23803e-06 -7.34526e-07 0)
(5.41981e-06 -6.94854e-07 0)
(5.59859e-06 -6.52931e-07 0)
(5.77464e-06 -6.0792e-07 0)
(5.9482e-06 -5.58921e-07 0)
(6.11955e-06 -5.04977e-07 0)
(6.28881e-06 -4.45032e-07 0)
(6.45655e-06 -3.77727e-07 0)
(6.62243e-06 -3.02222e-07 0)
(2.80836e-06 -1.42587e-06 0)
(3.04765e-06 -1.34013e-06 0)
(3.28121e-06 -1.26533e-06 0)
(3.50875e-06 -1.19826e-06 0)
(3.73025e-06 -1.13813e-06 0)
(3.94577e-06 -1.08365e-06 0)
(4.15568e-06 -1.03363e-06 0)
(4.36028e-06 -9.86986e-07 0)
(4.55996e-06 -9.42668e-07 0)
(4.7551e-06 -8.99717e-07 0)
(4.94609e-06 -8.57243e-07 0)
(5.1333e-06 -8.14395e-07 0)
(5.31707e-06 -7.7033e-07 0)
(5.49768e-06 -7.24241e-07 0)
(5.67542e-06 -6.75301e-07 0)
(5.85058e-06 -6.22614e-07 0)
(6.02343e-06 -5.65271e-07 0)
(6.1942e-06 -5.02257e-07 0)
(6.36344e-06 -4.32296e-07 0)
(6.53104e-06 -3.54604e-07 0)
(2.7028e-06 -1.55221e-06 0)
(2.93869e-06 -1.46559e-06 0)
(3.17027e-06 -1.38808e-06 0)
(3.39678e-06 -1.3173e-06 0)
(3.61808e-06 -1.25279e-06 0)
(3.83405e-06 -1.19354e-06 0)
(4.04486e-06 -1.13859e-06 0)
(4.25066e-06 -1.08696e-06 0)
(4.45175e-06 -1.03772e-06 0)
(4.6484e-06 -9.89982e-07 0)
(4.84094e-06 -9.42896e-07 0)
(5.02968e-06 -8.95636e-07 0)
(5.21493e-06 -8.47375e-07 0)
(5.39698e-06 -7.97325e-07 0)
(5.5761e-06 -7.44682e-07 0)
(5.75259e-06 -6.88576e-07 0)
(5.92676e-06 -6.28158e-07 0)
(6.09889e-06 -5.62462e-07 0)
(6.26949e-06 -4.90318e-07 0)
(6.43872e-06 -4.11032e-07 0)
(2.60981e-06 -1.67322e-06 0)
(2.84136e-06 -1.58644e-06 0)
(3.06981e-06 -1.5072e-06 0)
(3.29405e-06 -1.43366e-06 0)
(3.51395e-06 -1.36562e-06 0)
(3.72919e-06 -1.30236e-06 0)
(3.9398e-06 -1.24307e-06 0)
(4.14581e-06 -1.18697e-06 0)
(4.34741e-06 -1.13322e-06 0)
(4.5448e-06 -1.08103e-06 0)
(4.73822e-06 -1.02961e-06 0)
(4.92792e-06 -9.78177e-07 0)
(5.11419e-06 -9.2594e-07 0)
(5.29727e-06 -8.72148e-07 0)
(5.47745e-06 -8.16028e-07 0)
(5.65503e-06 -7.56759e-07 0)
(5.83031e-06 -6.93549e-07 0)
(6.00363e-06 -6.25505e-07 0)
(6.17547e-06 -5.51582e-07 0)
(6.34618e-06 -4.71202e-07 0)
(2.52713e-06 -1.78906e-06 0)
(2.75387e-06 -1.70266e-06 0)
(2.97851e-06 -1.62236e-06 0)
(3.19965e-06 -1.54677e-06 0)
(3.41727e-06 -1.47591e-06 0)
(3.63087e-06 -1.40926e-06 0)
(3.8404e-06 -1.34623e-06 0)
(4.04581e-06 -1.28616e-06 0)
(4.24718e-06 -1.22836e-06 0)
(4.44463e-06 -1.17211e-06 0)
(4.63833e-06 -1.11671e-06 0)
(4.82848e-06 -1.06142e-06 0)
(5.01532e-06 -1.00549e-06 0)
(5.19908e-06 -9.48233e-07 0)
(5.38e-06 -8.88912e-07 0)
(5.55842e-06 -8.26779e-07 0)
(5.73461e-06 -7.61094e-07 0)
(5.90895e-06 -6.91052e-07 0)
(6.08191e-06 -6.1575e-07 0)
(6.25392e-06 -5.3471e-07 0)
(2.45309e-06 -1.89991e-06 0)
(2.67477e-06 -1.81426e-06 0)
(2.89513e-06 -1.73342e-06 0)
(3.11264e-06 -1.65639e-06 0)
(3.32735e-06 -1.58335e-06 0)
(3.53863e-06 -1.51392e-06 0)
(3.74642e-06 -1.44771e-06 0)
(3.95056e-06 -1.3842e-06 0)
(4.15109e-06 -1.32281e-06 0)
(4.34803e-06 -1.26291e-06 0)
(4.54151e-06 -1.20389e-06 0)
(4.73165e-06 -1.14507e-06 0)
(4.91867e-06 -1.08577e-06 0)
(5.10277e-06 -1.02534e-06 0)
(5.28417e-06 -9.63111e-07 0)
(5.46319e-06 -8.98405e-07 0)
(5.6401e-06 -8.30551e-07 0)
(5.81528e-06 -7.58836e-07 0)
(5.98923e-06 -6.82509e-07 0)
(6.16234e-06 -6.01146e-07 0)
(2.38614e-06 -2.00603e-06 0)
(2.60271e-06 -1.92137e-06 0)
(2.81851e-06 -1.8404e-06 0)
(3.03207e-06 -1.76241e-06 0)
(3.24341e-06 -1.68769e-06 0)
(3.4519e-06 -1.61601e-06 0)
(3.65744e-06 -1.54714e-06 0)
(3.85982e-06 -1.48068e-06 0)
(4.059e-06 -1.41615e-06 0)
(4.25497e-06 -1.35303e-06 0)
(4.44779e-06 -1.29077e-06 0)
(4.63755e-06 -1.22878e-06 0)
(4.82442e-06 -1.16642e-06 0)
(5.00857e-06 -1.10315e-06 0)
(5.19021e-06 -1.03832e-06 0)
(5.36963e-06 -9.71338e-07 0)
(5.54708e-06 -9.01624e-07 0)
(5.72298e-06 -8.28551e-07 0)
(5.89773e-06 -7.51499e-07 0)
(6.0718e-06 -6.70088e-07 0)
(2.32487e-06 -2.10776e-06 0)
(2.53635e-06 -2.02422e-06 0)
(2.74751e-06 -1.9434e-06 0)
(2.95693e-06 -1.86482e-06 0)
(3.16463e-06 -1.78884e-06 0)
(3.37002e-06 -1.71539e-06 0)
(3.57297e-06 -1.64432e-06 0)
(3.77322e-06 -1.57537e-06 0)
(3.97068e-06 -1.50813e-06 0)
(4.16532e-06 -1.44219e-06 0)
(4.35715e-06 -1.37708e-06 0)
(4.54623e-06 -1.31228e-06 0)
(4.73268e-06 -1.24721e-06 0)
(4.91665e-06 -1.18142e-06 0)
(5.09832e-06 -1.1143e-06 0)
(5.27796e-06 -1.04535e-06 0)
(5.45581e-06 -9.74067e-07 0)
(5.63228e-06 -8.99914e-07 0)
(5.80767e-06 -8.22378e-07 0)
(5.98257e-06 -7.41163e-07 0)
(2.26807e-06 -2.2054e-06 0)
(2.47455e-06 -2.12306e-06 0)
(2.68108e-06 -2.04257e-06 0)
(2.88628e-06 -1.96368e-06 0)
(3.09023e-06 -1.88681e-06 0)
(3.29234e-06 -1.81196e-06 0)
(3.49246e-06 -1.73911e-06 0)
(3.69033e-06 -1.66808e-06 0)
(3.88582e-06 -1.59855e-06 0)
(4.07887e-06 -1.53019e-06 0)
(4.26946e-06 -1.46261e-06 0)
(4.45762e-06 -1.39535e-06 0)
(4.64344e-06 -1.32793e-06 0)
(4.82704e-06 -1.25993e-06 0)
(5.00857e-06 -1.19083e-06 0)
(5.18829e-06 -1.12021e-06 0)
(5.3664e-06 -1.04763e-06 0)
(5.54327e-06 -9.72638e-07 0)
(5.71918e-06 -8.94821e-07 0)
(5.89475e-06 -8.14008e-07 0)
(2.21465e-06 -2.2993e-06 0)
(2.41628e-06 -2.21817e-06 0)
(2.61825e-06 -2.13814e-06 0)
(2.81927e-06 -2.05915e-06 0)
(3.01944e-06 -1.98167e-06 0)
(3.21819e-06 -1.90576e-06 0)
(3.41536e-06 -1.83149e-06 0)
(3.61069e-06 -1.75875e-06 0)
(3.80404e-06 -1.6873e-06 0)
(3.99533e-06 -1.6169e-06 0)
(4.18451e-06 -1.54721e-06 0)
(4.37158e-06 -1.47785e-06 0)
(4.55662e-06 -1.4084e-06 0)
(4.7397e-06 -1.33851e-06 0)
(4.92096e-06 -1.26773e-06 0)
(5.10063e-06 -1.1957e-06 0)
(5.27887e-06 -1.12207e-06 0)
(5.45601e-06 -1.04644e-06 0)
(5.63236e-06 -9.68531e-07 0)
(5.80842e-06 -8.88239e-07 0)
(2.16363e-06 -2.38978e-06 0)
(2.36061e-06 -2.3098e-06 0)
(2.55814e-06 -2.23031e-06 0)
(2.75509e-06 -2.15139e-06 0)
(2.95152e-06 -2.07353e-06 0)
(3.1469e-06 -1.99683e-06 0)
(3.34107e-06 -1.92145e-06 0)
(3.5338e-06 -1.84734e-06 0)
(3.72492e-06 -1.77434e-06 0)
(3.91435e-06 -1.70223e-06 0)
(4.10202e-06 -1.63078e-06 0)
(4.2879e-06 -1.55964e-06 0)
(4.47206e-06 -1.48848e-06 0)
(4.65454e-06 -1.41701e-06 0)
(4.83544e-06 -1.34483e-06 0)
(5.01497e-06 -1.27165e-06 0)
(5.19323e-06 -1.19718e-06 0)
(5.37056e-06 -1.12109e-06 0)
(5.54722e-06 -1.04324e-06 0)
(5.72365e-06 -9.63519e-07 0)
(2.11418e-06 -2.47712e-06 0)
(2.30672e-06 -2.39824e-06 0)
(2.49998e-06 -2.31933e-06 0)
(2.69297e-06 -2.24061e-06 0)
(2.88574e-06 -2.16254e-06 0)
(3.0778e-06 -2.08529e-06 0)
(3.26901e-06 -2.00907e-06 0)
(3.45915e-06 -1.93389e-06 0)
(3.64805e-06 -1.85964e-06 0)
(3.8356e-06 -1.78615e-06 0)
(4.02173e-06 -1.71326e-06 0)
(4.20638e-06 -1.64068e-06 0)
(4.3896e-06 -1.56811e-06 0)
(4.57141e-06 -1.49534e-06 0)
(4.75188e-06 -1.42202e-06 0)
(4.93117e-06 -1.34791e-06 0)
(5.10938e-06 -1.27278e-06 0)
(5.28682e-06 -1.19639e-06 0)
(5.46366e-06 -1.1187e-06 0)
(5.64038e-06 -1.0396e-06 0)
(2.06551e-06 -2.56159e-06 0)
(2.2538e-06 -2.48375e-06 0)
(2.44298e-06 -2.40544e-06 0)
(2.63216e-06 -2.32698e-06 0)
(2.8214e-06 -2.24885e-06 0)
(3.01027e-06 -2.17125e-06 0)
(3.19864e-06 -2.09445e-06 0)
(3.38625e-06 -2.01847e-06 0)
(3.57298e-06 -1.94327e-06 0)
(3.75868e-06 -1.8687e-06 0)
(3.94327e-06 -1.79467e-06 0)
(4.12669e-06 -1.72092e-06 0)
(4.30895e-06 -1.64722e-06 0)
(4.49006e-06 -1.5734e-06 0)
(4.67006e-06 -1.49916e-06 0)
(4.84907e-06 -1.42431e-06 0)
(5.02717e-06 -1.34869e-06 0)
(5.20465e-06 -1.27214e-06 0)
(5.3816e-06 -1.19462e-06 0)
(5.55849e-06 -1.11619e-06 0)
(2.01679e-06 -2.64345e-06 0)
(2.20105e-06 -2.56656e-06 0)
(2.38633e-06 -2.48886e-06 0)
(2.5719e-06 -2.41073e-06 0)
(2.75781e-06 -2.33267e-06 0)
(2.94367e-06 -2.25492e-06 0)
(3.12934e-06 -2.17774e-06 0)
(3.31456e-06 -2.1012e-06 0)
(3.49922e-06 -2.02529e-06 0)
(3.68317e-06 -1.94991e-06 0)
(3.86631e-06 -1.875e-06 0)
(4.04855e-06 -1.80036e-06 0)
(4.22991e-06 -1.72579e-06 0)
(4.41034e-06 -1.65115e-06 0)
(4.58985e-06 -1.5762e-06 0)
(4.76856e-06 -1.50078e-06 0)
(4.94653e-06 -1.42481e-06 0)
(5.12397e-06 -1.34818e-06 0)
(5.30101e-06 -1.2709e-06 0)
(5.47798e-06 -1.19308e-06 0)
(1.96722e-06 -2.72291e-06 0)
(2.14764e-06 -2.64698e-06 0)
(2.32922e-06 -2.5698e-06 0)
(2.51146e-06 -2.49206e-06 0)
(2.69429e-06 -2.4142e-06 0)
(2.87737e-06 -2.33644e-06 0)
(3.06056e-06 -2.25908e-06 0)
(3.2436e-06 -2.18221e-06 0)
(3.42636e-06 -2.10583e-06 0)
(3.60868e-06 -2.02988e-06 0)
(3.79048e-06 -1.95434e-06 0)
(3.97164e-06 -1.87905e-06 0)
(4.15213e-06 -1.80382e-06 0)
(4.3319e-06 -1.72856e-06 0)
(4.51096e-06 -1.65306e-06 0)
(4.68939e-06 -1.57723e-06 0)
(4.86721e-06 -1.50103e-06 0)
(5.04459e-06 -1.42435e-06 0)
(5.22164e-06 -1.34734e-06 0)
(5.39865e-06 -1.27009e-06 0)
(1.91599e-06 -2.80026e-06 0)
(2.09268e-06 -2.72501e-06 0)
(2.27076e-06 -2.64851e-06 0)
(2.45007e-06 -2.57131e-06 0)
(2.6301e-06 -2.49373e-06 0)
(2.81073e-06 -2.41611e-06 0)
(2.99169e-06 -2.33872e-06 0)
(3.17281e-06 -2.26169e-06 0)
(3.3539e-06 -2.18503e-06 0)
(3.53482e-06 -2.10873e-06 0)
(3.71544e-06 -2.03278e-06 0)
(3.89564e-06 -1.95703e-06 0)
(4.07537e-06 -1.88133e-06 0)
(4.25456e-06 -1.80563e-06 0)
(4.43321e-06 -1.72975e-06 0)
(4.6114e-06 -1.65363e-06 0)
(4.78906e-06 -1.57724e-06 0)
(4.96638e-06 -1.50056e-06 0)
(5.14338e-06 -1.42381e-06 0)
(5.32042e-06 -1.34706e-06 0)
(1.86189e-06 -2.87543e-06 0)
(2.0354e-06 -2.80096e-06 0)
(2.21061e-06 -2.72529e-06 0)
(2.38712e-06 -2.64863e-06 0)
(2.56474e-06 -2.57147e-06 0)
(2.7432e-06 -2.49411e-06 0)
(2.92229e-06 -2.41684e-06 0)
(3.10178e-06 -2.33983e-06 0)
(3.28149e-06 -2.26309e-06 0)
(3.46125e-06 -2.18662e-06 0)
(3.6409e-06 -2.11043e-06 0)
(3.82029e-06 -2.0344e-06 0)
(3.99938e-06 -1.9584e-06 0)
(4.17812e-06 -1.8824e-06 0)
(4.35645e-06 -1.80625e-06 0)
(4.53438e-06 -1.72994e-06 0)
(4.71188e-06 -1.65342e-06 0)
(4.88919e-06 -1.57676e-06 0)
(5.0662e-06 -1.50021e-06 0)
(5.24314e-06 -1.42391e-06 0)
(1.8042e-06 -2.9492e-06 0)
(1.9748e-06 -2.87563e-06 0)
(2.14742e-06 -2.8006e-06 0)
(2.32164e-06 -2.72454e-06 0)
(2.49729e-06 -2.64786e-06 0)
(2.67405e-06 -2.57087e-06 0)
(2.85171e-06 -2.49385e-06 0)
(3.03001e-06 -2.41697e-06 0)
(3.20871e-06 -2.34027e-06 0)
(3.3876e-06 -2.26377e-06 0)
(3.56653e-06 -2.18748e-06 0)
(3.74536e-06 -2.11128e-06 0)
(3.92401e-06 -2.0351e-06 0)
(4.10235e-06 -1.95893e-06 0)
(4.28038e-06 -1.88261e-06 0)
(4.45816e-06 -1.8061e-06 0)
(4.63561e-06 -1.72952e-06 0)
(4.81283e-06 -1.65288e-06 0)
(4.98985e-06 -1.57643e-06 0)
(5.16676e-06 -1.50047e-06 0)
(1.74218e-06 -3.02098e-06 0)
(1.91025e-06 -2.94843e-06 0)
(2.08072e-06 -2.87432e-06 0)
(2.25317e-06 -2.79904e-06 0)
(2.42737e-06 -2.72299e-06 0)
(2.60299e-06 -2.6465e-06 0)
(2.77974e-06 -2.56988e-06 0)
(2.95728e-06 -2.49329e-06 0)
(3.13537e-06 -2.41675e-06 0)
(3.31379e-06 -2.34029e-06 0)
(3.49233e-06 -2.26401e-06 0)
(3.67079e-06 -2.18779e-06 0)
(3.84912e-06 -2.11151e-06 0)
(4.02723e-06 -2.0352e-06 0)
(4.20504e-06 -1.95879e-06 0)
(4.38264e-06 -1.88219e-06 0)
(4.56004e-06 -1.80555e-06 0)
(4.73723e-06 -1.72885e-06 0)
(4.91432e-06 -1.65243e-06 0)
(5.09124e-06 -1.57663e-06 0)
(1.27536e-07 -2.58604e-06 0)
(3.84327e-07 -2.54806e-06 0)
(6.46224e-07 -2.47357e-06 0)
(9.16147e-07 -2.36562e-06 0)
(1.19639e-06 -2.22831e-06 0)
(1.4884e-06 -2.06681e-06 0)
(1.79273e-06 -1.88704e-06 0)
(2.10881e-06 -1.69513e-06 0)
(2.4357e-06 -1.49729e-06 0)
(2.77068e-06 -1.29837e-06 0)
(1.24012e-07 -2.62901e-06 0)
(3.73503e-07 -2.5943e-06 0)
(6.27216e-07 -2.52618e-06 0)
(8.87623e-07 -2.42726e-06 0)
(1.15666e-06 -2.30099e-06 0)
(1.43554e-06 -2.15179e-06 0)
(1.72477e-06 -1.98467e-06 0)
(2.02371e-06 -1.80498e-06 0)
(2.3311e-06 -1.61831e-06 0)
(2.64461e-06 -1.42903e-06 0)
(1.20865e-07 -2.673e-06 0)
(3.63822e-07 -2.64127e-06 0)
(6.10213e-07 -2.57892e-06 0)
(8.62004e-07 -2.48821e-06 0)
(1.12085e-06 -2.37217e-06 0)
(1.38772e-06 -2.23459e-06 0)
(1.66315e-06 -2.07978e-06 0)
(1.94688e-06 -1.91226e-06 0)
(2.23798e-06 -1.73687e-06 0)
(2.53485e-06 -1.55664e-06 0)
(1.18065e-07 -2.71808e-06 0)
(3.552e-07 -2.68887e-06 0)
(5.95235e-07 -2.63143e-06 0)
(8.39684e-07 -2.54775e-06 0)
(1.08998e-06 -2.4405e-06 0)
(1.34686e-06 -2.31297e-06 0)
(1.61074e-06 -2.16903e-06 0)
(1.88136e-06 -2.01264e-06 0)
(2.1579e-06 -1.84832e-06 0)
(2.43905e-06 -1.67853e-06 0)
(1.15502e-07 -2.76422e-06 0)
(3.47266e-07 -2.73727e-06 0)
(5.8147e-07 -2.68424e-06 0)
(8.19282e-07 -2.60689e-06 0)
(1.06191e-06 -2.50759e-06 0)
(1.30997e-06 -2.38931e-06 0)
(1.56381e-06 -2.25544e-06 0)
(1.82323e-06 -2.10936e-06 0)
(2.0876e-06 -1.95521e-06 0)
(2.3553e-06 -1.79522e-06 0)
(1.13099e-07 -2.81136e-06 0)
(3.39929e-07 -2.78637e-06 0)
(5.68793e-07 -2.73717e-06 0)
(8.00666e-07 -2.66537e-06 0)
(1.03653e-06 -2.57306e-06 0)
(1.2769e-06 -2.46294e-06 0)
(1.52199e-06 -2.33811e-06 0)
(1.77156e-06 -2.20152e-06 0)
(2.02529e-06 -2.05696e-06 0)
(2.28129e-06 -1.90662e-06 0)
(1.10794e-07 -2.85945e-06 0)
(3.32948e-07 -2.83621e-06 0)
(5.56797e-07 -2.79043e-06 0)
(7.83198e-07 -2.72359e-06 0)
(1.01291e-06 -2.63758e-06 0)
(1.2464e-06 -2.53483e-06 0)
(1.48383e-06 -2.41817e-06 0)
(1.72484e-06 -2.29024e-06 0)
(1.96939e-06 -2.15443e-06 0)
(2.21533e-06 -2.01306e-06 0)
(1.08605e-07 -2.90837e-06 0)
(3.26251e-07 -2.88668e-06 0)
(5.45347e-07 -2.84395e-06 0)
(7.66646e-07 -2.7815e-06 0)
(9.90733e-07 -2.70109e-06 0)
(1.21799e-06 -2.60494e-06 0)
(1.44857e-06 -2.49565e-06 0)
(1.68205e-06 -2.37564e-06 0)
(1.91855e-06 -2.2479e-06 0)
(2.15582e-06 -2.11487e-06 0)
(1.06469e-07 -2.95805e-06 0)
(3.19707e-07 -2.93775e-06 0)
(5.34232e-07 -2.89774e-06 0)
(7.50668e-07 -2.83924e-06 0)
(9.69511e-07 -2.76389e-06 0)
(1.19106e-06 -2.67368e-06 0)
(1.41547e-06 -2.57104e-06 0)
(1.64224e-06 -2.45823e-06 0)
(1.87164e-06 -2.33786e-06 0)
(2.10141e-06 -2.21245e-06 0)
(1.04321e-07 -3.00838e-06 0)
(3.13238e-07 -2.98932e-06 0)
(5.23309e-07 -2.95175e-06 0)
(7.35063e-07 -2.8968e-06 0)
(9.48923e-07 -2.826e-06 0)
(1.16518e-06 -2.74115e-06 0)
(1.38391e-06 -2.64452e-06 0)
(1.60464e-06 -2.53825e-06 0)
(1.82768e-06 -2.42462e-06 0)
(2.05088e-06 -2.30618e-06 0)
(1.0215e-07 -3.05925e-06 0)
(3.0678e-07 -3.04132e-06 0)
(5.12423e-07 -3.00596e-06 0)
(7.19603e-07 -2.95421e-06 0)
(9.28661e-07 -2.88751e-06 0)
(1.13989e-06 -2.80752e-06 0)
(1.35336e-06 -2.71634e-06 0)
(1.56857e-06 -2.616e-06 0)
(1.78585e-06 -2.50852e-06 0)
(2.00321e-06 -2.39641e-06 0)
(9.99678e-08 -3.11054e-06 0)
(3.0027e-07 -3.09364e-06 0)
(5.01449e-07 -3.06028e-06 0)
(7.04091e-07 -3.01143e-06 0)
(9.08466e-07 -2.94845e-06 0)
(1.11485e-06 -2.87287e-06 0)
(1.32333e-06 -2.78665e-06 0)
(1.53341e-06 -2.69169e-06 0)
(1.74541e-06 -2.58982e-06 0)
(1.95753e-06 -2.48347e-06 0)
(9.77517e-08 -3.16213e-06 0)
(2.936e-07 -3.14616e-06 0)
(4.90237e-07 -3.11463e-06 0)
(6.88306e-07 -3.06843e-06 0)
(8.88045e-07 -3.00884e-06 0)
(1.08969e-06 -2.93729e-06 0)
(1.29337e-06 -2.85558e-06 0)
(1.49861e-06 -2.76553e-06 0)
(1.7057e-06 -2.66878e-06 0)
(1.91307e-06 -2.56766e-06 0)
(9.54486e-08 -3.21386e-06 0)
(2.86656e-07 -3.19875e-06 0)
(4.78633e-07 -3.1689e-06 0)
(6.7203e-07 -3.12513e-06 0)
(8.67099e-07 -3.06863e-06 0)
(1.06405e-06 -3.00077e-06 0)
(1.26302e-06 -2.9232e-06 0)
(1.46362e-06 -2.83763e-06 0)
(1.66609e-06 -2.74558e-06 0)
(1.86906e-06 -2.64925e-06 0)
(9.30122e-08 -3.26562e-06 0)
(2.79344e-07 -3.25129e-06 0)
(4.66484e-07 -3.22299e-06 0)
(6.55047e-07 -3.18146e-06 0)
(8.4533e-07 -3.12783e-06 0)
(1.03753e-06 -3.06338e-06 0)
(1.23182e-06 -2.9896e-06 0)
(1.42789e-06 -2.90815e-06 0)
(1.6259e-06 -2.82044e-06 0)
(1.8247e-06 -2.72847e-06 0)
(9.04199e-08 -3.31713e-06 0)
(2.71598e-07 -3.30353e-06 0)
(4.53647e-07 -3.27668e-06 0)
(6.37139e-07 -3.23725e-06 0)
(8.22438e-07 -3.18628e-06 0)
(1.00976e-06 -3.12497e-06 0)
(1.19931e-06 -3.05474e-06 0)
(1.39086e-06 -2.97711e-06 0)
(1.58449e-06 -2.89341e-06 0)
(1.77926e-06 -2.80545e-06 0)
(8.76519e-08 -3.36833e-06 0)
(2.63323e-07 -3.35541e-06 0)
(4.39928e-07 -3.32992e-06 0)
(6.18028e-07 -3.29246e-06 0)
(7.98068e-07 -3.24401e-06 0)
(9.80297e-07 -3.18566e-06 0)
(1.16495e-06 -3.11875e-06 0)
(1.35187e-06 -3.04471e-06 0)
(1.54111e-06 -2.96473e-06 0)
(1.73187e-06 -2.88053e-06 0)
(8.4671e-08 -3.41867e-06 0)
(2.5439e-07 -3.40642e-06 0)
(4.25109e-07 -3.38222e-06 0)
(5.97418e-07 -3.34665e-06 0)
(7.71832e-07 -3.30058e-06 0)
(9.48663e-07 -3.24505e-06 0)
(1.12817e-06 -3.1813e-06 0)
(1.31024e-06 -3.11067e-06 0)
(1.49495e-06 -3.03423e-06 0)
(1.68169e-06 -2.95356e-06 0)
(8.14071e-08 -3.46841e-06 0)
(2.44596e-07 -3.45679e-06 0)
(4.08871e-07 -3.43385e-06 0)
(5.74881e-07 -3.40009e-06 0)
(7.43193e-07 -3.35634e-06 0)
(9.14196e-07 -3.30354e-06 0)
(1.08818e-06 -3.24284e-06 0)
(1.26512e-06 -3.17547e-06 0)
(1.44509e-06 -3.10244e-06 0)
(1.62767e-06 -3.02516e-06 0)
(7.78244e-08 -3.51611e-06 0)
(2.33863e-07 -3.50512e-06 0)
(3.9108e-07 -3.48343e-06 0)
(5.50203e-07 -3.45148e-06 0)
(7.11877e-07 -3.41003e-06 0)
(8.76554e-07 -3.35996e-06 0)
(1.04456e-06 -3.3023e-06 0)
(1.21604e-06 -3.23819e-06 0)
(1.39099e-06 -3.16857e-06 0)
(1.56926e-06 -3.09469e-06 0)
)


// ************************************************************************* //
