/*--------------------------------*- C++ -*----------------------------------*\
| =========                 |                                                 |
| \\      /  F ield         | foam-extend: Open Source CFD                    |
|  \\    /   O peration     | Version:     4.1                                |
|   \\  /    A nd           | Web:         http://www.foam-extend.org         |
|    \\/     M anipulation  |                                                 |
\*---------------------------------------------------------------------------*/
FoamFile
{
    version     2.0;
    format      ascii;
    class       volVectorField;
    location    "9";
    object      D;
}
// * * * * * * * * * * * * * * * * * * * * * * * * * * * * * * * * * * * * * //

dimensions      [0 1 0 0 0 0 0];

internalField   nonuniform List<vector> 
100000
(
(5.17212e-06 -2.1458e-06 8.4196e-07)
(5.12996e-06 -2.11698e-06 8.60765e-07)
(5.08965e-06 -2.08949e-06 8.78928e-07)
(5.05114e-06 -2.0634e-06 8.9582e-07)
(5.01434e-06 -2.03858e-06 9.11751e-07)
(4.97917e-06 -2.015e-06 9.26683e-07)
(4.94558e-06 -1.99259e-06 9.4072e-07)
(4.91349e-06 -1.9713e-06 9.53901e-07)
(4.88284e-06 -1.95108e-06 9.66276e-07)
(4.85357e-06 -1.93187e-06 9.77889e-07)
(4.82561e-06 -1.91364e-06 9.88788e-07)
(4.79893e-06 -1.89633e-06 9.9901e-07)
(4.77347e-06 -1.87991e-06 1.0086e-06)
(4.74917e-06 -1.86434e-06 1.0176e-06)
(4.726e-06 -1.84958e-06 1.05969e-06)
(4.7039e-06 -1.83559e-06 1.13695e-06)
(4.68285e-06 -1.82234e-06 1.21056e-06)
(4.66278e-06 -1.80981e-06 1.28068e-06)
(4.64368e-06 -1.79795e-06 1.34745e-06)
(4.6255e-06 -1.78674e-06 1.41103e-06)
(4.60821e-06 -1.77615e-06 1.47155e-06)
(4.59177e-06 -1.76615e-06 1.52912e-06)
(4.57615e-06 -1.75673e-06 1.54599e-06)
(4.56133e-06 -1.74786e-06 1.5538e-06)
(4.54727e-06 -1.73951e-06 1.56093e-06)
(4.53395e-06 -1.73167e-06 1.56742e-06)
(4.52133e-06 -1.72431e-06 1.5733e-06)
(4.50941e-06 -1.71741e-06 1.57859e-06)
(4.49814e-06 -1.71095e-06 1.57448e-06)
(4.48752e-06 -1.70493e-06 1.57047e-06)
(4.4775e-06 -1.69931e-06 1.56658e-06)
(4.46809e-06 -1.69409e-06 1.56282e-06)
(4.45925e-06 -1.68925e-06 1.55918e-06)
(4.45096e-06 -1.68477e-06 1.55567e-06)
(4.44321e-06 -1.68064e-06 1.55229e-06)
(4.43598e-06 -1.67685e-06 1.54903e-06)
(4.42925e-06 -1.67337e-06 1.5459e-06)
(4.42301e-06 -1.67021e-06 1.5429e-06)
(4.41723e-06 -1.66735e-06 1.54002e-06)
(4.41191e-06 -1.66478e-06 1.53727e-06)
(4.40703e-06 -1.66248e-06 1.53464e-06)
(4.40258e-06 -1.66045e-06 1.53214e-06)
(4.39853e-06 -1.65867e-06 1.52975e-06)
(4.39489e-06 -1.65714e-06 1.52749e-06)
(4.39163e-06 -1.65585e-06 1.52536e-06)
(4.38875e-06 -1.65478e-06 1.52334e-06)
(4.38623e-06 -1.65394e-06 1.52145e-06)
(4.38406e-06 -1.65331e-06 1.51967e-06)
(4.38223e-06 -1.65288e-06 1.51802e-06)
(4.38074e-06 -1.65265e-06 1.51648e-06)
(4.37956e-06 -1.6526e-06 1.51507e-06)
(4.37869e-06 -1.65274e-06 1.51376e-06)
(4.37813e-06 -1.65305e-06 1.51258e-06)
(4.37786e-06 -1.65354e-06 1.51151e-06)
(4.37787e-06 -1.65418e-06 1.51055e-06)
(4.37815e-06 -1.65498e-06 1.50971e-06)
(4.37871e-06 -1.65594e-06 1.50897e-06)
(4.37952e-06 -1.65704e-06 1.50835e-06)
(4.38059e-06 -1.65828e-06 1.50784e-06)
(4.3819e-06 -1.65965e-06 1.50744e-06)
(4.38345e-06 -1.66115e-06 1.50689e-06)
(4.38523e-06 -1.66278e-06 1.50554e-06)
(4.38723e-06 -1.66453e-06 1.50431e-06)
(4.38945e-06 -1.6664e-06 1.5032e-06)
(4.39188e-06 -1.66838e-06 1.5022e-06)
(4.39452e-06 -1.67047e-06 1.50131e-06)
(4.39736e-06 -1.67266e-06 1.50054e-06)
(4.40039e-06 -1.67495e-06 1.49987e-06)
(4.40361e-06 -1.67734e-06 1.49931e-06)
(4.40702e-06 -1.67982e-06 1.49886e-06)
(4.4106e-06 -1.68238e-06 1.49851e-06)
(4.41435e-06 -1.68504e-06 1.49826e-06)
(4.41828e-06 -1.68778e-06 1.49812e-06)
(4.42237e-06 -1.6906e-06 1.49807e-06)
(4.42661e-06 -1.69349e-06 1.49813e-06)
(4.43102e-06 -1.69646e-06 1.49828e-06)
(4.43557e-06 -1.6995e-06 1.4948e-06)
(4.44027e-06 -1.7026e-06 1.49019e-06)
(4.44511e-06 -1.70577e-06 1.48559e-06)
(4.4501e-06 -1.70901e-06 1.481e-06)
(4.45521e-06 -1.7123e-06 1.47643e-06)
(4.46046e-06 -1.71566e-06 1.47187e-06)
(4.46583e-06 -1.71907e-06 1.46733e-06)
(4.47133e-06 -1.72253e-06 1.4628e-06)
(4.47695e-06 -1.72604e-06 1.4583e-06)
(4.48269e-06 -1.72961e-06 1.45381e-06)
(4.48854e-06 -1.73321e-06 1.44935e-06)
(4.49451e-06 -1.73687e-06 1.44491e-06)
(4.50058e-06 -1.74057e-06 1.44049e-06)
(4.50676e-06 -1.74431e-06 1.4361e-06)
(4.51304e-06 -1.74808e-06 1.43173e-06)
(4.51942e-06 -1.7519e-06 1.42737e-06)
(4.52589e-06 -1.75575e-06 1.42302e-06)
(4.53246e-06 -1.75964e-06 1.41869e-06)
(4.53913e-06 -1.76356e-06 1.41434e-06)
(4.54588e-06 -1.76751e-06 1.40998e-06)
(4.55272e-06 -1.77148e-06 1.40561e-06)
(4.55965e-06 -1.77549e-06 1.40113e-06)
(4.56665e-06 -1.77953e-06 1.39676e-06)
(4.57376e-06 -1.78359e-06 1.39228e-06)
(5.13016e-06 -2.16316e-06 7.15489e-07)
(5.08755e-06 -2.13493e-06 7.31805e-07)
(5.04683e-06 -2.10799e-06 7.47603e-07)
(5.00791e-06 -2.08242e-06 7.62244e-07)
(4.97073e-06 -2.0581e-06 7.76029e-07)
(4.9352e-06 -2.035e-06 7.88916e-07)
(4.90127e-06 -2.01305e-06 8.01e-07)
(4.86885e-06 -1.99219e-06 8.12323e-07)
(4.83788e-06 -1.97238e-06 8.2293e-07)
(4.80831e-06 -1.95357e-06 8.32849e-07)
(4.78008e-06 -1.93572e-06 8.42135e-07)
(4.75312e-06 -1.91877e-06 8.5082e-07)
(4.7274e-06 -1.9027e-06 8.58951e-07)
(4.70286e-06 -1.88746e-06 8.93033e-07)
(4.67945e-06 -1.87301e-06 9.72868e-07)
(4.65713e-06 -1.85932e-06 1.04896e-06)
(4.63586e-06 -1.84636e-06 1.12145e-06)
(4.61559e-06 -1.8341e-06 1.19051e-06)
(4.5963e-06 -1.8225e-06 1.25627e-06)
(4.57793e-06 -1.81155e-06 1.31887e-06)
(4.56045e-06 -1.8012e-06 1.33286e-06)
(4.54384e-06 -1.79144e-06 1.34086e-06)
(4.52806e-06 -1.78224e-06 1.34816e-06)
(4.51308e-06 -1.77358e-06 1.35479e-06)
(4.49887e-06 -1.76543e-06 1.3608e-06)
(4.48541e-06 -1.75778e-06 1.3662e-06)
(4.47265e-06 -1.75061e-06 1.37103e-06)
(4.46059e-06 -1.74389e-06 1.37533e-06)
(4.4492e-06 -1.73761e-06 1.37912e-06)
(4.43845e-06 -1.73175e-06 1.38244e-06)
(4.42832e-06 -1.72629e-06 1.38528e-06)
(4.4188e-06 -1.72122e-06 1.38773e-06)
(4.40983e-06 -1.71653e-06 1.38968e-06)
(4.40143e-06 -1.7122e-06 1.39124e-06)
(4.39358e-06 -1.7082e-06 1.39252e-06)
(4.38625e-06 -1.70453e-06 1.39341e-06)
(4.37943e-06 -1.70119e-06 1.39399e-06)
(4.37309e-06 -1.69815e-06 1.39425e-06)
(4.36723e-06 -1.6954e-06 1.39421e-06)
(4.36182e-06 -1.69294e-06 1.3939e-06)
(4.35685e-06 -1.69075e-06 1.39332e-06)
(4.35231e-06 -1.68882e-06 1.3925e-06)
(4.34819e-06 -1.68714e-06 1.39144e-06)
(4.34447e-06 -1.68571e-06 1.39011e-06)
(4.34113e-06 -1.68451e-06 1.38766e-06)
(4.33818e-06 -1.68354e-06 1.38533e-06)
(4.33558e-06 -1.68278e-06 1.38314e-06)
(4.33334e-06 -1.68223e-06 1.38108e-06)
(4.33144e-06 -1.68188e-06 1.37914e-06)
(4.32988e-06 -1.68173e-06 1.37733e-06)
(4.32863e-06 -1.68176e-06 1.37565e-06)
(4.3277e-06 -1.68197e-06 1.37345e-06)
(4.32707e-06 -1.68235e-06 1.37071e-06)
(4.32674e-06 -1.6829e-06 1.36785e-06)
(4.32669e-06 -1.68362e-06 1.36488e-06)
(4.32691e-06 -1.68448e-06 1.36182e-06)
(4.32741e-06 -1.6855e-06 1.35866e-06)
(4.32816e-06 -1.68666e-06 1.35542e-06)
(4.32917e-06 -1.68796e-06 1.3521e-06)
(4.33042e-06 -1.68939e-06 1.34871e-06)
(4.33191e-06 -1.69095e-06 1.34443e-06)
(4.33363e-06 -1.69263e-06 1.33975e-06)
(4.33558e-06 -1.69444e-06 1.33502e-06)
(4.33774e-06 -1.69635e-06 1.33025e-06)
(4.34012e-06 -1.69838e-06 1.32544e-06)
(4.3427e-06 -1.70052e-06 1.32061e-06)
(4.34548e-06 -1.70276e-06 1.31575e-06)
(4.34846e-06 -1.70509e-06 1.31086e-06)
(4.35163e-06 -1.70753e-06 1.30596e-06)
(4.35498e-06 -1.71005e-06 1.30105e-06)
(4.35851e-06 -1.71266e-06 1.29612e-06)
(4.36221e-06 -1.71536e-06 1.29119e-06)
(4.36608e-06 -1.71814e-06 1.28625e-06)
(4.37011e-06 -1.721e-06 1.28131e-06)
(4.37431e-06 -1.72393e-06 1.27637e-06)
(4.37866e-06 -1.72694e-06 1.27143e-06)
(4.38316e-06 -1.73002e-06 1.2665e-06)
(4.3878e-06 -1.73316e-06 1.26158e-06)
(4.39259e-06 -1.73637e-06 1.25666e-06)
(4.39752e-06 -1.73964e-06 1.25176e-06)
(4.40258e-06 -1.74297e-06 1.24687e-06)
(4.40778e-06 -1.74636e-06 1.24199e-06)
(4.4131e-06 -1.7498e-06 1.23712e-06)
(4.41854e-06 -1.7533e-06 1.23227e-06)
(4.42411e-06 -1.75685e-06 1.22744e-06)
(4.42979e-06 -1.76045e-06 1.22262e-06)
(4.43559e-06 -1.76409e-06 1.21781e-06)
(4.4415e-06 -1.76778e-06 1.21302e-06)
(4.44752e-06 -1.77151e-06 1.20825e-06)
(4.45364e-06 -1.77528e-06 1.20348e-06)
(4.45986e-06 -1.77909e-06 1.19873e-06)
(4.46619e-06 -1.78294e-06 1.19397e-06)
(4.47261e-06 -1.78682e-06 1.18922e-06)
(4.47912e-06 -1.79074e-06 1.18445e-06)
(4.48573e-06 -1.79469e-06 1.17968e-06)
(4.49243e-06 -1.79867e-06 1.17487e-06)
(4.49921e-06 -1.80268e-06 1.17005e-06)
(4.50608e-06 -1.80672e-06 1.16514e-06)
(4.51302e-06 -1.81078e-06 1.1604e-06)
(4.52006e-06 -1.81487e-06 1.15536e-06)
(5.08789e-06 -2.18041e-06 5.88865e-07)
(5.04486e-06 -2.15277e-06 6.02671e-07)
(5.00373e-06 -2.12639e-06 6.16084e-07)
(4.96442e-06 -2.10136e-06 6.28459e-07)
(4.92688e-06 -2.07756e-06 6.40081e-07)
(4.891e-06 -2.05494e-06 6.50915e-07)
(4.85673e-06 -2.03345e-06 6.6104e-07)
(4.82399e-06 -2.01304e-06 6.70484e-07)
(4.79273e-06 -1.99366e-06 6.79314e-07)
(4.76287e-06 -1.97525e-06 6.87534e-07)
(4.73436e-06 -1.95779e-06 6.952e-07)
(4.70715e-06 -1.94121e-06 7.02331e-07)
(4.68118e-06 -1.92549e-06 7.24983e-07)
(4.6564e-06 -1.91058e-06 8.07412e-07)
(4.63277e-06 -1.89646e-06 8.85981e-07)
(4.61023e-06 -1.88308e-06 9.60868e-07)
(4.58875e-06 -1.87042e-06 1.03221e-06)
(4.56829e-06 -1.85844e-06 1.10017e-06)
(4.5488e-06 -1.84711e-06 1.12159e-06)
(4.53025e-06 -1.83641e-06 1.12971e-06)
(4.51261e-06 -1.82631e-06 1.1371e-06)
(4.49583e-06 -1.81679e-06 1.14382e-06)
(4.47989e-06 -1.80781e-06 1.14988e-06)
(4.46476e-06 -1.79937e-06 1.15532e-06)
(4.4504e-06 -1.79143e-06 1.16018e-06)
(4.4368e-06 -1.78398e-06 1.16449e-06)
(4.42391e-06 -1.777e-06 1.16828e-06)
(4.41172e-06 -1.77047e-06 1.17157e-06)
(4.4002e-06 -1.76436e-06 1.17439e-06)
(4.38933e-06 -1.75867e-06 1.17677e-06)
(4.37908e-06 -1.75338e-06 1.17872e-06)
(4.36944e-06 -1.74846e-06 1.18027e-06)
(4.36037e-06 -1.74391e-06 1.18145e-06)
(4.35188e-06 -1.73972e-06 1.18225e-06)
(4.34393e-06 -1.73587e-06 1.18273e-06)
(4.3365e-06 -1.73233e-06 1.18288e-06)
(4.32958e-06 -1.72912e-06 1.18274e-06)
(4.32315e-06 -1.7262e-06 1.1823e-06)
(4.3172e-06 -1.72357e-06 1.1816e-06)
(4.31171e-06 -1.72122e-06 1.18064e-06)
(4.30666e-06 -1.71914e-06 1.17945e-06)
(4.30204e-06 -1.71732e-06 1.17802e-06)
(4.29783e-06 -1.71574e-06 1.17638e-06)
(4.29404e-06 -1.71441e-06 1.17455e-06)
(4.29063e-06 -1.7133e-06 1.17252e-06)
(4.28759e-06 -1.71242e-06 1.17031e-06)
(4.28493e-06 -1.71175e-06 1.16794e-06)
(4.28262e-06 -1.71129e-06 1.16541e-06)
(4.28065e-06 -1.71102e-06 1.16273e-06)
(4.27902e-06 -1.71095e-06 1.15992e-06)
(4.27771e-06 -1.71106e-06 1.15698e-06)
(4.27671e-06 -1.71134e-06 1.15391e-06)
(4.27602e-06 -1.7118e-06 1.15074e-06)
(4.27562e-06 -1.71242e-06 1.14746e-06)
(4.27551e-06 -1.7132e-06 1.14408e-06)
(4.27568e-06 -1.71413e-06 1.14062e-06)
(4.27611e-06 -1.71521e-06 1.13707e-06)
(4.27681e-06 -1.71643e-06 1.13345e-06)
(4.27775e-06 -1.71779e-06 1.12975e-06)
(4.27895e-06 -1.71928e-06 1.12583e-06)
(4.28038e-06 -1.72089e-06 1.12082e-06)
(4.28205e-06 -1.72263e-06 1.11577e-06)
(4.28394e-06 -1.72449e-06 1.11069e-06)
(4.28605e-06 -1.72646e-06 1.10557e-06)
(4.28837e-06 -1.72854e-06 1.10042e-06)
(4.29089e-06 -1.73072e-06 1.09525e-06)
(4.29362e-06 -1.73301e-06 1.09005e-06)
(4.29655e-06 -1.73539e-06 1.08484e-06)
(4.29966e-06 -1.73787e-06 1.07961e-06)
(4.30295e-06 -1.74044e-06 1.07437e-06)
(4.30643e-06 -1.7431e-06 1.06913e-06)
(4.31008e-06 -1.74584e-06 1.06387e-06)
(4.31389e-06 -1.74866e-06 1.05862e-06)
(4.31788e-06 -1.75156e-06 1.05336e-06)
(4.32202e-06 -1.75453e-06 1.04811e-06)
(4.32631e-06 -1.75758e-06 1.04286e-06)
(4.33076e-06 -1.76069e-06 1.03762e-06)
(4.33535e-06 -1.76387e-06 1.03238e-06)
(4.34009e-06 -1.76712e-06 1.02715e-06)
(4.34496e-06 -1.77043e-06 1.02194e-06)
(4.34997e-06 -1.7738e-06 1.01673e-06)
(4.35511e-06 -1.77722e-06 1.01154e-06)
(4.36038e-06 -1.7807e-06 1.00636e-06)
(4.36577e-06 -1.78423e-06 1.00119e-06)
(4.37128e-06 -1.78781e-06 9.96038e-07)
(4.37691e-06 -1.79144e-06 9.9089e-07)
(4.38265e-06 -1.79512e-06 9.85755e-07)
(4.38851e-06 -1.79884e-06 9.8063e-07)
(4.39447e-06 -1.8026e-06 9.75515e-07)
(4.40054e-06 -1.80641e-06 9.70405e-07)
(4.40671e-06 -1.81025e-06 9.65299e-07)
(4.41298e-06 -1.81413e-06 9.60191e-07)
(4.41934e-06 -1.81804e-06 9.55078e-07)
(4.4258e-06 -1.82199e-06 9.49958e-07)
(4.43235e-06 -1.82597e-06 9.44828e-07)
(4.43899e-06 -1.82998e-06 9.39684e-07)
(4.44571e-06 -1.83402e-06 9.34552e-07)
(4.45252e-06 -1.83809e-06 9.29363e-07)
(4.4594e-06 -1.84219e-06 9.24371e-07)
(4.46638e-06 -1.8463e-06 9.19158e-07)
(5.04534e-06 -2.19753e-06 4.62083e-07)
(5.00189e-06 -2.17049e-06 4.73368e-07)
(4.96036e-06 -2.1447e-06 4.84387e-07)
(4.92068e-06 -2.12022e-06 4.94473e-07)
(4.88278e-06 -2.09693e-06 5.03927e-07)
(4.84657e-06 -2.07482e-06 5.12695e-07)
(4.81198e-06 -2.05381e-06 5.20854e-07)
(4.77894e-06 -2.03385e-06 5.28416e-07)
(4.74738e-06 -2.0149e-06 5.35447e-07)
(4.71725e-06 -1.99691e-06 5.41958e-07)
(4.68848e-06 -1.97984e-06 5.47992e-07)
(4.66102e-06 -1.96364e-06 5.55641e-07)
(4.63481e-06 -1.94828e-06 6.40693e-07)
(4.6098e-06 -1.93372e-06 7.21779e-07)
(4.58595e-06 -1.91992e-06 7.99044e-07)
(4.5632e-06 -1.90686e-06 8.72698e-07)
(4.54153e-06 -1.8945e-06 9.1268e-07)
(4.52087e-06 -1.88281e-06 9.20818e-07)
(4.5012e-06 -1.87175e-06 9.28217e-07)
(4.48248e-06 -1.86132e-06 9.34916e-07)
(4.46467e-06 -1.85147e-06 9.40953e-07)
(4.44773e-06 -1.84219e-06 9.46361e-07)
(4.43164e-06 -1.83345e-06 9.51175e-07)
(4.41636e-06 -1.82523e-06 9.55424e-07)
(4.40187e-06 -1.8175e-06 9.59139e-07)
(4.38812e-06 -1.81026e-06 9.62347e-07)
(4.37511e-06 -1.80347e-06 9.65076e-07)
(4.36279e-06 -1.79712e-06 9.6735e-07)
(4.35115e-06 -1.7912e-06 9.69194e-07)
(4.34017e-06 -1.78568e-06 9.70633e-07)
(4.32981e-06 -1.78055e-06 9.71682e-07)
(4.32006e-06 -1.7758e-06 9.72366e-07)
(4.31089e-06 -1.7714e-06 9.72711e-07)
(4.3023e-06 -1.76735e-06 9.72727e-07)
(4.29425e-06 -1.76364e-06 9.72427e-07)
(4.28673e-06 -1.76024e-06 9.71838e-07)
(4.27972e-06 -1.75716e-06 9.70974e-07)
(4.2732e-06 -1.75436e-06 9.69849e-07)
(4.26716e-06 -1.75186e-06 9.68478e-07)
(4.26158e-06 -1.74962e-06 9.66876e-07)
(4.25645e-06 -1.74765e-06 9.65054e-07)
(4.25175e-06 -1.74594e-06 9.63027e-07)
(4.24748e-06 -1.74447e-06 9.60806e-07)
(4.2436e-06 -1.74323e-06 9.58403e-07)
(4.24012e-06 -1.74222e-06 9.55828e-07)
(4.23702e-06 -1.74143e-06 9.53093e-07)
(4.23428e-06 -1.74085e-06 9.50207e-07)
(4.2319e-06 -1.74048e-06 9.47179e-07)
(4.22987e-06 -1.74029e-06 9.44018e-07)
(4.22817e-06 -1.7403e-06 9.40734e-07)
(4.2268e-06 -1.74049e-06 9.37335e-07)
(4.22574e-06 -1.74085e-06 9.33827e-07)
(4.22498e-06 -1.74138e-06 9.3022e-07)
(4.22452e-06 -1.74207e-06 9.26518e-07)
(4.22435e-06 -1.74292e-06 9.22732e-07)
(4.22446e-06 -1.74391e-06 9.18864e-07)
(4.22483e-06 -1.74506e-06 9.14925e-07)
(4.22547e-06 -1.74634e-06 9.10917e-07)
(4.22636e-06 -1.74776e-06 9.06848e-07)
(4.2275e-06 -1.74931e-06 9.02049e-07)
(4.22887e-06 -1.75098e-06 8.96675e-07)
(4.23048e-06 -1.75277e-06 8.91266e-07)
(4.23232e-06 -1.75468e-06 8.85826e-07)
(4.23437e-06 -1.7567e-06 8.80357e-07)
(4.23664e-06 -1.75884e-06 8.74864e-07)
(4.23911e-06 -1.76107e-06 8.69351e-07)
(4.24179e-06 -1.7634e-06 8.6382e-07)
(4.24466e-06 -1.76584e-06 8.58275e-07)
(4.24771e-06 -1.76836e-06 8.52721e-07)
(4.25096e-06 -1.77097e-06 8.4716e-07)
(4.25438e-06 -1.77367e-06 8.41593e-07)
(4.25797e-06 -1.77646e-06 8.36025e-07)
(4.26174e-06 -1.77932e-06 8.30455e-07)
(4.26566e-06 -1.78226e-06 8.24886e-07)
(4.26975e-06 -1.78528e-06 8.19322e-07)
(4.27399e-06 -1.78836e-06 8.13763e-07)
(4.27839e-06 -1.79152e-06 8.0821e-07)
(4.28293e-06 -1.79474e-06 8.02666e-07)
(4.28761e-06 -1.79802e-06 7.97132e-07)
(4.29243e-06 -1.80136e-06 7.91608e-07)
(4.29739e-06 -1.80477e-06 7.86096e-07)
(4.30247e-06 -1.80823e-06 7.80597e-07)
(4.30769e-06 -1.81174e-06 7.75109e-07)
(4.31302e-06 -1.81531e-06 7.69634e-07)
(4.31848e-06 -1.81892e-06 7.64169e-07)
(4.32405e-06 -1.82258e-06 7.58706e-07)
(4.32974e-06 -1.8263e-06 7.53256e-07)
(4.33554e-06 -1.83005e-06 7.47815e-07)
(4.34145e-06 -1.83384e-06 7.42383e-07)
(4.34746e-06 -1.83768e-06 7.36957e-07)
(4.35358e-06 -1.84155e-06 7.31535e-07)
(4.35979e-06 -1.84547e-06 7.26114e-07)
(4.3661e-06 -1.84941e-06 7.20694e-07)
(4.3725e-06 -1.85339e-06 7.15275e-07)
(4.37899e-06 -1.8574e-06 7.09859e-07)
(4.38557e-06 -1.86144e-06 7.04448e-07)
(4.39224e-06 -1.86552e-06 6.99069e-07)
(4.39899e-06 -1.86961e-06 6.93667e-07)
(4.40581e-06 -1.87374e-06 6.88472e-07)
(4.41272e-06 -1.87788e-06 6.83083e-07)
(5.00248e-06 -2.21452e-06 3.35162e-07)
(4.95863e-06 -2.18811e-06 3.43908e-07)
(4.91673e-06 -2.1629e-06 3.52527e-07)
(4.8767e-06 -2.13898e-06 3.60319e-07)
(4.83846e-06 -2.11624e-06 3.67587e-07)
(4.80192e-06 -2.09463e-06 3.74273e-07)
(4.76702e-06 -2.07411e-06 3.80456e-07)
(4.73369e-06 -2.05462e-06 3.86123e-07)
(4.70185e-06 -2.03611e-06 3.91357e-07)
(4.67145e-06 -2.01854e-06 3.96148e-07)
(4.64243e-06 -2.00187e-06 4.00547e-07)
(4.61473e-06 -1.98606e-06 4.72875e-07)
(4.58829e-06 -1.97107e-06 5.56454e-07)
(4.56306e-06 -1.95686e-06 6.36142e-07)
(4.539e-06 -1.9434e-06 7.06688e-07)
(4.51606e-06 -1.93066e-06 7.14724e-07)
(4.49419e-06 -1.9186e-06 7.22012e-07)
(4.47335e-06 -1.9072e-06 7.2859e-07)
(4.45351e-06 -1.89643e-06 7.34498e-07)
(4.43462e-06 -1.88627e-06 7.39768e-07)
(4.41665e-06 -1.87668e-06 7.44437e-07)
(4.39956e-06 -1.86764e-06 7.48535e-07)
(4.38332e-06 -1.85914e-06 7.52093e-07)
(4.3679e-06 -1.85114e-06 7.55138e-07)
(4.35327e-06 -1.84364e-06 7.57698e-07)
(4.3394e-06 -1.8366e-06 7.59798e-07)
(4.32626e-06 -1.83001e-06 7.61463e-07)
(4.31382e-06 -1.82386e-06 7.62717e-07)
(4.30207e-06 -1.81811e-06 7.6358e-07)
(4.29097e-06 -1.81277e-06 7.64075e-07)
(4.2805e-06 -1.80781e-06 7.64221e-07)
(4.27065e-06 -1.80322e-06 7.64036e-07)
(4.26138e-06 -1.79898e-06 7.63541e-07)
(4.25269e-06 -1.79508e-06 7.62748e-07)
(4.24455e-06 -1.79151e-06 7.61674e-07)
(4.23694e-06 -1.78825e-06 7.60337e-07)
(4.22984e-06 -1.7853e-06 7.58751e-07)
(4.22324e-06 -1.78263e-06 7.56929e-07)
(4.21711e-06 -1.78025e-06 7.54886e-07)
(4.21146e-06 -1.77813e-06 7.52635e-07)
(4.20625e-06 -1.77628e-06 7.50187e-07)
(4.20147e-06 -1.77467e-06 7.47555e-07)
(4.19712e-06 -1.77331e-06 7.44748e-07)
(4.19317e-06 -1.77217e-06 7.41779e-07)
(4.18962e-06 -1.77126e-06 7.38655e-07)
(4.18645e-06 -1.77057e-06 7.35389e-07)
(4.18365e-06 -1.77008e-06 7.31986e-07)
(4.1812e-06 -1.76979e-06 7.28458e-07)
(4.1791e-06 -1.76969e-06 7.24811e-07)
(4.17734e-06 -1.76978e-06 7.21055e-07)
(4.1759e-06 -1.77004e-06 7.17197e-07)
(4.17478e-06 -1.77048e-06 7.13242e-07)
(4.17397e-06 -1.77108e-06 7.09202e-07)
(4.17345e-06 -1.77185e-06 7.05076e-07)
(4.17322e-06 -1.77276e-06 7.00877e-07)
(4.17326e-06 -1.77383e-06 6.96606e-07)
(4.17358e-06 -1.77504e-06 6.92273e-07)
(4.17416e-06 -1.77638e-06 6.87882e-07)
(4.17499e-06 -1.77786e-06 6.83435e-07)
(4.17608e-06 -1.77947e-06 6.77786e-07)
(4.1774e-06 -1.7812e-06 6.72044e-07)
(4.17895e-06 -1.78305e-06 6.66274e-07)
(4.18073e-06 -1.78501e-06 6.60477e-07)
(4.18273e-06 -1.78709e-06 6.5466e-07)
(4.18494e-06 -1.78927e-06 6.48823e-07)
(4.18736e-06 -1.79155e-06 6.4297e-07)
(4.18998e-06 -1.79394e-06 6.37106e-07)
(4.1928e-06 -1.79642e-06 6.31231e-07)
(4.1958e-06 -1.79899e-06 6.25351e-07)
(4.19899e-06 -1.80165e-06 6.19468e-07)
(4.20236e-06 -1.80439e-06 6.13583e-07)
(4.2059e-06 -1.80722e-06 6.07698e-07)
(4.20961e-06 -1.81012e-06 6.01816e-07)
(4.21349e-06 -1.8131e-06 5.95937e-07)
(4.21752e-06 -1.81616e-06 5.90065e-07)
(4.22171e-06 -1.81928e-06 5.842e-07)
(4.22605e-06 -1.82248e-06 5.78342e-07)
(4.23054e-06 -1.82574e-06 5.72496e-07)
(4.23517e-06 -1.82906e-06 5.6666e-07)
(4.23994e-06 -1.83244e-06 5.60833e-07)
(4.24484e-06 -1.83588e-06 5.55018e-07)
(4.24987e-06 -1.83937e-06 5.49221e-07)
(4.25503e-06 -1.84292e-06 5.43435e-07)
(4.26032e-06 -1.84652e-06 5.37665e-07)
(4.26571e-06 -1.85017e-06 5.31899e-07)
(4.27123e-06 -1.85387e-06 5.26133e-07)
(4.27687e-06 -1.85761e-06 5.20386e-07)
(4.28262e-06 -1.8614e-06 5.14652e-07)
(4.28847e-06 -1.86523e-06 5.08927e-07)
(4.29443e-06 -1.86909e-06 5.0321e-07)
(4.30048e-06 -1.873e-06 4.97502e-07)
(4.30664e-06 -1.87694e-06 4.91801e-07)
(4.31289e-06 -1.88092e-06 4.86111e-07)
(4.31923e-06 -1.88493e-06 4.80434e-07)
(4.32567e-06 -1.88897e-06 4.74774e-07)
(4.33219e-06 -1.89304e-06 4.69137e-07)
(4.3388e-06 -1.89715e-06 4.63546e-07)
(4.34549e-06 -1.90127e-06 4.57953e-07)
(4.35225e-06 -1.90543e-06 4.52565e-07)
(4.35911e-06 -1.9096e-06 4.47002e-07)
(4.95933e-06 -2.2314e-06 1.5783e-07)
(4.9151e-06 -2.20561e-06 1.71189e-07)
(4.87284e-06 -2.181e-06 1.84255e-07)
(4.83246e-06 -2.15766e-06 1.96047e-07)
(4.7939e-06 -2.13546e-06 2.07007e-07)
(4.75705e-06 -2.11438e-06 2.17045e-07)
(4.72186e-06 -2.09435e-06 2.26291e-07)
(4.68824e-06 -2.07533e-06 2.34724e-07)
(4.65614e-06 -2.05727e-06 2.42439e-07)
(4.62549e-06 -2.04014e-06 2.49463e-07)
(4.59622e-06 -2.02388e-06 3.04113e-07)
(4.56829e-06 -2.00846e-06 3.90201e-07)
(4.54163e-06 -1.99385e-06 4.72278e-07)
(4.51619e-06 -1.98e-06 5.12052e-07)
(4.49193e-06 -1.96688e-06 5.19086e-07)
(4.4688e-06 -1.95447e-06 5.25406e-07)
(4.44675e-06 -1.94272e-06 5.31055e-07)
(4.42574e-06 -1.93163e-06 5.36064e-07)
(4.40573e-06 -1.92114e-06 5.4047e-07)
(4.38668e-06 -1.91125e-06 5.44304e-07)
(4.36855e-06 -1.90193e-06 5.47597e-07)
(4.35132e-06 -1.89314e-06 5.50377e-07)
(4.33494e-06 -1.88488e-06 5.52672e-07)
(4.31938e-06 -1.87711e-06 5.54506e-07)
(4.30462e-06 -1.86983e-06 5.55905e-07)
(4.29062e-06 -1.863e-06 5.56891e-07)
(4.27736e-06 -1.85662e-06 5.57487e-07)
(4.26481e-06 -1.85066e-06 5.57713e-07)
(4.25295e-06 -1.8451e-06 5.57591e-07)
(4.24174e-06 -1.83994e-06 5.57138e-07)
(4.23117e-06 -1.83515e-06 5.56372e-07)
(4.22122e-06 -1.83072e-06 5.55311e-07)
(4.21186e-06 -1.82664e-06 5.53973e-07)
(4.20307e-06 -1.82289e-06 5.52371e-07)
(4.19484e-06 -1.81947e-06 5.50517e-07)
(4.18714e-06 -1.81635e-06 5.48428e-07)
(4.17996e-06 -1.81353e-06 5.46116e-07)
(4.17327e-06 -1.811e-06 5.43596e-07)
(4.16707e-06 -1.80874e-06 5.40877e-07)
(4.16134e-06 -1.80674e-06 5.37974e-07)
(4.15605e-06 -1.805e-06 5.34896e-07)
(4.1512e-06 -1.80351e-06 5.31655e-07)
(4.14678e-06 -1.80225e-06 5.2826e-07)
(4.14276e-06 -1.80122e-06 5.24722e-07)
(4.13914e-06 -1.80041e-06 5.21047e-07)
(4.1359e-06 -1.79981e-06 5.17246e-07)
(4.13303e-06 -1.79941e-06 5.13325e-07)
(4.13052e-06 -1.79921e-06 5.09295e-07)
(4.12836e-06 -1.7992e-06 5.05161e-07)
(4.12654e-06 -1.79937e-06 5.00931e-07)
(4.12504e-06 -1.79972e-06 4.96614e-07)
(4.12386e-06 -1.80023e-06 4.92211e-07)
(4.12298e-06 -1.80091e-06 4.87734e-07)
(4.1224e-06 -1.80174e-06 4.83184e-07)
(4.12211e-06 -1.80273e-06 4.7857e-07)
(4.1221e-06 -1.80386e-06 4.73896e-07)
(4.12236e-06 -1.80514e-06 4.69169e-07)
(4.12289e-06 -1.80655e-06 4.64392e-07)
(4.12367e-06 -1.80809e-06 4.5848e-07)
(4.12469e-06 -1.80976e-06 4.52346e-07)
(4.12596e-06 -1.81154e-06 4.47174e-07)
(4.12746e-06 -1.81345e-06 4.41971e-07)
(4.12918e-06 -1.81547e-06 4.36737e-07)
(4.13113e-06 -1.8176e-06 4.31477e-07)
(4.13329e-06 -1.81983e-06 4.26195e-07)
(4.13565e-06 -1.82217e-06 4.20892e-07)
(4.13822e-06 -1.8246e-06 4.15571e-07)
(4.14098e-06 -1.82712e-06 4.10235e-07)
(4.14394e-06 -1.82974e-06 4.04885e-07)
(4.14707e-06 -1.83245e-06 3.99526e-07)
(4.15039e-06 -1.83523e-06 3.94157e-07)
(4.15388e-06 -1.8381e-06 3.87931e-07)
(4.15754e-06 -1.84105e-06 3.81638e-07)
(4.16136e-06 -1.84408e-06 3.75347e-07)
(4.16534e-06 -1.84717e-06 3.69059e-07)
(4.16948e-06 -1.85034e-06 3.62777e-07)
(4.17376e-06 -1.85357e-06 3.56499e-07)
(4.1782e-06 -1.85687e-06 3.50234e-07)
(4.18277e-06 -1.86022e-06 3.4397e-07)
(4.18748e-06 -1.86364e-06 3.37729e-07)
(4.19234e-06 -1.86712e-06 3.31485e-07)
(4.19732e-06 -1.87065e-06 3.25259e-07)
(4.20242e-06 -1.87424e-06 3.1904e-07)
(4.20765e-06 -1.87787e-06 3.12845e-07)
(4.21299e-06 -1.88154e-06 3.06675e-07)
(4.21846e-06 -1.88527e-06 3.00486e-07)
(4.22404e-06 -1.88906e-06 2.943e-07)
(4.22974e-06 -1.89288e-06 2.88143e-07)
(4.23553e-06 -1.89674e-06 2.81991e-07)
(4.24143e-06 -1.90064e-06 2.75856e-07)
(4.24743e-06 -1.90457e-06 2.69733e-07)
(4.25353e-06 -1.90855e-06 2.63627e-07)
(4.25972e-06 -1.91256e-06 2.57538e-07)
(4.26601e-06 -1.9166e-06 2.51473e-07)
(4.27239e-06 -1.92067e-06 2.45435e-07)
(4.27885e-06 -1.92477e-06 2.39431e-07)
(4.2854e-06 -1.9289e-06 2.33483e-07)
(4.29203e-06 -1.93306e-06 2.27538e-07)
(4.29874e-06 -1.93725e-06 2.21795e-07)
(4.30553e-06 -1.94145e-06 2.15886e-07)
(4.9159e-06 -2.24814e-06 -6.83947e-08)
(4.8713e-06 -2.223e-06 -5.10906e-08)
(4.8287e-06 -2.199e-06 -3.42195e-08)
(4.78799e-06 -2.17624e-06 -1.93676e-08)
(4.74911e-06 -2.1546e-06 -5.79176e-09)
(4.71197e-06 -2.13405e-06 6.30825e-09)
(4.67649e-06 -2.11453e-06 1.71897e-08)
(4.64261e-06 -2.09599e-06 2.68082e-08)
(4.61025e-06 -2.0784e-06 3.53054e-08)
(4.57936e-06 -2.0617e-06 1.00164e-07)
(4.54986e-06 -2.04586e-06 1.93444e-07)
(4.52171e-06 -2.03084e-06 2.821e-07)
(4.49484e-06 -2.01661e-06 3.07973e-07)
(4.4692e-06 -2.00313e-06 3.15056e-07)
(4.44475e-06 -1.99036e-06 3.21346e-07)
(4.42143e-06 -1.97828e-06 3.26958e-07)
(4.39921e-06 -1.96686e-06 3.31996e-07)
(4.37803e-06 -1.95607e-06 3.36492e-07)
(4.35786e-06 -1.94588e-06 3.40344e-07)
(4.33866e-06 -1.93626e-06 3.43617e-07)
(4.32039e-06 -1.92721e-06 3.46367e-07)
(4.30301e-06 -1.91868e-06 3.48619e-07)
(4.2865e-06 -1.91066e-06 3.50402e-07)
(4.27081e-06 -1.90313e-06 3.51739e-07)
(4.25593e-06 -1.89607e-06 3.52655e-07)
(4.24181e-06 -1.88946e-06 3.53169e-07)
(4.22844e-06 -1.88328e-06 3.53305e-07)
(4.21578e-06 -1.87752e-06 3.53082e-07)
(4.2038e-06 -1.87216e-06 3.52519e-07)
(4.1925e-06 -1.86717e-06 3.51635e-07)
(4.18183e-06 -1.86256e-06 3.50446e-07)
(4.17178e-06 -1.8583e-06 3.4897e-07)
(4.16233e-06 -1.85438e-06 3.47222e-07)
(4.15345e-06 -1.85079e-06 3.45216e-07)
(4.14513e-06 -1.84751e-06 3.42965e-07)
(4.13735e-06 -1.84454e-06 3.40484e-07)
(4.13008e-06 -1.84186e-06 3.37784e-07)
(4.12332e-06 -1.83945e-06 3.34879e-07)
(4.11704e-06 -1.83732e-06 3.3178e-07)
(4.11123e-06 -1.83545e-06 3.28499e-07)
(4.10587e-06 -1.83383e-06 3.25046e-07)
(4.10095e-06 -1.83244e-06 3.21434e-07)
(4.09646e-06 -1.83129e-06 3.17668e-07)
(4.09237e-06 -1.83037e-06 3.13761e-07)
(4.08868e-06 -1.82966e-06 3.09719e-07)
(4.08538e-06 -1.82915e-06 3.05552e-07)
(4.08245e-06 -1.82885e-06 3.01267e-07)
(4.07988e-06 -1.82874e-06 2.96873e-07)
(4.07765e-06 -1.82882e-06 2.92377e-07)
(4.07577e-06 -1.82907e-06 2.87782e-07)
(4.07421e-06 -1.8295e-06 2.83103e-07)
(4.07297e-06 -1.83009e-06 2.78336e-07)
(4.07203e-06 -1.83085e-06 2.73495e-07)
(4.0714e-06 -1.83175e-06 2.6858e-07)
(4.07105e-06 -1.83281e-06 2.636e-07)
(4.07099e-06 -1.83401e-06 2.58559e-07)
(4.07119e-06 -1.83535e-06 2.53465e-07)
(4.07166e-06 -1.83683e-06 2.48319e-07)
(4.07238e-06 -1.83843e-06 2.41993e-07)
(4.07335e-06 -1.84016e-06 2.35521e-07)
(4.07457e-06 -1.84201e-06 2.2902e-07)
(4.07601e-06 -1.84397e-06 2.22497e-07)
(4.07768e-06 -1.84604e-06 2.15953e-07)
(4.07958e-06 -1.84822e-06 2.09391e-07)
(4.08168e-06 -1.85051e-06 2.02815e-07)
(4.084e-06 -1.8529e-06 1.96228e-07)
(4.08651e-06 -1.85538e-06 1.89631e-07)
(4.08922e-06 -1.85795e-06 1.83028e-07)
(4.09212e-06 -1.86062e-06 1.76422e-07)
(4.0952e-06 -1.86337e-06 1.69813e-07)
(4.09847e-06 -1.8662e-06 1.63204e-07)
(4.1019e-06 -1.86911e-06 1.56598e-07)
(4.10551e-06 -1.8721e-06 1.49993e-07)
(4.10928e-06 -1.87517e-06 1.43394e-07)
(4.11321e-06 -1.87831e-06 1.36798e-07)
(4.11729e-06 -1.88151e-06 1.30212e-07)
(4.12152e-06 -1.88479e-06 1.23625e-07)
(4.1259e-06 -1.88812e-06 1.17065e-07)
(4.13041e-06 -1.89152e-06 1.10477e-07)
(4.13509e-06 -1.89497e-06 1.03974e-07)
(4.1399e-06 -1.89848e-06 9.74813e-08)
(4.14481e-06 -1.90205e-06 9.09228e-08)
(4.14986e-06 -1.90567e-06 8.44214e-08)
(4.15503e-06 -1.90935e-06 7.78943e-08)
(4.16032e-06 -1.91306e-06 7.14477e-08)
(4.16575e-06 -1.9168e-06 6.50814e-08)
(4.17129e-06 -1.92062e-06 5.864e-08)
(4.17691e-06 -1.92447e-06 5.2184e-08)
(4.18265e-06 -1.92837e-06 4.57682e-08)
(4.18849e-06 -1.9323e-06 3.93618e-08)
(4.19443e-06 -1.93627e-06 3.29842e-08)
(4.20047e-06 -1.94027e-06 2.66284e-08)
(4.20661e-06 -1.94431e-06 2.03005e-08)
(4.21284e-06 -1.94839e-06 1.40044e-08)
(4.21916e-06 -1.95249e-06 7.74376e-09)
(4.22557e-06 -1.95662e-06 1.524e-09)
(4.23206e-06 -1.96078e-06 -4.63365e-09)
(4.23863e-06 -1.96497e-06 -1.07824e-08)
(4.24528e-06 -1.96919e-06 -1.6733e-08)
(4.25201e-06 -1.97341e-06 -2.2842e-08)
(4.87217e-06 -2.26475e-06 -3.75067e-07)
(4.82723e-06 -2.24028e-06 -3.64191e-07)
(4.7843e-06 -2.2169e-06 -3.53405e-07)
(4.74327e-06 -2.19474e-06 -3.44366e-07)
(4.7041e-06 -2.17366e-06 -3.36306e-07)
(4.66667e-06 -2.15365e-06 -3.2948e-07)
(4.63093e-06 -2.13464e-06 -3.2362e-07)
(4.59679e-06 -2.1166e-06 -3.00994e-07)
(4.56419e-06 -2.09947e-06 -2.01358e-07)
(4.53307e-06 -2.08322e-06 -1.0667e-07)
(4.50335e-06 -2.06781e-06 -1.6679e-08)
(4.47499e-06 -2.0532e-06 6.88622e-08)
(4.44792e-06 -2.03936e-06 1.22371e-07)
(4.42209e-06 -2.02625e-06 1.27532e-07)
(4.39746e-06 -2.01384e-06 1.32058e-07)
(4.37397e-06 -2.0021e-06 1.35976e-07)
(4.35157e-06 -1.991e-06 1.39325e-07)
(4.33024e-06 -1.98052e-06 1.42129e-07)
(4.30992e-06 -1.97063e-06 1.4442e-07)
(4.29057e-06 -1.9613e-06 1.46224e-07)
(4.27216e-06 -1.95251e-06 1.47567e-07)
(4.25465e-06 -1.94425e-06 1.48473e-07)
(4.23801e-06 -1.93648e-06 1.48965e-07)
(4.2222e-06 -1.92919e-06 1.49064e-07)
(4.2072e-06 -1.92236e-06 1.48793e-07)
(4.19297e-06 -1.91597e-06 1.4817e-07)
(4.17948e-06 -1.91e-06 1.47214e-07)
(4.16672e-06 -1.90444e-06 1.45943e-07)
(4.15464e-06 -1.89927e-06 1.44373e-07)
(4.14324e-06 -1.89447e-06 1.42521e-07)
(4.13247e-06 -1.89004e-06 1.40403e-07)
(4.12233e-06 -1.88595e-06 1.38032e-07)
(4.11279e-06 -1.88219e-06 1.35424e-07)
(4.10383e-06 -1.87876e-06 1.32591e-07)
(4.09543e-06 -1.87563e-06 1.29544e-07)
(4.08756e-06 -1.8728e-06 1.26296e-07)
(4.08022e-06 -1.87026e-06 1.22857e-07)
(4.07338e-06 -1.86799e-06 1.19239e-07)
(4.06703e-06 -1.86599e-06 1.15452e-07)
(4.06114e-06 -1.86424e-06 1.11509e-07)
(4.05572e-06 -1.86273e-06 1.07415e-07)
(4.05073e-06 -1.86147e-06 1.03182e-07)
(4.04617e-06 -1.86043e-06 9.88177e-08)
(4.04201e-06 -1.85961e-06 9.43313e-08)
(4.03826e-06 -1.859e-06 8.97286e-08)
(4.03489e-06 -1.85859e-06 8.50177e-08)
(4.0319e-06 -1.85839e-06 8.02068e-08)
(4.02927e-06 -1.85837e-06 7.53008e-08)
(4.02698e-06 -1.85853e-06 7.03099e-08)
(4.02504e-06 -1.85887e-06 6.52345e-08)
(4.02342e-06 -1.85938e-06 6.00865e-08)
(4.02212e-06 -1.86005e-06 5.48667e-08)
(4.02113e-06 -1.86088e-06 4.95817e-08)