/*--------------------------------*- C++ -*----------------------------------*\
| =========                 |                                                 |
| \\      /  F ield         | foam-extend: Open Source CFD                    |
|  \\    /   O peration     | Version:     4.1                                |
|   \\  /    A nd           | Web:         http://www.foam-extend.org         |
|    \\/     M anipulation  |                                                 |
\*---------------------------------------------------------------------------*/
FoamFile
{
    version     2.0;
    format      ascii;
    class       volVectorField;
    location    "9";
    object      D_0;
}
// * * * * * * * * * * * * * * * * * * * * * * * * * * * * * * * * * * * * * //

dimensions      [0 1 0 0 0 0 0];

internalField   nonuniform List<vector> 
100000
(
(4.59744e-06 -1.90737e-06 6.79408e-07)
(4.55996e-06 -1.88176e-06 8.14601e-07)
(4.52414e-06 -1.85733e-06 9.44519e-07)
(4.4899e-06 -1.83413e-06 1.06819e-06)
(4.45719e-06 -1.81207e-06 1.10189e-06)
(4.42593e-06 -1.79111e-06 1.12739e-06)
(4.39607e-06 -1.77119e-06 1.15132e-06)
(4.36755e-06 -1.75227e-06 1.17375e-06)
(4.3403e-06 -1.73429e-06 1.19475e-06)
(4.31428e-06 -1.71722e-06 1.21442e-06)
(4.28944e-06 -1.70101e-06 1.23282e-06)
(4.26572e-06 -1.68563e-06 1.25001e-06)
(4.24308e-06 -1.67103e-06 1.24682e-06)
(4.22149e-06 -1.65719e-06 1.2417e-06)
(4.20089e-06 -1.64407e-06 1.23666e-06)
(4.18125e-06 -1.63164e-06 1.23172e-06)
(4.16253e-06 -1.61986e-06 1.22686e-06)
(4.1447e-06 -1.60872e-06 1.22209e-06)
(4.12772e-06 -1.59817e-06 1.21468e-06)
(4.11156e-06 -1.58821e-06 1.19089e-06)
(4.09618e-06 -1.5788e-06 1.16841e-06)
(4.08157e-06 -1.56992e-06 1.1472e-06)
(4.06769e-06 -1.56154e-06 1.1272e-06)
(4.05451e-06 -1.55365e-06 1.10836e-06)
(4.04202e-06 -1.54623e-06 1.09065e-06)
(4.03017e-06 -1.53926e-06 1.07401e-06)
(4.01896e-06 -1.53272e-06 1.05841e-06)
(4.00836e-06 -1.52658e-06 1.04381e-06)
(3.99835e-06 -1.52085e-06 1.03016e-06)
(3.9889e-06 -1.51549e-06 1.01744e-06)
(3.98e-06 -1.5105e-06 1.00561e-06)
(3.97164e-06 -1.50586e-06 9.94643e-07)
(3.96378e-06 -1.50156e-06 9.84502e-07)
(3.95641e-06 -1.49757e-06 9.75139e-07)
(3.94952e-06 -1.4939e-06 9.66548e-07)
(3.94309e-06 -1.49053e-06 9.587e-07)
(3.93711e-06 -1.48744e-06 9.51562e-07)
(3.93156e-06 -1.48463e-06 9.45112e-07)
(3.92643e-06 -1.48209e-06 9.39325e-07)
(3.9217e-06 -1.4798e-06 9.34177e-07)
(3.91736e-06 -1.47776e-06 9.29647e-07)
(3.9134e-06 -1.47595e-06 9.25712e-07)
(3.90981e-06 -1.47437e-06 9.22352e-07)
(3.90657e-06 -1.47301e-06 9.19547e-07)
(3.90367e-06 -1.47187e-06 9.17278e-07)
(3.90111e-06 -1.47092e-06 9.15527e-07)
(3.89887e-06 -1.47017e-06 9.14277e-07)
(3.89694e-06 -1.46961e-06 9.13512e-07)
(3.89532e-06 -1.46922e-06 9.13359e-07)
(3.89399e-06 -1.46902e-06 9.13861e-07)
(3.89294e-06 -1.46898e-06 9.14747e-07)
(3.89217e-06 -1.4691e-06 9.16002e-07)
(3.89167e-06 -1.46938e-06 9.17615e-07)
(3.89143e-06 -1.46981e-06 9.19574e-07)
(3.89144e-06 -1.47038e-06 9.21041e-07)
(3.89169e-06 -1.4711e-06 9.22444e-07)
(3.89219e-06 -1.47194e-06 9.24176e-07)
(3.89291e-06 -1.47292e-06 9.26227e-07)
(3.89386e-06 -1.47402e-06 9.28587e-07)
(3.89502e-06 -1.47524e-06 9.31246e-07)
(3.8964e-06 -1.47658e-06 9.34193e-07)
(3.89798e-06 -1.47803e-06 9.37421e-07)
(3.89976e-06 -1.47959e-06 9.40919e-07)
(3.90173e-06 -1.48125e-06 9.4468e-07)
(3.9039e-06 -1.483e-06 9.48694e-07)
(3.90624e-06 -1.48486e-06 9.53224e-07)
(3.90876e-06 -1.48681e-06 9.58088e-07)
(3.91146e-06 -1.48884e-06 9.63211e-07)
(3.91432e-06 -1.49096e-06 9.68587e-07)
(3.91735e-06 -1.49317e-06 9.74207e-07)
(3.92053e-06 -1.49545e-06 9.80062e-07)
(3.92387e-06 -1.49781e-06 9.86146e-07)
(3.92736e-06 -1.50025e-06 9.92451e-07)
(3.93099e-06 -1.50275e-06 9.98969e-07)
(3.93477e-06 -1.50532e-06 1.00569e-06)
(3.93868e-06 -1.50796e-06 1.01262e-06)
(3.94273e-06 -1.51066e-06 1.01974e-06)
(3.94691e-06 -1.51342e-06 1.02704e-06)
(3.95121e-06 -1.51624e-06 1.03453e-06)
(3.95564e-06 -1.51912e-06 1.04219e-06)
(3.96019e-06 -1.52205e-06 1.05003e-06)
(3.96485e-06 -1.52503e-06 1.05802e-06)
(3.96963e-06 -1.52806e-06 1.06617e-06)
(3.97452e-06 -1.53114e-06 1.07448e-06)
(3.97951e-06 -1.53426e-06 1.08293e-06)
(3.98462e-06 -1.53743e-06 1.09152e-06)
(3.98982e-06 -1.54064e-06 1.10025e-06)
(3.99512e-06 -1.54388e-06 1.10912e-06)
(4.00052e-06 -1.54717e-06 1.11029e-06)
(4.00601e-06 -1.55049e-06 1.11142e-06)
(4.01159e-06 -1.55385e-06 1.1126e-06)
(4.01726e-06 -1.55724e-06 1.11387e-06)
(4.02302e-06 -1.56067e-06 1.11536e-06)
(4.02886e-06 -1.56412e-06 1.11691e-06)
(4.03478e-06 -1.56761e-06 1.1185e-06)
(4.04078e-06 -1.57112e-06 1.12013e-06)
(4.04686e-06 -1.57465e-06 1.12181e-06)
(4.05302e-06 -1.57822e-06 1.12347e-06)
(4.05925e-06 -1.5818e-06 1.12527e-06)
(4.06556e-06 -1.58542e-06 1.1271e-06)
(4.56014e-06 -1.92281e-06 6.25099e-07)
(4.52227e-06 -1.89771e-06 7.58312e-07)
(4.48607e-06 -1.87377e-06 8.86348e-07)
(4.45147e-06 -1.85104e-06 9.31788e-07)
(4.41843e-06 -1.82942e-06 9.5654e-07)
(4.38685e-06 -1.80889e-06 9.797e-07)
(4.35668e-06 -1.78937e-06 1.0014e-06)
(4.32786e-06 -1.77084e-06 1.0217e-06)
(4.30034e-06 -1.75323e-06 1.04068e-06)
(4.27405e-06 -1.73651e-06 1.05841e-06)
(4.24896e-06 -1.72064e-06 1.07496e-06)
(4.225e-06 -1.70558e-06 1.09039e-06)
(4.20213e-06 -1.69129e-06 1.10476e-06)
(4.18032e-06 -1.67774e-06 1.11812e-06)
(4.15951e-06 -1.6649e-06 1.13008e-06)
(4.13967e-06 -1.65273e-06 1.12429e-06)
(4.12077e-06 -1.64121e-06 1.11862e-06)
(4.10275e-06 -1.63031e-06 1.11308e-06)
(4.0856e-06 -1.62e-06 1.10767e-06)
(4.06927e-06 -1.61026e-06 1.10239e-06)
(4.05374e-06 -1.60107e-06 1.09724e-06)
(4.03897e-06 -1.59239e-06 1.09222e-06)
(4.02495e-06 -1.58421e-06 1.08734e-06)
(4.01163e-06 -1.57651e-06 1.08258e-06)
(3.999e-06 -1.56928e-06 1.07796e-06)
(3.98703e-06 -1.56248e-06 1.07026e-06)
(3.97569e-06 -1.5561e-06 1.05478e-06)
(3.96497e-06 -1.55013e-06 1.0403e-06)
(3.95484e-06 -1.54454e-06 1.02678e-06)
(3.94529e-06 -1.53933e-06 1.01417e-06)
(3.93628e-06 -1.53448e-06 1.00245e-06)
(3.92782e-06 -1.52997e-06 9.91582e-07)
(3.91985e-06 -1.5258e-06 9.81533e-07)
(3.91238e-06 -1.52195e-06 9.72274e-07)
(3.90541e-06 -1.5184e-06 9.63778e-07)
(3.89889e-06 -1.51514e-06 9.56018e-07)
(3.89283e-06 -1.51217e-06 9.48965e-07)
(3.88719e-06 -1.50946e-06 9.42596e-07)
(3.88198e-06 -1.50702e-06 9.36886e-07)
(3.87717e-06 -1.50483e-06 9.31813e-07)
(3.87276e-06 -1.50289e-06 9.26761e-07)
(3.86872e-06 -1.50117e-06 9.20395e-07)
(3.86506e-06 -1.49968e-06 9.1485e-07)
(3.86175e-06 -1.49841e-06 9.10096e-07)
(3.85879e-06 -1.49734e-06 9.06109e-07)
(3.85616e-06 -1.49648e-06 9.02864e-07)
(3.85385e-06 -1.4958e-06 9.00338e-07)
(3.85186e-06 -1.49531e-06 8.98508e-07)
(3.85017e-06 -1.495e-06 8.97354e-07)
(3.84878e-06 -1.49487e-06 8.96851e-07)
(3.84767e-06 -1.4949e-06 8.96982e-07)
(3.84685e-06 -1.49508e-06 8.97724e-07)
(3.84629e-06 -1.49543e-06 8.9906e-07)
(3.84599e-06 -1.49592e-06 9.00971e-07)
(3.84594e-06 -1.49655e-06 9.0231e-07)
(3.84614e-06 -1.49732e-06 9.04096e-07)
(3.84658e-06 -1.49822e-06 9.06421e-07)
(3.84725e-06 -1.49925e-06 9.09269e-07)
(3.84815e-06 -1.50041e-06 9.12625e-07)
(3.84926e-06 -1.50168e-06 9.16474e-07)
(3.85059e-06 -1.50307e-06 9.20799e-07)
(3.85212e-06 -1.50456e-06 9.25587e-07)
(3.85385e-06 -1.50616e-06 9.30824e-07)
(3.85577e-06 -1.50787e-06 9.36495e-07)
(3.85788e-06 -1.50967e-06 9.42589e-07)
(3.86018e-06 -1.51157e-06 9.49093e-07)
(3.86265e-06 -1.51356e-06 9.55994e-07)
(3.8653e-06 -1.51564e-06 9.61638e-07)
(3.86811e-06 -1.5178e-06 9.67024e-07)
(3.87109e-06 -1.52004e-06 9.72654e-07)
(3.87423e-06 -1.52237e-06 9.74969e-07)
(3.87752e-06 -1.52476e-06 9.74504e-07)
(3.88096e-06 -1.52724e-06 9.74131e-07)
(3.88454e-06 -1.52978e-06 9.73847e-07)
(3.88827e-06 -1.53238e-06 9.73652e-07)
(3.89214e-06 -1.53506e-06 9.73544e-07)
(3.89614e-06 -1.53779e-06 9.7352e-07)
(3.90027e-06 -1.54059e-06 9.73581e-07)
(3.90453e-06 -1.54344e-06 9.73724e-07)
(3.90891e-06 -1.54635e-06 9.73946e-07)
(3.91341e-06 -1.54931e-06 9.74247e-07)
(3.91802e-06 -1.55232e-06 9.74624e-07)
(3.92275e-06 -1.55538e-06 9.75073e-07)
(3.92759e-06 -1.55849e-06 9.75594e-07)
(3.93254e-06 -1.56164e-06 9.76184e-07)
(3.93759e-06 -1.56484e-06 9.7684e-07)
(3.94275e-06 -1.56808e-06 9.7756e-07)
(3.948e-06 -1.57136e-06 9.78342e-07)
(3.95335e-06 -1.57467e-06 9.79181e-07)
(3.95879e-06 -1.57803e-06 9.80074e-07)
(3.96432e-06 -1.58141e-06 9.81017e-07)
(3.96994e-06 -1.58483e-06 9.82003e-07)
(3.97565e-06 -1.58828e-06 9.83027e-07)
(3.98144e-06 -1.59177e-06 9.8408e-07)
(3.98732e-06 -1.59528e-06 9.85157e-07)
(3.99327e-06 -1.59881e-06 9.86248e-07)
(3.9993e-06 -1.60238e-06 9.87364e-07)
(4.0054e-06 -1.60597e-06 9.88445e-07)
(4.01158e-06 -1.60959e-06 9.89702e-07)
(4.01783e-06 -1.61322e-06 9.90772e-07)
(4.52257e-06 -1.93814e-06 5.71376e-07)
(4.48432e-06 -1.91357e-06 7.02534e-07)
(4.44776e-06 -1.89012e-06 7.64999e-07)
(4.41282e-06 -1.86788e-06 7.88735e-07)
(4.37945e-06 -1.84672e-06 8.11015e-07)
(4.34756e-06 -1.82662e-06 8.31817e-07)
(4.31709e-06 -1.80751e-06 8.51271e-07)
(4.28799e-06 -1.78937e-06 8.69425e-07)
(4.2602e-06 -1.77214e-06 8.86363e-07)
(4.23366e-06 -1.75578e-06 9.02144e-07)
(4.20832e-06 -1.74025e-06 9.16829e-07)
(4.18413e-06 -1.72552e-06 9.30481e-07)
(4.16105e-06 -1.71155e-06 9.4315e-07)
(4.13902e-06 -1.6983e-06 9.54892e-07)
(4.11801e-06 -1.68574e-06 9.65754e-07)
(4.09798e-06 -1.67385e-06 9.75783e-07)
(4.07889e-06 -1.66259e-06 9.85026e-07)
(4.0607e-06 -1.65194e-06 9.9352e-07)
(4.04338e-06 -1.64187e-06 9.97669e-07)
(4.02689e-06 -1.63236e-06 9.91678e-07)
(4.01121e-06 -1.62339e-06 9.85847e-07)
(3.99629e-06 -1.61492e-06 9.80176e-07)
(3.98213e-06 -1.60695e-06 9.74664e-07)
(3.96867e-06 -1.59944e-06 9.6931e-07)
(3.95591e-06 -1.59239e-06 9.64111e-07)
(3.94382e-06 -1.58576e-06 9.59066e-07)
(3.93236e-06 -1.57956e-06 9.54174e-07)
(3.92153e-06 -1.57375e-06 9.49434e-07)
(3.91129e-06 -1.56832e-06 9.44843e-07)
(3.90163e-06 -1.56326e-06 9.40402e-07)
(3.89252e-06 -1.55856e-06 9.29268e-07)
(3.88395e-06 -1.55419e-06 9.187e-07)
(3.87589e-06 -1.55014e-06 9.08691e-07)
(3.86834e-06 -1.54642e-06 8.99242e-07)
(3.86127e-06 -1.54299e-06 8.90337e-07)
(3.85467e-06 -1.53985e-06 8.81947e-07)
(3.84852e-06 -1.53699e-06 8.74071e-07)
(3.8428e-06 -1.5344e-06 8.66688e-07)
(3.83751e-06 -1.53206e-06 8.59787e-07)
(3.83263e-06 -1.52998e-06 8.53356e-07)
(3.82814e-06 -1.52813e-06 8.47381e-07)
(3.82403e-06 -1.52651e-06 8.41852e-07)
(3.8203e-06 -1.52511e-06 8.36757e-07)
(3.81692e-06 -1.52392e-06 8.32084e-07)
(3.81389e-06 -1.52294e-06 8.27824e-07)
(3.8112e-06 -1.52215e-06 8.23965e-07)
(3.80883e-06 -1.52156e-06 8.20499e-07)
(3.80677e-06 -1.52114e-06 8.17415e-07)
(3.80503e-06 -1.52091e-06 8.14704e-07)
(3.80357e-06 -1.52084e-06 8.12356e-07)
(3.80241e-06 -1.52094e-06 8.10365e-07)
(3.80152e-06 -1.52119e-06 8.08718e-07)
(3.80091e-06 -1.5216e-06 8.07411e-07)
(3.80055e-06 -1.52215e-06 8.06162e-07)
(3.80045e-06 -1.52284e-06 8.04251e-07)
(3.8006e-06 -1.52367e-06 8.02667e-07)
(3.80099e-06 -1.52463e-06 8.01407e-07)
(3.8016e-06 -1.52572e-06 8.00461e-07)
(3.80245e-06 -1.52692e-06 7.99821e-07)
(3.80351e-06 -1.52825e-06 7.99482e-07)
(3.80478e-06 -1.52968e-06 7.99434e-07)
(3.80626e-06 -1.53123e-06 7.99674e-07)
(3.80794e-06 -1.53288e-06 8.00191e-07)
(3.80982e-06 -1.53463e-06 8.00982e-07)
(3.81188e-06 -1.53648e-06 8.02038e-07)
(3.81413e-06 -1.53842e-06 8.03354e-07)
(3.81655e-06 -1.54045e-06 8.04924e-07)
(3.81915e-06 -1.54257e-06 8.06742e-07)
(3.82192e-06 -1.54477e-06 8.08803e-07)
(3.82485e-06 -1.54706e-06 8.111e-07)
(3.82794e-06 -1.54942e-06 8.13629e-07)
(3.83118e-06 -1.55185e-06 8.16384e-07)
(3.83457e-06 -1.55436e-06 8.19359e-07)
(3.83811e-06 -1.55694e-06 8.2255e-07)
(3.84179e-06 -1.55958e-06 8.25951e-07)
(3.84561e-06 -1.56229e-06 8.29558e-07)
(3.84956e-06 -1.56506e-06 8.33365e-07)
(3.85365e-06 -1.56789e-06 8.37367e-07)
(3.85786e-06 -1.57077e-06 8.41559e-07)
(3.86219e-06 -1.57371e-06 8.44426e-07)
(3.86664e-06 -1.57671e-06 8.44542e-07)
(3.87121e-06 -1.57975e-06 8.44733e-07)
(3.87589e-06 -1.58284e-06 8.44994e-07)
(3.88068e-06 -1.58598e-06 8.45324e-07)
(3.88558e-06 -1.58917e-06 8.45719e-07)
(3.89059e-06 -1.59239e-06 8.46178e-07)
(3.89569e-06 -1.59566e-06 8.46698e-07)
(3.9009e-06 -1.59897e-06 8.47276e-07)
(3.9062e-06 -1.60231e-06 8.47907e-07)
(3.91159e-06 -1.60569e-06 8.48589e-07)
(3.91707e-06 -1.60911e-06 8.49317e-07)
(3.92265e-06 -1.61256e-06 8.47722e-07)
(3.9283e-06 -1.61604e-06 8.43101e-07)
(3.93404e-06 -1.61955e-06 8.38469e-07)
(3.93986e-06 -1.62308e-06 8.33822e-07)
(3.94577e-06 -1.62665e-06 8.29156e-07)
(3.95174e-06 -1.63024e-06 8.24496e-07)
(3.95779e-06 -1.63386e-06 8.19774e-07)
(3.96391e-06 -1.6375e-06 8.15247e-07)
(3.97011e-06 -1.64116e-06 8.10487e-07)
(4.48474e-06 -1.95336e-06 5.18207e-07)
(4.44612e-06 -1.92933e-06 6.01659e-07)
(4.40921e-06 -1.9064e-06 6.2443e-07)
(4.37394e-06 -1.88464e-06 6.45545e-07)
(4.34025e-06 -1.86394e-06 6.65336e-07)
(4.30806e-06 -1.84429e-06 6.83763e-07)
(4.27732e-06 -1.82561e-06 7.00953e-07)
(4.24795e-06 -1.80787e-06 7.1695e-07)
(4.2199e-06 -1.79102e-06 7.31826e-07)
(4.19311e-06 -1.77503e-06 7.45643e-07)
(4.16754e-06 -1.75986e-06 7.58451e-07)
(4.14312e-06 -1.74546e-06 7.70311e-07)
(4.11983e-06 -1.7318e-06 7.81272e-07)
(4.0976e-06 -1.71886e-06 7.91378e-07)
(4.0764e-06 -1.7066e-06 8.00679e-07)
(4.05618e-06 -1.69499e-06 8.09215e-07)
(4.03691e-06 -1.684e-06 8.17028e-07)
(4.01855e-06 -1.6736e-06 8.24155e-07)
(4.00107e-06 -1.66378e-06 8.30634e-07)
(3.98443e-06 -1.65451e-06 8.36495e-07)
(3.96859e-06 -1.64575e-06 8.41773e-07)
(3.95354e-06 -1.6375e-06 8.465e-07)
(3.93924e-06 -1.62973e-06 8.50703e-07)
(3.92566e-06 -1.62242e-06 8.54411e-07)
(3.91277e-06 -1.61556e-06 8.50029e-07)
(3.90055e-06 -1.60912e-06 8.36831e-07)
(3.88898e-06 -1.60308e-06 8.22518e-07)
(3.87804e-06 -1.59744e-06 8.08886e-07)
(3.86769e-06 -1.59218e-06 7.95918e-07)
(3.85793e-06 -1.58727e-06 7.83592e-07)
(3.84872e-06 -1.58271e-06 7.71889e-07)
(3.84005e-06 -1.57849e-06 7.6079e-07)
(3.8319e-06 -1.57458e-06 7.5028e-07)
(3.82426e-06 -1.57098e-06 7.40343e-07)
(3.81711e-06 -1.56768e-06 7.30958e-07)
(3.81042e-06 -1.56466e-06 7.22113e-07)
(3.80419e-06 -1.56192e-06 7.13793e-07)
(3.7984e-06 -1.55943e-06 7.05982e-07)
(3.79303e-06 -1.55721e-06 6.98668e-07)
(3.78807e-06 -1.55522e-06 6.91836e-07)
(3.78351e-06 -1.55347e-06 6.85474e-07)
(3.77934e-06 -1.55195e-06 6.80605e-07)
(3.77553e-06 -1.55064e-06 6.76457e-07)
(3.77209e-06 -1.54954e-06 6.72631e-07)
(3.76899e-06 -1.54864e-06 6.69119e-07)
(3.76624e-06 -1.54794e-06 6.65912e-07)
(3.76381e-06 -1.54743e-06 6.63005e-07)
(3.76169e-06 -1.54709e-06 6.60389e-07)
(3.75989e-06 -1.54693e-06 6.58058e-07)
(3.75838e-06 -1.54693e-06 6.56004e-07)
(3.75715e-06 -1.5471e-06 6.54223e-07)
(3.75621e-06 -1.54742e-06 6.52705e-07)
(3.75554e-06 -1.54789e-06 6.51447e-07)
(3.75513e-06 -1.54851e-06 6.49827e-07)
(3.75498e-06 -1.54926e-06 6.47809e-07)
(3.75507e-06 -1.55015e-06 6.46043e-07)
(3.75541e-06 -1.55116e-06 6.44527e-07)
(3.75597e-06 -1.5523e-06 6.43253e-07)
(3.75676e-06 -1.55356e-06 6.42215e-07)
(3.75778e-06 -1.55494e-06 6.4141e-07)
(3.759e-06 -1.55643e-06 6.4083e-07)
(3.76043e-06 -1.55802e-06 6.40472e-07)
(3.76206e-06 -1.55972e-06 6.40328e-07)
(3.76389e-06 -1.56152e-06 6.40396e-07)
(3.7659e-06 -1.56341e-06 6.40668e-07)
(3.7681e-06 -1.5654e-06 6.41142e-07)
(3.77048e-06 -1.56747e-06 6.41812e-07)
(3.77303e-06 -1.56963e-06 6.42674e-07)
(3.77575e-06 -1.57188e-06 6.43723e-07)
(3.77863e-06 -1.5742e-06 6.44955e-07)
(3.78167e-06 -1.5766e-06 6.46367e-07)
(3.78486e-06 -1.57907e-06 6.47953e-07)
(3.78821e-06 -1.58162e-06 6.4971e-07)
(3.7917e-06 -1.58423e-06 6.51633e-07)
(3.79534e-06 -1.58691e-06 6.54193e-07)
(3.79911e-06 -1.58965e-06 6.5757e-07)
(3.80301e-06 -1.59246e-06 6.60435e-07)
(3.80705e-06 -1.59532e-06 6.59519e-07)
(3.81121e-06 -1.59824e-06 6.5872e-07)
(3.81549e-06 -1.60121e-06 6.58037e-07)
(3.8199e-06 -1.60424e-06 6.57468e-07)
(3.82442e-06 -1.60731e-06 6.57011e-07)
(3.82905e-06 -1.61044e-06 6.56658e-07)
(3.8338e-06 -1.6136e-06 6.56411e-07)
(3.83865e-06 -1.61682e-06 6.56262e-07)
(3.8436e-06 -1.62008e-06 6.56204e-07)
(3.84866e-06 -1.62337e-06 6.56241e-07)
(3.85382e-06 -1.62671e-06 6.56368e-07)
(3.85907e-06 -1.63008e-06 6.55424e-07)
(3.86441e-06 -1.63349e-06 6.5053e-07)
(3.86985e-06 -1.63694e-06 6.45635e-07)
(3.87537e-06 -1.64041e-06 6.40738e-07)
(3.88098e-06 -1.64392e-06 6.35838e-07)
(3.88667e-06 -1.64746e-06 6.30934e-07)
(3.89244e-06 -1.65102e-06 6.26029e-07)
(3.89829e-06 -1.65462e-06 6.21126e-07)
(3.90421e-06 -1.65824e-06 6.16249e-07)
(3.91021e-06 -1.66188e-06 6.11341e-07)
(3.91628e-06 -1.66555e-06 6.0664e-07)
(3.92242e-06 -1.66923e-06 6.0173e-07)
(4.44665e-06 -1.96847e-06 4.29526e-07)
(4.40767e-06 -1.94499e-06 4.5436e-07)
(4.37043e-06 -1.92258e-06 4.78048e-07)
(4.33484e-06 -1.90132e-06 4.99922e-07)
(4.30085e-06 -1.8811e-06 5.1952e-07)
(4.26837e-06 -1.8619e-06 5.35556e-07)
(4.23735e-06 -1.84365e-06 5.50466e-07)
(4.20772e-06 -1.82633e-06 5.64289e-07)
(4.17942e-06 -1.80987e-06 5.77093e-07)
(4.1524e-06 -1.79426e-06 5.8893e-07)
(4.1266e-06 -1.77944e-06 5.99851e-07)
(4.10198e-06 -1.76539e-06 6.09906e-07)
(4.07848e-06 -1.75206e-06 6.19145e-07)
(4.05605e-06 -1.73943e-06 6.27606e-07)
(4.03467e-06 -1.72747e-06 6.35334e-07)
(4.01427e-06 -1.71614e-06 6.42366e-07)
(3.99484e-06 -1.70542e-06 6.48742e-07)
(3.97631e-06 -1.69529e-06 6.54492e-07)
(3.95868e-06 -1.68572e-06 6.59652e-07)
(3.94188e-06 -1.67668e-06 6.64253e-07)
(3.92591e-06 -1.66816e-06 6.68324e-07)
(3.91072e-06 -1.66013e-06 6.65999e-07)
(3.89629e-06 -1.65257e-06 6.57841e-07)
(3.88258e-06 -1.64546e-06 6.49827e-07)
(3.86957e-06 -1.63879e-06 6.41962e-07)
(3.85724e-06 -1.63253e-06 6.34246e-07)
(3.84556e-06 -1.62668e-06 6.26683e-07)
(3.83451e-06 -1.6212e-06 6.19273e-07)
(3.82406e-06 -1.6161e-06 6.12017e-07)
(3.8142e-06 -1.61135e-06 6.04916e-07)
(3.80489e-06 -1.60694e-06 5.986e-07)
(3.79613e-06 -1.60286e-06 5.94779e-07)
(3.7879e-06 -1.59909e-06 5.90951e-07)
(3.78017e-06 -1.59563e-06 5.87118e-07)
(3.77293e-06 -1.59245e-06 5.82473e-07)
(3.76617e-06 -1.58956e-06 5.75429e-07)
(3.75986e-06 -1.58693e-06 5.68784e-07)
(3.75399e-06 -1.58456e-06 5.62527e-07)
(3.74855e-06 -1.58244e-06 5.56647e-07)
(3.74352e-06 -1.58056e-06 5.51135e-07)
(3.73889e-06 -1.57891e-06 5.45982e-07)
(3.73464e-06 -1.57749e-06 5.41178e-07)
(3.73077e-06 -1.57627e-06 5.36713e-07)
(3.72727e-06 -1.57527e-06 5.3258e-07)
(3.72411e-06 -1.57446e-06 5.28769e-07)
(3.72129e-06 -1.57384e-06 5.25272e-07)
(3.7188e-06 -1.5734e-06 5.22082e-07)
(3.71662e-06 -1.57314e-06 5.19191e-07)
(3.71476e-06 -1.57306e-06 5.16593e-07)
(3.71319e-06 -1.57314e-06 5.14278e-07)
(3.71192e-06 -1.57337e-06 5.12242e-07)
(3.71092e-06 -1.57376e-06 5.10476e-07)
(3.71019e-06 -1.5743e-06 5.08975e-07)
(3.70973e-06 -1.57497e-06 5.07103e-07)
(3.70953e-06 -1.57579e-06 5.04846e-07)
(3.70957e-06 -1.57674e-06 5.02846e-07)
(3.70985e-06 -1.57781e-06 5.011e-07)
(3.71037e-06 -1.57901e-06 4.98941e-07)
(3.71111e-06 -1.58032e-06 4.94964e-07)
(3.71207e-06 -1.58175e-06 4.91067e-07)
(3.71324e-06 -1.58329e-06 4.87249e-07)
(3.71462e-06 -1.58493e-06 4.83513e-07)
(3.71621e-06 -1.58668e-06 4.79856e-07)
(3.71798e-06 -1.58852e-06 4.7628e-07)
(3.71995e-06 -1.59046e-06 4.72784e-07)
(3.7221e-06 -1.59249e-06 4.69368e-07)
(3.72443e-06 -1.59461e-06 4.66034e-07)
(3.72693e-06 -1.59681e-06 4.62779e-07)
(3.7296e-06 -1.5991e-06 4.59605e-07)
(3.73244e-06 -1.60146e-06 4.56512e-07)
(3.73543e-06 -1.6039e-06 4.53499e-07)
(3.73858e-06 -1.60641e-06 4.50565e-07)
(3.74188e-06 -1.609e-06 4.4771e-07)
(3.74532e-06 -1.61165e-06 4.44933e-07)
(3.74891e-06 -1.61436e-06 4.42234e-07)
(3.75263e-06 -1.61714e-06 4.39612e-07)
(3.75649e-06 -1.61998e-06 4.37064e-07)
(3.76048e-06 -1.62288e-06 4.34594e-07)
(3.76459e-06 -1.62583e-06 4.34112e-07)
(3.76883e-06 -1.62883e-06 4.34042e-07)
(3.77319e-06 -1.63189e-06 4.34022e-07)
(3.77766e-06 -1.635e-06 4.34051e-07)
(3.78225e-06 -1.63815e-06 4.34125e-07)
(3.78695e-06 -1.64135e-06 4.34246e-07)
(3.79175e-06 -1.64459e-06 4.34405e-07)
(3.79665e-06 -1.64788e-06 4.34602e-07)
(3.80166e-06 -1.65121e-06 4.34842e-07)
(3.80677e-06 -1.65458e-06 4.3512e-07)
(3.81197e-06 -1.65798e-06 4.35433e-07)
(3.81727e-06 -1.66142e-06 4.3578e-07)
(3.82265e-06 -1.66489e-06 4.36159e-07)
(3.82812e-06 -1.66839e-06 4.35503e-07)
(3.83368e-06 -1.67193e-06 4.35924e-07)
(3.83932e-06 -1.67549e-06 4.36828e-07)
(3.84504e-06 -1.67909e-06 4.34401e-07)
(3.85084e-06 -1.68271e-06 4.29163e-07)
(3.85671e-06 -1.68635e-06 4.23968e-07)
(3.86266e-06 -1.69002e-06 4.18755e-07)
(3.86867e-06 -1.69372e-06 4.13749e-07)
(3.87476e-06 -1.69742e-06 4.08555e-07)
(4.4083e-06 -1.98346e-06 2.86161e-07)
(4.36898e-06 -1.96055e-06 3.06264e-07)
(4.33142e-06 -1.93867e-06 3.25476e-07)
(4.29552e-06 -1.91792e-06 3.43182e-07)
(4.26124e-06 -1.89819e-06 3.59732e-07)
(4.22849e-06 -1.87945e-06 3.75073e-07)
(4.19721e-06 -1.86164e-06 3.8807e-07)
(4.16733e-06 -1.84474e-06 4.00045e-07)
(4.13879e-06 -1.82869e-06 4.11159e-07)
(4.11155e-06 -1.81346e-06 4.21461e-07)
(4.08553e-06 -1.79901e-06 4.30988e-07)
(4.0607e-06 -1.7853e-06 4.39784e-07)
(4.037e-06 -1.77231e-06 4.47886e-07)
(4.01439e-06 -1.76e-06 4.55331e-07)
(3.99283e-06 -1.74834e-06 4.62152e-07)
(3.97227e-06 -1.7373e-06 4.6845e-07)
(3.95266e-06 -1.72687e-06 4.74333e-07)
(3.93399e-06 -1.717e-06 4.79553e-07)
(3.9162e-06 -1.70768e-06 4.76801e-07)
(3.89927e-06 -1.69889e-06 4.67482e-07)
(3.88316e-06 -1.6906e-06 4.5844e-07)
(3.86784e-06 -1.68279e-06 4.49976e-07)
(3.85328e-06 -1.67545e-06 4.41797e-07)
(3.83945e-06 -1.66855e-06 4.33894e-07)
(3.82633e-06 -1.66207e-06 4.28352e-07)
(3.81389e-06 -1.656e-06 4.25755e-07)
(3.8021e-06 -1.65033e-06 4.23102e-07)
(3.79095e-06 -1.64503e-06 4.19983e-07)
(3.7804e-06 -1.64009e-06 4.16979e-07)
(3.77044e-06 -1.6355e-06 4.14088e-07)
(3.76104e-06 -1.63124e-06 4.11308e-07)
(3.7522e-06 -1.62731e-06 4.08635e-07)
(3.74388e-06 -1.62368e-06 4.0607e-07)
(3.73607e-06 -1.62035e-06 4.03609e-07)
(3.72875e-06 -1.61731e-06 4.01251e-07)
(3.7219e-06 -1.61454e-06 3.98993e-07)
(3.71552e-06 -1.61203e-06 3.96834e-07)
(3.70958e-06 -1.60978e-06 3.94773e-07)
(3.70406e-06 -1.60777e-06 3.92808e-07)
(3.69897e-06 -1.606e-06 3.90937e-07)
(3.69427e-06 -1.60445e-06 3.89306e-07)
(3.68996e-06 -1.60312e-06 3.8729e-07)
(3.68603e-06 -1.602e-06 3.84569e-07)
(3.68246e-06 -1.60109e-06 3.81883e-07)
(3.67924e-06 -1.60036e-06 3.79234e-07)
(3.67636e-06 -1.59983e-06 3.76624e-07)
(3.67381e-06 -1.59948e-06 3.74055e-07)
(3.67158e-06 -1.5993e-06 3.71527e-07)
(3.66965e-06 -1.59929e-06 3.69045e-07)
(3.66803e-06 -1.59944e-06 3.66605e-07)
(3.6667e-06 -1.59975e-06 3.64215e-07)
(3.66565e-06 -1.60021e-06 3.61869e-07)
(3.66487e-06 -1.60081e-06 3.59573e-07)
(3.66436e-06 -1.60155e-06 3.56617e-07)
(3.6641e-06 -1.60243e-06 3.53137e-07)
(3.66409e-06 -1.60344e-06 3.49721e-07)
(3.66432e-06 -1.60457e-06 3.46758e-07)
(3.66479e-06 -1.60582e-06 3.44898e-07)
(3.66548e-06 -1.60719e-06 3.42986e-07)
(3.66639e-06 -1.60867e-06 3.41026e-07)
(3.66752e-06 -1.61026e-06 3.3902e-07)
(3.66885e-06 -1.61196e-06 3.36969e-07)
(3.67039e-06 -1.61375e-06 3.34875e-07)
(3.67212e-06 -1.61564e-06 3.3274e-07)
(3.67403e-06 -1.61763e-06 3.30565e-07)
(3.67614e-06 -1.6197e-06 3.28352e-07)
(3.67842e-06 -1.62186e-06 3.26102e-07)
(3.68088e-06 -1.62411e-06 3.23818e-07)
(3.6835e-06 -1.62644e-06 3.21501e-07)
(3.68629e-06 -1.62884e-06 3.19151e-07)
(3.68923e-06 -1.63132e-06 3.16772e-07)
(3.69234e-06 -1.63387e-06 3.14362e-07)
(3.69559e-06 -1.63649e-06 3.11925e-07)
(3.69898e-06 -1.63918e-06 3.0946e-07)
(3.70252e-06 -1.64193e-06 3.06967e-07)
(3.7062e-06 -1.64474e-06 3.0445e-07)
(3.71001e-06 -1.64762e-06 3.01907e-07)
(3.71395e-06 -1.65055e-06 2.99342e-07)
(3.71802e-06 -1.65353e-06 2.96752e-07)
(3.72221e-06 -1.65657e-06 2.94142e-07)
(3.72652e-06 -1.65966e-06 2.91506e-07)
(3.73095e-06 -1.6628e-06 2.88852e-07)
(3.73549e-06 -1.66599e-06 2.86176e-07)
(3.74013e-06 -1.66921e-06 2.83483e-07)
(3.74488e-06 -1.67248e-06 2.80776e-07)
(3.74974e-06 -1.6758e-06 2.78039e-07)
(3.75471e-06 -1.67916e-06 2.75284e-07)
(3.75977e-06 -1.68256e-06 2.72937e-07)
(3.76492e-06 -1.68599e-06 2.7143e-07)
(3.77016e-06 -1.68945e-06 2.69966e-07)
(3.77549e-06 -1.69296e-06 2.68542e-07)
(3.78092e-06 -1.69649e-06 2.67157e-07)
(3.78642e-06 -1.70005e-06 2.60654e-07)
(3.79201e-06 -1.70364e-06 2.5339e-07)
(3.79768e-06 -1.70726e-06 2.46125e-07)
(3.80342e-06 -1.71091e-06 2.38863e-07)
(3.80924e-06 -1.71458e-06 2.31629e-07)
(3.81514e-06 -1.71828e-06 2.24372e-07)
(3.8211e-06 -1.722e-06 2.17276e-07)
(3.82714e-06 -1.72573e-06 2.10008e-07)
(4.36969e-06 -1.99835e-06 1.50189e-07)
(4.33005e-06 -1.976e-06 1.67305e-07)
(4.29217e-06 -1.95467e-06 1.83688e-07)
(4.25599e-06 -1.93444e-06 1.98692e-07)
(4.22143e-06 -1.9152e-06 2.12672e-07)
(4.18841e-06 -1.89693e-06 2.25559e-07)
(4.15688e-06 -1.87958e-06 2.37473e-07)
(4.12676e-06 -1.8631e-06 2.48437e-07)
(4.098e-06 -1.84746e-06 2.58511e-07)
(4.07054e-06 -1.83262e-06 2.67744e-07)
(4.04432e-06 -1.81854e-06 2.76176e-07)
(4.01929e-06 -1.8052e-06 2.83858e-07)
(3.99541e-06 -1.79254e-06 2.90819e-07)
(3.97262e-06 -1.78056e-06 2.97107e-07)
(3.95089e-06 -1.76921e-06 3.02752e-07)
(3.93016e-06 -1.75847e-06 3.07792e-07)
(3.91041e-06 -1.74832e-06 3.12255e-07)
(3.89158e-06 -1.73873e-06 3.16173e-07)
(3.87365e-06 -1.72967e-06 3.18974e-07)
(3.85658e-06 -1.72112e-06 3.08881e-07)
(3.84034e-06 -1.71307e-06 3.05233e-07)
(3.8249e-06 -1.70549e-06 3.01605e-07)
(3.81022e-06 -1.69837e-06 2.97967e-07)
(3.79628e-06 -1.69167e-06 2.94323e-07)
(3.78305e-06 -1.6854e-06 2.92038e-07)
(3.7705e-06 -1.67952e-06 2.949e-07)
(3.75861e-06 -1.67403e-06 2.97543e-07)
(3.74736e-06 -1.66891e-06 2.99978e-07)
(3.73672e-06 -1.66414e-06 3.02212e-07)
(3.72666e-06 -1.65971e-06 3.04253e-07)
(3.71718e-06 -1.65561e-06 3.06109e-07)
(3.70825e-06 -1.65182e-06 3.07788e-07)
(3.69985e-06 -1.64834e-06 3.09297e-07)
(3.69196e-06 -1.64515e-06 3.10644e-07)
(3.68456e-06 -1.64223e-06 3.11835e-07)
(3.67764e-06 -1.63959e-06 3.12877e-07)
(3.67118e-06 -1.63721e-06 3.13775e-07)
(3.66517e-06 -1.63507e-06 3.14537e-07)
(3.65959e-06 -1.63317e-06 3.15167e-07)
(3.65443e-06 -1.63151e-06 3.1567e-07)
(3.64966e-06 -1.63007e-06 3.16054e-07)
(3.64529e-06 -1.62884e-06 3.16321e-07)
(3.6413e-06 -1.62782e-06 3.16478e-07)
(3.63766e-06 -1.62699e-06 3.16528e-07)
(3.63439e-06 -1.62636e-06 3.16475e-07)
(3.63145e-06 -1.62592e-06 3.16324e-07)
(3.62884e-06 -1.62565e-06 3.1608e-07)
(3.62656e-06 -1.62555e-06 3.15745e-07)
(3.62458e-06 -1.62561e-06 3.15325e-07)
(3.6229e-06 -1.62584e-06 3.14822e-07)
(3.62152e-06 -1.62622e-06 3.14241e-07)
(3.62042e-06 -1.62675e-06 3.13583e-07)
(3.61959e-06 -1.62742e-06 3.12853e-07)
(3.61902e-06 -1.62823e-06 3.11279e-07)
(3.61871e-06 -1.62917e-06 3.09497e-07)
(3.61865e-06 -1.63024e-06 3.07661e-07)
(3.61884e-06 -1.63143e-06 3.05773e-07)
(3.61925e-06 -1.63274e-06 3.03834e-07)
(3.6199e-06 -1.63416e-06 3.01846e-07)
(3.62076e-06 -1.6357e-06 2.99811e-07)
(3.62184e-06 -1.63734e-06 2.9773e-07)
(3.62312e-06 -1.63908e-06 2.95607e-07)
(3.62461e-06 -1.64093e-06 2.93442e-07)
(3.62629e-06 -1.64287e-06 2.91237e-07)
(3.62816e-06 -1.6449e-06 2.88994e-07)
(3.63022e-06 -1.64702e-06 2.86714e-07)
(3.63245e-06 -1.64922e-06 2.84399e-07)
(3.63486e-06 -1.65151e-06 2.8205e-07)
(3.63744e-06 -1.65388e-06 2.79669e-07)
(3.64018e-06 -1.65633e-06 2.77257e-07)
(3.64308e-06 -1.65884e-06 2.74816e-07)
(3.64614e-06 -1.66143e-06 2.72346e-07)
(3.64934e-06 -1.66409e-06 2.69847e-07)
(3.65269e-06 -1.66682e-06 2.67322e-07)
(3.65618e-06 -1.66961e-06 2.64772e-07)
(3.65981e-06 -1.67245e-06 2.62196e-07)
(3.66357e-06 -1.67536e-06 2.59595e-07)
(3.66747e-06 -1.67833e-06 2.56973e-07)
(3.67148e-06 -1.68135e-06 2.54322e-07)
(3.67563e-06 -1.68442e-06 2.5166e-07)
(3.67991e-06 -1.68754e-06 2.48978e-07)
(3.68428e-06 -1.69071e-06 2.46263e-07)
(3.68877e-06 -1.69393e-06 2.43537e-07)
(3.69336e-06 -1.6972e-06 2.40784e-07)
(3.69806e-06 -1.70049e-06 2.38028e-07)
(3.70289e-06 -1.70383e-06 2.35265e-07)
(3.70781e-06 -1.70722e-06 2.32465e-07)
(3.71281e-06 -1.71064e-06 2.29649e-07)
(3.71791e-06 -1.7141e-06 2.26823e-07)
(3.7231e-06 -1.7176e-06 2.21287e-07)
(3.72838e-06 -1.72113e-06 2.10529e-07)
(3.73375e-06 -1.72469e-06 1.9969e-07)
(3.73921e-06 -1.72828e-06 1.88778e-07)
(3.74475e-06 -1.7319e-06 1.77803e-07)
(3.75036e-06 -1.73555e-06 1.66771e-07)
(3.75606e-06 -1.73922e-06 1.55695e-07)
(3.76183e-06 -1.74292e-06 1.44582e-07)
(3.76767e-06 -1.74664e-06 1.3342e-07)
(3.77358e-06 -1.75039e-06 1.22315e-07)
(3.77957e-06 -1.75415e-06 1.11059e-07)
(4.33082e-06 -2.01311e-06 1.41916e-08)
(4.29087e-06 -1.99136e-06 2.83059e-08)
(4.25271e-06 -1.97058e-06 4.18437e-08)
(4.21624e-06 -1.95088e-06 5.41321e-08)
(4.18142e-06 -1.93214e-06 6.55292e-08)
(4.14815e-06 -1.91435e-06 7.59521e-08)
(4.11638e-06 -1.89746e-06 8.55182e-08)
(4.08604e-06 -1.88142e-06 9.42424e-08)
(4.05706e-06 -1.8662e-06 1.02182e-07)
(4.02939e-06 -1.85175e-06 1.09376e-07)
(4.00298e-06 -1.83805e-06 1.15863e-07)
(3.97777e-06 -1.82507e-06 1.21685e-07)
(3.9537e-06 -1.81276e-06 1.26875e-07)
(3.93075e-06 -1.80111e-06 1.31466e-07)
(3.90885e-06 -1.79008e-06 1.37204e-07)
(3.88797e-06 -1.77964e-06 1.56322e-07)
(3.86807e-06 -1.76978e-06 1.78472e-07)
(3.8491e-06 -1.76046e-06 2.01707e-07)
(3.83104e-06 -1.75167e-06 2.23604e-07)
(3.81384e-06 -1.74338e-06 2.38951e-07)
(3.79747e-06 -1.73557e-06 2.42781e-07)
(3.78191e-06 -1.72822e-06 2.46351e-07)
(3.76712e-06 -1.72131e-06 2.49671e-07)
(3.75307e-06 -1.71483e-06 2.52751e-07)
(3.73973e-06 -1.70876e-06 2.55602e-07)
(3.72708e-06 -1.70308e-06 2.58234e-07)
(3.7151e-06 -1.69778e-06 2.60656e-07)
(3.70375e-06 -1.69283e-06 2.62878e-07)
(3.69302e-06 -1.68824e-06 2.64908e-07)
(3.68288e-06 -1.68397e-06 2.66753e-07)
(3.67331e-06 -1.68003e-06 2.68421e-07)
(3.6643e-06 -1.6764e-06 2.69919e-07)
(3.65582e-06 -1.67306e-06 2.71254e-07)
(3.64785e-06 -1.67001e-06 2.73607e-07)
(3.64038e-06 -1.66723e-06 2.76266e-07)
(3.63339e-06 -1.66471e-06 2.78707e-07)
(3.62686e-06 -1.66245e-06 2.8094e-07)
(3.62078e-06 -1.66043e-06 2.8297e-07)
(3.61514e-06 -1.65865e-06 2.84807e-07)
(3.60991e-06 -1.6571e-06 2.86458e-07)
(3.60508e-06 -1.65576e-06 2.87929e-07)
(3.60065e-06 -1.65464e-06 2.89226e-07)
(3.59659e-06 -1.65371e-06 2.90356e-07)
(3.5929e-06 -1.65298e-06 2.91325e-07)
(3.58957e-06 -1.65244e-06 2.92139e-07)
(3.58657e-06 -1.65208e-06 2.92803e-07)
(3.58391e-06 -1.6519e-06 2.93322e-07)
(3.58157e-06 -1.65188e-06 3.08085e-07)
(3.57954e-06 -1.65203e-06 3.25449e-07)
(3.57781e-06 -1.65233e-06 3.41665e-07)
(3.57637e-06 -1.65278e-06 3.56751e-07)
(3.57522e-06 -1.65338e-06 3.70743e-07)
(3.57434e-06 -1.65412e-06 3.82744e-07)