/*--------------------------------*- C++ -*----------------------------------*\
| =========                 |                                                 |
| \\      /  F ield         | foam-extend: Open Source CFD                    |
|  \\    /   O peration     | Version:     4.1                                |
|   \\  /    A nd           | Web:         http://www.foam-extend.org         |
|    \\/     M anipulation  |                                                 |
\*---------------------------------------------------------------------------*/
FoamFile
{
    version     2.0;
    format      ascii;
    class       volScalarField;
    location    "9";
    object      epsilonEq;
}
// * * * * * * * * * * * * * * * * * * * * * * * * * * * * * * * * * * * * * //

dimensions      [0 0 0 0 0 0 0];

internalField   nonuniform List<scalar> 
100000
(
1.88639e-05
1.91239e-05
1.92603e-05
1.9383e-05
1.9494e-05
1.95931e-05
1.96815e-05
1.97588e-05
1.98253e-05
1.98821e-05
1.993e-05
1.99687e-05
1.99985e-05
1.75802e-05
1.50067e-05
1.48353e-05
1.46497e-05
1.44777e-05
1.43191e-05
1.56111e-05
1.7675e-05
1.9823e-05
2.35282e-05
2.27353e-05
2.1999e-05
2.13158e-05
2.06829e-05
2.009e-05
1.95033e-05
1.83941e-05
1.73851e-05
1.64705e-05
1.56519e-05
1.49182e-05
1.42594e-05
1.36777e-05
1.31645e-05
1.27166e-05
1.23286e-05
1.19964e-05
1.17159e-05
1.14832e-05
1.12947e-05
1.11472e-05
1.10379e-05
1.09639e-05
1.09231e-05
1.09133e-05
1.09323e-05
1.09787e-05
1.10507e-05
1.1147e-05
1.12662e-05
1.14074e-05
1.16025e-05
1.17955e-05
1.19967e-05
1.22158e-05
1.24519e-05
1.2704e-05
1.29716e-05
1.32536e-05
1.35494e-05
1.38581e-05
1.41789e-05
1.45113e-05
1.48544e-05
1.52075e-05
1.55701e-05
1.59413e-05
1.61302e-05
1.62416e-05
1.6356e-05
1.64731e-05
1.6593e-05
1.67189e-05
1.68471e-05
1.69733e-05
1.71016e-05
1.72316e-05
1.73633e-05
1.74965e-05
1.76311e-05
1.77671e-05
1.79045e-05
1.80432e-05
1.8183e-05
1.8324e-05
1.84663e-05
1.86097e-05
1.87545e-05
1.87414e-05
1.86816e-05
1.86246e-05
1.85709e-05
1.85213e-05
1.84754e-05
1.84372e-05
1.83948e-05
1.83691e-05
1.89075e-05
1.91445e-05
1.92849e-05
1.94103e-05
1.95248e-05
1.9626e-05
1.97169e-05
1.97965e-05
1.98648e-05
1.99235e-05
1.99728e-05
2.00129e-05
1.81097e-05
1.51732e-05
1.49741e-05
1.47834e-05
1.46076e-05
1.54973e-05
1.77058e-05
2.00819e-05
2.29822e-05
2.43174e-05
2.42812e-05
2.42399e-05
2.41937e-05
2.4143e-05
2.40883e-05
2.40296e-05
2.36579e-05
2.31407e-05
2.26622e-05
2.22201e-05
2.21605e-05
2.14374e-05
2.10927e-05
2.07768e-05
2.04879e-05
2.02247e-05
1.99854e-05
1.97689e-05
1.95737e-05
1.93986e-05
1.92425e-05
1.91043e-05
1.89829e-05
1.88775e-05
1.8787e-05
1.87107e-05
1.86477e-05
1.85973e-05
1.85587e-05
1.85312e-05
1.85143e-05
1.85133e-05
1.85656e-05
1.85779e-05
1.85978e-05
1.86254e-05
1.86605e-05
1.87025e-05
1.87512e-05
1.88059e-05
1.88665e-05
1.89325e-05
1.90037e-05
1.90796e-05
1.91601e-05
1.92448e-05
1.93334e-05
1.94259e-05
1.95217e-05
1.96207e-05
1.97229e-05
1.98279e-05
1.99355e-05
1.99571e-05
1.98762e-05
1.97961e-05
1.97169e-05
1.96386e-05
1.95611e-05
1.94845e-05
1.94088e-05
1.93342e-05
1.92606e-05
1.91882e-05
1.91168e-05
1.90466e-05
1.89776e-05
1.89098e-05
1.88433e-05
1.87782e-05
1.87144e-05
1.86517e-05
1.85899e-05
1.85284e-05
1.84668e-05
1.84038e-05
1.83386e-05
1.8276e-05
1.89498e-05
1.91684e-05
1.9312e-05
1.94407e-05
1.95572e-05
1.96606e-05
1.97528e-05
1.98344e-05
1.99047e-05
1.99646e-05
2.00147e-05
1.88484e-05
1.54375e-05
1.5106e-05
1.49109e-05
1.48437e-05
1.73387e-05
1.97749e-05
2.29374e-05
2.44236e-05
2.44002e-05
2.43706e-05
2.43354e-05
2.42949e-05
2.42495e-05
2.41996e-05
2.41454e-05
2.40875e-05
2.40258e-05
2.39613e-05
2.38929e-05
2.38243e-05
2.37476e-05
2.36686e-05
2.35929e-05
2.35125e-05
2.34311e-05
2.33477e-05
2.32628e-05
2.31765e-05
2.30891e-05
2.30006e-05
2.29112e-05
2.2821e-05
2.27301e-05
2.26386e-05
2.25466e-05
2.24542e-05
2.23615e-05
2.22685e-05
2.21753e-05
2.20821e-05
2.19889e-05
2.19279e-05
2.1858e-05
2.17654e-05
2.16731e-05
2.15808e-05
2.1489e-05
2.13975e-05
2.13064e-05
2.12157e-05
2.11254e-05
2.10357e-05
2.09464e-05
2.08576e-05
2.07694e-05
2.06818e-05
2.05949e-05
2.05085e-05
2.04227e-05
2.03377e-05
2.02533e-05
2.01697e-05
2.00868e-05
2.00046e-05
1.99233e-05
1.98427e-05
1.9763e-05
1.96841e-05
1.9606e-05
1.95286e-05
1.94522e-05
1.93766e-05
1.9302e-05
1.92286e-05
1.9156e-05
1.90842e-05
1.90134e-05
1.89435e-05
1.88745e-05
1.88062e-05
1.87384e-05
1.8671e-05
1.86035e-05
1.85355e-05
1.84667e-05
1.83957e-05
1.83243e-05
1.8249e-05
1.89938e-05
1.91959e-05
1.93411e-05
1.94725e-05
1.95907e-05
1.96965e-05
1.97896e-05
1.98725e-05
1.99441e-05
2.00052e-05
1.98323e-05
1.58426e-05
1.52335e-05
1.503e-05
1.67248e-05
1.89201e-05
2.21801e-05
2.44953e-05
2.44869e-05
2.44712e-05
2.44488e-05
2.44203e-05
2.43858e-05
2.43461e-05
2.43014e-05
2.4252e-05
2.41983e-05
2.41407e-05
2.40793e-05
2.40147e-05
2.39468e-05
2.38762e-05
2.38025e-05
2.37261e-05
2.36481e-05
2.35679e-05
2.34861e-05
2.34026e-05
2.33176e-05
2.32312e-05
2.31437e-05
2.30551e-05
2.29655e-05
2.28751e-05
2.2784e-05
2.26924e-05
2.26002e-05
2.25077e-05
2.24147e-05
2.23216e-05
2.22282e-05
2.21348e-05
2.2042e-05
2.20005e-05
2.19084e-05
2.18155e-05
2.17228e-05
2.16303e-05
2.15381e-05
2.14463e-05
2.13548e-05
2.12638e-05
2.11732e-05
2.1083e-05
2.09934e-05
2.09043e-05
2.08157e-05
2.07278e-05
2.06404e-05
2.05536e-05
2.04675e-05
2.03821e-05
2.02973e-05
2.02132e-05
2.01298e-05
2.00472e-05
1.99653e-05
1.98841e-05
1.98037e-05
1.97242e-05
1.96455e-05
1.95673e-05
1.949e-05
1.94133e-05
1.93376e-05
1.92632e-05
1.91891e-05
1.91156e-05
1.90429e-05
1.89708e-05
1.88992e-05
1.88281e-05
1.8757e-05
1.86859e-05
1.86145e-05
1.85424e-05
1.84698e-05
1.83955e-05
1.83219e-05
1.82462e-05
2.25323e-05
2.21733e-05
2.18069e-05
2.14749e-05
2.1167e-05
2.0885e-05
2.06238e-05
2.03852e-05
2.01656e-05
2.00545e-05
1.64486e-05
1.53504e-05
1.5195e-05
1.76816e-05
2.07633e-05
2.45282e-05
2.45369e-05
2.45374e-05
2.45301e-05
2.45154e-05
2.44939e-05
2.44662e-05
2.44325e-05
2.43934e-05
2.43491e-05
2.43002e-05
2.42469e-05
2.41896e-05
2.41286e-05
2.40641e-05
2.39963e-05
2.39256e-05
2.38523e-05
2.37766e-05
2.36984e-05
2.36182e-05
2.35363e-05
2.34527e-05
2.33676e-05
2.32812e-05
2.31935e-05
2.31047e-05
2.3015e-05
2.29245e-05
2.28332e-05
2.27414e-05
2.26491e-05
2.25563e-05
2.24631e-05
2.23698e-05
2.22762e-05
2.21825e-05
2.211e-05
2.2047e-05
2.19539e-05
2.18607e-05
2.17676e-05
2.16749e-05
2.15823e-05
2.14992e-05
2.13737e-05
2.12419e-05
2.11116e-05
2.09827e-05
2.08553e-05
2.07292e-05
2.06047e-05
2.04816e-05
2.03599e-05
2.02398e-05
2.01211e-05
2.00129e-05
1.99344e-05
1.98567e-05
1.97799e-05
1.97037e-05
1.96285e-05
1.95538e-05
1.94802e-05
1.9407e-05
1.93349e-05
1.92634e-05
1.91928e-05
1.91223e-05
1.90523e-05
1.89836e-05
1.89159e-05
1.8848e-05
1.87811e-05
1.87144e-05
1.8648e-05
1.85817e-05
1.85154e-05
1.84489e-05
1.83821e-05
1.8315e-05
1.82476e-05
1.81797e-05
1.81128e-05
1.80596e-05
2.95952e-05
2.87109e-05
2.78333e-05
2.70591e-05
2.63562e-05
2.57312e-05
2.51703e-05
2.46733e-05
2.42315e-05
1.93181e-05
1.61712e-05
1.71748e-05
1.95591e-05
2.33666e-05
2.51494e-05
2.50996e-05
2.50403e-05
2.49723e-05
2.48963e-05
2.48129e-05
2.47262e-05
2.46497e-05
2.45705e-05
2.44888e-05
2.44048e-05
2.43187e-05
2.42308e-05
2.41413e-05
2.40502e-05
2.39579e-05
2.38644e-05
2.37699e-05
2.36745e-05
2.35784e-05
2.34816e-05
2.33843e-05
2.32866e-05
2.31886e-05
2.30905e-05
2.29923e-05
2.28939e-05
2.27956e-05
2.26974e-05
2.25993e-05
2.25015e-05
2.24039e-05
2.23066e-05
2.22097e-05
2.21132e-05
2.20171e-05
2.19215e-05
2.1827e-05
2.1788e-05
2.17002e-05
2.16077e-05
2.15157e-05
2.14242e-05
2.13336e-05
2.1244e-05
2.11532e-05
2.10627e-05
2.09745e-05
2.08874e-05
2.08011e-05
2.07155e-05
2.06306e-05
2.05466e-05
2.04632e-05
2.03807e-05
2.0299e-05
2.02184e-05
2.014e-05
2.00621e-05
1.99835e-05
1.99059e-05
1.98289e-05
1.97531e-05
1.96774e-05
1.96041e-05
1.95284e-05
1.94534e-05
1.93827e-05
1.93107e-05
1.92409e-05
1.91694e-05
1.90955e-05
1.90253e-05
1.89572e-05
1.88885e-05
1.88205e-05
1.87524e-05
1.86845e-05
1.86165e-05
1.85484e-05
1.84803e-05
1.84121e-05
1.8344e-05
1.8276e-05
1.82091e-05
1.81558e-05
3.90889e-05
3.89146e-05
3.86852e-05
3.84946e-05
3.83222e-05
3.8177e-05
3.80487e-05
3.53972e-05
2.93723e-05
2.49651e-05
2.35324e-05
2.1837e-05
2.53216e-05
2.52798e-05
2.52324e-05
2.518e-05
2.51228e-05
2.50612e-05
2.49955e-05
2.49261e-05
2.4853e-05
2.47769e-05
2.4698e-05
2.46166e-05
2.45329e-05
2.4447e-05
2.43591e-05
2.42696e-05
2.41786e-05
2.40862e-05
2.39925e-05
2.38978e-05
2.38023e-05
2.3706e-05
2.36089e-05
2.35113e-05
2.34133e-05
2.3315e-05
2.32164e-05
2.31177e-05
2.30189e-05
2.29202e-05
2.28215e-05
2.2723e-05
2.26247e-05
2.25266e-05
2.24288e-05
2.23314e-05
2.22343e-05
2.21377e-05
2.20416e-05
2.19827e-05
2.19321e-05
2.18385e-05
2.17451e-05
2.16525e-05
2.15603e-05
2.14689e-05
2.13782e-05
2.12792e-05
2.12236e-05
2.11753e-05
2.11268e-05
2.10781e-05
2.10292e-05
2.09801e-05
2.09308e-05
2.08815e-05
2.0832e-05
2.07825e-05
2.07329e-05
2.06743e-05
2.05873e-05
2.05009e-05
2.04153e-05
2.03303e-05
2.02459e-05
2.01624e-05
2.00792e-05
1.99759e-05
1.9915e-05
1.98342e-05
1.97535e-05
1.96742e-05
1.96129e-05
1.94943e-05
1.94369e-05
1.9359e-05
1.92812e-05
1.9204e-05
1.91271e-05
1.90504e-05
1.8974e-05
1.88978e-05
1.88217e-05
1.87458e-05
1.86705e-05
1.85951e-05
1.85211e-05
1.84458e-05
4.50707e-05
4.55648e-05
4.59852e-05
4.63607e-05
4.66904e-05
4.69824e-05
4.16358e-05
3.58878e-05
3.08681e-05
3.00182e-05
3.00137e-05
2.78817e-05
2.47198e-05
2.4722e-05
2.47444e-05
2.47622e-05
2.47753e-05
2.47843e-05
2.47891e-05
2.479e-05
2.47839e-05
2.47579e-05
2.47256e-05
2.46877e-05
2.46445e-05
2.45964e-05
2.45437e-05
2.44868e-05
2.44259e-05
2.43614e-05
2.42936e-05
2.42228e-05
2.41493e-05
2.40731e-05
2.39946e-05
2.39139e-05
2.38313e-05
2.37469e-05
2.36609e-05
2.35735e-05
2.34848e-05
2.33951e-05
2.33043e-05
2.32127e-05
2.31203e-05
2.30273e-05
2.29337e-05
2.28396e-05
2.27452e-05
2.26504e-05
2.25708e-05
2.25414e-05
2.24557e-05
2.23606e-05
2.22656e-05
2.21707e-05
2.2076e-05
2.19813e-05
2.18871e-05
2.17932e-05
2.16738e-05
2.15558e-05
2.14471e-05
2.13474e-05
2.12561e-05
2.11732e-05
2.10982e-05
2.10307e-05
2.09662e-05
2.08769e-05
2.07882e-05
2.07001e-05
2.06126e-05
2.05257e-05
2.04394e-05
2.03537e-05
2.02683e-05
2.01842e-05
2.00991e-05
2.00178e-05
1.9937e-05
1.98533e-05
1.9772e-05
1.96899e-05
1.96106e-05
1.95346e-05
1.94557e-05
1.93758e-05
1.92971e-05
1.92186e-05
1.91407e-05
1.90631e-05
1.89858e-05
1.8909e-05
1.88325e-05
1.87563e-05
1.86809e-05
1.86056e-05
1.85317e-05
1.84566e-05
4.51038e-05
4.55884e-05
4.60122e-05
4.63919e-05
4.59764e-05
3.88618e-05
3.33398e-05
2.98447e-05
2.98622e-05
2.98754e-05
2.98871e-05
2.93244e-05
2.48795e-05
2.47771e-05
2.48099e-05
2.48325e-05
2.48455e-05
2.48497e-05
2.48455e-05
2.48337e-05
2.48146e-05
2.47889e-05
2.4757e-05
2.47193e-05
2.46762e-05
2.46282e-05
2.45756e-05
2.45187e-05
2.44579e-05
2.43935e-05
2.43258e-05
2.4136e-05
2.35688e-05
2.30312e-05
2.25219e-05
2.20396e-05
2.15831e-05
2.11513e-05
2.07431e-05
2.03576e-05
1.99936e-05
1.96504e-05
1.9327e-05
1.90225e-05
1.87361e-05
1.8467e-05
1.82145e-05
1.79779e-05
1.77566e-05
1.75374e-05
1.73464e-05
1.71455e-05
1.69325e-05
1.67374e-05
1.65592e-05
1.63971e-05
1.62508e-05
1.61189e-05
1.60011e-05
1.58951e-05
1.58022e-05
1.57239e-05
1.5658e-05
1.56036e-05
1.55599e-05
1.55266e-05
1.55034e-05
1.54863e-05
1.54762e-05
1.54764e-05
1.54566e-05
1.54445e-05
1.54367e-05
1.54328e-05
1.54341e-05
1.54405e-05
1.54517e-05
1.54676e-05
1.54882e-05
1.55128e-05
1.55418e-05
1.55741e-05
1.56106e-05
1.56499e-05
1.56928e-05
1.57397e-05
1.57894e-05
1.5841e-05
1.58957e-05
1.59524e-05
1.60116e-05
1.60729e-05
1.61362e-05
1.62016e-05
1.6269e-05
1.63382e-05
1.64098e-05
1.64822e-05
1.65587e-05
1.67256e-05
4.51378e-05
4.56201e-05
4.60464e-05
4.37487e-05
3.65105e-05
3.10236e-05
2.96234e-05
2.96619e-05
2.96983e-05
2.97308e-05
2.97585e-05
2.96892e-05
2.66204e-05
2.4802e-05
2.48351e-05
2.48582e-05
2.48717e-05
2.48762e-05
2.48724e-05
2.48608e-05
2.4842e-05
2.47459e-05
2.38299e-05
2.29622e-05
2.21407e-05
2.13632e-05
2.06278e-05
1.99324e-05
1.92753e-05
1.86547e-05
1.8066e-05
1.75095e-05
1.69948e-05
1.65018e-05
1.60379e-05
1.54385e-05
1.47618e-05
1.41318e-05
1.35464e-05
1.30034e-05
1.2501e-05
1.2037e-05
1.16096e-05
1.12167e-05
1.08566e-05
1.05274e-05
1.01631e-05
8.99169e-06
7.98784e-06
7.22534e-06
6.85149e-06
6.53042e-06
6.28566e-06
6.1086e-06
5.98907e-06
5.9164e-06
5.88054e-06
5.87299e-06
5.87698e-06
5.88693e-06
5.89658e-06
5.90514e-06
5.91192e-06
5.91638e-06
5.91818e-06
5.91734e-06
5.91332e-06
5.90727e-06
5.90044e-06
5.8829e-06
5.86598e-06
5.85878e-06
5.85572e-06
5.86003e-06
5.87385e-06
5.89886e-06
5.93706e-06
5.99038e-06
6.06052e-06
6.14882e-06
6.2565e-06
6.38469e-06
6.5339e-06
6.70445e-06
6.89584e-06
7.10811e-06
7.34133e-06
7.59434e-06
7.86651e-06
8.1568e-06
8.46442e-06
8.78675e-06
9.10577e-06
9.43835e-06
9.78376e-06
1.01413e-05
1.05112e-05
1.08896e-05
1.12845e-05
1.15444e-05
4.51725e-05
4.56602e-05
4.19344e-05
3.45496e-05
2.9286e-05
2.93512e-05
2.94177e-05
2.94787e-05
2.95347e-05
2.95853e-05
2.96291e-05
2.96677e-05
2.8739e-05
2.48583e-05
2.48581e-05
2.42408e-05
2.3011e-05
2.18489e-05
2.07511e-05
1.9715e-05
1.87365e-05
1.78203e-05
1.69923e-05
1.61707e-05
1.53621e-05
1.44059e-05
1.35128e-05
1.26806e-05
1.17721e-05
1.08504e-05
1.001e-05
9.69167e-06
7.946e-06
6.89857e-06
6.16703e-06
5.79782e-06
5.7544e-06
5.98801e-06
6.43885e-06
7.027e-06
7.69001e-06
6.56727e-06
5.88135e-06
5.84411e-06
6.36805e-06
7.25809e-06
8.46294e-06
9.83885e-06
1.10042e-05
1.23927e-05
1.38282e-05
1.52634e-05
1.66377e-05
1.79457e-05
1.82819e-05
1.76623e-05
2.2198e-05
1.64909e-05
1.59405e-05
1.54096e-05
1.48992e-05
1.44082e-05
1.39363e-05
1.34829e-05
1.30475e-05
1.26296e-05
1.22291e-05
1.18671e-05
1.15189e-05
1.1183e-05
1.08882e-05
1.06065e-05
1.03399e-05
1.00882e-05
9.84933e-06
9.62279e-06
9.40815e-06
9.20487e-06
9.01261e-06
8.83091e-06
8.6593e-06
8.49113e-06
8.30436e-06
8.12864e-06
7.96353e-06
7.80887e-06
7.66421e-06
7.52931e-06
7.40384e-06
7.28741e-06
7.17874e-06
7.0671e-06
6.96368e-06
6.87886e-06
6.80117e-06
6.73071e-06
6.66637e-06
6.60785e-06
6.55765e-06
5.88646e-06
4.52064e-05
4.05476e-05
3.29502e-05
2.89363e-05
2.9034e-05
2.91233e-05
2.92125e-05
2.92952e-05
2.93707e-05
2.9439e-05
2.91458e-05
2.75899e-05
2.58646e-05
2.08857e-05
1.84425e-05
1.72376e-05
1.61119e-05
1.49953e-05
1.36194e-05
1.23437e-05
1.11682e-05
1.12172e-05
1.19828e-05
1.0836e-05
8.67917e-06
8.87881e-06
1.26405e-05
1.65353e-05
2.03513e-05
2.40104e-05
2.74801e-05
3.09316e-05
3.42717e-05
3.21228e-05
3.00944e-05
2.83189e-05
2.67331e-05
2.53036e-05
2.39377e-05
2.26186e-05
2.12069e-05
2.04278e-05
1.93026e-05
1.81738e-05
1.7087e-05
1.60418e-05
1.51077e-05
1.534e-05
1.58799e-05
1.62548e-05
1.60887e-05
1.59067e-05
1.57093e-05
1.52281e-05
1.47357e-05
1.45149e-05
1.42842e-05
1.39876e-05
1.36454e-05
1.32994e-05
1.29482e-05
1.25933e-05
1.22351e-05
1.18744e-05
1.1512e-05
1.11487e-05
1.07854e-05
1.04232e-05
1.00199e-05
9.61606e-06
9.21928e-06
8.83116e-06
8.45342e-06
8.08812e-06
7.73738e-06
7.40373e-06
7.09003e-06
6.79944e-06
6.53535e-06
6.30128e-06
6.09964e-06
5.92934e-06
5.80036e-06
5.71941e-06
5.68298e-06
5.69167e-06
5.74498e-06
5.84119e-06
5.97769e-06
6.15112e-06
6.35781e-06
6.59274e-06
6.83936e-06
7.10555e-06
7.38853e-06
7.68554e-06
7.97497e-06
8.26425e-06
8.55506e-06
8.96373e-06
3.9652e-05
3.16596e-05
2.85407e-05
2.86585e-05
2.87844e-05
2.88984e-05
2.90085e-05
2.73068e-05
2.5507e-05
2.39287e-05
2.29461e-05
2.19792e-05
2.05599e-05
1.76008e-05
1.26578e-05
1.21792e-05
1.97276e-05
2.7578e-05
3.2953e-05
3.862e-05
4.44649e-05
4.82054e-05
4.49797e-05
4.21347e-05
3.90914e-05
3.67051e-05
3.50946e-05
3.2898e-05
3.09393e-05
2.91525e-05
2.74334e-05
2.53805e-05
2.47204e-05
2.47224e-05
2.43796e-05
2.40127e-05
2.3613e-05
2.31977e-05
2.27858e-05
2.23635e-05
2.19286e-05
1.86891e-05
1.54949e-05
1.2569e-05
9.98324e-06
7.8846e-06
6.5432e-06
6.00183e-06
6.34702e-06
7.56008e-06
9.1678e-06
1.09261e-05
1.27161e-05
1.44816e-05
1.53135e-05
1.51991e-05
1.51524e-05
1.51095e-05
1.50691e-05
1.50295e-05
1.4992e-05
1.4956e-05
1.49215e-05
1.48884e-05
1.48567e-05
1.48263e-05
1.47975e-05
1.47902e-05
1.47824e-05
1.47739e-05
1.47648e-05
1.47554e-05
1.47455e-05
1.47352e-05
1.47246e-05
1.47135e-05
1.47019e-05
1.469e-05
1.46776e-05
1.46648e-05
1.46515e-05
1.46295e-05
1.45697e-05
1.45102e-05
1.4451e-05
1.43922e-05
1.43337e-05
1.42756e-05
1.4218e-05
1.41607e-05
1.41039e-05
1.40475e-05
1.39725e-05
1.38765e-05
1.37823e-05
1.36925e-05
1.3606e-05
1.35191e-05
1.34333e-05
1.33423e-05
2.9902e-05
2.80555e-05
2.82381e-05
2.83843e-05
2.64251e-05
2.43306e-05
2.31262e-05
2.22641e-05
2.06359e-05
1.99108e-05
2.11443e-05
3.22563e-05
5.06774e-05
6.1773e-05
6.04037e-05
5.55812e-05
5.26313e-05
4.85626e-05
4.50765e-05
4.2291e-05
3.91029e-05
3.41337e-05
3.10327e-05
2.94871e-05
2.93261e-05
2.65215e-05
1.9908e-05
1.39422e-05
9.17257e-06
7.31704e-06
9.5815e-06
1.37577e-05
1.83651e-05
1.81537e-05
1.79157e-05
1.76863e-05
1.74651e-05
1.73469e-05
1.72453e-05
1.71452e-05
1.70474e-05
1.69515e-05
1.68569e-05
1.67646e-05
1.66736e-05
1.63639e-05
1.58689e-05
1.55836e-05
1.55856e-05
1.55868e-05
1.55871e-05
1.55863e-05
1.55849e-05
1.55826e-05
1.55793e-05
1.55791e-05
1.55777e-05
1.55715e-05
1.55649e-05
1.55576e-05
1.55498e-05
1.55413e-05
1.55324e-05
1.55228e-05
1.55128e-05
1.55023e-05
1.54914e-05
1.548e-05
1.54199e-05
1.53536e-05
1.52878e-05
1.52227e-05
1.51582e-05
1.50942e-05
1.50308e-05
1.49679e-05
1.49055e-05
1.48436e-05
1.47821e-05
1.47209e-05
1.46603e-05
1.46e-05
1.45401e-05
1.44806e-05
1.44215e-05
1.43626e-05
1.43042e-05
1.42461e-05
1.41829e-05
1.40823e-05
1.39833e-05
1.38875e-05
1.37957e-05
1.37041e-05
1.36119e-05
1.35216e-05
1.34571e-05
1.34077e-05
1.33579e-05
1.33065e-05
2.28336e-05
2.66703e-05
2.42499e-05
2.29485e-05
2.21503e-05
2.04649e-05
2.12051e-05
2.85292e-05
5.00537e-05
4.99657e-05
4.8393e-05
5.08735e-05
5.01805e-05
4.59367e-05
4.48922e-05
4.10476e-05
2.9392e-05
1.84677e-05
1.14364e-05
9.05659e-06
1.41612e-05
1.99556e-05
1.95794e-05
1.92186e-05
1.89174e-05
1.87755e-05
1.86378e-05
1.85038e-05
1.83736e-05
1.82466e-05
1.81228e-05
1.8002e-05
1.78841e-05
1.7769e-05
1.76564e-05
1.75461e-05
1.74583e-05
1.74523e-05
1.74461e-05
1.74393e-05
1.74315e-05
1.74237e-05
1.74148e-05
1.74054e-05
1.71341e-05
1.66308e-05
1.63706e-05
1.63685e-05
1.63654e-05
1.63614e-05
1.63566e-05
1.6351e-05
1.63444e-05
1.63373e-05
1.63293e-05
1.63205e-05
1.62458e-05
1.61704e-05
1.60957e-05
1.6022e-05
1.59491e-05
1.58768e-05
1.58053e-05
1.57346e-05
1.56646e-05
1.55953e-05
1.55267e-05
1.54587e-05
1.53914e-05
1.53247e-05
1.52587e-05
1.51934e-05
1.51286e-05
1.50644e-05
1.50007e-05
1.49376e-05
1.48749e-05
1.48128e-05
1.47511e-05
1.46899e-05
1.46291e-05
1.45688e-05
1.45089e-05
1.44494e-05
1.43904e-05
1.43005e-05
1.41969e-05
1.40951e-05
1.39978e-05
1.39023e-05
1.38052e-05
1.37099e-05
1.36352e-05
1.35835e-05
1.35324e-05
1.34818e-05
1.34317e-05
1.33825e-05
1.33329e-05
1.32818e-05
8.10813e-06
1.42334e-05
1.6946e-05
1.81469e-05
2.42162e-05
3.32219e-05
3.3853e-05
3.66034e-05
3.37191e-05
3.25955e-05
2.9267e-05
1.82661e-05
1.28183e-05
2.02094e-05
2.18641e-05
2.08585e-05
2.02814e-05
2.00903e-05
1.99063e-05
1.9729e-05
1.9558e-05
1.9393e-05
1.92334e-05
1.90789e-05
1.89294e-05
1.87844e-05
1.86439e-05
1.85074e-05
1.83746e-05
1.83132e-05
1.83076e-05
1.83018e-05
1.82954e-05
1.82882e-05
1.82807e-05
1.82769e-05
1.8292e-05
1.83003e-05
1.82877e-05
1.82752e-05
1.82615e-05
1.82476e-05
1.82334e-05
1.79489e-05
1.74103e-05
1.71188e-05
1.70317e-05
1.69458e-05
1.68611e-05
1.67773e-05
1.66945e-05
1.6613e-05
1.65323e-05
1.64526e-05
1.6374e-05
1.62963e-05
1.62194e-05
1.61436e-05
1.60686e-05
1.59944e-05
1.5921e-05
1.58484e-05
1.57765e-05
1.57055e-05
1.56352e-05
1.55657e-05
1.54968e-05
1.54286e-05
1.53611e-05
1.52941e-05
1.52279e-05
1.51623e-05
1.50973e-05
1.50328e-05
1.4969e-05
1.49056e-05
1.48428e-05
1.47805e-05
1.47187e-05
1.46573e-05
1.45965e-05
1.45307e-05
1.44224e-05
1.43157e-05
1.42122e-05
1.41117e-05
1.40111e-05
1.39111e-05
1.38182e-05
1.37647e-05
1.37118e-05
1.36593e-05
1.36073e-05
1.35558e-05
1.35049e-05
1.34546e-05
1.34047e-05
1.33559e-05
1.33065e-05
1.32557e-05
1.33852e-05
1.40243e-05
1.16036e-05
1.92889e-05
1.90838e-05
1.78182e-05
1.76531e-05
1.42876e-05
2.52513e-05
2.52045e-05
2.35961e-05
2.23703e-05
2.14837e-05
2.09632e-05
2.07411e-05
2.05281e-05
2.03236e-05
2.01271e-05
1.99382e-05
1.97567e-05
1.95818e-05
1.94129e-05
1.92498e-05
1.91905e-05
1.91823e-05
1.91747e-05
1.91672e-05
1.91597e-05
1.91721e-05
1.91988e-05
1.92031e-05
1.91904e-05
1.91776e-05
1.91639e-05
1.915e-05
1.91351e-05
1.90997e-05
1.89833e-05
1.88685e-05
1.87563e-05
1.86464e-05
1.8538e-05
1.81794e-05
1.75355e-05
1.71851e-05
1.70961e-05
1.70084e-05
1.69217e-05
1.68362e-05
1.67519e-05
1.66686e-05
1.65863e-05
1.65052e-05
1.6425e-05
1.63458e-05
1.62677e-05
1.61905e-05
1.61142e-05
1.60389e-05
1.59644e-05
1.58906e-05
1.58176e-05
1.57455e-05
1.56741e-05
1.56034e-05
1.55336e-05
1.54644e-05
1.53959e-05
1.53282e-05
1.52611e-05
1.51947e-05
1.51289e-05
1.50637e-05
1.49992e-05
1.49352e-05
1.48718e-05
1.4809e-05
1.47466e-05
1.46622e-05
1.45503e-05
1.44404e-05
1.4334e-05
1.42297e-05
1.41248e-05
1.40216e-05
1.3951e-05
1.38961e-05
1.38417e-05
1.37879e-05
1.37346e-05
1.36818e-05
1.36296e-05
1.35779e-05
1.35267e-05
1.3476e-05
1.34259e-05
1.33762e-05
1.33276e-05
1.32785e-05
1.32281e-05
1.23008e-05
1.66747e-05
1.38911e-05
8.98809e-06
1.72974e-05
2.47698e-05
2.66998e-05
2.56184e-05
2.41575e-05
2.27879e-05
2.18355e-05
2.15074e-05
2.12575e-05
2.1019e-05
2.07909e-05
2.05723e-05
2.03627e-05
2.01615e-05
2.01002e-05
2.00857e-05
2.00726e-05
2.00606e-05
2.00837e-05
2.0122e-05
2.01236e-05
2.01085e-05
2.00935e-05
2.00788e-05
2.00639e-05
1.99799e-05
1.98425e-05
1.97078e-05
1.95767e-05
1.94482e-05
1.93222e-05
1.91992e-05
1.90779e-05
1.89597e-05
1.88439e-05
1.87299e-05
1.86185e-05
1.82902e-05
1.76254e-05
1.72517e-05
1.71607e-05
1.70709e-05
1.69823e-05
1.68951e-05
1.68089e-05
1.67238e-05
1.664e-05
1.65571e-05
1.64754e-05
1.63948e-05
1.63152e-05
1.62365e-05
1.6159e-05
1.60824e-05
1.60066e-05
1.59317e-05
1.58577e-05
1.57845e-05
1.57121e-05
1.56405e-05
1.55696e-05
1.54995e-05
1.543e-05
1.53613e-05
1.52933e-05
1.5226e-05
1.51594e-05
1.50934e-05
1.50281e-05
1.49635e-05
1.48994e-05
1.48005e-05
1.46848e-05
1.45714e-05
1.4461e-05
1.43522e-05
1.42439e-05
1.41427e-05
1.40859e-05
1.40297e-05
1.39739e-05
1.39187e-05
1.3864e-05
1.38098e-05
1.37562e-05
1.3703e-05
1.36504e-05
1.35984e-05
1.35469e-05
1.3496e-05
1.34456e-05
1.33958e-05
1.33463e-05
1.32979e-05
1.32489e-05
1.31988e-05
1.43255e-05
1.20704e-05
2.03727e-05
2.80487e-05
2.76139e-05
2.66721e-05
2.5065e-05
2.35124e-05
2.24202e-05
2.21238e-05
2.18413e-05
2.15729e-05
2.1316e-05
2.10712e-05
2.10404e-05
2.10156e-05
2.0994e-05
2.10274e-05
2.1076e-05
2.10707e-05
2.10492e-05
2.1029e-05
2.10096e-05
2.0891e-05
2.07263e-05
2.05665e-05
2.04111e-05
2.02599e-05
2.01128e-05
1.99692e-05
1.98295e-05
1.96927e-05
1.95592e-05
1.94291e-05
1.93008e-05
1.91759e-05
1.90536e-05
1.89333e-05
1.88161e-05
1.87011e-05
1.84201e-05
1.77336e-05
1.7319e-05
1.72255e-05
1.71336e-05
1.70431e-05
1.69538e-05
1.68657e-05
1.6779e-05
1.66933e-05
1.66087e-05
1.65254e-05
1.64431e-05
1.6362e-05
1.6282e-05
1.62031e-05
1.6125e-05
1.6048e-05
1.59719e-05
1.58967e-05
1.58223e-05
1.57488e-05
1.56761e-05
1.56042e-05
1.55331e-05
1.54628e-05
1.53932e-05
1.53244e-05
1.52563e-05
1.51889e-05
1.51222e-05
1.50561e-05
1.49478e-05
1.48278e-05
1.471e-05
1.4595e-05
1.44815e-05
1.43693e-05
1.42813e-05
1.4223e-05
1.41653e-05
1.41081e-05
1.40515e-05
1.39953e-05
1.39398e-05
1.38847e-05
1.38302e-05
1.37762e-05
1.37227e-05
1.36698e-05
1.36175e-05
1.35656e-05
1.35144e-05
1.34636e-05
1.34135e-05
1.33639e-05
1.33148e-05
1.32666e-05
1.3218e-05
1.31681e-05
1.76635e-05
2.91462e-05
2.8662e-05
2.80289e-05
2.63633e-05
2.46083e-05
2.32391e-05
2.28241e-05
2.25036e-05
2.2199e-05
2.2039e-05
2.19961e-05
2.19594e-05
2.20177e-05
2.20742e-05
2.20407e-05
2.20097e-05
2.19815e-05
2.18218e-05
2.16241e-05
2.14329e-05
2.1248e-05
2.10687e-05
2.08953e-05
2.07273e-05
2.05644e-05
2.04061e-05
2.02519e-05
2.0102e-05
1.99559e-05
1.98136e-05
1.96751e-05
1.95391e-05
1.94069e-05
1.92771e-05
1.91498e-05
1.9026e-05
1.89047e-05
1.87854e-05
1.85707e-05
1.78606e-05
1.73867e-05
1.7291e-05
1.71969e-05
1.7104e-05
1.70126e-05
1.69228e-05
1.6834e-05
1.67464e-05
1.66602e-05
1.65751e-05
1.64912e-05
1.64085e-05
1.63269e-05
1.62464e-05
1.6167e-05
1.60887e-05
1.60112e-05
1.59348e-05
1.58594e-05
1.57848e-05
1.5711e-05
1.5638e-05
1.55658e-05
1.54945e-05
1.54239e-05
1.53541e-05
1.52851e-05
1.52168e-05
1.51048e-05
1.49798e-05
1.48568e-05
1.47367e-05
1.46187e-05
1.45024e-05
1.44233e-05
1.43633e-05
1.43039e-05
1.42451e-05
1.41867e-05
1.4129e-05
1.40718e-05
1.40153e-05
1.39593e-05
1.39039e-05
1.3849e-05
1.37947e-05
1.37409e-05
1.36876e-05
1.3635e-05
1.35828e-05
1.35312e-05
1.34802e-05
1.34297e-05
1.33798e-05
1.33305e-05
1.32815e-05
1.32336e-05
1.31852e-05
1.31357e-05
2.53782e-05
2.93079e-05
2.81134e-05
2.61279e-05
2.43483e-05
2.36224e-05
2.32568e-05
2.30599e-05
2.29954e-05
2.30048e-05
2.30678e-05
2.30674e-05
2.30199e-05
2.2978e-05
2.27344e-05
2.24986e-05
2.22719e-05
2.2054e-05
2.1844e-05
2.16417e-05
2.14462e-05
2.12572e-05
2.1074e-05
2.08969e-05
2.07255e-05
2.05594e-05
2.03981e-05
2.0241e-05
2.00884e-05
1.99401e-05
1.9795e-05
1.96544e-05
1.95167e-05
1.93818e-05
1.92506e-05
1.91218e-05
1.89957e-05
1.8873e-05
1.87365e-05
1.80074e-05
1.74556e-05
1.73574e-05
1.72606e-05
1.71654e-05
1.7072e-05
1.69798e-05
1.6889e-05
1.67997e-05
1.67115e-05
1.66246e-05
1.6539e-05
1.64546e-05
1.63714e-05
1.62894e-05
1.62085e-05
1.61286e-05
1.60498e-05
1.5972e-05
1.58954e-05
1.58196e-05
1.57447e-05
1.56707e-05
1.55975e-05
1.55252e-05
1.54538e-05
1.53831e-05
1.52743e-05
1.51438e-05
1.50149e-05
1.48887e-05
1.47655e-05
1.46445e-05
1.45683e-05
1.45064e-05
1.44451e-05
1.43844e-05
1.43245e-05
1.42652e-05
1.42065e-05
1.41484e-05
1.40909e-05
1.40339e-05
1.39775e-05
1.39216e-05
1.38663e-05
1.38116e-05
1.37575e-05
1.37039e-05
1.36509e-05
1.35984e-05
1.35465e-05
1.34952e-05
1.34444e-05
1.33942e-05
1.33446e-05
1.32954e-05
1.32467e-05
1.3199e-05
1.31508e-05
1.31016e-05
2.5514e-05
2.81169e-05
2.60173e-05
2.45351e-05
2.41508e-05
2.40558e-05
2.40535e-05
2.412e-05
2.41087e-05
2.40425e-05
2.3851e-05
2.35632e-05
2.32886e-05
2.30263e-05
2.27747e-05
2.2533e-05
2.23007e-05
2.20777e-05
2.1863e-05
2.16561e-05
2.14564e-05
2.12635e-05
2.10768e-05
2.08959e-05
2.07211e-05
2.05516e-05
2.03873e-05
2.02277e-05
2.00721e-05
1.99215e-05
1.97743e-05
1.96307e-05
1.94914e-05
1.93547e-05
1.9221e-05
1.90909e-05
1.89633e-05
1.88385e-05
1.81762e-05
1.7527e-05
1.74246e-05
1.73254e-05
1.72278e-05
1.71316e-05
1.70373e-05
1.69445e-05
1.68529e-05
1.67628e-05
1.66742e-05
1.65867e-05
1.65005e-05
1.64157e-05
1.63321e-05
1.62495e-05
1.61682e-05
1.6088e-05
1.60089e-05
1.59308e-05
1.58538e-05
1.57777e-05
1.57025e-05
1.56282e-05
1.55548e-05
1.54574e-05
1.53207e-05
1.51854e-05
1.50525e-05
1.49235e-05
1.47972e-05
1.47174e-05
1.46535e-05
1.45903e-05
1.45278e-05
1.4466e-05
1.44048e-05
1.43442e-05
1.42842e-05
1.42249e-05
1.41661e-05
1.41081e-05
1.40507e-05
1.39939e-05
1.39377e-05
1.38821e-05
1.3827e-05
1.37724e-05
1.37185e-05
1.36651e-05
1.36123e-05
1.35601e-05
1.35085e-05
1.34575e-05
1.34069e-05
1.3357e-05
1.33075e-05
1.32587e-05
1.32103e-05
1.31628e-05
1.31149e-05
1.3066e-05
2.37764e-05
2.60255e-05
2.52077e-05
2.51046e-05
2.51694e-05
2.52181e-05
2.51229e-05
2.48885e-05
2.45475e-05
2.4223e-05
2.39141e-05
2.36196e-05
2.3338e-05
2.3069e-05
2.28111e-05
2.25638e-05
2.23263e-05
2.20983e-05
2.18789e-05
2.16675e-05
2.14637e-05
2.12668e-05
2.10766e-05
2.08923e-05
2.07142e-05
2.05416e-05
2.03738e-05
2.02118e-05
2.00537e-05
1.98999e-05
1.97509e-05
1.9605e-05
1.9463e-05
1.93248e-05
1.91895e-05
1.90572e-05
1.89282e-05
1.83669e-05
1.76213e-05
1.74935e-05
1.73914e-05
1.72909e-05
1.71924e-05
1.70956e-05
1.70003e-05
1.69066e-05
1.68146e-05
1.67238e-05
1.66344e-05
1.65465e-05
1.64599e-05
1.63745e-05
1.62904e-05
1.62075e-05
1.61257e-05
1.6045e-05
1.59656e-05
1.58872e-05
1.58099e-05
1.57336e-05
1.56572e-05
1.55135e-05
1.53715e-05
1.5231e-05
1.50949e-05
1.49625e-05
1.48714e-05
1.48051e-05
1.47396e-05
1.46749e-05
1.46109e-05
1.45477e-05
1.44852e-05
1.44234e-05
1.43623e-05
1.43019e-05
1.42421e-05
1.41829e-05
1.41243e-05
1.40663e-05
1.4009e-05
1.39522e-05
1.38962e-05
1.38407e-05
1.37859e-05
1.37316e-05
1.36779e-05
1.36247e-05
1.35722e-05
1.35202e-05
1.34688e-05
1.3418e-05
1.33677e-05
1.3318e-05
1.32688e-05
1.32202e-05
1.3172e-05
1.31248e-05
1.30772e-05
1.30286e-05
2.23505e-05
2.62088e-05
2.6285e-05
2.62892e-05
2.61346e-05
2.57265e-05
2.5339e-05
2.49719e-05
2.46224e-05
2.42904e-05
2.39736e-05
2.36719e-05
2.33838e-05
2.31087e-05
2.2845e-05
2.25922e-05
2.23495e-05
2.21164e-05
2.18922e-05
2.16763e-05
2.14682e-05
2.12671e-05
2.10732e-05
2.08858e-05
2.07041e-05
2.05289e-05
2.03581e-05
2.01926e-05
2.00324e-05
1.9876e-05
1.97243e-05
1.95768e-05
1.94327e-05
1.92921e-05
1.91553e-05
1.90213e-05
1.85805e-05
1.78075e-05
1.75643e-05
1.74589e-05
1.73557e-05
1.72544e-05
1.71547e-05
1.70569e-05
1.6961e-05
1.68665e-05
1.67736e-05
1.66823e-05
1.65924e-05
1.65039e-05
1.64169e-05
1.6331e-05
1.62465e-05
1.61632e-05
1.60811e-05
1.60001e-05
1.59203e-05
1.58417e-05
1.57244e-05
1.55758e-05
1.54264e-05
1.52813e-05
1.51424e-05
1.5031e-05
1.49622e-05
1.48943e-05
1.48273e-05
1.4761e-05
1.46955e-05
1.46307e-05
1.45667e-05
1.45035e-05
1.44409e-05
1.43791e-05
1.43179e-05
1.42575e-05
1.41978e-05
1.41388e-05
1.40804e-05
1.40227e-05
1.39656e-05
1.39091e-05
1.38531e-05
1.37978e-05
1.37431e-05
1.3689e-05
1.36355e-05
1.35827e-05
1.35304e-05
1.34786e-05
1.34275e-05
1.33769e-05
1.33269e-05
1.32774e-05
1.32285e-05
1.31801e-05
1.31322e-05
1.30852e-05
1.30378e-05
1.29896e-05
2.32887e-05
2.73967e-05
2.71517e-05
2.66835e-05
2.62416e-05
2.58236e-05
2.54276e-05
2.50517e-05
2.46939e-05
2.43538e-05
2.403e-05
2.37218e-05
2.34273e-05
2.31457e-05
2.28761e-05
2.26175e-05
2.23695e-05
2.21312e-05
2.19026e-05
2.16824e-05
2.147e-05
2.12649e-05
2.10668e-05
2.08762e-05
2.06912e-05
2.05126e-05
2.03397e-05
2.01711e-05
2.00079e-05
1.98495e-05
1.96953e-05
1.95454e-05
1.93997e-05
1.92573e-05
1.91183e-05
1.88201e-05
1.80167e-05
1.76366e-05
1.75285e-05
1.74221e-05
1.73175e-05
1.72152e-05
1.71148e-05
1.70161e-05
1.69192e-05
1.68241e-05
1.67306e-05
1.66386e-05
1.65481e-05
1.64591e-05