/*--------------------------------*- C++ -*----------------------------------*\
| =========                 |                                                 |
| \\      /  F ield         | foam-extend: Open Source CFD                    |
|  \\    /   O peration     | Version:     4.1                                |
|   \\  /    A nd           | Web:         http://www.foam-extend.org         |
|    \\/     M anipulation  |                                                 |
\*---------------------------------------------------------------------------*/
FoamFile
{
    version     2.0;
    format      ascii;
    class       volScalarField;
    location    "9";
    object      epsilonEq;
}
// * * * * * * * * * * * * * * * * * * * * * * * * * * * * * * * * * * * * * //

dimensions      [0 0 0 0 0 0 0];

internalField   nonuniform List<scalar> 
100000
(
1.88906e-05
1.9146e-05
1.92831e-05
1.9406e-05
1.95165e-05
1.96162e-05
1.97048e-05
1.97821e-05
1.98485e-05
1.99055e-05
1.99532e-05
1.9992e-05
2.00218e-05
1.85823e-05
1.55049e-05
1.48746e-05
1.46925e-05
1.4524e-05
1.43681e-05
1.42238e-05
1.6416e-05
1.83753e-05
2.20314e-05
2.2571e-05
2.18347e-05
2.11518e-05
2.05192e-05
1.9925e-05
1.9197e-05
1.80866e-05
1.70803e-05
1.61687e-05
1.53533e-05
1.46229e-05
1.39678e-05
1.33898e-05
1.28804e-05
1.24363e-05
1.20521e-05
1.17237e-05
1.14467e-05
1.12174e-05
1.10321e-05
1.089e-05
1.08252e-05
1.07808e-05
1.07555e-05
1.07481e-05
1.07574e-05
1.07823e-05
1.0822e-05
1.09018e-05
1.10219e-05
1.11638e-05
1.13263e-05
1.15085e-05
1.17094e-05
1.19282e-05
1.21638e-05
1.24156e-05
1.27167e-05
1.30067e-05
1.33032e-05
1.36126e-05
1.39344e-05
1.42676e-05
1.46117e-05
1.49659e-05
1.53295e-05
1.57019e-05
1.60011e-05
1.61135e-05
1.62288e-05
1.6347e-05
1.64677e-05
1.65917e-05
1.67223e-05
1.68515e-05
1.69808e-05
1.71119e-05
1.72446e-05
1.73788e-05
1.75145e-05
1.76516e-05
1.779e-05
1.79297e-05
1.80706e-05
1.82127e-05
1.8356e-05
1.85005e-05
1.86463e-05
1.87493e-05
1.86895e-05
1.86325e-05
1.85789e-05
1.85292e-05
1.84833e-05
1.84451e-05
1.84027e-05
1.8377e-05
1.89344e-05
1.91677e-05
1.93084e-05
1.94341e-05
1.95483e-05
1.96499e-05
1.97405e-05
1.98205e-05
1.98886e-05
1.99474e-05
1.99965e-05
2.00367e-05
1.91825e-05
1.57383e-05
1.50108e-05
1.48242e-05
1.46512e-05
1.44914e-05
1.65503e-05
1.85038e-05
2.1016e-05
2.38451e-05
2.43021e-05
2.42607e-05
2.42145e-05
2.41638e-05
2.41089e-05
2.40502e-05
2.34938e-05
2.29771e-05
2.24991e-05
2.20576e-05
2.20304e-05
2.12762e-05
2.09323e-05
2.06172e-05
2.03291e-05
2.00667e-05
1.98284e-05
1.96127e-05
1.94185e-05
1.92444e-05
1.90893e-05
1.89525e-05
1.88327e-05
1.87279e-05
1.8638e-05
1.85623e-05
1.85e-05
1.84502e-05
1.84127e-05
1.83869e-05
1.83714e-05
1.83655e-05
1.83688e-05
1.83811e-05
1.84016e-05
1.843e-05
1.84657e-05
1.85169e-05
1.86081e-05
1.86645e-05
1.87262e-05
1.87933e-05
1.88656e-05
1.89426e-05
1.90242e-05
1.911e-05
1.91999e-05
1.92934e-05
1.93904e-05
1.94906e-05
1.95939e-05
1.97e-05
1.98087e-05
1.992e-05
1.98847e-05
1.98046e-05
1.97253e-05
1.96469e-05
1.95694e-05
1.94928e-05
1.94171e-05
1.93424e-05
1.92688e-05
1.91963e-05
1.91249e-05
1.90547e-05
1.89856e-05
1.89178e-05
1.88513e-05
1.87862e-05
1.87223e-05
1.86596e-05
1.85978e-05
1.85362e-05
1.84746e-05
1.84115e-05
1.83463e-05
1.82837e-05
1.89779e-05
1.91927e-05
1.93363e-05
1.94654e-05
1.95818e-05
1.96853e-05
1.9777e-05
1.98589e-05
1.99291e-05
1.99889e-05
2.0039e-05
2.0005e-05
1.60991e-05
1.5139e-05
1.49479e-05
1.47708e-05
1.61252e-05
1.82715e-05
2.09769e-05
2.41289e-05
2.44213e-05
2.43917e-05
2.43564e-05
2.43158e-05
2.42703e-05
2.42204e-05
2.41661e-05
2.4108e-05
2.40463e-05
2.39817e-05
2.39132e-05
2.38446e-05
2.37677e-05
2.36886e-05
2.36128e-05
2.35323e-05
2.34508e-05
2.33673e-05
2.32823e-05
2.31959e-05
2.31084e-05
2.30198e-05
2.29303e-05
2.28373e-05
2.26987e-05
2.2576e-05
2.24685e-05
2.23753e-05
2.22957e-05
2.22287e-05
2.21737e-05
2.21004e-05
2.2007e-05
2.19137e-05
2.18205e-05
2.17275e-05
2.16346e-05
2.15419e-05
2.14499e-05
2.13894e-05
2.13156e-05
2.12248e-05
2.11345e-05
2.10447e-05
2.09554e-05
2.08665e-05
2.07783e-05
2.06907e-05
2.06037e-05
2.05172e-05
2.04315e-05
2.03464e-05
2.0262e-05
2.01783e-05
2.00954e-05
2.00132e-05
1.99318e-05
1.98512e-05
1.97714e-05
1.96925e-05
1.96143e-05
1.9537e-05
1.94605e-05
1.93849e-05
1.93102e-05
1.92368e-05
1.91641e-05
1.90924e-05
1.90215e-05
1.89516e-05
1.88825e-05
1.88141e-05
1.87464e-05
1.86789e-05
1.86114e-05
1.85434e-05
1.84747e-05
1.84036e-05
1.83321e-05
1.82567e-05
1.90222e-05
1.92214e-05
1.93663e-05
1.9498e-05
1.96162e-05
1.97218e-05
1.98147e-05
1.98974e-05
1.99689e-05
2.00298e-05
2.00849e-05
1.6626e-05
1.52633e-05
1.50641e-05
1.51445e-05
1.76132e-05
2.03243e-05
2.37482e-05
2.45082e-05
2.44924e-05
2.447e-05
2.44414e-05
2.44069e-05
2.43671e-05
2.43223e-05
2.42728e-05
2.4219e-05
2.41613e-05
2.40999e-05
2.40352e-05
2.39671e-05
2.38964e-05
2.38227e-05
2.37461e-05
2.3668e-05
2.35877e-05
2.35059e-05
2.34223e-05
2.33372e-05
2.32507e-05
2.31631e-05
2.30743e-05
2.29847e-05
2.28942e-05
2.2803e-05
2.27112e-05
2.2619e-05
2.25263e-05
2.24333e-05
2.234e-05
2.22465e-05
2.21531e-05
2.20594e-05
2.19659e-05
2.18724e-05
2.17791e-05
2.1686e-05
2.15931e-05
2.15014e-05
2.14547e-05
2.13641e-05
2.1273e-05
2.11823e-05
2.10922e-05
2.10025e-05
2.09133e-05
2.08247e-05
2.07368e-05
2.06493e-05
2.05625e-05
2.04763e-05
2.03908e-05
2.0306e-05
2.02219e-05
2.01385e-05
2.00558e-05
1.99739e-05
1.98926e-05
1.98122e-05
1.97327e-05
1.96539e-05
1.95757e-05
1.94984e-05
1.94216e-05
1.93459e-05
1.92714e-05
1.91973e-05
1.91238e-05
1.9051e-05
1.89789e-05
1.89073e-05
1.88361e-05
1.8765e-05
1.86938e-05
1.86224e-05
1.85502e-05
1.84775e-05
1.84033e-05
1.83297e-05
1.8254e-05
2.26653e-05
2.23079e-05
2.19437e-05
2.16142e-05
2.13087e-05
2.10288e-05
2.07694e-05
2.05321e-05
2.0314e-05
2.01132e-05
1.73755e-05
1.48222e-05
1.51731e-05
1.67557e-05
1.91125e-05
2.26139e-05
2.45584e-05
2.45589e-05
2.45514e-05
2.45367e-05
2.45152e-05
2.44873e-05
2.44536e-05
2.44144e-05
2.43701e-05
2.43211e-05
2.42677e-05
2.42103e-05
2.41491e-05
2.40846e-05
2.40167e-05
2.39458e-05
2.38725e-05
2.37967e-05
2.37184e-05
2.36381e-05
2.35561e-05
2.34724e-05
2.33873e-05
2.33007e-05
2.3213e-05
2.31241e-05
2.30343e-05
2.29436e-05
2.28522e-05
2.27603e-05
2.26678e-05
2.25749e-05
2.24817e-05
2.23882e-05
2.22945e-05
2.22008e-05
2.2107e-05
2.20132e-05
2.19195e-05
2.18259e-05
2.17325e-05
2.16394e-05
2.15968e-05
2.15325e-05
2.13992e-05
2.12672e-05
2.11366e-05
2.10075e-05
2.08797e-05
2.07535e-05
2.06287e-05
2.05053e-05
2.03835e-05
2.02631e-05
2.01442e-05
2.00617e-05
1.99828e-05
1.99046e-05
1.98273e-05
1.97508e-05
1.96751e-05
1.96e-05
1.9526e-05
1.94523e-05
1.93798e-05
1.93079e-05
1.92368e-05
1.9166e-05
1.90955e-05
1.90265e-05
1.89583e-05
1.88901e-05
1.88227e-05
1.87556e-05
1.86889e-05
1.86222e-05
1.85555e-05
1.84887e-05
1.84215e-05
1.83539e-05
1.82861e-05
1.82178e-05
1.81505e-05
1.811e-05
2.98544e-05
2.89743e-05
2.81024e-05
2.73334e-05
2.66352e-05
2.60149e-05
2.54579e-05
2.49644e-05
2.45282e-05
2.06611e-05
1.66052e-05
1.652e-05
1.82826e-05
2.14771e-05
2.51913e-05
2.51413e-05
2.5082e-05
2.50139e-05
2.49456e-05
2.48754e-05
2.48018e-05
2.47252e-05
2.46459e-05
2.4564e-05
2.44798e-05
2.43935e-05
2.43053e-05
2.42155e-05
2.41242e-05
2.40315e-05
2.39376e-05
2.38427e-05
2.3747e-05
2.36504e-05
2.35532e-05
2.34555e-05
2.33574e-05
2.3259e-05
2.31605e-05
2.30617e-05
2.29629e-05
2.28641e-05
2.27655e-05
2.26669e-05
2.25686e-05
2.24706e-05
2.23728e-05
2.22754e-05
2.21783e-05
2.20819e-05
2.19857e-05
2.18902e-05
2.17953e-05
2.17008e-05
2.16071e-05
2.15139e-05
2.14214e-05
2.13313e-05
2.1293e-05
2.12045e-05
2.11138e-05
2.10255e-05
2.0938e-05
2.08512e-05
2.07652e-05
2.06799e-05
2.05954e-05
2.05116e-05
2.04286e-05
2.03464e-05
2.02666e-05
2.01879e-05
2.01083e-05
2.00293e-05
1.99512e-05
1.98739e-05
1.97976e-05
1.97215e-05
1.96478e-05
1.95717e-05
1.94964e-05
1.94252e-05
1.93528e-05
1.92826e-05
1.92107e-05
1.91363e-05
1.90658e-05
1.89973e-05
1.89282e-05
1.88598e-05
1.87913e-05
1.87229e-05
1.86546e-05
1.85861e-05
1.85177e-05
1.84492e-05
1.83808e-05
1.83123e-05
1.8245e-05
1.81897e-05
3.92548e-05
3.90813e-05
3.8855e-05
3.86673e-05
3.84971e-05
3.83542e-05
3.82283e-05
3.69131e-05
3.06887e-05
2.59869e-05
2.42241e-05
2.26686e-05
2.34061e-05
2.5353e-05
2.53055e-05
2.52531e-05
2.5196e-05
2.51342e-05
2.50684e-05
2.49988e-05
2.49258e-05
2.48497e-05
2.47708e-05
2.46892e-05
2.46053e-05
2.45191e-05
2.4431e-05
2.43412e-05
2.42498e-05
2.41571e-05
2.40631e-05
2.39681e-05
2.38722e-05
2.37755e-05
2.3678e-05
2.358e-05
2.34816e-05
2.33828e-05
2.32838e-05
2.31847e-05
2.30854e-05
2.29862e-05
2.28871e-05
2.27881e-05
2.26893e-05
2.25908e-05
2.24925e-05
2.23947e-05
2.22971e-05
2.22e-05
2.21034e-05
2.20073e-05
2.19119e-05
2.18169e-05
2.17226e-05
2.16289e-05
2.15357e-05
2.1479e-05
2.13969e-05
2.13047e-05
2.12564e-05
2.1208e-05
2.11593e-05
2.11103e-05
2.10612e-05
2.10119e-05
2.09624e-05
2.09129e-05
2.08632e-05
2.08135e-05
2.07636e-05
2.06788e-05
2.05917e-05
2.05054e-05
2.04197e-05
2.03347e-05
2.02502e-05
2.01667e-05
2.00835e-05
1.99802e-05
1.99193e-05
1.98385e-05
1.97578e-05
1.96784e-05
1.96171e-05
1.94985e-05
1.94411e-05
1.93632e-05
1.92853e-05
1.92082e-05
1.91312e-05
1.90546e-05
1.89781e-05
1.89018e-05
1.88257e-05
1.87498e-05
1.86744e-05
1.8599e-05
1.85251e-05
1.84498e-05
4.51226e-05
4.56148e-05
4.60351e-05
4.64104e-05
4.67398e-05
4.70311e-05
4.29721e-05
3.70168e-05
3.21638e-05
3.00877e-05
3.00861e-05
2.96056e-05
2.51212e-05
2.4767e-05
2.47945e-05
2.48124e-05
2.48257e-05
2.48347e-05
2.48316e-05
2.48193e-05
2.47999e-05
2.47738e-05
2.47415e-05
2.47035e-05
2.46603e-05
2.4612e-05
2.45593e-05
2.45022e-05
2.44412e-05
2.43767e-05
2.43089e-05
2.4238e-05
2.41643e-05
2.40881e-05
2.40095e-05
2.39287e-05
2.3846e-05
2.37615e-05
2.36755e-05
2.3588e-05
2.34992e-05
2.34094e-05
2.33185e-05
2.32268e-05
2.31343e-05
2.30412e-05
2.29475e-05
2.28534e-05
2.27589e-05
2.2664e-05
2.25691e-05
2.24739e-05
2.23789e-05
2.22837e-05
2.21444e-05
2.19826e-05
2.18437e-05
2.17469e-05
2.16078e-05
2.14729e-05
2.13479e-05
2.12325e-05
2.11264e-05
2.10291e-05
2.09404e-05
2.086e-05
2.07874e-05
2.07225e-05
2.06649e-05
2.06144e-05
2.05706e-05
2.05332e-05
2.05021e-05
2.0477e-05
2.04438e-05
2.03582e-05
2.02727e-05
2.01886e-05
2.01034e-05
2.00221e-05
1.99412e-05
1.98575e-05
1.97763e-05
1.96942e-05
1.96149e-05
1.95389e-05
1.946e-05
1.938e-05
1.93014e-05
1.92228e-05
1.91448e-05
1.90672e-05
1.899e-05
1.89131e-05
1.88366e-05
1.87604e-05
1.86849e-05
1.86095e-05
1.85356e-05
1.84605e-05
4.51568e-05
4.56397e-05
4.60634e-05
4.64429e-05
4.6776e-05
4.01333e-05
3.43366e-05
2.99099e-05
2.9931e-05
2.9947e-05
2.9961e-05
2.99712e-05
2.73058e-05
2.47963e-05
2.48264e-05
2.48489e-05
2.48619e-05
2.48659e-05
2.48617e-05
2.48498e-05
2.48307e-05
2.48049e-05
2.47729e-05
2.47351e-05
2.46919e-05
2.46438e-05
2.45911e-05
2.45342e-05
2.44733e-05
2.44088e-05
2.42255e-05
2.36295e-05
2.30648e-05
2.25297e-05
2.20231e-05
2.15436e-05
2.109e-05
2.06612e-05
2.02561e-05
1.98738e-05
1.95131e-05
1.91732e-05
1.88531e-05
1.8552e-05
1.82691e-05
1.80035e-05
1.77545e-05
1.75214e-05
1.72626e-05
1.7015e-05
1.67874e-05
1.65786e-05
1.63877e-05
1.62117e-05
1.60511e-05
1.59092e-05
1.5817e-05
1.57136e-05
1.56001e-05
1.55003e-05
1.54133e-05
1.53388e-05
1.52678e-05
1.52035e-05
1.51523e-05
1.51138e-05
1.50873e-05
1.50724e-05
1.50686e-05
1.50754e-05
1.50922e-05
1.5114e-05
1.51132e-05
1.51181e-05
1.51243e-05
1.51381e-05
1.51627e-05
1.51874e-05
1.52102e-05
1.5237e-05
1.52682e-05
1.53026e-05
1.53413e-05
1.53827e-05
1.54277e-05
1.54767e-05
1.55285e-05
1.55823e-05
1.5639e-05
1.56978e-05
1.5759e-05
1.58223e-05
1.58877e-05
1.59551e-05
1.60245e-05
1.60957e-05
1.61693e-05
1.62437e-05
1.63221e-05
1.6504e-05
4.51917e-05
4.5673e-05
4.60988e-05
4.5149e-05
3.77161e-05
3.21247e-05
2.96866e-05
2.97292e-05
2.9769e-05
2.98045e-05
2.98343e-05
2.98607e-05
2.93456e-05
2.49012e-05
2.48516e-05
2.48747e-05
2.48881e-05
2.48925e-05
2.48886e-05
2.4877e-05
2.48581e-05
2.4221e-05
2.33059e-05
2.24394e-05
2.16194e-05
2.08438e-05
2.01104e-05
1.94175e-05
1.87631e-05
1.81427e-05
1.75569e-05
1.70158e-05
1.6496e-05
1.60069e-05
1.55332e-05
1.48148e-05
1.41457e-05
1.35238e-05
1.2947e-05
1.24131e-05
1.19201e-05
1.1466e-05
1.10487e-05
1.06664e-05
1.03169e-05
9.99855e-06
9.70949e-06
8.76769e-06
7.78681e-06
6.94385e-06
6.4281e-06
6.15098e-06
5.9712e-06
5.87558e-06
5.85016e-06
5.86155e-06
5.88235e-06
5.90481e-06
5.92625e-06
5.94781e-06
5.96672e-06
5.9808e-06
5.98961e-06
5.99588e-06
5.99887e-06
5.99734e-06
5.99153e-06
5.98197e-06
5.96929e-06
5.95429e-06
5.93655e-06
5.90952e-06
5.8837e-06
5.86752e-06
5.85376e-06
5.84515e-06
5.84646e-06
5.8594e-06
5.88982e-06
5.94027e-06
6.01057e-06
6.10238e-06
6.2167e-06
6.35425e-06
6.51484e-06
6.69872e-06
6.9061e-06
7.13585e-06
7.38731e-06
7.65935e-06
7.95107e-06
8.26132e-06
8.58493e-06
8.90862e-06
9.24655e-06
9.59789e-06
9.96285e-06
1.03373e-05
1.07292e-05
1.10166e-05
4.52266e-05
4.57146e-05
4.33211e-05
3.56915e-05
2.98766e-05
2.94131e-05
2.94831e-05
2.95481e-05
2.96076e-05
2.96607e-05
2.97071e-05
2.97472e-05
2.969e-05
2.66744e-05
2.48747e-05
2.37125e-05
2.24822e-05
2.132e-05
2.02229e-05
1.91879e-05
1.82099e-05
1.73219e-05
1.6474e-05
1.56558e-05
1.47895e-05
1.38401e-05
1.29551e-05
1.21323e-05
1.11587e-05
1.02563e-05
9.78268e-06
9.91805e-06
8.12812e-06
7.00019e-06
6.25128e-06
5.84937e-06
5.74581e-06
5.94339e-06
6.36602e-06
6.93359e-06
6.17085e-06
5.77221e-06
6.10012e-06
6.95556e-06
8.09903e-06
9.36761e-06
1.07276e-05
1.21843e-05
1.34996e-05
1.46702e-05
1.57512e-05
1.68255e-05
1.78586e-05
1.88224e-05
1.93792e-05
1.87833e-05
2.38265e-05
1.75966e-05
1.70324e-05
1.64877e-05
1.59634e-05
1.54581e-05
1.49798e-05
1.45242e-05
1.40838e-05
1.36636e-05
1.32738e-05
1.28961e-05
1.25302e-05
1.21759e-05
1.18332e-05
1.15063e-05
1.12197e-05
1.09449e-05
1.06816e-05
1.04293e-05
1.01876e-05
9.96134e-06
9.75176e-06
9.55269e-06
9.36369e-06
9.18447e-06
9.01463e-06
8.85374e-06
8.70138e-06
8.55745e-06
8.42156e-06
8.28392e-06
8.13224e-06
7.98987e-06
7.85654e-06
7.72951e-06
7.60136e-06
7.4831e-06
7.38161e-06
7.28805e-06
7.20147e-06
7.12118e-06
7.05159e-06
6.27629e-06
4.52611e-05
4.1926e-05
3.40399e-05
2.89911e-05
2.90944e-05
2.91884e-05
2.92808e-05
2.93667e-05
2.94456e-05
2.95161e-05
2.87057e-05
2.71463e-05
2.56706e-05
2.33182e-05
1.80441e-05
1.67617e-05
1.55924e-05
1.44175e-05
1.30501e-05
1.17861e-05
1.10264e-05
1.16108e-05
1.23435e-05
1.09936e-05
8.82354e-06
1.16141e-05
1.56471e-05
1.96488e-05
2.35076e-05
2.71648e-05
3.06494e-05
3.40932e-05
3.74386e-05
3.5773e-05
3.37269e-05
3.20598e-05
3.04699e-05
2.90295e-05
2.76357e-05
2.61471e-05
2.51676e-05
2.40253e-05
2.28123e-05
2.16395e-05
2.05052e-05
1.94091e-05
1.83494e-05
1.81389e-05
1.81384e-05
1.81959e-05
1.80052e-05
1.75755e-05
1.71366e-05
1.68095e-05
1.64838e-05
1.62596e-05
1.59165e-05
1.55662e-05
1.52057e-05
1.48404e-05
1.44695e-05
1.40942e-05
1.37148e-05
1.33321e-05
1.29467e-05
1.25594e-05
1.21708e-05
1.17814e-05
1.13921e-05
1.10037e-05
1.06173e-05
1.02338e-05
9.85409e-06
9.46845e-06
9.05708e-06
8.65647e-06
8.26867e-06
7.89594e-06
7.54085e-06
7.20623e-06
6.89534e-06
6.61168e-06
6.35887e-06
6.1407e-06
5.96084e-06
5.82266e-06
5.72624e-06
5.66971e-06
5.66277e-06
5.70803e-06
5.79786e-06
5.92942e-06
6.09707e-06
6.28874e-06
6.50751e-06
6.7498e-06
7.01208e-06
7.29381e-06
7.58288e-06
8.04408e-06
4.09989e-05
3.27183e-05
2.85935e-05
2.87166e-05
2.88471e-05
2.89658e-05
2.87836e-05
2.68741e-05
2.50709e-05
2.36778e-05
2.27365e-05
2.1564e-05
2.02193e-05
1.91613e-05
1.58075e-05
1.35832e-05
2.24722e-05
3.05888e-05
3.59791e-05
4.18779e-05
4.77485e-05
5.20404e-05
4.88187e-05
4.5961e-05
4.28549e-05
4.09876e-05
3.89137e-05
3.66958e-05
3.48005e-05
3.29883e-05
3.09494e-05
2.87347e-05
2.82164e-05
2.81343e-05
2.78482e-05
2.74631e-05
2.70474e-05
2.66203e-05
2.61925e-05
2.57503e-05
2.2672e-05
1.92317e-05
1.60197e-05
1.30658e-05
1.04298e-05
8.23943e-06
6.73098e-06
6.21507e-06
6.75546e-06
8.02269e-06
9.64383e-06
1.14015e-05
1.29191e-05
1.42686e-05
1.52704e-05
1.51562e-05
1.50455e-05
1.49384e-05
1.48349e-05
1.4734e-05
1.46366e-05
1.45875e-05
1.45557e-05
1.45254e-05
1.44965e-05
1.44744e-05
1.44702e-05
1.44654e-05
1.44601e-05
1.44544e-05
1.44483e-05
1.44416e-05
1.44342e-05
1.44254e-05
1.44165e-05
1.44078e-05
1.43987e-05
1.43891e-05
1.4379e-05
1.43684e-05
1.43574e-05
1.43459e-05
1.43341e-05
1.43217e-05
1.43088e-05
1.42953e-05
1.42813e-05
1.42539e-05
1.41962e-05
1.4139e-05
1.40824e-05
1.40262e-05
1.39705e-05
1.39152e-05
1.38604e-05
1.38063e-05
1.37527e-05
1.37005e-05
1.36478e-05
1.35964e-05
3.12946e-05
2.81064e-05
2.82947e-05
2.82277e-05
2.60037e-05
2.40205e-05
2.29398e-05
2.19758e-05
2.03012e-05
1.99883e-05
2.16876e-05
3.23588e-05
5.10112e-05
6.20722e-05
6.42235e-05
5.92841e-05
5.6766e-05
5.24962e-05
4.90296e-05
4.6226e-05
4.26603e-05
3.75905e-05
3.44339e-05
3.30956e-05
3.29414e-05
2.71239e-05
2.04877e-05
1.44687e-05
9.54303e-06
7.27073e-06
9.1609e-06
1.32126e-05
1.77799e-05
1.804e-05
1.78028e-05
1.75751e-05
1.73747e-05
1.72722e-05
1.71713e-05
1.70725e-05
1.69758e-05
1.68805e-05
1.67873e-05
1.66953e-05
1.66055e-05
1.65165e-05
1.64295e-05
1.63439e-05
1.62585e-05
1.61758e-05
1.61474e-05
1.58266e-05
1.54012e-05
1.52152e-05
1.52142e-05
1.52128e-05
1.52103e-05
1.52072e-05
1.52039e-05
1.51997e-05
1.51964e-05
1.5193e-05
1.51871e-05
1.518e-05
1.51725e-05
1.51645e-05
1.51561e-05
1.51472e-05
1.51378e-05
1.51279e-05
1.51176e-05
1.5107e-05
1.50959e-05
1.50717e-05
1.50084e-05
1.49456e-05
1.48834e-05
1.48216e-05
1.47603e-05
1.46993e-05
1.46386e-05
1.45783e-05
1.45184e-05
1.4459e-05
1.44e-05
1.43414e-05
1.42832e-05
1.42252e-05
1.41676e-05
1.41105e-05
1.40538e-05
1.39978e-05
1.39424e-05
1.38877e-05
1.38335e-05
1.37799e-05
1.37266e-05
1.36746e-05
1.36221e-05
1.35415e-05
2.3476e-05
2.62639e-05
2.39328e-05
2.27946e-05
2.19323e-05
2.0239e-05
2.15149e-05
2.85875e-05
5.07954e-05
5.09281e-05
4.94535e-05
5.18269e-05
5.12182e-05
4.71171e-05
4.53855e-05
4.33335e-05
3.04091e-05
1.92366e-05
1.19798e-05
8.87745e-06
1.3604e-05
1.98202e-05
1.94464e-05
1.90879e-05
1.88239e-05
1.86841e-05
1.85481e-05
1.8416e-05
1.82872e-05
1.81619e-05
1.80394e-05
1.79204e-05
1.78036e-05
1.76902e-05
1.75784e-05
1.74697e-05
1.73628e-05
1.72584e-05
1.71563e-05
1.70558e-05
1.69707e-05
1.69648e-05
1.6959e-05
1.69518e-05
1.69448e-05
1.69372e-05
1.6928e-05
1.69196e-05
1.69094e-05
1.69072e-05
1.65631e-05
1.61189e-05
1.59661e-05
1.59615e-05
1.59559e-05
1.59495e-05
1.59426e-05
1.5935e-05
1.59269e-05
1.59183e-05
1.59092e-05
1.58531e-05
1.57818e-05
1.57112e-05
1.56414e-05
1.55722e-05
1.55038e-05
1.54361e-05
1.53689e-05
1.53023e-05
1.52364e-05
1.51711e-05
1.51064e-05
1.50423e-05
1.49787e-05
1.49155e-05
1.48528e-05
1.47907e-05
1.47292e-05
1.46681e-05
1.46074e-05
1.45472e-05
1.44873e-05
1.44278e-05
1.43687e-05
1.43101e-05
1.4252e-05
1.41944e-05
1.41373e-05
1.40807e-05
1.40244e-05
1.39687e-05
1.39135e-05
1.38589e-05
1.38051e-05
1.37333e-05
1.36422e-05
1.35532e-05
1.34696e-05
1.33775e-05
8.65196e-06
1.49498e-05
1.70078e-05
1.85813e-05
2.47713e-05
3.38777e-05
3.49111e-05
3.76779e-05
3.49267e-05
3.29637e-05
2.96877e-05
1.90814e-05
1.22807e-05
1.93279e-05
2.16245e-05
2.06224e-05
2.01683e-05
1.99798e-05
1.97987e-05
1.96241e-05
1.94558e-05
1.92931e-05
1.91359e-05
1.89836e-05
1.88361e-05
1.86932e-05
1.85543e-05
1.84195e-05
1.82881e-05
1.81607e-05
1.80358e-05
1.79148e-05
1.78068e-05
1.78022e-05
1.77965e-05
1.77905e-05
1.77841e-05
1.77766e-05
1.77691e-05
1.77633e-05
1.7774e-05
1.77797e-05
1.77683e-05
1.7756e-05
1.77426e-05
1.77302e-05
1.77158e-05
1.77009e-05
1.76865e-05
1.73074e-05
1.67911e-05
1.6588e-05
1.65073e-05
1.64278e-05
1.63495e-05
1.62718e-05
1.6195e-05
1.61194e-05
1.60445e-05
1.59704e-05
1.58972e-05
1.58247e-05
1.5753e-05
1.56821e-05
1.5612e-05
1.55426e-05
1.54738e-05
1.54057e-05
1.53382e-05
1.52714e-05
1.52052e-05
1.51397e-05
1.50748e-05
1.50106e-05
1.49469e-05
1.48838e-05
1.48212e-05
1.4759e-05
1.46972e-05
1.46359e-05
1.45751e-05
1.45148e-05
1.4455e-05
1.43957e-05
1.43367e-05
1.42782e-05
1.42201e-05
1.41625e-05
1.41055e-05
1.40491e-05
1.39934e-05
1.39381e-05
1.38422e-05
1.37476e-05
1.36563e-05
1.35692e-05
1.34819e-05
1.33945e-05
1.33096e-05
1.32501e-05
1.32569e-05
1.32386e-05
1.18308e-05
2.02883e-05
2.00299e-05
1.86302e-05
1.78329e-05
1.44163e-05
2.48611e-05
2.49375e-05
2.33196e-05
2.21185e-05
2.12651e-05
2.08396e-05
2.0621e-05
2.04115e-05
2.02105e-05
2.00169e-05
1.98309e-05
1.96518e-05
1.94793e-05
1.93129e-05
1.9152e-05
1.89965e-05
1.88458e-05
1.86998e-05
1.86595e-05
1.86535e-05
1.86469e-05
1.86409e-05
1.86335e-05
1.86294e-05
1.86509e-05
1.86675e-05
1.86559e-05
1.86432e-05
1.86308e-05
1.86173e-05
1.86037e-05
1.85891e-05
1.85615e-05
1.84542e-05
1.83485e-05
1.82461e-05
1.81436e-05
1.80434e-05
1.79457e-05
1.78477e-05
1.73853e-05
1.68341e-05
1.66432e-05
1.65612e-05
1.64804e-05
1.64003e-05
1.63213e-05
1.62434e-05
1.61662e-05
1.60899e-05
1.60148e-05
1.59404e-05
1.58668e-05
1.5794e-05
1.5722e-05
1.56508e-05
1.55804e-05
1.55108e-05
1.54417e-05
1.53733e-05
1.53056e-05
1.52386e-05
1.51722e-05
1.51065e-05
1.50413e-05
1.49767e-05
1.49127e-05
1.48494e-05
1.47867e-05
1.47245e-05
1.46629e-05
1.46017e-05
1.4541e-05
1.44808e-05
1.4421e-05
1.43618e-05
1.4303e-05
1.42448e-05
1.4187e-05
1.41297e-05
1.40559e-05
1.39563e-05
1.38584e-05
1.37654e-05
1.36748e-05
1.35822e-05
1.34912e-05
1.34203e-05
1.33706e-05
1.3322e-05
1.32728e-05
1.32224e-05
1.27423e-05
1.70774e-05
1.39875e-05
8.77283e-06
1.70763e-05
2.44773e-05
2.65384e-05
2.53337e-05
2.38772e-05
2.25566e-05
2.1633e-05
2.13755e-05
2.1129e-05
2.08948e-05
2.06704e-05
2.04552e-05
2.02489e-05
2.00509e-05
1.98606e-05
1.96773e-05
1.95493e-05
1.95379e-05
1.95275e-05
1.95179e-05
1.95086e-05
1.95324e-05
1.95643e-05
1.95622e-05
1.95487e-05
1.95357e-05
1.95218e-05
1.95076e-05
1.94821e-05
1.93545e-05
1.92303e-05
1.91081e-05
1.89888e-05
1.88716e-05
1.87571e-05
1.86442e-05
1.85335e-05
1.8426e-05
1.83186e-05
1.82142e-05
1.81122e-05
1.801e-05
1.79107e-05
1.74558e-05
1.68886e-05
1.66984e-05
1.66148e-05
1.65321e-05
1.64506e-05
1.63702e-05
1.62907e-05
1.62122e-05
1.61349e-05
1.60583e-05
1.59825e-05
1.59078e-05
1.58339e-05
1.57608e-05
1.56885e-05
1.56171e-05
1.55463e-05
1.54764e-05
1.54071e-05
1.53386e-05
1.52707e-05
1.52036e-05
1.51371e-05
1.50713e-05
1.50062e-05
1.49417e-05
1.48777e-05
1.48142e-05
1.47512e-05
1.46887e-05
1.46269e-05
1.45656e-05
1.4505e-05
1.4445e-05
1.43854e-05
1.43263e-05
1.42676e-05
1.41787e-05
1.40758e-05
1.39755e-05
1.3879e-05
1.37834e-05
1.36874e-05
1.35929e-05
1.35412e-05
1.34903e-05
1.34399e-05
1.33901e-05
1.33407e-05
1.32924e-05
1.32435e-05
1.31934e-05
1.42235e-05
1.20123e-05
2.01182e-05
2.78826e-05
2.74542e-05
2.64187e-05
2.47736e-05
2.3232e-05
2.22743e-05
2.19827e-05
2.17049e-05
2.14411e-05
2.11878e-05
2.09471e-05
2.07167e-05
2.04965e-05
2.04601e-05
2.04407e-05
2.04235e-05
2.04264e-05
2.04707e-05
2.04942e-05
2.04759e-05
2.04585e-05
2.04416e-05
2.04254e-05
2.0306e-05
2.0157e-05
2.00117e-05
1.98701e-05
1.97322e-05
1.95967e-05
1.94652e-05
1.93357e-05
1.92094e-05
1.90855e-05
1.89645e-05
1.88456e-05
1.87292e-05
1.86158e-05
1.8503e-05
1.83939e-05
1.82868e-05
1.818e-05
1.80768e-05
1.7975e-05
1.75396e-05
1.69575e-05
1.67533e-05
1.66677e-05
1.65836e-05
1.65006e-05
1.64185e-05
1.63375e-05
1.62577e-05
1.61788e-05
1.61009e-05
1.60241e-05
1.59481e-05
1.58729e-05
1.57987e-05
1.57254e-05
1.56528e-05
1.55811e-05
1.551e-05
1.54399e-05
1.53704e-05
1.53017e-05
1.52336e-05
1.51662e-05
1.50996e-05
1.50336e-05
1.49684e-05
1.49038e-05
1.48399e-05
1.47766e-05
1.47139e-05
1.46516e-05
1.45898e-05
1.45286e-05
1.44679e-05
1.44077e-05
1.43073e-05
1.42009e-05
1.40976e-05
1.39974e-05
1.38973e-05
1.37978e-05
1.37169e-05
1.36641e-05
1.36117e-05
1.356e-05
1.35087e-05
1.3458e-05
1.34078e-05
1.33582e-05
1.3309e-05
1.32609e-05
1.32123e-05
1.31626e-05
1.75735e-05
2.89672e-05
2.84898e-05
2.77715e-05
2.60596e-05
2.43085e-05
2.30056e-05
2.26733e-05
2.23575e-05
2.20581e-05
2.17727e-05
2.15025e-05
2.14185e-05
2.13854e-05
2.13565e-05
2.14047e-05
2.14562e-05
2.14337e-05
2.1408e-05
2.13843e-05
2.13129e-05
2.11307e-05
2.09543e-05
2.07836e-05
2.0618e-05
2.04573e-05
2.03009e-05
2.01486e-05
2.00009e-05
1.98563e-05
1.97163e-05
1.95787e-05
1.94449e-05
1.93138e-05
1.91857e-05
1.90599e-05
1.8937e-05
1.88174e-05
1.86988e-05
1.8584e-05
1.8471e-05
1.83592e-05
1.82513e-05
1.81444e-05
1.80386e-05
1.76407e-05
1.70404e-05
1.6808e-05
1.67209e-05
1.66349e-05
1.65499e-05
1.64663e-05
1.6384e-05
1.63025e-05
1.62222e-05
1.61429e-05
1.60647e-05
1.59874e-05
1.59111e-05
1.58357e-05
1.57612e-05
1.56876e-05
1.56147e-05
1.55427e-05
1.54716e-05
1.54013e-05
1.53317e-05
1.52628e-05
1.51947e-05
1.51273e-05
1.50606e-05
1.49945e-05
1.49291e-05
1.48644e-05
1.48002e-05
1.47366e-05
1.46738e-05
1.46117e-05
1.45503e-05
1.44425e-05
1.43323e-05
1.42253e-05
1.4121e-05
1.40167e-05
1.39137e-05
1.38432e-05
1.37889e-05
1.37352e-05
1.3682e-05
1.36293e-05
1.35771e-05
1.35256e-05
1.34746e-05
1.34242e-05
1.33743e-05
1.33249e-05
1.3276e-05
1.3228e-05
1.31796e-05
1.31301e-05
2.52406e-05
2.91285e-05
2.77967e-05
2.58151e-05
2.40921e-05
2.34605e-05
2.31005e-05
2.27598e-05
2.24519e-05
2.23942e-05
2.23442e-05
2.23845e-05
2.24432e-05
2.24211e-05
2.23826e-05
2.23482e-05
2.21394e-05
2.19248e-05
2.17181e-05
2.15188e-05
2.13264e-05
2.11402e-05
2.09599e-05
2.07854e-05
2.06165e-05
2.04525e-05
2.02936e-05
2.0138e-05
1.99878e-05
1.98405e-05
1.96977e-05
1.95582e-05
1.94222e-05
1.92891e-05
1.91589e-05
1.90322e-05
1.89069e-05
1.87859e-05
1.86667e-05
1.85491e-05
1.84356e-05
1.83234e-05
1.82128e-05
1.81057e-05
1.77569e-05
1.7138e-05
1.68631e-05
1.67739e-05
1.66859e-05
1.65995e-05
1.65142e-05
1.64298e-05
1.63468e-05
1.62651e-05
1.61844e-05
1.61046e-05
1.6026e-05
1.59485e-05
1.58719e-05
1.57962e-05
1.57214e-05
1.56474e-05
1.55744e-05
1.55022e-05
1.54308e-05
1.53602e-05
1.52905e-05
1.52215e-05
1.51533e-05
1.50858e-05
1.50192e-05
1.49533e-05
1.48881e-05
1.48235e-05
1.47594e-05
1.46959e-05
1.45849e-05
1.44705e-05
1.4359e-05
1.42504e-05
1.41423e-05
1.40358e-05
1.39717e-05
1.39159e-05
1.38605e-05
1.38058e-05
1.37516e-05
1.36981e-05
1.36451e-05
1.35927e-05
1.35409e-05
1.34895e-05
1.34388e-05
1.33885e-05
1.33389e-05
1.32898e-05
1.32412e-05
1.31935e-05
1.31454e-05
1.30962e-05
2.53714e-05
2.7792e-05
2.56977e-05
2.43617e-05
2.39502e-05
2.35612e-05
2.34252e-05
2.336e-05
2.34238e-05
2.34798e-05
2.34184e-05
2.33657e-05
2.31407e-05
2.28828e-05
2.26349e-05
2.23973e-05
2.21687e-05
2.19489e-05
2.17373e-05
2.15334e-05
2.13368e-05
2.11466e-05
2.09626e-05
2.0784e-05
2.0612e-05
2.04444e-05
2.02831e-05
2.01249e-05
1.99719e-05
1.98225e-05
1.9677e-05
1.95351e-05
1.93969e-05
1.92623e-05
1.91295e-05
1.90013e-05
1.88752e-05
1.87513e-05
1.86315e-05
1.8513e-05
1.8397e-05
1.82845e-05
1.81729e-05
1.78906e-05
1.72525e-05
1.69183e-05
1.6827e-05
1.67373e-05
1.66488e-05
1.65615e-05
1.64758e-05
1.63912e-05
1.63077e-05
1.62253e-05
1.61442e-05
1.60641e-05
1.59851e-05
1.59073e-05
1.58305e-05
1.57545e-05
1.56795e-05
1.56053e-05
1.55321e-05
1.54597e-05
1.53883e-05
1.53175e-05
1.52476e-05
1.51784e-05
1.51101e-05
1.50426e-05
1.49758e-05
1.49097e-05
1.48443e-05
1.47361e-05
1.46175e-05
1.45013e-05
1.43879e-05
1.42755e-05
1.41647e-05
1.41024e-05
1.40449e-05
1.39881e-05
1.39319e-05
1.38763e-05
1.38213e-05
1.37669e-05
1.37129e-05
1.36595e-05
1.36067e-05
1.35545e-05
1.35029e-05
1.34518e-05
1.34013e-05
1.33513e-05
1.33019e-05
1.3253e-05
1.32046e-05
1.31572e-05
1.31093e-05
1.30606e-05
2.35014e-05
2.56996e-05
2.49242e-05
2.45378e-05
2.44288e-05
2.44645e-05
2.45298e-05
2.44702e-05
2.438e-05
2.40614e-05
2.37572e-05
2.34677e-05
2.31904e-05
2.29257e-05
2.26714e-05
2.24278e-05
2.21938e-05
2.19691e-05
2.17528e-05
2.15445e-05
2.13439e-05
2.11497e-05
2.09625e-05
2.07801e-05
2.06048e-05
2.04339e-05
2.02692e-05
2.01089e-05
1.9953e-05
1.98013e-05
1.96536e-05
1.95098e-05
1.93688e-05
1.92327e-05
1.90987e-05
1.89675e-05
1.88406e-05
1.87153e-05
1.85931e-05
1.84746e-05
1.83571e-05
1.82422e-05
1.80425e-05
1.73832e-05
1.69739e-05
1.68807e-05
1.67889e-05
1.66983e-05
1.66093e-05
1.65216e-05
1.64351e-05
1.635e-05
1.62661e-05
1.61834e-05
1.61018e-05
1.60215e-05
1.59422e-05
1.58639e-05
1.57867e-05
1.57105e-05
1.56353e-05
1.55608e-05
1.54874e-05
1.54149e-05
1.53434e-05
1.52726e-05
1.52027e-05
1.51336e-05
1.50653e-05
1.49978e-05
1.48979e-05
1.47742e-05
1.46523e-05
1.45332e-05
1.44163e-05
1.43013e-05
1.42362e-05
1.41771e-05
1.41186e-05
1.40607e-05
1.40034e-05
1.39467e-05
1.38905e-05
1.3835e-05
1.37802e-05
1.37259e-05
1.36723e-05
1.36193e-05
1.35667e-05
1.35147e-05
1.34633e-05
1.34124e-05
1.33622e-05
1.33125e-05
1.32633e-05
1.32147e-05
1.31665e-05
1.31193e-05
1.30716e-05
1.30231e-05
2.20119e-05
2.55955e-05
2.55079e-05
2.55685e-05
2.55977e-05
2.54911e-05
2.51608e-05
2.47986e-05
2.44552e-05
2.41286e-05
2.38167e-05
2.352e-05
2.32359e-05
2.2965e-05
2.27052e-05
2.24561e-05
2.2217e-05
2.19874e-05
2.17666e-05
2.15537e-05
2.13488e-05
2.11505e-05
2.09599e-05
2.07742e-05
2.05953e-05
2.04217e-05
2.02532e-05
2.009e-05
1.99315e-05
1.97776e-05
1.96269e-05
1.94817e-05
1.9339e-05
1.91998e-05
1.90652e-05
1.8932e-05
1.88021e-05
1.86772e-05
1.85532e-05
1.84324e-05
1.83148e-05
1.81852e-05
1.75316e-05
1.70308e-05
1.6935e-05
1.68406e-05
1.67481e-05
1.6657e-05
1.65674e-05
1.64792e-05
1.63923e-05
1.63066e-05
1.62222e-05
1.61392e-05
1.60572e-05
1.59765e-05
1.5897e-05
1.58185e-05
1.57411e-05
1.56646e-05
1.55891e-05
1.55146e-05
1.5441e-05
1.53682e-05
1.52964e-05
1.52255e-05
1.51556e-05
1.50713e-05
1.4942e-05
1.48145e-05
1.46895e-05
1.45676e-05
1.44479e-05
1.43737e-05
1.43126e-05
1.42521e-05
1.41923e-05
1.41331e-05
1.40747e-05
1.4017e-05
1.39599e-05
1.39035e-05
1.38476e-05
1.37923e-05
1.37375e-05
1.36834e-05
1.36299e-05
1.35771e-05
1.35249e-05
1.34732e-05
1.3422e-05
1.33714e-05
1.33213e-05
1.32719e-05
1.3223e-05
1.31747e-05
1.31268e-05
1.30799e-05
1.30325e-05
1.29842e-05
2.26161e-05
2.66574e-05
2.66844e-05
2.64853e-05
2.60503e-05
2.56384e-05
2.52489e-05
2.48787e-05
2.45266e-05
2.41917e-05
2.38729e-05
2.35696e-05
2.32793e-05
2.30023e-05
2.27366e-05
2.24819e-05
2.22374e-05
2.20027e-05
2.17774e-05
2.15599e-05
2.13509e-05
2.11484e-05
2.09538e-05
2.07654e-05
2.05828e-05
2.04064e-05
2.02351e-05
2.00689e-05
1.99071e-05
1.97512e-05
1.95985e-05
1.94501e-05
1.93067e-05
1.91651e-05
1.90279e-05
1.88947e-05
1.87629e-05
1.86358e-05
1.85115e-05
1.83887e-05
1.8269e-05
1.76989e-05
1.70925e-05
1.69899e-05
1.68935e-05
1.67985e-05
1.67051e-05
1.66135e-05
1.65233e-05