/*--------------------------------*- C++ -*----------------------------------*\
| =========                 |                                                 |
| \\      /  F ield         | foam-extend: Open Source CFD                    |
|  \\    /   O peration     | Version:     4.1                                |
|   \\  /    A nd           | Web:         http://www.foam-extend.org         |
|    \\/     M anipulation  |                                                 |
\*---------------------------------------------------------------------------*/
FoamFile
{
    version     2.0;
    format      ascii;
    class       volScalarField;
    location    "9";
    object      sigmaHyd;
}
// * * * * * * * * * * * * * * * * * * * * * * * * * * * * * * * * * * * * * //

dimensions      [1 -1 -2 0 0 0 0];

internalField   nonuniform List<scalar> 
100000
(
-423560
-422476
-422685
-422233
-422137
-421867
-421698
-421486
-421306
-421119
-420945
-420772
-420607
-420445
-420289
-420137
-419990
-419846
-419707
-419572
-419441
-419313
-419188
-419067
-418949
-418834
-418723
-418611
-418508
-418395
-418300
-418163
-418074
-418027
-417921
-417828
-417740
-417650
-417565
-417480
-417398
-417318
-417239
-417162
-417087
-417012
-416940
-416868
-416798
-416729
-416662
-416595
-416530
-416466
-416403
-416341
-416280
-416219
-416160
-416102
-416044
-415987
-415931
-415875
-415821
-415766
-415713
-415660
-415608
-415556
-415505
-415455
-415405
-415356
-415307
-415259
-415211
-415164
-415117
-415071
-415024
-414978
-414933
-414887
-414843
-414797
-414752
-414706
-414662
-414618
-414575
-414532
-414492
-414451
-414418
-414379
-414366
-414320
-414390
-414140
-438902
-437443
-437392
-436633
-436267
-435719
-435288
-434818
-434388
-433957
-433545
-433141
-432750
-432370
-432000
-431639
-431289
-430947
-430615
-430291
-429975
-429667
-429368
-429075
-428791
-428512
-428245
-427978
-427739
-427470
-427332
-426959
-426895
-426488
-426394
-426062
-425862
-425628
-425422
-425213
-425013
-424816
-424624
-424436
-424251
-424070
-423893
-423719
-423548
-423380
-423215
-423054
-422895
-422739
-422586
-422435
-422287
-422141
-421998
-421857
-421719
-421582
-421448
-421316
-421185
-421057
-420930
-420805
-420682
-420561
-420442
-420324
-420208
-420093
-419980
-419869
-419760
-419651
-419544
-419437
-419331
-419227
-419126
-419023
-418925
-418824
-418725
-418627
-418530
-418435
-418341
-418248
-418159
-418068
-417987
-417895
-417836
-417730
-417751
-417395
-454235
-452402
-452091
-451026
-450389
-449565
-448872
-448143
-447464
-446788
-446139
-445504
-444889
-444288
-443705
-443136
-442582
-442043
-441517
-441004
-440505
-440017
-439542
-439078
-438626
-438184
-437753
-437331
-436922
-436519
-436127
-435758
-435331
-434952
-434631
-434271
-433935
-433594
-433265
-432940
-432622
-432311
-432005
-431706
-431413
-431125
-430843
-430566
-430295
-430028
-429767
-429509
-429257
-429009
-428766
-428527
-428292
-428061
-427834
-427611
-427392
-427176
-426963
-426754
-426548
-426345
-426145
-425948
-425755
-425564
-425376
-425190
-425008
-424827
-424651
-424475
-424305
-424134
-423969
-423805
-423640
-423477
-423323
-423164
-423021
-422859
-422705
-422549
-422400
-422252
-422108
-421965
-421828
-421689
-421563
-421419
-421321
-421142
-421133
-420631
-469557
-467350
-466779
-465408
-464502
-463400
-462446
-461458
-460530
-459610
-458725
-457859
-457018
-456199
-455401
-454625
-453868
-453130
-452411
-451711
-451027
-450360
-449710
-449075
-448455
-447850
-447260
-446681
-446121
-445563
-445027
-444484
-443889
-443458
-442982
-442495
-442029
-441561
-441109
-440663
-440228
-439800
-439382
-438972
-438570
-438176
-437789
-437410
-437037
-436672
-436313
-435961
-435615
-435275
-434942
-434614
-434293
-433977
-433667
-433361
-433061
-432766
-432475
-432189
-431907
-431630
-431357
-431089
-430824
-430564
-430307
-430054
-429806
-429561
-429321
-429083
-428852
-428619
-428398
-428167
-427935
-427719
-427507
-427290
-427096
-426882
-426663
-426464
-426259
-426063
-425868
-425676
-425489
-425300
-425125
-424930
-424783
-424550
-424492
-423927
-484864
-482283
-481453
-479775
-478600
-477222
-476007
-474761
-473583
-472420
-471298
-470201
-469136
-468098
-467087
-466102
-465143
-464207
-463296
-462406
-461539
-460693
-459867
-459061
-458274
-457506
-456755
-456021
-455304
-454603
-453915
-453246
-452575
-451938
-451317
-450704
-450107
-449518
-448943
-448378
-447825
-447283
-446752
-446231
-445720
-445220
-444729
-444247
-443774
-443310
-442854
-442407
-441968
-441536
-441113
-440697
-440288
-439888
-439494
-439107
-438726
-438351
-437982
-437619
-437262
-436911
-436565
-436224
-435889
-435558
-435233
-434913
-434598
-434285
-433981
-433676
-433385
-433086
-432815
-432548
-432242
-431951
-431701
-431422
-431264
-430939
-430649
-430372
-430120
-429866
-429624
-429381
-429147
-428908
-428686
-428441
-428248
-427962
-427861
-427236
-500153
-497197
-496109
-494126
-492681
-491028
-489551
-488047
-486621
-485214
-483856
-482529
-481239
-479982
-478759
-477566
-476404
-475271
-474167
-473090
-472039
-471014
-470013
-469036
-468082
-467151
-466241
-465351
-464482
-463630
-462796
-461982
-461173
-460408
-459650
-458907
-458181
-457468
-456770
-456085
-455415
-454757
-454113
-453482
-452863
-452256
-451660
-451076
-450503
-449940
-449388
-448845
-448313
-447789
-447276
-446771
-446277
-445793
-445315
-444846
-444384
-443930
-443483
-443044
-442611
-442186
-441767
-441354
-440949
-440549
-440156
-439768
-439388
-439011
-438645
-438279
-437937
-437573
-437298
-436893
-436463
-436179
-435860
-435507
-435301
-434962
-434521
-434279
-433959
-433671
-433375
-433085
-432801
-432513
-432242
-431948
-431708
-431373
-431228
-430552
-515418
-512090
-510743
-508455
-506742
-504812
-503075
-501314
-499639
-497990
-496395
-494838
-493325
-491850
-490413
-489013
-487649
-486319
-485022
-483757
-482523
-481319
-480144
-478997
-477876
-476782
-475712
-474667
-473646
-472647
-471669
-470714
-469777
-468865
-467972
-467098
-466244
-465405
-464585
-463781
-462993
-462221
-461464
-460722
-459995
-459282
-458582
-457896
-457223
-456562
-455913
-455275
-454651
-454035
-453433
-452837
-452254
-451687
-451128
-450577
-450036
-449502
-448978
-448461
-447953
-447453
-446962
-446477
-446001
-445531
-445069
-444613
-444165
-443718
-443286
-442834
-442433
-441916
-441642
-440956
-440817
-440270
-439917
-439502
-439572
-438680
-438468
-438055
-437789
-437436
-437114
-436774
-436446
-436110
-435793
-435451
-435164
-434782
-434594
-433867
-530657
-526957
-525352
-522759
-520779
-518574
-516576
-514559
-512635
-510744
-508914
-507127
-505390
-503697
-502048
-500441
-498875
-497348
-495859
-494407
-492990
-491608
-490258
-488940
-487654
-486397
-485169
-483968
-482795
-481648
-480525
-479429
-478353
-477306
-476280
-475276
-474294
-473331
-472388
-471464
-470559
-469673
-468803
-467951
-467116
-466296
-465493
-464704
-463931
-463171
-462426
-461693
-460975
-460265
-459574
-458884
-458222
-457581
-456933
-456302
-455678
-455065
-454463
-453870
-453287
-452713
-452148
-451593
-451046
-450508
-449978
-449456
-448941
-448434
-447934
-447442
-446948
-446480
-445950
-445583
-445183
-444665
-444214
-443803
-443282
-442906
-442575
-442085
-441692
-441272
-440879
-440482
-440098
-439710
-439343
-438952
-438618
-438187
-437956
-437180
-545867
-541795
-539933
-537036
-534788
-532308
-530051
-527777
-525606
-523473
-521408
-519392
-517432
-515521
-513660
-511847
-510079
-508356
-506676
-505036
-503437
-501876
-500353
-498865
-497412
-495993
-494607
-493252
-491927
-490633
-489366
-488128
-486916
-485732
-484573
-483439
-482328
-481241
-480176
-479133
-478111
-477110
-476128
-475166
-474223
-473298
-472391
-471501
-470628
-469771
-468932
-468104
-467298
-466493
-465722
-464930
-464156
-463445
-462735
-462012
-461315
-460619
-459939
-459269
-458611
-457963
-457326
-456698
-456081
-455474
-454876
-454287
-453707
-453135
-452574
-452016
-451475
-450934
-450417
-449922
-449391
-448868
-448390
-447889
-447503
-446963
-446471
-445976
-445519
-445057
-444612
-444167
-443734
-443299
-442883
-442445
-442065
-441587
-441313
-440487
-561042
-556601
-554481
-551281
-548766
-546012
-543496
-540966
-538549
-536174
-533874
-531629
-529447
-527319
-525247
-523228
-521259
-519340
-517468
-515642
-513861
-512122
-510425
-508768
-507150
-505569
-504025
-502515
-501040
-499597
-498187
-496807
-495458
-494138
-492847
-491583
-490346
-489134
-487948
-486786
-485647
-484531
-483438
-482366
-481315
-480284
-479274
-478282
-477309
-476354
-475417
-474494
-473593
-472688
-471826
-470893
-470103
-469378
-468512
-467722
-466931
-466160
-465401
-464655
-463922
-463201
-462491
-461793
-461107
-460431
-459765
-459110
-458465
-457829
-457203
-456587
-455979
-455385
-454792
-454225
-453659
-453090
-452535
-451988
-451446
-450913
-450395
-449865
-449355
-448845
-448347
-447851
-447368
-446883
-446419
-445933
-445507
-444981
-444663
-443790
-576181
-571369
-568994
-565491
-562710
-559683
-556909
-554123
-551459
-548844
-546310
-543837
-541433
-539089
-536806
-534581
-532412
-530297
-528235
-526223
-524260
-522344
-520474
-518647
-516864
-515122
-513420
-511756
-510131
-508541
-506986
-505466
-503979
-502525
-501101
-499708
-498344
-497009
-495701
-494420
-493165
-491935
-490730
-489548
-488390
-487254
-486141
-485048
-483977
-482925
-481898
-480882
-479910
-478910
-478061
-476961
-476424
-475124
-474390
-473399
-472560
-471688
-470856
-470030
-469223
-468427
-467646
-466877
-466120
-465375
-464642
-463921
-463210
-462511
-461822
-461144
-460477
-459820
-459174
-458539
-457910
-457288
-456681
-456077
-455493
-454898
-454318
-453740
-453175
-452615
-452067
-451522
-450990
-450457
-449945
-449412
-448940
-448367
-448006
-447085
-591278
-586098
-583467
-579663
-576616
-573317
-570285
-567245
-564335
-561479
-558713
-556012
-553386
-550827
-548333
-545903
-543534
-541225
-538972
-536774
-534630
-532538
-530495
-528500
-526552
-524649
-522790
-520973
-519197
-517460
-515762
-514102
-512477
-510888
-509333
-507811
-506321
-504862
-503433
-502034
-500663
-499319
-498002
-496711
-495446
-494205
-492988
-491795
-490624
-489475
-488348
-487242
-486156
-485096
-484041
-483069
-481955
-480910
-480013
-479044
-478119
-477190
-476283
-475386
-474506
-473638
-472785
-471946
-471120
-470307
-469507
-468719
-467943
-467180
-466428
-465688
-464959
-464241
-463534
-462839
-462152
-461475
-460808
-460149
-459500
-458858
-458227
-457601
-456986
-456377
-455778
-455185
-454604
-454022
-453463
-452882
-452364
-451745
-451341
-450372
-606331
-600783
-597897
-593793
-590481
-586910
-583621
-580328
-577173
-574078
-571079
-568152
-565305
-562530
-559827
-557192
-554624
-552120
-549678
-547295
-544971
-542702
-540487
-538324
-536212
-534149
-532133
-530162
-528237
-526354
-524513
-522712
-520951
-519227
-517541
-515890
-514275
-512692
-511143
-509625
-508138
-506681
-505254
-503854
-502482
-501136
-499817
-498522
-497253
-496007
-494786
-493584
-492410
-491247
-490118
-488984
-487858
-486799
-485764
-484714
-483701
-482691
-481705
-480732
-479776
-478836
-477911
-477001
-476106
-475224
-474357
-473503
-472663
-471835
-471021
-470218
-469428
-468650
-467884
-467129
-466384
-465650
-464927
-464213
-463511
-462815
-462130
-461453
-460786
-460127
-459478
-458836
-458206
-457576
-456970
-456342
-455779
-455114
-454666
-453650
-621335
-615422
-612282
-607877
-604302
-600460
-596915
-593369
-589970
-586636
-583405
-580252
-577185
-574196
-571284
-568446
-565679
-562981
-560350
-557783
-555278
-552833
-550447
-548117
-545841
-543618
-541446
-539323
-537248
-535219
-533235
-531295
-529397
-527540
-525723
-523944
-522203
-520498
-518828
-517193
-515591
-514021
-512482
-510974
-509495
-508045
-506623
-505228
-503860
-502517
-501199
-499906
-498636
-497390
-496162
-494963
-493766
-492599
-491468
-490346
-489250
-488167
-487104
-486057
-485029
-484016
-483020
-482040
-481075
-480126
-479192
-478273
-477367
-476476
-475598
-474734
-473883
-473044
-472218
-471405
-470603
-469812
-469032
-468263
-467505
-466757
-466020
-465292
-464574
-463865
-463167
-462475
-461797
-461120
-460466
-459792
-459183
-458472
-457981
-456919
-636288
-630009
-626616
-621913
-618075
-613963
-610163
-606365
-602723
-599151
-595689
-592311
-589025
-585821
-582701
-579660
-576695
-573804
-570985
-568234
-565550
-562930
-560373
-557876
-555437
-553055
-550727
-548452
-546228
-544054
-541928
-539848
-537814
-535824
-533876
-531970
-530104
-528277
-526487
-524735
-523017
-521335
-519686
-518069
-516484
-514930
-513406
-511911
-510445
-509005
-507593
-506206
-504846
-503508
-502194
-500902
-499631
-498389
-497170
-495968
-494790
-493629
-492490
-491367
-490265
-489179
-488112
-487062
-486029
-485012
-484011
-483026
-482056
-481101
-480160
-479234
-478322
-477424
-476539
-475667
-474807
-473960
-473125
-472301
-471489
-470688
-469898
-469118
-468350
-467590
-466842
-466102
-465376
-464651
-463951
-463230
-462576
-461819
-461285
-460177
-651185
-644542
-640897
-635896
-631796
-627416
-623362
-619312
-615428
-611620
-607927
-604325
-600820
-597404
-594077
-590833
-587671
-584588
-581581
-578647
-575784
-572990
-570262
-567599
-564998
-562456
-559973
-557547
-555175
-552856
-550588
-548370
-546200
-544077
-542000
-539966
-537976
-536027
-534118
-532248
-530417
-528622
-526863
-525139
-523448
-521790
-520165
-518570
-517005
-515470
-513963
-512484
-511032
-509606
-508205
-506830
-505476
-504148
-502846
-501565
-500307
-499069
-497853
-496657
-495481
-494324
-493185
-492065
-490963
-489879
-488812
-487761
-486727
-485708
-484706
-483718
-482745
-481787
-480843
-479913
-478996
-478093
-477202
-476324
-475458
-474604
-473762
-472931
-472111
-471302
-470505
-469716
-468942
-468170
-467423
-466655
-465956
-465153
-464577
-463423
-666022
-659018
-655122
-649825
-645464
-640815
-636508
-632209
-628083
-624039
-620117
-616291
-612569
-608941
-605407
-601962
-598603
-595328
-592134
-589018
-585978
-583010
-580113
-577284
-574520
-571821
-569184
-566606
-564087
-561623
-559214
-556858
-554553
-552298
-550091
-547931
-545817
-543746
-541719
-539733
-537787
-535880
-534012
-532180
-530384
-528624
-526896
-525202
-523540
-521909
-520309
-518738
-517195
-515680
-514193
-512731
-511296
-509886
-508502
-507141
-505804
-504490
-503197
-501927
-500677
-499448
-498239
-497050
-495879
-494727
-493594
-492478
-491380
-490298
-489233
-488184
-487151
-486134
-485131
-484143
-483169
-482210
-481264
-480331
-479412
-478505
-477611
-476729
-475859
-475000
-474153
-473316
-472494
-471674
-470881
-470068
-469323
-468475
-467855
-466657
-680797
-673432
-669286
-663694
-659073
-654158
-649599
-645050
-640685
-636405
-632256
-628207
-624268
-620429
-616689
-613043
-609489
-606024
-602644
-599346
-596128
-592987
-589921
-586927
-584003
-581147
-578355
-575627
-572961
-570354
-567804
-565311
-562871
-560484
-558148
-555862
-553624
-551433
-549287
-547185
-545126
-543108
-541131
-539192
-537292
-535428
-533600
-531807
-530048
-528322
-526628
-524965
-523332
-521730
-520155
-518609
-517090
-515598
-514133
-512693
-511278
-509886
-508519
-507174
-505852
-504551
-503271
-502013
-500774
-499555
-498356
-497175
-496013
-494868
-493741
-492632
-491538
-490462
-489401
-488355
-487325
-486310
-485309
-484322
-483349
-482390
-481444
-480510
-479590
-478682
-477786
-476901
-476031
-475164
-474325
-473465
-472676
-471783
-471120
-469878
-695506
-687782
-683387
-677501
-672622
-667441
-662631
-657835
-653230
-648716
-644340
-640069
-635915
-631865
-627921
-624075
-620327
-616671
-613106
-609628
-606233
-602920
-599686
-596528
-593444
-590430
-587486
-584608
-581796
-579045
-576356
-573725
-571152
-568634
-566170
-563758
-561397
-559086
-556822
-554605
-552433
-550304
-548218
-546173
-544168
-542202
-540274
-538383
-536527
-534706
-532919
-531165
-529443
-527752
-526091
-524461
-522859
-521285
-519739
-518220
-516727
-515259
-513817
-512398
-511003
-509631
-508282
-506954
-505648
-504362
-503097
-501851
-500625
-499418
-498230
-497059
-495906
-494770
-493651
-492549
-491462
-490392
-489336
-488295
-487269
-486258
-485260
-484276
-483305
-482347
-481403
-480470
-479552
-478639
-477753
-476848
-476014
-475076
-474371
-473085
-710145
-702064
-697421
-691242
-686106
-680661
-675601
-670558
-665715
-660969
-656366
-651875
-647506
-643248
-639099
-635055
-631113
-627268
-623519
-619860
-616291
-612806
-609405
-606083
-602839
-599670
-596573
-593547
-590588
-587696
-584867
-582100
-579393
-576745
-574152
-571615
-569131
-566701
-564320
-561989
-559704
-557466
-555272
-553121
-551013
-548945
-546917
-544927
-542975
-541060
-539180
-537335
-535524
-533746
-532000
-530284
-528600
-526945
-525319
-523721
-522150
-520607
-519089
-517597
-516130
-514687
-513268
-511872
-510498
-509146
-507815
-506506
-505216
-503947
-502697
-501466
-500253
-499059
-497882
-496723
-495580
-494454
-493344
-492250
-491171
-490107
-489058
-488023
-487003
-485996
-485003
-484022
-483057
-482097
-481166
-480215
-479337
-478354
-477606
-476276
-724710
-716273
-711384
-704915
-699522
-693814
-688506
-683218
-678138
-673160
-668332
-663622
-659040
-654573
-650221
-645980
-641845
-637812
-633879
-630042
-626298
-622643
-619075
-615591
-612188
-608864
-605615
-602441
-599338
-596303
-593336
-590434
-587594
-584815
-582095
-579435
-576828
-574280
-571782
-569337
-566941
-564593
-562291
-560035
-557823
-555654
-553526
-551439
-549392
-547382
-545411
-543475
-541576
-539710
-537878
-536079
-534312
-532576
-530870
-529194
-527547
-525927
-524336
-522771
-521232
-519718
-518230
-516765
-515324
-513906
-512510
-511137
-509784
-508453
-507142
-505851
-504579
-503326
-502092
-500876
-499677
-498496
-497332
-496185
-495053
-493937
-492837
-491752
-490682
-489626
-488585
-487556
-486545
-485538
-484561
-483565
-482642
-481615
-480824
-479452
-739198
-730408
-725274
-718515
-712867
-706898
-701343
-695810
-690495
-685287
-680235
-675307
-670512
-665838
-661285
-656847
-652520
-648300
-644185
-640170
-636252
-632427
-628694
-625048
-621487
-618009
-614610
-611288
-608040
-604865
-601760
-598723
-595750
-592842
-589993
-587210
-584476
-581816
-579201
-576645
-574138
-571682
-569273
-566912
-564597
-562327
-560101
-557917
-555774
-553672
-551608
-549583
-547595
-545643
-543726
-541844
-539994
-538178
-536393
-534639
-532915
-531220
-529554
-527917
-526306
-524723
-523165
-521633
-520125
-518641
-517181
-515743
-514328
-512935
-511563
-510212
-508882
-507571
-506279
-505007
-503753
-502517
-501299
-500099
-498915
-497748
-496597
-495461
-494342
-493237
-492148
-491072
-490013
-488961
-487938
-486897
-485930
-484859
-484026
-482612
-753606
-744464
-739086
-732039
-726139
-719910
-714109
-708333
-702783
-697346
-692072
-686927
-681920
-677041
-672287
-667653
-663136
-658730
-654433
-650241
-646150
-642158
-638259
-634453
-630735
-627103
-623554
-620086
-616695
-613380
-610138
-606967
-603864
-600827
-597853
-594947
-592094
-589316
-586586
-583917
-581298
-578733
-576218
-573752
-571335
-568964
-566639
-564359
-562121
-559926
-557772
-555657
-553581
-551543
-549542
-547576
-545645
-543748
-541884
-540053
-538252
-536483
-534743
-533034
-531352
-529699
-528073
-526473
-524899
-523350
-521825
-520325
-518847
-517393
-515960
-514550
-513161
-511792
-510444
-509115
-507806
-506516
-505245
-503991
-502755
-501537
-500335
-499150
-497982
-496828
-495691
-494568
-493463
-492365
-491297
-490211
-489200
-488085
-487209
-485754
-767929
-758438
-752818
-745485
-739333
-732845
-726800
-720783
-715000
-709335
-703840
-698479
-693263
-688178
-683225
-678397
-673690
-669099
-664622
-660254
-655992
-651831
-647769
-643803
-639929
-636145
-632447
-628833
-625300
-621846
-618468
-615163
-611927
-608763
-605654
-602629
-599618
-596762
-593912
-591142
-588413
-585742
-583121
-580552
-578033
-575563
-573140
-570763
-568432
-566144
-563899
-561696
-559533
-557409
-555323
-553275
-551263
-549287
-547344
-545436
-543560
-541716
-539903
-538122
-536370
-534647
-532952
-531286
-529645
-528031
-526443
-524879
-523340
-521824
-520332
-518862
-517415
-515989
-514584
-513200
-511836
-510492
-509167
-507861
-506573
-505304
-504052
-502817
-501600
-500398
-499214
-498043
-496893
-495748
-494636
-493506
-492451
-491292
-490374
-488878
-782166
-772327
-766466
-758848
-752446
-745701
-739413
-733157
-727142
-721251
-715536
-709960
-704535
-699248
-694096
-689075
-684179
-679405
-674749
-670206
-665773
-661446
-657221
-653096
-649067
-645131
-641285
-637527
-633853
-630260
-626747
-623310
-619948
-616656
-613433
-610278
-607180
-604188
-601224
-598333
-595493
-592712
-589984
-587311
-584691
-582121
-579601
-577129
-574704
-572325
-569990
-567698
-565448
-563239
-561070
-558940
-556847
-554791
-552770
-550785
-548832
-546915
-545027
-543176
-541354
-539564
-537802
-536069
-534363
-532684
-531032
-529406
-527805
-526229
-524677
-523148
-521643
-520160
-518699
-517259
-515841
-514443
-513065
-511707
-510368
-509048
-507746
-506462
-505196
-503946
-502715
-501498
-500301
-499111
-497954
-496780
-495681
-494480
-493519
-491983
-796311
-786127
-780026
-772127
-765475
-758475
-751946
-745451
-739207
-733090
-727157
-721368
-715736
-710246
-704898
-699684
-694602
-689645
-684811
-680094
-675491
-670999
-666613
-662330
-658146
-654060
-650067
-646165
-642351
-638621
-634975
-631407
-627917
-624498
-621131
-617863
-614396
-611533
-608452
-605470
-602524
-599635
-596804
-594027
-591306
-588637
-586021
-583454
-580936
-578465
-576041
-573661
-571326
-569032
-566780
-564569
-562396
-560261
-558163
-556102
-554075
-552084
-550124
-548201
-546310
-544450
-542621
-540821
-539051
-537308
-535593
-533904
-532242
-530606
-528994
-527407
-525844
-524304
-522788
-521293
-519820
-518369
-516939
-515529
-514138
-512768
-511416
-510083
-508769
-507472
-506194
-504930
-503687
-502453
-501251
-500033
-498891
-497647
-496644
-495068
-810362
-799835
-793497
-785316
-778418
-771164
-764396
-757664
-751191
-744851
-738700
-732700
-726862
-721171
-715628
-710223
-704955
-699817
-694805
-689916
-685145
-680488
-675941
-671501
-667165
-662929
-658790
-654745
-650792
-646926
-643147
-639449
-635837
-632288
-628841
-625392
-622140
-618927
-615705
-612577
-609515
-606514
-603577
-600698
-597877
-595110
-592397
-589736
-587126
-584565
-582052
-579585
-577164
-574787
-572452
-570160
-567907
-565694
-563519
-561381
-559275
-557212
-555164
-553187
-551225
-549303
-547407
-545543
-543708
-541901
-540123
-538373
-536650
-534953
-533283
-531637
-530017
-528421
-526849
-525300
-523773
-522269
-520786
-519324
-517884
-516463
-515062
-513681
-512318
-510974
-509649
-508339
-507051
-505772
-504525
-503264
-502079
-500792
-499748
-498132
-824315
-813448
-806873
-798414
-791270
-783765
-776758
-769791
-763091
-756530
-750163
-743953
-737910
-732020
-726282
-720689
-715236
-709918
-704731
-699670
-694732
-689911
-685205
-680610
-676121
-671737
-667453
-663266
-659175
-655174
-651267
-647442
-643727
-640057
-636625
-633001
-628839
-626196
-623016
-619633
-616478
-613348
-610308
-607323
-604402
-601538
-598729
-595975
-593273
-590622
-588021
-585468
-582962
-580501
-578085
-575713
-573382
-571092
-568842
-566631
-564454
-562321
-560204
-558143
-556118
-554123
-552163
-550232
-548332
-546462
-544622
-542810
-541026
-539270
-537541
-535838
-534161
-532509
-530882
-529278
-527698
-526141
-524607
-523094
-521603
-520132
-518682
-517252
-515842
-514451
-513080
-511724
-510391
-509067
-507777
-506472
-505245
-503916
-502829
-501176
-838167
-826962
-820153
-811417
-804029
-796274
-789031
-781830
-774905
-768123
-761543
-755124
-748879
-742791
-736860
-731078
-725442
-719945
-714584
-709353
-704249
-699266
-694402
-689651
-685012
-680480
-676051
-671724
-667494
-663358
-659316
-655361
-651496
-647717
-644018
-640433
-636837
-633284
-629940
-626584
-623324
-620114
-616975
-613895
-610877
-607917
-605015
-602168
-599375
-596635
-593947
-591308
-588718
-586175
-583678
-581225
-578818
-576450
-574126
-571836
-569577
-567365
-565057
-563055
-560964
-558911
-556888
-554890
-552926
-550992
-549089
-547216
-545372
-543556
-541769
-540009
-538275
-536567
-534885
-533228
-531595
-529985
-528399
-526836
-525294
-523775
-522276
-520798
-519341
-517903
-516485
-515085
-513707
-512339
-511005
-509657
-508387
-507016
-505888
-504196
-851915
-840373
-833332
-824321
-816692
-808689
-801211
-793779
-786630
-779630
-772837
-766211
-759764
-753480
-747357
-741389
-735571
-729897
-724363
-718963
-713694
-708550
-703529
-698625
-693836
-689157
-684585
-680117
-675751
-671481
-667306
-663222
-659226
-655315
-651462
-647725
-643786
-640457
-636937
-633517
-630146
-626839
-623598
-620419
-617304
-614249
-611253
-608314
-605431
-602603
-599827
-597103
-594429
-591804
-589227
-586696
-584210
-581768
-579371
-577017
-574699
-572452
-570155
-567913
-565799
-563657
-561573
-559508
-557482
-555485
-553521
-551587
-549683
-547809
-545964
-544147
-542358
-540595
-538858
-537148
-535462
-533801
-532163
-530549
-528958
-527389
-525843
-524317
-522813
-521328
-519865
-518419
-516997
-515585
-514208
-512817
-511505
-510093
-508923
-507194
-865554
-853680
-846407
-837124
-829256
-821006
-813296
-805634
-798263
-791046
-784042
-777211
-770564
-764084
-757772
-751619
-745620
-739770
-734064
-728497
-723065
-717761
-712584
-707528
-702589
-697765
-693052
-688445
-683942
-679539
-675234
-671024
-666903
-662873
-658920
-655066
-651254
-647562
-643942
-640393
-636917
-633508
-630167
-626891
-623679
-620530
-617441
-614412
-611440
-608523
-605662
-602853
-600097
-597390
-594734
-592125
-589568
-587049
-584604
-582156
-579906
-577409
-574859
-572826
-570741
-568403
-566261
-564104
-562013
-559947
-557921
-555925
-553962
-552029
-550127
-548253
-546408
-544591
-542800
-541036
-539298
-537585
-535897
-534233
-532593
-530975
-529381
-527808
-526257
-524727
-523218
-521727
-520261
-518806
-517385
-515952
-514598
-513145
-511934
-510168
-879083
-866878
-859377
-849823
-841717
-833223
-825282
-817392
-809801
-802368
-795156
-788121
-781275
-774603
-768102
-761765
-755588
-749563
-743688
-737954
-732363
-726898
-721566
-716358
-711272
-706303
-701449
-696704
-692066
-687532
-683097
-678759
-674512
-670359
-666281
-662308
-658367
-654597
-650859
-647215
-643633
-640124
-636684
-633311
-630003
-626760
-623579
-620459
-617399
-614395
-611448
-608555
-605716
-602928
-600191
-597503
-594863
-592267
-589721
-587205
-584754
-582285
-579942
-577655
-575326
-573063
-570834
-568641
-566486
-564365
-562279
-560225
-558204
-556214
-554255
-552325
-550425
-548553
-546710
-544893
-543103
-541339
-539601
-537887
-536198
-534532
-532890
-531270
-529673
-528097
-526543
-525008
-523498
-522000
-520537
-519062
-517666
-516172
-514920
-513118
-892496
-879965
-872236
-862415
-854072
-845336
-837166
-829050
-821241
-813595
-806176
-798939
-791896
-785032
-778344
-771825
-765470
-759272
-753228
-747329
-741577
-735956
-730471
-725113
-719880
-714769
-709775
-704894
-700122
-695457
-690895
-686432
-682065
-677794
-673608
-669518
-665502
-661585
-657743
-653983
-650298
-646686
-643147
-639676
-636274
-632938
-629666
-626456
-623307
-620217
-617185
-614210
-611289
-608421
-605605
-602839
-600123
-597452
-594831
-592248
-589704
-587206
-584627
-582358
-579997
-577682
-575397
-573145
-570930
-568748
-566602
-564489
-562410
-560363
-558347
-556363
-554408
-552482
-550586
-548717
-546876
-545061
-543272
-541510
-539772
-538058
-536369
-534703
-533060
-531438
-529840
-528261
-526707
-525166
-523661
-522144
-520707
-519173
-517880
-516042
-905793
-892936
-884982
-874895
-866319
-857343
-848946
-840606
-832580
-824723
-817098
-809661
-802423
-795369
-788496
-781797
-775265
-768896
-762687
-756625
-750727
-744937
-739300
-733791
-728413
-723160
-718027
-713011
-708107
-703312
-698623
-694037
-689548
-685158
-680856
-676652
-672525
-668502
-664553
-660690
-656902
-653191
-649553
-645986
-642490
-639061
-635698
-632400
-629163
-625988
-622872
-619814
-616811
-613864
-610969
-608126
-605334
-602589
-599893
-597241
-594636
-592073
-589554
-587096
-584662
-582275
-579922
-577609
-575332
-573091
-570886
-568715
-566579
-564475
-562404
-560364
-558355
-556376
-554427
-552507
-550614
-548750
-546912
-545100
-543314
-541553
-539817
-538105
-536416
-534750
-533108
-531485
-529888
-528304
-526757
-525199
-523721
-522147
-520813
-518941
-918968
-905789
-897613
-887262
-878454
-869240
-860619
-852056
-843817
-835750
-827922
-820286
-812855
-805612
-798556
-791677
-784971
-778431
-772054
-765828
-759767
-753834
-748042
-742390
-736867
-731474
-726204
-721054
-716019
-711097
-706283
-701574
-696967
-692459
-688046
-683728
-679498
-675361
-671307
-667337
-663448
-659637
-655901
-652239
-648649
-645129
-641676
-638289
-634967
-631706
-628507
-625367
-622284
-619258
-616285
-613366
-610499
-607681
-604912
-602191
-599512
-596885
-594285
-591765
-589268
-586819
-584406
-582032
-579695
-577395
-575131
-572903
-570709
-568549
-566423
-564329
-562266
-560235
-558234
-556262
-554319
-552405
-550518
-548657
-546824
-545016
-543233
-541475
-539742
-538031
-536345
-534679
-533039
-531413
-529824
-528226
-526706
-525093
-523719
-521812
-932019
-918522
-910124
-899513
-890475
-881026
-872182
-863399
-854947
-846673
-838643
-830810
-823188
-815758
-808520
-801464
-794583
-787877
-781336
-774956
-768811
-762648
-756705
-750905
-745240
-739710
-734303
-729021
-723857
-718808
-713869
-709039
-704313
-699689
-695163
-690734
-686396
-682152
-677993
-673921
-669931
-666021
-662189
-658433
-654750
-651139
-647597
-644123
-640715
-637371
-634089
-630867
-627705
-624600
-621552
-618557
-615616
-612726
-609886
-607096
-604353
-601658
-599007
-596406
-593845
-591328
-588851
-586415
-584017
-581658
-579336
-577050
-574800
-572585
-570404
-568256
-566140
-564057
-562004
-559981
-557989
-556025
-554089
-552181
-550300
-548446
-546617
-544814
-543036
-541281
-539551
-537842
-536160
-534493
-532863
-531223
-529663
-528011
-526596
-524657
-944942
-931130
-922513
-911644
-902379
-892696
-883631
-874631
-865969
-857489
-849259
-841232
-833420
-825806
-818387
-811155
-804103
-797227
-790517
-783964
-777599
-771383
-765275
-759340
-753533
-747865
-742325
-736911
-731618
-726443
-721382
-716432
-711589
-706850
-702212
-697673
-693228
-688877
-684615
-680441
-676351
-672344