/*--------------------------------*- C++ -*----------------------------------*\
| =========                 |                                                 |
| \\      /  F ield         | foam-extend: Open Source CFD                    |
|  \\    /   O peration     | Version:     4.1                                |
|   \\  /    A nd           | Web:         http://www.foam-extend.org         |
|    \\/     M anipulation  |                                                 |
\*---------------------------------------------------------------------------*/
FoamFile
{
    version     2.0;
    format      ascii;
    class       volScalarField;
    location    "9";
    object      sigmaEq;
}
// * * * * * * * * * * * * * * * * * * * * * * * * * * * * * * * * * * * * * //

dimensions      [1 -1 -2 0 0 0 0];

internalField   nonuniform List<scalar> 
100000
(
4.35321e+06
4.4132e+06
4.44469e+06
4.473e+06
4.49861e+06
4.52148e+06
4.54188e+06
4.55971e+06
4.57506e+06
4.58817e+06
4.59924e+06
4.60816e+06
4.61503e+06
4.05697e+06
3.46308e+06
3.42353e+06
3.3807e+06
3.34101e+06
3.30441e+06
3.60255e+06
4.07885e+06
4.57454e+06
5.42958e+06
5.24661e+06
5.07669e+06
4.91904e+06
4.77297e+06
4.63616e+06
4.50077e+06
4.24478e+06
4.01195e+06
3.80089e+06
3.61197e+06
3.44266e+06
3.29063e+06
3.15639e+06
3.03797e+06
2.93459e+06
2.84505e+06
2.76841e+06
2.70367e+06
2.64996e+06
2.60647e+06
2.57244e+06
2.5472e+06
2.53014e+06
2.52072e+06
2.51844e+06
2.52285e+06
2.53354e+06
2.55016e+06
2.57237e+06
2.59988e+06
2.63247e+06
2.6775e+06
2.72205e+06
2.76846e+06
2.81903e+06
2.87351e+06
2.9317e+06
2.99345e+06
3.05853e+06
3.12678e+06
3.19801e+06
3.27206e+06
3.34876e+06
3.42794e+06
3.50943e+06
3.59309e+06
3.67876e+06
3.72236e+06
3.74807e+06
3.77445e+06
3.80147e+06
3.82916e+06
3.8582e+06
3.88778e+06
3.91693e+06
3.94652e+06
3.97653e+06
4.00692e+06
4.03765e+06
4.06872e+06
4.10011e+06
4.13181e+06
4.16381e+06
4.19608e+06
4.22862e+06
4.26145e+06
4.29456e+06
4.32797e+06
4.32493e+06
4.31113e+06
4.29798e+06
4.2856e+06
4.27414e+06
4.26355e+06
4.25473e+06
4.24496e+06
4.23903e+06
4.36326e+06
4.41796e+06
4.45036e+06
4.4793e+06
4.50573e+06
4.52907e+06
4.55005e+06
4.56842e+06
4.58418e+06
4.59774e+06
4.6091e+06
4.61837e+06
4.17917e+06
3.50151e+06
3.45556e+06
3.41156e+06
3.37099e+06
3.5763e+06
4.08594e+06
4.63429e+06
5.30358e+06
5.6117e+06
5.60336e+06
5.59382e+06
5.58316e+06
5.57147e+06
5.55883e+06
5.5453e+06
5.45952e+06
5.34016e+06
5.22974e+06
5.12772e+06
5.11396e+06
4.94709e+06
4.86755e+06
4.79465e+06
4.72798e+06
4.66723e+06
4.61203e+06
4.56205e+06
4.517e+06
4.47661e+06
4.44058e+06
4.40868e+06
4.38067e+06
4.35634e+06
4.33546e+06
4.31784e+06
4.30331e+06
4.29168e+06
4.28277e+06
4.27644e+06
4.27253e+06
4.27229e+06
4.28436e+06
4.2872e+06
4.29179e+06
4.29818e+06
4.30628e+06
4.31596e+06
4.32719e+06
4.33983e+06
4.3538e+06
4.36904e+06
4.38546e+06
4.40299e+06
4.42155e+06
4.4411e+06
4.46156e+06
4.48289e+06
4.505e+06
4.52786e+06
4.55144e+06
4.57567e+06
4.60051e+06
4.60548e+06
4.58681e+06
4.56833e+06
4.55006e+06
4.53198e+06
4.5141e+06
4.49642e+06
4.47896e+06
4.46173e+06
4.44475e+06
4.42804e+06
4.41157e+06
4.39536e+06
4.37944e+06
4.3638e+06
4.34847e+06
4.33344e+06
4.31871e+06
4.30423e+06
4.28998e+06
4.27578e+06
4.26158e+06
4.24703e+06
4.23199e+06
4.21755e+06
4.37303e+06
4.42347e+06
4.45661e+06
4.48631e+06
4.5132e+06
4.53706e+06
4.55834e+06
4.57717e+06
4.59339e+06
4.60721e+06
4.61878e+06
4.34963e+06
3.56251e+06
3.48599e+06
3.44098e+06
3.42546e+06
4.00125e+06
4.56344e+06
5.29325e+06
5.63621e+06
5.63081e+06
5.62399e+06
5.61587e+06
5.60652e+06
5.59604e+06
5.58452e+06
5.57202e+06
5.55864e+06
5.54442e+06
5.52953e+06
5.51375e+06
5.49792e+06
5.48021e+06
5.46199e+06
5.44451e+06
5.42596e+06
5.40718e+06
5.38793e+06
5.36834e+06
5.34843e+06
5.32825e+06
5.30784e+06
5.2872e+06
5.26639e+06
5.24541e+06
5.2243e+06
5.20306e+06
5.18174e+06
5.16035e+06
5.13889e+06
5.11738e+06
5.09588e+06
5.07437e+06
5.06029e+06
5.04416e+06
5.02279e+06
5.00148e+06
4.98019e+06
4.959e+06
4.93789e+06
4.91686e+06
4.89593e+06
4.87509e+06
4.85438e+06
4.83378e+06
4.8133e+06
4.79294e+06
4.77273e+06
4.75266e+06
4.73273e+06
4.71294e+06
4.69331e+06
4.67385e+06
4.65455e+06
4.63541e+06
4.61645e+06
4.59768e+06
4.57908e+06
4.56069e+06
4.54248e+06
4.52445e+06
4.50661e+06
4.48897e+06
4.47153e+06
4.45431e+06
4.43736e+06
4.42061e+06
4.40406e+06
4.38772e+06
4.37158e+06
4.35564e+06
4.33988e+06
4.32425e+06
4.30868e+06
4.29312e+06
4.27741e+06
4.26155e+06
4.24516e+06
4.22869e+06
4.21131e+06
4.38318e+06
4.42981e+06
4.46333e+06
4.49366e+06
4.52093e+06
4.54534e+06
4.56682e+06
4.58597e+06
4.60248e+06
4.6166e+06
4.57668e+06
3.65598e+06
3.51543e+06
3.46846e+06
3.85956e+06
4.36617e+06
5.11847e+06
5.65277e+06
5.65082e+06
5.64719e+06
5.64203e+06
5.63544e+06
5.6275e+06
5.61833e+06
5.608e+06
5.59661e+06
5.58422e+06
5.57093e+06
5.55677e+06
5.54186e+06
5.52618e+06
5.50989e+06
5.4929e+06
5.47524e+06
5.45726e+06
5.43875e+06
5.41988e+06
5.4006e+06
5.38098e+06
5.36106e+06
5.34085e+06
5.3204e+06
5.29973e+06
5.27888e+06
5.25786e+06
5.2367e+06
5.21543e+06
5.19408e+06
5.17263e+06
5.15113e+06
5.12958e+06
5.10802e+06
5.08662e+06
5.07704e+06
5.05579e+06
5.03434e+06
5.01295e+06
4.9916e+06
4.97033e+06
4.94915e+06
4.92803e+06
4.90703e+06
4.88612e+06
4.86531e+06
4.84463e+06
4.82407e+06
4.80363e+06
4.78333e+06
4.76317e+06
4.74314e+06
4.72327e+06
4.70355e+06
4.68398e+06
4.66458e+06
4.64534e+06
4.62627e+06
4.60738e+06
4.58864e+06
4.57009e+06
4.55174e+06
4.53357e+06
4.51554e+06
4.49769e+06
4.47998e+06
4.46253e+06
4.44534e+06
4.42825e+06
4.4113e+06
4.39451e+06
4.37788e+06
4.36136e+06
4.34494e+06
4.32855e+06
4.31214e+06
4.29566e+06
4.27902e+06
4.26225e+06
4.24512e+06
4.22814e+06
4.21066e+06
5.19976e+06
5.11692e+06
5.03236e+06
4.95575e+06
4.88468e+06
4.81961e+06
4.75935e+06
4.70427e+06
4.6536e+06
4.62795e+06
3.79582e+06
3.54239e+06
3.50654e+06
4.08038e+06
4.79154e+06
5.66036e+06
5.66237e+06
5.66248e+06
5.66079e+06
5.6574e+06
5.65244e+06
5.64604e+06
5.63827e+06
5.62924e+06
5.61903e+06
5.60774e+06
5.59545e+06
5.58223e+06
5.56813e+06
5.55326e+06
5.53761e+06
5.52128e+06
5.50438e+06
5.4869e+06
5.46885e+06
5.45035e+06
5.43145e+06
5.41215e+06
5.39252e+06
5.37257e+06
5.35235e+06
5.33186e+06
5.31116e+06
5.29027e+06
5.26921e+06
5.24802e+06
5.22671e+06
5.2053e+06
5.1838e+06
5.16226e+06
5.14066e+06
5.11904e+06
5.10231e+06
5.08777e+06
5.06629e+06
5.04477e+06
5.02329e+06
5.00189e+06
4.98054e+06
4.96136e+06
4.93238e+06
4.90198e+06
4.87191e+06
4.84217e+06
4.81275e+06
4.78367e+06
4.75493e+06
4.72651e+06
4.69844e+06
4.67072e+06
4.64334e+06
4.61837e+06
4.60025e+06
4.58232e+06
4.56458e+06
4.54702e+06
4.52965e+06
4.51241e+06
4.49544e+06
4.47853e+06
4.4619e+06
4.44539e+06
4.4291e+06
4.41285e+06
4.39667e+06
4.38084e+06
4.3652e+06
4.34955e+06
4.3341e+06
4.31871e+06
4.30338e+06
4.28808e+06
4.27278e+06
4.25743e+06
4.24202e+06
4.22654e+06
4.21099e+06
4.19532e+06
4.17989e+06
4.1676e+06
6.82967e+06
6.62559e+06
6.42306e+06
6.2444e+06
6.08219e+06
5.93796e+06
5.80854e+06
5.69383e+06
5.59189e+06
4.45801e+06
3.73181e+06
3.96342e+06
4.51363e+06
5.39229e+06
5.80371e+06
5.7922e+06
5.77853e+06
5.76283e+06
5.74529e+06
5.72605e+06
5.70604e+06
5.68839e+06
5.67012e+06
5.65127e+06
5.63188e+06
5.61202e+06
5.59172e+06
5.57106e+06
5.55006e+06
5.52875e+06
5.50717e+06
5.48535e+06
5.46336e+06
5.44117e+06
5.41883e+06
5.39637e+06
5.37383e+06
5.35122e+06
5.32858e+06
5.30591e+06
5.28322e+06
5.26053e+06
5.23786e+06
5.21523e+06
5.19264e+06
5.17014e+06
5.14768e+06
5.12532e+06
5.10304e+06
5.08088e+06
5.05882e+06
5.037e+06
5.028e+06
5.00774e+06
4.98639e+06
4.96516e+06
4.94405e+06
4.92314e+06
4.90245e+06
4.88151e+06
4.86061e+06
4.84027e+06
4.82018e+06
4.80026e+06
4.7805e+06
4.76091e+06
4.74151e+06
4.72229e+06
4.70323e+06
4.68437e+06
4.66579e+06
4.64769e+06
4.62971e+06
4.61159e+06
4.59366e+06
4.5759e+06
4.55841e+06
4.54093e+06
4.52402e+06
4.50656e+06
4.48925e+06
4.47293e+06
4.45632e+06
4.44022e+06
4.42371e+06
4.40665e+06
4.39046e+06
4.37473e+06
4.35889e+06
4.3432e+06
4.32748e+06
4.3118e+06
4.29611e+06
4.28041e+06
4.26468e+06
4.24894e+06
4.23323e+06
4.21753e+06
4.2021e+06
4.18979e+06
9.02051e+06
8.9803e+06
8.92735e+06
8.88338e+06
8.84359e+06
8.81007e+06
8.78048e+06
8.16859e+06
6.77821e+06
5.76118e+06
5.43054e+06
5.0393e+06
5.84344e+06
5.83379e+06
5.82286e+06
5.81077e+06
5.79757e+06
5.78335e+06
5.7682e+06
5.75217e+06
5.7353e+06
5.71774e+06
5.69954e+06
5.68076e+06
5.66143e+06
5.64161e+06
5.62134e+06
5.60068e+06
5.57967e+06
5.55835e+06
5.53674e+06
5.51489e+06
5.49284e+06
5.47062e+06
5.44821e+06
5.42569e+06
5.40307e+06
5.38037e+06
5.35763e+06
5.33485e+06
5.31205e+06
5.28927e+06
5.2665e+06
5.24377e+06
5.22107e+06
5.19845e+06
5.17588e+06
5.1534e+06
5.131e+06
5.1087e+06
5.08653e+06
5.07292e+06
5.06124e+06
5.03965e+06
5.01811e+06
4.99673e+06
4.97546e+06
4.95437e+06
4.93344e+06
4.91058e+06
4.89775e+06
4.88661e+06
4.87542e+06
4.86417e+06
4.85288e+06
4.84156e+06
4.83019e+06
4.8188e+06
4.80739e+06
4.79595e+06
4.78451e+06
4.77099e+06
4.75091e+06
4.73099e+06
4.71122e+06
4.69161e+06
4.67213e+06
4.65286e+06
4.63365e+06
4.60982e+06
4.59577e+06
4.57712e+06
4.5585e+06
4.54019e+06
4.52605e+06
4.49869e+06
4.48544e+06
4.46747e+06
4.4495e+06
4.4317e+06
4.41394e+06
4.39625e+06
4.37861e+06
4.36102e+06
4.34347e+06
4.32596e+06
4.30857e+06
4.29118e+06
4.27411e+06
4.25672e+06
1.04009e+07
1.0515e+07
1.0612e+07
1.06986e+07
1.07747e+07
1.08421e+07
9.60827e+06
8.28181e+06
7.1234e+06
6.92727e+06
6.92624e+06
6.43424e+06
5.70458e+06
5.70507e+06
5.71025e+06
5.71435e+06
5.71739e+06
5.71945e+06
5.72056e+06
5.72077e+06
5.71935e+06
5.71335e+06
5.70592e+06
5.69717e+06
5.6872e+06
5.6761e+06
5.66394e+06
5.65079e+06
5.63674e+06
5.62186e+06
5.60623e+06
5.58989e+06
5.57291e+06
5.55533e+06
5.53721e+06
5.51859e+06
5.49952e+06
5.48005e+06
5.4602e+06
5.44003e+06
5.41957e+06
5.39886e+06
5.37791e+06
5.35678e+06
5.33546e+06
5.31399e+06
5.29239e+06
5.27068e+06
5.2489e+06
5.22702e+06
5.20864e+06
5.20187e+06
5.18209e+06
5.16015e+06
5.13822e+06
5.11632e+06
5.09445e+06
5.07261e+06
5.05087e+06
5.02919e+06
5.00164e+06
4.97442e+06
4.94934e+06
4.92632e+06
4.90527e+06
4.88613e+06
4.86881e+06
4.85324e+06
4.83834e+06
4.81774e+06
4.79727e+06
4.77694e+06
4.75675e+06
4.7367e+06
4.71678e+06
4.69702e+06
4.6773e+06
4.6579e+06
4.63825e+06
4.61948e+06
4.60084e+06
4.58152e+06
4.56277e+06
4.54382e+06
4.52553e+06
4.50799e+06
4.48977e+06
4.47133e+06
4.45318e+06
4.43505e+06
4.41707e+06
4.39917e+06
4.38135e+06
4.36361e+06
4.34596e+06
4.32839e+06
4.31097e+06
4.2936e+06
4.27656e+06
4.25921e+06
1.04086e+07
1.05204e+07
1.06182e+07
1.07058e+07
1.06099e+07
8.96812e+06
7.6938e+06
6.88724e+06
6.89128e+06
6.89433e+06
6.89703e+06
6.76716e+06
5.74141e+06
5.71779e+06
5.72536e+06
5.73057e+06
5.73358e+06
5.73454e+06
5.73358e+06
5.73085e+06
5.72645e+06
5.72052e+06
5.71315e+06
5.70445e+06
5.6945e+06
5.68342e+06
5.67128e+06
5.65816e+06
5.64413e+06
5.62927e+06
5.61364e+06
5.56984e+06
5.43895e+06
5.31489e+06
5.19736e+06
5.08606e+06
4.98072e+06
4.88107e+06
4.78688e+06
4.6979e+06
4.61391e+06
4.5347e+06
4.46007e+06
4.3898e+06
4.32371e+06
4.26161e+06
4.20336e+06
4.14874e+06
4.09767e+06
4.04709e+06
4.00302e+06
3.95666e+06
3.90751e+06
3.86247e+06
3.82136e+06
3.78396e+06
3.75018e+06
3.71974e+06
3.69256e+06
3.66811e+06
3.64665e+06
3.62859e+06
3.61339e+06
3.60082e+06
3.59074e+06
3.58307e+06
3.5777e+06
3.57376e+06
3.57144e+06
3.57149e+06
3.56691e+06
3.56412e+06
3.56232e+06
3.56141e+06
3.56171e+06
3.56319e+06
3.56578e+06
3.56944e+06
3.57419e+06
3.57987e+06
3.58657e+06
3.59401e+06
3.60244e+06
3.61152e+06
3.6214e+06
3.63224e+06
3.6437e+06
3.65562e+06
3.66823e+06
3.68133e+06
3.69499e+06
3.70912e+06
3.72375e+06
3.73883e+06
3.75438e+06
3.77035e+06
3.78687e+06
3.8036e+06
3.82124e+06
3.85976e+06
1.04164e+07
1.05277e+07
1.06261e+07
1.00959e+07
8.4255e+06
7.15928e+06
6.83616e+06
6.84505e+06
6.85345e+06
6.86096e+06
6.86734e+06
6.85136e+06
6.14316e+06
5.72353e+06
5.73117e+06
5.73651e+06
5.73961e+06
5.74066e+06
5.73978e+06
5.73711e+06
5.73276e+06
5.7106e+06
5.49921e+06
5.29898e+06
5.1094e+06
4.92997e+06
4.76025e+06
4.59978e+06
4.44814e+06
4.30493e+06
4.16907e+06
4.04066e+06
3.92188e+06
3.80811e+06
3.70106e+06
3.56272e+06
3.40656e+06
3.26118e+06
3.12608e+06
3.00079e+06
2.88484e+06
2.77776e+06
2.67913e+06
2.58847e+06
2.50538e+06
2.4294e+06
2.34533e+06
2.07501e+06
1.84335e+06
1.66739e+06
1.58111e+06
1.50702e+06
1.45054e+06
1.40968e+06
1.38209e+06
1.36532e+06
1.35705e+06
1.35531e+06
1.35623e+06
1.35852e+06
1.36075e+06
1.36272e+06
1.36429e+06
1.36532e+06
1.36573e+06
1.36554e+06
1.36461e+06
1.36322e+06
1.36164e+06
1.35759e+06
1.35369e+06
1.35203e+06
1.35132e+06
1.35231e+06
1.3555e+06
1.36128e+06
1.37009e+06
1.3824e+06
1.39858e+06
1.41896e+06
1.44381e+06
1.47339e+06
1.50782e+06
1.54718e+06
1.59135e+06
1.64033e+06
1.69415e+06
1.75254e+06
1.81535e+06
1.88234e+06
1.95333e+06
2.02771e+06
2.10133e+06
2.17808e+06
2.25779e+06
2.3403e+06
2.42567e+06
2.51297e+06
2.60413e+06
2.66409e+06
1.04244e+07
1.0537e+07
9.67718e+06
7.97299e+06
6.75832e+06
6.77337e+06
6.78869e+06
6.80277e+06
6.81569e+06
6.82737e+06
6.83748e+06
6.8464e+06
6.63207e+06
5.73654e+06
5.73648e+06
5.59404e+06
5.31024e+06
5.04205e+06
4.78872e+06
4.54962e+06
4.32381e+06
4.11238e+06
3.9213e+06
3.7317e+06
3.54509e+06
3.32443e+06
3.11833e+06
2.92629e+06
2.71665e+06
2.50394e+06
2.30999e+06
2.23654e+06
1.83369e+06
1.59198e+06
1.42316e+06
1.33796e+06
1.32794e+06
1.38185e+06
1.48589e+06
1.62162e+06
1.77462e+06
1.51552e+06
1.35723e+06
1.34864e+06
1.46955e+06
1.67494e+06
1.95299e+06
2.2705e+06
2.53942e+06
2.85986e+06
3.19112e+06
3.52233e+06
3.83948e+06
4.1413e+06
4.2189e+06
4.0759e+06
5.12262e+06
3.8056e+06
3.67858e+06
3.55606e+06
3.43827e+06
3.32498e+06
3.21606e+06
3.11143e+06
3.01097e+06
2.91453e+06
2.82209e+06
2.73856e+06
2.6582e+06
2.58068e+06
2.51267e+06
2.44765e+06
2.38614e+06
2.32805e+06
2.27292e+06
2.22064e+06
2.17111e+06
2.1242e+06
2.07983e+06
2.0379e+06
1.9983e+06
1.95949e+06
1.91639e+06
1.87584e+06
1.83774e+06
1.80205e+06
1.76866e+06
1.73753e+06
1.70858e+06
1.68171e+06
1.65663e+06
1.63087e+06
1.607e+06
1.58743e+06
1.5695e+06
1.55324e+06
1.53839e+06
1.52489e+06
1.5133e+06
1.35841e+06
1.04322e+07
9.35714e+06
7.6039e+06
6.67761e+06
6.70016e+06
6.72077e+06
6.74135e+06
6.76042e+06
6.77786e+06
6.79362e+06
6.72595e+06
6.3669e+06
5.96876e+06
4.81979e+06
4.25596e+06
3.9779e+06
3.71812e+06
3.46045e+06
3.14295e+06
2.84855e+06
2.57727e+06
2.58859e+06
2.76525e+06
2.50063e+06
2.00288e+06
2.04896e+06
2.91705e+06
3.81583e+06
4.69644e+06
5.54086e+06
6.34155e+06
7.13807e+06
7.90885e+06
7.41296e+06
6.94486e+06
6.53512e+06
6.16919e+06
5.83929e+06
5.52408e+06
5.21968e+06
4.89389e+06
4.71412e+06
4.45444e+06
4.19395e+06
3.94315e+06
3.70195e+06
3.48639e+06
3.54001e+06
3.66459e+06
3.75111e+06
3.71278e+06
3.67078e+06
3.62523e+06
3.51418e+06
3.40054e+06
3.34959e+06
3.29636e+06
3.2279e+06
3.14895e+06
3.06909e+06
2.98805e+06
2.90614e+06
2.82348e+06
2.74024e+06
2.65661e+06
2.57277e+06
2.48894e+06
2.40535e+06
2.31228e+06
2.21909e+06
2.12753e+06
2.03796e+06
1.95079e+06
1.86649e+06
1.78555e+06
1.70855e+06
1.63616e+06
1.5691e+06
1.50816e+06
1.45414e+06
1.40761e+06
1.36831e+06
1.33854e+06
1.31986e+06
1.31146e+06
1.31346e+06
1.32577e+06
1.34797e+06
1.37947e+06
1.41949e+06
1.46719e+06
1.5214e+06
1.57831e+06
1.63974e+06
1.70505e+06
1.77359e+06
1.84038e+06
1.90713e+06
1.97424e+06
2.06855e+06
9.15047e+06
7.30606e+06
6.58631e+06
6.61349e+06
6.64255e+06
6.66887e+06
6.69428e+06
6.30157e+06
5.88624e+06
5.522e+06
5.29526e+06
5.07213e+06
4.7446e+06
4.06172e+06
2.92104e+06
2.81059e+06
4.55253e+06
6.36416e+06
7.60453e+06
8.91232e+06
1.02611e+07
1.11243e+07
1.03799e+07
9.7234e+06
9.02109e+06
8.47041e+06
8.09876e+06
7.59184e+06
7.13985e+06
6.7275e+06
6.33077e+06
5.85703e+06
5.70472e+06
5.70518e+06
5.62607e+06
5.5414e+06
5.44914e+06
5.35331e+06
5.25826e+06
5.1608e+06
5.06045e+06
4.31287e+06
3.57575e+06
2.90053e+06
2.30382e+06
1.81952e+06
1.50997e+06
1.38504e+06
1.4647e+06
1.74463e+06
2.11565e+06
2.52141e+06
2.93448e+06
3.3419e+06
3.53388e+06
3.50748e+06
3.49671e+06
3.48682e+06
3.47747e+06
3.46834e+06
3.45969e+06
3.45139e+06
3.44341e+06
3.43578e+06
3.42847e+06
3.42146e+06
3.41481e+06
3.41313e+06
3.41133e+06
3.40936e+06
3.40727e+06
3.40508e+06
3.4028e+06
3.40043e+06
3.39798e+06
3.39541e+06
3.39275e+06
3.38999e+06
3.38713e+06
3.38418e+06
3.38111e+06
3.37604e+06
3.36224e+06
3.34851e+06
3.33486e+06
3.32128e+06
3.30778e+06
3.29438e+06
3.28108e+06
3.26786e+06
3.25475e+06
3.24173e+06
3.22442e+06
3.20228e+06
3.18053e+06
3.1598e+06
3.13984e+06
3.1198e+06
3.09999e+06
3.07898e+06
6.90046e+06
6.47434e+06
6.51649e+06
6.55021e+06
6.09811e+06
5.61476e+06
5.3368e+06
5.13787e+06
4.76214e+06
4.59479e+06
4.87944e+06
7.44376e+06
1.16948e+07
1.42553e+07
1.39393e+07
1.28264e+07
1.21457e+07
1.12067e+07
1.04023e+07
9.75947e+06
9.02375e+06
7.877e+06
7.1614e+06
6.80471e+06
6.76757e+06
6.12034e+06
4.59415e+06
3.21743e+06
2.11675e+06
1.68855e+06
2.21112e+06
3.17485e+06
4.2381e+06
4.18932e+06
4.13438e+06
4.08144e+06
4.03042e+06
4.00314e+06
3.97967e+06
3.95657e+06
3.93401e+06
3.91189e+06
3.89005e+06
3.86875e+06
3.84775e+06
3.77628e+06
3.66205e+06
3.59622e+06
3.59669e+06
3.59696e+06
3.59701e+06
3.59685e+06
3.59651e+06
3.59598e+06
3.59522e+06
3.59517e+06
3.59486e+06
3.59342e+06
3.5919e+06
3.59022e+06
3.5884e+06
3.58646e+06
3.5844e+06
3.58219e+06
3.57988e+06
3.57746e+06
3.57494e+06
3.57232e+06
3.55844e+06
3.54313e+06
3.52796e+06
3.51294e+06
3.49804e+06
3.48329e+06
3.46865e+06
3.45414e+06
3.43974e+06
3.42544e+06
3.41124e+06
3.39714e+06
3.38314e+06
3.36923e+06
3.35541e+06
3.34168e+06
3.32803e+06
3.31446e+06
3.30097e+06
3.28757e+06
3.27298e+06
3.24975e+06
3.22691e+06
3.20481e+06
3.18362e+06
3.16249e+06
3.14122e+06
3.12038e+06
3.10548e+06
3.0941e+06
3.08259e+06
3.07073e+06
5.26928e+06
6.15469e+06
5.59614e+06
5.2958e+06
5.11161e+06
4.72267e+06
4.89348e+06
6.58367e+06
1.15508e+07
1.15305e+07
1.11676e+07
1.174e+07
1.15801e+07
1.06008e+07
1.03597e+07
9.47251e+06
6.78277e+06
4.26178e+06
2.63917e+06
2.08998e+06
3.26798e+06
4.60514e+06
4.51832e+06
4.43505e+06
4.36554e+06
4.33281e+06
4.30103e+06
4.27011e+06
4.24005e+06
4.21076e+06
4.18218e+06
4.15431e+06
4.1271e+06
4.10053e+06
4.07456e+06
4.04911e+06
4.02885e+06
4.02745e+06
4.02603e+06
4.02446e+06
4.02264e+06
4.02086e+06
4.0188e+06
4.01663e+06
3.95402e+06
3.83787e+06
3.77784e+06
3.77736e+06
3.77664e+06
3.7757e+06
3.77461e+06
3.7733e+06
3.77179e+06
3.77014e+06
3.7683e+06
3.76626e+06
3.74903e+06
3.73163e+06
3.7144e+06
3.69739e+06
3.68056e+06
3.66388e+06
3.64738e+06
3.63106e+06
3.6149e+06
3.59891e+06
3.58309e+06
3.5674e+06
3.55186e+06
3.53648e+06
3.52125e+06
3.50616e+06
3.49122e+06
3.4764e+06
3.46171e+06
3.44713e+06
3.43267e+06
3.41833e+06
3.40411e+06
3.38998e+06
3.37595e+06
3.36202e+06
3.3482e+06
3.33448e+06
3.32085e+06
3.30012e+06
3.2762e+06
3.25273e+06
3.23027e+06
3.20821e+06
3.18582e+06
3.16381e+06
3.14658e+06
3.13466e+06
3.12286e+06
3.1112e+06
3.09961e+06
3.08828e+06
3.07682e+06
3.06503e+06
1.87111e+06
3.28463e+06
3.91063e+06
4.18775e+06
5.58836e+06
7.66658e+06
7.81223e+06
8.44693e+06
7.78133e+06
7.52205e+06
6.75393e+06
4.21526e+06
2.95807e+06
4.6637e+06
5.04556e+06
4.8135e+06
4.68033e+06
4.63621e+06
4.59375e+06
4.55284e+06
4.51339e+06
4.4753e+06
4.43848e+06
4.40282e+06
4.36831e+06
4.33487e+06
4.30243e+06
4.27094e+06
4.24028e+06
4.22612e+06
4.22483e+06
4.22348e+06
4.22201e+06
4.22036e+06
4.21863e+06
4.21776e+06
4.22124e+06
4.22315e+06
4.22024e+06
4.21736e+06
4.21419e+06
4.21098e+06
4.20772e+06
4.14206e+06
4.01776e+06
3.95048e+06
3.93039e+06
3.91057e+06
3.89102e+06
3.87169e+06
3.85258e+06
3.83376e+06
3.81515e+06
3.79675e+06
3.77862e+06
3.76068e+06
3.74293e+06
3.72544e+06
3.70814e+06
3.69101e+06
3.67408e+06
3.65733e+06
3.64074e+06
3.62434e+06
3.60813e+06
3.59208e+06
3.57619e+06
3.56045e+06
3.54487e+06
3.52942e+06
3.51412e+06
3.49898e+06
3.48399e+06
3.46912e+06
3.45438e+06
3.43976e+06
3.42527e+06
3.41089e+06
3.39662e+06
3.38246e+06
3.36841e+06
3.35325e+06
3.32825e+06
3.30362e+06
3.27974e+06
3.25655e+06
3.23334e+06
3.21024e+06
3.18882e+06
3.17648e+06
3.16425e+06
3.15214e+06
3.14014e+06
3.12826e+06
3.11652e+06
3.10491e+06
3.0934e+06
3.08213e+06
3.07073e+06
3.05902e+06
3.0889e+06
3.23637e+06
2.67774e+06
4.45128e+06
4.40395e+06
4.1119e+06
4.07379e+06
3.29715e+06
5.82723e+06
5.81642e+06
5.44526e+06
5.16237e+06
4.95778e+06
4.83767e+06
4.7864e+06
4.73725e+06
4.69006e+06
4.64471e+06
4.60113e+06
4.55923e+06
4.51887e+06
4.47991e+06
4.44225e+06
4.42858e+06
4.42669e+06
4.42493e+06
4.42319e+06
4.42148e+06
4.42432e+06
4.43048e+06
4.43149e+06
4.42856e+06
4.42561e+06
4.42243e+06
4.41922e+06
4.4158e+06
4.40761e+06
4.38076e+06
4.35426e+06
4.32837e+06
4.30302e+06
4.278e+06
4.19525e+06
4.04665e+06
3.96579e+06
3.94526e+06
3.92502e+06
3.90502e+06
3.88527e+06
3.86583e+06
3.8466e+06
3.8276e+06
3.80889e+06
3.79039e+06
3.7721e+06
3.75408e+06
3.73627e+06
3.71867e+06
3.70128e+06
3.68409e+06
3.66706e+06
3.65022e+06
3.63357e+06
3.6171e+06
3.60079e+06
3.58467e+06
3.56872e+06
3.5529e+06
3.53727e+06
3.52178e+06
3.50646e+06
3.49129e+06
3.47624e+06
3.46134e+06
3.44658e+06
3.43195e+06
3.41745e+06
3.40306e+06
3.38358e+06
3.35776e+06
3.33239e+06
3.30784e+06
3.28377e+06
3.25957e+06
3.23575e+06
3.21945e+06
3.20679e+06
3.19425e+06
3.18182e+06
3.16952e+06
3.15734e+06
3.14529e+06
3.13335e+06
3.12154e+06
3.10985e+06
3.09828e+06
3.08682e+06
3.0756e+06
3.06427e+06
3.05263e+06
2.83866e+06
3.848e+06
3.20563e+06
2.07418e+06
3.99171e+06
5.7161e+06
6.16149e+06
5.91193e+06
5.5748e+06
5.25874e+06
5.03896e+06
4.96324e+06
4.90557e+06
4.85054e+06
4.7979e+06
4.74746e+06
4.69908e+06
4.65266e+06
4.6385e+06
4.63516e+06
4.63213e+06
4.62936e+06
4.63471e+06
4.64353e+06
4.64391e+06
4.64042e+06
4.63697e+06
4.63356e+06
4.63012e+06
4.61074e+06
4.57903e+06
4.54796e+06
4.51771e+06
4.48804e+06
4.45897e+06
4.43058e+06
4.40259e+06
4.37532e+06
4.3486e+06
4.32229e+06
4.29659e+06
4.22082e+06
4.06741e+06
3.98117e+06
3.96016e+06
3.93944e+06
3.919e+06
3.89887e+06
3.87897e+06
3.85933e+06
3.84e+06
3.82088e+06
3.80201e+06
3.78342e+06
3.76505e+06
3.74689e+06
3.729e+06
3.71133e+06
3.69383e+06
3.67655e+06
3.65947e+06
3.64257e+06
3.62586e+06
3.60934e+06
3.59299e+06
3.5768e+06
3.56077e+06
3.54491e+06
3.52923e+06
3.51369e+06
3.49832e+06
3.4831e+06
3.46803e+06
3.45311e+06
3.43832e+06
3.4155e+06
3.38879e+06
3.36263e+06
3.33716e+06
3.31204e+06
3.28706e+06
3.2637e+06
3.2506e+06
3.23762e+06
3.22475e+06
3.21201e+06
3.19939e+06
3.18689e+06
3.1745e+06
3.16223e+06
3.1501e+06
3.13809e+06
3.12621e+06
3.11446e+06
3.10283e+06
3.09133e+06
3.07992e+06
3.06874e+06
3.05745e+06
3.04588e+06
3.30589e+06
2.78547e+06
4.7014e+06
6.47278e+06
6.37244e+06
6.15509e+06
5.78422e+06
5.42594e+06
5.1739e+06
5.1055e+06
5.0403e+06
4.97836e+06
4.91908e+06
4.86259e+06
4.85547e+06
4.84976e+06
4.84476e+06
4.85247e+06
4.8637e+06
4.86248e+06
4.85752e+06
4.85285e+06
4.84837e+06
4.82101e+06
4.78299e+06
4.74612e+06
4.71025e+06
4.67537e+06
4.64142e+06
4.60828e+06
4.57604e+06
4.54448e+06
4.51367e+06
4.48363e+06
4.45403e+06
4.4252e+06
4.39697e+06
4.36923e+06
4.34218e+06
4.31564e+06
4.2508e+06
4.09236e+06
3.99668e+06
3.97513e+06
3.9539e+06
3.93302e+06
3.91241e+06
3.89209e+06
3.87207e+06
3.85229e+06
3.83278e+06
3.81356e+06
3.79457e+06
3.77584e+06
3.7574e+06
3.73917e+06
3.72116e+06
3.70338e+06
3.68583e+06
3.66847e+06
3.6513e+06
3.63434e+06
3.61757e+06
3.60097e+06
3.58455e+06
3.56833e+06
3.55227e+06
3.5364e+06
3.52068e+06
3.50512e+06
3.48973e+06
3.47449e+06
3.4495e+06
3.4218e+06
3.39463e+06
3.36809e+06
3.34189e+06
3.316e+06
3.29569e+06
3.28224e+06
3.26891e+06
3.25571e+06
3.24264e+06
3.2297e+06
3.21687e+06
3.20416e+06
3.19158e+06
3.17912e+06
3.16679e+06
3.15458e+06
3.14249e+06
3.13053e+06
3.1187e+06
3.10699e+06
3.09542e+06
3.08398e+06
3.07264e+06
3.06153e+06
3.0503e+06
3.0388e+06
4.0762e+06
6.72605e+06
6.6143e+06
6.4682e+06
6.08384e+06
5.67884e+06
5.36287e+06
5.2671e+06
5.19314e+06
5.12284e+06
5.08591e+06
5.07603e+06
5.06756e+06
5.08102e+06
5.09405e+06
5.08632e+06
5.07916e+06
5.07265e+06
5.0358e+06
4.99018e+06
4.94606e+06
4.90338e+06
4.86201e+06
4.822e+06
4.78322e+06
4.74564e+06
4.70911e+06
4.67351e+06
4.63893e+06
4.6052e+06
4.57237e+06
4.54041e+06
4.50903e+06
4.4785e+06
4.44856e+06
4.41919e+06
4.39062e+06
4.36262e+06
4.3351e+06
4.28554e+06
4.12169e+06
4.01232e+06
3.99022e+06
3.96851e+06
3.94708e+06
3.92599e+06
3.90525e+06
3.88476e+06
3.86456e+06
3.84467e+06
3.82503e+06
3.80565e+06
3.78658e+06
3.76775e+06
3.74916e+06
3.73085e+06
3.71277e+06
3.6949e+06
3.67727e+06
3.65986e+06
3.64265e+06
3.62562e+06
3.60877e+06
3.59211e+06
3.57564e+06
3.55936e+06
3.54325e+06
3.52732e+06
3.51156e+06
3.48572e+06
3.45688e+06
3.4285e+06
3.40078e+06
3.37354e+06
3.34671e+06
3.32844e+06
3.31461e+06
3.3009e+06
3.28732e+06
3.27386e+06
3.26054e+06
3.24735e+06
3.2343e+06
3.22138e+06
3.20859e+06
3.19593e+06
3.18339e+06
3.17097e+06
3.15869e+06
3.14653e+06
3.1345e+06
3.12259e+06
3.11082e+06
3.09917e+06
3.08765e+06
3.07626e+06
3.06497e+06
3.05391e+06
3.04275e+06
3.03132e+06
5.85651e+06
6.76337e+06
6.4877e+06
6.02951e+06
5.61885e+06
5.45132e+06
5.36694e+06
5.32151e+06
5.30664e+06
5.3088e+06
5.32335e+06
5.32325e+06
5.31229e+06
5.30262e+06
5.2464e+06
5.19199e+06
5.13968e+06
5.08938e+06
5.04092e+06
4.99425e+06
4.94912e+06
4.9055e+06
4.86323e+06
4.82236e+06
4.78281e+06
4.74447e+06
4.70726e+06
4.67101e+06
4.63577e+06
4.60155e+06
4.56808e+06
4.53562e+06
4.50385e+06
4.47272e+06
4.44244e+06
4.41273e+06
4.38362e+06
4.3553e+06
4.32381e+06
4.15557e+06
4.02822e+06
4.00555e+06
3.98321e+06
3.96126e+06
3.93968e+06
3.9184e+06
3.89747e+06
3.87686e+06
3.8565e+06
3.83644e+06
3.8167e+06
3.79723e+06
3.77801e+06
3.75909e+06
3.74043e+06
3.72199e+06
3.7038e+06
3.68586e+06
3.66816e+06
3.65067e+06
3.63339e+06
3.61631e+06
3.59942e+06
3.58275e+06
3.56625e+06
3.54995e+06
3.52485e+06
3.49473e+06
3.46497e+06
3.43586e+06
3.40742e+06
3.37949e+06
3.36191e+06
3.34762e+06
3.33347e+06
3.31949e+06
3.30565e+06
3.29197e+06
3.27842e+06
3.26501e+06
3.25174e+06
3.23859e+06
3.22557e+06
3.21267e+06
3.19992e+06
3.18729e+06
3.1748e+06
3.16243e+06
3.1502e+06
3.1381e+06
3.12612e+06
3.11428e+06
3.10256e+06
3.09097e+06
3.07951e+06
3.06818e+06
3.05694e+06
3.04593e+06
3.03481e+06
3.02346e+06
5.88785e+06
6.48852e+06
6.004e+06
5.66194e+06
5.57327e+06
5.55135e+06
5.55081e+06
5.56615e+06
5.56355e+06
5.54826e+06
5.50407e+06
5.43766e+06
5.37429e+06
5.31377e+06
5.25571e+06
5.19993e+06
5.14632e+06
5.09486e+06
5.0453e+06
4.99757e+06
4.95148e+06
4.90696e+06
4.86387e+06
4.82214e+06
4.7818e+06
4.74268e+06
4.70475e+06
4.66794e+06
4.63202e+06
4.59727e+06
4.5633e+06
4.53015e+06
4.49801e+06
4.46646e+06
4.43562e+06
4.40559e+06
4.37614e+06
4.34734e+06
4.1945e+06
4.04468e+06
4.02107e+06
3.99816e+06
3.97565e+06
3.95346e+06
3.93168e+06
3.91027e+06
3.88914e+06
3.86835e+06
3.84789e+06
3.82771e+06
3.80781e+06
3.78824e+06
3.76894e+06
3.74989e+06
3.73112e+06
3.71261e+06
3.69435e+06
3.67634e+06
3.65857e+06
3.641e+06
3.62365e+06
3.6065e+06
3.58956e+06
3.56708e+06
3.53555e+06
3.50431e+06
3.47366e+06
3.44388e+06
3.41473e+06
3.39633e+06
3.38159e+06
3.367e+06
3.35258e+06
3.33831e+06
3.32418e+06
3.3102e+06
3.29636e+06
3.28266e+06
3.26911e+06
3.25571e+06
3.24246e+06
3.22936e+06
3.21639e+06
3.20355e+06
3.19084e+06
3.17826e+06
3.1658e+06
3.15349e+06
3.14131e+06
3.12926e+06
3.11735e+06
3.10557e+06
3.09391e+06
3.08238e+06
3.07097e+06
3.0597e+06
3.04852e+06
3.03757e+06
3.02651e+06
3.01523e+06
5.48686e+06
6.00588e+06
5.81717e+06
5.79337e+06
5.80832e+06
5.81955e+06
5.79759e+06
5.7435e+06
5.6648e+06
5.58992e+06
5.51865e+06
5.45067e+06
5.38568e+06
5.32362e+06
5.26411e+06
5.20702e+06
5.15221e+06
5.0996e+06
5.04897e+06
5.00019e+06
4.95316e+06
4.90773e+06
4.86383e+06
4.8213e+06
4.78019e+06
4.74038e+06
4.70165e+06
4.66426e+06
4.62777e+06
4.59229e+06
4.5579e+06
4.52423e+06
4.49147e+06
4.45958e+06
4.42834e+06
4.3978e+06
4.36804e+06
4.2385e+06
4.06644e+06
4.03697e+06
4.0134e+06
3.99021e+06
3.96747e+06
3.94513e+06
3.92314e+06
3.90153e+06
3.88029e+06
3.85933e+06
3.8387e+06
3.81841e+06
3.79843e+06
3.77873e+06
3.75932e+06
3.74018e+06
3.72131e+06
3.7027e+06
3.68437e+06
3.66629e+06
3.64845e+06
3.63084e+06
3.61321e+06
3.58005e+06
3.54727e+06
3.51484e+06
3.48343e+06
3.45289e+06
3.43186e+06
3.41657e+06
3.40146e+06
3.38652e+06
3.37175e+06
3.35715e+06
3.34273e+06
3.32847e+06
3.31437e+06
3.30043e+06
3.28664e+06
3.27297e+06
3.25946e+06
3.24607e+06
3.23284e+06
3.21975e+06
3.20681e+06
3.19402e+06
3.18135e+06
3.16883e+06
3.15643e+06
3.14417e+06
3.13204e+06
3.12004e+06
3.10818e+06
3.09645e+06
3.08486e+06
3.07338e+06
3.06204e+06
3.05082e+06
3.0397e+06
3.0288e+06
3.01781e+06
3.00661e+06
5.15781e+06
6.0482e+06
6.06577e+06
6.06674e+06
6.03105e+06
5.93688e+06
5.84745e+06
5.76274e+06
5.68209e+06
5.60548e+06
5.53237e+06
5.46274e+06
5.39627e+06
5.33277e+06
5.27193e+06
5.21359e+06
5.15758e+06
5.10378e+06
5.05205e+06
5.00223e+06
4.9542e+06
4.9078e+06
4.86304e+06
4.81979e+06
4.77788e+06
4.73744e+06
4.69803e+06
4.65984e+06
4.62287e+06
4.58677e+06
4.55175e+06
4.51771e+06
4.48447e+06
4.45203e+06
4.42045e+06
4.38952e+06
4.2878e+06
4.10943e+06
4.0533e+06
4.02897e+06
4.00516e+06
3.98178e+06
3.95877e+06
3.93621e+06
3.91407e+06
3.89227e+06
3.87084e+06
3.84976e+06
3.82902e+06
3.8086e+06
3.78851e+06
3.7687e+06
3.74919e+06
3.72997e+06
3.71102e+06
3.69234e+06
3.67392e+06
3.65577e+06
3.6287e+06
3.59443e+06
3.55994e+06
3.52645e+06
3.4944e+06
3.46869e+06
3.45282e+06
3.43715e+06
3.42168e+06
3.40638e+06
3.39127e+06
3.37632e+06
3.36155e+06
3.34696e+06
3.33252e+06
3.31825e+06
3.30414e+06
3.2902e+06
3.27642e+06
3.2628e+06
3.24933e+06
3.23601e+06
3.22283e+06
3.20978e+06
3.19687e+06
3.1841e+06
3.17147e+06
3.159e+06
3.14666e+06
3.13446e+06
3.12239e+06
3.11046e+06
3.09865e+06
3.08697e+06
3.07543e+06
3.06402e+06
3.05273e+06
3.04157e+06
3.0305e+06
3.01966e+06
3.00873e+06
2.9976e+06
5.37431e+06
6.32232e+06
6.26578e+06
6.15772e+06
6.05575e+06
5.95929e+06
5.8679e+06
5.78116e+06
5.69859e+06
5.62011e+06
5.54538e+06
5.47427e+06
5.40631e+06
5.34132e+06
5.27909e+06
5.21943e+06
5.16218e+06
5.10721e+06
5.05445e+06
5.00362e+06
4.95462e+06
4.90727e+06
4.86156e+06
4.81758e+06
4.7749e+06
4.73367e+06
4.69377e+06
4.65486e+06
4.61721e+06
4.58066e+06
4.54507e+06
4.51047e+06
4.47686e+06
4.44399e+06
4.41192e+06
4.34311e+06
4.15769e+06
4.06999e+06
4.04504e+06
4.02048e+06
3.99636e+06
3.97273e+06
3.94957e+06
3.9268e+06
3.90444e+06
3.88249e+06
3.8609e+06
3.83967e+06
3.8188e+06
3.79827e+06
3.77805e+06
3.75815e+06