/*--------------------------------*- C++ -*----------------------------------*\
| =========                 |                                                 |
| \\      /  F ield         | foam-extend: Open Source CFD                    |
|  \\    /   O peration     | Version:     4.1                                |
|   \\  /    A nd           | Web:         http://www.foam-extend.org         |
|    \\/     M anipulation  |                                                 |
\*---------------------------------------------------------------------------*/
FoamFile
{
    version     2.0;
    format      ascii;
    class       volScalarField;
    location    "9";
    object      sigmaEq;
}
// * * * * * * * * * * * * * * * * * * * * * * * * * * * * * * * * * * * * * //

dimensions      [1 -1 -2 0 0 0 0];

internalField   nonuniform List<scalar> 
100000
(
4.35938e+06
4.41832e+06
4.44995e+06
4.47831e+06
4.50382e+06
4.52682e+06
4.54725e+06
4.56509e+06
4.58043e+06
4.59358e+06
4.60459e+06
4.61354e+06
4.62041e+06
4.28822e+06
3.57806e+06
3.43261e+06
3.39057e+06
3.3517e+06
3.31571e+06
3.28242e+06
3.78832e+06
4.24046e+06
5.08418e+06
5.20868e+06
5.03878e+06
4.88118e+06
4.73519e+06
4.59808e+06
4.43007e+06
4.17383e+06
3.94162e+06
3.73124e+06
3.54306e+06
3.37452e+06
3.22333e+06
3.08995e+06
2.97241e+06
2.86992e+06
2.78126e+06
2.70547e+06
2.64155e+06
2.58863e+06
2.54587e+06
2.51307e+06
2.49811e+06
2.48788e+06
2.48205e+06
2.48033e+06
2.48247e+06
2.48823e+06
2.49739e+06
2.51579e+06
2.54351e+06
2.57625e+06
2.61376e+06
2.65581e+06
2.70216e+06
2.75265e+06
2.80704e+06
2.86515e+06
2.93462e+06
3.00154e+06
3.06997e+06
3.14138e+06
3.21562e+06
3.29253e+06
3.37193e+06
3.45366e+06
3.53758e+06
3.62351e+06
3.69256e+06
3.7185e+06
3.74511e+06
3.77238e+06
3.80024e+06
3.82886e+06
3.85898e+06
3.88881e+06
3.91864e+06
3.94889e+06
3.97952e+06
4.01049e+06
4.0418e+06
4.07344e+06
4.10538e+06
4.13763e+06
4.17014e+06
4.20293e+06
4.23599e+06
4.26934e+06
4.30299e+06
4.32677e+06
4.31297e+06
4.29981e+06
4.28743e+06
4.27597e+06
4.26538e+06
4.25655e+06
4.24678e+06
4.24085e+06
4.36948e+06
4.42331e+06
4.45579e+06
4.48479e+06
4.51115e+06
4.5346e+06
4.5555e+06
4.57397e+06
4.58968e+06
4.60325e+06
4.61457e+06
4.62386e+06
4.42672e+06
3.6319e+06
3.46404e+06
3.42097e+06
3.38105e+06
3.34416e+06
3.8193e+06
4.27012e+06
4.84986e+06
5.50271e+06
5.60818e+06
5.59863e+06
5.58795e+06
5.57626e+06
5.56359e+06
5.55004e+06
5.42165e+06
5.3024e+06
5.1921e+06
5.09021e+06
5.08393e+06
4.9099e+06
4.83052e+06
4.75781e+06
4.69133e+06
4.63077e+06
4.57578e+06
4.52601e+06
4.48118e+06
4.44101e+06
4.40522e+06
4.37366e+06
4.34601e+06
4.32182e+06
4.30109e+06
4.28361e+06
4.26923e+06
4.25775e+06
4.24908e+06
4.24312e+06
4.23954e+06
4.23819e+06
4.23896e+06
4.2418e+06
4.24653e+06
4.25308e+06
4.26132e+06
4.27314e+06
4.29417e+06
4.30719e+06
4.32143e+06
4.33692e+06
4.35359e+06
4.37138e+06
4.3902e+06
4.41001e+06
4.43074e+06
4.45232e+06
4.4747e+06
4.49783e+06
4.52166e+06
4.54614e+06
4.57125e+06
4.59691e+06
4.58877e+06
4.57028e+06
4.55199e+06
4.53391e+06
4.51602e+06
4.49833e+06
4.48087e+06
4.46363e+06
4.44664e+06
4.42992e+06
4.41344e+06
4.39723e+06
4.3813e+06
4.36565e+06
4.35031e+06
4.33527e+06
4.32054e+06
4.30606e+06
4.29179e+06
4.27759e+06
4.26336e+06
4.2488e+06
4.23376e+06
4.21931e+06
4.37951e+06
4.42908e+06
4.46222e+06
4.49202e+06
4.51887e+06
4.54276e+06
4.56393e+06
4.58282e+06
4.59902e+06
4.61282e+06
4.62438e+06
4.61654e+06
3.71518e+06
3.49363e+06
3.44953e+06
3.40864e+06
3.7212e+06
4.21649e+06
4.84083e+06
5.5682e+06
5.63568e+06
5.62885e+06
5.62071e+06
5.61134e+06
5.60085e+06
5.58931e+06
5.57679e+06
5.5634e+06
5.54915e+06
5.53424e+06
5.51844e+06
5.50259e+06
5.48485e+06
5.4666e+06
5.4491e+06
5.43052e+06
5.41173e+06
5.39245e+06
5.37285e+06
5.3529e+06
5.33271e+06
5.31226e+06
5.2916e+06
5.27014e+06
5.23816e+06
5.20985e+06
5.18504e+06
5.16354e+06
5.14515e+06
5.12969e+06
5.11701e+06
5.10009e+06
5.07854e+06
5.05702e+06
5.0355e+06
5.01403e+06
4.9926e+06
4.97122e+06
4.94997e+06
4.93601e+06
4.91898e+06
4.89804e+06
4.87719e+06
4.85647e+06
4.83586e+06
4.81536e+06
4.795e+06
4.77478e+06
4.75469e+06
4.73475e+06
4.71495e+06
4.69531e+06
4.67585e+06
4.65654e+06
4.63739e+06
4.61843e+06
4.59965e+06
4.58105e+06
4.56264e+06
4.54442e+06
4.52639e+06
4.50853e+06
4.49089e+06
4.47344e+06
4.45621e+06
4.43926e+06
4.4225e+06
4.40593e+06
4.38959e+06
4.37344e+06
4.35749e+06
4.34172e+06
4.32608e+06
4.31051e+06
4.29495e+06
4.27925e+06
4.26339e+06
4.24698e+06
4.23049e+06
4.21309e+06
4.38974e+06
4.43572e+06
4.46914e+06
4.49953e+06
4.5268e+06
4.5512e+06
4.57263e+06
4.59172e+06
4.60821e+06
4.62227e+06
4.63498e+06
3.83678e+06
3.5223e+06
3.47634e+06
3.49488e+06
4.06458e+06
4.69023e+06
5.48034e+06
5.65573e+06
5.6521e+06
5.64692e+06
5.64032e+06
5.63236e+06
5.62317e+06
5.61283e+06
5.60141e+06
5.58901e+06
5.57569e+06
5.56151e+06
5.54658e+06
5.53087e+06
5.51456e+06
5.49754e+06
5.47986e+06
5.46185e+06
5.44333e+06
5.42444e+06
5.40514e+06
5.3855e+06
5.36555e+06
5.34533e+06
5.32484e+06
5.30415e+06
5.28327e+06
5.26223e+06
5.24105e+06
5.21976e+06
5.19838e+06
5.17691e+06
5.15538e+06
5.13381e+06
5.11224e+06
5.09063e+06
5.06905e+06
5.04749e+06
5.02595e+06
5.00446e+06
4.98301e+06
4.96187e+06
4.95109e+06
4.93017e+06
4.90914e+06
4.88823e+06
4.86742e+06
4.84672e+06
4.82615e+06
4.8057e+06
4.7854e+06
4.76523e+06
4.74518e+06
4.72531e+06
4.70557e+06
4.686e+06
4.66659e+06
4.64734e+06
4.62825e+06
4.60936e+06
4.59061e+06
4.57205e+06
4.55369e+06
4.53552e+06
4.51747e+06
4.49962e+06
4.4819e+06
4.46445e+06
4.44725e+06
4.43015e+06
4.41319e+06
4.39639e+06
4.37975e+06
4.36323e+06
4.3468e+06
4.33039e+06
4.31396e+06
4.29747e+06
4.28082e+06
4.26405e+06
4.24692e+06
4.22994e+06
4.21246e+06
5.23046e+06
5.14797e+06
5.06393e+06
4.98789e+06
4.9174e+06
4.8528e+06
4.79294e+06
4.73817e+06
4.68784e+06
4.6415e+06
4.00972e+06
3.42051e+06
3.50149e+06
3.86671e+06
4.41057e+06
5.21859e+06
5.66732e+06
5.66743e+06
5.66571e+06
5.66231e+06
5.65734e+06
5.65092e+06
5.64313e+06
5.63409e+06
5.62387e+06
5.61256e+06
5.60024e+06
5.58699e+06
5.57288e+06
5.55798e+06
5.54231e+06
5.52596e+06
5.50905e+06
5.49154e+06
5.47347e+06
5.45495e+06
5.43603e+06
5.41671e+06
5.39706e+06
5.37709e+06
5.35684e+06
5.33632e+06
5.3156e+06
5.29468e+06
5.27359e+06
5.25237e+06
5.23104e+06
5.2096e+06
5.18808e+06
5.16652e+06
5.14489e+06
5.12326e+06
5.10161e+06
5.07996e+06
5.05836e+06
5.03675e+06
5.0152e+06
4.9937e+06
4.98389e+06
4.96903e+06
4.93828e+06
4.90782e+06
4.87768e+06
4.84788e+06
4.8184e+06
4.78927e+06
4.76046e+06
4.73199e+06
4.70387e+06
4.67609e+06
4.64866e+06
4.62963e+06
4.61141e+06
4.59338e+06
4.57554e+06
4.55787e+06
4.54041e+06
4.52307e+06
4.506e+06
4.48899e+06
4.47227e+06
4.45566e+06
4.43927e+06
4.42292e+06
4.40666e+06
4.39073e+06
4.37499e+06
4.35925e+06
4.3437e+06
4.32822e+06
4.31281e+06
4.29743e+06
4.28204e+06
4.26662e+06
4.25112e+06
4.23553e+06
4.21988e+06
4.2041e+06
4.18858e+06
4.17922e+06
6.88947e+06
6.68638e+06
6.48517e+06
6.3077e+06
6.14658e+06
6.00344e+06
5.87491e+06
5.76101e+06
5.66035e+06
4.76794e+06
3.83197e+06
3.81231e+06
4.21906e+06
4.95626e+06
5.81337e+06
5.80184e+06
5.78815e+06
5.77243e+06
5.75669e+06
5.74048e+06
5.7235e+06
5.70583e+06
5.68752e+06
5.66862e+06
5.64919e+06
5.62927e+06
5.60892e+06
5.58819e+06
5.56712e+06
5.54574e+06
5.52407e+06
5.50217e+06
5.48008e+06
5.45779e+06
5.43536e+06
5.4128e+06
5.39017e+06
5.36746e+06
5.34472e+06
5.32193e+06
5.29914e+06
5.27634e+06
5.25357e+06
5.23083e+06
5.20814e+06
5.18552e+06
5.16295e+06
5.14048e+06
5.11808e+06
5.09581e+06
5.07363e+06
5.05158e+06
5.02968e+06
5.00789e+06
4.98626e+06
4.96476e+06
4.9434e+06
4.92261e+06
4.91377e+06
4.89334e+06
4.87241e+06
4.85205e+06
4.83184e+06
4.81182e+06
4.79196e+06
4.77227e+06
4.75278e+06
4.73344e+06
4.71429e+06
4.69533e+06
4.67691e+06
4.65874e+06
4.64037e+06
4.62215e+06
4.60413e+06
4.58628e+06
4.56869e+06
4.55112e+06
4.53411e+06
4.51655e+06
4.49916e+06
4.48274e+06
4.46603e+06
4.44983e+06
4.43323e+06
4.41608e+06
4.39981e+06
4.38399e+06
4.36805e+06
4.35227e+06
4.33646e+06
4.32068e+06
4.3049e+06
4.28911e+06
4.27331e+06
4.2575e+06
4.24171e+06
4.22591e+06
4.21039e+06
4.19761e+06
9.05879e+06
9.01876e+06
8.96655e+06
8.92322e+06
8.88396e+06
8.85097e+06
8.82191e+06
8.51841e+06
7.08202e+06
5.99697e+06
5.59018e+06
5.23121e+06
5.4014e+06
5.8507e+06
5.83973e+06
5.82764e+06
5.81445e+06
5.8002e+06
5.785e+06
5.76895e+06
5.75211e+06
5.73455e+06
5.71633e+06
5.69751e+06
5.67814e+06
5.65827e+06
5.63793e+06
5.6172e+06
5.59612e+06
5.57472e+06
5.55303e+06
5.53109e+06
5.50897e+06
5.48665e+06
5.46415e+06
5.44153e+06
5.41882e+06
5.39603e+06
5.37319e+06
5.35031e+06
5.32741e+06
5.30452e+06
5.28164e+06
5.2588e+06
5.23599e+06
5.21326e+06
5.19058e+06
5.168e+06
5.14548e+06
5.12308e+06
5.10079e+06
5.07861e+06
5.05659e+06
5.03467e+06
5.01291e+06
4.99128e+06
4.96979e+06
4.95669e+06
4.93774e+06
4.91647e+06
4.90533e+06
4.89415e+06
4.88291e+06
4.87161e+06
4.86028e+06
4.8489e+06
4.83749e+06
4.82605e+06
4.81459e+06
4.8031e+06
4.79161e+06
4.77202e+06
4.75194e+06
4.73201e+06
4.71223e+06
4.69262e+06
4.67313e+06
4.65386e+06
4.63465e+06
4.61081e+06
4.59676e+06
4.57811e+06
4.55949e+06
4.54118e+06
4.52703e+06
4.49966e+06
4.48641e+06
4.46843e+06
4.45047e+06
4.43267e+06
4.4149e+06
4.39721e+06
4.37955e+06
4.36194e+06
4.34438e+06
4.32687e+06
4.30947e+06
4.29209e+06
4.27502e+06
4.25764e+06
1.04129e+07
1.05265e+07
1.06235e+07
1.07101e+07
1.07861e+07
1.08533e+07
9.91663e+06
8.54234e+06
7.42241e+06
6.94332e+06
6.94294e+06
6.83206e+06
5.7972e+06
5.71545e+06
5.7218e+06
5.72595e+06
5.729e+06
5.73108e+06
5.73038e+06
5.72753e+06
5.72305e+06
5.71702e+06
5.70958e+06
5.70081e+06
5.69083e+06
5.6797e+06
5.66752e+06
5.65435e+06
5.64029e+06
5.6254e+06
5.60974e+06
5.59338e+06
5.57639e+06
5.55879e+06
5.54065e+06
5.52201e+06
5.50293e+06
5.48343e+06
5.46357e+06
5.44338e+06
5.4229e+06
5.40216e+06
5.38118e+06
5.36003e+06
5.33868e+06
5.3172e+06
5.29557e+06
5.27385e+06
5.25205e+06
5.23016e+06
5.20827e+06
5.18629e+06
5.16435e+06
5.14239e+06
5.11024e+06
5.07291e+06
5.04086e+06
5.01853e+06
4.98642e+06
4.95529e+06
4.92643e+06
4.8998e+06
4.87532e+06
4.85287e+06
4.8324e+06
4.81385e+06
4.79709e+06
4.78211e+06
4.76883e+06
4.75716e+06
4.74705e+06
4.73844e+06
4.73126e+06
4.72546e+06
4.71781e+06
4.69804e+06
4.67832e+06
4.65891e+06
4.63925e+06
4.62048e+06
4.60183e+06
4.58251e+06
4.56376e+06
4.5448e+06
4.52652e+06
4.50897e+06
4.49076e+06
4.47231e+06
4.45416e+06
4.43602e+06
4.41803e+06
4.40013e+06
4.38231e+06
4.36456e+06
4.3469e+06
4.32932e+06
4.31189e+06
4.29451e+06
4.27746e+06
4.26012e+06
1.04208e+07
1.05322e+07
1.063e+07
1.07176e+07
1.07945e+07
9.26152e+06
7.92384e+06
6.90229e+06
6.90715e+06
6.91085e+06
6.91407e+06
6.91643e+06
6.30133e+06
5.72222e+06
5.72917e+06
5.73435e+06
5.73736e+06
5.73829e+06
5.73731e+06
5.73456e+06
5.73016e+06
5.7242e+06
5.71682e+06
5.70809e+06
5.69814e+06
5.68704e+06
5.67488e+06
5.66173e+06
5.64768e+06
5.6328e+06
5.59051e+06
5.45297e+06
5.32264e+06
5.19917e+06
5.08225e+06
4.9716e+06
4.86693e+06
4.76798e+06
4.67449e+06
4.58626e+06
4.50302e+06
4.42458e+06
4.35072e+06
4.28124e+06
4.21594e+06
4.15464e+06
4.09719e+06
4.0434e+06
3.98367e+06
3.92655e+06
3.87402e+06
3.82582e+06
3.78177e+06
3.74115e+06
3.70411e+06
3.67136e+06
3.65008e+06
3.62621e+06
3.60003e+06
3.57698e+06
3.55693e+06
3.53971e+06
3.52333e+06
3.5085e+06
3.49668e+06
3.48779e+06
3.48169e+06
3.47825e+06
3.47737e+06
3.47893e+06
3.48282e+06
3.48784e+06
3.48765e+06
3.48878e+06
3.49022e+06
3.49342e+06
3.49908e+06
3.50478e+06
3.51004e+06
3.51623e+06
3.52343e+06
3.53137e+06
3.54029e+06
3.54987e+06
3.56023e+06
3.57156e+06
3.5835e+06
3.59591e+06
3.60899e+06
3.62257e+06
3.6367e+06
3.6513e+06
3.66639e+06
3.68194e+06
3.69796e+06
3.71438e+06
3.73137e+06
3.74855e+06
3.76665e+06
3.80862e+06
1.04289e+07
1.05399e+07
1.06382e+07
1.0419e+07
8.70372e+06
7.41339e+06
6.85074e+06
6.86057e+06
6.86978e+06
6.87797e+06
6.88483e+06
6.89093e+06
6.77206e+06
5.74643e+06
5.73499e+06
5.74031e+06
5.7434e+06
5.74442e+06
5.74353e+06
5.74084e+06
5.73648e+06
5.58946e+06
5.37828e+06
5.17833e+06
4.9891e+06
4.8101e+06
4.64087e+06
4.48096e+06
4.32995e+06
4.18678e+06
4.05159e+06
3.92673e+06
3.80678e+06
3.6939e+06
3.58459e+06
3.41879e+06
3.26439e+06
3.12088e+06
2.98776e+06
2.86457e+06
2.7508e+06
2.64601e+06
2.54971e+06
2.46147e+06
2.38083e+06
2.30736e+06
2.24065e+06
2.02331e+06
1.79696e+06
1.60243e+06
1.48341e+06
1.41946e+06
1.37797e+06
1.3559e+06
1.35004e+06
1.35266e+06
1.35747e+06
1.36265e+06
1.3676e+06
1.37257e+06
1.37694e+06
1.38018e+06
1.38222e+06
1.38366e+06
1.38435e+06
1.384e+06
1.38266e+06
1.38045e+06
1.37753e+06
1.37407e+06
1.36997e+06
1.36374e+06
1.35778e+06
1.35404e+06
1.35087e+06
1.34888e+06
1.34918e+06
1.35217e+06
1.35919e+06
1.37083e+06
1.38705e+06
1.40824e+06
1.43462e+06
1.46637e+06
1.50342e+06
1.54586e+06
1.59372e+06
1.64673e+06
1.70476e+06
1.76754e+06
1.83486e+06
1.90646e+06
1.98114e+06
2.05584e+06
2.13382e+06
2.2149e+06
2.29912e+06
2.38552e+06
2.47597e+06
2.54229e+06
1.04369e+07
1.05495e+07
9.99719e+06
8.23651e+06
6.89461e+06
6.78764e+06
6.8038e+06
6.8188e+06
6.83252e+06
6.84477e+06
6.85547e+06
6.86473e+06
6.85153e+06
6.15564e+06
5.74032e+06
5.47212e+06
5.18819e+06
4.91999e+06
4.66681e+06
4.42798e+06
4.20227e+06
3.99737e+06
3.8017e+06
3.61288e+06
3.41296e+06
3.19387e+06
2.98963e+06
2.79976e+06
2.57509e+06
2.36683e+06
2.25754e+06
2.28878e+06
1.87572e+06
1.61543e+06
1.4426e+06
1.34986e+06
1.32596e+06
1.37155e+06
1.46908e+06
1.60006e+06
1.42404e+06
1.33205e+06
1.40772e+06
1.60513e+06
1.86901e+06
2.16176e+06
2.4756e+06
2.81176e+06
3.11529e+06
3.38544e+06
3.63488e+06
3.88282e+06
4.12123e+06
4.34362e+06
4.47212e+06
4.33461e+06
5.49843e+06
4.06075e+06
3.93055e+06
3.80486e+06
3.68386e+06
3.56725e+06
3.45688e+06
3.35174e+06
3.2501e+06
3.15313e+06
3.06319e+06
2.97601e+06
2.89158e+06
2.80983e+06
2.73074e+06
2.6553e+06
2.58916e+06
2.52575e+06
2.46498e+06
2.40675e+06
2.35099e+06
2.29877e+06
2.25041e+06
2.20447e+06
2.16085e+06
2.11949e+06
2.0803e+06
2.04317e+06
2.00801e+06
1.9748e+06
1.94344e+06
1.91167e+06
1.87667e+06
1.84382e+06
1.81305e+06
1.78373e+06
1.75416e+06
1.72687e+06
1.70345e+06
1.68186e+06
1.66188e+06
1.64335e+06
1.62729e+06
1.44837e+06
1.04449e+07
9.67523e+06
7.85537e+06
6.69025e+06
6.71408e+06
6.73579e+06
6.75711e+06
6.77693e+06
6.79513e+06
6.8114e+06
6.6244e+06
6.26453e+06
5.92398e+06
5.38112e+06
4.16403e+06
3.86808e+06
3.59825e+06
3.3271e+06
3.01157e+06
2.71987e+06
2.54455e+06
2.6794e+06
2.84849e+06
2.53698e+06
2.0362e+06
2.68018e+06
3.61088e+06
4.53434e+06
5.42484e+06
6.2688e+06
7.07293e+06
7.86765e+06
8.63967e+06
8.25531e+06
7.78312e+06
7.39841e+06
7.03151e+06
6.69912e+06
6.37747e+06
6.03395e+06
5.8079e+06
5.5443e+06
5.26437e+06
4.99374e+06
4.73196e+06
4.47903e+06
4.23447e+06
4.18591e+06
4.18577e+06
4.19905e+06
4.15505e+06
4.05587e+06
3.95461e+06
3.87911e+06
3.80395e+06
3.75223e+06
3.67303e+06
3.5922e+06
3.509e+06
3.42471e+06
3.33911e+06
3.2525e+06
3.16495e+06
3.07664e+06
2.9877e+06
2.89832e+06
2.80866e+06
2.71879e+06
2.62895e+06
2.53933e+06
2.45015e+06
2.36164e+06
2.27402e+06
2.18503e+06
2.09009e+06
1.99765e+06
1.90815e+06
1.82214e+06
1.7402e+06
1.66298e+06
1.59123e+06
1.52577e+06
1.46743e+06
1.41708e+06
1.37558e+06
1.34369e+06
1.32144e+06
1.30839e+06
1.30679e+06
1.31724e+06
1.33797e+06
1.36833e+06
1.40702e+06
1.45125e+06
1.50173e+06
1.55765e+06
1.61817e+06
1.68319e+06
1.7499e+06
1.85633e+06
9.46128e+06
7.55038e+06
6.59851e+06
6.62691e+06
6.65703e+06
6.68442e+06
6.64237e+06
6.20171e+06
5.7856e+06
5.46411e+06
5.24689e+06
4.97631e+06
4.66599e+06
4.42184e+06
3.64789e+06
3.1346e+06
5.1859e+06
7.05895e+06
8.30288e+06
9.66413e+06
1.10189e+07
1.20093e+07
1.12659e+07
1.06064e+07
9.8896e+06
9.45868e+06
8.98009e+06
8.46826e+06
8.03089e+06
7.61269e+06
7.14217e+06
6.63109e+06
6.51148e+06
6.49254e+06
6.42651e+06
6.33763e+06
6.24172e+06
6.14313e+06
6.04442e+06
5.94239e+06
5.23201e+06
4.43808e+06
3.69686e+06
3.01519e+06
2.40689e+06
1.90141e+06
1.5533e+06
1.43425e+06
1.55895e+06
1.85139e+06
2.2255e+06
2.63111e+06
2.98133e+06
3.29275e+06
3.52393e+06
3.49759e+06
3.47203e+06
3.44732e+06
3.42345e+06
3.40014e+06
3.37767e+06
3.36635e+06
3.35901e+06
3.35202e+06
3.34534e+06
3.34024e+06
3.33927e+06
3.33816e+06
3.33695e+06
3.33564e+06
3.33422e+06
3.33269e+06
3.33097e+06
3.32894e+06
3.32688e+06
3.32487e+06
3.32277e+06
3.32055e+06
3.31822e+06
3.31578e+06
3.31323e+06
3.3106e+06
3.30786e+06
3.30502e+06
3.30204e+06
3.29892e+06
3.29568e+06
3.28937e+06
3.27605e+06
3.26285e+06
3.24978e+06
3.23682e+06
3.22397e+06
3.2112e+06
3.19856e+06
3.18607e+06
3.17369e+06
3.16165e+06
3.14949e+06
3.13763e+06
7.22182e+06
6.48609e+06
6.52955e+06
6.51407e+06
6.00086e+06
5.5432e+06
5.29381e+06
5.07135e+06
4.68489e+06
4.61268e+06
5.00484e+06
7.46742e+06
1.17718e+07
1.43243e+07
1.48208e+07
1.36809e+07
1.30999e+07
1.21145e+07
1.13145e+07
1.06675e+07
9.8447e+06
8.67473e+06
7.94627e+06
7.63745e+06
7.60186e+06
6.25936e+06
4.72792e+06
3.33892e+06
2.20224e+06
1.67786e+06
2.11405e+06
3.04905e+06
4.10305e+06
4.16308e+06
4.10833e+06
4.05579e+06
4.00954e+06
3.98589e+06
3.9626e+06
3.93981e+06
3.91749e+06
3.89549e+06
3.87399e+06
3.85276e+06
3.83204e+06
3.81151e+06
3.79142e+06
3.77166e+06
3.75197e+06
3.73289e+06
3.72633e+06
3.65228e+06
3.55413e+06
3.5112e+06
3.51098e+06
3.51066e+06
3.51007e+06
3.50935e+06
3.5086e+06
3.50762e+06
3.50686e+06
3.50607e+06
3.50471e+06
3.50307e+06
3.50134e+06
3.49949e+06
3.49755e+06
3.4955e+06
3.49335e+06
3.49106e+06
3.48869e+06
3.48623e+06
3.48367e+06
3.47808e+06
3.46347e+06
3.44899e+06
3.43462e+06
3.42037e+06
3.40622e+06
3.39214e+06
3.37814e+06
3.36423e+06
3.3504e+06
3.33669e+06
3.32308e+06
3.30955e+06
3.29611e+06
3.28274e+06
3.26945e+06
3.25626e+06
3.24319e+06
3.23026e+06
3.21748e+06
3.20485e+06
3.19235e+06
3.17997e+06
3.16768e+06
3.15568e+06
3.14355e+06
3.12495e+06
5.41753e+06
6.0609e+06
5.52296e+06
5.2603e+06
5.06129e+06
4.67053e+06
4.96498e+06
6.59712e+06
1.1722e+07
1.17526e+07
1.14124e+07
1.19601e+07
1.18196e+07
1.08732e+07
1.04736e+07
1e+07
7.01749e+06
4.43921e+06
2.76457e+06
2.04864e+06
3.13939e+06
4.57389e+06
4.48763e+06
4.40491e+06
4.34398e+06
4.31172e+06
4.28034e+06
4.24985e+06
4.22012e+06
4.19121e+06
4.16294e+06
4.13548e+06
4.10851e+06
4.08236e+06
4.05655e+06
4.03147e+06
4.00681e+06
3.98271e+06
3.95914e+06
3.93594e+06
3.91632e+06
3.91496e+06
3.91362e+06
3.91196e+06
3.91035e+06
3.90858e+06
3.90646e+06
3.90452e+06
3.90217e+06
3.90167e+06
3.82226e+06
3.71976e+06
3.68448e+06
3.68343e+06
3.68213e+06
3.68065e+06
3.67906e+06
3.67731e+06
3.67544e+06
3.67346e+06
3.67135e+06
3.6584e+06
3.64196e+06
3.62567e+06
3.60954e+06
3.59359e+06
3.57781e+06
3.56217e+06
3.54668e+06
3.53131e+06
3.51609e+06
3.50101e+06
3.48609e+06
3.4713e+06
3.45661e+06
3.44204e+06
3.42758e+06
3.41324e+06
3.39904e+06
3.38494e+06
3.37095e+06
3.35704e+06
3.34323e+06
3.3295e+06
3.31586e+06
3.30233e+06
3.28892e+06
3.27564e+06
3.26246e+06
3.24938e+06
3.23641e+06
3.22354e+06
3.21081e+06
3.19822e+06
3.18578e+06
3.16923e+06
3.1482e+06
3.12765e+06
3.10836e+06
3.08711e+06
1.99661e+06
3.44997e+06
3.92488e+06
4.288e+06
5.71647e+06
7.81792e+06
8.0564e+06
8.69491e+06
8.06001e+06
7.60702e+06
6.851e+06
4.40341e+06
2.834e+06
4.46028e+06
4.99027e+06
4.75901e+06
4.65421e+06
4.61073e+06
4.56894e+06
4.52865e+06
4.4898e+06
4.45226e+06
4.41597e+06
4.38084e+06
4.34679e+06
4.31381e+06
4.28176e+06
4.25066e+06
4.22033e+06
4.19093e+06
4.16211e+06
4.13418e+06
4.10926e+06
4.1082e+06
4.10689e+06
4.10549e+06
4.10401e+06
4.10229e+06
4.10056e+06
4.09923e+06
4.1017e+06
4.10302e+06
4.10038e+06
4.09754e+06
4.09445e+06
4.09158e+06
4.08826e+06
4.08483e+06
4.0815e+06
3.99401e+06
3.87487e+06
3.828e+06
3.80938e+06
3.79103e+06
3.77296e+06
3.75502e+06
3.73731e+06
3.71985e+06
3.70258e+06
3.68548e+06
3.66858e+06
3.65185e+06
3.6353e+06
3.61895e+06
3.60278e+06
3.58675e+06
3.57088e+06
3.55516e+06
3.53959e+06
3.52417e+06
3.5089e+06
3.49378e+06
3.47881e+06
3.46398e+06
3.44929e+06
3.43472e+06
3.42027e+06
3.40593e+06
3.39167e+06
3.37752e+06
3.36349e+06
3.34958e+06
3.33578e+06
3.32208e+06
3.30847e+06
3.29496e+06
3.28156e+06
3.26827e+06
3.25511e+06
3.24211e+06
3.22924e+06
3.2165e+06
3.19435e+06
3.17252e+06
3.15145e+06
3.13135e+06
3.11121e+06
3.09105e+06
3.07144e+06
3.05771e+06
3.05929e+06
3.05507e+06
2.73018e+06
4.68193e+06
4.62228e+06
4.29927e+06
4.11529e+06
3.32685e+06
5.73719e+06
5.75481e+06
5.38145e+06
5.10427e+06
4.90733e+06
4.80914e+06
4.75869e+06
4.71035e+06
4.66396e+06
4.61929e+06
4.57637e+06
4.53503e+06
4.49523e+06
4.45681e+06
4.41969e+06
4.3838e+06
4.34903e+06
4.31534e+06
4.30604e+06
4.30465e+06
4.30314e+06
4.30175e+06
4.30004e+06
4.2991e+06
4.30406e+06
4.30789e+06
4.3052e+06
4.30228e+06
4.29941e+06
4.2963e+06
4.29317e+06
4.28978e+06
4.28343e+06
4.25867e+06
4.23427e+06
4.21063e+06
4.18699e+06
4.16387e+06
4.14132e+06
4.11871e+06
4.01199e+06
3.88479e+06
3.84073e+06
3.82182e+06
3.80318e+06
3.78468e+06
3.76645e+06
3.74847e+06
3.73065e+06
3.71307e+06
3.69573e+06
3.67856e+06
3.66157e+06
3.64477e+06
3.62815e+06
3.61173e+06
3.59548e+06
3.57941e+06
3.56347e+06
3.54769e+06
3.53206e+06
3.5166e+06
3.50128e+06
3.48611e+06
3.47107e+06
3.45616e+06
3.4414e+06
3.42679e+06
3.41231e+06
3.39797e+06
3.38374e+06
3.36963e+06
3.35563e+06
3.34172e+06
3.32793e+06
3.31426e+06
3.3007e+06
3.28725e+06
3.27392e+06
3.2607e+06
3.24368e+06
3.22069e+06
3.19808e+06
3.17664e+06
3.15573e+06
3.13436e+06
3.11335e+06
3.097e+06
3.08553e+06
3.0743e+06
3.06295e+06
3.05132e+06
2.94053e+06
3.94095e+06
3.22788e+06
2.0245e+06
3.94068e+06
5.64861e+06
6.12424e+06
5.84623e+06
5.51012e+06
5.20537e+06
4.99224e+06
4.93281e+06
4.87592e+06
4.82188e+06
4.77009e+06
4.72043e+06
4.67283e+06
4.62713e+06
4.58321e+06
4.54092e+06
4.51138e+06
4.50874e+06
4.50636e+06
4.50413e+06
4.50198e+06
4.50748e+06
4.51484e+06
4.51436e+06
4.51125e+06
4.50824e+06
4.50502e+06
4.50174e+06
4.49586e+06
4.46642e+06
4.43777e+06
4.40956e+06
4.38204e+06
4.35497e+06
4.32855e+06
4.30251e+06
4.27697e+06
4.25216e+06
4.22737e+06
4.20328e+06
4.17974e+06
4.15615e+06
4.13323e+06
4.02825e+06
3.89738e+06
3.85347e+06
3.83419e+06
3.81509e+06
3.79629e+06
3.77775e+06
3.75939e+06
3.74129e+06
3.72344e+06
3.70576e+06
3.68828e+06
3.67103e+06
3.65398e+06
3.63711e+06
3.62042e+06
3.60394e+06
3.58761e+06
3.57147e+06
3.55548e+06
3.53967e+06
3.52401e+06
3.50852e+06
3.49318e+06
3.478e+06
3.46297e+06
3.44808e+06
3.43331e+06
3.41865e+06
3.40412e+06
3.38971e+06
3.37544e+06
3.3613e+06
3.34732e+06
3.33346e+06
3.31971e+06
3.30607e+06
3.29253e+06
3.27201e+06
3.24825e+06
3.22512e+06
3.20286e+06
3.18079e+06
3.15862e+06
3.13683e+06
3.12489e+06
3.11314e+06
3.10151e+06
3.09003e+06
3.07863e+06
3.06747e+06
3.05618e+06
3.04462e+06
3.28234e+06
2.77208e+06
4.64266e+06
6.43445e+06
6.33559e+06
6.09663e+06
5.71698e+06
5.36122e+06
5.14023e+06
5.07293e+06
5.00882e+06
4.94794e+06
4.8895e+06
4.83394e+06
4.78078e+06
4.72997e+06
4.72157e+06
4.71709e+06
4.71313e+06
4.71379e+06
4.724e+06
4.72943e+06
4.72521e+06
4.7212e+06
4.7173e+06
4.71354e+06
4.68599e+06
4.65161e+06
4.61808e+06
4.5854e+06
4.55359e+06
4.52232e+06
4.49197e+06
4.46208e+06
4.43294e+06
4.40434e+06
4.37643e+06
4.34899e+06
4.32213e+06
4.29596e+06
4.26993e+06
4.24475e+06
4.22003e+06
4.19538e+06
4.17156e+06
4.14807e+06
4.0476e+06
3.91326e+06
3.86615e+06
3.8464e+06
3.82699e+06
3.80783e+06
3.78887e+06
3.77019e+06
3.75178e+06
3.73356e+06
3.7156e+06
3.69787e+06
3.68033e+06
3.66299e+06
3.64586e+06
3.62894e+06
3.61219e+06
3.59563e+06
3.57924e+06
3.56305e+06
3.54701e+06
3.53116e+06
3.51544e+06
3.4999e+06
3.48451e+06
3.46929e+06
3.45424e+06
3.43934e+06
3.42459e+06
3.40999e+06
3.3955e+06
3.38113e+06
3.36687e+06
3.35274e+06
3.33873e+06
3.32486e+06
3.3017e+06
3.27713e+06
3.2533e+06
3.23017e+06
3.20706e+06
3.18411e+06
3.16545e+06
3.15325e+06
3.14117e+06
3.12922e+06
3.11739e+06
3.10569e+06
3.09411e+06
3.08266e+06
3.07131e+06
3.06021e+06
3.049e+06
3.03752e+06
4.05543e+06
6.68474e+06
6.57456e+06
6.4088e+06
6.01375e+06
5.60966e+06
5.309e+06
5.2323e+06
5.15941e+06
5.09034e+06
5.02447e+06
4.96211e+06
4.94273e+06
4.9351e+06
4.92843e+06
4.93955e+06
4.95144e+06
4.94625e+06
4.94031e+06
4.93483e+06
4.91836e+06
4.8763e+06
4.83561e+06
4.79621e+06
4.758e+06
4.72091e+06
4.68483e+06
4.64967e+06
4.61559e+06
4.58221e+06
4.54992e+06
4.51817e+06
4.48729e+06
4.45703e+06
4.42746e+06
4.39845e+06
4.37008e+06
4.34247e+06
4.3151e+06
4.28861e+06
4.26253e+06
4.23674e+06
4.21184e+06
4.18717e+06
4.16275e+06
4.07093e+06
3.93241e+06
3.87876e+06
3.85867e+06
3.83883e+06
3.81921e+06
3.79991e+06
3.78091e+06
3.76212e+06
3.74358e+06
3.7253e+06
3.70723e+06
3.68939e+06
3.67179e+06
3.65439e+06
3.6372e+06
3.62021e+06
3.6034e+06
3.58679e+06
3.57036e+06
3.55414e+06
3.53808e+06
3.52219e+06
3.50647e+06
3.49091e+06
3.47552e+06
3.46027e+06
3.44519e+06
3.43024e+06
3.41543e+06
3.40076e+06
3.38627e+06
3.37194e+06
3.35776e+06
3.33289e+06
3.30746e+06
3.28275e+06
3.25868e+06
3.23461e+06
3.21086e+06
3.19458e+06
3.18206e+06
3.16966e+06
3.15737e+06
3.14522e+06
3.13319e+06
3.12129e+06
3.10952e+06
3.09788e+06
3.08637e+06
3.07498e+06
3.06368e+06
3.05262e+06
3.04144e+06
3.03002e+06
5.82476e+06
6.72197e+06
6.41463e+06
5.95734e+06
5.5597e+06
5.41396e+06
5.33088e+06
5.25227e+06
5.18121e+06
5.1679e+06
5.15636e+06
5.16565e+06
5.1792e+06
5.1741e+06
5.16522e+06
5.15727e+06
5.1091e+06
5.05956e+06
5.01187e+06
4.96587e+06
4.92147e+06
4.8785e+06
4.8369e+06
4.79662e+06
4.75766e+06
4.7198e+06
4.68314e+06
4.64724e+06
4.61257e+06
4.57858e+06
4.54563e+06
4.51343e+06
4.48204e+06
4.45132e+06
4.42129e+06
4.39204e+06
4.36314e+06
4.3352e+06
4.30769e+06
4.28056e+06
4.25437e+06
4.22847e+06
4.20296e+06
4.17823e+06
4.09774e+06
3.95492e+06
3.89148e+06
3.87091e+06
3.8506e+06
3.83065e+06
3.81097e+06
3.7915e+06
3.77235e+06
3.75349e+06
3.73486e+06
3.71646e+06
3.69831e+06
3.68042e+06
3.66275e+06
3.64529e+06
3.62802e+06
3.61095e+06
3.59408e+06
3.57743e+06
3.56096e+06
3.54467e+06
3.52857e+06
3.51265e+06
3.49692e+06
3.48135e+06
3.46596e+06
3.45076e+06
3.43571e+06
3.42081e+06
3.40602e+06
3.39136e+06
3.36575e+06
3.33934e+06
3.31362e+06
3.28856e+06
3.2636e+06
3.23903e+06
3.22424e+06
3.21135e+06
3.19859e+06
3.18595e+06
3.17345e+06
3.1611e+06
3.14887e+06
3.13678e+06
3.12482e+06
3.11297e+06
3.10125e+06
3.08966e+06
3.0782e+06
3.06688e+06
3.05566e+06
3.04466e+06
3.03355e+06
3.02221e+06
5.85494e+06
6.41354e+06
5.93025e+06
5.62192e+06
5.52696e+06
5.4372e+06
5.40581e+06
5.39076e+06
5.40548e+06
5.41842e+06
5.40426e+06
5.39208e+06
5.34017e+06
5.28064e+06
5.22344e+06
5.1686e+06
5.11587e+06
5.06514e+06
5.01629e+06
4.96924e+06
4.92387e+06
4.87998e+06
4.83753e+06
4.79632e+06
4.75662e+06
4.71794e+06
4.68071e+06
4.64421e+06
4.60889e+06
4.57443e+06
4.54085e+06
4.50811e+06
4.4762e+06
4.44514e+06
4.4145e+06
4.38492e+06
4.35581e+06
4.32723e+06
4.29958e+06
4.27224e+06
4.24545e+06
4.2195e+06
4.19375e+06
4.1286e+06
3.98136e+06
3.90423e+06
3.88315e+06
3.86245e+06
3.84203e+06
3.82189e+06
3.8021e+06
3.78259e+06
3.76331e+06
3.74431e+06
3.72558e+06
3.70711e+06
3.68888e+06
3.67092e+06
3.65318e+06
3.63566e+06
3.61834e+06
3.60122e+06
3.58433e+06
3.56763e+06
3.55114e+06
3.53481e+06
3.51868e+06
3.50272e+06
3.48695e+06
3.47136e+06
3.45594e+06
3.44069e+06
3.4256e+06
3.40065e+06
3.37327e+06
3.34646e+06
3.32028e+06
3.29434e+06
3.26878e+06
3.25441e+06
3.24114e+06
3.22802e+06
3.21505e+06
3.20223e+06
3.18954e+06
3.17697e+06
3.16451e+06
3.15219e+06
3.14001e+06
3.12796e+06
3.11605e+06
3.10427e+06
3.09262e+06
3.08108e+06
3.06966e+06
3.05838e+06
3.04721e+06
3.03627e+06
3.02523e+06
3.01398e+06
5.4234e+06
5.93068e+06
5.75174e+06
5.66258e+06
5.63742e+06
5.64566e+06
5.66073e+06
5.64697e+06
5.62616e+06
5.55264e+06
5.48242e+06
5.41562e+06
5.35163e+06
5.29054e+06
5.23187e+06
5.17564e+06
5.12166e+06
5.06979e+06
5.01988e+06
4.97181e+06
4.92552e+06
4.88071e+06
4.83749e+06
4.7954e+06
4.75496e+06
4.71552e+06
4.6775e+06
4.64052e+06
4.60454e+06
4.56954e+06
4.53544e+06
4.50226e+06
4.46972e+06
4.43832e+06
4.4074e+06
4.37711e+06
4.34782e+06
4.31893e+06
4.29072e+06
4.26336e+06
4.23624e+06
4.20974e+06
4.16365e+06
4.01151e+06
3.91706e+06
3.89555e+06
3.87436e+06
3.85346e+06
3.83291e+06
3.81267e+06
3.79272e+06
3.77308e+06
3.75371e+06
3.73462e+06
3.7158e+06
3.69726e+06
3.67896e+06
3.6609e+06
3.64308e+06
3.6255e+06
3.60814e+06
3.59096e+06
3.57402e+06
3.55728e+06
3.54078e+06
3.52444e+06
3.50831e+06
3.49236e+06
3.4766e+06
3.46102e+06
3.43798e+06
3.40942e+06
3.3813e+06
3.35381e+06
3.32683e+06
3.30029e+06
3.28527e+06
3.27163e+06
3.25814e+06
3.24478e+06
3.23155e+06
3.21846e+06
3.2055e+06
3.19269e+06
3.18004e+06
3.16753e+06
3.15515e+06
3.1429e+06
3.13078e+06
3.11878e+06
3.10691e+06
3.09517e+06
3.08358e+06
3.07211e+06
3.06077e+06
3.04955e+06
3.03842e+06
3.02752e+06
3.01653e+06
3.00533e+06
5.07967e+06
5.90667e+06
5.88645e+06
5.90042e+06
5.90716e+06
5.88255e+06
5.80633e+06
5.72274e+06
5.64351e+06
5.56815e+06
5.49617e+06
5.42769e+06
5.36213e+06
5.29961e+06
5.23965e+06
5.18218e+06
5.12699e+06
5.07401e+06
5.02306e+06
4.97392e+06
4.92665e+06
4.88088e+06
4.8369e+06
4.79405e+06
4.75277e+06
4.71269e+06
4.67381e+06
4.63615e+06
4.59957e+06
4.56405e+06
4.52929e+06
4.49577e+06
4.46285e+06
4.43072e+06
4.39966e+06
4.36893e+06
4.33895e+06
4.31013e+06
4.2815e+06
4.25363e+06
4.22648e+06
4.19658e+06
4.04575e+06
3.93019e+06
3.90807e+06
3.8863e+06
3.86494e+06
3.84393e+06
3.82324e+06
3.80288e+06
3.78283e+06
3.76307e+06
3.74359e+06
3.72442e+06
3.70551e+06
3.68689e+06
3.66853e+06
3.65043e+06
3.63255e+06
3.61491e+06
3.59749e+06
3.58029e+06
3.5633e+06
3.5465e+06
3.52993e+06
3.51359e+06
3.49744e+06
3.478e+06
3.44816e+06
3.41872e+06
3.38988e+06
3.36175e+06
3.33414e+06
3.31701e+06
3.3029e+06
3.28895e+06
3.27514e+06
3.26148e+06
3.248e+06
3.23469e+06
3.22152e+06
3.2085e+06
3.19561e+06
3.18283e+06
3.1702e+06
3.15771e+06
3.14537e+06
3.13318e+06
3.12112e+06
3.1092e+06
3.09739e+06
3.08571e+06
3.07416e+06
3.06274e+06
3.05146e+06
3.04031e+06
3.02926e+06
3.01843e+06
3.00749e+06
2.99636e+06
5.2191e+06
6.1517e+06
6.15793e+06
6.11199e+06
6.0116e+06
5.91656e+06
5.82667e+06
5.74123e+06
5.65998e+06
5.58271e+06
5.50913e+06
5.43915e+06
5.37215e+06
5.30821e+06
5.2469e+06
5.18814e+06
5.1317e+06
5.07755e+06
5.02554e+06
4.97536e+06
4.92713e+06
4.88041e+06
4.8355e+06
4.79201e+06
4.74988e+06
4.70917e+06
4.66963e+06
4.63129e+06
4.59394e+06
4.55798e+06
4.52274e+06
4.4885e+06
4.4554e+06
4.42271e+06
4.39105e+06
4.36031e+06
4.3299e+06
4.30056e+06
4.27189e+06
4.24353e+06
4.21593e+06
4.08437e+06
3.94443e+06
3.92075e+06
3.89849e+06
3.87658e+06
3.85503e+06
3.83388e+06
3.81306e+06
3.79256e+06