/*--------------------------------*- C++ -*----------------------------------*\
| =========                 |                                                 |
| \\      /  F ield         | foam-extend: Open Source CFD                    |
|  \\    /   O peration     | Version:     4.1                                |
|   \\  /    A nd           | Web:         http://www.foam-extend.org         |
|    \\/     M anipulation  |                                                 |
\*---------------------------------------------------------------------------*/
FoamFile
{
    version     2.0;
    format      ascii;
    class       volScalarField;
    location    "8";
    object      epsilonEq;
}
// * * * * * * * * * * * * * * * * * * * * * * * * * * * * * * * * * * * * * //

dimensions      [0 0 0 0 0 0 0];

internalField   nonuniform List<scalar> 
100000
(
1.1645e-05
1.76658e-05
1.71799e-05
1.69994e-05
2.0981e-05
2.10304e-05
2.11256e-05
2.1209e-05
2.12815e-05
2.09464e-05
1.94068e-05
1.78904e-05
1.65557e-05
1.53348e-05
1.34095e-05
1.18747e-05
1.04809e-05
9.23717e-06
8.29021e-06
7.60427e-06
6.78606e-06
6.11797e-06
5.60275e-06
5.23893e-06
5.01798e-06
4.93624e-06
4.93189e-06
4.9301e-06
4.93056e-06
4.93285e-06
4.93696e-06
4.942e-06
4.94895e-06
4.95508e-06
4.95936e-06
4.96613e-06
4.97421e-06
4.98354e-06
4.99358e-06
5.00408e-06
5.01416e-06
5.02336e-06
5.03412e-06
5.04591e-06
5.05827e-06
5.07082e-06
5.08325e-06
5.09522e-06
5.10682e-06
5.11841e-06
5.13031e-06
5.1411e-06
5.15064e-06
5.15676e-06
5.16206e-06
5.16612e-06
5.1696e-06
5.17182e-06
5.17282e-06
5.17269e-06
5.17153e-06
5.16945e-06
5.16659e-06
5.16306e-06
5.15922e-06
5.15349e-06
5.14794e-06
5.14605e-06
5.14486e-06
5.14344e-06
5.14871e-06
5.17095e-06
5.20812e-06
5.26025e-06
5.32717e-06
5.40852e-06
5.50384e-06
5.61378e-06
5.73842e-06
5.87549e-06
6.02407e-06
6.18333e-06
6.35249e-06
6.5307e-06
6.71723e-06
6.91128e-06
7.11214e-06
7.2682e-06
7.45763e-06
7.67541e-06
7.89812e-06
8.12541e-06
8.35677e-06
8.59173e-06
8.83029e-06
9.07217e-06
9.31671e-06
9.56502e-06
9.81043e-06
1.0113e-05
1.15484e-05
1.74607e-05
1.66671e-05
2.05373e-05
2.09247e-05
2.10377e-05
2.11382e-05
2.12265e-05
2.13031e-05
2.13687e-05
2.1424e-05
2.14691e-05
2.02733e-05
1.90379e-05
1.78432e-05
1.67933e-05
1.58125e-05
1.49057e-05
1.41212e-05
1.29931e-05
1.19643e-05
1.10302e-05
1.01865e-05
9.42891e-06
8.76598e-06
8.24662e-06
7.80656e-06
7.33913e-06
6.93575e-06
6.59161e-06
6.54742e-06
6.51628e-06
6.87296e-06
6.48528e-06
6.48296e-06
6.48917e-06
6.50245e-06
6.52254e-06
6.54867e-06
6.5833e-06
6.63226e-06
6.68101e-06
6.72172e-06
6.76724e-06
6.8172e-06
6.87125e-06
6.92908e-06
6.99039e-06
7.05978e-06
7.13908e-06
7.21916e-06
7.29987e-06
7.38096e-06
7.4697e-06
7.56338e-06
7.64446e-06
7.72548e-06
7.80627e-06
7.88664e-06
7.96642e-06
8.0456e-06
8.12391e-06
8.20141e-06
8.2779e-06
8.35335e-06
8.43714e-06
8.51413e-06
8.58817e-06
8.66902e-06
8.73783e-06
8.80542e-06
8.88393e-06
8.96271e-06
9.04073e-06
9.11795e-06
9.19431e-06
9.26976e-06
9.34429e-06
9.41786e-06
9.54286e-06
9.76881e-06
9.99737e-06
1.02283e-05
1.04615e-05
1.06966e-05
1.09336e-05
1.11721e-05
1.14121e-05
1.13786e-05
1.13418e-05
1.13058e-05
1.13531e-05
1.15119e-05
1.16718e-05
1.18328e-05
1.19946e-05
1.21566e-05
1.23192e-05
1.24784e-05
1.25759e-05
1.1449e-05
1.63176e-05
1.97427e-05
2.07957e-05
2.09278e-05
2.10462e-05
2.11514e-05
2.1244e-05
2.13246e-05
2.13936e-05
2.1452e-05
2.15001e-05
2.15383e-05
2.15678e-05
2.156e-05
2.04941e-05
1.95027e-05
1.8572e-05
1.77054e-05
1.69291e-05
1.61983e-05
1.55229e-05
1.48997e-05
1.43254e-05
1.42222e-05
1.44383e-05
1.42846e-05
1.41503e-05
1.4034e-05
1.39535e-05
1.38967e-05
1.38216e-05
1.37593e-05
1.3709e-05
1.36704e-05
1.36422e-05
1.36235e-05
1.36136e-05
1.36118e-05
1.36174e-05
1.36009e-05
1.34494e-05
1.33049e-05
1.31848e-05
1.30878e-05
1.30123e-05
1.29572e-05
1.29212e-05
1.29033e-05
1.29025e-05
1.29176e-05
1.29479e-05
1.29925e-05
1.30783e-05
1.3155e-05
1.32383e-05
1.3333e-05
1.34386e-05
1.35545e-05
1.36801e-05
1.3815e-05
1.39584e-05
1.41101e-05
1.42694e-05
1.44361e-05
1.46096e-05
1.47896e-05
1.49079e-05
1.50066e-05
1.51066e-05
1.50637e-05
1.49022e-05
1.47395e-05
1.45759e-05
1.43926e-05
1.41831e-05
1.39994e-05
1.3967e-05
1.39307e-05
1.38903e-05
1.38527e-05
1.38153e-05
1.37769e-05
1.37376e-05
1.36977e-05
1.36572e-05
1.36158e-05
1.35738e-05
1.35731e-05
1.3717e-05
1.38611e-05
1.40101e-05
1.41604e-05
1.43053e-05
1.44497e-05
1.45933e-05
1.47357e-05
1.48763e-05
1.50149e-05
1.52078e-05
1.20182e-05
1.93376e-05
2.10433e-05
2.09562e-05
2.09327e-05
2.10558e-05
2.11653e-05
2.12617e-05
2.13458e-05
2.1418e-05
2.14791e-05
2.15298e-05
2.15703e-05
2.16016e-05
2.16241e-05
2.16383e-05
2.1645e-05
2.16443e-05
2.14161e-05
2.06161e-05
1.98728e-05
1.95299e-05
1.9543e-05
1.95521e-05
1.9592e-05
1.96442e-05
1.96606e-05
1.96682e-05
1.96755e-05
1.96823e-05
1.92818e-05
1.87842e-05
1.83253e-05
1.79044e-05
1.75615e-05
1.73756e-05
1.71985e-05
1.70296e-05
1.68685e-05
1.67149e-05
1.6566e-05
1.6424e-05
1.62912e-05
1.61654e-05
1.60456e-05
1.59316e-05
1.58231e-05
1.572e-05
1.5622e-05
1.55288e-05
1.54404e-05
1.53565e-05
1.52773e-05
1.52188e-05
1.51481e-05
1.50807e-05
1.50172e-05
1.49861e-05
1.5048e-05
1.51184e-05
1.51971e-05
1.52835e-05
1.53773e-05
1.54781e-05
1.55854e-05
1.56989e-05
1.58184e-05
1.59434e-05
1.60736e-05
1.62088e-05
1.63487e-05
1.64929e-05
1.66413e-05
1.67941e-05
1.69513e-05
1.71109e-05
1.72698e-05
1.7435e-05
1.75277e-05
1.75512e-05
1.74652e-05
1.73811e-05
1.72988e-05
1.72182e-05
1.71395e-05
1.70626e-05
1.69871e-05
1.69131e-05
1.68438e-05
1.67787e-05
1.67087e-05
1.65923e-05
1.63279e-05
1.60485e-05
1.58914e-05
1.58356e-05
1.5779e-05
1.57211e-05
1.56635e-05
1.56322e-05
1.74512e-05
2.18973e-05
2.19153e-05
2.19199e-05
2.19078e-05
2.18973e-05
2.19773e-05
2.20472e-05
2.21008e-05
2.21391e-05
2.21631e-05
2.2174e-05
2.21727e-05
2.21598e-05
2.21366e-05
2.20993e-05
2.20443e-05
2.19892e-05
2.23809e-05
2.31253e-05
2.38024e-05
2.44134e-05
2.49699e-05
2.54613e-05
2.53381e-05
2.45404e-05
2.36963e-05
2.29316e-05
2.22107e-05
2.15304e-05
2.08856e-05
2.0281e-05
1.97162e-05
1.9187e-05
1.86951e-05
1.82336e-05
1.77954e-05
1.73857e-05
1.70031e-05
1.66462e-05
1.63065e-05
1.6065e-05
1.58967e-05
1.57448e-05
1.56083e-05
1.54864e-05
1.53784e-05
1.52835e-05
1.52009e-05
1.51302e-05
1.50706e-05
1.50216e-05
1.4983e-05
1.49587e-05
1.49396e-05
1.49283e-05
1.49085e-05
1.48536e-05
1.48119e-05
1.47798e-05
1.47595e-05
1.47507e-05
1.47527e-05
1.47652e-05
1.47876e-05
1.48196e-05
1.48607e-05
1.49105e-05
1.49687e-05
1.50349e-05
1.51087e-05
1.51899e-05
1.52781e-05
1.5373e-05
1.54932e-05
1.56454e-05
1.57768e-05
1.57578e-05
1.57453e-05
1.5739e-05
1.5738e-05
1.5742e-05
1.57508e-05
1.57639e-05
1.57813e-05
1.58029e-05
1.58284e-05
1.58417e-05
1.57841e-05
1.55802e-05
1.53772e-05
1.51749e-05
1.51596e-05
1.51715e-05
1.51893e-05
1.52062e-05
1.52173e-05
1.52276e-05
1.52397e-05
1.53053e-05
2.0835e-05
2.12642e-05
2.15564e-05
2.18163e-05
2.19902e-05
2.199e-05
2.19837e-05
2.19765e-05
2.19633e-05
2.19439e-05
2.19189e-05
2.18881e-05
2.18527e-05
2.18122e-05
2.17677e-05
2.17193e-05
2.16667e-05
2.16033e-05
2.15929e-05
2.23292e-05
2.262e-05
2.25258e-05
2.2092e-05
2.16699e-05
2.1182e-05
2.04234e-05
1.97032e-05
1.90164e-05
1.83613e-05
1.77374e-05
1.71775e-05
1.67707e-05
1.63796e-05
1.60037e-05
1.56003e-05
1.50887e-05
1.46143e-05
1.41751e-05
1.37694e-05
1.33954e-05
1.30519e-05
1.27381e-05
1.2451e-05
1.21885e-05
1.19502e-05
1.17347e-05
1.1541e-05
1.13676e-05
1.12137e-05
1.10781e-05
1.09599e-05
1.08581e-05
1.0773e-05
1.07101e-05
1.06393e-05
1.05799e-05
1.05318e-05
1.04707e-05
1.03407e-05
1.02177e-05
1.01013e-05
9.99144e-06
9.88773e-06
9.79001e-06
9.69807e-06
9.61169e-06
9.53072e-06
9.45489e-06
9.38406e-06
9.31809e-06
9.25677e-06
9.19994e-06
9.14747e-06
9.09916e-06
9.05491e-06
9.01457e-06
8.97805e-06
8.945e-06
8.98084e-06
9.03028e-06
9.0815e-06
9.13525e-06
9.19019e-06
9.2469e-06
9.30514e-06
9.36431e-06
9.42411e-06
9.48421e-06
9.54626e-06
9.70006e-06
1.00287e-05
1.03349e-05
1.06905e-05
1.10467e-05
1.1288e-05
1.14344e-05
1.15826e-05
1.17304e-05
1.18826e-05
1.21786e-05
2.0321e-05
2.06082e-05
2.07936e-05
2.09612e-05
2.11122e-05
2.1248e-05
2.12837e-05
2.13092e-05
2.13315e-05
2.13508e-05
2.13669e-05
2.13798e-05
2.13896e-05
2.13965e-05
2.12927e-05
2.03255e-05
1.91666e-05
1.79258e-05
1.63204e-05
1.47704e-05
1.39125e-05
1.31396e-05
1.24169e-05
1.17398e-05
1.12177e-05
1.08865e-05
1.05672e-05
1.02426e-05
9.94187e-06
9.66381e-06
9.4071e-06
9.17048e-06
8.95279e-06
8.69954e-06
8.445e-06
8.21238e-06
8.00029e-06
7.8074e-06
7.63241e-06
7.47407e-06
7.33672e-06
7.19585e-06
7.0405e-06
6.89783e-06
6.76705e-06
6.64737e-06
6.53809e-06
6.03381e-06
5.57966e-06
5.29497e-06
5.16867e-06
5.1778e-06
5.28379e-06
5.40941e-06
5.57772e-06
5.75702e-06
5.92616e-06
6.05872e-06
6.17455e-06
6.27087e-06
6.34624e-06
6.39969e-06
6.43123e-06
6.44104e-06
6.42989e-06
6.39877e-06
6.34899e-06
6.28211e-06
6.19996e-06
6.10459e-06
5.99833e-06
5.88383e-06
5.76395e-06
5.64198e-06
5.52146e-06
5.40641e-06
5.30097e-06
5.20981e-06
5.13804e-06
5.09802e-06
5.07054e-06
5.08336e-06
5.13284e-06
5.21956e-06
5.50306e-06
5.60761e-06
5.6513e-06
5.6582e-06
5.84156e-06
6.08623e-06
6.34564e-06
6.5675e-06
6.67485e-06
6.76685e-06
6.86156e-06
6.95877e-06
7.05924e-06
7.16069e-06
7.26787e-06
7.339e-06
2.034e-05
2.06063e-05
2.07955e-05
2.09669e-05
2.11211e-05
2.12597e-05
2.13828e-05
2.14915e-05
2.15863e-05
2.10487e-05
1.98148e-05
1.86497e-05
1.75495e-05
1.61993e-05
1.48281e-05
1.3632e-05
1.24577e-05
1.13307e-05
1.01625e-05
8.35466e-06
7.51144e-06
7.17014e-06
6.80713e-06
6.41577e-06
6.12456e-06
6.0554e-06
5.9927e-06
5.93591e-06
5.88449e-06
5.83795e-06
5.79587e-06
5.80027e-06
4.9732e-06
5.29323e-06
6.46791e-06
8.02219e-06
9.69374e-06
1.13684e-05
1.29961e-05
1.45549e-05
1.60343e-05
1.74307e-05
1.86542e-05
1.93366e-05
1.99627e-05
2.0535e-05
2.10701e-05
2.15985e-05
2.20273e-05
2.2393e-05
2.27166e-05
2.29438e-05
2.30228e-05
2.31134e-05
2.31863e-05
2.32252e-05
2.32338e-05
2.32136e-05
2.31656e-05
2.3091e-05
2.29912e-05
2.28672e-05
2.27203e-05
2.25517e-05
2.23622e-05
2.2153e-05
2.19251e-05
2.16793e-05
2.14166e-05
2.11379e-05
2.0844e-05
2.05359e-05
2.02143e-05
1.98801e-05
1.95338e-05
1.91764e-05
1.88086e-05
1.84309e-05
1.80443e-05
1.76491e-05
1.7246e-05
1.68365e-05
1.64205e-05
1.59992e-05
1.55692e-05
1.51167e-05
1.45337e-05
1.3968e-05
1.3442e-05
1.29757e-05
1.26908e-05
1.24034e-05
1.21135e-05
1.18215e-05
1.15275e-05
1.12318e-05
1.09341e-05
1.06366e-05
1.03331e-05
1.01439e-05
2.03599e-05
2.06088e-05
2.0801e-05
2.09755e-05
2.11321e-05
2.0405e-05
1.88679e-05
1.74195e-05
1.60862e-05
1.49351e-05
1.37099e-05
1.20617e-05
1.06151e-05
9.36958e-06
8.28288e-06
7.85375e-06
7.4977e-06
7.27739e-06
7.07456e-06
6.54405e-06
5.63682e-06
5.60437e-06
5.6758e-06
4.76027e-06
5.81481e-06
8.52602e-06
1.16046e-05
1.4685e-05
1.68535e-05
1.86311e-05
2.03059e-05
2.20438e-05
2.39305e-05
2.51899e-05
2.633e-05
2.73971e-05
2.83925e-05
2.9248e-05
2.99532e-05
2.8455e-05
2.66818e-05
2.49716e-05
2.32724e-05
2.16735e-05
2.02019e-05
1.88007e-05
1.74691e-05
1.55306e-05
1.35626e-05
1.17507e-05
9.9311e-06
8.14097e-06
6.70448e-06
5.77154e-06
5.26212e-06
5.23765e-06
5.62062e-06
6.26926e-06
7.05806e-06
7.90193e-06
8.75183e-06
9.5792e-06
1.03677e-05
1.11077e-05
1.17944e-05
1.24246e-05
1.29976e-05
1.35132e-05
1.39719e-05
1.43748e-05
1.47231e-05
1.50183e-05
1.52617e-05
1.5455e-05
1.55997e-05
1.53754e-05
1.50943e-05
1.48073e-05
1.45141e-05
1.42157e-05
1.39122e-05
1.36056e-05
1.32941e-05
1.29801e-05
1.26148e-05
1.22411e-05
1.19744e-05
1.2e-05
1.17547e-05
1.15162e-05
1.12849e-05
1.10607e-05
1.08436e-05
1.06338e-05
1.04313e-05
1.02365e-05
1.00492e-05
9.8684e-06
9.70122e-06
8.86156e-06
2.07139e-05
2.06159e-05
1.93328e-05
1.74983e-05
1.58257e-05
1.44159e-05
1.30751e-05
1.16783e-05
1.01027e-05
8.96532e-06
8.54159e-06
7.94448e-06
7.27263e-06
6.89035e-06
6.75825e-06
6.87846e-06
6.40217e-06
5.64517e-06
8.37176e-06
1.12385e-05
1.3751e-05
1.6371e-05
1.41052e-05
1.26239e-05
1.11708e-05
9.52527e-06
8.73782e-06
8.24607e-06
8.62526e-06
1.02195e-05
1.21889e-05
1.41521e-05
1.84067e-05
2.26588e-05
2.67612e-05
3.06871e-05
3.44199e-05
3.50297e-05
3.50878e-05
3.53292e-05
3.5458e-05
3.55237e-05
3.54712e-05
3.49246e-05
3.4382e-05
3.38429e-05
3.33068e-05
3.27746e-05
3.22449e-05
3.19749e-05
3.19106e-05
3.17657e-05
3.14868e-05
3.12051e-05
3.09203e-05
3.06341e-05
3.03428e-05
3.00489e-05
2.97556e-05
2.94588e-05
2.91601e-05
2.88593e-05
2.85567e-05
2.82524e-05
2.79464e-05
2.7639e-05
2.73303e-05
2.70202e-05
2.6709e-05
2.63969e-05
2.60838e-05
2.57701e-05
2.54557e-05
2.51408e-05
2.47957e-05
2.446e-05
2.41461e-05
2.38341e-05
2.35219e-05
2.32095e-05
2.28972e-05
2.25852e-05
2.22383e-05
2.18316e-05
2.14231e-05
2.10183e-05
2.05255e-05
2.0004e-05
1.94843e-05
1.89673e-05
1.84532e-05
1.79423e-05
1.74352e-05
1.69322e-05
1.64334e-05
1.59394e-05
1.54499e-05
1.49777e-05
1.45078e-05
1.35658e-05
1.82187e-05
1.5242e-05
1.36137e-05
1.19867e-05
1.03673e-05
9.62207e-06
9.21909e-06
8.33609e-06
7.71088e-06
7.22537e-06
7.24665e-06
6.64468e-06
6.58822e-06
6.00315e-06
7.09723e-06
1.24405e-05
1.96892e-05
2.64816e-05
3.10679e-05
3.5552e-05
4.01718e-05
4.32953e-05
4.6728e-05
4.82127e-05
4.88943e-05
4.95594e-05
5.01652e-05
5.07147e-05
5.03728e-05
4.97316e-05
4.90955e-05
4.84641e-05
4.78375e-05
4.72153e-05
4.65978e-05
4.59847e-05
4.51859e-05
4.45763e-05
4.3849e-05
4.09269e-05
3.77972e-05
3.48125e-05
3.19701e-05
2.92639e-05
2.66909e-05
2.42474e-05
2.19302e-05
1.97375e-05
1.78987e-05
1.63139e-05
1.46716e-05
1.29493e-05
1.13537e-05
9.89239e-06
8.57861e-06
7.43498e-06
5.70102e-06
5.7772e-06
5.33715e-06
5.18078e-06
5.28436e-06
5.59259e-06
6.04011e-06
6.57047e-06
7.14245e-06
7.72773e-06
8.30796e-06
8.87144e-06
9.41059e-06
9.92057e-06
1.03986e-05
1.08429e-05
1.12525e-05
1.16272e-05
1.1967e-05
1.19629e-05
1.19122e-05
1.18627e-05
1.18145e-05
1.17675e-05
1.17455e-05
1.17814e-05
1.18143e-05
1.18861e-05
1.19237e-05
1.19211e-05
1.19185e-05
1.19158e-05
1.1913e-05
1.19103e-05
1.19076e-05
1.19048e-05
1.1902e-05
1.18964e-05
1.18527e-05
1.18101e-05
1.177e-05
1.17312e-05
1.16921e-05
1.16555e-05
1.28385e-05
1.04264e-05
9.5398e-06
9.33517e-06
8.66381e-06
8.84693e-06
9.28244e-06
1.10707e-05
1.76961e-05
2.60093e-05
3.44359e-05
4.35625e-05
5.08305e-05
5.77012e-05
6.30411e-05
5.95916e-05
5.74476e-05
5.95056e-05
6.14141e-05
6.21392e-05
6.20148e-05
6.1418e-05
5.51875e-05
4.87549e-05
4.27744e-05
3.68922e-05
3.13136e-05
2.60332e-05
2.10626e-05
1.64357e-05
1.22447e-05
8.74271e-06
6.61164e-06
6.81236e-06
8.92739e-06
1.18014e-05
1.48738e-05
1.51854e-05
1.50898e-05
1.49968e-05
1.49058e-05
1.48167e-05
1.473e-05
1.46447e-05
1.4562e-05
1.44806e-05
1.44011e-05
1.4015e-05
1.34819e-05
1.32259e-05
1.31624e-05
1.30999e-05
1.30384e-05
1.29781e-05
1.29185e-05
1.28609e-05
1.28015e-05
1.27428e-05
1.26876e-05
1.26321e-05
1.25777e-05
1.25236e-05
1.24704e-05
1.24179e-05
1.23659e-05
1.23146e-05
1.22639e-05
1.22137e-05
1.21641e-05
1.21151e-05
1.21014e-05
1.21031e-05
1.21043e-05
1.21049e-05
1.21052e-05
1.2105e-05
1.21044e-05
1.21034e-05
1.21233e-05
1.22025e-05
1.22771e-05
1.23538e-05
1.23991e-05
1.23902e-05
1.23824e-05
1.23745e-05
1.23661e-05
1.23571e-05
1.23475e-05
1.23374e-05
1.2308e-05
1.22537e-05
1.22002e-05
1.21508e-05
1.21025e-05
1.20511e-05
1.20002e-05
1.19618e-05
1.19194e-05
1.18726e-05
1.02744e-05
9.80892e-06
1.10434e-05
2.08534e-05
3.46159e-05
4.49433e-05
5.52261e-05
6.59567e-05
7.43361e-05
7.03987e-05
6.62195e-05
6.37169e-05
6.61547e-05
6.14136e-05
5.09054e-05
4.21472e-05
3.32888e-05
2.5026e-05
1.74478e-05
1.10347e-05
7.73134e-06
1.01328e-05
1.51961e-05
1.69104e-05
1.67209e-05
1.6578e-05
1.64401e-05
1.63066e-05
1.61776e-05
1.60526e-05
1.59316e-05
1.58142e-05
1.57001e-05
1.55893e-05
1.54813e-05
1.53764e-05
1.5274e-05
1.51747e-05
1.50777e-05
1.49831e-05
1.48912e-05
1.48009e-05
1.47132e-05
1.4627e-05
1.4543e-05
1.4461e-05
1.40651e-05
1.35164e-05
1.32766e-05
1.32114e-05
1.31473e-05
1.30842e-05
1.30223e-05
1.29612e-05
1.29013e-05
1.2842e-05
1.27832e-05
1.27257e-05
1.26825e-05
1.26862e-05
1.26899e-05
1.2693e-05
1.26954e-05
1.26975e-05
1.26991e-05
1.27001e-05
1.27007e-05
1.27009e-05
1.27006e-05
1.26988e-05
1.2696e-05
1.26935e-05
1.2691e-05
1.26881e-05
1.26848e-05
1.26811e-05
1.27019e-05
1.27783e-05
1.28522e-05
1.29273e-05
1.29801e-05
1.29713e-05
1.29621e-05
1.29171e-05
1.28639e-05
1.2811e-05
1.27584e-05
1.26744e-05
1.25775e-05
1.24834e-05
1.2393e-05
1.23031e-05
1.22125e-05
1.21262e-05
1.20798e-05
1.2034e-05
1.19885e-05
1.1944e-05
1.18991e-05
1.18526e-05
3.1099e-05
5.3742e-05
6.67289e-05
8.05876e-05
8.28257e-05
7.62757e-05
7.08384e-05
6.33463e-05
5.00594e-05
3.84548e-05
2.66844e-05
1.63585e-05
9.77592e-06
1.25288e-05
1.86443e-05
1.82564e-05
1.80841e-05
1.79183e-05
1.77583e-05
1.76039e-05
1.74549e-05
1.73112e-05
1.71587e-05
1.68844e-05
1.67354e-05
1.65898e-05
1.64492e-05
1.63132e-05
1.61818e-05
1.60545e-05
1.59311e-05
1.58116e-05
1.56956e-05
1.55832e-05
1.54736e-05
1.53672e-05
1.52633e-05
1.51622e-05
1.50639e-05
1.49676e-05
1.48745e-05
1.47831e-05
1.46941e-05
1.46073e-05
1.45219e-05
1.41323e-05
1.35659e-05
1.33276e-05
1.32826e-05
1.32895e-05
1.32958e-05
1.33012e-05
1.33062e-05
1.33105e-05
1.33139e-05
1.3317e-05
1.33191e-05
1.33211e-05
1.33247e-05
1.33268e-05
1.33261e-05
1.33251e-05
1.33238e-05
1.33217e-05
1.33193e-05
1.33165e-05
1.33132e-05
1.33096e-05
1.33056e-05
1.33011e-05
1.32606e-05
1.32048e-05
1.31495e-05
1.30948e-05
1.30752e-05
1.3101e-05
1.31258e-05
1.31526e-05
1.31599e-05
1.31052e-05
1.30508e-05
1.29968e-05
1.29431e-05
1.28897e-05
1.27945e-05
1.2695e-05
1.25986e-05
1.25051e-05
1.24111e-05
1.23177e-05
1.22444e-05
1.2197e-05
1.215e-05
1.21035e-05
1.20574e-05
1.20118e-05
1.19665e-05
1.19223e-05
1.18776e-05
1.18314e-05
9.27984e-05
9.05517e-05
8.01573e-05
6.19462e-05
4.15645e-05
2.75391e-05
1.49245e-05
1.2477e-05
2.01069e-05
1.9548e-05
1.93159e-05
1.90946e-05
1.88834e-05
1.86817e-05
1.84889e-05
1.83039e-05
1.81265e-05
1.79559e-05
1.77918e-05
1.76339e-05
1.74816e-05
1.73346e-05
1.71926e-05
1.6994e-05
1.67356e-05
1.65991e-05
1.64557e-05
1.63172e-05
1.61834e-05
1.60539e-05
1.59283e-05
1.58068e-05
1.56888e-05
1.55745e-05
1.54632e-05
1.53551e-05
1.52502e-05
1.51474e-05
1.5048e-05
1.49504e-05
1.49406e-05
1.4935e-05
1.49289e-05
1.49232e-05
1.46349e-05
1.41276e-05
1.39507e-05
1.39578e-05
1.39692e-05
1.39768e-05
1.39785e-05
1.39795e-05
1.39796e-05
1.39795e-05
1.39787e-05
1.3977e-05
1.3975e-05
1.39726e-05
1.39561e-05
1.38918e-05
1.38283e-05
1.37654e-05
1.37034e-05
1.36421e-05
1.35815e-05
1.35216e-05
1.34625e-05
1.3404e-05
1.3346e-05
1.32887e-05
1.3232e-05
1.31759e-05
1.31718e-05
1.31942e-05
1.32168e-05
1.32413e-05
1.32423e-05
1.31867e-05
1.31315e-05
1.30767e-05
1.30222e-05
1.29187e-05
1.28164e-05
1.27175e-05
1.2621e-05
1.25237e-05
1.24275e-05
1.23644e-05
1.23159e-05
1.22677e-05
1.222e-05
1.21728e-05
1.2126e-05
1.20797e-05
1.20339e-05
1.19886e-05
1.19436e-05
1.18996e-05
1.1855e-05
1.18092e-05
5.72749e-05
3.178e-05
1.635e-05
1.63602e-05
2.12592e-05
2.07154e-05
2.04215e-05
2.01428e-05
1.98783e-05
1.96272e-05
1.93882e-05
1.9161e-05
1.89444e-05
1.87373e-05
1.85387e-05
1.83485e-05
1.81665e-05
1.79918e-05
1.78236e-05
1.76617e-05
1.75057e-05
1.7355e-05
1.72096e-05
1.70698e-05
1.68388e-05
1.66057e-05
1.64598e-05
1.63189e-05
1.61827e-05
1.60511e-05
1.59236e-05
1.58001e-05
1.57123e-05
1.57021e-05
1.56927e-05
1.5683e-05
1.56744e-05
1.56651e-05
1.56563e-05
1.56683e-05
1.56796e-05
1.59851e-05
1.67447e-05
1.71862e-05
1.72688e-05
1.75988e-05
1.80687e-05
1.84682e-05
1.87774e-05
1.8969e-05
1.91006e-05
1.91756e-05
1.91962e-05
1.91652e-05
1.90857e-05
1.89596e-05
1.87894e-05
1.85778e-05
1.83269e-05
1.80384e-05
1.7715e-05
1.73584e-05
1.69707e-05
1.65539e-05
1.61101e-05
1.56408e-05
1.5148e-05
1.46334e-05
1.40992e-05
1.35469e-05
1.32773e-05
1.32961e-05
1.33162e-05
1.33378e-05
1.33259e-05
1.32693e-05
1.32131e-05
1.31559e-05
1.30488e-05
1.29432e-05
1.28409e-05
1.2741e-05
1.26405e-05
1.25414e-05
1.24857e-05
1.24361e-05
1.23869e-05
1.23381e-05
1.22898e-05
1.22419e-05
1.21945e-05
1.21474e-05
1.21008e-05
1.20547e-05
1.20091e-05
1.1964e-05
1.19193e-05
1.18756e-05
1.18313e-05
1.17858e-05
1.90836e-05
2.22828e-05
2.184e-05
2.14791e-05
2.1141e-05
2.08217e-05
2.05192e-05
2.02329e-05
1.99612e-05
1.97037e-05
1.9458e-05
1.92246e-05
1.90016e-05
1.87892e-05
1.85861e-05
1.83914e-05
1.82044e-05
1.80247e-05
1.78522e-05
1.76864e-05
1.75269e-05
1.73729e-05
1.72243e-05
1.70805e-05
1.69448e-05
1.6694e-05
1.65241e-05
1.65068e-05
1.64908e-05
1.64761e-05
1.6462e-05
1.64583e-05
1.64774e-05
1.64848e-05
1.66004e-05
1.80243e-05
1.93502e-05
2.05751e-05
2.16985e-05
2.27234e-05
2.36162e-05
2.45049e-05
2.50511e-05
2.50174e-05
2.52175e-05
2.5617e-05
2.58846e-05
2.57044e-05
2.55251e-05
2.53471e-05
2.517e-05
2.49937e-05
2.4819e-05
2.46449e-05
2.44718e-05
2.42999e-05
2.41291e-05
2.39591e-05
2.37903e-05
2.36224e-05
2.34553e-05
2.32893e-05
2.31243e-05
2.29602e-05
2.27971e-05
2.24828e-05
2.19468e-05
2.13884e-05
2.08094e-05
2.02598e-05
1.96916e-05
1.91313e-05
1.85048e-05
1.78365e-05
1.71551e-05
1.64079e-05
1.56505e-05
1.48869e-05
1.41186e-05
1.33455e-05
1.26606e-05
1.26091e-05
1.25583e-05
1.25079e-05
1.2458e-05
1.24085e-05
1.23594e-05
1.23107e-05
1.22625e-05
1.22147e-05
1.21675e-05
1.21207e-05
1.20744e-05
1.20285e-05
1.19831e-05
1.19382e-05
1.18937e-05
1.18502e-05
1.18062e-05
1.1761e-05
1.91319e-05
2.23436e-05
2.19692e-05
2.15994e-05
2.12519e-05
2.09248e-05
2.0614e-05
2.03201e-05
2.00416e-05
1.97772e-05
1.95254e-05
1.92857e-05
1.9057e-05
1.88391e-05
1.86306e-05
1.84308e-05
1.82393e-05
1.80556e-05
1.78793e-05
1.77096e-05
1.75462e-05
1.74945e-05
1.74919e-05
1.74899e-05
1.74883e-05
1.74948e-05
1.74279e-05
1.73431e-05
1.73073e-05
1.7286e-05
1.84689e-05
2.03924e-05
2.21658e-05
2.37651e-05
2.55466e-05
2.71852e-05
2.83033e-05
2.8869e-05
2.86522e-05
2.84383e-05
2.82268e-05
2.75986e-05
2.60089e-05
2.47628e-05
2.39441e-05
2.31971e-05
2.24835e-05
2.18737e-05
2.13724e-05
2.09357e-05
2.05607e-05
2.02436e-05
1.99817e-05
1.97726e-05
1.9613e-05
1.95006e-05
1.94335e-05
1.94089e-05
1.94248e-05
1.94794e-05
1.95708e-05
1.96969e-05
1.98562e-05
2.00471e-05
2.0268e-05
2.05282e-05
2.08212e-05
2.113e-05
2.15314e-05
2.1966e-05
2.21151e-05
2.19638e-05
2.17504e-05
2.15265e-05
2.13122e-05
2.11021e-05
2.08879e-05
2.0678e-05
2.03773e-05
1.95981e-05
1.87261e-05
1.78945e-05
1.70969e-05
1.62951e-05
1.54901e-05
1.46834e-05
1.38765e-05
1.30709e-05
1.22688e-05
1.21864e-05
1.21393e-05
1.20927e-05
1.20466e-05
1.2001e-05
1.19558e-05
1.19112e-05
1.18669e-05
1.18236e-05
1.17798e-05
1.17348e-05
1.92487e-05
2.24791e-05
2.20947e-05
2.1716e-05
2.13596e-05
2.10243e-05
2.07056e-05
2.04049e-05
2.01184e-05
1.98475e-05
1.95895e-05
1.93442e-05
1.91094e-05
1.88857e-05
1.86722e-05
1.8468e-05
1.82871e-05
1.82765e-05
1.82681e-05
1.82613e-05
1.82963e-05
1.83469e-05
1.83551e-05
1.83457e-05
1.83369e-05
1.83284e-05
1.85356e-05
2.07787e-05
2.29246e-05
2.53403e-05
2.78476e-05
2.9797e-05
3.02031e-05
2.99669e-05
2.9598e-05
2.78903e-05
2.61781e-05
2.44331e-05
2.29676e-05
2.17644e-05
2.06524e-05
1.91016e-05
1.77893e-05
1.69766e-05
1.62472e-05
1.55968e-05
1.50798e-05
1.49963e-05
1.49146e-05
1.4834e-05
1.4755e-05
1.46777e-05
1.46015e-05
1.45266e-05
1.44533e-05
1.43811e-05
1.431e-05
1.42401e-05
1.41713e-05
1.41035e-05
1.40366e-05
1.39709e-05
1.39059e-05
1.38419e-05
1.37787e-05
1.38617e-05
1.41593e-05
1.45535e-05
1.49814e-05
1.53133e-05
1.5627e-05
1.59632e-05
1.63216e-05
1.66993e-05
1.70958e-05
1.75649e-05
1.80519e-05
1.85604e-05
1.913e-05
1.97317e-05
2.01871e-05
2.0037e-05
1.98885e-05
1.97415e-05
1.95962e-05
1.94523e-05
1.931e-05
1.91693e-05
1.82304e-05
1.72829e-05
1.64149e-05
1.555e-05
1.46876e-05
1.38289e-05
1.29756e-05
1.21298e-05
1.18387e-05
1.17957e-05
1.17521e-05
1.17074e-05
1.93641e-05
2.26108e-05
2.22165e-05
2.18285e-05
2.14639e-05
2.11199e-05
2.0794e-05
2.04859e-05
2.01929e-05
1.99149e-05
1.96501e-05
1.93989e-05
1.91593e-05
1.90951e-05
1.9076e-05
1.9067e-05
1.91293e-05
1.91825e-05
1.9166e-05
1.91514e-05
1.9138e-05
1.90183e-05
1.88551e-05
1.88418e-05
2.16837e-05
2.44698e-05
2.77172e-05
3.07339e-05
3.13773e-05
3.11548e-05
2.96742e-05
2.70999e-05
2.45805e-05
2.25749e-05
2.08574e-05
1.92758e-05
1.78235e-05
1.69359e-05
1.68154e-05
1.66981e-05
1.61213e-05
1.55027e-05
1.58541e-05
1.6346e-05
1.67538e-05
1.70813e-05
1.72252e-05
1.66783e-05
1.61845e-05
1.57412e-05
1.53452e-05
1.49943e-05
1.46863e-05
1.44186e-05
1.4189e-05
1.39959e-05
1.3837e-05
1.37106e-05
1.36152e-05
1.35492e-05
1.35109e-05
1.3499e-05
1.36245e-05
1.3805e-05
1.37416e-05
1.36791e-05
1.36714e-05
1.36096e-05
1.34794e-05
1.33438e-05
1.32113e-05
1.30807e-05
1.30128e-05
1.29583e-05
1.29045e-05
1.28511e-05
1.27984e-05
1.27461e-05
1.28337e-05
1.3368e-05
1.39172e-05
1.44804e-05
1.50568e-05
1.56456e-05
1.62458e-05
1.68569e-05
1.74778e-05
1.81738e-05
1.89465e-05
1.88594e-05
1.87232e-05
1.85886e-05
1.84555e-05
1.83239e-05
1.81938e-05
1.79147e-05
1.69391e-05
1.60149e-05
1.51151e-05
1.41793e-05
1.94782e-05
2.27388e-05
2.2335e-05
2.19376e-05
2.15648e-05
2.12128e-05
2.08789e-05
2.05636e-05
2.0264e-05
1.99795e-05
1.99336e-05
1.99024e-05
1.99538e-05
2.00228e-05
2.00138e-05
1.99893e-05
1.99527e-05
1.97537e-05
1.95619e-05
1.93773e-05
1.91989e-05
2.10713e-05
2.43534e-05
2.83311e-05
3.21019e-05
3.23993e-05
3.1805e-05
2.8544e-05
2.52639e-05
2.26047e-05
2.03901e-05
1.83469e-05
1.75686e-05
1.74282e-05
1.72917e-05
1.71592e-05
1.70303e-05
1.76611e-05
1.65013e-05
1.52588e-05
1.37375e-05
1.29415e-05
1.23446e-05
1.16772e-05
1.10074e-05
1.03715e-05
9.67388e-06
9.16228e-06
8.78117e-06
8.44857e-06
8.16087e-06
7.91408e-06
7.70485e-06
7.5301e-06
7.38665e-06
7.2717e-06
7.18304e-06
7.11861e-06
7.07655e-06
7.05535e-06
7.05385e-06
7.08356e-06
7.14006e-06
7.16151e-06
7.13351e-06
7.17618e-06
7.24098e-06
7.27034e-06
7.3551e-06
7.60116e-06
7.9001e-06
8.22625e-06
8.5789e-06
8.95723e-06
9.36028e-06
9.78702e-06
1.02364e-05
1.07072e-05
1.11983e-05
1.17087e-05
1.22371e-05
1.2508e-05
1.24584e-05
1.24092e-05
1.23606e-05
1.23124e-05
1.22648e-05
1.22176e-05
1.27919e-05
1.34357e-05
1.409e-05
1.4754e-05
1.54266e-05
1.6107e-05
1.67945e-05
1.75798e-05
1.78856e-05
1.77788e-05
1.76522e-05
1.75206e-05
1.959e-05
2.28625e-05
2.24495e-05
2.20432e-05
2.16622e-05
2.13023e-05
2.09606e-05
2.08168e-05
2.07666e-05
2.08397e-05
2.09138e-05
2.08756e-05
2.08397e-05
2.06419e-05
2.04116e-05
2.01908e-05
1.99787e-05
1.9775e-05
1.95789e-05
2.26754e-05
2.69817e-05
3.15904e-05
3.34719e-05
3.29935e-05
2.88606e-05
2.48947e-05
2.1888e-05
1.9263e-05
1.8166e-05
1.79844e-05
1.78425e-05
1.76911e-05
1.65878e-05
1.47453e-05
1.3317e-05
1.20214e-05
1.12132e-05
9.6978e-06
8.20368e-06
7.21029e-06
6.47511e-06
5.94729e-06
5.41096e-06
5.18544e-06
5.30827e-06
5.64562e-06
5.90325e-06
5.82881e-06
5.7725e-06
5.73213e-06
5.7055e-06
5.69101e-06
5.68786e-06
5.69547e-06
5.71332e-06
5.74145e-06
5.7802e-06
5.82989e-06
5.89096e-06
5.93377e-06
5.90224e-06
5.88764e-06
5.98345e-06
6.09009e-06
6.01356e-06
5.92302e-06
5.84688e-06
5.73855e-06
5.65264e-06
5.58706e-06
5.50793e-06
5.43152e-06
5.36051e-06
5.28246e-06
5.20542e-06
5.18125e-06
5.21626e-06
5.31445e-06
5.47727e-06
5.70358e-06
5.90806e-06
6.17848e-06
6.59459e-06
7.03622e-06
7.51736e-06
8.033e-06
8.57873e-06
9.15071e-06
9.7457e-06
1.03609e-05
1.09939e-05
1.16426e-05
1.19553e-05
1.19112e-05
1.18676e-05
1.18245e-05
1.2453e-05
1.31485e-05
1.38554e-05
1.45108e-05
1.97005e-05
2.29821e-05
2.25598e-05
2.21452e-05
2.17645e-05
2.16856e-05
2.17184e-05
2.17978e-05
2.17808e-05
2.17274e-05
2.14526e-05
2.11834e-05
2.09259e-05
2.068e-05
2.04442e-05
2.02183e-05
2.00014e-05
2.35652e-05
2.87834e-05
3.40377e-05
3.42981e-05
3.11992e-05
2.63547e-05
2.24797e-05
1.93568e-05
1.85869e-05
1.84259e-05
1.82706e-05
1.61006e-05
1.36901e-05
1.16184e-05
9.63609e-06
7.65632e-06
6.46596e-06
5.77985e-06
5.36848e-06
5.36508e-06
6.05613e-06
6.08846e-06
6.11057e-06
5.86716e-06
5.6932e-06
5.55957e-06
5.45819e-06
5.38327e-06
5.34531e-06
5.33415e-06
5.29772e-06
5.27091e-06
5.25135e-06
5.23749e-06
5.22823e-06
5.22294e-06
5.22158e-06
5.2245e-06
5.23225e-06
5.24567e-06
5.26583e-06
5.29487e-06
5.37072e-06
5.48516e-06
5.5989e-06
5.74438e-06
5.89662e-06
5.99979e-06
6.13581e-06
6.28907e-06
6.29221e-06
6.26375e-06
6.31652e-06
6.38059e-06
6.45122e-06
6.53302e-06
6.64682e-06
6.76439e-06
6.85216e-06
6.94298e-06
7.06326e-06
7.04743e-06
7.0318e-06
7.01634e-06
6.80251e-06
6.37742e-06
5.99447e-06
5.66639e-06
5.40732e-06
5.23144e-06
5.15102e-06
5.17393e-06
5.30184e-06
5.53011e-06
5.71839e-06
6.03621e-06
6.55425e-06
7.08322e-06
7.657e-06
8.26701e-06
8.90647e-06
9.57181e-06
1.02652e-05
1.98099e-05
2.30978e-05
2.2689e-05
2.25893e-05
2.26701e-05
2.27483e-05
2.26681e-05
2.24177e-05
2.20986e-05
2.17953e-05
2.15058e-05
2.12301e-05
2.09669e-05
2.07156e-05
2.04748e-05
2.36627e-05
2.95866e-05
3.52901e-05
3.51954e-05
3.0108e-05
2.47262e-05
2.08874e-05
1.90992e-05
1.89185e-05
1.78399e-05
1.47673e-05
1.20717e-05
8.75404e-06
6.3543e-06
5.36291e-06
5.19786e-06
5.77082e-06
6.18532e-06
6.14193e-06
6.22811e-06
6.23512e-06
5.90789e-06
5.66818e-06
5.47183e-06
5.42259e-06
5.3752e-06
5.2979e-06
5.26585e-06
5.26603e-06
5.28726e-06
5.31894e-06
5.30536e-06
5.2927e-06
5.28094e-06
5.26999e-06
5.25972e-06
5.25005e-06
5.24095e-06
5.23235e-06
5.22416e-06
5.21636e-06
5.20891e-06
5.18085e-06
5.15786e-06
5.14794e-06
5.14942e-06
5.17356e-06
5.19433e-06
5.22076e-06
5.2811e-06
5.36941e-06
5.46487e-06
5.61773e-06
5.79572e-06
5.96658e-06
6.13942e-06
6.33102e-06
6.39732e-06
6.37028e-06
6.44366e-06
6.52517e-06
6.60401e-06
6.72044e-06
6.85887e-06
6.95525e-06
7.05445e-06
7.14277e-06
7.1145e-06
7.08616e-06
7.05776e-06
7.02929e-06
7.00075e-06
6.97219e-06
6.94362e-06
6.91504e-06
6.88646e-06
6.85788e-06
6.58185e-06
6.09962e-06
5.69859e-06
5.38679e-06
5.18208e-06
5.0997e-06
5.14533e-06
5.04898e-06
1.99174e-05
2.35236e-05
2.36182e-05
2.3687e-05
2.35758e-05
2.3194e-05
2.28324e-05
2.24893e-05
2.21625e-05
2.18518e-05
2.15564e-05
2.12751e-05
2.1006e-05
2.29045e-05
2.92436e-05
3.58912e-05
3.60589e-05
3.00799e-05
2.41307e-05
2.00118e-05
1.94817e-05
1.84866e-05
1.48771e-05
1.12799e-05
7.30988e-06
5.33846e-06
5.27994e-06
6.2695e-06
6.38046e-06
6.32019e-06
6.2288e-06
6.33502e-06
6.36941e-06
5.94437e-06
5.65143e-06
5.63882e-06
5.79086e-06
5.73089e-06
5.57815e-06
5.44087e-06
5.39986e-06
5.37939e-06
5.48818e-06
5.83927e-06
6.24719e-06
6.64815e-06
7.00443e-06
7.29542e-06
7.51081e-06
7.64635e-06
7.70169e-06
7.67928e-06