/*--------------------------------*- C++ -*----------------------------------*\
| =========                 |                                                 |
| \\      /  F ield         | foam-extend: Open Source CFD                    |
|  \\    /   O peration     | Version:     4.1                                |
|   \\  /    A nd           | Web:         http://www.foam-extend.org         |
|    \\/     M anipulation  |                                                 |
\*---------------------------------------------------------------------------*/
FoamFile
{
    version     2.0;
    format      ascii;
    class       volScalarField;
    location    "8";
    object      sigmaHyd;
}
// * * * * * * * * * * * * * * * * * * * * * * * * * * * * * * * * * * * * * //

dimensions      [1 -1 -2 0 0 0 0];

internalField   nonuniform List<scalar> 
100000
(
-376498
-375535
-375720
-375319
-375233
-374993
-374842
-374654
-374494
-374328
-374173
-374020
-373873
-373729
-373590
-373455
-373324
-373197
-373073
-372953
-372836
-372722
-372612
-372504
-372399
-372297
-372198
-372099
-372007
-371906
-371822
-371701
-371621
-371579
-371485
-371403
-371324
-371244
-371169
-371093
-371021
-370949
-370879
-370811
-370744
-370678
-370613
-370550
-370487
-370426
-370366
-370307
-370249
-370192
-370136
-370081
-370026
-369973
-369920
-369868
-369817
-369766
-369716
-369667
-369618
-369570
-369523
-369476
-369429
-369383
-369338
-369293
-369249
-369205
-369162
-369119
-369077
-369035
-368993
-368952
-368910
-368869
-368829
-368788
-368750
-368708
-368668
-368628
-368589
-368549
-368511
-368473
-368437
-368401
-368371
-368336
-368326
-368285
-368347
-368124
-390135
-388838
-388792
-388118
-387793
-387306
-386923
-386505
-386123
-385739
-385373
-385014
-384667
-384328
-384000
-383679
-383368
-383064
-382769
-382481
-382200
-381927
-381660
-381400
-381147
-380900
-380662
-380425
-380212
-379973
-379850
-379519
-379462
-379101
-379017
-378722
-378544
-378336
-378153
-377967
-377789
-377614
-377444
-377276
-377112
-376951
-376794
-376639
-376487
-376338
-376192
-376048
-375907
-375768
-375632
-375498
-375366
-375237
-375110
-374984
-374861
-374740
-374620
-374503
-374387
-374273
-374160
-374049
-373940
-373832
-373726
-373621
-373518
-373416
-373316
-373217
-373120
-373023
-372928
-372833
-372739
-372646
-372556
-372465
-372378
-372288
-372200
-372113
-372026
-371942
-371859
-371776
-371697
-371616
-371544
-371463
-371410
-371315
-371334
-371018
-403765
-402135
-401858
-400912
-400346
-399613
-398997
-398349
-397745
-397145
-396568
-396004
-395457
-394923
-394404
-393899
-393406
-392927
-392459
-392004
-391560
-391127
-390704
-390292
-389890
-389497
-389114
-388739
-388375
-388017
-387669
-387340
-386961
-386624
-386339
-386019
-385720
-385417
-385124
-384835
-384553
-384276
-384005
-383739
-383478
-383223
-382972
-382726
-382484
-382247
-382015
-381786
-381562
-381342
-381125
-380913
-380704
-380499
-380297
-380099
-379904
-379712
-379523
-379337
-379154
-378973
-378796
-378621
-378448
-378279
-378112
-377947
-377785
-377624
-377467
-377312
-377160
-377008
-376862
-376716
-376569
-376424
-376287
-376146
-376019
-375875
-375737
-375599
-375466
-375335
-375207
-375080
-374959
-374835
-374723
-374595
-374507
-374348
-374340
-373894
-417384
-415422
-414915
-413696
-412890
-411911
-411063
-410185
-409360
-408543
-407755
-406986
-406238
-405510
-404801
-404111
-403438
-402783
-402144
-401520
-400913
-400320
-399742
-399177
-398627
-398089
-397564
-397050
-396552
-396056
-395579
-395097
-394568
-394185
-393762
-393329
-392914
-392499
-392097
-391700
-391314
-390934
-390562
-390197
-389840
-389490
-389146
-388809
-388478
-388153
-387834
-387521
-387214
-386912
-386615
-386324
-386038
-385758
-385481
-385210
-384943
-384681
-384422
-384168
-383918
-383671
-383429
-383190
-382955
-382723
-382495
-382271
-382050
-381832
-381619
-381407
-381202
-380995
-380798
-380593
-380387
-380194
-380006
-379814
-379641
-379451
-379256
-379079
-378897
-378722
-378549
-378378
-378213
-378044
-377889
-377716
-377585
-377378
-377327
-376824
-430991
-428696
-427958
-426467
-425422
-424198
-423117
-422010
-420963
-419929
-418931
-417957
-417010
-416087
-415188
-414313
-413460
-412629
-411818
-411028
-410257
-409505
-408771
-408054
-407355
-406672
-406005
-405352
-404715
-404091
-403480
-402885
-402289
-401723
-401171
-400626
-400095
-399571
-399060
-398558
-398067
-397585
-397113
-396650
-396196
-395751
-395314
-394886
-394466
-394053
-393648
-393251
-392860
-392477
-392100
-391730
-391367
-391011
-390661
-390317
-389978
-389645
-389318
-388995
-388677
-388365
-388058
-387755
-387457
-387163
-386874
-386589
-386309
-386031
-385761
-385489
-385232
-384965
-384724
-384487
-384215
-383957
-383734
-383486
-383346
-383057
-382799
-382553
-382329
-382103
-381888
-381672
-381464
-381252
-381054
-380836
-380665
-380411
-380321
-379765
-444580
-441953
-440985
-439223
-437939
-436469
-435156
-433820
-432552
-431302
-430094
-428914
-427768
-426651
-425563
-424503
-423470
-422463
-421482
-420524
-419590
-418679
-417789
-416921
-416073
-415245
-414436
-413645
-412872
-412116
-411374
-410650
-409932
-409251
-408577
-407918
-407272
-406638
-406018
-405409
-404813
-404229
-403656
-403095
-402545
-402005
-401476
-400956
-400447
-399947
-399456
-398973
-398500
-398035
-397579
-397129
-396690
-396260
-395835
-395419
-395008
-394605
-394207
-393817
-393432
-393054
-392682
-392315
-391954
-391599
-391250
-390905
-390567
-390232
-389907
-389581
-389277
-388954
-388709
-388349
-387967
-387715
-387431
-387117
-386935
-386633
-386241
-386026
-385741
-385486
-385223
-384965
-384712
-384456
-384215
-383954
-383740
-383443
-383314
-382713
-458149
-455191
-453994
-451960
-450437
-448722
-447178
-445613
-444124
-442658
-441240
-439856
-438511
-437200
-435923
-434679
-433466
-432284
-431131
-430007
-428910
-427839
-426795
-425775
-424779
-423806
-422856
-421927
-421019
-420131
-419261
-418413
-417579
-416769
-415975
-415199
-414439
-413694
-412964
-412250
-411549
-410863
-410191
-409531
-408885
-408251
-407629
-407019
-406420
-405833
-405256
-404689
-404134
-403586
-403051
-402522
-402003
-401500
-401003
-400513
-400032
-399557
-399091
-398632
-398181
-397736
-397299
-396869
-396445
-396028
-395617
-395212
-394813
-394416
-394032
-393631
-393274
-392814
-392571
-391961
-391838
-391351
-391037
-390669
-390731
-389938
-389749
-389382
-389146
-388832
-388546
-388244
-387952
-387653
-387371
-387068
-386813
-386473
-386305
-385659
-471695
-468407
-466980
-464675
-462914
-460955
-459179
-457385
-455676
-453995
-452368
-450779
-449236
-447730
-446265
-444837
-443445
-442087
-440764
-439473
-438214
-436985
-435785
-434614
-433470
-432353
-431261
-430194
-429151
-428132
-427134
-426159
-425203
-424272
-423360
-422468
-421594
-420739
-419901
-419079
-418275
-417487
-416714
-415957
-415214
-414486
-413771
-413071
-412383
-411708
-411046
-410394
-409756
-409124
-408510
-407897
-407309
-406739
-406162
-405602
-405047
-404503
-403967
-403440
-402921
-402411
-401910
-401416
-400930
-400451
-399980
-399516
-399059
-398608
-398164
-397726
-397287
-396871
-396400
-396073
-395718
-395258
-394857
-394492
-394028
-393694
-393400
-392964
-392615
-392242
-391892
-391539
-391198
-390854
-390527
-390179
-389883
-389500
-389294
-388604
-485215
-481596
-479940
-477365
-475367
-473163
-471157
-469135
-467206
-465309
-463474
-461681
-459939
-458241
-456587
-454975
-453404
-451872
-450378
-448921
-447500
-446112
-444758
-443436
-442144
-440883
-439651
-438446
-437269
-436118
-434992
-433891
-432814
-431762
-430731
-429723
-428736
-427770
-426823
-425896
-424988
-424098
-423225
-422370
-421532
-420709
-419903
-419112
-418336
-417574
-416828
-416092
-415376
-414661
-413975
-413271
-412583
-411951
-411320
-410678
-410058
-409439
-408835
-408239
-407654
-407078
-406512
-405954
-405406
-404866
-404334
-403811
-403295
-402787
-402288
-401792
-401311
-400830
-400371
-399931
-399459
-398994
-398569
-398124
-397781
-397300
-396863
-396423
-396017
-395606
-395211
-394815
-394431
-394043
-393674
-393284
-392947
-392522
-392278
-391544
-498704
-494756
-492872
-490028
-487792
-485344
-483108
-480859
-478710
-476599
-474555
-472560
-470619
-468728
-466886
-465091
-463342
-461635
-459972
-458349
-456765
-455220
-453711
-452238
-450800
-449395
-448022
-446680
-445369
-444087
-442833
-441607
-440407
-439234
-438086
-436963
-435863
-434786
-433732
-432698
-431686
-430695
-429723
-428770
-427835
-426919
-426021
-425139
-424275
-423426
-422593
-421772
-420971
-420167
-419401
-418572
-417870
-417225
-416455
-415753
-415050
-414364
-413690
-413027
-412375
-411734
-411104
-410483
-409873
-409272
-408680
-408098
-407524
-406959
-406403
-405855
-405315
-404787
-404260
-403755
-403252
-402747
-402254
-401768
-401285
-400812
-400351
-399880
-399427
-398973
-398531
-398090
-397661
-397229
-396817
-396385
-396006
-395539
-395256
-394480
-512161
-507884
-505772
-502659
-500186
-497496
-495030
-492554
-490186
-487861
-485609
-483411
-481274
-479190
-477161
-475183
-473255
-471375
-469542
-467753
-466009
-464306
-462643
-461020
-459435
-457886
-456373
-454895
-453449
-452036
-450655
-449303
-447981
-446688
-445423
-444185
-442973
-441785
-440623
-439484
-438369
-437276
-436204
-435154
-434124
-433115
-432125
-431154
-430202
-429267
-428354
-427450
-426586
-425697
-424943
-423966
-423488
-422333
-421680
-420799
-420054
-419278
-418539
-417804
-417087
-416380
-415685
-415001
-414329
-413667
-413015
-412374
-411742
-411121
-410509
-409906
-409313
-408729
-408154
-407590
-407031
-406478
-405939
-405401
-404882
-404354
-403838
-403324
-402823
-402325
-401837
-401353
-400880
-400406
-399951
-399477
-399057
-398549
-398228
-397409
-525581
-520976
-518637
-515256
-512547
-509615
-506920
-504218
-501631
-499093
-496634
-494233
-491899
-489624
-487407
-485247
-483142
-481089
-479086
-477133
-475227
-473367
-471551
-469778
-468046
-466355
-464702
-463087
-461508
-459965
-458455
-456979
-455535
-454123
-452740
-451388
-450063
-448766
-447496
-446252
-445033
-443839
-442669
-441521
-440396
-439293
-438212
-437151
-436110
-435089
-434087
-433104
-432139
-431197
-430259
-429394
-428405
-427476
-426678
-425817
-424995
-424169
-423363
-422566
-421783
-421012
-420254
-419507
-418773
-418051
-417339
-416639
-415950
-415271
-414603
-413945
-413297
-412659
-412030
-411412
-410802
-410200
-409607
-409021
-408444
-407874
-407313
-406757
-406210
-405668
-405136
-404609
-404092
-403575
-403078
-402562
-402101
-401551
-401192
-400331
-538961
-534030
-531464
-527816
-524872
-521698
-518775
-515847
-513043
-510292
-507626
-505024
-502493
-500027
-497624
-495282
-492999
-490773
-488603
-486485
-484418
-482402
-480433
-478510
-476633
-474799
-473007
-471255
-469544
-467870
-466234
-464633
-463067
-461535
-460036
-458569
-457133
-455727
-454349
-453000
-451679
-450384
-449114
-447870
-446650
-445454
-444281
-443131
-442003
-440895
-439809
-438741
-437698
-436664
-435660
-434652
-433651
-432710
-431791
-430857
-429956
-429059
-428182
-427317
-426468
-425632
-424810
-424001
-423205
-422422
-421651
-420892
-420145
-419409
-418685
-417972
-417270
-416578
-415897
-415225
-414564
-413911
-413269
-412634
-412010
-411391
-410782
-410180
-409588
-409002
-408425
-407854
-407294
-406734
-406196
-405638
-405137
-404545
-404148
-403245
-552298
-547041
-544250
-540335
-537157
-533742
-530591
-527439
-524418
-521454
-518582
-515780
-513054
-510396
-507808
-505285
-502826
-500428
-498089
-495807
-493581
-491408
-489286
-487215
-485192
-483216
-481285
-479398
-477554
-475750
-473987
-472262
-470575
-468924
-467309
-465728
-464180
-462665
-461181
-459727
-458303
-456907
-455540
-454199
-452884
-451596
-450332
-449092
-447875
-446682
-445511
-444361
-443232
-442124
-441033
-439967
-438903
-437866
-436861
-435863
-434889
-433926
-432982
-432051
-431136
-430236
-429351
-428480
-427623
-426779
-425949
-425131
-424326
-423534
-422754
-421986
-421229
-420484
-419750
-419026
-418313
-417610
-416918
-416234
-415560
-414896
-414240
-413593
-412955
-412324
-411704
-411089
-410486
-409884
-409304
-408704
-408163
-407530
-407094
-406150
-565589
-560008
-556992
-552811
-549400
-545745
-542367
-538991
-535754
-532579
-529501
-526498
-523577
-520730
-517957
-515253
-512618
-510048
-507542
-505097
-502711
-500383
-498109
-495890
-493722
-491604
-489535
-487513
-485536
-483603
-481714
-479865
-478057
-476288
-474557
-472862
-471204
-469579
-467989
-466431
-464904
-463409
-461943
-460506
-459097
-457716
-456361
-455032
-453729
-452449
-451194
-449961
-448752
-447562
-446395
-445247
-444117
-443012
-441929
-440861
-439814
-438782
-437768
-436771
-435791
-434826
-433877
-432944
-432025
-431121
-430232
-429356
-428494
-427645
-426809
-425986
-425175
-424377
-423590
-422815
-422051
-421298
-420555
-419823
-419102
-418389
-417687
-416994
-416311
-415636
-414971
-414313
-413668
-413023
-412401
-411760
-411178
-410505
-410031
-409046
-578831
-572927
-569687
-565241
-561597
-557703
-554100
-550500
-547047
-543662
-540380
-537178
-534062
-531026
-528068
-525185
-522374
-519634
-516960
-514353
-511808
-509324
-506900
-504532
-502220
-499961
-497754
-495597
-493489
-491427
-489412
-487440
-485511
-483624
-481778
-479970
-478201
-476468
-474772
-473110
-471482
-469886
-468323
-466790
-465287
-463814
-462369
-460951
-459560
-458196
-456856
-455542
-454251
-452983
-451738
-450515
-449312
-448132
-446974
-445835
-444717
-443617
-442536
-441473
-440427
-439399
-438387
-437392
-436412
-435448
-434499
-433565
-432646
-431741
-430849
-429972
-429107
-428255
-427416
-426589
-425775
-424971
-424180
-423399
-422629
-421870
-421122
-420383
-419654
-418935
-418227
-417525
-416837
-416151
-415487
-414805
-414183
-413470
-412957
-411932
-592020
-585794
-582331
-577622
-573745
-569614
-565785
-561963
-558296
-554701
-551215
-547814
-544506
-541281
-538139
-535077
-532092
-529181
-526342
-523572
-520869
-518231
-515656
-513141
-510685
-508286
-505941
-503650
-501410
-499221
-497079
-494985
-492936
-490932
-488970
-487050
-485170
-483330
-481528
-479762
-478033
-476338
-474677
-473049
-471453
-469888
-468352
-466847
-465369
-463919
-462497
-461100
-459729
-458382
-457060
-455761
-454485
-453232
-452002
-450792
-449604
-448435
-447287
-446157
-445046
-443954
-442879
-441822
-440781
-439758
-438750
-437758
-436782
-435820
-434874
-433942
-433023
-432119
-431228
-430349
-429484
-428631
-427790
-426961
-426144
-425338
-424543
-423759
-422985
-422222
-421470
-420725
-419995
-419266
-418561
-417838
-417176
-416422
-415871
-414806
-605153
-598607
-594921
-589950
-585843
-581474
-577421
-573378
-569498
-565694
-562005
-558406
-554905
-551492
-548168
-544927
-541768
-538688
-535683
-532752
-529892
-527100
-524375
-521713
-519114
-516575
-514094
-511669
-509299
-506981
-504715
-502498
-500330
-498208
-496132
-494100
-492110
-490163
-488255
-486387
-484557
-482763
-481005
-479282
-477593
-475936
-474311
-472717
-471154
-469619
-468114
-466636
-465184
-463760
-462360
-460986
-459636
-458310
-457007
-455727
-454469
-453232
-452017
-450821
-449646
-448490
-447352
-446234
-445133
-444049
-442983
-441934
-440900
-439883
-438881
-437895
-436923
-435966
-435023
-434094
-433178
-432275
-431386
-430509
-429644
-428791
-427950
-427120
-426302
-425495
-424699
-423912
-423139
-422368
-421622
-420858
-420157
-419363
-418774
-417669
-618227
-611362
-607455
-602223
-597886
-593281
-589006
-584742
-580649
-576637
-572746
-568950
-565258
-561658
-558152
-554734
-551402
-548152
-544983
-541891
-538874
-535929
-533054
-530247
-527505
-524827
-522210
-519652
-517152
-514707
-512316
-509978
-507691
-505452
-503262
-501118
-499019
-496965
-494953
-492982
-491051
-489160
-487305
-485487
-483705
-481958
-480244
-478562
-476913
-475294
-473706
-472146
-470616
-469113
-467637
-466187
-464763
-463365
-461990
-460640
-459313
-458008
-456726
-455465
-454225
-453005
-451806
-450626
-449465
-448322
-447197
-446090
-445000
-443927
-442871
-441830
-440806
-439796
-438801
-437821
-436855
-435904
-434965
-434040
-433128
-432229
-431342
-430467
-429605
-428753
-427914
-427084
-426269
-425457
-424670
-423865
-423124
-422290
-421663
-420520
-631240
-624056
-619930
-614438
-609872
-605032
-600535
-596052
-591747
-587528
-583436
-579445
-575561
-571776
-568088
-564493
-560989
-557572
-554239
-550987
-547814
-544717
-541693
-538741
-535857
-533040
-530287
-527597
-524968
-522396
-519882
-517422
-515016
-512662
-510357
-508103
-505894
-503734
-501618
-499546
-497515
-495526
-493575
-491663
-489789
-487951
-486148
-484380
-482645
-480942
-479271
-477632
-476022
-474441
-472889
-471364
-469866
-468395
-466950
-465530
-464134
-462762
-461413
-460087
-458782
-457500
-456238
-454997
-453776
-452574
-451391
-450227
-449081
-447953
-446842
-445747
-444670
-443608
-442562
-441531
-440516
-439515
-438528
-437555
-436596
-435651
-434718
-433798
-432891
-431996
-431114
-430241
-429384
-428531
-427703
-426858
-426077
-425203
-424538
-423357
-644187
-636687
-632341
-626591
-621797
-616724
-612006
-607305
-602789
-598364
-594073
-589886
-585813
-581842
-577975
-574204
-570529
-566944
-563448
-560037
-556709
-553460
-550289
-547192
-544167
-541212
-538325
-535503
-532744
-530047
-527410
-524830
-522305
-519836
-517418
-515053
-512736
-510471
-508251
-506078
-503947
-501860
-499814
-497809
-495843
-493914
-492023
-490168
-488348
-486562
-484810
-483089
-481400
-479742
-478114
-476515
-474944
-473401
-471885
-470395
-468930
-467491
-466076
-464685
-463317
-461972
-460648
-459347
-458066
-456805
-455565
-454344
-453142
-451958
-450793
-449645
-448515
-447401
-446304
-445223
-444158
-443108
-442073
-441053
-440047
-439056
-438078
-437113
-436162
-435223
-434298
-433383
-432484
-431589
-430721
-429836
-429015
-428102
-427399
-426180
-657065
-649252
-644688
-638680
-633660
-628354
-623416
-618498
-613773
-609144
-604653
-600273
-596011
-591856
-587809
-583864
-580018
-576267
-572609
-569040
-565557
-562158
-558839
-555598
-552433
-549341
-546320
-543367
-540480
-537658
-534898
-532198
-529555
-526971
-524438
-521964
-519534
-517170
-514845
-512574
-510345
-508161
-506021
-503922
-501864
-499846
-497867
-495926
-494021
-492153
-490319
-488518
-486751
-485016
-483312
-481639
-479995
-478380
-476793
-475234
-473702
-472196
-470715
-469259
-467828
-466420
-465036
-463673
-462333
-461014
-459716
-458439
-457181
-455942
-454723
-453522
-452339
-451174
-450026
-448895
-447781
-446682
-445599
-444532
-443480
-442442
-441419
-440410
-439415
-438433
-437465
-436508
-435568
-434632
-433723
-432798
-431938
-430986
-430245
-428988
-669872
-661746
-656965
-650702
-645457
-639920
-634763
-629630
-624696
-619863
-615175
-610601
-606152
-601814
-597589
-593469
-589454
-585538
-581719
-577992
-574356
-570807
-567342
-563958
-560653
-557425
-554271
-551187
-548174
-545227
-542345
-539526
-536768
-534069
-531425
-528841
-526306
-523837
-521409
-519037
-516709
-514429
-512193
-510002
-507853
-505746
-503679
-501652
-499663
-497712
-495797
-493917
-492072
-490261
-488481
-486734
-485018
-483332
-481675
-480047
-478446
-476874
-475327
-473808
-472313
-470844
-469398
-467976
-466577
-465200
-463845
-462511
-461198
-459905
-458632
-457378
-456143
-454926
-453728
-452547
-451383
-450237
-449106
-447992
-446894
-445811
-444742
-443689
-442650
-441625
-440615
-439616
-438634
-437657
-436708
-435743
-434845
-433854
-433075
-431781
-682604
-674167
-669171
-662653
-657185
-651418
-646044
-640696
-635556
-630520
-625635
-620870
-616233
-611714
-607311
-603019
-598835
-594755
-590775
-586893
-583104
-579405
-575795
-572269
-568826
-565462
-562175
-558963
-555822
-552752
-549749
-546811
-543935
-541123
-538359
-535670
-532994
-530455
-527922
-525459
-523034
-520659
-518330
-516046
-513807
-511611
-509458
-507345
-505273
-503239
-501244
-499285
-497362
-495475
-493621
-491800
-490012
-488255
-486528
-484832
-483164
-481525
-479914
-478330
-476773
-475242
-473736
-472254
-470796
-469361
-467949
-466559
-465191
-463844
-462517
-461211
-459924
-458657
-457408
-456178
-454965
-453770
-452593
-451432
-450287
-449159
-448046
-446949
-445867
-444798
-443746
-442705
-441682
-440665
-439676
-438672
-437734
-436704
-435888
-434558
-695258
-686513
-681303
-674532
-668841
-662846
-657256
-651695
-646349
-641112
-636032
-631076
-626254
-621553
-616975
-612511
-608159
-603916
-599777
-595739
-591798
-587952
-584197
-580530
-576948
-573450
-570031
-566690
-563425
-560231
-557109
-554054
-551065
-548139
-545274
-542469
-539716
-537056
-534421
-531852
-529327
-526855
-524431
-522055
-519725
-517441
-515201
-513003
-510848
-508733
-506657
-504620
-502620
-500657
-498729
-496835
-494975
-493148
-491351
-489587
-487851
-486147
-484468
-482824
-481204
-479612
-478046
-476505
-474989
-473497
-472029
-470583
-469160
-467759
-466379
-465021
-463683
-462364
-461066
-459786
-458525
-457283
-456058
-454851
-453661
-452487
-451330
-450189
-449063
-447952
-446858
-445776
-444712
-443655
-442626
-441582
-440606
-439538
-438684
-437318
-707832
-698780
-693357
-686335
-680423
-674200
-668397
-662623
-657073
-651636
-646361
-641216
-636210
-631330
-626576
-621942
-617424
-613018
-608721
-604528
-600437
-596443
-592545
-588737
-585019
-581387
-577837
-574369
-570979
-567663
-564423
-561251
-558149
-555110
-552116
-549212
-546130
-543585
-540846
-538196
-535576
-533009
-530492
-528024
-525605
-523233
-520907
-518626
-516387
-514191
-512036
-509921
-507845
-505806
-503805
-501839
-499907
-498010
-496145
-494313
-492511
-490742
-488999
-487290
-485608
-483956
-482330
-480730
-479156
-477607
-476082
-474582
-473104
-471649
-470217
-468806
-467417
-466048
-464700
-463372
-462063
-460773
-459501
-458248
-457012
-455794
-454592
-453408
-452239
-451086
-449950
-448827
-447722
-446625
-445556
-444473
-443459
-442353
-441462
-440060
-720322
-710965
-705330
-698059
-691927
-685479
-679463
-673479
-667725
-662090
-656622
-651289
-646100
-641041
-636113
-631310
-626626
-622059
-617605
-613259
-609018
-604878
-600837
-596890
-593036
-589270
-585591
-581996
-578481
-575045
-571686
-568399
-565188
-562034
-558970
-555904
-553013
-550157
-547293
-544513
-541791
-539124
-536513
-533954
-531446
-528987
-526575
-524210
-521890
-519613
-517380
-515187
-513035
-510922
-508847
-506809
-504807
-502839
-500906
-499006
-497133
-495299
-493479
-491722
-489978
-488269
-486584
-484927
-483296
-481690
-480109
-478554
-477022
-475514
-474029
-472567
-471126
-469708
-468310
-466933
-465576
-464239
-462921
-461622
-460341
-459078
-457833
-456605
-455394
-454199
-453021
-451857
-450712
-449575
-448467
-447346
-446293
-445149
-444220
-442784
-732725
-723065
-717221
-709701
-703351
-696680
-690452
-684259
-678303
-672471
-666812
-661292
-655920
-650685
-645584
-640612
-635765
-631038
-626427
-621929
-617539
-613254
-609071
-604986
-600997
-597099
-593291
-589570
-585933
-582377
-578904
-575504
-572202
-568940
-565889
-562667
-558968
-556619
-553792
-550785
-547980
-545198
-542496
-539843
-537246
-534700
-532204
-529756
-527354
-524998
-522685
-520416
-518188
-516001
-513854
-511745
-509673
-507638
-505637
-503672
-501737
-499841
-497959
-496127
-494327
-492554
-490812
-489095
-487407
-485744
-484108
-482498
-480912
-479351
-477814
-476301
-474810
-473341
-471895
-470470
-469065
-467681
-466317
-464972
-463647
-462340
-461051
-459780
-458527
-457290
-456071
-454866
-453681
-452504
-451357
-450197
-449106
-447925
-446959
-445489
-745037
-735077
-729024
-721259
-714693
-707799
-701361
-694960
-688805
-682776
-676927
-671222
-665670
-660258
-654986
-649847
-644837
-639951
-635186
-630536
-625999
-621570
-617246
-613023
-608900
-604871
-600935
-597088
-593328
-589652
-586058
-582544
-579108
-575748
-572461
-569273
-566077
-562919
-559947
-556963
-554066
-551213
-548422
-545684
-543002
-540371
-537791
-535260
-532778
-530343
-527953
-525607
-523305
-521044
-518825
-516645
-514505
-512400
-510334
-508299
-506291
-504325
-502273
-500493
-498635
-496810
-495011
-493235
-491490
-489771
-488079
-486414
-484775
-483161
-481572
-480008
-478467
-476949
-475454
-473980
-472529
-471098
-469688
-468298
-466928
-465577
-464245
-462932
-461636
-460358
-459098
-457853
-456628
-455412
-454227
-453028
-451899
-450681
-449678
-448175
-757257
-746999
-740739
-732730
-725949
-718835
-712188
-705581
-699227
-693004
-686966
-681077
-675346
-669760
-664318
-659012
-653841
-648797
-643878
-639078
-634395
-629822
-625359
-621000
-616743
-612584
-608520
-604549
-600667
-596872
-593161
-589531
-585979
-582503
-579077
-575756
-572254
-569295
-566166
-563126
-560130
-557190
-554309
-551484
-548715
-545999
-543336
-540724
-538161
-535647
-533180
-530759
-528382
-526048
-523757
-521507
-519298
-517127
-514997
-512904
-510843
-508847
-506805
-504812
-502932
-501029
-499176
-497341
-495540
-493764
-492019
-490299
-488608
-486942
-485302
-483686
-482096
-480529
-478985
-477465
-475966
-474489
-473034
-471599
-470185
-468791
-467416
-466060
-464722
-463403
-462102
-460817
-459553
-458298
-457074
-455838
-454671
-453416
-452376
-450839
-769382
-758827
-752362
-744111
-737116
-729783
-722930
-716119
-709567
-703152
-696927
-690854
-684946
-679186
-673575
-668106
-662773
-657573
-652502
-647553
-642725
-638010
-633408
-628913
-624524
-620236
-616046
-611951
-607948
-604035
-600208
-596465
-592802
-589221
-585707
-582281
-578893
-575610
-572393
-569238
-566149
-563118
-560148
-557236
-554382
-551582
-548837
-546144
-543502
-540910
-538366
-535870
-533419
-531014
-528653
-526333
-524060
-521821
-519648
-517472
-515472
-513253
-510986
-509178
-507326
-505247
-503343
-501426
-499567
-497731
-495930
-494156
-492411
-490693
-489002
-487336
-485696
-484081
-482489
-480921
-479376
-477854
-476353
-474874
-473416
-471978
-470561
-469163
-467784
-466424
-465083
-463758
-462454
-461161
-459898
-458624
-457421
-456129
-455052
-453483
-781407
-770558
-763890
-755398
-748193
-740642
-733584
-726570
-719823
-713216
-706805
-700552
-694467
-688536
-682757
-677124
-671633
-666278
-661056
-655959
-650989
-646132
-641392
-636763
-632242
-627825
-623510
-619293
-615170
-611139
-607197
-603341
-599566
-595875
-592249
-588718
-585215
-581864
-578541
-575302
-572118
-568999
-565941
-562943
-560003
-557120
-554293
-551519
-548799
-546129
-543509
-540938
-538414
-535936
-533503
-531113
-528767
-526459
-524196
-521960
-519781
-517587
-515504
-513471
-511401
-509389
-507408
-505459
-503543
-501658
-499803
-497978
-496181
-494412
-492671
-490956
-489267
-487603
-485964
-484349
-482758
-481190
-479645
-478122
-476620
-475140
-473680
-472240
-470820
-469419
-468039
-466674
-465332
-464000
-462699
-461388
-460147
-458820
-457706
-456105
-793330
-782191
-775321
-766591
-759175
-751410
-744148
-736933
-729992
-723196
-716601
-710168
-703908
-697806
-691862
-686067
-680418
-674908
-669536
-664293
-659180
-654183
-649307
-644545
-639894
-635350
-630911
-626572
-622331
-618184
-614129
-610162
-606280
-602483
-598763
-595127
-591557
-588075
-584660
-581318
-578042
-574832
-571686
-568601
-565577
-562611
-559703
-556850
-554051
-551304
-548609
-545964
-543368
-540818
-538315
-535857
-533443
-531069
-528739
-526442
-524181
-521961
-519668
-517652
-515553
-513495
-511464
-509462
-507493
-505554
-503646
-501768
-499920
-498100
-496309
-494544
-492807
-491095
-489409
-487748
-486112
-484499
-482909
-481342
-479797
-478274
-476772
-475291
-473831
-472390
-470969
-469565
-468184
-466814
-465476
-464128
-462850
-461487
-460337
-458704
-805149
-793721
-786651
-777685
-770061
-762083
-754619
-747205
-740072
-733087
-726310
-719699
-713265
-706995
-700886
-694930
-689125
-683463
-677944
-672556
-667312
-662166
-657155
-652259
-647478
-642809
-638246
-633787
-629428
-625167
-620998
-616922
-612932
-609029
-605205
-601468
-597800
-594224
-590713
-587280
-583912
-580614
-577380
-574210
-571102
-568054
-565065
-562133
-559256
-556434
-553664
-550945
-548277
-545656
-543084
-540556
-538074
-535635
-533238
-530881
-528566
-526287
-524048
-521863
-519699
-517578
-515486
-513430
-511406
-509414
-507454
-505525
-503625
-501755
-499914
-498101
-496316
-494557
-492824
-491117
-489435
-487777
-486144
-484533
-482946
-481381
-479837
-478315
-476814
-475333
-473873
-472431
-471012
-469604
-468228
-466844
-465529
-464131
-462945
-461281
-816860
-805146
-797878
-788678
-780848
-772658
-764995
-757383
-750059
-742889
-735930
-729143
-722538
-716100
-709827
-703713
-697752
-691938
-686270
-680736
-675348
-670075
-664926
-659902
-654993
-650200
-645515
-640937
-636462
-632086
-627807
-623621
-619526
-615519
-611596
-607758
-603998
-600321
-596717
-593189
-589731
-586344
-583023
-579768
-576577
-573448
-570379
-567368
-564415
-561517
-558673
-555882
-553142
-550451
-547809
-545214
-542666
-540161
-537700
-535280
-532899
-530564
-528253
-526013
-523794
-521617
-519472
-517361
-515284
-513240
-511227
-509247
-507297
-505377
-503487
-501626
-499792
-497987
-496208
-494455
-492728
-491026
-489349
-487696
-486066
-484459
-482874
-481311
-479770
-478250
-476751
-475270
-473813
-472367
-470955
-469534
-468183
-466750
-465528
-463833
-828461
-816464
-808999
-799567
-791534
-783134
-775273
-767466
-759953
-752598
-745460
-738498
-731722
-725119
-718684
-712412
-706296
-700335
-694521
-688849
-683388
-677909
-672627
-667471
-662435
-657520
-652714
-648019
-643428
-638940
-634551
-630257
-626056
-621946
-617923
-613986
-610130
-606357
-602660
-599041
-595494
-592019
-588613
-585274
-582000
-578790
-575642
-572554
-569524
-566552
-563634
-560771
-557960
-555200
-552490
-549829
-547214
-544645
-542121
-539641
-537202
-534807
-532450
-530139
-527862
-525625
-523423
-521258
-519127
-517029
-514965
-512934
-510934
-508965
-507026
-505116
-503236
-501384
-499559
-497761
-495990
-494244
-492524
-490828
-489156
-487507
-485882
-484279
-482698
-481139
-479601
-478082
-476587
-475105
-473656
-472199
-470812
-469344
-468086
-466361
-839949
-827671
-820012
-810350
-802115
-793507
-785450
-777450
-769750
-762212
-754897
-747762
-740818
-734050
-727455
-721027
-714758
-708646
-702682
-696856
-691199
-685674
-680245
-674969
-669807
-664769
-659844
-655032
-650327
-645727
-641229
-636829
-632524
-628312
-624189
-620154
-616203
-612335
-608547
-604837
-601201
-597639