/*--------------------------------*- C++ -*----------------------------------*\
| =========                 |                                                 |
| \\      /  F ield         | foam-extend: Open Source CFD                    |
|  \\    /   O peration     | Version:     4.1                                |
|   \\  /    A nd           | Web:         http://www.foam-extend.org         |
|    \\/     M anipulation  |                                                 |
\*---------------------------------------------------------------------------*/
FoamFile
{
    version     2.0;
    format      ascii;
    class       volScalarField;
    location    "8";
    object      sigmaEq;
}
// * * * * * * * * * * * * * * * * * * * * * * * * * * * * * * * * * * * * * //

dimensions      [1 -1 -2 0 0 0 0];

internalField   nonuniform List<scalar> 
100000
(
2.6873e+06
4.07672e+06
3.96459e+06
3.92293e+06
4.84177e+06
4.85316e+06
4.87515e+06
4.89439e+06
4.91112e+06
4.83378e+06
4.4785e+06
4.12855e+06
3.82055e+06
3.53881e+06
3.0945e+06
2.74031e+06
2.41866e+06
2.13166e+06
1.91312e+06
1.75483e+06
1.56601e+06
1.41184e+06
1.29294e+06
1.20898e+06
1.158e+06
1.13913e+06
1.13813e+06
1.13771e+06
1.13782e+06
1.13835e+06
1.1393e+06
1.14046e+06
1.14206e+06
1.14348e+06
1.14447e+06
1.14603e+06
1.1479e+06
1.15005e+06
1.15236e+06
1.15479e+06
1.15711e+06
1.15924e+06
1.16172e+06
1.16444e+06
1.16729e+06
1.17019e+06
1.17306e+06
1.17582e+06
1.1785e+06
1.18117e+06
1.18392e+06
1.18641e+06
1.18861e+06
1.19002e+06
1.19124e+06
1.19218e+06
1.19299e+06
1.1935e+06
1.19373e+06
1.1937e+06
1.19343e+06
1.19295e+06
1.19229e+06
1.19148e+06
1.19059e+06
1.18927e+06
1.18799e+06
1.18755e+06
1.18728e+06
1.18695e+06
1.18816e+06
1.1933e+06
1.20187e+06
1.2139e+06
1.22935e+06
1.24812e+06
1.27012e+06
1.29549e+06
1.32425e+06
1.35588e+06
1.39017e+06
1.42692e+06
1.46596e+06
1.50709e+06
1.55013e+06
1.59491e+06
1.64126e+06
1.67728e+06
1.72099e+06
1.77125e+06
1.82264e+06
1.87509e+06
1.92849e+06
1.98271e+06
2.03776e+06
2.09358e+06
2.15001e+06
2.20731e+06
2.26395e+06
2.33377e+06
2.66502e+06
4.0294e+06
3.84625e+06
4.73938e+06
4.82877e+06
4.85485e+06
4.87804e+06
4.89843e+06
4.9161e+06
4.93124e+06
4.944e+06
4.95441e+06
4.67845e+06
4.39336e+06
4.11767e+06
3.87537e+06
3.64905e+06
3.43978e+06
3.25874e+06
2.99841e+06
2.761e+06
2.54544e+06
2.35073e+06
2.1759e+06
2.02292e+06
1.90307e+06
1.80151e+06
1.69364e+06
1.60056e+06
1.52114e+06
1.51094e+06
1.50376e+06
1.58607e+06
1.4966e+06
1.49607e+06
1.4975e+06
1.50057e+06
1.5052e+06
1.51123e+06
1.51922e+06
1.53052e+06
1.54177e+06
1.55117e+06
1.56167e+06
1.5732e+06
1.58567e+06
1.59902e+06
1.61317e+06
1.62918e+06
1.64748e+06
1.66596e+06
1.68459e+06
1.7033e+06
1.72378e+06
1.7454e+06
1.76411e+06
1.7828e+06
1.80145e+06
1.81999e+06
1.8384e+06
1.85668e+06
1.87475e+06
1.89263e+06
1.91028e+06
1.9277e+06
1.94703e+06
1.9648e+06
1.98189e+06
2.00054e+06
2.01642e+06
2.03202e+06
2.05014e+06
2.06832e+06
2.08632e+06
2.10414e+06
2.12176e+06
2.13918e+06
2.15638e+06
2.17335e+06
2.2022e+06
2.25434e+06
2.30708e+06
2.36038e+06
2.41418e+06
2.46845e+06
2.52314e+06
2.57818e+06
2.63355e+06
2.62582e+06
2.61734e+06
2.60903e+06
2.61994e+06
2.65659e+06
2.6935e+06
2.73066e+06
2.76798e+06
2.80537e+06
2.8429e+06
2.87964e+06
2.90213e+06
2.64207e+06
3.7656e+06
4.55601e+06
4.799e+06
4.82949e+06
4.85683e+06
4.88109e+06
4.90246e+06
4.92106e+06
4.93699e+06
4.95047e+06
4.96157e+06
4.97038e+06
4.97718e+06
4.97539e+06
4.72941e+06
4.50062e+06
4.28585e+06
4.08587e+06
3.90671e+06
3.73808e+06
3.58221e+06
3.43838e+06
3.30587e+06
3.28205e+06
3.33192e+06
3.29645e+06
3.26546e+06
3.23861e+06
3.22003e+06
3.20692e+06
3.1896e+06
3.17522e+06
3.16361e+06
3.15472e+06
3.1482e+06
3.14388e+06
3.1416e+06
3.14117e+06
3.14247e+06
3.13867e+06
3.1037e+06
3.07036e+06
3.04266e+06
3.02025e+06
3.00284e+06
2.99012e+06
2.98182e+06
2.97769e+06
2.97749e+06
2.98098e+06
2.98797e+06
2.99828e+06
3.01807e+06
3.03577e+06
3.05499e+06
3.07684e+06
3.10121e+06
3.12797e+06
3.15695e+06
3.18807e+06
3.22117e+06
3.25617e+06
3.29295e+06
3.3314e+06
3.37144e+06
3.41297e+06
3.44028e+06
3.46306e+06
3.48614e+06
3.47624e+06
3.43896e+06
3.40143e+06
3.36366e+06
3.32136e+06
3.27301e+06
3.23064e+06
3.22316e+06
3.21478e+06
3.20546e+06
3.19678e+06
3.18814e+06
3.17929e+06
3.17023e+06
3.161e+06
3.15165e+06
3.14211e+06
3.13241e+06
3.13225e+06
3.16546e+06
3.19872e+06
3.23311e+06
3.2678e+06
3.30122e+06
3.33455e+06
3.3677e+06
3.40055e+06
3.43299e+06
3.46498e+06
3.50949e+06
2.77343e+06
4.46251e+06
4.85614e+06
4.83604e+06
4.83062e+06
4.85903e+06
4.88431e+06
4.90654e+06
4.92595e+06
4.94262e+06
4.95671e+06
4.96841e+06
4.97775e+06
4.98499e+06
4.99018e+06
4.99346e+06
4.99499e+06
4.99485e+06
4.94218e+06
4.75756e+06
4.58602e+06
4.50689e+06
4.50992e+06
4.51202e+06
4.52124e+06
4.53328e+06
4.53705e+06
4.53881e+06
4.54049e+06
4.54208e+06
4.44965e+06
4.33481e+06
4.22892e+06
4.13178e+06
4.05266e+06
4.00976e+06
3.96889e+06
3.9299e+06
3.89272e+06
3.85727e+06
3.82292e+06
3.79016e+06
3.75951e+06
3.73048e+06
3.70283e+06
3.67652e+06
3.65149e+06
3.6277e+06
3.60507e+06
3.58358e+06
3.56317e+06
3.54381e+06
3.52554e+06
3.51203e+06
3.49572e+06
3.48016e+06
3.4655e+06
3.45834e+06
3.47261e+06
3.48887e+06
3.50702e+06
3.52697e+06
3.54861e+06
3.57186e+06
3.59663e+06
3.62283e+06
3.65039e+06
3.67924e+06
3.7093e+06
3.74049e+06
3.77277e+06
3.80606e+06
3.8403e+06
3.87555e+06
3.91184e+06
3.94866e+06
3.98534e+06
4.02347e+06
4.04486e+06
4.05029e+06
4.03044e+06
4.01102e+06
3.99203e+06
3.97343e+06
3.95527e+06
3.93752e+06
3.9201e+06
3.90303e+06
3.88703e+06
3.87201e+06
3.85586e+06
3.829e+06
3.76797e+06
3.70351e+06
3.66725e+06
3.65437e+06
3.64132e+06
3.62794e+06
3.61466e+06
3.60743e+06
4.02721e+06
5.05323e+06
5.05738e+06
5.05845e+06
5.05564e+06
5.05322e+06
5.0717e+06
5.08781e+06
5.10019e+06
5.10902e+06
5.11456e+06
5.11707e+06
5.11678e+06
5.1138e+06
5.10844e+06
5.09985e+06
5.08713e+06
5.07443e+06
5.16481e+06
5.33661e+06
5.49286e+06
5.63387e+06
5.76228e+06
5.87569e+06
5.84725e+06
5.66317e+06
5.46837e+06
5.29191e+06
5.12556e+06
4.96855e+06
4.81975e+06
4.68023e+06
4.54988e+06
4.42777e+06
4.31426e+06
4.20774e+06
4.10664e+06
4.01208e+06
3.92378e+06
3.84142e+06
3.76305e+06
3.7073e+06
3.66847e+06
3.63341e+06
3.60191e+06
3.57379e+06
3.54885e+06
3.52695e+06
3.5079e+06
3.49158e+06
3.47782e+06
3.46651e+06
3.45762e+06
3.452e+06
3.44759e+06
3.44499e+06
3.44043e+06
3.42775e+06
3.41814e+06
3.41072e+06
3.40605e+06
3.40401e+06
3.40448e+06
3.40736e+06
3.41253e+06
3.41991e+06
3.4294e+06
3.44089e+06
3.45432e+06
3.46959e+06
3.48662e+06
3.50536e+06
3.52571e+06
3.54761e+06
3.57535e+06
3.61048e+06
3.64081e+06
3.63642e+06
3.63352e+06
3.63207e+06
3.63186e+06
3.63277e+06
3.63479e+06
3.63783e+06
3.64184e+06
3.64682e+06
3.65271e+06
3.65578e+06
3.64249e+06
3.59544e+06
3.54858e+06
3.50191e+06
3.49837e+06
3.50111e+06
3.50522e+06
3.50911e+06
3.51167e+06
3.51406e+06
3.51685e+06
3.53199e+06
4.80807e+06
4.90713e+06
4.97454e+06
5.03453e+06
5.07465e+06
5.07462e+06
5.07316e+06
5.0715e+06
5.06846e+06
5.06399e+06
5.0582e+06
5.05109e+06
5.04293e+06
5.03359e+06
5.02332e+06
5.01214e+06
5.00001e+06
4.98538e+06
4.98297e+06
5.15289e+06
5.22e+06
5.19825e+06
5.09815e+06
5.00074e+06
4.88816e+06
4.71308e+06
4.54689e+06
4.3884e+06
4.23723e+06
4.09325e+06
3.96404e+06
3.87016e+06
3.77991e+06
3.69316e+06
3.60006e+06
3.48201e+06
3.37252e+06
3.27118e+06
3.17756e+06
3.09125e+06
3.01198e+06
2.93956e+06
2.87331e+06
2.81273e+06
2.75774e+06
2.70802e+06
2.6633e+06
2.6233e+06
2.58778e+06
2.55649e+06
2.52921e+06
2.50571e+06
2.48608e+06
2.47157e+06
2.45521e+06
2.44152e+06
2.43041e+06
2.41632e+06
2.38632e+06
2.35794e+06
2.33108e+06
2.30572e+06
2.28178e+06
2.25923e+06
2.23802e+06
2.21808e+06
2.1994e+06
2.1819e+06
2.16555e+06
2.15033e+06
2.13618e+06
2.12306e+06
2.11095e+06
2.09981e+06
2.08959e+06
2.08028e+06
2.07186e+06
2.06423e+06
2.0725e+06
2.08391e+06
2.09573e+06
2.10813e+06
2.12081e+06
2.1339e+06
2.14734e+06
2.161e+06
2.17479e+06
2.18866e+06
2.20298e+06
2.23848e+06
2.31432e+06
2.38498e+06
2.46704e+06
2.54925e+06
2.60493e+06
2.63871e+06
2.67291e+06
2.707e+06
2.74214e+06
2.81044e+06
4.68946e+06
4.75573e+06
4.79852e+06
4.8372e+06
4.87205e+06
4.90338e+06
4.91163e+06
4.91752e+06
4.92265e+06
4.9271e+06
4.93083e+06
4.9338e+06
4.93607e+06
4.93767e+06
4.9137e+06
4.69051e+06
4.42306e+06
4.13673e+06
3.76624e+06
3.40856e+06
3.21058e+06
3.03221e+06
2.86544e+06
2.70918e+06
2.5887e+06
2.51228e+06
2.43859e+06
2.36367e+06
2.29428e+06
2.23011e+06
2.17087e+06
2.11626e+06
2.06603e+06
2.00759e+06
1.94885e+06
1.89516e+06
1.84622e+06
1.80171e+06
1.76133e+06
1.72479e+06
1.69309e+06
1.66058e+06
1.62473e+06
1.59181e+06
1.56163e+06
1.53401e+06
1.50879e+06
1.39242e+06
1.28761e+06
1.22192e+06
1.19277e+06
1.19488e+06
1.21934e+06
1.24832e+06
1.28717e+06
1.32854e+06
1.36757e+06
1.39817e+06
1.4249e+06
1.44712e+06
1.46452e+06
1.47685e+06
1.48413e+06
1.48639e+06
1.48382e+06
1.47664e+06
1.46515e+06
1.44972e+06
1.43076e+06
1.40875e+06
1.38423e+06
1.35781e+06
1.33014e+06
1.302e+06
1.27418e+06
1.24763e+06
1.2233e+06
1.20226e+06
1.1857e+06
1.17647e+06
1.17012e+06
1.17308e+06
1.1845e+06
1.20451e+06
1.26994e+06
1.29406e+06
1.30415e+06
1.30574e+06
1.34805e+06
1.40451e+06
1.46438e+06
1.51558e+06
1.54035e+06
1.56158e+06
1.58344e+06
1.60587e+06
1.62905e+06
1.65247e+06
1.6772e+06
1.69361e+06
4.69385e+06
4.7553e+06
4.79896e+06
4.83852e+06
4.87409e+06
4.90608e+06
4.93448e+06
4.95958e+06
4.98146e+06
4.85739e+06
4.57266e+06
4.30378e+06
4.04988e+06
3.73829e+06
3.42186e+06
3.14584e+06
2.87485e+06
2.61477e+06
2.34519e+06
1.928e+06
1.73341e+06
1.65465e+06
1.57088e+06
1.48056e+06
1.41336e+06
1.3974e+06
1.38293e+06
1.36983e+06
1.35796e+06
1.34722e+06
1.33751e+06
1.33852e+06
1.14766e+06
1.22151e+06
1.49259e+06
1.85127e+06
2.23702e+06
2.62347e+06
2.99911e+06
3.35882e+06
3.70023e+06
4.02246e+06
4.30482e+06
4.46229e+06
4.60677e+06
4.73884e+06
4.86232e+06
4.98426e+06
5.08321e+06
5.16763e+06
5.24229e+06
5.29473e+06
5.31295e+06
5.33386e+06
5.35068e+06
5.35965e+06
5.36166e+06
5.357e+06
5.3459e+06
5.3287e+06
5.30566e+06
5.27705e+06
5.24316e+06
5.20423e+06
5.16051e+06
5.11224e+06
5.05963e+06
5.00291e+06
4.94229e+06
4.87797e+06
4.81016e+06
4.73905e+06
4.66484e+06
4.5877e+06
4.50781e+06
4.42533e+06
4.34044e+06
4.25328e+06
4.16408e+06
4.07286e+06
3.97985e+06
3.88535e+06
3.78935e+06
3.69213e+06
3.5929e+06
3.48846e+06
3.35392e+06
3.22338e+06
3.10199e+06
2.99439e+06
2.92865e+06
2.86232e+06
2.79543e+06
2.72803e+06
2.66019e+06
2.59195e+06
2.52326e+06
2.45461e+06
2.38457e+06
2.3409e+06
4.69843e+06
4.75589e+06
4.80023e+06
4.84049e+06
4.87664e+06
4.70884e+06
4.35414e+06
4.01989e+06
3.71219e+06
3.44656e+06
3.16383e+06
2.78347e+06
2.44964e+06
2.16221e+06
1.91143e+06
1.8124e+06
1.73024e+06
1.6794e+06
1.63259e+06
1.51016e+06
1.30081e+06
1.29332e+06
1.3098e+06
1.09852e+06
1.34188e+06
1.96754e+06
2.67799e+06
3.38885e+06
3.88927e+06
4.29949e+06
4.68598e+06
5.08703e+06
5.52242e+06
5.81306e+06
6.07616e+06
6.3224e+06
6.55211e+06
6.74954e+06
6.91228e+06
6.56654e+06
6.15733e+06
5.76269e+06
5.37055e+06
5.00157e+06
4.66198e+06
4.33863e+06
4.03134e+06
3.58399e+06
3.12983e+06
2.71169e+06
2.29179e+06
1.87869e+06
1.54719e+06
1.33189e+06
1.21433e+06
1.20869e+06
1.29707e+06
1.44675e+06
1.62878e+06
1.82352e+06
2.01965e+06
2.21058e+06
2.39254e+06
2.56331e+06
2.72178e+06
2.86722e+06
2.99944e+06
3.11842e+06
3.22429e+06
3.31725e+06
3.39763e+06
3.46576e+06
3.52193e+06
3.56655e+06
3.59992e+06
3.54817e+06
3.4833e+06
3.41706e+06
3.3494e+06
3.28056e+06
3.21051e+06
3.13976e+06
3.06787e+06
2.99542e+06
2.91112e+06
2.82487e+06
2.76331e+06
2.76923e+06
2.71262e+06
2.65759e+06
2.60421e+06
2.55246e+06
2.50236e+06
2.45395e+06
2.40721e+06
2.36227e+06
2.31904e+06
2.27732e+06
2.23874e+06
2.04497e+06
4.78014e+06
4.75752e+06
4.46142e+06
4.03807e+06
3.65207e+06
3.32674e+06
3.01732e+06
2.69499e+06
2.33139e+06
2.06892e+06
1.97114e+06
1.83334e+06
1.6783e+06
1.59008e+06
1.5596e+06
1.58734e+06
1.47742e+06
1.30273e+06
1.93195e+06
2.59351e+06
3.17332e+06
3.77793e+06
3.25504e+06
2.91321e+06
2.57788e+06
2.19814e+06
2.01642e+06
1.90294e+06
1.99044e+06
2.35836e+06
2.81281e+06
3.26586e+06
4.24771e+06
5.22896e+06
6.17567e+06
7.08164e+06
7.94305e+06
8.08379e+06
8.09719e+06
8.1529e+06
8.18261e+06
8.19777e+06
8.18566e+06
8.05951e+06
7.93432e+06
7.8099e+06
7.68619e+06
7.56336e+06
7.44113e+06
7.37883e+06
7.36398e+06
7.33056e+06
7.26619e+06
7.20118e+06
7.13545e+06
7.06941e+06
7.00219e+06
6.93437e+06
6.86667e+06
6.79818e+06
6.72926e+06
6.65983e+06
6.59e+06
6.51978e+06
6.44917e+06
6.37823e+06
6.30699e+06
6.23542e+06
6.16361e+06
6.09158e+06
6.01935e+06
5.94695e+06
5.8744e+06
5.80172e+06
5.72209e+06
5.64462e+06
5.57219e+06
5.50018e+06
5.42813e+06
5.35604e+06
5.28397e+06
5.21197e+06
5.13192e+06
5.03806e+06
4.9438e+06
4.85038e+06
4.73666e+06
4.6163e+06
4.49638e+06
4.37707e+06
4.25843e+06
4.14054e+06
4.02352e+06
3.90742e+06
3.79231e+06
3.67833e+06
3.56537e+06
3.45639e+06
3.34795e+06
3.13058e+06
4.20431e+06
3.51739e+06
3.14161e+06
2.76616e+06
2.39246e+06
2.22048e+06
2.12748e+06
1.92371e+06
1.77943e+06
1.66739e+06
1.6723e+06
1.53339e+06
1.52036e+06
1.38534e+06
1.63782e+06
2.87089e+06
4.54367e+06
6.11113e+06
7.16952e+06
8.2043e+06
9.27041e+06
9.99122e+06
1.07834e+07
1.1126e+07
1.12833e+07
1.14368e+07
1.15766e+07
1.17034e+07
1.16245e+07
1.14765e+07
1.13297e+07
1.1184e+07
1.10394e+07
1.08958e+07
1.07533e+07
1.06119e+07
1.04275e+07
1.02868e+07
1.0119e+07
9.44468e+06
8.72243e+06
8.03365e+06
7.37773e+06
6.7532e+06
6.15945e+06
5.59556e+06
5.06081e+06
4.5548e+06
4.13047e+06
3.76475e+06
3.38575e+06
2.9883e+06
2.62008e+06
2.28286e+06
1.97968e+06
1.71576e+06
1.31562e+06
1.3332e+06
1.23165e+06
1.19556e+06
1.21947e+06
1.2906e+06
1.39387e+06
1.51626e+06
1.64826e+06
1.78332e+06
1.91722e+06
2.04725e+06
2.17168e+06
2.28936e+06
2.39967e+06
2.5022e+06
2.59673e+06
2.6832e+06
2.76161e+06
2.76068e+06
2.74896e+06
2.73755e+06
2.72643e+06
2.71557e+06
2.71049e+06
2.71879e+06
2.72638e+06
2.74294e+06
2.75163e+06
2.75102e+06
2.75041e+06
2.74979e+06
2.74916e+06
2.74854e+06
2.7479e+06
2.74727e+06
2.74662e+06
2.74533e+06
2.73523e+06
2.72542e+06
2.71615e+06
2.70721e+06
2.69817e+06
2.68974e+06
2.96274e+06
2.40609e+06
2.20149e+06
2.15427e+06
1.99934e+06
2.0416e+06
2.1421e+06
2.55478e+06
4.08371e+06
6.00214e+06
7.94674e+06
1.00529e+07
1.17301e+07
1.33157e+07
1.4548e+07
1.37519e+07
1.32571e+07
1.37321e+07
1.41725e+07
1.43398e+07
1.43111e+07
1.41734e+07
1.27356e+07
1.12511e+07
9.87103e+06
8.51359e+06
7.22621e+06
6.00765e+06
4.8606e+06
3.79285e+06
2.82569e+06
2.01755e+06
1.52576e+06
1.57208e+06
2.06017e+06
2.72339e+06
3.43242e+06
3.50432e+06
3.48226e+06
3.46081e+06
3.43979e+06
3.41925e+06
3.39924e+06
3.37954e+06
3.36046e+06
3.34168e+06
3.32332e+06
3.23422e+06
3.1112e+06
3.05214e+06
3.03748e+06
3.02305e+06
3.00886e+06
2.99494e+06
2.98118e+06
2.96791e+06
2.95418e+06
2.94065e+06
2.92791e+06
2.9151e+06
2.90255e+06
2.89007e+06
2.87779e+06
2.86568e+06
2.85367e+06
2.84182e+06
2.83013e+06
2.81855e+06
2.8071e+06
2.7958e+06
2.79264e+06
2.79301e+06
2.79329e+06
2.79345e+06
2.7935e+06
2.79346e+06
2.79333e+06
2.79308e+06
2.79767e+06
2.81595e+06
2.83317e+06
2.85088e+06
2.86134e+06
2.85927e+06
2.85748e+06
2.85566e+06
2.85371e+06
2.85164e+06
2.84943e+06
2.84708e+06
2.84031e+06
2.82777e+06
2.81543e+06
2.80404e+06
2.79289e+06
2.78103e+06
2.76927e+06
2.76042e+06
2.75063e+06
2.73983e+06
2.37102e+06
2.2636e+06
2.54847e+06
4.81232e+06
7.98828e+06
1.03715e+07
1.27445e+07
1.52208e+07
1.71545e+07
1.62458e+07
1.52814e+07
1.47039e+07
1.52665e+07
1.41724e+07
1.17474e+07
9.72628e+06
7.68203e+06
5.77524e+06
4.02642e+06
2.54646e+06
1.78415e+06
2.33834e+06
3.50679e+06
3.9024e+06
3.85868e+06
3.8257e+06
3.79386e+06
3.76306e+06
3.73329e+06
3.70445e+06
3.67652e+06
3.64942e+06
3.6231e+06
3.59753e+06
3.5726e+06
3.5484e+06
3.52477e+06
3.50186e+06
3.47947e+06
3.45764e+06
3.43644e+06
3.41559e+06
3.39536e+06
3.37547e+06
3.35608e+06
3.33715e+06
3.2458e+06
3.11918e+06
3.06382e+06
3.04877e+06
3.03399e+06
3.01943e+06
3.00515e+06
2.99105e+06
2.97723e+06
2.96353e+06
2.94997e+06
2.9367e+06
2.92674e+06
2.92759e+06
2.92843e+06
2.92915e+06
2.92972e+06
2.93019e+06
2.93057e+06
2.9308e+06
2.93094e+06
2.93099e+06
2.93091e+06
2.9305e+06
2.92984e+06
2.92928e+06
2.92868e+06
2.92802e+06
2.92727e+06
2.92641e+06
2.9312e+06
2.94885e+06
2.96588e+06
2.98323e+06
2.9954e+06
2.99339e+06
2.99124e+06
2.98086e+06
2.9686e+06
2.95638e+06
2.94424e+06
2.92485e+06
2.9025e+06
2.88078e+06
2.85993e+06
2.83917e+06
2.81826e+06
2.79836e+06
2.78766e+06
2.77707e+06
2.76658e+06
2.75632e+06
2.74594e+06
2.73522e+06
7.17668e+06
1.2402e+07
1.5399e+07
1.85971e+07
1.91136e+07
1.76021e+07
1.63473e+07
1.46184e+07
1.15522e+07
8.87419e+06
6.15793e+06
3.77504e+06
2.25598e+06
2.89125e+06
4.30254e+06
4.21301e+06
4.17326e+06
4.13498e+06
4.09808e+06
4.06244e+06
4.02805e+06
3.9949e+06
3.9597e+06
3.8964e+06
3.86202e+06
3.82842e+06
3.79596e+06
3.76457e+06
3.73425e+06
3.70488e+06
3.67641e+06
3.64882e+06
3.62205e+06
3.59612e+06
3.57082e+06
3.54627e+06
3.52231e+06
3.49896e+06
3.47629e+06
3.45407e+06
3.43258e+06
3.41149e+06
3.39094e+06
3.37091e+06
3.35122e+06
3.2613e+06
3.13059e+06
3.07559e+06
3.06522e+06
3.0668e+06
3.06826e+06
3.06951e+06
3.07065e+06
3.07165e+06
3.07243e+06
3.07314e+06
3.07365e+06
3.07411e+06
3.07492e+06
3.07541e+06
3.07526e+06
3.07503e+06
3.07471e+06
3.07424e+06
3.07368e+06
3.07304e+06
3.07229e+06
3.07144e+06
3.07052e+06
3.06948e+06
3.06014e+06
3.04727e+06
3.0345e+06
3.02187e+06
3.01736e+06
3.0233e+06
3.02904e+06
3.03523e+06
3.0369e+06
3.02428e+06
3.01173e+06
2.99926e+06
2.98686e+06
2.97455e+06
2.95258e+06
2.92961e+06
2.90737e+06
2.88579e+06
2.86411e+06
2.84254e+06
2.82562e+06
2.81468e+06
2.80385e+06
2.79312e+06
2.78248e+06
2.77196e+06
2.76151e+06
2.7513e+06
2.74098e+06
2.73033e+06
2.1415e+07
2.08965e+07
1.84978e+07
1.42953e+07
9.5918e+06
6.35517e+06
3.44412e+06
2.87931e+06
4.64006e+06
4.51108e+06
4.45752e+06
4.40645e+06
4.35771e+06
4.31116e+06
4.26667e+06
4.22398e+06
4.18304e+06
4.14367e+06
4.10581e+06
4.06936e+06
4.03423e+06
4.00029e+06
3.96753e+06
3.92169e+06
3.86205e+06
3.83055e+06
3.79748e+06
3.76552e+06
3.73463e+06
3.70474e+06
3.67577e+06
3.64773e+06
3.62049e+06
3.59411e+06
3.56844e+06
3.54349e+06
3.51928e+06
3.49555e+06
3.47261e+06
3.45009e+06
3.44783e+06
3.44655e+06
3.44514e+06
3.44382e+06
3.37729e+06
3.26022e+06
3.21938e+06
3.22102e+06
3.22366e+06
3.22543e+06
3.22581e+06
3.22604e+06
3.22607e+06
3.22604e+06
3.22585e+06
3.22546e+06
3.22501e+06
3.22444e+06
3.22065e+06
3.2058e+06
3.19115e+06
3.17663e+06
3.16231e+06
3.14818e+06
3.13419e+06
3.12037e+06
3.10674e+06
3.09322e+06
3.07985e+06
3.06661e+06
3.05354e+06
3.04059e+06
3.03964e+06
3.04482e+06
3.05004e+06
3.05569e+06
3.05593e+06
3.04309e+06
3.03035e+06
3.0177e+06
3.00513e+06
2.98123e+06
2.95763e+06
2.9348e+06
2.91253e+06
2.89008e+06
2.86789e+06
2.85331e+06
2.84212e+06
2.83102e+06
2.82001e+06
2.8091e+06
2.7983e+06
2.78762e+06
2.77704e+06
2.76659e+06
2.75621e+06
2.74606e+06
2.73577e+06
2.72519e+06
1.32173e+07
7.33384e+06
3.77308e+06
3.77543e+06
4.90597e+06
4.78049e+06
4.71264e+06
4.64834e+06
4.5873e+06
4.52936e+06
4.4742e+06
4.42177e+06
4.37178e+06
4.324e+06
4.27815e+06
4.23427e+06
4.19228e+06
4.15194e+06
4.11314e+06
4.07577e+06
4.03977e+06
4.00501e+06
3.97145e+06
3.93918e+06
3.88589e+06
3.83208e+06
3.79842e+06
3.76589e+06
3.73447e+06
3.7041e+06
3.67468e+06
3.64618e+06
3.62591e+06
3.62357e+06
3.62139e+06
3.61916e+06
3.61716e+06
3.61502e+06
3.61299e+06
3.61576e+06
3.61836e+06
3.68887e+06
3.86417e+06
3.96604e+06
3.98511e+06
4.06126e+06
4.16971e+06
4.26188e+06
4.33326e+06
4.37746e+06
4.40782e+06
4.42513e+06
4.42989e+06
4.42273e+06
4.40439e+06
4.37529e+06
4.33601e+06
4.28719e+06
4.22927e+06
4.1627e+06
4.08807e+06
4.00579e+06
3.91631e+06
3.82014e+06
3.71772e+06
3.60941e+06
3.49569e+06
3.37695e+06
3.25365e+06
3.12621e+06
3.064e+06
3.06833e+06
3.07296e+06
3.07796e+06
3.07521e+06
3.06214e+06
3.04918e+06
3.03597e+06
3.01125e+06
2.9869e+06
2.96329e+06
2.94023e+06
2.91704e+06
2.89417e+06
2.88131e+06
2.86986e+06
2.85851e+06
2.84725e+06
2.8361e+06
2.82505e+06
2.8141e+06
2.80325e+06
2.7925e+06
2.78186e+06
2.77133e+06
2.76092e+06
2.75061e+06
2.74052e+06
2.7303e+06
2.71979e+06
4.4039e+06
5.1422e+06
5.04e+06
4.95671e+06
4.8787e+06
4.805e+06
4.73521e+06
4.66913e+06
4.60643e+06
4.547e+06
4.49032e+06
4.43645e+06
4.38497e+06
4.33596e+06
4.2891e+06
4.24416e+06
4.20101e+06
4.15954e+06
4.11974e+06
4.08148e+06
4.04466e+06
4.00913e+06
3.97483e+06
3.94165e+06
3.91033e+06
3.85246e+06
3.81325e+06
3.80926e+06
3.80558e+06
3.80217e+06
3.79892e+06
3.79808e+06
3.80249e+06
3.80418e+06
3.83087e+06
4.15946e+06
4.46543e+06
4.74809e+06
5.00734e+06
5.24386e+06
5.4499e+06
5.65497e+06
5.78102e+06
5.77324e+06
5.81943e+06
5.91162e+06
5.97337e+06
5.93177e+06
5.8904e+06
5.84934e+06
5.80846e+06
5.76779e+06
5.72745e+06
5.68728e+06
5.64733e+06
5.60768e+06
5.56825e+06
5.52902e+06
5.49007e+06
5.45132e+06
5.41276e+06
5.37445e+06
5.33638e+06
5.29852e+06
5.26088e+06
5.18833e+06
5.06465e+06
4.93579e+06
4.80217e+06
4.67534e+06
4.54422e+06
4.41492e+06
4.27034e+06
4.11612e+06
3.95887e+06
3.78644e+06
3.61164e+06
3.43543e+06
3.25815e+06
3.07973e+06
2.92169e+06
2.9098e+06
2.89807e+06
2.88645e+06
2.87492e+06
2.86349e+06
2.85216e+06
2.84093e+06
2.8298e+06
2.81878e+06
2.80788e+06
2.79708e+06
2.78639e+06
2.77581e+06
2.76534e+06
2.75498e+06
2.7447e+06
2.73466e+06
2.7245e+06
2.71407e+06
4.41504e+06
5.15622e+06
5.06981e+06
4.98448e+06
4.90428e+06
4.8288e+06
4.75708e+06
4.68926e+06
4.62498e+06
4.56396e+06
4.50586e+06
4.45054e+06
4.39777e+06
4.34749e+06
4.29938e+06
4.25326e+06
4.20907e+06
4.16669e+06
4.126e+06
4.08684e+06
4.04913e+06
4.03718e+06
4.0366e+06
4.03613e+06
4.03576e+06
4.03727e+06
4.02181e+06
4.00226e+06
3.994e+06
3.98907e+06
4.26206e+06
4.70594e+06
5.11519e+06
5.48426e+06
5.89537e+06
6.2735e+06
6.53153e+06
6.66208e+06
6.61205e+06
6.56269e+06
6.51387e+06
6.36891e+06
6.00206e+06
5.7145e+06
5.52555e+06
5.35318e+06
5.18851e+06
5.04777e+06
4.93209e+06
4.83132e+06
4.74479e+06
4.6716e+06
4.61117e+06
4.56291e+06
4.52608e+06
4.50014e+06
4.48465e+06
4.47898e+06
4.48265e+06
4.49525e+06
4.51633e+06
4.54544e+06
4.5822e+06
4.62625e+06
4.67722e+06
4.73728e+06
4.80489e+06
4.87615e+06
4.96879e+06
5.06909e+06
5.10349e+06
5.06858e+06
5.01933e+06
4.96766e+06
4.9182e+06
4.86972e+06
4.82029e+06
4.77186e+06
4.70245e+06
4.52264e+06
4.32141e+06
4.1295e+06
3.94545e+06
3.7604e+06
3.57463e+06
3.38847e+06
3.20226e+06
3.01637e+06
2.83126e+06
2.81224e+06
2.80137e+06
2.79061e+06
2.77998e+06
2.76945e+06
2.75904e+06
2.74874e+06
2.73852e+06
2.72852e+06
2.71841e+06
2.70803e+06
4.44201e+06
5.18748e+06
5.09877e+06
5.01137e+06
4.92915e+06
4.85176e+06
4.77821e+06
4.70883e+06
4.64271e+06
4.58019e+06
4.52066e+06
4.46405e+06
4.40985e+06
4.35825e+06
4.30897e+06
4.26185e+06
4.22009e+06
4.21765e+06
4.21571e+06
4.21415e+06
4.22222e+06
4.2339e+06
4.23579e+06
4.23362e+06
4.2316e+06
4.22964e+06
4.27744e+06
4.79509e+06
5.29029e+06
5.84775e+06
6.42636e+06
6.87623e+06
6.96995e+06
6.91544e+06
6.8303e+06
6.43623e+06
6.0411e+06
5.6384e+06
5.30023e+06
5.02255e+06
4.76594e+06
4.40806e+06
4.10522e+06
3.91769e+06
3.74936e+06
3.59926e+06
3.47996e+06
3.46068e+06
3.44182e+06
3.42324e+06
3.40501e+06
3.38716e+06
3.36958e+06
3.3523e+06
3.33539e+06
3.31872e+06
3.3023e+06
3.28617e+06
3.27031e+06
3.25465e+06
3.23922e+06
3.22405e+06
3.20907e+06
3.19427e+06
3.17969e+06
3.19886e+06
3.26752e+06
3.35849e+06
3.45726e+06
3.53383e+06
3.60623e+06
3.68381e+06
3.76653e+06
3.85369e+06
3.94519e+06
4.05343e+06
4.16581e+06
4.28317e+06
4.41462e+06
4.55347e+06
4.65857e+06
4.62393e+06
4.58965e+06
4.55574e+06
4.52219e+06
4.489e+06
4.45616e+06
4.42368e+06
4.20702e+06
3.98836e+06
3.78805e+06
3.58847e+06
3.38944e+06
3.19128e+06
2.99438e+06
2.79918e+06
2.73202e+06
2.72208e+06
2.71202e+06
2.70171e+06
4.46864e+06
5.21787e+06
5.12689e+06
5.03734e+06
4.9532e+06
4.87383e+06
4.79862e+06
4.72751e+06
4.6599e+06
4.59574e+06
4.53463e+06
4.47667e+06
4.42138e+06
4.40655e+06
4.40215e+06
4.40008e+06
4.41446e+06
4.42674e+06
4.42292e+06
4.41955e+06
4.41647e+06
4.38884e+06
4.35118e+06
4.34812e+06
5.00394e+06
5.64687e+06
6.39627e+06
7.09243e+06
7.24091e+06
7.18957e+06
6.8479e+06
6.25383e+06
5.67242e+06
5.2096e+06
4.81324e+06
4.44826e+06
4.11311e+06
3.90828e+06
3.88047e+06
3.85341e+06
3.7203e+06
3.57754e+06
3.65864e+06
3.77215e+06
3.86625e+06
3.94185e+06
3.97504e+06
3.84883e+06
3.73489e+06
3.63259e+06
3.5412e+06
3.46022e+06
3.38915e+06
3.32737e+06
3.27439e+06
3.22981e+06
3.19316e+06
3.16399e+06
3.14198e+06
3.12674e+06
3.11791e+06
3.11515e+06
3.14412e+06
3.18577e+06
3.17114e+06
3.15671e+06
3.15494e+06
3.14067e+06
3.11063e+06
3.07934e+06
3.04875e+06
3.01863e+06
3.00295e+06
2.99039e+06
2.97795e+06
2.96565e+06
2.95347e+06
2.94142e+06
2.96163e+06
3.08492e+06
3.21165e+06
3.34163e+06
3.47465e+06
3.61051e+06
3.74904e+06
3.89004e+06
4.03335e+06
4.19395e+06
4.37227e+06
4.35216e+06
4.32074e+06
4.28968e+06
4.25896e+06
4.22859e+06
4.19856e+06
4.13416e+06
3.90903e+06
3.69574e+06
3.48809e+06
3.27214e+06
4.49497e+06
5.2474e+06
5.15422e+06
5.06252e+06
4.97649e+06
4.89527e+06
4.81822e+06
4.74544e+06
4.67632e+06
4.61065e+06
4.60005e+06
4.59286e+06
4.60472e+06
4.62066e+06
4.61858e+06
4.61293e+06
4.60446e+06
4.55854e+06
4.5143e+06
4.47168e+06
4.43052e+06
4.8626e+06
5.62002e+06
6.53795e+06
7.40813e+06
7.47677e+06
7.33962e+06
6.58707e+06
5.83013e+06
5.21647e+06
4.70542e+06
4.2339e+06
4.05429e+06
4.02189e+06
3.99039e+06
3.95982e+06
3.93007e+06
4.07565e+06
3.80799e+06
3.52125e+06
3.1702e+06
2.98649e+06
2.84875e+06
2.69473e+06
2.54017e+06
2.39343e+06
2.23243e+06
2.11437e+06
2.02642e+06
1.94967e+06
1.88328e+06
1.82633e+06
1.77804e+06
1.73772e+06
1.70461e+06
1.67808e+06
1.65762e+06
1.64276e+06
1.63305e+06
1.62816e+06
1.62781e+06
1.63467e+06
1.64771e+06
1.65266e+06
1.64619e+06
1.65604e+06
1.67099e+06
1.67777e+06
1.69733e+06
1.75411e+06
1.8231e+06
1.89837e+06
1.97975e+06
2.06705e+06
2.16006e+06
2.25854e+06
2.36224e+06
2.47089e+06
2.58422e+06
2.702e+06
2.82394e+06
2.88647e+06
2.87501e+06
2.86367e+06
2.85244e+06
2.84133e+06
2.83033e+06
2.81945e+06
2.95197e+06
3.10054e+06
3.25154e+06
3.40476e+06
3.55997e+06
3.717e+06
3.87565e+06
4.05687e+06
4.12743e+06
4.1028e+06
4.07358e+06
4.04321e+06
4.52077e+06
5.27596e+06
5.18064e+06
5.08688e+06
4.99897e+06
4.91591e+06
4.83707e+06
4.80388e+06
4.79229e+06
4.80916e+06
4.82627e+06
4.81744e+06
4.80915e+06
4.7635e+06
4.71038e+06
4.65941e+06
4.61046e+06
4.56347e+06
4.51821e+06
5.23278e+06
6.22655e+06
7.2901e+06
7.72428e+06
7.61388e+06
6.66015e+06
5.74492e+06
5.05109e+06
4.44531e+06
4.19215e+06
4.15023e+06
4.11749e+06
4.08257e+06
3.82796e+06
3.40277e+06
3.07314e+06
2.77417e+06
2.58766e+06
2.23795e+06
1.89316e+06
1.66391e+06
1.49426e+06
1.37245e+06
1.24868e+06
1.19664e+06
1.22499e+06
1.30284e+06
1.36229e+06
1.34511e+06
1.33211e+06
1.3228e+06
1.31665e+06
1.31331e+06
1.31258e+06
1.31434e+06
1.31846e+06
1.32495e+06
1.33389e+06
1.34536e+06
1.35945e+06
1.36933e+06
1.36206e+06
1.35869e+06
1.3808e+06
1.40541e+06
1.38774e+06
1.36685e+06
1.34928e+06
1.32428e+06
1.30446e+06
1.28932e+06
1.27106e+06
1.25343e+06
1.23704e+06
1.21903e+06
1.20125e+06
1.19567e+06
1.20375e+06
1.22641e+06
1.26399e+06
1.31621e+06
1.3634e+06
1.4258e+06
1.52183e+06
1.62374e+06
1.73478e+06
1.85377e+06
1.97971e+06
2.1117e+06
2.24901e+06
2.39098e+06
2.53706e+06
2.68676e+06
2.75891e+06
2.74874e+06
2.73868e+06
2.72873e+06
2.87376e+06
3.03428e+06
3.1974e+06
3.34864e+06
4.54626e+06
5.30356e+06
5.20611e+06
5.11043e+06
5.02258e+06
5.00438e+06
5.01193e+06
5.03027e+06
5.02633e+06
5.01403e+06
4.9506e+06
4.88847e+06
4.82905e+06
4.7723e+06
4.71789e+06
4.66576e+06
4.6157e+06
5.43813e+06
6.64233e+06
7.85486e+06
7.91494e+06
7.19982e+06
6.08185e+06
5.18763e+06
4.46696e+06
4.28928e+06
4.25213e+06
4.2163e+06
3.71553e+06
3.15925e+06
2.68118e+06
2.22371e+06
1.76684e+06
1.49214e+06
1.33381e+06
1.23888e+06
1.2381e+06
1.39757e+06
1.40503e+06
1.41013e+06
1.35396e+06
1.31381e+06
1.28298e+06
1.25958e+06
1.24229e+06
1.23353e+06
1.23096e+06
1.22255e+06
1.21636e+06
1.21185e+06
1.20865e+06
1.20651e+06
1.20529e+06
1.20498e+06
1.20565e+06
1.20744e+06
1.21054e+06
1.21519e+06
1.22189e+06
1.2394e+06
1.26581e+06
1.29205e+06
1.32563e+06
1.36076e+06
1.38457e+06
1.41596e+06
1.45132e+06
1.45205e+06
1.44548e+06
1.45766e+06
1.47244e+06
1.48874e+06
1.50762e+06
1.53388e+06
1.56101e+06
1.58127e+06
1.60223e+06
1.62998e+06
1.62633e+06
1.62272e+06
1.61915e+06
1.56981e+06
1.47171e+06
1.38334e+06
1.30763e+06
1.24784e+06
1.20725e+06
1.1887e+06
1.19398e+06
1.2235e+06
1.27618e+06
1.31963e+06
1.39297e+06
1.51252e+06
1.63459e+06
1.767e+06
1.90777e+06
2.05534e+06
2.20888e+06
2.36889e+06
4.57152e+06
5.33027e+06
5.23593e+06
5.21292e+06
5.23157e+06
5.2496e+06
5.23109e+06
5.17332e+06
5.09968e+06
5.02968e+06
4.96287e+06
4.89926e+06
4.8385e+06
4.78052e+06
4.72495e+06
5.46062e+06
6.82768e+06
8.14388e+06
8.12201e+06
6.94801e+06
5.70605e+06
4.82017e+06
4.40751e+06
4.36582e+06
4.1169e+06
3.40785e+06
2.78578e+06
2.02016e+06
1.46638e+06
1.23759e+06
1.19951e+06
1.33173e+06
1.42738e+06
1.41737e+06
1.43726e+06
1.43887e+06
1.36336e+06
1.30804e+06
1.26273e+06
1.25137e+06
1.24043e+06
1.22259e+06
1.2152e+06
1.21524e+06
1.22014e+06
1.22745e+06
1.22431e+06
1.22139e+06
1.21868e+06
1.21615e+06
1.21378e+06
1.21155e+06
1.20945e+06
1.20746e+06
1.20558e+06
1.20378e+06
1.20206e+06
1.19558e+06
1.19028e+06
1.18799e+06
1.18833e+06
1.1939e+06
1.19869e+06
1.20479e+06
1.21872e+06
1.23909e+06
1.26112e+06
1.2964e+06
1.33747e+06
1.3769e+06
1.41679e+06
1.461e+06
1.47631e+06
1.47007e+06
1.487e+06
1.50581e+06
1.524e+06
1.55087e+06
1.58282e+06
1.60506e+06
1.62795e+06
1.64833e+06
1.64181e+06
1.63527e+06
1.62871e+06
1.62214e+06
1.61556e+06
1.60897e+06
1.60237e+06
1.59578e+06
1.58918e+06
1.58259e+06
1.51889e+06
1.40761e+06
1.31506e+06
1.2431e+06
1.19587e+06
1.17685e+06
1.18738e+06
1.16515e+06
4.59632e+06
5.42852e+06
5.45036e+06
5.46623e+06
5.44056e+06
5.35246e+06
5.26902e+06
5.18984e+06
5.11441e+06
5.04272e+06
4.97454e+06
4.90963e+06
4.84754e+06
5.28564e+06
6.74853e+06
8.28258e+06
8.32128e+06
6.94151e+06
5.56862e+06
4.61811e+06
4.49578e+06
4.26614e+06
3.43319e+06
2.60306e+06
1.6869e+06
1.23195e+06
1.21845e+06
1.44681e+06
1.47241e+06
1.45851e+06
1.43742e+06
1.46193e+06
1.46986e+06
1.37178e+06
1.30418e+06
1.30127e+06
1.33635e+06
1.32251e+06
1.28727e+06
1.25559e+06
1.24612e+06
1.2414e+06
1.2665e+06
1.34752e+06
1.44166e+06
1.53419e+06
1.61641e+06
1.68356e+06
1.73326e+06
1.76454e+06