/*--------------------------------*- C++ -*----------------------------------*\
| =========                 |                                                 |
| \\      /  F ield         | foam-extend: Open Source CFD                    |
|  \\    /   O peration     | Version:     4.1                                |
|   \\  /    A nd           | Web:         http://www.foam-extend.org         |
|    \\/     M anipulation  |                                                 |
\*---------------------------------------------------------------------------*/
FoamFile
{
    version     2.0;
    format      ascii;
    class       volVectorField;
    location    "3";
    object      D;
}
// * * * * * * * * * * * * * * * * * * * * * * * * * * * * * * * * * * * * * //

dimensions      [0 1 0 0 0 0 0];

internalField   nonuniform List<vector> 
100000
(
(1.72404e-06 -7.15264e-07 3.46269e-06)
(1.70998e-06 -7.05659e-07 3.53969e-06)
(1.69655e-06 -6.96496e-07 3.61184e-06)
(1.68371e-06 -6.87798e-07 3.68106e-06)
(1.67144e-06 -6.79525e-07 3.74785e-06)
(1.65972e-06 -6.71665e-07 3.81221e-06)
(1.64853e-06 -6.64195e-07 3.87428e-06)
(1.63783e-06 -6.57099e-07 3.93815e-06)
(1.62761e-06 -6.50358e-07 4.0008e-06)
(1.61785e-06 -6.43956e-07 4.06124e-06)
(1.60854e-06 -6.37878e-07 4.11958e-06)
(1.59964e-06 -6.3211e-07 4.17565e-06)
(1.59116e-06 -6.26637e-07 4.22151e-06)
(1.58306e-06 -6.21446e-07 4.26585e-06)
(1.57533e-06 -6.16525e-07 4.30878e-06)
(1.56797e-06 -6.11863e-07 4.35034e-06)
(1.56095e-06 -6.07447e-07 4.40144e-06)
(1.55426e-06 -6.03268e-07 4.45078e-06)
(1.54789e-06 -5.99314e-07 4.4984e-06)
(1.54183e-06 -5.95577e-07 4.54438e-06)
(1.53607e-06 -5.92048e-07 4.58877e-06)
(1.53059e-06 -5.88717e-07 4.63164e-06)
(1.52538e-06 -5.85577e-07 4.67307e-06)
(1.52044e-06 -5.82619e-07 4.71308e-06)
(1.51576e-06 -5.79836e-07 4.75175e-06)
(1.51131e-06 -5.77221e-07 4.78912e-06)
(1.50711e-06 -5.74768e-07 4.82525e-06)
(1.50314e-06 -5.72468e-07 4.86021e-06)
(1.49938e-06 -5.70317e-07 4.89404e-06)
(1.49584e-06 -5.68308e-07 4.92678e-06)
(1.4925e-06 -5.66437e-07 4.95847e-06)
(1.48936e-06 -5.64696e-07 4.98914e-06)
(1.48642e-06 -5.63084e-07 5.01882e-06)
(1.48365e-06 -5.61589e-07 5.04757e-06)
(1.48107e-06 -5.60212e-07 5.07538e-06)
(1.47866e-06 -5.58948e-07 5.10231e-06)
(1.47642e-06 -5.5779e-07 5.12839e-06)
(1.47433e-06 -5.56737e-07 5.15365e-06)
(1.47241e-06 -5.55783e-07 5.17814e-06)
(1.47064e-06 -5.54925e-07 5.20187e-06)
(1.46901e-06 -5.54159e-07 5.22487e-06)
(1.46752e-06 -5.53481e-07 5.24719e-06)
(1.46618e-06 -5.52889e-07 5.26883e-06)
(1.46496e-06 -5.5238e-07 5.28983e-06)
(1.46388e-06 -5.51949e-07 5.31021e-06)
(1.46292e-06 -5.51594e-07 5.33e-06)
(1.46208e-06 -5.51312e-07 5.34921e-06)
(1.46135e-06 -5.51101e-07 5.36787e-06)
(1.46074e-06 -5.50958e-07 5.38599e-06)
(1.46024e-06 -5.50881e-07 5.38863e-06)
(1.45985e-06 -5.50866e-07 5.38588e-06)
(1.45956e-06 -5.50912e-07 5.38296e-06)
(1.45938e-06 -5.51017e-07 5.37985e-06)
(1.45928e-06 -5.51178e-07 5.37658e-06)
(1.45929e-06 -5.51393e-07 5.37314e-06)
(1.45938e-06 -5.51661e-07 5.36954e-06)
(1.45957e-06 -5.51978e-07 5.36578e-06)
(1.45984e-06 -5.52345e-07 5.36188e-06)
(1.4602e-06 -5.52758e-07 5.35783e-06)
(1.46063e-06 -5.53216e-07 5.35364e-06)
(1.46115e-06 -5.53717e-07 5.34931e-06)
(1.46174e-06 -5.5426e-07 5.34486e-06)
(1.46241e-06 -5.54844e-07 5.34027e-06)
(1.46315e-06 -5.55466e-07 5.33556e-06)
(1.46396e-06 -5.56126e-07 5.33073e-06)
(1.46484e-06 -5.56821e-07 5.32579e-06)
(1.46579e-06 -5.57552e-07 5.32072e-06)
(1.4668e-06 -5.58315e-07 5.31555e-06)
(1.46787e-06 -5.59111e-07 5.31027e-06)
(1.469e-06 -5.59938e-07 5.30488e-06)
(1.4702e-06 -5.60794e-07 5.2994e-06)
(1.47145e-06 -5.61679e-07 5.29381e-06)
(1.47276e-06 -5.62592e-07 5.28813e-06)
(1.47412e-06 -5.63531e-07 5.28235e-06)
(1.47554e-06 -5.64496e-07 5.27648e-06)
(1.47701e-06 -5.65485e-07 5.27052e-06)
(1.47852e-06 -5.66498e-07 5.26447e-06)
(1.48009e-06 -5.67533e-07 5.25833e-06)
(1.4817e-06 -5.68591e-07 5.25211e-06)
(1.48336e-06 -5.69669e-07 5.24581e-06)
(1.48507e-06 -5.70768e-07 5.23942e-06)
(1.48682e-06 -5.71885e-07 5.23295e-06)
(1.48861e-06 -5.73022e-07 5.22639e-06)
(1.49044e-06 -5.74176e-07 5.21976e-06)
(1.49232e-06 -5.75347e-07 5.21305e-06)
(1.49423e-06 -5.76534e-07 5.20625e-06)
(1.49618e-06 -5.77738e-07 5.19938e-06)
(1.49817e-06 -5.78956e-07 5.19243e-06)
(1.50019e-06 -5.80188e-07 5.1854e-06)
(1.50225e-06 -5.81435e-07 5.17829e-06)
(1.50434e-06 -5.82694e-07 5.17109e-06)
(1.50647e-06 -5.83966e-07 5.16382e-06)
(1.50863e-06 -5.8525e-07 5.15645e-06)
(1.51082e-06 -5.86545e-07 5.14899e-06)
(1.51304e-06 -5.87851e-07 5.14144e-06)
(1.51529e-06 -5.89168e-07 5.13379e-06)
(1.51757e-06 -5.90494e-07 5.12607e-06)
(1.51988e-06 -5.9183e-07 5.11828e-06)
(1.52222e-06 -5.93175e-07 5.11065e-06)
(1.52459e-06 -5.94531e-07 5.10357e-06)
(1.71005e-06 -7.21053e-07 3.47007e-06)
(1.69585e-06 -7.11641e-07 3.54381e-06)
(1.68227e-06 -7.02662e-07 3.61583e-06)
(1.6693e-06 -6.94139e-07 3.68497e-06)
(1.65691e-06 -6.86033e-07 3.75164e-06)
(1.64507e-06 -6.78333e-07 3.81591e-06)
(1.63375e-06 -6.71014e-07 3.87785e-06)
(1.62295e-06 -6.64063e-07 3.93797e-06)
(1.61263e-06 -6.5746e-07 4.00047e-06)
(1.60277e-06 -6.5119e-07 4.06076e-06)
(1.59336e-06 -6.45238e-07 4.11899e-06)
(1.58437e-06 -6.3959e-07 4.16837e-06)
(1.5758e-06 -6.34232e-07 4.21411e-06)
(1.56762e-06 -6.29151e-07 4.25833e-06)
(1.55982e-06 -6.24335e-07 4.30115e-06)
(1.55238e-06 -6.19773e-07 4.34261e-06)
(1.54529e-06 -6.15454e-07 4.38687e-06)
(1.53853e-06 -6.11366e-07 4.43602e-06)
(1.5321e-06 -6.07501e-07 4.48345e-06)
(1.52597e-06 -6.03848e-07 4.52926e-06)
(1.52015e-06 -6.00399e-07 4.57351e-06)
(1.51461e-06 -5.97146e-07 4.61622e-06)
(1.50935e-06 -5.94079e-07 4.65752e-06)
(1.50436e-06 -5.91192e-07 4.6974e-06)
(1.49962e-06 -5.88477e-07 4.73595e-06)
(1.49513e-06 -5.85927e-07 4.77321e-06)
(1.49088e-06 -5.83536e-07 4.80925e-06)
(1.48686e-06 -5.81296e-07 4.84411e-06)
(1.48307e-06 -5.79203e-07 4.87786e-06)
(1.47948e-06 -5.77249e-07 4.91053e-06)
(1.47611e-06 -5.7543e-07 4.94215e-06)
(1.47293e-06 -5.73739e-07 4.97277e-06)
(1.46994e-06 -5.72176e-07 5.00239e-06)
(1.46714e-06 -5.70732e-07 5.03107e-06)
(1.46453e-06 -5.69398e-07 5.05885e-06)
(1.46208e-06 -5.68177e-07 5.08574e-06)
(1.45981e-06 -5.67062e-07 5.11179e-06)
(1.4577e-06 -5.66048e-07 5.13703e-06)
(1.45574e-06 -5.65133e-07 5.1615e-06)
(1.45394e-06 -5.64312e-07 5.18523e-06)
(1.45228e-06 -5.63582e-07 5.20822e-06)
(1.45077e-06 -5.62939e-07 5.23053e-06)
(1.4494e-06 -5.6238e-07 5.25216e-06)
(1.44816e-06 -5.61902e-07 5.27317e-06)
(1.44704e-06 -5.61503e-07 5.29356e-06)
(1.44606e-06 -5.61178e-07 5.31337e-06)
(1.44519e-06 -5.60925e-07 5.3328e-06)
(1.44445e-06 -5.60742e-07 5.35176e-06)
(1.44381e-06 -5.60626e-07 5.37019e-06)
(1.44329e-06 -5.60574e-07 5.36979e-06)
(1.44288e-06 -5.60585e-07 5.36724e-06)
(1.44257e-06 -5.60656e-07 5.3645e-06)
(1.44236e-06 -5.60784e-07 5.36158e-06)
(1.44224e-06 -5.60968e-07 5.35848e-06)
(1.44223e-06 -5.61205e-07 5.35522e-06)
(1.4423e-06 -5.61494e-07 5.35179e-06)
(1.44247e-06 -5.61832e-07 5.3482e-06)
(1.44272e-06 -5.62219e-07 5.34447e-06)
(1.44305e-06 -5.62652e-07 5.34058e-06)
(1.44347e-06 -5.63129e-07 5.33655e-06)
(1.44397e-06 -5.63649e-07 5.33238e-06)
(1.44454e-06 -5.6421e-07 5.32808e-06)
(1.44519e-06 -5.64811e-07 5.32364e-06)
(1.44591e-06 -5.6545e-07 5.31908e-06)
(1.44671e-06 -5.66127e-07 5.31439e-06)
(1.44757e-06 -5.66838e-07 5.30958e-06)
(1.44849e-06 -5.67585e-07 5.30465e-06)
(1.44949e-06 -5.68364e-07 5.29961e-06)
(1.45054e-06 -5.69174e-07 5.29446e-06)
(1.45166e-06 -5.70016e-07 5.2892e-06)
(1.45283e-06 -5.70887e-07 5.28383e-06)
(1.45407e-06 -5.71786e-07 5.27836e-06)
(1.45536e-06 -5.72713e-07 5.27279e-06)
(1.4567e-06 -5.73665e-07 5.26712e-06)
(1.4581e-06 -5.74643e-07 5.26136e-06)
(1.45955e-06 -5.75646e-07 5.2555e-06)
(1.46105e-06 -5.76671e-07 5.24955e-06)
(1.4626e-06 -5.77719e-07 5.2435e-06)
(1.4642e-06 -5.78789e-07 5.23738e-06)
(1.46584e-06 -5.7988e-07 5.23116e-06)
(1.46753e-06 -5.8099e-07 5.22486e-06)
(1.46926e-06 -5.8212e-07 5.21847e-06)
(1.47103e-06 -5.83268e-07 5.212e-06)
(1.47285e-06 -5.84433e-07 5.20545e-06)
(1.4747e-06 -5.85616e-07 5.19881e-06)
(1.4766e-06 -5.86814e-07 5.19209e-06)
(1.47853e-06 -5.88029e-07 5.1853e-06)
(1.4805e-06 -5.89258e-07 5.17842e-06)
(1.4825e-06 -5.90502e-07 5.17147e-06)
(1.48455e-06 -5.91759e-07 5.16444e-06)
(1.48662e-06 -5.93029e-07 5.15734e-06)
(1.48873e-06 -5.94311e-07 5.15016e-06)
(1.49087e-06 -5.95606e-07 5.14291e-06)
(1.49304e-06 -5.96911e-07 5.13559e-06)
(1.49524e-06 -5.98228e-07 5.12821e-06)
(1.49747e-06 -5.99555e-07 5.1208e-06)
(1.49974e-06 -6.00892e-07 5.1134e-06)
(1.50202e-06 -6.02238e-07 5.10603e-06)
(1.50434e-06 -6.03594e-07 5.09892e-06)
(1.50669e-06 -6.04956e-07 5.09203e-06)
(1.69596e-06 -7.26801e-07 3.47461e-06)
(1.68162e-06 -7.17587e-07 3.5482e-06)
(1.66791e-06 -7.08796e-07 3.62006e-06)
(1.65481e-06 -7.00452e-07 3.68908e-06)
(1.64229e-06 -6.92517e-07 3.75561e-06)
(1.63033e-06 -6.8498e-07 3.81975e-06)
(1.61891e-06 -6.77817e-07 3.88159e-06)
(1.608e-06 -6.71013e-07 3.94125e-06)
(1.59757e-06 -6.64552e-07 4.00027e-06)
(1.58762e-06 -6.58417e-07 4.06041e-06)
(1.57812e-06 -6.52594e-07 4.11398e-06)
(1.56905e-06 -6.47069e-07 4.1611e-06)
(1.56039e-06 -6.41829e-07 4.20671e-06)
(1.55213e-06 -6.3686e-07 4.25079e-06)
(1.54425e-06 -6.32152e-07 4.29351e-06)
(1.53674e-06 -6.27693e-07 4.33485e-06)
(1.52958e-06 -6.23471e-07 4.3749e-06)
(1.52276e-06 -6.19478e-07 4.4212e-06)
(1.51627e-06 -6.15702e-07 4.46843e-06)
(1.51008e-06 -6.12136e-07 4.51406e-06)
(1.5042e-06 -6.08769e-07 4.55815e-06)
(1.49861e-06 -6.05595e-07 4.60098e-06)
(1.4933e-06 -6.02604e-07 4.64252e-06)
(1.48825e-06 -5.99789e-07 4.68267e-06)
(1.48347e-06 -5.97144e-07 4.72149e-06)
(1.47893e-06 -5.94661e-07 4.75903e-06)
(1.47464e-06 -5.92333e-07 4.79536e-06)
(1.47057e-06 -5.90155e-07 4.83051e-06)
(1.46673e-06 -5.8812e-07 4.86453e-06)
(1.46311e-06 -5.86223e-07 4.89749e-06)
(1.45969e-06 -5.84458e-07 4.92942e-06)
(1.45648e-06 -5.8282e-07 4.96034e-06)
(1.45346e-06 -5.81303e-07 4.99028e-06)
(1.45063e-06 -5.79906e-07 5.01927e-06)
(1.44798e-06 -5.78621e-07 5.04735e-06)
(1.4455e-06 -5.77444e-07 5.07456e-06)
(1.44319e-06 -5.76371e-07 5.10092e-06)
(1.44105e-06 -5.75399e-07 5.12648e-06)
(1.43907e-06 -5.74523e-07 5.15125e-06)
(1.43723e-06 -5.7374e-07 5.17528e-06)
(1.43555e-06 -5.73047e-07 5.19859e-06)
(1.43401e-06 -5.72439e-07 5.22121e-06)
(1.43261e-06 -5.71914e-07 5.24316e-06)
(1.43134e-06 -5.71469e-07 5.26449e-06)
(1.43021e-06 -5.71101e-07 5.28518e-06)
(1.4292e-06 -5.70806e-07 5.3053e-06)
(1.42831e-06 -5.70583e-07 5.32485e-06)
(1.42754e-06 -5.70428e-07 5.34385e-06)
(1.42688e-06 -5.7034e-07 5.36135e-06)
(1.42634e-06 -5.70315e-07 5.35894e-06)
(1.4259e-06 -5.70351e-07 5.35634e-06)
(1.42557e-06 -5.70446e-07 5.35355e-06)
(1.42534e-06 -5.70598e-07 5.35059e-06)
(1.42521e-06 -5.70805e-07 5.34745e-06)
(1.42517e-06 -5.71065e-07 5.34415e-06)
(1.42522e-06 -5.71376e-07 5.34068e-06)
(1.42537e-06 -5.71735e-07 5.33706e-06)
(1.4256e-06 -5.72142e-07 5.33329e-06)
(1.42592e-06 -5.72595e-07 5.32937e-06)
(1.42632e-06 -5.73091e-07 5.32531e-06)
(1.42679e-06 -5.7363e-07 5.32111e-06)
(1.42735e-06 -5.7421e-07 5.31677e-06)
(1.42798e-06 -5.74828e-07 5.31231e-06)
(1.42868e-06 -5.75485e-07 5.30772e-06)
(1.42945e-06 -5.76178e-07 5.303e-06)
(1.4303e-06 -5.76906e-07 5.29817e-06)
(1.43121e-06 -5.77668e-07 5.29321e-06)
(1.43218e-06 -5.78463e-07 5.28815e-06)
(1.43322e-06 -5.79289e-07 5.28297e-06)
(1.43432e-06 -5.80145e-07 5.27769e-06)
(1.43548e-06 -5.81031e-07 5.27231e-06)
(1.43669e-06 -5.81944e-07 5.26682e-06)
(1.43796e-06 -5.82885e-07 5.26123e-06)
(1.43929e-06 -5.83851e-07 5.25555e-06)
(1.44067e-06 -5.84843e-07 5.24977e-06)
(1.4421e-06 -5.85858e-07 5.24389e-06)
(1.44359e-06 -5.86897e-07 5.23793e-06)
(1.44512e-06 -5.87957e-07 5.23188e-06)
(1.44669e-06 -5.89039e-07 5.22574e-06)
(1.44832e-06 -5.90142e-07 5.21952e-06)
(1.44999e-06 -5.91265e-07 5.21321e-06)
(1.4517e-06 -5.92406e-07 5.20682e-06)
(1.45346e-06 -5.93566e-07 5.20035e-06)
(1.45526e-06 -5.94743e-07 5.1938e-06)
(1.45709e-06 -5.95936e-07 5.18717e-06)
(1.45897e-06 -5.97147e-07 5.18046e-06)
(1.46088e-06 -5.98372e-07 5.17368e-06)
(1.46284e-06 -5.99612e-07 5.16683e-06)
(1.46482e-06 -6.00867e-07 5.15991e-06)
(1.46685e-06 -6.02134e-07 5.15292e-06)
(1.4689e-06 -6.03415e-07 5.14586e-06)
(1.47099e-06 -6.04708e-07 5.13875e-06)
(1.47311e-06 -6.06013e-07 5.13159e-06)
(1.47527e-06 -6.07329e-07 5.12438e-06)
(1.47745e-06 -6.08656e-07 5.11716e-06)
(1.47966e-06 -6.09993e-07 5.10994e-06)
(1.4819e-06 -6.1134e-07 5.10277e-06)
(1.48417e-06 -6.12696e-07 5.09566e-06)
(1.48647e-06 -6.14063e-07 5.08879e-06)
(1.48879e-06 -6.15434e-07 5.08206e-06)
(1.68178e-06 -7.32508e-07 3.47942e-06)
(1.66729e-06 -7.23497e-07 3.55285e-06)
(1.65345e-06 -7.14897e-07 3.62451e-06)
(1.64023e-06 -7.06737e-07 3.69336e-06)
(1.62759e-06 -6.98977e-07 3.75975e-06)
(1.61552e-06 -6.91606e-07 3.824e-06)
(1.60399e-06 -6.84602e-07 3.88636e-06)
(1.59298e-06 -6.7795e-07 3.94652e-06)
(1.58246e-06 -6.71633e-07 4.00461e-06)
(1.57242e-06 -6.65636e-07 4.061e-06)
(1.56283e-06 -6.59945e-07 4.11008e-06)
(1.55367e-06 -6.54546e-07 4.15755e-06)
(1.54493e-06 -6.49426e-07 4.2035e-06)
(1.5366e-06 -6.44572e-07 4.24794e-06)
(1.52865e-06 -6.39974e-07 4.291e-06)
(1.52107e-06 -6.35619e-07 4.33273e-06)
(1.51384e-06 -6.31498e-07 4.37313e-06)
(1.50696e-06 -6.27601e-07 4.41295e-06)
(1.5004e-06 -6.23917e-07 4.46044e-06)
(1.49416e-06 -6.20439e-07 4.50632e-06)
(1.48822e-06 -6.17156e-07 4.5507e-06)
(1.48258e-06 -6.14062e-07 4.59355e-06)
(1.47721e-06 -6.11149e-07 4.63498e-06)
(1.47212e-06 -6.08408e-07 4.67502e-06)
(1.46729e-06 -6.05834e-07 4.71374e-06)
(1.46271e-06 -6.03418e-07 4.75119e-06)
(1.45837e-06 -6.01156e-07 4.78744e-06)
(1.45426e-06 -5.9904e-07 4.82252e-06)
(1.45038e-06 -5.97065e-07 4.85648e-06)
(1.44672e-06 -5.95226e-07 4.88937e-06)
(1.44327e-06 -5.93516e-07 4.92123e-06)
(1.44002e-06 -5.91931e-07 4.95211e-06)
(1.43696e-06 -5.90466e-07 4.98201e-06)
(1.4341e-06 -5.89117e-07 5.01097e-06)
(1.43141e-06 -5.87879e-07 5.03902e-06)
(1.42891e-06 -5.86747e-07 5.06621e-06)
(1.42657e-06 -5.85718e-07 5.09257e-06)
(1.4244e-06 -5.84787e-07 5.11812e-06)
(1.42239e-06 -5.83951e-07 5.14288e-06)
(1.42053e-06 -5.83207e-07 5.16692e-06)
(1.41882e-06 -5.82551e-07 5.19022e-06)
(1.41725e-06 -5.81979e-07 5.21285e-06)
(1.41582e-06 -5.81489e-07 5.2348e-06)
(1.41453e-06 -5.81077e-07 5.25614e-06)
(1.41337e-06 -5.80741e-07 5.27685e-06)
(1.41234e-06 -5.80477e-07 5.29699e-06)
(1.41143e-06 -5.80284e-07 5.31657e-06)
(1.41063e-06 -5.80158e-07 5.33561e-06)
(1.40996e-06 -5.80097e-07 5.35049e-06)
(1.40939e-06 -5.80099e-07 5.34803e-06)
(1.40893e-06 -5.80161e-07 5.34538e-06)
(1.40858e-06 -5.80282e-07 5.34255e-06)
(1.40833e-06 -5.80458e-07 5.33955e-06)
(1.40817e-06 -5.80689e-07 5.33637e-06)
(1.40812e-06 -5.80971e-07 5.33303e-06)
(1.40815e-06 -5.81304e-07 5.32952e-06)
(1.40828e-06 -5.81685e-07 5.32586e-06)
(1.40849e-06 -5.82113e-07 5.32206e-06)
(1.40879e-06 -5.82585e-07 5.3181e-06)
(1.40917e-06 -5.83101e-07 5.31401e-06)
(1.40962e-06 -5.83659e-07 5.30978e-06)
(1.41016e-06 -5.84257e-07 5.30542e-06)
(1.41077e-06 -5.84893e-07 5.30093e-06)
(1.41146e-06 -5.85568e-07 5.29631e-06)
(1.41221e-06 -5.86278e-07 5.29157e-06)
(1.41304e-06 -5.87022e-07 5.28671e-06)
(1.41393e-06 -5.87801e-07 5.28173e-06)
(1.41488e-06 -5.88611e-07 5.27664e-06)
(1.4159e-06 -5.89452e-07 5.27145e-06)
(1.41698e-06 -5.90324e-07 5.26615e-06)
(1.41813e-06 -5.91224e-07 5.26074e-06)
(1.41932e-06 -5.92152e-07 5.25524e-06)
(1.42058e-06 -5.93106e-07 5.24964e-06)
(1.42189e-06 -5.94086e-07 5.24394e-06)
(1.42325e-06 -5.95091e-07 5.23815e-06)
(1.42466e-06 -5.9612e-07 5.23227e-06)
(1.42613e-06 -5.97171e-07 5.2263e-06)
(1.42764e-06 -5.98244e-07 5.22024e-06)
(1.4292e-06 -5.99339e-07 5.2141e-06)
(1.43081e-06 -6.00454e-07 5.20787e-06)
(1.43246e-06 -6.01589e-07 5.20157e-06)
(1.43416e-06 -6.02742e-07 5.19518e-06)
(1.43589e-06 -6.03913e-07 5.18872e-06)
(1.43767e-06 -6.05101e-07 5.18218e-06)
(1.43949e-06 -6.06306e-07 5.17556e-06)
(1.44135e-06 -6.07527e-07 5.16888e-06)
(1.44325e-06 -6.08764e-07 5.16212e-06)
(1.44518e-06 -6.10016e-07 5.1553e-06)
(1.44715e-06 -6.11281e-07 5.14842e-06)
(1.44915e-06 -6.12559e-07 5.14148e-06)
(1.45119e-06 -6.13851e-07 5.13449e-06)
(1.45326e-06 -6.15154e-07 5.12746e-06)
(1.45536e-06 -6.1647e-07 5.1204e-06)
(1.4575e-06 -6.17796e-07 5.11331e-06)
(1.45966e-06 -6.19133e-07 5.10623e-06)
(1.46186e-06 -6.20481e-07 5.09917e-06)
(1.46408e-06 -6.21838e-07 5.09217e-06)
(1.46633e-06 -6.23203e-07 5.08523e-06)
(1.4686e-06 -6.2458e-07 5.07848e-06)
(1.47091e-06 -6.2596e-07 5.07182e-06)
(1.66749e-06 -7.38174e-07 3.39665e-06)
(1.65288e-06 -7.29369e-07 3.56193e-06)
(1.63891e-06 -7.20966e-07 3.63419e-06)
(1.62556e-06 -7.12993e-07 3.70361e-06)
(1.61282e-06 -7.05411e-07 3.77056e-06)
(1.60064e-06 -6.9821e-07 3.83515e-06)
(1.58901e-06 -6.91368e-07 3.89747e-06)
(1.57789e-06 -6.84871e-07 3.95755e-06)
(1.56728e-06 -6.78702e-07 4.01524e-06)
(1.55715e-06 -6.72846e-07 4.06272e-06)
(1.54748e-06 -6.6729e-07 4.11059e-06)
(1.53824e-06 -6.62019e-07 4.15794e-06)
(1.52943e-06 -6.57022e-07 4.20381e-06)
(1.52102e-06 -6.52285e-07 4.24817e-06)
(1.513e-06 -6.47799e-07 4.29115e-06)
(1.50535e-06 -6.43552e-07 4.3328e-06)
(1.49806e-06 -6.39533e-07 4.37315e-06)
(1.49112e-06 -6.35734e-07 4.41228e-06)
(1.4845e-06 -6.32144e-07 4.45336e-06)
(1.47821e-06 -6.28755e-07 4.49908e-06)
(1.47222e-06 -6.25559e-07 4.54331e-06)
(1.46652e-06 -6.22547e-07 4.58602e-06)
(1.46111e-06 -6.19712e-07 4.62733e-06)
(1.45597e-06 -6.17047e-07 4.66725e-06)
(1.45109e-06 -6.14545e-07 4.70587e-06)
(1.44646e-06 -6.12199e-07 4.74322e-06)
(1.44208e-06 -6.10003e-07 4.77937e-06)
(1.43794e-06 -6.07951e-07 4.81437e-06)
(1.43402e-06 -6.06037e-07 4.84825e-06)
(1.43032e-06 -6.04256e-07 4.88107e-06)
(1.42683e-06 -6.02603e-07 4.91286e-06)
(1.42355e-06 -6.01072e-07 4.94367e-06)
(1.42046e-06 -5.99659e-07 4.97352e-06)
(1.41756e-06 -5.98359e-07 5.00244e-06)
(1.41485e-06 -5.97169e-07 5.03046e-06)
(1.41231e-06 -5.96083e-07 5.05763e-06)
(1.40995e-06 -5.95098e-07 5.08395e-06)
(1.40774e-06 -5.9421e-07 5.10948e-06)
(1.4057e-06 -5.93415e-07 5.13423e-06)
(1.40382e-06 -5.9271e-07 5.15825e-06)
(1.40208e-06 -5.92092e-07 5.18155e-06)
(1.40049e-06 -5.91557e-07 5.20418e-06)
(1.39904e-06 -5.91102e-07 5.22615e-06)
(1.39772e-06 -5.90724e-07 5.2475e-06)
(1.39654e-06 -5.9042e-07 5.26823e-06)
(1.39548e-06 -5.90188e-07 5.28839e-06)
(1.39455e-06 -5.90025e-07 5.30798e-06)
(1.39373e-06 -5.89928e-07 5.32706e-06)
(1.39303e-06 -5.89896e-07 5.33959e-06)
(1.39245e-06 -5.89925e-07 5.33708e-06)
(1.39197e-06 -5.90013e-07 5.33438e-06)
(1.39159e-06 -5.90159e-07 5.3315e-06)
(1.39132e-06 -5.9036e-07 5.32846e-06)
(1.39115e-06 -5.90615e-07 5.32524e-06)
(1.39107e-06 -5.9092e-07 5.32185e-06)
(1.39109e-06 -5.91275e-07 5.31831e-06)
(1.39119e-06 -5.91678e-07 5.31462e-06)
(1.39139e-06 -5.92127e-07 5.31078e-06)
(1.39166e-06 -5.9262e-07 5.30679e-06)
(1.39202e-06 -5.93155e-07 5.30267e-06)
(1.39247e-06 -5.93732e-07 5.29841e-06)
(1.39298e-06 -5.94349e-07 5.29402e-06)
(1.39358e-06 -5.95003e-07 5.2895e-06)
(1.39424e-06 -5.95695e-07 5.28486e-06)
(1.39498e-06 -5.96422e-07 5.28009e-06)
(1.39579e-06 -5.97184e-07 5.27521e-06)
(1.39666e-06 -5.97978e-07 5.27021e-06)
(1.3976e-06 -5.98804e-07 5.2651e-06)
(1.3986e-06 -5.99661e-07 5.25989e-06)
(1.39966e-06 -6.00548e-07 5.25457e-06)
(1.40079e-06 -6.01462e-07 5.24915e-06)
(1.40197e-06 -6.02405e-07 5.24363e-06)
(1.4032e-06 -6.03373e-07 5.23802e-06)
(1.4045e-06 -6.04367e-07 5.23231e-06)
(1.40584e-06 -6.05385e-07 5.22651e-06)
(1.40724e-06 -6.06427e-07 5.22063e-06)
(1.40868e-06 -6.07492e-07 5.21465e-06)
(1.41018e-06 -6.08578e-07 5.20859e-06)
(1.41172e-06 -6.09685e-07 5.20245e-06)
(1.41331e-06 -6.10812e-07 5.19623e-06)
(1.41495e-06 -6.11959e-07 5.18993e-06)
(1.41662e-06 -6.13124e-07 5.18355e-06)
(1.41834e-06 -6.14307e-07 5.1771e-06)
(1.4201e-06 -6.15506e-07 5.17058e-06)
(1.4219e-06 -6.16722e-07 5.16399e-06)
(1.42374e-06 -6.17955e-07 5.15733e-06)
(1.42562e-06 -6.19203e-07 5.15061e-06)
(1.42754e-06 -6.20465e-07 5.14383e-06)
(1.42949e-06 -6.21741e-07 5.137e-06)
(1.43147e-06 -6.2303e-07 5.13012e-06)
(1.43349e-06 -6.24332e-07 5.12321e-06)
(1.43555e-06 -6.25647e-07 5.11626e-06)
(1.43763e-06 -6.26972e-07 5.10929e-06)
(1.43974e-06 -6.28309e-07 5.10232e-06)
(1.44189e-06 -6.29656e-07 5.09536e-06)
(1.44406e-06 -6.31014e-07 5.08842e-06)
(1.44626e-06 -6.32381e-07 5.08155e-06)
(1.4485e-06 -6.33757e-07 5.07472e-06)
(1.45075e-06 -6.35143e-07 5.06804e-06)
(1.45303e-06 -6.36532e-07 5.06144e-06)
(1.65311e-06 -7.43797e-07 3.11274e-06)
(1.63837e-06 -7.35204e-07 3.356e-06)
(1.62428e-06 -7.27e-07 3.59246e-06)
(1.61082e-06 -7.19219e-07 3.71512e-06)
(1.59796e-06 -7.11819e-07 3.78198e-06)
(1.58568e-06 -7.04791e-07 3.84649e-06)
(1.57395e-06 -6.98115e-07 3.90875e-06)
(1.56275e-06 -6.91776e-07 3.96878e-06)
(1.55205e-06 -6.85757e-07 4.01869e-06)
(1.54183e-06 -6.80045e-07 4.06608e-06)
(1.53207e-06 -6.74626e-07 4.11193e-06)
(1.52276e-06 -6.69487e-07 4.15838e-06)
(1.51388e-06 -6.64614e-07 4.20415e-06)
(1.5054e-06 -6.59998e-07 4.24842e-06)
(1.49731e-06 -6.55626e-07 4.29131e-06)
(1.4896e-06 -6.51488e-07 4.33287e-06)
(1.48225e-06 -6.47574e-07 4.37315e-06)
(1.47524e-06 -6.43874e-07 4.41221e-06)
(1.46857e-06 -6.4038e-07 4.4501e-06)
(1.46222e-06 -6.37083e-07 4.49179e-06)
(1.45618e-06 -6.33974e-07 4.53585e-06)
(1.45044e-06 -6.31047e-07 4.57841e-06)
(1.44498e-06 -6.28292e-07 4.61959e-06)
(1.43979e-06 -6.25704e-07 4.65939e-06)
(1.43487e-06 -6.23275e-07 4.69789e-06)
(1.43021e-06 -6.21e-07 4.73512e-06)
(1.42579e-06 -6.18872e-07 4.77116e-06)
(1.4216e-06 -6.16885e-07 4.80606e-06)
(1.41765e-06 -6.15033e-07 4.83985e-06)
(1.41391e-06 -6.13312e-07 4.87259e-06)
(1.41039e-06 -6.11716e-07 4.90431e-06)
(1.40707e-06 -6.1024e-07 4.93505e-06)
(1.40395e-06 -6.0888e-07 4.96484e-06)
(1.40102e-06 -6.07631e-07 4.9937e-06)
(1.39828e-06 -6.06489e-07 5.02168e-06)
(1.39571e-06 -6.0545e-07 5.04881e-06)
(1.39332e-06 -6.0451e-07 5.07511e-06)
(1.39109e-06 -6.03665e-07 5.10062e-06)
(1.38902e-06 -6.02912e-07 5.12534e-06)
(1.38711e-06 -6.02247e-07 5.14935e-06)
(1.38535e-06 -6.01667e-07 5.17263e-06)
(1.38373e-06 -6.01169e-07 5.19525e-06)
(1.38226e-06 -6.0075e-07 5.21722e-06)
(1.38092e-06 -6.00406e-07 5.23856e-06)
(1.37971e-06 -6.00136e-07 5.2593e-06)
(1.37863e-06 -5.99936e-07 5.27947e-06)
(1.37768e-06 -5.99803e-07 5.29908e-06)
(1.37684e-06 -5.99736e-07 5.31818e-06)
(1.37612e-06 -5.99732e-07 5.32864e-06)
(1.37551e-06 -5.99789e-07 5.32608e-06)
(1.37501e-06 -5.99905e-07 5.32334e-06)
(1.37462e-06 -6.00076e-07 5.32041e-06)
(1.37433e-06 -6.00302e-07 5.31732e-06)
(1.37413e-06 -6.00581e-07 5.31406e-06)
(1.37404e-06 -6.0091e-07 5.31064e-06)
(1.37403e-06 -6.01287e-07 5.30706e-06)
(1.37412e-06 -6.01712e-07 5.30333e-06)
(1.3743e-06 -6.02182e-07 5.29946e-06)
(1.37455e-06 -6.02695e-07 5.29544e-06)
(1.3749e-06 -6.03251e-07 5.29129e-06)
(1.37532e-06 -6.03847e-07 5.287e-06)
(1.37582e-06 -6.04482e-07 5.28258e-06)
(1.37639e-06 -6.05155e-07 5.27803e-06)
(1.37704e-06 -6.05865e-07 5.27336e-06)
(1.37776e-06 -6.06609e-07 5.26858e-06)
(1.37855e-06 -6.07388e-07 5.26367e-06)
(1.37941e-06 -6.08198e-07 5.25865e-06)
(1.38033e-06 -6.0904e-07 5.25353e-06)
(1.38131e-06 -6.09913e-07 5.2483e-06)
(1.38236e-06 -6.10814e-07 5.24297e-06)
(1.38346e-06 -6.11744e-07 5.23753e-06)
(1.38462e-06 -6.12701e-07 5.23201e-06)
(1.38584e-06 -6.13683e-07 5.22638e-06)
(1.38712e-06 -6.14691e-07 5.22067e-06)
(1.38845e-06 -6.15723e-07 5.21486e-06)
(1.38982e-06 -6.16778e-07 5.20897e-06)
(1.39125e-06 -6.17856e-07 5.203e-06)
(1.39273e-06 -6.18955e-07 5.19694e-06)
(1.39426e-06 -6.20074e-07 5.1908e-06)
(1.39583e-06 -6.21213e-07 5.18459e-06)
(1.39744e-06 -6.22373e-07 5.1783e-06)
(1.3991e-06 -6.2355e-07 5.17193e-06)
(1.40081e-06 -6.24744e-07 5.1655e-06)
(1.40255e-06 -6.25955e-07 5.159e-06)
(1.40433e-06 -6.27179e-07 5.15245e-06)
(1.40615e-06 -6.28424e-07 5.14582e-06)
(1.40801e-06 -6.29685e-07 5.13913e-06)
(1.40991e-06 -6.30958e-07 5.1324e-06)
(1.41184e-06 -6.32245e-07 5.12563e-06)
(1.41381e-06 -6.33545e-07 5.11881e-06)
(1.41581e-06 -6.34857e-07 5.11197e-06)
(1.41784e-06 -6.36182e-07 5.1051e-06)
(1.41991e-06 -6.37518e-07 5.09822e-06)
(1.422e-06 -6.38865e-07 5.09134e-06)
(1.42413e-06 -6.40223e-07 5.08448e-06)
(1.42628e-06 -6.4159e-07 5.07764e-06)
(1.42847e-06 -6.42968e-07 5.07085e-06)
(1.43068e-06 -6.44353e-07 5.0641e-06)
(1.43291e-06 -6.45749e-07 5.05899e-06)
(1.43518e-06 -6.47148e-07 5.05461e-06)
(1.63863e-06 -7.49378e-07 2.82952e-06)
(1.62377e-06 -7.41e-07 3.06514e-06)
(1.60956e-06 -7.33e-07 3.2944e-06)
(1.59599e-06 -7.25414e-07 3.51227e-06)
(1.58304e-06 -7.18199e-07 3.72062e-06)
(1.57065e-06 -7.11349e-07 3.85801e-06)
(1.55883e-06 -7.04841e-07 3.92017e-06)
(1.54754e-06 -6.98663e-07 3.97328e-06)
(1.53675e-06 -6.92798e-07 4.02222e-06)
(1.52645e-06 -6.87232e-07 4.0695e-06)
(1.51662e-06 -6.81953e-07 4.11527e-06)
(1.50723e-06 -6.76947e-07 4.15953e-06)
(1.49828e-06 -6.72203e-07 4.20451e-06)
(1.48973e-06 -6.67708e-07 4.24869e-06)
(1.48158e-06 -6.63453e-07 4.29147e-06)
(1.47381e-06 -6.59426e-07 4.33295e-06)
(1.4664e-06 -6.55619e-07 4.37314e-06)
(1.45934e-06 -6.52021e-07 4.41212e-06)
(1.45262e-06 -6.48624e-07 4.44994e-06)
(1.44622e-06 -6.4542e-07 4.4866e-06)
(1.44013e-06 -6.42401e-07 4.52833e-06)
(1.43434e-06 -6.39559e-07 4.57073e-06)
(1.42883e-06 -6.36886e-07 4.61174e-06)
(1.4236e-06 -6.34376e-07 4.6514e-06)
(1.41864e-06 -6.32023e-07 4.68978e-06)
(1.41394e-06 -6.29819e-07 4.7269e-06)
(1.40948e-06 -6.2776e-07 4.76283e-06)
(1.40526e-06 -6.25839e-07 4.79762e-06)
(1.40127e-06 -6.24051e-07 4.83131e-06)
(1.3975e-06 -6.2239e-07 4.86395e-06)
(1.39394e-06 -6.20853e-07 4.89558e-06)
(1.39059e-06 -6.19433e-07 4.92625e-06)
(1.38744e-06 -6.18126e-07 4.95597e-06)
(1.38448e-06 -6.16929e-07 4.98478e-06)
(1.38171e-06 -6.15837e-07 5.0127e-06)
(1.37911e-06 -6.14845e-07 5.03979e-06)
(1.37669e-06 -6.13951e-07 5.06604e-06)
(1.37444e-06 -6.1315e-07 5.09151e-06)
(1.37235e-06 -6.12439e-07 5.1162e-06)
(1.37041e-06 -6.11815e-07 5.14018e-06)
(1.36862e-06 -6.11274e-07 5.16344e-06)
(1.36698e-06 -6.10814e-07 5.18605e-06)
(1.36549e-06 -6.10431e-07 5.208e-06)
(1.36412e-06 -6.10122e-07 5.22934e-06)
(1.36289e-06 -6.09885e-07 5.25007e-06)
(1.36179e-06 -6.09717e-07 5.27025e-06)
(1.36082e-06 -6.09616e-07 5.28987e-06)
(1.35996e-06 -6.0958e-07 5.30898e-06)
(1.35922e-06 -6.09605e-07 5.31766e-06)
(1.35859e-06 -6.0969e-07 5.31505e-06)
(1.35807e-06 -6.09832e-07 5.31225e-06)
(1.35765e-06 -6.1003e-07 5.30929e-06)
(1.35734e-06 -6.10281e-07 5.30615e-06)
(1.35713e-06 -6.10584e-07 5.30285e-06)
(1.35702e-06 -6.10937e-07 5.29939e-06)
(1.35699e-06 -6.11337e-07 5.29577e-06)
(1.35706e-06 -6.11784e-07 5.29201e-06)
(1.35722e-06 -6.12275e-07 5.2881e-06)
(1.35746e-06 -6.12809e-07 5.28405e-06)
(1.35778e-06 -6.13385e-07 5.27987e-06)
(1.35819e-06 -6.14001e-07 5.27555e-06)
(1.35867e-06 -6.14655e-07 5.27111e-06)
(1.35923e-06 -6.15347e-07 5.26654e-06)
(1.35986e-06 -6.16074e-07 5.26184e-06)
(1.36056e-06 -6.16836e-07 5.25703e-06)
(1.36133e-06 -6.17631e-07 5.25211e-06)
(1.36217e-06 -6.18458e-07 5.24707e-06)
(1.36307e-06 -6.19316e-07 5.24193e-06)
(1.36404e-06 -6.20204e-07 5.23668e-06)
(1.36507e-06 -6.21121e-07 5.23134e-06)
(1.36615e-06 -6.22066e-07 5.22589e-06)
(1.3673e-06 -6.23037e-07 5.22036e-06)
(1.3685e-06 -6.24034e-07 5.21472e-06)
(1.36976e-06 -6.25056e-07 5.209e-06)
(1.37107e-06 -6.26101e-07 5.2032e-06)
(1.37243e-06 -6.2717e-07 5.19731e-06)
(1.37384e-06 -6.28261e-07 5.19133e-06)
(1.3753e-06 -6.29372e-07 5.18528e-06)
(1.3768e-06 -6.30505e-07 5.17915e-06)
(1.37836e-06 -6.31656e-07 5.17295e-06)
(1.37997e-06 -6.32826e-07 5.16667e-06)
(1.3816e-06 -6.34017e-07 5.16032e-06)
(1.38329e-06 -6.35223e-07 5.15391e-06)
(1.38501e-06 -6.36449e-07 5.14743e-06)
(1.38677e-06 -6.37685e-07 5.14091e-06)
(1.38858e-06 -6.38934e-07 5.13433e-06)
(1.39043e-06 -6.40205e-07 5.12769e-06)
(1.3923e-06 -6.4149e-07 5.12101e-06)
(1.39422e-06 -6.42788e-07 5.11429e-06)
(1.39616e-06 -6.44099e-07 5.10753e-06)
(1.39814e-06 -6.45422e-07 5.10076e-06)
(1.40016e-06 -6.46757e-07 5.09396e-06)
(1.4022e-06 -6.48104e-07 5.08716e-06)
(1.40428e-06 -6.49461e-07 5.08036e-06)
(1.40639e-06 -6.50829e-07 5.07357e-06)
(1.40852e-06 -6.52207e-07 5.06681e-06)
(1.41068e-06 -6.53594e-07 5.06112e-06)
(1.41288e-06 -6.54989e-07 5.05656e-06)
(1.41509e-06 -6.56395e-07 5.05195e-06)
(1.41734e-06 -6.57804e-07 5.04752e-06)
(1.62406e-06 -7.54917e-07 2.54718e-06)
(1.60908e-06 -7.46757e-07 2.775e-06)
(1.59476e-06 -7.38965e-07 2.99689e-06)
(1.58109e-06 -7.31577e-07 3.2077e-06)
(1.56803e-06 -7.24551e-07 3.40946e-06)
(1.55556e-06 -7.17881e-07 3.60196e-06)
(1.54364e-06 -7.11545e-07 3.80183e-06)
(1.53226e-06 -7.05531e-07 3.97701e-06)
(1.5214e-06 -6.99822e-07 4.02583e-06)
(1.51102e-06 -6.94406e-07 4.07301e-06)
(1.50112e-06 -6.89269e-07 4.11866e-06)
(1.49166e-06 -6.84399e-07 4.16283e-06)
(1.48264e-06 -6.79785e-07 4.20561e-06)
(1.47403e-06 -6.75415e-07 4.24897e-06)
(1.46582e-06 -6.71278e-07 4.29166e-06)
(1.45799e-06 -6.67365e-07 4.33302e-06)
(1.45052e-06 -6.63666e-07 4.37312e-06)
(1.44341e-06 -6.60172e-07 4.41201e-06)
(1.43664e-06 -6.56874e-07 4.44975e-06)
(1.43019e-06 -6.53765e-07 4.48634e-06)
(1.42405e-06 -6.50837e-07 4.52188e-06)
(1.41822e-06 -6.48081e-07 4.56297e-06)
(1.41267e-06 -6.45492e-07 4.60382e-06)
(1.4074e-06 -6.43062e-07 4.64333e-06)
(1.4024e-06 -6.40785e-07 4.68156e-06)
(1.39765e-06 -6.38655e-07 4.71855e-06)
(1.39316e-06 -6.36665e-07 4.75436e-06)
(1.3889e-06 -6.34812e-07 4.78904e-06)
(1.38488e-06 -6.33088e-07 4.82262e-06)
(1.38108e-06 -6.31489e-07 4.85516e-06)
(1.37749e-06 -6.30011e-07 4.88669e-06)
(1.37411e-06 -6.28648e-07 4.91726e-06)
(1.37093e-06 -6.27396e-07 4.94689e-06)
(1.36794e-06 -6.26251e-07 4.97564e-06)
(1.36514e-06 -6.25209e-07 5.00349e-06)
(1.36252e-06 -6.24266e-07 5.03052e-06)
(1.36007e-06 -6.23418e-07 5.05672e-06)
(1.35779e-06 -6.22662e-07 5.08216e-06)
(1.35567e-06 -6.21994e-07 5.10682e-06)
(1.35371e-06 -6.21411e-07 5.13077e-06)
(1.3519e-06 -6.2091e-07 5.15401e-06)
(1.35024e-06 -6.20488e-07 5.17659e-06)
(1.34872e-06 -6.20141e-07 5.19852e-06)
(1.34734e-06 -6.19868e-07 5.21985e-06)
(1.34609e-06 -6.19665e-07 5.24056e-06)
(1.34496e-06 -6.19531e-07 5.26073e-06)
(1.34397e-06 -6.19461e-07 5.28035e-06)
(1.34309e-06 -6.19455e-07 5.29948e-06)
(1.34233e-06 -6.1951e-07 5.30664e-06)
(1.34168e-06 -6.19623e-07 5.30398e-06)
(1.34114e-06 -6.19793e-07 5.30114e-06)
(1.34071e-06 -6.20017e-07 5.29812e-06)
(1.34038e-06 -6.20294e-07 5.29494e-06)