/*--------------------------------*- C++ -*----------------------------------*\
| =========                 |                                                 |
| \\      /  F ield         | foam-extend: Open Source CFD                    |
|  \\    /   O peration     | Version:     4.1                                |
|   \\  /    A nd           | Web:         http://www.foam-extend.org         |
|    \\/     M anipulation  |                                                 |
\*---------------------------------------------------------------------------*/
FoamFile
{
    version     2.0;
    format      ascii;
    class       volScalarField;
    location    "3";
    object      epsilonEq;
}
// * * * * * * * * * * * * * * * * * * * * * * * * * * * * * * * * * * * * * //

dimensions      [0 0 0 0 0 0 0];

internalField   nonuniform List<scalar> 
100000
(
4.5231e-06
8.60906e-06
8.34058e-06
8.02967e-06
7.74894e-06
7.47828e-06
7.47236e-06
7.50224e-06
7.27396e-06
6.77533e-06
6.08868e-06
5.67184e-06
5.50921e-06
5.35551e-06
5.21019e-06
5.06816e-06
4.93356e-06
4.80682e-06
4.7164e-06
5.18742e-06
5.61897e-06
5.46867e-06
5.32865e-06
5.19457e-06
5.06518e-06
4.94173e-06
4.82493e-06
4.71433e-06
4.60943e-06
4.50982e-06
4.41379e-06
4.3146e-06
4.21758e-06
4.12472e-06
4.03459e-06
3.94858e-06
3.26266e-06
2.7243e-06
2.64517e-06
2.6366e-06
2.62826e-06
2.62015e-06
2.61227e-06
2.60455e-06
2.59699e-06
2.58954e-06
2.58226e-06
2.57509e-06
2.5681e-06
2.56123e-06
2.55454e-06
2.5479e-06
2.54142e-06
2.53498e-06
2.52864e-06
2.52241e-06
2.51629e-06
2.51031e-06
2.50435e-06
2.49851e-06
2.49274e-06
2.48707e-06
2.4815e-06
2.47601e-06
2.47063e-06
2.46536e-06
2.45893e-06
2.45168e-06
2.44576e-06
2.44079e-06
2.43592e-06
2.43109e-06
2.42636e-06
2.42176e-06
2.41723e-06
2.41279e-06
2.40842e-06
2.40413e-06
2.39992e-06
2.3958e-06
2.39176e-06
2.38781e-06
2.38395e-06
2.38018e-06
2.3765e-06
2.3729e-06
2.34144e-06
2.28205e-06
2.19617e-06
2.12716e-06
2.0869e-06
2.07657e-06
2.07329e-06
2.06911e-06
2.06372e-06
2.05673e-06
2.04567e-06
2.03017e-06
2.01075e-06
1.98121e-06
4.53601e-06
8.60513e-06
8.33655e-06
8.02672e-06
7.74507e-06
7.47452e-06
7.26998e-06
7.28473e-06
7.16041e-06
6.41832e-06
5.82955e-06
5.65673e-06
5.49059e-06
5.33047e-06
5.18173e-06
5.03769e-06
4.89963e-06
4.76951e-06
4.64483e-06
4.63936e-06
5.07977e-06
5.36918e-06
5.21878e-06
5.07756e-06
4.94173e-06
4.81069e-06
4.68552e-06
4.56712e-06
4.45385e-06
4.34613e-06
4.25491e-06
4.17137e-06
4.00317e-06
3.9841e-06
3.89472e-06
3.80978e-06
2.99224e-06
2.4027e-06
2.34467e-06
2.33969e-06
2.3349e-06
2.33034e-06
2.32596e-06
2.32172e-06
2.31768e-06
2.31378e-06
2.30998e-06
2.30623e-06
2.30263e-06
2.29908e-06
2.29567e-06
2.2923e-06
2.28904e-06
2.28579e-06
2.28256e-06
2.27944e-06
2.27636e-06
2.27333e-06
2.27027e-06
2.26728e-06
2.26435e-06
2.26147e-06
2.25861e-06
2.25581e-06
2.25307e-06
2.25035e-06
2.24763e-06
2.24669e-06
2.24692e-06
2.24699e-06
2.2469e-06
2.24669e-06
2.24639e-06
2.24599e-06
2.24545e-06
2.24481e-06
2.24404e-06
2.24317e-06
2.2422e-06
2.24115e-06
2.24002e-06
2.23882e-06
2.23754e-06
2.23616e-06
2.20466e-06
2.14198e-06
2.06887e-06
2.02442e-06
2.0037e-06
1.99983e-06
1.99559e-06
1.99093e-06
1.98582e-06
1.98014e-06
1.97395e-06
1.96698e-06
1.95916e-06
1.95337e-06
1.94333e-06
1.94274e-06
4.56624e-06
8.60978e-06
8.34737e-06
8.04349e-06
7.76723e-06
7.50405e-06
7.25282e-06
7.11692e-06
6.61718e-06
6.03559e-06
5.79957e-06
5.63589e-06
5.473e-06
5.31415e-06
5.16626e-06
5.0239e-06
4.88809e-06
4.75995e-06
4.63753e-06
4.5195e-06
4.56745e-06
4.93702e-06
5.13029e-06
4.9883e-06
4.85277e-06
4.722e-06
4.59587e-06
4.47723e-06
4.36438e-06
4.25646e-06
4.15355e-06
4.05831e-06
3.96587e-06
3.87586e-06
3.79111e-06
3.71031e-06
2.78541e-06
2.19123e-06
2.16588e-06
2.17179e-06
2.17756e-06
2.18312e-06
2.18845e-06
2.19358e-06
2.19855e-06
2.20326e-06
2.20776e-06
2.212e-06
2.21606e-06
2.21982e-06
2.22339e-06
2.22671e-06
2.22976e-06
2.23257e-06
2.23515e-06
2.23759e-06
2.23978e-06
2.24174e-06
2.24347e-06
2.24505e-06
2.24644e-06
2.24764e-06
2.24867e-06
2.24956e-06
2.2503e-06
2.25086e-06
2.25124e-06
2.25147e-06
2.25152e-06
2.25142e-06
2.25117e-06
2.25078e-06
2.25032e-06
2.24972e-06
2.24899e-06
2.24815e-06
2.24716e-06
2.24605e-06
2.24483e-06
2.24352e-06
2.24209e-06
2.24052e-06
2.20412e-06
2.13336e-06
2.06264e-06
2.02591e-06
2.01307e-06
2.00964e-06
2.00597e-06
2.00201e-06
1.99775e-06
1.99317e-06
1.98828e-06
1.98299e-06
1.97747e-06
1.97144e-06
1.9651e-06
1.96033e-06
1.95086e-06
1.95275e-06
4.72899e-06
8.73863e-06
8.47778e-06
8.18001e-06
7.90952e-06
7.65106e-06
7.40289e-06
6.79105e-06
6.0999e-06
5.90472e-06
5.79604e-06
5.62339e-06
5.46286e-06
5.30517e-06
5.15745e-06
5.01757e-06
4.88237e-06
4.75603e-06
4.63551e-06
4.51769e-06
4.40859e-06
4.46679e-06
4.7947e-06
4.95398e-06
4.82263e-06
4.69797e-06
4.57758e-06
4.46382e-06
4.35605e-06
4.25308e-06
4.15453e-06
4.06054e-06
3.97044e-06
3.88266e-06
3.79857e-06
3.71832e-06
2.71936e-06
2.18092e-06
2.17283e-06
2.17874e-06
2.1845e-06
2.19002e-06
2.19534e-06
2.20043e-06
2.20531e-06
2.20991e-06
2.21433e-06
2.21849e-06
2.22246e-06
2.22617e-06
2.22965e-06
2.23287e-06
2.23578e-06
2.23851e-06
2.24101e-06
2.24332e-06
2.24539e-06
2.24724e-06
2.24888e-06
2.25033e-06
2.25158e-06
2.25265e-06
2.25359e-06
2.25435e-06
2.25495e-06
2.25538e-06
2.25562e-06
2.25571e-06
2.2556e-06
2.25531e-06
2.2549e-06
2.25434e-06
2.25369e-06
2.25289e-06
2.25196e-06
2.25089e-06
2.24967e-06
2.2483e-06
2.2468e-06
2.24522e-06
2.20668e-06
2.13184e-06
2.06271e-06
2.0296e-06
2.02206e-06
2.01916e-06
2.01591e-06
2.01242e-06
2.00873e-06
2.00481e-06
2.00067e-06
1.9963e-06
1.99172e-06
1.9869e-06
1.98203e-06
1.97687e-06
1.97175e-06
1.96818e-06
1.9754e-06
2.03919e-06
1.49677e-05
8.83045e-06
8.53507e-06
8.22903e-06
7.95123e-06
7.68731e-06
7.1413e-06
6.30002e-06
5.82396e-06
5.75914e-06
5.74462e-06
5.61759e-06
5.45741e-06
5.30259e-06
5.15486e-06
5.01595e-06
4.88218e-06
4.75473e-06
4.63624e-06
4.51981e-06
4.40905e-06
4.30638e-06
4.34378e-06
4.64868e-06
4.81808e-06
4.69413e-06
4.57493e-06
4.46209e-06
4.35538e-06
4.25349e-06
4.15597e-06
4.06274e-06
3.97383e-06
3.88768e-06
3.80449e-06
3.72488e-06
2.66433e-06
2.17776e-06
2.17937e-06
2.18525e-06
2.19096e-06
2.19645e-06
2.20176e-06
2.2068e-06
2.21161e-06
2.21614e-06
2.22049e-06
2.22457e-06
2.22844e-06
2.23208e-06
2.23543e-06
2.23854e-06
2.24135e-06
2.24397e-06
2.24638e-06
2.24857e-06
2.25053e-06
2.25227e-06
2.25379e-06
2.25511e-06
2.25625e-06
2.25721e-06
2.25801e-06
2.25863e-06
2.25908e-06
2.25939e-06
2.25947e-06
2.25937e-06
2.25909e-06
2.25866e-06
2.25809e-06
2.25736e-06
2.2565e-06
2.2555e-06
2.25437e-06
2.25307e-06
2.25161e-06
2.24995e-06
2.21172e-06
2.13589e-06
2.06757e-06
2.03517e-06
2.03069e-06
2.02785e-06
2.02498e-06
2.02212e-06
2.01888e-06
2.01537e-06
2.01181e-06
2.00804e-06
2.00413e-06
2.00006e-06
1.99588e-06
1.99157e-06
1.9873e-06
2.01161e-06
2.06724e-06
2.16007e-06
2.32236e-06
2.56086e-06
3.85116e-05
3.18492e-05
1.65661e-05
8.20014e-06
7.95441e-06
7.52213e-06
6.62856e-06
6.00546e-06
5.82078e-06
5.64545e-06
5.59515e-06
5.58039e-06
5.45122e-06
5.29808e-06
5.1514e-06
5.01282e-06
4.88049e-06
4.75353e-06
4.63486e-06
4.51969e-06
4.4094e-06
4.30704e-06
4.20845e-06
4.19526e-06
4.47298e-06
4.68739e-06
4.57035e-06
4.45906e-06
4.35396e-06
4.25331e-06
4.15662e-06
4.06391e-06
3.97588e-06
3.89139e-06
3.80966e-06
3.7309e-06
2.63275e-06
2.17976e-06
2.18543e-06
2.19126e-06
2.19693e-06
2.20239e-06
2.20767e-06
2.21266e-06
2.21744e-06
2.22193e-06
2.2262e-06
2.23022e-06
2.23398e-06
2.23753e-06
2.24075e-06
2.24374e-06
2.24646e-06
2.24897e-06
2.25128e-06
2.25336e-06
2.2552e-06
2.2568e-06
2.2582e-06
2.25939e-06
2.26042e-06
2.26127e-06
2.26191e-06
2.26242e-06
2.26275e-06
2.26289e-06
2.26281e-06
2.26253e-06
2.26208e-06
2.2615e-06
2.26074e-06
2.25982e-06
2.25877e-06
2.25758e-06
2.25628e-06
2.25476e-06
2.21928e-06
2.14436e-06
2.0762e-06
2.04222e-06
2.03883e-06
2.03641e-06
2.03368e-06
2.03069e-06
2.02806e-06
2.02531e-06
2.02189e-06
2.01848e-06
2.01499e-06
2.01144e-06
2.00775e-06
2.00397e-06
2.04243e-06
2.1045e-06
2.22199e-06
2.39966e-06
2.53132e-06
2.6182e-06
2.67231e-06
2.70966e-06
4.35093e-05
4.99243e-05
4.3079e-05
3.07288e-05
1.75772e-05
7.6879e-06
6.19855e-06
6.00271e-06
5.81765e-06
5.64175e-06
5.47791e-06
5.42832e-06
5.41674e-06
5.29213e-06
5.14626e-06
5.00913e-06
4.87727e-06
4.75025e-06
4.63241e-06
4.51908e-06
4.40915e-06
4.30609e-06
4.2075e-06
4.11432e-06
4.02601e-06
4.27192e-06
4.53567e-06
4.45438e-06
4.34999e-06
4.25131e-06
4.15654e-06
4.06489e-06
3.97732e-06
3.8937e-06
3.81321e-06
3.70224e-06
2.62168e-06
2.18512e-06
2.19117e-06
2.19698e-06
2.20261e-06
2.20799e-06
2.21319e-06
2.21811e-06
2.2228e-06
2.22724e-06
2.23142e-06
2.23538e-06
2.23905e-06
2.24249e-06
2.2456e-06
2.24846e-06
2.2511e-06
2.2535e-06
2.25571e-06
2.25766e-06
2.25938e-06
2.26086e-06
2.26215e-06
2.26322e-06
2.2641e-06
2.26482e-06
2.26534e-06
2.2657e-06
2.26589e-06
2.26586e-06
2.26561e-06
2.26519e-06
2.26458e-06
2.26383e-06
2.26289e-06
2.26178e-06
2.26054e-06
2.25915e-06
2.22909e-06
2.15708e-06
2.088e-06
2.05022e-06
2.04636e-06
2.04312e-06
2.0418e-06
2.03919e-06
2.03677e-06
2.03374e-06
2.03145e-06
2.02704e-06
2.02518e-06
2.02165e-06
2.0184e-06
2.0735e-06
2.14149e-06
2.28034e-06
2.46697e-06
2.58232e-06
2.67787e-06
2.71167e-06
2.69879e-06
2.68471e-06
2.67342e-06
2.69234e-06
4.22842e-05
4.91568e-05
4.94138e-05
4.93531e-05
4.3153e-05
3.13348e-05
1.67615e-05
6.84627e-06
5.81399e-06
5.63692e-06
5.47351e-06
5.31527e-06
5.26207e-06
5.25228e-06
5.14018e-06
5.00344e-06
4.87326e-06
4.74718e-06
4.62868e-06
4.51576e-06
4.4071e-06
4.30508e-06
4.20702e-06
4.11361e-06
4.02466e-06
3.94041e-06
4.04711e-06
4.28091e-06
4.34571e-06
4.24733e-06
4.15405e-06
4.06433e-06
3.97808e-06
3.89554e-06
3.81609e-06
3.6533e-06
2.59983e-06
2.19048e-06
2.19652e-06
2.2023e-06
2.20789e-06
2.21322e-06
2.21832e-06
2.22318e-06
2.22775e-06
2.23212e-06
2.2362e-06
2.24008e-06
2.24364e-06
2.24695e-06
2.24997e-06
2.25272e-06
2.25526e-06
2.25755e-06
2.25966e-06
2.26149e-06
2.26307e-06
2.26442e-06
2.26558e-06
2.26656e-06
2.26731e-06
2.2679e-06
2.2683e-06
2.26849e-06
2.26851e-06
2.26832e-06
2.2679e-06
2.26731e-06
2.26655e-06
2.26564e-06
2.26453e-06
2.26325e-06
2.24136e-06
2.17384e-06
2.10324e-06
2.05981e-06
2.05301e-06
2.05106e-06
2.0489e-06
2.04676e-06
2.04442e-06
2.04181e-06
2.03932e-06
2.03678e-06
2.0337e-06
2.04428e-06
2.10581e-06
2.17964e-06
2.34067e-06
2.5341e-06
2.62953e-06
2.73092e-06
2.74516e-06
2.73343e-06
2.64907e-06
2.44318e-06
2.28311e-06
2.17066e-06
2.09018e-06
2.16598e-06
3.94042e-05
4.59591e-05
4.61079e-05
4.5853e-05
4.59246e-05
4.68992e-05
4.18092e-05
3.02197e-05
1.75594e-05
8.39984e-06
5.46785e-06
5.31128e-06
5.16089e-06
5.09629e-06
5.08547e-06
4.99708e-06
4.86769e-06
4.74203e-06
4.62449e-06
4.51267e-06
4.40438e-06
4.30241e-06
4.20491e-06
4.11181e-06
4.023e-06
3.93923e-06
3.85912e-06
3.80348e-06
4.00707e-06
4.20351e-06
4.15126e-06
4.06268e-06
3.9775e-06
3.8958e-06
3.81718e-06
3.6135e-06
2.57147e-06
2.19534e-06
2.20136e-06
2.20713e-06
2.2127e-06
2.218e-06
2.22302e-06
2.22781e-06
2.2323e-06
2.23657e-06
2.24056e-06
2.24432e-06
2.24778e-06
2.25095e-06
2.25388e-06
2.25652e-06
2.25896e-06
2.26113e-06
2.26315e-06
2.26481e-06
2.26625e-06
2.26753e-06
2.26857e-06
2.26939e-06
2.27004e-06
2.27047e-06
2.27073e-06
2.2708e-06
2.27064e-06
2.27028e-06
2.2697e-06
2.26896e-06
2.26806e-06
2.26699e-06
2.25668e-06
2.19497e-06
2.12202e-06
2.07109e-06
2.05814e-06
2.01162e-06
1.97858e-06
1.95956e-06
1.95496e-06
1.9646e-06
1.98794e-06
2.02448e-06
2.11304e-06
2.22171e-06
2.32835e-06
2.50648e-06
2.68752e-06
2.8e-06
2.91891e-06
3.17679e-06
3.45212e-06
3.74019e-06
4.03728e-06
4.29893e-06
4.53391e-06
4.83963e-06
5.15497e-06
5.47543e-06
5.78559e-06
6.23083e-06
3.53977e-05
4.01772e-05
3.99561e-05
3.93041e-05
3.93819e-05
4.03035e-05
4.15827e-05
4.2655e-05
3.84119e-05
3.07853e-05
2.04094e-05
1.14798e-05
6.34846e-06
5.12734e-06
4.941e-06
4.91911e-06
4.86104e-06
4.73699e-06
4.61928e-06
4.50747e-06
4.3998e-06
4.29849e-06
4.20227e-06
4.11027e-06
4.02187e-06
3.93799e-06
3.85801e-06
3.78129e-06
3.70831e-06
3.71968e-06
3.90056e-06
4.01963e-06
3.97662e-06
3.89607e-06
3.81809e-06
3.58244e-06
2.54935e-06
2.19984e-06
2.2058e-06
2.21154e-06
2.21702e-06
2.22229e-06
2.22723e-06
2.23196e-06
2.23637e-06
2.24055e-06
2.24445e-06
2.2481e-06
2.25145e-06
2.2545e-06
2.25731e-06
2.25982e-06
2.21145e-06
2.15572e-06
2.10732e-06
2.06714e-06
2.0361e-06
2.01524e-06
2.00499e-06
2.00608e-06
2.01848e-06
2.04239e-06
2.07754e-06
2.12346e-06
2.17964e-06
2.2454e-06
2.31985e-06
2.40224e-06
2.49998e-06
2.75748e-06
3.04233e-06
3.3652e-06
3.68168e-06
3.96277e-06
4.23522e-06
4.52573e-06
4.82465e-06
5.12702e-06
5.43202e-06
5.7391e-06
6.04753e-06
6.35875e-06
6.55227e-06
6.69896e-06
6.84924e-06
7.04587e-06
7.37904e-06
7.71163e-06
8.04332e-06
8.37376e-06
8.70264e-06
9.02969e-06
9.35458e-06
9.67717e-06
9.87906e-06
9.84359e-06
9.80838e-06
9.77302e-06
9.73786e-06
9.68655e-06
3.04979e-05
3.71135e-05
3.63831e-05
3.60568e-05
3.58005e-05
3.55445e-05
3.54973e-05
3.61511e-05
3.67795e-05
3.73745e-05
3.66332e-05
3.04467e-05
2.42866e-05
1.5798e-05
8.66526e-06
5.18745e-06
5.34285e-06
7.49957e-06
7.11812e-06
6.79796e-06
6.51184e-06
6.25712e-06
6.03163e-06
5.83327e-06
5.65974e-06
5.50915e-06
5.37971e-06
5.26996e-06
5.17886e-06
5.10533e-06
4.99715e-06
4.82189e-06
4.78234e-06
4.7325e-06
4.58772e-06
4.31102e-06
3.22485e-06
2.93458e-06
2.91332e-06
2.90923e-06
2.92102e-06
2.94768e-06
2.98854e-06
3.04298e-06
3.11078e-06
3.19118e-06
3.28429e-06
3.38926e-06
3.50599e-06
3.63439e-06
3.77324e-06
3.91244e-06
4.06424e-06
4.23262e-06
4.41147e-06
4.59907e-06
5.57361e-06
4.99966e-06
5.21098e-06
5.42945e-06
5.65428e-06
5.88501e-06
6.12126e-06
6.36268e-06
6.60844e-06
6.85825e-06
7.11187e-06
7.43263e-06
7.82157e-06
8.22574e-06
8.59738e-06
8.88871e-06
9.18154e-06
9.47567e-06
9.76709e-06
9.90071e-06
1.00351e-05
1.01701e-05
1.03056e-05
1.04414e-05
1.05774e-05
1.05548e-05
1.04161e-05
1.0304e-05
1.02637e-05
1.02239e-05
1.01846e-05
1.0146e-05
9.7128e-06
8.54748e-06
7.39698e-06
6.26551e-06
5.16118e-06
4.09946e-06
3.11662e-06
2.29712e-06
1.86338e-06
2.05495e-06
2.72325e-06
3.78422e-06
2.13152e-05
3.26025e-05
3.52349e-05
3.55811e-05
3.53648e-05
3.51456e-05
3.49593e-05
3.47889e-05
3.46277e-05
3.44768e-05
3.43328e-05
3.41953e-05
3.40658e-05
3.29069e-05
2.72967e-05
2.25741e-05
1.78612e-05
1.13732e-05
6.01431e-06
4.10981e-06
5.63278e-06
8.8436e-06
1.19725e-05
1.17715e-05
1.15981e-05
1.14503e-05
1.13262e-05
1.12242e-05
1.11433e-05
1.10822e-05
1.10396e-05
1.10141e-05
1.09575e-05
1.07706e-05
1.06131e-05
1.0351e-05
9.31175e-06
9.19525e-06
9.14016e-06
9.10652e-06
9.09307e-06
9.09836e-06
9.12155e-06
9.16117e-06
9.21689e-06
9.28698e-06
9.37111e-06
9.46827e-06
9.57717e-06
9.6981e-06
9.82932e-06
9.97078e-06
1.00151e-05
1.00391e-05
1.00694e-05
1.01069e-05
1.01483e-05
1.01954e-05
1.02491e-05
1.03066e-05
1.03687e-05
1.04352e-05
1.05055e-05
1.05796e-05
1.06571e-05
1.0747e-05
1.09671e-05
1.11918e-05
1.14007e-05
1.13128e-05
1.11739e-05
1.10368e-05
1.09014e-05
1.07677e-05
9.87936e-06
8.8589e-06
7.84322e-06
6.83589e-06
5.84219e-06
4.8691e-06
3.8822e-06
2.97489e-06
2.32225e-06
1.94241e-06
1.94781e-06
2.33425e-06
2.95426e-06
3.7127e-06
4.97186e-06
6.24171e-06
6.979e-06
7.74478e-06
8.52993e-06
9.2108e-06
9.67352e-06
1.01367e-05
1.06054e-05
1.1073e-05
1.15408e-05
1.30094e-05
1.44261e-05
2.3326e-05
2.68745e-05
3.06566e-05
3.3011e-05
3.47474e-05
3.45886e-05
3.44522e-05
3.43207e-05
3.41987e-05
3.40812e-05
3.39694e-05
3.38584e-05
3.376e-05
3.36554e-05
3.35491e-05
3.34481e-05
3.23088e-05
2.80312e-05
2.43375e-05
2.09861e-05
1.73724e-05
1.18353e-05
6.8949e-06
4.52365e-06
4.04022e-06
5.54857e-06
7.75122e-06
1.00488e-05
1.22752e-05
1.41081e-05
1.40568e-05
1.39802e-05
1.38226e-05
1.36651e-05
1.33252e-05
1.21664e-05
1.20104e-05
1.18629e-05
1.17157e-05
1.15694e-05
1.14237e-05
1.1279e-05
1.1135e-05
1.0992e-05
1.08502e-05
1.07091e-05
1.05698e-05
1.04315e-05
1.02942e-05
1.0159e-05
1.00244e-05
9.89138e-06
9.75986e-06
9.6292e-06
9.50027e-06
9.37283e-06
9.24599e-06
9.12131e-06
8.99796e-06
8.87597e-06
8.75558e-06
8.63676e-06
8.51935e-06
8.47579e-06
8.48764e-06
7.90358e-06
7.04251e-06
6.11225e-06
5.18772e-06
4.29046e-06
3.44153e-06
2.6855e-06
2.19694e-06
2.72215e-06
2.99563e-06
3.24228e-06
3.57882e-06
3.98526e-06
4.48191e-06
5.01588e-06
5.43003e-06
5.84766e-06
6.27649e-06
6.71447e-06
7.15988e-06
7.61141e-06
8.06799e-06
8.15787e-06
7.56429e-06
6.98827e-06
6.43229e-06
5.81188e-06
5.04813e-06
4.3878e-06
3.89466e-06
3.45091e-06
3.05794e-06
2.75496e-06
1.97613e-06
1.44488e-05
2.13765e-05
2.10352e-05
2.20455e-05
2.39656e-05
2.71831e-05
3.00905e-05
3.17082e-05
3.27858e-05
3.27796e-05
3.27313e-05
3.26331e-05
3.18472e-05
3.10607e-05
3.02826e-05
2.95121e-05
2.87569e-05
2.80113e-05
2.7276e-05
2.66862e-05
2.66104e-05
2.65933e-05
2.61491e-05
2.2388e-05
1.89025e-05
1.5759e-05
1.3007e-05
1.07397e-05
9.10046e-06
7.97065e-06
6.03264e-06
5.95952e-06
7.78564e-06
9.66245e-06
1.00735e-05
9.25126e-06
8.55374e-06
8.42318e-06
8.29228e-06
8.16186e-06
8.03247e-06
7.90387e-06
7.77629e-06
7.64996e-06
7.52421e-06
7.40029e-06
7.277e-06
7.1552e-06
7.03528e-06
6.91586e-06
6.79847e-06
6.68247e-06
6.56726e-06
6.45387e-06
6.36528e-06
6.28528e-06
6.20744e-06
6.01893e-06
5.67889e-06
5.32637e-06
4.96324e-06
4.59136e-06
4.21807e-06
3.89092e-06
3.56958e-06
3.25222e-06
3.20006e-06
3.0621e-06
2.86743e-06
2.78113e-06
2.78691e-06
2.87661e-06
3.04599e-06
3.28523e-06
2.89206e-06
2.444e-06
2.29853e-06
2.25225e-06
2.29298e-06
2.40089e-06
2.548e-06
2.73953e-06
2.96877e-06
3.22673e-06
3.5062e-06
3.80149e-06
4.10844e-06
4.42377e-06
4.74499e-06
5.07033e-06
5.3984e-06
5.92351e-06
6.54596e-06
7.04969e-06
7.3196e-06
7.5874e-06
7.85181e-06
8.11558e-06
8.37066e-06
8.65822e-06
9.44775e-06
1.78773e-05
1.73008e-05
1.66086e-05
1.5998e-05
1.53773e-05
1.45688e-05
1.46538e-05
1.60078e-05
1.69633e-05
1.70466e-05
1.75234e-05
1.76568e-05
1.71858e-05
1.66979e-05
1.62021e-05
1.5708e-05
1.52063e-05
1.46969e-05
1.4184e-05
1.36674e-05
1.33171e-05
1.32344e-05
1.31716e-05
1.29264e-05
1.25136e-05
1.20737e-05
1.16261e-05
1.11741e-05
1.07184e-05
1.01059e-05
8.74843e-06
7.97886e-06
6.39094e-06
5.31274e-06
4.95025e-06
5.2941e-06
5.70582e-06
5.82097e-06
5.82046e-06
5.82078e-06
5.82175e-06
5.82315e-06
5.82558e-06
5.82803e-06
5.83129e-06
5.83531e-06
5.8392e-06
5.84419e-06
5.84953e-06
5.85482e-06
5.86112e-06
5.86759e-06
5.87389e-06
5.88124e-06
5.88881e-06
5.89647e-06
5.91889e-06
5.71017e-06
5.44287e-06
5.16359e-06
4.90112e-06
4.64302e-06
4.3755e-06
4.04836e-06
3.68135e-06
3.82321e-06
4.1412e-06
4.46686e-06
4.7985e-06
5.13485e-06
5.47481e-06
5.81762e-06
6.16249e-06
6.50875e-06
6.5359e-06
6.51517e-06
6.49478e-06
6.47651e-06
6.48768e-06
6.48568e-06
6.46692e-06
6.7549e-06
7.0431e-06
7.33019e-06
7.61587e-06
7.89988e-06
8.18193e-06
8.46186e-06
8.73951e-06
8.9665e-06
9.19031e-06
9.45092e-06
9.71933e-06
9.98467e-06
1.02471e-05
1.05056e-05
1.07632e-05
1.10114e-05
1.12597e-05
2.03864e-05
2.57278e-05
2.54136e-05
2.51099e-05
2.48645e-05
2.46672e-05
2.45172e-05
2.44122e-05
2.38427e-05
2.23628e-05
2.1291e-05
2.07112e-05
1.94061e-05
1.78526e-05
1.64661e-05
1.55749e-05
1.49004e-05
1.42751e-05
1.36946e-05
1.31557e-05
1.26559e-05
1.21918e-05
1.17606e-05
1.12658e-05
1.097e-05
1.07374e-05
1.03519e-05
1.00236e-05
9.7371e-06
9.47218e-06
9.22704e-06
9.0019e-06
8.79689e-06
8.61157e-06
7.98548e-06
6.41834e-06
6.42504e-06
6.63353e-06
6.61468e-06
6.61276e-06
6.60993e-06
6.60813e-06
6.60641e-06
6.60556e-06
6.60535e-06
6.6051e-06
6.60604e-06
6.60722e-06
6.60857e-06
6.61103e-06
6.61356e-06
6.61622e-06
6.61975e-06
6.62335e-06
6.6035e-06
6.57656e-06
6.54957e-06
6.63835e-06
6.79475e-06
6.77005e-06
6.79166e-06
6.81414e-06
6.83518e-06
6.8077e-06
6.78091e-06
6.75476e-06
6.7292e-06
6.70419e-06
6.67974e-06
6.65581e-06
6.63237e-06
6.60939e-06
6.73319e-06
7.02785e-06
7.32195e-06
7.61534e-06
7.90781e-06
8.19915e-06
8.4892e-06
8.7878e-06
9.10814e-06
9.34364e-06
9.59583e-06
9.87777e-06
1.01578e-05
1.04358e-05
1.07116e-05
1.09851e-05
1.12561e-05
1.15244e-05
1.17899e-05
1.18411e-05
1.17919e-05
1.17431e-05
1.16946e-05
1.16466e-05
1.15988e-05
1.15517e-05
1.15042e-05
1.14434e-05
2.19688e-05
2.69617e-05
2.65759e-05
2.61456e-05
2.57498e-05
2.53706e-05
2.50084e-05
2.4662e-05
2.43321e-05
2.40168e-05
2.37128e-05
2.29641e-05
2.17251e-05
2.05661e-05
1.98316e-05
1.93329e-05
1.85173e-05
1.75938e-05
1.6727e-05
1.5914e-05
1.53097e-05
1.49954e-05
1.46941e-05
1.44062e-05
1.41314e-05
1.37213e-05
1.34112e-05
1.31548e-05
1.28021e-05
1.24767e-05
1.22457e-05
1.20257e-05
1.18153e-05
1.16143e-05
1.0181e-05
7.94102e-06
7.63415e-06
7.15959e-06
7.01748e-06
6.9944e-06
6.97028e-06
6.94613e-06
6.92151e-06
6.89594e-06
6.87076e-06
6.84486e-06
6.81847e-06
6.79258e-06
6.76613e-06
6.73946e-06
6.71316e-06
6.68626e-06
6.65918e-06
6.63242e-06
6.60543e-06
6.57825e-06
6.55131e-06
6.52348e-06
6.78484e-06
6.82851e-06
6.8518e-06
6.85053e-06
6.89578e-06
7.19004e-06
7.48423e-06
7.77818e-06
8.07184e-06
8.36494e-06
8.65739e-06
8.94901e-06
9.23963e-06
9.50987e-06
9.77131e-06
1.00515e-05
1.0336e-05
1.06193e-05
1.09012e-05
1.11816e-05
1.14603e-05
1.17373e-05
1.20299e-05
1.23273e-05
1.2276e-05
1.22239e-05
1.21721e-05
1.21206e-05
1.20695e-05
1.20187e-05
1.19683e-05
1.19182e-05
1.18684e-05
1.1819e-05
1.177e-05
1.17213e-05
1.16729e-05
1.16251e-05
1.15775e-05
1.15307e-05
1.14836e-05
1.14234e-05
2.20819e-05
2.71227e-05
2.67245e-05
2.62847e-05
2.58766e-05
2.5489e-05
2.51166e-05
2.4761e-05
2.44232e-05
2.41004e-05
2.3789e-05
2.34926e-05
2.32053e-05
2.29328e-05
2.26697e-05
2.18697e-05
2.08904e-05
1.99692e-05
1.91026e-05
1.84092e-05
1.79718e-05
1.74493e-05
1.67444e-05
1.60811e-05
1.54575e-05
1.48716e-05
1.432e-05
1.36836e-05
1.30914e-05
1.2659e-05
1.23772e-05
1.20264e-05
1.17868e-05
1.1584e-05
9.8909e-06
7.81863e-06
7.32108e-06
7.03932e-06
7.01645e-06
6.99344e-06
6.96977e-06
6.94521e-06
6.92095e-06
6.89569e-06
6.86998e-06
6.83908e-06
6.78592e-06
6.7312e-06
6.67552e-06
6.61793e-06
6.55905e-06
6.49925e-06
6.43807e-06
6.37579e-06
6.31286e-06
6.24892e-06
6.18411e-06
6.17403e-06
6.30592e-06
6.63744e-06
6.91554e-06
7.19521e-06
7.47726e-06
7.79032e-06
8.11333e-06
8.44817e-06
8.79424e-06
9.15075e-06
9.51702e-06
9.89229e-06
1.0276e-05
1.06675e-05
1.09139e-05
1.09903e-05
1.10744e-05
1.11659e-05
1.12645e-05
1.13696e-05
1.14809e-05
1.15982e-05
1.17211e-05
1.18751e-05
1.19801e-05
1.20078e-05
1.20419e-05
1.20822e-05
1.20461e-05
1.19954e-05
1.19449e-05
1.18949e-05
1.18452e-05
1.17959e-05
1.1747e-05
1.16986e-05
1.16505e-05
1.16029e-05
1.15555e-05
1.15089e-05
1.1462e-05
1.14023e-05
2.2191e-05
2.72793e-05
2.6868e-05
2.6418e-05
2.59998e-05
2.56016e-05
2.52208e-05
2.48583e-05
2.45102e-05
2.41795e-05
2.38616e-05
2.35596e-05
2.32647e-05
2.29842e-05
2.27144e-05
2.24551e-05
2.22056e-05
2.19647e-05
2.17316e-05
2.15061e-05
2.10838e-05
2.03504e-05
1.96597e-05
1.90099e-05
1.83988e-05
1.78249e-05
1.72845e-05
1.67775e-05
1.63279e-05
1.59606e-05
1.54918e-05
1.49979e-05
1.45607e-05
1.27651e-05
8.9375e-06
6.84946e-06
6.38124e-06
6.35405e-06
6.32315e-06
6.28915e-06
6.25313e-06
6.21393e-06
6.17247e-06
6.12934e-06
6.0834e-06
6.03582e-06
5.98706e-06
5.93607e-06
5.88379e-06
5.83041e-06
5.7754e-06
5.71921e-06
5.66224e-06
5.60409e-06
5.54496e-06
5.48515e-06
5.50592e-06
5.54022e-06
5.53679e-06
5.78985e-06
6.06115e-06
6.34723e-06
6.57384e-06
6.56481e-06
6.56833e-06
6.58376e-06
6.61053e-06
6.64811e-06
6.69591e-06
6.75335e-06
6.82003e-06
6.89553e-06
6.97933e-06
7.07102e-06
7.17019e-06
7.27649e-06
7.38954e-06
7.50898e-06
7.63451e-06
7.76592e-06
7.90285e-06
8.04721e-06
8.21825e-06
8.31725e-06
8.36708e-06
8.4253e-06
8.4924e-06
8.56154e-06
8.63504e-06
8.71373e-06
8.79753e-06
8.88627e-06
8.97977e-06
9.07798e-06
9.18056e-06
9.28813e-06
9.39921e-06
9.51487e-06
9.63848e-06
9.77269e-06
2.22976e-05
2.74308e-05
2.70069e-05
2.65453e-05
2.61185e-05
2.57088e-05
2.53208e-05
2.49492e-05
2.4594e-05
2.42552e-05
2.39284e-05
2.36194e-05
2.33201e-05
2.30342e-05
2.27584e-05
2.24927e-05
2.22361e-05
2.19891e-05
2.17512e-05
2.15216e-05
2.12994e-05
2.10838e-05
2.08751e-05
2.06732e-05
2.04779e-05
2.02888e-05
2.01048e-05
1.99251e-05
1.97515e-05
1.95311e-05
1.77428e-05
1.54975e-05
1.24967e-05
9.46678e-06
6.13923e-06
5.5445e-06
5.47596e-06
5.51493e-06
5.50684e-06
5.47609e-06
5.44302e-06
5.40791e-06
5.36977e-06
5.32999e-06
5.28844e-06
5.24985e-06
5.23076e-06
5.21174e-06
5.19219e-06
5.17265e-06
5.15329e-06
5.13353e-06
5.11363e-06
5.09383e-06
5.08304e-06
5.15996e-06
5.23782e-06
5.25645e-06
5.23497e-06
5.21349e-06
5.19206e-06
5.17063e-06
5.14924e-06
5.1279e-06
5.10664e-06
5.08546e-06
5.06435e-06
5.04336e-06
5.02246e-06
5.00166e-06
4.98098e-06
4.96039e-06
4.93995e-06
4.91963e-06
4.89947e-06
4.87945e-06
4.85952e-06
4.83967e-06
4.81989e-06
4.80025e-06
4.7808e-06
4.76153e-06
4.78912e-06
4.89526e-06
4.91091e-06
4.89354e-06
4.95337e-06
5.03269e-06
5.11729e-06
5.2071e-06
5.30202e-06
5.4018e-06
5.50625e-06
5.6153e-06
5.72865e-06
5.84692e-06
5.96897e-06
6.01528e-06
5.98323e-06
5.89251e-06
2.24027e-05
2.75773e-05
2.71416e-05
2.66685e-05
2.62325e-05
2.58134e-05
2.5415e-05
2.50348e-05
2.46732e-05
2.43262e-05
2.39921e-05
2.36765e-05
2.33703e-05
2.30779e-05
2.27962e-05
2.25252e-05
2.22636e-05
2.2012e-05
2.17696e-05
2.15355e-05
2.13093e-05
2.10898e-05
2.0877e-05
2.06708e-05
2.04725e-05
2.02796e-05
2.00938e-05
1.9345e-05
1.70492e-05
1.41763e-05
1.12108e-05
8.98569e-06
7.14289e-06
6.44851e-06
5.05626e-06
5.06374e-06
5.11501e-06
5.16217e-06
5.20727e-06
5.24999e-06
5.28952e-06
5.32058e-06
5.30261e-06
5.28386e-06
5.26532e-06
5.24653e-06
5.22719e-06
5.20794e-06
5.18873e-06
5.1691e-06
5.14949e-06
5.12997e-06
5.11024e-06
5.11978e-06
5.19972e-06
5.27961e-06
5.27193e-06
5.25038e-06
5.22888e-06
5.2074e-06
5.18592e-06
5.1645e-06
5.14311e-06
5.1218e-06
5.10055e-06
5.0794e-06
5.0583e-06
5.0373e-06
5.01637e-06
4.99556e-06
4.97482e-06
4.95416e-06
4.93361e-06
4.91321e-06
4.89301e-06
4.87297e-06
4.8531e-06
4.83334e-06
4.81373e-06
4.7942e-06
4.77478e-06
4.75546e-06
4.61823e-06
4.48616e-06
4.4103e-06
4.23646e-06
4.04822e-06
3.86415e-06
3.68448e-06
3.5095e-06
3.33952e-06
3.17492e-06
3.01612e-06
2.86353e-06
2.71764e-06
2.57884e-06
2.4552e-06
2.37011e-06
2.2995e-06
2.32659e-06
2.25055e-05
2.77182e-05
2.72711e-05
2.67879e-05
2.63422e-05
2.59139e-05
2.55061e-05
2.51173e-05
2.47479e-05
2.43946e-05
2.40528e-05
2.37288e-05
2.34165e-05
2.31191e-05
2.2832e-05
2.25555e-05
2.22887e-05
2.20318e-05
2.17843e-05
2.15456e-05
2.13154e-05
2.10918e-05
2.08756e-05
2.06647e-05
2.04634e-05
1.88602e-05
1.61059e-05
1.26599e-05
9.71591e-06
7.60244e-06
6.96872e-06
6.92414e-06
6.84422e-06
5.7076e-06
5.01315e-06
4.99943e-06
4.98552e-06
4.97118e-06
4.99754e-06
5.04055e-06
5.08082e-06
5.11759e-06
5.1533e-06
5.18695e-06
5.21838e-06
5.24152e-06
5.22256e-06
5.20317e-06
5.18381e-06
5.16442e-06
5.14477e-06
5.125e-06
5.15311e-06
5.2359e-06
5.3078e-06
5.28627e-06
5.26473e-06
5.24319e-06
5.22165e-06
5.20015e-06
5.17865e-06
5.15721e-06
5.13576e-06
5.11444e-06
5.09315e-06
5.07199e-06
5.05091e-06
4.9847e-06
4.76129e-06
4.54226e-06
4.32776e-06
4.11802e-06
3.91333e-06
3.71402e-06
3.52046e-06
3.3331e-06
3.15249e-06
2.97938e-06
2.81453e-06
2.65878e-06
2.51313e-06
2.36181e-06
2.24168e-06
2.14381e-06
2.12115e-06
2.13742e-06
2.07491e-06
2.01694e-06
1.97659e-06
1.95421e-06
1.94981e-06
1.96298e-06
1.99276e-06
2.03788e-06
2.09646e-06
2.16761e-06
2.2487e-06
2.29152e-06
2.28605e-06
2.32726e-06
2.26064e-05
2.78527e-05
2.73943e-05
2.69016e-05
2.6446e-05
2.60085e-05
2.55947e-05
2.5196e-05
2.48178e-05
2.44567e-05
2.41092e-05
2.37794e-05
2.3461e-05
2.31565e-05
2.28626e-05
2.258e-05
2.23078e-05
2.2046e-05
2.17942e-05
2.15514e-05
2.13177e-05
2.10901e-05
2.0871e-05
1.87773e-05
1.53619e-05
1.16382e-05
8.78503e-06
7.10269e-06
7.05479e-06
7.00742e-06
6.96094e-06
6.91583e-06
6.58563e-06
5.09123e-06
5.00794e-06
4.99447e-06
4.98014e-06
4.96569e-06
4.95077e-06
4.93525e-06
4.91968e-06
4.91011e-06
4.94628e-06
4.98058e-06
5.01264e-06
5.04154e-06
5.06948e-06
5.09622e-06
5.12124e-06
5.14474e-06
5.13878e-06
5.18264e-06
5.26828e-06
5.26941e-06
5.02042e-06
4.77656e-06
4.53796e-06
4.30493e-06
4.07768e-06
3.85665e-06
3.64228e-06
3.43514e-06
3.23584e-06
3.04524e-06
2.86429e-06
2.69422e-06
2.52894e-06
2.37047e-06
2.25585e-06
2.14476e-06
2.05331e-06
1.98332e-06
1.93623e-06
1.91287e-06
1.91325e-06
1.93656e-06
1.98124e-06
2.04514e-06
2.12587e-06
2.22095e-06
2.328e-06
2.44491e-06
2.48371e-06
2.47626e-06
2.46883e-06
2.41646e-06
2.37569e-06
2.36765e-06
2.35939e-06
2.35105e-06
2.34269e-06
2.33439e-06
2.32611e-06
2.31792e-06
2.30954e-06
2.30148e-06
2.2933e-06
2.29893e-06
2.33375e-06
2.39658e-06
2.2707e-05
2.79819e-05
2.75128e-05
2.70099e-05
2.65443e-05
2.60987e-05
2.56763e-05
2.52697e-05
2.48848e-05
2.45167e-05
2.41615e-05
2.38242e-05
2.34995e-05
2.31893e-05
2.28906e-05
2.2603e-05
2.23258e-05
2.20594e-05
2.18035e-05
2.15561e-05
2.13182e-05
1.91274e-05
1.52063e-05
1.11544e-05
8.22635e-06
7.19874e-06
7.14746e-06
7.09718e-06
7.04792e-06
6.99981e-06
6.95168e-06
6.90612e-06
5.94076e-06
5.01953e-06
5.00173e-06
4.98825e-06
4.84507e-06
4.6479e-06
4.45417e-06
4.26391e-06
4.07727e-06
3.89483e-06
3.7166e-06
3.54295e-06
3.37433e-06
3.2168e-06
3.09835e-06
2.98267e-06
2.87008e-06
2.75893e-06
2.68606e-06
2.63488e-06
2.53979e-06
2.40144e-06
2.30352e-06
2.18762e-06
2.08571e-06
2.00987e-06
1.96193e-06
1.94284e-06
1.95234e-06
1.98898e-06
2.05032e-06
2.13335e-06
2.23485e-06
2.35167e-06
2.48097e-06
2.58723e-06
2.58009e-06
2.57293e-06
2.56574e-06
2.55852e-06
2.55128e-06
2.544e-06
2.53666e-06
2.52929e-06
2.52188e-06
2.51447e-06
2.5071e-06
2.49973e-06
2.49234e-06
2.48492e-06
2.47747e-06
2.46999e-06
2.46252e-06
2.45505e-06
2.39962e-06
2.36085e-06
2.35064e-06
2.34242e-06
2.33419e-06
2.32598e-06
2.31777e-06
2.30964e-06
2.30135e-06
2.3021e-06
2.33042e-06
2.36596e-06
2.39332e-06
2.41113e-06
2.28052e-05
2.81074e-05
2.76272e-05
2.71136e-05
2.664e-05
2.61841e-05
2.57543e-05
2.5341e-05
2.49474e-05
2.45706e-05
2.42096e-05
2.38669e-05
2.3537e-05
2.32212e-05
2.29165e-05
2.26233e-05
2.23408e-05
2.20695e-05
2.18092e-05
1.98562e-05
1.54079e-05
1.07371e-05
7.35554e-06
6.44889e-06
6.21406e-06
5.98633e-06
5.76569e-06
5.55184e-06
5.34438e-06
5.14481e-06
4.95231e-06
4.45273e-06
2.83138e-06
2.3959e-06
2.27983e-06
2.17209e-06
2.09608e-06
2.03718e-06
1.99031e-06
1.96313e-06
1.95586e-06
1.9681e-06
1.99893e-06
2.04694e-06
2.11048e-06
2.18767e-06
2.27674e-06
2.37596e-06
2.48382e-06
2.56056e-06