/*--------------------------------*- C++ -*----------------------------------*\
| =========                 |                                                 |
| \\      /  F ield         | foam-extend: Open Source CFD                    |
|  \\    /   O peration     | Version:     4.1                                |
|   \\  /    A nd           | Web:         http://www.foam-extend.org         |
|    \\/     M anipulation  |                                                 |
\*---------------------------------------------------------------------------*/
FoamFile
{
    version     2.0;
    format      ascii;
    class       volScalarField;
    location    "3";
    object      sigmaEq;
}
// * * * * * * * * * * * * * * * * * * * * * * * * * * * * * * * * * * * * * //

dimensions      [1 -1 -2 0 0 0 0];

internalField   nonuniform List<scalar> 
100000
(
1.20709e+06
2.06369e+06
1.94371e+06
1.85845e+06
1.78339e+06
1.71378e+06
1.70456e+06
1.71169e+06
1.66774e+06
1.61251e+06
1.55653e+06
1.40137e+06
1.26534e+06
1.23033e+06
1.19714e+06
1.3216e+06
1.44684e+06
1.40601e+06
1.36686e+06
1.32945e+06
1.29367e+06
1.2599e+06
1.22747e+06
1.19648e+06
1.16692e+06
1.13893e+06
1.11237e+06
1.0873e+06
1.06346e+06
1.04037e+06
1.01815e+06
996756
976583
957157
938201
920251
903183
886991
871522
856624
842488
828986
816038
803578
791715
780229
768023
755837
635290
621115
623092
621112
619148
617228
615328
613473
611640
609843
608070
606323
604611
602919
601271
599640
598047
596483
594945
593431
591929
590454
589004
587582
586182
584813
583471
582148
580847
579560
578303
577079
575873
574694
573543
572412
571304
570215
569136
568080
567043
566026
565029
564031
563021
561940
560740
559115
556837
552640
543262
538427
1.04602e+06
1.96924e+06
1.90807e+06
1.83755e+06
1.77351e+06
1.71171e+06
1.65784e+06
1.66228e+06
1.66497e+06
1.61008e+06
1.47168e+06
1.32718e+06
1.26352e+06
1.2285e+06
1.19577e+06
1.21563e+06
1.35035e+06
1.40275e+06
1.36413e+06
1.32742e+06
1.29183e+06
1.25707e+06
1.22313e+06
1.19036e+06
1.15919e+06
1.12953e+06
1.10121e+06
1.07426e+06
1.04869e+06
1.02395e+06
1.00003e+06
976875
947413
933485
913054
893365
874664
856840
839808
823337
807583
792483
778131
764422
751343
740547
730874
719796
575629
556949
558161
556933
555712
554526
553352
552203
551073
549963
548872
547786
546732
545692
544676
543678
542701
541746
540798
539850
538910
537987
537078
536181
535300
534435
533582
532734
531886
531046
530225
529417
528617
527830
527050
526274
525497
524710
523905
523083
522239
521364
520428
519393
518203
516752
514937
512444
509269
504461
498550
501492
1.03951e+06
1.96719e+06
1.90633e+06
1.83601e+06
1.77187e+06
1.71079e+06
1.65312e+06
1.61701e+06
1.61969e+06
1.54842e+06
1.38724e+06
1.2894e+06
1.25147e+06
1.21562e+06
1.1819e+06
1.14927e+06
1.22087e+06
1.33972e+06
1.33183e+06
1.29356e+06
1.25938e+06
1.22853e+06
1.1961e+06
1.16336e+06
1.13215e+06
1.10238e+06
1.07394e+06
1.0467e+06
1.021e+06
996472
972753
949839
927416
906017
885856
866347
847679
829842
812884
796647
781218
766418
752270
738736
725845
713579
702393
682572
535253
511247
512079
512863
513583
514257
514875
515445
515967
516430
516853
517225
517560
517854
518110
518335
518526
518675
518778
518838
518862
518853
518814
518746
518650
518528
518372
518183
517964
517719
517455
517168
516853
516514
516150
515745
515303
514828
514290
513689
513017
512253
511375
510338
509081
507527
505607
503139
500265
496433
492392
498177
1.6737e+06
1.97142e+06
1.91167e+06
1.84331e+06
1.78417e+06
1.73286e+06
1.68107e+06
1.62732e+06
1.57607e+06
1.443e+06
1.32904e+06
1.29e+06
1.25235e+06
1.21669e+06
1.18345e+06
1.15125e+06
1.12865e+06
1.22607e+06
1.3161e+06
1.2778e+06
1.24068e+06
1.20543e+06
1.17223e+06
1.14044e+06
1.11034e+06
1.08179e+06
1.05472e+06
1.02868e+06
1.00399e+06
980565
958127
936532
915639
895507
876429
858231
840825
824129
808300
793141
778751
765045
752000
739541
727671
716431
705657
661286
534217
512719
513526
514285
514984
515630
516228
516771
517267
517700
518092
518443
518747
519017
519247
519443
519604
519714
519780
519805
519795
519751
519675
519567
519427
519259
519052
518810
518538
518234
517907
517560
517177
516750
516286
515764
515226
514650
513970
513205
512347
511382
510286
509023
507544
505805
503778
501380
498811
495672
492675
496941
6.58225e+06
4.58636e+06
1.9898e+06
1.87871e+06
1.81747e+06
1.75837e+06
1.70007e+06
1.6405e+06
1.45634e+06
1.31536e+06
1.31288e+06
1.28817e+06
1.25097e+06
1.21548e+06
1.18244e+06
1.1506e+06
1.12038e+06
1.13114e+06
1.22453e+06
1.27377e+06
1.23802e+06
1.20348e+06
1.17064e+06
1.13916e+06
1.10931e+06
1.08095e+06
1.05414e+06
1.02846e+06
1.004e+06
980684
958377
937013
916504
896782
877925
859822
842543
825976
810294
795334
781162
767650
754699
742305
730517
719361
708729
643414
526386
514080
514868
515598
516276
516895
517474
517988
518449
518860
519221
519548
519825
520065
520273
520439
520562
520633
520663
520654
520609
520527
520408
520258
520078
519861
519602
519305
518979
518615
518245
517833
517367
516848
516303
515682
515024
514343
513545
512637
511650
510544
509312
507925
506357
504586
502619
500415
498187
495591
488482
470702
1.01124e+07
1.04869e+07
7.40189e+06
4.04813e+06
1.96054e+06
1.75928e+06
1.70108e+06
1.5226e+06
1.3434e+06
1.29187e+06
1.27847e+06
1.27681e+06
1.24994e+06
1.21457e+06
1.18154e+06
1.14985e+06
1.11982e+06
1.09136e+06
1.12667e+06
1.21762e+06
1.23522e+06
1.20129e+06
1.16889e+06
1.13766e+06
1.10796e+06
1.07972e+06
1.05314e+06
1.02782e+06
1.00369e+06
980642
958587
937373
917020
897527
878975
861153
844118
827714
812114
797258
783220
769885
757106
744857
733239
722216
711731
628879
521031
515330
516100
516801
517459
518055
518606
519096
519521
519909
520243
520539
520790
521005
521186
521317
521401
521435
521433
521390
521305
521182
521024
520834
520609
520340
520033
519688
519323
518904
518480
517992
517447
516881
516231
515491
514783
514034
513100
512092
510999
509817
508515
507091
505521
503803
501960
499974
494802
479332
463301
457129
1.00553e+07
1.15227e+07
1.15224e+07
1.008e+07
7.61901e+06
4.76782e+06
2.32325e+06
1.40722e+06
1.33135e+06
1.29121e+06
1.25324e+06
1.24173e+06
1.2403e+06
1.21342e+06
1.18036e+06
1.14898e+06
1.11892e+06
1.09063e+06
1.0633e+06
1.11585e+06
1.20273e+06
1.19844e+06
1.16654e+06
1.13586e+06
1.10658e+06
1.07858e+06
1.05209e+06
1.0269e+06
1.00296e+06
980190
958500
937649
917639
898351
879917
862214
845347
829153
813732
799051
785153
771933
759319
747219
735757
724884
714594
617390
517627
516472
517224
517899
518532
519106
519625
520092
520484
520842
521154
521421
521648
521835
521981
522076
522123
522123
522082
522001
521880
521719
521523
521288
521013
520696
520337
519949
519517
519043
518579
517796
517447
516773
516122
515289
514767
513387
512720
511590
510465
509231
507902
506475
504937
503304
500419
487102
470441
459960
457473
459510
9.76324e+06
1.13374e+07
1.14072e+07
1.13941e+07
1.13853e+07
1.04706e+07
8.34222e+06
5.2634e+06
2.46216e+06
1.28615e+06
1.25241e+06
1.21651e+06
1.20487e+06
1.20331e+06
1.17903e+06
1.14767e+06
1.11788e+06
1.08977e+06
1.06257e+06
1.03678e+06
1.09782e+06
1.17955e+06
1.16381e+06
1.13362e+06
1.10476e+06
1.0771e+06
1.05087e+06
1.02591e+06
1.00218e+06
979559
958056
937444
917763
898802
880654
863208
846561
830600
815358
800782
786977
773819
761317
749367
738070
727335
717225
608687
515684
517508
518234
518889
519492
520046
520536
520974
521337
521658
521947
522191
522391
522549
522661
522721
522729
522691
522614
522497
522340
522140
521902
521621
521301
520938
520530
520094
519612
519121
518567
517982
517331
516602
515868
515089
514171
513209
512241
511160
510001
508745
507420
506015
504536
495356
470940
450131
444074
443455
444106
503909
9.09863e+06
1.05952e+07
1.08236e+07
1.09707e+07
1.08642e+07
1.08557e+07
1.09787e+07
1.05483e+07
8.57247e+06
5.84235e+06
3.28407e+06
1.70882e+06
1.18177e+06
1.16763e+06
1.16614e+06
1.14621e+06
1.11648e+06
1.0885e+06
1.06161e+06
1.03606e+06
1.01178e+06
1.07256e+06
1.1488e+06
1.13081e+06
1.10242e+06
1.07518e+06
1.04924e+06
1.02454e+06
1.00109e+06
978718
957488
937178
917785
899046
881049
863792
847359
831662
816711
802342
788704
775669
763251
751404
740260
729711
719635
602473
514756
518440
519132
519772
520344
520871
521340
521730
522071
522372
522637
522848
523019
523148
523222
523245
523215
523141
523032
522881
522687
522451
522173
521853
521491
521083
516081
500969
488597
479152
472797
469600
469572
472727
479002
488190
500139
514532
531147
549759
570140
592038
615246
646224
679555
712723
782815
842116
879290
920409
955708
998446
8.71532e+06
9.6961e+06
9.45285e+06
9.38338e+06
9.33721e+06
9.2757e+06
9.57047e+06
9.82985e+06
9.97806e+06
1.01182e+07
8.59421e+06
6.95014e+06
4.83276e+06
3.05204e+06
1.89049e+06
1.15453e+06
1.1149e+06
1.08714e+06
1.06037e+06
1.03486e+06
1.01079e+06
987682
1.04051e+06
1.11074e+06
1.09985e+06
1.07296e+06
1.04737e+06
1.02297e+06
999800
977634
956598
936525
917444
899072
881338
864267
848004
832463
817737
803605
790175
777324
765039
753347
742287
731988
721893
598516
514471
519264
519922
518038
504481
492408
482078
473693
467470
463637
462282
463547
467407
473884
482904
494358
508094
523969
541798
561381
582555
605138
628974
653940
679904
703634
722741
747381
776382
805885
835820
866135
909646
973790
1.03895e+06
1.10487e+06
1.17138e+06
1.23831e+06
1.30551e+06
1.37284e+06
1.44023e+06
1.51111e+06
1.6013e+06
1.6909e+06
1.78033e+06
1.85458e+06
1.89656e+06
1.894e+06
1.89544e+06
1.92952e+06
1.96235e+06
2.00139e+06
7.40873e+06
8.99658e+06
8.70267e+06
8.34604e+06
8.26131e+06
8.20572e+06
8.17587e+06
8.32747e+06
8.47422e+06
8.61153e+06
8.74192e+06
8.86256e+06
8.62252e+06
7.30364e+06
6.13018e+06
4.58496e+06
3.02986e+06
1.98594e+06
1.1921e+06
1.15798e+06
1.50902e+06
1.45028e+06
1.39828e+06
1.33604e+06
1.29889e+06
1.23256e+06
1.15948e+06
1.09689e+06
1.04368e+06
998747
977121
957431
939715
923815
909640
897235
886779
878294
871779
867232
864702
864262
865850
869485
875261
883043
892765
808790
699898
724955
746297
765967
788040
812107
836866
862295
1.01672e+06
914979
942102
969710
997740
1.02618e+06
1.05497e+06
1.08412e+06
1.12327e+06
1.18111e+06
1.24009e+06
1.30008e+06
1.36095e+06
1.42261e+06
1.48501e+06
1.54804e+06
1.61163e+06
1.67572e+06
1.72989e+06
1.75777e+06
1.78591e+06
1.81429e+06
1.8429e+06
1.8712e+06
1.89993e+06
1.92958e+06
1.95872e+06
1.9879e+06
2.01712e+06
2.04635e+06
2.07557e+06
2.10474e+06
2.15305e+06
2.20717e+06
2.26091e+06
2.09311e+06
1.83992e+06
1.58429e+06
1.29123e+06
1.01409e+06
782923
578112
445385
614617
4.71707e+06
7.23659e+06
7.96619e+06
8.21099e+06
8.16081e+06
8.11382e+06
8.07256e+06
8.03237e+06
7.99691e+06
7.96266e+06
7.93042e+06
7.8997e+06
7.87077e+06
7.84175e+06
7.81444e+06
7.83585e+06
6.98719e+06
6.05288e+06
5.23e+06
4.16531e+06
2.73693e+06
1.62077e+06
1.01425e+06
973222
1.40825e+06
1.95103e+06
2.42372e+06
2.33561e+06
2.25746e+06
2.20745e+06
2.16581e+06
2.10972e+06
2.06101e+06
2.01917e+06
1.98381e+06
1.95471e+06
1.93153e+06
1.91396e+06
1.90157e+06
1.89411e+06
1.89142e+06
1.89309e+06
1.89916e+06
1.90898e+06
1.92286e+06
1.94021e+06
1.958e+06
1.8178e+06
1.74648e+06
1.77702e+06
1.80992e+06
1.84014e+06
1.84704e+06
1.85548e+06
1.86536e+06
1.87679e+06
1.88916e+06
1.90277e+06
1.91786e+06
1.93382e+06
1.95078e+06
1.9687e+06
1.98748e+06
1.99479e+06
1.99723e+06
2.00104e+06
2.00535e+06
2.01055e+06
2.01659e+06
2.02341e+06
2.03098e+06
2.03922e+06
2.04811e+06
2.05762e+06
2.06769e+06
2.0783e+06
2.0894e+06
2.10096e+06
2.11296e+06
2.0648e+06
1.86162e+06
1.63812e+06
1.41724e+06
1.20037e+06
989942
790824
616451
492851
452076
505052
655986
1.03231e+06
1.27833e+06
1.47248e+06
1.67011e+06
1.84762e+06
1.97992e+06
2.08624e+06
2.19334e+06
2.49465e+06
3.32767e+06
5.2331e+06
5.90956e+06
6.78638e+06
7.45131e+06
7.89543e+06
7.98811e+06
7.95626e+06
7.92611e+06
7.89914e+06
7.87257e+06
7.84766e+06
7.82373e+06
7.79956e+06
7.77636e+06
7.75328e+06
7.72993e+06
7.70661e+06
7.80965e+06
7.95538e+06
7.69787e+06
6.76637e+06
5.87827e+06
5.06159e+06
4.31789e+06
3.59742e+06
2.55957e+06
1.61845e+06
1.09493e+06
864744
1.01566e+06
1.36389e+06
1.77e+06
2.18241e+06
2.58294e+06
2.71655e+06
2.65677e+06
2.601e+06
2.5492e+06
2.50091e+06
2.45637e+06
2.41485e+06
2.3767e+06
2.34141e+06
2.30893e+06
2.27932e+06
2.2219e+06
1.9656e+06
1.93487e+06
1.91552e+06
1.89826e+06
1.88298e+06
1.86962e+06
1.85805e+06
1.84818e+06
1.83994e+06
1.83326e+06
1.82799e+06
1.82415e+06
1.82161e+06
1.82034e+06
1.82025e+06
1.82093e+06
1.82271e+06
1.81547e+06
1.79001e+06
1.76489e+06
1.74013e+06
1.71571e+06
1.69166e+06
1.66795e+06
1.64457e+06
1.46347e+06
1.25709e+06
1.05466e+06
859786
679790
532067
474586
567173
723730
757888
812370
883548
967746
1.05126e+06
1.13733e+06
1.23269e+06
1.35294e+06
1.48145e+06
1.6128e+06
1.55591e+06
1.43464e+06
1.32119e+06
1.20832e+06
1.05549e+06
886102
765382
683215
478809
3.28697e+06
4.86524e+06
4.77134e+06
4.83344e+06
5.18469e+06
5.79773e+06
6.45524e+06
6.84086e+06
7.13519e+06
7.37876e+06
7.20304e+06
7.01565e+06
6.83308e+06
6.65232e+06
6.47461e+06
6.29979e+06
6.12732e+06
5.95787e+06
5.79084e+06
5.66875e+06
5.66162e+06
5.66268e+06
5.61887e+06
5.50858e+06
5.399e+06
5.30764e+06
5.15331e+06
4.47606e+06
3.84197e+06
3.27141e+06
2.77094e+06
2.35103e+06
2.02838e+06
1.82132e+06
1.47609e+06
1.13948e+06
1.26595e+06
1.58e+06
1.89372e+06
2.01691e+06
1.98665e+06
1.95659e+06
1.92685e+06
1.89764e+06
1.86844e+06
1.83989e+06
1.71498e+06
1.51545e+06
1.48857e+06
1.46223e+06
1.43625e+06
1.41057e+06
1.38519e+06
1.36011e+06
1.33535e+06
1.31086e+06
1.28675e+06
1.26376e+06
1.24764e+06
1.23188e+06
1.21656e+06
1.20156e+06
1.18689e+06
1.18409e+06
1.1871e+06
1.19014e+06
1.19321e+06
1.18261e+06
1.09182e+06
1.0006e+06
909651
846086
873571
834645
783809
744997
718481
616255
545399
558180
545881
548722
566207
599124
638924
690584
754521
819042
886830
956996
1.02886e+06
1.1019e+06
1.1802e+06
1.26209e+06
1.33706e+06
1.44292e+06
1.53161e+06
1.59293e+06
1.65235e+06
1.71793e+06
2.34377e+06
4.22375e+06
4.09577e+06
3.9605e+06
3.83992e+06
3.72713e+06
3.51511e+06
3.33867e+06
3.27267e+06
3.6561e+06
4.01991e+06
3.99516e+06
3.98178e+06
3.86669e+06
3.75241e+06
3.63815e+06
3.52231e+06
3.40646e+06
3.28994e+06
3.17252e+06
3.05466e+06
2.98273e+06
2.97135e+06
2.95498e+06
2.8842e+06
2.78591e+06
2.70902e+06
2.65265e+06
2.59592e+06
2.53892e+06
2.48162e+06
2.42342e+06
2.36411e+06
2.3034e+06
2.24128e+06
2.019e+06
1.74065e+06
1.566e+06
1.31093e+06
1.08271e+06
1.21961e+06
1.51471e+06
1.58462e+06
1.58147e+06
1.57839e+06
1.55935e+06
1.3833e+06
1.31721e+06
1.31851e+06
1.31992e+06
1.32139e+06
1.32295e+06
1.32461e+06
1.32633e+06
1.32812e+06
1.32999e+06
1.3319e+06
1.33391e+06
1.33608e+06
1.33818e+06
1.34034e+06
1.34257e+06
1.34486e+06
1.34717e+06
1.34954e+06
1.35195e+06
1.35406e+06
1.36183e+06
1.3012e+06
1.2097e+06
1.11821e+06
1.02745e+06
1.07955e+06
1.15723e+06
1.23584e+06
1.31514e+06
1.39495e+06
1.47312e+06
1.46894e+06
1.46483e+06
1.46078e+06
1.45829e+06
1.46212e+06
1.46453e+06
1.4686e+06
1.46433e+06
1.51302e+06
1.57871e+06
1.64404e+06
1.70894e+06
1.77337e+06
1.83726e+06
1.90077e+06
1.97036e+06
2.0295e+06
2.07756e+06
2.13368e+06
2.19454e+06
2.25228e+06
2.29385e+06
5.01756e+06
6.15149e+06
6.06588e+06
5.97073e+06
5.88286e+06
5.79857e+06
5.71826e+06
5.64172e+06
5.56822e+06
5.461e+06
4.98362e+06
4.53774e+06
4.29266e+06
4.1053e+06
3.78552e+06
3.50364e+06
3.25685e+06
3.10338e+06
2.97689e+06
2.85954e+06
2.75058e+06
2.64953e+06
2.5551e+06
2.45422e+06
2.40589e+06
2.35863e+06
2.27382e+06
2.20423e+06
2.13895e+06
2.07765e+06
2.02047e+06
1.96667e+06
1.91658e+06
1.86985e+06
1.82661e+06
1.78698e+06
1.75101e+06
1.71899e+06
1.6909e+06
1.75191e+06
1.93157e+06
1.95387e+06
1.75714e+06
1.71846e+06
1.71511e+06
1.67298e+06
1.50247e+06
1.49379e+06
1.49435e+06
1.49505e+06
1.49585e+06
1.49668e+06
1.49762e+06
1.49865e+06
1.49973e+06
1.50087e+06
1.50211e+06
1.50255e+06
1.4963e+06
1.49007e+06
1.48386e+06
1.47767e+06
1.47153e+06
1.4654e+06
1.45928e+06
1.45319e+06
1.44715e+06
1.45674e+06
1.50903e+06
1.50732e+06
1.50234e+06
1.49747e+06
1.49271e+06
1.48806e+06
1.486e+06
1.5269e+06
1.56801e+06
1.60931e+06
1.65078e+06
1.6924e+06
1.75846e+06
1.83317e+06
1.90801e+06
1.97847e+06
2.04439e+06
2.09932e+06
2.15548e+06
2.21871e+06
2.28269e+06
2.34608e+06
2.40884e+06
2.47094e+06
2.53239e+06
2.59396e+06
2.66002e+06
2.69079e+06
2.67974e+06
2.6479e+06
2.61707e+06
2.58349e+06
5.04437e+06
6.18983e+06
6.1014e+06
6.00367e+06
5.91308e+06
5.82672e+06
5.74411e+06
5.66561e+06
5.58995e+06
5.51805e+06
5.44911e+06
5.38277e+06
5.31943e+06
5.04643e+06
4.79026e+06
4.5498e+06
4.40528e+06
4.29816e+06
4.11513e+06
3.9221e+06
3.74074e+06
3.57042e+06
3.41066e+06
3.30874e+06
3.24075e+06
3.14323e+06
3.08152e+06
3.02093e+06
2.93111e+06
2.86924e+06
2.81694e+06
2.7664e+06
2.71823e+06
2.67169e+06
2.62722e+06
2.5843e+06
2.5433e+06
2.50406e+06
2.4661e+06
2.42995e+06
2.37666e+06
2.0301e+06
1.79681e+06
1.78857e+06
1.78053e+06
1.71995e+06
1.57487e+06
1.56477e+06
1.5587e+06
1.55258e+06
1.54646e+06
1.54031e+06
1.5341e+06
1.52789e+06
1.5217e+06
1.51546e+06
1.50921e+06
1.50297e+06
1.49661e+06
1.48081e+06
1.46493e+06
1.44896e+06
1.4329e+06
1.41676e+06
1.40058e+06
1.38433e+06
1.36807e+06
1.35164e+06
1.42583e+06
1.51785e+06
1.60324e+06
1.69074e+06
1.7802e+06
1.87094e+06
1.9557e+06
2.04464e+06
2.14061e+06
2.23786e+06
2.29627e+06
2.37046e+06
2.44406e+06
2.5173e+06
2.58168e+06
2.64559e+06
2.70902e+06
2.77193e+06
2.77834e+06
2.7665e+06
2.75474e+06
2.74305e+06
2.73144e+06
2.7199e+06
2.70847e+06
2.69711e+06
2.68731e+06
2.66557e+06
2.63672e+06
2.60556e+06
2.57388e+06
2.56069e+06
5.07034e+06
6.22698e+06
6.13583e+06
6.03564e+06
5.94263e+06
5.85399e+06
5.76907e+06
5.6885e+06
5.61139e+06
5.53745e+06
5.46673e+06
5.3987e+06
5.33377e+06
5.27123e+06
5.2111e+06
5.15306e+06
5.09695e+06
4.91389e+06
4.7103e+06
4.51862e+06
4.33826e+06
4.16856e+06
4.04459e+06
3.95579e+06
3.83701e+06
3.69868e+06
3.56626e+06
3.40425e+06
3.27366e+06
3.15858e+06
3.02996e+06
2.92131e+06
2.86778e+06
2.8183e+06
2.77306e+06
2.73196e+06
2.69458e+06
2.66122e+06
2.63114e+06
2.60475e+06
2.33745e+06
1.84317e+06
1.73149e+06
1.71875e+06
1.70582e+06
1.6242e+06
1.4855e+06
1.47211e+06
1.45977e+06
1.4471e+06
1.43411e+06
1.42085e+06
1.40734e+06
1.39355e+06
1.37958e+06
1.36541e+06
1.35102e+06
1.33645e+06
1.32154e+06
1.3066e+06
1.29165e+06
1.27661e+06
1.26148e+06
1.24627e+06
1.23103e+06
1.21576e+06
1.20048e+06
1.18517e+06
1.22082e+06
1.30328e+06
1.38824e+06
1.4755e+06
1.56486e+06
1.65615e+06
1.74662e+06
1.79436e+06
1.84332e+06
1.90489e+06
1.97289e+06
2.04001e+06
2.0831e+06
2.11589e+06
2.14981e+06
2.1848e+06
2.2208e+06
2.25777e+06
2.29564e+06
2.33438e+06
2.37395e+06
2.41432e+06
2.45548e+06
2.49738e+06
2.54e+06
2.58478e+06
2.63238e+06
2.61843e+06
2.5921e+06
2.57989e+06
2.56925e+06
2.55623e+06
5.09538e+06
6.26293e+06
6.16939e+06
6.06625e+06
5.97123e+06
5.88012e+06
5.79307e+06
5.71074e+06
5.63159e+06
5.55581e+06
5.48364e+06
5.41388e+06
5.3473e+06
5.28314e+06
5.22144e+06
5.16221e+06
5.10505e+06
5.0499e+06
4.9966e+06
4.94509e+06
4.89528e+06
4.84703e+06
4.8003e+06
4.69372e+06
4.55039e+06
4.4155e+06
4.28866e+06
4.16925e+06
4.05735e+06
3.92092e+06
3.79575e+06
3.70971e+06
3.62007e+06
3.50436e+06
3.43005e+06
3.39472e+06
3.36263e+06
3.24791e+06
2.868e+06
2.39709e+06
1.85123e+06
1.56205e+06
1.54988e+06
1.53731e+06
1.52434e+06
1.3927e+06
1.3002e+06
1.28911e+06
1.27765e+06
1.26588e+06
1.25384e+06
1.2415e+06
1.22893e+06
1.21613e+06
1.20309e+06
1.18986e+06
1.17647e+06
1.16291e+06
1.14933e+06
1.14476e+06
1.14022e+06
1.13568e+06
1.13113e+06
1.12661e+06
1.12213e+06
1.11767e+06
1.11323e+06
1.10881e+06
1.10442e+06
1.10007e+06
1.09576e+06
1.09147e+06
1.0872e+06
1.08296e+06
1.07876e+06
1.07694e+06
1.08865e+06
1.10071e+06
1.14952e+06
1.1818e+06
1.21539e+06
1.25022e+06
1.28623e+06
1.32338e+06
1.36159e+06
1.40083e+06
1.44103e+06
1.48217e+06
1.52419e+06
1.56706e+06
1.61076e+06
1.6563e+06
1.70408e+06
1.75265e+06
1.8005e+06
1.87277e+06
1.95131e+06
2.01088e+06
2.05823e+06
2.1078e+06
5.12019e+06
6.29762e+06
6.2016e+06
6.09552e+06
5.99834e+06
5.90486e+06
5.81604e+06
5.7314e+06
5.65033e+06
5.57307e+06
5.49906e+06
5.42767e+06
5.35978e+06
5.2942e+06
5.2312e+06
5.17067e+06
5.11217e+06
5.0558e+06
5.00144e+06
4.94898e+06
4.89807e+06
4.84887e+06
4.80125e+06
4.75515e+06
4.71051e+06
4.66707e+06
4.62494e+06
4.58383e+06
4.54417e+06
4.50531e+06
4.46757e+06
4.40788e+06
4.29046e+06
4.19422e+06
4.09873e+06
3.64528e+06
3.15295e+06
2.52822e+06
1.99919e+06
1.62482e+06
1.45273e+06
1.44439e+06
1.43612e+06
1.42815e+06
1.40404e+06
1.24114e+06
1.20317e+06
1.19875e+06
1.19432e+06
1.18984e+06
1.18534e+06
1.18084e+06
1.1763e+06
1.17174e+06
1.16718e+06
1.1626e+06
1.15802e+06
1.15344e+06
1.14886e+06
1.14428e+06
1.13972e+06
1.13519e+06
1.13068e+06
1.12618e+06
1.12169e+06
1.11723e+06
1.1128e+06
1.10839e+06
1.10402e+06
1.09967e+06
1.09534e+06
1.09105e+06
1.08678e+06
1.08256e+06
1.08758e+06
1.09974e+06
1.11191e+06
1.11216e+06
1.10764e+06
1.10314e+06
1.09868e+06
1.09424e+06
1.08985e+06
1.08548e+06
1.08115e+06
1.07686e+06
1.07261e+06
1.0684e+06
1.06423e+06
1.06068e+06
1.059e+06
1.0575e+06
1.05592e+06
1.05285e+06
1.04889e+06
1.10561e+06
1.17198e+06
1.20193e+06
1.20791e+06
1.20407e+06
5.14488e+06
6.33135e+06
6.23266e+06
6.12419e+06
6.02463e+06
5.92907e+06
5.83806e+06
5.75132e+06
5.66858e+06
5.58935e+06
5.51376e+06
5.44105e+06
5.37151e+06
5.30447e+06
5.2401e+06
5.17817e+06
5.11851e+06
5.06118e+06
5.00571e+06
4.95217e+06
4.90016e+06
4.85001e+06
4.80145e+06
4.75451e+06
4.70899e+06
4.66479e+06
4.62192e+06
4.58016e+06
4.53978e+06
4.50058e+06
4.46201e+06
4.40176e+06
3.94194e+06
3.49999e+06
2.86761e+06
2.25517e+06
1.81405e+06
1.50186e+06
1.48599e+06
1.46724e+06
1.44936e+06
1.44103e+06
1.43261e+06
1.42431e+06
1.38285e+06
1.22576e+06
1.20239e+06
1.19793e+06
1.19349e+06
1.18904e+06
1.18454e+06
1.18002e+06
1.1755e+06
1.17095e+06
1.16638e+06
1.16182e+06
1.15726e+06
1.15269e+06
1.14811e+06
1.14355e+06
1.139e+06
1.13448e+06
1.12996e+06
1.12546e+06
1.12097e+06
1.1165e+06
1.11207e+06
1.10766e+06
1.10329e+06
1.09894e+06
1.09461e+06
1.0903e+06
1.08603e+06
1.09789e+06
1.11042e+06
1.11988e+06
1.1153e+06
1.11075e+06
1.10623e+06
1.10174e+06
1.09728e+06
1.09285e+06
1.07657e+06
1.03045e+06
985243
940998
897758
855365
811473
769199
728338
687949
648290
610756
575644
542200
508337
508414
506131
522743
5.1682e+06
6.36394e+06
6.26234e+06
6.15166e+06
6.04982e+06
5.95211e+06
5.85891e+06
5.77061e+06
5.6859e+06
5.60482e+06
5.52759e+06
5.45319e+06
5.38233e+06
5.31407e+06
5.24828e+06
5.18505e+06
5.12418e+06
5.06574e+06
5.0091e+06
4.95457e+06
4.9016e+06
4.85055e+06
4.80103e+06
4.75328e+06
4.70698e+06
4.66206e+06
4.61836e+06
4.57598e+06
4.53464e+06
4.13964e+06
3.64136e+06
2.96436e+06
2.35243e+06
1.92733e+06
1.55748e+06
1.548e+06
1.53884e+06
1.52504e+06
1.50572e+06
1.48721e+06
1.47404e+06
1.46126e+06
1.44385e+06
1.42671e+06
1.36324e+06
1.21851e+06
1.20128e+06
1.19685e+06
1.1924e+06
1.18793e+06
1.18345e+06
1.17892e+06
1.17439e+06
1.16986e+06
1.16532e+06
1.16076e+06
1.15617e+06
1.15161e+06
1.14705e+06
1.1425e+06
1.13797e+06
1.13346e+06
1.12895e+06
1.12446e+06
1.11998e+06
1.11553e+06
1.1111e+06
1.08511e+06
1.04219e+06
1.00001e+06
958600
921083
890679
861547
822958
779414
737394
697051
658552
622086
587885
554139
522707
500433
478301
460037
445242
436155
432379
433149
439478
450993
467135
487292
510822
537224
562820
562984
553517
562888
5.19091e+06
6.39501e+06
6.2907e+06
6.17777e+06
6.07363e+06
5.97389e+06
5.87906e+06
5.78874e+06
5.70199e+06
5.61941e+06
5.54065e+06
5.46476e+06
5.39241e+06
5.32265e+06
5.25544e+06
5.19098e+06
5.12887e+06
5.06927e+06
5.01162e+06
4.95619e+06
4.90229e+06
4.85037e+06
4.80003e+06
4.75157e+06
4.70451e+06
4.65892e+06
4.51199e+06
3.95913e+06
3.24957e+06
2.53008e+06
2.00273e+06
1.58458e+06
1.57455e+06
1.56454e+06
1.55484e+06
1.54516e+06
1.53567e+06
1.52649e+06
1.51728e+06
1.50832e+06
1.49929e+06
1.48113e+06
1.46356e+06
1.44756e+06
1.37515e+06
1.18104e+06
1.17913e+06
1.1853e+06
1.19104e+06
1.18656e+06
1.16534e+06
1.1182e+06
1.07182e+06
1.02627e+06
981570
937772
894911
853083
812361
772841
734610
697784
662503
628940
597278
567734
540049
519178
501366
483061
469403
457576
448851
442108
440800
444843
453911
467541
485192
506298
530305
556705
576431
574699
574581
575663
576841
577279
575506
573736
571969
570205
568443
566690
564935
563195
561450
559687
555826
560756
5.21374e+06
6.42483e+06
6.31822e+06
6.20304e+06
6.09651e+06
5.99505e+06
5.89799e+06
5.80569e+06
5.71749e+06
5.63323e+06
5.55273e+06
5.47538e+06
5.40144e+06
5.33035e+06
5.26193e+06
5.19622e+06
5.13289e+06
5.0722e+06
5.0135e+06
4.95701e+06
4.90208e+06
4.84934e+06
4.79826e+06
4.74908e+06
4.45456e+06
3.80732e+06
2.96916e+06
2.23929e+06
1.73089e+06
1.60362e+06
1.593e+06
1.58234e+06
1.54198e+06
1.49238e+06
1.44371e+06
1.39607e+06
1.3493e+06
1.30379e+06
1.25916e+06
1.21548e+06
1.17305e+06
1.13179e+06
1.09165e+06
1.05282e+06
798943
619192
596335
574823
553684
533858
519607
508721
494592
481231
468134
459403
455155
455380
459931
468550
480902
496609
515257
536435
559762
584893
611541
622836
620828
610646
600377
593907
592205
590495
588781
587063
585340
583614
581888
580163
578436
576704
576151
577136
578328
579084
577568
575798
574028
572261
570497
568736
566980
565234
563485
561750
560010
558254
559836
554849
5.23589e+06
6.45357e+06
6.34456e+06
6.2272e+06
6.11861e+06
6.01504e+06
5.91591e+06
5.82214e+06
5.7319e+06
5.64574e+06
5.56399e+06
5.48533e+06
5.40989e+06
5.33741e+06
5.26766e+06
5.20068e+06
5.10523e+06
5.01164e+06
4.92045e+06
4.83195e+06
4.74557e+06
4.66183e+06
4.14981e+06
3.33662e+06
2.36839e+06
1.59572e+06
1.18083e+06
1.13679e+06
1.09482e+06
1.05476e+06
1.01693e+06
953949
883973
842379
811979
784129
759361
737738
718753
703060
690987
682111
676378
585727
579263
606235
634777
664398
694881
717788
726875
713830
701665
691303
681154
669887
659016
648526
638399
636159
634307
632442
630570
628697
626822
624932
623037
618917
608114
597870
594131
592431
590721
589004
587281
585555
583823
582091
580359
578629
577628
578528
579729
580620
579541
577766
575992
574221
572455
570697
568942
567187
565433
563689
561945
560220
558492
556746
555074
557343
5.25729e+06
6.48132e+06
6.36956e+06
6.25033e+06
6.13967e+06
5.99324e+06
5.84839e+06
5.70974e+06
5.57585e+06
5.44739e+06
5.32403e+06
5.20471e+06
5.08963e+06
4.97834e+06
4.87075e+06
4.74753e+06
4.62757e+06
4.53024e+06
4.43644e+06
4.34556e+06
3.64632e+06
2.66846e+06
1.60286e+06
964088
846610
835401
827907
824564
825087
829242
836473
846657
843478
834863
826863
819578
812494
805459
798787
792101
785856
780277
774529
698424
760057
759350
757265
755144
752994
750819
748616
746386
744135
739072
726589
714508
702816
691512
682030
673293
663138
653230
643642
634358
625377
623195
616556
605718
595985
594280
592573
577325
559162
542281
526677
512336
499237
487357
477121
471540
466986
462692
457673
452615
448083
444036
440438
437256
434464
432029
429916
428095
426537
425225
424120
423220
422471
421845
421404
440255
5.10168e+06
6.30863e+06
6.13942e+06
5.96317e+06
5.76704e+06
5.57599e+06
5.42187e+06
5.27741e+06
5.13828e+06
5.00475e+06
4.87675e+06
4.75327e+06
4.63435e+06
4.51935e+06
4.4084e+06
4.30121e+06
4.22642e+06
4.15085e+06
3.42315e+06
2.26689e+06
1.1556e+06
893851
941675
929946
918328
907583
897070
887025
877259
867873
859127
849980
841519
833481
825360
817458
810932
804603
797642
791384
785188
779287
707295
753142
759905
757818
755700
753551
751373
749170
746945
744697
728106
688364
651471
617475
586426
558373
533375
506305
483851
466468
454174
446892
446496
450530
457842
471220
486593
504309
520946
539242
553627
568236
582948
597678
612362
620415
627762
635054
642309
651089
659574
667759
675640
683221
690497
697469
704140
710519
716606
722399
727901
733125
738039
742765
747032
751365
754899
762250
4.67653e+06
5.91245e+06
5.73906e+06
5.55632e+06
5.38581e+06
5.25895e+06
5.1409e+06
5.02939e+06
4.92271e+06
4.821e+06
4.72447e+06
4.6319e+06
4.54348e+06
4.45859e+06
4.37745e+06
4.29955e+06
3.57332e+06
2.28143e+06
1.08859e+06
961022
963460
950442
937566
925902
914729
904207
893872
883985
874844
865430
856638
848127
839623
831639
824150
816423
809131
794453
773063
753174
735372
719396
590113
579804
543456
510301
484391
465928
454883
450944
453516
458899
469389
488452
508374
530621
554558
579668
605534
631830
658294
684740
710956
736896
773671
818391
857239
891323
924739
957443
989287
1.0014e+06
1.00798e+06
1.01449e+06
1.02077e+06
1.0205e+06
1.01729e+06
1.01415e+06
1.01163e+06
1.01416e+06
1.01016e+06
1.0062e+06
1.0023e+06
998445
994640
990870
987129
983423
979755
976128
972547
969011
1.04724e+06
1.16983e+06
1.25878e+06
1.348e+06
1.43684e+06
1.52669e+06
1.61512e+06
1.70342e+06
4.45594e+06
5.79136e+06
5.66016e+06
5.5201e+06
5.39003e+06
5.26589e+06
5.14721e+06
5.0348e+06
4.92702e+06
4.8244e+06
4.72704e+06
4.6337e+06
4.54453e+06
4.45879e+06
3.85437e+06
2.50312e+06
1.19633e+06
1.0011e+06
986353
972458
958640
945959
933584
894269
861062
834038
812618
795739
783732
775598
770581
768483
768992
771273
775306
781056
800347
831974
849949
854757
859840
823840
625039
594856
637275
681074
725441
769799
813762
857049
899471
940896
965140
960869
956630
952426
948264
944143
940064
936011
931996
928014
926190
934602
942967
941138
936990
932875
928801
924773
920779
918652
925470
927811
924866
921833
918900
923854
929456
935032
940520
945540
1.02939e+06
1.1318e+06
1.23489e+06
1.33828e+06
1.44169e+06
1.54492e+06
1.64781e+06
1.74061e+06
1.83084e+06
1.92232e+06
2.03166e+06
2.12239e+06
2.20324e+06
2.28744e+06
2.35895e+06
2.42187e+06
2.47903e+06
2.54423e+06
4.47308e+06
5.80152e+06
5.66921e+06
5.52811e+06
5.39698e+06
5.27233e+06
5.15248e+06
5.03874e+06
4.93029e+06
4.82699e+06
4.72877e+06
4.63462e+06
4.2725e+06
2.95512e+06
1.51544e+06
983636
960794
936399
923508
920997
926765
939285
1.0141e+06
1.08887e+06
1.10495e+06
1.12302e+06
1.14266e+06
1.16332e+06
1.18474e+06
1.20632e+06
1.22775e+06
1.24872e+06
1.26926e+06
1.28916e+06
1.30833e+06
1.32658e+06
1.34379e+06
1.34649e+06
1.33458e+06
1.32288e+06
1.31165e+06
1.21253e+06
1.01535e+06
1.00267e+06
998005
993388
988818
984286
979790
975337
970929
966565
962235
957936
953677
949462
945290
941149
937046
932966
928964
929099
937790
946223
941963
937794
933631
929517
925441
921415
917431
923339
931916
972413
1.05774e+06
1.15053e+06
1.24692e+06
1.34367e+06
1.44055e+06
1.54036e+06
1.64681e+06
1.75681e+06
1.87792e+06
1.98575e+06
2.08889e+06
2.17974e+06
2.25201e+06
2.32271e+06