/*--------------------------------*- C++ -*----------------------------------*\
| =========                 |                                                 |
| \\      /  F ield         | foam-extend: Open Source CFD                    |
|  \\    /   O peration     | Version:     4.1                                |
|   \\  /    A nd           | Web:         http://www.foam-extend.org         |
|    \\/     M anipulation  |                                                 |
\*---------------------------------------------------------------------------*/
FoamFile
{
    version     2.0;
    format      ascii;
    class       volScalarField;
    location    "3";
    object      sigmaEq;
}
// * * * * * * * * * * * * * * * * * * * * * * * * * * * * * * * * * * * * * //

dimensions      [1 -1 -2 0 0 0 0];

internalField   nonuniform List<scalar> 
100000
(
1.04379e+06
1.98671e+06
1.92475e+06
1.853e+06
1.78822e+06
1.72576e+06
1.72439e+06
1.73129e+06
1.67861e+06
1.56354e+06
1.40508e+06
1.30889e+06
1.27136e+06
1.23589e+06
1.20235e+06
1.16958e+06
1.13851e+06
1.10927e+06
1.0884e+06
1.1971e+06
1.29668e+06
1.262e+06
1.22969e+06
1.19875e+06
1.16889e+06
1.1404e+06
1.11345e+06
1.08792e+06
1.06371e+06
1.04073e+06
1.01857e+06
995677
973287
951859
931058
911210
752921
628685
610423
608446
606520
604650
602832
601050
599306
597587
595906
594251
592638
591052
589509
587976
586482
584995
583533
582095
580681
579302
577926
576578
575247
573940
572653
571388
570144
568930
567446
565771
564407
563260
562135
561021
559928
558867
557821
556797
555790
554799
553827
552876
551944
551032
550143
549273
548423
547592
540332
526628
506808
490883
481592
479208
478451
477488
476244
474631
472078
468501
464018
457202
1.04677e+06
1.9858e+06
1.92382e+06
1.85232e+06
1.78732e+06
1.72489e+06
1.67769e+06
1.68109e+06
1.6524e+06
1.48115e+06
1.34528e+06
1.3054e+06
1.26706e+06
1.23011e+06
1.19578e+06
1.16254e+06
1.13068e+06
1.10066e+06
1.07188e+06
1.07062e+06
1.17225e+06
1.23904e+06
1.20433e+06
1.17174e+06
1.1404e+06
1.11016e+06
1.08127e+06
1.05395e+06
1.02781e+06
1.00295e+06
981903
962623
923809
919409
898783
879180
690518
554470
541078
539927
538824
537770
536760
535781
534849
533949
533071
532206
531376
530558
529770
528992
528240
527490
526744
526024
525314
524614
523909
523219
522543
521878
521218
520572
519940
519312
518685
518468
518520
518535
518516
518466
518398
518305
518182
518033
517855
517654
517431
517188
516928
516650
516355
516037
508767
494304
477432
467173
462392
461500
460521
459446
458266
456955
455528
453918
452113
450777
448461
448326
1.05375e+06
1.98687e+06
1.92632e+06
1.85619e+06
1.79244e+06
1.7317e+06
1.67373e+06
1.64237e+06
1.52704e+06
1.39283e+06
1.33836e+06
1.30059e+06
1.263e+06
1.22634e+06
1.19221e+06
1.15936e+06
1.12802e+06
1.09845e+06
1.0702e+06
1.04296e+06
1.05403e+06
1.13931e+06
1.18391e+06
1.15115e+06
1.11987e+06
1.08969e+06
1.06059e+06
1.03321e+06
1.00716e+06
982259
958511
936533
915200
894430
874871
856225
642787
505668
499818
501182
502515
503796
505028
506211
507358
508445
509483
510462
511398
512266
513091
513855
514560
515208
515804
516366
516872
517324
517725
518088
518408
518685
518924
519129
519301
519429
519516
519569
519582
519559
519501
519412
519304
519165
518998
518803
518574
518319
518039
517736
517406
517043
508643
492315
475993
467517
464555
463763
462915
462002
461020
459963
458833
457613
456339
454947
453484
452384
450200
450634
1.0913e+06
2.01661e+06
1.95641e+06
1.8877e+06
1.82527e+06
1.76563e+06
1.70836e+06
1.56717e+06
1.40767e+06
1.36263e+06
1.33755e+06
1.2977e+06
1.26066e+06
1.22427e+06
1.19018e+06
1.1579e+06
1.1267e+06
1.09755e+06
1.06973e+06
1.04254e+06
1.01737e+06
1.0308e+06
1.10647e+06
1.14323e+06
1.11291e+06
1.08415e+06
1.05637e+06
1.03011e+06
1.00524e+06
981480
958738
937048
916256
895999
876594
858075
627544
503289
501422
502785
504115
505389
506617
507791
508917
509978
510999
511959
512876
513731
514535
515278
515950
516578
517156
517690
518167
518593
518972
519308
519596
519843
520060
520235
520373
520473
520528
520548
520523
520457
520362
520233
520081
519898
519683
519435
519154
518838
518492
518128
509233
491964
476010
468370
466629
465960
465209
464405
463552
462649
461694
460685
459628
458515
457392
456200
455018
454195
455862
470583
3.45408e+06
2.0378e+06
1.96963e+06
1.89901e+06
1.8349e+06
1.774e+06
1.64799e+06
1.45385e+06
1.34399e+06
1.32903e+06
1.32568e+06
1.29637e+06
1.2594e+06
1.22367e+06
1.18958e+06
1.15753e+06
1.12666e+06
1.09724e+06
1.0699e+06
1.04303e+06
1.01747e+06
993780
1.00241e+06
1.07277e+06
1.11187e+06
1.08326e+06
1.05575e+06
1.02971e+06
1.00509e+06
981575
959070
937556
917038
897156
877960
859588
614846
502561
502932
504288
505607
506874
508099
509261
510373
511418
512420
513363
514256
515094
515868
516586
517235
517840
518396
518901
519354
519754
520105
520409
520674
520894
521078
521223
521326
521397
521417
521394
521330
521229
521097
520928
520731
520500
520238
519939
519602
519219
510397
492898
477131
469654
468621
467964
467303
466643
465895
465086
464263
463395
462492
461553
460588
459592
458608
464217
477056
498478
535930
590968
8.88729e+06
7.34981e+06
3.82296e+06
1.89234e+06
1.83563e+06
1.73588e+06
1.52967e+06
1.38587e+06
1.34326e+06
1.3028e+06
1.29119e+06
1.28778e+06
1.25797e+06
1.22263e+06
1.18879e+06
1.1568e+06
1.12627e+06
1.09697e+06
1.06958e+06
1.04301e+06
1.01755e+06
993932
971180
968138
1.03223e+06
1.08171e+06
1.0547e+06
1.02901e+06
1.00476e+06
981533
959220
937826
917510
898012
879151
860977
607557
503022
504330
505676
506985
508244
509463
510614
511716
512754
513738
514666
515534
516353
517096
517785
518414
518992
519527
520007
520431
520801
521124
521399
521636
521831
521980
522098
522172
522205
522187
522122
522019
521884
521710
521497
521255
520981
520679
520330
512142
494853
479124
471282
470498
469940
469312
468620
468013
467380
466591
465804
464997
464178
463327
462455
471329
485653
512767
553767
584152
604200
616686
625306
1.00406e+07
1.1521e+07
9.94131e+06
7.09126e+06
4.05627e+06
1.77413e+06
1.43043e+06
1.38524e+06
1.34253e+06
1.30194e+06
1.26413e+06
1.25269e+06
1.25002e+06
1.22126e+06
1.1876e+06
1.15595e+06
1.12552e+06
1.09621e+06
1.06902e+06
1.04287e+06
1.0175e+06
993712
970962
949458
929080
985827
1.04669e+06
1.02793e+06
1.00384e+06
981071
959202
938052
917842
898546
879972
854363
605004
504258
505655
506995
508295
509536
510735
511871
512953
513979
514942
515857
516704
517498
518215
518874
519485
520039
520548
520998
521395
521737
522034
522281
522484
522651
522771
522853
522897
522890
522833
522735
522595
522422
522205
521950
521663
521342
514405
497787
481846
473128
472236
471489
471185
470582
470024
469326
468795
467779
467350
466534
465783
478501
494191
526231
569300
595919
617969
625770
622799
619549
616943
621310
9.75789e+06
1.13439e+07
1.14032e+07
1.13892e+07
9.95838e+06
7.23111e+06
3.86804e+06
1.57991e+06
1.34169e+06
1.30083e+06
1.26312e+06
1.2266e+06
1.21432e+06
1.21206e+06
1.1862e+06
1.15464e+06
1.1246e+06
1.0955e+06
1.06816e+06
1.0421e+06
1.01702e+06
993481
970850
949294
928767
909326
933948
987902
1.00286e+06
980152
958626
937922
918017
898972
880636
843069
599961
505495
506889
508222
509514
510743
511921
513041
514097
515104
516046
516942
517764
518528
519224
519858
520446
520973
521459
521882
522248
522559
522825
523052
523226
523361
523453
523497
523501
523458
523361
523226
523050
522839
522585
522289
517238
501656
485363
475342
473772
473322
472823
472328
471788
471186
470613
470027
469315
471757
485957
502993
540155
584792
606815
630212
633498
630792
611324
563812
526873
500921
482349
499841
9.09328e+06
1.06059e+07
1.06403e+07
1.05815e+07
1.0598e+07
1.08229e+07
9.64827e+06
6.97378e+06
4.05216e+06
1.93842e+06
1.26181e+06
1.22568e+06
1.19097e+06
1.17607e+06
1.17357e+06
1.15317e+06
1.12331e+06
1.09432e+06
1.06719e+06
1.04138e+06
1.0164e+06
992863
970364
948879
928385
909053
890566
877725
924708
970040
957983
937541
917884
899030
880887
833884
593415
506618
508007
509339
510622
511847
513005
514111
515145
516132
517052
517920
518718
519451
520127
520735
521299
521798
522266
522649
522980
523275
523517
523706
523856
523956
524015
524030
523993
523910
523778
523607
523399
523152
520772
506532
489696
477945
474956
464219
456594
452206
451145
453370
458756
467188
487624
512703
537311
578419
620196
646154
673596
733105
796644
863120
931681
992061
1.04629e+06
1.11684e+06
1.18961e+06
1.26356e+06
1.33514e+06
1.43788e+06
8.16871e+06
9.27165e+06
9.22064e+06
9.07017e+06
9.08814e+06
9.3008e+06
9.596e+06
9.84347e+06
8.86428e+06
7.1043e+06
4.70987e+06
2.64917e+06
1.46503e+06
1.18323e+06
1.14023e+06
1.13518e+06
1.12178e+06
1.09315e+06
1.06599e+06
1.04019e+06
1.01534e+06
991959
969754
948525
928124
908766
890310
872605
855764
858388
900129
927606
917682
899094
881098
826716
588312
507656
509031
510356
511620
512836
513977
515068
516086
517050
517951
518791
519566
520269
520918
521497
510335
497475
486305
477033
469870
465054
462690
462941
465803
471321
479431
490030
502995
518169
535350
554362
576919
636341
702077
776584
849619
914484
977359
1.0444e+06
1.11338e+06
1.18316e+06
1.25354e+06
1.32441e+06
1.39558e+06
1.4674e+06
1.51206e+06
1.54591e+06
1.58059e+06
1.62597e+06
1.70286e+06
1.77961e+06
1.85615e+06
1.93241e+06
2.0083e+06
2.08377e+06
2.15875e+06
2.23319e+06
2.27978e+06
2.2716e+06
2.26347e+06
2.25531e+06
2.2472e+06
2.23536e+06
7.03797e+06
8.56466e+06
8.39609e+06
8.32081e+06
8.26164e+06
8.20257e+06
8.19169e+06
8.34256e+06
8.48758e+06
8.62488e+06
8.45382e+06
7.02617e+06
5.6046e+06
3.64568e+06
1.99967e+06
1.1971e+06
1.23297e+06
1.73067e+06
1.64264e+06
1.56876e+06
1.50273e+06
1.44395e+06
1.39191e+06
1.34614e+06
1.30609e+06
1.27134e+06
1.24147e+06
1.21614e+06
1.19512e+06
1.17815e+06
1.15319e+06
1.11274e+06
1.10362e+06
1.09211e+06
1.05871e+06
994851
744197
677210
672305
671360
674082
680233
689664
702226
717873
736427
757913
782136
809075
838704
870748
902871
937902
976757
1.01803e+06
1.06132e+06
1.28622e+06
1.15377e+06
1.20253e+06
1.25295e+06
1.30483e+06
1.35808e+06
1.4126e+06
1.46831e+06
1.52502e+06
1.58267e+06
1.6412e+06
1.71522e+06
1.80498e+06
1.89825e+06
1.98401e+06
2.05124e+06
2.11882e+06
2.18669e+06
2.25394e+06
2.28478e+06
2.3158e+06
2.34695e+06
2.37821e+06
2.40955e+06
2.44094e+06
2.43573e+06
2.40372e+06
2.37786e+06
2.36854e+06
2.35936e+06
2.3503e+06
2.34138e+06
2.24142e+06
1.9725e+06
1.707e+06
1.44589e+06
1.19104e+06
946028
719219
530104
430011
474218
628442
873281
4.9189e+06
7.52365e+06
8.13114e+06
8.21102e+06
8.1611e+06
8.11052e+06
8.06753e+06
8.0282e+06
7.99102e+06
7.95618e+06
7.92295e+06
7.89123e+06
7.86135e+06
7.5939e+06
6.29923e+06
5.2094e+06
4.12182e+06
2.62459e+06
1.38792e+06
948417
1.29987e+06
2.04083e+06
2.76288e+06
2.71651e+06
2.67649e+06
2.64237e+06
2.61374e+06
2.5902e+06
2.57153e+06
2.55743e+06
2.54761e+06
2.54171e+06
2.52865e+06
2.48551e+06
2.44918e+06
2.3887e+06
2.14887e+06
2.12198e+06
2.10927e+06
2.1015e+06
2.0984e+06
2.09962e+06
2.10497e+06
2.11412e+06
2.12698e+06
2.14315e+06
2.16256e+06
2.18499e+06
2.21012e+06
2.23802e+06
2.2683e+06
2.30095e+06
2.31118e+06
2.3167e+06
2.32372e+06
2.33236e+06
2.34191e+06
2.35279e+06
2.36517e+06
2.37844e+06
2.39277e+06
2.40813e+06
2.42435e+06
2.44145e+06
2.45933e+06
2.48007e+06
2.53088e+06
2.58272e+06
2.63092e+06
2.61065e+06
2.5786e+06
2.54695e+06
2.5157e+06
2.48485e+06
2.27985e+06
2.04436e+06
1.80997e+06
1.57751e+06
1.3482e+06
1.12364e+06
895892
686512
535904
448249
449496
538673
681752
856777
1.14735e+06
1.44039e+06
1.61054e+06
1.78726e+06
1.96845e+06
2.12557e+06
2.23235e+06
2.33923e+06
2.4474e+06
2.55531e+06
2.66327e+06
3.00216e+06
3.32909e+06
5.38292e+06
6.20182e+06
7.0746e+06
7.61793e+06
8.01863e+06
7.98199e+06
7.9505e+06
7.92017e+06
7.892e+06
7.86488e+06
7.83909e+06
7.81347e+06
7.79077e+06
7.76663e+06
7.74209e+06
7.71878e+06
7.45587e+06
6.46875e+06
5.61635e+06
4.84295e+06
4.00901e+06
2.73122e+06
1.59113e+06
1.04392e+06
932359
1.28044e+06
1.78874e+06
2.31896e+06
2.83274e+06
3.25571e+06
3.24388e+06
3.22619e+06
3.18982e+06
3.15348e+06
3.07504e+06
2.80764e+06
2.77164e+06
2.7376e+06
2.70363e+06
2.66987e+06
2.63623e+06
2.60284e+06
2.56961e+06
2.53661e+06
2.5039e+06
2.47133e+06
2.43919e+06
2.40726e+06
2.37559e+06
2.3444e+06
2.31331e+06
2.28263e+06
2.25228e+06
2.22212e+06
2.19237e+06
2.16296e+06
2.13369e+06
2.10492e+06
2.07645e+06
2.0483e+06
2.02052e+06
1.9931e+06
1.966e+06
1.95595e+06
1.95869e+06
1.8239e+06
1.62519e+06
1.41052e+06
1.19717e+06
990106
794199
619732
506985
628189
691298
748219
825882
919675
1.03429e+06
1.15751e+06
1.25308e+06
1.34946e+06
1.44842e+06
1.54949e+06
1.65228e+06
1.75648e+06
1.86184e+06
1.88259e+06
1.74561e+06
1.61268e+06
1.48437e+06
1.3412e+06
1.16495e+06
1.01257e+06
898767
796363
705679
635759
456030
3.33434e+06
4.93303e+06
4.85427e+06
5.08741e+06
5.53052e+06
6.27302e+06
6.94396e+06
7.31728e+06
7.56595e+06
7.56452e+06
7.55337e+06
7.53071e+06
7.34935e+06
7.16785e+06
6.98829e+06
6.81048e+06
6.63622e+06
6.46414e+06
6.29446e+06
6.15836e+06
6.14087e+06
6.13691e+06
6.03442e+06
5.16647e+06
4.36212e+06
3.63669e+06
3.00162e+06
2.47839e+06
2.10011e+06
1.83938e+06
1.39215e+06
1.37527e+06
1.79669e+06
2.2298e+06
2.32465e+06
2.13491e+06
1.97394e+06
1.94381e+06
1.9136e+06
1.88351e+06
1.85365e+06
1.82397e+06
1.79453e+06
1.76538e+06
1.73636e+06
1.70776e+06
1.67931e+06
1.6512e+06
1.62353e+06
1.59597e+06
1.56888e+06
1.54211e+06
1.51552e+06
1.48935e+06
1.46891e+06
1.45045e+06
1.43249e+06
1.38898e+06
1.31051e+06
1.22916e+06
1.14536e+06
1.05955e+06
973400
897906
823749
750512
738477
706639
661715
641798
643132
663832
702921
758130
667399
563999
530429
519751
529150
554053
588000
632199
685100
744631
809124
877266
948101
1.02087e+06
1.095e+06
1.17008e+06
1.24578e+06
1.36696e+06
1.51061e+06
1.62685e+06
1.68914e+06
1.75094e+06
1.81196e+06
1.87283e+06
1.93169e+06
1.99805e+06
2.18025e+06
4.12553e+06
3.99249e+06
3.83275e+06
3.69184e+06
3.5486e+06
3.36202e+06
3.38165e+06
3.6941e+06
3.91461e+06
3.93383e+06
4.04387e+06
4.07464e+06
3.96595e+06
3.85337e+06
3.73894e+06
3.62493e+06
3.50915e+06
3.39158e+06
3.27322e+06
3.15401e+06
3.07317e+06
3.0541e+06
3.03961e+06
2.98301e+06
2.88775e+06
2.78623e+06
2.68295e+06
2.57865e+06
2.47347e+06
2.33213e+06
2.01887e+06
1.84127e+06
1.47483e+06
1.22602e+06
1.14236e+06
1.22171e+06
1.31673e+06
1.3433e+06
1.34318e+06
1.34326e+06
1.34348e+06
1.3438e+06
1.34436e+06
1.34493e+06
1.34568e+06
1.34661e+06
1.34751e+06
1.34866e+06
1.34989e+06
1.35111e+06
1.35257e+06
1.35406e+06
1.35551e+06
1.35721e+06
1.35896e+06
1.36072e+06
1.3659e+06
1.31773e+06
1.25605e+06
1.1916e+06
1.13103e+06
1.07147e+06
1.00973e+06
934238
849541
882280
955660
1.03081e+06
1.10735e+06
1.18497e+06
1.26342e+06
1.34253e+06
1.42211e+06
1.50202e+06
1.50828e+06
1.5035e+06
1.4988e+06
1.49458e+06
1.49716e+06
1.4967e+06
1.49237e+06
1.55882e+06
1.62533e+06
1.69158e+06
1.75751e+06
1.82305e+06
1.88814e+06
1.95274e+06
2.01681e+06
2.06919e+06
2.12084e+06
2.18098e+06
2.24292e+06
2.30416e+06
2.36471e+06
2.42437e+06
2.48382e+06
2.54109e+06
2.5984e+06
4.70456e+06
5.93719e+06
5.86467e+06
5.79459e+06
5.73797e+06
5.69242e+06
5.65782e+06
5.63359e+06
5.50217e+06
5.16064e+06
4.9133e+06
4.77951e+06
4.47834e+06
4.11982e+06
3.79988e+06
3.59421e+06
3.43855e+06
3.29426e+06
3.16028e+06
3.03593e+06
2.92059e+06
2.81348e+06
2.71397e+06
2.59979e+06
2.53155e+06
2.47787e+06
2.38889e+06
2.31313e+06
2.24702e+06
2.18589e+06
2.12932e+06
2.07736e+06
2.03005e+06
1.98728e+06
1.8428e+06
1.48116e+06
1.4827e+06
1.53082e+06
1.52647e+06
1.52602e+06
1.52537e+06
1.52495e+06
1.52456e+06
1.52436e+06
1.52431e+06
1.52425e+06
1.52447e+06
1.52474e+06
1.52505e+06
1.52562e+06
1.52621e+06
1.52682e+06
1.52764e+06
1.52847e+06
1.52389e+06
1.51767e+06
1.51144e+06
1.53193e+06
1.56802e+06
1.56232e+06
1.56731e+06
1.57249e+06
1.57735e+06
1.57101e+06
1.56482e+06
1.55879e+06
1.55289e+06
1.54712e+06
1.54148e+06
1.53596e+06
1.53055e+06
1.52524e+06
1.55381e+06
1.62181e+06
1.68968e+06
1.75739e+06
1.82488e+06
1.89211e+06
1.95905e+06
2.02795e+06
2.10188e+06
2.15622e+06
2.21442e+06
2.27948e+06
2.34411e+06
2.40827e+06
2.47192e+06
2.53503e+06
2.59756e+06
2.65947e+06
2.72075e+06
2.73256e+06
2.72121e+06
2.70994e+06
2.69875e+06
2.68767e+06
2.67664e+06
2.66578e+06
2.65481e+06
2.64077e+06
5.06972e+06
6.22193e+06
6.13291e+06
6.03361e+06
5.94226e+06
5.85476e+06
5.77117e+06
5.69124e+06
5.6151e+06
5.54234e+06
5.4722e+06
5.29942e+06
5.01348e+06
4.74602e+06
4.57652e+06
4.46145e+06
4.27322e+06
4.06012e+06
3.86007e+06
3.67245e+06
3.533e+06
3.46048e+06
3.39096e+06
3.3245e+06
3.26109e+06
3.16645e+06
3.0949e+06
3.03572e+06
2.95432e+06
2.87925e+06
2.82593e+06
2.77517e+06
2.7266e+06
2.68022e+06
2.34945e+06
1.83254e+06
1.76173e+06
1.65221e+06
1.61942e+06
1.61409e+06
1.60853e+06
1.60295e+06
1.59727e+06
1.59137e+06
1.58556e+06
1.57958e+06
1.57349e+06
1.56752e+06
1.56141e+06
1.55526e+06
1.54919e+06
1.54298e+06
1.53673e+06
1.53056e+06
1.52433e+06
1.51806e+06
1.51184e+06
1.50542e+06
1.56573e+06
1.57581e+06
1.58118e+06
1.58089e+06
1.59133e+06
1.65924e+06
1.72713e+06
1.79497e+06
1.86273e+06
1.93037e+06
1.99786e+06
2.06516e+06
2.13222e+06
2.19458e+06
2.25492e+06
2.31957e+06
2.38523e+06
2.4506e+06
2.51565e+06
2.58036e+06
2.64469e+06
2.70861e+06
2.77614e+06
2.84477e+06
2.83293e+06
2.8209e+06
2.80894e+06
2.79706e+06
2.78526e+06
2.77355e+06
2.76191e+06
2.75035e+06
2.73887e+06
2.72747e+06
2.71615e+06
2.70491e+06
2.69375e+06
2.68271e+06
2.67173e+06
2.66094e+06
2.65005e+06
2.63616e+06
5.09582e+06
6.2591e+06
6.16719e+06
6.0657e+06
5.97151e+06
5.88208e+06
5.79615e+06
5.71409e+06
5.63613e+06
5.56162e+06
5.48976e+06
5.42137e+06
5.35507e+06
5.29219e+06
5.23146e+06
5.04685e+06
4.82085e+06
4.60828e+06
4.4083e+06
4.24827e+06
4.14735e+06
4.02676e+06
3.8641e+06
3.71102e+06
3.56711e+06
3.43191e+06
3.30461e+06
3.15775e+06
3.02109e+06
2.92131e+06
2.85627e+06
2.77532e+06
2.72003e+06
2.67323e+06
2.28252e+06
1.8043e+06
1.68948e+06
1.62446e+06
1.61918e+06
1.61387e+06
1.60841e+06
1.60274e+06
1.59714e+06
1.59131e+06
1.58538e+06
1.57825e+06
1.56598e+06
1.55335e+06
1.54051e+06
1.52721e+06
1.51363e+06
1.49983e+06
1.48571e+06
1.47134e+06
1.45681e+06
1.44206e+06
1.4271e+06
1.42478e+06
1.45521e+06
1.53172e+06
1.59589e+06
1.66043e+06
1.72552e+06
1.79777e+06
1.87231e+06
1.94958e+06
2.02944e+06
2.11171e+06
2.19623e+06
2.28284e+06
2.37138e+06
2.46173e+06
2.5186e+06
2.53622e+06
2.55564e+06
2.57675e+06
2.59949e+06
2.62374e+06
2.64944e+06
2.6765e+06
2.70488e+06
2.74041e+06
2.76465e+06
2.77102e+06
2.7789e+06
2.78819e+06
2.77987e+06
2.76816e+06
2.75652e+06
2.74497e+06
2.73351e+06
2.72213e+06
2.71086e+06
2.69967e+06
2.68857e+06
2.67758e+06
2.66665e+06
2.6559e+06
2.64507e+06
2.6313e+06
5.12099e+06
6.29521e+06
6.20032e+06
6.09646e+06
5.99996e+06
5.90807e+06
5.82018e+06
5.73653e+06
5.65619e+06
5.57989e+06
5.50651e+06
5.43683e+06
5.36879e+06
5.30405e+06
5.24179e+06
5.18194e+06
5.12438e+06
5.06879e+06
5.01497e+06
4.96295e+06
4.86548e+06
4.69625e+06
4.53685e+06
4.3869e+06
4.24588e+06
4.11343e+06
3.98873e+06
3.87174e+06
3.76798e+06
3.68322e+06
3.57504e+06
3.46106e+06
3.36016e+06
2.94579e+06
2.0625e+06
1.58065e+06
1.47259e+06
1.46632e+06
1.45919e+06
1.45134e+06
1.44303e+06
1.43398e+06
1.42442e+06
1.41446e+06
1.40386e+06
1.39288e+06
1.38163e+06
1.36986e+06
1.3578e+06
1.34548e+06
1.33278e+06
1.31982e+06
1.30667e+06
1.29325e+06
1.27961e+06
1.2658e+06
1.2706e+06
1.27851e+06
1.27772e+06
1.33612e+06
1.39873e+06
1.46475e+06
1.51704e+06
1.51496e+06
1.51577e+06
1.51933e+06
1.52551e+06
1.53418e+06
1.54521e+06
1.55846e+06
1.57385e+06
1.59128e+06
1.61061e+06
1.63177e+06
1.65466e+06
1.67919e+06
1.70528e+06
1.73284e+06
1.76181e+06
1.79214e+06
1.82373e+06
1.85705e+06
1.89652e+06
1.91937e+06
1.93087e+06
1.9443e+06
1.95979e+06
1.97574e+06
1.9927e+06
2.01086e+06
2.0302e+06
2.05068e+06
2.07226e+06
2.09492e+06
2.11859e+06
2.14341e+06
2.16905e+06
2.19574e+06
2.22426e+06
2.25524e+06
5.14559e+06
6.33019e+06
6.23236e+06
6.12584e+06
6.02733e+06
5.93279e+06
5.84325e+06
5.75751e+06
5.67553e+06
5.59734e+06
5.52195e+06
5.45064e+06
5.38155e+06
5.31559e+06
5.25194e+06
5.19062e+06
5.13141e+06
5.07441e+06
5.0195e+06
4.96652e+06
4.91524e+06
4.8655e+06
4.81733e+06
4.77074e+06
4.72568e+06
4.68202e+06
4.63957e+06
4.59809e+06
4.55803e+06
4.50718e+06
4.0945e+06
3.57635e+06
2.88385e+06
2.18464e+06
1.41675e+06
1.2795e+06
1.26368e+06
1.27268e+06
1.27081e+06
1.26371e+06
1.25608e+06
1.24798e+06
1.23918e+06
1.23e+06
1.22041e+06
1.2115e+06
1.2071e+06
1.20271e+06
1.1982e+06
1.19369e+06
1.18922e+06
1.18466e+06
1.18007e+06
1.1755e+06
1.17301e+06
1.19076e+06
1.20873e+06
1.21303e+06
1.20807e+06
1.20311e+06
1.19817e+06
1.19322e+06
1.18829e+06
1.18336e+06
1.17846e+06
1.17357e+06
1.1687e+06
1.16385e+06
1.15903e+06
1.15423e+06
1.14946e+06
1.14471e+06
1.13999e+06
1.1353e+06
1.13065e+06
1.12603e+06
1.12143e+06
1.11685e+06
1.11228e+06
1.10775e+06
1.10326e+06
1.09881e+06
1.10518e+06
1.12968e+06
1.13329e+06
1.12928e+06
1.14308e+06
1.16139e+06
1.18091e+06
1.20164e+06
1.22354e+06
1.24657e+06
1.27067e+06
1.29584e+06
1.322e+06
1.34929e+06
1.37745e+06
1.38814e+06
1.38075e+06
1.35981e+06
5.16986e+06
6.364e+06
6.26344e+06
6.15426e+06
6.05364e+06
5.95693e+06
5.865e+06
5.77727e+06
5.69381e+06
5.61375e+06
5.53664e+06
5.4638e+06
5.39314e+06
5.32566e+06
5.26066e+06
5.19813e+06
5.13775e+06
5.07969e+06
5.02374e+06
4.96974e+06
4.91753e+06
4.86687e+06
4.81778e+06
4.77019e+06
4.72442e+06
4.67991e+06
4.63704e+06
4.46424e+06
3.93442e+06
3.27145e+06
2.58711e+06
2.07362e+06
1.64836e+06
1.48812e+06
1.16683e+06
1.16856e+06
1.18039e+06
1.19127e+06
1.20168e+06
1.21154e+06
1.22066e+06
1.22783e+06
1.22368e+06
1.21935e+06
1.21507e+06
1.21074e+06
1.20627e+06
1.20183e+06
1.1974e+06
1.19287e+06
1.18834e+06
1.18384e+06
1.17929e+06
1.18149e+06
1.19994e+06
1.21837e+06
1.2166e+06
1.21163e+06
1.20667e+06
1.20171e+06
1.19675e+06
1.19181e+06
1.18687e+06
1.18195e+06
1.17705e+06
1.17217e+06
1.1673e+06
1.16245e+06
1.15762e+06
1.15282e+06
1.14804e+06
1.14327e+06
1.13853e+06
1.13382e+06
1.12916e+06
1.12453e+06
1.11995e+06
1.11539e+06
1.11086e+06
1.10635e+06
1.10187e+06
1.09741e+06
1.06574e+06
1.03527e+06
1.01776e+06
977644
934206
891727
850264
809884
770658
732674
696027
660814
627147
595118
566585
546949
530654
536904
5.19359e+06
6.3965e+06
6.29333e+06
6.18182e+06
6.07897e+06
5.98013e+06
5.88603e+06
5.79631e+06
5.71106e+06
5.62952e+06
5.55065e+06
5.47588e+06
5.4038e+06
5.33517e+06
5.26892e+06
5.20513e+06
5.14354e+06
5.08426e+06
5.02715e+06
4.97207e+06
4.91894e+06
4.86735e+06
4.81744e+06
4.76878e+06
4.72232e+06
4.35236e+06
3.71675e+06
2.92153e+06
2.24213e+06
1.75441e+06
1.60817e+06
1.59788e+06
1.57944e+06
1.31714e+06
1.15688e+06
1.15371e+06
1.1505e+06
1.1472e+06
1.15328e+06
1.1632e+06
1.1725e+06
1.18098e+06
1.18922e+06
1.19699e+06
1.20424e+06
1.20958e+06
1.20521e+06
1.20073e+06
1.19626e+06
1.19179e+06
1.18725e+06
1.18269e+06
1.18918e+06
1.20829e+06
1.22488e+06
1.21991e+06
1.21494e+06
1.20997e+06
1.205e+06
1.20003e+06
1.19507e+06
1.19013e+06
1.18518e+06
1.18025e+06
1.17534e+06
1.17046e+06
1.16559e+06
1.15032e+06
1.09876e+06
1.04821e+06
998713
950311
903076
857082
812413
769176
727498
687550
649507
613564
579953
545033
517311
494726
489495
493250
478826
465448
456135
450970
449956
452996
459867
470279
483798
500217
518930
528812
527551
537059
5.21687e+06
6.42755e+06
6.32176e+06
6.20806e+06
6.10292e+06
6.00196e+06
5.90646e+06
5.81446e+06
5.72718e+06
5.64385e+06
5.56367e+06
5.48756e+06
5.41409e+06
5.34382e+06
5.27598e+06
5.21077e+06
5.14795e+06
5.08753e+06
5.02942e+06
4.97341e+06
4.91946e+06
4.86695e+06
4.8164e+06
4.33323e+06
3.54505e+06
2.68574e+06
2.02732e+06
1.63908e+06
1.62803e+06
1.6171e+06
1.60637e+06
1.59596e+06
1.51976e+06
1.1749e+06
1.15568e+06
1.15257e+06
1.14926e+06
1.14593e+06
1.14248e+06
1.1389e+06
1.13531e+06
1.1331e+06
1.14145e+06
1.14936e+06
1.15676e+06
1.16343e+06
1.16988e+06
1.17605e+06
1.18182e+06
1.18725e+06
1.18587e+06
1.19599e+06
1.21576e+06
1.21602e+06
1.15856e+06
1.10228e+06
1.04722e+06
993445
941003
889996
840527
792725
746732
702748
660990
621743
583601
547031
520580
494945
473841
457690
446823
441431
441519
446899
457209
471955
490585
512527
537231
564210
573164
571444
569730
557644
548237
546381
544474
542549
540620
538705
536794
534904
532971
531110
529223
530523
538558
553058
5.24008e+06
6.45736e+06
6.34911e+06
6.23306e+06
6.12561e+06
6.02279e+06
5.9253e+06
5.83146e+06
5.74264e+06
5.6577e+06
5.57572e+06
5.49789e+06
5.42296e+06
5.35139e+06
5.28244e+06
5.21608e+06
5.1521e+06
5.09064e+06
5.03158e+06
4.97449e+06
4.91958e+06
4.41401e+06
3.50915e+06
2.5741e+06
1.89839e+06
1.66125e+06
1.64941e+06
1.63781e+06
1.62644e+06
1.61534e+06
1.60423e+06
1.59372e+06
1.37094e+06
1.15835e+06
1.15425e+06
1.15114e+06
1.11809e+06
1.07259e+06
1.02788e+06
983979
940908
898807
857678
817604
778692
742339
715003
688309
662326
636677
619859
608049
586106
554179
531580
504836
481317
463816
452752
448348
450541
458996
473151
492313
515735
542693
572532
597053
595406
593753
592095
590429
588757
587077
585384
583682
581971
580263
578562
576862
575156
573443
571723
569999
568273
566549
553759
544811
542455
540559
538659
536765
534870
532993
531080
531254
537790
545991
552304
556414
5.26275e+06
6.48633e+06
6.37551e+06
6.25699e+06
6.14768e+06
6.04248e+06
5.94331e+06
5.84793e+06
5.75709e+06
5.67015e+06
5.58683e+06
5.50774e+06
5.43162e+06
5.35874e+06
5.28843e+06
5.22077e+06
5.15556e+06
5.09296e+06
5.0329e+06
4.58221e+06
3.55567e+06
2.47779e+06
1.69743e+06
1.48821e+06
1.43401e+06
1.38146e+06
1.33054e+06
1.28119e+06
1.23332e+06
1.18726e+06
1.14284e+06
1.02755e+06
653395
552900
526114
501252
483712
470119
459301
453031
451353
454177
461291
472371
487034
504847
525400
548298
573188
590898
602733
624617
654794
676304
665451
655636
645509
635291
625449
615962
607018
605424
603817
602202
600572
598940
597296
595644
593977
592302
590624
588941
587257
585567
583872
582175
580471
578761
577047
575332
573615
571899
570186
568474
566758
565037
563315
550286
541532
538534
536658
532373
516054
501856
495951
494072
491398
482722
475022
486520
5.28404e+06
6.51413e+06
6.40061e+06
6.28003e+06
6.16862e+06
6.06128e+06
5.96034e+06
5.84754e+06
5.71314e+06
5.58369e+06
5.45854e+06
5.33833e+06
5.22224e+06
5.11026e+06
5.00167e+06
4.89662e+06
4.79485e+06
4.2763e+06
3.23286e+06
2.00484e+06
1.13856e+06
977886
940448
906629
876998
851498
829993
812161
798847
789237
783158
615007
654415
692199
727795
763989
774104
772428
770727
768957
767129
765257
763339
761376
759373
757337
755261
753152
739782
725019
719618
717631
715620
713589
711540
702945
691491
680420
669710
659369
650286
641828
632470
623420
597918
566864
538983
518892
503326
489500
477383
466935
458108
450847
445091
440766
437785
436063
435506
436016
437497
439855
442993
446816
451236
456180
461578
467361
491814
523018
538753
544644
548361
558616
568970
578458
592145
606049
619315
634077
5.26442e+06
6.44859e+06
6.27743e+06
6.0998e+06
5.93321e+06
5.77248e+06
5.60866e+06
5.43121e+06
5.27192e+06
5.13723e+06
5.00726e+06
4.88277e+06
4.76287e+06
4.64731e+06
4.53528e+06
4.08611e+06
2.96123e+06
1.65952e+06
946905
981805
967637
953812
940819
928366
916601
905007
894659
884170
873840
864770
816176
746099
779050
777593
776103
774495
772918
771279
769482
767685
765798
763888
761924
759927
757888
755813
753704
739710
724666
677418
634705
595953
561315
530953
505023
483644
466882
454715
447027
443595
444117
450019
460910
474207
493872
516107
538126
561838
587371
613744
640531
667503
694488
721338
744633
761532
778065
794204
809947
825299
840255
854818
868986
882773
896171
909180
921793
934020
945872
979789
1.01161e+06
1.0214e+06
1.00745e+06
993420
990070
986788
983518
980253
977114
973769
4.83785e+06
6.04895e+06
5.87327e+06
5.68903e+06
5.51741e+06
5.35122e+06
5.19351e+06
5.05521e+06
4.948e+06
4.84565e+06
4.74759e+06
4.65429e+06
4.56515e+06
4.32965e+06
3.21503e+06
1.82589e+06
979308
1.00733e+06
991835
976829
962779
949382
936557
924116
913041
901897
891120
881475
871345
861848
724917
780480
778068
776550
774933
773341
770763
769879
707528
647688
594809
549516
512368
483919
464485
454053
450912
461044
478425
509323
535679
564436
595193
627247
660050
693188
726345
759294
791860
823912
855349
886120
916128
945393
952000
947799
943636
947250
954932
962367
969552
976505
983217
989493
995393
1.00136e+06
1.00717e+06
1.01279e+06
1.01819e+06
1.02337e+06
1.02834e+06
1.03309e+06
1.03765e+06
1.03551e+06
1.03148e+06
1.0275e+06
1.02357e+06
1.01967e+06
1.01301e+06
1.00043e+06
1.00003e+06
1.00635e+06
1.02241e+06
1.05632e+06
1.12828e+06
1.20101e+06
1.27355e+06
1.34725e+06
1.42027e+06
1.48888e+06
4.48303e+06
5.82432e+06
5.69114e+06
5.54981e+06
5.41881e+06
5.29272e+06
5.17447e+06
5.06072e+06
4.95237e+06
4.84892e+06
4.74993e+06
4.65572e+06
3.77863e+06
2.25706e+06
1.0481e+06
1.03529e+06
1.0179e+06
1.00143e+06
986318
971989
958034
944616
932320
920123
908750
898523
887795
877896
868818
843963
653628
613537
550401
500688
468402
454506
458466
471412
510987
549828
593212
640014
688695
738167
787711
852214
919144
971065
1.01963e+06
1.01681e+06
1.01195e+06
1.00715e+06
1.0024e+06
997687
993020
988394
983822
979291
974804
970349
965943
961577
957232
952990
948755
944554
940394
936266
932174
928120
924111
920141
916208
912299
912003
918115
924004
929684
935168
940445
956287
983074
1.00949e+06
1.0428e+06
1.13281e+06
1.22322e+06
1.31391e+06
1.40759e+06
1.50127e+06
1.59464e+06
1.69272e+06
1.80929e+06
1.90295e+06
1.98895e+06
2.06304e+06
2.11649e+06
2.15921e+06
2.20267e+06
2.24532e+06
2.30218e+06
4.49994e+06
5.83439e+06
5.7001e+06
5.55752e+06
5.42557e+06
5.29899e+06
5.17946e+06
5.06454e+06
4.95527e+06
4.85112e+06
4.46417e+06
2.94324e+06
1.3973e+06
1.06594e+06
1.04698e+06
1.02858e+06
1.01159e+06
995667
980562
938669
903581
877070
858976
848617
844485
846151
852244
861418
901349
886076
634203
603394
670315
741517
814437
887438
959475
1.03023e+06
1.02976e+06
1.0248e+06
1.01992e+06
1.01509e+06
1.01032e+06
1.00559e+06
1.01636e+06
1.03097e+06
1.02858e+06
1.02355e+06
1.01855e+06
1.01362e+06
1.00874e+06
1.00392e+06
999137
994399
989715
985082
980496
975938
971430
966951
962553
958156
953903
949672
945391
941204
937019
932891
928804
942326
960734
979109
997451
1.01575e+06
1.08521e+06
1.16856e+06
1.2524e+06
1.33645e+06
1.42057e+06
1.50505e+06
1.59024e+06
1.67476e+06
1.75871e+06
1.85674e+06
1.94237e+06
2.00434e+06
2.06729e+06
2.12972e+06
2.19402e+06
2.26444e+06
2.33437e+06
2.39622e+06
2.42571e+06