/*--------------------------------*- C++ -*----------------------------------*\
| =========                 |                                                 |
| \\      /  F ield         | foam-extend: Open Source CFD                    |
|  \\    /   O peration     | Version:     4.1                                |
|   \\  /    A nd           | Web:         http://www.foam-extend.org         |
|    \\/     M anipulation  |                                                 |
\*---------------------------------------------------------------------------*/
FoamFile
{
    version     2.0;
    format      ascii;
    class       volVectorField;
    location    "10";
    object      D_0;
}
// * * * * * * * * * * * * * * * * * * * * * * * * * * * * * * * * * * * * * //

dimensions      [0 1 0 0 0 0 0];

internalField   nonuniform List<vector> 
100000
(
(5.17211e-06 -2.14579e-06 0)
(5.12995e-06 -2.11698e-06 0)
(5.08965e-06 -2.08949e-06 0)
(5.05113e-06 -2.06339e-06 0)
(5.01433e-06 -2.03858e-06 0)
(4.97917e-06 -2.015e-06 0)
(4.94558e-06 -1.99259e-06 0)
(4.91349e-06 -1.9713e-06 0)
(4.88283e-06 -1.95107e-06 0)
(4.85356e-06 -1.93187e-06 0)
(4.82561e-06 -1.91363e-06 0)
(4.79893e-06 -1.89633e-06 0)
(4.77347e-06 -1.87991e-06 0)
(4.74917e-06 -1.86434e-06 0)
(4.726e-06 -1.84958e-06 0)
(4.7039e-06 -1.83559e-06 0)
(4.68284e-06 -1.82234e-06 0)
(4.66278e-06 -1.8098e-06 0)
(4.64368e-06 -1.79794e-06 0)
(4.6255e-06 -1.78673e-06 0)
(4.6082e-06 -1.77614e-06 0)
(4.59176e-06 -1.76615e-06 0)
(4.57615e-06 -1.75673e-06 0)
(4.56132e-06 -1.74786e-06 0)
(4.54727e-06 -1.73951e-06 0)
(4.53394e-06 -1.73166e-06 0)
(4.52133e-06 -1.7243e-06 0)
(4.50941e-06 -1.7174e-06 0)
(4.49814e-06 -1.71095e-06 0)
(4.48751e-06 -1.70493e-06 0)
(4.4775e-06 -1.69931e-06 0)
(4.46809e-06 -1.69409e-06 0)
(4.45925e-06 -1.68925e-06 0)
(4.45096e-06 -1.68477e-06 0)
(4.44321e-06 -1.68064e-06 0)
(4.43598e-06 -1.67684e-06 0)
(4.42925e-06 -1.67337e-06 0)
(4.423e-06 -1.67021e-06 0)
(4.41723e-06 -1.66735e-06 0)
(4.41191e-06 -1.66477e-06 0)
(4.40703e-06 -1.66248e-06 0)
(4.40257e-06 -1.66044e-06 0)
(4.39853e-06 -1.65867e-06 0)
(4.39489e-06 -1.65714e-06 0)
(4.39163e-06 -1.65585e-06 0)
(4.38875e-06 -1.65478e-06 0)
(4.38623e-06 -1.65394e-06 0)
(4.38406e-06 -1.6533e-06 0)
(4.38223e-06 -1.65288e-06 0)
(4.38073e-06 -1.65264e-06 0)
(4.37956e-06 -1.6526e-06 0)
(4.37869e-06 -1.65274e-06 0)
(4.37813e-06 -1.65305e-06 0)
(4.37785e-06 -1.65353e-06 0)
(4.37786e-06 -1.65418e-06 0)
(4.37815e-06 -1.65498e-06 0)
(4.37871e-06 -1.65594e-06 0)
(4.37952e-06 -1.65703e-06 0)
(4.38059e-06 -1.65827e-06 0)
(4.3819e-06 -1.65965e-06 0)
(4.38345e-06 -1.66115e-06 0)
(4.38522e-06 -1.66278e-06 0)
(4.38723e-06 -1.66453e-06 0)
(4.38945e-06 -1.6664e-06 0)
(4.39188e-06 -1.66838e-06 0)
(4.39452e-06 -1.67046e-06 0)
(4.39736e-06 -1.67266e-06 0)
(4.40039e-06 -1.67495e-06 0)
(4.40361e-06 -1.67733e-06 0)
(4.40701e-06 -1.67981e-06 0)
(4.4106e-06 -1.68238e-06 0)
(4.41435e-06 -1.68504e-06 0)
(4.41828e-06 -1.68778e-06 0)
(4.42236e-06 -1.69059e-06 0)
(4.42661e-06 -1.69349e-06 0)
(4.43102e-06 -1.69646e-06 0)
(4.43557e-06 -1.69949e-06 0)
(4.44027e-06 -1.7026e-06 0)
(4.44511e-06 -1.70577e-06 0)
(4.45009e-06 -1.70901e-06 0)
(4.45521e-06 -1.7123e-06 0)
(4.46046e-06 -1.71566e-06 0)
(4.46583e-06 -1.71906e-06 0)
(4.47133e-06 -1.72253e-06 0)
(4.47695e-06 -1.72604e-06 0)
(4.48269e-06 -1.7296e-06 0)
(4.48854e-06 -1.73321e-06 0)
(4.49451e-06 -1.73687e-06 0)
(4.50058e-06 -1.74057e-06 0)
(4.50676e-06 -1.7443e-06 0)
(4.51303e-06 -1.74808e-06 0)
(4.51941e-06 -1.7519e-06 0)
(4.52589e-06 -1.75575e-06 0)
(4.53246e-06 -1.75964e-06 0)
(4.53912e-06 -1.76355e-06 0)
(4.54588e-06 -1.7675e-06 0)
(4.55272e-06 -1.77148e-06 0)
(4.55964e-06 -1.77549e-06 0)
(4.56665e-06 -1.77953e-06 0)
(4.57376e-06 -1.78359e-06 0)
(5.13015e-06 -2.16316e-06 0)
(5.08755e-06 -2.13492e-06 0)
(5.04682e-06 -2.10799e-06 0)
(5.0079e-06 -2.08242e-06 0)
(4.97072e-06 -2.0581e-06 0)
(4.9352e-06 -2.035e-06 0)
(4.90126e-06 -2.01304e-06 0)
(4.86884e-06 -1.99219e-06 0)
(4.83788e-06 -1.97238e-06 0)
(4.80831e-06 -1.95357e-06 0)
(4.78007e-06 -1.93571e-06 0)
(4.75312e-06 -1.91877e-06 0)
(4.7274e-06 -1.9027e-06 0)
(4.70286e-06 -1.88745e-06 0)
(4.67945e-06 -1.87301e-06 0)
(4.65713e-06 -1.85932e-06 0)
(4.63586e-06 -1.84636e-06 0)
(4.61559e-06 -1.8341e-06 0)
(4.59629e-06 -1.8225e-06 0)
(4.57792e-06 -1.81154e-06 0)
(4.56045e-06 -1.8012e-06 0)
(4.54384e-06 -1.79144e-06 0)
(4.52806e-06 -1.78224e-06 0)
(4.51308e-06 -1.77358e-06 0)
(4.49887e-06 -1.76543e-06 0)
(4.4854e-06 -1.75778e-06 0)
(4.47265e-06 -1.75061e-06 0)
(4.46059e-06 -1.74389e-06 0)
(4.4492e-06 -1.73761e-06 0)
(4.43845e-06 -1.73175e-06 0)
(4.42832e-06 -1.72629e-06 0)
(4.4188e-06 -1.72122e-06 0)
(4.40983e-06 -1.71653e-06 0)
(4.40142e-06 -1.71219e-06 0)
(4.39358e-06 -1.70819e-06 0)
(4.38625e-06 -1.70453e-06 0)
(4.37943e-06 -1.70118e-06 0)
(4.37309e-06 -1.69814e-06 0)
(4.36722e-06 -1.6954e-06 0)
(4.36182e-06 -1.69294e-06 0)
(4.35685e-06 -1.69075e-06 0)
(4.35231e-06 -1.68882e-06 0)
(4.34819e-06 -1.68714e-06 0)
(4.34446e-06 -1.68571e-06 0)
(4.34113e-06 -1.68451e-06 0)
(4.33817e-06 -1.68353e-06 0)
(4.33558e-06 -1.68277e-06 0)
(4.33334e-06 -1.68223e-06 0)
(4.33144e-06 -1.68188e-06 0)
(4.32988e-06 -1.68172e-06 0)
(4.32863e-06 -1.68175e-06 0)
(4.3277e-06 -1.68197e-06 0)
(4.32707e-06 -1.68235e-06 0)
(4.32673e-06 -1.6829e-06 0)
(4.32668e-06 -1.68361e-06 0)
(4.32691e-06 -1.68448e-06 0)
(4.3274e-06 -1.6855e-06 0)
(4.32816e-06 -1.68666e-06 0)
(4.32916e-06 -1.68795e-06 0)
(4.33042e-06 -1.68939e-06 0)
(4.33191e-06 -1.69095e-06 0)
(4.33363e-06 -1.69263e-06 0)
(4.33557e-06 -1.69443e-06 0)
(4.33774e-06 -1.69635e-06 0)
(4.34012e-06 -1.69838e-06 0)
(4.3427e-06 -1.70052e-06 0)
(4.34548e-06 -1.70275e-06 0)
(4.34846e-06 -1.70509e-06 0)
(4.35162e-06 -1.70752e-06 0)
(4.35497e-06 -1.71005e-06 0)
(4.3585e-06 -1.71266e-06 0)
(4.3622e-06 -1.71536e-06 0)
(4.36608e-06 -1.71814e-06 0)
(4.37011e-06 -1.721e-06 0)
(4.3743e-06 -1.72393e-06 0)
(4.37865e-06 -1.72694e-06 0)
(4.38315e-06 -1.73001e-06 0)
(4.3878e-06 -1.73316e-06 0)
(4.39259e-06 -1.73637e-06 0)
(4.39752e-06 -1.73964e-06 0)
(4.40258e-06 -1.74297e-06 0)
(4.40777e-06 -1.74636e-06 0)
(4.41309e-06 -1.7498e-06 0)
(4.41854e-06 -1.7533e-06 0)
(4.42411e-06 -1.75685e-06 0)
(4.42979e-06 -1.76044e-06 0)
(4.43559e-06 -1.76409e-06 0)
(4.4415e-06 -1.76777e-06 0)
(4.44751e-06 -1.7715e-06 0)
(4.45364e-06 -1.77528e-06 0)
(4.45986e-06 -1.77909e-06 0)
(4.46619e-06 -1.78293e-06 0)
(4.47261e-06 -1.78682e-06 0)
(4.47912e-06 -1.79073e-06 0)
(4.48573e-06 -1.79468e-06 0)
(4.49242e-06 -1.79866e-06 0)
(4.49921e-06 -1.80267e-06 0)
(4.50607e-06 -1.80671e-06 0)
(4.51302e-06 -1.81078e-06 0)
(4.52006e-06 -1.81487e-06 0)
(5.08789e-06 -2.1804e-06 0)
(5.04486e-06 -2.15276e-06 0)
(5.00372e-06 -2.12639e-06 0)
(4.96442e-06 -2.10136e-06 0)
(4.92687e-06 -2.07755e-06 0)
(4.891e-06 -2.05494e-06 0)
(4.85673e-06 -2.03345e-06 0)
(4.82399e-06 -2.01304e-06 0)
(4.79272e-06 -1.99366e-06 0)
(4.76287e-06 -1.97525e-06 0)
(4.73436e-06 -1.95778e-06 0)
(4.70715e-06 -1.94121e-06 0)
(4.68118e-06 -1.92549e-06 0)
(4.6564e-06 -1.91058e-06 0)
(4.63276e-06 -1.89646e-06 0)
(4.61023e-06 -1.88308e-06 0)
(4.58875e-06 -1.87041e-06 0)
(4.56829e-06 -1.85843e-06 0)
(4.5488e-06 -1.84711e-06 0)
(4.53025e-06 -1.83641e-06 0)
(4.5126e-06 -1.82631e-06 0)
(4.49583e-06 -1.81678e-06 0)
(4.47989e-06 -1.80781e-06 0)
(4.46476e-06 -1.79937e-06 0)
(4.4504e-06 -1.79143e-06 0)
(4.43679e-06 -1.78398e-06 0)
(4.42391e-06 -1.777e-06 0)
(4.41172e-06 -1.77046e-06 0)
(4.4002e-06 -1.76436e-06 0)
(4.38933e-06 -1.75867e-06 0)
(4.37908e-06 -1.75337e-06 0)
(4.36944e-06 -1.74846e-06 0)
(4.36037e-06 -1.74391e-06 0)
(4.35188e-06 -1.73972e-06 0)
(4.34393e-06 -1.73586e-06 0)
(4.3365e-06 -1.73233e-06 0)
(4.32958e-06 -1.72911e-06 0)
(4.32315e-06 -1.7262e-06 0)
(4.3172e-06 -1.72357e-06 0)
(4.3117e-06 -1.72122e-06 0)
(4.30665e-06 -1.71914e-06 0)
(4.30203e-06 -1.71732e-06 0)
(4.29783e-06 -1.71574e-06 0)
(4.29403e-06 -1.71441e-06 0)
(4.29062e-06 -1.7133e-06 0)
(4.28759e-06 -1.71242e-06 0)
(4.28493e-06 -1.71175e-06 0)
(4.28262e-06 -1.71129e-06 0)
(4.28065e-06 -1.71102e-06 0)
(4.27902e-06 -1.71094e-06 0)
(4.27771e-06 -1.71105e-06 0)
(4.27671e-06 -1.71134e-06 0)
(4.27602e-06 -1.71179e-06 0)
(4.27562e-06 -1.71242e-06 0)
(4.27551e-06 -1.7132e-06 0)
(4.27567e-06 -1.71413e-06 0)
(4.27611e-06 -1.71521e-06 0)
(4.2768e-06 -1.71643e-06 0)
(4.27775e-06 -1.71778e-06 0)
(4.27895e-06 -1.71927e-06 0)
(4.28038e-06 -1.72089e-06 0)
(4.28204e-06 -1.72263e-06 0)
(4.28393e-06 -1.72448e-06 0)
(4.28604e-06 -1.72645e-06 0)
(4.28836e-06 -1.72853e-06 0)
(4.29089e-06 -1.73072e-06 0)
(4.29362e-06 -1.73301e-06 0)
(4.29654e-06 -1.73539e-06 0)
(4.29966e-06 -1.73787e-06 0)
(4.30295e-06 -1.74044e-06 0)
(4.30643e-06 -1.74309e-06 0)
(4.31007e-06 -1.74583e-06 0)
(4.31389e-06 -1.74865e-06 0)
(4.31787e-06 -1.75155e-06 0)
(4.32201e-06 -1.75453e-06 0)
(4.32631e-06 -1.75757e-06 0)
(4.33076e-06 -1.76069e-06 0)
(4.33535e-06 -1.76387e-06 0)
(4.34008e-06 -1.76712e-06 0)
(4.34496e-06 -1.77043e-06 0)
(4.34997e-06 -1.77379e-06 0)
(4.35511e-06 -1.77722e-06 0)
(4.36038e-06 -1.7807e-06 0)
(4.36577e-06 -1.78423e-06 0)
(4.37128e-06 -1.78781e-06 0)
(4.37691e-06 -1.79144e-06 0)
(4.38265e-06 -1.79512e-06 0)
(4.38851e-06 -1.79884e-06 0)
(4.39447e-06 -1.8026e-06 0)
(4.40054e-06 -1.8064e-06 0)
(4.4067e-06 -1.81025e-06 0)
(4.41297e-06 -1.81412e-06 0)
(4.41934e-06 -1.81804e-06 0)
(4.4258e-06 -1.82199e-06 0)
(4.43235e-06 -1.82597e-06 0)
(4.43898e-06 -1.82998e-06 0)
(4.44571e-06 -1.83402e-06 0)
(4.45252e-06 -1.83809e-06 0)
(4.4594e-06 -1.84219e-06 0)
(4.46637e-06 -1.8463e-06 0)
(5.04533e-06 -2.19752e-06 0)
(5.00188e-06 -2.17049e-06 0)
(4.96036e-06 -2.14469e-06 0)
(4.92068e-06 -2.12021e-06 0)
(4.88278e-06 -2.09693e-06 0)
(4.84657e-06 -2.07482e-06 0)
(4.81198e-06 -2.05381e-06 0)
(4.77894e-06 -2.03385e-06 0)
(4.74738e-06 -2.0149e-06 0)
(4.71725e-06 -1.99691e-06 0)
(4.68848e-06 -1.97984e-06 0)
(4.66101e-06 -1.96364e-06 0)
(4.6348e-06 -1.94828e-06 0)
(4.6098e-06 -1.93372e-06 0)
(4.58594e-06 -1.91992e-06 0)
(4.5632e-06 -1.90686e-06 0)
(4.54152e-06 -1.8945e-06 0)
(4.52087e-06 -1.8828e-06 0)
(4.5012e-06 -1.87175e-06 0)
(4.48248e-06 -1.86132e-06 0)
(4.46467e-06 -1.85147e-06 0)
(4.44773e-06 -1.84219e-06 0)
(4.43164e-06 -1.83345e-06 0)
(4.41636e-06 -1.82522e-06 0)
(4.40186e-06 -1.8175e-06 0)
(4.38812e-06 -1.81026e-06 0)
(4.3751e-06 -1.80347e-06 0)
(4.36279e-06 -1.79712e-06 0)
(4.35115e-06 -1.7912e-06 0)
(4.34016e-06 -1.78568e-06 0)
(4.32981e-06 -1.78055e-06 0)
(4.32006e-06 -1.77579e-06 0)
(4.31089e-06 -1.7714e-06 0)
(4.30229e-06 -1.76735e-06 0)
(4.29424e-06 -1.76364e-06 0)
(4.28672e-06 -1.76024e-06 0)
(4.27971e-06 -1.75715e-06 0)
(4.2732e-06 -1.75436e-06 0)
(4.26716e-06 -1.75185e-06 0)
(4.26158e-06 -1.74962e-06 0)
(4.25645e-06 -1.74765e-06 0)
(4.25175e-06 -1.74594e-06 0)
(4.24747e-06 -1.74447e-06 0)
(4.2436e-06 -1.74323e-06 0)
(4.24012e-06 -1.74222e-06 0)
(4.23701e-06 -1.74143e-06 0)
(4.23428e-06 -1.74085e-06 0)
(4.2319e-06 -1.74047e-06 0)
(4.22987e-06 -1.74029e-06 0)
(4.22817e-06 -1.7403e-06 0)
(4.2268e-06 -1.74048e-06 0)
(4.22574e-06 -1.74084e-06 0)
(4.22498e-06 -1.74137e-06 0)
(4.22452e-06 -1.74207e-06 0)
(4.22435e-06 -1.74291e-06 0)
(4.22445e-06 -1.74391e-06 0)
(4.22483e-06 -1.74505e-06 0)
(4.22547e-06 -1.74634e-06 0)
(4.22636e-06 -1.74776e-06 0)
(4.2275e-06 -1.7493e-06 0)
(4.22887e-06 -1.75098e-06 0)
(4.23048e-06 -1.75277e-06 0)
(4.23232e-06 -1.75468e-06 0)
(4.23437e-06 -1.7567e-06 0)
(4.23664e-06 -1.75883e-06 0)
(4.23911e-06 -1.76107e-06 0)
(4.24178e-06 -1.7634e-06 0)
(4.24465e-06 -1.76583e-06 0)
(4.24771e-06 -1.76836e-06 0)
(4.25095e-06 -1.77097e-06 0)
(4.25437e-06 -1.77367e-06 0)
(4.25797e-06 -1.77645e-06 0)
(4.26173e-06 -1.77932e-06 0)
(4.26566e-06 -1.78226e-06 0)
(4.26975e-06 -1.78527e-06 0)
(4.27399e-06 -1.78836e-06 0)
(4.27839e-06 -1.79151e-06 0)
(4.28292e-06 -1.79473e-06 0)
(4.28761e-06 -1.79802e-06 0)
(4.29243e-06 -1.80136e-06 0)
(4.29738e-06 -1.80477e-06 0)
(4.30247e-06 -1.80823e-06 0)
(4.30768e-06 -1.81174e-06 0)
(4.31302e-06 -1.8153e-06 0)
(4.31848e-06 -1.81892e-06 0)
(4.32405e-06 -1.82258e-06 0)
(4.32974e-06 -1.82629e-06 0)
(4.33554e-06 -1.83005e-06 0)
(4.34145e-06 -1.83384e-06 0)
(4.34746e-06 -1.83768e-06 0)
(4.35357e-06 -1.84155e-06 0)
(4.35979e-06 -1.84546e-06 0)
(4.36609e-06 -1.84941e-06 0)
(4.3725e-06 -1.85339e-06 0)
(4.37899e-06 -1.8574e-06 0)
(4.38557e-06 -1.86144e-06 0)
(4.39223e-06 -1.86551e-06 0)
(4.39898e-06 -1.86961e-06 0)
(4.40581e-06 -1.87374e-06 0)
(4.41272e-06 -1.87788e-06 0)
(5.00248e-06 -2.21452e-06 0)
(4.95863e-06 -2.18811e-06 0)
(4.91673e-06 -2.1629e-06 0)
(4.87669e-06 -2.13898e-06 0)
(4.83845e-06 -2.11623e-06 0)
(4.80192e-06 -2.09463e-06 0)
(4.76702e-06 -2.0741e-06 0)
(4.73368e-06 -2.05461e-06 0)
(4.70185e-06 -2.03611e-06 0)
(4.67145e-06 -2.01854e-06 0)
(4.64243e-06 -2.00187e-06 0)
(4.61472e-06 -1.98606e-06 0)
(4.58828e-06 -1.97106e-06 0)
(4.56306e-06 -1.95686e-06 0)
(4.539e-06 -1.9434e-06 0)
(4.51605e-06 -1.93066e-06 0)
(4.49419e-06 -1.9186e-06 0)
(4.47335e-06 -1.9072e-06 0)
(4.45351e-06 -1.89643e-06 0)
(4.43462e-06 -1.88627e-06 0)
(4.41665e-06 -1.87668e-06 0)
(4.39956e-06 -1.86764e-06 0)
(4.38332e-06 -1.85914e-06 0)
(4.3679e-06 -1.85114e-06 0)
(4.35327e-06 -1.84364e-06 0)
(4.33939e-06 -1.8366e-06 0)
(4.32625e-06 -1.83001e-06 0)
(4.31382e-06 -1.82385e-06 0)
(4.30206e-06 -1.81811e-06 0)
(4.29097e-06 -1.81277e-06 0)
(4.2805e-06 -1.80781e-06 0)
(4.27065e-06 -1.80322e-06 0)
(4.26138e-06 -1.79898e-06 0)
(4.25269e-06 -1.79508e-06 0)
(4.24455e-06 -1.79151e-06 0)
(4.23693e-06 -1.78825e-06 0)
(4.22984e-06 -1.78529e-06 0)
(4.22323e-06 -1.78263e-06 0)
(4.21711e-06 -1.78025e-06 0)
(4.21145e-06 -1.77813e-06 0)
(4.20625e-06 -1.77628e-06 0)
(4.20147e-06 -1.77467e-06 0)
(4.19712e-06 -1.7733e-06 0)
(4.19317e-06 -1.77217e-06 0)
(4.18962e-06 -1.77126e-06 0)
(4.18645e-06 -1.77056e-06 0)
(4.18364e-06 -1.77007e-06 0)
(4.1812e-06 -1.76978e-06 0)
(4.1791e-06 -1.76969e-06 0)
(4.17734e-06 -1.76977e-06 0)
(4.1759e-06 -1.77004e-06 0)
(4.17478e-06 -1.77048e-06 0)
(4.17396e-06 -1.77108e-06 0)
(4.17345e-06 -1.77184e-06 0)
(4.17321e-06 -1.77276e-06 0)
(4.17326e-06 -1.77383e-06 0)
(4.17358e-06 -1.77503e-06 0)
(4.17416e-06 -1.77638e-06 0)
(4.17499e-06 -1.77786e-06 0)
(4.17607e-06 -1.77947e-06 0)
(4.17739e-06 -1.7812e-06 0)
(4.17895e-06 -1.78305e-06 0)
(4.18073e-06 -1.78501e-06 0)
(4.18273e-06 -1.78709e-06 0)
(4.18494e-06 -1.78927e-06 0)
(4.18736e-06 -1.79155e-06 0)
(4.18998e-06 -1.79393e-06 0)
(4.1928e-06 -1.79641e-06 0)
(4.1958e-06 -1.79898e-06 0)
(4.19899e-06 -1.80164e-06 0)
(4.20236e-06 -1.80439e-06 0)
(4.2059e-06 -1.80721e-06 0)
(4.20961e-06 -1.81012e-06 0)
(4.21349e-06 -1.8131e-06 0)
(4.21752e-06 -1.81616e-06 0)
(4.22171e-06 -1.81928e-06 0)
(4.22605e-06 -1.82247e-06 0)
(4.23054e-06 -1.82573e-06 0)
(4.23516e-06 -1.82905e-06 0)
(4.23993e-06 -1.83244e-06 0)
(4.24484e-06 -1.83588e-06 0)
(4.24987e-06 -1.83937e-06 0)
(4.25503e-06 -1.84292e-06 0)
(4.26031e-06 -1.84652e-06 0)
(4.26571e-06 -1.85017e-06 0)
(4.27123e-06 -1.85387e-06 0)
(4.27687e-06 -1.85761e-06 0)
(4.28261e-06 -1.8614e-06 0)
(4.28847e-06 -1.86522e-06 0)
(4.29442e-06 -1.86909e-06 0)
(4.30048e-06 -1.873e-06 0)
(4.30664e-06 -1.87694e-06 0)
(4.31289e-06 -1.88092e-06 0)
(4.31923e-06 -1.88493e-06 0)
(4.32566e-06 -1.88897e-06 0)
(4.33219e-06 -1.89304e-06 0)
(4.33879e-06 -1.89714e-06 0)
(4.34549e-06 -1.90127e-06 0)
(4.35225e-06 -1.90543e-06 0)
(4.3591e-06 -1.9096e-06 0)
(4.95933e-06 -2.23139e-06 0)
(4.9151e-06 -2.20561e-06 0)
(4.87284e-06 -2.181e-06 0)
(4.83246e-06 -2.15766e-06 0)
(4.79389e-06 -2.13546e-06 0)
(4.75705e-06 -2.11437e-06 0)
(4.72185e-06 -2.09434e-06 0)
(4.68824e-06 -2.07533e-06 0)
(4.65614e-06 -2.05727e-06 0)
(4.62548e-06 -2.04014e-06 0)
(4.59622e-06 -2.02388e-06 0)
(4.56828e-06 -2.00846e-06 0)
(4.54163e-06 -1.99384e-06 0)
(4.51619e-06 -1.97999e-06 0)
(4.49193e-06 -1.96688e-06 0)
(4.4688e-06 -1.95446e-06 0)
(4.44674e-06 -1.94272e-06 0)
(4.42573e-06 -1.93162e-06 0)
(4.40572e-06 -1.92114e-06 0)
(4.38667e-06 -1.91125e-06 0)
(4.36855e-06 -1.90192e-06 0)
(4.35131e-06 -1.89314e-06 0)
(4.33494e-06 -1.88488e-06 0)
(4.31938e-06 -1.87711e-06 0)
(4.30462e-06 -1.86983e-06 0)
(4.29062e-06 -1.863e-06 0)
(4.27736e-06 -1.85662e-06 0)
(4.26481e-06 -1.85065e-06 0)
(4.25295e-06 -1.8451e-06 0)
(4.24174e-06 -1.83994e-06 0)
(4.23117e-06 -1.83515e-06 0)
(4.22122e-06 -1.83072e-06 0)
(4.21186e-06 -1.82664e-06 0)
(4.20307e-06 -1.82289e-06 0)
(4.19484e-06 -1.81947e-06 0)
(4.18714e-06 -1.81635e-06 0)
(4.17995e-06 -1.81353e-06 0)
(4.17327e-06 -1.811e-06 0)
(4.16707e-06 -1.80874e-06 0)
(4.16133e-06 -1.80674e-06 0)
(4.15605e-06 -1.805e-06 0)
(4.1512e-06 -1.80351e-06 0)
(4.14678e-06 -1.80225e-06 0)
(4.14276e-06 -1.80122e-06 0)
(4.13914e-06 -1.80041e-06 0)
(4.1359e-06 -1.79981e-06 0)
(4.13303e-06 -1.79941e-06 0)
(4.13052e-06 -1.79921e-06 0)
(4.12836e-06 -1.7992e-06 0)
(4.12653e-06 -1.79937e-06 0)
(4.12504e-06 -1.79971e-06 0)
(4.12385e-06 -1.80023e-06 0)
(4.12298e-06 -1.80091e-06 0)
(4.1224e-06 -1.80174e-06 0)
(4.12211e-06 -1.80273e-06 0)
(4.1221e-06 -1.80386e-06 0)
(4.12236e-06 -1.80514e-06 0)
(4.12288e-06 -1.80655e-06 0)
(4.12366e-06 -1.80809e-06 0)
(4.12469e-06 -1.80975e-06 0)
(4.12596e-06 -1.81154e-06 0)
(4.12746e-06 -1.81345e-06 0)
(4.12918e-06 -1.81547e-06 0)
(4.13113e-06 -1.81759e-06 0)
(4.13329e-06 -1.81983e-06 0)
(4.13565e-06 -1.82216e-06 0)
(4.13822e-06 -1.82459e-06 0)
(4.14098e-06 -1.82712e-06 0)
(4.14393e-06 -1.82974e-06 0)
(4.14707e-06 -1.83244e-06 0)
(4.15039e-06 -1.83523e-06 0)
(4.15387e-06 -1.8381e-06 0)
(4.15753e-06 -1.84105e-06 0)
(4.16135e-06 -1.84407e-06 0)
(4.16534e-06 -1.84717e-06 0)
(4.16947e-06 -1.85033e-06 0)
(4.17376e-06 -1.85357e-06 0)
(4.17819e-06 -1.85686e-06 0)
(4.18277e-06 -1.86022e-06 0)
(4.18748e-06 -1.86364e-06 0)
(4.19233e-06 -1.86712e-06 0)
(4.19731e-06 -1.87065e-06 0)
(4.20242e-06 -1.87423e-06 0)
(4.20765e-06 -1.87786e-06 0)
(4.21298e-06 -1.88154e-06 0)
(4.21846e-06 -1.88527e-06 0)
(4.22404e-06 -1.88905e-06 0)
(4.22973e-06 -1.89287e-06 0)
(4.23553e-06 -1.89673e-06 0)
(4.24143e-06 -1.90063e-06 0)
(4.24743e-06 -1.90457e-06 0)
(4.25353e-06 -1.90855e-06 0)
(4.25972e-06 -1.91255e-06 0)
(4.26601e-06 -1.9166e-06 0)
(4.27238e-06 -1.92067e-06 0)
(4.27885e-06 -1.92477e-06 0)
(4.2854e-06 -1.9289e-06 0)
(4.29203e-06 -1.93306e-06 0)
(4.29874e-06 -1.93725e-06 0)
(4.30553e-06 -1.94144e-06 0)
(4.91589e-06 -2.24813e-06 0)
(4.8713e-06 -2.223e-06 0)
(4.82869e-06 -2.199e-06 0)
(4.78798e-06 -2.17624e-06 0)
(4.74911e-06 -2.1546e-06 0)
(4.71196e-06 -2.13405e-06 0)
(4.67649e-06 -2.11452e-06 0)
(4.64261e-06 -2.09599e-06 0)
(4.61025e-06 -2.07839e-06 0)
(4.57935e-06 -2.0617e-06 0)
(4.54986e-06 -2.04586e-06 0)
(4.5217e-06 -2.03084e-06 0)
(4.49483e-06 -2.01661e-06 0)
(4.4692e-06 -2.00312e-06 0)
(4.44475e-06 -1.99036e-06 0)
(4.42143e-06 -1.97828e-06 0)
(4.3992e-06 -1.96686e-06 0)
(4.37803e-06 -1.95606e-06 0)
(4.35786e-06 -1.94587e-06 0)
(4.33865e-06 -1.93626e-06 0)
(4.32038e-06 -1.9272e-06 0)
(4.30301e-06 -1.91868e-06 0)
(4.28649e-06 -1.91066e-06 0)
(4.27081e-06 -1.90313e-06 0)
(4.25593e-06 -1.89607e-06 0)
(4.24181e-06 -1.88946e-06 0)
(4.22843e-06 -1.88328e-06 0)
(4.21577e-06 -1.87752e-06 0)
(4.2038e-06 -1.87215e-06 0)
(4.19249e-06 -1.86717e-06 0)
(4.18183e-06 -1.86256e-06 0)
(4.17178e-06 -1.8583e-06 0)
(4.16232e-06 -1.85438e-06 0)
(4.15345e-06 -1.85079e-06 0)
(4.14513e-06 -1.84751e-06 0)
(4.13734e-06 -1.84454e-06 0)
(4.13008e-06 -1.84185e-06 0)
(4.12332e-06 -1.83945e-06 0)
(4.11704e-06 -1.83732e-06 0)
(4.11123e-06 -1.83545e-06 0)
(4.10587e-06 -1.83382e-06 0)
(4.10095e-06 -1.83244e-06 0)
(4.09646e-06 -1.83129e-06 0)
(4.09237e-06 -1.83037e-06 0)
(4.08868e-06 -1.82965e-06 0)
(4.08538e-06 -1.82915e-06 0)
(4.08244e-06 -1.82885e-06 0)
(4.07987e-06 -1.82874e-06 0)
(4.07765e-06 -1.82881e-06 0)
(4.07576e-06 -1.82907e-06 0)
(4.07421e-06 -1.8295e-06 0)
(4.07296e-06 -1.83009e-06 0)
(4.07203e-06 -1.83084e-06 0)
(4.0714e-06 -1.83175e-06 0)
(4.07105e-06 -1.83281e-06 0)
(4.07098e-06 -1.83401e-06 0)
(4.07119e-06 -1.83535e-06 0)
(4.07166e-06 -1.83683e-06 0)
(4.07238e-06 -1.83843e-06 0)
(4.07335e-06 -1.84016e-06 0)
(4.07456e-06 -1.842e-06 0)
(4.07601e-06 -1.84397e-06 0)
(4.07768e-06 -1.84604e-06 0)
(4.07957e-06 -1.84822e-06 0)
(4.08168e-06 -1.85051e-06 0)
(4.08399e-06 -1.85289e-06 0)
(4.08651e-06 -1.85537e-06 0)
(4.08922e-06 -1.85795e-06 0)
(4.09212e-06 -1.86061e-06 0)
(4.0952e-06 -1.86336e-06 0)
(4.09846e-06 -1.8662e-06 0)
(4.1019e-06 -1.86911e-06 0)
(4.10551e-06 -1.8721e-06 0)
(4.10928e-06 -1.87517e-06 0)
(4.1132e-06 -1.8783e-06 0)
(4.11729e-06 -1.88151e-06 0)
(4.12152e-06 -1.88478e-06 0)
(4.1259e-06 -1.88812e-06 0)
(4.13041e-06 -1.89152e-06 0)
(4.13509e-06 -1.89497e-06 0)
(4.1399e-06 -1.89848e-06 0)
(4.14481e-06 -1.90205e-06 0)
(4.14986e-06 -1.90567e-06 0)
(4.15503e-06 -1.90935e-06 0)
(4.16032e-06 -1.91305e-06 0)
(4.16574e-06 -1.9168e-06 0)
(4.17128e-06 -1.92062e-06 0)
(4.17691e-06 -1.92447e-06 0)
(4.18265e-06 -1.92836e-06 0)
(4.18849e-06 -1.9323e-06 0)
(4.19443e-06 -1.93627e-06 0)
(4.20047e-06 -1.94027e-06 0)
(4.20661e-06 -1.94431e-06 0)
(4.21284e-06 -1.94838e-06 0)
(4.21916e-06 -1.95249e-06 0)
(4.22556e-06 -1.95662e-06 0)
(4.23205e-06 -1.96078e-06 0)
(4.23863e-06 -1.96497e-06 0)
(4.24528e-06 -1.96918e-06 0)
(4.25201e-06 -1.97341e-06 0)
(4.87217e-06 -2.26475e-06 0)
(4.82723e-06 -2.24027e-06 0)
(4.78429e-06 -2.2169e-06 0)
(4.74327e-06 -2.19473e-06 0)
(4.70409e-06 -2.17365e-06 0)
(4.66667e-06 -2.15364e-06 0)
(4.63093e-06 -2.13464e-06 0)
(4.59679e-06 -2.11659e-06 0)
(4.56419e-06 -2.09947e-06 0)
(4.53306e-06 -2.08322e-06 0)
(4.50335e-06 -2.06781e-06 0)
(4.47498e-06 -2.0532e-06 0)
(4.44791e-06 -2.03935e-06 0)
(4.42209e-06 -2.02624e-06 0)
(4.39745e-06 -2.01383e-06 0)
(4.37396e-06 -2.00209e-06 0)
(4.35157e-06 -1.991e-06 0)
(4.33024e-06 -1.98052e-06 0)
(4.30991e-06 -1.97062e-06 0)
(4.29057e-06 -1.9613e-06 0)
(4.27216e-06 -1.95251e-06 0)
(4.25465e-06 -1.94424e-06 0)
(4.238e-06 -1.93648e-06 0)
(4.2222e-06 -1.92919e-06 0)
(4.20719e-06 -1.92235e-06 0)
(4.19296e-06 -1.91596e-06 0)
(4.17948e-06 -1.91e-06 0)
(4.16671e-06 -1.90443e-06 0)
(4.15464e-06 -1.89926e-06 0)
(4.14323e-06 -1.89447e-06 0)
(4.13247e-06 -1.89003e-06 0)
(4.12233e-06 -1.88594e-06 0)
(4.11279e-06 -1.88219e-06 0)
(4.10383e-06 -1.87875e-06 0)
(4.09542e-06 -1.87563e-06 0)
(4.08756e-06 -1.8728e-06 0)
(4.08022e-06 -1.87025e-06 0)
(4.07338e-06 -1.86799e-06 0)
(4.06702e-06 -1.86598e-06 0)
(4.06114e-06 -1.86423e-06 0)
(4.05571e-06 -1.86273e-06 0)
(4.05073e-06 -1.86146e-06 0)
(4.04616e-06 -1.86042e-06 0)
(4.04201e-06 -1.8596e-06 0)
(4.03826e-06 -1.859e-06 0)
(4.03489e-06 -1.85859e-06 0)
(4.0319e-06 -1.85838e-06 0)
(4.02926e-06 -1.85836e-06 0)
(4.02698e-06 -1.85853e-06 0)
(4.02504e-06 -1.85887e-06 0)
(4.02342e-06 -1.85938e-06 0)
(4.02212e-06 -1.86005e-06 0)
(4.02113e-06 -1.86088e-06 0)
(4.02044e-06 -1.86186e-06 0)
(4.02004e-06 -1.86299e-06 0)
(4.01992e-06 -1.86427e-06 0)
(4.02007e-06 -1.86567e-06 0)
(4.02048e-06 -1.86721e-06 0)
(4.02115e-06 -1.86888e-06 0)
(4.02207e-06 -1.87067e-06 0)
(4.02323e-06 -1.87257e-06 0)
(4.02462e-06 -1.87459e-06 0)
(4.02624e-06 -1.87672e-06 0)
(4.02808e-06 -1.87896e-06 0)
(4.03013e-06 -1.8813e-06 0)
(4.03239e-06 -1.88373e-06 0)
(4.03486e-06 -1.88626e-06 0)
(4.03751e-06 -1.88889e-06 0)
(4.04036e-06 -1.8916e-06 0)
(4.04339e-06 -1.89439e-06 0)
(4.0466e-06 -1.89727e-06 0)
(4.04999e-06 -1.90023e-06 0)
(4.05354e-06 -1.90326e-06 0)
(4.05726e-06 -1.90637e-06 0)
(4.06113e-06 -1.90955e-06 0)
(4.06517e-06 -1.91279e-06 0)
(4.06935e-06 -1.9161e-06 0)
(4.07367e-06 -1.91948e-06 0)
(4.07814e-06 -1.92291e-06 0)
(4.08275e-06 -1.92641e-06 0)
(4.0875e-06 -1.92995e-06 0)
(4.09236e-06 -1.93356e-06 0)
(4.09736e-06 -1.93721e-06 0)
(4.10249e-06 -1.94092e-06 0)
(4.10774e-06 -1.94468e-06 0)
(4.11309e-06 -1.94847e-06 0)
(4.11855e-06 -1.95231e-06 0)
(4.12413e-06 -1.95619e-06 0)
(4.12981e-06 -1.96011e-06 0)
(4.1356e-06 -1.96408e-06 0)
(4.14149e-06 -1.96808e-06 0)
(4.14748e-06 -1.97211e-06 0)
(4.15356e-06 -1.97618e-06 0)
(4.15973e-06 -1.98029e-06 0)
(4.16599e-06 -1.98442e-06 0)
(4.17234e-06 -1.98858e-06 0)
(4.17877e-06 -1.99277e-06 0)
(4.18529e-06 -1.99699e-06 0)
(4.19188e-06 -2.00123e-06 0)
(4.19855e-06 -2.00549e-06 0)
(4.82816e-06 -2.28123e-06 0)
(4.78289e-06 -2.25743e-06 0)
(4.73964e-06 -2.23468e-06 0)
(4.69832e-06 -2.21312e-06 0)
(4.65886e-06 -2.19262e-06 0)
(4.62117e-06 -2.17316e-06 0)
(4.58517e-06 -2.15468e-06 0)
(4.55079e-06 -2.13714e-06 0)
(4.51797e-06 -2.12049e-06 0)
(4.48662e-06 -2.1047e-06 0)
(4.45669e-06 -2.08972e-06 0)
(4.42813e-06 -2.07553e-06 0)
(4.40087e-06 -2.06208e-06 0)
(4.37486e-06 -2.04935e-06 0)
(4.35006e-06 -2.0373e-06 0)
(4.3264e-06 -2.0259e-06 0)
(4.30385e-06 -2.01514e-06 0)
(4.28236e-06 -2.00497e-06 0)
(4.2619e-06 -1.99538e-06 0)
(4.24241e-06 -1.98635e-06 0)
(4.22387e-06 -1.97784e-06 0)
(4.20623e-06 -1.96984e-06 0)
(4.18947e-06 -1.96232e-06 0)
(4.17355e-06 -1.95528e-06 0)
(4.15843e-06 -1.94868e-06 0)
(4.14409e-06 -1.94251e-06 0)
(4.1305e-06 -1.93676e-06 0)
(4.11764e-06 -1.9314e-06 0)
(4.10547e-06 -1.92643e-06 0)
(4.09397e-06 -1.92182e-06 0)
(4.08311e-06 -1.91756e-06 0)
(4.07289e-06 -1.91365e-06 0)
(4.06326e-06 -1.91006e-06 0)
(4.05422e-06 -1.90678e-06 0)
(4.04573e-06 -1.90381e-06 0)
(4.03779e-06 -1.90113e-06 0)
(4.03037e-06 -1.89873e-06 0)
(4.02346e-06 -1.8966e-06 0)
(4.01704e-06 -1.89472e-06 0)
(4.01109e-06 -1.8931e-06 0)
(4.00559e-06 -1.89172e-06 0)
(4.00054e-06 -1.89057e-06 0)
(3.99591e-06 -1.88964e-06 0)
(3.99169e-06 -1.88893e-06 0)
(3.98788e-06 -1.88842e-06 0)
(3.98445e-06 -1.88812e-06 0)
(3.98139e-06 -1.88801e-06 0)
(3.9787e-06 -1.88808e-06 0)
(3.97636e-06 -1.88833e-06 0)
(3.97436e-06 -1.88876e-06 0)
(3.97268e-06 -1.88935e-06 0)
(3.97133e-06 -1.8901e-06 0)
(3.97028e-06 -1.89101e-06 0)
(3.96954e-06 -1.89207e-06 0)
(3.96908e-06 -1.89327e-06 0)
(3.96891e-06 -1.89462e-06 0)
(3.969e-06 -1.89609e-06 0)
(3.96936e-06 -1.89769e-06 0)
(3.96998e-06 -1.89942e-06 0)
(3.97084e-06 -1.90127e-06 0)
(3.97195e-06 -1.90324e-06 0)
(3.97329e-06 -1.90532e-06 0)
(3.97486e-06 -1.9075e-06 0)
(3.97665e-06 -1.90979e-06 0)
(3.97865e-06 -1.91218e-06 0)
(3.98086e-06 -1.91467e-06 0)
(3.98327e-06 -1.91725e-06 0)
(3.98588e-06 -1.91993e-06 0)
(3.98867e-06 -1.92268e-06 0)
(3.99165e-06 -1.92553e-06 0)
(3.99481e-06 -1.92845e-06 0)
(3.99815e-06 -1.93145e-06 0)
(4.00165e-06 -1.93453e-06 0)
(4.00531e-06 -1.93768e-06 0)
(4.00914e-06 -1.94089e-06 0)
(4.01311e-06 -1.94418e-06 0)
(4.01724e-06 -1.94753e-06 0)
(4.02152e-06 -1.95094e-06 0)
(4.02593e-06 -1.95441e-06 0)
(4.03049e-06 -1.95795e-06 0)
(4.03518e-06 -1.96153e-06 0)
(4.04e-06 -1.96517e-06 0)
(4.04494e-06 -1.96886e-06 0)
(4.05001e-06 -1.9726e-06 0)
(4.05519e-06 -1.97638e-06 0)
(4.06049e-06 -1.98022e-06 0)
(4.06591e-06 -1.98409e-06 0)
(4.07143e-06 -1.98801e-06 0)
(4.07706e-06 -1.99196e-06 0)
(4.08279e-06 -1.99596e-06 0)
(4.08862e-06 -1.99999e-06 0)
(4.09455e-06 -2.00406e-06 0)
(4.10057e-06 -2.00816e-06 0)
(4.10669e-06 -2.01229e-06 0)
(4.11289e-06 -2.01645e-06 0)
(4.11918e-06 -2.02064e-06 0)
(4.12555e-06 -2.02487e-06 0)
(4.13201e-06 -2.02911e-06 0)
(4.13854e-06 -2.03339e-06 0)
(4.14516e-06 -2.03767e-06 0)
(4.78387e-06 -2.29759e-06 0)
(4.73828e-06 -2.27446e-06 0)
(4.69474e-06 -2.25236e-06 0)
(4.65314e-06 -2.23142e-06 0)
(4.61342e-06 -2.2115e-06 0)
(4.57547e-06 -2.1926e-06 0)
(4.53923e-06 -2.17465e-06 0)
(4.50462e-06 -2.15762e-06 0)
(4.47158e-06 -2.14145e-06 0)
(4.44002e-06 -2.12612e-06 0)
(4.4099e-06 -2.11159e-06 0)
(4.38115e-06 -2.09782e-06 0)
(4.35371e-06 -2.08477e-06 0)
(4.32753e-06 -2.07243e-06 0)
(4.30256e-06 -2.06075e-06 0)
(4.27875e-06 -2.04971e-06 0)
(4.25605e-06 -2.03928e-06 0)
(4.23442e-06 -2.02943e-06 0)
(4.21382e-06 -2.02015e-06 0)
(4.1942e-06 -2.01141e-06 0)
(4.17553e-06 -2.00318e-06 0)
(4.15778e-06 -1.99545e-06 0)
(4.1409e-06 -1.98819e-06 0)
(4.12486e-06 -1.98139e-06 0)
(4.10964e-06 -1.97503e-06 0)
(4.0952e-06 -1.96909e-06 0)
(4.08151e-06 -1.96355e-06 0)
(4.06855e-06 -1.95841e-06 0)
(4.05629e-06 -1.95363e-06 0)
(4.0447e-06 -1.94921e-06 0)
(4.03376e-06 -1.94514e-06 0)
(4.02345e-06 -1.9414e-06 0)
(4.01375e-06 -1.93798e-06 0)
(4.00462e-06 -1.93487e-06 0)
(3.99606e-06 -1.93205e-06 0)
(3.98805e-06 -1.92952e-06 0)
(3.98056e-06 -1.92726e-06 0)
(3.97358e-06 -1.92527e-06 0)
(3.96708e-06 -1.92353e-06 0)
(3.96107e-06 -1.92203e-06 0)
(3.9555e-06 -1.92077e-06 0)
(3.95039e-06 -1.91974e-06 0)
(3.9457e-06 -1.91893e-06 0)
(3.94142e-06 -1.91832e-06 0)
(3.93754e-06 -1.91792e-06 0)
(3.93406e-06 -1.91772e-06 0)
(3.93094e-06 -1.91771e-06 0)
(3.92819e-06 -1.91787e-06 0)
(3.9258e-06 -1.91822e-06 0)
(3.92374e-06 -1.91873e-06 0)
(3.92201e-06 -1.91941e-06 0)
(3.9206e-06 -1.92024e-06 0)
(3.9195e-06 -1.92123e-06 0)
(3.9187e-06 -1.92236e-06 0)
(3.91819e-06 -1.92364e-06 0)
(3.91796e-06 -1.92505e-06 0)
(3.91801e-06 -1.9266e-06 0)
(3.91831e-06 -1.92826e-06 0)
(3.91888e-06 -1.93006e-06 0)
(3.91969e-06 -1.93197e-06 0)
(3.92075e-06 -1.934e-06 0)
(3.92204e-06 -1.93613e-06 0)
(3.92356e-06 -1.93838e-06 0)
(3.92529e-06 -1.94072e-06 0)
(3.92724e-06 -1.94316e-06 0)
(3.9294e-06 -1.9457e-06 0)
(3.93176e-06 -1.94834e-06 0)
(3.93432e-06 -1.95106e-06 0)
(3.93706e-06 -1.95386e-06 0)
(3.93999e-06 -1.95675e-06 0)
(3.9431e-06 -1.95972e-06 0)
(3.94638e-06 -1.96277e-06 0)
(3.94983e-06 -1.96589e-06 0)
(3.95344e-06 -1.96908e-06 0)
(3.95721e-06 -1.97234e-06 0)
(3.96114e-06 -1.97566e-06 0)
(3.96522e-06 -1.97905e-06 0)
(3.96944e-06 -1.9825e-06 0)
(3.9738e-06 -1.98601e-06 0)
(3.97831e-06 -1.98958e-06 0)
(3.98294e-06 -1.9932e-06 0)
(3.98771e-06 -1.99687e-06 0)
(3.9926e-06 -2.0006e-06 0)
(3.99761e-06 -2.00437e-06 0)
(4.00274e-06 -2.0082e-06 0)
(4.00799e-06 -2.01206e-06 0)
(4.01334e-06 -2.01597e-06 0)
(4.01881e-06 -2.01992e-06 0)
(4.02438e-06 -2.0239e-06 0)
(4.03006e-06 -2.02793e-06 0)
(4.03583e-06 -2.03199e-06 0)
(4.0417e-06 -2.03609e-06 0)
(4.04767e-06 -2.04022e-06 0)
(4.05373e-06 -2.04439e-06 0)
(4.05987e-06 -2.04858e-06 0)
(4.0661e-06 -2.0528e-06 0)
(4.07242e-06 -2.05705e-06 0)
(4.07881e-06 -2.06133e-06 0)
(4.08529e-06 -2.06563e-06 0)
(4.09184e-06 -2.06995e-06 0)
(4.7393e-06 -2.31381e-06 0)
(4.69342e-06 -2.29137e-06 0)
(4.6496e-06 -2.26993e-06 0)
(4.60773e-06 -2.24961e-06 0)
(4.56776e-06 -2.23029e-06 0)
(4.52957e-06 -2.21196e-06 0)
(4.49311e-06 -2.19455e-06 0)
(4.45828e-06 -2.17803e-06 0)
(4.42503e-06 -2.16236e-06 0)
(4.39328e-06 -2.1475e-06 0)
(4.36297e-06 -2.13341e-06 0)
(4.33404e-06 -2.12007e-06 0)
(4.30644e-06 -2.10744e-06 0)