/*--------------------------------*- C++ -*----------------------------------*\
| =========                 |                                                 |
| \\      /  F ield         | foam-extend: Open Source CFD                    |
|  \\    /   O peration     | Version:     4.1                                |
|   \\  /    A nd           | Web:         http://www.foam-extend.org         |
|    \\/     M anipulation  |                                                 |
\*---------------------------------------------------------------------------*/
FoamFile
{
    version     2.0;
    format      ascii;
    class       volScalarField;
    location    "10";
    object      sigmaEq;
}
// * * * * * * * * * * * * * * * * * * * * * * * * * * * * * * * * * * * * * //

dimensions      [1 -1 -2 0 0 0 0];

internalField   nonuniform List<scalar> 
100000
(
955360
945339
941009
943264
950073
960977
974891
991192
1.00919e+06
1.0284e+06
1.04837e+06
1.06876e+06
1.08927e+06
1.1097e+06
1.12987e+06
1.14964e+06
1.16891e+06
1.18761e+06
1.20567e+06
1.22307e+06
1.23977e+06
1.25576e+06
1.27104e+06
1.2856e+06
1.29946e+06
1.31263e+06
1.32511e+06
1.33693e+06
1.34811e+06
1.35863e+06
1.36861e+06
1.37792e+06
1.3868e+06
1.39513e+06
1.40281e+06
1.41007e+06
1.41678e+06
1.42307e+06
1.42891e+06
1.43433e+06
1.43935e+06
1.44399e+06
1.44825e+06
1.45216e+06
1.45574e+06
1.45899e+06
1.46194e+06
1.46459e+06
1.46696e+06
1.46907e+06
1.47092e+06
1.47253e+06
1.4739e+06
1.47506e+06
1.476e+06
1.47674e+06
1.47729e+06
1.47766e+06
1.47786e+06
1.47789e+06
1.47776e+06
1.47749e+06
1.47707e+06
1.47652e+06
1.47584e+06
1.47503e+06
1.47411e+06
1.47307e+06
1.47193e+06
1.47069e+06
1.46936e+06
1.46793e+06
1.46642e+06
1.46482e+06
1.46315e+06
1.4614e+06
1.45958e+06
1.4577e+06
1.45575e+06
1.45375e+06
1.45168e+06
1.44956e+06
1.4474e+06
1.44518e+06
1.44293e+06
1.44063e+06
1.43829e+06
1.43591e+06
1.43349e+06
1.43103e+06
1.42854e+06
1.42602e+06
1.42347e+06
1.4209e+06
1.41831e+06
1.41568e+06
1.41308e+06
1.4104e+06
1.40797e+06
1.40509e+06
989821
978283
972247
972759
977790
986950
999172
1.01386e+06
1.03035e+06
1.04814e+06
1.0668e+06
1.08597e+06
1.10537e+06
1.12477e+06
1.144e+06
1.1629e+06
1.18138e+06
1.19935e+06
1.21675e+06
1.23353e+06
1.24967e+06
1.26514e+06
1.27994e+06
1.29406e+06
1.30752e+06
1.3203e+06
1.33244e+06
1.34394e+06
1.3548e+06
1.36509e+06
1.37476e+06
1.38393e+06
1.39224e+06
1.40054e+06
1.40803e+06
1.41508e+06
1.42164e+06
1.42778e+06
1.43347e+06
1.43875e+06
1.44364e+06
1.44814e+06
1.45229e+06
1.45609e+06
1.45955e+06
1.4627e+06
1.46555e+06
1.46811e+06
1.47039e+06
1.47241e+06
1.47418e+06
1.47571e+06
1.47701e+06
1.4781e+06
1.47897e+06
1.47965e+06
1.48014e+06
1.48045e+06
1.4806e+06
1.48057e+06
1.4804e+06
1.48007e+06
1.47961e+06
1.47901e+06
1.47828e+06
1.47744e+06
1.47647e+06
1.4754e+06
1.47423e+06
1.47295e+06
1.47158e+06
1.47012e+06
1.46857e+06
1.46694e+06
1.46524e+06
1.46346e+06
1.46162e+06
1.45971e+06
1.45773e+06
1.4557e+06
1.45361e+06
1.45146e+06
1.44927e+06
1.44703e+06
1.44476e+06
1.44245e+06
1.44009e+06
1.43768e+06
1.43524e+06
1.43276e+06
1.43026e+06
1.42772e+06
1.42517e+06
1.42259e+06
1.41999e+06
1.41738e+06
1.41477e+06
1.41214e+06
1.40952e+06
1.40688e+06
1.02427e+06
1.01123e+06
1.00351e+06
1.0023e+06
1.00558e+06
1.01302e+06
1.02356e+06
1.03666e+06
1.05163e+06
1.068e+06
1.08534e+06
1.10329e+06
1.12156e+06
1.13993e+06
1.1582e+06
1.17622e+06
1.1939e+06
1.21112e+06
1.22784e+06
1.24399e+06
1.25955e+06
1.27449e+06
1.2888e+06
1.30247e+06
1.3155e+06
1.3279e+06
1.33968e+06
1.35085e+06
1.36142e+06
1.37144e+06
1.38082e+06
1.38975e+06
1.398e+06
1.40573e+06
1.41312e+06
1.41993e+06
1.42636e+06
1.43231e+06
1.43785e+06
1.44298e+06
1.44773e+06
1.4521e+06
1.45612e+06
1.45979e+06
1.46315e+06
1.46619e+06
1.46893e+06
1.4714e+06
1.47359e+06
1.47552e+06
1.47721e+06
1.47866e+06
1.47989e+06
1.4809e+06
1.48171e+06
1.48232e+06
1.48275e+06
1.483e+06
1.48309e+06
1.48301e+06
1.48278e+06
1.48241e+06
1.4819e+06
1.48125e+06
1.48048e+06
1.47959e+06
1.47859e+06
1.47748e+06
1.47626e+06
1.47495e+06
1.47355e+06
1.47205e+06
1.47047e+06
1.46881e+06
1.46708e+06
1.46527e+06
1.4634e+06
1.46146e+06
1.45947e+06
1.45742e+06
1.45529e+06
1.45311e+06
1.45089e+06
1.44863e+06
1.44634e+06
1.44402e+06
1.44163e+06
1.4392e+06
1.43674e+06
1.43424e+06
1.43172e+06
1.42917e+06
1.4266e+06
1.424e+06
1.42139e+06
1.41875e+06
1.41611e+06
1.41344e+06
1.41073e+06
1.40801e+06
1.05869e+06
1.04416e+06
1.03477e+06
1.03188e+06
1.03343e+06
1.03916e+06
1.04805e+06
1.05956e+06
1.07302e+06
1.08798e+06
1.10399e+06
1.12071e+06
1.13785e+06
1.15516e+06
1.17246e+06
1.1896e+06
1.20645e+06
1.22291e+06
1.23893e+06
1.25444e+06
1.26941e+06
1.2838e+06
1.2976e+06
1.31081e+06
1.32341e+06
1.33541e+06
1.34681e+06
1.35763e+06
1.36788e+06
1.37756e+06
1.38671e+06
1.39527e+06
1.40328e+06
1.41094e+06
1.41809e+06
1.42471e+06
1.43092e+06
1.43669e+06
1.44206e+06
1.44703e+06
1.45162e+06
1.45586e+06
1.45974e+06
1.46329e+06
1.46653e+06
1.46946e+06
1.4721e+06
1.47446e+06
1.47656e+06
1.4784e+06
1.48001e+06
1.48138e+06
1.48253e+06
1.48347e+06
1.4842e+06
1.48475e+06
1.48511e+06
1.48531e+06
1.48533e+06
1.4852e+06
1.48492e+06
1.4845e+06
1.48394e+06
1.48325e+06
1.48243e+06
1.4815e+06
1.48046e+06
1.47931e+06
1.47805e+06
1.4767e+06
1.47526e+06
1.47374e+06
1.47213e+06
1.47044e+06
1.46868e+06
1.46684e+06
1.46494e+06
1.46297e+06
1.46095e+06
1.45888e+06
1.45673e+06
1.45451e+06
1.45226e+06
1.44993e+06
1.44767e+06
1.44538e+06
1.44295e+06
1.44049e+06
1.43799e+06
1.43548e+06
1.43294e+06
1.43037e+06
1.42778e+06
1.42517e+06
1.42254e+06
1.41988e+06
1.4172e+06
1.41449e+06
1.41171e+06
1.40897e+06
1.09308e+06
1.07707e+06
1.06604e+06
1.06148e+06
1.06132e+06
1.06538e+06
1.07262e+06
1.08255e+06
1.09451e+06
1.10805e+06
1.12274e+06
1.13822e+06
1.15421e+06
1.17046e+06
1.18678e+06
1.20301e+06
1.21903e+06
1.23473e+06
1.25003e+06
1.26489e+06
1.27924e+06
1.29308e+06
1.30636e+06
1.31908e+06
1.33124e+06
1.34283e+06
1.35385e+06
1.36431e+06
1.37422e+06
1.38359e+06
1.39242e+06
1.40072e+06
1.40856e+06
1.41596e+06
1.42285e+06
1.42927e+06
1.43529e+06
1.44087e+06
1.44607e+06
1.45088e+06
1.45532e+06
1.45941e+06
1.46316e+06
1.46658e+06
1.4697e+06
1.47251e+06
1.47505e+06
1.47731e+06
1.47931e+06
1.48106e+06
1.48257e+06
1.48386e+06
1.48493e+06
1.4858e+06
1.48646e+06
1.48694e+06
1.48724e+06
1.48737e+06
1.48734e+06
1.48715e+06
1.48682e+06
1.48634e+06
1.48573e+06
1.48499e+06
1.48413e+06
1.48316e+06
1.48207e+06
1.48088e+06
1.47959e+06
1.47821e+06
1.47673e+06
1.47517e+06
1.47353e+06
1.47181e+06
1.47001e+06
1.46814e+06
1.46622e+06
1.4642e+06
1.4622e+06
1.46013e+06
1.45792e+06
1.45564e+06
1.45339e+06
1.45104e+06
1.44877e+06
1.44645e+06
1.44399e+06
1.44147e+06
1.43899e+06
1.43646e+06
1.43391e+06
1.43133e+06
1.42873e+06
1.42609e+06
1.42344e+06
1.42076e+06
1.41805e+06
1.41532e+06
1.41252e+06
1.40978e+06
1.12742e+06
1.10996e+06
1.0973e+06
1.09109e+06
1.08925e+06
1.09164e+06
1.09726e+06
1.10562e+06
1.11608e+06
1.12822e+06
1.14157e+06
1.15582e+06
1.17065e+06
1.18583e+06
1.20116e+06
1.21647e+06
1.23164e+06
1.24655e+06
1.26113e+06
1.27532e+06
1.28906e+06
1.30231e+06
1.31507e+06
1.3273e+06
1.339e+06
1.35016e+06
1.36078e+06
1.37088e+06
1.38044e+06
1.38949e+06
1.39803e+06
1.40607e+06
1.41363e+06
1.42078e+06
1.42745e+06
1.43367e+06
1.43948e+06
1.44488e+06
1.4499e+06
1.45454e+06
1.45883e+06
1.46277e+06
1.46638e+06
1.46967e+06
1.47266e+06
1.47536e+06
1.47778e+06
1.47993e+06
1.48183e+06
1.48349e+06
1.48491e+06
1.48611e+06
1.48711e+06
1.48789e+06
1.48849e+06
1.48889e+06
1.48912e+06
1.48919e+06
1.4891e+06
1.48886e+06
1.48847e+06
1.48794e+06
1.48728e+06
1.4865e+06
1.48559e+06
1.48457e+06
1.48344e+06
1.48221e+06
1.48088e+06
1.47946e+06
1.47795e+06
1.47636e+06
1.47468e+06
1.47294e+06
1.47112e+06
1.46923e+06
1.46731e+06
1.46526e+06
1.46328e+06
1.46109e+06
1.4588e+06
1.45663e+06
1.45429e+06
1.45182e+06
1.44964e+06
1.44736e+06
1.44473e+06
1.44224e+06
1.43971e+06
1.4372e+06
1.43463e+06
1.43204e+06
1.42942e+06
1.42678e+06
1.4241e+06
1.4214e+06
1.41867e+06
1.41593e+06
1.41311e+06
1.41038e+06
1.16172e+06
1.1428e+06
1.12854e+06
1.1207e+06
1.1172e+06
1.11795e+06
1.12195e+06
1.12875e+06
1.13773e+06
1.14845e+06
1.16049e+06
1.17349e+06
1.18716e+06
1.20126e+06
1.21558e+06
1.22997e+06
1.24427e+06
1.25839e+06
1.27223e+06
1.28573e+06
1.29884e+06
1.31151e+06
1.32372e+06
1.33545e+06
1.34668e+06
1.35741e+06
1.36762e+06
1.37734e+06
1.38655e+06
1.39527e+06
1.40351e+06
1.41127e+06
1.41858e+06
1.42546e+06
1.43189e+06
1.4379e+06
1.4435e+06
1.44871e+06
1.45354e+06
1.45801e+06
1.46214e+06
1.46592e+06
1.46939e+06
1.47255e+06
1.47541e+06
1.47798e+06
1.48029e+06
1.48234e+06
1.48413e+06
1.48569e+06
1.48703e+06
1.48814e+06
1.48905e+06
1.48976e+06
1.49028e+06
1.49061e+06
1.49076e+06
1.49077e+06
1.49063e+06
1.49033e+06
1.48988e+06
1.4893e+06
1.48859e+06
1.48775e+06
1.4868e+06
1.48573e+06
1.48456e+06
1.48329e+06
1.48192e+06
1.48046e+06
1.47892e+06
1.47729e+06
1.47558e+06
1.4738e+06
1.47195e+06
1.47004e+06
1.46804e+06
1.46595e+06
1.46393e+06
1.46125e+06
1.45958e+06
1.45725e+06
1.45504e+06
1.45251e+06
1.45091e+06
1.44725e+06
1.44546e+06
1.44281e+06
1.44033e+06
1.43777e+06
1.43517e+06
1.43256e+06
1.42991e+06
1.42724e+06
1.42454e+06
1.42182e+06
1.41907e+06
1.41632e+06
1.41348e+06
1.41077e+06
1.19596e+06
1.1756e+06
1.15975e+06
1.1503e+06
1.14515e+06
1.14428e+06
1.14669e+06
1.15195e+06
1.15945e+06
1.16876e+06
1.17946e+06
1.19122e+06
1.20372e+06
1.21674e+06
1.23005e+06
1.24349e+06
1.25692e+06
1.27023e+06
1.28332e+06
1.29613e+06
1.30859e+06
1.32067e+06
1.33232e+06
1.34354e+06
1.35429e+06
1.36457e+06
1.37437e+06
1.3837e+06
1.39255e+06
1.40094e+06
1.40886e+06
1.41633e+06
1.42337e+06
1.42998e+06
1.43617e+06
1.44196e+06
1.44735e+06
1.45236e+06
1.457e+06
1.4613e+06
1.46525e+06
1.46888e+06
1.4722e+06
1.47522e+06
1.47795e+06
1.4804e+06
1.48259e+06
1.48452e+06
1.48621e+06
1.48767e+06
1.48891e+06
1.48993e+06
1.49076e+06
1.49138e+06
1.49183e+06
1.49209e+06
1.49217e+06
1.49211e+06
1.49191e+06
1.49156e+06
1.49105e+06
1.49042e+06
1.48965e+06
1.48876e+06
1.48776e+06
1.48665e+06
1.48544e+06
1.48412e+06
1.48271e+06
1.48122e+06
1.47963e+06
1.47797e+06
1.47622e+06
1.47441e+06
1.47251e+06
1.47056e+06
1.46851e+06
1.46647e+06
1.46428e+06
1.4622e+06
1.46003e+06
1.45764e+06
1.45537e+06
1.45311e+06
1.4505e+06
1.44803e+06
1.44574e+06
1.44319e+06
1.44067e+06
1.43807e+06
1.43545e+06
1.43281e+06
1.43014e+06
1.42745e+06
1.42474e+06
1.422e+06
1.41924e+06
1.41648e+06
1.41363e+06
1.41092e+06
1.23013e+06
1.20834e+06
1.19092e+06
1.17988e+06
1.17311e+06
1.17063e+06
1.17145e+06
1.17518e+06
1.18121e+06
1.18912e+06
1.19849e+06
1.209e+06
1.22034e+06
1.23225e+06
1.24455e+06
1.25704e+06
1.26959e+06
1.28208e+06
1.29441e+06
1.30651e+06
1.31832e+06
1.32978e+06
1.34087e+06
1.35156e+06
1.36182e+06
1.37164e+06
1.38102e+06
1.38996e+06
1.39844e+06
1.40648e+06
1.41408e+06
1.42125e+06
1.42801e+06
1.43436e+06
1.4403e+06
1.44585e+06
1.45102e+06
1.45583e+06
1.46028e+06
1.4644e+06
1.46818e+06
1.47165e+06
1.47482e+06
1.47769e+06
1.48028e+06
1.48261e+06
1.48467e+06
1.48649e+06
1.48808e+06
1.48943e+06
1.49057e+06
1.49151e+06
1.49225e+06
1.49279e+06
1.49319e+06
1.49333e+06
1.49332e+06
1.49323e+06
1.493e+06
1.49256e+06
1.49199e+06
1.49129e+06
1.49047e+06
1.48953e+06
1.48848e+06
1.48732e+06
1.48607e+06
1.48471e+06
1.48326e+06
1.48173e+06
1.48011e+06
1.47841e+06
1.47663e+06
1.47478e+06
1.47286e+06
1.47088e+06
1.46884e+06
1.46672e+06
1.46462e+06
1.46245e+06
1.46016e+06
1.4578e+06
1.4555e+06
1.4531e+06
1.45072e+06
1.44826e+06
1.44575e+06
1.44318e+06
1.44064e+06
1.43805e+06
1.43544e+06
1.43279e+06
1.43011e+06
1.42741e+06
1.42469e+06
1.42195e+06
1.41918e+06
1.41641e+06
1.41355e+06
1.41085e+06
1.26423e+06
1.24102e+06
1.22203e+06
1.20943e+06
1.20105e+06
1.19698e+06
1.19624e+06
1.19845e+06
1.20301e+06
1.20952e+06
1.21757e+06
1.22683e+06
1.23699e+06
1.24781e+06
1.25907e+06
1.27061e+06
1.28227e+06
1.29392e+06
1.30549e+06
1.31687e+06
1.32801e+06
1.33885e+06
1.34937e+06
1.35951e+06
1.36927e+06
1.37863e+06
1.38758e+06
1.39611e+06
1.40421e+06
1.4119e+06
1.41918e+06
1.42604e+06
1.43251e+06
1.43858e+06
1.44427e+06
1.44958e+06
1.45453e+06
1.45913e+06
1.46338e+06
1.46731e+06
1.47092e+06
1.47422e+06
1.47723e+06
1.47996e+06
1.48241e+06
1.48461e+06
1.48655e+06
1.48825e+06
1.48972e+06
1.49097e+06
1.49201e+06
1.49284e+06
1.49348e+06
1.49391e+06
1.49423e+06
1.49422e+06
1.49429e+06
1.49424e+06
1.49379e+06
1.49334e+06
1.49268e+06
1.49193e+06
1.49105e+06
1.49006e+06
1.48896e+06
1.48776e+06
1.48646e+06
1.48506e+06
1.48357e+06
1.482e+06
1.48034e+06
1.47861e+06
1.4768e+06
1.47492e+06
1.47297e+06
1.47097e+06
1.4689e+06
1.46679e+06
1.46463e+06
1.4624e+06
1.46012e+06
1.4578e+06
1.45545e+06
1.45307e+06
1.45059e+06
1.44806e+06
1.44555e+06
1.44301e+06
1.44045e+06
1.43784e+06
1.43521e+06
1.43255e+06
1.42986e+06
1.42715e+06
1.42442e+06
1.42166e+06
1.41888e+06
1.41611e+06
1.41323e+06
1.41054e+06
1.29825e+06
1.27363e+06
1.25309e+06
1.23894e+06
1.22897e+06
1.22333e+06
1.22103e+06
1.22173e+06
1.22484e+06
1.22996e+06
1.23669e+06
1.2447e+06
1.25368e+06
1.26339e+06
1.27362e+06
1.28419e+06
1.29495e+06
1.30577e+06
1.31655e+06
1.3272e+06
1.33766e+06
1.34788e+06
1.3578e+06
1.3674e+06
1.37666e+06
1.38554e+06
1.39404e+06
1.40216e+06
1.40988e+06
1.41721e+06
1.42414e+06
1.43069e+06
1.43686e+06
1.44265e+06
1.44808e+06
1.45315e+06
1.45787e+06
1.46225e+06
1.4663e+06
1.47004e+06
1.47347e+06
1.4766e+06
1.47945e+06
1.48203e+06
1.48434e+06
1.4864e+06
1.48821e+06
1.4898e+06
1.49115e+06
1.4923e+06
1.49323e+06
1.49397e+06
1.49451e+06
1.4949e+06
1.49512e+06
1.49513e+06
1.49543e+06
1.49474e+06
1.49435e+06
1.49379e+06
1.49309e+06
1.4923e+06
1.49137e+06
1.49034e+06
1.4892e+06
1.48795e+06
1.4866e+06
1.48517e+06
1.48364e+06
1.48203e+06
1.48034e+06
1.47857e+06
1.47673e+06
1.47482e+06
1.47285e+06
1.47081e+06
1.46873e+06
1.46658e+06
1.46439e+06
1.46215e+06
1.45984e+06
1.45749e+06
1.45511e+06
1.45269e+06
1.45023e+06
1.44772e+06
1.44518e+06
1.44261e+06
1.44001e+06
1.43739e+06
1.43475e+06
1.43207e+06
1.42937e+06
1.42665e+06
1.42391e+06
1.42115e+06
1.41836e+06
1.41558e+06
1.41269e+06
1.41001e+06
1.33217e+06
1.30615e+06
1.28409e+06
1.2684e+06
1.25686e+06
1.24966e+06
1.24583e+06
1.24503e+06
1.24669e+06
1.25043e+06
1.25584e+06
1.26259e+06
1.27039e+06
1.279e+06
1.28819e+06
1.29778e+06
1.30763e+06
1.3176e+06
1.32759e+06
1.33751e+06
1.34728e+06
1.35685e+06
1.36618e+06
1.37523e+06
1.38396e+06
1.39236e+06
1.40041e+06
1.4081e+06
1.41543e+06
1.42239e+06
1.42898e+06
1.4352e+06
1.44107e+06
1.44658e+06
1.45174e+06
1.45656e+06
1.46104e+06
1.4652e+06
1.46904e+06
1.47259e+06
1.47583e+06
1.47879e+06
1.48148e+06
1.4839e+06
1.48607e+06
1.48799e+06
1.48967e+06
1.49113e+06
1.49238e+06
1.49342e+06
1.49425e+06
1.49491e+06
1.49537e+06
1.49569e+06
1.49578e+06
1.49584e+06
1.49549e+06
1.49503e+06
1.49467e+06
1.49402e+06
1.49331e+06
1.49245e+06
1.49148e+06
1.49039e+06
1.4892e+06
1.48791e+06
1.48652e+06
1.48504e+06
1.48347e+06
1.48182e+06
1.4801e+06
1.47829e+06
1.47642e+06
1.47448e+06
1.47248e+06
1.47042e+06
1.46831e+06
1.46614e+06
1.46392e+06
1.46165e+06
1.45932e+06
1.45696e+06
1.45456e+06
1.45211e+06
1.44963e+06
1.4471e+06
1.44454e+06
1.44196e+06
1.43935e+06
1.43672e+06
1.43406e+06
1.43137e+06
1.42866e+06
1.42593e+06
1.42318e+06
1.42041e+06
1.41761e+06
1.41483e+06
1.41192e+06
1.40925e+06
1.366e+06
1.33859e+06
1.315e+06
1.29779e+06
1.2847e+06
1.27596e+06
1.27061e+06
1.26833e+06
1.26855e+06
1.27091e+06
1.275e+06
1.28051e+06
1.28713e+06
1.29462e+06
1.30276e+06
1.31138e+06
1.32031e+06
1.32942e+06
1.33861e+06
1.34778e+06
1.35686e+06
1.36578e+06
1.3745e+06
1.38298e+06
1.39119e+06
1.39909e+06
1.40668e+06
1.41394e+06
1.42087e+06
1.42745e+06
1.43369e+06
1.43959e+06
1.44514e+06
1.45036e+06
1.45524e+06
1.4598e+06
1.46405e+06
1.46798e+06
1.47161e+06
1.47495e+06
1.47801e+06
1.48079e+06
1.48331e+06
1.48558e+06
1.48759e+06
1.48938e+06
1.49093e+06
1.49226e+06
1.49339e+06
1.49431e+06
1.49504e+06
1.49559e+06
1.49597e+06
1.49617e+06
1.49622e+06
1.49604e+06
1.49573e+06
1.49534e+06
1.49485e+06
1.49413e+06
1.49333e+06
1.4924e+06
1.49137e+06
1.49022e+06
1.48898e+06
1.48763e+06
1.4862e+06
1.48468e+06
1.48307e+06
1.48138e+06
1.47962e+06
1.47778e+06
1.47588e+06
1.47391e+06
1.47188e+06
1.46979e+06
1.46765e+06
1.46545e+06
1.46321e+06
1.46091e+06
1.45857e+06
1.45618e+06
1.45376e+06
1.45129e+06
1.44879e+06
1.44626e+06
1.44369e+06
1.44109e+06
1.43846e+06
1.43581e+06
1.43314e+06
1.43044e+06
1.42772e+06
1.42498e+06
1.42221e+06
1.41944e+06
1.41663e+06
1.41384e+06
1.41093e+06
1.40826e+06
1.39972e+06
1.37092e+06
1.34584e+06
1.32712e+06
1.31249e+06
1.30223e+06
1.29536e+06
1.29161e+06
1.29041e+06
1.2914e+06
1.29418e+06
1.29843e+06
1.30387e+06
1.31025e+06
1.31735e+06
1.32498e+06
1.33298e+06
1.34123e+06
1.34961e+06
1.35802e+06
1.3664e+06
1.37466e+06
1.38277e+06
1.39067e+06
1.39834e+06
1.40574e+06
1.41286e+06
1.41969e+06
1.4262e+06
1.4324e+06
1.43828e+06
1.44383e+06
1.44907e+06
1.45399e+06
1.4586e+06
1.4629e+06
1.46689e+06
1.47059e+06
1.47401e+06
1.47714e+06
1.48001e+06
1.48261e+06
1.48496e+06
1.48706e+06
1.48892e+06
1.49056e+06
1.49198e+06
1.49319e+06
1.49419e+06
1.495e+06
1.49562e+06
1.49607e+06
1.49633e+06
1.49644e+06
1.49637e+06
1.49615e+06
1.49579e+06
1.49532e+06
1.49471e+06
1.49395e+06
1.49309e+06
1.4921e+06
1.49101e+06
1.48981e+06
1.48852e+06
1.48713e+06
1.48565e+06
1.48408e+06
1.48243e+06
1.48071e+06
1.47891e+06
1.47704e+06
1.4751e+06
1.4731e+06
1.47104e+06
1.46892e+06
1.46675e+06
1.46453e+06
1.46226e+06
1.45994e+06
1.45758e+06
1.45517e+06
1.45273e+06
1.45025e+06
1.44773e+06
1.44518e+06
1.44259e+06
1.43998e+06
1.43734e+06
1.43468e+06
1.43199e+06
1.42928e+06
1.42655e+06
1.4238e+06
1.42103e+06
1.41824e+06
1.41543e+06
1.41264e+06
1.40972e+06
1.40705e+06
1.43332e+06
1.40315e+06
1.37657e+06
1.35637e+06
1.34022e+06
1.32845e+06
1.32009e+06
1.31488e+06
1.31226e+06
1.31188e+06
1.31335e+06
1.31637e+06
1.32062e+06
1.32588e+06
1.33193e+06
1.33857e+06
1.34564e+06
1.35302e+06
1.36058e+06
1.36823e+06
1.37589e+06
1.38349e+06
1.39097e+06
1.39829e+06
1.40541e+06
1.4123e+06
1.41895e+06
1.42532e+06
1.43142e+06
1.43723e+06
1.44274e+06
1.44795e+06
1.45286e+06
1.45748e+06
1.4618e+06
1.46583e+06
1.46958e+06
1.47304e+06
1.47623e+06
1.47916e+06
1.48183e+06
1.48424e+06
1.48641e+06
1.48835e+06
1.49006e+06
1.49155e+06
1.49283e+06
1.4939e+06
1.49478e+06
1.49547e+06
1.49598e+06
1.49632e+06
1.49649e+06
1.49649e+06
1.49635e+06
1.49604e+06
1.4956e+06
1.49505e+06
1.49437e+06
1.49356e+06
1.49263e+06
1.49158e+06
1.49043e+06
1.48918e+06
1.48783e+06
1.48639e+06
1.48486e+06
1.48325e+06
1.48156e+06
1.4798e+06
1.47796e+06
1.47606e+06
1.47409e+06
1.47206e+06
1.46997e+06
1.46782e+06
1.46562e+06
1.46338e+06
1.46108e+06
1.45874e+06
1.45636e+06
1.45393e+06
1.45147e+06
1.44897e+06
1.44643e+06
1.44387e+06
1.44127e+06
1.43865e+06
1.43599e+06
1.43332e+06
1.43062e+06
1.4279e+06
1.42516e+06
1.4224e+06
1.41962e+06
1.41683e+06
1.41401e+06
1.41121e+06
1.40828e+06
1.40562e+06
1.46679e+06
1.43527e+06
1.40721e+06
1.38553e+06
1.36788e+06
1.35461e+06
1.34477e+06
1.33812e+06
1.33409e+06
1.33236e+06
1.33253e+06
1.33429e+06
1.33737e+06
1.34151e+06
1.3465e+06
1.35215e+06
1.35829e+06
1.36479e+06
1.37153e+06
1.37841e+06
1.38534e+06
1.39226e+06
1.39911e+06
1.40584e+06
1.41241e+06
1.41878e+06
1.42494e+06
1.43086e+06
1.43653e+06
1.44194e+06
1.44708e+06
1.45194e+06
1.45652e+06
1.46083e+06
1.46486e+06
1.46861e+06
1.4721e+06
1.47532e+06
1.47829e+06
1.481e+06
1.48346e+06
1.48569e+06
1.48768e+06
1.48945e+06
1.491e+06
1.49234e+06
1.49348e+06
1.49442e+06
1.49517e+06
1.49574e+06
1.49614e+06
1.49636e+06
1.49643e+06
1.49634e+06
1.4961e+06
1.49572e+06
1.49521e+06
1.49457e+06
1.49381e+06
1.49293e+06
1.49193e+06
1.49083e+06
1.48962e+06
1.48832e+06
1.48692e+06
1.48543e+06
1.48385e+06
1.4822e+06
1.48047e+06
1.47866e+06
1.47679e+06
1.47485e+06
1.47284e+06
1.47078e+06
1.46866e+06
1.46649e+06
1.46426e+06
1.46199e+06
1.45967e+06
1.45731e+06
1.4549e+06
1.45246e+06
1.44998e+06
1.44746e+06
1.44491e+06
1.44233e+06
1.43972e+06
1.43708e+06
1.43442e+06
1.43173e+06
1.42902e+06
1.42629e+06
1.42354e+06
1.42078e+06
1.41799e+06
1.41519e+06
1.41236e+06
1.40956e+06
1.40662e+06
1.40397e+06
1.50014e+06
1.46726e+06
1.43774e+06
1.4146e+06
1.39546e+06
1.38071e+06
1.36941e+06
1.36132e+06
1.35589e+06
1.35281e+06
1.35168e+06
1.35221e+06
1.35411e+06
1.35713e+06
1.36106e+06
1.36571e+06
1.37091e+06
1.37653e+06
1.38244e+06
1.38854e+06
1.39474e+06
1.40098e+06
1.40719e+06
1.41332e+06
1.41932e+06
1.42517e+06
1.43084e+06
1.4363e+06
1.44153e+06
1.44654e+06
1.45129e+06
1.4558e+06
1.46004e+06
1.46403e+06
1.46777e+06
1.47124e+06
1.47447e+06
1.47744e+06
1.48018e+06
1.48267e+06
1.48493e+06
1.48696e+06
1.48877e+06
1.49037e+06
1.49175e+06
1.49294e+06
1.49393e+06
1.49473e+06
1.49536e+06
1.4958e+06
1.49608e+06
1.4962e+06
1.49616e+06
1.49598e+06
1.49565e+06
1.49518e+06
1.49458e+06
1.49387e+06
1.49303e+06
1.49208e+06
1.49102e+06
1.48986e+06
1.48859e+06
1.48723e+06
1.48577e+06
1.48424e+06
1.48261e+06
1.48091e+06
1.47914e+06
1.4773e+06
1.47539e+06
1.47341e+06
1.47137e+06
1.46928e+06
1.46713e+06
1.46493e+06
1.46268e+06
1.46038e+06
1.45804e+06
1.45565e+06
1.45322e+06
1.45076e+06
1.44826e+06
1.44573e+06
1.44316e+06
1.44057e+06
1.43795e+06
1.4353e+06
1.43262e+06
1.42992e+06
1.42721e+06
1.42447e+06
1.42171e+06
1.41893e+06
1.41614e+06
1.41334e+06
1.4105e+06
1.4077e+06
1.40475e+06
1.4021e+06
1.53334e+06
1.49912e+06
1.46815e+06
1.44357e+06
1.42294e+06
1.40674e+06
1.39398e+06
1.38447e+06
1.37766e+06
1.37324e+06
1.37082e+06
1.37011e+06
1.37083e+06
1.37274e+06
1.37561e+06
1.37925e+06
1.38351e+06
1.38824e+06
1.39331e+06
1.39863e+06
1.4041e+06
1.40965e+06
1.41521e+06
1.42073e+06
1.42616e+06
1.43148e+06
1.43664e+06
1.44163e+06
1.44643e+06
1.45102e+06
1.45539e+06
1.45953e+06
1.46343e+06
1.4671e+06
1.47053e+06
1.47372e+06
1.47668e+06
1.4794e+06
1.4819e+06
1.48417e+06
1.48622e+06
1.48805e+06
1.48968e+06
1.4911e+06
1.49232e+06
1.49335e+06
1.49419e+06
1.49485e+06
1.49534e+06
1.49566e+06
1.49583e+06
1.49583e+06
1.49569e+06
1.4954e+06
1.49498e+06
1.49443e+06
1.49375e+06
1.49295e+06
1.49204e+06
1.49102e+06
1.48989e+06
1.48866e+06
1.48733e+06
1.48591e+06
1.48441e+06
1.48282e+06
1.48115e+06
1.47941e+06
1.47759e+06
1.47571e+06
1.47376e+06
1.47175e+06
1.46968e+06
1.46755e+06
1.46537e+06
1.46314e+06
1.46086e+06
1.45854e+06
1.45617e+06
1.45377e+06
1.45132e+06
1.44884e+06
1.44632e+06
1.44377e+06
1.44119e+06
1.43858e+06
1.43595e+06
1.43329e+06
1.4306e+06
1.42789e+06
1.42517e+06
1.42242e+06
1.41965e+06
1.41687e+06
1.41407e+06
1.41126e+06
1.40842e+06
1.40562e+06
1.40266e+06
1.40002e+06
1.56639e+06
1.53085e+06
1.49843e+06
1.47242e+06
1.45033e+06
1.43268e+06
1.41849e+06
1.40756e+06
1.39938e+06
1.39362e+06
1.38992e+06
1.38799e+06
1.38753e+06
1.38832e+06
1.39013e+06
1.39277e+06
1.39608e+06
1.39992e+06
1.40415e+06
1.40868e+06
1.4134e+06
1.41825e+06
1.42316e+06
1.42806e+06
1.43292e+06
1.4377e+06
1.44235e+06
1.44687e+06
1.45122e+06
1.45539e+06
1.45936e+06
1.46313e+06
1.46669e+06
1.47003e+06
1.47315e+06
1.47606e+06
1.47874e+06
1.4812e+06
1.48346e+06
1.4855e+06
1.48734e+06
1.48897e+06
1.4904e+06
1.49164e+06
1.49269e+06
1.49356e+06
1.49426e+06
1.49478e+06
1.49513e+06
1.49533e+06
1.49537e+06
1.49526e+06
1.49501e+06
1.49462e+06
1.49411e+06
1.49346e+06
1.4927e+06
1.49182e+06
1.49083e+06
1.48974e+06
1.48854e+06
1.48725e+06
1.48586e+06
1.48438e+06
1.48282e+06
1.48118e+06
1.47947e+06
1.47768e+06
1.47582e+06
1.47389e+06
1.47191e+06
1.46986e+06
1.46776e+06
1.4656e+06
1.46339e+06
1.46113e+06
1.45883e+06
1.45648e+06
1.45409e+06
1.45166e+06
1.4492e+06
1.4467e+06
1.44416e+06
1.4416e+06
1.439e+06
1.43638e+06
1.43373e+06
1.43106e+06
1.42836e+06
1.42565e+06
1.42291e+06
1.42015e+06
1.41738e+06
1.41459e+06
1.41179e+06
1.40898e+06
1.40613e+06
1.40333e+06
1.40037e+06
1.39773e+06
1.59929e+06
1.56242e+06
1.52857e+06
1.50115e+06
1.47762e+06
1.45853e+06
1.44291e+06
1.43059e+06
1.42105e+06
1.41397e+06
1.40899e+06
1.40583e+06
1.4042e+06
1.40387e+06
1.40462e+06
1.40626e+06
1.40862e+06
1.41156e+06
1.41495e+06
1.41868e+06
1.42265e+06
1.4268e+06
1.43104e+06
1.43533e+06
1.4396e+06
1.44383e+06
1.44797e+06
1.45201e+06
1.4559e+06
1.45964e+06
1.46322e+06
1.46661e+06
1.46982e+06
1.47283e+06
1.47564e+06
1.47824e+06
1.48064e+06
1.48285e+06
1.48486e+06
1.48667e+06
1.48829e+06
1.48971e+06
1.49095e+06
1.49201e+06
1.49289e+06
1.4936e+06
1.49413e+06
1.49451e+06
1.49473e+06
1.49479e+06
1.49471e+06
1.49449e+06
1.49413e+06
1.49364e+06
1.49303e+06
1.49229e+06
1.49144e+06
1.49048e+06
1.48941e+06
1.48825e+06
1.48698e+06
1.48562e+06
1.48417e+06
1.48264e+06
1.48102e+06
1.47933e+06
1.47756e+06
1.47573e+06
1.47383e+06
1.47186e+06
1.46984e+06
1.46775e+06
1.46561e+06
1.46343e+06
1.46119e+06
1.4589e+06
1.45657e+06
1.4542e+06
1.45179e+06
1.44934e+06
1.44685e+06
1.44433e+06
1.44178e+06
1.4392e+06
1.43659e+06
1.43396e+06
1.4313e+06
1.42861e+06
1.42591e+06
1.42318e+06
1.42044e+06
1.41768e+06
1.4149e+06
1.4121e+06
1.40929e+06
1.40648e+06
1.40363e+06
1.40082e+06
1.39786e+06
1.39523e+06
1.63203e+06
1.59384e+06
1.55858e+06
1.52975e+06
1.50479e+06
1.48428e+06
1.46725e+06
1.45355e+06
1.44265e+06
1.43426e+06
1.42801e+06
1.42363e+06
1.42084e+06
1.41939e+06
1.41908e+06
1.41971e+06
1.42112e+06
1.42316e+06
1.4257e+06
1.42863e+06
1.43185e+06
1.43528e+06
1.43886e+06
1.44252e+06
1.44621e+06
1.44988e+06
1.4535e+06
1.45704e+06
1.46048e+06
1.46379e+06
1.46696e+06
1.46997e+06
1.47282e+06
1.47549e+06
1.47798e+06
1.48029e+06
1.4824e+06
1.48433e+06
1.48609e+06
1.48767e+06
1.48907e+06
1.49029e+06
1.49133e+06
1.4922e+06
1.49291e+06
1.49345e+06
1.49383e+06
1.49405e+06
1.49413e+06
1.49406e+06
1.49386e+06
1.49352e+06
1.49305e+06
1.49246e+06
1.49174e+06
1.49091e+06
1.48998e+06
1.48893e+06
1.48779e+06
1.48654e+06
1.48521e+06
1.48378e+06
1.48227e+06
1.48067e+06
1.479e+06
1.47726e+06
1.47544e+06
1.47356e+06
1.47162e+06
1.46961e+06
1.46755e+06
1.46543e+06
1.46326e+06
1.46104e+06
1.45877e+06
1.45645e+06
1.4541e+06
1.4517e+06
1.44927e+06
1.44679e+06
1.44429e+06
1.44175e+06
1.43919e+06
1.43659e+06
1.43397e+06
1.43132e+06
1.42865e+06
1.42595e+06
1.42324e+06
1.4205e+06
1.41775e+06
1.41498e+06
1.4122e+06
1.4094e+06
1.40659e+06
1.40377e+06
1.40092e+06
1.39811e+06
1.39514e+06
1.39252e+06
1.66459e+06
1.6251e+06
1.58843e+06
1.55821e+06
1.53184e+06
1.50993e+06
1.4915e+06
1.47643e+06
1.46418e+06
1.45449e+06
1.44698e+06
1.44139e+06
1.43743e+06
1.43487e+06
1.4335e+06
1.43313e+06
1.43358e+06
1.43471e+06
1.4364e+06
1.43852e+06
1.44099e+06
1.44371e+06
1.44661e+06
1.44964e+06
1.45273e+06
1.45584e+06
1.45893e+06
1.46198e+06
1.46495e+06
1.46783e+06
1.47058e+06
1.47321e+06
1.47569e+06
1.47802e+06
1.48019e+06
1.48219e+06
1.484e+06
1.48567e+06
1.48718e+06
1.48852e+06
1.48969e+06
1.4907e+06
1.49154e+06
1.49222e+06
1.49274e+06
1.49311e+06
1.49333e+06
1.49341e+06
1.49335e+06
1.49314e+06
1.49281e+06
1.49235e+06
1.49177e+06
1.49107e+06
1.49026e+06
1.48933e+06
1.48831e+06
1.48718e+06
1.48595e+06
1.48463e+06
1.48323e+06
1.48173e+06
1.48015e+06
1.4785e+06
1.47677e+06
1.47498e+06
1.47311e+06
1.47118e+06
1.4692e+06
1.46715e+06
1.46505e+06
1.46289e+06
1.46068e+06
1.45843e+06
1.45613e+06
1.45379e+06
1.45141e+06
1.44899e+06
1.44653e+06
1.44404e+06
1.44151e+06
1.43896e+06
1.43638e+06
1.43377e+06
1.43113e+06
1.42847e+06
1.42579e+06
1.42308e+06
1.42036e+06
1.41762e+06
1.41486e+06
1.41208e+06
1.40929e+06
1.40649e+06
1.40367e+06
1.40085e+06
1.398e+06
1.39519e+06
1.39222e+06
1.38961e+06
1.69697e+06
1.65618e+06
1.61813e+06
1.58653e+06
1.55875e+06
1.53546e+06
1.51565e+06
1.49922e+06
1.48564e+06
1.47465e+06
1.46589e+06
1.45909e+06
1.45397e+06
1.4503e+06
1.44788e+06
1.4465e+06
1.44599e+06
1.44622e+06
1.44705e+06
1.44837e+06
1.45007e+06
1.45207e+06
1.4543e+06
1.45668e+06
1.45917e+06
1.46171e+06
1.46428e+06
1.46682e+06
1.46932e+06
1.47175e+06
1.47409e+06
1.47633e+06
1.47844e+06
1.48043e+06
1.48227e+06
1.48397e+06
1.48547e+06
1.48685e+06
1.48811e+06
1.48921e+06
1.49016e+06
1.49094e+06
1.49158e+06
1.49207e+06
1.49241e+06
1.49261e+06
1.49266e+06
1.49259e+06
1.49238e+06
1.49204e+06
1.49158e+06
1.491e+06
1.4903e+06
1.48949e+06
1.48857e+06
1.48756e+06
1.48644e+06
1.48522e+06
1.48392e+06
1.48252e+06
1.48104e+06
1.47948e+06
1.47783e+06
1.47612e+06
1.47434e+06
1.47249e+06
1.47057e+06
1.4686e+06
1.46656e+06
1.46447e+06
1.46233e+06
1.46014e+06
1.4579e+06
1.45562e+06
1.45329e+06
1.45092e+06
1.44851e+06
1.44606e+06
1.44358e+06
1.44107e+06
1.43853e+06
1.43596e+06
1.43336e+06
1.43073e+06
1.42808e+06
1.42541e+06
1.42272e+06
1.42e+06
1.41727e+06
1.41452e+06
1.41176e+06
1.40898e+06
1.40618e+06
1.40338e+06
1.40056e+06
1.39773e+06
1.39488e+06
1.39207e+06
1.38909e+06
1.38649e+06
1.72916e+06
1.68709e+06
1.64765e+06
1.6147e+06
1.58553e+06
1.56086e+06
1.53968e+06
1.5219e+06
1.50701e+06
1.49474e+06
1.48473e+06
1.47673e+06
1.47046e+06
1.46569e+06
1.4622e+06
1.45982e+06
1.45836e+06
1.45768e+06
1.45765e+06
1.45816e+06
1.45909e+06
1.46037e+06
1.46191e+06
1.46365e+06
1.46553e+06
1.4675e+06
1.46953e+06
1.47156e+06
1.47359e+06
1.47557e+06
1.47748e+06
1.47932e+06
1.48107e+06
1.4827e+06
1.48421e+06
1.48559e+06
1.48674e+06
1.48788e+06
1.4889e+06
1.48975e+06
1.49047e+06
1.49103e+06
1.49146e+06
1.49175e+06
1.4919e+06
1.49192e+06
1.49181e+06
1.49158e+06
1.49122e+06
1.49075e+06
1.49015e+06
1.48945e+06
1.48864e+06
1.48772e+06
1.4867e+06
1.48558e+06
1.48437e+06
1.48307e+06
1.48168e+06
1.48021e+06
1.47865e+06
1.47702e+06
1.47531e+06
1.47353e+06
1.47169e+06
1.46979e+06
1.46782e+06
1.4658e+06
1.46372e+06
1.46159e+06
1.45941e+06
1.45718e+06
1.45491e+06
1.45259e+06
1.45023e+06
1.44783e+06
1.4454e+06
1.44293e+06
1.44043e+06
1.4379e+06
1.43533e+06
1.43275e+06
1.43013e+06
1.42749e+06
1.42483e+06
1.42214e+06
1.41944e+06
1.41672e+06
1.41398e+06
1.41122e+06
1.40845e+06
1.40567e+06
1.40287e+06
1.40006e+06
1.39724e+06
1.39441e+06
1.39156e+06
1.38875e+06
1.38577e+06
1.38317e+06
1.76115e+06
1.71781e+06
1.67701e+06
1.6427e+06
1.61217e+06
1.58613e+06
1.5636e+06
1.54449e+06
1.52829e+06
1.51474e+06
1.5035e+06
1.49431e+06
1.48689e+06
1.48101e+06
1.47647e+06
1.47308e+06
1.47067e+06
1.46909e+06
1.4682e+06
1.46789e+06
1.46805e+06
1.4686e+06
1.46945e+06
1.47054e+06
1.47181e+06
1.47321e+06
1.47469e+06
1.47621e+06
1.47775e+06
1.47927e+06
1.48076e+06
1.4822e+06
1.48357e+06
1.48485e+06
1.48605e+06
1.48718e+06
1.48798e+06
1.48872e+06
1.48953e+06
1.49013e+06
1.49061e+06
1.49096e+06
1.49117e+06
1.49126e+06
1.49122e+06
1.49107e+06
1.49079e+06
1.4904e+06
1.48989e+06
1.48927e+06
1.48855e+06
1.48772e+06
1.48678e+06
1.48575e+06
1.48463e+06
1.48341e+06