# Time dispX dispY dispZ forceX forceY forceZ
0 0 0 0 0 0 0
1 1.0668e-06 -8.20685e-08 1.493e-23 100000 -0.00285478 1.59925e-17
