/*--------------------------------*- C++ -*----------------------------------*\
| =========                 |                                                 |
| \\      /  F ield         | foam-extend: Open Source CFD                    |
|  \\    /   O peration     | Version:     4.1                                |
|   \\  /    A nd           | Web:         http://www.foam-extend.org         |
|    \\/     M anipulation  |                                                 |
\*---------------------------------------------------------------------------*/
FoamFile
{
    version     2.0;
    format      ascii;
    class       vectorField;
    location    "7";
    object      solidsCellD_iteration229;
}
// * * * * * * * * * * * * * * * * * * * * * * * * * * * * * * * * * * * * * //


100000
(
(4.02275e-06 -1.66895e-06 0)
(3.98996e-06 -1.64654e-06 0)
(3.95862e-06 -1.62516e-06 0)
(3.92866e-06 -1.60486e-06 0)
(3.90004e-06 -1.58556e-06 0)
(3.87269e-06 -1.56722e-06 0)
(3.84656e-06 -1.54979e-06 0)
(3.8216e-06 -1.53323e-06 0)
(3.79776e-06 -1.5175e-06 0)
(3.77499e-06 -1.50256e-06 0)
(3.75325e-06 -1.48838e-06 0)
(3.7325e-06 -1.47492e-06 0)
(3.71269e-06 -1.46215e-06 0)
(3.6938e-06 -1.45004e-06 0)
(3.67577e-06 -1.43856e-06 0)
(3.65859e-06 -1.42768e-06 0)
(3.64221e-06 -1.41738e-06 0)
(3.62661e-06 -1.40762e-06 0)
(3.61175e-06 -1.3984e-06 0)
(3.59761e-06 -1.38968e-06 0)
(3.58416e-06 -1.38145e-06 0)
(3.57137e-06 -1.37367e-06 0)
(3.55923e-06 -1.36635e-06 0)
(3.5477e-06 -1.35944e-06 0)
(3.53676e-06 -1.35295e-06 0)
(3.5264e-06 -1.34685e-06 0)
(3.51659e-06 -1.34112e-06 0)
(3.50731e-06 -1.33576e-06 0)
(3.49855e-06 -1.33074e-06 0)
(3.49029e-06 -1.32605e-06 0)
(3.4825e-06 -1.32169e-06 0)
(3.47518e-06 -1.31762e-06 0)
(3.46831e-06 -1.31386e-06 0)
(3.46185e-06 -1.31037e-06 0)
(3.45583e-06 -1.30716e-06 0)
(3.4502e-06 -1.30421e-06 0)
(3.44497e-06 -1.30151e-06 0)
(3.44011e-06 -1.29905e-06 0)
(3.43562e-06 -1.29683e-06 0)
(3.43149e-06 -1.29482e-06 0)
(3.42769e-06 -1.29304e-06 0)
(3.42422e-06 -1.29146e-06 0)
(3.42108e-06 -1.29008e-06 0)
(3.41825e-06 -1.28889e-06 0)
(3.41571e-06 -1.28788e-06 0)
(3.41347e-06 -1.28705e-06 0)
(3.41151e-06 -1.2864e-06 0)
(3.40982e-06 -1.2859e-06 0)
(3.4084e-06 -1.28557e-06 0)
(3.40724e-06 -1.28539e-06 0)
(3.40632e-06 -1.28535e-06 0)
(3.40565e-06 -1.28546e-06 0)
(3.40521e-06 -1.28571e-06 0)
(3.405e-06 -1.28608e-06 0)
(3.40501e-06 -1.28658e-06 0)
(3.40523e-06 -1.28721e-06 0)
(3.40566e-06 -1.28795e-06 0)
(3.40629e-06 -1.2888e-06 0)
(3.40712e-06 -1.28977e-06 0)
(3.40814e-06 -1.29084e-06 0)
(3.40935e-06 -1.29201e-06 0)
(3.41073e-06 -1.29327e-06 0)
(3.41229e-06 -1.29464e-06 0)
(3.41401e-06 -1.29609e-06 0)
(3.41591e-06 -1.29763e-06 0)
(3.41796e-06 -1.29925e-06 0)
(3.42017e-06 -1.30095e-06 0)
(3.42252e-06 -1.30274e-06 0)
(3.42503e-06 -1.30459e-06 0)
(3.42768e-06 -1.30652e-06 0)
(3.43046e-06 -1.30852e-06 0)
(3.43338e-06 -1.31058e-06 0)
(3.43644e-06 -1.31271e-06 0)
(3.43962e-06 -1.31491e-06 0)
(3.44292e-06 -1.31716e-06 0)
(3.44634e-06 -1.31947e-06 0)
(3.44989e-06 -1.32183e-06 0)
(3.45354e-06 -1.32424e-06 0)
(3.45731e-06 -1.32671e-06 0)
(3.46118e-06 -1.32923e-06 0)
(3.46516e-06 -1.33179e-06 0)
(3.46924e-06 -1.3344e-06 0)
(3.47342e-06 -1.33705e-06 0)
(3.4777e-06 -1.33974e-06 0)
(3.48207e-06 -1.34248e-06 0)
(3.48654e-06 -1.34525e-06 0)
(3.49109e-06 -1.34805e-06 0)
(3.49573e-06 -1.3509e-06 0)
(3.50045e-06 -1.35377e-06 0)
(3.50525e-06 -1.35668e-06 0)
(3.51014e-06 -1.35962e-06 0)
(3.5151e-06 -1.36259e-06 0)
(3.52014e-06 -1.36558e-06 0)
(3.52525e-06 -1.36861e-06 0)
(3.53043e-06 -1.37165e-06 0)
(3.53568e-06 -1.37472e-06 0)
(3.541e-06 -1.37782e-06 0)
(3.54639e-06 -1.38094e-06 0)
(3.55184e-06 -1.38408e-06 0)
(3.55737e-06 -1.38724e-06 0)
(3.99012e-06 -1.68246e-06 0)
(3.95698e-06 -1.6605e-06 0)
(3.92531e-06 -1.63954e-06 0)
(3.89504e-06 -1.61966e-06 0)
(3.86612e-06 -1.60074e-06 0)
(3.83849e-06 -1.58278e-06 0)
(3.81209e-06 -1.5657e-06 0)
(3.78688e-06 -1.54948e-06 0)
(3.76279e-06 -1.53407e-06 0)
(3.73979e-06 -1.51944e-06 0)
(3.71783e-06 -1.50556e-06 0)
(3.69687e-06 -1.49238e-06 0)
(3.67687e-06 -1.47987e-06 0)
(3.65778e-06 -1.46802e-06 0)
(3.63957e-06 -1.45678e-06 0)
(3.62221e-06 -1.44614e-06 0)
(3.60567e-06 -1.43606e-06 0)
(3.5899e-06 -1.42652e-06 0)
(3.57489e-06 -1.4175e-06 0)
(3.56061e-06 -1.40898e-06 0)
(3.54702e-06 -1.40093e-06 0)
(3.5341e-06 -1.39334e-06 0)
(3.52182e-06 -1.38618e-06 0)
(3.51017e-06 -1.37945e-06 0)
(3.49912e-06 -1.37311e-06 0)
(3.48865e-06 -1.36716e-06 0)
(3.47873e-06 -1.36158e-06 0)
(3.46935e-06 -1.35636e-06 0)
(3.46049e-06 -1.35147e-06 0)
(3.45213e-06 -1.34691e-06 0)
(3.44425e-06 -1.34267e-06 0)
(3.43684e-06 -1.33872e-06 0)
(3.42987e-06 -1.33508e-06 0)
(3.42333e-06 -1.33171e-06 0)
(3.41723e-06 -1.3286e-06 0)
(3.41153e-06 -1.32575e-06 0)
(3.40622e-06 -1.32314e-06 0)
(3.40129e-06 -1.32078e-06 0)
(3.39673e-06 -1.31864e-06 0)
(3.39252e-06 -1.31673e-06 0)
(3.38866e-06 -1.31502e-06 0)
(3.38513e-06 -1.31352e-06 0)
(3.38192e-06 -1.31222e-06 0)
(3.37903e-06 -1.31111e-06 0)
(3.37643e-06 -1.31017e-06 0)
(3.37413e-06 -1.30941e-06 0)
(3.37212e-06 -1.30882e-06 0)
(3.37037e-06 -1.3084e-06 0)
(3.3689e-06 -1.30813e-06 0)
(3.36768e-06 -1.30801e-06 0)
(3.36671e-06 -1.30803e-06 0)
(3.36599e-06 -1.3082e-06 0)
(3.3655e-06 -1.3085e-06 0)
(3.36524e-06 -1.30892e-06 0)
(3.3652e-06 -1.30948e-06 0)
(3.36537e-06 -1.31015e-06 0)
(3.36576e-06 -1.31094e-06 0)
(3.36634e-06 -1.31184e-06 0)
(3.36713e-06 -1.31285e-06 0)
(3.3681e-06 -1.31397e-06 0)
(3.36926e-06 -1.31518e-06 0)
(3.3706e-06 -1.31649e-06 0)
(3.37211e-06 -1.31789e-06 0)
(3.3738e-06 -1.31938e-06 0)
(3.37565e-06 -1.32096e-06 0)
(3.37765e-06 -1.32262e-06 0)
(3.37982e-06 -1.32436e-06 0)
(3.38213e-06 -1.32618e-06 0)
(3.3846e-06 -1.32807e-06 0)
(3.3872e-06 -1.33004e-06 0)
(3.38995e-06 -1.33207e-06 0)
(3.39283e-06 -1.33417e-06 0)
(3.39584e-06 -1.33633e-06 0)
(3.39897e-06 -1.33855e-06 0)
(3.40224e-06 -1.34083e-06 0)
(3.40562e-06 -1.34317e-06 0)
(3.40912e-06 -1.34557e-06 0)
(3.41273e-06 -1.34801e-06 0)
(3.41646e-06 -1.35051e-06 0)
(3.42029e-06 -1.35305e-06 0)
(3.42423e-06 -1.35564e-06 0)
(3.42827e-06 -1.35828e-06 0)
(3.43241e-06 -1.36096e-06 0)
(3.43664e-06 -1.36368e-06 0)
(3.44097e-06 -1.36644e-06 0)
(3.44539e-06 -1.36923e-06 0)
(3.4499e-06 -1.37207e-06 0)
(3.4545e-06 -1.37494e-06 0)
(3.45918e-06 -1.37784e-06 0)
(3.46394e-06 -1.38077e-06 0)
(3.46878e-06 -1.38373e-06 0)
(3.4737e-06 -1.38673e-06 0)
(3.47869e-06 -1.38975e-06 0)
(3.48376e-06 -1.39279e-06 0)
(3.4889e-06 -1.39586e-06 0)
(3.49411e-06 -1.39896e-06 0)
(3.49938e-06 -1.40208e-06 0)
(3.50472e-06 -1.40522e-06 0)
(3.51013e-06 -1.40839e-06 0)
(3.5156e-06 -1.41156e-06 0)
(3.95725e-06 -1.69587e-06 0)
(3.92378e-06 -1.67437e-06 0)
(3.89179e-06 -1.65386e-06 0)
(3.86121e-06 -1.63439e-06 0)
(3.83201e-06 -1.61587e-06 0)
(3.80411e-06 -1.59829e-06 0)
(3.77745e-06 -1.58157e-06 0)
(3.75199e-06 -1.5657e-06 0)
(3.72767e-06 -1.55062e-06 0)
(3.70445e-06 -1.53631e-06 0)
(3.68228e-06 -1.52272e-06 0)
(3.66111e-06 -1.50983e-06 0)
(3.64091e-06 -1.4976e-06 0)
(3.62164e-06 -1.48601e-06 0)
(3.60326e-06 -1.47502e-06 0)
(3.58573e-06 -1.46462e-06 0)
(3.56903e-06 -1.45477e-06 0)
(3.55311e-06 -1.44545e-06 0)
(3.53795e-06 -1.43664e-06 0)
(3.52353e-06 -1.42832e-06 0)
(3.5098e-06 -1.42046e-06 0)
(3.49675e-06 -1.41305e-06 0)
(3.48436e-06 -1.40608e-06 0)
(3.47259e-06 -1.39951e-06 0)
(3.46142e-06 -1.39334e-06 0)
(3.45084e-06 -1.38754e-06 0)
(3.44082e-06 -1.38211e-06 0)
(3.43134e-06 -1.37703e-06 0)
(3.42238e-06 -1.37228e-06 0)
(3.41392e-06 -1.36785e-06 0)
(3.40595e-06 -1.36373e-06 0)
(3.39845e-06 -1.35991e-06 0)
(3.3914e-06 -1.35637e-06 0)
(3.38479e-06 -1.35311e-06 0)
(3.37861e-06 -1.35012e-06 0)
(3.37283e-06 -1.34737e-06 0)
(3.36745e-06 -1.34487e-06 0)
(3.36245e-06 -1.3426e-06 0)
(3.35782e-06 -1.34055e-06 0)
(3.35355e-06 -1.33873e-06 0)
(3.34962e-06 -1.33711e-06 0)
(3.34603e-06 -1.33569e-06 0)
(3.34276e-06 -1.33447e-06 0)
(3.3398e-06 -1.33343e-06 0)
(3.33715e-06 -1.33257e-06 0)
(3.33479e-06 -1.33188e-06 0)
(3.33272e-06 -1.33136e-06 0)
(3.33092e-06 -1.331e-06 0)
(3.3294e-06 -1.33079e-06 0)
(3.32813e-06 -1.33073e-06 0)
(3.32711e-06 -1.33082e-06 0)
(3.32633e-06 -1.33104e-06 0)
(3.32579e-06 -1.3314e-06 0)
(3.32548e-06 -1.33188e-06 0)
(3.3254e-06 -1.33249e-06 0)
(3.32552e-06 -1.33321e-06 0)
(3.32586e-06 -1.33405e-06 0)
(3.3264e-06 -1.335e-06 0)
(3.32714e-06 -1.33605e-06 0)
(3.32807e-06 -1.33721e-06 0)
(3.32918e-06 -1.33847e-06 0)
(3.33048e-06 -1.33982e-06 0)
(3.33195e-06 -1.34127e-06 0)
(3.33359e-06 -1.3428e-06 0)
(3.33539e-06 -1.34442e-06 0)
(3.33736e-06 -1.34611e-06 0)
(3.33948e-06 -1.34789e-06 0)
(3.34176e-06 -1.34975e-06 0)
(3.34418e-06 -1.35167e-06 0)
(3.34674e-06 -1.35367e-06 0)
(3.34944e-06 -1.35574e-06 0)
(3.35228e-06 -1.35787e-06 0)
(3.35525e-06 -1.36006e-06 0)
(3.35835e-06 -1.36232e-06 0)
(3.36157e-06 -1.36463e-06 0)
(3.36491e-06 -1.367e-06 0)
(3.36837e-06 -1.36943e-06 0)
(3.37194e-06 -1.3719e-06 0)
(3.37562e-06 -1.37443e-06 0)
(3.37941e-06 -1.377e-06 0)
(3.38331e-06 -1.37962e-06 0)
(3.38731e-06 -1.38228e-06 0)
(3.3914e-06 -1.38499e-06 0)
(3.3956e-06 -1.38773e-06 0)
(3.39988e-06 -1.39052e-06 0)
(3.40426e-06 -1.39334e-06 0)
(3.40873e-06 -1.3962e-06 0)
(3.41328e-06 -1.3991e-06 0)
(3.41792e-06 -1.40202e-06 0)
(3.42264e-06 -1.40498e-06 0)
(3.42744e-06 -1.40797e-06 0)
(3.43231e-06 -1.41099e-06 0)
(3.43726e-06 -1.41403e-06 0)
(3.44229e-06 -1.4171e-06 0)
(3.44738e-06 -1.4202e-06 0)
(3.45254e-06 -1.42332e-06 0)
(3.45777e-06 -1.42646e-06 0)
(3.46307e-06 -1.42962e-06 0)
(3.46842e-06 -1.43281e-06 0)
(3.47385e-06 -1.43601e-06 0)
(3.92415e-06 -1.70919e-06 0)
(3.89035e-06 -1.68816e-06 0)
(3.85806e-06 -1.66809e-06 0)
(3.8272e-06 -1.64905e-06 0)
(3.79772e-06 -1.63095e-06 0)
(3.76955e-06 -1.61375e-06 0)
(3.74265e-06 -1.5974e-06 0)
(3.71695e-06 -1.58188e-06 0)
(3.69241e-06 -1.56714e-06 0)
(3.66897e-06 -1.55315e-06 0)
(3.64659e-06 -1.53987e-06 0)
(3.62523e-06 -1.52727e-06 0)
(3.60485e-06 -1.51533e-06 0)
(3.5854e-06 -1.504e-06 0)
(3.56684e-06 -1.49327e-06 0)
(3.54916e-06 -1.48311e-06 0)
(3.5323e-06 -1.4735e-06 0)
(3.51623e-06 -1.4644e-06 0)
(3.50093e-06 -1.45581e-06 0)
(3.48637e-06 -1.44769e-06 0)
(3.47252e-06 -1.44003e-06 0)
(3.45935e-06 -1.43281e-06 0)
(3.44683e-06 -1.42601e-06 0)
(3.43495e-06 -1.41962e-06 0)
(3.42367e-06 -1.41361e-06 0)
(3.41298e-06 -1.40798e-06 0)
(3.40286e-06 -1.4027e-06 0)
(3.39328e-06 -1.39776e-06 0)
(3.38423e-06 -1.39315e-06 0)
(3.37568e-06 -1.38886e-06 0)
(3.36763e-06 -1.38487e-06 0)
(3.36004e-06 -1.38117e-06 0)
(3.35291e-06 -1.37775e-06 0)
(3.34623e-06 -1.37461e-06 0)
(3.33997e-06 -1.37172e-06 0)
(3.33412e-06 -1.36908e-06 0)
(3.32866e-06 -1.36667e-06 0)
(3.3236e-06 -1.3645e-06 0)
(3.3189e-06 -1.36255e-06 0)
(3.31456e-06 -1.36082e-06 0)
(3.31057e-06 -1.35929e-06 0)
(3.30692e-06 -1.35795e-06 0)
(3.30359e-06 -1.35681e-06 0)
(3.30058e-06 -1.35585e-06 0)
(3.29787e-06 -1.35506e-06 0)
(3.29546e-06 -1.35445e-06 0)
(3.29333e-06 -1.354e-06 0)
(3.29148e-06 -1.3537e-06 0)
(3.2899e-06 -1.35356e-06 0)
(3.28858e-06 -1.35356e-06 0)
(3.28751e-06 -1.35371e-06 0)
(3.28668e-06 -1.35399e-06 0)
(3.2861e-06 -1.3544e-06 0)
(3.28574e-06 -1.35494e-06 0)
(3.28561e-06 -1.3556e-06 0)
(3.28569e-06 -1.35638e-06 0)
(3.28598e-06 -1.35726e-06 0)
(3.28647e-06 -1.35826e-06 0)
(3.28717e-06 -1.35937e-06 0)
(3.28805e-06 -1.36057e-06 0)
(3.28912e-06 -1.36187e-06 0)
(3.29037e-06 -1.36327e-06 0)
(3.2918e-06 -1.36475e-06 0)
(3.2934e-06 -1.36632e-06 0)
(3.29516e-06 -1.36798e-06 0)
(3.29709e-06 -1.36972e-06 0)
(3.29917e-06 -1.37153e-06 0)
(3.3014e-06 -1.37343e-06 0)
(3.30378e-06 -1.37539e-06 0)
(3.3063e-06 -1.37742e-06 0)
(3.30896e-06 -1.37952e-06 0)
(3.31175e-06 -1.38169e-06 0)
(3.31468e-06 -1.38391e-06 0)
(3.31774e-06 -1.3862e-06 0)
(3.32092e-06 -1.38855e-06 0)
(3.32422e-06 -1.39095e-06 0)
(3.32763e-06 -1.3934e-06 0)
(3.33116e-06 -1.3959e-06 0)
(3.33481e-06 -1.39846e-06 0)
(3.33855e-06 -1.40106e-06 0)
(3.34241e-06 -1.40371e-06 0)
(3.34637e-06 -1.4064e-06 0)
(3.35042e-06 -1.40913e-06 0)
(3.35457e-06 -1.4119e-06 0)
(3.35882e-06 -1.41471e-06 0)
(3.36315e-06 -1.41756e-06 0)
(3.36758e-06 -1.42045e-06 0)
(3.37209e-06 -1.42337e-06 0)
(3.37668e-06 -1.42632e-06 0)
(3.38136e-06 -1.42931e-06 0)
(3.38611e-06 -1.43232e-06 0)
(3.39095e-06 -1.43536e-06 0)
(3.39585e-06 -1.43843e-06 0)
(3.40083e-06 -1.44152e-06 0)
(3.40588e-06 -1.44464e-06 0)
(3.411e-06 -1.44779e-06 0)
(3.41618e-06 -1.45095e-06 0)
(3.42143e-06 -1.45414e-06 0)
(3.42674e-06 -1.45735e-06 0)
(3.43212e-06 -1.46057e-06 0)
(3.89082e-06 -1.72241e-06 0)
(3.85671e-06 -1.70186e-06 0)
(3.82412e-06 -1.68225e-06 0)
(3.79298e-06 -1.66365e-06 0)
(3.76324e-06 -1.64596e-06 0)
(3.73482e-06 -1.62916e-06 0)
(3.70768e-06 -1.61319e-06 0)
(3.68175e-06 -1.59803e-06 0)
(3.65699e-06 -1.58364e-06 0)
(3.63335e-06 -1.56997e-06 0)
(3.61078e-06 -1.55701e-06 0)
(3.58923e-06 -1.54471e-06 0)
(3.56866e-06 -1.53305e-06 0)
(3.54904e-06 -1.522e-06 0)
(3.53033e-06 -1.51153e-06 0)
(3.51249e-06 -1.50162e-06 0)
(3.49548e-06 -1.49224e-06 0)
(3.47927e-06 -1.48338e-06 0)
(3.46384e-06 -1.475e-06 0)
(3.44915e-06 -1.4671e-06 0)
(3.43517e-06 -1.45964e-06 0)
(3.42188e-06 -1.45261e-06 0)
(3.40925e-06 -1.446e-06 0)
(3.39725e-06 -1.43978e-06 0)
(3.38587e-06 -1.43394e-06 0)
(3.37508e-06 -1.42846e-06 0)
(3.36486e-06 -1.42334e-06 0)
(3.35519e-06 -1.41855e-06 0)
(3.34605e-06 -1.41409e-06 0)
(3.33742e-06 -1.40993e-06 0)
(3.32928e-06 -1.40607e-06 0)
(3.32161e-06 -1.4025e-06 0)
(3.31441e-06 -1.3992e-06 0)
(3.30765e-06 -1.39617e-06 0)
(3.30131e-06 -1.39339e-06 0)
(3.29539e-06 -1.39086e-06 0)
(3.28987e-06 -1.38856e-06 0)
(3.28474e-06 -1.38649e-06 0)
(3.27998e-06 -1.38464e-06 0)
(3.27558e-06 -1.38299e-06 0)
(3.27152e-06 -1.38155e-06 0)
(3.26781e-06 -1.3803e-06 0)
(3.26443e-06 -1.37924e-06 0)
(3.26136e-06 -1.37835e-06 0)
(3.25859e-06 -1.37765e-06 0)
(3.25613e-06 -1.37711e-06 0)
(3.25395e-06 -1.37672e-06 0)
(3.25204e-06 -1.3765e-06 0)
(3.25041e-06 -1.37642e-06 0)
(3.24904e-06 -1.37649e-06 0)
(3.24792e-06 -1.3767e-06 0)
(3.24705e-06 -1.37704e-06 0)
(3.24642e-06 -1.37751e-06 0)
(3.24601e-06 -1.3781e-06 0)
(3.24583e-06 -1.37881e-06 0)
(3.24587e-06 -1.37964e-06 0)
(3.24612e-06 -1.38058e-06 0)
(3.24657e-06 -1.38163e-06 0)
(3.24722e-06 -1.38278e-06 0)
(3.24806e-06 -1.38403e-06 0)
(3.24908e-06 -1.38537e-06 0)
(3.25029e-06 -1.38681e-06 0)
(3.25168e-06 -1.38834e-06 0)
(3.25323e-06 -1.38996e-06 0)
(3.25495e-06 -1.39165e-06 0)
(3.25684e-06 -1.39343e-06 0)
(3.25887e-06 -1.39528e-06 0)
(3.26106e-06 -1.39721e-06 0)
(3.2634e-06 -1.39921e-06 0)
(3.26588e-06 -1.40128e-06 0)
(3.2685e-06 -1.40341e-06 0)
(3.27126e-06 -1.40561e-06 0)
(3.27414e-06 -1.40787e-06 0)
(3.27716e-06 -1.41019e-06 0)
(3.28029e-06 -1.41257e-06 0)
(3.28355e-06 -1.415e-06 0)
(3.28693e-06 -1.41748e-06 0)
(3.29042e-06 -1.42001e-06 0)
(3.29402e-06 -1.4226e-06 0)
(3.29773e-06 -1.42523e-06 0)
(3.30154e-06 -1.4279e-06 0)
(3.30545e-06 -1.43062e-06 0)
(3.30947e-06 -1.43338e-06 0)
(3.31358e-06 -1.43618e-06 0)
(3.31778e-06 -1.43902e-06 0)
(3.32207e-06 -1.4419e-06 0)
(3.32645e-06 -1.44481e-06 0)
(3.33092e-06 -1.44775e-06 0)
(3.33547e-06 -1.45073e-06 0)
(3.34011e-06 -1.45374e-06 0)
(3.34482e-06 -1.45678e-06 0)
(3.34961e-06 -1.45984e-06 0)
(3.35447e-06 -1.46294e-06 0)
(3.3594e-06 -1.46605e-06 0)
(3.36441e-06 -1.4692e-06 0)
(3.36948e-06 -1.47237e-06 0)
(3.37462e-06 -1.47556e-06 0)
(3.37982e-06 -1.47877e-06 0)
(3.38508e-06 -1.482e-06 0)
(3.39041e-06 -1.48524e-06 0)
(3.85726e-06 -1.73553e-06 0)
(3.82286e-06 -1.71548e-06 0)
(3.78999e-06 -1.69633e-06 0)
(3.75858e-06 -1.67818e-06 0)
(3.72858e-06 -1.66091e-06 0)
(3.69992e-06 -1.64451e-06 0)
(3.67255e-06 -1.62893e-06 0)
(3.64641e-06 -1.61414e-06 0)
(3.62144e-06 -1.6001e-06 0)
(3.5976e-06 -1.58677e-06 0)
(3.57484e-06 -1.57413e-06 0)
(3.55311e-06 -1.56213e-06 0)
(3.53238e-06 -1.55077e-06 0)
(3.51259e-06 -1.53999e-06 0)
(3.49372e-06 -1.52979e-06 0)
(3.47573e-06 -1.52014e-06 0)
(3.45858e-06 -1.51101e-06 0)
(3.44224e-06 -1.50237e-06 0)
(3.42667e-06 -1.49422e-06 0)
(3.41186e-06 -1.48653e-06 0)
(3.39776e-06 -1.47927e-06 0)
(3.38436e-06 -1.47244e-06 0)
(3.37162e-06 -1.46601e-06 0)
(3.35952e-06 -1.45998e-06 0)
(3.34804e-06 -1.45431e-06 0)
(3.33715e-06 -1.449e-06 0)
(3.32684e-06 -1.44403e-06 0)
(3.31708e-06 -1.4394e-06 0)
(3.30785e-06 -1.43508e-06 0)
(3.29913e-06 -1.43106e-06 0)
(3.29091e-06 -1.42734e-06 0)
(3.28317e-06 -1.42389e-06 0)
(3.27589e-06 -1.42072e-06 0)
(3.26905e-06 -1.4178e-06 0)
(3.26265e-06 -1.41514e-06 0)
(3.25666e-06 -1.41272e-06 0)
(3.25108e-06 -1.41052e-06 0)
(3.24588e-06 -1.40855e-06 0)
(3.24105e-06 -1.40679e-06 0)
(3.23659e-06 -1.40524e-06 0)
(3.23248e-06 -1.40389e-06 0)
(3.22871e-06 -1.40273e-06 0)
(3.22527e-06 -1.40175e-06 0)
(3.22215e-06 -1.40095e-06 0)
(3.21933e-06 -1.40032e-06 0)
(3.21681e-06 -1.39985e-06 0)
(3.21458e-06 -1.39954e-06 0)
(3.21263e-06 -1.39938e-06 0)
(3.21095e-06 -1.39938e-06 0)
(3.20953e-06 -1.39951e-06 0)
(3.20836e-06 -1.39978e-06 0)
(3.20744e-06 -1.40018e-06 0)
(3.20676e-06 -1.40071e-06 0)
(3.20631e-06 -1.40136e-06 0)
(3.20609e-06 -1.40212e-06 0)
(3.20608e-06 -1.403e-06 0)
(3.20628e-06 -1.40399e-06 0)
(3.20669e-06 -1.40509e-06 0)
(3.20729e-06 -1.40629e-06 0)
(3.20809e-06 -1.40759e-06 0)
(3.20908e-06 -1.40898e-06 0)
(3.21024e-06 -1.41046e-06 0)
(3.21159e-06 -1.41203e-06 0)
(3.2131e-06 -1.41368e-06 0)
(3.21478e-06 -1.41542e-06 0)
(3.21662e-06 -1.41724e-06 0)
(3.21862e-06 -1.41913e-06 0)
(3.22076e-06 -1.42109e-06 0)
(3.22306e-06 -1.42313e-06 0)
(3.2255e-06 -1.42523e-06 0)
(3.22808e-06 -1.4274e-06 0)
(3.23079e-06 -1.42963e-06 0)
(3.23364e-06 -1.43193e-06 0)
(3.23661e-06 -1.43428e-06 0)
(3.23971e-06 -1.43669e-06 0)
(3.24292e-06 -1.43915e-06 0)
(3.24626e-06 -1.44166e-06 0)
(3.24971e-06 -1.44423e-06 0)
(3.25326e-06 -1.44684e-06 0)
(3.25693e-06 -1.4495e-06 0)
(3.2607e-06 -1.4522e-06 0)
(3.26458e-06 -1.45495e-06 0)
(3.26855e-06 -1.45774e-06 0)
(3.27261e-06 -1.46056e-06 0)
(3.27676e-06 -1.46342e-06 0)
(3.28102e-06 -1.46632e-06 0)
(3.28537e-06 -1.46926e-06 0)
(3.28979e-06 -1.47223e-06 0)
(3.2943e-06 -1.47524e-06 0)
(3.29889e-06 -1.47827e-06 0)
(3.30356e-06 -1.48133e-06 0)
(3.3083e-06 -1.48442e-06 0)
(3.31312e-06 -1.48754e-06 0)
(3.31801e-06 -1.49069e-06 0)
(3.32297e-06 -1.49385e-06 0)
(3.32799e-06 -1.49704e-06 0)
(3.33309e-06 -1.50026e-06 0)
(3.33825e-06 -1.50349e-06 0)
(3.34346e-06 -1.50675e-06 0)
(3.34875e-06 -1.51001e-06 0)
(3.82347e-06 -1.74855e-06 0)
(3.78879e-06 -1.729e-06 0)
(3.75565e-06 -1.71033e-06 0)
(3.72399e-06 -1.69263e-06 0)
(3.69375e-06 -1.6758e-06 0)
(3.66486e-06 -1.65981e-06 0)
(3.63727e-06 -1.64463e-06 0)
(3.61092e-06 -1.63021e-06 0)
(3.58575e-06 -1.61653e-06 0)
(3.56172e-06 -1.60354e-06 0)
(3.53878e-06 -1.59122e-06 0)
(3.51688e-06 -1.57954e-06 0)
(3.49598e-06 -1.56847e-06 0)
(3.47604e-06 -1.55799e-06 0)
(3.45702e-06 -1.54806e-06 0)
(3.43889e-06 -1.53866e-06 0)
(3.4216e-06 -1.52978e-06 0)
(3.40513e-06 -1.52138e-06 0)
(3.38944e-06 -1.51346e-06 0)
(3.37451e-06 -1.50598e-06 0)
(3.3603e-06 -1.49894e-06 0)
(3.34678e-06 -1.4923e-06 0)
(3.33394e-06 -1.48607e-06 0)
(3.32174e-06 -1.48021e-06 0)
(3.31016e-06 -1.47472e-06 0)
(3.29918e-06 -1.46958e-06 0)
(3.28878e-06 -1.46477e-06 0)
(3.27893e-06 -1.46029e-06 0)
(3.26962e-06 -1.45612e-06 0)
(3.26083e-06 -1.45224e-06 0)
(3.25253e-06 -1.44866e-06 0)
(3.24472e-06 -1.44534e-06 0)
(3.23736e-06 -1.44229e-06 0)
(3.23046e-06 -1.4395e-06 0)
(3.22399e-06 -1.43695e-06 0)
(3.21793e-06 -1.43464e-06 0)
(3.21228e-06 -1.43255e-06 0)
(3.20702e-06 -1.43068e-06 0)
(3.20214e-06 -1.42902e-06 0)
(3.19762e-06 -1.42757e-06 0)
(3.19345e-06 -1.42631e-06 0)
(3.18963e-06 -1.42523e-06 0)
(3.18613e-06 -1.42434e-06 0)
(3.18295e-06 -1.42362e-06 0)
(3.18009e-06 -1.42306e-06 0)
(3.17752e-06 -1.42267e-06 0)
(3.17523e-06 -1.42244e-06 0)
(3.17323e-06 -1.42235e-06 0)
(3.1715e-06 -1.42241e-06 0)
(3.17004e-06 -1.42261e-06 0)
(3.16883e-06 -1.42294e-06 0)
(3.16786e-06 -1.4234e-06 0)
(3.16714e-06 -1.42399e-06 0)
(3.16664e-06 -1.4247e-06 0)
(3.16637e-06 -1.42552e-06 0)
(3.16632e-06 -1.42645e-06 0)
(3.16648e-06 -1.4275e-06 0)
(3.16684e-06 -1.42864e-06 0)
(3.16741e-06 -1.42989e-06 0)
(3.16816e-06 -1.43123e-06 0)
(3.1691e-06 -1.43267e-06 0)
(3.17023e-06 -1.4342e-06 0)
(3.17153e-06 -1.43581e-06 0)
(3.173e-06 -1.43751e-06 0)
(3.17464e-06 -1.43928e-06 0)
(3.17644e-06 -1.44114e-06 0)
(3.1784e-06 -1.44307e-06 0)
(3.1805e-06 -1.44507e-06 0)
(3.18276e-06 -1.44714e-06 0)
(3.18516e-06 -1.44928e-06 0)
(3.18769e-06 -1.45149e-06 0)
(3.19037e-06 -1.45375e-06 0)
(3.19317e-06 -1.45608e-06 0)
(3.1961e-06 -1.45846e-06 0)
(3.19916e-06 -1.4609e-06 0)
(3.20233e-06 -1.4634e-06 0)
(3.20563e-06 -1.46594e-06 0)
(3.20903e-06 -1.46853e-06 0)
(3.21254e-06 -1.47118e-06 0)
(3.21618e-06 -1.47386e-06 0)
(3.21992e-06 -1.47659e-06 0)
(3.22374e-06 -1.47937e-06 0)
(3.22767e-06 -1.48219e-06 0)
(3.23169e-06 -1.48505e-06 0)
(3.2358e-06 -1.48793e-06 0)
(3.24002e-06 -1.49085e-06 0)
(3.24433e-06 -1.49381e-06 0)
(3.2487e-06 -1.49681e-06 0)
(3.25317e-06 -1.49984e-06 0)
(3.25771e-06 -1.5029e-06 0)
(3.26233e-06 -1.50598e-06 0)
(3.26703e-06 -1.5091e-06 0)
(3.27181e-06 -1.51224e-06 0)
(3.27665e-06 -1.51541e-06 0)
(3.28157e-06 -1.5186e-06 0)
(3.28655e-06 -1.52182e-06 0)
(3.2916e-06 -1.52505e-06 0)
(3.29671e-06 -1.52831e-06 0)
(3.30188e-06 -1.53159e-06 0)
(3.30712e-06 -1.53488e-06 0)
(3.78946e-06 -1.76147e-06 0)
(3.75451e-06 -1.74243e-06 0)
(3.72112e-06 -1.72425e-06 0)
(3.68921e-06 -1.70701e-06 0)
(3.65874e-06 -1.69062e-06 0)
(3.62963e-06 -1.67506e-06 0)
(3.60183e-06 -1.66027e-06 0)
(3.57528e-06 -1.64624e-06 0)
(3.54993e-06 -1.63292e-06 0)
(3.52572e-06 -1.62028e-06 0)
(3.5026e-06 -1.60829e-06 0)
(3.48054e-06 -1.59693e-06 0)
(3.45949e-06 -1.58616e-06 0)
(3.4394e-06 -1.57597e-06 0)
(3.42024e-06 -1.56631e-06 0)
(3.40197e-06 -1.55718e-06 0)
(3.38456e-06 -1.54855e-06 0)
(3.36796e-06 -1.5404e-06 0)
(3.35215e-06 -1.53271e-06 0)
(3.33711e-06 -1.52545e-06 0)
(3.32279e-06 -1.51862e-06 0)
(3.30917e-06 -1.51219e-06 0)
(3.29623e-06 -1.50615e-06 0)
(3.28393e-06 -1.50048e-06 0)
(3.27226e-06 -1.49516e-06 0)
(3.26119e-06 -1.49019e-06 0)
(3.25071e-06 -1.48555e-06 0)
(3.24078e-06 -1.48123e-06 0)
(3.23139e-06 -1.4772e-06 0)
(3.22251e-06 -1.47347e-06 0)
(3.21414e-06 -1.47002e-06 0)
(3.20626e-06 -1.46684e-06 0)
(3.19884e-06 -1.46392e-06 0)
(3.19187e-06 -1.46125e-06 0)
(3.18533e-06 -1.45882e-06 0)
(3.17921e-06 -1.45662e-06 0)
(3.1735e-06 -1.45464e-06 0)
(3.16818e-06 -1.45288e-06 0)
(3.16324e-06 -1.45132e-06 0)
(3.15867e-06 -1.44996e-06 0)
(3.15444e-06 -1.44879e-06 0)
(3.15056e-06 -1.4478e-06 0)
(3.14702e-06 -1.447e-06 0)
(3.14379e-06 -1.44636e-06 0)
(3.14087e-06 -1.44589e-06 0)
(3.13825e-06 -1.44557e-06 0)
(3.13592e-06 -1.44541e-06 0)
(3.13387e-06 -1.44539e-06 0)
(3.1321e-06 -1.44552e-06 0)
(3.13058e-06 -1.44579e-06 0)
(3.12933e-06 -1.44618e-06 0)
(3.12832e-06 -1.44671e-06 0)
(3.12755e-06 -1.44735e-06 0)
(3.12701e-06 -1.44812e-06 0)
(3.12669e-06 -1.449e-06 0)
(3.1266e-06 -1.44998e-06 0)
(3.12672e-06 -1.45108e-06 0)
(3.12704e-06 -1.45228e-06 0)
(3.12756e-06 -1.45357e-06 0)
(3.12827e-06 -1.45496e-06 0)
(3.12918e-06 -1.45644e-06 0)
(3.13026e-06 -1.45802e-06 0)
(3.13152e-06 -1.45967e-06 0)
(3.13295e-06 -1.46141e-06 0)
(3.13455e-06 -1.46323e-06 0)
(3.13631e-06 -1.46513e-06 0)
(3.13822e-06 -1.46709e-06 0)
(3.14029e-06 -1.46913e-06 0)
(3.1425e-06 -1.47124e-06 0)
(3.14486e-06 -1.47342e-06 0)
(3.14736e-06 -1.47566e-06 0)
(3.14999e-06 -1.47796e-06 0)
(3.15275e-06 -1.48032e-06 0)
(3.15565e-06 -1.48273e-06 0)
(3.15866e-06 -1.4852e-06 0)
(3.16179e-06 -1.48773e-06 0)
(3.16505e-06 -1.4903e-06 0)
(3.16841e-06 -1.49293e-06 0)
(3.17189e-06 -1.4956e-06 0)
(3.17548e-06 -1.49832e-06 0)
(3.17916e-06 -1.50108e-06 0)
(3.18295e-06 -1.50388e-06 0)
(3.18684e-06 -1.50672e-06 0)
(3.19082e-06 -1.5096e-06 0)
(3.19491e-06 -1.51253e-06 0)
(3.19907e-06 -1.51548e-06 0)
(3.20332e-06 -1.51846e-06 0)
(3.20766e-06 -1.52148e-06 0)
(3.21208e-06 -1.52453e-06 0)
(3.21658e-06 -1.52761e-06 0)
(3.22116e-06 -1.53073e-06 0)
(3.22581e-06 -1.53387e-06 0)
(3.23054e-06 -1.53703e-06 0)
(3.23534e-06 -1.54022e-06 0)
(3.24021e-06 -1.54344e-06 0)
(3.24515e-06 -1.54667e-06 0)
(3.25015e-06 -1.54993e-06 0)
(3.25522e-06 -1.55321e-06 0)
(3.26035e-06 -1.55652e-06 0)
(3.26554e-06 -1.55983e-06 0)
(3.75524e-06 -1.77429e-06 0)
(3.72002e-06 -1.75577e-06 0)
(3.68639e-06 -1.73809e-06 0)
(3.65425e-06 -1.72132e-06 0)
(3.62356e-06 -1.70537e-06 0)
(3.59424e-06 -1.69024e-06 0)
(3.56625e-06 -1.67586e-06 0)
(3.53951e-06 -1.66222e-06 0)
(3.51397e-06 -1.64927e-06 0)
(3.48959e-06 -1.63699e-06 0)
(3.46632e-06 -1.62534e-06 0)
(3.4441e-06 -1.6143e-06 0)
(3.4229e-06 -1.60384e-06 0)
(3.40267e-06 -1.59394e-06 0)
(3.38338e-06 -1.58457e-06 0)
(3.36498e-06 -1.5757e-06 0)
(3.34744e-06 -1.56733e-06 0)
(3.33073e-06 -1.55942e-06 0)
(3.31481e-06 -1.55197e-06 0)
(3.29965e-06 -1.54494e-06 0)
(3.28523e-06 -1.53832e-06 0)
(3.27151e-06 -1.5321e-06 0)
(3.25848e-06 -1.52625e-06 0)
(3.24609e-06 -1.52077e-06 0)
(3.23433e-06 -1.51564e-06 0)
(3.22318e-06 -1.51084e-06 0)
(3.21261e-06 -1.50637e-06 0)
(3.20261e-06 -1.5022e-06 0)
(3.19314e-06 -1.49833e-06 0)
(3.1842e-06 -1.49475e-06 0)
(3.17576e-06 -1.49144e-06 0)
(3.1678e-06 -1.48839e-06 0)
(3.16031e-06 -1.4856e-06 0)
(3.15328e-06 -1.48305e-06 0)
(3.14668e-06 -1.48074e-06 0)
(3.14051e-06 -1.47866e-06 0)
(3.13474e-06 -1.47679e-06 0)
(3.12936e-06 -1.47513e-06 0)
(3.12436e-06 -1.47367e-06 0)
(3.11973e-06 -1.47241e-06 0)
(3.11546e-06 -1.47133e-06 0)
(3.11153e-06 -1.47044e-06 0)
(3.10793e-06 -1.46972e-06 0)
(3.10465e-06 -1.46916e-06 0)
(3.10168e-06 -1.46877e-06 0)
(3.09902e-06 -1.46854e-06 0)
(3.09664e-06 -1.46845e-06 0)
(3.09455e-06 -1.46851e-06 0)
(3.09272e-06 -1.4687e-06 0)
(3.09117e-06 -1.46903e-06 0)
(3.08987e-06 -1.4695e-06 0)
(3.08881e-06 -1.47008e-06 0)
(3.088e-06 -1.47079e-06 0)
(3.08742e-06 -1.47161e-06 0)
(3.08706e-06 -1.47255e-06 0)
(3.08693e-06 -1.47359e-06 0)
(3.087e-06 -1.47474e-06 0)
(3.08728e-06 -1.47598e-06 0)
(3.08776e-06 -1.47733e-06 0)
(3.08843e-06 -1.47877e-06 0)
(3.0893e-06 -1.4803e-06 0)
(3.09034e-06 -1.48191e-06 0)
(3.09156e-06 -1.48361e-06 0)
(3.09295e-06 -1.48539e-06 0)
(3.09451e-06 -1.48725e-06 0)
(3.09623e-06 -1.48919e-06 0)
(3.0981e-06 -1.4912e-06 0)
(3.10013e-06 -1.49328e-06 0)
(3.1023e-06 -1.49542e-06 0)
(3.10462e-06 -1.49763e-06 0)
(3.10708e-06 -1.49991e-06 0)
(3.10967e-06 -1.50224e-06 0)
(3.11239e-06 -1.50463e-06 0)
(3.11524e-06 -1.50708e-06 0)
(3.11822e-06 -1.50958e-06 0)
(3.12131e-06 -1.51214e-06 0)
(3.12452e-06 -1.51475e-06 0)
(3.12785e-06 -1.5174e-06 0)
(3.13128e-06 -1.5201e-06 0)
(3.13483e-06 -1.52285e-06 0)
(3.13847e-06 -1.52564e-06 0)
(3.14222e-06 -1.52846e-06 0)
(3.14607e-06 -1.53133e-06 0)
(3.15001e-06 -1.53424e-06 0)
(3.15404e-06 -1.53719e-06 0)
(3.15816e-06 -1.54017e-06 0)
(3.16237e-06 -1.54318e-06 0)
(3.16667e-06 -1.54623e-06 0)
(3.17105e-06 -1.5493e-06 0)
(3.1755e-06 -1.55241e-06 0)
(3.18004e-06 -1.55555e-06 0)
(3.18465e-06 -1.55871e-06 0)
(3.18933e-06 -1.5619e-06 0)
(3.19409e-06 -1.56511e-06 0)
(3.19892e-06 -1.56835e-06 0)
(3.20381e-06 -1.57161e-06 0)
(3.20876e-06 -1.5749e-06 0)
(3.21379e-06 -1.5782e-06 0)
(3.21887e-06 -1.58152e-06 0)
(3.22401e-06 -1.58486e-06 0)
(3.72079e-06 -1.78701e-06 0)
(3.68533e-06 -1.76902e-06 0)
(3.65147e-06 -1.75184e-06 0)
(3.61911e-06 -1.73555e-06 0)
(3.58821e-06 -1.72006e-06 0)
(3.5587e-06 -1.70536e-06 0)
(3.53051e-06 -1.6914e-06 0)
(3.5036e-06 -1.67815e-06 0)
(3.47789e-06 -1.66557e-06 0)
(3.45335e-06 -1.65365e-06 0)
(3.42992e-06 -1.64235e-06 0)
(3.40756e-06 -1.63164e-06 0)
(3.38622e-06 -1.62149e-06 0)
(3.36586e-06 -1.61189e-06 0)
(3.34644e-06 -1.6028e-06 0)
(3.32792e-06 -1.59422e-06 0)
(3.31026e-06 -1.5861e-06 0)
(3.29344e-06 -1.57845e-06 0)
(3.27741e-06 -1.57123e-06 0)
(3.26216e-06 -1.56443e-06 0)
(3.24764e-06 -1.55803e-06 0)
(3.23383e-06 -1.55202e-06 0)
(3.2207e-06 -1.54637e-06 0)
(3.20823e-06 -1.54108e-06 0)
(3.19639e-06 -1.53614e-06 0)
(3.18516e-06 -1.53151e-06 0)
(3.17451e-06 -1.52721e-06 0)
(3.16443e-06 -1.5232e-06 0)
(3.15489e-06 -1.51949e-06 0)
(3.14588e-06 -1.51606e-06 0)
(3.13737e-06 -1.51289e-06 0)
(3.12935e-06 -1.50998e-06 0)
(3.1218e-06 -1.50732e-06 0)
(3.11471e-06 -1.5049e-06 0)
(3.10805e-06 -1.50271e-06 0)
(3.10182e-06 -1.50074e-06 0)
(3.09599e-06 -1.49898e-06 0)
(3.09056e-06 -1.49743e-06 0)
(3.08551e-06 -1.49608e-06 0)
(3.08083e-06 -1.49491e-06 0)
(3.0765e-06 -1.49393e-06 0)
(3.07252e-06 -1.49313e-06 0)
(3.06887e-06 -1.4925e-06 0)
(3.06555e-06 -1.49203e-06 0)
(3.06253e-06 -1.49172e-06 0)
(3.05982e-06 -1.49156e-06 0)
(3.0574e-06 -1.49155e-06 0)
(3.05526e-06 -1.49168e-06 0)
(3.0534e-06 -1.49195e-06 0)
(3.0518e-06 -1.49235e-06 0)
(3.05045e-06 -1.49287e-06 0)
(3.04936e-06 -1.49352e-06 0)
(3.0485e-06 -1.49429e-06 0)
(3.04788e-06 -1.49517e-06 0)
(3.04748e-06 -1.49616e-06 0)
(3.04731e-06 -1.49726e-06 0)
(3.04734e-06 -1.49846e-06 0)
(3.04758e-06 -1.49976e-06 0)
(3.04802e-06 -1.50116e-06 0)
(3.04865e-06 -1.50264e-06 0)
(3.04947e-06 -1.50422e-06 0)
(3.05047e-06 -1.50588e-06 0)
(3.05165e-06 -1.50762e-06 0)
(3.05301e-06 -1.50945e-06 0)
(3.05452e-06 -1.51135e-06 0)
(3.0562e-06 -1.51333e-06 0)
(3.05804e-06 -1.51537e-06 0)
(3.06002e-06 -1.51749e-06 0)
(3.06216e-06 -1.51967e-06 0)
(3.06444e-06 -1.52192e-06 0)
(3.06685e-06 -1.52423e-06 0)
(3.06941e-06 -1.5266e-06 0)
(3.07209e-06 -1.52902e-06 0)
(3.0749e-06 -1.5315e-06 0)
(3.07783e-06 -1.53404e-06 0)
(3.08089e-06 -1.53662e-06 0)
(3.08406e-06 -1.53926e-06 0)
(3.08734e-06 -1.54195e-06 0)
(3.09074e-06 -1.54468e-06 0)
(3.09424e-06 -1.54745e-06 0)
(3.09784e-06 -1.55027e-06 0)
(3.10155e-06 -1.55312e-06 0)
(3.10535e-06 -1.55602e-06 0)
(3.10925e-06 -1.55896e-06 0)
(3.11324e-06 -1.56193e-06 0)
(3.11732e-06 -1.56494e-06 0)
(3.12149e-06 -1.56797e-06 0)
(3.12574e-06 -1.57105e-06 0)
(3.13007e-06 -1.57415e-06 0)
(3.13449e-06 -1.57728e-06 0)
(3.13898e-06 -1.58044e-06 0)
(3.14355e-06 -1.58363e-06 0)
(3.14819e-06 -1.58684e-06 0)
(3.1529e-06 -1.59008e-06 0)
(3.15768e-06 -1.59334e-06 0)
(3.16252e-06 -1.59662e-06 0)
(3.16744e-06 -1.59993e-06 0)
(3.17241e-06 -1.60325e-06 0)
(3.17745e-06 -1.6066e-06 0)
(3.18254e-06 -1.60996e-06 0)
(3.68613e-06 -1.79963e-06 0)
(3.65044e-06 -1.78218e-06 0)
(3.61636e-06 -1.7655e-06 0)
(3.58379e-06 -1.7497e-06 0)
(3.5527e-06 -1.73467e-06 0)
(3.523e-06 -1.72041e-06 0)
(3.49464e-06 -1.70687e-06 0)
(3.46755e-06 -1.69402e-06 0)
(3.44169e-06 -1.68183e-06 0)
(3.417e-06 -1.67028e-06 0)
(3.39342e-06 -1.65932e-06 0)
(3.37092e-06 -1.64894e-06 0)
(3.34945e-06 -1.63912e-06 0)
(3.32896e-06 -1.62982e-06 0)
(3.30942e-06 -1.62102e-06 0)