/*--------------------------------*- C++ -*----------------------------------*\
| =========                 |                                                 |
| \\      /  F ield         | foam-extend: Open Source CFD                    |
|  \\    /   O peration     | Version:     4.1                                |
|   \\  /    A nd           | Web:         http://www.foam-extend.org         |
|    \\/     M anipulation  |                                                 |
\*---------------------------------------------------------------------------*/
FoamFile
{
    version     2.0;
    format      ascii;
    class       volVectorField;
    location    "8";
    object      D_0;
}
// * * * * * * * * * * * * * * * * * * * * * * * * * * * * * * * * * * * * * //

dimensions      [0 1 0 0 0 0 0];

internalField   nonuniform List<vector> 
1000
(
(3.72753e-06 -1.64432e-06 0)
(3.51009e-06 -1.52675e-06 0)
(3.36982e-06 -1.45069e-06 0)
(3.288e-06 -1.41323e-06 0)
(3.24628e-06 -1.39764e-06 0)
(3.23379e-06 -1.39904e-06 0)
(3.24276e-06 -1.41143e-06 0)
(3.26801e-06 -1.43191e-06 0)
(3.30512e-06 -1.45798e-06 0)
(3.35261e-06 -1.48795e-06 0)
(3.36937e-06 -1.79581e-06 0)
(3.13779e-06 -1.71242e-06 0)
(2.98876e-06 -1.65789e-06 0)
(2.90057e-06 -1.63503e-06 0)
(2.85406e-06 -1.62907e-06 0)
(2.83735e-06 -1.63726e-06 0)
(2.84237e-06 -1.65454e-06 0)
(2.8635e-06 -1.67863e-06 0)
(2.89626e-06 -1.70784e-06 0)
(2.93817e-06 -1.73941e-06 0)
(2.99756e-06 -1.93943e-06 0)
(2.76101e-06 -1.89427e-06 0)
(2.60905e-06 -1.86387e-06 0)
(2.5182e-06 -1.85721e-06 0)
(2.46915e-06 -1.86185e-06 0)
(2.44955e-06 -1.87738e-06 0)
(2.45127e-06 -1.89977e-06 0)
(2.46858e-06 -1.92757e-06 0)
(2.49703e-06 -1.95978e-06 0)
(2.53393e-06 -1.99349e-06 0)
(2.61489e-06 -2.07264e-06 0)
(2.38318e-06 -2.06763e-06 0)
(2.23453e-06 -2.06262e-06 0)
(2.14499e-06 -2.07293e-06 0)
(2.09584e-06 -2.0886e-06 0)
(2.07482e-06 -2.1117e-06 0)
(2.07409e-06 -2.13929e-06 0)
(2.08797e-06 -2.17083e-06 0)
(2.11237e-06 -2.20588e-06 0)
(2.14431e-06 -2.24184e-06 0)
(2.22384e-06 -2.19284e-06 0)
(2.0069e-06 -2.22766e-06 0)
(1.86787e-06 -2.24785e-06 0)
(1.78365e-06 -2.27494e-06 0)
(1.73688e-06 -2.30148e-06 0)
(1.71593e-06 -2.33202e-06 0)
(1.71358e-06 -2.36465e-06 0)
(1.72447e-06 -2.39981e-06 0)
(1.74496e-06 -2.43755e-06 0)
(1.77201e-06 -2.47581e-06 0)
(1.82652e-06 -2.29751e-06 0)
(1.63387e-06 -2.36963e-06 0)
(1.5105e-06 -2.41344e-06 0)
(1.43547e-06 -2.45621e-06 0)
(1.39343e-06 -2.4929e-06 0)
(1.374e-06 -2.53035e-06 0)
(1.37084e-06 -2.56763e-06 0)
(1.37913e-06 -2.60615e-06 0)
(1.39583e-06 -2.64633e-06 0)
(1.41796e-06 -2.68682e-06 0)
(1.42466e-06 -2.38435e-06 0)
(1.2649e-06 -2.48915e-06 0)
(1.16266e-06 -2.55367e-06 0)
(1.10028e-06 -2.61016e-06 0)
(1.06512e-06 -2.65573e-06 0)
(1.04851e-06 -2.69921e-06 0)
(1.04524e-06 -2.74054e-06 0)
(1.05129e-06 -2.78202e-06 0)
(1.06423e-06 -2.82429e-06 0)
(1.08145e-06 -2.8668e-06 0)
(1.01968e-06 -2.45134e-06 0)
(9.00046e-07 -2.58239e-06 0)
(8.23505e-07 -2.66356e-06 0)
(7.76708e-07 -2.73107e-06 0)
(7.50218e-07 -2.78376e-06 0)
(7.37512e-07 -2.83209e-06 0)
(7.34722e-07 -2.87666e-06 0)
(7.38816e-07 -2.92051e-06 0)
(7.48048e-07 -2.96447e-06 0)
(7.6034e-07 -3.00865e-06 0)
(6.12693e-07 -2.49689e-06 0)
(5.38625e-07 -2.6463e-06 0)
(4.91232e-07 -2.73912e-06 0)
(4.62207e-07 -2.81434e-06 0)
(4.45726e-07 -2.87201e-06 0)
(4.37742e-07 -2.92372e-06 0)
(4.3587e-07 -2.97057e-06 0)
(4.38225e-07 -3.01609e-06 0)
(4.43751e-07 -3.06122e-06 0)
(4.51119e-07 -3.10661e-06 0)
(2.04619e-07 -2.51983e-06 0)
(1.79513e-07 -2.67873e-06 0)
(1.63431e-07 -2.77756e-06 0)
(1.53561e-07 -2.85677e-06 0)
(1.47938e-07 -2.91702e-06 0)
(1.45191e-07 -2.97049e-06 0)
(1.44513e-07 -3.01851e-06 0)
(1.45265e-07 -3.06489e-06 0)
(1.47094e-07 -3.11064e-06 0)
(1.49539e-07 -3.15666e-06 0)
(5.83148e-06 -7.51605e-08 0)
(5.88585e-06 -5.41007e-08 0)
(5.91721e-06 -4.0665e-08 0)
(5.95039e-06 -3.26774e-08 0)
(5.9858e-06 -2.81415e-08 0)
(6.02943e-06 -2.5923e-08 0)
(6.08114e-06 -2.5263e-08 0)
(6.14178e-06 -2.56252e-08 0)
(6.21113e-06 -2.67208e-08 0)
(6.28828e-06 -2.80675e-08 0)
(5.78793e-06 -2.25432e-07 0)
(5.83325e-06 -1.63483e-07 0)
(5.85895e-06 -1.24047e-07 0)
(5.88835e-06 -1.00664e-07 0)
(5.92127e-06 -8.74393e-08 0)
(5.96314e-06 -8.10306e-08 0)
(6.01358e-06 -7.92009e-08 0)
(6.07318e-06 -8.03768e-08 0)
(6.14167e-06 -8.36958e-08 0)
(6.21787e-06 -8.77618e-08 0)
(5.70098e-06 -3.76996e-07 0)
(5.72907e-06 -2.77493e-07 0)
(5.74385e-06 -2.14193e-07 0)
(5.76602e-06 -1.7676e-07 0)
(5.79417e-06 -1.55671e-07 0)
(5.83266e-06 -1.45568e-07 0)
(5.88065e-06 -1.42835e-07 0)
(5.93823e-06 -1.44961e-07 0)
(6.00508e-06 -1.50518e-07 0)
(6.07942e-06 -1.57334e-07 0)
(5.57219e-06 -5.30427e-07 0)
(5.57578e-06 -3.98747e-07 0)
(5.57504e-06 -3.14953e-07 0)
(5.58692e-06 -2.65599e-07 0)
(5.60828e-06 -2.37936e-07 0)
(5.64195e-06 -2.24918e-07 0)
(5.68643e-06 -2.21697e-07 0)
(5.74115e-06 -2.24985e-07 0)
(5.80564e-06 -2.32799e-07 0)
(5.87737e-06 -2.42409e-07 0)
(5.40366e-06 -6.86147e-07 0)
(5.37693e-06 -5.29416e-07 0)
(5.357e-06 -4.29618e-07 0)
(5.35614e-06 -3.71173e-07 0)
(5.36909e-06 -3.38661e-07 0)
(5.39678e-06 -3.2377e-07 0)
(5.4369e-06 -3.20624e-07 0)
(5.48806e-06 -3.2536e-07 0)
(5.54958e-06 -3.35475e-07 0)
(5.61811e-06 -3.4793e-07 0)
(5.19801e-06 -8.442e-07 0)
(5.13697e-06 -6.70875e-07 0)
(5.09533e-06 -5.60401e-07 0)
(5.08004e-06 -4.96227e-07 0)
(5.08342e-06 -4.60911e-07 0)
(5.1043e-06 -4.45383e-07 0)
(5.13942e-06 -4.42983e-07 0)
(5.18649e-06 -4.4951e-07 0)
(5.24456e-06 -4.61984e-07 0)
(5.30949e-06 -4.77326e-07 0)
(4.95829e-06 -1.00428e-06 0)
(4.86103e-06 -8.23685e-07 0)
(4.79649e-06 -7.08422e-07 0)
(4.76594e-06 -6.42234e-07 0)
(4.75917e-06 -6.06387e-07 0)
(4.77278e-06 -5.91593e-07 0)
(4.80249e-06 -5.90707e-07 0)
(4.84517e-06 -5.99411e-07 0)
(4.89941e-06 -6.14369e-07 0)
(4.96052e-06 -6.32643e-07 0)
(4.68783e-06 -1.16567e-06 0)
(4.55467e-06 -9.87455e-07 0)
(4.46744e-06 -8.7351e-07 0)
(4.4217e-06 -8.09164e-07 0)
(4.40477e-06 -7.75135e-07 0)
(4.41101e-06 -7.62494e-07 0)
(4.43515e-06 -7.63902e-07 0)
(4.47324e-06 -7.75199e-07 0)
(4.52337e-06 -7.92764e-07 0)
(4.5806e-06 -8.14093e-07 0)
(4.39018e-06 -1.32722e-06 0)
(4.22366e-06 -1.16086e-06 0)
(4.11537e-06 -1.05423e-06 0)
(4.05547e-06 -9.95508e-07 0)
(4.02897e-06 -9.65611e-07 0)
(4.02818e-06 -9.56497e-07 0)
(4.04684e-06 -9.61006e-07 0)
(4.0804e-06 -9.75252e-07 0)
(4.12621e-06 -9.95761e-07 0)
(4.17969e-06 -1.0202e-06 0)
(4.0689e-06 -1.4874e-06 0)
(3.87366e-06 -1.34165e-06 0)
(3.74729e-06 -1.2479e-06 0)
(3.67508e-06 -1.19831e-06 0)
(3.6401e-06 -1.17466e-06 0)
(3.63288e-06 -1.17031e-06 0)
(3.64632e-06 -1.17853e-06 0)
(3.67536e-06 -1.19604e-06 0)
(3.71669e-06 -1.21942e-06 0)
(3.76658e-06 -1.24776e-06 0)
(6.37356e-06 -2.94451e-08 0)
(6.46665e-06 -2.96037e-08 0)
(6.56578e-06 -2.98657e-08 0)
(6.67062e-06 -3.002e-08 0)
(6.78048e-06 -3.00312e-08 0)
(6.89492e-06 -2.98881e-08 0)
(7.01341e-06 -2.95534e-08 0)
(7.1355e-06 -2.90222e-08 0)
(7.26076e-06 -2.82732e-08 0)
(7.38877e-06 -2.72958e-08 0)
(7.51913e-06 -2.60711e-08 0)
(7.65142e-06 -2.4581e-08 0)
(7.78527e-06 -2.2801e-08 0)
(7.92022e-06 -2.07029e-08 0)
(8.05591e-06 -1.82501e-08 0)
(8.19176e-06 -1.54007e-08 0)
(8.32749e-06 -1.20985e-08 0)
(8.46207e-06 -8.28479e-09 0)
(8.59578e-06 -3.86282e-09 0)
(8.72611e-06 1.20587e-09 0)
(6.30631e-06 -9.15702e-08 0)
(6.40506e-06 -9.16043e-08 0)
(6.50926e-06 -9.19853e-08 0)
(6.61848e-06 -9.21217e-08 0)
(6.73225e-06 -9.18761e-08 0)
(6.85013e-06 -9.12197e-08 0)
(6.97171e-06 -9.00267e-08 0)
(7.09658e-06 -8.82803e-08 0)
(7.22436e-06 -8.59089e-08 0)
(7.35466e-06 -8.2877e-08 0)
(7.48713e-06 -7.91242e-08 0)
(7.62138e-06 -7.45931e-08 0)
(7.75704e-06 -6.92073e-08 0)
(7.89371e-06 -6.28801e-08 0)
(8.03102e-06 -5.55e-08 0)
(8.16841e-06 -4.69395e-08 0)
(8.30563e-06 -3.70293e-08 0)
(8.44166e-06 -2.55924e-08 0)
(8.5768e-06 -1.23378e-08 0)
(8.70854e-06 2.85034e-09 0)
(6.17403e-06 -1.62585e-07 0)
(6.28389e-06 -1.61226e-07 0)
(6.398e-06 -1.6058e-07 0)
(6.51581e-06 -1.59822e-07 0)
(6.63723e-06 -1.58582e-07 0)
(6.76186e-06 -1.56829e-07 0)
(6.88952e-06 -1.543e-07 0)
(7.01983e-06 -1.50956e-07 0)
(7.15256e-06 -1.46656e-07 0)
(7.28738e-06 -1.41326e-07 0)
(7.42401e-06 -1.34855e-07 0)
(7.5621e-06 -1.27137e-07 0)
(7.70135e-06 -1.18036e-07 0)
(7.84139e-06 -1.07402e-07 0)
(7.98189e-06 -9.50437e-08 0)
(8.12233e-06 -8.07436e-08 0)
(8.26248e-06 -6.42155e-08 0)
(8.40137e-06 -4.51607e-08 0)
(8.53931e-06 -2.30919e-08 0)
(8.67385e-06 2.18876e-09 0)
(5.98078e-06 -2.47572e-07 0)
(6.10659e-06 -2.42843e-07 0)
(6.23505e-06 -2.39348e-07 0)
(6.36529e-06 -2.36305e-07 0)
(6.49784e-06 -2.32897e-07 0)
(6.63232e-06 -2.29114e-07 0)
(6.76884e-06 -2.24489e-07 0)
(6.90713e-06 -2.18941e-07 0)
(7.04711e-06 -2.12228e-07 0)
(7.18855e-06 -2.0422e-07 0)
(7.33127e-06 -1.94736e-07 0)
(7.475e-06 -1.83609e-07 0)
(7.61952e-06 -1.70633e-07 0)
(7.7645e-06 -1.55583e-07 0)
(7.90968e-06 -1.38181e-07 0)
(8.05458e-06 -1.18113e-07 0)
(8.19903e-06 -9.49681e-08 0)
(8.3421e-06 -6.83211e-08 0)
(8.48414e-06 -3.74818e-08 0)
(8.6228e-06 -2.15725e-09 0)
(5.7324e-06 -3.51058e-07 0)
(5.87819e-06 -3.40414e-07 0)
(6.02483e-06 -3.3171e-07 0)
(6.17084e-06 -3.24557e-07 0)
(6.31763e-06 -3.17452e-07 0)
(6.46471e-06 -3.10407e-07 0)
(6.61262e-06 -3.02687e-07 0)
(6.76118e-06 -2.94125e-07 0)
(6.91051e-06 -2.84351e-07 0)
(7.0605e-06 -2.73149e-07 0)
(7.21108e-06 -2.60248e-07 0)
(7.3621e-06 -2.45401e-07 0)
(7.51342e-06 -2.2832e-07 0)
(7.66478e-06 -2.08693e-07 0)
(7.816e-06 -1.86146e-07 0)
(7.96666e-06 -1.60259e-07 0)
(8.11665e-06 -1.30493e-07 0)
(8.26511e-06 -9.6287e-08 0)
(8.41246e-06 -5.67455e-08 0)
(8.55642e-06 -1.14677e-08 0)
(5.43605e-06 -4.76236e-07 0)
(5.60483e-06 -4.56745e-07 0)
(5.77269e-06 -4.40077e-07 0)
(5.93722e-06 -4.26615e-07 0)
(6.10084e-06 -4.13986e-07 0)
(6.26292e-06 -4.02176e-07 0)
(6.42442e-06 -3.90151e-07 0)
(6.58528e-06 -3.77594e-07 0)
(6.74583e-06 -3.63985e-07 0)
(6.90608e-06 -3.48977e-07 0)
(7.06613e-06 -3.32192e-07 0)
(7.22593e-06 -3.13275e-07 0)
(7.38542e-06 -2.91839e-07 0)
(7.54445e-06 -2.67472e-07 0)
(7.70293e-06 -2.39691e-07 0)
(7.8605e-06 -2.07961e-07 0)
(8.01714e-06 -1.71604e-07 0)
(8.17207e-06 -1.2992e-07 0)
(8.32575e-06 -8.18003e-08 0)
(8.47609e-06 -2.67223e-08 0)
(5.10001e-06 -6.25175e-07 0)
(5.29368e-06 -5.93825e-07 0)
(5.48492e-06 -5.6643e-07 0)
(5.67003e-06 -5.44315e-07 0)
(5.85247e-06 -5.2427e-07 0)
(6.03146e-06 -5.06078e-07 0)
(6.20834e-06 -4.88446e-07 0)
(6.38318e-06 -4.70809e-07 0)
(6.55651e-06 -4.52486e-07 0)
(6.7285e-06 -4.32959e-07 0)
(6.89938e-06 -4.1172e-07 0)
(7.06922e-06 -3.8829e-07 0)
(7.23807e-06 -3.62167e-07 0)
(7.4059e-06 -3.32826e-07 0)
(7.57268e-06 -2.99663e-07 0)
(7.73817e-06 -2.62024e-07 0)
(7.9024e-06 -2.19085e-07 0)
(8.06473e-06 -1.70002e-07 0)
(8.22566e-06 -1.13457e-07 0)
(8.38329e-06 -4.88007e-08 0)
(4.73279e-06 -7.98205e-07 0)
(4.95209e-06 -7.51778e-07 0)
(5.16778e-06 -7.10946e-07 0)
(5.37489e-06 -6.77582e-07 0)
(5.57754e-06 -6.48095e-07 0)
(5.77496e-06 -6.21749e-07 0)
(5.96866e-06 -5.97102e-07 0)
(6.1589e-06 -5.73244e-07 0)
(6.34635e-06 -5.49313e-07 0)
(6.53133e-06 -5.24579e-07 0)
(6.7142e-06 -4.98372e-07 0)
(6.89516e-06 -4.70059e-07 0)
(7.07439e-06 -4.39e-07 0)
(7.25195e-06 -4.04539e-07 0)
(7.42791e-06 -3.65943e-07 0)
(7.60213e-06 -3.22425e-07 0)
(7.77474e-06 -2.73013e-07 0)
(7.94521e-06 -2.16714e-07 0)
(8.11414e-06 -1.52004e-07 0)
(8.27982e-06 -7.80933e-08 0)
(4.34367e-06 -9.95033e-07 0)
(4.58848e-06 -9.30755e-07 0)
(4.82848e-06 -8.74742e-07 0)
(5.05826e-06 -8.27941e-07 0)
(5.28167e-06 -7.87301e-07 0)
(5.49839e-06 -7.51231e-07 0)
(5.70976e-06 -7.1821e-07 0)
(5.91632e-06 -6.86954e-07 0)
(6.1188e-06 -6.56399e-07 0)
(6.31769e-06 -6.256e-07 0)
(6.51345e-06 -5.93711e-07 0)
(6.70641e-06 -5.59937e-07 0)
(6.89683e-06 -5.23492e-07 0)
(7.08489e-06 -4.83581e-07 0)
(7.27076e-06 -4.39333e-07 0)
(7.45441e-06 -3.89825e-07 0)
(7.63605e-06 -3.33935e-07 0)
(7.8153e-06 -2.70527e-07 0)
(7.99282e-06 -1.97885e-07 0)
(8.1672e-06 -1.15101e-07 0)
(3.93979e-06 -1.21189e-06 0)
(4.20934e-06 -1.12626e-06 0)
(4.47217e-06 -1.05333e-06 0)
(4.725e-06 -9.90932e-07 0)
(4.96966e-06 -9.37233e-07 0)
(5.20651e-06 -8.8992e-07 0)
(5.43646e-06 -8.47294e-07 0)
(5.66024e-06 -8.07738e-07 0)
(5.8786e-06 -7.69903e-07 0)
(6.09217e-06 -7.32587e-07 0)
(6.30152e-06 -6.94722e-07 0)
(6.50709e-06 -6.55321e-07 0)
(6.70929e-06 -6.13428e-07 0)
(6.90837e-06 -5.68093e-07 0)
(7.10463e-06 -5.18301e-07 0)
(7.29814e-06 -4.62992e-07 0)
(7.48922e-06 -4.00898e-07 0)
(7.67763e-06 -3.30748e-07 0)
(7.86413e-06 -2.50638e-07 0)
(8.04761e-06 -1.59517e-07 0)
(3.6442e-06 -1.41574e-06 0)
(3.92854e-06 -1.31399e-06 0)
(4.20391e-06 -1.22914e-06 0)
(4.4699e-06 -1.15495e-06 0)
(4.72721e-06 -1.09021e-06 0)
(4.97632e-06 -1.03269e-06 0)
(5.21798e-06 -9.8065e-07 0)
(5.45285e-06 -9.32469e-07 0)
(5.68161e-06 -8.86713e-07 0)
(5.90488e-06 -8.42089e-07 0)
(6.12323e-06 -7.97422e-07 0)
(6.33715e-06 -7.51617e-07 0)
(6.54706e-06 -7.03614e-07 0)
(6.75332e-06 -6.52366e-07 0)
(6.95625e-06 -5.96771e-07 0)
(7.15604e-06 -5.35691e-07 0)
(7.35309e-06 -4.67795e-07 0)
(7.54731e-06 -3.91755e-07 0)
(7.73951e-06 -3.05628e-07 0)
(7.92892e-06 -2.08346e-07 0)
(3.47299e-06 -1.57913e-06 0)
(3.759e-06 -1.47365e-06 0)
(4.03643e-06 -1.38235e-06 0)
(4.30558e-06 -1.30118e-06 0)
(4.56657e-06 -1.22897e-06 0)
(4.81974e-06 -1.16388e-06 0)
(5.06559e-06 -1.10435e-06 0)
(5.30464e-06 -1.04888e-06 0)
(5.53745e-06 -9.96106e-07 0)
(5.76455e-06 -9.4476e-07 0)
(5.98645e-06 -8.93677e-07 0)
(6.20361e-06 -8.41751e-07 0)
(6.41646e-06 -7.87909e-07 0)
(6.62535e-06 -7.31088e-07 0)
(6.83066e-06 -6.7018e-07 0)
(7.03263e-06 -6.04045e-07 0)
(7.2317e-06 -5.31379e-07 0)
(7.42792e-06 -4.50891e-07 0)
(7.6221e-06 -3.60734e-07 0)
(7.81382e-06 -2.59927e-07 0)
(3.32436e-06 -1.73722e-06 0)
(3.60777e-06 -1.62893e-06 0)
(3.88462e-06 -1.53311e-06 0)
(4.15411e-06 -1.44638e-06 0)
(4.41639e-06 -1.36788e-06 0)
(4.67142e-06 -1.29615e-06 0)
(4.91957e-06 -1.22981e-06 0)
(5.16114e-06 -1.16754e-06 0)
(5.39657e-06 -1.10807e-06 0)
(5.62629e-06 -1.05023e-06 0)
(5.85073e-06 -9.92885e-07 0)
(6.07031e-06 -9.34949e-07 0)
(6.28543e-06 -8.75364e-07 0)
(6.49644e-06 -8.13078e-07 0)
(6.70373e-06 -7.46998e-07 0)
(6.90758e-06 -6.7601e-07 0)
(7.10845e-06 -5.98859e-07 0)
(7.30653e-06 -5.14318e-07 0)
(7.5026e-06 -4.20671e-07 0)
(7.69652e-06 -3.17036e-07 0)
(3.19246e-06 -1.88954e-06 0)
(3.47185e-06 -1.77969e-06 0)
(3.74624e-06 -1.68038e-06 0)
(4.01425e-06 -1.58903e-06 0)
(4.27603e-06 -1.5051e-06 0)
(4.53126e-06 -1.42745e-06 0)
(4.78017e-06 -1.35492e-06 0)
(5.02289e-06 -1.28637e-06 0)
(5.25974e-06 -1.22066e-06 0)
(5.49103e-06 -1.15669e-06 0)
(5.71713e-06 -1.0934e-06 0)
(5.93838e-06 -1.02973e-06 0)
(6.15514e-06 -9.6468e-07 0)
(6.36777e-06 -8.9721e-07 0)
(6.57663e-06 -8.2627e-07 0)
(6.78205e-06 -7.50789e-07 0)
(6.98448e-06 -6.69581e-07 0)
(7.18421e-06 -5.81503e-07 0)
(7.382e-06 -4.84988e-07 0)
(7.57796e-06 -3.79258e-07 0)
(3.07566e-06 -2.03553e-06 0)
(3.34974e-06 -1.925e-06 0)
(3.62025e-06 -1.82327e-06 0)
(3.88532e-06 -1.72835e-06 0)
(4.14517e-06 -1.63997e-06 0)
(4.39922e-06 -1.55725e-06 0)
(4.64761e-06 -1.47927e-06 0)
(4.8903e-06 -1.40506e-06 0)
(5.1275e-06 -1.33362e-06 0)
(5.35943e-06 -1.26396e-06 0)
(5.58636e-06 -1.19508e-06 0)
(5.80858e-06 -1.12602e-06 0)
(6.02642e-06 -1.0558e-06 0)
(6.24018e-06 -9.8344e-07 0)
(6.45022e-06 -9.07945e-07 0)
(6.65689e-06 -8.28307e-07 0)
(6.86064e-06 -7.43423e-07 0)
(7.06182e-06 -6.5225e-07 0)
(7.26116e-06 -5.53388e-07 0)
(7.45896e-06 -4.4617e-07 0)
(2.97144e-06 -2.17509e-06 0)
(3.23952e-06 -2.06462e-06 0)
(3.50519e-06 -1.96128e-06 0)
(3.76633e-06 -1.86363e-06 0)
(4.02315e-06 -1.77161e-06 0)
(4.27495e-06 -1.68459e-06 0)
(4.52176e-06 -1.60185e-06 0)
(4.76344e-06 -1.52261e-06 0)
(5.0001e-06 -1.446e-06 0)
(5.23184e-06 -1.37114e-06 0)
(5.45889e-06 -1.29713e-06 0)
(5.68146e-06 -1.22307e-06 0)
(5.89983e-06 -1.14806e-06 0)
(6.11428e-06 -1.07118e-06 0)
(6.32515e-06 -9.91504e-07 0)
(6.53278e-06 -9.08097e-07 0)
(6.7376e-06 -8.19955e-07 0)
(6.94002e-06 -7.26139e-07 0)
(7.14072e-06 -6.25431e-07 0)
(7.34016e-06 -5.1727e-07 0)
(2.87776e-06 -2.30833e-06 0)
(3.13944e-06 -2.19845e-06 0)
(3.39963e-06 -2.0942e-06 0)
(3.65611e-06 -1.99455e-06 0)
(3.90913e-06 -1.89964e-06 0)
(4.15786e-06 -1.80904e-06 0)
(4.40229e-06 -1.72224e-06 0)
(4.64217e-06 -1.6386e-06 0)
(4.87754e-06 -1.55739e-06 0)
(5.10843e-06 -1.47784e-06 0)
(5.33499e-06 -1.39917e-06 0)
(5.55737e-06 -1.32055e-06 0)
(5.77582e-06 -1.24116e-06 0)
(5.99056e-06 -1.16016e-06 0)
(6.20193e-06 -1.07668e-06 0)
(6.41023e-06 -9.89892e-07 0)
(6.6159e-06 -8.98886e-07 0)
(6.81936e-06 -8.02841e-07 0)
(7.02124e-06 -7.00717e-07 0)
(7.2221e-06 -5.92064e-07 0)
(2.7927e-06 -2.43551e-06 0)
(3.0478e-06 -2.32661e-06 0)
(3.30215e-06 -2.22195e-06 0)
(3.55354e-06 -2.1209e-06 0)
(3.80219e-06 -2.02374e-06 0)
(4.04728e-06 -1.93021e-06 0)
(4.2887e-06 -1.83997e-06 0)
(4.52618e-06 -1.75252e-06 0)
(4.75968e-06 -1.66728e-06 0)
(4.98917e-06 -1.58359e-06 0)
(5.21473e-06 -1.50075e-06 0)
(5.43648e-06 -1.41803e-06 0)
(5.6546e-06 -1.3347e-06 0)
(5.86931e-06 -1.24998e-06 0)
(6.08087e-06 -1.16311e-06 0)
(6.28961e-06 -1.07333e-06 0)
(6.49591e-06 -9.79856e-07 0)
(6.70022e-06 -8.81969e-07 0)
(6.90309e-06 -7.78811e-07 0)
(7.10518e-06 -6.70035e-07 0)
(2.71454e-06 -2.557e-06 0)
(2.96307e-06 -2.4493e-06 0)
(3.21141e-06 -2.34462e-06 0)
(3.45744e-06 -2.24266e-06 0)
(3.70139e-06 -2.14379e-06 0)
(3.94242e-06 -2.0479e-06 0)
(4.18041e-06 -1.95481e-06 0)
(4.41504e-06 -1.86413e-06 0)
(4.64622e-06 -1.7754e-06 0)
(4.87388e-06 -1.68808e-06 0)
(5.09805e-06 -1.60157e-06 0)
(5.31881e-06 -1.51523e-06 0)
(5.53628e-06 -1.42839e-06 0)
(5.75066e-06 -1.34039e-06 0)
(5.96219e-06 -1.25052e-06 0)
(6.17114e-06 -1.15814e-06 0)
(6.37789e-06 -1.06256e-06 0)
(6.58286e-06 -9.63173e-07 0)
(6.78656e-06 -8.59302e-07 0)
(6.98967e-06 -7.50692e-07 0)
(2.64177e-06 -2.67318e-06 0)
(2.88382e-06 -2.5668e-06 0)
(3.12612e-06 -2.46239e-06 0)
(3.36669e-06 -2.35989e-06 0)
(3.60575e-06 -2.25976e-06 0)
(3.84248e-06 -2.16201e-06 0)
(4.07675e-06 -2.06657e-06 0)
(4.30821e-06 -1.97319e-06 0)
(4.53676e-06 -1.8815e-06 0)
(4.76228e-06 -1.79106e-06 0)
(4.98476e-06 -1.70137e-06 0)
(5.20425e-06 -1.61186e-06 0)
(5.42083e-06 -1.52197e-06 0)
(5.63466e-06 -1.43109e-06 0)
(5.84594e-06 -1.33864e-06 0)
(6.05493e-06 -1.24402e-06 0)
(6.26195e-06 -1.14667e-06 0)
(6.46743e-06 -1.04611e-06 0)
(6.67179e-06 -9.41789e-07 0)
(6.87573e-06 -8.33557e-07 0)
(2.57301e-06 -2.78448e-06 0)
(2.80876e-06 -2.67946e-06 0)
(3.04509e-06 -2.5755e-06 0)
(3.28021e-06 -2.47275e-06 0)
(3.51431e-06 -2.37173e-06 0)
(3.74662e-06 -2.27255e-06 0)
(3.97701e-06 -2.17523e-06 0)
(4.20513e-06 -2.07962e-06 0)
(4.43083e-06 -1.98545e-06 0)
(4.654e-06 -1.89237e-06 0)
(4.87459e-06 -1.79997e-06 0)
(5.0926e-06 -1.70776e-06 0)
(5.3081e-06 -1.61524e-06 0)
(5.5212e-06 -1.5219e-06 0)
(5.73208e-06 -1.42723e-06 0)
(5.94096e-06 -1.33073e-06 0)
(6.14812e-06 -1.23194e-06 0)
(6.35396e-06 -1.13046e-06 0)
(6.55884e-06 -1.0259e-06 0)
(6.76344e-06 -9.18194e-07 0)
(2.50703e-06 -2.89127e-06 0)
(2.73669e-06 -2.78759e-06 0)
(2.96721e-06 -2.6842e-06 0)
(3.19696e-06 -2.58142e-06 0)
(3.42613e-06 -2.47981e-06 0)
(3.65401e-06 -2.37956e-06 0)
(3.88046e-06 -2.28078e-06 0)
(4.10514e-06 -2.18337e-06 0)
(4.32791e-06 -2.08718e-06 0)
(4.5486e-06 -1.99192e-06 0)
(4.76717e-06 -1.89725e-06 0)
(4.98358e-06 -1.80277e-06 0)
(5.19787e-06 -1.70804e-06 0)
(5.41013e-06 -1.61264e-06 0)
(5.62048e-06 -1.51611e-06 0)
(5.82914e-06 -1.41806e-06 0)
(6.03633e-06 -1.3181e-06 0)
(6.2424e-06 -1.21593e-06 0)
(6.44768e-06 -1.11131e-06 0)
(6.65279e-06 -1.0042e-06 0)
(2.4427e-06 -2.99394e-06 0)
(2.66652e-06 -2.89153e-06 0)
(2.89141e-06 -2.78879e-06 0)
(3.11595e-06 -2.68614e-06 0)
(3.34029e-06 -2.5842e-06 0)
(3.56381e-06 -2.48319e-06 0)
(3.78636e-06 -2.3833e-06 0)
(4.00761e-06 -2.2845e-06 0)
(4.22741e-06 -2.1867e-06 0)
(4.4456e-06 -2.08968e-06 0)
(4.66209e-06 -1.99316e-06 0)
(4.87684e-06 -1.89681e-06 0)
(5.08986e-06 -1.80028e-06 0)
(5.3012e-06 -1.70317e-06 0)
(5.51096e-06 -1.60513e-06 0)
(5.71931e-06 -1.50582e-06 0)
(5.92644e-06 -1.40494e-06 0)
(6.13265e-06 -1.30228e-06 0)
(6.33821e-06 -1.1977e-06 0)
(6.54368e-06 -1.09123e-06 0)
(2.37896e-06 -3.0928e-06 0)
(2.59718e-06 -2.99162e-06 0)
(2.81666e-06 -2.88953e-06 0)
(3.03618e-06 -2.78716e-06 0)
(3.25588e-06 -2.68508e-06 0)
(3.47519e-06 -2.5836e-06 0)
(3.69395e-06 -2.48291e-06 0)
(3.91186e-06 -2.38308e-06 0)
(4.12876e-06 -2.28404e-06 0)
(4.34448e-06 -2.18565e-06 0)
(4.55892e-06 -2.08768e-06 0)
(4.77202e-06 -1.98985e-06 0)
(4.98374e-06 -1.89187e-06 0)
(5.19414e-06 -1.7934e-06 0)
(5.40326e-06 -1.69416e-06 0)
(5.61125e-06 -1.59386e-06 0)
(5.81825e-06 -1.49228e-06 0)
(6.02452e-06 -1.38928e-06 0)
(6.23028e-06 -1.28481e-06 0)
(6.436e-06 -1.17897e-06 0)
(2.31473e-06 -3.1882e-06 0)
(2.52762e-06 -3.08811e-06 0)
(2.74196e-06 -2.98674e-06 0)
(2.95673e-06 -2.88475e-06 0)
(3.17201e-06 -2.78273e-06 0)
(3.38732e-06 -2.681e-06 0)
(3.60249e-06 -2.57981e-06 0)
(3.81723e-06 -2.47926e-06 0)
(4.03137e-06 -2.37933e-06 0)
(4.24473e-06 -2.27992e-06 0)
(4.4572e-06 -2.18085e-06 0)
(4.66869e-06 -2.0819e-06 0)
(4.87917e-06 -1.9828e-06 0)
(5.08863e-06 -1.88329e-06 0)
(5.29711e-06 -1.78312e-06 0)
(5.50471e-06 -1.68206e-06 0)
(5.71155e-06 -1.57997e-06 0)
(5.91782e-06 -1.47676e-06 0)
(6.12369e-06 -1.37244e-06 0)
(6.32957e-06 -1.26717e-06 0)
(2.24904e-06 -3.28035e-06 0)
(2.45685e-06 -3.18142e-06 0)
(2.66629e-06 -3.08069e-06 0)
(2.87663e-06 -2.97915e-06 0)
(3.08781e-06 -2.87736e-06 0)
(3.29942e-06 -2.7756e-06 0)
(3.51126e-06 -2.67418e-06 0)
(3.72307e-06 -2.5732e-06 0)
(3.93466e-06 -2.47269e-06 0)
(4.14584e-06 -2.37259e-06 0)
(4.35648e-06 -2.27275e-06 0)
(4.56649e-06 -2.17299e-06 0)
(4.77579e-06 -2.07308e-06 0)
(4.98436e-06 -1.9728e-06 0)
(5.19223e-06 -1.87195e-06 0)
(5.39944e-06 -1.77035e-06 0)
(5.60607e-06 -1.6679e-06 0)
(5.8123e-06 -1.56455e-06 0)
(6.01823e-06 -1.4604e-06 0)
(6.22419e-06 -1.35562e-06 0)
(2.18085e-06 -3.36966e-06 0)
(2.38369e-06 -3.27154e-06 0)
(2.58847e-06 -3.17168e-06 0)
(2.79491e-06 -3.07081e-06 0)
(3.00235e-06 -2.96937e-06 0)
(3.21066e-06 -2.86778e-06 0)
(3.41953e-06 -2.76633e-06 0)
(3.62874e-06 -2.66517e-06 0)
(3.83806e-06 -2.56436e-06 0)
(4.04732e-06 -2.46384e-06 0)
(4.25634e-06 -2.36351e-06 0)
(4.46502e-06 -2.26322e-06 0)
(4.67326e-06 -2.16277e-06 0)
(4.88103e-06 -2.06197e-06 0)
(5.08831e-06 -1.96065e-06 0)
(5.29514e-06 -1.85868e-06 0)
(5.50157e-06 -1.75598e-06 0)
(5.70771e-06 -1.65256e-06 0)
(5.91366e-06 -1.54856e-06 0)
(6.11964e-06 -1.44416e-06 0)
(2.1085e-06 -3.45602e-06 0)
(2.30714e-06 -3.35885e-06 0)
(2.50808e-06 -3.26006e-06 0)
(2.71073e-06 -3.1599e-06 0)
(2.91493e-06 -3.05898e-06 0)
(3.12033e-06 -2.95775e-06 0)
(3.32667e-06 -2.8565e-06 0)
(3.53367e-06 -2.75539e-06 0)
(3.7411e-06 -2.65451e-06 0)
(3.94874e-06 -2.55383e-06 0)
(4.15641e-06 -2.45326e-06 0)
(4.36396e-06 -2.35267e-06 0)
(4.5713e-06 -2.2519e-06 0)
(4.77835e-06 -2.15079e-06 0)
(4.98511e-06 -2.04918e-06 0)
(5.19157e-06 -1.94698e-06 0)
(5.39777e-06 -1.84413e-06 0)
(5.60381e-06 -1.74069e-06 0)
(5.80972e-06 -1.63679e-06 0)
(6.01569e-06 -1.53267e-06 0)
(2.03109e-06 -3.54043e-06 0)
(2.22586e-06 -3.44443e-06 0)
(2.42328e-06 -3.34648e-06 0)
(2.62286e-06 -3.24709e-06 0)
(2.82441e-06 -3.14683e-06 0)
(3.02753e-06 -3.04611e-06 0)
(3.23192e-06 -2.94522e-06 0)
(3.43727e-06 -2.84435e-06 0)
(3.64329e-06 -2.74358e-06 0)
(3.84972e-06 -2.64291e-06 0)
(4.05637e-06 -2.54228e-06 0)
(4.26305e-06 -2.44157e-06 0)
(4.46966e-06 -2.34065e-06 0)
(4.67612e-06 -2.23937e-06 0)
(4.88239e-06 -2.1376e-06 0)
(5.08848e-06 -2.03527e-06 0)
(5.29443e-06 -1.93234e-06 0)
(5.50031e-06 -1.82888e-06 0)
(5.70614e-06 -1.72506e-06 0)
(5.91207e-06 -1.6211e-06 0)
(1.94758e-06 -3.62214e-06 0)
(2.13893e-06 -3.52745e-06 0)
(2.33344e-06 -3.43071e-06 0)
(2.53066e-06 -3.33237e-06 0)
(2.73025e-06 -3.23299e-06 0)
(2.9318e-06 -3.13299e-06 0)
(3.13491e-06 -3.03266e-06 0)
(3.33921e-06 -2.9322e-06 0)
(3.54437e-06 -2.83171e-06 0)
(3.75007e-06 -2.73121e-06 0)
(3.95607e-06 -2.63066e-06 0)
(4.16217e-06 -2.52996e-06 0)
(4.36824e-06 -2.42899e-06 0)
(4.57419e-06 -2.32765e-06 0)
(4.78e-06 -2.22582e-06 0)
(4.98569e-06 -2.12344e-06 0)
(5.19132e-06 -2.02049e-06 0)
(5.39696e-06 -1.91704e-06 0)
(5.60266e-06 -1.81326e-06 0)
(5.80853e-06 -1.70936e-06 0)
(1.48758e-07 -3.20395e-06 0)
(4.48502e-07 -3.15628e-06 0)
(7.55028e-07 -3.06291e-06 0)
(1.07213e-06 -2.92749e-06 0)
(1.40297e-06 -2.75523e-06 0)
(1.74956e-06 -2.55258e-06 0)
(2.11269e-06 -2.32687e-06 0)
(2.49177e-06 -2.08594e-06 0)
(2.88504e-06 -1.83771e-06 0)
(3.28978e-06 -1.58866e-06 0)
(1.4433e-07 -3.25299e-06 0)
(4.3488e-07 -3.20944e-06 0)
(7.31129e-07 -3.12408e-06 0)
(1.03628e-06 -3e-06 0)
(1.35304e-06 -2.84162e-06 0)
(1.68317e-06 -2.65443e-06 0)
(2.02737e-06 -2.44468e-06 0)
(2.38519e-06 -2.21909e-06 0)
(2.75447e-06 -1.98491e-06 0)
(3.13364e-06 -1.74684e-06 0)
(1.4048e-07 -3.30325e-06 0)
(4.23006e-07 -3.26343e-06 0)
(7.10209e-07 -3.18533e-06 0)
(1.00471e-06 -3.07162e-06 0)
(1.30875e-06 -2.92612e-06 0)
(1.62386e-06 -2.75357e-06 0)
(1.95074e-06 -2.55933e-06 0)
(2.2894e-06 -2.34899e-06 0)
(2.63826e-06 -2.1289e-06 0)
(2.99649e-06 -1.90159e-06 0)
(1.37056e-07 -3.35483e-06 0)
(4.12483e-07 -3.31819e-06 0)
(6.91816e-07 -3.24629e-06 0)
(9.77232e-07 -3.14143e-06 0)
(1.2706e-06 -3.007e-06 0)
(1.57318e-06 -2.84712e-06 0)
(1.8855e-06 -2.66653e-06 0)
(2.20758e-06 -2.47011e-06 0)
(2.53811e-06 -2.26378e-06 0)
(2.87633e-06 -2.04922e-06 0)
(1.33897e-07 -3.40771e-06 0)
(4.02791e-07 -3.37391e-06 0)
(6.74938e-07 -3.30752e-06 0)
(9.52142e-07 -3.21063e-06 0)
(1.23596e-06 -3.08622e-06 0)
(1.52746e-06 -2.93792e-06 0)
(1.82712e-06 -2.76994e-06 0)
(2.13494e-06 -2.58642e-06 0)
(2.45007e-06 -2.39273e-06 0)
(2.77104e-06 -2.19034e-06 0)
(1.30959e-07 -3.46179e-06 0)
(3.93805e-07 -3.43046e-06 0)
(6.59394e-07 -3.36888e-06 0)
(9.29229e-07 -3.27891e-06 0)
(1.20461e-06 -3.16326e-06 0)
(1.4864e-06 -3.02517e-06 0)
(1.775e-06 -2.86847e-06 0)
(2.07029e-06 -2.69682e-06 0)
(2.3719e-06 -2.51504e-06 0)
(2.67779e-06 -2.32471e-06 0)
(1.2815e-07 -3.51702e-06 0)
(3.85234e-07 -3.48787e-06 0)
(6.44648e-07 -3.43057e-06 0)
(9.07657e-07 -3.34679e-06 0)
(1.17537e-06 -3.23899e-06 0)
(1.44846e-06 -3.1101e-06 0)
(1.72735e-06 -2.96357e-06 0)
(2.01172e-06 -2.8027e-06 0)
(2.30161e-06 -2.63177e-06 0)
(2.59449e-06 -2.45268e-06 0)
(1.25432e-07 -3.57325e-06 0)
(3.7697e-07 -3.54603e-06 0)
(6.30513e-07 -3.49249e-06 0)
(8.87137e-07 -3.41418e-06 0)
(1.1478e-06 -3.31335e-06 0)
(1.41302e-06 -3.19265e-06 0)
(1.6832e-06 -3.05527e-06 0)
(1.9579e-06 -2.90422e-06 0)
(2.23744e-06 -2.74327e-06 0)
(2.51907e-06 -2.57462e-06 0)
(1.22755e-07 -3.63038e-06 0)
(3.68847e-07 -3.60487e-06 0)
(6.16695e-07 -3.5547e-06 0)
(8.67225e-07 -3.48128e-06 0)
(1.12128e-06 -3.38668e-06 0)
(1.37926e-06 -3.27335e-06 0)
(1.64157e-06 -3.14418e-06 0)
(1.90765e-06 -3.00202e-06 0)
(2.17802e-06 -2.85015e-06 0)
(2.44985e-06 -2.69104e-06 0)
(1.20085e-07 -3.68824e-06 0)
(3.6077e-07 -3.66427e-06 0)
(6.0302e-07 -3.6171e-06 0)
(8.4765e-07 -3.54805e-06 0)
(1.09541e-06 -3.45902e-06 0)
(1.34663e-06 -3.3523e-06 0)
(1.60168e-06 -3.23055e-06 0)
(1.85997e-06 -3.09643e-06 0)
(2.1221e-06 -2.95284e-06 0)
(2.38532e-06 -2.80241e-06 0)
(1.17387e-07 -3.74669e-06 0)
(3.52624e-07 -3.7241e-06 0)
(5.89287e-07 -3.67964e-06 0)
(8.28113e-07 -3.61453e-06 0)
(1.06979e-06 -3.53052e-06 0)
(1.31458e-06 -3.42976e-06 0)
(1.56286e-06 -3.31468e-06 0)
(1.814e-06 -3.18783e-06 0)
(2.06863e-06 -3.05178e-06 0)
(2.32419e-06 -2.9092e-06 0)
(1.1463e-07 -3.80557e-06 0)
(3.44316e-07 -3.78422e-06 0)
(5.75334e-07 -3.7422e-06 0)
(8.08365e-07 -3.68064e-06 0)
(1.04405e-06 -3.60117e-06 0)
(1.28263e-06 -3.5058e-06 0)
(1.52446e-06 -3.39677e-06 0)
(1.76895e-06 -3.2765e-06 0)
(2.01666e-06 -3.14729e-06 0)
(2.2653e-06 -3.01182e-06 0)
(1.1178e-07 -3.86469e-06 0)
(3.35745e-07 -3.84449e-06 0)
(5.60981e-07 -3.80468e-06 0)
(7.88147e-07 -3.74635e-06 0)
(1.01786e-06 -3.67101e-06 0)
(1.25033e-06 -3.58053e-06 0)
(1.48592e-06 -3.47699e-06 0)
(1.72409e-06 -3.36268e-06 0)
(1.96531e-06 -3.2397e-06 0)
(2.20758e-06 -3.11066e-06 0)
(1.08805e-07 -3.92385e-06 0)
(3.26809e-07 -3.90467e-06 0)
(5.46057e-07 -3.8669e-06 0)
(7.67201e-07 -3.81153e-06 0)
(9.90844e-07 -3.73995e-06 0)
(1.21722e-06 -3.65394e-06 0)
(1.44666e-06 -3.55541e-06 0)
(1.67871e-06 -3.44654e-06 0)
(1.91375e-06 -3.32923e-06 0)
(2.15007e-06 -3.20601e-06 0)
(1.05666e-07 -3.98285e-06 0)
(3.17392e-07 -3.96464e-06 0)
(5.30364e-07 -3.92874e-06 0)
(7.45244e-07 -3.87609e-06 0)
(9.6264e-07 -3.80798e-06 0)
(1.18281e-06 -3.72608e-06 0)
(1.40609e-06 -3.63215e-06 0)
(1.63209e-06 -3.52824e-06 0)
(1.86114e-06 -3.41612e-06 0)
(2.09176e-06 -3.29819e-06 0)
(1.02323e-07 -4.04135e-06 0)
(3.07373e-07 -4.02403e-06 0)
(5.13694e-07 -3.98988e-06 0)
(7.21977e-07 -3.93976e-06 0)
(9.32847e-07 -3.87488e-06 0)
(1.14661e-06 -3.79678e-06 0)
(1.36359e-06 -3.70711e-06 0)
(1.58351e-06 -3.60779e-06 0)
(1.80661e-06 -3.50045e-06 0)
(2.03169e-06 -3.38734e-06 0)
(9.87264e-08 -4.09925e-06 0)
(2.966e-07 -4.08277e-06 0)
(4.95791e-07 -4.05026e-06 0)
(6.97036e-07 -4.00253e-06 0)
(9.00987e-07 -3.94068e-06 0)
(1.10801e-06 -3.86615e-06 0)
(1.31845e-06 -3.78046e-06 0)
(1.53211e-06 -3.68541e-06 0)
(1.74923e-06 -3.58252e-06 0)
(1.96876e-06 -3.4739e-06 0)
(9.48232e-08 -4.15581e-06 0)
(2.84916e-07 -4.14013e-06 0)
(4.76395e-07 -4.1092e-06 0)
(6.70048e-07 -4.06374e-06 0)
(8.66574e-07 -4.00479e-06 0)
(1.06641e-06 -3.93366e-06 0)
(1.26992e-06 -3.85177e-06 0)
(1.47704e-06 -3.76077e-06 0)
(1.68793e-06 -3.66209e-06 0)
(1.90184e-06 -3.55769e-06 0)
(9.05338e-08 -4.21139e-06 0)
(2.72082e-07 -4.19649e-06 0)
(4.55102e-07 -4.16708e-06 0)
(6.40447e-07 -4.12383e-06 0)
(8.28879e-07 -4.06769e-06 0)
(1.02091e-06 -3.99984e-06 0)
(1.21698e-06 -3.9216e-06 0)
(1.41711e-06 -3.83451e-06 0)
(1.62149e-06 -3.73986e-06 0)
(1.82956e-06 -3.63948e-06 0)
(8.5821e-08 -4.26401e-06 0)
(2.57986e-07 -4.24988e-06 0)
(4.31724e-07 -4.222e-06 0)
(6.07958e-07 -4.18095e-06 0)
(7.87528e-07 -4.1276e-06 0)
(9.71042e-07 -4.06305e-06 0)
(1.15902e-06 -3.98848e-06 0)
(1.35162e-06 -3.90531e-06 0)
(1.54906e-06 -3.81474e-06 0)
(1.75098e-06 -3.71844e-06 0)
)
;

boundaryField
{
    left
    {
        type            solidSymmetry;
        patchType       symmetryPlane;
        secondOrder     false;
        value           nonuniform List<vector> 
30
(
(0 -3.20543e-06 0)
(0 -3.25443e-06 0)
(0 -3.30465e-06 0)
(0 -3.35618e-06 0)
(0 -3.40901e-06 0)
(0 -3.46304e-06 0)
(0 -3.51821e-06 0)
(0 -3.57437e-06 0)
(0 -3.63142e-06 0)
(0 -3.6892e-06 0)