/*--------------------------------*- C++ -*----------------------------------*\
| =========                 |                                                 |
| \\      /  F ield         | foam-extend: Open Source CFD                    |
|  \\    /   O peration     | Version:     4.1                                |
|   \\  /    A nd           | Web:         http://www.foam-extend.org         |
|    \\/     M anipulation  |                                                 |
\*---------------------------------------------------------------------------*/
FoamFile
{
    version     2.0;
    format      ascii;
    class       volScalarField;
    location    "8";
    object      epsilonEq;
}
// * * * * * * * * * * * * * * * * * * * * * * * * * * * * * * * * * * * * * //

dimensions      [0 0 0 0 0 0 0];

internalField   nonuniform List<scalar> 
1000
(
3.68684e-06
4.20386e-06
4.61754e-06
4.93084e-06
5.07643e-06
5.13331e-06
5.12473e-06
5.0768e-06
5.01234e-06
4.92198e-06
4.61501e-06
4.68974e-06
4.87052e-06
5.06523e-06
5.14706e-06
5.16905e-06
5.13924e-06
5.08156e-06
5.00157e-06
4.91974e-06
5.51949e-06
5.17214e-06
5.0962e-06
5.14864e-06
5.15123e-06
5.12868e-06
5.07243e-06
5.00019e-06
4.90897e-06
4.82416e-06
6.37251e-06
5.63395e-06
5.29413e-06
5.18855e-06
5.09973e-06
5.02505e-06
4.93838e-06
4.85029e-06
4.74937e-06
4.66376e-06
7.15016e-06
6.05953e-06
5.46348e-06
5.19306e-06
5.00466e-06
4.8718e-06
4.75176e-06
4.64639e-06
4.53797e-06
4.45135e-06
7.83167e-06
6.43553e-06
5.60426e-06
5.17252e-06
4.88196e-06
4.68757e-06
4.53198e-06
4.40807e-06
4.2928e-06
4.20444e-06
8.39919e-06
6.7504e-06
5.71641e-06
5.1377e-06
4.74954e-06
4.49416e-06
4.30274e-06
4.15959e-06
4.03789e-06
3.94656e-06
8.83802e-06
6.99499e-06
5.80043e-06
5.09983e-06
4.62699e-06
4.31663e-06
4.09204e-06
3.93047e-06
3.80275e-06
3.70758e-06
9.13685e-06
7.16202e-06
5.85618e-06
5.06818e-06
4.53234e-06
4.17964e-06
3.92881e-06
3.75219e-06
3.61953e-06
3.52063e-06
9.28665e-06
7.24488e-06
5.88139e-06
5.0473e-06
4.47742e-06
4.10132e-06
3.83572e-06
3.65047e-06
3.51495e-06
3.41385e-06
3.38682e-06
2.24368e-06
1.60673e-06
1.34209e-06
1.24674e-06
1.26506e-06
1.33337e-06
1.43199e-06
1.53839e-06
1.64641e-06
3.24463e-06
2.23544e-06
1.75298e-06
1.61338e-06
1.58732e-06
1.62633e-06
1.68697e-06
1.76421e-06
1.84174e-06
1.92778e-06
2.95903e-06
2.2239e-06
2.00248e-06
2.03016e-06
2.0836e-06
2.1473e-06
2.20244e-06
2.25839e-06
2.30366e-06
2.36426e-06
2.54791e-06
2.23218e-06
2.31673e-06
2.50143e-06
2.62293e-06
2.70877e-06
2.7611e-06
2.80046e-06
2.81876e-06
2.85712e-06
2.04001e-06
2.28672e-06
2.66335e-06
2.97614e-06
3.1508e-06
3.25399e-06
3.30408e-06
3.32986e-06
3.3262e-06
3.34525e-06
1.5007e-06
2.41234e-06
3.02017e-06
3.42622e-06
3.63849e-06
3.75311e-06
3.80008e-06
3.81366e-06
3.79193e-06
3.79336e-06
1.12185e-06
2.62482e-06
3.37372e-06
3.83593e-06
4.0697e-06
4.18905e-06
4.23118e-06
4.23323e-06
4.19667e-06
4.18153e-06
1.2751e-06
2.92487e-06
3.71488e-06
4.19504e-06
4.43332e-06
4.54971e-06
4.58469e-06
4.5751e-06
4.52751e-06
4.49576e-06
1.92307e-06
3.301e-06
4.03831e-06
4.49858e-06
4.72393e-06
4.82961e-06
4.85449e-06
4.83407e-06
4.77838e-06
4.73363e-06
2.77072e-06
3.73425e-06
4.33982e-06
4.74324e-06
4.93719e-06
5.02218e-06
5.03201e-06
4.99679e-06
4.93807e-06
4.86802e-06
1.75702e-06
1.84914e-06
1.93617e-06
2.01534e-06
2.08504e-06
2.14626e-06
2.19825e-06
2.24145e-06
2.27566e-06
2.30097e-06
2.31714e-06
2.32404e-06
2.32109e-06
2.30807e-06
2.28357e-06
2.24803e-06
2.19771e-06
2.1365e-06
2.05289e-06
1.96614e-06
1.99828e-06
2.04528e-06
2.09898e-06
2.15023e-06
2.19743e-06
2.24028e-06
2.27728e-06
2.30813e-06
2.33218e-06
2.34903e-06
2.35818e-06
2.35919e-06
2.35131e-06
2.33416e-06
2.30625e-06
2.26789e-06
2.21537e-06
2.15249e-06
2.06794e-06
1.98086e-06
2.38269e-06
2.36769e-06
2.37231e-06
2.38103e-06
2.39253e-06
2.40546e-06
2.41743e-06
2.42733e-06
2.43384e-06
2.43596e-06
2.43273e-06
2.42334e-06
2.40672e-06
2.38226e-06
2.3483e-06
2.30502e-06
2.24869e-06
2.18301e-06
2.09706e-06
2.00962e-06
2.82788e-06
2.75379e-06
2.70781e-06
2.6712e-06
2.64274e-06
2.62095e-06
2.60299e-06
2.5871e-06
2.57158e-06
2.55481e-06
2.5355e-06
2.51237e-06
2.48412e-06
2.44984e-06
2.40773e-06
2.35778e-06
2.29637e-06
2.227e-06
2.13939e-06
2.05178e-06
3.27679e-06
3.15461e-06
3.0635e-06
2.98551e-06
2.91887e-06
2.86265e-06
2.81415e-06
2.77117e-06
2.732e-06
2.69456e-06
2.65737e-06
2.6188e-06
2.57733e-06
2.53182e-06
2.48037e-06
2.42281e-06
2.35566e-06
2.28227e-06
2.1932e-06
2.106e-06
3.69439e-06
3.53807e-06
3.41059e-06
3.29842e-06
3.19916e-06
3.11206e-06
3.03554e-06
2.96683e-06
2.90467e-06
2.84665e-06
2.79128e-06
2.73674e-06
2.68144e-06
2.62406e-06
2.5627e-06
2.49709e-06
2.424e-06
2.34662e-06
2.25662e-06
2.17079e-06
4.0605e-06
3.88413e-06
3.73049e-06
3.59133e-06
3.46611e-06
3.35259e-06
3.25167e-06
3.15986e-06
3.07667e-06
2.99955e-06
2.92709e-06
2.85742e-06
2.78888e-06
2.72013e-06
2.6493e-06
2.57608e-06
2.49758e-06
2.4169e-06
2.32697e-06
2.24367e-06
4.3608e-06
4.17816e-06
4.01293e-06
3.85535e-06
3.71307e-06
3.57965e-06
3.4594e-06
3.34835e-06
3.24677e-06
3.15239e-06
3.06402e-06
2.97996e-06
2.89866e-06
2.81883e-06
2.73877e-06
2.6582e-06
2.57468e-06
2.49124e-06
2.40225e-06
2.32278e-06
4.59432e-06
4.40925e-06
4.24617e-06
4.07616e-06
3.92241e-06
3.77436e-06
3.63888e-06
3.51284e-06
3.39661e-06
3.28849e-06
3.1873e-06
3.09156e-06
2.99985e-06
2.91099e-06
2.8235e-06
2.73722e-06
2.65027e-06
2.56563e-06
2.47922e-06
2.40487e-06
4.75292e-06
4.57783e-06
4.43341e-06
4.26783e-06
4.11079e-06
3.95627e-06
3.80991e-06
3.67177e-06
3.54246e-06
3.42143e-06
3.30788e-06
3.20073e-06
3.09876e-06
3.001e-06
2.9062e-06
2.81437e-06
2.72422e-06
2.63879e-06
2.55562e-06
2.48761e-06
4.8144e-06
4.63635e-06
4.49889e-06
4.34676e-06
4.1955e-06
4.04619e-06
3.90178e-06
3.76341e-06
3.63192e-06
3.50734e-06
3.38937e-06
3.27746e-06
3.17083e-06
3.06894e-06
2.97103e-06
2.87739e-06
2.78745e-06
2.70428e-06
2.62689e-06
2.5665e-06
4.69202e-06
4.58613e-06
4.46263e-06
4.33151e-06
4.19529e-06
4.05843e-06
3.92345e-06
3.79206e-06
3.66539e-06
3.54392e-06
3.42781e-06
3.31694e-06
3.21099e-06
3.10983e-06
3.01318e-06
2.92171e-06
2.83547e-06
2.75765e-06
2.68847e-06
2.63794e-06
4.5914e-06
4.50413e-06
4.40526e-06
4.29277e-06
4.17315e-06
4.0497e-06
3.92562e-06
3.80279e-06
3.68274e-06
3.56628e-06
3.45394e-06
3.34597e-06
3.24248e-06
3.14371e-06
3.04981e-06
2.96178e-06
2.88023e-06
2.80839e-06
2.74748e-06
2.70599e-06
4.47711e-06
4.41023e-06
4.32985e-06
4.23363e-06
4.12939e-06
4.01906e-06
3.90641e-06
3.79316e-06
3.6811e-06
3.57125e-06
3.46445e-06
3.36123e-06
3.26205e-06
3.16746e-06
3.07798e-06
2.99489e-06
2.91925e-06
2.85425e-06
2.80189e-06
2.76921e-06
4.35357e-06
4.30324e-06
4.24003e-06
4.15955e-06
4.07041e-06
3.97339e-06
3.87264e-06
3.76968e-06
3.66657e-06
3.56445e-06
3.46439e-06
3.36718e-06
3.27355e-06
3.18429e-06
3.10027e-06
3.02294e-06
2.95375e-06
2.89576e-06
2.85156e-06
2.82685e-06
4.22654e-06
4.19045e-06
4.14166e-06
4.07508e-06
3.99963e-06
3.91524e-06
3.82618e-06
3.73377e-06
3.64017e-06
3.54656e-06
3.45421e-06
3.36404e-06
3.27701e-06
3.19412e-06
3.11646e-06
3.04561e-06
2.98331e-06
2.93242e-06
2.89595e-06
2.87834e-06
4.09899e-06
4.07467e-06
4.03823e-06
3.98419e-06
3.92126e-06
3.84885e-06
3.77114e-06
3.68925e-06
3.60537e-06
3.52072e-06
3.43663e-06
3.35416e-06
3.27441e-06
3.19851e-06
3.12773e-06
3.06372e-06
3.0084e-06
2.9644e-06
2.93496e-06
2.92346e-06
3.97358e-06
3.95885e-06
3.93272e-06
3.88966e-06
3.83792e-06
3.77661e-06
3.70965e-06
3.63805e-06
3.5639e-06
3.4884e-06
3.41293e-06
3.3386e-06
3.26659e-06
3.19811e-06
3.13455e-06
3.07756e-06
3.02915e-06
2.99171e-06
2.96855e-06
2.96212e-06
3.85191e-06
3.8448e-06
3.82725e-06
3.7938e-06
3.75207e-06
3.70098e-06
3.64418e-06
3.58249e-06
3.51791e-06
3.45158e-06
3.38485e-06
3.31885e-06
3.2548e-06
3.19395e-06
3.13771e-06
3.08771e-06
3.04595e-06
3.01458e-06
2.99689e-06
2.99452e-06
3.73489e-06
3.73378e-06
3.72332e-06
3.69823e-06
3.6654e-06
3.6237e-06
3.5764e-06
3.52419e-06
3.46891e-06
3.41161e-06
3.3536e-06
3.29598e-06
3.23995e-06
3.18674e-06
3.13777e-06
3.09458e-06
3.05913e-06
3.03329e-06
3.02024e-06
3.02095e-06
3.62289e-06
3.62654e-06
3.62197e-06
3.60419e-06
3.57934e-06
3.54627e-06
3.50784e-06
3.46464e-06
3.41832e-06
3.36983e-06
3.32039e-06
3.27104e-06
3.22294e-06
3.17725e-06
3.13535e-06
3.09868e-06
3.06909e-06
3.04819e-06
3.03896e-06
3.04187e-06
3.51593e-06
3.52344e-06
3.52387e-06
3.51258e-06
3.49496e-06
3.46985e-06
3.43974e-06
3.40509e-06
3.36734e-06
3.32736e-06
3.28623e-06
3.24493e-06
3.20453e-06
3.16613e-06
3.131e-06
3.10047e-06
3.07624e-06
3.05968e-06
3.05352e-06
3.05783e-06
3.41381e-06
3.42477e-06
3.42951e-06
3.42409e-06
3.41314e-06
3.39545e-06
3.37316e-06
3.3466e-06
3.31703e-06
3.28518e-06
3.25204e-06
3.21847e-06
3.18545e-06
3.15399e-06
3.12526e-06
3.10041e-06
3.08101e-06
3.0682e-06
3.06439e-06
3.06943e-06
3.31633e-06
3.33033e-06
3.33923e-06
3.33944e-06
3.33475e-06
3.32408e-06
3.30915e-06
3.29025e-06
3.26841e-06
3.24427e-06
3.21869e-06
3.19244e-06
3.16638e-06
3.14143e-06
3.11862e-06
3.09897e-06
3.08385e-06
3.07421e-06
3.07213e-06
3.07732e-06
3.22313e-06
3.2409e-06
3.25348e-06
3.25905e-06
3.26053e-06
3.25659e-06
3.24867e-06
3.237e-06
3.22242e-06
3.20551e-06
3.18699e-06
3.16753e-06
3.14793e-06
3.12896e-06
3.11154e-06
3.09655e-06
3.08516e-06
3.07815e-06
3.07725e-06
3.08211e-06
3.13478e-06
3.15493e-06
3.17258e-06
3.18449e-06
3.1918e-06
3.19434e-06
3.193e-06
3.18808e-06
3.18022e-06
3.16993e-06
3.15783e-06
3.14453e-06
3.13072e-06
3.1171e-06
3.10446e-06
3.09356e-06
3.08536e-06
3.08047e-06
3.08028e-06
3.08446e-06
3.0496e-06
3.08351e-06
3.09815e-06
3.11703e-06
3.12952e-06
3.13848e-06
3.14325e-06
3.14458e-06
3.14279e-06
3.1384e-06
3.13194e-06
3.124e-06
3.1152e-06
3.10618e-06
3.09764e-06
3.0902e-06
3.08466e-06
3.08148e-06
3.08166e-06
3.08491e-06
2.97173e-06
3.00327e-06
3.03276e-06
3.05619e-06
3.0756e-06
3.09054e-06
3.10132e-06
3.10824e-06
3.11174e-06
3.11229e-06
3.11045e-06
3.10681e-06
3.102e-06
3.09663e-06
3.09135e-06
3.0867e-06
3.0833e-06
3.08147e-06
3.08186e-06
3.08416e-06
2.89996e-06
2.93979e-06
2.97507e-06
3.00553e-06
3.03163e-06
3.05257e-06
3.06878e-06
3.0805e-06
3.08821e-06
3.09247e-06
3.09391e-06
3.09321e-06
3.09108e-06
3.08818e-06
3.08518e-06
3.08259e-06
3.08092e-06
3.08031e-06
3.08106e-06
3.0826e-06
2.84071e-06
2.88904e-06
2.93267e-06
2.97042e-06
3.00256e-06
3.0287e-06
3.04919e-06
3.06432e-06
3.07469e-06
3.08094e-06
3.08389e-06
3.08436e-06
3.08322e-06
3.08127e-06
3.07929e-06
3.07784e-06
3.07742e-06
3.078e-06
3.07962e-06
3.0812e-06
3.34126e-06
3.44067e-06
3.61487e-06
3.83893e-06
4.08263e-06
4.31829e-06
4.52376e-06
4.68344e-06
4.79206e-06
4.83375e-06
3.2806e-06
3.36787e-06
3.52232e-06
3.72444e-06
3.94957e-06
4.17422e-06
4.37852e-06
4.54406e-06
4.6649e-06
4.72215e-06
3.23145e-06
3.30781e-06
3.44347e-06
3.62264e-06
3.82488e-06
4.03039e-06
4.2239e-06
4.38963e-06
4.52675e-06
4.61614e-06
3.19078e-06
3.25727e-06
3.37609e-06
3.53467e-06
3.71618e-06
3.90337e-06
4.08306e-06
4.24033e-06
4.37484e-06
4.48261e-06
3.15445e-06
3.21219e-06
3.31583e-06
3.45537e-06
3.61708e-06
3.78654e-06
3.95279e-06
4.1033e-06
4.23339e-06
4.34743e-06
3.12154e-06
3.17164e-06
3.26192e-06
3.38438e-06
3.52762e-06
3.67952e-06
3.83029e-06
3.97083e-06
4.09312e-06
4.20895e-06
3.0899e-06
3.13338e-06
3.21198e-06
3.31938e-06
3.44608e-06
3.58214e-06
3.71844e-06
3.84879e-06
3.96182e-06
4.07328e-06
3.05863e-06
3.09637e-06
3.16479e-06
3.25883e-06
3.37047e-06
3.49168e-06
3.61385e-06
3.73345e-06
3.83731e-06
3.94222e-06
3.02657e-06
3.05938e-06
3.11901e-06
3.20146e-06
3.29985e-06
3.40774e-06
3.51698e-06
3.62581e-06
3.72049e-06
3.81719e-06
2.9929e-06
3.02147e-06
3.07351e-06
3.14582e-06
3.23248e-06
3.32834e-06
3.4258e-06
3.52426e-06
3.61037e-06
3.69854e-06
2.95672e-06
2.98168e-06
3.02724e-06
3.09083e-06
3.16732e-06
3.25254e-06
3.33951e-06
3.42822e-06
3.50632e-06
3.58613e-06
2.91727e-06
2.93915e-06
2.9792e-06
3.03531e-06
3.10304e-06
3.17894e-06
3.25671e-06
3.33657e-06
3.40747e-06
3.4795e-06
2.87355e-06
2.89285e-06
2.92829e-06
2.9781e-06
3.03843e-06
3.10635e-06
3.17625e-06
3.2483e-06
3.31288e-06
3.37797e-06
2.82479e-06
2.84196e-06
2.8736e-06
2.91823e-06
2.97245e-06
3.03372e-06
3.09709e-06
3.16254e-06
3.22184e-06
3.28104e-06
2.76945e-06
2.78492e-06
2.81358e-06
2.8541e-06
2.90352e-06
2.95954e-06
3.01783e-06
3.07806e-06
3.1333e-06
3.18777e-06
2.70707e-06
2.72125e-06
2.74769e-06
2.78519e-06
2.83111e-06
2.88333e-06
2.93805e-06
2.99463e-06
3.0473e-06
3.09877e-06
2.63445e-06
2.64779e-06
2.67287e-06
2.70855e-06
2.75246e-06
2.80258e-06
2.8555e-06
2.91043e-06
2.9621e-06
3.01328e-06
2.55293e-06
2.56589e-06
2.59048e-06
2.62557e-06
2.66898e-06
2.71873e-06
2.77172e-06
2.82669e-06
2.87955e-06
2.93071e-06
2.45389e-06
2.46709e-06
2.49241e-06
2.52866e-06
2.57379e-06
2.62576e-06
2.6817e-06
2.73988e-06
2.79701e-06
2.85195e-06
2.34755e-06
2.36163e-06
2.38881e-06
2.42783e-06
2.47668e-06
2.5333e-06
2.59476e-06
2.65908e-06
2.72302e-06
2.78488e-06
)
;

boundaryField
{
    left
    {
        type            symmetryPlane;
        value           nonuniform List<scalar> 
30
(
3.33895e-06
3.27858e-06
3.22967e-06
3.18923e-06
3.15311e-06
3.12038e-06
3.0889e-06
3.05777e-06
3.02583e-06
2.99226e-06
2.95617e-06
2.9168e-06
2.87315e-06
2.82446e-06
2.76919e-06
2.70687e-06
2.63431e-06
2.55285e-06
2.45385e-06
2.34754e-06
9.26667e-06
7.23834e-06
5.87991e-06
5.04724e-06
4.47723e-06
4.10054e-06
3.83432e-06
3.64859e-06
3.51279e-06
3.41145e-06
)
;
    }
    right
    {
        type            calculated;
        value           nonuniform List<scalar> 
30
(
1.96067e-06
1.97533e-06
2.00406e-06
2.04621e-06
2.10043e-06
2.16531e-06
2.23831e-06
2.31775e-06
2.39999e-06
2.48346e-06
2.56256e-06
2.63477e-06
2.70343e-06
2.76721e-06
2.82537e-06
2.8773e-06
2.9228e-06
2.96177e-06
2.9944e-06
3.02101e-06
3.04205e-06
3.05809e-06
3.06973e-06
3.07761e-06
3.08238e-06
3.0847e-06
3.08509e-06
3.0843e-06
3.08269e-06
3.0814e-06
)
;
    }
    down
    {
        type            symmetryPlane;
        value           nonuniform List<scalar> 
30
(
3.38304e-06
2.24254e-06
1.59553e-06
1.31812e-06
1.21445e-06
1.23084e-06
1.30112e-06
1.40339e-06
1.51389e-06
1.62492e-06
1.73987e-06
1.83611e-06
1.92597e-06
2.00734e-06
2.0787e-06
2.14119e-06
2.19416e-06
2.23813e-06
2.27295e-06
2.29875e-06
2.31533e-06
2.32256e-06
2.31988e-06
2.30711e-06
2.28283e-06
2.24748e-06
2.19733e-06
2.13628e-06
2.05279e-06
1.96613e-06
)
;
    }
    up
    {
        type            calculated;
        value           nonuniform List<scalar> 
30
(
2.34419e-06
2.35826e-06
2.38545e-06
2.4245e-06
2.4734e-06
2.53012e-06
2.59168e-06
2.65621e-06
2.72027e-06
2.78252e-06
2.83857e-06
2.88728e-06
2.93117e-06
2.96917e-06
3.00155e-06
3.0279e-06
3.04855e-06
3.06381e-06
3.07427e-06
3.08059e-06
3.08359e-06
3.0841e-06
3.08299e-06
3.08108e-06
3.07913e-06
3.07772e-06
3.07734e-06
3.07794e-06
3.07959e-06
3.08105e-06
)
;
    }
    hole
    {
        type            calculated;
        value           nonuniform List<scalar> 
20
(
3.57387e-06
4.58638e-06
5.56077e-06
6.47345e-06
7.30216e-06
8.02659e-06
8.62888e-06
9.09409e-06
9.41061e-06
9.56974e-06
3.50019e-06
3.33984e-06
3.01856e-06
2.54643e-06
1.9361e-06
1.20313e-06
3.66328e-07
5.5325e-07
1.53265e-06
2.54779e-06
)
;
    }
    frontAndBack
    {
        type            empty;
    }
}


// ************************************************************************* //
