/*--------------------------------*- C++ -*----------------------------------*\
| =========                 |                                                 |
| \\      /  F ield         | foam-extend: Open Source CFD                    |
|  \\    /   O peration     | Version:     4.1                                |
|   \\  /    A nd           | Web:         http://www.foam-extend.org         |
|    \\/     M anipulation  |                                                 |
\*---------------------------------------------------------------------------*/
FoamFile
{
    version     2.0;
    format      ascii;
    class       volSymmTensorField;
    location    "8";
    object      epsilon;
}
// * * * * * * * * * * * * * * * * * * * * * * * * * * * * * * * * * * * * * //

dimensions      [0 0 0 0 0 0 0];

internalField   nonuniform List<symmTensor> 
1000
(
(2.60843e-06 -2.8176e-06 -1.39709e-21 1.41413e-08 -2.65258e-21 -5.50457e-36)
(4.07374e-06 -2.18753e-06 7.89859e-21 -1.56322e-06 1.70881e-21 0)
(4.77094e-06 -1.73631e-06 -8.58598e-21 -2.2898e-06 -6.12467e-21 0)
(5.18048e-06 -1.41803e-06 -3.29179e-21 -2.75244e-06 -7.57328e-22 0)
(5.37977e-06 -1.17584e-06 -5.52532e-22 -2.97833e-06 1.47437e-22 0)
(5.46421e-06 -9.93974e-07 3.46596e-21 -3.09304e-06 2.21004e-21 0)
(5.47877e-06 -8.49472e-07 -6.20436e-21 -3.12695e-06 -3.4857e-21 0)
(5.44766e-06 -7.37182e-07 1.35967e-21 -3.11596e-06 8.15753e-22 0)
(5.40144e-06 -6.42442e-07 -2.48379e-21 -3.07926e-06 -1.46046e-21 0)
(5.32038e-06 -5.6125e-07 -3.06605e-21 -3.02606e-06 -1.93069e-21 0)
(3.57252e-06 -3.38596e-06 3.92193e-21 -2.02399e-07 -2.29678e-21 1.51573e-36)
(4.76099e-06 -2.32897e-06 -7.93136e-21 -1.64607e-06 -2.09938e-21 0)
(5.28533e-06 -1.64484e-06 -7.3333e-21 -2.28754e-06 -1.96587e-21 0)
(5.57088e-06 -1.19347e-06 -5.71471e-21 -2.70803e-06 -3.93545e-21 0)
(5.68423e-06 -8.78216e-07 -1.25004e-21 -2.90774e-06 -1.11426e-21 0)
(5.70555e-06 -6.60007e-07 4.97035e-21 -3.01206e-06 2.92225e-21 0)
(5.67271e-06 -5.00362e-07 -5.81448e-21 -3.04078e-06 -3.97305e-21 0)
(5.60736e-06 -3.87758e-07 2.35812e-21 -3.03302e-06 1.99536e-21 0)
(5.52557e-06 -2.99316e-07 -4.39199e-21 -2.99202e-06 -3.40598e-21 0)
(5.43135e-06 -2.36223e-07 -1.62408e-21 -2.95588e-06 -1.81611e-21 0)
(4.69299e-06 -3.80025e-06 4.84322e-21 -6.03426e-07 2.95632e-22 -9.28648e-37)
(5.48223e-06 -2.39151e-06 -6.19454e-21 -1.78555e-06 -2.70237e-21 0)
(5.7669e-06 -1.51852e-06 5.67942e-21 -2.27163e-06 2.55928e-21 0)
(5.89062e-06 -9.60943e-07 -5.1263e-21 -2.6089e-06 -2.46309e-21 0)
(5.89729e-06 -5.89361e-07 -1.25215e-21 -2.75911e-06 -9.46957e-22 0)
(5.84467e-06 -3.44886e-07 -4.78129e-21 -2.84009e-06 -2.79701e-21 0)
(5.7601e-06 -1.76394e-07 8.80701e-27 -2.85703e-06 -2.38167e-26 0)
(5.6577e-06 -6.5561e-08 -1.64573e-23 -2.84867e-06 2.18362e-23 0)
(5.5468e-06 1.45163e-08 -3.38378e-22 -2.80734e-06 -1.6053e-21 0)
(5.4319e-06 7.2775e-08 5.25247e-22 -2.78115e-06 -3.98231e-22 0)
(5.91378e-06 -4.01126e-06 1.67369e-20 -1.1504e-06 -3.33404e-21 3.59759e-35)
(6.21093e-06 -2.36157e-06 3.55739e-21 -1.96951e-06 2.65213e-21 0)
(6.20595e-06 -1.36327e-06 2.67194e-21 -2.24509e-06 2.47584e-21 0)
(6.14056e-06 -7.37432e-07 1.55142e-21 -2.46698e-06 1.08034e-21 0)
(6.02621e-06 -3.3222e-07 1.12083e-20 -2.55006e-06 6.70902e-21 0)
(5.89353e-06 -7.4079e-08 -8.43296e-23 -2.59836e-06 -1.93763e-22 0)
(5.75529e-06 9.62131e-08 -4.0147e-23 -2.59975e-06 1.89011e-22 0)
(5.61765e-06 2.03028e-07 -1.06254e-22 -2.58931e-06 1.88358e-22 0)
(5.48103e-06 2.73626e-07 2.44083e-21 -2.55064e-06 1.21137e-21 0)
(5.35204e-06 3.25294e-07 -2.29495e-22 -2.53341e-06 -4.9024e-22 0)
(7.16553e-06 -3.98546e-06 -1.26323e-20 -1.79036e-06 3.2403e-22 -3.81596e-43)
(6.91676e-06 -2.23115e-06 5.73362e-21 -2.18077e-06 2.33503e-21 0)
(6.59425e-06 -1.18497e-06 4.7137e-21 -2.2107e-06 2.29928e-21 0)
(6.32568e-06 -5.3682e-07 4.90521e-21 -2.29633e-06 2.53637e-21 0)
(6.08397e-06 -1.25074e-07 -2.94717e-21 -2.30094e-06 -1.5625e-21 0)
(5.86952e-06 1.31535e-07 4.21083e-21 -2.31044e-06 1.90054e-21 0)
(5.67896e-06 2.95391e-07 1.33102e-21 -2.29409e-06 8.03611e-22 0)
(5.50844e-06 3.94676e-07 -2.5968e-21 -2.28071e-06 -9.57298e-22 0)
(5.35133e-06 4.54715e-07 6.00096e-21 -2.24744e-06 2.32176e-21 0)
(5.21114e-06 4.99267e-07 5.59537e-22 -2.2388e-06 -6.81272e-23 0)
(8.37136e-06 -3.70857e-06 -1.83258e-22 -2.4614e-06 -1.43712e-24 8.2436e-39)
(7.56814e-06 -1.99889e-06 -1.49596e-21 -2.39992e-06 -4.53072e-22 0)
(6.92562e-06 -9.89047e-07 7.39931e-21 -2.17275e-06 3.19546e-21 0)
(6.45504e-06 -3.68276e-07 1.93943e-21 -2.11487e-06 5.78625e-22 0)
(6.08841e-06 2.09998e-08 -2.75409e-21 -2.03739e-06 -1.08536e-21 0)
(5.79551e-06 2.59976e-07 -6.99385e-21 -2.00594e-06 -3.4159e-21 0)
(5.55625e-06 4.08874e-07 5.76123e-23 -1.97129e-06 -9.59259e-22 0)
(5.35639e-06 4.96836e-07 -3.70823e-22 -1.95444e-06 1.20501e-21 0)
(5.18285e-06 5.45609e-07 1.90733e-21 -1.92785e-06 1.4646e-21 0)
(5.03428e-06 5.82466e-07 4.89544e-21 -1.92676e-06 2.0079e-21 0)
(9.45299e-06 -3.18749e-06 4.76719e-21 -3.09846e-06 -6.19569e-22 -1.47317e-36)
(8.13388e-06 -1.67072e-06 -2.59775e-21 -2.60642e-06 3.68458e-22 0)
(7.19521e-06 -7.80493e-07 2.17933e-21 -2.13548e-06 1.61472e-21 0)
(6.53936e-06 -2.36109e-07 6.74266e-22 -1.94099e-06 -4.74581e-22 0)
(6.05932e-06 1.02246e-07 3.91362e-21 -1.78572e-06 7.34024e-22 0)
(5.69625e-06 3.07816e-07 -1.50043e-22 -1.71527e-06 -6.3379e-22 0)
(5.41453e-06 4.33601e-07 1.16714e-21 -1.6635e-06 1.89212e-21 0)
(5.18971e-06 5.06593e-07 4.06489e-21 -1.6431e-06 3.22214e-21 0)
(5.00373e-06 5.44002e-07 -1.94455e-21 -1.6236e-06 -9.72231e-22 0)
(4.8487e-06 5.73025e-07 5.59186e-22 -1.62867e-06 -1.03495e-21 0)
(1.03376e-05 -2.45e-06 0 -3.63975e-06 0 0)
(8.5861e-06 -1.25928e-06 1.25521e-20 -2.78113e-06 3.80237e-21 0)
(7.40009e-06 -5.63278e-07 -1.32401e-20 -2.10327e-06 -3.62738e-21 0)
(6.59044e-06 -1.39092e-07 -5.02125e-22 -1.79252e-06 -8.29328e-22 0)
(6.01685e-06 1.22998e-07 -1.26139e-21 -1.57122e-06 1.31575e-22 0)
(5.59652e-06 2.8114e-07 6.55354e-21 -1.46755e-06 2.45426e-21 0)
(5.28074e-06 3.76674e-07 2.30514e-21 -1.40136e-06 8.87444e-22 0)
(5.03626e-06 4.31452e-07 -3.17888e-21 -1.37777e-06 -5.91536e-22 0)
(4.84138e-06 4.5776e-07 1.34577e-22 -1.3647e-06 -5.66876e-22 0)
(4.68166e-06 4.7875e-07 -1.51987e-21 -1.37438e-06 -1.24526e-21 0)
(1.09641e-05 -1.54302e-06 8.58018e-21 -4.03281e-06 8.73127e-22 3.96019e-36)
(8.90125e-06 -7.83762e-07 -7.05004e-22 -2.90775e-06 -1.41274e-21 0)
(7.5375e-06 -3.40773e-07 -4.40746e-21 -2.07971e-06 -8.80353e-22 0)
(6.61775e-06 -7.12392e-08 3.6765e-21 -1.68446e-06 1.16859e-21 0)
(5.97748e-06 9.47127e-08 -1.47765e-21 -1.41525e-06 -3.38525e-22 0)
(5.51661e-06 1.94446e-07 -3.77351e-21 -1.28742e-06 -5.4175e-22 0)
(5.17702e-06 2.54217e-07 2.43351e-24 -1.21082e-06 -8.9275e-22 0)
(4.91896e-06 2.88246e-07 -4.44755e-23 -1.18484e-06 5.3388e-22 0)
(4.71843e-06 3.03881e-07 -4.02685e-23 -1.17667e-06 2.91359e-22 0)
(4.55565e-06 3.16639e-07 -1.54721e-21 -1.18947e-06 -9.78622e-22 0)
(1.12877e-05 -5.27309e-07 -7.21541e-21 -4.238e-06 1.28427e-21 2.35505e-36)
(9.06234e-06 -2.66656e-07 -5.85662e-21 -2.97156e-06 -1.968e-21 0)
(7.6054e-06 -1.14475e-07 4.48084e-21 -2.06316e-06 1.43654e-21 0)
(6.62797e-06 -2.18674e-08 -7.00084e-21 -1.62265e-06 -9.06146e-22 0)
(5.95282e-06 3.50954e-08 2.82545e-21 -1.32773e-06 -8.78893e-22 0)
(5.47083e-06 6.92907e-08 -1.23805e-21 -1.18696e-06 1.88932e-22 0)
(5.11893e-06 8.97208e-08 -2.43712e-25 -1.10482e-06 9.07783e-22 0)
(4.85393e-06 1.01327e-07 -9.98541e-22 -1.07762e-06 5.39515e-22 0)
(4.65065e-06 1.06558e-07 -3.50211e-21 -1.07216e-06 -1.46794e-21 0)
(4.48649e-06 1.10878e-07 1.73476e-21 -1.08678e-06 1.28874e-22 0)
(1.53101e-06 1.38502e-07 -9.92575e-22 -4.13278e-06 4.49314e-21 -5.6497e-36)
(1.02386e-06 -6.19185e-08 1.47589e-21 -2.73291e-06 2.11288e-21 0)
(7.8183e-07 -1.64074e-07 1.94819e-23 -1.9046e-06 -9.51821e-22 0)
(8.26713e-07 -2.18687e-07 -7.8242e-23 -1.42965e-06 6.74834e-22 0)
(9.44172e-07 -2.44158e-07 -8.88676e-22 -1.15576e-06 -6.13482e-22 0)
(1.12832e-06 -2.53108e-07 1.17645e-21 -1.00232e-06 4.85401e-22 0)
(1.32063e-06 -2.52444e-07 1.64864e-22 -9.2113e-07 1.97485e-22 0)
(1.52027e-06 -2.46648e-07 -2.17878e-22 -8.82399e-07 3.61343e-22 0)
(1.7071e-06 -2.36795e-07 1.17175e-21 -8.70125e-07 3.16713e-22 0)
(1.88566e-06 -2.29616e-07 -1.08821e-22 -8.6659e-07 -1.56611e-22 0)
(1.44959e-06 3.8517e-07 5.48792e-23 -3.92989e-06 1.96382e-22 -3.27121e-38)
(1.06474e-06 -1.94275e-07 -2.59534e-21 -2.6739e-06 -3.71536e-21 0)
(8.88403e-07 -4.88008e-07 1.97842e-21 -1.92385e-06 1.95007e-21 0)
(9.66322e-07 -6.43996e-07 1.43634e-21 -1.49478e-06 1.03967e-21 0)
(1.09935e-06 -7.16104e-07 -3.65758e-22 -1.24594e-06 -4.76177e-22 0)
(1.28806e-06 -7.40638e-07 -3.91578e-21 -1.10559e-06 -1.44577e-21 0)
(1.47883e-06 -7.37649e-07 -6.46296e-23 -1.02994e-06 -5.46706e-25 0)
(1.6738e-06 -7.1991e-07 -6.61019e-22 -9.92567e-07 -4.02133e-22 0)
(1.85263e-06 -6.9071e-07 4.14674e-22 -9.78051e-07 -2.01499e-23 0)
(2.02561e-06 -6.69248e-07 1.02903e-21 -9.72324e-07 -8.44575e-23 0)
(1.29571e-06 5.49958e-07 -8.04018e-22 -3.53953e-06 -3.72178e-21 -2.25822e-36)
(1.14077e-06 -3.4454e-07 -1.97895e-21 -2.55943e-06 -1.74065e-21 0)
(1.0837e-06 -7.95338e-07 3.08067e-21 -1.95692e-06 8.0673e-22 0)
(1.22211e-06 -1.03284e-06 6.65742e-22 -1.61448e-06 7.49222e-22 0)
(1.38306e-06 -1.14097e-06 1.80389e-21 -1.41275e-06 8.47091e-22 0)
(1.57973e-06 -1.17578e-06 -1.75744e-21 -1.29711e-06 -8.78849e-22 0)
(1.76726e-06 -1.16847e-06 -2.84837e-21 -1.23199e-06 -8.18487e-22 0)
(1.95336e-06 -1.13841e-06 -9.70354e-22 -1.19726e-06 -2.19541e-22 0)
(2.11718e-06 -1.09137e-06 4.89985e-23 -1.17868e-06 -4.09983e-24 0)
(2.27998e-06 -1.05612e-06 1.39909e-21 -1.16911e-06 6.25618e-22 0)
(1.10647e-06 5.91266e-07 -2.88837e-21 -3.00199e-06 -4.09715e-23 1.33498e-35)
(1.26401e-06 -5.18923e-07 1.30827e-21 -2.40194e-06 -1.79197e-21 0)
(1.36805e-06 -1.07361e-06 -7.81639e-21 -2.002e-06 -5.99045e-21 0)
(1.58731e-06 -1.36276e-06 -1.76597e-21 -1.77879e-06 1.15836e-22 0)
(1.78486e-06 -1.49085e-06 -1.07209e-22 -1.64179e-06 2.30306e-22 0)
(1.99096e-06 -1.52806e-06 2.31997e-21 -1.56018e-06 1.04394e-21 0)
(2.17292e-06 -1.51354e-06 -6.40383e-22 -1.50963e-06 -3.43732e-24 0)
(2.34571e-06 -1.47074e-06 1.94369e-21 -1.47854e-06 1.30794e-21 0)
(2.48833e-06 -1.40826e-06 -3.45052e-21 -1.45467e-06 -6.64239e-22 0)
(2.63616e-06 -1.36015e-06 3.10439e-21 -1.43964e-06 4.73221e-22 0)
(9.26016e-07 4.78936e-07 7.80523e-22 -2.37115e-06 -2.83713e-21 -5.85183e-37)
(1.44292e-06 -7.22186e-07 6.52062e-21 -2.21781e-06 6.0103e-21 0)
(1.73111e-06 -1.31389e-06 -6.21016e-21 -2.05571e-06 -4.1628e-21 0)
(2.04108e-06 -1.61703e-06 -2.90416e-21 -1.97284e-06 -1.57253e-21 0)
(2.27834e-06 -1.74496e-06 2.56145e-21 -1.91192e-06 1.08158e-21 0)
(2.49272e-06 -1.77479e-06 3.43581e-21 -1.87039e-06 1.41183e-21 0)
(2.66605e-06 -1.74952e-06 1.95358e-21 -1.83712e-06 1.26666e-21 0)
(2.82111e-06 -1.69366e-06 3.44985e-21 -1.81025e-06 1.05178e-21 0)
(2.93778e-06 -1.61877e-06 -7.6465e-22 -1.78057e-06 -8.44004e-22 0)
(3.06596e-06 -1.55924e-06 -4.70881e-21 -1.75871e-06 -4.69987e-22 0)
(8.05145e-07 2.00854e-07 -7.63003e-23 -1.7093e-06 1.86997e-22 -1.24636e-39)
(1.68676e-06 -9.53992e-07 4.09903e-21 -2.02533e-06 2.05462e-21 0)
(2.15984e-06 -1.50924e-06 3.32681e-21 -2.11243e-06 2.99517e-21 0)
(2.55799e-06 -1.78505e-06 -1.63264e-21 -2.17729e-06 -1.09585e-21 0)
(2.83161e-06 -1.89083e-06 -2.99286e-21 -2.19635e-06 -1.32257e-21 0)
(3.05009e-06 -1.90273e-06 -1.88853e-21 -2.19713e-06 -7.54229e-22 0)
(3.21089e-06 -1.86293e-06 3.04667e-21 -2.18236e-06 1.55493e-21 0)
(3.3439e-06 -1.79391e-06 -3.64999e-21 -2.15993e-06 -1.95939e-21 0)
(3.43149e-06 -1.70976e-06 6.06287e-21 -2.12494e-06 1.84265e-21 0)
(3.53572e-06 -1.64071e-06 2.06896e-22 -2.0954e-06 -8.38088e-22 0)
(7.95626e-07 -2.35783e-07 3.57211e-21 -1.08211e-06 -6.55058e-21 -3.83508e-37)
(2.00439e-06 -1.20898e-06 -1.13078e-20 -1.8445e-06 -6.20067e-21 0)
(2.64003e-06 -1.65533e-06 3.86271e-21 -2.16736e-06 2.59511e-21 0)
(3.11108e-06 -1.86322e-06 -3.53305e-22 -2.37301e-06 1.00341e-21 0)
(3.411e-06 -1.9254e-06 1.66628e-21 -2.46798e-06 7.97662e-22 0)
(3.62637e-06 -1.90937e-06 -6.9399e-22 -2.50925e-06 -2.58113e-22 0)
(3.76997e-06 -1.85162e-06 -4.25037e-21 -2.51234e-06 -1.79672e-21 0)
(3.87689e-06 -1.76992e-06 2.45212e-21 -2.49438e-06 1.08294e-21 0)
(3.93402e-06 -1.67971e-06 -2.23038e-21 -2.45513e-06 -9.78827e-22 0)
(4.01066e-06 -1.60318e-06 4.64994e-21 -2.41815e-06 1.16239e-21 0)
(9.43774e-07 -8.04771e-07 -1.33079e-21 -5.51449e-07 1.91376e-21 5.70978e-38)
(2.40198e-06 -1.4765e-06 -3.68857e-21 -1.69404e-06 -4.32112e-21 0)
(3.15608e-06 -1.75007e-06 -5.4232e-21 -2.21563e-06 -5.19028e-21 0)
(3.67263e-06 -1.85438e-06 2.0142e-21 -2.54137e-06 9.86294e-22 0)
(3.9823e-06 -1.8543e-06 5.36791e-21 -2.70064e-06 2.62358e-21 0)
(4.18424e-06 -1.8019e-06 4.88957e-21 -2.77649e-06 2.38558e-21 0)
(4.30503e-06 -1.72356e-06 -7.61869e-22 -2.79539e-06 1.45201e-22 0)
(4.38192e-06 -1.63021e-06 2.80574e-21 -2.78119e-06 1.19002e-21 0)
(4.40909e-06 -1.53677e-06 -2.75937e-21 -2.74078e-06 -1.98089e-21 0)
(4.45473e-06 -1.45463e-06 9.79929e-22 -2.6966e-06 9.48298e-22 0)
(1.28518e-06 -1.46313e-06 3.83704e-21 -1.69779e-07 5.16688e-21 -1.37713e-35)
(2.88234e-06 -1.74138e-06 5.30199e-21 -1.5902e-06 6.77702e-21 0)
(3.69322e-06 -1.79356e-06 5.63881e-21 -2.25368e-06 1.5818e-21 0)
(4.21842e-06 -1.76756e-06 8.18057e-22 -2.66727e-06 -8.49928e-22 0)
(4.51655e-06 -1.69162e-06 1.7046e-22 -2.87259e-06 -2.5175e-22 0)
(4.69298e-06 -1.59757e-06 -1.23467e-22 -2.97394e-06 -3.54395e-23 0)
(4.78503e-06 -1.49748e-06 4.46119e-21 -3.00415e-06 2.35812e-21 0)
(4.82871e-06 -1.39554e-06 -5.95709e-21 -2.99385e-06 -3.86076e-21 0)
(4.82793e-06 -1.30171e-06 5.50525e-21 -2.95343e-06 2.27888e-21 0)
(4.84067e-06 -1.21685e-06 5.92525e-22 -2.90883e-06 3.13955e-22 0)
(1.83962e-06 -2.1552e-06 5.75078e-21 2.52452e-08 -9.60882e-21 -1.56881e-35)
(3.44232e-06 -1.98523e-06 5.64202e-21 -1.54453e-06 2.7818e-21 0)
(4.23573e-06 -1.788e-06 7.54453e-21 -2.2787e-06 3.79053e-21 0)
(4.72566e-06 -1.61671e-06 3.63173e-21 -2.73922e-06 2.84526e-21 0)
(4.98663e-06 -1.45788e-06 -5.73644e-21 -2.96741e-06 -3.18339e-21 0)
(5.12283e-06 -1.31969e-06 -5.14754e-21 -3.08153e-06 -2.82436e-21 0)
(5.17777e-06 -1.19817e-06 1.35112e-22 -3.11713e-06 -8.01657e-23 0)
(5.18315e-06 -1.08985e-06 -2.70679e-21 -3.10628e-06 -1.55059e-21 0)
(5.15633e-06 -1.00045e-06 2.81442e-21 -3.07176e-06 2.58852e-21 0)
(5.12521e-06 -9.15842e-07 3.8329e-21 -3.01435e-06 8.75652e-22 0)
(2.05211e-06 -2.12136e-07 5.69134e-22 -8.85141e-07 -2.07669e-24 0)
(2.19864e-06 -1.89711e-07 1.05815e-21 -8.90646e-07 -3.19176e-22 0)
(2.33201e-06 -1.7185e-07 5.70115e-23 -8.99763e-07 -7.4784e-25 0)
(2.45383e-06 -1.55386e-07 -9.03762e-22 -9.06215e-07 -4.87873e-22 0)
(2.56268e-06 -1.4072e-07 -3.60344e-21 -9.08806e-07 -1.66619e-22 0)
(2.66061e-06 -1.27731e-07 -5.48415e-22 -9.07184e-07 6.5746e-22 0)
(2.74758e-06 -1.16049e-07 3.18882e-21 -9.00064e-07 3.39778e-22 0)
(2.82447e-06 -1.05613e-07 -3.19916e-21 -8.87213e-07 -1.79225e-22 0)
(2.89164e-06 -9.61384e-08 2.83662e-22 -8.67836e-07 9.60568e-22 0)
(2.94949e-06 -8.74999e-08 1.7556e-21 -8.41486e-07 3.26457e-22 0)
(2.99814e-06 -7.94912e-08 2.9836e-22 -8.07447e-07 9.03925e-22 0)
(3.03775e-06 -7.19593e-08 3.47529e-21 -7.65019e-07 3.28709e-22 0)
(3.06791e-06 -6.47304e-08 3.18461e-21 -7.13292e-07 -6.23537e-22 0)
(3.08879e-06 -5.76312e-08 -3.45773e-21 -6.51224e-07 -3.03402e-22 0)
(3.09877e-06 -5.04924e-08 -5.1355e-21 -5.77499e-07 8.89197e-24 0)
(3.09903e-06 -4.30971e-08 2.71944e-21 -4.90601e-07 4.34563e-22 0)
(3.0845e-06 -3.52752e-08 -6.74651e-23 -3.88544e-07 -1.49806e-22 0)
(3.06132e-06 -2.6662e-08 1.89383e-21 -2.69214e-07 3.65512e-22 0)
(3.01253e-06 -1.7309e-08 1.58461e-21 -1.29247e-07 -1.54743e-23 0)
(2.96552e-06 -5.63191e-09 3.95377e-22 3.29163e-08 4.11284e-23 -4.36219e-37)
(2.17665e-06 -6.18324e-07 1.61786e-23 -9.81504e-07 1.78111e-23 0)
(2.30257e-06 -5.54051e-07 -1.528e-21 -9.73542e-07 -1.6997e-22 0)
(2.42066e-06 -5.02642e-07 7.89914e-22 -9.71463e-07 1.76092e-22 0)
(2.52866e-06 -4.55273e-07 2.53326e-21 -9.68475e-07 8.64569e-22 0)
(2.62631e-06 -4.12891e-07 -1.48063e-21 -9.62805e-07 -5.57972e-24 0)
(2.71452e-06 -3.75329e-07 -2.16863e-21 -9.54312e-07 -7.05527e-22 0)
(2.79343e-06 -3.4143e-07 1.45439e-21 -9.41307e-07 6.97119e-22 0)
(2.86341e-06 -3.11095e-07 3.75485e-22 -9.23542e-07 3.39736e-22 0)
(2.92478e-06 -2.83484e-07 -3.36132e-21 -9.00036e-07 -1.05107e-21 0)
(2.97768e-06 -2.5826e-07 -2.00393e-21 -8.70268e-07 -3.68395e-22 0)
(3.02217e-06 -2.34823e-07 -4.45066e-23 -8.33427e-07 -1.25287e-24 0)
(3.05825e-06 -2.12737e-07 6.14627e-21 -7.88754e-07 5.14585e-22 0)
(3.08546e-06 -1.91496e-07 2.83058e-22 -7.3529e-07 2.81175e-22 0)
(3.1039e-06 -1.70596e-07 -1.43491e-21 -6.71965e-07 2.9583e-22 0)
(3.11191e-06 -1.49541e-07 -3.11848e-22 -5.97449e-07 -3.43753e-22 0)
(3.11065e-06 -1.2769e-07 -3.32542e-22 -5.10228e-07 -2.97979e-22 0)
(3.09505e-06 -1.04548e-07 -1.18796e-21 -4.08336e-07 2.66966e-22 0)
(3.07122e-06 -7.90284e-08 -8.60049e-22 -2.89701e-07 -7.8398e-23 0)
(3.02236e-06 -5.13016e-08 4.78726e-21 -1.51051e-07 6.54537e-22 0)
(2.97569e-06 -1.66915e-08 1.23133e-21 9.0976e-09 3.09554e-22 -4.06867e-36)
(2.40208e-06 -9.77552e-07 8.90817e-22 -1.16103e-06 -1.88748e-22 0)
(2.49064e-06 -8.80544e-07 1.92805e-21 -1.12847e-06 5.94917e-22 0)
(2.58086e-06 -8.01433e-07 -4.92717e-21 -1.10543e-06 -4.24945e-22 0)
(2.66377e-06 -7.28648e-07 5.32276e-22 -1.08503e-06 3.94541e-22 0)
(2.74114e-06 -6.62619e-07 2.70575e-21 -1.06396e-06 -1.5299e-22 0)
(2.81171e-06 -6.03983e-07 -4.1671e-21 -1.04269e-06 -2.56053e-22 0)
(2.87606e-06 -5.50632e-07 -2.22205e-21 -1.01872e-06 -4.08185e-22 0)
(2.93352e-06 -5.02721e-07 5.01695e-21 -9.91795e-07 3.24367e-22 0)
(2.98442e-06 -4.58886e-07 2.84258e-21 -9.60595e-07 -2.37839e-22 0)
(3.02838e-06 -4.18694e-07 -3.71602e-21 -9.24461e-07 -4.89602e-22 0)
(3.06535e-06 -3.81208e-07 -4.25474e-21 -8.82419e-07 -8.42455e-22 0)
(3.0951e-06 -3.45765e-07 1.69231e-21 -8.33599e-07 1.02823e-22 0)
(3.11705e-06 -3.11573e-07 2.92437e-21 -7.76958e-07 4.77406e-22 0)
(3.13115e-06 -2.7783e-07 1.01445e-22 -7.11373e-07 -4.81209e-22 0)
(3.13574e-06 -2.43746e-07 1.89876e-22 -6.35493e-07 1.25259e-22 0)
(3.13186e-06 -2.08281e-07 -4.24272e-21 -5.47808e-07 -4.65841e-22 0)
(3.11454e-06 -1.70635e-07 -2.09364e-21 -4.46405e-07 -6.32042e-23 0)
(3.08977e-06 -1.29036e-07 -7.74714e-22 -3.29273e-07 -3.31545e-22 0)
(3.04113e-06 -8.37737e-08 1.64556e-21 -1.93318e-07 2.85902e-22 0)
(2.99531e-06 -2.72874e-08 1.49968e-21 -3.71452e-08 6.54113e-22 -6.51728e-36)
(2.71904e-06 -1.26295e-06 9.41115e-22 -1.4087e-06 3.09976e-22 0)
(2.75629e-06 -1.14765e-06 -8.62079e-22 -1.3446e-06 -1.21974e-23 0)
(2.80833e-06 -1.04989e-06 4.77584e-22 -1.29318e-06 -4.08471e-22 0)
(2.85621e-06 -9.60358e-07 -6.56869e-23 -1.24941e-06 -4.3031e-22 0)
(2.90535e-06 -8.77064e-07 3.37024e-22 -1.20733e-06 -1.93836e-22 0)
(2.95106e-06 -8.0286e-07 -1.19406e-21 -1.16848e-06 -2.37698e-22 0)
(2.99486e-06 -7.3444e-07 -1.49719e-21 -1.12934e-06 -4.45829e-22 0)
(3.03453e-06 -6.72634e-07 -7.03066e-22 -1.08962e-06 -4.04232e-22 0)
(3.07051e-06 -6.15635e-07 3.06059e-22 -1.04763e-06 1.95613e-22 0)
(3.10168e-06 -5.63061e-07 1.31092e-21 -1.00249e-06 7.61545e-22 0)
(3.12787e-06 -5.13742e-07 -2.28475e-21 -9.53058e-07 -4.86231e-22 0)
(3.14848e-06 -4.66866e-07 1.45989e-21 -8.98299e-07 4.21739e-22 0)
(3.16281e-06 -4.21426e-07 3.42716e-21 -8.37084e-07 3.32348e-22 0)
(3.17064e-06 -3.76375e-07 -1.38505e-21 -7.68222e-07 -4.00209e-22 0)
(3.17024e-06 -3.30679e-07 -3.16941e-21 -6.9035e-07 -3.04004e-22 0)
(3.16255e-06 -2.82941e-07 -1.98343e-21 -6.01978e-07 -3.83144e-22 0)
(3.14272e-06 -2.32095e-07 1.40661e-21 -5.01276e-07 -7.30736e-23 0)
(3.11656e-06 -1.75718e-07 1.69768e-21 -3.86337e-07 3.42537e-22 0)
(3.06824e-06 -1.14199e-07 4.61594e-22 -2.54328e-07 7.35132e-23 0)
(3.02368e-06 -3.73171e-08 -1.03379e-21 -1.03991e-07 -6.32974e-22 -3.29788e-36)
(3.10377e-06 -1.45431e-06 1.81077e-21 -1.70217e-06 -3.15624e-22 0)
(3.08124e-06 -1.33867e-06 8.58305e-22 -1.60492e-06 -1.13356e-21 0)
(3.08879e-06 -1.23363e-06 -1.9463e-21 -1.52078e-06 3.38627e-22 0)
(3.09464e-06 -1.1383e-06 -8.82788e-22 -1.45019e-06 -3.55432e-23 0)
(3.10996e-06 -1.04592e-06 3.07055e-21 -1.38336e-06 3.67674e-22 0)
(3.12532e-06 -9.63099e-07 -1.73104e-21 -1.32348e-06 5.52602e-22 0)
(3.14397e-06 -8.85215e-07 -1.89336e-21 -1.26606e-06 -5.12694e-22 0)
(3.16168e-06 -8.14144e-07 1.56431e-21 -1.21074e-06 -2.97772e-22 0)
(3.17912e-06 -7.47849e-07 -7.56685e-22 -1.15555e-06 3.22272e-22 0)
(3.19435e-06 -6.86142e-07 -4.44711e-23 -1.09935e-06 3.53742e-22 0)
(3.20703e-06 -6.27789e-07 -1.69502e-21 -1.04082e-06 -1.56353e-22 0)
(3.21616e-06 -5.71913e-07 -1.96056e-21 -9.78746e-07 -9.78995e-22 0)
(3.22088e-06 -5.17397e-07 5.93192e-21 -9.11904e-07 7.2005e-22 0)
(3.22076e-06 -4.63015e-07 7.05199e-22 -8.39029e-07 3.45932e-22 0)
(3.21401e-06 -4.07551e-07 -1.17268e-21 -7.58755e-07 -2.93161e-22 0)
(3.20145e-06 -3.49305e-07 8.95091e-22 -6.69629e-07 1.66766e-22 0)
(3.17839e-06 -2.86988e-07 -3.89875e-21 -5.69938e-07 -9.52602e-22 0)
(3.15043e-06 -2.17593e-07 1.6186e-21 -4.57928e-07 4.93655e-22 0)
(3.10253e-06 -1.41594e-07 -7.45859e-22 -3.31115e-07 -2.08682e-22 0)
(3.05954e-06 -4.64493e-08 3.4809e-22 -1.88442e-07 1.13272e-22 5.31462e-40)
(3.52737e-06 -1.53914e-06 -8.43399e-22 -2.01396e-06 -1.08614e-21 0)
(3.44305e-06 -1.44238e-06 -1.31103e-21 -1.8886e-06 8.34288e-22 0)
(3.40473e-06 -1.34226e-06 -1.31602e-21 -1.77227e-06 4.02642e-22 0)
(3.36529e-06 -1.25314e-06 -9.91254e-22 -1.67504e-06 -1.05953e-21 0)
(3.34416e-06 -1.1611e-06 2.17215e-21 -1.58304e-06 1.58798e-21 0)
(3.32602e-06 -1.0776e-06 2.25582e-21 -1.50095e-06 4.07006e-22 0)
(3.31664e-06 -9.96946e-07 3.54843e-21 -1.42403e-06 2.62792e-22 0)
(3.30961e-06 -9.22119e-07 -4.4837e-21 -1.35163e-06 -7.91622e-22 0)
(3.30594e-06 -8.51243e-07 -2.96197e-21 -1.28178e-06 -6.25932e-23 0)
(3.30287e-06 -7.84351e-07 -3.24357e-22 -1.21305e-06 -7.8391e-22 0)
(3.29991e-06 -7.20362e-07 4.24923e-21 -1.14406e-06 4.75584e-22 0)
(3.29567e-06 -6.58417e-07 -8.11747e-22 -1.07344e-06 -7.44079e-22 0)
(3.28912e-06 -5.97411e-07 -2.51734e-21 -9.99918e-07 -3.6213e-22 0)
(3.27963e-06 -5.3602e-07 1.17027e-21 -9.22196e-07 5.69361e-22 0)
(3.26535e-06 -4.7293e-07 -1.66281e-21 -8.38939e-07 -3.1288e-22 0)
(3.24699e-06 -4.06206e-07 -8.87627e-22 -7.48769e-07 -1.93676e-22 0)
(3.22006e-06 -3.34402e-07 -3.52132e-22 -6.50148e-07 -1.43379e-22 0)
(3.18993e-06 -2.54e-07 1.81912e-21 -5.41531e-07 4.80745e-22 0)
(3.14256e-06 -1.65546e-07 2.21416e-21 -4.20906e-07 7.30397e-22 0)
(3.10151e-06 -5.45577e-08 -1.74364e-21 -2.87521e-07 -1.18305e-21 -5.32652e-36)
(3.95974e-06 -1.51556e-06 -3.69317e-22 -2.31509e-06 3.44449e-22 0)
(3.81792e-06 -1.45668e-06 7.49231e-22 -2.17103e-06 4.17272e-22 0)
(3.73714e-06 -1.37374e-06 3.83952e-21 -2.02708e-06 4.85313e-22 0)
(3.65283e-06 -1.30222e-06 -6.10591e-21 -1.9052e-06 -1.22714e-21 0)
(3.59527e-06 -1.22028e-06 -4.23275e-22 -1.78978e-06 4.72341e-22 0)
(3.54292e-06 -1.14366e-06 4.10336e-22 -1.68566e-06 -4.48683e-22 0)
(3.50426e-06 -1.06692e-06 4.33994e-21 -1.58931e-06 1.3794e-21 0)
(3.47128e-06 -9.93645e-07 1.73564e-21 -1.49953e-06 1.80224e-22 0)
(3.44509e-06 -9.2279e-07 -2.38866e-21 -1.41469e-06 -1.10787e-21 0)
(3.42245e-06 -8.54592e-07 -1.04937e-21 -1.33311e-06 -5.23461e-22 0)
(3.40256e-06 -7.88373e-07 -1.6979e-21 -1.25338e-06 -2.23081e-22 0)
(3.3838e-06 -7.23371e-07 4.49607e-22 -1.17402e-06 2.32822e-22 0)
(3.3649e-06 -6.58599e-07 1.46557e-21 -1.09371e-06 6.90106e-22 0)
(3.34506e-06 -5.9271e-07 0 -1.01113e-06 0 0)
(3.32242e-06 -5.24361e-07 3.1066e-22 -9.25013e-07 -2.55178e-22 0)
(3.29755e-06 -4.51451e-07 1.69836e-21 -8.3409e-07 4.16725e-22 0)
(3.26627e-06 -3.72434e-07 -8.23651e-22 -7.3705e-07 -1.26254e-22 0)
(3.23364e-06 -2.83395e-07 -3.05378e-21 -6.32614e-07 -1.07854e-21 0)
(3.18685e-06 -1.84953e-07 2.58946e-21 -5.19308e-07 9.36113e-22 0)
(3.14787e-06 -6.12233e-08 -7.87447e-22 -3.96744e-07 -6.97972e-22 -1.54523e-36)
(4.36896e-06 -1.38674e-06 3.68222e-21 -2.58022e-06 4.59087e-22 0)
(4.18045e-06 -1.38057e-06 -2.9285e-21 -2.43231e-06 -6.38619e-22 0)
(4.06615e-06 -1.3267e-06 2.64832e-21 -2.27419e-06 1.26982e-21 0)
(3.94249e-06 -1.28213e-06 8.69105e-22 -2.13416e-06 3.93758e-22 0)
(3.85148e-06 -1.22075e-06 -6.77109e-21 -2.00165e-06 -2.50719e-21 0)
(3.76733e-06 -1.15889e-06 1.58162e-21 -1.87899e-06 7.1113e-22 0)
(3.69998e-06 -1.09363e-06 1.78216e-21 -1.76543e-06 2.26636e-22 0)
(3.64136e-06 -1.02811e-06 6.37932e-21 -1.65928e-06 1.74902e-21 0)
(3.5922e-06 -9.62637e-07 -1.66628e-21 -1.55957e-06 -2.22019e-22 0)
(3.54939e-06 -8.97615e-07 -4.65573e-22 -1.46471e-06 3.55486e-22 0)
(3.51178e-06 -8.32944e-07 4.5212e-22 -1.37344e-06 -3.19976e-22 0)
(3.47766e-06 -7.681e-07 -4.46525e-22 -1.28439e-06 2.80127e-22 0)
(3.44559e-06 -7.02343e-07 5.18123e-22 -1.19629e-06 7.23059e-22 0)
(3.41466e-06 -6.34432e-07 5.96928e-21 -1.10792e-06 1.50545e-21 0)
(3.38301e-06 -5.63092e-07 -2.54171e-21 -1.01814e-06 -8.15801e-22 0)
(3.35108e-06 -4.86159e-07 -4.88548e-21 -9.2584e-07 -1.31136e-21 0)
(3.31508e-06 -4.02062e-07 4.00653e-21 -8.30007e-07 1.33946e-21 0)
(3.27971e-06 -3.0658e-07 7.8057e-22 -7.2969e-07 2.41169e-22 0)
(3.23362e-06 -2.00411e-07 -2.30212e-21 -6.24081e-07 -9.15198e-22 0)
(3.19711e-06 -6.66402e-08 6.87731e-22 -5.13324e-07 4.14477e-22 -8.13833e-39)
(4.73308e-06 -1.17668e-06 -3.39527e-21 -2.7849e-06 -1.34008e-21 0)
(4.50994e-06 -1.23062e-06 -1.20173e-21 -2.63843e-06 2.46689e-22 0)
(4.37177e-06 -1.21851e-06 1.08088e-21 -2.4809e-06 -2.72024e-22 0)
(4.21813e-06 -1.20415e-06 3.86472e-21 -2.32822e-06 7.59507e-22 0)
(4.0974e-06 -1.17023e-06 -2.71073e-21 -2.18414e-06 -5.07016e-22 0)
(3.98615e-06 -1.12727e-06 -2.02627e-21 -2.04719e-06 1.98978e-22 0)
(3.89246e-06 -1.0776e-06 0 -1.91981e-06 0 0)
(3.81043e-06 -1.02354e-06 3.19324e-21 -1.80055e-06 9.82706e-22 0)
(3.73972e-06 -9.66924e-07 4.65224e-21 -1.68883e-06 1.64472e-21 0)
(3.67776e-06 -9.08457e-07 1.69505e-21 -1.58333e-06 2.69793e-22 0)
(3.62301e-06 -8.48543e-07 -2.96499e-21 -1.48283e-06 -9.07975e-22 0)
(3.57384e-06 -7.86926e-07 -5.04995e-21 -1.38609e-06 -9.27611e-22 0)
(3.52866e-06 -7.23084e-07 -2.48332e-21 -1.29193e-06 -1.1615e-21 0)
(3.48654e-06 -6.55915e-07 4.77315e-21 -1.19927e-06 1.07325e-21 0)
(3.44568e-06 -5.84235e-07 5.29664e-21 -1.10714e-06 1.8061e-21 0)
(3.40646e-06 -5.05897e-07 -2.51964e-21 -1.01469e-06 -8.98793e-22 0)
(3.36556e-06 -4.19357e-07 -9.21841e-22 -9.21256e-07 -4.13967e-22 0)
(3.32728e-06 -3.20251e-07 3.28878e-21 -8.26292e-07 1.33245e-21 0)
(3.28193e-06 -2.09401e-07 -3.01203e-21 -7.29658e-07 -1.33055e-21 0)
(3.24758e-06 -6.98171e-08 6.18871e-24 -6.31864e-07 4.25991e-24 -5.32769e-43)
(5.01472e-06 -8.88754e-07 2.74685e-21 -2.93303e-06 7.38238e-22 0)
(4.79443e-06 -9.83545e-07 -2.07774e-21 -2.79992e-06 -4.17326e-22 0)
(4.64018e-06 -1.03147e-06 7.34625e-23 -2.66828e-06 -5.22087e-22 0)
(4.4736e-06 -1.05593e-06 -1.04638e-21 -2.52004e-06 2.01476e-22 0)
(4.32768e-06 -1.06184e-06 -1.92489e-21 -2.37408e-06 1.44737e-23 0)
(4.19385e-06 -1.04972e-06 -1.68664e-21 -2.22975e-06 -9.99407e-22 0)
(4.07562e-06 -1.02522e-06 -1.40557e-21 -2.09117e-06 -1.55161e-21 0)
(3.97114e-06 -9.90677e-07 -9.96435e-23 -1.95935e-06 7.62711e-23 0)
(3.87947e-06 -9.48937e-07 1.06924e-22 -1.83467e-06 -5.89614e-23 0)
(3.79879e-06 -9.01636e-07 3.34119e-21 -1.71682e-06 5.87011e-22 0)
(3.72742e-06 -8.49901e-07 4.22556e-21 -1.60508e-06 1.74733e-21 0)
(3.66371e-06 -7.94124e-07 -2.6643e-21 -1.49855e-06 -1.31681e-21 0)
(3.606e-06 -7.34234e-07 -4.20667e-21 -1.39629e-06 -1.58117e-21 0)
(3.55325e-06 -6.69482e-07 -2.75627e-21 -1.29741e-06 -9.61838e-22 0)
(3.50372e-06 -5.98904e-07 1.12552e-21 -1.20117e-06 5.48783e-22 0)
(3.45772e-06 -5.20501e-07 5.283e-23 -1.10696e-06 5.84546e-24 0)
(3.41242e-06 -4.32814e-07 -1.50035e-21 -1.01456e-06 -5.2238e-22 0)
(3.37181e-06 -3.31449e-07 2.89528e-23 -9.23839e-07 7.1933e-24 0)
(3.328e-06 -2.17249e-07 1.4569e-21 -8.35387e-07 6.75534e-22 0)
(3.29712e-06 -7.27875e-08 -3.9201e-22 -7.50249e-07 -3.04036e-22 -4.6781e-39)
(5.17347e-06 -6.5033e-07 9.97891e-22 -2.96386e-06 5.79252e-22 0)
(4.9703e-06 -7.303e-07 1.98698e-21 -2.82875e-06 1.3601e-21 0)
(4.8031e-06 -8.23954e-07 2.06224e-21 -2.71714e-06 6.04302e-22 0)
(4.63897e-06 -8.75898e-07 5.56837e-22 -2.5867e-06 9.09569e-23 0)
(4.48628e-06 -9.09488e-07 7.32522e-22 -2.45031e-06 9.77579e-22 0)
(4.34516e-06 -9.23176e-07 1.87932e-22 -2.31286e-06 -6.40534e-22 0)
(4.21701e-06 -9.21569e-07 -3.83884e-21 -2.17735e-06 -1.42432e-21 0)
(4.10124e-06 -9.07239e-07 -1.37182e-21 -2.04608e-06 -3.06427e-22 0)
(3.99745e-06 -8.82715e-07 1.36541e-21 -1.9201e-06 2.96475e-22 0)
(3.90445e-06 -8.49861e-07 -1.6764e-21 -1.79982e-06 -3.38169e-22 0)
(3.82106e-06 -8.09993e-07 4.27261e-21 -1.68517e-06 1.87304e-21 0)
(3.74601e-06 -7.63815e-07 2.61964e-21 -1.57579e-06 1.03194e-21 0)
(3.67797e-06 -7.11539e-07 -3.8429e-22 -1.47121e-06 2.93961e-22 0)
(3.6161e-06 -6.52734e-07 9.65419e-22 -1.37096e-06 5.88631e-22 0)
(3.559e-06 -5.86692e-07 1.52808e-21 -1.27472e-06 4.42262e-22 0)
(3.50698e-06 -5.11735e-07 -1.07211e-22 -1.18229e-06 -2.9043e-23 0)
(3.45788e-06 -4.26624e-07 9.12173e-22 -1.09392e-06 4.6968e-22 0)
(3.41522e-06 -3.27319e-07 4.84471e-22 -1.01e-06 1.49182e-22 0)
(3.37284e-06 -2.14882e-07 -1.45965e-21 -9.31915e-07 -7.02145e-22 0)
(3.34435e-06 -7.21853e-08 -7.17978e-22 -8.60901e-07 -7.96386e-22 -1.233e-36)
(5.11559e-06 -4.59588e-07 -6.82918e-21 -2.85268e-06 -2.21285e-21 0)
(4.98063e-06 -5.48026e-07 -3.35588e-21 -2.7839e-06 -1.94211e-21 0)
(4.83147e-06 -6.48945e-07 2.93703e-21 -2.68701e-06 1.55438e-22 0)
(4.68616e-06 -7.17776e-07 -1.62701e-21 -2.57615e-06 1.04785e-21 0)
(4.54494e-06 -7.66945e-07 -3.13108e-21 -2.45448e-06 -1.57494e-21 0)
(4.41113e-06 -7.96818e-07 3.78789e-21 -2.32887e-06 9.45894e-22 0)
(4.28634e-06 -8.10672e-07 -3.50398e-35 -2.20243e-06 -1.41406e-35 0)
(4.17101e-06 -8.10864e-07 -4.0051e-21 -2.07789e-06 -2.19513e-21 0)
(4.06537e-06 -7.996e-07 -7.56011e-36 -1.95673e-06 -5.88092e-36 0)
(3.96893e-06 -7.78592e-07 -1.05734e-21 -1.83989e-06 -7.8997e-22 0)
(3.88108e-06 -7.49104e-07 -1.03422e-21 -1.7278e-06 -7.41841e-22 0)
(3.80107e-06 -7.11884e-07 1.63201e-21 -1.62057e-06 4.01422e-22 0)
(3.728e-06 -6.67259e-07 -1.60064e-21 -1.51819e-06 -4.2e-22 0)
(3.66137e-06 -6.14988e-07 -4.66673e-35 -1.42062e-06 -1.44109e-35 0)
(3.6002e-06 -5.54579e-07 1.54577e-21 -1.32793e-06 4.82166e-22 0)