/*--------------------------------*- C++ -*----------------------------------*\
| =========                 |                                                 |
| \\      /  F ield         | foam-extend: Open Source CFD                    |
|  \\    /   O peration     | Version:     4.1                                |
|   \\  /    A nd           | Web:         http://www.foam-extend.org         |
|    \\/     M anipulation  |                                                 |
\*---------------------------------------------------------------------------*/
FoamFile
{
    version     2.0;
    format      ascii;
    class       vectorField;
    location    "8";
    object      solidsCellD_iteration13;
}
// * * * * * * * * * * * * * * * * * * * * * * * * * * * * * * * * * * * * * //


1000
(
(4.17502e-06 -1.78551e-06 0)
(3.93708e-06 -1.66065e-06 0)
(3.7847e-06 -1.58104e-06 0)
(3.6968e-06 -1.54341e-06 0)
(3.65332e-06 -1.52972e-06 0)
(3.64227e-06 -1.53455e-06 0)
(3.65507e-06 -1.55144e-06 0)
(3.68579e-06 -1.5773e-06 0)
(3.73e-06 -1.60921e-06 0)
(3.78472e-06 -1.64533e-06 0)
(3.77463e-06 -1.95032e-06 0)
(3.52129e-06 -1.86303e-06 0)
(3.35924e-06 -1.80717e-06 0)
(3.26422e-06 -1.78566e-06 0)
(3.21523e-06 -1.78267e-06 0)
(3.19923e-06 -1.79504e-06 0)
(3.20733e-06 -1.8173e-06 0)
(3.23317e-06 -1.84717e-06 0)
(3.27216e-06 -1.8824e-06 0)
(3.32058e-06 -1.92058e-06 0)
(3.35875e-06 -2.10651e-06 0)
(3.09997e-06 -2.06125e-06 0)
(2.93455e-06 -2.03198e-06 0)
(2.83649e-06 -2.02829e-06 0)
(2.78455e-06 -2.03697e-06 0)
(2.76517e-06 -2.05739e-06 0)
(2.76943e-06 -2.08527e-06 0)
(2.79093e-06 -2.11914e-06 0)
(2.825e-06 -2.15755e-06 0)
(2.86801e-06 -2.19791e-06 0)
(2.93045e-06 -2.25134e-06 0)
(2.67709e-06 -2.25016e-06 0)
(2.51519e-06 -2.24882e-06 0)
(2.41838e-06 -2.26374e-06 0)
(2.36617e-06 -2.28453e-06 0)
(2.34506e-06 -2.31323e-06 0)
(2.34638e-06 -2.34676e-06 0)
(2.36396e-06 -2.38463e-06 0)
(2.39339e-06 -2.42607e-06 0)
(2.43096e-06 -2.46878e-06 0)
(2.49271e-06 -2.38195e-06 0)
(2.25548e-06 -2.42448e-06 0)
(2.10397e-06 -2.45081e-06 0)
(2.01288e-06 -2.48412e-06 0)
(1.9631e-06 -2.51682e-06 0)
(1.94182e-06 -2.55365e-06 0)
(1.94112e-06 -2.59267e-06 0)
(1.95521e-06 -2.63444e-06 0)
(1.98014e-06 -2.67878e-06 0)
(2.01222e-06 -2.72391e-06 0)
(2.0476e-06 -2.49569e-06 0)
(1.83704e-06 -2.57911e-06 0)
(1.70263e-06 -2.63137e-06 0)
(1.62141e-06 -2.68188e-06 0)
(1.57656e-06 -2.72571e-06 0)
(1.55667e-06 -2.77009e-06 0)
(1.55485e-06 -2.81416e-06 0)
(1.56585e-06 -2.85955e-06 0)
(1.5863e-06 -2.90655e-06 0)
(1.61271e-06 -2.95405e-06 0)
(1.59734e-06 -2.58999e-06 0)
(1.42273e-06 -2.70924e-06 0)
(1.31131e-06 -2.78425e-06 0)
(1.24374e-06 -2.84984e-06 0)
(1.20619e-06 -2.90338e-06 0)
(1.18914e-06 -2.95434e-06 0)
(1.18692e-06 -3.00283e-06 0)
(1.19512e-06 -3.0514e-06 0)
(1.21105e-06 -3.10071e-06 0)
(1.23168e-06 -3.15035e-06 0)
(1.14341e-06 -2.66274e-06 0)
(1.01262e-06 -2.81079e-06 0)
(9.29198e-07 -2.90405e-06 0)
(8.78518e-07 -2.98168e-06 0)
(8.50241e-07 -3.04305e-06 0)
(8.37182e-07 -3.09932e-06 0)
(8.3512e-07 -3.15137e-06 0)
(8.40747e-07 -3.20251e-06 0)
(8.52134e-07 -3.25367e-06 0)
(8.66903e-07 -3.30509e-06 0)
(6.87076e-07 -2.71221e-06 0)
(6.06102e-07 -2.88037e-06 0)
(5.54493e-07 -2.98637e-06 0)
(5.2305e-07 -3.07249e-06 0)
(5.05415e-07 -3.13933e-06 0)
(4.97173e-07 -3.19927e-06 0)
(4.95757e-07 -3.25383e-06 0)
(4.99071e-07 -3.30682e-06 0)
(5.05899e-07 -3.35929e-06 0)
(5.14758e-07 -3.412e-06 0)
(2.29464e-07 -2.73712e-06 0)
(2.02039e-07 -2.91568e-06 0)
(1.84477e-07 -3.02827e-06 0)
(1.73777e-07 -3.11874e-06 0)
(1.67807e-07 -3.18841e-06 0)
(1.64974e-07 -3.25029e-06 0)
(1.64403e-07 -3.30612e-06 0)
(1.65467e-07 -3.36003e-06 0)
(1.67751e-07 -3.41319e-06 0)
(1.70697e-07 -3.46658e-06 0)
(6.52062e-06 -8.14947e-08 0)
(6.57989e-06 -5.86895e-08 0)
(6.61527e-06 -4.42075e-08 0)
(6.65327e-06 -3.56596e-08 0)
(6.69452e-06 -3.0878e-08 0)
(6.7452e-06 -2.86577e-08 0)
(6.80526e-06 -2.81597e-08 0)
(6.87544e-06 -2.8729e-08 0)
(6.95556e-06 -3.0155e-08 0)
(7.04455e-06 -3.19057e-08 0)
(6.47217e-06 -2.44503e-07 0)
(6.52157e-06 -1.77415e-07 0)
(6.55079e-06 -1.3485e-07 0)
(6.58462e-06 -1.09879e-07 0)
(6.62313e-06 -9.60309e-08 0)
(6.67184e-06 -8.95419e-08 0)
(6.73051e-06 -8.81523e-08 0)
(6.79955e-06 -9.00978e-08 0)
(6.8787e-06 -9.44256e-08 0)
(6.96665e-06 -9.95927e-08 0)
(6.37548e-06 -4.08861e-07 0)
(6.40604e-06 -3.01179e-07 0)
(6.42334e-06 -2.32911e-07 0)
(6.44927e-06 -1.92835e-07 0)
(6.48255e-06 -1.7074e-07 0)
(6.52759e-06 -1.60654e-07 0)
(6.58352e-06 -1.58708e-07 0)
(6.65039e-06 -1.62084e-07 0)
(6.72766e-06 -1.69267e-07 0)
(6.8136e-06 -1.77911e-07 0)
(6.23226e-06 -5.75322e-07 0)
(6.23601e-06 -4.32823e-07 0)
(6.23631e-06 -3.42577e-07 0)
(6.251e-06 -2.89832e-07 0)
(6.27682e-06 -2.60876e-07 0)
(6.31663e-06 -2.47915e-07 0)
(6.3687e-06 -2.4576e-07 0)
(6.43247e-06 -2.5078e-07 0)
(6.50708e-06 -2.60828e-07 0)
(6.59023e-06 -2.72977e-07 0)
(6.04473e-06 -7.44296e-07 0)
(6.01536e-06 -5.74739e-07 0)
(5.99464e-06 -4.67362e-07 0)
(5.9954e-06 -4.05027e-07 0)
(6.012e-06 -3.71092e-07 0)
(6.04527e-06 -3.5639e-07 0)
(6.09255e-06 -3.5463e-07 0)
(6.15243e-06 -3.61567e-07 0)
(6.22375e-06 -3.74476e-07 0)
(6.3035e-06 -3.90098e-07 0)
(5.81571e-06 -9.15888e-07 0)
(5.74887e-06 -7.28499e-07 0)
(5.70443e-06 -6.09769e-07 0)
(5.68944e-06 -5.41483e-07 0)
(5.69557e-06 -5.04806e-07 0)
(5.72138e-06 -4.89698e-07 0)
(5.7632e-06 -4.8903e-07 0)
(5.81863e-06 -4.98174e-07 0)
(5.88613e-06 -5.13956e-07 0)
(5.96205e-06 -5.33025e-07 0)
(5.54866e-06 -1.08977e-06 0)
(5.4422e-06 -8.94735e-07 0)
(5.3727e-06 -7.7107e-07 0)
(5.34105e-06 -7.0087e-07 0)
(5.33608e-06 -6.63883e-07 0)
(5.35397e-06 -6.49835e-07 0)
(5.38991e-06 -6.51049e-07 0)
(5.44055e-06 -6.62725e-07 0)
(5.50387e-06 -6.81428e-07 0)
(5.57573e-06 -7.03871e-07 0)
(5.24712e-06 -1.26511e-06 0)
(5.10141e-06 -1.07302e-06 0)
(5.00711e-06 -9.51096e-07 0)
(4.95889e-06 -8.83191e-07 0)
(4.94284e-06 -8.48443e-07 0)
(4.95271e-06 -8.36998e-07 0)
(4.98259e-06 -8.40933e-07 0)
(5.02826e-06 -8.55569e-07 0)
(5.08713e-06 -8.77273e-07 0)
(5.15479e-06 -9.03094e-07 0)
(4.91505e-06 -1.4407e-06 0)
(4.73286e-06 -1.26187e-06 0)
(4.61553e-06 -1.14829e-06 0)
(4.55179e-06 -1.08681e-06 0)
(4.52526e-06 -1.05684e-06 0)
(4.52737e-06 -1.04947e-06 0)
(4.55121e-06 -1.05698e-06 0)
(4.59188e-06 -1.07494e-06 0)
(4.6461e-06 -1.09991e-06 0)
(4.70963e-06 -1.1289e-06 0)
(4.55639e-06 -1.61488e-06 0)
(4.34283e-06 -1.45887e-06 0)
(4.20569e-06 -1.35966e-06 0)
(4.12843e-06 -1.30847e-06 0)
(4.09258e-06 -1.28564e-06 0)
(4.08763e-06 -1.28376e-06 0)
(4.10583e-06 -1.29563e-06 0)
(4.14153e-06 -1.31747e-06 0)
(4.19112e-06 -1.34581e-06 0)
(4.25028e-06 -1.37922e-06 0)
(7.14269e-06 -3.36235e-08 0)
(7.24971e-06 -3.39553e-08 0)
(7.36356e-06 -3.43648e-08 0)
(7.48385e-06 -3.46469e-08 0)
(7.60983e-06 -3.47703e-08 0)
(7.74101e-06 -3.47175e-08 0)
(7.8768e-06 -3.44295e-08 0)
(8.01666e-06 -3.39348e-08 0)
(8.16017e-06 -3.32362e-08 0)
(8.30689e-06 -3.22944e-08 0)
(8.45634e-06 -3.10727e-08 0)
(8.60808e-06 -2.95548e-08 0)
(8.76169e-06 -2.77212e-08 0)
(8.91669e-06 -2.55538e-08 0)
(9.07268e-06 -2.30195e-08 0)
(9.22905e-06 -2.0064e-08 0)
(9.3855e-06 -1.66168e-08 0)
(9.54096e-06 -1.26109e-08 0)
(9.69566e-06 -7.95381e-09 0)
(9.84703e-06 -2.61012e-09 0)
(7.06826e-06 -1.04356e-07 0)
(7.18151e-06 -1.04879e-07 0)
(7.30094e-06 -1.05683e-07 0)
(7.42609e-06 -1.06172e-07 0)
(7.5564e-06 -1.0619e-07 0)
(7.69138e-06 -1.05758e-07 0)
(7.8306e-06 -1.04755e-07 0)
(7.97358e-06 -1.03173e-07 0)
(8.11993e-06 -1.00926e-07 0)
(8.26921e-06 -9.79339e-08 0)
(8.42102e-06 -9.41505e-08 0)
(8.57495e-06 -8.95456e-08 0)
(8.73062e-06 -8.40367e-08 0)
(8.88757e-06 -7.75222e-08 0)
(9.04541e-06 -6.98774e-08 0)
(9.20355e-06 -6.09614e-08 0)
(9.36169e-06 -5.05909e-08 0)
(9.51878e-06 -3.85785e-08 0)
(9.6751e-06 -2.46309e-08 0)
(9.82803e-06 -8.62829e-09 0)
(6.92197e-06 -1.84698e-07 0)
(7.04748e-06 -1.84031e-07 0)
(7.17784e-06 -1.83954e-07 0)
(7.31242e-06 -1.83694e-07 0)
(7.45117e-06 -1.82854e-07 0)
(7.59366e-06 -1.81453e-07 0)
(7.73966e-06 -1.79207e-07 0)
(7.8887e-06 -1.76076e-07 0)
(8.04056e-06 -1.7191e-07 0)
(8.19487e-06 -1.66612e-07 0)
(8.35133e-06 -1.60098e-07 0)
(8.50958e-06 -1.52278e-07 0)
(8.66927e-06 -1.4298e-07 0)
(8.82998e-06 -1.32023e-07 0)
(8.99138e-06 -1.19206e-07 0)
(9.15293e-06 -1.04305e-07 0)
(9.31437e-06 -8.70114e-08 0)
(9.4747e-06 -6.70108e-08 0)
(9.6342e-06 -4.38032e-08 0)
(9.79033e-06 -1.71737e-08 0)
(6.70822e-06 -2.80102e-07 0)
(6.85127e-06 -2.76071e-07 0)
(6.99744e-06 -2.7313e-07 0)
(7.14576e-06 -2.70607e-07 0)
(7.29686e-06 -2.67643e-07 0)
(7.45027e-06 -2.64266e-07 0)
(7.60611e-06 -2.59952e-07 0)
(7.76404e-06 -2.54633e-07 0)
(7.92402e-06 -2.48055e-07 0)
(8.08578e-06 -2.40064e-07 0)
(8.24909e-06 -2.30501e-07 0)
(8.41367e-06 -2.19194e-07 0)
(8.57927e-06 -2.05897e-07 0)
(8.74553e-06 -1.90364e-07 0)
(8.91219e-06 -1.7232e-07 0)
(9.07876e-06 -1.51423e-07 0)
(9.24503e-06 -1.27239e-07 0)
(9.41007e-06 -9.93044e-08 0)
(9.57416e-06 -6.69016e-08 0)
(9.73491e-06 -2.97446e-08 0)
(6.43347e-06 -3.95396e-07 0)
(6.59856e-06 -3.85215e-07 0)
(6.76478e-06 -3.7689e-07 0)
(6.93052e-06 -3.70167e-07 0)
(7.09736e-06 -3.63431e-07 0)
(7.26475e-06 -3.56744e-07 0)
(7.43326e-06 -3.49279e-07 0)
(7.60265e-06 -3.4091e-07 0)
(7.77307e-06 -3.31219e-07 0)
(7.94436e-06 -3.19964e-07 0)
(8.11648e-06 -3.06904e-07 0)
(8.28926e-06 -2.91779e-07 0)
(8.46252e-06 -2.74251e-07 0)
(8.63599e-06 -2.53983e-07 0)
(8.80949e-06 -2.30601e-07 0)
(8.98256e-06 -2.0365e-07 0)
(9.1551e-06 -1.72566e-07 0)
(9.3262e-06 -1.36749e-07 0)
(9.49628e-06 -9.52435e-08 0)
(9.66301e-06 -4.76959e-08 0)
(6.10552e-06 -5.34074e-07 0)
(6.29595e-06 -5.14509e-07 0)
(6.48564e-06 -4.97791e-07 0)
(6.6719e-06 -4.84492e-07 0)
(6.85743e-06 -4.72022e-07 0)
(7.04152e-06 -4.60421e-07 0)
(7.22511e-06 -4.48503e-07 0)
(7.40821e-06 -4.36e-07 0)
(7.59116e-06 -4.22358e-07 0)
(7.77397e-06 -4.07201e-07 0)
(7.95673e-06 -3.90163e-07 0)
(8.13938e-06 -3.70856e-07 0)
(8.32185e-06 -3.48831e-07 0)
(8.50396e-06 -3.23653e-07 0)
(8.68563e-06 -2.94831e-07 0)
(8.8665e-06 -2.61805e-07 0)
(9.04656e-06 -2.2386e-07 0)
(9.22495e-06 -1.80265e-07 0)
(9.40221e-06 -1.29832e-07 0)
(9.57613e-06 -7.20775e-08 0)
(5.73356e-06 -6.98276e-07 0)
(5.95152e-06 -6.66043e-07 0)
(6.1671e-06 -6.37945e-07 0)
(6.37618e-06 -6.15526e-07 0)
(6.58256e-06 -5.95257e-07 0)
(6.78543e-06 -5.76956e-07 0)
(6.98612e-06 -5.59203e-07 0)
(7.1848e-06 -5.41427e-07 0)
(7.38204e-06 -5.22912e-07 0)
(7.57802e-06 -5.03107e-07 0)
(7.77295e-06 -4.81486e-07 0)
(7.96691e-06 -4.57515e-07 0)
(8.15993e-06 -4.3063e-07 0)
(8.35197e-06 -4.0029e-07 0)
(8.54303e-06 -3.65884e-07 0)
(8.73286e-06 -3.26734e-07 0)
(8.92154e-06 -2.81962e-07 0)
(9.10832e-06 -2.30692e-07 0)
(9.29379e-06 -1.71516e-07 0)
(9.47594e-06 -1.03806e-07 0)
(5.3268e-06 -8.88488e-07 0)
(5.57314e-06 -8.3996e-07 0)
(5.81587e-06 -7.97482e-07 0)
(6.04939e-06 -7.63105e-07 0)
(6.27826e-06 -7.32873e-07 0)
(6.5016e-06 -7.05987e-07 0)
(6.72108e-06 -6.80897e-07 0)
(6.93697e-06 -6.56644e-07 0)
(7.15e-06 -6.32312e-07 0)
(7.36053e-06 -6.07121e-07 0)
(7.56893e-06 -5.80356e-07 0)
(7.77538e-06 -5.51321e-07 0)
(7.98009e-06 -5.19319e-07 0)
(8.18313e-06 -4.83681e-07 0)
(8.3846e-06 -4.43658e-07 0)
(8.58437e-06 -3.98434e-07 0)
(8.78256e-06 -3.46968e-07 0)
(8.97862e-06 -2.88226e-07 0)
(9.17315e-06 -2.20579e-07 0)
(9.36441e-06 -1.43256e-07 0)
(4.89527e-06 -1.10431e-06 0)
(5.17e-06 -1.0365e-06 0)
(5.43987e-06 -9.77757e-07 0)
(5.69864e-06 -9.29014e-07 0)
(5.95068e-06 -8.8689e-07 0)
(6.19553e-06 -8.4969e-07 0)
(6.43475e-06 -8.15761e-07 0)
(6.66888e-06 -7.83736e-07 0)
(6.89875e-06 -7.52486e-07 0)
(7.12488e-06 -7.20985e-07 0)
(7.34774e-06 -6.88321e-07 0)
(7.56768e-06 -6.53628e-07 0)
(7.78502e-06 -6.16068e-07 0)
(7.99997e-06 -5.7482e-07 0)
(8.21271e-06 -5.28983e-07 0)
(8.42322e-06 -4.7759e-07 0)
(8.6317e-06 -4.19438e-07 0)
(8.83776e-06 -3.5334e-07 0)
(9.04208e-06 -2.77478e-07 0)
(9.24321e-06 -1.90948e-07 0)
(4.44708e-06 -1.34188e-06 0)
(4.75023e-06 -1.25028e-06 0)
(5.04605e-06 -1.17324e-06 0)
(5.33068e-06 -1.10784e-06 0)
(5.60638e-06 -1.05191e-06 0)
(5.87363e-06 -1.00287e-06 0)
(6.13347e-06 -9.58854e-07 0)
(6.38674e-06 -9.1814e-07 0)
(6.63429e-06 -8.79296e-07 0)
(6.87678e-06 -8.41021e-07 0)
(7.11482e-06 -8.02165e-07 0)
(7.34891e-06 -7.61666e-07 0)
(7.57949e-06 -7.18507e-07 0)
(7.80687e-06 -6.71701e-07 0)
(8.03135e-06 -6.20187e-07 0)
(8.25304e-06 -5.62845e-07 0)
(8.47225e-06 -4.98324e-07 0)
(8.68872e-06 -4.25268e-07 0)
(8.90327e-06 -3.41694e-07 0)
(9.11476e-06 -2.46518e-07 0)
(4.11573e-06 -1.56868e-06 0)
(4.4372e-06 -1.4581e-06 0)
(4.74816e-06 -1.36755e-06 0)
(5.04845e-06 -1.28899e-06 0)
(5.3389e-06 -1.221e-06 0)
(5.62028e-06 -1.16094e-06 0)
(5.89347e-06 -1.10686e-06 0)
(6.15931e-06 -1.05699e-06 0)
(6.41861e-06 -1.00979e-06 0)
(6.67202e-06 -9.63831e-07 0)
(6.9202e-06 -9.17848e-07 0)
(7.16369e-06 -8.70672e-07 0)
(7.40298e-06 -8.2117e-07 0)
(7.63847e-06 -7.68244e-07 0)
(7.87049e-06 -7.10739e-07 0)
(8.09928e-06 -6.47431e-07 0)
(8.32523e-06 -5.76929e-07 0)
(8.54828e-06 -4.97777e-07 0)
(8.76927e-06 -4.07974e-07 0)
(8.98741e-06 -3.06359e-07 0)
(3.92567e-06 -1.75229e-06 0)
(4.24937e-06 -1.63754e-06 0)
(4.56287e-06 -1.53952e-06 0)
(4.86711e-06 -1.45299e-06 0)
(5.16213e-06 -1.37661e-06 0)
(5.44845e-06 -1.30819e-06 0)
(5.7267e-06 -1.24594e-06 0)
(5.99752e-06 -1.1882e-06 0)
(6.26158e-06 -1.13345e-06 0)
(6.51947e-06 -1.0803e-06 0)
(6.77179e-06 -1.02749e-06 0)
(7.01906e-06 -9.73831e-07 0)
(7.26176e-06 -9.18172e-07 0)
(7.50031e-06 -8.59383e-07 0)
(7.73508e-06 -7.96301e-07 0)
(7.96638e-06 -7.27681e-07 0)
(8.19462e-06 -6.52186e-07 0)
(8.41993e-06 -5.68371e-07 0)
(8.64313e-06 -4.74331e-07 0)
(8.86375e-06 -3.68962e-07 0)
(3.76254e-06 -1.92887e-06 0)
(4.08318e-06 -1.81139e-06 0)
(4.3962e-06 -1.70843e-06 0)
(4.7011e-06 -1.61579e-06 0)
(4.99787e-06 -1.53248e-06 0)
(5.28659e-06 -1.45677e-06 0)
(5.5677e-06 -1.3871e-06 0)
(5.84159e-06 -1.32199e-06 0)
(6.10878e-06 -1.26004e-06 0)
(6.36977e-06 -1.19992e-06 0)
(6.62506e-06 -1.14043e-06 0)
(6.87515e-06 -1.0804e-06 0)
(7.12049e-06 -1.01867e-06 0)
(7.36148e-06 -9.54112e-07 0)
(7.5985e-06 -8.85592e-07 0)
(7.83193e-06 -8.11868e-07 0)
(8.06219e-06 -7.31669e-07 0)
(8.28955e-06 -6.43608e-07 0)
(8.51479e-06 -5.45904e-07 0)
(8.73778e-06 -4.37548e-07 0)
(3.61837e-06 -2.09921e-06 0)
(3.93448e-06 -1.98034e-06 0)
(4.24483e-06 -1.87363e-06 0)
(4.54825e-06 -1.77594e-06 0)
(4.84467e-06 -1.68667e-06 0)
(5.13387e-06 -1.60448e-06 0)
(5.41607e-06 -1.52807e-06 0)
(5.69148e-06 -1.45615e-06 0)
(5.96045e-06 -1.38745e-06 0)
(6.22338e-06 -1.32075e-06 0)
(6.48068e-06 -1.25491e-06 0)
(6.73277e-06 -1.1888e-06 0)
(6.98006e-06 -1.12127e-06 0)
(7.22293e-06 -1.05124e-06 0)
(7.46177e-06 -9.77602e-07 0)
(7.69698e-06 -8.99151e-07 0)
(7.92901e-06 -8.14698e-07 0)
(8.15821e-06 -7.22931e-07 0)
(8.38532e-06 -6.22224e-07 0)
(8.61053e-06 -5.11686e-07 0)
(3.49115e-06 -2.26237e-06 0)
(3.80139e-06 -2.14309e-06 0)
(4.1075e-06 -2.03393e-06 0)
(4.4078e-06 -1.93243e-06 0)
(4.70225e-06 -1.83833e-06 0)
(4.99036e-06 -1.75065e-06 0)
(5.27219e-06 -1.66832e-06 0)
(5.54777e-06 -1.59027e-06 0)
(5.81735e-06 -1.51539e-06 0)
(6.08117e-06 -1.44259e-06 0)
(6.33957e-06 -1.37079e-06 0)
(6.59289e-06 -1.29893e-06 0)
(6.84148e-06 -1.22591e-06 0)
(7.08571e-06 -1.15072e-06 0)
(7.32594e-06 -1.07227e-06 0)
(7.5626e-06 -9.89449e-07 0)
(7.79611e-06 -9.0114e-07 0)
(8.02691e-06 -8.06135e-07 0)
(8.25572e-06 -7.02987e-07 0)
(8.48296e-06 -5.90941e-07 0)
(3.37791e-06 -2.41851e-06 0)
(3.68161e-06 -2.29959e-06 0)
(3.9825e-06 -2.18886e-06 0)
(4.27856e-06 -2.0845e-06 0)
(4.56985e-06 -1.98651e-06 0)
(4.85565e-06 -1.89419e-06 0)
(5.13593e-06 -1.80672e-06 0)
(5.41059e-06 -1.72325e-06 0)
(5.67976e-06 -1.6428e-06 0)
(5.94357e-06 -1.56442e-06 0)
(6.20228e-06 -1.48714e-06 0)
(6.45612e-06 -1.40996e-06 0)
(6.70543e-06 -1.33186e-06 0)
(6.95051e-06 -1.25188e-06 0)
(7.19173e-06 -1.16902e-06 0)
(7.42949e-06 -1.08224e-06 0)
(7.66421e-06 -9.9052e-07 0)
(7.89639e-06 -8.92762e-07 0)
(8.12672e-06 -7.87721e-07 0)
(8.35574e-06 -6.74755e-07 0)
(3.2764e-06 -2.56781e-06 0)
(3.57317e-06 -2.44978e-06 0)
(3.86818e-06 -2.33823e-06 0)
(4.15926e-06 -2.23183e-06 0)
(4.44652e-06 -2.1308e-06 0)
(4.7291e-06 -2.03464e-06 0)
(5.00693e-06 -1.94281e-06 0)
(5.2798e-06 -1.8546e-06 0)
(5.54773e-06 -1.76922e-06 0)
(5.81078e-06 -1.68583e-06 0)
(6.06909e-06 -1.60357e-06 0)
(6.32286e-06 -1.52153e-06 0)
(6.57235e-06 -1.43877e-06 0)
(6.81785e-06 -1.35443e-06 0)
(7.05967e-06 -1.26755e-06 0)
(7.29822e-06 -1.17722e-06 0)
(7.53391e-06 -1.08251e-06 0)
(7.76724e-06 -9.82452e-07 0)
(7.99888e-06 -8.75991e-07 0)
(8.22942e-06 -7.62581e-07 0)
(3.1845e-06 -2.7106e-06 0)
(3.47424e-06 -2.59383e-06 0)
(3.76299e-06 -2.482e-06 0)
(4.04863e-06 -2.37421e-06 0)
(4.33124e-06 -2.27083e-06 0)
(4.60996e-06 -2.17156e-06 0)
(4.88466e-06 -2.07606e-06 0)
(5.15505e-06 -1.98379e-06 0)
(5.42108e-06 -1.89409e-06 0)
(5.68273e-06 -1.80626e-06 0)
(5.94008e-06 -1.71954e-06 0)
(6.19327e-06 -1.63313e-06 0)
(6.44251e-06 -1.54618e-06 0)
(6.68803e-06 -1.45791e-06 0)
(6.93014e-06 -1.36745e-06 0)
(7.16921e-06 -1.27399e-06 0)
(7.40562e-06 -1.17671e-06 0)
(7.6399e-06 -1.07478e-06 0)
(7.87264e-06 -9.6731e-07 0)
(8.10448e-06 -8.53849e-07 0)
(3.10031e-06 -2.84732e-06 0)
(3.38303e-06 -2.73201e-06 0)
(3.66537e-06 -2.62031e-06 0)
(3.9453e-06 -2.51164e-06 0)
(4.2229e-06 -2.4065e-06 0)
(4.49733e-06 -2.30475e-06 0)
(4.76842e-06 -2.20621e-06 0)
(5.03584e-06 -2.1105e-06 0)
(5.29947e-06 -2.01708e-06 0)
(5.55924e-06 -1.92536e-06 0)
(5.8152e-06 -1.83473e-06 0)
(6.0674e-06 -1.74445e-06 0)
(6.31602e-06 -1.65377e-06 0)
(6.56126e-06 -1.56202e-06 0)
(6.80339e-06 -1.46841e-06 0)
(7.04274e-06 -1.37223e-06 0)
(7.27967e-06 -1.27279e-06 0)
(7.5147e-06 -1.16936e-06 0)
(7.74832e-06 -1.06122e-06 0)
(7.9813e-06 -9.48038e-07 0)
(3.02217e-06 -2.97839e-06 0)
(3.29798e-06 -2.86466e-06 0)
(3.57392e-06 -2.75336e-06 0)
(3.84803e-06 -2.64421e-06 0)
(4.12044e-06 -2.53779e-06 0)
(4.39033e-06 -2.4341e-06 0)
(4.65751e-06 -2.33308e-06 0)
(4.92162e-06 -2.23449e-06 0)
(5.1825e-06 -2.13791e-06 0)
(5.44005e-06 -2.04286e-06 0)
(5.69427e-06 -1.94882e-06 0)
(5.94517e-06 -1.85517e-06 0)
(6.1929e-06 -1.76124e-06 0)
(6.4376e-06 -1.66645e-06 0)
(6.67951e-06 -1.57012e-06 0)
(6.91894e-06 -1.47163e-06 0)
(7.1562e-06 -1.3704e-06 0)
(7.39179e-06 -1.2658e-06 0)
(7.62611e-06 -1.15728e-06 0)
(7.86001e-06 -1.04464e-06 0)
(2.94858e-06 -3.10429e-06 0)
(3.2177e-06 -2.99214e-06 0)
(3.48731e-06 -2.88142e-06 0)
(3.75564e-06 -2.7721e-06 0)
(4.02282e-06 -2.6648e-06 0)
(4.28806e-06 -2.55961e-06 0)
(4.55115e-06 -2.45662e-06 0)
(4.81174e-06 -2.35567e-06 0)
(5.06964e-06 -2.25644e-06 0)
(5.32474e-06 -2.15857e-06 0)
(5.57698e-06 -2.06164e-06 0)
(5.82637e-06 -1.96509e-06 0)
(6.07299e-06 -1.86837e-06 0)
(6.31696e-06 -1.77099e-06 0)
(6.55847e-06 -1.67234e-06 0)
(6.79782e-06 -1.57191e-06 0)
(7.03525e-06 -1.46922e-06 0)
(7.2712e-06 -1.36374e-06 0)
(7.50612e-06 -1.25509e-06 0)
(7.74069e-06 -1.14315e-06 0)
(2.87821e-06 -3.22543e-06 0)
(3.14089e-06 -3.11483e-06 0)
(3.40436e-06 -3.0048e-06 0)
(3.66703e-06 -2.89553e-06 0)
(3.92902e-06 -2.78767e-06 0)
(4.18958e-06 -2.68138e-06 0)
(4.44852e-06 -2.57684e-06 0)
(4.7055e-06 -2.47399e-06 0)
(4.96031e-06 -2.3726e-06 0)
(5.21283e-06 -2.27239e-06 0)
(5.46297e-06 -2.17303e-06 0)
(5.7107e-06 -2.07405e-06 0)
(5.95608e-06 -1.97498e-06 0)
(6.19921e-06 -1.87542e-06 0)
(6.44021e-06 -1.77484e-06 0)
(6.67934e-06 -1.67282e-06 0)
(6.9168e-06 -1.56896e-06 0)
(7.15301e-06 -1.46285e-06 0)
(7.38836e-06 -1.35427e-06 0)
(7.62345e-06 -1.24311e-06 0)
(2.80988e-06 -3.34223e-06 0)
(3.06639e-06 -3.23308e-06 0)
(3.32394e-06 -3.12382e-06 0)
(3.58113e-06 -3.01478e-06 0)
(3.83804e-06 -2.9066e-06 0)
(4.094e-06 -2.79953e-06 0)
(4.34883e-06 -2.69383e-06 0)
(4.60221e-06 -2.58949e-06 0)
(4.85394e-06 -2.48639e-06 0)
(5.10385e-06 -2.38428e-06 0)
(5.35184e-06 -2.28294e-06 0)
(5.59786e-06 -2.18197e-06 0)
(5.84194e-06 -2.08097e-06 0)
(6.08412e-06 -1.97962e-06 0)
(6.32451e-06 -1.87746e-06 0)
(6.56332e-06 -1.77416e-06 0)
(6.8007e-06 -1.66939e-06 0)
(7.03708e-06 -1.56287e-06 0)
(7.27268e-06 -1.45448e-06 0)
(7.50817e-06 -1.34416e-06 0)
(2.74249e-06 -3.45502e-06 0)
(2.99311e-06 -3.34728e-06 0)
(3.24498e-06 -3.2388e-06 0)
(3.49689e-06 -3.13009e-06 0)
(3.7489e-06 -3.02181e-06 0)
(4.00044e-06 -2.91425e-06 0)
(4.25132e-06 -2.80772e-06 0)
(4.5012e-06 -2.70228e-06 0)
(4.74991e-06 -2.59786e-06 0)
(4.99724e-06 -2.49428e-06 0)
(5.24311e-06 -2.39137e-06 0)
(5.48741e-06 -2.2888e-06 0)
(5.73016e-06 -2.18625e-06 0)
(5.97137e-06 -2.08346e-06 0)
(6.21111e-06 -1.98004e-06 0)
(6.44953e-06 -1.87572e-06 0)
(6.68677e-06 -1.77029e-06 0)
(6.9232e-06 -1.66352e-06 0)
(7.15896e-06 -1.55538e-06 0)
(7.3947e-06 -1.44595e-06 0)
(2.67488e-06 -3.5642e-06 0)
(2.9199e-06 -3.45771e-06 0)
(3.16637e-06 -3.35004e-06 0)
(3.41327e-06 -3.24178e-06 0)
(3.66067e-06 -3.13358e-06 0)
(3.90802e-06 -3.02578e-06 0)
(4.15515e-06 -2.91873e-06 0)
(4.40171e-06 -2.81252e-06 0)
(4.64755e-06 -2.70713e-06 0)
(4.89245e-06 -2.60244e-06 0)
(5.13629e-06 -2.49834e-06 0)
(5.37897e-06 -2.39455e-06 0)
(5.62044e-06 -2.2908e-06 0)
(5.86071e-06 -2.1869e-06 0)
(6.09978e-06 -2.0825e-06 0)
(6.3378e-06 -1.97741e-06 0)
(6.57488e-06 -1.87149e-06 0)
(6.81126e-06 -1.76459e-06 0)
(7.04714e-06 -1.65678e-06 0)
(7.283e-06 -1.54816e-06 0)
(2.60597e-06 -3.67e-06 0)
(2.84566e-06 -3.56482e-06 0)
(3.087e-06 -3.45785e-06 0)
(3.32926e-06 -3.3501e-06 0)
(3.57238e-06 -3.24217e-06 0)
(3.81587e-06 -3.13436e-06 0)
(4.05955e-06 -3.02705e-06 0)
(4.30309e-06 -2.92039e-06 0)
(4.54629e-06 -2.81436e-06 0)
(4.78894e-06 -2.7089e-06 0)
(5.0309e-06 -2.60394e-06 0)
(5.27206e-06 -2.49926e-06 0)
(5.51235e-06 -2.39463e-06 0)
(5.75171e-06 -2.28988e-06 0)
(5.99016e-06 -2.18475e-06 0)
(6.22779e-06 -2.0791e-06 0)
(6.46467e-06 -1.97285e-06 0)
(6.70097e-06 -1.8659e-06 0)
(6.93689e-06 -1.75843e-06 0)
(7.17282e-06 -1.65057e-06 0)
(2.53464e-06 -3.77286e-06 0)
(2.76915e-06 -3.6686e-06 0)
(3.00562e-06 -3.56257e-06 0)
(3.24382e-06 -3.45556e-06 0)
(3.48304e-06 -3.34801e-06 0)
(3.72312e-06 -3.24038e-06 0)
(3.96371e-06 -3.13304e-06 0)
(4.20457e-06 -3.02616e-06 0)
(4.44544e-06 -2.91977e-06 0)
(4.68614e-06 -2.81383e-06 0)
(4.92647e-06 -2.70832e-06 0)
(5.1663e-06 -2.60303e-06 0)
(5.40553e-06 -2.49777e-06 0)
(5.64409e-06 -2.39243e-06 0)
(5.88198e-06 -2.28679e-06 0)
(6.11927e-06 -2.18074e-06 0)
(6.35593e-06 -2.07425e-06 0)
(6.59218e-06 -1.96731e-06 0)
(6.82805e-06 -1.86017e-06 0)
(7.064e-06 -1.75297e-06 0)
(2.4592e-06 -3.87268e-06 0)
(2.6893e-06 -3.76947e-06 0)
(2.92178e-06 -3.66459e-06 0)
(3.15606e-06 -3.55833e-06 0)
(3.39193e-06 -3.45134e-06 0)
(3.629e-06 -3.34409e-06 0)
(3.86698e-06 -3.23693e-06 0)
(4.10558e-06 -3.13008e-06 0)
(4.34453e-06 -3.02359e-06 0)
(4.58361e-06 -2.91743e-06 0)
(4.82259e-06 -2.81162e-06 0)
(5.0613e-06 -2.70597e-06 0)
(5.29965e-06 -2.60032e-06 0)
(5.53757e-06 -2.49459e-06 0)
(5.775e-06 -2.38859e-06 0)
(6.01196e-06 -2.28229e-06 0)
(6.24843e-06 -2.17565e-06 0)
(6.48464e-06 -2.06872e-06 0)
(6.72051e-06 -1.96184e-06 0)
(6.95637e-06 -1.85523e-06 0)
(2.37865e-06 -3.97052e-06 0)
(2.6047e-06 -3.86855e-06 0)
(2.83356e-06 -3.76456e-06 0)
(3.06467e-06 -3.65913e-06 0)
(3.29779e-06 -3.55283e-06 0)
(3.53251e-06 -3.44609e-06 0)
(3.76851e-06 -3.33929e-06 0)
(4.00544e-06 -3.23265e-06 0)
(4.24298e-06 -3.12623e-06 0)
(4.48086e-06 -3.02006e-06 0)
(4.71884e-06 -2.91413e-06 0)
(4.95676e-06 -2.80828e-06 0)
(5.19447e-06 -2.7024e-06 0)
(5.43186e-06 -2.59647e-06 0)
(5.66889e-06 -2.49025e-06 0)
(5.90561e-06 -2.38371e-06 0)
(6.14198e-06 -2.27699e-06 0)
(6.37808e-06 -2.17008e-06 0)
(6.61397e-06 -2.06335e-06 0)
(6.84979e-06 -1.95717e-06 0)
(2.29196e-06 -4.0656e-06 0)
(2.51449e-06 -3.96502e-06 0)
(2.74034e-06 -3.86231e-06 0)
(2.969e-06 -3.75797e-06 0)
(3.20012e-06 -3.65257e-06 0)
(3.43324e-06 -3.54654e-06 0)
(3.66796e-06 -3.44031e-06 0)
(3.90385e-06 -3.33409e-06 0)
(4.14055e-06 -3.22792e-06 0)
(4.37776e-06 -3.12184e-06 0)
(4.61518e-06 -3.01594e-06 0)
(4.85259e-06 -2.91008e-06 0)
(5.08986e-06 -2.8041e-06 0)
(5.32689e-06 -2.698e-06 0)
(5.56361e-06 -2.59169e-06 0)
(5.80007e-06 -2.48505e-06 0)
(6.03635e-06 -2.37824e-06 0)
(6.2724e-06 -2.2713e-06 0)
(6.50837e-06 -2.16462e-06 0)
(6.74422e-06 -2.05866e-06 0)
(1.70018e-07 -3.5213e-06 0)
(5.12432e-07 -3.4693e-06 0)
(8.61973e-07 -3.36738e-06 0)
(1.22269e-06 -3.21963e-06 0)
(1.59784e-06 -3.03171e-06 0)
(1.98944e-06 -2.81067e-06 0)
(2.39831e-06 -2.56458e-06 0)
(2.8237e-06 -2.30191e-06 0)
(3.26411e-06 -2.03121e-06 0)
(3.7161e-06 -1.75927e-06 0)
(1.65178e-07 -3.57812e-06 0)
(4.97564e-07 -3.53061e-06 0)
(8.35877e-07 -3.43741e-06 0)
(1.18355e-06 -3.302e-06 0)
(1.54334e-06 -3.12919e-06 0)
(1.91698e-06 -2.92496e-06 0)
(2.30522e-06 -2.6962e-06 0)
(2.70728e-06 -2.45022e-06 0)
(3.12125e-06 -2.19479e-06 0)
(3.54441e-06 -1.93559e-06 0)
(1.60902e-07 -3.6363e-06 0)
(4.84399e-07 -3.59285e-06 0)
(8.1274e-07 -3.50754e-06 0)
(1.14868e-06 -3.38339e-06 0)
(1.49455e-06 -3.22458e-06 0)
(1.85178e-06 -3.03628e-06 0)
(2.22116e-06 -2.82437e-06 0)
(2.60239e-06 -2.59504e-06 0)
(2.99411e-06 -2.35499e-06 0)
(3.3945e-06 -2.10794e-06 0)
(1.57106e-07 -3.69594e-06 0)
(4.72711e-07 -3.65594e-06 0)
(7.92398e-07 -3.57737e-06 0)
(1.11834e-06 -3.46286e-06 0)
(1.45253e-06 -3.31609e-06 0)
(1.7961e-06 -3.14156e-06 0)
(2.14965e-06 -2.94453e-06 0)
(2.5129e-06 -2.73041e-06 0)
(2.88469e-06 -2.50543e-06 0)
(3.26347e-06 -2.27251e-06 0)
(1.53625e-07 -3.75701e-06 0)
(4.61965e-07 -3.72011e-06 0)
(7.73727e-07 -3.64758e-06 0)
(1.09063e-06 -3.54174e-06 0)
(1.41437e-06 -3.40586e-06 0)
(1.74587e-06 -3.24398e-06 0)
(2.08566e-06 -3.06072e-06 0)
(2.43352e-06 -2.86068e-06 0)
(2.7886e-06 -2.64955e-06 0)
(3.14887e-06 -2.42997e-06 0)
(1.50368e-07 -3.81944e-06 0)
(4.52026e-07 -3.78522e-06 0)
(7.56543e-07 -3.71792e-06 0)
(1.06536e-06 -3.61967e-06 0)
(1.37987e-06 -3.49336e-06 0)
(1.70084e-06 -3.34264e-06 0)
(2.02862e-06 -3.17172e-06 0)
(2.36293e-06 -2.98465e-06 0)
(2.70339e-06 -2.78658e-06 0)
(3.04751e-06 -2.58017e-06 0)
(1.47252e-07 -3.88314e-06 0)
(4.42566e-07 -3.85131e-06 0)
(7.40279e-07 -3.7887e-06 0)
(1.04164e-06 -3.69723e-06 0)
(1.34775e-06 -3.57951e-06 0)
(1.65929e-06 -3.43886e-06 0)
(1.97655e-06 -3.27909e-06 0)
(2.2991e-06 -3.10383e-06 0)
(2.62691e-06 -2.91768e-06 0)
(2.95713e-06 -2.72352e-06 0)
(1.44277e-07 -3.94797e-06 0)
(4.33478e-07 -3.91826e-06 0)
(7.24741e-07 -3.85979e-06 0)
(1.01914e-06 -3.77432e-06 0)
(1.31757e-06 -3.66425e-06 0)
(1.62056e-06 -3.53259e-06 0)
(1.92842e-06 -3.38288e-06 0)
(2.24058e-06 -3.21841e-06 0)
(2.55729e-06 -3.04325e-06 0)
(2.87552e-06 -2.86048e-06 0)
(1.41363e-07 -4.01382e-06 0)
(4.24583e-07 -3.98601e-06 0)
(7.09627e-07 -3.93124e-06 0)
(9.97392e-07 -3.85115e-06 0)
(1.28864e-06 -3.74796e-06 0)
(1.58382e-06 -3.6244e-06 0)
(1.88317e-06 -3.48374e-06 0)
(2.1861e-06 -3.32906e-06 0)
(2.493e-06 -3.16393e-06 0)
(2.80083e-06 -2.99158e-06 0)
(1.38439e-07 -4.08053e-06 0)
(4.15775e-07 -4.05442e-06 0)
(6.9474e-07 -4.00296e-06 0)
(9.76105e-07 -3.9277e-06 0)
(1.26054e-06 -3.83069e-06 0)
(1.54843e-06 -3.71442e-06 0)
(1.83999e-06 -3.58193e-06 0)
(2.13458e-06 -3.43615e-06 0)
(2.43268e-06 -3.28018e-06 0)
(2.73139e-06 -3.11733e-06 0)
(1.35487e-07 -4.14796e-06 0)
(4.06955e-07 -4.12339e-06 0)
(6.79866e-07 -4.07492e-06 0)
(9.54966e-07 -4.00401e-06 0)
(1.23282e-06 -3.91257e-06 0)
(1.51381e-06 -3.80289e-06 0)
(1.79811e-06 -3.6778e-06 0)
(2.08507e-06 -3.54007e-06 0)
(2.37521e-06 -3.39246e-06 0)
(2.66581e-06 -3.23824e-06 0)
(1.32505e-07 -4.21593e-06 0)
(3.98027e-07 -4.19276e-06 0)
(6.64828e-07 -4.147e-06 0)
(9.33704e-07 -4.08002e-06 0)
(1.20513e-06 -3.99361e-06 0)
(1.47946e-06 -3.88992e-06 0)
(1.75688e-06 -3.77155e-06 0)
(2.03675e-06 -3.64113e-06 0)
(2.31956e-06 -3.50113e-06 0)
(2.60287e-06 -3.35475e-06 0)
(1.29459e-07 -4.28427e-06 0)
(3.88854e-07 -4.26237e-06 0)
(6.49426e-07 -4.21909e-06 0)
(9.12021e-07 -4.15569e-06 0)
(1.17706e-06 -4.07387e-06 0)
(1.44486e-06 -3.97563e-06 0)
(1.71565e-06 -3.86337e-06 0)
(1.98883e-06 -3.73959e-06 0)
(2.26482e-06 -3.60653e-06 0)
(2.54149e-06 -3.46728e-06 0)
(1.26286e-07 -4.35277e-06 0)
(3.79297e-07 -4.33202e-06 0)
(6.33457e-07 -4.291e-06 0)
(8.89619e-07 -4.23089e-06 0)
(1.14821e-06 -4.15327e-06 0)
(1.40952e-06 -4.06001e-06 0)
(1.67381e-06 -3.95334e-06 0)
(1.94054e-06 -3.83562e-06 0)
(2.21009e-06 -3.70893e-06 0)
(2.48059e-06 -3.57616e-06 0)
(1.22931e-07 -4.42123e-06 0)
(3.69229e-07 -4.40154e-06 0)
(6.1671e-07 -4.36262e-06 0)
(8.66201e-07 -4.30554e-06 0)
(1.11817e-06 -4.23179e-06 0)
(1.37292e-06 -4.14313e-06 0)
(1.63071e-06 -4.0416e-06 0)
(1.89113e-06 -3.92946e-06 0)
(2.15446e-06 -3.8086e-06 0)
(2.41909e-06 -3.68175e-06 0)
(1.1936e-07 -4.4893e-06 0)
(3.58544e-07 -4.47059e-06 0)
(5.98978e-07 -4.43363e-06 0)
(8.4146e-07 -4.37938e-06 0)
(1.08653e-06 -4.30923e-06 0)
(1.33452e-06 -4.22482e-06 0)
(1.58572e-06 -4.12808e-06 0)
(1.83983e-06 -4.02108e-06 0)
(2.097e-06 -3.90563e-06 0)
(2.35598e-06 -3.7842e-06 0)
(1.15535e-07 -4.55686e-06 0)
(3.47101e-07 -4.53908e-06 0)
(5.7999e-07 -4.50397e-06 0)
(8.1501e-07 -4.45238e-06 0)
(1.05279e-06 -4.38562e-06 0)
(1.2937e-06 -4.30521e-06 0)
(1.53808e-06 -4.21294e-06 0)
(1.7857e-06 -4.11077e-06 0)
(2.03672e-06 -4.00034e-06 0)
(2.29004e-06 -3.88398e-06 0)
(1.11403e-07 -4.62317e-06 0)
(3.34721e-07 -4.60628e-06 0)
(5.59451e-07 -4.57292e-06 0)
(7.86439e-07 -4.52388e-06 0)
(1.01641e-06 -4.46035e-06 0)
(1.24979e-06 -4.38375e-06 0)
(1.48698e-06 -4.29574e-06 0)
(1.72782e-06 -4.19815e-06 0)
(1.97249e-06 -4.09249e-06 0)
(2.22012e-06 -3.9809e-06 0)
(1.0687e-07 -4.68857e-06 0)
(3.21132e-07 -4.67253e-06 0)
(5.3692e-07 -4.64088e-06 0)
(7.55155e-07 -4.5943e-06 0)
(9.76629e-07 -4.5339e-06 0)
(1.20189e-06 -4.46099e-06 0)
(1.43135e-06 -4.37709e-06 0)
(1.66501e-06 -4.2839e-06 0)
(1.903e-06 -4.18283e-06 0)
(2.14475e-06 -4.07581e-06 0)
(1.0189e-07 -4.75104e-06 0)
(3.06224e-07 -4.73586e-06 0)
(5.12209e-07 -4.70591e-06 0)
(7.20857e-07 -4.66179e-06 0)
(9.33066e-07 -4.60451e-06 0)
(1.14948e-06 -4.53528e-06 0)
(1.37057e-06 -4.45549e-06 0)
(1.59656e-06 -4.36671e-06 0)
(1.8275e-06 -4.27023e-06 0)
(2.06311e-06 -4.16781e-06 0)
)


// ************************************************************************* //
