/*--------------------------------*- C++ -*----------------------------------*\
| =========                 |                                                 |
| \\      /  F ield         | foam-extend: Open Source CFD                    |
|  \\    /   O peration     | Version:     4.1                                |
|   \\  /    A nd           | Web:         http://www.foam-extend.org         |
|    \\/     M anipulation  |                                                 |
\*---------------------------------------------------------------------------*/
FoamFile
{
    version     2.0;
    format      ascii;
    class       vectorField;
    location    "8";
    object      solidsCellD_iteration3;
}
// * * * * * * * * * * * * * * * * * * * * * * * * * * * * * * * * * * * * * //


1000
(
(4.05816e-06 -1.68927e-06 0)
(3.83438e-06 -1.5738e-06 0)
(3.69205e-06 -1.50119e-06 0)
(3.61133e-06 -1.46809e-06 0)
(3.57302e-06 -1.45753e-06 0)
(3.56569e-06 -1.46444e-06 0)
(3.58116e-06 -1.48278e-06 0)
(3.61379e-06 -1.5097e-06 0)
(3.65893e-06 -1.54255e-06 0)
(3.71306e-06 -1.58029e-06 0)
(3.67027e-06 -1.84514e-06 0)
(3.43172e-06 -1.76535e-06 0)
(3.27993e-06 -1.71543e-06 0)
(3.19219e-06 -1.6978e-06 0)
(3.14838e-06 -1.69753e-06 0)
(3.1359e-06 -1.7118e-06 0)
(3.14626e-06 -1.73547e-06 0)
(3.17344e-06 -1.7663e-06 0)
(3.21275e-06 -1.80237e-06 0)
(3.26047e-06 -1.84156e-06 0)
(3.26682e-06 -1.99286e-06 0)
(3.023e-06 -1.95297e-06 0)
(2.86794e-06 -1.92829e-06 0)
(2.77697e-06 -1.92767e-06 0)
(2.72994e-06 -1.93855e-06 0)
(2.71379e-06 -1.96053e-06 0)
(2.71997e-06 -1.98954e-06 0)
(2.74245e-06 -2.02408e-06 0)
(2.77656e-06 -2.06299e-06 0)
(2.81882e-06 -2.10388e-06 0)
(2.85108e-06 -2.12981e-06 0)
(2.61215e-06 -2.13176e-06 0)
(2.46027e-06 -2.13353e-06 0)
(2.3702e-06 -2.15059e-06 0)
(2.32247e-06 -2.17301e-06 0)
(2.30425e-06 -2.20285e-06 0)
(2.30726e-06 -2.23717e-06 0)
(2.32561e-06 -2.27541e-06 0)
(2.355e-06 -2.31705e-06 0)
(2.39186e-06 -2.35985e-06 0)
(2.42575e-06 -2.25329e-06 0)
(2.20198e-06 -2.29669e-06 0)
(2.05972e-06 -2.32472e-06 0)
(1.97476e-06 -2.35924e-06 0)
(1.92901e-06 -2.39293e-06 0)
(1.91031e-06 -2.43042e-06 0)
(1.91108e-06 -2.46988e-06 0)
(1.92574e-06 -2.51172e-06 0)
(1.95056e-06 -2.55596e-06 0)
(1.98202e-06 -2.60081e-06 0)
(1.99314e-06 -2.36077e-06 0)
(1.79431e-06 -2.44295e-06 0)
(1.66795e-06 -2.49552e-06 0)
(1.59211e-06 -2.54633e-06 0)
(1.55082e-06 -2.59056e-06 0)
(1.53312e-06 -2.63519e-06 0)
(1.5325e-06 -2.67937e-06 0)
(1.54393e-06 -2.72457e-06 0)
(1.56427e-06 -2.77119e-06 0)
(1.5902e-06 -2.81811e-06 0)
(1.55514e-06 -2.44985e-06 0)
(1.39022e-06 -2.566e-06 0)
(1.28542e-06 -2.6401e-06 0)
(1.22227e-06 -2.70517e-06 0)
(1.18759e-06 -2.7586e-06 0)
(1.17228e-06 -2.80946e-06 0)
(1.171e-06 -2.85777e-06 0)
(1.17954e-06 -2.90594e-06 0)
(1.19541e-06 -2.95466e-06 0)
(1.21568e-06 -3.0035e-06 0)
(1.11334e-06 -2.51854e-06 0)
(9.89835e-07 -2.66196e-06 0)
(9.1135e-07 -2.75337e-06 0)
(8.63958e-07 -2.82986e-06 0)
(8.37739e-07 -2.89068e-06 0)
(8.25932e-07 -2.94653e-06 0)
(8.24568e-07 -2.99818e-06 0)
(8.30483e-07 -3.04874e-06 0)
(8.41842e-07 -3.09913e-06 0)
(8.5636e-07 -3.14955e-06 0)
(6.69091e-07 -2.56523e-06 0)
(5.92643e-07 -2.72772e-06 0)
(5.44035e-07 -2.83122e-06 0)
(5.14584e-07 -2.91575e-06 0)
(4.98219e-07 -2.98174e-06 0)
(4.90795e-07 -3.04108e-06 0)
(4.89818e-07 -3.09506e-06 0)
(4.93268e-07 -3.14734e-06 0)
(5.00054e-07 -3.19894e-06 0)
(5.08767e-07 -3.25055e-06 0)
(2.23475e-07 -2.58876e-06 0)
(1.97527e-07 -2.76107e-06 0)
(1.81022e-07 -2.87083e-06 0)
(1.71035e-07 -2.9595e-06 0)
(1.65467e-07 -3.02815e-06 0)
(1.62885e-07 -3.08928e-06 0)
(1.62492e-07 -3.14445e-06 0)
(1.63619e-07 -3.19759e-06 0)
(1.65873e-07 -3.24979e-06 0)
(1.6876e-07 -3.30199e-06 0)
(6.32407e-06 -7.71027e-08 0)
(6.38112e-06 -5.56839e-08 0)
(6.41664e-06 -4.2124e-08 0)
(6.45538e-06 -3.41801e-08 0)
(6.49776e-06 -2.98018e-08 0)
(6.54961e-06 -2.7806e-08 0)
(6.61069e-06 -2.74014e-08 0)
(6.68165e-06 -2.80682e-08 0)
(6.76224e-06 -2.94912e-08 0)
(6.85143e-06 -3.11649e-08 0)
(6.27746e-06 -2.31275e-07 0)
(6.32513e-06 -1.68286e-07 0)
(6.35481e-06 -1.2851e-07 0)
(6.38963e-06 -1.05272e-07 0)
(6.42944e-06 -9.25031e-08 0)
(6.47943e-06 -8.67623e-08 0)
(6.53919e-06 -8.57249e-08 0)
(6.60909e-06 -8.77995e-08 0)
(6.68879e-06 -9.20686e-08 0)
(6.77701e-06 -9.71157e-08 0)
(6.18426e-06 -3.8679e-07 0)
(6.21412e-06 -2.85673e-07 0)
(6.23255e-06 -2.21884e-07 0)
(6.25994e-06 -1.84718e-07 0)
(6.29482e-06 -1.64398e-07 0)
(6.34135e-06 -1.55413e-07 0)
(6.39859e-06 -1.53993e-07 0)
(6.46637e-06 -1.57591e-07 0)
(6.54435e-06 -1.64725e-07 0)
(6.6307e-06 -1.73181e-07 0)
(6.04616e-06 -5.44254e-07 0)
(6.05075e-06 -4.10528e-07 0)
(6.05311e-06 -3.26212e-07 0)
(6.06993e-06 -2.77313e-07 0)
(6.0978e-06 -2.50744e-07 0)
(6.13929e-06 -2.39278e-07 0)
(6.19288e-06 -2.37894e-07 0)
(6.25776e-06 -2.4324e-07 0)
(6.33329e-06 -2.53267e-07 0)
(6.41706e-06 -2.65152e-07 0)
(5.86528e-06 -7.04141e-07 0)
(5.83864e-06 -5.4512e-07 0)
(5.82115e-06 -4.44873e-07 0)
(5.82479e-06 -3.87143e-07 0)
(5.84397e-06 -3.56083e-07 0)
(5.8793e-06 -3.43189e-07 0)
(5.92836e-06 -3.42411e-07 0)
(5.98959e-06 -3.49772e-07 0)
(6.06206e-06 -3.6271e-07 0)
(6.14267e-06 -3.78035e-07 0)
(5.64438e-06 -8.66503e-07 0)
(5.58233e-06 -6.90894e-07 0)
(5.54239e-06 -5.80162e-07 0)
(5.53111e-06 -5.1705e-07 0)
(5.54042e-06 -4.83609e-07 0)
(5.56873e-06 -4.70545e-07 0)
(5.61262e-06 -4.71013e-07 0)
(5.66966e-06 -4.80682e-07 0)
(5.7386e-06 -4.96549e-07 0)
(5.81576e-06 -5.15323e-07 0)
(5.38659e-06 -1.031e-06 0)
(5.28716e-06 -8.48431e-07 0)
(5.22356e-06 -7.3327e-07 0)
(5.19649e-06 -6.68591e-07 0)
(5.19528e-06 -6.35096e-07 0)
(5.21609e-06 -6.23244e-07 0)
(5.2544e-06 -6.25702e-07 0)
(5.30689e-06 -6.38036e-07 0)
(5.37196e-06 -6.56934e-07 0)
(5.44555e-06 -6.79165e-07 0)
(5.09536e-06 -1.19689e-06 0)
(4.95885e-06 -1.01733e-06 0)
(4.87176e-06 -9.04057e-07 0)
(4.82894e-06 -8.41761e-07 0)
(4.81714e-06 -8.10627e-07 0)
(4.83032e-06 -8.0143e-07 0)
(4.86288e-06 -8.06654e-07 0)
(4.91072e-06 -8.22042e-07 0)
(4.97168e-06 -8.4405e-07 0)
(5.0417e-06 -8.69798e-07 0)
(4.7744e-06 -1.363e-06 0)
(4.60337e-06 -1.19623e-06 0)
(4.49451e-06 -1.09103e-06 0)
(4.43696e-06 -1.03502e-06 0)
(4.41513e-06 -1.00864e-06 0)
(4.42091e-06 -1.00354e-06 0)
(4.44772e-06 -1.01239e-06 0)
(4.49083e-06 -1.0312e-06 0)
(4.54733e-06 -1.0566e-06 0)
(4.6138e-06 -1.08579e-06 0)
(4.42746e-06 -1.52775e-06 0)
(4.22664e-06 -1.38276e-06 0)
(4.09895e-06 -1.2914e-06 0)
(4.02851e-06 -1.24532e-06 0)
(3.99769e-06 -1.22591e-06 0)
(3.99651e-06 -1.22628e-06 0)
(4.01763e-06 -1.23954e-06 0)
(4.05589e-06 -1.26233e-06 0)
(4.10777e-06 -1.29136e-06 0)
(4.17031e-06 -1.32521e-06 0)
(6.94929e-06 -3.28406e-08 0)
(7.05593e-06 -3.32413e-08 0)
(7.16933e-06 -3.37094e-08 0)
(7.28907e-06 -3.40492e-08 0)
(7.41439e-06 -3.42236e-08 0)
(7.54484e-06 -3.42211e-08 0)
(7.67991e-06 -3.40173e-08 0)
(7.81905e-06 -3.36228e-08 0)
(7.96176e-06 -3.30139e-08 0)
(8.1076e-06 -3.21641e-08 0)
(8.25619e-06 -3.10442e-08 0)
(8.40705e-06 -2.96415e-08 0)
(8.55979e-06 -2.79421e-08 0)
(8.71394e-06 -2.59215e-08 0)
(8.86913e-06 -2.35382e-08 0)
(9.02473e-06 -2.0746e-08 0)
(9.18047e-06 -1.74883e-08 0)
(9.3353e-06 -1.37048e-08 0)
(9.48944e-06 -9.30415e-09 0)
(9.64042e-06 -4.25807e-09 0)
(6.87815e-06 -1.01832e-07 0)
(6.99071e-06 -1.02596e-07 0)
(7.1094e-06 -1.03585e-07 0)
(7.23376e-06 -1.04258e-07 0)
(7.36325e-06 -1.04489e-07 0)
(7.49739e-06 -1.04262e-07 0)
(7.63576e-06 -1.03474e-07 0)
(7.77788e-06 -1.02121e-07 0)
(7.92331e-06 -1.00124e-07 0)
(8.07166e-06 -9.74338e-08 0)
(8.22253e-06 -9.39841e-08 0)
(8.37553e-06 -8.97254e-08 0)
(8.53027e-06 -8.45902e-08 0)
(8.68633e-06 -7.84898e-08 0)
(8.84329e-06 -7.13051e-08 0)
(9.00057e-06 -6.29074e-08 0)
(9.15792e-06 -5.31276e-08 0)
(9.31429e-06 -4.1788e-08 0)
(9.46999e-06 -2.86118e-08 0)
(9.62256e-06 -1.35012e-08 0)
(6.73822e-06 -1.7992e-07 0)
(6.86238e-06 -1.79716e-07 0)
(6.99153e-06 -1.80023e-07 0)
(7.12494e-06 -1.80116e-07 0)
(7.26251e-06 -1.79648e-07 0)
(7.40384e-06 -1.78606e-07 0)
(7.54874e-06 -1.76748e-07 0)
(7.69677e-06 -1.74041e-07 0)
(7.84757e-06 -1.70333e-07 0)
(8.00081e-06 -1.65548e-07 0)
(8.15622e-06 -1.59575e-07 0)
(8.31346e-06 -1.52313e-07 0)
(8.47217e-06 -1.43629e-07 0)
(8.63193e-06 -1.33362e-07 0)
(8.79241e-06 -1.21316e-07 0)
(8.95307e-06 -1.07274e-07 0)
(9.11365e-06 -9.09509e-08 0)
(9.27316e-06 -7.20596e-08 0)
(9.43193e-06 -5.01393e-08 0)
(9.58753e-06 -2.50114e-08 0)
(6.53373e-06 -2.72297e-07 0)
(6.67453e-06 -2.69044e-07 0)
(6.81876e-06 -2.66774e-07 0)
(6.96531e-06 -2.6486e-07 0)
(7.11475e-06 -2.62498e-07 0)
(7.26662e-06 -2.59684e-07 0)
(7.42103e-06 -2.55971e-07 0)
(7.57763e-06 -2.51279e-07 0)
(7.73629e-06 -2.45365e-07 0)
(7.89677e-06 -2.38102e-07 0)
(8.05888e-06 -2.29306e-07 0)
(8.22233e-06 -2.18806e-07 0)
(8.38682e-06 -2.06392e-07 0)
(8.552e-06 -1.91833e-07 0)
(8.71762e-06 -1.74854e-07 0)
(8.8832e-06 -1.55135e-07 0)
(9.04852e-06 -1.32269e-07 0)
(9.21266e-06 -1.05857e-07 0)
(9.37596e-06 -7.52423e-08 0)
(9.53602e-06 -4.01656e-08 0)
(6.27069e-06 -3.83563e-07 0)
(6.43241e-06 -3.7462e-07 0)
(6.59585e-06 -3.67343e-07 0)
(6.75915e-06 -3.61548e-07 0)
(6.92374e-06 -3.55721e-07 0)
(7.08911e-06 -3.49869e-07 0)
(7.25579e-06 -3.43281e-07 0)
(7.42348e-06 -3.35785e-07 0)
(7.59231e-06 -3.27014e-07 0)
(7.76213e-06 -3.16747e-07 0)
(7.93285e-06 -3.04706e-07 0)
(8.10427e-06 -2.90633e-07 0)
(8.27621e-06 -2.74236e-07 0)
(8.44843e-06 -2.55207e-07 0)
(8.62074e-06 -2.33176e-07 0)
(8.79266e-06 -2.07719e-07 0)
(8.96411e-06 -1.78307e-07 0)
(9.13416e-06 -1.44414e-07 0)
(9.30329e-06 -1.05187e-07 0)
(9.46914e-06 -6.02612e-08 0)
(5.95669e-06 -5.16977e-07 0)
(6.14255e-06 -4.99308e-07 0)
(6.32845e-06 -4.84179e-07 0)
(6.51144e-06 -4.72244e-07 0)
(6.69402e-06 -4.61088e-07 0)
(6.87552e-06 -4.50679e-07 0)
(7.0569e-06 -4.39997e-07 0)
(7.23793e-06 -4.28698e-07 0)
(7.41894e-06 -4.16266e-07 0)
(7.59992e-06 -4.02357e-07 0)
(7.78098e-06 -3.86578e-07 0)
(7.96202e-06 -3.68564e-07 0)
(8.14294e-06 -3.47921e-07 0)
(8.3236e-06 -3.24248e-07 0)
(8.50392e-06 -2.97062e-07 0)
(8.68343e-06 -2.65831e-07 0)
(8.86221e-06 -2.299e-07 0)
(9.03936e-06 -1.88607e-07 0)
(9.21547e-06 -1.4089e-07 0)
(9.3883e-06 -8.6254e-08 0)
(5.60028e-06 -6.74698e-07 0)
(5.81248e-06 -6.45163e-07 0)
(6.02331e-06 -6.19318e-07 0)
(6.22834e-06 -5.9883e-07 0)
(6.43115e-06 -5.8039e-07 0)
(6.63088e-06 -5.63767e-07 0)
(6.82881e-06 -5.47643e-07 0)
(7.02496e-06 -5.31431e-07 0)
(7.21984e-06 -5.14444e-07 0)
(7.41362e-06 -4.96158e-07 0)
(7.6065e-06 -4.76053e-07 0)
(7.79852e-06 -4.53634e-07 0)
(7.98971e-06 -4.28398e-07 0)
(8.18002e-06 -3.99832e-07 0)
(8.36943e-06 -3.67333e-07 0)
(8.55764e-06 -3.30256e-07 0)
(8.7448e-06 -2.8781e-07 0)
(8.9301e-06 -2.39186e-07 0)
(9.1142e-06 -1.83103e-07 0)
(9.29501e-06 -1.18934e-07 0)
(5.2103e-06 -8.5709e-07 0)
(5.44992e-06 -8.12319e-07 0)
(5.68705e-06 -7.72944e-07 0)
(5.91582e-06 -7.41229e-07 0)
(6.14043e-06 -7.13412e-07 0)
(6.36011e-06 -6.88737e-07 0)
(6.57623e-06 -6.65705e-07 0)
(6.78905e-06 -6.43392e-07 0)
(6.99925e-06 -6.20919e-07 0)
(7.20715e-06 -5.97539e-07 0)
(7.4131e-06 -5.72564e-07 0)
(7.61723e-06 -5.45349e-07 0)
(7.81971e-06 -5.1526e-07 0)
(8.02064e-06 -4.81652e-07 0)
(8.22007e-06 -4.43791e-07 0)
(8.41788e-06 -4.00902e-07 0)
(8.61426e-06 -3.52044e-07 0)
(8.80852e-06 -2.96247e-07 0)
(9.00141e-06 -2.32011e-07 0)
(9.19106e-06 -1.58583e-07 0)
(4.7961e-06 -1.06396e-06 0)
(5.06367e-06 -1.00097e-06 0)
(5.32741e-06 -9.46199e-07 0)
(5.58091e-06 -9.00955e-07 0)
(5.82815e-06 -8.6197e-07 0)
(6.06876e-06 -8.2758e-07 0)
(6.30405e-06 -7.96208e-07 0)
(6.53455e-06 -7.66548e-07 0)
(6.76103e-06 -7.37513e-07 0)
(6.98399e-06 -7.08128e-07 0)
(7.20387e-06 -6.77534e-07 0)
(7.42097e-06 -6.44926e-07 0)
(7.63557e-06 -6.09528e-07 0)
(7.84792e-06 -5.70551e-07 0)
(8.05813e-06 -5.27115e-07 0)
(8.26623e-06 -4.7831e-07 0)
(8.4725e-06 -4.23033e-07 0)
(8.67639e-06 -3.60152e-07 0)
(8.87871e-06 -2.8797e-07 0)
(9.07791e-06 -2.05632e-07 0)
(4.36531e-06 -1.29223e-06 0)
(4.66146e-06 -1.20688e-06 0)
(4.95104e-06 -1.13477e-06 0)
(5.23003e-06 -1.07364e-06 0)
(5.50052e-06 -1.02139e-06 0)
(5.76293e-06 -9.75618e-07 0)
(6.01823e-06 -9.3456e-07 0)
(6.26723e-06 -8.96561e-07 0)
(6.51073e-06 -8.60231e-07 0)
(6.74942e-06 -8.2434e-07 0)
(6.98386e-06 -7.87801e-07 0)
(7.21447e-06 -7.49618e-07 0)
(7.44171e-06 -7.0884e-07 0)
(7.66591e-06 -6.64517e-07 0)
(7.8873e-06 -6.15618e-07 0)
(8.10607e-06 -5.61093e-07 0)
(8.32253e-06 -4.99677e-07 0)
(8.53637e-06 -4.30088e-07 0)
(8.74845e-06 -3.5044e-07 0)
(8.95761e-06 -2.59734e-07 0)
(4.04352e-06 -1.51208e-06 0)
(4.36056e-06 -1.40755e-06 0)
(4.66618e-06 -1.32224e-06 0)
(4.96088e-06 -1.24848e-06 0)
(5.24588e-06 -1.18463e-06 0)
(5.52202e-06 -1.12826e-06 0)
(5.79025e-06 -1.07752e-06 0)
(6.05135e-06 -1.0307e-06 0)
(6.30616e-06 -9.86307e-07 0)
(6.55536e-06 -9.43002e-07 0)
(6.79954e-06 -8.99591e-07 0)
(7.03915e-06 -8.54964e-07 0)
(7.27474e-06 -8.0806e-07 0)
(7.5067e-06 -7.57823e-07 0)
(7.7353e-06 -7.03129e-07 0)
(7.96088e-06 -6.42846e-07 0)
(8.18377e-06 -5.75633e-07 0)
(8.4039e-06 -5.00155e-07 0)
(8.62212e-06 -4.14483e-07 0)
(8.83769e-06 -3.17563e-07 0)
(3.86017e-06 -1.69054e-06 0)
(4.17904e-06 -1.58161e-06 0)
(4.48746e-06 -1.4887e-06 0)
(4.78638e-06 -1.40699e-06 0)
(5.07613e-06 -1.33494e-06 0)
(5.3573e-06 -1.27047e-06 0)
(5.6306e-06 -1.21182e-06 0)
(5.89669e-06 -1.15738e-06 0)
(6.15625e-06 -1.10569e-06 0)
(6.4099e-06 -1.05545e-06 0)
(6.65818e-06 -1.00545e-06 0)
(6.90154e-06 -9.54569e-07 0)
(7.14053e-06 -9.01714e-07 0)
(7.37554e-06 -8.45809e-07 0)
(7.60688e-06 -7.85721e-07 0)
(7.83498e-06 -7.20315e-07 0)
(8.06014e-06 -6.4827e-07 0)
(8.28252e-06 -5.68298e-07 0)
(8.50292e-06 -4.78553e-07 0)
(8.72094e-06 -3.77988e-07 0)
(3.70402e-06 -1.86161e-06 0)
(4.0195e-06 -1.75026e-06 0)
(4.32729e-06 -1.65251e-06 0)
(4.62687e-06 -1.56472e-06 0)
(4.91843e-06 -1.48586e-06 0)
(5.20206e-06 -1.41426e-06 0)
(5.47827e-06 -1.34839e-06 0)
(5.74747e-06 -1.2868e-06 0)
(6.0102e-06 -1.22813e-06 0)
(6.26698e-06 -1.17116e-06 0)
(6.51825e-06 -1.1147e-06 0)
(6.76444e-06 -1.05763e-06 0)
(7.00608e-06 -9.98881e-07 0)
(7.24356e-06 -9.3738e-07 0)
(7.47716e-06 -8.72009e-07 0)
(7.7074e-06 -8.01657e-07 0)
(7.93458e-06 -7.25053e-07 0)
(8.159e-06 -6.40973e-07 0)
(8.38141e-06 -5.47664e-07 0)
(8.60172e-06 -4.44116e-07 0)
(3.56656e-06 -2.02602e-06 0)
(3.87729e-06 -1.91353e-06 0)
(4.18233e-06 -1.81228e-06 0)
(4.48041e-06 -1.71965e-06 0)
(4.77167e-06 -1.63503e-06 0)
(5.05583e-06 -1.55716e-06 0)
(5.3332e-06 -1.48476e-06 0)
(5.60397e-06 -1.41659e-06 0)
(5.86853e-06 -1.35141e-06 0)
(6.12728e-06 -1.28807e-06 0)
(6.38057e-06 -1.22545e-06 0)
(6.62877e-06 -1.16247e-06 0)
(6.87239e-06 -1.09809e-06 0)
(7.11177e-06 -1.03127e-06 0)
(7.34721e-06 -9.60925e-07 0)
(7.57924e-06 -8.85984e-07 0)
(7.80816e-06 -8.05248e-07 0)
(8.03439e-06 -7.17558e-07 0)
(8.25863e-06 -6.21268e-07 0)
(8.48106e-06 -5.15486e-07 0)
(3.44537e-06 -2.18352e-06 0)
(3.75025e-06 -2.07072e-06 0)
(4.05104e-06 -1.96721e-06 0)
(4.34606e-06 -1.87095e-06 0)
(4.63539e-06 -1.78169e-06 0)
(4.91853e-06 -1.69851e-06 0)
(5.19561e-06 -1.6204e-06 0)
(5.46661e-06 -1.54631e-06 0)
(5.73181e-06 -1.47516e-06 0)
(5.99149e-06 -1.40591e-06 0)
(6.2459e-06 -1.33751e-06 0)
(6.49535e-06 -1.26895e-06 0)
(6.74032e-06 -1.19925e-06 0)
(6.98108e-06 -1.12742e-06 0)
(7.21794e-06 -1.05241e-06 0)
(7.45142e-06 -9.73213e-07 0)
(7.68182e-06 -8.88715e-07 0)
(7.90964e-06 -7.97831e-07 0)
(8.13552e-06 -6.99063e-07 0)
(8.35988e-06 -5.91731e-07 0)
(3.33749e-06 -2.33421e-06 0)
(3.63594e-06 -2.22181e-06 0)
(3.93161e-06 -2.11687e-06 0)
(4.2225e-06 -2.0179e-06 0)
(4.50874e-06 -1.92492e-06 0)
(4.78968e-06 -1.83728e-06 0)
(5.0653e-06 -1.75424e-06 0)
(5.33544e-06 -1.67491e-06 0)
(5.60027e-06 -1.59839e-06 0)
(5.85998e-06 -1.52374e-06 0)
(6.11474e-06 -1.45003e-06 0)
(6.36477e-06 -1.37632e-06 0)
(6.61051e-06 -1.3017e-06 0)
(6.85217e-06 -1.22523e-06 0)
(7.09006e-06 -1.14593e-06 0)
(7.32466e-06 -1.06288e-06 0)
(7.55628e-06 -9.75021e-07 0)
(7.78545e-06 -8.8138e-07 0)
(8.01279e-06 -7.80668e-07 0)
(8.23887e-06 -6.72393e-07 0)
(3.24069e-06 -2.47836e-06 0)
(3.53239e-06 -2.36681e-06 0)
(3.82236e-06 -2.26111e-06 0)
(4.1084e-06 -2.16022e-06 0)
(4.39074e-06 -2.06434e-06 0)
(4.6686e-06 -1.97305e-06 0)
(4.94188e-06 -1.88582e-06 0)
(5.2103e-06 -1.80195e-06 0)
(5.47396e-06 -1.72066e-06 0)
(5.73297e-06 -1.64118e-06 0)
(5.9874e-06 -1.56266e-06 0)
(6.23743e-06 -1.48425e-06 0)
(6.48343e-06 -1.40513e-06 0)
(6.72555e-06 -1.32442e-06 0)
(6.96411e-06 -1.24123e-06 0)
(7.19953e-06 -1.15469e-06 0)
(7.43211e-06 -1.06385e-06 0)
(7.66242e-06 -9.67878e-07 0)
(7.89102e-06 -8.65715e-07 0)
(8.1186e-06 -7.56926e-07 0)
(3.15294e-06 -2.61625e-06 0)
(3.43781e-06 -2.50589e-06 0)
(3.72176e-06 -2.39994e-06 0)
(4.00253e-06 -2.29775e-06 0)
(4.2804e-06 -2.19966e-06 0)
(4.55456e-06 -2.10542e-06 0)
(4.82483e-06 -2.01467e-06 0)
(5.09088e-06 -1.92689e-06 0)
(5.35273e-06 -1.84144e-06 0)
(5.61043e-06 -1.75768e-06 0)
(5.86399e-06 -1.67487e-06 0)
(6.11352e-06 -1.59225e-06 0)
(6.35935e-06 -1.50908e-06 0)
(6.60155e-06 -1.42455e-06 0)
(6.84044e-06 -1.33786e-06 0)
(7.07639e-06 -1.24821e-06 0)
(7.3097e-06 -1.15481e-06 0)
(7.54095e-06 -1.05693e-06 0)
(7.77063e-06 -9.53718e-07 0)
(7.99948e-06 -8.44721e-07 0)
(3.07247e-06 -2.74832e-06 0)
(3.35058e-06 -2.63932e-06 0)
(3.62835e-06 -2.53352e-06 0)
(3.90362e-06 -2.43053e-06 0)
(4.17668e-06 -2.33078e-06 0)
(4.44671e-06 -2.23417e-06 0)
(4.71351e-06 -2.14051e-06 0)
(4.97671e-06 -2.04941e-06 0)
(5.23628e-06 -1.96038e-06 0)
(5.49221e-06 -1.8729e-06 0)
(5.74445e-06 -1.78632e-06 0)
(5.99308e-06 -1.69998e-06 0)
(6.23836e-06 -1.61322e-06 0)
(6.48032e-06 -1.5253e-06 0)
(6.71926e-06 -1.4355e-06 0)
(6.95551e-06 -1.34316e-06 0)
(7.18935e-06 -1.24758e-06 0)
(7.42135e-06 -1.14817e-06 0)
(7.65191e-06 -1.0442e-06 0)
(7.88182e-06 -9.35296e-07 0)
(2.99767e-06 -2.87499e-06 0)
(3.26917e-06 -2.76748e-06 0)
(3.54077e-06 -2.66206e-06 0)
(3.81047e-06 -2.55862e-06 0)
(4.07853e-06 -2.45766e-06 0)
(4.34418e-06 -2.35919e-06 0)
(4.60722e-06 -2.26315e-06 0)
(4.86724e-06 -2.16929e-06 0)
(5.12419e-06 -2.07723e-06 0)
(5.37801e-06 -1.98656e-06 0)
(5.62861e-06 -1.89673e-06 0)
(5.87602e-06 -1.80716e-06 0)
(6.12044e-06 -1.71726e-06 0)
(6.3619e-06 -1.62638e-06 0)
(6.60065e-06 -1.5339e-06 0)
(6.83701e-06 -1.43925e-06 0)
(7.0712e-06 -1.34187e-06 0)
(7.30376e-06 -1.24124e-06 0)
(7.53503e-06 -1.13672e-06 0)
(7.7658e-06 -1.02821e-06 0)
(2.92716e-06 -2.99673e-06 0)
(3.19224e-06 -2.89072e-06 0)
(3.45777e-06 -2.78585e-06 0)
(3.72191e-06 -2.68222e-06 0)
(3.98491e-06 -2.5804e-06 0)
(4.24608e-06 -2.4805e-06 0)
(4.5052e-06 -2.38257e-06 0)
(4.76185e-06 -2.28647e-06 0)
(5.01596e-06 -2.1919e-06 0)
(5.26745e-06 -2.09854e-06 0)
(5.51616e-06 -2.00593e-06 0)
(5.76211e-06 -1.91359e-06 0)
(6.00547e-06 -1.82099e-06 0)
(6.24623e-06 -1.72756e-06 0)
(6.48461e-06 -1.6328e-06 0)
(6.72091e-06 -1.53622e-06 0)
(6.95529e-06 -1.43734e-06 0)
(7.18824e-06 -1.33572e-06 0)
(7.42007e-06 -1.23091e-06 0)
(7.65154e-06 -1.12295e-06 0)
(2.85967e-06 -3.11395e-06 0)
(3.11856e-06 -3.00938e-06 0)
(3.37817e-06 -2.90515e-06 0)
(3.63684e-06 -2.80155e-06 0)
(3.89484e-06 -2.69918e-06 0)
(4.15153e-06 -2.59823e-06 0)
(4.40668e-06 -2.49883e-06 0)
(4.65988e-06 -2.40092e-06 0)
(4.91104e-06 -2.3043e-06 0)
(5.16005e-06 -2.20871e-06 0)
(5.40672e-06 -2.11377e-06 0)
(5.65107e-06 -2.01908e-06 0)
(5.89323e-06 -1.9242e-06 0)
(6.13314e-06 -1.82864e-06 0)
(6.37104e-06 -1.73198e-06 0)
(6.60714e-06 -1.63381e-06 0)
(6.84157e-06 -1.53371e-06 0)
(7.07479e-06 -1.43133e-06 0)
(7.30704e-06 -1.32648e-06 0)
(7.53904e-06 -1.2191e-06 0)
(2.79403e-06 -3.22702e-06 0)
(3.04698e-06 -3.12378e-06 0)
(3.30087e-06 -3.02027e-06 0)
(3.55426e-06 -2.91686e-06 0)
(3.80738e-06 -2.81419e-06 0)
(4.05966e-06 -2.71251e-06 0)
(4.31088e-06 -2.612e-06 0)
(4.56063e-06 -2.51266e-06 0)
(4.80881e-06 -2.41442e-06 0)
(5.0553e-06 -2.31702e-06 0)
(5.29988e-06 -2.22019e-06 0)
(5.54255e-06 -2.12358e-06 0)
(5.78343e-06 -2.02683e-06 0)
(6.02244e-06 -1.92953e-06 0)
(6.25976e-06 -1.83132e-06 0)
(6.49556e-06 -1.73184e-06 0)
(6.72993e-06 -1.63076e-06 0)
(6.9633e-06 -1.52787e-06 0)
(7.19585e-06 -1.4231e-06 0)
(7.42824e-06 -1.31634e-06 0)
(2.72917e-06 -3.33625e-06 0)
(2.97644e-06 -3.23431e-06 0)
(3.22485e-06 -3.13152e-06 0)
(3.47318e-06 -3.02842e-06 0)
(3.7216e-06 -2.92565e-06 0)
(3.96963e-06 -2.82349e-06 0)
(4.21704e-06 -2.72221e-06 0)
(4.46343e-06 -2.62182e-06 0)
(4.70869e-06 -2.52233e-06 0)
(4.95267e-06 -2.42353e-06 0)
(5.19517e-06 -2.3252e-06 0)
(5.43618e-06 -2.22705e-06 0)
(5.67577e-06 -2.12879e-06 0)
(5.91384e-06 -2.03009e-06 0)
(6.15052e-06 -1.93062e-06 0)
(6.38595e-06 -1.8301e-06 0)
(6.62018e-06 -1.72828e-06 0)
(6.85364e-06 -1.62509e-06 0)
(7.0864e-06 -1.5204e-06 0)
(7.31905e-06 -1.4143e-06 0)
(2.66402e-06 -3.44203e-06 0)
(2.90589e-06 -3.34126e-06 0)
(3.14911e-06 -3.23922e-06 0)
(3.39262e-06 -3.13653e-06 0)
(3.6366e-06 -3.03384e-06 0)
(3.88061e-06 -2.93146e-06 0)
(4.12439e-06 -2.82969e-06 0)
(4.36758e-06 -2.72857e-06 0)
(4.61004e-06 -2.62813e-06 0)
(4.85163e-06 -2.52827e-06 0)
(5.09215e-06 -2.42879e-06 0)
(5.33156e-06 -2.32949e-06 0)
(5.56991e-06 -2.23009e-06 0)
(5.80703e-06 -2.1303e-06 0)
(6.04303e-06 -2.02985e-06 0)
(6.27806e-06 -1.92853e-06 0)
(6.51215e-06 -1.82621e-06 0)
(6.74562e-06 -1.72282e-06 0)
(6.97851e-06 -1.61825e-06 0)
(7.2113e-06 -1.51273e-06 0)
(2.59759e-06 -3.54461e-06 0)
(2.83433e-06 -3.44503e-06 0)
(3.0726e-06 -3.34364e-06 0)
(3.31165e-06 -3.24144e-06 0)
(3.5515e-06 -3.139e-06 0)
(3.79178e-06 -3.03662e-06 0)
(4.0322e-06 -2.93459e-06 0)
(4.27241e-06 -2.83304e-06 0)
(4.51228e-06 -2.73199e-06 0)
(4.75169e-06 -2.63138e-06 0)
(4.99039e-06 -2.53109e-06 0)
(5.22832e-06 -2.43093e-06 0)
(5.46546e-06 -2.33067e-06 0)
(5.70166e-06 -2.23006e-06 0)
(5.93702e-06 -2.12889e-06 0)
(6.17168e-06 -2.02702e-06 0)
(6.40561e-06 -1.92436e-06 0)
(6.63902e-06 -1.82078e-06 0)
(6.87193e-06 -1.7164e-06 0)
(7.10477e-06 -1.6114e-06 0)
(2.52884e-06 -3.64433e-06 0)
(2.76056e-06 -3.54559e-06 0)
(2.99415e-06 -3.44511e-06 0)
(3.22928e-06 -3.34361e-06 0)
(3.46536e-06 -3.24153e-06 0)
(3.7023e-06 -3.1393e-06 0)
(3.9397e-06 -3.03724e-06 0)
(4.17726e-06 -2.93548e-06 0)
(4.41486e-06 -2.83409e-06 0)
(4.65236e-06 -2.73304e-06 0)
(4.88945e-06 -2.63223e-06 0)
(5.12601e-06 -2.53148e-06 0)
(5.36205e-06 -2.43062e-06 0)
(5.59743e-06 -2.32944e-06 0)
(5.83226e-06 -2.2278e-06 0)
(6.06658e-06 -2.12556e-06 0)
(6.30025e-06 -2.02263e-06 0)
(6.53348e-06 -1.91892e-06 0)
(6.76639e-06 -1.81472e-06 0)
(6.99942e-06 -1.71014e-06 0)
(2.45614e-06 -3.74108e-06 0)
(2.68361e-06 -3.64335e-06 0)
(2.91334e-06 -3.54397e-06 0)
(3.14466e-06 -3.44318e-06 0)
(3.37746e-06 -3.34164e-06 0)
(3.61143e-06 -3.23976e-06 0)
(3.84626e-06 -3.13786e-06 0)
(4.08161e-06 -3.03613e-06 0)
(4.31734e-06 -2.93465e-06 0)
(4.55322e-06 -2.8334e-06 0)
(4.78889e-06 -2.73229e-06 0)
(5.02427e-06 -2.63121e-06 0)
(5.25943e-06 -2.53e-06 0)
(5.4942e-06 -2.42848e-06 0)
(5.7285e-06 -2.32653e-06 0)
(5.9623e-06 -2.22404e-06 0)
(6.19569e-06 -2.12089e-06 0)
(6.42895e-06 -2.0172e-06 0)
(6.66182e-06 -1.91311e-06 0)
(6.8946e-06 -1.80881e-06 0)
(2.37853e-06 -3.83596e-06 0)
(2.60212e-06 -3.73941e-06 0)
(2.8283e-06 -3.64085e-06 0)
(3.0565e-06 -3.54084e-06 0)
(3.28658e-06 -3.43994e-06 0)
(3.51824e-06 -3.33857e-06 0)
(3.75115e-06 -3.23702e-06 0)
(3.98489e-06 -3.13549e-06 0)
(4.21916e-06 -3.03407e-06 0)
(4.45373e-06 -2.93279e-06 0)
(4.68837e-06 -2.83159e-06 0)
(4.92301e-06 -2.73036e-06 0)
(5.15749e-06 -2.62895e-06 0)
(5.39151e-06 -2.52724e-06 0)
(5.62527e-06 -2.4251e-06 0)
(5.85883e-06 -2.32243e-06 0)
(6.09197e-06 -2.21918e-06 0)
(6.32498e-06 -2.11548e-06 0)
(6.5578e-06 -2.01143e-06 0)
(6.79051e-06 -1.90733e-06 0)
(2.29497e-06 -3.92812e-06 0)
(2.51511e-06 -3.83292e-06 0)
(2.73832e-06 -3.73557e-06 0)
(2.96408e-06 -3.63658e-06 0)
(3.19223e-06 -3.53655e-06 0)
(3.42239e-06 -3.43588e-06 0)
(3.65402e-06 -3.33486e-06 0)
(3.88659e-06 -3.2337e-06 0)
(4.11995e-06 -3.13254e-06 0)
(4.3539e-06 -3.0314e-06 0)
(4.58795e-06 -2.93025e-06 0)
(4.82189e-06 -2.82898e-06 0)
(5.0558e-06 -2.7275e-06 0)
(5.28941e-06 -2.62569e-06 0)
(5.52269e-06 -2.52345e-06 0)
(5.75583e-06 -2.42069e-06 0)
(5.9887e-06 -2.31745e-06 0)
(6.22147e-06 -2.21368e-06 0)
(6.45419e-06 -2.10965e-06 0)
(6.68668e-06 -2.00556e-06 0)
(1.68288e-07 -3.35535e-06 0)
(5.0707e-07 -3.3064e-06 0)
(8.52509e-07 -3.21016e-06 0)
(1.20828e-06 -3.07085e-06 0)
(1.57744e-06 -2.89354e-06 0)
(1.96196e-06 -2.68505e-06 0)
(2.36254e-06 -2.45288e-06 0)
(2.77856e-06 -2.20498e-06 0)
(3.20852e-06 -1.94937e-06 0)
(3.64925e-06 -1.69245e-06 0)
(1.63908e-07 -3.41094e-06 0)
(4.93563e-07 -3.36631e-06 0)
(8.28727e-07 -3.27839e-06 0)
(1.17244e-06 -3.15089e-06 0)
(1.52726e-06 -2.98806e-06 0)
(1.89486e-06 -2.79567e-06 0)
(2.2758e-06 -2.58018e-06 0)
(2.66948e-06 -2.34839e-06 0)
(3.07374e-06 -2.10774e-06 0)
(3.48638e-06 -1.8634e-06 0)
(1.59999e-07 -3.4682e-06 0)
(4.81484e-07 -3.42748e-06 0)
(8.07374e-07 -3.3471e-06 0)
(1.14013e-06 -3.2304e-06 0)
(1.48183e-06 -3.08099e-06 0)
(1.83387e-06 -2.90382e-06 0)
(2.19676e-06 -2.70447e-06 0)
(2.57044e-06 -2.4886e-06 0)
(2.95318e-06 -2.26279e-06 0)
(3.34381e-06 -2.03012e-06 0)
(1.5645e-07 -3.5271e-06 0)
(4.70606e-07 -3.4897e-06 0)
(7.88344e-07 -3.41573e-06 0)
(1.11169e-06 -3.3082e-06 0)
(1.44235e-06 -3.17026e-06 0)
(1.7814e-06 -3.0062e-06 0)
(2.12922e-06 -2.82101e-06 0)
(2.48571e-06 -2.61964e-06 0)
(2.8494e-06 -2.40826e-06 0)
(3.2193e-06 -2.18909e-06 0)
(1.53151e-07 -3.58754e-06 0)
(4.60454e-07 -3.55309e-06 0)
(7.70699e-07 -3.48483e-06 0)
(1.0855e-06 -3.38551e-06 0)
(1.40626e-06 -3.25795e-06 0)
(1.73383e-06 -3.10585e-06 0)
(2.06856e-06 -2.93372e-06 0)
(2.41036e-06 -2.74578e-06 0)
(2.75816e-06 -2.54763e-06 0)
(3.11031e-06 -2.34121e-06 0)
(1.50074e-07 -3.6494e-06 0)
(4.50976e-07 -3.61749e-06 0)
(7.54334e-07 -3.55422e-06 0)
(1.06141e-06 -3.46202e-06 0)
(1.37338e-06 -3.34353e-06 0)
(1.69093e-06 -3.20201e-06 0)
(2.01426e-06 -3.04155e-06 0)
(2.3432e-06 -2.86596e-06 0)
(2.67712e-06 -2.68021e-06 0)
(3.01385e-06 -2.48634e-06 0)
(1.47087e-07 -3.71259e-06 0)
(4.41895e-07 -3.6829e-06 0)
(7.38737e-07 -3.62411e-06 0)
(1.03864e-06 -3.53826e-06 0)
(1.34261e-06 -3.42789e-06 0)
(1.65117e-06 -3.29589e-06 0)
(1.96452e-06 -3.14598e-06 0)
(2.28226e-06 -2.98159e-06 0)
(2.60421e-06 -2.80712e-06 0)
(2.9277e-06 -2.62488e-06 0)
(1.44182e-07 -3.77693e-06 0)
(4.33118e-07 -3.7492e-06 0)
(7.23735e-07 -3.69437e-06 0)
(1.01692e-06 -3.61413e-06 0)
(1.31354e-06 -3.51095e-06 0)
(1.61396e-06 -3.38747e-06 0)
(1.91837e-06 -3.24705e-06 0)
(2.22623e-06 -3.09284e-06 0)
(2.53767e-06 -2.92872e-06 0)
(2.84979e-06 -2.75726e-06 0)
(1.41355e-07 -3.84233e-06 0)
(4.24501e-07 -3.81631e-06 0)
(7.09065e-07 -3.76501e-06 0)
(9.95836e-07 -3.68981e-06 0)
(1.28557e-06 -3.59309e-06 0)
(1.57852e-06 -3.47727e-06 0)
(1.87486e-06 -3.34538e-06 0)
(2.17394e-06 -3.20035e-06 0)
(2.4761e-06 -3.04565e-06 0)
(2.77837e-06 -2.88403e-06 0)
(1.38549e-07 -3.9086e-06 0)
(4.15928e-07 -3.8841e-06 0)
(6.94554e-07 -3.83594e-06 0)
(9.7515e-07 -3.76528e-06 0)
(1.25832e-06 -3.67435e-06 0)
(1.5443e-06 -3.5654e-06 0)
(1.83324e-06 -3.44119e-06 0)
(2.12441e-06 -3.30449e-06 0)
(2.41824e-06 -3.15839e-06 0)
(2.71191e-06 -3.00572e-06 0)
(1.35687e-07 -3.97557e-06 0)
(4.07287e-07 -3.95242e-06 0)
(6.80031e-07 -3.9071e-06 0)
(9.54568e-07 -3.84055e-06 0)
(1.23141e-06 -3.75485e-06 0)
(1.51077e-06 -3.65208e-06 0)
(1.7928e-06 -3.53482e-06 0)
(2.07674e-06 -3.40569e-06 0)
(2.36303e-06 -3.2674e-06 0)
(2.64906e-06 -3.12281e-06 0)
(1.32755e-07 -4.04303e-06 0)
(3.98528e-07 -4.02113e-06 0)
(6.65367e-07 -3.97836e-06 0)
(9.33853e-07 -3.91554e-06 0)
(1.20449e-06 -3.83458e-06 0)
(1.47746e-06 -3.73742e-06 0)
(1.75292e-06 -3.62646e-06 0)
(2.03013e-06 -3.50419e-06 0)
(2.30948e-06 -3.37298e-06 0)
(2.58866e-06 -3.2357e-06 0)
(1.2976e-07 -4.11081e-06 0)
(3.89574e-07 -4.09007e-06 0)
(6.50391e-07 -4.04963e-06 0)
(9.12751e-07 -3.99021e-06 0)
(1.1772e-06 -3.91356e-06 0)
(1.4439e-06 -3.8215e-06 0)
(1.71302e-06 -3.71628e-06 0)
(1.98383e-06 -3.60022e-06 0)
(2.25671e-06 -3.47544e-06 0)
(2.52962e-06 -3.3448e-06 0)
(1.26677e-07 -4.1787e-06 0)
(3.80305e-07 -4.15904e-06 0)
(6.349e-07 -4.12073e-06 0)
(8.90999e-07 -4.06441e-06 0)
(1.14919e-06 -3.9917e-06 0)
(1.40964e-06 -3.90433e-06 0)
(1.67251e-06 -3.80435e-06 0)
(1.93714e-06 -3.69393e-06 0)
(2.20388e-06 -3.57506e-06 0)
(2.47095e-06 -3.45044e-06 0)
(1.23442e-07 -4.24653e-06 0)
(3.70566e-07 -4.22789e-06 0)
(6.18667e-07 -4.19151e-06 0)
(8.68302e-07 -4.13807e-06 0)
(1.12008e-06 -4.069e-06 0)
(1.37419e-06 -3.98595e-06 0)
(1.63078e-06 -3.89076e-06 0)
(1.88935e-06 -3.7855e-06 0)
(2.15013e-06 -3.67207e-06 0)
(2.41164e-06 -3.55291e-06 0)
(1.19995e-07 -4.31393e-06 0)
(3.60223e-07 -4.29626e-06 0)
(6.01482e-07 -4.2617e-06 0)
(8.44351e-07 -4.21093e-06 0)
(1.08945e-06 -4.14523e-06 0)
(1.33702e-06 -4.06615e-06 0)
(1.58724e-06 -3.9754e-06 0)
(1.83973e-06 -3.87495e-06 0)
(2.09464e-06 -3.76654e-06 0)
(2.35076e-06 -3.65239e-06 0)
(1.16289e-07 -4.38083e-06 0)
(3.49141e-07 -4.36409e-06 0)
(5.83101e-07 -4.33122e-06 0)
(8.18784e-07 -4.28294e-06 0)
(1.05683e-06 -4.22042e-06 0)
(1.29755e-06 -4.14508e-06 0)
(1.5412e-06 -4.0585e-06 0)
(1.78746e-06 -3.96257e-06 0)
(2.03647e-06 -3.85875e-06 0)
(2.28721e-06 -3.74928e-06 0)
(1.12287e-07 -4.44649e-06 0)
(3.37185e-07 -4.43064e-06 0)
(5.63278e-07 -4.39938e-06 0)
(7.91243e-07 -4.35348e-06 0)
(1.02176e-06 -4.29396e-06 0)
(1.25523e-06 -4.22216e-06 0)
(1.49193e-06 -4.13957e-06 0)
(1.73168e-06 -4.0479e-06 0)
(1.97456e-06 -3.94848e-06 0)
(2.21985e-06 -3.84339e-06 0)
(1.0792e-07 -4.51125e-06 0)
(3.24129e-07 -4.49625e-06 0)
(5.41625e-07 -4.46657e-06 0)
(7.61172e-07 -4.42295e-06 0)
(9.83514e-07 -4.36634e-06 0)
(1.20915e-06 -4.29799e-06 0)
(1.43841e-06 -4.21925e-06 0)
(1.67121e-06 -4.13163e-06 0)
(1.90765e-06 -4.03647e-06 0)
(2.14729e-06 -3.93555e-06 0)
(1.03153e-07 -4.57317e-06 0)
(3.09864e-07 -4.55895e-06 0)
(5.17952e-07 -4.53085e-06 0)
(7.28307e-07 -4.4895e-06 0)
(9.41761e-07 -4.43579e-06 0)
(1.15887e-06 -4.37088e-06 0)
(1.38004e-06 -4.29597e-06 0)
(1.60531e-06 -4.21244e-06 0)
(1.83491e-06 -4.12156e-06 0)
(2.06862e-06 -4.02487e-06 0)
)


// ************************************************************************* //
