/*--------------------------------*- C++ -*----------------------------------*\
| =========                 |                                                 |
| \\      /  F ield         | foam-extend: Open Source CFD                    |
|  \\    /   O peration     | Version:     4.1                                |
|   \\  /    A nd           | Web:         http://www.foam-extend.org         |
|    \\/     M anipulation  |                                                 |
\*---------------------------------------------------------------------------*/
FoamFile
{
    version     2.0;
    format      ascii;
    class       vectorField;
    location    "8";
    object      solidsCellD_iteration7;
}
// * * * * * * * * * * * * * * * * * * * * * * * * * * * * * * * * * * * * * //


1000
(
(4.12788e-06 -1.73738e-06 0)
(3.89655e-06 -1.61792e-06 0)
(3.74906e-06 -1.54261e-06 0)
(3.66472e-06 -1.50798e-06 0)
(3.6239e-06 -1.49664e-06 0)
(3.6149e-06 -1.5033e-06 0)
(3.62928e-06 -1.5217e-06 0)
(3.66124e-06 -1.5489e-06 0)
(3.70636e-06 -1.58201e-06 0)
(3.76104e-06 -1.61955e-06 0)
(3.73269e-06 -1.89772e-06 0)
(3.48627e-06 -1.815e-06 0)
(3.32921e-06 -1.76298e-06 0)
(3.23781e-06 -1.74421e-06 0)
(3.19144e-06 -1.74343e-06 0)
(3.17734e-06 -1.75757e-06 0)
(3.1868e-06 -1.78134e-06 0)
(3.2136e-06 -1.81252e-06 0)
(3.25316e-06 -1.84889e-06 0)
(3.30157e-06 -1.88838e-06 0)
(3.32194e-06 -2.04968e-06 0)
(3.07015e-06 -2.00803e-06 0)
(2.90974e-06 -1.98199e-06 0)
(2.81522e-06 -1.9807e-06 0)
(2.76579e-06 -1.99134e-06 0)
(2.74816e-06 -2.01338e-06 0)
(2.75361e-06 -2.04266e-06 0)
(2.77591e-06 -2.07772e-06 0)
(2.81042e-06 -2.11713e-06 0)
(2.85341e-06 -2.15861e-06 0)
(2.89878e-06 -2.19057e-06 0)
(2.65217e-06 -2.19199e-06 0)
(2.4951e-06 -2.1932e-06 0)
(2.40165e-06 -2.21009e-06 0)
(2.35176e-06 -2.23259e-06 0)
(2.33224e-06 -2.26273e-06 0)
(2.33463e-06 -2.29751e-06 0)
(2.35291e-06 -2.33642e-06 0)
(2.38273e-06 -2.37875e-06 0)
(2.42033e-06 -2.42238e-06 0)
(2.46608e-06 -2.31762e-06 0)
(2.23517e-06 -2.3617e-06 0)
(2.08812e-06 -2.38995e-06 0)
(2.00007e-06 -2.42479e-06 0)
(1.95238e-06 -2.45891e-06 0)
(1.93254e-06 -2.49696e-06 0)
(1.93278e-06 -2.53707e-06 0)
(1.94746e-06 -2.57974e-06 0)
(1.97272e-06 -2.62484e-06 0)
(2.00485e-06 -2.67072e-06 0)
(2.02598e-06 -2.42824e-06 0)
(1.82097e-06 -2.51222e-06 0)
(1.69047e-06 -2.56576e-06 0)
(1.61191e-06 -2.61739e-06 0)
(1.56889e-06 -2.66237e-06 0)
(1.55021e-06 -2.70777e-06 0)
(1.54919e-06 -2.75278e-06 0)
(1.56068e-06 -2.79894e-06 0)
(1.58143e-06 -2.84659e-06 0)
(1.60792e-06 -2.89469e-06 0)
(1.58061e-06 -2.51993e-06 0)
(1.4106e-06 -2.63888e-06 0)
(1.3024e-06 -2.7146e-06 0)
(1.23702e-06 -2.78093e-06 0)
(1.20094e-06 -2.83538e-06 0)
(1.18487e-06 -2.88721e-06 0)
(1.18329e-06 -2.9365e-06 0)
(1.19189e-06 -2.98574e-06 0)
(1.20806e-06 -3.03562e-06 0)
(1.22877e-06 -3.08575e-06 0)
(1.13152e-06 -2.59064e-06 0)
(1.00415e-06 -2.73769e-06 0)
(9.23136e-07 -2.83121e-06 0)
(8.74094e-07 -2.90929e-06 0)
(8.46892e-07 -2.97137e-06 0)
(8.34548e-07 -3.02836e-06 0)
(8.32966e-07 -3.08111e-06 0)
(8.389e-07 -3.13284e-06 0)
(8.50471e-07 -3.18449e-06 0)
(8.65304e-07 -3.23631e-06 0)
(6.79963e-07 -2.63871e-06 0)
(6.01122e-07 -2.80539e-06 0)
(5.50985e-07 -2.91135e-06 0)
(5.20534e-07 -2.99771e-06 0)
(5.03558e-07 -3.06513e-06 0)
(4.95774e-07 -3.1257e-06 0)
(4.94658e-07 -3.18086e-06 0)
(4.98148e-07 -3.23439e-06 0)
(5.05078e-07 -3.28732e-06 0)
(5.13981e-07 -3.34037e-06 0)
(2.27091e-07 -2.66293e-06 0)
(2.0037e-07 -2.83975e-06 0)
(1.83319e-07 -2.95213e-06 0)
(1.72973e-07 -3.04274e-06 0)
(1.6722e-07 -3.1129e-06 0)
(1.64528e-07 -3.17535e-06 0)
(1.64065e-07 -3.23175e-06 0)
(1.65196e-07 -3.28618e-06 0)
(1.67511e-07 -3.33976e-06 0)
(1.70468e-07 -3.39345e-06 0)
(6.43942e-06 -7.93103e-08 0)
(6.49749e-06 -5.72188e-08 0)
(6.533e-06 -4.32301e-08 0)
(6.57147e-06 -3.50208e-08 0)
(6.61349e-06 -3.04771e-08 0)
(6.665e-06 -2.84109e-08 0)
(6.72589e-06 -2.80027e-08 0)
(6.79682e-06 -2.86555e-08 0)
(6.87761e-06 -3.01333e-08 0)
(6.96719e-06 -3.19085e-08 0)
(6.39179e-06 -2.37925e-07 0)
(6.44023e-06 -1.72946e-07 0)
(6.46971e-06 -1.31866e-07 0)
(6.50413e-06 -1.07873e-07 0)
(6.54348e-06 -9.4682e-08 0)
(6.59306e-06 -8.8677e-08 0)
(6.6526e-06 -8.75982e-08 0)
(6.72243e-06 -8.97503e-08 0)
(6.80226e-06 -9.42059e-08 0)
(6.89085e-06 -9.94768e-08 0)
(6.29662e-06 -3.97872e-07 0)
(6.32671e-06 -2.9358e-07 0)
(6.34459e-06 -2.2771e-07 0)
(6.37131e-06 -1.89248e-07 0)
(6.40558e-06 -1.68238e-07 0)
(6.45159e-06 -1.58908e-07 0)
(6.50846e-06 -1.57451e-07 0)
(6.57614e-06 -1.61172e-07 0)
(6.65415e-06 -1.68578e-07 0)
(6.7408e-06 -1.77389e-07 0)
(6.15562e-06 -5.59844e-07 0)
(6.15963e-06 -4.21882e-07 0)
(6.16096e-06 -3.34839e-07 0)
(6.17675e-06 -2.84245e-07 0)
(6.20374e-06 -2.56744e-07 0)
(6.24461e-06 -2.44811e-07 0)
(6.29774e-06 -2.43331e-07 0)
(6.3624e-06 -2.48826e-07 0)
(6.43784e-06 -2.59215e-07 0)
(6.5218e-06 -2.716e-07 0)
(5.97096e-06 -7.24271e-07 0)
(5.94276e-06 -5.60182e-07 0)
(5.92362e-06 -4.56682e-07 0)
(5.92583e-06 -3.96953e-07 0)
(5.94384e-06 -3.64778e-07 0)
(5.97836e-06 -3.51321e-07 0)
(6.0268e-06 -3.50412e-07 0)
(6.08767e-06 -3.57957e-07 0)
(6.1599e-06 -3.71324e-07 0)
(6.2406e-06 -3.87254e-07 0)
(5.74543e-06 -8.91235e-07 0)
(5.68074e-06 -7.09992e-07 0)
(5.63851e-06 -5.95643e-07 0)
(5.62538e-06 -5.30316e-07 0)
(5.63318e-06 -4.95652e-07 0)
(5.66044e-06 -4.81976e-07 0)
(5.70356e-06 -4.82304e-07 0)
(5.76011e-06 -4.92167e-07 0)
(5.82863e-06 -5.08501e-07 0)
(5.90569e-06 -5.27948e-07 0)
(5.48236e-06 -1.06042e-06 0)
(5.3791e-06 -8.71932e-07 0)
(5.31248e-06 -7.52975e-07 0)
(5.28313e-06 -6.85981e-07 0)
(5.28012e-06 -6.51205e-07 0)
(5.29964e-06 -6.38727e-07 0)
(5.33703e-06 -6.41046e-07 0)
(5.38892e-06 -6.53546e-07 0)
(5.45337e-06 -6.72909e-07 0)
(5.52661e-06 -6.95823e-07 0)
(5.18524e-06 -1.23102e-06 0)
(5.04376e-06 -1.0456e-06 0)
(4.95295e-06 -9.28527e-07 0)
(4.90745e-06 -8.63942e-07 0)
(4.89362e-06 -8.31529e-07 0)
(4.90532e-06 -8.2174e-07 0)
(4.93678e-06 -8.26849e-07 0)
(4.98386e-06 -8.42381e-07 0)
(5.044e-06 -8.64835e-07 0)
(5.11331e-06 -8.91215e-07 0)
(4.8579e-06 -1.40187e-06 0)
(4.68088e-06 -1.22955e-06 0)
(4.56765e-06 -1.12078e-06 0)
(4.50701e-06 -1.06262e-06 0)
(4.48295e-06 -1.03504e-06 0)
(4.48708e-06 -1.0294e-06 0)
(4.51263e-06 -1.03815e-06 0)
(4.55483e-06 -1.05707e-06 0)
(4.61038e-06 -1.08285e-06 0)
(4.67572e-06 -1.11248e-06 0)
(4.5042e-06 -1.57132e-06 0)
(4.29658e-06 -1.42141e-06 0)
(4.16402e-06 -1.32683e-06 0)
(4.09016e-06 -1.27886e-06 0)
(4.05693e-06 -1.25843e-06 0)
(4.05408e-06 -1.25834e-06 0)
(4.07403e-06 -1.27156e-06 0)
(4.11138e-06 -1.29448e-06 0)
(4.16243e-06 -1.32381e-06 0)
(4.22341e-06 -1.35795e-06 0)
(7.06573e-06 -3.36462e-08 0)
(7.17314e-06 -3.40371e-08 0)
(7.28734e-06 -3.44908e-08 0)
(7.40793e-06 -3.48102e-08 0)
(7.53417e-06 -3.49618e-08 0)
(7.66558e-06 -3.49361e-08 0)
(7.80159e-06 -3.46901e-08 0)
(7.94164e-06 -3.42464e-08 0)
(8.08531e-06 -3.35997e-08 0)
(8.23219e-06 -3.27125e-08 0)
(8.38181e-06 -3.15487e-08 0)
(8.53372e-06 -3.00958e-08 0)
(8.68751e-06 -2.83414e-08 0)
(8.84273e-06 -2.62681e-08 0)
(8.99899e-06 -2.38386e-08 0)
(9.15569e-06 -2.09989e-08 0)
(9.31254e-06 -1.76817e-08 0)
(9.46851e-06 -1.3822e-08 0)
(9.62381e-06 -9.32928e-09 0)
(9.77596e-06 -4.17649e-09 0)
(6.99278e-06 -1.04334e-07 0)
(7.10628e-06 -1.05052e-07 0)
(7.22594e-06 -1.05988e-07 0)
(7.35128e-06 -1.06591e-07 0)
(7.48178e-06 -1.06722e-07 0)
(7.61693e-06 -1.06394e-07 0)
(7.75629e-06 -1.05503e-07 0)
(7.89941e-06 -1.04051e-07 0)
(8.04589e-06 -1.01953e-07 0)
(8.19531e-06 -9.91291e-08 0)
(8.34727e-06 -9.55303e-08 0)
(8.50136e-06 -9.11268e-08 0)
(8.65721e-06 -8.58492e-08 0)
(8.81436e-06 -7.96038e-08 0)
(8.97244e-06 -7.22675e-08 0)
(9.13086e-06 -6.37045e-08 0)
(9.28936e-06 -5.37358e-08 0)
(9.44693e-06 -4.2177e-08 0)
(9.60382e-06 -2.87476e-08 0)
(9.75752e-06 -1.33364e-08 0)
(6.84933e-06 -1.84355e-07 0)
(6.97482e-06 -1.84048e-07 0)
(7.10521e-06 -1.8422e-07 0)
(7.23982e-06 -1.84168e-07 0)
(7.3786e-06 -1.8353e-07 0)
(7.52114e-06 -1.82324e-07 0)
(7.66718e-06 -1.80298e-07 0)
(7.81629e-06 -1.77413e-07 0)
(7.96821e-06 -1.73509e-07 0)
(8.12261e-06 -1.68492e-07 0)
(8.27917e-06 -1.62283e-07 0)
(8.43754e-06 -1.54802e-07 0)
(8.59739e-06 -1.45893e-07 0)
(8.75828e-06 -1.35382e-07 0)
(8.9199e-06 -1.23069e-07 0)
(9.08173e-06 -1.08741e-07 0)
(9.24352e-06 -9.21031e-08 0)
(9.40429e-06 -7.28559e-08 0)
(9.56431e-06 -5.05306e-08 0)
(9.72115e-06 -2.4915e-08 0)
(6.63975e-06 -2.79019e-07 0)
(6.78238e-06 -2.75545e-07 0)
(6.92827e-06 -2.73008e-07 0)
(7.07636e-06 -2.70835e-07 0)
(7.22727e-06 -2.68213e-07 0)
(7.38055e-06 -2.65164e-07 0)
(7.5363e-06 -2.61203e-07 0)
(7.69417e-06 -2.56251e-07 0)
(7.85413e-06 -2.5005e-07 0)
(8.0159e-06 -2.42468e-07 0)
(8.17925e-06 -2.33353e-07 0)
(8.3439e-06 -2.22542e-07 0)
(8.50959e-06 -2.09799e-07 0)
(8.67599e-06 -1.94886e-07 0)
(8.84283e-06 -1.77537e-07 0)
(9.00964e-06 -1.57427e-07 0)
(9.17623e-06 -1.34135e-07 0)
(9.34167e-06 -1.07236e-07 0)
(9.50625e-06 -7.60541e-08 0)
(9.66764e-06 -4.0304e-08 0)
(6.37027e-06 -3.93014e-07 0)
(6.53448e-06 -3.83647e-07 0)
(6.70006e-06 -3.75938e-07 0)
(6.86525e-06 -3.69763e-07 0)
(7.03163e-06 -3.63556e-07 0)
(7.19867e-06 -3.57359e-07 0)
(7.36692e-06 -3.50408e-07 0)
(7.5361e-06 -3.42558e-07 0)
(7.70639e-06 -3.33398e-07 0)
(7.87761e-06 -3.22709e-07 0)
(8.0497e-06 -3.10252e-07 0)
(8.22248e-06 -2.95774e-07 0)
(8.39577e-06 -2.78953e-07 0)
(8.56932e-06 -2.59473e-07 0)
(8.74295e-06 -2.36977e-07 0)
(8.9162e-06 -2.11026e-07 0)
(9.089e-06 -1.81074e-07 0)
(9.26043e-06 -1.46565e-07 0)
(9.43093e-06 -1.0661e-07 0)
(9.59821e-06 -6.08387e-08 0)
(6.04859e-06 -5.29703e-07 0)
(6.2376e-06 -5.113e-07 0)
(6.42622e-06 -4.95492e-07 0)
(6.61157e-06 -4.83e-07 0)
(6.79635e-06 -4.71306e-07 0)
(6.97983e-06 -4.60415e-07 0)
(7.16298e-06 -4.49227e-07 0)
(7.34571e-06 -4.37435e-07 0)
(7.52839e-06 -4.24495e-07 0)
(7.71099e-06 -4.10063e-07 0)
(7.8936e-06 -3.93783e-07 0)
(8.07616e-06 -3.7528e-07 0)
(8.25859e-06 -3.54128e-07 0)
(8.44072e-06 -3.29914e-07 0)
(8.62247e-06 -3.02164e-07 0)
(8.80346e-06 -2.70333e-07 0)
(8.98372e-06 -2.33745e-07 0)
(9.16237e-06 -1.91715e-07 0)
(9.33998e-06 -1.43137e-07 0)
(9.51435e-06 -8.75087e-08 0)
(5.68363e-06 -6.91226e-07 0)
(5.89965e-06 -6.6054e-07 0)
(6.11374e-06 -6.337e-07 0)
(6.32155e-06 -6.12425e-07 0)
(6.52687e-06 -5.93243e-07 0)
(6.7289e-06 -5.75941e-07 0)
(6.92891e-06 -5.59158e-07 0)
(7.12703e-06 -5.42305e-07 0)
(7.32383e-06 -5.24691e-07 0)
(7.51945e-06 -5.05797e-07 0)
(7.71411e-06 -4.85114e-07 0)
(7.90787e-06 -4.62122e-07 0)
(8.10076e-06 -4.36284e-07 0)
(8.29272e-06 -4.07083e-07 0)
(8.48378e-06 -3.73923e-07 0)
(8.67366e-06 -3.36151e-07 0)
(8.86247e-06 -2.9295e-07 0)
(9.04944e-06 -2.43488e-07 0)
(9.23517e-06 -1.86436e-07 0)
(9.41766e-06 -1.2116e-07 0)
(5.2844e-06 -8.78008e-07 0)
(5.52836e-06 -8.31531e-07 0)
(5.7692e-06 -7.90769e-07 0)
(6.00112e-06 -7.57955e-07 0)
(6.22862e-06 -7.29142e-07 0)
(6.45089e-06 -7.0357e-07 0)
(6.66944e-06 -6.79715e-07 0)
(6.88457e-06 -6.56623e-07 0)
(7.09697e-06 -6.33414e-07 0)
(7.30699e-06 -6.09339e-07 0)
(7.51497e-06 -5.83702e-07 0)
(7.72109e-06 -5.55825e-07 0)
(7.92552e-06 -5.25042e-07 0)
(8.12837e-06 -4.90714e-07 0)
(8.32973e-06 -4.5211e-07 0)
(8.52945e-06 -4.0845e-07 0)
(8.7277e-06 -3.58757e-07 0)
(8.92384e-06 -3.02041e-07 0)
(9.11854e-06 -2.36756e-07 0)
(9.31001e-06 -1.62124e-07 0)
(4.86052e-06 -1.08974e-06 0)
(5.13268e-06 -1.02442e-06 0)
(5.40041e-06 -9.67828e-07 0)
(5.65736e-06 -9.21098e-07 0)
(5.90782e-06 -8.80814e-07 0)
(6.15135e-06 -8.45304e-07 0)
(6.38942e-06 -8.12936e-07 0)
(6.62258e-06 -7.82366e-07 0)
(6.85161e-06 -7.52497e-07 0)
(7.07702e-06 -7.22339e-07 0)
(7.29927e-06 -6.91005e-07 0)
(7.51869e-06 -6.57658e-07 0)
(7.73559e-06 -6.21495e-07 0)
(7.9502e-06 -5.81734e-07 0)
(8.16267e-06 -5.37496e-07 0)
(8.37299e-06 -4.87857e-07 0)
(8.58141e-06 -4.31676e-07 0)
(8.78742e-06 -3.67805e-07 0)
(8.99178e-06 -2.94506e-07 0)
(9.19298e-06 -2.10878e-07 0)
(4.41999e-06 -1.32283e-06 0)
(4.7207e-06 -1.23426e-06 0)
(5.01438e-06 -1.15993e-06 0)
(5.29706e-06 -1.09702e-06 0)
(5.57103e-06 -1.04331e-06 0)
(5.83674e-06 -9.96282e-07 0)
(6.09521e-06 -9.54114e-07 0)
(6.34726e-06 -9.15116e-07 0)
(6.59372e-06 -8.77886e-07 0)
(6.83524e-06 -8.41165e-07 0)
(7.07243e-06 -8.03834e-07 0)
(7.30576e-06 -7.64863e-07 0)
(7.53567e-06 -7.23278e-07 0)
(7.76251e-06 -6.78132e-07 0)
(7.98653e-06 -6.28391e-07 0)
(8.20784e-06 -5.72987e-07 0)
(8.42677e-06 -5.1062e-07 0)
(8.64302e-06 -4.39979e-07 0)
(8.85742e-06 -3.59142e-07 0)
(9.0688e-06 -2.67045e-07 0)
(4.09213e-06 -1.54698e-06 0)
(4.41248e-06 -1.43915e-06 0)
(4.72195e-06 -1.35141e-06 0)
(5.02057e-06 -1.27557e-06 0)
(5.30935e-06 -1.21004e-06 0)
(5.58912e-06 -1.15222e-06 0)
(5.86083e-06 -1.10022e-06 0)
(6.12532e-06 -1.05229e-06 0)
(6.38337e-06 -1.0069e-06 0)
(6.63567e-06 -9.62686e-07 0)
(6.88286e-06 -9.18409e-07 0)
(7.12545e-06 -8.72931e-07 0)
(7.36396e-06 -8.25167e-07 0)
(7.59878e-06 -7.74059e-07 0)
(7.83022e-06 -7.18479e-07 0)
(8.05852e-06 -6.57264e-07 0)
(8.28406e-06 -5.89053e-07 0)
(8.50677e-06 -5.12454e-07 0)
(8.72748e-06 -4.25512e-07 0)
(8.9454e-06 -3.27091e-07 0)
(3.90494e-06 -1.72944e-06 0)
(4.22736e-06 -1.6173e-06 0)
(4.53947e-06 -1.52188e-06 0)
(4.84221e-06 -1.43797e-06 0)
(5.13573e-06 -1.36406e-06 0)
(5.42058e-06 -1.29797e-06 0)
(5.69745e-06 -1.23792e-06 0)
(5.96699e-06 -1.18223e-06 0)
(6.22987e-06 -1.12944e-06 0)
(6.48669e-06 -1.07817e-06 0)
(6.73805e-06 -1.02721e-06 0)
(6.98445e-06 -9.75394e-07 0)
(7.22641e-06 -9.21605e-07 0)
(7.46432e-06 -8.64761e-07 0)
(7.69851e-06 -8.0372e-07 0)
(7.92934e-06 -7.37308e-07 0)
(8.15717e-06 -6.64196e-07 0)
(8.38214e-06 -5.83019e-07 0)
(8.60504e-06 -4.91913e-07 0)
(8.82542e-06 -3.89766e-07 0)
(3.74516e-06 -1.90438e-06 0)
(4.06433e-06 -1.78977e-06 0)
(4.3759e-06 -1.68947e-06 0)
(4.67933e-06 -1.59944e-06 0)
(4.97468e-06 -1.51862e-06 0)
(5.26201e-06 -1.4453e-06 0)
(5.54182e-06 -1.3779e-06 0)
(5.8145e-06 -1.31494e-06 0)
(6.08057e-06 -1.25505e-06 0)
(6.34053e-06 -1.19695e-06 0)
(6.59492e-06 -1.13943e-06 0)
(6.84418e-06 -1.08134e-06 0)
(7.0888e-06 -1.02159e-06 0)
(7.32917e-06 -9.59087e-07 0)
(7.56563e-06 -8.927e-07 0)
(7.79859e-06 -8.21271e-07 0)
(8.02844e-06 -7.43525e-07 0)
(8.25545e-06 -6.58163e-07 0)
(8.48037e-06 -5.63427e-07 0)
(8.70308e-06 -4.58266e-07 0)
(3.60431e-06 -2.07286e-06 0)
(3.91882e-06 -1.95705e-06 0)
(4.22768e-06 -1.85314e-06 0)
(4.52964e-06 -1.75815e-06 0)
(4.82468e-06 -1.67145e-06 0)
(5.11256e-06 -1.59173e-06 0)
(5.39353e-06 -1.51769e-06 0)
(5.66778e-06 -1.44803e-06 0)
(5.9357e-06 -1.38151e-06 0)
(6.19766e-06 -1.31694e-06 0)
(6.45409e-06 -1.25317e-06 0)
(6.70539e-06 -1.18911e-06 0)
(6.95198e-06 -1.12367e-06 0)
(7.19426e-06 -1.05578e-06 0)
(7.43255e-06 -9.84351e-07 0)
(7.6673e-06 -9.08266e-07 0)
(7.8989e-06 -8.26322e-07 0)
(8.12774e-06 -7.37296e-07 0)
(8.35451e-06 -6.39555e-07 0)
(8.57937e-06 -5.32165e-07 0)
(3.48013e-06 -2.23427e-06 0)
(3.78878e-06 -2.1182e-06 0)
(4.09339e-06 -2.01195e-06 0)
(4.39226e-06 -1.91324e-06 0)
(4.68536e-06 -1.8218e-06 0)
(4.9722e-06 -1.73667e-06 0)
(5.25286e-06 -1.65681e-06 0)
(5.52735e-06 -1.58112e-06 0)
(5.79592e-06 -1.50853e-06 0)
(6.05883e-06 -1.43794e-06 0)
(6.31641e-06 -1.36831e-06 0)
(6.56896e-06 -1.2986e-06 0)
(6.8169e-06 -1.22776e-06 0)
(7.06055e-06 -1.15479e-06 0)
(7.30025e-06 -1.07863e-06 0)
(7.53646e-06 -9.98237e-07 0)
(7.76955e-06 -9.12478e-07 0)
(7.99999e-06 -8.20227e-07 0)
(8.22842e-06 -7.20011e-07 0)
(8.45526e-06 -6.11076e-07 0)
(3.36963e-06 -2.38872e-06 0)
(3.67181e-06 -2.27311e-06 0)
(3.97125e-06 -2.16541e-06 0)
(4.26592e-06 -2.06395e-06 0)
(4.55591e-06 -1.96871e-06 0)
(4.8405e-06 -1.87903e-06 0)
(5.11968e-06 -1.79413e-06 0)
(5.3933e-06 -1.71311e-06 0)
(5.66151e-06 -1.63504e-06 0)
(5.92447e-06 -1.55898e-06 0)
(6.1824e-06 -1.48396e-06 0)
(6.43553e-06 -1.40901e-06 0)
(6.68422e-06 -1.33318e-06 0)
(6.92876e-06 -1.2555e-06 0)
(7.16947e-06 -1.175e-06 0)
(7.4068e-06 -1.09069e-06 0)
(7.64111e-06 -1.00153e-06 0)
(7.87291e-06 -9.06519e-07 0)
(8.10283e-06 -8.04365e-07 0)
(8.33143e-06 -6.94481e-07 0)
(3.27058e-06 -2.53648e-06 0)
(3.56593e-06 -2.42181e-06 0)
(3.85958e-06 -2.31337e-06 0)
(4.14934e-06 -2.20995e-06 0)
(4.43536e-06 -2.11176e-06 0)
(4.71681e-06 -2.01836e-06 0)
(4.9936e-06 -1.92918e-06 0)
(5.2655e-06 -1.84353e-06 0)
(5.53253e-06 -1.76061e-06 0)
(5.79477e-06 -1.67963e-06 0)
(6.05237e-06 -1.59972e-06 0)
(6.30547e-06 -1.52e-06 0)
(6.5544e-06 -1.43959e-06 0)
(6.79939e-06 -1.35761e-06 0)
(7.04075e-06 -1.27314e-06 0)
(7.27889e-06 -1.18531e-06 0)
(7.51417e-06 -1.09316e-06 0)
(7.74711e-06 -9.95816e-07 0)
(7.97833e-06 -8.92206e-07 0)
(8.20844e-06 -7.81817e-07 0)
(3.18088e-06 -2.67786e-06 0)
(3.46933e-06 -2.56447e-06 0)
(3.75683e-06 -2.45581e-06 0)
(4.04125e-06 -2.35109e-06 0)
(4.32272e-06 -2.25065e-06 0)
(4.60039e-06 -2.15422e-06 0)
(4.87413e-06 -2.06146e-06 0)
(5.14362e-06 -1.97182e-06 0)
(5.40882e-06 -1.88468e-06 0)
(5.66972e-06 -1.79934e-06 0)
(5.92641e-06 -1.71506e-06 0)
(6.17899e-06 -1.63106e-06 0)
(6.42771e-06 -1.54652e-06 0)
(6.67277e-06 -1.46066e-06 0)
(6.91444e-06 -1.37265e-06 0)
(7.15312e-06 -1.28169e-06 0)
(7.38913e-06 -1.18697e-06 0)
(7.62302e-06 -1.08771e-06 0)
(7.85534e-06 -9.83054e-07 0)
(8.08674e-06 -8.72502e-07 0)
(3.09869e-06 -2.81332e-06 0)
(3.38027e-06 -2.70139e-06 0)
(3.6615e-06 -2.59291e-06 0)
(3.94033e-06 -2.48738e-06 0)
(4.2169e-06 -2.38525e-06 0)
(4.49037e-06 -2.28642e-06 0)
(4.76058e-06 -2.19069e-06 0)
(5.02717e-06 -2.09769e-06 0)
(5.29004e-06 -2.0069e-06 0)
(5.54913e-06 -1.91777e-06 0)
(5.80447e-06 -1.82965e-06 0)
(6.0561e-06 -1.74185e-06 0)
(6.30426e-06 -1.65365e-06 0)
(6.54907e-06 -1.56435e-06 0)
(6.79078e-06 -1.4732e-06 0)
(7.02975e-06 -1.37952e-06 0)
(7.26629e-06 -1.28262e-06 0)
(7.50095e-06 -1.18183e-06 0)
(7.73414e-06 -1.07644e-06 0)
(7.96664e-06 -9.6605e-07 0)
(3.02237e-06 -2.94327e-06 0)
(3.29721e-06 -2.83291e-06 0)
(3.57219e-06 -2.72486e-06 0)
(3.84534e-06 -2.6189e-06 0)
(4.11683e-06 -2.51555e-06 0)
(4.38586e-06 -2.41483e-06 0)
(4.65224e-06 -2.3167e-06 0)
(4.91559e-06 -2.22089e-06 0)
(5.17577e-06 -2.12701e-06 0)
(5.4327e-06 -2.03463e-06 0)
(5.68636e-06 -1.94318e-06 0)
(5.93674e-06 -1.85207e-06 0)
(6.18404e-06 -1.76067e-06 0)
(6.42833e-06 -1.66837e-06 0)
(6.66985e-06 -1.57451e-06 0)
(6.90893e-06 -1.47852e-06 0)
(7.14581e-06 -1.3798e-06 0)
(7.38103e-06 -1.27781e-06 0)
(7.61494e-06 -1.17193e-06 0)
(7.84832e-06 -1.06199e-06 0)
(2.95048e-06 -3.06818e-06 0)
(3.21879e-06 -2.95941e-06 0)
(3.4876e-06 -2.85196e-06 0)
(3.7551e-06 -2.74584e-06 0)
(4.02147e-06 -2.64165e-06 0)
(4.28595e-06 -2.5395e-06 0)
(4.54834e-06 -2.43945e-06 0)
(4.80824e-06 -2.34135e-06 0)
(5.06552e-06 -2.2449e-06 0)
(5.32006e-06 -2.14976e-06 0)
(5.57179e-06 -2.05548e-06 0)
(5.8207e-06 -1.96153e-06 0)
(6.06692e-06 -1.86738e-06 0)
(6.31051e-06 -1.7725e-06 0)
(6.55165e-06 -1.67633e-06 0)
(6.79066e-06 -1.57839e-06 0)
(7.02774e-06 -1.47819e-06 0)
(7.26334e-06 -1.37524e-06 0)
(7.49782e-06 -1.26913e-06 0)
(7.73189e-06 -1.15979e-06 0)
(2.88173e-06 -3.18848e-06 0)
(3.14376e-06 -3.08123e-06 0)
(3.40656e-06 -2.97448e-06 0)
(3.66854e-06 -2.86843e-06 0)
(3.92984e-06 -2.76371e-06 0)
(4.18975e-06 -2.6605e-06 0)
(4.44809e-06 -2.55896e-06 0)
(4.70447e-06 -2.45901e-06 0)
(4.95873e-06 -2.36047e-06 0)
(5.21074e-06 -2.26305e-06 0)
(5.46041e-06 -2.16638e-06 0)
(5.7077e-06 -2.07004e-06 0)
(5.9527e-06 -1.97357e-06 0)
(6.19545e-06 -1.87652e-06 0)
(6.4361e-06 -1.77844e-06 0)
(6.67491e-06 -1.6789e-06 0)
(6.91202e-06 -1.57748e-06 0)
(7.14788e-06 -1.47383e-06 0)
(7.38278e-06 -1.36771e-06 0)
(7.61738e-06 -1.25901e-06 0)
(2.81497e-06 -3.30454e-06 0)
(3.07097e-06 -3.19872e-06 0)
(3.328e-06 -3.09274e-06 0)
(3.58462e-06 -2.98693e-06 0)
(3.84097e-06 -2.88193e-06 0)
(4.09639e-06 -2.77797e-06 0)
(4.35071e-06 -2.67531e-06 0)
(4.60358e-06 -2.57392e-06 0)
(4.8548e-06 -2.47371e-06 0)
(5.10426e-06 -2.37444e-06 0)
(5.35181e-06 -2.27583e-06 0)
(5.5974e-06 -2.17753e-06 0)
(5.84111e-06 -2.07915e-06 0)
(6.08294e-06 -1.98034e-06 0)
(6.323e-06 -1.88068e-06 0)
(6.5615e-06 -1.77984e-06 0)
(6.79854e-06 -1.67747e-06 0)
(7.03455e-06 -1.57332e-06 0)
(7.26973e-06 -1.46731e-06 0)
(7.50471e-06 -1.35933e-06 0)
(2.74913e-06 -3.4167e-06 0)
(2.99938e-06 -3.31226e-06 0)
(3.25086e-06 -3.20706e-06 0)
(3.50234e-06 -3.10159e-06 0)
(3.7539e-06 -2.9965e-06 0)
(4.005e-06 -2.89208e-06 0)
(4.25544e-06 -2.78863e-06 0)
(4.50489e-06 -2.68618e-06 0)
(4.75315e-06 -2.58469e-06 0)
(5.00007e-06 -2.48397e-06 0)
(5.24552e-06 -2.38382e-06 0)
(5.48942e-06 -2.28395e-06 0)
(5.73182e-06 -2.18404e-06 0)
(5.9727e-06 -2.0838e-06 0)
(6.21211e-06 -1.98288e-06 0)
(6.45022e-06 -1.88099e-06 0)
(6.68711e-06 -1.7779e-06 0)
(6.92318e-06 -1.67346e-06 0)
(7.15854e-06 -1.56759e-06 0)
(7.39377e-06 -1.46035e-06 0)
(2.6831e-06 -3.52534e-06 0)
(2.92789e-06 -3.42215e-06 0)
(3.1741e-06 -3.31774e-06 0)
(3.42068e-06 -3.21271e-06 0)
(3.66772e-06 -3.10772e-06 0)
(3.91473e-06 -3.00309e-06 0)
(4.1615e-06 -2.89914e-06 0)
(4.40769e-06 -2.79594e-06 0)
(4.65313e-06 -2.69349e-06 0)
(4.89764e-06 -2.59168e-06 0)
(5.14108e-06 -2.49037e-06 0)
(5.38336e-06 -2.38931e-06 0)
(5.62449e-06 -2.28823e-06 0)
(5.86442e-06 -2.18688e-06 0)
(6.10315e-06 -2.08496e-06 0)
(6.34084e-06 -1.98227e-06 0)
(6.57756e-06 -1.87867e-06 0)
(6.8136e-06 -1.77405e-06 0)
(7.04908e-06 -1.66837e-06 0)
(7.28445e-06 -1.56181e-06 0)
(2.61585e-06 -3.63071e-06 0)
(2.85545e-06 -3.52878e-06 0)
(3.09662e-06 -3.42506e-06 0)
(3.33866e-06 -3.32055e-06 0)
(3.58151e-06 -3.21583e-06 0)
(3.82474e-06 -3.11121e-06 0)
(4.06812e-06 -3.007e-06 0)
(4.31132e-06 -2.90336e-06 0)
(4.55414e-06 -2.80028e-06 0)
(4.79642e-06 -2.69772e-06 0)
(5.03802e-06 -2.59558e-06 0)
(5.27879e-06 -2.49364e-06 0)
(5.51873e-06 -2.39168e-06 0)
(5.75772e-06 -2.2895e-06 0)
(5.9958e-06 -2.18684e-06 0)
(6.23309e-06 -2.08358e-06 0)
(6.46961e-06 -1.97963e-06 0)
(6.70558e-06 -1.87486e-06 0)
(6.94108e-06 -1.76942e-06 0)
(7.1765e-06 -1.66347e-06 0)
(2.5463e-06 -3.73321e-06 0)
(2.78081e-06 -3.63216e-06 0)
(3.01722e-06 -3.52938e-06 0)
(3.25528e-06 -3.4256e-06 0)
(3.49433e-06 -3.32125e-06 0)
(3.73419e-06 -3.2168e-06 0)
(3.97453e-06 -3.11256e-06 0)
(4.21506e-06 -3.00871e-06 0)
(4.45558e-06 -2.90528e-06 0)
(4.69592e-06 -2.80226e-06 0)
(4.93589e-06 -2.69958e-06 0)
(5.17531e-06 -2.59704e-06 0)
(5.41415e-06 -2.49445e-06 0)
(5.65231e-06 -2.39167e-06 0)
(5.8898e-06 -2.28852e-06 0)
(6.12673e-06 -2.18487e-06 0)
(6.36302e-06 -2.08063e-06 0)
(6.59886e-06 -1.97578e-06 0)
(6.83431e-06 -1.87058e-06 0)
(7.06982e-06 -1.76514e-06 0)
(2.47278e-06 -3.83271e-06 0)
(2.70297e-06 -3.73271e-06 0)
(2.93547e-06 -3.63105e-06 0)
(3.1697e-06 -3.528e-06 0)
(3.40543e-06 -3.42421e-06 0)
(3.64232e-06 -3.32011e-06 0)
(3.88007e-06 -3.21605e-06 0)
(4.11836e-06 -3.11223e-06 0)
(4.35698e-06 -3.00871e-06 0)
(4.5957e-06 -2.90548e-06 0)
(4.83428e-06 -2.80248e-06 0)
(5.07254e-06 -2.69958e-06 0)
(5.31046e-06 -2.59663e-06 0)
(5.54795e-06 -2.49347e-06 0)
(5.78494e-06 -2.38997e-06 0)
(6.02144e-06 -2.28605e-06 0)
(6.25744e-06 -2.18161e-06 0)
(6.49323e-06 -2.07676e-06 0)
(6.72869e-06 -1.97173e-06 0)
(6.96404e-06 -1.86669e-06 0)
(2.39433e-06 -3.93032e-06 0)
(2.62057e-06 -3.83154e-06 0)
(2.84952e-06 -3.73073e-06 0)
(3.08062e-06 -3.62848e-06 0)
(3.31364e-06 -3.52534e-06 0)
(3.54818e-06 -3.42175e-06 0)
(3.78395e-06 -3.31804e-06 0)
(4.02061e-06 -3.21442e-06 0)
(4.2578e-06 -3.11096e-06 0)
(4.49526e-06 -3.00769e-06 0)
(4.73279e-06 -2.90457e-06 0)
(4.97024e-06 -2.80149e-06 0)
(5.20749e-06 -2.6983e-06 0)
(5.44433e-06 -2.59494e-06 0)
(5.68081e-06 -2.49121e-06 0)
(5.91702e-06 -2.38707e-06 0)
(6.15283e-06 -2.28253e-06 0)
(6.38842e-06 -2.17768e-06 0)
(6.62384e-06 -2.07271e-06 0)
(6.85914e-06 -1.96797e-06 0)
(2.30992e-06 -4.02519e-06 0)
(2.5327e-06 -3.92779e-06 0)
(2.75869e-06 -3.82823e-06 0)
(2.98735e-06 -3.72701e-06 0)
(3.21838e-06 -3.62475e-06 0)
(3.45135e-06 -3.52186e-06 0)
(3.68585e-06 -3.41869e-06 0)
(3.9214e-06 -3.31545e-06 0)
(4.15769e-06 -3.21222e-06 0)
(4.39448e-06 -3.10905e-06 0)
(4.63142e-06 -3.00596e-06 0)
(4.86826e-06 -2.90285e-06 0)
(5.10496e-06 -2.79954e-06 0)
(5.34139e-06 -2.69602e-06 0)
(5.57745e-06 -2.5922e-06 0)
(5.81327e-06 -2.48794e-06 0)
(6.04886e-06 -2.38337e-06 0)
(6.28426e-06 -2.27844e-06 0)
(6.51962e-06 -2.1735e-06 0)
(6.75483e-06 -2.06882e-06 0)
(1.69909e-07 -3.44836e-06 0)
(5.1202e-07 -3.39781e-06 0)
(8.60991e-07 -3.29864e-06 0)
(1.22068e-06 -3.15495e-06 0)
(1.59422e-06 -2.97212e-06 0)
(1.98356e-06 -2.75711e-06 0)
(2.38944e-06 -2.51768e-06 0)
(2.81116e-06 -2.26206e-06 0)
(3.24736e-06 -1.99847e-06 0)
(3.69443e-06 -1.73344e-06 0)
(1.65276e-07 -3.50549e-06 0)
(4.97767e-07 -3.45934e-06 0)
(8.3594e-07 -3.36869e-06 0)
(1.18303e-06 -3.23708e-06 0)
(1.54168e-06 -3.06905e-06 0)
(1.91353e-06 -2.87049e-06 0)
(2.29923e-06 -2.64805e-06 0)
(2.69807e-06 -2.40881e-06 0)
(3.10812e-06 -2.16029e-06 0)
(3.52661e-06 -1.90807e-06 0)
(1.61138e-07 -3.56411e-06 0)
(4.85019e-07 -3.52195e-06 0)
(8.13499e-07 -3.439e-06 0)
(1.14918e-06 -3.3184e-06 0)
(1.49426e-06 -3.16406e-06 0)
(1.8501e-06 -2.98104e-06 0)
(2.21734e-06 -2.77508e-06 0)
(2.5958e-06 -2.55209e-06 0)
(2.984e-06 -2.31869e-06 0)
(3.3802e-06 -2.07852e-06 0)
(1.57425e-07 -3.62423e-06 0)
(4.73618e-07 -3.58545e-06 0)
(7.93645e-07 -3.50905e-06 0)
(1.11958e-06 -3.39783e-06 0)
(1.45327e-06 -3.25522e-06 0)
(1.79579e-06 -3.08562e-06 0)
(2.14759e-06 -2.89417e-06 0)
(2.50853e-06 -2.68605e-06 0)
(2.87727e-06 -2.46747e-06 0)
(3.25239e-06 -2.24121e-06 0)
(1.54011e-07 -3.6858e-06 0)
(4.63075e-07 -3.65004e-06 0)
(7.75347e-07 -3.5795e-06 0)
(1.09245e-06 -3.47671e-06 0)
(1.41594e-06 -3.34473e-06 0)
(1.74668e-06 -3.18743e-06 0)
(2.08509e-06 -3.00941e-06 0)
(2.43103e-06 -2.81507e-06 0)
(2.78351e-06 -2.61009e-06 0)
(3.14058e-06 -2.39695e-06 0)
(1.50821e-07 -3.74873e-06 0)
(4.53293e-07 -3.71557e-06 0)
(7.58455e-07 -3.65015e-06 0)
(1.06763e-06 -3.55472e-06 0)
(1.38209e-06 -3.43205e-06 0)
(1.70256e-06 -3.28564e-06 0)
(2.02929e-06 -3.11965e-06 0)
(2.36206e-06 -2.93799e-06 0)
(2.70034e-06 -2.7458e-06 0)
(3.04171e-06 -2.54557e-06 0)
(1.47747e-07 -3.81294e-06 0)
(4.43965e-07 -3.78209e-06 0)
(7.42427e-07 -3.72125e-06 0)
(1.04427e-06 -3.63239e-06 0)
(1.35052e-06 -3.51809e-06 0)
(1.66179e-06 -3.3815e-06 0)
(1.97829e-06 -3.22638e-06 0)
(2.29962e-06 -3.05627e-06 0)
(2.62564e-06 -2.87573e-06 0)
(2.9535e-06 -2.6875e-06 0)
(1.448e-07 -3.87826e-06 0)
(4.34992e-07 -3.84946e-06 0)
(7.27086e-07 -3.79268e-06 0)
(1.02209e-06 -3.70964e-06 0)
(1.32082e-06 -3.60279e-06 0)
(1.62374e-06 -3.47498e-06 0)
(1.9311e-06 -3.32966e-06 0)
(2.24233e-06 -3.17008e-06 0)
(2.55758e-06 -3.00026e-06 0)
(2.87382e-06 -2.82316e-06 0)
(1.41928e-07 -3.94458e-06 0)
(4.26209e-07 -3.91762e-06 0)
(7.12155e-07 -3.86446e-06 0)
(1.00063e-06 -3.78666e-06 0)
(1.29233e-06 -3.68652e-06 0)
(1.58762e-06 -3.56661e-06 0)
(1.88671e-06 -3.43013e-06 0)
(2.18895e-06 -3.2801e-06 0)
(2.49468e-06 -3.12005e-06 0)
(2.80085e-06 -2.95311e-06 0)
(1.39056e-07 -4.01178e-06 0)
(4.17504e-07 -3.98643e-06 0)
(6.97451e-07 -3.93652e-06 0)
(9.79639e-07 -3.86343e-06 0)
(1.26465e-06 -3.76932e-06 0)
(1.55283e-06 -3.65653e-06 0)
(1.84432e-06 -3.52803e-06 0)
(2.13845e-06 -3.38667e-06 0)
(2.43564e-06 -3.23555e-06 0)
(2.73299e-06 -3.07788e-06 0)
(1.36141e-07 -4.07968e-06 0)
(4.08785e-07 -4.05578e-06 0)
(6.82773e-07 -4.00881e-06 0)
(9.58802e-07 -3.93999e-06 0)
(1.23737e-06 -3.85132e-06 0)
(1.51879e-06 -3.74497e-06 0)
(1.8032e-06 -3.6237e-06 0)
(2.08991e-06 -3.49019e-06 0)
(2.37937e-06 -3.34721e-06 0)
(2.66888e-06 -3.19794e-06 0)
(1.33189e-07 -4.14809e-06 0)
(3.99974e-07 -4.12553e-06 0)
(6.6796e-07 -4.08123e-06 0)
(9.3786e-07 -4.01627e-06 0)
(1.21012e-06 -3.93252e-06 0)
(1.48502e-06 -3.83203e-06 0)
(1.76271e-06 -3.71732e-06 0)
(2.04253e-06 -3.59095e-06 0)
(2.32488e-06 -3.45537e-06 0)
(2.60735e-06 -3.31371e-06 0)
(1.30183e-07 -4.21686e-06 0)
(3.90952e-07 -4.19553e-06 0)
(6.52823e-07 -4.15366e-06 0)
(9.16536e-07 -4.09222e-06 0)
(1.18253e-06 -4.01296e-06 0)
(1.45104e-06 -3.9178e-06 0)
(1.72226e-06 -3.80907e-06 0)
(1.99554e-06 -3.68919e-06 0)
(2.27127e-06 -3.56035e-06 0)
(2.54733e-06 -3.42562e-06 0)
(1.27067e-07 -4.28578e-06 0)
(3.81573e-07 -4.26558e-06 0)
(6.37154e-07 -4.22593e-06 0)
(8.9455e-07 -4.16771e-06 0)
(1.15422e-06 -4.09256e-06 0)
(1.41638e-06 -4.00229e-06 0)
(1.68124e-06 -3.89904e-06 0)
(1.94824e-06 -3.78506e-06 0)
(2.2177e-06 -3.66243e-06 0)
(2.48779e-06 -3.53399e-06 0)
(1.2378e-07 -4.35468e-06 0)
(3.71703e-07 -4.33552e-06 0)
(6.20744e-07 -4.29791e-06 0)
(8.71608e-07 -4.24268e-06 0)
(1.1248e-06 -4.17133e-06 0)
(1.38052e-06 -4.08557e-06 0)
(1.63903e-06 -3.98734e-06 0)
(1.89987e-06 -3.87879e-06 0)
(2.16329e-06 -3.76185e-06 0)
(2.42771e-06 -3.63915e-06 0)
(1.20282e-07 -4.4232e-06 0)
(3.61239e-07 -4.40502e-06 0)
(6.03391e-07 -4.36931e-06 0)
(8.47404e-07 -4.31686e-06 0)
(1.09383e-06 -4.24904e-06 0)
(1.34295e-06 -4.16744e-06 0)
(1.59501e-06 -4.07387e-06 0)
(1.84971e-06 -3.97037e-06 0)
(2.10716e-06 -3.85871e-06 0)
(2.3661e-06 -3.74127e-06 0)
(1.16539e-07 -4.49124e-06 0)
(3.50051e-07 -4.474e-06 0)
(5.84838e-07 -4.44007e-06 0)
(8.21567e-07 -4.39024e-06 0)
(1.06087e-06 -4.32574e-06 0)
(1.30306e-06 -4.24805e-06 0)
(1.54848e-06 -4.15886e-06 0)
(1.79687e-06 -4.0601e-06 0)
(2.04834e-06 -3.9533e-06 0)
(2.30179e-06 -3.84079e-06 0)
(1.12507e-07 -4.55808e-06 0)
(3.37981e-07 -4.54172e-06 0)
(5.64808e-07 -4.5095e-06 0)
(7.93712e-07 -4.46216e-06 0)
(1.02539e-06 -4.40081e-06 0)
(1.26026e-06 -4.32685e-06 0)
(1.49867e-06 -4.24183e-06 0)
(1.74046e-06 -4.14755e-06 0)
(1.98572e-06 -4.04539e-06 0)
(2.23366e-06 -3.9375e-06 0)
(1.08099e-07 -4.62405e-06 0)
(3.24767e-07 -4.60856e-06 0)
(5.42886e-07 -4.57799e-06 0)
(7.63268e-07 -4.53304e-06 0)
(9.86678e-07 -4.47475e-06 0)
(1.21363e-06 -4.4044e-06 0)
(1.44452e-06 -4.32342e-06 0)
(1.6793e-06 -4.23341e-06 0)
(1.91806e-06 -4.13574e-06 0)
(2.16027e-06 -4.03227e-06 0)
(1.03268e-07 -4.68721e-06 0)
(3.10298e-07 -4.67255e-06 0)
(5.18884e-07 -4.64363e-06 0)
(7.2996e-07 -4.60106e-06 0)
(9.44377e-07 -4.54581e-06 0)
(1.16273e-06 -4.47906e-06 0)
(1.38547e-06 -4.40209e-06 0)
(1.61271e-06 -4.31636e-06 0)
(1.84457e-06 -4.22318e-06 0)
(2.08081e-06 -4.12416e-06 0)
)


// ************************************************************************* //
