/*--------------------------------*- C++ -*----------------------------------*\
| =========                 |                                                 |
| \\      /  F ield         | foam-extend: Open Source CFD                    |
|  \\    /   O peration     | Version:     4.1                                |
|   \\  /    A nd           | Web:         http://www.foam-extend.org         |
|    \\/     M anipulation  |                                                 |
\*---------------------------------------------------------------------------*/
FoamFile
{
    version     2.0;
    format      ascii;
    class       vectorField;
    location    "8";
    object      solidsCellD_iteration1;
}
// * * * * * * * * * * * * * * * * * * * * * * * * * * * * * * * * * * * * * //


1000
(
(3.976e-06 -1.66147e-06 0)
(3.75737e-06 -1.54581e-06 0)
(3.61835e-06 -1.47209e-06 0)
(3.5396e-06 -1.43721e-06 0)
(3.50231e-06 -1.42444e-06 0)
(3.49535e-06 -1.42884e-06 0)
(3.51067e-06 -1.44442e-06 0)
(3.5428e-06 -1.46836e-06 0)
(3.58695e-06 -1.49822e-06 0)
(3.64032e-06 -1.53277e-06 0)
(3.59576e-06 -1.81474e-06 0)
(3.36266e-06 -1.73385e-06 0)
(3.21443e-06 -1.68218e-06 0)
(3.12877e-06 -1.66231e-06 0)
(3.086e-06 -1.65948e-06 0)
(3.07392e-06 -1.67098e-06 0)
(3.08416e-06 -1.6917e-06 0)
(3.11083e-06 -1.71944e-06 0)
(3.14914e-06 -1.75246e-06 0)
(3.19588e-06 -1.78822e-06 0)
(3.20045e-06 -1.96007e-06 0)
(2.96215e-06 -1.91804e-06 0)
(2.8106e-06 -1.89095e-06 0)
(2.72174e-06 -1.88766e-06 0)
(2.67578e-06 -1.89568e-06 0)
(2.66e-06 -1.91468e-06 0)
(2.66604e-06 -1.94061e-06 0)
(2.68795e-06 -1.97199e-06 0)
(2.72107e-06 -2.00777e-06 0)
(2.76233e-06 -2.04522e-06 0)
(2.79306e-06 -2.09484e-06 0)
(2.55952e-06 -2.09361e-06 0)
(2.41097e-06 -2.09231e-06 0)
(2.32294e-06 -2.10626e-06 0)
(2.27628e-06 -2.12553e-06 0)
(2.25841e-06 -2.1522e-06 0)
(2.26127e-06 -2.18331e-06 0)
(2.27904e-06 -2.21833e-06 0)
(2.30747e-06 -2.25677e-06 0)
(2.34333e-06 -2.29616e-06 0)
(2.37626e-06 -2.21641e-06 0)
(2.15755e-06 -2.25561e-06 0)
(2.01838e-06 -2.27993e-06 0)
(1.93527e-06 -2.31091e-06 0)
(1.89046e-06 -2.34118e-06 0)
(1.87209e-06 -2.37532e-06 0)
(1.8727e-06 -2.41145e-06 0)
(1.88685e-06 -2.45e-06 0)
(1.9108e-06 -2.49099e-06 0)
(1.94132e-06 -2.53246e-06 0)
(1.95233e-06 -2.32225e-06 0)
(1.75805e-06 -2.3993e-06 0)
(1.63443e-06 -2.44755e-06 0)
(1.56019e-06 -2.49443e-06 0)
(1.5197e-06 -2.53498e-06 0)
(1.50229e-06 -2.57609e-06 0)
(1.50152e-06 -2.61685e-06 0)
(1.51248e-06 -2.65868e-06 0)
(1.53206e-06 -2.702e-06 0)
(1.55715e-06 -2.74555e-06 0)
(1.52319e-06 -2.41001e-06 0)
(1.36204e-06 -2.52021e-06 0)
(1.25952e-06 -2.58945e-06 0)
(1.1977e-06 -2.65024e-06 0)
(1.16368e-06 -2.69978e-06 0)
(1.14861e-06 -2.74697e-06 0)
(1.14718e-06 -2.79177e-06 0)
(1.15532e-06 -2.8365e-06 0)
(1.17055e-06 -2.88187e-06 0)
(1.19013e-06 -2.92734e-06 0)
(1.09042e-06 -2.47768e-06 0)
(9.69719e-07 -2.61451e-06 0)
(8.92943e-07 -2.70063e-06 0)
(8.46518e-07 -2.77258e-06 0)
(8.20811e-07 -2.82932e-06 0)
(8.09182e-07 -2.88138e-06 0)
(8.07706e-07 -2.92943e-06 0)
(8.13302e-07 -2.97652e-06 0)
(8.24184e-07 -3.02351e-06 0)
(8.38198e-07 -3.07056e-06 0)
(6.55301e-07 -2.52368e-06 0)
(5.80561e-07 -2.67913e-06 0)
(5.33008e-07 -2.77707e-06 0)
(5.04182e-07 -2.85684e-06 0)
(4.88147e-07 -2.91861e-06 0)
(4.80805e-07 -2.97408e-06 0)
(4.79733e-07 -3.0244e-06 0)
(4.82998e-07 -3.07316e-06 0)
(4.89516e-07 -3.12132e-06 0)
(4.97925e-07 -3.16955e-06 0)
(2.18861e-07 -2.54685e-06 0)
(1.93511e-07 -2.71188e-06 0)
(1.77366e-07 -2.81594e-06 0)
(1.67568e-07 -2.89975e-06 0)
(1.621e-07 -2.96412e-06 0)
(1.5956e-07 -3.02135e-06 0)
(1.59141e-07 -3.07283e-06 0)
(1.60197e-07 -3.12243e-06 0)
(1.6236e-07 -3.17118e-06 0)
(1.65154e-07 -3.22001e-06 0)
(6.19626e-06 -7.58679e-08 0)
(6.25274e-06 -5.47435e-08 0)
(6.28804e-06 -4.13225e-08 0)
(6.32658e-06 -3.34023e-08 0)
(6.36853e-06 -2.89643e-08 0)
(6.41968e-06 -2.68672e-08 0)
(6.47975e-06 -2.634e-08 0)
(6.54941e-06 -2.68448e-08 0)
(6.62836e-06 -2.80858e-08 0)
(6.71559e-06 -2.95797e-08 0)
(6.15057e-06 -2.27567e-07 0)
(6.19789e-06 -1.65441e-07 0)
(6.22744e-06 -1.26053e-07 0)
(6.26217e-06 -1.02879e-07 0)
(6.30163e-06 -8.99546e-08 0)
(6.35101e-06 -8.39051e-08 0)
(6.4098e-06 -8.24695e-08 0)
(6.4784e-06 -8.40712e-08 0)
(6.55647e-06 -8.78231e-08 0)
(6.64272e-06 -9.23291e-08 0)
(6.05928e-06 -3.80581e-07 0)
(6.08922e-06 -2.8083e-07 0)
(6.10774e-06 -2.17636e-07 0)
(6.13517e-06 -1.80556e-07 0)
(6.16984e-06 -1.5997e-07 0)
(6.21584e-06 -1.50477e-07 0)
(6.27218e-06 -1.48405e-07 0)
(6.33879e-06 -1.51235e-07 0)
(6.41524e-06 -1.57508e-07 0)
(6.4997e-06 -1.65051e-07 0)
(5.924e-06 -5.35508e-07 0)
(5.92922e-06 -4.03558e-07 0)
(5.93205e-06 -3.19966e-07 0)
(5.9491e-06 -2.71128e-07 0)
(5.9769e-06 -2.44179e-07 0)
(6.01803e-06 -2.32018e-07 0)
(6.07084e-06 -2.29729e-07 0)
(6.13461e-06 -2.34003e-07 0)
(6.20874e-06 -2.42825e-07 0)
(6.29065e-06 -2.53451e-07 0)
(5.74683e-06 -6.92783e-07 0)
(5.72144e-06 -5.35822e-07 0)
(5.70487e-06 -4.36364e-07 0)
(5.70902e-06 -3.78628e-07 0)
(5.72833e-06 -3.4705e-07 0)
(5.76345e-06 -3.33261e-07 0)
(5.81191e-06 -3.31318e-07 0)
(5.87217e-06 -3.37321e-07 0)
(5.9434e-06 -3.4874e-07 0)
(6.02224e-06 -3.62499e-07 0)
(5.53042e-06 -8.52458e-07 0)
(5.47034e-06 -6.79023e-07 0)
(5.43181e-06 -5.69071e-07 0)
(5.42136e-06 -5.05828e-07 0)
(5.43099e-06 -4.71682e-07 0)
(5.45925e-06 -4.57507e-07 0)
(5.50269e-06 -4.56578e-07 0)
(5.5589e-06 -4.64645e-07 0)
(5.62678e-06 -4.78714e-07 0)
(5.70225e-06 -4.95648e-07 0)
(5.27785e-06 -1.01423e-06 0)
(5.18111e-06 -8.33735e-07 0)
(5.1194e-06 -7.19226e-07 0)
(5.09349e-06 -6.54228e-07 0)
(5.09281e-06 -6.1981e-07 0)
(5.11371e-06 -6.06628e-07 0)
(5.15172e-06 -6.07479e-07 0)
(5.20357e-06 -6.17999e-07 0)
(5.2678e-06 -6.34849e-07 0)
(5.33982e-06 -6.55006e-07 0)
(4.9925e-06 -1.17736e-06 0)
(4.85939e-06 -9.99573e-07 0)
(4.77465e-06 -8.86678e-07 0)
(4.73329e-06 -8.23813e-07 0)
(4.72222e-06 -7.91508e-07 0)
(4.7356e-06 -7.80756e-07 0)
(4.76795e-06 -7.8417e-07 0)
(4.81527e-06 -7.97552e-07 0)
(4.87559e-06 -8.17304e-07 0)
(4.94424e-06 -8.40814e-07 0)
(4.67798e-06 -1.34069e-06 0)
(4.51105e-06 -1.17519e-06 0)
(4.40486e-06 -1.06998e-06 0)
(4.349e-06 -1.01307e-06 0)
(4.32805e-06 -9.85228e-07 0)
(4.33412e-06 -9.7832e-07 0)
(4.36078e-06 -9.8514e-07 0)
(4.40346e-06 -1.00177e-06 0)
(4.45954e-06 -1.02479e-06 0)
(4.52505e-06 -1.05172e-06 0)
(4.33796e-06 -1.50268e-06 0)
(4.14188e-06 -1.35832e-06 0)
(4.01717e-06 -1.26641e-06 0)
(3.94855e-06 -1.21901e-06 0)
(3.91867e-06 -1.19779e-06 0)
(3.9178e-06 -1.19603e-06 0)
(3.93871e-06 -1.20696e-06 0)
(3.97638e-06 -1.22729e-06 0)
(4.02767e-06 -1.25369e-06 0)
(4.08982e-06 -1.28516e-06 0)
(6.81123e-06 -3.10976e-08 0)
(6.91544e-06 -3.13815e-08 0)
(7.02632e-06 -3.17619e-08 0)
(7.14347e-06 -3.20367e-08 0)
(7.26617e-06 -3.21664e-08 0)
(7.39394e-06 -3.21308e-08 0)
(7.52626e-06 -3.18939e-08 0)
(7.66262e-06 -3.14635e-08 0)
(7.80253e-06 -3.08249e-08 0)
(7.94554e-06 -2.99593e-08 0)
(8.09123e-06 -2.88338e-08 0)
(8.23916e-06 -2.74266e-08 0)
(8.3889e-06 -2.57184e-08 0)
(8.53999e-06 -2.36854e-08 0)
(8.69201e-06 -2.12906e-08 0)
(8.84434e-06 -1.849e-08 0)
(8.9967e-06 -1.52271e-08 0)
(9.14803e-06 -1.14432e-08 0)
(9.29854e-06 -7.04486e-09 0)
(9.44575e-06 -2.00064e-09 0)
(6.74153e-06 -9.65601e-08 0)
(6.85148e-06 -9.69783e-08 0)
(6.96752e-06 -9.77199e-08 0)
(7.08919e-06 -9.8209e-08 0)
(7.21595e-06 -9.83053e-08 0)
(7.34735e-06 -9.7972e-08 0)
(7.48294e-06 -9.70861e-08 0)
(7.62226e-06 -9.56432e-08 0)
(7.76488e-06 -9.35777e-08 0)
(7.91035e-06 -9.08446e-08 0)
(8.05831e-06 -8.73654e-08 0)
(8.20833e-06 -8.30769e-08 0)
(8.36005e-06 -7.79082e-08 0)
(8.513e-06 -7.17763e-08 0)
(8.66678e-06 -6.45677e-08 0)
(8.82079e-06 -5.61517e-08 0)
(8.97474e-06 -4.63579e-08 0)
(9.12759e-06 -3.50109e-08 0)
(9.27963e-06 -2.18306e-08 0)
(9.42837e-06 -6.71822e-09 0)
(6.60478e-06 -1.70999e-07 0)
(6.72605e-06 -1.7027e-07 0)
(6.85224e-06 -1.70214e-07 0)
(6.98273e-06 -1.7003e-07 0)
(7.11737e-06 -1.69345e-07 0)
(7.25577e-06 -1.68122e-07 0)
(7.3977e-06 -1.66103e-07 0)
(7.54274e-06 -1.63254e-07 0)
(7.69057e-06 -1.59437e-07 0)
(7.84083e-06 -1.5457e-07 0)
(7.99322e-06 -1.48526e-07 0)
(8.14739e-06 -1.41198e-07 0)
(8.30298e-06 -1.32452e-07 0)
(8.45957e-06 -1.22137e-07 0)
(8.6168e-06 -1.10057e-07 0)
(8.77413e-06 -9.59887e-08 0)
(8.93128e-06 -7.96452e-08 0)
(9.08724e-06 -6.0737e-08 0)
(9.24234e-06 -3.87965e-08 0)
(9.3941e-06 -1.36519e-08 0)
(6.40467e-06 -2.59562e-07 0)
(6.54218e-06 -2.55679e-07 0)
(6.6831e-06 -2.52977e-07 0)
(6.82643e-06 -2.50713e-07 0)
(6.97268e-06 -2.48065e-07 0)
(7.12138e-06 -2.45008e-07 0)
(7.27261e-06 -2.41079e-07 0)
(7.42605e-06 -2.36201e-07 0)
(7.58155e-06 -2.30136e-07 0)
(7.73886e-06 -2.22743e-07 0)
(7.89778e-06 -2.13829e-07 0)
(8.05801e-06 -2.03222e-07 0)
(8.21927e-06 -1.90718e-07 0)
(8.38118e-06 -1.76089e-07 0)
(8.54347e-06 -1.5905e-07 0)
(8.70564e-06 -1.39284e-07 0)
(8.86744e-06 -1.16384e-07 0)
(9.02796e-06 -8.99399e-08 0)
(9.18752e-06 -5.92902e-08 0)
(9.34371e-06 -2.41732e-08 0)
(6.14737e-06 -3.66815e-07 0)
(6.30527e-06 -3.57207e-07 0)
(6.46489e-06 -3.49479e-07 0)
(6.62455e-06 -3.43296e-07 0)
(6.78559e-06 -3.37142e-07 0)
(6.94747e-06 -3.3101e-07 0)
(7.1107e-06 -3.24164e-07 0)
(7.27498e-06 -3.16436e-07 0)
(7.44041e-06 -3.07463e-07 0)
(7.60683e-06 -2.97014e-07 0)
(7.77416e-06 -2.84804e-07 0)
(7.94219e-06 -2.70581e-07 0)
(8.11075e-06 -2.54058e-07 0)
(8.27955e-06 -2.34921e-07 0)
(8.44841e-06 -2.12796e-07 0)
(8.61681e-06 -1.87264e-07 0)
(8.78465e-06 -1.57795e-07 0)
(8.95102e-06 -1.23851e-07 0)
(9.11633e-06 -8.45669e-08 0)
(9.27825e-06 -3.957e-08 0)
(5.84001e-06 -4.95976e-07 0)
(6.02152e-06 -4.77696e-07 0)
(6.20309e-06 -4.62179e-07 0)
(6.38203e-06 -4.49874e-07 0)
(6.56067e-06 -4.38383e-07 0)
(6.73832e-06 -4.2766e-07 0)
(6.91589e-06 -4.16673e-07 0)
(7.09319e-06 -4.05096e-07 0)
(7.27053e-06 -3.92411e-07 0)
(7.44788e-06 -3.78261e-07 0)
(7.62532e-06 -3.62253e-07 0)
(7.80275e-06 -3.44033e-07 0)
(7.98008e-06 -3.23212e-07 0)
(8.15714e-06 -2.99381e-07 0)
(8.33383e-06 -2.72059e-07 0)
(8.50969e-06 -2.40723e-07 0)
(8.68472e-06 -2.04708e-07 0)
(8.85808e-06 -1.63338e-07 0)
(9.03027e-06 -1.15536e-07 0)
(9.1991e-06 -6.07931e-08 0)
(5.49105e-06 -6.4918e-07 0)
(5.69831e-06 -6.19207e-07 0)
(5.90423e-06 -5.93127e-07 0)
(6.10475e-06 -5.72334e-07 0)
(6.30321e-06 -5.53575e-07 0)
(6.49872e-06 -5.36611e-07 0)
(6.69254e-06 -5.20139e-07 0)
(6.88465e-06 -5.03593e-07 0)
(7.07554e-06 -4.86285e-07 0)
(7.26537e-06 -4.67682e-07 0)
(7.45435e-06 -4.47273e-07 0)
(7.64251e-06 -4.2458e-07 0)
(7.82987e-06 -3.99105e-07 0)
(8.01638e-06 -3.70327e-07 0)
(8.20197e-06 -3.37651e-07 0)
(8.38634e-06 -3.00433e-07 0)
(8.56958e-06 -2.57871e-07 0)
(8.75093e-06 -2.09139e-07 0)
(8.93098e-06 -1.52941e-07 0)
(9.1077e-06 -8.86392e-08 0)
(5.10908e-06 -8.26814e-07 0)
(5.34323e-06 -7.81916e-07 0)
(5.57495e-06 -7.42534e-07 0)
(5.79877e-06 -7.10612e-07 0)
(6.01863e-06 -6.82502e-07 0)
(6.23371e-06 -6.57459e-07 0)
(6.44536e-06 -6.34025e-07 0)
(6.65379e-06 -6.11305e-07 0)
(6.85965e-06 -5.88424e-07 0)
(7.06327e-06 -5.64638e-07 0)
(7.26499e-06 -5.39279e-07 0)
(7.46495e-06 -5.1172e-07 0)
(7.66332e-06 -4.81327e-07 0)
(7.86018e-06 -4.47449e-07 0)
(8.05555e-06 -4.09362e-07 0)
(8.24928e-06 -3.66292e-07 0)
(8.44151e-06 -3.17278e-07 0)
(8.63164e-06 -2.61344e-07 0)
(8.82032e-06 -1.96975e-07 0)
(9.00578e-06 -1.23409e-07 0)
(4.70334e-06 -1.02875e-06 0)
(4.965e-06 -9.6612e-07 0)
(5.22294e-06 -9.11595e-07 0)
(5.47111e-06 -8.66231e-07 0)
(5.71318e-06 -8.26945e-07 0)
(5.94877e-06 -7.92143e-07 0)
(6.17916e-06 -7.60305e-07 0)
(6.40486e-06 -7.3016e-07 0)
(6.6266e-06 -7.00632e-07 0)
(6.84491e-06 -6.70761e-07 0)
(7.06022e-06 -6.39707e-07 0)
(7.27282e-06 -6.06684e-07 0)
(7.483e-06 -5.70914e-07 0)
(7.69096e-06 -5.31605e-07 0)
(7.8968e-06 -4.87889e-07 0)
(8.10053e-06 -4.38852e-07 0)
(8.30238e-06 -3.83377e-07 0)
(8.50191e-06 -3.20333e-07 0)
(8.69985e-06 -2.48016e-07 0)
(8.89471e-06 -1.65563e-07 0)
(4.28114e-06 -1.2518e-06 0)
(4.57103e-06 -1.16752e-06 0)
(4.85446e-06 -1.0958e-06 0)
(5.12767e-06 -1.03459e-06 0)
(5.39254e-06 -9.82054e-07 0)
(5.64947e-06 -9.35863e-07 0)
(5.89944e-06 -8.94317e-07 0)
(6.14321e-06 -8.55793e-07 0)
(6.38158e-06 -8.18921e-07 0)
(6.61523e-06 -7.82491e-07 0)
(6.84474e-06 -7.45436e-07 0)
(7.07052e-06 -7.06777e-07 0)
(7.293e-06 -6.65564e-07 0)
(7.51248e-06 -6.2085e-07 0)
(7.72919e-06 -5.71615e-07 0)
(7.94328e-06 -5.16802e-07 0)
(8.15507e-06 -4.55143e-07 0)
(8.36429e-06 -3.85364e-07 0)
(8.57179e-06 -3.05586e-07 0)
(8.77643e-06 -2.14805e-07 0)
(3.96657e-06 -1.46442e-06 0)
(4.27725e-06 -1.36213e-06 0)
(4.57625e-06 -1.27765e-06 0)
(4.86456e-06 -1.20416e-06 0)
(5.14343e-06 -1.14026e-06 0)
(5.41366e-06 -1.08363e-06 0)
(5.67617e-06 -1.0325e-06 0)
(5.9317e-06 -9.8522e-07 0)
(6.18107e-06 -9.40323e-07 0)
(6.42494e-06 -8.96507e-07 0)
(6.66391e-06 -8.52592e-07 0)
(6.89843e-06 -8.07488e-07 0)
(7.12901e-06 -7.60143e-07 0)
(7.35602e-06 -7.09503e-07 0)
(7.57973e-06 -6.54458e-07 0)
(7.80045e-06 -5.93872e-07 0)
(8.01852e-06 -5.26407e-07 0)
(8.2339e-06 -4.50746e-07 0)
(8.44743e-06 -3.64971e-07 0)
(8.65837e-06 -2.68032e-07 0)
(3.78695e-06 -1.63547e-06 0)
(4.09943e-06 -1.52899e-06 0)
(4.40137e-06 -1.43742e-06 0)
(4.69382e-06 -1.35643e-06 0)
(4.97728e-06 -1.28466e-06 0)
(5.25236e-06 -1.22019e-06 0)
(5.51973e-06 -1.16136e-06 0)
(5.78004e-06 -1.10661e-06 0)
(6.03397e-06 -1.05455e-06 0)
(6.28212e-06 -1.0039e-06 0)
(6.52502e-06 -9.53472e-07 0)
(6.76313e-06 -9.02172e-07 0)
(6.99696e-06 -8.48924e-07 0)
(7.22689e-06 -7.92659e-07 0)
(7.45325e-06 -7.32256e-07 0)
(7.6764e-06 -6.6658e-07 0)
(7.89672e-06 -5.94322e-07 0)
(8.11432e-06 -5.14211e-07 0)
(8.33001e-06 -4.24411e-07 0)
(8.54339e-06 -3.23903e-07 0)
(3.63358e-06 -1.79998e-06 0)
(3.94275e-06 -1.69086e-06 0)
(4.24415e-06 -1.59458e-06 0)
(4.5373e-06 -1.50774e-06 0)
(4.82254e-06 -1.42941e-06 0)
(5.09999e-06 -1.35804e-06 0)
(5.37016e-06 -1.29218e-06 0)
(5.63345e-06 -1.23045e-06 0)
(5.89042e-06 -1.17156e-06 0)
(6.14157e-06 -1.1143e-06 0)
(6.38734e-06 -1.05751e-06 0)
(6.62817e-06 -1.00011e-06 0)
(6.86454e-06 -9.41036e-07 0)
(7.09684e-06 -8.79237e-07 0)
(7.3254e-06 -8.13604e-07 0)
(7.55063e-06 -7.43032e-07 0)
(7.77294e-06 -6.66267e-07 0)
(7.99255e-06 -5.82096e-07 0)
(8.21024e-06 -4.88782e-07 0)
(8.4259e-06 -3.85366e-07 0)
(3.49841e-06 -1.95815e-06 0)
(3.80292e-06 -1.84767e-06 0)
(4.10168e-06 -1.74792e-06 0)
(4.39342e-06 -1.65634e-06 0)
(4.67839e-06 -1.57242e-06 0)
(4.95636e-06 -1.49495e-06 0)
(5.22764e-06 -1.42274e-06 0)
(5.49243e-06 -1.35458e-06 0)
(5.75114e-06 -1.28931e-06 0)
(6.00417e-06 -1.2258e-06 0)
(6.25187e-06 -1.16295e-06 0)
(6.49461e-06 -1.09973e-06 0)
(6.73287e-06 -1.03511e-06 0)
(6.96698e-06 -9.68061e-07 0)
(7.19731e-06 -8.97513e-07 0)
(7.42428e-06 -8.22409e-07 0)
(7.64829e-06 -7.41564e-07 0)
(7.86968e-06 -6.53831e-07 0)
(8.08918e-06 -5.5759e-07 0)
(8.30691e-06 -4.52014e-07 0)
(3.37913e-06 -2.10969e-06 0)
(3.67786e-06 -1.9987e-06 0)
(3.97251e-06 -1.8966e-06 0)
(4.26128e-06 -1.80145e-06 0)
(4.5444e-06 -1.71299e-06 0)
(4.82138e-06 -1.63034e-06 0)
(5.09237e-06 -1.55255e-06 0)
(5.35737e-06 -1.47861e-06 0)
(5.61668e-06 -1.40749e-06 0)
(5.87058e-06 -1.33817e-06 0)
(6.11934e-06 -1.26965e-06 0)
(6.36326e-06 -1.20094e-06 0)
(6.60278e-06 -1.13108e-06 0)
(6.8382e-06 -1.05909e-06 0)
(7.06988e-06 -9.8394e-07 0)
(7.29824e-06 -9.04645e-07 0)
(7.52369e-06 -8.20093e-07 0)
(7.74661e-06 -7.29219e-07 0)
(7.96772e-06 -6.30566e-07 0)
(8.18734e-06 -5.23496e-07 0)
(3.2729e-06 -2.25463e-06 0)
(3.56528e-06 -2.14384e-06 0)
(3.8549e-06 -2.04023e-06 0)
(4.13966e-06 -1.94236e-06 0)
(4.41978e-06 -1.85023e-06 0)
(4.69462e-06 -1.76322e-06 0)
(4.96418e-06 -1.6806e-06 0)
(5.22833e-06 -1.60153e-06 0)
(5.48726e-06 -1.52514e-06 0)
(5.74117e-06 -1.45054e-06 0)
(5.99023e-06 -1.3768e-06 0)
(6.23466e-06 -1.30302e-06 0)
(6.47488e-06 -1.22831e-06 0)
(6.71114e-06 -1.15175e-06 0)
(6.94378e-06 -1.07239e-06 0)
(7.17321e-06 -9.89283e-07 0)
(7.39982e-06 -9.01427e-07 0)
(7.62406e-06 -8.07853e-07 0)
(7.84658e-06 -7.07317e-07 0)
(8.06786e-06 -5.9933e-07 0)
(3.17755e-06 -2.39317e-06 0)
(3.46326e-06 -2.28307e-06 0)
(3.74726e-06 -2.17861e-06 0)
(4.02728e-06 -2.0788e-06 0)
(4.30358e-06 -1.98379e-06 0)
(4.57541e-06 -1.89318e-06 0)
(4.84268e-06 -1.80645e-06 0)
(5.10514e-06 -1.72292e-06 0)
(5.36291e-06 -1.64186e-06 0)
(5.6161e-06 -1.56251e-06 0)
(5.86481e-06 -1.48404e-06 0)
(6.1092e-06 -1.40565e-06 0)
(6.34963e-06 -1.3265e-06 0)
(6.5863e-06 -1.24577e-06 0)
(6.81954e-06 -1.16256e-06 0)
(7.04974e-06 -1.07602e-06 0)
(7.27728e-06 -9.85245e-07 0)
(7.5026e-06 -8.89391e-07 0)
(7.72634e-06 -7.87439e-07 0)
(7.94907e-06 -6.78936e-07 0)
(3.09107e-06 -2.52556e-06 0)
(3.37002e-06 -2.41652e-06 0)
(3.64807e-06 -2.31172e-06 0)
(3.92291e-06 -2.21056e-06 0)
(4.19483e-06 -2.11333e-06 0)
(4.46302e-06 -2.0198e-06 0)
(4.72735e-06 -1.9296e-06 0)
(4.98748e-06 -1.84223e-06 0)
(5.24347e-06 -1.75709e-06 0)
(5.49535e-06 -1.67354e-06 0)
(5.74317e-06 -1.59086e-06 0)
(5.98704e-06 -1.50832e-06 0)
(6.22726e-06 -1.42519e-06 0)
(6.46398e-06 -1.3407e-06 0)
(6.69752e-06 -1.25404e-06 0)
(6.92822e-06 -1.16446e-06 0)
(7.15644e-06 -1.07116e-06 0)
(7.38265e-06 -9.73438e-07 0)
(7.60742e-06 -8.70448e-07 0)
(7.83138e-06 -7.61745e-07 0)
(3.01172e-06 -2.65219e-06 0)
(3.28396e-06 -2.54441e-06 0)
(3.5559e-06 -2.43966e-06 0)
(3.82531e-06 -2.33764e-06 0)
(4.09249e-06 -2.23873e-06 0)
(4.35663e-06 -2.14284e-06 0)
(4.61755e-06 -2.04977e-06 0)
(4.87487e-06 -1.95915e-06 0)
(5.12861e-06 -1.87049e-06 0)
(5.37875e-06 -1.78328e-06 0)
(5.62526e-06 -1.69691e-06 0)
(5.86822e-06 -1.61072e-06 0)
(6.10788e-06 -1.52406e-06 0)
(6.34436e-06 -1.43624e-06 0)
(6.57792e-06 -1.34655e-06 0)
(6.80889e-06 -1.25432e-06 0)
(7.03759e-06 -1.15889e-06 0)
(7.26449e-06 -1.05966e-06 0)
(7.4901e-06 -9.55911e-07 0)
(7.71509e-06 -8.47329e-07 0)
(2.93793e-06 -2.77348e-06 0)
(3.2036e-06 -2.66708e-06 0)
(3.46942e-06 -2.56264e-06 0)
(3.73331e-06 -2.46011e-06 0)
(3.99555e-06 -2.35996e-06 0)
(4.25538e-06 -2.26222e-06 0)
(4.51259e-06 -2.1668e-06 0)
(4.76678e-06 -2.07346e-06 0)
(5.01793e-06 -1.98182e-06 0)
(5.26598e-06 -1.89149e-06 0)
(5.51087e-06 -1.80193e-06 0)
(5.75263e-06 -1.71258e-06 0)
(5.99146e-06 -1.62285e-06 0)
(6.22744e-06 -1.53213e-06 0)
(6.4608e-06 -1.43981e-06 0)
(6.69184e-06 -1.34532e-06 0)
(6.92085e-06 -1.24811e-06 0)
(7.14828e-06 -1.14767e-06 0)
(7.37456e-06 -1.0434e-06 0)
(7.6004e-06 -9.35229e-07 0)
(2.86832e-06 -2.88988e-06 0)
(3.12762e-06 -2.78488e-06 0)
(3.3874e-06 -2.68091e-06 0)
(3.64578e-06 -2.57815e-06 0)
(3.90301e-06 -2.47714e-06 0)
(4.1584e-06 -2.37796e-06 0)
(4.41173e-06 -2.28067e-06 0)
(4.66259e-06 -2.18512e-06 0)
(4.91094e-06 -2.09102e-06 0)
(5.15669e-06 -1.99805e-06 0)
(5.39972e-06 -1.90577e-06 0)
(5.64007e-06 -1.8137e-06 0)
(5.87786e-06 -1.72133e-06 0)
(6.11314e-06 -1.62812e-06 0)
(6.34613e-06 -1.53356e-06 0)
(6.57709e-06 -1.43717e-06 0)
(6.80626e-06 -1.33849e-06 0)
(7.03406e-06 -1.23707e-06 0)
(7.26088e-06 -1.13254e-06 0)
(7.48737e-06 -1.02489e-06 0)
(2.80163e-06 -3.00177e-06 0)
(3.05478e-06 -2.89812e-06 0)
(3.30868e-06 -2.79475e-06 0)
(3.56163e-06 -2.69197e-06 0)
(3.8139e-06 -2.59039e-06 0)
(4.06483e-06 -2.49015e-06 0)
(4.31422e-06 -2.3914e-06 0)
(4.56166e-06 -2.29407e-06 0)
(4.80709e-06 -2.19796e-06 0)
(5.0504e-06 -2.1028e-06 0)
(5.29145e-06 -2.00825e-06 0)
(5.53022e-06 -1.91389e-06 0)
(5.76683e-06 -1.8193e-06 0)
(6.0013e-06 -1.72401e-06 0)
(6.23379e-06 -1.62759e-06 0)
(6.46454e-06 -1.52964e-06 0)
(6.69374e-06 -1.42975e-06 0)
(6.9218e-06 -1.32761e-06 0)
(7.14901e-06 -1.22304e-06 0)
(7.37602e-06 -1.11594e-06 0)
(2.73671e-06 -3.10951e-06 0)
(2.98395e-06 -3.00714e-06 0)
(3.23216e-06 -2.90443e-06 0)
(3.47985e-06 -2.80181e-06 0)
(3.72726e-06 -2.69989e-06 0)
(3.97381e-06 -2.59891e-06 0)
(4.21929e-06 -2.49906e-06 0)
(4.46331e-06 -2.40032e-06 0)
(4.7058e-06 -2.30263e-06 0)
(4.94662e-06 -2.20572e-06 0)
(5.18562e-06 -2.10933e-06 0)
(5.42275e-06 -2.01311e-06 0)
(5.6581e-06 -1.9167e-06 0)
(5.89166e-06 -1.81971e-06 0)
(6.12357e-06 -1.72178e-06 0)
(6.35403e-06 -1.62255e-06 0)
(6.58318e-06 -1.52171e-06 0)
(6.81138e-06 -1.41908e-06 0)
(7.03888e-06 -1.31457e-06 0)
(7.26626e-06 -1.2081e-06 0)
(2.67245e-06 -3.21343e-06 0)
(2.91405e-06 -3.1123e-06 0)
(3.1568e-06 -3.01027e-06 0)
(3.39945e-06 -2.90793e-06 0)
(3.64218e-06 -2.80588e-06 0)
(3.8845e-06 -2.70441e-06 0)
(4.12619e-06 -2.6038e-06 0)
(4.36687e-06 -2.50404e-06 0)
(4.60646e-06 -2.40512e-06 0)
(4.84483e-06 -2.30686e-06 0)
(5.08177e-06 -2.20901e-06 0)
(5.31725e-06 -2.1113e-06 0)
(5.55133e-06 -2.01344e-06 0)
(5.78396e-06 -1.91508e-06 0)
(6.01524e-06 -1.81593e-06 0)
(6.24534e-06 -1.71569e-06 0)
(6.47437e-06 -1.61415e-06 0)
(6.70264e-06 -1.51123e-06 0)
(6.93036e-06 -1.40678e-06 0)
(7.158e-06 -1.30096e-06 0)
(2.60779e-06 -3.31394e-06 0)
(2.84401e-06 -3.21392e-06 0)
(3.0816e-06 -3.11259e-06 0)
(3.31946e-06 -3.01063e-06 0)
(3.55776e-06 -2.90864e-06 0)
(3.79607e-06 -2.80695e-06 0)
(4.03416e-06 -2.70585e-06 0)
(4.27166e-06 -2.60537e-06 0)
(4.50848e-06 -2.50554e-06 0)
(4.74448e-06 -2.40625e-06 0)
(4.97945e-06 -2.3073e-06 0)
(5.21334e-06 -2.20847e-06 0)
(5.44617e-06 -2.1095e-06 0)
(5.67787e-06 -2.0101e-06 0)
(5.90852e-06 -1.91001e-06 0)
(6.13824e-06 -1.80902e-06 0)
(6.36712e-06 -1.70699e-06 0)
(6.59541e-06 -1.60386e-06 0)
(6.82326e-06 -1.49955e-06 0)
(7.05105e-06 -1.39428e-06 0)
(2.54175e-06 -3.41125e-06 0)
(2.77287e-06 -3.31236e-06 0)
(3.00553e-06 -3.21165e-06 0)
(3.23894e-06 -3.11015e-06 0)
(3.47312e-06 -3.0084e-06 0)
(3.70773e-06 -2.9067e-06 0)
(3.94247e-06 -2.80535e-06 0)
(4.17702e-06 -2.70446e-06 0)
(4.41127e-06 -2.60404e-06 0)
(4.64508e-06 -2.50403e-06 0)
(4.87823e-06 -2.40431e-06 0)
(5.11064e-06 -2.30467e-06 0)
(5.34229e-06 -2.20489e-06 0)
(5.57309e-06 -2.10471e-06 0)
(5.80312e-06 -2.00394e-06 0)
(6.03247e-06 -1.90243e-06 0)
(6.2612e-06 -1.80007e-06 0)
(6.48946e-06 -1.69675e-06 0)
(6.71736e-06 -1.59266e-06 0)
(6.94521e-06 -1.48788e-06 0)
(2.47332e-06 -3.50567e-06 0)
(2.69944e-06 -3.40759e-06 0)
(2.92742e-06 -3.30778e-06 0)
(3.15692e-06 -3.20695e-06 0)
(3.38736e-06 -3.10555e-06 0)
(3.61864e-06 -3.00402e-06 0)
(3.85038e-06 -2.90264e-06 0)
(4.0823e-06 -2.80155e-06 0)
(4.31428e-06 -2.70081e-06 0)
(4.54616e-06 -2.60039e-06 0)
(4.77769e-06 -2.50017e-06 0)
(5.00875e-06 -2.39999e-06 0)
(5.23932e-06 -2.29964e-06 0)
(5.46932e-06 -2.19894e-06 0)
(5.6988e-06 -2.09772e-06 0)
(5.92783e-06 -1.99586e-06 0)
(6.15633e-06 -1.89326e-06 0)
(6.38446e-06 -1.78986e-06 0)
(6.61237e-06 -1.68591e-06 0)
(6.84037e-06 -1.58154e-06 0)
(2.40083e-06 -3.59714e-06 0)
(2.62272e-06 -3.50003e-06 0)
(2.84685e-06 -3.40128e-06 0)
(3.07256e-06 -3.30116e-06 0)
(3.29972e-06 -3.2003e-06 0)
(3.52806e-06 -3.09912e-06 0)
(3.75724e-06 -2.99792e-06 0)
(3.98695e-06 -2.89688e-06 0)
(4.21704e-06 -2.79607e-06 0)
(4.44731e-06 -2.69547e-06 0)
(4.67743e-06 -2.595e-06 0)
(4.90733e-06 -2.49452e-06 0)
(5.13701e-06 -2.39385e-06 0)
(5.36638e-06 -2.29284e-06 0)
(5.59535e-06 -2.19135e-06 0)
(5.82391e-06 -2.08927e-06 0)
(6.05218e-06 -1.98648e-06 0)
(6.28031e-06 -1.88312e-06 0)
(6.5082e-06 -1.77925e-06 0)
(6.73603e-06 -1.67517e-06 0)
(2.32338e-06 -3.68672e-06 0)
(2.54136e-06 -3.59074e-06 0)
(2.76196e-06 -3.49282e-06 0)
(2.98456e-06 -3.39348e-06 0)
(3.20903e-06 -3.29327e-06 0)
(3.43507e-06 -3.19259e-06 0)
(3.66233e-06 -3.09175e-06 0)
(3.89041e-06 -2.99092e-06 0)
(4.11905e-06 -2.89022e-06 0)
(4.34803e-06 -2.78963e-06 0)
(4.57713e-06 -2.68909e-06 0)
(4.80625e-06 -2.58848e-06 0)
(5.03525e-06 -2.48766e-06 0)
(5.26391e-06 -2.38649e-06 0)
(5.49237e-06 -2.28485e-06 0)
(5.72067e-06 -2.18262e-06 0)
(5.94869e-06 -2.07976e-06 0)
(6.1766e-06 -1.97636e-06 0)
(6.40443e-06 -1.87257e-06 0)
(6.63224e-06 -1.76866e-06 0)
(2.23988e-06 -3.77352e-06 0)
(2.45442e-06 -3.67887e-06 0)
(2.67206e-06 -3.58217e-06 0)
(2.89224e-06 -3.48387e-06 0)
(3.11478e-06 -3.38454e-06 0)
(3.33931e-06 -3.28458e-06 0)
(3.56528e-06 -3.1843e-06 0)
(3.79222e-06 -3.08389e-06 0)
(4.01996e-06 -2.98346e-06 0)
(4.2483e-06 -2.88304e-06 0)
(4.4768e-06 -2.78257e-06 0)
(4.70525e-06 -2.68196e-06 0)
(4.93368e-06 -2.5811e-06 0)
(5.16192e-06 -2.47988e-06 0)
(5.38992e-06 -2.37816e-06 0)
(5.6178e-06 -2.27586e-06 0)
(5.84553e-06 -2.17305e-06 0)
(6.07322e-06 -2.06958e-06 0)
(6.30091e-06 -1.96581e-06 0)
(6.52855e-06 -1.86187e-06 0)
(1.64689e-07 -3.27004e-06 0)
(4.96243e-07 -3.22201e-06 0)
(8.34398e-07 -3.12768e-06 0)
(1.18284e-06 -2.99104e-06 0)
(1.54462e-06 -2.81715e-06 0)
(1.92165e-06 -2.61266e-06 0)
(2.31467e-06 -2.38493e-06 0)
(2.72309e-06 -2.14182e-06 0)
(3.1453e-06 -1.89129e-06 0)
(3.57877e-06 -1.63977e-06 0)
(1.60451e-07 -3.32209e-06 0)
(4.83178e-07 -3.27827e-06 0)
(8.11377e-07 -3.19208e-06 0)
(1.14811e-06 -3.067e-06 0)
(1.49594e-06 -2.90727e-06 0)
(1.85649e-06 -2.71857e-06 0)
(2.23032e-06 -2.5072e-06 0)
(2.61689e-06 -2.27989e-06 0)
(3.01394e-06 -2.04404e-06 0)
(3.41981e-06 -1.80445e-06 0)
(1.5671e-07 -3.37566e-06 0)
(4.71616e-07 -3.33567e-06 0)
(7.90921e-07 -3.25687e-06 0)
(1.11707e-06 -3.14239e-06 0)
(1.45215e-06 -2.99584e-06 0)
(1.79748e-06 -2.82209e-06 0)
(2.15361e-06 -2.62659e-06 0)
(2.52041e-06 -2.41494e-06 0)
(2.89615e-06 -2.1936e-06 0)
(3.27999e-06 -1.96518e-06 0)
(1.53329e-07 -3.43082e-06 0)
(4.61219e-07 -3.3941e-06 0)
(7.72701e-07 -3.32161e-06 0)
(1.08975e-06 -3.21616e-06 0)
(1.41404e-06 -3.08091e-06 0)
(1.74663e-06 -2.92008e-06 0)
(2.08786e-06 -2.73851e-06 0)
(2.43759e-06 -2.54108e-06 0)
(2.79445e-06 -2.33379e-06 0)
(3.15761e-06 -2.11841e-06 0)
(1.50173e-07 -3.4875e-06 0)
(4.51508e-07 -3.45368e-06 0)
(7.55768e-07 -3.38682e-06 0)
(1.06452e-06 -3.28947e-06 0)
(1.37912e-06 -3.16444e-06 0)
(1.7004e-06 -3.01538e-06 0)
(2.02868e-06 -2.84664e-06 0)
(2.36382e-06 -2.66236e-06 0)
(2.7049e-06 -2.46793e-06 0)
(3.05042e-06 -2.26492e-06 0)
(1.47204e-07 -3.54558e-06 0)
(4.42402e-07 -3.51428e-06 0)
(7.40003e-07 -3.45232e-06 0)
(1.04125e-06 -3.36199e-06 0)
(1.34724e-06 -3.24589e-06 0)
(1.65862e-06 -3.10722e-06 0)
(1.97561e-06 -2.94993e-06 0)
(2.29797e-06 -2.7777e-06 0)
(2.6253e-06 -2.59535e-06 0)
(2.95551e-06 -2.40455e-06 0)
(1.44325e-07 -3.60497e-06 0)
(4.33629e-07 -3.57588e-06 0)
(7.24909e-07 -3.51831e-06 0)
(1.01917e-06 -3.43424e-06 0)
(1.31731e-06 -3.32611e-06 0)
(1.61981e-06 -3.19679e-06 0)
(1.92691e-06 -3.04981e-06 0)
(2.23818e-06 -2.8885e-06 0)
(2.55364e-06 -2.71713e-06 0)
(2.87072e-06 -2.53769e-06 0)
(1.41515e-07 -3.66553e-06 0)
(4.25105e-07 -3.63836e-06 0)
(7.10331e-07 -3.58466e-06 0)
(9.98025e-07 -3.50611e-06 0)
(1.28894e-06 -3.40502e-06 0)
(1.5834e-06 -3.28403e-06 0)
(1.88166e-06 -3.14631e-06 0)
(2.18316e-06 -2.99492e-06 0)
(2.4882e-06 -2.83364e-06 0)
(2.794e-06 -2.66475e-06 0)
(1.38744e-07 -3.72711e-06 0)
(4.1669e-07 -3.70163e-06 0)
(6.9601e-07 -3.65138e-06 0)
(9.77415e-07 -3.57777e-06 0)
(1.26156e-06 -3.48299e-06 0)
(1.54864e-06 -3.36946e-06 0)
(1.83892e-06 -3.24006e-06 0)
(2.13175e-06 -3.09762e-06 0)
(2.42759e-06 -2.94552e-06 0)
(2.72363e-06 -2.78626e-06 0)
(1.35975e-07 -3.78955e-06 0)
(4.08286e-07 -3.76557e-06 0)
(6.81785e-07 -3.71838e-06 0)
(9.571e-07 -3.64919e-06 0)
(1.23479e-06 -3.56006e-06 0)
(1.515e-06 -3.45321e-06 0)
(1.79796e-06 -3.33129e-06 0)
(2.08298e-06 -3.19697e-06 0)
(2.3706e-06 -3.05324e-06 0)
(2.65811e-06 -2.90271e-06 0)
(1.33162e-07 -3.8527e-06 0)
(3.99787e-07 -3.83006e-06 0)
(6.67481e-07 -3.78561e-06 0)
(9.36808e-07 -3.72041e-06 0)
(1.20826e-06 -3.63636e-06 0)
(1.48195e-06 -3.53552e-06 0)
(1.75809e-06 -3.42034e-06 0)
(2.03598e-06 -3.29336e-06 0)
(2.31616e-06 -3.15721e-06 0)
(2.59612e-06 -3.01458e-06 0)
(1.30279e-07 -3.91634e-06 0)
(3.91124e-07 -3.89493e-06 0)
(6.52965e-07 -3.85294e-06 0)
(9.16319e-07 -3.79135e-06 0)
(1.18164e-06 -3.71188e-06 0)
(1.44904e-06 -3.61646e-06 0)
(1.71872e-06 -3.50737e-06 0)
(1.98997e-06 -3.38704e-06 0)
(2.26331e-06 -3.25775e-06 0)
(2.53648e-06 -3.12225e-06 0)
(1.27311e-07 -3.98029e-06 0)
(3.82222e-07 -3.96001e-06 0)
(6.38084e-07 -3.92026e-06 0)
(8.95396e-07 -3.86194e-06 0)
(1.15461e-06 -3.78661e-06 0)
(1.41583e-06 -3.69612e-06 0)
(1.67924e-06 -3.59257e-06 0)
(1.9442e-06 -3.47824e-06 0)
(2.21116e-06 -3.35519e-06 0)
(2.47811e-06 -3.22615e-06 0)
(1.24233e-07 -4.04432e-06 0)
(3.72984e-07 -4.02508e-06 0)
(6.22671e-07 -3.98737e-06 0)
(8.73795e-07 -3.93203e-06 0)
(1.12682e-06 -3.8605e-06 0)
(1.38187e-06 -3.77451e-06 0)
(1.63911e-06 -3.67601e-06 0)
(1.89799e-06 -3.56711e-06 0)
(2.15886e-06 -3.44979e-06 0)
(2.42e-06 -3.32659e-06 0)
(1.21003e-07 -4.10825e-06 0)
(3.6329e-07 -4.08999e-06 0)
(6.06527e-07 -4.05415e-06 0)
(8.51238e-07 -4.00157e-06 0)
(1.09791e-06 -3.93353e-06 0)
(1.34668e-06 -3.85168e-06 0)
(1.59773e-06 -3.75778e-06 0)
(1.8506e-06 -3.65385e-06 0)
(2.10556e-06 -3.54178e-06 0)
(2.36118e-06 -3.42386e-06 0)
(1.17574e-07 -4.17173e-06 0)
(3.53013e-07 -4.1544e-06 0)
(5.89446e-07 -4.1203e-06 0)
(8.27428e-07 -4.07027e-06 0)
(1.06747e-06 -4.00546e-06 0)
(1.30976e-06 -3.92742e-06 0)
(1.5545e-06 -3.83777e-06 0)
(1.80131e-06 -3.73848e-06 0)
(2.05044e-06 -3.63121e-06 0)
(2.30068e-06 -3.51816e-06 0)
(1.13896e-07 -4.23467e-06 0)
(3.42007e-07 -4.21823e-06 0)
(5.7118e-07 -4.18575e-06 0)
(8.0201e-07 -4.1381e-06 0)
(1.03504e-06 -4.07633e-06 0)
(1.27053e-06 -4.00186e-06 0)
(1.50871e-06 -3.91621e-06 0)
(1.74931e-06 -3.82125e-06 0)
(1.99256e-06 -3.7184e-06 0)
(2.23743e-06 -3.60987e-06 0)
(1.09924e-07 -4.29634e-06 0)
(3.30129e-07 -4.28074e-06 0)
(5.5148e-07 -4.24981e-06 0)
(7.74621e-07 -4.20442e-06 0)
(1.00015e-06 -4.14552e-06 0)
(1.2284e-06 -4.07444e-06 0)
(1.45964e-06 -3.99261e-06 0)
(1.69375e-06 -3.90171e-06 0)
(1.93088e-06 -3.80309e-06 0)
(2.1703e-06 -3.69877e-06 0)
(1.05582e-07 -4.35707e-06 0)
(3.17147e-07 -4.34227e-06 0)
(5.29952e-07 -4.31288e-06 0)
(7.44707e-07 -4.26967e-06 0)
(9.62073e-07 -4.21355e-06 0)
(1.18249e-06 -4.14576e-06 0)
(1.40629e-06 -4.06761e-06 0)
(1.63347e-06 -3.98058e-06 0)
(1.86416e-06 -3.88604e-06 0)
(2.09789e-06 -3.78574e-06 0)
(1.00836e-07 -4.41493e-06 0)
(3.02954e-07 -4.40087e-06 0)
(5.06408e-07 -4.37301e-06 0)
(7.11993e-07 -4.33197e-06 0)
(9.20467e-07 -4.27863e-06 0)
(1.13236e-06 -4.21413e-06 0)
(1.34809e-06 -4.13964e-06 0)
(1.56773e-06 -4.05653e-06 0)
(1.79156e-06 -3.96604e-06 0)
(2.0193e-06 -3.86979e-06 0)
)


// ************************************************************************* //
