/*--------------------------------*- C++ -*----------------------------------*\
| =========                 |                                                 |
| \\      /  F ield         | foam-extend: Open Source CFD                    |
|  \\    /   O peration     | Version:     4.1                                |
|   \\  /    A nd           | Web:         http://www.foam-extend.org         |
|    \\/     M anipulation  |                                                 |
\*---------------------------------------------------------------------------*/
FoamFile
{
    version     2.0;
    format      ascii;
    class       volScalarField;
    location    "3";
    object      epsilonEq;
}
// * * * * * * * * * * * * * * * * * * * * * * * * * * * * * * * * * * * * * //

dimensions      [0 0 0 0 0 0 0];

internalField   nonuniform List<scalar> 
1000
(
1.38257e-06
1.57645e-06
1.73158e-06
1.84907e-06
1.90366e-06
1.92499e-06
1.92177e-06
1.9038e-06
1.87963e-06
1.84574e-06
1.73063e-06
1.75865e-06
1.82645e-06
1.89946e-06
1.93015e-06
1.9384e-06
1.92721e-06
1.90558e-06
1.87559e-06
1.8449e-06
2.06981e-06
1.93955e-06
1.91108e-06
1.93074e-06
1.93171e-06
1.92325e-06
1.90216e-06
1.87507e-06
1.84087e-06
1.80906e-06
2.38969e-06
2.11273e-06
1.9853e-06
1.94571e-06
1.9124e-06
1.8844e-06
1.85189e-06
1.81886e-06
1.78101e-06
1.74891e-06
2.68131e-06
2.27232e-06
2.0488e-06
1.9474e-06
1.87675e-06
1.82693e-06
1.78191e-06
1.74239e-06
1.70174e-06
1.66926e-06
2.93688e-06
2.41332e-06
2.1016e-06
1.9397e-06
1.83074e-06
1.75784e-06
1.69949e-06
1.65303e-06
1.6098e-06
1.57667e-06
3.1497e-06
2.5314e-06
2.14365e-06
1.92664e-06
1.78108e-06
1.68531e-06
1.61353e-06
1.55985e-06
1.51421e-06
1.47996e-06
3.31426e-06
2.62312e-06
2.17516e-06
1.91244e-06
1.73512e-06
1.61874e-06
1.53452e-06
1.47393e-06
1.42603e-06
1.39034e-06
3.42632e-06
2.68576e-06
2.19607e-06
1.90057e-06
1.69963e-06
1.56736e-06
1.4733e-06
1.40707e-06
1.35732e-06
1.32024e-06
3.48249e-06
2.71683e-06
2.20552e-06
1.89274e-06
1.67903e-06
1.538e-06
1.4384e-06
1.36893e-06
1.3181e-06
1.28019e-06
1.27006e-06
8.4138e-07
6.02526e-07
5.03285e-07
4.67529e-07
4.74399e-07
5.00014e-07
5.36997e-07
5.76894e-07
6.17403e-07
1.21674e-06
8.3829e-07
6.57366e-07
6.05019e-07
5.95246e-07
6.09872e-07
6.32614e-07
6.61579e-07
6.90654e-07
7.22918e-07
1.10964e-06
8.33962e-07
7.5093e-07
7.61308e-07
7.81349e-07
8.05236e-07
8.25917e-07
8.46895e-07
8.63874e-07
8.86597e-07
9.55465e-07
8.37069e-07
8.68774e-07
9.38034e-07
9.836e-07
1.01579e-06
1.03541e-06
1.05017e-06
1.05703e-06
1.07142e-06
7.65005e-07
8.57522e-07
9.98758e-07
1.11605e-06
1.18155e-06
1.22025e-06
1.23903e-06
1.2487e-06
1.24732e-06
1.25447e-06
5.62763e-07
9.04628e-07
1.13256e-06
1.28483e-06
1.36443e-06
1.40742e-06
1.42503e-06
1.43012e-06
1.42197e-06
1.42251e-06
4.20693e-07
9.84307e-07
1.26514e-06
1.43848e-06
1.52614e-06
1.57089e-06
1.58669e-06
1.58746e-06
1.57375e-06
1.56807e-06
4.78162e-07
1.09683e-06
1.39308e-06
1.57314e-06
1.66249e-06
1.70614e-06
1.71926e-06
1.71566e-06
1.69782e-06
1.68591e-06
7.21152e-07
1.23788e-06
1.51436e-06
1.68697e-06
1.77148e-06
1.8111e-06
1.82043e-06
1.81278e-06
1.79189e-06
1.77511e-06
1.03902e-06
1.40034e-06
1.62743e-06
1.77871e-06
1.85144e-06
1.88332e-06
1.887e-06
1.87379e-06
1.85177e-06
1.82551e-06
6.58884e-07
6.93426e-07
7.26063e-07
7.55754e-07
7.81891e-07
8.04847e-07
8.24345e-07
8.40542e-07
8.53374e-07
8.62863e-07
8.68929e-07
8.71516e-07
8.70407e-07
8.65526e-07
8.56339e-07
8.4301e-07
8.2414e-07
8.01189e-07
7.69833e-07
7.37303e-07
7.49355e-07
7.66982e-07
7.87118e-07
8.06335e-07
8.24035e-07
8.40105e-07
8.53979e-07
8.65551e-07
8.74568e-07
8.80888e-07
8.84317e-07
8.84696e-07
8.81739e-07
8.75311e-07
8.64843e-07
8.5046e-07
8.30762e-07
8.07185e-07
7.75479e-07
7.42822e-07
8.93507e-07
8.87885e-07
8.89616e-07
8.92888e-07
8.97201e-07
9.02048e-07
9.06538e-07
9.10247e-07
9.12689e-07
9.13483e-07
9.12275e-07
9.08751e-07
9.0252e-07
8.93349e-07
8.80614e-07
8.64381e-07
8.43258e-07
8.18628e-07
7.86399e-07
7.53607e-07
1.06045e-06
1.03267e-06
1.01543e-06
1.0017e-06
9.91026e-07
9.82857e-07
9.76122e-07
9.70163e-07
9.64342e-07
9.58055e-07
9.50812e-07
9.42139e-07
9.31545e-07
9.1869e-07
9.02898e-07
8.84169e-07
8.61137e-07
8.35124e-07
8.02273e-07
7.69419e-07
1.22879e-06
1.18298e-06
1.14881e-06
1.11957e-06
1.09458e-06
1.07349e-06
1.05531e-06
1.03919e-06
1.0245e-06
1.01046e-06
9.96513e-07
9.82049e-07
9.66498e-07
9.49432e-07
9.30138e-07
9.08554e-07
8.83372e-07
8.55849e-07
8.22449e-07
7.8975e-07
1.3854e-06
1.32678e-06
1.27897e-06
1.23691e-06
1.19968e-06
1.16702e-06
1.13833e-06
1.11256e-06
1.08925e-06
1.06749e-06
1.04673e-06
1.02628e-06
1.00554e-06
9.84023e-07
9.61014e-07
9.3641e-07
9.08999e-07
8.79983e-07
8.46233e-07
8.14046e-07
1.52269e-06
1.45655e-06
1.39893e-06
1.34675e-06
1.29979e-06
1.25722e-06
1.21938e-06
1.18495e-06
1.15375e-06
1.12483e-06
1.09766e-06
1.07153e-06
1.04583e-06
1.02005e-06
9.93486e-07
9.66029e-07
9.36593e-07
9.06339e-07
8.72614e-07
8.41376e-07
1.6353e-06
1.56681e-06
1.50485e-06
1.44576e-06
1.3924e-06
1.34237e-06
1.29727e-06
1.25563e-06
1.21754e-06
1.18215e-06
1.14901e-06
1.11749e-06
1.087e-06
1.05706e-06
1.02704e-06
9.96824e-07
9.65504e-07
9.34215e-07
9.00845e-07
8.71044e-07
1.72287e-06
1.65347e-06
1.59231e-06
1.52856e-06
1.4709e-06
1.41538e-06
1.36458e-06
1.31732e-06
1.27373e-06
1.23318e-06
1.19524e-06
1.15934e-06
1.12494e-06
1.09162e-06
1.05881e-06
1.02646e-06
9.9385e-07
9.62112e-07
9.29708e-07
9.01827e-07
1.78235e-06
1.71669e-06
1.66253e-06
1.60043e-06
1.54155e-06
1.4836e-06
1.42872e-06
1.37691e-06
1.32842e-06
1.28304e-06
1.24046e-06
1.20027e-06
1.16203e-06
1.12537e-06
1.08983e-06
1.05539e-06
1.02158e-06
9.89545e-07
9.58359e-07
9.32853e-07
1.8054e-06
1.73863e-06
1.68708e-06
1.63003e-06
1.57331e-06
1.51732e-06
1.46317e-06
1.41128e-06
1.36197e-06
1.31525e-06
1.27102e-06
1.22905e-06
1.18906e-06
1.15085e-06
1.11413e-06
1.07902e-06
1.04529e-06
1.01411e-06
9.85085e-07
9.62438e-07
1.75951e-06
1.7198e-06
1.67348e-06
1.62432e-06
1.57323e-06
1.52191e-06
1.4713e-06
1.42202e-06
1.37452e-06
1.32897e-06
1.28543e-06
1.24385e-06
1.20412e-06
1.16619e-06
1.12994e-06
1.09564e-06
1.0633e-06
1.03412e-06
1.00818e-06
9.89226e-07
1.72177e-06
1.68905e-06
1.65197e-06
1.60979e-06
1.56493e-06
1.51864e-06
1.47211e-06
1.42605e-06
1.38103e-06
1.33735e-06
1.29523e-06
1.25474e-06
1.21593e-06
1.17889e-06
1.14368e-06
1.11067e-06
1.08009e-06
1.05314e-06
1.0303e-06
1.01475e-06
1.67892e-06
1.65384e-06
1.62369e-06
1.58761e-06
1.54852e-06
1.50715e-06
1.46491e-06
1.42243e-06
1.38041e-06
1.33922e-06
1.29917e-06
1.26046e-06
1.22327e-06
1.1878e-06
1.15424e-06
1.12308e-06
1.09472e-06
1.07034e-06
1.05071e-06
1.03845e-06
1.63259e-06
1.61372e-06
1.59001e-06
1.55983e-06
1.5264e-06
1.49002e-06
1.45224e-06
1.41363e-06
1.37496e-06
1.33667e-06
1.29915e-06
1.26269e-06
1.22758e-06
1.19411e-06
1.1626e-06
1.1336e-06
1.10766e-06
1.08591e-06
1.06933e-06
1.06007e-06
1.58495e-06
1.57142e-06
1.55312e-06
1.52816e-06
1.49986e-06
1.46822e-06
1.43482e-06
1.40016e-06
1.36506e-06
1.32996e-06
1.29533e-06
1.26152e-06
1.22888e-06
1.19779e-06
1.16867e-06
1.1421e-06
1.11874e-06
1.09966e-06
1.08598e-06
1.07938e-06
1.53712e-06
1.528e-06
1.51433e-06
1.49407e-06
1.47047e-06
1.44332e-06
1.41418e-06
1.38347e-06
1.35202e-06
1.32027e-06
1.28874e-06
1.25781e-06
1.2279e-06
1.19944e-06
1.1729e-06
1.1489e-06
1.12815e-06
1.11165e-06
1.10061e-06
1.0963e-06
1.49009e-06
1.48457e-06
1.47477e-06
1.45862e-06
1.43922e-06
1.41623e-06
1.39112e-06
1.36427e-06
1.33646e-06
1.30815e-06
1.27985e-06
1.25197e-06
1.22497e-06
1.19929e-06
1.17546e-06
1.15409e-06
1.13593e-06
1.12189e-06
1.11321e-06
1.1108e-06
1.44447e-06
1.4418e-06
1.43522e-06
1.42268e-06
1.40702e-06
1.38787e-06
1.36657e-06
1.34343e-06
1.31922e-06
1.29434e-06
1.26932e-06
1.24457e-06
1.22055e-06
1.19773e-06
1.17664e-06
1.15789e-06
1.14223e-06
1.13047e-06
1.12384e-06
1.12294e-06
1.40058e-06
1.40017e-06
1.39625e-06
1.38684e-06
1.37453e-06
1.35889e-06
1.34115e-06
1.32157e-06
1.30084e-06
1.27935e-06
1.2576e-06
1.23599e-06
1.21498e-06
1.19503e-06
1.17666e-06
1.16047e-06
1.14717e-06
1.13748e-06
1.13259e-06
1.13285e-06
1.35858e-06
1.35995e-06
1.35824e-06
1.35157e-06
1.34225e-06
1.32985e-06
1.31544e-06
1.29924e-06
1.28187e-06
1.26369e-06
1.24515e-06
1.22664e-06
1.2086e-06
1.19147e-06
1.17576e-06
1.16201e-06
1.15091e-06
1.14307e-06
1.13961e-06
1.1407e-06
1.31847e-06
1.32129e-06
1.32145e-06
1.31722e-06
1.31061e-06
1.30119e-06
1.2899e-06
1.27691e-06
1.26275e-06
1.24776e-06
1.23234e-06
1.21685e-06
1.2017e-06
1.1873e-06
1.17413e-06
1.16268e-06
1.15359e-06
1.14738e-06
1.14507e-06
1.14669e-06
1.28018e-06
1.28429e-06
1.28607e-06
1.28403e-06
1.27993e-06
1.27329e-06
1.26493e-06
1.25498e-06
1.24389e-06
1.23194e-06
1.21952e-06
1.20693e-06
1.19454e-06
1.18275e-06
1.17197e-06
1.16265e-06
1.15538e-06
1.15058e-06
1.14915e-06
1.15104e-06
1.24362e-06
1.24887e-06
1.25221e-06
1.25229e-06
1.25053e-06
1.24653e-06
1.24093e-06
1.23384e-06
1.22565e-06
1.2166e-06
1.20701e-06
1.19716e-06
1.18739e-06
1.17804e-06
1.16948e-06
1.16211e-06
1.15644e-06
1.15283e-06
1.15205e-06
1.15399e-06
1.20867e-06
1.21534e-06
1.22006e-06
1.22214e-06
1.2227e-06
1.22122e-06
1.21825e-06
1.21387e-06
1.20841e-06
1.20207e-06
1.19512e-06
1.18783e-06
1.18047e-06
1.17336e-06
1.16683e-06
1.16121e-06
1.15694e-06
1.15431e-06
1.15397e-06
1.15579e-06
1.17554e-06
1.1831e-06
1.18972e-06
1.19418e-06
1.19693e-06
1.19788e-06
1.19738e-06
1.19553e-06
1.19258e-06
1.18872e-06
1.18419e-06
1.1792e-06
1.17402e-06
1.16891e-06
1.16417e-06
1.16008e-06
1.15701e-06
1.15518e-06
1.15511e-06
1.15667e-06
1.1436e-06
1.15631e-06
1.16181e-06
1.16889e-06
1.17357e-06
1.17693e-06
1.17872e-06
1.17922e-06
1.17855e-06
1.1769e-06
1.17448e-06
1.1715e-06
1.1682e-06
1.16482e-06
1.16161e-06
1.15883e-06
1.15675e-06
1.15555e-06
1.15562e-06
1.15684e-06
1.1144e-06
1.12623e-06
1.13729e-06
1.14607e-06
1.15335e-06
1.15895e-06
1.163e-06
1.16559e-06
1.1669e-06
1.16711e-06
1.16642e-06
1.16505e-06
1.16325e-06
1.16124e-06
1.15926e-06
1.15751e-06
1.15624e-06
1.15555e-06
1.1557e-06
1.15656e-06
1.08748e-06
1.10242e-06
1.11565e-06
1.12707e-06
1.13686e-06
1.14471e-06
1.15079e-06
1.15519e-06
1.15808e-06
1.15968e-06
1.16022e-06
1.15996e-06
1.15915e-06
1.15807e-06
1.15694e-06
1.15597e-06
1.15535e-06
1.15512e-06
1.1554e-06
1.15598e-06
1.06527e-06
1.08339e-06
1.09975e-06
1.11391e-06
1.12596e-06
1.13576e-06
1.14345e-06
1.14912e-06
1.15301e-06
1.15535e-06
1.15646e-06
1.15664e-06
1.15621e-06
1.15548e-06
1.15473e-06
1.15419e-06
1.15403e-06
1.15425e-06
1.15486e-06
1.15545e-06
1.25297e-06
1.29025e-06
1.35558e-06
1.4396e-06
1.53099e-06
1.61936e-06
1.69641e-06
1.75629e-06
1.79702e-06
1.81266e-06
1.23023e-06
1.26295e-06
1.32087e-06
1.39666e-06
1.48109e-06
1.56533e-06
1.64194e-06
1.70402e-06
1.74934e-06
1.77081e-06
1.21179e-06
1.24043e-06
1.2913e-06
1.35849e-06
1.43433e-06
1.5114e-06
1.58396e-06
1.64611e-06
1.69753e-06
1.73105e-06
1.19654e-06
1.22148e-06
1.26604e-06
1.3255e-06
1.39357e-06
1.46376e-06
1.53115e-06
1.59012e-06
1.64056e-06
1.68098e-06
1.18292e-06
1.20457e-06
1.24344e-06
1.29576e-06
1.35641e-06
1.41995e-06
1.4823e-06
1.53874e-06
1.58752e-06
1.63029e-06
1.17058e-06
1.18937e-06
1.22322e-06
1.26914e-06
1.32286e-06
1.37982e-06
1.43636e-06
1.48906e-06
1.53492e-06
1.57835e-06
1.15871e-06
1.17502e-06
1.20449e-06
1.24477e-06
1.29228e-06
1.3433e-06
1.39441e-06
1.4433e-06
1.48568e-06
1.52748e-06
1.14699e-06
1.16114e-06
1.18679e-06
1.22206e-06
1.26393e-06
1.30938e-06
1.35519e-06
1.40004e-06
1.43899e-06
1.47833e-06
1.13496e-06
1.14727e-06
1.16963e-06
1.20055e-06
1.23744e-06
1.2779e-06
1.31887e-06
1.35968e-06
1.39518e-06
1.43145e-06
1.12234e-06
1.13305e-06
1.15257e-06
1.17968e-06
1.21218e-06
1.24813e-06
1.28467e-06
1.3216e-06
1.35389e-06
1.38695e-06
1.10877e-06
1.11813e-06
1.13522e-06
1.15906e-06
1.18775e-06
1.2197e-06
1.25231e-06
1.28558e-06
1.31487e-06
1.3448e-06
1.09398e-06
1.10218e-06
1.1172e-06
1.13824e-06
1.16364e-06
1.1921e-06
1.22127e-06
1.25121e-06
1.2778e-06
1.30481e-06
1.07758e-06
1.08482e-06
1.09811e-06
1.11679e-06
1.13941e-06
1.16488e-06
1.19109e-06
1.21811e-06
1.24233e-06
1.26674e-06
1.0593e-06
1.06573e-06
1.0776e-06
1.09434e-06
1.11467e-06
1.13764e-06
1.16141e-06
1.18595e-06
1.20819e-06
1.23039e-06
1.03854e-06
1.04434e-06
1.05509e-06
1.07029e-06
1.08882e-06
1.10983e-06
1.13168e-06
1.15427e-06
1.17499e-06
1.19542e-06
1.01515e-06
1.02047e-06
1.03038e-06
1.04445e-06
1.06167e-06
1.08125e-06
1.10177e-06
1.12298e-06
1.14274e-06
1.16204e-06
9.87919e-07
9.9292e-07
1.00233e-06
1.01571e-06
1.03217e-06
1.05097e-06
1.07081e-06
1.09141e-06
1.11079e-06
1.12998e-06
9.57351e-07
9.62207e-07
9.71429e-07
9.84589e-07
1.00087e-06
1.01952e-06
1.0394e-06
1.06001e-06
1.07983e-06
1.09902e-06
9.2021e-07
9.2516e-07
9.34654e-07
9.48248e-07
9.6517e-07
9.8466e-07
1.00564e-06
1.02745e-06
1.04888e-06
1.06948e-06
8.80329e-07
8.85612e-07
8.95802e-07
9.10437e-07
9.28757e-07
9.49989e-07
9.73035e-07
9.97155e-07
1.02113e-06
1.04433e-06
)
;

boundaryField
{
    left
    {
        type            symmetryPlane;
        value           nonuniform List<scalar> 
30
(
1.25211e-06
1.22947e-06
1.21113e-06
1.19596e-06
1.18242e-06
1.17014e-06
1.15834e-06
1.14666e-06
1.13468e-06
1.1221e-06
1.10856e-06
1.0938e-06
1.07743e-06
1.05917e-06
1.03845e-06
1.01507e-06
9.87866e-07
9.57318e-07
9.20195e-07
8.80328e-07
3.475e-06
2.71438e-06
2.20497e-06
1.89271e-06
1.67896e-06
1.5377e-06
1.43787e-06
1.36822e-06
1.3173e-06
1.27929e-06
)
;
    }
    right
    {
        type            calculated;
        value           nonuniform List<scalar> 
30
(
7.3525e-07
7.40748e-07
7.51523e-07
7.67328e-07
7.8766e-07
8.11993e-07
8.39365e-07
8.69156e-07
8.99998e-07
9.31297e-07
9.60959e-07
9.88037e-07
1.01379e-06
1.0377e-06
1.05951e-06
1.07899e-06
1.09605e-06
1.11066e-06
1.1229e-06
1.13288e-06
1.14077e-06
1.14678e-06
1.15115e-06
1.15411e-06
1.15589e-06
1.15676e-06
1.15691e-06
1.15661e-06
1.15601e-06
1.15552e-06
)
;
    }
    down
    {
        type            symmetryPlane;
        value           nonuniform List<scalar> 
30
(
1.26864e-06
8.40952e-07
5.98322e-07
4.94297e-07
4.55418e-07
4.61565e-07
4.87919e-07
5.26269e-07
5.67709e-07
6.09344e-07
6.5245e-07
6.88543e-07
7.2224e-07
7.52753e-07
7.79514e-07
8.02945e-07
8.22812e-07
8.39297e-07
8.52358e-07
8.6203e-07
8.68247e-07
8.70959e-07
8.69956e-07
8.65166e-07
8.5606e-07
8.42804e-07
8.23998e-07
8.01105e-07
7.69796e-07
7.37299e-07
)
;
    }
    up
    {
        type            calculated;
        value           nonuniform List<scalar> 
30
(
8.79072e-07
8.84348e-07
8.94543e-07
9.09189e-07
9.27525e-07
9.48794e-07
9.71879e-07
9.96079e-07
1.0201e-06
1.04344e-06
1.06446e-06
1.08273e-06
1.09919e-06
1.11344e-06
1.12558e-06
1.13546e-06
1.14321e-06
1.14893e-06
1.15285e-06
1.15522e-06
1.15635e-06
1.15654e-06
1.15612e-06
1.1554e-06
1.15467e-06
1.15414e-06
1.154e-06
1.15423e-06
1.15485e-06
1.15539e-06
)
;
    }
    hole
    {
        type            calculated;
        value           nonuniform List<scalar> 
20
(
1.3402e-06
1.71989e-06
2.08529e-06
2.42754e-06
2.73831e-06
3.00997e-06
3.23583e-06
3.41029e-06
3.52898e-06
3.58865e-06
1.31257e-06
1.25244e-06
1.13196e-06
9.54912e-07
7.26039e-07
4.51174e-07
1.37373e-07
2.07469e-07
5.74742e-07
9.55422e-07
)
;
    }
    frontAndBack
    {
        type            empty;
    }
}


// ************************************************************************* //
