/*--------------------------------*- C++ -*----------------------------------*\
| =========                 |                                                 |
| \\      /  F ield         | foam-extend: Open Source CFD                    |
|  \\    /   O peration     | Version:     4.1                                |
|   \\  /    A nd           | Web:         http://www.foam-extend.org         |
|    \\/     M anipulation  |                                                 |
\*---------------------------------------------------------------------------*/
FoamFile
{
    version     2.0;
    format      ascii;
    class       vectorField;
    location    "3";
    object      solidsCellD_iteration10;
}
// * * * * * * * * * * * * * * * * * * * * * * * * * * * * * * * * * * * * * //


1000
(
(1.4928e-06 -5.89862e-07 0)
(1.41297e-06 -5.51378e-07 0)
(1.36289e-06 -5.28032e-07 0)
(1.33496e-06 -5.18515e-07 0)
(1.32244e-06 -5.17046e-07 0)
(1.32121e-06 -5.2174e-07 0)
(1.32831e-06 -5.30501e-07 0)
(1.34154e-06 -5.42383e-07 0)
(1.3597e-06 -5.56249e-07 0)
(1.38052e-06 -5.71579e-07 0)
(1.35041e-06 -6.44525e-07 0)
(1.26542e-06 -6.18849e-07 0)
(1.21197e-06 -6.03659e-07 0)
(1.18151e-06 -5.99731e-07 0)
(1.16687e-06 -6.02019e-07 0)
(1.16364e-06 -6.09373e-07 0)
(1.16876e-06 -6.20016e-07 0)
(1.17996e-06 -6.33312e-07 0)
(1.19585e-06 -6.48224e-07 0)
(1.21437e-06 -6.64464e-07 0)
(1.20225e-06 -6.96284e-07 0)
(1.11541e-06 -6.84918e-07 0)
(1.06069e-06 -6.78828e-07 0)
(1.02905e-06 -6.80995e-07 0)
(1.01323e-06 -6.8728e-07 0)
(1.00863e-06 -6.97378e-07 0)
(1.01221e-06 -7.09933e-07 0)
(1.02173e-06 -7.24539e-07 0)
(1.03574e-06 -7.40434e-07 0)
(1.05244e-06 -7.57255e-07 0)
(1.04943e-06 -7.44247e-07 0)
(9.6446e-07 -7.47849e-07 0)
(9.10814e-07 -7.51265e-07 0)
(8.79419e-07 -7.59739e-07 0)
(8.63326e-07 -7.70143e-07 0)
(8.57946e-07 -7.83026e-07 0)
(8.60283e-07 -7.97456e-07 0)
(8.683e-07 -8.13335e-07 0)
(8.80535e-07 -8.30178e-07 0)
(8.95377e-07 -8.47668e-07 0)
(8.93115e-07 -7.87454e-07 0)
(8.13551e-07 -8.05863e-07 0)
(7.63265e-07 -8.18673e-07 0)
(7.33655e-07 -8.33359e-07 0)
(7.18202e-07 -8.47785e-07 0)
(7.12533e-07 -8.63399e-07 0)
(7.13949e-07 -8.79649e-07 0)
(7.20568e-07 -8.96772e-07 0)
(7.31073e-07 -9.14552e-07 0)
(7.43923e-07 -9.32755e-07 0)
(7.33895e-07 -8.2507e-07 0)
(6.63331e-07 -8.57296e-07 0)
(6.18726e-07 -8.78895e-07 0)
(5.92258e-07 -8.99408e-07 0)
(5.78238e-07 -9.17594e-07 0)
(5.72771e-07 -9.35734e-07 0)
(5.73586e-07 -9.53653e-07 0)
(5.7893e-07 -9.71933e-07 0)
(5.87649e-07 -9.90588e-07 0)
(5.98342e-07 -1.00951e-06 0)
(5.72724e-07 -8.562e-07 0)
(5.14211e-07 -9.00548e-07 0)
(4.77212e-07 -9.29865e-07 0)
(4.55143e-07 -9.55482e-07 0)
(4.43356e-07 -9.76943e-07 0)
(4.38614e-07 -9.97287e-07 0)
(4.39043e-07 -1.01667e-06 0)
(4.4314e-07 -1.03598e-06 0)
(4.49979e-07 -1.05541e-06 0)
(4.58389e-07 -1.07499e-06 0)
(4.10095e-07 -8.80216e-07 0)
(3.66225e-07 -9.34309e-07 0)
(3.38515e-07 -9.69787e-07 0)
(3.21974e-07 -9.99451e-07 0)
(3.13096e-07 -1.02356e-06 0)
(3.09441e-07 -1.0457e-06 0)
(3.09605e-07 -1.06628e-06 0)
(3.1247e-07 -1.08643e-06 0)
(3.1738e-07 -1.10648e-06 0)
(3.23432e-07 -1.12661e-06 0)
(2.46461e-07 -8.96539e-07 0)
(2.19308e-07 -9.57415e-07 0)
(2.02193e-07 -9.97191e-07 0)
(1.91914e-07 -1.02974e-06 0)
(1.86343e-07 -1.05571e-06 0)
(1.8401e-07 -1.07906e-06 0)
(1.84077e-07 -1.10049e-06 0)
(1.85808e-07 -1.12128e-06 0)
(1.88757e-07 -1.14179e-06 0)
(1.92393e-07 -1.16231e-06 0)
(8.23137e-08 -9.04762e-07 0)
(7.31272e-08 -9.6916e-07 0)
(6.72715e-08 -1.01115e-06 0)
(6.37729e-08 -1.04516e-06 0)
(6.19194e-08 -1.07208e-06 0)
(6.11139e-08 -1.09609e-06 0)
(6.1076e-08 -1.11793e-06 0)
(6.16388e-08 -1.13901e-06 0)
(6.26397e-08 -1.15976e-06 0)
(6.38512e-08 -1.18051e-06 0)
(2.32125e-06 -2.68441e-08 0)
(2.34114e-06 -1.93938e-08 0)
(2.35416e-06 -1.47263e-08 0)
(2.36865e-06 -1.20334e-08 0)
(2.38495e-06 -1.05963e-08 0)
(2.40483e-06 -1.00318e-08 0)
(2.42834e-06 -1.00523e-08 0)
(2.45554e-06 -1.04e-08 0)
(2.48645e-06 -1.10726e-08 0)
(2.52062e-06 -1.18845e-08 0)
(2.30425e-06 -8.05802e-08 0)
(2.32084e-06 -5.86616e-08 0)
(2.33181e-06 -4.49152e-08 0)
(2.34488e-06 -3.70808e-08 0)
(2.36024e-06 -3.29791e-08 0)
(2.37942e-06 -3.12827e-08 0)
(2.40246e-06 -3.13513e-08 0)
(2.42929e-06 -3.2566e-08 0)
(2.45984e-06 -3.46037e-08 0)
(2.49368e-06 -3.69362e-08 0)
(2.27032e-06 -1.34729e-07 0)
(2.28058e-06 -9.96044e-08 0)
(2.28756e-06 -7.76037e-08 0)
(2.29798e-06 -6.49711e-08 0)
(2.31159e-06 -5.84308e-08 0)
(2.32955e-06 -5.59099e-08 0)
(2.35163e-06 -5.616e-08 0)
(2.37774e-06 -5.81989e-08 0)
(2.4076e-06 -6.15433e-08 0)
(2.44079e-06 -6.54296e-08 0)
(2.22003e-06 -1.89622e-07 0)
(2.22129e-06 -1.43161e-07 0)
(2.22255e-06 -1.14178e-07 0)
(2.22922e-06 -9.76329e-08 0)
(2.24029e-06 -8.90924e-08 0)
(2.25651e-06 -8.59018e-08 0)
(2.27728e-06 -8.63759e-08 0)
(2.30238e-06 -8.92926e-08 0)
(2.3313e-06 -9.39538e-08 0)
(2.3636e-06 -9.93947e-08 0)
(2.15409e-06 -2.45366e-07 0)
(2.14428e-06 -1.90146e-07 0)
(2.13846e-06 -1.55762e-07 0)
(2.14045e-06 -1.36325e-07 0)
(2.14841e-06 -1.26408e-07 0)
(2.16245e-06 -1.22913e-07 0)
(2.18158e-06 -1.23808e-07 0)
(2.20537e-06 -1.27674e-07 0)
(2.23315e-06 -1.33613e-07 0)
(2.26441e-06 -1.40537e-07 0)
(2.07343e-06 -3.02029e-07 0)
(2.05108e-06 -2.41126e-07 0)
(2.03733e-06 -2.03238e-07 0)
(2.03405e-06 -1.82101e-07 0)
(2.03848e-06 -1.71562e-07 0)
(2.05001e-06 -1.68204e-07 0)
(2.06732e-06 -1.69726e-07 0)
(2.08963e-06 -1.7457e-07 0)
(2.11611e-06 -1.81743e-07 0)
(2.14618e-06 -1.9009e-07 0)
(1.97929e-06 -3.59509e-07 0)
(1.94363e-06 -2.96333e-07 0)
(1.92146e-06 -2.57077e-07 0)
(1.91263e-06 -2.35575e-07 0)
(1.91333e-06 -2.25195e-07 0)
(1.92221e-06 -2.22439e-07 0)
(1.93757e-06 -2.24812e-07 0)
(1.9583e-06 -2.30677e-07 0)
(1.98337e-06 -2.39041e-07 0)
(2.0122e-06 -2.48709e-07 0)
(1.87279e-06 -4.17497e-07 0)
(1.82397e-06 -3.55622e-07 0)
(1.79348e-06 -3.17235e-07 0)
(1.77909e-06 -2.96767e-07 0)
(1.7761e-06 -2.87383e-07 0)
(1.78231e-06 -2.85735e-07 0)
(1.79565e-06 -2.89224e-07 0)
(1.81475e-06 -2.96224e-07 0)
(1.83836e-06 -3.05765e-07 0)
(1.86588e-06 -3.16659e-07 0)
(1.75531e-06 -4.7562e-07 0)
(1.69425e-06 -4.18483e-07 0)
(1.65603e-06 -3.83198e-07 0)
(1.6364e-06 -3.65144e-07 0)
(1.62988e-06 -3.57613e-07 0)
(1.63344e-06 -3.57558e-07 0)
(1.6447e-06 -3.62439e-07 0)
(1.66208e-06 -3.70675e-07 0)
(1.68416e-06 -3.81393e-07 0)
(1.71028e-06 -3.93243e-07 0)
(1.62822e-06 -5.33318e-07 0)
(1.55664e-06 -4.84105e-07 0)
(1.51173e-06 -4.53926e-07 0)
(1.48751e-06 -4.3961e-07 0)
(1.47778e-06 -4.34764e-07 0)
(1.47891e-06 -4.36824e-07 0)
(1.4883e-06 -4.43463e-07 0)
(1.50399e-06 -4.53305e-07 0)
(1.52472e-06 -4.65422e-07 0)
(1.549e-06 -4.7894e-07 0)
(2.55807e-06 -1.26332e-08 0)
(2.59881e-06 -1.28788e-08 0)
(2.64205e-06 -1.31207e-08 0)
(2.68763e-06 -1.33092e-08 0)
(2.73528e-06 -1.34376e-08 0)
(2.78487e-06 -1.34996e-08 0)
(2.83615e-06 -1.34671e-08 0)
(2.88891e-06 -1.33716e-08 0)
(2.94305e-06 -1.32316e-08 0)
(2.99844e-06 -1.30138e-08 0)
(3.05489e-06 -1.26939e-08 0)
(3.11225e-06 -1.22707e-08 0)
(3.17038e-06 -1.17456e-08 0)
(3.22912e-06 -1.11219e-08 0)
(3.28835e-06 -1.03914e-08 0)
(3.34789e-06 -9.52932e-09 0)
(3.40762e-06 -8.50522e-09 0)
(3.46724e-06 -7.29513e-09 0)
(3.52678e-06 -5.87692e-09 0)
(3.5855e-06 -4.24617e-09 0)
(2.5323e-06 -3.90322e-08 0)
(2.57517e-06 -3.96207e-08 0)
(2.62031e-06 -4.02109e-08 0)
(2.66758e-06 -4.06534e-08 0)
(2.71674e-06 -4.08939e-08 0)
(2.76764e-06 -4.09744e-08 0)
(2.82011e-06 -4.08721e-08 0)
(2.87399e-06 -4.05976e-08 0)
(2.92916e-06 -4.01146e-08 0)
(2.98547e-06 -3.93641e-08 0)
(3.04276e-06 -3.83442e-08 0)
(3.1009e-06 -3.70695e-08 0)
(3.15979e-06 -3.55181e-08 0)
(3.21926e-06 -3.36533e-08 0)
(3.27917e-06 -3.14306e-08 0)
(3.33936e-06 -2.88022e-08 0)
(3.39971e-06 -2.57072e-08 0)
(3.45992e-06 -2.20863e-08 0)
(3.52004e-06 -1.7861e-08 0)
(3.57929e-06 -1.29957e-08 0)
(2.4817e-06 -6.85678e-08 0)
(2.52879e-06 -6.90394e-08 0)
(2.5777e-06 -6.95343e-08 0)
(2.62818e-06 -6.99076e-08 0)
(2.68025e-06 -7.00403e-08 0)
(2.73379e-06 -6.99771e-08 0)
(2.78866e-06 -6.96349e-08 0)
(2.84468e-06 -6.90033e-08 0)
(2.9018e-06 -6.80286e-08 0)
(2.95988e-06 -6.66633e-08 0)
(3.01883e-06 -6.49122e-08 0)
(3.07854e-06 -6.27662e-08 0)
(3.13887e-06 -6.01564e-08 0)
(3.19968e-06 -5.70102e-08 0)
(3.26086e-06 -5.32657e-08 0)
(3.32228e-06 -4.88586e-08 0)
(3.38383e-06 -4.36919e-08 0)
(3.44522e-06 -3.76703e-08 0)
(3.50651e-06 -3.06584e-08 0)
(3.56694e-06 -2.25801e-08 0)
(2.40776e-06 -1.02999e-07 0)
(2.46082e-06 -1.02604e-07 0)
(2.51516e-06 -1.02338e-07 0)
(2.5704e-06 -1.02144e-07 0)
(2.62678e-06 -1.01765e-07 0)
(2.68411e-06 -1.01236e-07 0)
(2.74244e-06 -1.00383e-07 0)
(2.8016e-06 -9.91926e-08 0)
(2.86163e-06 -9.75805e-08 0)
(2.9224e-06 -9.54945e-08 0)
(2.98382e-06 -9.29129e-08 0)
(3.04581e-06 -8.97887e-08 0)
(3.10826e-06 -8.60255e-08 0)
(3.17108e-06 -8.15411e-08 0)
(3.23416e-06 -7.62656e-08 0)
(3.2974e-06 -7.00894e-08 0)
(3.3607e-06 -6.28765e-08 0)
(3.4238e-06 -5.44833e-08 0)
(3.48672e-06 -4.47065e-08 0)
(3.54881e-06 -3.34665e-08 0)
(2.31267e-06 -1.43851e-07 0)
(2.37331e-06 -1.41647e-07 0)
(2.43456e-06 -1.39816e-07 0)
(2.49579e-06 -1.3845e-07 0)
(2.55763e-06 -1.37025e-07 0)
(2.61985e-06 -1.35592e-07 0)
(2.68264e-06 -1.3387e-07 0)
(2.74587e-06 -1.31851e-07 0)
(2.8096e-06 -1.29381e-07 0)
(2.87377e-06 -1.26383e-07 0)
(2.93836e-06 -1.22816e-07 0)
(3.00331e-06 -1.18602e-07 0)
(3.06855e-06 -1.13613e-07 0)
(3.13399e-06 -1.07744e-07 0)
(3.19959e-06 -1.00899e-07 0)
(3.26518e-06 -9.29296e-08 0)
(3.33077e-06 -8.36653e-08 0)
(3.39605e-06 -7.29246e-08 0)
(3.46115e-06 -6.04244e-08 0)
(3.52539e-06 -4.60882e-08 0)
(2.19906e-06 -1.9228e-07 0)
(2.26839e-06 -1.87165e-07 0)
(2.33776e-06 -1.82764e-07 0)
(2.40614e-06 -1.7945e-07 0)
(2.47453e-06 -1.76351e-07 0)
(2.54262e-06 -1.73508e-07 0)
(2.61069e-06 -1.70504e-07 0)
(2.67878e-06 -1.67288e-07 0)
(2.74697e-06 -1.63685e-07 0)
(2.81526e-06 -1.59577e-07 0)
(2.88368e-06 -1.54881e-07 0)
(2.95221e-06 -1.49469e-07 0)
(3.02079e-06 -1.43173e-07 0)
(3.08937e-06 -1.35863e-07 0)
(3.15794e-06 -1.27406e-07 0)
(3.22638e-06 -1.17631e-07 0)
(3.29471e-06 -1.06324e-07 0)
(3.36263e-06 -9.32779e-08 0)
(3.43036e-06 -7.81321e-08 0)
(3.4972e-06 -6.07671e-08 0)
(2.07011e-06 -2.48942e-07 0)
(2.14897e-06 -2.39797e-07 0)
(2.22734e-06 -2.31837e-07 0)
(2.30369e-06 -2.25739e-07 0)
(2.37934e-06 -2.20279e-07 0)
(2.45403e-06 -2.15424e-07 0)
(2.52811e-06 -2.10701e-07 0)
(2.6017e-06 -2.05939e-07 0)
(2.67498e-06 -2.00924e-07 0)
(2.748e-06 -1.95488e-07 0)
(2.82082e-06 -1.89477e-07 0)
(2.89343e-06 -1.82708e-07 0)
(2.96585e-06 -1.74981e-07 0)
(3.03804e-06 -1.66147e-07 0)
(3.11004e-06 -1.56035e-07 0)
(3.18176e-06 -1.44448e-07 0)
(3.25327e-06 -1.31125e-07 0)
(3.32428e-06 -1.15813e-07 0)
(3.395e-06 -9.80821e-08 0)
(3.46482e-06 -7.77622e-08 0)
(1.92884e-06 -3.14067e-07 0)
(2.01758e-06 -2.99611e-07 0)
(2.10546e-06 -2.87079e-07 0)
(2.19038e-06 -2.7725e-07 0)
(2.27394e-06 -2.68726e-07 0)
(2.35584e-06 -2.61254e-07 0)
(2.43659e-06 -2.5433e-07 0)
(2.51631e-06 -2.47647e-07 0)
(2.59522e-06 -2.40927e-07 0)
(2.67346e-06 -2.33922e-07 0)
(2.75111e-06 -2.26407e-07 0)
(2.82823e-06 -2.18146e-07 0)
(2.90486e-06 -2.08911e-07 0)
(2.98107e-06 -1.98518e-07 0)
(3.05689e-06 -1.86757e-07 0)
(3.13228e-06 -1.7339e-07 0)
(3.2073e-06 -1.581e-07 0)
(3.28173e-06 -1.40583e-07 0)
(3.35578e-06 -1.20338e-07 0)
(3.4289e-06 -9.71503e-08 0)
(1.77848e-06 -3.87491e-07 0)
(1.87728e-06 -3.66699e-07 0)
(1.97483e-06 -3.48944e-07 0)
(2.0687e-06 -3.34549e-07 0)
(2.16051e-06 -3.2229e-07 0)
(2.25003e-06 -3.11624e-07 0)
(2.33781e-06 -3.01998e-07 0)
(2.42402e-06 -2.92969e-07 0)
(2.50895e-06 -2.84186e-07 0)
(2.59276e-06 -2.75316e-07 0)
(2.6756e-06 -2.6606e-07 0)
(2.75757e-06 -2.56134e-07 0)
(2.83879e-06 -2.45277e-07 0)
(2.91935e-06 -2.33257e-07 0)
(2.99931e-06 -2.1981e-07 0)
(3.07867e-06 -2.04649e-07 0)
(3.15749e-06 -1.874e-07 0)
(3.2356e-06 -1.67709e-07 0)
(3.31326e-06 -1.4502e-07 0)
(3.38999e-06 -1.19074e-07 0)
(1.622e-06 -4.68151e-07 0)
(1.73161e-06 -4.39019e-07 0)
(1.8388e-06 -4.15303e-07 0)
(1.94201e-06 -3.95617e-07 0)
(2.04222e-06 -3.79068e-07 0)
(2.13966e-06 -3.64759e-07 0)
(2.2347e-06 -3.52052e-07 0)
(2.32765e-06 -3.40396e-07 0)
(2.41881e-06 -3.2934e-07 0)
(2.50841e-06 -3.18459e-07 0)
(2.59663e-06 -3.07381e-07 0)
(2.68364e-06 -2.95763e-07 0)
(2.76961e-06 -2.83291e-07 0)
(2.85466e-06 -2.69677e-07 0)
(2.93887e-06 -2.54603e-07 0)
(3.02229e-06 -2.37731e-07 0)
(3.10503e-06 -2.18639e-07 0)
(3.18695e-06 -1.96902e-07 0)
(3.26836e-06 -1.71928e-07 0)
(3.34887e-06 -1.43381e-07 0)
(1.50318e-06 -5.48166e-07 0)
(1.62108e-06 -5.11453e-07 0)
(1.73474e-06 -4.82788e-07 0)
(1.84437e-06 -4.58459e-07 0)
(1.95035e-06 -4.37847e-07 0)
(2.05315e-06 -4.19924e-07 0)
(2.15315e-06 -4.03992e-07 0)
(2.25071e-06 -3.89458e-07 0)
(2.34614e-06 -3.75806e-07 0)
(2.43968e-06 -3.62558e-07 0)
(2.53155e-06 -3.49306e-07 0)
(2.62196e-06 -3.35676e-07 0)
(2.71108e-06 -3.21312e-07 0)
(2.79907e-06 -3.05884e-07 0)
(2.88602e-06 -2.89043e-07 0)
(2.97202e-06 -2.70406e-07 0)
(3.05717e-06 -2.4955e-07 0)
(3.14147e-06 -2.25994e-07 0)
(3.2252e-06 -1.99152e-07 0)
(3.30808e-06 -1.68621e-07 0)
(1.43663e-06 -6.14643e-07 0)
(1.55552e-06 -5.76378e-07 0)
(1.67029e-06 -5.44739e-07 0)
(1.78169e-06 -5.17383e-07 0)
(1.8897e-06 -4.9373e-07 0)
(1.99461e-06 -4.72893e-07 0)
(2.09672e-06 -4.54195e-07 0)
(2.19632e-06 -4.37051e-07 0)
(2.29366e-06 -4.20936e-07 0)
(2.38897e-06 -4.05372e-07 0)
(2.48247e-06 -3.8995e-07 0)
(2.57436e-06 -3.74283e-07 0)
(2.66482e-06 -3.58001e-07 0)
(2.754e-06 -3.40757e-07 0)
(2.842e-06 -3.22195e-07 0)
(2.92896e-06 -3.01913e-07 0)
(3.01497e-06 -2.79517e-07 0)
(3.1001e-06 -2.54514e-07 0)
(3.1846e-06 -2.26347e-07 0)
(3.26831e-06 -1.9459e-07 0)
(1.38111e-06 -6.77615e-07 0)
(1.49873e-06 -6.38741e-07 0)
(1.61343e-06 -6.0544e-07 0)
(1.72527e-06 -5.75953e-07 0)
(1.83416e-06 -5.4988e-07 0)
(1.94019e-06 -5.2653e-07 0)
(2.04356e-06 -5.05319e-07 0)
(2.14447e-06 -4.85717e-07 0)
(2.2431e-06 -4.67228e-07 0)
(2.33965e-06 -4.49401e-07 0)
(2.43434e-06 -4.31835e-07 0)
(2.52734e-06 -4.14144e-07 0)
(2.61883e-06 -3.95949e-07 0)
(2.70894e-06 -3.76899e-07 0)
(2.79778e-06 -3.56641e-07 0)
(2.88553e-06 -3.34765e-07 0)
(2.97226e-06 -3.10904e-07 0)
(3.05812e-06 -2.84579e-07 0)
(3.1433e-06 -2.55256e-07 0)
(3.22777e-06 -2.22519e-07 0)
(1.33261e-06 -7.38413e-07 0)
(1.44853e-06 -6.99354e-07 0)
(1.5623e-06 -6.64855e-07 0)
(1.67374e-06 -6.33657e-07 0)
(1.78266e-06 -6.05537e-07 0)
(1.88905e-06 -5.79977e-07 0)
(1.99302e-06 -5.56495e-07 0)
(2.09465e-06 -5.34621e-07 0)
(2.19408e-06 -5.13906e-07 0)
(2.29148e-06 -4.93935e-07 0)
(2.38702e-06 -4.74324e-07 0)
(2.48084e-06 -4.54693e-07 0)
(2.57312e-06 -4.34664e-07 0)
(2.66398e-06 -4.13891e-07 0)
(2.75352e-06 -3.92026e-07 0)
(2.84193e-06 -3.68669e-07 0)
(2.92931e-06 -3.43479e-07 0)
(3.01582e-06 -3.15996e-07 0)
(3.10163e-06 -2.85719e-07 0)
(3.18684e-06 -2.52278e-07 0)
(1.29016e-06 -7.96591e-07 0)
(1.40401e-06 -7.57694e-07 0)
(1.51632e-06 -7.22526e-07 0)
(1.62675e-06 -6.90115e-07 0)
(1.73511e-06 -6.60393e-07 0)
(1.84129e-06 -6.32994e-07 0)
(1.94529e-06 -6.07533e-07 0)
(2.04715e-06 -5.83622e-07 0)
(2.14696e-06 -5.6087e-07 0)
(2.24483e-06 -5.38905e-07 0)
(2.3409e-06 -5.1737e-07 0)
(2.43527e-06 -4.95899e-07 0)
(2.5281e-06 -4.74125e-07 0)
(2.61952e-06 -4.5172e-07 0)
(2.70962e-06 -4.28341e-07 0)
(2.79859e-06 -4.03612e-07 0)
(2.88651e-06 -3.77213e-07 0)
(2.97358e-06 -3.48711e-07 0)
(3.05996e-06 -3.17655e-07 0)
(3.14586e-06 -2.83751e-07 0)
(1.25257e-06 -8.5238e-07 0)
(1.3642e-06 -8.1385e-07 0)
(1.47478e-06 -7.78324e-07 0)
(1.58381e-06 -7.45056e-07 0)
(1.69119e-06 -7.14087e-07 0)
(1.79671e-06 -6.85168e-07 0)
(1.90033e-06 -6.58011e-07 0)
(2.00202e-06 -6.32313e-07 0)
(2.10184e-06 -6.07739e-07 0)
(2.19986e-06 -5.83962e-07 0)
(2.29617e-06 -5.60657e-07 0)
(2.39085e-06 -5.37481e-07 0)
(2.48404e-06 -5.14084e-07 0)
(2.57583e-06 -4.90163e-07 0)
(2.66634e-06 -4.65387e-07 0)
(2.75574e-06 -4.39417e-07 0)
(2.84411e-06 -4.11943e-07 0)
(2.93166e-06 -3.82571e-07 0)
(3.01857e-06 -3.50921e-07 0)
(3.10507e-06 -3.16757e-07 0)
(1.21908e-06 -9.05905e-07 0)
(1.32841e-06 -8.67879e-07 0)
(1.43707e-06 -8.3223e-07 0)
(1.54448e-06 -7.98395e-07 0)
(1.65058e-06 -7.66488e-07 0)
(1.75511e-06 -7.3634e-07 0)
(1.85801e-06 -7.07762e-07 0)
(1.95923e-06 -6.80526e-07 0)
(2.05877e-06 -6.54347e-07 0)
(2.15666e-06 -6.28945e-07 0)
(2.25296e-06 -6.04035e-07 0)
(2.34773e-06 -5.79298e-07 0)
(2.44107e-06 -5.54411e-07 0)
(2.53308e-06 -5.29105e-07 0)
(2.62386e-06 -5.03053e-07 0)
(2.71357e-06 -4.75964e-07 0)
(2.8023e-06 -4.47548e-07 0)
(2.89026e-06 -4.17455e-07 0)
(2.97764e-06 -3.85379e-07 0)
(3.06463e-06 -3.51092e-07 0)
(1.18893e-06 -9.57324e-07 0)
(1.29599e-06 -9.19878e-07 0)
(1.40262e-06 -8.84274e-07 0)
(1.50828e-06 -8.50091e-07 0)
(1.6129e-06 -8.17488e-07 0)
(1.71622e-06 -7.86363e-07 0)
(1.81817e-06 -7.56613e-07 0)
(1.91867e-06 -7.28069e-07 0)
(2.01768e-06 -7.00494e-07 0)
(2.11521e-06 -6.73656e-07 0)
(2.21129e-06 -6.4731e-07 0)
(2.30595e-06 -6.21168e-07 0)
(2.39929e-06 -5.94935e-07 0)
(2.49138e-06 -5.68378e-07 0)
(2.5823e-06 -5.41186e-07 0)
(2.67223e-06 -5.13108e-07 0)
(2.76123e-06 -4.83888e-07 0)
(2.84954e-06 -4.53221e-07 0)
(2.93731e-06 -4.20858e-07 0)
(3.02472e-06 -3.86556e-07 0)
(1.16148e-06 -1.00681e-06 0)
(1.2663e-06 -9.69975e-07 0)
(1.37088e-06 -9.34531e-07 0)
(1.47471e-06 -9.00162e-07 0)
(1.57774e-06 -8.67056e-07 0)
(1.67971e-06 -8.3517e-07 0)
(1.78055e-06 -8.04464e-07 0)
(1.88014e-06 -7.74823e-07 0)
(1.97844e-06 -7.46049e-07 0)
(2.07543e-06 -7.17961e-07 0)
(2.17113e-06 -6.90352e-07 0)
(2.26554e-06 -6.62965e-07 0)
(2.35875e-06 -6.35535e-07 0)
(2.4508e-06 -6.07867e-07 0)
(2.54178e-06 -5.79673e-07 0)
(2.63184e-06 -5.5074e-07 0)
(2.72106e-06 -5.20855e-07 0)
(2.80964e-06 -4.89743e-07 0)
(2.8977e-06 -4.57189e-07 0)
(2.9855e-06 -4.22994e-07 0)
(1.13617e-06 -1.05451e-06 0)
(1.23879e-06 -1.0183e-06 0)
(1.34135e-06 -9.83091e-07 0)
(1.44333e-06 -9.48652e-07 0)
(1.54471e-06 -9.15198e-07 0)
(1.64526e-06 -8.82727e-07 0)
(1.74489e-06 -8.51253e-07 0)
(1.84347e-06 -8.20702e-07 0)
(1.94094e-06 -7.90916e-07 0)
(2.03727e-06 -7.61758e-07 0)
(2.13245e-06 -7.33054e-07 0)
(2.2265e-06 -7.04581e-07 0)
(2.31947e-06 -6.76106e-07 0)
(2.41139e-06 -6.47469e-07 0)
(2.50234e-06 -6.18411e-07 0)
(2.59247e-06 -5.8876e-07 0)
(2.68182e-06 -5.58333e-07 0)
(2.7706e-06 -5.26882e-07 0)
(2.85889e-06 -4.9422e-07 0)
(2.947e-06 -4.60249e-07 0)
(1.11249e-06 -1.10058e-06 0)
(1.21299e-06 -1.065e-06 0)
(1.31357e-06 -1.03006e-06 0)
(1.41373e-06 -9.95633e-07 0)
(1.51348e-06 -9.61956e-07 0)
(1.61258e-06 -9.29049e-07 0)
(1.71094e-06 -8.96967e-07 0)
(1.80843e-06 -8.65676e-07 0)
(1.90498e-06 -8.3505e-07 0)
(2.00057e-06 -8.04986e-07 0)
(2.09517e-06 -7.75347e-07 0)
(2.18876e-06 -7.4594e-07 0)
(2.28141e-06 -7.16566e-07 0)
(2.37313e-06 -6.87098e-07 0)
(2.464e-06 -6.57311e-07 0)
(2.55412e-06 -6.27063e-07 0)
(2.64355e-06 -5.96197e-07 0)
(2.73245e-06 -5.64487e-07 0)
(2.82095e-06 -5.31814e-07 0)
(2.90927e-06 -4.98123e-07 0)
(1.09001e-06 -1.14518e-06 0)
(1.1885e-06 -1.11018e-06 0)
(1.28716e-06 -1.07553e-06 0)
(1.38557e-06 -1.0412e-06 0)
(1.48371e-06 -1.0074e-06 0)
(1.58136e-06 -9.74172e-07 0)
(1.67842e-06 -9.4162e-07 0)
(1.7748e-06 -9.09733e-07 0)
(1.87039e-06 -8.78423e-07 0)
(1.96519e-06 -8.47601e-07 0)
(2.05915e-06 -8.17173e-07 0)
(2.15225e-06 -7.86974e-07 0)
(2.24454e-06 -7.5684e-07 0)
(2.33602e-06 -7.26678e-07 0)
(2.42675e-06 -6.96289e-07 0)
(2.51683e-06 -6.65555e-07 0)
(2.60627e-06 -6.34337e-07 0)
(2.69526e-06 -6.02448e-07 0)
(2.7839e-06 -5.69857e-07 0)
(2.87238e-06 -5.36454e-07 0)
(1.0684e-06 -1.18844e-06 0)
(1.16496e-06 -1.15398e-06 0)
(1.26179e-06 -1.11965e-06 0)
(1.3585e-06 -1.08544e-06 0)
(1.45507e-06 -1.05159e-06 0)
(1.55129e-06 -1.01814e-06 0)
(1.64708e-06 -9.85236e-07 0)
(1.74234e-06 -9.52878e-07 0)
(1.83699e-06 -9.21021e-07 0)
(1.931e-06 -8.89586e-07 0)
(2.02431e-06 -8.58514e-07 0)
(2.11689e-06 -8.27669e-07 0)
(2.20879e-06 -7.96913e-07 0)
(2.3e-06 -7.66183e-07 0)
(2.39055e-06 -7.35303e-07 0)
(2.48054e-06 -7.0417e-07 0)
(2.56995e-06 -6.72678e-07 0)
(2.65899e-06 -6.40693e-07 0)
(2.74769e-06 -6.08221e-07 0)
(2.83629e-06 -5.75145e-07 0)
(1.04731e-06 -1.23046e-06 0)
(1.14205e-06 -1.19653e-06 0)
(1.23714e-06 -1.16251e-06 0)
(1.33221e-06 -1.12845e-06 0)
(1.42726e-06 -1.09459e-06 0)
(1.5221e-06 -1.06101e-06 0)
(1.61668e-06 -1.02786e-06 0)
(1.71087e-06 -9.95162e-07 0)
(1.8046e-06 -9.62885e-07 0)
(1.89782e-06 -9.30966e-07 0)
(1.99047e-06 -8.99374e-07 0)
(2.08254e-06 -8.68e-07 0)
(2.17404e-06 -8.36736e-07 0)
(2.26496e-06 -8.05542e-07 0)
(2.35531e-06 -7.74258e-07 0)
(2.44517e-06 -7.42803e-07 0)
(2.53453e-06 -7.11111e-07 0)
(2.62358e-06 -6.79098e-07 0)
(2.7123e-06 -6.46739e-07 0)
(2.80098e-06 -6.14038e-07 0)
(1.02637e-06 -1.27139e-06 0)
(1.1194e-06 -1.23793e-06 0)
(1.21282e-06 -1.20421e-06 0)
(1.30633e-06 -1.17033e-06 0)
(1.39996e-06 -1.13651e-06 0)
(1.49352e-06 -1.10288e-06 0)
(1.58695e-06 -1.06958e-06 0)
(1.68012e-06 -1.03663e-06 0)
(1.77298e-06 -1.00403e-06 0)
(1.86546e-06 -9.7173e-07 0)
(1.9575e-06 -9.39742e-07 0)
(2.04908e-06 -9.07965e-07 0)
(2.14021e-06 -8.76308e-07 0)
(2.23085e-06 -8.44748e-07 0)
(2.32099e-06 -8.1314e-07 0)
(2.41071e-06 -7.81436e-07 0)
(2.50001e-06 -7.49611e-07 0)
(2.58902e-06 -7.17599e-07 0)
(2.67779e-06 -6.85391e-07 0)
(2.76647e-06 -6.53035e-07 0)
(1.00525e-06 -1.31131e-06 0)
(1.09663e-06 -1.27831e-06 0)
(1.18846e-06 -1.24484e-06 0)
(1.28055e-06 -1.21115e-06 0)
(1.37288e-06 -1.17744e-06 0)
(1.46526e-06 -1.14382e-06 0)
(1.55764e-06 -1.11043e-06 0)
(1.6499e-06 -1.07734e-06 0)
(1.74195e-06 -1.04452e-06 0)
(1.83374e-06 -1.01195e-06 0)
(1.92523e-06 -9.79669e-07 0)
(2.01637e-06 -9.47586e-07 0)
(2.10714e-06 -9.15623e-07 0)
(2.19749e-06 -8.83765e-07 0)
(2.28743e-06 -8.51899e-07 0)
(2.37703e-06 -8.20017e-07 0)
(2.46627e-06 -7.88114e-07 0)
(2.55524e-06 -7.56092e-07 0)
(2.64399e-06 -7.24061e-07 0)
(2.73268e-06 -6.92045e-07 0)
(9.83545e-07 -1.35036e-06 0)
(1.07334e-06 -1.31769e-06 0)
(1.16369e-06 -1.28453e-06 0)
(1.25454e-06 -1.25109e-06 0)
(1.34568e-06 -1.21751e-06 0)
(1.43704e-06 -1.18395e-06 0)
(1.52848e-06 -1.15055e-06 0)
(1.61992e-06 -1.11737e-06 0)
(1.71127e-06 -1.0844e-06 0)
(1.80249e-06 -1.05167e-06 0)
(1.89351e-06 -1.01918e-06 0)
(1.98425e-06 -9.86873e-07 0)
(2.0747e-06 -9.54668e-07 0)
(2.16481e-06 -9.22588e-07 0)
(2.25459e-06 -8.90549e-07 0)
(2.34411e-06 -8.58535e-07 0)
(2.43327e-06 -8.26539e-07 0)
(2.52221e-06 -7.94533e-07 0)
(2.6109e-06 -7.62683e-07 0)
(2.69961e-06 -7.30976e-07 0)
(9.60783e-07 -1.3885e-06 0)
(1.04922e-06 -1.35621e-06 0)
(1.13836e-06 -1.3234e-06 0)
(1.22804e-06 -1.2902e-06 0)
(1.31817e-06 -1.25681e-06 0)
(1.40861e-06 -1.22336e-06 0)
(1.49926e-06 -1.18999e-06 0)
(1.59002e-06 -1.15681e-06 0)
(1.68081e-06 -1.12379e-06 0)
(1.77156e-06 -1.09096e-06 0)
(1.86218e-06 -1.05833e-06 0)
(1.95258e-06 -1.02587e-06 0)
(2.04278e-06 -9.93506e-07 0)
(2.13274e-06 -9.61263e-07 0)
(2.22241e-06 -9.29076e-07 0)
(2.31182e-06 -8.96965e-07 0)
(2.4009e-06 -8.64901e-07 0)
(2.48987e-06 -8.3292e-07 0)
(2.57858e-06 -8.01207e-07 0)
(2.6672e-06 -7.69807e-07 0)
(9.36632e-07 -1.42609e-06 0)
(1.02383e-06 -1.39419e-06 0)
(1.1119e-06 -1.36166e-06 0)
(1.20063e-06 -1.32872e-06 0)
(1.28992e-06 -1.29553e-06 0)
(1.37963e-06 -1.26222e-06 0)
(1.4697e-06 -1.22895e-06 0)
(1.55998e-06 -1.1958e-06 0)
(1.65037e-06 -1.16277e-06 0)
(1.74075e-06 -1.12989e-06 0)
(1.83108e-06 -1.09719e-06 0)
(1.92128e-06 -1.06461e-06 0)
(2.01134e-06 -1.03213e-06 0)
(2.10115e-06 -9.998e-07 0)
(2.19072e-06 -9.675e-07 0)
(2.28011e-06 -9.35253e-07 0)
(2.36924e-06 -9.03156e-07 0)
(2.45816e-06 -8.71195e-07 0)
(2.54692e-06 -8.39542e-07 0)
(2.63552e-06 -8.08389e-07 0)
(9.10803e-07 -1.46286e-06 0)
(9.96949e-07 -1.43141e-06 0)
(1.08411e-06 -1.39928e-06 0)
(1.17209e-06 -1.36666e-06 0)
(1.26077e-06 -1.33372e-06 0)
(1.35002e-06 -1.3006e-06 0)
(1.43972e-06 -1.26748e-06 0)
(1.52969e-06 -1.23443e-06 0)
(1.61982e-06 -1.20144e-06 0)
(1.71005e-06 -1.16853e-06 0)
(1.80026e-06 -1.13581e-06 0)
(1.89033e-06 -1.1032e-06 0)
(1.98028e-06 -1.07063e-06 0)
(2.07006e-06 -1.03818e-06 0)
(2.15959e-06 -1.00583e-06 0)
(2.24895e-06 -9.73509e-07 0)
(2.33815e-06 -9.41358e-07 0)
(2.42712e-06 -9.09338e-07 0)
(2.51598e-06 -8.77697e-07 0)
(2.6046e-06 -8.46644e-07 0)
(6.37836e-08 -1.20161e-06 0)
(1.92099e-07 -1.18429e-06 0)
(3.22572e-07 -1.15024e-06 0)
(4.56465e-07 -1.10096e-06 0)
(5.94697e-07 -1.03828e-06 0)
(7.37837e-07 -9.64578e-07 0)
(8.86088e-07 -8.82573e-07 0)
(1.03915e-06 -7.95022e-07 0)
(1.19684e-06 -7.0468e-07 0)
(1.35759e-06 -6.13568e-07 0)
(6.2188e-08 -1.22364e-06 0)
(1.87207e-07 -1.20781e-06 0)
(3.13965e-07 -1.17667e-06 0)
(4.43532e-07 -1.13151e-06 0)
(5.76664e-07 -1.07387e-06 0)
(7.13799e-07 -1.00578e-06 0)
(8.55131e-07 -9.29535e-07 0)
(1.00023e-06 -8.47576e-07 0)
(1.14875e-06 -7.6235e-07 0)
(1.29903e-06 -6.76181e-07 0)
(6.07104e-08 -1.24618e-06 0)
(1.82674e-07 -1.23171e-06 0)
(3.06029e-07 -1.2032e-06 0)
(4.31592e-07 -1.16178e-06 0)
(5.60036e-07 -1.10879e-06 0)
(6.91662e-07 -1.04598e-06 0)
(8.26687e-07 -9.75339e-07 0)
(9.64849e-07 -8.9895e-07 0)
(1.1059e-06 -8.18913e-07 0)
(1.24859e-06 -7.37184e-07 0)
(5.93892e-08 -1.26924e-06 0)
(1.78602e-07 -1.25592e-06 0)
(2.99003e-07 -1.22963e-06 0)
(4.21154e-07 -1.19141e-06 0)
(5.45663e-07 -1.14241e-06 0)
(6.72727e-07 -1.08417e-06 0)
(8.025e-07 -1.01849e-06 0)
(9.34741e-07 -9.47213e-07 0)
(1.06916e-06 -8.72314e-07 0)
(1.20479e-06 -7.95521e-07 0)
(5.81901e-08 -1.29282e-06 0)
(1.7485e-07 -1.28053e-06 0)
(2.92525e-07 -1.25625e-06 0)
(4.11589e-07 -1.2209e-06 0)
(5.32567e-07 -1.17553e-06 0)
(6.55604e-07 -1.12151e-06 0)
(7.80825e-07 -1.06045e-06 0)
(9.08035e-07 -9.93901e-07 0)
(1.03696e-06 -9.23713e-07 0)
(1.16662e-06 -8.5147e-07 0)
(5.70555e-08 -1.31687e-06 0)
(1.71386e-07 -1.30548e-06 0)
(2.86552e-07 -1.28295e-06 0)
(4.02858e-07 -1.25014e-06 0)
(5.20719e-07 -1.20797e-06 0)
(6.40269e-07 -1.1577e-06 0)
(7.61522e-07 -1.10079e-06 0)
(8.84318e-07 -1.0386e-06 0)
(1.00847e-06 -9.72856e-07 0)
(1.13295e-06 -9.05058e-07 0)
(5.59603e-08 -1.34138e-06 0)
(1.68098e-07 -1.33078e-06 0)
(2.80908e-07 -1.30984e-06 0)
(3.9469e-07 -1.27931e-06 0)
(5.09712e-07 -1.24002e-06 0)
(6.26144e-07 -1.19314e-06 0)
(7.43952e-07 -1.14e-06 0)
(8.62927e-07 -1.08181e-06 0)
(9.82978e-07 -1.02013e-06 0)
(1.10304e-06 -9.5645e-07 0)
(5.49407e-08 -1.36629e-06 0)
(1.64959e-07 -1.35641e-06 0)
(2.75545e-07 -1.33688e-06 0)
(3.8698e-07 -1.30837e-06 0)
(4.99426e-07 -1.27168e-06 0)
(6.13026e-07 -1.22785e-06 0)
(7.27763e-07 -1.17812e-06 0)
(8.43391e-07 -1.12361e-06 0)
(9.59881e-07 -1.06567e-06 0)
(1.07617e-06 -1.00581e-06 0)
(5.39588e-08 -1.39158e-06 0)
(1.61913e-07 -1.38234e-06 0)
(2.7038e-07 -1.36408e-06 0)
(3.79581e-07 -1.3374e-06 0)
(4.89638e-07 -1.30307e-06 0)
(6.00671e-07 -1.26199e-06 0)
(7.12636e-07 -1.21536e-06 0)
(8.25295e-07 -1.1642e-06 0)
(9.38661e-07 -1.1097e-06 0)
(1.0517e-06 -1.05334e-06 0)
(5.29625e-08 -1.4172e-06 0)
(1.58922e-07 -1.40853e-06 0)
(2.65348e-07 -1.39141e-06 0)
(3.72413e-07 -1.36639e-06 0)
(4.80204e-07 -1.3342e-06 0)
(5.88864e-07 -1.29563e-06 0)
(6.983e-07 -1.2518e-06 0)
(8.08288e-07 -1.2037e-06 0)
(9.18876e-07 -1.15236e-06 0)
(1.02908e-06 -1.09921e-06 0)
(5.19536e-08 -1.4431e-06 0)
(1.55973e-07 -1.43496e-06 0)
(2.6038e-07 -1.41888e-06 0)
(3.65376e-07 -1.39537e-06 0)
(4.70993e-07 -1.36511e-06 0)
(5.7741e-07 -1.32882e-06 0)
(6.8451e-07 -1.28755e-06 0)
(7.92071e-07 -1.24223e-06 0)
(9.00154e-07 -1.19378e-06 0)
(1.00785e-06 -1.14356e-06 0)
(5.09587e-08 -1.46924e-06 0)
(1.53044e-07 -1.46158e-06 0)
(2.55424e-07 -1.44646e-06 0)
(3.58381e-07 -1.42431e-06 0)
(4.61901e-07 -1.3958e-06 0)
(5.66156e-07 -1.3616e-06 0)
(6.7106e-07 -1.32267e-06 0)
(7.76382e-07 -1.2799e-06 0)
(8.82177e-07 -1.2341e-06 0)
(9.87641e-07 -1.18655e-06 0)
(4.99711e-08 -1.49557e-06 0)
(1.50074e-07 -1.48835e-06 0)
(2.50407e-07 -1.4741e-06 0)
(3.51322e-07 -1.45321e-06 0)
(4.5279e-07 -1.42631e-06 0)
(5.54943e-07 -1.39402e-06 0)
(6.57746e-07 -1.35723e-06 0)
(7.60967e-07 -1.31678e-06 0)
(8.64662e-07 -1.27341e-06 0)
(9.6814e-07 -1.22832e-06 0)
(4.89529e-08 -1.52203e-06 0)
(1.4699e-07 -1.51522e-06 0)
(2.45251e-07 -1.50177e-06 0)
(3.44093e-07 -1.48203e-06 0)
(4.43513e-07 -1.4566e-06 0)
(5.43601e-07 -1.42607e-06 0)
(6.44362e-07 -1.39126e-06 0)
(7.45591e-07 -1.35294e-06 0)
(8.47341e-07 -1.31181e-06 0)
(9.49005e-07 -1.26899e-06 0)
(4.78728e-08 -1.54858e-06 0)
(1.43748e-07 -1.54214e-06 0)
(2.39885e-07 -1.52943e-06 0)
(3.36601e-07 -1.51076e-06 0)
(4.33936e-07 -1.4867e-06 0)
(5.31959e-07 -1.4578e-06 0)
(6.30704e-07 -1.42481e-06 0)
(7.30015e-07 -1.38846e-06 0)
(8.29913e-07 -1.34942e-06 0)
(9.29875e-07 -1.30866e-06 0)
(4.67253e-08 -1.57511e-06 0)
(1.40333e-07 -1.56901e-06 0)
(2.34258e-07 -1.55699e-06 0)
(3.28758e-07 -1.53933e-06 0)
(4.2393e-07 -1.51654e-06 0)
(5.1985e-07 -1.48915e-06 0)
(6.16576e-07 -1.45785e-06 0)
(7.14007e-07 -1.42335e-06 0)
(8.12093e-07 -1.38625e-06 0)
(9.10443e-07 -1.34741e-06 0)
(4.55132e-08 -1.60158e-06 0)
(1.3672e-07 -1.59582e-06 0)
(2.28288e-07 -1.58445e-06 0)
(3.20443e-07 -1.56772e-06 0)
(4.13348e-07 -1.54613e-06 0)
(5.07092e-07 -1.52016e-06 0)
(6.01762e-07 -1.49046e-06 0)
(6.97265e-07 -1.45771e-06 0)
(7.93556e-07 -1.42241e-06 0)
(8.90302e-07 -1.38538e-06 0)
(4.42226e-08 -1.62779e-06 0)
(1.32847e-07 -1.62234e-06 0)
(2.21871e-07 -1.61158e-06 0)
(3.11522e-07 -1.59576e-06 0)
(4.02018e-07 -1.5753e-06 0)
(4.93478e-07 -1.55068e-06 0)
(5.85998e-07 -1.52251e-06 0)
(6.79487e-07 -1.4914e-06 0)
(7.73955e-07 -1.45783e-06 0)
(8.69104e-07 -1.4225e-06 0)
(4.28189e-08 -1.65381e-06 0)
(1.28619e-07 -1.64867e-06 0)
(2.14863e-07 -1.6385e-06 0)
(3.01817e-07 -1.62354e-06 0)
(3.89718e-07 -1.60419e-06 0)
(4.7873e-07 -1.58089e-06 0)
(5.68954e-07 -1.55419e-06 0)
(6.60342e-07 -1.52465e-06 0)
(7.52883e-07 -1.49274e-06 0)
(8.46411e-07 -1.45906e-06 0)
(4.12815e-08 -1.67909e-06 0)
(1.24002e-07 -1.67424e-06 0)
(2.07213e-07 -1.66467e-06 0)
(2.91233e-07 -1.65056e-06 0)
(3.76341e-07 -1.6323e-06 0)
(4.62721e-07 -1.6103e-06 0)
(5.50469e-07 -1.58505e-06 0)
(6.39647e-07 -1.55708e-06 0)
(7.30178e-07 -1.52682e-06 0)
(8.22058e-07 -1.49477e-06 0)
)


// ************************************************************************* //
